Protein in water t=   0.00000 step= 0
325731
    1DC5    H5T    1   9.841  12.403   2.465
    1DC5    O5'    2   9.833  12.486   2.513
    1DC5    C5'    3   9.711  12.530   2.469
    1DC5   H5'1    4   9.730  12.572   2.366
    1DC5   H5'2    5   9.669  12.613   2.540
    1DC5    C4'    6   9.601  12.430   2.447
    1DC5    H4'    7   9.526  12.481   2.390
    1DC5    O4'    8   9.653  12.326   2.353
    1DC5    C1'    9   9.577  12.209   2.378
    1DC5    H1'   10   9.475  12.220   2.338
    1DC5     N1   11   9.634  12.082   2.309
    1DC5     C6   12   9.733  12.011   2.375
    1DC5     H6   13   9.789  12.049   2.458
    1DC5     C5   14   9.763  11.884   2.329
    1DC5     H5   15   9.838  11.820   2.376
    1DC5     C4   16   9.687  11.839   2.219
    1DC5     N4   17   9.718  11.721   2.178
    1DC5    H41   18   9.666  11.684   2.104
    1DC5    H42   19   9.745  11.660   2.254
    1DC5     N3   20   9.600  11.905   2.155
    1DC5     C2   21   9.569  12.029   2.198
    1DC5     O2   22   9.482  12.091   2.132
    1DC5    C3'   23   9.540  12.352   2.565
    1DC5    H3'   24   9.585  12.389   2.651
    1DC5    C2'   25   9.577  12.210   2.532
    1DC5   H2'1   26   9.679  12.193   2.572
    1DC5   H2'2   27   9.509  12.142   2.574
    1DC5    O3'   28   9.397  12.344   2.564
    2DG       P   29   9.320  12.460   2.637
    2DG     O1P   30   9.365  12.594   2.582
    2DG     O2P   31   9.338  12.434   2.782
    2DG     O5'   32   9.171  12.422   2.597
    2DG     C5'   33   9.114  12.484   2.477
    2DG    H5'1   34   9.199  12.496   2.411
    2DG    H5'2   35   9.080  12.578   2.506
    2DG     C4'   36   9.002  12.406   2.404
    2DG     H4'   37   8.947  12.468   2.331
    2DG     O4'   38   9.063  12.301   2.330
    2DG     C1'   39   9.010  12.173   2.367
    2DG     H1'   40   8.927  12.145   2.305
    2DG      N9   41   9.124  12.076   2.369
    2DG      C8   42   9.238  12.086   2.439
    2DG      H8   43   9.266  12.171   2.491
    2DG      N7   44   9.314  11.980   2.423
    2DG      C5   45   9.251  11.896   2.337
    2DG      C6   46   9.284  11.768   2.290
    2DG      O6   47   9.382  11.695   2.309
    2DG      N1   48   9.189  11.710   2.208
    2DG      H1   49   9.208  11.609   2.191
    2DG      C2   50   9.071  11.769   2.188
    2DG      N2   51   8.989  11.692   2.128
    2DG     H21   52   9.014  11.596   2.110
    2DG     H22   53   8.893  11.727   2.122
    2DG      N3   54   9.037  11.893   2.222
    2DG      C4   55   9.130  11.947   2.303
    2DG     C3'   56   8.902  12.341   2.495
    2DG     H3'   57   8.897  12.396   2.589
    2DG     C2'   58   8.950  12.195   2.508
    2DG    H2'1   59   9.027  12.193   2.580
    2DG    H2'2   60   8.867  12.130   2.537
    2DG     O3'   61   8.770  12.339   2.443
    3DC       P   62   8.638  12.319   2.541
    3DC     O1P   63   8.530  12.397   2.479
    3DC     O2P   64   8.675  12.345   2.682
    3DC     O5'   65   8.607  12.166   2.514
    3DC     C5'   66   8.569  12.115   2.393
    3DC    H5'1   67   8.635  12.156   2.320
    3DC    H5'2   68   8.463  12.138   2.368
    3DC     C4'   69   8.595  11.965   2.388
    3DC     H4'   70   8.566  11.937   2.284
    3DC     O4'   71   8.732  11.925   2.407
    3DC     C1'   72   8.725  11.804   2.485
    3DC     H1'   73   8.705  11.722   2.415
    3DC      N1   74   8.859  11.781   2.535
    3DC      C6   75   8.909  11.853   2.633
    3DC      H6   76   8.856  11.942   2.659
    3DC      C5   77   9.036  11.823   2.678
    3DC      H5   78   9.080  11.889   2.748
    3DC      C4   79   9.105  11.715   2.625
    3DC      N4   80   9.214  11.675   2.680
    3DC     H41   81   9.248  11.589   2.640
    3DC     H42   82   9.259  11.724   2.751
    3DC      N3   83   9.055  11.632   2.543
    3DC      C2   84   8.928  11.663   2.498
    3DC      O2   85   8.876  11.584   2.421
    3DC     C3'   86   8.508  11.901   2.505
    3DC     H3'   87   8.466  11.978   2.571
    3DC     C2'   88   8.611  11.829   2.587
    3DC    H2'1   89   8.643  11.900   2.663
    3DC    H2'2   90   8.580  11.734   2.642
    3DC     O3'   91   8.405  11.818   2.450
    4DA       P   92   8.322  11.697   2.523
    4DA     O1P   93   8.197  11.684   2.448
    4DA     O2P   94   8.301  11.733   2.661
    4DA     O5'   95   8.404  11.563   2.526
    4DA     C5'   96   8.448  11.508   2.399
    4DA    H5'1   97   8.542  11.557   2.370
    4DA    H5'2   98   8.374  11.520   2.321
    4DA     C4'   99   8.459  11.354   2.409
    4DA     H4'  100   8.436  11.316   2.311
    4DA     O4'  101   8.595  11.323   2.432
    4DA     C1'  102   8.610  11.252   2.551
    4DA     H1'  103   8.639  11.155   2.520
    4DA      N9  104   8.716  11.312   2.633
    4DA      C8  105   8.716  11.441   2.678
    4DA      H8  106   8.639  11.511   2.658
    4DA      N7  107   8.827  11.475   2.741
    4DA      C5  108   8.898  11.357   2.729
    4DA      C6  109   9.031  11.336   2.772
    4DA      N6  110   9.114  11.430   2.819
    4DA     H61  111   9.208  11.395   2.840
    4DA     H62  112   9.096  11.524   2.805
    4DA      N1  113   9.083  11.221   2.751
    4DA      C2  114   9.013  11.122   2.690
    4DA      H2  115   9.065  11.029   2.665
    4DA      N3  116   8.885  11.129   2.648
    4DA      C4  117   8.831  11.253   2.673
    4DA     C3'  118   8.374  11.278   2.513
    4DA     H3'  119   8.291  11.344   2.551
    4DA     C2'  120   8.473  11.259   2.624
    4DA    H2'1  121   8.473  11.347   2.692
    4DA    H2'2  122   8.454  11.177   2.686
    4DA     O3'  123   8.326  11.160   2.454
    5DT       P  124   8.244  11.048   2.528
    5DT     O1P  125   8.158  10.972   2.433
    5DT     O2P  126   8.180  11.105   2.650
    5DT     O5'  127   8.354  10.951   2.574
    5DT     C5'  128   8.439  10.887   2.484
    5DT    H5'1  129   8.502  10.961   2.422
    5DT    H5'2  130   8.366  10.827   2.422
    5DT     C4'  131   8.542  10.790   2.539
    5DT     H4'  132   8.602  10.741   2.459
    5DT     O4'  133   8.640  10.863   2.616
    5DT     C1'  134   8.641  10.807   2.742
    5DT     H1'  135   8.717  10.725   2.737
    5DT      N1  136   8.696  10.912   2.832
    5DT      C6  137   8.611  11.024   2.861
    5DT      H6  138   8.510  11.024   2.832
    5DT      C5  139   8.664  11.132   2.932
    5DT      C7  140   8.582  11.249   2.958
    5DT     H71  141   8.548  11.254   3.062
    5DT     H72  142   8.644  11.337   2.938
    5DT     H73  143   8.488  11.262   2.896
    5DT      C4  144   8.802  11.128   2.980
    5DT      O4  145   8.863  11.221   3.041
    5DT      N3  146   8.871  11.007   2.952
    5DT      H3  147   8.971  11.006   2.987
    5DT      C2  148   8.831  10.909   2.868
    5DT      O2  149   8.907  10.824   2.825
    5DT     C3'  150   8.471  10.694   2.631
    5DT     H3'  151   8.363  10.696   2.623
    5DT     C2'  152   8.503  10.745   2.771
    5DT    H2'1  153   8.426  10.814   2.806
    5DT    H2'2  154   8.513  10.665   2.843
    5DT     O3'  155   8.511  10.560   2.594
    6DG       P  156   8.519  10.429   2.693
    6DG     O1P  157   8.547  10.311   2.614
    6DG     O2P  158   8.395  10.434   2.771
    6DG     O5'  159   8.648  10.450   2.783
    6DG     C5'  160   8.776  10.426   2.726
    6DG    H5'1  161   8.808  10.517   2.681
    6DG    H5'2  162   8.773  10.363   2.646
    6DG     C4'  163   8.880  10.367   2.821
    6DG     H4'  164   8.961  10.327   2.758
    6DG     O4'  165   8.941  10.467   2.896
    6DG     C1'  166   8.914  10.450   3.035
    6DG     H1'  167   9.005  10.415   3.089
    6DG      N9  168   8.866  10.578   3.091
    6DG      C8  169   8.742  10.638   3.079
    6DG      H8  170   8.664  10.591   3.029
    6DG      N7  171   8.731  10.762   3.127
    6DG      C5  172   8.857  10.777   3.191
    6DG      C6  173   8.912  10.884   3.273
    6DG      O6  174   8.862  10.995   3.299
    6DG      N1  175   9.042  10.865   3.313
    6DG      H1  176   9.087  10.937   3.371
    6DG      C2  177   9.103  10.746   3.289
    6DG      N2  178   9.220  10.737   3.345
    6DG     H21  179   9.275  10.817   3.378
    6DG     H22  180   9.257  10.646   3.355
    6DG      N3  181   9.059  10.646   3.218
    6DG      C4  182   8.935  10.663   3.175
    6DG     C3'  183   8.817  10.249   2.909
    6DG     H3'  184   8.721  10.220   2.873
    6DG     C2'  185   8.809  10.334   3.039
    6DG    H2'1  186   8.708  10.379   3.048
    6DG    H2'2  187   8.831  10.263   3.124
    6DG     O3'  188   8.909  10.135   2.912
    7DT       P  189   8.907  10.022   3.029
    7DT     O1P  190   8.971   9.904   2.970
    7DT     O2P  191   8.764   9.997   3.067
    7DT     O5'  192   8.996  10.075   3.150
    7DT     C5'  193   9.131  10.108   3.138
    7DT    H5'1  194   9.145  10.195   3.078
    7DT    H5'2  195   9.190  10.023   3.105
    7DT     C4'  196   9.194  10.142   3.277
    7DT     H4'  197   9.306  10.143   3.269
    7DT     O4'  198   9.135  10.271   3.312
    7DT     C1'  199   9.094  10.275   3.449
    7DT     H1'  200   9.188  10.288   3.508
    7DT      N1  201   9.000  10.385   3.471
    7DT      C6  202   8.876  10.366   3.413
    7DT      H6  203   8.851  10.276   3.354
    7DT      C5  204   8.776  10.456   3.436
    7DT      C7  205   8.637  10.429   3.380
    7DT     H71  206   8.598  10.506   3.310
    7DT     H72  207   8.628  10.330   3.336
    7DT     H73  208   8.571  10.440   3.461
    7DT      C4  209   8.810  10.587   3.504
    7DT      O4  210   8.738  10.679   3.518
    7DT      N3  211   8.942  10.603   3.545
    7DT      H3  212   8.972  10.687   3.593
    7DT      C2  213   9.036  10.505   3.528
    7DT      O2  214   9.151  10.519   3.563
    7DT     C3'  215   9.160  10.044   3.391
    7DT     H3'  216   9.117   9.958   3.347
    7DT     C2'  217   9.059  10.127   3.476
    7DT    H2'1  218   8.951  10.103   3.450
    7DT    H2'2  219   9.072  10.100   3.581
    7DT     O3'  220   9.284  10.008   3.450
    8DG       P  221   9.291   9.910   3.580
    8DG     O1P  222   9.432   9.851   3.593
    8DG     O2P  223   9.183   9.815   3.571
    8DG     O5'  224   9.268  10.005   3.705
    8DG     C5'  225   9.362  10.103   3.741
    8DG    H5'1  226   9.385  10.165   3.652
    8DG    H5'2  227   9.453  10.047   3.767
    8DG     C4'  228   9.304  10.188   3.852
    8DG     H4'  229   9.396  10.232   3.886
    8DG     O4'  230   9.202  10.269   3.795
    8DG     C1'  231   9.092  10.266   3.889
    8DG     H1'  232   9.119  10.318   3.973
    8DG      N9  233   8.962  10.317   3.847
    8DG      C8  234   8.856  10.248   3.792
    8DG      H8  235   8.866  10.141   3.767
    8DG      N7  236   8.749  10.324   3.769
    8DG      C5  237   8.788  10.450   3.821
    8DG      C6  238   8.711  10.566   3.836
    8DG      O6  239   8.600  10.589   3.788
    8DG      N1  240   8.774  10.670   3.900
    8DG      H1  241   8.737  10.764   3.883
    8DG      C2  242   8.904  10.670   3.939
    8DG      N2  243   8.950  10.770   4.006
    8DG     H21  244   8.894  10.853   4.018
    8DG     H22  245   9.029  10.761   4.066
    8DG      N3  246   8.982  10.563   3.930
    8DG      C4  247   8.917  10.449   3.869
    8DG     C3'  248   9.232  10.108   3.969
    8DG     H3'  249   9.266  10.002   3.967
    8DG     C2'  250   9.086  10.125   3.938
    8DG    H2'1  251   9.055  10.044   3.865
    8DG    H2'2  252   9.016  10.105   4.018
    8DG     O3'  253   9.256  10.170   4.094
    9DC       P  254   9.358  10.099   4.191
    9DC     O1P  255   9.496  10.087   4.135
    9DC     O2P  256   9.299   9.986   4.262
    9DC     O5'  257   9.375  10.219   4.299
    9DC     C5'  258   9.430  10.350   4.268
    9DC    H5'1  259   9.405  10.376   4.166
    9DC    H5'2  260   9.542  10.342   4.275
    9DC     C4'  261   9.375  10.470   4.345
    9DC     H4'  262   9.443  10.554   4.349
    9DC     O4'  263   9.253  10.514   4.287
    9DC     C1'  264   9.150  10.503   4.376
    9DC     H1'  265   9.132  10.606   4.421
    9DC      N1  266   9.019  10.465   4.310
    9DC      C6  267   8.987  10.338   4.278
    9DC      H6  268   9.065  10.263   4.283
    9DC      C5  269   8.861  10.315   4.225
    9DC      H5  270   8.832  10.224   4.192
    9DC      C4  271   8.770  10.421   4.208
    9DC      N4  272   8.657  10.404   4.139
    9DC     H41  273   8.606  10.488   4.116
    9DC     H42  274   8.630  10.307   4.105
    9DC      N3  275   8.801  10.547   4.241
    9DC      C2  276   8.928  10.568   4.285
    9DC      O2  277   8.961  10.686   4.310
    9DC     C3'  278   9.345  10.438   4.495
    9DC     H3'  279   9.408  10.356   4.530
    9DC     C2'  280   9.198  10.409   4.483
    9DC    H2'1  281   9.185  10.304   4.453
    9DC    H2'2  282   9.161  10.411   4.583
    9DC     O3'  283   9.376  10.556   4.577
   10DG       P  284   9.375  10.546   4.740
   10DG     O1P  285   9.510  10.593   4.775
   10DG     O2P  286   9.345  10.417   4.791
   10DG     O5'  287   9.259  10.647   4.784
   10DG     C5'  288   9.274  10.792   4.764
   10DG    H5'1  289   9.362  10.832   4.802
   10DG    H5'2  290   9.286  10.820   4.654
   10DG     C4'  291   9.142  10.860   4.819
   10DG     H4'  292   9.163  10.968   4.808
   10DG     O4'  293   9.032  10.830   4.742
   10DG     C1'  294   8.925  10.769   4.821
   10DG     H1'  295   8.835  10.836   4.836
   10DG      N9  296   8.875  10.651   4.745
   10DG      C8  297   8.935  10.530   4.721
   10DG      H8  298   9.028  10.500   4.769
   10DG      N7  299   8.864  10.443   4.647
   10DG      C5  300   8.756  10.522   4.605
   10DG      C6  301   8.641  10.491   4.529
   10DG      O6  302   8.614  10.388   4.472
   10DG      N1  303   8.542  10.578   4.531
   10DG      H1  304   8.458  10.559   4.476
   10DG      C2  305   8.543  10.689   4.601
   10DG      N2  306   8.432  10.756   4.607
   10DG     H21  307   8.355  10.715   4.565
   10DG     H22  308   8.440  10.850   4.644
   10DG      N3  309   8.651  10.733   4.666
   10DG      C4  310   8.758  10.645   4.668
   10DG     C3'  311   9.113  10.824   4.966
   10DG     H3'  312   9.198  10.767   5.005
   10DG     C2'  313   8.988  10.731   4.956
   10DG    H2'1  314   9.024  10.625   4.955
   10DG    H2'2  315   8.924  10.743   5.045
   10DG     O3'  316   9.090  10.939   5.042
   11DT       P  317   9.048  10.936   5.200
   11DT     O1P  318   9.080  11.065   5.261
   11DT     O2P  319   9.100  10.819   5.266
   11DT     O5'  320   8.889  10.919   5.214
   11DT     C5'  321   8.789  11.007   5.160
   11DT    H5'1  322   8.814  11.023   5.061
   11DT    H5'2  323   8.789  11.099   5.212
   11DT     C4'  324   8.653  10.939   5.161
   11DT     H4'  325   8.583  11.019   5.148
   11DT     O4'  326   8.648  10.844   5.061
   11DT     C1'  327   8.537  10.766   5.091
   11DT     H1'  328   8.452  10.823   5.056
   11DT      N1  329   8.539  10.633   5.023
   11DT      C6  330   8.646  10.552   5.043
   11DT      H6  331   8.719  10.576   5.116
   11DT      C5  332   8.663  10.433   4.973
   11DT      C7  333   8.779  10.340   4.996
   11DT     H71  334   8.856  10.377   5.063
   11DT     H72  335   8.733  10.250   5.028
   11DT     H73  336   8.834  10.336   4.903
   11DT      C4  337   8.572  10.407   4.864
   11DT      O4  338   8.575  10.309   4.792
   11DT      N3  339   8.473  10.499   4.841
   11DT      H3  340   8.416  10.490   4.755
   11DT      C2  341   8.435  10.598   4.932
   11DT      O2  342   8.336  10.669   4.916
   11DT     C3'  343   8.616  10.863   5.293
   11DT     H3'  344   8.697  10.831   5.357
   11DT     C2'  345   8.532  10.753   5.242
   11DT    H2'1  346   8.566  10.655   5.278
   11DT    H2'2  347   8.429  10.764   5.262
   11DT     O3'  348   8.538  10.950   5.375
   12DA       P  349   8.455  10.890   5.506
   12DA     O1P  350   8.440  11.015   5.592
   12DA     O2P  351   8.510  10.768   5.563
   12DA     O5'  352   8.295  10.859   5.452
   12DA     C5'  353   8.218  10.945   5.373
   12DA    H5'1  354   8.285  10.971   5.294
   12DA    H5'2  355   8.188  11.031   5.430
   12DA     C4'  356   8.087  10.889   5.327
   12DA     H4'  357   8.025  10.959   5.279
   12DA     O4'  358   8.117  10.791   5.231
   12DA     C1'  359   8.065  10.664   5.262
   12DA     H1'  360   7.967  10.644   5.212
   12DA      N9  361   8.173  10.571   5.211
   12DA      C8  362   8.288  10.541   5.279
   12DA      H8  363   8.334  10.604   5.357
   12DA      N7  364   8.350  10.437   5.223
   12DA      C5  365   8.260  10.398   5.126
   12DA      C6  366   8.266  10.287   5.042
   12DA      N6  367   8.370  10.208   5.021
   12DA     H61  368   8.351  10.139   4.957
   12DA     H62  369   8.444  10.202   5.083
   12DA      N1  370   8.170  10.260   4.952
   12DA      C2  371   8.073  10.355   4.940
   12DA      H2  372   7.994  10.334   4.871
   12DA      N3  373   8.046  10.457   5.022
   12DA      C4  374   8.152  10.483   5.115
   12DA     C3'  375   8.013  10.808   5.433
   12DA     H3'  376   8.036  10.844   5.530
   12DA     C2'  377   8.046  10.661   5.418
   12DA    H2'1  378   8.128  10.628   5.476
   12DA    H2'2  379   7.965  10.593   5.448
   12DA     O3'  380   7.874  10.822   5.405
   13DT       P  381   7.758  10.782   5.508
   13DT     O1P  382   7.644  10.871   5.475
   13DT     O2P  383   7.813  10.780   5.646
   13DT     O5'  384   7.719  10.641   5.469
   13DT     C5'  385   7.634  10.614   5.358
   13DT    H5'1  386   7.678  10.680   5.283
   13DT    H5'2  387   7.531  10.647   5.379
   13DT     C4'  388   7.635  10.474   5.305
   13DT     H4'  389   7.578  10.483   5.212
   13DT     O4'  390   7.771  10.437   5.286
   13DT     C1'  391   7.770  10.291   5.281
   13DT     H1'  392   7.727  10.266   5.185
   13DT      N1  393   7.905  10.229   5.299
   13DT      C6  394   7.995  10.284   5.385
   13DT      H6  395   7.956  10.376   5.435
   13DT      C5  396   8.119  10.226   5.401
   13DT      C7  397   8.217  10.289   5.503
   13DT     H71  398   8.218  10.229   5.588
   13DT     H72  399   8.324  10.285   5.462
   13DT     H73  400   8.187  10.390   5.536
   13DT      C4  401   8.153  10.101   5.340
   13DT      O4  402   8.257  10.047   5.351
   13DT      N3  403   8.058  10.051   5.253
   13DT      H3  404   8.067   9.970   5.187
   13DT      C2  405   7.942  10.119   5.222
   13DT      O2  406   7.867  10.072   5.138
   13DT     C3'  407   7.575  10.373   5.407
   13DT     H3'  408   7.580  10.406   5.509
   13DT     C2'  409   7.671  10.255   5.389
   13DT    H2'1  410   7.728  10.243   5.478
   13DT    H2'2  411   7.627  10.155   5.374
   13DT     O3'  412   7.439  10.347   5.380
   14DT       P  413   7.350  10.241   5.467
   14DT     O1P  414   7.211  10.269   5.428
   14DT     O2P  415   7.378  10.247   5.610
   14DT     O5'  416   7.397  10.097   5.408
   14DT     C5'  417   7.377  10.072   5.270
   14DT    H5'1  418   7.424  10.140   5.204
   14DT    H5'2  419   7.265  10.070   5.242
   14DT     C4'  420   7.427   9.934   5.224
   14DT     H4'  421   7.388   9.917   5.121
   14DT     O4'  422   7.566   9.938   5.221
   14DT     C1'  423   7.606   9.814   5.272
   14DT     H1'  424   7.592   9.738   5.192
   14DT      N1  425   7.744   9.820   5.331
   14DT      C6  426   7.772   9.898   5.443
   14DT      H6  427   7.692   9.967   5.481
   14DT      C5  428   7.892   9.892   5.503
   14DT      C7  429   7.920   9.991   5.622
   14DT     H71  430   7.928   9.944   5.725
   14DT     H72  431   8.014  10.037   5.607
   14DT     H73  432   7.842  10.067   5.633
   14DT      C4  433   7.991   9.798   5.455
   14DT      O4  434   8.105   9.778   5.495
   14DT      N3  435   7.951   9.720   5.352
   14DT      H3  436   8.020   9.652   5.310
   14DT      C2  437   7.829   9.723   5.285
   14DT      O2  438   7.815   9.636   5.199
   14DT     C3'  439   7.375   9.828   5.317
   14DT     H3'  440   7.318   9.876   5.396
   14DT     C2'  441   7.502   9.770   5.375
   14DT    H2'1  442   7.518   9.817   5.480
   14DT    H2'2  443   7.507   9.653   5.390
   14DT     O3'  444   7.290   9.732   5.250
   15DA       P  445   7.237   9.600   5.310
   15DA     O1P  446   7.133   9.551   5.212
   15DA     O2P  447   7.220   9.606   5.454
   15DA     O5'  448   7.357   9.495   5.300
   15DA     C5'  449   7.398   9.442   5.173
   15DA    H5'1  450   7.456   9.518   5.118
   15DA    H5'2  451   7.309   9.409   5.114
   15DA     C4'  452   7.505   9.330   5.193
   15DA     H4'  453   7.523   9.281   5.100
   15DA     O4'  454   7.624   9.399   5.231
   15DA     C1'  455   7.684   9.321   5.329
   15DA     H1'  456   7.753   9.256   5.279
   15DA      N9  457   7.758   9.397   5.430
   15DA      C8  458   7.719   9.498   5.513
   15DA      H8  459   7.628   9.549   5.492
   15DA      N7  460   7.809   9.544   5.599
   15DA      C5  461   7.916   9.454   5.573
   15DA      C6  462   8.053   9.445   5.621
   15DA      N6  463   8.100   9.531   5.708
   15DA     H61  464   8.198   9.521   5.731
   15DA     H62  465   8.035   9.597   5.750
   15DA      N1  466   8.141   9.350   5.587
   15DA      C2  467   8.094   9.269   5.493
   15DA      H2  468   8.164   9.188   5.472
   15DA      N3  469   7.975   9.265   5.435
   15DA      C4  470   7.888   9.365   5.478
   15DA     C3'  471   7.461   9.223   5.293
   15DA     H3'  472   7.360   9.243   5.335
   15DA     C2'  473   7.575   9.242   5.398
   15DA    H2'1  474   7.534   9.291   5.483
   15DA    H2'2  475   7.607   9.142   5.427
   15DA     O3'  476   7.451   9.100   5.235
   16DT       P  477   7.424   8.967   5.311
   16DT     O1P  478   7.401   8.878   5.199
   16DT     O2P  479   7.323   8.976   5.417
   16DT     O5'  480   7.561   8.922   5.377
   16DT     C5'  481   7.666   8.845   5.314
   16DT    H5'1  482   7.725   8.903   5.237
   16DT    H5'2  483   7.623   8.758   5.262
   16DT     C4'  484   7.780   8.787   5.409
   16DT     H4'  485   7.859   8.736   5.352
   16DT     O4'  486   7.836   8.905   5.472
   16DT     C1'  487   7.841   8.865   5.611
   16DT     H1'  488   7.932   8.798   5.624
   16DT      N1  489   7.859   8.992   5.687
   16DT      C6  490   7.751   9.075   5.704
   16DT      H6  491   7.656   9.056   5.651
   16DT      C5  492   7.770   9.191   5.780
   16DT      C7  493   7.651   9.284   5.811
   16DT     H71  494   7.555   9.237   5.775
   16DT     H72  495   7.639   9.288   5.917
   16DT     H73  496   7.654   9.382   5.774
   16DT      C4  497   7.903   9.231   5.824
   16DT      O4  498   7.912   9.341   5.890
   16DT      N3  499   8.010   9.146   5.790
   16DT      H3  500   8.100   9.181   5.805
   16DT      C2  501   7.991   9.027   5.718
   16DT      O2  502   8.095   8.961   5.695
   16DT     C3'  503   7.716   8.702   5.518
   16DT     H3'  504   7.614   8.669   5.491
   16DT     C2'  505   7.710   8.788   5.641
   16DT    H2'1  506   7.620   8.859   5.638
   16DT    H2'2  507   7.709   8.735   5.734
   16DT     O3'  508   7.806   8.593   5.548
   17DA       P  509   7.754   8.440   5.554
   17DA     O1P  510   7.723   8.393   5.414
   17DA     O2P  511   7.651   8.415   5.653
   17DA     O5'  512   7.883   8.358   5.596
   17DA     C5'  513   7.994   8.327   5.507
   17DA    H5'1  514   8.011   8.419   5.450
   17DA    H5'2  515   7.973   8.234   5.440
   17DA     C4'  516   8.120   8.306   5.597
   17DA     H4'  517   8.194   8.260   5.535
   17DA     O4'  518   8.160   8.427   5.663
   17DA     C1'  519   8.125   8.411   5.804
   17DA     H1'  520   8.218   8.401   5.858
   17DA      N9  521   8.056   8.526   5.868
   17DA      C8  522   7.922   8.558   5.863
   17DA      H8  523   7.854   8.502   5.812
   17DA      N7  524   7.887   8.674   5.919
   17DA      C5  525   8.011   8.720   5.956
   17DA      C6  526   8.062   8.839   6.021
   17DA      N6  527   7.988   8.942   6.053
   17DA     H61  528   8.033   9.016   6.112
   17DA     H62  529   7.884   8.944   6.042
   17DA      N1  530   8.186   8.843   6.069
   17DA      C2  531   8.267   8.746   6.031
   17DA      H2  532   8.366   8.762   6.066
   17DA      N3  533   8.251   8.640   5.952
   17DA      C4  534   8.116   8.630   5.933
   17DA     C3'  535   8.094   8.199   5.706
   17DA     H3'  536   8.009   8.140   5.667
   17DA     C2'  537   8.064   8.277   5.829
   17DA    H2'1  538   7.952   8.282   5.833
   17DA    H2'2  539   8.108   8.224   5.915
   17DA     O3'  540   8.203   8.109   5.714
   18DC       P  541   8.221   7.995   5.830
   18DC     O1P  542   8.323   7.896   5.785
   18DC     O2P  543   8.091   7.946   5.878
   18DC     O5'  544   8.286   8.076   5.949
   18DC     C5'  545   8.409   8.145   5.937
   18DC    H5'1  546   8.398   8.221   5.863
   18DC    H5'2  547   8.493   8.086   5.910
   18DC     C4'  548   8.444   8.221   6.059
   18DC     H4'  549   8.546   8.252   6.060
   18DC     O4'  550   8.356   8.329   6.075
   18DC     C1'  551   8.313   8.330   6.208
   18DC     H1'  552   8.387   8.377   6.281
   18DC      N1  553   8.191   8.417   6.221
   18DC      C6  554   8.067   8.367   6.187
   18DC      H6  555   8.058   8.254   6.157
   18DC      C5  556   7.960   8.440   6.191
   18DC      H5  557   7.868   8.399   6.160
   18DC      C4  558   7.972   8.573   6.241
   18DC      N4  559   7.871   8.647   6.279
   18DC     H41  560   7.880   8.741   6.310
   18DC     H42  561   7.781   8.611   6.252
   18DC      N3  562   8.085   8.622   6.279
   18DC      C2  563   8.199   8.548   6.265
   18DC      O2  564   8.301   8.599   6.305
   18DC     C3'  565   8.428   8.125   6.183
   18DC     H3'  566   8.421   8.015   6.150
   18DC     C2'  567   8.301   8.184   6.247
   18DC    H2'1  568   8.208   8.144   6.204
   18DC    H2'2  569   8.294   8.179   6.352
   18DC     O3'  570   8.541   8.152   6.265
   19DA       P  571   8.579   8.071   6.400
   19DA     O1P  572   8.722   8.033   6.393
   19DA     O2P  573   8.487   7.959   6.411
   19DA     O5'  574   8.547   8.173   6.522
   19DA     C5'  575   8.654   8.255   6.570
   19DA    H5'1  576   8.681   8.341   6.506
   19DA    H5'2  577   8.744   8.189   6.584
   19DA     C4'  578   8.641   8.304   6.716
   19DA     H4'  579   8.737   8.345   6.753
   19DA     O4'  580   8.542   8.407   6.712
   19DA     C1'  581   8.428   8.364   6.779
   19DA     H1'  582   8.413   8.424   6.862
   19DA      N9  583   8.309   8.399   6.701
   19DA      C8  584   8.239   8.327   6.603
   19DA      H8  585   8.263   8.227   6.570
   19DA      N7  586   8.130   8.386   6.567
   19DA      C5  587   8.126   8.506   6.644
   19DA      C6  588   8.040   8.617   6.667
   19DA      N6  589   7.926   8.637   6.597
   19DA     H61  590   7.857   8.709   6.616
   19DA     H62  591   7.912   8.577   6.520
   19DA      N1  592   8.053   8.715   6.758
   19DA      C2  593   8.163   8.699   6.834
   19DA      H2  594   8.194   8.786   6.904
   19DA      N3  595   8.258   8.605   6.817
   19DA      C4  596   8.231   8.507   6.727
   19DA     C3'  597   8.591   8.192   6.807
   19DA     H3'  598   8.621   8.096   6.771
   19DA     C2'  599   8.439   8.212   6.818
   19DA    H2'1  600   8.394   8.144   6.752
   19DA    H2'2  601   8.410   8.186   6.918
   19DA     O3'  602   8.646   8.233   6.935
   20DD       P  603   8.650   8.133   7.059
   20DD     O1P  604   8.793   8.122   7.110
   20DD     O2P  605   8.581   8.009   7.021
   20DD     O5'  606   8.558   8.206   7.163
   20DD     C5'  607   8.588   8.332   7.220
   20DD    H5'1  608   8.649   8.393   7.152
   20DD    H5'2  609   8.646   8.317   7.311
   20DD     C4'  610   8.464   8.422   7.253
   20DD     H4'  611   8.501   8.523   7.279
   20DD     O4'  612   8.354   8.417   7.155
   20DD     C1'  613   8.247   8.481   7.223
   20DD     H1'  614   8.275   8.595   7.218
   20DD      N1  615   8.104   8.464   7.172
   20DD      C6  616   8.035   8.334   7.172
   20DD      H6  617   8.113   8.259   7.196
   20DD      C5  618   7.961   8.293   7.046
   20DD      C7  619   8.073   8.208   6.972
   20DD     H71  620   8.171   8.268   6.956
   20DD     H72  621   8.103   8.131   7.032
   20DD     H73  622   8.037   8.161   6.882
   20DD      C4  623   7.916   8.426   6.971
   20DD      O4  624   7.855   8.425   6.862
   20DD      N3  625   7.934   8.540   7.037
   20DD      H3  626   7.903   8.618   6.980
   20DD      C2  627   8.041   8.569   7.110
   20DD      O2  628   8.064   8.686   7.143
   20DD     C3'  629   8.394   8.386   7.391
   20DD     H3'  630   8.382   8.271   7.395
   20DD     C2'  631   8.254   8.438   7.367
   20DD    H2'1  632   8.186   8.355   7.388
   20DD    H2'2  633   8.233   8.527   7.422
   20DD     O3'  634   8.446   8.432   7.517
   21DD       P  635   8.370   8.392   7.653
   21DD     O1P  636   8.468   8.434   7.756
   21DD     O2P  637   8.336   8.242   7.651
   21DD     O5'  638   8.240   8.492   7.662
   21DD     C5'  639   8.108   8.448   7.695
   21DD    H5'1  640   8.083   8.467   7.801
   21DD    H5'2  641   8.095   8.339   7.676
   21DD     C4'  642   8.001   8.524   7.622
   21DD     H4'  643   8.020   8.629   7.626
   21DD     O4'  644   7.995   8.479   7.484
   21DD     C1'  645   7.865   8.498   7.426
   21DD     H1'  646   7.857   8.598   7.400
   21DD      N1  647   7.828   8.429   7.297
   21DD      C6  648   7.912   8.312   7.258
   21DD      H6  649   7.928   8.251   7.348
   21DD      C5  650   7.858   8.231   7.140
   21DD      C7  651   7.878   8.078   7.169
   21DD     H71  652   7.839   8.021   7.082
   21DD     H72  653   7.982   8.052   7.188
   21DD     H73  654   7.810   8.046   7.250
   21DD      C4  655   7.708   8.261   7.112
   21DD      O4  656   7.644   8.195   7.031
   21DD      N3  657   7.649   8.369   7.169
   21DD      H3  658   7.557   8.393   7.129
   21DD      C2  659   7.704   8.461   7.248
   21DD      O2  660   7.635   8.551   7.288
   21DD     C3'  661   7.857   8.493   7.671
   21DD     H3'  662   7.853   8.404   7.731
   21DD     C2'  663   7.779   8.456   7.546
   21DD    H2'1  664   7.751   8.354   7.551
   21DD    H2'2  665   7.685   8.517   7.538
   21DD     O3'  666   7.797   8.597   7.752
   22DG       P  667   7.689   8.559   7.866
   22DG     O1P  668   7.680   8.664   7.969
   22DG     O2P  669   7.712   8.420   7.912
   22DG     O5'  670   7.558   8.552   7.786
   22DG     C5'  671   7.507   8.670   7.725
   22DG    H5'1  672   7.528   8.663   7.619
   22DG    H5'2  673   7.549   8.756   7.769
   22DG     C4'  674   7.351   8.681   7.728
   22DG     H4'  675   7.332   8.782   7.712
   22DG     O4'  676   7.299   8.618   7.613
   22DG     C1'  677   7.248   8.491   7.651
   22DG     H1'  678   7.139   8.473   7.623
   22DG      N9  679   7.318   8.389   7.570
   22DG      C8  680   7.438   8.330   7.594
   22DG      H8  681   7.502   8.367   7.671
   22DG      N7  682   7.467   8.227   7.510
   22DG      C5  683   7.356   8.237   7.419
   22DG      C6  684   7.343   8.168   7.293
   22DG      O6  685   7.416   8.087   7.236
   22DG      N1  686   7.219   8.197   7.233
   22DG      H1  687   7.211   8.170   7.138
   22DG      C2  688   7.142   8.297   7.276
   22DG      N2  689   7.037   8.331   7.198
   22DG     H21  690   7.011   8.267   7.127
   22DG     H22  691   6.982   8.406   7.230
   22DG      N3  692   7.158   8.373   7.384
   22DG      C4  693   7.267   8.331   7.456
   22DG     C3'  694   7.280   8.619   7.854
   22DG     H3'  695   7.347   8.604   7.941
   22DG     C2'  696   7.256   8.477   7.808
   22DG    H2'1  697   7.339   8.418   7.840
   22DG    H2'2  698   7.163   8.432   7.849
   22DG     O3'  699   7.166   8.694   7.894
   23DT       P  700   7.044   8.635   7.988
   23DT     O1P  701   6.960   8.752   8.029
   23DT     O2P  702   7.106   8.549   8.085
   23DT     O5'  703   6.963   8.537   7.892
   23DT     C5'  704   6.910   8.581   7.767
   23DT    H5'1  705   6.992   8.606   7.695
   23DT    H5'2  706   6.843   8.671   7.782
   23DT     C4'  707   6.821   8.482   7.690
   23DT     H4'  708   6.772   8.529   7.598
   23DT     O4'  709   6.904   8.372   7.643
   23DT     C1'  710   6.845   8.249   7.668
   23DT     H1'  711   6.761   8.226   7.607
   23DT      N1  712   6.953   8.149   7.661
   23DT      C6  713   7.063   8.151   7.745
   23DT      H6  714   7.056   8.218   7.825
   23DT      C5  715   7.178   8.081   7.729
   23DT      C7  716   7.287   8.081   7.835
   23DT     H71  717   7.369   8.138   7.802
   23DT     H72  718   7.255   8.122   7.929
   23DT     H73  719   7.308   7.979   7.867
   23DT      C4  720   7.184   7.994   7.609
   23DT      O4  721   7.270   7.906   7.579
   23DT      N3  722   7.079   7.997   7.522
   23DT      H3  723   7.085   7.955   7.430
   23DT      C2  724   6.969   8.080   7.542
   23DT      O2  725   6.898   8.097   7.441
   23DT     C3'  726   6.716   8.411   7.775
   23DT     H3'  727   6.697   8.468   7.869
   23DT     C2'  728   6.777   8.268   7.799
   23DT    H2'1  729   6.859   8.272   7.875
   23DT    H2'2  730   6.709   8.190   7.824
   23DT     O3'  731   6.603   8.398   7.688
   24DA       P  732   6.459   8.400   7.745
   24DA     O1P  733   6.417   8.543   7.739
   24DA     O2P  734   6.455   8.334   7.876
   24DA     O5'  735   6.370   8.310   7.646
   24DA     C5'  736   6.342   8.353   7.513
   24DA    H5'1  737   6.443   8.392   7.480
   24DA    H5'2  738   6.288   8.446   7.504
   24DA     C4'  739   6.283   8.243   7.427
   24DA     H4'  740   6.254   8.282   7.327
   24DA     O4'  741   6.383   8.143   7.419
   24DA     C1'  742   6.347   8.038   7.501
   24DA     H1'  743   6.327   7.952   7.438
   24DA      N9  744   6.463   8.002   7.573
   24DA      C8  745   6.498   8.024   7.698
   24DA      H8  746   6.440   8.083   7.764
   24DA      N7  747   6.607   7.963   7.736
   24DA      C5  748   6.655   7.905   7.619
   24DA      C6  749   6.765   7.825   7.577
   24DA      N6  750   6.857   7.791   7.661
   24DA     H61  751   6.943   7.750   7.619
   24DA     H62  752   6.842   7.800   7.763
   24DA      N1  753   6.789   7.786   7.454
   24DA      C2  754   6.696   7.824   7.367
   24DA      H2  755   6.716   7.800   7.266
   24DA      N3  756   6.585   7.893   7.387
   24DA      C4  757   6.567   7.932   7.517
   24DA     C3'  758   6.157   8.181   7.489
   24DA     H3'  759   6.098   8.250   7.541
   24DA     C2'  760   6.215   8.078   7.579
   24DA    H2'1  761   6.242   8.125   7.671
   24DA    H2'2  762   6.144   8.001   7.595
   24DA     O3'  763   6.081   8.113   7.386
   25DC       P  764   5.944   8.045   7.402
   25DC     O1P  765   5.869   8.080   7.282
   25DC     O2P  766   5.894   8.066   7.541
   25DC     O5'  767   5.981   7.890   7.384
   25DC     C5'  768   6.054   7.857   7.266
   25DC    H5'1  769   6.119   7.936   7.224
   25DC    H5'2  770   5.991   7.844   7.176
   25DC     C4'  771   6.140   7.724   7.284
   25DC     H4'  772   6.191   7.697   7.186
   25DC     O4'  773   6.240   7.739   7.388
   25DC     C1'  774   6.290   7.612   7.416
   25DC     H1'  775   6.362   7.586   7.339
   25DC      N1  776   6.372   7.598   7.543
   25DC      C6  777   6.341   7.657   7.663
   25DC      H6  778   6.244   7.700   7.682
   25DC      C5  779   6.430   7.659   7.762
   25DC      H5  780   6.415   7.715   7.846
   25DC      C4  781   6.556   7.591   7.733
   25DC      N4  782   6.652   7.589   7.822
   25DC     H41  783   6.738   7.544   7.798
   25DC     H42  784   6.634   7.623   7.918
   25DC      N3  785   6.582   7.520   7.626
   25DC      C2  786   6.485   7.517   7.533
   25DC      O2  787   6.500   7.432   7.446
   25DC     C3'  788   6.058   7.604   7.332
   25DC     H3'  789   5.978   7.632   7.401
   25DC     C2'  790   6.167   7.519   7.400
   25DC    H2'1  791   6.117   7.494   7.494
   25DC    H2'2  792   6.197   7.434   7.345
   25DC     O3'  793   6.002   7.530   7.228
   26DG       P  794   5.913   7.399   7.254
   26DG     O1P  795   5.831   7.365   7.129
   26DG     O2P  796   5.848   7.420   7.383
   26DG     O5'  797   6.015   7.284   7.268
   26DG     C5'  798   6.106   7.238   7.167
   26DG    H5'1  799   6.177   7.318   7.138
   26DG    H5'2  800   6.050   7.197   7.078
   26DG     C4'  801   6.195   7.119   7.217
   26DG     H4'  802   6.253   7.097   7.134
   26DG     O4'  803   6.282   7.176   7.313
   26DG     C1'  804   6.281   7.086   7.424
   26DG     H1'  805   6.359   7.011   7.406
   26DG      N9  806   6.309   7.157   7.548
   26DG      C8  807   6.233   7.258   7.599
   26DG      H8  808   6.141   7.296   7.549
   26DG      N7  809   6.288   7.322   7.694
   26DG      C5  810   6.399   7.241   7.724
   26DG      C6  811   6.492   7.250   7.831
   26DG      O6  812   6.485   7.321   7.927
   26DG      N1  813   6.597   7.158   7.824
   26DG      H1  814   6.659   7.150   7.907
   26DG      C2  815   6.607   7.065   7.728
   26DG      N2  816   6.709   6.988   7.738
   26DG     H21  817   6.775   7.013   7.802
   26DG     H22  818   6.718   6.930   7.660
   26DG      N3  819   6.521   7.048   7.623
   26DG      C4  820   6.420   7.143   7.626
   26DG     C3'  821   6.120   7.000   7.269
   26DG     H3'  822   6.016   7.024   7.251
   26DG     C2'  823   6.147   7.014   7.415
   26DG    H2'1  824   6.064   7.064   7.456
   26DG    H2'2  825   6.154   6.913   7.452
   26DG     O3'  826   6.175   6.877   7.224
   27DC       P  827   6.097   6.740   7.214
   27DC     O1P  828   6.138   6.657   7.101
   27DC     O2P  829   5.957   6.770   7.234
   27DC     O5'  830   6.143   6.669   7.347
   27DC     C5'  831   6.280   6.631   7.367
   27DC    H5'1  832   6.347   6.702   7.320
   27DC    H5'2  833   6.290   6.533   7.311
   27DC     C4'  834   6.311   6.621   7.520
   27DC     H4'  835   6.416   6.592   7.529
   27DC     O4'  836   6.294   6.744   7.584
   27DC     C1'  837   6.260   6.713   7.719
   27DC     H1'  838   6.342   6.657   7.765
   27DC      N1  839   6.238   6.835   7.796
   27DC      C6  840   6.127   6.914   7.779
   27DC      H6  841   6.044   6.898   7.707
   27DC      C5  842   6.111   7.023   7.862
   27DC      H5  843   6.030   7.091   7.844
   27DC      C4  844   6.206   7.047   7.961
   27DC      N4  845   6.188   7.151   8.044
   27DC     H41  846   6.260   7.162   8.115
   27DC     H42  847   6.122   7.223   8.023
   27DC      N3  848   6.312   6.976   7.976
   27DC      C2  849   6.327   6.870   7.897
   27DC      O2  850   6.429   6.803   7.920
   27DC     C3'  851   6.226   6.523   7.596
   27DC     H3'  852   6.150   6.480   7.529
   27DC     C2'  853   6.149   6.617   7.697
   27DC    H2'1  854   6.067   6.661   7.645
   27DC    H2'2  855   6.124   6.553   7.782
   27DC     O3'  856   6.296   6.423   7.662
   28DA       P  857   6.258   6.275   7.641
   28DA     O1P  858   6.297   6.243   7.503
   28DA     O2P  859   6.120   6.242   7.693
   28DA     O5'  860   6.371   6.201   7.735
   28DA     C5'  861   6.508   6.204   7.703
   28DA    H5'1  862   6.533   6.296   7.652
   28DA    H5'2  863   6.525   6.117   7.641
   28DA     C4'  864   6.598   6.196   7.832
   28DA     H4'  865   6.699   6.179   7.795
   28DA     O4'  866   6.591   6.318   7.901
   28DA     C1'  867   6.529   6.291   8.031
   28DA     H1'  868   6.608   6.309   8.107
   28DA      N9  869   6.415   6.388   8.049
   28DA      C8  870   6.286   6.392   7.996
   28DA      H8  871   6.243   6.323   7.923
   28DA      N7  872   6.215   6.499   8.034
   28DA      C5  873   6.305   6.561   8.127
   28DA      C6  874   6.303   6.676   8.208
   28DA      N6  875   6.208   6.767   8.203
   28DA     H61  876   6.209   6.847   8.263
   28DA     H62  877   6.127   6.744   8.149
   28DA      N1  878   6.401   6.708   8.292
   28DA      C2  879   6.511   6.632   8.285
   28DA      H2  880   6.595   6.673   8.345
   28DA      N3  881   6.532   6.514   8.217
   28DA      C4  882   6.422   6.489   8.142
   28DA     C3'  883   6.573   6.078   7.925
   28DA     H3'  884   6.515   5.996   7.873
   28DA     C2'  885   6.478   6.145   8.021
   28DA    H2'1  886   6.381   6.149   7.972
   28DA    H2'2  887   6.478   6.093   8.117
   28DA     O3'  888   6.688   6.020   7.987
   29DT       P  889   6.684   5.880   8.067
   29DT     O1P  890   6.813   5.809   8.059
   29DT     O2P  891   6.559   5.814   8.037
   29DT     O5'  892   6.675   5.929   8.220
   29DT     C5'  893   6.751   6.034   8.273
   29DT    H5'1  894   6.744   6.125   8.207
   29DT    H5'2  895   6.854   6.003   8.285
   29DT     C4'  896   6.694   6.093   8.400
   29DT     H4'  897   6.774   6.132   8.457
   29DT     O4'  898   6.603   6.192   8.363
   29DT     C1'  899   6.514   6.215   8.472
   29DT     H1'  900   6.560   6.296   8.534
   29DT      N1  901   6.385   6.277   8.421
   29DT      C6  902   6.302   6.213   8.332
   29DT      H6  903   6.331   6.125   8.285
   29DT      C5  904   6.180   6.265   8.301
   29DT      C7  905   6.091   6.199   8.197
   29DT     H71  906   6.040   6.269   8.134
   29DT     H72  907   6.150   6.132   8.129
   29DT     H73  908   6.012   6.143   8.248
   29DT      C4  909   6.142   6.397   8.353
   29DT      O4  910   6.050   6.465   8.316
   29DT      N3  911   6.224   6.453   8.445
   29DT      H3  912   6.188   6.525   8.508
   29DT      C2  913   6.344   6.400   8.477
   29DT      O2  914   6.406   6.464   8.562
   29DT     C3'  915   6.619   5.988   8.484
   29DT     H3'  916   6.570   5.905   8.423
   29DT     C2'  917   6.501   6.080   8.538
   29DT    H2'1  918   6.409   6.029   8.508
   29DT    H2'2  919   6.495   6.085   8.643
   29DT     O3'  920   6.704   5.931   8.576
   30DA       P  921   6.653   5.820   8.687
   30DA     O1P  922   6.768   5.726   8.705
   30DA     O2P  923   6.529   5.764   8.635
   30DA     O5'  924   6.633   5.899   8.822
   30DA     C5'  925   6.735   5.989   8.871
   30DA    H5'1  926   6.763   6.067   8.801
   30DA    H5'2  927   6.823   5.929   8.893
   30DA     C4'  928   6.692   6.056   9.004
   30DA     H4'  929   6.782   6.116   9.036
   30DA     O4'  930   6.581   6.153   8.998
   30DA     C1'  931   6.461   6.082   9.018
   30DA     H1'  932   6.412   6.146   9.097
   30DA      N9  933   6.366   6.074   8.903
   30DA      C8  934   6.326   5.965   8.827
   30DA      H8  935   6.381   5.871   8.831
   30DA      N7  936   6.241   5.988   8.728
   30DA      C5  937   6.205   6.119   8.758
   30DA      C6  938   6.104   6.204   8.698
   30DA      N6  939   6.022   6.180   8.594
   30DA     H61  940   5.964   6.256   8.558
   30DA     H62  941   6.005   6.084   8.568
   30DA      N1  942   6.079   6.318   8.749
   30DA      C2  943   6.150   6.354   8.854
   30DA      H2  944   6.109   6.447   8.891
   30DA      N3  945   6.244   6.288   8.920
   30DA      C4  946   6.268   6.165   8.873
   30DA     C3'  947   6.647   5.970   9.122
   30DA     H3'  948   6.707   5.876   9.121
   30DA     C2'  949   6.501   5.951   9.088
   30DA    H2'1  950   6.497   5.875   9.012
   30DA    H2'2  951   6.440   5.928   9.177
   30DA     O3'  952   6.680   6.043   9.239
   31DT       P  953   6.625   5.998   9.380
   31DT     O1P  954   6.701   6.066   9.490
   31DT     O2P  955   6.627   5.849   9.384
   31DT     O5'  956   6.470   6.038   9.395
   31DT     C5'  957   6.441   6.176   9.388
   31DT    H5'1  958   6.488   6.222   9.302
   31DT    H5'2  959   6.484   6.234   9.467
   31DT     C4'  960   6.285   6.193   9.384
   31DT     H4'  961   6.266   6.298   9.386
   31DT     O4'  962   6.241   6.144   9.259
   31DT     C1'  963   6.103   6.119   9.269
   31DT     H1'  964   6.043   6.213   9.284
   31DT      N1  965   6.047   6.040   9.155
   31DT      C6  966   6.092   5.916   9.116
   31DT      H6  967   6.163   5.864   9.185
   31DT      C5  968   6.050   5.857   9.000
   31DT      C7  969   6.110   5.727   8.955
   31DT     H71  970   6.144   5.741   8.854
   31DT     H72  971   6.198   5.710   9.022
   31DT     H73  972   6.037   5.646   8.950
   31DT      C4  973   5.959   5.929   8.911
   31DT      O4  974   5.931   5.895   8.795
   31DT      N3  975   5.921   6.048   8.963
   31DT      H3  976   5.854   6.098   8.908
   31DT      C2  977   5.955   6.106   9.082
   31DT      O2  978   5.900   6.211   9.108
   31DT     C3'  979   6.200   6.119   9.494
   31DT     H3'  980   6.252   6.054   9.551
   31DT     C2'  981   6.091   6.048   9.404
   31DT    H2'1  982   6.107   5.941   9.392
   31DT    H2'2  983   5.990   6.054   9.446
   31DT     O3'  984   6.147   6.226   9.570
   32DG       P  985   6.016   6.219   9.672
   32DG     O1P  986   6.012   6.335   9.765
   32DG     O2P  987   6.014   6.085   9.735
   32DG     O5'  988   5.895   6.231   9.565
   32DG     C5'  989   5.850   6.360   9.530
   32DG    H5'1  990   5.914   6.401   9.456
   32DG    H5'2  991   5.843   6.424   9.610
   32DG     C4'  992   5.707   6.361   9.475
   32DG     H4'  993   5.668   6.463   9.455
   32DG     O4'  994   5.696   6.289   9.354
   32DG     C1'  995   5.598   6.194   9.366
   32DG     H1'  996   5.503   6.236   9.339
   32DG      N9  997   5.636   6.083   9.281
   32DG      C8  998   5.741   5.994   9.296
   32DG      H8  999   5.809   5.997   9.372
   32DG      N7 1000   5.738   5.902   9.206
   32DG      C5 1001   5.622   5.918   9.130
   32DG      C6 1002   5.562   5.851   9.022
   32DG      O6 1003   5.611   5.749   8.961
   32DG      N1 1004   5.438   5.902   8.982
   32DG      H1 1005   5.391   5.867   8.899
   32DG      C2 1006   5.385   6.018   9.029
   32DG      N2 1007   5.272   6.066   8.974
   32DG     H21 1008   5.232   6.018   8.892
   32DG     H22 1009   5.242   6.155   9.005
   32DG      N3 1010   5.443   6.091   9.127
   32DG      C4 1011   5.561   6.037   9.174
   32DG     C3' 1012   5.608   6.287   9.571
   32DG     H3' 1013   5.651   6.272   9.672
   32DG     C2' 1014   5.588   6.150   9.507
   32DG    H2'1 1015   5.670   6.088   9.541
   32DG    H2'2 1016   5.487   6.108   9.517
   32DG     O3' 1017   5.493   6.371   9.581
   33DC3      P 1018   5.361   6.344   9.669
   33DC3    O1P 1019   5.315   6.479   9.712
   33DC3    O2P 1020   5.391   6.243   9.773
   33DC3    O5' 1021   5.243   6.281   9.583
   33DC3    C5' 1022   5.199   6.344   9.462
   33DC3   H5'1 1023   5.274   6.348   9.383
   33DC3   H5'2 1024   5.164   6.449   9.485
   33DC3    C4' 1025   5.073   6.268   9.410
   33DC3    H4' 1026   5.023   6.339   9.341
   33DC3    O4' 1027   5.123   6.161   9.333
   33DC3    C1' 1028   5.077   6.036   9.372
   33DC3    H1' 1029   4.988   6.022   9.310
   33DC3     N1 1030   5.180   5.935   9.345
   33DC3     C6 1031   5.296   5.931   9.418
   33DC3     H6 1032   5.310   6.003   9.499
   33DC3     C5 1033   5.395   5.842   9.388
   33DC3     H5 1034   5.488   5.849   9.439
   33DC3     C4 1035   5.365   5.749   9.286
   33DC3     N4 1036   5.460   5.674   9.247
   33DC3    H41 1037   5.446   5.624   9.164
   33DC3    H42 1038   5.548   5.670   9.294
   33DC3     N3 1039   5.249   5.745   9.218
   33DC3     C2 1040   5.160   5.840   9.246
   33DC3     O2 1041   5.052   5.839   9.183
   33DC3    C3' 1042   4.981   6.200   9.519
   33DC3    H3' 1043   4.998   6.253   9.614
   33DC3    C2' 1044   5.029   6.057   9.514
   33DC3   H2'1 1045   5.122   6.045   9.579
   33DC3   H2'2 1046   4.948   5.990   9.546
   33DC3    O3' 1047   4.842   6.199   9.494
   33DC3    H3T 1048   4.818   6.118   9.441
   34DG5    H5T 1049   5.005   5.107   8.204
   34DG5    O5' 1050   5.026   5.173   8.272
   34DG5    C5' 1051   4.929   5.273   8.279
   34DG5   H5'1 1052   4.842   5.241   8.335
   34DG5   H5'2 1053   4.894   5.304   8.180
   34DG5    C4' 1054   4.971   5.401   8.341
   34DG5    H4' 1055   4.883   5.467   8.339
   34DG5    O4' 1056   5.020   5.374   8.476
   34DG5    C1' 1057   5.136   5.458   8.496
   34DG5    H1' 1058   5.097   5.558   8.502
   34DG5     N9 1059   5.215   5.428   8.622
   34DG5     C8 1060   5.304   5.328   8.657
   34DG5     H8 1061   5.342   5.256   8.590
   34DG5     N7 1062   5.360   5.349   8.771
   34DG5     C5 1063   5.299   5.463   8.819
   34DG5     C6 1064   5.305   5.518   8.951
   34DG5     O6 1065   5.378   5.483   9.042
   34DG5     N1 1066   5.212   5.621   8.970
   34DG5     H1 1067   5.222   5.675   9.058
   34DG5     C2 1068   5.128   5.662   8.876
   34DG5     N2 1069   5.058   5.758   8.913
   34DG5    H21 1070   5.054   5.801   9.008
   34DG5    H22 1071   5.000   5.801   8.844
   34DG5     N3 1072   5.118   5.610   8.756
   34DG5     C4 1073   5.207   5.508   8.733
   34DG5    C3' 1074   5.081   5.472   8.265
   34DG5    H3' 1075   5.106   5.425   8.169
   34DG5    C2' 1076   5.202   5.457   8.362
   34DG5   H2'1 1077   5.247   5.354   8.352
   34DG5   H2'2 1078   5.278   5.533   8.347
   34DG5    O3' 1079   5.055   5.608   8.256
   35DC       P 1080   5.011   5.672   8.120
   35DC     O1P 1081   4.889   5.613   8.064
   35DC     O2P 1082   5.134   5.684   8.038
   35DC     O5' 1083   4.974   5.830   8.159
   35DC     C5' 1084   4.849   5.854   8.228
   35DC    H5'1 1085   4.804   5.764   8.276
   35DC    H5'2 1086   4.773   5.889   8.163
   35DC     C4' 1087   4.864   5.950   8.344
   35DC     H4' 1088   4.766   5.964   8.403
   35DC     O4' 1089   4.943   5.891   8.448
   35DC     C1' 1090   5.052   5.977   8.477
   35DC     H1' 1091   5.020   6.051   8.549
   35DC      N1 1092   5.170   5.903   8.532
   35DC      C6 1093   5.242   5.819   8.457
   35DC      H6 1094   5.218   5.813   8.352
   35DC      C5 1095   5.356   5.763   8.503
   35DC      H5 1096   5.413   5.704   8.437
   35DC      C4 1097   5.385   5.773   8.641
   35DC      N4 1098   5.503   5.722   8.673
   35DC     H41 1099   5.555   5.743   8.753
   35DC     H42 1100   5.557   5.688   8.595
   35DC      N3 1101   5.324   5.865   8.716
   35DC      C2 1102   5.214   5.928   8.662
   35DC      O2 1103   5.153   6.001   8.741
   35DC     C3' 1104   4.929   6.082   8.311
   35DC     H3' 1105   4.925   6.101   8.206
   35DC     C2' 1106   5.073   6.063   8.359
   35DC    H2'1 1107   5.116   6.013   8.273
   35DC    H2'2 1108   5.125   6.153   8.382
   35DC     O3' 1109   4.861   6.186   8.385
   36DA       P 1110   4.910   6.339   8.392
   36DA     O1P 1111   4.784   6.414   8.402
   36DA     O2P 1112   5.002   6.375   8.279
   36DA     O5' 1113   4.999   6.346   8.525
   36DA     C5' 1114   4.949   6.316   8.656
   36DA    H5'1 1115   4.961   6.210   8.672
   36DA    H5'2 1116   4.839   6.346   8.658
   36DA     C4' 1117   5.008   6.396   8.765
   36DA     H4' 1118   4.932   6.399   8.839
   36DA     O4' 1119   5.132   6.337   8.801
   36DA     C1' 1120   5.243   6.413   8.758
   36DA     H1' 1121   5.295   6.457   8.843
   36DA      N9 1122   5.342   6.316   8.695
   36DA      C8 1123   5.335   6.267   8.574
   36DA      H8 1124   5.251   6.278   8.507
   36DA      N7 1125   5.423   6.178   8.545
   36DA      C5 1126   5.503   6.180   8.660
   36DA      C6 1127   5.620   6.108   8.698
   36DA      N6 1128   5.683   6.013   8.632
   36DA     H61 1129   5.760   5.960   8.681
   36DA     H62 1130   5.648   5.978   8.540
   36DA      N1 1131   5.679   6.127   8.818
   36DA      C2 1132   5.621   6.216   8.899
   36DA      H2 1133   5.680   6.239   8.992
   36DA      N3 1134   5.517   6.297   8.871
   36DA      C4 1135   5.456   6.263   8.752
   36DA     C3' 1136   5.047   6.538   8.723
   36DA     H3' 1137   4.979   6.563   8.642
   36DA     C2' 1138   5.190   6.529   8.672
   36DA    H2'1 1139   5.196   6.497   8.570
   36DA    H2'2 1140   5.258   6.612   8.705
   36DA     O3' 1141   5.027   6.629   8.836
   37DT       P 1142   5.056   6.784   8.835
   37DT     O1P 1143   4.974   6.833   8.951
   37DT     O2P 1144   5.024   6.845   8.703
   37DT     O5' 1145   5.205   6.791   8.864
   37DT     C5' 1146   5.265   6.749   8.989
   37DT    H5'1 1147   5.224   6.652   9.021
   37DT    H5'2 1148   5.238   6.812   9.065
   37DT     C4' 1149   5.414   6.749   8.977
   37DT     H4' 1150   5.454   6.745   9.082
   37DT     O4' 1151   5.468   6.645   8.905
   37DT     C1' 1152   5.602   6.682   8.900
   37DT     H1' 1153   5.652   6.649   8.996
   37DT      N1 1154   5.652   6.597   8.783
   37DT      C6 1155   5.584   6.585   8.664
   37DT      H6 1156   5.487   6.630   8.657
   37DT      C5 1157   5.635   6.510   8.561
   37DT      C7 1158   5.568   6.505   8.429
   37DT     H71 1159   5.527   6.402   8.411
   37DT     H72 1160   5.482   6.577   8.419
   37DT     H73 1161   5.645   6.530   8.367
   37DT      C4 1162   5.762   6.443   8.577
   37DT      O4 1163   5.819   6.372   8.493
   37DT      N3 1164   5.821   6.456   8.698
   37DT      H3 1165   5.911   6.415   8.714
   37DT      C2 1166   5.780   6.539   8.798
   37DT      O2 1167   5.859   6.564   8.890
   37DT     C3' 1168   5.476   6.880   8.916
   37DT     H3' 1169   5.430   6.900   8.821
   37DT     C2' 1170   5.621   6.828   8.880
   37DT    H2'1 1171   5.660   6.860   8.782
   37DT    H2'2 1172   5.688   6.863   8.953
   37DT     O3' 1173   5.486   7.004   8.988
   38DA       P 1174   5.586   7.130   8.946
   38DA     O1P 1175   5.546   7.237   9.045
   38DA     O2P 1176   5.569   7.161   8.800
   38DA     O5' 1177   5.741   7.099   8.980
   38DA     C5' 1178   5.788   7.078   9.110
   38DA    H5'1 1179   5.749   6.986   9.151
   38DA    H5'2 1180   5.743   7.152   9.181
   38DA     C4' 1181   5.941   7.084   9.120
   38DA     H4' 1182   5.969   7.052   9.222
   38DA     O4' 1183   6.006   6.985   9.038
   38DA     C1' 1184   6.055   7.057   8.915
   38DA     H1' 1185   6.161   7.056   8.925
   38DA      N9 1186   6.012   6.990   8.790
   38DA      C8 1187   5.930   7.046   8.691
   38DA      H8 1188   5.892   7.149   8.692
   38DA      N7 1189   5.899   6.965   8.591
   38DA      C5 1190   5.978   6.852   8.621
   38DA      C6 1191   6.004   6.730   8.553
   38DA      N6 1192   5.951   6.703   8.436
   38DA     H61 1193   5.984   6.624   8.380
   38DA     H62 1194   5.884   6.768   8.399
   38DA      N1 1195   6.091   6.643   8.602
   38DA      C2 1196   6.150   6.669   8.718
   38DA      H2 1197   6.213   6.595   8.765
   38DA      N3 1198   6.136   6.772   8.793
   38DA      C4 1199   6.044   6.863   8.739
   38DA     C3' 1200   5.997   7.222   9.092
   38DA     H3' 1201   5.916   7.299   9.121
   38DA     C2' 1202   6.019   7.212   8.939
   38DA    H2'1 1203   5.924   7.232   8.891
   38DA    H2'2 1204   6.095   7.279   8.901
   38DA     O3' 1205   6.118   7.246   9.171
   39DT       P 1206   6.264   7.296   9.117
   39DT     O1P 1207   6.348   7.324   9.235
   39DT     O2P 1208   6.256   7.408   9.021
   39DT     O5' 1209   6.329   7.178   9.040
   39DT     C5' 1210   6.366   7.061   9.109
   39DT    H5'1 1211   6.276   7.000   9.108
   39DT    H5'2 1212   6.395   7.094   9.208
   39DT     C4' 1213   6.487   6.979   9.056
   39DT     H4' 1214   6.531   6.903   9.127
   39DT     O4' 1215   6.444   6.915   8.941
   39DT     C1' 1216   6.517   6.961   8.831
   39DT     H1' 1217   6.595   6.893   8.805
   39DT      N1 1218   6.425   6.966   8.717
   39DT      C6 1219   6.342   7.074   8.688
   39DT      H6 1220   6.333   7.161   8.753
   39DT      C5 1221   6.266   7.075   8.581
   39DT      C7 1222   6.203   7.212   8.550
   39DT     H71 1223   6.210   7.277   8.635
   39DT     H72 1224   6.254   7.274   8.478
   39DT     H73 1225   6.099   7.211   8.513
   39DT      C4 1226   6.266   6.969   8.487
   39DT      O4 1227   6.180   6.952   8.404
   39DT      N3 1228   6.350   6.864   8.519
   39DT      H3 1229   6.355   6.789   8.452
   39DT      C2 1230   6.434   6.862   8.623
   39DT      O2 1231   6.511   6.768   8.638
   39DT     C3' 1232   6.597   7.084   9.013
   39DT     H3' 1233   6.574   7.180   9.057
   39DT     C2' 1234   6.579   7.093   8.866
   39DT    H2'1 1235   6.516   7.187   8.842
   39DT    H2'2 1236   6.668   7.100   8.808
   39DT     O3' 1237   6.724   7.032   9.047
   40DG       P 1238   6.861   7.132   9.039
   40DG     O1P 1239   6.945   7.086   9.149
   40DG     O2P 1240   6.811   7.272   9.037
   40DG     O5' 1241   6.921   7.091   8.899
   40DG     C5' 1242   6.958   6.957   8.867
   40DG    H5'1 1243   6.876   6.894   8.901
   40DG    H5'2 1244   7.044   6.931   8.920
   40DG     C4' 1245   6.985   6.939   8.717
   40DG     H4' 1246   7.032   6.842   8.694
   40DG     O4' 1247   6.863   6.956   8.639
   40DG     C1' 1248   6.894   7.035   8.527
   40DG     H1' 1249   6.941   6.977   8.444
   40DG      N9 1250   6.775   7.102   8.476
   40DG      C8 1251   6.709   7.211   8.529
   40DG      H8 1252   6.741   7.261   8.618
   40DG      N7 1253   6.603   7.241   8.461
   40DG      C5 1254   6.596   7.148   8.360
   40DG      C6 1255   6.495   7.119   8.265
   40DG      O6 1256   6.392   7.179   8.243
   40DG      N1 1257   6.523   7.008   8.192
   40DG      H1 1258   6.465   6.984   8.116
   40DG      C2 1259   6.631   6.932   8.203
   40DG      N2 1260   6.655   6.844   8.107
   40DG     H21 1261   6.589   6.835   8.024
   40DG     H22 1262   6.727   6.773   8.120
   40DG      N3 1263   6.724   6.940   8.299
   40DG      C4 1264   6.700   7.053   8.375
   40DG     C3' 1265   7.090   7.041   8.667
   40DG     H3' 1266   7.143   7.092   8.751
   40DG     C2' 1267   6.999   7.136   8.585
   40DG    H2'1 1268   6.948   7.207   8.648
   40DG    H2'2 1269   7.048   7.179   8.494
   40DG     O3' 1270   7.176   6.973   8.586
   41DC       P 1271   7.320   7.020   8.553
   41DC     O1P 1272   7.414   6.952   8.643
   41DC     O2P 1273   7.320   7.167   8.552
   41DC     O5' 1274   7.338   6.972   8.402
   41DC     C5' 1275   7.323   6.833   8.366
   41DC    H5'1 1276   7.269   6.785   8.444
   41DC    H5'2 1277   7.424   6.781   8.362
   41DC     C4' 1278   7.257   6.819   8.227
   41DC     H4' 1279   7.252   6.718   8.191
   41DC     O4' 1280   7.129   6.877   8.225
   41DC     C1' 1281   7.125   6.959   8.113
   41DC     H1' 1282   7.112   6.898   8.025
   41DC      N1 1283   7.013   7.055   8.125
   41DC      C6 1284   7.004   7.150   8.220
   41DC      H6 1285   7.085   7.158   8.289
   41DC      C5 1286   6.911   7.252   8.211
   41DC      H5 1287   6.907   7.336   8.279
   41DC      C4 1288   6.812   7.232   8.113
   41DC      N4 1289   6.714   7.318   8.110
   41DC     H41 1290   6.642   7.304   8.041
   41DC     H42 1291   6.729   7.407   8.160
   41DC      N3 1292   6.813   7.136   8.026
   41DC      C2 1293   6.921   7.055   8.019
   41DC      O2 1294   6.934   6.970   7.926
   41DC     C3' 1295   7.341   6.892   8.127
   41DC     H3' 1296   7.445   6.907   8.166
   41DC     C2' 1297   7.265   7.019   8.102
   41DC    H2'1 1298   7.283   7.088   8.181
   41DC    H2'2 1299   7.286   7.065   8.002
   41DC     O3' 1300   7.353   6.811   8.007
   42DG       P 1301   7.459   6.840   7.889
   42DG     O1P 1302   7.532   6.716   7.864
   42DG     O2P 1303   7.535   6.970   7.902
   42DG     O5' 1304   7.364   6.861   7.767
   42DG     C5' 1305   7.315   6.747   7.687
   42DG    H5'1 1306   7.241   6.691   7.745
   42DG    H5'2 1307   7.409   6.692   7.667
   42DG     C4' 1308   7.253   6.796   7.558
   42DG     H4' 1309   7.229   6.700   7.493
   42DG     O4' 1310   7.132   6.867   7.570
   42DG     C1' 1311   7.156   6.994   7.520
   42DG     H1' 1312   7.107   7.003   7.423
   42DG      N9 1313   7.106   7.096   7.616
   42DG      C8 1314   7.153   7.123   7.739
   42DG      H8 1315   7.237   7.074   7.782
   42DG      N7 1316   7.091   7.220   7.804
   42DG      C5 1317   6.995   7.252   7.713
   42DG      C6 1318   6.883   7.343   7.733
   42DG      O6 1319   6.858   7.420   7.826
   42DG      N1 1320   6.800   7.348   7.623
   42DG      H1 1321   6.727   7.407   7.633
   42DG      C2 1322   6.817   7.270   7.511
   42DG      N2 1323   6.722   7.276   7.420
   42DG     H21 1324   6.641   7.343   7.425
   42DG     H22 1325   6.732   7.222   7.333
   42DG      N3 1326   6.915   7.186   7.491
   42DG      C4 1327   7.007   7.186   7.597
   42DG     C3' 1328   7.357   6.871   7.482
   42DG     H3' 1329   7.458   6.864   7.523
   42DG     C2' 1330   7.303   7.013   7.507
   42DG    H2'1 1331   7.350   7.047   7.597
   42DG    H2'2 1332   7.317   7.064   7.414
   42DG     O3' 1333   7.346   6.831   7.346
   43DT       P 1334   7.442   6.889   7.222
   43DT     O1P 1335   7.467   6.779   7.127
   43DT     O2P 1336   7.559   6.953   7.283
   43DT     O5' 1337   7.352   7.010   7.164
   43DT     C5' 1338   7.236   6.978   7.084
   43DT    H5'1 1339   7.175   6.902   7.129
   43DT    H5'2 1340   7.277   6.939   6.993
   43DT     C4' 1341   7.149   7.093   7.050
   43DT     H4' 1342   7.072   7.061   6.981
   43DT     O4' 1343   7.104   7.154   7.176
   43DT     C1' 1344   7.076   7.290   7.156
   43DT     H1' 1345   6.980   7.289   7.119
   43DT      N1 1346   7.079   7.382   7.274
   43DT      C6 1347   7.172   7.364   7.371
   43DT      H6 1348   7.243   7.287   7.368
   43DT      C5 1349   7.176   7.448   7.476
   43DT      C7 1350   7.290   7.425   7.577
   43DT     H71 1351   7.347   7.513   7.566
   43DT     H72 1352   7.253   7.415   7.680
   43DT     H73 1353   7.348   7.338   7.558
   43DT      C4 1354   7.078   7.559   7.496
   43DT      O4 1355   7.082   7.646   7.581
   43DT      N3 1356   6.979   7.565   7.393
   43DT      H3 1357   6.916   7.639   7.405
   43DT      C2 1358   6.987   7.487   7.283
   43DT      O2 1359   6.907   7.508   7.194
   43DT     C3' 1360   7.220   7.208   6.978
   43DT     H3' 1361   7.325   7.187   6.998
   43DT     C2' 1362   7.177   7.334   7.047
   43DT    H2'1 1363   7.257   7.385   7.096
   43DT    H2'2 1364   7.140   7.400   6.969
   43DT     O3' 1365   7.181   7.182   6.841
   44DA       P 1366   7.228   7.270   6.718
   44DA     O1P 1367   7.216   7.191   6.592
   44DA     O2P 1368   7.358   7.337   6.747
   44DA     O5' 1369   7.121   7.387   6.702
   44DA     C5' 1370   6.986   7.360   6.704
   44DA    H5'1 1371   6.956   7.297   6.621
   44DA    H5'2 1372   6.967   7.296   6.794
   44DA     C4' 1373   6.892   7.479   6.697
   44DA     H4' 1374   6.791   7.433   6.679
   44DA     O4' 1375   6.896   7.540   6.829
   44DA     C1' 1376   6.931   7.676   6.820
   44DA     H1' 1377   6.848   7.746   6.854
   44DA      N9 1378   7.052   7.696   6.913
   44DA      C8 1379   7.183   7.655   6.908
   44DA      H8 1380   7.216   7.591   6.831
   44DA      N7 1381   7.243   7.676   7.021
   44DA      C5 1382   7.159   7.754   7.095
   44DA      C6 1383   7.160   7.807   7.223
   44DA      N6 1384   7.255   7.787   7.310
   44DA     H61 1385   7.274   7.847   7.393
   44DA     H62 1386   7.331   7.725   7.276
   44DA      N1 1387   7.064   7.886   7.264
   44DA      C2 1388   6.960   7.913   7.183
   44DA      H2 1389   6.894   7.993   7.219
   44DA      N3 1390   6.929   7.851   7.071
   44DA      C4 1391   7.038   7.771   7.029
   44DA     C3' 1392   6.923   7.585   6.589
   44DA     H3' 1393   7.004   7.537   6.527
   44DA     C2' 1394   6.971   7.697   6.675
   44DA    H2'1 1395   7.085   7.704   6.658
   44DA    H2'2 1396   6.933   7.798   6.654
   44DA     O3' 1397   6.802   7.619   6.522
   45DC       P 1398   6.804   7.717   6.392
   45DC     O1P 1399   6.673   7.697   6.320
   45DC     O2P 1400   6.928   7.680   6.322
   45DC     O5' 1401   6.807   7.878   6.452
   45DC     C5' 1402   6.691   7.928   6.511
   45DC    H5'1 1403   6.642   7.844   6.568
   45DC    H5'2 1404   6.617   7.948   6.442
   45DC     C4' 1405   6.711   8.047   6.601
   45DC     H4' 1406   6.613   8.079   6.636
   45DC     O4' 1407   6.797   8.016   6.709
   45DC     C1' 1408   6.892   8.112   6.733
   45DC     H1' 1409   6.851   8.188   6.794
   45DC      N1 1410   7.023   8.060   6.786
   45DC      C6 1411   7.117   7.994   6.702
   45DC      H6 1412   7.091   7.957   6.605
   45DC      C5 1413   7.238   7.970   6.751
   45DC      H5 1414   7.312   7.921   6.685
   45DC      C4 1415   7.269   8.014   6.884
   45DC      N4 1416   7.393   8.002   6.930
   45DC     H41 1417   7.398   8.027   7.032
   45DC     H42 1418   7.447   7.927   6.897
   45DC      N3 1419   7.182   8.080   6.958
   45DC      C2 1420   7.060   8.103   6.916
   45DC      O2 1421   6.977   8.167   6.988
   45DC     C3' 1422   6.779   8.169   6.532
   45DC     H3' 1423   6.777   8.163   6.424
   45DC     C2' 1424   6.922   8.168   6.594
   45DC    H2'1 1425   6.985   8.105   6.530
   45DC    H2'2 1426   6.963   8.263   6.598
   45DC     O3' 1427   6.713   8.287   6.576
   46DA       P 1428   6.729   8.434   6.524
   46DA     O1P 1429   6.592   8.490   6.487
   46DA     O2P 1430   6.844   8.443   6.423
   46DA     O5' 1431   6.783   8.510   6.661
   46DA     C5' 1432   6.696   8.545   6.767
   46DA    H5'1 1433   6.601   8.584   6.723
   46DA    H5'2 1434   6.674   8.459   6.824
   46DA     C4' 1435   6.748   8.658   6.858
   46DA     H4' 1436   6.664   8.669   6.938
   46DA     O4' 1437   6.856   8.618   6.931
   46DA     C1' 1438   6.973   8.675   6.879
   46DA     H1' 1439   7.012   8.745   6.954
   46DA      N9 1440   7.067   8.569   6.846
   46DA      C8 1441   7.077   8.484   6.741
   46DA      H8 1442   7.009   8.487   6.658
   46DA      N7 1443   7.174   8.395   6.746
   46DA      C5 1444   7.239   8.430   6.861
   46DA      C6 1445   7.363   8.388   6.917
   46DA      N6 1446   7.441   8.287   6.869
   46DA     H61 1447   7.498   8.244   6.939
   46DA     H62 1448   7.418   8.239   6.782
   46DA      N1 1449   7.397   8.433   7.041
   46DA      C2 1450   7.325   8.538   7.090
   46DA      H2 1451   7.368   8.568   7.187
   46DA      N3 1452   7.222   8.601   7.035
   46DA      C4 1453   7.177   8.537   6.926
   46DA     C3' 1454   6.777   8.781   6.781
   46DA     H3' 1455   6.738   8.788   6.675
   46DA     C2' 1456   6.933   8.761   6.756
   46DA    H2'1 1457   6.962   8.714   6.660
   46DA    H2'2 1458   6.988   8.851   6.773
   46DA     O3' 1459   6.735   8.896   6.850
   47DA       P 1460   6.801   9.036   6.835
   47DA     O1P 1461   6.712   9.135   6.901
   47DA     O2P 1462   6.828   9.036   6.693
   47DA     O5' 1463   6.939   9.036   6.905
   47DA     C5' 1464   6.948   9.044   7.046
   47DA    H5'1 1465   6.905   8.960   7.099
   47DA    H5'2 1466   6.891   9.132   7.077
   47DA     C4' 1467   7.093   9.051   7.101
   47DA     H4' 1468   7.086   9.066   7.211
   47DA     O4' 1469   7.157   8.930   7.061
   47DA     C1' 1470   7.294   8.967   7.028
   47DA     H1' 1471   7.348   8.947   7.115
   47DA      N9 1472   7.365   8.880   6.928
   47DA      C8 1473   7.328   8.846   6.801
   47DA      H8 1474   7.238   8.886   6.756
   47DA      N7 1475   7.408   8.764   6.741
   47DA      C5 1476   7.504   8.741   6.842
   47DA      C6 1477   7.612   8.654   6.848
   47DA      N6 1478   7.648   8.579   6.751
   47DA     H61 1479   7.728   8.519   6.766
   47DA     H62 1480   7.584   8.558   6.668
   47DA      N1 1481   7.689   8.658   6.955
   47DA      C2 1482   7.671   8.750   7.051
   47DA      H2 1483   7.740   8.754   7.137
   47DA      N3 1484   7.565   8.839   7.058
   47DA      C4 1485   7.484   8.820   6.949
   47DA     C3' 1486   7.178   9.174   7.055
   47DA     H3' 1487   7.118   9.230   6.982
   47DA     C2' 1488   7.298   9.117   6.987
   47DA    H2'1 1489   7.294   9.130   6.884
   47DA    H2'2 1490   7.402   9.160   7.008
   47DA     O3' 1491   7.200   9.250   7.175
   48DT       P 1492   7.295   9.377   7.179
   48DT     O1P 1493   7.281   9.438   7.316
   48DT     O2P 1494   7.262   9.460   7.066
   48DT     O5' 1495   7.446   9.324   7.161
   48DT     C5' 1496   7.514   9.264   7.271
   48DT    H5'1 1497   7.470   9.164   7.282
   48DT    H5'2 1498   7.502   9.330   7.359
   48DT     C4' 1499   7.662   9.257   7.238
   48DT     H4' 1500   7.702   9.240   7.336
   48DT     O4' 1501   7.688   9.146   7.151
   48DT     C1' 1502   7.783   9.185   7.057
   48DT     H1' 1503   7.884   9.180   7.104
   48DT      N1 1504   7.768   9.104   6.936
   48DT      C6 1505   7.672   9.133   6.837
   48DT      H6 1506   7.597   9.206   6.855
   48DT      C5 1507   7.668   9.056   6.723
   48DT      C7 1508   7.560   9.076   6.618
   48DT     H71 1509   7.593   9.129   6.525
   48DT     H72 1510   7.521   8.988   6.574
   48DT     H73 1511   7.483   9.134   6.666
   48DT      C4 1512   7.771   8.950   6.698
   48DT      O4 1513   7.775   8.878   6.598
   48DT      N3 1514   7.857   8.933   6.800
   48DT      H3 1515   7.921   8.861   6.793
   48DT      C2 1516   7.870   9.012   6.910
   48DT      O2 1517   7.960   8.982   6.990
   48DT     C3' 1518   7.734   9.376   7.180
   48DT     H3' 1519   7.671   9.463   7.182
   48DT     C2' 1520   7.764   9.334   7.039
   48DT    H2'1 1521   7.676   9.352   6.981
   48DT    H2'2 1522   7.843   9.385   6.988
   48DT     O3' 1523   7.851   9.394   7.257
   49DG       P 1524   7.960   9.511   7.233
   49DG     O1P 1525   8.052   9.527   7.343
   49DG     O2P 1526   7.886   9.632   7.192
   49DG     O5' 1527   8.049   9.471   7.113
   49DG     C5' 1528   8.137   9.352   7.116
   49DG    H5'1 1529   8.075   9.272   7.158
   49DG    H5'2 1530   8.222   9.363   7.183
   49DG     C4' 1531   8.187   9.303   6.982
   49DG     H4' 1532   8.262   9.219   7.002
   49DG     O4' 1533   8.085   9.251   6.900
   49DG     C1' 1534   8.154   9.222   6.782
   49DG     H1' 1535   8.228   9.140   6.786
   49DG      N9 1536   8.063   9.184   6.661
   49DG      C8 1537   7.954   9.255   6.615
   49DG      H8 1538   7.928   9.351   6.657
   49DG      N7 1539   7.893   9.196   6.518
   49DG      C5 1540   7.965   9.079   6.495
   49DG      C6 1541   7.955   8.976   6.396
   49DG      O6 1542   7.875   8.944   6.311
   49DG      N1 1543   8.063   8.888   6.407
   49DG      H1 1544   8.077   8.820   6.334
   49DG      C2 1545   8.173   8.913   6.482
   49DG      N2 1546   8.280   8.835   6.470
   49DG     H21 1547   8.267   8.759   6.407
   49DG     H22 1548   8.346   8.826   6.544
   49DG      N3 1549   8.183   8.999   6.578
   49DG      C4 1550   8.076   9.084   6.574
   49DG     C3' 1551   8.271   9.399   6.896
   49DG     H3' 1552   8.225   9.496   6.892
   49DG     C2' 1553   8.238   9.349   6.757
   49DG    H2'1 1554   8.169   9.422   6.711
   49DG    H2'2 1555   8.322   9.330   6.691
   49DG     O3' 1556   8.411   9.391   6.931
   50DT       P 1557   8.532   9.456   6.843
   50DT     O1P 1558   8.649   9.473   6.933
   50DT     O2P 1559   8.476   9.574   6.771
   50DT     O5' 1560   8.565   9.349   6.731
   50DT     C5' 1561   8.628   9.231   6.765
   50DT    H5'1 1562   8.564   9.161   6.821
   50DT    H5'2 1563   8.705   9.255   6.835
   50DT     C4' 1564   8.692   9.156   6.648
   50DT     H4' 1565   8.747   9.075   6.692
   50DT     O4' 1566   8.583   9.098   6.573
   50DT     C1' 1567   8.611   9.133   6.440
   50DT     H1' 1568   8.670   9.052   6.396
   50DT      N1 1569   8.487   9.153   6.361
   50DT      C6 1570   8.404   9.261   6.390
   50DT      H6 1571   8.431   9.324   6.473
   50DT      C5 1572   8.273   9.257   6.348
   50DT      C7 1573   8.179   9.373   6.391
   50DT     H71 1574   8.185   9.454   6.313
   50DT     H72 1575   8.074   9.346   6.394
   50DT     H73 1576   8.221   9.424   6.478
   50DT      C4 1577   8.230   9.145   6.257
   50DT      O4 1578   8.112   9.129   6.224
   50DT      N3 1579   8.327   9.059   6.221
   50DT      H3 1580   8.293   8.976   6.178
   50DT      C2 1581   8.452   9.060   6.267
   50DT      O2 1582   8.527   8.976   6.222
   50DT     C3' 1583   8.792   9.237   6.559
   50DT     H3' 1584   8.827   9.338   6.613
   50DT     C2' 1585   8.706   9.256   6.437
   50DT    H2'1 1586   8.651   9.352   6.445
   50DT    H2'2 1587   8.767   9.256   6.351
   50DT     O3' 1588   8.900   9.148   6.523
   51DA       P 1589   9.037   9.188   6.450
   51DA     O1P 1590   9.144   9.103   6.503
   51DA     O2P 1591   9.048   9.335   6.469
   51DA     O5' 1592   9.022   9.157   6.294
   51DA     C5' 1593   8.976   9.030   6.240
   51DA    H5'1 1594   8.910   8.978   6.309
   51DA    H5'2 1595   9.050   8.959   6.229
   51DA     C4' 1596   8.909   9.045   6.102
   51DA     H4' 1597   8.899   8.943   6.071
   51DA     O4' 1598   8.781   9.097   6.125
   51DA     C1' 1599   8.742   9.141   6.000
   51DA     H1' 1600   8.699   9.058   5.943
   51DA      N9 1601   8.631   9.235   6.015
   51DA      C8 1602   8.632   9.369   6.063
   51DA      H8 1603   8.725   9.418   6.101
   51DA      N7 1604   8.517   9.428   6.057
   51DA      C5 1605   8.430   9.335   5.995
   51DA      C6 1606   8.297   9.326   5.954
   51DA      N6 1607   8.203   9.415   5.971
   51DA     H61 1608   8.116   9.405   5.921
   51DA     H62 1609   8.221   9.499   6.022
   51DA      N1 1610   8.251   9.225   5.887
   51DA      C2 1611   8.333   9.121   5.875
   51DA      H2 1612   8.299   9.033   5.818
   51DA      N3 1613   8.461   9.107   5.906
   51DA      C4 1614   8.501   9.220   5.968
   51DA     C3' 1615   8.987   9.120   5.996
   51DA     H3' 1616   9.056   9.194   6.036
   51DA     C2' 1617   8.866   9.196   5.928
   51DA    H2'1 1618   8.873   9.304   5.946
   51DA    H2'2 1619   8.854   9.177   5.823
   51DA     O3' 1620   9.056   9.029   5.915
   52DT       P 1621   9.106   9.069   5.770
   52DT     O1P 1622   9.207   8.966   5.747
   52DT     O2P 1623   9.142   9.211   5.760
   52DT     O5' 1624   8.988   9.039   5.663
   52DT     C5' 1625   8.935   8.908   5.660
   52DT    H5'1 1626   8.888   8.884   5.758
   52DT    H5'2 1627   9.012   8.835   5.648
   52DT     C4' 1628   8.831   8.897   5.545
   52DT     H4' 1629   8.813   8.791   5.531
   52DT     O4' 1630   8.710   8.955   5.591
   52DT     C1' 1631   8.652   9.035   5.486
   52DT     H1' 1632   8.569   8.983   5.434
   52DT      N1 1633   8.599   9.154   5.556
   52DT      C6 1634   8.680   9.245   5.615
   52DT      H6 1635   8.780   9.217   5.616
   52DT      C5 1636   8.640   9.368   5.659
   52DT      C7 1637   8.737   9.469   5.719
   52DT     H71 1638   8.743   9.554   5.664
   52DT     H72 1639   8.701   9.503   5.810
   52DT     H73 1640   8.838   9.423   5.730
   52DT      C4 1641   8.499   9.399   5.654
   52DT      O4 1642   8.443   9.506   5.689
   52DT      N3 1643   8.421   9.296   5.617
   52DT      H3 1644   8.324   9.305   5.641
   52DT      C2 1645   8.464   9.176   5.568
   52DT      O2 1646   8.379   9.093   5.540
   52DT     C3' 1647   8.861   8.957   5.408
   52DT     H3' 1648   8.954   9.000   5.409
   52DT     C2' 1649   8.759   9.070   5.388
   52DT    H2'1 1650   8.811   9.163   5.409
   52DT    H2'2 1651   8.718   9.078   5.289
   52DT     O3' 1652   8.836   8.858   5.312
   53DA       P 1653   8.880   8.874   5.166
   53DA     O1P 1654   8.904   8.742   5.103
   53DA     O2P 1655   8.996   8.968   5.155
   53DA     O5' 1656   8.750   8.936   5.093
   53DA     C5' 1657   8.638   8.855   5.086
   53DA    H5'1 1658   8.613   8.821   5.191
   53DA    H5'2 1659   8.662   8.767   5.023
   53DA     C4' 1660   8.515   8.919   5.029
   53DA     H4' 1661   8.446   8.842   4.995
   53DA     O4' 1662   8.466   9.017   5.125
   53DA     C1' 1663   8.449   9.140   5.059
   53DA     H1' 1664   8.350   9.135   5.020
   53DA      N9 1665   8.451   9.250   5.156
   53DA      C8 1666   8.558   9.322   5.202
   53DA      H8 1667   8.653   9.284   5.175
   53DA      N7 1668   8.531   9.419   5.286
   53DA      C5 1669   8.388   9.423   5.277
   53DA      C6 1670   8.288   9.511   5.327
   53DA      N6 1671   8.313   9.619   5.401
   53DA     H61 1672   8.238   9.694   5.413
   53DA     H62 1673   8.403   9.635   5.442
   53DA      N1 1674   8.162   9.504   5.276
   53DA      C2 1675   8.135   9.409   5.186
   53DA      H2 1676   8.034   9.408   5.146
   53DA      N3 1677   8.213   9.315   5.141
   53DA      C4 1678   8.343   9.330   5.185
   53DA     C3' 1679   8.549   8.996   4.902
   53DA     H3' 1680   8.641   8.956   4.858
   53DA     C2' 1681   8.558   9.148   4.957
   53DA    H2'1 1682   8.660   9.169   4.994
   53DA    H2'2 1683   8.532   9.216   4.880
   53DA     O3' 1684   8.436   8.972   4.814
   54DA       P 1685   8.394   9.061   4.694
   54DA     O1P 1686   8.321   8.972   4.604
   54DA     O2P 1687   8.519   9.120   4.637
   54DA     O5' 1688   8.292   9.166   4.755
   54DA     C5' 1689   8.162   9.134   4.799
   54DA    H5'1 1690   8.145   9.159   4.902
   54DA    H5'2 1691   8.140   9.026   4.787
   54DA     C4' 1692   8.053   9.216   4.723
   54DA     H4' 1693   7.970   9.148   4.713
   54DA     O4' 1694   8.010   9.328   4.803
   54DA     C1' 1695   8.063   9.448   4.750
   54DA     H1' 1696   7.985   9.521   4.729
   54DA      N9 1697   8.163   9.504   4.844
   54DA      C8 1698   8.299   9.479   4.868
   54DA      H8 1699   8.350   9.393   4.828
   54DA      N7 1700   8.359   9.573   4.936
   54DA      C5 1701   8.248   9.654   4.980
   54DA      C6 1702   8.236   9.771   5.061
   54DA      N6 1703   8.329   9.835   5.131
   54DA     H61 1704   8.304   9.914   5.183
   54DA     H62 1705   8.417   9.787   5.137
   54DA      N1 1706   8.120   9.831   5.074
   54DA      C2 1707   8.017   9.779   5.011
   54DA      H2 1708   7.920   9.835   5.016
   54DA      N3 1709   8.009   9.673   4.934
   54DA      C4 1710   8.129   9.614   4.920
   54DA     C3' 1711   8.077   9.264   4.582
   54DA     H3' 1712   8.150   9.191   4.539
   54DA     C2' 1713   8.131   9.408   4.615
   54DA    H2'1 1714   8.241   9.388   4.637
   54DA    H2'2 1715   8.114   9.477   4.541
   54DA     O3' 1716   7.965   9.257   4.495
   55DT       P 1717   7.935   9.351   4.366
   55DT     O1P 1718   7.814   9.295   4.303
   55DT     O2P 1719   8.055   9.356   4.278
   55DT     O5' 1720   7.893   9.502   4.401
   55DT     C5' 1721   7.788   9.525   4.490
   55DT    H5'1 1722   7.814   9.472   4.580
   55DT    H5'2 1723   7.699   9.479   4.450
   55DT     C4' 1724   7.757   9.670   4.525
   55DT     H4' 1725   7.656   9.666   4.575
   55DT     O4' 1726   7.851   9.721   4.618
   55DT     C1' 1727   7.876   9.857   4.585
   55DT     H1' 1728   7.788   9.918   4.621
   55DT      N1 1729   8.006   9.881   4.651
   55DT      C6 1730   8.122   9.817   4.615
   55DT      H6 1731   8.116   9.734   4.553
   55DT      C5 1732   8.247   9.842   4.671
   55DT      C7 1733   8.372   9.763   4.633
   55DT     H71 1734   8.339   9.665   4.589
   55DT     H72 1735   8.448   9.817   4.577
   55DT     H73 1736   8.427   9.732   4.725
   55DT      C4 1737   8.262   9.961   4.755
   55DT      O4 1738   8.371  10.003   4.786
   55DT      N3 1739   8.147  10.037   4.771
   55DT      H3 1740   8.156  10.127   4.817
   55DT      C2 1741   8.019   9.997   4.723
   55DT      O2 1742   7.926  10.070   4.743
   55DT     C3' 1743   7.755   9.765   4.402
   55DT     H3' 1744   7.778   9.699   4.319
   55DT     C2' 1745   7.877   9.845   4.430
   55DT    H2'1 1746   7.964   9.791   4.389
   55DT    H2'2 1747   7.868   9.943   4.378
   55DT     O3' 1748   7.642   9.851   4.399
   56DA       P 1749   7.599   9.937   4.269
   56DA     O1P 1750   7.451   9.922   4.271
   56DA     O2P 1751   7.683   9.900   4.150
   56DA     O5' 1752   7.639  10.075   4.326
   56DA     C5' 1753   7.557  10.131   4.426
   56DA    H5'1 1754   7.565  10.079   4.522
   56DA    H5'2 1755   7.451  10.143   4.395
   56DA     C4' 1756   7.597  10.275   4.456
   56DA     H4' 1757   7.519  10.314   4.530
   56DA     O4' 1758   7.726  10.295   4.520
   56DA     C1' 1759   7.811  10.373   4.436
   56DA     H1' 1760   7.819  10.476   4.466
   56DA      N9 1761   7.943  10.305   4.446
   56DA      C8 1762   7.998  10.194   4.389
   56DA      H8 1763   7.941  10.136   4.314
   56DA      N7 1764   8.119  10.166   4.424
   56DA      C5 1765   8.143  10.273   4.511
   56DA      C6 1766   8.256  10.307   4.588
   56DA      N6 1767   8.371  10.242   4.604
   56DA     H61 1768   8.433  10.275   4.668
   56DA     H62 1769   8.373  10.149   4.560
   56DA      N1 1770   8.250  10.420   4.657
   56DA      C2 1771   8.142  10.500   4.657
   56DA      H2 1772   8.143  10.595   4.717
   56DA      N3 1773   8.031  10.474   4.591
   56DA      C4 1774   8.042  10.360   4.515
   56DA     C3' 1775   7.609  10.362   4.326
   56DA     H3' 1776   7.553  10.324   4.244
   56DA     C2' 1777   7.759  10.382   4.290
   56DA    H2'1 1778   7.796  10.297   4.216
   56DA    H2'2 1779   7.781  10.479   4.250
   56DA     O3' 1780   7.562  10.488   4.366
   57DC       P 1781   7.487  10.589   4.261
   57DC     O1P 1782   7.375  10.648   4.337
   57DC     O2P 1783   7.456  10.525   4.131
   57DC     O5' 1784   7.598  10.696   4.235
   57DC     C5' 1785   7.639  10.792   4.332
   57DC    H5'1 1786   7.627  10.749   4.434
   57DC    H5'2 1787   7.575  10.878   4.325
   57DC     C4' 1788   7.790  10.840   4.326
   57DC     H4' 1789   7.800  10.925   4.392
   57DC     O4' 1790   7.886  10.738   4.356
   57DC     C1' 1791   7.995  10.752   4.269
   57DC     H1' 1792   8.044  10.847   4.305
   57DC      N1 1793   8.088  10.639   4.266
   57DC      C6 1794   8.073  10.522   4.202
   57DC      H6 1795   7.985  10.513   4.144
   57DC      C5 1796   8.168  10.424   4.215
   57DC      H5 1797   8.157  10.324   4.172
   57DC      C4 1798   8.285  10.450   4.293
   57DC      N4 1799   8.371  10.352   4.303
   57DC     H41 1800   8.447  10.368   4.362
   57DC     H42 1801   8.358  10.270   4.241
   57DC      N3 1802   8.300  10.553   4.366
   57DC      C2 1803   8.204  10.656   4.351
   57DC      O2 1804   8.220  10.752   4.427
   57DC     C3' 1805   7.827  10.881   4.185
   57DC     H3' 1806   7.741  10.881   4.118
   57DC     C2' 1807   7.920  10.775   4.138
   57DC    H2'1 1808   7.868  10.683   4.103
   57DC    H2'2 1809   7.999  10.806   4.069
   57DC     O3' 1810   7.896  11.005   4.186
   58DG       P 1811   7.869  11.126   4.089
   58DG     O1P 1812   7.742  11.182   4.125
   58DG     O2P 1813   7.895  11.078   3.953
   58DG     O5' 1814   7.984  11.222   4.131
   58DG     C5' 1815   7.991  11.289   4.255
   58DG    H5'1 1816   7.960  11.215   4.328
   58DG    H5'2 1817   7.923  11.372   4.262
   58DG     C4' 1818   8.135  11.324   4.303
   58DG     H4' 1819   8.129  11.383   4.392
   58DG     O4' 1820   8.208  11.196   4.329
   58DG     C1' 1821   8.313  11.173   4.240
   58DG     H1' 1822   8.412  11.191   4.286
   58DG      N9 1823   8.319  11.033   4.185
   58DG      C8 1824   8.226  10.963   4.116
   58DG      H8 1825   8.130  11.001   4.089
   58DG      N7 1826   8.261  10.845   4.073
   58DG      C5 1827   8.388  10.828   4.128
   58DG      C6 1828   8.489  10.720   4.119
   58DG      O6 1829   8.487  10.609   4.066
   58DG      N1 1830   8.590  10.740   4.208
   58DG      H1 1831   8.661  10.670   4.205
   58DG      C2 1832   8.614  10.857   4.272
   58DG      N2 1833   8.709  10.847   4.365
   58DG     H21 1834   8.789  10.785   4.349
   58DG     H22 1835   8.721  10.923   4.429
   58DG      N3 1836   8.524  10.956   4.287
   58DG      C4 1837   8.416  10.937   4.208
   58DG     C3' 1838   8.215  11.392   4.189
   58DG     H3' 1839   8.154  11.435   4.111
   58DG     C2' 1840   8.300  11.280   4.134
   58DG    H2'1 1841   8.271  11.233   4.039
   58DG    H2'2 1842   8.399  11.314   4.116
   58DG     O3' 1843   8.289  11.492   4.255
   59DC       P 1844   8.377  11.604   4.186
   59DC     O1P 1845   8.401  11.707   4.289
   59DC     O2P 1846   8.316  11.656   4.058
   59DC     O5' 1847   8.517  11.541   4.150
   59DC     C5' 1848   8.614  11.495   4.250
   59DC    H5'1 1849   8.560  11.453   4.332
   59DC    H5'2 1850   8.661  11.584   4.304
   59DC     C4' 1851   8.728  11.410   4.204
   59DC     H4' 1852   8.779  11.398   4.293
   59DC     O4' 1853   8.680  11.288   4.162
   59DC     C1' 1854   8.736  11.257   4.037
   59DC     H1' 1855   8.842  11.207   4.039
   59DC      N1 1856   8.654  11.156   3.977
   59DC      C6 1857   8.559  11.190   3.888
   59DC      H6 1858   8.547  11.298   3.866
   59DC      C5 1859   8.498  11.092   3.818
   59DC      H5 1860   8.429  11.123   3.741
   59DC      C4 1861   8.545  10.960   3.834
   59DC      N4 1862   8.490  10.863   3.771
   59DC     H41 1863   8.534  10.773   3.780
   59DC     H42 1864   8.409  10.888   3.724
   59DC      N3 1865   8.635  10.927   3.923
   59DC      C2 1866   8.695  11.025   3.994
   59DC      O2 1867   8.785  10.988   4.070
   59DC     C3' 1868   8.812  11.467   4.091
   59DC     H3' 1869   8.799  11.578   4.085
   59DC     C2' 1870   8.762  11.394   3.970
   59DC    H2'1 1871   8.674  11.453   3.938
   59DC    H2'2 1872   8.833  11.392   3.886
   59DC     O3' 1873   8.946  11.428   4.112
   60DA       P 1874   9.070  11.523   4.166
   60DA     O1P 1875   9.055  11.557   4.309
   60DA     O2P 1876   9.077  11.632   4.072
   60DA     O5' 1877   9.197  11.430   4.138
   60DA     C5' 1878   9.239  11.327   4.229
   60DA    H5'1 1879   9.158  11.256   4.245
   60DA    H5'2 1880   9.269  11.373   4.320
   60DA     C4' 1881   9.355  11.243   4.176
   60DA     H4' 1882   9.410  11.196   4.261
   60DA     O4' 1883   9.305  11.134   4.100
   60DA     C1' 1884   9.330  11.161   3.959
   60DA     H1' 1885   9.405  11.093   3.926
   60DA      N9 1886   9.208  11.144   3.882
   60DA      C8 1887   9.087  11.222   3.886
   60DA      H8 1888   9.071  11.307   3.947
   60DA      N7 1889   8.989  11.172   3.813
   60DA      C5 1890   9.043  11.055   3.755
   60DA      C6 1891   8.995  10.950   3.675
   60DA      N6 1892   8.867  10.938   3.635
   60DA     H61 1893   8.836  10.850   3.592
   60DA     H62 1894   8.809  11.023   3.647
   60DA      N1 1895   9.068  10.843   3.648
   60DA      C2 1896   9.199  10.851   3.686
   60DA      H2 1897   9.266  10.775   3.643
   60DA      N3 1898   9.256  10.947   3.753
   60DA      C4 1899   9.173  11.043   3.797
   60DA     C3' 1900   9.451  11.326   4.091
   60DA     H3' 1901   9.452  11.427   4.122
   60DA     C2' 1902   9.386  11.300   3.950
   60DA    H2'1 1903   9.306  11.372   3.945
   60DA    H2'2 1904   9.461  11.305   3.868
   60DA     O3' 1905   9.582  11.273   4.103
   61DC       P 1906   9.716  11.350   4.055
   61DC     O1P 1907   9.845  11.298   4.111
   61DC     O2P 1908   9.688  11.492   4.063
   61DC     O5' 1909   9.726  11.307   3.905
   61DC     C5' 1910   9.738  11.168   3.874
   61DC    H5'1 1911   9.665  11.112   3.937
   61DC    H5'2 1912   9.835  11.131   3.894
   61DC     C4' 1913   9.704  11.129   3.731
   61DC     H4' 1914   9.748  11.029   3.713
   61DC     O4' 1915   9.565  11.128   3.713
   61DC     C1' 1916   9.543  11.149   3.571
   61DC     H1' 1917   9.571  11.048   3.539
   61DC      N1 1918   9.402  11.174   3.542
   61DC      C6 1919   9.336  11.289   3.586
   61DC      H6 1920   9.390  11.351   3.647
   61DC      C5 1921   9.207  11.308   3.560
   61DC      H5 1922   9.161  11.394   3.608
   61DC      C4 1923   9.140  11.219   3.478
   61DC      N4 1924   9.019  11.242   3.447
   61DC     H41 1925   8.986  11.183   3.381
   61DC     H42 1926   8.972  11.321   3.487
   61DC      N3 1927   9.200  11.108   3.435
   61DC      C2 1928   9.328  11.076   3.469
   61DC      O2 1929   9.366  10.956   3.446
   61DC     C3' 1930   9.772  11.222   3.627
   61DC     H3' 1931   9.799  11.321   3.657
   61DC     C2' 1932   9.654  11.240   3.523
   61DC    H2'1 1933   9.619  11.340   3.523
   61DC    H2'2 1934   9.685  11.210   3.424
   61DC     O3' 1935   9.890  11.158   3.583
   62DA       P 1936   9.957  11.186   3.442
   62DA     O1P 1937  10.101  11.163   3.449
   62DA     O2P 1938   9.919  11.314   3.394
   62DA     O5' 1939   9.885  11.073   3.357
   62DA     C5' 1940   9.879  10.943   3.400
   62DA    H5'1 1941   9.811  10.933   3.476
   62DA    H5'2 1942   9.979  10.914   3.446
   62DA     C4' 1943   9.825  10.853   3.292
   62DA     H4' 1944   9.843  10.755   3.326
   62DA     O4' 1945   9.688  10.876   3.281
   62DA     C1' 1946   9.660  10.896   3.142
   62DA     H1' 1947   9.615  10.802   3.093
   62DA      N9 1948   9.562  11.003   3.129
   62DA      C8 1949   9.569  11.133   3.167
   62DA      H8 1950   9.664  11.164   3.213
   62DA      N7 1951   9.461  11.201   3.145
   62DA      C5 1952   9.367  11.104   3.107
   62DA      C6 1953   9.229  11.100   3.079
   62DA      N6 1954   9.146  11.204   3.090
   62DA     H61 1955   9.053  11.189   3.056
   62DA     H62 1956   9.178  11.297   3.111
   62DA      N1 1957   9.175  10.991   3.030
   62DA      C2 1958   9.250  10.878   3.032
   62DA      H2 1959   9.185  10.789   2.999
   62DA      N3 1960   9.374  10.867   3.065
   62DA      C4 1961   9.430  10.988   3.097
   62DA     C3' 1962   9.896  10.859   3.157
   62DA     H3' 1963   9.994  10.902   3.173
   62DA     C2' 1964   9.788  10.936   3.079
   62DA    H2'1 1965   9.804  11.039   3.089
   62DA    H2'2 1966   9.783  10.911   2.974
   62DA     O3' 1967   9.908  10.722   3.117
   63DT       P 1968   9.968  10.671   2.981
   63DT     O1P 1969   9.993  10.529   3.008
   63DT     O2P 1970  10.081  10.767   2.957
   63DT     O5' 1971   9.873  10.684   2.857
   63DT     C5' 1972   9.762  10.598   2.845
   63DT    H5'1 1973   9.716  10.592   2.939
   63DT    H5'2 1974   9.791  10.495   2.818
   63DT     C4' 1975   9.660  10.647   2.740
   63DT     H4' 1976   9.584  10.564   2.728
   63DT     O4' 1977   9.606  10.773   2.792
   63DT     C1' 1978   9.571  10.846   2.683
   63DT     H1' 1979   9.478  10.797   2.638
   63DT      N1 1980   9.528  10.983   2.724
   63DT      C6 1981   9.628  11.069   2.766
   63DT      H6 1982   9.733  11.031   2.785
   63DT      C5 1983   9.591  11.198   2.802
   63DT      C7 1984   9.692  11.292   2.871
   63DT     H71 1985   9.732  11.360   2.792
   63DT     H72 1986   9.634  11.341   2.950
   63DT     H73 1987   9.774  11.244   2.917
   63DT      C4 1988   9.451  11.242   2.793
   63DT      O4 1989   9.404  11.349   2.821
   63DT      N3 1990   9.365  11.151   2.732
   63DT      H3 1991   9.266  11.179   2.726
   63DT      C2 1992   9.399  11.020   2.694
   63DT      O2 1993   9.308  10.957   2.645
   63DT     C3' 1994   9.722  10.686   2.603
   63DT     H3' 1995   9.833  10.673   2.594
   63DT     C2' 1996   9.683  10.831   2.587
   63DT    H2'1 1997   9.771  10.890   2.613
   63DT    H2'2 1998   9.647  10.841   2.480
   63DT     O3' 1999   9.654  10.599   2.513
   64DG       P 2000   9.694  10.579   2.361
   64DG     O1P 2001   9.662  10.438   2.323
   64DG     O2P 2002   9.830  10.634   2.335
   64DG     O5' 2003   9.593  10.669   2.289
   64DG     C5' 2004   9.455  10.631   2.284
   64DG    H5'1 2005   9.416  10.612   2.390
   64DG    H5'2 2006   9.439  10.543   2.223
   64DG     C4' 2007   9.373  10.746   2.226
   64DG     H4' 2008   9.274  10.712   2.213
   64DG     O4' 2009   9.378  10.857   2.315
   64DG     C1' 2010   9.401  10.978   2.235
   64DG     H1' 2011   9.307  11.017   2.191
   64DG      N9 2012   9.452  11.094   2.318
   64DG      C8 2013   9.579  11.141   2.345
   64DG      H8 2014   9.669  11.086   2.310
   64DG      N7 2015   9.577  11.250   2.416
   64DG      C5 2016   9.438  11.280   2.425
   64DG      C6 2017   9.371  11.395   2.482
   64DG      O6 2018   9.412  11.493   2.545
   64DG      N1 2019   9.235  11.390   2.466
   64DG      H1 2020   9.181  11.463   2.512
   64DG      C2 2021   9.173  11.299   2.399
   64DG      N2 2022   9.043  11.320   2.382
   64DG     H21 2023   8.999  11.403   2.415
   64DG     H22 2024   8.998  11.257   2.320
   64DG      N3 2025   9.231  11.192   2.346
   64DG      C4 2026   9.364  11.185   2.367
   64DG     C3' 2027   9.438  10.797   2.095
   64DG     H3' 2028   9.502  10.724   2.051
   64DG     C2' 2029   9.505  10.929   2.131
   64DG    H2'1 2030   9.601  10.917   2.177
   64DG    H2'2 2031   9.521  10.997   2.039
   64DG     O3' 2032   9.333  10.845   2.007
   65DC       P 2033   9.330  10.806   1.857
   65DC     O1P 2034   9.312  10.659   1.845
   65DC     O2P 2035   9.441  10.874   1.788
   65DC     O5' 2036   9.199  10.884   1.813
   65DC     C5' 2037   9.073  10.872   1.879
   65DC    H5'1 2038   9.089  10.870   1.986
   65DC    H5'2 2039   9.025  10.779   1.847
   65DC     C4' 2040   8.971  10.985   1.867
   65DC     H4' 2041   8.868  10.941   1.888
   65DC     O4' 2042   8.992  11.098   1.952
   65DC     C1' 2043   9.041  11.200   1.871
   65DC     H1' 2044   8.966  11.280   1.859
   65DC      N1 2045   9.157  11.265   1.946
   65DC      C6 2046   9.281  11.206   1.943
   65DC      H6 2047   9.284  11.104   1.907
   65DC      C5 2048   9.390  11.262   2.003
   65DC      H5 2049   9.487  11.212   2.011
   65DC      C4 2050   9.365  11.376   2.079
   65DC      N4 2051   9.461  11.435   2.143
   65DC     H41 2052   9.444  11.525   2.183
   65DC     H42 2053   9.551  11.393   2.139
   65DC      N3 2054   9.238  11.435   2.081
   65DC      C2 2055   9.136  11.386   2.010
   65DC      O2 2056   9.028  11.442   2.001
   65DC     C3' 2057   8.974  11.030   1.719
   65DC     H3' 2058   9.005  10.953   1.647
   65DC     C2' 2059   9.067  11.149   1.726
   65DC    H2'1 2060   9.166  11.115   1.723
   65DC    H2'2 2061   9.060  11.226   1.650
   65DC     O3' 2062   8.851  11.092   1.683
   66DG3      P 2063   8.817  11.140   1.533
   66DG3    O1P 2064   8.671  11.121   1.513
   66DG3    O2P 2065   8.911  11.074   1.438
   66DG3    O5' 2066   8.848  11.296   1.534
   66DG3    C5' 2067   8.775  11.383   1.626
   66DG3   H5'1 2068   8.769  11.335   1.719
   66DG3   H5'2 2069   8.680  11.394   1.576
   66DG3    C4' 2070   8.838  11.523   1.647
   66DG3    H4' 2071   8.764  11.581   1.704
   66DG3    O4' 2072   8.954  11.503   1.717
   66DG3    C1' 2073   9.029  11.619   1.690
   66DG3    H1' 2074   8.990  11.708   1.732
   66DG3     N9 2075   9.170  11.609   1.712
   66DG3     C8 2076   9.259  11.499   1.686
   66DG3     H8 2077   9.223  11.417   1.626
   66DG3     N7 2078   9.375  11.506   1.748
   66DG3     C5 2079   9.364  11.622   1.819
   66DG3     C6 2080   9.462  11.685   1.904
   66DG3     O6 2081   9.570  11.642   1.944
   66DG3     N1 2082   9.411  11.798   1.964
   66DG3     H1 2083   9.481  11.855   2.011
   66DG3     C2 2084   9.295  11.862   1.927
   66DG3     N2 2085   9.279  11.974   1.985
   66DG3    H21 2086   9.352  12.014   2.049
   66DG3    H22 2087   9.193  12.033   1.975
   66DG3     N3 2088   9.202  11.814   1.839
   66DG3     C4 2089   9.244  11.692   1.793
   66DG3    C3' 2090   8.869  11.599   1.521
   66DG3    H3' 2091   8.849  11.538   1.434
   66DG3    C2' 2092   9.018  11.629   1.530
   66DG3   H2'1 2093   9.081  11.548   1.481
   66DG3   H2'2 2094   9.043  11.726   1.496
   66DG3    O3' 2095   8.807  11.726   1.514
   66DG3    H3T 2096   8.769  11.730   1.421
   67SOL     OW 2097   7.717   0.341   7.156
   67SOL    HW1 2098   7.810   0.348   7.135
   67SOL    HW2 2099   7.672   0.377   7.080
   68SOL     OW 2100   0.082   2.821  13.270
   68SOL    HW1 2101   0.166   2.799  13.309
   68SOL    HW2 2102   0.063   2.909  13.304
   69SOL     OW 2103  14.280   0.671   7.468
   69SOL    HW1 2104  14.343   0.657   7.397
   69SOL    HW2 2105  14.204   0.712   7.425
   70SOL     OW 2106   0.235   6.094  13.732
   70SOL    HW1 2107   0.143   6.084  13.755
   70SOL    HW2 2108   0.262   6.007  13.703
   71SOL     OW 2109   9.077  10.302   8.483
   71SOL    HW1 2110   9.077  10.322   8.577
   71SOL    HW2 2111   9.008  10.358   8.448
   72SOL     OW 2112  10.469   7.102   9.769
   72SOL    HW1 2113  10.391   7.124   9.717
   72SOL    HW2 2114  10.542   7.132   9.715
   73SOL     OW 2115   0.200   8.162  10.774
   73SOL    HW1 2116   0.220   8.154  10.867
   73SOL    HW2 2117   0.114   8.204  10.772
   74SOL     OW 2118   7.559   2.235   3.277
   74SOL    HW1 2119   7.506   2.177   3.222
   74SOL    HW2 2120   7.531   2.323   3.253
   75SOL     OW 2121   3.684  14.219  13.805
   75SOL    HW1 2122   3.702  14.165  13.882
   75SOL    HW2 2123   3.715  14.306  13.829
   76SOL     OW 2124   1.628  13.407   8.930
   76SOL    HW1 2125   1.641  13.317   8.900
   76SOL    HW2 2126   1.715  13.438   8.953
   77SOL     OW 2127   3.650  12.431   8.286
   77SOL    HW1 2128   3.723  12.374   8.260
   77SOL    HW2 2129   3.593  12.433   8.210
   78SOL     OW 2130  10.953   1.336  12.250
   78SOL    HW1 2131  10.894   1.310  12.179
   78SOL    HW2 2132  10.981   1.425  12.227
   79SOL     OW 2133   6.889   4.512   7.896
   79SOL    HW1 2134   6.852   4.536   7.811
   79SOL    HW2 2135   6.979   4.488   7.877
   80SOL     OW 2136   4.439   1.609  10.227
   80SOL    HW1 2137   4.483   1.680  10.274
   80SOL    HW2 2138   4.510   1.555  10.193
   81SOL     OW 2139  13.485   7.026   5.070
   81SOL    HW1 2140  13.392   7.003   5.063
   81SOL    HW2 2141  13.488   7.089   5.142
   82SOL     OW 2142  13.788  11.377   2.281
   82SOL    HW1 2143  13.866  11.380   2.337
   82SOL    HW2 2144  13.817  11.330   2.203
   83SOL     OW 2145  14.183   0.159   0.900
   83SOL    HW1 2146  14.273   0.146   0.930
   83SOL    HW2 2147  14.169   0.089   0.837
   84SOL     OW 2148   6.073  13.335  12.407
   84SOL    HW1 2149   6.046  13.414  12.360
   84SOL    HW2 2150   5.990  13.295  12.434
   85SOL     OW 2151  10.994   1.470   4.465
   85SOL    HW1 2152  10.977   1.554   4.423
   85SOL    HW2 2153  11.070   1.434   4.419
   86SOL     OW 2154   7.080  10.932   8.861
   86SOL    HW1 2155   7.102  11.019   8.894
   86SOL    HW2 2156   7.064  10.879   8.939
   87SOL     OW 2157   8.231  12.537   6.531
   87SOL    HW1 2158   8.167  12.468   6.547
   87SOL    HW2 2159   8.186  12.601   6.476
   88SOL     OW 2160   3.474   4.497   0.154
   88SOL    HW1 2161   3.391   4.541   0.172
   88SOL    HW2 2162   3.449   4.414   0.111
   89SOL     OW 2163   8.397  12.584   8.152
   89SOL    HW1 2164   8.462  12.516   8.132
   89SOL    HW2 2165   8.413  12.652   8.086
   90SOL     OW 2166   3.910   7.145  13.551
   90SOL    HW1 2167   3.950   7.100  13.626
   90SOL    HW2 2168   3.940   7.095  13.475
   91SOL     OW 2169  10.754   2.238  14.093
   91SOL    HW1 2170  10.793   2.313  14.050
   91SOL    HW2 2171  10.685   2.274  14.148
   92SOL     OW 2172   1.107   8.044  13.417
   92SOL    HW1 2173   1.189   8.035  13.370
   92SOL    HW2 2174   1.117   7.986  13.493
   93SOL     OW 2175   3.585  11.739  10.543
   93SOL    HW1 2176   3.649  11.810  10.534
   93SOL    HW2 2177   3.627  11.663  10.503
   94SOL     OW 2178   5.400   9.468  11.978
   94SOL    HW1 2179   5.309   9.483  12.001
   94SOL    HW2 2180   5.407   9.373  11.967
   95SOL     OW 2181   0.929   6.070  13.570
   95SOL    HW1 2182   0.979   6.096  13.493
   95SOL    HW2 2183   0.930   6.148  13.626
   96SOL     OW 2184   4.590   4.056   9.766
   96SOL    HW1 2185   4.618   4.040   9.856
   96SOL    HW2 2186   4.588   3.969   9.726
   97SOL     OW 2187   7.271   4.032  14.270
   97SOL    HW1 2188   7.208   4.102  14.254
   97SOL    HW2 2189   7.346   4.076  14.311
   98SOL     OW 2190   4.307   1.953   7.647
   98SOL    HW1 2191   4.357   2.032   7.664
   98SOL    HW2 2192   4.360   1.904   7.584
   99SOL     OW 2193  12.508   9.860   2.612
   99SOL    HW1 2194  12.565   9.791   2.647
   99SOL    HW2 2195  12.421   9.821   2.608
  100SOL     OW 2196   4.708  13.274  12.467
  100SOL    HW1 2197   4.623  13.274  12.423
  100SOL    HW2 2198   4.712  13.189  12.511
  101SOL     OW 2199   1.855   4.472   2.388
  101SOL    HW1 2200   1.903   4.505   2.465
  101SOL    HW2 2201   1.764   4.468   2.417
  102SOL     OW 2202  13.309  11.583   4.466
  102SOL    HW1 2203  13.369  11.550   4.399
  102SOL    HW2 2204  13.287  11.671   4.438
  103SOL     OW 2205   1.188   0.422  10.240
  103SOL    HW1 2206   1.200   0.422  10.145
  103SOL    HW2 2207   1.238   0.347  10.271
  104SOL     OW 2208   2.983  13.944   4.008
  104SOL    HW1 2209   3.074  13.916   4.003
  104SOL    HW2 2210   2.956  13.923   4.097
  105SOL     OW 2211   6.016   1.421   3.276
  105SOL    HW1 2212   6.112   1.423   3.277
  105SOL    HW2 2213   5.994   1.328   3.272
  106SOL     OW 2214   1.476   3.789   9.671
  106SOL    HW1 2215   1.493   3.694   9.673
  106SOL    HW2 2216   1.380   3.796   9.672
  107SOL     OW 2217   3.745   7.898   5.706
  107SOL    HW1 2218   3.742   7.823   5.765
  107SOL    HW2 2219   3.665   7.947   5.725
  108SOL     OW 2220   2.553  11.010  14.304
  108SOL    HW1 2221   2.635  10.999  14.353
  108SOL    HW2 2222   2.488  11.032  14.371
  109SOL     OW 2223   9.710   4.025  10.061
  109SOL    HW1 2224   9.758   4.068   9.990
  109SOL    HW2 2225   9.763   3.949  10.084
  110SOL     OW 2226  14.591   9.410   1.976
  110SOL    HW1 2227  14.565   9.356   1.901
  110SOL    HW2 2228  14.587   9.500   1.943
  111SOL     OW 2229   9.454   3.823   5.503
  111SOL    HW1 2230   9.373   3.870   5.480
  111SOL    HW2 2231   9.515   3.892   5.528
  112SOL     OW 2232   1.526   6.771   3.426
  112SOL    HW1 2233   1.456   6.706   3.418
  112SOL    HW2 2234   1.604   6.720   3.447
  113SOL     OW 2235   2.634   8.632   6.804
  113SOL    HW1 2236   2.548   8.591   6.793
  113SOL    HW2 2237   2.692   8.583   6.746
  114SOL     OW 2238   7.560  14.699  13.669
  114SOL    HW1 2239   7.543  14.693  13.575
  114SOL    HW2 2240   7.636  14.644  13.683
  115SOL     OW 2241  13.192   9.789   3.802
  115SOL    HW1 2242  13.131   9.752   3.866
  115SOL    HW2 2243  13.277   9.786   3.845
  116SOL     OW 2244  14.263   7.949   6.746
  116SOL    HW1 2245  14.299   8.036   6.763
  116SOL    HW2 2246  14.174   7.966   6.714
  117SOL     OW 2247  12.756   0.208   7.555
  117SOL    HW1 2248  12.728   0.194   7.464
  117SOL    HW2 2249  12.744   0.302   7.569
  118SOL     OW 2250   3.949   8.533   2.729
  118SOL    HW1 2251   4.042   8.516   2.720
  118SOL    HW2 2252   3.931   8.521   2.822
  119SOL     OW 2253   8.167  13.164   9.428
  119SOL    HW1 2254   8.173  13.234   9.363
  119SOL    HW2 2255   8.254  13.123   9.426
  120SOL     OW 2256   4.556   3.870   0.143
  120SOL    HW1 2257   4.553   3.945   0.083
  120SOL    HW2 2258   4.568   3.794   0.085
  121SOL     OW 2259   8.379  10.311  14.772
  121SOL    HW1 2260   8.312  10.310  14.704
  121SOL    HW2 2261   8.460  10.284  14.728
  122SOL     OW 2262  10.274   6.328  14.694
  122SOL    HW1 2263  10.265   6.234  14.679
  122SOL    HW2 2264  10.237   6.342  14.782
  123SOL     OW 2265  13.728   5.195   4.729
  123SOL    HW1 2266  13.726   5.274   4.675
  123SOL    HW2 2267  13.786   5.136   4.681
  124SOL     OW 2268   1.361   6.386  14.003
  124SOL    HW1 2269   1.420   6.445  13.958
  124SOL    HW2 2270   1.418   6.325  14.050
  125SOL     OW 2271   7.137   0.814  10.409
  125SOL    HW1 2272   7.136   0.749  10.339
  125SOL    HW2 2273   7.229   0.826  10.430
  126SOL     OW 2274  10.496   0.351  12.650
  126SOL    HW1 2275  10.549   0.384  12.723
  126SOL    HW2 2276  10.523   0.260  12.639
  127SOL     OW 2277   0.874  12.069   8.906
  127SOL    HW1 2278   0.781  12.054   8.921
  127SOL    HW2 2279   0.878  12.149   8.853
  128SOL     OW 2280   2.347  11.725  13.163
  128SOL    HW1 2281   2.414  11.657  13.165
  128SOL    HW2 2282   2.383  11.792  13.106
  129SOL     OW 2283   4.688  13.581  13.177
  129SOL    HW1 2284   4.609  13.634  13.180
  129SOL    HW2 2285   4.667  13.503  13.228
  130SOL     OW 2286  12.824   3.229  14.427
  130SOL    HW1 2287  12.917   3.247  14.440
  130SOL    HW2 2288  12.806   3.155  14.484
  131SOL     OW 2289   2.171  14.549  14.337
  131SOL    HW1 2290   2.081  14.578  14.353
  131SOL    HW2 2291   2.217  14.563  14.420
  132SOL     OW 2292   2.145   6.430  14.262
  132SOL    HW1 2293   2.106   6.470  14.340
  132SOL    HW2 2294   2.204   6.363  14.297
  133SOL     OW 2295  13.071   9.686   0.567
  133SOL    HW1 2296  13.039   9.772   0.595
  133SOL    HW2 2297  13.087   9.695   0.473
  134SOL     OW 2298  12.045   3.649   2.989
  134SOL    HW1 2299  12.098   3.645   2.909
  134SOL    HW2 2300  12.016   3.559   3.003
  135SOL     OW 2301   5.213  13.187  10.708
  135SOL    HW1 2302   5.280  13.195  10.640
  135SOL    HW2 2303   5.204  13.276  10.743
  136SOL     OW 2304   1.785  10.599   6.986
  136SOL    HW1 2305   1.875  10.568   6.999
  136SOL    HW2 2306   1.790  10.660   6.913
  137SOL     OW 2307   7.430  13.607  11.750
  137SOL    HW1 2308   7.373  13.643  11.817
  137SOL    HW2 2309   7.418  13.666  11.675
  138SOL     OW 2310   2.795  11.020   5.142
  138SOL    HW1 2311   2.715  10.999   5.093
  138SOL    HW2 2312   2.835  10.936   5.161
  139SOL     OW 2313   6.064   6.156   4.693
  139SOL    HW1 2314   6.125   6.114   4.754
  139SOL    HW2 2315   6.014   6.217   4.748
  140SOL     OW 2316   5.210   3.281  10.322
  140SOL    HW1 2317   5.237   3.352  10.264
  140SOL    HW2 2318   5.243   3.202  10.279
  141SOL     OW 2319  10.635   1.827  12.649
  141SOL    HW1 2320  10.642   1.920  12.626
  141SOL    HW2 2321  10.668   1.822  12.739
  142SOL     OW 2322   0.677   7.950  10.737
  142SOL    HW1 2323   0.644   7.926  10.651
  142SOL    HW2 2324   0.772   7.948  10.728
  143SOL     OW 2325   7.470   8.098  13.177
  143SOL    HW1 2326   7.558   8.079  13.206
  143SOL    HW2 2327   7.433   8.154  13.245
  144SOL     OW 2328   3.851   9.053   4.821
  144SOL    HW1 2329   3.853   9.148   4.806
  144SOL    HW2 2330   3.902   9.016   4.749
  145SOL     OW 2331   8.625  10.538  14.013
  145SOL    HW1 2332   8.542  10.492  14.024
  145SOL    HW2 2333   8.605  10.609  13.952
  146SOL     OW 2334  14.462   4.563   4.323
  146SOL    HW1 2335  14.467   4.498   4.253
  146SOL    HW2 2336  14.478   4.646   4.279
  147SOL     OW 2337  12.746   3.027   1.082
  147SOL    HW1 2338  12.762   3.119   1.060
  147SOL    HW2 2339  12.825   3.000   1.129
  148SOL     OW 2340   8.040   6.272  11.076
  148SOL    HW1 2341   7.964   6.314  11.036
  148SOL    HW2 2342   8.043   6.308  11.165
  149SOL     OW 2343   7.266  10.524   3.951
  149SOL    HW1 2344   7.330  10.549   4.017
  149SOL    HW2 2345   7.182  10.534   3.994
  150SOL     OW 2346  10.239  11.066   9.566
  150SOL    HW1 2347  10.210  11.057   9.476
  150SOL    HW2 2348  10.318  11.012   9.572
  151SOL     OW 2349   8.197   7.091   7.895
  151SOL    HW1 2350   8.197   7.110   7.989
  151SOL    HW2 2351   8.287   7.109   7.867
  152SOL     OW 2352   3.839  14.097   8.365
  152SOL    HW1 2353   3.839  14.188   8.393
  152SOL    HW2 2354   3.750  14.081   8.335
  153SOL     OW 2355   1.324   6.728  10.018
  153SOL    HW1 2356   1.261   6.727  10.090
  153SOL    HW2 2357   1.311   6.644   9.974
  154SOL     OW 2358  10.774   1.445  14.727
  154SOL    HW1 2359  10.852   1.440  14.783
  154SOL    HW2 2360  10.710   1.389  14.770
  155SOL     OW 2361  14.368   3.050   2.188
  155SOL    HW1 2362  14.451   3.013   2.160
  155SOL    HW2 2363  14.347   3.115   2.122
  156SOL     OW 2364   3.835   1.655  14.614
  156SOL    HW1 2365   3.812   1.735  14.662
  156SOL    HW2 2366   3.778   1.588  14.652
  157SOL     OW 2367   0.984   1.932   9.006
  157SOL    HW1 2368   0.994   1.998   8.936
  157SOL    HW2 2369   1.009   1.850   8.964
  158SOL     OW 2370   1.052   5.572   1.502
  158SOL    HW1 2371   1.061   5.550   1.594
  158SOL    HW2 2372   1.141   5.566   1.467
  159SOL     OW 2373  12.445   1.283   0.579
  159SOL    HW1 2374  12.388   1.220   0.622
  159SOL    HW2 2375  12.394   1.364   0.576
  160SOL     OW 2376  11.638   8.439  14.877
  160SOL    HW1 2377  11.560   8.487  14.848
  160SOL    HW2 2378  11.705   8.507   0.001
  161SOL     OW 2379  12.213  14.638  12.156
  161SOL    HW1 2380  12.292  14.655  12.104
  161SOL    HW2 2381  12.184  14.551  12.127
  162SOL     OW 2382   0.369   6.741   9.603
  162SOL    HW1 2383   0.405   6.784   9.680
  162SOL    HW2 2384   0.444   6.695   9.564
  163SOL     OW 2385   3.569   4.020   6.668
  163SOL    HW1 2386   3.522   3.980   6.595
  163SOL    HW2 2387   3.545   4.113   6.663
  164SOL     OW 2388   9.224  12.786   0.153
  164SOL    HW1 2389   9.138  12.787   0.196
  164SOL    HW2 2390   9.287  12.792   0.224
  165SOL     OW 2391   5.232   2.084  14.102
  165SOL    HW1 2392   5.301   2.033  14.060
  165SOL    HW2 2393   5.278   2.150  14.153
  166SOL     OW 2394  14.485  12.232  14.784
  166SOL    HW1 2395  14.467  12.140  14.800
  166SOL    HW2 2396  14.545  12.232  14.709
  167SOL     OW 2397   9.857  13.618   2.989
  167SOL    HW1 2398   9.898  13.590   3.071
  167SOL    HW2 2399   9.924  13.673   2.947
  168SOL     OW 2400   2.830   2.057   1.057
  168SOL    HW1 2401   2.911   2.007   1.063
  168SOL    HW2 2402   2.857   2.144   1.027
  169SOL     OW 2403  10.198  11.455   1.074
  169SOL    HW1 2404  10.126  11.507   1.110
  169SOL    HW2 2405  10.240  11.514   1.010
  170SOL     OW 2406   0.490  10.955   6.448
  170SOL    HW1 2407   0.483  11.049   6.433
  170SOL    HW2 2408   0.400  10.923   6.443
  171SOL     OW 2409   8.705   0.134  11.779
  171SOL    HW1 2410   8.699   0.200  11.848
  171SOL    HW2 2411   8.690   0.183  11.698
  172SOL     OW 2412  11.383   3.425  13.799
  172SOL    HW1 2413  11.323   3.484  13.754
  172SOL    HW2 2414  11.355   3.337  13.773
  173SOL     OW 2415  10.532  13.914   7.127
  173SOL    HW1 2416  10.511  13.838   7.181
  173SOL    HW2 2417  10.451  13.964   7.123
  174SOL     OW 2418   1.100   8.068  13.965
  174SOL    HW1 2419   1.113   8.104  13.877
  174SOL    HW2 2420   1.104   7.973  13.954
  175SOL     OW 2421   5.691  11.927   3.261
  175SOL    HW1 2422   5.736  11.987   3.201
  175SOL    HW2 2423   5.721  11.840   3.235
  176SOL     OW 2424  13.784   4.445   2.911
  176SOL    HW1 2425  13.822   4.358   2.921
  176SOL    HW2 2426  13.789   4.464   2.818
  177SOL     OW 2427  12.438   7.988   8.588
  177SOL    HW1 2428  12.498   8.015   8.519
  177SOL    HW2 2429  12.351   8.012   8.555
  178SOL     OW 2430  10.328   8.540   6.530
  178SOL    HW1 2431  10.343   8.449   6.502
  178SOL    HW2 2432  10.235   8.541   6.555
  179SOL     OW 2433  13.939  12.939  13.739
  179SOL    HW1 2434  13.870  12.924  13.674
  179SOL    HW2 2435  13.998  13.001  13.696
  180SOL     OW 2436  10.905  13.620  14.176
  180SOL    HW1 2437  10.956  13.551  14.218
  180SOL    HW2 2438  10.969  13.687  14.152
  181SOL     OW 2439  14.389   3.367   2.402
  181SOL    HW1 2440  14.342   3.403   2.477
  181SOL    HW2 2441  14.332   3.385   2.327
  182SOL     OW 2442   1.250   1.810   0.996
  182SOL    HW1 2443   1.185   1.788   1.063
  182SOL    HW2 2444   1.332   1.774   1.029
  183SOL     OW 2445  10.491  13.945   7.662
  183SOL    HW1 2446  10.438  14.025   7.659
  183SOL    HW2 2447  10.580  13.975   7.639
  184SOL     OW 2448  10.166   0.606   3.623
  184SOL    HW1 2449  10.211   0.670   3.680
  184SOL    HW2 2450  10.125   0.660   3.556
  185SOL     OW 2451  10.025  10.734   6.403
  185SOL    HW1 2452  10.016  10.760   6.311
  185SOL    HW2 2453   9.980  10.650   6.408
  186SOL     OW 2454  10.927  11.065   0.445
  186SOL    HW1 2455  10.891  11.115   0.372
  186SOL    HW2 2456  10.953  11.131   0.509
  187SOL     OW 2457   1.178   5.247   6.297
  187SOL    HW1 2458   1.127   5.177   6.338
  187SOL    HW2 2459   1.152   5.326   6.345
  188SOL     OW 2460   0.425  11.377   5.902
  188SOL    HW1 2461   0.425  11.465   5.865
  188SOL    HW2 2462   0.512  11.366   5.941
  189SOL     OW 2463   0.692   2.391   2.755
  189SOL    HW1 2464   0.686   2.343   2.673
  189SOL    HW2 2465   0.602   2.417   2.774
  190SOL     OW 2466   4.457   1.534   5.464
  190SOL    HW1 2467   4.375   1.550   5.417
  190SOL    HW2 2468   4.524   1.578   5.411
  191SOL     OW 2469   3.663   9.112   5.941
  191SOL    HW1 2470   3.588   9.137   5.995
  191SOL    HW2 2471   3.667   9.017   5.949
  192SOL     OW 2472  11.945   4.412  12.937
  192SOL    HW1 2473  11.978   4.502  12.941
  192SOL    HW2 2474  11.862   4.414  12.985
  193SOL     OW 2475  14.263   8.279  11.386
  193SOL    HW1 2476  14.336   8.248  11.332
  193SOL    HW2 2477  14.304   8.333  11.454
  194SOL     OW 2478   9.824   3.970   1.146
  194SOL    HW1 2479   9.817   3.879   1.120
  194SOL    HW2 2480   9.792   3.972   1.237
  195SOL     OW 2481   8.156  13.842  14.030
  195SOL    HW1 2482   8.099  13.856  14.106
  195SOL    HW2 2483   8.239  13.813  14.067
  196SOL     OW 2484  10.863   3.009   6.290
  196SOL    HW1 2485  10.904   3.095   6.282
  196SOL    HW2 2486  10.836   2.988   6.200
  197SOL     OW 2487  11.418  13.833   0.249
  197SOL    HW1 2488  11.395  13.746   0.281
  197SOL    HW2 2489  11.354  13.891   0.291
  198SOL     OW 2490   0.189  13.832   3.356
  198SOL    HW1 2491   0.269  13.780   3.346
  198SOL    HW2 2492   0.176  13.873   3.270
  199SOL     OW 2493   5.118   5.948   1.067
  199SOL    HW1 2494   5.192   5.983   1.018
  199SOL    HW2 2495   5.100   5.864   1.025
  200SOL     OW 2496   8.116   1.841   4.874
  200SOL    HW1 2497   8.162   1.888   4.805
  200SOL    HW2 2498   8.170   1.764   4.891
  201SOL     OW 2499   3.973   6.892   1.212
  201SOL    HW1 2500   4.060   6.872   1.178
  201SOL    HW2 2501   3.989   6.945   1.290
  202SOL     OW 2502   7.443   2.760   2.037
  202SOL    HW1 2503   7.501   2.816   1.986
  202SOL    HW2 2504   7.416   2.814   2.111
  203SOL     OW 2505  13.200   9.504  10.443
  203SOL    HW1 2506  13.206   9.429  10.502
  203SOL    HW2 2507  13.282   9.503  10.394
  204SOL     OW 2508   1.113   3.388   3.778
  204SOL    HW1 2509   1.170   3.418   3.849
  204SOL    HW2 2510   1.091   3.467   3.729
  205SOL     OW 2511   5.645   2.630   2.482
  205SOL    HW1 2512   5.642   2.594   2.393
  205SOL    HW2 2513   5.597   2.566   2.535
  206SOL     OW 2514   5.228  13.201   7.317
  206SOL    HW1 2515   5.298  13.225   7.256
  206SOL    HW2 2516   5.167  13.149   7.265
  207SOL     OW 2517  12.006   1.446   8.479
  207SOL    HW1 2518  11.990   1.516   8.542
  207SOL    HW2 2519  11.918   1.413   8.458
  208SOL     OW 2520   0.423   4.515  14.755
  208SOL    HW1 2521   0.351   4.505  14.693
  208SOL    HW2 2522   0.489   4.565  14.708
  209SOL     OW 2523   2.564   9.285   4.233
  209SOL    HW1 2524   2.564   9.253   4.324
  209SOL    HW2 2525   2.495   9.235   4.190
  210SOL     OW 2526  10.520   9.803   0.115
  210SOL    HW1 2527  10.606   9.835   0.088
  210SOL    HW2 2528  10.481   9.876   0.163
  211SOL     OW 2529  11.839   0.245   5.993
  211SOL    HW1 2530  11.914   0.194   5.961
  211SOL    HW2 2531  11.875   0.330   6.015
  212SOL     OW 2532   6.515   6.485   5.617
  212SOL    HW1 2533   6.519   6.426   5.542
  212SOL    HW2 2534   6.601   6.528   5.619
  213SOL     OW 2535   7.492  13.936   4.041
  213SOL    HW1 2536   7.436  13.943   3.963
  213SOL    HW2 2537   7.577  13.908   4.006
  214SOL     OW 2538  10.674   7.599   4.270
  214SOL    HW1 2539  10.590   7.563   4.242
  214SOL    HW2 2540  10.652   7.682   4.314
  215SOL     OW 2541   3.264   7.132   8.226
  215SOL    HW1 2542   3.356   7.124   8.253
  215SOL    HW2 2543   3.265   7.110   8.133
  216SOL     OW 2544  12.606  14.859   2.241
  216SOL    HW1 2545  12.663  14.816   2.176
  216SOL    HW2 2546  12.587   0.057   2.202
  217SOL     OW 2547   1.914   3.522  13.612
  217SOL    HW1 2548   1.831   3.567  13.595
  217SOL    HW2 2549   1.930   3.470  13.533
  218SOL     OW 2550  10.305   2.518   2.801
  218SOL    HW1 2551  10.262   2.432   2.799
  218SOL    HW2 2552  10.396   2.500   2.775
  219SOL     OW 2553   4.588  10.985   8.465
  219SOL    HW1 2554   4.621  11.070   8.434
  219SOL    HW2 2555   4.582  10.931   8.387
  220SOL     OW 2556  13.487  10.981   6.276
  220SOL    HW1 2557  13.518  11.023   6.356
  220SOL    HW2 2558  13.566  10.969   6.224
  221SOL     OW 2559  14.328   9.256   3.962
  221SOL    HW1 2560  14.277   9.332   3.992
  221SOL    HW2 2561  14.327   9.263   3.867
  222SOL     OW 2562  11.195   4.484   2.687
  222SOL    HW1 2563  11.187   4.437   2.771
  222SOL    HW2 2564  11.284   4.521   2.690
  223SOL     OW 2565  14.239   5.504   0.010
  223SOL    HW1 2566  14.289   5.575  14.858
  223SOL    HW2 2567  14.279   5.491   0.096
  224SOL     OW 2568  10.185  11.276  12.496
  224SOL    HW1 2569  10.201  11.191  12.537
  224SOL    HW2 2570  10.245  11.336  12.540
  225SOL     OW 2571  10.850   4.084  14.057
  225SOL    HW1 2572  10.767   4.100  14.102
  225SOL    HW2 2573  10.881   4.171  14.032
  226SOL     OW 2574   8.470   0.457   1.571
  226SOL    HW1 2575   8.450   0.549   1.552
  226SOL    HW2 2576   8.563   0.447   1.549
  227SOL     OW 2577   7.174   1.149   9.163
  227SOL    HW1 2578   7.160   1.054   9.160
  227SOL    HW2 2579   7.198   1.167   9.254
  228SOL     OW 2580   2.992  13.740   9.522
  228SOL    HW1 2581   2.960  13.760   9.434
  228SOL    HW2 2582   3.065  13.800   9.536
  229SOL     OW 2583  14.334   1.655  14.511
  229SOL    HW1 2584  14.401   1.700  14.460
  229SOL    HW2 2585  14.359   1.671  14.603
  230SOL     OW 2586  14.823  11.921   9.059
  230SOL    HW1 2587  14.864  11.939   9.144
  230SOL    HW2 2588  14.819  11.825   9.054
  231SOL     OW 2589   1.843   6.097  13.631
  231SOL    HW1 2590   1.872   6.170  13.577
  231SOL    HW2 2591   1.752   6.119  13.654
  232SOL     OW 2592   9.892  14.022   7.825
  232SOL    HW1 2593   9.937  13.942   7.796
  232SOL    HW2 2594   9.900  14.020   7.921
  233SOL     OW 2595   9.124  11.011   7.368
  233SOL    HW1 2596   9.188  10.944   7.345
  233SOL    HW2 2597   9.045  10.961   7.389
  234SOL     OW 2598   4.900   7.505   0.151
  234SOL    HW1 2599   4.953   7.441   0.104
  234SOL    HW2 2600   4.962   7.571   0.182
  235SOL     OW 2601   5.512   6.819  14.212
  235SOL    HW1 2602   5.506   6.894  14.152
  235SOL    HW2 2603   5.520   6.859  14.299
  236SOL     OW 2604   2.922   5.509   6.135
  236SOL    HW1 2605   2.883   5.504   6.047
  236SOL    HW2 2606   2.876   5.582   6.177
  237SOL     OW 2607   2.758   9.364   0.677
  237SOL    HW1 2608   2.787   9.411   0.599
  237SOL    HW2 2609   2.689   9.305   0.646
  238SOL     OW 2610  14.320  10.385   3.988
  238SOL    HW1 2611  14.231  10.386   3.953
  238SOL    HW2 2612  14.323  10.306   4.043
  239SOL     OW 2613   8.856   7.428   9.343
  239SOL    HW1 2614   8.865   7.412   9.436
  239SOL    HW2 2615   8.824   7.345   9.307
  240SOL     OW 2616   3.861   7.889   0.406
  240SOL    HW1 2617   3.891   7.964   0.457
  240SOL    HW2 2618   3.909   7.895   0.324
  241SOL     OW 2619   2.260  11.426   7.671
  241SOL    HW1 2620   2.343  11.474   7.670
  241SOL    HW2 2621   2.199  11.483   7.626
  242SOL     OW 2622   2.945   9.335  10.502
  242SOL    HW1 2623   2.984   9.272  10.441
  242SOL    HW2 2624   2.852   9.314  10.502
  243SOL     OW 2625  13.115  14.529   2.395
  243SOL    HW1 2626  13.083  14.520   2.485
  243SOL    HW2 2627  13.041  14.504   2.340
  244SOL     OW 2628  14.177   6.102   0.999
  244SOL    HW1 2629  14.162   6.113   0.905
  244SOL    HW2 2630  14.131   6.021   1.022
  245SOL     OW 2631   3.709   5.611   6.519
  245SOL    HW1 2632   3.783   5.634   6.463
  245SOL    HW2 2633   3.632   5.625   6.464
  246SOL     OW 2634  10.262  11.375  13.775
  246SOL    HW1 2635  10.240  11.453  13.725
  246SOL    HW2 2636  10.220  11.303  13.729
  247SOL     OW 2637   1.431  12.334  11.874
  247SOL    HW1 2638   1.475  12.380  11.803
  247SOL    HW2 2639   1.418  12.400  11.942
  248SOL     OW 2640   6.272   8.913   5.813
  248SOL    HW1 2641   6.195   8.857   5.819
  248SOL    HW2 2642   6.271   8.946   5.723
  249SOL     OW 2643  11.932   1.663  10.939
  249SOL    HW1 2644  11.860   1.672  11.001
  249SOL    HW2 2645  11.894   1.619  10.863
  250SOL     OW 2646  10.692  14.885   5.465
  250SOL    HW1 2647  10.731   0.064   5.522
  250SOL    HW2 2648  10.685   0.040   5.380
  251SOL     OW 2649   9.839  12.483  13.898
  251SOL    HW1 2650   9.929  12.455  13.913
  251SOL    HW2 2651   9.841  12.579  13.908
  252SOL     OW 2652  12.306   6.107   7.196
  252SOL    HW1 2653  12.225   6.117   7.247
  252SOL    HW2 2654  12.349   6.192   7.203
  253SOL     OW 2655   6.427   3.614   1.650
  253SOL    HW1 2656   6.455   3.703   1.672
  253SOL    HW2 2657   6.342   3.605   1.693
  254SOL     OW 2658  12.172   0.708   2.836
  254SOL    HW1 2659  12.158   0.683   2.745
  254SOL    HW2 2660  12.203   0.628   2.879
  255SOL     OW 2661  14.200   5.120   2.884
  255SOL    HW1 2662  14.189   5.159   2.970
  255SOL    HW2 2663  14.262   5.048   2.897
  256SOL     OW 2664   7.910   3.511   9.693
  256SOL    HW1 2665   7.908   3.565   9.614
  256SOL    HW2 2666   7.933   3.423   9.662
  257SOL     OW 2667   8.889   6.600   7.623
  257SOL    HW1 2668   8.875   6.548   7.544
  257SOL    HW2 2669   8.925   6.683   7.591
  258SOL     OW 2670   7.218   3.149   6.872
  258SOL    HW1 2671   7.212   3.205   6.949
  258SOL    HW2 2672   7.165   3.072   6.894
  259SOL     OW 2673  10.010  10.549   0.476
  259SOL    HW1 2674   9.965  10.465   0.483
  259SOL    HW2 2675  10.096  10.533   0.515
  260SOL     OW 2676   1.436   8.269  13.891
  260SOL    HW1 2677   1.341   8.260  13.881
  260SOL    HW2 2678   1.450   8.265  13.985
  261SOL     OW 2679  14.046   9.325   8.432
  261SOL    HW1 2680  14.134   9.333   8.467
  261SOL    HW2 2681  14.035   9.232   8.416
  262SOL     OW 2682  14.690  12.590   9.072
  262SOL    HW1 2683  14.686  12.631   9.159
  262SOL    HW2 2684  14.604  12.605   9.034
  263SOL     OW 2685  14.083   2.761  11.232
  263SOL    HW1 2686  14.029   2.692  11.191
  263SOL    HW2 2687  14.138   2.793  11.161
  264SOL     OW 2688  10.472   7.007   7.053
  264SOL    HW1 2689  10.512   7.038   6.972
  264SOL    HW2 2690  10.454   6.914   7.037
  265SOL     OW 2691  14.033  13.064  10.821
  265SOL    HW1 2692  13.969  13.121  10.779
  265SOL    HW2 2693  14.064  13.113  10.897
  266SOL     OW 2694  11.135  13.335   8.162
  266SOL    HW1 2695  11.225  13.320   8.189
  266SOL    HW2 2696  11.119  13.271   8.093
  267SOL     OW 2697   4.693   1.457   6.074
  267SOL    HW1 2698   4.718   1.379   6.025
  267SOL    HW2 2699   4.649   1.513   6.010
  268SOL     OW 2700   3.621   7.339   3.765
  268SOL    HW1 2701   3.587   7.251   3.778
  268SOL    HW2 2702   3.709   7.337   3.802
  269SOL     OW 2703   7.332  11.189  10.842
  269SOL    HW1 2704   7.300  11.279  10.836
  269SOL    HW2 2705   7.327  11.168  10.935
  270SOL     OW 2706  13.817   9.062   4.426
  270SOL    HW1 2707  13.893   9.018   4.465
  270SOL    HW2 2708  13.741   9.017   4.464
  271SOL     OW 2709  10.309  13.880  11.792
  271SOL    HW1 2710  10.262  13.818  11.736
  271SOL    HW2 2711  10.373  13.921  11.735
  272SOL     OW 2712   9.636   2.507   2.872
  272SOL    HW1 2713   9.606   2.589   2.911
  272SOL    HW2 2714   9.730   2.505   2.891
  273SOL     OW 2715   2.069  12.910  11.570
  273SOL    HW1 2716   2.144  12.927  11.627
  273SOL    HW2 2717   2.056  12.815  11.576
  274SOL     OW 2718   9.367   3.309   1.979
  274SOL    HW1 2719   9.359   3.217   2.002
  274SOL    HW2 2720   9.447   3.313   1.926
  275SOL     OW 2721   6.056   8.600  10.789
  275SOL    HW1 2722   6.090   8.610  10.701
  275SOL    HW2 2723   5.987   8.666  10.796
  276SOL     OW 2724   0.598   6.292   6.579
  276SOL    HW1 2725   0.543   6.361   6.617
  276SOL    HW2 2726   0.583   6.298   6.485
  277SOL     OW 2727   6.435  13.837  13.301
  277SOL    HW1 2728   6.348  13.841  13.262
  277SOL    HW2 2729   6.424  13.870  13.390
  278SOL     OW 2730   7.937   6.130   2.231
  278SOL    HW1 2731   7.992   6.099   2.159
  278SOL    HW2 2732   7.988   6.199   2.272
  279SOL     OW 2733  11.986   4.830   3.648
  279SOL    HW1 2734  12.025   4.879   3.721
  279SOL    HW2 2735  11.936   4.896   3.599
  280SOL     OW 2736  10.434   9.224   4.636
  280SOL    HW1 2737  10.443   9.129   4.640
  280SOL    HW2 2738  10.515   9.254   4.595
  281SOL     OW 2739   3.857   8.634   2.061
  281SOL    HW1 2740   3.846   8.539   2.056
  281SOL    HW2 2741   3.787   8.669   2.006
  282SOL     OW 2742   7.384   4.772  12.339
  282SOL    HW1 2743   7.327   4.719  12.282
  282SOL    HW2 2744   7.386   4.724  12.422
  283SOL     OW 2745  11.664   1.823   3.071
  283SOL    HW1 2746  11.606   1.871   3.130
  283SOL    HW2 2747  11.728   1.888   3.043
  284SOL     OW 2748  12.195   9.017   7.612
  284SOL    HW1 2749  12.194   9.020   7.707
  284SOL    HW2 2750  12.191   9.108   7.584
  285SOL     OW 2751  13.885  14.026   3.522
  285SOL    HW1 2752  13.850  14.077   3.594
  285SOL    HW2 2753  13.831  13.947   3.520
  286SOL     OW 2754   4.738  11.352   1.975
  286SOL    HW1 2755   4.806  11.330   2.039
  286SOL    HW2 2756   4.711  11.441   1.999
  287SOL     OW 2757   5.506   4.201   5.465
  287SOL    HW1 2758   5.516   4.265   5.536
  287SOL    HW2 2759   5.418   4.216   5.431
  288SOL     OW 2760  10.225  10.760  12.600
  288SOL    HW1 2761  10.175  10.727  12.675
  288SOL    HW2 2762  10.242  10.683  12.546
  289SOL     OW 2763   3.856  11.305   0.550
  289SOL    HW1 2764   3.939  11.287   0.595
  289SOL    HW2 2765   3.870  11.389   0.507
  290SOL     OW 2766  14.421  10.092   8.812
  290SOL    HW1 2767  14.443  10.113   8.722
  290SOL    HW2 2768  14.330  10.121   8.822
  291SOL     OW 2769   6.893   0.803   0.137
  291SOL    HW1 2770   6.957   0.830   0.204
  291SOL    HW2 2771   6.881   0.881   0.083
  292SOL     OW 2772  11.899  13.416  11.785
  292SOL    HW1 2773  11.836  13.357  11.744
  292SOL    HW2 2774  11.933  13.368  11.860
  293SOL     OW 2775  10.969  14.286  11.495
  293SOL    HW1 2776  10.877  14.260  11.489
  293SOL    HW2 2777  10.999  14.288  11.404
  294SOL     OW 2778   5.553   4.607   0.655
  294SOL    HW1 2779   5.544   4.518   0.687
  294SOL    HW2 2780   5.624   4.603   0.591
  295SOL     OW 2781   8.332   4.551   6.907
  295SOL    HW1 2782   8.356   4.640   6.881
  295SOL    HW2 2783   8.414   4.502   6.902
  296SOL     OW 2784   3.785   4.711   4.874
  296SOL    HW1 2785   3.815   4.794   4.911
  296SOL    HW2 2786   3.745   4.665   4.947
  297SOL     OW 2787  14.509   6.621  11.935
  297SOL    HW1 2788  14.559   6.573  12.001
  297SOL    HW2 2789  14.512   6.565  11.858
  298SOL     OW 2790  13.280   5.052   6.250
  298SOL    HW1 2791  13.184   5.054   6.250
  298SOL    HW2 2792  13.302   4.960   6.240
  299SOL     OW 2793   2.199   2.232   6.860
  299SOL    HW1 2794   2.170   2.320   6.880
  299SOL    HW2 2795   2.181   2.222   6.766
  300SOL     OW 2796  11.943  14.215   3.797
  300SOL    HW1 2797  11.866  14.269   3.817
  300SOL    HW2 2798  11.924  14.178   3.711
  301SOL     OW 2799   3.083   5.963   4.600
  301SOL    HW1 2800   3.078   5.895   4.668
  301SOL    HW2 2801   3.088   5.914   4.518
  302SOL     OW 2802   3.205   1.542   1.427
  302SOL    HW1 2803   3.250   1.542   1.512
  302SOL    HW2 2804   3.122   1.587   1.444
  303SOL     OW 2805   7.456   7.435  10.404
  303SOL    HW1 2806   7.451   7.518  10.357
  303SOL    HW2 2807   7.390   7.379  10.362
  304SOL     OW 2808  13.800   6.192   6.138
  304SOL    HW1 2809  13.791   6.280   6.174
  304SOL    HW2 2810  13.711   6.166   6.113
  305SOL     OW 2811   4.268   7.809  12.543
  305SOL    HW1 2812   4.336   7.756  12.585
  305SOL    HW2 2813   4.233   7.752  12.474
  306SOL     OW 2814  12.340   1.725  11.415
  306SOL    HW1 2815  12.355   1.791  11.348
  306SOL    HW2 2816  12.254   1.689  11.395
  307SOL     OW 2817  13.090   6.684   2.541
  307SOL    HW1 2818  13.002   6.646   2.545
  307SOL    HW2 2819  13.129   6.663   2.626
  308SOL     OW 2820   1.883   8.637  10.846
  308SOL    HW1 2821   1.904   8.710  10.787
  308SOL    HW2 2822   1.893   8.674  10.933
  309SOL     OW 2823   0.058   2.203   6.459
  309SOL    HW1 2824   0.064   2.294   6.431
  309SOL    HW2 2825  14.851   2.188   6.470
  310SOL     OW 2826  13.494   1.516   7.867
  310SOL    HW1 2827  13.569   1.489   7.920
  310SOL    HW2 2828  13.454   1.434   7.838
  311SOL     OW 2829   1.389   1.101   8.386
  311SOL    HW1 2830   1.316   1.132   8.334
  311SOL    HW2 2831   1.464   1.102   8.326
  312SOL     OW 2832  13.105   3.034  13.855
  312SOL    HW1 2833  13.112   3.100  13.925
  312SOL    HW2 2834  13.112   3.085  13.774
  313SOL     OW 2835   3.468   0.121  11.676
  313SOL    HW1 2836   3.392   0.069  11.649
  313SOL    HW2 2837   3.538   0.057  11.690
  314SOL     OW 2838   9.659   9.642   6.796
  314SOL    HW1 2839   9.574   9.672   6.763
  314SOL    HW2 2840   9.702   9.602   6.721
  315SOL     OW 2841   6.991   5.102  13.295
  315SOL    HW1 2842   7.006   5.186  13.339
  315SOL    HW2 2843   7.078   5.075  13.265
  316SOL     OW 2844   1.933   5.433  10.132
  316SOL    HW1 2845   1.857   5.451  10.189
  316SOL    HW2 2846   1.938   5.337  10.129
  317SOL     OW 2847   4.532   4.420   2.647
  317SOL    HW1 2848   4.591   4.349   2.621
  317SOL    HW2 2849   4.532   4.417   2.743
  318SOL     OW 2850   8.598   3.188   7.476
  318SOL    HW1 2851   8.580   3.094   7.483
  318SOL    HW2 2852   8.558   3.226   7.553
  319SOL     OW 2853   9.433   5.811   3.083
  319SOL    HW1 2854   9.338   5.815   3.089
  319SOL    HW2 2855   9.450   5.755   3.006
  320SOL     OW 2856  14.713   1.993   8.303
  320SOL    HW1 2857  14.654   2.068   8.305
  320SOL    HW2 2858  14.743   1.984   8.394
  321SOL     OW 2859  14.475   7.156  11.105
  321SOL    HW1 2860  14.559   7.190  11.072
  321SOL    HW2 2861  14.496   7.070  11.141
  322SOL     OW 2862   3.086   3.469   5.887
  322SOL    HW1 2863   3.142   3.392   5.885
  322SOL    HW2 2864   3.075   3.494   5.795
  323SOL     OW 2865  13.202   4.537  10.131
  323SOL    HW1 2866  13.149   4.475  10.080
  323SOL    HW2 2867  13.184   4.514  10.223
  324SOL     OW 2868  10.384  12.766   2.779
  324SOL    HW1 2869  10.373  12.827   2.851
  324SOL    HW2 2870  10.318  12.698   2.794
  325SOL     OW 2871  11.456   2.129   2.427
  325SOL    HW1 2872  11.380   2.157   2.478
  325SOL    HW2 2873  11.494   2.210   2.393
  326SOL     OW 2874   1.226   6.461  10.439
  326SOL    HW1 2875   1.273   6.394  10.487
  326SOL    HW2 2876   1.134   6.436  10.445
  327SOL     OW 2877   9.109  13.489   8.126
  327SOL    HW1 2878   9.195  13.474   8.165
  327SOL    HW2 2879   9.127  13.532   8.042
  328SOL     OW 2880  11.616  12.900   3.603
  328SOL    HW1 2881  11.673  12.824   3.618
  328SOL    HW2 2882  11.650  12.967   3.661
  329SOL     OW 2883   2.629  13.468   7.827
  329SOL    HW1 2884   2.590  13.509   7.751
  329SOL    HW2 2885   2.692  13.531   7.860
  330SOL     OW 2886   1.083   1.793   4.187
  330SOL    HW1 2887   1.108   1.836   4.268
  330SOL    HW2 2888   0.989   1.777   4.196
  331SOL     OW 2889  10.621  10.427  10.815
  331SOL    HW1 2890  10.669  10.403  10.895
  331SOL    HW2 2891  10.530  10.436  10.844
  332SOL     OW 2892   1.952  13.117  13.345
  332SOL    HW1 2893   2.001  13.089  13.268
  332SOL    HW2 2894   1.915  13.036  13.380
  333SOL     OW 2895   6.828   0.471   0.477
  333SOL    HW1 2896   6.876   0.428   0.548
  333SOL    HW2 2897   6.744   0.495   0.516
  334SOL     OW 2898   3.904  10.400  13.770
  334SOL    HW1 2899   3.994  10.370  13.780
  334SOL    HW2 2900   3.905  10.489  13.806
  335SOL     OW 2901   3.480   3.077   7.895
  335SOL    HW1 2902   3.514   2.993   7.863
  335SOL    HW2 2903   3.553   3.138   7.884
  336SOL     OW 2904   3.681   1.686   0.295
  336SOL    HW1 2905   3.658   1.594   0.309
  336SOL    HW2 2906   3.601   1.734   0.315
  337SOL     OW 2907   3.555   2.426   9.956
  337SOL    HW1 2908   3.613   2.350   9.955
  337SOL    HW2 2909   3.594   2.486  10.019
  338SOL     OW 2910   4.088  12.671  14.491
  338SOL    HW1 2911   4.168  12.662  14.541
  338SOL    HW2 2912   4.026  12.611  14.533
  339SOL     OW 2913   9.814   1.489   0.164
  339SOL    HW1 2914   9.864   1.524   0.237
  339SOL    HW2 2915   9.835   1.396   0.162
  340SOL     OW 2916   6.849   0.279   4.576
  340SOL    HW1 2917   6.852   0.188   4.607
  340SOL    HW2 2918   6.758   0.306   4.592
  341SOL     OW 2919  10.445   2.066   7.559
  341SOL    HW1 2920  10.508   2.045   7.627
  341SOL    HW2 2921  10.410   1.981   7.532
  342SOL     OW 2922   0.705  11.198   8.040
  342SOL    HW1 2923   0.747  11.146   8.108
  342SOL    HW2 2924   0.712  11.144   7.961
  343SOL     OW 2925  12.247  12.273   1.159
  343SOL    HW1 2926  12.338  12.251   1.140
  343SOL    HW2 2927  12.233  12.356   1.113
  344SOL     OW 2928   8.620   3.598  13.360
  344SOL    HW1 2929   8.608   3.668  13.425
  344SOL    HW2 2930   8.695   3.627  13.308
  345SOL     OW 2931  10.840   5.472  10.231
  345SOL    HW1 2932  10.897   5.456  10.306
  345SOL    HW2 2933  10.792   5.391  10.219
  346SOL     OW 2934  13.436   9.600  12.717
  346SOL    HW1 2935  13.445   9.632  12.807
  346SOL    HW2 2936  13.364   9.652  12.680
  347SOL     OW 2937  13.961  10.467   2.764
  347SOL    HW1 2938  13.989  10.492   2.852
  347SOL    HW2 2939  14.023  10.512   2.705
  348SOL     OW 2940   1.235   1.072   6.386
  348SOL    HW1 2941   1.295   1.000   6.368
  348SOL    HW2 2942   1.182   1.041   6.460
  349SOL     OW 2943  10.857   6.148  10.029
  349SOL    HW1 2944  10.784   6.195   9.988
  349SOL    HW2 2945  10.894   6.096   9.957
  350SOL     OW 2946   0.405  13.688  11.027
  350SOL    HW1 2947   0.460  13.721  10.956
  350SOL    HW2 2948   0.335  13.640  10.983
  351SOL     OW 2949   2.360   8.131   8.377
  351SOL    HW1 2950   2.401   8.047   8.398
  351SOL    HW2 2951   2.338   8.168   8.463
  352SOL     OW 2952   0.044   0.789   2.744
  352SOL    HW1 2953  14.844   0.763   2.772
  352SOL    HW2 2954   0.103   0.732   2.794
  353SOL     OW 2955  12.701   7.929   2.944
  353SOL    HW1 2956  12.606   7.916   2.950
  353SOL    HW2 2957  12.737   7.841   2.938
  354SOL     OW 2958  12.839   6.667   1.465
  354SOL    HW1 2959  12.853   6.760   1.452
  354SOL    HW2 2960  12.918   6.636   1.509
  355SOL     OW 2961   3.451   8.032   7.737
  355SOL    HW1 2962   3.444   7.948   7.693
  355SOL    HW2 2963   3.545   8.043   7.752
  356SOL     OW 2964   4.598   1.436   5.217
  356SOL    HW1 2965   4.536   1.466   5.284
  356SOL    HW2 2966   4.544   1.392   5.152
  357SOL     OW 2967   5.886  10.497  10.277
  357SOL    HW1 2968   5.924  10.410  10.283
  357SOL    HW2 2969   5.929  10.547  10.347
  358SOL     OW 2970  12.016  10.527  10.243
  358SOL    HW1 2971  12.027  10.467  10.169
  358SOL    HW2 2972  11.921  10.535  10.252
  359SOL     OW 2973   8.629   1.294  11.346
  359SOL    HW1 2974   8.647   1.220  11.287
  359SOL    HW2 2975   8.641   1.258  11.434
  360SOL     OW 2976   4.747  11.777  12.267
  360SOL    HW1 2977   4.680  11.711  12.253
  360SOL    HW2 2978   4.744  11.795  12.361
  361SOL     OW 2979  10.216   6.361   8.750
  361SOL    HW1 2980  10.273   6.294   8.787
  361SOL    HW2 2981  10.266   6.442   8.756
  362SOL     OW 2982  12.162   2.497  13.894
  362SOL    HW1 2983  12.132   2.420  13.845
  362SOL    HW2 2984  12.195   2.557  13.827
  363SOL     OW 2985  12.999   9.902   2.324
  363SOL    HW1 2986  12.993   9.819   2.278
  363SOL    HW2 2987  12.913   9.914   2.364
  364SOL     OW 2988   7.198   9.234   4.498
  364SOL    HW1 2989   7.113   9.270   4.474
  364SOL    HW2 2990   7.224   9.282   4.577
  365SOL     OW 2991  12.194   4.097   3.485
  365SOL    HW1 2992  12.247   4.175   3.468
  365SOL    HW2 2993  12.155   4.113   3.572
  366SOL     OW 2994   3.898   2.152   9.835
  366SOL    HW1 2995   3.840   2.185   9.902
  366SOL    HW2 2996   3.944   2.229   9.802
  367SOL     OW 2997   5.986   5.634   1.940
  367SOL    HW1 2998   5.904   5.645   1.892
  367SOL    HW2 2999   5.968   5.668   2.027
  368SOL     OW 3000   9.737   5.772   5.433
  368SOL    HW1 3001   9.764   5.761   5.524
  368SOL    HW2 3002   9.664   5.833   5.436
  369SOL     OW 3003  13.949  14.370  14.139
  369SOL    HW1 3004  13.929  14.389  14.047
  369SOL    HW2 3005  13.978  14.278  14.138
  370SOL     OW 3006   6.752  10.026  12.662
  370SOL    HW1 3007   6.834   9.982  12.685
  370SOL    HW2 3008   6.697   9.957  12.627
  371SOL     OW 3009  12.758  11.658   5.174
  371SOL    HW1 3010  12.760  11.585   5.236
  371SOL    HW2 3011  12.716  11.623   5.096
  372SOL     OW 3012  12.531   7.178   8.782
  372SOL    HW1 3013  12.438   7.158   8.791
  372SOL    HW2 3014  12.566   7.169   8.871
  373SOL     OW 3015   2.701   0.865  13.605
  373SOL    HW1 3016   2.615   0.831  13.580
  373SOL    HW2 3017   2.728   0.919  13.531
  374SOL     OW 3018  13.923  12.162  13.231
  374SOL    HW1 3019  13.827  12.162  13.223
  374SOL    HW2 3020  13.947  12.069  13.231
  375SOL     OW 3021   4.164  13.205   8.210
  375SOL    HW1 3022   4.220  13.135   8.242
  375SOL    HW2 3023   4.106  13.164   8.146
  376SOL     OW 3024   8.264   9.682   6.093
  376SOL    HW1 3025   8.242   9.748   6.159
  376SOL    HW2 3026   8.338   9.719   6.045
  377SOL     OW 3027   6.857   8.428  14.686
  377SOL    HW1 3028   6.842   8.340  14.651
  377SOL    HW2 3029   6.791   8.439  14.755
  378SOL     OW 3030   8.260   0.311  13.204
  378SOL    HW1 3031   8.313   0.299  13.283
  378SOL    HW2 3032   8.178   0.263  13.223
  379SOL     OW 3033   4.980   5.490   5.511
  379SOL    HW1 3034   5.021   5.406   5.492
  379SOL    HW2 3035   5.043   5.536   5.566
  380SOL     OW 3036   8.426   1.523   3.314
  380SOL    HW1 3037   8.365   1.461   3.276
  380SOL    HW2 3038   8.413   1.604   3.265
  381SOL     OW 3039   3.049   5.069  14.112
  381SOL    HW1 3040   3.026   5.105  14.026
  381SOL    HW2 3041   2.998   4.988  14.119
  382SOL     OW 3042  13.920   1.686  11.227
  382SOL    HW1 3043  13.995   1.743  11.246
  382SOL    HW2 3044  13.939   1.651  11.140
  383SOL     OW 3045  12.058   0.629   6.954
  383SOL    HW1 3046  12.086   0.706   6.904
  383SOL    HW2 3047  12.133   0.609   7.011
  384SOL     OW 3048   9.863   1.888  13.468
  384SOL    HW1 3049   9.900   1.878  13.556
  384SOL    HW2 3050   9.861   1.983  13.453
  385SOL     OW 3051  11.090  11.117   2.757
  385SOL    HW1 3052  11.016  11.057   2.767
  385SOL    HW2 3053  11.144  11.077   2.689
  386SOL     OW 3054   0.436  13.781   9.752
  386SOL    HW1 3055   0.495  13.711   9.721
  386SOL    HW2 3056   0.439  13.774   9.847
  387SOL     OW 3057  14.463   2.262   1.679
  387SOL    HW1 3058  14.548   2.281   1.720
  387SOL    HW2 3059  14.448   2.336   1.620
  388SOL     OW 3060  10.912   3.333   2.612
  388SOL    HW1 3061  10.847   3.403   2.615
  388SOL    HW2 3062  10.873   3.261   2.662
  389SOL     OW 3063   6.835   1.631   6.577
  389SOL    HW1 3064   6.824   1.542   6.543
  389SOL    HW2 3065   6.761   1.679   6.542
  390SOL     OW 3066  12.011  10.582   2.200
  390SOL    HW1 3067  12.092  10.536   2.179
  390SOL    HW2 3068  12.008  10.584   2.296
  391SOL     OW 3069   5.762   0.849   2.124
  391SOL    HW1 3070   5.709   0.772   2.106
  391SOL    HW2 3071   5.827   0.820   2.188
  392SOL     OW 3072   5.932   6.563   2.922
  392SOL    HW1 3073   5.962   6.491   2.868
  392SOL    HW2 3074   5.902   6.629   2.860
  393SOL     OW 3075   1.605   5.789   3.739
  393SOL    HW1 3076   1.651   5.712   3.707
  393SOL    HW2 3077   1.673   5.857   3.746
  394SOL     OW 3078   1.472  13.854   2.636
  394SOL    HW1 3079   1.547  13.802   2.607
  394SOL    HW2 3080   1.416  13.792   2.683
  395SOL     OW 3081   3.449  11.639   8.701
  395SOL    HW1 3082   3.539  11.631   8.670
  395SOL    HW2 3083   3.412  11.709   8.648
  396SOL     OW 3084   8.060   3.217  10.351
  396SOL    HW1 3085   7.991   3.160  10.319
  396SOL    HW2 3086   8.107   3.164  10.415
  397SOL     OW 3087   1.944   4.831   1.547
  397SOL    HW1 3088   1.869   4.825   1.606
  397SOL    HW2 3089   1.906   4.845   1.460
  398SOL     OW 3090  10.911   1.204  11.499
  398SOL    HW1 3091  10.893   1.168  11.586
  398SOL    HW2 3092  10.871   1.142  11.438
  399SOL     OW 3093  13.439   7.668  13.529
  399SOL    HW1 3094  13.520   7.718  13.530
  399SOL    HW2 3095  13.436   7.624  13.615
  400SOL     OW 3096   9.427   4.866  11.237
  400SOL    HW1 3097   9.430   4.956  11.270
  400SOL    HW2 3098   9.430   4.875  11.142
  401SOL     OW 3099   7.668  11.159   5.082
  401SOL    HW1 3100   7.636  11.140   4.994
  401SOL    HW2 3101   7.711  11.078   5.110
  402SOL     OW 3102   0.176   8.598   0.148
  402SOL    HW1 3103   0.133   8.654   0.084
  402SOL    HW2 3104   0.105   8.565   0.203
  403SOL     OW 3105  12.267   6.549  12.369
  403SOL    HW1 3106  12.174   6.567  12.361
  403SOL    HW2 3107  12.292   6.590  12.452
  404SOL     OW 3108   7.691   9.780   8.937
  404SOL    HW1 3109   7.743   9.798   8.859
  404SOL    HW2 3110   7.745   9.809   9.010
  405SOL     OW 3111  12.970  10.346   7.748
  405SOL    HW1 3112  13.059  10.367   7.774
  405SOL    HW2 3113  12.919  10.353   7.829
  406SOL     OW 3114   4.087   9.175  12.110
  406SOL    HW1 3115   4.133   9.091  12.113
  406SOL    HW2 3116   4.135   9.231  12.172
  407SOL     OW 3117   4.930  11.479   5.482
  407SOL    HW1 3118   4.933  11.527   5.400
  407SOL    HW2 3119   5.020  11.477   5.514
  408SOL     OW 3120  14.408   9.597  10.451
  408SOL    HW1 3121  14.410   9.687  10.483
  408SOL    HW2 3122  14.374   9.605  10.361
  409SOL     OW 3123  14.369   5.540   1.015
  409SOL    HW1 3124  14.291   5.576   1.057
  409SOL    HW2 3125  14.402   5.474   1.076
  410SOL     OW 3126  11.626   8.769  11.705
  410SOL    HW1 3127  11.615   8.864  11.705
  410SOL    HW2 3128  11.621   8.744  11.613
  411SOL     OW 3129  12.912   7.652   2.224
  411SOL    HW1 3130  12.997   7.616   2.201
  411SOL    HW2 3131  12.881   7.597   2.296
  412SOL     OW 3132   5.745   1.331  14.549
  412SOL    HW1 3133   5.656   1.364  14.562
  412SOL    HW2 3134   5.789   1.347  14.632
  413SOL     OW 3135  14.855   5.765   7.556
  413SOL    HW1 3136  14.770   5.725   7.572
  413SOL    HW2 3137  14.873   5.748   7.464
  414SOL     OW 3138   7.353   2.433   4.167
  414SOL    HW1 3139   7.285   2.399   4.226
  414SOL    HW2 3140   7.387   2.355   4.123
  415SOL     OW 3141   9.587   5.875   9.888
  415SOL    HW1 3142   9.512   5.918   9.848
  415SOL    HW2 3143   9.663   5.913   9.844
  416SOL     OW 3144   0.558   8.189   3.879
  416SOL    HW1 3145   0.565   8.094   3.891
  416SOL    HW2 3146   0.558   8.224   3.968
  417SOL     OW 3147   9.200   7.220   1.317
  417SOL    HW1 3148   9.169   7.187   1.233
  417SOL    HW2 3149   9.249   7.300   1.296
  418SOL     OW 3150  13.019   9.544  10.057
  418SOL    HW1 3151  13.027   9.478   9.988
  418SOL    HW2 3152  13.019   9.493  10.138
  419SOL     OW 3153   5.398  13.276   9.089
  419SOL    HW1 3154   5.408  13.305   8.998
  419SOL    HW2 3155   5.479  13.228   9.107
  420SOL     OW 3156   7.781   5.797  14.317
  420SOL    HW1 3157   7.712   5.828  14.376
  420SOL    HW2 3158   7.863   5.823  14.359
  421SOL     OW 3159   5.638  13.085   0.546
  421SOL    HW1 3160   5.547  13.055   0.548
  421SOL    HW2 3161   5.680  13.028   0.482
  422SOL     OW 3162  14.127   3.422  13.345
  422SOL    HW1 3163  14.144   3.505  13.390
  422SOL    HW2 3164  14.122   3.357  13.415
  423SOL     OW 3165   5.387   1.995   6.825
  423SOL    HW1 3166   5.304   1.999   6.777
  423SOL    HW2 3167   5.441   2.062   6.784
  424SOL     OW 3168   9.070   2.262   6.354
  424SOL    HW1 3169   9.133   2.212   6.303
  424SOL    HW2 3170   9.006   2.292   6.290
  425SOL     OW 3171   2.980   8.023   5.416
  425SOL    HW1 3172   2.972   7.949   5.475
  425SOL    HW2 3173   3.071   8.021   5.387
  426SOL     OW 3174   9.166   9.207   8.566
  426SOL    HW1 3175   9.187   9.182   8.476
  426SOL    HW2 3176   9.071   9.214   8.567
  427SOL     OW 3177   9.730   7.761   2.396
  427SOL    HW1 3178   9.715   7.843   2.350
  427SOL    HW2 3179   9.807   7.777   2.450
  428SOL     OW 3180  13.621  10.358   2.428
  428SOL    HW1 3181  13.636  10.383   2.337
  428SOL    HW2 3182  13.527  10.370   2.441
  429SOL     OW 3183   8.477  13.827  10.535
  429SOL    HW1 3184   8.552  13.852  10.482
  429SOL    HW2 3185   8.511  13.821  10.624
  430SOL     OW 3186   5.672   9.182   0.737
  430SOL    HW1 3187   5.660   9.194   0.643
  430SOL    HW2 3188   5.700   9.091   0.747
  431SOL     OW 3189   4.240   4.609  12.243
  431SOL    HW1 3190   4.194   4.539  12.197
  431SOL    HW2 3191   4.326   4.615  12.201
  432SOL     OW 3192   5.179   0.131  14.547
  432SOL    HW1 3193   5.174   0.079  14.466
  432SOL    HW2 3194   5.088   0.142  14.575
  433SOL     OW 3195  11.041   6.624   1.347
  433SOL    HW1 3196  11.077   6.711   1.329
  433SOL    HW2 3197  10.953   6.626   1.310
  434SOL     OW 3198  12.676  13.678   9.080
  434SOL    HW1 3199  12.614  13.627   9.133
  434SOL    HW2 3200  12.730  13.724   9.145
  435SOL     OW 3201   6.475  12.047   8.149
  435SOL    HW1 3202   6.438  12.120   8.100
  435SOL    HW2 3203   6.410  12.029   8.217
  436SOL     OW 3204   0.121   2.266   5.320
  436SOL    HW1 3205   0.102   2.194   5.260
  436SOL    HW2 3206   0.107   2.345   5.268
  437SOL     OW 3207   5.379   1.487  12.781
  437SOL    HW1 3208   5.293   1.459  12.813
  437SOL    HW2 3209   5.400   1.425  12.711
  438SOL     OW 3210   2.940  12.483   1.411
  438SOL    HW1 3211   2.982  12.536   1.343
  438SOL    HW2 3212   2.948  12.536   1.491
  439SOL     OW 3213   5.136   9.863   9.844
  439SOL    HW1 3214   5.102   9.952   9.842
  439SOL    HW2 3215   5.070   9.813   9.892
  440SOL     OW 3216  14.112   8.588   9.583
  440SOL    HW1 3217  14.106   8.662   9.523
  440SOL    HW2 3218  14.085   8.624   9.668
  441SOL     OW 3219  12.316   6.908   6.749
  441SOL    HW1 3220  12.318   6.900   6.844
  441SOL    HW2 3221  12.225   6.891   6.725
  442SOL     OW 3222  11.909  11.600  14.218
  442SOL    HW1 3223  11.835  11.641  14.174
  442SOL    HW2 3224  11.948  11.671  14.270
  443SOL     OW 3225   4.769   1.055   2.256
  443SOL    HW1 3226   4.706   0.983   2.264
  443SOL    HW2 3227   4.722   1.131   2.291
  444SOL     OW 3228   9.045   9.683   1.492
  444SOL    HW1 3229   8.954   9.678   1.463
  444SOL    HW2 3230   9.089   9.613   1.444
  445SOL     OW 3231  11.807   3.940   1.194
  445SOL    HW1 3232  11.723   3.977   1.221
  445SOL    HW2 3233  11.787   3.851   1.167
  446SOL     OW 3234   1.275   9.337   9.699
  446SOL    HW1 3235   1.255   9.424   9.733
  446SOL    HW2 3236   1.352   9.309   9.750
  447SOL     OW 3237  13.371   4.340   8.391
  447SOL    HW1 3238  13.295   4.383   8.352
  447SOL    HW2 3239  13.424   4.412   8.426
  448SOL     OW 3240   3.952  14.050   7.659
  448SOL    HW1 3241   3.945  14.088   7.572
  448SOL    HW2 3242   3.956  14.125   7.718
  449SOL     OW 3243   9.281   4.837   9.569
  449SOL    HW1 3244   9.362   4.846   9.518
  449SOL    HW2 3245   9.307   4.853   9.659
  450SOL     OW 3246  13.463   4.697  12.315
  450SOL    HW1 3247  13.456   4.793  12.318
  450SOL    HW2 3248  13.542   4.677  12.365
  451SOL     OW 3249   9.636   6.787   9.887
  451SOL    HW1 3250   9.569   6.814   9.950
  451SOL    HW2 3251   9.612   6.832   9.806
  452SOL     OW 3252   1.534   5.508   7.808
  452SOL    HW1 3253   1.451   5.545   7.837
  452SOL    HW2 3254   1.572   5.470   7.887
  453SOL     OW 3255   3.586   7.757   3.702
  453SOL    HW1 3256   3.642   7.748   3.625
  453SOL    HW2 3257   3.639   7.807   3.765
  454SOL     OW 3258  10.658   5.148   2.389
  454SOL    HW1 3259  10.605   5.076   2.424
  454SOL    HW2 3260  10.737   5.105   2.355
  455SOL     OW 3261   3.192   2.987   8.977
  455SOL    HW1 3262   3.099   3.009   8.973
  455SOL    HW2 3263   3.228   3.046   9.043
  456SOL     OW 3264   6.446  12.571   7.119
  456SOL    HW1 3265   6.462  12.480   7.098
  456SOL    HW2 3266   6.519  12.597   7.175
  457SOL     OW 3267   9.888   9.047   4.317
  457SOL    HW1 3268   9.809   9.097   4.296
  457SOL    HW2 3269   9.951   9.073   4.249
  458SOL     OW 3270   9.603  11.652   5.860
  458SOL    HW1 3271   9.675  11.712   5.843
  458SOL    HW2 3272   9.525  11.707   5.860
  459SOL     OW 3273  13.473   1.078  11.452
  459SOL    HW1 3274  13.489   1.172  11.457
  459SOL    HW2 3275  13.384   1.067  11.485
  460SOL     OW 3276   3.627   3.104  13.466
  460SOL    HW1 3277   3.669   3.176  13.419
  460SOL    HW2 3278   3.686   3.029  13.453
  461SOL     OW 3279   0.908  13.165   2.963
  461SOL    HW1 3280   0.852  13.197   3.033
  461SOL    HW2 3281   0.957  13.242   2.934
  462SOL     OW 3282   2.930   4.409   0.681
  462SOL    HW1 3283   2.937   4.425   0.775
  462SOL    HW2 3284   2.926   4.497   0.642
  463SOL     OW 3285   2.413   9.628   3.452
  463SOL    HW1 3286   2.415   9.587   3.539
  463SOL    HW2 3287   2.334   9.682   3.453
  464SOL     OW 3288   7.926   7.350  12.672
  464SOL    HW1 3289   7.960   7.299  12.746
  464SOL    HW2 3290   7.832   7.331  12.672
  465SOL     OW 3291   2.556   3.507   3.651
  465SOL    HW1 3292   2.561   3.454   3.730
  465SOL    HW2 3293   2.553   3.444   3.580
  466SOL     OW 3294   9.377  12.997  11.406
  466SOL    HW1 3295   9.345  13.064  11.466
  466SOL    HW2 3296   9.309  12.929  11.408
  467SOL     OW 3297  10.237   8.125   0.119
  467SOL    HW1 3298  10.178   8.058   0.153
  467SOL    HW2 3299  10.277   8.085   0.042
  468SOL     OW 3300  14.108  13.441   7.991
  468SOL    HW1 3301  14.051  13.442   8.068
  468SOL    HW2 3302  14.193  13.413   8.024
  469SOL     OW 3303   8.427   5.819  10.377
  469SOL    HW1 3304   8.389   5.841  10.462
  469SOL    HW2 3305   8.501   5.762  10.398
  470SOL     OW 3306  12.015   5.313   2.168
  470SOL    HW1 3307  11.957   5.287   2.240
  470SOL    HW2 3308  12.011   5.240   2.106
  471SOL     OW 3309  10.034   5.139   8.347
  471SOL    HW1 3310  10.078   5.191   8.280
  471SOL    HW2 3311   9.946   5.176   8.352
  472SOL     OW 3312   0.081   5.984   4.546
  472SOL    HW1 3313   0.077   6.036   4.466
  472SOL    HW2 3314   0.001   6.007   4.593
  473SOL     OW 3315  11.069   0.579   4.393
  473SOL    HW1 3316  11.013   0.652   4.420
  473SOL    HW2 3317  11.020   0.537   4.322
  474SOL     OW 3318   6.432   9.149   4.935
  474SOL    HW1 3319   6.380   9.230   4.939
  474SOL    HW2 3320   6.516   9.172   4.975
  475SOL     OW 3321   0.163   4.519   2.478
  475SOL    HW1 3322   0.249   4.558   2.463
  475SOL    HW2 3323   0.107   4.560   2.412
  476SOL     OW 3324   8.437   9.979  13.764
  476SOL    HW1 3325   8.493  10.044  13.806
  476SOL    HW2 3326   8.355   9.982  13.814
  477SOL     OW 3327  12.159   1.267  11.150
  477SOL    HW1 3328  12.065   1.265  11.129
  477SOL    HW2 3329  12.182   1.360  11.147
  478SOL     OW 3330  11.331  11.119   4.037
  478SOL    HW1 3331  11.381  11.037   4.037
  478SOL    HW2 3332  11.296  11.125   4.126
  479SOL     OW 3333  11.911   0.273  10.330
  479SOL    HW1 3334  11.927   0.362  10.299
  479SOL    HW2 3335  11.909   0.220  10.251
  480SOL     OW 3336   0.321  11.668  13.359
  480SOL    HW1 3337   0.261  11.693  13.429
  480SOL    HW2 3338   0.280  11.702  13.279
  481SOL     OW 3339   3.831   7.958   3.399
  481SOL    HW1 3340   3.760   7.933   3.341
  481SOL    HW2 3341   3.906   7.972   3.342
  482SOL     OW 3342   3.742   1.959   1.927
  482SOL    HW1 3343   3.819   1.925   1.973
  482SOL    HW2 3344   3.743   2.053   1.946
  483SOL     OW 3345   7.283   0.101   7.902
  483SOL    HW1 3346   7.373   0.135   7.898
  483SOL    HW2 3347   7.236   0.165   7.954
  484SOL     OW 3348   2.893   1.203   3.475
  484SOL    HW1 3349   2.799   1.210   3.493
  484SOL    HW2 3350   2.898   1.148   3.397
  485SOL     OW 3351   9.188  14.883  13.417
  485SOL    HW1 3352   9.186  14.805  13.362
  485SOL    HW2 3353   9.102  14.884  13.460
  486SOL     OW 3354   3.894  13.040   0.642
  486SOL    HW1 3355   3.877  13.134   0.634
  486SOL    HW2 3356   3.810  13.003   0.668
  487SOL     OW 3357   3.724   3.889   6.108
  487SOL    HW1 3358   3.758   3.973   6.077
  487SOL    HW2 3359   3.729   3.832   6.031
  488SOL     OW 3360   9.841  12.734   6.162
  488SOL    HW1 3361   9.906  12.726   6.092
  488SOL    HW2 3362   9.765  12.772   6.118
  489SOL     OW 3363  10.860   0.957   6.355
  489SOL    HW1 3364  10.934   0.923   6.304
  489SOL    HW2 3365  10.783   0.922   6.310
  490SOL     OW 3366   1.065  13.016   7.171
  490SOL    HW1 3367   1.033  13.091   7.122
  490SOL    HW2 3368   1.023  12.940   7.130
  491SOL     OW 3369   2.549   8.019   8.767
  491SOL    HW1 3370   2.594   7.992   8.687
  491SOL    HW2 3371   2.571   8.111   8.777
  492SOL     OW 3372   2.602   7.582   5.091
  492SOL    HW1 3373   2.590   7.517   5.159
  492SOL    HW2 3374   2.696   7.599   5.088
  493SOL     OW 3375  12.352  10.403   7.019
  493SOL    HW1 3376  12.425  10.427   6.963
  493SOL    HW2 3377  12.276  10.448   6.982
  494SOL     OW 3378   5.117   9.008   6.626
  494SOL    HW1 3379   5.193   8.951   6.627
  494SOL    HW2 3380   5.077   8.993   6.540
  495SOL     OW 3381  14.709   0.176  14.864
  495SOL    HW1 3382  14.651   0.251  14.875
  495SOL    HW2 3383  14.653   0.100  14.881
  496SOL     OW 3384  11.938   5.564   5.291
  496SOL    HW1 3385  11.920   5.555   5.197
  496SOL    HW2 3386  12.030   5.587   5.296
  497SOL     OW 3387  12.016   0.566  11.166
  497SOL    HW1 3388  11.995   0.495  11.106
  497SOL    HW2 3389  12.109   0.583  11.152
  498SOL     OW 3390   4.074   6.399   5.203
  498SOL    HW1 3391   4.079   6.482   5.155
  498SOL    HW2 3392   4.090   6.423   5.294
  499SOL     OW 3393   5.041   9.199  13.398
  499SOL    HW1 3394   5.081   9.139  13.335
  499SOL    HW2 3395   4.955   9.161  13.416
  500SOL     OW 3396   7.061  14.478  11.116
  500SOL    HW1 3397   7.151  14.454  11.135
  500SOL    HW2 3398   7.043  14.436  11.032
  501SOL     OW 3399   7.451  12.212   0.242
  501SOL    HW1 3400   7.487  12.130   0.275
  501SOL    HW2 3401   7.482  12.278   0.303
  502SOL     OW 3402   9.769  14.401   2.523
  502SOL    HW1 3403   9.751  14.483   2.477
  502SOL    HW2 3404   9.862  14.385   2.506
  503SOL     OW 3405  10.838   0.231  10.708
  503SOL    HW1 3406  10.895   0.185  10.769
  503SOL    HW2 3407  10.750   0.221  10.745
  504SOL     OW 3408   3.519   4.704   2.838
  504SOL    HW1 3409   3.610   4.684   2.860
  504SOL    HW2 3410   3.473   4.706   2.922
  505SOL     OW 3411  10.212  11.657   7.759
  505SOL    HW1 3412  10.269  11.686   7.830
  505SOL    HW2 3413  10.207  11.562   7.769
  506SOL     OW 3414  13.672   5.551  11.578
  506SOL    HW1 3415  13.584   5.555  11.540
  506SOL    HW2 3416  13.726   5.512  11.510
  507SOL     OW 3417   5.310   1.188   1.334
  507SOL    HW1 3418   5.261   1.269   1.349
  507SOL    HW2 3419   5.373   1.211   1.266
  508SOL     OW 3420  14.575   8.412   9.405
  508SOL    HW1 3421  14.502   8.461   9.368
  508SOL    HW2 3422  14.562   8.417   9.500
  509SOL     OW 3423   8.518   8.410   9.168
  509SOL    HW1 3424   8.585   8.359   9.213
  509SOL    HW2 3425   8.566   8.462   9.104
  510SOL     OW 3426   6.413   9.867   0.797
  510SOL    HW1 3427   6.392   9.800   0.862
  510SOL    HW2 3428   6.432   9.818   0.718
  511SOL     OW 3429   7.631   4.613   7.167
  511SOL    HW1 3430   7.598   4.553   7.101
  511SOL    HW2 3431   7.691   4.561   7.220
  512SOL     OW 3432  12.667   9.297   9.044
  512SOL    HW1 3433  12.758   9.268   9.035
  512SOL    HW2 3434  12.621   9.255   8.972
  513SOL     OW 3435   5.139   6.808   5.991
  513SOL    HW1 3436   5.202   6.830   5.923
  513SOL    HW2 3437   5.080   6.883   5.994
  514SOL     OW 3438  11.756   4.827   6.942
  514SOL    HW1 3439  11.700   4.863   6.873
  514SOL    HW2 3440  11.823   4.894   6.956
  515SOL     OW 3441  14.077   8.560  14.328
  515SOL    HW1 3442  14.091   8.631  14.391
  515SOL    HW2 3443  14.138   8.579  14.257
  516SOL     OW 3444   3.805   9.134   4.352
  516SOL    HW1 3445   3.881   9.154   4.297
  516SOL    HW2 3446   3.824   9.179   4.435
  517SOL     OW 3447   0.205  10.498   9.384
  517SOL    HW1 3448   0.148  10.575   9.385
  517SOL    HW2 3449   0.276  10.520   9.444
  518SOL     OW 3450   3.398   0.057  10.422
  518SOL    HW1 3451   3.443   0.103  10.493
  518SOL    HW2 3452   3.419  14.852  10.437
  519SOL     OW 3453   5.342   4.088  14.448
  519SOL    HW1 3454   5.262   4.036  14.443
  519SOL    HW2 3455   5.317   4.164  14.501
  520SOL     OW 3456   9.535   4.028   9.414
  520SOL    HW1 3457   9.630   4.035   9.414
  520SOL    HW2 3458   9.512   4.002   9.325
  521SOL     OW 3459   4.029   5.323   0.449
  521SOL    HW1 3460   3.994   5.242   0.487
  521SOL    HW2 3461   4.118   5.299   0.422
  522SOL     OW 3462  11.580  11.250   4.610
  522SOL    HW1 3463  11.589  11.155   4.618
  522SOL    HW2 3464  11.488  11.267   4.630
  523SOL     OW 3465   9.959  14.656  10.295
  523SOL    HW1 3466   9.961  14.561  10.284
  523SOL    HW2 3467  10.050  14.683  10.283
  524SOL     OW 3468  11.623   1.054   0.119
  524SOL    HW1 3469  11.661   1.142   0.108
  524SOL    HW2 3470  11.562   1.046   0.046
  525SOL     OW 3471   8.215   0.612  10.067
  525SOL    HW1 3472   8.124   0.585  10.077
  525SOL    HW2 3473   8.216   0.704  10.096
  526SOL     OW 3474   7.929   3.014   5.825
  526SOL    HW1 3475   7.881   2.967   5.758
  526SOL    HW2 3476   8.011   2.966   5.835
  527SOL     OW 3477   2.652   4.279   0.212
  527SOL    HW1 3478   2.632   4.371   0.199
  527SOL    HW2 3479   2.738   4.278   0.253
  528SOL     OW 3480   9.881  13.350   3.666
  528SOL    HW1 3481   9.939  13.295   3.720
  528SOL    HW2 3482   9.795  13.309   3.673
  529SOL     OW 3483  13.842  13.645  14.408
  529SOL    HW1 3484  13.796  13.635  14.325
  529SOL    HW2 3485  13.785  13.701  14.461
  530SOL     OW 3486   5.426  10.373   3.468
  530SOL    HW1 3487   5.437  10.428   3.390
  530SOL    HW2 3488   5.370  10.301   3.438
  531SOL     OW 3489   5.848   4.799   5.399
  531SOL    HW1 3490   5.786   4.871   5.413
  531SOL    HW2 3491   5.887   4.785   5.485
  532SOL     OW 3492  11.529   7.149  13.199
  532SOL    HW1 3493  11.568   7.221  13.249
  532SOL    HW2 3494  11.599   7.121  13.140
  533SOL     OW 3495  14.342  13.473   7.534
  533SOL    HW1 3496  14.401  13.512   7.600
  533SOL    HW2 3497  14.315  13.390   7.572
  534SOL     OW 3498   2.849   3.502  10.632
  534SOL    HW1 3499   2.794   3.463  10.700
  534SOL    HW2 3500   2.937   3.502  10.669
  535SOL     OW 3501  11.621  12.693  13.318
  535SOL    HW1 3502  11.681  12.733  13.254
  535SOL    HW2 3503  11.678  12.653  13.382
  536SOL     OW 3504   4.074  14.374  11.456
  536SOL    HW1 3505   4.141  14.439  11.438
  536SOL    HW2 3506   4.020  14.412  11.526
  537SOL     OW 3507  14.187  13.611  12.000
  537SOL    HW1 3508  14.222  13.577  12.083
  537SOL    HW2 3509  14.121  13.675  12.026
  538SOL     OW 3510  14.273  14.454   6.197
  538SOL    HW1 3511  14.327  14.487   6.125
  538SOL    HW2 3512  14.319  14.375   6.228
  539SOL     OW 3513  10.052   9.113  11.408
  539SOL    HW1 3514  10.081   9.046  11.470
  539SOL    HW2 3515   9.957   9.117  11.420
  540SOL     OW 3516   0.470  11.842   4.272
  540SOL    HW1 3517   0.514  11.884   4.345
  540SOL    HW2 3518   0.523  11.866   4.195
  541SOL     OW 3519  12.041   1.450   5.512
  541SOL    HW1 3520  11.990   1.460   5.432
  541SOL    HW2 3521  12.125   1.414   5.484
  542SOL     OW 3522   6.977  11.216   7.754
  542SOL    HW1 3523   6.990  11.311   7.750
  542SOL    HW2 3524   6.891  11.205   7.795
  543SOL     OW 3525  10.012  13.074   6.702
  543SOL    HW1 3526   9.920  13.076   6.673
  543SOL    HW2 3527  10.053  13.148   6.658
  544SOL     OW 3528  10.620   7.381   6.415
  544SOL    HW1 3529  10.670   7.462   6.417
  544SOL    HW2 3530  10.566   7.384   6.494
  545SOL     OW 3531  14.102  10.154   7.131
  545SOL    HW1 3532  14.177  10.129   7.185
  545SOL    HW2 3533  14.078  10.242   7.160
  546SOL     OW 3534   0.304   2.368   8.493
  546SOL    HW1 3535   0.263   2.319   8.564
  546SOL    HW2 3536   0.397   2.344   8.497
  547SOL     OW 3537   1.690  13.542  14.119
  547SOL    HW1 3538   1.705  13.550  14.025
  547SOL    HW2 3539   1.777  13.530  14.156
  548SOL     OW 3540  12.310   0.829   0.101
  548SOL    HW1 3541  12.223   0.814   0.139
  548SOL    HW2 3542  12.294   0.879   0.021
  549SOL     OW 3543   2.129   8.174  12.577
  549SOL    HW1 3544   2.088   8.114  12.639
  549SOL    HW2 3545   2.145   8.254  12.629
  550SOL     OW 3546  11.589   2.741  11.001
  550SOL    HW1 3547  11.631   2.822  10.973
  550SOL    HW2 3548  11.497   2.751  10.978
  551SOL     OW 3549  12.229  14.685   1.261
  551SOL    HW1 3550  12.231  14.589   1.258
  551SOL    HW2 3551  12.321  14.710   1.272
  552SOL     OW 3552   6.492   8.054  13.867
  552SOL    HW1 3553   6.401   8.082  13.857
  552SOL    HW2 3554   6.538   8.095  13.794
  553SOL     OW 3555   0.749  13.091   3.494
  553SOL    HW1 3556   0.795  13.139   3.562
  553SOL    HW2 3557   0.802  13.104   3.415
  554SOL     OW 3558  10.005   8.466   2.442
  554SOL    HW1 3559   9.959   8.386   2.416
  554SOL    HW2 3560   9.974   8.532   2.380
  555SOL     OW 3561  12.254  12.593   5.918
  555SOL    HW1 3562  12.299  12.580   5.835
  555SOL    HW2 3563  12.263  12.509   5.963
  556SOL     OW 3564  13.835   6.441   1.917
  556SOL    HW1 3565  13.783   6.503   1.865
  556SOL    HW2 3566  13.922   6.443   1.877
  557SOL     OW 3567   2.804   9.310   6.276
  557SOL    HW1 3568   2.763   9.224   6.273
  557SOL    HW2 3569   2.759   9.355   6.347
  558SOL     OW 3570   8.248   6.605   7.595
  558SOL    HW1 3571   8.193   6.605   7.516
  558SOL    HW2 3572   8.245   6.695   7.626
  559SOL     OW 3573   3.762  10.587  11.612
  559SOL    HW1 3574   3.824  10.541  11.668
  559SOL    HW2 3575   3.811  10.661  11.577
  560SOL     OW 3576   4.586  12.806   2.320
  560SOL    HW1 3577   4.515  12.846   2.272
  560SOL    HW2 3578   4.545  12.734   2.369
  561SOL     OW 3579  12.100   5.960   3.282
  561SOL    HW1 3580  12.140   5.924   3.203
  561SOL    HW2 3581  12.126   5.899   3.352
  562SOL     OW 3582  12.560   8.759   3.044
  562SOL    HW1 3583  12.537   8.703   3.118
  562SOL    HW2 3584  12.609   8.701   2.985
  563SOL     OW 3585   7.838   9.415   3.757
  563SOL    HW1 3586   7.855   9.418   3.662
  563SOL    HW2 3587   7.802   9.501   3.778
  564SOL     OW 3588  10.263   5.859   9.182
  564SOL    HW1 3589  10.257   5.898   9.095
  564SOL    HW2 3590  10.356   5.862   9.204
  565SOL     OW 3591  13.647   7.015   7.519
  565SOL    HW1 3592  13.669   7.084   7.456
  565SOL    HW2 3593  13.559   6.987   7.494
  566SOL     OW 3594  13.097   8.107  11.075
  566SOL    HW1 3595  13.004   8.128  11.082
  566SOL    HW2 3596  13.139   8.162  11.141
  567SOL     OW 3597   2.722  14.361  14.552
  567SOL    HW1 3598   2.745  14.269  14.538
  567SOL    HW2 3599   2.802  14.409  14.534
  568SOL     OW 3600   1.423  11.009  12.817
  568SOL    HW1 3601   1.363  11.021  12.743
  568SOL    HW2 3602   1.367  10.980  12.889
  569SOL     OW 3603   9.244   2.589  13.880
  569SOL    HW1 3604   9.275   2.675  13.911
  569SOL    HW2 3605   9.150   2.601  13.865
  570SOL     OW 3606   9.291   1.460   2.712
  570SOL    HW1 3607   9.339   1.482   2.792
  570SOL    HW2 3608   9.216   1.520   2.711
  571SOL     OW 3609  13.810   7.737   3.802
  571SOL    HW1 3610  13.738   7.771   3.854
  571SOL    HW2 3611  13.770   7.673   3.743
  572SOL     OW 3612   5.718   9.927   3.524
  572SOL    HW1 3613   5.808   9.898   3.535
  572SOL    HW2 3614   5.673   9.898   3.603
  573SOL     OW 3615   4.459  11.191  11.626
  573SOL    HW1 3616   4.415  11.234  11.552
  573SOL    HW2 3617   4.495  11.262  11.678
  574SOL     OW 3618   0.613   8.791   9.776
  574SOL    HW1 3619   0.703   8.782   9.805
  574SOL    HW2 3620   0.619   8.798   9.681
  575SOL     OW 3621   7.203  12.867  13.853
  575SOL    HW1 3622   7.225  12.897  13.765
  575SOL    HW2 3623   7.265  12.913  13.910
  576SOL     OW 3624   7.214   5.661   1.370
  576SOL    HW1 3625   7.181   5.742   1.410
  576SOL    HW2 3626   7.309   5.664   1.383
  577SOL     OW 3627  14.518   0.562  12.322
  577SOL    HW1 3628  14.545   0.493  12.261
  577SOL    HW2 3629  14.432   0.533  12.353
  578SOL     OW 3630   1.257   3.544   4.329
  578SOL    HW1 3631   1.251   3.456   4.365
  578SOL    HW2 3632   1.323   3.588   4.382
  579SOL     OW 3633  12.794  11.231   2.499
  579SOL    HW1 3634  12.817  11.167   2.567
  579SOL    HW2 3635  12.727  11.286   2.539
  580SOL     OW 3636   1.527   0.197   7.996
  580SOL    HW1 3637   1.612   0.155   7.988
  580SOL    HW2 3638   1.483   0.180   7.913
  581SOL     OW 3639   2.738  11.325   8.797
  581SOL    HW1 3640   2.783  11.284   8.723
  581SOL    HW2 3641   2.786  11.294   8.874
  582SOL     OW 3642   9.637  14.274  14.608
  582SOL    HW1 3643   9.628  14.189  14.565
  582SOL    HW2 3644   9.596  14.336  14.548
  583SOL     OW 3645   4.672   2.057  12.958
  583SOL    HW1 3646   4.678   1.977  12.907
  583SOL    HW2 3647   4.737   2.116  12.919
  584SOL     OW 3648  14.025   9.435   7.276
  584SOL    HW1 3649  14.116   9.409   7.261
  584SOL    HW2 3650  14.026   9.473   7.363
  585SOL     OW 3651   5.843   9.878   9.710
  585SOL    HW1 3652   5.772   9.891   9.648
  585SOL    HW2 3653   5.879   9.792   9.688
  586SOL     OW 3654  14.209  10.045   0.032
  586SOL    HW1 3655  14.152  10.062   0.107
  586SOL    HW2 3656  14.293  10.022   0.070
  587SOL     OW 3657  13.519  10.434  12.829
  587SOL    HW1 3658  13.577  10.475  12.894
  587SOL    HW2 3659  13.543  10.341  12.832
  588SOL     OW 3660   3.367   1.058   6.898
  588SOL    HW1 3661   3.329   0.971   6.908
  588SOL    HW2 3662   3.292   1.118   6.906
  589SOL     OW 3663   5.892   3.747   2.502
  589SOL    HW1 3664   5.825   3.690   2.466
  589SOL    HW2 3665   5.910   3.811   2.433
  590SOL     OW 3666   9.041   2.039   1.477
  590SOL    HW1 3667   8.993   2.074   1.552
  590SOL    HW2 3668   8.985   1.969   1.443
  591SOL     OW 3669  13.832   1.380   7.092
  591SOL    HW1 3670  13.837   1.285   7.076
  591SOL    HW2 3671  13.807   1.387   7.184
  592SOL     OW 3672  12.997   8.062   5.545
  592SOL    HW1 3673  12.906   8.065   5.575
  592SOL    HW2 3674  12.992   8.081   5.451
  593SOL     OW 3675   4.853  14.076   5.302
  593SOL    HW1 3676   4.796  14.011   5.344
  593SOL    HW2 3677   4.869  14.042   5.215
  594SOL     OW 3678  14.593   1.197   6.284
  594SOL    HW1 3679  14.571   1.195   6.191
  594SOL    HW2 3680  14.675   1.147   6.291
  595SOL     OW 3681   5.761   1.410   3.157
  595SOL    HW1 3682   5.786   1.374   3.072
  595SOL    HW2 3683   5.823   1.481   3.173
  596SOL     OW 3684   6.513  10.460   0.835
  596SOL    HW1 3685   6.440  10.447   0.896
  596SOL    HW2 3686   6.574  10.388   0.855
  597SOL     OW 3687   0.955   4.725   5.131
  597SOL    HW1 3688   0.936   4.779   5.207
  597SOL    HW2 3689   1.000   4.648   5.166
  598SOL     OW 3690   6.410   3.023  11.248
  598SOL    HW1 3691   6.351   3.029  11.173
  598SOL    HW2 3692   6.381   3.093  11.307
  599SOL     OW 3693   9.210   4.735   0.297
  599SOL    HW1 3694   9.152   4.669   0.260
  599SOL    HW2 3695   9.217   4.713   0.390
  600SOL     OW 3696  10.776   5.450   0.168
  600SOL    HW1 3697  10.778   5.524   0.107
  600SOL    HW2 3698  10.822   5.480   0.245
  601SOL     OW 3699   2.326   2.586   3.237
  601SOL    HW1 3700   2.276   2.536   3.301
  601SOL    HW2 3701   2.416   2.583   3.270
  602SOL     OW 3702   5.217   4.179   2.196
  602SOL    HW1 3703   5.302   4.207   2.230
  602SOL    HW2 3704   5.209   4.222   2.111
  603SOL     OW 3705   7.237   8.987   4.413
  603SOL    HW1 3706   7.219   9.072   4.454
  603SOL    HW2 3707   7.327   8.967   4.437
  604SOL     OW 3708   2.395   2.703   4.902
  604SOL    HW1 3709   2.370   2.717   4.811
  604SOL    HW2 3710   2.427   2.613   4.904
  605SOL     OW 3711   3.318   6.776   4.605
  605SOL    HW1 3712   3.310   6.734   4.691
  605SOL    HW2 3713   3.395   6.832   4.613
  606SOL     OW 3714  11.142   3.716  12.471
  606SOL    HW1 3715  11.225   3.725  12.516
  606SOL    HW2 3716  11.165   3.709  12.378
  607SOL     OW 3717  13.557   0.894   7.450
  607SOL    HW1 3718  13.481   0.935   7.492
  607SOL    HW2 3719  13.604   0.852   7.522
  608SOL     OW 3720  14.399   5.361  11.645
  608SOL    HW1 3721  14.494   5.373  11.644
  608SOL    HW2 3722  14.374   5.365  11.552
  609SOL     OW 3723   0.886   7.949   7.024
  609SOL    HW1 3724   0.856   7.938   7.115
  609SOL    HW2 3725   0.893   8.044   7.013
  610SOL     OW 3726   8.369  12.168  13.617
  610SOL    HW1 3727   8.371  12.076  13.589
  610SOL    HW2 3728   8.307  12.169  13.690
  611SOL     OW 3729   7.357  11.554   6.374
  611SOL    HW1 3730   7.350  11.477   6.430
  611SOL    HW2 3731   7.421  11.528   6.307
  612SOL     OW 3732   7.112   1.065  14.820
  612SOL    HW1 3733   7.027   1.022  14.812
  612SOL    HW2 3734   7.115   1.096   0.023
  613SOL     OW 3735   4.319   0.725  11.353
  613SOL    HW1 3736   4.263   0.652  11.381
  613SOL    HW2 3737   4.393   0.683  11.310
  614SOL     OW 3738   3.651   6.740  11.993
  614SOL    HW1 3739   3.739   6.760  11.961
  614SOL    HW2 3740   3.663   6.722  12.086
  615SOL     OW 3741  10.367  10.216   7.196
  615SOL    HW1 3742  10.434  10.157   7.230
  615SOL    HW2 3743  10.374  10.210   7.101
  616SOL     OW 3744  11.060   8.880  13.008
  616SOL    HW1 3745  11.075   8.835  12.925
  616SOL    HW2 3746  11.081   8.971  12.990
  617SOL     OW 3747   6.894   9.947  13.377
  617SOL    HW1 3748   6.848   9.949  13.294
  617SOL    HW2 3749   6.838   9.896  13.435
  618SOL     OW 3750   6.050  12.988   6.644
  618SOL    HW1 3751   5.970  12.968   6.597
  618SOL    HW2 3752   6.114  12.924   6.611
  619SOL     OW 3753   3.712   7.466  11.009
  619SOL    HW1 3754   3.652   7.415  11.064
  619SOL    HW2 3755   3.679   7.454  10.920
  620SOL     OW 3756  13.129   9.945   7.741
  620SOL    HW1 3757  13.139  10.007   7.668
  620SOL    HW2 3758  13.217   9.910   7.755
  621SOL     OW 3759   4.932   3.324  14.676
  621SOL    HW1 3760   4.870   3.259  14.643
  621SOL    HW2 3761   4.963   3.289  14.759
  622SOL     OW 3762  12.078   7.230   5.008
  622SOL    HW1 3763  12.134   7.305   5.031
  622SOL    HW2 3764  12.017   7.266   4.943
  623SOL     OW 3765   4.811  10.200   7.368
  623SOL    HW1 3766   4.761  10.167   7.293
  623SOL    HW2 3767   4.824  10.123   7.423
  624SOL     OW 3768   2.315   8.823  12.334
  624SOL    HW1 3769   2.301   8.875  12.254
  624SOL    HW2 3770   2.378   8.874  12.385
  625SOL     OW 3771  12.731  14.548   0.070
  625SOL    HW1 3772  12.786  14.522   0.144
  625SOL    HW2 3773  12.666  14.608   0.107
  626SOL     OW 3774   5.349   1.191   7.630
  626SOL    HW1 3775   5.306   1.141   7.561
  626SOL    HW2 3776   5.433   1.146   7.643
  627SOL     OW 3777   3.039  12.759  12.529
  627SOL    HW1 3778   3.062  12.760  12.436
  627SOL    HW2 3779   2.958  12.809  12.534
  628SOL     OW 3780   3.303   6.867   0.526
  628SOL    HW1 3781   3.361   6.928   0.571
  628SOL    HW2 3782   3.257   6.921   0.461
  629SOL     OW 3783   3.574  12.364   0.419
  629SOL    HW1 3784   3.512  12.292   0.411
  629SOL    HW2 3785   3.660  12.322   0.426
  630SOL     OW 3786   1.150   8.309  13.008
  630SOL    HW1 3787   1.165   8.341  12.919
  630SOL    HW2 3788   1.162   8.387  13.063
  631SOL     OW 3789  14.547  14.564   6.819
  631SOL    HW1 3790  14.537  14.475   6.852
  631SOL    HW2 3791  14.569  14.616   6.896
  632SOL     OW 3792   3.762   7.085   8.585
  632SOL    HW1 3793   3.849   7.122   8.574
  632SOL    HW2 3794   3.766   7.042   8.671
  633SOL     OW 3795   3.072  12.448   1.797
  633SOL    HW1 3796   3.006  12.381   1.816
  633SOL    HW2 3797   3.023  12.529   1.787
  634SOL     OW 3798   0.333  10.049  14.067
  634SOL    HW1 3799   0.333  10.144  14.053
  634SOL    HW2 3800   0.426  10.025  14.064
  635SOL     OW 3801   9.826  10.109   3.008
  635SOL    HW1 3802   9.750  10.051   3.007
  635SOL    HW2 3803   9.879  10.079   2.934
  636SOL     OW 3804  11.665   9.351   5.383
  636SOL    HW1 3805  11.750   9.389   5.362
  636SOL    HW2 3806  11.667   9.264   5.343
  637SOL     OW 3807   5.959   9.228  12.109
  637SOL    HW1 3808   6.010   9.199  12.185
  637SOL    HW2 3809   5.986   9.171  12.038
  638SOL     OW 3810  11.424  12.163  10.186
  638SOL    HW1 3811  11.360  12.100  10.151
  638SOL    HW2 3812  11.406  12.243  10.137
  639SOL     OW 3813   4.573   0.556   9.927
  639SOL    HW1 3814   4.533   0.476   9.960
  639SOL    HW2 3815   4.644   0.525   9.871
  640SOL     OW 3816   0.824   4.841   7.115
  640SOL    HW1 3817   0.828   4.771   7.180
  640SOL    HW2 3818   0.845   4.799   7.032
  641SOL     OW 3819  12.440  13.524   3.184
  641SOL    HW1 3820  12.516  13.579   3.203
  641SOL    HW2 3821  12.372  13.585   3.158
  642SOL     OW 3822   2.093   1.579   4.569
  642SOL    HW1 3823   2.163   1.584   4.635
  642SOL    HW2 3824   2.060   1.490   4.576
  643SOL     OW 3825   1.346   5.453  10.135
  643SOL    HW1 3826   1.326   5.420  10.047
  643SOL    HW2 3827   1.433   5.493  10.127
  644SOL     OW 3828   6.237   2.415  10.078
  644SOL    HW1 3829   6.278   2.500  10.092
  644SOL    HW2 3830   6.158   2.434  10.028
  645SOL     OW 3831  12.113  14.733  12.921
  645SOL    HW1 3832  12.025  14.770  12.928
  645SOL    HW2 3833  12.153  14.752  13.006
  646SOL     OW 3834   8.691   0.753  13.763
  646SOL    HW1 3835   8.707   0.801  13.843
  646SOL    HW2 3836   8.653   0.670  13.791
  647SOL     OW 3837   7.779   3.790   6.078
  647SOL    HW1 3838   7.823   3.871   6.102
  647SOL    HW2 3839   7.686   3.811   6.087
  648SOL     OW 3840   5.789   2.548   9.194
  648SOL    HW1 3841   5.762   2.486   9.261
  648SOL    HW2 3842   5.864   2.506   9.151
  649SOL     OW 3843   6.365   4.904   2.782
  649SOL    HW1 3844   6.389   4.940   2.698
  649SOL    HW2 3845   6.375   4.977   2.844
  650SOL     OW 3846  11.196   6.328  12.610
  650SOL    HW1 3847  11.151   6.406  12.579
  650SOL    HW2 3848  11.126   6.268  12.636
  651SOL     OW 3849  12.559   7.412   6.489
  651SOL    HW1 3850  12.640   7.421   6.438
  651SOL    HW2 3851  12.489   7.430   6.426
  652SOL     OW 3852   0.945  11.488  12.290
  652SOL    HW1 3853   0.882  11.420  12.267
  652SOL    HW2 3854   0.939  11.495  12.385
  653SOL     OW 3855   9.911  13.676   6.113
  653SOL    HW1 3856   9.922  13.756   6.062
  653SOL    HW2 3857   9.958  13.693   6.194
  654SOL     OW 3858   4.291  11.590   9.318
  654SOL    HW1 3859   4.364  11.601   9.258
  654SOL    HW2 3860   4.269  11.497   9.311
  655SOL     OW 3861   1.255   5.233   4.735
  655SOL    HW1 3862   1.166   5.211   4.706
  655SOL    HW2 3863   1.309   5.158   4.710
  656SOL     OW 3864  11.970   4.452   5.989
  656SOL    HW1 3865  11.882   4.456   5.952
  656SOL    HW2 3866  11.970   4.519   6.057
  657SOL     OW 3867   4.250  11.789   4.190
  657SOL    HW1 3868   4.237  11.694   4.191
  657SOL    HW2 3869   4.256  11.813   4.282
  658SOL     OW 3870   2.504  12.229   2.268
  658SOL    HW1 3871   2.509  12.325   2.260
  658SOL    HW2 3872   2.545  12.210   2.352
  659SOL     OW 3873  12.457   0.969   6.391
  659SOL    HW1 3874  12.430   0.995   6.480
  659SOL    HW2 3875  12.374   0.953   6.346
  660SOL     OW 3876   3.394   9.635   8.952
  660SOL    HW1 3877   3.423   9.724   8.934
  660SOL    HW2 3878   3.474   9.585   8.968
  661SOL     OW 3879   2.360  14.353  13.959
  661SOL    HW1 3880   2.278  14.385  13.995
  661SOL    HW2 3881   2.338  14.326  13.869
  662SOL     OW 3882  12.017  13.948   9.021
  662SOL    HW1 3883  12.071  13.918   9.095
  662SOL    HW2 3884  12.015  14.043   9.031
  663SOL     OW 3885   5.504   5.062   6.169
  663SOL    HW1 3886   5.520   5.017   6.252
  663SOL    HW2 3887   5.457   4.997   6.116
  664SOL     OW 3888  10.160  12.608   2.876
  664SOL    HW1 3889  10.093  12.620   2.808
  664SOL    HW2 3890  10.123  12.543   2.936
  665SOL     OW 3891   1.453  11.546  13.320
  665SOL    HW1 3892   1.517  11.514  13.256
  665SOL    HW2 3893   1.444  11.639  13.299
  666SOL     OW 3894   1.928   8.096   5.591
  666SOL    HW1 3895   2.009   8.075   5.635
  666SOL    HW2 3896   1.860   8.082   5.656
  667SOL     OW 3897   6.420   7.628  14.878
  667SOL    HW1 3898   6.442   7.691   0.059
  667SOL    HW2 3899   6.504   7.607  14.836
  668SOL     OW 3900   9.402   2.199  10.377
  668SOL    HW1 3901   9.372   2.185  10.287
  668SOL    HW2 3902   9.475   2.137  10.388
  669SOL     OW 3903   1.584   9.186   3.785
  669SOL    HW1 3904   1.659   9.161   3.732
  669SOL    HW2 3905   1.587   9.281   3.788
  670SOL     OW 3906  10.650   3.239   3.857
  670SOL    HW1 3907  10.573   3.229   3.802
  670SOL    HW2 3908  10.719   3.190   3.812
  671SOL     OW 3909   6.342   9.363  11.010
  671SOL    HW1 3910   6.274   9.365  11.078
  671SOL    HW2 3911   6.422   9.390  11.055
  672SOL     OW 3912   7.421  11.342   4.366
  672SOL    HW1 3913   7.360  11.282   4.323
  672SOL    HW2 3914   7.503  11.293   4.371
  673SOL     OW 3915   8.015   8.290  12.819
  673SOL    HW1 3916   8.001   8.199  12.793
  673SOL    HW2 3917   8.027   8.287  12.914
  674SOL     OW 3918  11.637   4.853   1.164
  674SOL    HW1 3919  11.727   4.881   1.147
  674SOL    HW2 3920  11.618   4.791   1.093
  675SOL     OW 3921  12.684   9.397   7.372
  675SOL    HW1 3922  12.619   9.374   7.438
  675SOL    HW2 3923  12.766   9.407   7.421
  676SOL     OW 3924   8.756  10.893   5.641
  676SOL    HW1 3925   8.825  10.826   5.635
  676SOL    HW2 3926   8.677  10.844   5.663
  677SOL     OW 3927  13.261   3.215   5.889
  677SOL    HW1 3928  13.199   3.160   5.839
  677SOL    HW2 3929  13.264   3.297   5.841
  678SOL     OW 3930   3.062  11.757   0.652
  678SOL    HW1 3931   3.063  11.800   0.567
  678SOL    HW2 3932   3.154  11.741   0.673
  679SOL     OW 3933   5.131  10.987   8.874
  679SOL    HW1 3934   5.181  11.022   8.800
  679SOL    HW2 3935   5.085  11.063   8.909
  680SOL     OW 3936  12.016  11.852  13.515
  680SOL    HW1 3937  12.051  11.918  13.455
  680SOL    HW2 3938  11.941  11.895  13.556
  681SOL     OW 3939  11.315  10.242  14.040
  681SOL    HW1 3940  11.228  10.208  14.018
  681SOL    HW2 3941  11.302  10.337  14.047
  682SOL     OW 3942   3.102   6.731   6.691
  682SOL    HW1 3943   3.015   6.768   6.704
  682SOL    HW2 3944   3.156   6.771   6.760
  683SOL     OW 3945   1.516   9.608   2.457
  683SOL    HW1 3946   1.558   9.590   2.540
  683SOL    HW2 3947   1.457   9.681   2.474
  684SOL     OW 3948  13.772   6.928   8.151
  684SOL    HW1 3949  13.711   6.856   8.164
  684SOL    HW2 3950  13.753   6.961   8.063
  685SOL     OW 3951  10.554   4.215   6.055
  685SOL    HW1 3952  10.484   4.154   6.077
  685SOL    HW2 3953  10.596   4.176   5.978
  686SOL     OW 3954  12.384   8.544  12.508
  686SOL    HW1 3955  12.381   8.565  12.415
  686SOL    HW2 3956  12.321   8.604  12.548
  687SOL     OW 3957   3.428  10.574  12.751
  687SOL    HW1 3958   3.365  10.550  12.818
  687SOL    HW2 3959   3.382  10.560  12.668
  688SOL     OW 3960  10.383   3.038  12.210
  688SOL    HW1 3961  10.311   3.082  12.255
  688SOL    HW2 3962  10.462   3.071  12.253
  689SOL     OW 3963   4.479   7.132   1.280
  689SOL    HW1 3964   4.494   7.101   1.191
  689SOL    HW2 3965   4.524   7.069   1.336
  690SOL     OW 3966   0.342   3.002   2.098
  690SOL    HW1 3967   0.334   3.038   2.186
  690SOL    HW2 3968   0.407   2.932   2.106
  691SOL     OW 3969   3.348   3.760   9.510
  691SOL    HW1 3970   3.354   3.760   9.414
  691SOL    HW2 3971   3.307   3.677   9.532
  692SOL     OW 3972   7.484   3.033   8.998
  692SOL    HW1 3973   7.522   3.094   9.063
  692SOL    HW2 3974   7.421   3.087   8.950
  693SOL     OW 3975  12.439   2.893   8.059
  693SOL    HW1 3976  12.438   2.885   7.964
  693SOL    HW2 3977  12.468   2.807   8.090
  694SOL     OW 3978   6.008   3.457   5.627
  694SOL    HW1 3979   5.925   3.433   5.585
  694SOL    HW2 3980   5.986   3.532   5.682
  695SOL     OW 3981   6.206  11.627   3.953
  695SOL    HW1 3982   6.145  11.658   4.021
  695SOL    HW2 3983   6.149  11.587   3.887
  696SOL     OW 3984   6.177   6.922   5.004
  696SOL    HW1 3985   6.197   6.976   5.080
  696SOL    HW2 3986   6.161   6.984   4.934
  697SOL     OW 3987   8.246   4.097   8.823
  697SOL    HW1 3988   8.200   4.166   8.872
  697SOL    HW2 3989   8.334   4.132   8.811
  698SOL     OW 3990  12.869   8.036   5.929
  698SOL    HW1 3991  12.813   8.109   5.903
  698SOL    HW2 3992  12.946   8.078   5.968
  699SOL     OW 3993   4.037   6.444   8.122
  699SOL    HW1 3994   4.072   6.526   8.156
  699SOL    HW2 3995   4.079   6.376   8.174
  700SOL     OW 3996  12.934  14.667  10.582
  700SOL    HW1 3997  12.903  14.720  10.656
  700SOL    HW2 3998  12.859  14.662  10.523
  701SOL     OW 3999  11.562   9.456  14.253
  701SOL    HW1 4000  11.651   9.431  14.230
  701SOL    HW2 4001  11.522   9.480  14.169
  702SOL     OW 4002  12.945  11.915   1.926
  702SOL    HW1 4003  12.942  11.827   1.963
  702SOL    HW2 4004  12.875  11.963   1.970
  703SOL     OW 4005   1.238   1.073   3.801
  703SOL    HW1 4006   1.144   1.076   3.783
  703SOL    HW2 4007   1.244   1.030   3.886
  704SOL     OW 4008  11.820   1.649  14.795
  704SOL    HW1 4009  11.897   1.637  14.739
  704SOL    HW2 4010  11.852   1.702  14.868
  705SOL     OW 4011  11.423   8.034  10.666
  705SOL    HW1 4012  11.432   8.034  10.571
  705SOL    HW2 4013  11.411   7.942  10.689
  706SOL     OW 4014  11.844  13.123   5.954
  706SOL    HW1 4015  11.792  13.083   5.884
  706SOL    HW2 4016  11.922  13.155   5.910
  707SOL     OW 4017   3.497   8.571   8.051
  707SOL    HW1 4018   3.559   8.614   8.110
  707SOL    HW2 4019   3.431   8.638   8.034
  708SOL     OW 4020   6.787   8.914  11.237
  708SOL    HW1 4021   6.725   8.912  11.310
  708SOL    HW2 4022   6.733   8.923  11.159
  709SOL     OW 4023  12.520   2.077   6.391
  709SOL    HW1 4024  12.602   2.118   6.418
  709SOL    HW2 4025  12.523   1.989   6.427
  710SOL     OW 4026   8.565   6.553  12.122
  710SOL    HW1 4027   8.497   6.485  12.117
  710SOL    HW2 4028   8.533   6.612  12.191
  711SOL     OW 4029   0.593   7.340  13.694
  711SOL    HW1 4030   0.498   7.345  13.682
  711SOL    HW2 4031   0.605   7.343  13.789
  712SOL     OW 4032   2.626   9.400  11.394
  712SOL    HW1 4033   2.706   9.382  11.344
  712SOL    HW2 4034   2.612   9.494  11.382
  713SOL     OW 4035   7.436  13.623   5.353
  713SOL    HW1 4036   7.362  13.600   5.297
  713SOL    HW2 4037   7.496  13.550   5.344
  714SOL     OW 4038   2.410   0.898  12.034
  714SOL    HW1 4039   2.369   0.984  12.020
  714SOL    HW2 4040   2.503   0.919  12.050
  715SOL     OW 4041  11.293   1.785   9.228
  715SOL    HW1 4042  11.254   1.801   9.314
  715SOL    HW2 4043  11.386   1.801   9.241
  716SOL     OW 4044   1.323  10.786   0.385
  716SOL    HW1 4045   1.274  10.864   0.411
  716SOL    HW2 4046   1.257  10.727   0.350
  717SOL     OW 4047   0.351   9.471  11.811
  717SOL    HW1 4048   0.435   9.435  11.784
  717SOL    HW2 4049   0.360   9.566  11.797
  718SOL     OW 4050   6.972   0.107  13.340
  718SOL    HW1 4051   7.027   0.102  13.418
  718SOL    HW2 4052   6.923   0.189  13.350
  719SOL     OW 4053   7.727  11.851   1.269
  719SOL    HW1 4054   7.755  11.916   1.333
  719SOL    HW2 4055   7.650  11.810   1.308
  720SOL     OW 4056  13.048   3.090  11.228
  720SOL    HW1 4057  13.114   3.082  11.296
  720SOL    HW2 4058  13.020   3.000  11.210
  721SOL     OW 4059   1.817  13.891  13.484
  721SOL    HW1 4060   1.868  13.863  13.409
  721SOL    HW2 4061   1.762  13.816  13.505
  722SOL     OW 4062   3.316  12.882   6.543
  722SOL    HW1 4063   3.340  12.824   6.470
  722SOL    HW2 4064   3.376  12.857   6.614
  723SOL     OW 4065   3.060   9.736   0.956
  723SOL    HW1 4066   3.108   9.654   0.968
  723SOL    HW2 4067   2.978   9.710   0.914
  724SOL     OW 4068  14.698   2.045  14.599
  724SOL    HW1 4069  14.624   2.051  14.659
  724SOL    HW2 4070  14.665   2.082  14.517
  725SOL     OW 4071  13.544   5.800  12.018
  725SOL    HW1 4072  13.494   5.748  12.081
  725SOL    HW2 4073  13.630   5.758  12.014
  726SOL     OW 4074  12.633   6.995   0.602
  726SOL    HW1 4075  12.690   7.048   0.659
  726SOL    HW2 4076  12.580   6.944   0.663
  727SOL     OW 4077  13.209  14.138   1.595
  727SOL    HW1 4078  13.131  14.190   1.615
  727SOL    HW2 4079  13.207  14.067   1.659
  728SOL     OW 4080  11.465   0.830   7.138
  728SOL    HW1 4081  11.523   0.857   7.209
  728SOL    HW2 4082  11.421   0.752   7.171
  729SOL     OW 4083   5.933   7.468  11.226
  729SOL    HW1 4084   5.961   7.556  11.251
  729SOL    HW2 4085   6.006   7.433  11.177
  730SOL     OW 4086   7.120   5.857  11.757
  730SOL    HW1 4087   7.208   5.876  11.790
  730SOL    HW2 4088   7.130   5.854  11.662
  731SOL     OW 4089   5.885   0.882  12.830
  731SOL    HW1 4090   5.800   0.847  12.803
  731SOL    HW2 4091   5.871   0.977  12.831
  732SOL     OW 4092  12.541   8.309  13.206
  732SOL    HW1 4093  12.618   8.295  13.261
  732SOL    HW2 4094  12.532   8.228  13.157
  733SOL     OW 4095   4.353   5.269   1.542
  733SOL    HW1 4096   4.295   5.258   1.467
  733SOL    HW2 4097   4.295   5.263   1.618
  734SOL     OW 4098   8.942  10.187   4.558
  734SOL    HW1 4099   8.859  10.141   4.573
  734SOL    HW2 4100   8.918  10.280   4.561
  735SOL     OW 4101   8.691  11.577   9.063
  735SOL    HW1 4102   8.669  11.517   8.992
  735SOL    HW2 4103   8.745  11.645   9.021
  736SOL     OW 4104   4.100  11.836   6.679
  736SOL    HW1 4105   4.086  11.743   6.697
  736SOL    HW2 4106   4.189  11.841   6.644
  737SOL     OW 4107   9.337   0.641   5.739
  737SOL    HW1 4108   9.341   0.625   5.833
  737SOL    HW2 4109   9.262   0.699   5.727
  738SOL     OW 4110   2.578  14.136  13.756
  738SOL    HW1 4111   2.621  14.126  13.672
  738SOL    HW2 4112   2.486  14.147  13.735
  739SOL     OW 4113  10.319   4.950   7.574
  739SOL    HW1 4114  10.275   4.935   7.490
  739SOL    HW2 4115  10.314   5.045   7.586
  740SOL     OW 4116   3.028   1.117   7.737
  740SOL    HW1 4117   3.052   1.139   7.647
  740SOL    HW2 4118   3.042   1.199   7.785
  741SOL     OW 4119   9.131  14.521   4.739
  741SOL    HW1 4120   9.061  14.571   4.696
  741SOL    HW2 4121   9.107  14.521   4.831
  742SOL     OW 4122   0.387   2.716   2.720
  742SOL    HW1 4123   0.462   2.707   2.778
  742SOL    HW2 4124   0.367   2.626   2.692
  743SOL     OW 4125   0.486  10.676   5.947
  743SOL    HW1 4126   0.489  10.595   5.896
  743SOL    HW2 4127   0.394  10.690   5.966
  744SOL     OW 4128  11.192   2.908   3.433
  744SOL    HW1 4129  11.251   2.834   3.420
  744SOL    HW2 4130  11.244   2.971   3.483
  745SOL     OW 4131   0.601  13.631   8.230
  745SOL    HW1 4132   0.617  13.556   8.287
  745SOL    HW2 4133   0.667  13.624   8.161
  746SOL     OW 4134   1.955  11.558  10.727
  746SOL    HW1 4135   2.035  11.516  10.696
  746SOL    HW2 4136   1.973  11.652  10.721
  747SOL     OW 4137   6.165   8.150   9.496
  747SOL    HW1 4138   6.127   8.159   9.408
  747SOL    HW2 4139   6.213   8.232   9.509
  748SOL     OW 4140  13.898  10.839  11.465
  748SOL    HW1 4141  13.836  10.845  11.392
  748SOL    HW2 4142  13.885  10.751  11.501
  749SOL     OW 4143   1.107   6.555   4.378
  749SOL    HW1 4144   1.202   6.560   4.378
  749SOL    HW2 4145   1.084   6.524   4.465
  750SOL     OW 4146   7.157  13.708   7.187
  750SOL    HW1 4147   7.097  13.778   7.212
  750SOL    HW2 4148   7.140  13.638   7.250
  751SOL     OW 4149  12.616  12.524  11.954
  751SOL    HW1 4150  12.629  12.429  11.946
  751SOL    HW2 4151  12.704  12.560  11.955
  752SOL     OW 4152   8.598   4.285  11.846
  752SOL    HW1 4153   8.532   4.229  11.888
  752SOL    HW2 4154   8.560   4.373  11.848
  753SOL     OW 4155  14.136   4.515  14.243
  753SOL    HW1 4156  14.069   4.584  14.249
  753SOL    HW2 4157  14.122   4.477  14.156
  754SOL     OW 4158   9.152   0.664  10.627
  754SOL    HW1 4159   9.232   0.612  10.622
  754SOL    HW2 4160   9.119   0.666  10.537
  755SOL     OW 4161  12.809  11.559  12.595
  755SOL    HW1 4162  12.819  11.579  12.502
  755SOL    HW2 4163  12.838  11.468  12.603
  756SOL     OW 4164  14.636   6.081   0.600
  756SOL    HW1 4165  14.608   6.000   0.643
  756SOL    HW2 4166  14.651   6.056   0.509
  757SOL     OW 4167   4.805   5.943  10.315
  757SOL    HW1 4168   4.746   6.018  10.325
  757SOL    HW2 4169   4.892   5.978  10.332
  758SOL     OW 4170   7.777   0.538  12.276
  758SOL    HW1 4171   7.837   0.464  12.266
  758SOL    HW2 4172   7.826   0.613  12.243
  759SOL     OW 4173  14.833   9.501   5.419
  759SOL    HW1 4174   0.031   9.533   5.388
  759SOL    HW2 4175  14.851   9.467   5.506
  760SOL     OW 4176  10.489   7.416  10.405
  760SOL    HW1 4177  10.523   7.351  10.344
  760SOL    HW2 4178  10.509   7.380  10.492
  761SOL     OW 4179  13.026   0.566   2.491
  761SOL    HW1 4180  13.071   0.613   2.561
  761SOL    HW2 4181  13.087   0.498   2.464
  762SOL     OW 4182   7.646  14.152  11.198
  762SOL    HW1 4183   7.616  14.235  11.162
  762SOL    HW2 4184   7.567  14.109  11.230
  763SOL     OW 4185  14.883   2.634  11.637
  763SOL    HW1 4186  14.814   2.697  11.614
  763SOL    HW2 4187   0.074   2.687  11.650
  764SOL     OW 4188   4.835  11.301   2.706
  764SOL    HW1 4189   4.795  11.388   2.714
  764SOL    HW2 4190   4.847  11.272   2.796
  765SOL     OW 4191   2.877   2.164  10.564
  765SOL    HW1 4192   2.949   2.145  10.503
  765SOL    HW2 4193   2.897   2.111  10.641
  766SOL     OW 4194   4.499   6.962   7.304
  766SOL    HW1 4195   4.486   7.040   7.357
  766SOL    HW2 4196   4.421   6.909   7.320
  767SOL     OW 4197   4.939  14.150   8.689
  767SOL    HW1 4198   5.023  14.140   8.734
  767SOL    HW2 4199   4.877  14.100   8.742
  768SOL     OW 4200   2.128   0.879  14.804
  768SOL    HW1 4201   2.201   0.928  14.842
  768SOL    HW2 4202   2.091   0.938  14.738
  769SOL     OW 4203  13.747  13.998   7.750
  769SOL    HW1 4204  13.779  13.925   7.698
  769SOL    HW2 4205  13.792  14.075   7.714
  770SOL     OW 4206   8.801   1.052   3.190
  770SOL    HW1 4207   8.858   1.117   3.148
  770SOL    HW2 4208   8.855   0.973   3.196
  771SOL     OW 4209   9.154   4.151   7.302
  771SOL    HW1 4210   9.237   4.192   7.279
  771SOL    HW2 4211   9.089   4.221   7.290
  772SOL     OW 4212   1.154   8.015   2.480
  772SOL    HW1 4213   1.183   7.946   2.539
  772SOL    HW2 4214   1.212   8.008   2.404
  773SOL     OW 4215   5.527  11.302   0.611
  773SOL    HW1 4216   5.474  11.333   0.686
  773SOL    HW2 4217   5.477  11.330   0.534
  774SOL     OW 4218   5.288  11.792   1.097
  774SOL    HW1 4219   5.268  11.885   1.085
  774SOL    HW2 4220   5.272  11.776   1.190
  775SOL     OW 4221  14.073  12.396  10.400
  775SOL    HW1 4222  14.121  12.314  10.399
  775SOL    HW2 4223  14.132  12.459  10.359
  776SOL     OW 4224   4.094   4.519   5.802
  776SOL    HW1 4225   4.189   4.514   5.801
  776SOL    HW2 4226   4.074   4.602   5.759
  777SOL     OW 4227   2.230   1.782  14.731
  777SOL    HW1 4228   2.301   1.800  14.669
  777SOL    HW2 4229   2.179   1.863  14.732
  778SOL     OW 4230  14.737   3.553  13.227
  778SOL    HW1 4231  14.710   3.465  13.254
  778SOL    HW2 4232  14.674   3.611  13.270
  779SOL     OW 4233   3.841  10.225  14.733
  779SOL    HW1 4234   3.865  10.274  14.811
  779SOL    HW2 4235   3.768  10.170  14.760
  780SOL     OW 4236   3.819   2.287   9.395
  780SOL    HW1 4237   3.763   2.211   9.409
  780SOL    HW2 4238   3.908   2.252   9.394
  781SOL     OW 4239  12.210  11.972   2.536
  781SOL    HW1 4240  12.259  11.935   2.609
  781SOL    HW2 4241  12.213  11.904   2.468
  782SOL     OW 4242   5.832  10.139  14.678
  782SOL    HW1 4243   5.835  10.141  14.582
  782SOL    HW2 4244   5.747  10.175  14.700
  783SOL     OW 4245   7.137   8.298  12.984
  783SOL    HW1 4246   7.192   8.265  13.055
  783SOL    HW2 4247   7.060   8.240  12.986
  784SOL     OW 4248   9.775   7.637  11.244
  784SOL    HW1 4249   9.745   7.605  11.159
  784SOL    HW2 4250   9.698   7.677  11.283
  785SOL     OW 4251   5.141   2.495  10.540
  785SOL    HW1 4252   5.159   2.438  10.465
  785SOL    HW2 4253   5.121   2.580  10.502
  786SOL     OW 4254   3.574   3.716  13.883
  786SOL    HW1 4255   3.629   3.757  13.816
  786SOL    HW2 4256   3.560   3.627  13.852
  787SOL     OW 4257   2.471   8.322  11.155
  787SOL    HW1 4258   2.539   8.389  11.160
  787SOL    HW2 4259   2.518   8.239  11.148
  788SOL     OW 4260   3.665   0.050  14.295
  788SOL    HW1 4261   3.734   0.111  14.269
  788SOL    HW2 4262   3.592   0.069  14.236
  789SOL     OW 4263   0.116   5.797   2.555
  789SOL    HW1 4264   0.198   5.847   2.564
  789SOL    HW2 4265   0.143   5.711   2.524
  790SOL     OW 4266   8.387   0.022  13.878
  790SOL    HW1 4267   8.371  14.875  13.966
  790SOL    HW2 4268   8.370  14.836  13.819
  791SOL     OW 4269  12.864   2.754  12.907
  791SOL    HW1 4270  12.897   2.769  12.995
  791SOL    HW2 4271  12.939   2.774  12.850
  792SOL     OW 4272   9.105   4.152  13.380
  792SOL    HW1 4273   9.161   4.108  13.444
  792SOL    HW2 4274   9.146   4.134  13.296
  793SOL     OW 4275   9.652   8.785  10.982
  793SOL    HW1 4276   9.658   8.811  10.890
  793SOL    HW2 4277   9.609   8.699  10.981
  794SOL     OW 4278   0.536  14.217   8.150
  794SOL    HW1 4279   0.450  14.190   8.118
  794SOL    HW2 4280   0.524  14.230   8.244
  795SOL     OW 4281  13.560   7.759   6.904
  795SOL    HW1 4282  13.524   7.673   6.924
  795SOL    HW2 4283  13.589   7.753   6.813
  796SOL     OW 4284   0.933  12.141   6.977
  796SOL    HW1 4285   0.936  12.213   6.914
  796SOL    HW2 4286   0.899  12.067   6.928
  797SOL     OW 4287  14.572  10.017   9.736
  797SOL    HW1 4288  14.575  10.053   9.648
  797SOL    HW2 4289  14.614   9.931   9.729
  798SOL     OW 4290   5.088   3.949   5.560
  798SOL    HW1 4291   5.019   3.901   5.607
  798SOL    HW2 4292   5.090   3.909   5.473
  799SOL     OW 4293  10.029  12.360  12.939
  799SOL    HW1 4294   9.971  12.343  13.013
  799SOL    HW2 4295  10.018  12.283  12.882
  800SOL     OW 4296   8.877   7.787  13.860
  800SOL    HW1 4297   8.901   7.847  13.931
  800SOL    HW2 4298   8.806   7.831  13.814
  801SOL     OW 4299   2.931   7.839  13.955
  801SOL    HW1 4300   2.964   7.775  13.893
  801SOL    HW2 4301   2.923   7.920  13.904
  802SOL     OW 4302   3.333  13.480   8.844
  802SOL    HW1 4303   3.314  13.423   8.919
  802SOL    HW2 4304   3.429  13.478   8.837
  803SOL     OW 4305   0.746  14.403  14.582
  803SOL    HW1 4306   0.797  14.374  14.507
  803SOL    HW2 4307   0.811  14.442  14.642
  804SOL     OW 4308   2.627   5.320   1.053
  804SOL    HW1 4309   2.652   5.296   1.142
  804SOL    HW2 4310   2.709   5.318   1.004
  805SOL     OW 4311   3.284   2.433  13.359
  805SOL    HW1 4312   3.380   2.422  13.355
  805SOL    HW2 4313   3.254   2.357  13.409
  806SOL     OW 4314  13.710   6.705   8.503
  806SOL    HW1 4315  13.709   6.798   8.527
  806SOL    HW2 4316  13.673   6.702   8.415
  807SOL     OW 4317   3.412  10.686  11.341
  807SOL    HW1 4318   3.495  10.723  11.310
  807SOL    HW2 4319   3.423  10.679  11.435
  808SOL     OW 4320  10.580   1.458   7.563
  808SOL    HW1 4321  10.672   1.483   7.557
  808SOL    HW2 4322  10.532   1.539   7.545
  809SOL     OW 4323   5.828   2.665   2.878
  809SOL    HW1 4324   5.799   2.732   2.816
  809SOL    HW2 4325   5.787   2.584   2.847
  810SOL     OW 4326   5.332   9.119  13.273
  810SOL    HW1 4327   5.245   9.111  13.234
  810SOL    HW2 4328   5.330   9.202  13.320
  811SOL     OW 4329   4.353  13.858   8.261
  811SOL    HW1 4330   4.279  13.853   8.200
  811SOL    HW2 4331   4.383  13.949   8.254
  812SOL     OW 4332   5.219   6.397   3.822
  812SOL    HW1 4333   5.244   6.306   3.803
  812SOL    HW2 4334   5.229   6.442   3.738
  813SOL     OW 4335  11.380  10.051  12.010
  813SOL    HW1 4336  11.386  10.132  12.061
  813SOL    HW2 4337  11.427   9.986  12.062
  814SOL     OW 4338   6.249   1.476   3.872
  814SOL    HW1 4339   6.159   1.489   3.903
  814SOL    HW2 4340   6.299   1.548   3.909
  815SOL     OW 4341   4.345   0.909  13.383
  815SOL    HW1 4342   4.359   0.875  13.472
  815SOL    HW2 4343   4.387   0.844  13.326
  816SOL     OW 4344  11.723   4.986  11.097
  816SOL    HW1 4345  11.705   4.896  11.069
  816SOL    HW2 4346  11.789   4.978  11.166
  817SOL     OW 4347   4.068   9.429   0.265
  817SOL    HW1 4348   4.069   9.507   0.321
  817SOL    HW2 4349   4.076   9.463   0.176
  818SOL     OW 4350   1.881   8.294  12.983
  818SOL    HW1 4351   1.809   8.316  13.043
  818SOL    HW2 4352   1.943   8.366  12.994
  819SOL     OW 4353   4.666  10.599  12.547
  819SOL    HW1 4354   4.612  10.526  12.576
  819SOL    HW2 4355   4.665  10.660  12.621
  820SOL     OW 4356   7.143  11.542  10.635
  820SOL    HW1 4357   7.225  11.592  10.642
  820SOL    HW2 4358   7.141  11.512  10.544
  821SOL     OW 4359   4.801  11.790   7.229
  821SOL    HW1 4360   4.758  11.719   7.182
  821SOL    HW2 4361   4.738  11.862   7.227
  822SOL     OW 4362   7.363   4.976  11.761
  822SOL    HW1 4363   7.411   4.905  11.718
  822SOL    HW2 4364   7.365   4.953  11.854
  823SOL     OW 4365   6.616   8.368  11.707
  823SOL    HW1 4366   6.663   8.332  11.632
  823SOL    HW2 4367   6.635   8.307  11.779
  824SOL     OW 4368  14.421  12.649  12.003
  824SOL    HW1 4369  14.331  12.618  11.995
  824SOL    HW2 4370  14.455  12.603  12.080
  825SOL     OW 4371   0.318   2.457   6.576
  825SOL    HW1 4372   0.247   2.443   6.514
  825SOL    HW2 4373   0.374   2.380   6.566
  826SOL     OW 4374   2.644   8.470  10.045
  826SOL    HW1 4375   2.645   8.416   9.966
  826SOL    HW2 4376   2.661   8.409  10.116
  827SOL     OW 4377   2.109   8.113   7.231
  827SOL    HW1 4378   2.033   8.169   7.221
  827SOL    HW2 4379   2.074   8.023   7.228
  828SOL     OW 4380  13.581   4.886   5.434
  828SOL    HW1 4381  13.612   4.798   5.457
  828SOL    HW2 4382  13.651   4.924   5.382
  829SOL     OW 4383   5.364  12.305   5.910
  829SOL    HW1 4384   5.297  12.245   5.879
  829SOL    HW2 4385   5.414  12.329   5.832
  830SOL     OW 4386   8.001   2.831  11.393
  830SOL    HW1 4387   7.992   2.924  11.411
  830SOL    HW2 4388   7.934   2.812  11.328
  831SOL     OW 4389   1.086   0.241   1.582
  831SOL    HW1 4390   1.124   0.266   1.666
  831SOL    HW2 4391   1.047   0.155   1.598
  832SOL     OW 4392   1.543   8.375   6.971
  832SOL    HW1 4393   1.551   8.419   6.886
  832SOL    HW2 4394   1.491   8.297   6.953
  833SOL     OW 4395   8.591   5.938   3.977
  833SOL    HW1 4396   8.504   5.905   3.953
  833SOL    HW2 4397   8.652   5.878   3.933
  834SOL     OW 4398   5.543   7.077   1.838
  834SOL    HW1 4399   5.599   7.154   1.845
  834SOL    HW2 4400   5.596   7.012   1.792
  835SOL     OW 4401  14.013  10.464   0.267
  835SOL    HW1 4402  14.088  10.487   0.214
  835SOL    HW2 4403  13.939  10.466   0.207
  836SOL     OW 4404   9.662   8.233  11.648
  836SOL    HW1 4405   9.711   8.172  11.703
  836SOL    HW2 4406   9.666   8.194  11.560
  837SOL     OW 4407   8.615   6.963  14.647
  837SOL    HW1 4408   8.524   6.985  14.628
  837SOL    HW2 4409   8.610   6.889  14.707
  838SOL     OW 4410   8.525   5.381   2.645
  838SOL    HW1 4411   8.617   5.404   2.656
  838SOL    HW2 4412   8.526   5.311   2.580
  839SOL     OW 4413  12.099  11.181   3.147
  839SOL    HW1 4414  12.095  11.266   3.191
  839SOL    HW2 4415  12.192  11.159   3.145
  840SOL     OW 4416   6.886  11.429  12.995
  840SOL    HW1 4417   6.942  11.422  13.073
  840SOL    HW2 4418   6.903  11.349  12.946
  841SOL     OW 4419   8.364  13.852   7.072
  841SOL    HW1 4420   8.389  13.877   6.984
  841SOL    HW2 4421   8.419  13.777   7.093
  842SOL     OW 4422   7.896   0.232   4.579
  842SOL    HW1 4423   7.850   0.150   4.597
  842SOL    HW2 4424   7.885   0.284   4.659
  843SOL     OW 4425   5.996   4.562  13.130
  843SOL    HW1 4426   6.014   4.606  13.047
  843SOL    HW2 4427   6.002   4.469  13.110
  844SOL     OW 4428   1.273  10.118   4.069
  844SOL    HW1 4429   1.365  10.140   4.056
  844SOL    HW2 4430   1.272  10.023   4.074
  845SOL     OW 4431   5.715   7.182  10.559
  845SOL    HW1 4432   5.653   7.114  10.532
  845SOL    HW2 4433   5.792   7.133  10.589
  846SOL     OW 4434   0.868   1.636   4.294
  846SOL    HW1 4435   0.798   1.695   4.322
  846SOL    HW2 4436   0.923   1.627   4.372
  847SOL     OW 4437   6.286   5.577  12.045
  847SOL    HW1 4438   6.245   5.561  12.130
  847SOL    HW2 4439   6.380   5.574  12.062
  848SOL     OW 4440   0.470  11.656  11.005
  848SOL    HW1 4441   0.454  11.649  11.099
  848SOL    HW2 4442   0.403  11.717  10.973
  849SOL     OW 4443   0.264   3.020   1.364
  849SOL    HW1 4444   0.181   2.972   1.360
  849SOL    HW2 4445   0.238   3.112   1.359
  850SOL     OW 4446   5.507   4.778   5.476
  850SOL    HW1 4447   5.511   4.871   5.498
  850SOL    HW2 4448   5.434   4.771   5.415
  851SOL     OW 4449   5.521   9.574   3.497
  851SOL    HW1 4450   5.616   9.569   3.493
  851SOL    HW2 4451   5.490   9.495   3.454
  852SOL     OW 4452   9.945   0.360   1.365
  852SOL    HW1 4453   9.994   0.395   1.290
  852SOL    HW2 4454   9.980   0.271   1.376
  853SOL     OW 4455   0.071   4.768   7.634
  853SOL    HW1 4456  14.883   4.710   7.640
  853SOL    HW2 4457   0.146   4.711   7.650
  854SOL     OW 4458  11.447  13.227   6.992
  854SOL    HW1 4459  11.494  13.208   6.912
  854SOL    HW2 4460  11.356  13.241   6.964
  855SOL     OW 4461   4.303  10.143   9.732
  855SOL    HW1 4462   4.381  10.140   9.787
  855SOL    HW2 4463   4.333  10.177   9.648
  856SOL     OW 4464   1.012   2.407  10.179
  856SOL    HW1 4465   1.025   2.486  10.231
  856SOL    HW2 4466   1.000   2.438  10.089
  857SOL     OW 4467   7.099   9.907  12.982
  857SOL    HW1 4468   7.173   9.864  12.938
  857SOL    HW2 4469   7.139   9.972  13.038
  858SOL     OW 4470   6.008   6.423   1.046
  858SOL    HW1 4471   6.072   6.355   1.023
  858SOL    HW2 4472   6.061   6.503   1.056
  859SOL     OW 4473   3.112   6.159   7.766
  859SOL    HW1 4474   3.040   6.189   7.822
  859SOL    HW2 4475   3.094   6.200   7.681
  860SOL     OW 4476   4.442  13.899   9.032
  860SOL    HW1 4477   4.419  13.961   8.962
  860SOL    HW2 4478   4.374  13.910   9.098
  861SOL     OW 4479   4.060   6.263   7.743
  861SOL    HW1 4480   3.974   6.274   7.782
  861SOL    HW2 4481   4.101   6.193   7.794
  862SOL     OW 4482   0.564  12.083   6.314
  862SOL    HW1 4483   0.476  12.119   6.307
  862SOL    HW2 4484   0.572  12.025   6.239
  863SOL     OW 4485   1.449  13.038   3.842
  863SOL    HW1 4486   1.511  13.111   3.846
  863SOL    HW2 4487   1.498  12.962   3.873
  864SOL     OW 4488   4.040   4.313   3.519
  864SOL    HW1 4489   4.035   4.254   3.594
  864SOL    HW2 4490   4.019   4.257   3.444
  865SOL     OW 4491  12.041   2.323  11.339
  865SOL    HW1 4492  11.991   2.399  11.309
  865SOL    HW2 4493  11.978   2.252  11.341
  866SOL     OW 4494   3.131   7.782  11.857
  866SOL    HW1 4495   3.049   7.746  11.823
  866SOL    HW2 4496   3.199   7.726  11.819
  867SOL     OW 4497   4.182  12.308   0.622
  867SOL    HW1 4498   4.147  12.381   0.571
  867SOL    HW2 4499   4.175  12.337   0.713
  868SOL     OW 4500  12.985   0.123   5.568
  868SOL    HW1 4501  13.014   0.038   5.603
  868SOL    HW2 4502  13.058   0.152   5.514
  869SOL     OW 4503   7.013   8.659  13.603
  869SOL    HW1 4504   7.088   8.604  13.579
  869SOL    HW2 4505   6.991   8.706  13.523
  870SOL     OW 4506   0.791   9.657  14.844
  870SOL    HW1 4507   0.822   9.603   0.029
  870SOL    HW2 4508   0.870   9.675  14.792
  871SOL     OW 4509   1.761   0.537   1.075
  871SOL    HW1 4510   1.735   0.627   1.056
  871SOL    HW2 4511   1.766   0.533   1.171
  872SOL     OW 4512   3.072  14.287   2.551
  872SOL    HW1 4513   3.050  14.205   2.596
  872SOL    HW2 4514   3.016  14.286   2.473
  873SOL     OW 4515   0.807   0.936   5.967
  873SOL    HW1 4516   0.797   0.879   6.043
  873SOL    HW2 4517   0.833   1.020   6.004
  874SOL     OW 4518   5.045   9.956  14.332
  874SOL    HW1 4519   5.018  10.044  14.306
  874SOL    HW2 4520   5.140   9.956  14.320
  875SOL     OW 4521   0.209   5.318  10.858
  875SOL    HW1 4522   0.268   5.373  10.910
  875SOL    HW2 4523   0.145   5.379  10.821
  876SOL     OW 4524  12.618   3.623   7.089
  876SOL    HW1 4525  12.523   3.628   7.077
  876SOL    HW2 4526  12.652   3.700   7.043
  877SOL     OW 4527   1.863  13.107  13.963
  877SOL    HW1 4528   1.956  13.106  13.941
  877SOL    HW2 4529   1.860  13.119  14.058
  878SOL     OW 4530   3.676  13.410  13.401
  878SOL    HW1 4531   3.729  13.426  13.479
  878SOL    HW2 4532   3.633  13.493  13.383
  879SOL     OW 4533   8.198  13.908   1.796
  879SOL    HW1 4534   8.208  13.971   1.725
  879SOL    HW2 4535   8.164  13.959   1.869
  880SOL     OW 4536  12.903   5.256  10.992
  880SOL    HW1 4537  12.865   5.182  10.944
  880SOL    HW2 4538  12.830   5.316  11.006
  881SOL     OW 4539  11.549   5.377   1.281
  881SOL    HW1 4540  11.500   5.443   1.233
  881SOL    HW2 4541  11.482   5.322   1.321
  882SOL     OW 4542   2.734  12.328  11.148
  882SOL    HW1 4543   2.689  12.293  11.224
  882SOL    HW2 4544   2.690  12.411  11.129
  883SOL     OW 4545   4.062   0.450   3.973
  883SOL    HW1 4546   3.979   0.411   3.946
  883SOL    HW2 4547   4.122   0.431   3.901
  884SOL     OW 4548  14.731  10.402   6.798
  884SOL    HW1 4549  14.796  10.373   6.733
  884SOL    HW2 4550  14.753  10.494   6.814
  885SOL     OW 4551   1.364   9.915  13.551
  885SOL    HW1 4552   1.307   9.876  13.617
  885SOL    HW2 4553   1.450   9.918  13.592
  886SOL     OW 4554  14.018   3.453   1.145
  886SOL    HW1 4555  13.988   3.537   1.179
  886SOL    HW2 4556  14.068   3.475   1.066
  887SOL     OW 4557  12.117  12.971   8.833
  887SOL    HW1 4558  12.184  12.972   8.902
  887SOL    HW2 4559  12.132  12.889   8.786
  888SOL     OW 4560   1.906   9.759   3.084
  888SOL    HW1 4561   1.869   9.739   2.998
  888SOL    HW2 4562   2.001   9.747   3.072
  889SOL     OW 4563  12.798   7.294   0.569
  889SOL    HW1 4564  12.722   7.301   0.626
  889SOL    HW2 4565  12.858   7.362   0.600
  890SOL     OW 4566   0.350   2.366  12.010
  890SOL    HW1 4567   0.436   2.405  11.993
  890SOL    HW2 4568   0.362   2.273  11.989
  891SOL     OW 4569  12.179   1.092   4.530
  891SOL    HW1 4570  12.170   1.027   4.460
  891SOL    HW2 4571  12.261   1.137   4.510
  892SOL     OW 4572  14.285   0.648   8.837
  892SOL    HW1 4573  14.332   0.688   8.765
  892SOL    HW2 4574  14.343   0.579   8.869
  893SOL     OW 4575   5.369  14.816   7.765
  893SOL    HW1 4576   5.412   0.014   7.755
  893SOL    HW2 4577   5.357  14.805   7.859
  894SOL     OW 4578   2.158   2.106   1.634
  894SOL    HW1 4579   2.077   2.130   1.590
  894SOL    HW2 4580   2.198   2.189   1.658
  895SOL     OW 4581   9.680  13.705  13.929
  895SOL    HW1 4582   9.703  13.744  13.845
  895SOL    HW2 4583   9.598  13.658  13.912
  896SOL     OW 4584   9.410   6.636   5.751
  896SOL    HW1 4585   9.395   6.710   5.810
  896SOL    HW2 4586   9.328   6.586   5.754
  897SOL     OW 4587   9.729  12.319   3.941
  897SOL    HW1 4588   9.791  12.251   3.915
  897SOL    HW2 4589   9.773  12.366   4.012
  898SOL     OW 4590   6.651  10.075   8.408
  898SOL    HW1 4591   6.630  10.028   8.489
  898SOL    HW2 4592   6.646  10.168   8.432
  899SOL     OW 4593  11.003   5.618  13.547
  899SOL    HW1 4594  10.996   5.639  13.640
  899SOL    HW2 4595  10.921   5.574  13.526
  900SOL     OW 4596  13.976  12.578  11.694
  900SOL    HW1 4597  14.047  12.515  11.701
  900SOL    HW2 4598  14.016  12.656  11.655
  901SOL     OW 4599  13.901  12.022   5.274
  901SOL    HW1 4600  13.824  12.040   5.221
  901SOL    HW2 4601  13.951  11.958   5.223
  902SOL     OW 4602   9.271  13.412   8.762
  902SOL    HW1 4603   9.321  13.403   8.843
  902SOL    HW2 4604   9.294  13.499   8.729
  903SOL     OW 4605   5.927   0.771  13.090
  903SOL    HW1 4606   5.930   0.812  13.004
  903SOL    HW2 4607   5.977   0.690  13.080
  904SOL     OW 4608   0.385   6.372   7.195
  904SOL    HW1 4609   0.430   6.406   7.117
  904SOL    HW2 4610   0.320   6.311   7.160
  905SOL     OW 4611   2.022   1.800  11.278
  905SOL    HW1 4612   2.071   1.722  11.303
  905SOL    HW2 4613   1.992   1.781  11.189
  906SOL     OW 4614  13.530  13.156   9.430
  906SOL    HW1 4615  13.462  13.093   9.455
  906SOL    HW2 4616  13.605  13.102   9.405
  907SOL     OW 4617   3.422   2.255  10.251
  907SOL    HW1 4618   3.385   2.277  10.337
  907SOL    HW2 4619   3.366   2.300  10.188
  908SOL     OW 4620  11.240   6.428  13.808
  908SOL    HW1 4621  11.200   6.473  13.883
  908SOL    HW2 4622  11.179   6.357  13.788
  909SOL     OW 4623  13.783   9.522  14.092
  909SOL    HW1 4624  13.803   9.578  14.016
  909SOL    HW2 4625  13.854   9.458  14.093
  910SOL     OW 4626   4.900  10.128   3.967
  910SOL    HW1 4627   4.814  10.087   3.975
  910SOL    HW2 4628   4.959  10.055   3.946
  911SOL     OW 4629   4.973  10.370   3.902
  911SOL    HW1 4630   4.947  10.279   3.917
  911SOL    HW2 4631   5.001  10.372   3.810
  912SOL     OW 4632   1.463   7.572   4.855
  912SOL    HW1 4633   1.389   7.514   4.874
  912SOL    HW2 4634   1.451   7.645   4.915
  913SOL     OW 4635   6.640   1.208  11.127
  913SOL    HW1 4636   6.685   1.179  11.206
  913SOL    HW2 4637   6.556   1.241  11.157
  914SOL     OW 4638   3.085   0.782  12.761
  914SOL    HW1 4639   3.177   0.756  12.755
  914SOL    HW2 4640   3.076   0.853  12.697
  915SOL     OW 4641   5.259   6.120   4.099
  915SOL    HW1 4642   5.175   6.167   4.102
  915SOL    HW2 4643   5.242   6.043   4.045
  916SOL     OW 4644  10.205   5.856   6.247
  916SOL    HW1 4645  10.130   5.916   6.247
  916SOL    HW2 4646  10.220   5.837   6.155
  917SOL     OW 4647   4.230   0.499  11.489
  917SOL    HW1 4648   4.267   0.503  11.577
  917SOL    HW2 4649   4.270   0.421  11.450
  918SOL     OW 4650   0.520   1.586  11.793
  918SOL    HW1 4651   0.486   1.609  11.880
  918SOL    HW2 4652   0.517   1.490  11.791
  919SOL     OW 4653   3.760   8.869   9.813
  919SOL    HW1 4654   3.753   8.957   9.776
  919SOL    HW2 4655   3.672   8.848   9.843
  920SOL     OW 4656   5.953  13.686   4.801
  920SOL    HW1 4657   5.869  13.702   4.845
  920SOL    HW2 4658   6.019  13.722   4.860
  921SOL     OW 4659  10.775   3.448   3.384
  921SOL    HW1 4660  10.816   3.529   3.353
  921SOL    HW2 4661  10.752   3.400   3.305
  922SOL     OW 4662  14.066   0.695  10.746
  922SOL    HW1 4663  14.048   0.735  10.661
  922SOL    HW2 4664  13.989   0.717  10.799
  923SOL     OW 4665   9.770   7.171   3.651
  923SOL    HW1 4666   9.846   7.167   3.708
  923SOL    HW2 4667   9.756   7.264   3.635
  924SOL     OW 4668   7.450   8.249  14.787
  924SOL    HW1 4669   7.447   8.174  14.845
  924SOL    HW2 4670   7.523   8.302  14.819
  925SOL     OW 4671   1.042   5.247   1.753
  925SOL    HW1 4672   1.121   5.194   1.763
  925SOL    HW2 4673   1.074   5.334   1.732
  926SOL     OW 4674   7.480   6.434   7.367
  926SOL    HW1 4675   7.430   6.399   7.440
  926SOL    HW2 4676   7.552   6.483   7.408
  927SOL     OW 4677   9.244   8.882   5.481
  927SOL    HW1 4678   9.215   8.890   5.572
  927SOL    HW2 4679   9.333   8.847   5.487
  928SOL     OW 4680   2.223  13.220   7.064
  928SOL    HW1 4681   2.316  13.224   7.039
  928SOL    HW2 4682   2.179  13.184   6.987
  929SOL     OW 4683   5.331  10.585  10.826
  929SOL    HW1 4684   5.375  10.565  10.744
  929SOL    HW2 4685   5.383  10.540  10.893
  930SOL     OW 4686   7.367   6.307  11.159
  930SOL    HW1 4687   7.426   6.305  11.084
  930SOL    HW2 4688   7.343   6.400  11.167
  931SOL     OW 4689   3.041  10.593  11.550
  931SOL    HW1 4690   3.096  10.655  11.501
  931SOL    HW2 4691   3.055  10.617  11.642
  932SOL     OW 4692  13.878   8.323   2.317
  932SOL    HW1 4693  13.957   8.375   2.307
  932SOL    HW2 4694  13.892   8.272   2.397
  933SOL     OW 4695   2.674  13.707   6.757
  933SOL    HW1 4696   2.669  13.637   6.692
  933SOL    HW2 4697   2.683  13.661   6.840
  934SOL     OW 4698   3.993  12.134   8.402
  934SOL    HW1 4699   4.026  12.102   8.486
  934SOL    HW2 4700   3.926  12.071   8.376
  935SOL     OW 4701   2.752   0.004   5.031
  935SOL    HW1 4702   2.771   0.079   5.088
  935SOL    HW2 4703   2.661  14.868   5.050
  936SOL     OW 4704   9.599  14.758  10.624
  936SOL    HW1 4705   9.565  14.674  10.595
  936SOL    HW2 4706   9.682  14.769  10.577
  937SOL     OW 4707   2.834   2.844  11.634
  937SOL    HW1 4708   2.767   2.789  11.674
  937SOL    HW2 4709   2.862   2.903  11.704
  938SOL     OW 4710   8.099   7.499   3.581
  938SOL    HW1 4711   8.171   7.436   3.584
  938SOL    HW2 4712   8.048   7.482   3.660
  939SOL     OW 4713   4.428   4.175   0.656
  939SOL    HW1 4714   4.509   4.218   0.684
  939SOL    HW2 4715   4.454   4.123   0.580
  940SOL     OW 4716  10.133  10.584   6.087
  940SOL    HW1 4717  10.172  10.511   6.136
  940SOL    HW2 4718  10.044  10.555   6.068
  941SOL     OW 4719   5.683  12.570   8.963
  941SOL    HW1 4720   5.748  12.500   8.972
  941SOL    HW2 4721   5.713  12.622   8.889
  942SOL     OW 4722   0.345   7.088  13.481
  942SOL    HW1 4723   0.428   7.121  13.447
  942SOL    HW2 4724   0.304   7.164  13.524
  943SOL     OW 4725   6.685  14.657  10.326
  943SOL    HW1 4726   6.707  14.732  10.271
  943SOL    HW2 4727   6.768  14.611  10.338
  944SOL     OW 4728   3.728  14.102  13.530
  944SOL    HW1 4729   3.696  14.142  13.611
  944SOL    HW2 4730   3.676  14.022  13.520
  945SOL     OW 4731  11.943  13.685   5.393
  945SOL    HW1 4732  11.884  13.708   5.465
  945SOL    HW2 4733  12.030  13.713   5.423
  946SOL     OW 4734  12.981   3.748   5.082
  946SOL    HW1 4735  12.896   3.708   5.100
  946SOL    HW2 4736  12.968   3.795   4.999
  947SOL     OW 4737  11.509  14.269   0.429
  947SOL    HW1 4738  11.463  14.307   0.355
  947SOL    HW2 4739  11.601  14.268   0.403
  948SOL     OW 4740   7.742   7.596   0.245
  948SOL    HW1 4741   7.659   7.623   0.283
  948SOL    HW2 4742   7.719   7.531   0.179
  949SOL     OW 4743   4.707   5.900   1.603
  949SOL    HW1 4744   4.753   5.822   1.571
  949SOL    HW2 4745   4.673   5.942   1.524
  950SOL     OW 4746   5.583   8.933  10.717
  950SOL    HW1 4747   5.509   8.917  10.776
  950SOL    HW2 4748   5.568   9.021  10.684
  951SOL     OW 4749  13.535   2.714   3.301
  951SOL    HW1 4750  13.494   2.759   3.374
  951SOL    HW2 4751  13.462   2.693   3.242
  952SOL     OW 4752   4.397   5.424   3.879
  952SOL    HW1 4753   4.311   5.401   3.845
  952SOL    HW2 4754   4.450   5.346   3.864
  953SOL     OW 4755  12.285   1.761   2.299
  953SOL    HW1 4756  12.267   1.802   2.384
  953SOL    HW2 4757  12.372   1.723   2.309
  954SOL     OW 4758   2.335   6.490   4.817
  954SOL    HW1 4759   2.363   6.414   4.766
  954SOL    HW2 4760   2.410   6.550   4.813
  955SOL     OW 4761  14.639  13.878   3.616
  955SOL    HW1 4762  14.664  13.895   3.707
  955SOL    HW2 4763  14.605  13.789   3.617
  956SOL     OW 4764   6.234   9.807   1.231
  956SOL    HW1 4765   6.260   9.798   1.139
  956SOL    HW2 4766   6.179   9.885   1.232
  957SOL     OW 4767   9.793   9.285   0.769
  957SOL    HW1 4768   9.743   9.313   0.692
  957SOL    HW2 4769   9.732   9.295   0.843
  958SOL     OW 4770  13.083  12.419   5.262
  958SOL    HW1 4771  13.120  12.480   5.199
  958SOL    HW2 4772  13.099  12.460   5.347
  959SOL     OW 4773  14.417   5.415   6.401
  959SOL    HW1 4774  14.407   5.502   6.438
  959SOL    HW2 4775  14.428   5.430   6.307
  960SOL     OW 4776   7.359   8.800   1.769
  960SOL    HW1 4777   7.347   8.894   1.779
  960SOL    HW2 4778   7.442   8.782   1.814
  961SOL     OW 4779  12.345   4.365   9.636
  961SOL    HW1 4780  12.379   4.324   9.716
  961SOL    HW2 4781  12.259   4.398   9.661
  962SOL     OW 4782  12.452   4.567   0.441
  962SOL    HW1 4783  12.389   4.495   0.434
  962SOL    HW2 4784  12.518   4.535   0.502
  963SOL     OW 4785  11.608   5.609  14.743
  963SOL    HW1 4786  11.593   5.702  14.759
  963SOL    HW2 4787  11.651   5.577  14.822
  964SOL     OW 4788  13.253  11.138  14.717
  964SOL    HW1 4789  13.230  11.230  14.706
  964SOL    HW2 4790  13.325  11.139  14.780
  965SOL     OW 4791   8.330   1.749   9.497
  965SOL    HW1 4792   8.334   1.835   9.456
  965SOL    HW2 4793   8.264   1.701   9.446
  966SOL     OW 4794   7.355  10.651   7.032
  966SOL    HW1 4795   7.280  10.620   6.980
  966SOL    HW2 4796   7.425  10.663   6.968
  967SOL     OW 4797   1.884   4.391   8.401
  967SOL    HW1 4798   1.856   4.300   8.394
  967SOL    HW2 4799   1.920   4.413   8.315
  968SOL     OW 4800   4.780  14.066   1.333
  968SOL    HW1 4801   4.740  14.013   1.264
  968SOL    HW2 4802   4.762  14.017   1.413
  969SOL     OW 4803   9.628   2.870   0.950
  969SOL    HW1 4804   9.709   2.824   0.927
  969SOL    HW2 4805   9.558   2.807   0.931
  970SOL     OW 4806   3.475   9.099   1.330
  970SOL    HW1 4807   3.413   9.047   1.279
  970SOL    HW2 4808   3.546   9.119   1.269
  971SOL     OW 4809   6.885   3.910  12.479
  971SOL    HW1 4810   6.808   3.960  12.506
  971SOL    HW2 4811   6.941   3.975  12.435
  972SOL     OW 4812   5.918   4.834   1.536
  972SOL    HW1 4813   5.842   4.822   1.593
  972SOL    HW2 4814   5.905   4.770   1.466
  973SOL     OW 4815  12.568   9.702  14.237
  973SOL    HW1 4816  12.539   9.696  14.328
  973SOL    HW2 4817  12.657   9.667  14.237
  974SOL     OW 4818   6.395   1.788   4.691
  974SOL    HW1 4819   6.385   1.709   4.745
  974SOL    HW2 4820   6.316   1.840   4.710
  975SOL     OW 4821  10.281   5.577   9.049
  975SOL    HW1 4822  10.276   5.482   9.039
  975SOL    HW2 4823  10.283   5.591   9.143
  976SOL     OW 4824   8.735   9.176   3.512
  976SOL    HW1 4825   8.704   9.174   3.421
  976SOL    HW2 4826   8.656   9.191   3.564
  977SOL     OW 4827   9.496  13.368   6.534
  977SOL    HW1 4828   9.495  13.276   6.508
  977SOL    HW2 4829   9.532  13.367   6.623
  978SOL     OW 4830  14.325  13.118   7.905
  978SOL    HW1 4831  14.326  13.176   7.982
  978SOL    HW2 4832  14.234  13.118   7.876
  979SOL     OW 4833   5.729   7.365  12.924
  979SOL    HW1 4834   5.645   7.408  12.910
  979SOL    HW2 4835   5.771   7.364  12.838
  980SOL     OW 4836  10.435  11.449  12.349
  980SOL    HW1 4837  10.365  11.474  12.288
  980SOL    HW2 4838  10.398  11.465  12.436
  981SOL     OW 4839  13.005   6.375   8.287
  981SOL    HW1 4840  12.910   6.375   8.274
  981SOL    HW2 4841  13.021   6.301   8.346
  982SOL     OW 4842  11.024  12.536   1.965
  982SOL    HW1 4843  10.943  12.573   1.999
  982SOL    HW2 4844  11.003  12.444   1.948
  983SOL     OW 4845   9.691   2.500   0.975
  983SOL    HW1 4846   9.774   2.548   0.986
  983SOL    HW2 4847   9.681   2.492   0.880
  984SOL     OW 4848   6.382   1.222  10.255
  984SOL    HW1 4849   6.458   1.214  10.312
  984SOL    HW2 4850   6.335   1.140  10.266
  985SOL     OW 4851   4.705   2.321  11.028
  985SOL    HW1 4852   4.639   2.263  11.065
  985SOL    HW2 4853   4.774   2.324  11.093
  986SOL     OW 4854  12.774   6.075   1.188
  986SOL    HW1 4855  12.762   6.162   1.226
  986SOL    HW2 4856  12.734   6.081   1.102
  987SOL     OW 4857   9.835   4.891   2.526
  987SOL    HW1 4858   9.809   4.840   2.602
  987SOL    HW2 4859   9.905   4.839   2.486
  988SOL     OW 4860   5.826   2.924   3.058
  988SOL    HW1 4861   5.875   3.005   3.050
  988SOL    HW2 4862   5.784   2.912   2.972
  989SOL     OW 4863   6.048   0.668  12.457
  989SOL    HW1 4864   6.122   0.699  12.405
  989SOL    HW2 4865   6.018   0.589  12.412
  990SOL     OW 4866   5.006  13.835   3.128
  990SOL    HW1 4867   5.075  13.776   3.098
  990SOL    HW2 4868   4.930  13.778   3.140
  991SOL     OW 4869   1.111   4.086   6.747
  991SOL    HW1 4870   1.182   4.150   6.748
  991SOL    HW2 4871   1.094   4.067   6.839
  992SOL     OW 4872   1.674   6.756  14.812
  992SOL    HW1 4873   1.744   6.691  14.816
  992SOL    HW2 4874   1.705   6.829  14.866
  993SOL     OW 4875   4.448  12.963  12.157
  993SOL    HW1 4876   4.541  12.955  12.138
  993SOL    HW2 4877   4.443  12.979  12.251
  994SOL     OW 4878   1.895  11.490   5.590
  994SOL    HW1 4879   1.948  11.499   5.510
  994SOL    HW2 4880   1.830  11.423   5.568
  995SOL     OW 4881   3.071   4.979  13.732
  995SOL    HW1 4882   2.978   4.960  13.743
  995SOL    HW2 4883   3.077   5.027  13.650
  996SOL     OW 4884  10.613   7.351   9.211
  996SOL    HW1 4885  10.557   7.277   9.187
  996SOL    HW2 4886  10.673   7.316   9.277
  997SOL     OW 4887   0.838  11.559   2.674
  997SOL    HW1 4888   0.851  11.645   2.715
  997SOL    HW2 4889   0.871  11.569   2.585
  998SOL     OW 4890   8.950   2.950   1.061
  998SOL    HW1 4891   8.930   3.043   1.052
  998SOL    HW2 4892   9.028   2.936   1.008
  999SOL     OW 4893   2.473   7.016  10.651
  999SOL    HW1 4894   2.383   7.044  10.672
  999SOL    HW2 4895   2.526   7.053  10.721
 1000SOL     OW 4896  12.405  12.345   0.542
 1000SOL    HW1 4897  12.382  12.373   0.631
 1000SOL    HW2 4898  12.327  12.364   0.491
 1001SOL     OW 4899  10.628   9.716  10.337
 1001SOL    HW1 4900  10.663   9.629  10.356
 1001SOL    HW2 4901  10.570   9.702  10.262
 1002SOL     OW 4902  13.496   9.877  11.449
 1002SOL    HW1 4903  13.515   9.879  11.355
 1002SOL    HW2 4904  13.404   9.851  11.454
 1003SOL     OW 4905  14.116   4.899  11.948
 1003SOL    HW1 4906  14.055   4.892  11.875
 1003SOL    HW2 4907  14.127   4.993  11.962
 1004SOL     OW 4908   0.778   4.822   5.460
 1004SOL    HW1 4909   0.822   4.891   5.411
 1004SOL    HW2 4910   0.692   4.814   5.418
 1005SOL     OW 4911  12.735   4.070   3.414
 1005SOL    HW1 4912  12.779   4.007   3.472
 1005SOL    HW2 4913  12.803   4.096   3.352
 1006SOL     OW 4914   9.393  14.253   9.521
 1006SOL    HW1 4915   9.447  14.277   9.446
 1006SOL    HW2 4916   9.448  14.194   9.572
 1007SOL     OW 4917   0.416  12.346   2.501
 1007SOL    HW1 4918   0.324  12.340   2.528
 1007SOL    HW2 4919   0.429  12.272   2.442
 1008SOL     OW 4920  10.199   6.241   7.933
 1008SOL    HW1 4921  10.142   6.231   8.009
 1008SOL    HW2 4922  10.169   6.175   7.872
 1009SOL     OW 4923   2.236   2.206   4.571
 1009SOL    HW1 4924   2.302   2.155   4.523
 1009SOL    HW2 4925   2.156   2.195   4.521
 1010SOL     OW 4926  12.058  10.197  10.354
 1010SOL    HW1 4927  11.973  10.195  10.311
 1010SOL    HW2 4928  12.121  10.181  10.284
 1011SOL     OW 4929   6.237   7.707   8.023
 1011SOL    HW1 4930   6.150   7.697   7.984
 1011SOL    HW2 4931   6.257   7.621   8.060
 1012SOL     OW 4932  12.932   7.188  10.044
 1012SOL    HW1 4933  13.010   7.188   9.989
 1012SOL    HW2 4934  12.910   7.281  10.054
 1013SOL     OW 4935   8.728   1.106  11.832
 1013SOL    HW1 4936   8.784   1.046  11.881
 1013SOL    HW2 4937   8.707   1.176  11.893
 1014SOL     OW 4938   6.800   2.179   7.736
 1014SOL    HW1 4939   6.712   2.173   7.699
 1014SOL    HW2 4940   6.853   2.120   7.683
 1015SOL     OW 4941   5.820  13.607   5.940
 1015SOL    HW1 4942   5.894  13.557   5.905
 1015SOL    HW2 4943   5.842  13.620   6.033
 1016SOL     OW 4944   1.954   2.119   4.469
 1016SOL    HW1 4945   2.016   2.116   4.396
 1016SOL    HW2 4946   1.939   2.212   4.484
 1017SOL     OW 4947   1.995   8.997   4.819
 1017SOL    HW1 4948   1.910   8.983   4.861
 1017SOL    HW2 4949   2.058   8.956   4.878
 1018SOL     OW 4950  12.951  12.796   6.070
 1018SOL    HW1 4951  12.925  12.718   6.021
 1018SOL    HW2 4952  12.918  12.869   6.016
 1019SOL     OW 4953  13.894   3.325   4.090
 1019SOL    HW1 4954  13.891   3.310   3.995
 1019SOL    HW2 4955  13.961   3.264   4.121
 1020SOL     OW 4956   1.966   8.141  11.073
 1020SOL    HW1 4957   2.002   8.119  10.987
 1020SOL    HW2 4958   2.042   8.142  11.132
 1021SOL     OW 4959  12.332   7.231  14.120
 1021SOL    HW1 4960  12.314   7.227  14.214
 1021SOL    HW2 4961  12.365   7.319  14.105
 1022SOL     OW 4962   3.182   8.407   3.511
 1022SOL    HW1 4963   3.216   8.321   3.534
 1022SOL    HW2 4964   3.089   8.393   3.496
 1023SOL     OW 4965   2.019   6.434   3.856
 1023SOL    HW1 4966   2.060   6.486   3.926
 1023SOL    HW2 4967   1.925   6.436   3.877
 1024SOL     OW 4968   5.811   6.391  13.212
 1024SOL    HW1 4969   5.792   6.457  13.144
 1024SOL    HW2 4970   5.806   6.440  13.294
 1025SOL     OW 4971   9.874   5.296   9.854
 1025SOL    HW1 4972   9.873   5.392   9.862
 1025SOL    HW2 4973   9.782   5.272   9.851
 1026SOL     OW 4974  13.856   2.406   5.064
 1026SOL    HW1 4975  13.820   2.480   5.014
 1026SOL    HW2 4976  13.807   2.330   5.033
 1027SOL     OW 4977   8.897   6.904   4.304
 1027SOL    HW1 4978   8.815   6.889   4.256
 1027SOL    HW2 4979   8.893   6.842   4.377
 1028SOL     OW 4980   7.295  10.899  11.048
 1028SOL    HW1 4981   7.278  10.856  11.132
 1028SOL    HW2 4982   7.221  10.876  10.993
 1029SOL     OW 4983  12.213  13.198   2.692
 1029SOL    HW1 4984  12.195  13.289   2.716
 1029SOL    HW2 4985  12.277  13.204   2.622
 1030SOL     OW 4986   8.406   9.975  12.092
 1030SOL    HW1 4987   8.471   9.913  12.060
 1030SOL    HW2 4988   8.393   9.950  12.184
 1031SOL     OW 4989  12.842  10.431   5.064
 1031SOL    HW1 4990  12.881  10.480   5.137
 1031SOL    HW2 4991  12.829  10.497   4.995
 1032SOL     OW 4992  13.079   4.890   3.635
 1032SOL    HW1 4993  12.992   4.852   3.639
 1032SOL    HW2 4994  13.105   4.900   3.727
 1033SOL     OW 4995   6.978  13.034   3.768
 1033SOL    HW1 4996   7.047  12.968   3.758
 1033SOL    HW2 4997   6.931  13.008   3.847
 1034SOL     OW 4998   6.067  12.042   3.486
 1034SOL    HW1 4999   6.155  12.066   3.457
 1034SOL    HW2 5000   6.010  12.077   3.418
 1035SOL     OW 5001   0.857   5.215   5.042
 1035SOL    HW1 5002   0.813   5.218   4.957
 1035SOL    HW2 5003   0.791   5.181   5.102
 1036SOL     OW 5004   8.016   9.167   3.785
 1036SOL    HW1 5005   7.989   9.241   3.840
 1036SOL    HW2 5006   8.066   9.207   3.714
 1037SOL     OW 5007  10.740   8.353  10.375
 1037SOL    HW1 5008  10.790   8.271  10.368
 1037SOL    HW2 5009  10.743   8.391  10.287
 1038SOL     OW 5010   8.482   5.814   6.264
 1038SOL    HW1 5011   8.460   5.892   6.213
 1038SOL    HW2 5012   8.567   5.833   6.302
 1039SOL     OW 5013   8.402  14.688  11.182
 1039SOL    HW1 5014   8.323  14.740  11.196
 1039SOL    HW2 5015   8.385  14.606  11.227
 1040SOL     OW 5016   5.432   0.887   8.457
 1040SOL    HW1 5017   5.436   0.814   8.396
 1040SOL    HW2 5018   5.467   0.961   8.408
 1041SOL     OW 5019   6.051   5.692   7.833
 1041SOL    HW1 5020   6.118   5.624   7.828
 1041SOL    HW2 5021   6.045   5.713   7.926
 1042SOL     OW 5022  14.569  10.061   1.915
 1042SOL    HW1 5023  14.651  10.109   1.902
 1042SOL    HW2 5024  14.590   9.996   1.981
 1043SOL     OW 5025  11.339   6.255   0.332
 1043SOL    HW1 5026  11.322   6.161   0.319
 1043SOL    HW2 5027  11.381   6.260   0.418
 1044SOL     OW 5028   3.055   4.040  12.805
 1044SOL    HW1 5029   3.033   3.948  12.817
 1044SOL    HW2 5030   3.127   4.056  12.866
 1045SOL     OW 5031   9.427   2.077   8.465
 1045SOL    HW1 5032   9.490   2.078   8.537
 1045SOL    HW2 5033   9.357   2.136   8.493
 1046SOL     OW 5034   7.420  11.056   0.422
 1046SOL    HW1 5035   7.486  11.093   0.481
 1046SOL    HW2 5036   7.340  11.104   0.444
 1047SOL     OW 5037  14.719   2.834  14.669
 1047SOL    HW1 5038  14.790   2.830  14.605
 1047SOL    HW2 5039  14.646   2.874  14.622
 1048SOL     OW 5040  14.469   9.742   5.394
 1048SOL    HW1 5041  14.440   9.722   5.483
 1048SOL    HW2 5042  14.564   9.725   5.396
 1049SOL     OW 5043   9.959   6.085  11.211
 1049SOL    HW1 5044   9.916   6.032  11.278
 1049SOL    HW2 5045  10.053   6.072  11.228
 1050SOL     OW 5046  12.689   4.792   0.912
 1050SOL    HW1 5047  12.597   4.801   0.938
 1050SOL    HW2 5048  12.738   4.840   0.979
 1051SOL     OW 5049   4.554   6.146   5.080
 1051SOL    HW1 5050   4.501   6.221   5.109
 1051SOL    HW2 5051   4.536   6.141   4.986
 1052SOL     OW 5052   4.076  12.170   7.487
 1052SOL    HW1 5053   4.087  12.140   7.577
 1052SOL    HW2 5054   4.067  12.265   7.493
 1053SOL     OW 5055   0.964   1.264   8.286
 1053SOL    HW1 5056   0.943   1.351   8.321
 1053SOL    HW2 5057   0.883   1.235   8.244
 1054SOL     OW 5058   6.514   9.385   9.140
 1054SOL    HW1 5059   6.525   9.459   9.200
 1054SOL    HW2 5060   6.595   9.336   9.147
 1055SOL     OW 5061   2.861  11.279   1.490
 1055SOL    HW1 5062   2.869  11.262   1.396
 1055SOL    HW2 5063   2.769  11.262   1.511
 1056SOL     OW 5064  11.040   8.771   8.406
 1056SOL    HW1 5065  11.102   8.766   8.480
 1056SOL    HW2 5066  11.088   8.732   8.333
 1057SOL     OW 5067   5.033  10.487   2.902
 1057SOL    HW1 5068   4.967  10.556   2.895
 1057SOL    HW2 5069   4.984  10.409   2.926
 1058SOL     OW 5070   7.117   1.939  13.566
 1058SOL    HW1 5071   7.148   1.941  13.476
 1058SOL    HW2 5072   7.057   2.013  13.573
 1059SOL     OW 5073   1.700   0.077  10.782
 1059SOL    HW1 5074   1.673   0.008  10.843
 1059SOL    HW2 5075   1.758   0.133  10.833
 1060SOL     OW 5076   5.818   6.742   2.760
 1060SOL    HW1 5077   5.771   6.779   2.834
 1060SOL    HW2 5078   5.852   6.818   2.712
 1061SOL     OW 5079   8.773  11.767  10.233
 1061SOL    HW1 5080   8.786  11.697  10.168
 1061SOL    HW2 5081   8.772  11.722  10.317
 1062SOL     OW 5082   5.916   5.098   8.363
 1062SOL    HW1 5083   5.942   5.124   8.451
 1062SOL    HW2 5084   5.999   5.076   8.319
 1063SOL     OW 5085   0.875   3.635   9.140
 1063SOL    HW1 5086   0.907   3.698   9.074
 1063SOL    HW2 5087   0.840   3.690   9.209
 1064SOL     OW 5088   4.508   8.584   2.499
 1064SOL    HW1 5089   4.431   8.568   2.444
 1064SOL    HW2 5090   4.523   8.679   2.492
 1065SOL     OW 5091  11.245   6.734  11.109
 1065SOL    HW1 5092  11.297   6.702  11.036
 1065SOL    HW2 5093  11.278   6.823  11.126
 1066SOL     OW 5094   1.620   6.037  14.131
 1066SOL    HW1 5095   1.681   5.962  14.132
 1066SOL    HW2 5096   1.576   6.031  14.047
 1067SOL     OW 5097  11.389   8.783  12.486
 1067SOL    HW1 5098  11.402   8.837  12.564
 1067SOL    HW2 5099  11.477   8.768  12.452
 1068SOL     OW 5100   8.211  14.623   0.901
 1068SOL    HW1 5101   8.197  14.641   0.994
 1068SOL    HW2 5102   8.154  14.548   0.883
 1069SOL     OW 5103  11.489   5.735   5.253
 1069SOL    HW1 5104  11.450   5.754   5.168
 1069SOL    HW2 5105  11.422   5.761   5.316
 1070SOL     OW 5106  14.399   9.685   4.957
 1070SOL    HW1 5107  14.365   9.734   5.032
 1070SOL    HW2 5108  14.473   9.635   4.993
 1071SOL     OW 5109   1.210  13.941  11.648
 1071SOL    HW1 5110   1.222  13.880  11.721
 1071SOL    HW2 5111   1.257  14.020  11.676
 1072SOL     OW 5112   3.330  10.109   1.581
 1072SOL    HW1 5113   3.260  10.163   1.545
 1072SOL    HW2 5114   3.394  10.102   1.509
 1073SOL     OW 5115  14.306   6.921   2.628
 1073SOL    HW1 5116  14.239   6.966   2.680
 1073SOL    HW2 5117  14.257   6.860   2.574
 1074SOL     OW 5118  11.213   6.287   7.207
 1074SOL    HW1 5119  11.152   6.275   7.280
 1074SOL    HW2 5120  11.190   6.371   7.170
 1075SOL     OW 5121  14.701   8.797  10.985
 1075SOL    HW1 5122  14.781   8.845  10.961
 1075SOL    HW2 5123  14.729   8.706  10.992
 1076SOL     OW 5124   8.950   8.413   2.097
 1076SOL    HW1 5125   8.940   8.357   2.021
 1076SOL    HW2 5126   9.000   8.489   2.065
 1077SOL     OW 5127   8.710  12.033  11.522
 1077SOL    HW1 5128   8.757  12.052  11.441
 1077SOL    HW2 5129   8.620  12.059  11.505
 1078SOL     OW 5130   6.446   3.381   6.051
 1078SOL    HW1 5131   6.448   3.355   6.143
 1078SOL    HW2 5132   6.477   3.472   6.051
 1079SOL     OW 5133  11.724  10.777  10.106
 1079SOL    HW1 5134  11.629  10.768  10.096
 1079SOL    HW2 5135  11.736  10.796  10.199
 1080SOL     OW 5136  14.841  13.293   2.491
 1080SOL    HW1 5137  14.806  13.295   2.402
 1080SOL    HW2 5138  14.823  13.205   2.523
 1081SOL     OW 5139  11.034   2.128   8.724
 1081SOL    HW1 5140  11.119   2.093   8.751
 1081SOL    HW2 5141  10.976   2.110   8.797
 1082SOL     OW 5142  12.219   8.800   4.690
 1082SOL    HW1 5143  12.270   8.746   4.630
 1082SOL    HW2 5144  12.256   8.782   4.776
 1083SOL     OW 5145   8.751  10.766  13.177
 1083SOL    HW1 5146   8.730  10.674  13.195
 1083SOL    HW2 5147   8.682  10.796  13.118
 1084SOL     OW 5148  10.835   9.556   7.636
 1084SOL    HW1 5149  10.752   9.603   7.640
 1084SOL    HW2 5150  10.876   9.570   7.721
 1085SOL     OW 5151  10.213   4.914   8.275
 1085SOL    HW1 5152  10.141   4.975   8.292
 1085SOL    HW2 5153  10.173   4.843   8.226
 1086SOL     OW 5154   2.227  13.807  11.125
 1086SOL    HW1 5155   2.161  13.871  11.150
 1086SOL    HW2 5156   2.225  13.742  11.195
 1087SOL     OW 5157   7.728   7.866   2.756
 1087SOL    HW1 5158   7.694   7.812   2.827
 1087SOL    HW2 5159   7.680   7.949   2.764
 1088SOL     OW 5160   3.611   8.990   7.644
 1088SOL    HW1 5161   3.589   8.983   7.737
 1088SOL    HW2 5162   3.537   8.950   7.599
 1089SOL     OW 5163   5.616   8.734   4.731
 1089SOL    HW1 5164   5.601   8.768   4.819
 1089SOL    HW2 5165   5.600   8.640   4.738
 1090SOL     OW 5166   0.222   2.318   4.603
 1090SOL    HW1 5167   0.201   2.228   4.579
 1090SOL    HW2 5168   0.213   2.367   4.521
 1091SOL     OW 5169   7.370   3.790   8.212
 1091SOL    HW1 5170   7.306   3.770   8.144
 1091SOL    HW2 5171   7.350   3.728   8.282
 1092SOL     OW 5172  12.548   3.753   5.688
 1092SOL    HW1 5173  12.523   3.819   5.623
 1092SOL    HW2 5174  12.643   3.763   5.698
 1093SOL     OW 5175  13.106   5.706   9.674
 1093SOL    HW1 5176  13.061   5.790   9.662
 1093SOL    HW2 5177  13.060   5.666   9.748
 1094SOL     OW 5178   5.015   5.880   6.966
 1094SOL    HW1 5179   5.030   5.962   7.013
 1094SOL    HW2 5180   4.983   5.906   6.880
 1095SOL     OW 5181   6.038   2.759  13.328
 1095SOL    HW1 5182   5.975   2.707  13.278
 1095SOL    HW2 5183   5.998   2.767  13.415
 1096SOL     OW 5184  12.140   2.671   9.393
 1096SOL    HW1 5185  12.094   2.749   9.362
 1096SOL    HW2 5186  12.077   2.600   9.378
 1097SOL     OW 5187  13.082   6.051   9.830
 1097SOL    HW1 5188  13.021   6.015   9.766
 1097SOL    HW2 5189  13.165   6.006   9.812
 1098SOL     OW 5190  10.586   6.338   9.510
 1098SOL    HW1 5191  10.546   6.278   9.572
 1098SOL    HW2 5192  10.663   6.293   9.477
 1099SOL     OW 5193  14.131   1.663  14.315
 1099SOL    HW1 5194  14.081   1.583  14.329
 1099SOL    HW2 5195  14.187   1.670  14.392
 1100SOL     OW 5196  11.229   1.307  13.926
 1100SOL    HW1 5197  11.233   1.281  13.834
 1100SOL    HW2 5198  11.136   1.313  13.946
 1101SOL     OW 5199   7.434  13.381  13.026
 1101SOL    HW1 5200   7.392  13.384  13.112
 1101SOL    HW2 5201   7.518  13.338  13.041
 1102SOL     OW 5202   7.198   7.743  11.784
 1102SOL    HW1 5203   7.197   7.672  11.721
 1102SOL    HW2 5204   7.290   7.757  11.804
 1103SOL     OW 5205   9.256   7.026   0.547
 1103SOL    HW1 5206   9.331   7.037   0.605
 1103SOL    HW2 5207   9.203   7.105   0.561
 1104SOL     OW 5208   5.363   5.470   0.892
 1104SOL    HW1 5209   5.447   5.517   0.891
 1104SOL    HW2 5210   5.306   5.522   0.834
 1105SOL     OW 5211  11.862   6.282   8.631
 1105SOL    HW1 5212  11.773   6.287   8.595
 1105SOL    HW2 5213  11.906   6.216   8.577
 1106SOL     OW 5214  13.394  10.040   4.389
 1106SOL    HW1 5215  13.319   9.993   4.427
 1106SOL    HW2 5216  13.383  10.130   4.420
 1107SOL     OW 5217   7.934   5.496  13.530
 1107SOL    HW1 5218   7.987   5.522  13.455
 1107SOL    HW2 5219   7.942   5.400  13.533
 1108SOL     OW 5220  13.920   4.143   5.257
 1108SOL    HW1 5221  14.014   4.122   5.255
 1108SOL    HW2 5222  13.878   4.064   5.290
 1109SOL     OW 5223   7.528  11.589  10.235
 1109SOL    HW1 5224   7.620  11.563  10.230
 1109SOL    HW2 5225   7.494  11.576  10.147
 1110SOL     OW 5226  12.907  14.457   4.065
 1110SOL    HW1 5227  12.916  14.512   3.987
 1110SOL    HW2 5228  12.821  14.479   4.100
 1111SOL     OW 5229   6.435  10.753   5.019
 1111SOL    HW1 5230   6.468  10.828   4.970
 1111SOL    HW2 5231   6.507  10.729   5.078
 1112SOL     OW 5232   3.070   0.393   4.052
 1112SOL    HW1 5233   3.020   0.335   3.995
 1112SOL    HW2 5234   3.072   0.347   4.136
 1113SOL     OW 5235   9.531   5.579   9.857
 1113SOL    HW1 5236   9.542   5.656   9.800
 1113SOL    HW2 5237   9.619   5.546   9.870
 1114SOL     OW 5238   1.773   7.832  13.742
 1114SOL    HW1 5239   1.803   7.815  13.653
 1114SOL    HW2 5240   1.754   7.745  13.777
 1115SOL     OW 5241  11.785   5.148   9.255
 1115SOL    HW1 5242  11.879   5.163   9.245
 1115SOL    HW2 5243  11.755   5.124   9.167
 1116SOL     OW 5244   5.902  11.125   6.983
 1116SOL    HW1 5245   5.825  11.095   6.935
 1116SOL    HW2 5246   5.961  11.157   6.916
 1117SOL     OW 5247  12.101  12.014  12.813
 1117SOL    HW1 5248  12.024  12.067  12.792
 1117SOL    HW2 5249  12.107  11.951  12.742
 1118SOL     OW 5250   9.409  12.927   1.834
 1118SOL    HW1 5251   9.323  12.884   1.837
 1118SOL    HW2 5252   9.454  12.893   1.912
 1119SOL     OW 5253  13.257   7.350   6.682
 1119SOL    HW1 5254  13.282   7.258   6.690
 1119SOL    HW2 5255  13.284   7.390   6.764
 1120SOL     OW 5256   9.574   9.952   8.995
 1120SOL    HW1 5257   9.657   9.929   8.954
 1120SOL    HW2 5258   9.598   9.987   9.080
 1121SOL     OW 5259   6.911   8.489   3.223
 1121SOL    HW1 5260   6.846   8.506   3.291
 1121SOL    HW2 5261   6.897   8.398   3.199
 1122SOL     OW 5262   9.793  13.592   1.006
 1122SOL    HW1 5263   9.699  13.608   1.005
 1122SOL    HW2 5264   9.801  13.497   1.004
 1123SOL     OW 5265   3.284   2.584   4.634
 1123SOL    HW1 5266   3.193   2.557   4.638
 1123SOL    HW2 5267   3.281   2.679   4.645
 1124SOL     OW 5268   4.579   7.642   7.406
 1124SOL    HW1 5269   4.656   7.598   7.441
 1124SOL    HW2 5270   4.545   7.693   7.480
 1125SOL     OW 5271   6.893   5.246   9.213
 1125SOL    HW1 5272   6.817   5.298   9.185
 1125SOL    HW2 5273   6.880   5.234   9.307
 1126SOL     OW 5274  11.916  13.975   4.387
 1126SOL    HW1 5275  11.898  14.037   4.317
 1126SOL    HW2 5276  11.917  14.029   4.467
 1127SOL     OW 5277  13.756  14.097   2.335
 1127SOL    HW1 5278  13.828  14.104   2.272
 1127SOL    HW2 5279  13.718  14.011   2.318
 1128SOL     OW 5280  14.643  12.272   8.102
 1128SOL    HW1 5281  14.703  12.346   8.103
 1128SOL    HW2 5282  14.624  12.257   8.010
 1129SOL     OW 5283   3.988  10.023   6.393
 1129SOL    HW1 5284   3.925  10.085   6.358
 1129SOL    HW2 5285   4.023   9.978   6.316
 1130SOL     OW 5286   2.087   9.899   7.479
 1130SOL    HW1 5287   2.147   9.829   7.453
 1130SOL    HW2 5288   2.072   9.884   7.573
 1131SOL     OW 5289  10.997   1.304   7.696
 1131SOL    HW1 5290  11.007   1.227   7.640
 1131SOL    HW2 5291  10.908   1.296   7.731
 1132SOL     OW 5292   6.413   3.282   9.693
 1132SOL    HW1 5293   6.449   3.365   9.663
 1132SOL    HW2 5294   6.435   3.278   9.786
 1133SOL     OW 5295  14.094  11.638   1.579
 1133SOL    HW1 5296  14.048  11.698   1.639
 1133SOL    HW2 5297  14.031  11.568   1.563
 1134SOL     OW 5298  13.777   5.438   9.375
 1134SOL    HW1 5299  13.797   5.352   9.412
 1134SOL    HW2 5300  13.835   5.498   9.422
 1135SOL     OW 5301   2.041   2.805   8.927
 1135SOL    HW1 5302   2.033   2.728   8.983
 1135SOL    HW2 5303   2.064   2.876   8.986
 1136SOL     OW 5304   9.121   1.759   3.640
 1136SOL    HW1 5305   9.132   1.665   3.628
 1136SOL    HW2 5306   9.200   1.798   3.602
 1137SOL     OW 5307  13.814   9.830   5.035
 1137SOL    HW1 5308  13.806   9.920   5.002
 1137SOL    HW2 5309  13.729   9.790   5.015
 1138SOL     OW 5310   5.848   6.602  13.045
 1138SOL    HW1 5311   5.910   6.675  13.042
 1138SOL    HW2 5312   5.772   6.633  12.997
 1139SOL     OW 5313  11.920   5.845   0.158
 1139SOL    HW1 5314  11.920   5.939   0.140
 1139SOL    HW2 5315  11.863   5.835   0.235
 1140SOL     OW 5316   6.261   4.938  13.800
 1140SOL    HW1 5317   6.342   4.970  13.761
 1140SOL    HW2 5318   6.215   5.018  13.828
 1141SOL     OW 5319  12.337   3.871  14.855
 1141SOL    HW1 5320  12.292   3.791  14.879
 1141SOL    HW2 5321  12.270   3.939  14.860
 1142SOL     OW 5322  13.566   2.916   2.872
 1142SOL    HW1 5323  13.661   2.913   2.859
 1142SOL    HW2 5324  13.541   2.825   2.887
 1143SOL     OW 5325   4.923  13.863   4.440
 1143SOL    HW1 5326   4.906  13.845   4.348
 1143SOL    HW2 5327   4.895  13.784   4.486
 1144SOL     OW 5328   8.790  12.049   5.726
 1144SOL    HW1 5329   8.702  12.084   5.711
 1144SOL    HW2 5330   8.848  12.114   5.687
 1145SOL     OW 5331   6.850  12.368  12.563
 1145SOL    HW1 5332   6.943  12.366  12.583
 1145SOL    HW2 5333   6.809  12.400  12.644
 1146SOL     OW 5334   5.337   0.252   2.606
 1146SOL    HW1 5335   5.297   0.283   2.687
 1146SOL    HW2 5336   5.361   0.161   2.625
 1147SOL     OW 5337   2.854  14.098  12.447
 1147SOL    HW1 5338   2.898  14.013  12.456
 1147SOL    HW2 5339   2.922  14.158  12.418
 1148SOL     OW 5340   9.854   4.640   9.588
 1148SOL    HW1 5341   9.896   4.719   9.624
 1148SOL    HW2 5342   9.810   4.670   9.509
 1149SOL     OW 5343   7.709   9.531  11.980
 1149SOL    HW1 5344   7.662   9.574  11.908
 1149SOL    HW2 5345   7.794   9.509  11.944
 1150SOL     OW 5346   3.308   4.693  14.776
 1150SOL    HW1 5347   3.269   4.752  14.711
 1150SOL    HW2 5348   3.285   4.605  14.746
 1151SOL     OW 5349   3.838   9.730   9.082
 1151SOL    HW1 5350   3.855   9.767   9.169
 1151SOL    HW2 5351   3.788   9.650   9.101
 1152SOL     OW 5352  14.320   2.881   0.130
 1152SOL    HW1 5353  14.372   2.960   0.143
 1152SOL    HW2 5354  14.358   2.817   0.190
 1153SOL     OW 5355   7.929   0.272   9.316
 1153SOL    HW1 5356   7.956   0.307   9.402
 1153SOL    HW2 5357   7.834   0.269   9.321
 1154SOL     OW 5358  11.033   4.958   3.045
 1154SOL    HW1 5359  11.043   4.916   3.130
 1154SOL    HW2 5360  11.118   4.945   3.002
 1155SOL     OW 5361   4.920  14.329   7.217
 1155SOL    HW1 5362   4.924  14.234   7.224
 1155SOL    HW2 5363   4.829  14.349   7.198
 1156SOL     OW 5364   2.988   0.815  10.212
 1156SOL    HW1 5365   2.975   0.774  10.297
 1156SOL    HW2 5366   2.952   0.903  10.223
 1157SOL     OW 5367  10.058  10.562   1.185
 1157SOL    HW1 5368  10.127  10.627   1.192
 1157SOL    HW2 5369  10.041  10.536   1.276
 1158SOL     OW 5370   3.108   5.313   1.599
 1158SOL    HW1 5371   3.170   5.285   1.667
 1158SOL    HW2 5372   3.081   5.401   1.626
 1159SOL     OW 5373   1.534   2.839   7.981
 1159SOL    HW1 5374   1.513   2.746   7.969
 1159SOL    HW2 5375   1.589   2.840   8.060
 1160SOL     OW 5376  10.634   1.393  10.080
 1160SOL    HW1 5377  10.571   1.415  10.149
 1160SOL    HW2 5378  10.664   1.305  10.104
 1161SOL     OW 5379   7.142   7.414   0.634
 1161SOL    HW1 5380   7.116   7.344   0.694
 1161SOL    HW2 5381   7.235   7.397   0.616
 1162SOL     OW 5382   4.244  11.331   3.925
 1162SOL    HW1 5383   4.190  11.361   3.852
 1162SOL    HW2 5384   4.199  11.253   3.958
 1163SOL     OW 5385  12.286   7.792  10.677
 1163SOL    HW1 5386  12.220   7.728  10.703
 1163SOL    HW2 5387  12.350   7.742  10.626
 1164SOL     OW 5388  11.508   4.373  10.578
 1164SOL    HW1 5389  11.497   4.455  10.530
 1164SOL    HW2 5390  11.440   4.374  10.645
 1165SOL     OW 5391  14.678   5.442   4.893
 1165SOL    HW1 5392  14.584   5.421   4.897
 1165SOL    HW2 5393  14.721   5.357   4.891
 1166SOL     OW 5394   4.445   3.713  12.848
 1166SOL    HW1 5395   4.523   3.741  12.895
 1166SOL    HW2 5396   4.372   3.738  12.904
 1167SOL     OW 5397   3.412   4.708   4.557
 1167SOL    HW1 5398   3.506   4.691   4.549
 1167SOL    HW2 5399   3.383   4.649   4.626
 1168SOL     OW 5400  10.785   3.184  13.787
 1168SOL    HW1 5401  10.774   3.139  13.703
 1168SOL    HW2 5402  10.857   3.245  13.771
 1169SOL     OW 5403   8.694  10.097   5.322
 1169SOL    HW1 5404   8.777  10.143   5.309
 1169SOL    HW2 5405   8.629  10.167   5.327
 1170SOL     OW 5406   2.125   3.556   2.911
 1170SOL    HW1 5407   2.117   3.500   2.835
 1170SOL    HW2 5408   2.070   3.514   2.978
 1171SOL     OW 5409  11.828   9.599   5.362
 1171SOL    HW1 5410  11.824   9.694   5.369
 1171SOL    HW2 5411  11.841   9.568   5.452
 1172SOL     OW 5412   0.329   3.083   2.771
 1172SOL    HW1 5413   0.354   3.124   2.854
 1172SOL    HW2 5414   0.238   3.110   2.757
 1173SOL     OW 5415   2.648  13.362   2.368
 1173SOL    HW1 5416   2.641  13.370   2.273
 1173SOL    HW2 5417   2.621  13.273   2.388
 1174SOL     OW 5418   4.441   6.868   4.263
 1174SOL    HW1 5419   4.496   6.847   4.339
 1174SOL    HW2 5420   4.396   6.786   4.243
 1175SOL     OW 5421  13.573   3.181   3.367
 1175SOL    HW1 5422  13.579   3.112   3.301
 1175SOL    HW2 5423  13.534   3.255   3.321
 1176SOL     OW 5424   4.968  13.795   7.699
 1176SOL    HW1 5425   4.915  13.855   7.752
 1176SOL    HW2 5426   4.904  13.733   7.663
 1177SOL     OW 5427   4.946   7.589   3.111
 1177SOL    HW1 5428   4.931   7.680   3.138
 1177SOL    HW2 5429   4.861   7.547   3.121
 1178SOL     OW 5430  13.489   1.943  11.101
 1178SOL    HW1 5431  13.450   2.024  11.071
 1178SOL    HW2 5432  13.445   1.875  11.050
 1179SOL     OW 5433   6.878   6.342   1.984
 1179SOL    HW1 5434   6.835   6.404   2.042
 1179SOL    HW2 5435   6.826   6.262   1.992
 1180SOL     OW 5436  14.759   0.420   3.386
 1180SOL    HW1 5437  14.745   0.514   3.400
 1180SOL    HW2 5438  14.679   0.391   3.341
 1181SOL     OW 5439  11.454   0.567  12.322
 1181SOL    HW1 5440  11.393   0.637  12.344
 1181SOL    HW2 5441  11.411   0.487  12.352
 1182SOL     OW 5442  13.850  14.185   0.845
 1182SOL    HW1 5443  13.910  14.257   0.825
 1182SOL    HW2 5444  13.784  14.189   0.776
 1183SOL     OW 5445  12.923   8.710   5.053
 1183SOL    HW1 5446  12.961   8.624   5.074
 1183SOL    HW2 5447  12.974   8.742   4.979
 1184SOL     OW 5448   8.189   9.448  13.116
 1184SOL    HW1 5449   8.122   9.481  13.057
 1184SOL    HW2 5450   8.215   9.364  13.079
 1185SOL     OW 5451  12.480   2.065  12.263
 1185SOL    HW1 5452  12.537   2.125  12.215
 1185SOL    HW2 5453  12.483   1.983  12.213
 1186SOL     OW 5454   7.782   0.309   9.738
 1186SOL    HW1 5455   7.744   0.224   9.715
 1186SOL    HW2 5456   7.861   0.287   9.787
 1187SOL     OW 5457   9.190  11.527   0.903
 1187SOL    HW1 5458   9.107  11.482   0.885
 1187SOL    HW2 5459   9.181  11.559   0.992
 1188SOL     OW 5460   5.372   0.348   7.607
 1188SOL    HW1 5461   5.315   0.288   7.559
 1188SOL    HW2 5462   5.319   0.378   7.681
 1189SOL     OW 5463   4.711   3.388  14.504
 1189SOL    HW1 5464   4.797   3.374  14.543
 1189SOL    HW2 5465   4.713   3.479  14.473
 1190SOL     OW 5466   5.886   8.685  13.731
 1190SOL    HW1 5467   5.982   8.694  13.727
 1190SOL    HW2 5468   5.854   8.774  13.746
 1191SOL     OW 5469   1.026   0.605   7.906
 1191SOL    HW1 5470   1.070   0.687   7.928
 1191SOL    HW2 5471   0.939   0.612   7.947
 1192SOL     OW 5472   2.552   2.004   9.955
 1192SOL    HW1 5473   2.562   2.024  10.048
 1192SOL    HW2 5474   2.459   1.983   9.945
 1193SOL     OW 5475   8.289   5.627   5.941
 1193SOL    HW1 5476   8.301   5.719   5.961
 1193SOL    HW2 5477   8.221   5.626   5.873
 1194SOL     OW 5478  10.490   1.038  11.120
 1194SOL    HW1 5479  10.452   1.118  11.084
 1194SOL    HW2 5480  10.441   1.022  11.200
 1195SOL     OW 5481   7.832   1.503   6.317
 1195SOL    HW1 5482   7.854   1.442   6.246
 1195SOL    HW2 5483   7.744   1.533   6.296
 1196SOL     OW 5484   1.865   7.878   1.828
 1196SOL    HW1 5485   1.843   7.785   1.831
 1196SOL    HW2 5486   1.842   7.912   1.915
 1197SOL     OW 5487  12.502   7.958  10.811
 1197SOL    HW1 5488  12.451   7.940  10.890
 1197SOL    HW2 5489  12.444   7.933  10.739
 1198SOL     OW 5490   5.128  12.891  10.530
 1198SOL    HW1 5491   5.127  12.943  10.450
 1198SOL    HW2 5492   5.037  12.891  10.560
 1199SOL     OW 5493   9.290   0.005   4.144
 1199SOL    HW1 5494   9.271  14.884   4.238
 1199SOL    HW2 5495   9.232   0.076   4.115
 1200SOL     OW 5496  10.928   1.053   7.629
 1200SOL    HW1 5497  10.986   0.982   7.599
 1200SOL    HW2 5498  10.858   1.055   7.564
 1201SOL     OW 5499  13.185   0.740   1.845
 1201SOL    HW1 5500  13.273   0.718   1.813
 1201SOL    HW2 5501  13.197   0.821   1.894
 1202SOL     OW 5502  13.377   3.768  14.145
 1202SOL    HW1 5503  13.342   3.830  14.081
 1202SOL    HW2 5504  13.410   3.695  14.094
 1203SOL     OW 5505   3.314   5.281   4.870
 1203SOL    HW1 5506   3.297   5.201   4.820
 1203SOL    HW2 5507   3.358   5.339   4.808
 1204SOL     OW 5508   1.627   2.639   4.610
 1204SOL    HW1 5509   1.610   2.559   4.560
 1204SOL    HW2 5510   1.691   2.613   4.676
 1205SOL     OW 5511   8.760   4.109   4.046
 1205SOL    HW1 5512   8.788   4.108   4.137
 1205SOL    HW2 5513   8.797   4.189   4.010
 1206SOL     OW 5514  11.146   7.431  12.560
 1206SOL    HW1 5515  11.095   7.463  12.634
 1206SOL    HW2 5516  11.162   7.339  12.579
 1207SOL     OW 5517   2.429  10.533   2.670
 1207SOL    HW1 5518   2.521  10.507   2.669
 1207SOL    HW2 5519   2.430  10.624   2.638
 1208SOL     OW 5520  11.109   0.998   8.088
 1208SOL    HW1 5521  11.051   0.946   8.144
 1208SOL    HW2 5522  11.155   0.933   8.035
 1209SOL     OW 5523  11.933  14.756   6.779
 1209SOL    HW1 5524  11.859  14.695   6.774
 1209SOL    HW2 5525  11.928  14.806   6.698
 1210SOL     OW 5526  10.884   6.704  11.711
 1210SOL    HW1 5527  10.840   6.790  11.711
 1210SOL    HW2 5528  10.913   6.693  11.621
 1211SOL     OW 5529   3.864   3.403   2.905
 1211SOL    HW1 5530   3.909   3.332   2.859
 1211SOL    HW2 5531   3.926   3.476   2.905
 1212SOL     OW 5532   7.330   6.383   1.686
 1212SOL    HW1 5533   7.343   6.410   1.777
 1212SOL    HW2 5534   7.256   6.322   1.689
 1213SOL     OW 5535   9.229   5.963  11.768
 1213SOL    HW1 5536   9.163   6.030  11.749
 1213SOL    HW2 5537   9.286   6.003  11.834
 1214SOL     OW 5538   6.801  14.506   1.610
 1214SOL    HW1 5539   6.878  14.454   1.587
 1214SOL    HW2 5540   6.804  14.581   1.551
 1215SOL     OW 5541   2.712  12.396   6.406
 1215SOL    HW1 5542   2.804  12.397   6.433
 1215SOL    HW2 5543   2.674  12.322   6.453
 1216SOL     OW 5544  13.622   7.368  12.915
 1216SOL    HW1 5545  13.534   7.378  12.879
 1216SOL    HW2 5546  13.679   7.359  12.838
 1217SOL     OW 5547   6.753  10.986   6.701
 1217SOL    HW1 5548   6.712  10.905   6.671
 1217SOL    HW2 5549   6.841  10.961   6.728
 1218SOL     OW 5550  14.312   9.695   1.087
 1218SOL    HW1 5551  14.317   9.718   1.179
 1218SOL    HW2 5552  14.219   9.702   1.065
 1219SOL     OW 5553   4.594  11.396  14.694
 1219SOL    HW1 5554   4.599  11.305  14.666
 1219SOL    HW2 5555   4.503  11.410  14.718
 1220SOL     OW 5556  13.259  14.369   4.895
 1220SOL    HW1 5557  13.273  14.295   4.954
 1220SOL    HW2 5558  13.165  14.386   4.900
 1221SOL     OW 5559   7.561   3.559   3.949
 1221SOL    HW1 5560   7.596   3.520   4.029
 1221SOL    HW2 5561   7.622   3.629   3.927
 1222SOL     OW 5562   6.353   0.385   3.628
 1222SOL    HW1 5563   6.430   0.357   3.677
 1222SOL    HW2 5564   6.294   0.422   3.694
 1223SOL     OW 5565   3.570   8.960   1.797
 1223SOL    HW1 5566   3.589   9.007   1.716
 1223SOL    HW2 5567   3.475   8.945   1.794
 1224SOL     OW 5568   7.647  13.131   4.947
 1224SOL    HW1 5569   7.688  13.053   4.908
 1224SOL    HW2 5570   7.708  13.202   4.928
 1225SOL     OW 5571   1.325   6.109   6.195
 1225SOL    HW1 5572   1.316   6.024   6.239
 1225SOL    HW2 5573   1.397   6.152   6.241
 1226SOL     OW 5574   5.205  13.762   0.792
 1226SOL    HW1 5575   5.246  13.772   0.707
 1226SOL    HW2 5576   5.133  13.825   0.793
 1227SOL     OW 5577   6.080   0.722   0.407
 1227SOL    HW1 5578   6.096   0.804   0.455
 1227SOL    HW2 5579   6.043   0.750   0.324
 1228SOL     OW 5580  13.784   0.199   6.727
 1228SOL    HW1 5581  13.746   0.113   6.745
 1228SOL    HW2 5582  13.754   0.253   6.800
 1229SOL     OW 5583   5.525   5.895   5.668
 1229SOL    HW1 5584   5.561   5.808   5.650
 1229SOL    HW2 5585   5.490   5.887   5.758
 1230SOL     OW 5586  12.326  13.085  13.982
 1230SOL    HW1 5587  12.236  13.094  13.952
 1230SOL    HW2 5588  12.355  13.001  13.946
 1231SOL     OW 5589   2.291  13.542   6.504
 1231SOL    HW1 5590   2.351  13.474   6.473
 1231SOL    HW2 5591   2.348  13.615   6.527
 1232SOL     OW 5592  12.035   2.926   8.714
 1232SOL    HW1 5593  12.075   2.873   8.645
 1232SOL    HW2 5594  11.945   2.941   8.684
 1233SOL     OW 5595  12.516  11.078   6.757
 1233SOL    HW1 5596  12.481  11.166   6.765
 1233SOL    HW2 5597  12.474  11.028   6.828
 1234SOL     OW 5598   8.456   6.479   7.011
 1234SOL    HW1 5599   8.464   6.539   7.085
 1234SOL    HW2 5600   8.540   6.485   6.965
 1235SOL     OW 5601   7.078   5.548   6.480
 1235SOL    HW1 5602   7.100   5.478   6.418
 1235SOL    HW2 5603   7.142   5.616   6.464
 1236SOL     OW 5604   6.679   9.585   7.816
 1236SOL    HW1 5605   6.748   9.635   7.771
 1236SOL    HW2 5606   6.607   9.647   7.824
 1237SOL     OW 5607   1.698   1.112   0.988
 1237SOL    HW1 5608   1.632   1.105   1.057
 1237SOL    HW2 5609   1.650   1.146   0.912
 1238SOL     OW 5610   0.723   2.630   5.321
 1238SOL    HW1 5611   0.810   2.667   5.338
 1238SOL    HW2 5612   0.728   2.598   5.230
 1239SOL     OW 5613  12.451   2.215   6.151
 1239SOL    HW1 5614  12.468   2.172   6.235
 1239SOL    HW2 5615  12.500   2.163   6.087
 1240SOL     OW 5616  10.808  12.500  10.950
 1240SOL    HW1 5617  10.810  12.524  11.043
 1240SOL    HW2 5618  10.759  12.570  10.908
 1241SOL     OW 5619   1.543  10.107  10.838
 1241SOL    HW1 5620   1.552  10.071  10.926
 1241SOL    HW2 5621   1.519  10.032  10.783
 1242SOL     OW 5622  12.956   6.996  13.879
 1242SOL    HW1 5623  12.869   6.963  13.859
 1242SOL    HW2 5624  13.015   6.942  13.827
 1243SOL     OW 5625   2.346   5.652   6.878
 1243SOL    HW1 5626   2.347   5.565   6.919
 1243SOL    HW2 5627   2.357   5.713   6.951
 1244SOL     OW 5628  12.351   7.150   2.869
 1244SOL    HW1 5629  12.329   7.224   2.812
 1244SOL    HW2 5630  12.267   7.112   2.892
 1245SOL     OW 5631   7.407  11.951  10.033
 1245SOL    HW1 5632   7.351  11.956  10.111
 1245SOL    HW2 5633   7.491  11.984  10.062
 1246SOL     OW 5634   2.642  10.881  13.814
 1246SOL    HW1 5635   2.680  10.959  13.774
 1246SOL    HW2 5636   2.692  10.869  13.895
 1247SOL     OW 5637   8.973  12.864   0.280
 1247SOL    HW1 5638   9.015  12.950   0.277
 1247SOL    HW2 5639   8.949  12.852   0.372
 1248SOL     OW 5640   3.656   1.943  14.343
 1248SOL    HW1 5641   3.654   1.857  14.386
 1248SOL    HW2 5642   3.589   1.994  14.389
 1249SOL     OW 5643   3.137   7.844   5.881
 1249SOL    HW1 5644   3.112   7.870   5.970
 1249SOL    HW2 5645   3.170   7.755   5.890
 1250SOL     OW 5646  12.878  10.904   7.143
 1250SOL    HW1 5647  12.819  10.965   7.099
 1250SOL    HW2 5648  12.960  10.952   7.152
 1251SOL     OW 5649   9.073   8.259  13.566
 1251SOL    HW1 5650   9.079   8.247  13.472
 1251SOL    HW2 5651   9.001   8.321  13.579
 1252SOL     OW 5652   8.962   0.749   0.768
 1252SOL    HW1 5653   8.929   0.692   0.698
 1252SOL    HW2 5654   8.949   0.698   0.848
 1253SOL     OW 5655   8.927  13.986  11.558
 1253SOL    HW1 5656   8.909  14.070  11.602
 1253SOL    HW2 5657   8.921  14.007  11.465
 1254SOL     OW 5658  14.694   7.037   8.314
 1254SOL    HW1 5659  14.620   6.977   8.319
 1254SOL    HW2 5660  14.754   7.008   8.383
 1255SOL     OW 5661   7.639   8.880  13.048
 1255SOL    HW1 5662   7.720   8.918  13.081
 1255SOL    HW2 5663   7.574   8.900  13.114
 1256SOL     OW 5664   7.687   2.619   8.019
 1256SOL    HW1 5665   7.779   2.596   8.031
 1256SOL    HW2 5666   7.639   2.554   8.070
 1257SOL     OW 5667   5.253   8.148  14.699
 1257SOL    HW1 5668   5.185   8.102  14.748
 1257SOL    HW2 5669   5.218   8.155  14.610
 1258SOL     OW 5670   7.819   2.293   8.559
 1258SOL    HW1 5671   7.866   2.323   8.637
 1258SOL    HW2 5672   7.767   2.218   8.589
 1259SOL     OW 5673  13.664   3.930   7.729
 1259SOL    HW1 5674  13.677   3.986   7.805
 1259SOL    HW2 5675  13.576   3.952   7.697
 1260SOL     OW 5676   4.516  13.289   2.719
 1260SOL    HW1 5677   4.461  13.231   2.771
 1260SOL    HW2 5678   4.589  13.311   2.775
 1261SOL     OW 5679   1.334  10.443   3.331
 1261SOL    HW1 5680   1.390  10.388   3.277
 1261SOL    HW2 5681   1.289  10.500   3.268
 1262SOL     OW 5682   3.185   3.792   6.788
 1262SOL    HW1 5683   3.182   3.788   6.693
 1262SOL    HW2 5684   3.175   3.701   6.816
 1263SOL     OW 5685   2.500   6.844   5.427
 1263SOL    HW1 5686   2.417   6.891   5.428
 1263SOL    HW2 5687   2.540   6.866   5.343
 1264SOL     OW 5688  11.319   0.728   2.178
 1264SOL    HW1 5689  11.238   0.685   2.204
 1264SOL    HW2 5690  11.383   0.657   2.171
 1265SOL     OW 5691  11.563   6.265   9.453
 1265SOL    HW1 5692  11.608   6.270   9.538
 1265SOL    HW2 5693  11.470   6.275   9.475
 1266SOL     OW 5694  11.553  13.618   8.440
 1266SOL    HW1 5695  11.477  13.671   8.417
 1266SOL    HW2 5696  11.622  13.681   8.458
 1267SOL     OW 5697   2.123  10.255   9.999
 1267SOL    HW1 5698   2.093  10.300   9.920
 1267SOL    HW2 5699   2.047  10.206  10.029
 1268SOL     OW 5700   3.174   0.389  11.594
 1268SOL    HW1 5701   3.202   0.350  11.677
 1268SOL    HW2 5702   3.255   0.406  11.546
 1269SOL     OW 5703   0.908  14.042   9.878
 1269SOL    HW1 5704   0.980  13.979   9.886
 1269SOL    HW2 5705   0.831  13.987   9.861
 1270SOL     OW 5706  14.127   6.137   9.408
 1270SOL    HW1 5707  14.114   6.211   9.349
 1270SOL    HW2 5708  14.113   6.174   9.495
 1271SOL     OW 5709   3.081   0.658   3.967
 1271SOL    HW1 5710   3.085   0.563   3.970
 1271SOL    HW2 5711   3.143   0.682   3.898
 1272SOL     OW 5712   5.219   8.077   7.894
 1272SOL    HW1 5713   5.279   8.066   7.819
 1272SOL    HW2 5714   5.236   8.165   7.925
 1273SOL     OW 5715   0.949   9.284   1.146
 1273SOL    HW1 5716   0.882   9.351   1.164
 1273SOL    HW2 5717   0.999   9.278   1.227
 1274SOL     OW 5718  12.614   2.179   8.854
 1274SOL    HW1 5719  12.700   2.149   8.824
 1274SOL    HW2 5720  12.594   2.123   8.929
 1275SOL     OW 5721   8.923  12.350   9.806
 1275SOL    HW1 5722   8.981  12.396   9.747
 1275SOL    HW2 5723   8.894  12.273   9.757
 1276SOL     OW 5724   8.117   7.343   6.340
 1276SOL    HW1 5725   8.158   7.383   6.416
 1276SOL    HW2 5726   8.023   7.360   6.351
 1277SOL     OW 5727  11.744  12.102   9.834
 1277SOL    HW1 5728  11.776  12.148   9.912
 1277SOL    HW2 5729  11.787  12.146   9.761
 1278SOL     OW 5730   5.668  14.845  10.311
 1278SOL    HW1 5731   5.650  14.751  10.322
 1278SOL    HW2 5732   5.582  14.885  10.300
 1279SOL     OW 5733   8.558   5.690  12.805
 1279SOL    HW1 5734   8.597   5.602  12.798
 1279SOL    HW2 5735   8.472   5.675  12.843
 1280SOL     OW 5736  10.983   4.035   2.420
 1280SOL    HW1 5737  11.046   3.983   2.468
 1280SOL    HW2 5738  10.929   3.971   2.373
 1281SOL     OW 5739  14.372   3.258   2.716
 1281SOL    HW1 5740  14.292   3.211   2.742
 1281SOL    HW2 5741  14.422   3.194   2.665
 1282SOL     OW 5742  10.903   7.942   9.198
 1282SOL    HW1 5743  10.880   8.006   9.265
 1282SOL    HW2 5744  10.832   7.879   9.199
 1283SOL     OW 5745  14.723   1.429   2.868
 1283SOL    HW1 5746  14.642   1.480   2.880
 1283SOL    HW2 5747  14.697   1.356   2.811
 1284SOL     OW 5748   8.315   6.570   0.183
 1284SOL    HW1 5749   8.337   6.661   0.166
 1284SOL    HW2 5750   8.399   6.529   0.204
 1285SOL     OW 5751   0.409  10.029   0.098
 1285SOL    HW1 5752   0.413   9.972   0.021
 1285SOL    HW2 5753   0.327  10.005   0.141
 1286SOL     OW 5754   0.952   3.359   4.151
 1286SOL    HW1 5755   0.966   3.275   4.195
 1286SOL    HW2 5756   0.892   3.406   4.208
 1287SOL     OW 5757  13.724   5.133   8.165
 1287SOL    HW1 5758  13.715   5.098   8.077
 1287SOL    HW2 5759  13.637   5.167   8.186
 1288SOL     OW 5760  10.124  14.576  11.360
 1288SOL    HW1 5761  10.067  14.618  11.425
 1288SOL    HW2 5762  10.081  14.595  11.276
 1289SOL     OW 5763   3.376  12.206  10.773
 1289SOL    HW1 5764   3.452  12.245  10.817
 1289SOL    HW2 5765   3.382  12.237  10.683
 1290SOL     OW 5766  11.581   2.614   1.470
 1290SOL    HW1 5767  11.507   2.660   1.429
 1290SOL    HW2 5768  11.554   2.601   1.561
 1291SOL     OW 5769   8.824   7.353   0.198
 1291SOL    HW1 5770   8.791   7.325   0.283
 1291SOL    HW2 5771   8.754   7.331   0.136
 1292SOL     OW 5772   5.842   7.375   3.167
 1292SOL    HW1 5773   5.862   7.468   3.159
 1292SOL    HW2 5774   5.919   7.337   3.210
 1293SOL     OW 5775   5.857  12.814  13.146
 1293SOL    HW1 5776   5.781  12.839  13.093
 1293SOL    HW2 5777   5.925  12.793  13.082
 1294SOL     OW 5778  12.073   3.856   7.513
 1294SOL    HW1 5779  12.168   3.841   7.521
 1294SOL    HW2 5780  12.037   3.769   7.495
 1295SOL     OW 5781   9.359   8.821   0.204
 1295SOL    HW1 5782   9.331   8.866   0.283
 1295SOL    HW2 5783   9.353   8.728   0.225
 1296SOL     OW 5784  14.463   4.784   5.090
 1296SOL    HW1 5785  14.410   4.734   5.027
 1296SOL    HW2 5786  14.465   4.729   5.168
 1297SOL     OW 5787  12.502   0.779  14.673
 1297SOL    HW1 5788  12.578   0.812  14.721
 1297SOL    HW2 5789  12.463   0.856  14.633
 1298SOL     OW 5790  10.017   1.704   8.805
 1298SOL    HW1 5791   9.980   1.706   8.894
 1298SOL    HW2 5792  10.024   1.796   8.780
 1299SOL     OW 5793   5.688   3.938  14.300
 1299SOL    HW1 5794   5.709   4.019  14.253
 1299SOL    HW2 5795   5.610   3.904  14.257
 1300SOL     OW 5796  14.529   3.261  12.573
 1300SOL    HW1 5797  14.532   3.354  12.548
 1300SOL    HW2 5798  14.506   3.263  12.666
 1301SOL     OW 5799  14.543  14.387  14.661
 1301SOL    HW1 5800  14.567  14.478  14.676
 1301SOL    HW2 5801  14.620  14.347  14.620
 1302SOL     OW 5802   0.430   6.700   0.507
 1302SOL    HW1 5803   0.497   6.723   0.443
 1302SOL    HW2 5804   0.347   6.716   0.461
 1303SOL     OW 5805   7.142   4.416   1.857
 1303SOL    HW1 5806   7.198   4.492   1.839
 1303SOL    HW2 5807   7.059   4.436   1.815
 1304SOL     OW 5808  10.976   1.613   5.985
 1304SOL    HW1 5809  11.065   1.646   5.995
 1304SOL    HW2 5810  10.962   1.609   5.890
 1305SOL     OW 5811  14.438   2.808  14.030
 1305SOL    HW1 5812  14.415   2.886  14.081
 1305SOL    HW2 5813  14.484   2.842  13.953
 1306SOL     OW 5814   5.865   4.998   6.027
 1306SOL    HW1 5815   5.827   4.928   6.081
 1306SOL    HW2 5816   5.852   4.969   5.937
 1307SOL     OW 5817  14.355  12.552   6.461
 1307SOL    HW1 5818  14.260  12.545   6.468
 1307SOL    HW2 5819  14.369  12.640   6.425
 1308SOL     OW 5820   3.229   9.092   3.237
 1308SOL    HW1 5821   3.163   9.152   3.201
 1308SOL    HW2 5822   3.202   9.005   3.206
 1309SOL     OW 5823   3.301   2.872   6.873
 1309SOL    HW1 5824   3.267   2.848   6.787
 1309SOL    HW2 5825   3.318   2.788   6.916
 1310SOL     OW 5826   4.479   7.151   6.137
 1310SOL    HW1 5827   4.442   7.064   6.147
 1310SOL    HW2 5828   4.565   7.146   6.178
 1311SOL     OW 5829   6.974   8.791  10.351
 1311SOL    HW1 5830   7.069   8.774  10.352
 1311SOL    HW2 5831   6.938   8.715  10.305
 1312SOL     OW 5832   0.703  11.987   9.999
 1312SOL    HW1 5833   0.778  11.951  10.045
 1312SOL    HW2 5834   0.631  11.927  10.018
 1313SOL     OW 5835   2.206  12.240  11.721
 1313SOL    HW1 5836   2.177  12.266  11.808
 1313SOL    HW2 5837   2.293  12.280  11.712
 1314SOL     OW 5838   4.826   2.138  14.391
 1314SOL    HW1 5839   4.837   2.054  14.348
 1314SOL    HW2 5840   4.775   2.119  14.470
 1315SOL     OW 5841  13.643  11.190  10.398
 1315SOL    HW1 5842  13.614  11.099  10.402
 1315SOL    HW2 5843  13.737  11.184  10.380
 1316SOL     OW 5844  10.353   6.050  10.763
 1316SOL    HW1 5845  10.339   6.145  10.766
 1316SOL    HW2 5846  10.281   6.018  10.708
 1317SOL     OW 5847   6.303   4.902  11.905
 1317SOL    HW1 5848   6.274   4.897  11.814
 1317SOL    HW2 5849   6.288   4.815  11.940
 1318SOL     OW 5850   7.662   8.661  14.553
 1318SOL    HW1 5851   7.581   8.710  14.538
 1318SOL    HW2 5852   7.683   8.677  14.645
 1319SOL     OW 5853   3.297   0.309   4.358
 1319SOL    HW1 5854   3.331   0.398   4.369
 1319SOL    HW2 5855   3.202   0.321   4.352
 1320SOL     OW 5856   6.700  10.764   5.130
 1320SOL    HW1 5857   6.675  10.829   5.195
 1320SOL    HW2 5858   6.792  10.745   5.150
 1321SOL     OW 5859   6.127  11.996  14.574
 1321SOL    HW1 5860   6.077  12.067  14.615
 1321SOL    HW2 5861   6.173  12.038  14.501
 1322SOL     OW 5862   3.727   2.533   7.035
 1322SOL    HW1 5863   3.655   2.522   6.973
 1322SOL    HW2 5864   3.780   2.454   7.025
 1323SOL     OW 5865   3.460  13.664   8.049
 1323SOL    HW1 5866   3.481  13.757   8.058
 1323SOL    HW2 5867   3.535  13.626   8.005
 1324SOL     OW 5868  14.618  12.654   6.205
 1324SOL    HW1 5869  14.611  12.732   6.260
 1324SOL    HW2 5870  14.535  12.651   6.157
 1325SOL     OW 5871   3.307   0.591  12.173
 1325SOL    HW1 5872   3.265   0.509  12.199
 1325SOL    HW2 5873   3.288   0.651  12.245
 1326SOL     OW 5874   0.478   1.319  10.449
 1326SOL    HW1 5875   0.527   1.334  10.368
 1326SOL    HW2 5876   0.430   1.238  10.433
 1327SOL     OW 5877   4.478  13.404   9.461
 1327SOL    HW1 5878   4.395  13.382   9.503
 1327SOL    HW2 5879   4.472  13.364   9.374
 1328SOL     OW 5880   9.201   6.651   0.760
 1328SOL    HW1 5881   9.273   6.692   0.713
 1328SOL    HW2 5882   9.166   6.721   0.815
 1329SOL     OW 5883   1.707   7.773   8.012
 1329SOL    HW1 5884   1.763   7.840   7.975
 1329SOL    HW2 5885   1.618   7.807   8.001
 1330SOL     OW 5886   9.927   8.190   8.590
 1330SOL    HW1 5887   9.997   8.253   8.576
 1330SOL    HW2 5888   9.923   8.139   8.509
 1331SOL     OW 5889   2.031   0.899   2.951
 1331SOL    HW1 5890   2.096   0.959   2.987
 1331SOL    HW2 5891   2.070   0.868   2.870
 1332SOL     OW 5892   2.439   5.197   5.644
 1332SOL    HW1 5893   2.365   5.135   5.647
 1332SOL    HW2 5894   2.415   5.259   5.575
 1333SOL     OW 5895   5.067   7.699   9.215
 1333SOL    HW1 5896   5.069   7.795   9.216
 1333SOL    HW2 5897   5.155   7.674   9.189
 1334SOL     OW 5898   2.215  10.543   0.591
 1334SOL    HW1 5899   2.251  10.533   0.679
 1334SOL    HW2 5900   2.140  10.600   0.602
 1335SOL     OW 5901   6.255   9.189   2.667
 1335SOL    HW1 5902   6.168   9.153   2.687
 1335SOL    HW2 5903   6.270   9.166   2.575
 1336SOL     OW 5904   1.068   4.036   0.395
 1336SOL    HW1 5905   1.146   4.055   0.447
 1336SOL    HW2 5906   1.079   3.945   0.367
 1337SOL     OW 5907   4.604   4.504   8.273
 1337SOL    HW1 5908   4.525   4.461   8.240
 1337SOL    HW2 5909   4.580   4.535   8.360
 1338SOL     OW 5910  14.249   0.875   6.887
 1338SOL    HW1 5911  14.317   0.941   6.898
 1338SOL    HW2 5912  14.293   0.801   6.844
 1339SOL     OW 5913  14.123   8.280   6.920
 1339SOL    HW1 5914  14.028   8.270   6.933
 1339SOL    HW2 5915  14.162   8.211   6.974
 1340SOL     OW 5916   7.758   8.077  14.096
 1340SOL    HW1 5917   7.735   8.145  14.159
 1340SOL    HW2 5918   7.731   8.112  14.012
 1341SOL     OW 5919  10.320   8.628   5.954
 1341SOL    HW1 5920  10.331   8.717   5.987
 1341SOL    HW2 5921  10.246   8.633   5.894
 1342SOL     OW 5922   7.695   6.263   4.136
 1342SOL    HW1 5923   7.701   6.358   4.128
 1342SOL    HW2 5924   7.683   6.232   4.046
 1343SOL     OW 5925   0.142  10.930  11.388
 1343SOL    HW1 5926   0.177  10.862  11.331
 1343SOL    HW2 5927   0.105  10.995  11.327
 1344SOL     OW 5928  14.753  10.378   5.892
 1344SOL    HW1 5929  14.840  10.397   5.925
 1344SOL    HW2 5930  14.756  10.285   5.867
 1345SOL     OW 5931   3.477  13.460   8.488
 1345SOL    HW1 5932   3.523  13.533   8.531
 1345SOL    HW2 5933   3.475  13.391   8.554
 1346SOL     OW 5934  14.231  12.895   4.011
 1346SOL    HW1 5935  14.169  12.913   4.082
 1346SOL    HW2 5936  14.263  12.807   4.029
 1347SOL     OW 5937   6.501  14.108   0.601
 1347SOL    HW1 5938   6.498  14.046   0.673
 1347SOL    HW2 5939   6.486  14.054   0.523
 1348SOL     OW 5940   7.321   9.097  11.712
 1348SOL    HW1 5941   7.352   9.179  11.749
 1348SOL    HW2 5942   7.292   9.046  11.788
 1349SOL     OW 5943   0.937   4.152  11.728
 1349SOL    HW1 5944   0.882   4.186  11.798
 1349SOL    HW2 5945   0.965   4.230  11.680
 1350SOL     OW 5946  10.494  14.123  11.705
 1350SOL    HW1 5947  10.411  14.168  11.692
 1350SOL    HW2 5948  10.556  14.171  11.649
 1351SOL     OW 5949   9.876   1.305  10.061
 1351SOL    HW1 5950   9.905   1.214  10.067
 1351SOL    HW2 5951   9.800   1.303  10.003
 1352SOL     OW 5952  14.143   3.981   1.399
 1352SOL    HW1 5953  14.052   4.008   1.417
 1352SOL    HW2 5954  14.196   4.046   1.445
 1353SOL     OW 5955   7.068   1.538  12.872
 1353SOL    HW1 5956   7.109   1.573  12.793
 1353SOL    HW2 5957   6.990   1.591  12.884
 1354SOL     OW 5958   6.595   2.278  11.522
 1354SOL    HW1 5959   6.536   2.328  11.464
 1354SOL    HW2 5960   6.536   2.226  11.576
 1355SOL     OW 5961   0.917  13.476  12.050
 1355SOL    HW1 5962   0.838  13.520  12.082
 1355SOL    HW2 5963   0.911  13.387  12.085
 1356SOL     OW 5964  12.672   8.662   7.947
 1356SOL    HW1 5965  12.620   8.586   7.969
 1356SOL    HW2 5966  12.724   8.680   8.025
 1357SOL     OW 5967   8.640   6.149   1.957
 1357SOL    HW1 5968   8.683   6.235   1.967
 1357SOL    HW2 5969   8.585   6.141   2.034
 1358SOL     OW 5970  12.343  13.366   9.752
 1358SOL    HW1 5971  12.252  13.343   9.774
 1358SOL    HW2 5972  12.339  13.393   9.660
 1359SOL     OW 5973  10.694   4.558   8.211
 1359SOL    HW1 5974  10.727   4.497   8.146
 1359SOL    HW2 5975  10.770   4.613   8.233
 1360SOL     OW 5976  11.574  10.326   4.010
 1360SOL    HW1 5977  11.535  10.239   4.020
 1360SOL    HW2 5978  11.528  10.364   3.935
 1361SOL     OW 5979   7.779   8.465  12.091
 1361SOL    HW1 5980   7.786   8.478  11.997
 1361SOL    HW2 5981   7.870   8.464  12.122
 1362SOL     OW 5982  14.793   4.597  14.596
 1362SOL    HW1 5983  14.878   4.640  14.606
 1362SOL    HW2 5984  14.814   4.509  14.566
 1363SOL     OW 5985   4.510   2.816   9.957
 1363SOL    HW1 5986   4.505   2.802  10.051
 1363SOL    HW2 5987   4.433   2.871   9.937
 1364SOL     OW 5988   8.074   3.188  11.053
 1364SOL    HW1 5989   8.009   3.127  11.087
 1364SOL    HW2 5990   8.106   3.234  11.131
 1365SOL     OW 5991   5.827   2.707  11.458
 1365SOL    HW1 5992   5.791   2.629  11.499
 1365SOL    HW2 5993   5.845   2.681  11.368
 1366SOL     OW 5994   4.077   2.887  11.524
 1366SOL    HW1 5995   4.154   2.833  11.503
 1366SOL    HW2 5996   4.003   2.828  11.509
 1367SOL     OW 5997   7.807   2.977  10.282
 1367SOL    HW1 5998   7.813   2.914  10.354
 1367SOL    HW2 5999   7.860   2.938  10.212
 1368SOL     OW 6000   0.875   6.247  12.018
 1368SOL    HW1 6001   0.946   6.218  12.076
 1368SOL    HW2 6002   0.912   6.241  11.930
 1369SOL     OW 6003   3.090   6.712   2.997
 1369SOL    HW1 6004   3.009   6.678   3.035
 1369SOL    HW2 6005   3.079   6.807   2.997
 1370SOL     OW 6006  13.531   1.545   4.082
 1370SOL    HW1 6007  13.503   1.636   4.073
 1370SOL    HW2 6008  13.551   1.517   3.992
 1371SOL     OW 6009  13.677   8.412   9.183
 1371SOL    HW1 6010  13.743   8.444   9.121
 1371SOL    HW2 6011  13.721   8.413   9.268
 1372SOL     OW 6012   0.409  13.204   0.348
 1372SOL    HW1 6013   0.343  13.224   0.281
 1372SOL    HW2 6014   0.360  13.206   0.430
 1373SOL     OW 6015   6.403   3.154  12.892
 1373SOL    HW1 6016   6.446   3.150  12.977
 1373SOL    HW2 6017   6.362   3.068  12.882
 1374SOL     OW 6018   8.320   2.332  10.867
 1374SOL    HW1 6019   8.331   2.390  10.792
 1374SOL    HW2 6020   8.378   2.258  10.849
 1375SOL     OW 6021  13.466   1.223   1.951
 1375SOL    HW1 6022  13.550   1.269   1.950
 1375SOL    HW2 6023  13.478   1.150   1.891
 1376SOL     OW 6024  14.884   2.090  14.849
 1376SOL    HW1 6025  14.843   2.158  14.795
 1376SOL    HW2 6026   0.069   2.057  14.796
 1377SOL     OW 6027   9.822   4.228   8.702
 1377SOL    HW1 6028   9.760   4.233   8.775
 1377SOL    HW2 6029   9.782   4.282   8.633
 1378SOL     OW 6030   8.733   3.621   6.061
 1378SOL    HW1 6031   8.690   3.592   5.981
 1378SOL    HW2 6032   8.707   3.713   6.070
 1379SOL     OW 6033   5.071   8.552   6.931
 1379SOL    HW1 6034   5.148   8.608   6.938
 1379SOL    HW2 6035   5.106   8.463   6.924
 1380SOL     OW 6036   8.167   6.107   3.894
 1380SOL    HW1 6037   8.245   6.052   3.898
 1380SOL    HW2 6038   8.135   6.109   3.984
 1381SOL     OW 6039   7.996   7.098   5.021
 1381SOL    HW1 6040   8.042   7.179   5.043
 1381SOL    HW2 6041   7.941   7.081   5.098
 1382SOL     OW 6042   6.702   6.327   1.448
 1382SOL    HW1 6043   6.701   6.364   1.536
 1382SOL    HW2 6044   6.615   6.344   1.413
 1383SOL     OW 6045  10.929   8.961  11.012
 1383SOL    HW1 6046  10.969   9.047  11.012
 1383SOL    HW2 6047  10.848   8.972  11.062
 1384SOL     OW 6048   8.831   0.893   4.645
 1384SOL    HW1 6049   8.786   0.870   4.563
 1384SOL    HW2 6050   8.922   0.906   4.620
 1385SOL     OW 6051   6.577   1.568   8.417
 1385SOL    HW1 6052   6.516   1.633   8.452
 1385SOL    HW2 6053   6.528   1.485   8.420
 1386SOL     OW 6054   1.411   8.945   6.443
 1386SOL    HW1 6055   1.424   9.007   6.514
 1386SOL    HW2 6056   1.452   8.864   6.473
 1387SOL     OW 6057   4.433   1.338  14.673
 1387SOL    HW1 6058   4.518   1.308  14.707
 1387SOL    HW2 6059   4.371   1.324  14.744
 1388SOL     OW 6060  14.341   5.507   7.366
 1388SOL    HW1 6061  14.379   5.429   7.327
 1388SOL    HW2 6062  14.355   5.576   7.302
 1389SOL     OW 6063   5.298   3.705   0.847
 1389SOL    HW1 6064   5.276   3.617   0.879
 1389SOL    HW2 6065   5.238   3.719   0.773
 1390SOL     OW 6066  11.068   3.312   9.821
 1390SOL    HW1 6067  11.122   3.266   9.756
 1390SOL    HW2 6068  11.002   3.247   9.847
 1391SOL     OW 6069   0.960   2.120   7.704
 1391SOL    HW1 6070   0.981   2.060   7.632
 1391SOL    HW2 6071   0.925   2.064   7.773
 1392SOL     OW 6072  10.377   4.451   4.207
 1392SOL    HW1 6073  10.450   4.512   4.212
 1392SOL    HW2 6074  10.366   4.421   4.297
 1393SOL     OW 6075  13.414   9.713   5.412
 1393SOL    HW1 6076  13.413   9.755   5.498
 1393SOL    HW2 6077  13.386   9.623   5.430
 1394SOL     OW 6078  13.891   8.660  13.859
 1394SOL    HW1 6079  13.947   8.587  13.832
 1394SOL    HW2 6080  13.889   8.718  13.783
 1395SOL     OW 6081   5.569   5.230   9.788
 1395SOL    HW1 6082   5.654   5.187   9.779
 1395SOL    HW2 6083   5.563   5.287   9.711
 1396SOL     OW 6084   1.442   1.255   8.010
 1396SOL    HW1 6085   1.418   1.322   7.946
 1396SOL    HW2 6086   1.506   1.200   7.965
 1397SOL     OW 6087  14.416  13.732   2.054
 1397SOL    HW1 6088  14.492  13.768   2.099
 1397SOL    HW2 6089  14.415  13.639   2.077
 1398SOL     OW 6090   8.527   0.972   7.936
 1398SOL    HW1 6091   8.455   0.910   7.930
 1398SOL    HW2 6092   8.601   0.927   7.895
 1399SOL     OW 6093   9.542   7.928   1.395
 1399SOL    HW1 6094   9.529   7.996   1.461
 1399SOL    HW2 6095   9.461   7.929   1.344
 1400SOL     OW 6096   7.517   8.502   4.325
 1400SOL    HW1 6097   7.524   8.469   4.235
 1400SOL    HW2 6098   7.506   8.423   4.379
 1401SOL     OW 6099  14.389   5.172  12.516
 1401SOL    HW1 6100  14.455   5.116  12.557
 1401SOL    HW2 6101  14.355   5.120  12.443
 1402SOL     OW 6102  11.272   1.417   1.975
 1402SOL    HW1 6103  11.209   1.405   1.904
 1402SOL    HW2 6104  11.239   1.494   2.023
 1403SOL     OW 6105   9.047   1.002   7.057
 1403SOL    HW1 6106   9.021   1.040   7.141
 1403SOL    HW2 6107   8.967   0.965   7.020
 1404SOL     OW 6108   0.960   9.241   7.230
 1404SOL    HW1 6109   1.003   9.242   7.145
 1404SOL    HW2 6110   0.892   9.309   7.224
 1405SOL     OW 6111   5.043   3.438   2.993
 1405SOL    HW1 6112   4.983   3.513   2.988
 1405SOL    HW2 6113   5.099   3.458   3.068
 1406SOL     OW 6114  10.948  10.230   5.344
 1406SOL    HW1 6115  10.943  10.262   5.434
 1406SOL    HW2 6116  10.857  10.207   5.322
 1407SOL     OW 6117  12.644   8.684   6.519
 1407SOL    HW1 6118  12.678   8.768   6.488
 1407SOL    HW2 6119  12.690   8.669   6.602
 1408SOL     OW 6120  14.612   4.382  13.559
 1408SOL    HW1 6121  14.524   4.355  13.583
 1408SOL    HW2 6122  14.657   4.393  13.642
 1409SOL     OW 6123   8.682  11.736   6.089
 1409SOL    HW1 6124   8.587  11.751   6.087
 1409SOL    HW2 6125   8.719  11.807   6.036
 1410SOL     OW 6126   4.822   3.362   6.372
 1410SOL    HW1 6127   4.884   3.414   6.424
 1410SOL    HW2 6128   4.737   3.404   6.388
 1411SOL     OW 6129  10.634  12.188  14.733
 1411SOL    HW1 6130  10.726  12.204  14.713
 1411SOL    HW2 6131  10.635  12.129  14.808
 1412SOL     OW 6132   9.871  14.220   7.660
 1412SOL    HW1 6133   9.868  14.144   7.718
 1412SOL    HW2 6134   9.915  14.189   7.581
 1413SOL     OW 6135   7.977   7.161   3.021
 1413SOL    HW1 6136   7.958   7.181   3.113
 1413SOL    HW2 6137   7.994   7.067   3.021
 1414SOL     OW 6138  11.210   6.647   9.793
 1414SOL    HW1 6139  11.181   6.559   9.820
 1414SOL    HW2 6140  11.133   6.702   9.804
 1415SOL     OW 6141   7.745   7.089   9.437
 1415SOL    HW1 6142   7.812   7.021   9.426
 1415SOL    HW2 6143   7.704   7.069   9.521
 1416SOL     OW 6144   1.437  10.424   2.157
 1416SOL    HW1 6145   1.496  10.349   2.151
 1416SOL    HW2 6146   1.463  10.482   2.085
 1417SOL     OW 6147   1.159   3.908   2.455
 1417SOL    HW1 6148   1.193   3.959   2.382
 1417SOL    HW2 6149   1.236   3.865   2.492
 1418SOL     OW 6150  12.245   3.066  13.881
 1418SOL    HW1 6151  12.214   3.130  13.816
 1418SOL    HW2 6152  12.192   3.083  13.959
 1419SOL     OW 6153  14.298   5.774   6.790
 1419SOL    HW1 6154  14.245   5.807   6.863
 1419SOL    HW2 6155  14.265   5.685   6.775
 1420SOL     OW 6156   7.986   2.802  14.273
 1420SOL    HW1 6157   8.073   2.789  14.311
 1420SOL    HW2 6158   7.966   2.718  14.231
 1421SOL     OW 6159  12.661   9.010  14.572
 1421SOL    HW1 6160  12.580   9.009  14.523
 1421SOL    HW2 6161  12.695   9.099  14.561
 1422SOL     OW 6162   8.174   1.251   1.407
 1422SOL    HW1 6163   8.151   1.288   1.322
 1422SOL    HW2 6164   8.266   1.224   1.396
 1423SOL     OW 6165   3.387  14.095   2.844
 1423SOL    HW1 6166   3.472  14.058   2.867
 1423SOL    HW2 6167   3.331  14.076   2.919
 1424SOL     OW 6168  12.269  11.899  10.034
 1424SOL    HW1 6169  12.219  11.879   9.954
 1424SOL    HW2 6170  12.343  11.839  10.031
 1425SOL     OW 6171   5.501   0.726  13.268
 1425SOL    HW1 6172   5.551   0.776  13.332
 1425SOL    HW2 6173   5.440   0.674  13.320
 1426SOL     OW 6174   1.337   5.924   3.578
 1426SOL    HW1 6175   1.409   5.974   3.539
 1426SOL    HW2 6176   1.375   5.885   3.657
 1427SOL     OW 6177   2.659  13.674   3.461
 1427SOL    HW1 6178   2.596  13.675   3.533
 1427SOL    HW2 6179   2.742  13.700   3.501
 1428SOL     OW 6180   8.707   8.002  13.459
 1428SOL    HW1 6181   8.689   7.921  13.410
 1428SOL    HW2 6182   8.622   8.045  13.466
 1429SOL     OW 6183  12.569  11.952  13.535
 1429SOL    HW1 6184  12.520  12.012  13.479
 1429SOL    HW2 6185  12.591  11.878  13.478
 1430SOL     OW 6186   4.002  14.875  10.795
 1430SOL    HW1 6187   4.073   0.034  10.752
 1430SOL    HW2 6188   4.044  14.801  10.839
 1431SOL     OW 6189  10.245  12.963  13.410
 1431SOL    HW1 6190  10.262  12.881  13.456
 1431SOL    HW2 6191  10.222  12.937  13.321
 1432SOL     OW 6192   3.636   3.779   7.405
 1432SOL    HW1 6193   3.677   3.860   7.435
 1432SOL    HW2 6194   3.607   3.798   7.316
 1433SOL     OW 6195   7.317   7.682  12.083
 1433SOL    HW1 6196   7.374   7.719  12.016
 1433SOL    HW2 6197   7.229   7.694  12.049
 1434SOL     OW 6198   3.392   2.250   1.356
 1434SOL    HW1 6199   3.397   2.172   1.412
 1434SOL    HW2 6200   3.315   2.297   1.387
 1435SOL     OW 6201   7.152   8.203  11.482
 1435SOL    HW1 6202   7.213   8.261  11.437
 1435SOL    HW2 6203   7.076   8.258  11.502
 1436SOL     OW 6204   2.580   9.099   7.064
 1436SOL    HW1 6205   2.487   9.078   7.063
 1436SOL    HW2 6206   2.589   9.173   7.005
 1437SOL     OW 6207   9.080   5.882  12.632
 1437SOL    HW1 6208   9.132   5.816  12.680
 1437SOL    HW2 6209   8.995   5.840  12.618
 1438SOL     OW 6210   1.544   5.936   0.553
 1438SOL    HW1 6211   1.565   5.888   0.473
 1438SOL    HW2 6212   1.484   6.005   0.524
 1439SOL     OW 6213  14.863   2.485   6.930
 1439SOL    HW1 6214  14.883   2.533   7.011
 1439SOL    HW2 6215  14.867   2.393   6.956
 1440SOL     OW 6216   4.043   8.101   3.225
 1440SOL    HW1 6217   4.032   8.080   3.132
 1440SOL    HW2 6218   4.128   8.062   3.248
 1441SOL     OW 6219  10.732   6.244   2.967
 1441SOL    HW1 6220  10.745   6.310   3.036
 1441SOL    HW2 6221  10.690   6.292   2.896
 1442SOL     OW 6222  13.883  14.207   7.658
 1442SOL    HW1 6223  13.874  14.288   7.708
 1442SOL    HW2 6224  13.976  14.183   7.667
 1443SOL     OW 6225  11.187  14.143   6.847
 1443SOL    HW1 6226  11.198  14.086   6.771
 1443SOL    HW2 6227  11.139  14.219   6.814
 1444SOL     OW 6228   9.421   9.826   7.547
 1444SOL    HW1 6229   9.513   9.851   7.550
 1444SOL    HW2 6230   9.419   9.734   7.572
 1445SOL     OW 6231   0.222   2.997   6.248
 1445SOL    HW1 6232   0.247   3.089   6.243
 1445SOL    HW2 6233   0.164   2.983   6.173
 1446SOL     OW 6234  10.517   4.350   7.335
 1446SOL    HW1 6235  10.578   4.278   7.354
 1446SOL    HW2 6236  10.515   4.355   7.240
 1447SOL     OW 6237   8.830   8.161  10.737
 1447SOL    HW1 6238   8.902   8.125  10.685
 1447SOL    HW2 6239   8.753   8.152  10.681
 1448SOL     OW 6240   2.157   3.302  10.983
 1448SOL    HW1 6241   2.189   3.250  11.056
 1448SOL    HW2 6242   2.126   3.237  10.919
 1449SOL     OW 6243   9.878   6.760   3.609
 1449SOL    HW1 6244   9.965   6.767   3.569
 1449SOL    HW2 6245   9.843   6.849   3.608
 1450SOL     OW 6246  13.372   5.740   6.639
 1450SOL    HW1 6247  13.400   5.718   6.727
 1450SOL    HW2 6248  13.376   5.658   6.590
 1451SOL     OW 6249   1.088  10.788  10.672
 1451SOL    HW1 6250   1.031  10.711  10.660
 1451SOL    HW2 6251   1.060  10.848  10.603
 1452SOL     OW 6252   9.517   6.537   5.535
 1452SOL    HW1 6253   9.464   6.596   5.482
 1452SOL    HW2 6254   9.496   6.560   5.626
 1453SOL     OW 6255  11.363   5.387   7.330
 1453SOL    HW1 6256  11.420   5.444   7.381
 1453SOL    HW2 6257  11.352   5.309   7.385
 1454SOL     OW 6258   2.249   1.015   7.155
 1454SOL    HW1 6259   2.336   1.047   7.133
 1454SOL    HW2 6260   2.259   0.920   7.162
 1455SOL     OW 6261   8.902   8.396   0.843
 1455SOL    HW1 6262   8.951   8.373   0.765
 1455SOL    HW2 6263   8.937   8.480   0.870
 1456SOL     OW 6264  14.380   0.239  11.614
 1456SOL    HW1 6265  14.395   0.228  11.520
 1456SOL    HW2 6266  14.306   0.298  11.620
 1457SOL     OW 6267  10.034   3.755  11.561
 1457SOL    HW1 6268  10.036   3.809  11.640
 1457SOL    HW2 6269   9.967   3.689  11.578
 1458SOL     OW 6270   5.446   6.574   9.279
 1458SOL    HW1 6271   5.540   6.560   9.275
 1458SOL    HW2 6272   5.408   6.497   9.235
 1459SOL     OW 6273   3.701   9.027   1.162
 1459SOL    HW1 6274   3.760   8.966   1.205
 1459SOL    HW2 6275   3.656   8.975   1.096
 1460SOL     OW 6276  11.013   8.879  13.773
 1460SOL    HW1 6277  11.090   8.920  13.812
 1460SOL    HW2 6278  11.047   8.825  13.702
 1461SOL     OW 6279   9.406  12.801   0.331
 1461SOL    HW1 6280   9.460  12.871   0.369
 1461SOL    HW2 6281   9.427  12.723   0.382
 1462SOL     OW 6282   0.190   8.509   5.530
 1462SOL    HW1 6283   0.263   8.446   5.535
 1462SOL    HW2 6284   0.233   8.595   5.531
 1463SOL     OW 6285   9.066   4.979  14.477
 1463SOL    HW1 6286   9.143   4.929  14.504
 1463SOL    HW2 6287   9.053   5.042  14.547
 1464SOL     OW 6288   0.464  10.543   6.879
 1464SOL    HW1 6289   0.435  10.591   6.956
 1464SOL    HW2 6290   0.558  10.532   6.891
 1465SOL     OW 6291   9.508  13.107   6.379
 1465SOL    HW1 6292   9.427  13.129   6.333
 1465SOL    HW2 6293   9.577  13.146   6.325
 1466SOL     OW 6294   7.800   6.686  12.666
 1466SOL    HW1 6295   7.778   6.593  12.663
 1466SOL    HW2 6296   7.759   6.724  12.588
 1467SOL     OW 6297   9.484   6.235   9.299
 1467SOL    HW1 6298   9.445   6.317   9.271
 1467SOL    HW2 6299   9.451   6.221   9.388
 1468SOL     OW 6300   9.266  14.179   1.812
 1468SOL    HW1 6301   9.231  14.265   1.792
 1468SOL    HW2 6302   9.360  14.187   1.798
 1469SOL     OW 6303  11.788   2.974   9.556
 1469SOL    HW1 6304  11.841   3.025   9.494
 1469SOL    HW2 6305  11.781   2.888   9.516
 1470SOL     OW 6306   7.010  12.415  11.783
 1470SOL    HW1 6307   7.046  12.436  11.869
 1470SOL    HW2 6308   7.032  12.491  11.729
 1471SOL     OW 6309   6.205   3.188   3.870
 1471SOL    HW1 6310   6.208   3.284   3.871
 1471SOL    HW2 6311   6.297   3.161   3.876
 1472SOL     OW 6312   5.240  11.543  12.195
 1472SOL    HW1 6313   5.145  11.559  12.193
 1472SOL    HW2 6314   5.263  11.546  12.287
 1473SOL     OW 6315   4.623   0.392   0.753
 1473SOL    HW1 6316   4.572   0.321   0.791
 1473SOL    HW2 6317   4.685   0.349   0.695
 1474SOL     OW 6318   6.689   3.070   6.057
 1474SOL    HW1 6319   6.715   2.999   6.117
 1474SOL    HW2 6320   6.768   3.124   6.050
 1475SOL     OW 6321   4.836   0.338   3.643
 1475SOL    HW1 6322   4.919   0.333   3.690
 1475SOL    HW2 6323   4.854   0.299   3.558
 1476SOL     OW 6324   5.673  11.148   5.619
 1476SOL    HW1 6325   5.706  11.231   5.653
 1476SOL    HW2 6326   5.687  11.154   5.525
 1477SOL     OW 6327   6.964   6.817  12.808
 1477SOL    HW1 6328   7.004   6.752  12.750
 1477SOL    HW2 6329   6.983   6.785  12.896
 1478SOL     OW 6330   3.408   3.139   6.090
 1478SOL    HW1 6331   3.497   3.108   6.070
 1478SOL    HW2 6332   3.369   3.068   6.140
 1479SOL     OW 6333   6.713   2.964  10.262
 1479SOL    HW1 6334   6.733   3.030  10.327
 1479SOL    HW2 6335   6.791   2.908  10.259
 1480SOL     OW 6336  12.176   7.638   6.340
 1480SOL    HW1 6337  12.094   7.630   6.292
 1480SOL    HW2 6338  12.219   7.714   6.301
 1481SOL     OW 6339   9.509   3.809   5.864
 1481SOL    HW1 6340   9.588   3.779   5.819
 1481SOL    HW2 6341   9.517   3.773   5.953
 1482SOL     OW 6342  14.757   9.646   7.124
 1482SOL    HW1 6343  14.786   9.661   7.034
 1482SOL    HW2 6344  14.720   9.729   7.151
 1483SOL     OW 6345   0.179  14.198   6.210
 1483SOL    HW1 6346   0.147  14.285   6.187
 1483SOL    HW2 6347   0.273  14.209   6.223
 1484SOL     OW 6348   7.699   2.433   2.208
 1484SOL    HW1 6349   7.710   2.385   2.126
 1484SOL    HW2 6350   7.640   2.379   2.260
 1485SOL     OW 6351  13.818   7.282   6.752
 1485SOL    HW1 6352  13.742   7.311   6.702
 1485SOL    HW2 6353  13.880   7.355   6.746
 1486SOL     OW 6354  11.401   2.186   5.155
 1486SOL    HW1 6355  11.469   2.253   5.148
 1486SOL    HW2 6356  11.320   2.236   5.163
 1487SOL     OW 6357  14.697  10.005  14.096
 1487SOL    HW1 6358  14.791  10.000  14.111
 1487SOL    HW2 6359  14.684   9.968  14.009
 1488SOL     OW 6360   6.954  10.444  14.756
 1488SOL    HW1 6361   6.871  10.411  14.721
 1488SOL    HW2 6362   6.947  10.432  14.851
 1489SOL     OW 6363  13.186  11.499  11.743
 1489SOL    HW1 6364  13.217  11.566  11.803
 1489SOL    HW2 6365  13.167  11.546  11.662
 1490SOL     OW 6366   7.355   5.058   0.236
 1490SOL    HW1 6367   7.431   5.077   0.292
 1490SOL    HW2 6368   7.331   4.968   0.259
 1491SOL     OW 6369   1.700   7.978   5.251
 1491SOL    HW1 6370   1.783   7.973   5.203
 1491SOL    HW2 6371   1.684   7.889   5.281
 1492SOL     OW 6372   8.571  11.007   9.430
 1492SOL    HW1 6373   8.492  10.957   9.450
 1492SOL    HW2 6374   8.609  10.963   9.354
 1493SOL     OW 6375  13.549  10.315  11.307
 1493SOL    HW1 6376  13.476  10.255  11.294
 1493SOL    HW2 6377  13.582  10.331  11.219
 1494SOL     OW 6378   6.790   8.120  11.116
 1494SOL    HW1 6379   6.851   8.050  11.137
 1494SOL    HW2 6380   6.780   8.115  11.020
 1495SOL     OW 6381   0.692   7.529   3.706
 1495SOL    HW1 6382   0.630   7.496   3.772
 1495SOL    HW2 6383   0.661   7.493   3.623
 1496SOL     OW 6384   0.067   4.162   1.697
 1496SOL    HW1 6385   0.107   4.228   1.639
 1496SOL    HW2 6386   0.092   4.189   1.785
 1497SOL     OW 6387  13.689   3.944  13.082
 1497SOL    HW1 6388  13.641   4.025  13.066
 1497SOL    HW2 6389  13.724   3.953  13.171
 1498SOL     OW 6390   8.100   3.413   7.405
 1498SOL    HW1 6391   8.145   3.349   7.461
 1498SOL    HW2 6392   8.089   3.367   7.321
 1499SOL     OW 6393   5.816   4.757   1.815
 1499SOL    HW1 6394   5.888   4.705   1.848
 1499SOL    HW2 6395   5.830   4.845   1.852
 1500SOL     OW 6396   6.070   6.344   6.484
 1500SOL    HW1 6397   6.156   6.355   6.524
 1500SOL    HW2 6398   6.077   6.386   6.398
 1501SOL     OW 6399   0.251  14.585   4.182
 1501SOL    HW1 6400   0.257  14.662   4.239
 1501SOL    HW2 6401   0.320  14.527   4.212
 1502SOL     OW 6402   7.335  12.611  10.734
 1502SOL    HW1 6403   7.276  12.536  10.748
 1502SOL    HW2 6404   7.284  12.687  10.763
 1503SOL     OW 6405  12.509   2.427   8.381
 1503SOL    HW1 6406  12.474   2.345   8.416
 1503SOL    HW2 6407  12.477   2.430   8.291
 1504SOL     OW 6408   1.000   7.864   0.345
 1504SOL    HW1 6409   0.983   7.845   0.253
 1504SOL    HW2 6410   1.048   7.788   0.377
 1505SOL     OW 6411   2.317   1.840  11.247
 1505SOL    HW1 6412   2.257   1.915  11.242
 1505SOL    HW2 6413   2.288   1.781  11.178
 1506SOL     OW 6414   0.412  14.326  12.716
 1506SOL    HW1 6415   0.457  14.401  12.678
 1506SOL    HW2 6416   0.323  14.359  12.734
 1507SOL     OW 6417   0.038   4.655   7.913
 1507SOL    HW1 6418   0.049   4.750   7.915
 1507SOL    HW2 6419   0.108   4.624   7.856
 1508SOL     OW 6420  11.874  14.851   4.589
 1508SOL    HW1 6421  11.893   0.039   4.646
 1508SOL    HW2 6422  11.944  14.854   4.523
 1509SOL     OW 6423  14.550   2.331  12.568
 1509SOL    HW1 6424  14.544   2.372  12.654
 1509SOL    HW2 6425  14.470   2.358  12.523
 1510SOL     OW 6426   7.415   9.128   8.150
 1510SOL    HW1 6427   7.393   9.116   8.058
 1510SOL    HW2 6428   7.501   9.089   8.160
 1511SOL     OW 6429   9.525   6.946  14.728
 1511SOL    HW1 6430   9.610   6.979  14.699
 1511SOL    HW2 6431   9.495   6.889  14.657
 1512SOL     OW 6432   7.005   0.847  12.545
 1512SOL    HW1 6433   6.978   0.774  12.601
 1512SOL    HW2 6434   7.018   0.808  12.459
 1513SOL     OW 6435  13.187  12.836  11.762
 1513SOL    HW1 6436  13.260  12.781  11.735
 1513SOL    HW2 6437  13.160  12.801  11.846
 1514SOL     OW 6438   9.737   5.274   3.765
 1514SOL    HW1 6439   9.698   5.319   3.691
 1514SOL    HW2 6440   9.760   5.187   3.731
 1515SOL     OW 6441   0.107   5.354   8.541
 1515SOL    HW1 6442   0.200   5.348   8.519
 1515SOL    HW2 6443   0.070   5.272   8.509
 1516SOL     OW 6444  11.133   6.834  13.591
 1516SOL    HW1 6445  11.203   6.841  13.527
 1516SOL    HW2 6446  11.178   6.836  13.676
 1517SOL     OW 6447  11.689  10.314   9.920
 1517SOL    HW1 6448  11.740  10.395   9.918
 1517SOL    HW2 6449  11.643  10.317  10.003
 1518SOL     OW 6450  11.734  14.801   7.593
 1518SOL    HW1 6451  11.825  14.773   7.590
 1518SOL    HW2 6452  11.684  14.723   7.569
 1519SOL     OW 6453  11.253  10.321   6.610
 1519SOL    HW1 6454  11.322  10.385   6.593
 1519SOL    HW2 6455  11.273  10.248   6.552
 1520SOL     OW 6456   7.109   2.953  14.478
 1520SOL    HW1 6457   7.155   3.022  14.526
 1520SOL    HW2 6458   7.016   2.974  14.489
 1521SOL     OW 6459  10.620  11.264  12.336
 1521SOL    HW1 6460  10.643  11.280  12.244
 1521SOL    HW2 6461  10.539  11.312  12.350
 1522SOL     OW 6462   9.116  13.688   4.192
 1522SOL    HW1 6463   9.061  13.748   4.142
 1522SOL    HW2 6464   9.127  13.731   4.277
 1523SOL     OW 6465  10.027   8.020  13.042
 1523SOL    HW1 6466   9.960   7.995  12.979
 1523SOL    HW2 6467  10.100   7.961  13.024
 1524SOL     OW 6468   8.645  14.548   5.833
 1524SOL    HW1 6469   8.623  14.640   5.819
 1524SOL    HW2 6470   8.712  14.529   5.766
 1525SOL     OW 6471   2.810  10.128   6.727
 1525SOL    HW1 6472   2.807  10.119   6.822
 1525SOL    HW2 6473   2.763  10.052   6.694
 1526SOL     OW 6474  14.418   4.786  10.374
 1526SOL    HW1 6475  14.473   4.837  10.314
 1526SOL    HW2 6476  14.344   4.759  10.321
 1527SOL     OW 6477   2.197   1.053   8.505
 1527SOL    HW1 6478   2.130   1.027   8.442
 1527SOL    HW2 6479   2.150   1.064   8.588
 1528SOL     OW 6480   4.875   4.379   0.881
 1528SOL    HW1 6481   4.851   4.333   0.962
 1528SOL    HW2 6482   4.880   4.471   0.907
 1529SOL     OW 6483   5.834   8.788   7.485
 1529SOL    HW1 6484   5.744   8.819   7.502
 1529SOL    HW2 6485   5.824   8.720   7.419
 1530SOL     OW 6486  14.373   6.583   4.957
 1530SOL    HW1 6487  14.284   6.586   4.991
 1530SOL    HW2 6488  14.429   6.578   5.034
 1531SOL     OW 6489  13.639   2.508   3.482
 1531SOL    HW1 6490  13.587   2.586   3.463
 1531SOL    HW2 6491  13.729   2.534   3.465
 1532SOL     OW 6492   6.583   9.011   9.271
 1532SOL    HW1 6493   6.632   8.961   9.336
 1532SOL    HW2 6494   6.590   8.961   9.190
 1533SOL     OW 6495  12.199   9.718  12.281
 1533SOL    HW1 6496  12.110   9.690  12.303
 1533SOL    HW2 6497  12.236   9.746  12.365
 1534SOL     OW 6498   1.402   6.864  11.821
 1534SOL    HW1 6499   1.353   6.946  11.824
 1534SOL    HW2 6500   1.483   6.882  11.867
 1535SOL     OW 6501   7.508   0.278   2.382
 1535SOL    HW1 6502   7.513   0.353   2.441
 1535SOL    HW2 6503   7.556   0.305   2.304
 1536SOL     OW 6504   7.913   5.663  11.406
 1536SOL    HW1 6505   7.902   5.759  11.406
 1536SOL    HW2 6506   8.007   5.650  11.390
 1537SOL     OW 6507  13.759  11.697   6.855
 1537SOL    HW1 6508  13.734  11.755   6.783
 1537SOL    HW2 6509  13.684  11.640   6.867
 1538SOL     OW 6510  12.176  12.506   7.305
 1538SOL    HW1 6511  12.149  12.573   7.369
 1538SOL    HW2 6512  12.128  12.530   7.225
 1539SOL     OW 6513  14.121   8.484   3.478
 1539SOL    HW1 6514  14.149   8.566   3.518
 1539SOL    HW2 6515  14.194   8.460   3.420
 1540SOL     OW 6516   8.994   9.533   1.014
 1540SOL    HW1 6517   9.058   9.465   1.036
 1540SOL    HW2 6518   8.910   9.497   1.044
 1541SOL     OW 6519   8.493   3.980   3.159
 1541SOL    HW1 6520   8.474   3.944   3.072
 1541SOL    HW2 6521   8.482   3.906   3.219
 1542SOL     OW 6522  10.862   1.262  13.523
 1542SOL    HW1 6523  10.920   1.336  13.542
 1542SOL    HW2 6524  10.872   1.204  13.597
 1543SOL     OW 6525   2.963   7.111   5.770
 1543SOL    HW1 6526   2.900   7.165   5.817
 1543SOL    HW2 6527   2.978   7.036   5.828
 1544SOL     OW 6528  13.156   9.517  12.874
 1544SOL    HW1 6529  13.082   9.495  12.931
 1544SOL    HW2 6530  13.233   9.491  12.924
 1545SOL     OW 6531  10.968  13.691   8.446
 1545SOL    HW1 6532  10.963  13.766   8.386
 1545SOL    HW2 6533  11.051  13.649   8.425
 1546SOL     OW 6534   0.462  13.595   2.092
 1546SOL    HW1 6535   0.544  13.631   2.126
 1546SOL    HW2 6536   0.458  13.507   2.129
 1547SOL     OW 6537   2.043   5.599   2.652
 1547SOL    HW1 6538   2.113   5.568   2.710
 1547SOL    HW2 6539   2.064   5.691   2.636
 1548SOL     OW 6540   4.548  14.555   1.021
 1548SOL    HW1 6541   4.470  14.575   0.969
 1548SOL    HW2 6542   4.617  14.542   0.956
 1549SOL     OW 6543   9.274   3.216   4.717
 1549SOL    HW1 6544   9.295   3.276   4.789
 1549SOL    HW2 6545   9.234   3.141   4.760
 1550SOL     OW 6546   3.109  13.035   1.312
 1550SOL    HW1 6547   3.165  13.020   1.388
 1550SOL    HW2 6548   3.134  13.122   1.281
 1551SOL     OW 6549  14.732  10.240   0.417
 1551SOL    HW1 6550  14.745  10.227   0.511
 1551SOL    HW2 6551  14.819  10.260   0.383
 1552SOL     OW 6552  12.331  12.225   1.858
 1552SOL    HW1 6553  12.377  12.173   1.924
 1552SOL    HW2 6554  12.249  12.250   1.901
 1553SOL     OW 6555   1.912   7.778  14.214
 1553SOL    HW1 6556   1.912   7.815  14.126
 1553SOL    HW2 6557   1.826   7.737  14.223
 1554SOL     OW 6558  14.746  12.697  12.645
 1554SOL    HW1 6559  14.693  12.765  12.604
 1554SOL    HW2 6560  14.728  12.706  12.738
 1555SOL     OW 6561   2.175  10.399  10.883
 1555SOL    HW1 6562   2.186  10.491  10.858
 1555SOL    HW2 6563   2.099  10.369  10.832
 1556SOL     OW 6564   6.383  14.768   6.437
 1556SOL    HW1 6565   6.447  14.720   6.384
 1556SOL    HW2 6566   6.309  14.707   6.445
 1557SOL     OW 6567   4.193   6.792  12.765
 1557SOL    HW1 6568   4.179   6.806  12.859
 1557SOL    HW2 6569   4.270   6.843  12.744
 1558SOL     OW 6570   2.249  10.757  10.808
 1558SOL    HW1 6571   2.262  10.842  10.850
 1558SOL    HW2 6572   2.250  10.776  10.714
 1559SOL     OW 6573   1.095  10.977   7.393
 1559SOL    HW1 6574   1.048  11.026   7.326
 1559SOL    HW2 6575   1.177  11.024   7.405
 1560SOL     OW 6576   9.803   5.052   9.576
 1560SOL    HW1 6577   9.838   5.063   9.487
 1560SOL    HW2 6578   9.756   5.134   9.593
 1561SOL     OW 6579  11.792   2.682   2.226
 1561SOL    HW1 6580  11.805   2.751   2.160
 1561SOL    HW2 6581  11.799   2.729   2.310
 1562SOL     OW 6582   6.545   9.042  12.444
 1562SOL    HW1 6583   6.530   9.115  12.383
 1562SOL    HW2 6584   6.639   9.042  12.458
 1563SOL     OW 6585   1.153  10.677  14.183
 1563SOL    HW1 6586   1.240  10.716  14.175
 1563SOL    HW2 6587   1.159  10.593  14.137
 1564SOL     OW 6588  11.274   9.935  13.629
 1564SOL    HW1 6589  11.289   9.921  13.722
 1564SOL    HW2 6590  11.362   9.936  13.590
 1565SOL     OW 6591   3.206  12.056   5.966
 1565SOL    HW1 6592   3.139  12.087   6.027
 1565SOL    HW2 6593   3.239  11.976   6.006
 1566SOL     OW 6594   9.871   4.915  11.489
 1566SOL    HW1 6595   9.882   4.945  11.579
 1566SOL    HW2 6596   9.809   4.976  11.450
 1567SOL     OW 6597  12.700   8.329  12.516
 1567SOL    HW1 6598  12.653   8.245  12.517
 1567SOL    HW2 6599  12.686   8.362  12.427
 1568SOL     OW 6600   8.137   2.903   4.567
 1568SOL    HW1 6601   8.178   2.846   4.503
 1568SOL    HW2 6602   8.068   2.949   4.518
 1569SOL     OW 6603   9.130   4.747  14.188
 1569SOL    HW1 6604   9.199   4.733  14.124
 1569SOL    HW2 6605   9.128   4.842  14.201
 1570SOL     OW 6606  13.659   1.880   2.402
 1570SOL    HW1 6607  13.651   1.942   2.474
 1570SOL    HW2 6608  13.585   1.899   2.345
 1571SOL     OW 6609  14.185   3.264  12.515
 1571SOL    HW1 6610  14.124   3.262  12.589
 1571SOL    HW2 6611  14.205   3.172  12.499
 1572SOL     OW 6612   9.241   6.294  14.239
 1572SOL    HW1 6613   9.198   6.269  14.158
 1572SOL    HW2 6614   9.327   6.251  14.235
 1573SOL     OW 6615  10.364   5.215  10.140
 1573SOL    HW1 6616  10.437   5.154  10.126
 1573SOL    HW2 6617  10.287   5.167  10.110
 1574SOL     OW 6618   7.167  10.043  13.384
 1574SOL    HW1 6619   7.077  10.012  13.371
 1574SOL    HW2 6620   7.221   9.964  13.374
 1575SOL     OW 6621   0.997  14.364  14.174
 1575SOL    HW1 6622   0.926  14.389  14.115
 1575SOL    HW2 6623   1.000  14.434  14.239
 1576SOL     OW 6624   6.767   0.326   8.400
 1576SOL    HW1 6625   6.858   0.297   8.405
 1576SOL    HW2 6626   6.770   0.418   8.426
 1577SOL     OW 6627   3.735   6.506   0.157
 1577SOL    HW1 6628   3.777   6.548   0.232
 1577SOL    HW2 6629   3.709   6.579   0.101
 1578SOL     OW 6630   1.793  12.314  14.616
 1578SOL    HW1 6631   1.828  12.313  14.705
 1578SOL    HW2 6632   1.817  12.400  14.581
 1579SOL     OW 6633  14.532   1.079   1.311
 1579SOL    HW1 6634  14.599   1.064   1.378
 1579SOL    HW2 6635  14.564   1.155   1.263
 1580SOL     OW 6636   5.435   8.748   4.259
 1580SOL    HW1 6637   5.447   8.765   4.353
 1580SOL    HW2 6638   5.407   8.832   4.223
 1581SOL     OW 6639  13.338  11.899   8.601
 1581SOL    HW1 6640  13.307  11.848   8.526
 1581SOL    HW2 6641  13.406  11.845   8.640
 1582SOL     OW 6642   8.056  11.382   9.077
 1582SOL    HW1 6643   8.058  11.291   9.105
 1582SOL    HW2 6644   8.096  11.381   8.990
 1583SOL     OW 6645   5.741   0.883   4.588
 1583SOL    HW1 6646   5.689   0.893   4.508
 1583SOL    HW2 6647   5.832   0.894   4.559
 1584SOL     OW 6648  12.057  10.795   5.507
 1584SOL    HW1 6649  12.014  10.809   5.422
 1584SOL    HW2 6650  11.990  10.818   5.572
 1585SOL     OW 6651   6.357   1.526   5.260
 1585SOL    HW1 6652   6.280   1.575   5.230
 1585SOL    HW2 6653   6.425   1.593   5.272
 1586SOL     OW 6654   4.066   0.136  10.173
 1586SOL    HW1 6655   4.063   0.218  10.223
 1586SOL    HW2 6656   4.144   0.091  10.205
 1587SOL     OW 6657   3.943   8.882  10.031
 1587SOL    HW1 6658   3.905   8.905   9.947
 1587SOL    HW2 6659   4.024   8.836  10.009
 1588SOL     OW 6660  13.692   4.552   6.069
 1588SOL    HW1 6661  13.662   4.553   5.978
 1588SOL    HW2 6662  13.786   4.569   6.063
 1589SOL     OW 6663   2.658   1.949  11.579
 1589SOL    HW1 6664   2.671   1.919  11.669
 1589SOL    HW2 6665   2.563   1.955  11.569
 1590SOL     OW 6666   7.264  12.944  13.442
 1590SOL    HW1 6667   7.290  13.006  13.373
 1590SOL    HW2 6668   7.252  12.999  13.519
 1591SOL     OW 6669  14.357  10.791   0.180
 1591SOL    HW1 6670  14.347  10.767   0.272
 1591SOL    HW2 6671  14.356  10.886   0.179
 1592SOL     OW 6672   6.968  14.332   1.522
 1592SOL    HW1 6673   6.912  14.315   1.446
 1592SOL    HW2 6674   7.044  14.275   1.508
 1593SOL     OW 6675   2.203   7.357   6.591
 1593SOL    HW1 6676   2.244   7.427   6.540
 1593SOL    HW2 6677   2.128   7.399   6.633
 1594SOL     OW 6678  10.785   8.901  11.296
 1594SOL    HW1 6679  10.812   8.966  11.361
 1594SOL    HW2 6680  10.710   8.857  11.336
 1595SOL     OW 6681  14.396  10.356   9.412
 1595SOL    HW1 6682  14.404  10.407   9.331
 1595SOL    HW2 6683  14.487  10.334   9.435
 1596SOL     OW 6684   0.698   3.438  10.842
 1596SOL    HW1 6685   0.604   3.452  10.848
 1596SOL    HW2 6686   0.737   3.525  10.855
 1597SOL     OW 6687  14.493  10.410   7.097
 1597SOL    HW1 6688  14.531  10.327   7.067
 1597SOL    HW2 6689  14.476  10.460   7.017
 1598SOL     OW 6690   5.940   1.894  12.751
 1598SOL    HW1 6691   5.998   1.959  12.791
 1598SOL    HW2 6692   5.904   1.939  12.675
 1599SOL     OW 6693  10.743   3.758  13.799
 1599SOL    HW1 6694  10.789   3.823  13.747
 1599SOL    HW2 6695  10.696   3.704  13.735
 1600SOL     OW 6696  14.681   1.195   7.428
 1600SOL    HW1 6697  14.605   1.137   7.428
 1600SOL    HW2 6698  14.723   1.180   7.343
 1601SOL     OW 6699   8.195   9.477   8.931
 1601SOL    HW1 6700   8.214   9.414   9.001
 1601SOL    HW2 6701   8.146   9.426   8.866
 1602SOL     OW 6702   0.787  11.125  13.425
 1602SOL    HW1 6703   0.862  11.103  13.369
 1602SOL    HW2 6704   0.724  11.165  13.366
 1603SOL     OW 6705   3.894  14.858   9.032
 1603SOL    HW1 6706   3.845  14.784   9.070
 1603SOL    HW2 6707   3.859  14.866   8.943
 1604SOL     OW 6708   4.291   6.789   7.024
 1604SOL    HW1 6709   4.385   6.795   7.008
 1604SOL    HW2 6710   4.264   6.709   6.979
 1605SOL     OW 6711   0.425  14.554   9.212
 1605SOL    HW1 6712   0.461  14.563   9.300
 1605SOL    HW2 6713   0.385  14.467   9.211
 1606SOL     OW 6714   7.620   2.409   0.854
 1606SOL    HW1 6715   7.627   2.503   0.837
 1606SOL    HW2 6716   7.635   2.400   0.948
 1607SOL     OW 6717   5.919  10.673   5.306
 1607SOL    HW1 6718   5.887  10.618   5.377
 1607SOL    HW2 6719   6.011  10.648   5.296
 1608SOL     OW 6720  11.762   8.613  12.236
 1608SOL    HW1 6721  11.804   8.640  12.154
 1608SOL    HW2 6722  11.835   8.605  12.298
 1609SOL     OW 6723   7.704   6.017   2.611
 1609SOL    HW1 6724   7.786   5.984   2.574
 1609SOL    HW2 6725   7.716   6.112   2.613
 1610SOL     OW 6726  12.155   5.459   3.832
 1610SOL    HW1 6727  12.105   5.390   3.875
 1610SOL    HW2 6728  12.220   5.412   3.780
 1611SOL     OW 6729   2.961   9.736   1.482
 1611SOL    HW1 6730   2.984   9.644   1.498
 1611SOL    HW2 6731   3.016   9.785   1.543
 1612SOL     OW 6732   4.327   0.635  12.905
 1612SOL    HW1 6733   4.253   0.598  12.952
 1612SOL    HW2 6734   4.289   0.702  12.849
 1613SOL     OW 6735   1.749   7.810   6.305
 1613SOL    HW1 6736   1.680   7.753   6.269
 1613SOL    HW2 6737   1.724   7.822   6.396
 1614SOL     OW 6738   6.381   2.960  10.388
 1614SOL    HW1 6739   6.381   3.054  10.369
 1614SOL    HW2 6740   6.452   2.947  10.451
 1615SOL     OW 6741   0.761   4.461   5.459
 1615SOL    HW1 6742   0.686   4.509   5.493
 1615SOL    HW2 6743   0.824   4.460   5.532
 1616SOL     OW 6744   1.855   8.042   1.602
 1616SOL    HW1 6745   1.865   7.989   1.681
 1616SOL    HW2 6746   1.874   7.982   1.530
 1617SOL     OW 6747  14.217  12.101  12.777
 1617SOL    HW1 6748  14.179  12.019  12.809
 1617SOL    HW2 6749  14.177  12.169  12.831
 1618SOL     OW 6750   8.391  11.890  11.165
 1618SOL    HW1 6751   8.300  11.861  11.166
 1618SOL    HW2 6752   8.388  11.975  11.121
 1619SOL     OW 6753   2.129   0.545   4.182
 1619SOL    HW1 6754   2.190   0.587   4.242
 1619SOL    HW2 6755   2.043   0.560   4.221
 1620SOL     OW 6756   7.702   0.964   0.148
 1620SOL    HW1 6757   7.671   0.983   0.059
 1620SOL    HW2 6758   7.790   0.929   0.135
 1621SOL     OW 6759   7.055   8.341   0.513
 1621SOL    HW1 6760   7.138   8.309   0.480
 1621SOL    HW2 6761   7.065   8.344   0.608
 1622SOL     OW 6762   5.668   8.763  12.138
 1622SOL    HW1 6763   5.718   8.838  12.107
 1622SOL    HW2 6764   5.600   8.801  12.194
 1623SOL     OW 6765   6.127   6.048   5.868
 1623SOL    HW1 6766   6.080   5.968   5.844
 1623SOL    HW2 6767   6.101   6.066   5.958
 1624SOL     OW 6768   6.940  11.422   6.992
 1624SOL    HW1 6769   6.865  11.386   7.039
 1624SOL    HW2 6770   6.905  11.500   6.947
 1625SOL     OW 6771   4.739   0.836  10.630
 1625SOL    HW1 6772   4.707   0.893  10.560
 1625SOL    HW2 6773   4.660   0.808  10.677
 1626SOL     OW 6774  14.840  13.511   7.238
 1626SOL    HW1 6775  14.758  13.556   7.218
 1626SOL    HW2 6776   0.019  13.561   7.191
 1627SOL     OW 6777   0.482   7.669   0.032
 1627SOL    HW1 6778   0.445   7.633   0.112
 1627SOL    HW2 6779   0.573   7.639   0.033
 1628SOL     OW 6780  14.332  12.318   8.568
 1628SOL    HW1 6781  14.279  12.393   8.593
 1628SOL    HW2 6782  14.317  12.254   8.638
 1629SOL     OW 6783   0.385   4.512  11.155
 1629SOL    HW1 6784   0.335   4.459  11.217
 1629SOL    HW2 6785   0.347   4.492  11.070
 1630SOL     OW 6786   5.116   7.652   2.907
 1630SOL    HW1 6787   5.043   7.631   2.965
 1630SOL    HW2 6788   5.154   7.732   2.945
 1631SOL     OW 6789  11.717   6.049  13.954
 1631SOL    HW1 6790  11.720   5.978  13.890
 1631SOL    HW2 6791  11.630   6.043  13.992
 1632SOL     OW 6792  12.588   5.249   0.130
 1632SOL    HW1 6793  12.567   5.320   0.069
 1632SOL    HW2 6794  12.503   5.218   0.161
 1633SOL     OW 6795  14.435  13.131   2.844
 1633SOL    HW1 6796  14.419  13.039   2.865
 1633SOL    HW2 6797  14.362  13.155   2.787
 1634SOL     OW 6798   5.070  11.557  14.096
 1634SOL    HW1 6799   4.981  11.526  14.116
 1634SOL    HW2 6800   5.065  11.586  14.005
 1635SOL     OW 6801  12.634   1.546   0.247
 1635SOL    HW1 6802  12.562   1.602   0.218
 1635SOL    HW2 6803  12.597   1.458   0.250
 1636SOL     OW 6804   2.404  14.000  10.415
 1636SOL    HW1 6805   2.440  13.986  10.503
 1636SOL    HW2 6806   2.365  14.087  10.419
 1637SOL     OW 6807   0.818   3.194   3.196
 1637SOL    HW1 6808   0.725   3.192   3.219
 1637SOL    HW2 6809   0.822   3.161   3.107
 1638SOL     OW 6810   5.325  13.516   0.464
 1638SOL    HW1 6811   5.409  13.473   0.447
 1638SOL    HW2 6812   5.349  13.602   0.500
 1639SOL     OW 6813   0.717  13.857   4.816
 1639SOL    HW1 6814   0.656  13.827   4.749
 1639SOL    HW2 6815   0.796  13.880   4.767
 1640SOL     OW 6816   6.045   5.795   5.884
 1640SOL    HW1 6817   5.998   5.769   5.963
 1640SOL    HW2 6818   6.088   5.715   5.854
 1641SOL     OW 6819  14.792   3.600   9.976
 1641SOL    HW1 6820  14.747   3.684   9.972
 1641SOL    HW2 6821  14.794   3.578  10.069
 1642SOL     OW 6822   6.790   1.418   7.732
 1642SOL    HW1 6823   6.744   1.480   7.675
 1642SOL    HW2 6824   6.725   1.351   7.751
 1643SOL     OW 6825   3.379  10.217   9.146
 1643SOL    HW1 6826   3.381  10.310   9.122
 1643SOL    HW2 6827   3.470  10.195   9.165
 1644SOL     OW 6828  14.565   6.845   7.977
 1644SOL    HW1 6829  14.528   6.912   8.036
 1644SOL    HW2 6830  14.636   6.806   8.028
 1645SOL     OW 6831  12.405  12.995   4.393
 1645SOL    HW1 6832  12.489  13.037   4.371
 1645SOL    HW2 6833  12.395  13.011   4.487
 1646SOL     OW 6834   8.788   2.730   1.036
 1646SOL    HW1 6835   8.826   2.679   1.107
 1646SOL    HW2 6836   8.814   2.820   1.054
 1647SOL     OW 6837   6.746   9.502  12.435
 1647SOL    HW1 6838   6.764   9.535  12.347
 1647SOL    HW2 6839   6.683   9.432  12.422
 1648SOL     OW 6840   4.192  11.992  14.054
 1648SOL    HW1 6841   4.103  12.023  14.071
 1648SOL    HW2 6842   4.247  12.070  14.065
 1649SOL     OW 6843   4.509  10.959  12.011
 1649SOL    HW1 6844   4.505  10.945  11.917
 1649SOL    HW2 6845   4.503  10.871  12.049
 1650SOL     OW 6846  13.310  14.724   2.442
 1650SOL    HW1 6847  13.218  14.701   2.431
 1650SOL    HW2 6848  13.347  14.653   2.495
 1651SOL     OW 6849  12.766   9.335   2.745
 1651SOL    HW1 6850  12.679   9.356   2.779
 1651SOL    HW2 6851  12.793   9.258   2.795
 1652SOL     OW 6852   1.894  12.185  11.803
 1652SOL    HW1 6853   1.832  12.122  11.767
 1652SOL    HW2 6854   1.957  12.132  11.851
 1653SOL     OW 6855   4.013   3.491  14.798
 1653SOL    HW1 6856   4.060   3.418  14.837
 1653SOL    HW2 6857   3.938   3.450  14.754
 1654SOL     OW 6858   7.210  12.460   3.726
 1654SOL    HW1 6859   7.266  12.393   3.764
 1654SOL    HW2 6860   7.126  12.450   3.770
 1655SOL     OW 6861   8.339  14.267   1.755
 1655SOL    HW1 6862   8.299  14.282   1.841
 1655SOL    HW2 6863   8.272  14.296   1.693
 1656SOL     OW 6864   0.099   4.764   5.546
 1656SOL    HW1 6865   0.088   4.773   5.641
 1656SOL    HW2 6866   0.016   4.725   5.516
 1657SOL     OW 6867   6.255   2.287  12.399
 1657SOL    HW1 6868   6.205   2.338  12.336
 1657SOL    HW2 6869   6.235   2.196  12.377
 1658SOL     OW 6870   0.739   9.342  11.272
 1658SOL    HW1 6871   0.701   9.414  11.321
 1658SOL    HW2 6872   0.798   9.384  11.209
 1659SOL     OW 6873   5.668  11.077   7.728
 1659SOL    HW1 6874   5.726  11.015   7.684
 1659SOL    HW2 6875   5.678  11.056   7.821
 1660SOL     OW 6876  11.901   9.309   3.881
 1660SOL    HW1 6877  11.988   9.313   3.921
 1660SOL    HW2 6878  11.840   9.311   3.954
 1661SOL     OW 6879   7.927   2.113   7.441
 1661SOL    HW1 6880   7.882   2.193   7.467
 1661SOL    HW2 6881   8.018   2.139   7.426
 1662SOL     OW 6882  10.238   4.770  14.114
 1662SOL    HW1 6883  10.258   4.707  14.183
 1662SOL    HW2 6884  10.309   4.760  14.051
 1663SOL     OW 6885   1.867   3.497   6.550
 1663SOL    HW1 6886   1.867   3.403   6.569
 1663SOL    HW2 6887   1.948   3.529   6.588
 1664SOL     OW 6888  14.486   1.344   5.632
 1664SOL    HW1 6889  14.503   1.438   5.627
 1664SOL    HW2 6890  14.501   1.321   5.724
 1665SOL     OW 6891   4.198   0.945   6.363
 1665SOL    HW1 6892   4.247   1.015   6.319
 1665SOL    HW2 6893   4.166   0.890   6.291
 1666SOL     OW 6894  12.390   6.454   1.380
 1666SOL    HW1 6895  12.385   6.536   1.430
 1666SOL    HW2 6896  12.458   6.404   1.425
 1667SOL     OW 6897  11.214  10.985   3.416
 1667SOL    HW1 6898  11.266  11.054   3.457
 1667SOL    HW2 6899  11.134  10.980   3.468
 1668SOL     OW 6900  11.193  12.220  12.219
 1668SOL    HW1 6901  11.270  12.225  12.162
 1668SOL    HW2 6902  11.225  12.177  12.298
 1669SOL     OW 6903   9.276   6.236   2.973
 1669SOL    HW1 6904   9.224   6.164   2.936
 1669SOL    HW2 6905   9.321   6.274   2.898
 1670SOL     OW 6906  13.533   7.921   4.589
 1670SOL    HW1 6907  13.451   7.896   4.545
 1670SOL    HW2 6908  13.522   7.890   4.679
 1671SOL     OW 6909   0.811   7.310  12.999
 1671SOL    HW1 6910   0.794   7.404  13.011
 1671SOL    HW2 6911   0.732   7.277  12.955
 1672SOL     OW 6912  12.926   1.588   7.140
 1672SOL    HW1 6913  12.940   1.642   7.062
 1672SOL    HW2 6914  12.949   1.500   7.113
 1673SOL     OW 6915  11.207  12.633   2.946
 1673SOL    HW1 6916  11.245  12.562   2.894
 1673SOL    HW2 6917  11.175  12.695   2.881
 1674SOL     OW 6918   1.835  13.483  12.711
 1674SOL    HW1 6919   1.772  13.554  12.698
 1674SOL    HW2 6920   1.808  13.442  12.793
 1675SOL     OW 6921  13.541   0.179  10.480
 1675SOL    HW1 6922  13.615   0.240  10.485
 1675SOL    HW2 6923  13.477   0.214  10.543
 1676SOL     OW 6924   2.534   4.041   3.480
 1676SOL    HW1 6925   2.622   4.007   3.493
 1676SOL    HW2 6926   2.544   4.110   3.414
 1677SOL     OW 6927  13.553   6.496  12.116
 1677SOL    HW1 6928  13.511   6.411  12.102
 1677SOL    HW2 6929  13.641   6.486  12.079
 1678SOL     OW 6930  10.462  10.453   3.010
 1678SOL    HW1 6931  10.386  10.410   3.049
 1678SOL    HW2 6932  10.471  10.412   2.924
 1679SOL     OW 6933   6.532   6.031   9.729
 1679SOL    HW1 6934   6.564   6.040   9.819
 1679SOL    HW2 6935   6.612   6.016   9.677
 1680SOL     OW 6936   8.241   5.229  11.878
 1680SOL    HW1 6937   8.191   5.309  11.860
 1680SOL    HW2 6938   8.285   5.209  11.795
 1681SOL     OW 6939   0.527   6.708  12.023
 1681SOL    HW1 6940   0.501   6.778  11.963
 1681SOL    HW2 6941   0.564   6.640  11.967
 1682SOL     OW 6942   2.695  12.396  14.496
 1682SOL    HW1 6943   2.762  12.331  14.519
 1682SOL    HW2 6944   2.671  12.436  14.580
 1683SOL     OW 6945  13.098   7.466   1.880
 1683SOL    HW1 6946  13.190   7.452   1.856
 1683SOL    HW2 6947  13.055   7.490   1.797
 1684SOL     OW 6948   6.139  12.360   2.751
 1684SOL    HW1 6949   6.099  12.308   2.820
 1684SOL    HW2 6950   6.075  12.357   2.679
 1685SOL     OW 6951   1.653   4.932   7.602
 1685SOL    HW1 6952   1.674   5.020   7.573
 1685SOL    HW2 6953   1.703   4.874   7.544
 1686SOL     OW 6954   5.952  11.869   5.426
 1686SOL    HW1 6955   5.924  11.951   5.467
 1686SOL    HW2 6956   6.048  11.871   5.434
 1687SOL     OW 6957  10.028  10.668   5.555
 1687SOL    HW1 6958  10.113  10.626   5.542
 1687SOL    HW2 6959   9.978  10.647   5.476
 1688SOL     OW 6960  10.942   3.452  14.192
 1688SOL    HW1 6961  10.955   3.358  14.180
 1688SOL    HW2 6962  11.023   3.492  14.160
 1689SOL     OW 6963   0.545  14.010  10.639
 1689SOL    HW1 6964   0.515  13.962  10.562
 1689SOL    HW2 6965   0.474  14.071  10.659
 1690SOL     OW 6966  10.303  13.257   9.727
 1690SOL    HW1 6967  10.397  13.240   9.719
 1690SOL    HW2 6968  10.264  13.208   9.654
 1691SOL     OW 6969   9.908   9.257   3.936
 1691SOL    HW1 6970   9.964   9.326   3.899
 1691SOL    HW2 6971   9.824   9.300   3.951
 1692SOL     OW 6972   0.126   9.100   4.059
 1692SOL    HW1 6973   0.201   9.137   4.013
 1692SOL    HW2 6974   0.054   9.159   4.038
 1693SOL     OW 6975   6.652   2.837   1.178
 1693SOL    HW1 6976   6.709   2.893   1.126
 1693SOL    HW2 6977   6.571   2.831   1.127
 1694SOL     OW 6978  10.810   8.705  13.819
 1694SOL    HW1 6979  10.886   8.759  13.796
 1694SOL    HW2 6980  10.794   8.725  13.912
 1695SOL     OW 6981   9.462   0.205   0.880
 1695SOL    HW1 6982   9.530   0.157   0.833
 1695SOL    HW2 6983   9.474   0.296   0.851
 1696SOL     OW 6984  12.092   9.850   5.309
 1696SOL    HW1 6985  12.133   9.827   5.392
 1696SOL    HW2 6986  12.150   9.916   5.271
 1697SOL     OW 6987   0.647   1.885   0.238
 1697SOL    HW1 6988   0.701   1.834   0.178
 1697SOL    HW2 6989   0.631   1.826   0.312
 1698SOL     OW 6990   5.471   3.920  11.115
 1698SOL    HW1 6991   5.405   3.932  11.183
 1698SOL    HW2 6992   5.421   3.900  11.036
 1699SOL     OW 6993  11.300  12.274   0.846
 1699SOL    HW1 6994  11.297  12.217   0.769
 1699SOL    HW2 6995  11.300  12.213   0.920
 1700SOL     OW 6996  12.717  13.548   7.796
 1700SOL    HW1 6997  12.630  13.587   7.810
 1700SOL    HW2 6998  12.730  13.491   7.872
 1701SOL     OW 6999   2.183  13.624   7.045
 1701SOL    HW1 7000   2.136  13.570   6.982
 1701SOL    HW2 7001   2.132  13.705   7.051
 1702SOL     OW 7002   4.784   1.946   6.253
 1702SOL    HW1 7003   4.783   2.041   6.240
 1702SOL    HW2 7004   4.761   1.910   6.167
 1703SOL     OW 7005   9.204  13.866   8.092
 1703SOL    HW1 7006   9.215  13.777   8.058
 1703SOL    HW2 7007   9.119  13.864   8.135
 1704SOL     OW 7008   2.920  11.481  12.436
 1704SOL    HW1 7009   2.946  11.524  12.517
 1704SOL    HW2 7010   2.826  11.465  12.446
 1705SOL     OW 7011   8.557  10.012  11.515
 1705SOL    HW1 7012   8.613   9.957  11.461
 1705SOL    HW2 7013   8.578   9.987  11.605
 1706SOL     OW 7014   6.822   5.745  10.531
 1706SOL    HW1 7015   6.912   5.728  10.559
 1706SOL    HW2 7016   6.779   5.783  10.608
 1707SOL     OW 7017   9.213  11.368  12.979
 1707SOL    HW1 7018   9.281  11.319  12.932
 1707SOL    HW2 7019   9.169  11.419  12.911
 1708SOL     OW 7020   1.108   6.264  14.095
 1708SOL    HW1 7021   1.193   6.305  14.080
 1708SOL    HW2 7022   1.085   6.289  14.185
 1709SOL     OW 7023   5.728   8.976   9.930
 1709SOL    HW1 7024   5.757   9.066   9.942
 1709SOL    HW2 7025   5.775   8.927   9.998
 1710SOL     OW 7026   1.815   8.260   1.472
 1710SOL    HW1 7027   1.779   8.240   1.386
 1710SOL    HW2 7028   1.809   8.178   1.520
 1711SOL     OW 7029  14.738   2.792   5.745
 1711SOL    HW1 7030  14.728   2.710   5.793
 1711SOL    HW2 7031  14.656   2.803   5.697
 1712SOL     OW 7032   9.412   5.424   4.684
 1712SOL    HW1 7033   9.429   5.450   4.594
 1712SOL    HW2 7034   9.488   5.455   4.733
 1713SOL     OW 7035   9.488  10.104   8.774
 1713SOL    HW1 7036   9.532  10.026   8.809
 1713SOL    HW2 7037   9.516  10.175   8.832
 1714SOL     OW 7038  12.727   8.027   0.726
 1714SOL    HW1 7039  12.742   8.113   0.687
 1714SOL    HW2 7040  12.639   8.033   0.763
 1715SOL     OW 7041   1.697   1.613  12.408
 1715SOL    HW1 7042   1.606   1.638  12.427
 1715SOL    HW2 7043   1.750   1.664  12.469
 1716SOL     OW 7044  12.085   0.535  11.668
 1716SOL    HW1 7045  12.049   0.484  11.596
 1716SOL    HW2 7046  12.011   0.544  11.729
 1717SOL     OW 7047  13.424   5.342   7.723
 1717SOL    HW1 7048  13.411   5.257   7.681
 1717SOL    HW2 7049  13.443   5.401   7.651
 1718SOL     OW 7050  12.991   5.099   0.818
 1718SOL    HW1 7051  13.000   5.164   0.748
 1718SOL    HW2 7052  12.897   5.087   0.828
 1719SOL     OW 7053  10.077   7.822   1.460
 1719SOL    HW1 7054  10.005   7.822   1.397
 1719SOL    HW2 7055  10.036   7.801   1.543
 1720SOL     OW 7056   9.357  14.006  10.708
 1720SOL    HW1 7057   9.397  13.919  10.700
 1720SOL    HW2 7058   9.295  13.997  10.780
 1721SOL     OW 7059   4.917   0.362  13.133
 1721SOL    HW1 7060   4.826   0.389  13.122
 1721SOL    HW2 7061   4.913   0.266  13.132
 1722SOL     OW 7062   6.967   2.051   4.536
 1722SOL    HW1 7063   7.049   2.100   4.540
 1722SOL    HW2 7064   6.921   2.089   4.461
 1723SOL     OW 7065   4.928   2.308   8.360
 1723SOL    HW1 7066   5.014   2.302   8.401
 1723SOL    HW2 7067   4.910   2.220   8.328
 1724SOL     OW 7068   8.088  10.982  13.074
 1724SOL    HW1 7069   8.078  10.902  13.022
 1724SOL    HW2 7070   8.179  11.009  13.059
 1725SOL     OW 7071   8.346  11.882   6.661
 1725SOL    HW1 7072   8.302  11.875   6.745
 1725SOL    HW2 7073   8.325  11.800   6.616
 1726SOL     OW 7074   3.397  13.108  11.221
 1726SOL    HW1 7075   3.482  13.138  11.255
 1726SOL    HW2 7076   3.334  13.169  11.258
 1727SOL     OW 7077   1.143  12.817  14.063
 1727SOL    HW1 7078   1.215  12.877  14.043
 1727SOL    HW2 7079   1.181  12.752  14.123
 1728SOL     OW 7080   2.477  11.471  10.654
 1728SOL    HW1 7081   2.542  11.528  10.695
 1728SOL    HW2 7082   2.522  11.435  10.578
 1729SOL     OW 7083  12.008  10.381   9.096
 1729SOL    HW1 7084  12.093  10.421   9.117
 1729SOL    HW2 7085  12.015  10.356   9.004
 1730SOL     OW 7086   4.702   8.237   9.795
 1730SOL    HW1 7087   4.682   8.193   9.878
 1730SOL    HW2 7088   4.761   8.308   9.819
 1731SOL     OW 7089  11.986  12.940  12.161
 1731SOL    HW1 7090  11.912  12.973  12.212
 1731SOL    HW2 7091  11.992  13.001  12.087
 1732SOL     OW 7092   4.426  10.883   1.545
 1732SOL    HW1 7093   4.495  10.913   1.486
 1732SOL    HW2 7094   4.375  10.961   1.564
 1733SOL     OW 7095   6.013  11.873  13.257
 1733SOL    HW1 7096   5.939  11.876  13.317
 1733SOL    HW2 7097   6.006  11.787  13.215
 1734SOL     OW 7098   7.065   2.317  14.209
 1734SOL    HW1 7099   7.035   2.292  14.296
 1734SOL    HW2 7100   7.070   2.235  14.160
 1735SOL     OW 7101   5.268   0.550   1.936
 1735SOL    HW1 7102   5.254   0.561   1.842
 1735SOL    HW2 7103   5.254   0.456   1.952
 1736SOL     OW 7104   6.840   6.941  13.104
 1736SOL    HW1 7105   6.803   6.964  13.189
 1736SOL    HW2 7106   6.890   6.861  13.120
 1737SOL     OW 7107  11.076  13.269   1.645
 1737SOL    HW1 7108  11.011  13.338   1.634
 1737SOL    HW2 7109  11.027  13.187   1.634
 1738SOL     OW 7110   9.995  11.381   0.766
 1738SOL    HW1 7111  10.068  11.439   0.748
 1738SOL    HW2 7112  10.035  11.301   0.801
 1739SOL     OW 7113  12.193   3.362   9.340
 1739SOL    HW1 7114  12.261   3.395   9.398
 1739SOL    HW2 7115  12.114   3.362   9.393
 1740SOL     OW 7116  12.054  10.327   8.175
 1740SOL    HW1 7117  12.052  10.387   8.101
 1740SOL    HW2 7118  12.077  10.242   8.137
 1741SOL     OW 7119   8.354   6.528   1.089
 1741SOL    HW1 7120   8.269   6.570   1.096
 1741SOL    HW2 7121   8.417   6.600   1.094
 1742SOL     OW 7122   7.847   0.219   0.530
 1742SOL    HW1 7123   7.932   0.177   0.546
 1742SOL    HW2 7124   7.797   0.154   0.481
 1743SOL     OW 7125   3.467   7.889  11.232
 1743SOL    HW1 7126   3.466   7.980  11.262
 1743SOL    HW2 7127   3.416   7.889  11.152
 1744SOL     OW 7128   7.289   2.923   9.753
 1744SOL    HW1 7129   7.317   2.882   9.671
 1744SOL    HW2 7130   7.311   3.015   9.742
 1745SOL     OW 7131   3.505  12.484   6.070
 1745SOL    HW1 7132   3.484  12.488   6.163
 1745SOL    HW2 7133   3.430  12.440   6.030
 1746SOL     OW 7134   4.293   6.903  11.316
 1746SOL    HW1 7135   4.235   6.978  11.332
 1746SOL    HW2 7136   4.235   6.834  11.285
 1747SOL     OW 7137   7.943   0.867   0.281
 1747SOL    HW1 7138   7.868   0.833   0.331
 1747SOL    HW2 7139   8.016   0.812   0.308
 1748SOL     OW 7140   1.982  12.668   6.440
 1748SOL    HW1 7141   1.908  12.626   6.484
 1748SOL    HW2 7142   1.981  12.629   6.352
 1749SOL     OW 7143   0.314  13.028  14.137
 1749SOL    HW1 7144   0.280  12.950  14.093
 1749SOL    HW2 7145   0.403  13.004  14.162
 1750SOL     OW 7146   7.537   3.689   5.452
 1750SOL    HW1 7147   7.493   3.616   5.495
 1750SOL    HW2 7148   7.584   3.649   5.379
 1751SOL     OW 7149  11.230   5.284   1.199
 1751SOL    HW1 7150  11.194   5.242   1.121
 1751SOL    HW2 7151  11.284   5.355   1.165
 1752SOL     OW 7152   1.892  14.107   1.590
 1752SOL    HW1 7153   1.816  14.127   1.535
 1752SOL    HW2 7154   1.936  14.191   1.603
 1753SOL     OW 7155  12.088   3.686   5.144
 1753SOL    HW1 7156  11.996   3.663   5.130
 1753SOL    HW2 7157  12.095   3.776   5.114
 1754SOL     OW 7158  10.207   4.594  11.302
 1754SOL    HW1 7159  10.150   4.632  11.368
 1754SOL    HW2 7160  10.244   4.516  11.344
 1755SOL     OW 7161  12.547   2.480   6.611
 1755SOL    HW1 7162  12.499   2.494   6.530
 1755SOL    HW2 7163  12.526   2.390   6.637
 1756SOL     OW 7164   9.739  13.278  10.299
 1756SOL    HW1 7165   9.754  13.185  10.286
 1756SOL    HW2 7166   9.646  13.290  10.281
 1757SOL     OW 7167   1.102   0.971  13.486
 1757SOL    HW1 7168   1.038   0.930  13.427
 1757SOL    HW2 7169   1.120   0.904  13.552
 1758SOL     OW 7170   3.283   7.474   3.234
 1758SOL    HW1 7171   3.238   7.401   3.278
 1758SOL    HW2 7172   3.371   7.474   3.271
 1759SOL     OW 7173   1.602   4.170   7.078
 1759SOL    HW1 7174   1.606   4.075   7.067
 1759SOL    HW2 7175   1.633   4.185   7.167
 1760SOL     OW 7176   0.875   7.284  12.690
 1760SOL    HW1 7177   0.926   7.246  12.618
 1760SOL    HW2 7178   0.784   7.278  12.659
 1761SOL     OW 7179   7.137   6.393   0.529
 1761SOL    HW1 7180   7.167   6.303   0.539
 1761SOL    HW2 7181   7.101   6.416   0.614
 1762SOL     OW 7182  10.999  10.886  10.295
 1762SOL    HW1 7183  10.909  10.874  10.263
 1762SOL    HW2 7184  10.991  10.947  10.367
 1763SOL     OW 7185   1.659  11.480   3.921
 1763SOL    HW1 7186   1.741  11.441   3.950
 1763SOL    HW2 7187   1.598  11.465   3.994
 1764SOL     OW 7188  11.929   9.513   9.068
 1764SOL    HW1 7189  11.914   9.539   9.159
 1764SOL    HW2 7190  11.969   9.426   9.074
 1765SOL     OW 7191   0.245   4.039  13.147
 1765SOL    HW1 7192   0.334   4.015  13.120
 1765SOL    HW2 7193   0.224   4.116  13.094
 1766SOL     OW 7194   2.896   3.037   3.587
 1766SOL    HW1 7195   2.947   3.065   3.511
 1766SOL    HW2 7196   2.897   3.111   3.646
 1767SOL     OW 7197   8.629  12.429   8.397
 1767SOL    HW1 7198   8.598  12.350   8.443
 1767SOL    HW2 7199   8.719  12.439   8.427
 1768SOL     OW 7200   9.782  10.287  12.722
 1768SOL    HW1 7201   9.729  10.210  12.742
 1768SOL    HW2 7202   9.825  10.309  12.805
 1769SOL     OW 7203   7.625  14.226  12.518
 1769SOL    HW1 7204   7.550  14.239  12.575
 1769SOL    HW2 7205   7.660  14.314  12.504
 1770SOL     OW 7206   5.973   0.921  11.803
 1770SOL    HW1 7207   6.033   0.916  11.878
 1770SOL    HW2 7208   5.904   0.980  11.832
 1771SOL     OW 7209   9.397   1.842   8.009
 1771SOL    HW1 7210   9.378   1.873   7.920
 1771SOL    HW2 7211   9.359   1.909   8.066
 1772SOL     OW 7212   7.106  12.687   9.614
 1772SOL    HW1 7213   7.198  12.671   9.596
 1772SOL    HW2 7214   7.060  12.653   9.537
 1773SOL     OW 7215   8.412   6.854   5.931
 1773SOL    HW1 7216   8.337   6.832   5.987
 1773SOL    HW2 7217   8.474   6.898   5.990
 1774SOL     OW 7218  14.764  14.628  10.459
 1774SOL    HW1 7219  14.673  14.658  10.466
 1774SOL    HW2 7220  14.815  14.709  10.448
 1775SOL     OW 7221   5.417   3.250   7.218
 1775SOL    HW1 7222   5.355   3.271   7.287
 1775SOL    HW2 7223   5.501   3.286   7.248
 1776SOL     OW 7224   3.172   3.737   3.940
 1776SOL    HW1 7225   3.212   3.690   4.013
 1776SOL    HW2 7226   3.246   3.775   3.892
 1777SOL     OW 7227  13.571  12.316   7.735
 1777SOL    HW1 7228  13.544  12.370   7.660
 1777SOL    HW2 7229  13.490  12.300   7.783
 1778SOL     OW 7230   6.843   8.449   4.761
 1778SOL    HW1 7231   6.937   8.459   4.779
 1778SOL    HW2 7232   6.833   8.357   4.735
 1779SOL     OW 7233   1.204   4.783   1.322
 1779SOL    HW1 7234   1.159   4.803   1.404
 1779SOL    HW2 7235   1.156   4.833   1.256
 1780SOL     OW 7236  12.979   6.985   5.489
 1780SOL    HW1 7237  12.955   7.009   5.400
 1780SOL    HW2 7238  13.056   7.039   5.508
 1781SOL     OW 7239   1.646   7.081   7.486
 1781SOL    HW1 7240   1.593   7.032   7.424
 1781SOL    HW2 7241   1.582   7.122   7.545
 1782SOL     OW 7242   5.967   3.735   3.272
 1782SOL    HW1 7243   5.921   3.662   3.313
 1782SOL    HW2 7244   6.029   3.765   3.338
 1783SOL     OW 7245  10.230   0.337  10.089
 1783SOL    HW1 7246  10.250   0.421  10.130
 1783SOL    HW2 7247  10.311   0.311  10.045
 1784SOL     OW 7248   1.647  14.193  14.225
 1784SOL    HW1 7249   1.593  14.123  14.188
 1784SOL    HW2 7250   1.734  14.156  14.231
 1785SOL     OW 7251   7.374   4.497   0.745
 1785SOL    HW1 7252   7.445   4.510   0.683
 1785SOL    HW2 7253   7.418   4.481   0.829
 1786SOL     OW 7254   2.149  11.365   6.885
 1786SOL    HW1 7255   2.055  11.366   6.865
 1786SOL    HW2 7256   2.156  11.319   6.969
 1787SOL     OW 7257  13.256   6.439   7.619
 1787SOL    HW1 7258  13.333   6.427   7.675
 1787SOL    HW2 7259  13.219   6.351   7.611
 1788SOL     OW 7260   0.259   8.659  10.973
 1788SOL    HW1 7261   0.192   8.699  10.917
 1788SOL    HW2 7262   0.299   8.734  11.018
 1789SOL     OW 7263   8.242   0.407  13.728
 1789SOL    HW1 7264   8.299   0.481  13.707
 1789SOL    HW2 7265   8.283   0.367  13.805
 1790SOL     OW 7266  12.222  10.966   0.515
 1790SOL    HW1 7267  12.168  10.920   0.450
 1790SOL    HW2 7268  12.312  10.954   0.485
 1791SOL     OW 7269   0.415   0.147   4.969
 1791SOL    HW1 7270   0.511   0.138   4.972
 1791SOL    HW2 7271   0.398   0.235   5.002
 1792SOL     OW 7272   0.516  11.636   5.970
 1792SOL    HW1 7273   0.516  11.674   6.057
 1792SOL    HW2 7274   0.485  11.707   5.913
 1793SOL     OW 7275  11.926   4.819  11.620
 1793SOL    HW1 7276  11.832   4.814  11.604
 1793SOL    HW2 7277  11.935   4.808  11.715
 1794SOL     OW 7278  12.656  11.491  12.961
 1794SOL    HW1 7279  12.706  11.530  12.889
 1794SOL    HW2 7280  12.572  11.469  12.923
 1795SOL     OW 7281  11.430   3.918   7.211
 1795SOL    HW1 7282  11.421   3.828   7.245
 1795SOL    HW2 7283  11.493   3.959   7.271
 1796SOL     OW 7284   2.700   8.486   0.808
 1796SOL    HW1 7285   2.663   8.482   0.720
 1796SOL    HW2 7286   2.634   8.444   0.863
 1797SOL     OW 7287   0.551   3.327   2.057
 1797SOL    HW1 7288   0.546   3.274   2.137
 1797SOL    HW2 7289   0.556   3.262   1.986
 1798SOL     OW 7290   7.069   3.473   6.942
 1798SOL    HW1 7291   7.116   3.393   6.965
 1798SOL    HW2 7292   6.998   3.479   7.006
 1799SOL     OW 7293  12.543   0.005   7.397
 1799SOL    HW1 7294  12.489  14.821   7.433
 1799SOL    HW2 7295  12.625  14.886   7.446
 1800SOL     OW 7296  11.342   9.088   8.749
 1800SOL    HW1 7297  11.387   9.138   8.681
 1800SOL    HW2 7298  11.267   9.142   8.773
 1801SOL     OW 7299   1.234   7.357  12.335
 1801SOL    HW1 7300   1.155   7.411  12.344
 1801SOL    HW2 7301   1.250   7.353  12.241
 1802SOL     OW 7302   2.640  10.665   9.420
 1802SOL    HW1 7303   2.698  10.618   9.480
 1802SOL    HW2 7304   2.581  10.715   9.477
 1803SOL     OW 7305   7.655  12.766  10.135
 1803SOL    HW1 7306   7.606  12.698  10.181
 1803SOL    HW2 7307   7.616  12.769  10.048
 1804SOL     OW 7308  10.265   1.198   8.123
 1804SOL    HW1 7309  10.280   1.218   8.031
 1804SOL    HW2 7310  10.281   1.280   8.169
 1805SOL     OW 7311   9.281  14.511  10.349
 1805SOL    HW1 7312   9.235  14.575  10.404
 1805SOL    HW2 7313   9.217  14.487  10.282
 1806SOL     OW 7314   4.543   2.749   2.705
 1806SOL    HW1 7315   4.604   2.683   2.672
 1806SOL    HW2 7316   4.598   2.824   2.728
 1807SOL     OW 7317   4.887   9.597  12.627
 1807SOL    HW1 7318   4.900   9.663  12.695
 1807SOL    HW2 7319   4.958   9.612  12.565
 1808SOL     OW 7320  13.711  13.586  11.306
 1808SOL    HW1 7321  13.793  13.541  11.283
 1808SOL    HW2 7322  13.644  13.538  11.257
 1809SOL     OW 7323   4.352   1.280  11.817
 1809SOL    HW1 7324   4.327   1.325  11.736
 1809SOL    HW2 7325   4.431   1.232  11.794
 1810SOL     OW 7326  13.932   7.257  12.559
 1810SOL    HW1 7327  13.928   7.163  12.574
 1810SOL    HW2 7328  13.924   7.267  12.464
 1811SOL     OW 7329   3.331  13.225   5.108
 1811SOL    HW1 7330   3.425  13.227   5.124
 1811SOL    HW2 7331   3.318  13.151   5.049
 1812SOL     OW 7332   7.485   1.584   3.405
 1812SOL    HW1 7333   7.464   1.636   3.482
 1812SOL    HW2 7334   7.405   1.534   3.388
 1813SOL     OW 7335  11.965   2.021   2.679
 1813SOL    HW1 7336  12.047   2.068   2.691
 1813SOL    HW2 7337  11.959   1.963   2.756
 1814SOL     OW 7338  13.524  10.404   5.601
 1814SOL    HW1 7339  13.617  10.427   5.606
 1814SOL    HW2 7340  13.499  10.426   5.511
 1815SOL     OW 7341  14.421  11.939   8.987
 1815SOL    HW1 7342  14.426  11.964   9.079
 1815SOL    HW2 7343  14.354  11.997   8.950
 1816SOL     OW 7344   2.501   1.521   0.043
 1816SOL    HW1 7345   2.519   1.458   0.113
 1816SOL    HW2 7346   2.579   1.519  14.875
 1817SOL     OW 7347   3.429   3.542  13.548
 1817SOL    HW1 7348   3.381   3.512  13.470
 1817SOL    HW2 7349   3.402   3.633  13.559
 1818SOL     OW 7350   4.547  12.725   0.287
 1818SOL    HW1 7351   4.493  12.804   0.296
 1818SOL    HW2 7352   4.507  12.662   0.347
 1819SOL     OW 7353   1.805   2.233  13.236
 1819SOL    HW1 7354   1.727   2.230  13.181
 1819SOL    HW2 7355   1.856   2.306  13.201
 1820SOL     OW 7356   8.676   4.963   4.964
 1820SOL    HW1 7357   8.759   4.949   4.919
 1820SOL    HW2 7358   8.616   4.901   4.924
 1821SOL     OW 7359  12.389   6.641   0.271
 1821SOL    HW1 7360  12.460   6.687   0.227
 1821SOL    HW2 7361  12.406   6.548   0.255
 1822SOL     OW 7362  12.570   6.743   1.359
 1822SOL    HW1 7363  12.582   6.748   1.264
 1822SOL    HW2 7364  12.641   6.687   1.390
 1823SOL     OW 7365  10.415  10.303   1.460
 1823SOL    HW1 7366  10.438  10.320   1.369
 1823SOL    HW2 7367  10.481  10.241   1.491
 1824SOL     OW 7368   8.387   6.379   5.097
 1824SOL    HW1 7369   8.423   6.446   5.040
 1824SOL    HW2 7370   8.424   6.297   5.063
 1825SOL     OW 7371   0.044   2.646  10.028
 1825SOL    HW1 7372   0.123   2.625   9.977
 1825SOL    HW2 7373   0.077   2.670  10.114
 1826SOL     OW 7374   0.615   9.536  11.460
 1826SOL    HW1 7375   0.599   9.538  11.554
 1826SOL    HW2 7376   0.536   9.497  11.423
 1827SOL     OW 7377   0.799   4.922   6.185
 1827SOL    HW1 7378   0.845   4.990   6.136
 1827SOL    HW2 7379   0.734   4.970   6.238
 1828SOL     OW 7380  14.583   8.273  10.557
 1828SOL    HW1 7381  14.529   8.295  10.633
 1828SOL    HW2 7382  14.616   8.185  10.576
 1829SOL     OW 7383   5.643   8.343  14.466
 1829SOL    HW1 7384   5.625   8.377  14.554
 1829SOL    HW2 7385   5.597   8.258  14.464
 1830SOL     OW 7386   8.732   6.868   0.917
 1830SOL    HW1 7387   8.699   6.937   0.976
 1830SOL    HW2 7388   8.807   6.831   0.964
 1831SOL     OW 7389  14.883   6.664   3.505
 1831SOL    HW1 7390   0.028   6.731   3.444
 1831SOL    HW2 7391   0.020   6.696   3.591
 1832SOL     OW 7392  11.770   6.195   6.534
 1832SOL    HW1 7393  11.814   6.200   6.449
 1832SOL    HW2 7394  11.837   6.166   6.595
 1833SOL     OW 7395   1.872   3.685   4.908
 1833SOL    HW1 7396   1.850   3.607   4.959
 1833SOL    HW2 7397   1.787   3.724   4.886
 1834SOL     OW 7398  14.213   5.370  13.918
 1834SOL    HW1 7399  14.135   5.382  13.863
 1834SOL    HW2 7400  14.269   5.311  13.869
 1835SOL     OW 7401  11.286   7.816   0.502
 1835SOL    HW1 7402  11.257   7.873   0.431
 1835SOL    HW2 7403  11.245   7.732   0.485
 1836SOL     OW 7404   8.991   0.647   2.055
 1836SOL    HW1 7405   8.911   0.697   2.074
 1836SOL    HW2 7406   8.965   0.588   1.984
 1837SOL     OW 7407   4.546   6.364  14.228
 1837SOL    HW1 7408   4.454   6.387  14.240
 1837SOL    HW2 7409   4.544   6.273  14.198
 1838SOL     OW 7410   8.784   7.195   3.445
 1838SOL    HW1 7411   8.762   7.229   3.531
 1838SOL    HW2 7412   8.842   7.120   3.462
 1839SOL     OW 7413   5.487   2.583   7.104
 1839SOL    HW1 7414   5.474   2.678   7.106
 1839SOL    HW2 7415   5.510   2.560   7.194
 1840SOL     OW 7416   2.296  11.203  11.851
 1840SOL    HW1 7417   2.308  11.293  11.823
 1840SOL    HW2 7418   2.201  11.193  11.859
 1841SOL     OW 7419   4.854   9.713  13.124
 1841SOL    HW1 7420   4.877   9.804  13.106
 1841SOL    HW2 7421   4.938   9.671  13.145
 1842SOL     OW 7422   8.400  10.048   1.640
 1842SOL    HW1 7423   8.356  10.106   1.702
 1842SOL    HW2 7424   8.405   9.964   1.685
 1843SOL     OW 7425  12.205   9.679   0.256
 1843SOL    HW1 7426  12.177   9.640   0.173
 1843SOL    HW2 7427  12.254   9.609   0.300
 1844SOL     OW 7428   0.298   8.327   4.329
 1844SOL    HW1 7429   0.299   8.367   4.242
 1844SOL    HW2 7430   0.381   8.352   4.368
 1845SOL     OW 7431   9.532   0.959   5.566
 1845SOL    HW1 7432   9.574   0.874   5.558
 1845SOL    HW2 7433   9.600   1.017   5.598
 1846SOL     OW 7434  13.772   2.130  11.643
 1846SOL    HW1 7435  13.784   2.129  11.738
 1846SOL    HW2 7436  13.796   2.042  11.615
 1847SOL     OW 7437  10.184   6.750   7.062
 1847SOL    HW1 7438  10.091   6.760   7.086
 1847SOL    HW2 7439  10.231   6.764   7.143
 1848SOL     OW 7440   1.480   3.198   1.203
 1848SOL    HW1 7441   1.465   3.199   1.108
 1848SOL    HW2 7442   1.468   3.106   1.228
 1849SOL     OW 7443  11.555   9.746   1.473
 1849SOL    HW1 7444  11.494   9.673   1.481
 1849SOL    HW2 7445  11.642   9.707   1.477
 1850SOL     OW 7446   4.438  13.501   7.811
 1850SOL    HW1 7447   4.529  13.479   7.829
 1850SOL    HW2 7448   4.417  13.571   7.873
 1851SOL     OW 7449   0.209   3.764  13.632
 1851SOL    HW1 7450   0.246   3.825  13.569
 1851SOL    HW2 7451   0.115   3.761  13.611
 1852SOL     OW 7452   7.444   8.037   1.341
 1852SOL    HW1 7453   7.432   7.945   1.362
 1852SOL    HW2 7454   7.533   8.058   1.369
 1853SOL     OW 7455  10.706   1.124   2.202
 1853SOL    HW1 7456  10.669   1.211   2.189
 1853SOL    HW2 7457  10.661   1.069   2.137
 1854SOL     OW 7458   0.968   7.843   9.755
 1854SOL    HW1 7459   0.974   7.780   9.683
 1854SOL    HW2 7460   0.876   7.868   9.758
 1855SOL     OW 7461  13.683   3.936  10.927
 1855SOL    HW1 7462  13.614   3.875  10.952
 1855SOL    HW2 7463  13.665   3.955  10.835
 1856SOL     OW 7464   8.911  12.948   6.303
 1856SOL    HW1 7465   8.874  12.914   6.221
 1856SOL    HW2 7466   8.990  12.896   6.317
 1857SOL     OW 7467   7.937   4.182   6.470
 1857SOL    HW1 7468   7.856   4.154   6.428
 1857SOL    HW2 7469   7.935   4.277   6.466
 1858SOL     OW 7470  12.584   5.070  13.662
 1858SOL    HW1 7471  12.607   5.015  13.737
 1858SOL    HW2 7472  12.493   5.047  13.642
 1859SOL     OW 7473  11.787   0.934  10.410
 1859SOL    HW1 7474  11.850   0.950  10.339
 1859SOL    HW2 7475  11.752   0.847  10.392
 1860SOL     OW 7476  10.722   5.721  12.694
 1860SOL    HW1 7477  10.642   5.681  12.729
 1860SOL    HW2 7478  10.750   5.661  12.624
 1861SOL     OW 7479   4.599  14.829  14.460
 1861SOL    HW1 7480   4.526  14.820  14.399
 1861SOL    HW2 7481   4.671  14.781  14.419
 1862SOL     OW 7482   9.515  14.089  13.558
 1862SOL    HW1 7483   9.425  14.098  13.526
 1862SOL    HW2 7484   9.561  14.165  13.522
 1863SOL     OW 7485  12.636  10.616   4.630
 1863SOL    HW1 7486  12.552  10.583   4.663
 1863SOL    HW2 7487  12.618  10.643   4.540
 1864SOL     OW 7488   6.763   3.923   8.561
 1864SOL    HW1 7489   6.786   3.832   8.583
 1864SOL    HW2 7490   6.808   3.940   8.479
 1865SOL     OW 7491  14.247  13.860   2.908
 1865SOL    HW1 7492  14.211  13.771   2.916
 1865SOL    HW2 7493  14.311  13.866   2.979
 1866SOL     OW 7494  13.083   5.677  10.461
 1866SOL    HW1 7495  13.044   5.761  10.486
 1866SOL    HW2 7496  13.029   5.611  10.505
 1867SOL     OW 7497   5.988   3.410  11.424
 1867SOL    HW1 7498   5.926   3.338  11.438
 1867SOL    HW2 7499   6.057   3.396  11.488
 1868SOL     OW 7500   9.710  14.815  11.210
 1868SOL    HW1 7501   9.795  14.854  11.190
 1868SOL    HW2 7502   9.685  14.768  11.130
 1869SOL     OW 7503   1.876  12.052   4.263
 1869SOL    HW1 7504   1.857  12.084   4.351
 1869SOL    HW2 7505   1.791  12.044   4.221
 1870SOL     OW 7506   7.269   5.210   5.380
 1870SOL    HW1 7507   7.185   5.188   5.421
 1870SOL    HW2 7508   7.283   5.141   5.315
 1871SOL     OW 7509   7.865  14.881   9.396
 1871SOL    HW1 7510   7.912  14.816   9.343
 1871SOL    HW2 7511   7.845   0.065   9.335
 1872SOL     OW 7512   8.349   0.553  10.470
 1872SOL    HW1 7513   8.281   0.617  10.451
 1872SOL    HW2 7514   8.370   0.514  10.385
 1873SOL     OW 7515  14.814   6.082   9.099
 1873SOL    HW1 7516  14.736   6.051   9.145
 1873SOL    HW2 7517  14.831   6.168   9.136
 1874SOL     OW 7518   3.234   6.206  12.627
 1874SOL    HW1 7519   3.327   6.221  12.609
 1874SOL    HW2 7520   3.229   6.112  12.648
 1875SOL     OW 7521   9.712   6.246   3.011
 1875SOL    HW1 7522   9.697   6.335   3.041
 1875SOL    HW2 7523   9.649   6.193   3.060
 1876SOL     OW 7524  13.415   2.682  14.834
 1876SOL    HW1 7525  13.442   2.629   0.022
 1876SOL    HW2 7526  13.345   2.632  14.793
 1877SOL     OW 7527   4.829  12.499  14.107
 1877SOL    HW1 7528   4.794  12.581  14.140
 1877SOL    HW2 7529   4.837  12.512  14.013
 1878SOL     OW 7530   4.696   2.541   2.535
 1878SOL    HW1 7531   4.681   2.457   2.492
 1878SOL    HW2 7532   4.717   2.518   2.626
 1879SOL     OW 7533   9.899   8.852   6.514
 1879SOL    HW1 7534   9.905   8.792   6.439
 1879SOL    HW2 7535   9.826   8.910   6.492
 1880SOL     OW 7536   6.625  11.965   9.688
 1880SOL    HW1 7537   6.627  11.915   9.607
 1880SOL    HW2 7538   6.538  12.006   9.688
 1881SOL     OW 7539  11.567  10.101  11.449
 1881SOL    HW1 7540  11.638  10.099  11.513
 1881SOL    HW2 7541  11.612  10.109  11.364
 1882SOL     OW 7542   2.171   8.891   9.419
 1882SOL    HW1 7543   2.224   8.868   9.342
 1882SOL    HW2 7544   2.234   8.889   9.492
 1883SOL     OW 7545  10.106   9.522   6.480
 1883SOL    HW1 7546  10.095   9.449   6.418
 1883SOL    HW2 7547  10.056   9.594   6.441
 1884SOL     OW 7548   1.543   0.108  14.034
 1884SOL    HW1 7549   1.586   0.160  13.966
 1884SOL    HW2 7550   1.581   0.138  14.116
 1885SOL     OW 7551   5.691  14.236   2.341
 1885SOL    HW1 7552   5.718  14.327   2.359
 1885SOL    HW2 7553   5.641  14.242   2.260
 1886SOL     OW 7554   3.614   7.288   8.992
 1886SOL    HW1 7555   3.578   7.212   8.945
 1886SOL    HW2 7556   3.542   7.320   9.045
 1887SOL     OW 7557   8.627   7.314   4.033
 1887SOL    HW1 7558   8.659   7.402   4.014
 1887SOL    HW2 7559   8.672   7.289   4.114
 1888SOL     OW 7560   7.212   0.692   1.925
 1888SOL    HW1 7561   7.165   0.685   2.008
 1888SOL    HW2 7562   7.182   0.776   1.888
 1889SOL     OW 7563   2.892  14.845  11.441
 1889SOL    HW1 7564   2.970  14.825  11.492
 1889SOL    HW2 7565   2.904  14.796  11.359
 1890SOL     OW 7566   5.738  10.280  13.530
 1890SOL    HW1 7567   5.654  10.323  13.549
 1890SOL    HW2 7568   5.716  10.189  13.515
 1891SOL     OW 7569  12.092   6.692   1.290
 1891SOL    HW1 7570  12.110   6.716   1.381
 1891SOL    HW2 7571  12.034   6.616   1.297
 1892SOL     OW 7572   2.993   4.278   5.593
 1892SOL    HW1 7573   2.967   4.370   5.598
 1892SOL    HW2 7574   2.916   4.230   5.624
 1893SOL     OW 7575   2.159  11.497   9.734
 1893SOL    HW1 7576   2.159  11.421   9.676
 1893SOL    HW2 7577   2.244  11.493   9.779
 1894SOL     OW 7578   9.294   4.053  12.805
 1894SOL    HW1 7579   9.387   4.051  12.781
 1894SOL    HW2 7580   9.273   4.146  12.812
 1895SOL     OW 7581   5.280   7.533   8.160
 1895SOL    HW1 7582   5.351   7.476   8.190
 1895SOL    HW2 7583   5.209   7.473   8.139
 1896SOL     OW 7584   8.566   1.024  14.495
 1896SOL    HW1 7585   8.648   1.018  14.447
 1896SOL    HW2 7586   8.585   1.084  14.568
 1897SOL     OW 7587   6.266  13.514   6.772
 1897SOL    HW1 7588   6.288  13.585   6.832
 1897SOL    HW2 7589   6.274  13.434   6.825
 1898SOL     OW 7590  10.369  10.491  10.308
 1898SOL    HW1 7591  10.286  10.444  10.295
 1898SOL    HW2 7592  10.380  10.544  10.229
 1899SOL     OW 7593   6.403  14.757   3.905
 1899SOL    HW1 7594   6.498  14.765   3.908
 1899SOL    HW2 7595   6.385  14.669   3.937
 1900SOL     OW 7596   4.093   1.818  13.908
 1900SOL    HW1 7597   4.101   1.804  14.003
 1900SOL    HW2 7598   4.171   1.868  13.885
 1901SOL     OW 7599   1.108   7.243   1.373
 1901SOL    HW1 7600   1.097   7.153   1.341
 1901SOL    HW2 7601   1.121   7.234   1.467
 1902SOL     OW 7602  10.426  11.908  12.779
 1902SOL    HW1 7603  10.346  11.894  12.729
 1902SOL    HW2 7604  10.442  12.002  12.772
 1903SOL     OW 7605   6.343   1.822   7.640
 1903SOL    HW1 7606   6.285   1.895   7.617
 1903SOL    HW2 7607   6.283   1.751   7.662
 1904SOL     OW 7608   3.138   6.809   8.205
 1904SOL    HW1 7609   3.224   6.773   8.183
 1904SOL    HW2 7610   3.154   6.903   8.216
 1905SOL     OW 7611   4.266   6.972   8.622
 1905SOL    HW1 7612   4.349   6.979   8.670
 1905SOL    HW2 7613   4.253   6.878   8.611
 1906SOL     OW 7614   4.856   0.851  14.725
 1906SOL    HW1 7615   4.889   0.761  14.730
 1906SOL    HW2 7616   4.773   0.848  14.773
 1907SOL     OW 7617   7.180  12.566  14.499
 1907SOL    HW1 7618   7.137  12.523  14.573
 1907SOL    HW2 7619   7.210  12.650  14.534
 1908SOL     OW 7620   5.084   3.814   0.657
 1908SOL    HW1 7621   5.012   3.796   0.717
 1908SOL    HW2 7622   5.089   3.910   0.653
 1909SOL     OW 7623   2.838   0.173  14.605
 1909SOL    HW1 7624   2.911   0.120  14.639
 1909SOL    HW2 7625   2.794   0.206  14.683
 1910SOL     OW 7626   3.178  12.794  13.440
 1910SOL    HW1 7627   3.139  12.870  13.483
 1910SOL    HW2 7628   3.120  12.721  13.464
 1911SOL     OW 7629  13.211   2.033   4.675
 1911SOL    HW1 7630  13.172   2.093   4.612
 1911SOL    HW2 7631  13.205   2.079   4.759
 1912SOL     OW 7632  12.454  10.375  13.149
 1912SOL    HW1 7633  12.379  10.419  13.108
 1912SOL    HW2 7634  12.486  10.437  13.214
 1913SOL     OW 7635   5.335   3.475   3.979
 1913SOL    HW1 7636   5.257   3.516   4.016
 1913SOL    HW2 7637   5.367   3.417   4.049
 1914SOL     OW 7638  14.201   6.618  10.402
 1914SOL    HW1 7639  14.187   6.712  10.416
 1914SOL    HW2 7640  14.266   6.594  10.468
 1915SOL     OW 7641   2.358  12.839   6.096
 1915SOL    HW1 7642   2.292  12.815   6.030
 1915SOL    HW2 7643   2.322  12.806   6.178
 1916SOL     OW 7644  12.055   1.252   5.127
 1916SOL    HW1 7645  12.116   1.308   5.080
 1916SOL    HW2 7646  12.097   1.166   5.129
 1917SOL     OW 7647   0.200  11.072   8.808
 1917SOL    HW1 7648   0.186  11.143   8.746
 1917SOL    HW2 7649   0.292  11.082   8.835
 1918SOL     OW 7650  11.330   8.235   5.490
 1918SOL    HW1 7651  11.365   8.302   5.431
 1918SOL    HW2 7652  11.373   8.252   5.574
 1919SOL     OW 7653  13.966   4.753  10.203
 1919SOL    HW1 7654  13.974   4.766  10.109
 1919SOL    HW2 7655  13.877   4.719  10.215
 1920SOL     OW 7656  14.568  12.044  13.775
 1920SOL    HW1 7657  14.595  11.976  13.714
 1920SOL    HW2 7658  14.517  12.105  13.721
 1921SOL     OW 7659   8.617  10.215  14.208
 1921SOL    HW1 7660   8.587  10.300  14.178
 1921SOL    HW2 7661   8.640  10.229  14.300
 1922SOL     OW 7662   6.544   5.376  14.580
 1922SOL    HW1 7663   6.521   5.405  14.492
 1922SOL    HW2 7664   6.629   5.334  14.571
 1923SOL     OW 7665   5.154   1.970  11.283
 1923SOL    HW1 7666   5.074   1.998  11.327
 1923SOL    HW2 7667   5.170   1.881  11.313
 1924SOL     OW 7668  12.019  14.523   5.771
 1924SOL    HW1 7669  11.945  14.488   5.721
 1924SOL    HW2 7670  12.062  14.583   5.710
 1925SOL     OW 7671  13.372   0.898   6.597
 1925SOL    HW1 7672  13.293   0.920   6.547
 1925SOL    HW2 7673  13.390   0.976   6.650
 1926SOL     OW 7674  14.576   7.125   6.973
 1926SOL    HW1 7675  14.549   7.204   7.020
 1926SOL    HW2 7676  14.517   7.121   6.897
 1927SOL     OW 7677  14.318  12.750   7.610
 1927SOL    HW1 7678  14.225  12.772   7.609
 1927SOL    HW2 7679  14.321  12.655   7.604
 1928SOL     OW 7680   2.857  14.336   4.643
 1928SOL    HW1 7681   2.845  14.246   4.673
 1928SOL    HW2 7682   2.803  14.342   4.564
 1929SOL     OW 7683   4.709   3.162   8.816
 1929SOL    HW1 7684   4.683   3.219   8.744
 1929SOL    HW2 7685   4.804   3.157   8.809
 1930SOL     OW 7686  13.697   9.148   8.133
 1930SOL    HW1 7687  13.724   9.240   8.124
 1930SOL    HW2 7688  13.660   9.142   8.221
 1931SOL     OW 7689   9.523  13.463   0.329
 1931SOL    HW1 7690   9.559  13.382   0.294
 1931SOL    HW2 7691   9.594  13.527   0.320
 1932SOL     OW 7692   5.762   7.892   3.281
 1932SOL    HW1 7693   5.728   7.874   3.193
 1932SOL    HW2 7694   5.810   7.974   3.272
 1933SOL     OW 7695  14.505   7.970  13.362
 1933SOL    HW1 7696  14.574   7.939  13.421
 1933SOL    HW2 7697  14.550   8.021  13.296
 1934SOL     OW 7698  14.444   0.673   6.768
 1934SOL    HW1 7699  14.433   0.686   6.674
 1934SOL    HW2 7700  14.419   0.581   6.782
 1935SOL     OW 7701   9.512  13.827   1.949
 1935SOL    HW1 7702   9.490  13.782   2.031
 1935SOL    HW2 7703   9.552  13.910   1.978
 1936SOL     OW 7704  12.926   1.699  11.704
 1936SOL    HW1 7705  12.915   1.687  11.799
 1936SOL    HW2 7706  13.005   1.752  11.696
 1937SOL     OW 7707  13.873  12.665   4.659
 1937SOL    HW1 7708  13.899  12.592   4.715
 1937SOL    HW2 7709  13.871  12.741   4.717
 1938SOL     OW 7710  12.256  14.011   1.924
 1938SOL    HW1 7711  12.351  14.015   1.910
 1938SOL    HW2 7712  12.235  14.096   1.962
 1939SOL     OW 7713  13.981   2.779  12.170
 1939SOL    HW1 7714  13.888   2.795  12.188
 1939SOL    HW2 7715  14.024   2.861  12.195
 1940SOL     OW 7716  10.930  13.452   6.155
 1940SOL    HW1 7717  10.985  13.378   6.128
 1940SOL    HW2 7718  10.850  13.411   6.187
 1941SOL     OW 7719  11.498   5.885   4.054
 1941SOL    HW1 7720  11.542   5.801   4.066
 1941SOL    HW2 7721  11.428   5.885   4.119
 1942SOL     OW 7722   4.305  11.970   3.999
 1942SOL    HW1 7723   4.283  11.917   4.076
 1942SOL    HW2 7724   4.399  11.959   3.989
 1943SOL     OW 7725   5.172   7.437   4.391
 1943SOL    HW1 7726   5.253   7.414   4.437
 1943SOL    HW2 7727   5.103   7.419   4.455
 1944SOL     OW 7728  12.163   5.777   3.481
 1944SOL    HW1 7729  12.161   5.727   3.399
 1944SOL    HW2 7730  12.105   5.729   3.540
 1945SOL     OW 7731   6.659   1.459   9.732
 1945SOL    HW1 7732   6.636   1.552   9.735
 1945SOL    HW2 7733   6.707   1.444   9.813
 1946SOL     OW 7734   9.322  12.508   3.498
 1946SOL    HW1 7735   9.396  12.479   3.447
 1946SOL    HW2 7736   9.341  12.480   3.588
 1947SOL     OW 7737   6.836  14.187   5.756
 1947SOL    HW1 7738   6.896  14.139   5.814
 1947SOL    HW2 7739   6.882  14.269   5.737
 1948SOL     OW 7740   8.050   5.513  12.656
 1948SOL    HW1 7741   8.112   5.462  12.708
 1948SOL    HW2 7742   8.014   5.450  12.593
 1949SOL     OW 7743   3.666   5.195   6.084
 1949SOL    HW1 7744   3.689   5.204   5.991
 1949SOL    HW2 7745   3.647   5.102   6.095
 1950SOL     OW 7746   6.754   7.526   8.634
 1950SOL    HW1 7747   6.662   7.552   8.635
 1950SOL    HW2 7748   6.778   7.518   8.726
 1951SOL     OW 7749   4.429   7.832   0.612
 1951SOL    HW1 7750   4.499   7.821   0.548
 1951SOL    HW2 7751   4.445   7.918   0.651
 1952SOL     OW 7752   0.497  13.159   3.041
 1952SOL    HW1 7753   0.467  13.184   3.128
 1952SOL    HW2 7754   0.525  13.068   3.050
 1953SOL     OW 7755  10.591   1.448  14.332
 1953SOL    HW1 7756  10.558   1.458  14.421
 1953SOL    HW2 7757  10.634   1.362  14.332
 1954SOL     OW 7758   9.552  11.900   6.980
 1954SOL    HW1 7759   9.592  11.945   6.905
 1954SOL    HW2 7760   9.463  11.936   6.983
 1955SOL     OW 7761   3.581   1.559   9.954
 1955SOL    HW1 7762   3.649   1.599  10.008
 1955SOL    HW2 7763   3.570   1.472   9.991
 1956SOL     OW 7764   0.685  13.519   1.444
 1956SOL    HW1 7765   0.680  13.614   1.435
 1956SOL    HW2 7766   0.597  13.488   1.422
 1957SOL     OW 7767  12.226   3.276   2.034
 1957SOL    HW1 7768  12.259   3.197   1.991
 1957SOL    HW2 7769  12.297   3.304   2.091
 1958SOL     OW 7770   1.787   0.608   1.368
 1958SOL    HW1 7771   1.748   0.582   1.451
 1958SOL    HW2 7772   1.859   0.546   1.356
 1959SOL     OW 7773  13.124   1.401  13.813
 1959SOL    HW1 7774  13.214   1.400  13.781
 1959SOL    HW2 7775  13.123   1.468  13.881
 1960SOL     OW 7776  12.256  12.867   7.148
 1960SOL    HW1 7777  12.186  12.857   7.084
 1960SOL    HW2 7778  12.211  12.889   7.230
 1961SOL     OW 7779  11.575   3.662  13.385
 1961SOL    HW1 7780  11.591   3.756  13.372
 1961SOL    HW2 7781  11.493   3.645  13.338
 1962SOL     OW 7782  13.580   4.103   3.341
 1962SOL    HW1 7783  13.530   4.156   3.403
 1962SOL    HW2 7784  13.562   4.143   3.255
 1963SOL     OW 7785   1.613   6.923   5.614
 1963SOL    HW1 7786   1.555   6.852   5.586
 1963SOL    HW2 7787   1.694   6.879   5.641
 1964SOL     OW 7788  11.174   8.916  13.274
 1964SOL    HW1 7789  11.152   8.839  13.326
 1964SOL    HW2 7790  11.123   8.906  13.194
 1965SOL     OW 7791  12.925  11.857   7.714
 1965SOL    HW1 7792  12.977  11.802   7.773
 1965SOL    HW2 7793  12.959  11.945   7.726
 1966SOL     OW 7794   8.986  14.063  11.978
 1966SOL    HW1 7795   9.076  14.035  11.961
 1966SOL    HW2 7796   8.994  14.154  12.005
 1967SOL     OW 7797   1.852   1.675  13.303
 1967SOL    HW1 7798   1.814   1.763  13.304
 1967SOL    HW2 7799   1.829   1.638  13.388
 1968SOL     OW 7800   0.268  12.885   4.604
 1968SOL    HW1 7801   0.180  12.924   4.601
 1968SOL    HW2 7802   0.283  12.869   4.697
 1969SOL     OW 7803   9.185   0.796   6.499
 1969SOL    HW1 7804   9.245   0.819   6.428
 1969SOL    HW2 7805   9.196   0.701   6.509
 1970SOL     OW 7806   9.787  14.593   4.825
 1970SOL    HW1 7807   9.811  14.550   4.742
 1970SOL    HW2 7808   9.700  14.628   4.809
 1971SOL     OW 7809  14.636   9.746   0.216
 1971SOL    HW1 7810  14.597   9.728   0.131
 1971SOL    HW2 7811  14.646   9.842   0.218
 1972SOL     OW 7812   4.076   4.399  12.452
 1972SOL    HW1 7813   4.035   4.355  12.377
 1972SOL    HW2 7814   4.152   4.443  12.415
 1973SOL     OW 7815   1.913   0.165   0.611
 1973SOL    HW1 7816   1.994   0.135   0.651
 1973SOL    HW2 7817   1.859   0.194   0.685
 1974SOL     OW 7818   9.196   9.096   2.257
 1974SOL    HW1 7819   9.204   9.106   2.352
 1974SOL    HW2 7820   9.105   9.074   2.242
 1975SOL     OW 7821   8.165   1.685   2.049
 1975SOL    HW1 7822   8.164   1.683   1.953
 1975SOL    HW2 7823   8.148   1.776   2.071
 1976SOL     OW 7824   6.927   7.387  12.933
 1976SOL    HW1 7825   6.890   7.473  12.949
 1976SOL    HW2 7826   6.952   7.389  12.840
 1977SOL     OW 7827   9.495   8.342   4.830
 1977SOL    HW1 7828   9.578   8.389   4.821
 1977SOL    HW2 7829   9.440   8.400   4.881
 1978SOL     OW 7830   5.917   4.826   5.713
 1978SOL    HW1 7831   6.006   4.791   5.717
 1978SOL    HW2 7832   5.866   4.755   5.672
 1979SOL     OW 7833   8.855   4.459   6.192
 1979SOL    HW1 7834   8.881   4.412   6.271
 1979SOL    HW2 7835   8.770   4.422   6.169
 1980SOL     OW 7836   8.649   8.869   3.214
 1980SOL    HW1 7837   8.640   8.783   3.253
 1980SOL    HW2 7838   8.704   8.855   3.136
 1981SOL     OW 7839   6.775   4.969   2.693
 1981SOL    HW1 7840   6.788   4.909   2.620
 1981SOL    HW2 7841   6.830   4.934   2.763
 1982SOL     OW 7842  13.055   7.462  14.244
 1982SOL    HW1 7843  13.044   7.368  14.255
 1982SOL    HW2 7844  13.015   7.500  14.322
 1983SOL     OW 7845  14.530   2.469   0.319
 1983SOL    HW1 7846  14.586   2.400   0.353
 1983SOL    HW2 7847  14.477   2.427   0.251
 1984SOL     OW 7848   4.558   0.719   9.167
 1984SOL    HW1 7849   4.542   0.809   9.139
 1984SOL    HW2 7850   4.622   0.685   9.105
 1985SOL     OW 7851  14.438   4.842   2.545
 1985SOL    HW1 7852  14.495   4.767   2.527
 1985SOL    HW2 7853  14.403   4.824   2.633
 1986SOL     OW 7854   6.866  14.423  13.733
 1986SOL    HW1 7855   6.942  14.365  13.730
 1986SOL    HW2 7856   6.892  14.492  13.793
 1987SOL     OW 7857  11.064   0.174   5.200
 1987SOL    HW1 7858  11.044   0.156   5.292
 1987SOL    HW2 7859  10.985   0.215   5.166
 1988SOL     OW 7860   0.135   0.793   7.447
 1988SOL    HW1 7861   0.160   0.705   7.418
 1988SOL    HW2 7862   0.093   0.779   7.532
 1989SOL     OW 7863  10.165   6.351  12.709
 1989SOL    HW1 7864  10.143   6.431  12.662
 1989SOL    HW2 7865  10.212   6.298  12.644
 1990SOL     OW 7866   0.621   6.351   7.325
 1990SOL    HW1 7867   0.533   6.360   7.288
 1990SOL    HW2 7868   0.674   6.316   7.254
 1991SOL     OW 7869   1.008  10.392  13.599
 1991SOL    HW1 7870   0.991  10.300  13.581
 1991SOL    HW2 7871   1.103  10.400  13.592
 1992SOL     OW 7872   6.994   3.616  10.005
 1992SOL    HW1 7873   7.064   3.663   9.961
 1992SOL    HW2 7874   6.914   3.651   9.967
 1993SOL     OW 7875   7.245  11.378  12.041
 1993SOL    HW1 7876   7.161  11.406  12.005
 1993SOL    HW2 7877   7.306  11.446  12.013
 1994SOL     OW 7878   5.449  13.844   2.141
 1994SOL    HW1 7879   5.413  13.801   2.064
 1994SOL    HW2 7880   5.516  13.903   2.107
 1995SOL     OW 7881  11.062   4.180   8.917
 1995SOL    HW1 7882  11.153   4.209   8.913
 1995SOL    HW2 7883  11.052   4.141   9.003
 1996SOL     OW 7884   6.710   0.270  13.117
 1996SOL    HW1 7885   6.800   0.291  13.095
 1996SOL    HW2 7886   6.688   0.331  13.188
 1997SOL     OW 7887   0.473  13.357   1.798
 1997SOL    HW1 7888   0.489  13.289   1.732
 1997SOL    HW2 7889   0.478  13.311   1.882
 1998SOL     OW 7890  12.166  14.580   2.632
 1998SOL    HW1 7891  12.199  14.550   2.547
 1998SOL    HW2 7892  12.244  14.603   2.681
 1999SOL     OW 7893   4.507   7.987   2.523
 1999SOL    HW1 7894   4.460   8.032   2.452
 1999SOL    HW2 7895   4.441   7.978   2.592
 2000SOL     OW 7896   3.435   4.839  10.005
 2000SOL    HW1 7897   3.427   4.744   9.996
 2000SOL    HW2 7898   3.378   4.862  10.079
 2001SOL     OW 7899  14.516   0.630  10.348
 2001SOL    HW1 7900  14.528   0.538  10.369
 2001SOL    HW2 7901  14.601   0.670  10.364
 2002SOL     OW 7902   2.459   6.626   8.871
 2002SOL    HW1 7903   2.458   6.585   8.784
 2002SOL    HW2 7904   2.373   6.667   8.880
 2003SOL     OW 7905   3.866   8.512   5.996
 2003SOL    HW1 7906   3.947   8.533   6.042
 2003SOL    HW2 7907   3.893   8.459   5.922
 2004SOL     OW 7908  12.209   0.697   0.441
 2004SOL    HW1 7909  12.149   0.681   0.514
 2004SOL    HW2 7910  12.151   0.722   0.368
 2005SOL     OW 7911   8.991   9.764  14.855
 2005SOL    HW1 7912   9.056   9.785  14.788
 2005SOL    HW2 7913   9.018   9.679   0.002
 2006SOL     OW 7914   0.689   6.304  14.633
 2006SOL    HW1 7915   0.685   6.225  14.687
 2006SOL    HW2 7916   0.782   6.328  14.633
 2007SOL     OW 7917   3.094   0.778   3.549
 2007SOL    HW1 7918   3.162   0.780   3.615
 2007SOL    HW2 7919   3.043   0.700   3.569
 2008SOL     OW 7920  10.572   1.310   8.059
 2008SOL    HW1 7921  10.562   1.216   8.042
 2008SOL    HW2 7922  10.544   1.321   8.149
 2009SOL     OW 7923   3.428   0.971   7.802
 2009SOL    HW1 7924   3.364   0.953   7.871
 2009SOL    HW2 7925   3.429   0.891   7.749
 2010SOL     OW 7926   2.910   8.044   0.141
 2010SOL    HW1 7927   2.870   8.035   0.054
 2010SOL    HW2 7928   2.920   8.138   0.153
 2011SOL     OW 7929   2.545   5.577  11.958
 2011SOL    HW1 7930   2.553   5.544  12.047
 2011SOL    HW2 7931   2.450   5.575  11.940
 2012SOL     OW 7932   5.972  14.571   8.957
 2012SOL    HW1 7933   6.048  14.615   8.919
 2012SOL    HW2 7934   5.956  14.618   9.039
 2013SOL     OW 7935   7.619  13.534  14.869
 2013SOL    HW1 7936   7.627  13.467   0.049
 2013SOL    HW2 7937   7.603  13.615   0.031
 2014SOL     OW 7938  11.031   6.555   4.196
 2014SOL    HW1 7939  11.119   6.519   4.208
 2014SOL    HW2 7940  10.998   6.568   4.285
 2015SOL     OW 7941   2.612  12.086  12.090
 2015SOL    HW1 7942   2.536  12.085  12.033
 2015SOL    HW2 7943   2.647  11.997  12.086
 2016SOL     OW 7944   3.287  12.037   7.774
 2016SOL    HW1 7945   3.296  12.131   7.792
 2016SOL    HW2 7946   3.334  11.994   7.846
 2017SOL     OW 7947   8.696  12.346   3.511
 2017SOL    HW1 7948   8.636  12.275   3.493
 2017SOL    HW2 7949   8.649  12.425   3.485
 2018SOL     OW 7950  13.001   7.055   5.864
 2018SOL    HW1 7951  12.930   7.066   5.801
 2018SOL    HW2 7952  13.010   6.960   5.874
 2019SOL     OW 7953   2.514  12.233   6.969
 2019SOL    HW1 7954   2.437  12.285   6.948
 2019SOL    HW2 7955   2.559  12.282   7.038
 2020SOL     OW 7956   0.647   2.987   0.518
 2020SOL    HW1 7957   0.658   3.061   0.578
 2020SOL    HW2 7958   0.580   3.016   0.456
 2021SOL     OW 7959  10.078   3.487  13.846
 2021SOL    HW1 7960   9.983   3.482  13.851
 2021SOL    HW2 7961  10.097   3.480  13.752
 2022SOL     OW 7962   1.190  10.272   7.176
 2022SOL    HW1 7963   1.207  10.322   7.095
 2022SOL    HW2 7964   1.099  10.246   7.168
 2023SOL     OW 7965   1.763   2.422   9.701
 2023SOL    HW1 7966   1.756   2.340   9.750
 2023SOL    HW2 7967   1.716   2.486   9.754
 2024SOL     OW 7968   0.768   8.987   4.602
 2024SOL    HW1 7969   0.862   8.997   4.617
 2024SOL    HW2 7970   0.758   8.991   4.507
 2025SOL     OW 7971   6.957  13.424  14.052
 2025SOL    HW1 7972   7.023  13.360  14.076
 2025SOL    HW2 7973   7.007  13.498  14.017
 2026SOL     OW 7974   5.913   5.012   6.958
 2026SOL    HW1 7975   5.849   5.080   6.979
 2026SOL    HW2 7976   5.874   4.931   6.994
 2027SOL     OW 7977   2.635   2.112  13.464
 2027SOL    HW1 7978   2.709   2.170  13.483
 2027SOL    HW2 7979   2.559   2.159  13.497
 2028SOL     OW 7980   7.987   9.951   0.168
 2028SOL    HW1 7981   7.991  10.047   0.174
 2028SOL    HW2 7982   8.076   9.923   0.185
 2029SOL     OW 7983   5.450   8.928  10.118
 2029SOL    HW1 7984   5.487   9.015  10.101
 2029SOL    HW2 7985   5.462   8.915  10.212
 2030SOL     OW 7986   2.308   9.766  10.835
 2030SOL    HW1 7987   2.220   9.802  10.838
 2030SOL    HW2 7988   2.322   9.747  10.742
 2031SOL     OW 7989   2.358   7.168   3.722
 2031SOL    HW1 7990   2.396   7.254   3.702
 2031SOL    HW2 7991   2.314   7.180   3.806
 2032SOL     OW 7992   1.335   0.413   1.687
 2032SOL    HW1 7993   1.406   0.423   1.750
 2032SOL    HW2 7994   1.376   0.372   1.611
 2033SOL     OW 7995  12.593   9.931  14.063
 2033SOL    HW1 7996  12.609  10.003  14.124
 2033SOL    HW2 7997  12.593   9.852  14.118
 2034SOL     OW 7998   5.247   4.429   6.971
 2034SOL    HW1 7999   5.274   4.486   7.043
 2034SOL    HW2 8000   5.327   4.380   6.949
 2035SOL     OW 8001   2.388   6.467   3.963
 2035SOL    HW1 8002   2.379   6.462   4.058
 2035SOL    HW2 8003   2.358   6.555   3.941
 2036SOL     OW 8004   3.309   4.562   9.945
 2036SOL    HW1 8005   3.309   4.472   9.976
 2036SOL    HW2 8006   3.259   4.611  10.010
 2037SOL     OW 8007   5.707   5.931   7.027
 2037SOL    HW1 8008   5.731   6.021   7.048
 2037SOL    HW2 8009   5.628   5.915   7.078
 2038SOL     OW 8010   2.377  12.079   9.040
 2038SOL    HW1 8011   2.465  12.075   9.002
 2038SOL    HW2 8012   2.378  12.013   9.109
 2039SOL     OW 8013   3.605  13.422   1.713
 2039SOL    HW1 8014   3.559  13.342   1.687
 2039SOL    HW2 8015   3.665  13.393   1.782
 2040SOL     OW 8016   2.647   9.103   0.977
 2040SOL    HW1 8017   2.616   9.086   0.888
 2040SOL    HW2 8018   2.571   9.136   1.024
 2041SOL     OW 8019   0.003  14.155  12.795
 2041SOL    HW1 8020   0.050  14.186  12.873
 2041SOL    HW2 8021  14.853  14.234  12.756
 2042SOL     OW 8022   9.822  10.654   5.023
 2042SOL    HW1 8023   9.798  10.747   5.021
 2042SOL    HW2 8024   9.885  10.645   4.951
 2043SOL     OW 8025   2.541  10.371   5.000
 2043SOL    HW1 8026   2.539  10.430   4.925
 2043SOL    HW2 8027   2.590  10.295   4.969
 2044SOL     OW 8028   8.502   0.901   5.364
 2044SOL    HW1 8029   8.469   0.868   5.448
 2044SOL    HW2 8030   8.464   0.843   5.298
 2045SOL     OW 8031   1.592   9.166   1.451
 2045SOL    HW1 8032   1.638   9.132   1.374
 2045SOL    HW2 8033   1.530   9.230   1.416
 2046SOL     OW 8034   0.084   3.106   2.944
 2046SOL    HW1 8035   0.012   3.159   2.909
 2046SOL    HW2 8036   0.152   3.170   2.965
 2047SOL     OW 8037  10.542  13.765   1.667
 2047SOL    HW1 8038  10.513  13.690   1.719
 2047SOL    HW2 8039  10.632  13.744   1.643
 2048SOL     OW 8040   8.298   2.730   9.252
 2048SOL    HW1 8041   8.333   2.674   9.322
 2048SOL    HW2 8042   8.246   2.795   9.298
 2049SOL     OW 8043  11.961   2.846   1.484
 2049SOL    HW1 8044  11.962   2.929   1.436
 2049SOL    HW2 8045  11.918   2.785   1.425
 2050SOL     OW 8046   7.096   9.972   2.214
 2050SOL    HW1 8047   7.059  10.011   2.293
 2050SOL    HW2 8048   7.024   9.973   2.151
 2051SOL     OW 8049   6.776  13.194  11.321
 2051SOL    HW1 8050   6.688  13.221  11.294
 2051SOL    HW2 8051   6.798  13.123  11.260
 2052SOL     OW 8052  11.126   7.043   2.565
 2052SOL    HW1 8053  11.118   6.985   2.640
 2052SOL    HW2 8054  11.037   7.077   2.551
 2053SOL     OW 8055   9.114  11.457  10.142
 2053SOL    HW1 8056   9.090  11.369  10.172
 2053SOL    HW2 8057   9.111  11.511  10.221
 2054SOL     OW 8058   0.117  11.614   0.734
 2054SOL    HW1 8059   0.150  11.542   0.681
 2054SOL    HW2 8060   0.044  11.576   0.783
 2055SOL     OW 8061   4.053   6.913   6.950
 2055SOL    HW1 8062   4.096   6.949   6.873
 2055SOL    HW2 8063   4.120   6.860   6.993
 2056SOL     OW 8064   7.068   4.967  11.405
 2056SOL    HW1 8065   6.985   4.928  11.434
 2056SOL    HW2 8066   7.134   4.903  11.430
 2057SOL     OW 8067   1.857   8.079   5.985
 2057SOL    HW1 8068   1.865   8.145   6.053
 2057SOL    HW2 8069   1.764   8.056   5.984
 2058SOL     OW 8070  14.230   5.550   9.968
 2058SOL    HW1 8071  14.208   5.631   9.923
 2058SOL    HW2 8072  14.198   5.562  10.057
 2059SOL     OW 8073   8.139   9.736   7.008
 2059SOL    HW1 8074   8.083   9.696   7.073
 2059SOL    HW2 8075   8.149   9.827   7.037
 2060SOL     OW 8076  13.578   0.571  14.736
 2060SOL    HW1 8077  13.634   0.638  14.697
 2060SOL    HW2 8078  13.490   0.592  14.704
 2061SOL     OW 8079  10.729   0.818  11.741
 2061SOL    HW1 8080  10.697   0.764  11.814
 2061SOL    HW2 8081  10.759   0.754  11.676
 2062SOL     OW 8082   3.942  13.391   2.531
 2062SOL    HW1 8083   4.033  13.372   2.512
 2062SOL    HW2 8084   3.908  13.310   2.569
 2063SOL     OW 8085   2.731   4.278  11.523
 2063SOL    HW1 8086   2.637   4.274  11.505
 2063SOL    HW2 8087   2.737   4.307  11.614
 2064SOL     OW 8088   4.537   0.505   1.662
 2064SOL    HW1 8089   4.490   0.422   1.670
 2064SOL    HW2 8090   4.581   0.501   1.578
 2065SOL     OW 8091   2.760  12.480   0.645
 2065SOL    HW1 8092   2.747  12.491   0.739
 2065SOL    HW2 8093   2.805  12.560   0.617
 2066SOL     OW 8094   1.822   2.075  14.508
 2066SOL    HW1 8095   1.779   2.045  14.428
 2066SOL    HW2 8096   1.821   1.999  14.566
 2067SOL     OW 8097  10.994   5.450  10.470
 2067SOL    HW1 8098  11.046   5.400  10.533
 2067SOL    HW2 8099  10.932   5.499  10.523
 2068SOL     OW 8100  14.537   6.660  13.866
 2068SOL    HW1 8101  14.493   6.734  13.825
 2068SOL    HW2 8102  14.467   6.601  13.893
 2069SOL     OW 8103   7.491   7.642  11.127
 2069SOL    HW1 8104   7.500   7.547  11.117
 2069SOL    HW2 8105   7.435   7.669  11.054
 2070SOL     OW 8106   8.977  11.064   8.847
 2070SOL    HW1 8107   9.042  11.116   8.893
 2070SOL    HW2 8108   8.976  11.098   8.758
 2071SOL     OW 8109   9.278   4.355   8.630
 2071SOL    HW1 8110   9.230   4.320   8.555
 2071SOL    HW2 8111   9.352   4.402   8.591
 2072SOL     OW 8112   6.419   6.711   9.679
 2072SOL    HW1 8113   6.352   6.772   9.650
 2072SOL    HW2 8114   6.500   6.762   9.681
 2073SOL     OW 8115   1.479   7.443   1.557
 2073SOL    HW1 8116   1.540   7.476   1.490
 2073SOL    HW2 8117   1.494   7.348   1.558
 2074SOL     OW 8118   3.309   1.839   7.797
 2074SOL    HW1 8119   3.271   1.927   7.800
 2074SOL    HW2 8120   3.403   1.852   7.805
 2075SOL     OW 8121   6.137   6.153  13.892
 2075SOL    HW1 8122   6.189   6.194  13.962
 2075SOL    HW2 8123   6.133   6.060  13.917
 2076SOL     OW 8124   0.138   5.000   5.412
 2076SOL    HW1 8125   0.125   4.909   5.438
 2076SOL    HW2 8126   0.050   5.036   5.403
 2077SOL     OW 8127  13.262  10.215  14.707
 2077SOL    HW1 8128  13.321  10.195  14.779
 2077SOL    HW2 8129  13.186  10.159  14.723
 2078SOL     OW 8130   5.554   2.289   0.296
 2078SOL    HW1 8131   5.632   2.283   0.350
 2078SOL    HW2 8132   5.539   2.384   0.288
 2079SOL     OW 8133   1.399  10.582   6.243
 2079SOL    HW1 8134   1.313  10.618   6.222
 2079SOL    HW2 8135   1.460  10.648   6.212
 2080SOL     OW 8136   5.776   7.617   4.817
 2080SOL    HW1 8137   5.859   7.646   4.853
 2080SOL    HW2 8138   5.710   7.654   4.876
 2081SOL     OW 8139  11.804   3.521   4.320
 2081SOL    HW1 8140  11.810   3.469   4.400
 2081SOL    HW2 8141  11.717   3.501   4.285
 2082SOL     OW 8142   5.582   8.575   9.469
 2082SOL    HW1 8143   5.565   8.512   9.539
 2082SOL    HW2 8144   5.553   8.532   9.389
 2083SOL     OW 8145  11.783   1.599  11.367
 2083SOL    HW1 8146  11.738   1.608  11.283
 2083SOL    HW2 8147  11.734   1.656  11.426
 2084SOL     OW 8148  11.159  13.008   5.141
 2084SOL    HW1 8149  11.254  13.001   5.138
 2084SOL    HW2 8150  11.139  13.084   5.086
 2085SOL     OW 8151   1.822   4.434   1.053
 2085SOL    HW1 8152   1.893   4.370   1.058
 2085SOL    HW2 8153   1.795   4.432   0.961
 2086SOL     OW 8154   8.770  11.116  14.329
 2086SOL    HW1 8155   8.675  11.112  14.321
 2086SOL    HW2 8156   8.787  11.200  14.373
 2087SOL     OW 8157   3.375   6.427   6.759
 2087SOL    HW1 8158   3.362   6.498   6.821
 2087SOL    HW2 8159   3.297   6.371   6.769
 2088SOL     OW 8160   0.716   3.197   0.985
 2088SOL    HW1 8161   0.736   3.117   1.033
 2088SOL    HW2 8162   0.797   3.249   0.990
 2089SOL     OW 8163  14.400  11.983  14.676
 2089SOL    HW1 8164  14.345  11.905  14.666
 2089SOL    HW2 8165  14.360  12.049  14.620
 2090SOL     OW 8166  13.844   3.107   3.411
 2090SOL    HW1 8167  13.858   3.111   3.506
 2090SOL    HW2 8168  13.757   3.145   3.399
 2091SOL     OW 8169   7.719   4.139   7.737
 2091SOL    HW1 8170   7.694   4.151   7.646
 2091SOL    HW2 8171   7.678   4.055   7.762
 2092SOL     OW 8172  13.406  13.645  10.359
 2092SOL    HW1 8173  13.321  13.600  10.351
 2092SOL    HW2 8174  13.461  13.604  10.293
 2093SOL     OW 8175   4.122   3.371   9.018
 2093SOL    HW1 8176   4.158   3.333   8.937
 2093SOL    HW2 8177   4.057   3.434   8.987
 2094SOL     OW 8178   1.479  10.535   3.527
 2094SOL    HW1 8179   1.400  10.510   3.480
 2094SOL    HW2 8180   1.537  10.571   3.460
 2095SOL     OW 8181   5.026   5.662  11.910
 2095SOL    HW1 8182   5.051   5.629  11.996
 2095SOL    HW2 8183   4.949   5.716  11.926
 2096SOL     OW 8184  10.732   0.337   0.683
 2096SOL    HW1 8185  10.778   0.421   0.682
 2096SOL    HW2 8186  10.760   0.296   0.765
 2097SOL     OW 8187  12.867   5.286   8.496
 2097SOL    HW1 8188  12.958   5.303   8.470
 2097SOL    HW2 8189  12.814   5.331   8.430
 2098SOL     OW 8190   4.085   2.172   5.236
 2098SOL    HW1 8191   4.107   2.179   5.143
 2098SOL    HW2 8192   3.990   2.185   5.239
 2099SOL     OW 8193  13.079   5.247   0.214
 2099SOL    HW1 8194  13.031   5.184   0.160
 2099SOL    HW2 8195  13.018   5.319   0.226
 2100SOL     OW 8196   5.361   6.834  10.295
 2100SOL    HW1 8197   5.304   6.762  10.267
 2100SOL    HW2 8198   5.407   6.861  10.215
 2101SOL     OW 8199  12.590   1.940  10.747
 2101SOL    HW1 8200  12.533   1.974  10.816
 2101SOL    HW2 8201  12.591   1.845  10.761
 2102SOL     OW 8202  10.763   4.691  11.483
 2102SOL    HW1 8203  10.681   4.668  11.439
 2102SOL    HW2 8204  10.787   4.612  11.531
 2103SOL     OW 8205   5.947   8.924  13.077
 2103SOL    HW1 8206   5.950   9.007  13.123
 2103SOL    HW2 8207   5.861   8.887  13.098
 2104SOL     OW 8208   2.770   0.550   1.864
 2104SOL    HW1 8209   2.741   0.524   1.951
 2104SOL    HW2 8210   2.805   0.470   1.826
 2105SOL     OW 8211  13.298   7.082  12.459
 2105SOL    HW1 8212  13.371   7.142  12.478
 2105SOL    HW2 8213  13.260   7.062  12.544
 2106SOL     OW 8214   6.112  14.037  14.813
 2106SOL    HW1 8215   6.205  14.016  14.806
 2106SOL    HW2 8216   6.098  14.104  14.747
 2107SOL     OW 8217   4.069   5.558  10.085
 2107SOL    HW1 8218   4.072   5.472  10.042
 2107SOL    HW2 8219   3.991   5.600  10.049
 2108SOL     OW 8220   6.303   1.147   8.277
 2108SOL    HW1 8221   6.263   1.192   8.202
 2108SOL    HW2 8222   6.229   1.102   8.319
 2109SOL     OW 8223   8.997   2.006   3.805
 2109SOL    HW1 8224   9.007   2.067   3.732
 2109SOL    HW2 8225   9.070   1.944   3.794
 2110SOL     OW 8226   7.988  14.724   6.051
 2110SOL    HW1 8227   7.928  14.724   5.977
 2110SOL    HW2 8228   8.073  14.699   6.013
 2111SOL     OW 8229   1.134  14.036   6.165
 2111SOL    HW1 8230   1.226  14.016   6.185
 2111SOL    HW2 8231   1.127  14.023   6.070
 2112SOL     OW 8232   6.402   7.296  13.627
 2112SOL    HW1 8233   6.470   7.361  13.644
 2112SOL    HW2 8234   6.320   7.344  13.633
 2113SOL     OW 8235   4.777   4.243  11.025
 2113SOL    HW1 8236   4.835   4.310  10.988
 2113SOL    HW2 8237   4.709   4.292  11.071
 2114SOL     OW 8238   8.652   2.983  14.128
 2114SOL    HW1 8239   8.602   2.960  14.050
 2114SOL    HW2 8240   8.587   2.987  14.198
 2115SOL     OW 8241   7.616  13.958  10.903
 2115SOL    HW1 8242   7.536  14.011  10.909
 2115SOL    HW2 8243   7.655  13.983  10.819
 2116SOL     OW 8244  14.797   3.783  13.570
 2116SOL    HW1 8245  14.772   3.700  13.609
 2116SOL    HW2 8246  14.749   3.785  13.487
 2117SOL     OW 8247  11.016  11.737   2.084
 2117SOL    HW1 8248  11.076  11.669   2.116
 2117SOL    HW2 8249  10.940  11.731   2.141
 2118SOL     OW 8250   2.351   6.993  10.221
 2118SOL    HW1 8251   2.382   6.916  10.173
 2118SOL    HW2 8252   2.368   7.067  10.162
 2119SOL     OW 8253  11.356  11.808  10.153
 2119SOL    HW1 8254  11.424  11.827  10.218
 2119SOL    HW2 8255  11.336  11.894  10.115
 2120SOL     OW 8256   9.198  10.019  14.828
 2120SOL    HW1 8257   9.208  10.109  14.796
 2120SOL    HW2 8258   9.179   9.968  14.750
 2121SOL     OW 8259   0.311  11.147   6.249
 2121SOL    HW1 8260   0.346  11.183   6.331
 2121SOL    HW2 8261   0.250  11.213   6.217
 2122SOL     OW 8262   0.432   9.083  14.297
 2122SOL    HW1 8263   0.386   9.160  14.263
 2122SOL    HW2 8264   0.482   9.050  14.222
 2123SOL     OW 8265  11.084   5.838  13.425
 2123SOL    HW1 8266  11.076   5.760  13.480
 2123SOL    HW2 8267  11.143   5.812  13.354
 2124SOL     OW 8268   1.181  11.024   3.671
 2124SOL    HW1 8269   1.200  10.931   3.684
 2124SOL    HW2 8270   1.086  11.030   3.676
 2125SOL     OW 8271   1.739   9.894   0.992
 2125SOL    HW1 8272   1.699   9.979   1.010
 2125SOL    HW2 8273   1.712   9.839   1.065
 2126SOL     OW 8274  12.734  14.553  13.334
 2126SOL    HW1 8275  12.750  14.647  13.335
 2126SOL    HW2 8276  12.775  14.521  13.414
 2127SOL     OW 8277   7.018   6.858  11.183
 2127SOL    HW1 8278   7.066   6.785  11.143
 2127SOL    HW2 8279   6.964   6.816  11.251
 2128SOL     OW 8280  12.412   7.660   3.412
 2128SOL    HW1 8281  12.325   7.634   3.440
 2128SOL    HW2 8282  12.464   7.580   3.416
 2129SOL     OW 8283  12.125   3.626   2.735
 2129SOL    HW1 8284  12.079   3.709   2.731
 2129SOL    HW2 8285  12.133   3.597   2.644
 2130SOL     OW 8286   0.250  10.056   3.468
 2130SOL    HW1 8287   0.205   9.976   3.440
 2130SOL    HW2 8288   0.181  10.111   3.506
 2131SOL     OW 8289   4.346   6.447  13.213
 2131SOL    HW1 8290   4.346   6.359  13.177
 2131SOL    HW2 8291   4.294   6.441  13.293
 2132SOL     OW 8292   2.279   2.801   6.215
 2132SOL    HW1 8293   2.186   2.817   6.198
 2132SOL    HW2 8294   2.307   2.874   6.270
 2133SOL     OW 8295   7.191   7.395   8.653
 2133SOL    HW1 8296   7.213   7.318   8.600
 2133SOL    HW2 8297   7.250   7.464   8.621
 2134SOL     OW 8298   8.218   7.079   9.595
 2134SOL    HW1 8299   8.251   6.992   9.620
 2134SOL    HW2 8300   8.205   7.073   9.500
 2135SOL     OW 8301   5.700  10.719   3.759
 2135SOL    HW1 8302   5.621  10.770   3.776
 2135SOL    HW2 8303   5.747  10.720   3.843
 2136SOL     OW 8304   8.942   6.936   5.094
 2136SOL    HW1 8305   8.853   6.903   5.079
 2136SOL    HW2 8306   8.999   6.861   5.077
 2137SOL     OW 8307   9.525   0.085   1.145
 2137SOL    HW1 8308   9.485   0.095   1.059
 2137SOL    HW2 8309   9.600   0.028   1.130
 2138SOL     OW 8310   4.190  12.164   1.564
 2138SOL    HW1 8311   4.273  12.189   1.523
 2138SOL    HW2 8312   4.206  12.077   1.601
 2139SOL     OW 8313   1.310   0.935  12.678
 2139SOL    HW1 8314   1.290   0.965  12.590
 2139SOL    HW2 8315   1.375   0.998  12.711
 2140SOL     OW 8316   6.621  13.130   8.812
 2140SOL    HW1 8317   6.582  13.042   8.816
 2140SOL    HW2 8318   6.644  13.142   8.720
 2141SOL     OW 8319   7.307   7.569   3.105
 2141SOL    HW1 8320   7.221   7.609   3.119
 2141SOL    HW2 8321   7.369   7.641   3.116
 2142SOL     OW 8322   1.574   7.217   7.942
 2142SOL    HW1 8323   1.639   7.173   7.888
 2142SOL    HW2 8324   1.495   7.164   7.933
 2143SOL     OW 8325  12.291   2.151   0.338
 2143SOL    HW1 8326  12.378   2.190   0.345
 2143SOL    HW2 8327  12.264   2.133   0.428
 2144SOL     OW 8328  14.131  10.586   2.568
 2144SOL    HW1 8329  14.225  10.594   2.588
 2144SOL    HW2 8330  14.128  10.533   2.489
 2145SOL     OW 8331  12.676  14.674  11.927
 2145SOL    HW1 8332  12.582  14.686  11.938
 2145SOL    HW2 8333  12.686  14.652  11.834
 2146SOL     OW 8334  13.112   1.133   1.856
 2146SOL    HW1 8335  13.057   1.086   1.794
 2146SOL    HW2 8336  13.167   1.066   1.896
 2147SOL     OW 8337   3.308  13.929   6.074
 2147SOL    HW1 8338   3.238  13.920   6.139
 2147SOL    HW2 8339   3.308  13.846   6.026
 2148SOL     OW 8340   7.178  12.842  10.223
 2148SOL    HW1 8341   7.236  12.787  10.170
 2148SOL    HW2 8342   7.095  12.841  10.176
 2149SOL     OW 8343  14.415   8.529   7.473
 2149SOL    HW1 8344  14.476   8.551   7.543
 2149SOL    HW2 8345  14.435   8.591   7.403
 2150SOL     OW 8346  10.146   6.062  13.458
 2150SOL    HW1 8347  10.067   6.106  13.425
 2150SOL    HW2 8348  10.217   6.123  13.437
 2151SOL     OW 8349  12.897  13.353  12.619
 2151SOL    HW1 8350  12.806  13.384  12.615
 2151SOL    HW2 8351  12.913  13.317  12.532
 2152SOL     OW 8352   9.217  12.314   4.554
 2152SOL    HW1 8353   9.162  12.237   4.538
 2152SOL    HW2 8354   9.155  12.384   4.575
 2153SOL     OW 8355  10.445   5.083  13.288
 2153SOL    HW1 8356  10.506   5.101  13.217
 2153SOL    HW2 8357  10.414   4.994  13.272
 2154SOL     OW 8358   3.834   4.822  10.944
 2154SOL    HW1 8359   3.743   4.820  10.975
 2154SOL    HW2 8360   3.870   4.738  10.972
 2155SOL     OW 8361   1.988  10.781   9.108
 2155SOL    HW1 8362   1.903  10.799   9.069
 2155SOL    HW2 8363   1.977  10.697   9.153
 2156SOL     OW 8364   8.949   9.138  11.544
 2156SOL    HW1 8365   9.038   9.155  11.576
 2156SOL    HW2 8366   8.895   9.202  11.590
 2157SOL     OW 8367   5.374   2.125  13.058
 2157SOL    HW1 8368   5.325   2.172  12.991
 2157SOL    HW2 8369   5.431   2.066  13.010
 2158SOL     OW 8370   2.260  13.663   0.485
 2158SOL    HW1 8371   2.235  13.745   0.527
 2158SOL    HW2 8372   2.238  13.596   0.550
 2159SOL     OW 8373  14.257  13.590   3.228
 2159SOL    HW1 8374  14.296  13.536   3.297
 2159SOL    HW2 8375  14.240  13.674   3.269
 2160SOL     OW 8376   6.393   2.222  14.234
 2160SOL    HW1 8377   6.362   2.290  14.174
 2160SOL    HW2 8378   6.487   2.236  14.240
 2161SOL     OW 8379   5.107  10.850  10.609
 2161SOL    HW1 8380   5.120  10.833  10.703
 2161SOL    HW2 8381   5.151  10.933  10.593
 2162SOL     OW 8382   5.930   1.709   5.412
 2162SOL    HW1 8383   5.895   1.798   5.422
 2162SOL    HW2 8384   5.864   1.663   5.360
 2163SOL     OW 8385  14.231   2.490   3.942
 2163SOL    HW1 8386  14.191   2.457   3.862
 2163SOL    HW2 8387  14.157   2.512   3.999
 2164SOL     OW 8388  12.035   8.285   2.143
 2164SOL    HW1 8389  12.065   8.375   2.132
 2164SOL    HW2 8390  11.943   8.292   2.167
 2165SOL     OW 8391   9.271   3.979   6.206
 2165SOL    HW1 8392   9.296   4.030   6.283
 2165SOL    HW2 8393   9.180   3.952   6.224
 2166SOL     OW 8394  13.449   0.268   5.393
 2166SOL    HW1 8395  13.535   0.280   5.350
 2166SOL    HW2 8396  13.463   0.297   5.483
 2167SOL     OW 8397  12.563   4.523   3.467
 2167SOL    HW1 8398  12.507   4.468   3.522
 2167SOL    HW2 8399  12.640   4.540   3.522
 2168SOL     OW 8400  14.087  13.682   8.606
 2168SOL    HW1 8401  14.077  13.589   8.585
 2168SOL    HW2 8402  13.997  13.715   8.610
 2169SOL     OW 8403   6.753   8.745   0.124
 2169SOL    HW1 8404   6.830   8.689   0.130
 2169SOL    HW2 8405   6.703   8.726   0.203
 2170SOL     OW 8406  10.955   3.276   6.255
 2170SOL    HW1 8407  10.964   3.294   6.348
 2170SOL    HW2 8408  10.984   3.357   6.212
 2171SOL     OW 8409   4.823  11.098   3.889
 2171SOL    HW1 8410   4.738  11.072   3.854
 2171SOL    HW2 8411   4.812  11.095   3.984
 2172SOL     OW 8412   7.060   4.316   0.499
 2172SOL    HW1 8413   6.983   4.368   0.522
 2172SOL    HW2 8414   7.033   4.225   0.509
 2173SOL     OW 8415   3.160   8.534  13.653
 2173SOL    HW1 8416   3.162   8.542  13.558
 2173SOL    HW2 8417   3.243   8.571  13.682
 2174SOL     OW 8418   5.860   4.000  10.444
 2174SOL    HW1 8419   5.908   4.037  10.518
 2174SOL    HW2 8420   5.883   4.057  10.370
 2175SOL     OW 8421  11.335  12.809  14.690
 2175SOL    HW1 8422  11.272  12.855  14.747
 2175SOL    HW2 8423  11.417  12.811  14.739
 2176SOL     OW 8424   0.082   2.274   7.383
 2176SOL    HW1 8425   0.049   2.188   7.409
 2176SOL    HW2 8426   0.100   2.265   7.289
 2177SOL     OW 8427  14.248   5.060  14.203
 2177SOL    HW1 8428  14.313   5.106  14.151
 2177SOL    HW2 8429  14.165   5.075  14.157
 2178SOL     OW 8430   8.954  14.361  13.495
 2178SOL    HW1 8431   9.024  14.405  13.445
 2178SOL    HW2 8432   8.996  14.334  13.577
 2179SOL     OW 8433  10.217   1.587   9.040
 2179SOL    HW1 8434  10.152   1.632   8.985
 2179SOL    HW2 8435  10.187   1.602   9.130
 2180SOL     OW 8436   5.852  13.540  13.226
 2180SOL    HW1 8437   5.759  13.557  13.211
 2180SOL    HW2 8438   5.859  13.445  13.233
 2181SOL     OW 8439   0.136   0.918   4.121
 2181SOL    HW1 8440   0.056   0.964   4.097
 2181SOL    HW2 8441   0.174   0.969   4.193
 2182SOL     OW 8442   3.921   2.134  12.567
 2182SOL    HW1 8443   3.871   2.202  12.613
 2182SOL    HW2 8444   3.904   2.151  12.474
 2183SOL     OW 8445   3.632   4.552  10.101
 2183SOL    HW1 8446   3.609   4.460  10.108
 2183SOL    HW2 8447   3.631   4.570  10.007
 2184SOL     OW 8448   1.514   6.865  13.625
 2184SOL    HW1 8449   1.472   6.936  13.674
 2184SOL    HW2 8450   1.608   6.881  13.636
 2185SOL     OW 8451   0.624   4.948   6.904
 2185SOL    HW1 8452   0.608   4.854   6.895
 2185SOL    HW2 8453   0.686   4.955   6.977
 2186SOL     OW 8454   0.024  12.547  11.405
 2186SOL    HW1 8455   0.069  12.616  11.355
 2186SOL    HW2 8456  14.838  12.592  11.447
 2187SOL     OW 8457   0.526  13.220   2.023
 2187SOL    HW1 8458   0.502  13.256   2.109
 2187SOL    HW2 8459   0.588  13.150   2.043
 2188SOL     OW 8460   2.975   1.121   3.721
 2188SOL    HW1 8461   2.907   1.054   3.731
 2188SOL    HW2 8462   2.961   1.156   3.634
 2189SOL     OW 8463   8.621   8.429  10.853
 2189SOL    HW1 8464   8.618   8.394  10.764
 2189SOL    HW2 8465   8.541   8.395  10.894
 2190SOL     OW 8466   6.269  14.443   7.583
 2190SOL    HW1 8467   6.297  14.533   7.573
 2190SOL    HW2 8468   6.174  14.448   7.592
 2191SOL     OW 8469   0.319   7.955   6.276
 2191SOL    HW1 8470   0.265   8.018   6.227
 2191SOL    HW2 8471   0.319   7.989   6.366
 2192SOL     OW 8472   3.418   9.985   0.364
 2192SOL    HW1 8473   3.391   9.910   0.417
 2192SOL    HW2 8474   3.408  10.061   0.421
 2193SOL     OW 8475  14.136  10.897   3.097
 2193SOL    HW1 8476  14.134  10.838   3.022
 2193SOL    HW2 8477  14.044  10.909   3.121
 2194SOL     OW 8478  12.292  10.430  11.823
 2194SOL    HW1 8479  12.273  10.342  11.791
 2194SOL    HW2 8480  12.325  10.417  11.912
 2195SOL     OW 8481   7.140   8.965   9.213
 2195SOL    HW1 8482   7.103   8.962   9.301
 2195SOL    HW2 8483   7.186   8.881   9.204
 2196SOL     OW 8484   8.615   4.916   9.982
 2196SOL    HW1 8485   8.585   4.961  10.061
 2196SOL    HW2 8486   8.681   4.974   9.945
 2197SOL     OW 8487  14.133  10.280  14.398
 2197SOL    HW1 8488  14.083  10.293  14.478
 2197SOL    HW2 8489  14.195  10.353  14.396
 2198SOL     OW 8490  11.893   7.343   8.231
 2198SOL    HW1 8491  11.942   7.372   8.154
 2198SOL    HW2 8492  11.958   7.334   8.300
 2199SOL     OW 8493   6.479   2.877   5.205
 2199SOL    HW1 8494   6.442   2.941   5.145
 2199SOL    HW2 8495   6.458   2.911   5.292
 2200SOL     OW 8496   4.086  13.053   0.858
 2200SOL    HW1 8497   4.016  13.018   0.803
 2200SOL    HW2 8498   4.150  13.089   0.797
 2201SOL     OW 8499  12.046   8.253  13.469
 2201SOL    HW1 8500  12.125   8.237  13.417
 2201SOL    HW2 8501  12.063   8.210  13.553
 2202SOL     OW 8502   8.334  12.379  11.207
 2202SOL    HW1 8503   8.330  12.294  11.163
 2202SOL    HW2 8504   8.277  12.436  11.156
 2203SOL     OW 8505  10.725   3.163  10.368
 2203SOL    HW1 8506  10.814   3.186  10.396
 2203SOL    HW2 8507  10.702   3.088  10.422
 2204SOL     OW 8508   5.378  14.004   9.127
 2204SOL    HW1 8509   5.359  13.910   9.126
 2204SOL    HW2 8510   5.457  14.013   9.075
 2205SOL     OW 8511   1.363   7.398  13.187
 2205SOL    HW1 8512   1.336   7.306  13.189
 2205SOL    HW2 8513   1.297   7.442  13.134
 2206SOL     OW 8514   7.485   0.775  13.514
 2206SOL    HW1 8515   7.549   0.845  13.502
 2206SOL    HW2 8516   7.460   0.781  13.606
 2207SOL     OW 8517   2.062   5.418   0.997
 2207SOL    HW1 8518   1.982   5.427   1.048
 2207SOL    HW2 8519   2.088   5.327   1.008
 2208SOL     OW 8520  11.653  12.363   0.787
 2208SOL    HW1 8521  11.643  12.321   0.702
 2208SOL    HW2 8522  11.640  12.457   0.770
 2209SOL     OW 8523  11.238   6.990   1.905
 2209SOL    HW1 8524  11.202   6.970   1.992
 2209SOL    HW2 8525  11.332   6.978   1.915
 2210SOL     OW 8526   4.987   2.853  10.767
 2210SOL    HW1 8527   4.901   2.811  10.768
 2210SOL    HW2 8528   5.035   2.810  10.838
 2211SOL     OW 8529  10.617   3.977  11.335
 2211SOL    HW1 8530  10.548   3.971  11.401
 2211SOL    HW2 8531  10.653   4.065  11.345
 2212SOL     OW 8532   6.218   4.593   1.274
 2212SOL    HW1 8533   6.253   4.650   1.343
 2212SOL    HW2 8534   6.236   4.640   1.193
 2213SOL     OW 8535   1.904   8.839   7.298
 2213SOL    HW1 8536   1.981   8.880   7.337
 2213SOL    HW2 8537   1.912   8.855   7.204
 2214SOL     OW 8538   6.877   2.138  11.173
 2214SOL    HW1 8539   6.907   2.157  11.261
 2214SOL    HW2 8540   6.925   2.059  11.148
 2215SOL     OW 8541   2.769   6.415   3.987
 2215SOL    HW1 8542   2.715   6.468   4.045
 2215SOL    HW2 8543   2.830   6.369   4.045
 2216SOL     OW 8544   2.087   7.887  11.985
 2216SOL    HW1 8545   2.056   7.957  11.927
 2216SOL    HW2 8546   2.117   7.819  11.925
 2217SOL     OW 8547  11.839   1.816  12.470
 2217SOL    HW1 8548  11.834   1.761  12.392
 2217SOL    HW2 8549  11.883   1.761  12.535
 2218SOL     OW 8550   9.229   6.044   2.324
 2218SOL    HW1 8551   9.248   5.999   2.242
 2218SOL    HW2 8552   9.143   6.085   2.310
 2219SOL     OW 8553  14.564   8.867  10.475
 2219SOL    HW1 8554  14.562   8.962  10.472
 2219SOL    HW2 8555  14.563   8.840  10.383
 2220SOL     OW 8556   0.548   1.087   6.306
 2220SOL    HW1 8557   0.491   1.069   6.231
 2220SOL    HW2 8558   0.637   1.071   6.274
 2221SOL     OW 8559   1.532   5.614   1.006
 2221SOL    HW1 8560   1.467   5.544   1.011
 2221SOL    HW2 8561   1.522   5.649   0.917
 2222SOL     OW 8562   4.009   5.087   8.750
 2222SOL    HW1 8563   4.088   5.085   8.804
 2222SOL    HW2 8564   4.009   5.175   8.711
 2223SOL     OW 8565  11.609  13.277   2.831
 2223SOL    HW1 8566  11.689  13.224   2.836
 2223SOL    HW2 8567  11.641  13.367   2.819
 2224SOL     OW 8568   6.626   0.227   9.714
 2224SOL    HW1 8569   6.618   0.141   9.673
 2224SOL    HW2 8570   6.603   0.289   9.644
 2225SOL     OW 8571   4.888   4.370   5.971
 2225SOL    HW1 8572   4.903   4.464   5.972
 2225SOL    HW2 8573   4.804   4.358   6.017
 2226SOL     OW 8574   2.772   3.853   8.226
 2226SOL    HW1 8575   2.843   3.799   8.192
 2226SOL    HW2 8576   2.797   3.872   8.317
 2227SOL     OW 8577  10.122   2.109  12.219
 2227SOL    HW1 8578  10.186   2.167  12.177
 2227SOL    HW2 8579  10.127   2.028  12.169
 2228SOL     OW 8580   1.430   9.681  10.957
 2228SOL    HW1 8581   1.423   9.600  10.905
 2228SOL    HW2 8582   1.513   9.673  11.004
 2229SOL     OW 8583   3.178   4.065   7.424
 2229SOL    HW1 8584   3.125   4.082   7.347
 2229SOL    HW2 8585   3.246   4.004   7.394
 2230SOL     OW 8586  14.650   7.860  11.530
 2230SOL    HW1 8587  14.604   7.855  11.613
 2230SOL    HW2 8588  14.686   7.772  11.517
 2231SOL     OW 8589   3.491   3.065   5.238
 2231SOL    HW1 8590   3.504   3.045   5.145
 2231SOL    HW2 8591   3.468   2.981   5.278
 2232SOL     OW 8592   9.374   1.388  12.701
 2232SOL    HW1 8593   9.326   1.456  12.749
 2232SOL    HW2 8594   9.393   1.322  12.767
 2233SOL     OW 8595   1.493   9.465   5.199
 2233SOL    HW1 8596   1.486   9.462   5.104
 2233SOL    HW2 8597   1.552   9.539   5.216
 2234SOL     OW 8598   2.077   3.201   2.230
 2234SOL    HW1 8599   2.063   3.107   2.237
 2234SOL    HW2 8600   2.094   3.230   2.319
 2235SOL     OW 8601   0.736   0.607   8.697
 2235SOL    HW1 8602   0.724   0.514   8.676
 2235SOL    HW2 8603   0.650   0.646   8.682
 2236SOL     OW 8604   6.090  12.510  12.500
 2236SOL    HW1 8605   6.072  12.426  12.543
 2236SOL    HW2 8606   6.166  12.545  12.547
 2237SOL     OW 8607   7.570   2.580   7.177
 2237SOL    HW1 8608   7.483   2.605   7.147
 2237SOL    HW2 8609   7.569   2.599   7.271
 2238SOL     OW 8610   9.414  14.556   5.095
 2238SOL    HW1 8611   9.455  14.641   5.082
 2238SOL    HW2 8612   9.333  14.575   5.142
 2239SOL     OW 8613   9.640   1.425   7.033
 2239SOL    HW1 8614   9.677   1.441   7.120
 2239SOL    HW2 8615   9.656   1.507   6.985
 2240SOL     OW 8616   6.461   2.735   4.544
 2240SOL    HW1 8617   6.555   2.749   4.555
 2240SOL    HW2 8618   6.454   2.653   4.495
 2241SOL     OW 8619   8.113  11.538   5.392
 2241SOL    HW1 8620   8.094  11.517   5.300
 2241SOL    HW2 8621   8.198  11.497   5.409
 2242SOL     OW 8622  11.667  11.246   8.778
 2242SOL    HW1 8623  11.691  11.231   8.687
 2242SOL    HW2 8624  11.571  11.245   8.778
 2243SOL     OW 8625   6.742  13.541  14.883
 2243SOL    HW1 8626   6.811  13.572   0.055
 2243SOL    HW2 8627   6.777  13.556  14.796
 2244SOL     OW 8628   4.092  10.235   9.337
 2244SOL    HW1 8629   4.036  10.220   9.261
 2244SOL    HW2 8630   4.151  10.305   9.310
 2245SOL     OW 8631  13.946   7.021   4.526
 2245SOL    HW1 8632  13.963   7.012   4.620
 2245SOL    HW2 8633  13.855   6.996   4.516
 2246SOL     OW 8634   6.349   7.214   9.472
 2246SOL    HW1 8635   6.367   7.249   9.385
 2246SOL    HW2 8636   6.261   7.245   9.493
 2247SOL     OW 8637   3.220   6.586  12.063
 2247SOL    HW1 8638   3.249   6.495  12.053
 2247SOL    HW2 8639   3.126   6.582  12.046
 2248SOL     OW 8640   2.928  10.794   4.008
 2248SOL    HW1 8641   2.950  10.713   4.056
 2248SOL    HW2 8642   2.951  10.864   4.069
 2249SOL     OW 8643  13.497  12.837  13.326
 2249SOL    HW1 8644  13.439  12.912  13.337
 2249SOL    HW2 8645  13.544  12.830  13.409
 2250SOL     OW 8646   4.808   8.579   0.175
 2250SOL    HW1 8647   4.776   8.578   0.266
 2250SOL    HW2 8648   4.774   8.498   0.137
 2251SOL     OW 8649   6.951  11.773   8.881
 2251SOL    HW1 8650   6.949  11.858   8.926
 2251SOL    HW2 8651   7.011  11.787   8.807
 2252SOL     OW 8652   0.295   8.370   0.061
 2252SOL    HW1 8653   0.244   8.446   0.088
 2252SOL    HW2 8654   0.230   8.300   0.050
 2253SOL     OW 8655   4.522   9.416  14.622
 2253SOL    HW1 8656   4.508   9.466  14.702
 2253SOL    HW2 8657   4.458   9.345  14.626
 2254SOL     OW 8658  13.508   3.706  12.321
 2254SOL    HW1 8659  13.499   3.794  12.359
 2254SOL    HW2 8660  13.454   3.708  12.242
 2255SOL     OW 8661   2.510   6.820   6.602
 2255SOL    HW1 8662   2.486   6.892   6.662
 2255SOL    HW2 8663   2.476   6.742   6.645
 2256SOL     OW 8664  11.012   8.680   9.853
 2256SOL    HW1 8665  11.006   8.589   9.880
 2256SOL    HW2 8666  10.929   8.697   9.808
 2257SOL     OW 8667   5.797   2.585  12.718
 2257SOL    HW1 8668   5.884   2.548  12.736
 2257SOL    HW2 8669   5.740   2.547  12.786
 2258SOL     OW 8670  10.147   2.980  10.536
 2258SOL    HW1 8671  10.067   3.007  10.491
 2258SOL    HW2 8672  10.125   2.984  10.629
 2259SOL     OW 8673  10.942  14.774  14.690
 2259SOL    HW1 8674  10.858  14.731  14.679
 2259SOL    HW2 8675  11.007  14.707  14.672
 2260SOL     OW 8676   6.959   1.458   9.598
 2260SOL    HW1 8677   7.029   1.486   9.655
 2260SOL    HW2 8678   6.891   1.425   9.657
 2261SOL     OW 8679   8.832   6.321   6.639
 2261SOL    HW1 8680   8.739   6.301   6.645
 2261SOL    HW2 8681   8.855   6.303   6.548
 2262SOL     OW 8682   3.160   2.070  14.346
 2262SOL    HW1 8683   3.080   2.034  14.307
 2262SOL    HW2 8684   3.192   2.134  14.282
 2263SOL     OW 8685   4.954   8.820   9.141
 2263SOL    HW1 8686   4.964   8.864   9.226
 2263SOL    HW2 8687   4.859   8.812   9.128
 2264SOL     OW 8688   7.708   8.217   9.253
 2264SOL    HW1 8689   7.616   8.202   9.276
 2264SOL    HW2 8690   7.757   8.170   9.320
 2265SOL     OW 8691   1.587   4.201   5.754
 2265SOL    HW1 8692   1.641   4.137   5.708
 2265SOL    HW2 8693   1.532   4.149   5.813
 2266SOL     OW 8694  11.597   3.922  10.302
 2266SOL    HW1 8695  11.683   3.958  10.327
 2266SOL    HW2 8696  11.598   3.832  10.335
 2267SOL     OW 8697   3.997   9.537   9.948
 2267SOL    HW1 8698   3.950   9.465   9.988
 2267SOL    HW2 8699   4.063   9.562  10.014
 2268SOL     OW 8700   0.444  12.631  12.245
 2268SOL    HW1 8701   0.513  12.660  12.186
 2268SOL    HW2 8702   0.440  12.699  12.312
 2269SOL     OW 8703  14.450   2.797   5.906
 2269SOL    HW1 8704  14.472   2.824   5.817
 2269SOL    HW2 8705  14.391   2.723   5.895
 2270SOL     OW 8706   3.843  11.617   6.049
 2270SOL    HW1 8707   3.844  11.566   5.969
 2270SOL    HW2 8708   3.752  11.612   6.080
 2271SOL     OW 8709  11.978   2.584   4.035
 2271SOL    HW1 8710  12.068   2.604   4.059
 2271SOL    HW2 8711  11.927   2.601   4.114
 2272SOL     OW 8712   8.490   3.736  12.634
 2272SOL    HW1 8713   8.537   3.745  12.550
 2272SOL    HW2 8714   8.408   3.784  12.621
 2273SOL     OW 8715   9.001   5.358   9.583
 2273SOL    HW1 8716   9.010   5.453   9.576
 2273SOL    HW2 8717   8.911   5.340   9.556
 2274SOL     OW 8718  11.635   5.822   2.238
 2274SOL    HW1 8719  11.555   5.866   2.266
 2274SOL    HW2 8720  11.662   5.869   2.159
 2275SOL     OW 8721  10.202   9.921   7.216
 2275SOL    HW1 8722  10.151   9.991   7.175
 2275SOL    HW2 8723  10.140   9.878   7.275
 2276SOL     OW 8724   7.775   5.222   3.125
 2276SOL    HW1 8725   7.807   5.288   3.187
 2276SOL    HW2 8726   7.803   5.138   3.162
 2277SOL     OW 8727   2.174  10.366   5.567
 2277SOL    HW1 8728   2.099  10.425   5.571
 2277SOL    HW2 8729   2.148  10.290   5.620
 2278SOL     OW 8730   4.610   3.894   5.266
 2278SOL    HW1 8731   4.518   3.912   5.246
 2278SOL    HW2 8732   4.645   3.852   5.188
 2279SOL     OW 8733  10.861   2.843   9.896
 2279SOL    HW1 8734  10.864   2.845   9.800
 2279SOL    HW2 8735  10.898   2.927   9.922
 2280SOL     OW 8736   5.660   5.202   2.318
 2280SOL    HW1 8737   5.722   5.235   2.384
 2280SOL    HW2 8738   5.585   5.260   2.326
 2281SOL     OW 8739  10.094   8.573   4.041
 2281SOL    HW1 8740  10.125   8.603   4.126
 2281SOL    HW2 8741  10.089   8.652   3.988
 2282SOL     OW 8742   9.925   8.248   8.315
 2282SOL    HW1 8743  10.004   8.221   8.362
 2282SOL    HW2 8744   9.932   8.344   8.311
 2283SOL     OW 8745   8.433   6.879   3.910
 2283SOL    HW1 8746   8.452   6.925   3.992
 2283SOL    HW2 8747   8.477   6.932   3.843
 2284SOL     OW 8748   8.397   4.213   6.117
 2284SOL    HW1 8749   8.436   4.277   6.056
 2284SOL    HW2 8750   8.472   4.169   6.157
 2285SOL     OW 8751   1.948   6.611   2.729
 2285SOL    HW1 8752   1.927   6.631   2.638
 2285SOL    HW2 8753   1.994   6.528   2.726
 2286SOL     OW 8754  14.218  12.738  10.157
 2286SOL    HW1 8755  14.191  12.769  10.244
 2286SOL    HW2 8756  14.245  12.817  10.111
 2287SOL     OW 8757   8.970   8.625   3.673
 2287SOL    HW1 8758   8.926   8.706   3.647
 2287SOL    HW2 8759   8.934   8.558   3.614
 2288SOL     OW 8760  10.186  11.021   4.095
 2288SOL    HW1 8761  10.125  10.970   4.042
 2288SOL    HW2 8762  10.150  11.110   4.096
 2289SOL     OW 8763  10.631   6.310   0.138
 2289SOL    HW1 8764  10.540   6.301   0.167
 2289SOL    HW2 8765  10.670   6.225   0.158
 2290SOL     OW 8766   7.145  10.647   3.319
 2290SOL    HW1 8767   7.130  10.689   3.235
 2290SOL    HW2 8768   7.202  10.572   3.299
 2291SOL     OW 8769   3.798   6.772   4.030
 2291SOL    HW1 8770   3.810   6.687   3.987
 2291SOL    HW2 8771   3.884   6.792   4.067
 2292SOL     OW 8772  13.743   0.261   0.693
 2292SOL    HW1 8773  13.692   0.233   0.618
 2292SOL    HW2 8774  13.682   0.257   0.767
 2293SOL     OW 8775   4.760   6.802   2.800
 2293SOL    HW1 8776   4.809   6.876   2.835
 2293SOL    HW2 8777   4.811   6.725   2.824
 2294SOL     OW 8778   6.380  10.860  12.696
 2294SOL    HW1 8779   6.468  10.838  12.665
 2294SOL    HW2 8780   6.326  10.786  12.671
 2295SOL     OW 8781   2.820  13.522   4.927
 2295SOL    HW1 8782   2.777  13.452   4.976
 2295SOL    HW2 8783   2.913  13.505   4.939
 2296SOL     OW 8784   1.185  13.324  12.837
 2296SOL    HW1 8785   1.104  13.315  12.887
 2296SOL    HW2 8786   1.209  13.416  12.847
 2297SOL     OW 8787   0.787   1.591   3.512
 2297SOL    HW1 8788   0.775   1.498   3.495
 2297SOL    HW2 8789   0.756   1.634   3.432
 2298SOL     OW 8790  13.448   6.612  10.360
 2298SOL    HW1 8791  13.465   6.685  10.419
 2298SOL    HW2 8792  13.374   6.640  10.306
 2299SOL     OW 8793   5.846   9.031  11.732
 2299SOL    HW1 8794   5.909   9.061  11.666
 2299SOL    HW2 8795   5.898   9.019  11.811
 2300SOL     OW 8796  12.384   4.003  10.518
 2300SOL    HW1 8797  12.294   3.971  10.515
 2300SOL    HW2 8798  12.437   3.925  10.501
 2301SOL     OW 8799   2.135  13.449  14.015
 2301SOL    HW1 8800   2.155  13.374  13.960
 2301SOL    HW2 8801   2.216  13.500  14.018
 2302SOL     OW 8802  11.562  12.127  10.690
 2302SOL    HW1 8803  11.547  12.121  10.596
 2302SOL    HW2 8804  11.478  12.105  10.730
 2303SOL     OW 8805  10.138   1.017  13.960
 2303SOL    HW1 8806  10.179   0.931  13.957
 2303SOL    HW2 8807  10.198   1.074  13.913
 2304SOL     OW 8808  14.666  14.087   7.043
 2304SOL    HW1 8809  14.666  14.049   6.955
 2304SOL    HW2 8810  14.576  14.075   7.074
 2305SOL     OW 8811   8.191   9.239   1.634
 2305SOL    HW1 8812   8.270   9.186   1.629
 2305SOL    HW2 8813   8.223   9.329   1.647
 2306SOL     OW 8814   2.839   3.934   7.088
 2306SOL    HW1 8815   2.875   3.845   7.084
 2306SOL    HW2 8816   2.754   3.924   7.131
 2307SOL     OW 8817   4.632  14.543   1.288
 2307SOL    HW1 8818   4.595  14.504   1.209
 2307SOL    HW2 8819   4.702  14.483   1.313
 2308SOL     OW 8820   0.261  12.393  11.486
 2308SOL    HW1 8821   0.171  12.405  11.454
 2308SOL    HW2 8822   0.273  12.463  11.551
 2309SOL     OW 8823   3.740   9.942   3.660
 2309SOL    HW1 8824   3.782  10.024   3.632
 2309SOL    HW2 8825   3.749   9.884   3.585
 2310SOL     OW 8826  14.383   7.566   4.287
 2310SOL    HW1 8827  14.294   7.570   4.322
 2310SOL    HW2 8828  14.378   7.616   4.205
 2311SOL     OW 8829   9.471   4.088   5.661
 2311SOL    HW1 8830   9.548   4.143   5.669
 2311SOL    HW2 8831   9.441   4.074   5.751
 2312SOL     OW 8832  10.797   2.042   1.604
 2312SOL    HW1 8833  10.710   2.015   1.632
 2312SOL    HW2 8834  10.831   2.094   1.676
 2313SOL     OW 8835  11.227   7.451   6.630
 2313SOL    HW1 8836  11.317   7.464   6.661
 2313SOL    HW2 8837  11.237   7.426   6.538
 2314SOL     OW 8838   4.626  13.475  14.462
 2314SOL    HW1 8839   4.607  13.519  14.379
 2314SOL    HW2 8840   4.552  13.498  14.519
 2315SOL     OW 8841   1.053  12.860  12.791
 2315SOL    HW1 8842   0.973  12.829  12.747
 2315SOL    HW2 8843   1.021  12.916  12.862
 2316SOL     OW 8844   3.560   5.316  14.334
 2316SOL    HW1 8845   3.467   5.299  14.327
 2316SOL    HW2 8846   3.576   5.326  14.428
 2317SOL     OW 8847   9.486   6.030   8.558
 2317SOL    HW1 8848   9.398   6.059   8.584
 2317SOL    HW2 8849   9.542   6.050   8.633
 2318SOL     OW 8850  12.047  11.158  12.185
 2318SOL    HW1 8851  12.132  11.151  12.141
 2318SOL    HW2 8852  12.053  11.240  12.235
 2319SOL     OW 8853  12.566  12.602   9.611
 2319SOL    HW1 8854  12.554  12.647   9.527
 2319SOL    HW2 8855  12.642  12.644   9.650
 2320SOL     OW 8856   5.437   0.192   5.997
 2320SOL    HW1 8857   5.409   0.112   5.952
 2320SOL    HW2 8858   5.532   0.184   6.001
 2321SOL     OW 8859   4.669  11.765   2.937
 2321SOL    HW1 8860   4.591  11.800   2.980
 2321SOL    HW2 8861   4.709  11.841   2.894
 2322SOL     OW 8862   8.946   6.205  12.073
 2322SOL    HW1 8863   9.004   6.268  12.031
 2322SOL    HW2 8864   8.890   6.258  12.129
 2323SOL     OW 8865   1.707   5.608   9.012
 2323SOL    HW1 8866   1.664   5.693   9.005
 2323SOL    HW2 8867   1.637   5.545   8.997
 2324SOL     OW 8868   6.656  14.359   3.991
 2324SOL    HW1 8869   6.605  14.322   3.919
 2324SOL    HW2 8870   6.618  14.319   4.070
 2325SOL     OW 8871  14.364  13.691   5.147
 2325SOL    HW1 8872  14.320  13.766   5.107
 2325SOL    HW2 8873  14.456  13.702   5.123
 2326SOL     OW 8874  11.943   1.758  12.777
 2326SOL    HW1 8875  12.008   1.767  12.707
 2326SOL    HW2 8876  11.982   1.697  12.839
 2327SOL     OW 8877   2.265   2.626   9.796
 2327SOL    HW1 8878   2.177   2.606   9.765
 2327SOL    HW2 8879   2.265   2.600   9.888
 2328SOL     OW 8880  12.897   0.223   8.617
 2328SOL    HW1 8881  12.865   0.134   8.600
 2328SOL    HW2 8882  12.992   0.212   8.629
 2329SOL     OW 8883   7.848   3.728  12.328
 2329SOL    HW1 8884   7.890   3.814  12.330
 2329SOL    HW2 8885   7.762   3.743  12.366
 2330SOL     OW 8886   8.323   7.181   0.992
 2330SOL    HW1 8887   8.339   7.128   0.914
 2330SOL    HW2 8888   8.289   7.264   0.958
 2331SOL     OW 8889   3.356  11.006  11.652
 2331SOL    HW1 8890   3.445  11.024  11.623
 2331SOL    HW2 8891   3.360  11.012  11.747
 2332SOL     OW 8892  13.944   9.046   2.985
 2332SOL    HW1 8893  13.984   8.962   3.011
 2332SOL    HW2 8894  13.882   9.023   2.916
 2333SOL     OW 8895   8.077   8.549   2.152
 2333SOL    HW1 8896   7.991   8.526   2.188
 2333SOL    HW2 8897   8.129   8.470   2.164
 2334SOL     OW 8898   2.321  12.450   7.654
 2334SOL    HW1 8899   2.270  12.522   7.692
 2334SOL    HW2 8900   2.358  12.488   7.574
 2335SOL     OW 8901   1.529   5.783   6.065
 2335SOL    HW1 8902   1.454   5.727   6.045
 2335SOL    HW2 8903   1.601   5.722   6.080
 2336SOL     OW 8904   5.376  11.829   3.249
 2336SOL    HW1 8905   5.463  11.821   3.209
 2336SOL    HW2 8906   5.321  11.769   3.198
 2337SOL     OW 8907  12.339   9.538   3.926
 2337SOL    HW1 8908  12.320   9.553   3.833
 2337SOL    HW2 8909  12.419   9.587   3.943
 2338SOL     OW 8910   0.541   8.247  13.919
 2338SOL    HW1 8911   0.453   8.280  13.932
 2338SOL    HW2 8912   0.529   8.167  13.867
 2339SOL     OW 8913  11.216   4.584  13.193
 2339SOL    HW1 8914  11.307   4.581  13.221
 2339SOL    HW2 8915  11.195   4.677  13.188
 2340SOL     OW 8916   9.601   2.778  10.338
 2340SOL    HW1 8917   9.571   2.709  10.398
 2340SOL    HW2 8918   9.522   2.805  10.291
 2341SOL     OW 8919   5.820   6.413   0.699
 2341SOL    HW1 8920   5.780   6.351   0.761
 2341SOL    HW2 8921   5.914   6.399   0.709
 2342SOL     OW 8922   2.235  11.759  13.418
 2342SOL    HW1 8923   2.153  11.712  13.401
 2342SOL    HW2 8924   2.283  11.753  13.335
 2343SOL     OW 8925   0.232   7.430  10.481
 2343SOL    HW1 8926   0.218   7.481  10.401
 2343SOL    HW2 8927   0.244   7.340  10.450
 2344SOL     OW 8928  13.282   7.163   1.668
 2344SOL    HW1 8929  13.349   7.099   1.692
 2344SOL    HW2 8930  13.214   7.153   1.734
 2345SOL     OW 8931   6.057  12.717   4.097
 2345SOL    HW1 8932   6.085  12.657   4.167
 2345SOL    HW2 8933   5.973  12.682   4.068
 2346SOL     OW 8934   7.919  14.287  12.379
 2346SOL    HW1 8935   7.888  14.349  12.446
 2346SOL    HW2 8936   7.952  14.213  12.429
 2347SOL     OW 8937   3.302  12.716   3.325
 2347SOL    HW1 8938   3.383  12.738   3.278
 2347SOL    HW2 8939   3.264  12.801   3.348
 2348SOL     OW 8940   4.555   0.444   4.719
 2348SOL    HW1 8941   4.557   0.350   4.739
 2348SOL    HW2 8942   4.620   0.482   4.777
 2349SOL     OW 8943   2.338   8.135   6.235
 2349SOL    HW1 8944   2.323   8.093   6.151
 2349SOL    HW2 8945   2.308   8.225   6.222
 2350SOL     OW 8946   6.512  11.920   5.398
 2350SOL    HW1 8947   6.512  12.000   5.346
 2350SOL    HW2 8948   6.554  11.855   5.340
 2351SOL     OW 8949   1.776  11.776   0.129
 2351SOL    HW1 8950   1.815  11.803   0.046
 2351SOL    HW2 8951   1.684  11.800   0.121
 2352SOL     OW 8952   8.782  11.494  13.927
 2352SOL    HW1 8953   8.752  11.503  13.837
 2352SOL    HW2 8954   8.789  11.584  13.959
 2353SOL     OW 8955   0.270  11.163  11.184
 2353SOL    HW1 8956   0.256  11.240  11.239
 2353SOL    HW2 8957   0.348  11.121  11.221
 2354SOL     OW 8958   9.102  13.709   5.198
 2354SOL    HW1 8959   9.157  13.760   5.138
 2354SOL    HW2 8960   9.086  13.627   5.153
 2355SOL     OW 8961  11.872  10.309   5.961
 2355SOL    HW1 8962  11.826  10.260   6.029
 2355SOL    HW2 8963  11.917  10.242   5.909
 2356SOL     OW 8964   8.308   4.688   2.310
 2356SOL    HW1 8965   8.333   4.780   2.317
 2356SOL    HW2 8966   8.390   4.642   2.295
 2357SOL     OW 8967  10.103   7.427   4.460
 2357SOL    HW1 8968  10.070   7.372   4.389
 2357SOL    HW2 8969  10.055   7.510   4.449
 2358SOL     OW 8970   4.750   2.311   4.731
 2358SOL    HW1 8971   4.839   2.326   4.762
 2358SOL    HW2 8972   4.701   2.389   4.758
 2359SOL     OW 8973  10.648   6.017   2.781
 2359SOL    HW1 8974  10.690   5.943   2.826
 2359SOL    HW2 8975  10.636   6.083   2.849
 2360SOL     OW 8976   0.023  13.947   5.766
 2360SOL    HW1 8977   0.028  13.853   5.746
 2360SOL    HW2 8978  14.837  13.955   5.827
 2361SOL     OW 8979   3.169   6.030  10.654
 2361SOL    HW1 8980   3.080   6.030  10.620
 2361SOL    HW2 8981   3.159   6.038  10.748
 2362SOL     OW 8982   5.305   2.128   9.737
 2362SOL    HW1 8983   5.319   2.068   9.663
 2362SOL    HW2 8984   5.211   2.146   9.735
 2363SOL     OW 8985   8.511  14.573  12.968
 2363SOL    HW1 8986   8.449  14.638  13.002
 2363SOL    HW2 8987   8.461  14.523  12.904
 2364SOL     OW 8988   4.594   2.388   6.964
 2364SOL    HW1 8989   4.631   2.337   7.036
 2364SOL    HW2 8990   4.566   2.323   6.900
 2365SOL     OW 8991   1.315   6.899   3.169
 2365SOL    HW1 8992   1.257   6.960   3.125
 2365SOL    HW2 8993   1.288   6.902   3.261
 2366SOL     OW 8994   5.763   2.244  10.466
 2366SOL    HW1 8995   5.708   2.302  10.518
 2366SOL    HW2 8996   5.849   2.250  10.507
 2367SOL     OW 8997   8.382   3.505  14.773
 2367SOL    HW1 8998   8.335   3.425  14.748
 2367SOL    HW2 8999   8.470   3.475  14.796
 2368SOL     OW 9000   1.632   1.858   3.229
 2368SOL    HW1 9001   1.592   1.927   3.282
 2368SOL    HW2 9002   1.677   1.802   3.293
 2369SOL     OW 9003   0.786  12.207   0.682
 2369SOL    HW1 9004   0.857  12.211   0.747
 2369SOL    HW2 9005   0.719  12.153   0.725
 2370SOL     OW 9006   5.719   7.624  14.328
 2370SOL    HW1 9007   5.709   7.569  14.250
 2370SOL    HW2 9008   5.710   7.564  14.401
 2371SOL     OW 9009  11.055  12.473  10.924
 2371SOL    HW1 9010  10.959  12.473  10.930
 2371SOL    HW2 9011  11.078  12.382  10.906
 2372SOL     OW 9012   1.683   5.220   6.383
 2372SOL    HW1 9013   1.736   5.165   6.326
 2372SOL    HW2 9014   1.593   5.204   6.355
 2373SOL     OW 9015   7.541   5.011   8.489
 2373SOL    HW1 9016   7.541   4.950   8.416
 2373SOL    HW2 9017   7.607   5.077   8.466
 2374SOL     OW 9018   1.992   1.573   8.373
 2374SOL    HW1 9019   1.926   1.517   8.332
 2374SOL    HW2 9020   1.954   1.661   8.368
 2375SOL     OW 9021   0.913   5.113   1.422
 2375SOL    HW1 9022   0.949   5.159   1.346
 2375SOL    HW2 9023   0.990   5.085   1.472
 2376SOL     OW 9024   2.396   4.107   2.212
 2376SOL    HW1 9025   2.388   4.141   2.123
 2376SOL    HW2 9026   2.307   4.114   2.247
 2377SOL     OW 9027  10.757  10.037   1.848
 2377SOL    HW1 9028  10.713   9.956   1.821
 2377SOL    HW2 9029  10.688  10.091   1.887
 2378SOL     OW 9030   0.033   8.783   1.442
 2378SOL    HW1 9031   0.054   8.708   1.386
 2378SOL    HW2 9032   0.053   8.753   1.531
 2379SOL     OW 9033  13.345   9.416   4.910
 2379SOL    HW1 9034  13.284   9.391   4.980
 2379SOL    HW2 9035  13.426   9.370   4.931
 2380SOL     OW 9036   0.914   9.096   4.034
 2380SOL    HW1 9037   0.827   9.116   4.001
 2380SOL    HW2 9038   0.926   9.003   4.015
 2381SOL     OW 9039  12.268   6.107   0.161
 2381SOL    HW1 9040  12.205   6.116   0.089
 2381SOL    HW2 9041  12.330   6.178   0.148
 2382SOL     OW 9042  14.103   8.755   9.871
 2382SOL    HW1 9043  14.132   8.763   9.962
 2382SOL    HW2 9044  14.034   8.821   9.862
 2383SOL     OW 9045   1.390   4.792   4.074
 2383SOL    HW1 9046   1.295   4.798   4.073
 2383SOL    HW2 9047   1.417   4.816   3.985
 2384SOL     OW 9048   0.786  10.756   7.366
 2384SOL    HW1 9049   0.880  10.739   7.375
 2384SOL    HW2 9050   0.775  10.785   7.276
 2385SOL     OW 9051   5.943   7.296   5.459
 2385SOL    HW1 9052   5.912   7.345   5.536
 2385SOL    HW2 9053   6.032   7.327   5.445
 2386SOL     OW 9054   5.375  10.591   1.573
 2386SOL    HW1 9055   5.407  10.501   1.579
 2386SOL    HW2 9056   5.410  10.635   1.651
 2387SOL     OW 9057   8.114   2.125   5.319
 2387SOL    HW1 9058   8.159   2.174   5.250
 2387SOL    HW2 9059   8.067   2.056   5.273
 2388SOL     OW 9060  13.765  10.280  11.124
 2388SOL    HW1 9061  13.859  10.260  11.128
 2388SOL    HW2 9062  13.724  10.196  11.104
 2389SOL     OW 9063  13.588   5.560  10.182
 2389SOL    HW1 9064  13.580   5.496  10.252
 2389SOL    HW2 9065  13.634   5.634  10.223
 2390SOL     OW 9066  12.128   3.122  14.131
 2390SOL    HW1 9067  12.160   3.078  14.210
 2390SOL    HW2 9068  12.034   3.132  14.145
 2391SOL     OW 9069   2.625   3.371   5.871
 2391SOL    HW1 9070   2.676   3.322   5.807
 2391SOL    HW2 9071   2.690   3.408   5.930
 2392SOL     OW 9072   6.135   5.058   2.473
 2392SOL    HW1 9073   6.099   5.100   2.395
 2392SOL    HW2 9074   6.230   5.067   2.463
 2393SOL     OW 9075   2.674  10.483   5.540
 2393SOL    HW1 9076   2.727  10.410   5.509
 2393SOL    HW2 9077   2.727  10.560   5.523
 2394SOL     OW 9078   4.701  11.400   8.966
 2394SOL    HW1 9079   4.716  11.492   8.943
 2394SOL    HW2 9080   4.607  11.387   8.950
 2395SOL     OW 9081  14.032  10.105   2.907
 2395SOL    HW1 9082  14.091  10.031   2.923
 2395SOL    HW2 9083  14.091  10.180   2.896
 2396SOL     OW 9084  11.116   8.713   4.046
 2396SOL    HW1 9085  11.136   8.623   4.072
 2396SOL    HW2 9086  11.049   8.742   4.107
 2397SOL     OW 9087   3.717  11.890   7.600
 2397SOL    HW1 9088   3.700  11.801   7.628
 2397SOL    HW2 9089   3.661  11.944   7.656
 2398SOL     OW 9090   2.811   1.083   5.202
 2398SOL    HW1 9091   2.766   1.097   5.285
 2398SOL    HW2 9092   2.829   0.989   5.201
 2399SOL     OW 9093   6.570   9.485   0.109
 2399SOL    HW1 9094   6.526   9.562   0.143
 2399SOL    HW2 9095   6.509   9.413   0.126
 2400SOL     OW 9096   1.702  11.349   2.922
 2400SOL    HW1 9097   1.682  11.426   2.868
 2400SOL    HW2 9098   1.681  11.376   3.011
 2401SOL     OW 9099   9.712  11.763   9.024
 2401SOL    HW1 9100   9.643  11.703   9.052
 2401SOL    HW2 9101   9.770  11.771   9.100
 2402SOL     OW 9102   6.662   7.306  10.070
 2402SOL    HW1 9103   6.574   7.270  10.065
 2402SOL    HW2 9104   6.664   7.373  10.001
 2403SOL     OW 9105  12.556   9.684   4.924
 2403SOL    HW1 9106  12.634   9.649   4.881
 2403SOL    HW2 9107  12.586   9.713   5.010
 2404SOL     OW 9108   3.109  13.011  13.776
 2404SOL    HW1 9109   3.027  13.002  13.824
 2404SOL    HW2 9110   3.083  13.012  13.683
 2405SOL     OW 9111   2.897  14.347   6.967
 2405SOL    HW1 9112   2.986  14.328   6.938
 2405SOL    HW2 9113   2.905  14.428   7.017
 2406SOL     OW 9114   4.254   2.517  12.864
 2406SOL    HW1 9115   4.232   2.534  12.955
 2406SOL    HW2 9116   4.206   2.437  12.842
 2407SOL     OW 9117   6.444   3.096   5.087
 2407SOL    HW1 9118   6.511   3.104   5.019
 2407SOL    HW2 9119   6.387   3.171   5.072
 2408SOL     OW 9120   6.136   5.582   7.345
 2408SOL    HW1 9121   6.090   5.504   7.313
 2408SOL    HW2 9122   6.081   5.615   7.416
 2409SOL     OW 9123   3.801   8.919   0.347
 2409SOL    HW1 9124   3.854   8.936   0.269
 2409SOL    HW2 9125   3.742   8.849   0.320
 2410SOL     OW 9126   9.345  14.087   0.215
 2410SOL    HW1 9127   9.354  14.120   0.126
 2410SOL    HW2 9128   9.284  14.149   0.257
 2411SOL     OW 9129   8.593   5.127   8.858
 2411SOL    HW1 9130   8.556   5.155   8.942
 2411SOL    HW2 9131   8.530   5.158   8.793
 2412SOL     OW 9132  10.117  12.999   7.274
 2412SOL    HW1 9133  10.117  12.916   7.228
 2412SOL    HW2 9134  10.027  13.008   7.308
 2413SOL     OW 9135   8.863   3.801   5.149
 2413SOL    HW1 9136   8.890   3.764   5.233
 2413SOL    HW2 9137   8.781   3.756   5.128
 2414SOL     OW 9138   7.827   4.528  14.321
 2414SOL    HW1 9139   7.810   4.510  14.414
 2414SOL    HW2 9140   7.805   4.447  14.276
 2415SOL     OW 9141  10.353  12.216  14.721
 2415SOL    HW1 9142  10.447  12.211  14.738
 2415SOL    HW2 9143  10.324  12.296  14.765
 2416SOL     OW 9144   7.747   7.820  14.370
 2416SOL    HW1 9145   7.677   7.882  14.349
 2416SOL    HW2 9146   7.774   7.843  14.459
 2417SOL     OW 9147   1.893   1.738   4.746
 2417SOL    HW1 9148   1.967   1.778   4.791
 2417SOL    HW2 9149   1.893   1.647   4.775
 2418SOL     OW 9150  14.204   1.416   3.045
 2418SOL    HW1 9151  14.244   1.499   3.021
 2418SOL    HW2 9152  14.270   1.350   3.022
 2419SOL     OW 9153  14.267  11.362  10.092
 2419SOL    HW1 9154  14.256  11.391  10.182
 2419SOL    HW2 9155  14.247  11.268  10.094
 2420SOL     OW 9156   5.265  14.261   2.005
 2420SOL    HW1 9157   5.217  14.299   1.931
 2420SOL    HW2 9158   5.289  14.173   1.976
 2421SOL     OW 9159  13.548   8.006   3.620
 2421SOL    HW1 9160  13.567   8.082   3.675
 2421SOL    HW2 9161  13.607   8.016   3.545
 2422SOL     OW 9162  11.630   3.627  10.330
 2422SOL    HW1 9163  11.615   3.640  10.237
 2422SOL    HW2 9164  11.546   3.598  10.365
 2423SOL     OW 9165  13.573   4.464  14.493
 2423SOL    HW1 9166  13.503   4.508  14.444
 2423SOL    HW2 9167  13.539   4.377  14.511
 2424SOL     OW 9168  12.184   0.618   1.863
 2424SOL    HW1 9169  12.245   0.677   1.818
 2424SOL    HW2 9170  12.240   0.548   1.898
 2425SOL     OW 9171   1.413   7.354   2.333
 2425SOL    HW1 9172   1.467   7.296   2.387
 2425SOL    HW2 9173   1.352   7.394   2.394
 2426SOL     OW 9174  14.232   1.383  10.804
 2426SOL    HW1 9175  14.234   1.289  10.788
 2426SOL    HW2 9176  14.197   1.421  10.724
 2427SOL     OW 9177  14.085   1.812   7.421
 2427SOL    HW1 9178  14.045   1.755   7.355
 2427SOL    HW2 9179  14.121   1.751   7.485
 2428SOL     OW 9180  11.584   5.239  14.693
 2428SOL    HW1 9181  11.655   5.178  14.713
 2428SOL    HW2 9182  11.623   5.305  14.637
 2429SOL     OW 9183   1.490   3.092   9.647
 2429SOL    HW1 9184   1.501   3.174   9.695
 2429SOL    HW2 9185   1.546   3.100   9.570
 2430SOL     OW 9186   0.009  11.605   9.684
 2430SOL    HW1 9187   0.032  11.561   9.767
 2430SOL    HW2 9188   0.080  11.581   9.624
 2431SOL     OW 9189   4.309   3.050   2.830
 2431SOL    HW1 9190   4.239   3.034   2.893
 2431SOL    HW2 9191   4.334   3.141   2.843
 2432SOL     OW 9192   4.722  13.725  10.155
 2432SOL    HW1 9193   4.796  13.765  10.108
 2432SOL    HW2 9194   4.694  13.654  10.098
 2433SOL     OW 9195   7.671   2.887   3.420
 2433SOL    HW1 9196   7.710   2.924   3.499
 2433SOL    HW2 9197   7.579   2.873   3.443
 2434SOL     OW 9198   1.781  13.794   5.674
 2434SOL    HW1 9199   1.873  13.820   5.684
 2434SOL    HW2 9200   1.740  13.819   5.756
 2435SOL     OW 9201   0.121   9.768   0.990
 2435SOL    HW1 9202   0.117   9.769   0.895
 2435SOL    HW2 9203   0.203   9.813   1.012
 2436SOL     OW 9204  10.820   4.859   7.856
 2436SOL    HW1 9205  10.860   4.941   7.887
 2436SOL    HW2 9206  10.787   4.881   7.769
 2437SOL     OW 9207  11.489   3.794  11.080
 2437SOL    HW1 9208  11.544   3.805  11.158
 2437SOL    HW2 9209  11.464   3.884  11.056
 2438SOL     OW 9210  12.635   3.517  11.964
 2438SOL    HW1 9211  12.625   3.461  12.041
 2438SOL    HW2 9212  12.549   3.557  11.952
 2439SOL     OW 9213   3.618   1.206   0.494
 2439SOL    HW1 9214   3.712   1.203   0.511
 2439SOL    HW2 9215   3.593   1.114   0.487
 2440SOL     OW 9216   6.341   1.266   9.757
 2440SOL    HW1 9217   6.274   1.210   9.718
 2440SOL    HW2 9218   6.358   1.334   9.692
 2441SOL     OW 9219  10.664   1.281   3.808
 2441SOL    HW1 9220  10.617   1.326   3.738
 2441SOL    HW2 9221  10.610   1.203   3.826
 2442SOL     OW 9222   8.524   5.018  11.934
 2442SOL    HW1 9223   8.501   5.008  11.842
 2442SOL    HW2 9224   8.619   5.005  11.937
 2443SOL     OW 9225   9.393   7.404   1.245
 2443SOL    HW1 9226   9.463   7.388   1.183
 2443SOL    HW2 9227   9.392   7.499   1.256
 2444SOL     OW 9228   2.109   2.701   3.498
 2444SOL    HW1 9229   2.072   2.701   3.587
 2444SOL    HW2 9230   2.124   2.608   3.480
 2445SOL     OW 9231  10.046   9.308   3.133
 2445SOL    HW1 9232  10.016   9.356   3.056
 2445SOL    HW2 9233  10.049   9.216   3.105
 2446SOL     OW 9234   4.503  13.080   3.866
 2446SOL    HW1 9235   4.551  13.143   3.920
 2446SOL    HW2 9236   4.539  12.995   3.891
 2447SOL     OW 9237   9.631   8.675   9.433
 2447SOL    HW1 9238   9.626   8.612   9.504
 2447SOL    HW2 9239   9.559   8.652   9.374
 2448SOL     OW 9240  11.186   3.308  12.820
 2448SOL    HW1 9241  11.118   3.242  12.830
 2448SOL    HW2 9242  11.209   3.306  12.727
 2449SOL     OW 9243   6.696   5.746   9.789
 2449SOL    HW1 9244   6.754   5.702   9.727
 2449SOL    HW2 9245   6.725   5.838   9.789
 2450SOL     OW 9246   3.246   3.725  11.270
 2450SOL    HW1 9247   3.167   3.700  11.222
 2450SOL    HW2 9248   3.257   3.818  11.250
 2451SOL     OW 9249   6.103   9.675   3.091
 2451SOL    HW1 9250   6.167   9.638   3.152
 2451SOL    HW2 9251   6.150   9.684   3.008
 2452SOL     OW 9252  11.858  10.700   9.648
 2452SOL    HW1 9253  11.848  10.611   9.683
 2452SOL    HW2 9254  11.785  10.710   9.587
 2453SOL     OW 9255   7.501   9.513   3.923
 2453SOL    HW1 9256   7.462   9.586   3.971
 2453SOL    HW2 9257   7.589   9.505   3.959
 2454SOL     OW 9258   5.659   5.599   0.601
 2454SOL    HW1 9259   5.604   5.554   0.537
 2454SOL    HW2 9260   5.743   5.553   0.597
 2455SOL     OW 9261  12.466   3.881  13.171
 2455SOL    HW1 9262  12.502   3.813  13.229
 2455SOL    HW2 9263  12.385   3.843  13.137
 2456SOL     OW 9264   3.685  13.635  11.460
 2456SOL    HW1 9265   3.618  13.704  11.454
 2456SOL    HW2 9266   3.686  13.595  11.373
 2457SOL     OW 9267   4.215   5.182   5.335
 2457SOL    HW1 9268   4.242   5.101   5.292
 2457SOL    HW2 9269   4.124   5.193   5.309
 2458SOL     OW 9270  11.383  11.756   7.804
 2458SOL    HW1 9271  11.401  11.703   7.882
 2458SOL    HW2 9272  11.335  11.832   7.837
 2459SOL     OW 9273  12.621   7.397   0.760
 2459SOL    HW1 9274  12.684   7.464   0.788
 2459SOL    HW2 9275  12.538   7.426   0.796
 2460SOL     OW 9276   8.278  13.660   3.875
 2460SOL    HW1 9277   8.198  13.610   3.889
 2460SOL    HW2 9278   8.249  13.751   3.873
 2461SOL     OW 9279  13.774   1.799  14.614
 2461SOL    HW1 9280  13.689   1.756  14.618
 2461SOL    HW2 9281  13.838   1.727  14.614
 2462SOL     OW 9282  13.393   9.313   7.632
 2462SOL    HW1 9283  13.414   9.391   7.684
 2462SOL    HW2 9284  13.309   9.333   7.592
 2463SOL     OW 9285   6.224  10.465  12.461
 2463SOL    HW1 9286   6.204  10.558  12.450
 2463SOL    HW2 9287   6.305  10.452  12.412
 2464SOL     OW 9288   4.573   0.540  11.049
 2464SOL    HW1 9289   4.484   0.575  11.054
 2464SOL    HW2 9290   4.568   0.455  11.092
 2465SOL     OW 9291  11.470  11.609   3.871
 2465SOL    HW1 9292  11.451  11.520   3.841
 2465SOL    HW2 9293  11.524  11.647   3.802
 2466SOL     OW 9294  10.321   2.185   3.117
 2466SOL    HW1 9295  10.365   2.267   3.093
 2466SOL    HW2 9296  10.250   2.175   3.053
 2467SOL     OW 9297   3.983  11.762  13.396
 2467SOL    HW1 9298   4.077  11.743  13.397
 2467SOL    HW2 9299   3.949  11.709  13.324
 2468SOL     OW 9300   4.916   6.076  14.544
 2468SOL    HW1 9301   4.976   6.074  14.470
 2468SOL    HW2 9302   4.931   6.163  14.583
 2469SOL     OW 9303  12.810   0.310  11.036
 2469SOL    HW1 9304  12.786   0.394  10.996
 2469SOL    HW2 9305  12.881   0.332  11.096
 2470SOL     OW 9306   5.095  14.835   1.277
 2470SOL    HW1 9307   5.114  14.787   1.358
 2470SOL    HW2 9308   5.007  14.870   1.291
 2471SOL     OW 9309   7.208   7.167   3.416
 2471SOL    HW1 9310   7.233   7.193   3.505
 2471SOL    HW2 9311   7.257   7.227   3.359
 2472SOL     OW 9312   6.553   5.227  10.966
 2472SOL    HW1 9313   6.570   5.145  10.919
 2472SOL    HW2 9314   6.467   5.215  11.004
 2473SOL     OW 9315   8.280   9.669   6.567
 2473SOL    HW1 9316   8.343   9.664   6.639
 2473SOL    HW2 9317   8.335   9.669   6.488
 2474SOL     OW 9318  10.586   8.053   6.827
 2474SOL    HW1 9319  10.492   8.041   6.817
 2474SOL    HW2 9320  10.606   8.016   6.913
 2475SOL     OW 9321   7.391  13.295   7.063
 2475SOL    HW1 9322   7.438  13.335   7.136
 2475SOL    HW2 9323   7.329  13.362   7.035
 2476SOL     OW 9324  10.623   7.978   2.907
 2476SOL    HW1 9325  10.616   8.060   2.859
 2476SOL    HW2 9326  10.533   7.958   2.933
 2477SOL     OW 9327   2.264   3.714  13.089
 2477SOL    HW1 9328   2.252   3.623  13.063
 2477SOL    HW2 9329   2.177   3.753  13.082
 2478SOL     OW 9330   0.794  11.283  12.173
 2478SOL    HW1 9331   0.843  11.259  12.094
 2478SOL    HW2 9332   0.709  11.313  12.141
 2479SOL     OW 9333  10.721   0.062  14.095
 2479SOL    HW1 9334  10.740   0.004  14.021
 2479SOL    HW2 9335  10.807   0.091  14.125
 2480SOL     OW 9336  12.508   6.644   9.295
 2480SOL    HW1 9337  12.532   6.729   9.258
 2480SOL    HW2 9338  12.511   6.583   9.222
 2481SOL     OW 9339   5.305  14.277  13.153
 2481SOL    HW1 9340   5.267  14.227  13.081
 2481SOL    HW2 9341   5.364  14.214  13.196
 2482SOL     OW 9342  13.780  14.075   7.365
 2482SOL    HW1 9343  13.727  14.018   7.310
 2482SOL    HW2 9344  13.717  14.127   7.414
 2483SOL     OW 9345   4.438   4.343   5.543
 2483SOL    HW1 9346   4.419   4.426   5.587
 2483SOL    HW2 9347   4.526   4.320   5.572
 2484SOL     OW 9348   6.060   9.217   1.557
 2484SOL    HW1 9349   6.038   9.194   1.466
 2484SOL    HW2 9350   6.152   9.193   1.566
 2485SOL     OW 9351   8.925   7.722   5.611
 2485SOL    HW1 9352   8.962   7.755   5.693
 2485SOL    HW2 9353   8.906   7.800   5.559
 2486SOL     OW 9354   4.152   1.068  11.802
 2486SOL    HW1 9355   4.198   1.145  11.836
 2486SOL    HW2 9356   4.087   1.047  11.870
 2487SOL     OW 9357   0.437   6.651   8.216
 2487SOL    HW1 9358   0.511   6.689   8.169
 2487SOL    HW2 9359   0.375   6.724   8.225
 2488SOL     OW 9360  11.802   2.376   4.994
 2488SOL    HW1 9361  11.880   2.407   4.946
 2488SOL    HW2 9362  11.816   2.282   5.004
 2489SOL     OW 9363   7.480   1.042   7.287
 2489SOL    HW1 9364   7.412   1.037   7.354
 2489SOL    HW2 9365   7.439   1.007   7.208
 2490SOL     OW 9366   5.131   3.260   2.257
 2490SOL    HW1 9367   5.167   3.176   2.284
 2490SOL    HW2 9368   5.040   3.257   2.286
 2491SOL     OW 9369   4.948   7.282   2.048
 2491SOL    HW1 9370   4.914   7.265   2.136
 2491SOL    HW2 9371   5.039   7.254   2.053
 2492SOL     OW 9372  13.882   0.581   9.802
 2492SOL    HW1 9373  13.898   0.491   9.830
 2492SOL    HW2 9374  13.791   0.598   9.825
 2493SOL     OW 9375  13.780   0.360  12.128
 2493SOL    HW1 9376  13.687   0.342  12.138
 2493SOL    HW2 9377  13.790   0.386  12.037
 2494SOL     OW 9378  11.550   2.903   3.449
 2494SOL    HW1 9379  11.581   2.985   3.487
 2494SOL    HW2 9380  11.552   2.841   3.522
 2495SOL     OW 9381   9.393  13.844   8.811
 2495SOL    HW1 9382   9.360  13.780   8.748
 2495SOL    HW2 9383   9.392  13.797   8.895
 2496SOL     OW 9384  10.420   5.459  12.189
 2496SOL    HW1 9385  10.435   5.365  12.199
 2496SOL    HW2 9386  10.326   5.467  12.172
 2497SOL     OW 9387   1.204   6.673   4.982
 2497SOL    HW1 9388   1.176   6.672   5.074
 2497SOL    HW2 9389   1.162   6.750   4.944
 2498SOL     OW 9390   1.709  13.032  13.116
 2498SOL    HW1 9391   1.725  13.124  13.135
 2498SOL    HW2 9392   1.621  13.015  13.150
 2499SOL     OW 9393   7.696   8.726   4.364
 2499SOL    HW1 9394   7.770   8.697   4.417
 2499SOL    HW2 9395   7.638   8.651   4.362
 2500SOL     OW 9396   3.786   2.931   6.803
 2500SOL    HW1 9397   3.706   2.901   6.762
 2500SOL    HW2 9398   3.856   2.902   6.745
 2501SOL     OW 9399   8.133   3.638  14.784
 2501SOL    HW1 9400   8.141   3.622  14.878
 2501SOL    HW2 9401   8.209   3.593  14.746
 2502SOL     OW 9402  10.681   7.150  11.179
 2502SOL    HW1 9403  10.716   7.239  11.172
 2502SOL    HW2 9404  10.586   7.161  11.175
 2503SOL     OW 9405   7.608  10.989  11.096
 2503SOL    HW1 9406   7.665  11.028  11.030
 2503SOL    HW2 9407   7.541  10.943  11.045
 2504SOL     OW 9408  14.081   3.360   9.749
 2504SOL    HW1 9409  14.060   3.279   9.703
 2504SOL    HW2 9410  14.025   3.358   9.827
 2505SOL     OW 9411   0.719   2.556   8.027
 2505SOL    HW1 9412   0.669   2.617   8.081
 2505SOL    HW2 9413   0.795   2.533   8.081
 2506SOL     OW 9414   2.663   4.826   9.419
 2506SOL    HW1 9415   2.595   4.886   9.390
 2506SOL    HW2 9416   2.743   4.860   9.381
 2507SOL     OW 9417   4.222   1.590   8.637
 2507SOL    HW1 9418   4.292   1.530   8.612
 2507SOL    HW2 9419   4.150   1.569   8.578
 2508SOL     OW 9420   1.972  10.208   8.895
 2508SOL    HW1 9421   2.046  10.191   8.838
 2508SOL    HW2 9422   1.900  10.158   8.856
 2509SOL     OW 9423   4.466   3.167  10.717
 2509SOL    HW1 9424   4.426   3.181  10.803
 2509SOL    HW2 9425   4.421   3.229  10.659
 2510SOL     OW 9426   5.819   3.084   9.552
 2510SOL    HW1 9427   5.775   3.078   9.468
 2510SOL    HW2 9428   5.757   3.046   9.615
 2511SOL     OW 9429   2.872   6.518   1.999
 2511SOL    HW1 9430   2.945   6.574   2.026
 2511SOL    HW2 9431   2.890   6.433   2.039
 2512SOL     OW 9432  10.732  10.902   6.842
 2512SOL    HW1 9433  10.710  10.813   6.814
 2512SOL    HW2 9434  10.719  10.956   6.764
 2513SOL     OW 9435   1.409   7.365   0.483
 2513SOL    HW1 9436   1.489   7.412   0.507
 2513SOL    HW2 9437   1.418   7.280   0.525
 2514SOL     OW 9438   9.378   1.243   8.319
 2514SOL    HW1 9439   9.375   1.148   8.309
 2514SOL    HW2 9440   9.441   1.273   8.254
 2515SOL     OW 9441  13.480   1.885   9.780
 2515SOL    HW1 9442  13.405   1.887   9.720
 2515SOL    HW2 9443  13.537   1.955   9.750
 2516SOL     OW 9444   4.096   9.523   9.368
 2516SOL    HW1 9445   4.018   9.556   9.324
 2516SOL    HW2 9446   4.111   9.586   9.439
 2517SOL     OW 9447   4.565   3.580   9.798
 2517SOL    HW1 9448   4.570   3.516   9.727
 2517SOL    HW2 9449   4.568   3.528   9.878
 2518SOL     OW 9450   6.082  13.512   7.113
 2518SOL    HW1 9451   6.056  13.576   7.046
 2518SOL    HW2 9452   6.076  13.560   7.195
 2519SOL     OW 9453   9.130   9.713  14.360
 2519SOL    HW1 9454   9.044   9.683  14.387
 2519SOL    HW2 9455   9.177   9.634  14.333
 2520SOL     OW 9456  11.565   7.696  10.371
 2520SOL    HW1 9457  11.500   7.755  10.411
 2520SOL    HW2 9458  11.514   7.620  10.343
 2521SOL     OW 9459   3.488  10.468   8.605
 2521SOL    HW1 9460   3.472  10.380   8.571
 2521SOL    HW2 9461   3.564  10.459   8.662
 2522SOL     OW 9462  13.919   0.223   9.656
 2522SOL    HW1 9463  13.864   0.148   9.634
 2522SOL    HW2 9464  13.889   0.249   9.743
 2523SOL     OW 9465  10.071   2.495  13.981
 2523SOL    HW1 9466  10.057   2.438  13.906
 2523SOL    HW2 9467  10.040   2.444  14.056
 2524SOL     OW 9468  10.276  13.623   3.397
 2524SOL    HW1 9469  10.297  13.706   3.438
 2524SOL    HW2 9470  10.228  13.574   3.464
 2525SOL     OW 9471   6.677  14.327  10.450
 2525SOL    HW1 9472   6.671  14.379  10.530
 2525SOL    HW2 9473   6.675  14.236  10.481
 2526SOL     OW 9474  11.002  11.342  12.229
 2526SOL    HW1 9475  10.973  11.430  12.253
 2526SOL    HW2 9476  11.078  11.326  12.286
 2527SOL     OW 9477   1.295  13.942  14.308
 2527SOL    HW1 9478   1.367  13.880  14.294
 2527SOL    HW2 9479   1.286  13.947  14.403
 2528SOL     OW 9480   6.164   0.343  13.422
 2528SOL    HW1 9481   6.081   0.370  13.462
 2528SOL    HW2 9482   6.138   0.298  13.341
 2529SOL     OW 9483  11.927   7.090  10.114
 2529SOL    HW1 9484  11.892   7.056  10.196
 2529SOL    HW2 9485  11.852   7.130  10.071
 2530SOL     OW 9486   0.700   2.847   9.532
 2530SOL    HW1 9487   0.683   2.908   9.460
 2530SOL    HW2 9488   0.704   2.761   9.490
 2531SOL     OW 9489   0.729   1.784  13.383
 2531SOL    HW1 9490   0.819   1.816  13.384
 2531SOL    HW2 9491   0.713   1.761  13.292
 2532SOL     OW 9492  13.385   3.173   2.178
 2532SOL    HW1 9493  13.390   3.265   2.151
 2532SOL    HW2 9494  13.475   3.148   2.196
 2533SOL     OW 9495  12.973   6.394   1.260
 2533SOL    HW1 9496  12.970   6.415   1.353
 2533SOL    HW2 9497  12.942   6.473   1.216
 2534SOL     OW 9498   9.936  12.262  11.385
 2534SOL    HW1 9499  10.008  12.238  11.327
 2534SOL    HW2 9500   9.978  12.303  11.460
 2535SOL     OW 9501   2.763   9.670   2.224
 2535SOL    HW1 9502   2.686   9.684   2.169
 2535SOL    HW2 9503   2.734   9.607   2.290
 2536SOL     OW 9504   7.962   3.248  10.803
 2536SOL    HW1 9505   7.986   3.268  10.893
 2536SOL    HW2 9506   7.984   3.155  10.792
 2537SOL     OW 9507  14.796  10.179   3.298
 2537SOL    HW1 9508  14.859  10.250   3.307
 2537SOL    HW2 9509  14.754  10.194   3.213
 2538SOL     OW 9510   5.556   4.284   8.242
 2538SOL    HW1 9511   5.650   4.270   8.255
 2538SOL    HW2 9512   5.551   4.353   8.176
 2539SOL     OW 9513   0.599   0.074  14.883
 2539SOL    HW1 9514   0.572   0.022  14.808
 2539SOL    HW2 9515   0.578   0.164  14.859
 2540SOL     OW 9516   0.481   5.550   8.583
 2540SOL    HW1 9517   0.508   5.555   8.675
 2540SOL    HW2 9518   0.417   5.620   8.573
 2541SOL     OW 9519   0.225  14.867   5.137
 2541SOL    HW1 9520   0.166  14.845   5.066
 2541SOL    HW2 9521   0.293   0.034   5.097
 2542SOL     OW 9522   9.049   3.265   0.571
 2542SOL    HW1 9523   9.023   3.198   0.634
 2542SOL    HW2 9524   8.977   3.269   0.509
 2543SOL     OW 9525   1.949   2.975   3.162
 2543SOL    HW1 9526   2.019   2.973   3.227
 2543SOL    HW2 9527   1.946   2.887   3.126
 2544SOL     OW 9528   3.307  12.420   3.851
 2544SOL    HW1 9529   3.247  12.440   3.779
 2544SOL    HW2 9530   3.394  12.418   3.810
 2545SOL     OW 9531   3.857   1.620  12.168
 2545SOL    HW1 9532   3.894   1.660  12.247
 2545SOL    HW2 9533   3.765   1.646  12.170
 2546SOL     OW 9534   2.297  10.665   3.623
 2546SOL    HW1 9535   2.321  10.685   3.714
 2546SOL    HW2 9536   2.252  10.743   3.592
 2547SOL     OW 9537  10.355   8.471   7.450
 2547SOL    HW1 9538  10.273   8.478   7.499
 2547SOL    HW2 9539  10.331   8.422   7.371
 2548SOL     OW 9540  10.502   1.750  13.997
 2548SOL    HW1 9541  10.514   1.818  14.063
 2548SOL    HW2 9542  10.455   1.680  14.043
 2549SOL     OW 9543   3.424  12.621   9.527
 2549SOL    HW1 9544   3.497  12.674   9.558
 2549SOL    HW2 9545   3.375  12.599   9.606
 2550SOL     OW 9546   2.746   3.195  11.629
 2550SOL    HW1 9547   2.674   3.256  11.616
 2550SOL    HW2 9548   2.749   3.182  11.724
 2551SOL     OW 9549   3.553   9.932   6.510
 2551SOL    HW1 9550   3.615   9.891   6.449
 2551SOL    HW2 9551   3.475   9.949   6.457
 2552SOL     OW 9552  11.949   8.475   0.573
 2552SOL    HW1 9553  11.896   8.500   0.649
 2552SOL    HW2 9554  11.910   8.394   0.542
 2553SOL     OW 9555  11.384   8.977   4.705
 2553SOL    HW1 9556  11.449   8.928   4.757
 2553SOL    HW2 9557  11.300   8.958   4.748
 2554SOL     OW 9558  14.701   0.707  11.453
 2554SOL    HW1 9559  14.666   0.630  11.498
 2554SOL    HW2 9560  14.718   0.677  11.364
 2555SOL     OW 9561   6.021   3.440   3.780
 2555SOL    HW1 9562   6.116   3.454   3.791
 2555SOL    HW2 9563   5.982   3.482   3.857
 2556SOL     OW 9564   4.301   8.180  10.848
 2556SOL    HW1 9565   4.296   8.255  10.788
 2556SOL    HW2 9566   4.210   8.153  10.859
 2557SOL     OW 9567   1.832  10.521   2.536
 2557SOL    HW1 9568   1.757  10.511   2.594
 2557SOL    HW2 9569   1.794  10.532   2.449
 2558SOL     OW 9570   8.445   5.369   1.067
 2558SOL    HW1 9571   8.499   5.330   0.999
 2558SOL    HW2 9572   8.356   5.364   1.033
 2559SOL     OW 9573  12.286   1.166  10.341
 2559SOL    HW1 9574  12.243   1.168  10.426
 2559SOL    HW2 9575  12.240   1.232  10.289
 2560SOL     OW 9576   2.711   8.759   0.669
 2560SOL    HW1 9577   2.773   8.797   0.606
 2560SOL    HW2 9578   2.765   8.705   0.726
 2561SOL     OW 9579   6.261   0.176   7.292
 2561SOL    HW1 9580   6.319   0.110   7.330
 2561SOL    HW2 9581   6.173   0.143   7.311
 2562SOL     OW 9582  11.939  12.025   7.449
 2562SOL    HW1 9583  11.966  11.962   7.383
 2562SOL    HW2 9584  11.970  12.109   7.416
 2563SOL     OW 9585   2.616   5.325  10.839
 2563SOL    HW1 9586   2.531   5.362  10.814
 2563SOL    HW2 9587   2.665   5.399  10.876
 2564SOL     OW 9588   2.893   5.169   1.489
 2564SOL    HW1 9589   2.935   5.140   1.408
 2564SOL    HW2 9590   2.951   5.236   1.524
 2565SOL     OW 9591   9.525   0.169  12.873
 2565SOL    HW1 9592   9.543   0.178  12.966
 2565SOL    HW2 9593   9.536   0.075  12.855
 2566SOL     OW 9594  10.423  12.384   2.771
 2566SOL    HW1 9595  10.359  12.403   2.701
 2566SOL    HW2 9596  10.467  12.305   2.741
 2567SOL     OW 9597   6.168   4.366  14.852
 2567SOL    HW1 9598   6.116   4.358   0.045
 2567SOL    HW2 9599   6.194   4.276  14.832
 2568SOL     OW 9600  14.432  11.127   8.212
 2568SOL    HW1 9601  14.491  11.201   8.198
 2568SOL    HW2 9602  14.477  11.072   8.276
 2569SOL     OW 9603  13.360   6.386   2.635
 2569SOL    HW1 9604  13.365   6.481   2.640
 2569SOL    HW2 9605  13.270   6.366   2.661
 2570SOL     OW 9606   5.406   7.176   3.532
 2570SOL    HW1 9607   5.377   7.111   3.595
 2570SOL    HW2 9608   5.344   7.169   3.459
 2571SOL     OW 9609   4.813   3.275   2.727
 2571SOL    HW1 9610   4.768   3.287   2.644
 2571SOL    HW2 9611   4.873   3.350   2.732
 2572SOL     OW 9612  10.026   7.837   7.084
 2572SOL    HW1 9613  10.106   7.798   7.119
 2572SOL    HW2 9614   9.983   7.876   7.161
 2573SOL     OW 9615  11.389   0.950   8.454
 2573SOL    HW1 9616  11.306   0.948   8.503
 2573SOL    HW2 9617  11.394   0.863   8.414
 2574SOL     OW 9618   1.129   7.201   1.657
 2574SOL    HW1 9619   1.207   7.177   1.707
 2574SOL    HW2 9620   1.057   7.186   1.718
 2575SOL     OW 9621  12.169   9.938   0.273
 2575SOL    HW1 9622  12.075   9.920   0.271
 2575SOL    HW2 9623  12.210   9.851   0.274
 2576SOL     OW 9624  12.860   3.307   5.256
 2576SOL    HW1 9625  12.929   3.371   5.244
 2576SOL    HW2 9626  12.781   3.359   5.272
 2577SOL     OW 9627  14.275  13.685   8.963
 2577SOL    HW1 9628  14.301  13.629   9.037
 2577SOL    HW2 9629  14.179  13.685   8.966
 2578SOL     OW 9630   1.952   6.728  13.618
 2578SOL    HW1 9631   2.026   6.782  13.590
 2578SOL    HW2 9632   1.961   6.647  13.567
 2579SOL     OW 9633  11.631   4.591   6.286
 2579SOL    HW1 9634  11.545   4.632   6.286
 2579SOL    HW2 9635  11.643   4.559   6.375
 2580SOL     OW 9636  13.095   1.991  12.768
 2580SOL    HW1 9637  13.024   2.049  12.740
 2580SOL    HW2 9638  13.106   2.011  12.861
 2581SOL     OW 9639   7.994   9.434  10.521
 2581SOL    HW1 9640   8.069   9.374  10.529
 2581SOL    HW2 9641   7.920   9.377  10.503
 2582SOL     OW 9642  14.876   5.197   8.250
 2582SOL    HW1 9643   0.069   5.190   8.198
 2582SOL    HW2 9644  14.806   5.206   8.185
 2583SOL     OW 9645   8.230   7.884   0.890
 2583SOL    HW1 9646   8.183   7.901   0.808
 2583SOL    HW2 9647   8.162   7.882   0.957
 2584SOL     OW 9648   6.244  11.253   1.095
 2584SOL    HW1 9649   6.296  11.328   1.126
 2584SOL    HW2 9650   6.248  11.260   1.000
 2585SOL     OW 9651   0.612   6.486  14.145
 2585SOL    HW1 9652   0.576   6.438  14.220
 2585SOL    HW2 9653   0.673   6.548  14.184
 2586SOL     OW 9654   2.556   4.801   5.300
 2586SOL    HW1 9655   2.615   4.736   5.261
 2586SOL    HW2 9656   2.583   4.884   5.261
 2587SOL     OW 9657   0.374   5.133   8.985
 2587SOL    HW1 9658   0.379   5.100   8.895
 2587SOL    HW2 9659   0.364   5.054   9.038
 2588SOL     OW 9660  12.045   3.809   6.470
 2588SOL    HW1 9661  12.043   3.888   6.525
 2588SOL    HW2 9662  12.137   3.783   6.470
 2589SOL     OW 9663  10.039  10.131   4.709
 2589SOL    HW1 9664  10.095  10.080   4.767
 2589SOL    HW2 9665  10.003  10.067   4.648
 2590SOL     OW 9666   3.028   0.152   1.574
 2590SOL    HW1 9667   2.978   0.071   1.569
 2590SOL    HW2 9668   3.102   0.138   1.514
 2591SOL     OW 9669  10.339  10.726   1.681
 2591SOL    HW1 9670  10.335  10.820   1.660
 2591SOL    HW2 9671  10.318  10.722   1.774
 2592SOL     OW 9672  13.176   9.077   1.091
 2592SOL    HW1 9673  13.129   8.993   1.087
 2592SOL    HW2 9674  13.136   9.130   1.022
 2593SOL     OW 9675  11.012   2.677   3.458
 2593SOL    HW1 9676  10.933   2.712   3.416
 2593SOL    HW2 9677  11.074   2.750   3.455
 2594SOL     OW 9678  12.195   4.316   4.949
 2594SOL    HW1 9679  12.136   4.243   4.969
 2594SOL    HW2 9680  12.192   4.371   5.027
 2595SOL     OW 9681   1.424   2.336  10.547
 2595SOL    HW1 9682   1.383   2.250  10.544
 2595SOL    HW2 9683   1.517   2.319  10.535
 2596SOL     OW 9684  13.054   4.762  12.784
 2596SOL    HW1 9685  12.982   4.698  12.779
 2596SOL    HW2 9686  13.012   4.847  12.772
 2597SOL     OW 9687  14.761   2.771   6.434
 2597SOL    HW1 9688  14.856   2.768   6.431
 2597SOL    HW2 9689  14.734   2.679   6.426
 2598SOL     OW 9690  14.379   5.427  11.304
 2598SOL    HW1 9691  14.292   5.466  11.314
 2598SOL    HW2 9692  14.439   5.496  11.332
 2599SOL     OW 9693  12.487  11.020   2.536
 2599SOL    HW1 9694  12.577  11.002   2.507
 2599SOL    HW2 9695  12.471  10.953   2.603
 2600SOL     OW 9696  11.710  10.140   7.884
 2600SOL    HW1 9697  11.796  10.167   7.852
 2600SOL    HW2 9698  11.649  10.198   7.840
 2601SOL     OW 9699   3.877   6.288  11.324
 2601SOL    HW1 9700   3.818   6.298  11.249
 2601SOL    HW2 9701   3.825   6.239  11.388
 2602SOL     OW 9702   2.099   7.649   0.363
 2602SOL    HW1 9703   2.080   7.653   0.269
 2602SOL    HW2 9704   2.188   7.684   0.371
 2603SOL     OW 9705  11.030   1.761  13.072
 2603SOL    HW1 9706  11.058   1.775  13.163
 2603SOL    HW2 9707  10.990   1.674  13.072
 2604SOL     OW 9708   6.327   7.575  14.577
 2604SOL    HW1 9709   6.365   7.611  14.658
 2604SOL    HW2 9710   6.271   7.646  14.544
 2605SOL     OW 9711   7.395  13.131   8.123
 2605SOL    HW1 9712   7.315  13.078   8.118
 2605SOL    HW2 9713   7.416  13.152   8.032
 2606SOL     OW 9714   4.893   1.870   1.924
 2606SOL    HW1 9715   4.961   1.881   1.858
 2606SOL    HW2 9716   4.938   1.835   2.001
 2607SOL     OW 9717   0.752   8.158  14.559
 2607SOL    HW1 9718   0.831   8.211  14.547
 2607SOL    HW2 9719   0.680   8.219  14.547
 2608SOL     OW 9720   9.974   1.770  12.539
 2608SOL    HW1 9721   9.931   1.754  12.623
 2608SOL    HW2 9722  10.067   1.762  12.559
 2609SOL     OW 9723   1.558   1.819  13.498
 2609SOL    HW1 9724   1.601   1.783  13.575
 2609SOL    HW2 9725   1.536   1.909  13.522
 2610SOL     OW 9726   4.610   0.202   9.775
 2610SOL    HW1 9727   4.549   0.276   9.769
 2610SOL    HW2 9728   4.592   0.151   9.696
 2611SOL     OW 9729   2.046   9.073   5.423
 2611SOL    HW1 9730   2.074   8.992   5.466
 2611SOL    HW2 9731   2.123   9.129   5.425
 2612SOL     OW 9732   5.549   7.092   4.503
 2612SOL    HW1 9733   5.601   7.034   4.558
 2612SOL    HW2 9734   5.477   7.038   4.472
 2613SOL     OW 9735  10.176   6.140  14.115
 2613SOL    HW1 9736  10.192   6.223  14.070
 2613SOL    HW2 9737  10.085   6.119  14.094
 2614SOL     OW 9738   9.740  10.968   4.968
 2614SOL    HW1 9739   9.697  11.044   4.930
 2614SOL    HW2 9740   9.668  10.916   5.004
 2615SOL     OW 9741   8.149  12.684   7.416
 2615SOL    HW1 9742   8.125  12.768   7.455
 2615SOL    HW2 9743   8.065  12.646   7.389
 2616SOL     OW 9744   7.199   4.046   2.042
 2616SOL    HW1 9745   7.103   4.053   2.037
 2616SOL    HW2 9746   7.224   4.107   2.112
 2617SOL     OW 9747   9.097   3.089   0.256
 2617SOL    HW1 9748   9.025   3.146   0.226
 2617SOL    HW2 9749   9.164   3.150   0.287
 2618SOL     OW 9750   4.186   7.210   8.859
 2618SOL    HW1 9751   4.263   7.241   8.908
 2618SOL    HW2 9752   4.121   7.193   8.927
 2619SOL     OW 9753   3.139  10.288   1.499
 2619SOL    HW1 9754   3.096  10.310   1.582
 2619SOL    HW2 9755   3.094  10.210   1.468
 2620SOL     OW 9756   8.988   3.045  14.481
 2620SOL    HW1 9757   9.062   2.997  14.443
 2620SOL    HW2 9758   9.027   3.094  14.554
 2621SOL     OW 9759   2.344  12.023  14.379
 2621SOL    HW1 9760   2.311  11.973  14.454
 2621SOL    HW2 9761   2.407  12.085  14.417
 2622SOL     OW 9762  10.227   6.278   7.437
 2622SOL    HW1 9763  10.172   6.309   7.365
 2622SOL    HW2 9764  10.209   6.338   7.509
 2623SOL     OW 9765   5.583   8.855   9.536
 2623SOL    HW1 9766   5.520   8.783   9.527
 2623SOL    HW2 9767   5.636   8.850   9.456
 2624SOL     OW 9768  14.883   0.987  12.036
 2624SOL    HW1 9769   0.049   1.027  11.968
 2624SOL    HW2 9770   0.058   0.940  12.091
 2625SOL     OW 9771  12.773  10.406  13.140
 2625SOL    HW1 9772  12.684  10.404  13.107
 2625SOL    HW2 9773  12.778  10.331  13.199
 2626SOL     OW 9774  10.951  13.547   8.178
 2626SOL    HW1 9775  11.009  13.472   8.171
 2626SOL    HW2 9776  10.991  13.602   8.246
 2627SOL     OW 9777   0.203   8.041  11.627
 2627SOL    HW1 9778   0.160   8.031  11.542
 2627SOL    HW2 9779   0.134   8.023  11.691
 2628SOL     OW 9780   1.076   4.258   9.139
 2628SOL    HW1 9781   1.012   4.329   9.137
 2628SOL    HW2 9782   1.150   4.291   9.087
 2629SOL     OW 9783  10.714  13.037   2.408
 2629SOL    HW1 9784  10.713  13.078   2.322
 2629SOL    HW2 9785  10.641  13.078   2.455
 2630SOL     OW 9786   6.278   4.043  12.338
 2630SOL    HW1 9787   6.240   4.051  12.250
 2630SOL    HW2 9788   6.204   4.053  12.398
 2631SOL     OW 9789   2.902  11.641   1.367
 2631SOL    HW1 9790   2.978  11.594   1.331
 2631SOL    HW2 9791   2.829  11.579   1.356
 2632SOL     OW 9792   8.800   5.251   2.997
 2632SOL    HW1 9793   8.750   5.321   3.039
 2632SOL    HW2 9794   8.881   5.293   2.968
 2633SOL     OW 9795   5.873  13.841   1.743
 2633SOL    HW1 9796   5.885  13.853   1.648
 2633SOL    HW2 9797   5.853  13.928   1.775
 2634SOL     OW 9798  10.800   1.723   9.887
 2634SOL    HW1 9799  10.848   1.697   9.808
 2634SOL    HW2 9800  10.709   1.733   9.858
 2635SOL     OW 9801   9.242   1.578  11.557
 2635SOL    HW1 9802   9.314   1.615  11.506
 2635SOL    HW2 9803   9.272   1.580  11.647
 2636SOL     OW 9804   3.430   3.921   2.824
 2636SOL    HW1 9805   3.469   4.002   2.791
 2636SOL    HW2 9806   3.351   3.909   2.771
 2637SOL     OW 9807  11.713  12.821   9.166
 2637SOL    HW1 9808  11.742  12.911   9.149
 2637SOL    HW2 9809  11.690  12.820   9.258
 2638SOL     OW 9810   4.408   4.167   5.294
 2638SOL    HW1 9811   4.385   4.235   5.230
 2638SOL    HW2 9812   4.402   4.211   5.379
 2639SOL     OW 9813   2.329  14.868  13.969
 2639SOL    HW1 9814   2.379  14.789  13.949
 2639SOL    HW2 9815   2.379   0.024  14.038
 2640SOL     OW 9816   6.804   9.417   6.184
 2640SOL    HW1 9817   6.772   9.498   6.223
 2640SOL    HW2 9818   6.883   9.397   6.234
 2641SOL     OW 9819  10.049   9.352   1.360
 2641SOL    HW1 9820  10.074   9.435   1.402
 2641SOL    HW2 9821  10.132   9.316   1.328
 2642SOL     OW 9822   8.284  14.685   6.014
 2642SOL    HW1 9823   8.363  14.712   6.061
 2642SOL    HW2 9824   8.278  14.591   6.029
 2643SOL     OW 9825   0.707   2.496   8.355
 2643SOL    HW1 9826   0.681   2.416   8.401
 2643SOL    HW2 9827   0.626   2.545   8.345
 2644SOL     OW 9828  11.050   9.923  14.357
 2644SOL    HW1 9829  10.956   9.905  14.353
 2644SOL    HW2 9830  11.084   9.894  14.273
 2645SOL     OW 9831   0.346  12.858   1.958
 2645SOL    HW1 9832   0.375  12.858   1.867
 2645SOL    HW2 9833   0.263  12.905   1.957
 2646SOL     OW 9834   6.693   5.756   1.274
 2646SOL    HW1 9835   6.665   5.821   1.210
 2646SOL    HW2 9836   6.709   5.806   1.354
 2647SOL     OW 9837   5.569  10.433   5.602
 2647SOL    HW1 9838   5.522  10.425   5.518
 2647SOL    HW2 9839   5.507  10.401   5.667
 2648SOL     OW 9840  13.868   0.547  11.061
 2648SOL    HW1 9841  13.787   0.510  11.098
 2648SOL    HW2 9842  13.927   0.472  11.053
 2649SOL     OW 9843  11.654   9.048   8.983
 2649SOL    HW1 9844  11.637   8.957   8.958
 2649SOL    HW2 9845  11.678   9.091   8.901
 2650SOL     OW 9846  14.287   3.435   6.583
 2650SOL    HW1 9847  14.383   3.437   6.588
 2650SOL    HW2 9848  14.268   3.450   6.490
 2651SOL     OW 9849   0.590   4.146   4.921
 2651SOL    HW1 9850   0.561   4.056   4.907
 2651SOL    HW2 9851   0.521   4.186   4.974
 2652SOL     OW 9852   1.573   8.198  13.027
 2652SOL    HW1 9853   1.591   8.210  12.933
 2652SOL    HW2 9854   1.489   8.153  13.030
 2653SOL     OW 9855   8.372  13.204   5.677
 2653SOL    HW1 9856   8.440  13.210   5.610
 2653SOL    HW2 9857   8.400  13.131   5.733
 2654SOL     OW 9858   8.225   8.036  10.363
 2654SOL    HW1 9859   8.211   7.979  10.438
 2654SOL    HW2 9860   8.138   8.065  10.337
 2655SOL     OW 9861   6.624   2.491   6.522
 2655SOL    HW1 9862   6.679   2.447   6.458
 2655SOL    HW2 9863   6.601   2.575   6.482
 2656SOL     OW 9864   5.062  12.981  14.247
 2656SOL    HW1 9865   4.979  13.022  14.275
 2656SOL    HW2 9866   5.107  12.962  14.329
 2657SOL     OW 9867  13.238  14.467   5.563
 2657SOL    HW1 9868  13.159  14.441   5.515
 2657SOL    HW2 9869  13.283  14.527   5.505
 2658SOL     OW 9870   3.608   6.421   7.760
 2658SOL    HW1 9871   3.681   6.387   7.811
 2658SOL    HW2 9872   3.535   6.364   7.782
 2659SOL     OW 9873  13.890   1.304   4.708
 2659SOL    HW1 9874  13.976   1.299   4.751
 2659SOL    HW2 9875  13.884   1.223   4.658
 2660SOL     OW 9876   0.711   4.803   8.205
 2660SOL    HW1 9877   0.770   4.877   8.189
 2660SOL    HW2 9878   0.625   4.836   8.181
 2661SOL     OW 9879   4.417   7.899  11.025
 2661SOL    HW1 9880   4.448   7.916  10.936
 2661SOL    HW2 9881   4.322   7.895  11.018
 2662SOL     OW 9882  11.929  11.787   6.770
 2662SOL    HW1 9883  11.930  11.818   6.860
 2662SOL    HW2 9884  12.004  11.726   6.766
 2663SOL     OW 9885   9.443   1.793   8.396
 2663SOL    HW1 9886   9.404   1.878   8.416
 2663SOL    HW2 9887   9.457   1.753   8.482
 2664SOL     OW 9888   4.399   1.922   0.705
 2664SOL    HW1 9889   4.367   1.837   0.737
 2664SOL    HW2 9890   4.493   1.920   0.723
 2665SOL     OW 9891   2.593  11.580   3.069
 2665SOL    HW1 9892   2.663  11.521   3.041
 2665SOL    HW2 9893   2.581  11.639   2.995
 2666SOL     OW 9894   4.765   8.259  14.374
 2666SOL    HW1 9895   4.768   8.301  14.460
 2666SOL    HW2 9896   4.717   8.177  14.389
 2667SOL     OW 9897  12.841   1.179   9.887
 2667SOL    HW1 9898  12.781   1.217   9.822
 2667SOL    HW2 9899  12.786   1.117   9.936
 2668SOL     OW 9900   2.142  14.750   5.017
 2668SOL    HW1 9901   2.213  14.686   5.020
 2668SOL    HW2 9902   2.186  14.835   5.026
 2669SOL     OW 9903  11.597   6.413   6.589
 2669SOL    HW1 9904  11.610   6.482   6.524
 2669SOL    HW2 9905  11.642   6.337   6.552
 2670SOL     OW 9906   7.112  12.338  12.569
 2670SOL    HW1 9907   7.141  12.270  12.508
 2670SOL    HW2 9908   7.188  12.352  12.626
 2671SOL     OW 9909   5.605  10.446   5.165
 2671SOL    HW1 9910   5.529  10.458   5.108
 2671SOL    HW2 9911   5.637  10.358   5.144
 2672SOL     OW 9912   8.213   7.740  14.751
 2672SOL    HW1 9913   8.140   7.740  14.813
 2672SOL    HW2 9914   8.283   7.691  14.795
 2673SOL     OW 9915   7.867   9.041   3.556
 2673SOL    HW1 9916   7.914   8.999   3.628
 2673SOL    HW2 9917   7.816   8.970   3.517
 2674SOL     OW 9918  12.960   5.629   4.613
 2674SOL    HW1 9919  12.916   5.544   4.619
 2674SOL    HW2 9920  12.897   5.691   4.650
 2675SOL     OW 9921  10.295   6.297   1.013
 2675SOL    HW1 9922  10.254   6.276   0.929
 2675SOL    HW2 9923  10.222   6.300   1.075
 2676SOL     OW 9924   5.902  10.096   6.451
 2676SOL    HW1 9925   5.869  10.006   6.449
 2676SOL    HW2 9926   5.909  10.117   6.545
 2677SOL     OW 9927   0.976   6.111   8.366
 2677SOL    HW1 9928   1.033   6.048   8.322
 2677SOL    HW2 9929   0.943   6.065   8.443
 2678SOL     OW 9930  10.315   1.545  12.146
 2678SOL    HW1 9931  10.402   1.512  12.168
 2678SOL    HW2 9932  10.260   1.520  12.221
 2679SOL     OW 9933  13.348   4.452   5.297
 2679SOL    HW1 9934  13.405   4.381   5.268
 2679SOL    HW2 9935  13.341   4.510   5.222
 2680SOL     OW 9936  14.405   8.471   4.082
 2680SOL    HW1 9937  14.480   8.425   4.044
 2680SOL    HW2 9938  14.330   8.442   4.029
 2681SOL     OW 9939   0.462  10.975   7.228
 2681SOL    HW1 9940   0.386  10.997   7.173
 2681SOL    HW2 9941   0.507  10.905   7.181
 2682SOL     OW 9942   7.547   6.350   4.739
 2682SOL    HW1 9943   7.500   6.268   4.724
 2682SOL    HW2 9944   7.588   6.338   4.825
 2683SOL     OW 9945   8.573   3.347  10.631
 2683SOL    HW1 9946   8.484   3.338  10.599
 2683SOL    HW2 9947   8.611   3.417  10.578
 2684SOL     OW 9948   5.280   7.555  11.285
 2684SOL    HW1 9949   5.195   7.525  11.253
 2684SOL    HW2 9950   5.264   7.578  11.377
 2685SOL     OW 9951   8.170   8.961  12.451
 2685SOL    HW1 9952   8.078   8.950  12.476
 2685SOL    HW2 9953   8.206   9.023  12.515
 2686SOL     OW 9954   2.970   1.890  13.238
 2686SOL    HW1 9955   3.032   1.819  13.227
 2686SOL    HW2 9956   2.884   1.847  13.243
 2687SOL     OW 9957   3.267  14.041  10.966
 2687SOL    HW1 9958   3.285  14.094  10.888
 2687SOL    HW2 9959   3.272  14.103  11.038
 2688SOL     OW 9960  14.328   8.435  12.363
 2688SOL    HW1 9961  14.335   8.517  12.412
 2688SOL    HW2 9962  14.236   8.429  12.340
 2689SOL     OW 9963  12.010  11.798  11.318
 2689SOL    HW1 9964  11.997  11.788  11.224
 2689SOL    HW2 9965  12.078  11.734  11.341
 2690SOL     OW 9966   0.068   2.882   2.314
 2690SOL    HW1 9967   0.115   2.883   2.398
 2690SOL    HW2 9968   0.117   2.820   2.260
 2691SOL     OW 9969  14.594   6.697   0.827
 2691SOL    HW1 9970  14.630   6.611   0.847
 2691SOL    HW2 9971  14.544   6.721   0.905
 2692SOL     OW 9972  11.682   8.902  13.234
 2692SOL    HW1 9973  11.603   8.850  13.223
 2692SOL    HW2 9974  11.753   8.838  13.238
 2693SOL     OW 9975  12.782   4.798   0.668
 2693SOL    HW1 9976  12.862   4.746   0.675
 2693SOL    HW2 9977  12.745   4.797   0.756
 2694SOL     OW 9978   0.462   3.499   0.555
 2694SOL    HW1 9979   0.553   3.483   0.578
 2694SOL    HW2 9980   0.460   3.496   0.459
 2695SOL     OW 9981  10.330   4.600  12.072
 2695SOL    HW1 9982  10.323   4.505  12.081
 2695SOL    HW2 9983  10.255   4.634  12.121
 2696SOL     OW 9984   4.794   7.581   7.050
 2696SOL    HW1 9985   4.860   7.540   6.994
 2696SOL    HW2 9986   4.741   7.507   7.081
 2697SOL     OW 9987  13.708   8.554   8.853
 2697SOL    HW1 9988  13.749   8.635   8.823
 2697SOL    HW2 9989  13.614   8.572   8.853
 2698SOL     OW 9990   1.898   5.681   9.946
 2698SOL    HW1 9991   1.904   5.625  10.024
 2698SOL    HW2 9992   1.834   5.637   9.890
 2699SOL     OW 9993   0.546   5.371   2.818
 2699SOL    HW1 9994   0.509   5.458   2.810
 2699SOL    HW2 9995   0.608   5.378   2.891
 2700SOL     OW 9996   3.281   5.816  11.071
 2700SOL    HW1 9997   3.342   5.742  11.071
 2700SOL    HW2 9998   3.198   5.778  11.101
 2701SOL     OW 9999   9.610  14.820   5.139
 2701SOL    HW110000   9.597  14.860   5.053
 2701SOL    HW210001   9.702  14.793   5.139
 2702SOL     OW10002   5.661  14.150  13.017
 2702SOL    HW110003   5.754  14.170  13.013
 2702SOL    HW210004   5.656  14.056  13.029
 2703SOL     OW10005   3.605   5.934  10.747
 2703SOL    HW110006   3.657   6.003  10.787
 2703SOL    HW210007   3.667   5.864  10.730
 2704SOL     OW10008   9.661   1.572   1.228
 2704SOL    HW110009   9.615   1.646   1.189
 2704SOL    HW210010   9.734   1.554   1.169
 2705SOL     OW10011  13.615   2.697   8.714
 2705SOL    HW110012  13.552   2.768   8.725
 2705SOL    HW210013  13.693   2.726   8.761
 2706SOL     OW10014  13.479  13.683  12.991
 2706SOL    HW110015  13.395  13.722  12.965
 2706SOL    HW210016  13.456  13.600  13.031
 2707SOL     OW10017   3.366  14.730   5.442
 2707SOL    HW110018   3.314  14.711   5.521
 2707SOL    HW210019   3.311  14.701   5.370
 2708SOL     OW10020  13.968   8.263   5.107
 2708SOL    HW110021  13.908   8.330   5.076
 2708SOL    HW210022  13.985   8.285   5.198
 2709SOL     OW10023   9.835   2.692   7.382
 2709SOL    HW110024   9.744   2.682   7.411
 2709SOL    HW210025   9.869   2.602   7.377
 2710SOL     OW10026   5.187   0.119   1.990
 2710SOL    HW110027   5.258   0.102   1.928
 2710SOL    HW210028   5.124   0.172   1.940
 2711SOL     OW10029   9.543   6.828  13.605
 2711SOL    HW110030   9.594   6.904  13.578
 2711SOL    HW210031   9.515   6.848  13.695
 2712SOL     OW10032   5.129   8.627   7.190
 2712SOL    HW110033   5.034   8.617   7.188
 2712SOL    HW210034   5.146   8.713   7.152
 2713SOL     OW10035   1.487   7.617   0.039
 2713SOL    HW110036   1.568   7.587   0.079
 2713SOL    HW210037   1.516   7.676  14.856
 2714SOL     OW10038  10.640  10.973   8.902
 2714SOL    HW110039  10.684  11.028   8.966
 2714SOL    HW210040  10.665  10.883   8.926
 2715SOL     OW10041  13.119   3.608   5.862
 2715SOL    HW110042  13.123   3.678   5.927
 2715SOL    HW210043  13.064   3.541   5.902
 2716SOL     OW10044   0.798  10.710   6.200
 2716SOL    HW110045   0.792  10.670   6.113
 2716SOL    HW210046   0.853  10.787   6.187
 2717SOL     OW10047   4.847  14.646   0.756
 2717SOL    HW110048   4.879  14.557   0.738
 2717SOL    HW210049   4.912  14.703   0.716
 2718SOL     OW10050   3.370   5.880  14.645
 2718SOL    HW110051   3.353   5.902  14.553
 2718SOL    HW210052   3.453   5.924  14.665
 2719SOL     OW10053   9.242  10.267  13.054
 2719SOL    HW110054   9.288  10.301  13.131
 2719SOL    HW210055   9.213  10.180  13.079
 2720SOL     OW10056   4.534   0.577  14.811
 2720SOL    HW110057   4.582   0.526  14.745
 2720SOL    HW210058   4.498   0.511  14.870
 2721SOL     OW10059  14.855   9.723   1.244
 2721SOL    HW110060  14.788   9.678   1.192
 2721SOL    HW210061   0.032   9.753   1.180
 2722SOL     OW10062   2.727  14.417   2.141
 2722SOL    HW110063   2.755  14.408   2.049
 2722SOL    HW210064   2.803  14.390   2.192
 2723SOL     OW10065  10.130   4.296   2.650
 2723SOL    HW110066  10.042   4.333   2.663
 2723SOL    HW210067  10.185   4.343   2.712
 2724SOL     OW10068   8.455   4.659   2.837
 2724SOL    HW110069   8.533   4.701   2.875
 2724SOL    HW210070   8.402   4.732   2.806
 2725SOL     OW10071   8.311  12.910  12.609
 2725SOL    HW110072   8.265  12.993  12.593
 2725SOL    HW210073   8.339  12.882  12.522
 2726SOL     OW10074  13.866  13.117   6.212
 2726SOL    HW110075  13.867  13.031   6.256
 2726SOL    HW210076  13.792  13.112   6.151
 2727SOL     OW10077  14.250  14.239   2.063
 2727SOL    HW110078  14.321  14.182   2.036
 2727SOL    HW210079  14.277  14.274   2.148
 2728SOL     OW10080   6.575   4.536  13.725
 2728SOL    HW110081   6.666   4.524  13.699
 2728SOL    HW210082   6.561   4.472  13.796
 2729SOL     OW10083   2.393   4.219   9.654
 2729SOL    HW110084   2.333   4.261   9.592
 2729SOL    HW210085   2.423   4.291   9.710
 2730SOL     OW10086  12.236   9.894  11.540
 2730SOL    HW110087  12.252   9.965  11.477
 2730SOL    HW210088  12.323   9.859  11.559
 2731SOL     OW10089   9.913   3.070   5.871
 2731SOL    HW110090   9.826   3.053   5.835
 2731SOL    HW210091   9.941   2.986   5.908
 2732SOL     OW10092   1.851   9.750  14.678
 2732SOL    HW110093   1.885   9.803  14.750
 2732SOL    HW210094   1.773   9.796  14.648
 2733SOL     OW10095   9.104   9.962   0.203
 2733SOL    HW110096   9.024   9.912   0.187
 2733SOL    HW210097   9.138   9.981   0.116
 2734SOL     OW10098   6.039  13.432  14.567
 2734SOL    HW110099   6.002  13.491  14.633
 2734SOL    HW210100   6.093  13.371  14.617
 2735SOL     OW10101   7.037   0.898  11.091
 2735SOL    HW110102   7.081   0.905  11.006
 2735SOL    HW210103   7.104   0.920  11.155
 2736SOL     OW10104   4.777   1.844  13.499
 2736SOL    HW110105   4.829   1.874  13.424
 2736SOL    HW210106   4.796   1.908  13.568
 2737SOL     OW10107  12.059  14.775  11.695
 2737SOL    HW110108  12.067  14.732  11.780
 2737SOL    HW210109  11.966  14.800  11.689
 2738SOL     OW10110   2.564  14.870  14.180
 2738SOL    HW110111   2.553  14.841  14.271
 2738SOL    HW210112   2.608  14.796  14.137
 2739SOL     OW10113   0.503   7.212   2.182
 2739SOL    HW110114   0.420   7.164   2.186
 2739SOL    HW210115   0.507   7.260   2.265
 2740SOL     OW10116   5.439  12.955  10.148
 2740SOL    HW110117   5.428  12.955  10.243
 2740SOL    HW210118   5.505  13.022  10.132
 2741SOL     OW10119   0.360   7.248   7.144
 2741SOL    HW110120   0.402   7.287   7.221
 2741SOL    HW210121   0.288   7.196   7.181
 2742SOL     OW10122  10.077  14.286   4.333
 2742SOL    HW110123  10.138  14.337   4.280
 2742SOL    HW210124  10.123  14.203   4.349
 2743SOL     OW10125   9.381   8.642   1.870
 2743SOL    HW110126   9.417   8.712   1.814
 2743SOL    HW210127   9.454   8.581   1.881
 2744SOL     OW10128   1.527  10.158  14.401
 2744SOL    HW110129   1.479  10.227  14.356
 2744SOL    HW210130   1.465  10.085  14.405
 2745SOL     OW10131  10.054   6.427  14.302
 2745SOL    HW110132  10.037   6.411  14.209
 2745SOL    HW210133  10.044   6.341  14.343
 2746SOL     OW10134   3.426   3.475   5.518
 2746SOL    HW110135   3.437   3.502   5.427
 2746SOL    HW210136   3.446   3.382   5.519
 2747SOL     OW10137   4.309   8.093  11.882
 2747SOL    HW110138   4.304   8.001  11.854
 2747SOL    HW210139   4.222   8.112  11.917
 2748SOL     OW10140   3.314   6.584   4.359
 2748SOL    HW110141   3.363   6.623   4.432
 2748SOL    HW210142   3.276   6.659   4.313
 2749SOL     OW10143   7.786  14.276   6.242
 2749SOL    HW110144   7.848  14.349   6.235
 2749SOL    HW210145   7.701  14.316   6.229
 2750SOL     OW10146  11.690   5.748   2.867
 2750SOL    HW110147  11.640   5.810   2.920
 2750SOL    HW210148  11.702   5.793   2.783
 2751SOL     OW10149  14.691   5.124   1.994
 2751SOL    HW110150  14.732   5.204   2.026
 2751SOL    HW210151  14.600   5.132   2.022
 2752SOL     OW10152   7.797   3.350   7.918
 2752SOL    HW110153   7.833   3.280   7.972
 2752SOL    HW210154   7.864   3.418   7.919
 2753SOL     OW10155  14.849   7.847   6.961
 2753SOL    HW110156  14.794   7.768   6.970
 2753SOL    HW210157  14.813   7.908   7.025
 2754SOL     OW10158  12.545  13.961   9.456
 2754SOL    HW110159  12.513  13.932   9.541
 2754SOL    HW210160  12.615  14.022   9.476
 2755SOL     OW10161   5.346  14.685   3.179
 2755SOL    HW110162   5.339  14.776   3.149
 2755SOL    HW210163   5.366  14.635   3.101
 2756SOL     OW10164  11.524   2.631   2.167
 2756SOL    HW110165  11.612   2.656   2.195
 2756SOL    HW210166  11.469   2.707   2.189
 2757SOL     OW10167   1.426   4.367  14.606
 2757SOL    HW110168   1.393   4.408  14.686
 2757SOL    HW210169   1.348   4.344  14.557
 2758SOL     OW10170   2.156  11.567   2.896
 2758SOL    HW110171   2.191  11.582   2.984
 2758SOL    HW210172   2.191  11.640   2.844
 2759SOL     OW10173   1.477  12.218   8.586
 2759SOL    HW110174   1.409  12.189   8.647
 2759SOL    HW210175   1.542  12.260   8.642
 2760SOL     OW10176   9.553   5.353  10.960
 2760SOL    HW110177   9.585   5.353  10.870
 2760SOL    HW210178   9.608   5.290  11.006
 2761SOL     OW10179   7.902  11.216   3.254
 2761SOL    HW110180   7.889  11.152   3.184
 2761SOL    HW210181   7.825  11.273   3.250
 2762SOL     OW10182   1.466  11.192   2.991
 2762SOL    HW110183   1.459  11.133   3.066
 2762SOL    HW210184   1.554  11.176   2.956
 2763SOL     OW10185  14.503   5.555   5.747
 2763SOL    HW110186  14.596   5.565   5.767
 2763SOL    HW210187  14.476   5.479   5.798
 2764SOL     OW10188  13.985  11.522  11.617
 2764SOL    HW110189  13.923  11.473  11.563
 2764SOL    HW210190  14.058  11.540  11.558
 2765SOL     OW10191   9.699  14.771  12.895
 2765SOL    HW110192   9.612  14.745  12.865
 2765SOL    HW210193   9.747  14.790  12.815
 2766SOL     OW10194   0.394   3.311  14.129
 2766SOL    HW110195   0.433   3.389  14.089
 2766SOL    HW210196   0.438   3.238  14.087
 2767SOL     OW10197  14.362  10.000   7.991
 2767SOL    HW110198  14.421   9.974   7.921
 2767SOL    HW210199  14.358  10.095   7.986
 2768SOL     OW10200   2.244   3.443  14.235
 2768SOL    HW110201   2.328   3.421  14.276
 2768SOL    HW210202   2.184   3.454  14.308
 2769SOL     OW10203  12.167   5.177   4.218
 2769SOL    HW110204  12.230   5.245   4.242
 2769SOL    HW210205  12.214   5.120   4.158
 2770SOL     OW10206  13.383  14.489  10.782
 2770SOL    HW110207  13.380  14.404  10.737
 2770SOL    HW210208  13.300  14.531  10.758
 2771SOL     OW10209   6.080  10.356   1.963
 2771SOL    HW110210   6.156  10.321   2.010
 2771SOL    HW210211   6.010  10.355   2.029
 2772SOL     OW10212  11.796   5.525   2.016
 2772SOL    HW110213  11.883   5.508   2.051
 2772SOL    HW210214  11.745   5.552   2.093
 2773SOL     OW10215   3.219   8.520   6.781
 2773SOL    HW110216   3.307   8.485   6.765
 2773SOL    HW210217   3.205   8.508   6.875
 2774SOL     OW10218   7.115   8.672   9.090
 2774SOL    HW110219   7.206   8.661   9.063
 2774SOL    HW210220   7.098   8.600   9.150
 2775SOL     OW10221  12.077  10.502   5.599
 2775SOL    HW110222  12.062  10.591   5.569
 2775SOL    HW210223  11.995  10.476   5.640
 2776SOL     OW10224   2.229  10.772  10.464
 2776SOL    HW110225   2.323  10.765  10.483
 2776SOL    HW210226   2.208  10.690  10.418
 2777SOL     OW10227   7.141  11.183  12.199
 2777SOL    HW110228   7.175  11.195  12.287
 2777SOL    HW210229   7.192  11.243  12.144
 2778SOL     OW10230  13.326  10.859   3.416
 2778SOL    HW110231  13.333  10.833   3.324
 2778SOL    HW210232  13.279  10.786   3.457
 2779SOL     OW10233  12.220   5.535   2.200
 2779SOL    HW110234  12.154   5.466   2.190
 2779SOL    HW210235  12.279   5.521   2.126
 2780SOL     OW10236   0.013  13.187  11.862
 2780SOL    HW110237  14.875  13.266  11.815
 2780SOL    HW210238   0.087  13.214  11.917
 2781SOL     OW10239   7.823  11.081  10.123
 2781SOL    HW110240   7.877  11.142  10.172
 2781SOL    HW210241   7.784  11.134  10.053
 2782SOL     OW10242   7.768   4.410   9.679
 2782SOL    HW110243   7.690   4.425   9.626
 2782SOL    HW210244   7.828   4.365   9.620
 2783SOL     OW10245   3.389   1.678  11.276
 2783SOL    HW110246   3.373   1.754  11.332
 2783SOL    HW210247   3.377   1.710  11.187
 2784SOL     OW10248   0.908  11.253   6.443
 2784SOL    HW110249   0.871  11.199   6.512
 2784SOL    HW210250   0.840  11.317   6.423
 2785SOL     OW10251   5.849   5.224   2.530
 2785SOL    HW110252   5.823   5.190   2.615
 2785SOL    HW210253   5.945   5.231   2.536
 2786SOL     OW10254  14.052   2.122   9.941
 2786SOL    HW110255  13.997   2.167  10.005
 2786SOL    HW210256  14.053   2.031   9.969
 2787SOL     OW10257   5.186   5.740  12.592
 2787SOL    HW110258   5.120   5.796  12.634
 2787SOL    HW210259   5.228   5.798  12.529
 2788SOL     OW10260   0.019   2.744   2.706
 2788SOL    HW110261  14.838   2.745   2.772
 2788SOL    HW210262  14.860   2.741   2.622
 2789SOL     OW10263  14.627   8.451   6.933
 2789SOL    HW110264  14.670   8.431   6.850
 2789SOL    HW210265  14.637   8.372   6.985
 2790SOL     OW10266   5.193   7.985   0.571
 2790SOL    HW110267   5.199   7.980   0.475
 2790SOL    HW210268   5.139   7.909   0.595
 2791SOL     OW10269  10.367   7.023  14.035
 2791SOL    HW110270  10.286   7.003  14.080
 2791SOL    HW210271  10.418   7.073  14.099
 2792SOL     OW10272   9.076   4.784   3.137
 2792SOL    HW110273   9.026   4.855   3.099
 2792SOL    HW210274   9.103   4.730   3.062
 2793SOL     OW10275   9.662   3.694   0.770
 2793SOL    HW110276   9.649   3.647   0.687
 2793SOL    HW210277   9.585   3.750   0.777
 2794SOL     OW10278  12.637   2.982   3.549
 2794SOL    HW110279  12.653   2.950   3.638
 2794SOL    HW210280  12.660   2.908   3.493
 2795SOL     OW10281  14.699  10.306  13.288
 2795SOL    HW110282  14.787  10.343  13.280
 2795SOL    HW210283  14.651  10.370  13.342
 2796SOL     OW10284  12.320  10.901   3.416
 2796SOL    HW110285  12.305  10.807   3.403
 2796SOL    HW210286  12.252  10.943   3.363
 2797SOL     OW10287  10.761   5.570   8.130
 2797SOL    HW110288  10.735   5.660   8.152
 2797SOL    HW210289  10.678   5.524   8.120
 2798SOL     OW10290   4.153  12.473   9.436
 2798SOL    HW110291   4.070  12.483   9.390
 2798SOL    HW210292   4.165  12.378   9.442
 2799SOL     OW10293   2.771   3.432   8.865
 2799SOL    HW110294   2.816   3.498   8.812
 2799SOL    HW210295   2.840   3.370   8.889
 2800SOL     OW10296   5.065   2.859  14.657
 2800SOL    HW110297   5.147   2.842  14.704
 2800SOL    HW210298   5.021   2.774  14.654
 2801SOL     OW10299  11.134   0.899  11.491
 2801SOL    HW110300  11.167   0.987  11.473
 2801SOL    HW210301  11.061   0.888  11.430
 2802SOL     OW10302  14.887   0.242   1.392
 2802SOL    HW110303  14.841   0.245   1.308
 2802SOL    HW210304  14.820   0.217   1.455
 2803SOL     OW10305   1.714  14.482   8.397
 2803SOL    HW110306   1.707  14.562   8.346
 2803SOL    HW210307   1.748  14.511   8.482
 2804SOL     OW10308   9.742  14.800  11.638
 2804SOL    HW110309   9.679  14.805  11.566
 2804SOL    HW210310   9.702  14.739  11.700
 2805SOL     OW10311   6.797   0.400   2.343
 2805SOL    HW110312   6.807   0.433   2.432
 2805SOL    HW210313   6.857   0.325   2.339
 2806SOL     OW10314   9.143   5.390   6.398
 2806SOL    HW110315   9.148   5.381   6.303
 2806SOL    HW210316   9.162   5.302   6.431
 2807SOL     OW10317  11.654   4.313   4.606
 2807SOL    HW110318  11.619   4.401   4.618
 2807SOL    HW210319  11.579   4.260   4.580
 2808SOL     OW10320  11.217  13.289   8.654
 2808SOL    HW110321  11.279  13.216   8.655
 2808SOL    HW210322  11.268  13.364   8.624
 2809SOL     OW10323   0.329   8.784   7.974
 2809SOL    HW110324   0.356   8.792   8.065
 2809SOL    HW210325   0.354   8.868   7.934
 2810SOL     OW10326  13.056   6.101   5.179
 2810SOL    HW110327  13.042   6.077   5.087
 2810SOL    HW210328  13.136   6.055   5.204
 2811SOL     OW10329  14.590   8.147   3.850
 2811SOL    HW110330  14.639   8.196   3.916
 2811SOL    HW210331  14.648   8.146   3.774
 2812SOL     OW10332   6.774   8.403   5.126
 2812SOL    HW110333   6.843   8.338   5.131
 2812SOL    HW210334   6.787   8.458   5.204
 2813SOL     OW10335  10.765   6.855   6.738
 2813SOL    HW110336  10.858   6.853   6.717
 2813SOL    HW210337  10.763   6.876   6.832
 2814SOL     OW10338   7.031   9.442  13.122
 2814SOL    HW110339   7.039   9.518  13.180
 2814SOL    HW210340   7.117   9.400  13.125
 2815SOL     OW10341   1.775   1.266  13.079
 2815SOL    HW110342   1.819   1.346  13.051
 2815SOL    HW210343   1.798   1.201  13.012
 2816SOL     OW10344   5.667  10.330  11.503
 2816SOL    HW110345   5.572  10.335  11.516
 2816SOL    HW210346   5.702  10.399  11.559
 2817SOL     OW10347   4.458  10.173  10.333
 2817SOL    HW110348   4.392  10.179  10.264
 2817SOL    HW210349   4.540  10.194  10.290
 2818SOL     OW10350  10.825  12.041   6.557
 2818SOL    HW110351  10.759  12.101   6.521
 2818SOL    HW210352  10.843  12.075   6.645
 2819SOL     OW10353  10.800  10.909   9.256
 2819SOL    HW110354  10.880  10.888   9.208
 2819SOL    HW210355  10.757  10.977   9.204
 2820SOL     OW10356  10.342   3.985   2.970
 2820SOL    HW110357  10.302   4.021   2.891
 2820SOL    HW210358  10.329   3.890   2.962
 2821SOL     OW10359   2.678  11.644  10.741
 2821SOL    HW110360   2.725  11.616  10.663
 2821SOL    HW210361   2.676  11.739  10.735
 2822SOL     OW10362   1.039   8.991  11.945
 2822SOL    HW110363   1.077   8.907  11.972
 2822SOL    HW210364   1.100   9.024  11.878
 2823SOL     OW10365   2.433   4.030  14.053
 2823SOL    HW110366   2.498   4.100  14.054
 2823SOL    HW210367   2.484   3.949  14.054
 2824SOL     OW10368  10.591   1.417   3.574
 2824SOL    HW110369  10.567   1.480   3.506
 2824SOL    HW210370  10.576   1.332   3.534
 2825SOL     OW10371   4.482   3.364  12.018
 2825SOL    HW110372   4.461   3.398  12.104
 2825SOL    HW210373   4.459   3.434  11.957
 2826SOL     OW10374   8.421   1.695   6.197
 2826SOL    HW110375   8.501   1.708   6.146
 2826SOL    HW210376   8.369   1.773   6.181
 2827SOL     OW10377   4.168  10.560   7.765
 2827SOL    HW110378   4.159  10.621   7.691
 2827SOL    HW210379   4.254  10.578   7.801
 2828SOL     OW10380   7.263  14.578  10.513
 2828SOL    HW110381   7.274  14.541  10.425
 2828SOL    HW210382   7.326  14.531  10.566
 2829SOL     OW10383   5.069  14.372  11.043
 2829SOL    HW110384   5.149  14.363  10.992
 2829SOL    HW210385   5.099  14.387  11.133
 2830SOL     OW10386   5.516   6.844   8.125
 2830SOL    HW110387   5.541   6.754   8.104
 2830SOL    HW210388   5.447   6.865   8.062
 2831SOL     OW10389  11.193   0.500   5.037
 2831SOL    HW110390  11.180   0.482   5.130
 2831SOL    HW210391  11.252   0.431   5.007
 2832SOL     OW10392   2.487   4.720   3.515
 2832SOL    HW110393   2.467   4.657   3.583
 2832SOL    HW210394   2.412   4.716   3.456
 2833SOL     OW10395   5.042  10.132   0.220
 2833SOL    HW110396   5.081  10.110   0.305
 2833SOL    HW210397   5.005  10.050   0.188
 2834SOL     OW10398   9.135   8.754  13.983
 2834SOL    HW110399   9.157   8.681  13.924
 2834SOL    HW210400   9.061   8.797  13.940
 2835SOL     OW10401  11.221   8.481   6.374
 2835SOL    HW110402  11.165   8.558   6.387
 2835SOL    HW210403  11.210   8.430   6.453
 2836SOL     OW10404   5.204   9.631  10.801
 2836SOL    HW110405   5.165   9.586  10.727
 2836SOL    HW210406   5.223   9.562  10.865
 2837SOL     OW10407  13.049   0.237   1.268
 2837SOL    HW110408  13.034   0.317   1.219
 2837SOL    HW210409  13.122   0.194   1.222
 2838SOL     OW10410  11.645  14.294   2.602
 2838SOL    HW110411  11.722  14.246   2.633
 2838SOL    HW210412  11.670  14.324   2.514
 2839SOL     OW10413   1.991   4.901  13.331
 2839SOL    HW110414   2.034   4.854  13.259
 2839SOL    HW210415   2.064   4.937  13.382
 2840SOL     OW10416   4.668  12.484   5.711
 2840SOL    HW110417   4.581  12.501   5.676
 2840SOL    HW210418   4.729  12.514   5.643
 2841SOL     OW10419  14.013   2.088   6.981
 2841SOL    HW110420  14.042   2.090   6.890
 2841SOL    HW210421  14.046   2.005   7.015
 2842SOL     OW10422   6.192  11.395   1.787
 2842SOL    HW110423   6.097  11.391   1.790
 2842SOL    HW210424   6.212  11.448   1.709
 2843SOL     OW10425   6.941  14.317  14.883
 2843SOL    HW110426   6.902  14.381  14.824
 2843SOL    HW210427   7.029  14.302  14.847
 2844SOL     OW10428  13.717   9.019   1.358
 2844SOL    HW110429  13.730   9.062   1.443
 2844SOL    HW210430  13.626   8.989   1.361
 2845SOL     OW10431  11.659   3.453   4.009
 2845SOL    HW110432  11.737   3.492   4.049
 2845SOL    HW210433  11.688   3.367   3.978
 2846SOL     OW10434  11.494   6.860   6.075
 2846SOL    HW110435  11.542   6.779   6.059
 2846SOL    HW210436  11.541   6.927   6.025
 2847SOL     OW10437   2.681  14.063   5.358
 2847SOL    HW110438   2.682  14.032   5.268
 2847SOL    HW210439   2.727  13.996   5.408
 2848SOL     OW10440   9.369   8.162   6.657
 2848SOL    HW110441   9.400   8.250   6.677
 2848SOL    HW210442   9.444   8.117   6.619
 2849SOL     OW10443  12.025   4.365  13.958
 2849SOL    HW110444  12.005   4.437  13.898
 2849SOL    HW210445  11.971   4.382  14.035
 2850SOL     OW10446   8.748   3.081   4.178
 2850SOL    HW110447   8.663   3.036   4.187
 2850SOL    HW210448   8.729   3.172   4.199
 2851SOL     OW10449  10.991  13.001  13.163
 2851SOL    HW110450  10.980  12.910  13.135
 2851SOL    HW210451  10.939  13.051  13.100
 2852SOL     OW10452  12.735  13.342   3.307
 2852SOL    HW110453  12.805  13.394   3.346
 2852SOL    HW210454  12.655  13.390   3.327
 2853SOL     OW10455   9.660   4.242   8.931
 2853SOL    HW110456   9.657   4.320   8.985
 2853SOL    HW210457   9.568   4.216   8.922
 2854SOL     OW10458   6.666   8.011   1.475
 2854SOL    HW110459   6.614   8.038   1.400
 2854SOL    HW210460   6.659   8.084   1.537
 2855SOL     OW10461  13.078   2.921   5.104
 2855SOL    HW110462  13.119   3.000   5.069
 2855SOL    HW210463  13.140   2.851   5.085
 2856SOL     OW10464  13.405  12.648   2.408
 2856SOL    HW110465  13.315  12.616   2.400
 2856SOL    HW210466  13.454  12.573   2.440
 2857SOL     OW10467   5.975   6.538  11.965
 2857SOL    HW110468   5.995   6.467  11.904
 2857SOL    HW210469   6.001   6.504  12.051
 2858SOL     OW10470   5.026   2.269   2.522
 2858SOL    HW110471   4.995   2.197   2.578
 2858SOL    HW210472   4.994   2.247   2.435
 2859SOL     OW10473   6.956   8.015   4.712
 2859SOL    HW110474   6.994   7.972   4.635
 2859SOL    HW210475   7.029   8.056   4.756
 2860SOL     OW10476   7.854  12.115  13.127
 2860SOL    HW110477   7.879  12.089  13.216
 2860SOL    HW210478   7.801  12.042  13.095
 2861SOL     OW10479   5.904  11.318   1.295
 2861SOL    HW110480   5.926  11.282   1.381
 2861SOL    HW210481   5.901  11.242   1.237
 2862SOL     OW10482  10.121  12.630   3.394
 2862SOL    HW110483  10.028  12.647   3.414
 2862SOL    HW210484  10.168  12.699   3.441
 2863SOL     OW10485  12.085  12.801   6.014
 2863SOL    HW110486  12.067  12.868   5.948
 2863SOL    HW210487  12.137  12.735   5.967
 2864SOL     OW10488  13.289   1.383  10.125
 2864SOL    HW110489  13.321   1.440  10.055
 2864SOL    HW210490  13.215   1.431  10.163
 2865SOL     OW10491  14.488   0.249   3.288
 2865SOL    HW110492  14.476   0.258   3.383
 2865SOL    HW210493  14.556   0.182   3.278
 2866SOL     OW10494   0.382   3.887   7.970
 2866SOL    HW110495   0.334   3.956   7.923
 2866SOL    HW210496   0.393   3.922   8.058
 2867SOL     OW10497   6.322   4.867   7.464
 2867SOL    HW110498   6.413   4.893   7.472
 2867SOL    HW210499   6.274   4.929   7.520
 2868SOL     OW10500   0.938  13.056   9.033
 2868SOL    HW110501   0.897  12.969   9.038
 2868SOL    HW210502   0.940  13.076   8.940
 2869SOL     OW10503  11.568   8.966   3.668
 2869SOL    HW110504  11.643   8.951   3.610
 2869SOL    HW210505  11.598   9.032   3.730
 2870SOL     OW10506   9.436   4.585   1.041
 2870SOL    HW110507   9.399   4.513   1.092
 2870SOL    HW210508   9.368   4.606   0.977
 2871SOL     OW10509   2.737   9.267   7.667
 2871SOL    HW110510   2.776   9.232   7.747
 2871SOL    HW210511   2.804   9.253   7.599
 2872SOL     OW10512  12.451  12.446   6.963
 2872SOL    HW110513  12.530  12.450   7.017
 2872SOL    HW210514  12.450  12.356   6.930
 2873SOL     OW10515   3.457   0.606   6.198
 2873SOL    HW110516   3.488   0.540   6.135
 2873SOL    HW210517   3.518   0.679   6.188
 2874SOL     OW10518  10.213   4.845   3.029
 2874SOL    HW110519  10.206   4.891   3.113
 2874SOL    HW210520  10.193   4.912   2.964
 2875SOL     OW10521  12.347   5.052   9.772
 2875SOL    HW110522  12.390   4.991   9.711
 2875SOL    HW210523  12.403   5.053   9.849
 2876SOL     OW10524   7.282   9.497   8.805
 2876SOL    HW110525   7.312   9.563   8.742
 2876SOL    HW210526   7.335   9.420   8.785
 2877SOL     OW10527   1.378   0.711  12.044
 2877SOL    HW110528   1.387   0.616  12.048
 2877SOL    HW210529   1.362   0.729  11.951
 2878SOL     OW10530  13.966   3.916   6.222
 2878SOL    HW110531  13.943   4.005   6.198
 2878SOL    HW210532  14.033   3.891   6.158
 2879SOL     OW10533   8.329   7.699   3.626
 2879SOL    HW110534   8.286   7.782   3.646
 2879SOL    HW210535   8.258   7.640   3.600
 2880SOL     OW10536   8.992  10.152   5.218
 2880SOL    HW110537   9.046  10.211   5.271
 2880SOL    HW210538   9.000  10.067   5.261
 2881SOL     OW10539   7.399   6.063  12.193
 2881SOL    HW110540   7.426   6.087  12.105
 2881SOL    HW210541   7.413   5.969  12.198
 2882SOL     OW10542   8.150   0.927   1.962
 2882SOL    HW110543   8.139   0.958   1.873
 2882SOL    HW210544   8.089   0.854   1.971
 2883SOL     OW10545   7.847  11.141   6.978
 2883SOL    HW110546   7.779  11.116   7.040
 2883SOL    HW210547   7.908  11.194   7.029
 2884SOL     OW10548   1.272   6.103   1.214
 2884SOL    HW110549   1.300   6.107   1.306
 2884SOL    HW210550   1.271   6.010   1.193
 2885SOL     OW10551   6.796  14.307   1.333
 2885SOL    HW110552   6.731  14.356   1.284
 2885SOL    HW210553   6.806  14.224   1.286
 2886SOL     OW10554  13.408  12.267   0.563
 2886SOL    HW110555  13.406  12.184   0.515
 2886SOL    HW210556  13.336  12.318   0.525
 2887SOL     OW10557   8.166   5.111   1.706
 2887SOL    HW110558   8.221   5.061   1.766
 2887SOL    HW210559   8.227   5.158   1.650
 2888SOL     OW10560  12.368  12.218  14.877
 2888SOL    HW110561  12.376  12.204   0.084
 2888SOL    HW210562  12.384  12.132  14.838
 2889SOL     OW10563   9.045   9.459   2.249
 2889SOL    HW110564   8.986   9.393   2.285
 2889SOL    HW210565   9.042   9.531   2.312
 2890SOL     OW10566   1.682   7.065   4.549
 2890SOL    HW110567   1.729   7.116   4.482
 2890SOL    HW210568   1.610   7.122   4.576
 2891SOL     OW10569   3.464  14.040   4.282
 2891SOL    HW110570   3.546  14.079   4.315
 2891SOL    HW210571   3.475  13.947   4.299
 2892SOL     OW10572  11.876   1.546   6.309
 2892SOL    HW110573  11.814   1.616   6.290
 2892SOL    HW210574  11.851   1.514   6.396
 2893SOL     OW10575  12.197  12.969  11.416
 2893SOL    HW110576  12.182  13.037  11.351
 2893SOL    HW210577  12.249  12.903  11.370
 2894SOL     OW10578  11.053   9.333   6.862
 2894SOL    HW110579  11.081   9.279   6.936
 2894SOL    HW210580  11.074   9.282   6.784
 2895SOL     OW10581   1.927   6.994   4.711
 2895SOL    HW110582   1.972   7.057   4.655
 2895SOL    HW210583   1.837   6.990   4.677
 2896SOL     OW10584  11.032   4.581   5.490
 2896SOL    HW110585  11.037   4.574   5.585
 2896SOL    HW210586  11.039   4.490   5.459
 2897SOL     OW10587   6.643   8.867   7.518
 2897SOL    HW110588   6.594   8.788   7.494
 2897SOL    HW210589   6.664   8.908   7.434
 2898SOL     OW10590   1.462   5.152   2.345
 2898SOL    HW110591   1.389   5.158   2.406
 2898SOL    HW210592   1.538   5.181   2.395
 2899SOL     OW10593   2.861  12.447   2.389
 2899SOL    HW110594   2.880  12.386   2.317
 2899SOL    HW210595   2.894  12.531   2.358
 2900SOL     OW10596  14.708   7.317  11.011
 2900SOL    HW110597  14.796   7.312  10.972
 2900SOL    HW210598  14.724   7.340  11.103
 2901SOL     OW10599  13.240   9.164  14.298
 2901SOL    HW110600  13.231   9.257  14.316
 2901SOL    HW210601  13.328   9.155  14.259
 2902SOL     OW10602   7.109   5.229   8.164
 2902SOL    HW110603   7.031   5.176   8.185
 2902SOL    HW210604   7.183   5.170   8.180
 2903SOL     OW10605   9.322   7.098  10.387
 2903SOL    HW110606   9.279   7.013  10.390
 2903SOL    HW210607   9.339   7.119  10.479
 2904SOL     OW10608   9.835   6.947   4.749
 2904SOL    HW110609   9.767   6.906   4.695
 2904SOL    HW210610   9.846   6.888   4.823
 2905SOL     OW10611   1.730  11.774   7.439
 2905SOL    HW110612   1.669  11.701   7.426
 2905SOL    HW210613   1.816  11.736   7.426
 2906SOL     OW10614   9.540   1.131   8.593
 2906SOL    HW110615   9.485   1.088   8.659
 2906SOL    HW210616   9.479   1.183   8.540
 2907SOL     OW10617   5.256   0.359   2.384
 2907SOL    HW110618   5.285   0.315   2.464
 2907SOL    HW210619   5.206   0.293   2.337
 2908SOL     OW10620   5.492   1.110   9.908
 2908SOL    HW110621   5.416   1.101   9.851
 2908SOL    HW210622   5.470   1.062   9.987
 2909SOL     OW10623  11.719   1.164   9.369
 2909SOL    HW110624  11.660   1.171   9.444
 2909SOL    HW210625  11.716   1.251   9.328
 2910SOL     OW10626   5.016  13.149   7.900
 2910SOL    HW110627   5.084  13.107   7.953
 2910SOL    HW210628   4.959  13.193   7.963
 2911SOL     OW10629   8.392  12.535   9.721
 2911SOL    HW110630   8.336  12.461   9.745
 2911SOL    HW210631   8.383  12.597   9.793
 2912SOL     OW10632   4.764  10.892  14.521
 2912SOL    HW110633   4.774  10.881  14.616
 2912SOL    HW210634   4.736  10.806  14.490
 2913SOL     OW10635  11.837  11.215   9.022
 2913SOL    HW110636  11.778  11.218   8.947
 2913SOL    HW210637  11.924  11.225   8.984
 2914SOL     OW10638  14.162   9.161  12.064
 2914SOL    HW110639  14.212   9.240  12.085
 2914SOL    HW210640  14.108   9.186  11.989
 2915SOL     OW10641   0.663   7.866   3.319
 2915SOL    HW110642   0.582   7.913   3.336
 2915SOL    HW210643   0.708   7.862   3.403
 2916SOL     OW10644  12.674   3.295   6.917
 2916SOL    HW110645  12.723   3.281   6.836
 2916SOL    HW210646  12.740   3.297   6.985
 2917SOL     OW10647   0.986   2.358   6.415
 2917SOL    HW110648   1.063   2.303   6.429
 2917SOL    HW210649   1.014   2.445   6.441
 2918SOL     OW10650  10.206   0.245   3.479
 2918SOL    HW110651  10.164   0.325   3.446
 2918SOL    HW210652  10.195   0.250   3.574
 2919SOL     OW10653   5.744   3.795   0.283
 2919SOL    HW110654   5.671   3.783   0.343
 2919SOL    HW210655   5.760   3.889   0.283
 2920SOL     OW10656   6.128   7.136   2.752
 2920SOL    HW110657   6.049   7.183   2.724
 2920SOL    HW210658   6.102   7.044   2.752
 2921SOL     OW10659  12.373  11.584   3.083
 2921SOL    HW110660  12.296  11.558   3.033
 2921SOL    HW210661  12.426  11.505   3.088
 2922SOL     OW10662   8.866  13.889   2.519
 2922SOL    HW110663   8.872  13.859   2.610
 2922SOL    HW210664   8.947  13.859   2.478
 2923SOL     OW10665  12.160   4.255   6.536
 2923SOL    HW110666  12.070   4.256   6.567
 2923SOL    HW210667  12.177   4.344   6.506
 2924SOL     OW10668   1.702   8.756   6.355
 2924SOL    HW110669   1.710   8.826   6.290
 2924SOL    HW210670   1.764   8.779   6.423
 2925SOL     OW10671   8.216  10.680  13.729
 2925SOL    HW110672   8.155  10.678  13.656
 2925SOL    HW210673   8.263  10.762  13.720
 2926SOL     OW10674  14.602  12.259   4.669
 2926SOL    HW110675  14.656  12.330   4.702
 2926SOL    HW210676  14.568  12.217   4.748
 2927SOL     OW10677  10.016  10.479  13.967
 2927SOL    HW110678   9.979  10.449  14.050
 2927SOL    HW210679  10.077  10.409  13.942
 2928SOL     OW10680  13.312   0.562   0.229
 2928SOL    HW110681  13.259   0.607   0.294
 2928SOL    HW210682  13.318   0.472   0.261
 2929SOL     OW10683  12.861   0.465   7.135
 2929SOL    HW110684  12.835   0.373   7.133
 2929SOL    HW210685  12.931   0.472   7.070
 2930SOL     OW10686   5.101  12.823   3.752
 2930SOL    HW110687   5.016  12.786   3.727
 2930SOL    HW210688   5.089  12.918   3.745
 2931SOL     OW10689   6.819  10.927   9.930
 2931SOL    HW110690   6.825  10.993   9.998
 2931SOL    HW210691   6.894  10.869   9.946
 2932SOL     OW10692   7.117   0.628   5.595
 2932SOL    HW110693   7.161   0.616   5.511
 2932SOL    HW210694   7.041   0.682   5.574
 2933SOL     OW10695   2.908   7.257   1.435
 2933SOL    HW110696   2.843   7.187   1.428
 2933SOL    HW210697   2.857   7.335   1.457
 2934SOL     OW10698  12.127   7.031   0.898
 2934SOL    HW110699  12.198   7.094   0.888
 2934SOL    HW210700  12.117   6.992   0.812
 2935SOL     OW10701  14.331   9.573   2.979
 2935SOL    HW110702  14.366   9.493   3.017
 2935SOL    HW210703  14.397   9.639   2.996
 2936SOL     OW10704   7.402  14.632   5.583
 2936SOL    HW110705   7.420  14.726   5.576
 2936SOL    HW210706   7.488  14.593   5.596
 2937SOL     OW10707   3.008   4.030  13.794
 2937SOL    HW110708   3.026   4.123  13.780
 2937SOL    HW210709   2.998   4.021  13.888
 2938SOL     OW10710   0.984  12.957   8.512
 2938SOL    HW110711   1.010  12.994   8.428
 2938SOL    HW210712   1.067  12.938   8.556
 2939SOL     OW10713   5.106  14.868   5.416
 2939SOL    HW110714   5.043   0.037   5.460
 2939SOL    HW210715   5.130  14.803   5.481
 2940SOL     OW10716   9.671   7.816   3.131
 2940SOL    HW110717   9.661   7.904   3.166
 2940SOL    HW210718   9.611   7.762   3.184
 2941SOL     OW10719   7.962  14.490  10.124
 2941SOL    HW110720   7.880  14.497  10.173
 2941SOL    HW210721   8.010  14.420  10.168
 2942SOL     OW10722   8.137  12.009   7.817
 2942SOL    HW110723   8.209  11.958   7.779
 2942SOL    HW210724   8.060  11.954   7.803
 2943SOL     OW10725   7.331   5.847  11.553
 2943SOL    HW110726   7.365   5.839  11.642
 2943SOL    HW210727   7.280   5.767  11.539
 2944SOL     OW10728   1.125   9.550   3.741
 2944SOL    HW110729   1.102   9.617   3.677
 2944SOL    HW210730   1.159   9.477   3.689
 2945SOL     OW10731   1.404   4.832   1.569
 2945SOL    HW110732   1.330   4.806   1.514
 2945SOL    HW210733   1.380   4.805   1.657
 2946SOL     OW10734   3.226   8.548  14.187
 2946SOL    HW110735   3.150   8.510  14.143
 2946SOL    HW210736   3.259   8.478  14.243
 2947SOL     OW10737   8.344   9.801   6.859
 2947SOL    HW110738   8.268   9.778   6.911
 2947SOL    HW210739   8.379   9.717   6.828
 2948SOL     OW10740   0.592   4.284   0.393
 2948SOL    HW110741   0.639   4.224   0.452
 2948SOL    HW210742   0.650   4.360   0.384
 2949SOL     OW10743  12.102  12.456   8.156
 2949SOL    HW110744  12.134  12.374   8.118
 2949SOL    HW210745  12.015  12.467   8.119
 2950SOL     OW10746   2.039   8.176  13.569
 2950SOL    HW110747   2.090   8.097  13.589
 2950SOL    HW210748   1.954   8.161  13.610
 2951SOL     OW10749   4.184  10.823  14.298
 2951SOL    HW110750   4.137  10.740  14.304
 2951SOL    HW210751   4.228  10.832  14.383
 2952SOL     OW10752  13.999   9.801   7.785
 2952SOL    HW110753  14.016   9.854   7.706
 2952SOL    HW210754  14.022   9.859   7.858
 2953SOL     OW10755   0.345   3.504   9.333
 2953SOL    HW110756   0.407   3.556   9.283
 2953SOL    HW210757   0.280   3.475   9.269
 2954SOL     OW10758   1.590   1.142  14.726
 2954SOL    HW110759   1.576   1.048  14.735
 2954SOL    HW210760   1.558   1.178  14.809
 2955SOL     OW10761  14.039  11.069   3.463
 2955SOL    HW110762  14.117  11.015   3.474
 2955SOL    HW210763  14.024  11.109   3.549
 2956SOL     OW10764   0.169   2.760  12.696
 2956SOL    HW110765   0.165   2.835  12.637
 2956SOL    HW210766   0.080   2.724  12.695
 2957SOL     OW10767  14.709   9.090   4.748
 2957SOL    HW110768  14.762   9.167   4.730
 2957SOL    HW210769  14.628   9.124   4.786
 2958SOL     OW10770   2.483   4.308   3.375
 2958SOL    HW110771   2.468   4.383   3.317
 2958SOL    HW210772   2.426   4.325   3.450
 2959SOL     OW10773   9.689   0.268   4.462
 2959SOL    HW110774   9.675   0.178   4.491
 2959SOL    HW210775   9.785   0.276   4.454
 2960SOL     OW10776   3.224  13.799   5.369
 2960SOL    HW110777   3.152  13.855   5.340
 2960SOL    HW210778   3.236  13.822   5.461
 2961SOL     OW10779   0.068   8.213   4.939
 2961SOL    HW110780   0.082   8.308   4.939
 2961SOL    HW210781   0.041   8.192   5.028
 2962SOL     OW10782  13.095   0.076  11.851
 2962SOL    HW110783  13.118   0.081  11.944
 2962SOL    HW210784  13.168   0.119  11.806
 2963SOL     OW10785   3.575  13.068   4.386
 2963SOL    HW110786   3.671  13.064   4.386
 2963SOL    HW210787   3.555  13.159   4.407
 2964SOL     OW10788   2.826   8.271   0.454
 2964SOL    HW110789   2.786   8.202   0.401
 2964SOL    HW210790   2.768   8.346   0.444
 2965SOL     OW10791   2.339   4.960   2.742
 2965SOL    HW110792   2.395   4.882   2.741
 2965SOL    HW210793   2.250   4.926   2.736
 2966SOL     OW10794   4.940   7.043   5.316
 2966SOL    HW110795   4.897   6.971   5.270
 2966SOL    HW210796   4.870   7.081   5.370
 2967SOL     OW10797  10.983   6.343  14.159
 2967SOL    HW110798  10.958   6.430  14.189
 2967SOL    HW210799  10.946   6.284  14.224
 2968SOL     OW10800   2.144  14.591   2.106
 2968SOL    HW110801   2.131  14.649   2.181
 2968SOL    HW210802   2.184  14.512   2.142
 2969SOL     OW10803   8.290  14.835   7.640
 2969SOL    HW110804   8.375  14.874   7.622
 2969SOL    HW210805   8.274  14.852   7.733
 2970SOL     OW10806  14.179  12.418  14.161
 2970SOL    HW110807  14.114  12.374  14.106
 2970SOL    HW210808  14.218  12.484  14.104
 2971SOL     OW10809  13.903  12.939  13.273
 2971SOL    HW110810  13.964  12.998  13.228
 2971SOL    HW210811  13.839  12.997  13.314
 2972SOL     OW10812   5.701   5.238  12.099
 2972SOL    HW110813   5.702   5.325  12.058
 2972SOL    HW210814   5.617   5.235  12.146
 2973SOL     OW10815   3.383   7.337   1.817
 2973SOL    HW110816   3.459   7.351   1.873
 2973SOL    HW210817   3.336   7.421   1.819
 2974SOL     OW10818   6.136  14.442  10.384
 2974SOL    HW110819   6.229  14.450  10.365
 2974SOL    HW210820   6.093  14.486  10.311
 2975SOL     OW10821   2.739   5.713  11.471
 2975SOL    HW110822   2.792   5.645  11.430
 2975SOL    HW210823   2.782   5.731  11.554
 2976SOL     OW10824   6.536   7.532  13.660
 2976SOL    HW110825   6.515   7.624  13.680
 2976SOL    HW210826   6.627   7.522  13.687
 2977SOL     OW10827  10.335  13.723   7.673
 2977SOL    HW110828  10.393  13.653   7.643
 2977SOL    HW210829  10.385  13.803   7.657
 2978SOL     OW10830   0.093  13.404   1.634
 2978SOL    HW110831   0.013  13.456   1.628
 2978SOL    HW210832   0.066  13.325   1.681
 2979SOL     OW10833   4.437   2.640   0.417
 2979SOL    HW110834   4.388   2.562   0.443
 2979SOL    HW210835   4.392   2.713   0.460
 2980SOL     OW10836   5.032   1.764   2.143
 2980SOL    HW110837   5.032   1.705   2.218
 2980SOL    HW210838   5.080   1.841   2.172
 2981SOL     OW10839  13.211   1.096   2.767
 2981SOL    HW110840  13.261   1.108   2.848
 2981SOL    HW210841  13.276   1.071   2.702
 2982SOL     OW10842   6.155   1.692   5.181
 2982SOL    HW110843   6.080   1.652   5.138
 2982SOL    HW210844   6.118   1.758   5.239
 2983SOL     OW10845  11.674  11.809   0.966
 2983SOL    HW110846  11.650  11.901   0.970
 2983SOL    HW210847  11.612  11.771   0.903
 2984SOL     OW10848   3.925   3.916   8.161
 2984SOL    HW110849   3.871   3.848   8.121
 2984SOL    HW210850   3.918   3.990   8.100
 2985SOL     OW10851  13.788  14.628   4.339
 2985SOL    HW110852  13.853  14.589   4.398
 2985SOL    HW210853  13.721  14.665   4.397
 2986SOL     OW10854   0.712  14.262  11.583
 2986SOL    HW110855   0.730  14.278  11.491
 2986SOL    HW210856   0.773  14.193  11.608
 2987SOL     OW10857   7.275   9.608   6.453
 2987SOL    HW110858   7.362   9.569   6.443
 2987SOL    HW210859   7.220   9.535   6.483
 2988SOL     OW10860   2.387   0.256   5.345
 2988SOL    HW110861   2.331   0.242   5.422
 2988SOL    HW210862   2.425   0.170   5.328
 2989SOL     OW10863   8.969   3.112   8.375
 2989SOL    HW110864   8.995   3.132   8.464
 2989SOL    HW210865   8.875   3.133   8.372
 2990SOL     OW10866  11.327   4.381   9.910
 2990SOL    HW110867  11.271   4.340   9.976
 2990SOL    HW210868  11.402   4.321   9.902
 2991SOL     OW10869  14.843  14.799   2.306
 2991SOL    HW110870  14.835  14.705   2.320
 2991SOL    HW210871  14.814  14.812   2.215
 2992SOL     OW10872   4.081   6.208   1.157
 2992SOL    HW110873   4.158   6.193   1.102
 2992SOL    HW210874   4.103   6.286   1.208
 2993SOL     OW10875  11.021   9.387  12.378
 2993SOL    HW110876  11.061   9.420  12.298
 2993SOL    HW210877  11.002   9.466  12.430
 2994SOL     OW10878   8.238  12.424  12.468
 2994SOL    HW110879   8.188  12.367  12.410
 2994SOL    HW210880   8.312  12.371  12.497
 2995SOL     OW10881   8.404   7.975  11.663
 2995SOL    HW110882   8.492   7.972  11.624
 2995SOL    HW210883   8.350   7.920  11.607
 2996SOL     OW10884   4.830   4.156   0.095
 2996SOL    HW110885   4.874   4.078   0.128
 2996SOL    HW210886   4.866   4.169   0.007
 2997SOL     OW10887   8.219  13.816  10.674
 2997SOL    HW110888   8.179  13.901  10.661
 2997SOL    HW210889   8.287  13.811  10.606
 2998SOL     OW10890   4.334   5.394  10.874
 2998SOL    HW110891   4.324   5.299  10.867
 2998SOL    HW210892   4.312   5.414  10.965
 2999SOL     OW10893   5.227   7.469  12.110
 2999SOL    HW110894   5.262   7.381  12.115
 2999SOL    HW210895   5.141   7.464  12.152
 3000SOL     OW10896  12.693   3.591   1.281
 3000SOL    HW110897  12.656   3.647   1.213
 3000SOL    HW210898  12.767   3.547   1.238
 3001SOL     OW10899   0.075  10.835  10.175
 3001SOL    HW110900   0.035  10.822  10.261
 3001SOL    HW210901   0.003  10.864  10.120
 3002SOL     OW10902  14.154  11.151   8.121
 3002SOL    HW110903  14.132  11.083   8.057
 3002SOL    HW210904  14.240  11.128   8.154
 3003SOL     OW10905   8.578  13.962   8.180
 3003SOL    HW110906   8.601  13.882   8.227
 3003SOL    HW210907   8.633  13.960   8.102
 3004SOL     OW10908   1.685  10.444  12.131
 3004SOL    HW110909   1.757  10.430  12.193
 3004SOL    HW210910   1.640  10.360  12.127
 3005SOL     OW10911  11.126   2.174   5.410
 3005SOL    HW110912  11.162   2.089   5.382
 3005SOL    HW210913  11.166   2.237   5.351
 3006SOL     OW10914   6.400  11.958   1.164
 3006SOL    HW110915   6.343  12.015   1.214
 3006SOL    HW210916   6.349  11.878   1.149
 3007SOL     OW10917   0.690   0.179  12.198
 3007SOL    HW110918   0.749   0.104  12.200
 3007SOL    HW210919   0.736   0.245  12.147
 3008SOL     OW10920   3.347   6.368  14.669
 3008SOL    HW110921   3.346   6.289  14.723
 3008SOL    HW210922   3.258   6.402  14.675
 3009SOL     OW10923   1.433   7.125  13.618
 3009SOL    HW110924   1.522   7.147  13.591
 3009SOL    HW210925   1.377   7.180  13.563
 3010SOL     OW10926   6.409  13.527  12.673
 3010SOL    HW110927   6.446  13.532  12.762
 3010SOL    HW210928   6.485  13.535  12.616
 3011SOL     OW10929   1.392   5.507   9.626
 3011SOL    HW110930   1.448   5.444   9.670
 3011SOL    HW210931   1.312   5.458   9.606
 3012SOL     OW10932   7.299  14.062   0.939
 3012SOL    HW110933   7.208  14.081   0.915
 3012SOL    HW210934   7.324  13.988   0.884
 3013SOL     OW10935   0.200   5.738   4.548
 3013SOL    HW110936   0.183   5.832   4.555
 3013SOL    HW210937   0.118   5.697   4.577
 3014SOL     OW10938   3.530   7.056  10.919
 3014SOL    HW110939   3.543   7.063  10.824
 3014SOL    HW210940   3.568   6.971  10.941
 3015SOL     OW10941   7.764   2.282  10.878
 3015SOL    HW110942   7.686   2.226  10.871
 3015SOL    HW210943   7.762   2.336  10.799
 3016SOL     OW10944  12.051   6.483   0.379
 3016SOL    HW110945  12.022   6.418   0.444
 3016SOL    HW210946  12.024   6.446   0.295
 3017SOL     OW10947  14.447   0.095   9.357
 3017SOL    HW110948  14.427   0.164   9.420
 3017SOL    HW210949  14.415   0.015   9.399
 3018SOL     OW10950  12.937   5.548   7.327
 3018SOL    HW110951  12.987   5.497   7.263
 3018SOL    HW210952  12.958   5.508   7.412
 3019SOL     OW10953  10.870   2.459   8.829
 3019SOL    HW110954  10.796   2.519   8.842
 3019SOL    HW210955  10.876   2.409   8.911
 3020SOL     OW10956  12.445   1.992   2.562
 3020SOL    HW110957  12.358   1.954   2.575
 3020SOL    HW210958  12.500   1.947   2.626
 3021SOL     OW10959   1.049   8.455  11.657
 3021SOL    HW110960   1.014   8.506  11.730
 3021SOL    HW210961   1.046   8.365  11.687
 3022SOL     OW10962   6.185   5.569   5.790
 3022SOL    HW110963   6.160   5.476   5.786
 3022SOL    HW210964   6.191   5.596   5.698
 3023SOL     OW10965   7.972   1.839   5.883
 3023SOL    HW110966   8.002   1.900   5.815
 3023SOL    HW210967   7.961   1.756   5.837
 3024SOL     OW10968   5.687   1.181  12.563
 3024SOL    HW110969   5.768   1.152  12.605
 3024SOL    HW210970   5.635   1.101  12.552
 3025SOL     OW10971   1.765   2.939   6.445
 3025SOL    HW110972   1.703   2.879   6.487
 3025SOL    HW210973   1.724   2.961   6.361
 3026SOL     OW10974   7.580   0.417   6.670
 3026SOL    HW110975   7.509   0.353   6.665
 3026SOL    HW210976   7.658   0.366   6.647
 3027SOL     OW10977   9.397   5.669   2.608
 3027SOL    HW110978   9.397   5.675   2.513
 3027SOL    HW210979   9.440   5.585   2.627
 3028SOL     OW10980   9.680   3.313   8.831
 3028SOL    HW110981   9.636   3.291   8.913
 3028SOL    HW210982   9.677   3.409   8.827
 3029SOL     OW10983   8.676   5.633   2.573
 3029SOL    HW110984   8.692   5.715   2.620
 3029SOL    HW210985   8.687   5.566   2.640
 3030SOL     OW10986  14.754   3.441  10.580
 3030SOL    HW110987  14.764   3.528  10.541
 3030SOL    HW210988  14.838   3.398  10.567
 3031SOL     OW10989   5.244   0.544  13.901
 3031SOL    HW110990   5.173   0.483  13.921
 3031SOL    HW210991   5.208   0.599  13.830
 3032SOL     OW10992   8.299  11.302  12.214
 3032SOL    HW110993   8.363  11.246  12.259
 3032SOL    HW210994   8.215  11.277  12.251
 3033SOL     OW10995  11.171   6.621   0.045
 3033SOL    HW110996  11.212   6.658   0.123
 3033SOL    HW210997  11.165   6.527   0.064
 3034SOL     OW10998   2.314  12.937  13.433
 3034SOL    HW110999   2.367  12.877  13.380
 3034SOL    HW211000   2.337  13.024  13.400
 3035SOL     OW11001   0.586   5.949  11.949
 3035SOL    HW111002   0.600   6.027  12.003
 3035SOL    HW211003   0.596   5.980  11.859
 3036SOL     OW11004   9.105   8.247   7.616
 3036SOL    HW111005   9.037   8.180   7.614
 3036SOL    HW211006   9.186   8.199   7.634
 3037SOL     OW11007  11.674  12.301   7.616
 3037SOL    HW111008  11.676  12.232   7.682
 3037SOL    HW211009  11.747  12.358   7.639
 3038SOL     OW11010  14.002   7.636  13.932
 3038SOL    HW111011  13.925   7.629  13.875
 3038SOL    HW211012  14.076   7.613  13.876
 3039SOL     OW11013   7.375  10.635   4.913
 3039SOL    HW111014   7.306  10.569   4.908
 3039SOL    HW211015   7.451  10.594   4.871
 3040SOL     OW11016  11.202  10.678   7.010
 3040SOL    HW111017  11.135  10.735   6.972
 3040SOL    HW211018  11.284  10.707   6.968
 3041SOL     OW11019   8.144   9.410   8.097
 3041SOL    HW111020   8.195   9.351   8.042
 3041SOL    HW211021   8.153   9.496   8.057
 3042SOL     OW11022   9.706   6.814  10.637
 3042SOL    HW111023   9.687   6.781  10.725
 3042SOL    HW211024   9.749   6.741  10.592
 3043SOL     OW11025   6.974   2.663  11.818
 3043SOL    HW111026   7.032   2.618  11.756
 3043SOL    HW211027   6.906   2.703  11.763
 3044SOL     OW11028   8.575   2.279   7.604
 3044SOL    HW111029   8.604   2.206   7.549
 3044SOL    HW211030   8.651   2.299   7.659
 3045SOL     OW11031   6.959   5.220   2.902
 3045SOL    HW111032   6.970   5.136   2.947
 3045SOL    HW211033   6.962   5.199   2.809
 3046SOL     OW11034  13.680   8.264  14.375
 3046SOL    HW111035  13.634   8.198  14.325
 3046SOL    HW211036  13.773   8.251  14.353
 3047SOL     OW11037   9.493  13.779  10.710
 3047SOL    HW111038   9.578  13.771  10.754
 3047SOL    HW211039   9.454  13.691  10.717
 3048SOL     OW11040   0.023   1.233   9.890
 3048SOL    HW111041   0.043   1.244   9.797
 3048SOL    HW211042   0.047   1.317   9.930
 3049SOL     OW11043   8.331   1.917   5.464
 3049SOL    HW111044   8.330   1.833   5.417
 3049SOL    HW211045   8.383   1.975   5.408
 3050SOL     OW11046   8.758  13.252   2.449
 3050SOL    HW111047   8.752  13.163   2.414
 3050SOL    HW211048   8.673  13.291   2.430
 3051SOL     OW11049   5.254  12.198   9.800
 3051SOL    HW111050   5.285  12.286   9.819
 3051SOL    HW211051   5.333  12.146   9.792
 3052SOL     OW11052   2.301   5.667  12.337
 3052SOL    HW111053   2.265   5.651  12.425
 3052SOL    HW211054   2.224   5.664  12.279
 3053SOL     OW11055   2.724   3.421   2.091
 3053SOL    HW111056   2.722   3.326   2.082
 3053SOL    HW211057   2.632   3.448   2.088
 3054SOL     OW11058   7.887   9.737  12.905
 3054SOL    HW111059   7.898   9.656  12.956
 3054SOL    HW211060   7.961   9.792  12.932
 3055SOL     OW11061   5.924  13.716   4.538
 3055SOL    HW111062   5.926  13.700   4.632
 3055SOL    HW211063   5.928  13.628   4.499
 3056SOL     OW11064   6.637   8.420   2.350
 3056SOL    HW111065   6.558   8.381   2.389
 3056SOL    HW211066   6.709   8.387   2.404
 3057SOL     OW11067   5.551   2.457  11.003
 3057SOL    HW111068   5.609   2.424  11.072
 3057SOL    HW211069   5.596   2.535  10.969
 3058SOL     OW11070   0.324   6.492  13.389
 3058SOL    HW111071   0.340   6.397  13.391
 3058SOL    HW211072   0.407   6.531  13.414
 3059SOL     OW11073   0.473  10.003   4.474
 3059SOL    HW111074   0.468   9.909   4.456
 3059SOL    HW211075   0.523  10.039   4.400
 3060SOL     OW11076   4.224   3.382  13.132
 3060SOL    HW111077   4.282   3.458  13.132
 3060SOL    HW211078   4.140   3.416  13.104
 3061SOL     OW11079   8.865   6.754  12.916
 3061SOL    HW111080   8.932   6.726  12.978
 3061SOL    HW211081   8.782   6.742  12.963
 3062SOL     OW11082  14.424   3.522   0.461
 3062SOL    HW111083  14.439   3.433   0.494
 3062SOL    HW211084  14.365   3.510   0.387
 3063SOL     OW11085  10.575   4.366   3.624
 3063SOL    HW111086  10.601   4.430   3.558
 3063SOL    HW211087  10.514   4.414   3.681
 3064SOL     OW11088   3.941   2.195  12.274
 3064SOL    HW111089   4.027   2.178  12.236
 3064SOL    HW211090   3.922   2.286  12.251
 3065SOL     OW11091   3.110   2.320   4.853
 3065SOL    HW111092   3.062   2.380   4.796
 3065SOL    HW211093   3.193   2.306   4.808
 3066SOL     OW11094   5.460   3.862   7.301
 3066SOL    HW111095   5.444   3.955   7.314
 3066SOL    HW211096   5.550   3.849   7.328
 3067SOL     OW11097   8.377  10.498  14.477
 3067SOL    HW111098   8.416  10.557  14.412
 3067SOL    HW211099   8.293  10.538  14.499
 3068SOL     OW11100  13.158   5.384  13.401
 3068SOL    HW111101  13.111   5.301  13.412
 3068SOL    HW211102  13.096   5.450  13.431
 3069SOL     OW11103   7.177   0.267   0.124
 3069SOL    HW111104   7.178   0.336   0.191
 3069SOL    HW211105   7.188   0.186   0.173
 3070SOL     OW11106   1.464   0.157  10.662
 3070SOL    HW111107   1.473   0.243  10.622
 3070SOL    HW211108   1.552   0.135  10.692
 3071SOL     OW11109  14.610   0.954  13.666
 3071SOL    HW111110  14.545   0.897  13.708
 3071SOL    HW211111  14.683   0.895  13.644
 3072SOL     OW11112   9.357   8.150   6.286
 3072SOL    HW111113   9.309   8.068   6.280
 3072SOL    HW211114   9.344   8.179   6.377
 3073SOL     OW11115   2.955  12.979   3.169
 3073SOL    HW111116   2.926  12.938   3.088
 3073SOL    HW211117   2.948  13.073   3.153
 3074SOL     OW11118   1.495  12.341   2.525
 3074SOL    HW111119   1.422  12.298   2.481
 3074SOL    HW211120   1.457  12.381   2.603
 3075SOL     OW11121   1.452  10.355  10.345
 3075SOL    HW111122   1.474  10.373  10.436
 3075SOL    HW211123   1.463  10.439  10.300
 3076SOL     OW11124  13.526  11.899   3.378
 3076SOL    HW111125  13.564  11.986   3.387
 3076SOL    HW211126  13.524  11.883   3.283
 3077SOL     OW11127   8.664   1.922   7.212
 3077SOL    HW111128   8.628   1.903   7.125
 3077SOL    HW211129   8.645   1.843   7.263
 3078SOL     OW11130   7.436   8.793  14.539
 3078SOL    HW111131   7.399   8.878  14.563
 3078SOL    HW211132   7.423   8.788  14.444
 3079SOL     OW11133   3.592   8.263  14.512
 3079SOL    HW111134   3.647   8.341  14.500
 3079SOL    HW211135   3.563   8.269  14.603
 3080SOL     OW11136   1.077  12.732   9.450
 3080SOL    HW111137   1.004  12.729   9.389
 3080SOL    HW211138   1.135  12.799   9.414
 3081SOL     OW11139   6.802   1.956  12.336
 3081SOL    HW111140   6.802   1.875  12.284
 3081SOL    HW211141   6.770   2.023  12.276
 3082SOL     OW11142   4.054   2.048  11.569
 3082SOL    HW111143   4.024   2.122  11.623
 3082SOL    HW211144   4.027   1.970  11.618
 3083SOL     OW11145   6.089   0.640   7.556
 3083SOL    HW111146   6.044   0.587   7.490
 3083SOL    HW211147   6.165   0.676   7.511
 3084SOL     OW11148  11.113   9.620   3.340
 3084SOL    HW111149  11.078   9.703   3.374
 3084SOL    HW211150  11.150   9.577   3.416
 3085SOL     OW11151  11.579   4.456  14.477
 3085SOL    HW111152  11.506   4.397  14.495
 3085SOL    HW211153  11.656   4.412  14.512
 3086SOL     OW11154   3.780   4.051   9.291
 3086SOL    HW111155   3.870   4.057   9.256
 3086SOL    HW211156   3.792   4.043   9.385
 3087SOL     OW11157  14.780   2.056  10.233
 3087SOL    HW111158  14.807   2.111  10.307
 3087SOL    HW211159  14.859   2.044  10.181
 3088SOL     OW11160   5.879   4.931  12.667
 3088SOL    HW111161   5.824   4.919  12.745
 3088SOL    HW211162   5.824   4.980  12.606
 3089SOL     OW11163   0.669  10.648  12.368
 3089SOL    HW111164   0.677  10.655  12.463
 3089SOL    HW211165   0.749  10.689  12.334
 3090SOL     OW11166   4.628  11.587  10.545
 3090SOL    HW111167   4.681  11.599  10.466
 3090SOL    HW211168   4.578  11.668  10.554
 3091SOL     OW11169  14.664   3.404   9.198
 3091SOL    HW111170  14.709   3.425   9.280
 3091SOL    HW211171  14.727   3.428   9.130
 3092SOL     OW11172  10.795   3.985  13.615
 3092SOL    HW111173  10.822   3.946  13.531
 3092SOL    HW211174  10.859   4.054  13.631
 3093SOL     OW11175  13.571   0.805  12.035
 3093SOL    HW111176  13.567   0.714  12.005
 3093SOL    HW211177  13.503   0.811  12.102
 3094SOL     OW11178   8.120  13.255   3.083
 3094SOL    HW111179   8.093  13.172   3.122
 3094SOL    HW211180   8.175  13.296   3.149
 3095SOL     OW11181   7.922  13.462  12.145
 3095SOL    HW111182   7.913  13.469  12.050
 3095SOL    HW211183   7.990  13.525  12.168
 3096SOL     OW11184  13.140   4.450   9.137
 3096SOL    HW111185  13.227   4.417   9.115
 3096SOL    HW211186  13.112   4.398   9.212
 3097SOL     OW11187   8.508  12.522   2.250
 3097SOL    HW111188   8.490  12.479   2.334
 3097SOL    HW211189   8.427  12.512   2.200
 3098SOL     OW11190  11.035   3.095  14.285
 3098SOL    HW111191  10.948   3.131  14.268
 3098SOL    HW211192  11.062   3.059  14.200
 3099SOL     OW11193  11.090   6.277  11.977
 3099SOL    HW111194  11.180   6.303  12.000
 3099SOL    HW211195  11.045   6.269  12.061
 3100SOL     OW11196  13.917  12.198   1.252
 3100SOL    HW111197  13.956  12.184   1.338
 3100SOL    HW211198  13.891  12.111   1.223
 3101SOL     OW11199   5.058   5.944   1.549
 3101SOL    HW111200   5.104   5.860   1.542
 3101SOL    HW211201   5.003   5.934   1.627
 3102SOL     OW11202   3.693   8.127   3.723
 3102SOL    HW111203   3.743   8.208   3.729
 3102SOL    HW211204   3.760   8.058   3.720
 3103SOL     OW11205  12.132  11.566   4.898
 3103SOL    HW111206  12.092  11.549   4.983
 3103SOL    HW211207  12.101  11.653   4.874
 3104SOL     OW11208  11.531   6.809   1.573
 3104SOL    HW111209  11.524   6.903   1.588
 3104SOL    HW211210  11.495   6.769   1.653
 3105SOL     OW11211  13.569   3.740   1.463
 3105SOL    HW111212  13.596   3.773   1.377
 3105SOL    HW211213  13.476   3.762   1.469
 3106SOL     OW11214  10.829   6.186   7.809
 3106SOL    HW111215  10.752   6.133   7.829
 3106SOL    HW211216  10.897   6.123   7.787
 3107SOL     OW11217   1.032   3.352   0.340
 3107SOL    HW111218   1.015   3.295   0.415
 3107SOL    HW211219   0.955   3.342   0.284
 3108SOL     OW11220   9.451   7.628   1.499
 3108SOL    HW111221   9.538   7.637   1.458
 3108SOL    HW211222   9.390   7.655   1.431
 3109SOL     OW11223  10.176   5.124   7.341
 3109SOL    HW111224  10.189   5.214   7.311
 3109SOL    HW211225  10.262   5.083   7.329
 3110SOL     OW11226   3.425   0.507  14.532
 3110SOL    HW111227   3.512   0.483  14.561
 3110SOL    HW211228   3.402   0.442  14.466
 3111SOL     OW11229  13.376   9.332   5.209
 3111SOL    HW111230  13.365   9.382   5.290
 3111SOL    HW211231  13.441   9.382   5.159
 3112SOL     OW11232   2.937  13.062   4.340
 3112SOL    HW111233   2.928  13.087   4.432
 3112SOL    HW211234   2.864  13.003   4.323
 3113SOL     OW11235   9.482  13.384  12.371
 3113SOL    HW111236   9.564  13.408  12.329
 3113SOL    HW211237   9.449  13.466  12.408
 3114SOL     OW11238  13.743   4.046  11.190
 3114SOL    HW111239  13.722   4.031  11.098
 3114SOL    HW211240  13.838   4.047  11.193
 3115SOL     OW11241   0.783  13.871  13.675
 3115SOL    HW111242   0.852  13.864  13.608
 3115SOL    HW211243   0.757  13.963  13.672
 3116SOL     OW11244   5.057   8.036   9.906
 3116SOL    HW111245   5.051   8.065   9.997
 3116SOL    HW211246   5.045   7.941   9.910
 3117SOL     OW11247   4.452  11.339   9.474
 3117SOL    HW111248   4.375  11.332   9.417
 3117SOL    HW211249   4.443  11.267   9.536
 3118SOL     OW11250   0.108  13.341   5.566
 3118SOL    HW111251   0.101  13.433   5.538
 3118SOL    HW211252   0.023  13.321   5.604
 3119SOL     OW11253  10.308   1.804  14.842
 3119SOL    HW111254  10.325   1.795  14.748
 3119SOL    HW211255  10.214   1.822  14.847
 3120SOL     OW11256  11.479   2.567  13.866
 3120SOL    HW111257  11.563   2.581  13.824
 3120SOL    HW211258  11.415   2.603  13.804
 3121SOL     OW11259  14.702  10.899   3.729
 3121SOL    HW111260  14.762  10.828   3.751
 3121SOL    HW211261  14.756  10.977   3.726
 3122SOL     OW11262   4.412   9.494  13.553
 3122SOL    HW111263   4.323   9.499  13.587
 3122SOL    HW211264   4.438   9.586  13.541
 3123SOL     OW11265   8.544   3.334   1.957
 3123SOL    HW111266   8.524   3.356   1.866
 3123SOL    HW211267   8.514   3.244   1.967
 3124SOL     OW11268   6.381   7.231  10.290
 3124SOL    HW111269   6.464   7.184  10.297
 3124SOL    HW211270   6.354   7.219  10.199
 3125SOL     OW11271  13.691  12.894   0.575
 3125SOL    HW111272  13.681  12.799   0.575
 3125SOL    HW211273  13.626  12.924   0.511
 3126SOL     OW11274   9.912   0.006   1.135
 3126SOL    HW111275   9.935   0.037   1.222
 3126SOL    HW211276   9.989   0.023   1.082
 3127SOL     OW11277   8.968   9.080   1.236
 3127SOL    HW111278   8.917   9.150   1.278
 3127SOL    HW211279   9.034   9.126   1.185
 3128SOL     OW11280  11.300   4.049  11.665
 3128SOL    HW111281  11.364   4.000  11.614
 3128SOL    HW211282  11.280   3.992  11.739
 3129SOL     OW11283   1.021   7.960   2.175
 3129SOL    HW111284   1.037   7.919   2.090
 3129SOL    HW211285   1.097   7.935   2.228
 3130SOL     OW11286  13.044   9.862  10.619
 3130SOL    HW111287  13.091   9.926  10.672
 3130SOL    HW211288  12.952   9.888  10.624
 3131SOL     OW11289  11.038   8.992  14.836
 3131SOL    HW111290  11.002   9.049   0.016
 3131SOL    HW211291  11.016   8.904  14.865
 3132SOL     OW11292   1.963   3.323   5.252
 3132SOL    HW111293   2.056   3.349   5.252
 3132SOL    HW211294   1.964   3.230   5.230
 3133SOL     OW11295  12.133  13.576   1.712
 3133SOL    HW111296  12.195  13.603   1.780
 3133SOL    HW211297  12.119  13.483   1.728
 3134SOL     OW11298   6.031   5.243   9.606
 3134SOL    HW111299   6.091   5.202   9.668
 3134SOL    HW211300   5.944   5.229   9.644
 3135SOL     OW11301   7.762   3.514   4.837
 3135SOL    HW111302   7.819   3.563   4.897
 3135SOL    HW211303   7.819   3.493   4.763
 3136SOL     OW11304   4.538  12.883  11.137
 3136SOL    HW111305   4.528  12.936  11.216
 3136SOL    HW211306   4.632  12.875  11.125
 3137SOL     OW11307   2.092  11.771  14.247
 3137SOL    HW111308   2.108  11.739  14.336
 3137SOL    HW211309   2.008  11.732  14.223
 3138SOL     OW11310   6.349   0.310   4.713
 3138SOL    HW111311   6.265   0.336   4.751
 3138SOL    HW211312   6.394   0.263   4.783
 3139SOL     OW11313  10.349   3.148  14.495
 3139SOL    HW111314  10.444   3.150  14.506
 3139SOL    HW211315  10.329   3.224  14.440
 3140SOL     OW11316  12.565  10.295   6.581
 3140SOL    HW111317  12.655  10.299   6.549
 3140SOL    HW211318  12.562  10.215   6.634
 3141SOL     OW11319   6.605   8.731   7.761
 3141SOL    HW111320   6.536   8.665   7.760
 3141SOL    HW211321   6.589   8.783   7.682
 3142SOL     OW11322   7.484  10.335   2.372
 3142SOL    HW111323   7.485  10.273   2.300
 3142SOL    HW211324   7.551  10.400   2.349
 3143SOL     OW11325  14.178   5.689   3.102
 3143SOL    HW111326  14.265   5.654   3.082
 3143SOL    HW211327  14.193   5.754   3.169
 3144SOL     OW11328   5.113   9.802   0.530
 3144SOL    HW111329   5.121   9.805   0.625
 3144SOL    HW211330   5.052   9.731   0.513
 3145SOL     OW11331   1.692   1.234   3.176
 3145SOL    HW111332   1.710   1.180   3.253
 3145SOL    HW211333   1.609   1.278   3.196
 3146SOL     OW11334  13.483  13.090  12.599
 3146SOL    HW111335  13.569  13.067  12.635
 3146SOL    HW211336  13.484  13.186  12.597
 3147SOL     OW11337   8.524  13.805   9.151
 3147SOL    HW111338   8.501  13.781   9.061
 3147SOL    HW211339   8.440  13.819   9.194
 3148SOL     OW11340  10.966  12.252   4.792
 3148SOL    HW111341  10.982  12.320   4.857
 3148SOL    HW211342  10.989  12.292   4.708
 3149SOL     OW11343  11.773  10.434   9.188
 3149SOL    HW111344  11.767  10.397   9.276
 3149SOL    HW211345  11.861  10.413   9.158
 3150SOL     OW11346  11.058   8.901  11.294
 3150SOL    HW111347  10.962   8.904  11.289
 3150SOL    HW211348  11.086   8.985  11.257
 3151SOL     OW11349   7.512   5.457  14.397
 3151SOL    HW111350   7.578   5.404  14.351
 3151SOL    HW211351   7.533   5.548  14.374
 3152SOL     OW11352   7.017  12.451   8.649
 3152SOL    HW111353   6.925  12.474   8.661
 3152SOL    HW211354   7.035  12.470   8.557
 3153SOL     OW11355   2.150  12.952   0.203
 3153SOL    HW111356   2.165  13.034   0.250
 3153SOL    HW211357   2.121  12.979   0.116
 3154SOL     OW11358   5.453   0.785   6.844
 3154SOL    HW111359   5.439   0.880   6.844
 3154SOL    HW211360   5.547   0.775   6.829
 3155SOL     OW11361   7.629   9.345   7.909
 3155SOL    HW111362   7.624   9.387   7.823
 3155SOL    HW211363   7.571   9.269   7.903
 3156SOL     OW11364   6.488   1.606   4.341
 3156SOL    HW111365   6.446   1.681   4.382
 3156SOL    HW211366   6.504   1.545   4.413
 3157SOL     OW11367   6.990   9.563   0.557
 3157SOL    HW111368   6.953   9.616   0.629
 3157SOL    HW211369   6.959   9.475   0.575
 3158SOL     OW11370   7.404   1.194   9.962
 3158SOL    HW111371   7.312   1.195   9.936
 3158SOL    HW211372   7.407   1.134  10.037
 3159SOL     OW11373  11.893   9.144  11.034
 3159SOL    HW111374  11.928   9.167  10.948
 3159SOL    HW211375  11.946   9.070  11.063
 3160SOL     OW11376   8.021  12.810  10.626
 3160SOL    HW111377   8.090  12.877  10.630
 3160SOL    HW211378   7.969  12.834  10.549
 3161SOL     OW11379   8.871   5.129   8.865
 3161SOL    HW111380   8.881   5.038   8.838
 3161SOL    HW211381   8.776   5.143   8.869
 3162SOL     OW11382   4.811  14.215  14.279
 3162SOL    HW111383   4.728  14.218  14.231
 3162SOL    HW211384   4.788  14.178  14.364
 3163SOL     OW11385   7.059  12.991   0.110
 3163SOL    HW111386   7.090  12.901   0.104
 3163SOL    HW211387   7.074  13.015   0.202
 3164SOL     OW11388   7.670   0.853   5.546
 3164SOL    HW111389   7.760   0.883   5.564
 3164SOL    HW211390   7.649   0.891   5.461
 3165SOL     OW11391  12.536  10.486   5.542
 3165SOL    HW111392  12.520  10.413   5.603
 3165SOL    HW211393  12.454  10.495   5.494
 3166SOL     OW11394   5.210   4.775   6.309
 3166SOL    HW111395   5.227   4.769   6.403
 3166SOL    HW211396   5.145   4.845   6.300
 3167SOL     OW11397   7.945   2.339   0.875
 3167SOL    HW111398   7.930   2.431   0.855
 3167SOL    HW211399   8.040   2.329   0.874
 3168SOL     OW11400   9.191   3.411   6.683
 3168SOL    HW111401   9.222   3.485   6.736
 3168SOL    HW211402   9.101   3.398   6.711
 3169SOL     OW11403   0.259  10.700   3.196
 3169SOL    HW111404   0.307  10.774   3.159
 3169SOL    HW211405   0.247  10.640   3.122
 3170SOL     OW11406   3.491   8.062   3.351
 3170SOL    HW111407   3.467   8.110   3.430
 3170SOL    HW211408   3.545   8.124   3.301
 3171SOL     OW11409  12.745   5.438   8.952
 3171SOL    HW111410  12.809   5.378   8.991
 3171SOL    HW211411  12.695   5.471   9.027
 3172SOL     OW11412  11.576   5.421   9.260
 3172SOL    HW111413  11.535   5.355   9.205
 3172SOL    HW211414  11.593   5.495   9.201
 3173SOL     OW11415   7.892   6.710  11.953
 3173SOL    HW111416   7.901   6.624  11.913
 3173SOL    HW211417   7.982   6.740  11.968
 3174SOL     OW11418   9.579   6.532   3.295
 3174SOL    HW111419   9.533   6.456   3.259
 3174SOL    HW211420   9.607   6.504   3.382
 3175SOL     OW11421   9.549   4.668   1.274
 3175SOL    HW111422   9.641   4.648   1.257
 3175SOL    HW211423   9.506   4.657   1.189
 3176SOL     OW11424  13.120  11.620   2.956
 3176SOL    HW111425  13.026  11.630   2.941
 3176SOL    HW211426  13.130  11.621   3.051
 3177SOL     OW11427   6.501   6.992   0.600
 3177SOL    HW111428   6.410   6.965   0.585
 3177SOL    HW211429   6.537   6.924   0.657
 3178SOL     OW11430   7.624  13.755   0.175
 3178SOL    HW111431   7.639  13.843   0.141
 3178SOL    HW211432   7.581  13.769   0.259
 3179SOL     OW11433  12.887   1.086   3.367
 3179SOL    HW111434  12.908   1.033   3.444
 3179SOL    HW211435  12.792   1.097   3.370
 3180SOL     OW11436   5.591  10.006  10.001
 3180SOL    HW111437   5.587  10.056   9.919
 3180SOL    HW211438   5.641   9.927   9.979
 3181SOL     OW11439   4.865   0.373   8.196
 3181SOL    HW111440   4.956   0.393   8.216
 3181SOL    HW211441   4.864   0.279   8.177
 3182SOL     OW11442   9.857   5.379   4.705
 3182SOL    HW111443   9.830   5.400   4.616
 3182SOL    HW211444   9.940   5.333   4.695
 3183SOL     OW11445   6.210   0.235   0.976
 3183SOL    HW111446   6.241   0.191   0.897
 3183SOL    HW211447   6.118   0.254   0.959
 3184SOL     OW11448   4.092  13.209   2.308
 3184SOL    HW111449   4.075  13.141   2.373
 3184SOL    HW211450   4.141  13.277   2.355
 3185SOL     OW11451   9.031   2.353   1.784
 3185SOL    HW111452   9.008   2.424   1.724
 3185SOL    HW211453   9.003   2.273   1.739
 3186SOL     OW11454  11.835   5.345  14.460
 3186SOL    HW111455  11.903   5.330  14.394
 3186SOL    HW211456  11.833   5.440  14.472
 3187SOL     OW11457   1.836   1.228   7.226
 3187SOL    HW111458   1.879   1.292   7.283
 3187SOL    HW211459   1.848   1.263   7.137
 3188SOL     OW11460   0.796  11.912  13.464
 3188SOL    HW111461   0.793  11.847  13.534
 3188SOL    HW211462   0.705  11.938  13.451
 3189SOL     OW11463   8.780   5.224   4.533
 3189SOL    HW111464   8.755   5.262   4.617
 3189SOL    HW211465   8.766   5.294   4.469
 3190SOL     OW11466  10.010  10.950  10.439
 3190SOL    HW111467  10.088  10.927  10.390
 3190SOL    HW211468   9.941  10.955  10.372
 3191SOL     OW11469   7.990   9.552  13.443
 3191SOL    HW111470   7.946   9.635  13.430
 3191SOL    HW211471   8.043   9.564  13.522
 3192SOL     OW11472   1.050  11.998  11.651
 3192SOL    HW111473   1.086  12.053  11.582
 3192SOL    HW211474   0.985  12.053  11.694
 3193SOL     OW11475  13.008   2.836   9.988
 3193SOL    HW111476  12.984   2.879  10.070
 3193SOL    HW211477  13.043   2.752  10.014
 3194SOL     OW11478   3.055  13.467   7.800
 3194SOL    HW111479   3.060  13.371   7.803
 3194SOL    HW211480   3.140  13.496   7.833
 3195SOL     OW11481   7.220   4.955  14.318
 3195SOL    HW111482   7.280   5.006  14.264
 3195SOL    HW211483   7.264   4.872  14.331
 3196SOL     OW11484   1.118  12.890  10.087
 3196SOL    HW111485   1.057  12.823  10.117
 3196SOL    HW211486   1.184  12.842  10.038
 3197SOL     OW11487   8.203  10.025   2.718
 3197SOL    HW111488   8.253  10.045   2.639
 3197SOL    HW211489   8.266   9.981   2.776
 3198SOL     OW11490   1.001   6.751  12.190
 3198SOL    HW111491   1.060   6.781  12.122
 3198SOL    HW211492   0.926   6.713  12.143
 3199SOL     OW11493  13.072  14.222   3.988
 3199SOL    HW111494  13.002  14.264   4.039
 3199SOL    HW211495  13.112  14.160   4.049
 3200SOL     OW11496   3.497   8.559   1.979
 3200SOL    HW111497   3.554   8.630   1.947
 3200SOL    HW211498   3.455   8.525   1.900
 3201SOL     OW11499   2.948  13.912  13.819
 3201SOL    HW111500   3.024  13.892  13.765
 3201SOL    HW211501   2.962  14.002  13.849
 3202SOL     OW11502   7.199   2.089  12.037
 3202SOL    HW111503   7.168   2.006  12.001
 3202SOL    HW211504   7.282   2.105  11.992
 3203SOL     OW11505   6.032  12.590  13.452
 3203SOL    HW111506   5.990  12.504  13.457
 3203SOL    HW211507   6.124  12.571  13.435
 3204SOL     OW11508   4.684   7.364   7.241
 3204SOL    HW111509   4.778   7.349   7.231
 3204SOL    HW211510   4.665   7.342   7.332
 3205SOL     OW11511   5.166  11.313   2.919
 3205SOL    HW111512   5.150  11.342   3.009
 3205SOL    HW211513   5.218  11.233   2.929
 3206SOL     OW11514  12.379   6.242   8.739
 3206SOL    HW111515  12.289   6.246   8.769
 3206SOL    HW211516  12.430   6.284   8.809
 3207SOL     OW11517   0.779   2.031   0.788
 3207SOL    HW111518   0.736   1.995   0.866
 3207SOL    HW211519   0.750   1.973   0.717
 3208SOL     OW11520   6.193   1.695   6.454
 3208SOL    HW111521   6.272   1.670   6.501
 3208SOL    HW211522   6.136   1.619   6.460
 3209SOL     OW11523   6.709   3.167   7.421
 3209SOL    HW111524   6.767   3.221   7.368
 3209SOL    HW211525   6.769   3.116   7.476
 3210SOL     OW11526   1.264   0.875  10.787
 3210SOL    HW111527   1.277   0.847  10.878
 3210SOL    HW211528   1.209   0.806  10.749
 3211SOL     OW11529  13.055   7.383  14.600
 3211SOL    HW111530  13.103   7.412  14.678
 3211SOL    HW211531  13.038   7.290  14.616
 3212SOL     OW11532   3.243   8.972  11.550
 3212SOL    HW111533   3.201   8.889  11.571
 3212SOL    HW211534   3.181   9.018  11.494
 3213SOL     OW11535  10.012   7.677   4.422
 3213SOL    HW111536  10.049   7.722   4.498
 3213SOL    HW211537   9.924   7.715   4.412
 3214SOL     OW11538   1.642   3.923   1.845
 3214SOL    HW111539   1.653   3.890   1.934
 3214SOL    HW211540   1.730   3.918   1.807
 3215SOL     OW11541   7.268  13.610   5.999
 3215SOL    HW111542   7.298  13.701   5.994
 3215SOL    HW211543   7.346  13.561   6.027
 3216SOL     OW11544  11.677  10.895   6.756
 3216SOL    HW111545  11.666  10.973   6.810
 3216SOL    HW211546  11.693  10.824   6.818
 3217SOL     OW11547  11.593   1.799  10.883
 3217SOL    HW111548  11.529   1.837  10.824
 3217SOL    HW211549  11.668   1.858  10.878
 3218SOL     OW11550  12.508   8.576   5.784
 3218SOL    HW111551  12.488   8.668   5.768
 3218SOL    HW211552  12.565   8.576   5.861
 3219SOL     OW11553  14.457   3.264  14.734
 3219SOL    HW111554  14.478   3.354  14.760
 3219SOL    HW211555  14.543   3.224  14.717
 3220SOL     OW11556   5.236   1.553   5.190
 3220SOL    HW111557   5.305   1.521   5.132
 3220SOL    HW211558   5.205   1.634   5.148
 3221SOL     OW11559   1.902   8.688  14.431
 3221SOL    HW111560   1.934   8.777  14.450
 3221SOL    HW211561   1.836   8.701  14.364
 3222SOL     OW11562   2.945   0.291   1.103
 3222SOL    HW111563   2.871   0.244   1.065
 3222SOL    HW211564   3.021   0.259   1.055
 3223SOL     OW11565   8.316   0.680   4.369
 3223SOL    HW111566   8.297   0.721   4.285
 3223SOL    HW211567   8.262   0.601   4.369
 3224SOL     OW11568  12.628  14.197   6.432
 3224SOL    HW111569  12.570  14.242   6.371
 3224SOL    HW211570  12.614  14.242   6.516
 3225SOL     OW11571  13.962   8.023   4.583
 3225SOL    HW111572  14.016   7.946   4.599
 3225SOL    HW211573  13.960   8.070   4.666
 3226SOL     OW11574   0.182   7.558   9.821
 3226SOL    HW111575   0.274   7.584   9.826
 3226SOL    HW211576   0.176   7.507   9.740
 3227SOL     OW11577   2.674   8.682   2.006
 3227SOL    HW111578   2.659   8.776   1.996
 3227SOL    HW211579   2.635   8.643   1.928
 3228SOL     OW11580   6.268  10.031   1.936
 3228SOL    HW111581   6.318  10.111   1.953
 3228SOL    HW211582   6.230  10.009   2.021
 3229SOL     OW11583   5.546  11.641   3.463
 3229SOL    HW111584   5.480  11.578   3.493
 3229SOL    HW211585   5.535  11.716   3.521
 3230SOL     OW11586   8.427   1.405   9.088
 3230SOL    HW111587   8.505   1.391   9.034
 3230SOL    HW211588   8.367   1.334   9.062
 3231SOL     OW11589   5.570   7.275   1.139
 3231SOL    HW111590   5.628   7.305   1.209
 3231SOL    HW211591   5.511   7.213   1.181
 3232SOL     OW11592   9.701   8.279   0.953
 3232SOL    HW111593   9.646   8.216   0.906
 3232SOL    HW211594   9.735   8.337   0.885
 3233SOL     OW11595  12.666  12.351   9.163
 3233SOL    HW111596  12.672  12.296   9.085
 3233SOL    HW211597  12.598  12.310   9.216
 3234SOL     OW11598  12.121  10.229   6.881
 3234SOL    HW111599  12.054  10.177   6.926
 3234SOL    HW211600  12.143  10.299   6.943
 3235SOL     OW11601   0.645   7.842  10.474
 3235SOL    HW111602   0.710   7.904  10.440
 3235SOL    HW211603   0.583   7.831  10.402
 3236SOL     OW11604   5.027   6.823   4.165
 3236SOL    HW111605   4.956   6.846   4.224
 3236SOL    HW211606   5.101   6.804   4.223
 3237SOL     OW11607  14.464   5.221   2.178
 3237SOL    HW111608  14.372   5.203   2.198
 3237SOL    HW211609  14.511   5.144   2.210
 3238SOL     OW11610   6.058   8.177   1.856
 3238SOL    HW111611   5.991   8.179   1.788
 3238SOL    HW211612   6.046   8.260   1.903
 3239SOL     OW11613  12.445   8.572   7.551
 3239SOL    HW111614  12.455   8.659   7.513
 3239SOL    HW211615  12.456   8.512   7.477
 3240SOL     OW11616   2.025   9.788   2.453
 3240SOL    HW111617   2.041   9.844   2.528
 3240SOL    HW211618   2.075   9.708   2.471
 3241SOL     OW11619   2.464  11.506   6.903
 3241SOL    HW111620   2.407  11.466   6.838
 3241SOL    HW211621   2.405  11.553   6.962
 3242SOL     OW11622   5.384  10.268  10.950
 3242SOL    HW111623   5.409  10.179  10.971
 3242SOL    HW211624   5.390  10.273  10.855
 3243SOL     OW11625  10.044  13.727  14.762
 3243SOL    HW111626  10.038  13.663  14.691
 3243SOL    HW211627  10.079  13.677  14.836
 3244SOL     OW11628  11.941   8.538   6.946
 3244SOL    HW111629  11.952   8.556   6.853
 3244SOL    HW211630  11.940   8.442   6.953
 3245SOL     OW11631  11.145   0.229  14.490
 3245SOL    HW111632  11.150   0.310  14.439
 3245SOL    HW211633  11.221   0.178  14.462
 3246SOL     OW11634  13.569   9.094   7.140
 3246SOL    HW111635  13.557   9.126   7.051
 3246SOL    HW211636  13.498   9.134   7.190
 3247SOL     OW11637  13.244   1.581   3.716
 3247SOL    HW111638  13.217   1.494   3.745
 3247SOL    HW211639  13.251   1.633   3.797
 3248SOL     OW11640   2.550   6.919   9.040
 3248SOL    HW111641   2.600   6.840   9.062
 3248SOL    HW211642   2.508   6.944   9.122
 3249SOL     OW11643   6.664   7.030  10.914
 3249SOL    HW111644   6.676   7.123  10.897
 3249SOL    HW211645   6.697   7.017  11.003
 3250SOL     OW11646   8.590   0.234   7.263
 3250SOL    HW111647   8.499   0.247   7.290
 3250SOL    HW211648   8.596   0.280   7.179
 3251SOL     OW11649   9.543   5.230  10.152
 3251SOL    HW111650   9.497   5.314  10.144
 3251SOL    HW211651   9.500   5.173  10.088
 3252SOL     OW11652   8.724  12.602  12.918
 3252SOL    HW111653   8.656  12.651  12.871
 3252SOL    HW211654   8.748  12.532  12.857
 3253SOL     OW11655   0.281   9.539   0.206
 3253SOL    HW111656   0.241   9.480   0.270
 3253SOL    HW211657   0.259   9.501   0.121
 3254SOL     OW11658  10.546   2.722   1.181
 3254SOL    HW111659  10.577   2.632   1.168
 3254SOL    HW211660  10.453   2.712   1.201
 3255SOL     OW11661   8.643   5.305  12.351
 3255SOL    HW111662   8.695   5.318  12.271
 3255SOL    HW211663   8.569   5.252  12.323
 3256SOL     OW11664   8.259   2.580   2.191
 3256SOL    HW111665   8.191   2.515   2.171
 3256SOL    HW211666   8.309   2.587   2.110
 3257SOL     OW11667   8.214   9.439  12.228
 3257SOL    HW111668   8.199   9.501  12.299
 3257SOL    HW211669   8.127   9.420  12.193
 3258SOL     OW11670  13.390  11.818   4.704
 3258SOL    HW111671  13.449  11.886   4.735
 3258SOL    HW211672  13.359  11.849   4.619
 3259SOL     OW11673   4.718   2.812  12.823
 3259SOL    HW111674   4.665   2.733  12.831
 3259SOL    HW211675   4.701   2.845  12.735
 3260SOL     OW11676   3.624   8.068  13.912
 3260SOL    HW111677   3.576   8.141  13.873
 3260SOL    HW211678   3.556   8.005  13.936
 3261SOL     OW11679  13.801   0.287  11.721
 3261SOL    HW111680  13.848   0.370  11.724
 3261SOL    HW211681  13.846   0.232  11.786
 3262SOL     OW11682   4.618  14.442   2.405
 3262SOL    HW111683   4.548  14.388   2.441
 3262SOL    HW211684   4.697  14.411   2.449
 3263SOL     OW11685   5.558   0.856   7.632
 3263SOL    HW111686   5.505   0.778   7.643
 3263SOL    HW211687   5.600   0.844   7.546
 3264SOL     OW11688   7.915  13.576   5.006
 3264SOL    HW111689   7.868  13.603   4.927
 3264SOL    HW211690   7.927  13.657   5.055
 3265SOL     OW11691  11.246   7.720   6.829
 3265SOL    HW111692  11.209   7.697   6.914
 3265SOL    HW211693  11.322   7.662   6.819
 3266SOL     OW11694  12.102   8.934   5.839
 3266SOL    HW111695  12.127   8.886   5.760
 3266SOL    HW211696  12.020   8.893   5.867
 3267SOL     OW11697   9.777   5.951   8.737
 3267SOL    HW111698   9.824   5.875   8.704
 3267SOL    HW211699   9.788   5.947   8.832
 3268SOL     OW11700   4.166  10.342  14.862
 3268SOL    HW111701   4.185  10.427   0.014
 3268SOL    HW211702   4.108  10.361  14.788
 3269SOL     OW11703   2.058   0.216  13.197
 3269SOL    HW111704   2.111   0.288  13.163
 3269SOL    HW211705   2.035   0.242  13.286
 3270SOL     OW11706   7.363   3.718   6.462
 3270SOL    HW111707   7.314   3.737   6.542
 3270SOL    HW211708   7.455   3.729   6.486
 3271SOL     OW11709  10.348  11.118   4.577
 3271SOL    HW111710  10.415  11.054   4.603
 3271SOL    HW211711  10.334  11.172   4.655
 3272SOL     OW11712   6.136  11.239  10.294
 3272SOL    HW111713   6.050  11.280  10.286
 3272SOL    HW211714   6.164  11.224  10.204
 3273SOL     OW11715   3.179   3.978  10.919
 3273SOL    HW111716   3.120   3.914  10.959
 3273SOL    HW211717   3.123   4.027  10.858
 3274SOL     OW11718  12.578   4.371  12.365
 3274SOL    HW111719  12.630   4.444  12.331
 3274SOL    HW211720  12.636   4.327  12.428
 3275SOL     OW11721   1.978   1.996   6.476
 3275SOL    HW111722   1.946   2.052   6.406
 3275SOL    HW211723   2.047   1.944   6.436
 3276SOL     OW11724   1.377   9.872   9.228
 3276SOL    HW111725   1.417   9.959   9.226
 3276SOL    HW211726   1.297   9.884   9.278
 3277SOL     OW11727   1.413   7.974   3.529
 3277SOL    HW111728   1.357   8.008   3.459
 3277SOL    HW211729   1.355   7.924   3.585
 3278SOL     OW11730  14.494   8.060   5.982
 3278SOL    HW111731  14.437   7.984   5.980
 3278SOL    HW211732  14.482   8.101   5.896
 3279SOL     OW11733   0.988  11.528  14.208
 3279SOL    HW111734   0.899  11.515  14.240
 3279SOL    HW211735   0.978  11.547  14.115
 3280SOL     OW11736   0.887  14.739   0.514
 3280SOL    HW111737   0.859  14.649   0.500
 3280SOL    HW211738   0.847  14.789   0.443
 3281SOL     OW11739   2.198  12.429   7.005
 3281SOL    HW111740   2.260  12.454   6.937
 3281SOL    HW211741   2.149  12.509   7.025
 3282SOL     OW11742   2.498  12.169  12.868
 3282SOL    HW111743   2.427  12.202  12.924
 3282SOL    HW211744   2.568  12.146  12.930
 3283SOL     OW11745  11.186   2.556  10.654
 3283SOL    HW111746  11.178   2.637  10.705
 3283SOL    HW211747  11.276   2.557  10.622
 3284SOL     OW11748   1.942   1.637   1.397
 3284SOL    HW111749   2.024   1.593   1.423
 3284SOL    HW211750   1.924   1.603   1.310
 3285SOL     OW11751   6.284  13.018   0.077
 3285SOL    HW111752   6.265  13.112   0.075
 3285SOL    HW211753   6.366  13.008   0.030
 3286SOL     OW11754   5.779  12.792   0.054
 3286SOL    HW111755   5.690  12.824   0.036
 3286SOL    HW211756   5.836  12.865   0.032
 3287SOL     OW11757  12.089   9.001   3.518
 3287SOL    HW111758  12.143   9.022   3.595
 3287SOL    HW211759  12.149   8.962   3.456
 3288SOL     OW11760   5.797   4.278   4.771
 3288SOL    HW111761   5.845   4.343   4.720
 3288SOL    HW211762   5.806   4.306   4.862
 3289SOL     OW11763   2.185  12.006   1.727
 3289SOL    HW111764   2.278  11.994   1.707
 3289SOL    HW211765   2.150  11.917   1.733
 3290SOL     OW11766  12.829  10.542   1.296
 3290SOL    HW111767  12.747  10.511   1.258
 3290SOL    HW211768  12.895  10.480   1.268
 3291SOL     OW11769   9.693   0.719   0.841
 3291SOL    HW111770   9.784   0.713   0.811
 3291SOL    HW211771   9.667   0.629   0.856
 3292SOL     OW11772   5.890   8.475   6.434
 3292SOL    HW111773   5.983   8.496   6.424
 3292SOL    HW211774   5.864   8.522   6.513
 3293SOL     OW11775  10.249   4.161   0.371
 3293SOL    HW111776  10.164   4.138   0.333
 3293SOL    HW211777  10.307   4.171   0.295
 3294SOL     OW11778   5.546   9.564   2.390
 3294SOL    HW111779   5.520   9.494   2.449
 3294SOL    HW211780   5.464   9.605   2.363
 3295SOL     OW11781   2.381   0.097   6.604
 3295SOL    HW111782   2.355   0.186   6.627
 3295SOL    HW211783   2.298   0.050   6.592
 3296SOL     OW11784   2.260   3.887   7.154
 3296SOL    HW111785   2.175   3.901   7.113
 3296SOL    HW211786   2.283   3.797   7.132
 3297SOL     OW11787  13.537   5.196   9.415
 3297SOL    HW111788  13.561   5.257   9.346
 3297SOL    HW211789  13.609   5.132   9.417
 3298SOL     OW11790  11.926  13.524   1.510
 3298SOL    HW111791  12.003  13.528   1.568
 3298SOL    HW211792  11.852  13.545   1.567
 3299SOL     OW11793   2.465   8.614   3.784
 3299SOL    HW111794   2.396   8.553   3.759
 3299SOL    HW211795   2.528   8.612   3.712
 3300SOL     OW11796   6.098  14.183   0.953
 3300SOL    HW111797   6.115  14.208   1.044
 3300SOL    HW211798   6.070  14.263   0.911
 3301SOL     OW11799   8.977   7.273   0.863
 3301SOL    HW111800   8.884   7.251   0.872
 3301SOL    HW211801   8.982   7.366   0.885
 3302SOL     OW11802  14.213   3.716   1.497
 3302SOL    HW111803  14.200   3.804   1.461
 3302SOL    HW211804  14.125   3.682   1.512
 3303SOL     OW11805   1.393  14.497  13.552
 3303SOL    HW111806   1.469  14.469  13.502
 3303SOL    HW211807   1.418  14.582  13.589
 3304SOL     OW11808  11.262   6.009   8.230
 3304SOL    HW111809  11.210   5.959   8.167
 3304SOL    HW211810  11.344   6.026   8.184
 3305SOL     OW11811   2.881  14.246   2.323
 3305SOL    HW111812   2.898  14.175   2.261
 3305SOL    HW211813   2.805  14.216   2.374
 3306SOL     OW11814  11.000   8.896   1.116
 3306SOL    HW111815  11.081   8.869   1.072
 3306SOL    HW211816  10.997   8.842   1.195
 3307SOL     OW11817  11.613   0.846   3.616
 3307SOL    HW111818  11.573   0.905   3.553
 3307SOL    HW211819  11.544   0.784   3.638
 3308SOL     OW11820   5.131   1.397  12.372
 3308SOL    HW111821   5.151   1.490  12.367
 3308SOL    HW211822   5.061   1.384  12.308
 3309SOL     OW11823  12.870   6.592   5.687
 3309SOL    HW111824  12.959   6.610   5.655
 3309SOL    HW211825  12.836   6.526   5.626
 3310SOL     OW11826   3.703  10.412   9.053
 3310SOL    HW111827   3.614  10.442   9.032
 3310SOL    HW211828   3.691  10.320   9.079
 3311SOL     OW11829   4.027   1.518   8.837
 3311SOL    HW111830   4.087   1.546   8.767
 3311SOL    HW211831   4.077   1.531   8.917
 3312SOL     OW11832   2.060   8.107   9.843
 3312SOL    HW111833   1.973   8.140   9.818
 3312SOL    HW211834   2.044   8.060   9.925
 3313SOL     OW11835   9.419   4.277  13.268
 3313SOL    HW111836   9.495   4.260  13.213
 3313SOL    HW211837   9.344   4.246  13.217
 3314SOL     OW11838   9.657   2.757   9.325
 3314SOL    HW111839   9.702   2.838   9.348
 3314SOL    HW211840   9.682   2.741   9.234
 3315SOL     OW11841   3.846   1.203   1.142
 3315SOL    HW111842   3.893   1.270   1.092
 3315SOL    HW211843   3.915   1.153   1.186
 3316SOL     OW11844  10.032   7.176  14.747
 3316SOL    HW111845  10.053   7.158  14.838
 3316SOL    HW211846  10.110   7.219  14.712
 3317SOL     OW11847  10.600  13.006   4.817
 3317SOL    HW111848  10.528  13.028   4.758
 3317SOL    HW211849  10.569  13.032   4.904
 3318SOL     OW11850   7.514  11.355  13.034
 3318SOL    HW111851   7.534  11.298  12.960
 3318SOL    HW211852   7.424  11.385  13.017
 3319SOL     OW11853   2.866   3.724   4.959
 3319SOL    HW111854   2.899   3.691   4.875
 3319SOL    HW211855   2.772   3.731   4.946
 3320SOL     OW11856   4.456  14.764   7.057
 3320SOL    HW111857   4.468  14.859   7.049
 3320SOL    HW211858   4.544  14.728   7.044
 3321SOL     OW11859   8.428   1.075   9.894
 3321SOL    HW111860   8.396   0.988   9.871
 3321SOL    HW211861   8.383   1.096   9.976
 3322SOL     OW11862  12.431   6.194   2.834
 3322SOL    HW111863  12.387   6.125   2.884
 3322SOL    HW211864  12.361   6.254   2.809
 3323SOL     OW11865   2.909   7.554   5.056
 3323SOL    HW111866   2.990   7.514   5.089
 3323SOL    HW211867   2.930   7.580   4.966
 3324SOL     OW11868   5.964  10.096   3.720
 3324SOL    HW111869   5.980  10.039   3.645
 3324SOL    HW211870   6.051  10.113   3.756
 3325SOL     OW11871   2.582   6.843   1.730
 3325SOL    HW111872   2.621   6.808   1.650
 3325SOL    HW211873   2.630   6.802   1.801
 3326SOL     OW11874   5.076  12.646   4.927
 3326SOL    HW111875   5.049  12.597   4.850
 3326SOL    HW211876   5.157  12.690   4.900
 3327SOL     OW11877   8.495   1.827   3.570
 3327SOL    HW111878   8.572   1.875   3.538
 3327SOL    HW211879   8.421   1.870   3.527
 3328SOL     OW11880   1.487   0.932  13.191
 3328SOL    HW111881   1.485   1.022  13.223
 3328SOL    HW211882   1.418   0.929  13.124
 3329SOL     OW11883  10.847  11.643   8.935
 3329SOL    HW111884  10.791  11.704   8.886
 3329SOL    HW211885  10.786  11.583   8.977
 3330SOL     OW11886   3.805   9.803   1.634
 3330SOL    HW111887   3.767   9.828   1.719
 3330SOL    HW211888   3.873   9.740   1.657
 3331SOL     OW11889   0.647   8.120   6.270
 3331SOL    HW111890   0.629   8.066   6.347
 3331SOL    HW211891   0.592   8.198   6.283
 3332SOL     OW11892   3.003   3.994   3.788
 3332SOL    HW111893   2.946   3.940   3.843
 3332SOL    HW211894   3.036   3.934   3.722
 3333SOL     OW11895   4.174   8.257   5.098
 3333SOL    HW111896   4.103   8.220   5.151
 3333SOL    HW211897   4.253   8.242   5.150
 3334SOL     OW11898  13.308   7.293   8.071
 3334SOL    HW111899  13.333   7.366   8.129
 3334SOL    HW211900  13.391   7.257   8.040
 3335SOL     OW11901  14.815  11.443  11.693
 3335SOL    HW111902  14.747  11.391  11.735
 3335SOL    HW211903  14.789  11.534  11.707
 3336SOL     OW11904   0.447  10.506   9.533
 3336SOL    HW111905   0.492  10.528   9.614
 3336SOL    HW211906   0.442  10.410   9.533
 3337SOL     OW11907   5.660   3.414   3.807
 3337SOL    HW111908   5.629   3.326   3.826
 3337SOL    HW211909   5.756   3.407   3.810
 3338SOL     OW11910   6.663   0.161  14.808
 3338SOL    HW111911   6.592   0.183  14.868
 3338SOL    HW211912   6.742   0.191  14.852
 3339SOL     OW11913  14.322   4.977  12.296
 3339SOL    HW111914  14.277   4.915  12.354
 3339SOL    HW211915  14.412   4.945  12.290
 3340SOL     OW11916   9.054   3.987   9.835
 3340SOL    HW111917   9.126   3.992   9.771
 3340SOL    HW211918   8.993   4.055   9.807
 3341SOL     OW11919  14.763  10.821   9.254
 3341SOL    HW111920  14.739  10.893   9.312
 3341SOL    HW211921  14.786  10.864   9.171
 3342SOL     OW11922  10.685   8.085  12.171
 3342SOL    HW111923  10.615   8.149  12.158
 3342SOL    HW211924  10.758   8.137  12.204
 3343SOL     OW11925   4.951   5.699  14.468
 3343SOL    HW111926   4.940   5.684  14.374
 3343SOL    HW211927   5.032   5.653  14.490
 3344SOL     OW11928   0.468   6.755   2.455
 3344SOL    HW111929   0.438   6.797   2.375
 3344SOL    HW211930   0.515   6.824   2.502
 3345SOL     OW11931   8.109   2.494   7.516
 3345SOL    HW111932   8.171   2.559   7.547
 3345SOL    HW211933   8.159   2.412   7.512
 3346SOL     OW11934   6.001  14.069  10.375
 3346SOL    HW111935   5.948  14.116  10.310
 3346SOL    HW211936   6.006  14.128  10.450
 3347SOL     OW11937   1.464  11.694   1.419
 3347SOL    HW111938   1.533  11.748   1.382
 3347SOL    HW211939   1.445  11.629   1.351
 3348SOL     OW11940   7.839  11.972   2.681
 3348SOL    HW111941   7.922  11.955   2.636
 3348SOL    HW211942   7.810  11.886   2.711
 3349SOL     OW11943   9.544   7.414  10.084
 3349SOL    HW111944   9.529   7.414   9.990
 3349SOL    HW211945   9.636   7.389  10.093
 3350SOL     OW11946  11.854   2.973   3.512
 3350SOL    HW111947  11.777   3.011   3.554
 3350SOL    HW211948  11.910   3.048   3.492
 3351SOL     OW11949  11.810   0.799   7.097
 3351SOL    HW111950  11.755   0.818   7.021
 3351SOL    HW211951  11.773   0.719   7.135
 3352SOL     OW11952   9.062  14.533   4.272
 3352SOL    HW111953   9.053  14.494   4.185
 3352SOL    HW211954   9.048  14.459   4.332
 3353SOL     OW11955  12.606   8.732   5.369
 3353SOL    HW111956  12.662   8.659   5.396
 3353SOL    HW211957  12.636   8.806   5.422
 3354SOL     OW11958  11.782   3.329   1.265
 3354SOL    HW111959  11.722   3.290   1.329
 3354SOL    HW211960  11.828   3.255   1.226
 3355SOL     OW11961   4.495   3.510  10.808
 3355SOL    HW111962   4.467   3.556  10.729
 3355SOL    HW211963   4.478   3.572  10.879
 3356SOL     OW11964   4.555  13.745  12.690
 3356SOL    HW111965   4.526  13.657  12.712
 3356SOL    HW211966   4.630  13.732  12.632
 3357SOL     OW11967  10.938  13.837   3.064
 3357SOL    HW111968  10.939  13.749   3.101
 3357SOL    HW211969  10.870  13.833   2.996
 3358SOL     OW11970   1.377   6.517   1.896
 3358SOL    HW111971   1.331   6.535   1.978
 3358SOL    HW211972   1.342   6.433   1.867
 3359SOL     OW11973   0.923   3.860   8.985
 3359SOL    HW111974   0.902   3.864   8.891
 3359SOL    HW211975   0.865   3.925   9.025
 3360SOL     OW11976  14.803   9.749   4.768
 3360SOL    HW111977  14.878   9.799   4.799
 3360SOL    HW211978  14.831   9.712   4.685
 3361SOL     OW11979  10.090   5.703   9.968
 3361SOL    HW111980  10.155   5.633   9.959
 3361SOL    HW211981  10.083   5.717  10.062
 3362SOL     OW11982   6.596   6.717   5.413
 3362SOL    HW111983   6.659   6.743   5.346
 3362SOL    HW211984   6.605   6.784   5.481
 3363SOL     OW11985   7.027   9.423  14.879
 3363SOL    HW111986   6.946   9.386  14.843
 3363SOL    HW211987   7.074   9.348   0.027
 3364SOL     OW11988   2.512  10.945   5.087
 3364SOL    HW111989   2.466  10.876   5.039
 3364SOL    HW211990   2.480  11.026   5.048
 3365SOL     OW11991   3.810   2.945   1.977
 3365SOL    HW111992   3.793   3.035   2.006
 3365SOL    HW211993   3.818   2.952   1.882
 3366SOL     OW11994   6.243   4.399  12.895
 3366SOL    HW111995   6.217   4.471  12.837
 3366SOL    HW211996   6.323   4.430  12.937
 3367SOL     OW11997   0.087   2.047  11.805
 3367SOL    HW111998   0.042   2.093  11.734
 3367SOL    HW211999   0.073   2.103  11.881
 3368SOL     OW12000  12.299  11.022  12.118
 3368SOL    HW112001  12.258  10.960  12.058
 3368SOL    HW212002  12.370  11.061  12.068
 3369SOL     OW12003  10.591   8.814   2.861
 3369SOL    HW112004  10.648   8.764   2.919
 3369SOL    HW212005  10.646   8.887   2.831
 3370SOL     OW12006   2.331  11.679   0.251
 3370SOL    HW112007   2.412  11.632   0.269
 3370SOL    HW212008   2.295  11.698   0.338
 3371SOL     OW12009  14.461   5.544   3.120
 3371SOL    HW112010  14.460   5.575   3.210
 3371SOL    HW212011  14.547   5.569   3.087
 3372SOL     OW12012   7.850   9.069   9.233
 3372SOL    HW112013   7.845   8.973   9.225
 3372SOL    HW212014   7.796   9.089   9.309
 3373SOL     OW12015   9.443   3.096   2.147
 3373SOL    HW112016   9.499   3.161   2.190
 3373SOL    HW212017   9.437   3.025   2.210
 3374SOL     OW12018   2.146   8.424   1.808
 3374SOL    HW112019   2.168   8.377   1.728
 3374SOL    HW212020   2.068   8.475   1.786
 3375SOL     OW12021  14.464   3.113   0.171
 3375SOL    HW112022  14.547   3.079   0.205
 3375SOL    HW212023  14.484   3.201   0.140
 3376SOL     OW12024  10.883  11.601   7.611
 3376SOL    HW112025  10.922  11.604   7.524
 3376SOL    HW212026  10.956  11.578   7.669
 3377SOL     OW12027   5.175   0.620  13.211
 3377SOL    HW112028   5.222   0.580  13.137
 3377SOL    HW212029   5.152   0.707  13.180
 3378SOL     OW12030  12.598   2.264   7.022
 3378SOL    HW112031  12.586   2.304   7.108
 3378SOL    HW212032  12.625   2.174   7.041
 3379SOL     OW12033   6.129   4.446  10.637
 3379SOL    HW112034   6.178   4.522  10.668
 3379SOL    HW212035   6.160   4.433  10.547
 3380SOL     OW12036  13.118  11.108   9.874
 3380SOL    HW112037  13.152  11.019   9.861
 3380SOL    HW212038  13.120  11.120   9.969
 3381SOL     OW12039   9.293   8.210  13.724
 3381SOL    HW112040   9.277   8.120  13.697
 3381SOL    HW212041   9.222   8.260  13.684
 3382SOL     OW12042  11.136  14.549   7.135
 3382SOL    HW112043  11.129  14.453   7.142
 3382SOL    HW212044  11.045  14.579   7.131
 3383SOL     OW12045   0.541  11.456  14.754
 3383SOL    HW112046   0.601  11.407  14.809
 3383SOL    HW212047   0.573  11.546  14.758
 3384SOL     OW12048   0.155   3.267   1.486
 3384SOL    HW112049   0.099   3.203   1.530
 3384SOL    HW212050   0.127   3.351   1.522
 3385SOL     OW12051   9.759   5.445  12.946
 3385SOL    HW112052   9.692   5.495  12.992
 3385SOL    HW212053   9.792   5.505  12.879
 3386SOL     OW12054   2.556  13.356   4.559
 3386SOL    HW112055   2.625  13.350   4.493
 3386SOL    HW212056   2.523  13.267   4.567
 3387SOL     OW12057   9.585  12.969   0.484
 3387SOL    HW112058   9.647  13.026   0.438
 3387SOL    HW212059   9.527  13.030   0.530
 3388SOL     OW12060   0.724   1.259   5.087
 3388SOL    HW112061   0.632   1.236   5.102
 3388SOL    HW212062   0.755   1.192   5.026
 3389SOL     OW12063   1.220   8.266   4.110
 3389SOL    HW112064   1.249   8.238   4.023
 3389SOL    HW212065   1.252   8.198   4.169
 3390SOL     OW12066  10.867   3.054   6.721
 3390SOL    HW112067  10.808   3.055   6.645
 3390SOL    HW212068  10.864   2.964   6.753
 3391SOL     OW12069   0.871  14.208  14.424
 3391SOL    HW112070   0.925  14.129  14.429
 3391SOL    HW212071   0.891  14.244  14.337
 3392SOL     OW12072   7.568   9.230  13.274
 3392SOL    HW112073   7.530   9.228  13.361
 3392SOL    HW212074   7.655   9.267  13.287
 3393SOL     OW12075  12.455  12.155   4.624
 3393SOL    HW112076  12.457  12.147   4.529
 3393SOL    HW212077  12.497  12.239   4.642
 3394SOL     OW12078   4.824   8.381   9.241
 3394SOL    HW112079   4.887   8.367   9.170
 3394SOL    HW212080   4.739   8.382   9.197
 3395SOL     OW12081   2.974   4.230   3.458
 3395SOL    HW112082   2.893   4.206   3.414
 3395SOL    HW212083   2.974   4.326   3.457
 3396SOL     OW12084  10.001   8.444  11.658
 3396SOL    HW112085  10.020   8.481  11.572
 3396SOL    HW212086   9.980   8.352  11.641
 3397SOL     OW12087   0.632   6.547   9.762
 3397SOL    HW112088   0.622   6.483   9.833
 3397SOL    HW212089   0.670   6.496   9.690
 3398SOL     OW12090   1.811   7.875   7.079
 3398SOL    HW112091   1.802   7.968   7.100
 3398SOL    HW212092   1.778   7.867   6.989
 3399SOL     OW12093   3.013   9.988  14.791
 3399SOL    HW112094   3.108   9.994  14.776
 3399SOL    HW212095   2.992  10.068  14.839
 3400SOL     OW12096  11.039  10.555   9.320
 3400SOL    HW112097  11.098  10.480   9.330
 3400SOL    HW212098  11.078  10.623   9.375
 3401SOL     OW12099  12.316   4.341   0.379
 3401SOL    HW112100  12.380   4.292   0.328
 3401SOL    HW212101  12.231   4.319   0.340
 3402SOL     OW12102   0.461   4.788   1.245
 3402SOL    HW112103   0.485   4.706   1.201
 3402SOL    HW212104   0.522   4.853   1.210
 3403SOL     OW12105   6.900  14.494   4.022
 3403SOL    HW112106   6.826  14.436   4.005
 3403SOL    HW212107   6.875  14.577   3.981
 3404SOL     OW12108  11.564   8.389   6.382
 3404SOL    HW112109  11.471   8.386   6.358
 3404SOL    HW212110  11.568   8.351   6.470
 3405SOL     OW12111   7.886   1.339   7.823
 3405SOL    HW112112   7.885   1.421   7.872
 3405SOL    HW212113   7.936   1.278   7.877
 3406SOL     OW12114  12.581  13.956   5.326
 3406SOL    HW112115  12.584  13.958   5.231
 3406SOL    HW212116  12.637  13.883   5.351
 3407SOL     OW12117   4.006  12.785   5.962
 3407SOL    HW112118   4.095  12.750   5.970
 3407SOL    HW212119   3.952  12.727   6.015
 3408SOL     OW12120  13.404   5.045   6.758
 3408SOL    HW112121  13.486   5.059   6.711
 3408SOL    HW212122  13.386   5.129   6.800
 3409SOL     OW12123  10.914  14.211  12.346
 3409SOL    HW112124  10.885  14.120  12.345
 3409SOL    HW212125  10.876  14.248  12.425
 3410SOL     OW12126   0.589   5.742  13.176
 3410SOL    HW112127   0.527   5.791  13.231
 3410SOL    HW212128   0.624   5.807  13.115
 3411SOL     OW12129   2.157  12.575  10.073
 3411SOL    HW112130   2.146  12.488  10.110
 3411SOL    HW212131   2.073  12.619  10.089
 3412SOL     OW12132  11.741   2.253  14.239
 3412SOL    HW112133  11.685   2.212  14.304
 3412SOL    HW212134  11.754   2.342  14.272
 3413SOL     OW12135   3.950  13.506  12.129
 3413SOL    HW112136   3.912  13.588  12.159
 3413SOL    HW212137   3.965  13.455  12.209
 3414SOL     OW12138   1.856  12.377  13.403
 3414SOL    HW112139   1.850  12.392  13.497
 3414SOL    HW212140   1.950  12.379  13.385
 3415SOL     OW12141   9.140   5.283  11.697
 3415SOL    HW112142   9.141   5.263  11.791
 3415SOL    HW212143   9.091   5.365  11.691
 3416SOL     OW12144   7.959   0.179   2.141
 3416SOL    HW112145   7.974   0.094   2.099
 3416SOL    HW212146   8.036   0.194   2.195
 3417SOL     OW12147   5.289   3.702   3.366
 3417SOL    HW112148   5.268   3.782   3.413
 3417SOL    HW212149   5.382   3.688   3.382
 3418SOL     OW12150   1.553   2.268  12.869
 3418SOL    HW112151   1.581   2.308  12.786
 3418SOL    HW212152   1.493   2.331  12.907
 3419SOL     OW12153  13.345  12.009  14.791
 3419SOL    HW112154  13.347  11.948  14.718
 3419SOL    HW212155  13.287  11.968  14.855
 3420SOL     OW12156  14.038   9.230  12.832
 3420SOL    HW112157  13.952   9.194  12.854
 3420SOL    HW212158  14.078   9.164  12.776
 3421SOL     OW12159  13.233  13.916   9.149
 3421SOL    HW112160  13.252  14.003   9.185
 3421SOL    HW212161  13.315  13.888   9.108
 3422SOL     OW12162   5.981   7.939  10.486
 3422SOL    HW112163   6.035   7.870  10.447
 3422SOL    HW212164   6.045   7.999  10.525
 3423SOL     OW12165   6.965   4.856  13.035
 3423SOL    HW112166   6.898   4.877  12.969
 3423SOL    HW212167   6.927   4.886  13.118
 3424SOL     OW12168  12.469   8.183  12.090
 3424SOL    HW112169  12.556   8.147  12.075
 3424SOL    HW212170  12.410   8.119  12.050
 3425SOL     OW12171  11.630   0.502   4.368
 3425SOL    HW112172  11.566   0.480   4.435
 3425SOL    HW212173  11.582   0.558   4.307
 3426SOL     OW12174  11.422   9.180  12.751
 3426SOL    HW112175  11.403   9.090  12.726
 3426SOL    HW212176  11.347   9.230  12.721
 3427SOL     OW12177  13.065  13.317  11.447
 3427SOL    HW112178  13.033  13.369  11.521
 3427SOL    HW212179  12.986  13.297  11.396
 3428SOL     OW12180   9.023   5.992  11.440
 3428SOL    HW112181   9.014   6.028  11.352
 3428SOL    HW212182   9.085   6.050  11.484
 3429SOL     OW12183   9.562   6.196  10.364
 3429SOL    HW112184   9.498   6.246  10.415
 3429SOL    HW212185   9.585   6.122  10.420
 3430SOL     OW12186   3.962   1.846   5.665
 3430SOL    HW112187   4.054   1.869   5.676
 3430SOL    HW212188   3.958   1.805   5.579
 3431SOL     OW12189   6.242   2.728  10.362
 3431SOL    HW112190   6.288   2.811  10.365
 3431SOL    HW212191   6.151   2.751  10.347
 3432SOL     OW12192   8.782  11.577   5.431
 3432SOL    HW112193   8.837  11.655   5.421
 3432SOL    HW212194   8.716  11.602   5.496
 3433SOL     OW12195   8.568   1.951  11.650
 3433SOL    HW112196   8.616   1.922  11.727
 3433SOL    HW212197   8.633   1.953  11.580
 3434SOL     OW12198   7.828  12.634  14.710
 3434SOL    HW112199   7.749  12.677  14.742
 3434SOL    HW212200   7.845  12.563  14.773
 3435SOL     OW12201  14.846   8.347   5.868
 3435SOL    HW112202  14.808   8.261   5.885
 3435SOL    HW212203  14.792   8.408   5.918
 3436SOL     OW12204   3.479   9.345  12.538
 3436SOL    HW112205   3.459   9.413  12.602
 3436SOL    HW212206   3.396   9.329  12.492
 3437SOL     OW12207  10.974   4.680   6.145
 3437SOL    HW112208  11.007   4.655   6.232
 3437SOL    HW212209  11.022   4.623   6.085
 3438SOL     OW12210   7.061  14.603   7.681
 3438SOL    HW112211   7.077  14.629   7.590
 3438SOL    HW212212   7.079  14.682   7.732
 3439SOL     OW12213   8.549   5.146   1.754
 3439SOL    HW112214   8.547   5.235   1.719
 3439SOL    HW212215   8.630   5.141   1.804
 3440SOL     OW12216   4.351   1.967   9.070
 3440SOL    HW112217   4.311   2.037   9.019
 3440SOL    HW212218   4.286   1.946   9.138
 3441SOL     OW12219  10.343   4.377   5.570
 3441SOL    HW112220  10.413   4.435   5.601
 3441SOL    HW212221  10.267   4.400   5.625
 3442SOL     OW12222   1.357   5.127   3.709
 3442SOL    HW112223   1.325   5.124   3.619
 3442SOL    HW212224   1.293   5.180   3.755
 3443SOL     OW12225  13.029  14.718   1.782
 3443SOL    HW112226  13.101  14.740   1.724
 3443SOL    HW212227  13.071  14.685   1.862
 3444SOL     OW12228   8.632   6.129   5.218
 3444SOL    HW112229   8.716   6.175   5.226
 3444SOL    HW212230   8.639   6.081   5.135
 3445SOL     OW12231  13.700  14.044   1.300
 3445SOL    HW112232  13.617  14.091   1.295
 3445SOL    HW212233  13.748  14.072   1.221
 3446SOL     OW12234   1.633   3.840   4.859
 3446SOL    HW112235   1.634   3.883   4.944
 3446SOL    HW212236   1.682   3.899   4.802
 3447SOL     OW12237  13.535   5.773  13.230
 3447SOL    HW112238  13.474   5.701  13.248
 3447SOL    HW212239  13.591   5.776  13.308
 3448SOL     OW12240   3.889   5.668   9.179
 3448SOL    HW112241   3.921   5.579   9.168
 3448SOL    HW212242   3.795   5.658   9.197
 3449SOL     OW12243  14.704   5.498   4.576
 3449SOL    HW112244  14.667   5.417   4.612
 3449SOL    HW212245  14.628   5.552   4.555
 3450SOL     OW12246  10.157   3.969   9.235
 3450SOL    HW112247  10.205   4.053   9.233
 3450SOL    HW212248  10.169   3.933   9.148
 3451SOL     OW12249   1.874  10.814   1.486
 3451SOL    HW112250   1.796  10.852   1.446
 3451SOL    HW212251   1.901  10.745   1.425
 3452SOL     OW12252  11.944   8.427   3.955
 3452SOL    HW112253  11.937   8.488   4.029
 3452SOL    HW212254  11.984   8.349   3.993
 3453SOL     OW12255   4.964   9.982   6.152
 3453SOL    HW112256   5.043   9.964   6.102
 3453SOL    HW212257   4.893   9.951   6.096
 3454SOL     OW12258  11.034   5.234   0.536
 3454SOL    HW112259  10.946   5.243   0.572
 3454SOL    HW212260  11.020   5.231   0.441
 3455SOL     OW12261  14.424   4.225  14.207
 3455SOL    HW112262  14.494   4.181  14.160
 3455SOL    HW212263  14.456   4.231  14.297
 3456SOL     OW12264  13.013   6.597  11.999
 3456SOL    HW112265  13.053   6.578  12.083
 3456SOL    HW212266  13.048   6.682  11.973
 3457SOL     OW12267   4.374   7.474   9.712
 3457SOL    HW112268   4.394   7.390   9.671
 3457SOL    HW212269   4.291   7.460   9.757
 3458SOL     OW12270   2.975   6.942   0.495
 3458SOL    HW112271   3.045   6.982   0.443
 3458SOL    HW212272   3.020   6.881   0.553
 3459SOL     OW12273   8.794   8.754  13.607
 3459SOL    HW112274   8.703   8.773  13.584
 3459SOL    HW212275   8.791   8.669  13.650
 3460SOL     OW12276   4.991   5.682   3.854
 3460SOL    HW112277   5.019   5.605   3.805
 3460SOL    HW212278   4.955   5.648   3.935
 3461SOL     OW12279   5.521   5.355   0.015
 3461SOL    HW112280   5.545   5.303   0.092
 3461SOL    HW212281   5.425   5.357   0.018
 3462SOL     OW12282   3.743   4.394  14.489
 3462SOL    HW112283   3.676   4.455  14.458
 3462SOL    HW212284   3.824   4.446  14.492
 3463SOL     OW12285  14.444   4.760   9.507
 3463SOL    HW112286  14.499   4.794   9.436
 3463SOL    HW212287  14.506   4.720   9.568
 3464SOL     OW12288   4.517   8.054   1.089
 3464SOL    HW112289   4.498   7.997   1.164
 3464SOL    HW212290   4.611   8.071   1.095
 3465SOL     OW12291  12.106   4.406   0.066
 3465SOL    HW112292  12.066   4.493   0.068
 3465SOL    HW212293  12.056   4.358  14.887
 3466SOL     OW12294   4.176  11.819   9.239
 3466SOL    HW112295   4.201  11.728   9.255
 3466SOL    HW212296   4.195  11.865   9.321
 3467SOL     OW12297   8.522   0.039   3.795
 3467SOL    HW112298   8.611   0.059   3.766
 3467SOL    HW212299   8.509   0.093   3.872
 3468SOL     OW12300  10.296  10.748   8.689
 3468SOL    HW112301  10.390  10.763   8.684
 3468SOL    HW212302  10.263  10.823   8.738
 3469SOL     OW12303   8.519  12.740   9.595
 3469SOL    HW112304   8.613  12.728   9.600
 3469SOL    HW212305   8.482  12.667   9.646
 3470SOL     OW12306  12.415  10.932   8.849
 3470SOL    HW112307  12.463  11.005   8.809
 3470SOL    HW212308  12.458  10.854   8.814
 3471SOL     OW12309   0.872  13.308   3.576
 3471SOL    HW112310   0.912  13.374   3.633
 3471SOL    HW212311   0.885  13.341   3.488
 3472SOL     OW12312   6.672   0.389  12.783
 3472SOL    HW112313   6.724   0.457  12.825
 3472SOL    HW212314   6.730   0.350  12.718
 3473SOL     OW12315   6.661  10.628   9.156
 3473SOL    HW112316   6.721  10.673   9.215
 3473SOL    HW212317   6.582  10.613   9.208
 3474SOL     OW12318   8.598  13.302  12.057
 3474SOL    HW112319   8.504  13.306  12.039
 3474SOL    HW212320   8.611  13.361  12.132
 3475SOL     OW12321   5.137   8.744   0.842
 3475SOL    HW112322   5.212   8.757   0.900
 3475SOL    HW212323   5.075   8.813   0.868
 3476SOL     OW12324  13.677  12.379   0.863
 3476SOL    HW112325  13.739  12.446   0.835
 3476SOL    HW212326  13.724  12.328   0.929
 3477SOL     OW12327  11.325   0.880  12.457
 3477SOL    HW112328  11.393   0.905  12.394
 3477SOL    HW212329  11.371   0.827  12.522
 3478SOL     OW12330   3.851   4.481  13.829
 3478SOL    HW112331   3.944   4.499  13.818
 3478SOL    HW212332   3.808   4.560  13.796
 3479SOL     OW12333   6.202   3.906   8.969
 3479SOL    HW112334   6.257   3.884   8.894
 3479SOL    HW212335   6.189   4.001   8.963
 3480SOL     OW12336   8.250  13.219   0.491
 3480SOL    HW112337   8.225  13.307   0.519
 3480SOL    HW212338   8.343  13.213   0.512
 3481SOL     OW12339  12.828   4.171   1.548
 3481SOL    HW112340  12.748   4.126   1.522
 3481SOL    HW212341  12.804   4.218   1.629
 3482SOL     OW12342  11.597  11.992   8.060
 3482SOL    HW112343  11.546  11.921   8.099
 3482SOL    HW212344  11.644  12.031   8.134
 3483SOL     OW12345   9.276   9.160   4.953
 3483SOL    HW112346   9.305   9.228   5.014
 3483SOL    HW212347   9.272   9.204   4.868
 3484SOL     OW12348   8.573   8.867   2.117
 3484SOL    HW112349   8.535   8.929   2.179
 3484SOL    HW212350   8.530   8.784   2.138
 3485SOL     OW12351   3.970   1.176   9.574
 3485SOL    HW112352   3.961   1.255   9.520
 3485SOL    HW212353   3.995   1.209   9.660
 3486SOL     OW12354   0.600   9.185   7.908
 3486SOL    HW112355   0.551   9.243   7.966
 3486SOL    HW212356   0.683   9.231   7.892
 3487SOL     OW12357   9.271   5.196   6.534
 3487SOL    HW112358   9.364   5.207   6.553
 3487SOL    HW212359   9.230   5.185   6.620
 3488SOL     OW12360  14.082   4.817  13.037
 3488SOL    HW112361  14.012   4.880  13.021
 3488SOL    HW212362  14.134   4.819  12.956
 3489SOL     OW12363   9.328   4.450  10.888
 3489SOL    HW112364   9.300   4.541  10.902
 3489SOL    HW212365   9.308   4.433  10.796
 3490SOL     OW12366  14.667  10.083   3.034
 3490SOL    HW112367  14.655  10.136   2.955
 3490SOL    HW212368  14.759  10.058   3.032
 3491SOL     OW12369  11.289   6.436   4.282
 3491SOL    HW112370  11.368   6.437   4.228
 3491SOL    HW212371  11.283   6.346   4.314
 3492SOL     OW12372   3.066   2.542  13.224
 3492SOL    HW112373   3.132   2.524  13.290
 3492SOL    HW212374   3.115   2.552  13.142
 3493SOL     OW12375   6.129  13.173   4.543
 3493SOL    HW112376   6.087  13.102   4.494
 3493SOL    HW212377   6.103  13.158   4.634
 3494SOL     OW12378  10.178   4.472   8.605
 3494SOL    HW112379  10.186   4.431   8.691
 3494SOL    HW212380  10.255   4.527   8.597
 3495SOL     OW12381   9.296  10.344   0.734
 3495SOL    HW112382   9.357  10.405   0.777
 3495SOL    HW212383   9.211  10.365   0.771
 3496SOL     OW12384   8.707   7.099  13.915
 3496SOL    HW112385   8.784   7.073  13.965
 3496SOL    HW212386   8.633   7.070  13.968
 3497SOL     OW12387   1.876   9.626   7.446
 3497SOL    HW112388   1.797   9.667   7.481
 3497SOL    HW212389   1.860   9.621   7.352
 3498SOL     OW12390   8.045  10.396   5.838
 3498SOL    HW112391   7.990  10.381   5.915
 3498SOL    HW212392   8.099  10.318   5.831
 3499SOL     OW12393   4.033   1.433   3.341
 3499SOL    HW112394   4.017   1.466   3.430
 3499SOL    HW212395   4.118   1.391   3.346
 3500SOL     OW12396   9.200  10.030   5.584
 3500SOL    HW112397   9.174  10.072   5.666
 3500SOL    HW212398   9.177  10.093   5.516
 3501SOL     OW12399  11.196  14.064   7.579
 3501SOL    HW112400  11.274  14.116   7.557
 3501SOL    HW212401  11.211  13.980   7.537
 3502SOL     OW12402   3.823   8.548  10.574
 3502SOL    HW112403   3.854   8.639  10.571
 3502SOL    HW212404   3.775   8.536  10.493
 3503SOL     OW12405   7.545   1.859   4.070
 3503SOL    HW112406   7.481   1.834   4.136
 3503SOL    HW212407   7.612   1.907   4.118
 3504SOL     OW12408   4.525   6.530   8.219
 3504SOL    HW112409   4.433   6.509   8.235
 3504SOL    HW212410   4.573   6.474   8.280
 3505SOL     OW12411  11.157   5.485  14.255
 3505SOL    HW112412  11.227   5.525  14.204
 3505SOL    HW212413  11.142   5.401  14.212
 3506SOL     OW12414  11.515  11.401   2.679
 3506SOL    HW112415  11.503  11.485   2.633
 3506SOL    HW212416  11.604  11.374   2.656
 3507SOL     OW12417  12.100   6.230  13.804
 3507SOL    HW112418  12.173   6.266  13.854
 3507SOL    HW212419  12.024   6.238  13.862
 3508SOL     OW12420   9.971   9.018   8.753
 3508SOL    HW112421   9.884   9.044   8.724
 3508SOL    HW212422  10.012   9.099   8.782
 3509SOL     OW12423   6.725   3.736  10.712
 3509SOL    HW112424   6.646   3.701  10.670
 3509SOL    HW212425   6.795   3.721  10.648
 3510SOL     OW12426   9.268   7.499   5.554
 3510SOL    HW112427   9.226   7.524   5.472
 3510SOL    HW212428   9.354   7.467   5.528
 3511SOL     OW12429   6.712   3.111   3.991
 3511SOL    HW112430   6.720   3.061   4.072
 3511SOL    HW212431   6.802   3.123   3.962
 3512SOL     OW12432   5.312  12.593   5.924
 3512SOL    HW112433   5.325  12.501   5.948
 3512SOL    HW212434   5.237  12.591   5.863
 3513SOL     OW12435   1.910   6.228   5.858
 3513SOL    HW112436   1.987   6.262   5.904
 3513SOL    HW212437   1.836   6.275   5.898
 3514SOL     OW12438   6.224   9.638   4.306
 3514SOL    HW112439   6.180   9.716   4.339
 3514SOL    HW212440   6.165   9.603   4.239
 3515SOL     OW12441   6.880   3.428   0.171
 3515SOL    HW112442   6.890   3.521   0.151
 3515SOL    HW212443   6.838   3.426   0.257
 3516SOL     OW12444   6.018   6.737   6.005
 3516SOL    HW112445   6.004   6.729   6.099
 3516SOL    HW212446   5.983   6.824   5.983
 3517SOL     OW12447   9.143   3.587   7.581
 3517SOL    HW112448   9.232   3.615   7.558
 3517SOL    HW212449   9.088   3.619   7.509
 3518SOL     OW12450   0.183   3.404  14.261
 3518SOL    HW112451   0.206   3.399  14.353
 3518SOL    HW212452   0.256   3.363  14.215
 3519SOL     OW12453   7.763   0.597  13.254
 3519SOL    HW112454   7.833   0.595  13.188
 3519SOL    HW212455   7.765   0.509  13.293
 3520SOL     OW12456   0.495   7.641   7.398
 3520SOL    HW112457   0.565   7.655   7.335
 3520SOL    HW212458   0.420   7.688   7.362
 3521SOL     OW12459   0.196   1.459  12.235
 3521SOL    HW112460   0.188   1.506  12.152
 3521SOL    HW212461   0.221   1.526  12.299
 3522SOL     OW12462   2.840   5.649  10.996
 3522SOL    HW112463   2.925   5.629  11.035
 3522SOL    HW212464   2.850   5.630  10.903
 3523SOL     OW12465   0.945   3.577   3.974
 3523SOL    HW112466   0.954   3.497   4.026
 3523SOL    HW212467   1.035   3.604   3.956
 3524SOL     OW12468   2.019   3.451   8.323
 3524SOL    HW112469   1.976   3.532   8.349
 3524SOL    HW212470   1.967   3.382   8.364
 3525SOL     OW12471   1.510  10.121   9.248
 3525SOL    HW112472   1.500  10.177   9.324
 3525SOL    HW212473   1.461  10.166   9.178
 3526SOL     OW12474   9.054   3.430   0.004
 3526SOL    HW112475   9.106   3.463  14.818
 3526SOL    HW212476   9.118   3.388   0.062
 3527SOL     OW12477   0.477  13.098   1.283
 3527SOL    HW112478   0.555  13.085   1.228
 3527SOL    HW212479   0.405  13.063   1.230
 3528SOL     OW12480  11.821   6.328   3.972
 3528SOL    HW112481  11.799   6.349   3.882
 3528SOL    HW212482  11.874   6.249   3.967
 3529SOL     OW12483   0.902   4.141   8.961
 3529SOL    HW112484   0.820   4.164   8.918
 3529SOL    HW212485   0.907   4.201   9.036
 3530SOL     OW12486   2.690  10.860   0.713
 3530SOL    HW112487   2.768  10.887   0.664
 3530SOL    HW212488   2.685  10.765   0.699
 3531SOL     OW12489   7.050   4.379   1.178
 3531SOL    HW112490   7.094   4.463   1.185
 3531SOL    HW212491   7.021   4.360   1.267
 3532SOL     OW12492  13.267  10.212  13.493
 3532SOL    HW112493  13.231  10.293  13.457
 3532SOL    HW212494  13.331  10.182  13.428
 3533SOL     OW12495  14.848   7.806  13.864
 3533SOL    HW112496  14.798   7.760  13.931
 3533SOL    HW212497   0.049   7.811  13.900
 3534SOL     OW12498   4.457   8.807  13.025
 3534SOL    HW112499   4.550   8.798  13.003
 3534SOL    HW212500   4.413   8.807  12.940
 3535SOL     OW12501  13.867   8.330  14.604
 3535SOL    HW112502  13.807   8.397  14.575
 3535SOL    HW212503  13.952   8.374  14.608
 3536SOL     OW12504  11.065  11.172   0.010
 3536SOL    HW112505  10.988  11.118  14.879
 3536SOL    HW212506  11.132  11.110   0.040
 3537SOL     OW12507   6.565   8.914   6.599
 3537SOL    HW112508   6.652   8.946   6.626
 3537SOL    HW212509   6.584   8.856   6.525
 3538SOL     OW12510   4.950  14.717   8.681
 3538SOL    HW112511   4.864  14.722   8.724
 3538SOL    HW212512   4.969  14.624   8.676
 3539SOL     OW12513   1.899  11.100   1.257
 3539SOL    HW112514   1.958  11.158   1.209
 3539SOL    HW212515   1.826  11.156   1.284
 3540SOL     OW12516   8.087  12.272   7.537
 3540SOL    HW112517   8.052  12.297   7.623
 3540SOL    HW212518   8.180  12.296   7.542
 3541SOL     OW12519   9.487  12.120   6.574
 3541SOL    HW112520   9.411  12.071   6.608
 3541SOL    HW212521   9.494  12.091   6.482
 3542SOL     OW12522   8.687  13.590   8.929
 3542SOL    HW112523   8.720  13.605   9.018
 3542SOL    HW212524   8.756  13.624   8.872
 3543SOL     OW12525  14.394   8.901   0.257
 3543SOL    HW112526  14.479   8.869   0.228
 3543SOL    HW212527  14.413   8.988   0.293
 3544SOL     OW12528   0.059   9.235  10.765
 3544SOL    HW112529   0.089   9.266  10.679
 3544SOL    HW212530   0.040   9.315  10.814
 3545SOL     OW12531   7.257   5.418  14.290
 3545SOL    HW112532   7.273   5.468  14.210
 3545SOL    HW212533   7.339   5.421  14.337
 3546SOL     OW12534   3.643  11.638   1.427
 3546SOL    HW112535   3.548  11.652   1.428
 3546SOL    HW212536   3.680  11.725   1.440
 3547SOL     OW12537   0.450   0.778   9.868
 3547SOL    HW112538   0.397   0.701   9.844
 3547SOL    HW212539   0.507   0.792   9.792
 3548SOL     OW12540   3.112   0.806   7.083
 3548SOL    HW112541   3.130   0.739   7.017
 3548SOL    HW212542   3.195   0.853   7.091
 3549SOL     OW12543   8.922  13.434   5.337
 3549SOL    HW112544   8.861  13.361   5.350
 3549SOL    HW212545   8.976  13.408   5.263
 3550SOL     OW12546   6.127   6.655   5.201
 3550SOL    HW112547   6.081   6.702   5.270
 3550SOL    HW212548   6.219   6.657   5.227
 3551SOL     OW12549   0.904  12.796   0.634
 3551SOL    HW112550   0.822  12.835   0.604
 3551SOL    HW212551   0.891  12.702   0.624
 3552SOL     OW12552   2.316   1.855   9.098
 3552SOL    HW112553   2.309   1.919   9.169
 3552SOL    HW212554   2.225   1.827   9.082
 3553SOL     OW12555  12.431  11.184   8.304
 3553SOL    HW112556  12.505  11.199   8.363
 3553SOL    HW212557  12.467  11.128   8.235
 3554SOL     OW12558   9.821   3.010  12.425
 3554SOL    HW112559   9.881   2.936  12.412
 3554SOL    HW212560   9.872   3.074  12.475
 3555SOL     OW12561   4.293   8.176   4.647
 3555SOL    HW112562   4.326   8.221   4.725
 3555SOL    HW212563   4.274   8.087   4.676
 3556SOL     OW12564   5.305  13.573   8.745
 3556SOL    HW112565   5.366  13.501   8.729
 3556SOL    HW212566   5.323  13.600   8.835
 3557SOL     OW12567  12.728  10.503   3.029
 3557SOL    HW112568  12.706  10.413   3.052
 3557SOL    HW212569  12.798  10.494   2.965
 3558SOL     OW12570   4.548   0.838   2.241
 3558SOL    HW112571   4.494   0.832   2.320
 3558SOL    HW212572   4.484   0.844   2.169
 3559SOL     OW12573   7.233   2.070  12.371
 3559SOL    HW112574   7.322   2.105  12.366
 3559SOL    HW212575   7.194   2.091  12.286
 3560SOL     OW12576   5.742   2.642   0.710
 3560SOL    HW112577   5.696   2.699   0.648
 3560SOL    HW212578   5.835   2.656   0.691
 3561SOL     OW12579  12.026  12.611  12.847
 3561SOL    HW112580  12.091  12.545  12.871
 3561SOL    HW212581  11.951  12.593  12.904
 3562SOL     OW12582   5.493   2.632  14.492
 3562SOL    HW112583   5.537   2.713  14.518
 3562SOL    HW212584   5.496   2.577  14.571
 3563SOL     OW12585   5.312  14.632   2.580
 3563SOL    HW112586   5.370  14.694   2.534
 3563SOL    HW212587   5.335  14.547   2.543
 3564SOL     OW12588  10.798   2.558  12.448
 3564SOL    HW112589  10.759   2.628  12.396
 3564SOL    HW212590  10.863   2.601  12.502
 3565SOL     OW12591   7.799   3.938   5.431
 3565SOL    HW112592   7.890   3.909   5.426
 3565SOL    HW212593   7.756   3.897   5.356
 3566SOL     OW12594  12.046   7.531   0.265
 3566SOL    HW112595  12.040   7.501   0.356
 3566SOL    HW212596  12.110   7.473   0.225
 3567SOL     OW12597   2.744   4.721  13.432
 3567SOL    HW112598   2.755   4.640  13.382
 3567SOL    HW212599   2.798   4.785  13.386
 3568SOL     OW12600   9.613   3.299  10.369
 3568SOL    HW112601   9.613   3.212  10.329
 3568SOL    HW212602   9.701   3.332  10.355
 3569SOL     OW12603  11.284   9.810   4.340
 3569SOL    HW112604  11.300   9.812   4.435
 3569SOL    HW212605  11.368   9.787   4.302
 3570SOL     OW12606   7.962  11.207   2.101
 3570SOL    HW112607   7.939  11.157   2.022
 3570SOL    HW212608   8.050  11.175   2.124
 3571SOL     OW12609  10.939  11.700   3.537
 3571SOL    HW112610  10.922  11.611   3.505
 3571SOL    HW212611  10.869  11.753   3.499
 3572SOL     OW12612  12.234   8.242   0.451
 3572SOL    HW112613  12.198   8.292   0.378
 3572SOL    HW212614  12.171   8.171   0.465
 3573SOL     OW12615   1.673  11.904  11.866
 3573SOL    HW112616   1.655  11.836  11.800
 3573SOL    HW212617   1.591  11.954  11.872
 3574SOL     OW12618   4.748  14.597  10.791
 3574SOL    HW112619   4.834  14.556  10.800
 3574SOL    HW212620   4.687  14.524  10.797
 3575SOL     OW12621  11.600   3.739   6.262
 3575SOL    HW112622  11.657   3.761   6.336
 3575SOL    HW212623  11.652   3.759   6.185
 3576SOL     OW12624   3.585  11.517  12.397
 3576SOL    HW112625   3.666  11.541  12.440
 3576SOL    HW212626   3.561  11.593  12.344
 3577SOL     OW12627  11.631  13.806   2.180
 3577SOL    HW112628  11.720  13.782   2.206
 3577SOL    HW212629  11.595  13.726   2.142
 3578SOL     OW12630   1.835   4.241  10.236
 3578SOL    HW112631   1.910   4.300  10.230
 3578SOL    HW212632   1.855   4.170  10.174
 3579SOL     OW12633  11.142   4.385   7.829
 3579SOL    HW112634  11.048   4.374   7.818
 3579SOL    HW212635  11.158   4.477   7.807
 3580SOL     OW12636   3.880   7.345   6.697
 3580SOL    HW112637   3.914   7.392   6.620
 3580SOL    HW212638   3.938   7.270   6.706
 3581SOL     OW12639   3.945   1.445   9.201
 3581SOL    HW112640   3.953   1.437   9.296
 3581SOL    HW212641   3.980   1.363   9.166
 3582SOL     OW12642  11.619   5.487   2.881
 3582SOL    HW112643  11.546   5.495   2.942
 3582SOL    HW212644  11.659   5.574   2.879
 3583SOL     OW12645   1.235   7.234  10.039
 3583SOL    HW112646   1.168   7.169  10.059
 3583SOL    HW212647   1.273   7.203   9.956
 3584SOL     OW12648  13.004  11.471  13.437
 3584SOL    HW112649  12.969  11.403  13.496
 3584SOL    HW212650  12.926  11.512  13.400
 3585SOL     OW12651   0.635   9.357  12.171
 3585SOL    HW112652   0.563   9.395  12.120
 3585SOL    HW212653   0.613   9.264  12.177
 3586SOL     OW12654   6.933   0.311   1.096
 3586SOL    HW112655   6.982   0.344   1.171
 3586SOL    HW212656   6.852   0.363   1.095
 3587SOL     OW12657  13.771   8.382   9.453
 3587SOL    HW112658  13.793   8.474   9.469
 3587SOL    HW212659  13.693   8.367   9.507
 3588SOL     OW12660  10.059  12.909   8.897
 3588SOL    HW112661  10.094  12.840   8.953
 3588SOL    HW212662  10.108  12.987   8.921
 3589SOL     OW12663   9.507   2.428  14.209
 3589SOL    HW112664   9.542   2.453  14.123
 3589SOL    HW212665   9.430   2.483  14.221
 3590SOL     OW12666  13.517  13.325   9.193
 3590SOL    HW112667  13.545  13.268   9.265
 3590SOL    HW212668  13.429  13.353   9.218
 3591SOL     OW12669  13.263   5.189  14.077
 3591SOL    HW112670  13.172   5.172  14.051
 3591SOL    HW212671  13.257   5.260  14.140
 3592SOL     OW12672  12.748   0.364  11.851
 3592SOL    HW112673  12.654   0.377  11.863
 3592SOL    HW212674  12.763   0.272  11.876
 3593SOL     OW12675   4.393  11.806  12.052
 3593SOL    HW112676   4.434  11.833  11.970
 3593SOL    HW212677   4.453  11.741  12.089
 3594SOL     OW12678   7.187   2.395   1.454
 3594SOL    HW112679   7.099   2.403   1.416
 3594SOL    HW212680   7.177   2.422   1.545
 3595SOL     OW12681  11.935  11.160   7.383
 3595SOL    HW112682  11.858  11.156   7.326
 3595SOL    HW212683  11.907  11.214   7.457
 3596SOL     OW12684   3.327   5.756   2.737
 3596SOL    HW112685   3.367   5.751   2.823
 3596SOL    HW212686   3.384   5.815   2.687
 3597SOL     OW12687  10.884  10.683   3.844
 3597SOL    HW112688  10.896  10.616   3.777
 3597SOL    HW212689  10.971  10.720   3.857
 3598SOL     OW12690   1.725   5.607   7.352
 3598SOL    HW112691   1.640   5.590   7.392
 3598SOL    HW212692   1.743   5.699   7.372
 3599SOL     OW12693   0.803   6.724   3.506
 3599SOL    HW112694   0.838   6.671   3.578
 3599SOL    HW212695   0.792   6.662   3.434
 3600SOL     OW12696  10.723  11.017   2.951
 3600SOL    HW112697  10.634  10.983   2.958
 3600SOL    HW212698  10.740  11.019   2.857
 3601SOL     OW12699  14.079  10.332   3.538
 3601SOL    HW112700  14.150  10.314   3.476
 3601SOL    HW212701  14.023  10.395   3.492
 3602SOL     OW12702   7.810   2.465   9.229
 3602SOL    HW112703   7.764   2.545   9.202
 3602SOL    HW212704   7.890   2.497   9.271
 3603SOL     OW12705  13.804   7.805   7.023
 3603SOL    HW112706  13.709   7.814   7.017
 3603SOL    HW212707  13.833   7.884   7.069
 3604SOL     OW12708  11.328   1.474  12.830
 3604SOL    HW112709  11.334   1.409  12.760
 3604SOL    HW212710  11.417   1.508  12.839
 3605SOL     OW12711  13.440  13.151  13.756
 3605SOL    HW112712  13.387  13.096  13.815
 3605SOL    HW212713  13.380  13.173  13.685
 3606SOL     OW12714  13.015  10.125   4.335
 3606SOL    HW112715  13.076  10.073   4.282
 3606SOL    HW212716  12.985  10.194   4.276
 3607SOL     OW12717  10.898   6.340  12.165
 3607SOL    HW112718  10.850   6.402  12.110
 3607SOL    HW212719  10.866   6.356  12.254
 3608SOL     OW12720  14.363   8.664  14.196
 3608SOL    HW112721  14.372   8.751  14.235
 3608SOL    HW212722  14.432   8.612  14.236
 3609SOL     OW12723   9.232   2.428   9.291
 3609SOL    HW112724   9.202   2.514   9.261
 3609SOL    HW212725   9.152   2.375   9.292
 3610SOL     OW12726   8.401   3.140   8.245
 3610SOL    HW112727   8.372   3.052   8.220
 3610SOL    HW212728   8.323   3.194   8.236
 3611SOL     OW12729   8.222   2.316   0.865
 3611SOL    HW112730   8.239   2.321   0.959
 3611SOL    HW212731   8.307   2.299   0.826
 3612SOL     OW12732   1.961   4.436   3.052
 3612SOL    HW112733   1.973   4.436   3.147
 3612SOL    HW212734   1.891   4.373   3.036
 3613SOL     OW12735   0.041   2.389   4.078
 3613SOL    HW112736   0.079   2.476   4.061
 3613SOL    HW212737   0.060   2.372   4.170
 3614SOL     OW12738   3.360   1.148  10.571
 3614SOL    HW112739   3.381   1.207  10.498
 3614SOL    HW212740   3.285   1.097  10.540
 3615SOL     OW12741  11.824   0.629  12.904
 3615SOL    HW112742  11.742   0.621  12.952
 3615SOL    HW212743  11.843   0.723  12.903
 3616SOL     OW12744   5.569   0.599  14.337
 3616SOL    HW112745   5.600   0.685  14.312
 3616SOL    HW212746   5.500   0.578  14.274
 3617SOL     OW12747   5.087   5.224  12.891
 3617SOL    HW112748   5.121   5.308  12.922
 3617SOL    HW212749   4.995   5.226  12.916
 3618SOL     OW12750   6.294   2.951   4.563
 3618SOL    HW112751   6.343   2.870   4.576
 3618SOL    HW212752   6.256   2.942   4.476
 3619SOL     OW12753  14.520   8.506   0.437
 3619SOL    HW112754  14.587   8.535   0.498
 3619SOL    HW212755  14.569   8.485   0.357
 3620SOL     OW12756   5.511   4.282  10.554
 3620SOL    HW112757   5.548   4.286  10.466
 3620SOL    HW212758   5.562   4.214  10.598
 3621SOL     OW12759   0.651  11.310   0.099
 3621SOL    HW112760   0.744  11.288   0.095
 3621SOL    HW212761   0.623  11.281   0.185
 3622SOL     OW12762   9.714   0.718   9.045
 3622SOL    HW112763   9.798   0.680   9.021
 3622SOL    HW212764   9.716   0.807   9.009
 3623SOL     OW12765   0.031  14.019  12.136
 3623SOL    HW112766   0.062  14.026  12.045
 3623SOL    HW212767   0.096  14.066  12.187
 3624SOL     OW12768  12.262  14.507   7.346
 3624SOL    HW112769  12.184  14.541   7.304
 3624SOL    HW212770  12.230  14.440   7.407
 3625SOL     OW12771  13.711   7.320   6.230
 3625SOL    HW112772  13.775   7.342   6.299
 3625SOL    HW212773  13.764   7.314   6.150
 3626SOL     OW12774   8.908   0.533  11.683
 3626SOL    HW112775   8.920   0.598  11.752
 3626SOL    HW212776   8.993   0.489  11.676
 3627SOL     OW12777  12.340   6.463   3.726
 3627SOL    HW112778  12.263   6.457   3.781
 3627SOL    HW212779  12.327   6.543   3.675
 3628SOL     OW12780   5.308  12.718  10.440
 3628SOL    HW112781   5.234  12.760  10.484
 3628SOL    HW212782   5.277  12.631  10.416
 3629SOL     OW12783  10.436  10.311   6.059
 3629SOL    HW112784  10.454  10.390   6.111
 3629SOL    HW212785  10.504  10.249   6.084
 3630SOL     OW12786   9.842   5.719   8.128
 3630SOL    HW112787   9.767   5.662   8.117
 3630SOL    HW212788   9.826   5.764   8.211
 3631SOL     OW12789   8.295   0.041   6.756
 3631SOL    HW112790   8.314   0.065   6.665
 3631SOL    HW212791   8.380   0.020   6.794
 3632SOL     OW12792  11.814   4.017  12.474
 3632SOL    HW112793  11.758   3.956  12.522
 3632SOL    HW212794  11.754   4.082  12.437
 3633SOL     OW12795  12.704   7.046   3.317
 3633SOL    HW112796  12.733   7.017   3.230
 3633SOL    HW212797  12.626   7.098   3.300
 3634SOL     OW12798   6.508   1.835  10.713
 3634SOL    HW112799   6.468   1.920  10.731
 3634SOL    HW212800   6.443   1.788  10.661
 3635SOL     OW12801  11.552   1.286  12.441
 3635SOL    HW112802  11.608   1.247  12.374
 3635SOL    HW212803  11.523   1.369  12.403
 3636SOL     OW12804   8.460   8.529   0.232
 3636SOL    HW112805   8.480   8.594   0.165
 3636SOL    HW212806   8.387   8.567   0.281
 3637SOL     OW12807   1.844   6.966  10.055
 3637SOL    HW112808   1.844   6.908   9.978
 3637SOL    HW212809   1.847   6.906  10.130
 3638SOL     OW12810   6.196   4.533   3.098
 3638SOL    HW112811   6.237   4.619   3.085
 3638SOL    HW212812   6.241   4.476   3.036
 3639SOL     OW12813   3.709   4.082  10.555
 3639SOL    HW112814   3.670   4.010  10.606
 3639SOL    HW212815   3.670   4.074  10.468
 3640SOL     OW12816   6.600   8.209   4.990
 3640SOL    HW112817   6.640   8.213   4.904
 3640SOL    HW212818   6.645   8.278   5.040
 3641SOL     OW12819   9.621  10.547   7.866
 3641SOL    HW112820   9.537  10.528   7.825
 3641SOL    HW212821   9.647  10.464   7.905
 3642SOL     OW12822   2.928   3.775   0.820
 3642SOL    HW112823   2.951   3.685   0.841
 3642SOL    HW212824   2.881   3.769   0.736
 3643SOL     OW12825   5.716   3.247  13.413
 3643SOL    HW112826   5.695   3.331  13.373
 3643SOL    HW212827   5.743   3.270  13.502
 3644SOL     OW12828  14.420   7.100  13.056
 3644SOL    HW112829  14.496   7.119  13.112
 3644SOL    HW212830  14.453   7.111  12.967
 3645SOL     OW12831   2.588   9.657  12.814
 3645SOL    HW112832   2.586   9.749  12.786
 3645SOL    HW212833   2.521   9.614  12.761
 3646SOL     OW12834  13.298   9.971   1.734
 3646SOL    HW112835  13.247   9.914   1.676
 3646SOL    HW212836  13.375   9.995   1.682
 3647SOL     OW12837  11.948  11.401  11.370
 3647SOL    HW112838  11.936  11.462  11.297
 3647SOL    HW212839  11.867  11.409  11.421
 3648SOL     OW12840  11.774  10.165   9.688
 3648SOL    HW112841  11.760  10.220   9.765
 3648SOL    HW212842  11.861  10.127   9.701
 3649SOL     OW12843   5.068   2.333  13.326
 3649SOL    HW112844   5.130   2.354  13.396
 3649SOL    HW212845   4.987   2.309  13.372
 3650SOL     OW12846  14.663   6.692   7.202
 3650SOL    HW112847  14.600   6.715   7.270
 3650SOL    HW212848  14.670   6.770   7.147
 3651SOL     OW12849   1.680   8.045  11.052
 3651SOL    HW112850   1.674   7.981  11.123
 3651SOL    HW212851   1.763   8.090  11.067
 3652SOL     OW12852   5.109   0.635  11.115
 3652SOL    HW112853   5.092   0.598  11.028
 3652SOL    HW212854   5.071   0.571  11.175
 3653SOL     OW12855   2.050   5.479  11.501
 3653SOL    HW112856   2.036   5.396  11.548
 3653SOL    HW212857   2.128   5.517  11.541
 3654SOL     OW12858   2.717   3.675  11.698
 3654SOL    HW112859   2.697   3.607  11.633
 3654SOL    HW212860   2.778   3.633  11.759
 3655SOL     OW12861  13.461   5.247  14.365
 3655SOL    HW112862  13.434   5.293  14.445
 3655SOL    HW212863  13.379   5.218  14.326
 3656SOL     OW12864   8.672  13.272  10.942
 3656SOL    HW112865   8.689  13.197  10.999
 3656SOL    HW212866   8.680  13.237  10.853
 3657SOL     OW12867  10.148   0.694   6.031
 3657SOL    HW112868  10.078   0.750   6.065
 3657SOL    HW212869  10.129   0.608   6.068
 3658SOL     OW12870   1.138   5.262  14.134
 3658SOL    HW112871   1.133   5.250  14.228
 3658SOL    HW212872   1.109   5.179  14.097
 3659SOL     OW12873  14.303  11.941   9.644
 3659SOL    HW112874  14.349  11.912   9.565
 3659SOL    HW212875  14.260  11.862   9.678
 3660SOL     OW12876   2.690   4.960   6.216
 3660SOL    HW112877   2.781   4.956   6.188
 3660SOL    HW212878   2.642   4.991   6.139
 3661SOL     OW12879   9.520  12.192  11.452
 3661SOL    HW112880   9.528  12.220  11.361
 3661SOL    HW212881   9.465  12.258  11.494
 3662SOL     OW12882  12.237   8.912  13.986
 3662SOL    HW112883  12.204   8.924  14.075
 3662SOL    HW212884  12.261   8.820  13.982
 3663SOL     OW12885   1.334   7.085   7.084
 3663SOL    HW112886   1.336   6.990   7.091
 3663SOL    HW212887   1.296   7.102   6.998
 3664SOL     OW12888   1.932   0.802   1.242
 3664SOL    HW112889   1.888   0.751   1.310
 3664SOL    HW212890   2.016   0.827   1.282
 3665SOL     OW12891   1.965   2.704   1.553
 3665SOL    HW112892   1.960   2.646   1.477
 3665SOL    HW212893   1.883   2.688   1.601
 3666SOL     OW12894   4.462   7.706   4.612
 3666SOL    HW112895   4.434   7.773   4.550
 3666SOL    HW212896   4.555   7.725   4.627
 3667SOL     OW12897   6.016   5.553   6.345
 3667SOL    HW112898   6.012   5.647   6.367
 3667SOL    HW212899   5.951   5.512   6.402
 3668SOL     OW12900  11.547   4.867   0.363
 3668SOL    HW112901  11.515   4.789   0.408
 3668SOL    HW212902  11.585   4.921   0.432
 3669SOL     OW12903   0.532   1.652   4.754
 3669SOL    HW112904   0.626   1.643   4.735
 3669SOL    HW212905   0.501   1.717   4.691
 3670SOL     OW12906  12.633   5.109  13.363
 3670SOL    HW112907  12.656   5.027  13.320
 3670SOL    HW212908  12.674   5.103  13.449
 3671SOL     OW12909   0.633  12.984   2.135
 3671SOL    HW112910   0.724  12.991   2.163
 3671SOL    HW212911   0.583  13.015   2.211
 3672SOL     OW12912   1.065  14.736   0.309
 3672SOL    HW112913   1.030  14.749   0.397
 3672SOL    HW212914   1.021  14.657   0.277
 3673SOL     OW12915   6.138   6.587  14.479
 3673SOL    HW112916   6.064   6.625  14.526
 3673SOL    HW212917   6.213   6.600  14.537
 3674SOL     OW12918   0.093  10.253   1.733
 3674SOL    HW112919   0.083  10.347   1.740
 3674SOL    HW212920   0.167  10.241   1.674
 3675SOL     OW12921   2.172   3.068   0.454
 3675SOL    HW112922   2.259   3.032   0.464
 3675SOL    HW212923   2.117   3.014   0.510
 3676SOL     OW12924  12.018   6.249  10.820
 3676SOL    HW112925  12.050   6.260  10.731
 3676SOL    HW212926  12.065   6.316  10.870
 3677SOL     OW12927   1.237  13.722   3.726
 3677SOL    HW112928   1.203  13.637   3.753
 3677SOL    HW212929   1.208  13.731   3.635
 3678SOL     OW12930   0.907  11.769   6.545
 3678SOL    HW112931   0.973  11.765   6.476
 3678SOL    HW212932   0.826  11.793   6.499
 3679SOL     OW12933   8.595   9.187  13.090
 3679SOL    HW112934   8.636   9.263  13.130
 3679SOL    HW212935   8.530   9.223  13.029
 3680SOL     OW12936   7.794  13.018   1.232
 3680SOL    HW112937   7.872  13.039   1.181
 3680SOL    HW212938   7.778  13.097   1.283
 3681SOL     OW12939   3.412  12.938   5.178
 3681SOL    HW112940   3.368  12.932   5.263
 3681SOL    HW212941   3.493  12.889   5.189
 3682SOL     OW12942   1.937   7.485  13.419
 3682SOL    HW112943   2.027   7.472  13.450
 3682SOL    HW212944   1.916   7.575  13.444
 3683SOL     OW12945   5.713   3.041  11.801
 3683SOL    HW112946   5.747   2.961  11.842
 3683SOL    HW212947   5.785   3.072  11.746
 3684SOL     OW12948  11.957   2.026   7.335
 3684SOL    HW112949  12.027   2.017   7.270
 3684SOL    HW212950  11.932   2.118   7.330
 3685SOL     OW12951   2.535   7.956   2.265
 3685SOL    HW112952   2.501   7.936   2.177
 3685SOL    HW212953   2.628   7.973   2.252
 3686SOL     OW12954   6.720   6.878   5.220
 3686SOL    HW112955   6.639   6.921   5.192
 3686SOL    HW212956   6.766   6.945   5.270
 3687SOL     OW12957  12.687  11.798   2.201
 3687SOL    HW112958  12.720  11.832   2.284
 3687SOL    HW212959  12.700  11.871   2.139
 3688SOL     OW12960  13.585   6.956  11.356
 3688SOL    HW112961  13.656   6.941  11.419
 3688SOL    HW212962  13.581   7.051  11.346
 3689SOL     OW12963   7.247   9.686   4.543
 3689SOL    HW112964   7.323   9.742   4.558
 3689SOL    HW212965   7.284   9.598   4.538
 3690SOL     OW12966   6.577  12.696   5.628
 3690SOL    HW112967   6.663  12.682   5.590
 3690SOL    HW212968   6.518  12.645   5.572
 3691SOL     OW12969   8.521   6.487   3.412
 3691SOL    HW112970   8.514   6.549   3.340
 3691SOL    HW212971   8.561   6.537   3.483
 3692SOL     OW12972  12.091   7.801   7.495
 3692SOL    HW112973  12.176   7.778   7.458
 3692SOL    HW212974  12.052   7.717   7.522
 3693SOL     OW12975   6.666  11.152  12.470
 3693SOL    HW112976   6.625  11.142  12.556
 3693SOL    HW212977   6.617  11.093  12.413
 3694SOL     OW12978  13.100   9.295   6.525
 3694SOL    HW112979  13.143   9.251   6.451
 3694SOL    HW212980  13.056   9.370   6.486
 3695SOL     OW12981   6.505   9.039  12.793
 3695SOL    HW112982   6.484   8.975  12.861
 3695SOL    HW212983   6.594   9.018  12.766
 3696SOL     OW12984  13.446   3.051  12.599
 3696SOL    HW112985  13.429   3.074  12.690
 3696SOL    HW212986  13.479   3.132  12.560
 3697SOL     OW12987   2.621  11.730  13.396
 3697SOL    HW112988   2.698  11.685  13.430
 3697SOL    HW212989   2.552  11.664  13.398
 3698SOL     OW12990  11.211   9.031   9.255
 3698SOL    HW112991  11.274   9.005   9.323
 3698SOL    HW212992  11.261   9.023   9.174
 3699SOL     OW12993   2.546   2.554  13.785
 3699SOL    HW112994   2.561   2.563  13.690
 3699SOL    HW212995   2.470   2.609  13.802
 3700SOL     OW12996   2.526   1.528   7.929
 3700SOL    HW112997   2.503   1.619   7.947
 3700SOL    HW212998   2.491   1.511   7.842
 3701SOL     OW12999   5.956  10.344   9.935
 3701SOL    HW113000   5.875  10.320   9.980
 3701SOL    HW213001   5.999  10.405   9.995
 3702SOL     OW13002   8.872  11.050   2.387
 3702SOL    HW113003   8.870  11.101   2.468
 3702SOL    HW213004   8.961  11.015   2.382
 3703SOL     OW13005   1.535   2.773   8.621
 3703SOL    HW113006   1.585   2.852   8.596
 3703SOL    HW213007   1.518   2.729   8.538
 3704SOL     OW13008  12.551  14.284   9.412
 3704SOL    HW113009  12.584  14.288   9.322
 3704SOL    HW213010  12.615  14.232   9.460
 3705SOL     OW13011  12.200   1.819  13.542
 3705SOL    HW113012  12.217   1.725  13.534
 3705SOL    HW213013  12.214   1.853  13.454
 3706SOL     OW13014  13.886  13.166   8.402
 3706SOL    HW113015  13.822  13.108   8.360
 3706SOL    HW213016  13.968  13.147   8.357
 3707SOL     OW13017   0.452   4.744   7.695
 3707SOL    HW113018   0.438   4.753   7.601
 3707SOL    HW213019   0.515   4.674   7.704
 3708SOL     OW13020   0.046   1.973   5.502
 3708SOL    HW113021   0.042   2.002   5.593
 3708SOL    HW213022   0.042   1.877   5.507
 3709SOL     OW13023   3.772   7.877   5.406
 3709SOL    HW113024   3.777   7.850   5.498
 3709SOL    HW213025   3.851   7.930   5.393
 3710SOL     OW13026  13.462   8.106   9.345
 3710SOL    HW113027  13.421   8.120   9.430
 3710SOL    HW213028  13.494   8.016   9.348
 3711SOL     OW13029   2.680   5.307   5.009
 3711SOL    HW113030   2.710   5.223   5.044
 3711SOL    HW213031   2.623   5.342   5.077
 3712SOL     OW13032   4.749   0.959   9.754
 3712SOL    HW113033   4.663   0.948   9.796
 3712SOL    HW213034   4.741   1.041   9.704
 3713SOL     OW13035   8.123  12.877   6.904
 3713SOL    HW113036   8.171  12.797   6.880
 3713SOL    HW213037   8.121  12.876   6.999
 3714SOL     OW13038   2.310   0.464   4.533
 3714SOL    HW113039   2.374   0.534   4.520
 3714SOL    HW213040   2.326   0.433   4.622
 3715SOL     OW13041   8.407   7.930   1.546
 3715SOL    HW113042   8.337   7.996   1.539
 3715SOL    HW213043   8.363   7.854   1.583
 3716SOL     OW13044   5.874   5.667  13.638
 3716SOL    HW113045   5.951   5.715  13.669
 3716SOL    HW213046   5.801   5.707  13.684
 3717SOL     OW13047  13.347   9.771   6.285
 3717SOL    HW113048  13.353   9.740   6.375
 3717SOL    HW213049  13.322   9.693   6.234
 3718SOL     OW13050   7.841   3.647   5.525
 3718SOL    HW113051   7.764   3.703   5.535
 3718SOL    HW213052   7.913   3.698   5.560
 3719SOL     OW13053  10.157   1.907  13.235
 3719SOL    HW113054  10.113   1.989  13.254
 3719SOL    HW213055  10.088   1.841  13.237
 3720SOL     OW13056  11.569   7.922  13.932
 3720SOL    HW113057  11.628   7.890  13.864
 3720SOL    HW213058  11.547   7.845  13.984
 3721SOL     OW13059   5.360   7.569  11.893
 3721SOL    HW113060   5.294   7.553  11.961
 3721SOL    HW213061   5.403   7.484  11.882
 3722SOL     OW13062   7.105   4.433   7.804
 3722SOL    HW113063   7.127   4.351   7.760
 3722SOL    HW213064   7.188   4.463   7.842
 3723SOL     OW13065  11.567  12.404   9.105
 3723SOL    HW113066  11.634  12.349   9.064
 3723SOL    HW213067  11.614  12.451   9.174
 3724SOL     OW13068   9.840  10.958   0.381
 3724SOL    HW113069   9.882  10.884   0.336
 3724SOL    HW213070   9.782  10.917   0.445
 3725SOL     OW13071   0.223   5.032   4.740
 3725SOL    HW113072   0.312   5.013   4.769
 3725SOL    HW213073   0.177   5.056   4.820
 3726SOL     OW13074   9.052   5.231  12.388
 3726SOL    HW113075   9.049   5.267  12.299
 3726SOL    HW213076   9.070   5.138  12.375
 3727SOL     OW13077   6.191   5.354  14.539
 3727SOL    HW113078   6.213   5.337  14.630
 3727SOL    HW213079   6.109   5.403  14.542
 3728SOL     OW13080   1.023   0.944   0.626
 3728SOL    HW113081   1.012   0.989   0.710
 3728SOL    HW213082   1.008   0.852   0.646
 3729SOL     OW13083   0.794   4.542   4.961
 3729SOL    HW113084   0.841   4.609   5.012
 3729SOL    HW213085   0.723   4.513   5.018
 3730SOL     OW13086   7.146   5.576   4.774
 3730SOL    HW113087   7.084   5.594   4.703
 3730SOL    HW213088   7.158   5.481   4.772
 3731SOL     OW13089   4.318   3.870   5.354
 3731SOL    HW113090   4.226   3.890   5.372
 3731SOL    HW213091   4.356   3.954   5.329
 3732SOL     OW13092   5.410   5.145   5.126
 3732SOL    HW113093   5.495   5.118   5.159
 3732SOL    HW213094   5.365   5.183   5.201
 3733SOL     OW13095   3.958   3.272   5.225
 3733SOL    HW113096   3.886   3.216   5.195
 3733SOL    HW213097   3.949   3.274   5.320
 3734SOL     OW13098   8.936  14.218   0.010
 3734SOL    HW113099   8.982  14.191   0.090
 3734SOL    HW213100   8.986  14.177  14.827
 3735SOL     OW13101   1.016  13.473  10.999
 3735SOL    HW113102   0.927  13.441  11.017
 3735SOL    HW213103   1.072  13.397  11.010
 3736SOL     OW13104   1.331  10.276   9.818
 3736SOL    HW113105   1.321  10.188   9.855
 3736SOL    HW213106   1.423  10.281   9.793
 3737SOL     OW13107   1.318   3.803  13.833
 3737SOL    HW113108   1.374   3.727  13.847
 3737SOL    HW213109   1.230   3.773  13.854
 3738SOL     OW13110  12.461   4.538   5.288
 3738SOL    HW113111  12.520   4.604   5.324
 3738SOL    HW213112  12.429   4.490   5.365
 3739SOL     OW13113   8.214   1.973   8.491
 3739SOL    HW113114   8.142   1.950   8.432
 3739SOL    HW213115   8.269   1.895   8.493
 3740SOL     OW13116  11.233   3.617   1.953
 3740SOL    HW113117  11.174   3.548   1.984
 3740SOL    HW213118  11.283   3.575   1.882
 3741SOL     OW13119   6.330  14.215  11.824
 3741SOL    HW113120   6.414  14.173  11.842
 3741SOL    HW213121   6.349  14.309  11.825
 3742SOL     OW13122   6.618  11.352  13.292
 3742SOL    HW113123   6.674  11.413  13.341
 3742SOL    HW213124   6.656  11.266  13.310
 3743SOL     OW13125   2.351   9.613   3.177
 3743SOL    HW113126   2.357   9.596   3.271
 3743SOL    HW213127   2.427   9.667   3.157
 3744SOL     OW13128   4.889  10.238   3.179
 3744SOL    HW113129   4.838  10.313   3.206
 3744SOL    HW213130   4.937  10.211   3.258
 3745SOL     OW13131  12.141  13.391   3.066
 3745SOL    HW113132  12.160  13.326   3.133
 3745SOL    HW213133  12.139  13.474   3.114
 3746SOL     OW13134   5.425   0.182  10.229
 3746SOL    HW113135   5.331   0.164  10.238
 3746SOL    HW213136   5.431   0.244  10.157
 3747SOL     OW13137   6.392   6.815   2.131
 3747SOL    HW113138   6.412   6.857   2.047
 3747SOL    HW213139   6.437   6.869   2.196
 3748SOL     OW13140  10.357   8.063   0.946
 3748SOL    HW113141  10.391   8.093   1.030
 3748SOL    HW213142  10.373   7.969   0.945
 3749SOL     OW13143  10.331   9.884  14.678
 3749SOL    HW113144  10.294   9.926  14.755
 3749SOL    HW213145  10.423   9.868  14.701
 3750SOL     OW13146   8.489  11.532  10.023
 3750SOL    HW113147   8.471  11.586  10.100
 3750SOL    HW213148   8.431  11.456  10.033
 3751SOL     OW13149   6.464   9.950  13.755
 3751SOL    HW113150   6.428  10.038  13.766
 3751SOL    HW213151   6.501   9.951  13.667
 3752SOL     OW13152   0.995   3.587  14.106
 3752SOL    HW113153   0.913   3.560  14.066
 3752SOL    HW213154   1.048   3.506  14.108
 3753SOL     OW13155   1.864   8.801   6.571
 3753SOL    HW113156   1.879   8.887   6.610
 3753SOL    HW213157   1.947   8.755   6.579
 3754SOL     OW13158  13.598   8.437   6.992
 3754SOL    HW113159  13.618   8.349   7.024
 3754SOL    HW213160  13.597   8.491   7.071
 3755SOL     OW13161   9.440  12.261  13.765
 3755SOL    HW113162   9.531  12.235  13.779
 3755SOL    HW213163   9.408  12.199  13.699
 3756SOL     OW13164   7.874  12.846   5.861
 3756SOL    HW113165   7.785  12.876   5.841
 3756SOL    HW213166   7.888  12.871   5.953
 3757SOL     OW13167   4.383  14.150   9.265
 3757SOL    HW113168   4.448  14.214   9.292
 3757SOL    HW213169   4.426  14.065   9.277
 3758SOL     OW13170   9.254   9.313   7.330
 3758SOL    HW113171   9.340   9.283   7.303
 3758SOL    HW213172   9.247   9.402   7.296
 3759SOL     OW13173  12.380   3.078   7.221
 3759SOL    HW113174  12.400   2.999   7.172
 3759SOL    HW213175  12.395   3.149   7.159
 3760SOL     OW13176   4.871   3.689  11.717
 3760SOL    HW113177   4.862   3.593  11.717
 3760SOL    HW213178   4.965   3.704  11.727
 3761SOL     OW13179  13.677   7.347   7.157
 3761SOL    HW113180  13.711   7.403   7.088
 3761SOL    HW213181  13.600   7.305   7.119
 3762SOL     OW13182   9.012   7.989   0.615
 3762SOL    HW113183   9.065   8.069   0.611
 3762SOL    HW213184   8.923   8.021   0.627
 3763SOL     OW13185   4.646   7.205   2.687
 3763SOL    HW113186   4.606   7.263   2.752
 3763SOL    HW213187   4.589   7.129   2.685
 3764SOL     OW13188   6.137  10.507  10.106
 3764SOL    HW113189   6.206  10.506  10.172
 3764SOL    HW213190   6.063  10.551  10.149
 3765SOL     OW13191   3.324   6.427  12.382
 3765SOL    HW113192   3.378   6.370  12.436
 3765SOL    HW213193   3.279   6.484  12.445
 3766SOL     OW13194  11.818   1.955  12.905
 3766SOL    HW113195  11.826   1.944  13.000
 3766SOL    HW213196  11.855   1.874  12.869
 3767SOL     OW13197  12.492  13.917   4.785
 3767SOL    HW113198  12.499  13.835   4.736
 3767SOL    HW213199  12.557  13.975   4.744
 3768SOL     OW13200   5.037   4.901   5.173
 3768SOL    HW113201   4.949   4.866   5.163
 3768SOL    HW213202   5.042   4.929   5.265
 3769SOL     OW13203  14.496   4.609   4.810
 3769SOL    HW113204  14.443   4.689   4.808
 3769SOL    HW213205  14.535   4.604   4.722
 3770SOL     OW13206   0.272   8.585   9.694
 3770SOL    HW113207   0.263   8.582   9.789
 3770SOL    HW213208   0.361   8.555   9.677
 3771SOL     OW13209   4.870   5.729  11.064
 3771SOL    HW113210   4.947   5.783  11.047
 3771SOL    HW213211   4.799   5.791  11.075
 3772SOL     OW13212   6.814   6.059  12.811
 3772SOL    HW113213   6.770   6.061  12.896
 3772SOL    HW213214   6.770   5.987  12.764
 3773SOL     OW13215  12.240   8.663  10.263
 3773SOL    HW113216  12.275   8.620  10.185
 3773SOL    HW213217  12.167   8.609  10.290
 3774SOL     OW13218  10.014   3.246   7.953
 3774SOL    HW113219   9.952   3.279   7.889
 3774SOL    HW213220  10.100   3.257   7.911
 3775SOL     OW13221   8.965   9.299   7.429
 3775SOL    HW113222   8.960   9.372   7.491
 3775SOL    HW213223   9.053   9.305   7.392
 3776SOL     OW13224  12.604   6.640  13.439
 3776SOL    HW113225  12.696   6.630  13.462
 3776SOL    HW213226  12.565   6.686  13.513
 3777SOL     OW13227   4.154   2.831   9.148
 3777SOL    HW113228   4.099   2.908   9.133
 3777SOL    HW213229   4.216   2.859   9.215
 3778SOL     OW13230   4.428   3.876  12.232
 3778SOL    HW113231   4.336   3.864  12.252
 3778SOL    HW213232   4.433   3.870  12.137
 3779SOL     OW13233  13.324  14.826  11.998
 3779SOL    HW113234  13.265  14.786  11.935
 3779SOL    HW213235  13.270   0.002  12.045
 3780SOL     OW13236   3.624  11.550  13.173
 3780SOL    HW113237   3.561  11.588  13.112
 3780SOL    HW213238   3.586  11.465  13.196
 3781SOL     OW13239  10.378   4.763   0.036
 3781SOL    HW113240  10.337   4.735   0.118
 3781SOL    HW213241  10.460   4.714   0.032
 3782SOL     OW13242   7.728   5.968  12.183
 3782SOL    HW113243   7.729   5.890  12.238
 3782SOL    HW213244   7.729   6.041  12.245
 3783SOL     OW13245   1.412  13.071  11.784
 3783SOL    HW113246   1.373  13.061  11.871
 3783SOL    HW213247   1.485  13.008  11.784
 3784SOL     OW13248   2.396   7.793  12.907
 3784SOL    HW113249   2.383   7.708  12.864
 3784SOL    HW213250   2.340   7.789  12.984
 3785SOL     OW13251   4.084  13.429   9.452
 3785SOL    HW113252   4.088  13.519   9.482
 3785SOL    HW213253   4.094  13.434   9.357
 3786SOL     OW13254   8.836   1.925   9.963
 3786SOL    HW113255   8.888   1.994   9.921
 3786SOL    HW213256   8.834   1.855   9.898
 3787SOL     OW13257   8.557   8.041   7.528
 3787SOL    HW113258   8.512   8.095   7.593
 3787SOL    HW213259   8.642   8.084   7.515
 3788SOL     OW13260   2.851  14.849   5.360
 3788SOL    HW113261   2.794  14.791   5.309
 3788SOL    HW213262   2.810   0.048   5.353
 3789SOL     OW13263   7.532  10.815  13.069
 3789SOL    HW113264   7.497  10.884  13.124
 3789SOL    HW213265   7.610  10.784  13.117
 3790SOL     OW13266   1.034   5.320  11.662
 3790SOL    HW113267   1.069   5.340  11.575
 3790SOL    HW213268   1.032   5.225  11.665
 3791SOL     OW13269   4.908   4.261   8.473
 3791SOL    HW113270   4.892   4.193   8.409
 3791SOL    HW213271   4.828   4.263   8.527
 3792SOL     OW13272  14.340  11.970   1.184
 3792SOL    HW113273  14.294  11.909   1.242
 3792SOL    HW213274  14.420  11.923   1.159
 3793SOL     OW13275   5.748  13.639   5.003
 3793SOL    HW113276   5.682  13.588   5.049
 3793SOL    HW213277   5.830  13.594   5.021
 3794SOL     OW13278   7.084  13.649  10.297
 3794SOL    HW113279   7.069  13.556  10.279
 3794SOL    HW213280   6.998  13.683  10.320
 3795SOL     OW13281   7.577  12.992  13.013
 3795SOL    HW113282   7.595  13.076  12.970
 3795SOL    HW213283   7.483  12.993  13.030
 3796SOL     OW13284   2.603   5.971  11.098
 3796SOL    HW113285   2.520   5.957  11.053
 3796SOL    HW213286   2.631   6.058  11.072
 3797SOL     OW13287  12.399   2.041   8.729
 3797SOL    HW113288  12.475   2.009   8.681
 3797SOL    HW213289  12.435   2.096   8.798
 3798SOL     OW13290   5.525   3.305   4.109
 3798SOL    HW113291   5.586   3.354   4.164
 3798SOL    HW213292   5.560   3.314   4.021
 3799SOL     OW13293   3.000   7.002   7.958
 3799SOL    HW113294   3.095   7.014   7.956
 3799SOL    HW213295   2.973   7.039   8.043
 3800SOL     OW13296   5.524   5.657   4.835
 3800SOL    HW113297   5.599   5.599   4.827
 3800SOL    HW213298   5.561   5.741   4.861
 3801SOL     OW13299  13.353   1.398  13.689
 3801SOL    HW113300  13.386   1.469  13.633
 3801SOL    HW213301  13.426   1.378  13.747
 3802SOL     OW13302  11.513   8.567   2.310
 3802SOL    HW113303  11.464   8.499   2.264
 3802SOL    HW213304  11.563   8.519   2.377
 3803SOL     OW13305  10.358   2.625  10.385
 3803SOL    HW113306  10.435   2.652  10.336
 3803SOL    HW213307  10.363   2.675  10.467
 3804SOL     OW13308  12.142   5.491   1.038
 3804SOL    HW113309  12.111   5.533   1.118
 3804SOL    HW213310  12.163   5.564   0.980
 3805SOL     OW13311  13.679   7.608   5.638
 3805SOL    HW113312  13.700   7.617   5.545
 3805SOL    HW213313  13.762   7.624   5.683
 3806SOL     OW13314   3.837   7.298   9.921
 3806SOL    HW113315   3.878   7.212   9.932
 3806SOL    HW213316   3.785   7.289   9.842
 3807SOL     OW13317   8.941  13.536   5.594
 3807SOL    HW113318   9.027  13.551   5.554
 3807SOL    HW213319   8.893  13.485   5.529
 3808SOL     OW13320  10.187   0.243  11.898
 3808SOL    HW113321  10.164   0.336  11.894
 3808SOL    HW213322  10.204   0.219  11.807
 3809SOL     OW13323  13.699   0.438   5.402
 3809SOL    HW113324  13.763   0.451   5.472
 3809SOL    HW213325  13.664   0.526   5.386
 3810SOL     OW13326   9.456   5.517   5.952
 3810SOL    HW113327   9.438   5.596   5.901
 3810SOL    HW213328   9.511   5.547   6.024
 3811SOL     OW13329   5.037  11.648   2.912
 3811SOL    HW113330   5.037  11.656   2.816
 3811SOL    HW213331   4.984  11.571   2.930
 3812SOL     OW13332   8.241   5.906  13.970
 3812SOL    HW113333   8.293   5.864  13.901
 3812SOL    HW213334   8.298   5.906  14.047
 3813SOL     OW13335   3.860   9.437   8.757
 3813SOL    HW113336   3.812   9.397   8.684
 3813SOL    HW213337   3.904   9.363   8.800
 3814SOL     OW13338  10.495   7.312   5.157
 3814SOL    HW113339  10.451   7.282   5.236
 3814SOL    HW213340  10.427   7.311   5.090
 3815SOL     OW13341  12.279   9.570   0.594
 3815SOL    HW113342  12.283   9.557   0.500
 3815SOL    HW213343  12.249   9.661   0.604
 3816SOL     OW13344  12.967   3.684  13.520
 3816SOL    HW113345  12.896   3.747  13.531
 3816SOL    HW213346  12.927   3.599  13.540
 3817SOL     OW13347   7.817   4.279  14.206
 3817SOL    HW113348   7.895   4.234  14.239
 3817SOL    HW213349   7.830   4.284  14.112
 3818SOL     OW13350   6.021  13.659   2.992
 3818SOL    HW113351   6.023  13.564   3.010
 3818SOL    HW213352   5.970  13.667   2.912
 3819SOL     OW13353   5.562   5.583  13.539
 3819SOL    HW113354   5.640   5.624  13.502
 3819SOL    HW213355   5.589   5.493  13.558
 3820SOL     OW13356   3.457   3.885   6.921
 3820SOL    HW113357   3.378   3.842   6.887
 3820SOL    HW213358   3.498   3.922   6.843
 3821SOL     OW13359  12.711   9.885   3.290
 3821SOL    HW113360  12.761   9.889   3.372
 3821SOL    HW213361  12.772   9.847   3.227
 3822SOL     OW13362  10.194   1.489   3.455
 3822SOL    HW113363  10.255   1.563   3.450
 3822SOL    HW213364  10.212   1.438   3.376
 3823SOL     OW13365  14.692   8.388  11.482
 3823SOL    HW113366  14.711   8.329  11.410
 3823SOL    HW213367  14.774   8.438  11.494
 3824SOL     OW13368  11.635  13.869   4.367
 3824SOL    HW113369  11.643  13.776   4.348
 3824SOL    HW213370  11.725  13.899   4.379
 3825SOL     OW13371  13.433  10.603   3.265
 3825SOL    HW113372  13.393  10.672   3.212
 3825SOL    HW213373  13.362  10.540   3.279
 3826SOL     OW13374   9.975   2.232   8.851
 3826SOL    HW113375   9.892   2.280   8.848
 3826SOL    HW213376  10.042   2.300   8.847
 3827SOL     OW13377  13.650   5.062  10.403
 3827SOL    HW113378  13.695   4.981  10.427
 3827SOL    HW213379  13.645   5.059  10.308
 3828SOL     OW13380   8.323   9.288   8.413
 3828SOL    HW113381   8.257   9.219   8.421
 3828SOL    HW213382   8.404   9.249   8.446
 3829SOL     OW13383   6.991  11.785  13.117
 3829SOL    HW113384   6.959  11.780  13.027
 3829SOL    HW213385   6.937  11.852  13.158
 3830SOL     OW13386  13.720   4.362   8.972
 3830SOL    HW113387  13.689   4.313   8.895
 3830SOL    HW213388  13.679   4.318   9.046
 3831SOL     OW13389  12.669  13.135  12.204
 3831SOL    HW113390  12.735  13.156  12.137
 3831SOL    HW213391  12.691  13.046  12.232
 3832SOL     OW13392  11.753   6.289   3.308
 3832SOL    HW113393  11.678   6.288   3.367
 3832SOL    HW213394  11.795   6.203   3.320
 3833SOL     OW13395  13.050   7.672   3.067
 3833SOL    HW113396  13.127   7.632   3.108
 3833SOL    HW213397  12.993   7.696   3.140
 3834SOL     OW13398  13.744   6.929   5.443
 3834SOL    HW113399  13.836   6.925   5.467
 3834SOL    HW213400  13.713   7.012   5.479
 3835SOL     OW13401   8.937  12.600   3.183
 3835SOL    HW113402   8.992  12.601   3.261
 3835SOL    HW213403   8.939  12.509   3.153
 3836SOL     OW13404   7.407  12.921   5.860
 3836SOL    HW113405   7.331  12.863   5.858
 3836SOL    HW213406   7.438  12.917   5.951
 3837SOL     OW13407   3.871  13.063   8.179
 3837SOL    HW113408   3.859  12.970   8.201
 3837SOL    HW213409   3.912  13.063   8.093
 3838SOL     OW13410   6.199   2.827   2.669
 3838SOL    HW113411   6.128   2.779   2.711
 3838SOL    HW213412   6.257   2.853   2.741
 3839SOL     OW13413  13.315   8.628  12.599
 3839SOL    HW113414  13.301   8.657  12.509
 3839SOL    HW213415  13.385   8.563  12.592
 3840SOL     OW13416  14.342  12.778  11.753
 3840SOL    HW113417  14.394  12.855  11.729
 3840SOL    HW213418  14.345  12.777  11.849
 3841SOL     OW13419   4.329   8.293   1.472
 3841SOL    HW113420   4.395   8.224   1.461
 3841SOL    HW213421   4.363   8.367   1.420
 3842SOL     OW13422   6.538   8.355  10.133
 3842SOL    HW113423   6.445   8.371  10.120
 3842SOL    HW213424   6.582   8.410  10.068
 3843SOL     OW13425   4.697   5.665  13.440
 3843SOL    HW113426   4.776   5.628  13.480
 3843SOL    HW213427   4.730   5.721  13.369
 3844SOL     OW13428  13.078   6.617  14.012
 3844SOL    HW113429  13.074   6.580  13.923
 3844SOL    HW213430  12.990   6.651  14.027
 3845SOL     OW13431  13.087   9.259   0.365
 3845SOL    HW113432  13.108   9.201   0.438
 3845SOL    HW213433  13.173   9.285   0.330
 3846SOL     OW13434   4.778   1.933   2.836
 3846SOL    HW113435   4.762   1.839   2.845
 3846SOL    HW213436   4.869   1.945   2.861
 3847SOL     OW13437  10.279  10.530   5.639
 3847SOL    HW113438  10.284  10.611   5.689
 3847SOL    HW213439  10.308  10.462   5.699
 3848SOL     OW13440   0.841   5.513  11.633
 3848SOL    HW113441   0.902   5.444  11.658
 3848SOL    HW213442   0.800   5.539  11.715
 3849SOL     OW13443   2.499   7.525   2.835
 3849SOL    HW113444   2.449   7.463   2.889
 3849SOL    HW213445   2.433   7.567   2.780
 3850SOL     OW13446  13.596   7.220   8.630
 3850SOL    HW113447  13.551   7.247   8.550
 3850SOL    HW213448  13.576   7.289   8.694
 3851SOL     OW13449   7.548   9.944   9.201
 3851SOL    HW113450   7.504   9.922   9.119
 3851SOL    HW213451   7.641   9.931   9.182
 3852SOL     OW13452   2.362   5.787   1.068
 3852SOL    HW113453   2.302   5.808   1.140
 3852SOL    HW213454   2.371   5.692   1.071
 3853SOL     OW13455  11.397   4.146   5.797
 3853SOL    HW113456  11.369   4.232   5.768
 3853SOL    HW213457  11.379   4.145   5.891
 3854SOL     OW13458   8.321  11.078   0.717
 3854SOL    HW113459   8.415  11.061   0.719
 3854SOL    HW213460   8.308  11.148   0.781
 3855SOL     OW13461  10.966  10.703   2.669
 3855SOL    HW113462  10.875  10.733   2.664
 3855SOL    HW213463  10.981  10.689   2.763
 3856SOL     OW13464   3.824   5.017  13.050
 3856SOL    HW113465   3.836   5.071  12.972
 3856SOL    HW213466   3.809   4.929  13.016
 3857SOL     OW13467   2.421  11.323   0.473
 3857SOL    HW113468   2.391  11.379   0.545
 3857SOL    HW213469   2.362  11.248   0.475
 3858SOL     OW13470  10.998   0.758   8.208
 3858SOL    HW113471  11.002   0.664   8.225
 3858SOL    HW213472  11.009   0.766   8.114
 3859SOL     OW13473   2.592  10.020  12.447
 3859SOL    HW113474   2.576  10.113  12.466
 3859SOL    HW213475   2.509   9.988  12.413
 3860SOL     OW13476  11.043   9.210  10.883
 3860SOL    HW113477  11.064   9.295  10.922
 3860SOL    HW213478  10.974   9.230  10.819
 3861SOL     OW13479   4.338   2.864   2.595
 3861SOL    HW113480   4.328   2.906   2.681
 3861SOL    HW213481   4.419   2.813   2.603
 3862SOL     OW13482  11.349   8.407  12.055
 3862SOL    HW113483  11.333   8.500  12.042
 3862SOL    HW213484  11.440   8.401  12.083
 3863SOL     OW13485   2.006   6.195   3.281
 3863SOL    HW113486   2.092   6.184   3.241
 3863SOL    HW213487   2.023   6.191   3.375
 3864SOL     OW13488  12.114   2.255  13.741
 3864SOL    HW113489  12.084   2.207  13.818
 3864SOL    HW213490  12.068   2.215  13.668
 3865SOL     OW13491   5.368  12.629  11.603
 3865SOL    HW113492   5.455  12.592  11.590
 3865SOL    HW213493   5.321  12.563  11.653
 3866SOL     OW13494   4.779   9.867   3.490
 3866SOL    HW113495   4.768   9.810   3.414
 3866SOL    HW213496   4.718   9.940   3.475
 3867SOL     OW13497   3.819   0.170   3.460
 3867SOL    HW113498   3.787   0.142   3.375
 3867SOL    HW213499   3.863   0.092   3.496
 3868SOL     OW13500   1.291  10.066  12.301
 3868SOL    HW113501   1.338   9.994  12.259
 3868SOL    HW213502   1.314  10.060  12.393
 3869SOL     OW13503   8.613  13.223   2.905
 3869SOL    HW113504   8.645  13.138   2.936
 3869SOL    HW213505   8.656  13.286   2.963
 3870SOL     OW13506  12.429   3.515   8.758
 3870SOL    HW113507  12.350   3.463   8.771
 3870SOL    HW213508  12.482   3.499   8.836
 3871SOL     OW13509   4.201  11.809  12.339
 3871SOL    HW113510   4.268  11.823  12.405
 3871SOL    HW213511   4.246  11.822  12.256
 3872SOL     OW13512   9.988  12.100  10.714
 3872SOL    HW113513   9.998  12.008  10.739
 3872SOL    HW213514  10.012  12.148  10.793
 3873SOL     OW13515  10.524   3.324  12.148
 3873SOL    HW113516  10.567   3.275  12.217
 3873SOL    HW213517  10.515   3.412  12.183
 3874SOL     OW13518  13.198   4.301   9.663
 3874SOL    HW113519  13.145   4.241   9.714
 3874SOL    HW213520  13.289   4.276   9.682
 3875SOL     OW13521   7.820   5.938   0.499
 3875SOL    HW113522   7.773   5.942   0.582
 3875SOL    HW213523   7.821   6.029   0.468
 3876SOL     OW13524  12.247   3.366  12.558
 3876SOL    HW113525  12.229   3.460  12.563
 3876SOL    HW213526  12.265   3.341  12.649
 3877SOL     OW13527  11.276  14.562  13.514
 3877SOL    HW113528  11.359  14.520  13.534
 3877SOL    HW213529  11.284  14.592  13.424
 3878SOL     OW13530  14.362   4.453   8.959
 3878SOL    HW113531  14.275   4.416   8.943
 3878SOL    HW213532  14.347   4.547   8.969
 3879SOL     OW13533  10.425   8.894  10.924
 3879SOL    HW113534  10.487   8.966  10.941
 3879SOL    HW213535  10.475   8.832  10.871
 3880SOL     OW13536  10.962   8.640  10.178
 3880SOL    HW113537  11.001   8.621  10.264
 3880SOL    HW213538  11.037   8.666  10.124
 3881SOL     OW13539  13.903  12.150   4.670
 3881SOL    HW113540  13.808  12.143   4.681
 3881SOL    HW213541  13.939  12.107   4.747
 3882SOL     OW13542  13.489   2.813  10.153
 3882SOL    HW113543  13.528   2.728  10.173
 3882SOL    HW213544  13.534   2.843  10.074
 3883SOL     OW13545  10.735  11.889   2.245
 3883SOL    HW113546  10.824  11.919   2.258
 3883SOL    HW213547  10.697  11.952   2.183
 3884SOL     OW13548   6.078  14.756  11.862
 3884SOL    HW113549   6.004  14.816  11.862
 3884SOL    HW213550   6.136  14.790  11.930
 3885SOL     OW13551   7.416   5.897  13.688
 3885SOL    HW113552   7.473   5.828  13.656
 3885SOL    HW213553   7.372   5.859  13.764
 3886SOL     OW13554   6.286   0.960  10.193
 3886SOL    HW113555   6.233   0.910  10.255
 3886SOL    HW213556   6.282   0.910  10.112
 3887SOL     OW13557   5.415   6.553   6.902
 3887SOL    HW113558   5.399   6.496   6.978
 3887SOL    HW213559   5.396   6.641   6.935
 3888SOL     OW13560  11.366   9.043   6.721
 3888SOL    HW113561  11.396   9.118   6.773
 3888SOL    HW213562  11.446   9.008   6.681
 3889SOL     OW13563  14.440   2.394   8.633
 3889SOL    HW113564  14.422   2.396   8.539
 3889SOL    HW213565  14.533   2.411   8.640
 3890SOL     OW13566  11.088  11.894  13.197
 3890SOL    HW113567  11.077  11.880  13.291
 3890SOL    HW213568  11.182  11.908  13.186
 3891SOL     OW13569  13.734   4.441  12.724
 3891SOL    HW113570  13.717   4.459  12.817
 3891SOL    HW213571  13.819   4.481  12.707
 3892SOL     OW13572   0.277   8.858   9.696
 3892SOL    HW113573   0.282   8.763   9.684
 3892SOL    HW213574   0.296   8.894   9.610
 3893SOL     OW13575   1.367   7.602   2.715
 3893SOL    HW113576   1.451   7.628   2.752
 3893SOL    HW213577   1.365   7.506   2.724
 3894SOL     OW13578   0.875   2.813   3.248
 3894SOL    HW113579   0.881   2.909   3.248
 3894SOL    HW213580   0.837   2.792   3.163
 3895SOL     OW13581   3.367   6.369   5.837
 3895SOL    HW113582   3.300   6.301   5.838
 3895SOL    HW213583   3.341   6.430   5.906
 3896SOL     OW13584   6.418   4.367   3.376
 3896SOL    HW113585   6.377   4.287   3.345
 3896SOL    HW213586   6.406   4.365   3.471
 3897SOL     OW13587   2.910  12.416   7.986
 3897SOL    HW113588   2.888  12.503   8.019
 3897SOL    HW213589   3.001  12.402   8.012
 3898SOL     OW13590   3.243  13.809  10.636
 3898SOL    HW113591   3.223  13.804  10.542
 3898SOL    HW213592   3.199  13.733  10.674
 3899SOL     OW13593   9.045   3.245   2.269
 3899SOL    HW113594   9.080   3.276   2.353
 3899SOL    HW213595   9.052   3.150   2.274
 3900SOL     OW13596   0.474   5.593  11.362
 3900SOL    HW113597   0.566   5.588  11.337
 3900SOL    HW213598   0.473   5.576  11.456
 3901SOL     OW13599   9.669   4.391   4.824
 3901SOL    HW113600   9.591   4.381   4.879
 3901SOL    HW213601   9.735   4.336   4.866
 3902SOL     OW13602  10.634  10.722  11.486
 3902SOL    HW113603  10.669  10.649  11.435
 3902SOL    HW213604  10.700  10.737  11.554
 3903SOL     OW13605   3.052  12.435   8.958
 3903SOL    HW113606   3.000  12.355   8.954
 3903SOL    HW213607   3.142  12.406   8.946
 3904SOL     OW13608   9.823  12.381   3.527
 3904SOL    HW113609   9.810  12.291   3.555
 3904SOL    HW213610   9.843  12.429   3.608
 3905SOL     OW13611   1.116   3.376   7.806
 3905SOL    HW113612   1.137   3.306   7.744
 3905SOL    HW213613   1.068   3.440   7.754
 3906SOL     OW13614   4.626   6.455   3.559
 3906SOL    HW113615   4.587   6.513   3.624
 3906SOL    HW213616   4.715   6.439   3.591
 3907SOL     OW13617   0.425   7.688   8.871
 3907SOL    HW113618   0.436   7.783   8.863
 3907SOL    HW213619   0.469   7.652   8.794
 3908SOL     OW13620  10.798   4.080   6.478
 3908SOL    HW113621  10.768   4.154   6.531
 3908SOL    HW213622  10.721   4.023   6.471
 3909SOL     OW13623   2.198   4.353   2.613
 3909SOL    HW113624   2.282   4.375   2.653
 3909SOL    HW213625   2.168   4.275   2.659
 3910SOL     OW13626   2.112  13.683   1.674
 3910SOL    HW113627   2.022  13.699   1.646
 3910SOL    HW213628   2.108  13.684   1.770
 3911SOL     OW13629   5.061   7.305   0.026
 3911SOL    HW113630   4.995   7.243  14.882
 3911SOL    HW213631   5.070   7.368  14.842
 3912SOL     OW13632   1.961   8.575   5.716
 3912SOL    HW113633   2.031   8.520   5.752
 3912SOL    HW213634   1.891   8.571   5.781
 3913SOL     OW13635  11.370   6.618  13.680
 3913SOL    HW113636  11.329   6.539  13.715
 3913SOL    HW213637  11.345   6.687  13.740
 3914SOL     OW13638   0.632   0.516  13.151
 3914SOL    HW113639   0.700   0.463  13.111
 3914SOL    HW213640   0.625   0.484  13.241
 3915SOL     OW13641   3.063   3.385   9.250
 3915SOL    HW113642   3.015   3.366   9.330
 3915SOL    HW213643   3.042   3.476   9.230
 3916SOL     OW13644  11.408   2.145  12.066
 3916SOL    HW113645  11.496   2.112  12.086
 3916SOL    HW213646  11.359   2.136  12.147
 3917SOL     OW13647   1.348   0.384  14.308
 3917SOL    HW113648   1.399   0.343  14.238
 3917SOL    HW213649   1.274   0.424  14.263
 3918SOL     OW13650  13.924   2.193   4.849
 3918SOL    HW113651  13.886   2.248   4.781
 3918SOL    HW213652  13.853   2.179   4.912
 3919SOL     OW13653   0.734   0.310  10.530
 3919SOL    HW113654   0.796   0.299  10.458
 3919SOL    HW213655   0.651   0.329  10.487
 3920SOL     OW13656   3.555   2.798  12.390
 3920SOL    HW113657   3.552   2.887  12.426
 3920SOL    HW213658   3.611   2.806  12.313
 3921SOL     OW13659   1.560   7.750  11.658
 3921SOL    HW113660   1.587   7.785  11.743
 3921SOL    HW213661   1.479   7.798  11.638
 3922SOL     OW13662   5.119  10.743   6.851
 3922SOL    HW113663   5.208  10.729   6.883
 3922SOL    HW213664   5.063  10.698   6.915
 3923SOL     OW13665   4.080  13.092  11.582
 3923SOL    HW113666   4.135  13.016  11.565
 3923SOL    HW213667   4.138  13.167  11.571
 3924SOL     OW13668  11.239   9.350  11.813
 3924SOL    HW113669  11.222   9.255  11.817
 3924SOL    HW213670  11.204   9.376  11.728
 3925SOL     OW13671   5.425   7.611  10.141
 3925SOL    HW113672   5.399   7.692  10.097
 3925SOL    HW213673   5.364   7.602  10.214
 3926SOL     OW13674   5.948  11.588   5.391
 3926SOL    HW113675   5.922  11.679   5.407
 3926SOL    HW213676   6.043  11.591   5.387
 3927SOL     OW13677   9.507   6.989   2.938
 3927SOL    HW113678   9.450   6.931   2.888
 3927SOL    HW213679   9.519   6.944   3.022
 3928SOL     OW13680   4.511   7.751  12.959
 3928SOL    HW113681   4.433   7.733  13.011
 3928SOL    HW213682   4.514   7.847  12.953
 3929SOL     OW13683   7.995  12.858   4.281
 3929SOL    HW113684   7.957  12.939   4.247
 3929SOL    HW213685   7.943  12.789   4.240
 3930SOL     OW13686   0.813   6.173   6.146
 3930SOL    HW113687   0.823   6.078   6.134
 3930SOL    HW213688   0.831   6.187   6.239
 3931SOL     OW13689  13.280  10.962   4.957
 3931SOL    HW113690  13.374  10.969   4.968
 3931SOL    HW213691  13.250  11.052   4.947
 3932SOL     OW13692   6.576   7.843   0.802
 3932SOL    HW113693   6.598   7.753   0.828
 3932SOL    HW213694   6.660   7.887   0.795
 3933SOL     OW13695  12.520   5.644   3.646
 3933SOL    HW113696  12.546   5.649   3.554
 3933SOL    HW213697  12.589   5.594   3.688
 3934SOL     OW13698   9.361  11.881   6.699
 3934SOL    HW113699   9.414  11.804   6.681
 3934SOL    HW213700   9.270  11.852   6.688
 3935SOL     OW13701  12.786  13.712  10.700
 3935SOL    HW113702  12.731  13.653  10.648
 3935SOL    HW213703  12.729  13.787  10.718
 3936SOL     OW13704   7.548  14.117   2.156
 3936SOL    HW113705   7.552  14.085   2.066
 3936SOL    HW213706   7.455  14.140   2.169
 3937SOL     OW13707  10.702   9.940   9.293
 3937SOL    HW113708  10.656   9.965   9.213
 3937SOL    HW213709  10.718  10.023   9.338
 3938SOL     OW13710  10.211  12.942  13.144
 3938SOL    HW113711  10.273  13.013  13.128
 3938SOL    HW213712  10.250  12.865  13.101
 3939SOL     OW13713   2.963   1.677   1.484
 3939SOL    HW113714   2.956   1.609   1.551
 3939SOL    HW213715   2.873   1.707   1.472
 3940SOL     OW13716   1.269   9.038   4.480
 3940SOL    HW113717   1.263   8.945   4.499
 3940SOL    HW213718   1.329   9.043   4.405
 3941SOL     OW13719  14.243   6.195   9.979
 3941SOL    HW113720  14.169   6.253   9.958
 3941SOL    HW213721  14.243   6.190  10.074
 3942SOL     OW13722  14.602   0.510   0.703
 3942SOL    HW113723  14.593   0.455   0.781
 3942SOL    HW213724  14.621   0.597   0.737
 3943SOL     OW13725  10.564   7.573   2.008
 3943SOL    HW113726  10.510   7.593   2.084
 3943SOL    HW213727  10.652   7.603   2.032
 3944SOL     OW13728  11.956  12.267   9.176
 3944SOL    HW113729  11.958  12.353   9.133
 3944SOL    HW213730  11.894  12.216   9.125
 3945SOL     OW13731   8.829   1.836   2.648
 3945SOL    HW113732   8.747   1.788   2.638
 3945SOL    HW213733   8.831   1.896   2.574
 3946SOL     OW13734   3.875   1.041   4.938
 3946SOL    HW113735   3.906   1.093   5.012
 3946SOL    HW213736   3.874   0.951   4.972
 3947SOL     OW13737   8.584  12.335   1.756
 3947SOL    HW113738   8.544  12.309   1.839
 3947SOL    HW213739   8.647  12.265   1.738
 3948SOL     OW13740   4.250   1.752   4.003
 3948SOL    HW113741   4.256   1.714   4.090
 3948SOL    HW213742   4.340   1.781   3.983
 3949SOL     OW13743   2.626   8.486  10.682
 3949SOL    HW113744   2.678   8.478  10.762
 3949SOL    HW213745   2.541   8.449  10.706
 3950SOL     OW13746  11.776  14.343   0.884
 3950SOL    HW113747  11.815  14.420   0.844
 3950SOL    HW213748  11.693  14.331   0.837
 3951SOL     OW13749   5.148   6.429   0.439
 3951SOL    HW113750   5.079   6.384   0.389
 3951SOL    HW213751   5.214   6.451   0.374
 3952SOL     OW13752   9.235  13.938   3.056
 3952SOL    HW113753   9.318  13.944   3.010
 3952SOL    HW213754   9.170  13.927   2.987
 3953SOL     OW13755   6.139   8.092   8.261
 3953SOL    HW113756   6.196   8.066   8.333
 3953SOL    HW213757   6.093   8.012   8.237
 3954SOL     OW13758  10.516   1.086   2.003
 3954SOL    HW113759  10.506   1.002   1.960
 3954SOL    HW213760  10.488   1.150   1.938
 3955SOL     OW13761  12.764  14.341   3.191
 3955SOL    HW113762  12.842  14.308   3.147
 3955SOL    HW213763  12.768  14.302   3.279
 3956SOL     OW13764  13.556   8.617  13.343
 3956SOL    HW113765  13.612   8.567  13.284
 3956SOL    HW213766  13.543   8.560  13.419
 3957SOL     OW13767   3.971  11.978   3.641
 3957SOL    HW113768   3.946  12.064   3.608
 3957SOL    HW213769   3.889  11.929   3.645
 3958SOL     OW13770   0.768  14.734  12.346
 3958SOL    HW113771   0.829  14.796  12.308
 3958SOL    HW213772   0.751  14.767  12.435
 3959SOL     OW13773   3.681   0.249   2.906
 3959SOL    HW113774   3.593   0.285   2.898
 3959SOL    HW213775   3.673   0.159   2.874
 3960SOL     OW13776  10.107   4.802  14.409
 3960SOL    HW113777  10.014   4.819  14.425
 3960SOL    HW213778  10.151   4.883  14.434
 3961SOL     OW13779   4.420   6.432   7.702
 3961SOL    HW113780   4.501   6.477   7.725
 3961SOL    HW213781   4.358   6.459   7.771
 3962SOL     OW13782   6.146   6.535   9.656
 3962SOL    HW113783   6.091   6.477   9.709
 3962SOL    HW213784   6.229   6.490   9.649
 3963SOL     OW13785   2.319   8.087   9.940
 3963SOL    HW113786   2.362   8.172   9.930
 3963SOL    HW213787   2.230   8.101   9.909
 3964SOL     OW13788   5.980   7.863   5.610
 3964SOL    HW113789   5.885   7.877   5.603
 3964SOL    HW213790   5.991   7.769   5.594
 3965SOL     OW13791  12.374  13.713  14.699
 3965SOL    HW113792  12.452  13.674  14.660
 3965SOL    HW213793  12.304  13.652  14.677
 3966SOL     OW13794   2.992   9.316   2.108
 3966SOL    HW113795   3.083   9.311   2.078
 3966SOL    HW213796   2.940   9.296   2.030
 3967SOL     OW13797   3.578   6.958  13.159
 3967SOL    HW113798   3.653   6.905  13.185
 3967SOL    HW213799   3.604   7.048  13.178
 3968SOL     OW13800   2.351   7.801   8.836
 3968SOL    HW113801   2.393   7.716   8.849
 3968SOL    HW213802   2.422   7.860   8.811
 3969SOL     OW13803  12.733   4.153   2.363
 3969SOL    HW113804  12.827   4.147   2.381
 3969SOL    HW213805  12.700   4.065   2.382
 3970SOL     OW13806  12.576   6.322  14.413
 3970SOL    HW113807  12.556   6.229  14.415
 3970SOL    HW213808  12.631   6.337  14.490
 3971SOL     OW13809  10.795   6.660   8.802
 3971SOL    HW113810  10.771   6.750   8.778
 3971SOL    HW213811  10.806   6.616   8.718
 3972SOL     OW13812   6.048  14.225   5.433
 3972SOL    HW113813   6.129  14.202   5.478
 3972SOL    HW213814   6.040  14.320   5.444
 3973SOL     OW13815  11.633   0.472  11.361
 3973SOL    HW113816  11.627   0.552  11.413
 3973SOL    HW213817  11.543   0.437  11.361
 3974SOL     OW13818   4.843  13.386   3.450
 3974SOL    HW113819   4.814  13.315   3.508
 3974SOL    HW213820   4.812  13.466   3.492
 3975SOL     OW13821  14.029   6.154   5.999
 3975SOL    HW113822  13.969   6.181   6.068
 3975SOL    HW213823  14.055   6.065   6.024
 3976SOL     OW13824   4.207  14.797   5.982
 3976SOL    HW113825   4.139  14.741   6.018
 3976SOL    HW213826   4.166  14.883   5.974
 3977SOL     OW13827   3.934   2.667   7.474
 3977SOL    HW113828   3.937   2.675   7.379
 3977SOL    HW213829   4.022   2.637   7.498
 3978SOL     OW13830   6.079  10.859   3.229
 3978SOL    HW113831   6.101  10.893   3.143
 3978SOL    HW213832   6.012  10.793   3.213
 3979SOL     OW13833  14.036   6.146   5.733
 3979SOL    HW113834  13.960   6.201   5.711
 3979SOL    HW213835  14.058   6.171   5.822
 3980SOL     OW13836   3.237   8.413   4.413
 3980SOL    HW113837   3.206   8.434   4.501
 3980SOL    HW213838   3.158   8.414   4.358
 3981SOL     OW13839  13.889  14.505   4.802
 3981SOL    HW113840  13.807  14.457   4.817
 3981SOL    HW213841  13.867  14.596   4.821
 3982SOL     OW13842   3.266   1.032   9.816
 3982SOL    HW113843   3.346   1.057   9.770
 3982SOL    HW213844   3.211   1.111   9.814
 3983SOL     OW13845   9.599   2.244   6.763
 3983SOL    HW113846   9.658   2.177   6.798
 3983SOL    HW213847   9.584   2.218   6.672
 3984SOL     OW13848   4.176  10.519  10.702
 3984SOL    HW113849   4.268  10.495  10.706
 3984SOL    HW213850   4.131  10.437  10.680
 3985SOL     OW13851   0.525   1.731  10.705
 3985SOL    HW113852   0.617   1.715  10.684
 3985SOL    HW213853   0.517   1.826  10.710
 3986SOL     OW13854  14.486   2.672  14.495
 3986SOL    HW113855  14.504   2.759  14.458
 3986SOL    HW213856  14.445   2.689  14.579
 3987SOL     OW13857   5.208  10.418   4.330
 3987SOL    HW113858   5.223  10.433   4.236
 3987SOL    HW213859   5.210  10.323   4.339
 3988SOL     OW13860   2.865  12.245   4.993
 3988SOL    HW113861   2.856  12.319   5.053
 3988SOL    HW213862   2.793  12.256   4.931
 3989SOL     OW13863  11.456  10.614   0.940
 3989SOL    HW113864  11.519  10.624   0.868
 3989SOL    HW213865  11.392  10.551   0.907
 3990SOL     OW13866  10.610  10.552   4.945
 3990SOL    HW113867  10.557  10.523   4.871
 3990SOL    HW213868  10.552  10.609   4.995
 3991SOL     OW13869  14.735  11.984   2.377
 3991SOL    HW113870  14.772  12.072   2.370
 3991SOL    HW213871  14.772  11.948   2.457
 3992SOL     OW13872  13.253   7.034   1.163
 3992SOL    HW113873  13.218   6.953   1.124
 3992SOL    HW213874  13.323   7.060   1.103
 3993SOL     OW13875  11.282   2.504  13.570
 3993SOL    HW113876  11.348   2.540  13.511
 3993SOL    HW213877  11.201   2.547  13.544
 3994SOL     OW13878   0.452  10.141   8.524
 3994SOL    HW113879   0.541  10.149   8.557
 3994SOL    HW213880   0.443  10.213   8.461
 3995SOL     OW13881  11.478  12.797   2.389
 3995SOL    HW113882  11.566  12.764   2.407
 3995SOL    HW213883  11.448  12.832   2.473
 3996SOL     OW13884   8.170  10.674  14.542
 3996SOL    HW113885   8.205  10.749  14.494
 3996SOL    HW213886   8.100  10.640  14.487
 3997SOL     OW13887   6.527   7.449   2.300
 3997SOL    HW113888   6.530   7.457   2.204
 3997SOL    HW213889   6.471   7.372   2.315
 3998SOL     OW13890   8.208   0.394  14.598
 3998SOL    HW113891   8.117   0.373  14.577
 3998SOL    HW213892   8.232   0.462  14.534
 3999SOL     OW13893   8.984   7.418   9.015
 3999SOL    HW113894   9.019   7.486   9.072
 3999SOL    HW213895   8.977   7.460   8.929
 4000SOL     OW13896   6.002  10.057  12.646
 4000SOL    HW113897   5.911  10.078  12.623
 4000SOL    HW213898   6.046  10.142  12.652
 4001SOL     OW13899   8.021  14.684  13.352
 4001SOL    HW113900   7.988  14.762  13.397
 4001SOL    HW213901   8.114  14.680  13.376
 4002SOL     OW13902   3.906  14.313   6.856
 4002SOL    HW113903   3.949  14.398   6.861
 4002SOL    HW213904   3.819  14.333   6.822
 4003SOL     OW13905   7.280  12.535   6.905
 4003SOL    HW113906   7.334  12.604   6.867
 4003SOL    HW213907   7.343  12.472   6.941
 4004SOL     OW13908  13.073   6.423   6.465
 4004SOL    HW113909  13.116   6.477   6.530
 4004SOL    HW213910  12.998   6.385   6.511
 4005SOL     OW13911  14.187   1.526   6.496
 4005SOL    HW113912  14.280   1.504   6.494
 4005SOL    HW213913  14.145   1.446   6.528
 4006SOL     OW13914   4.515   2.401  10.151
 4006SOL    HW113915   4.599   2.418  10.108
 4006SOL    HW213916   4.524   2.312  10.186
 4007SOL     OW13917   3.224   5.706  12.202
 4007SOL    HW113918   3.154   5.665  12.152
 4007SOL    HW213919   3.207   5.680  12.292
 4008SOL     OW13920   5.246   0.600   3.343
 4008SOL    HW113921   5.297   0.675   3.313
 4008SOL    HW213922   5.187   0.636   3.409
 4009SOL     OW13923   9.265   5.088   1.480
 4009SOL    HW113924   9.294   5.162   1.427
 4009SOL    HW213925   9.169   5.090   1.474
 4010SOL     OW13926   3.638  13.205  11.039
 4010SOL    HW113927   3.574  13.272  11.014
 4010SOL    HW213928   3.651  13.218  11.133
 4011SOL     OW13929  11.518  12.421   1.047
 4011SOL    HW113930  11.442  12.363   1.047
 4011SOL    HW213931  11.566  12.397   0.967
 4012SOL     OW13932   8.714   2.073   4.557
 4012SOL    HW113933   8.678   2.161   4.542
 4012SOL    HW213934   8.736   2.071   4.650
 4013SOL     OW13935  12.261   7.327   3.200
 4013SOL    HW113936  12.289   7.247   3.157
 4013SOL    HW213937  12.248   7.302   3.291
 4014SOL     OW13938   6.610   7.803   6.848
 4014SOL    HW113939   6.596   7.897   6.858
 4014SOL    HW213940   6.652   7.775   6.929
 4015SOL     OW13941   9.545   1.495   9.635
 4015SOL    HW113942   9.462   1.497   9.683
 4015SOL    HW213943   9.535   1.562   9.567
 4016SOL     OW13944   3.693   4.836   2.481
 4016SOL    HW113945   3.737   4.919   2.461
 4016SOL    HW213946   3.754   4.769   2.450
 4017SOL     OW13947   5.027   8.533   8.573
 4017SOL    HW113948   5.121   8.544   8.561
 4017SOL    HW213949   4.992   8.528   8.484
 4018SOL     OW13950  14.122   6.125  11.951
 4018SOL    HW113951  14.141   6.057  12.016
 4018SOL    HW213952  14.038   6.099  11.914
 4019SOL     OW13953   3.894   2.305   7.063
 4019SOL    HW113954   3.927   2.269   7.145
 4019SOL    HW213955   3.972   2.338   7.019
 4020SOL     OW13956   3.986   7.251  10.183
 4020SOL    HW113957   3.993   7.157  10.171
 4020SOL    HW213958   4.054   7.288  10.127
 4021SOL     OW13959   6.388   2.413   2.490
 4021SOL    HW113960   6.441   2.443   2.564
 4021SOL    HW213961   6.443   2.347   2.447
 4022SOL     OW13962   3.194   9.766   2.248
 4022SOL    HW113963   3.105   9.781   2.217
 4022SOL    HW213964   3.185   9.748   2.342
 4023SOL     OW13965   2.090   1.040   0.921
 4023SOL    HW113966   2.035   0.972   0.881
 4023SOL    HW213967   2.141   0.994   0.987
 4024SOL     OW13968  11.177  13.748   9.879
 4024SOL    HW113969  11.088  13.716   9.864
 4024SOL    HW213970  11.210  13.773   9.793
 4025SOL     OW13971   8.306   6.682  11.263
 4025SOL    HW113972   8.267   6.764  11.294
 4025SOL    HW213973   8.399   6.691  11.282
 4026SOL     OW13974   2.222  10.582   1.406
 4026SOL    HW113975   2.236  10.490   1.430
 4026SOL    HW213976   2.188  10.578   1.317
 4027SOL     OW13977   7.530   3.533   1.739
 4027SOL    HW113978   7.438   3.543   1.713
 4027SOL    HW213979   7.537   3.582   1.820
 4028SOL     OW13980   8.167   2.944  10.486
 4028SOL    HW113981   8.078   2.908  10.476
 4028SOL    HW213982   8.225   2.872  10.464
 4029SOL     OW13983   2.107  10.091  10.962
 4029SOL    HW113984   2.139  10.131  10.881
 4029SOL    HW213985   2.051  10.020  10.933
 4030SOL     OW13986  14.272   0.492   6.008
 4030SOL    HW113987  14.212   0.541   5.952
 4030SOL    HW213988  14.272   0.403   5.972
 4031SOL     OW13989   1.386  11.691  11.010
 4031SOL    HW113990   1.442  11.683  10.933
 4031SOL    HW213991   1.323  11.620  11.002
 4032SOL     OW13992   0.764   8.971  11.902
 4032SOL    HW113993   0.783   9.058  11.866
 4032SOL    HW213994   0.842   8.949  11.953
 4033SOL     OW13995   8.934  10.708   9.708
 4033SOL    HW113996   9.002  10.641   9.704
 4033SOL    HW213997   8.860  10.669   9.660
 4034SOL     OW13998  13.073  11.558  11.500
 4034SOL    HW113999  13.052  11.589  11.412
 4034SOL    HW214000  13.135  11.486  11.486
 4035SOL     OW14001  13.323  11.148  13.998
 4035SOL    HW114002  13.257  11.178  13.936
 4035SOL    HW214003  13.406  11.160  13.953
 4036SOL     OW14004   1.175   7.789   2.690
 4036SOL    HW114005   1.217   7.706   2.713
 4036SOL    HW214006   1.240   7.856   2.712
 4037SOL     OW14007   1.508   5.610  11.687
 4037SOL    HW114008   1.460   5.619  11.770
 4037SOL    HW214009   1.579   5.550  11.707
 4038SOL     OW14010   1.017   5.039   8.374
 4038SOL    HW114011   0.984   5.067   8.288
 4038SOL    HW214012   1.089   4.979   8.353
 4039SOL     OW14013   0.004   1.975   3.767
 4039SOL    HW114014  14.837   1.997   3.842
 4039SOL    HW214015  14.881   1.880   3.757
 4040SOL     OW14016   1.189  11.016   8.463
 4040SOL    HW114017   1.116  10.954   8.454
 4040SOL    HW214018   1.265  10.967   8.432
 4041SOL     OW14019   1.656  11.272   6.609
 4041SOL    HW114020   1.696  11.257   6.523
 4041SOL    HW214021   1.564  11.289   6.590
 4042SOL     OW14022   3.170  14.499   0.186
 4042SOL    HW114023   3.091  14.451   0.160
 4042SOL    HW214024   3.140  14.565   0.248
 4043SOL     OW14025   5.373   6.573  12.875
 4043SOL    HW114026   5.390   6.567  12.781
 4043SOL    HW214027   5.409   6.492  12.911
 4044SOL     OW14028   3.135  10.013   2.512
 4044SOL    HW114029   3.052  10.059   2.502
 4044SOL    HW214030   3.199  10.067   2.466
 4045SOL     OW14031   7.906  13.118   9.371
 4045SOL    HW114032   7.889  13.207   9.340
 4045SOL    HW214033   8.000  13.115   9.387
 4046SOL     OW14034   5.748   7.761   1.288
 4046SOL    HW114035   5.743   7.721   1.202
 4046SOL    HW214036   5.736   7.689   1.350
 4047SOL     OW14037   6.026   8.748   0.842
 4047SOL    HW114038   6.068   8.734   0.756
 4047SOL    HW214039   6.077   8.693   0.902
 4048SOL     OW14040   5.240  10.430   5.498
 4048SOL    HW114041   5.297  10.498   5.464
 4048SOL    HW214042   5.271  10.415   5.588
 4049SOL     OW14043  10.171   2.927  11.736
 4049SOL    HW114044  10.158   3.020  11.754
 4049SOL    HW214045  10.144   2.916  11.645
 4050SOL     OW14046   9.215   5.094   6.236
 4050SOL    HW114047   9.256   5.135   6.312
 4050SOL    HW214048   9.214   5.162   6.169
 4051SOL     OW14049   2.398   0.532   9.520
 4051SOL    HW114050   2.367   0.555   9.607
 4051SOL    HW214051   2.329   0.564   9.461
 4052SOL     OW14052   9.060  13.585   9.030
 4052SOL    HW114053   9.016  13.647   8.972
 4052SOL    HW214054   9.047  13.500   8.988
 4053SOL     OW14055  12.230  11.338   7.570
 4053SOL    HW114056  12.272  11.344   7.656
 4053SOL    HW214057  12.224  11.244   7.553
 4054SOL     OW14058   1.468   5.261   5.854
 4054SOL    HW114059   1.475   5.322   5.781
 4054SOL    HW214060   1.374   5.256   5.872
 4055SOL     OW14061   3.916   6.465  10.404
 4055SOL    HW114062   3.929   6.472  10.310
 4055SOL    HW214063   3.870   6.382  10.416
 4056SOL     OW14064   6.185   4.138  11.533
 4056SOL    HW114065   6.168   4.047  11.557
 4056SOL    HW214066   6.268   4.135  11.485
 4057SOL     OW14067  12.116   9.223   1.770
 4057SOL    HW114068  12.153   9.289   1.711
 4057SOL    HW214069  12.156   9.140   1.742
 4058SOL     OW14070   8.417   1.049  13.697
 4058SOL    HW114071   8.407   1.049  13.792
 4058SOL    HW214072   8.472   1.125  13.678
 4059SOL     OW14073  14.439  14.190   2.674
 4059SOL    HW114074  14.517  14.216   2.723
 4059SOL    HW214075  14.367  14.197   2.736
 4060SOL     OW14076  13.395  10.810  10.819
 4060SOL    HW114077  13.329  10.867  10.779
 4060SOL    HW214078  13.421  10.750  10.749
 4061SOL     OW14079  10.442   6.333   1.571
 4061SOL    HW114080  10.525   6.363   1.609
 4061SOL    HW214081  10.439   6.376   1.485
 4062SOL     OW14082   5.985   1.995   5.325
 4062SOL    HW114083   6.015   2.064   5.266
 4062SOL    HW214084   5.985   2.036   5.412
 4063SOL     OW14085  12.895   0.933  13.363
 4063SOL    HW114086  12.971   0.884  13.332
 4063SOL    HW214087  12.926   1.024  13.367
 4064SOL     OW14088   9.954  11.909   3.100
 4064SOL    HW114089   9.961  11.864   3.185
 4064SOL    HW214090   9.896  11.853   3.048
 4065SOL     OW14091   2.959   6.847   2.747
 4065SOL    HW114092   3.008   6.790   2.806
 4065SOL    HW214093   2.931   6.790   2.675
 4066SOL     OW14094   5.977   7.686   4.290
 4066SOL    HW114095   5.982   7.780   4.271
 4066SOL    HW214096   6.031   7.674   4.368
 4067SOL     OW14097   9.588  12.336   1.055
 4067SOL    HW114098   9.569  12.259   1.109
 4067SOL    HW214099   9.511  12.392   1.064
 4068SOL     OW14100  14.629   6.981  13.886
 4068SOL    HW114101  14.615   6.927  13.963
 4068SOL    HW214102  14.548   7.031  13.876
 4069SOL     OW14103  11.769   9.271   0.139
 4069SOL    HW114104  11.803   9.354   0.174
 4069SOL    HW214105  11.715   9.297   0.064
 4070SOL     OW14106   4.479  11.139  13.177
 4070SOL    HW114107   4.458  11.046  13.176
 4070SOL    HW214108   4.425  11.175  13.247
 4071SOL     OW14109   7.971  14.098  10.675
 4071SOL    HW114110   7.993  14.068  10.763
 4071SOL    HW214111   8.018  14.181  10.665
 4072SOL     OW14112   4.016  10.860   8.552
 4072SOL    HW114113   3.987  10.933   8.498
 4072SOL    HW214114   3.978  10.783   8.511
 4073SOL     OW14115  13.732   8.609   3.307
 4073SOL    HW114116  13.667   8.554   3.264
 4073SOL    HW214117  13.681   8.667   3.364
 4074SOL     OW14118   5.312   7.180   6.429
 4074SOL    HW114119   5.258   7.225   6.364
 4074SOL    HW214120   5.260   7.104   6.455
 4075SOL     OW14121   5.711   5.199   7.038
 4075SOL    HW114122   5.764   5.276   7.060
 4075SOL    HW214123   5.625   5.235   7.016
 4076SOL     OW14124   3.031   6.608   7.087
 4076SOL    HW114125   3.032   6.548   7.012
 4076SOL    HW214126   2.954   6.662   7.074
 4077SOL     OW14127   9.297   3.472   5.988
 4077SOL    HW114128   9.270   3.424   6.066
 4077SOL    HW214129   9.336   3.553   6.021
 4078SOL     OW14130   2.142  14.294   1.695
 4078SOL    HW114131   2.196  14.220   1.667
 4078SOL    HW214132   2.168  14.366   1.637
 4079SOL     OW14133   6.898  11.849  10.703
 4079SOL    HW114134   6.859  11.833  10.617
 4079SOL    HW214135   6.914  11.762  10.739
 4080SOL     OW14136   3.484  14.009  11.165
 4080SOL    HW114137   3.428  14.086  11.176
 4080SOL    HW214138   3.545  14.034  11.095
 4081SOL     OW14139   0.823  11.943   0.375
 4081SOL    HW114140   0.863  11.902   0.452
 4081SOL    HW214141   0.864  12.030   0.370
 4082SOL     OW14142   9.309   2.707  11.671
 4082SOL    HW114143   9.392   2.750  11.693
 4082SOL    HW214144   9.301   2.717  11.576
 4083SOL     OW14145  14.405   8.033  10.881
 4083SOL    HW114146  14.345   8.086  10.829
 4083SOL    HW214147  14.396   7.944  10.846
 4084SOL     OW14148   9.449   6.219   6.128
 4084SOL    HW114149   9.432   6.232   6.034
 4084SOL    HW214150   9.374   6.169   6.159
 4085SOL     OW14151   8.769   3.618  14.529
 4085SOL    HW114152   8.801   3.549  14.588
 4085SOL    HW214153   8.685   3.644  14.566
 4086SOL     OW14154  10.404   9.436   3.688
 4086SOL    HW114155  10.364   9.520   3.709
 4086SOL    HW214156  10.417   9.393   3.772
 4087SOL     OW14157  10.172   5.473   8.160
 4087SOL    HW114158  10.185   5.382   8.135
 4087SOL    HW214159  10.128   5.513   8.086
 4088SOL     OW14160   4.262   1.431  11.049
 4088SOL    HW114161   4.213   1.349  11.043
 4088SOL    HW214162   4.275   1.445  11.143
 4089SOL     OW14163   0.956  10.593   4.535
 4089SOL    HW114164   0.970  10.537   4.459
 4089SOL    HW214165   1.044  10.620   4.561
 4090SOL     OW14166   6.945   9.099  13.413
 4090SOL    HW114167   6.876   9.040  13.444
 4090SOL    HW214168   6.910   9.138  13.333
 4091SOL     OW14169   9.673   1.586  10.301
 4091SOL    HW114170   9.657   1.493  10.286
 4091SOL    HW214171   9.698   1.620  10.215
 4092SOL     OW14172  11.316   7.584   1.210
 4092SOL    HW114173  11.385   7.604   1.146
 4092SOL    HW214174  11.236   7.577   1.157
 4093SOL     OW14175   6.574   4.666   8.794
 4093SOL    HW114176   6.524   4.660   8.712
 4093SOL    HW214177   6.507   4.670   8.862
 4094SOL     OW14178   4.410   2.456   0.004
 4094SOL    HW114179   4.332   2.437  14.840
 4094SOL    HW214180   4.415   2.384   0.067
 4095SOL     OW14181   8.057  13.833  10.324
 4095SOL    HW114182   8.140  13.806  10.286
 4095SOL    HW214183   8.002  13.852  10.248
 4096SOL     OW14184  11.872   4.906   0.290
 4096SOL    HW114185  11.893   4.965   0.218
 4096SOL    HW214186  11.815   4.957   0.348
 4097SOL     OW14187  11.083   7.310   3.330
 4097SOL    HW114188  11.176   7.305   3.355
 4097SOL    HW214189  11.041   7.357   3.402
 4098SOL     OW14190   0.750   0.203   8.217
 4098SOL    HW114191   0.676   0.233   8.270
 4098SOL    HW214192   0.778   0.121   8.257
 4099SOL     OW14193  10.761   3.863  12.014
 4099SOL    HW114194  10.791   3.845  11.925
 4099SOL    HW214195  10.742   3.957  12.014
 4100SOL     OW14196   0.502   5.543   3.872
 4100SOL    HW114197   0.527   5.624   3.917
 4100SOL    HW214198   0.537   5.554   3.784
 4101SOL     OW14199  12.476   6.821   3.156
 4101SOL    HW114200  12.484   6.883   3.083
 4101SOL    HW214201  12.451   6.738   3.114
 4102SOL     OW14202   2.129   7.028   9.449
 4102SOL    HW114203   2.209   6.992   9.487
 4102SOL    HW214204   2.102   7.098   9.508
 4103SOL     OW14205   9.779   3.536   1.794
 4103SOL    HW114206   9.846   3.469   1.802
 4103SOL    HW214207   9.775   3.578   1.880
 4104SOL     OW14208   1.617   8.371   2.683
 4104SOL    HW114209   1.710   8.377   2.704
 4104SOL    HW214210   1.598   8.277   2.685
 4105SOL     OW14211  13.504   9.945   8.419
 4105SOL    HW114212  13.547   9.871   8.463
 4105SOL    HW214213  13.575   9.989   8.373
 4106SOL     OW14214   2.592   1.392   8.146
 4106SOL    HW114215   2.649   1.327   8.104
 4106SOL    HW214216   2.553   1.440   8.072
 4107SOL     OW14217   7.732   9.234   7.599
 4107SOL    HW114218   7.818   9.273   7.585
 4107SOL    HW214219   7.740   9.145   7.564
 4108SOL     OW14220   2.267   4.059  12.727
 4108SOL    HW114221   2.300   3.996  12.791
 4108SOL    HW214222   2.345   4.087  12.679
 4109SOL     OW14223   9.342   7.496   6.316
 4109SOL    HW114224   9.268   7.551   6.292
 4109SOL    HW214225   9.419   7.546   6.288
 4110SOL     OW14226   8.132  10.832   0.220
 4110SOL    HW114227   8.148  10.785   0.139
 4110SOL    HW214228   8.155  10.771   0.289
 4111SOL     OW14229   3.980  10.605   2.197
 4111SOL    HW114230   4.024  10.683   2.163
 4111SOL    HW214231   4.052  10.551   2.231
 4112SOL     OW14232   3.216  14.176   9.194
 4112SOL    HW114233   3.301  14.220   9.193
 4112SOL    HW214234   3.198  14.161   9.287
 4113SOL     OW14235   4.317   1.083   1.720
 4113SOL    HW114236   4.309   1.159   1.777
 4113SOL    HW214237   4.324   1.008   1.780
 4114SOL     OW14238   1.408  11.517  11.946
 4114SOL    HW114239   1.498  11.510  11.979
 4114SOL    HW214240   1.418  11.541  11.854
 4115SOL     OW14241   1.315  14.828  13.317
 4115SOL    HW114242   1.294  14.766  13.248
 4115SOL    HW214243   1.409  14.844  13.308
 4116SOL     OW14244   1.520  13.083   5.754
 4116SOL    HW114245   1.480  13.161   5.793
 4116SOL    HW214246   1.461  13.057   5.684
 4117SOL     OW14247   0.286   4.183   3.383
 4117SOL    HW114248   0.212   4.174   3.323
 4117SOL    HW214249   0.256   4.140   3.463
 4118SOL     OW14250   8.439   1.973  12.319
 4118SOL    HW114251   8.422   2.006  12.231
 4118SOL    HW214252   8.367   2.007  12.372
 4119SOL     OW14253   1.062   7.597   1.365
 4119SOL    HW114254   1.120   7.558   1.431
 4119SOL    HW214255   1.120   7.651   1.311
 4120SOL     OW14256   2.593   4.331  14.788
 4120SOL    HW114257   2.528   4.278  14.833
 4120SOL    HW214258   2.583   4.419  14.826
 4121SOL     OW14259   8.452  13.898  14.861
 4121SOL    HW114260   8.540  13.878   0.004
 4121SOL    HW214261   8.450  13.866  14.771
 4122SOL     OW14262  11.516  10.170   4.879
 4122SOL    HW114263  11.478  10.200   4.961
 4122SOL    HW214264  11.591  10.228   4.864
 4123SOL     OW14265  10.233  11.418   3.848
 4123SOL    HW114266  10.327  11.416   3.831
 4123SOL    HW214267  10.201  11.334   3.814
 4124SOL     OW14268   0.828   0.155   9.444
 4124SOL    HW114269   0.741   0.155   9.403
 4124SOL    HW214270   0.873   0.228   9.402
 4125SOL     OW14271  12.551   3.982  14.678
 4125SOL    HW114272  12.615   4.020  14.737
 4125SOL    HW214273  12.489   3.937  14.735
 4126SOL     OW14274  13.716   4.628   5.353
 4126SOL    HW114275  13.670   4.587   5.280
 4126SOL    HW214276  13.743   4.554   5.408
 4127SOL     OW14277   0.424  10.201   8.126
 4127SOL    HW114278   0.346  10.173   8.174
 4127SOL    HW214279   0.391  10.268   8.066
 4128SOL     OW14280   3.284   0.963   4.137
 4128SOL    HW114281   3.220   0.905   4.179
 4128SOL    HW214282   3.266   0.954   4.044
 4129SOL     OW14283   7.854  10.179   6.985
 4129SOL    HW114284   7.859  10.200   7.079
 4129SOL    HW214285   7.794  10.245   6.950
 4130SOL     OW14286   4.427  13.292  12.087
 4130SOL    HW114287   4.431  13.382  12.054
 4130SOL    HW214288   4.510  13.253  12.061
 4131SOL     OW14289  13.951   1.290   0.656
 4131SOL    HW114290  13.936   1.366   0.712
 4131SOL    HW214291  13.871   1.281   0.605
 4132SOL     OW14292   3.252   8.991   5.186
 4132SOL    HW114293   3.284   9.072   5.146
 4132SOL    HW214294   3.298   8.921   5.140
 4133SOL     OW14295   2.892   2.049  10.120
 4133SOL    HW114296   2.939   1.981  10.169
 4133SOL    HW214297   2.800   2.036  10.143
 4134SOL     OW14298  14.294   7.686  14.187
 4134SOL    HW114299  14.381   7.723  14.198
 4134SOL    HW214300  14.307   7.591  14.193
 4135SOL     OW14301  12.413  11.962  11.974
 4135SOL    HW114302  12.336  11.949  12.029
 4135SOL    HW214303  12.382  12.012  11.899
 4136SOL     OW14304  14.753   7.837   1.188
 4136SOL    HW114305  14.721   7.838   1.097
 4136SOL    HW214306  14.845   7.812   1.180
 4137SOL     OW14307   2.930  14.728   6.709
 4137SOL    HW114308   2.866  14.778   6.657
 4137SOL    HW214309   2.898  14.735   6.799
 4138SOL     OW14310   8.443   8.900  14.290
 4138SOL    HW114311   8.497   8.913  14.212
 4138SOL    HW214312   8.485   8.954  14.357
 4139SOL     OW14313   6.645   3.418   5.334
 4139SOL    HW114314   6.693   3.416   5.417
 4139SOL    HW214315   6.577   3.351   5.345
 4140SOL     OW14316   7.055  12.972   8.471
 4140SOL    HW114317   7.114  12.933   8.535
 4140SOL    HW214318   7.050  13.065   8.496
 4141SOL     OW14319  11.206   0.118   6.040
 4141SOL    HW114320  11.175   0.028   6.052
 4141SOL    HW214321  11.300   0.114   6.058
 4142SOL     OW14322   3.587   6.635   5.279
 4142SOL    HW114323   3.665   6.590   5.313
 4142SOL    HW214324   3.619   6.685   5.204
 4143SOL     OW14325   7.819   6.810   9.441
 4143SOL    HW114326   7.775   6.746   9.386
 4143SOL    HW214327   7.892   6.842   9.388
 4144SOL     OW14328  13.211   7.541  10.573
 4144SOL    HW114329  13.258   7.625  10.579
 4144SOL    HW214330  13.238   7.492  10.650
 4145SOL     OW14331   1.595   5.186   0.376
 4145SOL    HW114332   1.547   5.249   0.430
 4145SOL    HW214333   1.636   5.126   0.439
 4146SOL     OW14334   9.675  10.943   0.110
 4146SOL    HW114335   9.696  10.985   0.193
 4146SOL    HW214336   9.597  10.989   0.079
 4147SOL     OW14337   3.870   0.849  12.839
 4147SOL    HW114338   3.816   0.820  12.912
 4147SOL    HW214339   3.939   0.902  12.879
 4148SOL     OW14340   3.132  11.529   5.781
 4148SOL    HW114341   3.120  11.551   5.873
 4148SOL    HW214342   3.208  11.471   5.780
 4149SOL     OW14343   4.299   7.785   3.874
 4149SOL    HW114344   4.291   7.745   3.960
 4149SOL    HW214345   4.317   7.878   3.892
 4150SOL     OW14346   7.330  12.634   6.036
 4150SOL    HW114347   7.368  12.593   5.959
 4150SOL    HW214348   7.277  12.565   6.077
 4151SOL     OW14349  10.344  11.323  10.585
 4151SOL    HW114350  10.309  11.235  10.572
 4151SOL    HW214351  10.279  11.381  10.546
 4152SOL     OW14352   9.555   9.552   8.499
 4152SOL    HW114353   9.599   9.504   8.569
 4152SOL    HW214354   9.599   9.524   8.419
 4153SOL     OW14355  13.777  12.038  14.008
 4153SOL    HW114356  13.714  11.977  13.970
 4153SOL    HW214357  13.729  12.120  14.019
 4154SOL     OW14358   6.704  11.170   5.471
 4154SOL    HW114359   6.716  11.200   5.562
 4154SOL    HW214360   6.610  11.178   5.455
 4155SOL     OW14361  11.228   4.969  11.013
 4155SOL    HW114362  11.137   4.984  10.988
 4155SOL    HW214363  11.238   4.874  11.012
 4156SOL     OW14364  13.646   2.085  13.185
 4156SOL    HW114365  13.678   2.153  13.244
 4156SOL    HW214366  13.551   2.087  13.195
 4157SOL     OW14367   0.014  13.001   4.674
 4157SOL    HW114368  14.884  13.091   4.700
 4157SOL    HW214369  14.829  12.951   4.711
 4158SOL     OW14370  14.813   7.350   6.824
 4158SOL    HW114371  14.796   7.431   6.776
 4158SOL    HW214372  14.755   7.285   6.783
 4159SOL     OW14373   6.810   2.283   5.280
 4159SOL    HW114374   6.900   2.250   5.272
 4159SOL    HW214375   6.818   2.358   5.339
 4160SOL     OW14376  11.674   0.733   9.847
 4160SOL    HW114377  11.768   0.717   9.835
 4160SOL    HW214378  11.634   0.646   9.836
 4161SOL     OW14379   5.480   0.732   1.997
 4161SOL    HW114380   5.497   0.738   1.903
 4161SOL    HW214381   5.390   0.700   2.004
 4162SOL     OW14382   2.106   9.598   5.222
 4162SOL    HW114383   2.089   9.687   5.253
 4162SOL    HW214384   2.027   9.549   5.246
 4163SOL     OW14385   3.252   2.026   6.280
 4163SOL    HW114386   3.233   1.934   6.293
 4163SOL    HW214387   3.345   2.035   6.301
 4164SOL     OW14388   6.897  12.732   9.801
 4164SOL    HW114389   6.822  12.695   9.754
 4164SOL    HW214390   6.972  12.714   9.743
 4165SOL     OW14391   1.602   0.775   7.837
 4165SOL    HW114392   1.693   0.753   7.857
 4165SOL    HW214393   1.607   0.835   7.763
 4166SOL     OW14394   4.277   8.632  12.215
 4166SOL    HW114395   4.323   8.576  12.152
 4166SOL    HW214396   4.344   8.657  12.278
 4167SOL     OW14397  11.682   2.020   7.855
 4167SOL    HW114398  11.658   1.947   7.912
 4167SOL    HW214399  11.643   1.999   7.771
 4168SOL     OW14400   2.224  11.906   6.500
 4168SOL    HW114401   2.204  11.815   6.520
 4168SOL    HW214402   2.292  11.930   6.564
 4169SOL     OW14403   8.977  13.308   9.777
 4169SOL    HW114404   8.937  13.268   9.854
 4169SOL    HW214405   9.014  13.390   9.810
 4170SOL     OW14406  11.077  11.843  12.293
 4170SOL    HW114407  10.988  11.875  12.309
 4170SOL    HW214408  11.132  11.894  12.353
 4171SOL     OW14409   6.840  11.854   3.168
 4171SOL    HW114410   6.761  11.801   3.175
 4171SOL    HW214411   6.815  11.941   3.200
 4172SOL     OW14412   8.407  14.466   3.855
 4172SOL    HW114413   8.461  14.544   3.842
 4172SOL    HW214414   8.332  14.478   3.796
 4173SOL     OW14415   8.712  13.258   8.516
 4173SOL    HW114416   8.675  13.280   8.601
 4173SOL    HW214417   8.780  13.194   8.535
 4174SOL     OW14418   5.414   9.676   9.046
 4174SOL    HW114419   5.371   9.676   9.132
 4174SOL    HW214420   5.428   9.769   9.027
 4175SOL     OW14421   2.927  11.809  10.948
 4175SOL    HW114422   2.954  11.766  11.029
 4175SOL    HW214423   2.966  11.896  10.953
 4176SOL     OW14424   5.253  10.769   9.242
 4176SOL    HW114425   5.233  10.779   9.335
 4176SOL    HW214426   5.177  10.721   9.207
 4177SOL     OW14427   1.203  14.646  13.122
 4177SOL    HW114428   1.182  14.681  13.036
 4177SOL    HW214429   1.119  14.618  13.158
 4178SOL     OW14430   9.683  10.542  14.047
 4178SOL    HW114431   9.675  10.600  13.972
 4178SOL    HW214432   9.705  10.457  14.009
 4179SOL     OW14433   1.155  10.468   3.527
 4179SOL    HW114434   1.133  10.560   3.543
 4179SOL    HW214435   1.210  10.469   3.449
 4180SOL     OW14436  12.418   9.138   8.399
 4180SOL    HW114437  12.395   9.158   8.308
 4180SOL    HW214438  12.455   9.049   8.395
 4181SOL     OW14439   6.769   2.122   8.375
 4181SOL    HW114440   6.687   2.168   8.358
 4181SOL    HW214441   6.836   2.176   8.333
 4182SOL     OW14442  10.820   2.083  12.185
 4182SOL    HW114443  10.777   2.169  12.190
 4182SOL    HW214444  10.785   2.043  12.105
 4183SOL     OW14445  12.837   7.441   9.022
 4183SOL    HW114446  12.752   7.398   9.019
 4183SOL    HW214447  12.828   7.517   8.964
 4184SOL     OW14448   8.714   5.850   2.753
 4184SOL    HW114449   8.692   5.854   2.846
 4184SOL    HW214450   8.700   5.939   2.721
 4185SOL     OW14451   0.473   7.491   0.951
 4185SOL    HW114452   0.447   7.500   1.043
 4185SOL    HW214453   0.540   7.422   0.951
 4186SOL     OW14454   9.304  11.700  11.421
 4186SOL    HW114455   9.329  11.792  11.430
 4186SOL    HW214456   9.373  11.652  11.467
 4187SOL     OW14457   3.086  10.231  11.550
 4187SOL    HW114458   3.078  10.302  11.486
 4187SOL    HW214459   2.996  10.210  11.574
 4188SOL     OW14460  13.515  10.715   8.025
 4188SOL    HW114461  13.455  10.780   8.063
 4188SOL    HW214462  13.602  10.748   8.044
 4189SOL     OW14463   6.374   5.571   4.206
 4189SOL    HW114464   6.327   5.488   4.214
 4189SOL    HW214465   6.349   5.605   4.120
 4190SOL     OW14466   1.979   1.201  14.390
 4190SOL    HW114467   1.955   1.170  14.478
 4190SOL    HW214468   1.922   1.276  14.375
 4191SOL     OW14469  14.389  13.962   9.573
 4191SOL    HW114470  14.448  14.018   9.522
 4191SOL    HW214471  14.448  13.901   9.618
 4192SOL     OW14472   5.461  10.705   2.819
 4192SOL    HW114473   5.434  10.721   2.728
 4192SOL    HW214474   5.556  10.718   2.818
 4193SOL     OW14475   8.098   5.189   0.461
 4193SOL    HW114476   8.073   5.124   0.527
 4193SOL    HW214477   8.156   5.249   0.508
 4194SOL     OW14478   1.604  11.095  13.219
 4194SOL    HW114479   1.625  11.126  13.307
 4194SOL    HW214480   1.512  11.120  13.207
 4195SOL     OW14481   7.463   5.421   5.439
 4195SOL    HW114482   7.523   5.460   5.375
 4195SOL    HW214483   7.417   5.353   5.390
 4196SOL     OW14484   5.089  12.258   3.838
 4196SOL    HW114485   5.058  12.262   3.747
 4196SOL    HW214486   5.106  12.350   3.861
 4197SOL     OW14487   9.054   8.264  12.476
 4197SOL    HW114488   9.071   8.173  12.452
 4197SOL    HW214489   9.116   8.282  12.547
 4198SOL     OW14490   1.614   6.549   4.532
 4198SOL    HW114491   1.649   6.618   4.474
 4198SOL    HW214492   1.673   6.550   4.607
 4199SOL     OW14493   5.341  14.126   3.032
 4199SOL    HW114494   5.284  14.134   2.955
 4199SOL    HW214495   5.397  14.203   3.028
 4200SOL     OW14496   1.030   4.609   3.352
 4200SOL    HW114497   1.022   4.696   3.392
 4200SOL    HW214498   1.119   4.607   3.317
 4201SOL     OW14499   2.594  12.922   9.794
 4201SOL    HW114500   2.641  12.893   9.717
 4201SOL    HW214501   2.558  12.841   9.831
 4202SOL     OW14502   8.864  12.229   2.843
 4202SOL    HW114503   8.803  12.262   2.777
 4202SOL    HW214504   8.933  12.295   2.847
 4203SOL     OW14505   1.389   1.255   2.700
 4203SOL    HW114506   1.407   1.339   2.742
 4203SOL    HW214507   1.312   1.272   2.645
 4204SOL     OW14508  13.277   2.396   9.488
 4204SOL    HW114509  13.354   2.419   9.540
 4204SOL    HW214510  13.233   2.328   9.539
 4205SOL     OW14511   0.466   8.547   2.094
 4205SOL    HW114512   0.375   8.517   2.102
 4205SOL    HW214513   0.461   8.642   2.109
 4206SOL     OW14514  13.257   2.998   4.506
 4206SOL    HW114515  13.231   3.012   4.597
 4206SOL    HW214516  13.315   3.072   4.486
 4207SOL     OW14517   6.029   1.378   2.167
 4207SOL    HW114518   5.994   1.465   2.187
 4207SOL    HW214519   5.973   1.344   2.098
 4208SOL     OW14520   9.493   7.662  13.134
 4208SOL    HW114521   9.402   7.652  13.161
 4208SOL    HW214522   9.532   7.576  13.147
 4209SOL     OW14523   1.951   0.397  10.022
 4209SOL    HW114524   1.983   0.463   9.961
 4209SOL    HW214525   2.026   0.379  10.080
 4210SOL     OW14526   0.898   1.346   2.322
 4210SOL    HW114527   0.831   1.326   2.387
 4210SOL    HW214528   0.866   1.424   2.277
 4211SOL     OW14529   3.421   3.205   5.693
 4211SOL    HW114530   3.403   3.180   5.602
 4211SOL    HW214531   3.505   3.164   5.713
 4212SOL     OW14532   6.642   8.593  10.644
 4212SOL    HW114533   6.562   8.592  10.592
 4212SOL    HW214534   6.667   8.501  10.651
 4213SOL     OW14535  13.860  10.326   5.081
 4213SOL    HW114536  13.955  10.320   5.092
 4213SOL    HW214537  13.827  10.337   5.170
 4214SOL     OW14538  11.060  13.466   0.429
 4214SOL    HW114539  11.137  13.427   0.471
 4214SOL    HW214540  11.023  13.396   0.376
 4215SOL     OW14541   2.719   9.060   6.294
 4215SOL    HW114542   2.794   9.002   6.278
 4215SOL    HW214543   2.689   9.036   6.382
 4216SOL     OW14544  10.441   2.390   4.219
 4216SOL    HW114545  10.462   2.445   4.144
 4216SOL    HW214546  10.524   2.378   4.265
 4217SOL     OW14547  14.692   4.207  13.034
 4217SOL    HW114548  14.678   4.224  12.941
 4217SOL    HW214549  14.769   4.259  13.056
 4218SOL     OW14550   3.487   8.401   1.308
 4218SOL    HW114551   3.429   8.327   1.293
 4218SOL    HW214552   3.575   8.365   1.300
 4219SOL     OW14553   6.467   4.145   6.036
 4219SOL    HW114554   6.418   4.222   6.008
 4219SOL    HW214555   6.513   4.116   5.957
 4220SOL     OW14556   2.939   8.533   7.861
 4220SOL    HW114557   2.955   8.624   7.886
 4220SOL    HW214558   2.954   8.531   7.766
 4221SOL     OW14559  11.760  10.302   0.016
 4221SOL    HW114560  11.671  10.327   0.041
 4221SOL    HW214561  11.815  10.372   0.049
 4222SOL     OW14562   1.856   7.291   2.915
 4222SOL    HW114563   1.842   7.203   2.883
 4222SOL    HW214564   1.882   7.279   3.007
 4223SOL     OW14565   4.772   9.293  14.761
 4223SOL    HW114566   4.829   9.280  14.685
 4223SOL    HW214567   4.694   9.337  14.726
 4224SOL     OW14568   5.660   5.184   0.819
 4224SOL    HW114569   5.565   5.196   0.810
 4224SOL    HW214570   5.675   5.177   0.913
 4225SOL     OW14571   8.489  12.461   6.832
 4225SOL    HW114572   8.557  12.522   6.862
 4225SOL    HW214573   8.529  12.415   6.758
 4226SOL     OW14574   0.384   5.824   0.841
 4226SOL    HW114575   0.373   5.759   0.910
 4226SOL    HW214576   0.316   5.889   0.856
 4227SOL     OW14577   4.734   6.948   9.279
 4227SOL    HW114578   4.675   6.874   9.291
 4227SOL    HW214579   4.819   6.908   9.259
 4228SOL     OW14580   9.148   4.050  10.194
 4228SOL    HW114581   9.205   4.006  10.130
 4228SOL    HW214582   9.060   4.017  10.173
 4229SOL     OW14583   8.571  12.734   4.072
 4229SOL    HW114584   8.587  12.665   4.008
 4229SOL    HW214585   8.482  12.764   4.054
 4230SOL     OW14586   2.393  14.612   6.358
 4230SOL    HW114587   2.371  14.701   6.329
 4230SOL    HW214588   2.488  14.609   6.354
 4231SOL     OW14589  12.742  13.500  11.938
 4231SOL    HW114590  12.745  13.407  11.913
 4231SOL    HW214591  12.805  13.508  12.009
 4232SOL     OW14592   1.080   3.789   0.336
 4232SOL    HW114593   1.084   3.757   0.246
 4232SOL    HW214594   1.131   3.727   0.387
 4233SOL     OW14595   2.990   0.746   2.369
 4233SOL    HW114596   3.064   0.686   2.384
 4233SOL    HW214597   3.022   0.806   2.302
 4234SOL     OW14598   3.006   8.115   2.663
 4234SOL    HW114599   3.036   8.057   2.593
 4234SOL    HW214600   2.910   8.111   2.659
 4235SOL     OW14601   3.378  14.849  10.173
 4235SOL    HW114602   3.375   0.007  10.257
 4235SOL    HW214603   3.300  14.880  10.126
 4236SOL     OW14604   5.382   0.610   5.476
 4236SOL    HW114605   5.340   0.694   5.492
 4236SOL    HW214606   5.423   0.620   5.390
 4237SOL     OW14607   1.431  11.611   7.341
 4237SOL    HW114608   1.368  11.588   7.409
 4237SOL    HW214609   1.391  11.580   7.259
 4238SOL     OW14610   7.780   1.993   7.239
 4238SOL    HW114611   7.781   2.078   7.194
 4238SOL    HW214612   7.835   2.006   7.315
 4239SOL     OW14613   2.885  13.349  10.847
 4239SOL    HW114614   2.818  13.357  10.915
 4239SOL    HW214615   2.918  13.260  10.856
 4240SOL     OW14616  10.327  10.263   4.967
 4240SOL    HW114617  10.279  10.189   4.930
 4240SOL    HW214618  10.263  10.335   4.967
 4241SOL     OW14619   0.105  13.768   8.772
 4241SOL    HW114620   0.107  13.843   8.712
 4241SOL    HW214621   0.194  13.732   8.768
 4242SOL     OW14622   2.121   4.347  14.434
 4242SOL    HW114623   2.178   4.378  14.364
 4242SOL    HW214624   2.043   4.402  14.428
 4243SOL     OW14625   5.883   7.546   2.246
 4243SOL    HW114626   5.911   7.489   2.318
 4243SOL    HW214627   5.953   7.610   2.238
 4244SOL     OW14628   6.252   8.642   9.862
 4244SOL    HW114629   6.159   8.655   9.882
 4244SOL    HW214630   6.281   8.728   9.830
 4245SOL     OW14631   0.778   8.631  13.645
 4245SOL    HW114632   0.730   8.676  13.714
 4245SOL    HW214633   0.737   8.660  13.564
 4246SOL     OW14634   0.646   6.027  14.056
 4246SOL    HW114635   0.560   6.027  14.097
 4246SOL    HW214636   0.703   5.982  14.119
 4247SOL     OW14637   1.241   1.955   9.592
 4247SOL    HW114638   1.242   1.931   9.499
 4247SOL    HW214639   1.314   2.017   9.602
 4248SOL     OW14640  10.448   1.549  12.578
 4248SOL    HW114641  10.506   1.583  12.646
 4248SOL    HW214642  10.492   1.569  12.496
 4249SOL     OW14643   5.973   1.004   5.832
 4249SOL    HW114644   5.957   1.096   5.816
 4249SOL    HW214645   6.068   0.995   5.830
 4250SOL     OW14646  13.584  12.622   5.569
 4250SOL    HW114647  13.618  12.687   5.630
 4250SOL    HW214648  13.589  12.539   5.616
 4251SOL     OW14649  11.926  10.762   6.592
 4251SOL    HW114650  11.851  10.757   6.533
 4251SOL    HW214651  11.903  10.830   6.656
 4252SOL     OW14652  14.169  11.583  12.241
 4252SOL    HW114653  14.259  11.580  12.274
 4252SOL    HW214654  14.115  11.571  12.319
 4253SOL     OW14655   0.522  10.678   9.752
 4253SOL    HW114656   0.617  10.686   9.747
 4253SOL    HW214657   0.488  10.762   9.722
 4254SOL     OW14658   3.074   6.853   7.383
 4254SOL    HW114659   2.998   6.892   7.339
 4254SOL    HW214660   3.129   6.821   7.311
 4255SOL     OW14661  14.397  14.218  11.698
 4255SOL    HW114662  14.350  14.156  11.754
 4255SOL    HW214663  14.351  14.213  11.614
 4256SOL     OW14664  13.411   6.579   1.727
 4256SOL    HW114665  13.387   6.497   1.770
 4256SOL    HW214666  13.359   6.646   1.772
 4257SOL     OW14667  12.262  14.058   3.786
 4257SOL    HW114668  12.338  14.069   3.729
 4257SOL    HW214669  12.237  14.148   3.810
 4258SOL     OW14670  14.826   5.623   6.282
 4258SOL    HW114671  14.748   5.675   6.303
 4258SOL    HW214672  14.867   5.608   6.367
 4259SOL     OW14673   1.996   4.891   5.739
 4259SOL    HW114674   1.976   4.931   5.823
 4259SOL    HW214675   1.990   4.797   5.754
 4260SOL     OW14676  14.277  13.379   6.731
 4260SOL    HW114677  14.327  13.333   6.798
 4260SOL    HW214678  14.321  13.357   6.649
 4261SOL     OW14679   8.489   6.765   4.721
 4261SOL    HW114680   8.431   6.782   4.796
 4261SOL    HW214681   8.559   6.710   4.756
 4262SOL     OW14682   3.678  10.297  14.275
 4262SOL    HW114683   3.602  10.314  14.332
 4262SOL    HW214684   3.737  10.370  14.293
 4263SOL     OW14685   3.578   8.636  10.005
 4263SOL    HW114686   3.544   8.693   9.937
 4263SOL    HW214687   3.561   8.547   9.974
 4264SOL     OW14688  12.622   2.232   0.024
 4264SOL    HW114689  12.589   2.219   0.113
 4264SOL    HW214690  12.636   2.144  14.877
 4265SOL     OW14691  11.992   1.181   1.284
 4265SOL    HW114692  11.983   1.275   1.300
 4265SOL    HW214693  12.042   1.149   1.359
 4266SOL     OW14694   7.370   5.350   6.754
 4266SOL    HW114695   7.381   5.444   6.737
 4266SOL    HW214696   7.378   5.309   6.668
 4267SOL     OW14697   1.788   5.826  13.182
 4267SOL    HW114698   1.805   5.820  13.088
 4267SOL    HW214699   1.709   5.774  13.195
 4268SOL     OW14700   4.328   3.206   5.008
 4268SOL    HW114701   4.341   3.204   4.913
 4268SOL    HW214702   4.274   3.283   5.024
 4269SOL     OW14703   4.980  11.081  13.266
 4269SOL    HW114704   4.893  11.114  13.246
 4269SOL    HW214705   5.038  11.134  13.211
 4270SOL     OW14706   8.755   3.014   9.203
 4270SOL    HW114707   8.796   3.078   9.261
 4270SOL    HW214708   8.805   3.019   9.122
 4271SOL     OW14709   5.923   1.834   1.066
 4271SOL    HW114710   5.861   1.761   1.060
 4271SOL    HW214711   5.899   1.880   1.146
 4272SOL     OW14712   6.540  11.439  10.219
 4272SOL    HW114713   6.470  11.497  10.190
 4272SOL    HW214714   6.585  11.413  10.138
 4273SOL     OW14715  10.253  11.301   4.922
 4273SOL    HW114716  10.349  11.308   4.921
 4273SOL    HW214717  10.236  11.207   4.911
 4274SOL     OW14718   2.246   1.513   0.196
 4274SOL    HW114719   2.333   1.478   0.181
 4274SOL    HW214720   2.213   1.536   0.109
 4275SOL     OW14721   4.226   5.471   1.097
 4275SOL    HW114722   4.276   5.512   1.026
 4275SOL    HW214723   4.149   5.435   1.053
 4276SOL     OW14724  11.584   2.230  11.009
 4276SOL    HW114725  11.606   2.323  11.010
 4276SOL    HW214726  11.536   2.218  10.927
 4277SOL     OW14727  13.798  13.123   0.640
 4277SOL    HW114728  13.783  13.175   0.561
 4277SOL    HW214729  13.737  13.050   0.632
 4278SOL     OW14730  10.541  14.417  14.177
 4278SOL    HW114731  10.504  14.405  14.264
 4278SOL    HW214732  10.533  14.510  14.160
 4279SOL     OW14733  11.841   5.842   9.938
 4279SOL    HW114734  11.802   5.794  10.011
 4279SOL    HW214735  11.907   5.782   9.903
 4280SOL     OW14736   3.443   4.165   5.775
 4280SOL    HW114737   3.517   4.119   5.734
 4280SOL    HW214738   3.482   4.216   5.846
 4281SOL     OW14739   1.770   1.554  13.528
 4281SOL    HW114740   1.763   1.458  13.535
 4281SOL    HW214741   1.842   1.577  13.587
 4282SOL     OW14742  10.576   1.227   9.396
 4282SOL    HW114743  10.532   1.209   9.479
 4282SOL    HW214744  10.591   1.322   9.397
 4283SOL     OW14745  10.640   0.965  11.538
 4283SOL    HW114746  10.715   0.922  11.499
 4283SOL    HW214747  10.653   0.955  11.632
 4284SOL     OW14748   7.028   4.732   9.080
 4284SOL    HW114749   7.102   4.742   9.020
 4284SOL    HW214750   7.012   4.821   9.112
 4285SOL     OW14751   1.974  11.547   2.681
 4285SOL    HW114752   2.042  11.559   2.747
 4285SOL    HW214753   1.962  11.452   2.674
 4286SOL     OW14754   7.603   7.585  12.572
 4286SOL    HW114755   7.594   7.514  12.635
 4286SOL    HW214756   7.692   7.575  12.537
 4287SOL     OW14757  12.038   5.281   9.934
 4287SOL    HW114758  12.104   5.291  10.003
 4287SOL    HW214759  11.982   5.358   9.944
 4288SOL     OW14760   0.609   0.581  12.809
 4288SOL    HW114761   0.606   0.487  12.827
 4288SOL    HW214762   0.534   0.596  12.750
 4289SOL     OW14763   3.450   3.355   6.646
 4289SOL    HW114764   3.405   3.415   6.587
 4289SOL    HW214765   3.462   3.406   6.727
 4290SOL     OW14766   1.553  12.376   1.027
 4290SOL    HW114767   1.570  12.451   0.970
 4290SOL    HW214768   1.520  12.414   1.108
 4291SOL     OW14769  11.931   2.186   0.184
 4291SOL    HW114770  11.957   2.131   0.110
 4291SOL    HW214771  11.839   2.206   0.168
 4292SOL     OW14772   0.162  13.580  11.687
 4292SOL    HW114773   0.212  13.499  11.693
 4292SOL    HW214774   0.163  13.602  11.593
 4293SOL     OW14775   6.629   2.052   9.671
 4293SOL    HW114776   6.665   2.138   9.690
 4293SOL    HW214777   6.675   2.024   9.591
 4294SOL     OW14778  13.455  10.568   9.373
 4294SOL    HW114779  13.419  10.533   9.292
 4294SOL    HW214780  13.402  10.528   9.442
 4295SOL     OW14781  12.226  13.647  11.181
 4295SOL    HW114782  12.321  13.648  11.166
 4295SOL    HW214783  12.217  13.630  11.275
 4296SOL     OW14784   9.424   7.316   9.448
 4296SOL    HW114785   9.346   7.370   9.462
 4296SOL    HW214786   9.420   7.293   9.355
 4297SOL     OW14787   2.582   3.126   7.278
 4297SOL    HW114788   2.514   3.190   7.300
 4297SOL    HW214789   2.632   3.115   7.359
 4298SOL     OW14790  13.747   2.695   8.347
 4298SOL    HW114791  13.689   2.766   8.318
 4298SOL    HW214792  13.825   2.740   8.379
 4299SOL     OW14793  11.075  13.583   0.682
 4299SOL    HW114794  11.073  13.572   0.587
 4299SOL    HW214795  11.082  13.494   0.716
 4300SOL     OW14796   3.289   5.722   1.300
 4300SOL    HW114797   3.226   5.669   1.348
 4300SOL    HW214798   3.263   5.813   1.317
 4301SOL     OW14799  14.767   3.119   9.236
 4301SOL    HW114800  14.737   3.079   9.154
 4301SOL    HW214801  14.842   3.172   9.212
 4302SOL     OW14802  14.659   2.820  13.789
 4302SOL    HW114803  14.705   2.879  13.848
 4302SOL    HW214804  14.674   2.856  13.702
 4303SOL     OW14805  11.763   5.946   4.192
 4303SOL    HW114806  11.676   5.921   4.160
 4303SOL    HW214807  11.773   5.898   4.274
 4304SOL     OW14808   4.118   2.633   2.014
 4304SOL    HW114809   4.113   2.672   1.927
 4304SOL    HW214810   4.115   2.539   1.999
 4305SOL     OW14811  11.723   9.356  11.433
 4305SOL    HW114812  11.798   9.396  11.478
 4305SOL    HW214813  11.737   9.377  11.341
 4306SOL     OW14814   2.119  12.766  14.428
 4306SOL    HW114815   2.120  12.676  14.396
 4306SOL    HW214816   2.100  12.819  14.351
 4307SOL     OW14817   8.674  13.215  13.560
 4307SOL    HW114818   8.731  13.179  13.628
 4307SOL    HW214819   8.726  13.285  13.521
 4308SOL     OW14820  10.019   7.193   0.528
 4308SOL    HW114821  10.058   7.237   0.604
 4308SOL    HW214822   9.943   7.147   0.563
 4309SOL     OW14823   5.946   6.722  13.787
 4309SOL    HW114824   5.912   6.791  13.845
 4309SOL    HW214825   5.990   6.661  13.846
 4310SOL     OW14826  11.528   2.849  12.093
 4310SOL    HW114827  11.599   2.839  12.029
 4310SOL    HW214828  11.457   2.795  12.059
 4311SOL     OW14829   2.464   1.389  11.609
 4311SOL    HW114830   2.537   1.333  11.634
 4311SOL    HW214831   2.454   1.450  11.683
 4312SOL     OW14832   5.275   1.802  13.800
 4312SOL    HW114833   5.237   1.888  13.819
 4312SOL    HW214834   5.366   1.820  13.778
 4313SOL     OW14835   3.567  12.765   5.897
 4313SOL    HW114836   3.612  12.717   5.827
 4313SOL    HW214837   3.480  12.725   5.901
 4314SOL     OW14838   3.271   3.197   6.331
 4314SOL    HW114839   3.266   3.267   6.397
 4314SOL    HW214840   3.327   3.232   6.262
 4315SOL     OW14841   2.777  12.582   7.195
 4315SOL    HW114842   2.841  12.552   7.260
 4315SOL    HW214843   2.728  12.651   7.239
 4316SOL     OW14844   9.388   1.437  13.341
 4316SOL    HW114845   9.355   1.356  13.380
 4316SOL    HW214846   9.356   1.436  13.251
 4317SOL     OW14847   2.336  12.027   3.233
 4317SOL    HW114848   2.345  12.006   3.326
 4317SOL    HW214849   2.406  11.977   3.191
 4318SOL     OW14850  14.220   2.003  12.635
 4318SOL    HW114851  14.261   2.017  12.720
 4318SOL    HW214852  14.145   1.947  12.655
 4319SOL     OW14853   1.703  10.335  14.548
 4319SOL    HW114854   1.629  10.283  14.514
 4319SOL    HW214855   1.775  10.272  14.553
 4320SOL     OW14856   6.100   9.310   7.576
 4320SOL    HW114857   6.067   9.376   7.638
 4320SOL    HW214858   6.191   9.297   7.602
 4321SOL     OW14859   0.020   7.150   0.962
 4321SOL    HW114860   0.054   7.080   0.906
 4321SOL    HW214861  14.851   7.105   1.025
 4322SOL     OW14862   7.414   4.106   7.240
 4322SOL    HW114863   7.319   4.114   7.229
 4322SOL    HW214864   7.445   4.075   7.155
 4323SOL     OW14865   9.050   8.228   2.717
 4323SOL    HW114866   8.993   8.250   2.643
 4323SOL    HW214867   8.997   8.171   2.772
 4324SOL     OW14868   0.954   7.898   9.210
 4324SOL    HW114869   0.947   7.833   9.140
 4324SOL    HW214870   1.015   7.858   9.273
 4325SOL     OW14871   2.460  13.657   4.450
 4325SOL    HW114872   2.497  13.570   4.444
 4325SOL    HW214873   2.377  13.651   4.403
 4326SOL     OW14874   4.756   3.653   3.465
 4326SOL    HW114875   4.665   3.632   3.482
 4326SOL    HW214876   4.775   3.727   3.524
 4327SOL     OW14877  12.820   5.136   8.708
 4327SOL    HW114878  12.730   5.152   8.681
 4327SOL    HW214879  12.873   5.166   8.634
 4328SOL     OW14880   8.248   7.337   4.475
 4328SOL    HW114881   8.284   7.418   4.510
 4328SOL    HW214882   8.199   7.363   4.398
 4329SOL     OW14883   9.030  13.055   5.442
 4329SOL    HW114884   9.101  12.991   5.432
 4329SOL    HW214885   9.059  13.131   5.392
 4330SOL     OW14886   4.446   9.359   3.603
 4330SOL    HW114887   4.494   9.346   3.521
 4330SOL    HW214888   4.473   9.287   3.659
 4331SOL     OW14889   6.687   4.191   6.157
 4331SOL    HW114890   6.606   4.174   6.108
 4331SOL    HW214891   6.745   4.118   6.133
 4332SOL     OW14892   1.729   4.967  12.450
 4332SOL    HW114893   1.716   4.910  12.374
 4332SOL    HW214894   1.660   4.940  12.512
 4333SOL     OW14895  11.781  10.579   0.965
 4333SOL    HW114896  11.789  10.540   0.878
 4333SOL    HW214897  11.728  10.516   1.015
 4334SOL     OW14898  11.120   8.746   3.188
 4334SOL    HW114899  11.078   8.795   3.259
 4334SOL    HW214900  11.092   8.655   3.201
 4335SOL     OW14901   3.970  14.033  13.379
 4335SOL    HW114902   3.921  14.102  13.334
 4335SOL    HW214903   3.926  14.025  13.464
 4336SOL     OW14904   7.115  14.064  14.171
 4336SOL    HW114905   7.134  14.100  14.258
 4336SOL    HW214906   7.200  14.038  14.136
 4337SOL     OW14907   2.145   0.537   2.177
 4337SOL    HW114908   2.227   0.586   2.176
 4337SOL    HW214909   2.100   0.566   2.257
 4338SOL     OW14910   0.150   8.662  14.248
 4338SOL    HW114911   0.160   8.752  14.280
 4338SOL    HW214912   0.057   8.652  14.231
 4339SOL     OW14913   3.003  10.139   4.979
 4339SOL    HW114914   3.054  10.204   4.931
 4339SOL    HW214915   2.984  10.071   4.914
 4340SOL     OW14916   1.096   7.896  10.292
 4340SOL    HW114917   1.138   7.849  10.364
 4340SOL    HW214918   1.109   7.840  10.215
 4341SOL     OW14919   2.561   5.971   5.595
 4341SOL    HW114920   2.620   5.896   5.597
 4341SOL    HW214921   2.619   6.047   5.592
 4342SOL     OW14922   8.181  12.188   3.837
 4342SOL    HW114923   8.198  12.274   3.874
 4342SOL    HW214924   8.266  12.157   3.805
 4343SOL     OW14925   4.166   4.473   8.930
 4343SOL    HW114926   4.169   4.511   9.018
 4343SOL    HW214927   4.073   4.458   8.914
 4344SOL     OW14928   0.742  12.847   7.779
 4344SOL    HW114929   0.752  12.865   7.685
 4344SOL    HW214930   0.733  12.752   7.784
 4345SOL     OW14931   4.818  12.479   9.288
 4345SOL    HW114932   4.815  12.516   9.376
 4345SOL    HW214933   4.738  12.428   9.280
 4346SOL     OW14934   7.367   7.114   0.431
 4346SOL    HW114935   7.299   7.084   0.371
 4346SOL    HW214936   7.443   7.059   0.411
 4347SOL     OW14937  12.732  14.700   8.083
 4347SOL    HW114938  12.676  14.769   8.049
 4347SOL    HW214939  12.700  14.684   8.172
 4348SOL     OW14940   3.140   8.259   6.684
 4348SOL    HW114941   3.207   8.256   6.752
 4348SOL    HW214942   3.142   8.349   6.651
 4349SOL     OW14943   6.721  10.131  14.263
 4349SOL    HW114944   6.696  10.040  14.253
 4349SOL    HW214945   6.812  10.129  14.294
 4350SOL     OW14946   6.240  14.545  13.842
 4350SOL    HW114947   6.232  14.518  13.750
 4350SOL    HW214948   6.200  14.632  13.845
 4351SOL     OW14949  12.422   0.675   6.608
 4351SOL    HW114950  12.489   0.661   6.541
 4351SOL    HW214951  12.462   0.738   6.669
 4352SOL     OW14952   3.859  11.859   2.337
 4352SOL    HW114953   3.822  11.791   2.393
 4352SOL    HW214954   3.852  11.823   2.249
 4353SOL     OW14955   1.274  14.772   1.090
 4353SOL    HW114956   1.251  14.688   1.050
 4353SOL    HW214957   1.229  14.772   1.174
 4354SOL     OW14958  12.389   1.826  14.119
 4354SOL    HW114959  12.429   1.741  14.138
 4354SOL    HW214960  12.459   1.876  14.077
 4355SOL     OW14961   6.887   0.237  10.335
 4355SOL    HW114962   6.795   0.221  10.357
 4355SOL    HW214963   6.898   0.197  10.249
 4356SOL     OW14964   5.496  12.271   7.421
 4356SOL    HW114965   5.512  12.196   7.363
 4356SOL    HW214966   5.526  12.347   7.371
 4357SOL     OW14967   8.635  10.323   5.819
 4357SOL    HW114968   8.693  10.276   5.759
 4357SOL    HW214969   8.609  10.401   5.771
 4358SOL     OW14970   1.809   3.915   9.186
 4358SOL    HW114971   1.884   3.948   9.135
 4358SOL    HW214972   1.837   3.829   9.217
 4359SOL     OW14973  11.990   7.528   5.524
 4359SOL    HW114974  11.903   7.495   5.500
 4359SOL    HW214975  11.996   7.614   5.481
 4360SOL     OW14976   3.434   9.551   8.386
 4360SOL    HW114977   3.465   9.486   8.322
 4360SOL    HW214978   3.478   9.527   8.467
 4361SOL     OW14979  11.241   7.124   2.904
 4361SOL    HW114980  11.304   7.104   2.973
 4361SOL    HW214981  11.207   7.039   2.877
 4362SOL     OW14982  12.133   7.721   7.189
 4362SOL    HW114983  12.075   7.670   7.244
 4362SOL    HW214984  12.087   7.804   7.175
 4363SOL     OW14985  11.505  11.514  10.838
 4363SOL    HW114986  11.571  11.570  10.798
 4363SOL    HW214987  11.553  11.435  10.863
 4364SOL     OW14988   3.987   3.372   2.322
 4364SOL    HW114989   4.063   3.422   2.350
 4364SOL    HW214990   4.010   3.281   2.337
 4365SOL     OW14991   2.248   1.479   1.755
 4365SOL    HW114992   2.187   1.460   1.826
 4365SOL    HW214993   2.286   1.564   1.779
 4366SOL     OW14994   7.837   6.422  12.857
 4366SOL    HW114995   7.866   6.468  12.935
 4366SOL    HW214996   7.918   6.401  12.810
 4367SOL     OW14997   4.665   5.903   7.781
 4367SOL    HW114998   4.682   5.996   7.772
 4367SOL    HW214999   4.690   5.865   7.697
 4368SOL     OW15000  10.544   9.780  11.840
 4368SOL    HW115001  10.486   9.742  11.774
 4368SOL    HW215002  10.499   9.860  11.867
 4369SOL     OW15003  11.748   4.451   0.057
 4369SOL    HW115004  11.741   4.455  14.849
 4369SOL    HW215005  11.730   4.541   0.086
 4370SOL     OW15006  14.241   6.144   3.514
 4370SOL    HW115007  14.153   6.123   3.485
 4370SOL    HW215008  14.229   6.196   3.593
 4371SOL     OW15009  14.771  12.364   1.101
 4371SOL    HW115010  14.727  12.299   1.156
 4371SOL    HW215011  14.851  12.385   1.149
 4372SOL     OW15012   3.771   5.921   0.864
 4372SOL    HW115013   3.686   5.966   0.870
 4372SOL    HW215014   3.803   5.917   0.954
 4373SOL     OW15015   8.338   9.886   7.387
 4373SOL    HW115016   8.350   9.826   7.313
 4373SOL    HW215017   8.417   9.874   7.440
 4374SOL     OW15018   4.459   5.855   7.172
 4374SOL    HW115019   4.469   5.916   7.099
 4374SOL    HW215020   4.506   5.896   7.244
 4375SOL     OW15021   4.688  13.828   1.811
 4375SOL    HW115022   4.657  13.771   1.881
 4375SOL    HW215023   4.779  13.802   1.797
 4376SOL     OW15024  12.687  11.885   3.157
 4376SOL    HW115025  12.634  11.919   3.229
 4376SOL    HW215026  12.755  11.952   3.144
 4377SOL     OW15027  11.025   7.095   1.254
 4377SOL    HW115028  11.095   7.031   1.263
 4377SOL    HW215029  11.050   7.148   1.178
 4378SOL     OW15030   2.239  13.741  14.161
 4378SOL    HW115031   2.155  13.743  14.115
 4378SOL    HW215032   2.273  13.830  14.154
 4379SOL     OW15033   5.321   7.165  10.789
 4379SOL    HW115034   5.230   7.138  10.800
 4379SOL    HW215035   5.370   7.110  10.850
 4380SOL     OW15036   7.849  10.536  13.633
 4380SOL    HW115037   7.938  10.537  13.597
 4380SOL    HW215038   7.850  10.604  13.701
 4381SOL     OW15039   6.129   4.991   8.198
 4381SOL    HW115040   6.222   5.006   8.184
 4381SOL    HW215041   6.087   5.026   8.119
 4382SOL     OW15042   3.049   2.311   7.144
 4382SOL    HW115043   3.031   2.285   7.054
 4382SOL    HW215044   3.135   2.353   7.140
 4383SOL     OW15045   0.611   2.125   0.356
 4383SOL    HW115046   0.632   2.032   0.348
 4383SOL    HW215047   0.530   2.136   0.306
 4384SOL     OW15048   7.957  12.442   6.397
 4384SOL    HW115049   7.872  12.414   6.365
 4384SOL    HW215050   7.989  12.504   6.331
 4385SOL     OW15051   1.963  13.229   5.188
 4385SOL    HW115052   1.914  13.171   5.245
 4385SOL    HW215053   2.054  13.200   5.195
 4386SOL     OW15054  11.545  12.435   1.904
 4386SOL    HW115055  11.587  12.492   1.969
 4386SOL    HW215056  11.582  12.348   1.920
 4387SOL     OW15057  10.777   7.169   8.802
 4387SOL    HW115058  10.857   7.222   8.804
 4387SOL    HW215059  10.754   7.165   8.709
 4388SOL     OW15060   4.856   9.701  11.201
 4388SOL    HW115061   4.894   9.615  11.214
 4388SOL    HW215062   4.927   9.762  11.218
 4389SOL     OW15063  12.345  14.377   7.670
 4389SOL    HW115064  12.433  14.414   7.670
 4389SOL    HW215065  12.343  14.320   7.593
 4390SOL     OW15066  12.131   8.240   7.984
 4390SOL    HW115067  12.072   8.175   8.022
 4390SOL    HW215068  12.205   8.189   7.953
 4391SOL     OW15069   6.213  13.368   5.113
 4391SOL    HW115070   6.255  13.285   5.093
 4391SOL    HW215071   6.286  13.430   5.118
 4392SOL     OW15072   1.170  11.359   3.859
 4392SOL    HW115073   1.215  11.330   3.779
 4392SOL    HW215074   1.077  11.355   3.836
 4393SOL     OW15075   6.971   7.703  13.987
 4393SOL    HW115076   7.065   7.703  13.968
 4393SOL    HW215077   6.949   7.610  13.994
 4394SOL     OW15078   3.424   5.047   2.034
 4394SOL    HW115079   3.451   5.117   2.094
 4394SOL    HW215080   3.458   5.074   1.949
 4395SOL     OW15081  11.615   9.096   4.330
 4395SOL    HW115082  11.613   9.192   4.330
 4395SOL    HW215083  11.524   9.070   4.348
 4396SOL     OW15084  12.964   7.477   0.664
 4396SOL    HW115085  13.004   7.459   0.749
 4396SOL    HW215086  13.001   7.561   0.638
 4397SOL     OW15087   8.864   3.442   2.210
 4397SOL    HW115088   8.923   3.376   2.245
 4397SOL    HW215089   8.921   3.507   2.170
 4398SOL     OW15090  12.749  10.941  13.284
 4398SOL    HW115091  12.707  11.016  13.325
 4398SOL    HW215092  12.681  10.901  13.230
 4399SOL     OW15093  13.766  11.944   0.592
 4399SOL    HW115094  13.846  11.985   0.625
 4399SOL    HW215095  13.696  12.004   0.619
 4400SOL     OW15096   9.839   8.446   1.791
 4400SOL    HW115097   9.809   8.365   1.748
 4400SOL    HW215098   9.856   8.506   1.718
 4401SOL     OW15099  14.159   2.829   1.419
 4401SOL    HW115100  14.165   2.779   1.338
 4401SOL    HW215101  14.144   2.764   1.487
 4402SOL     OW15102   5.045   7.077   0.973
 4402SOL    HW115103   5.086   7.104   0.891
 4402SOL    HW215104   5.013   6.988   0.956
 4403SOL     OW15105  12.765   2.041  13.289
 4403SOL    HW115106  12.797   2.131  13.275
 4403SOL    HW215107  12.844   1.988  13.290
 4404SOL     OW15108  10.399  11.307   2.108
 4404SOL    HW115109  10.406  11.304   2.013
 4404SOL    HW215110  10.473  11.254   2.139
 4405SOL     OW15111  13.524   0.716   8.483
 4405SOL    HW115112  13.501   0.746   8.571
 4405SOL    HW215113  13.497   0.788   8.425
 4406SOL     OW15114   8.919   4.116  14.498
 4406SOL    HW115115   8.825   4.098  14.501
 4406SOL    HW215116   8.945   4.091  14.409
 4407SOL     OW15117   5.067  10.193   2.543
 4407SOL    HW115118   5.013  10.120   2.572
 4407SOL    HW215119   5.005  10.265   2.530
 4408SOL     OW15120   9.919   2.598  14.715
 4408SOL    HW115121   9.988   2.662  14.735
 4408SOL    HW215122   9.848   2.620  14.774
 4409SOL     OW15123  14.471  11.461  12.047
 4409SOL    HW115124  14.424  11.402  12.106
 4409SOL    HW215125  14.444  11.549  12.074
 4410SOL     OW15126   1.676   8.572   1.549
 4410SOL    HW115127   1.698   8.479   1.554
 4410SOL    HW215128   1.611   8.585   1.617
 4411SOL     OW15129   9.567   3.246   9.609
 4411SOL    HW115130   9.602   3.287   9.530
 4411SOL    HW215131   9.643   3.235   9.666
 4412SOL     OW15132  12.117   7.830  11.958
 4412SOL    HW115133  12.051   7.888  11.920
 4412SOL    HW215134  12.067   7.772  12.016
 4413SOL     OW15135  12.608   2.824   7.611
 4413SOL    HW115136  12.669   2.804   7.682
 4413SOL    HW215137  12.663   2.867   7.545
 4414SOL     OW15138  14.346   6.275   3.985
 4414SOL    HW115139  14.344   6.357   3.935
 4414SOL    HW215140  14.430   6.236   3.964
 4415SOL     OW15141  13.151   3.935   3.387
 4415SOL    HW115142  13.193   3.900   3.466
 4415SOL    HW215143  13.205   3.903   3.315
 4416SOL     OW15144  13.434  12.154   5.675
 4416SOL    HW115145  13.469  12.130   5.589
 4416SOL    HW215146  13.361  12.092   5.689
 4417SOL     OW15147  10.772   7.528   2.643
 4417SOL    HW115148  10.714   7.597   2.676
 4417SOL    HW215149  10.721   7.448   2.651
 4418SOL     OW15150   3.989   6.914  14.789
 4418SOL    HW115151   3.947   6.832  14.763
 4418SOL    HW215152   4.036   6.943  14.710
 4419SOL     OW15153   8.384  11.429  10.432
 4419SOL    HW115154   8.371  11.472  10.348
 4419SOL    HW215155   8.333  11.480  10.494
 4420SOL     OW15156   7.312  13.117   0.506
 4420SOL    HW115157   7.233  13.107   0.454
 4420SOL    HW215158   7.337  13.028   0.530
 4421SOL     OW15159  13.532  10.907  13.077
 4421SOL    HW115160  13.527  10.880  13.169
 4421SOL    HW215161  13.454  10.870  13.036
 4422SOL     OW15162   7.394  11.667   2.968
 4422SOL    HW115163   7.355  11.711   3.044
 4422SOL    HW215164   7.321  11.655   2.907
 4423SOL     OW15165   0.626  10.313   7.444
 4423SOL    HW115166   0.563  10.241   7.445
 4423SOL    HW215167   0.675  10.303   7.526
 4424SOL     OW15168  11.036   5.653  11.419
 4424SOL    HW115169  11.049   5.577  11.362
 4424SOL    HW215170  11.014   5.724  11.359
 4425SOL     OW15171  11.777   8.785   8.956
 4425SOL    HW115172  11.826   8.844   8.899
 4425SOL    HW215173  11.818   8.794   9.042
 4426SOL     OW15174  10.504   3.373   5.497
 4426SOL    HW115175  10.459   3.351   5.416
 4426SOL    HW215176  10.575   3.309   5.504
 4427SOL     OW15177   2.888  13.140   7.769
 4427SOL    HW115178   2.925  13.079   7.705
 4427SOL    HW215179   2.960  13.156   7.831
 4428SOL     OW15180   5.845   4.103   1.040
 4428SOL    HW115181   5.858   4.010   1.056
 4428SOL    HW215182   5.776   4.129   1.101
 4429SOL     OW15183   5.952  10.465   3.840
 4429SOL    HW115184   6.010  10.392   3.862
 4429SOL    HW215185   5.890  10.429   3.778
 4430SOL     OW15186  13.203  13.903  10.759
 4430SOL    HW115187  13.124  13.926  10.710
 4430SOL    HW215188  13.247  13.986  10.775
 4431SOL     OW15189   6.218  14.641   1.546
 4431SOL    HW115190   6.164  14.681   1.479
 4431SOL    HW215191   6.287  14.706   1.562
 4432SOL     OW15192  12.979   8.586   1.157
 4432SOL    HW115193  12.937   8.620   1.236
 4432SOL    HW215194  12.914   8.600   1.088
 4433SOL     OW15195  13.260  11.745   8.339
 4433SOL    HW115196  13.233  11.673   8.281
 4433SOL    HW215197  13.318  11.704   8.403
 4434SOL     OW15198   5.853   9.641  13.369
 4434SOL    HW115199   5.775   9.646  13.424
 4434SOL    HW215200   5.819   9.622  13.281
 4435SOL     OW15201  14.199   5.378   7.112
 4435SOL    HW115202  14.287   5.353   7.084
 4435SOL    HW215203  14.177   5.316   7.181
 4436SOL     OW15204  10.278  12.151   2.642
 4436SOL    HW115205  10.254  12.242   2.625
 4436SOL    HW215206  10.213  12.120   2.705
 4437SOL     OW15207   0.960   3.775  10.556
 4437SOL    HW115208   0.902   3.847  10.583
 4437SOL    HW215209   1.047   3.801  10.586
 4438SOL     OW15210  14.876   3.021   5.842
 4438SOL    HW115211  14.809   2.962   5.807
 4438SOL    HW215212  14.878   3.094   5.780
 4439SOL     OW15213  14.010   2.123   1.383
 4439SOL    HW115214  14.035   2.054   1.444
 4439SOL    HW215215  14.081   2.188   1.390
 4440SOL     OW15216   4.411  10.315   2.951
 4440SOL    HW115217   4.461  10.393   2.974
 4440SOL    HW215218   4.370  10.288   3.032
 4441SOL     OW15219  12.135   8.351  13.866
 4441SOL    HW115220  12.108   8.323  13.778
 4441SOL    HW215221  12.056   8.341  13.920
 4442SOL     OW15222  12.096  14.666  12.594
 4442SOL    HW115223  12.014  14.715  12.587
 4442SOL    HW215224  12.092  14.624  12.680
 4443SOL     OW15225  12.023   7.855   4.552
 4443SOL    HW115226  11.941   7.896   4.581
 4443SOL    HW215227  12.059   7.916   4.487
 4444SOL     OW15228  12.818   1.670   8.090
 4444SOL    HW115229  12.806   1.649   8.182
 4444SOL    HW215230  12.761   1.746   8.074
 4445SOL     OW15231   7.847   5.070   7.056
 4445SOL    HW115232   7.758   5.106   7.047
 4445SOL    HW215233   7.902   5.133   7.010
 4446SOL     OW15234   6.273  12.882   6.156
 4446SOL    HW115235   6.225  12.963   6.139
 4446SOL    HW215236   6.348  12.909   6.209
 4447SOL     OW15237   4.650  10.308   6.194
 4447SOL    HW115238   4.608  10.347   6.271
 4447SOL    HW215239   4.577  10.285   6.136
 4448SOL     OW15240   5.292   8.375   5.251
 4448SOL    HW115241   5.319   8.410   5.336
 4448SOL    HW215242   5.356   8.411   5.189
 4449SOL     OW15243   6.355  10.238   8.392
 4449SOL    HW115244   6.379  10.272   8.478
 4449SOL    HW215245   6.422  10.273   8.333
 4450SOL     OW15246   4.141  14.320   7.989
 4450SOL    HW115247   4.188  14.403   7.995
 4450SOL    HW215248   4.089  14.316   8.070
 4451SOL     OW15249   1.693  10.254   6.636
 4451SOL    HW115250   1.684  10.219   6.725
 4451SOL    HW215251   1.784  10.281   6.630
 4452SOL     OW15252  13.939   1.861  12.414
 4452SOL    HW115253  13.944   1.798  12.486
 4452SOL    HW215254  13.847   1.862  12.389
 4453SOL     OW15255   9.218  11.835   5.607
 4453SOL    HW115256   9.152  11.787   5.557
 4453SOL    HW215257   9.195  11.927   5.596
 4454SOL     OW15258   1.787   5.285   9.786
 4454SOL    HW115259   1.805   5.342   9.712
 4454SOL    HW215260   1.709   5.323   9.827
 4455SOL     OW15261  14.431   3.831   8.539
 4455SOL    HW115262  14.501   3.792   8.591
 4455SOL    HW215263  14.374   3.757   8.515
 4456SOL     OW15264   9.233   5.283   2.222
 4456SOL    HW115265   9.197   5.323   2.142
 4456SOL    HW215266   9.218   5.190   2.210
 4457SOL     OW15267   8.167  11.201   8.690
 4457SOL    HW115268   8.164  11.217   8.596
 4457SOL    HW215269   8.207  11.280   8.726
 4458SOL     OW15270   3.540   6.125   6.459
 4458SOL    HW115271   3.522   6.215   6.431
 4458SOL    HW215272   3.545   6.075   6.377
 4459SOL     OW15273   8.192   2.852   4.260
 4459SOL    HW115274   8.247   2.783   4.297
 4459SOL    HW215275   8.247   2.930   4.260
 4460SOL     OW15276   3.889   1.177  12.195
 4460SOL    HW115277   3.868   1.096  12.243
 4460SOL    HW215278   3.934   1.146  12.116
 4461SOL     OW15279   9.027   6.920   8.329
 4461SOL    HW115280   9.076   6.932   8.411
 4461SOL    HW215281   9.054   6.993   8.274
 4462SOL     OW15282   4.322   8.812   2.980
 4462SOL    HW115283   4.411   8.803   3.015
 4462SOL    HW215284   4.332   8.800   2.886
 4463SOL     OW15285   1.191  12.737   2.746
 4463SOL    HW115286   1.179  12.826   2.778
 4463SOL    HW215287   1.168  12.681   2.821
 4464SOL     OW15288  13.768  10.649   6.925
 4464SOL    HW115289  13.847  10.602   6.953
 4464SOL    HW215290  13.749  10.708   6.998
 4465SOL     OW15291   6.704   0.330   9.943
 4465SOL    HW115292   6.666   0.263  10.001
 4465SOL    HW215293   6.693   0.294   9.855
 4466SOL     OW15294   0.612   4.238   4.486
 4466SOL    HW115295   0.634   4.194   4.404
 4466SOL    HW215296   0.692   4.234   4.538
 4467SOL     OW15297  12.068   3.427   1.390
 4467SOL    HW115298  12.131   3.400   1.323
 4467SOL    HW215299  11.983   3.413   1.350
 4468SOL     OW15300  11.309  11.952  12.430
 4468SOL    HW115301  11.318  12.029  12.487
 4468SOL    HW215302  11.372  11.967  12.359
 4469SOL     OW15303  13.359   2.830   1.633
 4469SOL    HW115304  13.297   2.893   1.670
 4469SOL    HW215305  13.329   2.816   1.543
 4470SOL     OW15306  11.141   3.651   9.877
 4470SOL    HW115307  11.047   3.670   9.867
 4470SOL    HW215308  11.144   3.570   9.929
 4471SOL     OW15309   8.347  14.221   8.510
 4471SOL    HW115310   8.352  14.224   8.415
 4471SOL    HW215311   8.254  14.232   8.530
 4472SOL     OW15312   0.300   2.507  13.686
 4472SOL    HW115313   0.208   2.483  13.673
 4472SOL    HW215314   0.320   2.478  13.775
 4473SOL     OW15315   9.944  12.858   5.513
 4473SOL    HW115316   9.925  12.827   5.602
 4473SOL    HW215317   9.873  12.918   5.493
 4474SOL     OW15318  12.285   3.945   0.916
 4474SOL    HW115319  12.192   3.924   0.920
 4474SOL    HW215320  12.329   3.860   0.915
 4475SOL     OW15321   0.183   4.694  10.683
 4475SOL    HW115322   0.148   4.750  10.752
 4475SOL    HW215323   0.118   4.624  10.674
 4476SOL     OW15324  13.522  14.223  10.926
 4476SOL    HW115325  13.608  14.187  10.948
 4476SOL    HW215326  13.470  14.210  11.006
 4477SOL     OW15327  12.938  14.321  12.335
 4477SOL    HW115328  12.860  14.268  12.324
 4477SOL    HW215329  12.905  14.408  12.359
 4478SOL     OW15330   2.347   1.626   3.539
 4478SOL    HW115331   2.388   1.595   3.458
 4478SOL    HW215332   2.328   1.546   3.588
 4479SOL     OW15333   7.904   2.079  11.552
 4479SOL    HW115334   7.915   2.172  11.572
 4479SOL    HW215335   7.811   2.062  11.563
 4480SOL     OW15336  13.375  13.184   2.819
 4480SOL    HW115337  13.315  13.229   2.879
 4480SOL    HW215338  13.354  13.091   2.830
 4481SOL     OW15339  14.224   1.969   8.002
 4481SOL    HW115340  14.161   1.965   8.074
 4481SOL    HW215341  14.307   1.991   8.044
 4482SOL     OW15342  14.253  13.282  13.301
 4482SOL    HW115343  14.167  13.246  13.320
 4482SOL    HW215344  14.314  13.209  13.315
 4483SOL     OW15345   5.447   7.409   8.427
 4483SOL    HW115346   5.461   7.364   8.510
 4483SOL    HW215347   5.480   7.498   8.442
 4484SOL     OW15348   0.079   8.837   2.280
 4484SOL    HW115349   0.051   8.927   2.293
 4484SOL    HW215350   0.110   8.834   2.189
 4485SOL     OW15351  14.117   8.763  14.513
 4485SOL    HW115352  14.199   8.803  14.542
 4485SOL    HW215353  14.067   8.835  14.474
 4486SOL     OW15354   4.131  10.165   0.182
 4486SOL    HW115355   4.137  10.238   0.120
 4486SOL    HW215356   4.038  10.156   0.199
 4487SOL     OW15357  10.970  13.604   9.774
 4487SOL    HW115358  10.879  13.617   9.801
 4487SOL    HW215359  10.966  13.534   9.709
 4488SOL     OW15360   0.913  12.961  13.444
 4488SOL    HW115361   0.879  12.907  13.515
 4488SOL    HW215362   0.917  13.050  13.479
 4489SOL     OW15363   5.605  11.182  10.381
 4489SOL    HW115364   5.611  11.089  10.358
 4489SOL    HW215365   5.511  11.198  10.392
 4490SOL     OW15366   0.074   7.412   2.281
 4490SOL    HW115367   0.139   7.454   2.337
 4490SOL    HW215368   0.055   7.329   2.325
 4491SOL     OW15369   4.159  11.919   5.946
 4491SOL    HW115370   4.178  12.012   5.959
 4491SOL    HW215371   4.245  11.877   5.946
 4492SOL     OW15372   3.569  11.824   7.284
 4492SOL    HW115373   3.653  11.780   7.273
 4492SOL    HW215374   3.510  11.755   7.314
 4493SOL     OW15375  13.741  14.543   6.301
 4493SOL    HW115376  13.790  14.476   6.254
 4493SOL    HW215377  13.773  14.626   6.266
 4494SOL     OW15378   6.119   9.199   9.108
 4494SOL    HW115379   6.060   9.196   9.032
 4494SOL    HW215380   6.165   9.283   9.099
 4495SOL     OW15381  13.008   2.718   3.345
 4495SOL    HW115382  12.996   2.689   3.435
 4495SOL    HW215383  13.021   2.637   3.295
 4496SOL     OW15384  12.087  11.145   2.763
 4496SOL    HW115385  12.134  11.076   2.809
 4496SOL    HW215386  12.154  11.189   2.711
 4497SOL     OW15387  11.186  12.691   3.207
 4497SOL    HW115388  11.093  12.692   3.231
 4497SOL    HW215389  11.186  12.691   3.111
 4498SOL     OW15390   7.576  14.715   3.420
 4498SOL    HW115391   7.484  14.702   3.444
 4498SOL    HW215392   7.574  14.743   3.329
 4499SOL     OW15393   3.881   4.922   8.183
 4499SOL    HW115394   3.970   4.939   8.153
 4499SOL    HW215395   3.873   4.969   8.266
 4500SOL     OW15396   4.207   5.010   1.527
 4500SOL    HW115397   4.298   5.032   1.510
 4500SOL    HW215398   4.189   4.935   1.471
 4501SOL     OW15399   9.886   1.502   1.070
 4501SOL    HW115400   9.927   1.418   1.050
 4501SOL    HW215401   9.943   1.567   1.029
 4502SOL     OW15402  12.208  11.659   6.267
 4502SOL    HW115403  12.158  11.579   6.249
 4502SOL    HW215404  12.149  11.712   6.321
 4503SOL     OW15405   2.001   8.174   4.882
 4503SOL    HW115406   2.083   8.134   4.854
 4503SOL    HW215407   1.933   8.127   4.834
 4504SOL     OW15408  12.045   1.068   8.975
 4504SOL    HW115409  11.955   1.087   9.000
 4504SOL    HW215410  12.055   1.109   8.889
 4505SOL     OW15411   8.082  13.216   1.815
 4505SOL    HW115412   8.033  13.273   1.874
 4505SOL    HW215413   8.174  13.234   1.835
 4506SOL     OW15414   0.078   7.070  11.216
 4506SOL    HW115415   0.028   6.997  11.179
 4506SOL    HW215416   0.167   7.037  11.224
 4507SOL     OW15417   8.015  10.136   9.022
 4507SOL    HW115418   7.974  10.148   9.108
 4507SOL    HW215419   7.942  10.115   8.963
 4508SOL     OW15420   2.871   2.997  10.896
 4508SOL    HW115421   2.793   2.958  10.935
 4508SOL    HW215422   2.934   3.001  10.967
 4509SOL     OW15423   5.625   5.362   9.093
 4509SOL    HW115424   5.535   5.395   9.092
 4509SOL    HW215425   5.616   5.268   9.080
 4510SOL     OW15426  14.306   8.091   7.014
 4510SOL    HW115427  14.388   8.115   6.971
 4510SOL    HW215428  14.279   8.010   6.971
 4511SOL     OW15429   1.986   2.905   0.031
 4511SOL    HW115430   1.950   2.993   0.042
 4511SOL    HW215431   1.979   2.865   0.117
 4512SOL     OW15432  14.208  13.990  11.714
 4512SOL    HW115433  14.238  13.907  11.749
 4512SOL    HW215434  14.115  13.977  11.697
 4513SOL     OW15435   7.469   4.753   5.408
 4513SOL    HW115436   7.406   4.797   5.465
 4513SOL    HW215437   7.549   4.747   5.461
 4514SOL     OW15438  14.004   5.633   7.512
 4514SOL    HW115439  13.947   5.708   7.533
 4514SOL    HW215440  14.093   5.667   7.523
 4515SOL     OW15441  10.926  12.534   6.622
 4515SOL    HW115442  10.916  12.581   6.539
 4515SOL    HW215443  11.016  12.500   6.620
 4516SOL     OW15444   0.253  12.236  14.348
 4516SOL    HW115445   0.303  12.188  14.414
 4516SOL    HW215446   0.252  12.179  14.272
 4517SOL     OW15447   9.719  10.140   2.660
 4517SOL    HW115448   9.703  10.147   2.754
 4517SOL    HW215449   9.665  10.209   2.621
 4518SOL     OW15450   3.534   8.113   2.830
 4518SOL    HW115451   3.445   8.080   2.839
 4518SOL    HW215452   3.573   8.060   2.760
 4519SOL     OW15453   8.282  11.996  12.249
 4519SOL    HW115454   8.276  11.966  12.339
 4519SOL    HW215455   8.200  11.967  12.208
 4520SOL     OW15456   0.590  13.204  10.507
 4520SOL    HW115457   0.536  13.166  10.576
 4520SOL    HW215458   0.625  13.129  10.459
 4521SOL     OW15459  13.182   3.814   2.641
 4521SOL    HW115460  13.238   3.881   2.601
 4521SOL    HW215461  13.109   3.863   2.678
 4522SOL     OW15462  13.103   6.016  14.886
 4522SOL    HW115463  13.149   6.076  14.827
 4522SOL    HW215464  13.049   6.073   0.054
 4523SOL     OW15465   8.435   6.421   9.664
 4523SOL    HW115466   8.365   6.475   9.626
 4523SOL    HW215467   8.403   6.331   9.657
 4524SOL     OW15468   8.135  13.842   5.952
 4524SOL    HW115469   8.126  13.934   5.977
 4524SOL    HW215470   8.194  13.843   5.877
 4525SOL     OW15471   0.132   6.068   8.235
 4525SOL    HW115472   0.108   6.001   8.299
 4525SOL    HW215473   0.073   6.052   8.161
 4526SOL     OW15474   1.836   4.719  13.470
 4526SOL    HW115475   1.884   4.773  13.407
 4526SOL    HW215476   1.904   4.665  13.511
 4527SOL     OW15477  14.051   2.834   4.002
 4527SOL    HW115478  14.133   2.833   3.954
 4527SOL    HW215479  14.033   2.742   4.021
 4528SOL     OW15480  12.480  11.595   9.031
 4528SOL    HW115481  12.395  11.605   9.075
 4528SOL    HW215482  12.486  11.501   9.013
 4529SOL     OW15483   1.782   8.249  11.833
 4529SOL    HW115484   1.744   8.198  11.905
 4529SOL    HW215485   1.723   8.233  11.759
 4530SOL     OW15486   2.536   6.122   3.672
 4530SOL    HW115487   2.630   6.140   3.683
 4530SOL    HW215488   2.498   6.207   3.650
 4531SOL     OW15489   4.393  14.705   4.681
 4531SOL    HW115490   4.326  14.767   4.653
 4531SOL    HW215491   4.438  14.680   4.600
 4532SOL     OW15492  11.831   7.052   8.017
 4532SOL    HW115493  11.866   7.041   8.105
 4532SOL    HW215494  11.825   6.963   7.982
 4533SOL     OW15495   3.967   2.572   4.863
 4533SOL    HW115496   4.059   2.565   4.888
 4533SOL    HW215497   3.941   2.660   4.892
 4534SOL     OW15498  11.972   2.867   2.402
 4534SOL    HW115499  11.963   2.900   2.312
 4534SOL    HW215500  12.055   2.903   2.433
 4535SOL     OW15501  14.666   0.009   4.820
 4535SOL    HW115502  14.689   0.086   4.871
 4535SOL    HW215503  14.587  14.862   4.861
 4536SOL     OW15504   9.198   0.164   0.668
 4536SOL    HW115505   9.290   0.142   0.658
 4536SOL    HW215506   9.185   0.173   0.762
 4537SOL     OW15507  10.414   9.516   8.626
 4537SOL    HW115508  10.366   9.508   8.543
 4537SOL    HW215509  10.441   9.426   8.647
 4538SOL     OW15510   9.878   2.873   1.955
 4538SOL    HW115511   9.916   2.905   1.873
 4538SOL    HW215512   9.953   2.858   2.013
 4539SOL     OW15513  14.221   6.821  14.169
 4539SOL    HW115514  14.129   6.819  14.197
 4539SOL    HW215515  14.270   6.806  14.250
 4540SOL     OW15516  13.776   4.087   5.639
 4540SOL    HW115517  13.814   4.074   5.552
 4540SOL    HW215518  13.821   4.163   5.674
 4541SOL     OW15519  13.312   8.648   9.113
 4541SOL    HW115520  13.347   8.605   9.191
 4541SOL    HW215521  13.223   8.614   9.104
 4542SOL     OW15522  13.684  14.169   6.837
 4542SOL    HW115523  13.662  14.077   6.852
 4542SOL    HW215524  13.662  14.212   6.919
 4543SOL     OW15525   8.579  14.310   4.207
 4543SOL    HW115526   8.643  14.361   4.157
 4543SOL    HW215527   8.496  14.322   4.161
 4544SOL     OW15528  13.033   4.692   8.304
 4544SOL    HW115529  13.090   4.681   8.380
 4544SOL    HW215530  12.998   4.605   8.287
 4545SOL     OW15531   1.929   4.656  10.164
 4545SOL    HW115532   1.871   4.643  10.088
 4545SOL    HW215533   1.880   4.715  10.221
 4546SOL     OW15534   2.576   1.295  10.745
 4546SOL    HW115535   2.542   1.226  10.801
 4546SOL    HW215536   2.612   1.360  10.805
 4547SOL     OW15537   9.712  10.813   6.277
 4547SOL    HW115538   9.679  10.897   6.245
 4547SOL    HW215539   9.799  10.805   6.238
 4548SOL     OW15540   5.735   6.904  10.044
 4548SOL    HW115541   5.762   6.814  10.026
 4548SOL    HW215542   5.743   6.948   9.959
 4549SOL     OW15543   9.157  10.676  10.665
 4549SOL    HW115544   9.169  10.770  10.682
 4549SOL    HW215545   9.242  10.646  10.635
 4550SOL     OW15546   1.153  13.584  13.283
 4550SOL    HW115547   1.110  13.664  13.313
 4550SOL    HW215548   1.223  13.614  13.225
 4551SOL     OW15549   1.640   1.247   1.716
 4551SOL    HW115550   1.613   1.165   1.757
 4551SOL    HW215551   1.729   1.231   1.686
 4552SOL     OW15552   1.770  12.980   4.044
 4552SOL    HW115553   1.706  12.911   4.028
 4552SOL    HW215554   1.821  12.985   3.964
 4553SOL     OW15555   4.876   5.063   9.570
 4553SOL    HW115556   4.918   5.141   9.533
 4553SOL    HW215557   4.820   5.030   9.500
 4554SOL     OW15558   3.486   7.829   5.382
 4554SOL    HW115559   3.469   7.829   5.288
 4554SOL    HW215560   3.572   7.869   5.392
 4555SOL     OW15561   5.361  10.088   8.655
 4555SOL    HW115562   5.424  10.159   8.645
 4555SOL    HW215563   5.415  10.009   8.656
 4556SOL     OW15564   5.807   2.886   1.351
 4556SOL    HW115565   5.891   2.932   1.344
 4556SOL    HW215566   5.818   2.808   1.297
 4557SOL     OW15567   8.895   8.958   4.736
 4557SOL    HW115568   8.976   8.970   4.785
 4557SOL    HW215569   8.890   8.864   4.719
 4558SOL     OW15570  11.772   6.312   2.740
 4558SOL    HW115571  11.791   6.227   2.779
 4558SOL    HW215572  11.747   6.368   2.813
 4559SOL     OW15573  10.686   1.434   5.348
 4559SOL    HW115574  10.647   1.483   5.275
 4559SOL    HW215575  10.644   1.349   5.345
 4560SOL     OW15576  14.093  10.473   2.322
 4560SOL    HW115577  14.165  10.454   2.261
 4560SOL    HW215578  14.014  10.443   2.275
 4561SOL     OW15579   2.434   8.916  11.863
 4561SOL    HW115580   2.395   8.928  11.950
 4561SOL    HW215581   2.502   8.983  11.857
 4562SOL     OW15582   3.554   2.573  12.553
 4562SOL    HW115583   3.547   2.647  12.492
 4562SOL    HW215584   3.641   2.537  12.537
 4563SOL     OW15585   0.147  14.046   7.284
 4563SOL    HW115586   0.130  14.137   7.306
 4563SOL    HW215587   0.101  13.996   7.351
 4564SOL     OW15588   8.848   2.039   3.120
 4564SOL    HW115589   8.781   1.970   3.112
 4564SOL    HW215590   8.930   1.995   3.096
 4565SOL     OW15591   2.794   3.630   2.691
 4565SOL    HW115592   2.767   3.684   2.617
 4565SOL    HW215593   2.719   3.572   2.707
 4566SOL     OW15594   0.564   4.762  13.231
 4566SOL    HW115595   0.591   4.752  13.323
 4566SOL    HW215596   0.474   4.731  13.229
 4567SOL     OW15597   6.301   9.262  12.497
 4567SOL    HW115598   6.359   9.314  12.441
 4567SOL    HW215599   6.340   9.267  12.584
 4568SOL     OW15600   6.460  11.872   7.487
 4568SOL    HW115601   6.458  11.929   7.564
 4568SOL    HW215602   6.368  11.862   7.462
 4569SOL     OW15603   8.455   9.953   0.453
 4569SOL    HW115604   8.527   9.912   0.406
 4569SOL    HW215605   8.449  10.041   0.417
 4570SOL     OW15606   0.497  10.643  10.032
 4570SOL    HW115607   0.493  10.625   9.938
 4570SOL    HW215608   0.424  10.702  10.048
 4571SOL     OW15609   5.118  10.613   8.411
 4571SOL    HW115610   5.196  10.559   8.416
 4571SOL    HW215611   5.068  10.590   8.490
 4572SOL     OW15612   9.461   4.331  10.484
 4572SOL    HW115613   9.553   4.305  10.484
 4572SOL    HW215614   9.423   4.286  10.408
 4573SOL     OW15615   5.099   1.847   9.748
 4573SOL    HW115616   5.168   1.819   9.687
 4573SOL    HW215617   5.095   1.778   9.814
 4574SOL     OW15618   8.770   5.125   7.755
 4574SOL    HW115619   8.719   5.045   7.747
 4574SOL    HW215620   8.705   5.195   7.758
 4575SOL     OW15621   6.190   9.793   6.856
 4575SOL    HW115622   6.182   9.879   6.814
 4575SOL    HW215623   6.276   9.796   6.898
 4576SOL     OW15624   2.434   8.255   1.710
 4576SOL    HW115625   2.514   8.278   1.662
 4576SOL    HW215626   2.446   8.293   1.797
 4577SOL     OW15627   6.266  14.284   6.708
 4577SOL    HW115628   6.351  14.251   6.678
 4577SOL    HW215629   6.202  14.234   6.658
 4578SOL     OW15630   0.819  10.289   6.486
 4578SOL    HW115631   0.854  10.335   6.410
 4578SOL    HW215632   0.728  10.316   6.491
 4579SOL     OW15633   7.079  12.300   0.010
 4579SOL    HW115634   7.130  12.244  14.838
 4579SOL    HW215635   7.057  12.377  14.846
 4580SOL     OW15636   5.538  13.387   1.017
 4580SOL    HW115637   5.511  13.440   0.941
 4580SOL    HW215638   5.632  13.375   1.004
 4581SOL     OW15639  14.436   2.719  11.102
 4581SOL    HW115640  14.364   2.766  11.059
 4581SOL    HW215641  14.403   2.701  11.190
 4582SOL     OW15642  12.167   5.815   5.047
 4582SOL    HW115643  12.181   5.907   5.026
 4582SOL    HW215644  12.163   5.812   5.143
 4583SOL     OW15645  10.065   2.624  12.171
 4583SOL    HW115646  10.140   2.576  12.207
 4583SOL    HW215647  10.104   2.683  12.106
 4584SOL     OW15648  14.356   9.214   9.778
 4584SOL    HW115649  14.310   9.287   9.736
 4584SOL    HW215650  14.316   9.207   9.864
 4585SOL     OW15651   1.961   2.823  11.236
 4585SOL    HW115652   2.041   2.837  11.287
 4585SOL    HW215653   1.899   2.785  11.298
 4586SOL     OW15654   5.163  13.037   8.106
 4586SOL    HW115655   5.156  13.074   8.194
 4586SOL    HW215656   5.195  12.948   8.119
 4587SOL     OW15657  11.534   6.151   0.940
 4587SOL    HW115658  11.608   6.173   0.884
 4587SOL    HW215659  11.525   6.056   0.933
 4588SOL     OW15660   9.460   2.615   4.259
 4588SOL    HW115661   9.482   2.545   4.198
 4588SOL    HW215662   9.439   2.690   4.203
 4589SOL     OW15663   5.835   4.859   8.162
 4589SOL    HW115664   5.902   4.924   8.185
 4589SOL    HW215665   5.757   4.887   8.211
 4590SOL     OW15666   4.601   5.465   7.771
 4590SOL    HW115667   4.619   5.541   7.826
 4590SOL    HW215668   4.620   5.390   7.828
 4591SOL     OW15669   7.619   2.892   1.834
 4591SOL    HW115670   7.630   2.825   1.767
 4591SOL    HW215671   7.582   2.967   1.788
 4592SOL     OW15672   6.848   9.537  14.013
 4592SOL    HW115673   6.817   9.554  13.924
 4592SOL    HW215674   6.943   9.545  14.008
 4593SOL     OW15675  14.222  10.736   6.910
 4593SOL    HW115676  14.318  10.746   6.911
 4593SOL    HW215677  14.194  10.780   6.830
 4594SOL     OW15678  12.644  13.169   7.596
 4594SOL    HW115679  12.611  13.228   7.664
 4594SOL    HW215680  12.706  13.221   7.545
 4595SOL     OW15681   0.049   9.865   4.349
 4595SOL    HW115682   0.108   9.802   4.308
 4595SOL    HW215683   0.044   9.938   4.287
 4596SOL     OW15684  12.530  11.054   1.124
 4596SOL    HW115685  12.521  11.148   1.143
 4596SOL    HW215686  12.453  11.033   1.071
 4597SOL     OW15687  11.534   3.176   8.102
 4597SOL    HW115688  11.463   3.241   8.100
 4597SOL    HW215689  11.515   3.119   8.027
 4598SOL     OW15690   3.349  13.313  11.386
 4598SOL    HW115691   3.258  13.328  11.414
 4598SOL    HW215692   3.400  13.317  11.467
 4599SOL     OW15693  14.043   7.346   1.832
 4599SOL    HW115694  14.042   7.254   1.855
 4599SOL    HW215695  14.131   7.376   1.856
 4600SOL     OW15696  10.147   4.540  10.303
 4600SOL    HW115697  10.209   4.607  10.273
 4600SOL    HW215698  10.135   4.483  10.228
 4601SOL     OW15699  13.057   9.619   2.956
 4601SOL    HW115700  13.069   9.570   2.875
 4601SOL    HW215701  13.108   9.699   2.943
 4602SOL     OW15702   8.666  12.697   6.888
 4602SOL    HW115703   8.684  12.756   6.815
 4602SOL    HW215704   8.728  12.722   6.956
 4603SOL     OW15705   5.734   8.825  13.188
 4603SOL    HW115706   5.638   8.827  13.184
 4603SOL    HW215707   5.753   8.786  13.274
 4604SOL     OW15708   0.313   0.470  13.487
 4604SOL    HW115709   0.333   0.402  13.423
 4604SOL    HW215710   0.267   0.424  13.557
 4605SOL     OW15711   3.188  13.395   5.247
 4605SOL    HW115712   3.235  13.338   5.186
 4605SOL    HW215713   3.252  13.461   5.272
 4606SOL     OW15714  10.229   5.275   3.006
 4606SOL    HW115715  10.317   5.259   2.972
 4606SOL    HW215716  10.221   5.371   3.007
 4607SOL     OW15717   4.560   9.596   3.613
 4607SOL    HW115718   4.502   9.626   3.543
 4607SOL    HW215719   4.531   9.507   3.632
 4608SOL     OW15720  14.767   6.466   4.972
 4608SOL    HW115721  14.734   6.547   5.010
 4608SOL    HW215722  14.810   6.492   4.891
 4609SOL     OW15723  13.704  14.358   7.037
 4609SOL    HW115724  13.789  14.366   6.994
 4609SOL    HW215725  13.724  14.365   7.131
 4610SOL     OW15726  11.806   8.805   5.099
 4610SOL    HW115727  11.753   8.851   5.164
 4610SOL    HW215728  11.798   8.858   5.020
 4611SOL     OW15729   2.320  11.342   6.669
 4611SOL    HW115730   2.276  11.376   6.747
 4611SOL    HW215731   2.264  11.269   6.641
 4612SOL     OW15732  13.346  11.772  14.591
 4612SOL    HW115733  13.426  11.738  14.550
 4612SOL    HW215734  13.304  11.822  14.521
 4613SOL     OW15735  11.152  12.698   6.047
 4613SOL    HW115736  11.132  12.611   6.082
 4613SOL    HW215737  11.098  12.705   5.968
 4614SOL     OW15738  14.280   6.397  12.394
 4614SOL    HW115739  14.363   6.422  12.355
 4614SOL    HW215740  14.223   6.378  12.320
 4615SOL     OW15741   3.400   0.884   7.298
 4615SOL    HW115742   3.453   0.910   7.223
 4615SOL    HW215743   3.463   0.881   7.371
 4616SOL     OW15744   5.314   3.460  13.064
 4616SOL    HW115745   5.267   3.401  13.005
 4616SOL    HW215746   5.403   3.426  13.067
 4617SOL     OW15747   9.390  12.155  10.977
 4617SOL    HW115748   9.474  12.199  10.990
 4617SOL    HW215749   9.411  12.062  10.984
 4618SOL     OW15750  13.232  14.205  11.785
 4618SOL    HW115751  13.231  14.280  11.725
 4618SOL    HW215752  13.299  14.147  11.750
 4619SOL     OW15753  11.954   7.259  10.746
 4619SOL    HW115754  12.018   7.263  10.675
 4619SOL    HW215755  12.002   7.221  10.819
 4620SOL     OW15756   9.380   3.723  13.045
 4620SOL    HW115757   9.447   3.790  13.060
 4620SOL    HW215758   9.355   3.735  12.954
 4621SOL     OW15759   1.103  13.022   3.139
 4621SOL    HW115760   1.124  12.946   3.194
 4621SOL    HW215761   1.014  13.005   3.109
 4622SOL     OW15762  10.688   7.814   3.920
 4622SOL    HW115763  10.680   7.849   3.831
 4622SOL    HW215764  10.722   7.725   3.908
 4623SOL     OW15765   4.295  13.595   6.092
 4623SOL    HW115766   4.263  13.650   6.163
 4623SOL    HW215767   4.232  13.609   6.021
 4624SOL     OW15768  13.320   5.745  12.528
 4624SOL    HW115769  13.265   5.699  12.466
 4624SOL    HW215770  13.407   5.705  12.518
 4625SOL     OW15771  13.057   9.534   7.774
 4625SOL    HW115772  13.037   9.446   7.743
 4625SOL    HW215773  12.989   9.590   7.735
 4626SOL     OW15774   8.240   5.647  11.315
 4626SOL    HW115775   8.326   5.613  11.336
 4626SOL    HW215776   8.245   5.740  11.338
 4627SOL     OW15777   0.063  11.696   3.737
 4627SOL    HW115778   0.014  11.751   3.798
 4627SOL    HW215779   0.082  11.616   3.786
 4628SOL     OW15780  12.780  13.803   2.188
 4628SOL    HW115781  12.871  13.821   2.214
 4628SOL    HW215782  12.776  13.707   2.180
 4629SOL     OW15783  13.141   8.321   2.521
 4629SOL    HW115784  13.061   8.366   2.495
 4629SOL    HW215785  13.119   8.228   2.516
 4630SOL     OW15786   7.726   3.411  12.674
 4630SOL    HW115787   7.799   3.425  12.614
 4630SOL    HW215788   7.682   3.333  12.640
 4631SOL     OW15789   6.124  13.012  14.304
 4631SOL    HW115790   6.062  12.970  14.364
 4631SOL    HW215791   6.205  12.962  14.314
 4632SOL     OW15792  12.466  14.168   0.919
 4632SOL    HW115793  12.519  14.238   0.881
 4632SOL    HW215794  12.484  14.092   0.864
 4633SOL     OW15795   2.552  10.035   7.125
 4633SOL    HW115796   2.548  10.124   7.161
 4633SOL    HW215797   2.462  10.015   7.101
 4634SOL     OW15798  12.940   9.212  14.722
 4634SOL    HW115799  12.930   9.204  14.627
 4634SOL    HW215800  12.852   9.197  14.757
 4635SOL     OW15801  14.018   4.786  10.684
 4635SOL    HW115802  13.979   4.792  10.772
 4635SOL    HW215803  14.111   4.776  10.700
 4636SOL     OW15804  13.268  11.174  10.873
 4636SOL    HW115805  13.279  11.103  10.810
 4636SOL    HW215806  13.307  11.251  10.830
 4637SOL     OW15807   7.037  12.757   0.798
 4637SOL    HW115808   7.100  12.706   0.849
 4637SOL    HW215809   6.952  12.725   0.827
 4638SOL     OW15810   7.757   5.984   7.586
 4638SOL    HW115811   7.728   5.932   7.511
 4638SOL    HW215812   7.676   6.012   7.629
 4639SOL     OW15813  11.984   6.366   7.432
 4639SOL    HW115814  12.023   6.394   7.515
 4639SOL    HW215815  11.916   6.432   7.414
 4640SOL     OW15816   5.084   3.358   6.496
 4640SOL    HW115817   5.151   3.294   6.520
 4640SOL    HW215818   5.059   3.335   6.407
 4641SOL     OW15819   9.261   2.629  13.122
 4641SOL    HW115820   9.348   2.614  13.085
 4641SOL    HW215821   9.272   2.704  13.180
 4642SOL     OW15822  13.981   2.638   4.448
 4642SOL    HW115823  13.996   2.731   4.431
 4642SOL    HW215824  14.050   2.593   4.399
 4643SOL     OW15825  11.410   0.425   5.560
 4643SOL    HW115826  11.484   0.486   5.552
 4643SOL    HW215827  11.448   0.339   5.546
 4644SOL     OW15828   4.379   9.227   8.847
 4644SOL    HW115829   4.418   9.142   8.866
 4644SOL    HW215830   4.450   9.290   8.860
 4645SOL     OW15831   3.526   3.148  10.920
 4645SOL    HW115832   3.538   3.121  10.829
 4645SOL    HW215833   3.438   3.185  10.923
 4646SOL     OW15834   3.333   7.962   6.433
 4646SOL    HW115835   3.284   7.939   6.512
 4646SOL    HW215836   3.391   7.887   6.419
 4647SOL     OW15837   8.395  10.000   5.578
 4647SOL    HW115838   8.378  10.009   5.485
 4647SOL    HW215839   8.483   9.963   5.583
 4648SOL     OW15840  11.090   9.691   0.300
 4648SOL    HW115841  11.104   9.762   0.238
 4648SOL    HW215842  11.018   9.641   0.263
 4649SOL     OW15843   0.992   9.541  12.105
 4649SOL    HW115844   0.918   9.583  12.062
 4649SOL    HW215845   1.037   9.612  12.151
 4650SOL     OW15846   7.054  10.570  10.173
 4650SOL    HW115847   6.976  10.544  10.222
 4650SOL    HW215848   7.123  10.512  10.204
 4651SOL     OW15849   9.053  11.006  11.829
 4651SOL    HW115850   9.134  11.001  11.779
 4651SOL    HW215851   8.998  11.067  11.781
 4652SOL     OW15852   1.211   6.721   5.845
 4652SOL    HW115853   1.295   6.677   5.833
 4652SOL    HW215854   1.147   6.650   5.847
 4653SOL     OW15855   9.185  10.933  14.819
 4653SOL    HW115856   9.246  10.863  14.797
 4653SOL    HW215857   9.148  10.907   0.016
 4654SOL     OW15858   3.833   7.331   7.782
 4654SOL    HW115859   3.744   7.346   7.813
 4654SOL    HW215860   3.851   7.406   7.725
 4655SOL     OW15861   8.750   9.141   8.696
 4655SOL    HW115862   8.742   9.209   8.763
 4655SOL    HW215863   8.811   9.178   8.632
 4656SOL     OW15864   0.669   6.872  12.946
 4656SOL    HW115865   0.666   6.937  12.875
 4656SOL    HW215866   0.680   6.925  13.025
 4657SOL     OW15867   3.567   8.529  14.669
 4657SOL    HW115868   3.521   8.455  14.709
 4657SOL    HW215869   3.507   8.561  14.602
 4658SOL     OW15870  12.751  11.079  11.936
 4658SOL    HW115871  12.842  11.063  11.964
 4658SOL    HW215872  12.758  11.098  11.843
 4659SOL     OW15873   3.553   5.845   8.786
 4659SOL    HW115874   3.556   5.755   8.754
 4659SOL    HW215875   3.631   5.886   8.749
 4660SOL     OW15876  12.416   1.965   3.206
 4660SOL    HW115877  12.323   1.943   3.217
 4660SOL    HW215878  12.416   2.061   3.197
 4661SOL     OW15879   8.088  13.661  12.247
 4661SOL    HW115880   8.174  13.639  12.214
 4661SOL    HW215881   8.091  13.756  12.261
 4662SOL     OW15882   8.729  13.414   8.309
 4662SOL    HW115883   8.715  13.352   8.381
 4662SOL    HW215884   8.806  13.380   8.263
 4663SOL     OW15885   1.994  14.430   4.986
 4663SOL    HW115886   2.009  14.495   5.055
 4663SOL    HW215887   1.906  14.396   5.004
 4664SOL     OW15888  11.400   2.642  12.887
 4664SOL    HW115889  11.449   2.615  12.810
 4664SOL    HW215890  11.467   2.662  12.953
 4665SOL     OW15891  12.686   6.792  14.363
 4665SOL    HW115892  12.701   6.885  14.349
 4665SOL    HW215893  12.771   6.751  14.345
 4666SOL     OW15894   8.250   8.115  13.331
 4666SOL    HW115895   8.241   8.115  13.236
 4666SOL    HW215896   8.234   8.206  13.356
 4667SOL     OW15897  13.034   8.140   1.017
 4667SOL    HW115898  13.036   8.177   0.928
 4667SOL    HW215899  13.059   8.213   1.074
 4668SOL     OW15900  12.010   0.067  13.254
 4668SOL    HW115901  12.021   0.046  13.161
 4668SOL    HW215902  12.035  14.874  13.299
 4669SOL     OW15903  10.348  14.632  10.910
 4669SOL    HW115904  10.345  14.656  11.003
 4669SOL    HW215905  10.363  14.715  10.865
 4670SOL     OW15906   9.644  14.374   3.537
 4670SOL    HW115907   9.601  14.414   3.462
 4670SOL    HW215908   9.604  14.416   3.613
 4671SOL     OW15909   4.508   2.181   2.055
 4671SOL    HW115910   4.464   2.129   2.122
 4671SOL    HW215911   4.501   2.271   2.086
 4672SOL     OW15912   9.626   1.778   9.540
 4672SOL    HW115913   9.590   1.865   9.519
 4672SOL    HW215914   9.658   1.745   9.456
 4673SOL     OW15915   5.813  11.450   6.412
 4673SOL    HW115916   5.899  11.450   6.454
 4673SOL    HW215917   5.804  11.361   6.377
 4674SOL     OW15918  13.623  11.275   1.946
 4674SOL    HW115919  13.645  11.325   1.867
 4674SOL    HW215920  13.704  11.275   1.998
 4675SOL     OW15921  12.546   7.407   3.377
 4675SOL    HW115922  12.568   7.348   3.305
 4675SOL    HW215923  12.576   7.362   3.456
 4676SOL     OW15924   3.536   3.815  11.973
 4676SOL    HW115925   3.585   3.885  11.928
 4676SOL    HW215926   3.458   3.802  11.919
 4677SOL     OW15927   2.556   6.120   6.228
 4677SOL    HW115928   2.649   6.144   6.237
 4677SOL    HW215929   2.547   6.042   6.282
 4678SOL     OW15930   9.507   8.662   3.116
 4678SOL    HW115931   9.558   8.662   3.197
 4678SOL    HW215932   9.489   8.569   3.100
 4679SOL     OW15933  13.593  11.290  14.456
 4679SOL    HW115934  13.545  11.218  14.497
 4679SOL    HW215935  13.556  11.296  14.368
 4680SOL     OW15936  12.839   5.605   0.033
 4680SOL    HW115937  12.806   5.515   0.024
 4680SOL    HW215938  12.890   5.620  14.841
 4681SOL     OW15939   1.041  14.282  11.607
 4681SOL    HW115940   1.013  14.300  11.517
 4681SOL    HW215941   1.031  14.187  11.617
 4682SOL     OW15942   6.728  11.296   8.839
 4682SOL    HW115943   6.741  11.206   8.868
 4682SOL    HW215944   6.808  11.318   8.792
 4683SOL     OW15945   3.703   1.030   6.043
 4683SOL    HW115946   3.676   0.972   6.113
 4683SOL    HW215947   3.764   1.092   6.084
 4684SOL     OW15948   7.849  13.800  11.670
 4684SOL    HW115949   7.933  13.807  11.714
 4684SOL    HW215950   7.805  13.884  11.688
 4685SOL     OW15951  13.741   9.040   4.823
 4685SOL    HW115952  13.786   8.974   4.877
 4685SOL    HW215953  13.811   9.086   4.777
 4686SOL     OW15954  10.594   3.949   9.680
 4686SOL    HW115955  10.587   3.953   9.585
 4686SOL    HW215956  10.589   4.040   9.709
 4687SOL     OW15957   8.216   9.998   7.121
 4687SOL    HW115958   8.127  10.023   7.149
 4687SOL    HW215959   8.262   9.981   7.203
 4688SOL     OW15960   6.749   7.860   6.087
 4688SOL    HW115961   6.715   7.830   6.171
 4688SOL    HW215962   6.821   7.918   6.110
 4689SOL     OW15963   4.573   7.493  11.482
 4689SOL    HW115964   4.491   7.537  11.456
 4689SOL    HW215965   4.557   7.465  11.572
 4690SOL     OW15966   7.066   6.116  10.606
 4690SOL    HW115967   7.040   6.133  10.516
 4690SOL    HW215968   7.027   6.030  10.626
 4691SOL     OW15969   4.833   5.700   4.914
 4691SOL    HW115970   4.906   5.692   4.852
 4691SOL    HW215971   4.870   5.751   4.987
 4692SOL     OW15972  10.270   2.946   2.489
 4692SOL    HW115973  10.252   2.871   2.545
 4692SOL    HW215974  10.317   2.909   2.414
 4693SOL     OW15975   3.579  13.863   7.764
 4693SOL    HW115976   3.620  13.843   7.679
 4693SOL    HW215977   3.652  13.894   7.818
 4694SOL     OW15978  10.299   0.690  13.597
 4694SOL    HW115979  10.253   0.728  13.522
 4694SOL    HW215980  10.246   0.714  13.673
 4695SOL     OW15981   8.091  13.005   5.746
 4695SOL    HW115982   8.168  12.979   5.797
 4695SOL    HW215983   8.019  12.958   5.787
 4696SOL     OW15984   2.203   5.569  12.599
 4696SOL    HW115985   2.150   5.609  12.667
 4696SOL    HW215986   2.206   5.476  12.622
 4697SOL     OW15987  11.049   6.608   5.397
 4697SOL    HW115988  11.027   6.689   5.443
 4697SOL    HW215989  11.005   6.617   5.312
 4698SOL     OW15990   0.480   9.783  12.974
 4698SOL    HW115991   0.515   9.867  12.944
 4698SOL    HW215992   0.421   9.756  12.904
 4699SOL     OW15993  10.045   9.853  14.363
 4699SOL    HW115994   9.998   9.848  14.446
 4699SOL    HW215995  10.010   9.931  14.320
 4700SOL     OW15996   9.482   9.977   3.202
 4700SOL    HW115997   9.553   9.918   3.177
 4700SOL    HW215998   9.518  10.029   3.274
 4701SOL     OW15999   7.247   8.588   1.320
 4701SOL    HW116000   7.321   8.527   1.319
 4701SOL    HW216001   7.275   8.658   1.379
 4702SOL     OW16002   3.379   7.576  10.345
 4702SOL    HW116003   3.300   7.568  10.291
 4702SOL    HW216004   3.449   7.540  10.291
 4703SOL     OW16005  10.886   4.988  10.491
 4703SOL    HW116006  10.923   5.026  10.570
 4703SOL    HW216007  10.817   4.930  10.522
 4704SOL     OW16008  13.005   4.011   0.911
 4704SOL    HW116009  12.916   3.992   0.938
 4704SOL    HW216010  13.009   4.107   0.906
 4705SOL     OW16011   9.535   2.430   8.594
 4705SOL    HW116012   9.517   2.348   8.640
 4705SOL    HW216013   9.598   2.406   8.526
 4706SOL     OW16014   1.435   4.909   9.730
 4706SOL    HW116015   1.498   4.842   9.757
 4706SOL    HW216016   1.483   4.992   9.738
 4707SOL     OW16017  12.915  10.473  14.109
 4707SOL    HW116018  12.956  10.493  14.024
 4707SOL    HW216019  12.979  10.503  14.174
 4708SOL     OW16020   2.808  12.095   6.471
 4708SOL    HW116021   2.783  12.007   6.499
 4708SOL    HW216022   2.845  12.136   6.549
 4709SOL     OW16023   6.743   4.970   8.387
 4709SOL    HW116024   6.709   5.035   8.449
 4709SOL    HW216025   6.832   4.954   8.416
 4710SOL     OW16026   2.710   8.013   4.025
 4710SOL    HW116027   2.801   7.983   4.027
 4710SOL    HW216028   2.702   8.064   3.945
 4711SOL     OW16029   2.473   8.832   7.180
 4711SOL    HW116030   2.508   8.748   7.150
 4711SOL    HW216031   2.518   8.897   7.127
 4712SOL     OW16032  12.777   0.494  13.897
 4712SOL    HW116033  12.723   0.573  13.907
 4712SOL    HW216034  12.796   0.490  13.803
 4713SOL     OW16035   8.397   3.414   6.976
 4713SOL    HW116036   8.475   3.460   7.006
 4713SOL    HW216037   8.429   3.355   6.907
 4714SOL     OW16038   3.797   1.785   9.320
 4714SOL    HW116039   3.800   1.691   9.304
 4714SOL    HW216040   3.788   1.793   9.415
 4715SOL     OW16041   9.078  12.150   0.250
 4715SOL    HW116042   9.073  12.236   0.209
 4715SOL    HW216043   9.067  12.168   0.343
 4716SOL     OW16044  10.386   3.815   3.622
 4716SOL    HW116045  10.455   3.780   3.678
 4716SOL    HW216046  10.398   3.910   3.625
 4717SOL     OW16047  14.277   5.145   0.124
 4717SOL    HW116048  14.311   5.188   0.203
 4717SOL    HW216049  14.355   5.118   0.076
 4718SOL     OW16050   1.576   8.933   1.780
 4718SOL    HW116051   1.595   9.020   1.816
 4718SOL    HW216052   1.624   8.931   1.697
 4719SOL     OW16053   1.612  14.289  11.242
 4719SOL    HW116054   1.535  14.335  11.274
 4719SOL    HW216055   1.578  14.206  11.207
 4720SOL     OW16056  14.581   5.641  13.054
 4720SOL    HW116057  14.582   5.595  12.970
 4720SOL    HW216058  14.665   5.620  13.094
 4721SOL     OW16059   7.186  13.157   4.446
 4721SOL    HW116060   7.172  13.241   4.490
 4721SOL    HW216061   7.103  13.110   4.456
 4722SOL     OW16062  12.827  12.074  13.277
 4722SOL    HW116063  12.906  12.065  13.224
 4722SOL    HW216064  12.773  12.136  13.228
 4723SOL     OW16065   7.166   5.664   1.074
 4723SOL    HW116066   7.155   5.641   1.167
 4723SOL    HW216067   7.090   5.718   1.053
 4724SOL     OW16068   8.404   7.360   5.663
 4724SOL    HW116069   8.470   7.353   5.595
 4724SOL    HW216070   8.321   7.348   5.617
 4725SOL     OW16071   7.044   3.536  12.701
 4725SOL    HW116072   7.058   3.531  12.796
 4725SOL    HW216073   7.093   3.461  12.666
 4726SOL     OW16074   4.835   9.821  10.674
 4726SOL    HW116075   4.819   9.772  10.755
 4726SOL    HW216076   4.925   9.852  10.681
 4727SOL     OW16077  13.554  13.348  14.455
 4727SOL    HW116078  13.527  13.260  14.428
 4727SOL    HW216079  13.565  13.396  14.373
 4728SOL     OW16080   3.553   4.263   7.907
 4728SOL    HW116081   3.522   4.283   7.995
 4728SOL    HW216082   3.627   4.322   7.894
 4729SOL     OW16083  12.884   6.340  13.266
 4729SOL    HW116084  12.831   6.411  13.230
 4729SOL    HW216085  12.973   6.361  13.240
 4730SOL     OW16086   8.434   9.532   1.421
 4730SOL    HW116087   8.367   9.599   1.407
 4730SOL    HW216088   8.436   9.483   1.339
 4731SOL     OW16089   8.746   5.520  14.512
 4731SOL    HW116090   8.801   5.449  14.481
 4731SOL    HW216091   8.697   5.549  14.435
 4732SOL     OW16092   7.177  11.790   9.111
 4732SOL    HW116093   7.213  11.732   9.044
 4732SOL    HW216094   7.213  11.876   9.090
 4733SOL     OW16095  12.795   4.645  12.787
 4733SOL    HW116096  12.751   4.701  12.851
 4733SOL    HW216097  12.740   4.567  12.781
 4734SOL     OW16098   5.326   6.833  12.013
 4734SOL    HW116099   5.282   6.779  11.948
 4734SOL    HW216100   5.367   6.903  11.962
 4735SOL     OW16101   3.455   5.240  10.544
 4735SOL    HW116102   3.474   5.328  10.577
 4735SOL    HW216103   3.490   5.240  10.455
 4736SOL     OW16104  12.188   6.136  12.513
 4736SOL    HW116105  12.264   6.137  12.456
 4736SOL    HW216106  12.207   6.202  12.580
 4737SOL     OW16107   2.588   3.515  10.285
 4737SOL    HW116108   2.624   3.510  10.197
 4737SOL    HW216109   2.641   3.582  10.329
 4738SOL     OW16110  14.643   0.852   4.003
 4738SOL    HW116111  14.668   0.760   3.996
 4738SOL    HW216112  14.573   0.864   3.939
 4739SOL     OW16113   0.048   6.515   8.150
 4739SOL    HW116114   0.021   6.588   8.207
 4739SOL    HW216115   0.007   6.534   8.066
 4740SOL     OW16116   8.436   0.590  13.736
 4740SOL    HW116117   8.495   0.532  13.784
 4740SOL    HW216118   8.469   0.588  13.646
 4741SOL     OW16119   8.611   9.441   7.451
 4741SOL    HW116120   8.517   9.441   7.434
 4741SOL    HW216121   8.630   9.530   7.481
 4742SOL     OW16122   8.565   2.599   0.980
 4742SOL    HW116123   8.517   2.577   1.060
 4742SOL    HW216124   8.642   2.648   1.011
 4743SOL     OW16125  12.963   9.305  13.438
 4743SOL    HW116126  13.006   9.307  13.352
 4743SOL    HW216127  12.944   9.213  13.454
 4744SOL     OW16128   1.514   0.552   4.925
 4744SOL    HW116129   1.437   0.580   4.876
 4744SOL    HW216130   1.535   0.466   4.889
 4745SOL     OW16131   6.024   8.468   1.498
 4745SOL    HW116132   6.000   8.473   1.591
 4745SOL    HW216133   6.033   8.374   1.481
 4746SOL     OW16134  10.620   4.067   1.582
 4746SOL    HW116135  10.632   3.972   1.584
 4746SOL    HW216136  10.526   4.079   1.595
 4747SOL     OW16137   4.059   8.018   1.698
 4747SOL    HW116138   4.057   7.963   1.777
 4747SOL    HW216139   4.107   8.096   1.724
 4748SOL     OW16140  11.202   1.545  10.951
 4748SOL    HW116141  11.129   1.575  10.897
 4748SOL    HW216142  11.186   1.582  11.037
 4749SOL     OW16143   7.195   0.105   2.882
 4749SOL    HW116144   7.255   0.164   2.928
 4749SOL    HW216145   7.111   0.116   2.927
 4750SOL     OW16146   5.379   8.923  11.568
 4750SOL    HW116147   5.452   8.933  11.630
 4750SOL    HW216148   5.415   8.873  11.496
 4751SOL     OW16149   8.050   4.373  11.359
 4751SOL    HW116150   8.092   4.342  11.440
 4751SOL    HW216151   8.102   4.449  11.332
 4752SOL     OW16152   4.342   2.265   1.138
 4752SOL    HW116153   4.417   2.221   1.098
 4752SOL    HW216154   4.320   2.336   1.078
 4753SOL     OW16155  11.958   0.556   5.690
 4753SOL    HW116156  11.877   0.537   5.737
 4753SOL    HW216157  11.928   0.586   5.604
 4754SOL     OW16158  12.739   6.472   8.207
 4754SOL    HW116159  12.735   6.567   8.209
 4754SOL    HW216160  12.785   6.451   8.125
 4755SOL     OW16161  13.937   7.775   0.326
 4755SOL    HW116162  13.939   7.869   0.347
 4755SOL    HW216163  13.995   7.735   0.391
 4756SOL     OW16164  13.903   8.897  11.318
 4756SOL    HW116165  13.887   8.963  11.386
 4756SOL    HW216166  13.982   8.851  11.348
 4757SOL     OW16167   7.896   4.124  11.519
 4757SOL    HW116168   7.825   4.080  11.565
 4757SOL    HW216169   7.879   4.106  11.426
 4758SOL     OW16170   5.390   1.328   1.889
 4758SOL    HW116171   5.328   1.259   1.866
 4758SOL    HW216172   5.460   1.321   1.824
 4759SOL     OW16173   7.541   9.303  12.592
 4759SOL    HW116174   7.615   9.350  12.554
 4759SOL    HW216175   7.561   9.210  12.576
 4760SOL     OW16176   3.559   9.549  11.271
 4760SOL    HW116177   3.505   9.586  11.341
 4760SOL    HW216178   3.502   9.484  11.229
 4761SOL     OW16179   0.093  12.778  14.383
 4761SOL    HW116180   0.112  12.687  14.406
 4761SOL    HW216181  14.885  12.785  14.386
 4762SOL     OW16182   8.787   1.084   6.332
 4762SOL    HW116183   8.716   1.020   6.328
 4762SOL    HW216184   8.748   1.162   6.371
 4763SOL     OW16185   8.789   8.397   2.954
 4763SOL    HW116186   8.751   8.472   3.000
 4763SOL    HW216187   8.837   8.349   3.022
 4764SOL     OW16188   2.247   4.701   8.888
 4764SOL    HW116189   2.206   4.641   8.950
 4764SOL    HW216190   2.339   4.673   8.886
 4765SOL     OW16191  13.488   6.251   0.490
 4765SOL    HW116192  13.524   6.261   0.402
 4765SOL    HW216193  13.537   6.177   0.528
 4766SOL     OW16194  10.432  11.283   9.075
 4766SOL    HW116195  10.353  11.239   9.044
 4766SOL    HW216196  10.447  11.247   9.162
 4767SOL     OW16197  12.066   6.107   7.327
 4767SOL    HW116198  12.053   6.200   7.349
 4767SOL    HW216199  12.074   6.063   7.411
 4768SOL     OW16200  10.188   5.050   0.368
 4768SOL    HW116201  10.109   5.068   0.315
 4768SOL    HW216202  10.173   5.096   0.450
 4769SOL     OW16203   9.242  11.198   6.908
 4769SOL    HW116204   9.310  11.136   6.881
 4769SOL    HW216205   9.216  11.169   6.995
 4770SOL     OW16206   0.715   2.531   0.384
 4770SOL    HW116207   0.751   2.500   0.466
 4770SOL    HW216208   0.746   2.622   0.377
 4771SOL     OW16209   1.752  11.738   6.880
 4771SOL    HW116210   1.779  11.795   6.951
 4771SOL    HW216211   1.697  11.672   6.922
 4772SOL     OW16212   6.514  10.967  11.001
 4772SOL    HW116213   6.464  11.028  10.948
 4772SOL    HW216214   6.605  10.984  10.977
 4773SOL     OW16215  13.703   3.426   9.862
 4773SOL    HW116216  13.614   3.390   9.867
 4773SOL    HW216217  13.705   3.492   9.931
 4774SOL     OW16218   9.029   8.477   3.386
 4774SOL    HW116219   9.104   8.492   3.329
 4774SOL    HW216220   8.973   8.554   3.373
 4775SOL     OW16221  14.286  13.849   2.279
 4775SOL    HW116222  14.253  13.772   2.326
 4775SOL    HW216223  14.317  13.814   2.195
 4776SOL     OW16224  13.862  11.324   3.504
 4776SOL    HW116225  13.844  11.257   3.570
 4776SOL    HW216226  13.948  11.301   3.469
 4777SOL     OW16227  10.746   9.028  11.857
 4777SOL    HW116228  10.689   8.964  11.901
 4777SOL    HW216229  10.794   9.070  11.928
 4778SOL     OW16230   7.837   2.663   2.109
 4778SOL    HW116231   7.790   2.723   2.051
 4778SOL    HW216232   7.767   2.617   2.156
 4779SOL     OW16233   5.352  11.920  13.115
 4779SOL    HW116234   5.380  12.010  13.131
 4779SOL    HW216235   5.433  11.868  13.119
 4780SOL     OW16236  14.825   0.817   6.437
 4780SOL    HW116237  14.741   0.771   6.442
 4780SOL    HW216238  14.877   0.781   6.509
 4781SOL     OW16239   7.385   3.776   0.832
 4781SOL    HW116240   7.434   3.796   0.912
 4781SOL    HW216241   7.421   3.693   0.802
 4782SOL     OW16242   0.053   3.764   1.215
 4782SOL    HW116243   0.006   3.752   1.133
 4782SOL    HW216244  14.887   3.720   1.281
 4783SOL     OW16245   9.994   0.568   5.277
 4783SOL    HW116246  10.080   0.555   5.238
 4783SOL    HW216247   9.970   0.483   5.313
 4784SOL     OW16248   4.201  14.036   6.649
 4784SOL    HW116249   4.147  14.074   6.718
 4784SOL    HW216250   4.149  13.963   6.615
 4785SOL     OW16251   3.450   1.204   7.618
 4785SOL    HW116252   3.448   1.132   7.681
 4785SOL    HW216253   3.365   1.246   7.626
 4786SOL     OW16254   5.848  13.251   0.668
 4786SOL    HW116255   5.840  13.260   0.762
 4786SOL    HW216256   5.767  13.207   0.641
 4787SOL     OW16257  10.466   4.781   1.546
 4787SOL    HW116258  10.494   4.758   1.635
 4787SOL    HW216259  10.520   4.726   1.489
 4788SOL     OW16260   7.934  10.082   3.037
 4788SOL    HW116261   7.937  10.026   3.115
 4788SOL    HW216262   8.010  10.139   3.046
 4789SOL     OW16263  12.912   5.203   2.654
 4789SOL    HW116264  12.994   5.188   2.702
 4789SOL    HW216265  12.936   5.264   2.584
 4790SOL     OW16266  14.005   7.795  10.127
 4790SOL    HW116267  14.077   7.830  10.074
 4790SOL    HW216268  14.013   7.839  10.211
 4791SOL     OW16269   6.525   3.713  10.318
 4791SOL    HW116270   6.470   3.785  10.286
 4791SOL    HW216271   6.609   3.727  10.274
 4792SOL     OW16272   3.492   4.528   9.255
 4792SOL    HW116273   3.419   4.483   9.213
 4792SOL    HW216274   3.474   4.522   9.348
 4793SOL     OW16275  12.293  12.194   4.858
 4793SOL    HW116276  12.302  12.271   4.802
 4793SOL    HW216277  12.259  12.229   4.941
 4794SOL     OW16278  12.434   9.394   5.533
 4794SOL    HW116279  12.519   9.379   5.493
 4794SOL    HW216280  12.371   9.366   5.465
 4795SOL     OW16281   0.323   2.491   3.786
 4795SOL    HW116282   0.375   2.572   3.783
 4795SOL    HW216283   0.333   2.454   3.698
 4796SOL     OW16284  12.469  10.118  10.339
 4796SOL    HW116285  12.426  10.151  10.260
 4796SOL    HW216286  12.557  10.093  10.310
 4797SOL     OW16287  13.896  11.466   1.425
 4797SOL    HW116288  13.946  11.504   1.353
 4797SOL    HW216289  13.805  11.474   1.397
 4798SOL     OW16290   6.049   6.667   0.741
 4798SOL    HW116291   6.087   6.579   0.733
 4798SOL    HW216292   5.966   6.653   0.786
 4799SOL     OW16293  10.232  10.168   3.561
 4799SOL    HW116294  10.164  10.167   3.495
 4799SOL    HW216295  10.212  10.243   3.616
 4800SOL     OW16296   7.301   9.531   7.895
 4800SOL    HW116297   7.237   9.601   7.897
 4800SOL    HW216298   7.255   9.456   7.857
 4801SOL     OW16299  14.304  14.410   3.086
 4801SOL    HW116300  14.370  14.349   3.056
 4801SOL    HW216301  14.290  14.469   3.012
 4802SOL     OW16302   0.614   8.929   4.323
 4802SOL    HW116303   0.614   9.024   4.309
 4802SOL    HW216304   0.684   8.897   4.266
 4803SOL     OW16305   3.863   2.196   8.772
 4803SOL    HW116306   3.802   2.181   8.700
 4803SOL    HW216307   3.843   2.284   8.803
 4804SOL     OW16308   1.465   1.223   8.622
 4804SOL    HW116309   1.494   1.141   8.662
 4804SOL    HW216310   1.424   1.196   8.540
 4805SOL     OW16311   3.397   3.799   1.051
 4805SOL    HW116312   3.417   3.840   0.967
 4805SOL    HW216313   3.319   3.844   1.082
 4806SOL     OW16314   5.578  11.488   4.181
 4806SOL    HW116315   5.490  11.465   4.152
 4806SOL    HW216316   5.582  11.460   4.272
 4807SOL     OW16317   0.270   3.754  14.463
 4807SOL    HW116318   0.330   3.680  14.474
 4807SOL    HW216319   0.189   3.726  14.507
 4808SOL     OW16320   9.886   2.326  12.362
 4808SOL    HW116321   9.901   2.233  12.381
 4808SOL    HW216322   9.969   2.368  12.385
 4809SOL     OW16323  14.648   9.126   8.233
 4809SOL    HW116324  14.561   9.092   8.212
 4809SOL    HW216325  14.669   9.089   8.318
 4810SOL     OW16326   2.738  12.676   4.798
 4810SOL    HW116327   2.779  12.600   4.840
 4810SOL    HW216328   2.660  12.693   4.851
 4811SOL     OW16329   5.703   9.665  14.450
 4811SOL    HW116330   5.652   9.728  14.500
 4811SOL    HW216331   5.786   9.659  14.498
 4812SOL     OW16332  14.427   5.311   5.883
 4812SOL    HW116333  14.352   5.281   5.832
 4812SOL    HW216334  14.468   5.231   5.915
 4813SOL     OW16335  12.231   9.822   0.956
 4813SOL    HW116336  12.323   9.841   0.974
 4813SOL    HW216337  12.185   9.904   0.975
 4814SOL     OW16338   1.846   4.453  11.848
 4814SOL    HW116339   1.847   4.406  11.765
 4814SOL    HW216340   1.803   4.536  11.827
 4815SOL     OW16341   1.833  14.401  14.692
 4815SOL    HW116342   1.859  14.355  14.612
 4815SOL    HW216343   1.752  14.358  14.719
 4816SOL     OW16344   6.684   0.134   8.738
 4816SOL    HW116345   6.627   0.063   8.710
 4816SOL    HW216346   6.726   0.102   8.817
 4817SOL     OW16347   0.692   0.713   4.279
 4817SOL    HW116348   0.661   0.792   4.234
 4817SOL    HW216349   0.757   0.675   4.219
 4818SOL     OW16350  11.044  13.334  14.586
 4818SOL    HW116351  11.129  13.307  14.622
 4818SOL    HW216352  11.037  13.427  14.607
 4819SOL     OW16353   3.917   7.248   8.136
 4819SOL    HW116354   3.828   7.282   8.127
 4819SOL    HW216355   3.967   7.322   8.169
 4820SOL     OW16356  12.828   8.596   0.772
 4820SOL    HW116357  12.825   8.665   0.838
 4820SOL    HW216358  12.878   8.634   0.699
 4821SOL     OW16359  12.529   2.775  14.485
 4821SOL    HW116360  12.456   2.835  14.499
 4821SOL    HW216361  12.508   2.698  14.538
 4822SOL     OW16362   2.757  11.489   1.683
 4822SOL    HW116363   2.693  11.479   1.754
 4822SOL    HW216364   2.793  11.401   1.671
 4823SOL     OW16365   3.498   3.557   2.012
 4823SOL    HW116366   3.528   3.617   2.080
 4823SOL    HW216367   3.410   3.530   2.040
 4824SOL     OW16368   6.015   0.922   8.926
 4824SOL    HW116369   6.067   0.996   8.956
 4824SOL    HW216370   5.985   0.946   8.839
 4825SOL     OW16371   5.959   0.000   0.892
 4825SOL    HW116372   5.931  14.862   0.804
 4825SOL    HW216373   5.885   0.049   0.928
 4826SOL     OW16374   7.078   3.273  14.876
 4826SOL    HW116375   7.141   3.336  14.842
 4826SOL    HW216376   7.041   3.315   0.066
 4827SOL     OW16377  10.831   6.580   8.529
 4827SOL    HW116378  10.926   6.574   8.526
 4827SOL    HW216379  10.808   6.645   8.463
 4828SOL     OW16380   4.541   9.967   0.132
 4828SOL    HW116381   4.597   9.901   0.173
 4828SOL    HW216382   4.503  10.015   0.205
 4829SOL     OW16383   4.387   0.807   4.474
 4829SOL    HW116384   4.406   0.900   4.462
 4829SOL    HW216385   4.472   0.769   4.497
 4830SOL     OW16386   2.867   9.607  12.795
 4830SOL    HW116387   2.890   9.565  12.712
 4830SOL    HW216388   2.782   9.647  12.779
 4831SOL     OW16389   1.205  11.664   7.953
 4831SOL    HW116390   1.154  11.623   7.883
 4831SOL    HW216391   1.164  11.750   7.966
 4832SOL     OW16392   7.821   3.909  10.092
 4832SOL    HW116393   7.730   3.938  10.098
 4832SOL    HW216394   7.855   3.917  10.181
 4833SOL     OW16395   8.760   4.372   2.918
 4833SOL    HW116396   8.718   4.359   2.833
 4833SOL    HW216397   8.723   4.303   2.974
 4834SOL     OW16398   1.306   4.261   1.332
 4834SOL    HW116399   1.267   4.320   1.396
 4834SOL    HW216400   1.249   4.184   1.332
 4835SOL     OW16401   0.593   6.935   4.457
 4835SOL    HW116402   0.527   6.996   4.487
 4835SOL    HW216403   0.550   6.885   4.388
 4836SOL     OW16404   5.992   9.476  12.586
 4836SOL    HW116405   5.975   9.507  12.498
 4836SOL    HW216406   6.073   9.520  12.612
 4837SOL     OW16407  11.148   9.910   3.210
 4837SOL    HW116408  11.122   9.826   3.172
 4837SOL    HW216409  11.137   9.898   3.305
 4838SOL     OW16410   6.754   2.282   8.108
 4838SOL    HW116411   6.731   2.371   8.135
 4838SOL    HW216412   6.837   2.292   8.061
 4839SOL     OW16413  13.903  12.737   5.092
 4839SOL    HW116414  13.913  12.692   5.008
 4839SOL    HW216415  13.833  12.690   5.136
 4840SOL     OW16416   1.809   6.214   1.675
 4840SOL    HW116417   1.733   6.199   1.731
 4840SOL    HW216418   1.796   6.153   1.601
 4841SOL     OW16419  12.942   5.771   7.005
 4841SOL    HW116420  12.967   5.742   7.093
 4841SOL    HW216421  12.895   5.696   6.968
 4842SOL     OW16422   9.266  12.853  12.407
 4842SOL    HW116423   9.224  12.939  12.402
 4842SOL    HW216424   9.317  12.855  12.488
 4843SOL     OW16425   7.203   7.051  13.880
 4843SOL    HW116426   7.154   7.044  13.799
 4843SOL    HW216427   7.265   6.978  13.877
 4844SOL     OW16428   9.382   4.338   9.286
 4844SOL    HW116429   9.416   4.362   9.372
 4844SOL    HW216430   9.319   4.268   9.305
 4845SOL     OW16431   1.556   2.300  11.743
 4845SOL    HW116432   1.630   2.269  11.690
 4845SOL    HW216433   1.583   2.285  11.833
 4846SOL     OW16434  11.885  12.789   5.039
 4846SOL    HW116435  11.869  12.883   5.030
 4846SOL    HW216436  11.848  12.751   4.960
 4847SOL     OW16437   7.954   8.593  13.757
 4847SOL    HW116438   7.986   8.622  13.843
 4847SOL    HW216439   7.936   8.500  13.768
 4848SOL     OW16440   9.059   7.477   8.474
 4848SOL    HW116441   9.093   7.557   8.514
 4848SOL    HW216442   9.138   7.426   8.454
 4849SOL     OW16443   3.625   3.263   6.360
 4849SOL    HW116444   3.710   3.226   6.335
 4849SOL    HW216445   3.587   3.199   6.419
 4850SOL     OW16446   8.664  11.911   1.025
 4850SOL    HW116447   8.625  11.996   1.047
 4850SOL    HW216448   8.684  11.918   0.932
 4851SOL     OW16449  13.722   3.848   1.703
 4851SOL    HW116450  13.783   3.914   1.667
 4851SOL    HW216451  13.687   3.804   1.626
 4852SOL     OW16452  13.588   9.775  12.221
 4852SOL    HW116453  13.665   9.777  12.164
 4852SOL    HW216454  13.584   9.684  12.251
 4853SOL     OW16455   6.419  12.124   7.217
 4853SOL    HW116456   6.480  12.053   7.241
 4853SOL    HW216457   6.332  12.087   7.234
 4854SOL     OW16458   4.813  12.742   3.715
 4854SOL    HW116459   4.806  12.817   3.773
 4854SOL    HW216460   4.728  12.738   3.671
 4855SOL     OW16461  13.906   5.731   0.903
 4855SOL    HW116462  13.938   5.805   0.955
 4855SOL    HW216463  13.973   5.717   0.837
 4856SOL     OW16464   6.962   6.714  14.669
 4856SOL    HW116465   7.012   6.657  14.610
 4856SOL    HW216466   7.007   6.706  14.753
 4857SOL     OW16467   7.182   9.157   9.639
 4857SOL    HW116468   7.255   9.141   9.698
 4857SOL    HW216469   7.223   9.177   9.555
 4858SOL     OW16470   0.990   9.536   2.337
 4858SOL    HW116471   1.000   9.482   2.258
 4858SOL    HW216472   1.024   9.481   2.408
 4859SOL     OW16473   1.397   3.771   3.895
 4859SOL    HW116474   1.450   3.847   3.872
 4859SOL    HW216475   1.369   3.735   3.811
 4860SOL     OW16476   8.371   1.113  10.152
 4860SOL    HW116477   8.368   1.208  10.157
 4860SOL    HW216478   8.460   1.090  10.179
 4861SOL     OW16479  10.688  11.793  12.763
 4861SOL    HW116480  10.730  11.817  12.680
 4861SOL    HW216481  10.610  11.848  12.768
 4862SOL     OW16482   2.208  11.308  13.794
 4862SOL    HW116483   2.278  11.373  13.794
 4862SOL    HW216484   2.172  11.312  13.705
 4863SOL     OW16485   9.347  10.237   0.463
 4863SOL    HW116486   9.403  10.312   0.485
 4863SOL    HW216487   9.281  10.237   0.532
 4864SOL     OW16488   3.724   5.935   4.868
 4864SOL    HW116489   3.689   5.965   4.952
 4864SOL    HW216490   3.653   5.951   4.805
 4865SOL     OW16491   5.701  10.980   6.356
 4865SOL    HW116492   5.636  10.910   6.360
 4865SOL    HW216493   5.652  11.059   6.379
 4866SOL     OW16494  11.883   2.761   6.419
 4866SOL    HW116495  11.856   2.706   6.346
 4866SOL    HW216496  11.971   2.732   6.441
 4867SOL     OW16497   8.455   7.928   9.186
 4867SOL    HW116498   8.397   7.999   9.213
 4867SOL    HW216499   8.464   7.938   9.092
 4868SOL     OW16500   7.545  12.302   4.011
 4868SOL    HW116501   7.527  12.219   4.056
 4868SOL    HW216502   7.594  12.354   4.075
 4869SOL     OW16503  11.875  11.501   0.998
 4869SOL    HW116504  11.820  11.510   1.076
 4869SOL    HW216505  11.831  11.434   0.946
 4870SOL     OW16506   2.056   2.751  10.998
 4870SOL    HW116507   2.103   2.698  11.063
 4870SOL    HW216508   1.980   2.785  11.045
 4871SOL     OW16509  10.209  12.141  12.204
 4871SOL    HW116510  10.297  12.171  12.181
 4871SOL    HW216511  10.153  12.178  12.136
 4872SOL     OW16512  12.945   4.389   1.409
 4872SOL    HW116513  12.922   4.476   1.444
 4872SOL    HW216514  12.905   4.327   1.470
 4873SOL     OW16515  11.833  10.742   8.211
 4873SOL    HW116516  11.906  10.744   8.149
 4873SOL    HW216517  11.775  10.812   8.181
 4874SOL     OW16518  12.797   0.636   0.712
 4874SOL    HW116519  12.723   0.692   0.689
 4874SOL    HW216520  12.818   0.589   0.631
 4875SOL     OW16521   8.190  10.141   1.951
 4875SOL    HW116522   8.274  10.165   1.913
 4875SOL    HW216523   8.177  10.050   1.924
 4876SOL     OW16524   6.569   2.660   0.074
 4876SOL    HW116525   6.628   2.640   0.147
 4876SOL    HW216526   6.628   2.681   0.001
 4877SOL     OW16527   8.345   7.851  11.446
 4877SOL    HW116528   8.334   7.932  11.396
 4877SOL    HW216529   8.262   7.804  11.436
 4878SOL     OW16530  11.845   2.527  14.818
 4878SOL    HW116531  11.812   2.487   0.011
 4878SOL    HW216532  11.933   2.492  14.808
 4879SOL     OW16533   3.104   3.022   0.580
 4879SOL    HW116534   3.109   3.071   0.498
 4879SOL    HW216535   3.180   2.964   0.578
 4880SOL     OW16536   5.811  10.202   8.133
 4880SOL    HW116537   5.801  10.151   8.213
 4880SOL    HW216538   5.814  10.293   8.162
 4881SOL     OW16539   6.337   5.621   7.934
 4881SOL    HW116540   6.371   5.709   7.949
 4881SOL    HW216541   6.333   5.581   8.021
 4882SOL     OW16542   9.094   4.318  14.469
 4882SOL    HW116543   9.088   4.369  14.550
 4882SOL    HW216544   9.029   4.249  14.478
 4883SOL     OW16545   8.806   3.709   3.215
 4883SOL    HW116546   8.768   3.725   3.128
 4883SOL    HW216547   8.742   3.653   3.258
 4884SOL     OW16548  13.376  11.375   9.463
 4884SOL    HW116549  13.321  11.312   9.509
 4884SOL    HW216550  13.315  11.424   9.408
 4885SOL     OW16551   2.462  13.452   1.039
 4885SOL    HW116552   2.529  13.385   1.025
 4885SOL    HW216553   2.484  13.521   0.976
 4886SOL     OW16554   9.446   3.270   8.959
 4886SOL    HW116555   9.421   3.300   9.046
 4886SOL    HW216556   9.401   3.329   8.899
 4887SOL     OW16557   5.168   7.916  13.707
 4887SOL    HW116558   5.248   7.889  13.752
 4887SOL    HW216559   5.097   7.875  13.757
 4888SOL     OW16560   6.686   7.154  14.739
 4888SOL    HW116561   6.710   7.208  14.814
 4888SOL    HW216562   6.749   7.082  14.740
 4889SOL     OW16563   7.230   0.146   8.898
 4889SOL    HW116564   7.309   0.111   8.940
 4889SOL    HW216565   7.191   0.203   8.964
 4890SOL     OW16566   3.499   5.146   9.606
 4890SOL    HW116567   3.406   5.149   9.585
 4890SOL    HW216568   3.510   5.061   9.651
 4891SOL     OW16569  13.762   4.672   8.354
 4891SOL    HW116570  13.784   4.765   8.353
 4891SOL    HW216571  13.778   4.643   8.265
 4892SOL     OW16572  11.785   6.270  12.706
 4892SOL    HW116573  11.772   6.322  12.627
 4892SOL    HW216574  11.877   6.242  12.702
 4893SOL     OW16575   2.141  14.453   0.521
 4893SOL    HW116576   2.195  14.474   0.445
 4893SOL    HW216577   2.115  14.538   0.557
 4894SOL     OW16578   8.054   1.754   2.899
 4894SOL    HW116579   8.102   1.700   2.962
 4894SOL    HW216580   7.963   1.725   2.908
 4895SOL     OW16581   8.919  13.820  11.240
 4895SOL    HW116582   9.006  13.794  11.270
 4895SOL    HW216583   8.924  13.916  11.231
 4896SOL     OW16584  10.085  12.063   5.178
 4896SOL    HW116585  10.135  12.019   5.246
 4896SOL    HW216586  10.035  12.130   5.224
 4897SOL     OW16587  13.725  10.886  12.605
 4897SOL    HW116588  13.694  10.826  12.538
 4897SOL    HW216589  13.695  10.847  12.688
 4898SOL     OW16590  14.216   9.709  10.751
 4898SOL    HW116591  14.269   9.783  10.723
 4898SOL    HW216592  14.279   9.646  10.786
 4899SOL     OW16593   9.287  13.791   8.374
 4899SOL    HW116594   9.249  13.840   8.302
 4899SOL    HW216595   9.269  13.845   8.452
 4900SOL     OW16596   1.888   0.803  12.763
 4900SOL    HW116597   1.830   0.875  12.737
 4900SOL    HW216598   1.935   0.781  12.682
 4901SOL     OW16599  13.649   8.989  12.695
 4901SOL    HW116600  13.560   8.987  12.658
 4901SOL    HW216601  13.663   8.902  12.730
 4902SOL     OW16602   7.120   0.356  11.023
 4902SOL    HW116603   7.169   0.339  10.942
 4902SOL    HW216604   7.101   0.269  11.058
 4903SOL     OW16605   9.079   4.826   7.453
 4903SOL    HW116606   8.990   4.856   7.436
 4903SOL    HW216607   9.070   4.759   7.521
 4904SOL     OW16608  13.878  12.386   8.034
 4904SOL    HW116609  13.971  12.371   8.018
 4904SOL    HW216610  13.861  12.473   7.999
 4905SOL     OW16611  13.219   7.487   3.342
 4905SOL    HW116612  13.296   7.476   3.397
 4905SOL    HW216613  13.184   7.573   3.367
 4906SOL     OW16614  10.729  11.087   7.256
 4906SOL    HW116615  10.764  11.109   7.342
 4906SOL    HW216616  10.806  11.059   7.205
 4907SOL     OW16617  12.470   7.324   2.049
 4907SOL    HW116618  12.382   7.353   2.073
 4907SOL    HW216619  12.468   7.229   2.059
 4908SOL     OW16620   5.640   4.103  13.278
 4908SOL    HW116621   5.698   4.179  13.275
 4908SOL    HW216622   5.552   4.139  13.289
 4909SOL     OW16623   9.953  10.819  13.647
 4909SOL    HW116624   9.922  10.767  13.721
 4909SOL    HW216625   9.919  10.907  13.664
 4910SOL     OW16626   9.447  11.381   7.893
 4910SOL    HW116627   9.472  11.341   7.977
 4910SOL    HW216628   9.406  11.309   7.844
 4911SOL     OW16629   7.260   9.223   4.931
 4911SOL    HW116630   7.271   9.307   4.888
 4911SOL    HW216631   7.176   9.230   4.976
 4912SOL     OW16632   2.843   4.643   7.849
 4912SOL    HW116633   2.748   4.648   7.855
 4912SOL    HW216634   2.862   4.639   7.755
 4913SOL     OW16635  11.635  13.513   6.306
 4913SOL    HW116636  11.613  13.606   6.308
 4913SOL    HW216637  11.721  13.508   6.350
 4914SOL     OW16638  11.585   9.297   2.972
 4914SOL    HW116639  11.623   9.384   2.957
 4914SOL    HW216640  11.608   9.248   2.893
 4915SOL     OW16641   0.236  13.800   2.471
 4915SOL    HW116642   0.303  13.782   2.537
 4915SOL    HW216643   0.228  13.719   2.421
 4916SOL     OW16644  14.330   1.638   7.067
 4916SOL    HW116645  14.348   1.553   7.108
 4916SOL    HW216646  14.372   1.702   7.124
 4917SOL     OW16647   6.073  14.575   9.385
 4917SOL    HW116648   6.043  14.483   9.385
 4917SOL    HW216649   6.054  14.606   9.473
 4918SOL     OW16650   4.633   6.462   6.755
 4918SOL    HW116651   4.611   6.470   6.848
 4918SOL    HW216652   4.729   6.466   6.753
 4919SOL     OW16653   6.015   4.508   8.455
 4919SOL    HW116654   6.044   4.586   8.503
 4919SOL    HW216655   6.062   4.512   8.372
 4920SOL     OW16656   9.627   3.283  13.970
 4920SOL    HW116657   9.619   3.218  13.900
 4920SOL    HW216658   9.672   3.236  14.041
 4921SOL     OW16659  11.951  13.214  12.407
 4921SOL    HW116660  11.891  13.150  12.444
 4921SOL    HW216661  11.905  13.298  12.417
 4922SOL     OW16662   3.849   2.823   4.957
 4922SOL    HW116663   3.804   2.895   5.000
 4922SOL    HW216664   3.780   2.776   4.910
 4923SOL     OW16665   1.534  14.667   9.827
 4923SOL    HW116666   1.579  14.735   9.778
 4923SOL    HW216667   1.587  14.656   9.906
 4924SOL     OW16668   5.017   0.095   7.000
 4924SOL    HW116669   4.934   0.065   7.038
 4924SOL    HW216670   5.038   0.174   7.049
 4925SOL     OW16671  11.204   8.354  10.062
 4925SOL    HW116672  11.213   8.357  10.158
 4925SOL    HW216673  11.294   8.362  10.030
 4926SOL     OW16674   0.701   3.271   4.712
 4926SOL    HW116675   0.763   3.327   4.757
 4926SOL    HW216676   0.755   3.219   4.652
 4927SOL     OW16677   2.552   4.230   6.288
 4927SOL    HW116678   2.617   4.207   6.222
 4927SOL    HW216679   2.601   4.280   6.354
 4928SOL     OW16680  10.444   7.650   2.716
 4928SOL    HW116681  10.413   7.611   2.634
 4928SOL    HW216682  10.521   7.701   2.690
 4929SOL     OW16683  10.540  10.844   5.851
 4929SOL    HW116684  10.482  10.823   5.924
 4929SOL    HW216685  10.532  10.938   5.839
 4930SOL     OW16686   7.706  12.348   5.674
 4930SOL    HW116687   7.729  12.441   5.677
 4930SOL    HW216688   7.746  12.317   5.593
 4931SOL     OW16689  13.149  11.164   7.961
 4931SOL    HW116690  13.148  11.255   7.932
 4931SOL    HW216691  13.233  11.154   8.005
 4932SOL     OW16692  11.506   4.022   9.675
 4932SOL    HW116693  11.546   4.084   9.614
 4932SOL    HW216694  11.518   3.936   9.634
 4933SOL     OW16695   1.638   0.241  10.299
 4933SOL    HW116696   1.684   0.251  10.383
 4933SOL    HW216697   1.619   0.331  10.272
 4934SOL     OW16698   3.076  12.747   1.520
 4934SOL    HW116699   2.995  12.797   1.531
 4934SOL    HW216700   3.114  12.781   1.440
 4935SOL     OW16701   3.339  13.695   5.968
 4935SOL    HW116702   3.418  13.658   6.006
 4935SOL    HW216703   3.278  13.620   5.962
 4936SOL     OW16704   2.224  14.518   3.487
 4936SOL    HW116705   2.169  14.514   3.409
 4936SOL    HW216706   2.271  14.601   3.479
 4937SOL     OW16707  14.119   6.473   0.104
 4937SOL    HW116708  14.034   6.435   0.128
 4937SOL    HW216709  14.167   6.478   0.186
 4938SOL     OW16710  13.621  13.255   5.021
 4938SOL    HW116711  13.543  13.271   5.075
 4938SOL    HW216712  13.594  13.279   4.932
 4939SOL     OW16713   7.350   3.558   8.424
 4939SOL    HW116714   7.436   3.548   8.464
 4939SOL    HW216715   7.304   3.619   8.482
 4940SOL     OW16716   2.589   5.602  13.963
 4940SOL    HW116717   2.620   5.512  13.950
 4940SOL    HW216718   2.618   5.649  13.885
 4941SOL     OW16719   2.058   8.479  14.320
 4941SOL    HW116720   1.993   8.547  14.338
 4941SOL    HW216721   2.077   8.442  14.406
 4942SOL     OW16722   2.928   9.443  12.598
 4942SOL    HW116723   2.985   9.482  12.531
 4942SOL    HW216724   2.854   9.410  12.548
 4943SOL     OW16725   7.629  12.159  14.546
 4943SOL    HW116726   7.571  12.235  14.555
 4943SOL    HW216727   7.658  12.162  14.454
 4944SOL     OW16728   4.480  12.922   3.149
 4944SOL    HW116729   4.399  12.872   3.139
 4944SOL    HW216730   4.543  12.880   3.091
 4945SOL     OW16731   9.332   3.358  10.908
 4945SOL    HW116732   9.248   3.390  10.940
 4945SOL    HW216733   9.397   3.414  10.951
 4946SOL     OW16734  12.731   6.875   9.392
 4946SOL    HW116735  12.783   6.955   9.394
 4946SOL    HW216736  12.642   6.903   9.371
 4947SOL     OW16737  14.173   4.623   5.344
 4947SOL    HW116738  14.110   4.695   5.342
 4947SOL    HW216739  14.168   4.584   5.257
 4948SOL     OW16740   9.606   4.292   2.060
 4948SOL    HW116741   9.561   4.369   2.097
 4948SOL    HW216742   9.559   4.218   2.097
 4949SOL     OW16743  12.141  12.572  13.744
 4949SOL    HW116744  12.069  12.617  13.700
 4949SOL    HW216745  12.119  12.479  13.737
 4950SOL     OW16746   2.963   4.665   3.645
 4950SOL    HW116747   2.953   4.619   3.562
 4950SOL    HW216748   2.901   4.622   3.704
 4951SOL     OW16749  11.191   9.951   7.285
 4951SOL    HW116750  11.192  10.032   7.234
 4951SOL    HW216751  11.258   9.896   7.244
 4952SOL     OW16752   6.952   9.207  11.463
 4952SOL    HW116753   6.874   9.255  11.434
 4952SOL    HW216754   6.926   9.168  11.547
 4953SOL     OW16755   1.976   1.078   6.159
 4953SOL    HW116756   1.971   1.089   6.254
 4953SOL    HW216757   2.019   0.993   6.147
 4954SOL     OW16758   4.245   9.367   3.946
 4954SOL    HW116759   4.240   9.344   4.039
 4954SOL    HW216760   4.164   9.415   3.930
 4955SOL     OW16761   4.610   8.893   1.644
 4955SOL    HW116762   4.693   8.938   1.623
 4955SOL    HW216763   4.596   8.911   1.737
 4956SOL     OW16764  12.018  10.984  11.424
 4956SOL    HW116765  12.106  11.021  11.430
 4956SOL    HW216766  12.022  10.926  11.347
 4957SOL     OW16767  13.447  12.142  11.770
 4957SOL    HW116768  13.474  12.066  11.822
 4957SOL    HW216769  13.402  12.104  11.694
 4958SOL     OW16770   7.358   0.757   9.935
 4958SOL    HW116771   7.434   0.730   9.986
 4958SOL    HW216772   7.393   0.816   9.869
 4959SOL     OW16773   4.730   6.454  11.381
 4959SOL    HW116774   4.793   6.468  11.310
 4959SOL    HW216775   4.781   6.466  11.461
 4960SOL     OW16776   6.234  13.031   8.629
 4960SOL    HW116777   6.215  13.073   8.713
 4960SOL    HW216778   6.305  13.084   8.592
 4961SOL     OW16779  12.972  11.744  12.178
 4961SOL    HW116780  13.058  11.786  12.174
 4961SOL    HW216781  12.935  11.756  12.090
 4962SOL     OW16782  13.892   0.274  14.177
 4962SOL    HW116783  13.882   0.180  14.189
 4962SOL    HW216784  13.802   0.307  14.173
 4963SOL     OW16785   7.407   1.170  11.334
 4963SOL    HW116786   7.367   1.213  11.410
 4963SOL    HW216787   7.433   1.243  11.276
 4964SOL     OW16788   2.587  14.070   7.978
 4964SOL    HW116789   2.549  14.150   7.941
 4964SOL    HW216790   2.661  14.051   7.921
 4965SOL     OW16791   7.658   5.738   5.856
 4965SOL    HW116792   7.573   5.782   5.864
 4965SOL    HW216793   7.642   5.664   5.798
 4966SOL     OW16794   0.296   2.062   6.381
 4966SOL    HW116795   0.288   2.033   6.290
 4966SOL    HW216796   0.216   2.113   6.396
 4967SOL     OW16797  11.960   3.571   9.768
 4967SOL    HW116798  11.985   3.608   9.683
 4967SOL    HW216799  12.029   3.601   9.828
 4968SOL     OW16800   0.132  13.511   2.852
 4968SOL    HW116801   0.056  13.463   2.887
 4968SOL    HW216802   0.161  13.458   2.777
 4969SOL     OW16803   7.654  13.452  11.438
 4969SOL    HW116804   7.695  13.391  11.377
 4969SOL    HW216805   7.719  13.522  11.449
 4970SOL     OW16806  13.426   1.879   0.860
 4970SOL    HW116807  13.374   1.854   0.936
 4970SOL    HW216808  13.370   1.939   0.811
 4971SOL     OW16809   8.497   3.785  11.605
 4971SOL    HW116810   8.474   3.736  11.525
 4971SOL    HW216811   8.591   3.772  11.614
 4972SOL     OW16812   1.881   8.906   7.986
 4972SOL    HW116813   1.841   8.896   8.072
 4972SOL    HW216814   1.822   8.964   7.938
 4973SOL     OW16815   3.230   4.646   9.298
 4973SOL    HW116816   3.157   4.599   9.257
 4973SOL    HW216817   3.254   4.593   9.374
 4974SOL     OW16818   9.308   0.348   3.533
 4974SOL    HW116819   9.305   0.426   3.477
 4974SOL    HW216820   9.267   0.376   3.615
 4975SOL     OW16821   4.843   2.564   8.228
 4975SOL    HW116822   4.929   2.545   8.264
 4975SOL    HW216823   4.791   2.485   8.243
 4976SOL     OW16824   7.816   9.472   8.312
 4976SOL    HW116825   7.824   9.408   8.382
 4976SOL    HW216826   7.734   9.517   8.329
 4977SOL     OW16827  14.313  11.556   4.128
 4977SOL    HW116828  14.271  11.638   4.157
 4977SOL    HW216829  14.308  11.499   4.204
 4978SOL     OW16830   1.040  10.777   7.589
 4978SOL    HW116831   1.044  10.804   7.680
 4978SOL    HW216832   1.046  10.858   7.539
 4979SOL     OW16833   7.498   1.102  13.673
 4979SOL    HW116834   7.460   1.052  13.745
 4979SOL    HW216835   7.560   1.043  13.632
 4980SOL     OW16836   5.793  14.306   6.445
 4980SOL    HW116837   5.744  14.349   6.516
 4980SOL    HW216838   5.755  14.218   6.439
 4981SOL     OW16839   4.936   1.273   7.659
 4981SOL    HW116840   4.871   1.216   7.701
 4981SOL    HW216841   5.007   1.279   7.723
 4982SOL     OW16842  14.374   8.328   6.096
 4982SOL    HW116843  14.415   8.268   6.033
 4982SOL    HW216844  14.409   8.414   6.073
 4983SOL     OW16845   4.776   3.426  14.228
 4983SOL    HW116846   4.725   3.383  14.297
 4983SOL    HW216847   4.770   3.519  14.248
 4984SOL     OW16848  13.995  12.511  14.360
 4984SOL    HW116849  13.916  12.458  14.371
 4984SOL    HW216850  14.039  12.472  14.284
 4985SOL     OW16851   2.388   8.064   6.898
 4985SOL    HW116852   2.453   8.010   6.943
 4985SOL    HW216853   2.310   8.009   6.892
 4986SOL     OW16854   9.347   9.098  10.928
 4986SOL    HW116855   9.315   9.135  11.010
 4986SOL    HW216856   9.442   9.113  10.931
 4987SOL     OW16857   8.362  13.241   7.472
 4987SOL    HW116858   8.306  13.165   7.490
 4987SOL    HW216859   8.326  13.310   7.528
 4988SOL     OW16860   8.535   8.862  12.600
 4988SOL    HW116861   8.584   8.856  12.519
 4988SOL    HW216862   8.545   8.952  12.628
 4989SOL     OW16863  10.067   7.069   0.095
 4989SOL    HW116864  10.137   7.004   0.087
 4989SOL    HW216865  10.030   7.054   0.182
 4990SOL     OW16866  13.778   5.479   7.607
 4990SOL    HW116867  13.855   5.507   7.556
 4990SOL    HW216868  13.728   5.559   7.620
 4991SOL     OW16869   0.882  14.729  11.147
 4991SOL    HW116870   0.929  14.713  11.065
 4991SOL    HW216871   0.863  14.823  11.146
 4992SOL     OW16872   3.893   9.614  13.763
 4992SOL    HW116873   3.869   9.606  13.855
 4992SOL    HW216874   3.943   9.696  13.758
 4993SOL     OW16875  11.394   2.122   7.080
 4993SOL    HW116876  11.462   2.058   7.099
 4993SOL    HW216877  11.319   2.093   7.133
 4994SOL     OW16878  14.143   5.000   7.018
 4994SOL    HW116879  14.122   5.055   7.094
 4994SOL    HW216880  14.230   5.028   6.991
 4995SOL     OW16881   6.156  10.297   6.108
 4995SOL    HW116882   6.112  10.297   6.193
 4995SOL    HW216883   6.218  10.224   6.112
 4996SOL     OW16884   8.609   4.787  14.685
 4996SOL    HW116885   8.569   4.846  14.621
 4996SOL    HW216886   8.653   4.720  14.631
 4997SOL     OW16887   1.368   8.992  11.639
 4997SOL    HW116888   1.292   9.031  11.682
 4997SOL    HW216889   1.335   8.911  11.600
 4998SOL     OW16890   6.833   1.529   1.364
 4998SOL    HW116891   6.890   1.470   1.414
 4998SOL    HW216892   6.852   1.508   1.272
 4999SOL     OW16893   3.131   3.421   3.319
 4999SOL    HW116894   3.104   3.503   3.276
 4999SOL    HW216895   3.214   3.398   3.276
 5000SOL     OW16896  11.262   4.207  11.406
 5000SOL    HW116897  11.266   4.167  11.493
 5000SOL    HW216898  11.349   4.191  11.369
 5001SOL     OW16899   7.283   7.439   0.369
 5001SOL    HW116900   7.265   7.347   0.391
 5001SOL    HW216901   7.210   7.466   0.315
 5002SOL     OW16902  13.592   1.359   1.626
 5002SOL    HW116903  13.634   1.422   1.685
 5002SOL    HW216904  13.626   1.274   1.654
 5003SOL     OW16905  11.661   7.688   1.340
 5003SOL    HW116906  11.746   7.689   1.383
 5003SOL    HW216907  11.599   7.672   1.411
 5004SOL     OW16908   3.523  12.939  10.283
 5004SOL    HW116909   3.514  13.005  10.213
 5004SOL    HW216910   3.614  12.910  10.277
 5005SOL     OW16911   2.797   2.424   8.448
 5005SOL    HW116912   2.744   2.420   8.528
 5005SOL    HW216913   2.877   2.375   8.470
 5006SOL     OW16914   9.938   1.304   3.429
 5006SOL    HW116915   9.987   1.232   3.470
 5006SOL    HW216916  10.006   1.364   3.399
 5007SOL     OW16917   5.744  14.142  11.829
 5007SOL    HW116918   5.734  14.069  11.890
 5007SOL    HW216919   5.838  14.152  11.819
 5008SOL     OW16920  14.034   2.606  14.533
 5008SOL    HW116921  14.008   2.665  14.462
 5008SOL    HW216922  14.015   2.519  14.498
 5009SOL     OW16923   8.058  11.019   0.579
 5009SOL    HW116924   8.066  11.108   0.611
 5009SOL    HW216925   8.148  10.992   0.558
 5010SOL     OW16926   4.166   5.624   5.386
 5010SOL    HW116927   4.203   5.696   5.335
 5010SOL    HW216928   4.125   5.567   5.320
 5011SOL     OW16929  11.974   0.678   9.240
 5011SOL    HW116930  11.956   0.770   9.260
 5011SOL    HW216931  11.914   0.629   9.296
 5012SOL     OW16932   7.386   7.725  14.207
 5012SOL    HW116933   7.439   7.799  14.176
 5012SOL    HW216934   7.416   7.709  14.297
 5013SOL     OW16935   4.363  12.998  13.013
 5013SOL    HW116936   4.408  12.971  12.933
 5013SOL    HW216937   4.285  13.044  12.982
 5014SOL     OW16938   1.903  12.443   7.415
 5014SOL    HW116939   1.960  12.457   7.492
 5014SOL    HW216940   1.926  12.355   7.385
 5015SOL     OW16941   6.914   5.125  11.219
 5015SOL    HW116942   7.000   5.092  11.244
 5015SOL    HW216943   6.873   5.051  11.173
 5016SOL     OW16944  12.687   1.956  14.082
 5016SOL    HW116945  12.653   2.037  14.121
 5016SOL    HW216946  12.702   1.978  13.991
 5017SOL     OW16947   1.787  11.432   0.779
 5017SOL    HW116948   1.810  11.340   0.768
 5017SOL    HW216949   1.719  11.449   0.715
 5018SOL     OW16950   1.529   1.572   3.582
 5018SOL    HW116951   1.443   1.559   3.623
 5018SOL    HW216952   1.578   1.625   3.645
 5019SOL     OW16953   8.769  12.553  12.618
 5019SOL    HW116954   8.707  12.567  12.546
 5019SOL    HW216955   8.840  12.615  12.600
 5020SOL     OW16956  13.386  12.669   9.152
 5020SOL    HW116957  13.296  12.682   9.185
 5020SOL    HW216958  13.430  12.752   9.170
 5021SOL     OW16959  13.482   9.398   0.309
 5021SOL    HW116960  13.420   9.373   0.240
 5021SOL    HW216961  13.486   9.322   0.367
 5022SOL     OW16962   9.193   2.976  12.085
 5022SOL    HW116963   9.181   2.920  12.008
 5022SOL    HW216964   9.267   2.936  12.132
 5023SOL     OW16965   5.374   1.029  13.428
 5023SOL    HW116966   5.365   1.107  13.481
 5023SOL    HW216967   5.459   1.037  13.386
 5024SOL     OW16968  14.013   4.423   2.411
 5024SOL    HW116969  14.071   4.367   2.463
 5024SOL    HW216970  14.057   4.432   2.327
 5025SOL     OW16971   1.695   1.987  14.276
 5025SOL    HW116972   1.609   1.947  14.261
 5025SOL    HW216973   1.684   2.078  14.247
 5026SOL     OW16974  12.913   7.614   8.011
 5026SOL    HW116975  12.972   7.539   8.017
 5026SOL    HW216976  12.876   7.608   7.923
 5027SOL     OW16977  14.794   7.543   4.774
 5027SOL    HW116978  14.795   7.449   4.757
 5027SOL    HW216979  14.871   7.558   4.828
 5028SOL     OW16980  11.462   3.181  11.899
 5028SOL    HW116981  11.393   3.215  11.843
 5028SOL    HW216982  11.460   3.086  11.885
 5029SOL     OW16983  14.291   8.657  13.943
 5029SOL    HW116984  14.203   8.619  13.951
 5029SOL    HW216985  14.320   8.671  14.033
 5030SOL     OW16986   5.460   4.522   5.200
 5030SOL    HW116987   5.405   4.587   5.244
 5030SOL    HW216988   5.547   4.562   5.199
 5031SOL     OW16989   8.646   8.246   7.801
 5031SOL    HW116990   8.563   8.286   7.773
 5031SOL    HW216991   8.619   8.164   7.842
 5032SOL     OW16992  12.840   2.555  10.456
 5032SOL    HW116993  12.798   2.472  10.432
 5032SOL    HW216994  12.875   2.540  10.543
 5033SOL     OW16995  13.238   3.702   6.980
 5033SOL    HW116996  13.171   3.658   6.928
 5033SOL    HW216997  13.232   3.662   7.067
 5034SOL     OW16998   2.607   0.701  10.879
 5034SOL    HW116999   2.665   0.766  10.917
 5034SOL    HW217000   2.558   0.664  10.953
 5035SOL     OW17001  14.037  14.791   5.516
 5035SOL    HW117002  14.117  14.761   5.472
 5035SOL    HW217003  14.017  14.875   5.475
 5036SOL     OW17004  13.114  11.189  11.124
 5036SOL    HW117005  13.154  11.275  11.134
 5036SOL    HW217006  13.162  11.148  11.052
 5037SOL     OW17007  12.449  10.638  12.436
 5037SOL    HW117008  12.469  10.560  12.488
 5037SOL    HW217009  12.533  10.683  12.428
 5038SOL     OW17010   5.552  14.864  12.614
 5038SOL    HW117011   5.613   0.018  12.554
 5038SOL    HW217012   5.517  14.789  12.566
 5039SOL     OW17013   1.877   9.076  14.167
 5039SOL    HW117014   1.861   9.057  14.075
 5039SOL    HW217015   1.901   9.169  14.169
 5040SOL     OW17016   3.288  12.889   1.717
 5040SOL    HW117017   3.213  12.846   1.676
 5040SOL    HW217018   3.251  12.941   1.788
 5041SOL     OW17019   6.576   0.563   0.536
 5041SOL    HW117020   6.501   0.525   0.580
 5041SOL    HW217021   6.545   0.583   0.448
 5042SOL     OW17022  13.008  14.066   0.701
 5042SOL    HW117023  12.999  14.007   0.626
 5042SOL    HW217024  13.013  14.007   0.777
 5043SOL     OW17025   7.186  13.643   0.650
 5043SOL    HW117026   7.163  13.730   0.683
 5043SOL    HW217027   7.128  13.583   0.698
 5044SOL     OW17028   6.572   7.907  10.188
 5044SOL    HW117029   6.549   7.938  10.101
 5044SOL    HW217030   6.549   7.814  10.188
 5045SOL     OW17031  11.103   1.228   1.032
 5045SOL    HW117032  11.075   1.319   1.019
 5045SOL    HW217033  11.169   1.233   1.100
 5046SOL     OW17034   0.761   3.386   8.216
 5046SOL    HW117035   0.693   3.326   8.248
 5046SOL    HW217036   0.801   3.340   8.143
 5047SOL     OW17037   2.726   7.824  10.727
 5047SOL    HW117038   2.812   7.862  10.741
 5047SOL    HW217039   2.714   7.825  10.632
 5048SOL     OW17040   3.614   7.547   0.767
 5048SOL    HW117041   3.641   7.637   0.754
 5048SOL    HW217042   3.519   7.550   0.766
 5049SOL     OW17043   3.835  13.440  14.195
 5049SOL    HW117044   3.856  13.417  14.105
 5049SOL    HW217045   3.744  13.468  14.193
 5050SOL     OW17046   1.425  12.563   0.637
 5050SOL    HW117047   1.416  12.602   0.550
 5050SOL    HW217048   1.479  12.485   0.623
 5051SOL     OW17049   8.608  13.641   1.070
 5051SOL    HW117050   8.578  13.666   1.158
 5051SOL    HW217051   8.572  13.554   1.057
 5052SOL     OW17052  13.491  14.582   1.869
 5052SOL    HW117053  13.400  14.599   1.845
 5052SOL    HW217054  13.537  14.663   1.849
 5053SOL     OW17055   0.131   9.120   6.910
 5053SOL    HW117056   0.074   9.132   6.986
 5053SOL    HW217057   0.071   9.113   6.836
 5054SOL     OW17058   9.428   2.159  10.799
 5054SOL    HW117059   9.401   2.147  10.708
 5054SOL    HW217060   9.394   2.082  10.844
 5055SOL     OW17061   2.742   8.176  10.504
 5055SOL    HW117062   2.695   8.239  10.559
 5055SOL    HW217063   2.805   8.134  10.563
 5056SOL     OW17064  14.637   6.392   3.791
 5056SOL    HW117065  14.600   6.458   3.731
 5056SOL    HW217066  14.677   6.444   3.861
 5057SOL     OW17067   3.138   7.938   6.632
 5057SOL    HW117068   3.148   8.003   6.702
 5057SOL    HW217069   3.070   7.973   6.575
 5058SOL     OW17070   3.753   2.712   2.115
 5058SOL    HW117071   3.758   2.789   2.059
 5058SOL    HW217072   3.834   2.713   2.165
 5059SOL     OW17073   9.077  13.459   1.665
 5059SOL    HW117074   9.143  13.528   1.661
 5059SOL    HW217075   8.999  13.503   1.698
 5060SOL     OW17076   9.846   2.492   2.614
 5060SOL    HW117077   9.763   2.455   2.583
 5060SOL    HW217078   9.867   2.561   2.551
 5061SOL     OW17079   7.103   8.543   2.969
 5061SOL    HW117080   7.055   8.602   3.028
 5061SOL    HW217081   7.194   8.575   2.973
 5062SOL     OW17082   8.226   1.653   0.854
 5062SOL    HW117083   8.252   1.615   0.770
 5062SOL    HW217084   8.207   1.745   0.833
 5063SOL     OW17085  14.294  11.269   7.848
 5063SOL    HW117086  14.230  11.208   7.887
 5063SOL    HW217087  14.241  11.324   7.790
 5064SOL     OW17088   0.400   9.104   0.049
 5064SOL    HW117089   0.431   9.064   0.130
 5064SOL    HW217090   0.304   9.099   0.054
 5065SOL     OW17091   9.247   2.417   1.221
 5065SOL    HW117092   9.241   2.331   1.178
 5065SOL    HW217093   9.326   2.456   1.184
 5066SOL     OW17094  11.349   0.820  10.530
 5066SOL    HW117095  11.395   0.817  10.614
 5066SOL    HW217096  11.261   0.787  10.551
 5067SOL     OW17097  11.718   2.940   1.641
 5067SOL    HW117098  11.770   2.895   1.575
 5067SOL    HW217099  11.772   3.014   1.669
 5068SOL     OW17100   4.641   2.585   3.738
 5068SOL    HW117101   4.613   2.499   3.704
 5068SOL    HW217102   4.713   2.611   3.682
 5069SOL     OW17103   2.536  14.729   7.938
 5069SOL    HW117104   2.480  14.806   7.950
 5069SOL    HW217105   2.534  14.685   8.023
 5070SOL     OW17106   5.633   7.370  12.235
 5070SOL    HW117107   5.649   7.429  12.162
 5070SOL    HW217108   5.575   7.303  12.200
 5071SOL     OW17109   3.294   8.491  12.660
 5071SOL    HW117110   3.229   8.486  12.590
 5071SOL    HW217111   3.294   8.403  12.698
 5072SOL     OW17112  14.181   0.252  13.664
 5072SOL    HW117113  14.172   0.327  13.722
 5072SOL    HW217114  14.194   0.178  13.723
 5073SOL     OW17115   1.886   3.186   0.703
 5073SOL    HW117116   1.899   3.261   0.645
 5073SOL    HW217117   1.825   3.130   0.656
 5074SOL     OW17118   8.214   8.956   1.398
 5074SOL    HW117119   8.123   8.940   1.424
 5074SOL    HW217120   8.208   9.020   1.327
 5075SOL     OW17121  10.859   7.964   0.350
 5075SOL    HW117122  10.833   7.873   0.367
 5075SOL    HW217123  10.783   8.016   0.376
 5076SOL     OW17124   2.393  11.644   2.344
 5076SOL    HW117125   2.366  11.587   2.273
 5076SOL    HW217126   2.408  11.585   2.418
 5077SOL     OW17127   9.785  14.186   0.127
 5077SOL    HW117128   9.852  14.129   0.088
 5077SOL    HW217129   9.733  14.128   0.182
 5078SOL     OW17130  10.388  14.662   5.762
 5078SOL    HW117131  10.324  14.646   5.693
 5078SOL    HW217132  10.450  14.589   5.756
 5079SOL     OW17133   6.447   0.504   4.378
 5079SOL    HW117134   6.397   0.583   4.357
 5079SOL    HW217135   6.397   0.432   4.338
 5080SOL     OW17136   2.851   1.741   5.561
 5080SOL    HW117137   2.798   1.672   5.521
 5080SOL    HW217138   2.787   1.806   5.590
 5081SOL     OW17139   7.782   2.613   5.736
 5081SOL    HW117140   7.809   2.554   5.807
 5081SOL    HW217141   7.704   2.657   5.770
 5082SOL     OW17142  11.771   7.347   2.879
 5082SOL    HW117143  11.749   7.378   2.967
 5082SOL    HW217144  11.859   7.311   2.888
 5083SOL     OW17145  14.178   3.780   8.137
 5083SOL    HW117146  14.105   3.839   8.157
 5083SOL    HW217147  14.160   3.747   8.049
 5084SOL     OW17148   0.507   0.235   7.260
 5084SOL    HW117149   0.436   0.219   7.197
 5084SOL    HW217150   0.480   0.190   7.339
 5085SOL     OW17151   6.317  10.931   5.467
 5085SOL    HW117152   6.374  10.865   5.506
 5085SOL    HW217153   6.310  10.905   5.375
 5086SOL     OW17154  11.163  12.600   7.263
 5086SOL    HW117155  11.221  12.676   7.270
 5086SOL    HW217156  11.210  12.529   7.306
 5087SOL     OW17157   5.821   5.499   3.550
 5087SOL    HW117158   5.861   5.564   3.493
 5087SOL    HW217159   5.753   5.459   3.496
 5088SOL     OW17160  11.265  11.469   2.102
 5088SOL    HW117161  11.225  11.464   2.015
 5088SOL    HW217162  11.359  11.476   2.085
 5089SOL     OW17163  14.607   9.287  12.935
 5089SOL    HW117164  14.686   9.287  12.880
 5089SOL    HW217165  14.538   9.253  12.879
 5090SOL     OW17166  12.081  14.089  13.709
 5090SOL    HW117167  12.026  14.019  13.672
 5090SOL    HW217168  12.056  14.093  13.801
 5091SOL     OW17169  11.063   0.788  11.000
 5091SOL    HW117170  11.117   0.815  10.926
 5091SOL    HW217171  11.106   0.826  11.076
 5092SOL     OW17172   7.882  10.316   2.659
 5092SOL    HW117173   7.975  10.316   2.683
 5092SOL    HW217174   7.869  10.231   2.617
 5093SOL     OW17175  13.105   8.705   7.318
 5093SOL    HW117176  13.040   8.671   7.380
 5093SOL    HW217177  13.109   8.799   7.337
 5094SOL     OW17178  13.050   4.769  10.142
 5094SOL    HW117179  13.096   4.687  10.155
 5094SOL    HW217180  13.010   4.761  10.055
 5095SOL     OW17181  11.111   6.707   6.177
 5095SOL    HW117182  11.142   6.735   6.091
 5095SOL    HW217183  11.168   6.635   6.202
 5096SOL     OW17184   8.661  13.115  10.724
 5096SOL    HW117185   8.583  13.068  10.755
 5096SOL    HW217186   8.689  13.067  10.646
 5097SOL     OW17187   2.446   5.531  10.169
 5097SOL    HW117188   2.453   5.438  10.191
 5097SOL    HW217189   2.362   5.538  10.122
 5098SOL     OW17190  12.196   3.133   1.504
 5098SOL    HW117191  12.290   3.145   1.501
 5098SOL    HW217192  12.179   3.093   1.590
 5099SOL     OW17193   3.940   4.065   3.061
 5099SOL    HW117194   3.921   4.143   3.009
 5099SOL    HW217195   3.858   4.047   3.107
 5100SOL     OW17196   4.827  13.502   6.501
 5100SOL    HW117197   4.801  13.586   6.464
 5100SOL    HW217198   4.751  13.445   6.488
 5101SOL     OW17199   0.604  12.505   3.163
 5101SOL    HW117200   0.564  12.421   3.139
 5101SOL    HW217201   0.588  12.562   3.088
 5102SOL     OW17202   7.536  10.126   2.201
 5102SOL    HW117203   7.461  10.099   2.148
 5102SOL    HW217204   7.591  10.175   2.141
 5103SOL     OW17205   9.800   9.088   9.384
 5103SOL    HW117206   9.763   9.106   9.298
 5103SOL    HW217207   9.856   9.011   9.370
 5104SOL     OW17208  13.590  11.861   7.124
 5104SOL    HW117209  13.662  11.810   7.085
 5104SOL    HW217210  13.536  11.886   7.049
 5105SOL     OW17211  14.743   5.179  11.210
 5105SOL    HW117212  14.757   5.103  11.153
 5105SOL    HW217213  14.820   5.234  11.196
 5106SOL     OW17214   5.309   2.475   2.213
 5106SOL    HW117215   5.231   2.473   2.157
 5106SOL    HW217216   5.280   2.521   2.292
 5107SOL     OW17217   9.243   1.475  13.579
 5107SOL    HW117218   9.230   1.529  13.657
 5107SOL    HW217219   9.298   1.529  13.522
 5108SOL     OW17220  11.259   4.359   4.144
 5108SOL    HW117221  11.320   4.427   4.116
 5108SOL    HW217222  11.200   4.348   4.070
 5109SOL     OW17223   8.245   3.299  13.967
 5109SOL    HW117224   8.329   3.327  13.928
 5109SOL    HW217225   8.208   3.239  13.902
 5110SOL     OW17226   2.925   2.888   9.567
 5110SOL    HW117227   2.871   2.852   9.638
 5110SOL    HW217228   2.947   2.812   9.513
 5111SOL     OW17229   8.348   4.440   2.670
 5111SOL    HW117230   8.317   4.387   2.744
 5111SOL    HW217231   8.344   4.530   2.702
 5112SOL     OW17232   3.164   7.903  14.141
 5112SOL    HW117233   3.086   7.878  14.190
 5112SOL    HW217234   3.137   7.902  14.049
 5113SOL     OW17235  11.148   2.871   0.603
 5113SOL    HW117236  11.130   2.955   0.646
 5113SOL    HW217237  11.175   2.896   0.514
 5114SOL     OW17238  10.266   8.093  12.140
 5114SOL    HW117239  10.334   8.160  12.142
 5114SOL    HW217240  10.306   8.018  12.185
 5115SOL     OW17241   7.154   3.840   0.035
 5115SOL    HW117242   7.084   3.899   0.007
 5115SOL    HW217243   7.182   3.796  14.843
 5116SOL     OW17244   4.732   1.743   1.467
 5116SOL    HW117245   4.656   1.789   1.502
 5116SOL    HW217246   4.761   1.797   1.394
 5117SOL     OW17247  11.063   5.075   8.321
 5117SOL    HW117248  11.012   5.073   8.402
 5117SOL    HW217249  11.107   5.160   8.322
 5118SOL     OW17250   6.511   2.082   5.553
 5118SOL    HW117251   6.451   2.072   5.627
 5118SOL    HW217252   6.502   2.173   5.526
 5119SOL     OW17253   2.454   9.491   5.449
 5119SOL    HW117254   2.482   9.515   5.538
 5119SOL    HW217255   2.419   9.572   5.412
 5120SOL     OW17256  12.616   2.801   0.818
 5120SOL    HW117257  12.661   2.881   0.791
 5120SOL    HW217258  12.523   2.820   0.806
 5121SOL     OW17259   0.733   7.754   8.328
 5121SOL    HW117260   0.713   7.713   8.244
 5121SOL    HW217261   0.828   7.748   8.336
 5122SOL     OW17262   5.955   9.128   2.771
 5122SOL    HW117263   5.918   9.059   2.826
 5122SOL    HW217264   5.931   9.209   2.815
 5123SOL     OW17265   2.736   0.207   7.469
 5123SOL    HW117266   2.680   0.138   7.432
 5123SOL    HW217267   2.679   0.284   7.474
 5124SOL     OW17268   8.831   5.229   7.423
 5124SOL    HW117269   8.778   5.166   7.374
 5124SOL    HW217270   8.871   5.177   7.494
 5125SOL     OW17271   3.616   1.859   1.261
 5125SOL    HW117272   3.595   1.774   1.298
 5125SOL    HW217273   3.539   1.913   1.281
 5126SOL     OW17274   4.768   2.000  10.053
 5126SOL    HW117275   4.847   2.051  10.034
 5126SOL    HW217276   4.799   1.926  10.105
 5127SOL     OW17277   4.021   4.896   9.421
 5127SOL    HW117278   4.063   4.977   9.393
 5127SOL    HW217279   3.965   4.871   9.347
 5128SOL     OW17280   3.240   8.804   7.067
 5128SOL    HW117281   3.227   8.714   7.095
 5128SOL    HW217282   3.282   8.797   6.982
 5129SOL     OW17283  12.858  14.454   2.221
 5129SOL    HW117284  12.838  14.383   2.160
 5129SOL    HW217285  12.784  14.457   2.280
 5130SOL     OW17286   0.454   1.144   4.088
 5130SOL    HW117287   0.521   1.203   4.053
 5130SOL    HW217288   0.411   1.107   4.011
 5131SOL     OW17289   0.776   0.588  11.765
 5131SOL    HW117290   0.750   0.500  11.790
 5131SOL    HW217291   0.742   0.599  11.676
 5132SOL     OW17292  10.510   4.733   2.854
 5132SOL    HW117293  10.453   4.728   2.931
 5132SOL    HW217294  10.534   4.825   2.848
 5133SOL     OW17295  14.144  12.422   8.012
 5133SOL    HW117296  14.200  12.492   8.045
 5133SOL    HW217297  14.194  12.384   7.939
 5134SOL     OW17298   6.908   1.126  12.557
 5134SOL    HW117299   6.979   1.170  12.510
 5134SOL    HW217300   6.930   1.033  12.551
 5135SOL     OW17301   3.956   9.590   9.688
 5135SOL    HW117302   3.965   9.552   9.775
 5135SOL    HW217303   3.954   9.514   9.629
 5136SOL     OW17304   5.272   3.940   4.596
 5136SOL    HW117305   5.233   4.027   4.603
 5136SOL    HW217306   5.365   3.955   4.614
 5137SOL     OW17307  10.313   0.354   4.226
 5137SOL    HW117308  10.370   0.278   4.240
 5137SOL    HW217309  10.361   0.408   4.163
 5138SOL     OW17310   5.770  11.597   1.718
 5138SOL    HW117311   5.756  11.692   1.716
 5138SOL    HW217312   5.864  11.586   1.705
 5139SOL     OW17313  11.617   4.259  10.195
 5139SOL    HW117314  11.580   4.348  10.193
 5139SOL    HW217315  11.542   4.201  10.180
 5140SOL     OW17316  14.570   6.694   6.531
 5140SOL    HW117317  14.659   6.709   6.500
 5140SOL    HW217318  14.526   6.653   6.457
 5141SOL     OW17319   3.391   7.286  13.194
 5141SOL    HW117320   3.387   7.236  13.276
 5141SOL    HW217321   3.343   7.367  13.213
 5142SOL     OW17322   0.078   0.476  10.938
 5142SOL    HW117323  14.873   0.486  10.915
 5142SOL    HW217324   0.104   0.563  10.969
 5143SOL     OW17325   5.457  13.097  11.818
 5143SOL    HW117326   5.431  13.015  11.778
 5143SOL    HW217327   5.434  13.088  11.911
 5144SOL     OW17328   4.889   3.617   0.799
 5144SOL    HW117329   4.795   3.608   0.815
 5144SOL    HW217330   4.927   3.539   0.840
 5145SOL     OW17331   1.840   4.316   4.471
 5145SOL    HW117332   1.848   4.387   4.408
 5145SOL    HW217333   1.829   4.360   4.556
 5146SOL     OW17334  14.717   5.288  13.313
 5146SOL    HW117335  14.716   5.312  13.220
 5146SOL    HW217336  14.704   5.371  13.359
 5147SOL     OW17337   3.315  10.003  14.438
 5147SOL    HW117338   3.291  10.019  14.529
 5147SOL    HW217339   3.234   9.973  14.396
 5148SOL     OW17340   7.485   8.404   1.133
 5148SOL    HW117341   7.404   8.449   1.106
 5148SOL    HW217342   7.527   8.380   1.051
 5149SOL     OW17343   7.343   7.860  10.435
 5149SOL    HW117344   7.418   7.845  10.491
 5149SOL    HW217345   7.326   7.775  10.394
 5150SOL     OW17346  10.336   7.333   8.423
 5150SOL    HW117347  10.301   7.292   8.503
 5150SOL    HW217348  10.371   7.417   8.453
 5151SOL     OW17349   5.890  10.299  13.138
 5151SOL    HW117350   5.815  10.310  13.196
 5151SOL    HW217351   5.910  10.205  13.142
 5152SOL     OW17352  14.664   1.477   0.539
 5152SOL    HW117353  14.697   1.511   0.622
 5152SOL    HW217354  14.604   1.407   0.564
 5153SOL     OW17355  12.594  11.392   6.380
 5153SOL    HW117356  12.615  11.311   6.427
 5153SOL    HW217357  12.634  11.461   6.432
 5154SOL     OW17358  13.571   4.839   4.533
 5154SOL    HW117359  13.502   4.855   4.597
 5154SOL    HW217360  13.600   4.750   4.550
 5155SOL     OW17361   3.403   0.739  12.534
 5155SOL    HW117362   3.484   0.785  12.511
 5155SOL    HW217363   3.398   0.746  12.630
 5156SOL     OW17364   2.798   1.633   4.424
 5156SOL    HW117365   2.823   1.569   4.358
 5156SOL    HW217366   2.810   1.588   4.507
 5157SOL     OW17367  12.838  14.665   9.102
 5157SOL    HW117368  12.930  14.648   9.079
 5157SOL    HW217369  12.792  14.667   9.019
 5158SOL     OW17370   0.987  14.779   0.052
 5158SOL    HW117371   0.897  14.753   0.071
 5158SOL    HW217372   1.031  14.775   0.136
 5159SOL     OW17373   5.889   3.599   9.413
 5159SOL    HW117374   5.913   3.527   9.472
 5159SOL    HW217375   5.948   3.590   9.339
 5160SOL     OW17376   1.464   7.066   2.793
 5160SOL    HW117377   1.505   7.030   2.871
 5160SOL    HW217378   1.538   7.089   2.736
 5161SOL     OW17379   1.402   9.619   8.060
 5161SOL    HW117380   1.437   9.642   7.974
 5161SOL    HW217381   1.374   9.703   8.098
 5162SOL     OW17382  14.270  12.393   2.065
 5162SOL    HW117383  14.179  12.416   2.053
 5162SOL    HW217384  14.286  12.323   2.002
 5163SOL     OW17385   5.087   3.338   1.346
 5163SOL    HW117386   5.046   3.423   1.362
 5163SOL    HW217387   5.032   3.276   1.394
 5164SOL     OW17388   2.165   0.619  12.416
 5164SOL    HW117389   2.214   0.638  12.337
 5164SOL    HW217390   2.230   0.583  12.477
 5165SOL     OW17391   4.079   0.197  11.698
 5165SOL    HW117392   4.001   0.224  11.747
 5165SOL    HW217393   4.135   0.155  11.763
 5166SOL     OW17394   5.989  14.418   6.076
 5166SOL    HW117395   6.071  14.442   6.033
 5166SOL    HW217396   5.949  14.354   6.017
 5167SOL     OW17397   7.979  14.708  11.366
 5167SOL    HW117398   8.023  14.626  11.345
 5167SOL    HW217399   8.031  14.776  11.323
 5168SOL     OW17400   2.638  13.017  12.924
 5168SOL    HW117401   2.584  13.096  12.924
 5168SOL    HW217402   2.641  12.990  12.832
 5169SOL     OW17403   5.191   1.535   3.619
 5169SOL    HW117404   5.144   1.490   3.550
 5169SOL    HW217405   5.283   1.512   3.605
 5170SOL     OW17406   7.458   2.561   3.794
 5170SOL    HW117407   7.457   2.479   3.844
 5170SOL    HW217408   7.374   2.603   3.816
 5171SOL     OW17409   0.992  13.186   5.374
 5171SOL    HW117410   0.952  13.129   5.307
 5171SOL    HW217411   0.946  13.163   5.455
 5172SOL     OW17412  12.918  11.789   1.628
 5172SOL    HW117413  12.823  11.782   1.625
 5172SOL    HW217414  12.946  11.719   1.687
 5173SOL     OW17415   5.956   7.560   9.029
 5173SOL    HW117416   6.019   7.628   9.005
 5173SOL    HW217417   5.992   7.521   9.109
 5174SOL     OW17418   4.811  12.285   7.985
 5174SOL    HW117419   4.746  12.289   7.915
 5174SOL    HW217420   4.893  12.263   7.940
 5175SOL     OW17421  14.491   5.034  14.831
 5175SOL    HW117422  14.486   5.114  14.779
 5175SOL    HW217423  14.537   4.971  14.776
 5176SOL     OW17424  13.464   7.341   6.301
 5176SOL    HW117425  13.412   7.277   6.252
 5176SOL    HW217426  13.550   7.338   6.260
 5177SOL     OW17427   5.462   8.397  14.201
 5177SOL    HW117428   5.495   8.487  14.192
 5177SOL    HW217429   5.481   8.375  14.292
 5178SOL     OW17430   7.146   2.885   6.305
 5178SOL    HW117431   7.199   2.896   6.384
 5178SOL    HW217432   7.108   2.798   6.312
 5179SOL     OW17433   8.718   2.056   4.819
 5179SOL    HW117434   8.735   2.142   4.859
 5179SOL    HW217435   8.770   1.995   4.871
 5180SOL     OW17436   9.567  10.792   5.556
 5180SOL    HW117437   9.526  10.784   5.470
 5180SOL    HW217438   9.561  10.885   5.577
 5181SOL     OW17439   3.431   4.173   3.610
 5181SOL    HW117440   3.347   4.174   3.563
 5181SOL    HW217441   3.484   4.240   3.566
 5182SOL     OW17442   9.753   6.441  13.817
 5182SOL    HW117443   9.798   6.510  13.864
 5182SOL    HW217444   9.822   6.393  13.771
 5183SOL     OW17445   5.753  10.968   4.062
 5183SOL    HW117446   5.708  10.972   4.146
 5183SOL    HW217447   5.793  10.881   4.061
 5184SOL     OW17448   8.964   2.727   0.113
 5184SOL    HW117449   9.058   2.744   0.105
 5184SOL    HW217450   8.958   2.663   0.184
 5185SOL     OW17451   9.972  12.399   3.293
 5185SOL    HW117452  10.043  12.454   3.328
 5185SOL    HW217453   9.905  12.402   3.361
 5186SOL     OW17454   3.899   6.877  14.032
 5186SOL    HW117455   3.948   6.931  14.094
 5186SOL    HW217456   3.808   6.900  14.048
 5187SOL     OW17457   9.234   5.892   0.361
 5187SOL    HW117458   9.209   5.962   0.301
 5187SOL    HW217459   9.221   5.812   0.311
 5188SOL     OW17460   7.120  13.164   1.046
 5188SOL    HW117461   7.196  13.197   1.093
 5188SOL    HW217462   7.139  13.072   1.030
 5189SOL     OW17463   4.994   0.924  11.408
 5189SOL    HW117464   5.014   0.830  11.400
 5189SOL    HW217465   5.032   0.949  11.492
 5190SOL     OW17466   0.928   3.772  10.114
 5190SOL    HW117467   0.992   3.789  10.184
 5190SOL    HW217468   0.885   3.691  10.139
 5191SOL     OW17469  13.953   2.721  14.316
 5191SOL    HW117470  13.965   2.761  14.230
 5191SOL    HW217471  13.876   2.766  14.353
 5192SOL     OW17472  10.980   4.680   2.001
 5192SOL    HW117473  10.954   4.730   2.077
 5192SOL    HW217474  10.916   4.608   1.996
 5193SOL     OW17475   4.992   9.353   4.651
 5193SOL    HW117476   5.088   9.349   4.645
 5193SOL    HW217477   4.975   9.383   4.740
 5194SOL     OW17478   4.808   3.962  11.662
 5194SOL    HW117479   4.833   3.871  11.676
 5194SOL    HW217480   4.846   4.010  11.736
 5195SOL     OW17481   6.154   4.040  12.572
 5195SOL    HW117482   6.233   4.079  12.609
 5195SOL    HW217483   6.159   3.948  12.597
 5196SOL     OW17484   6.059   4.476   5.030
 5196SOL    HW117485   6.066   4.562   5.071
 5196SOL    HW217486   6.063   4.414   5.102
 5197SOL     OW17487  12.393   1.292   4.546
 5197SOL    HW117488  12.376   1.280   4.639
 5197SOL    HW217489  12.484   1.321   4.541
 5198SOL     OW17490   8.177   6.336   1.823
 5198SOL    HW117491   8.119   6.260   1.813
 5198SOL    HW217492   8.265   6.298   1.825
 5199SOL     OW17493   7.636   6.296  11.688
 5199SOL    HW117494   7.723   6.312  11.653
 5199SOL    HW217495   7.589   6.251  11.617
 5200SOL     OW17496   7.033  13.875   2.722
 5200SOL    HW117497   6.952  13.874   2.773
 5200SOL    HW217498   7.103  13.877   2.787
 5201SOL     OW17499   6.905  13.867  14.158
 5201SOL    HW117500   6.870  13.872  14.069
 5201SOL    HW217501   6.961  13.945  14.165
 5202SOL     OW17502   7.595   8.044   8.653
 5202SOL    HW117503   7.660   8.114   8.647
 5202SOL    HW217504   7.646   7.965   8.671
 5203SOL     OW17505   7.446   9.159   0.387
 5203SOL    HW117506   7.520   9.207   0.349
 5203SOL    HW217507   7.382   9.227   0.409
 5204SOL     OW17508   4.009  11.562  10.513
 5204SOL    HW117509   4.088  11.509  10.501
 5204SOL    HW217510   3.957  11.544  10.435
 5205SOL     OW17511  12.737   3.479   4.280
 5205SOL    HW117512  12.658   3.528   4.302
 5205SOL    HW217513  12.730   3.463   4.186
 5206SOL     OW17514  11.447   8.714   6.169
 5206SOL    HW117515  11.445   8.623   6.140
 5206SOL    HW217516  11.363   8.750   6.142
 5207SOL     OW17517  10.799   7.586  13.486
 5207SOL    HW117518  10.786   7.681  13.490
 5207SOL    HW217519  10.892   7.573  13.507
 5208SOL     OW17520   1.570  12.282   4.739
 5208SOL    HW117521   1.553  12.275   4.645
 5208SOL    HW217522   1.649  12.230   4.753
 5209SOL     OW17523   1.191   3.747   7.409
 5209SOL    HW117524   1.174   3.781   7.497
 5209SOL    HW217525   1.206   3.653   7.423
 5210SOL     OW17526   9.070   6.850   7.324
 5210SOL    HW117527   9.106   6.939   7.321
 5210SOL    HW217528   9.044   6.837   7.415
 5211SOL     OW17529  13.975   6.518   4.642
 5211SOL    HW117530  13.918   6.536   4.717
 5211SOL    HW217531  13.987   6.423   4.644
 5212SOL     OW17532  14.869   5.643   1.040
 5212SOL    HW117533  14.839   5.558   1.071
 5212SOL    HW217534  14.845   5.704   1.110
 5213SOL     OW17535   4.863   6.490  11.139
 5213SOL    HW117536   4.952   6.464  11.117
 5213SOL    HW217537   4.807   6.432  11.087
 5214SOL     OW17538   2.652   5.145  12.610
 5214SOL    HW117539   2.682   5.184  12.692
 5214SOL    HW217540   2.729   5.099  12.576
 5215SOL     OW17541   8.788   2.885  10.968
 5215SOL    HW117542   8.760   2.894  11.059
 5215SOL    HW217543   8.767   2.794  10.945
 5216SOL     OW17544   1.702  14.352   9.786
 5216SOL    HW117545   1.616  14.370   9.746
 5216SOL    HW217546   1.748  14.300   9.721
 5217SOL     OW17547   2.722   0.762   5.163
 5217SOL    HW117548   2.724   0.667   5.175
 5217SOL    HW217549   2.806   0.792   5.198
 5218SOL     OW17550   2.763   0.188   0.701
 5218SOL    HW117551   2.704   0.140   0.760
 5218SOL    HW217552   2.705   0.245   0.651
 5219SOL     OW17553   5.812   9.810   5.036
 5219SOL    HW117554   5.761   9.825   5.116
 5219SOL    HW217555   5.885   9.755   5.064
 5220SOL     OW17556   8.919   4.491   6.522
 5220SOL    HW117557   8.904   4.497   6.617
 5220SOL    HW217558   9.008   4.458   6.515
 5221SOL     OW17559   6.738   0.829   1.470
 5221SOL    HW117560   6.758   0.738   1.451
 5221SOL    HW217561   6.644   0.829   1.491
 5222SOL     OW17562  10.017   2.734  12.480
 5222SOL    HW117563  10.050   2.646  12.498
 5222SOL    HW217564   9.972   2.726  12.396
 5223SOL     OW17565  13.199   0.686  11.252
 5223SOL    HW117566  13.127   0.729  11.205
 5223SOL    HW217567  13.197   0.725  11.339
 5224SOL     OW17568   0.366  14.738   1.063
 5224SOL    HW117569   0.439  14.679   1.042
 5224SOL    HW217570   0.304  14.727   0.991
 5225SOL     OW17571  11.972  14.303  11.832
 5225SOL    HW117572  11.985  14.355  11.752
 5225SOL    HW217573  11.932  14.222  11.801
 5226SOL     OW17574   8.630   5.740   1.887
 5226SOL    HW117575   8.648   5.646   1.892
 5226SOL    HW217576   8.574   5.758   1.963
 5227SOL     OW17577   5.938   2.354  13.425
 5227SOL    HW117578   5.978   2.361  13.338
 5227SOL    HW217579   5.960   2.265  13.454
 5228SOL     OW17580   7.270   5.659   0.202
 5228SOL    HW117581   7.259   5.743   0.158
 5228SOL    HW217582   7.365   5.650   0.213
 5229SOL     OW17583   2.706  13.549   6.505
 5229SOL    HW117584   2.742  13.548   6.417
 5229SOL    HW217585   2.783  13.553   6.562
 5230SOL     OW17586  10.829  12.142   8.877
 5230SOL    HW117587  10.748  12.173   8.836
 5230SOL    HW217588  10.807  12.055   8.910
 5231SOL     OW17589  10.133   2.428  11.252
 5231SOL    HW117590  10.197   2.424  11.180
 5231SOL    HW217591  10.049   2.411  11.210
 5232SOL     OW17592   8.732  12.095   1.736
 5232SOL    HW117593   8.668  12.025   1.746
 5232SOL    HW217594   8.797  12.059   1.675
 5233SOL     OW17595   6.991   7.991   1.499
 5233SOL    HW117596   6.905   7.993   1.540
 5233SOL    HW217597   6.998   8.073   1.451
 5234SOL     OW17598   4.051   8.519   8.247
 5234SOL    HW117599   4.137   8.483   8.268
 5234SOL    HW217600   4.000   8.507   8.326
 5235SOL     OW17601   5.464  10.818  11.108
 5235SOL    HW117602   5.380  10.774  11.094
 5235SOL    HW217603   5.441  10.905  11.140
 5236SOL     OW17604  12.817  14.390  11.286
 5236SOL    HW117605  12.880  14.326  11.252
 5236SOL    HW217606  12.756  14.405  11.214
 5237SOL     OW17607   8.547   4.569  11.852
 5237SOL    HW117608   8.583   4.592  11.766
 5237SOL    HW217609   8.457   4.599  11.849
 5238SOL     OW17610   2.287   0.430   7.841
 5238SOL    HW117611   2.241   0.354   7.876
 5238SOL    HW217612   2.243   0.448   7.758
 5239SOL     OW17613   8.403  13.266   8.075
 5239SOL    HW117614   8.439  13.352   8.096
 5239SOL    HW217615   8.317  13.264   8.118
 5240SOL     OW17616   7.474   0.828   1.551
 5240SOL    HW117617   7.435   0.741   1.557
 5240SOL    HW217618   7.415   0.877   1.495
 5241SOL     OW17619  13.078   4.693   0.296
 5241SOL    HW117620  13.130   4.683   0.375
 5241SOL    HW217621  13.120   4.765   0.248
 5242SOL     OW17622  13.175  11.244  11.803
 5242SOL    HW117623  13.179  11.332  11.767
 5242SOL    HW217624  13.266  11.223  11.825
 5243SOL     OW17625   1.847  14.464  10.493
 5243SOL    HW117626   1.779  14.462  10.560
 5243SOL    HW217627   1.921  14.419  10.533
 5244SOL     OW17628   5.527   1.686  11.952
 5244SOL    HW117629   5.553   1.607  12.000
 5244SOL    HW217630   5.527   1.755  12.019
 5245SOL     OW17631   6.031   9.810   5.567
 5245SOL    HW117632   5.971   9.759   5.513
 5245SOL    HW217633   6.088   9.745   5.609
 5246SOL     OW17634   6.088   4.774  13.958
 5246SOL    HW117635   6.084   4.826  14.038
 5246SOL    HW217636   6.126   4.832  13.892
 5247SOL     OW17637   9.962   4.364   7.790
 5247SOL    HW117638   9.934   4.281   7.829
 5247SOL    HW217639   9.910   4.430   7.835
 5248SOL     OW17640   0.022  10.117   9.032
 5248SOL    HW117641  14.868  10.105   9.118
 5248SOL    HW217642  14.849  10.074   8.971
 5249SOL     OW17643   5.237  11.225   1.993
 5249SOL    HW117644   5.174  11.191   1.929
 5249SOL    HW217645   5.212  11.317   2.005
 5250SOL     OW17646   6.964   4.346  14.822
 5250SOL    HW117647   6.877   4.363  14.787
 5250SOL    HW217648   7.022   4.353  14.746
 5251SOL     OW17649   5.743  14.492   0.870
 5251SOL    HW117650   5.706  14.565   0.821
 5251SOL    HW217651   5.668  14.452   0.914
 5252SOL     OW17652   9.582   6.406   0.430
 5252SOL    HW117653   9.551   6.496   0.440
 5252SOL    HW217654   9.516   6.353   0.476
 5253SOL     OW17655  13.125  10.767  13.121
 5253SOL    HW117656  13.086  10.697  13.069
 5253SOL    HW217657  13.152  10.725  13.202
 5254SOL     OW17658  10.403  12.538  11.297
 5254SOL    HW117659  10.487  12.582  11.303
 5254SOL    HW217660  10.399  12.507  11.206
 5255SOL     OW17661   1.634   1.115   7.883
 5255SOL    HW117662   1.653   1.185   7.821
 5255SOL    HW217663   1.714   1.107   7.935
 5256SOL     OW17664  13.561  14.630  13.360
 5256SOL    HW117665  13.515  14.674  13.431
 5256SOL    HW217666  13.652  14.658  13.369
 5257SOL     OW17667   6.702   3.311  14.005
 5257SOL    HW117668   6.685   3.367  14.081
 5257SOL    HW217669   6.785   3.342  13.970
 5258SOL     OW17670   6.980   0.205   4.257
 5258SOL    HW117671   6.911   0.251   4.209
 5258SOL    HW217672   7.046   0.273   4.275
 5259SOL     OW17673   5.941   8.511  13.398
 5259SOL    HW117674   5.970   8.531  13.309
 5259SOL    HW217675   5.880   8.438  13.386
 5260SOL     OW17676   5.275   2.605   2.762
 5260SOL    HW117677   5.346   2.643   2.710
 5260SOL    HW217678   5.217   2.565   2.697
 5261SOL     OW17679   3.462  11.547  13.457
 5261SOL    HW117680   3.464  11.631  13.412
 5261SOL    HW217681   3.369  11.525  13.464
 5262SOL     OW17682   2.543   2.991   0.678
 5262SOL    HW117683   2.487   2.942   0.738
 5262SOL    HW217684   2.583   3.059   0.732
 5263SOL     OW17685   5.596   4.429   0.986
 5263SOL    HW117686   5.604   4.346   1.034
 5263SOL    HW217687   5.654   4.489   1.031
 5264SOL     OW17688  13.565   8.689   3.509
 5264SOL    HW117689  13.637   8.695   3.572
 5264SOL    HW217690  13.513   8.768   3.524
 5265SOL     OW17691  13.327   6.717   9.333
 5265SOL    HW117692  13.366   6.697   9.418
 5265SOL    HW217693  13.261   6.783   9.351
 5266SOL     OW17694   8.644  12.410   6.576
 5266SOL    HW117695   8.578  12.479   6.569
 5266SOL    HW217696   8.625  12.350   6.504
 5267SOL     OW17697  13.842   5.464   4.173
 5267SOL    HW117698  13.886   5.499   4.095
 5267SOL    HW217699  13.799   5.540   4.212
 5268SOL     OW17700   7.338   9.348  13.136
 5268SOL    HW117701   7.365   9.437  13.117
 5268SOL    HW217702   7.415   9.307  13.177
 5269SOL     OW17703   3.485  10.392   9.458
 5269SOL    HW117704   3.569  10.347   9.459
 5269SOL    HW217705   3.422  10.326   9.485
 5270SOL     OW17706   2.316   1.628   0.452
 5270SOL    HW117707   2.236   1.651   0.500
 5270SOL    HW217708   2.285   1.596   0.367
 5271SOL     OW17709  12.128   7.603   3.496
 5271SOL    HW117710  12.082   7.686   3.508
 5271SOL    HW217711  12.059   7.541   3.471
 5272SOL     OW17712  12.015  10.300  13.724
 5272SOL    HW117713  12.000  10.210  13.753
 5272SOL    HW217714  12.063  10.341  13.796
 5273SOL     OW17715  11.337   1.094  10.502
 5273SOL    HW117716  11.322   1.001  10.518
 5273SOL    HW217717  11.256   1.125  10.461
 5274SOL     OW17718   9.773   8.349  13.888
 5274SOL    HW117719   9.692   8.330  13.936
 5274SOL    HW217720   9.837   8.289  13.925
 5275SOL     OW17721  11.250  10.836   5.198
 5275SOL    HW117722  11.197  10.907   5.234
 5275SOL    HW217723  11.240  10.844   5.103
 5276SOL     OW17724   2.887   1.989   1.986
 5276SOL    HW117725   2.937   1.934   1.926
 5276SOL    HW217726   2.839   2.049   1.929
 5277SOL     OW17727   9.324   0.733  14.329
 5277SOL    HW117728   9.406   0.686  14.324
 5277SOL    HW217729   9.317   0.779  14.244
 5278SOL     OW17730   8.662   7.775   3.794
 5278SOL    HW117731   8.749   7.800   3.825
 5278SOL    HW217732   8.679   7.719   3.719
 5279SOL     OW17733   1.166  11.162   8.713
 5279SOL    HW117734   1.185  11.104   8.639
 5279SOL    HW217735   1.251  11.197   8.739
 5280SOL     OW17736  14.225   6.930   0.189
 5280SOL    HW117737  14.139   6.921   0.231
 5280SOL    HW217738  14.230   7.023   0.165
 5281SOL     OW17739   8.243   8.880   7.511
 5281SOL    HW117740   8.287   8.928   7.440
 5281SOL    HW217741   8.314   8.840   7.561
 5282SOL     OW17742   3.466   2.375  11.720
 5282SOL    HW117743   3.461   2.291  11.673
 5282SOL    HW217744   3.421   2.359  11.803
 5283SOL     OW17745   1.315  12.482  12.723
 5283SOL    HW117746   1.277  12.483  12.635
 5283SOL    HW217747   1.301  12.570  12.757
 5284SOL     OW17748   1.359   4.612   9.929
 5284SOL    HW117749   1.420   4.676   9.964
 5284SOL    HW217750   1.415   4.550   9.881
 5285SOL     OW17751  13.684  12.738  10.625
 5285SOL    HW117752  13.637  12.723  10.543
 5285SOL    HW217753  13.769  12.697  10.612
 5286SOL     OW17754   7.097   7.431   2.739
 5286SOL    HW117755   7.140   7.429   2.825
 5286SOL    HW217756   7.162   7.393   2.679
 5287SOL     OW17757   0.927   9.002   5.056
 5287SOL    HW117758   1.018   9.029   5.067
 5287SOL    HW217759   0.915   8.931   5.119
 5288SOL     OW17760  14.788   7.615   4.311
 5288SOL    HW117761  14.793   7.691   4.253
 5288SOL    HW217762  14.819   7.647   4.395
 5289SOL     OW17763   6.805  11.113  11.998
 5289SOL    HW117764   6.869  11.069  11.942
 5289SOL    HW217765   6.728  11.125  11.941
 5290SOL     OW17766   2.466  12.887   7.680
 5290SOL    HW117767   2.405  12.944   7.727
 5290SOL    HW217768   2.507  12.944   7.615
 5291SOL     OW17769  10.835   8.237   4.154
 5291SOL    HW117770  10.753   8.251   4.202
 5291SOL    HW217771  10.809   8.184   4.078
 5292SOL     OW17772   4.669  10.323   5.663
 5292SOL    HW117773   4.668  10.373   5.745
 5292SOL    HW217774   4.728  10.250   5.681
 5293SOL     OW17775  12.824   8.128  11.061
 5293SOL    HW117776  12.748   8.157  11.110
 5293SOL    HW217777  12.806   8.036  11.039
 5294SOL     OW17778  13.490   8.955   6.040
 5294SOL    HW117779  13.457   8.928   6.126
 5294SOL    HW217780  13.532   8.876   6.004
 5295SOL     OW17781  11.261   7.697   3.553
 5295SOL    HW117782  11.197   7.667   3.488
 5295SOL    HW217783  11.211   7.703   3.634
 5296SOL     OW17784  13.106   8.150   6.618
 5296SOL    HW117785  13.111   8.058   6.593
 5296SOL    HW217786  13.028   8.183   6.573
 5297SOL     OW17787  13.242   3.533   0.308
 5297SOL    HW117788  13.200   3.553   0.391
 5297SOL    HW217789  13.273   3.618   0.276
 5298SOL     OW17790   4.610   6.252   3.813
 5298SOL    HW117791   4.695   6.272   3.851
 5298SOL    HW217792   4.630   6.212   3.728
 5299SOL     OW17793   0.727  13.305   9.367
 5299SOL    HW117794   0.676  13.386   9.359
 5299SOL    HW217795   0.705  13.271   9.453
 5300SOL     OW17796   5.500   4.596  14.441
 5300SOL    HW117797   5.577   4.542  14.457
 5300SOL    HW217798   5.448   4.587  14.520
 5301SOL     OW17799   0.465   9.363   4.206
 5301SOL    HW117800   0.416   9.322   4.277
 5301SOL    HW217801   0.516   9.292   4.167
 5302SOL     OW17802  12.661  13.425  12.341
 5302SOL    HW117803  12.646  13.349  12.285
 5302SOL    HW217804  12.707  13.488  12.285
 5303SOL     OW17805   9.997   6.812  10.195
 5303SOL    HW117806  10.063   6.769  10.141
 5303SOL    HW217807   9.922   6.752  10.194
 5304SOL     OW17808   5.426   9.084  12.784
 5304SOL    HW117809   5.375   9.165  12.781
 5304SOL    HW217810   5.387   9.028  12.717
 5305SOL     OW17811  10.708   7.772  11.631
 5305SOL    HW117812  10.622   7.795  11.663
 5305SOL    HW217813  10.769   7.817  11.689
 5306SOL     OW17814   1.231   6.519   0.004
 5306SOL    HW117815   1.297   6.566  14.840
 5306SOL    HW217816   1.177   6.588   0.043
 5307SOL     OW17817   4.015   1.577  13.884
 5307SOL    HW117818   4.055   1.664  13.894
 5307SOL    HW217819   4.089   1.519  13.867
 5308SOL     OW17820   6.126  12.976   5.754
 5308SOL    HW117821   6.102  12.971   5.662
 5308SOL    HW217822   6.143  13.069   5.770
 5309SOL     OW17823   3.273  10.824  14.213
 5309SOL    HW117824   3.292  10.842  14.121
 5309SOL    HW217825   3.355  10.786  14.247
 5310SOL     OW17826   7.548   7.989  12.058
 5310SOL    HW117827   7.591   8.073  12.075
 5310SOL    HW217828   7.547   7.945  12.143
 5311SOL     OW17829   2.868  12.680   6.030
 5311SOL    HW117830   2.812  12.604   6.042
 5311SOL    HW217831   2.821  12.734   5.965
 5312SOL     OW17832   7.232   3.793  11.030
 5312SOL    HW117833   7.194   3.869  10.986
 5312SOL    HW217834   7.273   3.742  10.960
 5313SOL     OW17835   9.104  13.419   4.814
 5313SOL    HW117836   9.041  13.367   4.863
 5313SOL    HW217837   9.072  13.509   4.823
 5314SOL     OW17838   5.590  13.780   0.820
 5314SOL    HW117839   5.642  13.823   0.752
 5314SOL    HW217840   5.578  13.847   0.887
 5315SOL     OW17841   7.944   8.819  11.749
 5315SOL    HW117842   8.006   8.770  11.803
 5315SOL    HW217843   7.909   8.886  11.807
 5316SOL     OW17844   1.079  13.722   9.662
 5316SOL    HW117845   1.093  13.760   9.749
 5316SOL    HW217846   0.999  13.763   9.630
 5317SOL     OW17847  12.475   9.209  13.698
 5317SOL    HW117848  12.439   9.292  13.728
 5317SOL    HW217849  12.414   9.179  13.631
 5318SOL     OW17850   0.902   9.981  11.245
 5318SOL    HW117851   0.956  10.030  11.183
 5318SOL    HW217852   0.914  10.027  11.328
 5319SOL     OW17853   8.123   5.255  10.290
 5319SOL    HW117854   8.216   5.276  10.303
 5319SOL    HW217855   8.091   5.230  10.376
 5320SOL     OW17856   6.955   2.981   5.874
 5320SOL    HW117857   6.972   3.064   5.919
 5320SOL    HW217858   6.986   2.996   5.784
 5321SOL     OW17859   8.282   0.840   7.940
 5321SOL    HW117860   8.200   0.889   7.943
 5321SOL    HW217861   8.279   0.782   8.016
 5322SOL     OW17862  11.333  13.915   7.936
 5322SOL    HW117863  11.409  13.871   7.897
 5322SOL    HW217864  11.260  13.893   7.879
 5323SOL     OW17865  12.515   0.114   0.331
 5323SOL    HW117866  12.565   0.196   0.323
 5323SOL    HW217867  12.456   0.115   0.256
 5324SOL     OW17868   6.861   3.368   3.340
 5324SOL    HW117869   6.922   3.388   3.270
 5324SOL    HW217870   6.804   3.445   3.346
 5325SOL     OW17871  12.093   6.857   5.655
 5325SOL    HW117872  12.074   6.951   5.646
 5325SOL    HW217873  12.049   6.816   5.580
 5326SOL     OW17874  12.909   4.085  11.125
 5326SOL    HW117875  12.873   4.044  11.204
 5326SOL    HW217876  12.834   4.092  11.066
 5327SOL     OW17877   2.614  10.329  10.229
 5327SOL    HW117878   2.650  10.344  10.317
 5327SOL    HW217879   2.553  10.402  10.216
 5328SOL     OW17880   7.723  10.941  13.395
 5328SOL    HW117881   7.655  10.907  13.455
 5328SOL    HW217882   7.675  10.996  13.334
 5329SOL     OW17883  12.325   5.916   7.438
 5329SOL    HW117884  12.333   5.968   7.358
 5329SOL    HW217885  12.260   5.962   7.490
 5330SOL     OW17886  14.448  14.672   7.607
 5330SOL    HW117887  14.473  14.735   7.674
 5330SOL    HW217888  14.530  14.651   7.562
 5331SOL     OW17889   9.405   9.547   8.959
 5331SOL    HW117890   9.471   9.606   8.924
 5331SOL    HW217891   9.454   9.469   8.986
 5332SOL     OW17892   1.283   6.066   7.306
 5332SOL    HW117893   1.241   6.042   7.223
 5332SOL    HW217894   1.353   6.003   7.317
 5333SOL     OW17895  11.693  10.862   6.070
 5333SOL    HW117896  11.639  10.928   6.026
 5333SOL    HW217897  11.761  10.913   6.114
 5334SOL     OW17898   5.212  10.429   4.780
 5334SOL    HW117899   5.136  10.383   4.815
 5334SOL    HW217900   5.247  10.371   4.713
 5335SOL     OW17901   4.191   7.533   6.290
 5335SOL    HW117902   4.225   7.617   6.260
 5335SOL    HW217903   4.265   7.473   6.286
 5336SOL     OW17904   9.303   9.486   8.454
 5336SOL    HW117905   9.297   9.397   8.489
 5336SOL    HW217906   9.384   9.521   8.491
 5337SOL     OW17907   7.055   9.130   0.900
 5337SOL    HW117908   7.128   9.096   0.952
 5337SOL    HW217909   6.977   9.097   0.943
 5338SOL     OW17910  12.430   9.873  13.839
 5338SOL    HW117911  12.468   9.900  13.923
 5338SOL    HW217912  12.336   9.890  13.850
 5339SOL     OW17913  13.994  10.556  13.806
 5339SOL    HW117914  14.015  10.593  13.720
 5339SOL    HW217915  14.076  10.560  13.855
 5340SOL     OW17916   7.876   7.452   6.448
 5340SOL    HW117917   7.790   7.481   6.418
 5340SOL    HW217918   7.858   7.375   6.501
 5341SOL     OW17919   6.966   4.916  14.062
 5341SOL    HW117920   7.024   4.943  13.990
 5341SOL    HW217921   6.942   4.998  14.105
 5342SOL     OW17922   0.538   7.837   6.194
 5342SOL    HW117923   0.565   7.801   6.278
 5342SOL    HW217924   0.452   7.876   6.211
 5343SOL     OW17925   9.580   1.098   5.332
 5343SOL    HW117926   9.526   1.051   5.395
 5343SOL    HW217927   9.562   1.191   5.349
 5344SOL     OW17928   1.401  10.983   2.601
 5344SOL    HW117929   1.457  11.022   2.534
 5344SOL    HW217930   1.312  10.997   2.568
 5345SOL     OW17931  11.204   9.160  14.221
 5345SOL    HW117932  11.130   9.220  14.209
 5345SOL    HW217933  11.228   9.135  14.132
 5346SOL     OW17934   3.156   3.601  11.729
 5346SOL    HW117935   3.227   3.566  11.784
 5346SOL    HW217936   3.172   3.695  11.727
 5347SOL     OW17937   7.333   4.471   0.370
 5347SOL    HW117938   7.302   4.393   0.324
 5347SOL    HW217939   7.396   4.438   0.434
 5348SOL     OW17940   7.218  11.468  14.054
 5348SOL    HW117941   7.265  11.545  14.025
 5348SOL    HW217942   7.282  11.419  14.106
 5349SOL     OW17943  10.915   3.583  13.947
 5349SOL    HW117944  10.821   3.570  13.938
 5349SOL    HW217945  10.935   3.553  14.035
 5350SOL     OW17946   9.061  12.832   9.044
 5350SOL    HW117947   9.096  12.786   8.967
 5350SOL    HW217948   8.967  12.812   9.043
 5351SOL     OW17949   2.233   0.108  11.331
 5351SOL    HW117950   2.245   0.032  11.273
 5351SOL    HW217951   2.282   0.086  11.410
 5352SOL     OW17952   1.816  12.648  13.001
 5352SOL    HW117953   1.855  12.686  13.080
 5352SOL    HW217954   1.732  12.693  12.992
 5353SOL     OW17955  10.388   4.587   7.835
 5353SOL    HW117956  10.324   4.657   7.825
 5353SOL    HW217957  10.420   4.571   7.746
 5354SOL     OW17958  14.740  10.279   4.131
 5354SOL    HW117959  14.704  10.362   4.099
 5354SOL    HW217960  14.793  10.303   4.206
 5355SOL     OW17961   9.178   7.993   4.658
 5355SOL    HW117962   9.233   7.920   4.630
 5355SOL    HW217963   9.151   8.035   4.577
 5356SOL     OW17964  12.576   2.351   7.702
 5356SOL    HW117965  12.514   2.424   7.696
 5356SOL    HW217966  12.522   2.275   7.725
 5357SOL     OW17967   3.021   6.021   0.108
 5357SOL    HW117968   3.054   5.997   0.022
 5357SOL    HW217969   3.054   5.953   0.167
 5358SOL     OW17970  14.310  10.827   5.988
 5358SOL    HW117971  14.234  10.858   5.940
 5358SOL    HW217972  14.300  10.732   5.991
 5359SOL     OW17973   3.315  10.546  12.494
 5359SOL    HW117974   3.373  10.512  12.426
 5359SOL    HW217975   3.301  10.638  12.471
 5360SOL     OW17976  11.717  13.693  12.701
 5360SOL    HW117977  11.711  13.641  12.621
 5360SOL    HW217978  11.786  13.650  12.752
 5361SOL     OW17979  12.249  10.087  11.340
 5361SOL    HW117980  12.334  10.132  11.345
 5361SOL    HW217981  12.222  10.099  11.249
 5362SOL     OW17982   5.518  10.945   1.662
 5362SOL    HW117983   5.594  10.980   1.616
 5362SOL    HW217984   5.515  10.993   1.744
 5363SOL     OW17985   3.272   4.559  12.241
 5363SOL    HW117986   3.277   4.621  12.314
 5363SOL    HW217987   3.353   4.508  12.248
 5364SOL     OW17988   6.956  14.749   7.147
 5364SOL    HW117989   7.026  14.730   7.085
 5364SOL    HW217990   6.875  14.731   7.097
 5365SOL     OW17991   0.120   9.129  10.338
 5365SOL    HW117992   0.102   9.047  10.384
 5365SOL    HW217993   0.086   9.197  10.396
 5366SOL     OW17994   9.242  13.535   0.539
 5366SOL    HW117995   9.312  13.500   0.484
 5366SOL    HW217996   9.194  13.458   0.569
 5367SOL     OW17997  11.909  13.228   3.634
 5367SOL    HW117998  11.867  13.155   3.681
 5367SOL    HW217999  11.909  13.200   3.542
 5368SOL     OW18000   5.984   0.310   1.725
 5368SOL    HW118001   5.954   0.383   1.670
 5368SOL    HW218002   6.050   0.349   1.783
 5369SOL     OW18003  10.397  13.890   5.129
 5369SOL    HW118004  10.416  13.843   5.047
 5369SOL    HW218005  10.483  13.907   5.167
 5370SOL     OW18006  12.456   3.575   2.846
 5370SOL    HW118007  12.534   3.622   2.816
 5370SOL    HW218008  12.454   3.589   2.941
 5371SOL     OW18009   4.067   3.056   3.021
 5371SOL    HW118010   4.129   3.107   3.073
 5371SOL    HW218011   3.983   3.070   3.064
 5372SOL     OW18012   4.414   5.332   1.236
 5372SOL    HW118013   4.338   5.365   1.188
 5372SOL    HW218014   4.430   5.399   1.303
 5373SOL     OW18015   1.838  14.456  12.646
 5373SOL    HW118016   1.859  14.549  12.641
 5373SOL    HW218017   1.856  14.432  12.737
 5374SOL     OW18018  14.217   4.191   3.963
 5374SOL    HW118019  14.310   4.172   3.948
 5374SOL    HW218020  14.191   4.242   3.886
 5375SOL     OW18021   0.603   0.863   7.303
 5375SOL    HW118022   0.545   0.851   7.227
 5375SOL    HW218023   0.554   0.827   7.376
 5376SOL     OW18024  11.842  13.211   7.261
 5376SOL    HW118025  11.756  13.176   7.282
 5376SOL    HW218026  11.852  13.194   7.167
 5377SOL     OW18027   8.116   3.614   5.258
 5377SOL    HW118028   8.044   3.562   5.293
 5377SOL    HW218029   8.195   3.565   5.282
 5378SOL     OW18030   2.213   2.890   7.921
 5378SOL    HW118031   2.141   2.884   7.858
 5378SOL    HW218032   2.212   2.982   7.949
 5379SOL     OW18033   5.018   2.558  14.647
 5379SOL    HW118034   5.046   2.467  14.659
 5379SOL    HW218035   4.995   2.565  14.555
 5380SOL     OW18036   4.315   3.379  11.247
 5380SOL    HW118037   4.398   3.350  11.209
 5380SOL    HW218038   4.260   3.401  11.172
 5381SOL     OW18039  11.910  14.402   9.385
 5381SOL    HW118040  11.947  14.329   9.434
 5381SOL    HW218041  11.963  14.478   9.410
 5382SOL     OW18042  12.460   1.485   7.955
 5382SOL    HW118043  12.389   1.425   7.932
 5382SOL    HW218044  12.537   1.429   7.965
 5383SOL     OW18045  13.074   5.655  11.967
 5383SOL    HW118046  13.004   5.648  12.032
 5383SOL    HW218047  13.134   5.584  11.989
 5384SOL     OW18048   7.297   3.744  12.389
 5384SOL    HW118049   7.384   3.780  12.372
 5384SOL    HW218050   7.291   3.736  12.484
 5385SOL     OW18051  12.345   8.541   4.029
 5385SOL    HW118052  12.296   8.574   3.955
 5385SOL    HW218053  12.288   8.556   4.105
 5386SOL     OW18054  10.957   6.209  12.753
 5386SOL    HW118055  10.884   6.238  12.808
 5386SOL    HW218056  10.941   6.116  12.739
 5387SOL     OW18057   3.716   3.233   2.606
 5387SOL    HW118058   3.677   3.318   2.587
 5387SOL    HW218059   3.793   3.253   2.659
 5388SOL     OW18060   3.092  10.150  10.656
 5388SOL    HW118061   3.133  10.142  10.570
 5388SOL    HW218062   3.086  10.245  10.670
 5389SOL     OW18063   6.934   6.897   2.026
 5389SOL    HW118064   6.876   6.869   1.955
 5389SOL    HW218065   7.003   6.948   1.983
 5390SOL     OW18066  11.378   8.888   0.330
 5390SOL    HW118067  11.360   8.910   0.238
 5390SOL    HW218068  11.446   8.821   0.326
 5391SOL     OW18069  14.465   6.799  12.845
 5391SOL    HW118070  14.394   6.838  12.896
 5391SOL    HW218071  14.457   6.839  12.758
 5392SOL     OW18072   3.713  12.365  10.469
 5392SOL    HW118073   3.709  12.460  10.461
 5392SOL    HW218074   3.780  12.348  10.535
 5393SOL     OW18075   2.408   4.454   0.519
 5393SOL    HW118076   2.390   4.365   0.550
 5393SOL    HW218077   2.406   4.507   0.599
 5394SOL     OW18078   6.587   2.074  12.751
 5394SOL    HW118079   6.578   1.979  12.746
 5394SOL    HW218080   6.635   2.090  12.833
 5395SOL     OW18081  13.079   5.612   0.260
 5395SOL    HW118082  13.040   5.641   0.177
 5395SOL    HW218083  13.118   5.691   0.297
 5396SOL     OW18084   1.523   1.380  12.904
 5396SOL    HW118085   1.583   1.421  12.842
 5396SOL    HW218086   1.529   1.434  12.982
 5397SOL     OW18087   7.092   2.371   3.131
 5397SOL    HW118088   7.140   2.293   3.160
 5397SOL    HW218089   7.058   2.349   3.045
 5398SOL     OW18090   8.084   8.906   0.088
 5398SOL    HW118091   8.145   8.857   0.032
 5398SOL    HW218092   8.129   8.989   0.105
 5399SOL     OW18093   5.577   5.601   0.322
 5399SOL    HW118094   5.646   5.665   0.303
 5399SOL    HW218095   5.619   5.516   0.309
 5400SOL     OW18096   6.984  11.382  11.505
 5400SOL    HW118097   6.937  11.406  11.425
 5400SOL    HW218098   6.915  11.369  11.570
 5401SOL     OW18099  13.391  12.813   8.845
 5401SOL    HW118100  13.474  12.769   8.861
 5401SOL    HW218101  13.380  12.871   8.920
 5402SOL     OW18102   3.194   2.754  12.967
 5402SOL    HW118103   3.185   2.749  12.871
 5402SOL    HW218104   3.119   2.807  12.995
 5403SOL     OW18105   6.606   8.580   5.731
 5403SOL    HW118106   6.675   8.559   5.668
 5403SOL    HW218107   6.571   8.664   5.702
 5404SOL     OW18108   8.072  10.210   0.182
 5404SOL    HW118109   8.160  10.240   0.208
 5404SOL    HW218110   8.012  10.271   0.226
 5405SOL     OW18111   2.055   7.619   9.006
 5405SOL    HW118112   2.054   7.644   8.914
 5405SOL    HW218113   2.124   7.553   9.012
 5406SOL     OW18114   9.363   3.313   5.195
 5406SOL    HW118115   9.298   3.347   5.258
 5406SOL    HW218116   9.407   3.243   5.243
 5407SOL     OW18117   1.406   0.631   2.946
 5407SOL    HW118118   1.387   0.724   2.960
 5407SOL    HW218119   1.434   0.625   2.855
 5408SOL     OW18120  14.517   8.595   6.135
 5408SOL    HW118121  14.544   8.513   6.178
 5408SOL    HW218122  14.597   8.647   6.132
 5409SOL     OW18123   9.579   0.207   8.646
 5409SOL    HW118124   9.556   0.293   8.610
 5409SOL    HW218125   9.562   0.215   8.740
 5410SOL     OW18126   3.468   6.302   8.158
 5410SOL    HW118127   3.501   6.309   8.248
 5410SOL    HW218128   3.470   6.208   8.139
 5411SOL     OW18129   5.797  12.832   2.267
 5411SOL    HW118130   5.782  12.794   2.180
 5411SOL    HW218131   5.840  12.915   2.250
 5412SOL     OW18132  11.222  13.357   1.312
 5412SOL    HW118133  11.181  13.334   1.395
 5412SOL    HW218134  11.293  13.293   1.302
 5413SOL     OW18135   9.857   5.284   9.272
 5413SOL    HW118136   9.781   5.227   9.258
 5413SOL    HW218137   9.830   5.342   9.343
 5414SOL     OW18138  12.644  11.755   7.200
 5414SOL    HW118139  12.570  11.695   7.207
 5414SOL    HW218140  12.606  11.842   7.204
 5415SOL     OW18141  13.572   2.242  12.699
 5415SOL    HW118142  13.575   2.211  12.608
 5415SOL    HW218143  13.619   2.175  12.749
 5416SOL     OW18144   4.411   6.747   8.941
 5416SOL    HW118145   4.407   6.653   8.960
 5416SOL    HW218146   4.367   6.788   9.016
 5417SOL     OW18147  11.526  11.865   9.237
 5417SOL    HW118148  11.524  11.777   9.200
 5417SOL    HW218149  11.436  11.882   9.265
 5418SOL     OW18150   0.599   4.296  13.168
 5418SOL    HW118151   0.582   4.246  13.247
 5418SOL    HW218152   0.563   4.383  13.186
 5419SOL     OW18153  14.682  11.742   3.578
 5419SOL    HW118154  14.735  11.814   3.545
 5419SOL    HW218155  14.745  11.672   3.595
 5420SOL     OW18156  11.073   7.229   7.520
 5420SOL    HW118157  11.169   7.225   7.517
 5420SOL    HW218158  11.052   7.319   7.495
 5421SOL     OW18159   1.234   9.277   7.423
 5421SOL    HW118160   1.150   9.246   7.389
 5421SOL    HW218161   1.240   9.368   7.394
 5422SOL     OW18162   8.824   6.428  12.222
 5422SOL    HW118163   8.756   6.422  12.155
 5422SOL    HW218164   8.803   6.508  12.270
 5423SOL     OW18165   8.904   8.284   8.768
 5423SOL    HW118166   8.944   8.328   8.843
 5423SOL    HW218167   8.871   8.355   8.713
 5424SOL     OW18168   6.325  12.138   0.126
 5424SOL    HW118169   6.338  12.119   0.033
 5424SOL    HW218170   6.230  12.136   0.138
 5425SOL     OW18171  11.255  14.461   8.112
 5425SOL    HW118172  11.252  14.406   8.033
 5425SOL    HW218173  11.327  14.522   8.096
 5426SOL     OW18174  11.448   8.090   3.374
 5426SOL    HW118175  11.494   8.171   3.396
 5426SOL    HW218176  11.461   8.033   3.450
 5427SOL     OW18177   5.649   1.183   7.404
 5427SOL    HW118178   5.555   1.194   7.392
 5427SOL    HW218179   5.659   1.165   7.498
 5428SOL     OW18180  13.429   2.616  14.041
 5428SOL    HW118181  13.365   2.547  14.024
 5428SOL    HW218182  13.513   2.571  14.048
 5429SOL     OW18183   6.360  14.326   1.326
 5429SOL    HW118184   6.407  14.244   1.339
 5429SOL    HW218185   6.286  14.303   1.270
 5430SOL     OW18186  10.686   1.067  11.932
 5430SOL    HW118187  10.676   1.128  12.005
 5430SOL    HW218188  10.744   0.998  11.966
 5431SOL     OW18189   8.040  13.840   2.106
 5431SOL    HW118190   8.117  13.890   2.134
 5431SOL    HW218191   7.980  13.906   2.072
 5432SOL     OW18192   9.000   8.981   9.519
 5432SOL    HW118193   9.080   8.984   9.466
 5432SOL    HW218194   8.966   9.071   9.516
 5433SOL     OW18195   2.472   6.397  13.243
 5433SOL    HW118196   2.487   6.434  13.156
 5433SOL    HW218197   2.379   6.410  13.259
 5434SOL     OW18198   6.049   7.851  10.064
 5434SOL    HW118199   6.102   7.929  10.043
 5434SOL    HW218200   6.089   7.816  10.143
 5435SOL     OW18201   9.250   8.597   8.380
 5435SOL    HW118202   9.173   8.636   8.339
 5435SOL    HW218203   9.286   8.539   8.313
 5436SOL     OW18204   1.713   1.887   6.531
 5436SOL    HW118205   1.781   1.953   6.519
 5436SOL    HW218206   1.741   1.838   6.609
 5437SOL     OW18207   0.411  12.093  10.531
 5437SOL    HW118208   0.450  12.008  10.513
 5437SOL    HW218209   0.462  12.155  10.479
 5438SOL     OW18210  14.237   4.047   7.458
 5438SOL    HW118211  14.144   4.047   7.433
 5438SOL    HW218212  14.281   4.095   7.387
 5439SOL     OW18213  13.736  11.550   3.641
 5439SOL    HW118214  13.768  11.479   3.586
 5439SOL    HW218215  13.724  11.624   3.581
 5440SOL     OW18216   6.610   1.548   3.822
 5440SOL    HW118217   6.569   1.580   3.902
 5440SOL    HW218218   6.682   1.609   3.806
 5441SOL     OW18219   1.795  14.433   1.656
 5441SOL    HW118220   1.753  14.454   1.739
 5441SOL    HW218221   1.740  14.365   1.617
 5442SOL     OW18222   9.019  10.389   8.745
 5442SOL    HW118223   9.000  10.446   8.820
 5442SOL    HW218224   8.946  10.328   8.743
 5443SOL     OW18225   9.534   9.565   2.075
 5443SOL    HW118226   9.464   9.565   2.140
 5443SOL    HW218227   9.608   9.607   2.120
 5444SOL     OW18228   8.281   8.672   2.840
 5444SOL    HW118229   8.258   8.736   2.908
 5444SOL    HW218230   8.201   8.663   2.788
 5445SOL     OW18231   4.679   5.942   5.227
 5445SOL    HW118232   4.663   6.020   5.174
 5445SOL    HW218233   4.605   5.884   5.208
 5446SOL     OW18234  13.319  12.380   5.538
 5446SOL    HW118235  13.383  12.431   5.587
 5446SOL    HW218236  13.302  12.304   5.593
 5447SOL     OW18237  10.599  13.607   1.324
 5447SOL    HW118238  10.554  13.547   1.383
 5447SOL    HW218239  10.564  13.586   1.237
 5448SOL     OW18240   6.603   3.357  10.521
 5448SOL    HW118241   6.562   3.338  10.606
 5448SOL    HW218242   6.533   3.342  10.457
 5449SOL     OW18243  11.915   2.489   9.370
 5449SOL    HW118244  11.835   2.526   9.333
 5449SOL    HW218245  11.905   2.395   9.358
 5450SOL     OW18246   2.004  14.801   9.558
 5450SOL    HW118247   2.056  14.834   9.631
 5450SOL    HW218248   2.046  14.838   9.480
 5451SOL     OW18249   2.729   8.190  12.422
 5451SOL    HW118250   2.757   8.282  12.427
 5451SOL    HW218251   2.775   8.156  12.345
 5452SOL     OW18252   5.647   8.004  10.413
 5452SOL    HW118253   5.693   7.921  10.400
 5452SOL    HW218254   5.555   7.979  10.420
 5453SOL     OW18255   8.764  14.827   2.787
 5453SOL    HW118256   8.676  14.833   2.822
 5453SOL    HW218257   8.773  14.735   2.761
 5454SOL     OW18258   1.929  11.086  12.161
 5454SOL    HW118259   1.909  11.005  12.208
 5454SOL    HW218260   2.024  11.096  12.171
 5455SOL     OW18261   5.227  10.622   3.019
 5455SOL    HW118262   5.297  10.623   2.954
 5455SOL    HW218263   5.155  10.575   2.977
 5456SOL     OW18264  13.227   4.867  13.469
 5456SOL    HW118265  13.221   4.906  13.556
 5456SOL    HW218266  13.277   4.786  13.482
 5457SOL     OW18267   0.941   2.571   1.083
 5457SOL    HW118268   1.011   2.616   1.130
 5457SOL    HW218269   0.933   2.486   1.126
 5458SOL     OW18270  13.027   0.390   5.317
 5458SOL    HW118271  13.074   0.385   5.400
 5458SOL    HW218272  12.958   0.323   5.325
 5459SOL     OW18273   3.874   0.529   7.830
 5459SOL    HW118274   3.962   0.566   7.838
 5459SOL    HW218275   3.817   0.605   7.818
 5460SOL     OW18276   7.065  10.022  12.263
 5460SOL    HW118277   7.136  10.060  12.316
 5460SOL    HW218278   7.037   9.945  12.312
 5461SOL     OW18279  11.060   0.965   1.909
 5461SOL    HW118280  11.133   0.912   1.876
 5461SOL    HW218281  10.991   0.956   1.842
 5462SOL     OW18282   3.338   3.022  13.555
 5462SOL    HW118283   3.338   2.968  13.476
 5462SOL    HW218284   3.424   3.065  13.555
 5463SOL     OW18285   5.428   5.999  12.743
 5463SOL    HW118286   5.387   5.993  12.657
 5463SOL    HW218287   5.354   6.012  12.803
 5464SOL     OW18288   2.791   7.458   2.828
 5464SOL    HW118289   2.825   7.434   2.742
 5464SOL    HW218290   2.709   7.504   2.810
 5465SOL     OW18291   1.786  11.914   7.124
 5465SOL    HW118292   1.710  11.923   7.181
 5465SOL    HW218293   1.858  11.954   7.174
 5466SOL     OW18294   7.893   0.898   4.499
 5466SOL    HW118295   7.835   0.974   4.508
 5466SOL    HW218296   7.834   0.822   4.507
 5467SOL     OW18297   3.790   2.045   1.031
 5467SOL    HW118298   3.859   2.000   0.984
 5467SOL    HW218299   3.799   2.137   1.006
 5468SOL     OW18300   2.129   9.829   9.559
 5468SOL    HW118301   2.152   9.740   9.533
 5468SOL    HW218302   2.050   9.820   9.612
 5469SOL     OW18303   0.112   7.339   2.008
 5469SOL    HW118304   0.182   7.405   2.000
 5469SOL    HW218305   0.106   7.322   2.102
 5470SOL     OW18306   2.408   4.202   0.056
 5470SOL    HW118307   2.340   4.252   0.103
 5470SOL    HW218308   2.483   4.205   0.115
 5471SOL     OW18309  13.179   7.918   7.993
 5471SOL    HW118310  13.200   7.950   8.081
 5471SOL    HW218311  13.084   7.907   7.993
 5472SOL     OW18312  13.417   7.765   9.504
 5472SOL    HW118313  13.409   7.704   9.577
 5472SOL    HW218314  13.343   7.826   9.516
 5473SOL     OW18315   9.455  10.733  10.861
 5473SOL    HW118316   9.415  10.770  10.782
 5473SOL    HW218317   9.513  10.802  10.893
 5474SOL     OW18318   3.676  13.515  11.714
 5474SOL    HW118319   3.658  13.579  11.783
 5474SOL    HW218320   3.705  13.568  11.640
 5475SOL     OW18321  13.640   8.863   0.329
 5475SOL    HW118322  13.665   8.808   0.403
 5475SOL    HW218323  13.545   8.851   0.321
 5476SOL     OW18324   7.883  11.487   3.593
 5476SOL    HW118325   7.882  11.392   3.586
 5476SOL    HW218326   7.972  11.513   3.567
 5477SOL     OW18327   3.430   5.553   1.626
 5477SOL    HW118328   3.523   5.562   1.606
 5477SOL    HW218329   3.400   5.484   1.567
 5478SOL     OW18330  12.997   9.016  13.168
 5478SOL    HW118331  13.004   8.923  13.192
 5478SOL    HW218332  12.929   9.017  13.100
 5479SOL     OW18333   0.382   2.142   0.173
 5479SOL    HW118334   0.394   2.206   0.103
 5479SOL    HW218335   0.299   2.168   0.215
 5480SOL     OW18336   4.130   2.895   1.838
 5480SOL    HW118337   4.115   2.940   1.921
 5480SOL    HW218338   4.053   2.915   1.786
 5481SOL     OW18339  11.346   1.584   7.614
 5481SOL    HW118340  11.432   1.595   7.654
 5481SOL    HW218341  11.286   1.569   7.687
 5482SOL     OW18342  14.404  11.242   4.376
 5482SOL    HW118343  14.345  11.211   4.445
 5482SOL    HW218344  14.492  11.232   4.413
 5483SOL     OW18345   4.933  10.220   9.574
 5483SOL    HW118346   5.029  10.220   9.578
 5483SOL    HW218347   4.913  10.230   9.481
 5484SOL     OW18348   6.970  13.651   9.730
 5484SOL    HW118349   7.018  13.666   9.811
 5484SOL    HW218350   6.987  13.560   9.707
 5485SOL     OW18351   2.797   0.365   7.700
 5485SOL    HW118352   2.701   0.367   7.709
 5485SOL    HW218353   2.815   0.277   7.665
 5486SOL     OW18354  13.735   9.353   1.369
 5486SOL    HW118355  13.716   9.283   1.306
 5486SOL    HW218356  13.808   9.319   1.421
 5487SOL     OW18357   4.833  11.047   7.258
 5487SOL    HW118358   4.757  11.095   7.224
 5487SOL    HW218359   4.840  11.076   7.349
 5488SOL     OW18360   4.593   1.280  13.788
 5488SOL    HW118361   4.591   1.259  13.695
 5488SOL    HW218362   4.579   1.375  13.791
 5489SOL     OW18363   1.716   6.253  12.428
 5489SOL    HW118364   1.755   6.262  12.341
 5489SOL    HW218365   1.716   6.158  12.444
 5490SOL     OW18366  10.916   0.449   7.009
 5490SOL    HW118367  10.857   0.417   6.941
 5490SOL    HW218368  10.860   0.460   7.086
 5491SOL     OW18369   5.865   4.644  10.429
 5491SOL    HW118370   5.772   4.664  10.443
 5491SOL    HW218371   5.866   4.550  10.412
 5492SOL     OW18372   2.284  10.291   9.363
 5492SOL    HW118373   2.253  10.207   9.329
 5492SOL    HW218374   2.209  10.327   9.411
 5493SOL     OW18375   9.418  14.431   7.108
 5493SOL    HW118376   9.454  14.510   7.149
 5493SOL    HW218377   9.439  14.442   7.015
 5494SOL     OW18378   7.160   3.936   8.777
 5494SOL    HW118379   7.142   4.024   8.745
 5494SOL    HW218380   7.074   3.897   8.792
 5495SOL     OW18381   4.286   3.594   9.269
 5495SOL    HW118382   4.368   3.597   9.318
 5495SOL    HW218383   4.245   3.511   9.296
 5496SOL     OW18384   8.962   2.529   3.872
 5496SOL    HW118385   9.004   2.494   3.951
 5496SOL    HW218386   9.035   2.563   3.820
 5497SOL     OW18387  11.061   9.891   6.071
 5497SOL    HW118388  11.092   9.807   6.105
 5497SOL    HW218389  11.087   9.890   5.979
 5498SOL     OW18390  10.287  12.124   4.418
 5498SOL    HW118391  10.240  12.040   4.423
 5498SOL    HW218392  10.266  12.158   4.332
 5499SOL     OW18393  14.851   2.528  10.644
 5499SOL    HW118394  14.767   2.516  10.600
 5499SOL    HW218395  14.835   2.596  10.709
 5500SOL     OW18396   7.525   7.852   7.208
 5500SOL    HW118397   7.480   7.936   7.218
 5500SOL    HW218398   7.602   7.859   7.265
 5501SOL     OW18399   4.429  13.929   4.055
 5501SOL    HW118400   4.490  13.875   4.105
 5501SOL    HW218401   4.475  14.011   4.040
 5502SOL     OW18402  10.028   1.256   0.445
 5502SOL    HW118403   9.934   1.247   0.455
 5502SOL    HW218404  10.049   1.206   0.366
 5503SOL     OW18405   8.862   8.015   8.047
 5503SOL    HW118406   8.792   8.019   7.982
 5503SOL    HW218407   8.894   8.105   8.053
 5504SOL     OW18408   4.200   2.757   5.219
 5504SOL    HW118409   4.201   2.848   5.249
 5504SOL    HW218410   4.290   2.727   5.233
 5505SOL     OW18411   8.970  14.434  12.461
 5505SOL    HW118412   8.927  14.449  12.545
 5505SOL    HW218413   8.929  14.355  12.427
 5506SOL     OW18414   7.787   8.342   8.326
 5506SOL    HW118415   7.813   8.352   8.417
 5506SOL    HW218416   7.701   8.383   8.321
 5507SOL     OW18417   9.936   1.918   0.566
 5507SOL    HW118418   9.866   1.931   0.629
 5507SOL    HW218419   9.901   1.953   0.484
 5508SOL     OW18420   5.614   3.831   6.838
 5508SOL    HW118421   5.655   3.913   6.866
 5508SOL    HW218422   5.538   3.822   6.895
 5509SOL     OW18423  13.540  13.312   1.414
 5509SOL    HW118424  13.487  13.390   1.428
 5509SOL    HW218425  13.477  13.242   1.399
 5510SOL     OW18426   6.215   9.061  13.740
 5510SOL    HW118427   6.299   9.047  13.697
 5510SOL    HW218428   6.214   8.998  13.812
 5511SOL     OW18429   9.532   9.691   2.942
 5511SOL    HW118430   9.468   9.706   3.012
 5511SOL    HW218431   9.605   9.647   2.987
 5512SOL     OW18432   9.172   1.773  11.946
 5512SOL    HW118433   9.092   1.738  11.986
 5512SOL    HW218434   9.200   1.842  12.006
 5513SOL     OW18435  14.354   4.967   8.173
 5513SOL    HW118436  14.355   5.049   8.221
 5513SOL    HW218437  14.319   4.990   8.087
 5514SOL     OW18438   1.387  13.325   0.508
 5514SOL    HW118439   1.457  13.319   0.442
 5514SOL    HW218440   1.307  13.331   0.456
 5515SOL     OW18441   7.798   9.847   1.889
 5515SOL    HW118442   7.795   9.934   1.848
 5515SOL    HW218443   7.819   9.863   1.980
 5516SOL     OW18444  10.152  11.916  11.028
 5516SOL    HW118445  10.083  11.853  11.006
 5516SOL    HW218446  10.210  11.868  11.088
 5517SOL     OW18447   3.288  13.264   0.885
 5517SOL    HW118448   3.313  13.338   0.940
 5517SOL    HW218449   3.193  13.259   0.894
 5518SOL     OW18450  11.022   5.597  11.852
 5518SOL    HW118451  11.062   5.596  11.765
 5518SOL    HW218452  11.094   5.576  11.911
 5519SOL     OW18453   2.168   6.802  11.239
 5519SOL    HW118454   2.231   6.824  11.171
 5519SOL    HW218455   2.098   6.756  11.193
 5520SOL     OW18456   6.922  10.977   5.023
 5520SOL    HW118457   6.992  10.938   5.074
 5520SOL    HW218458   6.857  11.004   5.088
 5521SOL     OW18459  10.569   7.991   9.508
 5521SOL    HW118460  10.582   8.074   9.553
 5521SOL    HW218461  10.506   8.011   9.438
 5522SOL     OW18462   8.928   7.460   6.394
 5522SOL    HW118463   8.853   7.498   6.349
 5522SOL    HW218464   8.929   7.502   6.480
 5523SOL     OW18465   8.156   1.138   1.671
 5523SOL    HW118466   8.074   1.109   1.711
 5523SOL    HW218467   8.129   1.181   1.590
 5524SOL     OW18468   7.855   9.884  11.737
 5524SOL    HW118469   7.855   9.812  11.674
 5524SOL    HW218470   7.817   9.845  11.817
 5525SOL     OW18471  14.233  13.970   7.316
 5525SOL    HW118472  14.176  14.016   7.254
 5525SOL    HW218473  14.182  13.966   7.397
 5526SOL     OW18474  12.049   3.627   8.328
 5526SOL    HW118475  12.092   3.707   8.358
 5526SOL    HW218476  12.112   3.585   8.270
 5527SOL     OW18477   2.632   2.134   9.732
 5527SOL    HW118478   2.681   2.063   9.690
 5527SOL    HW218479   2.613   2.101   9.820
 5528SOL     OW18480  12.968   5.552   8.606
 5528SOL    HW118481  12.960   5.578   8.514
 5528SOL    HW218482  12.969   5.457   8.605
 5529SOL     OW18483   8.673   8.344   1.720
 5529SOL    HW118484   8.753   8.307   1.757
 5529SOL    HW218485   8.693   8.360   1.628
 5530SOL     OW18486   7.087   1.997  14.184
 5530SOL    HW118487   7.180   1.981  14.203
 5530SOL    HW218488   7.044   1.993  14.269
 5531SOL     OW18489  10.123   7.606   5.114
 5531SOL    HW118490  10.196   7.667   5.104
 5531SOL    HW218491  10.108   7.571   5.027
 5532SOL     OW18492   9.493   9.851   2.711
 5532SOL    HW118493   9.505   9.783   2.778
 5532SOL    HW218494   9.509   9.933   2.756
 5533SOL     OW18495   8.438   4.010   4.783
 5533SOL    HW118496   8.421   4.063   4.706
 5533SOL    HW218497   8.445   4.073   4.855
 5534SOL     OW18498   2.653   0.236  12.847
 5534SOL    HW118499   2.714   0.305  12.821
 5534SOL    HW218500   2.597   0.277  12.913
 5535SOL     OW18501   8.383   7.281   4.838
 5535SOL    HW118502   8.400   7.280   4.932
 5535SOL    HW218503   8.470   7.286   4.798
 5536SOL     OW18504   9.698   8.196   1.765
 5536SOL    HW118505   9.760   8.136   1.805
 5536SOL    HW218506   9.637   8.140   1.716
 5537SOL     OW18507   0.231   1.524   6.516
 5537SOL    HW118508   0.250   1.466   6.590
 5537SOL    HW218509   0.271   1.480   6.441
 5538SOL     OW18510   0.491  11.767   2.627
 5538SOL    HW118511   0.523  11.677   2.625
 5538SOL    HW218512   0.568  11.821   2.611
 5539SOL     OW18513   3.488   7.073  13.650
 5539SOL    HW118514   3.505   6.979  13.645
 5539SOL    HW218515   3.560   7.108  13.704
 5540SOL     OW18516   4.541   8.111   1.551
 5540SOL    HW118517   4.484   8.111   1.628
 5540SOL    HW218518   4.618   8.062   1.578
 5541SOL     OW18519  10.815   5.355   7.185
 5541SOL    HW118520  10.772   5.288   7.131
 5541SOL    HW218521  10.865   5.305   7.249
 5542SOL     OW18522   7.196   3.505   7.318
 5542SOL    HW118523   7.200   3.541   7.229
 5542SOL    HW218524   7.278   3.532   7.359
 5543SOL     OW18525   8.417   1.811  12.976
 5543SOL    HW118526   8.383   1.820  13.065
 5543SOL    HW218527   8.344   1.776  12.926
 5544SOL     OW18528  14.583  12.260   0.354
 5544SOL    HW118529  14.620  12.175   0.331
 5544SOL    HW218530  14.546  12.247   0.442
 5545SOL     OW18531  13.692  10.302  13.785
 5545SOL    HW118532  13.698  10.315  13.880
 5545SOL    HW218533  13.670  10.388  13.751
 5546SOL     OW18534   5.940   9.757   3.849
 5546SOL    HW118535   5.984   9.789   3.927
 5546SOL    HW218536   5.854   9.727   3.880
 5547SOL     OW18537  12.428  10.508  10.936
 5547SOL    HW118538  12.346  10.542  10.900
 5547SOL    HW218539  12.454  10.438  10.876
 5548SOL     OW18540  11.423  12.716   6.710
 5548SOL    HW118541  11.511  12.740   6.683
 5548SOL    HW218542  11.427  12.714   6.806
 5549SOL     OW18543   8.385   8.419  12.771
 5549SOL    HW118544   8.360   8.511  12.780
 5549SOL    HW218545   8.466   8.411  12.822
 5550SOL     OW18546   7.189   4.048   4.834
 5550SOL    HW118547   7.254   3.991   4.875
 5550SOL    HW218548   7.142   3.992   4.773
 5551SOL     OW18549  10.747   7.607  13.211
 5551SOL    HW118550  10.692   7.684  13.203
 5551SOL    HW218551  10.797   7.621  13.291
 5552SOL     OW18552  13.332   7.677  13.178
 5552SOL    HW118553  13.405   7.719  13.222
 5552SOL    HW218554  13.324   7.591  13.221
 5553SOL     OW18555  13.870  13.220   4.174
 5553SOL    HW118556  13.834  13.224   4.263
 5553SOL    HW218557  13.937  13.151   4.179
 5554SOL     OW18558   8.274   7.185   1.286
 5554SOL    HW118559   8.278   7.194   1.191
 5554SOL    HW218560   8.333   7.113   1.306
 5555SOL     OW18561   8.463   7.980   3.690
 5555SOL    HW118562   8.368   7.972   3.695
 5555SOL    HW218563   8.496   7.903   3.736
 5556SOL     OW18564  11.623   8.181   4.449
 5556SOL    HW118565  11.538   8.201   4.488
 5556SOL    HW218566  11.628   8.085   4.453
 5557SOL     OW18567  14.649   2.312  10.972
 5557SOL    HW118568  14.602   2.231  10.992
 5557SOL    HW218569  14.612   2.377  11.033
 5558SOL     OW18570   1.545   3.443   8.915
 5558SOL    HW118571   1.582   3.504   8.979
 5558SOL    HW218572   1.534   3.496   8.835
 5559SOL     OW18573   1.278  11.679   2.862
 5559SOL    HW118574   1.184  11.694   2.868
 5559SOL    HW218575   1.318  11.766   2.861
 5560SOL     OW18576  13.060   8.894   1.492
 5560SOL    HW118577  13.067   8.950   1.569
 5560SOL    HW218578  13.136   8.917   1.438
 5561SOL     OW18579   0.256  12.120  10.769
 5561SOL    HW118580   0.314  12.162  10.832
 5561SOL    HW218581   0.314  12.086  10.701
 5562SOL     OW18582   5.404   3.317  13.900
 5562SOL    HW118583   5.458   3.243  13.928
 5562SOL    HW218584   5.315   3.281  13.895
 5563SOL     OW18585   3.694   8.331  12.005
 5563SOL    HW118586   3.643   8.412  12.005
 5563SOL    HW218587   3.637   8.266  11.964
 5564SOL     OW18588   2.392   3.631   2.983
 5564SOL    HW118589   2.298   3.613   2.996
 5564SOL    HW218590   2.435   3.583   3.055
 5565SOL     OW18591  14.007   6.726  11.349
 5565SOL    HW118592  14.080   6.783  11.374
 5565SOL    HW218593  14.046   6.639  11.340
 5566SOL     OW18594   3.587   1.530  11.474
 5566SOL    HW118595   3.541   1.594  11.420
 5566SOL    HW218596   3.669   1.513  11.427
 5567SOL     OW18597   2.917   8.046   8.084
 5567SOL    HW118598   2.941   8.134   8.056
 5567SOL    HW218599   2.996   8.010   8.123
 5568SOL     OW18600   8.167   8.252   2.557
 5568SOL    HW118601   8.217   8.242   2.638
 5568SOL    HW218602   8.076   8.262   2.586
 5569SOL     OW18603   2.185  12.520   9.370
 5569SOL    HW118604   2.153  12.608   9.390
 5569SOL    HW218605   2.216  12.485   9.453
 5570SOL     OW18606  12.662   4.493   1.574
 5570SOL    HW118607  12.635   4.402   1.587
 5570SOL    HW218608  12.582   4.544   1.582
 5571SOL     OW18609   3.959   5.982   8.048
 5571SOL    HW118610   3.870   5.985   8.011
 5571SOL    HW218611   3.951   5.923   8.122
 5572SOL     OW18612   7.858  11.853   9.660
 5572SOL    HW118613   7.793  11.797   9.618
 5572SOL    HW218614   7.850  11.937   9.614
 5573SOL     OW18615   3.931  12.527   4.184
 5573SOL    HW118616   3.863  12.522   4.118
 5573SOL    HW218617   3.978  12.444   4.178
 5574SOL     OW18618  11.170   7.906  14.182
 5574SOL    HW118619  11.126   7.984  14.215
 5574SOL    HW218620  11.257   7.909  14.220
 5575SOL     OW18621   9.131  11.940   0.562
 5575SOL    HW118622   9.224  11.950   0.544
 5575SOL    HW218623   9.126  11.863   0.619
 5576SOL     OW18624  14.445   6.577  14.205
 5576SOL    HW118625  14.400   6.635  14.266
 5576SOL    HW218626  14.534   6.571  14.239
 5577SOL     OW18627  14.233   5.342   7.622
 5577SOL    HW118628  14.303   5.283   7.592
 5577SOL    HW218629  14.227   5.326   7.716
 5578SOL     OW18630   9.442   9.949   1.421
 5578SOL    HW118631   9.459  10.043   1.415
 5578SOL    HW218632   9.347   9.942   1.428
 5579SOL     OW18633  12.087   4.015  14.413
 5579SOL    HW118634  12.061   3.942  14.469
 5579SOL    HW218635  12.006   4.041  14.368
 5580SOL     OW18636   1.609  10.808  14.361
 5580SOL    HW118637   1.697  10.816  14.398
 5580SOL    HW218638   1.596  10.714  14.349
 5581SOL     OW18639  12.061  13.816   0.762
 5581SOL    HW118640  12.089  13.744   0.818
 5581SOL    HW218641  12.065  13.893   0.819
 5582SOL     OW18642  12.130  11.392   6.638
 5582SOL    HW118643  12.186  11.361   6.567
 5582SOL    HW218644  12.076  11.317   6.662
 5583SOL     OW18645   0.909   8.274  13.926
 5583SOL    HW118646   0.958   8.195  13.903
 5583SOL    HW218647   0.876   8.307  13.842
 5584SOL     OW18648   5.820   9.240  10.004
 5584SOL    HW118649   5.796   9.242  10.096
 5584SOL    HW218650   5.852   9.328   9.985
 5585SOL     OW18651  13.197   4.494   1.385
 5585SOL    HW118652  13.113   4.447   1.384
 5585SOL    HW218653  13.251   4.444   1.447
 5586SOL     OW18654   3.360   8.841   1.565
 5586SOL    HW118655   3.325   8.849   1.653
 5586SOL    HW218656   3.445   8.886   1.568
 5587SOL     OW18657   2.260   7.950  12.174
 5587SOL    HW118658   2.208   7.948  12.254
 5587SOL    HW218659   2.200   7.920  12.105
 5588SOL     OW18660   3.327  10.060  13.123
 5588SOL    HW118661   3.243  10.066  13.077
 5588SOL    HW218662   3.353   9.969  13.114
 5589SOL     OW18663   7.799   4.859   7.895
 5589SOL    HW118664   7.805   4.912   7.975
 5589SOL    HW218665   7.709   4.827   7.894
 5590SOL     OW18666  12.214   2.042   2.045
 5590SOL    HW118667  12.162   2.065   2.122
 5590SOL    HW218668  12.302   2.073   2.065
 5591SOL     OW18669  11.486  14.764  11.903
 5591SOL    HW118670  11.506  14.674  11.878
 5591SOL    HW218671  11.560  14.791  11.958
 5592SOL     OW18672  10.960   4.198  13.427
 5592SOL    HW118673  11.008   4.282  13.427
 5592SOL    HW218674  10.974   4.162  13.514
 5593SOL     OW18675   6.396  11.584  12.130
 5593SOL    HW118676   6.315  11.581  12.182
 5593SOL    HW218677   6.447  11.509  12.160
 5594SOL     OW18678   8.697   2.991   6.891
 5594SOL    HW118679   8.718   2.926   6.824
 5594SOL    HW218680   8.753   2.968   6.965
 5595SOL     OW18681   0.966   4.675  14.696
 5595SOL    HW118682   0.960   4.679  14.600
 5595SOL    HW218683   1.021   4.599  14.714
 5596SOL     OW18684  14.134   9.781  10.492
 5596SOL    HW118685  14.158   9.740  10.575
 5596SOL    HW218686  14.218   9.795  10.447
 5597SOL     OW18687   0.456  10.677   6.272
 5597SOL    HW118688   0.542  10.718   6.286
 5597SOL    HW218689   0.421  10.722   6.194
 5598SOL     OW18690  10.611  10.664   9.301
 5598SOL    HW118691  10.652  10.747   9.280
 5598SOL    HW218692  10.601  10.620   9.216
 5599SOL     OW18693  13.955   1.369  11.631
 5599SOL    HW118694  13.956   1.377  11.536
 5599SOL    HW218695  13.897   1.295  11.649
 5600SOL     OW18696   5.483   8.288   0.652
 5600SOL    HW118697   5.524   8.327   0.729
 5600SOL    HW218698   5.402   8.339   0.640
 5601SOL     OW18699   7.714   3.555  12.906
 5601SOL    HW118700   7.689   3.491  12.973
 5601SOL    HW218701   7.716   3.505  12.824
 5602SOL     OW18702   0.490   0.402   3.659
 5602SOL    HW118703   0.460   0.351   3.734
 5602SOL    HW218704   0.419   0.463   3.642
 5603SOL     OW18705  14.698   0.225  12.816
 5603SOL    HW118706  14.622   0.267  12.775
 5603SOL    HW218707  14.720   0.282  12.890
 5604SOL     OW18708   1.879   9.189   6.127
 5604SOL    HW118709   1.834   9.212   6.209
 5604SOL    HW218710   1.841   9.104   6.103
 5605SOL     OW18711   4.191   9.302   7.396
 5605SOL    HW118712   4.109   9.323   7.353
 5605SOL    HW218713   4.186   9.208   7.413
 5606SOL     OW18714   5.749   1.448  11.633
 5606SOL    HW118715   5.786   1.371  11.588
 5606SOL    HW218716   5.687   1.411  11.695
 5607SOL     OW18717   3.260   3.792  12.782
 5607SOL    HW118718   3.225   3.796  12.693
 5607SOL    HW218719   3.353   3.773  12.771
 5608SOL     OW18720   0.073  14.831   0.874
 5608SOL    HW118721   0.115  14.885   0.941
 5608SOL    HW218722   0.030   0.006   0.816
 5609SOL     OW18723  13.626   3.760   8.794
 5609SOL    HW118724  13.550   3.758   8.851
 5609SOL    HW218725  13.694   3.713   8.842
 5610SOL     OW18726  13.183  13.436   1.907
 5610SOL    HW118727  13.135  13.366   1.949
 5610SOL    HW218728  13.161  13.427   1.814
 5611SOL     OW18729   5.866   1.414   7.649
 5611SOL    HW118730   5.790   1.448   7.602
 5611SOL    HW218731   5.831   1.391   7.736
 5612SOL     OW18732   8.091   1.095  14.541
 5612SOL    HW118733   8.068   1.130  14.455
 5612SOL    HW218734   8.128   1.170  14.588
 5613SOL     OW18735   9.314   9.370  12.251
 5613SOL    HW118736   9.343   9.363  12.161
 5613SOL    HW218737   9.218   9.361  12.246
 5614SOL     OW18738   6.972   4.125  10.626
 5614SOL    HW118739   7.055   4.113  10.580
 5614SOL    HW218740   6.928   4.194  10.577
 5615SOL     OW18741  12.822   7.480  14.538
 5615SOL    HW118742  12.825   7.558  14.594
 5615SOL    HW218743  12.913   7.463  14.515
 5616SOL     OW18744   2.560  13.841   8.166
 5616SOL    HW118745   2.572  13.901   8.093
 5616SOL    HW218746   2.517  13.765   8.128
 5617SOL     OW18747  13.705   1.077   3.563
 5617SOL    HW118748  13.644   1.016   3.522
 5617SOL    HW218749  13.786   1.027   3.573
 5618SOL     OW18750   0.111  14.165   0.554
 5618SOL    HW118751   0.183  14.126   0.604
 5618SOL    HW218752   0.125  14.259   0.563
 5619SOL     OW18753  10.160   1.683   9.304
 5619SOL    HW118754  10.189   1.755   9.249
 5619SOL    HW218755  10.200   1.701   9.390
 5620SOL     OW18756  14.689   2.512   6.395
 5620SOL    HW118757  14.737   2.469   6.324
 5620SOL    HW218758  14.599   2.479   6.387
 5621SOL     OW18759  13.292  11.842   7.869
 5621SOL    HW118760  13.287  11.756   7.911
 5621SOL    HW218761  13.343  11.895   7.930
 5622SOL     OW18762  13.461  10.352   4.017
 5622SOL    HW118763  13.491  10.285   3.955
 5622SOL    HW218764  13.482  10.315   4.103
 5623SOL     OW18765  13.112  10.241  11.769
 5623SOL    HW118766  13.117  10.247  11.864
 5623SOL    HW218767  13.099  10.148  11.751
 5624SOL     OW18768  11.129  11.650   9.002
 5624SOL    HW118769  11.033  11.649   9.006
 5624SOL    HW218770  11.151  11.738   8.973
 5625SOL     OW18771  13.343  11.150   6.067
 5625SOL    HW118772  13.392  11.110   6.139
 5625SOL    HW218773  13.296  11.078   6.026
 5626SOL     OW18774   3.470   4.889   5.353
 5626SOL    HW118775   3.418   4.823   5.307
 5626SOL    HW218776   3.424   4.902   5.436
 5627SOL     OW18777   8.726   4.210   6.833
 5627SOL    HW118778   8.815   4.194   6.864
 5627SOL    HW218779   8.669   4.174   6.901
 5628SOL     OW18780  10.211   4.108  10.371
 5628SOL    HW118781  10.234   4.099  10.464
 5628SOL    HW218782  10.256   4.036  10.328
 5629SOL     OW18783   2.240  12.244  12.931
 5629SOL    HW118784   2.153  12.258  12.969
 5629SOL    HW218785   2.266  12.329  12.896
 5630SOL     OW18786   1.048   5.359  11.377
 5630SOL    HW118787   1.113   5.413  11.332
 5630SOL    HW218788   0.979   5.420  11.402
 5631SOL     OW18789   1.855   9.036   9.862
 5631SOL    HW118790   1.891   9.109   9.813
 5631SOL    HW218791   1.870   9.058   9.954
 5632SOL     OW18792  12.026  14.074  13.150
 5632SOL    HW118793  12.038  14.013  13.078
 5632SOL    HW218794  11.971  14.027  13.212
 5633SOL     OW18795  12.164   0.642   7.423
 5633SOL    HW118796  12.082   0.595   7.439
 5633SOL    HW218797  12.179   0.693   7.502
 5634SOL     OW18798   2.804   4.001   3.507
 5634SOL    HW118799   2.815   3.932   3.441
 5634SOL    HW218800   2.894   4.026   3.530
 5635SOL     OW18801   4.052  14.592   3.357
 5635SOL    HW118802   4.134  14.543   3.351
 5635SOL    HW218803   4.074  14.671   3.407
 5636SOL     OW18804   5.230   3.140   6.517
 5636SOL    HW118805   5.257   3.096   6.597
 5636SOL    HW218806   5.214   3.069   6.454
 5637SOL     OW18807   9.208   2.976   0.947
 5637SOL    HW118808   9.258   2.982   0.865
 5637SOL    HW218809   9.239   2.895   0.988
 5638SOL     OW18810  14.081  14.477  13.092
 5638SOL    HW118811  14.030  14.400  13.117
 5638SOL    HW218812  14.019  14.533  13.045
 5639SOL     OW18813   6.113   0.469   7.762
 5639SOL    HW118814   6.200   0.432   7.746
 5639SOL    HW218815   6.102   0.536   7.694
 5640SOL     OW18816  14.793   9.050   2.830
 5640SOL    HW118817  14.881   9.034   2.796
 5640SOL    HW218818  14.737   9.046   2.752
 5641SOL     OW18819   6.184   3.628   1.758
 5641SOL    HW118820   6.119   3.679   1.805
 5641SOL    HW218821   6.136   3.552   1.724
 5642SOL     OW18822   8.446  10.519   2.160
 5642SOL    HW118823   8.457  10.542   2.068
 5642SOL    HW218824   8.482  10.430   2.167
 5643SOL     OW18825   9.106   0.709  13.793
 5643SOL    HW118826   9.198   0.712  13.766
 5643SOL    HW218827   9.104   0.760  13.874
 5644SOL     OW18828   8.472   0.330   0.006
 5644SOL    HW118829   8.512   0.263   0.061
 5644SOL    HW218830   8.383   0.299  14.879
 5645SOL     OW18831   1.657  11.553   2.757
 5645SOL    HW118832   1.609  11.508   2.688
 5645SOL    HW218833   1.740  11.578   2.717
 5646SOL     OW18834   3.300   0.264   5.558
 5646SOL    HW118835   3.346   0.219   5.488
 5646SOL    HW218836   3.264   0.343   5.516
 5647SOL     OW18837   2.593  14.542   4.273
 5647SOL    HW118838   2.558  14.528   4.185
 5647SOL    HW218839   2.516  14.557   4.328
 5648SOL     OW18840   0.101   4.217   9.056
 5648SOL    HW118841   0.039   4.233   9.127
 5648SOL    HW218842   0.083   4.127   9.028
 5649SOL     OW18843  13.728   5.377  12.162
 5649SOL    HW118844  13.775   5.416  12.235
 5649SOL    HW218845  13.639   5.363  12.194
 5650SOL     OW18846  13.617   6.967   8.540
 5650SOL    HW118847  13.631   7.057   8.572
 5650SOL    HW218848  13.545   6.975   8.477
 5651SOL     OW18849   4.049  13.303   4.241
 5651SOL    HW118850   4.116  13.310   4.309
 5651SOL    HW218851   3.972  13.268   4.286
 5652SOL     OW18852  10.286  10.782   9.036
 5652SOL    HW118853  10.205  10.763   9.083
 5652SOL    HW218854  10.330  10.698   9.028
 5653SOL     OW18855   3.113   0.966  10.456
 5653SOL    HW118856   3.192   0.912  10.448
 5653SOL    HW218857   3.044   0.905  10.483
 5654SOL     OW18858   0.082  12.538   8.325
 5654SOL    HW118859   0.077  12.633   8.335
 5654SOL    HW218860   0.102  12.507   8.413
 5655SOL     OW18861   6.011   3.185   2.991
 5655SOL    HW118862   6.081   3.148   2.938
 5655SOL    HW218863   6.012   3.279   2.971
 5656SOL     OW18864   5.958   7.002  10.552
 5656SOL    HW118865   5.911   6.977  10.473
 5656SOL    HW218866   6.044   7.030  10.522
 5657SOL     OW18867   8.467   7.530  11.594
 5657SOL    HW118868   8.413   7.607  11.612
 5657SOL    HW218869   8.516   7.553  11.515
 5658SOL     OW18870   3.298   8.898   8.672
 5658SOL    HW118871   3.364   8.958   8.636
 5658SOL    HW218872   3.286   8.927   8.762
 5659SOL     OW18873  13.712  14.619  10.839
 5659SOL    HW118874  13.620  14.595  10.828
 5659SOL    HW218875  13.760  14.538  10.827
 5660SOL     OW18876   5.297   5.158   7.571
 5660SOL    HW118877   5.274   5.065   7.567
 5660SOL    HW218878   5.239   5.195   7.638
 5661SOL     OW18879  14.699   4.109   0.245
 5661SOL    HW118880  14.787   4.073   0.255
 5661SOL    HW218881  14.697   4.185   0.303
 5662SOL     OW18882   0.062   9.118   3.077
 5662SOL    HW118883   0.131   9.149   3.019
 5662SOL    HW218884   0.006   9.064   3.020
 5663SOL     OW18885   5.355   2.735   6.172
 5663SOL    HW118886   5.323   2.653   6.135
 5663SOL    HW218887   5.431   2.757   6.119
 5664SOL     OW18888   6.127   3.751  13.760
 5664SOL    HW118889   6.095   3.696  13.688
 5664SOL    HW218890   6.207   3.707  13.789
 5665SOL     OW18891   6.919   6.008   4.261
 5665SOL    HW118892   6.940   5.990   4.353
 5665SOL    HW218893   6.938   6.101   4.249
 5666SOL     OW18894   0.684   4.945  11.376
 5666SOL    HW118895   0.732   4.889  11.437
 5666SOL    HW218896   0.593   4.919  11.386
 5667SOL     OW18897   0.912   4.836   0.273
 5667SOL    HW118898   0.967   4.906   0.307
 5667SOL    HW218899   0.946   4.819   0.186
 5668SOL     OW18900   1.809   7.429   5.633
 5668SOL    HW118901   1.779   7.354   5.684
 5668SOL    HW218902   1.860   7.481   5.696
 5669SOL     OW18903  11.103   5.395   1.467
 5669SOL    HW118904  11.144   5.312   1.491
 5669SOL    HW218905  11.174   5.458   1.468
 5670SOL     OW18906   1.520   2.984  13.951
 5670SOL    HW118907   1.519   3.056  13.888
 5670SOL    HW218908   1.586   3.009  14.015
 5671SOL     OW18909   9.334  14.359   2.191
 5671SOL    HW118910   9.345  14.290   2.126
 5671SOL    HW218911   9.241  14.355   2.215
 5672SOL     OW18912   0.539   0.623   7.801
 5672SOL    HW118913   0.584   0.542   7.776
 5672SOL    HW218914   0.447   0.606   7.780
 5673SOL     OW18915   7.547   8.795  13.732
 5673SOL    HW118916   7.618   8.774  13.671
 5673SOL    HW218917   7.573   8.878  13.772
 5674SOL     OW18918  11.120   6.161   3.715
 5674SOL    HW118919  11.106   6.256   3.711
 5674SOL    HW218920  11.033   6.124   3.728
 5675SOL     OW18921   6.880   8.961   1.249
 5675SOL    HW118922   6.934   8.883   1.265
 5675SOL    HW218923   6.790   8.928   1.253
 5676SOL     OW18924  12.702   9.660  13.286
 5676SOL    HW118925  12.616   9.636  13.253
 5676SOL    HW218926  12.743   9.576  13.308
 5677SOL     OW18927  11.144   7.345   2.786
 5677SOL    HW118928  11.071   7.284   2.770
 5677SOL    HW218929  11.213   7.291   2.823
 5678SOL     OW18930  13.219  10.585   5.019
 5678SOL    HW118931  13.178  10.650   5.076
 5678SOL    HW218932  13.173  10.595   4.936
 5679SOL     OW18933   9.572  10.681  12.536
 5679SOL    HW118934   9.552  10.752  12.475
 5679SOL    HW218935   9.666  10.691  12.554
 5680SOL     OW18936   4.805   8.133   5.197
 5680SOL    HW118937   4.745   8.140   5.123
 5680SOL    HW218938   4.817   8.224   5.226
 5681SOL     OW18939   1.757  13.295   9.620
 5681SOL    HW118940   1.664  13.314   9.617
 5681SOL    HW218941   1.788  13.312   9.531
 5682SOL     OW18942   2.395  10.140   5.087
 5682SOL    HW118943   2.428  10.226   5.059
 5682SOL    HW218944   2.310  10.132   5.043
 5683SOL     OW18945   1.827   5.341   4.135
 5683SOL    HW118946   1.806   5.359   4.043
 5683SOL    HW218947   1.746   5.360   4.182
 5684SOL     OW18948  10.853   1.232   2.746
 5684SOL    HW118949  10.940   1.260   2.718
 5684SOL    HW218950  10.814   1.191   2.669
 5685SOL     OW18951   8.034   6.872  11.073
 5685SOL    HW118952   8.014   6.920  11.153
 5685SOL    HW218953   7.956   6.819  11.057
 5686SOL     OW18954   8.258   0.209  12.931
 5686SOL    HW118955   8.281   0.249  13.015
 5686SOL    HW218956   8.334   0.157  12.908
 5687SOL     OW18957   6.076   4.291   1.105
 5687SOL    HW118958   6.161   4.296   1.060
 5687SOL    HW218959   6.023   4.234   1.050
 5688SOL     OW18960  10.447   3.684  14.458
 5688SOL    HW118961  10.447   3.761  14.515
 5688SOL    HW218962  10.539   3.666  14.441
 5689SOL     OW18963   0.548  13.243  13.985
 5689SOL    HW118964   0.472  13.296  14.011
 5689SOL    HW218965   0.564  13.267  13.894
 5690SOL     OW18966   4.138   8.417   3.718
 5690SOL    HW118967   4.103   8.332   3.742
 5690SOL    HW218968   4.105   8.477   3.785
 5691SOL     OW18969   0.738   9.633   6.820
 5691SOL    HW118970   0.683   9.627   6.742
 5691SOL    HW218971   0.776   9.721   6.815
 5692SOL     OW18972   0.060   8.307   2.826
 5692SOL    HW118973   0.012   8.360   2.763
 5692SOL    HW218974   0.131   8.268   2.776
 5693SOL     OW18975   5.938  14.131   2.108
 5693SOL    HW118976   6.023  14.117   2.066
 5693SOL    HW218977   5.959  14.136   2.202
 5694SOL     OW18978   7.091   6.615   6.746
 5694SOL    HW118979   7.109   6.706   6.769
 5694SOL    HW218980   7.164   6.565   6.784
 5695SOL     OW18981  13.098   6.427  13.545
 5695SOL    HW118982  13.174   6.387  13.502
 5695SOL    HW218983  13.055   6.477  13.475
 5696SOL     OW18984   3.162   2.325  13.029
 5696SOL    HW118985   3.226   2.257  13.006
 5696SOL    HW218986   3.125   2.295  13.112
 5697SOL     OW18987   9.022   3.273   9.836
 5697SOL    HW118988   8.936   3.271   9.876
 5697SOL    HW218989   9.077   3.320   9.898
 5698SOL     OW18990   3.055  13.001   9.013
 5698SOL    HW118991   3.138  13.013   8.967
 5698SOL    HW218992   3.038  12.907   9.009
 5699SOL     OW18993   2.102   6.564   4.094
 5699SOL    HW118994   2.043   6.556   4.168
 5699SOL    HW218995   2.186   6.530   4.126
 5700SOL     OW18996   6.686   2.434   6.940
 5700SOL    HW118997   6.771   2.457   6.902
 5700SOL    HW218998   6.696   2.344   6.970
 5701SOL     OW18999   3.358   1.639  13.472
 5701SOL    HW119000   3.284   1.621  13.414
 5701SOL    HW219001   3.424   1.681  13.417
 5702SOL     OW19002  12.855   7.014  10.229
 5702SOL    HW119003  12.859   7.085  10.164
 5702SOL    HW219004  12.776   6.965  10.206
 5703SOL     OW19005   1.543   3.818  13.179
 5703SOL    HW119006   1.469   3.799  13.236
 5703SOL    HW219007   1.580   3.732  13.159
 5704SOL     OW19008  14.589   5.843   0.685
 5704SOL    HW119009  14.597   5.810   0.596
 5704SOL    HW219010  14.590   5.765   0.740
 5705SOL     OW19011  12.688   3.352   5.623
 5705SOL    HW119012  12.736   3.433   5.605
 5705SOL    HW219013  12.626   3.375   5.692
 5706SOL     OW19014   4.506   6.378  10.524
 5706SOL    HW119015   4.426   6.425  10.500
 5706SOL    HW219016   4.574   6.445  10.525
 5707SOL     OW19017   7.401   1.344  13.567
 5707SOL    HW119018   7.323   1.364  13.618
 5707SOL    HW219019   7.419   1.252  13.586
 5708SOL     OW19020   8.539  13.796   1.961
 5708SOL    HW119021   8.514  13.800   1.869
 5708SOL    HW219022   8.621  13.845   1.967
 5709SOL     OW19023   5.699  11.679   7.441
 5709SOL    HW119024   5.760  11.708   7.373
 5709SOL    HW219025   5.661  11.760   7.475
 5710SOL     OW19026  10.939   4.230   6.968
 5710SOL    HW119027  10.993   4.222   7.046
 5710SOL    HW219028  10.868   4.168   6.982
 5711SOL     OW19029  14.026   7.304   5.789
 5711SOL    HW119030  14.018   7.397   5.769
 5711SOL    HW219031  13.938   7.278   5.817
 5712SOL     OW19032  10.426   2.331  13.787
 5712SOL    HW119033  10.413   2.379  13.869
 5712SOL    HW219034  10.371   2.377  13.724
 5713SOL     OW19035  14.631   5.098   3.901
 5713SOL    HW119036  14.542   5.097   3.936
 5713SOL    HW219037  14.677   5.030   3.949
 5714SOL     OW19038  11.681  14.025   5.327
 5714SOL    HW119039  11.633  13.947   5.297
 5714SOL    HW219040  11.649  14.040   5.416
 5715SOL     OW19041  13.348  10.179   5.497
 5715SOL    HW119042  13.400  10.136   5.565
 5715SOL    HW219043  13.389  10.264   5.485
 5716SOL     OW19044  10.570   1.250   0.737
 5716SOL    HW119045  10.652   1.202   0.726
 5716SOL    HW219046  10.531   1.251   0.649
 5717SOL     OW19047   3.613   0.597  10.098
 5717SOL    HW119048   3.572   0.559  10.021
 5717SOL    HW219049   3.576   0.547  10.171
 5718SOL     OW19050   1.267   6.863   4.467
 5718SOL    HW119051   1.328   6.826   4.403
 5718SOL    HW219052   1.183   6.868   4.421
 5719SOL     OW19053  13.837   7.677   3.128
 5719SOL    HW119054  13.829   7.747   3.063
 5719SOL    HW219055  13.915   7.628   3.101
 5720SOL     OW19056  13.439  11.004  12.736
 5720SOL    HW119057  13.397  10.923  12.764
 5720SOL    HW219058  13.385  11.036  12.664
 5721SOL     OW19059   7.968   1.483   1.405
 5721SOL    HW119060   8.018   1.507   1.326
 5721SOL    HW219061   7.963   1.388   1.402
 5722SOL     OW19062   3.259   3.850   2.103
 5722SOL    HW119063   3.231   3.930   2.147
 5722SOL    HW219064   3.219   3.779   2.153
 5723SOL     OW19065  10.209   1.439   5.033
 5723SOL    HW119066  10.256   1.481   5.105
 5723SOL    HW219067  10.138   1.499   5.012
 5724SOL     OW19068   4.104   2.032   2.544
 5724SOL    HW119069   4.079   2.119   2.576
 5724SOL    HW219070   4.027   1.977   2.562
 5725SOL     OW19071   2.129   7.486  14.098
 5725SOL    HW119072   2.220   7.456  14.106
 5725SOL    HW219073   2.113   7.534  14.179
 5726SOL     OW19074   4.844  11.632  10.364
 5726SOL    HW119075   4.833  11.538  10.353
 5726SOL    HW219076   4.804  11.670  10.285
 5727SOL     OW19077   0.277  13.473  12.708
 5727SOL    HW119078   0.303  13.473  12.800
 5727SOL    HW219079   0.185  13.447  12.710
 5728SOL     OW19080  12.112   8.345   1.660
 5728SOL    HW119081  12.074   8.305   1.739
 5728SOL    HW219082  12.196   8.380   1.689
 5729SOL     OW19083  10.795   1.713  11.551
 5729SOL    HW119084  10.838   1.641  11.505
 5729SOL    HW219085  10.793   1.785  11.488
 5730SOL     OW19086  13.137   1.312   2.527
 5730SOL    HW119087  13.081   1.244   2.564
 5730SOL    HW219088  13.112   1.318   2.435
 5731SOL     OW19089   8.364   2.881   1.512
 5731SOL    HW119090   8.312   2.948   1.468
 5731SOL    HW219091   8.301   2.836   1.569
 5732SOL     OW19092  14.440   1.692   3.866
 5732SOL    HW119093  14.447   1.622   3.932
 5732SOL    HW219094  14.346   1.705   3.854
 5733SOL     OW19095   0.211   2.049  12.623
 5733SOL    HW119096   0.257   2.115  12.675
 5733SOL    HW219097   0.244   1.965  12.654
 5734SOL     OW19098   0.667   2.274  13.785
 5734SOL    HW119099   0.744   2.281  13.729
 5734SOL    HW219100   0.684   2.196  13.839
 5735SOL     OW19101  13.596   9.814   4.467
 5735SOL    HW119102  13.511   9.849   4.494
 5735SOL    HW219103  13.625   9.761   4.541
 5736SOL     OW19104  11.025   3.151   0.514
 5736SOL    HW119105  11.022   3.164   0.608
 5736SOL    HW219106  10.934   3.141   0.488
 5737SOL     OW19107   1.916   6.305  11.004
 5737SOL    HW119108   1.870   6.244  10.947
 5737SOL    HW219109   1.993   6.256  11.035
 5738SOL     OW19110   5.743   3.587   8.667
 5738SOL    HW119111   5.821   3.607   8.719
 5738SOL    HW219112   5.714   3.502   8.700
 5739SOL     OW19113   7.622   2.989  13.064
 5739SOL    HW119114   7.594   2.956  13.150
 5739SOL    HW219115   7.717   2.978  13.063
 5740SOL     OW19116   3.769   4.300  11.664
 5740SOL    HW119117   3.776   4.389  11.698
 5740SOL    HW219118   3.679   4.294  11.631
 5741SOL     OW19119   9.151  10.768  13.619
 5741SOL    HW119120   9.188  10.827  13.684
 5741SOL    HW219121   9.210  10.774  13.544
 5742SOL     OW19122   1.561   9.443   4.915
 5742SOL    HW119123   1.549   9.415   4.824
 5742SOL    HW219124   1.632   9.388   4.948
 5743SOL     OW19125   3.719  14.636  10.880
 5743SOL    HW119126   3.775  14.652  10.804
 5743SOL    HW219127   3.635  14.610  10.843
 5744SOL     OW19128   4.773   5.254   0.112
 5744SOL    HW119129   4.686   5.215   0.127
 5744SOL    HW219130   4.786   5.250   0.018
 5745SOL     OW19131   1.274   0.006   2.660
 5745SOL    HW119132   1.223   0.007   2.741
 5745SOL    HW219133   1.237   0.077   2.608
 5746SOL     OW19134  12.932   2.926  14.820
 5746SOL    HW119135  12.965   3.016  14.818
 5746SOL    HW219136  12.947   2.897   0.023
 5747SOL     OW19137   5.853   9.365  13.418
 5747SOL    HW119138   5.906   9.442  13.396
 5747SOL    HW219139   5.778   9.400  13.466
 5748SOL     OW19140   2.449  10.481   8.249
 5748SOL    HW119141   2.518  10.545   8.229
 5748SOL    HW219142   2.424  10.445   8.164
 5749SOL     OW19143   6.214   7.443  14.008
 5749SOL    HW119144   6.250   7.362  14.044
 5749SOL    HW219145   6.232   7.509  14.075
 5750SOL     OW19146   5.758   2.296   5.588
 5750SOL    HW119147   5.836   2.335   5.548
 5750SOL    HW219148   5.793   2.226   5.644
 5751SOL     OW19149   6.635   6.527   5.910
 5751SOL    HW119150   6.625   6.522   5.815
 5751SOL    HW219151   6.691   6.604   5.924
 5752SOL     OW19152  12.693  13.562  10.216
 5752SOL    HW119153  12.744  13.570  10.135
 5752SOL    HW219154  12.745  13.608  10.281
 5753SOL     OW19155  12.423   5.465   1.015
 5753SOL    HW119156  12.391   5.516   0.940
 5753SOL    HW219157  12.344   5.426   1.052
 5754SOL     OW19158   9.743   9.474   4.687
 5754SOL    HW119159   9.706   9.493   4.601
 5754SOL    HW219160   9.710   9.387   4.710
 5755SOL     OW19161   3.530   1.501   4.899
 5755SOL    HW119162   3.596   1.532   4.837
 5755SOL    HW219163   3.513   1.410   4.873
 5756SOL     OW19164   8.904  14.569   8.234
 5756SOL    HW119165   8.810  14.568   8.218
 5756SOL    HW219166   8.930  14.659   8.218
 5757SOL     OW19167   6.646   7.269  10.693
 5757SOL    HW119168   6.662   7.209  10.620
 5757SOL    HW219169   6.733   7.293  10.724
 5758SOL     OW19170  13.984   6.196  11.275
 5758SOL    HW119171  13.949   6.134  11.210
 5758SOL    HW219172  14.051   6.146  11.321
 5759SOL     OW19173   1.243  14.501   2.898
 5759SOL    HW119174   1.268  14.507   2.806
 5759SOL    HW219175   1.148  14.495   2.897
 5760SOL     OW19176   7.067  10.937   4.721
 5760SOL    HW119177   7.010  10.930   4.797
 5760SOL    HW219178   7.010  10.918   4.647
 5761SOL     OW19179   4.279   3.794   7.328
 5761SOL    HW119180   4.312   3.877   7.294
 5761SOL    HW219181   4.185   3.796   7.312
 5762SOL     OW19182   2.057   0.324  12.168
 5762SOL    HW119183   2.069   0.296  12.259
 5762SOL    HW219184   2.035   0.417  12.174
 5763SOL     OW19185   0.293  12.765   9.472
 5763SOL    HW119186   0.318  12.822   9.545
 5763SOL    HW219187   0.328  12.809   9.395
 5764SOL     OW19188   9.601   6.661  14.875
 5764SOL    HW119189   9.564   6.735   0.036
 5764SOL    HW219190   9.529   6.597  14.871
 5765SOL     OW19191  12.657   8.948  14.157
 5765SOL    HW119192  12.679   8.945  14.064
 5765SOL    HW219193  12.740   8.963  14.202
 5766SOL     OW19194   2.397   5.863  10.923
 5766SOL    HW119195   2.310   5.831  10.901
 5766SOL    HW219196   2.446   5.784  10.945
 5767SOL     OW19197  14.248   6.415   4.206
 5767SOL    HW119198  14.280   6.355   4.138
 5767SOL    HW219199  14.245   6.501   4.164
 5768SOL     OW19200   6.324  14.747   4.996
 5768SOL    HW119201   6.287  14.661   4.980
 5768SOL    HW219202   6.415  14.740   4.967
 5769SOL     OW19203   8.159   6.556   9.533
 5769SOL    HW119204   8.229   6.619   9.517
 5769SOL    HW219205   8.099   6.568   9.459
 5770SOL     OW19206   4.113  11.089   8.211
 5770SOL    HW119207   4.166  11.107   8.289
 5770SOL    HW219208   4.137  11.159   8.149
 5771SOL     OW19209   6.445  14.301  11.094
 5771SOL    HW119210   6.361  14.288  11.138
 5771SOL    HW219211   6.465  14.393  11.109
 5772SOL     OW19212  14.775  12.502   8.099
 5772SOL    HW119213  14.741  12.578   8.052
 5772SOL    HW219214  14.841  12.537   8.158
 5773SOL     OW19215  10.763   3.695   0.907
 5773SOL    HW119216  10.732   3.620   0.956
 5773SOL    HW219217  10.823   3.740   0.968
 5774SOL     OW19218   0.278   1.747   7.179
 5774SOL    HW119219   0.345   1.805   7.214
 5774SOL    HW219220   0.265   1.778   7.089
 5775SOL     OW19221  12.166   5.605   6.260
 5775SOL    HW119222  12.130   5.652   6.185
 5775SOL    HW219223  12.236   5.550   6.223
 5776SOL     OW19224   1.268   5.169  11.891
 5776SOL    HW119225   1.347   5.190  11.941
 5776SOL    HW219226   1.220   5.252  11.886
 5777SOL     OW19227  14.123   5.810   7.940
 5777SOL    HW119228  14.037   5.784   7.975
 5777SOL    HW219229  14.116   5.905   7.930
 5778SOL     OW19230   8.929  13.889   5.524
 5778SOL    HW119231   8.904  13.951   5.455
 5778SOL    HW219232   8.968  13.944   5.592
 5779SOL     OW19233  12.554   3.955  11.484
 5779SOL    HW119234  12.633   3.916  11.522
 5779SOL    HW219235  12.569   3.950  11.389
 5780SOL     OW19236  12.923   2.885   6.143
 5780SOL    HW119237  12.917   2.976   6.112
 5780SOL    HW219238  12.833   2.853   6.139
 5781SOL     OW19239  12.424  10.259   6.326
 5781SOL    HW119240  12.374  10.328   6.283
 5781SOL    HW219241  12.443  10.294   6.414
 5782SOL     OW19242  14.110   3.870  12.292
 5782SOL    HW119243  14.182   3.825  12.248
 5782SOL    HW219244  14.086   3.812  12.364
 5783SOL     OW19245  11.072   5.393  11.284
 5783SOL    HW119246  11.158   5.360  11.259
 5783SOL    HW219247  11.016   5.316  11.285
 5784SOL     OW19248  13.299   4.943   5.481
 5784SOL    HW119249  13.391   4.919   5.469
 5784SOL    HW219250  13.263   4.874   5.538
 5785SOL     OW19251   0.010   0.539  14.431
 5785SOL    HW119252   0.081   0.602  14.445
 5785SOL    HW219253  14.819   0.593  14.422
 5786SOL     OW19254   0.459   1.364   9.640
 5786SOL    HW119255   0.444   1.331   9.728
 5786SOL    HW219256   0.443   1.459   9.647
 5787SOL     OW19257   6.483   3.500   3.165
 5787SOL    HW119258   6.432   3.471   3.240
 5787SOL    HW219259   6.418   3.518   3.097
 5788SOL     OW19260   1.923   7.116   7.446
 5788SOL    HW119261   1.827   7.120   7.447
 5788SOL    HW219262   1.943   7.037   7.396
 5789SOL     OW19263   9.205   0.690   2.202
 5789SOL    HW119264   9.129   0.658   2.152
 5789SOL    HW219265   9.246   0.755   2.144
 5790SOL     OW19266   3.820   4.817   9.809
 5790SOL    HW119267   3.897   4.802   9.864
 5790SOL    HW219268   3.793   4.729   9.781
 5791SOL     OW19269   7.754   6.231   0.297
 5791SOL    HW119270   7.678   6.214   0.352
 5791SOL    HW219271   7.800   6.303   0.341
 5792SOL     OW19272  13.978   3.053   9.310
 5792SOL    HW119273  14.038   3.122   9.338
 5792SOL    HW219274  13.957   3.005   9.390
 5793SOL     OW19275   1.772   2.714   0.179
 5793SOL    HW119276   1.864   2.731   0.201
 5793SOL    HW219277   1.732   2.687   0.261
 5794SOL     OW19278  12.258   1.487   0.609
 5794SOL    HW119279  12.211   1.411   0.644
 5794SOL    HW219280  12.190   1.543   0.574
 5795SOL     OW19281   5.293   5.822   3.109
 5795SOL    HW119282   5.375   5.839   3.062
 5795SOL    HW219283   5.241   5.902   3.096
 5796SOL     OW19284  10.270   4.145  10.656
 5796SOL    HW119285  10.354   4.127  10.697
 5796SOL    HW219286  10.219   4.065  10.669
 5797SOL     OW19287   7.373   6.285   7.606
 5797SOL    HW119288   7.434   6.356   7.625
 5797SOL    HW219289   7.427   6.206   7.603
 5798SOL     OW19290   4.578  13.381  10.581
 5798SOL    HW119291   4.612  13.434  10.654
 5798SOL    HW219292   4.656  13.357  10.531
 5799SOL     OW19293  10.326   5.340   0.387
 5799SOL    HW119294  10.351   5.382   0.305
 5799SOL    HW219295  10.233   5.321   0.377
 5800SOL     OW19296   9.359   8.042   4.922
 5800SOL    HW119297   9.322   8.102   4.987
 5800SOL    HW219298   9.287   8.025   4.862
 5801SOL     OW19299  14.623   9.561   0.676
 5801SOL    HW119300  14.611   9.625   0.606
 5801SOL    HW219301  14.537   9.554   0.717
 5802SOL     OW19302  12.878   5.261   1.367
 5802SOL    HW119303  12.783   5.252   1.375
 5802SOL    HW219304  12.895   5.249   1.273
 5803SOL     OW19305   5.650   2.353   4.386
 5803SOL    HW119306   5.604   2.352   4.302
 5803SOL    HW219307   5.604   2.288   4.439
 5804SOL     OW19308   0.172   1.725   0.492
 5804SOL    HW119309   0.173   1.672   0.571
 5804SOL    HW219310   0.124   1.672   0.428
 5805SOL     OW19311   6.792   5.233   7.922
 5805SOL    HW119312   6.785   5.216   8.016
 5805SOL    HW219313   6.884   5.214   7.901
 5806SOL     OW19314   7.752   8.715   0.520
 5806SOL    HW119315   7.826   8.771   0.544
 5806SOL    HW219316   7.760   8.639   0.578
 5807SOL     OW19317   4.913   9.190  11.650
 5807SOL    HW119318   4.818   9.196  11.644
 5807SOL    HW219319   4.938   9.260  11.710
 5808SOL     OW19320   3.004   3.005   4.045
 5808SOL    HW119321   3.059   3.027   3.970
 5808SOL    HW219322   2.979   3.090   4.082
 5809SOL     OW19323   6.746   9.269  11.220
 5809SOL    HW119324   6.658   9.245  11.247
 5809SOL    HW219325   6.780   9.192  11.176
 5810SOL     OW19326  12.065   8.824   2.878
 5810SOL    HW119327  12.057   8.830   2.973
 5810SOL    HW219328  12.159   8.820   2.862
 5811SOL     OW19329  12.347  12.678  10.386
 5811SOL    HW119330  12.358  12.771  10.405
 5811SOL    HW219331  12.429  12.653  10.342
 5812SOL     OW19332   7.729  14.641   4.574
 5812SOL    HW119333   7.639  14.643   4.540
 5812SOL    HW219334   7.737  14.720   4.627
 5813SOL     OW19335   6.845   2.941   8.376
 5813SOL    HW119336   6.907   2.964   8.306
 5813SOL    HW219337   6.876   2.989   8.452
 5814SOL     OW19338  11.192   5.915   7.277
 5814SOL    HW119339  11.194   5.824   7.246
 5814SOL    HW219340  11.202   5.968   7.198
 5815SOL     OW19341  10.371   3.484  10.959
 5815SOL    HW119342  10.394   3.552  10.895
 5815SOL    HW219343  10.360   3.405  10.907
 5816SOL     OW19344   6.434  12.902   1.031
 5816SOL    HW119345   6.412  12.907   1.124
 5816SOL    HW219346   6.502  12.835   1.026
 5817SOL     OW19347   9.526  14.457   6.282
 5817SOL    HW119348   9.443  14.498   6.257
 5817SOL    HW219349   9.539  14.484   6.373
 5818SOL     OW19350   6.864   2.705  14.780
 5818SOL    HW119351   6.837   2.794  14.758
 5818SOL    HW219352   6.942   2.689  14.726
 5819SOL     OW19353   8.008   0.214   7.421
 5819SOL    HW119354   8.002   0.122   7.395
 5819SOL    HW219355   7.918   0.246   7.415
 5820SOL     OW19356   4.122   4.110   2.246
 5820SOL    HW119357   4.207   4.088   2.207
 5820SOL    HW219358   4.062   4.113   2.172
 5821SOL     OW19359  14.758  12.225   3.334
 5821SOL    HW119360  14.721  12.284   3.400
 5821SOL    HW219361  14.841  12.265   3.310
 5822SOL     OW19362  14.588  12.476   6.870
 5822SOL    HW119363  14.678  12.463   6.839
 5822SOL    HW219364  14.533  12.442   6.799
 5823SOL     OW19365  10.833   3.851   2.901
 5823SOL    HW119366  10.804   3.930   2.947
 5823SOL    HW219367  10.824   3.781   2.965
 5824SOL     OW19368   0.169  10.276   0.583
 5824SOL    HW119369   0.203  10.192   0.615
 5824SOL    HW219370   0.205  10.285   0.495
 5825SOL     OW19371  13.976   7.482  11.519
 5825SOL    HW119372  14.046   7.457  11.459
 5825SOL    HW219373  13.939   7.562  11.481
 5826SOL     OW19374   9.371   6.332   5.447
 5826SOL    HW119375   9.311   6.362   5.378
 5826SOL    HW219376   9.429   6.406   5.463
 5827SOL     OW19377   1.457   9.738  12.677
 5827SOL    HW119378   1.415   9.657  12.651
 5827SOL    HW219379   1.518   9.757  12.605
 5828SOL     OW19380  11.750   3.710   6.741
 5828SOL    HW119381  11.821   3.684   6.800
 5828SOL    HW219382  11.735   3.802   6.761
 5829SOL     OW19383   2.125   8.849   8.803
 5829SOL    HW119384   2.152   8.808   8.721
 5829SOL    HW219385   2.031   8.830   8.809
 5830SOL     OW19386   4.376  10.579  13.809
 5830SOL    HW119387   4.323  10.531  13.745
 5830SOL    HW219388   4.455  10.525  13.820
 5831SOL     OW19389  14.459   1.131  11.671
 5831SOL    HW119390  14.420   1.085  11.596
 5831SOL    HW219391  14.384   1.160  11.723
 5832SOL     OW19392  12.996   9.308  11.377
 5832SOL    HW119393  12.934   9.240  11.403
 5832SOL    HW219394  13.071   9.260  11.343
 5833SOL     OW19395   5.231   1.507   5.470
 5833SOL    HW119396   5.243   1.549   5.385
 5833SOL    HW219397   5.307   1.450   5.480
 5834SOL     OW19398  10.775   6.578   2.549
 5834SOL    HW119399  10.862   6.539   2.557
 5834SOL    HW219400  10.723   6.512   2.502
 5835SOL     OW19401   4.250   5.642   3.923
 5835SOL    HW119402   4.329   5.588   3.921
 5835SOL    HW219403   4.252   5.683   4.010
 5836SOL     OW19404   6.768   9.183   4.398
 5836SOL    HW119405   6.673   9.188   4.405
 5836SOL    HW219406   6.788   9.220   4.312
 5837SOL     OW19407   9.470  13.224  10.130
 5837SOL    HW119408   9.494  13.142  10.174
 5837SOL    HW219409   9.398  13.259  10.183
 5838SOL     OW19410   3.833   0.078   6.889
 5838SOL    HW119411   3.846   0.126   6.970
 5838SOL    HW219412   3.794   0.141   6.829
 5839SOL     OW19413  12.413   9.875  13.206
 5839SOL    HW119414  12.345   9.809  13.195
 5839SOL    HW219415  12.379   9.952  13.161
 5840SOL     OW19416  12.921   2.364   2.855
 5840SOL    HW119417  12.885   2.287   2.811
 5840SOL    HW219418  12.969   2.329   2.930
 5841SOL     OW19419  14.538  12.973  12.824
 5841SOL    HW119420  14.553  13.066  12.843
 5841SOL    HW219421  14.453  12.954  12.863
 5842SOL     OW19422  13.686   6.664  11.668
 5842SOL    HW119423  13.619   6.660  11.599
 5842SOL    HW219424  13.713   6.573  11.680
 5843SOL     OW19425   2.618   0.407   1.554
 5843SOL    HW119426   2.688   0.417   1.489
 5843SOL    HW219427   2.631   0.320   1.590
 5844SOL     OW19428   8.584  14.867   8.729
 5844SOL    HW119429   8.595  14.861   8.824
 5844SOL    HW219430   8.636  14.794   8.695
 5845SOL     OW19431   2.806   1.630   3.401
 5845SOL    HW119432   2.740   1.608   3.335
 5845SOL    HW219433   2.769   1.705   3.448
 5846SOL     OW19434  14.345   5.745  14.805
 5846SOL    HW119435  14.382   5.812  14.862
 5846SOL    HW219436  14.257   5.776  14.786
 5847SOL     OW19437  14.668  10.228   0.861
 5847SOL    HW119438  14.716  10.214   0.780
 5847SOL    HW219439  14.579  10.248   0.833
 5848SOL     OW19440  10.699   1.006   1.500
 5848SOL    HW119441  10.670   0.961   1.421
 5848SOL    HW219442  10.657   0.958   1.572
 5849SOL     OW19443   5.721   6.628  11.909
 5849SOL    HW119444   5.796   6.579  11.942
 5849SOL    HW219445   5.707   6.594  11.821
 5850SOL     OW19446  13.982   6.687   2.146
 5850SOL    HW119447  14.040   6.620   2.183
 5850SOL    HW219448  13.958   6.653   2.060
 5851SOL     OW19449   4.089   5.068  13.716
 5851SOL    HW119450   4.140   5.010  13.661
 5851SOL    HW219451   4.153   5.109  13.774
 5852SOL     OW19452   1.426  11.639  10.399
 5852SOL    HW119453   1.496  11.690  10.360
 5852SOL    HW219454   1.422  11.559  10.347
 5853SOL     OW19455   9.905   6.893   0.599
 5853SOL    HW119456   9.954   6.850   0.669
 5853SOL    HW219457   9.828   6.930   0.642
 5854SOL     OW19458   9.644   9.429   1.520
 5854SOL    HW119459   9.630   9.407   1.428
 5854SOL    HW219460   9.556   9.444   1.555
 5855SOL     OW19461  12.001  11.689   8.996
 5855SOL    HW119462  11.922  11.655   8.953
 5855SOL    HW219463  11.997  11.784   8.982
 5856SOL     OW19464   1.341  10.103   9.486
 5856SOL    HW119465   1.417  10.162   9.496
 5856SOL    HW219466   1.376  10.016   9.507
 5857SOL     OW19467  14.152   8.941   7.334
 5857SOL    HW119468  14.182   8.883   7.264
 5857SOL    HW219469  14.137   9.025   7.291
 5858SOL     OW19470   6.072   8.704   4.342
 5858SOL    HW119471   6.003   8.647   4.375
 5858SOL    HW219472   6.131   8.716   4.417
 5859SOL     OW19473   9.465   2.314   3.063
 5859SOL    HW119474   9.544   2.366   3.080
 5859SOL    HW219475   9.431   2.348   2.980
 5860SOL     OW19476   7.457   1.718  14.549
 5860SOL    HW119477   7.366   1.731  14.521
 5860SOL    HW219478   7.450   1.664  14.627
 5861SOL     OW19479   7.530   3.435   0.453
 5861SOL    HW119480   7.583   3.364   0.491
 5861SOL    HW219481   7.446   3.429   0.500
 5862SOL     OW19482   1.645   2.617  11.683
 5862SOL    HW119483   1.646   2.582  11.772
 5862SOL    HW219484   1.727   2.585  11.644
 5863SOL     OW19485   2.958   3.098  14.168
 5863SOL    HW119486   2.942   3.180  14.215
 5863SOL    HW219487   2.951   3.030  14.235
 5864SOL     OW19488   3.614   9.871   9.200
 5864SOL    HW119489   3.699   9.841   9.231
 5864SOL    HW219490   3.558   9.869   9.278
 5865SOL     OW19491  14.731  10.560   7.621
 5865SOL    HW119492  14.669  10.623   7.658
 5865SOL    HW219493  14.676  10.487   7.591
 5866SOL     OW19494   7.301  12.301  14.709
 5866SOL    HW119495   7.364  12.371  14.688
 5866SOL    HW219496   7.295  12.250  14.628
 5867SOL     OW19497   6.587   7.604   4.686
 5867SOL    HW119498   6.573   7.527   4.740
 5867SOL    HW219499   6.524   7.668   4.718
 5868SOL     OW19500   6.652   2.280   0.285
 5868SOL    HW119501   6.746   2.289   0.301
 5868SOL    HW219502   6.646   2.252   0.194
 5869SOL     OW19503  13.997   3.050  11.497
 5869SOL    HW119504  14.086   3.016  11.496
 5869SOL    HW219505  14.004   3.139  11.463
 5870SOL     OW19506   7.417   9.685   0.694
 5870SOL    HW119507   7.419   9.739   0.615
 5870SOL    HW219508   7.437   9.597   0.664
 5871SOL     OW19509   0.032   5.876   5.560
 5871SOL    HW119510  14.866   5.943   5.603
 5871SOL    HW219511   0.106   5.863   5.619
 5872SOL     OW19512   0.590   2.704   6.309
 5872SOL    HW119513   0.578   2.623   6.259
 5872SOL    HW219514   0.546   2.771   6.257
 5873SOL     OW19515  10.186  14.040   4.422
 5873SOL    HW119516  10.236  14.062   4.343
 5873SOL    HW219517  10.156  13.950   4.407
 5874SOL     OW19518  12.336   6.026   4.581
 5874SOL    HW119519  12.350   5.945   4.532
 5874SOL    HW219520  12.424   6.064   4.588
 5875SOL     OW19521  10.401   0.075   2.685
 5875SOL    HW119522  10.377  14.876   2.718
 5875SOL    HW219523  10.470   0.058   2.621
 5876SOL     OW19524   1.734   6.189  10.207
 5876SOL    HW119525   1.783   6.168  10.286
 5876SOL    HW219526   1.800   6.223  10.146
 5877SOL     OW19527  12.313  10.151  13.974
 5877SOL    HW119528  12.408  10.158  13.962
 5877SOL    HW219529  12.282  10.108  13.895
 5878SOL     OW19530   2.842  13.945  11.457
 5878SOL    HW119531   2.840  14.027  11.407
 5878SOL    HW219532   2.871  13.971  11.544
 5879SOL     OW19533  13.723   3.880   9.594
 5879SOL    HW119534  13.738   3.969   9.627
 5879SOL    HW219535  13.768   3.878   9.509
 5880SOL     OW19536   8.873   4.769   4.260
 5880SOL    HW119537   8.797   4.712   4.271
 5880SOL    HW219538   8.918   4.733   4.184
 5881SOL     OW19539  12.049   2.009   4.318
 5881SOL    HW119540  12.127   2.004   4.263
 5881SOL    HW219541  12.017   1.919   4.324
 5882SOL     OW19542   2.478   2.890   7.770
 5882SOL    HW119543   2.481   2.802   7.732
 5882SOL    HW219544   2.398   2.890   7.822
 5883SOL     OW19545   6.671   8.478   7.347
 5883SOL    HW119546   6.644   8.387   7.354
 5883SOL    HW219547   6.762   8.479   7.378
 5884SOL     OW19548   5.286   6.007  14.592
 5884SOL    HW119549   5.350   5.936  14.587
 5884SOL    HW219550   5.218   5.974  14.650
 5885SOL     OW19551   9.504   3.908   9.168
 5885SOL    HW119552   9.442   3.961   9.118
 5885SOL    HW219553   9.582   3.904   9.112
 5886SOL     OW19554   5.005   6.862  10.813
 5886SOL    HW119555   5.036   6.928  10.751
 5886SOL    HW219556   5.064   6.787  10.800
 5887SOL     OW19557  10.443   5.270   7.364
 5887SOL    HW119558  10.418   5.205   7.299
 5887SOL    HW219559  10.536   5.254   7.380
 5888SOL     OW19560   2.215   6.781   6.289
 5888SOL    HW119561   2.268   6.707   6.319
 5888SOL    HW219562   2.161   6.744   6.219
 5889SOL     OW19563   3.990   1.170   2.972
 5889SOL    HW119564   3.970   1.082   2.942
 5889SOL    HW219565   4.085   1.177   2.965
 5890SOL     OW19566  10.008   7.599  11.787
 5890SOL    HW119567  10.030   7.662  11.718
 5890SOL    HW219568  10.091   7.577  11.828
 5891SOL     OW19569   3.170   5.446   3.139
 5891SOL    HW119570   3.077   5.428   3.146
 5891SOL    HW219571   3.193   5.420   3.050
 5892SOL     OW19572   4.282   3.516   8.391
 5892SOL    HW119573   4.247   3.603   8.373
 5892SOL    HW219574   4.205   3.463   8.412
 5893SOL     OW19575   5.220   1.598  10.696
 5893SOL    HW119576   5.257   1.685  10.678
 5893SOL    HW219577   5.292   1.549  10.735
 5894SOL     OW19578   8.492   4.105   7.008
 5894SOL    HW119579   8.470   4.073   7.096
 5894SOL    HW219580   8.424   4.067   6.952
 5895SOL     OW19581  13.026   5.545   9.902
 5895SOL    HW119582  13.008   5.596   9.982
 5895SOL    HW219583  13.113   5.508   9.918
 5896SOL     OW19584   8.075   5.016   0.670
 5896SOL    HW119585   8.007   5.079   0.695
 5896SOL    HW219586   8.136   5.017   0.744
 5897SOL     OW19587   0.093  13.017  14.541
 5897SOL    HW119588   0.085  12.927  14.511
 5897SOL    HW219589   0.179  13.022  14.582
 5898SOL     OW19590   9.129   4.072   7.720
 5898SOL    HW119591   9.213   4.042   7.686
 5898SOL    HW219592   9.125   4.038   7.809
 5899SOL     OW19593  13.931  13.821   1.676
 5899SOL    HW119594  13.893  13.896   1.630
 5899SOL    HW219595  13.877  13.810   1.754
 5900SOL     OW19596   8.694   7.050  11.199
 5900SOL    HW119597   8.720   7.002  11.278
 5900SOL    HW219598   8.719   6.991  11.127
 5901SOL     OW19599   4.102  12.031   8.127
 5901SOL    HW119600   4.154  12.108   8.103
 5901SOL    HW219601   4.130  12.011   8.217
 5902SOL     OW19602   6.441   4.727   5.398
 5902SOL    HW119603   6.383   4.653   5.417
 5902SOL    HW219604   6.383   4.799   5.376
 5903SOL     OW19605   2.209   0.706   3.981
 5903SOL    HW119606   2.126   0.733   3.942
 5903SOL    HW219607   2.184   0.668   4.065
 5904SOL     OW19608  13.091   7.821  12.772
 5904SOL    HW119609  13.015   7.833  12.830
 5904SOL    HW219610  13.054   7.782  12.693
 5905SOL     OW19611  10.055   9.883  11.614
 5905SOL    HW119612  10.093   9.876  11.701
 5905SOL    HW219613  10.128   9.912  11.558
 5906SOL     OW19614   7.313   5.711  13.874
 5906SOL    HW119615   7.278   5.633  13.832
 5906SOL    HW219616   7.405   5.691  13.891
 5907SOL     OW19617  11.367   9.815   9.024
 5907SOL    HW119618  11.274   9.831   9.009
 5907SOL    HW219619  11.411   9.883   8.972
 5908SOL     OW19620   0.491  12.106  13.081
 5908SOL    HW119621   0.566  12.129  13.026
 5908SOL    HW219622   0.416  12.105  13.021
 5909SOL     OW19623   1.710   3.365  14.204
 5909SOL    HW119624   1.756   3.336  14.282
 5909SOL    HW219625   1.631   3.409  14.237
 5910SOL     OW19626  11.692   6.527   4.611
 5910SOL    HW119627  11.667   6.435   4.599
 5910SOL    HW219628  11.619   6.576   4.572
 5911SOL     OW19629   4.797   5.410   0.731
 5911SOL    HW119630   4.845   5.425   0.649
 5911SOL    HW219631   4.706   5.405   0.705
 5912SOL     OW19632  12.058   6.445   5.235
 5912SOL    HW119633  12.132   6.492   5.274
 5912SOL    HW219634  11.994   6.513   5.216
 5913SOL     OW19635   3.760   6.034   0.309
 5913SOL    HW119636   3.817   5.972   0.263
 5913SOL    HW219637   3.781   6.021   0.402
 5914SOL     OW19638   2.511  14.228   9.938
 5914SOL    HW119639   2.493  14.296   9.873
 5914SOL    HW219640   2.430  14.219   9.987
 5915SOL     OW19641   0.044  14.599  14.639
 5915SOL    HW119642  14.840  14.618  14.618
 5915SOL    HW219643   0.040  14.546  14.719
 5916SOL     OW19644   5.905   9.705  10.879
 5916SOL    HW119645   5.950   9.789  10.876
 5916SOL    HW219646   5.885   9.691  10.972
 5917SOL     OW19647   0.811   4.455  11.588
 5917SOL    HW119648   0.884   4.401  11.557
 5917SOL    HW219649   0.769   4.489  11.509
 5918SOL     OW19650   6.581  13.940   8.951
 5918SOL    HW119651   6.530  13.886   9.011
 5918SOL    HW219652   6.669  13.940   8.988
 5919SOL     OW19653   3.218  11.936   8.035
 5919SOL    HW119654   3.185  12.023   8.057
 5919SOL    HW219655   3.145  11.894   7.988
 5920SOL     OW19656   0.229  12.266   3.575
 5920SOL    HW119657   0.306  12.225   3.615
 5920SOL    HW219658   0.155  12.219   3.613
 5921SOL     OW19659   3.537  12.402   6.841
 5921SOL    HW119660   3.479  12.364   6.907
 5921SOL    HW219661   3.563  12.487   6.878
 5922SOL     OW19662   8.563   0.710   2.634
 5922SOL    HW119663   8.500   0.710   2.705
 5922SOL    HW219664   8.647   0.727   2.677
 5923SOL     OW19665   4.739  14.693   8.215
 5923SOL    HW119666   4.826  14.712   8.250
 5923SOL    HW219667   4.750  14.694   8.120
 5924SOL     OW19668  14.782   3.238   4.945
 5924SOL    HW119669  14.872   3.219   4.974
 5924SOL    HW219670  14.735   3.259   5.025
 5925SOL     OW19671   7.825  10.182   1.271
 5925SOL    HW119672   7.785  10.265   1.245
 5925SOL    HW219673   7.860  10.199   1.359
 5926SOL     OW19674   3.045   8.624   3.359
 5926SOL    HW119675   3.024   8.553   3.298
 5926SOL    HW219676   3.136   8.610   3.382
 5927SOL     OW19677   5.622   6.662   7.951
 5927SOL    HW119678   5.706   6.682   7.992
 5927SOL    HW219679   5.593   6.581   7.992
 5928SOL     OW19680  10.274   0.274   6.261
 5928SOL    HW119681  10.269   0.278   6.356
 5928SOL    HW219682  10.200   0.325   6.231
 5929SOL     OW19683  12.153   6.393  10.994
 5929SOL    HW119684  12.239   6.434  10.990
 5929SOL    HW219685  12.092   6.466  11.001
 5930SOL     OW19686   3.841   4.173   6.080
 5930SOL    HW119687   3.842   4.202   6.172
 5930SOL    HW219688   3.933   4.163   6.057
 5931SOL     OW19689   5.470   8.329   8.959
 5931SOL    HW119690   5.498   8.384   8.885
 5931SOL    HW219691   5.550   8.314   9.009
 5932SOL     OW19692  10.827  10.421  11.622
 5932SOL    HW119693  10.870  10.386  11.544
 5932SOL    HW219694  10.734  10.418  11.601
 5933SOL     OW19695  14.793   6.962  10.900
 5933SOL    HW119696  14.823   6.881  10.941
 5933SOL    HW219697  14.795   6.945  10.806
 5934SOL     OW19698  13.776  13.312   1.149
 5934SOL    HW119699  13.793  13.378   1.083
 5934SOL    HW219700  13.731  13.359   1.219
 5935SOL     OW19701   3.220   3.085   7.850
 5935SOL    HW119702   3.315   3.093   7.842
 5935SOL    HW219703   3.197   3.015   7.789
 5936SOL     OW19704   6.025  12.588   8.668
 5936SOL    HW119705   6.076  12.574   8.747
 5936SOL    HW219706   6.084  12.635   8.609
 5937SOL     OW19707   8.110   7.143  11.474
 5937SOL    HW119708   8.037   7.176  11.422
 5937SOL    HW219709   8.138   7.218  11.526
 5938SOL     OW19710  13.382   4.598  14.337
 5938SOL    HW119711  13.294   4.604  14.300
 5938SOL    HW219712  13.412   4.689  14.344
 5939SOL     OW19713   6.572  12.111   2.380
 5939SOL    HW119714   6.510  12.126   2.451
 5939SOL    HW219715   6.632  12.185   2.384
 5940SOL     OW19716  14.192  13.721   1.583
 5940SOL    HW119717  14.097  13.722   1.591
 5940SOL    HW219718  14.224  13.765   1.662
 5941SOL     OW19719   2.501  10.757  12.535
 5941SOL    HW119720   2.577  10.700  12.547
 5941SOL    HW219721   2.514  10.828  12.598
 5942SOL     OW19722   7.595  14.120  11.969
 5942SOL    HW119723   7.683  14.126  11.933
 5942SOL    HW219724   7.605  14.138  12.063
 5943SOL     OW19725   7.490  10.864  10.860
 5943SOL    HW119726   7.514  10.945  10.814
 5943SOL    HW219727   7.401  10.880  10.892
 5944SOL     OW19728   2.672   9.277  13.017
 5944SOL    HW119729   2.581   9.250  13.026
 5944SOL    HW219730   2.719   9.195  13.001
 5945SOL     OW19731  12.762  11.394  11.405
 5945SOL    HW119732  12.836  11.345  11.371
 5945SOL    HW219733  12.685  11.343  11.381
 5946SOL     OW19734   9.341  12.222  14.279
 5946SOL    HW119735   9.431  12.192  14.267
 5946SOL    HW219736   9.316  12.188  14.365
 5947SOL     OW19737  10.258   0.725   9.698
 5947SOL    HW119738  10.273   0.813   9.664
 5947SOL    HW219739  10.172   0.701   9.666
 5948SOL     OW19740  13.627   6.412   2.752
 5948SOL    HW119741  13.559   6.382   2.691
 5948SOL    HW219742  13.585   6.480   2.804
 5949SOL     OW19743   3.043  11.079   3.755
 5949SOL    HW119744   3.072  11.154   3.702
 5949SOL    HW219745   3.091  11.004   3.719
 5950SOL     OW19746   0.126   1.257   3.313
 5950SOL    HW119747   0.201   1.197   3.309
 5950SOL    HW219748   0.059   1.216   3.259
 5951SOL     OW19749   7.303  12.494  11.737
 5951SOL    HW119750   7.253  12.571  11.709
 5951SOL    HW219751   7.248  12.452  11.803
 5952SOL     OW19752  13.618   0.539   3.222
 5952SOL    HW119753  13.541   0.494   3.188
 5952SOL    HW219754  13.691   0.482   3.200
 5953SOL     OW19755   6.394   4.980   3.293
 5953SOL    HW119756   6.346   5.062   3.292
 5953SOL    HW219757   6.436   4.978   3.379
 5954SOL     OW19758  14.786  10.358   0.010
 5954SOL    HW119759  14.848  10.417  14.854
 5954SOL    HW219760  14.840  10.305   0.069
 5955SOL     OW19761   4.689   2.775   3.993
 5955SOL    HW119762   4.699   2.838   3.921
 5955SOL    HW219763   4.680   2.690   3.951
 5956SOL     OW19764   3.065   7.649   2.790
 5956SOL    HW119765   3.019   7.733   2.784
 5956SOL    HW219766   3.107   7.651   2.876
 5957SOL     OW19767   1.224   2.876   5.660
 5957SOL    HW119768   1.261   2.864   5.748
 5957SOL    HW219769   1.193   2.788   5.636
 5958SOL     OW19770  11.814   7.329  13.320
 5958SOL    HW119771  11.859   7.396  13.269
 5958SOL    HW219772  11.884   7.284  13.368
 5959SOL     OW19773  13.007   3.069  10.240
 5959SOL    HW119774  13.057   3.149  10.225
 5959SOL    HW219775  13.072   3.004  10.265
 5960SOL     OW19776   8.544   3.692   7.729
 5960SOL    HW119777   8.624   3.703   7.677
 5960SOL    HW219778   8.508   3.780   7.737
 5961SOL     OW19779   4.088  12.400   4.707
 5961SOL    HW119780   4.155  12.405   4.639
 5961SOL    HW219781   4.075  12.306   4.721
 5962SOL     OW19782   9.890   9.768  10.745
 5962SOL    HW119783   9.848   9.687  10.716
 5962SOL    HW219784   9.983   9.754  10.727
 5963SOL     OW19785   8.308   2.227   2.704
 5963SOL    HW119786   8.254   2.301   2.676
 5963SOL    HW219787   8.386   2.268   2.742
 5964SOL     OW19788  14.378   0.899   7.800
 5964SOL    HW119789  14.425   0.862   7.726
 5964SOL    HW219790  14.427   0.979   7.822
 5965SOL     OW19791   7.691   7.848  11.038
 5965SOL    HW119792   7.664   7.851  10.947
 5965SOL    HW219793   7.659   7.763  11.070
 5966SOL     OW19794   3.481   4.246  11.010
 5966SOL    HW119795   3.429   4.326  11.002
 5966SOL    HW219796   3.448   4.203  11.088
 5967SOL     OW19797   5.356   2.879  10.681
 5967SOL    HW119798   5.373   2.824  10.605
 5967SOL    HW219799   5.358   2.820  10.756
 5968SOL     OW19800  10.965   7.662  13.839
 5968SOL    HW119801  10.874   7.646  13.814
 5968SOL    HW219802  10.960   7.705  13.924
 5969SOL     OW19803   4.008  14.680   0.913
 5969SOL    HW119804   3.927  14.633   0.933
 5969SOL    HW219805   4.033  14.650   0.826
 5970SOL     OW19806  11.388  10.508   2.715
 5970SOL    HW119807  11.326  10.455   2.765
 5970SOL    HW219808  11.367  10.490   2.623
 5971SOL     OW19809  10.718   6.984   9.337
 5971SOL    HW119810  10.751   7.073   9.339
 5971SOL    HW219811  10.685   6.968   9.426
 5972SOL     OW19812   3.021  11.151  13.153
 5972SOL    HW119813   3.079  11.227  13.147
 5972SOL    HW219814   2.978  11.161  13.239
 5973SOL     OW19815  13.778   5.160   8.898
 5973SOL    HW119816  13.863   5.119   8.887
 5973SOL    HW219817  13.768   5.216   8.821
 5974SOL     OW19818   1.389   7.892   6.616
 5974SOL    HW119819   1.358   7.802   6.601
 5974SOL    HW219820   1.332   7.946   6.562
 5975SOL     OW19821   8.833   7.181   1.203
 5975SOL    HW119822   8.759   7.122   1.186
 5975SOL    HW219823   8.806   7.265   1.166
 5976SOL     OW19824   4.043   2.941   5.577
 5976SOL    HW119825   4.008   2.920   5.490
 5976SOL    HW219826   4.102   2.868   5.597
 5977SOL     OW19827   1.296  13.104   1.978
 5977SOL    HW119828   1.371  13.126   1.922
 5977SOL    HW219829   1.287  13.180   2.036
 5978SOL     OW19830   0.910   6.070  12.632
 5978SOL    HW119831   0.922   6.109  12.719
 5978SOL    HW219832   0.878   6.143  12.578
 5979SOL     OW19833   9.804   2.784   2.248
 5979SOL    HW119834   9.738   2.727   2.286
 5979SOL    HW219835   9.757   2.864   2.227
 5980SOL     OW19836  11.032   9.151  12.661
 5980SOL    HW119837  10.969   9.209  12.703
 5980SOL    HW219838  10.987   9.119  12.582
 5981SOL     OW19839   5.185  13.043   5.405
 5981SOL    HW119840   5.182  13.080   5.317
 5981SOL    HW219841   5.129  12.966   5.401
 5982SOL     OW19842   0.874  14.211   1.163
 5982SOL    HW119843   0.841  14.145   1.102
 5982SOL    HW219844   0.829  14.192   1.245
 5983SOL     OW19845   0.985  14.144   8.911
 5983SOL    HW119846   0.967  14.233   8.940
 5983SOL    HW219847   1.058  14.115   8.966
 5984SOL     OW19848  11.154  10.123  14.754
 5984SOL    HW119849  11.156  10.126  14.659
 5984SOL    HW219850  11.234  10.168  14.782
 5985SOL     OW19851   5.724   1.494   5.220
 5985SOL    HW119852   5.716   1.576   5.172
 5985SOL    HW219853   5.650   1.494   5.281
 5986SOL     OW19854  14.377   2.608  11.359
 5986SOL    HW119855  14.324   2.640  11.432
 5986SOL    HW219856  14.406   2.521  11.387
 5987SOL     OW19857   1.255  10.468  12.362
 5987SOL    HW119858   1.248  10.454  12.268
 5987SOL    HW219859   1.246  10.381  12.400
 5988SOL     OW19860   2.900   3.277   1.808
 5988SOL    HW119861   2.970   3.311   1.864
 5988SOL    HW219862   2.848   3.220   1.865
 5989SOL     OW19863   1.606   0.818   9.385
 5989SOL    HW119864   1.541   0.861   9.440
 5989SOL    HW219865   1.561   0.805   9.301
 5990SOL     OW19866  10.131   1.908  11.095
 5990SOL    HW119867  10.152   1.975  11.160
 5990SOL    HW219868  10.052   1.940  11.052
 5991SOL     OW19869  14.244  14.023   0.855
 5991SOL    HW119870  14.199  14.040   0.772
 5991SOL    HW219871  14.240  13.927   0.864
 5992SOL     OW19872   9.474   4.786   5.061
 5992SOL    HW119873   9.511   4.701   5.083
 5992SOL    HW219874   9.550   4.844   5.053
 5993SOL     OW19875   9.972  10.937   4.467
 5993SOL    HW119876   9.943  11.016   4.422
 5993SOL    HW219877  10.061  10.922   4.436
 5994SOL     OW19878  14.221  10.231   6.878
 5994SOL    HW119879  14.170  10.281   6.942
 5994SOL    HW219880  14.241  10.293   6.809
 5995SOL     OW19881  10.556   3.336  14.523
 5995SOL    HW119882  10.514   3.315  14.439
 5995SOL    HW219883  10.643   3.297  14.516
 5996SOL     OW19884  14.625   1.350  11.165
 5996SOL    HW119885  14.674   1.302  11.233
 5996SOL    HW219886  14.693   1.388  11.109
 5997SOL     OW19887   5.322  14.113  11.276
 5997SOL    HW119888   5.333  14.197  11.320
 5997SOL    HW219889   5.384  14.055  11.320
 5998SOL     OW19890   4.505   8.679   8.025
 5998SOL    HW119891   4.546   8.718   7.947
 5998SOL    HW219892   4.480   8.591   7.997
 5999SOL     OW19893   9.372  14.315   5.793
 5999SOL    HW119894   9.302  14.376   5.818
 5999SOL    HW219895   9.325  14.235   5.768
 6000SOL     OW19896  12.012   3.648   2.296
 6000SOL    HW119897  11.959   3.727   2.308
 6000SOL    HW219898  12.020   3.639   2.201
 6001SOL     OW19899   8.496   8.435  14.150
 6001SOL    HW119900   8.563   8.486  14.105
 6001SOL    HW219901   8.426   8.497  14.169
 6002SOL     OW19902   9.853  14.083   6.685
 6002SOL    HW119903   9.910  14.160   6.689
 6002SOL    HW219904   9.785  14.107   6.622
 6003SOL     OW19905  10.029  11.838   7.714
 6003SOL    HW119906  10.082  11.761   7.734
 6003SOL    HW219907   9.948  11.803   7.677
 6004SOL     OW19908   4.198   5.650   5.696
 6004SOL    HW119909   4.189   5.745   5.692
 6004SOL    HW219910   4.195   5.622   5.604
 6005SOL     OW19911   5.822   0.461  14.000
 6005SOL    HW119912   5.773   0.543  13.994
 6005SOL    HW219913   5.829   0.444  14.094
 6006SOL     OW19914   5.192  14.002   2.172
 6006SOL    HW119915   5.219  13.948   2.246
 6006SOL    HW219916   5.259  13.987   2.106
 6007SOL     OW19917   4.626   4.993   4.062
 6007SOL    HW119918   4.717   4.967   4.046
 6007SOL    HW219919   4.574   4.919   4.028
 6008SOL     OW19920   5.994   3.322   1.763
 6008SOL    HW119921   6.065   3.315   1.827
 6008SOL    HW219922   5.963   3.232   1.751
 6009SOL     OW19923  13.379   8.164  14.154
 6009SOL    HW119924  13.452   8.216  14.121
 6009SOL    HW219925  13.321   8.228  14.196
 6010SOL     OW19926   9.025   9.838  12.174
 6010SOL    HW119927   9.028   9.862  12.081
 6010SOL    HW219928   8.948   9.781  12.181
 6011SOL     OW19929  11.051   8.298   4.503
 6011SOL    HW119930  11.091   8.303   4.416
 6011SOL    HW219931  10.993   8.374   4.507
 6012SOL     OW19932   6.050  13.196   9.145
 6012SOL    HW119933   5.985  13.245   9.196
 6012SOL    HW219934   6.134  13.234   9.172
 6013SOL     OW19935   6.857   9.581  10.992
 6013SOL    HW119936   6.928   9.545  11.046
 6013SOL    HW219937   6.889   9.667  10.964
 6014SOL     OW19938   0.497   6.406   8.136
 6014SOL    HW119939   0.470   6.495   8.160
 6014SOL    HW219940   0.429   6.377   8.075
 6015SOL     OW19941  13.737   8.235   5.808
 6015SOL    HW119942  13.766   8.282   5.887
 6015SOL    HW219943  13.774   8.147   5.818
 6016SOL     OW19944   3.462   2.097   9.615
 6016SOL    HW119945   3.408   2.082   9.538
 6016SOL    HW219946   3.418   2.050   9.686
 6017SOL     OW19947   4.026   0.373   1.104
 6017SOL    HW119948   4.064   0.349   1.188
 6017SOL    HW219949   4.074   0.452   1.077
 6018SOL     OW19950   0.097   7.365   7.675
 6018SOL    HW119951   0.053   7.418   7.742
 6018SOL    HW219952   0.026   7.313   7.636
 6019SOL     OW19953   5.924   7.184   4.699
 6019SOL    HW119954   5.971   7.231   4.629
 6019SOL    HW219955   5.840   7.229   4.704
 6020SOL     OW19956  14.348   6.573   1.820
 6020SOL    HW119957  14.423   6.627   1.797
 6020SOL    HW219958  14.368   6.539   1.908
 6021SOL     OW19959  10.681   2.477   1.283
 6021SOL    HW119960  10.688   2.424   1.362
 6021SOL    HW219961  10.741   2.436   1.221
 6022SOL     OW19962   9.343  13.061  14.350
 6022SOL    HW119963   9.388  13.099  14.425
 6022SOL    HW219964   9.363  13.121  14.278
 6023SOL     OW19965   8.982   1.583  14.365
 6023SOL    HW119966   9.069   1.570  14.402
 6023SOL    HW219967   8.932   1.626  14.435
 6024SOL     OW19968   7.271  12.028   9.819
 6024SOL    HW119969   7.298  11.990   9.902
 6024SOL    HW219970   7.351  12.029   9.766
 6025SOL     OW19971   7.391   3.490  13.411
 6025SOL    HW119972   7.440   3.567  13.383
 6025SOL    HW219973   7.432   3.464  13.494
 6026SOL     OW19974   4.862  12.379  12.691
 6026SOL    HW119975   4.769  12.370  12.712
 6026SOL    HW219976   4.871  12.468  12.659
 6027SOL     OW19977   6.020   0.943   4.774
 6027SOL    HW119978   6.032   0.968   4.682
 6027SOL    HW219979   6.039   1.023   4.823
 6028SOL     OW19980  14.611   0.738  13.332
 6028SOL    HW119981  14.671   0.700  13.268
 6028SOL    HW219982  14.525   0.734  13.291
 6029SOL     OW19983  12.730  13.617   5.163
 6029SOL    HW119984  12.792  13.612   5.091
 6029SOL    HW219985  12.645  13.594   5.123
 6030SOL     OW19986   2.407   3.151   0.966
 6030SOL    HW119987   2.429   3.209   0.894
 6030SOL    HW219988   2.463   3.179   1.039
 6031SOL     OW19989   5.713   9.809   7.041
 6031SOL    HW119990   5.796   9.773   7.071
 6031SOL    HW219991   5.679   9.743   6.980
 6032SOL     OW19992   2.642   2.793  11.932
 6032SOL    HW119993   2.663   2.723  11.871
 6032SOL    HW219994   2.568   2.758  11.983
 6033SOL     OW19995   5.414   2.161   0.503
 6033SOL    HW119996   5.471   2.216   0.449
 6033SOL    HW219997   5.362   2.223   0.555
 6034SOL     OW19998   5.928   8.160   9.813
 6034SOL    HW119999   5.928   8.079   9.864
 6034SOL    HW220000   5.881   8.138   9.732
 6035SOL     OW20001   3.205   2.253   5.111
 6035SOL    HW120002   3.163   2.268   5.026
 6035SOL    HW220003   3.134   2.225   5.168
 6036SOL     OW20004   8.043   6.161  13.194
 6036SOL    HW120005   8.065   6.177  13.285
 6036SOL    HW220006   7.950   6.182  13.187
 6037SOL     OW20007   2.432  13.912   4.573
 6037SOL    HW120008   2.476  13.975   4.517
 6037SOL    HW220009   2.442  13.828   4.529
 6038SOL     OW20010   1.473   6.103  12.466
 6038SOL    HW120011   1.520   6.186  12.460
 6038SOL    HW220012   1.382   6.128  12.487
 6039SOL     OW20013   3.745   7.766  13.373
 6039SOL    HW120014   3.681   7.789  13.440
 6039SOL    HW220015   3.727   7.826  13.300
 6040SOL     OW20016  14.079   0.479   0.671
 6040SOL    HW120017  14.097   0.570   0.650
 6040SOL    HW220018  14.052   0.480   0.763
 6041SOL     OW20019   4.554   3.050   2.395
 6041SOL    HW120020   4.459   3.060   2.391
 6041SOL    HW220021   4.568   2.955   2.398
 6042SOL     OW20022  14.281  13.816   9.320
 6042SOL    HW120023  14.373  13.793   9.304
 6042SOL    HW220024  14.263  13.783   9.408
 6043SOL     OW20025   9.285  13.849   9.722
 6043SOL    HW120026   9.280  13.850   9.626
 6043SOL    HW220027   9.278  13.756   9.745
 6044SOL     OW20028  10.055   2.258   4.143
 6044SOL    HW120029  10.109   2.201   4.088
 6044SOL    HW220030  10.114   2.290   4.211
 6045SOL     OW20031   2.477   1.843   3.675
 6045SOL    HW120032   2.513   1.769   3.723
 6045SOL    HW220033   2.436   1.804   3.598
 6046SOL     OW20034   1.045   2.692   0.585
 6046SOL    HW120035   0.975   2.705   0.521
 6046SOL    HW220036   1.007   2.633   0.650
 6047SOL     OW20037   3.904   3.861   7.789
 6047SOL    HW120038   3.995   3.833   7.789
 6047SOL    HW220039   3.903   3.940   7.844
 6048SOL     OW20040   9.161   2.349   3.135
 6048SOL    HW120041   9.249   2.328   3.104
 6048SOL    HW220042   9.103   2.306   3.072
 6049SOL     OW20043  11.193   6.179  11.315
 6049SOL    HW120044  11.250   6.157  11.388
 6049SOL    HW220045  11.164   6.269  11.334
 6050SOL     OW20046   7.882   0.654  12.750
 6050SOL    HW120047   7.834   0.581  12.711
 6050SOL    HW220048   7.944   0.681  12.682
 6051SOL     OW20049  14.130  13.237  11.081
 6051SOL    HW120050  14.159  13.296  11.012
 6051SOL    HW220051  14.203  13.235  11.143
 6052SOL     OW20052  14.800   4.652  13.304
 6052SOL    HW120053  14.841   4.717  13.247
 6052SOL    HW220054  14.846   4.660  13.388
 6053SOL     OW20055   2.236   8.968   6.175
 6053SOL    HW120056   2.216   9.056   6.208
 6053SOL    HW220057   2.287   8.983   6.096
 6054SOL     OW20058   6.036   1.724   9.153
 6054SOL    HW120059   5.974   1.797   9.166
 6054SOL    HW220060   6.115   1.766   9.120
 6055SOL     OW20061   6.558   2.750   6.389
 6055SOL    HW120062   6.531   2.820   6.329
 6055SOL    HW220063   6.586   2.796   6.468
 6056SOL     OW20064  10.744  10.739   8.964
 6056SOL    HW120065  10.703  10.667   9.012
 6056SOL    HW220066  10.827  10.703   8.933
 6057SOL     OW20067  12.048   8.087   2.886
 6057SOL    HW120068  12.134   8.129   2.895
 6057SOL    HW220069  12.006   8.134   2.815
 6058SOL     OW20070  13.208   9.455  14.392
 6058SOL    HW120071  13.303   9.454  14.393
 6058SOL    HW220072  13.184   9.539  14.431
 6059SOL     OW20073  12.729  11.526   6.590
 6059SOL    HW120074  12.756  11.462   6.655
 6059SOL    HW220075  12.688  11.596   6.640
 6060SOL     OW20076  14.572   0.608   4.828
 6060SOL    HW120077  14.555   0.692   4.788
 6060SOL    HW220078  14.628   0.628   4.903
 6061SOL     OW20079   5.887   6.820  14.237
 6061SOL    HW120080   5.979   6.805  14.257
 6061SOL    HW220081   5.845   6.735  14.252
 6062SOL     OW20082  11.701  12.151   0.259
 6062SOL    HW120083  11.729  12.060   0.271
 6062SOL    HW220084  11.762  12.186   0.194
 6063SOL     OW20085   1.099   5.048  11.587
 6063SOL    HW120086   1.134   5.002  11.663
 6063SOL    HW220087   1.174   5.095  11.550
 6064SOL     OW20088   2.150  10.745   0.136
 6064SOL    HW120089   2.175  10.745   0.229
 6064SOL    HW220090   2.145  10.838   0.113
 6065SOL     OW20091   9.890   3.475  12.906
 6065SOL    HW120092   9.983   3.467  12.884
 6065SOL    HW220093   9.844   3.435  12.832
 6066SOL     OW20094   5.951  11.021  13.884
 6066SOL    HW120095   5.876  11.021  13.945
 6066SOL    HW220096   5.969  11.113  13.867
 6067SOL     OW20097   0.361   9.739  11.664
 6067SOL    HW120098   0.288   9.717  11.607
 6067SOL    HW220099   0.370   9.834  11.657
 6068SOL     OW20100  10.917   9.594   0.087
 6068SOL    HW120101  10.890   9.516   0.136
 6068SOL    HW220102  10.869   9.588   0.004
 6069SOL     OW20103   7.198   4.291  12.127
 6069SOL    HW120104   7.171   4.200  12.118
 6069SOL    HW220105   7.263   4.291  12.197
 6070SOL     OW20106   8.888   8.304   3.534
 6070SOL    HW120107   8.940   8.368   3.486
 6070SOL    HW220108   8.839   8.356   3.598
 6071SOL     OW20109   8.419   0.663   1.295
 6071SOL    HW120110   8.405   0.679   1.201
 6071SOL    HW220111   8.345   0.610   1.322
 6072SOL     OW20112   1.870  14.386   3.783
 6072SOL    HW120113   1.924  14.324   3.832
 6072SOL    HW220114   1.930  14.427   3.721
 6073SOL     OW20115   6.150  11.796   6.655
 6073SOL    HW120116   6.156  11.722   6.716
 6073SOL    HW220117   6.164  11.757   6.569
 6074SOL     OW20118   4.802   8.778   5.810
 6074SOL    HW120119   4.775   8.869   5.823
 6074SOL    HW220120   4.855   8.757   5.886
 6075SOL     OW20121   7.558   1.902   9.543
 6075SOL    HW120122   7.529   1.823   9.497
 6075SOL    HW220123   7.653   1.896   9.543
 6076SOL     OW20124  11.008   1.489   0.929
 6076SOL    HW120125  10.927   1.448   0.959
 6076SOL    HW220126  11.047   1.526   1.008
 6077SOL     OW20127   3.724  14.868   3.695
 6077SOL    HW120128   3.711   0.045   3.765
 6077SOL    HW220129   3.638  14.861   3.654
 6078SOL     OW20130   5.991   3.010  12.064
 6078SOL    HW120131   6.067   2.958  12.040
 6078SOL    HW220132   6.015   3.052  12.146
 6079SOL     OW20133  14.221   1.489   1.012
 6079SOL    HW120134  14.206   1.416   1.072
 6079SOL    HW220135  14.175   1.563   1.051
 6080SOL     OW20136   7.425   5.420   9.638
 6080SOL    HW120137   7.413   5.502   9.687
 6080SOL    HW220138   7.416   5.351   9.703
 6081SOL     OW20139  13.474  14.424  13.024
 6081SOL    HW120140  13.434  14.343  13.054
 6081SOL    HW220141  13.467  14.421  12.929
 6082SOL     OW20142   1.678   6.852   0.870
 6082SOL    HW120143   1.598   6.847   0.921
 6082SOL    HW220144   1.650   6.884   0.784
 6083SOL     OW20145  13.095   9.308   8.639
 6083SOL    HW120146  13.037   9.234   8.656
 6083SOL    HW220147  13.056   9.353   8.564
 6084SOL     OW20148   3.090  12.272  10.691
 6084SOL    HW120149   3.041  12.191  10.678
 6084SOL    HW220150   3.174  12.244  10.728
 6085SOL     OW20151   0.737  10.322  10.133
 6085SOL    HW120152   0.659  10.305  10.081
 6085SOL    HW220153   0.811  10.304  10.075
 6086SOL     OW20154   1.918   9.906   0.113
 6086SOL    HW120155   1.843   9.909   0.172
 6086SOL    HW220156   1.906   9.980   0.053
 6087SOL     OW20157   4.326   0.554   7.008
 6087SOL    HW120158   4.284   0.520   7.087
 6087SOL    HW220159   4.417   0.567   7.033
 6088SOL     OW20160  13.425  10.071   5.260
 6088SOL    HW120161  13.417  10.114   5.345
 6088SOL    HW220162  13.362   9.999   5.264
 6089SOL     OW20163   5.710  13.138  14.361
 6089SOL    HW120164   5.798  13.177  14.367
 6089SOL    HW220165   5.651  13.213  14.370
 6090SOL     OW20166  14.806   0.540   7.965
 6090SOL    HW120167  14.741   0.475   7.988
 6090SOL    HW220168  14.864   0.496   7.903
 6091SOL     OW20169  12.289   3.132   9.061
 6091SOL    HW120170  12.260   3.063   9.121
 6091SOL    HW220171  12.217   3.141   8.999
 6092SOL     OW20172  11.265   5.146   0.183
 6092SOL    HW120173  11.321   5.127   0.108
 6092SOL    HW220174  11.326   5.152   0.257
 6093SOL     OW20175   6.986  14.596   6.800
 6093SOL    HW120176   6.966  14.689   6.810
 6093SOL    HW220177   7.048  14.593   6.727
 6094SOL     OW20178   2.472   2.567   7.038
 6094SOL    HW120179   2.381   2.591   7.051
 6094SOL    HW220180   2.495   2.518   7.117
 6095SOL     OW20181   8.994   1.008   0.864
 6095SOL    HW120182   8.979   0.939   0.799
 6095SOL    HW220183   9.063   0.974   0.921
 6096SOL     OW20184  13.676   2.994  13.937
 6096SOL    HW120185  13.654   2.941  14.013
 6096SOL    HW220186  13.625   2.957  13.865
 6097SOL     OW20187  14.850  11.153  10.655
 6097SOL    HW120188  14.779  11.180  10.598
 6097SOL    HW220189  14.873  11.065  10.625
 6098SOL     OW20190   4.869   5.826  13.815
 6098SOL    HW120191   4.777   5.798  13.818
 6098SOL    HW220192   4.874   5.899  13.876
 6099SOL     OW20193   9.613   0.066   0.686
 6099SOL    HW120194   9.552  14.881   0.676
 6099SOL    HW220195   9.699   0.024   0.693
 6100SOL     OW20196   1.660   6.080   1.458
 6100SOL    HW120197   1.566   6.062   1.468
 6100SOL    HW220198   1.701   5.993   1.461
 6101SOL     OW20199   7.252  14.847   6.333
 6101SOL    HW120200   7.187   0.028   6.320
 6101SOL    HW220201   7.232  14.811   6.419
 6102SOL     OW20202   8.399   8.604   4.827
 6102SOL    HW120203   8.489   8.603   4.793
 6102SOL    HW220204   8.352   8.542   4.772
 6103SOL     OW20205   4.309   8.466   8.362
 6103SOL    HW120206   4.280   8.554   8.385
 6103SOL    HW220207   4.404   8.468   8.372
 6104SOL     OW20208   2.693   5.728   2.133
 6104SOL    HW120209   2.692   5.741   2.038
 6104SOL    HW220210   2.775   5.682   2.150
 6105SOL     OW20211   2.614   6.028   4.991
 6105SOL    HW120212   2.696   6.001   4.948
 6105SOL    HW220213   2.628   6.120   5.013
 6106SOL     OW20214   0.718   2.233   5.765
 6106SOL    HW120215   0.803   2.275   5.778
 6106SOL    HW220216   0.696   2.251   5.673
 6107SOL     OW20217  12.390  10.518  12.118
 6107SOL    HW120218  12.437  10.601  12.121
 6107SOL    HW220219  12.428  10.471  12.043
 6108SOL     OW20220   4.076  13.813  10.941
 6108SOL    HW120221   4.094  13.895  10.987
 6108SOL    HW220222   4.016  13.838  10.871
 6109SOL     OW20223   9.981   3.954  13.341
 6109SOL    HW120224  10.041   3.995  13.279
 6109SOL    HW220225  10.034   3.888  13.385
 6110SOL     OW20226   7.484  12.169   7.347
 6110SOL    HW120227   7.459  12.134   7.261
 6110SOL    HW220228   7.542  12.102   7.384
 6111SOL     OW20229   1.493   9.608  14.525
 6111SOL    HW120230   1.449   9.589  14.608
 6111SOL    HW220231   1.552   9.681  14.545
 6112SOL     OW20232   2.271   3.692  12.620
 6112SOL    HW120233   2.342   3.751  12.644
 6112SOL    HW220234   2.221   3.680  12.700
 6113SOL     OW20235   3.960   3.057   1.229
 6113SOL    HW120236   3.999   3.043   1.315
 6113SOL    HW220237   3.882   3.001   1.228
 6114SOL     OW20238  11.932  10.891  13.571
 6114SOL    HW120239  12.004  10.935  13.525
 6114SOL    HW220240  11.865  10.958  13.581
 6115SOL     OW20241  12.944   8.831   6.970
 6115SOL    HW120242  12.874   8.893   6.989
 6115SOL    HW220243  13.014   8.854   7.031
 6116SOL     OW20244   9.215   6.929   3.312
 6116SOL    HW120245   9.269   6.922   3.391
 6116SOL    HW220246   9.269   6.980   3.251
 6117SOL     OW20247   7.058  14.029   4.253
 6117SOL    HW120248   7.016  14.012   4.337
 6117SOL    HW220249   7.053  13.946   4.206
 6118SOL     OW20250   3.096  10.830   1.847
 6118SOL    HW120251   3.188  10.854   1.834
 6118SOL    HW220252   3.098  10.736   1.866
 6119SOL     OW20253  14.031   1.137   2.583
 6119SOL    HW120254  13.964   1.197   2.552
 6119SOL    HW220255  14.061   1.174   2.666
 6120SOL     OW20256  12.747   4.606   7.478
 6120SOL    HW120257  12.665   4.607   7.527
 6120SOL    HW220258  12.815   4.624   7.544
 6121SOL     OW20259   0.179  10.527  10.621
 6121SOL    HW120260   0.241  10.600  10.622
 6121SOL    HW220261   0.228  10.455  10.582
 6122SOL     OW20262   9.978  13.646   9.821
 6122SOL    HW120263   9.996  13.594   9.899
 6122SOL    HW220264  10.043  13.716   9.823
 6123SOL     OW20265   3.707   2.035  11.445
 6123SOL    HW120266   3.731   2.072  11.360
 6123SOL    HW220267   3.695   1.942  11.427
 6124SOL     OW20268  11.677  11.690  12.629
 6124SOL    HW120269  11.701  11.737  12.709
 6124SOL    HW220270  11.588  11.719  12.610
 6125SOL     OW20271   1.752  13.041   9.440
 6125SOL    HW120272   1.755  13.094   9.520
 6125SOL    HW220273   1.675  13.072   9.393
 6126SOL     OW20274   5.495   0.663  10.258
 6126SOL    HW120275   5.420   0.720  10.244
 6126SOL    HW220276   5.467   0.578  10.224
 6127SOL     OW20277   1.134   0.716   5.000
 6127SOL    HW120278   1.101   0.689   5.085
 6127SOL    HW220279   1.168   0.636   4.960
 6128SOL     OW20280  14.064  10.081   4.075
 6128SOL    HW120281  14.003  10.103   4.145
 6128SOL    HW220282  14.138  10.139   4.088
 6129SOL     OW20283   5.335  12.117  13.827
 6129SOL    HW120284   5.372  12.171  13.897
 6129SOL    HW220285   5.411  12.083  13.780
 6130SOL     OW20286   0.434   2.002   1.942
 6130SOL    HW120287   0.408   2.058   2.015
 6130SOL    HW220288   0.370   1.931   1.942
 6131SOL     OW20289   2.521   0.634   9.200
 6131SOL    HW120290   2.579   0.610   9.128
 6131SOL    HW220291   2.473   0.554   9.220
 6132SOL     OW20292  13.657   3.293   4.979
 6132SOL    HW120293  13.694   3.375   4.945
 6132SOL    HW220294  13.663   3.232   4.906
 6133SOL     OW20295  10.927   2.574   3.036
 6133SOL    HW120296  10.926   2.591   2.942
 6133SOL    HW220297  10.865   2.502   3.048
 6134SOL     OW20298   2.035   4.322  12.684
 6134SOL    HW120299   2.019   4.292  12.773
 6134SOL    HW220300   2.130   4.321  12.675
 6135SOL     OW20301   2.092   2.176   8.616
 6135SOL    HW120302   2.152   2.191   8.542
 6135SOL    HW220303   2.102   2.083   8.636
 6136SOL     OW20304   9.869   7.014  11.905
 6136SOL    HW120305   9.867   7.032  11.811
 6136SOL    HW220306   9.846   7.097  11.947
 6137SOL     OW20307   9.862  13.245   2.876
 6137SOL    HW120308   9.776  13.232   2.915
 6137SOL    HW220309   9.921  13.191   2.929
 6138SOL     OW20310   1.231   8.123   8.778
 6138SOL    HW120311   1.220   8.137   8.872
 6138SOL    HW220312   1.323   8.098   8.769
 6139SOL     OW20313   4.499  14.832   8.256
 6139SOL    HW120314   4.580  14.783   8.249
 6139SOL    HW220315   4.524   0.036   8.243
 6140SOL     OW20316  11.750  10.484   8.821
 6140SOL    HW120317  11.728  10.543   8.749
 6140SOL    HW220318  11.758  10.541   8.897
 6141SOL     OW20319   9.743  14.861   8.879
 6141SOL    HW120320   9.652  14.840   8.900
 6141SOL    HW220321   9.744  14.868   8.784
 6142SOL     OW20322  13.422  14.404  14.731
 6142SOL    HW120323  13.374  14.406  14.814
 6142SOL    HW220324  13.417  14.494  14.698
 6143SOL     OW20325   7.125   8.447   2.705
 6143SOL    HW120326   7.124   8.441   2.800
 6143SOL    HW220327   7.200   8.502   2.685
 6144SOL     OW20328   6.153   8.264   2.823
 6144SOL    HW120329   6.226   8.282   2.764
 6144SOL    HW220330   6.180   8.302   2.906
 6145SOL     OW20331   9.797  10.447   0.190
 6145SOL    HW120332   9.823  10.425   0.100
 6145SOL    HW220333   9.736  10.520   0.181
 6146SOL     OW20334   4.732   6.900   0.427
 6146SOL    HW120335   4.732   6.946   0.511
 6146SOL    HW220336   4.701   6.812   0.448
 6147SOL     OW20337   9.511   7.683   4.139
 6147SOL    HW120338   9.546   7.772   4.147
 6147SOL    HW220339   9.476   7.679   4.050
 6148SOL     OW20340   0.419   9.771  10.950
 6148SOL    HW120341   0.390   9.687  10.912
 6148SOL    HW220342   0.375   9.837  10.896
 6149SOL     OW20343   5.618   5.880   4.597
 6149SOL    HW120344   5.528   5.882   4.564
 6149SOL    HW220345   5.656   5.801   4.558
 6150SOL     OW20346   8.307   4.346   9.146
 6150SOL    HW120347   8.315   4.392   9.063
 6150SOL    HW220348   8.396   4.344   9.182
 6151SOL     OW20349   9.125  14.663  10.518
 6151SOL    HW120350   9.049  14.605  10.513
 6151SOL    HW220351   9.102  14.737  10.462
 6152SOL     OW20352   1.005  11.048   2.861
 6152SOL    HW120353   0.911  11.047   2.843
 6152SOL    HW220354   1.025  11.140   2.876
 6153SOL     OW20355   2.427  14.462   8.292
 6153SOL    HW120356   2.411  14.552   8.266
 6153SOL    HW220357   2.514  14.463   8.332
 6154SOL     OW20358  14.681   0.172   0.624
 6154SOL    HW120359  14.661   0.265   0.618
 6154SOL    HW220360  14.777   0.169   0.627
 6155SOL     OW20361   4.864   1.581   0.563
 6155SOL    HW120362   4.960   1.579   0.563
 6155SOL    HW220363   4.839   1.505   0.616
 6156SOL     OW20364   7.055  12.007  14.020
 6156SOL    HW120365   7.127  12.052  13.977
 6156SOL    HW220366   7.093  11.972  14.101
 6157SOL     OW20367   4.734   8.132  10.954
 6157SOL    HW120368   4.744   8.043  10.921
 6157SOL    HW220369   4.641   8.141  10.973
 6158SOL     OW20370  13.199   9.447   7.478
 6158SOL    HW120371  13.175   9.454   7.386
 6158SOL    HW220372  13.188   9.535   7.514
 6159SOL     OW20373  13.722   5.664   6.075
 6159SOL    HW120374  13.799   5.691   6.024
 6159SOL    HW220375  13.663   5.739   6.072
 6160SOL     OW20376   0.088  10.186  11.437
 6160SOL    HW120377   0.146  10.132  11.383
 6160SOL    HW220378   0.064  10.259  11.380
 6161SOL     OW20379   8.620  10.114   4.095
 6161SOL    HW120380   8.671  10.054   4.042
 6161SOL    HW220381   8.629  10.081   4.185
 6162SOL     OW20382  14.728   3.805   9.713
 6162SOL    HW120383  14.784   3.730   9.692
 6162SOL    HW220384  14.707   3.794   9.805
 6163SOL     OW20385   9.733   9.087   2.969
 6163SOL    HW120386   9.826   9.066   2.977
 6163SOL    HW220387   9.694   9.007   2.935
 6164SOL     OW20388   1.145   8.890   2.892
 6164SOL    HW120389   1.092   8.814   2.917
 6164SOL    HW220390   1.104   8.924   2.813
 6165SOL     OW20391  13.491   9.087   5.170
 6165SOL    HW120392  13.415   9.129   5.210
 6165SOL    HW220393  13.507   9.010   5.225
 6166SOL     OW20394  11.913   4.985  14.368
 6166SOL    HW120395  11.821   4.990  14.391
 6166SOL    HW220396  11.931   5.065  14.319
 6167SOL     OW20397   8.273  11.558   6.185
 6167SOL    HW120398   8.210  11.491   6.159
 6167SOL    HW220399   8.257  11.631   6.126
 6168SOL     OW20400   5.755  11.154  13.176
 6168SOL    HW120401   5.814  11.079  13.166
 6168SOL    HW220402   5.696  11.148  13.101
 6169SOL     OW20403  14.589   3.972   2.722
 6169SOL    HW120404  14.655   3.951   2.656
 6169SOL    HW220405  14.630   4.042   2.774
 6170SOL     OW20406   1.508   0.355   3.632
 6170SOL    HW120407   1.471   0.439   3.661
 6170SOL    HW220408   1.448   0.325   3.564
 6171SOL     OW20409   7.662   2.812   5.048
 6171SOL    HW120410   7.716   2.750   4.999
 6171SOL    HW220411   7.572   2.784   5.029
 6172SOL     OW20412   9.855   3.049   3.464
 6172SOL    HW120413   9.904   2.967   3.462
 6172SOL    HW220414   9.795   3.039   3.538
 6173SOL     OW20415   7.422   2.218  10.662
 6173SOL    HW120416   7.446   2.310  10.665
 6173SOL    HW220417   7.471   2.177  10.733
 6174SOL     OW20418   5.928  13.522  11.377
 6174SOL    HW120419   5.910  13.496  11.287
 6174SOL    HW220420   5.990  13.594  11.370
 6175SOL     OW20421   7.807   3.974  13.893
 6175SOL    HW120422   7.755   3.944  13.968
 6175SOL    HW220423   7.743   3.983  13.822
 6176SOL     OW20424  14.212  12.087  10.095
 6176SOL    HW120425  14.133  12.035  10.105
 6176SOL    HW220426  14.202  12.129  10.009
 6177SOL     OW20427  14.446  11.709  11.924
 6177SOL    HW120428  14.351  11.722  11.920
 6177SOL    HW220429  14.477  11.731  11.836
 6178SOL     OW20430   5.008   1.426   6.162
 6178SOL    HW120431   5.040   1.367   6.093
 6178SOL    HW220432   4.913   1.430   6.147
 6179SOL     OW20433   0.373   2.328   7.691
 6179SOL    HW120434   0.293   2.302   7.735
 6179SOL    HW220435   0.443   2.304   7.752
 6180SOL     OW20436   2.088   9.351   3.999
 6180SOL    HW120437   2.094   9.395   3.915
 6180SOL    HW220438   2.055   9.263   3.979
 6181SOL     OW20439  14.074   1.300   6.940
 6181SOL    HW120440  14.138   1.285   7.009
 6181SOL    HW220441  13.996   1.253   6.969
 6182SOL     OW20442   4.132   9.185  11.228
 6182SOL    HW120443   4.049   9.224  11.254
 6182SOL    HW220444   4.161   9.239  11.154
 6183SOL     OW20445  11.321  13.328  10.508
 6183SOL    HW120446  11.358  13.253  10.556
 6183SOL    HW220447  11.299  13.391  10.577
 6184SOL     OW20448   4.937   7.411  11.978
 6184SOL    HW120449   5.011   7.352  11.984
 6184SOL    HW220450   4.861   7.358  12.004
 6185SOL     OW20451   0.965   5.475  10.680
 6185SOL    HW120452   0.993   5.567  10.681
 6185SOL    HW220453   0.881   5.476  10.634
 6186SOL     OW20454   9.573  11.509   7.691
 6186SOL    HW120455   9.545  11.451   7.762
 6186SOL    HW220456   9.492  11.541   7.652
 6187SOL     OW20457  11.570  11.286   3.699
 6187SOL    HW120458  11.618  11.366   3.680
 6187SOL    HW220459  11.594  11.264   3.789
 6188SOL     OW20460  11.864  10.517   0.129
 6188SOL    HW120461  11.899  10.592   0.081
 6188SOL    HW220462  11.806  10.555   0.195
 6189SOL     OW20463   6.527   7.023   9.421
 6189SOL    HW120464   6.612   7.054   9.391
 6189SOL    HW220465   6.476   7.102   9.438
 6190SOL     OW20466  10.507   7.747  11.260
 6190SOL    HW120467  10.460   7.685  11.205
 6190SOL    HW220468  10.598   7.717  11.257
 6191SOL     OW20469  14.396   8.001   4.385
 6191SOL    HW120470  14.424   7.983   4.295
 6191SOL    HW220471  14.311   8.044   4.375
 6192SOL     OW20472   4.496   3.638   4.781
 6192SOL    HW120473   4.540   3.636   4.866
 6192SOL    HW220474   4.460   3.550   4.771
 6193SOL     OW20475   5.693   0.274   2.918
 6193SOL    HW120476   5.670   0.280   2.825
 6193SOL    HW220477   5.619   0.315   2.963
 6194SOL     OW20478   3.631   3.387   5.916
 6194SOL    HW120479   3.593   3.300   5.930
 6194SOL    HW220480   3.564   3.447   5.948
 6195SOL     OW20481   7.509   2.610   8.348
 6195SOL    HW120482   7.529   2.519   8.327
 6195SOL    HW220483   7.445   2.636   8.281
 6196SOL     OW20484  12.849   1.213   7.394
 6196SOL    HW120485  12.905   1.211   7.316
 6196SOL    HW220486  12.760   1.214   7.359
 6197SOL     OW20487   7.375   3.408  12.000
 6197SOL    HW120488   7.421   3.335  12.042
 6197SOL    HW220489   7.326   3.450  12.070
 6198SOL     OW20490   6.109   7.264   6.763
 6198SOL    HW120491   6.042   7.304   6.819
 6198SOL    HW220492   6.184   7.323   6.770
 6199SOL     OW20493   2.503   4.893  14.365
 6199SOL    HW120494   2.517   4.827  14.432
 6199SOL    HW220495   2.424   4.939  14.393
 6200SOL     OW20496  13.947   9.773  13.291
 6200SOL    HW120497  13.926   9.838  13.359
 6200SOL    HW220498  14.018   9.813  13.241
 6201SOL     OW20499   1.615   6.354   1.393
 6201SOL    HW120500   1.643   6.364   1.302
 6201SOL    HW220501   1.624   6.260   1.410
 6202SOL     OW20502   0.483   7.681   2.754
 6202SOL    HW120503   0.447   7.597   2.784
 6202SOL    HW220504   0.566   7.689   2.801
 6203SOL     OW20505   3.421   8.076   5.061
 6203SOL    HW120506   3.456   7.989   5.040
 6203SOL    HW220507   3.489   8.118   5.113
 6204SOL     OW20508   0.221   6.080   8.711
 6204SOL    HW120509   0.240   6.015   8.778
 6204SOL    HW220510   0.296   6.076   8.652
 6205SOL     OW20511   0.362  12.419  12.883
 6205SOL    HW120512   0.346  12.324  12.885
 6205SOL    HW220513   0.403  12.438  12.967
 6206SOL     OW20514  10.531   8.374   1.176
 6206SOL    HW120515  10.461   8.319   1.142
 6206SOL    HW220516  10.487   8.438   1.232
 6207SOL     OW20517   5.108   4.932  12.390
 6207SOL    HW120518   5.166   4.981  12.332
 6207SOL    HW220519   5.027   4.983  12.393
 6208SOL     OW20520   3.179   3.804  12.522
 6208SOL    HW120521   3.139   3.891  12.514
 6208SOL    HW220522   3.268   3.816  12.489
 6209SOL     OW20523  14.274   2.023   3.647
 6209SOL    HW120524  14.369   2.023   3.661
 6209SOL    HW220525  14.243   2.101   3.694
 6210SOL     OW20526   1.533   7.321   0.921
 6210SOL    HW120527   1.627   7.308   0.916
 6210SOL    HW220528   1.522   7.408   0.960
 6211SOL     OW20529  11.866   5.985   9.627
 6211SOL    HW120530  11.876   5.893   9.603
 6211SOL    HW220531  11.954   6.015   9.648
 6212SOL     OW20532   4.614  10.780   1.161
 6212SOL    HW120533   4.634  10.806   1.071
 6212SOL    HW220534   4.619  10.685   1.161
 6213SOL     OW20535   4.625   8.605   9.867
 6213SOL    HW120536   4.563   8.538   9.838
 6213SOL    HW220537   4.711   8.568   9.849
 6214SOL     OW20538   1.412   9.304  14.117
 6214SOL    HW120539   1.419   9.345  14.204
 6214SOL    HW220540   1.393   9.377  14.058
 6215SOL     OW20541   4.176   7.019   6.732
 6215SOL    HW120542   4.235   7.081   6.773
 6215SOL    HW220543   4.225   6.986   6.656
 6216SOL     OW20544   5.314   9.247  14.622
 6216SOL    HW120545   5.307   9.169  14.677
 6216SOL    HW220546   5.289   9.216  14.535
 6217SOL     OW20547   5.764  13.741   7.530
 6217SOL    HW120548   5.800  13.797   7.599
 6217SOL    HW220549   5.747  13.801   7.457
 6218SOL     OW20550  12.854   7.746  14.617
 6218SOL    HW120551  12.906   7.788  14.549
 6218SOL    HW220552  12.812   7.819  14.663
 6219SOL     OW20553   0.374  11.271   0.747
 6219SOL    HW120554   0.377  11.365   0.730
 6219SOL    HW220555   0.287  11.244   0.718
 6220SOL     OW20556  13.010   1.588   5.191
 6220SOL    HW120557  12.935   1.561   5.244
 6220SOL    HW220558  13.058   1.508   5.174
 6221SOL     OW20559  10.143   2.225   4.680
 6221SOL    HW120560  10.237   2.222   4.699
 6221SOL    HW220561  10.101   2.214   4.765
 6222SOL     OW20562   9.244   1.580  11.095
 6222SOL    HW120563   9.152   1.600  11.079
 6222SOL    HW220564   9.275   1.650  11.152
 6223SOL     OW20565   8.481   7.604   4.980
 6223SOL    HW120566   8.534   7.585   4.903
 6223SOL    HW220567   8.545   7.611   5.051
 6224SOL     OW20568   6.332  11.363   5.139
 6224SOL    HW120569   6.419  11.372   5.101
 6224SOL    HW220570   6.347  11.329   5.227
 6225SOL     OW20571  11.032  10.854   6.315
 6225SOL    HW120572  11.046  10.879   6.224
 6225SOL    HW220573  11.120  10.849   6.353
 6226SOL     OW20574  11.590  13.259  12.215
 6226SOL    HW120575  11.519  13.205  12.180
 6226SOL    HW220576  11.621  13.310  12.141
 6227SOL     OW20577   6.849   9.169   8.310
 6227SOL    HW120578   6.914   9.222   8.355
 6227SOL    HW220579   6.888   9.082   8.305
 6228SOL     OW20580   3.791   8.736   5.480
 6228SOL    HW120581   3.838   8.817   5.501
 6228SOL    HW220582   3.755   8.751   5.393
 6229SOL     OW20583   4.688   7.381   8.407
 6229SOL    HW120584   4.606   7.343   8.376
 6229SOL    HW220585   4.736   7.307   8.445
 6230SOL     OW20586   0.368   4.250   6.866
 6230SOL    HW120587   0.297   4.247   6.802
 6230SOL    HW220588   0.323   4.239   6.951
 6231SOL     OW20589   5.643   3.393   7.324
 6231SOL    HW120590   5.701   3.346   7.384
 6231SOL    HW220591   5.700   3.458   7.283
 6232SOL     OW20592  10.200  13.939  13.103
 6232SOL    HW120593  10.237  13.943  13.191
 6232SOL    HW220594  10.106  13.929  13.116
 6233SOL     OW20595  11.003   5.911  14.513
 6233SOL    HW120596  11.048   5.893  14.430
 6233SOL    HW220597  11.047   5.855  14.577
 6234SOL     OW20598   4.379   8.996   5.690
 6234SOL    HW120599   4.348   9.075   5.645
 6234SOL    HW220600   4.384   9.021   5.782
 6235SOL     OW20601  12.129   7.193   4.529
 6235SOL    HW120602  12.068   7.121   4.540
 6235SOL    HW220603  12.108   7.230   4.443
 6236SOL     OW20604  11.606   7.671   7.520
 6236SOL    HW120605  11.555   7.700   7.596
 6236SOL    HW220606  11.651   7.749   7.489
 6237SOL     OW20607   0.737   4.808  10.876
 6237SOL    HW120608   0.672   4.875  10.855
 6237SOL    HW220609   0.696   4.756  10.946
 6238SOL     OW20610   7.384  10.547   7.680
 6238SOL    HW120611   7.320  10.597   7.730
 6238SOL    HW220612   7.395  10.597   7.599
 6239SOL     OW20613   9.330   5.946   2.664
 6239SOL    HW120614   9.247   5.951   2.712
 6239SOL    HW220615   9.356   5.854   2.670
 6240SOL     OW20616  14.523   7.778   6.235
 6240SOL    HW120617  14.446   7.826   6.265
 6240SOL    HW220618  14.590   7.845   6.222
 6241SOL     OW20619   2.381   8.771   6.264
 6241SOL    HW120620   2.441   8.763   6.189
 6241SOL    HW220621   2.319   8.839   6.238
 6242SOL     OW20622   0.623  14.630   3.821
 6242SOL    HW120623   0.686  14.558   3.811
 6242SOL    HW220624   0.573  14.607   3.899
 6243SOL     OW20625   9.780   6.218   4.669
 6243SOL    HW120626   9.728   6.297   4.683
 6243SOL    HW220627   9.871   6.249   4.666
 6244SOL     OW20628  12.006  11.438   8.125
 6244SOL    HW120629  11.946  11.405   8.058
 6244SOL    HW220630  12.046  11.359   8.162
 6245SOL     OW20631   6.923   4.077   2.917
 6245SOL    HW120632   6.881   4.000   2.956
 6245SOL    HW220633   6.941   4.135   2.990
 6246SOL     OW20634   9.330   8.312   4.612
 6246SOL    HW120635   9.402   8.329   4.672
 6246SOL    HW220636   9.256   8.361   4.649
 6247SOL     OW20637   1.997   4.205   4.671
 6247SOL    HW120638   2.043   4.287   4.653
 6247SOL    HW220639   1.923   4.204   4.610
 6248SOL     OW20640   3.542   8.546   1.023
 6248SOL    HW120641   3.566   8.603   1.096
 6248SOL    HW220642   3.530   8.460   1.063
 6249SOL     OW20643   9.170   9.403   2.548
 6249SOL    HW120644   9.224   9.478   2.572
 6249SOL    HW220645   9.189   9.389   2.455
 6250SOL     OW20646   8.467   4.665   7.895
 6250SOL    HW120647   8.521   4.592   7.865
 6250SOL    HW220648   8.468   4.657   7.991
 6251SOL     OW20649   4.542  14.382   8.843
 6251SOL    HW120650   4.550  14.363   8.750
 6251SOL    HW220651   4.449  14.370   8.862
 6252SOL     OW20652   9.078   7.109   1.098
 6252SOL    HW120653   9.061   7.165   1.022
 6252SOL    HW220654   8.998   7.117   1.151
 6253SOL     OW20655  12.838   3.216  11.408
 6253SOL    HW120656  12.758   3.233  11.359
 6253SOL    HW220657  12.897   3.176  11.344
 6254SOL     OW20658   2.500   1.245   5.262
 6254SOL    HW120659   2.430   1.266   5.324
 6254SOL    HW220660   2.514   1.151   5.272
 6255SOL     OW20661   7.431   1.906   8.940
 6255SOL    HW120662   7.412   1.879   9.030
 6255SOL    HW220663   7.384   1.989   8.930
 6256SOL     OW20664  13.517   8.142   4.242
 6256SOL    HW120665  13.478   8.083   4.306
 6256SOL    HW220666  13.609   8.115   4.238
 6257SOL     OW20667   1.652   5.344  10.862
 6257SOL    HW120668   1.564   5.342  10.826
 6257SOL    HW220669   1.646   5.295  10.944
 6258SOL     OW20670   3.056  13.832  11.270
 6258SOL    HW120671   3.047  13.868  11.358
 6258SOL    HW220672   2.969  13.798  11.250
 6259SOL     OW20673   2.065   9.012  13.459
 6259SOL    HW120674   2.002   9.071  13.499
 6259SOL    HW220675   2.131   8.997  13.526
 6260SOL     OW20676  11.140  12.256   9.631
 6260SOL    HW120677  11.179  12.265   9.544
 6260SOL    HW220678  11.061  12.204   9.617
 6261SOL     OW20679   3.020   9.439   7.262
 6261SOL    HW120680   3.081   9.382   7.215
 6261SOL    HW220681   3.075   9.486   7.324
 6262SOL     OW20682   2.811   1.197   4.439
 6262SOL    HW120683   2.722   1.223   4.464
 6262SOL    HW220684   2.799   1.143   4.361
 6263SOL     OW20685   6.404  12.382   7.358
 6263SOL    HW120686   6.310  12.383   7.340
 6263SOL    HW220687   6.435  12.302   7.314
 6264SOL     OW20688  13.583  13.322   3.077
 6264SOL    HW120689  13.542  13.285   3.155
 6264SOL    HW220690  13.566  13.257   3.008
 6265SOL     OW20691  10.726  13.084  12.802
 6265SOL    HW120692  10.632  13.073  12.795
 6265SOL    HW220693  10.758  13.002  12.839
 6266SOL     OW20694   4.962   9.596   0.449
 6266SOL    HW120695   4.922   9.546   0.378
 6266SOL    HW220696   4.972   9.532   0.520
 6267SOL     OW20697  13.435   7.276   0.747
 6267SOL    HW120698  13.372   7.254   0.679
 6267SOL    HW220699  13.429   7.371   0.755
 6268SOL     OW20700  12.198  14.621   5.276
 6268SOL    HW120701  12.157  14.689   5.222
 6268SOL    HW220702  12.217  14.664   5.359
 6269SOL     OW20703   0.048   2.864  11.837
 6269SOL    HW120704  14.851   2.831  11.807
 6269SOL    HW220705   0.025   2.926  11.906
 6270SOL     OW20706  13.266  13.133   5.511
 6270SOL    HW120707  13.301  13.221   5.494
 6270SOL    HW220708  13.343  13.080   5.532
 6271SOL     OW20709  11.811   1.207  11.528
 6271SOL    HW120710  11.744   1.257  11.481
 6271SOL    HW220711  11.766   1.174  11.606
 6272SOL     OW20712   6.449   8.364   4.540
 6272SOL    HW120713   6.499   8.376   4.459
 6272SOL    HW220714   6.466   8.444   4.590
 6273SOL     OW20715  10.063   1.683  14.360
 6273SOL    HW120716  10.033   1.671  14.450
 6273SOL    HW220717  10.155   1.709  14.368
 6274SOL     OW20718   1.116   0.330   8.346
 6274SOL    HW120719   1.207   0.358   8.338
 6274SOL    HW220720   1.109   0.252   8.290
 6275SOL     OW20721   6.426   8.492   8.760
 6275SOL    HW120722   6.511   8.536   8.771
 6275SOL    HW220723   6.410   8.450   8.844
 6276SOL     OW20724   4.403   4.945   8.605
 6276SOL    HW120725   4.362   5.020   8.563
 6276SOL    HW220726   4.496   4.953   8.582
 6277SOL     OW20727   0.181   0.802   4.914
 6277SOL    HW120728   0.193   0.893   4.941
 6277SOL    HW220729   0.242   0.790   4.842
 6278SOL     OW20730  12.079   7.292   8.423
 6278SOL    HW120731  12.139   7.227   8.385
 6278SOL    HW220732  12.124   7.324   8.501
 6279SOL     OW20733   5.464  11.241   2.361
 6279SOL    HW120734   5.435  11.332   2.367
 6279SOL    HW220735   5.396  11.192   2.408
 6280SOL     OW20736   4.264   6.465  12.222
 6280SOL    HW120737   4.209   6.519  12.279
 6280SOL    HW220738   4.353   6.480  12.253
 6281SOL     OW20739   4.057   0.215  11.425
 6281SOL    HW120740   4.068   0.205  11.520
 6281SOL    HW220741   4.143   0.242  11.393
 6282SOL     OW20742  11.029  12.219   3.077
 6282SOL    HW120743  10.934  12.219   3.080
 6282SOL    HW220744  11.050  12.197   2.986
 6283SOL     OW20745  14.553   3.957   6.173
 6283SOL    HW120746  14.482   3.969   6.236
 6283SOL    HW220747  14.577   3.865   6.182
 6284SOL     OW20748   8.932   6.076   0.550
 6284SOL    HW120749   8.923   6.121   0.635
 6284SOL    HW220750   9.011   6.023   0.559
 6285SOL     OW20751  14.846  14.804  13.576
 6285SOL    HW120752  14.769  14.842  13.534
 6285SOL    HW220753   0.022  14.876  13.578
 6286SOL     OW20754   2.666   3.712   0.633
 6286SOL    HW120755   2.670   3.806   0.651
 6286SOL    HW220756   2.651   3.706   0.539
 6287SOL     OW20757   9.108   3.442  13.601
 6287SOL    HW120758   9.146   3.363  13.564
 6287SOL    HW220759   9.177   3.478  13.657
 6288SOL     OW20760  14.081   2.730   6.155
 6288SOL    HW120761  14.162   2.678   6.161
 6288SOL    HW220762  14.016   2.679   6.203
 6289SOL     OW20763   7.532   0.488  11.906
 6289SOL    HW120764   7.511   0.466  11.997
 6289SOL    HW220765   7.585   0.414  11.875
 6290SOL     OW20766   2.805   3.896   7.918
 6290SOL    HW120767   2.730   3.942   7.955
 6290SOL    HW220768   2.823   3.825   7.980
 6291SOL     OW20769   7.958  13.857  14.782
 6291SOL    HW120770   7.963  13.913  14.859
 6291SOL    HW220771   7.890  13.896  14.728
 6292SOL     OW20772  10.134   1.222  10.328
 6292SOL    HW120773  10.196   1.181  10.267
 6292SOL    HW220774  10.108   1.303  10.286
 6293SOL     OW20775   4.213   5.884   5.275
 6293SOL    HW120776   4.190   5.938   5.200
 6293SOL    HW220777   4.166   5.924   5.348
 6294SOL     OW20778  13.611   7.648   1.293
 6294SOL    HW120779  13.522   7.668   1.322
 6294SOL    HW220780  13.643   7.585   1.357
 6295SOL     OW20781   1.632   5.041   0.145
 6295SOL    HW120782   1.610   5.084   0.228
 6295SOL    HW220783   1.547   5.013   0.110
 6296SOL     OW20784   7.912   1.930   6.968
 6296SOL    HW120785   7.939   2.021   6.953
 6296SOL    HW220786   7.862   1.933   7.050
 6297SOL     OW20787   5.919  14.196  14.266
 6297SOL    HW120788   5.860  14.127  14.299
 6297SOL    HW220789   5.861  14.257  14.221
 6298SOL     OW20790   7.056   5.869   7.960
 6298SOL    HW120791   7.079   5.787   7.915
 6298SOL    HW220792   6.975   5.848   8.006
 6299SOL     OW20793   9.194  10.703   5.485
 6299SOL    HW120794   9.188  10.766   5.556
 6299SOL    HW220795   9.171  10.753   5.407
 6300SOL     OW20796   0.317   9.454   3.971
 6300SOL    HW120797   0.308   9.363   3.945
 6300SOL    HW220798   0.338   9.450   4.065
 6301SOL     OW20799   7.932   7.511   8.170
 6301SOL    HW120800   7.948   7.572   8.241
 6301SOL    HW220801   7.867   7.449   8.204
 6302SOL     OW20802  10.515   1.353   5.042
 6302SOL    HW120803  10.424   1.375   5.021
 6302SOL    HW220804  10.511   1.262   5.070
 6303SOL     OW20805  12.740   5.966   2.485
 6303SOL    HW120806  12.721   5.974   2.579
 6303SOL    HW220807  12.759   5.873   2.472
 6304SOL     OW20808  14.750  13.061  13.930
 6304SOL    HW120809  14.797  13.139  13.902
 6304SOL    HW220810  14.799  13.029  14.005
 6305SOL     OW20811   9.135   6.859  10.201
 6305SOL    HW120812   9.110   6.836  10.111
 6305SOL    HW220813   9.088   6.941  10.219
 6306SOL     OW20814  14.655   5.014   5.395
 6306SOL    HW120815  14.574   4.963   5.395
 6306SOL    HW220816  14.643   5.079   5.326
 6307SOL     OW20817   8.014   1.316   2.776
 6307SOL    HW120818   8.051   1.364   2.701
 6307SOL    HW220819   7.931   1.281   2.743
 6308SOL     OW20820  13.269   0.552   0.896
 6308SOL    HW120821  13.212   0.561   0.820
 6308SOL    HW220822  13.319   0.633   0.899
 6309SOL     OW20823  11.419   7.608  11.118
 6309SOL    HW120824  11.438   7.621  11.025
 6309SOL    HW220825  11.442   7.691  11.159
 6310SOL     OW20826  13.307  14.157   5.042
 6310SOL    HW120827  13.364  14.086   5.010
 6310SOL    HW220828  13.222  14.115   5.054
 6311SOL     OW20829  11.187   4.791   3.907
 6311SOL    HW120830  11.208   4.704   3.874
 6311SOL    HW220831  11.167   4.843   3.829
 6312SOL     OW20832   9.964  11.494   4.270
 6312SOL    HW120833   9.938  11.432   4.202
 6312SOL    HW220834  10.060  11.489   4.272
 6313SOL     OW20835   6.638   5.466   5.925
 6313SOL    HW120836   6.672   5.494   5.840
 6313SOL    HW220837   6.555   5.422   5.904
 6314SOL     OW20838   2.057   2.492   2.657
 6314SOL    HW120839   2.147   2.514   2.682
 6314SOL    HW220840   2.038   2.412   2.705
 6315SOL     OW20841  10.740   0.940   3.580
 6315SOL    HW120842  10.793   0.917   3.657
 6315SOL    HW220843  10.773   0.883   3.511
 6316SOL     OW20844  10.427   8.010  13.946
 6316SOL    HW120845  10.439   7.935  13.888
 6316SOL    HW220846  10.429   7.973  14.035
 6317SOL     OW20847   8.717   8.660  14.587
 6317SOL    HW120848   8.740   8.700  14.503
 6317SOL    HW220849   8.636   8.704  14.612
 6318SOL     OW20850   5.049   4.103  12.230
 6318SOL    HW120851   4.988   4.176  12.236
 6318SOL    HW220852   5.083   4.092  12.318
 6319SOL     OW20853  13.751   8.073   0.225
 6319SOL    HW120854  13.731   8.094   0.134
 6319SOL    HW220855  13.846   8.082   0.232
 6320SOL     OW20856   0.833   3.819   4.044
 6320SOL    HW120857   0.863   3.733   4.015
 6320SOL    HW220858   0.808   3.864   3.963
 6321SOL     OW20859   3.006  14.187   3.231
 6321SOL    HW120860   2.917  14.200   3.263
 6321SOL    HW220861   3.030  14.272   3.193
 6322SOL     OW20862   8.070   2.217  12.744
 6322SOL    HW120863   8.152   2.173  12.724
 6322SOL    HW220864   8.002   2.154  12.720
 6323SOL     OW20865   9.094  11.143  13.127
 6323SOL    HW120866   9.127  11.199  13.057
 6323SOL    HW220867   9.041  11.201  13.181
 6324SOL     OW20868  13.305   6.129   8.012
 6324SOL    HW120869  13.331   6.088   7.930
 6324SOL    HW220870  13.219   6.166   7.995
 6325SOL     OW20871   8.004   7.746   1.826
 6325SOL    HW120872   7.910   7.741   1.842
 6325SOL    HW220873   8.033   7.818   1.882
 6326SOL     OW20874   9.178   9.028   7.297
 6326SOL    HW120875   9.211   9.118   7.298
 6326SOL    HW220876   9.162   9.010   7.204
 6327SOL     OW20877   6.300   6.115  11.533
 6327SOL    HW120878   6.254   6.050  11.586
 6327SOL    HW220879   6.324   6.069  11.453
 6328SOL     OW20880  11.336  13.561   0.294
 6328SOL    HW120881  11.411  13.503   0.304
 6328SOL    HW220882  11.286  13.552   0.375
 6329SOL     OW20883   0.470   0.797   3.183
 6329SOL    HW120884   0.427   0.725   3.137
 6329SOL    HW220885   0.525   0.753   3.248
 6330SOL     OW20886   9.100   9.934   9.868
 6330SOL    HW120887   9.068  10.014   9.909
 6330SOL    HW220888   9.177   9.909   9.920
 6331SOL     OW20889   8.071   1.754  14.616
 6331SOL    HW120890   8.127   1.735  14.691
 6331SOL    HW220891   7.995   1.799  14.654
 6332SOL     OW20892  10.377   1.583   7.033
 6332SOL    HW120893  10.417   1.570   7.119
 6332SOL    HW220894  10.293   1.625   7.052
 6333SOL     OW20895   9.624  12.410   0.797
 6333SOL    HW120896   9.609  12.328   0.751
 6333SOL    HW220897   9.611  12.389   0.890
 6334SOL     OW20898   3.738  14.071   9.094
 6334SOL    HW120899   3.800  14.101   9.028
 6334SOL    HW220900   3.766  13.981   9.114
 6335SOL     OW20901  10.237   6.869   1.691
 6335SOL    HW120902  10.326   6.900   1.676
 6335SOL    HW220903  10.193   6.879   1.606
 6336SOL     OW20904   7.279  12.486   0.098
 6336SOL    HW120905   7.351  12.428   0.123
 6336SOL    HW220906   7.201  12.444   0.134
 6337SOL     OW20907   7.212   8.289   4.480
 6337SOL    HW120908   7.184   8.297   4.389
 6337SOL    HW220909   7.252   8.374   4.500
 6338SOL     OW20910   0.528   0.301   0.341
 6338SOL    HW120911   0.471   0.325   0.414
 6338SOL    HW220912   0.472   0.309   0.264
 6339SOL     OW20913   0.921   2.067   2.933
 6339SOL    HW120914   0.961   2.038   3.015
 6339SOL    HW220915   0.863   2.138   2.959
 6340SOL     OW20916   2.397   1.768   1.562
 6340SOL    HW120917   2.386   1.857   1.527
 6340SOL    HW220918   2.403   1.781   1.657
 6341SOL     OW20919   0.731  14.615   8.190
 6341SOL    HW120920   0.735  14.521   8.176
 6341SOL    HW220921   0.674  14.626   8.266
 6342SOL     OW20922   8.208   8.050   3.964
 6342SOL    HW120923   8.300   8.022   3.965
 6342SOL    HW220924   8.212   8.146   3.964
 6343SOL     OW20925  12.252   9.612   7.911
 6343SOL    HW120926  12.188   9.543   7.927
 6343SOL    HW220927  12.319   9.599   7.978
 6344SOL     OW20928   1.460  11.874   6.645
 6344SOL    HW120929   1.379  11.824   6.638
 6344SOL    HW220930   1.459  11.908   6.735
 6345SOL     OW20931   6.507   6.909   9.907
 6345SOL    HW120932   6.541   6.925   9.818
 6345SOL    HW220933   6.413   6.896   9.895
 6346SOL     OW20934   9.813   7.627  14.454
 6346SOL    HW120935   9.718   7.620  14.467
 6346SOL    HW220936   9.824   7.688  14.381
 6347SOL     OW20937   2.576   8.780  14.592
 6347SOL    HW120938   2.647   8.776  14.527
 6347SOL    HW220939   2.500   8.745  14.546
 6348SOL     OW20940   4.745   5.882   9.103
 6348SOL    HW120941   4.659   5.889   9.060
 6348SOL    HW220942   4.805   5.929   9.045
 6349SOL     OW20943   8.228   3.203   9.149
 6349SOL    HW120944   8.233   3.187   9.243
 6349SOL    HW220945   8.138   3.180   9.125
 6350SOL     OW20946   9.619   1.958   5.609
 6350SOL    HW120947   9.645   1.976   5.699
 6350SOL    HW220948   9.540   2.011   5.597
 6351SOL     OW20949   7.867  10.845   8.956
 6351SOL    HW120950   7.933  10.912   8.940
 6351SOL    HW220951   7.912  10.762   8.939
 6352SOL     OW20952   7.039  10.654  10.490
 6352SOL    HW120953   6.962  10.637  10.437
 6352SOL    HW220954   7.018  10.733  10.540
 6353SOL     OW20955   8.943  14.553  10.269
 6353SOL    HW120956   9.002  14.485  10.236
 6353SOL    HW220957   8.925  14.527  10.359
 6354SOL     OW20958   4.719  12.200  13.346
 6354SOL    HW120959   4.705  12.127  13.406
 6354SOL    HW220960   4.796  12.245  13.380
 6355SOL     OW20961   4.728   0.064   3.949
 6355SOL    HW120962   4.657   0.127   3.937
 6355SOL    HW220963   4.734   0.051   4.043
 6356SOL     OW20964  11.863   2.539   1.741
 6356SOL    HW120965  11.865   2.502   1.652
 6356SOL    HW220966  11.775   2.522   1.772
 6357SOL     OW20967   4.294   0.668   8.855
 6357SOL    HW120968   4.266   0.654   8.765
 6357SOL    HW220969   4.215   0.651   8.907
 6358SOL     OW20970   8.990   8.501   9.909
 6358SOL    HW120971   8.994   8.490   9.814
 6358SOL    HW220972   8.954   8.589   9.921
 6359SOL     OW20973  14.611  11.521   4.566
 6359SOL    HW120974  14.585  11.437   4.528
 6359SOL    HW220975  14.532  11.574   4.564
 6360SOL     OW20976   5.822   7.392   3.669
 6360SOL    HW120977   5.893   7.401   3.733
 6360SOL    HW220978   5.860   7.339   3.599
 6361SOL     OW20979  10.489  13.870   5.798
 6361SOL    HW120980  10.398  13.851   5.776
 6361SOL    HW220981  10.484  13.921   5.879
 6362SOL     OW20982   4.713   4.558   2.451
 6362SOL    HW120983   4.672   4.531   2.533
 6362SOL    HW220984   4.805   4.573   2.474
 6363SOL     OW20985   4.659   4.713   1.535
 6363SOL    HW120986   4.686   4.768   1.461
 6363SOL    HW220987   4.581   4.668   1.503
 6364SOL     OW20988  10.970  13.699   5.418
 6364SOL    HW120989  10.979  13.749   5.337
 6364SOL    HW220990  10.976  13.608   5.391
 6365SOL     OW20991  13.603   3.386   6.064
 6365SOL    HW120992  13.581   3.388   6.157
 6365SOL    HW220993  13.528   3.426   6.021
 6366SOL     OW20994  13.727   8.536   6.754
 6366SOL    HW120995  13.696   8.499   6.837
 6366SOL    HW220996  13.666   8.607   6.735
 6367SOL     OW20997   7.452  11.072   8.210
 6367SOL    HW120998   7.369  11.107   8.177
 6367SOL    HW220999   7.473  11.000   8.151
 6368SOL     OW21000  11.231   5.930  11.490
 6368SOL    HW121001  11.195   5.841  11.485
 6368SOL    HW221002  11.180   5.972  11.559
 6369SOL     OW21003   7.134   0.567  11.225
 6369SOL    HW121004   7.059   0.627  11.230
 6369SOL    HW221005   7.121   0.519  11.144
 6370SOL     OW21006   0.262  14.810   2.671
 6370SOL    HW121007   0.327  14.826   2.740
 6370SOL    HW221008   0.268  14.716   2.654
 6371SOL     OW21009   3.727   5.777   3.596
 6371SOL    HW121010   3.711   5.850   3.536
 6371SOL    HW221011   3.749   5.703   3.540
 6372SOL     OW21012  10.464  13.739   2.278
 6372SOL    HW121013  10.378  13.782   2.280
 6372SOL    HW221014  10.500  13.761   2.193
 6373SOL     OW21015   6.937   9.350   1.714
 6373SOL    HW121016   6.923   9.297   1.636
 6373SOL    HW221017   6.971   9.434   1.681
 6374SOL     OW21018   0.612   0.102  13.811
 6374SOL    HW121019   0.550   0.168  13.842
 6374SOL    HW221020   0.601   0.028  13.870
 6375SOL     OW21021   0.167  12.245   2.596
 6375SOL    HW121022   0.074  12.259   2.613
 6375SOL    HW221023   0.177  12.150   2.598
 6376SOL     OW21024   2.718  12.940   4.196
 6376SOL    HW121025   2.757  12.955   4.110
 6376SOL    HW221026   2.676  13.023   4.220
 6377SOL     OW21027  14.069   9.885  12.873
 6377SOL    HW121028  14.132   9.875  12.945
 6377SOL    HW221029  14.109   9.836  12.800
 6378SOL     OW21030   6.451  11.137   3.335
 6378SOL    HW121031   6.387  11.112   3.402
 6378SOL    HW221032   6.488  11.220   3.365
 6379SOL     OW21033   9.589  13.139  11.811
 6379SOL    HW121034   9.538  13.111  11.887
 6379SOL    HW221035   9.545  13.217  11.780
 6380SOL     OW21036   6.394  14.612  10.851
 6380SOL    HW121037   6.384  14.523  10.885
 6380SOL    HW221038   6.488  14.628  10.850
 6381SOL     OW21039  14.592  12.906   9.177
 6381SOL    HW121040  14.671  12.959   9.166
 6381SOL    HW221041  14.568  12.878   9.089
 6382SOL     OW21042  12.373   5.026   1.782
 6382SOL    HW121043  12.359   5.060   1.871
 6382SOL    HW221044  12.454   4.976   1.788
 6383SOL     OW21045  14.125  10.324  14.701
 6383SOL    HW121046  14.072  10.278  14.766
 6383SOL    HW221047  14.214  10.292  14.716
 6384SOL     OW21048  10.351  11.936   5.745
 6384SOL    HW121049  10.300  11.857   5.766
 6384SOL    HW221050  10.285  11.999   5.714
 6385SOL     OW21051   6.046   1.159  13.987
 6385SOL    HW121052   6.130   1.114  13.981
 6385SOL    HW221053   6.067   1.251  13.971
 6386SOL     OW21054   2.686  11.134   6.235
 6386SOL    HW121055   2.714  11.226   6.239
 6386SOL    HW221056   2.678  11.108   6.327
 6387SOL     OW21057   0.081   4.888  11.333
 6387SOL    HW121058   0.107   4.798  11.351
 6387SOL    HW221059   0.118   4.939  11.406
 6388SOL     OW21060  10.722   4.455   6.994
 6388SOL    HW121061  10.775   4.381   6.964
 6388SOL    HW221062  10.707   4.507   6.915
 6389SOL     OW21063   0.065   3.999   0.356
 6389SOL    HW121064   0.125   3.924   0.356
 6389SOL    HW221065   0.098   4.057   0.287
 6390SOL     OW21066   3.560   0.468   4.853
 6390SOL    HW121067   3.605   0.390   4.886
 6390SOL    HW221068   3.621   0.506   4.791
 6391SOL     OW21069   0.555   2.904   0.208
 6391SOL    HW121070   0.596   2.844   0.270
 6391SOL    HW221071   0.625   2.926   0.146
 6392SOL     OW21072  10.024   5.520  10.561
 6392SOL    HW121073   9.988   5.567  10.635
 6392SOL    HW221074  10.088   5.580  10.522
 6393SOL     OW21075   0.440   2.003   0.862
 6393SOL    HW121076   0.402   1.915   0.868
 6393SOL    HW221077   0.444   2.021   0.769
 6394SOL     OW21078  13.796   0.338   3.175
 6394SOL    HW121079  13.741   0.271   3.134
 6394SOL    HW221080  13.880   0.331   3.130
 6395SOL     OW21081   0.546  12.869   3.959
 6395SOL    HW121082   0.570  12.958   3.986
 6395SOL    HW221083   0.452  12.863   3.979
 6396SOL     OW21084   5.222   1.009   1.025
 6396SOL    HW121085   5.156   1.044   1.084
 6396SOL    HW221086   5.186   1.022   0.937
 6397SOL     OW21087   1.883  10.903   8.134
 6397SOL    HW121088   1.932  10.823   8.118
 6397SOL    HW221089   1.946  10.960   8.179
 6398SOL     OW21090  12.447   2.037   8.098
 6398SOL    HW121091  12.378   2.103   8.099
 6398SOL    HW221092  12.474   2.029   8.189
 6399SOL     OW21093  10.046   4.134   5.661
 6399SOL    HW121094  10.019   4.212   5.613
 6399SOL    HW221095  10.005   4.143   5.747
 6400SOL     OW21096   8.414   4.838  13.568
 6400SOL    HW121097   8.497   4.812  13.607
 6400SOL    HW221098   8.360   4.758  13.571
 6401SOL     OW21099   7.111   1.438   5.822
 6401SOL    HW121100   7.098   1.370   5.889
 6401SOL    HW221101   7.022   1.461   5.794
 6402SOL     OW21102   7.133  13.563   5.754
 6402SOL    HW121103   7.042  13.588   5.769
 6402SOL    HW221104   7.177  13.580   5.838
 6403SOL     OW21105  14.216   4.679  10.237
 6403SOL    HW121106  14.124   4.705  10.249
 6403SOL    HW221107  14.210   4.591  10.198
 6404SOL     OW21108  10.624   1.452   9.822
 6404SOL    HW121109  10.611   1.475   9.914
 6404SOL    HW221110  10.706   1.402   9.821
 6405SOL     OW21111   4.032   1.147   8.254
 6405SOL    HW121112   4.006   1.232   8.219
 6405SOL    HW221113   4.056   1.164   8.345
 6406SOL     OW21114  13.007   0.822   9.653
 6406SOL    HW121115  13.055   0.895   9.692
 6406SOL    HW221116  12.926   0.817   9.703
 6407SOL     OW21117  10.485  10.258   9.341
 6407SOL    HW121118  10.487  10.308   9.422
 6407SOL    HW221119  10.410  10.199   9.351
 6408SOL     OW21120   2.353   6.072  10.363
 6408SOL    HW121121   2.319   5.984  10.377
 6408SOL    HW221122   2.298   6.108  10.294
 6409SOL     OW21123   2.280   7.984  14.732
 6409SOL    HW121124   2.353   7.993  14.671
 6409SOL    HW221125   2.256   8.074  14.755
 6410SOL     OW21126  12.650   5.697  14.084
 6410SOL    HW121127  12.596   5.695  14.163
 6410SOL    HW221128  12.598   5.650  14.019
 6411SOL     OW21129   9.060  12.430   4.863
 6411SOL    HW121130   9.023  12.408   4.777
 6411SOL    HW221131   9.086  12.521   4.855
 6412SOL     OW21132  12.364   0.999  13.434
 6412SOL    HW121133  12.453   0.983  13.464
 6412SOL    HW221134  12.371   1.004  13.338
 6413SOL     OW21135   1.183  10.733   5.137
 6413SOL    HW121136   1.109  10.672   5.137
 6413SOL    HW221137   1.223  10.722   5.051
 6414SOL     OW21138  13.830   1.808   4.701
 6414SOL    HW121139  13.845   1.727   4.749
 6414SOL    HW221140  13.803   1.779   4.613
 6415SOL     OW21141   4.358   6.686   4.951
 6415SOL    HW121142   4.345   6.775   4.919
 6415SOL    HW221143   4.270   6.656   4.976
 6416SOL     OW21144   4.214   6.233   5.663
 6416SOL    HW121145   4.152   6.259   5.731
 6416SOL    HW221146   4.300   6.255   5.699
 6417SOL     OW21147   4.422   6.240  11.750
 6417SOL    HW121148   4.341   6.190  11.761
 6417SOL    HW221149   4.433   6.286  11.833
 6418SOL     OW21150   7.500   5.385   1.936
 6418SOL    HW121151   7.422   5.425   1.898
 6418SOL    HW221152   7.522   5.441   2.010
 6419SOL     OW21153  12.073   3.062  10.798
 6419SOL    HW121154  12.155   3.112  10.798
 6419SOL    HW221155  12.083   3.002  10.724
 6420SOL     OW21156   6.572   7.797   9.900
 6420SOL    HW121157   6.656   7.789   9.945
 6420SOL    HW221158   6.563   7.890   9.881
 6421SOL     OW21159   2.282   1.919   9.908
 6421SOL    HW121160   2.199   1.941   9.949
 6421SOL    HW221161   2.287   1.823   9.914
 6422SOL     OW21162   8.004  13.768   9.472
 6422SOL    HW121163   7.964  13.810   9.548
 6422SOL    HW221164   8.078  13.719   9.507
 6423SOL     OW21165  13.761  10.535   6.365
 6423SOL    HW121166  13.830  10.568   6.308
 6423SOL    HW221167  13.794  10.451   6.397
 6424SOL     OW21168   2.324  11.887   1.995
 6424SOL    HW121169   2.284  11.912   2.078
 6424SOL    HW221170   2.417  11.905   2.007
 6425SOL     OW21171   3.109   8.193   2.267
 6425SOL    HW121172   3.192   8.233   2.241
 6425SOL    HW221173   3.060   8.263   2.309
 6426SOL     OW21174  11.036  13.989   5.127
 6426SOL    HW121175  10.978  13.932   5.076
 6426SOL    HW221176  11.010  14.077   5.102
 6427SOL     OW21177   0.839   0.890   7.431
 6427SOL    HW121178   0.797   0.904   7.516
 6427SOL    HW221179   0.768   0.860   7.374
 6428SOL     OW21180   1.481   2.890   3.168
 6428SOL    HW121181   1.454   2.830   3.238
 6428SOL    HW221182   1.538   2.837   3.112
 6429SOL     OW21183  12.022  12.849  10.346
 6429SOL    HW121184  12.062  12.841  10.259
 6429SOL    HW221185  12.068  12.922  10.387
 6430SOL     OW21186   3.106   3.749   5.939
 6430SOL    HW121187   3.123   3.658   5.916
 6430SOL    HW221188   3.117   3.797   5.857
 6431SOL     OW21189  10.446  12.774  14.293
 6431SOL    HW121190  10.462  12.681  14.277
 6431SOL    HW221191  10.391  12.776  14.372
 6432SOL     OW21192  14.158   7.180   4.447
 6432SOL    HW121193  14.097   7.119   4.488
 6432SOL    HW221194  14.160   7.256   4.505
 6433SOL     OW21195   4.942   8.814   1.282
 6433SOL    HW121196   4.875   8.837   1.217
 6433SOL    HW221197   5.004   8.886   1.280
 6434SOL     OW21198   6.147  14.304   2.857
 6434SOL    HW121199   6.144  14.227   2.914
 6434SOL    HW221200   6.152  14.378   2.918
 6435SOL     OW21201   4.959   6.005  10.581
 6435SOL    HW121202   5.004   5.928  10.616
 6435SOL    HW221203   5.013   6.032  10.506
 6436SOL     OW21204   4.704   1.068   1.508
 6436SOL    HW121205   4.711   0.990   1.562
 6436SOL    HW221206   4.760   1.133   1.552
 6437SOL     OW21207   8.948  13.242  11.215
 6437SOL    HW121208   9.015  13.176  11.197
 6437SOL    HW221209   8.948  13.298  11.138
 6438SOL     OW21210  14.160  12.324  14.746
 6438SOL    HW121211  14.202  12.271  14.679
 6438SOL    HW221212  14.162  12.270  14.825
 6439SOL     OW21213  10.010   5.798   4.649
 6439SOL    HW121214  10.000   5.885   4.611
 6439SOL    HW221215  10.024   5.741   4.574
 6440SOL     OW21216   6.891   4.127   8.027
 6440SOL    HW121217   6.836   4.201   8.004
 6440SOL    HW221218   6.960   4.126   7.960
 6441SOL     OW21219   6.787   7.960   0.017
 6441SOL    HW121220   6.725   7.975  14.833
 6441SOL    HW221221   6.821   7.873   0.001
 6442SOL     OW21222  13.524   5.461  14.182
 6442SOL    HW121223  13.438   5.497  14.205
 6442SOL    HW221224  13.528   5.377  14.228
 6443SOL     OW21225   1.241  14.145   2.273
 6443SOL    HW121226   1.290  14.115   2.350
 6443SOL    HW221227   1.167  14.194   2.310
 6444SOL     OW21228  10.839   5.014  13.120
 6444SOL    HW121229  10.933   5.024  13.101
 6444SOL    HW221230  10.829   5.051  13.208
 6445SOL     OW21231   2.401   3.112   8.665
 6445SOL    HW121232   2.455   3.190   8.679
 6445SOL    HW221233   2.392   3.106   8.570
 6446SOL     OW21234  11.817   3.940   2.862
 6446SOL    HW121235  11.810   3.918   2.955
 6446SOL    HW221236  11.792   4.032   2.857
 6447SOL     OW21237   7.925   1.449   3.450
 6447SOL    HW121238   7.938   1.437   3.356
 6447SOL    HW221239   7.987   1.388   3.491
 6448SOL     OW21240   5.902   4.785   3.237
 6448SOL    HW121241   5.972   4.766   3.300
 6448SOL    HW221242   5.845   4.708   3.240
 6449SOL     OW21243  11.129   5.824  12.399
 6449SOL    HW121244  11.053   5.773  12.372
 6449SOL    HW221245  11.118   5.908  12.354
 6450SOL     OW21246   4.244  12.874  11.543
 6450SOL    HW121247   4.278  12.819  11.613
 6450SOL    HW221248   4.318  12.885  11.483
 6451SOL     OW21249  14.406  11.434   5.429
 6451SOL    HW121250  14.453  11.398   5.504
 6451SOL    HW221251  14.474  11.466   5.370
 6452SOL     OW21252   6.413   6.789   6.624
 6452SOL    HW121253   6.360   6.739   6.562
 6452SOL    HW221254   6.441   6.725   6.689
 6453SOL     OW21255   6.445   7.499  10.900
 6453SOL    HW121256   6.512   7.475  10.965
 6453SOL    HW221257   6.443   7.425  10.839
 6454SOL     OW21258   3.666   2.736   4.739
 6454SOL    HW121259   3.602   2.665   4.743
 6454SOL    HW221260   3.725   2.711   4.668
 6455SOL     OW21261  11.876   4.035   9.123
 6455SOL    HW121262  11.796   3.991   9.096
 6455SOL    HW221263  11.851   4.127   9.132
 6456SOL     OW21264  12.130  13.313   5.189
 6456SOL    HW121265  12.220  13.302   5.219
 6456SOL    HW221266  12.122  13.407   5.172
 6457SOL     OW21267   3.892   1.232   9.882
 6457SOL    HW121268   3.814   1.225   9.827
 6457SOL    HW221269   3.858   1.248   9.970
 6458SOL     OW21270   7.094  12.205   4.629
 6458SOL    HW121271   7.026  12.242   4.686
 6458SOL    HW221272   7.107  12.271   4.561
 6459SOL     OW21273   6.451   2.686  12.768
 6459SOL    HW121274   6.393   2.613  12.789
 6459SOL    HW221275   6.499   2.657  12.690
 6460SOL     OW21276  13.581   5.404   7.952
 6460SOL    HW121277  13.516   5.388   7.883
 6460SOL    HW221278  13.657   5.352   7.927
 6461SOL     OW21279   8.209   4.686   4.965
 6461SOL    HW121280   8.147   4.757   4.950
 6461SOL    HW221281   8.181   4.616   4.907
 6462SOL     OW21282   5.708   0.695   1.132
 6462SOL    HW121283   5.636   0.756   1.119
 6462SOL    HW221284   5.666   0.613   1.159
 6463SOL     OW21285   5.260   0.369  11.548
 6463SOL    HW121286   5.209   0.381  11.629
 6463SOL    HW221287   5.347   0.342  11.578
 6464SOL     OW21288   3.878   3.222  12.062
 6464SOL    HW121289   3.965   3.213  12.102
 6464SOL    HW221290   3.825   3.154  12.103
 6465SOL     OW21291  10.186  13.526   1.051
 6465SOL    HW121292  10.120  13.493   1.112
 6465SOL    HW221293  10.203  13.452   0.992
 6466SOL     OW21294   5.105   9.041  11.019
 6466SOL    HW121295   5.054   8.998  10.951
 6466SOL    HW221296   5.040   9.084  11.074
 6467SOL     OW21297   3.870  14.058   4.963
 6467SOL    HW121298   3.881  14.102   5.047
 6467SOL    HW221299   3.795  14.102   4.923
 6468SOL     OW21300   3.475   1.989   0.720
 6468SOL    HW121301   3.448   1.989   0.812
 6468SOL    HW221302   3.461   2.079   0.691
 6469SOL     OW21303   9.163  10.332  14.118
 6469SOL    HW121304   9.213  10.346  14.199
 6469SOL    HW221305   9.073  10.352  14.141
 6470SOL     OW21306  12.160   6.228  11.857
 6470SOL    HW121307  12.253   6.231  11.879
 6470SOL    HW221308  12.118   6.282  11.924
 6471SOL     OW21309  12.405   7.406   1.790
 6471SOL    HW121310  12.310   7.395   1.784
 6471SOL    HW221311  12.429   7.362   1.871
 6472SOL     OW21312   7.042   7.728   9.184
 6472SOL    HW121313   7.086   7.764   9.107
 6472SOL    HW221314   7.006   7.645   9.155
 6473SOL     OW21315   7.086   7.868   9.991
 6473SOL    HW121316   7.169   7.822   9.999
 6473SOL    HW221317   7.026   7.818  10.046
 6474SOL     OW21318   1.934   0.374  14.061
 6474SOL    HW121319   1.875   0.388  14.134
 6474SOL    HW221320   1.878   0.339  13.991
 6475SOL     OW21321   6.647   1.578  13.894
 6475SOL    HW121322   6.732   1.598  13.855
 6475SOL    HW221323   6.613   1.663  13.922
 6476SOL     OW21324   8.365   1.956  13.683
 6476SOL    HW121325   8.281   1.913  13.665
 6476SOL    HW221326   8.390   1.924  13.770
 6477SOL     OW21327   4.706   0.860   2.641
 6477SOL    HW121328   4.628   0.834   2.591
 6477SOL    HW221329   4.765   0.786   2.633
 6478SOL     OW21330   7.480  10.157   1.694
 6478SOL    HW121331   7.530  10.078   1.716
 6478SOL    HW221332   7.540  10.208   1.639
 6479SOL     OW21333  14.115  13.602  13.119
 6479SOL    HW121334  14.094  13.558  13.201
 6479SOL    HW221335  14.121  13.532  13.055
 6480SOL     OW21336  11.313   7.124  13.849
 6480SOL    HW121337  11.336   7.111  13.757
 6480SOL    HW221338  11.245   7.192  13.848
 6481SOL     OW21339  11.628   3.100   8.641
 6481SOL    HW121340  11.600   3.092   8.550
 6481SOL    HW221341  11.694   3.032   8.653
 6482SOL     OW21342   2.597  12.498   3.482
 6482SOL    HW121343   2.660  12.557   3.525
 6482SOL    HW221344   2.515  12.512   3.529
 6483SOL     OW21345   1.552   0.046  11.860
 6483SOL    HW121346   1.634   0.010  11.828
 6483SOL    HW221347   1.569   0.069  11.952
 6484SOL     OW21348  14.384  12.822   0.269
 6484SOL    HW121349  14.362  12.820   0.362
 6484SOL    HW221350  14.347  12.742   0.233
 6485SOL     OW21351   8.211   2.457  13.436
 6485SOL    HW121352   8.261   2.418  13.508
 6485SOL    HW221353   8.123   2.422  13.447
 6486SOL     OW21354   0.612   9.171  10.496
 6486SOL    HW121355   0.596   9.260  10.463
 6486SOL    HW221356   0.526   9.139  10.524
 6487SOL     OW21357   6.138   0.950   0.565
 6487SOL    HW121358   6.053   0.993   0.568
 6487SOL    HW221359   6.200   1.019   0.540
 6488SOL     OW21360   6.713  14.331  11.426
 6488SOL    HW121361   6.752  14.361  11.344
 6488SOL    HW221362   6.786  14.300  11.479
 6489SOL     OW21363   3.894  12.609  11.717
 6489SOL    HW121364   3.945  12.689  11.730
 6489SOL    HW221365   3.878  12.606  11.622
 6490SOL     OW21366  12.635   6.313   8.419
 6490SOL    HW121367  12.705   6.296   8.481
 6490SOL    HW221368  12.667   6.386   8.366
 6491SOL     OW21369  11.950   7.256   7.875
 6491SOL    HW121370  12.037   7.228   7.845
 6491SOL    HW221371  11.910   7.176   7.909
 6492SOL     OW21372   2.441   1.522   7.671
 6492SOL    HW121373   2.481   1.591   7.617
 6492SOL    HW221374   2.351   1.516   7.640
 6493SOL     OW21375   7.644   4.067   4.737
 6493SOL    HW121376   7.673   3.988   4.692
 6493SOL    HW221377   7.689   4.139   4.691
 6494SOL     OW21378  14.365   2.332   0.129
 6494SOL    HW121379  14.300   2.263   0.110
 6494SOL    HW221380  14.319   2.413   0.109
 6495SOL     OW21381   4.603   9.888   1.168
 6495SOL    HW121382   4.606   9.949   1.094
 6495SOL    HW221383   4.524   9.912   1.215
 6496SOL     OW21384  10.203  11.945   5.379
 6496SOL    HW121385  10.130  11.884   5.389
 6496SOL    HW221386  10.281  11.892   5.395
 6497SOL     OW21387   6.055   8.645  13.174
 6497SOL    HW121388   6.012   8.641  13.089
 6497SOL    HW221389   6.003   8.707  13.225
 6498SOL     OW21390   5.360  13.282  14.416
 6498SOL    HW121391   5.412  13.340  14.471
 6498SOL    HW221392   5.336  13.210  14.474
 6499SOL     OW21393   5.573   7.953  10.772
 6499SOL    HW121394   5.668   7.944  10.772
 6499SOL    HW221395   5.542   7.876  10.819
 6500SOL     OW21396  10.022   4.079  13.051
 6500SOL    HW121397  10.056   4.165  13.077
 6500SOL    HW221398   9.946   4.099  12.996
 6501SOL     OW21399  13.408   3.070  14.339
 6501SOL    HW121400  13.315   3.046  14.345
 6501SOL    HW221401  13.413   3.125  14.260
 6502SOL     OW21402  11.495   3.955  13.805
 6502SOL    HW121403  11.471   3.898  13.878
 6502SOL    HW221404  11.487   3.900  13.727
 6503SOL     OW21405   2.868  11.376   2.622
 6503SOL    HW121406   2.833  11.372   2.533
 6503SOL    HW221407   2.821  11.308   2.670
 6504SOL     OW21408  11.983  11.207   8.558
 6504SOL    HW121409  11.956  11.145   8.626
 6504SOL    HW221410  12.075  11.187   8.542
 6505SOL     OW21411   5.790   2.505  12.057
 6505SOL    HW121412   5.775   2.518  12.150
 6505SOL    HW221413   5.877   2.542  12.040
 6506SOL     OW21414   6.876  11.664   9.410
 6506SOL    HW121415   6.854  11.675   9.317
 6506SOL    HW221416   6.970  11.649   9.410
 6507SOL     OW21417  12.701   6.610   9.056
 6507SOL    HW121418  12.775   6.630   8.998
 6507SOL    HW221419  12.742   6.586   9.139
 6508SOL     OW21420   3.096  14.802   4.241
 6508SOL    HW121421   3.013  14.760   4.264
 6508SOL    HW221422   3.098  14.799   4.145
 6509SOL     OW21423  12.159  12.085  12.460
 6509SOL    HW121424  12.132  12.040  12.540
 6509SOL    HW221425  12.203  12.164  12.491
 6510SOL     OW21426   5.868  13.377   2.400
 6510SOL    HW121427   5.938  13.329   2.445
 6510SOL    HW221428   5.914  13.433   2.337
 6511SOL     OW21429   7.578   4.938   4.728
 6511SOL    HW121430   7.547   5.011   4.782
 6511SOL    HW221431   7.557   4.860   4.779
 6512SOL     OW21432   6.595   8.171   8.874
 6512SOL    HW121433   6.502   8.185   8.859
 6512SOL    HW221434   6.615   8.223   8.952
 6513SOL     OW21435   1.707   7.838  10.798
 6513SOL    HW121436   1.760   7.791  10.862
 6513SOL    HW221437   1.687   7.922  10.839
 6514SOL     OW21438  10.404   0.495   7.030
 6514SOL    HW121439  10.478   0.519   6.974
 6514SOL    HW221440  10.360   0.424   6.982
 6515SOL     OW21441   8.786   9.376   4.208
 6515SOL    HW121442   8.755   9.462   4.180
 6515SOL    HW221443   8.842   9.346   4.136
 6516SOL     OW21444   3.428   4.848   5.779
 6516SOL    HW121445   3.356   4.787   5.762
 6516SOL    HW221446   3.393   4.910   5.844
 6517SOL     OW21447  14.559   3.176   9.750
 6517SOL    HW121448  14.533   3.132   9.831
 6517SOL    HW221449  14.565   3.105   9.685
 6518SOL     OW21450   3.769   6.335  13.127
 6518SOL    HW121451   3.708   6.391  13.079
 6518SOL    HW221452   3.846   6.331  13.071
 6519SOL     OW21453  11.618  14.262   9.718
 6519SOL    HW121454  11.630  14.220   9.633
 6519SOL    HW221455  11.566  14.199   9.768
 6520SOL     OW21456  12.896   2.100   6.853
 6520SOL    HW121457  12.967   2.041   6.877
 6520SOL    HW221458  12.824   2.041   6.829
 6521SOL     OW21459   3.735   0.346  12.837
 6521SOL    HW121460   3.699   0.433  12.816
 6521SOL    HW221461   3.703   0.290  12.767
 6522SOL     OW21462   0.489  12.400   4.981
 6522SOL    HW121463   0.464  12.406   5.073
 6522SOL    HW221464   0.574  12.444   4.976
 6523SOL     OW21465  11.829   2.462   1.489
 6523SOL    HW121466  11.739   2.495   1.491
 6523SOL    HW221467  11.858   2.476   1.398
 6524SOL     OW21468  12.477   6.631  11.232
 6524SOL    HW121469  12.543   6.585  11.181
 6524SOL    HW221470  12.514   6.635  11.321
 6525SOL     OW21471   7.231   2.839   6.047
 6525SOL    HW121472   7.170   2.851   6.120
 6525SOL    HW221473   7.306   2.894   6.069
 6526SOL     OW21474  12.862   9.592   7.131
 6526SOL    HW121475  12.770   9.567   7.121
 6526SOL    HW221476  12.859   9.682   7.164
 6527SOL     OW21477   4.520   1.034  11.577
 6527SOL    HW121478   4.578   1.005  11.507
 6527SOL    HW221479   4.577   1.083  11.636
 6528SOL     OW21480  14.156  10.982   2.155
 6528SOL    HW121481  14.238  11.004   2.111
 6528SOL    HW221482  14.178  10.978   2.248
 6529SOL     OW21483  14.398   9.040   8.164
 6529SOL    HW121484  14.365   8.971   8.221
 6529SOL    HW221485  14.320   9.069   8.115
 6530SOL     OW21486   9.234   9.434   3.249
 6530SOL    HW121487   9.328   9.436   3.265
 6530SOL    HW221488   9.206   9.525   3.256
 6531SOL     OW21489  12.582   8.067  12.544
 6531SOL    HW121490  12.663   8.019  12.526
 6531SOL    HW221491  12.559   8.044  12.634
 6532SOL     OW21492   6.304  10.616  10.704
 6532SOL    HW121493   6.248  10.665  10.764
 6532SOL    HW221494   6.337  10.543  10.757
 6533SOL     OW21495   0.228   6.500   9.609
 6533SOL    HW121496   0.139   6.501   9.643
 6533SOL    HW221497   0.254   6.592   9.607
 6534SOL     OW21498   7.798  12.403   9.977
 6534SOL    HW121499   7.847  12.327  10.008
 6534SOL    HW221500   7.847  12.478  10.010
 6535SOL     OW21501   6.340   0.569   9.240
 6535SOL    HW121502   6.356   0.598   9.329
 6535SOL    HW221503   6.264   0.620   9.211
 6536SOL     OW21504   6.335   1.238   5.664
 6536SOL    HW121505   6.252   1.203   5.631
 6536SOL    HW221506   6.388   1.252   5.586
 6537SOL     OW21507   1.167   2.201   6.549
 6537SOL    HW121508   1.246   2.164   6.589
 6537SOL    HW221509   1.143   2.139   6.481
 6538SOL     OW21510   8.265   0.601   1.931
 6538SOL    HW121511   8.251   0.630   2.021
 6538SOL    HW221512   8.193   0.641   1.881
 6539SOL     OW21513  14.748  13.544   3.336
 6539SOL    HW121514  14.782  13.592   3.261
 6539SOL    HW221515  14.793  13.581   3.412
 6540SOL     OW21516  11.033   8.468   1.708
 6540SOL    HW121517  10.944   8.498   1.729
 6540SOL    HW221518  11.079   8.471   1.791
 6541SOL     OW21519   8.812   5.801  10.703
 6541SOL    HW121520   8.851   5.716  10.678
 6541SOL    HW221521   8.750   5.820  10.632
 6542SOL     OW21522   6.198   8.495   7.154
 6542SOL    HW121523   6.168   8.417   7.108
 6542SOL    HW221524   6.294   8.488   7.154
 6543SOL     OW21525  12.562   1.862  12.686
 6543SOL    HW121526  12.571   1.956  12.671
 6543SOL    HW221527  12.484   1.853  12.740
 6544SOL     OW21528   5.242   3.962   8.289
 6544SOL    HW121529   5.329   3.974   8.251
 6544SOL    HW221530   5.206   4.051   8.295
 6545SOL     OW21531   2.088   4.884   2.783
 6545SOL    HW121532   2.077   4.804   2.833
 6545SOL    HW221533   2.003   4.899   2.741
 6546SOL     OW21534   8.933  12.470   3.522
 6546SOL    HW121535   8.850  12.421   3.522
 6546SOL    HW221536   8.978  12.441   3.601
 6547SOL     OW21537   9.473   1.017   0.788
 6547SOL    HW121538   9.535   0.958   0.833
 6547SOL    HW221539   9.460   1.089   0.849
 6548SOL     OW21540  14.069  13.593   3.579
 6548SOL    HW121541  14.068  13.499   3.562
 6548SOL    HW221542  14.019  13.603   3.660
 6549SOL     OW21543  10.253  11.326   6.261
 6549SOL    HW121544  10.280  11.417   6.248
 6549SOL    HW221545  10.286  11.280   6.184
 6550SOL     OW21546   9.992   0.844   9.107
 6550SOL    HW121547  10.027   0.770   9.156
 6550SOL    HW221548  10.007   0.820   9.015
 6551SOL     OW21549  10.041  10.917   7.023
 6551SOL    HW121550  10.005  11.006   7.033
 6551SOL    HW221551   9.965  10.864   6.997
 6552SOL     OW21552  12.581   3.355  13.858
 6552SOL    HW121553  12.569   3.441  13.899
 6552SOL    HW221554  12.566   3.292  13.929
 6553SOL     OW21555   6.433   8.167   1.950
 6553SOL    HW121556   6.491   8.243   1.952
 6553SOL    HW221557   6.492   8.092   1.964
 6554SOL     OW21558   9.669   7.326  14.649
 6554SOL    HW121559   9.706   7.238  14.661
 6554SOL    HW221560   9.655   7.334  14.555
 6555SOL     OW21561  11.827   5.954   8.200
 6555SOL    HW121562  11.755   5.956   8.137
 6555SOL    HW221563  11.798   6.012   8.270
 6556SOL     OW21564  11.342   9.359  10.240
 6556SOL    HW121565  11.305   9.287  10.189
 6556SOL    HW221566  11.419   9.322  10.283
 6557SOL     OW21567   9.356   6.132   8.845
 6557SOL    HW121568   9.431   6.077   8.866
 6557SOL    HW221569   9.287   6.070   8.821
 6558SOL     OW21570   5.187   6.605  10.796
 6558SOL    HW121571   5.148   6.518  10.789
 6558SOL    HW221572   5.268   6.591  10.844
 6559SOL     OW21573  13.609   5.969  10.218
 6559SOL    HW121574  13.605   5.919  10.300
 6559SOL    HW221575  13.525   6.013  10.212
 6560SOL     OW21576  11.502   0.185  12.425
 6560SOL    HW121577  11.437   0.139  12.373
 6560SOL    HW221578  11.452   0.229  12.494
 6561SOL     OW21579   4.915  10.942   9.316
 6561SOL    HW121580   4.884  11.021   9.361
 6561SOL    HW221581   4.975  10.902   9.378
 6562SOL     OW21582   2.675  12.315   7.199
 6562SOL    HW121583   2.708  12.404   7.213
 6562SOL    HW221584   2.753  12.265   7.173
 6563SOL     OW21585   3.119   2.817   5.206
 6563SOL    HW121586   3.123   2.721   5.201
 6563SOL    HW221587   3.114   2.845   5.114
 6564SOL     OW21588   2.124  12.948   4.462
 6564SOL    HW121589   2.156  12.965   4.373
 6564SOL    HW221590   2.056  12.882   4.451
 6565SOL     OW21591   9.063  12.126   0.785
 6565SOL    HW121592   9.026  12.037   0.781
 6565SOL    HW221593   9.063  12.148   0.878
 6566SOL     OW21594   2.022  10.962  10.452
 6566SOL    HW121595   2.065  11.048  10.455
 6566SOL    HW221596   2.094  10.899  10.455
 6567SOL     OW21597   8.545  12.890   5.577
 6567SOL    HW121598   8.619  12.848   5.535
 6567SOL    HW221599   8.557  12.984   5.560
 6568SOL     OW21600   4.912  14.593   7.610
 6568SOL    HW121601   4.936  14.659   7.675
 6568SOL    HW221602   4.996  14.567   7.571
 6569SOL     OW21603   2.909   5.962   1.538
 6569SOL    HW121604   2.832   5.929   1.491
 6569SOL    HW221605   2.965   5.998   1.469
 6570SOL     OW21606   6.935   6.567   3.647
 6570SOL    HW121607   6.994   6.516   3.592
 6570SOL    HW221608   6.973   6.655   3.648
 6571SOL     OW21609  10.334   0.120   2.366
 6571SOL    HW121610  10.418   0.100   2.409
 6571SOL    HW221611  10.290   0.180   2.427
 6572SOL     OW21612   0.565   6.744   7.164
 6572SOL    HW121613   0.500   6.690   7.119
 6572SOL    HW221614   0.551   6.832   7.129
 6573SOL     OW21615   9.997   5.986   3.258
 6573SOL    HW121616   9.993   6.081   3.242
 6573SOL    HW221617  10.066   5.976   3.323
 6574SOL     OW21618   3.718  14.824   8.807
 6574SOL    HW121619   3.635  14.826   8.761
 6574SOL    HW221620   3.772   0.002   8.763
 6575SOL     OW21621  11.780  12.410   4.637
 6575SOL    HW121622  11.780  12.315   4.652
 6575SOL    HW221623  11.771  12.448   4.724
 6576SOL     OW21624   2.197   2.064   9.282
 6576SOL    HW121625   2.176   2.145   9.236
 6576SOL    HW221626   2.116   2.041   9.328
 6577SOL     OW21627   2.171  12.618   8.121
 6577SOL    HW121628   2.133  12.628   8.033
 6577SOL    HW221629   2.183  12.524   8.131
 6578SOL     OW21630   7.170   8.897  12.952
 6578SOL    HW121631   7.091   8.905  13.006
 6578SOL    HW221632   7.225   8.834  12.999
 6579SOL     OW21633  12.091   2.945   4.637
 6579SOL    HW121634  12.153   2.878   4.611
 6579SOL    HW221635  12.128   2.981   4.718
 6580SOL     OW21636   3.062   6.867   6.242
 6580SOL    HW121637   3.148   6.887   6.279
 6580SOL    HW221638   3.001   6.919   6.294
 6581SOL     OW21639  13.027   2.893   1.516
 6581SOL    HW121640  13.062   2.912   1.603
 6581SOL    HW221641  13.048   2.802   1.500
 6582SOL     OW21642   4.050  10.224   6.934
 6582SOL    HW121643   3.970  10.217   6.986
 6582SOL    HW221644   4.116  10.254   6.997
 6583SOL     OW21645   6.390  13.575  13.562
 6583SOL    HW121646   6.325  13.642  13.584
 6583SOL    HW221647   6.358  13.537  13.480
 6584SOL     OW21648   0.815  10.021  10.422
 6584SOL    HW121649   0.738  10.078  10.430
 6584SOL    HW221650   0.797   9.967  10.345
 6585SOL     OW21651   5.925  11.540   2.073
 6585SOL    HW121652   5.898  11.596   2.146
 6585SOL    HW221653   5.843  11.511   2.033
 6586SOL     OW21654   3.791   6.980   7.059
 6586SOL    HW121655   3.804   6.909   7.122
 6586SOL    HW221656   3.852   6.961   6.988
 6587SOL     OW21657   0.573  12.260   9.125
 6587SOL    HW121658   0.614  12.310   9.054
 6587SOL    HW221659   0.647  12.227   9.177
 6588SOL     OW21660   4.657   5.585  12.745
 6588SOL    HW121661   4.675   5.540  12.662
 6588SOL    HW221662   4.569   5.621  12.735
 6589SOL     OW21663  13.698   0.028   0.278
 6589SOL    HW121664  13.658   0.049   0.194
 6589SOL    HW221665  13.720   0.113   0.316
 6590SOL     OW21666   5.072   9.002   8.454
 6590SOL    HW121667   5.161   9.036   8.453
 6590SOL    HW221668   5.026   9.053   8.387
 6591SOL     OW21669  10.370   9.382   6.491
 6591SOL    HW121670  10.278   9.405   6.486
 6591SOL    HW221671  10.414   9.462   6.519
 6592SOL     OW21672   7.765   7.875   6.755
 6592SOL    HW121673   7.763   7.971   6.759
 6592SOL    HW221674   7.802   7.856   6.668
 6593SOL     OW21675   2.468   0.135   4.683
 6593SOL    HW121676   2.459   0.160   4.591
 6593SOL    HW221677   2.461   0.217   4.731
 6594SOL     OW21678  14.395   8.692   3.354
 6594SOL    HW121679  14.489   8.684   3.340
 6594SOL    HW221680  14.385   8.695   3.449
 6595SOL     OW21681   3.204  13.006   5.455
 6595SOL    HW121682   3.291  12.992   5.492
 6595SOL    HW221683   3.185  13.099   5.472
 6596SOL     OW21684   7.560  10.561   9.469
 6596SOL    HW121685   7.474  10.588   9.438
 6596SOL    HW221686   7.608  10.538   9.390
 6597SOL     OW21687  11.590   9.628  13.589
 6597SOL    HW121688  11.510   9.679  13.573
 6597SOL    HW221689  11.609   9.587  13.505
 6598SOL     OW21690   9.736   1.722  13.072
 6598SOL    HW121691   9.640   1.718  13.067
 6598SOL    HW221692   9.762   1.633  13.096
 6599SOL     OW21693   6.839   4.157   6.737
 6599SOL    HW121694   6.778   4.231   6.747
 6599SOL    HW221695   6.789   4.090   6.691
 6600SOL     OW21696   0.961   4.485   0.847
 6600SOL    HW121697   0.967   4.446   0.760
 6600SOL    HW221698   0.980   4.412   0.907
 6601SOL     OW21699   4.037  12.687  12.088
 6601SOL    HW121700   4.053  12.742  12.011
 6601SOL    HW221701   3.942  12.685  12.097
 6602SOL     OW21702   1.064   5.660   4.547
 6602SOL    HW121703   1.053   5.575   4.503
 6602SOL    HW221704   1.116   5.640   4.624
 6603SOL     OW21705   2.400   1.975   8.225
 6603SOL    HW121706   2.488   1.960   8.190
 6603SOL    HW221707   2.375   2.061   8.190
 6604SOL     OW21708   1.925   9.793   9.722
 6604SOL    HW121709   1.869   9.868   9.703
 6604SOL    HW221710   1.887   9.753   9.800
 6605SOL     OW21711  12.830  10.899   3.591
 6605SOL    HW121712  12.834  10.898   3.495
 6605SOL    HW221713  12.737  10.914   3.611
 6606SOL     OW21714   6.804   3.190  13.591
 6606SOL    HW121715   6.874   3.225  13.645
 6606SOL    HW221716   6.818   3.095  13.590
 6607SOL     OW21717  14.114   6.211   9.689
 6607SOL    HW121718  14.144   6.299   9.713
 6607SOL    HW221719  14.091   6.170   9.772
 6608SOL     OW21720   7.760   5.377  14.814
 6608SOL    HW121721   7.802   5.320  14.878
 6608SOL    HW221722   7.703   5.319  14.764
 6609SOL     OW21723   8.887   2.819   2.196
 6609SOL    HW121724   8.948   2.888   2.221
 6609SOL    HW221725   8.881   2.763   2.274
 6610SOL     OW21726   0.673  10.687   1.509
 6610SOL    HW121727   0.605  10.753   1.520
 6610SOL    HW221728   0.633  10.621   1.452
 6611SOL     OW21729  14.189  13.282   8.334
 6611SOL    HW121730  14.247  13.241   8.399
 6611SOL    HW221731  14.214  13.375   8.336
 6612SOL     OW21732   9.682   3.281   7.548
 6612SOL    HW121733   9.610   3.313   7.601
 6612SOL    HW221734   9.728   3.360   7.520
 6613SOL     OW21735  12.662   2.749  10.095
 6613SOL    HW121736  12.714   2.675  10.128
 6613SOL    HW221737  12.683   2.821  10.154
 6614SOL     OW21738   3.609   4.451   1.918
 6614SOL    HW121739   3.593   4.356   1.924
 6614SOL    HW221740   3.576   4.486   2.000
 6615SOL     OW21741   3.851  12.958   2.961
 6615SOL    HW121742   3.790  13.031   2.968
 6615SOL    HW221743   3.795  12.880   2.956
 6616SOL     OW21744   3.386   2.617   8.661
 6616SOL    HW121745   3.436   2.696   8.644
 6616SOL    HW221746   3.315   2.646   8.719
 6617SOL     OW21747   6.528   4.667   6.613
 6617SOL    HW121748   6.498   4.636   6.698
 6617SOL    HW221749   6.462   4.635   6.551
 6618SOL     OW21750  11.520  12.865   1.332
 6618SOL    HW121751  11.441  12.836   1.287
 6618SOL    HW221752  11.487  12.923   1.401
 6619SOL     OW21753   5.693   1.655   0.996
 6619SOL    HW121754   5.695   1.610   0.911
 6619SOL    HW221755   5.640   1.732   0.981
 6620SOL     OW21756   1.219  12.243   5.123
 6620SOL    HW121757   1.248  12.263   5.034
 6620SOL    HW221758   1.146  12.182   5.110
 6621SOL     OW21759  13.266   8.470   2.856
 6621SOL    HW121760  13.317   8.474   2.776
 6621SOL    HW221761  13.283   8.553   2.900
 6622SOL     OW21762  10.481   5.837   4.441
 6622SOL    HW121763  10.439   5.771   4.496
 6622SOL    HW221764  10.499   5.910   4.500
 6623SOL     OW21765   8.717  10.582   9.593
 6623SOL    HW121766   8.688  10.561   9.504
 6623SOL    HW221767   8.637  10.597   9.642
 6624SOL     OW21768   9.086  10.026  11.938
 6624SOL    HW121769   9.081  10.122  11.938
 6624SOL    HW221770   9.179  10.006  11.945
 6625SOL     OW21771   0.267   5.450   6.720
 6625SOL    HW121772   0.341   5.432   6.778
 6625SOL    HW221773   0.209   5.374   6.731
 6626SOL     OW21774   9.428   9.543   7.540
 6626SOL    HW121775   9.353   9.494   7.573
 6626SOL    HW221776   9.497   9.477   7.530
 6627SOL     OW21777   9.765   1.848   1.234
 6627SOL    HW121778   9.836   1.861   1.296
 6627SOL    HW221779   9.686   1.873   1.282
 6628SOL     OW21780   0.117   1.122  14.558
 6628SOL    HW121781   0.182   1.142  14.491
 6628SOL    HW221782   0.033   1.137  14.515
 6629SOL     OW21783   9.757   3.106  14.538
 6629SOL    HW121784   9.788   3.187  14.498
 6629SOL    HW221785   9.700   3.134  14.610
 6630SOL     OW21786  11.892   8.195   1.492
 6630SOL    HW121787  11.807   8.199   1.535
 6630SOL    HW221788  11.945   8.262   1.535
 6631SOL     OW21789  12.686  12.441   9.873
 6631SOL    HW121790  12.663  12.366   9.928
 6631SOL    HW221791  12.661  12.414   9.785
 6632SOL     OW21792   1.981   5.173   2.539
 6632SOL    HW121793   1.938   5.127   2.610
 6632SOL    HW221794   2.061   5.209   2.578
 6633SOL     OW21795   6.570   9.021   9.687
 6633SOL    HW121796   6.585   9.111   9.715
 6633SOL    HW221797   6.545   9.029   9.594
 6634SOL     OW21798   3.026  11.234  12.443
 6634SOL    HW121799   2.978  11.202  12.520
 6634SOL    HW221800   3.013  11.328  12.444
 6635SOL     OW21801   0.854   1.496   7.300
 6635SOL    HW121802   0.760   1.482   7.313
 6635SOL    HW221803   0.859   1.582   7.259
 6636SOL     OW21804   3.369   8.527   3.799
 6636SOL    HW121805   3.390   8.490   3.714
 6636SOL    HW221806   3.454   8.545   3.839
 6637SOL     OW21807   9.245  10.625   8.394
 6637SOL    HW121808   9.268  10.534   8.415
 6637SOL    HW221809   9.290  10.643   8.312
 6638SOL     OW21810   8.335  13.174   4.005
 6638SOL    HW121811   8.292  13.139   3.927
 6638SOL    HW221812   8.292  13.129   4.078
 6639SOL     OW21813   7.036  14.514  11.427
 6639SOL    HW121814   7.033  14.475  11.339
 6639SOL    HW221815   7.066  14.603  11.413
 6640SOL     OW21816   5.060  10.563   0.094
 6640SOL    HW121817   4.966  10.547   0.109
 6640SOL    HW221818   5.091  10.482   0.053
 6641SOL     OW21819   4.371  13.560  12.470
 6641SOL    HW121820   4.435  13.620  12.432
 6641SOL    HW221821   4.389  13.475  12.430
 6642SOL     OW21822   2.981   6.551   9.159
 6642SOL    HW121823   3.071   6.536   9.187
 6642SOL    HW221824   2.988   6.604   9.080
 6643SOL     OW21825   2.738   7.096   2.518
 6643SOL    HW121826   2.731   7.084   2.612
 6643SOL    HW221827   2.832   7.088   2.500
 6644SOL     OW21828   8.339   2.397   4.899
 6644SOL    HW121829   8.262   2.449   4.924
 6644SOL    HW221830   8.400   2.408   4.971
 6645SOL     OW21831   8.489  13.435  13.000
 6645SOL    HW121832   8.415  13.420  12.940
 6645SOL    HW221833   8.551  13.366  12.978
 6646SOL     OW21834   7.469   2.811  14.490
 6646SOL    HW121835   7.549   2.764  14.514
 6646SOL    HW221836   7.406   2.787  14.559
 6647SOL     OW21837   9.009   7.765   8.822
 6647SOL    HW121838   8.943   7.767   8.891
 6647SOL    HW221839   9.020   7.857   8.797
 6648SOL     OW21840   6.339  10.807  12.969
 6648SOL    HW121841   6.329  10.891  13.015
 6648SOL    HW221842   6.371  10.831  12.882
 6649SOL     OW21843   2.305   1.146   0.385
 6649SOL    HW121844   2.371   1.094   0.432
 6649SOL    HW221845   2.233   1.085   0.372
 6650SOL     OW21846   3.167   2.461  12.301
 6650SOL    HW121847   3.199   2.431  12.386
 6650SOL    HW221848   3.246   2.487  12.254
 6651SOL     OW21849   6.710   2.339  13.435
 6651SOL    HW121850   6.730   2.391  13.512
 6651SOL    HW221851   6.706   2.403  13.363
 6652SOL     OW21852   6.874  10.661   3.387
 6652SOL    HW121853   6.963  10.634   3.367
 6652SOL    HW221854   6.880  10.701   3.474
 6653SOL     OW21855  12.413   4.920  10.881
 6653SOL    HW121856  12.423   4.871  10.963
 6653SOL    HW221857  12.500   4.921  10.842
 6654SOL     OW21858   4.828   3.932  13.893
 6654SOL    HW121859   4.747   3.880  13.895
 6654SOL    HW221860   4.854   3.940  13.984
 6655SOL     OW21861  12.215   8.228  12.620
 6655SOL    HW121862  12.296   8.268  12.655
 6655SOL    HW221863  12.145   8.279  12.660
 6656SOL     OW21864  11.586   8.470   1.850
 6656SOL    HW121865  11.592   8.387   1.897
 6656SOL    HW221866  11.609   8.536   1.916
 6657SOL     OW21867  10.296  13.850  11.340
 6657SOL    HW121868  10.223  13.903  11.373
 6657SOL    HW221869  10.313  13.885  11.252
 6658SOL     OW21870   5.169  13.276   5.234
 6658SOL    HW121871   5.114  13.310   5.305
 6658SOL    HW221872   5.112  13.219   5.184
 6659SOL     OW21873  10.792   8.252   9.083
 6659SOL    HW121874  10.698   8.267   9.074
 6659SOL    HW221875  10.798   8.177   9.143
 6660SOL     OW21876  14.165   9.133  14.166
 6660SOL    HW121877  14.113   9.055  14.146
 6660SOL    HW221878  14.254   9.108  14.141
 6661SOL     OW21879   0.868   5.785   4.996
 6661SOL    HW121880   0.811   5.859   5.017
 6661SOL    HW221881   0.911   5.810   4.914
 6662SOL     OW21882  13.639   8.884   6.338
 6662SOL    HW121883  13.705   8.950   6.359
 6662SOL    HW221884  13.675   8.838   6.262
 6663SOL     OW21885  10.879   0.348   9.253
 6663SOL    HW121886  10.793   0.336   9.293
 6663SOL    HW221887  10.891   0.443   9.250
 6664SOL     OW21888   5.521   8.104  13.775
 6664SOL    HW121889   5.523   8.137  13.865
 6664SOL    HW221890   5.582   8.161  13.728
 6665SOL     OW21891  13.063   0.171   2.238
 6665SOL    HW121892  12.989   0.188   2.296
 6665SOL    HW221893  13.039   0.211   2.155
 6666SOL     OW21894   6.543  10.891   3.276
 6666SOL    HW121895   6.518  10.980   3.299
 6666SOL    HW221896   6.462  10.840   3.284
 6667SOL     OW21897   7.174   1.748   6.338
 6667SOL    HW121898   7.201   1.833   6.375
 6667SOL    HW221899   7.081   1.758   6.320
 6668SOL     OW21900   4.109   7.156   8.484
 6668SOL    HW121901   4.097   7.100   8.407
 6668SOL    HW221902   4.166   7.104   8.542
 6669SOL     OW21903   2.835   4.957   0.531
 6669SOL    HW121904   2.805   4.952   0.440
 6669SOL    HW221905   2.767   4.913   0.582
 6670SOL     OW21906  10.541   5.777  13.776
 6670SOL    HW121907  10.454   5.742  13.758
 6670SOL    HW221908  10.571   5.810  13.692
 6671SOL     OW21909   8.735   7.641   3.535
 6671SOL    HW121910   8.658   7.659   3.482
 6671SOL    HW221911   8.794   7.593   3.477
 6672SOL     OW21912   4.229  14.292   7.112
 6672SOL    HW121913   4.211  14.198   7.111
 6672SOL    HW221914   4.158  14.329   7.166
 6673SOL     OW21915   7.747   8.391   0.047
 6673SOL    HW121916   7.699   8.376  14.853
 6673SOL    HW221917   7.824   8.334   0.040
 6674SOL     OW21918  12.731  10.307   5.843
 6674SOL    HW121919  12.724  10.228   5.897
 6674SOL    HW221920  12.786  10.282   5.770
 6675SOL     OW21921  14.491   7.562   4.963
 6675SOL    HW121922  14.536   7.506   5.026
 6675SOL    HW221923  14.559   7.623   4.933
 6676SOL     OW21924   9.086   9.108   7.861
 6676SOL    HW121925   9.018   9.135   7.798
 6676SOL    HW221926   9.168   9.140   7.823
 6677SOL     OW21927   8.472   2.490   6.646
 6677SOL    HW121928   8.398   2.460   6.698
 6677SOL    HW221929   8.503   2.570   6.690
 6678SOL     OW21930  14.498   3.020   7.753
 6678SOL    HW121931  14.560   2.992   7.820
 6678SOL    HW221932  14.412   3.006   7.793
 6679SOL     OW21933   3.371   8.700   6.385
 6679SOL    HW121934   3.367   8.715   6.290
 6679SOL    HW221935   3.439   8.633   6.395
 6680SOL     OW21936   7.525  14.366   5.322
 6680SOL    HW121937   7.502  14.392   5.233
 6680SOL    HW221938   7.509  14.272   5.324
 6681SOL     OW21939   6.714   9.551   5.967
 6681SOL    HW121940   6.755   9.495   6.033
 6681SOL    HW221941   6.736   9.510   5.883
 6682SOL     OW21942   0.537   9.567   1.011
 6682SOL    HW121943   0.613   9.610   1.050
 6682SOL    HW221944   0.519   9.617   0.932
 6683SOL     OW21945   7.762  13.160   9.606
 6683SOL    HW121946   7.771  13.143   9.512
 6683SOL    HW221947   7.836  13.114   9.646
 6684SOL     OW21948   3.988  12.862   4.140
 6684SOL    HW121949   4.014  12.772   4.117
 6684SOL    HW221950   4.066  12.915   4.123
 6685SOL     OW21951  11.524  12.257  10.420
 6685SOL    HW121952  11.441  12.293  10.452
 6685SOL    HW221953  11.501  12.210  10.340
 6686SOL     OW21954   9.423   4.457   3.036
 6686SOL    HW121955   9.497   4.477   3.092
 6686SOL    HW221956   9.352   4.436   3.097
 6687SOL     OW21957  11.219   3.811   8.782
 6687SOL    HW121958  11.289   3.746   8.784
 6687SOL    HW221959  11.195   3.824   8.874
 6688SOL     OW21960   0.285  10.974   4.894
 6688SOL    HW121961   0.329  10.936   4.970
 6688SOL    HW221962   0.194  10.946   4.903
 6689SOL     OW21963   0.907  12.819   1.959
 6689SOL    HW121964   0.865  12.754   2.015
 6689SOL    HW221965   0.835  12.863   1.914
 6690SOL     OW21966   0.517   2.567  10.323
 6690SOL    HW121967   0.494   2.601  10.410
 6690SOL    HW221968   0.521   2.644  10.267
 6691SOL     OW21969   8.149  11.679   5.838
 6691SOL    HW121970   8.057  11.676   5.864
 6691SOL    HW221971   8.170  11.772   5.831
 6692SOL     OW21972   0.719   1.404   6.028
 6692SOL    HW121973   0.654   1.339   6.002
 6692SOL    HW221974   0.685   1.487   5.995
 6693SOL     OW21975   4.380   9.666   0.929
 6693SOL    HW121976   4.412   9.575   0.926
 6693SOL    HW221977   4.403   9.702   0.844
 6694SOL     OW21978  11.624   4.485   6.536
 6694SOL    HW121979  11.541   4.520   6.569
 6694SOL    HW221980  11.690   4.519   6.597
 6695SOL     OW21981  10.437  11.014   3.683
 6695SOL    HW121982  10.379  11.009   3.607
 6695SOL    HW221983  10.525  11.007   3.647
 6696SOL     OW21984   3.797   8.108   4.752
 6696SOL    HW121985   3.798   8.198   4.721
 6696SOL    HW221986   3.763   8.114   4.841
 6697SOL     OW21987  10.096   5.707   8.920
 6697SOL    HW121988  10.156   5.662   8.980
 6697SOL    HW221989  10.042   5.637   8.884
 6698SOL     OW21990  10.090   6.305   1.227
 6698SOL    HW121991  10.019   6.367   1.209
 6698SOL    HW221992  10.164   6.360   1.251
 6699SOL     OW21993   8.448   5.438  14.184
 6699SOL    HW121994   8.472   5.506  14.121
 6699SOL    HW221995   8.352   5.443  14.189
 6700SOL     OW21996   6.719   0.471  14.662
 6700SOL    HW121997   6.698   0.380  14.686
 6700SOL    HW221998   6.682   0.524  14.732
 6701SOL     OW21999   6.804   6.247   0.345
 6701SOL    HW122000   6.785   6.274   0.435
 6701SOL    HW222001   6.876   6.303   0.317
 6702SOL     OW22002  14.316   3.712   9.705
 6702SOL    HW122003  14.303   3.769   9.629
 6702SOL    HW222004  14.340   3.772   9.775
 6703SOL     OW22005  10.461   4.774   3.320
 6703SOL    HW122006  10.408   4.754   3.397
 6703SOL    HW222007  10.419   4.852   3.282
 6704SOL     OW22008   4.062   4.168  12.884
 6704SOL    HW122009   4.078   4.256  12.850
 6704SOL    HW222010   3.969   4.153  12.871
 6705SOL     OW22011   0.841   9.513   4.073
 6705SOL    HW122012   0.853   9.602   4.039
 6705SOL    HW222013   0.857   9.457   3.997
 6706SOL     OW22014  12.734   6.641   7.854
 6706SOL    HW122015  12.749   6.685   7.937
 6706SOL    HW222016  12.782   6.693   7.790
 6707SOL     OW22017  11.019   7.242   4.293
 6707SOL    HW122018  10.936   7.273   4.330
 6707SOL    HW222019  11.087   7.278   4.349
 6708SOL     OW22020   0.356   8.476  11.301
 6708SOL    HW122021   0.438   8.524  11.306
 6708SOL    HW222022   0.342   8.442  11.389
 6709SOL     OW22023   0.548   4.816  11.743
 6709SOL    HW122024   0.503   4.898  11.763
 6709SOL    HW222025   0.487   4.768  11.687
 6710SOL     OW22026   5.833   8.311  11.838
 6710SOL    HW122027   5.769   8.373  11.875
 6710SOL    HW222028   5.851   8.250  11.910
 6711SOL     OW22029  14.731   9.766   3.470
 6711SOL    HW122030  14.693   9.722   3.546
 6711SOL    HW222031  14.704   9.712   3.395
 6712SOL     OW22032  13.150  14.434   7.547
 6712SOL    HW122033  13.110  14.416   7.632
 6712SOL    HW222034  13.084  14.408   7.484
 6713SOL     OW22035  13.218  11.352  11.417
 6713SOL    HW122036  13.228  11.344  11.323
 6713SOL    HW222037  13.237  11.264  11.450
 6714SOL     OW22038   1.930   6.087   5.600
 6714SOL    HW122039   2.022   6.093   5.575
 6714SOL    HW222040   1.918   6.155   5.666
 6715SOL     OW22041  12.030   9.690  10.105
 6715SOL    HW122042  11.939   9.681  10.134
 6715SOL    HW222043  12.077   9.722  10.183
 6716SOL     OW22044   6.554   9.404   4.747
 6716SOL    HW122045   6.640   9.376   4.778
 6716SOL    HW222046   6.567   9.424   4.654
 6717SOL     OW22047   9.304   9.595   7.310
 6717SOL    HW122048   9.377   9.584   7.370
 6717SOL    HW222049   9.260   9.674   7.340
 6718SOL     OW22050   8.934  13.249   2.682
 6718SOL    HW122051   8.894  13.235   2.768
 6718SOL    HW222052   8.863  13.234   2.620
 6719SOL     OW22053   7.970   0.688   8.493
 6719SOL    HW122054   8.010   0.636   8.423
 6719SOL    HW222055   7.880   0.703   8.464
 6720SOL     OW22056  11.453   7.204   1.870
 6720SOL    HW122057  11.465   7.292   1.905
 6720SOL    HW222058  11.358   7.193   1.864
 6721SOL     OW22059   2.158   9.335   1.991
 6721SOL    HW122060   2.113   9.281   1.926
 6721SOL    HW222061   2.096   9.342   2.064
 6722SOL     OW22062  13.198   5.556   5.641
 6722SOL    HW122063  13.168   5.469   5.667
 6722SOL    HW222064  13.220   5.599   5.724
 6723SOL     OW22065   3.315  10.223   9.580
 6723SOL    HW122066   3.267  10.277   9.643
 6723SOL    HW222067   3.338  10.144   9.629
 6724SOL     OW22068   9.108   5.966   2.855
 6724SOL    HW122069   9.019   6.002   2.857
 6724SOL    HW222070   9.112   5.908   2.931
 6725SOL     OW22071   6.883  13.157   6.525
 6725SOL    HW122072   6.857  13.075   6.484
 6725SOL    HW222073   6.930  13.205   6.456
 6726SOL     OW22074   4.969   3.158   3.542
 6726SOL    HW122075   5.039   3.189   3.484
 6726SOL    HW222076   5.016   3.121   3.617
 6727SOL     OW22077  13.474   8.484   8.382
 6727SOL    HW122078  13.410   8.466   8.451
 6727SOL    HW222079  13.451   8.424   8.311
 6728SOL     OW22080   0.510  13.347   6.065
 6728SOL    HW122081   0.450  13.406   6.110
 6728SOL    HW222082   0.597  13.381   6.084
 6729SOL     OW22083   9.777   4.490   4.335
 6729SOL    HW122084   9.767   4.425   4.404
 6729SOL    HW222085   9.714   4.559   4.358
 6730SOL     OW22086  14.320   6.233  14.471
 6730SOL    HW122087  14.414   6.215  14.469
 6730SOL    HW222088  14.280   6.156  14.431
 6731SOL     OW22089   3.229  11.921  13.485
 6731SOL    HW122090   3.299  11.984  13.505
 6731SOL    HW222091   3.218  11.926  13.390
 6732SOL     OW22092   0.593  10.859   3.468
 6732SOL    HW122093   0.629  10.824   3.387
 6732SOL    HW222094   0.666  10.854   3.530
 6733SOL     OW22095   1.085   6.812  14.206
 6733SOL    HW122096   1.073   6.747  14.137
 6733SOL    HW222097   1.104   6.761  14.285
 6734SOL     OW22098  10.695   8.230   5.026
 6734SOL    HW122099  10.707   8.175   5.103
 6734SOL    HW222100  10.758   8.197   4.962
 6735SOL     OW22101   7.189   1.540   0.696
 6735SOL    HW122102   7.223   1.605   0.634
 6735SOL    HW222103   7.103   1.573   0.721
 6736SOL     OW22104   3.225  14.452   7.890
 6736SOL    HW122105   3.264  14.537   7.870
 6736SOL    HW222106   3.190  14.422   7.806
 6737SOL     OW22107  11.358   2.023  13.466
 6737SOL    HW122108  11.373   2.113  13.493
 6737SOL    HW222109  11.443   1.980  13.475
 6738SOL     OW22110   9.409   6.003   7.005
 6738SOL    HW122111   9.466   5.927   7.013
 6738SOL    HW222112   9.363   6.008   7.089
 6739SOL     OW22113   3.720   8.151   5.471
 6739SOL    HW122114   3.787   8.113   5.528
 6739SOL    HW222115   3.648   8.172   5.531
 6740SOL     OW22116   6.435   9.659  13.743
 6740SOL    HW122117   6.462   9.741  13.783
 6740SOL    HW222118   6.347   9.675  13.710
 6741SOL     OW22119   7.026   0.929   0.589
 6741SOL    HW122120   7.010   0.842   0.626
 6741SOL    HW222121   7.114   0.952   0.621
 6742SOL     OW22122   9.722   2.262  13.229
 6742SOL    HW122123   9.718   2.328  13.160
 6742SOL    HW222124   9.635   2.222  13.228
 6743SOL     OW22125   2.811   2.305   6.300
 6743SOL    HW122126   2.860   2.303   6.382
 6743SOL    HW222127   2.792   2.398   6.286
 6744SOL     OW22128   1.849   4.852  10.507
 6744SOL    HW122129   1.821   4.891  10.590
 6744SOL    HW222130   1.768   4.820  10.467
 6745SOL     OW22131   5.243   6.545   4.804
 6745SOL    HW122132   5.149   6.556   4.791
 6745SOL    HW222133   5.251   6.490   4.882
 6746SOL     OW22134  12.024   2.237  13.470
 6746SOL    HW122135  11.989   2.282  13.393
 6746SOL    HW222136  12.114   2.215  13.446
 6747SOL     OW22137   8.920   5.795   4.635
 6747SOL    HW122138   8.969   5.728   4.589
 6747SOL    HW222139   8.834   5.756   4.651
 6748SOL     OW22140  12.196   2.535   9.810
 6748SOL    HW122141  12.209   2.442   9.829
 6748SOL    HW222142  12.284   2.569   9.795
 6749SOL     OW22143   5.790   5.674  11.073
 6749SOL    HW122144   5.860   5.736  11.095
 6749SOL    HW222145   5.823   5.627  10.996
 6750SOL     OW22146  12.514   3.933  11.825
 6750SOL    HW122147  12.487   3.940  11.734
 6750SOL    HW222148  12.486   3.846  11.853
 6751SOL     OW22149   0.561  10.371   6.454
 6751SOL    HW122150   0.480  10.346   6.499
 6751SOL    HW222151   0.533  10.434   6.388
 6752SOL     OW22152   5.661   5.603   3.990
 6752SOL    HW122153   5.717   5.676   4.017
 6752SOL    HW222154   5.715   5.551   3.931
 6753SOL     OW22155   9.403   9.165   3.081
 6753SOL    HW122156   9.322   9.216   3.085
 6753SOL    HW222157   9.413   9.129   3.168
 6754SOL     OW22158  13.383   0.154   8.405
 6754SOL    HW122159  13.381   0.163   8.500
 6754SOL    HW222160  13.464   0.105   8.387
 6755SOL     OW22161   3.366   1.588   8.854
 6755SOL    HW122162   3.448   1.619   8.891
 6755SOL    HW222163   3.391   1.515   8.798
 6756SOL     OW22164   6.147  10.899   8.555
 6756SOL    HW122165   6.155  10.939   8.642
 6756SOL    HW222166   6.193  10.815   8.563
 6757SOL     OW22167   8.075   5.101   3.938
 6757SOL    HW122168   8.121   5.150   3.870
 6757SOL    HW222169   7.990   5.080   3.899
 6758SOL     OW22170  11.254   4.832  14.204
 6758SOL    HW122171  11.328   4.773  14.191
 6758SOL    HW222172  11.267   4.902  14.140
 6759SOL     OW22173   1.680   1.439   4.025
 6759SOL    HW122174   1.688   1.518   3.972
 6759SOL    HW222175   1.617   1.462   4.093
 6760SOL     OW22176   0.075   1.412  12.717
 6760SOL    HW122177   0.015   1.390  12.646
 6760SOL    HW222178   0.148   1.457  12.673
 6761SOL     OW22179  10.215  12.011  13.300
 6761SOL    HW122180  10.175  12.099  13.300
 6761SOL    HW222181  10.290  12.019  13.241
 6762SOL     OW22182   3.249   5.360   2.902
 6762SOL    HW122183   3.259   5.265   2.902
 6762SOL    HW222184   3.324   5.392   2.852
 6763SOL     OW22185  10.353  13.598   8.683
 6763SOL    HW122186  10.339  13.508   8.656
 6763SOL    HW222187  10.448  13.611   8.673
 6764SOL     OW22188   9.833   1.426  12.329
 6764SOL    HW122189   9.805   1.349  12.280
 6764SOL    HW222190   9.765   1.438  12.396
 6765SOL     OW22191   0.262   7.535   6.820
 6765SOL    HW122192   0.238   7.558   6.731
 6765SOL    HW222193   0.179   7.523   6.866
 6766SOL     OW22194   8.048   8.707   0.775
 6766SOL    HW122195   8.027   8.764   0.702
 6766SOL    HW222196   7.969   8.709   0.830
 6767SOL     OW22197   3.000   5.788   9.650
 6767SOL    HW122198   2.964   5.868   9.688
 6767SOL    HW222199   3.091   5.785   9.680
 6768SOL     OW22200   3.502   4.311  11.667
 6768SOL    HW122201   3.426   4.274  11.712
 6768SOL    HW222202   3.470   4.392  11.627
 6769SOL     OW22203   1.391   5.627   1.921
 6769SOL    HW122204   1.356   5.698   1.975
 6769SOL    HW222205   1.473   5.662   1.886
 6770SOL     OW22206   6.945   6.242   9.817
 6770SOL    HW122207   6.975   6.288   9.739
 6770SOL    HW222208   6.945   6.308   9.886
 6771SOL     OW22209   3.591   4.196   3.257
 6771SOL    HW122210   3.571   4.277   3.209
 6771SOL    HW222211   3.677   4.169   3.224
 6772SOL     OW22212  11.956   3.457   5.913
 6772SOL    HW122213  11.980   3.498   5.830
 6772SOL    HW222214  11.884   3.398   5.891
 6773SOL     OW22215  14.392   3.378  14.468
 6773SOL    HW122216  14.474   3.426  14.460
 6773SOL    HW222217  14.404   3.321  14.544
 6774SOL     OW22218   3.883   2.299   0.936
 6774SOL    HW122219   3.893   2.313   0.842
 6774SOL    HW222220   3.965   2.332   0.973
 6775SOL     OW22221  10.515  11.126   5.783
 6775SOL    HW122222  10.452  11.177   5.733
 6775SOL    HW222223  10.601  11.160   5.757
 6776SOL     OW22224  12.788   7.790  13.327
 6776SOL    HW122225  12.797   7.780  13.422
 6776SOL    HW222226  12.777   7.884  13.314
 6777SOL     OW22227   0.194  13.738   4.566
 6777SOL    HW122228   0.166  13.829   4.557
 6777SOL    HW222229   0.189  13.720   4.659
 6778SOL     OW22230   6.178  10.610   7.538
 6778SOL    HW122231   6.152  10.576   7.452
 6778SOL    HW222232   6.125  10.688   7.550
 6779SOL     OW22233  10.984   6.058   4.966
 6779SOL    HW122234  11.035   6.050   4.885
 6779SOL    HW222235  10.991   5.972   5.007
 6780SOL     OW22236   2.026   7.247   7.182
 6780SOL    HW122237   2.098   7.187   7.163
 6780SOL    HW222238   2.011   7.239   7.276
 6781SOL     OW22239   6.134  13.465   4.513
 6781SOL    HW122240   6.157  13.424   4.597
 6781SOL    HW222241   6.059  13.414   4.482
 6782SOL     OW22242   3.630   0.789  13.024
 6782SOL    HW122243   3.637   0.883  13.009
 6782SOL    HW222244   3.537   0.774  13.040
 6783SOL     OW22245   7.535  12.473   2.094
 6783SOL    HW122246   7.605  12.408   2.102
 6783SOL    HW222247   7.572  12.541   2.036
 6784SOL     OW22248  13.823   6.772   2.444
 6784SOL    HW122249  13.904   6.723   2.426
 6784SOL    HW222250  13.761   6.706   2.474
 6785SOL     OW22251  10.945   5.201  12.495
 6785SOL    HW122252  10.988   5.285  12.515
 6785SOL    HW222253  10.886   5.187  12.570
 6786SOL     OW22254  10.454   9.076   7.849
 6786SOL    HW122255  10.428   9.004   7.907
 6786SOL    HW222256  10.432   9.045   7.761
 6787SOL     OW22257   2.646   2.093   6.415
 6787SOL    HW122258   2.704   2.168   6.401
 6787SOL    HW222259   2.606   2.109   6.501
 6788SOL     OW22260   3.368  12.965   4.222
 6788SOL    HW122261   3.396  12.958   4.131
 6788SOL    HW222262   3.428  13.029   4.261
 6789SOL     OW22263  10.757   2.260   1.423
 6789SOL    HW122264  10.845   2.263   1.384
 6789SOL    HW222265  10.763   2.193   1.491
 6790SOL     OW22266  13.217   2.098  13.029
 6790SOL    HW122267  13.211   2.191  13.053
 6790SOL    HW222268  13.137   2.059  13.062
 6791SOL     OW22269  14.169  13.033  12.820
 6791SOL    HW122270  14.075  13.044  12.831
 6791SOL    HW222271  14.177  12.970  12.748
 6792SOL     OW22272   8.588  12.262  14.340
 6792SOL    HW122273   8.635  12.178  14.345
 6792SOL    HW222274   8.595  12.299  14.428
 6793SOL     OW22275   1.206   7.479   1.554
 6793SOL    HW122276   1.163   7.398   1.580
 6793SOL    HW222277   1.300   7.459   1.556
 6794SOL     OW22278   4.983   0.175  13.423
 6794SOL    HW122279   5.027   0.222  13.494
 6794SOL    HW222280   5.054   0.151  13.363
 6795SOL     OW22281  10.077   6.489  13.408
 6795SOL    HW122282  10.048   6.407  13.449
 6795SOL    HW222283  10.126   6.461  13.331
 6796SOL     OW22284   4.422   1.045  12.864
 6796SOL    HW122285   4.391   1.048  12.954
 6796SOL    HW222286   4.461   1.132  12.849
 6797SOL     OW22287  10.946   9.724  14.649
 6797SOL    HW122288  10.925   9.816  14.665
 6797SOL    HW222289  10.869   9.677  14.681
 6798SOL     OW22290  12.715  12.661  11.249
 6798SOL    HW122291  12.650  12.673  11.318
 6798SOL    HW222292  12.797  12.694  11.287
 6799SOL     OW22293  13.815   9.578  12.957
 6799SOL    HW122294  13.885   9.529  13.002
 6799SOL    HW222295  13.791   9.647  13.019
 6800SOL     OW22296  11.091   7.509   1.072
 6800SOL    HW122297  11.080   7.540   0.983
 6800SOL    HW222298  11.082   7.414   1.066
 6801SOL     OW22299   8.271   0.480   5.099
 6801SOL    HW122300   8.251   0.517   5.013
 6801SOL    HW222301   8.253   0.550   5.160
 6802SOL     OW22302   1.910   3.418   1.145
 6802SOL    HW122303   1.873   3.377   1.223
 6802SOL    HW222304   1.900   3.352   1.076
 6803SOL     OW22305   0.772   0.201   7.762
 6803SOL    HW122306   0.705   0.244   7.816
 6803SOL    HW222307   0.754   0.108   7.771
 6804SOL     OW22308  10.339   8.334   8.856
 6804SOL    HW122309  10.399   8.406   8.836
 6804SOL    HW222310  10.368   8.263   8.799
 6805SOL     OW22311   3.949  14.064   8.130
 6805SOL    HW122312   3.901  14.112   8.063
 6805SOL    HW222313   3.906  14.088   8.212
 6806SOL     OW22314   7.636   4.303   7.923
 6806SOL    HW122315   7.697   4.258   7.982
 6806SOL    HW222316   7.654   4.265   7.837
 6807SOL     OW22317   7.311   8.280   6.099
 6807SOL    HW122318   7.222   8.295   6.131
 6807SOL    HW222319   7.365   8.344   6.146
 6808SOL     OW22320  12.433  13.492   8.512
 6808SOL    HW122321  12.356  13.472   8.565
 6808SOL    HW222322  12.452  13.584   8.531
 6809SOL     OW22323   7.619   9.683  14.437
 6809SOL    HW122324   7.557   9.644  14.498
 6809SOL    HW222325   7.696   9.703  14.491
 6810SOL     OW22326   5.358   8.509   1.264
 6810SOL    HW122327   5.264   8.526   1.265
 6810SOL    HW222328   5.369   8.443   1.196
 6811SOL     OW22329   4.889   1.747   3.135
 6811SOL    HW122330   4.937   1.726   3.055
 6811SOL    HW222331   4.952   1.792   3.190
 6812SOL     OW22332  11.696  11.136   7.230
 6812SOL    HW122333  11.660  11.121   7.142
 6812SOL    HW222334  11.638  11.201   7.269
 6813SOL     OW22335  10.068  13.975   6.870
 6813SOL    HW122336  10.017  13.994   6.949
 6813SOL    HW222337  10.011  14.002   6.798
 6814SOL     OW22338   6.188   7.586   5.794
 6814SOL    HW122339   6.128   7.524   5.834
 6814SOL    HW222340   6.265   7.585   5.851
 6815SOL     OW22341   3.902  13.016   8.810
 6815SOL    HW122342   3.839  13.013   8.738
 6815SOL    HW222343   3.983  13.047   8.770
 6816SOL     OW22344   1.418  11.540  13.891
 6816SOL    HW122345   1.396  11.588  13.811
 6816SOL    HW222346   1.384  11.451  13.875
 6817SOL     OW22347   2.390   7.829   6.091
 6817SOL    HW122348   2.325   7.836   6.161
 6817SOL    HW222349   2.461   7.886   6.118
 6818SOL     OW22350   0.164   8.767   7.275
 6818SOL    HW122351   0.216   8.814   7.341
 6818SOL    HW222352   0.154   8.829   7.203
 6819SOL     OW22353   9.430   1.290   0.877
 6819SOL    HW122354   9.395   1.308   0.964
 6819SOL    HW222355   9.363   1.323   0.817
 6820SOL     OW22356  14.564  12.008   4.240
 6820SOL    HW122357  14.538  12.007   4.332
 6820SOL    HW222358  14.633  11.942   4.234
 6821SOL     OW22359   2.327  11.396   1.107
 6821SOL    HW122360   2.389  11.463   1.081
 6821SOL    HW222361   2.382  11.323   1.136
 6822SOL     OW22362  10.364  12.175   1.154
 6822SOL    HW122363  10.411  12.134   1.082
 6822SOL    HW222364  10.421  12.246   1.183
 6823SOL     OW22365   2.414   2.891  10.926
 6823SOL    HW122366   2.432   2.844  10.845
 6823SOL    HW222367   2.350   2.836  10.972
 6824SOL     OW22368   3.385   7.282   2.286
 6824SOL    HW122369   3.358   7.194   2.261
 6824SOL    HW222370   3.479   7.277   2.297
 6825SOL     OW22371  12.427   2.739   1.880
 6825SOL    HW122372  12.416   2.681   1.805
 6825SOL    HW222373  12.355   2.717   1.939
 6826SOL     OW22374   0.095   1.698   9.410
 6826SOL    HW122375   0.147   1.689   9.330
 6826SOL    HW222376   0.043   1.618   9.414
 6827SOL     OW22377   4.066   2.153   2.233
 6827SOL    HW122378   4.063   2.217   2.303
 6827SOL    HW222379   4.156   2.120   2.234
 6828SOL     OW22380   4.985  14.328   4.355
 6828SOL    HW122381   4.948  14.323   4.443
 6828SOL    HW222382   5.074  14.360   4.368
 6829SOL     OW22383   3.450   1.655   6.431
 6829SOL    HW122384   3.377   1.702   6.389
 6829SOL    HW222385   3.411   1.615   6.509
 6830SOL     OW22386   0.435  12.537   9.861
 6830SOL    HW122387   0.441  12.493   9.945
 6830SOL    HW222388   0.524  12.533   9.825
 6831SOL     OW22389   0.841  11.592   0.885
 6831SOL    HW122390   0.903  11.663   0.897
 6831SOL    HW222391   0.888  11.513   0.910
 6832SOL     OW22392  10.354  12.240   2.232
 6832SOL    HW122393  10.285  12.186   2.193
 6832SOL    HW222394  10.308  12.319   2.261
 6833SOL     OW22395   1.693   6.769   5.905
 6833SOL    HW122396   1.760   6.790   5.840
 6833SOL    HW222397   1.706   6.833   5.975
 6834SOL     OW22398   8.360   5.960  12.158
 6834SOL    HW122399   8.282   5.936  12.208
 6834SOL    HW222400   8.429   5.903  12.191
 6835SOL     OW22401   7.790  12.679   1.860
 6835SOL    HW122402   7.865  12.622   1.841
 6835SOL    HW222403   7.821  12.735   1.932
 6836SOL     OW22404   8.262  13.928   4.432
 6836SOL    HW122405   8.278  13.837   4.458
 6836SOL    HW222406   8.316  13.940   4.354
 6837SOL     OW22407   8.817  13.491  11.076
 6837SOL    HW122408   8.772  13.415  11.039
 6837SOL    HW222409   8.781  13.566  11.029
 6838SOL     OW22410   2.206   4.990  12.644
 6838SOL    HW122411   2.136   5.023  12.588
 6838SOL    HW222412   2.162   4.934  12.707
 6839SOL     OW22413   1.379  14.096   8.762
 6839SOL    HW122414   1.371  14.144   8.680
 6839SOL    HW222415   1.316  14.024   8.754
 6840SOL     OW22416   5.110   0.052   9.498
 6840SOL    HW122417   5.132  14.869   9.437
 6840SOL    HW222418   5.026   0.025   9.536
 6841SOL     OW22419  10.380  12.885   2.511
 6841SOL    HW122420  10.402  12.851   2.598
 6841SOL    HW222421  10.415  12.974   2.510
 6842SOL     OW22422  13.144  11.803   7.426
 6842SOL    HW122423  13.049  11.818   7.426
 6842SOL    HW222424  13.179  11.871   7.484
 6843SOL     OW22425  10.040   1.138  12.214
 6843SOL    HW122426   9.948   1.165  12.217
 6843SOL    HW222427  10.077   1.188  12.140
 6844SOL     OW22428   0.914   9.008   3.729
 6844SOL    HW122429   0.995   8.973   3.692
 6844SOL    HW222430   0.937   9.096   3.759
 6845SOL     OW22431  11.820   2.240   1.129
 6845SOL    HW122432  11.725   2.252   1.135
 6845SOL    HW222433  11.834   2.150   1.156
 6846SOL     OW22434   3.331  13.482   4.472
 6846SOL    HW122435   3.271  13.478   4.398
 6846SOL    HW222436   3.309  13.405   4.525
 6847SOL     OW22437   6.373   5.186  11.341
 6847SOL    HW122438   6.346   5.220  11.256
 6847SOL    HW222439   6.459   5.148  11.325
 6848SOL     OW22440  13.044   0.665  10.703
 6848SOL    HW122441  13.025   0.677  10.610
 6848SOL    HW222442  12.962   0.630  10.739
 6849SOL     OW22443   8.897   8.266  11.874
 6849SOL    HW122444   8.888   8.238  11.965
 6849SOL    HW222445   8.859   8.194  11.823
 6850SOL     OW22446   6.309   0.624  14.658
 6850SOL    HW122447   6.401   0.648  14.647
 6850SOL    HW222448   6.265   0.667  14.585
 6851SOL     OW22449  12.255   3.871  11.478
 6851SOL    HW122450  12.173   3.903  11.516
 6851SOL    HW222451  12.305   3.950  11.458
 6852SOL     OW22452  11.162  13.976   1.710
 6852SOL    HW122453  11.228  14.037   1.743
 6852SOL    HW222454  11.086  13.991   1.767
 6853SOL     OW22455  12.141  13.102  10.440
 6853SOL    HW122456  12.085  13.120  10.515
 6853SOL    HW222457  12.172  13.188  10.412
 6854SOL     OW22458   5.215   9.918   7.936
 6854SOL    HW122459   5.170   9.936   7.854
 6854SOL    HW222460   5.213   9.822   7.944
 6855SOL     OW22461  11.070  14.742   3.062
 6855SOL    HW122462  11.013  14.665   3.067
 6855SOL    HW222463  11.154  14.713   3.098
 6856SOL     OW22464   0.759   9.757   1.634
 6856SOL    HW122465   0.728   9.717   1.552
 6856SOL    HW222466   0.723   9.701   1.703
 6857SOL     OW22467   3.268  14.833   2.994
 6857SOL    HW122468   3.261  14.868   3.083
 6857SOL    HW222469   3.354  14.793   2.990
 6858SOL     OW22470   0.167  10.330   1.378
 6858SOL    HW122471   0.175  10.348   1.284
 6858SOL    HW222472   0.079  10.359   1.400
 6859SOL     OW22473   9.504  13.951   5.134
 6859SOL    HW122474   9.580  13.945   5.076
 6859SOL    HW222475   9.540  13.982   5.217
 6860SOL     OW22476  14.291   2.578   5.823
 6860SOL    HW122477  14.334   2.509   5.773
 6860SOL    HW222478  14.198   2.570   5.801
 6861SOL     OW22479   9.224  13.161  12.002
 6861SOL    HW122480   9.308  13.115  12.008
 6861SOL    HW222481   9.228  13.227  12.071
 6862SOL     OW22482   7.886   2.564   6.695
 6862SOL    HW122483   7.978   2.573   6.720
 6862SOL    HW222484   7.858   2.481   6.734
 6863SOL     OW22485   2.436  11.897   8.716
 6863SOL    HW122486   2.401  11.966   8.660
 6863SOL    HW222487   2.525  11.882   8.684
 6864SOL     OW22488   1.851   5.054  13.157
 6864SOL    HW122489   1.927   5.091  13.112
 6864SOL    HW222490   1.887   5.008  13.232
 6865SOL     OW22491   1.681   3.418  14.830
 6865SOL    HW122492   1.684   3.500  14.781
 6865SOL    HW222493   1.627   3.359  14.778
 6866SOL     OW22494   7.672  13.171  14.116
 6866SOL    HW122495   7.611  13.098  14.126
 6866SOL    HW222496   7.630  13.230  14.054
 6867SOL     OW22497   9.913   3.260   4.221
 6867SOL    HW122498   9.930   3.166   4.233
 6867SOL    HW222499   9.945   3.278   4.132
 6868SOL     OW22500   1.868   5.311   8.981
 6868SOL    HW122501   1.898   5.279   9.066
 6868SOL    HW222502   1.802   5.377   9.002
 6869SOL     OW22503   9.041   1.822   4.645
 6869SOL    HW122504   8.986   1.848   4.572
 6869SOL    HW222505   9.088   1.902   4.669
 6870SOL     OW22506   3.718   9.483  12.514
 6870SOL    HW122507   3.708   9.542  12.588
 6870SOL    HW222508   3.641   9.427  12.516
 6871SOL     OW22509   3.683   6.677   9.515
 6871SOL    HW122510   3.614   6.697   9.452
 6871SOL    HW222511   3.749   6.630   9.465
 6872SOL     OW22512   6.867  13.776  14.698
 6872SOL    HW122513   6.828  13.837  14.760
 6872SOL    HW222514   6.809  13.780  14.621
 6873SOL     OW22515   8.746  13.166   6.731
 6873SOL    HW122516   8.686  13.192   6.801
 6873SOL    HW222517   8.714  13.213   6.654
 6874SOL     OW22518   4.741  10.475  10.879
 6874SOL    HW122519   4.664  10.451  10.931
 6874SOL    HW222520   4.780  10.391  10.854
 6875SOL     OW22521  14.030  10.860  12.607
 6875SOL    HW122522  14.053  10.913  12.531
 6875SOL    HW222523  13.934  10.865  12.612
 6876SOL     OW22524  14.476   8.229   8.512
 6876SOL    HW122525  14.441   8.235   8.424
 6876SOL    HW222526  14.523   8.311   8.525
 6877SOL     OW22527  12.894  13.118  11.667
 6877SOL    HW122528  12.885  13.141  11.574
 6877SOL    HW222529  12.988  13.102  11.678
 6878SOL     OW22530   5.272   0.751  11.496
 6878SOL    HW122531   5.281   0.747  11.401
 6878SOL    HW222532   5.323   0.828  11.521
 6879SOL     OW22533  11.337  11.396   4.667
 6879SOL    HW122534  11.370  11.438   4.587
 6879SOL    HW222535  11.243  11.384   4.650
 6880SOL     OW22536  13.571  14.258   9.925
 6880SOL    HW122537  13.592  14.198   9.853
 6880SOL    HW222538  13.574  14.345   9.885
 6881SOL     OW22539  12.569   6.249   1.892
 6881SOL    HW122540  12.503   6.206   1.948
 6881SOL    HW222541  12.597   6.326   1.942
 6882SOL     OW22542   4.520   6.804   3.235
 6882SOL    HW122543   4.516   6.899   3.222
 6882SOL    HW222544   4.472   6.789   3.316
 6883SOL     OW22545   4.567   0.650   5.354
 6883SOL    HW122546   4.556   0.716   5.286
 6883SOL    HW222547   4.545   0.695   5.435
 6884SOL     OW22548  12.827   8.070   9.822
 6884SOL    HW122549  12.769   8.090   9.896
 6884SOL    HW222550  12.797   7.985   9.790
 6885SOL     OW22551   9.147   6.526   4.720
 6885SOL    HW122552   9.228   6.499   4.763
 6885SOL    HW222553   9.092   6.448   4.721
 6886SOL     OW22554  12.763   0.906  12.555
 6886SOL    HW122555  12.843   0.854  12.548
 6886SOL    HW222556  12.715   0.866  12.628
 6887SOL     OW22557  12.777   3.397   8.532
 6887SOL    HW122558  12.769   3.478   8.483
 6887SOL    HW222559  12.871   3.384   8.543
 6888SOL     OW22560   5.096  13.800  12.898
 6888SOL    HW122561   5.045  13.867  12.854
 6888SOL    HW222562   5.085  13.818  12.991
 6889SOL     OW22563   5.348   6.125  13.763
 6889SOL    HW122564   5.339   6.036  13.729
 6889SOL    HW222565   5.325   6.118  13.856
 6890SOL     OW22566  10.191  14.255   9.509
 6890SOL    HW122567  10.207  14.281   9.600
 6890SOL    HW222568  10.125  14.186   9.516
 6891SOL     OW22569  14.565  13.088   0.676
 6891SOL    HW122570  14.548  13.142   0.600
 6891SOL    HW222571  14.606  13.008   0.641
 6892SOL     OW22572  11.278   3.114   7.205
 6892SOL    HW122573  11.333   3.135   7.280
 6892SOL    HW222574  11.229   3.194   7.187
 6893SOL     OW22575  11.061   3.799  11.955
 6893SOL    HW122576  11.096   3.736  11.893
 6893SOL    HW222577  10.970   3.813  11.927
 6894SOL     OW22578  11.042   1.621  11.207
 6894SOL    HW122579  10.953   1.599  11.233
 6894SOL    HW222580  11.033   1.695  11.148
 6895SOL     OW22581  13.147  10.109   2.211
 6895SOL    HW122582  13.227  10.089   2.260
 6895SOL    HW222583  13.095  10.029   2.217
 6896SOL     OW22584   7.530   0.079   9.954
 6896SOL    HW122585   7.620   0.112   9.957
 6896SOL    HW222586   7.539  14.873   9.933
 6897SOL     OW22587   6.563   8.271   3.613
 6897SOL    HW122588   6.615   8.295   3.537
 6897SOL    HW222589   6.498   8.342   3.621
 6898SOL     OW22590   0.409   6.521   6.711
 6898SOL    HW122591   0.448   6.599   6.749
 6898SOL    HW222592   0.406   6.458   6.783
 6899SOL     OW22593  12.517   5.688  14.790
 6899SOL    HW122594  12.565   5.751  14.844
 6899SOL    HW222595  12.446   5.739  14.752
 6900SOL     OW22596   4.081   9.969   5.917
 6900SOL    HW122597   4.020   9.896   5.911
 6900SOL    HW222598   4.026  10.045   5.932
 6901SOL     OW22599   8.578   9.056  10.872
 6901SOL    HW122600   8.609   9.019  10.955
 6901SOL    HW222601   8.626   9.007  10.805
 6902SOL     OW22602   8.570  10.160  10.703
 6902SOL    HW122603   8.507  10.101  10.660
 6902SOL    HW222604   8.635  10.179  10.636
 6903SOL     OW22605   6.618   3.909   2.163
 6903SOL    HW122606   6.654   3.945   2.081
 6903SOL    HW222607   6.695   3.899   2.220
 6904SOL     OW22608  11.566   5.798   3.633
 6904SOL    HW122609  11.476   5.821   3.657
 6904SOL    HW222610  11.559   5.768   3.543
 6905SOL     OW22611  13.768   1.641   5.094
 6905SOL    HW122612  13.732   1.559   5.127
 6905SOL    HW222613  13.815   1.678   5.168
 6906SOL     OW22614   3.761   4.094   5.798
 6906SOL    HW122615   3.802   4.178   5.780
 6906SOL    HW222616   3.786   4.073   5.888
 6907SOL     OW22617   6.123   4.769  12.500
 6907SOL    HW122618   6.106   4.814  12.583
 6907SOL    HW222619   6.165   4.835  12.445
 6908SOL     OW22620   7.185  14.187   1.470
 6908SOL    HW122621   7.195  14.108   1.523
 6908SOL    HW222622   7.273  14.222   1.463
 6909SOL     OW22623   9.253   5.560   9.163
 6909SOL    HW122624   9.215   5.485   9.208
 6909SOL    HW222625   9.199   5.572   9.085
 6910SOL     OW22626   4.255   8.360   2.085
 6910SOL    HW122627   4.215   8.447   2.094
 6910SOL    HW222628   4.340   8.368   2.129
 6911SOL     OW22629  13.745  12.033   9.459
 6911SOL    HW122630  13.685  12.003   9.391
 6911SOL    HW222631  13.831  12.001   9.432
 6912SOL     OW22632  11.218   5.664   7.202
 6912SOL    HW122633  11.134   5.656   7.156
 6912SOL    HW222634  11.237   5.575   7.232
 6913SOL     OW22635  10.901   9.160  11.348
 6913SOL    HW122636  10.967   9.169  11.417
 6913SOL    HW222637  10.868   9.248  11.334
 6914SOL     OW22638   7.416   9.802  11.327
 6914SOL    HW122639   7.499   9.832  11.366
 6914SOL    HW222640   7.437   9.717  11.289
 6915SOL     OW22641   4.064   0.866   1.087
 6915SOL    HW122642   4.043   0.918   1.164
 6915SOL    HW222643   4.048   0.925   1.013
 6916SOL     OW22644   0.694  12.979   9.353
 6916SOL    HW122645   0.623  13.004   9.412
 6916SOL    HW222646   0.668  13.012   9.268
 6917SOL     OW22647   6.861   9.703   7.655
 6917SOL    HW122648   6.941   9.673   7.613
 6917SOL    HW222649   6.809   9.740   7.584
 6918SOL     OW22650   1.568  13.079   2.910
 6918SOL    HW122651   1.638  13.014   2.907
 6918SOL    HW222652   1.586  13.130   2.989
 6919SOL     OW22653   2.294   6.397  14.006
 6919SOL    HW122654   2.241   6.410  14.085
 6919SOL    HW222655   2.278   6.307  13.980
 6920SOL     OW22656   2.290   1.382   3.664
 6920SOL    HW122657   2.347   1.310   3.689
 6920SOL    HW222658   2.240   1.349   3.590
 6921SOL     OW22659  10.597  10.942  13.791
 6921SOL    HW122660  10.669  10.986  13.746
 6921SOL    HW222661  10.542  11.013  13.825
 6922SOL     OW22662   1.846   0.163   9.726
 6922SOL    HW122663   1.940   0.145   9.724
 6922SOL    HW222664   1.819   0.145   9.816
 6923SOL     OW22665   5.241  14.015  13.069
 6923SOL    HW122666   5.297  13.990  12.996
 6923SOL    HW222667   5.301  14.025  13.144
 6924SOL     OW22668   3.481   6.150   0.593
 6924SOL    HW122669   3.425   6.226   0.609
 6924SOL    HW222670   3.422   6.086   0.553
 6925SOL     OW22671   9.847  11.848  14.196
 6925SOL    HW122672   9.911  11.900  14.245
 6925SOL    HW222673   9.886  11.838  14.109
 6926SOL     OW22674   5.169   4.426  13.261
 6926SOL    HW122675   5.235   4.396  13.199
 6926SOL    HW222676   5.218   4.479  13.324
 6927SOL     OW22677   2.007   5.473  14.620
 6927SOL    HW122678   1.972   5.435  14.539
 6927SOL    HW222679   2.085   5.522  14.592
 6928SOL     OW22680   9.301  14.032   6.274
 6928SOL    HW122681   9.260  14.061   6.355
 6928SOL    HW222682   9.348  13.952   6.298
 6929SOL     OW22683   4.342   2.516   7.831
 6929SOL    HW122684   4.376   2.491   7.917
 6929SOL    HW222685   4.316   2.607   7.841
 6930SOL     OW22686  11.788  11.875   4.437
 6930SOL    HW122687  11.865  11.926   4.463
 6930SOL    HW222688  11.744  11.928   4.371
 6931SOL     OW22689   4.032   6.495   0.047
 6931SOL    HW122690   3.954   6.471  14.884
 6931SOL    HW222691   3.997   6.531   0.129
 6932SOL     OW22692  11.149   4.541   2.335
 6932SOL    HW122693  11.179   4.522   2.424
 6932SOL    HW222694  11.220   4.510   2.279
 6933SOL     OW22695   1.081   1.703   0.780
 6933SOL    HW122696   1.152   1.738   0.834
 6933SOL    HW222697   1.005   1.703   0.837
 6934SOL     OW22698   0.289   9.798   5.171
 6934SOL    HW122699   0.241   9.779   5.090
 6934SOL    HW222700   0.378   9.816   5.141
 6935SOL     OW22701  11.220   7.912   1.932
 6935SOL    HW122702  11.293   7.869   1.887
 6935SOL    HW222703  11.145   7.856   1.915
 6936SOL     OW22704   5.200   0.922   1.692
 6936SOL    HW122705   5.217   0.916   1.598
 6936SOL    HW222706   5.106   0.905   1.701
 6937SOL     OW22707  12.446   4.606  14.568
 6937SOL    HW122708  12.373   4.604  14.630
 6937SOL    HW222709  12.481   4.517  14.568
 6938SOL     OW22710   9.106  13.034  11.223
 6938SOL    HW122711   9.193  13.006  11.192
 6938SOL    HW222712   9.061  12.952  11.244
 6939SOL     OW22713   0.016   3.194   5.648
 6939SOL    HW122714   0.072   3.268   5.672
 6939SOL    HW222715  14.817   3.233   5.635
 6940SOL     OW22716  13.253   4.598  10.706
 6940SOL    HW122717  13.281   4.656  10.777
 6940SOL    HW222718  13.298   4.633  10.628
 6941SOL     OW22719   2.870   7.010   5.490
 6941SOL    HW122720   2.827   7.035   5.408
 6941SOL    HW222721   2.813   7.045   5.558
 6942SOL     OW22722   0.456   8.114   4.577
 6942SOL    HW122723   0.395   8.109   4.651
 6942SOL    HW222724   0.405   8.156   4.507
 6943SOL     OW22725  13.900  11.041  14.292
 6943SOL    HW122726  13.879  11.049  14.385
 6943SOL    HW222727  13.996  11.039  14.289
 6944SOL     OW22728   6.579   3.963  10.619
 6944SOL    HW122729   6.613   3.981  10.531
 6944SOL    HW222730   6.640   3.900  10.656
 6945SOL     OW22731  14.735   5.067   6.792
 6945SOL    HW122732  14.729   5.008   6.867
 6945SOL    HW222733  14.697   5.149   6.823
 6946SOL     OW22734   2.118  12.314  13.617
 6946SOL    HW122735   2.134  12.227  13.654
 6946SOL    HW222736   2.117  12.300  13.522
 6947SOL     OW22737   7.819  11.405   2.229
 6947SOL    HW122738   7.860  11.345   2.167
 6947SOL    HW222739   7.888  11.467   2.252
 6948SOL     OW22740   7.213   1.942  10.562
 6948SOL    HW122741   7.251   1.987  10.486
 6948SOL    HW222742   7.251   1.854  10.559
 6949SOL     OW22743   9.992  11.653   9.495
 6949SOL    HW122744   9.950  11.581   9.449
 6949SOL    HW222745   9.921  11.712   9.520
 6950SOL     OW22746  13.264   8.826   6.528
 6950SOL    HW122747  13.280   8.764   6.599
 6950SOL    HW222748  13.186   8.874   6.555
 6951SOL     OW22749  14.356   4.243  12.505
 6951SOL    HW122750  14.370   4.150  12.492
 6951SOL    HW222751  14.269   4.249  12.545
 6952SOL     OW22752   3.041   3.951   2.282
 6952SOL    HW122753   3.073   3.882   2.340
 6952SOL    HW222754   2.998   4.013   2.340
 6953SOL     OW22755   0.402  14.012  11.144
 6953SOL    HW122756   0.400  13.917  11.154
 6953SOL    HW222757   0.491  14.030  11.114
 6954SOL     OW22758  14.040   0.584   3.328
 6954SOL    HW122759  14.019   0.541   3.245
 6954SOL    HW222760  14.043   0.513   3.392
 6955SOL     OW22761  14.054   2.394  11.932
 6955SOL    HW122762  14.077   2.448  12.007
 6955SOL    HW222763  13.984   2.442  11.888
 6956SOL     OW22764  11.569   8.661   9.278
 6956SOL    HW122765  11.566   8.727   9.209
 6956SOL    HW222766  11.594   8.581   9.232
 6957SOL     OW22767   3.658  10.565  14.081
 6957SOL    HW122768   3.672  10.653  14.044
 6957SOL    HW222769   3.590  10.578  14.147
 6958SOL     OW22770   5.994   1.381   2.475
 6958SOL    HW122771   6.028   1.362   2.387
 6958SOL    HW222772   5.965   1.297   2.508
 6959SOL     OW22773  12.654  12.064   1.673
 6959SOL    HW122774  12.719  11.994   1.671
 6959SOL    HW222775  12.570  12.018   1.671
 6960SOL     OW22776   2.476   4.082   7.314
 6960SOL    HW122777   2.518   4.163   7.343
 6960SOL    HW222778   2.444   4.102   7.226
 6961SOL     OW22779   0.687   3.483   7.238
 6961SOL    HW122780   0.636   3.451   7.313
 6961SOL    HW222781   0.623   3.532   7.186
 6962SOL     OW22782  12.049   6.306  14.210
 6962SOL    HW122783  11.993   6.383  14.224
 6962SOL    HW222784  12.005   6.257  14.140
 6963SOL     OW22785   0.877   9.158   8.660
 6963SOL    HW122786   0.888   9.139   8.753
 6963SOL    HW222787   0.819   9.088   8.629
 6964SOL     OW22788  12.689   3.307  10.471
 6964SOL    HW122789  12.658   3.314  10.562
 6964SOL    HW222790  12.769   3.255  10.477
 6965SOL     OW22791  12.570   6.057   2.174
 6965SOL    HW122792  12.556   5.966   2.201
 6965SOL    HW222793  12.514   6.108   2.233
 6966SOL     OW22794   0.631   8.458  11.373
 6966SOL    HW122795   0.674   8.543  11.367
 6966SOL    HW222796   0.639   8.420  11.286
 6967SOL     OW22797  12.649   4.800  10.169
 6967SOL    HW122798  12.716   4.804  10.100
 6967SOL    HW222799  12.566   4.811  10.122
 6968SOL     OW22800   0.627   0.049   0.261
 6968SOL    HW122801   0.619   0.058   0.166
 6968SOL    HW222802   0.613   0.138   0.294
 6969SOL     OW22803   2.670   5.440   3.604
 6969SOL    HW122804   2.718   5.480   3.677
 6969SOL    HW222805   2.724   5.457   3.527
 6970SOL     OW22806   7.553   5.826   4.469
 6970SOL    HW122807   7.463   5.845   4.442
 6970SOL    HW222808   7.606   5.844   4.392
 6971SOL     OW22809  12.792   5.292   6.938
 6971SOL    HW122810  12.776   5.206   6.977
 6971SOL    HW222811  12.885   5.308   6.953
 6972SOL     OW22812   1.454  13.504   7.225
 6972SOL    HW122813   1.425  13.590   7.255
 6972SOL    HW222814   1.524  13.480   7.286
 6973SOL     OW22815   2.073  10.993   1.556
 6973SOL    HW122816   2.029  10.920   1.512
 6973SOL    HW222817   2.003  11.040   1.601
 6974SOL     OW22818   0.479   8.024  13.767
 6974SOL    HW122819   0.512   7.980  13.689
 6974SOL    HW222820   0.409   8.080  13.735
 6975SOL     OW22821  11.166  12.798  12.818
 6975SOL    HW122822  11.118  12.765  12.893
 6975SOL    HW222823  11.188  12.720  12.767
 6976SOL     OW22824  14.611  14.000   0.251
 6976SOL    HW122825  14.521  13.993   0.218
 6976SOL    HW222826  14.607  14.069   0.317
 6977SOL     OW22827   2.565  13.907   7.264
 6977SOL    HW122828   2.558  13.954   7.181
 6977SOL    HW222829   2.474  13.895   7.292
 6978SOL     OW22830   9.671  13.890  11.429
 6978SOL    HW122831   9.652  13.827  11.499
 6978SOL    HW222832   9.670  13.839  11.349
 6979SOL     OW22833   9.189   5.184   8.724
 6979SOL    HW122834   9.267   5.203   8.776
 6979SOL    HW222835   9.121   5.167   8.789
 6980SOL     OW22836  13.233   2.128   3.899
 6980SOL    HW122837  13.140   2.128   3.923
 6980SOL    HW222838  13.240   2.065   3.828
 6981SOL     OW22839   1.815   6.340   2.685
 6981SOL    HW122840   1.786   6.351   2.776
 6981SOL    HW222841   1.737   6.359   2.633
 6982SOL     OW22842   6.020   6.844   3.031
 6982SOL    HW122843   5.965   6.766   3.028
 6982SOL    HW222844   6.087   6.823   3.097
 6983SOL     OW22845   9.786  14.748   0.741
 6983SOL    HW122846   9.752  14.779   0.825
 6983SOL    HW222847   9.882  14.751   0.751
 6984SOL     OW22848   4.927   4.193   3.276
 6984SOL    HW122849   4.917   4.289   3.274
 6984SOL    HW222850   4.979   4.173   3.199
 6985SOL     OW22851  12.203   7.686  13.284
 6985SOL    HW122852  12.285   7.696  13.236
 6985SOL    HW222853  12.169   7.776  13.292
 6986SOL     OW22854   2.855   4.164   6.138
 6986SOL    HW122855   2.917   4.103   6.100
 6986SOL    HW222856   2.864   4.243   6.085
 6987SOL     OW22857   2.933   8.426   4.452
 6987SOL    HW122858   2.842   8.452   4.469
 6987SOL    HW222859   2.952   8.462   4.366
 6988SOL     OW22860   0.792  12.781   8.966
 6988SOL    HW122861   0.800  12.704   9.021
 6988SOL    HW222862   0.774  12.746   8.878
 6989SOL     OW22863  11.906   7.873  14.752
 6989SOL    HW122864  11.888   7.870  14.658
 6989SOL    HW222865  11.895   7.965  14.775
 6990SOL     OW22866  10.236   1.417   9.439
 6990SOL    HW122867  10.241   1.508   9.411
 6990SOL    HW222868  10.246   1.366   9.358
 6991SOL     OW22869  11.453  10.009  12.974
 6991SOL    HW122870  11.503   9.928  12.975
 6991SOL    HW222871  11.364   9.983  13.001
 6992SOL     OW22872  10.965   7.179   9.155
 6992SOL    HW122873  10.911   7.118   9.105
 6992SOL    HW222874  11.040   7.197   9.098
 6993SOL     OW22875   5.695   7.677   4.224
 6993SOL    HW122876   5.785   7.678   4.257
 6993SOL    HW222877   5.645   7.632   4.292
 6994SOL     OW22878  14.095   1.373  14.789
 6994SOL    HW122879  14.162   1.346  14.726
 6994SOL    HW222880  14.035   1.299  14.795
 6995SOL     OW22881   6.894  13.730  12.464
 6995SOL    HW122882   6.888  13.635  12.471
 6995SOL    HW222883   6.944  13.756  12.541
 6996SOL     OW22884   9.938  12.444   0.131
 6996SOL    HW122885  10.024  12.481   0.151
 6996SOL    HW222886   9.949  12.403   0.045
 6997SOL     OW22887   8.070   7.572   3.305
 6997SOL    HW122888   7.977   7.566   3.329
 6997SOL    HW222889   8.116   7.536   3.382
 6998SOL     OW22890  11.387   3.379   1.058
 6998SOL    HW122891  11.390   3.284   1.048
 6998SOL    HW222892  11.308   3.394   1.111
 6999SOL     OW22893   9.238  11.134  14.540
 6999SOL    HW122894   9.243  11.049  14.582
 6999SOL    HW222895   9.281  11.122  14.455
 7000SOL     OW22896   3.178  13.902   4.577
 7000SOL    HW122897   3.106  13.843   4.555
 7000SOL    HW222898   3.181  13.965   4.505
 7001SOL     OW22899   6.138   4.642   2.731
 7001SOL    HW122900   6.114   4.602   2.648
 7001SOL    HW222901   6.090   4.592   2.797
 7002SOL     OW22902   9.449  11.204  11.905
 7002SOL    HW122903   9.426  11.114  11.926
 7002SOL    HW222904   9.440  11.251  11.987
 7003SOL     OW22905  12.428  12.172  13.662
 7003SOL    HW122906  12.492  12.220  13.610
 7003SOL    HW222907  12.441  12.080  13.638
 7004SOL     OW22908   2.457  12.451   9.865
 7004SOL    HW122909   2.545  12.434   9.900
 7004SOL    HW222910   2.399  12.444   9.940
 7005SOL     OW22911   6.553   9.288   5.817
 7005SOL    HW122912   6.563   9.287   5.913
 7005SOL    HW222913   6.643   9.284   5.784
 7006SOL     OW22914  10.890   4.738   3.927
 7006SOL    HW122915  10.822   4.694   3.875
 7006SOL    HW222916  10.968   4.733   3.873
 7007SOL     OW22917  10.209   2.023   1.457
 7007SOL    HW122918  10.236   2.046   1.368
 7007SOL    HW222919  10.279   1.966   1.489
 7008SOL     OW22920   7.954   1.075  14.286
 7008SOL    HW122921   7.918   0.986  14.291
 7008SOL    HW222922   7.886   1.126  14.241
 7009SOL     OW22923   1.295   5.190   7.617
 7009SOL    HW122924   1.374   5.238   7.641
 7009SOL    HW222925   1.224   5.251   7.635
 7010SOL     OW22926   5.818  11.543   8.125
 7010SOL    HW122927   5.790  11.454   8.144
 7010SOL    HW222928   5.763  11.599   8.179
 7011SOL     OW22929   5.371   1.484   7.582
 7011SOL    HW122930   5.359   1.401   7.627
 7011SOL    HW222931   5.352   1.464   7.490
 7012SOL     OW22932   5.465   6.866  10.058
 7012SOL    HW122933   5.460   6.914   9.975
 7012SOL    HW222934   5.556   6.878  10.086
 7013SOL     OW22935   3.751  10.067   3.157
 7013SOL    HW122936   3.742   9.990   3.100
 7013SOL    HW222937   3.661  10.093   3.176
 7014SOL     OW22938  11.941   6.133   0.978
 7014SOL    HW122939  11.864   6.138   0.921
 7014SOL    HW222940  11.907   6.103   1.062
 7015SOL     OW22941  13.584   6.755   8.226
 7015SOL    HW122942  13.503   6.805   8.222
 7015SOL    HW222943  13.581   6.698   8.149
 7016SOL     OW22944  10.908   6.978   6.389
 7016SOL    HW122945  10.889   6.896   6.343
 7016SOL    HW222946  10.861   7.045   6.339
 7017SOL     OW22947   9.588  13.426  10.792
 7017SOL    HW122948   9.682  13.443  10.799
 7017SOL    HW222949   9.564  13.459  10.705
 7018SOL     OW22950   4.968   3.085  11.151
 7018SOL    HW122951   5.014   3.169  11.149
 7018SOL    HW222952   5.038   3.020  11.148
 7019SOL     OW22953  10.155   2.149  13.511
 7019SOL    HW122954  10.107   2.080  13.557
 7019SOL    HW222955  10.121   2.146  13.422
 7020SOL     OW22956   3.664   7.351  11.744
 7020SOL    HW122957   3.715   7.393  11.813
 7020SOL    HW222958   3.727   7.336  11.674
 7021SOL     OW22959   7.239   8.596  10.498
 7021SOL    HW122960   7.258   8.586  10.591
 7021SOL    HW222961   7.319   8.633  10.460
 7022SOL     OW22962   2.263   8.425   4.656
 7022SOL    HW122963   2.296   8.336   4.647
 7022SOL    HW222964   2.177   8.415   4.696
 7023SOL     OW22965  13.394   2.526  12.648
 7023SOL    HW122966  13.398   2.477  12.566
 7023SOL    HW222967  13.396   2.618  12.621
 7024SOL     OW22968  10.156   5.283   5.610
 7024SOL    HW122969  10.196   5.329   5.536
 7024SOL    HW222970  10.083   5.235   5.573
 7025SOL     OW22971   4.826   2.171   9.290
 7025SOL    HW122972   4.833   2.087   9.244
 7025SOL    HW222973   4.744   2.208   9.259
 7026SOL     OW22974   0.908  13.161   5.646
 7026SOL    HW122975   0.853  13.135   5.720
 7026SOL    HW222976   0.978  13.213   5.685
 7027SOL     OW22977   0.203   3.402   4.125
 7027SOL    HW122978   0.135   3.338   4.109
 7027SOL    HW222979   0.158   3.475   4.169
 7028SOL     OW22980   2.972  11.671  12.966
 7028SOL    HW122981   2.888  11.634  12.938
 7028SOL    HW222982   2.963  11.765  12.951
 7029SOL     OW22983   4.172   9.756   4.303
 7029SOL    HW122984   4.117   9.809   4.246
 7029SOL    HW222985   4.241   9.723   4.246
 7030SOL     OW22986  14.119   7.442   4.615
 7030SOL    HW122987  14.097   7.504   4.546
 7030SOL    HW222988  14.164   7.494   4.681
 7031SOL     OW22989   2.360   1.904  12.879
 7031SOL    HW122990   2.284   1.849  12.898
 7031SOL    HW222991   2.332   1.992  12.905
 7032SOL     OW22992  13.512  14.500   3.061
 7032SOL    HW122993  13.440  14.547   3.101
 7032SOL    HW222994  13.542  14.439   3.128
 7033SOL     OW22995   7.167   9.366   0.788
 7033SOL    HW122996   7.147   9.281   0.825
 7033SOL    HW222997   7.256   9.385   0.818
 7034SOL     OW22998   6.973   3.928   3.258
 7034SOL    HW122999   6.904   3.902   3.197
 7034SOL    HW223000   6.976   4.023   3.252
 7035SOL     OW23001   0.980  10.407   0.808
 7035SOL    HW123002   1.058  10.455   0.834
 7035SOL    HW223003   1.006  10.363   0.726
 7036SOL     OW23004   4.594   7.586   6.026
 7036SOL    HW123005   4.611   7.580   6.120
 7036SOL    HW223006   4.547   7.668   6.015
 7037SOL     OW23007   7.508   4.324  11.415
 7037SOL    HW123008   7.479   4.237  11.442
 7037SOL    HW223009   7.539   4.312  11.325
 7038SOL     OW23010   4.828   5.014   2.812
 7038SOL    HW123011   4.733   5.004   2.814
 7038SOL    HW223012   4.862   4.926   2.832
 7039SOL     OW23013  10.723   4.249   0.118
 7039SOL    HW123014  10.813   4.276   0.135
 7039SOL    HW223015  10.714   4.164   0.162
 7040SOL     OW23016  13.101   9.677   5.044
 7040SOL    HW123017  13.194   9.668   5.022
 7040SOL    HW223018  13.072   9.755   4.995
 7041SOL     OW23019   2.130   6.750   3.182
 7041SOL    HW123020   2.094   6.699   3.110
 7041SOL    HW223021   2.157   6.833   3.141
 7042SOL     OW23022   4.688   3.076  11.053
 7042SOL    HW123023   4.783   3.083  11.051
 7042SOL    HW223024   4.660   3.153  11.102
 7043SOL     OW23025   7.055   9.650   1.308
 7043SOL    HW123026   7.118   9.721   1.294
 7043SOL    HW223027   7.056   9.635   1.402
 7044SOL     OW23028   9.714   3.876  11.659
 7044SOL    HW123029   9.734   3.875  11.753
 7044SOL    HW223030   9.643   3.939  11.650
 7045SOL     OW23031  12.201  11.646   7.946
 7045SOL    HW123032  12.154  11.563   7.942
 7045SOL    HW223033  12.256  11.640   8.024
 7046SOL     OW23034   7.383   4.390   9.361
 7046SOL    HW123035   7.326   4.319   9.333
 7046SOL    HW223036   7.326   4.447   9.413
 7047SOL     OW23037   6.529   5.669  12.125
 7047SOL    HW123038   6.501   5.757  12.150
 7047SOL    HW223039   6.582   5.681  12.046
 7048SOL     OW23040  14.260   3.399   1.411
 7048SOL    HW123041  14.200   3.424   1.341
 7048SOL    HW223042  14.263   3.303   1.407
 7049SOL     OW23043   3.778  11.391   3.280
 7049SOL    HW123044   3.862  11.348   3.294
 7049SOL    HW223045   3.790  11.441   3.199
 7050SOL     OW23046   5.883  13.237  13.379
 7050SOL    HW123047   5.914  13.230  13.470
 7050SOL    HW223048   5.936  13.174  13.330
 7051SOL     OW23049  13.297   5.283   8.170
 7051SOL    HW123050  13.259   5.312   8.087
 7051SOL    HW223051  13.313   5.190   8.158
 7052SOL     OW23052  10.770   1.642   3.541
 7052SOL    HW123053  10.754   1.613   3.451
 7052SOL    HW223054  10.843   1.588   3.570
 7053SOL     OW23055   7.929   1.226  13.095
 7053SOL    HW123056   7.906   1.238  13.003
 7053SOL    HW223057   7.980   1.304  13.117
 7054SOL     OW23058  13.397   2.831   5.988
 7054SOL    HW123059  13.357   2.755   5.947
 7054SOL    HW223060  13.474   2.797   6.034
 7055SOL     OW23061   5.452   4.712  10.034
 7055SOL    HW123062   5.442   4.784  10.097
 7055SOL    HW223063   5.494   4.752   9.958
 7056SOL     OW23064   7.384   8.904  11.319
 7056SOL    HW123065   7.297   8.941  11.335
 7056SOL    HW223066   7.426   8.901  11.405
 7057SOL     OW23067   3.931  10.761  14.115
 7057SOL    HW123068   3.884  10.774  14.197
 7057SOL    HW223069   3.983  10.841  14.104
 7058SOL     OW23070   2.509   7.808  12.009
 7058SOL    HW123071   2.603   7.824  12.018
 7058SOL    HW223072   2.469   7.866  12.074
 7059SOL     OW23073   4.513  11.833  14.113
 7059SOL    HW123074   4.513  11.922  14.079
 7059SOL    HW223075   4.421  11.806  14.109
 7060SOL     OW23076   9.554   9.292  10.287
 7060SOL    HW123077   9.611   9.261  10.357
 7060SOL    HW223078   9.488   9.345  10.332
 7061SOL     OW23079  12.764   0.252   6.893
 7061SOL    HW123080  12.671   0.259   6.871
 7061SOL    HW223081  12.793   0.172   6.850
 7062SOL     OW23082   1.333   7.390   4.534
 7062SOL    HW123083   1.310   7.442   4.611
 7062SOL    HW223084   1.327   7.299   4.562
 7063SOL     OW23085   7.220  13.977   6.143
 7063SOL    HW123086   7.274  14.049   6.175
 7063SOL    HW223087   7.264  13.947   6.064
 7064SOL     OW23088  11.055   1.597   9.973
 7064SOL    HW123089  11.059   1.664   9.904
 7064SOL    HW223090  10.969   1.608  10.012
 7065SOL     OW23091  13.060   1.958  11.701
 7065SOL    HW123092  13.011   2.039  11.714
 7065SOL    HW223093  13.150   1.980  11.726
 7066SOL     OW23094   4.806   4.243  11.964
 7066SOL    HW123095   4.753   4.163  11.964
 7066SOL    HW223096   4.825   4.259  12.056
 7067SOL     OW23097   6.403   3.358   0.741
 7067SOL    HW123098   6.419   3.415   0.665
 7067SOL    HW223099   6.405   3.417   0.816
 7068SOL     OW23100   4.306   6.278   5.164
 7068SOL    HW123101   4.313   6.185   5.187
 7068SOL    HW223102   4.213   6.297   5.169
 7069SOL     OW23103  12.721  14.557   9.719
 7069SOL    HW123104  12.732  14.560   9.624
 7069SOL    HW223105  12.806  14.527   9.751
 7070SOL     OW23106  11.059   9.090  11.780
 7070SOL    HW123107  11.053   9.152  11.707
 7070SOL    HW223108  10.991   9.025  11.762
 7071SOL     OW23109   2.730   4.903   3.386
 7071SOL    HW123110   2.693   4.928   3.301
 7071SOL    HW223111   2.684   4.958   3.449
 7072SOL     OW23112  12.502  14.805  12.746
 7072SOL    HW123113  12.583  14.754  12.750
 7072SOL    HW223114  12.432  14.738  12.747
 7073SOL     OW23115   9.454  12.940   1.035
 7073SOL    HW123116   9.365  12.911   1.056
 7073SOL    HW223117   9.511  12.873   1.075
 7074SOL     OW23118  14.636   4.692  14.301
 7074SOL    HW123119  14.564   4.639  14.268
 7074SOL    HW223120  14.711   4.632  14.304
 7075SOL     OW23121  12.317  11.053   9.186
 7075SOL    HW123122  12.344  11.136   9.226
 7075SOL    HW223123  12.375  10.987   9.225
 7076SOL     OW23124  13.400   9.642   1.637
 7076SOL    HW123125  13.379   9.660   1.729
 7076SOL    HW223126  13.461   9.568   1.641
 7077SOL     OW23127  10.874   1.265  13.037
 7077SOL    HW123128  10.800   1.314  13.001
 7077SOL    HW223129  10.951   1.317  13.014
 7078SOL     OW23130  13.356   5.283   4.795
 7078SOL    HW123131  13.376   5.199   4.837
 7078SOL    HW223132  13.329   5.340   4.867
 7079SOL     OW23133  10.947   9.077  14.052
 7079SOL    HW123134  10.923   9.084  14.145
 7079SOL    HW223135  10.873   9.114  14.005
 7080SOL     OW23136  14.245   3.498   6.070
 7080SOL    HW123137  14.220   3.579   6.024
 7080SOL    HW223138  14.201   3.429   6.021
 7081SOL     OW23139  11.448  10.251   3.734
 7081SOL    HW123140  11.382  10.189   3.766
 7081SOL    HW223141  11.511  10.197   3.687
 7082SOL     OW23142  12.213   1.200  11.481
 7082SOL    HW123143  12.151   1.236  11.418
 7082SOL    HW223144  12.240   1.275  11.534
 7083SOL     OW23145  10.521   1.868   9.797
 7083SOL    HW123146  10.429   1.850   9.816
 7083SOL    HW223147  10.523   1.961   9.775
 7084SOL     OW23148  14.324  13.122   4.603
 7084SOL    HW123149  14.415  13.113   4.632
 7084SOL    HW223150  14.329  13.177   4.525
 7085SOL     OW23151   0.325  10.167   2.614
 7085SOL    HW123152   0.340  10.090   2.668
 7085SOL    HW223153   0.412  10.204   2.599
 7086SOL     OW23154   2.452   0.848   5.483
 7086SOL    HW123155   2.514   0.897   5.537
 7086SOL    HW223156   2.366   0.869   5.521
 7087SOL     OW23157   4.112  12.898   5.603
 7087SOL    HW123158   4.096  12.973   5.660
 7087SOL    HW223159   4.161  12.933   5.529
 7088SOL     OW23160   0.102   7.435   4.188
 7088SOL    HW123161   0.033   7.487   4.231
 7088SOL    HW223162   0.063   7.408   4.104
 7089SOL     OW23163   2.423   8.941   3.363
 7089SOL    HW123164   2.458   8.853   3.378
 7089SOL    HW223165   2.413   8.979   3.450
 7090SOL     OW23166  10.244   1.317   9.184
 7090SOL    HW123167  10.216   1.233   9.148
 7090SOL    HW223168  10.311   1.348   9.123
 7091SOL     OW23169   3.931   6.812  12.652
 7091SOL    HW123170   3.968   6.856  12.576
 7091SOL    HW223171   4.007   6.783  12.702
 7092SOL     OW23172   9.829  11.439   6.626
 7092SOL    HW123173   9.914  11.417   6.587
 7092SOL    HW223174   9.820  11.377   6.699
 7093SOL     OW23175   4.697   6.771  14.776
 7093SOL    HW123176   4.770   6.814  14.732
 7093SOL    HW223177   4.718   6.779  14.869
 7094SOL     OW23178   2.351   0.235  12.937
 7094SOL    HW123179   2.356   0.189  12.853
 7094SOL    HW223180   2.389   0.174  13.000
 7095SOL     OW23181   1.936   7.001   8.378
 7095SOL    HW123182   1.978   6.945   8.443
 7095SOL    HW223183   1.971   6.971   8.294
 7096SOL     OW23184  14.882   0.252  10.042
 7096SOL    HW123185   0.066   0.282   9.985
 7096SOL    HW223186   0.039   0.202  10.111
 7097SOL     OW23187  12.919  11.417   5.045
 7097SOL    HW123188  12.859  11.394   5.116
 7097SOL    HW223189  12.869  11.402   4.965
 7098SOL     OW23190  10.554   2.093   1.343
 7098SOL    HW123191  10.627   2.143   1.378
 7098SOL    HW223192  10.484   2.158   1.332
 7099SOL     OW23193  11.530   7.344  10.652
 7099SOL    HW123194  11.471   7.337  10.577
 7099SOL    HW223195  11.477   7.316  10.726
 7100SOL     OW23196  13.728   5.750   4.536
 7100SOL    HW123197  13.751   5.756   4.628
 7100SOL    HW223198  13.747   5.838   4.501
 7101SOL     OW23199  11.159   0.903  12.838
 7101SOL    HW123200  11.092   0.839  12.815
 7101SOL    HW223201  11.112   0.969  12.889
 7102SOL     OW23202  10.233  14.382  12.728
 7102SOL    HW123203  10.253  14.387  12.822
 7102SOL    HW223204  10.139  14.365  12.725
 7103SOL     OW23205  12.489   4.224  10.809
 7103SOL    HW123206  12.443   4.171  10.744
 7103SOL    HW223207  12.498   4.310  10.767
 7104SOL     OW23208  14.542  13.001  10.337
 7104SOL    HW123209  14.463  12.959  10.370
 7104SOL    HW223210  14.523  13.020  10.245
 7105SOL     OW23211  14.119  12.100   7.853
 7105SOL    HW123212  14.096  12.116   7.945
 7105SOL    HW223213  14.197  12.152   7.839
 7106SOL     OW23214   3.914  10.634  12.654
 7106SOL    HW123215   3.971  10.683  12.594
 7106SOL    HW223216   3.833  10.685  12.655
 7107SOL     OW23217   2.337  11.865  12.103
 7107SOL    HW123218   2.401  11.918  12.055
 7107SOL    HW223219   2.255  11.878  12.056
 7108SOL     OW23220   1.850   2.119   8.392
 7108SOL    HW123221   1.887   2.208   8.398
 7108SOL    HW223222   1.769   2.123   8.442
 7109SOL     OW23223   1.322   3.077  14.658
 7109SOL    HW123224   1.347   3.043  14.572
 7109SOL    HW223225   1.233   3.045  14.671
 7110SOL     OW23226  14.704   3.226   2.200
 7110SOL    HW123227  14.650   3.287   2.249
 7110SOL    HW223228  14.642   3.164   2.162
 7111SOL     OW23229   2.849   1.900  14.617
 7111SOL    HW123230   2.867   1.830  14.555
 7111SOL    HW223231   2.912   1.887  14.687
 7112SOL     OW23232  13.719   3.627  10.649
 7112SOL    HW123233  13.732   3.632  10.744
 7112SOL    HW223234  13.624   3.626  10.638
 7113SOL     OW23235  11.778   7.481  14.586
 7113SOL    HW123236  11.777   7.400  14.534
 7113SOL    HW223237  11.713   7.466  14.655
 7114SOL     OW23238  14.067   3.133   2.284
 7114SOL    HW123239  14.124   3.125   2.207
 7114SOL    HW223240  14.079   3.224   2.312
 7115SOL     OW23241   4.492   7.049   9.194
 7115SOL    HW123242   4.445   6.974   9.230
 7115SOL    HW223243   4.582   7.037   9.222
 7116SOL     OW23244   6.939  13.629   1.945
 7116SOL    HW123245   6.867  13.645   2.007
 7116SOL    HW223246   7.018  13.627   2.000
 7117SOL     OW23247  11.805   6.511  14.342
 7117SOL    HW123248  11.759   6.594  14.333
 7117SOL    HW223249  11.779   6.479  14.428
 7118SOL     OW23250  12.464  10.958   4.967
 7118SOL    HW123251  12.491  11.049   4.958
 7118SOL    HW223252  12.544  10.910   4.989
 7119SOL     OW23253   9.160   4.198  11.451
 7119SOL    HW123254   9.169   4.103  11.454
 7119SOL    HW223255   9.187   4.222  11.362
 7120SOL     OW23256   0.752   5.719   2.869
 7120SOL    HW123257   0.809   5.796   2.873
 7120SOL    HW223258   0.750   5.696   2.776
 7121SOL     OW23259   6.300   2.614   6.580
 7121SOL    HW123260   6.344   2.666   6.513
 7121SOL    HW223261   6.371   2.580   6.634
 7122SOL     OW23262   1.159  12.387   7.298
 7122SOL    HW123263   1.182  12.345   7.381
 7122SOL    HW223264   1.078  12.344   7.271
 7123SOL     OW23265   3.149   2.076   5.888
 7123SOL    HW123266   3.085   2.032   5.832
 7123SOL    HW223267   3.204   2.004   5.921
 7124SOL     OW23268  13.513  10.794   5.578
 7124SOL    HW123269  13.520  10.786   5.673
 7124SOL    HW223270  13.600  10.819   5.549
 7125SOL     OW23271   6.855  14.728   8.665
 7125SOL    HW123272   6.863  14.640   8.702
 7125SOL    HW223273   6.777  14.765   8.706
 7126SOL     OW23274   8.023   1.826   0.645
 7126SOL    HW123275   8.082   1.876   0.702
 7126SOL    HW223276   7.935   1.851   0.674
 7127SOL     OW23277  12.610   1.087   9.672
 7127SOL    HW123278  12.646   1.138   9.599
 7127SOL    HW223279  12.521   1.121   9.682
 7128SOL     OW23280  10.653   3.172  13.086
 7128SOL    HW123281  10.722   3.229  13.053
 7128SOL    HW223282  10.699   3.107  13.140
 7129SOL     OW23283  13.691   6.692  13.400
 7129SOL    HW123284  13.764   6.753  13.413
 7129SOL    HW223285  13.717   6.613  13.447
 7130SOL     OW23286   4.582  13.359  11.362
 7130SOL    HW123287   4.586  13.420  11.435
 7130SOL    HW223288   4.534  13.406  11.294
 7131SOL     OW23289  12.991   9.826   4.413
 7131SOL    HW123290  13.006   9.908   4.365
 7131SOL    HW223291  13.002   9.757   4.347
 7132SOL     OW23292   4.739   7.688   3.415
 7132SOL    HW123293   4.821   7.642   3.396
 7132SOL    HW223294   4.710   7.651   3.499
 7133SOL     OW23295   2.639  12.212   0.240
 7133SOL    HW123296   2.619  12.148   0.308
 7133SOL    HW223297   2.710  12.265   0.276
 7134SOL     OW23298  10.462   3.105   9.973
 7134SOL    HW123299  10.384   3.059  10.005
 7134SOL    HW223300  10.536   3.058  10.010
 7135SOL     OW23301  13.130  10.345   5.710
 7135SOL    HW123302  13.111  10.352   5.616
 7135SOL    HW223303  13.130  10.251   5.727
 7136SOL     OW23304   3.484   5.910   9.315
 7136SOL    HW123305   3.532   5.954   9.385
 7136SOL    HW223306   3.484   5.818   9.341
 7137SOL     OW23307   0.604   6.201   8.400
 7137SOL    HW123308   0.585   6.266   8.332
 7137SOL    HW223309   0.613   6.251   8.480
 7138SOL     OW23310   1.995   7.767  11.193
 7138SOL    HW123311   1.911   7.771  11.146
 7138SOL    HW223312   1.970   7.775  11.285
 7139SOL     OW23313   7.096   8.881   8.217
 7139SOL    HW123314   7.032   8.858   8.284
 7139SOL    HW223315   7.062   8.842   8.136
 7140SOL     OW23316   1.653  13.615   5.057
 7140SOL    HW123317   1.678  13.591   5.146
 7140SOL    HW223318   1.728  13.588   5.004
 7141SOL     OW23319  14.463   1.237   4.754
 7141SOL    HW123320  14.422   1.261   4.671
 7141SOL    HW223321  14.488   1.321   4.794
 7142SOL     OW23322   3.662  13.934   9.803
 7142SOL    HW123323   3.584  13.986   9.818
 7142SOL    HW223324   3.655  13.861   9.865
 7143SOL     OW23325   2.359  10.472  13.276
 7143SOL    HW123326   2.435  10.481  13.333
 7143SOL    HW223327   2.362  10.382  13.245
 7144SOL     OW23328   0.706   7.386   3.199
 7144SOL    HW123329   0.743   7.472   3.180
 7144SOL    HW223330   0.613   7.402   3.214
 7145SOL     OW23331   6.839   7.259   5.911
 7145SOL    HW123332   6.911   7.300   5.863
 7145SOL    HW223333   6.841   7.301   5.997
 7146SOL     OW23334  14.655   9.855  13.875
 7146SOL    HW123335  14.564   9.872  13.901
 7146SOL    HW223336  14.679   9.932  13.824
 7147SOL     OW23337   1.671   6.233   3.249
 7147SOL    HW123338   1.689   6.295   3.320
 7147SOL    HW223339   1.756   6.193   3.230
 7148SOL     OW23340   7.763  14.007   7.882
 7148SOL    HW123341   7.794  13.969   7.964
 7148SOL    HW223342   7.727  13.933   7.833
 7149SOL     OW23343   3.645   4.771   7.073
 7149SOL    HW123344   3.636   4.679   7.095
 7149SOL    HW223345   3.568   4.790   7.019
 7150SOL     OW23346   5.307   7.322  12.489
 7150SOL    HW123347   5.393   7.364  12.483
 7150SOL    HW223348   5.306   7.280  12.575
 7151SOL     OW23349   4.191   2.864  10.805
 7151SOL    HW123350   4.239   2.792  10.845
 7151SOL    HW223351   4.219   2.941  10.854
 7152SOL     OW23352   3.438   5.472   8.883
 7152SOL    HW123353   3.391   5.406   8.934
 7152SOL    HW223354   3.529   5.463   8.911
 7153SOL     OW23355  10.751  13.929   4.101
 7153SOL    HW123356  10.773  14.020   4.119
 7153SOL    HW223357  10.713  13.931   4.013
 7154SOL     OW23358  12.341   8.972   1.075
 7154SOL    HW123359  12.264   9.007   1.029
 7154SOL    HW223360  12.305   8.923   1.148
 7155SOL     OW23361   6.171  10.030  12.944
 7155SOL    HW123362   6.127  10.107  12.981
 7155SOL    HW223363   6.225  10.065  12.874
 7156SOL     OW23364   4.415   1.675  14.173
 7156SOL    HW123365   4.402   1.614  14.246
 7156SOL    HW223366   4.510   1.689  14.171
 7157SOL     OW23367   9.905  12.993  10.114
 7157SOL    HW123368   9.940  12.910  10.145
 7157SOL    HW223369   9.855  12.970  10.035
 7158SOL     OW23370   2.273   6.609  11.706
 7158SOL    HW123371   2.294   6.648  11.621
 7158SOL    HW223372   2.182   6.580  11.697
 7159SOL     OW23373   4.001  13.871   1.509
 7159SOL    HW123374   4.004  13.853   1.415
 7159SOL    HW223375   4.075  13.823   1.545
 7160SOL     OW23376  12.840   8.223   6.500
 7160SOL    HW123377  12.752   8.196   6.472
 7160SOL    HW223378  12.886   8.243   6.418
 7161SOL     OW23379  13.412   3.693   7.335
 7161SOL    HW123380  13.504   3.686   7.312
 7161SOL    HW223381  13.367   3.632   7.277
 7162SOL     OW23382   4.357   7.986   6.397
 7162SOL    HW123383   4.402   7.979   6.482
 7162SOL    HW223384   4.406   8.053   6.349
 7163SOL     OW23385   0.419  13.251  11.189
 7163SOL    HW123386   0.409  13.156  11.188
 7163SOL    HW223387   0.479  13.270  11.116
 7164SOL     OW23388   5.415   1.963   1.411
 7164SOL    HW123389   5.471   1.899   1.367
 7164SOL    HW223390   5.380   2.017   1.340
 7165SOL     OW23391  12.682   8.840  12.525
 7165SOL    HW123392  12.687   8.900  12.451
 7165SOL    HW223393  12.600   8.863  12.569
 7166SOL     OW23394   0.104   6.163   4.181
 7166SOL    HW123395   0.157   6.084   4.188
 7166SOL    HW223396   0.028   6.147   4.237
 7167SOL     OW23397   9.905  10.857   8.818
 7167SOL    HW123398   9.976  10.888   8.761
 7167SOL    HW223399   9.860  10.791   8.766
 7168SOL     OW23400   7.178   5.463   8.066
 7168SOL    HW123401   7.089   5.498   8.063
 7168SOL    HW223402   7.166   5.368   8.075
 7169SOL     OW23403   2.624  13.241   3.223
 7169SOL    HW123404   2.563  13.186   3.272
 7169SOL    HW223405   2.590  13.330   3.236
 7170SOL     OW23406   0.393  12.314   8.053
 7170SOL    HW123407   0.299  12.299   8.066
 7170SOL    HW223408   0.397  12.393   7.999
 7171SOL     OW23409   7.113  12.507   8.397
 7171SOL    HW123410   7.154  12.441   8.340
 7171SOL    HW223411   7.170  12.583   8.392
 7172SOL     OW23412   6.070   1.274  13.682
 7172SOL    HW123413   6.000   1.282  13.617
 7172SOL    HW223414   6.059   1.350  13.739
 7173SOL     OW23415   0.388   2.073   6.793
 7173SOL    HW123416   0.306   2.122   6.788
 7173SOL    HW223417   0.454   2.133   6.757
 7174SOL     OW23418   8.721   4.497   2.142
 7174SOL    HW123419   8.786   4.531   2.080
 7174SOL    HW223420   8.651   4.463   2.086
 7175SOL     OW23421   9.443   3.071   4.976
 7175SOL    HW123422   9.421   3.002   5.039
 7175SOL    HW223423   9.366   3.128   4.976
 7176SOL     OW23424  12.049   5.668   7.221
 7176SOL    HW123425  12.079   5.741   7.167
 7176SOL    HW223426  11.953   5.668   7.211
 7177SOL     OW23427   5.441   8.069   7.676
 7177SOL    HW123428   5.463   8.148   7.627
 7177SOL    HW223429   5.524   8.022   7.683
 7178SOL     OW23430  13.669   8.207   3.431
 7178SOL    HW123431  13.627   8.293   3.428
 7178SOL    HW223432  13.763   8.226   3.423
 7179SOL     OW23433   0.595  12.239   0.298
 7179SOL    HW123434   0.506  12.263   0.272
 7179SOL    HW223435   0.589  12.224   0.392
 7180SOL     OW23436  12.074  11.262  10.804
 7180SOL    HW123437  12.169  11.254  10.800
 7180SOL    HW223438  12.056  11.285  10.896
 7181SOL     OW23439  13.152   0.523   0.644
 7181SOL    HW123440  13.203   0.593   0.603
 7181SOL    HW223441  13.144   0.455   0.577
 7182SOL     OW23442   9.125   0.200   9.267
 7182SOL    HW123443   9.113   0.293   9.284
 7182SOL    HW223444   9.055   0.178   9.205
 7183SOL     OW23445  13.198   4.509   7.720
 7183SOL    HW123446  13.215   4.520   7.627
 7183SOL    HW223447  13.218   4.417   7.737
 7184SOL     OW23448   7.186   9.975  10.682
 7184SOL    HW123449   7.193   9.933  10.597
 7184SOL    HW223450   7.130  10.052  10.667
 7185SOL     OW23451   6.637   3.933   8.806
 7185SOL    HW123452   6.676   3.931   8.718
 7185SOL    HW223453   6.709   3.905   8.864
 7186SOL     OW23454   2.489  14.084   0.156
 7186SOL    HW123455   2.560  14.021   0.156
 7186SOL    HW223456   2.433  14.058   0.229
 7187SOL     OW23457  13.111  11.201   9.256
 7187SOL    HW123458  13.092  11.158   9.339
 7187SOL    HW223459  13.189  11.254   9.274
 7188SOL     OW23460  13.686   1.906   9.968
 7188SOL    HW123461  13.639   1.965  10.028
 7188SOL    HW223462  13.618   1.867   9.914
 7189SOL     OW23463   8.203  12.592   0.252
 7189SOL    HW123464   8.149  12.604   0.331
 7189SOL    HW223465   8.227  12.681   0.226
 7190SOL     OW23466  14.477   3.526  10.798
 7190SOL    HW123467  14.555   3.560  10.753
 7190SOL    HW223468  14.424   3.488  10.728
 7191SOL     OW23469   4.673  12.600   5.178
 7191SOL    HW123470   4.682  12.695   5.171
 7191SOL    HW223471   4.600  12.578   5.121
 7192SOL     OW23472   7.034   7.469   4.482
 7192SOL    HW123473   6.956   7.522   4.498
 7192SOL    HW223474   7.028   7.398   4.545
 7193SOL     OW23475  10.971   8.736   1.937
 7193SOL    HW123476  11.055   8.692   1.948
 7193SOL    HW223477  10.981   8.819   1.983
 7194SOL     OW23478   5.264   4.784   0.150
 7194SOL    HW123479   5.304   4.854   0.098
 7194SOL    HW223480   5.182   4.763   0.105
 7195SOL     OW23481   7.827   4.372  11.211
 7195SOL    HW123482   7.888   4.355  11.139
 7195SOL    HW223483   7.883   4.378  11.289
 7196SOL     OW23484   9.292   2.280   6.519
 7196SOL    HW123485   9.216   2.257   6.465
 7196SOL    HW223486   9.342   2.342   6.466
 7197SOL     OW23487   4.128  13.919   6.011
 7197SOL    HW123488   4.155  13.985   6.075
 7197SOL    HW223489   4.032  13.917   6.018
 7198SOL     OW23490  11.564   5.523   0.614
 7198SOL    HW123491  11.475   5.501   0.641
 7198SOL    HW223492  11.567   5.619   0.618
 7199SOL     OW23493   0.511   3.355   2.464
 7199SOL    HW123494   0.426   3.323   2.433
 7199SOL    HW223495   0.571   3.335   2.391
 7200SOL     OW23496   5.495   0.682   0.818
 7200SOL    HW123497   5.408   0.721   0.830
 7200SOL    HW223498   5.481   0.588   0.828
 7201SOL     OW23499   4.607  12.063   5.272
 7201SOL    HW123500   4.659  12.108   5.205
 7201SOL    HW223501   4.665  12.058   5.348
 7202SOL     OW23502   5.995  12.017   8.690
 7202SOL    HW123503   5.977  11.949   8.756
 7202SOL    HW223504   5.977  11.973   8.607
 7203SOL     OW23505   3.790   8.488   4.044
 7203SOL    HW123506   3.759   8.538   4.120
 7203SOL    HW223507   3.724   8.420   4.031
 7204SOL     OW23508   6.947   3.672   8.384
 7204SOL    HW123509   6.935   3.752   8.334
 7204SOL    HW223510   7.012   3.622   8.334
 7205SOL     OW23511   7.618   4.386   8.335
 7205SOL    HW123512   7.584   4.459   8.387
 7205SOL    HW223513   7.711   4.383   8.355
 7206SOL     OW23514  12.303  12.587   1.947
 7206SOL    HW123515  12.331  12.510   1.998
 7206SOL    HW223516  12.322  12.564   1.856
 7207SOL     OW23517   7.258  13.988   3.578
 7207SOL    HW123518   7.290  14.036   3.502
 7207SOL    HW223519   7.315  13.911   3.583
 7208SOL     OW23520   5.284   3.783  10.255
 7208SOL    HW123521   5.376   3.807  10.255
 7208SOL    HW223522   5.274   3.723  10.182
 7209SOL     OW23523   6.585   5.898  14.691
 7209SOL    HW123524   6.527   5.869  14.621
 7209SOL    HW223525   6.623   5.816  14.725
 7210SOL     OW23526   2.053   1.848   1.630
 7210SOL    HW123527   2.044   1.816   1.540
 7210SOL    HW223528   2.127   1.908   1.627
 7211SOL     OW23529   6.267  12.069   0.734
 7211SOL    HW123530   6.333  12.056   0.801
 7211SOL    HW223531   6.271  12.163   0.714
 7212SOL     OW23532   9.503   2.865   9.986
 7212SOL    HW123533   9.585   2.835  10.026
 7212SOL    HW223534   9.445   2.883  10.060
 7213SOL     OW23535   3.313  10.204  13.649
 7213SOL    HW123536   3.228  10.195  13.605
 7213SOL    HW223537   3.375  10.223  13.579
 7214SOL     OW23538  13.278   5.718   7.103
 7214SOL    HW123539  13.200   5.662   7.114
 7214SOL    HW223540  13.263   5.791   7.162
 7215SOL     OW23541   0.449  11.265  12.828
 7215SOL    HW123542   0.379  11.216  12.786
 7215SOL    HW223543   0.404  11.329  12.883
 7216SOL     OW23544  11.071  10.249   7.271
 7216SOL    HW123545  11.026  10.334   7.278
 7216SOL    HW223546  11.155  10.269   7.231
 7217SOL     OW23547  14.852   7.280   1.358
 7217SOL    HW123548  14.869   7.366   1.398
 7217SOL    HW223549  14.805   7.232   1.426
 7218SOL     OW23550  14.589   3.958   9.530
 7218SOL    HW123551  14.629   3.923   9.610
 7218SOL    HW223552  14.495   3.953   9.546
 7219SOL     OW23553  11.264   9.230   3.739
 7219SOL    HW123554  11.205   9.305   3.747
 7219SOL    HW223555  11.346   9.260   3.778
 7220SOL     OW23556   5.205   3.252   7.486
 7220SOL    HW123557   5.147   3.316   7.528
 7220SOL    HW223558   5.266   3.226   7.556
 7221SOL     OW23559   1.331   9.179   2.365
 7221SOL    HW123560   1.332   9.272   2.343
 7221SOL    HW223561   1.318   9.177   2.460
 7222SOL     OW23562   7.544   8.270  14.216
 7222SOL    HW123563   7.622   8.325  14.218
 7222SOL    HW223564   7.472   8.330  14.201
 7223SOL     OW23565   8.963  11.329  12.187
 7223SOL    HW123566   8.947  11.242  12.224
 7223SOL    HW223567   9.015  11.312  12.108
 7224SOL     OW23568   2.197   0.226   8.023
 7224SOL    HW123569   2.171   0.220   8.115
 7224SOL    HW223570   2.115   0.215   7.975
 7225SOL     OW23571  11.859   4.653   1.209
 7225SOL    HW123572  11.792   4.607   1.259
 7225SOL    HW223573  11.892   4.587   1.147
 7226SOL     OW23574   0.130   2.459   6.364
 7226SOL    HW123575   0.157   2.424   6.279
 7226SOL    HW223576   0.083   2.540   6.342
 7227SOL     OW23577  11.337   9.087  14.694
 7227SOL    HW123578  11.308   9.161  14.640
 7227SOL    HW223579  11.273   9.083  14.765
 7228SOL     OW23580  13.846   7.800  13.315
 7228SOL    HW123581  13.937   7.778  13.335
 7228SOL    HW223582  13.798   7.718  13.327
 7229SOL     OW23583   9.285  11.916   7.911
 7229SOL    HW123584   9.331  11.833   7.924
 7229SOL    HW223585   9.237  11.904   7.829
 7230SOL     OW23586  12.293   0.915   7.156
 7230SOL    HW123587  12.212   0.906   7.207
 7230SOL    HW223588  12.353   0.960   7.216
 7231SOL     OW23589   4.326   1.895   8.588
 7231SOL    HW123590   4.306   1.951   8.663
 7231SOL    HW223591   4.288   1.810   8.611
 7232SOL     OW23592   5.807   9.035   5.489
 7232SOL    HW123593   5.716   9.037   5.518
 7232SOL    HW223594   5.856   9.069   5.564
 7233SOL     OW23595   2.112   1.585  11.572
 7233SOL    HW123596   2.138   1.677  11.574
 7233SOL    HW223597   2.121   1.556  11.663
 7234SOL     OW23598   3.027   3.953   9.107
 7234SOL    HW123599   3.033   3.956   9.011
 7234SOL    HW223600   3.039   3.861   9.129
 7235SOL     OW23601   3.789  14.244  14.680
 7235SOL    HW123602   3.736  14.198  14.745
 7235SOL    HW223603   3.735  14.320  14.655
 7236SOL     OW23604  13.138   6.524   9.514
 7236SOL    HW123605  13.143   6.517   9.418
 7236SOL    HW223606  13.068   6.587   9.529
 7237SOL     OW23607   1.434   1.688   8.599
 7237SOL    HW123608   1.365   1.745   8.564
 7237SOL    HW223609   1.514   1.719   8.556
 7238SOL     OW23610   2.138  12.144   3.875
 7238SOL    HW123611   2.125  12.224   3.823
 7238SOL    HW223612   2.112  12.073   3.816
 7239SOL     OW23613   7.599   3.666  10.412
 7239SOL    HW123614   7.622   3.662  10.319
 7239SOL    HW223615   7.556   3.750  10.423
 7240SOL     OW23616   2.007  14.332  13.645
 7240SOL    HW123617   2.026  14.318  13.553
 7240SOL    HW223618   2.012  14.426  13.658
 7241SOL     OW23619   8.654   7.871   0.130
 7241SOL    HW123620   8.680   7.893   0.220
 7241SOL    HW223621   8.720   7.809   0.101
 7242SOL     OW23622  13.802   2.870   1.703
 7242SOL    HW123623  13.804   2.889   1.609
 7242SOL    HW223624  13.760   2.784   1.709
 7243SOL     OW23625   0.448   4.843  13.739
 7243SOL    HW123626   0.394   4.785  13.793
 7243SOL    HW223627   0.427   4.931  13.771
 7244SOL     OW23628  13.272   7.305   2.810
 7244SOL    HW123629  13.235   7.393   2.805
 7244SOL    HW223630  13.356   7.317   2.854
 7245SOL     OW23631   7.646  12.064   4.870
 7245SOL    HW123632   7.580  12.091   4.933
 7245SOL    HW223633   7.641  12.129   4.801
 7246SOL     OW23634   5.785   4.307  10.198
 7246SOL    HW123635   5.743   4.382  10.156
 7246SOL    HW223636   5.713   4.251  10.227
 7247SOL     OW23637  14.518  10.352   1.536
 7247SOL    HW123638  14.428  10.356   1.504
 7247SOL    HW223639  14.515  10.295   1.612
 7248SOL     OW23640  13.080   4.098   9.851
 7248SOL    HW123641  13.102   4.027   9.912
 7248SOL    HW223642  13.020   4.059   9.788
 7249SOL     OW23643   9.992  13.786  11.084
 7249SOL    HW123644   9.954  13.840  11.153
 7249SOL    HW223645   9.953  13.699  11.098
 7250SOL     OW23646   4.692   2.809   1.988
 7250SOL    HW123647   4.622   2.843   1.933
 7250SOL    HW223648   4.676   2.715   1.992
 7251SOL     OW23649   8.793  13.049  11.064
 7251SOL    HW123650   8.826  13.066  11.152
 7251SOL    HW223651   8.865  13.073  11.005
 7252SOL     OW23652   2.952   0.285   5.783
 7252SOL    HW123653   2.933   0.321   5.697
 7252SOL    HW223654   2.944   0.360   5.842
 7253SOL     OW23655  10.302   4.018  12.722
 7253SOL    HW123656  10.319   3.926  12.705
 7253SOL    HW223657  10.207   4.026  12.715
 7254SOL     OW23658   8.955   6.580   0.926
 7254SOL    HW123659   9.017   6.508   0.915
 7254SOL    HW223660   9.009   6.654   0.955
 7255SOL     OW23661   2.146  10.183  14.505
 7255SOL    HW123662   2.175  10.233  14.581
 7255SOL    HW223663   2.140  10.248  14.435
 7256SOL     OW23664  12.142  12.349   0.510
 7256SOL    HW123665  12.064  12.357   0.566
 7256SOL    HW223666  12.145  12.256   0.488
 7257SOL     OW23667   3.615   2.347   5.826
 7257SOL    HW123668   3.540   2.406   5.822
 7257SOL    HW223669   3.585   2.267   5.784
 7258SOL     OW23670   1.026   5.100   4.624
 7258SOL    HW123671   0.945   5.097   4.674
 7258SOL    HW223672   1.054   5.008   4.618
 7259SOL     OW23673   0.808   1.827  12.628
 7259SOL    HW123674   0.767   1.849  12.545
 7259SOL    HW223675   0.901   1.847  12.615
 7260SOL     OW23676  10.298   6.557  10.336
 7260SOL    HW123677  10.241   6.592  10.268
 7260SOL    HW223678  10.239   6.506  10.392
 7261SOL     OW23679   8.880  10.181  14.156
 7261SOL    HW123680   8.788  10.175  14.131
 7261SOL    HW223681   8.894  10.274  14.173
 7262SOL     OW23682   0.019   1.214   6.771
 7262SOL    HW123683   0.048   1.123   6.770
 7262SOL    HW223684  14.836   1.217   6.706
 7263SOL     OW23685  11.088   7.665   2.319
 7263SOL    HW123686  11.169   7.678   2.271
 7263SOL    HW223687  11.091   7.729   2.390
 7264SOL     OW23688   0.793  11.725  14.463
 7264SOL    HW123689   0.766  11.666  14.392
 7264SOL    HW223690   0.806  11.809  14.421
 7265SOL     OW23691   0.226   8.072   0.377
 7265SOL    HW123692   0.198   8.102   0.290
 7265SOL    HW223693   0.275   7.991   0.360
 7266SOL     OW23694  12.500   8.894   9.530
 7266SOL    HW123695  12.513   8.978   9.574
 7266SOL    HW223696  12.443   8.914   9.456
 7267SOL     OW23697  10.049   2.680   6.052
 7267SOL    HW123698  10.017   2.670   5.962
 7267SOL    HW223699  10.063   2.774   6.062
 7268SOL     OW23700   7.222   3.173   5.164
 7268SOL    HW123701   7.196   3.245   5.221
 7268SOL    HW223702   7.252   3.216   5.084
 7269SOL     OW23703  12.875   6.184  13.769
 7269SOL    HW123704  12.882   6.090  13.752
 7269SOL    HW223705  12.964   6.211  13.792
 7270SOL     OW23706   3.599   3.040   1.642
 7270SOL    HW123707   3.582   3.058   1.550
 7270SOL    HW223708   3.535   3.094   1.689
 7271SOL     OW23709   9.707   2.055  12.797
 7271SOL    HW123710   9.739   2.021  12.881
 7271SOL    HW223711   9.786   2.064  12.743
 7272SOL     OW23712   3.705   9.684  12.703
 7272SOL    HW123713   3.621   9.730  12.694
 7272SOL    HW223714   3.766   9.735  12.649
 7273SOL     OW23715   1.898   1.328   0.079
 7273SOL    HW123716   1.954   1.288   0.013
 7273SOL    HW223717   1.920   1.282   0.160
 7274SOL     OW23718   3.889  14.028   9.681
 7274SOL    HW123719   3.836  13.970   9.736
 7274SOL    HW223720   3.830  14.098   9.656
 7275SOL     OW23721   7.073  12.354   1.666
 7275SOL    HW123722   7.081  12.264   1.698
 7275SOL    HW223723   7.057  12.344   1.572
 7276SOL     OW23724   6.831  11.856   4.659
 7276SOL    HW123725   6.789  11.940   4.680
 7276SOL    HW223726   6.811  11.842   4.566
 7277SOL     OW23727   8.182   4.986  13.459
 7277SOL    HW123728   8.145   4.963  13.544
 7277SOL    HW223729   8.193   4.902  13.414
 7278SOL     OW23730   2.561   5.231  13.429
 7278SOL    HW123731   2.588   5.267  13.345
 7278SOL    HW223732   2.565   5.136  13.417
 7279SOL     OW23733   3.415   6.261  13.685
 7279SOL    HW123734   3.395   6.169  13.699
 7279SOL    HW223735   3.330   6.305  13.685
 7280SOL     OW23736  11.333   8.428   0.248
 7280SOL    HW123737  11.285   8.508   0.268
 7280SOL    HW223738  11.353   8.389   0.334
 7281SOL     OW23739   0.318   1.990   5.417
 7281SOL    HW123740   0.327   1.916   5.357
 7281SOL    HW223741   0.223   2.002   5.426
 7282SOL     OW23742   0.883   5.254   6.570
 7282SOL    HW123743   0.803   5.292   6.532
 7282SOL    HW223744   0.852   5.179   6.620
 7283SOL     OW23745  14.683   2.121   9.466
 7283SOL    HW123746  14.647   2.092   9.382
 7283SOL    HW223747  14.749   2.186   9.443
 7284SOL     OW23748   0.777   3.829   1.462
 7284SOL    HW123749   0.735   3.744   1.457
 7284SOL    HW223750   0.818   3.831   1.548
 7285SOL     OW23751  11.815   4.209   5.429
 7285SOL    HW123752  11.786   4.271   5.495
 7285SOL    HW223753  11.878   4.258   5.376
 7286SOL     OW23754   4.892   5.308   7.543
 7286SOL    HW123755   4.906   5.297   7.449
 7286SOL    HW223756   4.976   5.289   7.583
 7287SOL     OW23757   1.352  10.242   0.331
 7287SOL    HW123758   1.305  10.324   0.317
 7287SOL    HW223759   1.323  10.186   0.259
 7288SOL     OW23760  13.136  10.123   8.327
 7288SOL    HW123761  13.095  10.109   8.242
 7288SOL    HW223762  13.174  10.211   8.321
 7289SOL     OW23763   9.176   8.206   8.199
 7289SOL    HW123764   9.181   8.183   8.107
 7289SOL    HW223765   9.228   8.286   8.207
 7290SOL     OW23766  10.379   3.653   9.523
 7290SOL    HW123767  10.318   3.587   9.555
 7290SOL    HW223768  10.436   3.672   9.598
 7291SOL     OW23769   1.377   0.164   4.127
 7291SOL    HW123770   1.309   0.221   4.163
 7291SOL    HW223771   1.379   0.186   4.034
 7292SOL     OW23772   1.553   6.830   8.162
 7292SOL    HW123773   1.567   6.907   8.218
 7292SOL    HW223774   1.533   6.760   8.224
 7293SOL     OW23775   9.216   7.781   8.231
 7293SOL    HW123776   9.170   7.754   8.151
 7293SOL    HW223777   9.152   7.767   8.301
 7294SOL     OW23778   0.124   1.986  11.461
 7294SOL    HW123779   0.200   2.040  11.480
 7294SOL    HW223780   0.049   2.040  11.485
 7295SOL     OW23781   6.286  13.685   4.614
 7295SOL    HW123782   6.282  13.663   4.707
 7295SOL    HW223783   6.247  13.610   4.569
 7296SOL     OW23784   0.694  11.022   6.241
 7296SOL    HW123785   0.659  10.979   6.318
 7296SOL    HW223786   0.622  11.022   6.178
 7297SOL     OW23787  10.181   1.726  11.814
 7297SOL    HW123788  10.110   1.770  11.767
 7297SOL    HW223789  10.175   1.635  11.785
 7298SOL     OW23790   6.848   0.523  12.952
 7298SOL    HW123791   6.927   0.548  13.000
 7298SOL    HW223792   6.778   0.574  12.994
 7299SOL     OW23793  11.995   8.512  11.101
 7299SOL    HW123794  12.075   8.462  11.086
 7299SOL    HW223795  12.008   8.594  11.054
 7300SOL     OW23796   5.794   8.865   2.621
 7300SOL    HW123797   5.769   8.790   2.674
 7300SOL    HW223798   5.889   8.856   2.610
 7301SOL     OW23799   4.538  13.351   8.605
 7301SOL    HW123800   4.512  13.292   8.676
 7301SOL    HW223801   4.586  13.421   8.649
 7302SOL     OW23802   2.053   4.169   4.377
 7302SOL    HW123803   1.985   4.228   4.408
 7302SOL    HW223804   2.130   4.225   4.366
 7303SOL     OW23805  10.837   0.885   4.930
 7303SOL    HW123806  10.831   0.935   4.849
 7303SOL    HW223807  10.849   0.794   4.901
 7304SOL     OW23808   2.517   0.901  10.681
 7304SOL    HW123809   2.596   0.929  10.634
 7304SOL    HW223810   2.542   0.821  10.726
 7305SOL     OW23811   7.645   8.223   2.210
 7305SOL    HW123812   7.613   8.165   2.279
 7305SOL    HW223813   7.565   8.254   2.167
 7306SOL     OW23814   6.886   3.485   7.173
 7306SOL    HW123815   6.872   3.558   7.234
 7306SOL    HW223816   6.922   3.416   7.228
 7307SOL     OW23817   3.215   4.550   0.214
 7307SOL    HW123818   3.210   4.553   0.309
 7307SOL    HW223819   3.134   4.590   0.184
 7308SOL     OW23820   7.323  14.673   8.378
 7308SOL    HW123821   7.231  14.664   8.403
 7308SOL    HW223822   7.337  14.767   8.373
 7309SOL     OW23823   8.620  11.079   5.790
 7309SOL    HW123824   8.545  11.082   5.732
 7309SOL    HW223825   8.688  11.035   5.740
 7310SOL     OW23826   3.538   1.311  10.079
 7310SOL    HW123827   3.513   1.228  10.121
 7310SOL    HW223828   3.586   1.359  10.147
 7311SOL     OW23829  13.478   3.923  13.874
 7311SOL    HW123830  13.467   3.851  13.812
 7311SOL    HW223831  13.558   3.902  13.922
 7312SOL     OW23832  14.866   5.517   4.368
 7312SOL    HW123833  14.798   5.517   4.434
 7312SOL    HW223834   0.044   5.455   4.401
 7313SOL     OW23835   9.180   4.444   4.355
 7313SOL    HW123836   9.091   4.422   4.329
 7313SOL    HW223837   9.235   4.381   4.308
 7314SOL     OW23838  11.999   6.086   4.407
 7314SOL    HW123839  12.082   6.059   4.368
 7314SOL    HW223840  12.015   6.084   4.501
 7315SOL     OW23841   2.539  10.632   9.942
 7315SOL    HW123842   2.459  10.616   9.994
 7315SOL    HW223843   2.606  10.652  10.008
 7316SOL     OW23844   6.915   0.580   9.024
 7316SOL    HW123845   6.916   0.584   8.928
 7316SOL    HW223846   6.829   0.616   9.048
 7317SOL     OW23847  13.714   7.885   2.277
 7317SOL    HW123848  13.704   7.790   2.272
 7317SOL    HW223849  13.644   7.913   2.335
 7318SOL     OW23850  13.308   8.718   2.980
 7318SOL    HW123851  13.356   8.709   3.062
 7318SOL    HW223852  13.250   8.792   2.994
 7319SOL     OW23853   9.304   3.174  14.346
 7319SOL    HW123854   9.220   3.204  14.312
 7319SOL    HW223855   9.315   3.222  14.429
 7320SOL     OW23856   8.671   3.530   7.019
 7320SOL    HW123857   8.721   3.560   6.944
 7320SOL    HW223858   8.717   3.451   7.049
 7321SOL     OW23859  10.109   6.482   3.408
 7321SOL    HW123860  10.045   6.431   3.458
 7321SOL    HW223861  10.062   6.510   3.329
 7322SOL     OW23862   1.548   9.277   9.806
 7322SOL    HW123863   1.529   9.184   9.789
 7322SOL    HW223864   1.562   9.281   9.901
 7323SOL     OW23865   1.069  14.765  10.936
 7323SOL    HW123866   1.139  14.739  10.877
 7323SOL    HW223867   1.013  14.822  10.884
 7324SOL     OW23868   2.082  13.344  14.435
 7324SOL    HW123869   2.123  13.263  14.464
 7324SOL    HW223870   2.154  13.398  14.402
 7325SOL     OW23871   2.370   7.025   2.248
 7325SOL    HW123872   2.353   7.010   2.341
 7325SOL    HW223873   2.322   6.955   2.203
 7326SOL     OW23874   1.589   2.732   6.519
 7326SOL    HW123875   1.662   2.671   6.528
 7326SOL    HW223876   1.526   2.686   6.464
 7327SOL     OW23877   6.150  12.837   8.223
 7327SOL    HW123878   6.124  12.922   8.186
 7327SOL    HW223879   6.241  12.850   8.249
 7328SOL     OW23880   1.742   5.038   5.616
 7328SOL    HW123881   1.709   5.123   5.585
 7328SOL    HW223882   1.739   5.045   5.711
 7329SOL     OW23883   7.559  13.389  11.145
 7329SOL    HW123884   7.577  13.482  11.160
 7329SOL    HW223885   7.646  13.347  11.146
 7330SOL     OW23886   7.116  13.667   2.505
 7330SOL    HW123887   7.107  13.699   2.594
 7330SOL    HW223888   7.208  13.639   2.498
 7331SOL     OW23889   2.965   5.280   3.023
 7331SOL    HW123890   2.927   5.216   3.083
 7331SOL    HW223891   2.954   5.242   2.936
 7332SOL     OW23892   0.206   4.049  12.066
 7332SOL    HW123893   0.178   4.140  12.076
 7332SOL    HW223894   0.207   4.034  11.971
 7333SOL     OW23895   2.653  12.736   5.859
 7333SOL    HW123896   2.704  12.661   5.828
 7333SOL    HW223897   2.594  12.700   5.925
 7334SOL     OW23898   4.525   2.448   8.055
 7334SOL    HW123899   4.541   2.511   8.126
 7334SOL    HW223900   4.509   2.365   8.099
 7335SOL     OW23901   1.896   0.787   5.065
 7335SOL    HW123902   1.973   0.807   5.118
 7335SOL    HW223903   1.834   0.857   5.086
 7336SOL     OW23904   7.910   1.338  13.810
 7336SOL    HW123905   7.970   1.382  13.870
 7336SOL    HW223906   7.944   1.360  13.723
 7337SOL     OW23907  13.542   5.389   0.631
 7337SOL    HW123908  13.478   5.416   0.698
 7337SOL    HW223909  13.508   5.306   0.598
 7338SOL     OW23910   9.111   6.635   4.333
 7338SOL    HW123911   9.074   6.688   4.404
 7338SOL    HW223912   9.110   6.693   4.257
 7339SOL     OW23913  11.709   6.631   2.533
 7339SOL    HW123914  11.734   6.594   2.617
 7339SOL    HW223915  11.734   6.723   2.538
 7340SOL     OW23916  12.830  13.059   2.680
 7340SOL    HW123917  12.878  13.124   2.628
 7340SOL    HW223918  12.753  13.106   2.712
 7341SOL     OW23919   7.643   7.455  12.249
 7341SOL    HW123920   7.552   7.424  12.248
 7341SOL    HW223921   7.691   7.387  12.296
 7342SOL     OW23922   4.163  12.728  10.090
 7342SOL    HW123923   4.201  12.707  10.005
 7342SOL    HW223924   4.215  12.802  10.122
 7343SOL     OW23925  14.602   4.822   7.518
 7343SOL    HW123926  14.673   4.887   7.516
 7343SOL    HW223927  14.602   4.784   7.431
 7344SOL     OW23928   4.143   1.720   8.040
 7344SOL    HW123929   4.107   1.631   8.032
 7344SOL    HW223930   4.199   1.715   8.118
 7345SOL     OW23931   6.282   7.944   6.245
 7345SOL    HW123932   6.295   8.008   6.175
 7345SOL    HW223933   6.300   7.993   6.326
 7346SOL     OW23934  12.981  11.104   9.028
 7346SOL    HW123935  13.018  11.098   9.116
 7346SOL    HW223936  13.057  11.114   8.970
 7347SOL     OW23937  14.698   8.328  12.937
 7347SOL    HW123938  14.611   8.288  12.942
 7347SOL    HW223939  14.694   8.384  12.859
 7348SOL     OW23940   4.174   4.215  13.507
 7348SOL    HW123941   4.214   4.261  13.581
 7348SOL    HW223942   4.097   4.268  13.485
 7349SOL     OW23943   7.774   6.945  11.345
 7349SOL    HW123944   7.791   7.029  11.387
 7349SOL    HW223945   7.707   6.904  11.399
 7350SOL     OW23946  11.809   6.773   7.941
 7350SOL    HW123947  11.829   6.736   7.855
 7350SOL    HW223948  11.763   6.702   7.987
 7351SOL     OW23949  12.822   3.960   3.053
 7351SOL    HW123950  12.729   3.965   3.032
 7351SOL    HW223951  12.826   3.974   3.148
 7352SOL     OW23952   5.658   8.893   8.615
 7352SOL    HW123953   5.620   8.978   8.639
 7352SOL    HW223954   5.587   8.847   8.570
 7353SOL     OW23955   1.562   3.085   7.272
 7353SOL    HW123956   1.554   2.995   7.242
 7353SOL    HW223957   1.600   3.133   7.198
 7354SOL     OW23958  12.958   3.500   1.816
 7354SOL    HW123959  13.018   3.450   1.871
 7354SOL    HW223960  12.871   3.474   1.845
 7355SOL     OW23961   5.888  10.842   9.999
 7355SOL    HW123962   5.983  10.844   9.989
 7355SOL    HW223963   5.854  10.882   9.919
 7356SOL     OW23964  11.886   3.495   8.517
 7356SOL    HW123965  11.953   3.535   8.462
 7356SOL    HW223966  11.921   3.409   8.539
 7357SOL     OW23967  13.933   5.865   5.398
 7357SOL    HW123968  13.924   5.783   5.448
 7357SOL    HW223969  14.021   5.896   5.419
 7358SOL     OW23970   8.375  10.006   1.171
 7358SOL    HW123971   8.301  10.047   1.126
 7358SOL    HW223972   8.400  10.069   1.239
 7359SOL     OW23973   1.585   7.518  11.963
 7359SOL    HW123974   1.610   7.607  11.939
 7359SOL    HW223975   1.575   7.473  11.878
 7360SOL     OW23976  10.489   6.590   3.747
 7360SOL    HW123977  10.571   6.544   3.763
 7360SOL    HW223978  10.452   6.604   3.835
 7361SOL     OW23979   0.409   3.928   9.139
 7361SOL    HW123980   0.330   3.919   9.192
 7361SOL    HW223981   0.447   4.012   9.167
 7362SOL     OW23982   6.806   5.851  12.058
 7362SOL    HW123983   6.863   5.927  12.051
 7362SOL    HW223984   6.842   5.787  11.997
 7363SOL     OW23985   6.492   0.922  11.164
 7363SOL    HW123986   6.477   0.957  11.076
 7363SOL    HW223987   6.544   0.843  11.149
 7364SOL     OW23988   7.989  11.344   7.101
 7364SOL    HW123989   8.048  11.337   7.026
 7364SOL    HW223990   8.043  11.382   7.171
 7365SOL     OW23991   0.256   1.088   4.961
 7365SOL    HW123992   0.239   1.088   4.867
 7365SOL    HW223993   0.272   1.180   4.982
 7366SOL     OW23994  14.820  14.087   2.912
 7366SOL    HW123995  14.879  14.036   2.857
 7366SOL    HW223996  14.734  14.076   2.872
 7367SOL     OW23997  12.052   2.770   9.694
 7367SOL    HW123998  12.102   2.690   9.712
 7367SOL    HW223999  12.112   2.823   9.641
 7368SOL     OW24000  11.448  10.217  12.620
 7368SOL    HW124001  11.542  10.234  12.622
 7368SOL    HW224002  11.411  10.294  12.577
 7369SOL     OW24003  12.309  14.512   6.517
 7369SOL    HW124004  12.240  14.506   6.452
 7369SOL    HW224005  12.264  14.504   6.601
 7370SOL     OW24006   8.562   8.438  10.582
 7370SOL    HW124007   8.522   8.389  10.510
 7370SOL    HW224008   8.511   8.518  10.589
 7371SOL     OW24009   0.168   2.339   1.685
 7371SOL    HW124010   0.128   2.367   1.603
 7371SOL    HW224011   0.259   2.321   1.661
 7372SOL     OW24012   2.337  14.030   5.378
 7372SOL    HW124013   2.366  14.035   5.287
 7372SOL    HW224014   2.386  13.956   5.415
 7373SOL     OW24015  12.930   0.852   0.920
 7373SOL    HW124016  12.838   0.827   0.932
 7373SOL    HW224017  12.945   0.842   0.826
 7374SOL     OW24018   4.757   9.231  11.991
 7374SOL    HW124019   4.668   9.197  11.980
 7374SOL    HW224020   4.811   9.153  12.003
 7375SOL     OW24021   9.288   0.409  13.541
 7375SOL    HW124022   9.306   0.378  13.452
 7375SOL    HW224023   9.200   0.379  13.560
 7376SOL     OW24024   7.409   9.897   7.938
 7376SOL    HW124025   7.327   9.905   7.986
 7376SOL    HW224026   7.389   9.837   7.866
 7377SOL     OW24027  12.600   9.832  12.999
 7377SOL    HW124028  12.575   9.910  12.951
 7377SOL    HW224029  12.541   9.830  13.074
 7378SOL     OW24030   3.775   8.007  11.405
 7378SOL    HW124031   3.839   8.064  11.446
 7378SOL    HW224032   3.751   8.052  11.324
 7379SOL     OW24033  12.373  13.247   4.944
 7379SOL    HW124034  12.385  13.302   5.021
 7379SOL    HW224035  12.284  13.214   4.951
 7380SOL     OW24036   3.431   3.181   1.202
 7380SOL    HW124037   3.507   3.231   1.171
 7380SOL    HW224038   3.396   3.234   1.274
 7381SOL     OW24039   8.010   5.211   4.206
 7381SOL    HW124040   7.925   5.177   4.233
 7381SOL    HW224041   8.043   5.146   4.143
 7382SOL     OW24042   2.687   6.599   4.187
 7382SOL    HW124043   2.762   6.647   4.221
 7382SOL    HW224044   2.661   6.646   4.108
 7383SOL     OW24045   3.901  11.343   4.731
 7383SOL    HW124046   3.811  11.362   4.757
 7383SOL    HW224047   3.896  11.333   4.635
 7384SOL     OW24048   7.215   1.841   3.562
 7384SOL    HW124049   7.300   1.801   3.579
 7384SOL    HW224050   7.173   1.782   3.499
 7385SOL     OW24051   4.508   7.756  14.546
 7385SOL    HW124052   4.545   7.668  14.543
 7385SOL    HW224053   4.438   7.755  14.481
 7386SOL     OW24054   8.812   6.477  14.160
 7386SOL    HW124055   8.852   6.530  14.091
 7386SOL    HW224056   8.885   6.452  14.216
 7387SOL     OW24057  11.690   1.598  12.768
 7387SOL    HW124058  11.615   1.654  12.787
 7387SOL    HW224059  11.766   1.653  12.784
 7388SOL     OW24060  14.873   2.986  11.485
 7388SOL    HW124061   0.042   3.058  11.456
 7388SOL    HW224062  14.805   3.028  11.537
 7389SOL     OW24063   6.633  10.560   2.205
 7389SOL    HW124064   6.626  10.649   2.171
 7389SOL    HW224065   6.668  10.509   2.132
 7390SOL     OW24066   0.647  14.105  11.301
 7390SOL    HW124067   0.647  14.181  11.242
 7390SOL    HW224068   0.567  14.116  11.353
 7391SOL     OW24069   8.745   8.743   1.762
 7391SOL    HW124070   8.761   8.775   1.673
 7391SOL    HW224071   8.695   8.663   1.750
 7392SOL     OW24072  11.892   8.462  10.564
 7392SOL    HW124073  11.812   8.466  10.617
 7392SOL    HW224074  11.962   8.476  10.628
 7393SOL     OW24075   0.187  12.596   2.630
 7393SOL    HW124076   0.108  12.617   2.680
 7393SOL    HW224077   0.154  12.570   2.544
 7394SOL     OW24078   3.871   9.810  12.517
 7394SOL    HW124079   3.957   9.805  12.559
 7394SOL    HW224080   3.889   9.809  12.423
 7395SOL     OW24081   0.814   3.244   7.497
 7395SOL    HW124082   0.874   3.276   7.564
 7395SOL    HW224083   0.825   3.149   7.498
 7396SOL     OW24084   3.167  14.213  14.605
 7396SOL    HW124085   3.238  14.182  14.661
 7396SOL    HW224086   3.210  14.236  14.523
 7397SOL     OW24087   4.333  10.212   2.110
 7397SOL    HW124088   4.336  10.117   2.097
 7397SOL    HW224089   4.251  10.239   2.069
 7398SOL     OW24090  14.846   2.193  12.713
 7398SOL    HW124091   0.028   2.152  12.663
 7398SOL    HW224092  14.766   2.149  12.684
 7399SOL     OW24093  13.625   8.290   9.719
 7399SOL    HW124094  13.538   8.321   9.692
 7399SOL    HW224095  13.623   8.196   9.702
 7400SOL     OW24096   4.660  10.778   6.766
 7400SOL    HW124097   4.599  10.725   6.713
 7400SOL    HW224098   4.743  10.773   6.718
 7401SOL     OW24099  12.674   2.034  13.816
 7401SOL    HW124100  12.579   2.048  13.817
 7401SOL    HW224101  12.688   1.968  13.749
 7402SOL     OW24102   0.085   9.884  13.403
 7402SOL    HW124103   0.051   9.960  13.356
 7402SOL    HW224104   0.164   9.860  13.355
 7403SOL     OW24105   2.445   0.858   8.102
 7403SOL    HW124106   2.530   0.825   8.073
 7403SOL    HW224107   2.438   0.944   8.061
 7404SOL     OW24108  14.020   5.494   8.852
 7404SOL    HW124109  14.020   5.462   8.761
 7404SOL    HW224110  14.111   5.483   8.880
 7405SOL     OW24111  12.409   3.647  13.349
 7405SOL    HW124112  12.363   3.644  13.433
 7405SOL    HW224113  12.340   3.666  13.285
 7406SOL     OW24114   4.022  10.066   5.127
 7406SOL    HW124115   4.013   9.981   5.171
 7406SOL    HW224116   3.977  10.054   5.043
 7407SOL     OW24117   9.147   6.338  11.971
 7407SOL    HW124118   9.113   6.406  11.912
 7407SOL    HW224119   9.158   6.383  12.055
 7408SOL     OW24120  10.836   8.125  14.532
 7408SOL    HW124121  10.787   8.053  14.574
 7408SOL    HW224122  10.769   8.179  14.491
 7409SOL     OW24123  12.661   3.872   0.767
 7409SOL    HW124124  12.675   3.949   0.712
 7409SOL    HW224125  12.695   3.898   0.853
 7410SOL     OW24126  10.199   3.395  13.043
 7410SOL    HW124127  10.110   3.420  13.018
 7410SOL    HW224128  10.190   3.306  13.077
 7411SOL     OW24129   8.717  14.514   9.910
 7411SOL    HW124130   8.748  14.571   9.980
 7411SOL    HW224131   8.797  14.488   9.864
 7412SOL     OW24132   2.694  10.503  12.483
 7412SOL    HW124133   2.788  10.514  12.467
 7412SOL    HW224134   2.670  10.426  12.431
 7413SOL     OW24135  12.047   6.882   9.860
 7413SOL    HW124136  12.018   6.973   9.863
 7413SOL    HW224137  12.007   6.846   9.781
 7414SOL     OW24138   3.182  11.941   3.143
 7414SOL    HW124139   3.117  11.873   3.163
 7414SOL    HW224140   3.163  11.966   3.053
 7415SOL     OW24141  13.092   5.075  13.714
 7415SOL    HW124142  13.021   5.117  13.667
 7415SOL    HW224143  13.166   5.136  13.706
 7416SOL     OW24144   4.258  10.023  11.827
 7416SOL    HW124145   4.202  10.035  11.751
 7416SOL    HW224146   4.204   9.976  11.890
 7417SOL     OW24147  12.843   3.595  12.273
 7417SOL    HW124148  12.855   3.639  12.356
 7417SOL    HW224149  12.761   3.632  12.238
 7418SOL     OW24150  12.011   3.170   3.013
 7418SOL    HW124151  11.989   3.077   3.024
 7418SOL    HW224152  12.011   3.183   2.918
 7419SOL     OW24153   7.741   3.294   0.206
 7419SOL    HW124154   7.649   3.274   0.191
 7419SOL    HW224155   7.745   3.319   0.299
 7420SOL     OW24156   1.208   4.411  10.884
 7420SOL    HW124157   1.153   4.429  10.960
 7420SOL    HW224158   1.191   4.483  10.823
 7421SOL     OW24159  13.787   2.732   2.572
 7421SOL    HW124160  13.879   2.739   2.597
 7421SOL    HW224161  13.751   2.819   2.589
 7422SOL     OW24162   4.253   8.501  11.188
 7422SOL    HW124163   4.330   8.536  11.143
 7422SOL    HW224164   4.191   8.481  11.118
 7423SOL     OW24165   7.240   1.689   7.264
 7423SOL    HW124166   7.332   1.690   7.238
 7423SOL    HW224167   7.204   1.771   7.231
 7424SOL     OW24168   3.005   8.788  13.017
 7424SOL    HW124169   3.021   8.788  12.923
 7424SOL    HW224170   3.082   8.831  13.055
 7425SOL     OW24171   8.965   8.508   7.763
 7425SOL    HW124172   8.883   8.555   7.747
 7425SOL    HW224173   8.971   8.444   7.692
 7426SOL     OW24174   1.369   5.967  11.269
 7426SOL    HW124175   1.351   5.973  11.175
 7426SOL    HW224176   1.283   5.960  11.310
 7427SOL     OW24177   0.519   1.771   5.737
 7427SOL    HW124178   0.603   1.731   5.717
 7427SOL    HW224179   0.521   1.856   5.694
 7428SOL     OW24180   9.264   1.897   7.766
 7428SOL    HW124181   9.194   1.962   7.765
 7428SOL    HW224182   9.337   1.941   7.721
 7429SOL     OW24183   7.059   1.165   0.181
 7429SOL    HW124184   6.994   1.228   0.212
 7429SOL    HW224185   7.061   1.097   0.248
 7430SOL     OW24186  14.674  10.164   6.537
 7430SOL    HW124187  14.690  10.114   6.457
 7430SOL    HW224188  14.708  10.108   6.607
 7431SOL     OW24189   2.445   8.514   1.181
 7431SOL    HW124190   2.469   8.429   1.218
 7431SOL    HW224191   2.474   8.509   1.090
 7432SOL     OW24192  12.521   9.751  10.391
 7432SOL    HW124193  12.554   9.727  10.305
 7432SOL    HW224194  12.476   9.673  10.423
 7433SOL     OW24195  11.877  12.105   0.030
 7433SOL    HW124196  11.943  12.158   0.075
 7433SOL    HW224197  11.925  12.031  14.883
 7434SOL     OW24198  12.230   1.174  12.222
 7434SOL    HW124199  12.242   1.259  12.178
 7434SOL    HW224200  12.140   1.176  12.255
 7435SOL     OW24201  11.468   3.750   8.461
 7435SOL    HW124202  11.519   3.679   8.501
 7435SOL    HW224203  11.473   3.732   8.367
 7436SOL     OW24204   4.350   4.819   7.322
 7436SOL    HW124205   4.332   4.871   7.401
 7436SOL    HW224206   4.309   4.869   7.251
 7437SOL     OW24207  11.921   6.552   4.757
 7437SOL    HW124208  11.872   6.623   4.797
 7437SOL    HW224209  11.864   6.520   4.688
 7438SOL     OW24210  10.436   7.199  14.237
 7438SOL    HW124211  10.529   7.212  14.258
 7438SOL    HW224212  10.389   7.235  14.312
 7439SOL     OW24213  10.571   0.402  11.268
 7439SOL    HW124214  10.591   0.336  11.334
 7439SOL    HW224215  10.574   0.486  11.315
 7440SOL     OW24216   3.424   4.817   8.624
 7440SOL    HW124217   3.342   4.822   8.576
 7440SOL    HW224218   3.398   4.813   8.716
 7441SOL     OW24219   4.295  11.035   9.469
 7441SOL    HW124220   4.375  11.037   9.520
 7441SOL    HW224221   4.300  10.954   9.418
 7442SOL     OW24222   4.396   8.499   9.237
 7442SOL    HW124223   4.434   8.576   9.193
 7442SOL    HW224224   4.443   8.425   9.200
 7443SOL     OW24225  12.236   0.882  13.930
 7443SOL    HW124226  12.322   0.908  13.898
 7443SOL    HW224227  12.175   0.930  13.874
 7444SOL     OW24228   3.137   1.601  13.307
 7444SOL    HW124229   3.123   1.559  13.222
 7444SOL    HW224230   3.068   1.564  13.363
 7445SOL     OW24231  14.705  10.706   1.811
 7445SOL    HW124232  14.610  10.711   1.810
 7445SOL    HW224233  14.731  10.751   1.891
 7446SOL     OW24234   8.534   6.658   1.407
 7446SOL    HW124235   8.568   6.695   1.489
 7446SOL    HW224236   8.439   6.660   1.417
 7447SOL     OW24237  10.308   1.264   2.198
 7447SOL    HW124238  10.393   1.220   2.206
 7447SOL    HW224239  10.320   1.324   2.125
 7448SOL     OW24240   1.894   6.077  10.386
 7448SOL    HW124241   1.939   6.141  10.441
 7448SOL    HW224242   1.928   5.993  10.416
 7449SOL     OW24243  12.392  12.659   2.638
 7449SOL    HW124244  12.463  12.601   2.664
 7449SOL    HW224245  12.401  12.735   2.696
 7450SOL     OW24246   2.667   5.095   5.738
 7450SOL    HW124247   2.591   5.145   5.707
 7450SOL    HW224248   2.709   5.153   5.801
 7451SOL     OW24249  13.290   3.098   8.259
 7451SOL    HW124250  13.198   3.083   8.239
 7451SOL    HW224251  13.334   3.100   8.174
 7452SOL     OW24252  14.220  10.431   4.717
 7452SOL    HW124253  14.210  10.511   4.768
 7452SOL    HW224254  14.247  10.461   4.630
 7453SOL     OW24255   3.463  13.001   8.772
 7453SOL    HW124256   3.530  12.980   8.837
 7453SOL    HW224257   3.440  12.916   8.735
 7454SOL     OW24258   2.478   4.774   4.517
 7454SOL    HW124259   2.408   4.814   4.465
 7454SOL    HW224260   2.439   4.761   4.604
 7455SOL     OW24261   9.831   5.762   4.206
 7455SOL    HW124262   9.740   5.774   4.236
 7455SOL    HW224263   9.868   5.698   4.267
 7456SOL     OW24264   5.660   4.882   5.078
 7456SOL    HW124265   5.616   4.900   4.995
 7456SOL    HW224266   5.753   4.889   5.057
 7457SOL     OW24267   0.586   7.279   2.779
 7457SOL    HW124268   0.675   7.286   2.743
 7457SOL    HW224269   0.541   7.220   2.718
 7458SOL     OW24270   9.219   0.771  13.476
 7458SOL    HW124271   9.251   0.857  13.448
 7458SOL    HW224272   9.272   0.749  13.553
 7459SOL     OW24273  10.824   2.314   8.059
 7459SOL    HW124274  10.844   2.395   8.012
 7459SOL    HW224275  10.732   2.322   8.083
 7460SOL     OW24276   4.900  13.610   2.143
 7460SOL    HW124277   4.947  13.528   2.159
 7460SOL    HW224278   4.949  13.676   2.193
 7461SOL     OW24279  13.350   6.770   0.552
 7461SOL    HW124280  13.445   6.768   0.562
 7461SOL    HW224281  13.326   6.680   0.530
 7462SOL     OW24282   1.678   9.909   5.436
 7462SOL    HW124283   1.666   9.837   5.498
 7462SOL    HW224284   1.768   9.901   5.406
 7463SOL     OW24285   8.130  13.427   7.938
 7463SOL    HW124286   8.136  13.516   7.974
 7463SOL    HW224287   8.121  13.370   8.014
 7464SOL     OW24288  13.721  11.059   0.660
 7464SOL    HW124289  13.747  10.990   0.722
 7464SOL    HW224290  13.779  11.047   0.586
 7465SOL     OW24291  13.915  13.169   9.102
 7465SOL    HW124292  13.965  13.190   9.023
 7465SOL    HW224293  13.858  13.245   9.115
 7466SOL     OW24294   1.465   0.348   5.470
 7466SOL    HW124295   1.402   0.377   5.405
 7466SOL    HW224296   1.457   0.253   5.472
 7467SOL     OW24297   4.525  14.278   4.244
 7467SOL    HW124298   4.598  14.339   4.233
 7467SOL    HW224299   4.561  14.208   4.299
 7468SOL     OW24300  11.261  11.901   8.927
 7468SOL    HW124301  11.320  11.934   8.860
 7468SOL    HW224302  11.288  11.946   9.007
 7469SOL     OW24303  10.776   8.090  10.344
 7469SOL    HW124304  10.703   8.041  10.382
 7469SOL    HW224305  10.777   8.065  10.252
 7470SOL     OW24306  11.711  14.867  11.112
 7470SOL    HW124307  11.771  14.815  11.059
 7470SOL    HW224308  11.767   0.042  11.158
 7471SOL     OW24309   4.898  13.755   1.402
 7471SOL    HW124310   4.941  13.671   1.384
 7471SOL    HW224311   4.812  13.731   1.435
 7472SOL     OW24312  11.989  11.594   8.343
 7472SOL    HW124313  11.984  11.562   8.253
 7472SOL    HW224314  12.083  11.605   8.360
 7473SOL     OW24315  11.565   1.900   4.543
 7473SOL    HW124316  11.592   1.823   4.593
 7473SOL    HW224317  11.481   1.876   4.504
 7474SOL     OW24318   7.419   5.829   0.957
 7474SOL    HW124319   7.340   5.799   1.001
 7474SOL    HW224320   7.484   5.760   0.974
 7475SOL     OW24321   7.022   0.599   8.730
 7475SOL    HW124322   7.014   0.599   8.635
 7475SOL    HW224323   7.113   0.574   8.746
 7476SOL     OW24324   0.772  13.837   2.712
 7476SOL    HW124325   0.725  13.914   2.745
 7476SOL    HW224326   0.826  13.870   2.641
 7477SOL     OW24327   2.422   4.164  13.190
 7477SOL    HW124328   2.327   4.159  13.180
 7477SOL    HW224329   2.437   4.137  13.281
 7478SOL     OW24330   2.643  12.047  13.343
 7478SOL    HW124331   2.639  11.951  13.339
 7478SOL    HW224332   2.687  12.066  13.425
 7479SOL     OW24333   3.474  11.418  10.793
 7479SOL    HW124334   3.482  11.405  10.699
 7479SOL    HW224335   3.565  11.421  10.824
 7480SOL     OW24336   1.000  11.809   1.562
 7480SOL    HW124337   1.085  11.798   1.521
 7480SOL    HW224338   0.995  11.903   1.584
 7481SOL     OW24339  10.753  10.399  11.982
 7481SOL    HW124340  10.828  10.382  11.925
 7481SOL    HW224341  10.766  10.342  12.058
 7482SOL     OW24342  11.533   2.666   7.931
 7482SOL    HW124343  11.618   2.623   7.939
 7482SOL    HW224344  11.552   2.748   7.885
 7483SOL     OW24345   7.082  12.769   4.243
 7483SOL    HW124346   6.992  12.797   4.261
 7483SOL    HW224347   7.076  12.674   4.235
 7484SOL     OW24348   4.713  14.286   9.115
 7484SOL    HW124349   4.650  14.334   9.170
 7484SOL    HW224350   4.660  14.246   9.047
 7485SOL     OW24351  12.747  12.385  11.416
 7485SOL    HW124352  12.833  12.355  11.388
 7485SOL    HW224353  12.692  12.382  11.337
 7486SOL     OW24354   7.166  10.626   3.716
 7486SOL    HW124355   7.258  10.645   3.699
 7486SOL    HW224356   7.166  10.578   3.799
 7487SOL     OW24357   4.661  13.357   4.484
 7487SOL    HW124358   4.594  13.394   4.541
 7487SOL    HW224359   4.614  13.293   4.431
 7488SOL     OW24360   8.900   6.274  14.511
 7488SOL    HW124361   8.832   6.327  14.553
 7488SOL    HW224362   8.853   6.196  14.479
 7489SOL     OW24363   2.274  10.346   1.777
 7489SOL    HW124364   2.211  10.399   1.728
 7489SOL    HW224365   2.350  10.341   1.719
 7490SOL     OW24366  13.392  13.604   8.445
 7490SOL    HW124367  13.407  13.589   8.352
 7490SOL    HW224368  13.306  13.646   8.449
 7491SOL     OW24369   1.835  10.070   5.132
 7491SOL    HW124370   1.868  10.015   5.202
 7491SOL    HW224371   1.829  10.012   5.056
 7492SOL     OW24372   1.960   3.077  13.781
 7492SOL    HW124373   1.947   3.171  13.789
 7492SOL    HW224374   1.872   3.041  13.768
 7493SOL     OW24375   4.577   1.064   4.215
 7493SOL    HW124376   4.572   1.070   4.120
 7493SOL    HW224377   4.628   0.984   4.231
 7494SOL     OW24378   0.852   6.818   2.322
 7494SOL    HW124379   0.797   6.760   2.376
 7494SOL    HW224380   0.846   6.903   2.364
 7495SOL     OW24381  13.907  12.967   3.868
 7495SOL    HW124382  13.919  12.913   3.789
 7495SOL    HW224383  13.911  12.904   3.940
 7496SOL     OW24384   8.733  13.886   1.073
 7496SOL    HW124385   8.818  13.860   1.108
 7496SOL    HW224386   8.685  13.804   1.063
 7497SOL     OW24387  12.084   4.426   8.333
 7497SOL    HW124388  12.158   4.482   8.357
 7497SOL    HW224389  12.075   4.365   8.405
 7498SOL     OW24390   0.917  14.105   7.143
 7498SOL    HW124391   0.973  14.149   7.207
 7498SOL    HW224392   0.863  14.045   7.196
 7499SOL     OW24393  12.426   8.410   2.454
 7499SOL    HW124394  12.337   8.406   2.489
 7499SOL    HW224395  12.482   8.390   2.529
 7500SOL     OW24396   1.579  11.925   8.367
 7500SOL    HW124397   1.645  11.974   8.417
 7500SOL    HW224398   1.508  11.987   8.355
 7501SOL     OW24399   4.024   7.818   6.072
 7501SOL    HW124400   4.059   7.731   6.052
 7501SOL    HW224401   3.956   7.802   6.138
 7502SOL     OW24402   3.645  11.326   5.120
 7502SOL    HW124403   3.552  11.303   5.121
 7502SOL    HW224404   3.689  11.247   5.091
 7503SOL     OW24405  12.560  11.420   4.272
 7503SOL    HW124406  12.493  11.410   4.204
 7503SOL    HW224407  12.554  11.512   4.298
 7504SOL     OW24408  11.654  12.926   7.432
 7504SOL    HW124409  11.646  12.869   7.508
 7504SOL    HW224410  11.716  12.993   7.458
 7505SOL     OW24411   2.674   7.479  12.095
 7505SOL    HW124412   2.585   7.499  12.123
 7505SOL    HW224413   2.728   7.496  12.172
 7506SOL     OW24414  13.089  14.255  12.698
 7506SOL    HW124415  13.010  14.307  12.684
 7506SOL    HW224416  13.161  14.316  12.685
 7507SOL     OW24417   7.937  11.111   5.985
 7507SOL    HW124418   7.885  11.094   5.906
 7507SOL    HW224419   8.027  11.117   5.953
 7508SOL     OW24420   1.428   0.110   2.977
 7508SOL    HW124421   1.416   0.199   2.943
 7508SOL    HW224422   1.416   0.053   2.901
 7509SOL     OW24423   4.941   7.206  13.678
 7509SOL    HW124424   4.988   7.255  13.746
 7509SOL    HW224425   4.891   7.141  13.726
 7510SOL     OW24426  11.669  14.057  10.750
 7510SOL    HW124427  11.591  14.040  10.803
 7510SOL    HW224428  11.665  14.150  10.730
 7511SOL     OW24429   9.432   7.549   8.147
 7511SOL    HW124430   9.527   7.558   8.134
 7511SOL    HW224431   9.406   7.631   8.189
 7512SOL     OW24432   2.159   3.612   1.837
 7512SOL    HW124433   2.137   3.667   1.761
 7512SOL    HW224434   2.174   3.525   1.800
 7513SOL     OW24435   9.105   6.537   3.361
 7513SOL    HW124436   9.054   6.618   3.367
 7513SOL    HW224437   9.193   6.562   3.388
 7514SOL     OW24438   1.731  11.904   2.132
 7514SOL    HW124439   1.785  11.948   2.197
 7514SOL    HW224440   1.793  11.861   2.074
 7515SOL     OW24441   4.004  12.819   4.502
 7515SOL    HW124442   3.961  12.854   4.580
 7515SOL    HW224443   3.991  12.724   4.509
 7516SOL     OW24444   3.645   8.250   3.238
 7516SOL    HW124445   3.574   8.298   3.195
 7516SOL    HW224446   3.663   8.300   3.317
 7517SOL     OW24447   2.821   0.891  10.933
 7517SOL    HW124448   2.894   0.885  10.871
 7517SOL    HW224449   2.854   0.851  11.013
 7518SOL     OW24450   9.122   7.475   9.458
 7518SOL    HW124451   9.112   7.384   9.428
 7518SOL    HW224452   9.040   7.494   9.503
 7519SOL     OW24453   7.600   2.271   5.760
 7519SOL    HW124454   7.650   2.276   5.679
 7519SOL    HW224455   7.518   2.317   5.740
 7520SOL     OW24456   2.389   6.301   0.565
 7520SOL    HW124457   2.409   6.386   0.604
 7520SOL    HW224458   2.341   6.254   0.633
 7521SOL     OW24459   2.747   5.864   2.730
 7521SOL    HW124460   2.667   5.861   2.782
 7521SOL    HW224461   2.779   5.774   2.731
 7522SOL     OW24462  11.398  12.264   5.459
 7522SOL    HW124463  11.358  12.244   5.374
 7522SOL    HW224464  11.409  12.359   5.457
 7523SOL     OW24465   9.787  13.592  11.021
 7523SOL    HW124466   9.709  13.537  11.033
 7523SOL    HW224467   9.835  13.550  10.950
 7524SOL     OW24468   0.600   0.831  11.028
 7524SOL    HW124469   0.685   0.790  11.044
 7524SOL    HW224470   0.620   0.908  10.974
 7525SOL     OW24471   9.162  14.883  11.380
 7525SOL    HW124472   9.170  14.853  11.471
 7525SOL    HW224473   9.125   0.083  11.387
 7526SOL     OW24474   8.834  14.031   0.871
 7526SOL    HW124475   8.754  14.064   0.831
 7526SOL    HW224476   8.806  13.995   0.955
 7527SOL     OW24477  10.244   7.815   2.862
 7527SOL    HW124478  10.249   7.782   2.772
 7527SOL    HW224479  10.321   7.778   2.905
 7528SOL     OW24480   6.798   2.403   3.214
 7528SOL    HW124481   6.889   2.373   3.210
 7528SOL    HW224482   6.756   2.343   3.277
 7529SOL     OW24483   7.087   1.541  10.606
 7529SOL    HW124484   7.152   1.577  10.546
 7529SOL    HW224485   7.026   1.612  10.621
 7530SOL     OW24486   9.971   7.400  14.490
 7530SOL    HW124487   9.923   7.475  14.526
 7530SOL    HW224488   9.911   7.361  14.426
 7531SOL     OW24489   5.584   2.695   4.793
 7531SOL    HW124490   5.584   2.787   4.768
 7531SOL    HW224491   5.631   2.650   4.723
 7532SOL     OW24492   5.712  10.282   6.366
 7532SOL    HW124493   5.729  10.356   6.307
 7532SOL    HW224494   5.795  10.233   6.368
 7533SOL     OW24495   1.665  13.898   5.440
 7533SOL    HW124496   1.733  13.942   5.389
 7533SOL    HW224497   1.705  13.882   5.525
 7534SOL     OW24498  10.249  11.650  11.686
 7534SOL    HW124499  10.343  11.635  11.680
 7534SOL    HW224500  10.241  11.728  11.741
 7535SOL     OW24501   8.142   8.099   8.303
 7535SOL    HW124502   8.214   8.160   8.323
 7535SOL    HW224503   8.064   8.144   8.335
 7536SOL     OW24504   9.544   3.843   3.121
 7536SOL    HW124505   9.472   3.783   3.100
 7536SOL    HW224506   9.623   3.794   3.099
 7537SOL     OW24507   0.376   7.674  13.166
 7537SOL    HW124508   0.386   7.767  13.144
 7537SOL    HW224509   0.296   7.671  13.219
 7538SOL     OW24510  11.408   0.338   7.718
 7538SOL    HW124511  11.496   0.377   7.716
 7538SOL    HW224512  11.424   0.244   7.711
 7539SOL     OW24513   0.579   3.972  10.932
 7539SOL    HW124514   0.537   3.955  11.016
 7539SOL    HW224515   0.672   3.960  10.948
 7540SOL     OW24516   3.899   5.094   0.506
 7540SOL    HW124517   3.807   5.072   0.516
 7540SOL    HW224518   3.943   5.050   0.578
 7541SOL     OW24519   9.221  13.185   9.931
 7541SOL    HW124520   9.229  13.235  10.012
 7541SOL    HW224521   9.243  13.095   9.956
 7542SOL     OW24522   5.310   0.616  14.723
 7542SOL    HW124523   5.298   0.704  14.686
 7542SOL    HW224524   5.385   0.581  14.675
 7543SOL     OW24525   8.082   4.024   8.139
 7543SOL    HW124526   8.005   3.981   8.177
 7543SOL    HW224527   8.060   4.034   8.046
 7544SOL     OW24528   3.449  13.686   7.078
 7544SOL    HW124529   3.470  13.607   7.127
 7544SOL    HW224530   3.490  13.673   6.993
 7545SOL     OW24531   8.854   6.185   9.968
 7545SOL    HW124532   8.830   6.245   9.898
 7545SOL    HW224533   8.945   6.208   9.989
 7546SOL     OW24534  13.617   8.779   6.702
 7546SOL    HW124535  13.571   8.772   6.785
 7546SOL    HW224536  13.687   8.842   6.718
 7547SOL     OW24537  13.916   3.203   2.628
 7547SOL    HW124538  13.931   3.219   2.721
 7547SOL    HW224539  13.981   3.136   2.604
 7548SOL     OW24540   2.933   7.971   5.731
 7548SOL    HW124541   3.003   7.929   5.781
 7548SOL    HW224542   2.861   7.909   5.735
 7549SOL     OW24543  11.571   4.025   8.488
 7549SOL    HW124544  11.531   3.939   8.501
 7549SOL    HW224545  11.498   4.083   8.465
 7550SOL     OW24546   5.250   5.857  11.508
 7550SOL    HW124547   5.193   5.882  11.580
 7550SOL    HW224548   5.243   5.762  11.502
 7551SOL     OW24549   6.978   7.487   8.476
 7551SOL    HW124550   7.021   7.496   8.561
 7551SOL    HW224551   6.890   7.523   8.490
 7552SOL     OW24552  14.507   7.041  12.299
 7552SOL    HW124553  14.459   6.985  12.238
 7552SOL    HW224554  14.572   6.984  12.339
 7553SOL     OW24555   0.230   2.891   3.808
 7553SOL    HW124556   0.145   2.849   3.816
 7553SOL    HW224557   0.212   2.985   3.818
 7554SOL     OW24558  11.007  11.475  10.906
 7554SOL    HW124559  11.003  11.569  10.926
 7554SOL    HW224560  11.090  11.464  10.860
 7555SOL     OW24561  12.817  12.784   6.382
 7555SOL    HW124562  12.871  12.863   6.377
 7555SOL    HW224563  12.872  12.715   6.345
 7556SOL     OW24564   9.491   4.446   3.509
 7556SOL    HW124565   9.520   4.516   3.451
 7556SOL    HW224566   9.450   4.492   3.583
 7557SOL     OW24567   2.573   8.784  13.737
 7557SOL    HW124568   2.578   8.868  13.692
 7557SOL    HW224569   2.481   8.774  13.761
 7558SOL     OW24570   0.017   6.045  14.451
 7558SOL    HW124571   0.036   6.101  14.376
 7558SOL    HW224572   0.072   5.967  14.437
 7559SOL     OW24573   0.423  14.154   3.978
 7559SOL    HW124574   0.403  14.101   3.901
 7559SOL    HW224575   0.347  14.212   3.987
 7560SOL     OW24576  14.873   9.147  11.271
 7560SOL    HW124577  14.849   9.097  11.349
 7560SOL    HW224578  14.790   9.183  11.239
 7561SOL     OW24579   9.209   6.992   8.044
 7561SOL    HW124580   9.287   7.010   8.096
 7561SOL    HW224581   9.170   7.078   8.028
 7562SOL     OW24582   5.298   4.385  11.327
 7562SOL    HW124583   5.266   4.328  11.398
 7562SOL    HW224584   5.332   4.324  11.262
 7563SOL     OW24585   0.444  13.088   5.402
 7563SOL    HW124586   0.444  13.063   5.309
 7563SOL    HW224587   0.357  13.064   5.433
 7564SOL     OW24588  11.801  12.762   8.137
 7564SOL    HW124589  11.735  12.829   8.155
 7564SOL    HW224590  11.804  12.757   8.041
 7565SOL     OW24591  14.733   9.325   2.512
 7565SOL    HW124592  14.704   9.376   2.587
 7565SOL    HW224593  14.652   9.298   2.468
 7566SOL     OW24594  13.364  13.505  11.676
 7566SOL    HW124595  13.273  13.491  11.703
 7566SOL    HW224596  13.399  13.417  11.663
 7567SOL     OW24597   7.724  13.369   8.936
 7567SOL    HW124598   7.754  13.459   8.947
 7567SOL    HW224599   7.757  13.323   9.013
 7568SOL     OW24600   6.460   7.934  14.107
 7568SOL    HW124601   6.397   7.988  14.155
 7568SOL    HW224602   6.482   7.987  14.030
 7569SOL     OW24603   1.757   9.922   3.521
 7569SOL    HW124604   1.732   9.878   3.440
 7569SOL    HW224605   1.703   9.879   3.588
 7570SOL     OW24606   4.277   0.839   5.204
 7570SOL    HW124607   4.328   0.835   5.285
 7570SOL    HW224608   4.187   0.822   5.231
 7571SOL     OW24609   4.636  11.903  13.052
 7571SOL    HW124610   4.730  11.893  13.069
 7571SOL    HW224611   4.606  11.814  13.034
 7572SOL     OW24612   6.187   7.338  12.940
 7572SOL    HW124613   6.133   7.379  12.872
 7572SOL    HW224614   6.200   7.406  13.006
 7573SOL     OW24615   6.001   7.053   9.648
 7573SOL    HW124616   5.947   6.977   9.627
 7573SOL    HW224617   5.939   7.126   9.655
 7574SOL     OW24618   6.545  10.524   3.708
 7574SOL    HW124619   6.530  10.559   3.620
 7574SOL    HW224620   6.535  10.429   3.698
 7575SOL     OW24621   7.191   3.855   0.673
 7575SOL    HW124622   7.217   3.817   0.589
 7575SOL    HW224623   7.264   3.836   0.732
 7576SOL     OW24624   4.906   1.869  11.787
 7576SOL    HW124625   4.831   1.890  11.843
 7576SOL    HW224626   4.953   1.952  11.777
 7577SOL     OW24627   4.632   7.407   2.323
 7577SOL    HW124628   4.606   7.344   2.256
 7577SOL    HW224629   4.564   7.475   2.319
 7578SOL     OW24630  11.607   7.968   9.858
 7578SOL    HW124631  11.579   8.057   9.838
 7578SOL    HW224632  11.553   7.942   9.933
 7579SOL     OW24633  10.252   6.935   4.298
 7579SOL    HW124634  10.164   6.965   4.277
 7579SOL    HW224635  10.240   6.849   4.338
 7580SOL     OW24636   8.641  12.699  11.572
 7580SOL    HW124637   8.707  12.686  11.640
 7580SOL    HW224638   8.601  12.612  11.562
 7581SOL     OW24639  12.089   4.416   4.385
 7581SOL    HW124640  12.155   4.354   4.417
 7581SOL    HW224641  12.061   4.464   4.462
 7582SOL     OW24642  13.925   5.456   1.384
 7582SOL    HW124643  13.880   5.451   1.468
 7582SOL    HW224644  13.996   5.392   1.392
 7583SOL     OW24645   0.344  13.822   7.820
 7583SOL    HW124646   0.310  13.740   7.857
 7583SOL    HW224647   0.425  13.838   7.869
 7584SOL     OW24648   5.400   0.652   5.212
 7584SOL    HW124649   5.326   0.698   5.172
 7584SOL    HW224650   5.477   0.683   5.163
 7585SOL     OW24651   5.105   1.877   6.157
 7585SOL    HW124652   5.015   1.908   6.163
 7585SOL    HW224653   5.104   1.814   6.085
 7586SOL     OW24654   5.553   0.920  12.538
 7586SOL    HW124655   5.496   0.886  12.469
 7586SOL    HW224656   5.642   0.903  12.507
 7587SOL     OW24657   5.005  12.257   3.572
 7587SOL    HW124658   4.953  12.334   3.596
 7587SOL    HW224659   5.041  12.279   3.486
 7588SOL     OW24660  12.113   0.679  12.640
 7588SOL    HW124661  12.073   0.639  12.562
 7588SOL    HW224662  12.200   0.706  12.611
 7589SOL     OW24663   5.207  14.246  11.555
 7589SOL    HW124664   5.170  14.158  11.549
 7589SOL    HW224665   5.200  14.269  11.648
 7590SOL     OW24666   9.107   2.661  10.331
 7590SOL    HW124667   9.035   2.628  10.277
 7590SOL    HW224668   9.099   2.614  10.414
 7591SOL     OW24669   9.923   8.229   2.358
 7591SOL    HW124670   9.998   8.178   2.330
 7591SOL    HW224671   9.887   8.266   2.278
 7592SOL     OW24672   2.881  12.334   2.620
 7592SOL    HW124673   2.842  12.385   2.549
 7592SOL    HW224674   2.815  12.334   2.689
 7593SOL     OW24675  13.190   1.508   9.415
 7593SOL    HW124676  13.163   1.564   9.342
 7593SOL    HW224677  13.285   1.504   9.408
 7594SOL     OW24678   6.043   9.043   1.181
 7594SOL    HW124679   6.078   9.026   1.094
 7594SOL    HW224680   6.081   8.975   1.237
 7595SOL     OW24681  12.290  13.178  11.574
 7595SOL    HW124682  12.204  13.218  11.562
 7595SOL    HW224683  12.279  13.088  11.543
 7596SOL     OW24684   3.106  13.894  14.599
 7596SOL    HW124685   3.035  13.830  14.602
 7596SOL    HW224686   3.065  13.976  14.627
 7597SOL     OW24687   3.093  13.300   1.248
 7597SOL    HW124688   3.020  13.361   1.253
 7597SOL    HW224689   3.169  13.352   1.275
 7598SOL     OW24690   5.243   2.419   6.021
 7598SOL    HW124691   5.326   2.466   6.010
 7598SOL    HW224692   5.246   2.350   5.954
 7599SOL     OW24693   8.331  12.625  14.019
 7599SOL    HW124694   8.411  12.639  14.070
 7599SOL    HW224695   8.294  12.713  14.008
 7600SOL     OW24696  13.588  12.172  11.317
 7600SOL    HW124697  13.578  12.083  11.284
 7600SOL    HW224698  13.615  12.161  11.409
 7601SOL     OW24699   2.483   2.650   6.744
 7601SOL    HW124700   2.488   2.746   6.740
 7601SOL    HW224701   2.499   2.630   6.836
 7602SOL     OW24702   3.651  13.352   0.340
 7602SOL    HW124703   3.678  13.369   0.250
 7602SOL    HW224704   3.660  13.257   0.350
 7603SOL     OW24705   6.439   1.763   7.976
 7603SOL    HW124706   6.414   1.855   7.987
 7603SOL    HW224707   6.507   1.749   8.042
 7604SOL     OW24708   9.897   4.100  11.144
 7604SOL    HW124709   9.805   4.107  11.169
 7604SOL    HW224710   9.901   4.137  11.056
 7605SOL     OW24711   7.868  10.314  14.694
 7605SOL    HW124712   7.819  10.388  14.659
 7605SOL    HW224713   7.949  10.353  14.728
 7606SOL     OW24714   4.391   3.629   3.877
 7606SOL    HW124715   4.398   3.600   3.786
 7606SOL    HW224716   4.481   3.649   3.903
 7607SOL     OW24717  13.856   7.306  13.535
 7607SOL    HW124718  13.930   7.358  13.566
 7607SOL    HW224719  13.779   7.347  13.573
 7608SOL     OW24720   3.897   4.841  12.100
 7608SOL    HW124721   3.973   4.819  12.154
 7608SOL    HW224722   3.860   4.757  12.076
 7609SOL     OW24723   3.670   1.639   4.727
 7609SOL    HW124724   3.626   1.717   4.761
 7609SOL    HW224725   3.757   1.670   4.702
 7610SOL     OW24726  12.631   4.648   8.396
 7610SOL    HW124727  12.705   4.594   8.369
 7610SOL    HW224728  12.667   4.706   8.463
 7611SOL     OW24729  13.273  11.277   6.856
 7611SOL    HW124730  13.207  11.281   6.925
 7611SOL    HW224731  13.356  11.271   6.902
 7612SOL     OW24732  11.982   7.108   1.703
 7612SOL    HW124733  11.931   7.072   1.775
 7612SOL    HW224734  11.946   7.065   1.625
 7613SOL     OW24735   6.594  12.863   5.815
 7613SOL    HW124736   6.589  12.802   5.741
 7613SOL    HW224737   6.510  12.853   5.860
 7614SOL     OW24738  14.592   2.195   0.864
 7614SOL    HW124739  14.558   2.149   0.788
 7614SOL    HW224740  14.638   2.271   0.828
 7615SOL     OW24741   9.750  12.787   4.912
 7615SOL    HW124742   9.824  12.832   4.952
 7615SOL    HW224743   9.702  12.855   4.864
 7616SOL     OW24744   7.093   3.299   3.760
 7616SOL    HW124745   7.023   3.355   3.727
 7616SOL    HW224746   7.173   3.345   3.737
 7617SOL     OW24747   6.275  14.249   9.988
 7617SOL    HW124748   6.260  14.171  10.041
 7617SOL    HW224749   6.249  14.322  10.044
 7618SOL     OW24750   3.394   7.712   8.857
 7618SOL    HW124751   3.344   7.793   8.872
 7618SOL    HW224752   3.327   7.646   8.839
 7619SOL     OW24753   2.152  13.969   9.182
 7619SOL    HW124754   2.104  13.922   9.114
 7619SOL    HW224755   2.093  14.040   9.208
 7620SOL     OW24756  14.234   4.535   5.758
 7620SOL    HW124757  14.197   4.611   5.801
 7620SOL    HW224758  14.250   4.472   5.829
 7621SOL     OW24759   4.445  11.841   3.081
 7621SOL    HW124760   4.355  11.872   3.082
 7621SOL    HW224761   4.476  11.851   3.171
 7622SOL     OW24762   5.623   1.183  14.191
 7622SOL    HW124763   5.648   1.150  14.105
 7622SOL    HW224764   5.636   1.277  14.186
 7623SOL     OW24765  12.866   0.949   5.158
 7623SOL    HW124766  12.950   0.993   5.170
 7623SOL    HW224767  12.887   0.868   5.111
 7624SOL     OW24768   8.684   1.641   1.662
 7624SOL    HW124769   8.773   1.663   1.632
 7624SOL    HW224770   8.691   1.638   1.757
 7625SOL     OW24771  12.770   6.459   4.200
 7625SOL    HW124772  12.769   6.368   4.169
 7625SOL    HW224773  12.757   6.511   4.121
 7626SOL     OW24774   6.716   2.457   0.569
 7626SOL    HW124775   6.784   2.402   0.530
 7626SOL    HW224776   6.676   2.503   0.495
 7627SOL     OW24777   3.839   0.673  12.596
 7627SOL    HW124778   3.767   0.633  12.644
 7627SOL    HW224779   3.849   0.759  12.635
 7628SOL     OW24780   6.999   7.937   0.975
 7628SOL    HW124781   6.936   7.930   1.047
 7628SOL    HW224782   7.085   7.932   1.017
 7629SOL     OW24783   7.535  11.964   1.057
 7629SOL    HW124784   7.567  12.053   1.042
 7629SOL    HW224785   7.601  11.924   1.115
 7630SOL     OW24786   8.399  11.035   4.538
 7630SOL    HW124787   8.443  11.117   4.559
 7630SOL    HW224788   8.432  11.010   4.452
 7631SOL     OW24789  13.556   5.902   1.712
 7631SOL    HW124790  13.617   5.873   1.644
 7631SOL    HW224791  13.526   5.988   1.682
 7632SOL     OW24792   8.634   4.043  11.463
 7632SOL    HW124793   8.542   4.039  11.489
 7632SOL    HW224794   8.656   3.953  11.438
 7633SOL     OW24795   2.037   4.382  12.249
 7633SOL    HW124796   2.102   4.316  12.275
 7633SOL    HW224797   2.082   4.466  12.262
 7634SOL     OW24798  11.672  10.584  10.482
 7634SOL    HW124799  11.630  10.499  10.494
 7634SOL    HW224800  11.712  10.579  10.395
 7635SOL     OW24801   5.032  11.589   6.994
 7635SOL    HW124802   5.041  11.510   7.049
 7635SOL    HW224803   4.950  11.576   6.947
 7636SOL     OW24804   8.984   6.363  13.715
 7636SOL    HW124805   8.994   6.324  13.628
 7636SOL    HW224806   9.032   6.446  13.710
 7637SOL     OW24807   8.739  11.061   8.049
 7637SOL    HW124808   8.732  10.999   8.122
 7637SOL    HW224809   8.831  11.088   8.050
 7638SOL     OW24810  12.719   8.089   2.693
 7638SOL    HW124811  12.689   8.058   2.778
 7638SOL    HW224812  12.753   8.010   2.650
 7639SOL     OW24813  14.615   0.827  10.834
 7639SOL    HW124814  14.587   0.912  10.867
 7639SOL    HW224815  14.543   0.799  10.777
 7640SOL     OW24816   1.756   0.419   0.201
 7640SOL    HW124817   1.661   0.412   0.213
 7640SOL    HW224818   1.791   0.339   0.239
 7641SOL     OW24819   0.403  14.649   0.266
 7641SOL    HW124820   0.445  14.598   0.197
 7641SOL    HW224821   0.316  14.611   0.275
 7642SOL     OW24822   9.082   8.097   9.956
 7642SOL    HW124823   9.098   8.044   9.878
 7642SOL    HW224824   9.012   8.051  10.003
 7643SOL     OW24825  10.204   2.200   7.679
 7643SOL    HW124826  10.230   2.283   7.718
 7643SOL    HW224827  10.278   2.175   7.624
 7644SOL     OW24828   0.318   9.734   7.273
 7644SOL    HW124829   0.243   9.701   7.322
 7644SOL    HW224830   0.280   9.773   7.194
 7645SOL     OW24831   7.898   1.165  14.837
 7645SOL    HW124832   7.884   1.084  14.788
 7645SOL    HW224833   7.987   1.157  14.871
 7646SOL     OW24834  10.819  11.881   2.813
 7646SOL    HW124835  10.896  11.825   2.805
 7646SOL    HW224836  10.808  11.919   2.726
 7647SOL     OW24837   9.047   7.201   2.310
 7647SOL    HW124838   9.117   7.251   2.268
 7647SOL    HW224839   8.995   7.167   2.237
 7648SOL     OW24840  12.413   1.093   5.380
 7648SOL    HW124841  12.453   1.030   5.440
 7648SOL    HW224842  12.363   1.040   5.318
 7649SOL     OW24843   0.231  11.380  10.998
 7649SOL    HW124844   0.254  11.348  11.085
 7649SOL    HW224845   0.151  11.431  11.011
 7650SOL     OW24846   9.847   2.257  10.049
 7650SOL    HW124847   9.914   2.253   9.982
 7650SOL    HW224848   9.802   2.340  10.034
 7651SOL     OW24849   7.006  14.064   7.872
 7651SOL    HW124850   6.979  14.139   7.818
 7651SOL    HW224851   6.988  14.092   7.962
 7652SOL     OW24852   1.389   3.103   3.036
 7652SOL    HW124853   1.425   3.024   3.078
 7652SOL    HW224854   1.385   3.168   3.106
 7653SOL     OW24855  13.163  12.661  13.460
 7653SOL    HW124856  13.141  12.589  13.519
 7653SOL    HW224857  13.080  12.705  13.444
 7654SOL     OW24858   9.870   2.736   0.993
 7654SOL    HW124859   9.936   2.717   1.060
 7654SOL    HW224860   9.918   2.783   0.925
 7655SOL     OW24861   7.180  10.785   7.366
 7655SOL    HW124862   7.152  10.872   7.336
 7655SOL    HW224863   7.102  10.747   7.405
 7656SOL     OW24864   4.694   6.561   9.410
 7656SOL    HW124865   4.668   6.479   9.368
 7656SOL    HW224866   4.788   6.568   9.392
 7657SOL     OW24867   0.781   5.081   0.858
 7657SOL    HW124868   0.859   5.122   0.819
 7657SOL    HW224869   0.737   5.153   0.903
 7658SOL     OW24870  11.149   2.102   2.339
 7658SOL    HW124871  11.122   2.023   2.386
 7658SOL    HW224872  11.110   2.174   2.389
 7659SOL     OW24873   6.981  11.809  11.246
 7659SOL    HW124874   7.044  11.737  11.235
 7659SOL    HW224875   6.916  11.775  11.308
 7660SOL     OW24876   3.755   3.743  14.098
 7660SOL    HW124877   3.734   3.781  14.183
 7660SOL    HW224878   3.679   3.762  14.044
 7661SOL     OW24879   7.648   2.561   3.523
 7661SOL    HW124880   7.619   2.530   3.438
 7661SOL    HW224881   7.595   2.639   3.540
 7662SOL     OW24882   6.788   2.578   7.350
 7662SOL    HW124883   6.800   2.494   7.395
 7662SOL    HW224884   6.866   2.587   7.295
 7663SOL     OW24885   4.406  11.018   2.555
 7663SOL    HW124886   4.464  10.943   2.539
 7663SOL    HW224887   4.448  11.067   2.625
 7664SOL     OW24888  10.761  12.628   0.325
 7664SOL    HW124889  10.744  12.590   0.411
 7664SOL    HW224890  10.721  12.715   0.329
 7665SOL     OW24891   3.230   0.299   9.391
 7665SOL    HW124892   3.222   0.389   9.422
 7665SOL    HW224893   3.324   0.283   9.387
 7666SOL     OW24894  12.804   2.092   2.830
 7666SOL    HW124895  12.832   2.033   2.900
 7666SOL    HW224896  12.835   2.051   2.750
 7667SOL     OW24897  12.841  12.850  13.713
 7667SOL    HW124898  12.907  12.914  13.741
 7667SOL    HW224899  12.801  12.819  13.794
 7668SOL     OW24900  10.559  13.308   8.893
 7668SOL    HW124901  10.465  13.307   8.911
 7668SOL    HW224902  10.568  13.258   8.812
 7669SOL     OW24903   0.729   3.015   6.204
 7669SOL    HW124904   0.640   2.984   6.187
 7669SOL    HW224905   0.783   2.967   6.142
 7670SOL     OW24906   8.122   6.085   2.589
 7670SOL    HW124907   8.214   6.097   2.615
 7670SOL    HW224908   8.072   6.117   2.664
 7671SOL     OW24909   5.453   3.877   1.483
 7671SOL    HW124910   5.370   3.904   1.443
 7671SOL    HW224911   5.427   3.816   1.553
 7672SOL     OW24912  13.702  11.083  14.760
 7672SOL    HW124913  13.649  11.004  14.769
 7672SOL    HW224914  13.725  11.085  14.667
 7673SOL     OW24915   6.309   8.768   1.862
 7673SOL    HW124916   6.354   8.718   1.794
 7673SOL    HW224917   6.270   8.701   1.918
 7674SOL     OW24918  14.156   5.960  12.176
 7674SOL    HW124919  14.144   5.995  12.265
 7674SOL    HW224920  14.091   5.890  12.169
 7675SOL     OW24921   7.886   3.117  11.450
 7675SOL    HW124922   7.857   3.181  11.386
 7675SOL    HW224923   7.979   3.134  11.462
 7676SOL     OW24924  14.562   9.247   7.429
 7676SOL    HW124925  14.599   9.177   7.375
 7676SOL    HW224926  14.514   9.201   7.498
 7677SOL     OW24927   8.567   3.470   3.668
 7677SOL    HW124928   8.596   3.391   3.714
 7677SOL    HW224929   8.506   3.513   3.728
 7678SOL     OW24930  10.620   5.221   1.500
 7678SOL    HW124931  10.642   5.250   1.411
 7678SOL    HW224932  10.662   5.286   1.557
 7679SOL     OW24933  11.402  10.823   4.001
 7679SOL    HW124934  11.477  10.843   4.057
 7679SOL    HW224935  11.433  10.753   3.943
 7680SOL     OW24936   4.901   1.070  11.958
 7680SOL    HW124937   4.864   0.983  11.965
 7680SOL    HW224938   4.847   1.124  12.016
 7681SOL     OW24939   4.708   3.143   3.538
 7681SOL    HW124940   4.798   3.167   3.517
 7681SOL    HW224941   4.662   3.226   3.550
 7682SOL     OW24942   1.025   5.875   1.327
 7682SOL    HW124943   1.025   5.791   1.373
 7682SOL    HW224944   1.093   5.866   1.261
 7683SOL     OW24945  11.478   9.365   8.744
 7683SOL    HW124946  11.544   9.406   8.799
 7683SOL    HW224947  11.395   9.399   8.777
 7684SOL     OW24948   3.466   8.869  14.552
 7684SOL    HW124949   3.447   8.943  14.496
 7684SOL    HW224950   3.441   8.898  14.640
 7685SOL     OW24951   4.965  14.614   0.136
 7685SOL    HW124952   4.943  14.705   0.117
 7685SOL    HW224953   4.950  14.567   0.054
 7686SOL     OW24954   7.578   7.119   7.683
 7686SOL    HW124955   7.622   7.050   7.635
 7686SOL    HW224956   7.559   7.081   7.769
 7687SOL     OW24957  11.835   6.064   6.124
 7687SOL    HW124958  11.844   5.987   6.180
 7687SOL    HW224959  11.873   6.038   6.040
 7688SOL     OW24960   5.446  13.120   1.656
 7688SOL    HW124961   5.358  13.089   1.676
 7688SOL    HW224962   5.434  13.213   1.638
 7689SOL     OW24963  10.642   5.180  12.448
 7689SOL    HW124964  10.648   5.110  12.512
 7689SOL    HW224965  10.731   5.188  12.413
 7690SOL     OW24966  10.223   9.731   2.501
 7690SOL    HW124967  10.190   9.816   2.529
 7690SOL    HW224968  10.318   9.745   2.491
 7691SOL     OW24969   1.452  10.715   6.740
 7691SOL    HW124970   1.537  10.673   6.748
 7691SOL    HW224971   1.447  10.775   6.815
 7692SOL     OW24972   7.603  12.693   6.126
 7692SOL    HW124973   7.660  12.617   6.112
 7692SOL    HW224974   7.517  12.665   6.094
 7693SOL     OW24975   0.887   0.828  14.592
 7693SOL    HW124976   0.907   0.797  14.680
 7693SOL    HW224977   0.865   0.920  14.602
 7694SOL     OW24978   7.744   0.146   7.955
 7694SOL    HW124979   7.659   0.189   7.954
 7694SOL    HW224980   7.745   0.098   8.038
 7695SOL     OW24981  12.715  12.810   2.200
 7695SOL    HW124982  12.691  12.790   2.291
 7695SOL    HW224983  12.640  12.781   2.149
 7696SOL     OW24984   3.312  11.865   3.801
 7696SOL    HW124985   3.380  11.885   3.737
 7696SOL    HW224986   3.276  11.950   3.825
 7697SOL     OW24987   7.987  11.195   2.955
 7697SOL    HW124988   8.081  11.193   2.938
 7697SOL    HW224989   7.965  11.289   2.957
 7698SOL     OW24990   9.777   3.753   4.201
 7698SOL    HW124991   9.822   3.763   4.117
 7698SOL    HW224992   9.814   3.673   4.238
 7699SOL     OW24993   8.900   9.173   3.257
 7699SOL    HW124994   8.806   9.184   3.252
 7699SOL    HW224995   8.912   9.085   3.294
 7700SOL     OW24996   4.869   5.643  13.140
 7700SOL    HW124997   4.914   5.573  13.188
 7700SOL    HW224998   4.920   5.654  13.060
 7701SOL     OW24999   7.920   2.850  10.781
 7701SOL    HW125000   7.836   2.870  10.822
 7701SOL    HW225001   7.918   2.896  10.697
 7702SOL     OW25002  12.322   4.559   2.754
 7702SOL    HW125003  12.356   4.586   2.840
 7702SOL    HW225004  12.242   4.611   2.743
 7703SOL     OW25005   8.971   4.528   8.348
 7703SOL    HW125006   9.034   4.481   8.403
 7703SOL    HW225007   8.885   4.501   8.379
 7704SOL     OW25008   2.339   0.624   0.075
 7704SOL    HW125009   2.403   0.577   0.021
 7704SOL    HW225010   2.334   0.711   0.035
 7705SOL     OW25011  11.929  10.242   7.776
 7705SOL    HW125012  11.939  10.210   7.687
 7705SOL    HW225013  12.010  10.216   7.821
 7706SOL     OW25014   9.009  12.248   8.482
 7706SOL    HW125015   8.946  12.182   8.509
 7706SOL    HW225016   9.059  12.206   8.412
 7707SOL     OW25017   8.671   2.970   7.186
 7707SOL    HW125018   8.661   3.065   7.191
 7707SOL    HW225019   8.584   2.938   7.160
 7708SOL     OW25020  10.078   2.587   6.999
 7708SOL    HW125021  10.086   2.607   7.093
 7708SOL    HW225022  10.162   2.614   6.962
 7709SOL     OW25023  13.544   0.906  14.003
 7709SOL    HW125024  13.577   0.957  13.930
 7709SOL    HW225025  13.450   0.898  13.986
 7710SOL     OW25026   1.960   4.622  14.166
 7710SOL    HW125027   2.006   4.656  14.242
 7710SOL    HW225028   1.889   4.684  14.151
 7711SOL     OW25029  14.878  14.149   8.662
 7711SOL    HW125030  14.844  14.207   8.594
 7711SOL    HW225031   0.046  14.087   8.615
 7712SOL     OW25032  14.783   8.652   7.061
 7712SOL    HW125033  14.745   8.668   7.148
 7712SOL    HW225034  14.736   8.576   7.027
 7713SOL     OW25035   6.756  13.699   5.233
 7713SOL    HW125036   6.836  13.735   5.195
 7713SOL    HW225037   6.697  13.774   5.242
 7714SOL     OW25038  10.889   7.170   5.423
 7714SOL    HW125039  10.852   7.159   5.336
 7714SOL    HW225040  10.965   7.112   5.425
 7715SOL     OW25041   3.521  12.489   2.892
 7715SOL    HW125042   3.464  12.457   2.962
 7715SOL    HW225043   3.461  12.532   2.830
 7716SOL     OW25044   0.983   5.048   6.391
 7716SOL    HW125045   0.915   5.087   6.446
 7716SOL    HW225046   0.949   5.056   6.302
 7717SOL     OW25047   6.003   1.731  13.935
 7717SOL    HW125048   5.984   1.757  14.025
 7717SOL    HW225049   6.076   1.787  13.908
 7718SOL     OW25050   2.446   2.644   7.614
 7718SOL    HW125051   2.358   2.650   7.577
 7718SOL    HW225052   2.504   2.645   7.538
 7719SOL     OW25053  13.999  12.924   3.466
 7719SOL    HW125054  13.926  12.863   3.476
 7719SOL    HW225055  14.011  12.932   3.371
 7720SOL     OW25056  14.860  11.739   6.660
 7720SOL    HW125057   0.012  11.764   6.576
 7720SOL    HW225058   0.025  11.664   6.690
 7721SOL     OW25059   5.727   3.110  12.166
 7721SOL    HW125060   5.637   3.099  12.134
 7721SOL    HW225061   5.782   3.093  12.090
 7722SOL     OW25062   2.407   1.132  11.794
 7722SOL    HW125063   2.487   1.183  11.789
 7722SOL    HW225064   2.434   1.042  11.773
 7723SOL     OW25065  11.625   9.267   4.746
 7723SOL    HW125066  11.532   9.284   4.729
 7723SOL    HW225067  11.663   9.354   4.761
 7724SOL     OW25068  12.552   5.788   2.213
 7724SOL    HW125069  12.542   5.696   2.189
 7724SOL    HW225070  12.647   5.800   2.221
 7725SOL     OW25071   1.449  12.423   5.438
 7725SOL    HW125072   1.363  12.463   5.425
 7725SOL    HW225073   1.455  12.408   5.532
 7726SOL     OW25074   0.321   2.915   5.002
 7726SOL    HW125075   0.376   2.957   4.936
 7726SOL    HW225076   0.358   2.942   5.086
 7727SOL     OW25077   5.144   9.302  11.783
 7727SOL    HW125078   5.196   9.223  11.791
 7727SOL    HW225079   5.198   9.362  11.732
 7728SOL     OW25080   7.520  11.335   9.944
 7728SOL    HW125081   7.557  11.422   9.925
 7728SOL    HW225082   7.586  11.274   9.911
 7729SOL     OW25083  14.390  12.824   6.313
 7729SOL    HW125084  14.395  12.768   6.236
 7729SOL    HW225085  14.320  12.886   6.294
 7730SOL     OW25086   6.092   5.060  11.407
 7730SOL    HW125087   6.070   5.076  11.315
 7730SOL    HW225088   6.176   5.015  11.404
 7731SOL     OW25089  10.553   8.940  13.749
 7731SOL    HW125090  10.642   8.944  13.782
 7731SOL    HW225091  10.548   9.007  13.682
 7732SOL     OW25092   6.699  14.534   3.731
 7732SOL    HW125093   6.685  14.447   3.693
 7732SOL    HW225094   6.618  14.581   3.712
 7733SOL     OW25095   9.420  12.043  12.693
 7733SOL    HW125096   9.416  12.009  12.782
 7733SOL    HW225097   9.356  12.115  12.692
 7734SOL     OW25098   6.956  14.398   9.802
 7734SOL    HW125099   6.889  14.380   9.868
 7734SOL    HW225100   7.027  14.338   9.823
 7735SOL     OW25101  10.294  14.543   9.132
 7735SOL    HW125102  10.340  14.542   9.216
 7735SOL    HW225103  10.360  14.569   9.068
 7736SOL     OW25104   6.887  12.926   7.217
 7736SOL    HW125105   6.827  12.918   7.143
 7736SOL    HW225106   6.897  13.021   7.230
 7737SOL     OW25107   6.368  13.678   2.545
 7737SOL    HW125108   6.366  13.731   2.625
 7737SOL    HW225109   6.421  13.602   2.569
 7738SOL     OW25110   3.211   1.100   6.565
 7738SOL    HW125111   3.294   1.110   6.611
 7738SOL    HW225112   3.236   1.068   6.478
 7739SOL     OW25113  11.823   3.175   4.683
 7739SOL    HW125114  11.816   3.080   4.681
 7739SOL    HW225115  11.900   3.191   4.739
 7740SOL     OW25116   7.786  13.845   5.913
 7740SOL    HW125117   7.765  13.793   5.991
 7740SOL    HW225118   7.841  13.787   5.860
 7741SOL     OW25119   8.118  13.575   3.293
 7741SOL    HW125120   8.096  13.487   3.322
 7741SOL    HW225121   8.090  13.578   3.201
 7742SOL     OW25122   8.093   6.176  11.718
 7742SOL    HW125123   8.188   6.185  11.727
 7742SOL    HW225124   8.080   6.089  11.681
 7743SOL     OW25125   3.198   9.588   0.267
 7743SOL    HW125126   3.226   9.509   0.314
 7743SOL    HW225127   3.118   9.561   0.222
 7744SOL     OW25128   0.992   4.177   3.977
 7744SOL    HW125129   1.084   4.186   3.954
 7744SOL    HW225130   0.992   4.121   4.055
 7745SOL     OW25131  13.898   3.627   2.459
 7745SOL    HW125132  13.947   3.616   2.377
 7745SOL    HW225133  13.876   3.720   2.463
 7746SOL     OW25134   7.831  10.994   6.580
 7746SOL    HW125135   7.882  11.012   6.501
 7746SOL    HW225136   7.817  11.080   6.620
 7747SOL     OW25137   2.953   1.509  12.501
 7747SOL    HW125138   2.892   1.449  12.544
 7747SOL    HW225139   2.918   1.519  12.413
 7748SOL     OW25140   5.955   3.828   8.306
 7748SOL    HW125141   5.979   3.752   8.358
 7748SOL    HW225142   5.941   3.898   8.370
 7749SOL     OW25143   3.005   5.177   2.536
 7749SOL    HW125144   3.068   5.144   2.472
 7749SOL    HW225145   2.920   5.147   2.504
 7750SOL     OW25146   1.108   0.951   2.807
 7750SOL    HW125147   1.134   1.032   2.851
 7750SOL    HW225148   1.013   0.960   2.795
 7751SOL     OW25149   8.058   6.884  13.144
 7751SOL    HW125150   7.965   6.867  13.129
 7751SOL    HW225151   8.059   6.959  13.204
 7752SOL     OW25152  11.859   7.454   8.803
 7752SOL    HW125153  11.825   7.374   8.763
 7752SOL    HW225154  11.871   7.515   8.730
 7753SOL     OW25155  12.973  11.669   3.684
 7753SOL    HW125156  12.943  11.759   3.699
 7753SOL    HW225157  12.901  11.614   3.716
 7754SOL     OW25158   9.150   7.568   6.856
 7754SOL    HW125159   9.178   7.656   6.833
 7754SOL    HW225160   9.185   7.512   6.786
 7755SOL     OW25161   4.026  11.650   8.901
 7755SOL    HW125162   4.096  11.585   8.899
 7755SOL    HW225163   4.001  11.660   8.809
 7756SOL     OW25164  12.758  10.129   9.004
 7756SOL    HW125165  12.754  10.147   8.911
 7756SOL    HW225166  12.771  10.034   9.010
 7757SOL     OW25167  13.606  11.749   6.369
 7757SOL    HW125168  13.531  11.758   6.310
 7757SOL    HW225169  13.661  11.682   6.328
 7758SOL     OW25170   3.273   3.232   9.120
 7758SOL    HW125171   3.213   3.303   9.142
 7758SOL    HW225172   3.360   3.265   9.143
 7759SOL     OW25173   5.184   1.077   7.438
 7759SOL    HW125174   5.113   1.136   7.414
 7759SOL    HW225175   5.159   0.992   7.402
 7760SOL     OW25176  12.694   3.947   8.471
 7760SOL    HW125177  12.702   3.985   8.558
 7760SOL    HW225178  12.647   3.865   8.485
 7761SOL     OW25179   7.116  10.563   5.121
 7761SOL    HW125180   7.100  10.472   5.144
 7761SOL    HW225181   7.156  10.560   5.033
 7762SOL     OW25182   4.755   5.329   1.181
 7762SOL    HW125183   4.699   5.378   1.241
 7762SOL    HW225184   4.754   5.380   1.100
 7763SOL     OW25185  10.841   8.991   5.080
 7763SOL    HW125186  10.825   9.077   5.117
 7763SOL    HW225187  10.766   8.976   5.021
 7764SOL     OW25188   9.624   2.706  12.452
 7764SOL    HW125189   9.658   2.660  12.529
 7764SOL    HW225190   9.701   2.725  12.399
 7765SOL     OW25191  12.462  14.523   4.749
 7765SOL    HW125192  12.440  14.560   4.834
 7765SOL    HW225193  12.386  14.543   4.694
 7766SOL     OW25194   1.508  12.428   6.925
 7766SOL    HW125195   1.437  12.481   6.960
 7766SOL    HW225196   1.482  12.338   6.942
 7767SOL     OW25197   8.402   0.467   8.822
 7767SOL    HW125198   8.439   0.487   8.737
 7767SOL    HW225199   8.377   0.374   8.817
 7768SOL     OW25200  11.246   6.724   4.752
 7768SOL    HW125201  11.251   6.818   4.734
 7768SOL    HW225202  11.204   6.687   4.674
 7769SOL     OW25203  13.007   8.038  11.873
 7769SOL    HW125204  12.950   8.114  11.882
 7769SOL    HW225205  12.997   8.011  11.782
 7770SOL     OW25206   4.640  11.886  13.660
 7770SOL    HW125207   4.576  11.823  13.693
 7770SOL    HW225208   4.682  11.922  13.738
 7771SOL     OW25209   4.334   6.959  10.879
 7771SOL    HW125210   4.339   7.012  10.959
 7771SOL    HW225211   4.351   7.020  10.808
 7772SOL     OW25212   1.137  10.267   3.098
 7772SOL    HW125213   1.181  10.285   3.015
 7772SOL    HW225214   1.072  10.337   3.107
 7773SOL     OW25215   2.388  14.564   5.837
 7773SOL    HW125216   2.429  14.492   5.790
 7773SOL    HW225217   2.370  14.528   5.924
 7774SOL     OW25218   8.753   2.939   2.663
 7774SOL    HW125219   8.819   2.873   2.682
 7774SOL    HW225220   8.671   2.890   2.657
 7775SOL     OW25221   0.377   7.463  12.951
 7775SOL    HW125222   0.296   7.458  12.899
 7775SOL    HW225223   0.380   7.554  12.980
 7776SOL     OW25224   7.855  13.774  12.031
 7776SOL    HW125225   7.763  13.746  12.032
 7776SOL    HW225226   7.902  13.703  11.989
 7777SOL     OW25227  11.340   7.419   8.836
 7777SOL    HW125228  11.364   7.355   8.769
 7777SOL    HW225229  11.290   7.485   8.788
 7778SOL     OW25230  13.323  11.426  12.857
 7778SOL    HW125231  13.317  11.489  12.928
 7778SOL    HW225232  13.286  11.345  12.893
 7779SOL     OW25233   9.861   5.035   9.973
 7779SOL    HW125234   9.882   4.990   9.892
 7779SOL    HW225235   9.884   5.127   9.957
 7780SOL     OW25236   0.736   4.371  14.613
 7780SOL    HW125237   0.709   4.450  14.660
 7780SOL    HW225238   0.763   4.310  14.682
 7781SOL     OW25239  12.670  12.697  10.987
 7781SOL    HW125240  12.658  12.792  10.992
 7781SOL    HW225241  12.677  12.669  11.078
 7782SOL     OW25242   3.955   7.293  14.415
 7782SOL    HW125243   3.878   7.240  14.433
 7782SOL    HW225244   3.932   7.380  14.447
 7783SOL     OW25245   1.857  10.843  13.891
 7783SOL    HW125246   1.916  10.826  13.965
 7783SOL    HW225247   1.895  10.919  13.848
 7784SOL     OW25248   9.060  13.292   3.194
 7784SOL    HW125249   9.129  13.227   3.187
 7784SOL    HW225250   8.981  13.247   3.165
 7785SOL     OW25251   3.434   6.996   1.419
 7785SOL    HW125252   3.408   6.916   1.463
 7785SOL    HW225253   3.373   7.063   1.452
 7786SOL     OW25254   9.683   3.576  14.579
 7786SOL    HW125255   9.712   3.605  14.666
 7786SOL    HW225256   9.686   3.656  14.526
 7787SOL     OW25257   1.408   6.584   0.743
 7787SOL    HW125258   1.441   6.594   0.654
 7787SOL    HW225259   1.314   6.567   0.731
 7788SOL     OW25260   9.368  14.619  12.379
 7788SOL    HW125261   9.354  14.525  12.389
 7788SOL    HW225262   9.457  14.633  12.413
 7789SOL     OW25263   9.410   9.351   4.328
 7789SOL    HW125264   9.332   9.400   4.304
 7789SOL    HW225265   9.392   9.261   4.300
 7790SOL     OW25266  11.342   0.765   1.027
 7790SOL    HW125267  11.406   0.694   1.032
 7790SOL    HW225268  11.273   0.731   0.970
 7791SOL     OW25269  14.322  13.254   1.526
 7791SOL    HW125270  14.391  13.198   1.560
 7791SOL    HW225271  14.243  13.201   1.532
 7792SOL     OW25272   5.716   2.085   6.848
 7792SOL    HW125273   5.686   2.137   6.774
 7792SOL    HW225274   5.655   2.107   6.918
 7793SOL     OW25275   9.505   3.788   1.343
 7793SOL    HW125276   9.455   3.849   1.288
 7793SOL    HW225277   9.592   3.828   1.350
 7794SOL     OW25278   0.417   6.602   1.507
 7794SOL    HW125279   0.466   6.520   1.512
 7794SOL    HW225280   0.463   6.661   1.567
 7795SOL     OW25281   4.669  10.667  14.407
 7795SOL    HW125282   4.700  10.582  14.441
 7795SOL    HW225283   4.639  10.647  14.318
 7796SOL     OW25284   2.776  10.021   6.988
 7796SOL    HW125285   2.783   9.926   6.977
 7796SOL    HW225286   2.689  10.035   7.025
 7797SOL     OW25287   1.631  10.317   9.749
 7797SOL    HW125288   1.712  10.272   9.725
 7797SOL    HW225289   1.657  10.381   9.815
 7798SOL     OW25290   4.682  14.477  14.513
 7798SOL    HW125291   4.595  14.509  14.538
 7798SOL    HW225292   4.693  14.396  14.563
 7799SOL     OW25293   4.343   8.870   2.694
 7799SOL    HW125294   4.319   8.862   2.601
 7799SOL    HW225295   4.297   8.948   2.724
 7800SOL     OW25296  13.898   2.611  11.827
 7800SOL    HW125297  13.818   2.632  11.876
 7800SOL    HW225298  13.958   2.683  11.848
 7801SOL     OW25299   9.534   2.733   0.222
 7801SOL    HW125300   9.520   2.746   0.316
 7801SOL    HW225301   9.517   2.819   0.183
 7802SOL     OW25302   4.208   0.065  11.923
 7802SOL    HW125303   4.252   0.143  11.958
 7802SOL    HW225304   4.279   0.006  11.899
 7803SOL     OW25305  11.388  10.935   3.737
 7803SOL    HW125306  11.407  11.028   3.732
 7803SOL    HW225307  11.398  10.914   3.830
 7804SOL     OW25308   3.592   8.404   0.710
 7804SOL    HW125309   3.531   8.449   0.768
 7804SOL    HW225310   3.624   8.330   0.762
 7805SOL     OW25311  11.736   5.266   2.785
 7805SOL    HW125312  11.714   5.349   2.828
 7805SOL    HW225313  11.830   5.257   2.798
 7806SOL     OW25314  12.568  11.979   3.765
 7806SOL    HW125315  12.538  11.896   3.729
 7806SOL    HW225316  12.507  11.998   3.836
 7807SOL     OW25317  10.421   9.003   5.570
 7807SOL    HW125318  10.326   9.002   5.558
 7807SOL    HW225319  10.456   9.007   5.482
 7808SOL     OW25320   4.811   7.429   9.496
 7808SOL    HW125321   4.734   7.471   9.459
 7808SOL    HW225322   4.828   7.354   9.439
 7809SOL     OW25323  12.988  12.930   7.560
 7809SOL    HW125324  13.057  12.939   7.495
 7809SOL    HW225325  12.989  12.837   7.583
 7810SOL     OW25326   7.314   3.710   9.222
 7810SOL    HW125327   7.230   3.754   9.211
 7810SOL    HW225328   7.378   3.781   9.234
 7811SOL     OW25329   3.611  10.145   4.947
 7811SOL    HW125330   3.694  10.192   4.938
 7811SOL    HW225331   3.629  10.075   5.010
 7812SOL     OW25332   1.900   9.570   0.095
 7812SOL    HW125333   1.807   9.589   0.104
 7812SOL    HW225334   1.938   9.652   0.063
 7813SOL     OW25335  10.021   1.663   0.633
 7813SOL    HW125336  10.109   1.686   0.664
 7813SOL    HW225337   9.980   1.747   0.614
 7814SOL     OW25338   5.446   9.720  10.747
 7814SOL    HW125339   5.444   9.728  10.651
 7814SOL    HW225340   5.363   9.679  10.770
 7815SOL     OW25341   7.698  10.511  14.374
 7815SOL    HW125342   7.697  10.420  14.404
 7815SOL    HW225343   7.665  10.561  14.448
 7816SOL     OW25344   2.321   3.561  10.448
 7816SOL    HW125345   2.248   3.613  10.415
 7816SOL    HW225346   2.383   3.557  10.376
 7817SOL     OW25347   2.804  14.368   5.754
 7817SOL    HW125348   2.793  14.275   5.735
 7817SOL    HW225349   2.898  14.383   5.748
 7818SOL     OW25350  14.615  13.906   4.120
 7818SOL    HW125351  14.623  13.813   4.098
 7818SOL    HW225352  14.561  13.907   4.199
 7819SOL     OW25353  12.258  11.507   3.760
 7819SOL    HW125354  12.290  11.475   3.844
 7819SOL    HW225355  12.163  11.495   3.764
 7820SOL     OW25356   3.687   1.424  10.311
 7820SOL    HW125357   3.658   1.506  10.352
 7820SOL    HW225358   3.684   1.359  10.381
 7821SOL     OW25359  13.255   0.052   1.176
 7821SOL    HW125360  13.277  14.849   1.199
 7821SOL    HW225361  13.237   0.050   1.082
 7822SOL     OW25362  14.654   0.349   9.790
 7822SOL    HW125363  14.662   0.259   9.822
 7822SOL    HW225364  14.628   0.339   9.698
 7823SOL     OW25365  14.124  12.612   3.070
 7823SOL    HW125366  14.173  12.575   2.996
 7823SOL    HW225367  14.032  12.603   3.043
 7824SOL     OW25368   0.253   5.450   7.284
 7824SOL    HW125369   0.338   5.488   7.262
 7824SOL    HW225370   0.240   5.380   7.220
 7825SOL     OW25371   9.621   8.882   6.377
 7825SOL    HW125372   9.527   8.886   6.358
 7825SOL    HW225373   9.648   8.795   6.347
 7826SOL     OW25374   6.568  12.225  14.416
 7826SOL    HW125375   6.627  12.166  14.369
 7826SOL    HW225376   6.615  12.308  14.419
 7827SOL     OW25377   6.657  10.874  14.581
 7827SOL    HW125378   6.715  10.819  14.529
 7827SOL    HW225379   6.593  10.908  14.518
 7828SOL     OW25380   4.044  10.086  11.048
 7828SOL    HW125381   3.956  10.117  11.068
 7828SOL    HW225382   4.091  10.164  11.018
 7829SOL     OW25383  10.120   4.881   5.568
 7829SOL    HW125384  10.125   4.966   5.524
 7829SOL    HW225385  10.122   4.817   5.497
 7830SOL     OW25386   9.654   5.860  10.704
 7830SOL    HW125387   9.749   5.852  10.693
 7830SOL    HW225388   9.642   5.948  10.739
 7831SOL     OW25389   9.497   7.809   9.239
 7831SOL    HW125390   9.553   7.738   9.269
 7831SOL    HW225391   9.475   7.787   9.149
 7832SOL     OW25392   9.463   2.693   1.468
 7832SOL    HW125393   9.442   2.600   1.477
 7832SOL    HW225394   9.486   2.703   1.376
 7833SOL     OW25395  10.417   9.604  11.653
 7833SOL    HW125396  10.477   9.531  11.635
 7833SOL    HW225397  10.338   9.582  11.605
 7834SOL     OW25398   9.885   0.681   5.062
 7834SOL    HW125399   9.868   0.772   5.084
 7834SOL    HW225400   9.912   0.641   5.145
 7835SOL     OW25401   9.483  13.978   1.017
 7835SOL    HW125402   9.471  14.036   0.941
 7835SOL    HW225403   9.571  13.942   1.006
 7836SOL     OW25404   3.740  11.382  14.383
 7836SOL    HW125405   3.816  11.347  14.429
 7836SOL    HW225406   3.709  11.309  14.330
 7837SOL     OW25407   5.699   5.170   1.098
 7837SOL    HW125408   5.765   5.236   1.118
 7837SOL    HW225409   5.668   5.140   1.184
 7838SOL     OW25410   7.232   6.849  10.016
 7838SOL    HW125411   7.325   6.859   9.997
 7838SOL    HW225412   7.229   6.785  10.087
 7839SOL     OW25413   8.202   4.984   0.327
 7839SOL    HW125414   8.146   5.056   0.357
 7839SOL    HW225415   8.192   4.984   0.232
 7840SOL     OW25416  11.544  10.285   5.343
 7840SOL    HW125417  11.501  10.218   5.290
 7840SOL    HW225418  11.547  10.247   5.431
 7841SOL     OW25419   0.171   9.256   1.816
 7841SOL    HW125420   0.131   9.170   1.820
 7841SOL    HW225421   0.150   9.288   1.728
 7842SOL     OW25422   2.914   3.330  10.109
 7842SOL    HW125423   2.939   3.351  10.199
 7842SOL    HW225424   2.996   3.332  10.060
 7843SOL     OW25425  14.325  11.372   3.345
 7843SOL    HW125426  14.241  11.353   3.303
 7843SOL    HW225427  14.304  11.386   3.437
 7844SOL     OW25428   6.205   0.105   8.691
 7844SOL    HW125429   6.260   0.091   8.614
 7844SOL    HW225430   6.266   0.112   8.764
 7845SOL     OW25431   4.329   0.654   4.236
 7845SOL    HW125432   4.325   0.711   4.313
 7845SOL    HW225433   4.292   0.707   4.166
 7846SOL     OW25434   0.658  11.026   5.096
 7846SOL    HW125435   0.718  10.975   5.042
 7846SOL    HW225436   0.572  10.988   5.079
 7847SOL     OW25437   5.474  11.593   0.288
 7847SOL    HW125438   5.398  11.538   0.307
 7847SOL    HW225439   5.546  11.551   0.334
 7848SOL     OW25440   6.530  13.869  12.652
 7848SOL    HW125441   6.616  13.909  12.640
 7848SOL    HW225442   6.478  13.903  12.580
 7849SOL     OW25443  13.951   2.042   6.078
 7849SOL    HW125444  14.005   1.989   6.137
 7849SOL    HW225445  13.878   1.985   6.055
 7850SOL     OW25446   3.658   3.695  14.443
 7850SOL    HW125447   3.695   3.774  14.403
 7850SOL    HW225448   3.566   3.717  14.458
 7851SOL     OW25449   2.347  10.955  10.026
 7851SOL    HW125450   2.314  11.045  10.038
 7851SOL    HW225451   2.395  10.958   9.943
 7852SOL     OW25452  11.075   6.416   4.898
 7852SOL    HW125453  11.105   6.358   4.968
 7852SOL    HW225454  11.110   6.502   4.922
 7853SOL     OW25455  11.170  14.671   0.395
 7853SOL    HW125456  11.237  14.739   0.384
 7853SOL    HW225457  11.147  14.646   0.305
 7854SOL     OW25458   6.707   2.094   1.478
 7854SOL    HW125459   6.789   2.045   1.478
 7854SOL    HW225460   6.640   2.028   1.458
 7855SOL     OW25461  14.774  13.351   5.917
 7855SOL    HW125462  14.859  13.316   5.944
 7855SOL    HW225463  14.764  13.324   5.826
 7856SOL     OW25464   5.557   3.478  13.336
 7856SOL    HW125465   5.557   3.525  13.420
 7856SOL    HW225466   5.471   3.435  13.333
 7857SOL     OW25467  14.347  12.482   7.202
 7857SOL    HW125468  14.329  12.528   7.120
 7857SOL    HW225469  14.264  12.439   7.224
 7858SOL     OW25470  12.454   2.512   1.631
 7858SOL    HW125471  12.374   2.551   1.597
 7858SOL    HW225472  12.525   2.560   1.587
 7859SOL     OW25473   1.454   1.261   7.661
 7859SOL    HW125474   1.398   1.268   7.584
 7859SOL    HW225475   1.469   1.167   7.672
 7860SOL     OW25476  11.896   1.850   3.823
 7860SOL    HW125477  11.877   1.780   3.761
 7860SOL    HW225478  11.992   1.855   3.825
 7861SOL     OW25479   1.638   9.182   1.876
 7861SOL    HW125480   1.681   9.263   1.849
 7861SOL    HW225481   1.557   9.210   1.919
 7862SOL     OW25482  10.991  12.280   6.964
 7862SOL    HW125483  11.003  12.374   6.971
 7862SOL    HW225484  11.062  12.242   7.015
 7863SOL     OW25485  14.743  14.683   0.381
 7863SOL    HW125486  14.689  14.628   0.325
 7863SOL    HW225487  14.697  14.767   0.386
 7864SOL     OW25488   2.482  13.654   1.667
 7864SOL    HW125489   2.561  13.655   1.613
 7864SOL    HW225490   2.436  13.734   1.642
 7865SOL     OW25491   1.623   3.590   6.565
 7865SOL    HW125492   1.571   3.540   6.628
 7865SOL    HW225493   1.703   3.538   6.553
 7866SOL     OW25494   9.123  14.343  12.831
 7866SOL    HW125495   9.042  14.374  12.790
 7866SOL    HW225496   9.129  14.251  12.806
 7867SOL     OW25497   1.710   2.807  11.017
 7867SOL    HW125498   1.727   2.797  10.924
 7867SOL    HW225499   1.644   2.876  11.022
 7868SOL     OW25500   0.989   7.975   2.776
 7868SOL    HW125501   1.022   7.890   2.746
 7868SOL    HW225502   0.895   7.960   2.789
 7869SOL     OW25503   1.066   7.885   1.910
 7869SOL    HW125504   0.988   7.878   1.855
 7869SOL    HW225505   1.129   7.824   1.871
 7870SOL     OW25506   3.544  11.402   5.636
 7870SOL    HW125507   3.452  11.385   5.616
 7870SOL    HW225508   3.591  11.331   5.592
 7871SOL     OW25509   3.158   2.452  11.556
 7871SOL    HW125510   3.075   2.461  11.509
 7871SOL    HW225511   3.219   2.419  11.490
 7872SOL     OW25512   7.867   8.712  14.377
 7872SOL    HW125513   7.816   8.718  14.457
 7872SOL    HW225514   7.887   8.802  14.354
 7873SOL     OW25515  14.260   0.743   6.171
 7873SOL    HW125516  14.246   0.649   6.165
 7873SOL    HW225517  14.301   0.767   6.088
 7874SOL     OW25518   8.016   5.828   4.902
 7874SOL    HW125519   7.933   5.870   4.925
 7874SOL    HW225520   8.073   5.846   4.977
 7875SOL     OW25521  10.920   9.313  13.769
 7875SOL    HW125522  10.948   9.395  13.728
 7875SOL    HW225523  10.970   9.308  13.850
 7876SOL     OW25524   3.454  13.783  11.422
 7876SOL    HW125525   3.440  13.870  11.385
 7876SOL    HW225526   3.367  13.743  11.425
 7877SOL     OW25527   6.264  14.035   7.728
 7877SOL    HW125528   6.226  14.120   7.751
 7877SOL    HW225529   6.219  14.010   7.648
 7878SOL     OW25530   3.516   5.987  12.256
 7878SOL    HW125531   3.549   5.898  12.243
 7878SOL    HW225532   3.590   6.035  12.293
 7879SOL     OW25533   2.284   6.804   7.211
 7879SOL    HW125534   2.263   6.718   7.175
 7879SOL    HW225535   2.333   6.786   7.291
 7880SOL     OW25536   5.478   1.603   2.748
 7880SOL    HW125537   5.557   1.628   2.795
 7880SOL    HW225538   5.503   1.528   2.695
 7881SOL     OW25539   8.199   0.093   3.446
 7881SOL    HW125540   8.263   0.153   3.484
 7881SOL    HW225541   8.158   0.050   3.521
 7882SOL     OW25542   0.100   9.508  11.302
 7882SOL    HW125543   0.064   9.526  11.215
 7882SOL    HW225544   0.026   9.477  11.353
 7883SOL     OW25545  11.759   2.039  11.349
 7883SOL    HW125546  11.671   2.009  11.328
 7883SOL    HW225547  11.800   2.055  11.264
 7884SOL     OW25548  12.096   2.092   1.002
 7884SOL    HW125549  12.005   2.062   1.007
 7884SOL    HW225550  12.118   2.118   1.092
 7885SOL     OW25551   0.911  12.976  14.077
 7885SOL    HW125552   0.977  12.914  14.106
 7885SOL    HW225553   0.845  12.922  14.032
 7886SOL     OW25554  10.964   2.033   1.247
 7886SOL    HW125555  10.894   1.968   1.260
 7886SOL    HW225556  11.004   2.042   1.333
 7887SOL     OW25557  13.310   2.692   3.109
 7887SOL    HW125558  13.249   2.624   3.138
 7887SOL    HW225559  13.263   2.774   3.125
 7888SOL     OW25560   0.553  14.272   0.351
 7888SOL    HW125561   0.618  14.206   0.327
 7888SOL    HW225562   0.529  14.249   0.441
 7889SOL     OW25563  14.404   4.249   9.322
 7889SOL    HW125564  14.344   4.176   9.303
 7889SOL    HW225565  14.384   4.274   9.412
 7890SOL     OW25566  13.691   9.140   2.013
 7890SOL    HW125567  13.632   9.178   2.078
 7890SOL    HW225568  13.775   9.135   2.058
 7891SOL     OW25569   0.019   2.285   2.362
 7891SOL    HW125570  14.871   2.327   2.441
 7891SOL    HW225571   0.007   2.191   2.377
 7892SOL     OW25572  12.474  10.688   6.461
 7892SOL    HW125573  12.415  10.637   6.406
 7892SOL    HW225574  12.562  10.666   6.430
 7893SOL     OW25575   2.896   9.070  12.800
 7893SOL    HW125576   2.920   9.158  12.831
 7893SOL    HW225577   2.976   9.036  12.760
 7894SOL     OW25578  14.153   6.932  11.472
 7894SOL    HW125579  14.088   7.000  11.486
 7894SOL    HW225580  14.216   6.944  11.543
 7895SOL     OW25581   6.915   2.409   1.394
 7895SOL    HW125582   6.838   2.367   1.431
 7895SOL    HW225583   6.896   2.502   1.398
 7896SOL     OW25584   6.271   1.947  13.243
 7896SOL    HW125585   6.351   1.944  13.191
 7896SOL    HW225586   6.216   1.878  13.207
 7897SOL     OW25587   7.167   4.242  11.550
 7897SOL    HW125588   7.238   4.218  11.609
 7897SOL    HW225589   7.087   4.217  11.596
 7898SOL     OW25590   4.474   6.967  12.303
 7898SOL    HW125591   4.509   7.045  12.347
 7898SOL    HW225592   4.418   7.002  12.234
 7899SOL     OW25593  12.274   8.653   4.265
 7899SOL    HW125594  12.293   8.728   4.209
 7899SOL    HW225595  12.320   8.671   4.347
 7900SOL     OW25596   6.489  13.865   8.701
 7900SOL    HW125597   6.516  13.852   8.792
 7900SOL    HW225598   6.475  13.960   8.695
 7901SOL     OW25599  10.839   9.401  11.945
 7901SOL    HW125600  10.827   9.494  11.926
 7901SOL    HW225601  10.814   9.392  12.037
 7902SOL     OW25602   8.771  13.224  14.248
 7902SOL    HW125603   8.681  13.234  14.217
 7902SOL    HW225604   8.772  13.139  14.291
 7903SOL     OW25605  11.187  13.865  12.142
 7903SOL    HW125606  11.181  13.782  12.190
 7903SOL    HW225607  11.096  13.886  12.119
 7904SOL     OW25608  13.413   3.527  11.191
 7904SOL    HW125609  13.410   3.433  11.211
 7904SOL    HW225610  13.387   3.570  11.272
 7905SOL     OW25611   2.420   1.426   8.349
 7905SOL    HW125612   2.503   1.419   8.302
 7905SOL    HW225613   2.359   1.375   8.297
 7906SOL     OW25614  12.399   4.497  12.757
 7906SOL    HW125615  12.394   4.493  12.661
 7906SOL    HW225616  12.468   4.434  12.780
 7907SOL     OW25617  11.155   3.385   9.349
 7907SOL    HW125618  11.165   3.477   9.323
 7907SOL    HW225619  11.187   3.336   9.274
 7908SOL     OW25620   9.823   6.199  14.414
 7908SOL    HW125621   9.878   6.120  14.416
 7908SOL    HW225622   9.842   6.244  14.496
 7909SOL     OW25623  14.453  12.206  11.306
 7909SOL    HW125624  14.523  12.142  11.322
 7909SOL    HW225625  14.394  12.163  11.245
 7910SOL     OW25626   7.617   1.096  13.030
 7910SOL    HW125627   7.675   1.092  12.953
 7910SOL    HW225628   7.542   1.042  13.006
 7911SOL     OW25629  11.079   0.244  12.891
 7911SOL    HW125630  11.082   0.149  12.900
 7911SOL    HW225631  11.159   0.275  12.934
 7912SOL     OW25632   9.627   7.214   8.742
 7912SOL    HW125633   9.542   7.200   8.699
 7912SOL    HW225634   9.637   7.137   8.799
 7913SOL     OW25635   6.717   5.029   8.869
 7913SOL    HW125636   6.666   5.066   8.796
 7913SOL    HW225637   6.666   4.953   8.897
 7914SOL     OW25638   7.645   1.878  14.451
 7914SOL    HW125639   7.590   1.814  14.497
 7914SOL    HW225640   7.623   1.866  14.359
 7915SOL     OW25641   6.464  11.186  11.597
 7915SOL    HW125642   6.498  11.190  11.508
 7915SOL    HW225643   6.369  11.191  11.586
 7916SOL     OW25644   4.261   7.848  11.671
 7916SOL    HW125645   4.274   7.771  11.616
 7916SOL    HW225646   4.348   7.866  11.708
 7917SOL     OW25647   4.805   4.289   1.443
 7917SOL    HW125648   4.727   4.250   1.482
 7917SOL    HW225649   4.773   4.370   1.402
 7918SOL     OW25650   9.898   1.086   9.168
 7918SOL    HW125651   9.923   0.997   9.142
 7918SOL    HW225652   9.919   1.140   9.091
 7919SOL     OW25653  12.190  13.611  13.009
 7919SOL    HW125654  12.267  13.567  13.046
 7919SOL    HW225655  12.203  13.607  12.914
 7920SOL     OW25656   6.601  10.282   5.745
 7920SOL    HW125657   6.530  10.234   5.788
 7920SOL    HW225658   6.681  10.242   5.779
 7921SOL     OW25659   7.024   0.392  11.564
 7921SOL    HW125660   6.943   0.360  11.525
 7921SOL    HW225661   7.020   0.363  11.655
 7922SOL     OW25662   4.954   3.635   8.492
 7922SOL    HW125663   4.944   3.653   8.586
 7922SOL    HW225664   5.025   3.692   8.464
 7923SOL     OW25665   1.927   1.754  10.175
 7923SOL    HW125666   1.922   1.666  10.137
 7923SOL    HW225667   1.863   1.805  10.125
 7924SOL     OW25668   6.596   4.723  11.867
 7924SOL    HW125669   6.592   4.676  11.784
 7924SOL    HW225670   6.525   4.686  11.919
 7925SOL     OW25671   2.657  11.707  13.713
 7925SOL    HW125672   2.564  11.719  13.691
 7925SOL    HW225673   2.701  11.779  13.669
 7926SOL     OW25674   3.829   1.832   3.820
 7926SOL    HW125675   3.822   1.850   3.726
 7926SOL    HW225676   3.870   1.746   3.825
 7927SOL     OW25677   2.667  11.711   4.814
 7927SOL    HW125678   2.582  11.741   4.783
 7927SOL    HW225679   2.648  11.633   4.867
 7928SOL     OW25680   7.065   6.593   1.652
 7928SOL    HW125681   6.982   6.547   1.642
 7928SOL    HW225682   7.121   6.532   1.700
 7929SOL     OW25683  12.117  10.054   8.928
 7929SOL    HW125684  12.059  10.039   9.003
 7929SOL    HW225685  12.064  10.031   8.852
 7930SOL     OW25686   9.736   0.865   1.305
 7930SOL    HW125687   9.754   0.884   1.397
 7930SOL    HW225688   9.661   0.805   1.307
 7931SOL     OW25689   6.664   2.778   2.714
 7931SOL    HW125690   6.665   2.704   2.774
 7931SOL    HW225691   6.757   2.795   2.695
 7932SOL     OW25692  12.145   5.963  13.542
 7932SOL    HW125693  12.139   6.044  13.593
 7932SOL    HW225694  12.168   5.991  13.454
 7933SOL     OW25695   3.150   2.916  10.323
 7933SOL    HW125696   3.144   2.975  10.398
 7933SOL    HW225697   3.130   2.971  10.247
 7934SOL     OW25698   2.519   0.329   6.960
 7934SOL    HW125699   2.492   0.268   7.029
 7934SOL    HW225700   2.490   0.288   6.879
 7935SOL     OW25701   6.445   9.372   3.053
 7935SOL    HW125702   6.420   9.281   3.070
 7935SOL    HW225703   6.418   9.387   2.962
 7936SOL     OW25704   9.272  11.325  10.582
 7936SOL    HW125705   9.229  11.271  10.516
 7936SOL    HW225706   9.355  11.350  10.542
 7937SOL     OW25707   6.178   8.086  12.270
 7937SOL    HW125708   6.268   8.110  12.247
 7937SOL    HW225709   6.152   8.150  12.336
 7938SOL     OW25710   3.348   9.852   5.039
 7938SOL    HW125711   3.279   9.906   5.076
 7938SOL    HW225712   3.329   9.763   5.071
 7939SOL     OW25713   7.323   1.389  12.369
 7939SOL    HW125714   7.336   1.409  12.276
 7939SOL    HW225715   7.410   1.394  12.408
 7940SOL     OW25716  13.747   8.677  12.431
 7940SOL    HW125717  13.678   8.669  12.365
 7940SOL    HW225718  13.707   8.644  12.511
 7941SOL     OW25719   4.244   0.835   6.864
 7941SOL    HW125720   4.302   0.779   6.916
 7941SOL    HW225721   4.258   0.806   6.774
 7942SOL     OW25722   9.276   3.000   1.409
 7942SOL    HW125723   9.298   2.941   1.337
 7942SOL    HW225724   9.299   2.952   1.488
 7943SOL     OW25725  12.881  10.133   7.021
 7943SOL    HW125726  12.902  10.214   6.975
 7943SOL    HW225727  12.840  10.161   7.102
 7944SOL     OW25728   0.593   5.894   9.703
 7944SOL    HW125729   0.620   5.802   9.711
 7944SOL    HW225730   0.498   5.891   9.702
 7945SOL     OW25731  12.797  14.181   4.333
 7945SOL    HW125732  12.848  14.101   4.349
 7945SOL    HW225733  12.707  14.150   4.321
 7946SOL     OW25734   7.487  10.744   0.958
 7946SOL    HW125735   7.550  10.793   1.012
 7946SOL    HW225736   7.437  10.692   1.021
 7947SOL     OW25737   7.355   0.569   8.440
 7947SOL    HW125738   7.401   0.641   8.398
 7947SOL    HW225739   7.279   0.553   8.384
 7948SOL     OW25740   1.300  13.530   6.245
 7948SOL    HW125741   1.261  13.594   6.186
 7948SOL    HW225742   1.318  13.580   6.325
 7949SOL     OW25743  14.579   5.520   0.008
 7949SOL    HW125744  14.666   5.489   0.030
 7949SOL    HW225745  14.592   5.579  14.821
 7950SOL     OW25746   8.626   8.786  10.310
 7950SOL    HW125747   8.561   8.843  10.350
 7950SOL    HW225748   8.575   8.723  10.259
 7951SOL     OW25749   0.299   7.936   8.397
 7951SOL    HW125750   0.243   7.924   8.320
 7951SOL    HW225751   0.360   7.863   8.394
 7952SOL     OW25752   5.641  11.399   0.089
 7952SOL    HW125753   5.612  11.372   0.176
 7952SOL    HW225754   5.684  11.483   0.103
 7953SOL     OW25755   5.185   8.288  12.381
 7953SOL    HW125756   5.189   8.215  12.442
 7953SOL    HW225757   5.149   8.361  12.432
 7954SOL     OW25758   1.537   6.830   1.646
 7954SOL    HW125759   1.602   6.781   1.697
 7954SOL    HW225760   1.537   6.788   1.560
 7955SOL     OW25761   5.139   4.728   8.965
 7955SOL    HW125762   5.213   4.667   8.956
 7955SOL    HW225763   5.109   4.743   8.875
 7956SOL     OW25764   2.094   7.099   6.777
 7956SOL    HW125765   2.130   7.011   6.769
 7956SOL    HW225766   2.169   7.153   6.802
 7957SOL     OW25767  11.926   4.470   2.358
 7957SOL    HW125768  12.015   4.451   2.385
 7957SOL    HW225769  11.927   4.461   2.262
 7958SOL     OW25770   5.922  14.605   1.934
 7958SOL    HW125771   5.866  14.655   1.994
 7958SOL    HW225772   5.945  14.668   1.866
 7959SOL     OW25773   0.627   7.874  14.184
 7959SOL    HW125774   0.594   7.803  14.240
 7959SOL    HW225775   0.637   7.948  14.243
 7960SOL     OW25776  11.758   8.981   4.134
 7960SOL    HW125777  11.712   9.058   4.167
 7960SOL    HW225778  11.811   8.950   4.208
 7961SOL     OW25779  12.305  11.458   2.086
 7961SOL    HW125780  12.226  11.405   2.081
 7961SOL    HW225781  12.368  11.403   2.132
 7962SOL     OW25782  13.692  12.775   6.235
 7962SOL    HW125783  13.637  12.697   6.239
 7962SOL    HW225784  13.631  12.848   6.247
 7963SOL     OW25785   8.631  12.076   8.731
 7963SOL    HW125786   8.695  12.142   8.705
 7963SOL    HW225787   8.612  12.095   8.823
 7964SOL     OW25788   7.458  10.681   9.160
 7964SOL    HW125789   7.508  10.739   9.102
 7964SOL    HW225790   7.521  10.617   9.191
 7965SOL     OW25791  13.266   1.146   9.987
 7965SOL    HW125792  13.260   1.232  10.029
 7965SOL    HW225793  13.358   1.138   9.964
 7966SOL     OW25794   1.655   9.000   7.032
 7966SOL    HW125795   1.650   8.972   7.123
 7966SOL    HW225796   1.740   8.967   7.001
 7967SOL     OW25797   8.949   7.532   4.735
 7967SOL    HW125798   8.963   7.552   4.643
 7967SOL    HW225799   9.017   7.469   4.758
 7968SOL     OW25800  14.636   0.343  14.340
 7968SOL    HW125801  14.634   0.354  14.245
 7968SOL    HW225802  14.727   0.361  14.364
 7969SOL     OW25803   9.712   9.930   0.036
 7969SOL    HW125804   9.618   9.937   0.052
 7969SOL    HW225805   9.720   9.864  14.854
 7970SOL     OW25806   5.455   9.186   3.060
 7970SOL    HW125807   5.417   9.163   2.976
 7970SOL    HW225808   5.516   9.257   3.040
 7971SOL     OW25809  10.842  14.817   1.535
 7971SOL    HW125810  10.784  14.742   1.522
 7971SOL    HW225811  10.910  14.784   1.594
 7972SOL     OW25812  12.845   0.382   1.615
 7972SOL    HW125813  12.932   0.348   1.598
 7972SOL    HW225814  12.859   0.458   1.672
 7973SOL     OW25815   2.476   9.896   2.999
 7973SOL    HW125816   2.477   9.829   2.930
 7973SOL    HW225817   2.428   9.969   2.960
 7974SOL     OW25818  12.546  12.400   0.183
 7974SOL    HW125819  12.505  12.382   0.098
 7974SOL    HW225820  12.585  12.487   0.172
 7975SOL     OW25821   5.060   7.811   8.517
 7975SOL    HW125822   5.018   7.838   8.435
 7975SOL    HW225823   5.140   7.766   8.491
 7976SOL     OW25824   1.655   4.023  13.335
 7976SOL    HW125825   1.603   3.967  13.277
 7976SOL    HW225826   1.744   3.989  13.327
 7977SOL     OW25827  13.406   7.595   7.754
 7977SOL    HW125828  13.452   7.513   7.739
 7977SOL    HW225829  13.410   7.641   7.670
 7978SOL     OW25830  13.222   0.457  10.331
 7978SOL    HW125831  13.278   0.382  10.311
 7978SOL    HW225832  13.278   0.533  10.315
 7979SOL     OW25833   2.600   9.176   4.494
 7979SOL    HW125834   2.696   9.175   4.493
 7979SOL    HW225835   2.577   9.169   4.586
 7980SOL     OW25836  11.921   0.828   2.915
 7980SOL    HW125837  11.861   0.755   2.929
 7980SOL    HW225838  12.000   0.787   2.880
 7981SOL     OW25839  10.087   0.688   3.067
 7981SOL    HW125840  10.097   0.594   3.084
 7981SOL    HW225841  10.004   0.711   3.108
 7982SOL     OW25842  13.446   1.310  10.345
 7982SOL    HW125843  13.507   1.237  10.330
 7982SOL    HW225844  13.405   1.324  10.260
 7983SOL     OW25845  14.286   0.135   2.624
 7983SOL    HW125846  14.232   0.191   2.569
 7983SOL    HW225847  14.376   0.155   2.599
 7984SOL     OW25848  13.189  12.063   4.825
 7984SOL    HW125849  13.237  12.107   4.755
 7984SOL    HW225850  13.105  12.040   4.786
 7985SOL     OW25851   3.614   1.453   0.396
 7985SOL    HW125852   3.621   1.362   0.424
 7985SOL    HW225853   3.541   1.488   0.446
 7986SOL     OW25854  12.598   0.670   2.190
 7986SOL    HW125855  12.625   0.599   2.132
 7986SOL    HW225856  12.657   0.664   2.265
 7987SOL     OW25857   0.128   3.299   7.760
 7987SOL    HW125858   0.056   3.253   7.803
 7987SOL    HW225859   0.098   3.312   7.670
 7988SOL     OW25860   3.705   4.449   8.292
 7988SOL    HW125861   3.762   4.462   8.368
 7988SOL    HW225862   3.645   4.523   8.294
 7989SOL     OW25863   1.717  13.700   3.970
 7989SOL    HW125864   1.664  13.743   4.036
 7989SOL    HW225865   1.682  13.611   3.965
 7990SOL     OW25866  14.136   8.321  10.656
 7990SOL    HW125867  14.160   8.229  10.644
 7990SOL    HW225868  14.044   8.318  10.684
 7991SOL     OW25869  10.825   4.836   0.917
 7991SOL    HW125870  10.838   4.835   1.012
 7991SOL    HW225871  10.748   4.892   0.904
 7992SOL     OW25872  12.412   0.510   0.925
 7992SOL    HW125873  12.437   0.575   0.859
 7992SOL    HW225874  12.483   0.446   0.925
 7993SOL     OW25875   0.952   9.013  13.555
 7993SOL    HW125876   0.866   9.006  13.513
 7993SOL    HW225877   1.013   9.030  13.483
 7994SOL     OW25878  14.571   9.750  10.963
 7994SOL    HW125879  14.552   9.658  10.942
 7994SOL    HW225880  14.563   9.755  11.058
 7995SOL     OW25881  10.344   2.064  14.190
 7995SOL    HW125882  10.250   2.048  14.185
 7995SOL    HW225883  10.352   2.145  14.240
 7996SOL     OW25884   6.073   3.921  11.664
 7996SOL    HW125885   6.129   3.859  11.708
 7996SOL    HW225886   6.067   3.889  11.574
 7997SOL     OW25887   9.460  11.518  11.547
 7997SOL    HW125888   9.402  11.467  11.605
 7997SOL    HW225889   9.489  11.454  11.482
 7998SOL     OW25890   8.073  12.347   8.134
 7998SOL    HW125891   8.141  12.329   8.069
 7998SOL    HW225892   8.031  12.427   8.103
 7999SOL     OW25893   0.777  10.506  10.326
 7999SOL    HW125894   0.700  10.488  10.380
 7999SOL    HW225895   0.767  10.449  10.250
 8000SOL     OW25896   1.483   4.567   2.157
 8000SOL    HW125897   1.540   4.556   2.233
 8000SOL    HW225898   1.523   4.513   2.089
 8001SOL     OW25899   8.612   2.883   7.429
 8001SOL    HW125900   8.641   2.924   7.347
 8001SOL    HW225901   8.586   2.794   7.403
 8002SOL     OW25902   0.928   6.824  13.284
 8002SOL    HW125903   0.834   6.835  13.292
 8002SOL    HW225904   0.965   6.892  13.340
 8003SOL     OW25905   9.836   2.712  12.269
 8003SOL    HW125906   9.915   2.689  12.219
 8003SOL    HW225907   9.764   2.684  12.213
 8004SOL     OW25908   8.640  13.808   5.175
 8004SOL    HW125909   8.582  13.822   5.250
 8004SOL    HW225910   8.723  13.781   5.213
 8005SOL     OW25911   4.799   8.852  11.804
 8005SOL    HW125912   4.797   8.792  11.730
 8005SOL    HW225913   4.728   8.914  11.786
 8006SOL     OW25914   4.454   4.409  13.361
 8006SOL    HW125915   4.374   4.387  13.409
 8006SOL    HW225916   4.443   4.502  13.339
 8007SOL     OW25917   4.486  11.422   8.068
 8007SOL    HW125918   4.556  11.360   8.086
 8007SOL    HW225919   4.531  11.505   8.050
 8008SOL     OW25920   0.177  10.414   1.106
 8008SOL    HW125921   0.082  10.405   1.103
 8008SOL    HW225922   0.208  10.367   1.028
 8009SOL     OW25923  14.292  11.948   6.259
 8009SOL    HW125924  14.350  11.932   6.333
 8009SOL    HW225925  14.347  11.937   6.182
 8010SOL     OW25926   9.525   1.867   6.651
 8010SOL    HW125927   9.449   1.811   6.637
 8010SOL    HW225928   9.591   1.834   6.590
 8011SOL     OW25929   3.684   7.959   7.818
 8011SOL    HW125930   3.693   7.997   7.906
 8011SOL    HW225931   3.726   7.874   7.825
 8012SOL     OW25932   4.625   4.885   6.148
 8012SOL    HW125933   4.589   4.924   6.227
 8012SOL    HW225934   4.592   4.941   6.077
 8013SOL     OW25935   8.970   3.879   3.108
 8013SOL    HW125936   9.056   3.884   3.150
 8013SOL    HW225937   8.925   3.808   3.153
 8014SOL     OW25938   4.268  11.032   4.693
 8014SOL    HW125939   4.268  10.997   4.782
 8014SOL    HW225940   4.288  11.125   4.704
 8015SOL     OW25941   1.863   6.370  13.791
 8015SOL    HW125942   1.871   6.332  13.878
 8015SOL    HW225943   1.832   6.299  13.735
 8016SOL     OW25944   4.818   1.993   8.607
 8016SOL    HW125945   4.741   1.942   8.584
 8016SOL    HW225946   4.847   1.955   8.690
 8017SOL     OW25947  14.183   0.313  12.735
 8017SOL    HW125948  14.129   0.392  12.743
 8017SOL    HW225949  14.270   0.346  12.712
 8018SOL     OW25950   0.069   2.828   7.698
 8018SOL    HW125951  14.884   2.877   7.736
 8018SOL    HW225952   0.101   2.773   7.769
 8019SOL     OW25953   8.381   2.544   9.491
 8019SOL    HW125954   8.454   2.513   9.545
 8019SOL    HW225955   8.359   2.469   9.435
 8020SOL     OW25956   8.350   0.853   0.708
 8020SOL    HW125957   8.406   0.922   0.744
 8020SOL    HW225958   8.411   0.789   0.671
 8021SOL     OW25959   5.746  10.394   7.118
 8021SOL    HW125960   5.726  10.434   7.202
 8021SOL    HW225961   5.679  10.430   7.059
 8022SOL     OW25962   7.368  11.174  11.107
 8022SOL    HW125963   7.303  11.197  11.173
 8022SOL    HW225964   7.372  11.078  11.110
 8023SOL     OW25965   4.956   9.041   5.654
 8023SOL    HW125966   4.864   9.067   5.655
 8023SOL    HW225967   4.985   9.048   5.745
 8024SOL     OW25968   7.893  13.585  11.485
 8024SOL    HW125969   7.894  13.659  11.545
 8024SOL    HW225970   7.983  13.551  11.487
 8025SOL     OW25971  12.335   2.834   4.955
 8025SOL    HW125972  12.369   2.848   5.043
 8025SOL    HW225973  12.410   2.800   4.906
 8026SOL     OW25974   2.954  11.563  14.685
 8026SOL    HW125975   2.880  11.531  14.633
 8026SOL    HW225976   2.914  11.600  14.764
 8027SOL     OW25977   4.816  13.431   5.716
 8027SOL    HW125978   4.838  13.361   5.654
 8027SOL    HW225979   4.898  13.450   5.761
 8028SOL     OW25980   1.701   1.318   1.414
 8028SOL    HW125981   1.734   1.386   1.474
 8028SOL    HW225982   1.618   1.290   1.453
 8029SOL     OW25983  11.823   7.750   3.052
 8029SOL    HW125984  11.827   7.672   3.107
 8029SOL    HW225985  11.744   7.738   2.999
 8030SOL     OW25986  14.872  12.949  11.155
 8030SOL    HW125987   0.037  13.021  11.121
 8030SOL    HW225988   0.011  12.873  11.103
 8031SOL     OW25989   2.294   2.731   4.096
 8031SOL    HW125990   2.237   2.792   4.050
 8031SOL    HW225991   2.281   2.750   4.189
 8032SOL     OW25992   3.686   4.779   5.917
 8032SOL    HW125993   3.627   4.818   5.852
 8032SOL    HW225994   3.774   4.805   5.888
 8033SOL     OW25995  12.455   1.820   8.516
 8033SOL    HW125996  12.404   1.853   8.441
 8033SOL    HW225997  12.423   1.730   8.528
 8034SOL     OW25998   6.323  10.319   9.613
 8034SOL    HW125999   6.301  10.328   9.520
 8034SOL    HW226000   6.381  10.393   9.631
 8035SOL     OW26001  12.352   0.992  10.033
 8035SOL    HW126002  12.335   1.078  10.071
 8035SOL    HW226003  12.290   0.984   9.961
 8036SOL     OW26004   4.686  12.230   6.118
 8036SOL    HW126005   4.770  12.266   6.091
 8036SOL    HW226006   4.631  12.235   6.039
 8037SOL     OW26007   5.581  12.345   4.055
 8037SOL    HW126008   5.623  12.397   3.985
 8037SOL    HW226009   5.621  12.259   4.047
 8038SOL     OW26010   6.726  13.433   0.543
 8038SOL    HW126011   6.674  13.480   0.609
 8038SOL    HW226012   6.669  13.361   0.516
 8039SOL     OW26013   6.581  10.100   7.476
 8039SOL    HW126014   6.505  10.148   7.509
 8039SOL    HW226015   6.655  10.158   7.490
 8040SOL     OW26016   6.633  13.027   0.278
 8040SOL    HW126017   6.684  13.048   0.200
 8040SOL    HW226018   6.667  12.942   0.307
 8041SOL     OW26019   2.553  13.058   6.071
 8041SOL    HW126020   2.463  13.028   6.060
 8041SOL    HW226021   2.596  12.989   6.120
 8042SOL     OW26022   6.125  10.038   7.834
 8042SOL    HW126023   6.065  10.113   7.836
 8042SOL    HW226024   6.136  10.019   7.741
 8043SOL     OW26025   9.741   2.133   1.127
 8043SOL    HW126026   9.768   2.042   1.122
 8043SOL    HW226027   9.779   2.174   1.049
 8044SOL     OW26028   7.254   0.294  10.788
 8044SOL    HW126029   7.324   0.257  10.733
 8044SOL    HW226030   7.181   0.306  10.727
 8045SOL     OW26031   2.662  10.924  11.968
 8045SOL    HW126032   2.609  10.891  12.041
 8045SOL    HW226033   2.626  10.880  11.891
 8046SOL     OW26034   1.779   0.678   0.105
 8046SOL    HW126035   1.765   0.585   0.122
 8046SOL    HW226036   1.831   0.708   0.180
 8047SOL     OW26037   0.663  10.295  11.647
 8047SOL    HW126038   0.654  10.286  11.741
 8047SOL    HW226039   0.587  10.347  11.620
 8048SOL     OW26040   4.975   8.048  10.152
 8048SOL    HW126041   4.885   8.019  10.168
 8048SOL    HW226042   4.984   8.126  10.206
 8049SOL     OW26043  12.089  13.139  13.846
 8049SOL    HW126044  12.026  13.171  13.911
 8049SOL    HW226045  12.060  13.050  13.828
 8050SOL     OW26046   0.242   6.093  13.358
 8050SOL    HW126047   0.186   6.166  13.385
 8050SOL    HW226048   0.203   6.017  13.402
 8051SOL     OW26049   4.624   2.932  10.830
 8051SOL    HW126050   4.574   2.971  10.758
 8051SOL    HW226051   4.644   3.006  10.888
 8052SOL     OW26052   0.705  12.093   2.055
 8052SOL    HW126053   0.791  12.088   2.013
 8052SOL    HW226054   0.705  12.177   2.101
 8053SOL     OW26055   2.343   8.221   1.406
 8053SOL    HW126056   2.267   8.238   1.351
 8053SOL    HW226057   2.314   8.245   1.494
 8054SOL     OW26058   8.050   3.592  13.788
 8054SOL    HW126059   8.023   3.682  13.772
 8054SOL    HW226060   8.143   3.598  13.810
 8055SOL     OW26061   8.383  11.096  12.964
 8055SOL    HW126062   8.415  11.150  12.891
 8055SOL    HW226063   8.388  11.006  12.931
 8056SOL     OW26064  14.808   7.402   8.809
 8056SOL    HW126065  14.855   7.378   8.729
 8056SOL    HW226066  14.840   7.490   8.830
 8057SOL     OW26067   6.644   2.357   4.635
 8057SOL    HW126068   6.599   2.345   4.718
 8057SOL    HW226069   6.660   2.269   4.602
 8058SOL     OW26070   8.878   2.264   4.269
 8058SOL    HW126071   8.801   2.320   4.276
 8058SOL    HW226072   8.916   2.263   4.357
 8059SOL     OW26073  10.973   4.182  13.699
 8059SOL    HW126074  10.902   4.232  13.739
 8059SOL    HW226075  11.041   4.180  13.766
 8060SOL     OW26076   8.875   4.880  14.014
 8060SOL    HW126077   8.914   4.966  14.004
 8060SOL    HW226078   8.811   4.890  14.085
 8061SOL     OW26079   3.104   8.157  14.411
 8061SOL    HW126080   3.041   8.169  14.341
 8061SOL    HW226081   3.150   8.076  14.389
 8062SOL     OW26082   1.937   0.289   4.713
 8062SOL    HW126083   1.893   0.360   4.760
 8062SOL    HW226084   1.966   0.329   4.631
 8063SOL     OW26085   5.546   0.238  10.500
 8063SOL    HW126086   5.530   0.151  10.464
 8063SOL    HW226087   5.550   0.224  10.595
 8064SOL     OW26088  11.334  12.831   7.217
 8064SOL    HW126089  11.343  12.896   7.288
 8064SOL    HW226090  11.418  12.835   7.171
 8065SOL     OW26091  11.261  13.026   6.803
 8065SOL    HW126092  11.237  13.007   6.893
 8065SOL    HW226093  11.193  13.086   6.772
 8066SOL     OW26094   6.715   4.042   0.756
 8066SOL    HW126095   6.790   4.057   0.699
 8066SOL    HW226096   6.714   3.948   0.772
 8067SOL     OW26097  10.172   9.209   5.809
 8067SOL    HW126098  10.142   9.285   5.858
 8067SOL    HW226099  10.260   9.192   5.843
 8068SOL     OW26100   7.353   4.715  14.377
 8068SOL    HW126101   7.299   4.697  14.454
 8068SOL    HW226102   7.328   4.646  14.314
 8069SOL     OW26103   2.644   6.216  12.838
 8069SOL    HW126104   2.712   6.272  12.799
 8069SOL    HW226105   2.683   6.186  12.920
 8070SOL     OW26106   6.017   5.403   3.863
 8070SOL    HW126107   6.070   5.332   3.899
 8070SOL    HW226108   6.023   5.473   3.928
 8071SOL     OW26109  11.858   2.190  11.573
 8071SOL    HW126110  11.826   2.139  11.499
 8071SOL    HW226111  11.781   2.235  11.607
 8072SOL     OW26112   2.545   1.107   7.115
 8072SOL    HW126113   2.640   1.104   7.120
 8072SOL    HW226114   2.525   1.106   7.022
 8073SOL     OW26115  10.065   9.130   6.457
 8073SOL    HW126116  10.066   9.113   6.363
 8073SOL    HW226117   9.985   9.182   6.471
 8074SOL     OW26118  13.874  12.099  12.226
 8074SOL    HW126119  13.864  12.004  12.227
 8074SOL    HW226120  13.830  12.128  12.146
 8075SOL     OW26121   1.508  13.372  11.182
 8075SOL    HW126122   1.579  13.339  11.127
 8075SOL    HW226123   1.443  13.302  11.182
 8076SOL     OW26124   3.012   7.629  10.380
 8076SOL    HW126125   2.941   7.666  10.327
 8076SOL    HW226126   3.052   7.563  10.324
 8077SOL     OW26127   8.561   4.553  13.388
 8077SOL    HW126128   8.493   4.607  13.429
 8077SOL    HW226129   8.515   4.473  13.362
 8078SOL     OW26130   5.456  12.223   0.990
 8078SOL    HW126131   5.375  12.178   1.012
 8078SOL    HW226132   5.488  12.179   0.911
 8079SOL     OW26133   8.874  12.324   4.017
 8079SOL    HW126134   8.939  12.263   3.982
 8079SOL    HW226135   8.922  12.407   4.024
 8080SOL     OW26136   2.391  13.371   1.621
 8080SOL    HW126137   2.461  13.327   1.668
 8080SOL    HW226138   2.425  13.458   1.601
 8081SOL     OW26139   7.598  13.404  10.602
 8081SOL    HW126140   7.685  13.395  10.564
 8081SOL    HW226141   7.605  13.475  10.665
 8082SOL     OW26142  14.350   1.775   7.788
 8082SOL    HW126143  14.325   1.839   7.854
 8082SOL    HW226144  14.408   1.714   7.833
 8083SOL     OW26145  11.157   7.254   6.831
 8083SOL    HW126146  11.172   7.329   6.774
 8083SOL    HW226147  11.067   7.227   6.811
 8084SOL     OW26148   8.924   3.095   0.759
 8084SOL    HW126149   8.846   3.150   0.767
 8084SOL    HW226150   8.898   3.011   0.798
 8085SOL     OW26151   9.007   8.139   7.300
 8085SOL    HW126152   9.040   8.055   7.268
 8085SOL    HW226153   8.930   8.156   7.247
 8086SOL     OW26154   2.090   7.694   3.319
 8086SOL    HW126155   2.177   7.732   3.305
 8086SOL    HW226156   2.105   7.620   3.378
 8087SOL     OW26157  12.646   5.582  12.636
 8087SOL    HW126158  12.615   5.649  12.697
 8087SOL    HW226159  12.670   5.508  12.691
 8088SOL     OW26160  10.761   9.942   0.413
 8088SOL    HW126161  10.807   9.865   0.381
 8088SOL    HW226162  10.741   9.993   0.335
 8089SOL     OW26163   6.528  10.385   8.983
 8089SOL    HW126164   6.600  10.334   8.946
 8089SOL    HW226165   6.569  10.439   9.050
 8090SOL     OW26166  12.463   3.757  14.498
 8090SOL    HW126167  12.550   3.764  14.537
 8090SOL    HW226168  12.413   3.706  14.561
 8091SOL     OW26169  11.979  14.845  13.915
 8091SOL    HW126170  12.068  14.859  13.947
 8091SOL    HW226171  11.933   0.038  13.936
 8092SOL     OW26172  13.278   9.494  11.976
 8092SOL    HW126173  13.281   9.434  12.050
 8092SOL    HW226174  13.360   9.480  11.930
 8093SOL     OW26175   7.724   8.747   8.292
 8093SOL    HW126176   7.711   8.753   8.198
 8093SOL    HW226177   7.716   8.836   8.324
 8094SOL     OW26178   4.349  10.358   9.939
 8094SOL    HW126179   4.415  10.294   9.914
 8094SOL    HW226180   4.396  10.442   9.938
 8095SOL     OW26181  10.227  13.206   7.462
 8095SOL    HW126182  10.286  13.197   7.387
 8095SOL    HW226183  10.148  13.159   7.436
 8096SOL     OW26184   8.870  11.653  13.202
 8096SOL    HW126185   8.966  11.652  13.193
 8096SOL    HW226186   8.838  11.616  13.120
 8097SOL     OW26187   2.050  13.494  13.101
 8097SOL    HW126188   2.121  13.443  13.061
 8097SOL    HW226189   2.055  13.472  13.195
 8098SOL     OW26190   8.292   9.697   8.216
 8098SOL    HW126191   8.261   9.634   8.282
 8098SOL    HW226192   8.233   9.684   8.142
 8099SOL     OW26193   8.429  11.684   6.358
 8099SOL    HW126194   8.363  11.641   6.303
 8099SOL    HW226195   8.459  11.616   6.418
 8100SOL     OW26196   0.145   2.193  12.403
 8100SOL    HW126197   0.169   2.149  12.484
 8100SOL    HW226198   0.152   2.125  12.336
 8101SOL     OW26199  11.823   1.907   3.439
 8101SOL    HW126200  11.803   1.839   3.374
 8101SOL    HW226201  11.870   1.860   3.508
 8102SOL     OW26202   5.147   7.362   9.642
 8102SOL    HW126203   5.076   7.312   9.601
 8102SOL    HW226204   5.111   7.390   9.727
 8103SOL     OW26205   6.100  10.222   4.625
 8103SOL    HW126206   6.162  10.171   4.574
 8103SOL    HW226207   6.155  10.274   4.684
 8104SOL     OW26208  14.314   5.592   8.655
 8104SOL    HW126209  14.269   5.642   8.723
 8104SOL    HW226210  14.368   5.657   8.611
 8105SOL     OW26211   2.758  10.598  10.580
 8105SOL    HW126212   2.818  10.598  10.654
 8105SOL    HW226213   2.797  10.658  10.517
 8106SOL     OW26214   5.738   9.352   3.722
 8106SOL    HW126215   5.766   9.430   3.675
 8106SOL    HW226216   5.721   9.287   3.654
 8107SOL     OW26217   9.361   9.219   3.412
 8107SOL    HW126218   9.279   9.269   3.417
 8107SOL    HW226219   9.426   9.275   3.455
 8108SOL     OW26220  12.673  14.612   4.063
 8108SOL    HW126221  12.605  14.666   4.102
 8108SOL    HW226222  12.658  14.619   3.968
 8109SOL     OW26223  12.110   5.415  12.797
 8109SOL    HW126224  12.104   5.494  12.851
 8109SOL    HW226225  12.203   5.401  12.783
 8110SOL     OW26226   1.533  12.653  13.295
 8110SOL    HW126227   1.579  12.583  13.250
 8110SOL    HW226228   1.442  12.624  13.299
 8111SOL     OW26229  11.515  11.372   3.203
 8111SOL    HW126230  11.507  11.371   3.108
 8111SOL    HW226231  11.496  11.462   3.229
 8112SOL     OW26232  12.286  14.088  11.778
 8112SOL    HW126233  12.224  14.041  11.723
 8112SOL    HW226234  12.237  14.108  11.858
 8113SOL     OW26235  12.822   7.930   2.295
 8113SOL    HW126236  12.771   7.918   2.215
 8113SOL    HW226237  12.870   7.849   2.305
 8114SOL     OW26238  13.606  12.601  13.238
 8114SOL    HW126239  13.551  12.675  13.264
 8114SOL    HW226240  13.607  12.544  13.315
 8115SOL     OW26241   5.598  12.386  12.986
 8115SOL    HW126242   5.526  12.428  12.938
 8115SOL    HW226243   5.584  12.412  13.077
 8116SOL     OW26244   9.033   7.551  12.269
 8116SOL    HW126245   9.009   7.609  12.341
 8116SOL    HW226246   8.983   7.585  12.194
 8117SOL     OW26247   5.239   7.922  12.693
 8117SOL    HW126248   5.195   7.982  12.633
 8117SOL    HW226249   5.221   7.835  12.657
 8118SOL     OW26250  11.126   8.379   7.116
 8118SOL    HW126251  11.078   8.403   7.195
 8118SOL    HW226252  11.065   8.324   7.067
 8119SOL     OW26253   7.169   1.253   8.542
 8119SOL    HW126254   7.169   1.214   8.630
 8119SOL    HW226255   7.219   1.334   8.552
 8120SOL     OW26256   4.263   4.420  10.690
 8120SOL    HW126257   4.351   4.411  10.726
 8120SOL    HW226258   4.237   4.509  10.711
 8121SOL     OW26259  12.134   4.605   4.620
 8121SOL    HW126260  12.199   4.646   4.677
 8121SOL    HW226261  12.073   4.562   4.679
 8122SOL     OW26262  10.543   2.385  13.446
 8122SOL    HW126263  10.623   2.420  13.406
 8122SOL    HW226264  10.503   2.460  13.490
 8123SOL     OW26265   1.361   2.167   1.961
 8123SOL    HW126266   1.357   2.157   1.866
 8123SOL    HW226267   1.298   2.103   1.994
 8124SOL     OW26268   1.098   0.300   6.068
 8124SOL    HW126269   1.150   0.330   6.142
 8124SOL    HW226270   1.007   0.319   6.093
 8125SOL     OW26271   5.133   1.638   0.537
 8125SOL    HW126272   5.087   1.718   0.508
 8125SOL    HW226273   5.157   1.594   0.455
 8126SOL     OW26274   0.458   2.656   5.021
 8126SOL    HW126275   0.379   2.603   5.010
 8126SOL    HW226276   0.427   2.746   5.020
 8127SOL     OW26277  14.191   2.286   0.556
 8127SOL    HW126278  14.211   2.216   0.493
 8127SOL    HW226279  14.205   2.367   0.507
 8128SOL     OW26280   1.335   8.151   2.009
 8128SOL    HW126281   1.359   8.242   2.027
 8128SOL    HW226282   1.419   8.108   1.991
 8129SOL     OW26283   1.823  14.763   9.140
 8129SOL    HW126284   1.834  14.745   9.046
 8129SOL    HW226285   1.751  14.826   9.144
 8130SOL     OW26286  10.205   8.699  13.429
 8130SOL    HW126287  10.144   8.628  13.447
 8130SOL    HW226288  10.244   8.677  13.345
 8131SOL     OW26289   9.730   6.167   0.364
 8131SOL    HW126290   9.705   6.092   0.417
 8131SOL    HW226291   9.667   6.235   0.388
 8132SOL     OW26292   6.785  10.970  11.362
 8132SOL    HW126293   6.717  11.032  11.335
 8132SOL    HW226294   6.829  10.945  11.281
 8133SOL     OW26295   4.261   6.880   9.151
 8133SOL    HW126296   4.205   6.863   9.226
 8133SOL    HW226297   4.231   6.964   9.117
 8134SOL     OW26298   9.176   9.753  11.003
 8134SOL    HW126299   9.227   9.827  10.969
 8134SOL    HW226300   9.131   9.718  10.926
 8135SOL     OW26301   2.184  14.576   6.976
 8135SOL    HW126302   2.200  14.559   6.883
 8135SOL    HW226303   2.182  14.489   7.016
 8136SOL     OW26304   1.400  13.361   4.146
 8136SOL    HW126305   1.354  13.288   4.106
 8136SOL    HW226306   1.341  13.390   4.216
 8137SOL     OW26307   4.191   6.111   7.927
 8137SOL    HW126308   4.273   6.129   7.974
 8137SOL    HW226309   4.134   6.072   7.994
 8138SOL     OW26310   7.187  13.290  11.561
 8138SOL    HW126311   7.093  13.282  11.546
 8138SOL    HW226312   7.215  13.359  11.500
 8139SOL     OW26313   6.868  14.658   4.415
 8139SOL    HW126314   6.897  14.573   4.380
 8139SOL    HW226315   6.853  14.641   4.508
 8140SOL     OW26316   8.436  10.474  10.032
 8140SOL    HW126317   8.352  10.437  10.060
 8140SOL    HW226318   8.443  10.556  10.081
 8141SOL     OW26319   3.465   3.038   4.744
 8141SOL    HW126320   3.540   3.097   4.746
 8141SOL    HW226321   3.477   2.986   4.665
 8142SOL     OW26322   0.881   0.680   7.640
 8142SOL    HW126323   0.907   0.701   7.551
 8142SOL    HW226324   0.931   0.741   7.695
 8143SOL     OW26325   5.068   5.809  10.080
 8143SOL    HW126326   5.133   5.761  10.029
 8143SOL    HW226327   4.999   5.746  10.097
 8144SOL     OW26328   0.348   1.855   3.693
 8144SOL    HW126329   0.399   1.847   3.774
 8144SOL    HW226330   0.319   1.946   3.693
 8145SOL     OW26331   3.107   9.267  10.265
 8145SOL    HW126332   3.169   9.194  10.260
 8145SOL    HW226333   3.161   9.345  10.253
 8146SOL     OW26334   5.813   7.775   6.129
 8146SOL    HW126335   5.894   7.727   6.145
 8146SOL    HW226336   5.744   7.713   6.155
 8147SOL     OW26337  14.499  14.673  10.530
 8147SOL    HW126338  14.444  14.735  10.483
 8147SOL    HW226339  14.492  14.699  10.622
 8148SOL     OW26340   3.528   1.052  10.782
 8148SOL    HW126341   3.477   1.023  10.858
 8148SOL    HW226342   3.468   1.104  10.730
 8149SOL     OW26343  10.314   6.795   5.375
 8149SOL    HW126344  10.337   6.787   5.282
 8149SOL    HW226345  10.297   6.705   5.403
 8150SOL     OW26346   0.004  10.254   7.606
 8150SOL    HW126347   0.099  10.269   7.607
 8150SOL    HW226348  14.860  10.310   7.535
 8151SOL     OW26349  14.099   6.208   5.234
 8151SOL    HW126350  14.031   6.268   5.266
 8151SOL    HW226351  14.145   6.182   5.313
 8152SOL     OW26352  10.394   3.861  12.364
 8152SOL    HW126353  10.387   3.828  12.454
 8152SOL    HW226354  10.469   3.921  12.366
 8153SOL     OW26355   6.946   3.108  10.690
 8153SOL    HW126356   6.937   3.027  10.740
 8153SOL    HW226357   6.996   3.166  10.748
 8154SOL     OW26358   9.255  12.925  13.124
 8154SOL    HW126359   9.222  12.859  13.185
 8154SOL    HW226360   9.275  12.876  13.044
 8155SOL     OW26361  12.596   7.238   8.402
 8155SOL    HW126362  12.617   7.287   8.482
 8155SOL    HW226363  12.509   7.270   8.377
 8156SOL     OW26364   1.379   6.273   8.504
 8156SOL    HW126365   1.362   6.284   8.411
 8156SOL    HW226366   1.295   6.293   8.546
 8157SOL     OW26367  10.032   3.267   0.401
 8157SOL    HW126368  10.011   3.354   0.437
 8157SOL    HW226369   9.986   3.206   0.458
 8158SOL     OW26370   6.315  10.470   5.956
 8158SOL    HW126371   6.242  10.410   5.975
 8158SOL    HW226372   6.376  10.457   6.029
 8159SOL     OW26373   4.701   5.910   6.190
 8159SOL    HW126374   4.679   5.963   6.114
 8159SOL    HW226375   4.697   5.820   6.158
 8160SOL     OW26376   6.439   2.215   6.002
 8160SOL    HW126377   6.492   2.193   6.078
 8160SOL    HW226378   6.417   2.130   5.962
 8161SOL     OW26379  13.225   3.614   3.363
 8161SOL    HW126380  13.203   3.675   3.434
 8161SOL    HW226381  13.189   3.530   3.391
 8162SOL     OW26382   4.803  10.660   4.862
 8162SOL    HW126383   4.751  10.586   4.833
 8162SOL    HW226384   4.877  10.621   4.908
 8163SOL     OW26385  13.149   7.845   2.338
 8163SOL    HW126386  13.128   7.823   2.248
 8163SOL    HW226387  13.231   7.799   2.356
 8164SOL     OW26388  11.314  13.183   4.508
 8164SOL    HW126389  11.293  13.112   4.447
 8164SOL    HW226390  11.369  13.242   4.458
 8165SOL     OW26391   0.155   7.805   5.390
 8165SOL    HW126392   0.214   7.864   5.436
 8165SOL    HW226393   0.102   7.862   5.334
 8166SOL     OW26394   9.421  10.741   9.705
 8166SOL    HW126395   9.407  10.664   9.760
 8166SOL    HW226396   9.385  10.716   9.620
 8167SOL     OW26397   9.051   9.006   8.102
 8167SOL    HW126398   9.094   8.921   8.098
 8167SOL    HW226399   9.059   9.043   8.014
 8168SOL     OW26400   9.298   1.214   0.508
 8168SOL    HW126401   9.285   1.284   0.571
 8168SOL    HW226402   9.281   1.255   0.423
 8169SOL     OW26403   1.829   7.403   5.102
 8169SOL    HW126404   1.841   7.321   5.054
 8169SOL    HW226405   1.820   7.377   5.193
 8170SOL     OW26406   6.282  10.202  13.790
 8170SOL    HW126407   6.236  10.144  13.730
 8170SOL    HW226408   6.219  10.271  13.811
 8171SOL     OW26409   5.999   2.486  11.672
 8171SOL    HW126410   5.946   2.493  11.593
 8171SOL    HW226411   6.010   2.576  11.702
 8172SOL     OW26412  11.209   6.448   3.734
 8172SOL    HW126413  11.259   6.529   3.743
 8172SOL    HW226414  11.270   6.385   3.698
 8173SOL     OW26415   4.174   2.401   6.976
 8173SOL    HW126416   4.111   2.472   6.965
 8173SOL    HW226417   4.197   2.376   6.886
 8174SOL     OW26418  10.771   6.204  13.365
 8174SOL    HW126419  10.799   6.294  13.347
 8174SOL    HW226420  10.842   6.150  13.331
 8175SOL     OW26421   7.004   4.235   3.511
 8175SOL    HW126422   7.044   4.148   3.515
 8175SOL    HW226423   6.913   4.220   3.538
 8176SOL     OW26424   7.188  11.754   3.709
 8176SOL    HW126425   7.207  11.771   3.617
 8176SOL    HW226426   7.271  11.724   3.745
 8177SOL     OW26427   5.737   6.513   3.501
 8177SOL    HW126428   5.748   6.493   3.594
 8177SOL    HW226429   5.650   6.480   3.479
 8178SOL     OW26430   5.743   7.932   5.271
 8178SOL    HW126431   5.734   8.027   5.278
 8178SOL    HW226432   5.654   7.898   5.282
 8179SOL     OW26433   6.668   6.883   1.319
 8179SOL    HW126434   6.581   6.901   1.284
 8179SOL    HW226435   6.700   6.969   1.347
 8180SOL     OW26436   2.185   7.169  14.111
 8180SOL    HW126437   2.240   7.100  14.075
 8180SOL    HW226438   2.244   7.244  14.120
 8181SOL     OW26439   2.533   4.057  11.266
 8181SOL    HW126440   2.452   4.007  11.257
 8181SOL    HW226441   2.598   3.994  11.296
 8182SOL     OW26442  14.000  11.067  11.596
 8182SOL    HW126443  13.945  11.131  11.550
 8182SOL    HW226444  13.979  10.983  11.555
 8183SOL     OW26445  13.389  13.025  11.030
 8183SOL    HW126446  13.479  13.056  11.028
 8183SOL    HW226447  13.338  13.101  11.061
 8184SOL     OW26448   2.141   0.398   0.806
 8184SOL    HW126449   2.083   0.413   0.880
 8184SOL    HW226450   2.168   0.307   0.814
 8185SOL     OW26451   1.224   0.698   1.944
 8185SOL    HW126452   1.282   0.727   1.873
 8185SOL    HW226453   1.141   0.678   1.900
 8186SOL     OW26454   3.068   0.152  10.378
 8186SOL    HW126455   3.110   0.126  10.296
 8186SOL    HW226456   3.086   0.245  10.385
 8187SOL     OW26457   3.111   1.697   8.949
 8187SOL    HW126458   3.192   1.665   8.909
 8187SOL    HW226459   3.141   1.749   9.024
 8188SOL     OW26460   4.840   9.171   1.339
 8188SOL    HW126461   4.905   9.239   1.323
 8188SOL    HW226462   4.866   9.132   1.423
 8189SOL     OW26463  11.817   0.634  13.359
 8189SOL    HW126464  11.907   0.602  13.366
 8189SOL    HW226465  11.805   0.688  13.437
 8190SOL     OW26466   4.878   9.997  11.003
 8190SOL    HW126467   4.935   9.968  11.075
 8190SOL    HW226468   4.841   9.916  10.968
 8191SOL     OW26469   1.032   9.125  13.295
 8191SOL    HW126470   0.992   9.146  13.211
 8191SOL    HW226471   1.111   9.075  13.272
 8192SOL     OW26472   3.529  14.019  10.136
 8192SOL    HW126473   3.463  14.001  10.069
 8192SOL    HW226474   3.490  13.986  10.217
 8193SOL     OW26475  10.210   1.655  13.667
 8193SOL    HW126476  10.232   1.653  13.574
 8193SOL    HW226477  10.242   1.740  13.697
 8194SOL     OW26478  10.743   4.642   2.958
 8194SOL    HW126479  10.656   4.647   2.917
 8194SOL    HW226480  10.783   4.727   2.938
 8195SOL     OW26481  11.359  13.947   5.649
 8195SOL    HW126482  11.306  13.941   5.570
 8195SOL    HW226483  11.296  13.943   5.721
 8196SOL     OW26484   1.870   7.123  11.631
 8196SOL    HW126485   1.931   7.196  11.639
 8196SOL    HW226486   1.899   7.061  11.698
 8197SOL     OW26487   3.946   3.328  12.374
 8197SOL    HW126488   3.958   3.261  12.441
 8197SOL    HW226489   3.921   3.407  12.423
 8198SOL     OW26490   8.241   1.595   4.938
 8198SOL    HW126491   8.166   1.537   4.948
 8198SOL    HW226492   8.315   1.536   4.925
 8199SOL     OW26493  12.579   1.308   6.133
 8199SOL    HW126494  12.497   1.259   6.123
 8199SOL    HW226495  12.637   1.249   6.182
 8200SOL     OW26496   5.304   9.788  14.621
 8200SOL    HW126497   5.264   9.828  14.698
 8200SOL    HW226498   5.326   9.699  14.648
 8201SOL     OW26499  11.087  13.297   8.871
 8201SOL    HW126500  11.158  13.306   8.807
 8201SOL    HW226501  11.053  13.385   8.882
 8202SOL     OW26502   6.742   2.956   5.147
 8202SOL    HW126503   6.743   2.983   5.055
 8202SOL    HW226504   6.652   2.929   5.164
 8203SOL     OW26505  10.574   8.737   5.029
 8203SOL    HW126506  10.618   8.779   5.104
 8203SOL    HW226507  10.587   8.644   5.043
 8204SOL     OW26508   6.698   2.801   9.540
 8204SOL    HW126509   6.624   2.804   9.479
 8204SOL    HW226510   6.677   2.866   9.607
 8205SOL     OW26511   2.421   7.439   3.657
 8205SOL    HW126512   2.509   7.434   3.620
 8205SOL    HW226513   2.393   7.529   3.640
 8206SOL     OW26514   8.297   3.230   0.964
 8206SOL    HW126515   8.320   3.321   0.979
 8206SOL    HW226516   8.217   3.233   0.912
 8207SOL     OW26517   8.841   6.728   8.582
 8207SOL    HW126518   8.887   6.648   8.608
 8207SOL    HW226519   8.911   6.789   8.559
 8208SOL     OW26520   3.319   8.633   4.788
 8208SOL    HW126521   3.236   8.613   4.746
 8208SOL    HW226522   3.372   8.674   4.719
 8209SOL     OW26523   4.344  12.840   5.793
 8209SOL    HW126524   4.274  12.808   5.736
 8209SOL    HW226525   4.354  12.771   5.859
 8210SOL     OW26526   7.430  13.296   5.503
 8210SOL    HW126527   7.389  13.212   5.521
 8210SOL    HW226528   7.427  13.305   5.407
 8211SOL     OW26529  11.420  12.342  12.778
 8211SOL    HW126530  11.513  12.358  12.761
 8211SOL    HW226531  11.420  12.264  12.834
 8212SOL     OW26532   4.066   0.486  10.674
 8212SOL    HW126533   4.073   0.567  10.724
 8212SOL    HW226534   4.146   0.437  10.695
 8213SOL     OW26535   2.119   0.882   5.730
 8213SOL    HW126536   2.101   0.805   5.785
 8213SOL    HW226537   2.038   0.931   5.729
 8214SOL     OW26538   4.143   4.443   9.378
 8214SOL    HW126539   4.159   4.493   9.298
 8214SOL    HW226540   4.223   4.394   9.393
 8215SOL     OW26541  10.594   2.147  14.490
 8215SOL    HW126542  10.655   2.094  14.438
 8215SOL    HW226543  10.650   2.193  14.552
 8216SOL     OW26544  12.533  11.305   3.034
 8216SOL    HW126545  12.588  11.229   3.016
 8216SOL    HW226546  12.452  11.269   3.068
 8217SOL     OW26547  12.637   5.585  10.406
 8217SOL    HW126548  12.701   5.600  10.475
 8217SOL    HW226549  12.560   5.550  10.451
 8218SOL     OW26550   2.851   8.791   3.267
 8218SOL    HW126551   2.880   8.875   3.232
 8218SOL    HW226552   2.930   8.750   3.301
 8219SOL     OW26553   9.496   4.568   9.974
 8219SOL    HW126554   9.557   4.553   9.902
 8219SOL    HW226555   9.436   4.635   9.942
 8220SOL     OW26556  13.037   1.390   9.911
 8220SOL    HW126557  13.086   1.391   9.828
 8220SOL    HW226558  12.969   1.324   9.897
 8221SOL     OW26559   7.178  10.743   7.790
 8221SOL    HW126560   7.188  10.829   7.749
 8221SOL    HW226561   7.215  10.754   7.877
 8222SOL     OW26562   7.766   6.757   7.279
 8222SOL    HW126563   7.684   6.804   7.267
 8222SOL    HW226564   7.830   6.806   7.228
 8223SOL     OW26565  11.180   2.439   9.037
 8223SOL    HW126566  11.110   2.424   8.974
 8223SOL    HW226567  11.191   2.534   9.039
 8224SOL     OW26568   0.431   4.105   8.926
 8224SOL    HW126569   0.390   4.158   8.994
 8224SOL    HW226570   0.396   4.017   8.939
 8225SOL     OW26571   6.925  11.101   5.295
 8225SOL    HW126572   6.847  11.124   5.346
 8225SOL    HW226573   6.976  11.046   5.354
 8226SOL     OW26574  14.311  14.035   5.661
 8226SOL    HW126575  14.353  14.016   5.577
 8226SOL    HW226576  14.243  14.099   5.640
 8227SOL     OW26577   9.817   1.719  14.847
 8227SOL    HW126578   9.805   1.671   0.042
 8227SOL    HW226579   9.749   1.787  14.849
 8228SOL     OW26580  12.463  10.478   2.205
 8228SOL    HW126581  12.513  10.555   2.234
 8228SOL    HW226582  12.389  10.515   2.156
 8229SOL     OW26583   5.625   7.580   1.102
 8229SOL    HW126584   5.607   7.486   1.100
 8229SOL    HW226585   5.656   7.600   1.013
 8230SOL     OW26586   3.589  10.837   3.569
 8230SOL    HW126587   3.556  10.861   3.482
 8230SOL    HW226588   3.660  10.898   3.585
 8231SOL     OW26589   2.225  11.357   2.722
 8231SOL    HW126590   2.195  11.413   2.794
 8231SOL    HW226591   2.194  11.270   2.745
 8232SOL     OW26592   6.657   9.123  13.635
 8232SOL    HW126593   6.672   9.033  13.605
 8232SOL    HW226594   6.696   9.125  13.723
 8233SOL     OW26595  11.776   8.257   5.753
 8233SOL    HW126596  11.776   8.290   5.842
 8233SOL    HW226597  11.825   8.323   5.703
 8234SOL     OW26598   4.684   2.356   9.142
 8234SOL    HW126599   4.589   2.361   9.151
 8234SOL    HW226600   4.714   2.444   9.161
 8235SOL     OW26601   9.532   8.251   1.284
 8235SOL    HW126602   9.522   8.333   1.332
 8235SOL    HW226603   9.609   8.209   1.323
 8236SOL     OW26604  14.845  10.662   7.390
 8236SOL    HW126605  14.849  10.753   7.419
 8236SOL    HW226606  14.819  10.613   7.469
 8237SOL     OW26607   2.178   1.480  10.422
 8237SOL    HW126608   2.231   1.527  10.358
 8237SOL    HW226609   2.193   1.387  10.403
 8238SOL     OW26610   7.741   9.752  10.876
 8238SOL    HW126611   7.707   9.691  10.942
 8238SOL    HW226612   7.732   9.704  10.793
 8239SOL     OW26613   3.425  11.853   1.418
 8239SOL    HW126614   3.331  11.841   1.435
 8239SOL    HW226615   3.434  11.841   1.324
 8240SOL     OW26616   5.629   4.274   7.213
 8240SOL    HW126617   5.706   4.217   7.210
 8240SOL    HW226618   5.652   4.349   7.159
 8241SOL     OW26619  10.985   1.731  13.344
 8241SOL    HW126620  10.980   1.638  13.320
 8241SOL    HW226621  10.899   1.751  13.381
 8242SOL     OW26622  13.137   9.941   4.191
 8242SOL    HW126623  13.105   9.900   4.111
 8242SOL    HW226624  13.220   9.897   4.210
 8243SOL     OW26625  14.571   6.362   7.232
 8243SOL    HW126626  14.531   6.415   7.302
 8243SOL    HW226627  14.653   6.406   7.212
 8244SOL     OW26628   8.897  14.573   7.301
 8244SOL    HW126629   8.924  14.650   7.351
 8244SOL    HW226630   8.805  14.589   7.279
 8245SOL     OW26631   5.950  10.722   8.277
 8245SOL    HW126632   6.037  10.713   8.237
 8245SOL    HW226633   5.967  10.734   8.370
 8246SOL     OW26634   9.736  14.009   1.636
 8246SOL    HW126635   9.735  14.088   1.691
 8246SOL    HW226636   9.744  13.937   1.699
 8247SOL     OW26637  13.747   5.190   7.604
 8247SOL    HW126638  13.753   5.284   7.586
 8247SOL    HW226639  13.812   5.150   7.547
 8248SOL     OW26640  14.761  11.115  11.146
 8248SOL    HW126641  14.786  11.027  11.119
 8248SOL    HW226642  14.769  11.168  11.066
 8249SOL     OW26643  13.869   7.220   3.326
 8249SOL    HW126644  13.815   7.288   3.285
 8249SOL    HW226645  13.957   7.237   3.293
 8250SOL     OW26646   5.252   7.171   0.775
 8250SOL    HW126647   5.294   7.123   0.704
 8250SOL    HW226648   5.324   7.216   0.820
 8251SOL     OW26649   3.826   3.510   1.644
 8251SOL    HW126650   3.807   3.514   1.738
 8251SOL    HW226651   3.906   3.457   1.639
 8252SOL     OW26652   1.631   8.901   6.695
 8252SOL    HW126653   1.559   8.856   6.739
 8252SOL    HW226654   1.668   8.836   6.636
 8253SOL     OW26655   8.222   1.283  14.787
 8253SOL    HW126656   8.238   1.376  14.769
 8253SOL    HW226657   8.271   1.266  14.868
 8254SOL     OW26658  14.483  13.794   8.673
 8254SOL    HW126659  14.545  13.857   8.710
 8254SOL    HW226660  14.417  13.847   8.631
 8255SOL     OW26661  13.907  13.635  12.864
 8255SOL    HW126662  13.968  13.709  12.864
 8255SOL    HW226663  13.962  13.558  12.852
 8256SOL     OW26664   6.778   8.283   1.022
 8256SOL    HW126665   6.759   8.271   1.115
 8256SOL    HW226666   6.693   8.302   0.982
 8257SOL     OW26667   4.161   8.366   7.414
 8257SOL    HW126668   4.161   8.447   7.364
 8257SOL    HW226669   4.233   8.376   7.476
 8258SOL     OW26670  12.734   3.804   9.606
 8258SOL    HW126671  12.669   3.790   9.538
 8258SOL    HW226672  12.799   3.735   9.592
 8259SOL     OW26673   4.080   4.649   9.558
 8259SOL    HW126674   4.106   4.587   9.490
 8259SOL    HW226675   4.068   4.732   9.512
 8260SOL     OW26676   2.056   9.543   6.356
 8260SOL    HW126677   2.018   9.524   6.442
 8260SOL    HW226678   2.141   9.499   6.357
 8261SOL     OW26679   8.908   6.950  11.983
 8261SOL    HW126680   8.823   6.965  12.024
 8261SOL    HW226681   8.921   7.026  11.926
 8262SOL     OW26682   2.331   4.128  12.052
 8262SOL    HW126683   2.333   4.114  11.958
 8262SOL    HW226684   2.413   4.090  12.084
 8263SOL     OW26685  14.567   4.014  13.968
 8263SOL    HW126686  14.648   4.062  13.951
 8263SOL    HW226687  14.596   3.932  14.009
 8264SOL     OW26688   4.661   8.684   2.773
 8264SOL    HW126689   4.643   8.590   2.768
 8264SOL    HW226690   4.634   8.709   2.861
 8265SOL     OW26691  13.705  11.135   2.795
 8265SOL    HW126692  13.622  11.166   2.829
 8265SOL    HW226693  13.739  11.077   2.863
 8266SOL     OW26694   8.176  11.258  11.466
 8266SOL    HW126695   8.139  11.217  11.388
 8266SOL    HW226696   8.250  11.310  11.433
 8267SOL     OW26697  10.182   0.862   8.209
 8267SOL    HW126698  10.266   0.839   8.247
 8267SOL    HW226699  10.126   0.786   8.225
 8268SOL     OW26700   5.714   7.196   5.311
 8268SOL    HW126701   5.786   7.238   5.356
 8268SOL    HW226702   5.737   7.201   5.218
 8269SOL     OW26703  10.094   4.798  14.845
 8269SOL    HW126704  10.187   4.797  14.863
 8269SOL    HW226705  10.084   4.744  14.767
 8270SOL     OW26706  14.865   9.786   5.118
 8270SOL    HW126707  14.873   9.759   5.210
 8270SOL    HW226708   0.029   9.722   5.070
 8271SOL     OW26709  12.742   0.426  10.083
 8271SOL    HW126710  12.661   0.419  10.032
 8271SOL    HW226711  12.752   0.519  10.101
 8272SOL     OW26712   8.333   1.402   6.299
 8272SOL    HW126713   8.299   1.492   6.305
 8272SOL    HW226714   8.418   1.412   6.255
 8273SOL     OW26715   6.352   8.505   3.716
 8273SOL    HW126716   6.305   8.576   3.672
 8273SOL    HW226717   6.284   8.450   3.754
 8274SOL     OW26718  13.053  12.096   0.853
 8274SOL    HW126719  13.021  12.087   0.763
 8274SOL    HW226720  13.081  12.008   0.878
 8275SOL     OW26721   1.059   1.349   8.976
 8275SOL    HW126722   1.106   1.276   8.937
 8275SOL    HW226723   1.009   1.387   8.904
 8276SOL     OW26724  13.384   2.445   8.935
 8276SOL    HW126725  13.374   2.355   8.904
 8276SOL    HW226726  13.478   2.460   8.939
 8277SOL     OW26727  13.599   5.039   0.842
 8277SOL    HW126728  13.622   5.120   0.888
 8277SOL    HW226729  13.624   4.970   0.903
 8278SOL     OW26730   4.867  11.163   6.923
 8278SOL    HW126731   4.810  11.088   6.907
 8278SOL    HW226732   4.931  11.161   6.852
 8279SOL     OW26733   7.011   7.820  10.956
 8279SOL    HW126734   6.963   7.752  10.910
 8279SOL    HW226735   6.952   7.848  11.026
 8280SOL     OW26736   5.409  13.223   0.763
 8280SOL    HW126737   5.474  13.163   0.799
 8280SOL    HW226738   5.459  13.295   0.726
 8281SOL     OW26739   7.156   4.894  13.794
 8281SOL    HW126740   7.132   4.914  13.704
 8281SOL    HW226741   7.171   4.980  13.834
 8282SOL     OW26742   3.617   6.208   7.118
 8282SOL    HW126743   3.607   6.118   7.086
 8282SOL    HW226744   3.652   6.198   7.206
 8283SOL     OW26745  10.994   5.927   5.761
 8283SOL    HW126746  11.088   5.934   5.746
 8283SOL    HW226747  10.965   5.859   5.701
 8284SOL     OW26748   9.855   6.774  13.710
 8284SOL    HW126749   9.795   6.833  13.756
 8284SOL    HW226750   9.858   6.808  13.621
 8285SOL     OW26751   6.633  11.749   6.192
 8285SOL    HW126752   6.718  11.706   6.199
 8285SOL    HW226753   6.648  11.837   6.228
 8286SOL     OW26754   5.108   0.660   8.735
 8286SOL    HW126755   5.092   0.631   8.825
 8286SOL    HW226756   5.025   0.700   8.709
 8287SOL     OW26757  11.309  14.364  10.934
 8287SOL    HW126758  11.227  14.393  10.895
 8287SOL    HW226759  11.353  14.445  10.961
 8288SOL     OW26760   7.563   9.584   8.366
 8288SOL    HW126761   7.530   9.520   8.303
 8288SOL    HW226762   7.547   9.669   8.326
 8289SOL     OW26763   4.178   1.810   2.869
 8289SOL    HW126764   4.186   1.848   2.957
 8289SOL    HW226765   4.144   1.881   2.815
 8290SOL     OW26766   5.513   6.499   5.965
 8290SOL    HW126767   5.458   6.430   5.929
 8290SOL    HW226768   5.490   6.503   6.058
 8291SOL     OW26769  10.704   8.678   1.479
 8291SOL    HW126770  10.643   8.641   1.542
 8291SOL    HW226771  10.756   8.603   1.449
 8292SOL     OW26772   2.287   8.487   5.576
 8292SOL    HW126773   2.323   8.398   5.569
 8292SOL    HW226774   2.213   8.488   5.515
 8293SOL     OW26775   3.713   5.047   6.551
 8293SOL    HW126776   3.636   5.040   6.607
 8293SOL    HW226777   3.710   5.137   6.518
 8294SOL     OW26778   2.433   3.838   4.239
 8294SOL    HW126779   2.435   3.891   4.319
 8294SOL    HW226780   2.375   3.766   4.260
 8295SOL     OW26781   0.881   2.311   6.176
 8295SOL    HW126782   0.816   2.254   6.219
 8295SOL    HW226783   0.942   2.334   6.246
 8296SOL     OW26784  10.557   1.078   7.813
 8296SOL    HW126785  10.614   1.149   7.782
 8296SOL    HW226786  10.471   1.100   7.779
 8297SOL     OW26787  10.908  11.327   2.320
 8297SOL    HW126788  10.944  11.263   2.381
 8297SOL    HW226789  10.817  11.336   2.347
 8298SOL     OW26790   3.616   0.174  14.586
 8298SOL    HW126791   3.563   0.178  14.507
 8298SOL    HW226792   3.595   0.089  14.625
 8299SOL     OW26793  12.980   3.913   6.962
 8299SOL    HW126794  13.006   4.004   6.947
 8299SOL    HW226795  12.979   3.904   7.058
 8300SOL     OW26796   1.469   3.256  12.863
 8300SOL    HW126797   1.491   3.184  12.922
 8300SOL    HW226798   1.387   3.292  12.898
 8301SOL     OW26799   8.706   5.955   1.760
 8301SOL    HW126800   8.656   6.029   1.793
 8301SOL    HW226801   8.660   5.878   1.794
 8302SOL     OW26802   9.904  11.068   4.719
 8302SOL    HW126803   9.897  11.016   4.638
 8302SOL    HW226804   9.861  11.014   4.785
 8303SOL     OW26805  12.339   7.675   2.633
 8303SOL    HW126806  12.383   7.591   2.641
 8303SOL    HW226807  12.270   7.660   2.567
 8304SOL     OW26808   7.402  14.582   4.244
 8304SOL    HW126809   7.449  14.611   4.166
 8304SOL    HW226810   7.324  14.539   4.211
 8305SOL     OW26811  14.751   6.365   6.106
 8305SOL    HW126812  14.666   6.395   6.137
 8305SOL    HW226813  14.773   6.425   6.034
 8306SOL     OW26814   1.702   2.956   4.718
 8306SOL    HW126815   1.697   3.036   4.666
 8306SOL    HW226816   1.790   2.956   4.754
 8307SOL     OW26817   0.416  12.185   7.633
 8307SOL    HW126818   0.418  12.144   7.720
 8307SOL    HW226819   0.327  12.218   7.624
 8308SOL     OW26820  10.565  10.810   8.638
 8308SOL    HW126821  10.581  10.899   8.670
 8308SOL    HW226822  10.651  10.780   8.608
 8309SOL     OW26823   1.431  14.523  11.679
 8309SOL    HW126824   1.525  14.536  11.667
 8309SOL    HW226825   1.390  14.591  11.625
 8310SOL     OW26826   6.289  13.958  11.725
 8310SOL    HW126827   6.302  14.046  11.759
 8310SOL    HW226828   6.336  13.902  11.787
 8311SOL     OW26829   0.138  12.738  14.818
 8311SOL    HW126830   0.073  12.808  14.822
 8311SOL    HW226831   0.094  12.667  14.771
 8312SOL     OW26832   3.836  14.724  10.616
 8312SOL    HW126833   3.883  14.799  10.652
 8312SOL    HW226834   3.833  14.741  10.522
 8313SOL     OW26835   6.661  12.584   9.404
 8313SOL    HW126836   6.587  12.568   9.345
 8313SOL    HW226837   6.735  12.539   9.362
 8314SOL     OW26838  13.852   2.777   8.820
 8314SOL    HW126839  13.908   2.799   8.746
 8314SOL    HW226840  13.891   2.823   8.894
 8315SOL     OW26841   0.557   7.299  10.465
 8315SOL    HW126842   0.601   7.228  10.419
 8315SOL    HW226843   0.464   7.274  10.464
 8316SOL     OW26844   3.214   2.350  10.506
 8316SOL    HW126845   3.175   2.294  10.439
 8316SOL    HW226846   3.143   2.407  10.534
 8317SOL     OW26847   9.592   9.510   4.138
 8317SOL    HW126848   9.528   9.481   4.204
 8317SOL    HW226849   9.555   9.592   4.104
 8318SOL     OW26850   5.712   3.592  13.105
 8318SOL    HW126851   5.681   3.681  13.088
 8318SOL    HW226852   5.660   3.563  13.180
 8319SOL     OW26853  13.207  14.084  13.358
 8319SOL    HW126854  13.111  14.078  13.356
 8319SOL    HW226855  13.229  14.090  13.451
 8320SOL     OW26856  14.198  11.785   4.200
 8320SOL    HW126857  14.174  11.859   4.144
 8320SOL    HW226858  14.200  11.822   4.288
 8321SOL     OW26859  13.872   3.662  13.413
 8321SOL    HW126860  13.845   3.713  13.490
 8321SOL    HW226861  13.968   3.671  13.411
 8322SOL     OW26862   4.135   5.842   4.454
 8322SOL    HW126863   4.136   5.793   4.537
 8322SOL    HW226864   4.189   5.919   4.471
 8323SOL     OW26865   4.718   0.012   0.084
 8323SOL    HW126866   4.714  14.879  14.878
 8323SOL    HW226867   4.655  14.840   0.124
 8324SOL     OW26868   8.420   1.321   2.837
 8324SOL    HW126869   8.450   1.244   2.885
 8324SOL    HW226870   8.370   1.286   2.763
 8325SOL     OW26871  10.630   5.992  13.507
 8325SOL    HW126872  10.666   6.069  13.463
 8325SOL    HW226873  10.705   5.954  13.553
 8326SOL     OW26874  13.409   6.839   6.418
 8326SOL    HW126875  13.391   6.909   6.355
 8326SOL    HW226876  13.504   6.828   6.415
 8327SOL     OW26877   9.814   9.036  11.556
 8327SOL    HW126878   9.726   9.063  11.529
 8327SOL    HW226879   9.806   8.941  11.569
 8328SOL     OW26880  13.564   5.895  11.525
 8328SOL    HW126881  13.471   5.877  11.539
 8328SOL    HW226882  13.573   5.988  11.545
 8329SOL     OW26883   8.894   8.897   1.484
 8329SOL    HW126884   8.856   8.948   1.555
 8329SOL    HW226885   8.923   8.963   1.420
 8330SOL     OW26886   5.345   3.139  10.571
 8330SOL    HW126887   5.357   3.051  10.607
 8330SOL    HW226888   5.258   3.165  10.601
 8331SOL     OW26889  12.555   8.197  11.156
 8331SOL    HW126890  12.480   8.141  11.175
 8331SOL    HW226891  12.529   8.245  11.077
 8332SOL     OW26892   6.158   5.551   7.064
 8332SOL    HW126893   6.160   5.600   6.982
 8332SOL    HW226894   6.131   5.615   7.130
 8333SOL     OW26895   7.957  14.471   9.790
 8333SOL    HW126896   8.008  14.413   9.733
 8333SOL    HW226897   7.891  14.414   9.830
 8334SOL     OW26898   9.420   2.290   5.902
 8334SOL    HW126899   9.336   2.324   5.871
 8334SOL    HW226900   9.480   2.364   5.891
 8335SOL     OW26901   8.102   4.219  14.093
 8335SOL    HW126902   8.051   4.220  14.012
 8335SOL    HW226903   8.171   4.283  14.078
 8336SOL     OW26904   2.014   0.522   3.703
 8336SOL    HW126905   1.936   0.539   3.650
 8336SOL    HW226906   2.017   0.595   3.765
 8337SOL     OW26907   3.716  14.432   3.828
 8337SOL    HW126908   3.769  14.364   3.787
 8337SOL    HW226909   3.776  14.506   3.840
 8338SOL     OW26910   0.447   3.217   7.167
 8338SOL    HW126911   0.428   3.135   7.213
 8338SOL    HW226912   0.499   3.268   7.229
 8339SOL     OW26913   5.425  12.949   5.937
 8339SOL    HW126914   5.453  13.040   5.925
 8339SOL    HW226915   5.456  12.905   5.858
 8340SOL     OW26916   4.046   9.523   8.977
 8340SOL    HW126917   4.099   9.603   8.979
 8340SOL    HW226918   3.983   9.538   8.906
 8341SOL     OW26919   2.487  13.168   2.767
 8341SOL    HW126920   2.578  13.194   2.786
 8341SOL    HW226921   2.437  13.201   2.842
 8342SOL     OW26922   8.364  13.757   5.788
 8342SOL    HW126923   8.448  13.764   5.834
 8342SOL    HW226924   8.354  13.664   5.769
 8343SOL     OW26925   2.898   1.121   9.741
 8343SOL    HW126926   2.970   1.135   9.680
 8343SOL    HW226927   2.912   1.033   9.775
 8344SOL     OW26928  10.740   7.238   0.541
 8344SOL    HW126929  10.679   7.217   0.470
 8344SOL    HW226930  10.795   7.161   0.549
 8345SOL     OW26931  10.355  10.698  11.378
 8345SOL    HW126932  10.306  10.657  11.308
 8345SOL    HW226933  10.425  10.747  11.334
 8346SOL     OW26934   0.698  11.045  11.445
 8346SOL    HW126935   0.668  11.124  11.490
 8346SOL    HW226936   0.738  10.992  11.514
 8347SOL     OW26937   5.126  12.910   7.618
 8347SOL    HW126938   5.036  12.934   7.641
 8347SOL    HW226939   5.138  12.823   7.655
 8348SOL     OW26940  12.106   1.622   5.009
 8348SOL    HW126941  12.174   1.679   4.971
 8348SOL    HW226942  12.113   1.637   5.103
 8349SOL     OW26943  11.167   0.190   9.220
 8349SOL    HW126944  11.149   0.186   9.314
 8349SOL    HW226945  11.169   0.284   9.200
 8350SOL     OW26946   3.727   2.852   9.893
 8350SOL    HW126947   3.685   2.826   9.811
 8350SOL    HW226948   3.746   2.769   9.937
 8351SOL     OW26949   1.358   8.669  10.841
 8351SOL    HW126950   1.308   8.656  10.761
 8351SOL    HW226951   1.298   8.713  10.901
 8352SOL     OW26952   2.301   2.574   2.408
 8352SOL    HW126953   2.288   2.564   2.502
 8352SOL    HW226954   2.287   2.667   2.391
 8353SOL     OW26955   1.096  13.392   0.830
 8353SOL    HW126956   1.031  13.457   0.803
 8353SOL    HW226957   1.048  13.331   0.885
 8354SOL     OW26958  13.778   6.249   8.450
 8354SOL    HW126959  13.874   6.250   8.440
 8354SOL    HW226960  13.758   6.332   8.494
 8355SOL     OW26961   4.788   1.546   2.511
 8355SOL    HW126962   4.815   1.475   2.453
 8355SOL    HW226963   4.841   1.534   2.590
 8356SOL     OW26964   1.168   2.453  10.450
 8356SOL    HW126965   1.247   2.424  10.496
 8356SOL    HW226966   1.111   2.376  10.451
 8357SOL     OW26967  11.015   2.604  11.414
 8357SOL    HW126968  11.018   2.581  11.321
 8357SOL    HW226969  10.977   2.526  11.457
 8358SOL     OW26970   4.794   9.813   5.987
 8358SOL    HW126971   4.743   9.768   6.054
 8358SOL    HW226972   4.737   9.885   5.958
 8359SOL     OW26973   2.166   3.910   8.333
 8359SOL    HW126974   2.202   3.921   8.421
 8359SOL    HW226975   2.094   3.972   8.328
 8360SOL     OW26976  11.553   0.833  10.271
 8360SOL    HW126977  11.521   0.866  10.354
 8360SOL    HW226978  11.507   0.750  10.258
 8361SOL     OW26979   6.070  11.322  12.016
 8361SOL    HW126980   6.158  11.284  12.020
 8361SOL    HW226981   6.047  11.338  12.107
 8362SOL     OW26982   5.080   7.364  11.461
 8362SOL    HW126983   5.060   7.272  11.448
 8362SOL    HW226984   4.995   7.405  11.476
 8363SOL     OW26985   1.409   0.322   3.361
 8363SOL    HW126986   1.405   0.370   3.278
 8363SOL    HW226987   1.388   0.231   3.337
 8364SOL     OW26988   9.144   5.206   0.978
 8364SOL    HW126989   9.134   5.245   1.064
 8364SOL    HW226990   9.232   5.167   0.979
 8365SOL     OW26991   0.691   2.660  12.664
 8365SOL    HW126992   0.695   2.574  12.707
 8365SOL    HW226993   0.598   2.672  12.645
 8366SOL     OW26994   3.187   5.136  10.788
 8366SOL    HW126995   3.124   5.172  10.726
 8366SOL    HW226996   3.251   5.090  10.733
 8367SOL     OW26997   0.118   9.274   6.486
 8367SOL    HW126998   0.200   9.242   6.448
 8367SOL    HW226999   0.107   9.362   6.450
 8368SOL     OW27000   6.551   0.271   2.838
 8368SOL    HW127001   6.589   0.210   2.775
 8368SOL    HW227002   6.457   0.262   2.826
 8369SOL     OW27003   7.414   0.173  12.269
 8369SOL    HW127004   7.395   0.160  12.362
 8369SOL    HW227005   7.330   0.192  12.229
 8370SOL     OW27006   6.933  10.534   2.215
 8370SOL    HW127007   6.986  10.604   2.254
 8370SOL    HW227008   6.877  10.505   2.286
 8371SOL     OW27009   4.124   6.721   1.498
 8371SOL    HW127010   4.145   6.632   1.469
 8371SOL    HW227011   4.204   6.751   1.541
 8372SOL     OW27012   3.783  12.763   3.625
 8372SOL    HW127013   3.786  12.784   3.531
 8372SOL    HW227014   3.843  12.826   3.665
 8373SOL     OW27015   7.811   1.309   8.282
 8373SOL    HW127016   7.747   1.326   8.213
 8373SOL    HW227017   7.858   1.392   8.294
 8374SOL     OW27018   8.148  10.903   8.497
 8374SOL    HW127019   8.072  10.919   8.553
 8374SOL    HW227020   8.113  10.854   8.422
 8375SOL     OW27021   8.493   6.505   5.915
 8375SOL    HW127022   8.446   6.568   5.860
 8375SOL    HW227023   8.428   6.475   5.978
 8376SOL     OW27024   5.721  13.189  11.817
 8376SOL    HW127025   5.626  13.177  11.812
 8376SOL    HW227026   5.752  13.158  11.732
 8377SOL     OW27027  12.090   9.915   3.642
 8377SOL    HW127028  12.078   9.876   3.556
 8377SOL    HW227029  12.184   9.908   3.659
 8378SOL     OW27030  10.072   2.411   5.645
 8378SOL    HW127031  10.092   2.498   5.612
 8378SOL    HW227032  10.045   2.361   5.568
 8379SOL     OW27033  13.731  11.811   0.122
 8379SOL    HW127034  13.648  11.841   0.158
 8379SOL    HW227035  13.714  11.801   0.028
 8380SOL     OW27036   2.050   0.195   1.728
 8380SOL    HW127037   2.107   0.268   1.751
 8380SOL    HW227038   2.109   0.122   1.709
 8381SOL     OW27039   3.657   8.378   6.175
 8381SOL    HW127040   3.680   8.285   6.175
 8381SOL    HW227041   3.717   8.418   6.112
 8382SOL     OW27042   3.103   6.968   3.460
 8382SOL    HW127043   3.109   6.873   3.470
 8382SOL    HW227044   3.022   6.983   3.412
 8383SOL     OW27045   5.418  10.785   3.774
 8383SOL    HW127046   5.354  10.717   3.752
 8383SOL    HW227047   5.434  10.830   3.692
 8384SOL     OW27048   2.166   4.150   0.774
 8384SOL    HW127049   2.075   4.143   0.744
 8384SOL    HW227050   2.214   4.086   0.721
 8385SOL     OW27051  14.664   8.945  13.919
 8385SOL    HW127052  14.600   8.984  13.859
 8385SOL    HW227053  14.666   8.853  13.895
 8386SOL     OW27054  13.049   9.789   9.934
 8386SOL    HW127055  13.098   9.788   9.852
 8386SOL    HW227056  13.056   9.700   9.968
 8387SOL     OW27057  11.327   2.925  12.684
 8387SOL    HW127058  11.393   2.880  12.631
 8387SOL    HW227059  11.365   3.011  12.702
 8388SOL     OW27060   1.265  13.574   1.554
 8388SOL    HW127061   1.252  13.481   1.568
 8388SOL    HW227062   1.176  13.611   1.554
 8389SOL     OW27063  14.518  13.033  13.131
 8389SOL    HW127064  14.487  13.052  13.219
 8389SOL    HW227065  14.544  13.118  13.095
 8390SOL     OW27066  11.084   7.064   9.674
 8390SOL    HW127067  11.047   7.147   9.704
 8390SOL    HW227068  11.174   7.066   9.707
 8391SOL     OW27069  10.723  11.588   7.922
 8391SOL    HW127070  10.689  11.568   8.009
 8391SOL    HW227071  10.803  11.639   7.938
 8392SOL     OW27072   9.185  13.207   5.282
 8392SOL    HW127073   9.248  13.178   5.348
 8392SOL    HW227074   9.217  13.169   5.200
 8393SOL     OW27075   0.996   3.759   6.287
 8393SOL    HW127076   1.065   3.697   6.309
 8393SOL    HW227077   0.947   3.771   6.368
 8394SOL     OW27078   7.159   8.615   4.545
 8394SOL    HW127079   7.142   8.666   4.624
 8394SOL    HW227080   7.073   8.583   4.518
 8395SOL     OW27081   8.336  12.958  11.012
 8395SOL    HW127082   8.252  12.916  11.026
 8395SOL    HW227083   8.346  13.018  11.086
 8396SOL     OW27084   8.487   3.746   4.912
 8396SOL    HW127085   8.504   3.680   4.844
 8396SOL    HW227086   8.486   3.829   4.864
 8397SOL     OW27087   0.798   1.704  10.540
 8397SOL    HW127088   0.788   1.795  10.567
 8397SOL    HW227089   0.796   1.707  10.444
 8398SOL     OW27090   3.884   8.028   9.849
 8398SOL    HW127091   3.940   7.982   9.786
 8398SOL    HW227092   3.917   8.001   9.934
 8399SOL     OW27093   9.820  13.436   7.862
 8399SOL    HW127094   9.842  13.428   7.955
 8399SOL    HW227095   9.877  13.372   7.818
 8400SOL     OW27096   1.924  12.060   5.320
 8400SOL    HW127097   2.005  12.009   5.328
 8400SOL    HW227098   1.953  12.150   5.303
 8401SOL     OW27099   5.686   7.050   4.185
 8401SOL    HW127100   5.633   6.972   4.171
 8401SOL    HW227101   5.731   7.033   4.268
 8402SOL     OW27102   2.095   5.765  12.775
 8402SOL    HW127103   2.121   5.837  12.718
 8402SOL    HW227104   2.129   5.788  12.861
 8403SOL     OW27105   4.795   8.994   1.131
 8403SOL    HW127106   4.829   9.055   1.196
 8403SOL    HW227107   4.714   9.034   1.100
 8404SOL     OW27108   2.126  13.791  10.524
 8404SOL    HW127109   2.060  13.746  10.577
 8404SOL    HW227110   2.209  13.753  10.553
 8405SOL     OW27111   9.030  12.565   7.284
 8405SOL    HW127112   9.060  12.654   7.267
 8405SOL    HW227113   9.056  12.515   7.206
 8406SOL     OW27114   7.174   6.859   1.221
 8406SOL    HW127115   7.262   6.888   1.196
 8406SOL    HW227116   7.182   6.836   1.313
 8407SOL     OW27117   6.847   4.290   2.740
 8407SOL    HW127118   6.753   4.294   2.754
 8407SOL    HW227119   6.883   4.265   2.825
 8408SOL     OW27120   0.891  14.018  11.589
 8408SOL    HW127121   0.802  13.988  11.606
 8408SOL    HW227122   0.925  13.957  11.523
 8409SOL     OW27123   0.299   1.050   2.493
 8409SOL    HW127124   0.264   1.120   2.548
 8409SOL    HW227125   0.223   1.001   2.463
 8410SOL     OW27126  10.642  11.492   6.088
 8410SOL    HW127127  10.636  11.404   6.051
 8410SOL    HW227128  10.576  11.542   6.039
 8411SOL     OW27129  12.531   7.983   5.651
 8411SOL    HW127130  12.484   8.060   5.682
 8411SOL    HW227131  12.481   7.908   5.685
 8412SOL     OW27132   1.250  10.593   3.124
 8412SOL    HW127133   1.156  10.583   3.132
 8412SOL    HW227134   1.265  10.613   3.032
 8413SOL     OW27135   2.179  11.795   7.402
 8413SOL    HW127136   2.096  11.827   7.366
 8413SOL    HW227137   2.156  11.762   7.489
 8414SOL     OW27138   0.895   0.220  11.993
 8414SOL    HW127139   0.952   0.264  12.056
 8414SOL    HW227140   0.956   0.171  11.937
 8415SOL     OW27141   7.989   3.525   2.197
 8415SOL    HW127142   8.004   3.618   2.212
 8415SOL    HW227143   7.897   3.511   2.222
 8416SOL     OW27144   7.708   1.475  14.545
 8416SOL    HW127145   7.669   1.502  14.628
 8416SOL    HW227146   7.788   1.429  14.569
 8417SOL     OW27147   3.206   1.684   5.884
 8417SOL    HW127148   3.299   1.681   5.861
 8417SOL    HW227149   3.161   1.695   5.800
 8418SOL     OW27150   7.281   0.942   0.679
 8418SOL    HW127151   7.285   0.938   0.774
 8418SOL    HW227152   7.334   0.868   0.649
 8419SOL     OW27153  12.838   0.718   7.171
 8419SOL    HW127154  12.865   0.626   7.169
 8419SOL    HW227155  12.742   0.714   7.168
 8420SOL     OW27156  13.843   4.027   8.891
 8420SOL    HW127157  13.749   4.042   8.898
 8420SOL    HW227158  13.857   4.000   8.801
 8421SOL     OW27159  14.859  13.656   8.092
 8421SOL    HW127160  14.816  13.708   8.160
 8421SOL    HW227161   0.010  13.582   8.139
 8422SOL     OW27162   5.150  10.655  12.177
 8422SOL    HW127163   5.196  10.593  12.121
 8422SOL    HW227164   5.103  10.601  12.240
 8423SOL     OW27165  13.670   0.368   6.271
 8423SOL    HW127166  13.765   0.375   6.263
 8423SOL    HW227167  13.652   0.274   6.274
 8424SOL     OW27168   2.560   3.570   0.086
 8424SOL    HW127169   2.530   3.481   0.068
 8424SOL    HW227170   2.480   3.620   0.103
 8425SOL     OW27171   8.469  10.538   1.881
 8425SOL    HW127172   8.494  10.567   1.793
 8425SOL    HW227173   8.528  10.464   1.899
 8426SOL     OW27174   1.758   1.432  11.304
 8426SOL    HW127175   1.676   1.397  11.338
 8426SOL    HW227176   1.787   1.366  11.240
 8427SOL     OW27177   9.800   1.733   7.338
 8427SOL    HW127178   9.739   1.753   7.409
 8427SOL    HW227179   9.770   1.648   7.305
 8428SOL     OW27180   9.027   6.496   0.302
 8428SOL    HW127181   8.958   6.473   0.365
 8428SOL    HW227182   9.026   6.425   0.238
 8429SOL     OW27183   8.057   2.461   1.646
 8429SOL    HW127184   8.044   2.489   1.555
 8429SOL    HW227185   8.029   2.370   1.647
 8430SOL     OW27186   7.400   7.647   0.805
 8430SOL    HW127187   7.392   7.722   0.745
 8430SOL    HW227188   7.468   7.593   0.766
 8431SOL     OW27189  11.809  14.012   6.715
 8431SOL    HW127190  11.856  14.092   6.691
 8431SOL    HW227191  11.862  13.973   6.785
 8432SOL     OW27192  13.788   0.643  10.640
 8432SOL    HW127193  13.837   0.700  10.580
 8432SOL    HW227194  13.756   0.703  10.707
 8433SOL     OW27195   2.076  12.119   4.941
 8433SOL    HW127196   1.985  12.120   4.970
 8433SOL    HW227197   2.122  12.172   5.006
 8434SOL     OW27198  11.566   5.637  13.234
 8434SOL    HW127199  11.606   5.613  13.151
 8434SOL    HW227200  11.491   5.578  13.242
 8435SOL     OW27201   5.210   1.035  11.200
 8435SOL    HW127202   5.209   1.014  11.293
 8435SOL    HW227203   5.243   1.125  11.195
 8436SOL     OW27204   7.501  13.070   3.535
 8436SOL    HW127205   7.524  12.979   3.552
 8436SOL    HW227206   7.526  13.117   3.615
 8437SOL     OW27207  11.836   4.676   1.859
 8437SOL    HW127208  11.869   4.592   1.828
 8437SOL    HW227209  11.770   4.701   1.794
 8438SOL     OW27210   7.491   2.759  13.633
 8438SOL    HW127211   7.500   2.782  13.540
 8438SOL    HW227212   7.517   2.839  13.680
 8439SOL     OW27213   5.453   2.115  12.297
 8439SOL    HW127214   5.540   2.150  12.274
 8439SOL    HW227215   5.393   2.188  12.283
 8440SOL     OW27216   5.712   7.354   4.680
 8440SOL    HW127217   5.699   7.436   4.727
 8440SOL    HW227218   5.727   7.380   4.589
 8441SOL     OW27219  14.431  13.853   5.882
 8441SOL    HW127220  14.405  13.906   5.807
 8441SOL    HW227221  14.503  13.901   5.922
 8442SOL     OW27222   5.231   8.407  12.811
 8442SOL    HW127223   5.166   8.337  12.809
 8442SOL    HW227224   5.291   8.383  12.882
 8443SOL     OW27225   0.236   3.321   0.038
 8443SOL    HW127226   0.225   3.394   0.098
 8443SOL    HW227227   0.277   3.252   0.090
 8444SOL     OW27228   0.845   6.298   0.073
 8444SOL    HW127229   0.909   6.245   0.025
 8444SOL    HW227230   0.877   6.388   0.065
 8445SOL     OW27231   6.202   1.761   7.369
 8445SOL    HW127232   6.222   1.815   7.292
 8445SOL    HW227233   6.234   1.812   7.443
 8446SOL     OW27234   3.476   8.368  11.512
 8446SOL    HW127235   3.543   8.363  11.443
 8446SOL    HW227236   3.452   8.460  11.515
 8447SOL     OW27237  14.039  12.815   8.833
 8447SOL    HW127238  13.966  12.874   8.816
 8447SOL    HW227239  14.033  12.748   8.765
 8448SOL     OW27240   6.775  11.044  10.922
 8448SOL    HW127241   6.776  11.135  10.953
 8448SOL    HW227242   6.810  11.048  10.833
 8449SOL     OW27243   6.404  12.144   4.686
 8449SOL    HW127244   6.455  12.099   4.753
 8449SOL    HW227245   6.344  12.200   4.735
 8450SOL     OW27246  12.531   9.655   3.462
 8450SOL    HW127247  12.464   9.719   3.436
 8450SOL    HW227248  12.605   9.709   3.489
 8451SOL     OW27249   5.246   6.426  11.998
 8451SOL    HW127250   5.285   6.341  12.020
 8451SOL    HW227251   5.320   6.479  11.969
 8452SOL     OW27252   3.959   2.127  13.424
 8452SOL    HW127253   3.897   2.174  13.480
 8452SOL    HW227254   4.024   2.193  13.400
 8453SOL     OW27255  14.568  13.738   6.225
 8453SOL    HW127256  14.519  13.663   6.191
 8453SOL    HW227257  14.619  13.702   6.298
 8454SOL     OW27258  11.682   7.365   8.453
 8454SOL    HW127259  11.754   7.336   8.396
 8454SOL    HW227260  11.718   7.440   8.501
 8455SOL     OW27261   7.874   3.561  10.448
 8455SOL    HW127262   7.804   3.626  10.445
 8455SOL    HW227263   7.851   3.505  10.522
 8456SOL     OW27264   3.788   8.221   9.261
 8456SOL    HW127265   3.749   8.137   9.236
 8456SOL    HW227266   3.882   8.202   9.268
 8457SOL     OW27267   8.554   0.848   3.606
 8457SOL    HW127268   8.609   0.833   3.530
 8457SOL    HW227269   8.479   0.896   3.572
 8458SOL     OW27270  14.784   6.013   5.008
 8458SOL    HW127271  14.748   6.088   4.960
 8458SOL    HW227272  14.758   5.937   4.957
 8459SOL     OW27273   6.102  10.035   3.458
 8459SOL    HW127274   6.175  10.097   3.451
 8459SOL    HW227275   6.093   9.998   3.370
 8460SOL     OW27276   0.337   9.744  13.508
 8460SOL    HW127277   0.358   9.814  13.446
 8460SOL    HW227278   0.307   9.791  13.586
 8461SOL     OW27279   8.148   7.651  12.169
 8461SOL    HW127280   8.115   7.628  12.255
 8461SOL    HW227281   8.184   7.739  12.179
 8462SOL     OW27282   6.530   2.387   8.346
 8462SOL    HW127283   6.587   2.440   8.402
 8462SOL    HW227284   6.441   2.415   8.370
 8463SOL     OW27285   9.515  13.336   7.340
 8463SOL    HW127286   9.432  13.384   7.341
 8463SOL    HW227287   9.548  13.343   7.430
 8464SOL     OW27288  13.943   1.735   7.734
 8464SOL    HW127289  13.853   1.734   7.765
 8464SOL    HW227290  13.980   1.816   7.769
 8465SOL     OW27291   0.429   1.498   8.865
 8465SOL    HW127292   0.506   1.461   8.908
 8465SOL    HW227293   0.360   1.433   8.880
 8466SOL     OW27294   3.422  12.219   7.017
 8466SOL    HW127295   3.397  12.223   7.109
 8466SOL    HW227296   3.513  12.190   7.018
 8467SOL     OW27297   1.906  13.945   6.775
 8467SOL    HW127298   1.979  13.896   6.737
 8467SOL    HW227299   1.927  14.037   6.758
 8468SOL     OW27300   0.595   1.644   5.393
 8468SOL    HW127301   0.562   1.554   5.394
 8468SOL    HW227302   0.661   1.646   5.462
 8469SOL     OW27303  14.798   8.615   8.283
 8469SOL    HW127304  14.734   8.663   8.230
 8469SOL    HW227305  14.814   8.534   8.234
 8470SOL     OW27306  10.508  10.078   3.442
 8470SOL    HW127307  10.545  10.142   3.381
 8470SOL    HW227308  10.425  10.115   3.470
 8471SOL     OW27309  10.753   1.499   5.031
 8471SOL    HW127310  10.811   1.426   5.006
 8471SOL    HW227311  10.667   1.459   5.041
 8472SOL     OW27312   6.612   5.117  13.038
 8472SOL    HW127313   6.563   5.181  12.986
 8472SOL    HW227314   6.639   5.051  12.974
 8473SOL     OW27315  10.512   4.214   3.116
 8473SOL    HW127316  10.564   4.254   3.046
 8473SOL    HW227317  10.455   4.152   3.070
 8474SOL     OW27318   7.310  12.780   4.440
 8474SOL    HW127319   7.300  12.843   4.511
 8474SOL    HW227320   7.229  12.787   4.390
 8475SOL     OW27321  13.141   6.205  14.184
 8475SOL    HW127322  13.184   6.144  14.244
 8475SOL    HW227323  13.208   6.227  14.120
 8476SOL     OW27324  12.061   4.618   8.954
 8476SOL    HW127325  12.128   4.594   8.891
 8476SOL    HW227326  12.081   4.709   8.977
 8477SOL     OW27327   1.872  13.319   4.583
 8477SOL    HW127328   1.837  13.245   4.533
 8477SOL    HW227329   1.800  13.382   4.588
 8478SOL     OW27330   4.185  10.901   4.928
 8478SOL    HW127331   4.256  10.847   4.964
 8478SOL    HW227332   4.192  10.983   4.976
 8479SOL     OW27333   7.675  11.974   9.269
 8479SOL    HW127334   7.652  12.000   9.180
 8479SOL    HW227335   7.609  12.016   9.324
 8480SOL     OW27336  14.488  14.225   3.761
 8480SOL    HW127337  14.543  14.302   3.777
 8480SOL    HW227338  14.465  14.231   3.668
 8481SOL     OW27339  13.637   6.430   8.823
 8481SOL    HW127340  13.633   6.425   8.918
 8481SOL    HW227341  13.649   6.523   8.803
 8482SOL     OW27342   2.285   3.279   3.042
 8482SOL    HW127343   2.283   3.373   3.026
 8482SOL    HW227344   2.260   3.270   3.134
 8483SOL     OW27345   0.327   8.251  12.267
 8483SOL    HW127346   0.395   8.317  12.279
 8483SOL    HW227347   0.373   8.175  12.231
 8484SOL     OW27348   1.339   0.356  11.293
 8484SOL    HW127349   1.253   0.317  11.308
 8484SOL    HW227350   1.401   0.283  11.304
 8485SOL     OW27351   7.394   1.317   6.324
 8485SOL    HW127352   7.381   1.262   6.247
 8485SOL    HW227353   7.308   1.319   6.367
 8486SOL     OW27354   7.021  11.504   8.915
 8486SOL    HW127355   7.024  11.502   9.011
 8486SOL    HW227356   6.991  11.593   8.895
 8487SOL     OW27357   7.587   2.710   6.516
 8487SOL    HW127358   7.621   2.743   6.599
 8487SOL    HW227359   7.648   2.742   6.450
 8488SOL     OW27360   8.275   2.996   4.907
 8488SOL    HW127361   8.216   2.984   4.832
 8488SOL    HW227362   8.240   2.938   4.974
 8489SOL     OW27363   6.648   8.746   6.144
 8489SOL    HW127364   6.722   8.688   6.127
 8489SOL    HW227365   6.663   8.821   6.087
 8490SOL     OW27366   2.491   2.174   6.629
 8490SOL    HW127367   2.452   2.261   6.625
 8490SOL    HW227368   2.416   2.114   6.628
 8491SOL     OW27369  13.361   1.876   2.076
 8491SOL    HW127370  13.285   1.913   2.032
 8491SOL    HW227371  13.356   1.782   2.058
 8492SOL     OW27372  13.085  10.057   5.784
 8492SOL    HW127373  13.015  10.067   5.720
 8492SOL    HW227374  13.040  10.044   5.867
 8493SOL     OW27375   4.138   2.806  14.825
 8493SOL    HW127376   4.187   2.765  14.753
 8493SOL    HW227377   4.205   2.838  14.885
 8494SOL     OW27378   5.791   7.123   7.092
 8494SOL    HW127379   5.710   7.101   7.138
 8494SOL    HW227380   5.799   7.218   7.102
 8495SOL     OW27381  12.800  14.521   2.963
 8495SOL    HW127382  12.768  14.465   3.033
 8495SOL    HW227383  12.848  14.591   3.008
 8496SOL     OW27384  10.042   3.399  11.998
 8496SOL    HW127385   9.966   3.355  11.959
 8496SOL    HW227386  10.035   3.381  12.091
 8497SOL     OW27387  11.640   2.454   9.521
 8497SOL    HW127388  11.688   2.427   9.599
 8497SOL    HW227389  11.613   2.544   9.539
 8498SOL     OW27390  13.558   6.474  11.361
 8498SOL    HW127391  13.503   6.407  11.402
 8498SOL    HW227392  13.611   6.425  11.298
 8499SOL     OW27393   1.461   0.995   7.610
 8499SOL    HW127394   1.370   0.991   7.581
 8499SOL    HW227395   1.512   0.980   7.531
 8500SOL     OW27396   6.334   4.767  10.043
 8500SOL    HW127397   6.380   4.847  10.018
 8500SOL    HW227398   6.375   4.698   9.992
 8501SOL     OW27399  11.446   0.457   6.137
 8501SOL    HW127400  11.417   0.537   6.180
 8501SOL    HW227401  11.381   0.391   6.161
 8502SOL     OW27402   3.972  11.674   0.174
 8502SOL    HW127403   3.917  11.725   0.115
 8502SOL    HW227404   4.039  11.736   0.204
 8503SOL     OW27405   9.708   9.824   1.408
 8503SOL    HW127406   9.625   9.871   1.412
 8503SOL    HW227407   9.698   9.765   1.333
 8504SOL     OW27408  10.688  14.588   5.115
 8504SOL    HW127409  10.595  14.578   5.095
 8504SOL    HW227410  10.732  14.578   5.030
 8505SOL     OW27411  11.405  13.052  12.152
 8505SOL    HW127412  11.422  12.960  12.129
 8505SOL    HW227413  11.310  13.056  12.165
 8506SOL     OW27414  10.354   7.598   3.612
 8506SOL    HW127415  10.423   7.533   3.598
 8506SOL    HW227416  10.399   7.683   3.604
 8507SOL     OW27417  12.917   3.835  13.805
 8507SOL    HW127418  12.969   3.912  13.784
 8507SOL    HW227419  12.943   3.812  13.895
 8508SOL     OW27420   5.877  12.952  13.757
 8508SOL    HW127421   5.946  12.894  13.724
 8508SOL    HW227422   5.863  13.015  13.686
 8509SOL     OW27423   1.822  14.813   7.188
 8509SOL    HW127424   1.799  14.824   7.095
 8509SOL    HW227425   1.742  14.780   7.229
 8510SOL     OW27426  13.794   9.204  14.124
 8510SOL    HW127427  13.850   9.199  14.046
 8510SOL    HW227428  13.745   9.286  14.113
 8511SOL     OW27429   2.173   3.265  13.594
 8511SOL    HW127430   2.210   3.351  13.579
 8511SOL    HW227431   2.088   3.267  13.550
 8512SOL     OW27432   0.611   9.344   9.059
 8512SOL    HW127433   0.657   9.415   9.103
 8512SOL    HW227434   0.675   9.307   8.998
 8513SOL     OW27435   3.579   6.982  12.428
 8513SOL    HW127436   3.508   6.987  12.364
 8513SOL    HW227437   3.597   7.073  12.451
 8514SOL     OW27438   0.698  10.599   2.467
 8514SOL    HW127439   0.651  10.555   2.397
 8514SOL    HW227440   0.657  10.568   2.547
 8515SOL     OW27441   9.137   3.125  10.720
 8515SOL    HW127442   9.055   3.108  10.768
 8515SOL    HW227443   9.129   3.072  10.641
 8516SOL     OW27444   3.923   6.048  14.154
 8516SOL    HW127445   3.832   6.074  14.142
 8516SOL    HW227446   3.940   5.985  14.085
 8517SOL     OW27447   1.092  11.041   4.971
 8517SOL    HW127448   1.158  11.052   5.040
 8517SOL    HW227449   1.120  11.099   4.901
 8518SOL     OW27450   5.046   2.746  10.446
 8518SOL    HW127451   4.953   2.722  10.442
 8518SOL    HW227452   5.046   2.839  10.467
 8519SOL     OW27453   2.094   1.743   5.394
 8519SOL    HW127454   2.183   1.722   5.365
 8519SOL    HW227455   2.052   1.780   5.317
 8520SOL     OW27456   8.363   1.483   8.393
 8520SOL    HW127457   8.316   1.544   8.336
 8520SOL    HW227458   8.436   1.451   8.339
 8521SOL     OW27459   7.700   3.327   3.674
 8521SOL    HW127460   7.726   3.385   3.602
 8521SOL    HW227461   7.745   3.362   3.750
 8522SOL     OW27462  11.810   8.996   0.177
 8522SOL    HW127463  11.799   8.975   0.270
 8522SOL    HW227464  11.792   9.089   0.171
 8523SOL     OW27465  11.771   9.268   8.617
 8523SOL    HW127466  11.760   9.174   8.600
 8523SOL    HW227467  11.682   9.300   8.631
 8524SOL     OW27468   1.664  12.275  11.279
 8524SOL    HW127469   1.640  12.311  11.194
 8524SOL    HW227470   1.758  12.295  11.287
 8525SOL     OW27471   5.259  13.390   8.305
 8525SOL    HW127472   5.240  13.450   8.234
 8525SOL    HW227473   5.268  13.445   8.383
 8526SOL     OW27474   6.373   8.409   6.353
 8526SOL    HW127475   6.449   8.435   6.405
 8526SOL    HW227476   6.368   8.475   6.283
 8527SOL     OW27477   8.025  13.564   2.464
 8527SOL    HW127478   8.109  13.535   2.500
 8527SOL    HW227479   8.039  13.567   2.369
 8528SOL     OW27480   5.702   3.397   1.685
 8528SOL    HW127481   5.781   3.363   1.728
 8528SOL    HW227482   5.642   3.415   1.758
 8529SOL     OW27483   2.917   6.229  10.983
 8529SOL    HW127484   2.903   6.319  11.012
 8529SOL    HW227485   2.830   6.198  10.957
 8530SOL     OW27486   9.124  11.745  12.501
 8530SOL    HW127487   9.084  11.800  12.434
 8530SOL    HW227488   9.111  11.793  12.583
 8531SOL     OW27489   4.972  12.117  10.286
 8531SOL    HW127490   5.007  12.055  10.223
 8531SOL    HW227491   4.949  12.194  10.234
 8532SOL     OW27492   8.504   5.799   5.105
 8532SOL    HW127493   8.471   5.709   5.103
 8532SOL    HW227494   8.504   5.822   5.198
 8533SOL     OW27495   6.920   7.980   9.479
 8533SOL    HW127496   6.912   7.972   9.574
 8533SOL    HW227497   7.013   7.965   9.461
 8534SOL     OW27498   9.498   2.053   4.394
 8534SOL    HW127499   9.513   2.116   4.325
 8534SOL    HW227500   9.410   2.073   4.427
 8535SOL     OW27501   7.323   3.755  11.823
 8535SOL    HW127502   7.344   3.662  11.818
 8535SOL    HW227503   7.365   3.793  11.746
 8536SOL     OW27504   0.549   9.931   8.362
 8536SOL    HW127505   0.499   9.971   8.433
 8536SOL    HW227506   0.483   9.886   8.310
 8537SOL     OW27507   9.476   3.175   8.655
 8537SOL    HW127508   9.526   3.209   8.730
 8537SOL    HW227509   9.486   3.242   8.587
 8538SOL     OW27510   9.364   4.720  10.757
 8538SOL    HW127511   9.322   4.660  10.695
 8538SOL    HW227512   9.457   4.713  10.737
 8539SOL     OW27513   9.720   8.945   0.750
 8539SOL    HW127514   9.800   8.959   0.801
 8539SOL    HW227515   9.673   9.028   0.756
 8540SOL     OW27516   1.194   9.083   0.555
 8540SOL    HW127517   1.195   9.096   0.650
 8540SOL    HW227518   1.105   9.051   0.537
 8541SOL     OW27519  14.461  14.719  11.225
 8541SOL    HW127520  14.378  14.709  11.179
 8541SOL    HW227521  14.453  14.662  11.301
 8542SOL     OW27522   1.195   1.900  11.827
 8542SOL    HW127523   1.115   1.942  11.795
 8542SOL    HW227524   1.263   1.967  11.818
 8543SOL     OW27525   6.836   4.764   4.079
 8543SOL    HW127526   6.871   4.757   3.990
 8543SOL    HW227527   6.771   4.695   4.086
 8544SOL     OW27528   4.523  11.794   3.407
 8544SOL    HW127529   4.583  11.752   3.345
 8544SOL    HW227530   4.555  11.884   3.414
 8545SOL     OW27531   2.681  13.465   7.212
 8545SOL    HW127532   2.705  13.478   7.304
 8545SOL    HW227533   2.588  13.485   7.208
 8546SOL     OW27534   4.037  14.425  11.148
 8546SOL    HW127535   3.983  14.359  11.105
 8546SOL    HW227536   4.018  14.414  11.242
 8547SOL     OW27537  10.771   8.819   3.174
 8547SOL    HW127538  10.858   8.827   3.213
 8547SOL    HW227539  10.737   8.909   3.173
 8548SOL     OW27540  12.210   9.590   3.651
 8548SOL    HW127541  12.117   9.577   3.665
 8548SOL    HW227542  12.234   9.524   3.586
 8549SOL     OW27543  12.072  12.705   3.566
 8549SOL    HW127544  12.020  12.705   3.486
 8549SOL    HW227545  12.143  12.766   3.549
 8550SOL     OW27546   9.897   9.392  11.705
 8550SOL    HW127547   9.910   9.398  11.611
 8550SOL    HW227548   9.849   9.471  11.729
 8551SOL     OW27549   4.322  10.404  11.320
 8551SOL    HW127550   4.284  10.407  11.232
 8551SOL    HW227551   4.395  10.465  11.316
 8552SOL     OW27552   5.298   4.794   0.679
 8552SOL    HW127553   5.269   4.824   0.593
 8552SOL    HW227554   5.378   4.745   0.663
 8553SOL     OW27555  14.553   6.766   0.378
 8553SOL    HW127556  14.558   6.839   0.316
 8553SOL    HW227557  14.512   6.803   0.456
 8554SOL     OW27558   0.136  11.051   4.049
 8554SOL    HW127559   0.143  11.145   4.063
 8554SOL    HW227560   0.145  11.040   3.954
 8555SOL     OW27561   1.942  14.502   6.512
 8555SOL    HW127562   1.956  14.588   6.473
 8555SOL    HW227563   1.847  14.497   6.525
 8556SOL     OW27564   7.631   1.683   3.179
 8556SOL    HW127565   7.609   1.605   3.231
 8556SOL    HW227566   7.547   1.726   3.164
 8557SOL     OW27567  13.612  11.029  12.196
 8557SOL    HW127568  13.708  11.023  12.193
 8557SOL    HW227569  13.594  11.093  12.264
 8558SOL     OW27570   0.966   4.563   8.136
 8558SOL    HW127571   0.967   4.486   8.079
 8558SOL    HW227572   0.892   4.616   8.106
 8559SOL     OW27573   5.646   2.752   8.589
 8559SOL    HW127574   5.718   2.689   8.601
 8559SOL    HW227575   5.655   2.814   8.661
 8560SOL     OW27576   1.679  14.659   4.755
 8560SOL    HW127577   1.673  14.709   4.674
 8560SOL    HW227578   1.761  14.688   4.795
 8561SOL     OW27579  10.513   0.983  12.849
 8561SOL    HW127580  10.537   0.890  12.839
 8561SOL    HW227581  10.578   1.030  12.797
 8562SOL     OW27582  11.134   7.508   0.440
 8562SOL    HW127583  11.062   7.532   0.381
 8562SOL    HW227584  11.091   7.485   0.522
 8563SOL     OW27585  14.433  11.838   5.224
 8563SOL    HW127586  14.513  11.795   5.255
 8563SOL    HW227587  14.393  11.774   5.164
 8564SOL     OW27588   0.874   7.060   2.795
 8564SOL    HW127589   0.869   7.094   2.705
 8564SOL    HW227590   0.916   7.131   2.844
 8565SOL     OW27591  11.534   7.750  12.203
 8565SOL    HW127592  11.482   7.708  12.135
 8565SOL    HW227593  11.571   7.828  12.161
 8566SOL     OW27594   8.395   6.372  12.771
 8566SOL    HW127595   8.419   6.283  12.746
 8566SOL    HW227596   8.320   6.361  12.830
 8567SOL     OW27597   9.507   2.751   2.036
 8567SOL    HW127598   9.466   2.785   2.116
 8567SOL    HW227599   9.501   2.656   2.046
 8568SOL     OW27600  14.346  13.753  11.816
 8568SOL    HW127601  14.289  13.710  11.879
 8568SOL    HW227602  14.368  13.685  11.752
 8569SOL     OW27603   3.194   9.938  10.404
 8569SOL    HW127604   3.172   9.851  10.372
 8569SOL    HW227605   3.262   9.924  10.470
 8570SOL     OW27606   3.526   9.297   6.733
 8570SOL    HW127607   3.500   9.355   6.661
 8570SOL    HW227608   3.621   9.303   6.735
 8571SOL     OW27609   0.253   4.779  12.061
 8571SOL    HW127610   0.190   4.719  12.021
 8571SOL    HW227611   0.280   4.735  12.142
 8572SOL     OW27612  14.284   6.544   8.198
 8572SOL    HW127613  14.319   6.625   8.235
 8572SOL    HW227614  14.189   6.553   8.206
 8573SOL     OW27615  10.386  13.191   5.625
 8573SOL    HW127616  10.456  13.247   5.659
 8573SOL    HW227617  10.362  13.136   5.698
 8574SOL     OW27618  10.340   2.697   0.610
 8574SOL    HW127619  10.335   2.660   0.698
 8574SOL    HW227620  10.434   2.697   0.589
 8575SOL     OW27621   6.274  10.060   6.178
 8575SOL    HW127622   6.360  10.081   6.142
 8575SOL    HW227623   6.270   9.964   6.177
 8576SOL     OW27624   2.896   3.616   6.568
 8576SOL    HW127625   2.929   3.626   6.658
 8576SOL    HW227626   2.918   3.699   6.525
 8577SOL     OW27627   3.638   9.802   8.501
 8577SOL    HW127628   3.568   9.844   8.550
 8577SOL    HW227629   3.657   9.722   8.550
 8578SOL     OW27630   4.537   3.961   6.451
 8578SOL    HW127631   4.454   4.007   6.462
 8578SOL    HW227632   4.599   4.029   6.426
 8579SOL     OW27633   9.579   0.456  13.615
 8579SOL    HW127634   9.492   0.420  13.597
 8579SOL    HW227635   9.638   0.403  13.560
 8580SOL     OW27636   5.325   1.349  11.712
 8580SOL    HW127637   5.262   1.321  11.646
 8580SOL    HW227638   5.270   1.376  11.786
 8581SOL     OW27639   0.759  13.964   6.330
 8581SOL    HW127640   0.840  13.918   6.350
 8581SOL    HW227641   0.711  13.965   6.414
 8582SOL     OW27642   8.095   9.561  10.279
 8582SOL    HW127643   8.064   9.507  10.352
 8582SOL    HW227644   8.159   9.506  10.235
 8583SOL     OW27645   9.793   3.758   9.801
 8583SOL    HW127646   9.760   3.826   9.742
 8583SOL    HW227647   9.888   3.761   9.791
 8584SOL     OW27648  11.284   9.000  10.975
 8584SOL    HW127649  11.270   9.039  11.061
 8584SOL    HW227650  11.257   8.908  10.986
 8585SOL     OW27651   8.996  14.690   6.738
 8585SOL    HW127652   9.046  14.625   6.787
 8585SOL    HW227653   8.906  14.682   6.772
 8586SOL     OW27654  12.571  13.421   6.999
 8586SOL    HW127655  12.591  13.351   7.062
 8586SOL    HW227656  12.653  13.436   6.953
 8587SOL     OW27657   2.915   0.176  10.999
 8587SOL    HW127658   2.956   0.232  10.933
 8587SOL    HW227659   2.822   0.198  10.995
 8588SOL     OW27660   6.848   5.344  14.673
 8588SOL    HW127661   6.926   5.343  14.618
 8588SOL    HW227662   6.835   5.253  14.699
 8589SOL     OW27663   7.017  12.111   9.804
 8589SOL    HW127664   7.108  12.084   9.798
 8589SOL    HW227665   6.983  12.101   9.715
 8590SOL     OW27666   7.023   4.078  12.844
 8590SOL    HW127667   7.032   4.108  12.753
 8590SOL    HW227668   6.949   4.017  12.842
 8591SOL     OW27669   0.427   8.675   9.004
 8591SOL    HW127670   0.489   8.731   9.049
 8591SOL    HW227671   0.354   8.733   8.982
 8592SOL     OW27672   8.813  10.642  14.319
 8592SOL    HW127673   8.832  10.602  14.234
 8592SOL    HW227674   8.898  10.674  14.350
 8593SOL     OW27675  10.345  12.211   1.939
 8593SOL    HW127676  10.254  12.217   1.908
 8593SOL    HW227677  10.356  12.286   1.997
 8594SOL     OW27678   1.987   8.676  11.655
 8594SOL    HW127679   2.073   8.699  11.691
 8594SOL    HW227680   1.952   8.614  11.719
 8595SOL     OW27681   7.055   3.494  14.583
 8595SOL    HW127682   7.124   3.497  14.650
 8595SOL    HW227683   6.982   3.543  14.622
 8596SOL     OW27684   8.620   6.821   7.540
 8596SOL    HW127685   8.617   6.880   7.465
 8596SOL    HW227686   8.598   6.735   7.504
 8597SOL     OW27687   8.480   2.985   5.968
 8597SOL    HW127688   8.519   3.049   6.027
 8597SOL    HW227689   8.529   2.994   5.887
 8598SOL     OW27690  13.682  11.906   8.462
 8598SOL    HW127691  13.638  11.989   8.478
 8598SOL    HW227692  13.735  11.891   8.540
 8599SOL     OW27693  12.224   7.352  14.350
 8599SOL    HW127694  12.143   7.308  14.326
 8599SOL    HW227695  12.206   7.445  14.333
 8600SOL     OW27696   6.963  12.860   9.099
 8600SOL    HW127697   6.949  12.952   9.076
 8600SOL    HW227698   6.953  12.858   9.195
 8601SOL     OW27699   0.115  11.890  14.109
 8601SOL    HW127700   0.023  11.898  14.132
 8601SOL    HW227701   0.139  11.977  14.077
 8602SOL     OW27702  10.322   9.630   0.321
 8602SOL    HW127703  10.269   9.558   0.286
 8602SOL    HW227704  10.411   9.609   0.293
 8603SOL     OW27705   4.813   1.234  10.717
 8603SOL    HW127706   4.896   1.211  10.758
 8603SOL    HW227707   4.750   1.235  10.790
 8604SOL     OW27708   0.733  10.978  10.185
 8604SOL    HW127709   0.666  10.964  10.118
 8604SOL    HW227710   0.775  10.892  10.196
 8605SOL     OW27711   1.096   1.116  11.670
 8605SOL    HW127712   1.009   1.101  11.708
 8605SOL    HW227713   1.103   1.212  11.664
 8606SOL     OW27714  13.815   2.555   5.676
 8606SOL    HW127715  13.835   2.648   5.688
 8606SOL    HW227716  13.722   2.554   5.653
 8607SOL     OW27717   0.928   4.483   6.710
 8607SOL    HW127718   0.880   4.431   6.773
 8607SOL    HW227719   0.871   4.488   6.634
 8608SOL     OW27720  12.584   4.449   5.068
 8608SOL    HW127721  12.540   4.485   5.144
 8608SOL    HW227722  12.677   4.453   5.090
 8609SOL     OW27723  10.352  11.800   6.460
 8609SOL    HW127724  10.263  11.790   6.428
 8609SOL    HW227725  10.394  11.716   6.443
 8610SOL     OW27726   8.976   7.069  12.322
 8610SOL    HW127727   8.981   7.101  12.412
 8610SOL    HW227728   9.061   7.090  12.284
 8611SOL     OW27729   3.180  11.552  14.531
 8611SOL    HW127730   3.154  11.495  14.458
 8611SOL    HW227731   3.104  11.552  14.589
 8612SOL     OW27732   0.698  12.891  12.325
 8612SOL    HW127733   0.689  12.986  12.333
 8612SOL    HW227734   0.791  12.878  12.306
 8613SOL     OW27735   9.016  14.051   5.722
 8613SOL    HW127736   8.980  13.984   5.780
 8613SOL    HW227737   9.094  14.083   5.767
 8614SOL     OW27738  12.850   2.331   8.972
 8614SOL    HW127739  12.846   2.420   8.934
 8614SOL    HW227740  12.838   2.345   9.066
 8615SOL     OW27741   3.398  12.711   2.729
 8615SOL    HW127742   3.479  12.762   2.727
 8615SOL    HW227743   3.328  12.776   2.720
 8616SOL     OW27744   5.449   3.107   5.068
 8616SOL    HW127745   5.422   3.104   4.976
 8616SOL    HW227746   5.367   3.102   5.117
 8617SOL     OW27747   2.474  13.559   2.871
 8617SOL    HW127748   2.404  13.539   2.809
 8617SOL    HW227749   2.543  13.497   2.849
 8618SOL     OW27750   9.116   3.707   4.291
 8618SOL    HW127751   9.126   3.616   4.316
 8618SOL    HW227752   9.149   3.757   4.366
 8619SOL     OW27753   2.304   4.963   9.048
 8619SOL    HW127754   2.222   4.992   9.090
 8619SOL    HW227755   2.277   4.892   8.990
 8620SOL     OW27756   8.186   2.712   3.546
 8620SOL    HW127757   8.162   2.648   3.612
 8620SOL    HW227758   8.282   2.709   3.543
 8621SOL     OW27759   3.450  10.764   7.088
 8621SOL    HW127760   3.403  10.760   7.171
 8621SOL    HW227761   3.411  10.694   7.035
 8622SOL     OW27762   0.743   0.520   2.246
 8622SOL    HW127763   0.770   0.604   2.210
 8622SOL    HW227764   0.740   0.461   2.171
 8623SOL     OW27765   3.151   9.877   6.535
 8623SOL    HW127766   3.140   9.833   6.620
 8623SOL    HW227767   3.160   9.970   6.558
 8624SOL     OW27768   6.200   1.522   5.892
 8624SOL    HW127769   6.203   1.522   5.988
 8624SOL    HW227770   6.292   1.534   5.865
 8625SOL     OW27771   1.443   7.841   3.215
 8625SOL    HW127772   1.394   7.774   3.262
 8625SOL    HW227773   1.430   7.921   3.266
 8626SOL     OW27774   6.769   3.571  14.697
 8626SOL    HW127775   6.673   3.572  14.700
 8626SOL    HW227776   6.792   3.479  14.710
 8627SOL     OW27777   4.367   6.243   3.921
 8627SOL    HW127778   4.314   6.192   3.860
 8627SOL    HW227779   4.453   6.248   3.880
 8628SOL     OW27780   5.211   2.398   4.090
 8628SOL    HW127781   5.176   2.374   4.176
 8628SOL    HW227782   5.133   2.416   4.037
 8629SOL     OW27783  13.696  14.060  13.262
 8629SOL    HW127784  13.655  14.071  13.177
 8629SOL    HW227785  13.781  14.020  13.244
 8630SOL     OW27786   2.659   2.603   6.533
 8630SOL    HW127787   2.591   2.592   6.467
 8630SOL    HW227788   2.612   2.609   6.616
 8631SOL     OW27789   5.158   3.903   9.505
 8631SOL    HW127790   5.191   3.850   9.578
 8631SOL    HW227791   5.063   3.905   9.517
 8632SOL     OW27792   0.034   6.843   3.726
 8632SOL    HW127793   0.082   6.783   3.782
 8632SOL    HW227794  14.866   6.893   3.786
 8633SOL     OW27795   7.755   7.367   5.783
 8633SOL    HW127796   7.775   7.444   5.729
 8633SOL    HW227797   7.673   7.334   5.747
 8634SOL     OW27798   7.182   0.543   4.702
 8634SOL    HW127799   7.179   0.454   4.669
 8634SOL    HW227800   7.101   0.584   4.669
 8635SOL     OW27801  13.440   3.907   6.012
 8635SOL    HW127802  13.379   3.854   6.063
 8635SOL    HW227803  13.412   3.997   6.027
 8636SOL     OW27804  11.077  13.684  12.573
 8636SOL    HW127805  11.172  13.681  12.562
 8636SOL    HW227806  11.063  13.696  12.667
 8637SOL     OW27807  11.868   9.523   7.996
 8637SOL    HW127808  11.912   9.590   7.944
 8637SOL    HW227809  11.816   9.572   8.059
 8638SOL     OW27810   2.489   3.942   2.588
 8638SOL    HW127811   2.424   3.974   2.650
 8638SOL    HW227812   2.511   3.854   2.619
 8639SOL     OW27813   1.064  11.678  11.711
 8639SOL    HW127814   1.034  11.763  11.679
 8639SOL    HW227815   1.122  11.700  11.784
 8640SOL     OW27816   0.691  13.837   9.339
 8640SOL    HW127817   0.728  13.821   9.426
 8640SOL    HW227818   0.765  13.862   9.285
 8641SOL     OW27819  14.863   3.614  10.817
 8641SOL    HW127820  14.839   3.557  10.744
 8641SOL    HW227821  14.886   3.554  10.888
 8642SOL     OW27822   0.491  10.985  11.280
 8642SOL    HW127823   0.535  10.987  11.196
 8642SOL    HW227824   0.558  11.012  11.343
 8643SOL     OW27825   2.376   6.191   5.776
 8643SOL    HW127826   2.321   6.124   5.818
 8643SOL    HW227827   2.432   6.224   5.846
 8644SOL     OW27828  12.590   4.210  11.653
 8644SOL    HW127829  12.623   4.277  11.593
 8644SOL    HW227830  12.588   4.130  11.600
 8645SOL     OW27831  12.713   3.129   5.441
 8645SOL    HW127832  12.694   3.203   5.499
 8645SOL    HW227833  12.796   3.153   5.399
 8646SOL     OW27834   9.751  14.458   0.706
 8646SOL    HW127835   9.756  14.426   0.796
 8646SOL    HW227836   9.800  14.541   0.708
 8647SOL     OW27837   6.512   9.785   3.992
 8647SOL    HW127838   6.430   9.830   3.973
 8647SOL    HW227839   6.535   9.811   4.081
 8648SOL     OW27840  10.651   1.788   3.266
 8648SOL    HW127841  10.638   1.773   3.172
 8648SOL    HW227842  10.602   1.868   3.285
 8649SOL     OW27843   4.922  13.646   8.993
 8649SOL    HW127844   4.923  13.554   9.017
 8649SOL    HW227845   4.830  13.673   9.003
 8650SOL     OW27846  11.031   5.328  11.576
 8650SOL    HW127847  11.045   5.385  11.500
 8650SOL    HW227848  11.011   5.242  11.539
 8651SOL     OW27849  13.711   0.969   8.961
 8651SOL    HW127850  13.649   0.982   9.033
 8651SOL    HW227851  13.766   1.047   8.963
 8652SOL     OW27852  12.542  14.519  12.507
 8652SOL    HW127853  12.583  14.550  12.589
 8652SOL    HW227854  12.450  14.506  12.530
 8653SOL     OW27855  12.926   4.057   2.099
 8653SOL    HW127856  12.872   3.989   2.139
 8653SOL    HW227857  12.951   4.020   2.014
 8654SOL     OW27858   6.339   6.049   1.201
 8654SOL    HW127859   6.332   6.042   1.106
 8654SOL    HW227860   6.330   6.143   1.218
 8655SOL     OW27861   9.535   4.267  11.455
 8655SOL    HW127862   9.471   4.334  11.478
 8655SOL    HW227863   9.614   4.292  11.503
 8656SOL     OW27864   4.842   8.401   5.286
 8656SOL    HW127865   4.752   8.401   5.319
 8656SOL    HW227866   4.897   8.402   5.365
 8657SOL     OW27867   9.601   7.645   0.757
 8657SOL    HW127868   9.556   7.710   0.704
 8657SOL    HW227869   9.687   7.635   0.716
 8658SOL     OW27870   3.925   4.192   1.610
 8658SOL    HW127871   3.832   4.173   1.618
 8658SOL    HW227872   3.966   4.106   1.596
 8659SOL     OW27873  10.155   2.733  13.648
 8659SOL    HW127874  10.120   2.646  13.626
 8659SOL    HW227875  10.179   2.726  13.740
 8660SOL     OW27876  12.439  13.887   0.482
 8660SOL    HW127877  12.352  13.855   0.507
 8660SOL    HW227878  12.477  13.918   0.564
 8661SOL     OW27879   5.755  10.963   9.075
 8661SOL    HW127880   5.743  10.905   9.150
 8661SOL    HW227881   5.666  10.988   9.050
 8662SOL     OW27882   5.225  12.571   7.456
 8662SOL    HW127883   5.288  12.631   7.417
 8662SOL    HW227884   5.278  12.506   7.501
 8663SOL     OW27885  11.822   1.077   3.911
 8663SOL    HW127886  11.824   1.118   3.997
 8663SOL    HW227887  11.867   1.139   3.854
 8664SOL     OW27888   1.459   5.802   2.674
 8664SOL    HW127889   1.473   5.828   2.765
 8664SOL    HW227890   1.425   5.881   2.632
 8665SOL     OW27891   4.820  13.658   3.618
 8665SOL    HW127892   4.842  13.733   3.563
 8665SOL    HW227893   4.860  13.678   3.703
 8666SOL     OW27894   9.851   6.609   9.820
 8666SOL    HW127895   9.902   6.605   9.739
 8666SOL    HW227896   9.773   6.659   9.797
 8667SOL     OW27897   9.539  13.258   4.995
 8667SOL    HW127898   9.627  13.230   5.020
 8667SOL    HW227899   9.539  13.353   5.009
 8668SOL     OW27900   0.565   0.546   6.716
 8668SOL    HW127901   0.552   0.464   6.669
 8668SOL    HW227902   0.518   0.611   6.664
 8669SOL     OW27903  12.473  13.850   7.153
 8669SOL    HW127904  12.539  13.808   7.209
 8669SOL    HW227905  12.524  13.892   7.084
 8670SOL     OW27906   0.183   2.383   2.160
 8670SOL    HW127907   0.121   2.359   2.091
 8670SOL    HW227908   0.132   2.377   2.241
 8671SOL     OW27909   1.053   5.425   2.048
 8671SOL    HW127910   1.004   5.352   2.011
 8671SOL    HW227911   1.145   5.397   2.042
 8672SOL     OW27912  13.883  10.374   4.623
 8672SOL    HW127913  13.931  10.351   4.702
 8672SOL    HW227914  13.950  10.385   4.556
 8673SOL     OW27915   7.935   3.729   1.755
 8673SOL    HW127916   7.852   3.770   1.732
 8673SOL    HW227917   7.958   3.765   1.841
 8674SOL     OW27918   0.272   2.965   3.539
 8674SOL    HW127919   0.237   2.911   3.610
 8674SOL    HW227920   0.257   3.055   3.568
 8675SOL     OW27921   0.110   9.719  14.246
 8675SOL    HW127922   0.051   9.645  14.262
 8675SOL    HW227923   0.092   9.780  14.318
 8676SOL     OW27924  11.153   4.230   3.894
 8676SOL    HW127925  11.091   4.174   3.939
 8676SOL    HW227926  11.101   4.276   3.828
 8677SOL     OW27927  10.481  14.095   6.447
 8677SOL    HW127928  10.458  14.002   6.456
 8677SOL    HW227929  10.401  14.136   6.414
 8678SOL     OW27930  12.006  13.842   1.984
 8678SOL    HW127931  11.987  13.925   2.028
 8678SOL    HW227932  12.098  13.824   2.006
 8679SOL     OW27933  11.419   2.244   8.433
 8679SOL    HW127934  11.504   2.282   8.407
 8679SOL    HW227935  11.442   2.167   8.485
 8680SOL     OW27936   0.225   3.633   0.929
 8680SOL    HW127937   0.131   3.620   0.923
 8680SOL    HW227938   0.236   3.705   0.991
 8681SOL     OW27939   4.816   2.135   3.644
 8681SOL    HW127940   4.860   2.055   3.674
 8681SOL    HW227941   4.748   2.104   3.585
 8682SOL     OW27942   3.014  12.705   4.957
 8682SOL    HW127943   3.018  12.743   4.869
 8682SOL    HW227944   3.105  12.681   4.976
 8683SOL     OW27945  14.092   9.334   1.709
 8683SOL    HW127946  14.082   9.422   1.673
 8683SOL    HW227947  14.109   9.348   1.802
 8684SOL     OW27948  11.121  11.227   7.359
 8684SOL    HW127949  11.080  11.254   7.442
 8684SOL    HW227950  11.088  11.139   7.343
 8685SOL     OW27951  14.620   3.823   9.961
 8685SOL    HW127952  14.589   3.834  10.051
 8685SOL    HW227953  14.653   3.910   9.937
 8686SOL     OW27954   2.469   5.802   2.351
 8686SOL    HW127955   2.539   5.780   2.289
 8686SOL    HW227956   2.401   5.737   2.335
 8687SOL     OW27957   7.858   8.104   5.987
 8687SOL    HW127958   7.936   8.049   5.981
 8687SOL    HW227959   7.826   8.112   5.897
 8688SOL     OW27960   1.861   6.956   1.277
 8688SOL    HW127961   1.869   6.951   1.373
 8688SOL    HW227962   1.871   6.865   1.248
 8689SOL     OW27963  11.340   2.863  14.807
 8689SOL    HW127964  11.415   2.825  14.853
 8689SOL    HW227965  11.273   2.795  14.811
 8690SOL     OW27966  10.911   8.465  13.215
 8690SOL    HW127967  10.834   8.423  13.252
 8690SOL    HW227968  10.877   8.545  13.174
 8691SOL     OW27969  12.914   0.570  11.888
 8691SOL    HW127970  12.857   0.635  11.930
 8691SOL    HW227971  12.861   0.491  11.882
 8692SOL     OW27972   1.792   4.527   4.678
 8692SOL    HW127973   1.699   4.542   4.664
 8692SOL    HW227974   1.800   4.507   4.771
 8693SOL     OW27975   1.692   0.047  13.321
 8693SOL    HW127976   1.630   0.114  13.293
 8693SOL    HW227977   1.669  14.856  13.270
 8694SOL     OW27978   4.277   9.674   6.618
 8694SOL    HW127979   4.209   9.735   6.647
 8694SOL    HW227980   4.272   9.674   6.523
 8695SOL     OW27981   6.838  12.061  12.628
 8695SOL    HW127982   6.912  12.019  12.583
 8695SOL    HW227983   6.811  12.131  12.568
 8696SOL     OW27984   6.161   3.750  14.323
 8696SOL    HW127985   6.138   3.727  14.413
 8696SOL    HW227986   6.133   3.675  14.271
 8697SOL     OW27987   1.404  11.430   2.784
 8697SOL    HW127988   1.357  11.513   2.788
 8697SOL    HW227989   1.411  11.401   2.875
 8698SOL     OW27990  12.085  14.156  10.292
 8698SOL    HW127991  12.073  14.193  10.205
 8698SOL    HW227992  12.145  14.082  10.279
 8699SOL     OW27993   8.496  14.556  14.473
 8699SOL    HW127994   8.450  14.527  14.552
 8699SOL    HW227995   8.586  14.572  14.502
 8700SOL     OW27996   4.649   0.153   9.496
 8700SOL    HW127997   4.700   0.073   9.490
 8700SOL    HW227998   4.711   0.222   9.471
 8701SOL     OW27999  11.208  14.252   7.948
 8701SOL    HW128000  11.140  14.267   7.882
 8701SOL    HW228001  11.282  14.215   7.899
 8702SOL     OW28002   9.465   4.646  10.484
 8702SOL    HW128003   9.430   4.563  10.517
 8702SOL    HW228004   9.534   4.620  10.422
 8703SOL     OW28005   8.851   9.210   8.248
 8703SOL    HW128006   8.868   9.115   8.251
 8703SOL    HW228007   8.935   9.248   8.220
 8704SOL     OW28008  14.748   0.807   5.019
 8704SOL    HW128009  14.824   0.769   4.975
 8704SOL    HW228010  14.748   0.768   5.106
 8705SOL     OW28011   5.925  12.348   0.432
 8705SOL    HW128012   5.996  12.292   0.465
 8705SOL    HW228013   5.874  12.370   0.510
 8706SOL     OW28014   1.852   4.940   2.666
 8706SOL    HW128015   1.788   5.006   2.639
 8706SOL    HW228016   1.800   4.861   2.682
 8707SOL     OW28017   0.702   1.049   0.502
 8707SOL    HW128018   0.773   0.989   0.523
 8707SOL    HW228019   0.655   1.008   0.430
 8708SOL     OW28020  10.792  11.504  11.719
 8708SOL    HW128021  10.812  11.554  11.799
 8708SOL    HW228022  10.698  11.515  11.707
 8709SOL     OW28023   2.864   0.346   9.236
 8709SOL    HW128024   2.922   0.396   9.178
 8709SOL    HW228025   2.861   0.398   9.316
 8710SOL     OW28026   9.555   0.970  12.244
 8710SOL    HW128027   9.541   0.909  12.171
 8710SOL    HW228028   9.484   0.951  12.305
 8711SOL     OW28029   5.493   3.732  14.220
 8711SOL    HW128030   5.510   3.659  14.161
 8711SOL    HW228031   5.509   3.695  14.308
 8712SOL     OW28032  11.327   5.433   2.239
 8712SOL    HW128033  11.339   5.496   2.309
 8712SOL    HW228034  11.375   5.356   2.267
 8713SOL     OW28035   7.407   9.717   7.695
 8713SOL    HW128036   7.400   9.632   7.739
 8713SOL    HW228037   7.395   9.698   7.602
 8714SOL     OW28038   1.969   1.990   2.661
 8714SOL    HW128039   2.046   1.965   2.713
 8714SOL    HW228040   1.927   1.906   2.639
 8715SOL     OW28041  11.171   4.709   4.244
 8715SOL    HW128042  11.220   4.627   4.234
 8715SOL    HW228043  11.196   4.761   4.167
 8716SOL     OW28044  14.201   2.100  11.596
 8716SOL    HW128045  14.158   2.185  11.584
 8716SOL    HW228046  14.142   2.050  11.652
 8717SOL     OW28047  11.844   5.877   2.393
 8717SOL    HW128048  11.761   5.861   2.348
 8717SOL    HW228049  11.906   5.817   2.352
 8718SOL     OW28050  13.703   0.667  14.022
 8718SOL    HW128051  13.782   0.696  14.068
 8718SOL    HW228052  13.644   0.742  14.024
 8719SOL     OW28053  11.584   1.449  13.231
 8719SOL    HW128054  11.510   1.472  13.288
 8719SOL    HW228055  11.636   1.529  13.227
 8720SOL     OW28056   7.915   9.140   0.452
 8720SOL    HW128057   7.883   9.230   0.454
 8720SOL    HW228058   7.957   9.132   0.367
 8721SOL     OW28059   7.277   0.150   3.929
 8721SOL    HW128060   7.330   0.078   3.964
 8721SOL    HW228061   7.330   0.229   3.945
 8722SOL     OW28062   8.189   1.589   9.066
 8722SOL    HW128063   8.111   1.544   9.099
 8722SOL    HW228064   8.257   1.522   9.063
 8723SOL     OW28065   0.338   9.153   6.425
 8723SOL    HW128066   0.334   9.064   6.460
 8723SOL    HW228067   0.413   9.193   6.469
 8724SOL     OW28068  11.453  10.631   1.878
 8724SOL    HW128069  11.465  10.581   1.959
 8724SOL    HW228070  11.389  10.699   1.901
 8725SOL     OW28071  13.653  10.736   9.971
 8725SOL    HW128072  13.696  10.681  10.036
 8725SOL    HW228073  13.688  10.707   9.887
 8726SOL     OW28074   2.964   0.449   5.565
 8726SOL    HW128075   2.937   0.451   5.473
 8726SOL    HW228076   3.037   0.511   5.569
 8727SOL     OW28077   3.704  14.070  12.749
 8727SOL    HW128078   3.666  14.058  12.836
 8727SOL    HW228079   3.799  14.069  12.763
 8728SOL     OW28080   4.616   3.521   0.721
 8728SOL    HW128081   4.599   3.450   0.659
 8728SOL    HW228082   4.569   3.495   0.800
 8729SOL     OW28083  14.273   6.610   0.788
 8729SOL    HW128084  14.187   6.639   0.759
 8729SOL    HW228085  14.280   6.643   0.878
 8730SOL     OW28086   6.938   9.049  11.698
 8730SOL    HW128087   7.011   9.015  11.748
 8730SOL    HW228088   6.909   8.975  11.645
 8731SOL     OW28089  11.485  10.170  13.847
 8731SOL    HW128090  11.409  10.202  13.896
 8731SOL    HW228091  11.521  10.100  13.902
 8732SOL     OW28092   8.957   8.729  14.732
 8732SOL    HW128093   8.875   8.709  14.686
 8732SOL    HW228094   9.025   8.715  14.666
 8733SOL     OW28095   0.862   0.323   0.933
 8733SOL    HW128096   0.792   0.383   0.905
 8733SOL    HW228097   0.818   0.239   0.946
 8734SOL     OW28098  10.879   2.833  11.280
 8734SOL    HW128099  10.927   2.905  11.241
 8734SOL    HW228100  10.927   2.813  11.361
 8735SOL     OW28101   1.965   6.702   4.434
 8735SOL    HW128102   1.917   6.636   4.384
 8735SOL    HW228103   2.015   6.652   4.498
 8736SOL     OW28104   1.009   2.933   0.310
 8736SOL    HW128105   1.010   2.995   0.383
 8736SOL    HW228106   1.024   2.986   0.232
 8737SOL     OW28107   2.849   0.182   2.888
 8737SOL    HW128108   2.920   0.156   2.947
 8737SOL    HW228109   2.841   0.110   2.826
 8738SOL     OW28110  12.782   6.122   3.707
 8738SOL    HW128111  12.798   6.197   3.649
 8738SOL    HW228112  12.826   6.146   3.789
 8739SOL     OW28113  13.061   8.708   4.820
 8739SOL    HW128114  13.001   8.674   4.753
 8739SOL    HW228115  13.147   8.673   4.795
 8740SOL     OW28116   5.912   3.214   8.388
 8740SOL    HW128117   5.922   3.172   8.303
 8740SOL    HW228118   5.820   3.243   8.389
 8741SOL     OW28119   8.343   3.085   4.230
 8741SOL    HW128120   8.270   3.108   4.171
 8741SOL    HW228121   8.384   3.169   4.250
 8742SOL     OW28122   7.346   1.853   9.706
 8742SOL    HW128123   7.293   1.879   9.630
 8742SOL    HW228124   7.434   1.885   9.686
 8743SOL     OW28125   1.776  10.062   9.350
 8743SOL    HW128126   1.832  10.010   9.293
 8743SOL    HW228127   1.705  10.092   9.293
 8744SOL     OW28128   1.826   2.050  12.391
 8744SOL    HW128129   1.781   1.995  12.456
 8744SOL    HW228130   1.826   1.997  12.311
 8745SOL     OW28131   4.402   0.458   8.332
 8745SOL    HW128132   4.481   0.406   8.341
 8745SOL    HW228133   4.331   0.398   8.355
 8746SOL     OW28134  13.980  13.347   6.087
 8746SOL    HW128135  14.033  13.314   6.014
 8746SOL    HW228136  13.954  13.268   6.134
 8747SOL     OW28137   2.147   5.714   0.191
 8747SOL    HW128138   2.152   5.715   0.287
 8747SOL    HW228139   2.194   5.793   0.164
 8748SOL     OW28140  12.573   3.340   3.238
 8748SOL    HW128141  12.482   3.311   3.240
 8748SOL    HW228142  12.568   3.436   3.234
 8749SOL     OW28143   4.468   7.736   5.692
 8749SOL    HW128144   4.407   7.694   5.753
 8749SOL    HW228145   4.494   7.817   5.735
 8750SOL     OW28146   0.347   9.886   7.549
 8750SOL    HW128147   0.370   9.798   7.521
 8750SOL    HW228148   0.252   9.884   7.560
 8751SOL     OW28149  11.552  11.776  14.142
 8751SOL    HW128150  11.485  11.817  14.087
 8751SOL    HW228151  11.600  11.719  14.082
 8752SOL     OW28152  12.006   2.735  11.095
 8752SOL    HW128153  11.918   2.744  11.131
 8752SOL    HW228154  12.034   2.824  11.076
 8753SOL     OW28155   7.114   7.016  11.396
 8753SOL    HW128156   7.079   7.105  11.397
 8753SOL    HW228157   7.072   6.974  11.321
 8754SOL     OW28158   3.486   0.272   8.008
 8754SOL    HW128159   3.449   0.196   7.963
 8754SOL    HW228160   3.577   0.275   7.978
 8755SOL     OW28161  10.412   7.721   8.305
 8755SOL    HW128162  10.440   7.666   8.378
 8755SOL    HW228163  10.375   7.659   8.241
 8756SOL     OW28164  12.985   0.437  10.487
 8756SOL    HW128165  13.014   0.371  10.550
 8756SOL    HW228166  13.059   0.447  10.427
 8757SOL     OW28167   0.302  13.745   6.739
 8757SOL    HW128168   0.317  13.782   6.652
 8757SOL    HW228169   0.343  13.659   6.736
 8758SOL     OW28170  14.874   3.094  13.310
 8758SOL    HW128171   0.072   3.120  13.276
 8758SOL    HW228172  14.816   3.166  13.286
 8759SOL     OW28173   1.657  13.727   0.940
 8759SOL    HW128174   1.742  13.687   0.959
 8759SOL    HW228175   1.615  13.736   1.026
 8760SOL     OW28176   8.333   1.928   7.252
 8760SOL    HW128177   8.426   1.904   7.259
 8760SOL    HW228178   8.290   1.850   7.217
 8761SOL     OW28179   0.868   9.396   6.876
 8761SOL    HW128180   0.817   9.477   6.873
 8761SOL    HW228181   0.818   9.339   6.934
 8762SOL     OW28182   7.776   8.981   7.527
 8762SOL    HW128183   7.796   8.937   7.610
 8762SOL    HW228184   7.825   8.931   7.461
 8763SOL     OW28185   1.199  10.874  11.850
 8763SOL    HW128186   1.225  10.822  11.926
 8763SOL    HW228187   1.179  10.810  11.782
 8764SOL     OW28188   9.942   8.655   2.232
 8764SOL    HW128189   9.892   8.611   2.163
 8764SOL    HW228190   9.876   8.696   2.288
 8765SOL     OW28191   5.116   2.274   1.810
 8765SOL    HW128192   5.160   2.189   1.800
 8765SOL    HW228193   5.174   2.336   1.765
 8766SOL     OW28194   1.032  13.030   2.513
 8766SOL    HW128195   1.000  13.011   2.601
 8766SOL    HW228196   1.101  13.094   2.526
 8767SOL     OW28197   1.635   6.750   6.941
 8767SOL    HW128198   1.722   6.748   6.900
 8767SOL    HW228199   1.638   6.679   7.006
 8768SOL     OW28200   8.515   7.482   1.410
 8768SOL    HW128201   8.518   7.450   1.319
 8768SOL    HW228202   8.428   7.456   1.441
 8769SOL     OW28203  10.750  13.931   3.278
 8769SOL    HW128204  10.828  13.928   3.223
 8769SOL    HW228205  10.732  13.840   3.300
 8770SOL     OW28206   9.163   9.753   5.671
 8770SOL    HW128207   9.164   9.752   5.766
 8770SOL    HW228208   9.220   9.826   5.647
 8771SOL     OW28209   0.143   3.140   5.080
 8771SOL    HW128210   0.115   3.054   5.049
 8771SOL    HW228211   0.141   3.133   5.175
 8772SOL     OW28212   7.584   7.487  11.887
 8772SOL    HW128213   7.496   7.462  11.858
 8772SOL    HW228214   7.583   7.473  11.981
 8773SOL     OW28215   1.287   5.271   0.288
 8773SOL    HW128216   1.252   5.183   0.303
 8773SOL    HW228217   1.299   5.276   0.193
 8774SOL     OW28218  14.342   3.625   1.136
 8774SOL    HW128219  14.272   3.688   1.119
 8774SOL    HW228220  14.388   3.659   1.212
 8775SOL     OW28221   4.320   1.113   5.748
 8775SOL    HW128222   4.375   1.136   5.823
 8775SOL    HW228223   4.372   1.138   5.672
 8776SOL     OW28224   4.989  14.118   4.180
 8776SOL    HW128225   5.083  14.137   4.176
 8776SOL    HW228226   4.956  14.173   4.251
 8777SOL     OW28227   0.041  14.103   8.961
 8777SOL    HW128228  14.879  14.129   8.883
 8777SOL    HW228229   0.131  14.092   8.931
 8778SOL     OW28230  13.600   5.977   8.053
 8778SOL    HW128231  13.579   5.885   8.038
 8778SOL    HW228232  13.582   5.991   8.146
 8779SOL     OW28233  10.947  10.948   7.729
 8779SOL    HW128234  11.030  10.928   7.685
 8779SOL    HW228235  10.973  10.972   7.818
 8780SOL     OW28236   1.479   7.416   7.790
 8780SOL    HW128237   1.550   7.431   7.729
 8780SOL    HW228238   1.506   7.339   7.841
 8781SOL     OW28239   4.057  10.480  14.073
 8781SOL    HW128240   4.000  10.552  14.098
 8781SOL    HW228241   4.011  10.401  14.101
 8782SOL     OW28242   7.357   8.960   2.352
 8782SOL    HW128243   7.326   8.872   2.371
 8782SOL    HW228244   7.338   9.010   2.432
 8783SOL     OW28245   6.496   0.947  14.806
 8783SOL    HW128246   6.478   1.006  14.733
 8783SOL    HW228247   6.546   0.875  14.767
 8784SOL     OW28248   7.103   2.888   4.305
 8784SOL    HW128249   7.182   2.941   4.293
 8784SOL    HW228250   7.129   2.800   4.280
 8785SOL     OW28251  11.829  12.360  13.160
 8785SOL    HW128252  11.919  12.328  13.164
 8785SOL    HW228253  11.834  12.449  13.196
 8786SOL     OW28254  12.020   9.805   2.231
 8786SOL    HW128255  12.106   9.815   2.189
 8786SOL    HW228256  11.961   9.783   2.159
 8787SOL     OW28257   2.317   9.737   3.721
 8787SOL    HW128258   2.390   9.790   3.753
 8787SOL    HW228259   2.263   9.799   3.670
 8788SOL     OW28260   3.815   1.115   2.329
 8788SOL    HW128261   3.846   1.204   2.340
 8788SOL    HW228262   3.809   1.103   2.234
 8789SOL     OW28263   4.288  13.773   8.770
 8789SOL    HW128264   4.310  13.742   8.857
 8789SOL    HW228265   4.364  13.823   8.742
 8790SOL     OW28266   3.827  13.155   6.183
 8790SOL    HW128267   3.769  13.186   6.113
 8790SOL    HW228268   3.910  13.200   6.167
 8791SOL     OW28269  11.121   7.920   7.201
 8791SOL    HW128270  11.107   7.825   7.193
 8791SOL    HW228271  11.103   7.954   7.113
 8792SOL     OW28272   9.860  12.197   4.749
 8792SOL    HW128273   9.809  12.155   4.680
 8792SOL    HW228274   9.951  12.181   4.725
 8793SOL     OW28275   5.514  12.789  10.855
 8793SOL    HW128276   5.572  12.803  10.780
 8793SOL    HW228277   5.432  12.831  10.830
 8794SOL     OW28278   9.534   3.795   1.817
 8794SOL    HW128279   9.520   3.738   1.892
 8794SOL    HW228280   9.495   3.748   1.743
 8795SOL     OW28281  13.457   2.172   4.052
 8795SOL    HW128282  13.383   2.160   3.993
 8795SOL    HW228283  13.534   2.170   3.995
 8796SOL     OW28284   5.619   8.787   7.930
 8796SOL    HW128285   5.695   8.816   7.982
 8796SOL    HW228286   5.545   8.796   7.990
 8797SOL     OW28287   5.430   0.229   5.520
 8797SOL    HW128288   5.496   0.163   5.541
 8797SOL    HW228289   5.440   0.296   5.588
 8798SOL     OW28290  14.643  13.677   9.456
 8798SOL    HW128291  14.599  13.703   9.375
 8798SOL    HW228292  14.701  13.750   9.476
 8799SOL     OW28293  14.856  14.130   0.192
 8799SOL    HW128294   0.058  14.143   0.224
 8799SOL    HW228295  14.805  14.110   0.270
 8800SOL     OW28296   2.249   9.559   6.032
 8800SOL    HW128297   2.170   9.504   6.036
 8800SOL    HW228298   2.225   9.632   5.976
 8801SOL     OW28299   6.704   0.603   0.266
 8801SOL    HW128300   6.775   0.630   0.209
 8801SOL    HW228301   6.747   0.565   0.343
 8802SOL     OW28302   9.268   2.528  13.504
 8802SOL    HW128303   9.338   2.577  13.460
 8802SOL    HW228304   9.201   2.593  13.523
 8803SOL     OW28305  12.719   0.162  13.301
 8803SOL    HW128306  12.636   0.188  13.261
 8803SOL    HW228307  12.785   0.199  13.243
 8804SOL     OW28308   2.562   2.241   7.990
 8804SOL    HW128309   2.484   2.224   8.042
 8804SOL    HW228310   2.564   2.336   7.978
 8805SOL     OW28311  11.282  10.035   0.414
 8805SOL    HW128312  11.355  10.067   0.467
 8805SOL    HW228313  11.219  10.001   0.478
 8806SOL     OW28314  14.370  11.516  13.273
 8806SOL    HW128315  14.461  11.487  13.264
 8806SOL    HW228316  14.330  11.493  13.189
 8807SOL     OW28317   1.139   3.709  12.404
 8807SOL    HW128318   1.175   3.693  12.491
 8807SOL    HW228319   1.215   3.724  12.348
 8808SOL     OW28320  10.630   9.073   5.706
 8808SOL    HW128321  10.559   9.050   5.646
 8808SOL    HW228322  10.620   9.012   5.779
 8809SOL     OW28323  14.645   0.173   1.531
 8809SOL    HW128324  14.674   0.151   1.619
 8809SOL    HW228325  14.551   0.191   1.539
 8810SOL     OW28326   4.026   5.376   0.921
 8810SOL    HW128327   3.931   5.388   0.917
 8810SOL    HW228328   4.060   5.423   0.845
 8811SOL     OW28329   7.184  14.414   0.228
 8811SOL    HW128330   7.203  14.424   0.135
 8811SOL    HW228331   7.158  14.501   0.258
 8812SOL     OW28332   4.062   2.781  14.474
 8812SOL    HW128333   4.123   2.728  14.525
 8812SOL    HW228334   4.006   2.718  14.429
 8813SOL     OW28335   9.151   9.450  12.830
 8813SOL    HW128336   9.116   9.462  12.918
 8813SOL    HW228337   9.216   9.519  12.821
 8814SOL     OW28338   6.789  10.028   4.167
 8814SOL    HW128339   6.703  10.063   4.143
 8814SOL    HW228340   6.844  10.105   4.179
 8815SOL     OW28341   5.099  11.561   9.785
 8815SOL    HW128342   5.127  11.494   9.848
 8815SOL    HW228343   5.171  11.565   9.721
 8816SOL     OW28344   2.699   9.778   1.810
 8816SOL    HW128345   2.680   9.712   1.744
 8816SOL    HW228346   2.695   9.731   1.893
 8817SOL     OW28347   1.735  14.106   7.886
 8817SOL    HW128348   1.670  14.040   7.909
 8817SOL    HW228349   1.686  14.189   7.887
 8818SOL     OW28350  11.906   6.946   2.793
 8818SOL    HW128351  11.938   7.036   2.794
 8818SOL    HW228352  11.811   6.954   2.784
 8819SOL     OW28353  14.446  13.214  14.523
 8819SOL    HW128354  14.505  13.165  14.580
 8819SOL    HW228355  14.481  13.303  14.523
 8820SOL     OW28356   1.994   8.820   9.755
 8820SOL    HW128357   2.070   8.850   9.805
 8820SOL    HW228358   1.936   8.896   9.751
 8821SOL     OW28359   8.514   3.686   0.236
 8821SOL    HW128360   8.508   3.739   0.315
 8821SOL    HW228361   8.534   3.748   0.166
 8822SOL     OW28362   4.985  11.722   1.949
 8822SOL    HW128363   4.938  11.757   1.873
 8822SOL    HW228364   5.069  11.769   1.949
 8823SOL     OW28365  10.351   8.744  11.163
 8823SOL    HW128366  10.269   8.792  11.179
 8823SOL    HW228367  10.398   8.797  11.099
 8824SOL     OW28368   1.360   7.818  11.245
 8824SOL    HW128369   1.394   7.907  11.254
 8824SOL    HW228370   1.274   7.821  11.288
 8825SOL     OW28371   1.966   7.099  13.652
 8825SOL    HW128372   2.028   7.145  13.708
 8825SOL    HW228373   1.907   7.167  13.619
 8826SOL     OW28374   6.407  10.214   5.228
 8826SOL    HW128375   6.368  10.170   5.304
 8826SOL    HW228376   6.446  10.294   5.264
 8827SOL     OW28377   7.624  13.088   3.804
 8827SOL    HW128378   7.559  13.056   3.866
 8827SOL    HW228379   7.657  13.169   3.843
 8828SOL     OW28380   6.076  12.990   4.185
 8828SOL    HW128381   6.021  13.008   4.260
 8828SOL    HW228382   6.058  12.899   4.162
 8829SOL     OW28383  13.278   8.498   9.370
 8829SOL    HW128384  13.302   8.424   9.314
 8829SOL    HW228385  13.185   8.483   9.391
 8830SOL     OW28386   1.471   0.606   1.482
 8830SOL    HW128387   1.457   0.518   1.447
 8830SOL    HW228388   1.558   0.603   1.522
 8831SOL     OW28389  13.208   9.537   0.996
 8831SOL    HW128390  13.187   9.496   0.912
 8831SOL    HW228391  13.146   9.610   1.003
 8832SOL     OW28392  13.604  13.711  11.004
 8832SOL    HW128393  13.582  13.622  10.976
 8832SOL    HW228394  13.551  13.725  11.083
 8833SOL     OW28395   6.398   5.607   8.774
 8833SOL    HW128396   6.344   5.571   8.703
 8833SOL    HW228397   6.461   5.664   8.729
 8834SOL     OW28398   9.109   5.531   2.737
 8834SOL    HW128399   9.026   5.574   2.716
 8834SOL    HW228400   9.170   5.565   2.672
 8835SOL     OW28401   1.861   0.965   2.208
 8835SOL    HW128402   1.772   0.942   2.183
 8835SOL    HW228403   1.916   0.919   2.145
 8836SOL     OW28404  11.295   4.080  14.498
 8836SOL    HW128405  11.379   4.035  14.503
 8836SOL    HW228406  11.265   4.065  14.408
 8837SOL     OW28407   1.808  14.501  10.842
 8837SOL    HW128408   1.897  14.528  10.821
 8837SOL    HW228409   1.815  14.464  10.930
 8838SOL     OW28410   8.005  11.221  10.275
 8838SOL    HW128411   8.089  11.245  10.315
 8838SOL    HW228412   7.941  11.280  10.316
 8839SOL     OW28413  11.842  12.200   6.593
 8839SOL    HW128414  11.800  12.285   6.584
 8839SOL    HW228415  11.825  12.174   6.683
 8840SOL     OW28416   6.904   2.307   7.069
 8840SOL    HW128417   6.977   2.245   7.073
 8840SOL    HW228418   6.937   2.385   7.113
 8841SOL     OW28419  12.151   5.531   4.957
 8841SOL    HW128420  12.138   5.625   4.970
 8841SOL    HW228421  12.087   5.506   4.891
 8842SOL     OW28422   9.263   8.783   8.098
 8842SOL    HW128423   9.259   8.721   8.025
 8842SOL    HW228424   9.236   8.733   8.174
 8843SOL     OW28425   2.864   9.022  10.257
 8843SOL    HW128426   2.857   9.114  10.232
 8843SOL    HW228427   2.838   8.974  10.178
 8844SOL     OW28428   6.817  13.648   5.513
 8844SOL    HW128429   6.793  13.694   5.433
 8844SOL    HW228430   6.792  13.707   5.583
 8845SOL     OW28431   5.475   4.303   2.241
 8845SOL    HW128432   5.524   4.306   2.158
 8845SOL    HW228433   5.540   4.281   2.307
 8846SOL     OW28434  10.928  14.029  13.385
 8846SOL    HW128435  10.953  13.937  13.385
 8846SOL    HW228436  11.007  14.075  13.413
 8847SOL     OW28437  11.991   0.972   6.000
 8847SOL    HW128438  11.986   1.011   6.088
 8847SOL    HW228439  11.912   0.918   5.994
 8848SOL     OW28440  13.384   3.688  12.082
 8848SOL    HW128441  13.461   3.655  12.037
 8848SOL    HW228442  13.310   3.650  12.035
 8849SOL     OW28443  10.611   3.554  14.766
 8849SOL    HW128444  10.684   3.495  14.785
 8849SOL    HW228445  10.593   3.541  14.673
 8850SOL     OW28446   4.842   7.179  14.783
 8850SOL    HW128447   4.865   7.089  14.759
 8850SOL    HW228448   4.763   7.170  14.835
 8851SOL     OW28449  14.525   5.863   2.344
 8851SOL    HW128450  14.516   5.822   2.431
 8851SOL    HW228451  14.567   5.947   2.362
 8852SOL     OW28452   0.496  14.134   7.051
 8852SOL    HW128453   0.462  14.073   6.985
 8852SOL    HW228454   0.425  14.197   7.064
 8853SOL     OW28455   4.898  12.555   8.689
 8853SOL    HW128456   4.962  12.620   8.661
 8853SOL    HW228457   4.858  12.525   8.608
 8854SOL     OW28458   2.599  10.361   6.258
 8854SOL    HW128459   2.631  10.349   6.348
 8854SOL    HW228460   2.511  10.396   6.268
 8855SOL     OW28461   8.688   4.712   8.776
 8855SOL    HW128462   8.631   4.767   8.830
 8855SOL    HW228463   8.774   4.752   8.785
 8856SOL     OW28464  12.229   2.347   3.555
 8856SOL    HW128465  12.316   2.386   3.543
 8856SOL    HW228466  12.178   2.416   3.598
 8857SOL     OW28467   2.393   7.216  13.085
 8857SOL    HW128468   2.358   7.129  13.069
 8857SOL    HW228469   2.459   7.228  13.017
 8858SOL     OW28470  13.874   4.101   3.356
 8858SOL    HW128471  13.876   4.039   3.429
 8858SOL    HW228472  13.781   4.111   3.336
 8859SOL     OW28473  13.978   5.517   0.065
 8859SOL    HW128474  14.006   5.542   0.153
 8859SOL    HW228475  14.059   5.490   0.021
 8860SOL     OW28476   5.375  13.955   1.535
 8860SOL    HW128477   5.288  13.922   1.514
 8860SOL    HW228478   5.432  13.878   1.533
 8861SOL     OW28479   2.043   8.523   3.469
 8861SOL    HW128480   1.977   8.563   3.413
 8861SOL    HW228481   2.065   8.441   3.425
 8862SOL     OW28482  11.828   0.617   5.380
 8862SOL    HW128483  11.840   0.532   5.338
 8862SOL    HW228484  11.741   0.612   5.421
 8863SOL     OW28485   2.091  10.841   3.350
 8863SOL    HW128486   2.055  10.821   3.437
 8863SOL    HW228487   2.062  10.930   3.332
 8864SOL     OW28488  14.818  11.865  12.854
 8864SOL    HW128489  14.878  11.832  12.787
 8864SOL    HW228490  14.731  11.859  12.813
 8865SOL     OW28491   6.656   3.505   1.294
 8865SOL    HW128492   6.638   3.498   1.201
 8865SOL    HW228493   6.578   3.466   1.336
 8866SOL     OW28494   4.818  13.249   8.103
 8866SOL    HW128495   4.796  13.163   8.139
 8866SOL    HW228496   4.842  13.301   8.179
 8867SOL     OW28497   9.156   7.647   5.789
 8867SOL    HW128498   9.215   7.626   5.717
 8867SOL    HW228499   9.159   7.742   5.795
 8868SOL     OW28500  12.149   2.096  13.107
 8868SOL    HW128501  12.077   2.150  13.138
 8868SOL    HW228502  12.189   2.148  13.037
 8869SOL     OW28503   6.506   3.907   1.728
 8869SOL    HW128504   6.413   3.922   1.712
 8869SOL    HW228505   6.550   3.937   1.648
 8870SOL     OW28506  13.033   9.460   6.024
 8870SOL    HW128507  13.053   9.460   5.931
 8870SOL    HW228508  13.025   9.368   6.047
 8871SOL     OW28509  13.674   6.077   2.243
 8871SOL    HW128510  13.692   5.990   2.278
 8871SOL    HW228511  13.584   6.072   2.211
 8872SOL     OW28512   9.895   7.122   2.719
 8872SOL    HW128513   9.959   7.190   2.698
 8872SOL    HW228514   9.838   7.163   2.785
 8873SOL     OW28515   6.556  11.663  13.803
 8873SOL    HW128516   6.481  11.704  13.759
 8873SOL    HW228517   6.559  11.703  13.889
 8874SOL     OW28518   0.375   4.008   8.540
 8874SOL    HW128519   0.376   4.091   8.492
 8874SOL    HW228520   0.299   4.014   8.598
 8875SOL     OW28521   7.097   9.096   6.701
 8875SOL    HW128522   7.056   9.054   6.776
 8875SOL    HW228523   7.029   9.152   6.664
 8876SOL     OW28524   8.042  12.998   3.954
 8876SOL    HW128525   8.056  12.905   3.967
 8876SOL    HW228526   7.958  13.016   3.997
 8877SOL     OW28527   9.494   9.570   5.988
 8877SOL    HW128528   9.506   9.528   5.903
 8877SOL    HW228529   9.468   9.499   6.046
 8878SOL     OW28530   5.478   4.858   2.516
 8878SOL    HW128531   5.440   4.917   2.581
 8878SOL    HW228532   5.428   4.874   2.436
 8879SOL     OW28533   8.724   1.713   6.271
 8879SOL    HW128534   8.720   1.635   6.326
 8879SOL    HW228535   8.757   1.782   6.329
 8880SOL     OW28536  14.283   1.341  14.588
 8880SOL    HW128537  14.329   1.324  14.506
 8880SOL    HW228538  14.279   1.436  14.594
 8881SOL     OW28539   3.079  11.638   7.780
 8881SOL    HW128540   3.039  11.725   7.773
 8881SOL    HW228541   3.041  11.601   7.860
 8882SOL     OW28542   4.412   9.686   3.843
 8882SOL    HW128543   4.455   9.653   3.764
 8882SOL    HW228544   4.357   9.614   3.873
 8883SOL     OW28545   8.646   9.767   6.149
 8883SOL    HW128546   8.635   9.851   6.104
 8883SOL    HW228547   8.616   9.702   6.086
 8884SOL     OW28548   6.308   3.467   0.321
 8884SOL    HW128549   6.329   3.461   0.228
 8884SOL    HW228550   6.312   3.377   0.353
 8885SOL     OW28551   9.211  11.712   3.381
 8885SOL    HW128552   9.141  11.684   3.441
 8885SOL    HW228553   9.182  11.797   3.347
 8886SOL     OW28554   2.483  12.907   2.158
 8886SOL    HW128555   2.509  12.875   2.071
 8886SOL    HW228556   2.387  12.908   2.155
 8887SOL     OW28557  12.136   2.826   8.978
 8887SOL    HW128558  12.120   2.900   8.919
 8887SOL    HW228559  12.154   2.752   8.919
 8888SOL     OW28560   9.541  11.912  12.200
 8888SOL    HW128561   9.566  11.966  12.126
 8888SOL    HW228562   9.448  11.932  12.214
 8889SOL     OW28563  10.322  13.275  14.252
 8889SOL    HW128564  10.366  13.252  14.170
 8889SOL    HW228565  10.382  13.336  14.295
 8890SOL     OW28566   3.976  10.064  10.343
 8890SOL    HW128567   3.899  10.080  10.288
 8890SOL    HW228568   3.941  10.019  10.420
 8891SOL     OW28569   6.210   5.519   1.858
 8891SOL    HW128570   6.127   5.562   1.879
 8891SOL    HW228571   6.202   5.431   1.896
 8892SOL     OW28572   6.330  11.586   3.050
 8892SOL    HW128573   6.394  11.533   3.002
 8892SOL    HW228574   6.278  11.629   2.981
 8893SOL     OW28575   0.690  13.956  12.220
 8893SOL    HW128576   0.612  13.962  12.275
 8893SOL    HW228577   0.729  14.043  12.222
 8894SOL     OW28578  14.571  13.949   0.552
 8894SOL    HW128579  14.620  13.942   0.633
 8894SOL    HW228580  14.632  13.986   0.489
 8895SOL     OW28581   5.362   0.436   9.382
 8895SOL    HW128582   5.369   0.530   9.363
 8895SOL    HW228583   5.387   0.428   9.474
 8896SOL     OW28584   1.024   8.277   9.194
 8896SOL    HW128585   1.064   8.356   9.157
 8896SOL    HW228586   0.968   8.244   9.125
 8897SOL     OW28587   0.777  11.535  10.742
 8897SOL    HW128588   0.696  11.487  10.756
 8897SOL    HW228589   0.774  11.607  10.805
 8898SOL     OW28590  13.442   1.836   9.420
 8898SOL    HW128591  13.359   1.813   9.378
 8898SOL    HW228592  13.499   1.762   9.402
 8899SOL     OW28593   0.485   5.568  11.640
 8899SOL    HW128594   0.466   5.552  11.732
 8899SOL    HW228595   0.474   5.662  11.628
 8900SOL     OW28596   7.126   8.714   3.887
 8900SOL    HW128597   7.146   8.808   3.887
 8900SOL    HW228598   7.166   8.682   3.968
 8901SOL     OW28599   9.248   8.464   7.492
 8901SOL    HW128600   9.191   8.393   7.521
 8901SOL    HW228601   9.213   8.542   7.536
 8902SOL     OW28602  14.321   1.296   5.281
 8902SOL    HW128603  14.392   1.337   5.231
 8902SOL    HW228604  14.298   1.361   5.347
 8903SOL     OW28605   2.879   5.407   3.424
 8903SOL    HW128606   2.892   5.502   3.422
 8903SOL    HW228607   2.960   5.372   3.461
 8904SOL     OW28608  10.662  11.864   3.197
 8904SOL    HW128609  10.597  11.900   3.258
 8904SOL    HW228610  10.611  11.841   3.119
 8905SOL     OW28611   7.012   4.001  11.377
 8905SOL    HW128612   6.926   4.033  11.349
 8905SOL    HW228613   7.004   3.990  11.471
 8906SOL     OW28614   8.681  11.117   0.550
 8906SOL    HW128615   8.734  11.042   0.524
 8906SOL    HW228616   8.592  11.083   0.558
 8907SOL     OW28617   0.353   0.041   8.655
 8907SOL    HW128618   0.353   0.136   8.661
 8907SOL    HW228619   0.433   0.020   8.607
 8908SOL     OW28620  12.853  13.870  13.912
 8908SOL    HW128621  12.895  13.792  13.949
 8908SOL    HW228622  12.771  13.878  13.961
 8909SOL     OW28623  13.934  10.178   3.188
 8909SOL    HW128624  13.966  10.172   3.098
 8909SOL    HW228625  13.930  10.088   3.218
 8910SOL     OW28626  12.884  13.904  11.810
 8910SOL    HW128627  12.819  13.966  11.843
 8910SOL    HW228628  12.870  13.903  11.715
 8911SOL     OW28629   9.536   8.309   9.497
 8911SOL    HW128630   9.556   8.229   9.449
 8911SOL    HW228631   9.576   8.296   9.583
 8912SOL     OW28632  10.663  10.575  13.916
 8912SOL    HW128633  10.650  10.631  13.840
 8912SOL    HW228634  10.685  10.637  13.987
 8913SOL     OW28635  11.211   4.389   0.653
 8913SOL    HW128636  11.299   4.379   0.618
 8913SOL    HW228637  11.156   4.333   0.599
 8914SOL     OW28638   5.860  14.096   1.819
 8914SOL    HW128639   5.856  14.069   1.910
 8914SOL    HW228640   5.785  14.154   1.807
 8915SOL     OW28641   7.286   4.514   2.153
 8915SOL    HW128642   7.217   4.457   2.187
 8915SOL    HW228643   7.262   4.601   2.183
 8916SOL     OW28644  11.753   6.179  11.751
 8916SOL    HW128645  11.732   6.254  11.806
 8916SOL    HW228646  11.670   6.131  11.744
 8917SOL     OW28647   9.510   7.956   6.566
 8917SOL    HW128648   9.457   7.879   6.587
 8917SOL    HW228649   9.599   7.922   6.555
 8918SOL     OW28650  12.712  14.104  10.456
 8918SOL    HW128651  12.646  14.168  10.481
 8918SOL    HW228652  12.776  14.155  10.404
 8919SOL     OW28653   3.611   7.173   7.071
 8919SOL    HW128654   3.672   7.102   7.091
 8919SOL    HW228655   3.665   7.252   7.073
 8920SOL     OW28656   8.384  12.899   8.766
 8920SOL    HW128657   8.312  12.853   8.809
 8920SOL    HW228658   8.354  12.913   8.676
 8921SOL     OW28659   4.279   7.753   4.171
 8921SOL    HW128660   4.335   7.828   4.189
 8921SOL    HW228661   4.308   7.686   4.234
 8922SOL     OW28662  12.708   1.950   0.008
 8922SOL    HW128663  12.784   1.969   0.061
 8922SOL    HW228664  12.740   1.889  14.828
 8923SOL     OW28665   4.791   9.762  10.933
 8923SOL    HW128666   4.791   9.746  11.027
 8923SOL    HW228667   4.747   9.686  10.896
 8924SOL     OW28668  13.533  12.638   3.382
 8924SOL    HW128669  13.469  12.602   3.321
 8924SOL    HW228670  13.480  12.687   3.446
 8925SOL     OW28671   6.632   8.545   3.055
 8925SOL    HW128672   6.599   8.634   3.051
 8925SOL    HW228673   6.728   8.555   3.055
 8926SOL     OW28674   3.602  10.684   7.348
 8926SOL    HW128675   3.538  10.631   7.395
 8926SOL    HW228676   3.614  10.640   7.264
 8927SOL     OW28677   5.550   1.122   2.838
 8927SOL    HW128678   5.469   1.131   2.888
 8927SOL    HW228679   5.616   1.095   2.902
 8928SOL     OW28680   8.701   4.738   5.425
 8928SOL    HW128681   8.699   4.788   5.343
 8928SOL    HW228682   8.625   4.679   5.418
 8929SOL     OW28683   7.450   3.195   3.583
 8929SOL    HW128684   7.398   3.211   3.505
 8929SOL    HW228685   7.511   3.269   3.587
 8930SOL     OW28686  10.777  10.348  11.044
 8930SOL    HW128687  10.869  10.371  11.049
 8930SOL    HW228688  10.764  10.284  11.114
 8931SOL     OW28689   9.649   9.486  11.567
 8931SOL    HW128690   9.708   9.461  11.497
 8931SOL    HW228691   9.638   9.581  11.557
 8932SOL     OW28692   3.224   7.530   1.683
 8932SOL    HW128693   3.131   7.535   1.660
 8932SOL    HW228694   3.266   7.595   1.627
 8933SOL     OW28695  14.429   1.675  11.707
 8933SOL    HW128696  14.518   1.650  11.683
 8933SOL    HW228697  14.376   1.597  11.690
 8934SOL     OW28698   8.489   5.036  10.819
 8934SOL    HW128699   8.458   4.993  10.898
 8934SOL    HW228700   8.561   5.092  10.849
 8935SOL     OW28701   4.470  12.283   5.931
 8935SOL    HW128702   4.442  12.236   5.853
 8935SOL    HW228703   4.406  12.354   5.940
 8936SOL     OW28704   9.704  13.431  11.931
 8936SOL    HW128705   9.646  13.485  11.878
 8936SOL    HW228706   9.769  13.398  11.869
 8937SOL     OW28707  14.116  14.342   9.046
 8937SOL    HW128708  14.186  14.278   9.041
 8937SOL    HW228709  14.036  14.291   9.060
 8938SOL     OW28710   7.865   4.096   3.558
 8938SOL    HW128711   7.798   4.128   3.498
 8938SOL    HW228712   7.847   4.003   3.568
 8939SOL     OW28713  10.596   3.987  12.985
 8939SOL    HW128714  10.613   3.987  13.079
 8939SOL    HW228715  10.502   4.006  12.977
 8940SOL     OW28716   0.861   0.431  10.737
 8940SOL    HW128717   0.938   0.446  10.682
 8940SOL    HW228718   0.793   0.404  10.676
 8941SOL     OW28719   1.605   3.332   9.708
 8941SOL    HW128720   1.548   3.409   9.704
 8941SOL    HW228721   1.672   3.348   9.641
 8942SOL     OW28722   8.079   5.595   1.199
 8942SOL    HW128723   8.173   5.608   1.204
 8942SOL    HW228724   8.042   5.683   1.207
 8943SOL     OW28725   1.795   9.296   5.854
 8943SOL    HW128726   1.800   9.264   5.944
 8943SOL    HW228727   1.797   9.216   5.801
 8944SOL     OW28728   1.825   9.579   2.003
 8944SOL    HW128729   1.896   9.529   2.043
 8944SOL    HW228730   1.784   9.625   2.077
 8945SOL     OW28731  12.070   3.608  12.975
 8945SOL    HW128732  12.073   3.588  12.882
 8945SOL    HW228733  11.994   3.561  13.008
 8946SOL     OW28734   3.938   9.680  10.187
 8946SOL    HW128735   3.873   9.610  10.194
 8946SOL    HW228736   4.000   9.661  10.257
 8947SOL     OW28737   4.486   5.915   9.000
 8947SOL    HW128738   4.424   5.845   9.018
 8947SOL    HW228739   4.437   5.977   8.946
 8948SOL     OW28740   0.225   7.822  12.461
 8948SOL    HW128741   0.208   7.825  12.555
 8948SOL    HW228742   0.150   7.866  12.422
 8949SOL     OW28743   4.348  13.190  11.826
 8949SOL    HW128744   4.293  13.238  11.764
 8949SOL    HW228745   4.352  13.245  11.904
 8950SOL     OW28746   8.476   6.739   6.414
 8950SOL    HW128747   8.487   6.801   6.486
 8950SOL    HW228748   8.432   6.791   6.346
 8951SOL     OW28749  11.418   4.508  13.394
 8951SOL    HW128750  11.479   4.439  13.370
 8951SOL    HW228751  11.464   4.561  13.459
 8952SOL     OW28752  13.053   5.082   2.108
 8952SOL    HW128753  13.078   5.121   2.024
 8952SOL    HW228754  13.136   5.066   2.153
 8953SOL     OW28755   0.858  14.242   3.373
 8953SOL    HW128756   0.911  14.217   3.449
 8953SOL    HW228757   0.903  14.316   3.335
 8954SOL     OW28758   3.923   9.372   5.923
 8954SOL    HW128759   3.852   9.318   5.888
 8954SOL    HW228760   3.937   9.439   5.857
 8955SOL     OW28761   0.946   2.438   8.646
 8955SOL    HW128762   0.918   2.527   8.665
 8955SOL    HW228763   1.024   2.424   8.700
 8956SOL     OW28764   5.024   4.652   7.524
 8956SOL    HW128765   4.937   4.649   7.484
 8956SOL    HW228766   5.084   4.625   7.454
 8957SOL     OW28767   1.280   2.365  14.319
 8957SOL    HW128768   1.292   2.306  14.244
 8957SOL    HW228769   1.202   2.331  14.363
 8958SOL     OW28770   4.523   5.396  14.111
 8958SOL    HW128771   4.516   5.304  14.133
 8958SOL    HW228772   4.469   5.441  14.177
 8959SOL     OW28773   9.610   4.775   7.730
 8959SOL    HW128774   9.692   4.818   7.709
 8959SOL    HW228775   9.616   4.755   7.824
 8960SOL     OW28776   6.681   2.251  14.223
 8960SOL    HW128777   6.724   2.334  14.246
 8960SOL    HW228778   6.724   2.224  14.142
 8961SOL     OW28779   4.610  13.099  11.326
 8961SOL    HW128780   4.535  13.068  11.377
 8961SOL    HW228781   4.614  13.193  11.343
 8962SOL     OW28782   1.758   3.873   1.202
 8962SOL    HW128783   1.740   3.925   1.124
 8962SOL    HW228784   1.766   3.783   1.171
 8963SOL     OW28785  14.572   6.118  14.478
 8963SOL    HW128786  14.575   6.031  14.439
 8963SOL    HW228787  14.617   6.108  14.563
 8964SOL     OW28788   1.313   5.765   1.617
 8964SOL    HW128789   1.408   5.751   1.611
 8964SOL    HW228790   1.298   5.792   1.708
 8965SOL     OW28791   6.111  11.817   7.629
 8965SOL    HW128792   6.025  11.846   7.660
 8965SOL    HW228793   6.132  11.876   7.557
 8966SOL     OW28794   5.820  10.413   4.854
 8966SOL    HW128795   5.817  10.373   4.941
 8966SOL    HW228796   5.847  10.503   4.870
 8967SOL     OW28797  14.733   3.034   0.207
 8967SOL    HW128798  14.745   2.949   0.164
 8967SOL    HW228799  14.754   3.098   0.140
 8968SOL     OW28800   2.506   0.478   8.016
 8968SOL    HW128801   2.416   0.482   7.984
 8968SOL    HW228802   2.554   0.435   7.945
 8969SOL     OW28803  12.306   6.855   2.687
 8969SOL    HW128804  12.378   6.880   2.745
 8969SOL    HW228805  12.262   6.937   2.666
 8970SOL     OW28806   5.748  14.400  13.562
 8970SOL    HW128807   5.753  14.443  13.476
 8970SOL    HW228808   5.686  14.328  13.548
 8971SOL     OW28809   2.527   5.776   9.956
 8971SOL    HW128810   2.484   5.852   9.917
 8971SOL    HW228811   2.458   5.731  10.005
 8972SOL     OW28812   5.572   5.920   4.896
 8972SOL    HW128813   5.605   5.915   4.806
 8972SOL    HW228814   5.544   6.010   4.906
 8973SOL     OW28815  12.335   3.543   4.899
 8973SOL    HW128816  12.252   3.552   4.852
 8973SOL    HW228817  12.309   3.520   4.988
 8974SOL     OW28818   6.808   4.244   5.829
 8974SOL    HW128819   6.898   4.262   5.800
 8974SOL    HW228820   6.791   4.311   5.896
 8975SOL     OW28821   8.728  10.695  12.626
 8975SOL    HW128822   8.660  10.762  12.626
 8975SOL    HW228823   8.710  10.642  12.704
 8976SOL     OW28824  10.132   6.627   2.545
 8976SOL    HW128825  10.208   6.580   2.511
 8976SOL    HW228826  10.160   6.718   2.547
 8977SOL     OW28827   6.310  14.310  14.294
 8977SOL    HW128828   6.269  14.324  14.209
 8977SOL    HW228829   6.303  14.216  14.309
 8978SOL     OW28830   7.628  12.795   4.145
 8978SOL    HW128831   7.586  12.749   4.217
 8978SOL    HW228832   7.561  12.855   4.112
 8979SOL     OW28833   1.317   1.817   7.261
 8979SOL    HW128834   1.254   1.848   7.196
 8979SOL    HW228835   1.263   1.782   7.332
 8980SOL     OW28836   5.563  10.915   5.209
 8980SOL    HW128837   5.481  10.867   5.197
 8980SOL    HW228838   5.593  10.934   5.121
 8981SOL     OW28839   6.389   5.811   5.084
 8981SOL    HW128840   6.481   5.836   5.079
 8981SOL    HW228841   6.345   5.888   5.119
 8982SOL     OW28842   8.848   0.864  11.301
 8982SOL    HW128843   8.897   0.841  11.380
 8982SOL    HW228844   8.842   0.781  11.253
 8983SOL     OW28845   2.117   4.661   8.091
 8983SOL    HW128846   2.204   4.668   8.130
 8983SOL    HW228847   2.075   4.744   8.113
 8984SOL     OW28848  11.611  13.504   3.655
 8984SOL    HW128849  11.571  13.590   3.666
 8984SOL    HW228850  11.546  13.442   3.688
 8985SOL     OW28851   7.162  11.430   5.043
 8985SOL    HW128852   7.153  11.385   5.126
 8985SOL    HW228853   7.144  11.363   4.977
 8986SOL     OW28854  14.148   1.631  14.877
 8986SOL    HW128855  14.243   1.624   0.000
 8986SOL    HW228856  14.121   1.545  14.845
 8987SOL     OW28857   9.733  14.242   1.793
 8987SOL    HW128858   9.720  14.285   1.878
 8987SOL    HW228859   9.671  14.285   1.734
 8988SOL     OW28860  12.592   8.467   1.734
 8988SOL    HW128861  12.577   8.389   1.787
 8988SOL    HW228862  12.681   8.495   1.756
 8989SOL     OW28863   2.593   2.932   6.751
 8989SOL    HW128864   2.640   2.950   6.669
 8989SOL    HW228865   2.653   2.959   6.820
 8990SOL     OW28866   2.971   9.759   8.213
 8990SOL    HW128867   2.914   9.739   8.288
 8990SOL    HW228868   3.011   9.675   8.191
 8991SOL     OW28869   5.276   1.336   8.940
 8991SOL    HW128870   5.206   1.321   9.004
 8991SOL    HW228871   5.357   1.330   8.991
 8992SOL     OW28872   7.615  11.685  14.744
 8992SOL    HW128873   7.619  11.771  14.785
 8992SOL    HW228874   7.584  11.627  14.814
 8993SOL     OW28875   8.358   4.816   3.299
 8993SOL    HW128876   8.324   4.728   3.317
 8993SOL    HW228877   8.326   4.869   3.372
 8994SOL     OW28878  12.503   2.502  14.272
 8994SOL    HW128879  12.451   2.471  14.346
 8994SOL    HW228880  12.464   2.586  14.250
 8995SOL     OW28881   6.376  12.123   2.968
 8995SOL    HW128882   6.364  12.168   2.884
 8995SOL    HW228883   6.393  12.192   3.031
 8996SOL     OW28884   7.249   5.182   7.301
 8996SOL    HW128885   7.195   5.258   7.276
 8996SOL    HW228886   7.251   5.127   7.223
 8997SOL     OW28887   1.863   8.252  14.379
 8997SOL    HW128888   1.877   8.315  14.308
 8997SOL    HW228889   1.910   8.174  14.351
 8998SOL     OW28890  10.519   3.053   1.323
 8998SOL    HW128891  10.455   3.048   1.252
 8998SOL    HW228892  10.604   3.046   1.280
 8999SOL     OW28893  11.614   4.192   7.052
 8999SOL    HW128894  11.654   4.131   7.114
 8999SOL    HW228895  11.531   4.217   7.092
 9000SOL     OW28896  10.841   2.844  14.270
 9000SOL    HW128897  10.795   2.892  14.201
 9000SOL    HW228898  10.932   2.840  14.240
 9001SOL     OW28899   6.346  11.637   5.591
 9001SOL    HW128900   6.382  11.723   5.614
 9001SOL    HW228901   6.278  11.621   5.656
 9002SOL     OW28902   3.025  10.617   8.097
 9002SOL    HW128903   2.938  10.581   8.084
 9002SOL    HW228904   3.012  10.688   8.161
 9003SOL     OW28905   9.026  11.554   8.019
 9003SOL    HW128906   9.068  11.509   7.946
 9003SOL    HW228907   8.943  11.585   7.984
 9004SOL     OW28908   9.469   2.979   7.863
 9004SOL    HW128909   9.516   2.897   7.850
 9004SOL    HW228910   9.537   3.042   7.887
 9005SOL     OW28911   1.900   5.918  10.692
 9005SOL    HW128912   1.925   5.867  10.615
 9005SOL    HW228913   1.809   5.895  10.708
 9006SOL     OW28914   2.171   9.114   7.736
 9006SOL    HW128915   2.132   9.103   7.823
 9006SOL    HW228916   2.250   9.060   7.738
 9007SOL     OW28917   6.044  12.112   0.133
 9007SOL    HW128918   5.967  12.125   0.189
 9007SOL    HW228919   6.047  12.017   0.120
 9008SOL     OW28920  11.391  14.280  13.237
 9008SOL    HW128921  11.297  14.296  13.242
 9008SOL    HW228922  11.425  14.313  13.320
 9009SOL     OW28923   4.321   9.500   6.178
 9009SOL    HW128924   4.382   9.490   6.250
 9009SOL    HW228925   4.304   9.411   6.148
 9010SOL     OW28926   0.700   0.158   5.024
 9010SOL    HW128927   0.721   0.116   5.107
 9010SOL    HW228928   0.764   0.229   5.016
 9011SOL     OW28929  12.217   7.438   2.090
 9011SOL    HW128930  12.191   7.526   2.116
 9011SOL    HW228931  12.176   7.425   2.004
 9012SOL     OW28932  11.595   9.665   8.564
 9012SOL    HW128933  11.608   9.655   8.658
 9012SOL    HW228934  11.568   9.757   8.554
 9013SOL     OW28935   2.892  12.173   8.360
 9013SOL    HW128936   2.858  12.232   8.428
 9013SOL    HW228937   2.945  12.109   8.408
 9014SOL     OW28938  10.366   6.707   4.397
 9014SOL    HW128939  10.307   6.631   4.396
 9014SOL    HW228940  10.406   6.705   4.484
 9015SOL     OW28941   3.683   1.032   0.179
 9015SOL    HW128942   3.688   1.119   0.139
 9015SOL    HW228943   3.738   0.977   0.123
 9016SOL     OW28944   0.029  14.287   3.230
 9016SOL    HW128945  14.860  14.210   3.214
 9016SOL    HW228946   0.036  14.291   3.326
 9017SOL     OW28947   5.669   1.451   8.184
 9017SOL    HW128948   5.716   1.438   8.266
 9017SOL    HW228949   5.738   1.464   8.119
 9018SOL     OW28950   7.947   6.408   0.395
 9018SOL    HW128951   7.977   6.448   0.313
 9018SOL    HW228952   7.973   6.471   0.463
 9019SOL     OW28953   8.120   6.052   1.752
 9019SOL    HW128954   8.062   6.081   1.681
 9019SOL    HW228955   8.201   6.027   1.707
 9020SOL     OW28956   3.648   2.108  10.808
 9020SOL    HW128957   3.741   2.127  10.811
 9020SOL    HW228958   3.641   2.017  10.836
 9021SOL     OW28959   6.219   2.403   8.387
 9021SOL    HW128960   6.128   2.433   8.390
 9021SOL    HW228961   6.216   2.323   8.335
 9022SOL     OW28962   3.537   3.479  10.167
 9022SOL    HW128963   3.499   3.566  10.158
 9022SOL    HW228964   3.621   3.484  10.121
 9023SOL     OW28965   2.766   2.066   6.706
 9023SOL    HW128966   2.708   2.133   6.671
 9023SOL    HW228967   2.851   2.084   6.666
 9024SOL     OW28968  13.553   7.199   5.787
 9024SOL    HW128969  13.459   7.190   5.800
 9024SOL    HW228970  13.575   7.284   5.825
 9025SOL     OW28971   0.162   2.110   9.408
 9025SOL    HW128972   0.134   2.201   9.414
 9025SOL    HW228973   0.111   2.073   9.336
 9026SOL     OW28974   5.020  10.084   3.356
 9026SOL    HW128975   5.027  10.000   3.402
 9026SOL    HW228976   5.109  10.102   3.325
 9027SOL     OW28977   0.516  14.129   2.012
 9027SOL    HW128978   0.489  14.089   2.095
 9027SOL    HW228979   0.537  14.055   1.955
 9028SOL     OW28980  13.196   1.607  11.732
 9028SOL    HW128981  13.271   1.664  11.716
 9028SOL    HW228982  13.207   1.534  11.672
 9029SOL     OW28983   9.709   5.738   9.672
 9029SOL    HW128984   9.776   5.793   9.631
 9029SOL    HW228985   9.674   5.686   9.600
 9030SOL     OW28986  14.535   9.713   3.827
 9030SOL    HW128987  14.574   9.763   3.899
 9030SOL    HW228988  14.600   9.647   3.804
 9031SOL     OW28989   3.790   9.155  10.437
 9031SOL    HW128990   3.834   9.161  10.521
 9031SOL    HW228991   3.725   9.085  10.449
 9032SOL     OW28992   0.690   2.822   4.582
 9032SOL    HW128993   0.616   2.782   4.627
 9032SOL    HW228994   0.650   2.872   4.510
 9033SOL     OW28995  10.156  13.793   0.924
 9033SOL    HW128996  10.161  13.844   1.005
 9033SOL    HW228997  10.157  13.702   0.953
 9034SOL     OW28998   2.525  11.690  12.307
 9034SOL    HW128999   2.613  11.679  12.344
 9034SOL    HW229000   2.520  11.623  12.239
 9035SOL     OW29001   3.229   0.553  13.571
 9035SOL    HW129002   3.218   0.487  13.640
 9035SOL    HW229003   3.147   0.550  13.522
 9036SOL     OW29004   6.763  10.086   1.286
 9036SOL    HW129005   6.836  10.148   1.292
 9036SOL    HW229006   6.787  10.029   1.213
 9037SOL     OW29007  11.123   9.445   8.102
 9037SOL    HW129008  11.143   9.353   8.084
 9037SOL    HW229009  11.209   9.486   8.116
 9038SOL     OW29010  12.313   3.431   9.809
 9038SOL    HW129011  12.406   3.419   9.830
 9038SOL    HW229012  12.283   3.498   9.871
 9039SOL     OW29013  11.973   9.450  14.335
 9039SOL    HW129014  11.976   9.419  14.244
 9039SOL    HW229015  12.050   9.505  14.345
 9040SOL     OW29016  11.169  11.619  13.511
 9040SOL    HW129017  11.177  11.599  13.417
 9040SOL    HW229018  11.096  11.566  13.541
 9041SOL     OW29019   7.510  10.448  14.657
 9041SOL    HW129020   7.512  10.388  14.583
 9041SOL    HW229021   7.417  10.467  14.671
 9042SOL     OW29022   0.649  12.290   9.694
 9042SOL    HW129023   0.557  12.269   9.673
 9042SOL    HW229024   0.649  12.385   9.706
 9043SOL     OW29025  13.475  13.637   2.858
 9043SOL    HW129026  13.434  13.617   2.774
 9043SOL    HW229027  13.544  13.700   2.838
 9044SOL     OW29028  10.666   9.428   2.660
 9044SOL    HW129029  10.669   9.335   2.637
 9044SOL    HW229030  10.685   9.473   2.578
 9045SOL     OW29031   8.458  12.992   5.848
 9045SOL    HW129032   8.482  12.929   5.780
 9045SOL    HW229033   8.388  12.950   5.898
 9046SOL     OW29034   8.552  13.498  10.421
 9046SOL    HW129035   8.595  13.566  10.474
 9046SOL    HW229036   8.461  13.501  10.450
 9047SOL     OW29037  14.291  10.706   8.628
 9047SOL    HW129038  14.379  10.722   8.593
 9047SOL    HW229039  14.241  10.783   8.604
 9048SOL     OW29040   9.438   3.364   7.684
 9048SOL    HW129041   9.433   3.353   7.779
 9048SOL    HW229042   9.361   3.317   7.651
 9049SOL     OW29043  14.465   0.948  10.353
 9049SOL    HW129044  14.534   0.882  10.355
 9049SOL    HW229045  14.471   0.990  10.439
 9050SOL     OW29046   8.573   4.140  13.110
 9050SOL    HW129047   8.593   4.102  13.025
 9050SOL    HW229048   8.626   4.089  13.172
 9051SOL     OW29049  10.754  11.313   7.099
 9051SOL    HW129050  10.828  11.372   7.114
 9051SOL    HW229051  10.754  11.255   7.175
 9052SOL     OW29052   5.305   6.422   6.576
 9052SOL    HW129053   5.334   6.507   6.609
 9052SOL    HW229054   5.386   6.370   6.571
 9053SOL     OW29055   8.176   9.928   7.726
 9053SOL    HW129056   8.145   9.883   7.647
 9053SOL    HW229057   8.102   9.927   7.785
 9054SOL     OW29058  12.444  12.933   4.049
 9054SOL    HW129059  12.421  12.943   3.957
 9054SOL    HW229060  12.363  12.904   4.091
 9055SOL     OW29061  13.734  11.106  11.311
 9055SOL    HW129062  13.815  11.064  11.282
 9055SOL    HW229063  13.697  11.145  11.232
 9056SOL     OW29064   9.362   1.536   6.873
 9056SOL    HW129065   9.353   1.614   6.927
 9056SOL    HW229066   9.452   1.539   6.841
 9057SOL     OW29067  14.496  12.573  12.298
 9057SOL    HW129068  14.540  12.658  12.308
 9057SOL    HW229069  14.567  12.510  12.293
 9058SOL     OW29070  12.676   8.411   0.977
 9058SOL    HW129071  12.700   8.383   1.066
 9058SOL    HW229072  12.699   8.504   0.974
 9059SOL     OW29073  13.615   0.702  14.370
 9059SOL    HW129074  13.603   0.739  14.458
 9059SOL    HW229075  13.665   0.621  14.386
 9060SOL     OW29076   8.951   7.867   3.895
 9060SOL    HW129077   8.956   7.901   3.984
 9060SOL    HW229078   8.958   7.945   3.839
 9061SOL     OW29079   2.308   6.083   7.981
 9061SOL    HW129080   2.327   6.170   8.014
 9061SOL    HW229081   2.266   6.038   8.054
 9062SOL     OW29082   7.315   3.206   3.337
 9062SOL    HW129083   7.252   3.205   3.266
 9062SOL    HW229084   7.399   3.185   3.295
 9063SOL     OW29085  10.976   2.342   6.259
 9063SOL    HW129086  10.959   2.436   6.251
 9063SOL    HW229087  10.976   2.326   6.354
 9064SOL     OW29088   2.873  13.290   5.111
 9064SOL    HW129089   2.823  13.224   5.062
 9064SOL    HW229090   2.872  13.258   5.201
 9065SOL     OW29091   5.039   0.889   5.337
 9065SOL    HW129092   5.022   0.801   5.305
 9065SOL    HW229093   5.102   0.925   5.274
 9066SOL     OW29094   1.652   1.893   2.912
 9066SOL    HW129095   1.608   1.972   2.945
 9066SOL    HW229096   1.637   1.828   2.981
 9067SOL     OW29097   8.287   2.009   9.453
 9067SOL    HW129098   8.366   2.056   9.480
 9067SOL    HW229099   8.242   2.070   9.395
 9068SOL     OW29100  13.070   6.227   1.034
 9068SOL    HW129101  13.063   6.231   1.129
 9068SOL    HW229102  12.980   6.220   1.003
 9069SOL     OW29103   6.509  11.371  12.227
 9069SOL    HW129104   6.504  11.394  12.319
 9069SOL    HW229105   6.599  11.344  12.213
 9070SOL     OW29106   4.868   7.424   1.009
 9070SOL    HW129107   4.949   7.399   0.963
 9070SOL    HW229108   4.879   7.388   1.097
 9071SOL     OW29109  12.291   5.756   8.384
 9071SOL    HW129110  12.208   5.781   8.343
 9071SOL    HW229111  12.292   5.803   8.467
 9072SOL     OW29112   5.286   9.714  11.377
 9072SOL    HW129113   5.293   9.634  11.325
 9072SOL    HW229114   5.202   9.705  11.423
 9073SOL     OW29115   1.358  14.532   4.092
 9073SOL    HW129116   1.407  14.531   4.010
 9073SOL    HW229117   1.352  14.624   4.115
 9074SOL     OW29118   1.401   2.598   9.981
 9074SOL    HW129119   1.345   2.624   9.908
 9074SOL    HW229120   1.404   2.674  10.038
 9075SOL     OW29121   6.235   8.697   7.667
 9075SOL    HW129122   6.314   8.651   7.695
 9075SOL    HW229123   6.259   8.790   7.667
 9076SOL     OW29124   9.216   4.311   0.075
 9076SOL    HW129125   9.242   4.332   0.164
 9076SOL    HW229126   9.162   4.232   0.083
 9077SOL     OW29127   8.048   6.000  10.949
 9077SOL    HW129128   8.106   5.960  11.013
 9077SOL    HW229129   8.020   6.082  10.989
 9078SOL     OW29130   2.284  14.094   4.793
 9078SOL    HW129131   2.299  14.066   4.884
 9078SOL    HW229132   2.345  14.042   4.741
 9079SOL     OW29133  14.420  13.203   6.899
 9079SOL    HW129134  14.468  13.272   6.944
 9079SOL    HW229135  14.420  13.130   6.961
 9080SOL     OW29136   3.628  10.300   7.155
 9080SOL    HW129137   3.606  10.207   7.149
 9080SOL    HW229138   3.544  10.344   7.165
 9081SOL     OW29139   7.029  12.486   0.243
 9081SOL    HW129140   7.032  12.444   0.329
 9081SOL    HW229141   6.993  12.419   0.184
 9082SOL     OW29142  14.387   5.723   8.217
 9082SOL    HW129143  14.394   5.780   8.294
 9082SOL    HW229144  14.326   5.769   8.159
 9083SOL     OW29145   1.351   9.917   4.513
 9083SOL    HW129146   1.303   9.913   4.596
 9083SOL    HW229147   1.426   9.973   4.531
 9084SOL     OW29148   3.864   6.902  11.188
 9084SOL    HW129149   3.876   6.995  11.170
 9084SOL    HW229150   3.770   6.892  11.198
 9085SOL     OW29151   6.159   5.371   1.256
 9085SOL    HW129152   6.151   5.355   1.350
 9085SOL    HW229153   6.252   5.391   1.243
 9086SOL     OW29154   7.354   3.074  11.443
 9086SOL    HW129155   7.446   3.051  11.433
 9086SOL    HW229156   7.353   3.170  11.440
 9087SOL     OW29157  12.875   4.891  13.873
 9087SOL    HW129158  12.950   4.934  13.831
 9087SOL    HW229159  12.910   4.859  13.956
 9088SOL     OW29160   3.328  12.543   1.435
 9088SOL    HW129161   3.358  12.625   1.474
 9088SOL    HW229162   3.251  12.519   1.486
 9089SOL     OW29163   6.722   5.834  12.629
 9089SOL    HW129164   6.799   5.887  12.608
 9089SOL    HW229165   6.650   5.877  12.581
 9090SOL     OW29166   7.643   9.253   0.756
 9090SOL    HW129167   7.673   9.169   0.720
 9090SOL    HW229168   7.590   9.229   0.832
 9091SOL     OW29169   5.083   5.321   1.793
 9091SOL    HW129170   5.116   5.236   1.764
 9091SOL    HW229171   5.142   5.346   1.864
 9092SOL     OW29172  11.217   2.380   5.263
 9092SOL    HW129173  11.283   2.424   5.316
 9092SOL    HW229174  11.145   2.442   5.257
 9093SOL     OW29175  12.462   5.419  14.843
 9093SOL    HW129176  12.431   5.391  14.757
 9093SOL    HW229177  12.480   5.512  14.832
 9094SOL     OW29178  10.337  11.645   3.684
 9094SOL    HW129179  10.398  11.669   3.753
 9094SOL    HW229180  10.266  11.599   3.729
 9095SOL     OW29181   8.111   6.939   2.184
 9095SOL    HW129182   8.137   7.031   2.174
 9095SOL    HW229183   8.019   6.942   2.209
 9096SOL     OW29184   4.669   3.712  11.511
 9096SOL    HW129185   4.751   3.736  11.555
 9096SOL    HW229186   4.669   3.617  11.511
 9097SOL     OW29187  14.375   8.891  12.835
 9097SOL    HW129188  14.282   8.877  12.816
 9097SOL    HW229189  14.402   8.812  12.882
 9098SOL     OW29190   8.448   2.849  10.766
 9098SOL    HW129191   8.440   2.883  10.856
 9098SOL    HW229192   8.538   2.817  10.761
 9099SOL     OW29193  14.442   8.413   3.565
 9099SOL    HW129194  14.489   8.495   3.581
 9099SOL    HW229195  14.360   8.422   3.614
 9100SOL     OW29196  11.209   2.127  12.598
 9100SOL    HW129197  11.139   2.173  12.552
 9100SOL    HW229198  11.186   2.134  12.691
 9101SOL     OW29199  13.403   1.616  10.490
 9101SOL    HW129200  13.310   1.597  10.500
 9101SOL    HW229201  13.421   1.681  10.558
 9102SOL     OW29202   6.722   8.648  11.355
 9102SOL    HW129203   6.652   8.606  11.306
 9102SOL    HW229204   6.803   8.619  11.312
 9103SOL     OW29205   7.301  14.432   2.957
 9103SOL    HW129206   7.274  14.507   2.904
 9103SOL    HW229207   7.324  14.471   3.042
 9104SOL     OW29208   6.668   8.973   7.282
 9104SOL    HW129209   6.654   9.041   7.216
 9104SOL    HW229210   6.730   8.912   7.241
 9105SOL     OW29211   8.315  14.765   0.723
 9105SOL    HW129212   8.280  14.703   0.787
 9105SOL    HW229213   8.283  14.732   0.639
 9106SOL     OW29214  10.401   9.055   3.776
 9106SOL    HW129215  10.441   9.116   3.837
 9106SOL    HW229216  10.388   8.975   3.826
 9107SOL     OW29217   6.266   8.104   1.702
 9107SOL    HW129218   6.205   8.151   1.759
 9107SOL    HW229219   6.349   8.104   1.749
 9108SOL     OW29220   8.509   8.611   8.260
 9108SOL    HW129221   8.416   8.591   8.256
 9108SOL    HW229222   8.552   8.537   8.215
 9109SOL     OW29223   3.604  10.898   6.753
 9109SOL    HW129224   3.693  10.889   6.787
 9109SOL    HW229225   3.567  10.810   6.759
 9110SOL     OW29226   6.900   0.991   9.098
 9110SOL    HW129227   6.961   0.939   9.045
 9110SOL    HW229228   6.873   0.933   9.169
 9111SOL     OW29229  10.276   0.916  12.961
 9111SOL    HW129230  10.349   0.953  12.911
 9111SOL    HW229231  10.213   0.889  12.894
 9112SOL     OW29232   5.746  10.422   1.529
 9112SOL    HW129233   5.829  10.377   1.514
 9112SOL    HW229234   5.770  10.512   1.552
 9113SOL     OW29235  11.274  14.533   9.397
 9113SOL    HW129236  11.288  14.495   9.484
 9113SOL    HW229237  11.353  14.511   9.348
 9114SOL     OW29238  14.577   7.050   8.978
 9114SOL    HW129239  14.656   7.083   8.935
 9114SOL    HW229240  14.585   7.080   9.069
 9115SOL     OW29241   1.641  13.553   7.880
 9115SOL    HW129242   1.664  13.483   7.941
 9115SOL    HW229243   1.592  13.509   7.810
 9116SOL     OW29244   8.616   7.866  14.284
 9116SOL    HW129245   8.667   7.947  14.286
 9116SOL    HW229246   8.629   7.827  14.371
 9117SOL     OW29247   3.793   1.243   5.423
 9117SOL    HW129248   3.780   1.294   5.344
 9117SOL    HW229249   3.786   1.152   5.394
 9118SOL     OW29250   2.216  10.636   6.268
 9118SOL    HW129251   2.243  10.678   6.186
 9118SOL    HW229252   2.271  10.676   6.335
 9119SOL     OW29253   3.817   7.788   7.200
 9119SOL    HW129254   3.886   7.853   7.214
 9119SOL    HW229255   3.777   7.775   7.286
 9120SOL     OW29256  13.755  12.309   5.878
 9120SOL    HW129257  13.806  12.390   5.877
 9120SOL    HW229258  13.745  12.286   5.786
 9121SOL     OW29259  14.529  12.360   7.425
 9121SOL    HW129260  14.574  12.307   7.359
 9121SOL    HW229261  14.439  12.366   7.393
 9122SOL     OW29262   9.603  13.112   8.466
 9122SOL    HW129263   9.598  13.018   8.447
 9122SOL    HW229264   9.530  13.128   8.526
 9123SOL     OW29265  11.819  13.091  12.929
 9123SOL    HW129266  11.758  13.164  12.936
 9123SOL    HW229267  11.769  13.023  12.883
 9124SOL     OW29268   4.883  14.667   5.789
 9124SOL    HW129269   4.969  14.688   5.751
 9124SOL    HW229270   4.871  14.574   5.770
 9125SOL     OW29271   2.983   8.190   2.931
 9125SOL    HW129272   3.006   8.281   2.949
 9125SOL    HW229273   2.979   8.186   2.835
 9126SOL     OW29274  11.115   7.291  14.440
 9126SOL    HW129275  11.188   7.280  14.379
 9126SOL    HW229276  11.156   7.315  14.523
 9127SOL     OW29277   1.676  10.944  12.397
 9127SOL    HW129278   1.648  10.960  12.307
 9127SOL    HW229279   1.766  10.914  12.389
 9128SOL     OW29280  11.467  13.648   6.539
 9128SOL    HW129281  11.544  13.701   6.559
 9128SOL    HW229282  11.502  13.560   6.523
 9129SOL     OW29283   4.049   3.809  10.077
 9129SOL    HW129284   4.054   3.764   9.993
 9129SOL    HW229285   4.063   3.901  10.055
 9130SOL     OW29286   5.479   9.725   6.028
 9130SOL    HW129287   5.387   9.736   6.051
 9130SOL    HW229288   5.480   9.728   5.932
 9131SOL     OW29289  11.269   4.594   0.299
 9131SOL    HW129290  11.319   4.542   0.362
 9131SOL    HW229291  11.264   4.681   0.339
 9132SOL     OW29292  11.275   1.132   5.501
 9132SOL    HW129293  11.302   1.166   5.586
 9132SOL    HW229294  11.329   1.177   5.437
 9133SOL     OW29295   1.735   3.499   0.655
 9133SOL    HW129296   1.693   3.431   0.709
 9133SOL    HW229297   1.737   3.461   0.567
 9134SOL     OW29298   8.527   2.584  12.255
 9134SOL    HW129299   8.563   2.635  12.327
 9134SOL    HW229300   8.485   2.649  12.198
 9135SOL     OW29301  12.937  14.400  11.553
 9135SOL    HW129302  12.902  14.393  11.465
 9135SOL    HW229303  13.025  14.363  11.547
 9136SOL     OW29304   3.782   3.330   9.422
 9136SOL    HW129305   3.795   3.236   9.410
 9136SOL    HW229306   3.805   3.369   9.337
 9137SOL     OW29307   5.444  11.449   8.886
 9137SOL    HW129308   5.349  11.439   8.886
 9137SOL    HW229309   5.467  11.465   8.794
 9138SOL     OW29310   0.855  10.645   8.688
 9138SOL    HW129311   0.763  10.621   8.688
 9138SOL    HW229312   0.899  10.575   8.640
 9139SOL     OW29313  12.975   2.097  12.209
 9139SOL    HW129314  12.991   2.007  12.181
 9139SOL    HW229315  12.882   2.111  12.193
 9140SOL     OW29316  10.738  14.526  11.799
 9140SOL    HW129317  10.728  14.592  11.868
 9140SOL    HW229318  10.738  14.443  11.846
 9141SOL     OW29319  12.230   3.732   5.452
 9141SOL    HW129320  12.251   3.639   5.460
 9141SOL    HW229321  12.157   3.735   5.390
 9142SOL     OW29322   4.315   0.251   5.952
 9142SOL    HW129323   4.333   0.206   6.035
 9142SOL    HW229324   4.225   0.282   5.961
 9143SOL     OW29325  12.389  12.377   2.118
 9143SOL    HW129326  12.473  12.423   2.123
 9143SOL    HW229327  12.404  12.293   2.161
 9144SOL     OW29328   9.894  14.147   1.289
 9144SOL    HW129329   9.892  14.051   1.298
 9144SOL    HW229330   9.815  14.177   1.334
 9145SOL     OW29331   5.648  11.335   4.852
 9145SOL    HW129332   5.638  11.282   4.773
 9145SOL    HW229333   5.735  11.311   4.886
 9146SOL     OW29334   7.365   1.408   0.868
 9146SOL    HW129335   7.299   1.459   0.822
 9146SOL    HW229336   7.384   1.335   0.809
 9147SOL     OW29337   2.714   5.036   0.066
 9147SOL    HW129338   2.661   5.116   0.061
 9147SOL    HW229339   2.799   5.065   0.099
 9148SOL     OW29340  12.563   4.347  14.811
 9148SOL    HW129341  12.490   4.307  14.858
 9148SOL    HW229342  12.603   4.406  14.875
 9149SOL     OW29343   9.513   5.155   5.873
 9149SOL    HW129344   9.456   5.228   5.848
 9149SOL    HW229345   9.560   5.186   5.950
 9150SOL     OW29346  11.723   1.419  13.854
 9150SOL    HW129347  11.709   1.328  13.876
 9150SOL    HW229348  11.636   1.453  13.834
 9151SOL     OW29349   2.584  11.673  14.139
 9151SOL    HW129350   2.531  11.750  14.156
 9151SOL    HW229351   2.658  11.681  14.200
 9152SOL     OW29352   3.436   1.316   1.404
 9152SOL    HW129353   3.441   1.398   1.454
 9152SOL    HW229354   3.355   1.324   1.354
 9153SOL     OW29355   6.928  13.391   8.973
 9153SOL    HW129356   6.912  13.466   9.030
 9153SOL    HW229357   6.999  13.343   9.016
 9154SOL     OW29358   1.239  12.961   7.552
 9154SOL    HW129359   1.193  13.018   7.491
 9154SOL    HW229360   1.314  13.012   7.581
 9155SOL     OW29361   8.507   1.465   5.266
 9155SOL    HW129362   8.584   1.419   5.233
 9155SOL    HW229363   8.504   1.546   5.216
 9156SOL     OW29364  11.737   2.455   2.682
 9156SOL    HW129365  11.734   2.407   2.599
 9156SOL    HW229366  11.680   2.405   2.740
 9157SOL     OW29367   4.954  13.880   0.749
 9157SOL    HW129368   4.863  13.891   0.775
 9157SOL    HW229369   4.962  13.934   0.670
 9158SOL     OW29370   7.643   2.008  12.345
 9158SOL    HW129371   7.567   2.059  12.318
 9158SOL    HW229372   7.607   1.923  12.371
 9159SOL     OW29373   7.194  12.113   5.119
 9159SOL    HW129374   7.132  12.131   5.048
 9159SOL    HW229375   7.147  12.056   5.179
 9160SOL     OW29376   5.323   8.656   8.989
 9160SOL    HW129377   5.396   8.648   9.049
 9160SOL    HW229378   5.254   8.603   9.029
 9161SOL     OW29379   9.827  11.113  11.032
 9161SOL    HW129380   9.905  11.103  10.977
 9161SOL    HW229381   9.862  11.135  11.118
 9162SOL     OW29382   9.961   5.519   1.214
 9162SOL    HW129383  10.020   5.575   1.162
 9162SOL    HW229384   9.995   5.526   1.303
 9163SOL     OW29385  11.408   3.313  14.192
 9163SOL    HW129386  11.394   3.243  14.128
 9163SOL    HW229387  11.360   3.388  14.158
 9164SOL     OW29388  14.789   9.812  10.795
 9164SOL    HW129389  14.853   9.848  10.856
 9164SOL    HW229390  14.709   9.802  10.848
 9165SOL     OW29391   2.236   7.553   8.033
 9165SOL    HW129392   2.205   7.639   8.006
 9165SOL    HW229393   2.160   7.512   8.076
 9166SOL     OW29394  14.154   6.750   2.421
 9166SOL    HW129395  14.248   6.764   2.427
 9166SOL    HW229396  14.142   6.703   2.338
 9167SOL     OW29397  12.591  13.060   4.971
 9167SOL    HW129398  12.538  13.005   5.029
 9167SOL    HW229399  12.531  13.129   4.943
 9168SOL     OW29400   9.190   2.277   9.954
 9168SOL    HW129401   9.183   2.344   9.886
 9168SOL    HW229402   9.167   2.195   9.910
 9169SOL     OW29403  12.543   1.918  12.032
 9169SOL    HW129404  12.580   1.864  11.962
 9169SOL    HW229405  12.485   1.979  11.987
 9170SOL     OW29406   4.400   0.469  11.717
 9170SOL    HW129407   4.360   0.534  11.774
 9170SOL    HW229408   4.388   0.386  11.764
 9171SOL     OW29409  11.117   6.561  10.669
 9171SOL    HW129410  11.139   6.538  10.760
 9171SOL    HW229411  11.064   6.488  10.638
 9172SOL     OW29412   6.209   6.576  13.578
 9172SOL    HW129413   6.160   6.552  13.499
 9172SOL    HW229414   6.198   6.501  13.636
 9173SOL     OW29415  10.892   4.631   4.198
 9173SOL    HW129416  10.912   4.641   4.105
 9173SOL    HW229417  10.974   4.650   4.243
 9174SOL     OW29418   9.038   4.506   8.659
 9174SOL    HW129419   9.124   4.465   8.674
 9174SOL    HW229420   8.975   4.435   8.670
 9175SOL     OW29421  13.604   9.370   7.378
 9175SOL    HW129422  13.654   9.348   7.300
 9175SOL    HW229423  13.625   9.301   7.441
 9176SOL     OW29424   9.185  12.443  11.599
 9176SOL    HW129425   9.101  12.490  11.596
 9176SOL    HW229426   9.160  12.351  11.591
 9177SOL     OW29427   9.444   7.631  10.233
 9177SOL    HW129428   9.413   7.612  10.321
 9177SOL    HW229429   9.497   7.555  10.210
 9178SOL     OW29430   3.688   2.057   9.464
 9178SOL    HW129431   3.759   2.005   9.502
 9178SOL    HW229432   3.615   2.048   9.526
 9179SOL     OW29433   5.751   7.929   0.182
 9179SOL    HW129434   5.841   7.921   0.213
 9179SOL    HW229435   5.758   7.974   0.098
 9180SOL     OW29436   8.195   7.433   8.030
 9180SOL    HW129437   8.119   7.429   7.972
 9180SOL    HW229438   8.269   7.447   7.970
 9181SOL     OW29439   3.644   9.450   3.932
 9181SOL    HW129440   3.700   9.372   3.933
 9181SOL    HW229441   3.562   9.420   3.894
 9182SOL     OW29442  12.805  13.222   7.923
 9182SOL    HW129443  12.866  13.182   7.861
 9182SOL    HW229444  12.721  13.222   7.878
 9183SOL     OW29445   2.503   0.049   8.437
 9183SOL    HW129446   2.589   0.042   8.480
 9183SOL    HW229447   2.513   0.123   8.377
 9184SOL     OW29448   5.960   5.050  10.426
 9184SOL    HW129449   5.942   5.003  10.508
 9184SOL    HW229450   6.051   5.030  10.406
 9185SOL     OW29451  14.554   3.743  10.553
 9185SOL    HW129452  14.637   3.695  10.541
 9185SOL    HW229453  14.519   3.752  10.464
 9186SOL     OW29454   7.244  11.998  12.349
 9186SOL    HW129455   7.295  12.032  12.422
 9186SOL    HW229456   7.295  11.924  12.316
 9187SOL     OW29457   0.630  10.984  11.025
 9187SOL    HW129458   0.648  11.078  11.035
 9187SOL    HW229459   0.624  10.971  10.931
 9188SOL     OW29460   6.555  11.433   8.701
 9188SOL    HW129461   6.592  11.374   8.766
 9188SOL    HW229462   6.570  11.389   8.617
 9189SOL     OW29463  10.522  14.370   3.548
 9189SOL    HW129464  10.437  14.336   3.576
 9189SOL    HW229465  10.502  14.420   3.469
 9190SOL     OW29466   3.710  13.779   7.519
 9190SOL    HW129467   3.758  13.697   7.508
 9190SOL    HW229468   3.643  13.777   7.450
 9191SOL     OW29469   3.738   5.833   5.186
 9191SOL    HW129470   3.647   5.859   5.201
 9191SOL    HW229471   3.788   5.914   5.198
 9192SOL     OW29472   6.663  13.258   0.975
 9192SOL    HW129473   6.684  13.334   1.029
 9192SOL    HW229474   6.632  13.193   1.036
 9193SOL     OW29475  11.428  14.687   4.283
 9193SOL    HW129476  11.337  14.712   4.263
 9193SOL    HW229477  11.463  14.763   4.329
 9194SOL     OW29478   3.419  11.026   2.632
 9194SOL    HW129479   3.409  10.933   2.615
 9194SOL    HW229480   3.406  11.035   2.727
 9195SOL     OW29481  10.549   4.821   6.445
 9195SOL    HW129482  10.628   4.784   6.407
 9195SOL    HW229483  10.478   4.789   6.389
 9196SOL     OW29484   8.361   2.634  11.867
 9196SOL    HW129485   8.290   2.687  11.831
 9196SOL    HW229486   8.424   2.626  11.796
 9197SOL     OW29487  10.234   1.126   5.625
 9197SOL    HW129488  10.250   1.184   5.700
 9197SOL    HW229489  10.218   1.041   5.665
 9198SOL     OW29490  12.471   2.827   8.647
 9198SOL    HW129491  12.559   2.858   8.669
 9198SOL    HW229492  12.413   2.900   8.669
 9199SOL     OW29493  14.085  13.848   0.444
 9199SOL    HW129494  14.026  13.811   0.379
 9199SOL    HW229495  14.172  13.837   0.406
 9200SOL     OW29496   2.009   0.020   4.695
 9200SOL    HW129497   1.984   0.113   4.698
 9200SOL    HW229498   2.101   0.022   4.669
 9201SOL     OW29499   3.901  13.092   6.435
 9201SOL    HW129500   3.814  13.078   6.474
 9201SOL    HW229501   3.884  13.115   6.344
 9202SOL     OW29502   3.919   3.768   7.102
 9202SOL    HW129503   3.980   3.756   7.028
 9202SOL    HW229504   3.963   3.727   7.176
 9203SOL     OW29505  12.619   6.092   7.527
 9203SOL    HW129506  12.564   6.025   7.569
 9203SOL    HW229507  12.665   6.045   7.457
 9204SOL     OW29508   2.206   3.958   8.904
 9204SOL    HW129509   2.181   3.866   8.918
 9204SOL    HW229510   2.291   3.966   8.945
 9205SOL     OW29511   2.772  14.036   3.604
 9205SOL    HW129512   2.816  13.984   3.671
 9205SOL    HW229513   2.686  13.995   3.593
 9206SOL     OW29514   1.500  13.012   6.025
 9206SOL    HW129515   1.517  13.017   5.931
 9206SOL    HW229516   1.540  13.091   6.061
 9207SOL     OW29517  12.082  14.746   5.077
 9207SOL    HW129518  12.039  14.680   5.022
 9207SOL    HW229519  12.150  14.784   5.021
 9208SOL     OW29520   1.999   5.837  11.991
 9208SOL    HW129521   1.904   5.836  11.981
 9208SOL    HW229522   2.027   5.917  11.947
 9209SOL     OW29523   6.555   5.799  14.207
 9209SOL    HW129524   6.582   5.716  14.167
 9209SOL    HW229525   6.615   5.809  14.281
 9210SOL     OW29526   5.588   9.393   1.863
 9210SOL    HW129527   5.537   9.456   1.813
 9210SOL    HW229528   5.666   9.441   1.890
 9211SOL     OW29529   7.634  14.764   8.606
 9211SOL    HW129530   7.661  14.745   8.516
 9211SOL    HW229531   7.571  14.835   8.598
 9212SOL     OW29532   9.803   9.484  13.870
 9212SOL    HW129533   9.760   9.555  13.918
 9212SOL    HW229534   9.767   9.404  13.908
 9213SOL     OW29535  11.863  13.250  10.099
 9213SOL    HW129536  11.949  13.283  10.071
 9213SOL    HW229537  11.867  13.156  10.083
 9214SOL     OW29538   6.379   5.374  13.093
 9214SOL    HW129539   6.345   5.383  13.004
 9214SOL    HW229540   6.434   5.451  13.106
 9215SOL     OW29541   7.073  13.203   9.166
 9215SOL    HW129542   7.010  13.166   9.229
 9215SOL    HW229543   7.077  13.138   9.096
 9216SOL     OW29544   4.137  13.269   3.194
 9216SOL    HW129545   4.206  13.225   3.242
 9216SOL    HW229546   4.121  13.212   3.118
 9217SOL     OW29547   5.588   7.171  13.070
 9217SOL    HW129548   5.593   7.203  13.160
 9217SOL    HW229549   5.633   7.238  13.018
 9218SOL     OW29550   4.749  13.620   2.732
 9218SOL    HW129551   4.731  13.710   2.759
 9218SOL    HW229552   4.703  13.610   2.648
 9219SOL     OW29553  14.567   7.241   6.640
 9219SOL    HW129554  14.561   7.174   6.572
 9219SOL    HW229555  14.480   7.244   6.679
 9220SOL     OW29556  14.405   7.874   5.345
 9220SOL    HW129557  14.415   7.909   5.256
 9220SOL    HW229558  14.337   7.808   5.337
 9221SOL     OW29559   2.901   8.753  11.287
 9221SOL    HW129560   2.985   8.742  11.331
 9221SOL    HW229561   2.873   8.841  11.311
 9222SOL     OW29562   3.148  10.900  12.108
 9222SOL    HW129563   3.189  10.958  12.173
 9222SOL    HW229564   3.063  10.941  12.090
 9223SOL     OW29565   0.497  10.631   9.288
 9223SOL    HW129566   0.575  10.669   9.329
 9223SOL    HW229567   0.459  10.575   9.355
 9224SOL     OW29568   9.944   3.754   7.163
 9224SOL    HW129569   9.916   3.789   7.079
 9224SOL    HW229570   9.985   3.670   7.142
 9225SOL     OW29571  10.208   7.321   7.314
 9225SOL    HW129572  10.232   7.306   7.406
 9225SOL    HW229573  10.133   7.381   7.319
 9226SOL     OW29574   9.395   2.874  13.198
 9226SOL    HW129575   9.464   2.889  13.134
 9226SOL    HW229576   9.322   2.929  13.170
 9227SOL     OW29577  12.236   5.663  14.521
 9227SOL    HW129578  12.165   5.601  14.510
 9227SOL    HW229579  12.314   5.609  14.531
 9228SOL     OW29580   5.327   8.475   6.108
 9228SOL    HW129581   5.234   8.497   6.109
 9228SOL    HW229582   5.341   8.428   6.190
 9229SOL     OW29583   5.659   2.341   4.983
 9229SOL    HW129584   5.738   2.392   4.967
 9229SOL    HW229585   5.690   2.252   4.999
 9230SOL     OW29586  12.464   9.113   7.402
 9230SOL    HW129587  12.515   9.102   7.482
 9230SOL    HW229588  12.489   9.037   7.348
 9231SOL     OW29589   0.948  10.950   6.189
 9231SOL    HW129590   0.977  10.947   6.097
 9231SOL    HW229591   0.859  10.986   6.184
 9232SOL     OW29592   5.285  10.180   6.107
 9232SOL    HW129593   5.237  10.207   6.185
 9232SOL    HW229594   5.354  10.246   6.097
 9233SOL     OW29595   0.879   5.558   5.615
 9233SOL    HW129596   0.824   5.602   5.550
 9233SOL    HW229597   0.835   5.474   5.630
 9234SOL     OW29598  10.852   0.804  12.667
 9234SOL    HW129599  10.836   0.772  12.756
 9234SOL    HW229600  10.882   0.726  12.619
 9235SOL     OW29601   7.088   3.716   8.119
 9235SOL    HW129602   7.139   3.646   8.078
 9235SOL    HW229603   7.036   3.753   8.048
 9236SOL     OW29604   6.226   4.176  13.261
 9236SOL    HW129605   6.238   4.262  13.301
 9236SOL    HW229606   6.286   4.176  13.186
 9237SOL     OW29607   4.280  12.695  11.760
 9237SOL    HW129608   4.355  12.642  11.787
 9237SOL    HW229609   4.300  12.782  11.794
 9238SOL     OW29610   2.246   9.495   0.058
 9238SOL    HW129611   2.186   9.440   0.108
 9238SOL    HW229612   2.198   9.577   0.046
 9239SOL     OW29613  10.922   0.703  13.554
 9239SOL    HW129614  10.955   0.613  13.545
 9239SOL    HW229615  10.833   0.699  13.519
 9240SOL     OW29616  14.610   8.502  13.527
 9240SOL    HW129617  14.555   8.466  13.596
 9240SOL    HW229618  14.618   8.595  13.549
 9241SOL     OW29619   7.660   6.031   8.899
 9241SOL    HW129620   7.580   5.985   8.924
 9241SOL    HW229621   7.661   6.029   8.804
 9242SOL     OW29622  14.487  11.169  12.249
 9242SOL    HW129623  14.515  11.101  12.311
 9242SOL    HW229624  14.569  11.210  12.220
 9243SOL     OW29625   6.369  13.401   9.418
 9243SOL    HW129626   6.281  13.433   9.438
 9243SOL    HW229627   6.363  13.372   9.327
 9244SOL     OW29628  13.119  11.747   2.624
 9244SOL    HW129629  13.146  11.830   2.664
 9244SOL    HW229630  13.201  11.702   2.605
 9245SOL     OW29631  13.456   4.615  12.865
 9245SOL    HW129632  13.380   4.657  12.905
 9245SOL    HW229633  13.522   4.685  12.859
 9246SOL     OW29634   8.463  11.644  14.501
 9246SOL    HW129635   8.549  11.622  14.537
 9246SOL    HW229636   8.423  11.560  14.480
 9247SOL     OW29637   5.921   5.594   5.560
 9247SOL    HW129638   5.974   5.539   5.618
 9247SOL    HW229639   5.961   5.582   5.473
 9248SOL     OW29640  13.740   9.419   2.589
 9248SOL    HW129641  13.819   9.394   2.638
 9248SOL    HW229642  13.743   9.515   2.587
 9249SOL     OW29643   8.497  14.406  11.593
 9249SOL    HW129644   8.593  14.412  11.588
 9249SOL    HW229645   8.470  14.376  11.507
 9250SOL     OW29646   3.866  10.053   4.843
 9250SOL    HW129647   3.935  10.107   4.805
 9250SOL    HW229648   3.844   9.989   4.775
 9251SOL     OW29649   9.978   1.154   5.425
 9251SOL    HW129650   9.917   1.186   5.359
 9251SOL    HW229651  10.062   1.148   5.380
 9252SOL     OW29652  12.594   9.873   9.875
 9252SOL    HW129653  12.679   9.906   9.846
 9252SOL    HW229654  12.565   9.815   9.804
 9253SOL     OW29655   1.511   7.611  12.747
 9253SOL    HW129656   1.520   7.524  12.786
 9253SOL    HW229657   1.453   7.598  12.672
 9254SOL     OW29658  10.986   3.489   7.994
 9254SOL    HW129659  10.933   3.567   8.006
 9254SOL    HW229660  11.075   3.515   8.018
 9255SOL     OW29661  12.974   6.895   2.818
 9255SOL    HW129662  13.069   6.900   2.829
 9255SOL    HW229663  12.946   6.826   2.878
 9256SOL     OW29664   6.525  12.490  10.965
 9256SOL    HW129665   6.434  12.475  10.939
 9256SOL    HW229666   6.562  12.540  10.892
 9257SOL     OW29667  12.386  13.423   1.477
 9257SOL    HW129668  12.336  13.503   1.491
 9257SOL    HW229669  12.320  13.353   1.478
 9258SOL     OW29670   7.143   9.646   1.562
 9258SOL    HW129671   7.193   9.726   1.574
 9258SOL    HW229672   7.151   9.600   1.645
 9259SOL     OW29673   0.825  10.761  14.666
 9259SOL    HW129674   0.737  10.731  14.691
 9259SOL    HW229675   0.838  10.725  14.579
 9260SOL     OW29676  10.132   5.186   8.092
 9260SOL    HW129677  10.065   5.119   8.076
 9260SOL    HW229678  10.215   5.138   8.091
 9261SOL     OW29679   9.427   0.102   4.586
 9261SOL    HW129680   9.509   0.053   4.590
 9261SOL    HW229681   9.390   0.079   4.501
 9262SOL     OW29682  11.005   3.396  13.080
 9262SOL    HW129683  11.031   3.303  13.078
 9262SOL    HW229684  11.025   3.424  13.169
 9263SOL     OW29685  14.593   7.451  12.036
 9263SOL    HW129686  14.621   7.504  11.961
 9263SOL    HW229687  14.498   7.443  12.027
 9264SOL     OW29688  11.060  13.232   8.405
 9264SOL    HW129689  11.116  13.253   8.330
 9264SOL    HW229690  11.121  13.218   8.477
 9265SOL     OW29691  11.834  12.169  14.125
 9265SOL    HW129692  11.753  12.219  14.110
 9265SOL    HW229693  11.813  12.109  14.197
 9266SOL     OW29694   8.233   0.931  11.850
 9266SOL    HW129695   8.185   0.991  11.907
 9266SOL    HW229696   8.225   0.970  11.763
 9267SOL     OW29697  11.126   3.486  11.040
 9267SOL    HW129698  11.218   3.504  11.055
 9267SOL    HW229699  11.103   3.536  10.961
 9268SOL     OW29700   9.715   7.311   4.902
 9268SOL    HW129701   9.754   7.388   4.944
 9268SOL    HW229702   9.766   7.299   4.821
 9269SOL     OW29703   1.373   8.993   2.174
 9269SOL    HW129704   1.344   9.036   2.255
 9269SOL    HW229705   1.299   8.938   2.149
 9270SOL     OW29706   2.972  10.730   9.394
 9270SOL    HW129707   3.021  10.686   9.325
 9270SOL    HW229708   2.884  10.691   9.390
 9271SOL     OW29709   5.722   8.220   1.773
 9271SOL    HW129710   5.628   8.211   1.791
 9271SOL    HW229711   5.739   8.154   1.705
 9272SOL     OW29712  11.214   0.518   7.842
 9272SOL    HW129713  11.223   0.474   7.927
 9272SOL    HW229714  11.281   0.477   7.787
 9273SOL     OW29715   4.751   1.968  11.178
 9273SOL    HW129716   4.736   1.895  11.117
 9273SOL    HW229717   4.829   2.011  11.143
 9274SOL     OW29718   5.073  14.529   2.983
 9274SOL    HW129719   5.080  14.510   2.890
 9274SOL    HW229720   5.150  14.581   3.004
 9275SOL     OW29721   4.983   3.043   5.327
 9275SOL    HW129722   5.013   3.075   5.412
 9275SOL    HW229723   4.898   3.086   5.314
 9276SOL     OW29724   5.441   6.455  13.726
 9276SOL    HW129725   5.520   6.488  13.768
 9276SOL    HW229726   5.449   6.359  13.732
 9277SOL     OW29727   5.524   2.845   3.145
 9277SOL    HW129728   5.440   2.884   3.120
 9277SOL    HW229729   5.590   2.905   3.110
 9278SOL     OW29730   3.118   3.882   3.577
 9278SOL    HW129731   3.115   3.920   3.489
 9278SOL    HW229732   3.181   3.811   3.570
 9279SOL     OW29733   5.065  10.267   6.826
 9279SOL    HW129734   5.007  10.334   6.860
 9279SOL    HW229735   5.007  10.198   6.795
 9280SOL     OW29736   4.446   6.680   1.207
 9280SOL    HW129737   4.382   6.708   1.142
 9280SOL    HW229738   4.393   6.644   1.278
 9281SOL     OW29739  13.766  10.968  10.051
 9281SOL    HW129740  13.707  11.030  10.094
 9281SOL    HW229741  13.710  10.894  10.028
 9282SOL     OW29742  13.032   6.012   2.463
 9282SOL    HW129743  13.085   5.980   2.535
 9282SOL    HW229744  12.942   5.990   2.487
 9283SOL     OW29745   6.573   5.038   4.203
 9283SOL    HW129746   6.623   4.956   4.209
 9283SOL    HW229747   6.585   5.067   4.113
 9284SOL     OW29748  10.602  12.146  10.556
 9284SOL    HW129749  10.556  12.091  10.620
 9284SOL    HW229750  10.566  12.121  10.472
 9285SOL     OW29751   7.513   5.442   7.691
 9285SOL    HW129752   7.489   5.483   7.608
 9285SOL    HW229753   7.577   5.502   7.730
 9286SOL     OW29754   3.734  10.629  13.266
 9286SOL    HW129755   3.789  10.667  13.335
 9286SOL    HW229756   3.661  10.690  13.257
 9287SOL     OW29757   1.310  11.841   3.541
 9287SOL    HW129758   1.309  11.770   3.606
 9287SOL    HW229759   1.395  11.883   3.554
 9288SOL     OW29760   6.261  13.578   8.241
 9288SOL    HW129761   6.307  13.594   8.159
 9288SOL    HW229762   6.286  13.489   8.265
 9289SOL     OW29763   6.886   7.661   1.990
 9289SOL    HW129764   6.815   7.717   2.020
 9289SOL    HW229765   6.966   7.708   2.016
 9290SOL     OW29766   9.526   2.952   7.259
 9290SOL    HW129767   9.461   3.004   7.306
 9290SOL    HW229768   9.610   2.980   7.294
 9291SOL     OW29769   9.096   8.502   5.669
 9291SOL    HW129770   9.120   8.489   5.577
 9291SOL    HW229771   9.143   8.581   5.695
 9292SOL     OW29772   7.216  11.484   3.634
 9292SOL    HW129773   7.184  11.395   3.622
 9292SOL    HW229774   7.262  11.481   3.719
 9293SOL     OW29775   9.673   4.226  13.149
 9293SOL    HW129776   9.711   4.148  13.107
 9293SOL    HW229777   9.718   4.232  13.233
 9294SOL     OW29778  11.058  13.395   4.462
 9294SOL    HW129779  11.144  13.404   4.421
 9294SOL    HW229780  11.069  13.323   4.524
 9295SOL     OW29781   0.607  14.111  12.712
 9295SOL    HW129782   0.587  14.034  12.660
 9295SOL    HW229783   0.556  14.181  12.671
 9296SOL     OW29784   4.015  11.340  11.402
 9296SOL    HW129785   3.989  11.249  11.384
 9296SOL    HW229786   3.961  11.393  11.344
 9297SOL     OW29787  11.893  14.269   6.052
 9297SOL    HW129788  11.854  14.252   6.138
 9297SOL    HW229789  11.833  14.329   6.009
 9298SOL     OW29790   5.188   3.602   5.192
 9298SOL    HW129791   5.270   3.565   5.159
 9298SOL    HW229792   5.148   3.643   5.115
 9299SOL     OW29793   4.055   2.339   2.020
 9299SOL    HW129794   4.037   2.300   2.105
 9299SOL    HW229795   4.058   2.265   1.959
 9300SOL     OW29796   5.645   9.099  14.024
 9300SOL    HW129797   5.696   9.021  14.043
 9300SOL    HW229798   5.682   9.133  13.942
 9301SOL     OW29799  12.808  14.868   6.342
 9301SOL    HW129800  12.844   0.041   6.407
 9301SOL    HW229801  12.775  14.795   6.393
 9302SOL     OW29802   6.985  14.135   8.154
 9302SOL    HW129803   6.940  14.219   8.163
 9302SOL    HW229804   7.047  14.133   8.227
 9303SOL     OW29805   5.219   4.267  10.499
 9303SOL    HW129806   5.304   4.297  10.530
 9303SOL    HW229807   5.212   4.177  10.529
 9304SOL     OW29808   7.699   1.220   2.077
 9304SOL    HW129809   7.700   1.315   2.071
 9304SOL    HW229810   7.620   1.194   2.029
 9305SOL     OW29811   3.681   5.376   0.450
 9305SOL    HW129812   3.712   5.369   0.540
 9305SOL    HW229813   3.606   5.436   0.455
 9306SOL     OW29814   2.745   6.754   1.932
 9306SOL    HW129815   2.758   6.822   1.998
 9306SOL    HW229816   2.810   6.687   1.954
 9307SOL     OW29817   5.326  12.337   5.391
 9307SOL    HW129818   5.320  12.287   5.309
 9307SOL    HW229819   5.305  12.274   5.459
 9308SOL     OW29820  13.233  12.644  10.458
 9308SOL    HW129821  13.207  12.573  10.516
 9308SOL    HW229822  13.191  12.623  10.374
 9309SOL     OW29823   3.687  13.942   5.504
 9309SOL    HW129824   3.720  14.030   5.520
 9309SOL    HW229825   3.593  13.948   5.519
 9310SOL     OW29826  14.596  11.482  12.935
 9310SOL    HW129827  14.611  11.574  12.957
 9310SOL    HW229828  14.666  11.435  12.980
 9311SOL     OW29829   3.344   3.075  14.340
 9311SOL    HW129830   3.296   3.153  14.368
 9311SOL    HW229831   3.424   3.076  14.394
 9312SOL     OW29832   9.167   4.919  13.644
 9312SOL    HW129833   9.257   4.887  13.645
 9312SOL    HW229834   9.170   5.001  13.595
 9313SOL     OW29835   1.603   1.715  14.793
 9313SOL    HW129836   1.657   1.646  14.830
 9313SOL    HW229837   1.528   1.669  14.755
 9314SOL     OW29838   7.984  10.971  13.442
 9314SOL    HW129839   8.002  10.883  13.475
 9314SOL    HW229840   7.892  10.968  13.415
 9315SOL     OW29841   8.974   1.545   4.318
 9315SOL    HW129842   8.900   1.544   4.379
 9315SOL    HW229843   9.024   1.624   4.342
 9316SOL     OW29844   8.629   2.393  11.254
 9316SOL    HW129845   8.688   2.394  11.329
 9316SOL    HW229846   8.556   2.337  11.281
 9317SOL     OW29847   2.909   0.902   1.463
 9317SOL    HW129848   2.855   0.968   1.508
 9317SOL    HW229849   2.907   0.928   1.371
 9318SOL     OW29850   7.466  10.797   2.024
 9318SOL    HW129851   7.516  10.828   2.100
 9318SOL    HW229852   7.378  10.782   2.058
 9319SOL     OW29853   1.269   2.333   8.550
 9319SOL    HW129854   1.344   2.343   8.490
 9319SOL    HW229855   1.267   2.415   8.599
 9320SOL     OW29856   6.836  12.564  12.377
 9320SOL    HW129857   6.824  12.493  12.440
 9320SOL    HW229858   6.922  12.599  12.397
 9321SOL     OW29859   4.291   4.459  10.366
 9321SOL    HW129860   4.311   4.546  10.401
 9321SOL    HW229861   4.375   4.414  10.364
 9322SOL     OW29862   9.564   9.912  11.176
 9322SOL    HW129863   9.520   9.994  11.202
 9322SOL    HW229864   9.497   9.845  11.188
 9323SOL     OW29865   8.939   0.744  13.004
 9323SOL    HW129866   8.859   0.706  12.969
 9323SOL    HW229867   8.983   0.671  13.049
 9324SOL     OW29868   2.732   9.348   5.675
 9324SOL    HW129869   2.658   9.402   5.648
 9324SOL    HW229870   2.692   9.265   5.702
 9325SOL     OW29871  12.598   4.643  13.099
 9325SOL    HW129872  12.547   4.575  13.144
 9325SOL    HW229873  12.682   4.601  13.081
 9326SOL     OW29874   0.466   8.760  14.360
 9326SOL    HW129875   0.422   8.843  14.340
 9326SOL    HW229876   0.501   8.730  14.276
 9327SOL     OW29877  10.986  13.764  12.849
 9327SOL    HW129878  11.073  13.751  12.888
 9327SOL    HW229879  10.927  13.716  12.907
 9328SOL     OW29880  12.059   0.550  12.358
 9328SOL    HW129881  12.127   0.531  12.293
 9328SOL    HW229882  11.977   0.538  12.312
 9329SOL     OW29883  11.498   0.522  14.150
 9329SOL    HW129884  11.491   0.537  14.244
 9329SOL    HW229885  11.572   0.462  14.141
 9330SOL     OW29886   8.560   9.578   0.848
 9330SOL    HW129887   8.567   9.652   0.908
 9330SOL    HW229888   8.485   9.527   0.881
 9331SOL     OW29889   4.356   2.155   6.439
 9331SOL    HW129890   4.443   2.150   6.478
 9331SOL    HW229891   4.372   2.182   6.348
 9332SOL     OW29892   1.979   0.430   1.311
 9332SOL    HW129893   2.002   0.349   1.266
 9332SOL    HW229894   2.047   0.442   1.377
 9333SOL     OW29895   4.281   6.429   6.004
 9333SOL    HW129896   4.227   6.471   6.070
 9333SOL    HW229897   4.225   6.421   5.928
 9334SOL     OW29898   5.709   3.558   5.923
 9334SOL    HW129899   5.788   3.610   5.907
 9334SOL    HW229900   5.660   3.608   5.989
 9335SOL     OW29901  10.983   3.115   3.399
 9335SOL    HW129902  11.051   3.049   3.394
 9335SOL    HW229903  10.929   3.101   3.321
 9336SOL     OW29904   9.916   4.835   3.992
 9336SOL    HW129905   9.829   4.873   3.979
 9336SOL    HW229906   9.941   4.804   3.905
 9337SOL     OW29907  11.986  11.071  14.278
 9337SOL    HW129908  11.919  11.130  14.244
 9337SOL    HW229909  11.969  10.988  14.234
 9338SOL     OW29910   9.741   3.111   7.014
 9338SOL    HW129911   9.747   3.044   7.082
 9338SOL    HW229912   9.712   3.064   6.936
 9339SOL     OW29913  12.430   5.076   0.712
 9339SOL    HW129914  12.419   5.169   0.690
 9339SOL    HW229915  12.448   5.033   0.628
 9340SOL     OW29916  14.006  11.110   0.581
 9340SOL    HW129917  14.033  11.077   0.495
 9340SOL    HW229918  14.009  11.033   0.638
 9341SOL     OW29919   0.433  10.415  11.060
 9341SOL    HW129920   0.475  10.499  11.078
 9341SOL    HW229921   0.427  10.412  10.964
 9342SOL     OW29922   0.791   6.790   4.545
 9342SOL    HW129923   0.790   6.823   4.635
 9342SOL    HW229924   0.717   6.835   4.503
 9343SOL     OW29925   5.920  10.944   5.267
 9343SOL    HW129926   5.907  10.849   5.257
 9343SOL    HW229927   6.015  10.954   5.271
 9344SOL     OW29928   3.397   2.197   3.601
 9344SOL    HW129929   3.335   2.244   3.545
 9344SOL    HW229930   3.475   2.186   3.547
 9345SOL     OW29931   6.881   0.010  14.155
 9345SOL    HW129932   6.853   0.037  14.243
 9345SOL    HW229933   6.855  14.805  14.149
 9346SOL     OW29934   3.360   6.330   7.135
 9346SOL    HW129935   3.327   6.308   7.047
 9346SOL    HW229936   3.453   6.311   7.131
 9347SOL     OW29937  13.484   3.576   7.866
 9347SOL    HW129938  13.455   3.589   7.776
 9347SOL    HW229939  13.570   3.617   7.870
 9348SOL     OW29940   8.800  10.438   7.779
 9348SOL    HW129941   8.883  10.413   7.820
 9348SOL    HW229942   8.788  10.529   7.804
 9349SOL     OW29943   1.318  14.806  14.549
 9349SOL    HW129944   1.257  14.809  14.623
 9349SOL    HW229945   1.352   0.008  14.543
 9350SOL     OW29946   9.319   8.514   1.221
 9350SOL    HW129947   9.393   8.477   1.172
 9350SOL    HW229948   9.260   8.439   1.235
 9351SOL     OW29949  11.585  14.192  13.054
 9351SOL    HW129950  11.528  14.118  13.033
 9351SOL    HW229951  11.530  14.249  13.108
 9352SOL     OW29952  10.278   1.708  13.402
 9352SOL    HW129953  10.237   1.769  13.341
 9352SOL    HW229954  10.371   1.711  13.381
 9353SOL     OW29955   1.921   7.860   9.629
 9353SOL    HW129956   1.855   7.818   9.574
 9353SOL    HW229957   1.872   7.903   9.699
 9354SOL     OW29958   2.181   1.580   1.473
 9354SOL    HW129959   2.171   1.529   1.554
 9354SOL    HW229960   2.249   1.645   1.495
 9355SOL     OW29961  13.665   9.433   4.521
 9355SOL    HW129962  13.610   9.399   4.451
 9355SOL    HW229963  13.744   9.462   4.477
 9356SOL     OW29964   7.037  13.769  11.577
 9356SOL    HW129965   7.065  13.684  11.543
 9356SOL    HW229966   7.006  13.817  11.500
 9357SOL     OW29967   0.497  11.732  11.564
 9357SOL    HW129968   0.576  11.692  11.601
 9357SOL    HW229969   0.520  11.752  11.474
 9358SOL     OW29970   6.125  11.654   6.408
 9358SOL    HW129971   6.105  11.655   6.315
 9358SOL    HW229972   6.128  11.561   6.431
 9359SOL     OW29973  12.857   8.474   6.639
 9359SOL    HW129974  12.781   8.417   6.649
 9359SOL    HW229975  12.879   8.469   6.546
 9360SOL     OW29976  11.911   6.831   6.139
 9360SOL    HW129977  11.959   6.912   6.124
 9360SOL    HW229978  11.976   6.770   6.175
 9361SOL     OW29979  12.238   6.044   9.362
 9361SOL    HW129980  12.326   6.065   9.392
 9361SOL    HW229981  12.216   5.962   9.407
 9362SOL     OW29982   4.030   0.937   7.072
 9362SOL    HW129983   4.041   0.997   6.999
 9362SOL    HW229984   4.035   0.992   7.150
 9363SOL     OW29985   3.775   1.584  12.754
 9363SOL    HW129986   3.694   1.545  12.788
 9363SOL    HW229987   3.814   1.515  12.700
 9364SOL     OW29988   2.077   4.865  11.368
 9364SOL    HW129989   2.132   4.936  11.402
 9364SOL    HW229990   2.019   4.908  11.305
 9365SOL     OW29991   2.672  13.845   3.237
 9365SOL    HW129992   2.662  13.804   3.324
 9365SOL    HW229993   2.676  13.771   3.177
 9366SOL     OW29994  13.306   7.950  13.989
 9366SOL    HW129995  13.367   7.968  14.060
 9366SOL    HW229996  13.243   8.022  13.993
 9367SOL     OW29997  11.427  12.281   6.768
 9367SOL    HW129998  11.478  12.266   6.689
 9367SOL    HW229999  11.413  12.194   6.805
 9368SOL     OW30000  14.176  11.159  11.947
 9368SOL    HW130001  14.139  11.170  12.035
 9368SOL    HW230002  14.202  11.247  11.921
 9369SOL     OW30003   4.060  11.957  14.788
 9369SOL    HW130004   4.147  11.931  14.818
 9369SOL    HW230005   4.061  12.052  14.789
 9370SOL     OW30006  13.882   5.961   8.285
 9370SOL    HW130007  13.862   5.960   8.379
 9370SOL    HW230008  13.805   6.002   8.245
 9371SOL     OW30009   9.239   9.312   0.084
 9371SOL    HW130010   9.210   9.230   0.044
 9371SOL    HW230011   9.332   9.299   0.101
 9372SOL     OW30012   1.434  13.586  11.032
 9372SOL    HW130013   1.367  13.633  11.082
 9372SOL    HW230014   1.455  13.509  11.085
 9373SOL     OW30015  14.256   8.002  13.576
 9373SOL    HW130016  14.272   7.971  13.487
 9373SOL    HW230017  14.224   7.924  13.622
 9374SOL     OW30018  12.295  11.686  13.023
 9374SOL    HW130019  12.227  11.752  13.040
 9374SOL    HW230020  12.292  11.629  13.101
 9375SOL     OW30021   9.093  13.070   7.550
 9375SOL    HW130022   9.065  12.981   7.567
 9375SOL    HW230023   9.025  13.106   7.492
 9376SOL     OW30024   8.283  13.299   2.240
 9376SOL    HW130025   8.236  13.249   2.307
 9376SOL    HW230026   8.287  13.240   2.165
 9377SOL     OW30027   8.116   0.828   2.349
 9377SOL    HW130028   8.066   0.757   2.310
 9377SOL    HW230029   8.202   0.791   2.365
 9378SOL     OW30030   6.460   0.966   8.111
 9378SOL    HW130031   6.385   0.941   8.056
 9378SOL    HW230032   6.422   1.013   8.184
 9379SOL     OW30033   2.644   9.597   7.766
 9379SOL    HW130034   2.618   9.514   7.805
 9379SOL    HW230035   2.574   9.658   7.789
 9380SOL     OW30036  12.531   1.489   1.827
 9380SOL    HW130037  12.542   1.584   1.823
 9380SOL    HW230038  12.616   1.456   1.854
 9381SOL     OW30039   4.822   0.468   9.695
 9381SOL    HW130040   4.765   0.391   9.689
 9381SOL    HW230041   4.908   0.436   9.668
 9382SOL     OW30042   5.055   0.083   7.349
 9382SOL    HW130043   5.068  14.884   7.310
 9382SOL    HW230044   4.975   0.075   7.400
 9383SOL     OW30045  12.305   8.294   4.755
 9383SOL    HW130046  12.386   8.274   4.708
 9383SOL    HW230047  12.236   8.278   4.691
 9384SOL     OW30048   5.700  12.032   9.995
 9384SOL    HW130049   5.679  12.054  10.085
 9384SOL    HW230050   5.675  11.940   9.986
 9385SOL     OW30051   9.986  12.452   6.764
 9385SOL    HW130052  10.047  12.384   6.794
 9385SOL    HW230053   9.934  12.474   6.841
 9386SOL     OW30054   8.621  10.954  12.178
 9386SOL    HW130055   8.695  11.000  12.138
 9386SOL    HW230056   8.566  10.928  12.105
 9387SOL     OW30057   0.561   3.966   1.564
 9387SOL    HW130058   0.476   3.927   1.545
 9387SOL    HW230059   0.625   3.900   1.535
 9388SOL     OW30060  11.265   7.887   5.709
 9388SOL    HW130061  11.355   7.884   5.675
 9388SOL    HW230062  11.254   7.976   5.741
 9389SOL     OW30063  10.228   0.308   2.183
 9389SOL    HW130064  10.270   0.266   2.257
 9389SOL    HW230065  10.258   0.259   2.107
 9390SOL     OW30066   7.302   8.381   1.847
 9390SOL    HW130067   7.364   8.331   1.794
 9390SOL    HW230068   7.283   8.459   1.794
 9391SOL     OW30069   1.934  13.281  12.529
 9391SOL    HW130070   1.864  13.249  12.585
 9391SOL    HW230071   1.940  13.374  12.547
 9392SOL     OW30072   2.577  10.652   7.994
 9392SOL    HW130073   2.611  10.562   7.991
 9392SOL    HW230074   2.642  10.700   8.045
 9393SOL     OW30075  14.693   7.743   4.914
 9393SOL    HW130076  14.689   7.820   4.857
 9393SOL    HW230077  14.738   7.677   4.862
 9394SOL     OW30078   9.617   5.909   6.410
 9394SOL    HW130079   9.598   5.963   6.333
 9394SOL    HW230080   9.551   5.935   6.474
 9395SOL     OW30081   4.007   4.573   4.874
 9395SOL    HW130082   3.927   4.625   4.867
 9395SOL    HW230083   4.008   4.543   4.965
 9396SOL     OW30084   0.892   0.184   2.372
 9396SOL    HW130085   0.925   0.249   2.311
 9396SOL    HW230086   0.797   0.195   2.369
 9397SOL     OW30087   9.703   4.826   4.365
 9397SOL    HW130088   9.625   4.831   4.419
 9397SOL    HW230089   9.672   4.844   4.276
 9398SOL     OW30090   2.306   2.718  12.718
 9398SOL    HW130091   2.243   2.670  12.664
 9398SOL    HW230092   2.291   2.685  12.807
 9399SOL     OW30093  12.205  13.828   1.560
 9399SOL    HW130094  12.143  13.774   1.607
 9399SOL    HW230095  12.176  13.918   1.576
 9400SOL     OW30096   5.621   0.225  13.195
 9400SOL    HW130097   5.630   0.266  13.108
 9400SOL    HW230098   5.679   0.149  13.192
 9401SOL     OW30099   6.843   2.745  13.469
 9401SOL    HW130100   6.860   2.654  13.445
 9401SOL    HW230101   6.750   2.758  13.448
 9402SOL     OW30102  10.850   3.514   4.264
 9402SOL    HW130103  10.830   3.429   4.225
 9402SOL    HW230104  10.796   3.575   4.215
 9403SOL     OW30105  11.890  13.123   8.806
 9403SOL    HW130106  11.965  13.065   8.811
 9403SOL    HW230107  11.867  13.140   8.898
 9404SOL     OW30108   1.615   8.676  12.405
 9404SOL    HW130109   1.522   8.654  12.399
 9404SOL    HW230110   1.628   8.701  12.496
 9405SOL     OW30111  13.821  14.860   9.299
 9405SOL    HW130112  13.834  14.859   9.394
 9405SOL    HW230113  13.854   0.058   9.271
 9406SOL     OW30114   0.200   2.677   2.221
 9406SOL    HW130115   0.295   2.690   2.225
 9406SOL    HW230116   0.190   2.589   2.184
 9407SOL     OW30117   1.259  12.873   9.300
 9407SOL    HW130118   1.342  12.898   9.340
 9407SOL    HW230119   1.247  12.935   9.229
 9408SOL     OW30120  13.626  13.785   6.121
 9408SOL    HW130121  13.551  13.837   6.091
 9408SOL    HW230122  13.685  13.783   6.046
 9409SOL     OW30123  12.582   3.397   9.560
 9409SOL    HW130124  12.611   3.307   9.546
 9409SOL    HW230125  12.632   3.449   9.498
 9410SOL     OW30126   4.554   3.371   0.955
 9410SOL    HW130127   4.504   3.343   1.032
 9410SOL    HW230128   4.598   3.292   0.925
 9411SOL     OW30129  12.795   3.582   0.846
 9411SOL    HW130130  12.876   3.603   0.800
 9411SOL    HW230131  12.726   3.594   0.779
 9412SOL     OW30132   7.053   5.431   8.445
 9412SOL    HW130133   7.124   5.433   8.381
 9412SOL    HW230134   7.055   5.518   8.486
 9413SOL     OW30135   1.608   0.939   6.967
 9413SOL    HW130136   1.546   0.979   7.029
 9413SOL    HW230137   1.619   1.005   6.898
 9414SOL     OW30138   1.848   5.808   0.820
 9414SOL    HW130139   1.754   5.817   0.834
 9414SOL    HW230140   1.860   5.717   0.792
 9415SOL     OW30141   5.795  10.987   8.806
 9415SOL    HW130142   5.793  10.955   8.896
 9415SOL    HW230143   5.765  10.913   8.754
 9416SOL     OW30144   4.268   0.582   9.502
 9416SOL    HW130145   4.220   0.558   9.424
 9416SOL    HW230146   4.339   0.638   9.470
 9417SOL     OW30147   4.702   0.879   7.959
 9417SOL    HW130148   4.714   0.951   7.896
 9417SOL    HW230149   4.678   0.804   7.906
 9418SOL     OW30150   3.718  10.197   8.395
 9418SOL    HW130151   3.803  10.238   8.377
 9418SOL    HW230152   3.712  10.127   8.330
 9419SOL     OW30153  14.529   4.260   3.669
 9419SOL    HW130154  14.614   4.291   3.639
 9419SOL    HW230155  14.490   4.220   3.592
 9420SOL     OW30156   6.478   1.530   0.401
 9420SOL    HW130157   6.496   1.493   0.314
 9420SOL    HW230158   6.545   1.491   0.458
 9421SOL     OW30159  10.561   6.393  14.248
 9421SOL    HW130160  10.465   6.387  14.251
 9421SOL    HW230161  10.583   6.369  14.158
 9422SOL     OW30162  13.228   6.518   6.662
 9422SOL    HW130163  13.286   6.452   6.700
 9422SOL    HW230164  13.212   6.579   6.734
 9423SOL     OW30165   1.505  13.968  11.748
 9423SOL    HW130166   1.536  14.030  11.683
 9423SOL    HW230167   1.566  13.895  11.744
 9424SOL     OW30168   8.312   7.657  13.956
 9424SOL    HW130169   8.273   7.683  14.039
 9424SOL    HW230170   8.296   7.730  13.896
 9425SOL     OW30171   1.537   4.340  12.016
 9425SOL    HW130172   1.613   4.378  12.061
 9425SOL    HW230173   1.467   4.342  12.082
 9426SOL     OW30174   1.301   9.803   8.594
 9426SOL    HW130175   1.239   9.788   8.666
 9426SOL    HW230176   1.246   9.807   8.516
 9427SOL     OW30177  13.353   3.507   4.420
 9427SOL    HW130178  13.377   3.483   4.331
 9427SOL    HW230179  13.278   3.565   4.410
 9428SOL     OW30180  13.544  12.220   6.744
 9428SOL    HW130181  13.527  12.143   6.689
 9428SOL    HW230182  13.590  12.281   6.686
 9429SOL     OW30183   9.801   1.925   5.011
 9429SOL    HW130184   9.719   1.897   4.972
 9429SOL    HW230185   9.803   2.020   4.998
 9430SOL     OW30186   4.889   8.720  12.371
 9430SOL    HW130187   4.892   8.714  12.467
 9430SOL    HW230188   4.980   8.716  12.344
 9431SOL     OW30189   4.534   9.890   6.537
 9431SOL    HW130190   4.529   9.914   6.630
 9431SOL    HW230191   4.615   9.838   6.531
 9432SOL     OW30192   9.002   6.009   7.549
 9432SOL    HW130193   9.053   6.048   7.621
 9432SOL    HW230194   8.995   5.917   7.572
 9433SOL     OW30195  13.020  12.704   3.908
 9433SOL    HW130196  13.110  12.700   3.939
 9433SOL    HW230197  13.001  12.615   3.877
 9434SOL     OW30198   7.007   6.594  11.305
 9434SOL    HW130199   6.995   6.509  11.345
 9434SOL    HW230200   7.098   6.593  11.272
 9435SOL     OW30201   7.704   7.614   1.369
 9435SOL    HW130202   7.688   7.620   1.275
 9435SOL    HW230203   7.798   7.597   1.376
 9436SOL     OW30204  10.139   7.704   5.401
 9436SOL    HW130205  10.120   7.644   5.329
 9436SOL    HW230206  10.164   7.786   5.358
 9437SOL     OW30207   0.814  10.760  11.307
 9437SOL    HW130208   0.750  10.805  11.253
 9437SOL    HW230209   0.805  10.800  11.394
 9438SOL     OW30210  11.685   6.353   8.255
 9438SOL    HW130211  11.663   6.388   8.341
 9438SOL    HW230212  11.695   6.259   8.269
 9439SOL     OW30213   5.166  11.834   6.749
 9439SOL    HW130214   5.215  11.780   6.811
 9439SOL    HW230215   5.089  11.863   6.798
 9440SOL     OW30216   5.767   8.606   5.243
 9440SOL    HW130217   5.813   8.647   5.170
 9440SOL    HW230218   5.770   8.672   5.313
 9441SOL     OW30219   7.352   1.437   3.089
 9441SOL    HW130220   7.342   1.408   3.179
 9441SOL    HW230221   7.392   1.524   3.095
 9442SOL     OW30222  13.935   1.433  11.364
 9442SOL    HW130223  13.906   1.517  11.328
 9442SOL    HW230224  13.938   1.374  11.289
 9443SOL     OW30225   4.177   8.246   0.650
 9443SOL    HW130226   4.142   8.263   0.737
 9443SOL    HW230227   4.112   8.189   0.609
 9444SOL     OW30228  13.560   3.303   7.472
 9444SOL    HW130229  13.618   3.312   7.548
 9444SOL    HW230230  13.482   3.354   7.495
 9445SOL     OW30231   4.116   3.344  13.443
 9445SOL    HW130232   4.056   3.387  13.381
 9445SOL    HW230233   4.189   3.405  13.451
 9446SOL     OW30234  14.291   5.666   6.182
 9446SOL    HW130235  14.362   5.622   6.136
 9446SOL    HW230236  14.333   5.709   6.257
 9447SOL     OW30237   8.093   6.912   0.995
 9447SOL    HW130238   8.070   6.971   1.067
 9447SOL    HW230239   8.073   6.824   1.028
 9448SOL     OW30240  10.503   8.246   1.934
 9448SOL    HW130241  10.507   8.326   1.881
 9448SOL    HW230242  10.475   8.178   1.872
 9449SOL     OW30243  13.206   3.064  14.715
 9449SOL    HW130244  13.282   3.034  14.666
 9449SOL    HW230245  13.176   3.142  14.666
 9450SOL     OW30246   2.927   3.402   3.519
 9450SOL    HW130247   2.889   3.490   3.516
 9450SOL    HW230248   3.006   3.408   3.465
 9451SOL     OW30249  14.313  11.108  14.606
 9451SOL    HW130250  14.346  11.190  14.644
 9451SOL    HW230251  14.232  11.091  14.654
 9452SOL     OW30252  10.768   3.085   8.245
 9452SOL    HW130253  10.730   3.137   8.175
 9452SOL    HW230254  10.701   3.021   8.268
 9453SOL     OW30255  14.316  11.958  12.123
 9453SOL    HW130256  14.362  11.945  12.206
 9453SOL    HW230257  14.238  11.903  12.130
 9454SOL     OW30258  10.437   8.381   4.142
 9454SOL    HW130259  10.489   8.359   4.220
 9454SOL    HW230260  10.502   8.415   4.080
 9455SOL     OW30261   7.298   1.275   3.318
 9455SOL    HW130262   7.390   1.256   3.336
 9455SOL    HW230263   7.266   1.315   3.399
 9456SOL     OW30264  12.372  12.011  10.465
 9456SOL    HW130265  12.434  12.066  10.514
 9456SOL    HW230266  12.301  11.995  10.526
 9457SOL     OW30267   2.800   8.141  10.844
 9457SOL    HW130268   2.887   8.102  10.836
 9457SOL    HW230269   2.817   8.236  10.847
 9458SOL     OW30270  13.993   8.869   4.526
 9458SOL    HW130271  13.924   8.811   4.493
 9458SOL    HW230272  14.075   8.826   4.502
 9459SOL     OW30273  10.258  10.129   1.622
 9459SOL    HW130274  10.303  10.184   1.557
 9459SOL    HW230275  10.237  10.189   1.693
 9460SOL     OW30276   3.578   1.356   2.225
 9460SOL    HW130277   3.568   1.262   2.240
 9460SOL    HW230278   3.672   1.372   2.231
 9461SOL     OW30279   0.007   4.048  14.524
 9461SOL    HW130280  14.838   3.978  14.490
 9461SOL    HW230281   0.053   4.008  14.598
 9462SOL     OW30282  14.726  10.558  10.129
 9462SOL    HW130283  14.677  10.640  10.131
 9462SOL    HW230284  14.678  10.503  10.066
 9463SOL     OW30285   3.133   1.051  12.667
 9463SOL    HW130286   3.094   1.047  12.579
 9463SOL    HW230287   3.224   1.076  12.652
 9464SOL     OW30288  14.307  12.608  14.027
 9464SOL    HW130289  14.296  12.663  13.949
 9464SOL    HW230290  14.317  12.671  14.099
 9465SOL     OW30291   5.190  11.056  14.353
 9465SOL    HW130292   5.235  10.977  14.383
 9465SOL    HW230293   5.249  11.094  14.288
 9466SOL     OW30294  12.737   0.686   4.627
 9466SOL    HW130295  12.648   0.719   4.639
 9466SOL    HW230296  12.793   0.760   4.651
 9467SOL     OW30297   3.418   7.849   2.353
 9467SOL    HW130298   3.469   7.777   2.388
 9467SOL    HW230299   3.405   7.826   2.261
 9468SOL     OW30300   8.060  11.636  11.554
 9468SOL    HW130301   8.100  11.663  11.636
 9468SOL    HW230302   8.130  11.594  11.505
 9469SOL     OW30303   1.829   1.061  13.663
 9469SOL    HW130304   1.847   1.081  13.755
 9469SOL    HW230305   1.795   0.972  13.664
 9470SOL     OW30306   9.457  14.535   3.315
 9470SOL    HW130307   9.446  14.468   3.247
 9470SOL    HW230308   9.403  14.609   3.285
 9471SOL     OW30309   4.541   1.109  12.434
 9471SOL    HW130310   4.580   1.155  12.360
 9471SOL    HW230311   4.591   1.139  12.510
 9472SOL     OW30312  14.492   2.319   5.140
 9472SOL    HW130313  14.565   2.364   5.099
 9472SOL    HW230314  14.429   2.388   5.161
 9473SOL     OW30315  10.037  13.928   8.787
 9473SOL    HW130316  10.072  13.973   8.710
 9473SOL    HW230317  10.074  13.840   8.783
 9474SOL     OW30318   1.494  12.234   9.049
 9474SOL    HW130319   1.516  12.232   9.142
 9474SOL    HW230320   1.564  12.183   9.008
 9475SOL     OW30321  13.626   4.197   5.085
 9475SOL    HW130322  13.658   4.156   5.005
 9475SOL    HW230323  13.701   4.244   5.120
 9476SOL     OW30324   6.678   7.318   6.956
 9476SOL    HW130325   6.628   7.292   6.879
 9476SOL    HW230326   6.745   7.378   6.921
 9477SOL     OW30327   0.286   6.335  13.863
 9477SOL    HW130328   0.301   6.287  13.945
 9477SOL    HW230329   0.272   6.266  13.798
 9478SOL     OW30330   6.259  10.825  14.208
 9478SOL    HW130331   6.186  10.815  14.148
 9478SOL    HW230332   6.310  10.898  14.173
 9479SOL     OW30333   1.259  12.573  13.951
 9479SOL    HW130334   1.274  12.485  13.916
 9479SOL    HW230335   1.277  12.631  13.877
 9480SOL     OW30336   8.706  10.058   6.256
 9480SOL    HW130337   8.637  10.119   6.230
 9480SOL    HW230338   8.691  10.042   6.349
 9481SOL     OW30339  12.268  11.119  13.286
 9481SOL    HW130340  12.243  11.029  13.308
 9481SOL    HW230341  12.238  11.171  13.361
 9482SOL     OW30342  13.823   6.637   9.007
 9482SOL    HW130343  13.783   6.717   8.972
 9482SOL    HW230344  13.750   6.587   9.043
 9483SOL     OW30345   2.660   1.996  12.613
 9483SOL    HW130346   2.586   2.016  12.556
 9483SOL    HW230347   2.665   2.069  12.674
 9484SOL     OW30348   9.735   0.866   4.725
 9484SOL    HW130349   9.816   0.898   4.765
 9484SOL    HW230350   9.690   0.820   4.795
 9485SOL     OW30351   7.170   4.172   7.660
 9485SOL    HW130352   7.158   4.150   7.752
 9485SOL    HW230353   7.230   4.106   7.627
 9486SOL     OW30354   0.619  14.366   6.447
 9486SOL    HW130355   0.627  14.340   6.539
 9486SOL    HW230356   0.680  14.439   6.437
 9487SOL     OW30357   5.059   4.840  14.110
 9487SOL    HW130358   5.127   4.773  14.119
 9487SOL    HW230359   4.994   4.800  14.052
 9488SOL     OW30360   4.832   8.016   1.973
 9488SOL    HW130361   4.925   8.039   1.973
 9488SOL    HW230362   4.829   7.931   2.018
 9489SOL     OW30363  11.357  13.803   1.333
 9489SOL    HW130364  11.421  13.861   1.291
 9489SOL    HW230365  11.276  13.818   1.284
 9490SOL     OW30366   0.470   6.018   8.590
 9490SOL    HW130367   0.509   5.987   8.671
 9490SOL    HW230368   0.520   6.096   8.566
 9491SOL     OW30369  10.209   1.797   7.692
 9491SOL    HW130370  10.247   1.774   7.608
 9491SOL    HW230371  10.136   1.855   7.671
 9492SOL     OW30372   7.337   7.835   6.317
 9492SOL    HW130373   7.285   7.901   6.363
 9492SOL    HW230374   7.415   7.883   6.288
 9493SOL     OW30375   5.702   8.151  12.812
 9493SOL    HW130376   5.622   8.174  12.764
 9493SOL    HW230377   5.773   8.168  12.750
 9494SOL     OW30378  11.530   6.420   2.544
 9494SOL    HW130379  11.609   6.467   2.570
 9494SOL    HW230380  11.523   6.436   2.450
 9495SOL     OW30381  11.609  12.632   0.679
 9495SOL    HW130382  11.645  12.720   0.687
 9495SOL    HW230383  11.524  12.644   0.637
 9496SOL     OW30384  13.098   0.183  11.206
 9496SOL    HW130385  13.166   0.197  11.139
 9496SOL    HW230386  13.065   0.095  11.188
 9497SOL     OW30387  11.799   6.488  11.545
 9497SOL    HW130388  11.840   6.570  11.517
 9497SOL    HW230389  11.871   6.426  11.552
 9498SOL     OW30390   6.297   3.509  13.838
 9498SOL    HW130391   6.351   3.549  13.906
 9498SOL    HW230392   6.344   3.528  13.756
 9499SOL     OW30393  14.346   4.161  10.120
 9499SOL    HW130394  14.293   4.202  10.188
 9499SOL    HW230395  14.410   4.108  10.168
 9500SOL     OW30396   8.076  13.584  11.061
 9500SOL    HW130397   7.992  13.589  11.016
 9500SOL    HW230398   8.061  13.623  11.146
 9501SOL     OW30399  13.483   5.149   2.891
 9501SOL    HW130400  13.497   5.173   2.799
 9501SOL    HW230401  13.487   5.231   2.939
 9502SOL     OW30402   5.410   4.624   7.893
 9502SOL    HW130403   5.427   4.552   7.832
 9502SOL    HW230404   5.315   4.633   7.893
 9503SOL     OW30405  13.607   0.264   2.481
 9503SOL    HW130406  13.648   0.210   2.414
 9503SOL    HW230407  13.527   0.216   2.505
 9504SOL     OW30408  11.356  12.800   5.407
 9504SOL    HW130409  11.265  12.827   5.398
 9504SOL    HW230410  11.379  12.822   5.498
 9505SOL     OW30411   3.859   7.064   4.810
 9505SOL    HW130412   3.774   7.081   4.848
 9505SOL    HW230413   3.894   7.150   4.789
 9506SOL     OW30414   8.157   8.581   3.940
 9506SOL    HW130415   8.110   8.663   3.958
 9506SOL    HW230416   8.249   8.608   3.934
 9507SOL     OW30417   8.864   1.071   2.085
 9507SOL    HW130418   8.903   1.004   2.028
 9507SOL    HW230419   8.854   1.027   2.170
 9508SOL     OW30420   2.781  10.783  11.555
 9508SOL    HW130421   2.820  10.829  11.481
 9508SOL    HW230422   2.818  10.695  11.551
 9509SOL     OW30423  10.008   9.055   9.998
 9509SOL    HW130424   9.934   8.996   9.983
 9509SOL    HW230425  10.026   9.048  10.091
 9510SOL     OW30426  11.597  12.224  11.865
 9510SOL    HW130427  11.618  12.233  11.772
 9510SOL    HW230428  11.682  12.231  11.910
 9511SOL     OW30429  12.143  10.603  14.488
 9511SOL    HW130430  12.187  10.621  14.405
 9511SOL    HW230431  12.091  10.682  14.506
 9512SOL     OW30432   7.577  13.831   9.556
 9512SOL    HW130433   7.593  13.901   9.619
 9512SOL    HW230434   7.481  13.823   9.553
 9513SOL     OW30435   0.390   5.436   6.416
 9513SOL    HW130436   0.337   5.438   6.496
 9513SOL    HW230437   0.353   5.365   6.364
 9514SOL     OW30438   8.444   6.970  10.707
 9514SOL    HW130439   8.459   6.979  10.801
 9514SOL    HW230440   8.371   6.908  10.701
 9515SOL     OW30441  14.276   0.762  12.031
 9515SOL    HW130442  14.249   0.719  12.113
 9515SOL    HW230443  14.228   0.715  11.963
 9516SOL     OW30444  10.363  14.704   8.142
 9516SOL    HW130445  10.277  14.675   8.110
 9516SOL    HW230446  10.345  14.738   8.230
 9517SOL     OW30447  10.354   4.753   5.325
 9517SOL    HW130448  10.402   4.713   5.398
 9517SOL    HW230449  10.264   4.722   5.335
 9518SOL     OW30450   2.103   6.273  13.518
 9518SOL    HW130451   2.142   6.361  13.515
 9518SOL    HW230452   2.178   6.214  13.511
 9519SOL     OW30453   8.375   4.705   7.612
 9519SOL    HW130454   8.295   4.758   7.613
 9519SOL    HW230455   8.410   4.713   7.701
 9520SOL     OW30456   3.936   7.223   1.590
 9520SOL    HW130457   3.878   7.220   1.666
 9520SOL    HW230458   3.877   7.213   1.515
 9521SOL     OW30459   4.105   2.701   4.258
 9521SOL    HW130460   4.098   2.744   4.343
 9521SOL    HW230461   4.173   2.750   4.212
 9522SOL     OW30462   8.975  14.248   5.299
 9522SOL    HW130463   8.963  14.270   5.207
 9522SOL    HW230464   8.943  14.324   5.347
 9523SOL     OW30465   8.112   3.515  10.574
 9523SOL    HW130466   8.099   3.534  10.667
 9523SOL    HW230467   8.035   3.553  10.530
 9524SOL     OW30468  13.874  14.796   6.262
 9524SOL    HW130469  13.909  14.822   6.347
 9524SOL    HW230470  13.943  14.817   6.200
 9525SOL     OW30471   4.431   9.834  10.822
 9525SOL    HW130472   4.336   9.845  10.820
 9525SOL    HW230473   4.446   9.777  10.898
 9526SOL     OW30474   2.453  10.277   8.595
 9526SOL    HW130475   2.422  10.243   8.511
 9526SOL    HW230476   2.374  10.308   8.639
 9527SOL     OW30477   4.985   7.486   7.877
 9527SOL    HW130478   5.032   7.569   7.862
 9527SOL    HW230479   5.045   7.435   7.931
 9528SOL     OW30480   6.470   4.541   0.468
 9528SOL    HW130481   6.397   4.571   0.413
 9528SOL    HW230482   6.538   4.607   0.455
 9529SOL     OW30483  12.908  11.513   6.135
 9529SOL    HW130484  12.887  11.436   6.187
 9529SOL    HW230485  12.824  11.542   6.099
 9530SOL     OW30486   8.863  11.789   5.724
 9530SOL    HW130487   8.840  11.881   5.732
 9530SOL    HW230488   8.795  11.752   5.668
 9531SOL     OW30489   3.103   4.519   8.945
 9531SOL    HW130490   3.152   4.549   8.868
 9531SOL    HW230491   3.061   4.597   8.980
 9532SOL     OW30492   8.685   9.747  10.947
 9532SOL    HW130493   8.635   9.694  10.885
 9532SOL    HW230494   8.740   9.803  10.893
 9533SOL     OW30495  10.523   5.990   5.349
 9533SOL    HW130496  10.578   6.045   5.294
 9533SOL    HW230497  10.435   6.003   5.315
 9534SOL     OW30498  13.389   1.621  14.449
 9534SOL    HW130499  13.421   1.699  14.402
 9534SOL    HW230500  13.465   1.588  14.496
 9535SOL     OW30501  11.980   1.467  12.883
 9535SOL    HW130502  11.926   1.423  12.817
 9535SOL    HW230503  11.918   1.496  12.949
 9536SOL     OW30504  13.856  14.494   0.570
 9536SOL    HW130505  13.849  14.401   0.548
 9536SOL    HW230506  13.770  14.530   0.548
 9537SOL     OW30507  13.316  14.808   4.414
 9537SOL    HW130508  13.399  14.767   4.438
 9537SOL    HW230509  13.288  14.853   4.494
 9538SOL     OW30510   6.035   6.569   4.014
 9538SOL    HW130511   5.997   6.627   3.947
 9538SOL    HW230512   6.120   6.608   4.034
 9539SOL     OW30513   4.622   6.232   3.117
 9539SOL    HW130514   4.644   6.305   3.175
 9539SOL    HW230515   4.632   6.154   3.172
 9540SOL     OW30516  12.505   5.717   2.708
 9540SOL    HW130517  12.577   5.688   2.651
 9540SOL    HW230518  12.426   5.680   2.668
 9541SOL     OW30519  14.763   4.416   5.266
 9541SOL    HW130520  14.753   4.336   5.317
 9541SOL    HW230521  14.780   4.387   5.177
 9542SOL     OW30522   7.372   6.054   8.577
 9542SOL    HW130523   7.458   6.070   8.537
 9542SOL    HW230524   7.346   5.968   8.544
 9543SOL     OW30525   9.140   2.782   3.246
 9543SOL    HW130526   9.114   2.871   3.268
 9543SOL    HW230527   9.210   2.793   3.181
 9544SOL     OW30528   9.268  10.871   0.573
 9544SOL    HW130529   9.215  10.827   0.640
 9544SOL    HW230530   9.213  10.943   0.543
 9545SOL     OW30531   0.284   5.593   2.601
 9545SOL    HW130532   0.216   5.552   2.655
 9545SOL    HW230533   0.361   5.597   2.659
 9546SOL     OW30534   3.279   6.628   7.762
 9546SOL    HW130535   3.366   6.656   7.791
 9546SOL    HW230536   3.224   6.635   7.840
 9547SOL     OW30537   4.067   5.524  11.828
 9547SOL    HW130538   4.104   5.441  11.800
 9547SOL    HW230539   4.129   5.557  11.893
 9548SOL     OW30540   1.904   7.694   9.951
 9548SOL    HW130541   1.867   7.755   9.888
 9548SOL    HW230542   1.985   7.662   9.910
 9549SOL     OW30543  12.536   3.539   0.147
 9549SOL    HW130544  12.463   3.544   0.085
 9549SOL    HW230545  12.613   3.567   0.096
 9550SOL     OW30546   9.395   5.482   0.410
 9550SOL    HW130547   9.365   5.394   0.430
 9550SOL    HW230548   9.341   5.539   0.465
 9551SOL     OW30549   0.414  10.862   0.365
 9551SOL    HW130550   0.376  10.947   0.342
 9551SOL    HW230551   0.507  10.880   0.378
 9552SOL     OW30552   8.737   7.027   8.817
 9552SOL    HW130553   8.688   7.107   8.798
 9552SOL    HW230554   8.789   7.047   8.894
 9553SOL     OW30555   3.414  10.686   1.380
 9553SOL    HW130556   3.339  10.711   1.434
 9553SOL    HW230557   3.393  10.598   1.349
 9554SOL     OW30558   8.487   8.200   1.833
 9554SOL    HW130559   8.410   8.215   1.778
 9554SOL    HW230560   8.556   8.251   1.791
 9555SOL     OW30561   7.969   7.122   7.405
 9555SOL    HW130562   7.887   7.105   7.357
 9555SOL    HW230563   7.946   7.190   7.468
 9556SOL     OW30564   1.261   6.783   2.461
 9556SOL    HW130565   1.236   6.869   2.493
 9556SOL    HW230566   1.284   6.797   2.369
 9557SOL     OW30567  11.145  14.017   0.774
 9557SOL    HW130568  11.181  14.105   0.771
 9557SOL    HW230569  11.094  14.014   0.854
 9558SOL     OW30570  11.564  11.692   2.319
 9558SOL    HW130571  11.559  11.779   2.357
 9558SOL    HW230572  11.562  11.707   2.224
 9559SOL     OW30573   8.964   9.455  13.324
 9559SOL    HW130574   8.958   9.373  13.374
 9559SOL    HW230575   8.873   9.486  13.319
 9560SOL     OW30576   6.417   1.397   1.452
 9560SOL    HW130577   6.344   1.337   1.463
 9560SOL    HW230578   6.483   1.366   1.514
 9561SOL     OW30579   7.048   9.228   8.059
 9561SOL    HW130580   6.999   9.163   8.009
 9561SOL    HW230581   7.083   9.179   8.134
 9562SOL     OW30582  14.189  13.355   4.476
 9562SOL    HW130583  14.277  13.393   4.481
 9562SOL    HW230584  14.133  13.427   4.449
 9563SOL     OW30585  14.628  11.958  10.846
 9563SOL    HW130586  14.717  11.972  10.814
 9563SOL    HW230587  14.638  11.899  10.920
 9564SOL     OW30588   8.463  13.035   9.351
 9564SOL    HW130589   8.438  12.969   9.287
 9564SOL    HW230590   8.493  13.109   9.298
 9565SOL     OW30591   7.964  13.392  14.683
 9565SOL    HW130592   7.950  13.341  14.763
 9565SOL    HW230593   7.912  13.472  14.696
 9566SOL     OW30594  14.688   4.143   1.320
 9566SOL    HW130595  14.605   4.097   1.332
 9566SOL    HW230596  14.666   4.235   1.335
 9567SOL     OW30597   6.712   0.794   3.375
 9567SOL    HW130598   6.694   0.762   3.286
 9567SOL    HW230599   6.632   0.775   3.424
 9568SOL     OW30600   5.603  13.999  14.766
 9568SOL    HW130601   5.660  13.948  14.708
 9568SOL    HW230602   5.648  14.083  14.775
 9569SOL     OW30603   5.969   6.527  14.286
 9569SOL    HW130604   6.012   6.543  14.202
 9569SOL    HW230605   6.037   6.541  14.351
 9570SOL     OW30606   6.017  13.326   7.942
 9570SOL    HW130607   6.078  13.337   7.869
 9570SOL    HW230608   5.934  13.301   7.900
 9571SOL     OW30609   0.667  12.300   3.796
 9571SOL    HW130610   0.616  12.356   3.737
 9571SOL    HW230611   0.717  12.362   3.850
 9572SOL     OW30612  12.990  12.118  11.532
 9572SOL    HW130613  12.992  12.160  11.445
 9572SOL    HW230614  13.020  12.029  11.516
 9573SOL     OW30615  12.757   0.008   6.710
 9573SOL    HW130616  12.695  14.827   6.684
 9573SOL    HW230617  12.799   0.035   6.629
 9574SOL     OW30618   7.001   4.899   2.824
 9574SOL    HW130619   6.986   4.818   2.874
 9574SOL    HW230620   7.059   4.873   2.753
 9575SOL     OW30621   4.047  12.028  13.399
 9575SOL    HW130622   4.092  12.033  13.315
 9575SOL    HW230623   4.031  11.935  13.413
 9576SOL     OW30624  12.860   0.601  14.653
 9576SOL    HW130625  12.953   0.618  14.641
 9576SOL    HW230626  12.848   0.598  14.748
 9577SOL     OW30627   8.661   9.585  14.236
 9577SOL    HW130628   8.619   9.671  14.236
 9577SOL    HW230629   8.620   9.538  14.163
 9578SOL     OW30630   0.032   4.526   6.532
 9578SOL    HW130631   0.124   4.515   6.508
 9578SOL    HW230632  14.876   4.552   6.450
 9579SOL     OW30633  14.475   2.770  13.277
 9579SOL    HW130634  14.386   2.787  13.248
 9579SOL    HW230635  14.527   2.841  13.238
 9580SOL     OW30636   2.313  14.882  13.364
 9580SOL    HW130637   2.281   0.081  13.389
 9580SOL    HW230638   2.301  14.828  13.442
 9581SOL     OW30639   2.836  12.338   5.319
 9581SOL    HW130640   2.842  12.395   5.242
 9581SOL    HW230641   2.926  12.309   5.334
 9582SOL     OW30642   5.986  13.223   5.307
 9582SOL    HW130643   5.944  13.159   5.248
 9582SOL    HW230644   6.069  13.244   5.264
 9583SOL     OW30645   2.777   4.528   4.090
 9583SOL    HW130646   2.707   4.556   4.149
 9583SOL    HW230647   2.852   4.512   4.147
 9584SOL     OW30648   0.063   3.496  13.525
 9584SOL    HW130649   0.049   3.522  13.434
 9584SOL    HW230650  14.862   3.492  13.563
 9585SOL     OW30651   2.114   9.936   5.173
 9585SOL    HW130652   2.106   9.946   5.078
 9585SOL    HW230653   2.194   9.984   5.195
 9586SOL     OW30654   2.237  12.592   2.201
 9586SOL    HW130655   2.206  12.589   2.291
 9586SOL    HW230656   2.173  12.648   2.155
 9587SOL     OW30657   7.735   3.737   4.352
 9587SOL    HW130658   7.719   3.815   4.406
 9587SOL    HW230659   7.784   3.770   4.276
 9588SOL     OW30660   5.494   5.869  10.177
 9588SOL    HW130661   5.582   5.853  10.141
 9588SOL    HW230662   5.451   5.784  10.176
 9589SOL     OW30663  14.619   3.001   0.705
 9589SOL    HW130664  14.609   3.037   0.617
 9589SOL    HW230665  14.696   2.944   0.699
 9590SOL     OW30666  10.111   1.341  10.655
 9590SOL    HW130667  10.017   1.323  10.647
 9590SOL    HW230668  10.125   1.420  10.604
 9591SOL     OW30669   3.615  14.589   7.020
 9591SOL    HW130670   3.659  14.654   6.965
 9591SOL    HW230671   3.531  14.574   6.976
 9592SOL     OW30672   1.489   1.033   2.855
 9592SOL    HW130673   1.579   1.039   2.885
 9592SOL    HW230674   1.479   1.105   2.793
 9593SOL     OW30675  10.141  12.733  14.382
 9593SOL    HW130676  10.074  12.788  14.422
 9593SOL    HW230677  10.093  12.670  14.329
 9594SOL     OW30678   2.668  14.855  12.827
 9594SOL    HW130679   2.668   0.062  12.811
 9594SOL    HW230680   2.661  14.847  12.923
 9595SOL     OW30681   6.679   1.197   4.825
 9595SOL    HW130682   6.706   1.223   4.738
 9595SOL    HW230683   6.586   1.222   4.830
 9596SOL     OW30684  11.834  14.730   3.207
 9596SOL    HW130685  11.826  14.804   3.147
 9596SOL    HW230686  11.762  14.742   3.269
 9597SOL     OW30687   3.042   2.394  13.830
 9597SOL    HW130688   3.020   2.371  13.920
 9597SOL    HW230689   2.981   2.465  13.808
 9598SOL     OW30690  12.506  13.339  10.683
 9598SOL    HW130691  12.412  13.353  10.684
 9598SOL    HW230692  12.541  13.415  10.637
 9599SOL     OW30693  13.909   6.418   2.827
 9599SOL    HW130694  13.923   6.347   2.890
 9599SOL    HW230695  13.815   6.416   2.809
 9600SOL     OW30696  13.387   9.837   9.365
 9600SOL    HW130697  13.462   9.819   9.422
 9600SOL    HW230698  13.362   9.927   9.387
 9601SOL     OW30699  13.423   4.115   1.507
 9601SOL    HW130700  13.424   4.121   1.602
 9601SOL    HW230701  13.512   4.088   1.484
 9602SOL     OW30702  14.545  10.998  12.471
 9602SOL    HW130703  14.605  10.983  12.544
 9602SOL    HW230704  14.512  10.911  12.447
 9603SOL     OW30705  10.249  10.455   4.661
 9603SOL    HW130706  10.219  10.493   4.743
 9603SOL    HW230707  10.342  10.478   4.657
 9604SOL     OW30708   9.629   9.625   1.205
 9604SOL    HW130709   9.662   9.556   1.147
 9604SOL    HW230710   9.576   9.681   1.148
 9605SOL     OW30711   7.622   9.444   9.391
 9605SOL    HW130712   7.634   9.531   9.353
 9605SOL    HW230713   7.706   9.425   9.433
 9606SOL     OW30714  12.991   6.727   3.753
 9606SOL    HW130715  12.953   6.640   3.766
 9606SOL    HW230716  12.916   6.786   3.746
 9607SOL     OW30717   1.730   0.597   3.371
 9607SOL    HW130718   1.770   0.534   3.311
 9607SOL    HW230719   1.697   0.667   3.314
 9608SOL     OW30720  13.187   3.558  13.083
 9608SOL    HW130721  13.138   3.517  13.154
 9608SOL    HW230722  13.236   3.629  13.125
 9609SOL     OW30723   8.301  12.268   2.539
 9609SOL    HW130724   8.313  12.193   2.481
 9609SOL    HW230725   8.375  12.326   2.518
 9610SOL     OW30726   2.268   8.062   4.793
 9610SOL    HW130727   2.243   7.971   4.783
 9610SOL    HW230728   2.313   8.085   4.712
 9611SOL     OW30729   1.850   6.169  10.786
 9611SOL    HW130730   1.757   6.149  10.775
 9611SOL    HW230731   1.895   6.092  10.752
 9612SOL     OW30732   1.225   1.182  13.583
 9612SOL    HW130733   1.316   1.153  13.575
 9612SOL    HW230734   1.174   1.114  13.539
 9613SOL     OW30735   4.901  13.324  11.637
 9613SOL    HW130736   4.958  13.310  11.713
 9613SOL    HW230737   4.822  13.275  11.657
 9614SOL     OW30738  14.272   5.550  11.805
 9614SOL    HW130739  14.348   5.513  11.762
 9614SOL    HW230740  14.279   5.521  11.896
 9615SOL     OW30741   9.100   3.736   9.189
 9615SOL    HW130742   9.010   3.748   9.219
 9615SOL    HW230743   9.097   3.657   9.135
 9616SOL     OW30744   7.529   3.299  14.710
 9616SOL    HW130745   7.570   3.383  14.732
 9616SOL    HW230746   7.551   3.241  14.783
 9617SOL     OW30747  11.097  11.305   4.050
 9617SOL    HW130748  11.179  11.277   4.010
 9617SOL    HW230749  11.066  11.228   4.098
 9618SOL     OW30750   6.865   4.119  13.259
 9618SOL    HW130751   6.823   4.064  13.192
 9618SOL    HW230752   6.873   4.062  13.336
 9619SOL     OW30753   6.294   0.039  13.110
 9619SOL    HW130754   6.336   0.030  13.196
 9619SOL    HW230755   6.278  14.836  13.082
 9620SOL     OW30756   9.335   2.565   2.506
 9620SOL    HW130757   9.365   2.627   2.573
 9620SOL    HW230758   9.252   2.603   2.475
 9621SOL     OW30759   6.996  12.679   5.271
 9621SOL    HW130760   7.025  12.591   5.293
 9621SOL    HW230761   7.041  12.700   5.189
 9622SOL     OW30762  11.868   9.456   2.921
 9622SOL    HW130763  11.964   9.457   2.914
 9622SOL    HW230764  11.850   9.486   3.010
 9623SOL     OW30765  10.191   2.122   1.098
 9623SOL    HW130766  10.103   2.151   1.123
 9623SOL    HW230767  10.188   2.027   1.105
 9624SOL     OW30768   0.672  10.168  14.073
 9624SOL    HW130769   0.655  10.224  13.998
 9624SOL    HW230770   0.724  10.096  14.038
 9625SOL     OW30771   0.552   7.983   6.798
 9625SOL    HW130772   0.461   7.998   6.773
 9625SOL    HW230773   0.551   7.988   6.894
 9626SOL     OW30774   7.862   3.306   8.503
 9626SOL    HW130775   7.823   3.372   8.561
 9626SOL    HW230776   7.864   3.347   8.417
 9627SOL     OW30777   6.053   4.527   2.243
 9627SOL    HW130778   6.113   4.460   2.275
 9627SOL    HW230779   6.002   4.552   2.320
 9628SOL     OW30780   0.864   4.365  13.180
 9628SOL    HW130781   0.771   4.359  13.159
 9628SOL    HW230782   0.899   4.431  13.121
 9629SOL     OW30783   3.082   6.762   0.696
 9629SOL    HW130784   3.115   6.703   0.763
 9629SOL    HW230785   3.151   6.764   0.629
 9630SOL     OW30786  14.716   2.078   6.867
 9630SOL    HW130787  14.724   2.051   6.958
 9630SOL    HW230788  14.635   2.128   6.864
 9631SOL     OW30789  12.252  11.348   2.881
 9631SOL    HW130790  12.319  11.308   2.825
 9631SOL    HW230791  12.196  11.275   2.908
 9632SOL     OW30792   3.257   9.310   2.013
 9632SOL    HW130793   3.243   9.348   1.926
 9632SOL    HW230794   3.317   9.237   1.998
 9633SOL     OW30795  13.988   6.080   0.122
 9633SOL    HW130796  14.050   6.008   0.131
 9633SOL    HW230797  13.970   6.086   0.028
 9634SOL     OW30798   2.842  10.909   9.884
 9634SOL    HW130799   2.749  10.932   9.890
 9634SOL    HW230800   2.868  10.935   9.796
 9635SOL     OW30801  12.996   2.185   3.993
 9635SOL    HW130802  12.928   2.215   3.932
 9635SOL    HW230803  13.002   2.255   4.058
 9636SOL     OW30804   3.819  10.683   0.464
 9636SOL    HW130805   3.893  10.722   0.510
 9636SOL    HW230806   3.790  10.612   0.521
 9637SOL     OW30807   6.657   3.383   3.970
 9637SOL    HW130808   6.650   3.294   4.004
 9637SOL    HW230809   6.738   3.384   3.919
 9638SOL     OW30810   1.302  14.051   1.394
 9638SOL    HW130811   1.221  14.003   1.409
 9638SOL    HW230812   1.371  13.988   1.413
 9639SOL     OW30813  14.759   9.202  14.419
 9639SOL    HW130814  14.696   9.133  14.435
 9639SOL    HW230815  14.733   9.240  14.335
 9640SOL     OW30816   5.333   2.815   2.326
 9640SOL    HW130817   5.281   2.736   2.340
 9640SOL    HW230818   5.411   2.785   2.279
 9641SOL     OW30819  14.868   3.689  14.552
 9641SOL    HW130820  14.808   3.743  14.500
 9641SOL    HW230821  14.860   3.601  14.514
 9642SOL     OW30822  14.605   7.250   4.920
 9642SOL    HW130823  14.513   7.251   4.893
 9642SOL    HW230824  14.602   7.265   5.014
 9643SOL     OW30825   5.301   8.077   0.982
 9643SOL    HW130826   5.343   8.027   1.052
 9643SOL    HW230827   5.346   8.050   0.902
 9644SOL     OW30828   9.179   3.809   0.834
 9644SOL    HW130829   9.116   3.738   0.816
 9644SOL    HW230830   9.177   3.818   0.930
 9645SOL     OW30831   0.142  14.575   5.194
 9645SOL    HW130832   0.173  14.592   5.283
 9645SOL    HW230833   0.220  14.545   5.147
 9646SOL     OW30834   0.009   8.819   4.455
 9646SOL    HW130835   0.054   8.798   4.373
 9646SOL    HW230836   0.070   8.875   4.502
 9647SOL     OW30837   8.442  11.716  10.863
 9647SOL    HW130838   8.382  11.644  10.882
 9647SOL    HW230839   8.387  11.794  10.866
 9648SOL     OW30840   3.059   4.047   1.806
 9648SOL    HW130841   3.117   4.044   1.882
 9648SOL    HW230842   3.117   4.065   1.732
 9649SOL     OW30843   6.643   3.083   7.034
 9649SOL    HW130844   6.584   3.128   6.973
 9649SOL    HW230845   6.585   3.025   7.084
 9650SOL     OW30846   7.003   0.122  11.107
 9650SOL    HW130847   6.950   0.151  11.033
 9650SOL    HW230848   6.995   0.026  11.106
 9651SOL     OW30849   7.137  11.255   8.330
 9651SOL    HW130850   7.224  11.255   8.369
 9651SOL    HW230851   7.153  11.255   8.235
 9652SOL     OW30852   2.211   6.293   9.295
 9652SOL    HW130853   2.241   6.211   9.336
 9652SOL    HW230854   2.152   6.332   9.359
 9653SOL     OW30855   7.440   6.738   3.537
 9653SOL    HW130856   7.483   6.793   3.603
 9653SOL    HW230857   7.356   6.781   3.520
 9654SOL     OW30858   6.655   5.160   8.604
 9654SOL    HW130859   6.632   5.251   8.621
 9654SOL    HW230860   6.750   5.162   8.589
 9655SOL     OW30861   0.345  13.292   4.001
 9655SOL    HW130862   0.309  13.318   3.916
 9655SOL    HW230863   0.332  13.368   4.057
 9656SOL     OW30864   5.211   6.911   9.584
 9656SOL    HW130865   5.255   6.830   9.607
 9656SOL    HW230866   5.242   6.931   9.496
 9657SOL     OW30867  13.059   6.865   8.351
 9657SOL    HW130868  13.102   6.850   8.436
 9657SOL    HW230869  13.006   6.787   8.338
 9658SOL     OW30870  13.924   8.211   1.144
 9658SOL    HW130871  13.988   8.142   1.159
 9658SOL    HW230872  13.955   8.256   1.066
 9659SOL     OW30873  11.297   4.766   4.977
 9659SOL    HW130874  11.229   4.755   5.044
 9659SOL    HW230875  11.376   4.789   5.026
 9660SOL     OW30876  10.063  12.124  12.443
 9660SOL    HW130877  10.116  12.109  12.364
 9660SOL    HW230878   9.973  12.128  12.411
 9661SOL     OW30879   2.073   0.004   9.306
 9661SOL    HW130880   2.020  14.828   9.258
 9661SOL    HW230881   2.158   0.002   9.263
 9662SOL     OW30882  10.284   0.909   4.115
 9662SOL    HW130883  10.337   0.853   4.172
 9662SOL    HW230884  10.348   0.953   4.059
 9663SOL     OW30885   9.732   2.625   8.845
 9663SOL    HW130886   9.795   2.671   8.790
 9663SOL    HW230887   9.655   2.682   8.847
 9664SOL     OW30888   4.224   9.282   4.227
 9664SOL    HW130889   4.311   9.246   4.244
 9664SOL    HW230890   4.210   9.345   4.298
 9665SOL     OW30891   7.778   2.971  12.688
 9665SOL    HW130892   7.805   2.880  12.670
 9665SOL    HW230893   7.860   3.020  12.686
 9666SOL     OW30894  13.371   8.481  14.450
 9666SOL    HW130895  13.292   8.512  14.493
 9666SOL    HW230896  13.339   8.432  14.374
 9667SOL     OW30897   8.643   9.734   0.580
 9667SOL    HW130898   8.547   9.731   0.579
 9667SOL    HW230899   8.665   9.769   0.667
 9668SOL     OW30900   8.530  11.387   7.082
 9668SOL    HW130901   8.617  11.424   7.099
 9668SOL    HW230902   8.536  11.349   6.995
 9669SOL     OW30903   9.624   7.764  14.189
 9669SOL    HW130904   9.548   7.737  14.241
 9669SOL    HW230905   9.671   7.682  14.173
 9670SOL     OW30906   9.929   6.657   4.612
 9670SOL    HW130907   9.891   6.680   4.527
 9670SOL    HW230908  10.005   6.715   4.620
 9671SOL     OW30909   0.300   4.603   9.963
 9671SOL    HW130910   0.227   4.567  10.013
 9671SOL    HW230911   0.377   4.586  10.017
 9672SOL     OW30912  11.403   4.031  12.193
 9672SOL    HW130913  11.370   4.034  12.282
 9672SOL    HW230914  11.493   4.000  12.202
 9673SOL     OW30915   1.529  13.570   9.768
 9673SOL    HW130916   1.621  13.580   9.743
 9673SOL    HW230917   1.482  13.563   9.686
 9674SOL     OW30918   8.392  10.113   2.565
 9674SOL    HW130919   8.413  10.079   2.478
 9674SOL    HW230920   8.445  10.193   2.573
 9675SOL     OW30921  13.082   5.958   3.316
 9675SOL    HW130922  13.167   6.001   3.319
 9675SOL    HW230923  13.046   5.982   3.231
 9676SOL     OW30924  10.827   2.949  13.625
 9676SOL    HW130925  10.813   2.860  13.592
 9676SOL    HW230926  10.820   3.004  13.548
 9677SOL     OW30927   4.854   4.317   4.818
 9677SOL    HW130928   4.931   4.264   4.840
 9677SOL    HW230929   4.829   4.358   4.900
 9678SOL     OW30930  14.482  10.502   6.826
 9678SOL    HW130931  14.565  10.454   6.819
 9678SOL    HW230932  14.428  10.465   6.757
 9679SOL     OW30933   6.892   9.648   0.808
 9679SOL    HW130934   6.816   9.692   0.847
 9679SOL    HW230935   6.870   9.555   0.813
 9680SOL     OW30936   2.146   1.396  14.241
 9680SOL    HW130937   2.194   1.451  14.303
 9680SOL    HW230938   2.094   1.338  14.297
 9681SOL     OW30939   4.202   0.952   9.348
 9681SOL    HW130940   4.133   0.989   9.293
 9681SOL    HW230941   4.165   0.870   9.380
 9682SOL     OW30942  13.009  10.503  10.636
 9682SOL    HW130943  13.010  10.442  10.562
 9682SOL    HW230944  12.953  10.461  10.701
 9683SOL     OW30945   4.125   3.144  12.183
 9683SOL    HW130946   4.206   3.105  12.216
 9683SOL    HW230947   4.085   3.184  12.261
 9684SOL     OW30948   5.955   9.800   3.564
 9684SOL    HW130949   5.980   9.784   3.655
 9684SOL    HW230950   6.037   9.825   3.520
 9685SOL     OW30951   7.038   6.697   0.997
 9685SOL    HW130952   7.049   6.791   0.983
 9685SOL    HW230953   7.096   6.656   0.933
 9686SOL     OW30954  12.763  11.829   5.709
 9686SOL    HW130955  12.779  11.848   5.617
 9686SOL    HW230956  12.776  11.735   5.717
 9687SOL     OW30957   6.112   9.987   2.984
 9687SOL    HW130958   6.048   9.946   2.926
 9687SOL    HW230959   6.070   9.987   3.070
 9688SOL     OW30960  10.655   9.424  13.542
 9688SOL    HW130961  10.598   9.489  13.582
 9688SOL    HW230962  10.731   9.474  13.512
 9689SOL     OW30963  11.150  14.136   0.390
 9689SOL    HW130964  11.160  14.228   0.414
 9689SOL    HW230965  11.232  14.096   0.419
 9690SOL     OW30966  13.084  12.780   0.628
 9690SOL    HW130967  13.087  12.749   0.538
 9690SOL    HW230968  13.018  12.850   0.627
 9691SOL     OW30969   6.954   4.380   7.088
 9691SOL    HW130970   6.882   4.422   7.041
 9691SOL    HW230971   7.019   4.449   7.100
 9692SOL     OW30972   1.971   9.388   1.431
 9692SOL    HW130973   1.957   9.349   1.344
 9692SOL    HW230974   1.974   9.482   1.415
 9693SOL     OW30975   6.863   2.497   5.433
 9693SOL    HW130976   6.907   2.557   5.372
 9693SOL    HW230977   6.812   2.555   5.490
 9694SOL     OW30978   7.580   9.690   2.745
 9694SOL    HW130979   7.554   9.779   2.720
 9694SOL    HW230980   7.613   9.698   2.834
 9695SOL     OW30981   7.550  14.214  14.295
 9695SOL    HW130982   7.534  14.267  14.217
 9695SOL    HW230983   7.646  14.209  14.302
 9696SOL     OW30984   4.259  10.412   7.397
 9696SOL    HW130985   4.169  10.445   7.389
 9696SOL    HW230986   4.311  10.469   7.341
 9697SOL     OW30987  10.746  14.253   9.005
 9697SOL    HW130988  10.694  14.248   8.925
 9697SOL    HW230989  10.685  14.229   9.075
 9698SOL     OW30990   3.260  14.559   1.612
 9698SOL    HW130991   3.315  14.487   1.582
 9698SOL    HW230992   3.321  14.632   1.624
 9699SOL     OW30993   4.941  12.006   4.951
 9699SOL    HW130994   4.950  12.088   4.902
 9699SOL    HW230995   4.936  11.938   4.884
 9700SOL     OW30996   4.259   6.642   3.836
 9700SOL    HW130997   4.245   6.621   3.928
 9700SOL    HW230998   4.193   6.708   3.816
 9701SOL     OW30999  14.151  14.248   5.616
 9701SOL    HW131000  14.172  14.310   5.686
 9701SOL    HW231001  14.187  14.288   5.537
 9702SOL     OW31002   8.271  11.829   5.477
 9702SOL    HW131003   8.202  11.891   5.500
 9702SOL    HW231004   8.225  11.758   5.432
 9703SOL     OW31005  13.890  10.854   3.262
 9703SOL    HW131006  13.851  10.886   3.343
 9703SOL    HW231007  13.908  10.762   3.279
 9704SOL     OW31008   6.127  14.374   9.678
 9704SOL    HW131009   6.142  14.309   9.747
 9704SOL    HW231010   6.213  14.394   9.644
 9705SOL     OW31011   5.421   9.324   2.493
 9705SOL    HW131012   5.390   9.245   2.536
 9705SOL    HW231013   5.349   9.351   2.436
 9706SOL     OW31014  10.215  14.373   0.594
 9706SOL    HW131015  10.177  14.435   0.531
 9706SOL    HW231016  10.154  14.374   0.668
 9707SOL     OW31017   0.641   1.146   7.499
 9707SOL    HW131018   0.617   1.067   7.451
 9707SOL    HW231019   0.703   1.116   7.565
 9708SOL     OW31020   3.354   3.739   9.255
 9708SOL    HW131021   3.417   3.803   9.224
 9708SOL    HW231022   3.352   3.673   9.186
 9709SOL     OW31023   2.197   4.766  10.257
 9709SOL    HW131024   2.181   4.735  10.346
 9709SOL    HW231025   2.119   4.817  10.235
 9710SOL     OW31026   1.572   8.574   9.935
 9710SOL    HW131027   1.665   8.583   9.914
 9710SOL    HW231028   1.533   8.657   9.908
 9711SOL     OW31029   3.635   9.850   7.722
 9711SOL    HW131030   3.596   9.764   7.739
 9711SOL    HW231031   3.646   9.853   7.627
 9712SOL     OW31032  11.965  14.660   7.525
 9712SOL    HW131033  12.016  14.741   7.525
 9712SOL    HW231034  12.021  14.596   7.569
 9713SOL     OW31035   8.773   6.253   3.653
 9713SOL    HW131036   8.794   6.300   3.572
 9713SOL    HW231037   8.706   6.307   3.695
 9714SOL     OW31038  12.253  13.749   2.552
 9714SOL    HW131039  12.204  13.764   2.633
 9714SOL    HW231040  12.298  13.665   2.567
 9715SOL     OW31041   4.856   1.500  11.055
 9715SOL    HW131042   4.816   1.586  11.050
 9715SOL    HW231043   4.783   1.439  11.064
 9716SOL     OW31044   9.866  10.550   2.033
 9716SOL    HW131045   9.820  10.541   2.116
 9716SOL    HW231046   9.799  10.534   1.966
 9717SOL     OW31047   4.739   6.517   0.944
 9717SOL    HW131048   4.748   6.507   1.038
 9717SOL    HW231049   4.685   6.443   0.916
 9718SOL     OW31050   9.579   6.389  10.697
 9718SOL    HW131051   9.524   6.399  10.619
 9718SOL    HW231052   9.601   6.296  10.698
 9719SOL     OW31053   7.398   0.047   0.210
 9719SOL    HW131054   7.463   0.078   0.273
 9719SOL    HW231055   7.441   0.054   0.125
 9720SOL     OW31056   4.981   3.077   7.707
 9720SOL    HW131057   4.959   3.032   7.788
 9720SOL    HW231058   5.072   3.104   7.717
 9721SOL     OW31059   8.579   7.402   1.147
 9721SOL    HW131060   8.672   7.419   1.131
 9721SOL    HW231061   8.535   7.428   1.066
 9722SOL     OW31062   7.085  10.222  12.641
 9722SOL    HW131063   7.158  10.163  12.662
 9722SOL    HW231064   7.085  10.227  12.546
 9723SOL     OW31065  10.830  14.147   6.844
 9723SOL    HW131066  10.816  14.063   6.888
 9723SOL    HW231067  10.776  14.142   6.765
 9724SOL     OW31068   0.524   7.400   8.733
 9724SOL    HW131069   0.433   7.403   8.703
 9724SOL    HW231070   0.564   7.477   8.694
 9725SOL     OW31071  13.351   3.269   8.520
 9725SOL    HW131072  13.280   3.214   8.553
 9725SOL    HW231073  13.340   3.268   8.425
 9726SOL     OW31074  13.499   1.671   8.235
 9726SOL    HW131075  13.416   1.697   8.196
 9726SOL    HW231076  13.545   1.753   8.251
 9727SOL     OW31077  12.730   1.627  10.544
 9727SOL    HW131078  12.719   1.703  10.487
 9727SOL    HW231079  12.695   1.655  10.628
 9728SOL     OW31080   4.403   8.445  12.032
 9728SOL    HW131081   4.465   8.373  12.045
 9728SOL    HW231082   4.438   8.493  11.956
 9729SOL     OW31083   9.076   8.673   5.969
 9729SOL    HW131084   9.094   8.753   5.919
 9729SOL    HW231085   9.024   8.620   5.909
 9730SOL     OW31086  13.216   8.064   0.568
 9730SOL    HW131087  13.220   8.122   0.492
 9730SOL    HW231088  13.235   7.977   0.533
 9731SOL     OW31089  10.803   1.936   5.540
 9731SOL    HW131090  10.767   1.986   5.614
 9731SOL    HW231091  10.809   1.998   5.468
 9732SOL     OW31092  13.992  12.158  14.440
 9732SOL    HW131093  13.979  12.147  14.346
 9732SOL    HW231094  13.945  12.239  14.462
 9733SOL     OW31095   4.541  10.847   2.760
 9733SOL    HW131096   4.591  10.844   2.842
 9733SOL    HW231097   4.465  10.902   2.780
 9734SOL     OW31098  14.122   8.813   1.746
 9734SOL    HW131099  14.099   8.734   1.699
 9734SOL    HW231100  14.214   8.829   1.723
 9735SOL     OW31101   8.841   0.421   3.450
 9735SOL    HW131102   8.758   0.444   3.491
 9735SOL    HW231103   8.816   0.369   3.374
 9736SOL     OW31104   0.504   7.109  11.684
 9736SOL    HW131105   0.568   7.132  11.617
 9736SOL    HW231106   0.419   7.130  11.644
 9737SOL     OW31107   8.138  14.438  14.160
 9737SOL    HW131108   8.224  14.440  14.118
 9737SOL    HW231109   8.154  14.468  14.249
 9738SOL     OW31110   1.373   5.374   1.029
 9738SOL    HW131111   1.343   5.349   0.942
 9738SOL    HW231112   1.399   5.292   1.071
 9739SOL     OW31113   3.579   8.521  12.662
 9739SOL    HW131114   3.607   8.430  12.655
 9739SOL    HW231115   3.514   8.532  12.593
 9740SOL     OW31116   1.614  13.317   3.569
 9740SOL    HW131117   1.560  13.396   3.573
 9740SOL    HW231118   1.703  13.347   3.588
 9741SOL     OW31119   1.873   4.752   3.242
 9741SOL    HW131120   1.949   4.802   3.212
 9741SOL    HW231121   1.800   4.786   3.191
 9742SOL     OW31122   6.924   2.149  10.177
 9742SOL    HW131123   6.921   2.156  10.272
 9742SOL    HW231124   6.900   2.058  10.159
 9743SOL     OW31125  11.849  12.178   5.139
 9743SOL    HW131126  11.834  12.151   5.049
 9743SOL    HW231127  11.944  12.183   5.148
 9744SOL     OW31128   8.995   5.800   3.426
 9744SOL    HW131129   9.040   5.863   3.370
 9744SOL    HW231130   8.972   5.728   3.368
 9745SOL     OW31131   0.240   1.745  12.455
 9745SOL    HW131132   0.203   1.801  12.524
 9745SOL    HW231133   0.184   1.667  12.456
 9746SOL     OW31134   6.704   6.453   7.474
 9746SOL    HW131135   6.751   6.376   7.442
 9746SOL    HW231136   6.618   6.449   7.431
 9747SOL     OW31137  10.933   6.665   5.168
 9747SOL    HW131138  10.968   6.750   5.143
 9747SOL    HW231139  10.873   6.641   5.097
 9748SOL     OW31140   6.558   5.920   5.972
 9748SOL    HW131141   6.502   5.898   6.046
 9748SOL    HW231142   6.499   5.925   5.897
 9749SOL     OW31143   1.623  13.777   8.619
 9749SOL    HW131144   1.684  13.725   8.566
 9749SOL    HW231145   1.657  13.866   8.615
 9750SOL     OW31146   0.223  11.079   3.337
 9750SOL    HW131147   0.134  11.060   3.365
 9750SOL    HW231148   0.278  11.045   3.407
 9751SOL     OW31149   8.799   9.123   7.315
 9751SOL    HW131150   8.850   9.188   7.364
 9751SOL    HW231151   8.783   9.164   7.230
 9752SOL     OW31152  10.531  12.216  10.856
 9752SOL    HW131153  10.507  12.128  10.828
 9752SOL    HW231154  10.456  12.271  10.833
 9753SOL     OW31155  12.953   4.170   2.731
 9753SOL    HW131156  12.967   4.227   2.807
 9753SOL    HW231157  12.971   4.082   2.764
 9754SOL     OW31158  12.161   9.116   0.826
 9754SOL    HW131159  12.179   9.185   0.763
 9754SOL    HW231160  12.183   9.035   0.780
 9755SOL     OW31161   5.767  11.880   9.345
 9755SOL    HW131162   5.805  11.888   9.258
 9755SOL    HW231163   5.686  11.831   9.332
 9756SOL     OW31164  10.167   2.695  14.757
 9756SOL    HW131165  10.241   2.637  14.775
 9756SOL    HW231166  10.187   2.734  14.672
 9757SOL     OW31167   5.775   9.565  12.791
 9757SOL    HW131168   5.827   9.622  12.735
 9757SOL    HW231169   5.838   9.501  12.825
 9758SOL     OW31170   8.995   4.974   9.242
 9758SOL    HW131171   8.919   4.998   9.295
 9758SOL    HW231172   9.068   4.973   9.304
 9759SOL     OW31173   6.213   7.135   3.584
 9759SOL    HW131174   6.234   7.212   3.531
 9759SOL    HW231175   6.231   7.161   3.674
 9760SOL     OW31176  11.105   0.884  13.194
 9760SOL    HW131177  11.072   0.899  13.105
 9760SOL    HW231178  11.095   0.969  13.237
 9761SOL     OW31179  12.746  11.977  10.414
 9761SOL    HW131180  12.773  12.055  10.366
 9761SOL    HW231181  12.684  12.009  10.479
 9762SOL     OW31182   1.482   8.094  13.435
 9762SOL    HW131183   1.455   8.183  13.414
 9762SOL    HW231184   1.466   8.044  13.355
 9763SOL     OW31185  14.605  10.508   5.108
 9763SOL    HW131186  14.689  10.548   5.129
 9763SOL    HW231187  14.609  10.491   5.014
 9764SOL     OW31188   8.972   4.361  11.900
 9764SOL    HW131189   8.900   4.377  11.961
 9764SOL    HW231190   8.937   4.297  11.838
 9765SOL     OW31191  12.594  12.788   8.261
 9765SOL    HW131192  12.654  12.842   8.209
 9765SOL    HW231193  12.594  12.830   8.347
 9766SOL     OW31194  13.647   9.461   9.017
 9766SOL    HW131195  13.608   9.411   8.946
 9766SOL    HW231196  13.653   9.550   8.983
 9767SOL     OW31197   1.800  13.773   7.963
 9767SOL    HW131198   1.768  13.686   7.937
 9767SOL    HW231199   1.721  13.825   7.974
 9768SOL     OW31200  12.109   3.947   2.873
 9768SOL    HW131201  12.016   3.924   2.874
 9768SOL    HW231202  12.144   3.905   2.952
 9769SOL     OW31203   0.960   0.396   0.159
 9769SOL    HW131204   0.935   0.307   0.138
 9769SOL    HW231205   0.894   0.451   0.116
 9770SOL     OW31206   5.852  11.850  12.270
 9770SOL    HW131207   5.797  11.927  12.284
 9770SOL    HW231208   5.917  11.878  12.206
 9771SOL     OW31209   1.687   7.506   7.618
 9771SOL    HW131210   1.695   7.588   7.569
 9771SOL    HW231211   1.757   7.510   7.683
 9772SOL     OW31212  10.660  11.494   5.081
 9772SOL    HW131213  10.699  11.455   5.159
 9772SOL    HW231214  10.582  11.539   5.114
 9773SOL     OW31215   0.163   5.515   1.686
 9773SOL    HW131216   0.108   5.542   1.760
 9773SOL    HW231217   0.248   5.554   1.703
 9774SOL     OW31218  10.871   1.848   3.812
 9774SOL    HW131219  10.961   1.835   3.842
 9774SOL    HW231220  10.847   1.765   3.773
 9775SOL     OW31221   0.508  11.800  10.145
 9775SOL    HW131222   0.449  11.866  10.179
 9775SOL    HW231223   0.572  11.787  10.215
 9776SOL     OW31224   8.346   6.113   4.309
 9776SOL    HW131225   8.263   6.144   4.273
 9776SOL    HW231226   8.379   6.187   4.361
 9777SOL     OW31227  14.749  11.581   0.821
 9777SOL    HW131228  14.759  11.660   0.767
 9777SOL    HW231229  14.675  11.535   0.782
 9778SOL     OW31230  12.030   3.661   6.213
 9778SOL    HW131231  12.059   3.573   6.190
 9778SOL    HW231232  12.063   3.675   6.302
 9779SOL     OW31233  10.620   5.535   2.225
 9779SOL    HW131234  10.560   5.575   2.162
 9779SOL    HW231235  10.688   5.494   2.170
 9780SOL     OW31236   5.558   5.772  13.757
 9780SOL    HW131237   5.466   5.797  13.752
 9780SOL    HW231238   5.569   5.709  13.685
 9781SOL     OW31239   1.088   5.446   3.508
 9781SOL    HW131240   1.176   5.413   3.526
 9781SOL    HW231241   1.092   5.538   3.535
 9782SOL     OW31242   3.038   7.154   5.187
 9782SOL    HW131243   3.066   7.237   5.225
 9782SOL    HW231244   3.087   7.087   5.234
 9783SOL     OW31245   8.466   0.724   7.030
 9783SOL    HW131246   8.425   0.714   6.945
 9783SOL    HW231247   8.481   0.818   7.039
 9784SOL     OW31248   7.483   0.800   2.962
 9784SOL    HW131249   7.500   0.707   2.947
 9784SOL    HW231250   7.422   0.802   3.035
 9785SOL     OW31251  14.416   0.882   8.693
 9785SOL    HW131252  14.383   0.900   8.780
 9785SOL    HW231253  14.507   0.913   8.694
 9786SOL     OW31254   8.292   1.611   6.706
 9786SOL    HW131255   8.274   1.522   6.675
 9786SOL    HW231256   8.270   1.610   6.799
 9787SOL     OW31257  11.912   4.637   8.013
 9787SOL    HW131258  11.850   4.598   8.075
 9787SOL    HW231259  11.998   4.618   8.050
 9788SOL     OW31260   6.190  14.831   3.050
 9788SOL    HW131261   6.209  14.812   3.142
 9788SOL    HW231262   6.200   0.039   3.043
 9789SOL     OW31263  12.193   2.589   2.325
 9789SOL    HW131264  12.153   2.578   2.411
 9789SOL    HW231265  12.131   2.547   2.265
 9790SOL     OW31266  13.136   0.737   8.658
 9790SOL    HW131267  13.084   0.659   8.677
 9790SOL    HW231268  13.161   0.728   8.566
 9791SOL     OW31269   1.449   4.137   8.619
 9791SOL    HW131270   1.402   4.059   8.591
 9791SOL    HW231271   1.388   4.181   8.678
 9792SOL     OW31272   1.647  11.148  12.577
 9792SOL    HW131273   1.642  11.059  12.543
 9792SOL    HW231274   1.738  11.174  12.564
 9793SOL     OW31275   3.146   8.137   0.756
 9793SOL    HW131276   3.088   8.190   0.810
 9793SOL    HW231277   3.101   8.053   0.749
 9794SOL     OW31278  10.733   4.248  13.809
 9794SOL    HW131279  10.703   4.338  13.807
 9794SOL    HW231280  10.653   4.196  13.807
 9795SOL     OW31281  12.188   1.559  11.129
 9795SOL    HW131282  12.149   1.586  11.046
 9795SOL    HW231283  12.124   1.585  11.196
 9796SOL     OW31284   5.626   3.565  11.440
 9796SOL    HW131285   5.590   3.617  11.368
 9796SOL    HW231286   5.615   3.619  11.518
 9797SOL     OW31287   1.177   1.186   2.943
 9797SOL    HW131288   1.155   1.202   3.035
 9797SOL    HW231289   1.267   1.215   2.935
 9798SOL     OW31290   4.037   1.498   0.400
 9798SOL    HW131291   3.944   1.520   0.403
 9798SOL    HW231292   4.040   1.412   0.359
 9799SOL     OW31293  11.948  10.444   6.311
 9799SOL    HW131294  11.948  10.397   6.395
 9799SOL    HW231295  11.923  10.378   6.247
 9800SOL     OW31296   7.709   1.645  13.331
 9800SOL    HW131297   7.732   1.575  13.391
 9800SOL    HW231298   7.627   1.680  13.365
 9801SOL     OW31299  10.953   1.644   5.145
 9801SOL    HW131300  10.933   1.657   5.238
 9801SOL    HW231301  10.874   1.605   5.109
 9802SOL     OW31302  14.660   5.867   4.440
 9802SOL    HW131303  14.720   5.867   4.514
 9802SOL    HW231304  14.591   5.806   4.464
 9803SOL     OW31305   7.783   7.245  13.201
 9803SOL    HW131306   7.702   7.278  13.163
 9803SOL    HW231307   7.767   7.153  13.218
 9804SOL     OW31308   1.778   6.945  10.633
 9804SOL    HW131309   1.761   6.851  10.627
 9804SOL    HW231310   1.694   6.983  10.657
 9805SOL     OW31311   2.102  13.453   5.254
 9805SOL    HW131312   2.059  13.379   5.211
 9805SOL    HW231313   2.194  13.443   5.231
 9806SOL     OW31314   9.428   1.863   1.876
 9806SOL    HW131315   9.371   1.825   1.943
 9806SOL    HW231316   9.368   1.900   1.811
 9807SOL     OW31317   2.812   3.553   7.324
 9807SOL    HW131318   2.862   3.499   7.385
 9807SOL    HW231319   2.823   3.642   7.357
 9808SOL     OW31320   0.547  12.892   3.071
 9808SOL    HW131321   0.500  12.813   3.045
 9808SOL    HW231322   0.532  12.900   3.165
 9809SOL     OW31323   9.912  11.702   7.130
 9809SOL    HW131324   9.882  11.778   7.080
 9809SOL    HW231325   9.930  11.635   7.064
 9810SOL     OW31326   0.449   4.309   6.462
 9810SOL    HW131327   0.475   4.230   6.509
 9810SOL    HW231328   0.526   4.332   6.410
 9811SOL     OW31329   0.301   9.420   3.443
 9811SOL    HW131330   0.390   9.451   3.422
 9811SOL    HW231331   0.253   9.429   3.361
 9812SOL     OW31332   6.309  12.550  10.505
 9812SOL    HW131333   6.402  12.553  10.480
 9812SOL    HW231334   6.300  12.617  10.573
 9813SOL     OW31335   4.496   8.095   9.702
 9813SOL    HW131336   4.480   8.040   9.778
 9813SOL    HW231337   4.569   8.152   9.729
 9814SOL     OW31338   3.923  10.940   4.875
 9814SOL    HW131339   4.013  10.930   4.907
 9814SOL    HW231340   3.932  10.974   4.786
 9815SOL     OW31341   5.755  11.381   5.755
 9815SOL    HW131342   5.778  11.460   5.805
 9815SOL    HW231343   5.757  11.409   5.664
 9816SOL     OW31344  10.081  11.017   1.551
 9816SOL    HW131345  10.030  11.067   1.615
 9816SOL    HW231346  10.034  10.934   1.543
 9817SOL     OW31347   6.818   5.790   7.134
 9817SOL    HW131348   6.807   5.865   7.075
 9817SOL    HW231349   6.748   5.800   7.198
 9818SOL     OW31350   0.863  11.600   2.415
 9818SOL    HW131351   0.951  11.638   2.408
 9818SOL    HW231352   0.859  11.536   2.343
 9819SOL     OW31353  12.666   8.040   9.493
 9819SOL    HW131354  12.621   7.955   9.489
 9819SOL    HW231355  12.758   8.017   9.511
 9820SOL     OW31356   3.368   4.453   3.670
 9820SOL    HW131357   3.320   4.373   3.650
 9820SOL    HW231358   3.305   4.508   3.717
 9821SOL     OW31359   0.648   4.439  13.641
 9821SOL    HW131360   0.589   4.431  13.717
 9821SOL    HW231361   0.600   4.496  13.580
 9822SOL     OW31362   8.686   4.919   1.677
 9822SOL    HW131363   8.616   4.869   1.635
 9822SOL    HW231364   8.651   5.008   1.684
 9823SOL     OW31365  12.653  11.224  13.090
 9823SOL    HW131366  12.662  11.302  13.036
 9823SOL    HW231367  12.592  11.167  13.042
 9824SOL     OW31368   8.181   1.948   1.471
 9824SOL    HW131369   8.272   1.932   1.444
 9824SOL    HW231370   8.129   1.914   1.399
 9825SOL     OW31371   4.281  14.652  13.972
 9825SOL    HW131372   4.227  14.673  13.896
 9825SOL    HW231373   4.235  14.690  14.046
 9826SOL     OW31374   9.955   0.681   0.791
 9826SOL    HW131375   9.973   0.613   0.855
 9826SOL    HW231376  10.004   0.757   0.822
 9827SOL     OW31377   7.149   8.329  12.530
 9827SOL    HW131378   7.244   8.329  12.524
 9827SOL    HW231379   7.128   8.256  12.588
 9828SOL     OW31380   7.097  13.070   8.940
 9828SOL    HW131381   7.132  13.133   8.877
 9828SOL    HW231382   7.146  12.989   8.924
 9829SOL     OW31383  10.156  13.925   9.221
 9829SOL    HW131384  10.242  13.885   9.205
 9829SOL    HW231385  10.139  13.977   9.143
 9830SOL     OW31386   9.894   2.588  13.665
 9830SOL    HW131387   9.843   2.651  13.716
 9830SOL    HW231388   9.892   2.508  13.718
 9831SOL     OW31389  10.356   3.949  14.640
 9831SOL    HW131390  10.383   3.970  14.729
 9831SOL    HW231391  10.266   3.918  14.649
 9832SOL     OW31392   6.973   7.112   4.965
 9832SOL    HW131393   7.048   7.085   4.912
 9832SOL    HW231394   6.897   7.099   4.908
 9833SOL     OW31395   8.611  14.779   7.981
 9833SOL    HW131396   8.685  14.835   7.957
 9833SOL    HW231397   8.545  14.798   7.915
 9834SOL     OW31398  14.052  13.641   5.806
 9834SOL    HW131399  14.099  13.647   5.890
 9834SOL    HW231400  14.060  13.729   5.768
 9835SOL     OW31401  11.726   2.803  10.642
 9835SOL    HW131402  11.791   2.784  10.710
 9835SOL    HW231403  11.775   2.848  10.574
 9836SOL     OW31404   7.406   5.243   9.847
 9836SOL    HW131405   7.438   5.155   9.868
 9836SOL    HW231406   7.313   5.231   9.827
 9837SOL     OW31407  14.308   1.209   7.604
 9837SOL    HW131408  14.337   1.120   7.583
 9837SOL    HW231409  14.217   1.212   7.577
 9838SOL     OW31410   5.836   9.524  10.480
 9838SOL    HW131411   5.929   9.531  10.456
 9838SOL    HW231412   5.821   9.598  10.539
 9839SOL     OW31413   5.506   1.936   8.596
 9839SOL    HW131414   5.458   1.987   8.662
 9839SOL    HW231415   5.587   1.911   8.640
 9840SOL     OW31416   7.316   2.205  14.886
 9840SOL    HW131417   7.240   2.234   0.048
 9840SOL    HW231418   7.363   2.146   0.058
 9841SOL     OW31419   7.702  13.822   8.661
 9841SOL    HW131420   7.769  13.852   8.721
 9841SOL    HW231421   7.639  13.894   8.657
 9842SOL     OW31422  11.213   3.679  14.873
 9842SOL    HW131423  11.236   3.735  14.799
 9842SOL    HW231424  11.270   3.603  14.865
 9843SOL     OW31425   1.245   1.025  14.719
 9843SOL    HW131426   1.293   1.072  14.787
 9843SOL    HW231427   1.155   1.022  14.750
 9844SOL     OW31428   7.426  10.520  11.346
 9844SOL    HW131429   7.448  10.429  11.364
 9844SOL    HW231430   7.510  10.566  11.344
 9845SOL     OW31431   2.034   6.737   1.799
 9845SOL    HW131432   2.127   6.744   1.817
 9845SOL    HW231433   1.993   6.805   1.852
 9846SOL     OW31434  11.133   3.544   4.317
 9846SOL    HW131435  11.089   3.514   4.237
 9846SOL    HW231436  11.083   3.622   4.344
 9847SOL     OW31437  12.926   8.888  12.656
 9847SOL    HW131438  12.850   8.857  12.607
 9847SOL    HW231439  12.893   8.961  12.708
 9848SOL     OW31440  11.058   2.412   0.625
 9848SOL    HW131441  11.134   2.467   0.605
 9848SOL    HW231442  11.018   2.395   0.540
 9849SOL     OW31443   1.522   4.752  11.059
 9849SOL    HW131444   1.581   4.807  11.007
 9849SOL    HW231445   1.436   4.794  11.049
 9850SOL     OW31446   4.266   3.503   0.177
 9850SOL    HW131447   4.218   3.428   0.143
 9850SOL    HW231448   4.329   3.525   0.109
 9851SOL     OW31449  10.957   5.162  13.851
 9851SOL    HW131450  10.906   5.081  13.858
 9851SOL    HW231451  11.006   5.153  13.769
 9852SOL     OW31452   5.629   5.986  10.418
 9852SOL    HW131453   5.582   5.947  10.344
 9852SOL    HW231454   5.591   6.073  10.427
 9853SOL     OW31455  12.635   0.715   1.206
 9853SOL    HW131456  12.699   0.676   1.267
 9853SOL    HW231457  12.555   0.724   1.259
 9854SOL     OW31458   3.132   4.918  11.354
 9854SOL    HW131459   3.222   4.916  11.323
 9854SOL    HW231460   3.132   4.986  11.421
 9855SOL     OW31461  10.999  13.719   3.588
 9855SOL    HW131462  10.952  13.653   3.537
 9855SOL    HW231463  10.931  13.778   3.619
 9856SOL     OW31464   8.879   0.117   5.740
 9856SOL    HW131465   8.895   0.043   5.682
 9856SOL    HW231466   8.791   0.102   5.774
 9857SOL     OW31467  13.680  11.568   4.445
 9857SOL    HW131468  13.744  11.612   4.389
 9857SOL    HW231469  13.732  11.508   4.498
 9858SOL     OW31470   9.828   2.873  10.887
 9858SOL    HW131471   9.789   2.953  10.922
 9858SOL    HW231472   9.753   2.822  10.856
 9859SOL     OW31473  10.355   9.165  11.321
 9859SOL    HW131474  10.416   9.188  11.392
 9859SOL    HW231475  10.290   9.108  11.363
 9860SOL     OW31476  13.171   1.602  14.047
 9860SOL    HW131477  13.170   1.611  14.142
 9860SOL    HW231478  13.239   1.663  14.017
 9861SOL     OW31479  11.669   3.963  12.935
 9861SOL    HW131480  11.706   4.042  12.896
 9861SOL    HW231481  11.735   3.934  12.998
 9862SOL     OW31482  13.051   8.075   2.430
 9862SOL    HW131483  13.077   7.985   2.408
 9862SOL    HW231484  12.957   8.077   2.415
 9863SOL     OW31485  14.182  10.534  11.259
 9863SOL    HW131486  14.229  10.528  11.342
 9863SOL    HW231487  14.231  10.477  11.199
 9864SOL     OW31488   0.472   5.351   9.663
 9864SOL    HW131489   0.426   5.275   9.698
 9864SOL    HW231490   0.535   5.315   9.601
 9865SOL     OW31491   3.757   3.458   6.677
 9865SOL    HW131492   3.668   3.431   6.652
 9865SOL    HW231493   3.752   3.472   6.772
 9866SOL     OW31494   1.453   2.624   9.477
 9866SOL    HW131495   1.524   2.686   9.461
 9866SOL    HW231496   1.409   2.615   9.392
 9867SOL     OW31497  13.513   0.177   7.331
 9867SOL    HW131498  13.479   0.110   7.391
 9867SOL    HW231499  13.441   0.238   7.318
 9868SOL     OW31500   3.889   1.253   0.513
 9868SOL    HW131501   3.884   1.309   0.590
 9868SOL    HW231502   3.975   1.211   0.518
 9869SOL     OW31503   3.084   0.325   6.879
 9869SOL    HW131504   3.157   0.297   6.824
 9869SOL    HW231505   3.020   0.254   6.872
 9870SOL     OW31506   3.263  11.846   6.249
 9870SOL    HW131507   3.357  11.864   6.249
 9870SOL    HW231508   3.252  11.775   6.185
 9871SOL     OW31509   4.330   0.092  10.304
 9871SOL    HW131510   4.353   0.182  10.327
 9871SOL    HW231511   4.384   0.038  10.362
 9872SOL     OW31512   8.305   0.284   7.762
 9872SOL    HW131513   8.279   0.325   7.679
 9872SOL    HW231514   8.245   0.210   7.771
 9873SOL     OW31515   1.532   1.794   4.408
 9873SOL    HW131516   1.529   1.830   4.496
 9873SOL    HW231517   1.522   1.869   4.350
 9874SOL     OW31518   5.499  11.241   1.882
 9874SOL    HW131519   5.540  11.176   1.938
 9874SOL    HW231520   5.412  11.254   1.918
 9875SOL     OW31521  11.369   7.717   8.763
 9875SOL    HW131522  11.310   7.735   8.837
 9875SOL    HW231523  11.457   7.726   8.800
 9876SOL     OW31524  13.522  12.525  11.050
 9876SOL    HW131525  13.518  12.520  11.145
 9876SOL    HW231526  13.608  12.563  11.031
 9877SOL     OW31527   3.288   9.039   4.502
 9877SOL    HW131528   3.366   9.073   4.544
 9877SOL    HW231529   3.300   9.056   4.409
 9878SOL     OW31530   4.465   9.925  12.655
 9878SOL    HW131531   4.448   9.970  12.738
 9878SOL    HW231532   4.515   9.847  12.680
 9879SOL     OW31533   5.788   8.976   1.077
 9879SOL    HW131534   5.880   8.959   1.100
 9879SOL    HW231535   5.783   8.953   0.984
 9880SOL     OW31536   9.904  11.325   5.656
 9880SOL    HW131537   9.969  11.395   5.649
 9880SOL    HW231538   9.928  11.278   5.736
 9881SOL     OW31539   4.127   0.685   0.298
 9881SOL    HW131540   4.110   0.607   0.351
 9881SOL    HW231541   4.084   0.756   0.346
 9882SOL     OW31542   1.568  14.269   6.097
 9882SOL    HW131543   1.662  14.291   6.101
 9882SOL    HW231544   1.553  14.246   6.006
 9883SOL     OW31545   2.222   1.910   8.531
 9883SOL    HW131546   2.267   1.975   8.477
 9883SOL    HW231547   2.265   1.827   8.510
 9884SOL     OW31548   5.069   4.102   5.233
 9884SOL    HW131549   4.974   4.096   5.245
 9884SOL    HW231550   5.102   4.015   5.255
 9885SOL     OW31551   1.316   3.917   0.769
 9885SOL    HW131552   1.268   3.995   0.795
 9885SOL    HW231553   1.252   3.847   0.772
 9886SOL     OW31554   9.817   8.497  11.895
 9886SOL    HW131555   9.798   8.425  11.835
 9886SOL    HW231556   9.873   8.556  11.845
 9887SOL     OW31557   8.432  13.925   5.307
 9887SOL    HW131558   8.448  14.019   5.317
 9887SOL    HW231559   8.422  13.892   5.396
 9888SOL     OW31560   6.217  10.625   8.507
 9888SOL    HW131561   6.300  10.631   8.459
 9888SOL    HW231562   6.164  10.565   8.454
 9889SOL     OW31563  10.959   5.013  10.994
 9889SOL    HW131564  10.897   5.078  10.961
 9889SOL    HW231565  10.912   4.967  11.064
 9890SOL     OW31566   0.838   3.084   4.554
 9890SOL    HW131567   0.822   3.000   4.596
 9890SOL    HW231568   0.915   3.069   4.499
 9891SOL     OW31569   4.054  11.764   8.415
 9891SOL    HW131570   4.083  11.681   8.376
 9891SOL    HW231571   3.971  11.742   8.458
 9892SOL     OW31572   7.669  10.967  11.691
 9892SOL    HW131573   7.592  10.989  11.743
 9892SOL    HW231574   7.672  10.871  11.693
 9893SOL     OW31575   4.319   5.457  10.602
 9893SOL    HW131576   4.352   5.547  10.603
 9893SOL    HW231577   4.329   5.426  10.692
 9894SOL     OW31578   5.050   8.518   9.144
 9894SOL    HW131579   4.996   8.597   9.145
 9894SOL    HW231580   5.035   8.480   9.058
 9895SOL     OW31581  10.768   8.006  12.589
 9895SOL    HW131582  10.705   8.075  12.567
 9895SOL    HW231583  10.846   8.028  12.537
 9896SOL     OW31584   8.511   5.321   2.050
 9896SOL    HW131585   8.454   5.327   1.973
 9896SOL    HW231586   8.506   5.228   2.076
 9897SOL     OW31587   9.390   8.359   5.209
 9897SOL    HW131588   9.427   8.438   5.250
 9897SOL    HW231589   9.369   8.386   5.120
 9898SOL     OW31590  12.675   3.152   9.484
 9898SOL    HW131591  12.661   3.063   9.516
 9898SOL    HW231592  12.665   3.145   9.389
 9899SOL     OW31593   4.859   7.044   2.949
 9899SOL    HW131594   4.910   7.125   2.941
 9899SOL    HW231595   4.768   7.073   2.942
 9900SOL     OW31596   8.933  12.915   5.663
 9900SOL    HW131597   8.946  12.959   5.579
 9900SOL    HW231598   8.884  12.835   5.641
 9901SOL     OW31599  14.155   4.993   1.473
 9901SOL    HW131600  14.197   4.984   1.387
 9901SOL    HW231601  14.062   4.987   1.455
 9902SOL     OW31602  12.451   9.458   6.066
 9902SOL    HW131603  12.510   9.480   5.994
 9902SOL    HW231604  12.439   9.541   6.113
 9903SOL     OW31605   5.283  12.651   0.229
 9903SOL    HW131606   5.237  12.698   0.159
 9903SOL    HW231607   5.223  12.581   0.254
 9904SOL     OW31608   4.990   1.073  14.328
 9904SOL    HW131609   4.945   1.151  14.293
 9904SOL    HW231610   4.920   1.010  14.342
 9905SOL     OW31611   1.628   9.870   5.879
 9905SOL    HW131612   1.723   9.871   5.871
 9905SOL    HW231613   1.610   9.924   5.956
 9906SOL     OW31614   0.426  11.678   3.643
 9906SOL    HW131615   0.406  11.599   3.591
 9906SOL    HW231616   0.450  11.644   3.729
 9907SOL     OW31617   5.638   2.509   8.817
 9907SOL    HW131618   5.582   2.440   8.784
 9907SOL    HW231619   5.701   2.525   8.747
 9908SOL     OW31620  12.050   5.734  11.833
 9908SOL    HW131621  12.144   5.747  11.819
 9908SOL    HW231622  12.028   5.658  11.779
 9909SOL     OW31623   0.792   6.746   3.122
 9909SOL    HW131624   0.879   6.721   3.091
 9909SOL    HW231625   0.807   6.816   3.185
 9910SOL     OW31626   4.226  14.086   7.601
 9910SOL    HW131627   4.299  14.031   7.572
 9910SOL    HW231628   4.150  14.051   7.554
 9911SOL     OW31629   2.328   6.934  13.097
 9911SOL    HW131630   2.360   6.900  13.013
 9911SOL    HW231631   2.320   6.856  13.152
 9912SOL     OW31632   9.879   6.970   1.624
 9912SOL    HW131633   9.784   6.960   1.629
 9912SOL    HW231634   9.913   6.907   1.687
 9913SOL     OW31635   1.259   0.305   4.738
 9913SOL    HW131636   1.274   0.246   4.812
 9913SOL    HW231637   1.290   0.256   4.662
 9914SOL     OW31638   5.705  11.786   6.835
 9914SOL    HW131639   5.786  11.819   6.874
 9914SOL    HW231640   5.731  11.705   6.791
 9915SOL     OW31641  13.376   0.399  13.730
 9915SOL    HW131642  13.398   0.492  13.743
 9915SOL    HW231643  13.409   0.379  13.643
 9916SOL     OW31644  10.543   3.087   5.692
 9916SOL    HW131645  10.629   3.121   5.668
 9916SOL    HW231646  10.496   3.080   5.609
 9917SOL     OW31647   3.034  12.053  10.969
 9917SOL    HW131648   2.969  12.101  10.917
 9917SOL    HW231649   3.101  12.118  10.988
 9918SOL     OW31650   0.887   5.602   3.180
 9918SOL    HW131651   0.846   5.684   3.205
 9918SOL    HW231652   0.930   5.621   3.096
 9919SOL     OW31653   8.465   9.705  13.364
 9919SOL    HW131654   8.389   9.754  13.397
 9919SOL    HW231655   8.480   9.740  13.277
 9920SOL     OW31656   1.324   4.346   9.026
 9920SOL    HW131657   1.316   4.417   9.090
 9920SOL    HW231658   1.418   4.331   9.019
 9921SOL     OW31659  13.396   1.920  11.361
 9921SOL    HW131660  13.450   1.973  11.420
 9921SOL    HW231661  13.419   1.952  11.273
 9922SOL     OW31662   5.203   9.515   4.295
 9922SOL    HW131663   5.134   9.556   4.347
 9922SOL    HW231664   5.283   9.526   4.346
 9923SOL     OW31665  12.200  11.020   6.194
 9923SOL    HW131666  12.222  10.992   6.283
 9923SOL    HW231667  12.278  10.997   6.142
 9924SOL     OW31668  12.851   1.645   7.411
 9924SOL    HW131669  12.870   1.739   7.413
 9924SOL    HW231670  12.875   1.618   7.322
 9925SOL     OW31671   6.073   9.268  14.213
 9925SOL    HW131672   6.027   9.256  14.297
 9925SOL    HW231673   6.029   9.341  14.171
 9926SOL     OW31674   3.170   6.758  13.704
 9926SOL    HW131675   3.204   6.669  13.702
 9926SOL    HW231676   3.076   6.749  13.691
 9927SOL     OW31677  12.730   8.925   4.140
 9927SOL    HW131678  12.803   8.900   4.197
 9927SOL    HW231679  12.742   9.020   4.127
 9928SOL     OW31680  12.705  14.697   0.546
 9928SOL    HW131681  12.746  14.611   0.558
 9928SOL    HW231682  12.637  14.700   0.614
 9929SOL     OW31683   4.756  12.281   3.103
 9929SOL    HW131684   4.836  12.230   3.113
 9929SOL    HW231685   4.734  12.272   3.010
 9930SOL     OW31686   6.144   5.587  12.314
 9930SOL    HW131687   6.050   5.593  12.295
 9930SOL    HW231688   6.151   5.517  12.379
 9931SOL     OW31689  11.086  10.251   7.894
 9931SOL    HW131690  11.003  10.268   7.938
 9931SOL    HW231691  11.070  10.171   7.843
 9932SOL     OW31692  11.244   2.397   6.469
 9932SOL    HW131693  11.279   2.441   6.546
 9932SOL    HW231694  11.154   2.374   6.492
 9933SOL     OW31695   1.337   1.621   9.357
 9933SOL    HW131696   1.432   1.627   9.368
 9933SOL    HW231697   1.325   1.604   9.263
 9934SOL     OW31698   5.983   3.251   1.086
 9934SOL    HW131699   6.009   3.304   1.011
 9934SOL    HW231700   5.904   3.205   1.057
 9935SOL     OW31701  14.651   4.593   4.592
 9935SOL    HW131702  14.730   4.577   4.540
 9935SOL    HW231703  14.582   4.547   4.545
 9936SOL     OW31704   3.810   5.598   3.799
 9936SOL    HW131705   3.743   5.531   3.786
 9936SOL    HW231706   3.780   5.673   3.749
 9937SOL     OW31707   6.695   5.516   2.875
 9937SOL    HW131708   6.772   5.502   2.820
 9937SOL    HW231709   6.679   5.610   2.870
 9938SOL     OW31710  12.427  10.163   4.990
 9938SOL    HW131711  12.495  10.202   4.935
 9938SOL    HW231712  12.427  10.215   5.070
 9939SOL     OW31713   4.710  11.235   8.433
 9939SOL    HW131714   4.715  11.323   8.472
 9939SOL    HW231715   4.786  11.189   8.470
 9940SOL     OW31716  11.049   2.333   7.644
 9940SOL    HW131717  11.054   2.238   7.651
 9940SOL    HW231718  11.114   2.365   7.705
 9941SOL     OW31719   5.837   5.923   6.195
 9941SOL    HW131720   5.901   5.861   6.160
 9941SOL    HW231721   5.771   5.868   6.239
 9942SOL     OW31722   1.482   0.381  12.574
 9942SOL    HW131723   1.508   0.447  12.639
 9942SOL    HW231724   1.429   0.429  12.511
 9943SOL     OW31725   1.743   1.359  14.621
 9943SOL    HW131726   1.737   1.429  14.685
 9943SOL    HW231727   1.668   1.302  14.640
 9944SOL     OW31728   7.180   2.655   0.756
 9944SOL    HW131729   7.191   2.705   0.837
 9944SOL    HW231730   7.216   2.569   0.777
 9945SOL     OW31731   8.456   5.410   9.686
 9945SOL    HW131732   8.400   5.484   9.663
 9945SOL    HW231733   8.438   5.344   9.618
 9946SOL     OW31734  14.354  14.332   0.171
 9946SOL    HW131735  14.280  14.291   0.215
 9946SOL    HW231736  14.315  14.397   0.113
 9947SOL     OW31737   6.332   9.151   3.170
 9947SOL    HW131738   6.335   9.113   3.258
 9947SOL    HW231739   6.244   9.134   3.139
 9948SOL     OW31740   8.858   5.774   1.444
 9948SOL    HW131741   8.786   5.832   1.418
 9948SOL    HW231742   8.896   5.817   1.521
 9949SOL     OW31743   8.102  13.576  14.241
 9949SOL    HW131744   8.103  13.661  14.284
 9949SOL    HW231745   8.193  13.545  14.247
 9950SOL     OW31746   0.777  10.105   3.860
 9950SOL    HW131747   0.723  10.167   3.911
 9950SOL    HW231748   0.862  10.107   3.903
 9951SOL     OW31749  11.071  14.272   6.400
 9951SOL    HW131750  11.143  14.298   6.457
 9951SOL    HW231751  11.100  14.294   6.312
 9952SOL     OW31752   5.201   3.859  14.524
 9952SOL    HW131753   5.177   3.895  14.610
 9952SOL    HW231754   5.291   3.830  14.535
 9953SOL     OW31755   2.790   1.425   3.006
 9953SOL    HW131756   2.788   1.512   2.967
 9953SOL    HW231757   2.879   1.393   2.989
 9954SOL     OW31758  14.565   8.511  14.301
 9954SOL    HW131759  14.529   8.481  14.384
 9954SOL    HW231760  14.585   8.431  14.253
 9955SOL     OW31761   2.218   3.243   1.187
 9955SOL    HW131762   2.288   3.219   1.126
 9955SOL    HW231763   2.145   3.270   1.131
 9956SOL     OW31764   9.521   9.627   5.440
 9956SOL    HW131765   9.514   9.548   5.386
 9956SOL    HW231766   9.439   9.630   5.490
 9957SOL     OW31767   5.695   0.260  14.435
 9957SOL    HW131768   5.630   0.252  14.366
 9957SOL    HW231769   5.759   0.191  14.416
 9958SOL     OW31770   3.859  11.416  12.879
 9958SOL    HW131771   3.878  11.334  12.834
 9958SOL    HW231772   3.910  11.482  12.831
 9959SOL     OW31773   4.817   6.854   0.173
 9959SOL    HW131774   4.863   6.937   0.167
 9959SOL    HW231775   4.780   6.854   0.261
 9960SOL     OW31776  14.370   7.726  13.421
 9960SOL    HW131777  14.442   7.788  13.407
 9960SOL    HW231778  14.401   7.670  13.492
 9961SOL     OW31779  10.599  13.678   8.591
 9961SOL    HW131780  10.528  13.684   8.527
 9961SOL    HW231781  10.671  13.639   8.542
 9962SOL     OW31782   8.280   8.963   3.852
 9962SOL    HW131783   8.365   8.987   3.815
 9962SOL    HW231784   8.234   9.046   3.864
 9963SOL     OW31785  11.639   5.919  13.251
 9963SOL    HW131786  11.617   5.826  13.253
 9963SOL    HW231787  11.557   5.964  13.272
 9964SOL     OW31788   5.359   1.001  13.041
 9964SOL    HW131789   5.415   0.936  12.998
 9964SOL    HW231790   5.384   0.996  13.133
 9965SOL     OW31791  13.142   7.418  11.732
 9965SOL    HW131792  13.120   7.372  11.813
 9965SOL    HW231793  13.107   7.363  11.663
 9966SOL     OW31794   8.797   6.656  10.109
 9966SOL    HW131795   8.738   6.732  10.101
 9966SOL    HW231796   8.738   6.581  10.119
 9967SOL     OW31797   5.108   7.772   7.941
 9967SOL    HW131798   5.062   7.813   8.014
 9967SOL    HW231799   5.117   7.842   7.876
 9968SOL     OW31800   8.441   2.549   4.693
 9968SOL    HW131801   8.405   2.472   4.738
 9968SOL    HW231802   8.444   2.617   4.760
 9969SOL     OW31803   2.616  13.633  10.587
 9969SOL    HW131804   2.660  13.563  10.537
 9969SOL    HW231805   2.642  13.617  10.678
 9970SOL     OW31806   1.774  11.779  13.400
 9970SOL    HW131807   1.744  11.715  13.336
 9970SOL    HW231808   1.825  11.843  13.349
 9971SOL     OW31809   0.376   7.782   1.413
 9971SOL    HW131810   0.405   7.783   1.322
 9971SOL    HW231811   0.401   7.696   1.446
 9972SOL     OW31812  10.501  11.402  11.790
 9972SOL    HW131813  10.406  11.412  11.779
 9972SOL    HW231814  10.522  11.320  11.745
 9973SOL     OW31815   7.633  13.321   2.305
 9973SOL    HW131816   7.633  13.377   2.383
 9973SOL    HW231817   7.607  13.235   2.337
 9974SOL     OW31818   2.820   8.655   2.974
 9974SOL    HW131819   2.769   8.679   3.052
 9974SOL    HW231820   2.789   8.568   2.951
 9975SOL     OW31821   4.586  12.951   9.939
 9975SOL    HW131822   4.652  13.017   9.922
 9975SOL    HW231823   4.579  12.948  10.035
 9976SOL     OW31824   6.182   6.917   2.454
 9976SOL    HW131825   6.131   6.897   2.532
 9976SOL    HW231826   6.173   7.011   2.441
 9977SOL     OW31827   8.270   6.452  11.401
 9977SOL    HW131828   8.264   6.539  11.363
 9977SOL    HW231829   8.291   6.394  11.328
 9978SOL     OW31830   9.358   8.568   6.611
 9978SOL    HW131831   9.423   8.637   6.625
 9978SOL    HW231832   9.277   8.604   6.646
 9979SOL     OW31833   6.591  13.054   3.904
 9979SOL    HW131834   6.637  12.998   3.968
 9979SOL    HW231835   6.590  13.141   3.945
 9980SOL     OW31836  10.413   5.060   2.513
 9980SOL    HW131837  10.331   5.025   2.478
 9980SOL    HW231838  10.387   5.139   2.562
 9981SOL     OW31839   8.224   5.136  14.650
 9981SOL    HW131840   8.280   5.202  14.610
 9981SOL    HW231841   8.260   5.053  14.619
 9982SOL     OW31842   0.062   7.922   5.130
 9982SOL    HW131843   0.035   8.010   5.153
 9982SOL    HW231844   0.010   7.902   5.051
 9983SOL     OW31845  10.882   7.792   2.480
 9983SOL    HW131846  10.882   7.701   2.510
 9983SOL    HW231847  10.900   7.786   2.386
 9984SOL     OW31848   9.155   1.167   8.565
 9984SOL    HW131849   9.076   1.121   8.538
 9984SOL    HW231850   9.123   1.237   8.623
 9985SOL     OW31851   0.733  11.656  12.923
 9985SOL    HW131852   0.677  11.726  12.956
 9985SOL    HW231853   0.696  11.635  12.837
 9986SOL     OW31854   9.041  12.488   9.421
 9986SOL    HW131855   9.027  12.518   9.331
 9986SOL    HW231856   8.977  12.417   9.433
 9987SOL     OW31857  13.139  14.606  14.008
 9987SOL    HW131858  13.100  14.518  14.006
 9987SOL    HW231859  13.153  14.624  14.101
 9988SOL     OW31860   3.733   7.856   4.123
 9988SOL    HW131861   3.819   7.863   4.082
 9988SOL    HW231862   3.728   7.765   4.152
 9989SOL     OW31863  14.250   4.953  13.306
 9989SOL    HW131864  14.240   5.025  13.244
 9989SOL    HW231865  14.177   4.894  13.286
 9990SOL     OW31866   2.561   2.769  12.343
 9990SOL    HW131867   2.490   2.726  12.296
 9990SOL    HW231868   2.518   2.818  12.413
 9991SOL     OW31869   1.366   5.210   5.097
 9991SOL    HW131870   1.357   5.116   5.116
 9991SOL    HW231871   1.277   5.239   5.077
 9992SOL     OW31872   5.823   8.939  10.370
 9992SOL    HW131873   5.870   8.861  10.399
 9992SOL    HW231874   5.745   8.942  10.426
 9993SOL     OW31875   2.664   1.384  13.985
 9993SOL    HW131876   2.621   1.438  13.918
 9993SOL    HW231877   2.603   1.313  14.002
 9994SOL     OW31878  13.717   1.679  13.134
 9994SOL    HW131879  13.718   1.755  13.076
 9994SOL    HW231880  13.809   1.660  13.150
 9995SOL     OW31881   9.443   3.915   5.168
 9995SOL    HW131882   9.397   3.895   5.250
 9995SOL    HW231883   9.374   3.921   5.102
 9996SOL     OW31884   8.012  11.742   7.204
 9996SOL    HW131885   7.926  11.709   7.178
 9996SOL    HW231886   8.068  11.664   7.205
 9997SOL     OW31887   9.068   3.205   7.453
 9997SOL    HW131888   9.162   3.207   7.471
 9997SOL    HW231889   9.050   3.113   7.431
 9998SOL     OW31890   8.034   8.474   0.407
 9998SOL    HW131891   7.975   8.547   0.391
 9998SOL    HW231892   8.043   8.471   0.502
 9999SOL     OW31893   3.177  12.497   4.103
 9999SOL    HW131894   3.229  12.563   4.150
 9999SOL    HW231895   3.231  12.474   4.027
10000SOL     OW31896   8.434   1.696  11.744
10000SOL    HW131897   8.353   1.748  11.737
10000SOL    HW231898   8.454   1.672  11.653
10001SOL     OW31899   5.255   6.774   5.097
10001SOL    HW131900   5.349   6.757   5.098
10001SOL    HW231901   5.244   6.849   5.156
10002SOL     OW31902   8.312   9.434   0.879
10002SOL    HW131903   8.228   9.396   0.853
10002SOL    HW231904   8.344   9.376   0.949
10003SOL     OW31905   2.796  13.593   1.203
10003SOL    HW131906   2.726  13.640   1.248
10003SOL    HW231907   2.801  13.634   1.117
10004SOL     OW31908  12.622  14.667   5.987
10004SOL    HW131909  12.536  14.635   6.011
10004SOL    HW231910  12.638  14.632   5.899
10005SOL     OW31911  13.833  11.529   0.101
10005SOL    HW131912  13.779  11.607   0.089
10005SOL    HW231913  13.909  11.560   0.150
10006SOL     OW31914  13.751   6.303   8.180
10006SOL    HW131915  13.755   6.306   8.275
10006SOL    HW231916  13.664   6.336   8.158
10007SOL     OW31917  10.764   7.186   3.341
10007SOL    HW131918  10.798   7.161   3.256
10007SOL    HW231919  10.822   7.256   3.371
10008SOL     OW31920   1.777   4.980  10.965
10008SOL    HW131921   1.714   4.956  10.897
10008SOL    HW231922   1.728   5.033  11.027
10009SOL     OW31923   9.235   9.045  13.224
10009SOL    HW131924   9.305   8.980  13.231
10009SOL    HW231925   9.168   9.001  13.170
10010SOL     OW31926  12.610   0.575   7.163
10010SOL    HW131927  12.660   0.571   7.082
10010SOL    HW231928  12.628   0.491   7.206
10011SOL     OW31929  13.486   2.557   9.210
10011SOL    HW131930  13.570   2.520   9.238
10011SOL    HW231931  13.479   2.533   9.118
10012SOL     OW31932   5.460   4.253  12.224
10012SOL    HW131933   5.423   4.178  12.269
10012SOL    HW231934   5.529   4.285  12.282
10013SOL     OW31935  12.564   0.375   3.641
10013SOL    HW131936  12.605   0.367   3.555
10013SOL    HW231937  12.621   0.436   3.689
10014SOL     OW31938   0.663  14.268   6.728
10014SOL    HW131939   0.692  14.177   6.729
10014SOL    HW231940   0.647  14.289   6.820
10015SOL     OW31941   0.731   8.951  11.181
10015SOL    HW131942   0.727   8.897  11.102
10015SOL    HW231943   0.640   8.966  11.205
10016SOL     OW31944   5.833   9.814  11.849
10016SOL    HW131945   5.856   9.793  11.758
10016SOL    HW231946   5.778   9.892  11.842
10017SOL     OW31947  12.345  10.223   7.778
10017SOL    HW131948  12.428  10.226   7.826
10017SOL    HW231949  12.367  10.179   7.696
10018SOL     OW31950   5.440   1.678   7.227
10018SOL    HW131951   5.416   1.715   7.142
10018SOL    HW231952   5.439   1.753   7.287
10019SOL     OW31953   8.088   3.680   7.267
10019SOL    HW131954   8.091   3.599   7.317
10019SOL    HW231955   8.169   3.680   7.217
10020SOL     OW31956   1.088   6.237   2.667
10020SOL    HW131957   1.064   6.321   2.705
10020SOL    HW231958   1.165   6.209   2.717
10021SOL     OW31959  10.264   2.347   0.682
10021SOL    HW131960  10.334   2.390   0.632
10021SOL    HW231961  10.208   2.307   0.615
10022SOL     OW31962   3.605   7.526   7.864
10022SOL    HW131963   3.538   7.591   7.886
10022SOL    HW231964   3.604   7.521   7.769
10023SOL     OW31965   9.644  13.914   6.848
10023SOL    HW131966   9.739  13.910   6.834
10023SOL    HW231967   9.623  14.007   6.848
10024SOL     OW31968   3.618   7.503   9.943
10024SOL    HW131969   3.600   7.493  10.037
10024SOL    HW231970   3.695   7.449   9.927
10025SOL     OW31971   0.311  10.058   4.009
10025SOL    HW131972   0.376  10.116   3.969
10025SOL    HW231973   0.353   9.972   4.010
10026SOL     OW31974   5.637   6.370   2.835
10026SOL    HW131975   5.652   6.328   2.750
10026SOL    HW231976   5.593   6.452   2.814
10027SOL     OW31977   9.679   3.556   7.765
10027SOL    HW131978   9.748   3.568   7.830
10027SOL    HW231979   9.611   3.506   7.811
10028SOL     OW31980   6.133   6.190   2.975
10028SOL    HW131981   6.197   6.261   2.979
10028SOL    HW231982   6.055   6.225   3.018
10029SOL     OW31983  10.792   8.389   0.631
10029SOL    HW131984  10.843   8.369   0.553
10029SOL    HW231985  10.820   8.478   0.656
10030SOL     OW31986  11.984  13.773  11.270
10030SOL    HW131987  12.064  13.723  11.256
10030SOL    HW231988  11.920  13.732  11.213
10031SOL     OW31989   6.109   3.324  12.953
10031SOL    HW131990   6.203   3.338  12.957
10031SOL    HW231991   6.089   3.323  12.859
10032SOL     OW31992   1.677  14.605   6.590
10032SOL    HW131993   1.583  14.622   6.592
10032SOL    HW231994   1.716  14.686   6.556
10033SOL     OW31995   6.669   3.167   2.580
10033SOL    HW131996   6.694   3.181   2.488
10033SOL    HW231997   6.593   3.108   2.576
10034SOL     OW31998  11.191  10.525   3.384
10034SOL    HW131999  11.137  10.561   3.455
10034SOL    HW232000  11.169  10.432   3.382
10035SOL     OW32001   3.381   3.995   3.932
10035SOL    HW132002   3.406   3.931   3.866
10035SOL    HW232003   3.414   4.078   3.898
10036SOL     OW32004   9.073   1.449   4.873
10036SOL    HW132005   9.006   1.457   4.941
10036SOL    HW232006   9.117   1.534   4.874
10037SOL     OW32007   4.403   0.888   2.947
10037SOL    HW132008   4.419   0.813   3.003
10037SOL    HW232009   4.343   0.855   2.880
10038SOL     OW32010   1.982   7.625   9.474
10038SOL    HW132011   1.995   7.661   9.562
10038SOL    HW232012   1.892   7.650   9.452
10039SOL     OW32013   5.000  13.171   0.188
10039SOL    HW132014   5.030  13.115   0.259
10039SOL    HW232015   5.053  13.251   0.195
10040SOL     OW32016  13.023  10.805   8.438
10040SOL    HW132017  12.999  10.720   8.473
10040SOL    HW232018  12.984  10.806   8.350
10041SOL     OW32019   7.695   0.927  13.587
10041SOL    HW132020   7.753   0.889  13.654
10041SOL    HW232021   7.733   0.899  13.504
10042SOL     OW32022  13.347   0.180   2.267
10042SOL    HW132023  13.276   0.172   2.203
10042SOL    HW232024  13.426   0.158   2.218
10043SOL     OW32025   8.717  12.036   5.333
10043SOL    HW132026   8.785  11.971   5.317
10043SOL    HW232027   8.635  11.987   5.325
10044SOL     OW32028   8.750   5.450   2.786
10044SOL    HW132029   8.669   5.482   2.826
10044SOL    HW232030   8.820   5.486   2.840
10045SOL     OW32031   0.162   0.759   5.672
10045SOL    HW132032   0.232   0.746   5.608
10045SOL    HW232033   0.111   0.678   5.670
10046SOL     OW32034   5.785   0.995   9.934
10046SOL    HW132035   5.830   1.066   9.980
10046SOL    HW232036   5.710   1.037   9.892
10047SOL     OW32037   9.933   2.778  12.767
10047SOL    HW132038   9.855   2.727  12.746
10047SOL    HW232039   9.964   2.809  12.682
10048SOL     OW32040   9.407   6.755   9.303
10048SOL    HW132041   9.485   6.750   9.358
10048SOL    HW232042   9.387   6.663   9.284
10049SOL     OW32043  11.638   9.698   9.761
10049SOL    HW132044  11.730   9.687   9.786
10049SOL    HW232045  11.609   9.773   9.812
10050SOL     OW32046   8.659  11.322   0.298
10050SOL    HW132047   8.667  11.231   0.271
10050SOL    HW232048   8.645  11.371   0.217
10051SOL     OW32049   2.741  12.509  14.746
10051SOL    HW132050   2.836  12.505  14.731
10051SOL    HW232051   2.723  12.437  14.806
10052SOL     OW32052   7.085   4.220  14.301
10052SOL    HW132053   7.083   4.279  14.226
10052SOL    HW232054   7.015   4.251  14.358
10053SOL     OW32055   6.574   4.463   2.528
10053SOL    HW132056   6.618   4.525   2.469
10053SOL    HW232057   6.640   4.442   2.594
10054SOL     OW32058   1.104  13.025   3.550
10054SOL    HW132059   1.081  13.117   3.562
10054SOL    HW232060   1.141  13.020   3.462
10055SOL     OW32061  14.594  14.838   2.838
10055SOL    HW132062  14.571  14.773   2.772
10055SOL    HW232063  14.526   0.018   2.830
10056SOL     OW32064  12.257   3.193   5.077
10056SOL    HW132065  12.267   3.277   5.121
10056SOL    HW232066  12.193   3.209   5.008
10057SOL     OW32067   9.537   3.529   0.210
10057SOL    HW132068   9.502   3.602   0.261
10057SOL    HW232069   9.541   3.456   0.273
10058SOL     OW32070   5.213  12.864   8.825
10058SOL    HW132071   5.255  12.928   8.882
10058SOL    HW232072   5.237  12.779   8.862
10059SOL     OW32073  14.730  13.533  11.960
10059SOL    HW132074  14.747  13.625  11.943
10059SOL    HW232075  14.763  13.487  11.883
10060SOL     OW32076   1.651   3.553   5.397
10060SOL    HW132077   1.687   3.466   5.413
10060SOL    HW232078   1.721   3.601   5.353
10061SOL     OW32079  12.224   5.895  10.158
10061SOL    HW132080  12.161   5.883  10.086
10061SOL    HW232081  12.242   5.806  10.189
10062SOL     OW32082  13.328  11.377   0.335
10062SOL    HW132083  13.363  11.301   0.289
10062SOL    HW232084  13.324  11.446   0.269
10063SOL     OW32085   2.722  14.829  12.054
10063SOL    HW132086   2.709   0.036  12.061
10063SOL    HW232087   2.745  14.814  11.962
10064SOL     OW32088   0.086   0.000   4.327
10064SOL    HW132089   0.151  14.833   4.373
10064SOL    HW232090   0.131   0.084   4.315
10065SOL     OW32091   1.337  14.826  12.002
10065SOL    HW132092   1.263  14.780  11.962
10065SOL    HW232093   1.390  14.855  11.929
10066SOL     OW32094   9.094   4.432  14.709
10066SOL    HW132095   9.140   4.394  14.784
10066SOL    HW232096   9.001   4.430  14.734
10067SOL     OW32097   9.134  11.535   5.268
10067SOL    HW132098   9.129  11.514   5.361
10067SOL    HW232099   9.193  11.470   5.231
10068SOL     OW32100   9.233   0.495   9.626
10068SOL    HW132101   9.250   0.406   9.658
10068SOL    HW232102   9.283   0.551   9.684
10069SOL     OW32103   1.764   9.098   9.417
10069SOL    HW132104   1.765   9.014   9.371
10069SOL    HW232105   1.720   9.158   9.356
10070SOL     OW32106   2.394   7.122  13.549
10070SOL    HW132107   2.398   7.217  13.557
10070SOL    HW232108   2.471   7.091  13.597
10071SOL     OW32109   0.270  10.311   7.570
10071SOL    HW132110   0.355  10.279   7.602
10071SOL    HW232111   0.275  10.406   7.579
10072SOL     OW32112  12.340  13.971  11.304
10072SOL    HW132113  12.344  13.993  11.397
10072SOL    HW232114  12.249  13.989  11.280
10073SOL     OW32115  10.432   2.691   7.424
10073SOL    HW132116  10.450   2.621   7.487
10073SOL    HW232117  10.458   2.654   7.339
10074SOL     OW32118   4.788   6.882   1.761
10074SOL    HW132119   4.841   6.897   1.840
10074SOL    HW232120   4.833   6.932   1.692
10075SOL     OW32121   7.542   4.063  13.753
10075SOL    HW132122   7.473   4.075  13.817
10075SOL    HW232123   7.515   4.116  13.678
10076SOL     OW32124   5.170  10.188   8.814
10076SOL    HW132125   5.124  10.104   8.817
10076SOL    HW232126   5.242  10.174   8.753
10077SOL     OW32127  10.788  12.231   2.895
10077SOL    HW132128  10.826  12.152   2.857
10077SOL    HW232129  10.713  12.252   2.839
10078SOL     OW32130   4.973   0.872   4.894
10078SOL    HW132131   4.999   0.963   4.883
10078SOL    HW232132   5.052   0.821   4.875
10079SOL     OW32133   8.712   6.563   6.098
10079SOL    HW132134   8.661   6.534   6.174
10079SOL    HW232135   8.650   6.562   6.026
10080SOL     OW32136   9.691  13.413   7.136
10080SOL    HW132137   9.766  13.457   7.177
10080SOL    HW232138   9.624  13.412   7.205
10081SOL     OW32139   2.342  10.168  13.906
10081SOL    HW132140   2.362  10.083  13.945
10081SOL    HW232141   2.276  10.149  13.840
10082SOL     OW32142   8.167  10.599   2.865
10082SOL    HW132143   8.201  10.626   2.950
10082SOL    HW232144   8.234  10.541   2.829
10083SOL     OW32145   3.812   9.211  11.154
10083SOL    HW132146   3.789   9.161  11.232
10083SOL    HW232147   3.736   9.205  11.097
10084SOL     OW32148  11.518  11.098   2.433
10084SOL    HW132149  11.546  11.048   2.357
10084SOL    HW232150  11.472  11.174   2.396
10085SOL     OW32151   2.927   1.649   8.191
10085SOL    HW132152   2.898   1.690   8.110
10085SOL    HW232153   3.004   1.597   8.166
10086SOL     OW32154  11.682   1.340   0.087
10086SOL    HW132155  11.733   1.372   0.162
10086SOL    HW232156  11.709   1.395   0.014
10087SOL     OW32157  14.095   4.949   7.731
10087SOL    HW132158  14.091   4.856   7.707
10087SOL    HW232159  14.052   4.994   7.658
10088SOL     OW32160   3.392   5.511  13.410
10088SOL    HW132161   3.358   5.496  13.498
10088SOL    HW232162   3.487   5.506  13.419
10089SOL     OW32163  12.365   5.885   3.660
10089SOL    HW132164  12.431   5.816   3.669
10089SOL    HW232165  12.300   5.847   3.601
10090SOL     OW32166   3.332  11.649   8.293
10090SOL    HW132167   3.327  11.738   8.328
10090SOL    HW232168   3.333  11.660   8.198
10091SOL     OW32169   2.572  10.284   7.237
10091SOL    HW132170   2.654  10.255   7.276
10091SOL    HW232171   2.592  10.370   7.199
10092SOL     OW32172   9.371  10.412  11.349
10092SOL    HW132173   9.382  10.469  11.425
10092SOL    HW232174   9.287  10.369  11.363
10093SOL     OW32175  10.541  14.695  11.674
10093SOL    HW132176  10.467  14.667  11.727
10093SOL    HW232177  10.612  14.636  11.699
10094SOL     OW32178   5.733   3.308  10.883
10094SOL    HW132179   5.786   3.381  10.851
10094SOL    HW232180   5.664   3.298  10.818
10095SOL     OW32181   5.101  11.867   5.119
10095SOL    HW132182   5.042  11.909   5.057
10095SOL    HW232183   5.182  11.919   5.114
10096SOL     OW32184   7.188   5.888   1.846
10096SOL    HW132185   7.214   5.980   1.838
10096SOL    HW232186   7.095   5.892   1.866
10097SOL     OW32187   9.171   0.740   0.229
10097SOL    HW132188   9.201   0.804   0.294
10097SOL    HW232189   9.089   0.777   0.195
10098SOL     OW32190  11.514  11.995   5.166
10098SOL    HW132191  11.568  11.983   5.244
10098SOL    HW232192  11.510  12.090   5.155
10099SOL     OW32193   5.162   0.727   9.252
10099SOL    HW132194   5.236   0.713   9.311
10099SOL    HW232195   5.086   0.699   9.302
10100SOL     OW32196   2.671   9.966   3.994
10100SOL    HW132197   2.658  10.058   4.018
10100SOL    HW232198   2.729   9.932   4.061
10101SOL     OW32199  10.994   8.264   1.071
10101SOL    HW132200  10.941   8.242   1.147
10101SOL    HW232201  10.952   8.343   1.035
10102SOL     OW32202   7.216   2.498  14.787
10102SOL    HW132203   7.176   2.575  14.747
10102SOL    HW232204   7.148   2.431  14.781
10103SOL     OW32205   0.787   1.276  12.647
10103SOL    HW132206   0.744   1.311  12.568
10103SOL    HW232207   0.844   1.207  12.615
10104SOL     OW32208   6.591   3.804   4.700
10104SOL    HW132209   6.585   3.813   4.795
10104SOL    HW232210   6.685   3.796   4.682
10105SOL     OW32211  13.906  14.662   8.350
10105SOL    HW132212  13.891  14.754   8.369
10105SOL    HW232213  13.832  14.617   8.391
10106SOL     OW32214   7.932   5.624  10.739
10106SOL    HW132215   7.908   5.609  10.830
10106SOL    HW232216   8.004   5.687  10.743
10107SOL     OW32217   7.027   0.036   9.248
10107SOL    HW132218   7.109   0.019   9.296
10107SOL    HW232219   7.048   0.014   9.158
10108SOL     OW32220   7.507   9.282   9.214
10108SOL    HW132221   7.502   9.365   9.166
10108SOL    HW232222   7.538   9.308   9.301
10109SOL     OW32223  10.883   3.425   7.440
10109SOL    HW132224  10.834   3.343   7.437
10109SOL    HW232225  10.881   3.450   7.533
10110SOL     OW32226   0.304   2.867   4.255
10110SOL    HW132227   0.213   2.862   4.282
10110SOL    HW232228   0.353   2.831   4.329
10111SOL     OW32229   2.085   2.502  12.905
10111SOL    HW132230   2.093   2.516  12.810
10111SOL    HW232231   2.158   2.552  12.943
10112SOL     OW32232   1.893   1.124   8.021
10112SOL    HW132233   1.881   1.207   8.068
10112SOL    HW232234   1.988   1.112   8.019
10113SOL     OW32235   9.174   3.918   3.282
10113SOL    HW132236   9.254   3.970   3.287
10113SOL    HW232237   9.168   3.874   3.367
10114SOL     OW32238   5.289   7.426   6.650
10114SOL    HW132239   5.315   7.456   6.737
10114SOL    HW232240   5.366   7.379   6.618
10115SOL     OW32241   8.251  10.261   0.607
10115SOL    HW132242   8.285  10.226   0.689
10115SOL    HW232243   8.320  10.320   0.576
10116SOL     OW32244   4.568   3.046   5.324
10116SOL    HW132245   4.587   3.122   5.269
10116SOL    HW232246   4.609   3.066   5.408
10117SOL     OW32247   6.799   2.098   3.905
10117SOL    HW132248   6.759   2.165   3.850
10117SOL    HW232249   6.824   2.028   3.844
10118SOL     OW32250  12.658   8.438   0.371
10118SOL    HW132251  12.711   8.359   0.385
10118SOL    HW232252  12.648   8.443   0.276
10119SOL     OW32253   7.250   4.106  11.319
10119SOL    HW132254   7.164   4.080  11.288
10119SOL    HW232255   7.238   4.122  11.413
10120SOL     OW32256   0.406   9.950   9.711
10120SOL    HW132257   0.490   9.963   9.755
10120SOL    HW232258   0.428   9.912   9.626
10121SOL     OW32259   6.582  14.008  10.181
10121SOL    HW132260   6.559  14.100  10.165
10121SOL    HW232261   6.559  13.993  10.272
10122SOL     OW32262   1.860  11.381   6.954
10122SOL    HW132263   1.869  11.420   7.041
10122SOL    HW232264   1.771  11.402   6.927
10123SOL     OW32265  14.069   2.495   5.689
10123SOL    HW132266  13.976   2.505   5.708
10123SOL    HW232267  14.083   2.400   5.688
10124SOL     OW32268   6.703   9.510   4.038
10124SOL    HW132269   6.767   9.580   4.023
10124SOL    HW232270   6.623   9.541   3.995
10125SOL     OW32271   4.601   4.311   9.728
10125SOL    HW132272   4.587   4.340   9.819
10125SOL    HW232273   4.620   4.218   9.735
10126SOL     OW32274  13.339   9.278   0.703
10126SOL    HW132275  13.284   9.350   0.734
10126SOL    HW232276  13.413   9.277   0.764
10127SOL     OW32277   4.967   7.387   9.852
10127SOL    HW132278   4.925   7.430   9.778
10127SOL    HW232279   4.901   7.326   9.885
10128SOL     OW32280  14.244   9.427   1.070
10128SOL    HW132281  14.178   9.419   1.138
10128SOL    HW232282  14.273   9.518   1.074
10129SOL     OW32283   1.747   4.939  10.093
10129SOL    HW132284   1.675   5.000  10.107
10129SOL    HW232285   1.707   4.852  10.100
10130SOL     OW32286   6.667   5.387   9.567
10130SOL    HW132287   6.726   5.314   9.550
10130SOL    HW232288   6.654   5.385   9.662
10131SOL     OW32289   6.985   8.547  11.331
10131SOL    HW132290   6.957   8.529  11.421
10131SOL    HW232291   7.010   8.462  11.296
10132SOL     OW32292  14.231  13.328   2.809
10132SOL    HW132293  14.290  13.387   2.762
10132SOL    HW232294  14.144  13.348   2.775
10133SOL     OW32295  13.623   9.872  13.753
10133SOL    HW132296  13.540   9.858  13.706
10133SOL    HW232297  13.629   9.798  13.813
10134SOL     OW32298  11.210  10.188  13.326
10134SOL    HW132299  11.122  10.220  13.308
10134SOL    HW232300  11.265  10.232  13.261
10135SOL     OW32301  10.800   4.945  14.850
10135SOL    HW132302  10.756   4.933  14.767
10135SOL    HW232303  10.803   5.039  14.863
10136SOL     OW32304   8.314   3.441   5.250
10136SOL    HW132305   8.391   3.438   5.307
10136SOL    HW232306   8.301   3.351   5.221
10137SOL     OW32307   0.223   5.628  14.795
10137SOL    HW132308   0.152   5.650  14.735
10137SOL    HW232309   0.227   5.532  14.794
10138SOL     OW32310   9.599   5.684   6.729
10138SOL    HW132311   9.651   5.619   6.776
10138SOL    HW232312   9.659   5.721   6.665
10139SOL     OW32313   1.397  14.114   9.948
10139SOL    HW132314   1.386  14.052   9.876
10139SOL    HW232315   1.478  14.086   9.991
10140SOL     OW32316   8.257   2.985  14.087
10140SOL    HW132317   8.230   3.073  14.114
10140SOL    HW232318   8.287   2.944  14.167
10141SOL     OW32319   7.022  10.410   7.140
10141SOL    HW132320   7.085  10.460   7.191
10141SOL    HW232321   6.961  10.374   7.204
10142SOL     OW32322  14.185  14.177   1.800
10142SOL    HW132323  14.234  14.218   1.871
10142SOL    HW232324  14.113  14.237   1.784
10143SOL     OW32325   2.485   3.284  12.112
10143SOL    HW132326   2.443   3.253  12.031
10143SOL    HW232327   2.479   3.210  12.172
10144SOL     OW32328   3.408   3.665   6.346
10144SOL    HW132329   3.503   3.669   6.341
10144SOL    HW232330   3.378   3.701   6.263
10145SOL     OW32331  12.785   1.077   1.657
10145SOL    HW132332  12.703   1.047   1.696
10145SOL    HW232333  12.758   1.121   1.577
10146SOL     OW32334   5.194   7.720   3.566
10146SOL    HW132335   5.283   7.691   3.585
10146SOL    HW232336   5.200   7.760   3.479
10147SOL     OW32337   4.955  10.517  10.513
10147SOL    HW132338   5.002  10.459  10.573
10147SOL    HW232339   4.900  10.571  10.569
10148SOL     OW32340   1.389   2.858   3.445
10148SOL    HW132341   1.474   2.825   3.419
10148SOL    HW232342   1.406   2.947   3.477
10149SOL     OW32343   3.549   0.936   0.423
10149SOL    HW132344   3.480   0.890   0.375
10149SOL    HW232345   3.613   0.959   0.355
10150SOL     OW32346   8.222   1.707   1.773
10150SOL    HW132347   8.158   1.637   1.763
10150SOL    HW232348   8.177   1.785   1.740
10151SOL     OW32349  12.857   7.477  12.500
10151SOL    HW132350  12.831   7.476  12.407
10151SOL    HW232351  12.936   7.423  12.503
10152SOL     OW32352   3.749   1.738   6.993
10152SOL    HW132353   3.707   1.674   7.051
10152SOL    HW232354   3.819   1.689   6.951
10153SOL     OW32355  14.829   8.939  10.021
10153SOL    HW132356  14.877   9.022  10.030
10153SOL    HW232357  14.874   8.878  10.078
10154SOL     OW32358   6.790  13.038  14.080
10154SOL    HW132359   6.845  12.968  14.045
10154SOL    HW232360   6.780  13.099  14.007
10155SOL     OW32361   3.511   9.576   6.999
10155SOL    HW132362   3.578   9.630   7.042
10155SOL    HW232363   3.458   9.639   6.949
10156SOL     OW32364   7.715   7.758   8.525
10156SOL    HW132365   7.625   7.750   8.558
10156SOL    HW232366   7.768   7.712   8.590
10157SOL     OW32367   7.212  12.960   6.674
10157SOL    HW132368   7.214  13.044   6.628
10157SOL    HW232369   7.252  12.898   6.613
10158SOL     OW32370  12.044   6.753   8.430
10158SOL    HW132371  12.096   6.683   8.470
10158SOL    HW232372  11.962   6.754   8.479
10159SOL     OW32373   8.148   7.210   1.915
10159SOL    HW132374   8.070   7.266   1.914
10159SOL    HW232375   8.165   7.195   2.008
10160SOL     OW32376   9.941   8.403   6.188
10160SOL    HW132377   9.943   8.323   6.241
10160SOL    HW232378   9.916   8.373   6.100
10161SOL     OW32379   9.841   0.410  14.126
10161SOL    HW132380   9.932   0.431  14.108
10161SOL    HW232381   9.838   0.391  14.220
10162SOL     OW32382   4.409  10.871   0.611
10162SOL    HW132383   4.490  10.834   0.577
10162SOL    HW232384   4.341  10.808   0.587
10163SOL     OW32385   2.242  13.458  11.878
10163SOL    HW132386   2.309  13.525  11.865
10163SOL    HW232387   2.289  13.375  11.868
10164SOL     OW32388   0.571   8.873   1.842
10164SOL    HW132389   0.602   8.839   1.758
10164SOL    HW232390   0.479   8.892   1.827
10165SOL     OW32391   4.489   9.147   2.695
10165SOL    HW132392   4.568   9.194   2.668
10165SOL    HW232393   4.520   9.060   2.720
10166SOL     OW32394   3.935   8.886   0.057
10166SOL    HW132395   3.937   8.791   0.067
10166SOL    HW232396   4.020   8.916   0.088
10167SOL     OW32397  13.781   9.087  11.163
10167SOL    HW132398  13.843   9.152  11.195
10167SOL    HW232399  13.805   9.006  11.208
10168SOL     OW32400   7.878   7.203   0.899
10168SOL    HW132401   7.870   7.130   0.959
10168SOL    HW232402   7.973   7.215   0.890
10169SOL     OW32403  14.299   6.975  13.937
10169SOL    HW132404  14.318   6.931  14.020
10169SOL    HW232405  14.345   7.058  13.943
10170SOL     OW32406   8.898  11.478  11.152
10170SOL    HW132407   8.919  11.388  11.125
10170SOL    HW232408   8.865  11.520  11.073
10171SOL     OW32409   3.990   5.981   2.862
10171SOL    HW132410   3.976   5.994   2.956
10171SOL    HW232411   4.010   6.069   2.829
10172SOL     OW32412   0.219  13.053   6.518
10172SOL    HW132413   0.285  13.109   6.476
10172SOL    HW232414   0.255  12.964   6.510
10173SOL     OW32415   2.872   8.091   2.086
10173SOL    HW132416   2.938   8.064   2.151
10173SOL    HW232417   2.855   8.182   2.107
10174SOL     OW32418   6.385   6.021   2.311
10174SOL    HW132419   6.418   5.983   2.230
10174SOL    HW232420   6.332   5.951   2.350
10175SOL     OW32421  10.117   5.607   8.446
10175SOL    HW132422  10.103   5.577   8.356
10175SOL    HW232423  10.209   5.588   8.464
10176SOL     OW32424   1.324   4.382   3.080
10176SOL    HW132425   1.279   4.302   3.052
10176SOL    HW232426   1.255   4.436   3.119
10177SOL     OW32427   1.422   6.457  13.641
10177SOL    HW132428   1.336   6.474  13.679
10177SOL    HW232429   1.483   6.473  13.712
10178SOL     OW32430  13.425   2.844   4.260
10178SOL    HW132431  13.341   2.883   4.236
10178SOL    HW232432  13.464   2.818   4.177
10179SOL     OW32433  11.476  14.745  10.780
10179SOL    HW132434  11.385  14.716  10.783
10179SOL    HW232435  11.476  14.828  10.828
10180SOL     OW32436  11.941   2.525   7.134
10180SOL    HW132437  11.930   2.460   7.202
10180SOL    HW232438  11.859   2.524   7.085
10181SOL     OW32439   5.874  14.402  11.702
10181SOL    HW132440   5.851  14.343  11.631
10181SOL    HW232441   5.942  14.459  11.666
10182SOL     OW32442  11.872   4.538  13.523
10182SOL    HW132443  11.928   4.480  13.472
10182SOL    HW232444  11.915   4.545  13.608
10183SOL     OW32445   6.863  11.393   0.683
10183SOL    HW132446   6.818  11.463   0.635
10183SOL    HW232447   6.796  11.356   0.741
10184SOL     OW32448   1.400   7.188   5.592
10184SOL    HW132449   1.428   7.148   5.510
10184SOL    HW232450   1.343   7.260   5.565
10185SOL     OW32451   0.045  11.032   4.548
10185SOL    HW132452   0.137  11.014   4.568
10185SOL    HW232453   0.045  11.118   4.507
10186SOL     OW32454   5.670   8.010  12.431
10186SOL    HW132455   5.629   8.010  12.345
10186SOL    HW232456   5.597   8.014  12.493
10187SOL     OW32457  10.595   5.053   6.990
10187SOL    HW132458  10.555   5.125   7.039
10187SOL    HW232459  10.689   5.072   6.993
10188SOL     OW32460   5.352   0.415   4.361
10188SOL    HW132461   5.272   0.417   4.308
10188SOL    HW232462   5.324   0.378   4.445
10189SOL     OW32463   8.044   7.225  13.002
10189SOL    HW132464   8.099   7.165  12.953
10189SOL    HW232465   7.954   7.201  12.977
10190SOL     OW32466   9.890   6.926  11.624
10190SOL    HW132467   9.858   6.837  11.635
10190SOL    HW232468   9.838   6.961  11.551
10191SOL     OW32469  10.774   0.941   0.458
10191SOL    HW132470  10.693   0.927   0.409
10191SOL    HW232471  10.844   0.931   0.393
10192SOL     OW32472   2.946   1.980  10.807
10192SOL    HW132473   2.877   2.008  10.867
10192SOL    HW232474   3.023   1.968  10.863
10193SOL     OW32475  13.743  13.540  11.920
10193SOL    HW132476  13.677  13.471  11.908
10193SOL    HW232477  13.698  13.621  11.896
10194SOL     OW32478   3.418  14.838  10.882
10194SOL    HW132479   3.336  14.792  10.904
10194SOL    HW232480   3.481  14.768  10.866
10195SOL     OW32481   6.492  14.801   7.989
10195SOL    HW132482   6.522   0.004   7.992
10195SOL    HW232483   6.548  14.759   7.923
10196SOL     OW32484   6.490   2.654   5.632
10196SOL    HW132485   6.528   2.573   5.666
10196SOL    HW232486   6.564   2.703   5.596
10197SOL     OW32487  11.785  12.174   1.352
10197SOL    HW132488  11.842  12.203   1.280
10197SOL    HW232489  11.831  12.202   1.431
10198SOL     OW32490   2.091  14.089   2.538
10198SOL    HW132491   2.031  14.153   2.575
10198SOL    HW232492   2.053  14.068   2.452
10199SOL     OW32493  14.029  12.163   6.417
10199SOL    HW132494  14.000  12.135   6.330
10199SOL    HW232495  14.089  12.236   6.400
10200SOL     OW32496  14.077   0.771   0.458
10200SOL    HW132497  14.140   0.798   0.391
10200SOL    HW232498  14.100   0.822   0.535
10201SOL     OW32499   1.932   2.710   2.280
10201SOL    HW132500   1.952   2.729   2.371
10201SOL    HW232501   1.880   2.630   2.282
10202SOL     OW32502  11.273  12.539   4.908
10202SOL    HW132503  11.350  12.490   4.879
10202SOL    HW232504  11.294  12.568   4.997
10203SOL     OW32505   0.745   8.962   3.296
10203SOL    HW132506   0.665   9.014   3.301
10203SOL    HW232507   0.772   8.969   3.204
10204SOL     OW32508   8.306   3.783   7.449
10204SOL    HW132509   8.388   3.744   7.419
10204SOL    HW232510   8.238   3.738   7.399
10205SOL     OW32511   4.943   2.358   3.549
10205SOL    HW132512   4.905   2.442   3.573
10205SOL    HW232513   4.897   2.294   3.603
10206SOL     OW32514   1.463   9.105   0.980
10206SOL    HW132515   1.518   9.033   0.950
10206SOL    HW232516   1.374   9.072   0.971
10207SOL     OW32517   1.232  13.579   2.701
10207SOL    HW132518   1.186  13.644   2.647
10207SOL    HW232519   1.264  13.629   2.776
10208SOL     OW32520   7.569   6.849   6.071
10208SOL    HW132521   7.607   6.782   6.127
10208SOL    HW232522   7.636   6.917   6.066
10209SOL     OW32523   2.414  14.613  10.931
10209SOL    HW132524   2.460  14.656  11.003
10209SOL    HW232525   2.412  14.521  10.956
10210SOL     OW32526  10.516  10.531   5.248
10210SOL    HW132527  10.490  10.573   5.166
10210SOL    HW232528  10.489  10.440   5.237
10211SOL     OW32529   0.766  13.683  13.272
10211SOL    HW132530   0.732  13.723  13.192
10211SOL    HW232531   0.734  13.739  13.342
10212SOL     OW32532   5.769   9.385  14.188
10212SOL    HW132533   5.793   9.328  14.115
10212SOL    HW232534   5.834   9.455  14.186
10213SOL     OW32535  10.785   5.033  12.864
10213SOL    HW132536  10.807   5.042  12.956
10213SOL    HW232537  10.704   5.084  12.853
10214SOL     OW32538   9.716   6.681   1.832
10214SOL    HW132539   9.735   6.660   1.923
10214SOL    HW232540   9.705   6.597   1.789
10215SOL     OW32541   0.355   2.313   5.425
10215SOL    HW132542   0.268   2.285   5.396
10215SOL    HW232543   0.414   2.274   5.361
10216SOL     OW32544  10.642  12.488   9.460
10216SOL    HW132545  10.608  12.505   9.372
10216SOL    HW232546  10.727  12.532   9.462
10217SOL     OW32547   0.664  11.211  14.091
10217SOL    HW132548   0.670  11.299  14.055
10217SOL    HW232549   0.745  11.168  14.063
10218SOL     OW32550   5.098   3.840   5.283
10218SOL    HW132551   5.052   3.846   5.199
10218SOL    HW232552   5.147   3.758   5.277
10219SOL     OW32553   1.148   4.045   1.367
10219SOL    HW132554   1.202   4.018   1.441
10219SOL    HW232555   1.169   3.982   1.298
10220SOL     OW32556  12.505  13.523  12.543
10220SOL    HW132557  12.537  13.478  12.465
10220SOL    HW232558  12.582  13.566  12.580
10221SOL     OW32559   7.732  14.694   7.951
10221SOL    HW132560   7.691  14.617   7.991
10221SOL    HW232561   7.661  14.739   7.905
10222SOL     OW32562   5.836   1.709  13.130
10222SOL    HW132563   5.885   1.674  13.205
10222SOL    HW232564   5.783   1.779  13.167
10223SOL     OW32565  13.420   6.286   1.348
10223SOL    HW132566  13.499   6.286   1.293
10223SOL    HW232567  13.411   6.377   1.376
10224SOL     OW32568  14.295  10.426   1.381
10224SOL    HW132569  14.333  10.453   1.298
10224SOL    HW232570  14.214  10.382   1.357
10225SOL     OW32571  12.941  11.034  13.842
10225SOL    HW132572  12.956  10.941  13.825
10225SOL    HW232573  12.989  11.079  13.772
10226SOL     OW32574  13.328   5.152   3.186
10226SOL    HW132575  13.320   5.087   3.116
10226SOL    HW232576  13.403   5.121   3.239
10227SOL     OW32577   1.398   4.686   0.085
10227SOL    HW132578   1.483   4.647   0.105
10227SOL    HW232579   1.358   4.702   0.170
10228SOL     OW32580   1.064  12.220   6.376
10228SOL    HW132581   1.028  12.160   6.311
10228SOL    HW232582   1.139  12.173   6.413
10229SOL     OW32583  11.477  11.005  13.359
10229SOL    HW132584  11.491  11.100  13.360
10229SOL    HW232585  11.390  10.993  13.396
10230SOL     OW32586   0.271  11.988   9.050
10230SOL    HW132587   0.343  12.027   9.099
10230SOL    HW232588   0.194  11.999   9.106
10231SOL     OW32589  14.310   9.000   9.298
10231SOL    HW132590  14.266   9.065   9.244
10231SOL    HW232591  14.351   9.051   9.368
10232SOL     OW32592  10.831   0.144   2.724
10232SOL    HW132593  10.907   0.091   2.748
10232SOL    HW232594  10.802   0.184   2.806
10233SOL     OW32595  13.398   9.805   4.215
10233SOL    HW132596  13.457   9.868   4.256
10233SOL    HW232597  13.411   9.724   4.264
10234SOL     OW32598   6.349   0.974   7.620
10234SOL    HW132599   6.431   0.966   7.667
10234SOL    HW232600   6.348   0.901   7.559
10235SOL     OW32601   6.381   0.670   2.664
10235SOL    HW132602   6.355   0.762   2.671
10235SOL    HW232603   6.299   0.621   2.672
10236SOL     OW32604   8.931   1.279  10.166
10236SOL    HW132605   8.988   1.210  10.133
10236SOL    HW232606   8.946   1.353  10.106
10237SOL     OW32607   0.430   1.291   9.899
10237SOL    HW132608   0.418   1.363   9.961
10237SOL    HW232609   0.390   1.215   9.942
10238SOL     OW32610  10.233   8.629  13.845
10238SOL    HW132611  10.229   8.715  13.804
10238SOL    HW232612  10.239   8.648  13.939
10239SOL     OW32613   7.555   1.713   4.332
10239SOL    HW132614   7.650   1.710   4.325
10239SOL    HW232615   7.525   1.637   4.282
10240SOL     OW32616   5.582   3.526  10.063
10240SOL    HW132617   5.520   3.595  10.040
10240SOL    HW232618   5.650   3.571  10.113
10241SOL     OW32619   0.351  11.663   9.909
10241SOL    HW132620   0.272  11.716   9.903
10241SOL    HW232621   0.403  11.703   9.979
10242SOL     OW32622  10.436   5.771  13.380
10242SOL    HW132623  10.364   5.810  13.330
10242SOL    HW232624  10.508   5.832  13.370
10243SOL     OW32625   0.516   2.098   2.339
10243SOL    HW132626   0.447   2.130   2.281
10243SOL    HW232627   0.499   2.004   2.348
10244SOL     OW32628   8.455   1.488  13.160
10244SOL    HW132629   8.480   1.405  13.202
10244SOL    HW232630   8.376   1.467  13.110
10245SOL     OW32631   5.660  13.982   8.602
10245SOL    HW132632   5.754  13.982   8.585
10245SOL    HW232633   5.623  13.932   8.529
10246SOL     OW32634  12.169   4.596   0.624
10246SOL    HW132635  12.133   4.516   0.662
10246SOL    HW232636  12.188   4.573   0.533
10247SOL     OW32637  11.880   2.270   7.371
10247SOL    HW132638  11.956   2.311   7.412
10247SOL    HW232639  11.806   2.324   7.400
10248SOL     OW32640   2.974   3.578   9.551
10248SOL    HW132641   2.977   3.616   9.463
10248SOL    HW232642   2.931   3.645   9.604
10249SOL     OW32643  12.303   1.992   9.922
10249SOL    HW132644  12.310   2.020  10.014
10249SOL    HW232645  12.265   2.067   9.877
10250SOL     OW32646   8.112   2.823  12.420
10250SOL    HW132647   8.182   2.887  12.407
10250SOL    HW232648   8.157   2.744  12.450
10251SOL     OW32649  11.429   6.421  10.018
10251SOL    HW132650  11.491   6.444   9.949
10251SOL    HW232651  11.368   6.495  10.021
10252SOL     OW32652   3.731  12.414   7.920
10252SOL    HW132653   3.768  12.330   7.947
10252SOL    HW232654   3.802  12.477   7.935
10253SOL     OW32655   0.681  12.939   0.793
10253SOL    HW132656   0.639  12.895   0.719
10253SOL    HW232657   0.724  13.015   0.754
10254SOL     OW32658   4.845   4.027   2.387
10254SOL    HW132659   4.921   4.086   2.379
10254SOL    HW232660   4.837   4.011   2.481
10255SOL     OW32661   2.603   4.033  13.399
10255SOL    HW132662   2.614   4.033  13.494
10255SOL    HW232663   2.584   3.942  13.377
10256SOL     OW32664  12.238   2.117   0.607
10256SOL    HW132665  12.245   2.029   0.643
10256SOL    HW232666  12.282   2.172   0.671
10257SOL     OW32667   2.296   4.466   9.775
10257SOL    HW132668   2.225   4.518   9.812
10257SOL    HW232669   2.371   4.482   9.832
10258SOL     OW32670   9.792   6.079   9.824
10258SOL    HW132671   9.817   6.097   9.734
10258SOL    HW232672   9.872   6.049   9.866
10259SOL     OW32673  12.585   2.365  10.791
10259SOL    HW132674  12.529   2.442  10.780
10259SOL    HW232675  12.551   2.322  10.870
10260SOL     OW32676   8.176   3.641  10.177
10260SOL    HW132677   8.157   3.733  10.158
10260SOL    HW232678   8.092   3.597  10.170
10261SOL     OW32679  10.167   3.162   0.181
10261SOL    HW132680  10.086   3.157   0.130
10261SOL    HW232681  10.141   3.204   0.263
10262SOL     OW32682   0.428   5.789   1.231
10262SOL    HW132683   0.516   5.825   1.224
10262SOL    HW232684   0.370   5.865   1.217
10263SOL     OW32685   5.081   3.306  12.990
10263SOL    HW132686   5.035   3.224  13.009
10263SOL    HW232687   5.147   3.282  12.925
10264SOL     OW32688   6.044   9.843   6.241
10264SOL    HW132689   6.044   9.851   6.337
10264SOL    HW232690   6.080   9.755   6.225
10265SOL     OW32691   2.834   6.910  14.320
10265SOL    HW132692   2.856   6.971  14.250
10265SOL    HW232693   2.755   6.865  14.289
10266SOL     OW32694   9.462   8.574   5.369
10266SOL    HW132695   9.446   8.629   5.293
10266SOL    HW232696   9.514   8.628   5.428
10267SOL     OW32697   0.849   3.405  14.282
10267SOL    HW132698   0.936   3.385  14.249
10267SOL    HW232699   0.820   3.325  14.326
10268SOL     OW32700  13.359   3.308  11.389
10268SOL    HW132701  13.291   3.363  11.428
10268SOL    HW232702  13.326   3.219  11.399
10269SOL     OW32703  14.311   2.915   3.869
10269SOL    HW132704  14.318   2.886   3.778
10269SOL    HW232705  14.318   3.011   3.863
10270SOL     OW32706   4.185   7.070   3.161
10270SOL    HW132707   4.156   7.061   3.251
10270SOL    HW232708   4.276   7.038   3.162
10271SOL     OW32709   1.810   2.583  11.164
10271SOL    HW132710   1.798   2.667  11.120
10271SOL    HW232711   1.846   2.606  11.250
10272SOL     OW32712   1.021   9.055   2.072
10272SOL    HW132713   0.964   9.050   1.996
10272SOL    HW232714   1.083   8.983   2.060
10273SOL     OW32715  11.180  12.831   1.536
10273SOL    HW132716  11.176  12.841   1.631
10273SOL    HW232717  11.244  12.897   1.508
10274SOL     OW32718  14.233  14.625  11.125
10274SOL    HW132719  14.211  14.664  11.041
10274SOL    HW232720  14.152  14.586  11.156
10275SOL     OW32721   9.647   0.662  12.422
10275SOL    HW132722   9.721   0.640  12.365
10275SOL    HW232723   9.570   0.645  12.368
10276SOL     OW32724   6.667   1.594   2.864
10276SOL    HW132725   6.601   1.628   2.804
10276SOL    HW232726   6.743   1.577   2.809
10277SOL     OW32727  14.673   1.950   6.439
10277SOL    HW132728  14.754   1.938   6.489
10277SOL    HW232729  14.616   1.878   6.468
10278SOL     OW32730   0.507  12.568   2.345
10278SOL    HW132731   0.586  12.561   2.398
10278SOL    HW232732   0.447  12.503   2.382
10279SOL     OW32733   4.504  10.104   0.637
10279SOL    HW132734   4.520  10.199   0.633
10279SOL    HW232735   4.410  10.096   0.654
10280SOL     OW32736   5.956   9.510   3.358
10280SOL    HW132737   5.993   9.597   3.344
10280SOL    HW232738   5.935   9.479   3.269
10281SOL     OW32739  10.990   2.367   3.918
10281SOL    HW132740  10.945   2.295   3.962
10281SOL    HW232741  11.059   2.394   3.979
10282SOL     OW32742   1.001   6.955   6.875
10282SOL    HW132743   1.086   7.000   6.873
10282SOL    HW232744   0.982   6.936   6.783
10283SOL     OW32745   8.283   1.229   3.189
10283SOL    HW132746   8.256   1.271   3.108
10283SOL    HW232747   8.378   1.233   3.189
10284SOL     OW32748  11.195  11.280   5.101
10284SOL    HW132749  11.274  11.273   5.047
10284SOL    HW232750  11.140  11.208   5.073
10285SOL     OW32751   5.447  11.887   4.331
10285SOL    HW132752   5.493  11.958   4.286
10285SOL    HW232753   5.514  11.843   4.383
10286SOL     OW32754   9.306  11.050  12.274
10286SOL    HW132755   9.330  11.142  12.286
10286SOL    HW232756   9.240  11.035  12.342
10287SOL     OW32757   9.979  12.767   6.789
10287SOL    HW132758  10.005  12.698   6.729
10287SOL    HW232759   9.990  12.848   6.739
10288SOL     OW32760   8.611   7.249   1.945
10288SOL    HW132761   8.664   7.253   1.866
10288SOL    HW232762   8.573   7.161   1.945
10289SOL     OW32763   0.681   4.168  10.751
10289SOL    HW132764   0.645   4.128  10.830
10289SOL    HW232765   0.717   4.095  10.701
10290SOL     OW32766   0.231   9.744  12.136
10290SOL    HW132767   0.298   9.758  12.202
10290SOL    HW232768   0.149   9.762  12.182
10291SOL     OW32769   2.828  14.134  12.891
10291SOL    HW132770   2.784  14.165  12.812
10291SOL    HW232771   2.776  14.060  12.921
10292SOL     OW32772   1.178   7.035   2.546
10292SOL    HW132773   1.092   7.071   2.524
10292SOL    HW232774   1.167   6.999   2.634
10293SOL     OW32775  13.894   4.729   3.857
10293SOL    HW132776  13.937   4.722   3.943
10293SOL    HW232777  13.962   4.704   3.794
10294SOL     OW32778  10.476  14.299   6.010
10294SOL    HW132779  10.453  14.218   6.055
10294SOL    HW232780  10.563  14.283   5.974
10295SOL     OW32781  13.593   7.221  14.797
10295SOL    HW132782  13.632   7.272  14.726
10295SOL    HW232783  13.500   7.247  14.796
10296SOL     OW32784  12.871   8.753   2.694
10296SOL    HW132785  12.848   8.661   2.701
10296SOL    HW232786  12.803   8.790   2.637
10297SOL     OW32787   3.170   0.721  12.376
10297SOL    HW132788   3.094   0.739  12.432
10297SOL    HW232789   3.245   0.732  12.434
10298SOL     OW32790  10.405   8.686   9.869
10298SOL    HW132791  10.429   8.624   9.800
10298SOL    HW232792  10.402   8.632   9.948
10299SOL     OW32793  11.518   3.201   4.993
10299SOL    HW132794  11.547   3.257   4.921
10299SOL    HW232795  11.599   3.178   5.039
10300SOL     OW32796   6.114   7.477   8.218
10300SOL    HW132797   6.091   7.487   8.311
10300SOL    HW232798   6.210   7.477   8.217
10301SOL     OW32799  12.155   9.125   9.601
10301SOL    HW132800  12.223   9.146   9.537
10301SOL    HW232801  12.088   9.079   9.550
10302SOL     OW32802   5.175   2.933   8.701
10302SOL    HW132803   5.152   2.876   8.775
10302SOL    HW232804   5.229   3.002   8.740
10303SOL     OW32805   0.295   1.120   9.098
10303SOL    HW132806   0.357   1.068   9.046
10303SOL    HW232807   0.340   1.136   9.180
10304SOL     OW32808   9.524   7.644  14.456
10304SOL    HW132809   9.499   7.561  14.497
10304SOL    HW232810   9.456   7.706  14.484
10305SOL     OW32811   6.302   3.366   8.481
10305SOL    HW132812   6.373   3.343   8.540
10305SOL    HW232813   6.315   3.459   8.464
10306SOL     OW32814   5.971  11.272   3.291
10306SOL    HW132815   5.905  11.286   3.223
10306SOL    HW232816   5.926  11.221   3.358
10307SOL     OW32817   6.209  11.404  12.531
10307SOL    HW132818   6.124  11.439  12.558
10307SOL    HW232819   6.191  11.356  12.450
10308SOL     OW32820   7.297   3.655   5.923
10308SOL    HW132821   7.243   3.621   5.852
10308SOL    HW232822   7.338   3.578   5.961
10309SOL     OW32823  14.043   6.889  13.611
10309SOL    HW132824  14.131   6.927  13.607
10309SOL    HW232825  14.009   6.899  13.523
10310SOL     OW32826   9.129  11.734  12.843
10310SOL    HW132827   9.096  11.823  12.829
10310SOL    HW232828   9.051  11.678  12.835
10311SOL     OW32829   6.314  13.809  10.234
10311SOL    HW132830   6.250  13.757  10.184
10311SOL    HW232831   6.367  13.743  10.279
10312SOL     OW32832   8.422   1.562  13.709
10312SOL    HW132833   8.376   1.482  13.684
10312SOL    HW232834   8.424   1.614  13.629
10313SOL     OW32835  12.150   8.657   3.881
10313SOL    HW132836  12.075   8.642   3.938
10313SOL    HW232837  12.163   8.752   3.881
10314SOL     OW32838   3.066   1.842   1.819
10314SOL    HW132839   3.155   1.867   1.797
10314SOL    HW232840   3.057   1.752   1.786
10315SOL     OW32841   7.180  12.259   8.736
10315SOL    HW132842   7.124  12.330   8.705
10315SOL    HW232843   7.170  12.191   8.669
10316SOL     OW32844   8.961  12.546   0.576
10316SOL    HW132845   8.922  12.526   0.491
10316SOL    HW232846   8.963  12.463   0.623
10317SOL     OW32847   0.159   9.740   2.658
10317SOL    HW132848   0.129   9.781   2.576
10317SOL    HW232849   0.103   9.778   2.725
10318SOL     OW32850   4.049   2.549   3.588
10318SOL    HW132851   4.093   2.467   3.610
10318SOL    HW232852   4.090   2.614   3.645
10319SOL     OW32853   1.164   2.887   6.947
10319SOL    HW132854   1.182   2.826   6.875
10319SOL    HW232855   1.213   2.851   7.021
10320SOL     OW32856   9.035  10.318  14.420
10320SOL    HW132857   9.111  10.372  14.439
10320SOL    HW232858   9.061  10.229  14.445
10321SOL     OW32859   0.808   3.883   9.859
10321SOL    HW132860   0.725   3.919   9.889
10321SOL    HW232861   0.854   3.857   9.939
10322SOL     OW32862   6.992   0.886   4.681
10322SOL    HW132863   6.998   0.968   4.632
10322SOL    HW232864   6.967   0.912   4.770
10323SOL     OW32865   5.471  11.373   1.260
10323SOL    HW132866   5.558  11.412   1.252
10323SOL    HW232867   5.477  11.291   1.211
10324SOL     OW32868   5.604   3.015   6.820
10324SOL    HW132869   5.599   2.941   6.759
10324SOL    HW232870   5.513   3.039   6.837
10325SOL     OW32871  13.135   8.544  10.458
10325SOL    HW132872  13.220   8.584  10.478
10325SOL    HW232873  13.152   8.488  10.383
10326SOL     OW32874   9.341  11.706   8.192
10326SOL    HW132875   9.351  11.696   8.097
10326SOL    HW232876   9.307  11.622   8.222
10327SOL     OW32877  10.401   5.233   8.278
10327SOL    HW132878  10.359   5.307   8.323
10327SOL    HW232879  10.442   5.273   8.201
10328SOL     OW32880   2.648   4.163   1.541
10328SOL    HW132881   2.651   4.127   1.453
10328SOL    HW232882   2.707   4.107   1.592
10329SOL     OW32883  13.976  14.131  11.310
10329SOL    HW132884  13.986  14.200  11.244
10329SOL    HW232885  13.893  14.152  11.354
10330SOL     OW32886  12.183  14.754  13.636
10330SOL    HW132887  12.264  14.804  13.625
10330SOL    HW232888  12.172  14.745  13.730
10331SOL     OW32889   5.881  14.734   6.706
10331SOL    HW132890   5.800  14.722   6.755
10331SOL    HW232891   5.854  14.754   6.617
10332SOL     OW32892   1.115  10.742   4.778
10332SOL    HW132893   1.108  10.669   4.840
10332SOL    HW232894   1.069  10.814   4.822
10333SOL     OW32895   9.055   3.185   9.134
10333SOL    HW132896   9.021   3.255   9.190
10333SOL    HW232897   9.121   3.141   9.188
10334SOL     OW32898  11.082   9.569   8.700
10334SOL    HW132899  11.027   9.492   8.713
10334SOL    HW232900  11.151   9.560   8.765
10335SOL     OW32901  11.458   4.434   3.811
10335SOL    HW132902  11.550   4.440   3.784
10335SOL    HW232903  11.460   4.439   3.906
10336SOL     OW32904   2.714  11.996  10.213
10336SOL    HW132905   2.767  12.031  10.142
10336SOL    HW232906   2.733  12.053  10.288
10337SOL     OW32907  12.868  11.853   2.702
10337SOL    HW132908  12.888  11.879   2.791
10337SOL    HW232909  12.914  11.770   2.690
10338SOL     OW32910   4.134  10.057  11.598
10338SOL    HW132911   4.196  10.086  11.531
10338SOL    HW232912   4.066  10.125  11.598
10339SOL     OW32913  10.723   7.912   3.380
10339SOL    HW132914  10.663   7.986   3.391
10339SOL    HW232915  10.768   7.930   3.298
10340SOL     OW32916   9.282   5.374  11.454
10340SOL    HW132917   9.214   5.377  11.522
10340SOL    HW232918   9.320   5.462  11.455
10341SOL     OW32919   8.465   0.721   8.915
10341SOL    HW132920   8.494   0.764   8.835
10341SOL    HW232921   8.429   0.637   8.886
10342SOL     OW32922  14.547  12.817   3.070
10342SOL    HW132923  14.513  12.747   3.014
10342SOL    HW232924  14.597  12.772   3.137
10343SOL     OW32925   0.180   7.639  10.284
10343SOL    HW132926   0.261   7.606  10.245
10343SOL    HW232927   0.173   7.729  10.250
10344SOL     OW32928   9.315   1.956   2.827
10344SOL    HW132929   9.395   1.994   2.863
10344SOL    HW232930   9.275   1.911   2.901
10345SOL     OW32931  11.963   1.434  11.497
10345SOL    HW132932  11.915   1.353  11.513
10345SOL    HW232933  11.909   1.482  11.435
10346SOL     OW32934   2.904   6.890   0.222
10346SOL    HW132935   2.987   6.849   0.196
10346SOL    HW232936   2.917   6.916   0.313
10347SOL     OW32937   9.920   9.748  13.907
10347SOL    HW132938   9.923   9.657  13.875
10347SOL    HW232939   9.849   9.748  13.970
10348SOL     OW32940   8.513   9.410   4.621
10348SOL    HW132941   8.511   9.319   4.650
10348SOL    HW232942   8.509   9.406   4.526
10349SOL     OW32943  11.091   8.681  12.002
10349SOL    HW132944  11.177   8.722  11.998
10349SOL    HW232945  11.086   8.627  11.923
10350SOL     OW32946   1.178   8.896   3.397
10350SOL    HW132947   1.177   8.876   3.490
10350SOL    HW232948   1.136   8.982   3.390
10351SOL     OW32949   2.641  14.539  12.106
10351SOL    HW132950   2.650  14.524  12.200
10351SOL    HW232951   2.637  14.635  12.097
10352SOL     OW32952   0.651   4.295  12.884
10352SOL    HW132953   0.616   4.289  12.973
10352SOL    HW232954   0.582   4.340  12.834
10353SOL     OW32955   5.425  14.082   3.836
10353SOL    HW132956   5.479  14.085   3.916
10353SOL    HW232957   5.429  13.991   3.808
10354SOL     OW32958  11.520  11.331   2.261
10354SOL    HW132959  11.481  11.384   2.331
10354SOL    HW232960  11.519  11.388   2.184
10355SOL     OW32961  13.991   6.930   1.593
10355SOL    HW132962  14.050   6.992   1.551
10355SOL    HW232963  14.045   6.889   1.662
10356SOL     OW32964   0.901   4.381   3.494
10356SOL    HW132965   0.943   4.453   3.447
10356SOL    HW232966   0.814   4.373   3.453
10357SOL     OW32967  11.675   2.270   7.992
10357SOL    HW132968  11.667   2.195   7.933
10357SOL    HW232969  11.586   2.305   7.997
10358SOL     OW32970   2.794  11.944   3.570
10358SOL    HW132971   2.725  11.926   3.506
10358SOL    HW232972   2.872  11.906   3.532
10359SOL     OW32973  12.008  10.496   3.544
10359SOL    HW132974  11.946  10.550   3.592
10359SOL    HW232975  11.967  10.481   3.459
10360SOL     OW32976   4.228   2.659  13.134
10360SOL    HW132977   4.286   2.732  13.110
10360SOL    HW232978   4.233   2.654  13.229
10361SOL     OW32979   6.791   6.316   4.530
10361SOL    HW132980   6.851   6.242   4.528
10361SOL    HW232981   6.780   6.340   4.438
10362SOL     OW32982   2.077  12.606   5.168
10362SOL    HW132983   2.019  12.563   5.230
10362SOL    HW232984   2.022  12.623   5.091
10363SOL     OW32985  10.739  11.590   2.780
10363SOL    HW132986  10.774  11.671   2.744
10363SOL    HW232987  10.650  11.611   2.805
10364SOL     OW32988   3.825   6.660   8.564
10364SOL    HW132989   3.916   6.637   8.543
10364SOL    HW232990   3.772   6.607   8.504
10365SOL     OW32991   7.784   5.124   8.469
10365SOL    HW132992   7.793   5.194   8.533
10365SOL    HW232993   7.874   5.094   8.453
10366SOL     OW32994   8.100   3.413   5.757
10366SOL    HW132995   8.163   3.354   5.797
10366SOL    HW232996   8.085   3.481   5.824
10367SOL     OW32997  10.357   3.724   1.012
10367SOL    HW132998  10.275   3.691   0.975
10367SOL    HW232999  10.370   3.672   1.092
10368SOL     OW33000   8.775   9.484  12.877
10368SOL    HW133001   8.766   9.460  12.785
10368SOL    HW233002   8.752   9.405  12.925
10369SOL     OW33003   9.259   8.552   7.222
10369SOL    HW133004   9.244   8.503   7.302
10369SOL    HW233005   9.182   8.609   7.215
10370SOL     OW33006   2.253   6.762  13.801
10370SOL    HW133007   2.230   6.800  13.716
10370SOL    HW233008   2.201   6.681  13.806
10371SOL     OW33009  11.008   1.536   3.072
10371SOL    HW133010  10.964   1.533   2.987
10371SOL    HW233011  10.990   1.623   3.106
10372SOL     OW33012   3.116  12.550   6.426
10372SOL    HW133013   3.063  12.470   6.430
10372SOL    HW233014   3.188  12.529   6.367
10373SOL     OW33015   2.940   2.750  13.395
10373SOL    HW133016   2.939   2.707  13.309
10373SOL    HW233017   2.981   2.835  13.378
10374SOL     OW33018   8.138  10.586  11.541
10374SOL    HW133019   8.059  10.548  11.503
10374SOL    HW233020   8.106  10.651  11.603
10375SOL     OW33021   3.059   6.237   6.049
10375SOL    HW133022   3.014   6.315   6.015
10375SOL    HW233023   3.104   6.200   5.973
10376SOL     OW33024  13.663   2.690  10.788
10376SOL    HW133025  13.733   2.634  10.756
10376SOL    HW233026  13.686   2.707  10.879
10377SOL     OW33027  10.086   2.427  10.633
10377SOL    HW133028  10.149   2.430  10.705
10377SOL    HW233029  10.087   2.336  10.604
10378SOL     OW33030   8.658   9.002  13.272
10378SOL    HW133031   8.605   8.928  13.240
10378SOL    HW233032   8.651   9.068  13.203
10379SOL     OW33033  11.961   0.454  11.439
10379SOL    HW133034  11.995   0.521  11.380
10379SOL    HW233035  11.866   0.463  11.435
10380SOL     OW33036   1.751   8.647   0.917
10380SOL    HW133037   1.780   8.642   1.008
10380SOL    HW233038   1.798   8.576   0.873
10381SOL     OW33039   4.275   1.110   5.134
10381SOL    HW133040   4.253   1.133   5.044
10381SOL    HW233041   4.276   1.014   5.134
10382SOL     OW33042   2.975   6.344   2.201
10382SOL    HW133043   2.973   6.294   2.282
10382SOL    HW233044   3.066   6.341   2.172
10383SOL     OW33045   5.092  11.285  12.651
10383SOL    HW133046   5.002  11.272  12.622
10383SOL    HW233047   5.145  11.244  12.582
10384SOL     OW33048  13.006   4.977  10.338
10384SOL    HW133049  13.094   4.972  10.376
10384SOL    HW233050  13.016   4.939  10.250
10385SOL     OW33051   6.833   4.120   2.482
10385SOL    HW133052   6.758   4.077   2.522
10385SOL    HW233053   6.903   4.110   2.547
10386SOL     OW33054  13.302   2.639   1.806
10386SOL    HW133055  13.341   2.701   1.745
10386SOL    HW233056  13.343   2.659   1.890
10387SOL     OW33057  11.419  14.555  14.319
10387SOL    HW133058  11.507  14.595  14.316
10387SOL    HW233059  11.436  14.461  14.326
10388SOL     OW33060  11.050   5.967  13.838
10388SOL    HW133061  10.977   5.987  13.779
10388SOL    HW233062  11.064   6.048  13.887
10389SOL     OW33063  12.394   5.427   0.713
10389SOL    HW133064  12.454   5.479   0.660
10389SOL    HW233065  12.348   5.372   0.650
10390SOL     OW33066   2.891  12.016  10.695
10390SOL    HW133067   2.862  12.075  10.764
10390SOL    HW233068   2.821  11.951  10.688
10391SOL     OW33069   9.369  14.043   7.668
10391SOL    HW133070   9.286  14.005   7.694
10391SOL    HW233071   9.435  13.978   7.693
10392SOL     OW33072  13.461   1.810  10.715
10392SOL    HW133073  13.464   1.906  10.715
10392SOL    HW233074  13.418   1.788  10.798
10393SOL     OW33075  12.640   7.448   7.711
10393SOL    HW133076  12.637   7.368   7.763
10393SOL    HW233077  12.723   7.444   7.664
10394SOL     OW33078   1.408   6.480   6.795
10394SOL    HW133079   1.343   6.550   6.791
10394SOL    HW233080   1.429   6.461   6.704
10395SOL     OW33081  11.691   8.528   1.287
10395SOL    HW133082  11.718   8.436   1.286
10395SOL    HW233083  11.687   8.551   1.380
10396SOL     OW33084   8.262   0.667   7.256
10396SOL    HW133085   8.219   0.583   7.271
10396SOL    HW233086   8.339   0.645   7.203
10397SOL     OW33087   3.983   6.234   0.348
10397SOL    HW133088   3.985   6.191   0.434
10397SOL    HW233089   3.918   6.304   0.358
10398SOL     OW33090   4.236   7.169  12.811
10398SOL    HW133091   4.219   7.082  12.848
10398SOL    HW233092   4.225   7.157  12.717
10399SOL     OW33093  10.337  13.314  11.150
10399SOL    HW133094  10.307  13.403  11.168
10399SOL    HW233095  10.299  13.261  11.220
10400SOL     OW33096   3.227   9.758   4.687
10400SOL    HW133097   3.279   9.718   4.756
10400SOL    HW233098   3.148   9.789   4.731
10401SOL     OW33099   1.620   4.220   3.720
10401SOL    HW133100   1.561   4.296   3.717
10401SOL    HW233101   1.695   4.246   3.666
10402SOL     OW33102  13.693  11.684  10.092
10402SOL    HW133103  13.684  11.720  10.003
10402SOL    HW233104  13.620  11.622  10.099
10403SOL     OW33105  11.992  13.564   3.416
10403SOL    HW133106  11.963  13.604   3.498
10403SOL    HW233107  12.068  13.511   3.440
10404SOL     OW33108   0.654  13.260   5.382
10404SOL    HW133109   0.589  13.189   5.390
10404SOL    HW233110   0.654  13.281   5.289
10405SOL     OW33111  12.691   2.613   9.862
10405SOL    HW133112  12.771   2.631   9.813
10405SOL    HW233113  12.694   2.674   9.936
10406SOL     OW33114  11.834   4.181   3.194
10406SOL    HW133115  11.878   4.114   3.143
10406SOL    HW233116  11.740   4.164   3.181
10407SOL     OW33117   3.523   1.325   4.072
10407SOL    HW133118   3.493   1.401   4.122
10407SOL    HW233119   3.609   1.304   4.109
10408SOL     OW33120   1.534   4.858  12.618
10408SOL    HW133121   1.520   4.877  12.711
10408SOL    HW233122   1.550   4.764  12.615
10409SOL     OW33123  11.408   5.140   0.397
10409SOL    HW133124  11.367   5.082   0.462
10409SOL    HW233125  11.491   5.097   0.376
10410SOL     OW33126   9.808   9.275   1.676
10410SOL    HW133127   9.743   9.321   1.622
10410SOL    HW233128   9.884   9.333   1.678
10411SOL     OW33129   6.788   5.340  12.925
10411SOL    HW133130   6.801   5.279  12.997
10411SOL    HW233131   6.703   5.380  12.942
10412SOL     OW33132   4.913  14.365  12.220
10412SOL    HW133133   4.851  14.381  12.148
10412SOL    HW233134   4.940  14.452  12.248
10413SOL     OW33135  14.522   6.611   4.258
10413SOL    HW133136  14.531   6.608   4.353
10413SOL    HW233137  14.491   6.523   4.234
10414SOL     OW33138  14.066   3.893   5.548
10414SOL    HW133139  14.046   3.899   5.641
10414SOL    HW233140  14.064   3.984   5.517
10415SOL     OW33141   2.223  10.023   9.115
10415SOL    HW133142   2.145   9.980   9.080
10415SOL    HW233143   2.269   9.953   9.163
10416SOL     OW33144  12.514   0.122  14.474
10416SOL    HW133145  12.607   0.134  14.455
10416SOL    HW233146  12.484   0.056  14.411
10417SOL     OW33147   8.758   0.005  14.878
10417SOL    HW133148   8.760   0.033  14.786
10417SOL    HW233149   8.814  14.815  14.881
10418SOL     OW33150  11.368  10.180   5.130
10418SOL    HW133151  11.333  10.268   5.146
10418SOL    HW233152  11.294  10.132   5.092
10419SOL     OW33153   1.421  12.951   2.721
10419SOL    HW133154   1.490  12.990   2.774
10419SOL    HW233155   1.342  12.963   2.774
10420SOL     OW33156   1.821   8.403  12.603
10420SOL    HW133157   1.815   8.313  12.637
10420SOL    HW233158   1.813   8.458  12.680
10421SOL     OW33159  11.177   4.013   9.928
10421SOL    HW133160  11.123   4.061   9.865
10421SOL    HW233161  11.196   4.077   9.997
10422SOL     OW33162   6.278  14.176   1.897
10422SOL    HW133163   6.298  14.191   1.989
10422SOL    HW233164   6.214  14.244   1.875
10423SOL     OW33165   6.661   9.839   1.757
10423SOL    HW133166   6.738   9.784   1.745
10423SOL    HW233167   6.619   9.840   1.671
10424SOL     OW33168   9.935  13.980  11.293
10424SOL    HW133169   9.946  13.981  11.388
10424SOL    HW233170  10.017  14.016  11.259
10425SOL     OW33171   7.911  12.801   9.472
10425SOL    HW133172   7.928  12.864   9.542
10425SOL    HW233173   7.975  12.822   9.404
10426SOL     OW33174   5.900  11.198   6.150
10426SOL    HW133175   5.904  11.163   6.239
10426SOL    HW233176   5.907  11.122   6.093
10427SOL     OW33177   3.677  14.307   1.098
10427SOL    HW133178   3.682  14.239   1.165
10427SOL    HW233179   3.606  14.279   1.040
10428SOL     OW33180   5.560  12.409  11.185
10428SOL    HW133181   5.595  12.432  11.271
10428SOL    HW233182   5.590  12.319  11.171
10429SOL     OW33183   5.666   1.623   1.898
10429SOL    HW133184   5.575   1.603   1.922
10429SOL    HW233185   5.665   1.717   1.878
10430SOL     OW33186  10.388   5.514  13.300
10430SOL    HW133187  10.295   5.491  13.300
10430SOL    HW233188  10.392   5.600  13.342
10431SOL     OW33189  11.833   8.043  12.326
10431SOL    HW133190  11.835   8.138  12.313
10431SOL    HW233191  11.831   8.032  12.421
10432SOL     OW33192   5.132  11.214   5.319
10432SOL    HW133193   5.158  11.305   5.308
10432SOL    HW233194   5.213  11.168   5.341
10433SOL     OW33195   6.851   2.741   8.963
10433SOL    HW133196   6.803   2.790   9.030
10433SOL    HW233197   6.851   2.651   8.994
10434SOL     OW33198   1.679  11.129   9.869
10434SOL    HW133199   1.693  11.103   9.960
10434SOL    HW233200   1.588  11.104   9.851
10435SOL     OW33201  11.841  10.704  13.787
10435SOL    HW133202  11.749  10.730  13.775
10435SOL    HW233203  11.887  10.786  13.805
10436SOL     OW33204   4.342   0.381   0.037
10436SOL    HW133205   4.381   0.294   0.026
10436SOL    HW233206   4.283   0.372   0.112
10437SOL     OW33207   9.866  11.763   1.921
10437SOL    HW133208   9.866  11.690   1.982
10437SOL    HW233209   9.777  11.798   1.925
10438SOL     OW33210   4.761   4.942   5.085
10438SOL    HW133211   4.787   5.019   5.135
10438SOL    HW233212   4.674   4.920   5.119
10439SOL     OW33213  11.273   5.585   0.652
10439SOL    HW133214  11.257   5.503   0.698
10439SOL    HW233215  11.190   5.632   0.657
10440SOL     OW33216  11.254  12.193  12.528
10440SOL    HW133217  11.231  12.284  12.512
10440SOL    HW233218  11.299  12.194  12.612
10441SOL     OW33219  12.624   9.131   6.362
10441SOL    HW133220  12.589   9.042   6.370
10441SOL    HW233221  12.552   9.181   6.322
10442SOL     OW33222  14.191   5.064   5.249
10442SOL    HW133223  14.151   5.136   5.200
10442SOL    HW233224  14.272   5.045   5.201
10443SOL     OW33225  14.432   8.472   4.873
10443SOL    HW133226  14.370   8.399   4.881
10443SOL    HW233227  14.503   8.437   4.818
10444SOL     OW33228  10.502   9.315   1.636
10444SOL    HW133229  10.415   9.304   1.675
10444SOL    HW233230  10.486   9.364   1.555
10445SOL     OW33231   5.113  10.202  10.337
10445SOL    HW133232   5.141  10.142  10.406
10445SOL    HW233233   5.101  10.146  10.260
10446SOL     OW33234  11.265   6.770   9.266
10446SOL    HW133235  11.325   6.762   9.340
10446SOL    HW233236  11.192   6.822   9.300
10447SOL     OW33237   6.538   3.462  10.803
10447SOL    HW133238   6.455   3.430  10.839
10447SOL    HW233239   6.512   3.518  10.729
10448SOL     OW33240   1.125  14.012   0.150
10448SOL    HW133241   1.150  14.103   0.136
10448SOL    HW233242   1.088  14.011   0.238
10449SOL     OW33243  12.145  10.485   9.966
10449SOL    HW133244  12.237  10.508   9.958
10449SOL    HW233245  12.098  10.568   9.959
10450SOL     OW33246   2.243   5.801  10.050
10450SOL    HW133247   2.170   5.858  10.023
10450SOL    HW233248   2.210   5.712  10.037
10451SOL     OW33249   0.196   4.319   3.724
10451SOL    HW133250   0.174   4.393   3.780
10451SOL    HW233251   0.280   4.343   3.685
10452SOL     OW33252  14.514   0.653   7.614
10452SOL    HW133253  14.508   0.576   7.671
10452SOL    HW233254  14.434   0.651   7.562
10453SOL     OW33255  12.883  12.983   0.633
10453SOL    HW133256  12.809  13.032   0.670
10453SOL    HW233257  12.862  12.975   0.540
10454SOL     OW33258   8.273   7.152  12.708
10454SOL    HW133259   8.321   7.077  12.673
10454SOL    HW233260   8.229   7.117  12.786
10455SOL     OW33261   1.463  11.177   1.343
10455SOL    HW133262   1.452  11.230   1.422
10455SOL    HW233263   1.387  11.119   1.342
10456SOL     OW33264  10.783   8.687   1.004
10456SOL    HW133265  10.871   8.665   1.035
10456SOL    HW233266  10.733   8.703   1.084
10457SOL     OW33267   9.681   5.146   0.713
10457SOL    HW133268   9.630   5.219   0.749
10457SOL    HW233269   9.690   5.167   0.620
10458SOL     OW33270   5.103   0.352  11.804
10458SOL    HW133271   5.058   0.420  11.754
10458SOL    HW233272   5.115   0.389  11.891
10459SOL     OW33273  12.755   1.724   5.909
10459SOL    HW133274  12.796   1.646   5.948
10459SOL    HW233275  12.666   1.696   5.888
10460SOL     OW33276   8.221   3.685  13.363
10460SOL    HW133277   8.236   3.608  13.419
10460SOL    HW233278   8.163   3.653  13.293
10461SOL     OW33279   7.800   3.878   6.458
10461SOL    HW133280   7.764   3.859   6.371
10461SOL    HW233281   7.799   3.973   6.463
10462SOL     OW33282  13.429  13.402   6.352
10462SOL    HW133283  13.512  13.356   6.336
10462SOL    HW233284  13.363  13.346   6.312
10463SOL     OW33285   0.543  13.549   7.408
10463SOL    HW133286   0.611  13.485   7.386
10463SOL    HW233287   0.552  13.562   7.503
10464SOL     OW33288   4.333   3.134   3.284
10464SOL    HW133289   4.424   3.130   3.254
10464SOL    HW233290   4.301   3.044   3.277
10465SOL     OW33291   0.244  13.825   1.797
10465SOL    HW133292   0.300  13.852   1.724
10465SOL    HW233293   0.254  13.730   1.801
10466SOL     OW33294   9.011  10.800   8.759
10466SOL    HW133295   8.972  10.881   8.790
10466SOL    HW233296   9.040  10.819   8.670
10467SOL     OW33297   5.268   0.878   3.302
10467SOL    HW133298   5.336   0.940   3.276
10467SOL    HW233299   5.244   0.905   3.391
10468SOL     OW33300  13.367  10.073   7.135
10468SOL    HW133301  13.293  10.133   7.141
10468SOL    HW233302  13.424  10.111   7.068
10469SOL     OW33303  13.173   5.972  13.698
10469SOL    HW133304  13.250   5.923  13.670
10469SOL    HW233305  13.159   6.037  13.630
10470SOL     OW33306   3.454   1.963   4.668
10470SOL    HW133307   3.366   1.926   4.661
10470SOL    HW233308   3.479   1.984   4.578
10471SOL     OW33309  11.831   2.581   9.065
10471SOL    HW133310  11.817   2.487   9.076
10471SOL    HW233311  11.846   2.592   8.971
10472SOL     OW33312   9.839   9.743   3.401
10472SOL    HW133313   9.848   9.664   3.349
10472SOL    HW233314   9.927   9.760   3.435
10473SOL     OW33315   2.311  12.857  10.675
10473SOL    HW133316   2.245  12.814  10.729
10473SOL    HW233317   2.347  12.926  10.731
10474SOL     OW33318   7.347   2.326   8.304
10474SOL    HW133319   7.336   2.353   8.395
10474SOL    HW233320   7.378   2.236   8.308
10475SOL     OW33321  12.861   1.908  10.338
10475SOL    HW133322  12.776   1.934  10.372
10475SOL    HW233323  12.842   1.859  10.259
10476SOL     OW33324   5.672  12.143   6.867
10476SOL    HW133325   5.717  12.126   6.784
10476SOL    HW233326   5.598  12.082   6.867
10477SOL     OW33327   7.806   8.053  10.200
10477SOL    HW133328   7.855   7.976  10.170
10477SOL    HW233329   7.716   8.035  10.175
10478SOL     OW33330   6.670  12.283   9.751
10478SOL    HW133331   6.689  12.225   9.677
10478SOL    HW233332   6.578  12.267   9.771
10479SOL     OW33333   4.797   1.184   9.628
10479SOL    HW133334   4.849   1.242   9.572
10479SOL    HW233335   4.802   1.224   9.715
10480SOL     OW33336   9.566   4.927   3.504
10480SOL    HW133337   9.542   5.020   3.501
10480SOL    HW233338   9.554   4.904   3.596
10481SOL     OW33339   6.152   1.768   4.902
10481SOL    HW133340   6.094   1.819   4.845
10481SOL    HW233341   6.094   1.729   4.967
10482SOL     OW33342   4.465  13.887  14.190
10482SOL    HW133343   4.384  13.936  14.195
10482SOL    HW233344   4.534  13.952  14.206
10483SOL     OW33345   2.095  12.490   6.195
10483SOL    HW133346   2.058  12.561   6.142
10483SOL    HW233347   2.060  12.410   6.156
10484SOL     OW33348  14.675   6.728   6.780
10484SOL    HW133349  14.632   6.707   6.697
10484SOL    HW233350  14.671   6.646   6.830
10485SOL     OW33351   2.495  12.156   9.961
10485SOL    HW133352   2.475  12.219  10.031
10485SOL    HW233353   2.451  12.076   9.989
10486SOL     OW33354   3.085  11.537   0.431
10486SOL    HW133355   3.054  11.617   0.388
10486SOL    HW233356   3.006  11.483   0.441
10487SOL     OW33357   3.664  13.873   6.275
10487SOL    HW133358   3.716  13.881   6.195
10487SOL    HW233359   3.605  13.947   6.272
10488SOL     OW33360  12.092   5.669   8.657
10488SOL    HW133361  12.152   5.743   8.665
10488SOL    HW233362  12.131   5.600   8.710
10489SOL     OW33363   5.375  14.010   7.544
10489SOL    HW133364   5.324  13.934   7.516
10489SOL    HW233365   5.425  13.979   7.619
10490SOL     OW33366  14.357  13.783   0.605
10490SOL    HW133367  14.324  13.787   0.515
10490SOL    HW233368  14.427  13.848   0.608
10491SOL     OW33369   3.007  12.624   3.721
10491SOL    HW133370   3.000  12.712   3.684
10491SOL    HW233371   3.012  12.638   3.815
10492SOL     OW33372   0.829   1.617   8.573
10492SOL    HW133373   0.862   1.706   8.583
10492SOL    HW233374   0.804   1.612   8.480
10493SOL     OW33375   1.687   4.372   7.789
10493SOL    HW133376   1.774   4.354   7.754
10493SOL    HW233377   1.627   4.353   7.717
10494SOL     OW33378   6.719  13.470   4.692
10494SOL    HW133379   6.701  13.539   4.756
10494SOL    HW233380   6.656  13.401   4.713
10495SOL     OW33381   9.075   5.622  12.759
10495SOL    HW133382   8.993   5.618  12.710
10495SOL    HW233383   9.048   5.641  12.849
10496SOL     OW33384   1.318  12.078   7.919
10496SOL    HW133385   1.300  11.998   7.870
10496SOL    HW233386   1.388  12.054   7.979
10497SOL     OW33387   6.051   1.167   4.907
10497SOL    HW133388   6.073   1.219   4.983
10497SOL    HW233389   6.010   1.228   4.846
10498SOL     OW33390  10.744  12.152   1.989
10498SOL    HW133391  10.799  12.115   1.920
10498SOL    HW233392  10.659  12.111   1.977
10499SOL     OW33393   7.982   3.711  10.904
10499SOL    HW133394   8.003   3.742  10.992
10499SOL    HW233395   8.050   3.648  10.884
10500SOL     OW33396  12.339  13.107  12.216
10500SOL    HW133397  12.432  13.087  12.204
10500SOL    HW233398  12.323  13.090  12.309
10501SOL     OW33399   1.589  14.367  13.352
10501SOL    HW133400   1.591  14.271  13.359
10501SOL    HW233401   1.537  14.383  13.273
10502SOL     OW33402  11.382   8.485  12.943
10502SOL    HW133403  11.439   8.461  13.016
10502SOL    HW233404  11.374   8.406  12.891
10503SOL     OW33405  11.078   6.549   9.198
10503SOL    HW133406  11.078   6.640   9.230
10503SOL    HW233407  11.031   6.553   9.115
10504SOL     OW33408   6.608   1.551   7.533
10504SOL    HW133409   6.579   1.612   7.601
10504SOL    HW233410   6.529   1.535   7.482
10505SOL     OW33411  14.084   7.770   3.292
10505SOL    HW133412  14.083   7.835   3.222
10505SOL    HW233413  14.071   7.687   3.247
10506SOL     OW33414   8.590   2.994  13.063
10506SOL    HW133415   8.664   2.934  13.079
10506SOL    HW233416   8.629   3.068  13.016
10507SOL     OW33417   9.633  11.671   9.505
10507SOL    HW133418   9.656  11.764   9.500
10507SOL    HW233419   9.548  11.666   9.461
10508SOL     OW33420  13.088  11.538   6.744
10508SOL    HW133421  13.005  11.524   6.789
10508SOL    HW233422  13.151  11.553   6.814
10509SOL     OW33423   2.405   2.623  14.643
10509SOL    HW133424   2.347   2.639  14.718
10509SOL    HW233425   2.447   2.707  14.627
10510SOL     OW33426   6.080   5.788  10.027
10510SOL    HW133427   6.160   5.764   9.981
10510SOL    HW233428   6.110   5.815  10.114
10511SOL     OW33429   8.096  11.940  14.689
10511SOL    HW133430   8.018  11.887  14.676
10511SOL    HW233431   8.166  11.893  14.644
10512SOL     OW33432   7.080  14.241   6.364
10512SOL    HW133433   7.168  14.265   6.334
10512SOL    HW233434   7.041  14.322   6.395
10513SOL     OW33435   4.697   2.248   1.014
10513SOL    HW133436   4.772   2.301   0.987
10513SOL    HW233437   4.724   2.210   1.098
10514SOL     OW33438   0.720   5.318   0.971
10514SOL    HW133439   0.737   5.349   1.060
10514SOL    HW233440   0.684   5.395   0.926
10515SOL     OW33441   3.162  11.829   1.441
10515SOL    HW133442   3.086  11.838   1.383
10515SOL    HW233443   3.165  11.736   1.462
10516SOL     OW33444   0.857   4.230   0.477
10516SOL    HW133445   0.831   4.173   0.548
10516SOL    HW233446   0.928   4.183   0.432
10517SOL     OW33447   2.271   6.827  12.436
10517SOL    HW133448   2.255   6.753  12.377
10517SOL    HW233449   2.256   6.791  12.524
10518SOL     OW33450  14.567  14.815  10.159
10518SOL    HW133451  14.494  14.805  10.220
10518SOL    HW233452  14.609  14.729  10.157
10519SOL     OW33453   5.043  13.211  10.023
10519SOL    HW133454   5.031  13.294  10.069
10519SOL    HW233455   5.105  13.232   9.953
10520SOL     OW33456   2.487   3.528   3.235
10520SOL    HW133457   2.548   3.599   3.218
10520SOL    HW233458   2.540   3.459   3.273
10521SOL     OW33459  10.729   9.566   3.448
10521SOL    HW133460  10.717   9.659   3.470
10521SOL    HW233461  10.792   9.535   3.513
10522SOL     OW33462  11.183  10.313   7.601
10522SOL    HW133463  11.233  10.266   7.535
10522SOL    HW233464  11.172  10.250   7.672
10523SOL     OW33465   5.419   0.008   2.235
10523SOL    HW133466   5.483   0.044   2.173
10523SOL    HW233467   5.335   0.015   2.190
10524SOL     OW33468   6.688   6.778   3.257
10524SOL    HW133469   6.639   6.700   3.284
10524SOL    HW233470   6.759   6.785   3.321
10525SOL     OW33471  11.661  10.895   5.000
10525SOL    HW133472  11.577  10.863   4.968
10525SOL    HW233473  11.655  10.886   5.095
10526SOL     OW33474   2.991   7.862   0.370
10526SOL    HW133475   2.955   7.774   0.360
10526SOL    HW233476   2.987   7.900   0.282
10527SOL     OW33477   9.581   8.211   0.377
10527SOL    HW133478   9.645   8.188   0.309
10527SOL    HW233479   9.604   8.301   0.401
10528SOL     OW33480   5.411   8.125  10.958
10528SOL    HW133481   5.456   8.100  10.878
10528SOL    HW233482   5.435   8.057  11.021
10529SOL     OW33483  10.236   3.042  10.106
10529SOL    HW133484  10.157   3.095  10.112
10529SOL    HW233485  10.226   2.977  10.176
10530SOL     OW33486  10.375  13.842  12.533
10530SOL    HW133487  10.323  13.922  12.537
10530SOL    HW233488  10.321  13.775  12.575
10531SOL     OW33489   1.058   8.964   2.656
10531SOL    HW133490   1.150   8.986   2.644
10531SOL    HW233491   1.041   8.896   2.590
10532SOL     OW33492   5.617   5.600   0.881
10532SOL    HW133493   5.576   5.679   0.916
10532SOL    HW233494   5.610   5.609   0.786
10533SOL     OW33495   6.258  13.545  11.379
10533SOL    HW133496   6.185  13.583  11.330
10533SOL    HW233497   6.257  13.593  11.462
10534SOL     OW33498   9.361  11.806  13.740
10534SOL    HW133499   9.268  11.821  13.722
10534SOL    HW233500   9.371  11.711  13.738
10535SOL     OW33501  14.393  13.235   9.439
10535SOL    HW133502  14.442  13.312   9.470
10535SOL    HW233503  14.330  13.271   9.377
10536SOL     OW33504  12.439  11.701   3.332
10536SOL    HW133505  12.404  11.692   3.243
10536SOL    HW233506  12.436  11.795   3.350
10537SOL     OW33507  12.011   8.828   9.267
10537SOL    HW133508  12.096   8.842   9.225
10537SOL    HW233509  11.951   8.885   9.218
10538SOL     OW33510  10.172   8.143   7.036
10538SOL    HW133511  10.093   8.154   7.087
10538SOL    HW233512  10.212   8.230   7.033
10539SOL     OW33513  10.641  14.270  11.530
10539SOL    HW133514  10.584  14.343  11.554
10539SOL    HW233515  10.599  14.231  11.453
10540SOL     OW33516   8.446   8.831   4.411
10540SOL    HW133517   8.418   8.868   4.327
10540SOL    HW233518   8.394   8.878   4.476
10541SOL     OW33519   1.581  12.938   2.496
10541SOL    HW133520   1.550  12.921   2.584
10541SOL    HW233521   1.520  13.002   2.460
10542SOL     OW33522   9.958   4.241   4.950
10542SOL    HW133523   9.922   4.289   5.025
10542SOL    HW233524   9.903   4.163   4.943
10543SOL     OW33525   7.468   7.359  11.109
10543SOL    HW133526   7.504   7.347  11.021
10543SOL    HW233527   7.408   7.286  11.121
10544SOL     OW33528  10.148   9.136   1.640
10544SOL    HW133529  10.163   9.221   1.682
10544SOL    HW233530  10.159   9.072   1.710
10545SOL     OW33531  12.457   0.161  14.733
10545SOL    HW133532  12.464   0.125  14.645
10545SOL    HW233533  12.495   0.249  14.727
10546SOL     OW33534   2.814   6.740  10.725
10546SOL    HW133535   2.879   6.684  10.765
10546SOL    HW233536   2.798   6.809  10.790
10547SOL     OW33537   4.014   6.954   3.381
10547SOL    HW133538   3.961   6.969   3.303
10547SOL    HW233539   3.952   6.923   3.447
10548SOL     OW33540   2.897  10.779  14.872
10548SOL    HW133541   2.847  10.737  14.803
10548SOL    HW233542   2.862  10.868  14.876
10549SOL     OW33543   0.927   8.973   0.295
10549SOL    HW133544   1.022   8.975   0.303
10549SOL    HW233545   0.909   8.902   0.234
10550SOL     OW33546   7.970   0.353  11.621
10550SOL    HW133547   8.026   0.384  11.549
10550SOL    HW233548   8.032   0.317  11.685
10551SOL     OW33549  12.960   6.680   1.145
10551SOL    HW133550  12.941   6.745   1.212
10551SOL    HW233551  13.052   6.696   1.122
10552SOL     OW33552   3.479  12.342   9.659
10552SOL    HW133553   3.469  12.251   9.687
10552SOL    HW233554   3.520  12.336   9.573
10553SOL     OW33555  12.151   5.063   6.965
10553SOL    HW133556  12.133   5.122   6.892
10553SOL    HW233557  12.204   4.993   6.927
10554SOL     OW33558   6.388   5.998   7.411
10554SOL    HW133559   6.319   5.933   7.424
10554SOL    HW233560   6.347   6.082   7.432
10555SOL     OW33561   5.521   8.368   7.280
10555SOL    HW133562   5.449   8.389   7.221
10555SOL    HW233563   5.600   8.387   7.229
10556SOL     OW33564   1.628   9.451   3.223
10556SOL    HW133565   1.660   9.362   3.205
10556SOL    HW233566   1.708   9.504   3.229
10557SOL     OW33567   6.294  13.995   5.462
10557SOL    HW133568   6.274  13.907   5.493
10557SOL    HW233569   6.381  14.014   5.499
10558SOL     OW33570   9.284   3.302  11.571
10558SOL    HW133571   9.207   3.352  11.544
10558SOL    HW233572   9.284   3.308  11.667
10559SOL     OW33573   6.276   8.965  14.575
10559SOL    HW133574   6.344   8.898  14.565
10559SOL    HW233575   6.200   8.929  14.529
10560SOL     OW33576  13.197   5.000   7.057
10560SOL    HW133577  13.138   4.931   7.027
10560SOL    HW233578  13.186   5.000   7.152
10561SOL     OW33579  11.694   4.788   1.638
10561SOL    HW133580  11.752   4.797   1.562
10561SOL    HW233581  11.641   4.868   1.637
10562SOL     OW33582  10.150   7.325  12.480
10562SOL    HW133583  10.162   7.368  12.565
10562SOL    HW233584  10.081   7.261  12.496
10563SOL     OW33585   5.409  11.884  10.927
10563SOL    HW133586   5.471  11.814  10.944
10563SOL    HW233587   5.368  11.901  11.011
10564SOL     OW33588   7.479   4.655   3.310
10564SOL    HW133589   7.450   4.742   3.284
10564SOL    HW233590   7.574   4.657   3.299
10565SOL     OW33591  14.626   6.554   4.604
10565SOL    HW133592  14.536   6.543   4.573
10565SOL    HW233593  14.623   6.632   4.658
10566SOL     OW33594   5.254   6.270   0.810
10566SOL    HW133595   5.303   6.332   0.756
10566SOL    HW233596   5.162   6.294   0.796
10567SOL     OW33597   4.953   7.397   1.316
10567SOL    HW133598   4.904   7.472   1.349
10567SOL    HW233599   4.886   7.334   1.288
10568SOL     OW33600  13.967   8.102   8.474
10568SOL    HW133601  13.990   8.100   8.567
10568SOL    HW233602  14.010   8.024   8.437
10569SOL     OW33603  11.472   6.666   6.912
10569SOL    HW133604  11.503   6.742   6.863
10569SOL    HW233605  11.459   6.699   7.001
10570SOL     OW33606   0.249   8.544   1.281
10570SOL    HW133607   0.188   8.574   1.213
10570SOL    HW233608   0.317   8.612   1.283
10571SOL     OW33609   0.441   9.919  14.381
10571SOL    HW133610   0.461   9.897  14.472
10571SOL    HW233611   0.402  10.007  14.386
10572SOL     OW33612   4.653   1.492   4.502
10572SOL    HW133613   4.670   1.584   4.521
10572SOL    HW233614   4.659   1.448   4.586
10573SOL     OW33615  12.733   1.079   5.879
10573SOL    HW133616  12.744   1.021   5.954
10573SOL    HW233617  12.638   1.090   5.870
10574SOL     OW33618  10.699   7.289  13.771
10574SOL    HW133619  10.655   7.205  13.781
10574SOL    HW233620  10.771   7.271  13.710
10575SOL     OW33621   5.582   9.259   4.287
10575SOL    HW133622   5.578   9.178   4.339
10575SOL    HW233623   5.564   9.329   4.350
10576SOL     OW33624  14.204   3.630  14.339
10576SOL    HW133625  14.235   3.608  14.251
10576SOL    HW233626  14.268   3.589  14.398
10577SOL     OW33627   0.856   1.928   4.489
10577SOL    HW133628   0.763   1.940   4.475
10577SOL    HW233629   0.862   1.871   4.565
10578SOL     OW33630   5.921  13.308  14.353
10578SOL    HW133631   5.957  13.342  14.435
10578SOL    HW233632   5.852  13.371  14.331
10579SOL     OW33633  12.450  11.346   9.802
10579SOL    HW133634  12.539  11.337   9.835
10579SOL    HW233635  12.461  11.392   9.718
10580SOL     OW33636  11.960   5.654   2.940
10580SOL    HW133637  11.878   5.660   2.891
10580SOL    HW233638  11.939   5.602   3.017
10581SOL     OW33639   2.830   8.728  14.739
10581SOL    HW133640   2.890   8.774  14.679
10581SOL    HW233641   2.743   8.742  14.701
10582SOL     OW33642   8.985   4.284  14.200
10582SOL    HW133643   9.080   4.276  14.215
10582SOL    HW233644   8.970   4.379  14.195
10583SOL     OW33645  11.945  11.157   8.279
10583SOL    HW133646  11.950  11.204   8.362
10583SOL    HW233647  12.011  11.088   8.286
10584SOL     OW33648  12.791   2.242   7.263
10584SOL    HW133649  12.831   2.326   7.289
10584SOL    HW233650  12.851   2.176   7.297
10585SOL     OW33651   3.984  12.511   7.095
10585SOL    HW133652   3.959  12.419   7.079
10585SOL    HW233653   3.939  12.560   7.026
10586SOL     OW33654   2.955   3.483   8.257
10586SOL    HW133655   2.996   3.566   8.232
10586SOL    HW233656   2.919   3.448   8.176
10587SOL     OW33657   7.279   2.664  11.912
10587SOL    HW133658   7.360   2.706  11.941
10587SOL    HW233659   7.295   2.570  11.921
10588SOL     OW33660   3.175   4.529   5.470
10588SOL    HW133661   3.156   4.449   5.421
10588SOL    HW233662   3.232   4.580   5.412
10589SOL     OW33663  13.409   9.664  11.064
10589SOL    HW133664  13.411   9.596  11.131
10589SOL    HW233665  13.393   9.617  10.982
10590SOL     OW33666  11.090   3.481   2.917
10590SOL    HW133667  10.996   3.485   2.933
10590SOL    HW233668  11.098   3.425   2.840
10591SOL     OW33669   8.890  12.884   4.715
10591SOL    HW133670   8.957  12.878   4.646
10591SOL    HW233671   8.865  12.793   4.733
10592SOL     OW33672  14.143   1.100   2.934
10592SOL    HW133673  14.064   1.077   2.982
10592SOL    HW233674  14.211   1.106   3.001
10593SOL     OW33675   4.311   3.402   0.866
10593SOL    HW133676   4.398   3.416   0.904
10593SOL    HW233677   4.302   3.472   0.801
10594SOL     OW33678   4.714   5.584   3.450
10594SOL    HW133679   4.734   5.612   3.540
10594SOL    HW233680   4.632   5.630   3.430
10595SOL     OW33681  10.345   8.917   9.672
10595SOL    HW133682  10.397   8.872   9.739
10595SOL    HW233683  10.256   8.887   9.687
10596SOL     OW33684   4.166  12.874  12.588
10596SOL    HW133685   4.089  12.904  12.637
10596SOL    HW233686   4.133  12.860  12.499
10597SOL     OW33687   7.268  10.837   9.796
10597SOL    HW133688   7.248  10.853   9.704
10597SOL    HW233689   7.305  10.749   9.797
10598SOL     OW33690   2.412   2.279  13.551
10598SOL    HW133691   2.461   2.362  13.547
10598SOL    HW233692   2.343   2.296  13.614
10599SOL     OW33693   6.284   2.587   3.092
10599SOL    HW133694   6.368   2.559   3.130
10599SOL    HW233695   6.232   2.615   3.167
10600SOL     OW33696  11.755   4.303   6.821
10600SOL    HW133697  11.776   4.315   6.914
10600SOL    HW233698  11.667   4.266   6.821
10601SOL     OW33699   5.439   5.988   2.153
10601SOL    HW133700   5.400   5.995   2.240
10601SOL    HW233701   5.522   6.036   2.160
10602SOL     OW33702   6.115   2.633   8.639
10602SOL    HW133703   6.114   2.712   8.585
10602SOL    HW233704   6.115   2.665   8.729
10603SOL     OW33705   4.552   1.313   9.846
10603SOL    HW133706   4.642   1.284   9.859
10603SOL    HW233707   4.537   1.379   9.913
10604SOL     OW33708   3.486   5.909   4.268
10604SOL    HW133709   3.446   5.996   4.274
10604SOL    HW233710   3.567   5.916   4.319
10605SOL     OW33711   3.434  10.276   4.114
10605SOL    HW133712   3.444  10.185   4.141
10605SOL    HW233713   3.451  10.326   4.194
10606SOL     OW33714  12.801   5.102  12.376
10606SOL    HW133715  12.835   5.017  12.349
10606SOL    HW233716  12.818   5.160  12.302
10607SOL     OW33717   4.561   6.689   6.097
10607SOL    HW133718   4.519   6.603   6.105
10607SOL    HW233719   4.632   6.686   6.161
10608SOL     OW33720   3.859   0.918  12.289
10608SOL    HW133721   3.803   0.920  12.367
10608SOL    HW233722   3.872   0.825  12.271
10609SOL     OW33723   5.756   5.507  14.829
10609SOL    HW133724   5.714   5.590  14.809
10609SOL    HW233725   5.684   5.445  14.843
10610SOL     OW33726  10.536   9.145   0.748
10610SOL    HW133727  10.536   9.075   0.812
10610SOL    HW233728  10.589   9.112   0.676
10611SOL     OW33729   5.284  12.512   0.854
10611SOL    HW133730   5.243  12.512   0.768
10611SOL    HW233731   5.371  12.476   0.839
10612SOL     OW33732  10.496   5.783   8.413
10612SOL    HW133733  10.448   5.837   8.350
10612SOL    HW233734  10.585   5.821   8.413
10613SOL     OW33735   8.100   6.848  10.625
10613SOL    HW133736   8.177   6.792  10.632
10613SOL    HW233737   8.109   6.910  10.697
10614SOL     OW33738   3.576   8.571  13.717
10614SOL    HW133739   3.608   8.484  13.690
10614SOL    HW233740   3.584   8.624  13.638
10615SOL     OW33741   1.594   1.239  13.857
10615SOL    HW133742   1.689   1.225  13.860
10615SOL    HW233743   1.583   1.320  13.807
10616SOL     OW33744   9.560   7.046  11.888
10616SOL    HW133745   9.522   6.960  11.867
10616SOL    HW233746   9.550   7.097  11.808
10617SOL     OW33747   4.402  14.404   3.958
10617SOL    HW133748   4.421  14.313   3.984
10617SOL    HW233749   4.314  14.420   3.993
10618SOL     OW33750   9.061   0.892   5.979
10618SOL    HW133751   8.969   0.885   5.953
10618SOL    HW233752   9.065   0.970   6.034
10619SOL     OW33753  10.937  13.038   2.565
10619SOL    HW133754  10.866  13.044   2.501
10619SOL    HW233755  11.015  13.066   2.518
10620SOL     OW33756   4.011   8.844   8.196
10620SOL    HW133757   4.007   8.756   8.235
10620SOL    HW233758   3.928   8.852   8.148
10621SOL     OW33759   7.333   4.235   0.099
10621SOL    HW133760   7.290   4.320   0.101
10621SOL    HW233761   7.407   4.247   0.038
10622SOL     OW33762   7.067   4.016   1.355
10622SOL    HW133763   7.013   3.950   1.397
10622SOL    HW233764   7.005   4.071   1.307
10623SOL     OW33765  10.004  10.161   7.475
10623SOL    HW133766   9.918  10.120   7.487
10623SOL    HW233767   9.986  10.254   7.467
10624SOL     OW33768   5.565  10.956   2.272
10624SOL    HW133769   5.562  11.011   2.350
10624SOL    HW233770   5.486  10.978   2.223
10625SOL     OW33771   7.310   7.186  10.708
10625SOL    HW133772   7.270   7.268  10.678
10625SOL    HW233773   7.324   7.136  10.627
10626SOL     OW33774   7.691   7.522   3.016
10626SOL    HW133775   7.687   7.445   2.960
10626SOL    HW233776   7.783   7.549   3.015
10627SOL     OW33777  12.241  10.941   5.296
10627SOL    HW133778  12.229  10.881   5.222
10627SOL    HW233779  12.272  10.885   5.367
10628SOL     OW33780   5.463   8.093  14.374
10628SOL    HW133781   5.483   8.011  14.328
10628SOL    HW233782   5.369   8.089  14.391
10629SOL     OW33783  12.625   6.685   5.408
10629SOL    HW133784  12.573   6.619   5.362
10629SOL    HW233785  12.600   6.674   5.500
10630SOL     OW33786  11.945  14.549   1.159
10630SOL    HW133787  11.891  14.607   1.213
10630SOL    HW233788  11.925  14.461   1.190
10631SOL     OW33789   3.491  14.364   1.510
10631SOL    HW133790   3.583  14.370   1.535
10631SOL    HW233791   3.489  14.391   1.418
10632SOL     OW33792  10.391   0.208   7.338
10632SOL    HW133793  10.342   0.284   7.307
10632SOL    HW233794  10.483   0.235   7.331
10633SOL     OW33795   9.769   6.682   5.637
10633SOL    HW133796   9.709   6.722   5.700
10633SOL    HW233797   9.713   6.652   5.566
10634SOL     OW33798   7.747   8.384  14.635
10634SOL    HW133799   7.785   8.315  14.581
10634SOL    HW233800   7.698   8.438  14.574
10635SOL     OW33801  14.311  10.579  13.583
10635SOL    HW133802  14.222  10.597  13.553
10635SOL    HW233803  14.367  10.614  13.514
10636SOL     OW33804   0.118   7.564   0.536
10636SOL    HW133805   0.197   7.614   0.557
10636SOL    HW233806   0.151   7.485   0.492
10637SOL     OW33807  12.502   7.957   8.288
10637SOL    HW133808  12.578   7.915   8.329
10637SOL    HW233809  12.537   7.996   8.208
10638SOL     OW33810  11.757  14.306   2.352
10638SOL    HW133811  11.713  14.229   2.319
10638SOL    HW233812  11.804  14.342   2.276
10639SOL     OW33813  12.444   9.893   2.990
10639SOL    HW133814  12.450   9.875   3.084
10639SOL    HW233815  12.393   9.820   2.955
10640SOL     OW33816   4.613   9.819  11.232
10640SOL    HW133817   4.586   9.803  11.322
10640SOL    HW233818   4.693   9.767  11.222
10641SOL     OW33819   9.273  14.139   8.267
10641SOL    HW133820   9.185  14.133   8.305
10641SOL    HW233821   9.312  14.054   8.286
10642SOL     OW33822  11.322  10.304  12.128
10642SOL    HW133823  11.388  10.284  12.194
10642SOL    HW233824  11.263  10.366  12.170
10643SOL     OW33825   6.208  13.217  14.673
10643SOL    HW133826   6.293  13.253  14.699
10643SOL    HW233827   6.231  13.145  14.614
10644SOL     OW33828   4.873  13.340  14.362
10644SOL    HW133829   4.815  13.361  14.435
10644SOL    HW233830   4.820  13.355  14.284
10645SOL     OW33831   4.724   8.024   7.538
10645SOL    HW133832   4.792   7.961   7.560
10645SOL    HW233833   4.647   7.996   7.587
10646SOL     OW33834   4.138   2.094  10.121
10646SOL    HW133835   4.144   2.158  10.050
10646SOL    HW233836   4.103   2.143  10.195
10647SOL     OW33837  12.099  13.341  10.019
10647SOL    HW133838  12.092  13.354   9.925
10647SOL    HW233839  12.150  13.416  10.051
10648SOL     OW33840   1.265   3.783  13.047
10648SOL    HW133841   1.353   3.760  13.018
10648SOL    HW233842   1.274   3.871  13.083
10649SOL     OW33843  11.769   4.423   3.687
10649SOL    HW133844  11.810   4.364   3.624
10649SOL    HW233845  11.728   4.366   3.751
10650SOL     OW33846   3.436   9.331   0.231
10650SOL    HW133847   3.374   9.352   0.302
10650SOL    HW233848   3.413   9.391   0.161
10651SOL     OW33849   4.581   7.980   2.195
10651SOL    HW133850   4.567   8.009   2.105
10651SOL    HW233851   4.585   7.884   2.189
10652SOL     OW33852  11.470   5.044  11.155
10652SOL    HW133853  11.409   4.974  11.130
10652SOL    HW233854  11.555   5.014  11.125
10653SOL     OW33855  10.597   6.869  12.837
10653SOL    HW133856  10.647   6.820  12.902
10653SOL    HW233857  10.531   6.807  12.806
10654SOL     OW33858   9.247  12.271   0.555
10654SOL    HW133859   9.265  12.184   0.520
10654SOL    HW233860   9.191  12.254   0.631
10655SOL     OW33861  12.214  14.579   4.324
10655SOL    HW133862  12.269  14.656   4.329
10655SOL    HW233863  12.142  14.605   4.266
10656SOL     OW33864   7.582   6.638   2.151
10656SOL    HW133865   7.663   6.683   2.125
10656SOL    HW233866   7.611   6.553   2.184
10657SOL     OW33867   6.719  14.598   1.865
10657SOL    HW133868   6.734  14.589   1.771
10657SOL    HW233869   6.703  14.692   1.878
10658SOL     OW33870   2.890  12.200  12.867
10658SOL    HW133871   2.839  12.278  12.890
10658SOL    HW233872   2.979  12.232  12.855
10659SOL     OW33873   7.318   8.725   2.734
10659SOL    HW133874   7.314   8.688   2.823
10659SOL    HW233875   7.380   8.797   2.742
10660SOL     OW33876  13.611   8.382  14.819
10660SOL    HW133877  13.612   8.389  14.723
10660SOL    HW233878  13.682   8.440  14.848
10661SOL     OW33879  13.269   4.912   8.601
10661SOL    HW133880  13.200   4.959   8.648
10661SOL    HW233881  13.261   4.943   8.511
10662SOL     OW33882   5.134   5.181  13.849
10662SOL    HW133883   5.090   5.149  13.770
10662SOL    HW233884   5.204   5.237  13.816
10663SOL     OW33885   7.139  13.411   4.558
10663SOL    HW133886   7.174  13.418   4.647
10663SOL    HW233887   7.188  13.477   4.509
10664SOL     OW33888   7.856   5.952  11.423
10664SOL    HW133889   7.869   6.007  11.346
10664SOL    HW233890   7.767   5.970  11.452
10665SOL     OW33891   1.467   3.042  12.648
10665SOL    HW133892   1.475   3.093  12.729
10665SOL    HW233893   1.387   3.075  12.607
10666SOL     OW33894  12.616   9.549   8.082
10666SOL    HW133895  12.526   9.541   8.115
10666SOL    HW233896  12.671   9.532   8.158
10667SOL     OW33897   0.767   0.787   1.298
10667SOL    HW133898   0.743   0.769   1.207
10667SOL    HW233899   0.825   0.715   1.322
10668SOL     OW33900  13.584   4.142   8.179
10668SOL    HW133901  13.504   4.192   8.164
10668SOL    HW233902  13.566   4.092   8.259
10669SOL     OW33903  13.387  10.925   8.721
10669SOL    HW133904  13.474  10.957   8.699
10669SOL    HW233905  13.367  10.860   8.654
10670SOL     OW33906  10.943   9.916   1.472
10670SOL    HW133907  10.952   9.970   1.394
10670SOL    HW233908  11.003   9.954   1.536
10671SOL     OW33909   9.679   1.344   4.751
10671SOL    HW133910   9.661   1.251   4.734
10671SOL    HW233911   9.603   1.390   4.715
10672SOL     OW33912   5.518   7.559   4.766
10672SOL    HW133913   5.447   7.588   4.823
10672SOL    HW233914   5.576   7.510   4.824
10673SOL     OW33915   5.830   9.750   1.197
10673SOL    HW133916   5.737   9.770   1.186
10673SOL    HW233917   5.838   9.660   1.164
10674SOL     OW33918  14.166   6.469   9.609
10674SOL    HW133919  14.171   6.559   9.642
10674SOL    HW233920  14.165   6.478   9.514
10675SOL     OW33921   7.402   2.968  10.127
10675SOL    HW133922   7.325   3.022  10.147
10675SOL    HW233923   7.396   2.952  10.033
10676SOL     OW33924   8.324  14.345   4.569
10676SOL    HW133925   8.238  14.305   4.551
10676SOL    HW233926   8.387  14.279   4.539
10677SOL     OW33927   9.507  10.221   3.364
10677SOL    HW133928   9.563  10.226   3.442
10677SOL    HW233929   9.433  10.166   3.392
10678SOL     OW33930  13.066   4.355  10.015
10678SOL    HW133931  13.004   4.348  10.087
10678SOL    HW233932  13.042   4.284   9.955
10679SOL     OW33933   0.350   4.187  10.983
10679SOL    HW133934   0.432   4.138  10.978
10679SOL    HW233935   0.319   4.172  11.072
10680SOL     OW33936   8.943  14.424  11.082
10680SOL    HW133937   8.934  14.352  11.020
10680SOL    HW233938   8.884  14.492  11.049
10681SOL     OW33939   2.204   4.225   7.791
10681SOL    HW133940   2.223   4.154   7.852
10681SOL    HW233941   2.196   4.303   7.846
10682SOL     OW33942   8.860   7.657  11.615
10682SOL    HW133943   8.792   7.707  11.568
10682SOL    HW233944   8.914   7.724  11.656
10683SOL     OW33945   5.300   2.346   6.922
10683SOL    HW133946   5.335   2.388   6.843
10683SOL    HW233947   5.351   2.383   6.994
10684SOL     OW33948  14.597   9.560   6.174
10684SOL    HW133949  14.613   9.546   6.267
10684SOL    HW233950  14.505   9.536   6.161
10685SOL     OW33951  12.144   6.009   9.659
10685SOL    HW133952  12.212   6.069   9.626
10685SOL    HW233953  12.147   5.934   9.600
10686SOL     OW33954  12.452  14.728   0.411
10686SOL    HW133955  12.435  14.822   0.414
10686SOL    HW233956  12.534  14.717   0.460
10687SOL     OW33957   3.367   4.487   5.988
10687SOL    HW133958   3.353   4.470   5.894
10687SOL    HW233959   3.280   4.507   6.021
10688SOL     OW33960   6.816   9.308   4.173
10688SOL    HW133961   6.869   9.319   4.094
10688SOL    HW233962   6.749   9.377   4.166
10689SOL     OW33963  14.186   8.519  12.765
10689SOL    HW133964  14.203   8.568  12.685
10689SOL    HW233965  14.261   8.537  12.822
10690SOL     OW33966   1.098  12.558   6.161
10690SOL    HW133967   1.055  12.529   6.241
10690SOL    HW233968   1.138  12.642   6.184
10691SOL     OW33969  13.457  10.402   2.755
10691SOL    HW133970  13.542  10.359   2.750
10691SOL    HW233971  13.475  10.488   2.793
10692SOL     OW33972  13.228   1.389  12.206
10692SOL    HW133973  13.309   1.339  12.190
10692SOL    HW233974  13.207   1.428  12.122
10693SOL     OW33975   3.777   4.777  10.187
10693SOL    HW133976   3.748   4.715  10.120
10693SOL    HW233977   3.733   4.748  10.267
10694SOL     OW33978   9.801   3.516   4.972
10694SOL    HW133979   9.749   3.435   4.975
10694SOL    HW233980   9.878   3.498   5.026
10695SOL     OW33981   2.764   7.871   9.518
10695SOL    HW133982   2.713   7.868   9.599
10695SOL    HW233983   2.800   7.783   9.509
10696SOL     OW33984   1.190   6.602   3.934
10696SOL    HW133985   1.105   6.559   3.944
10696SOL    HW233986   1.195   6.625   3.842
10697SOL     OW33987   5.518   1.906  12.967
10697SOL    HW133988   5.548   1.855  12.892
10697SOL    HW233989   5.439   1.862  12.996
10698SOL     OW33990  14.534  13.175   8.254
10698SOL    HW133991  14.554  13.194   8.346
10698SOL    HW233992  14.611  13.206   8.206
10699SOL     OW33993   9.456   1.133   2.917
10699SOL    HW133994   9.477   1.222   2.945
10699SOL    HW233995   9.424   1.143   2.828
10700SOL     OW33996   8.702   9.509   2.822
10700SOL    HW133997   8.731   9.599   2.841
10700SOL    HW233998   8.775   9.470   2.773
10701SOL     OW33999   7.018   1.404   2.156
10701SOL    HW134000   7.036   1.407   2.062
10701SOL    HW234001   7.090   1.352   2.192
10702SOL     OW34002  12.886   3.255   7.079
10702SOL    HW134003  12.961   3.304   7.113
10702SOL    HW234004  12.908   3.163   7.094
10703SOL     OW34005   8.827   6.311   5.247
10703SOL    HW134006   8.867   6.367   5.180
10703SOL    HW234007   8.771   6.370   5.298
10704SOL     OW34008   8.233   5.804  13.103
10704SOL    HW134009   8.259   5.781  13.014
10704SOL    HW234010   8.150   5.851  13.093
10705SOL     OW34011  14.872  13.293   2.966
10705SOL    HW134012   0.064  13.246   2.943
10705SOL    HW234013  14.802  13.229   2.951
10706SOL     OW34014   4.130   0.507   2.853
10706SOL    HW134015   4.095   0.515   2.764
10706SOL    HW234016   4.065   0.454   2.900
10707SOL     OW34017   1.749   6.698  12.079
10707SOL    HW134018   1.773   6.634  12.012
10707SOL    HW234019   1.833   6.723  12.119
10708SOL     OW34020   5.968  13.762   0.481
10708SOL    HW134021   6.027  13.727   0.547
10708SOL    HW234022   5.981  13.857   0.486
10709SOL     OW34023   3.255   1.954  13.114
10709SOL    HW134024   3.207   1.939  13.033
10709SOL    HW234025   3.203   2.018  13.161
10710SOL     OW34026  13.535   7.332   2.963
10710SOL    HW134027  13.542   7.240   2.991
10710SOL    HW234028  13.620   7.352   2.925
10711SOL     OW34029  12.063  13.872   3.731
10711SOL    HW134030  12.060  13.869   3.635
10711SOL    HW234031  12.125  13.943   3.751
10712SOL     OW34032  13.374  12.873   0.678
10712SOL    HW134033  13.373  12.902   0.770
10712SOL    HW234034  13.293  12.825   0.668
10713SOL     OW34035   5.309   3.540   8.711
10713SOL    HW134036   5.278   3.464   8.760
10713SOL    HW234037   5.373   3.504   8.649
10714SOL     OW34038   0.277   2.529  13.190
10714SOL    HW134039   0.291   2.551  13.282
10714SOL    HW234040   0.308   2.606  13.142
10715SOL     OW34041   8.935   3.427   6.791
10715SOL    HW134042   8.940   3.453   6.883
10715SOL    HW234043   8.842   3.435   6.769
10716SOL     OW34044   7.143  12.365  12.935
10716SOL    HW134045   7.182  12.358  12.848
10716SOL    HW234046   7.115  12.456  12.942
10717SOL     OW34047  12.353  12.133  11.769
10717SOL    HW134048  12.348  12.225  11.796
10717SOL    HW234049  12.419  12.133  11.700
10718SOL     OW34050   1.607   9.407  14.788
10718SOL    HW134051   1.535   9.458  14.750
10718SOL    HW234052   1.645   9.466  14.854
10719SOL     OW34053   8.784  14.070   5.369
10719SOL    HW134054   8.858  14.127   5.348
10719SOL    HW234055   8.708  14.129   5.369
10720SOL     OW34056   3.114   1.660   0.905
10720SOL    HW134057   3.132   1.690   0.994
10720SOL    HW234058   3.200   1.661   0.862
10721SOL     OW34059  11.973   3.734   4.328
10721SOL    HW134060  11.911   3.807   4.331
10721SOL    HW234061  11.918   3.656   4.327
10722SOL     OW34062  13.867   4.767   3.303
10722SOL    HW134063  13.780   4.764   3.264
10722SOL    HW234064  13.863   4.836   3.368
10723SOL     OW34065  13.359   5.507   1.226
10723SOL    HW134066  13.336   5.419   1.198
10723SOL    HW234067  13.360   5.558   1.145
10724SOL     OW34068  13.004   0.902  11.220
10724SOL    HW134069  12.983   0.885  11.312
10724SOL    HW234070  13.030   0.994  11.219
10725SOL     OW34071  13.532   7.034   7.987
10725SOL    HW134072  13.459   6.977   8.009
10725SOL    HW234073  13.519   7.055   7.894
10726SOL     OW34074  11.353   5.787  12.927
10726SOL    HW134075  11.285   5.812  12.864
10726SOL    HW234076  11.424   5.752  12.874
10727SOL     OW34077  10.526   7.072   3.895
10727SOL    HW134078  10.545   7.130   3.821
10727SOL    HW234079  10.438   7.039   3.879
10728SOL     OW34080   6.346  10.033   9.089
10728SOL    HW134081   6.432  10.051   9.125
10728SOL    HW234082   6.346   9.939   9.072
10729SOL     OW34083   2.534   6.514   6.736
10729SOL    HW134084   2.578   6.477   6.659
10729SOL    HW234085   2.600   6.511   6.805
10730SOL     OW34086  10.510   9.010   5.255
10730SOL    HW134087  10.468   9.093   5.231
10730SOL    HW234088  10.443   8.944   5.235
10731SOL     OW34089   2.633  14.754  13.142
10731SOL    HW134090   2.674  14.678  13.100
10731SOL    HW234091   2.683  14.766  13.223
10732SOL     OW34092   7.861  11.541  12.897
10732SOL    HW134093   7.883  11.626  12.859
10732SOL    HW234094   7.882  11.549  12.990
10733SOL     OW34095   3.864   4.781   9.215
10733SOL    HW134096   3.823   4.697   9.195
10733SOL    HW234097   3.940   4.785   9.156
10734SOL     OW34098   9.446  13.254   9.737
10734SOL    HW134099   9.379  13.259   9.669
10734SOL    HW234100   9.435  13.166   9.774
10735SOL     OW34101   7.737   9.807   1.571
10735SOL    HW134102   7.797   9.847   1.507
10735SOL    HW234103   7.656   9.857   1.563
10736SOL     OW34104  11.221   5.344  12.452
10736SOL    HW134105  11.285   5.414  12.441
10736SOL    HW234106  11.147   5.385  12.497
10737SOL     OW34107  13.981   9.737   6.212
10737SOL    HW134108  14.045   9.698   6.152
10737SOL    HW234109  14.012   9.714   6.299
10738SOL     OW34110   5.837  11.478  13.386
10738SOL    HW134111   5.850  11.536  13.461
10738SOL    HW234112   5.870  11.527  13.311
10739SOL     OW34113   9.597   0.168   7.164
10739SOL    HW134114   9.613   0.244   7.108
10739SOL    HW234115   9.506   0.176   7.191
10740SOL     OW34116  11.549   9.341   5.707
10740SOL    HW134117  11.534   9.410   5.642
10740SOL    HW234118  11.596   9.385   5.778
10741SOL     OW34119   2.951   6.133  12.869
10741SOL    HW134120   2.987   6.217  12.841
10741SOL    HW234121   3.015   6.068  12.842
10742SOL     OW34122   3.734   1.581   7.296
10742SOL    HW134123   3.685   1.509   7.256
10742SOL    HW234124   3.680   1.658   7.277
10743SOL     OW34125  11.451  13.428  10.956
10743SOL    HW134126  11.523  13.402  11.014
10743SOL    HW234127  11.372  13.399  11.002
10744SOL     OW34128   1.486   8.956  10.154
10744SOL    HW134129   1.545   8.999  10.092
10744SOL    HW234130   1.536   8.880  10.185
10745SOL     OW34131  12.523  13.599   0.374
10745SOL    HW134132  12.460  13.664   0.342
10745SOL    HW234133  12.502  13.590   0.467
10746SOL     OW34134   5.692  10.174   5.164
10746SOL    HW134135   5.764  10.157   5.225
10746SOL    HW234136   5.725  10.146   5.079
10747SOL     OW34137  10.536   7.045  10.742
10747SOL    HW134138  10.558   7.041  10.649
10747SOL    HW234139  10.484   7.125  10.750
10748SOL     OW34140  12.252  14.178   0.039
10748SOL    HW134141  12.191  14.106   0.020
10748SOL    HW234142  12.310  14.142   0.107
10749SOL     OW34143   7.634  10.435   0.465
10749SOL    HW134144   7.564  10.402   0.522
10749SOL    HW234145   7.589  10.484   0.397
10750SOL     OW34146   3.159  14.179   1.384
10750SOL    HW134147   3.171  14.177   1.289
10750SOL    HW234148   3.064  14.172   1.395
10751SOL     OW34149   2.048   4.630   3.625
10751SOL    HW134150   2.045   4.589   3.539
10751SOL    HW234151   2.082   4.562   3.683
10752SOL     OW34152  12.153   2.088   9.561
10752SOL    HW134153  12.194   2.002   9.553
10752SOL    HW234154  12.134   2.115   9.472
10753SOL     OW34155   9.072   0.666   7.554
10753SOL    HW134156   8.982   0.633   7.556
10753SOL    HW234157   9.079   0.711   7.470
10754SOL     OW34158   7.970   3.789  11.447
10754SOL    HW134159   7.903   3.855  11.465
10754SOL    HW234160   8.003   3.764  11.533
10755SOL     OW34161   5.341  12.021   4.562
10755SOL    HW134162   5.411  12.003   4.624
10755SOL    HW234163   5.374  11.986   4.479
10756SOL     OW34164  14.241  13.226   3.397
10756SOL    HW134165  14.243  13.144   3.347
10756SOL    HW234166  14.319  13.224   3.452
10757SOL     OW34167   3.998  14.792   4.263
10757SOL    HW134168   3.918  14.829   4.226
10757SOL    HW234169   3.966  14.731   4.330
10758SOL     OW34170   1.413   4.518   4.168
10758SOL    HW134171   1.420   4.603   4.126
10758SOL    HW234172   1.340   4.527   4.229
10759SOL     OW34173   2.714  11.868   1.557
10759SOL    HW134174   2.732  11.857   1.464
10759SOL    HW234175   2.751  11.790   1.598
10760SOL     OW34176   0.687   7.118   9.517
10760SOL    HW134177   0.747   7.144   9.588
10760SOL    HW234178   0.606   7.094   9.562
10761SOL     OW34179  12.677   9.217   3.159
10761SOL    HW134180  12.705   9.205   3.069
10761SOL    HW234181  12.728   9.291   3.191
10762SOL     OW34182   5.186   2.305   0.625
10762SOL    HW134183   5.135   2.250   0.684
10762SOL    HW234184   5.138   2.388   0.622
10763SOL     OW34185  13.835   5.777   0.038
10763SOL    HW134186  13.847   5.795   0.131
10763SOL    HW234187  13.863   5.686   0.027
10764SOL     OW34188   7.193   0.472   6.150
10764SOL    HW134189   7.190   0.500   6.242
10764SOL    HW234190   7.286   0.464   6.130
10765SOL     OW34191  10.059   5.481   2.652
10765SOL    HW134192  10.095   5.568   2.639
10765SOL    HW234193  10.021   5.482   2.739
10766SOL     OW34194   7.040  10.793   2.536
10766SOL    HW134195   7.111  10.854   2.559
10766SOL    HW234196   7.029  10.805   2.441
10767SOL     OW34197   5.313   1.499   0.037
10767SOL    HW134198   5.357   1.426   0.082
10767SOL    HW234199   5.220   1.486   0.056
10768SOL     OW34200   1.465   9.088  11.959
10768SOL    HW134201   1.416   9.167  11.938
10768SOL    HW234202   1.521   9.074  11.883
10769SOL     OW34203   6.989   0.690   2.098
10769SOL    HW134204   6.914   0.695   2.038
10769SOL    HW234205   6.972   0.756   2.164
10770SOL     OW34206  10.148   3.560   7.778
10770SOL    HW134207  10.140   3.473   7.739
10770SOL    HW234208  10.199   3.610   7.714
10771SOL     OW34209  11.982   3.114   8.067
10771SOL    HW134210  11.923   3.101   8.140
10771SOL    HW234211  12.046   3.177   8.099
10772SOL     OW34212   4.475  10.552   9.232
10772SOL    HW134213   4.550  10.591   9.279
10772SOL    HW234214   4.510  10.471   9.195
10773SOL     OW34215   0.030   9.343  13.060
10773SOL    HW134216   0.095   9.294  13.111
10773SOL    HW234217   0.020   9.293  12.979
10774SOL     OW34218   0.330   2.087  12.002
10774SOL    HW134219   0.311   2.022  11.936
10774SOL    HW234220   0.323   2.040  12.085
10775SOL     OW34221   0.996  11.236   5.274
10775SOL    HW134222   1.032  11.292   5.206
10775SOL    HW234223   1.054  11.248   5.349
10776SOL     OW34224   5.547  10.323   0.611
10776SOL    HW134225   5.538  10.390   0.679
10776SOL    HW234226   5.614  10.357   0.553
10777SOL     OW34227   4.503  14.727   7.569
10777SOL    HW134228   4.461  14.641   7.578
10777SOL    HW234229   4.497  14.747   7.475
10778SOL     OW34230   0.462   1.221  11.056
10778SOL    HW134231   0.472   1.141  11.108
10778SOL    HW234232   0.376   1.255  11.080
10779SOL     OW34233   3.745   8.819   7.975
10779SOL    HW134234   3.663   8.867   7.989
10779SOL    HW234235   3.812   8.887   7.971
10780SOL     OW34236   8.434  13.815   0.911
10780SOL    HW134237   8.471  13.762   0.981
10780SOL    HW234238   8.346  13.780   0.898
10781SOL     OW34239   4.578   4.922  13.360
10781SOL    HW134240   4.545   4.974  13.433
10781SOL    HW234241   4.668   4.899  13.386
10782SOL     OW34242   1.244   2.623   5.499
10782SOL    HW134243   1.193   2.613   5.419
10782SOL    HW234244   1.324   2.668   5.471
10783SOL     OW34245  10.815  13.414   3.977
10783SOL    HW134246  10.824  13.354   3.903
10783SOL    HW234247  10.739  13.468   3.956
10784SOL     OW34248  14.735   6.700  10.296
10784SOL    HW134249  14.745   6.638  10.369
10784SOL    HW234250  14.820   6.698  10.252
10785SOL     OW34251   7.760   1.235   3.947
10785SOL    HW134252   7.798   1.181   3.878
10785SOL    HW234253   7.757   1.177   4.023
10786SOL     OW34254   7.548   5.493   6.164
10786SOL    HW134255   7.453   5.504   6.172
10786SOL    HW234256   7.566   5.411   6.209
10787SOL     OW34257   3.181   3.293   5.160
10787SOL    HW134258   3.249   3.360   5.159
10787SOL    HW234259   3.212   3.226   5.098
10788SOL     OW34260  10.066   4.189   8.817
10788SOL    HW134261  10.101   4.107   8.784
10788SOL    HW234262   9.991   4.208   8.760
10789SOL     OW34263   1.325  12.533   9.808
10789SOL    HW134264   1.370  12.571   9.732
10789SOL    HW234265   1.360  12.445   9.815
10790SOL     OW34266  11.676   9.246   5.066
10790SOL    HW134267  11.688   9.174   5.004
10790SOL    HW234268  11.707   9.212   5.149
10791SOL     OW34269   6.805   5.592  13.296
10791SOL    HW134270   6.896   5.567  13.281
10791SOL    HW234271   6.807   5.646  13.375
10792SOL     OW34272   0.681   9.772   7.876
10792SOL    HW134273   0.729   9.789   7.956
10792SOL    HW234274   0.721   9.693   7.839
10793SOL     OW34275   8.896   9.266   8.506
10793SOL    HW134276   8.941   9.350   8.514
10793SOL    HW234277   8.859   9.267   8.418
10794SOL     OW34278   5.908   0.657   0.957
10794SOL    HW134279   5.933   0.746   0.935
10794SOL    HW234280   5.831   0.667   1.013
10795SOL     OW34281  10.832   2.007  10.700
10795SOL    HW134282  10.916   2.037  10.735
10795SOL    HW234283  10.789   2.087  10.670
10796SOL     OW34284   3.007   3.311   0.337
10796SOL    HW134285   3.080   3.253   0.315
10796SOL    HW234286   3.020   3.387   0.281
10797SOL     OW34287   5.911   0.815   1.245
10797SOL    HW134288   5.880   0.903   1.223
10797SOL    HW234289   5.842   0.757   1.213
10798SOL     OW34290  10.505   6.537  12.707
10798SOL    HW134291  10.525   6.445  12.718
10798SOL    HW234292  10.560   6.565  12.634
10799SOL     OW34293  14.702  12.560   3.178
10799SOL    HW134294  14.776  12.592   3.127
10799SOL    HW234295  14.730  12.571   3.269
10800SOL     OW34296   3.677  11.640  14.405
10800SOL    HW134297   3.728  11.684  14.336
10800SOL    HW234298   3.687  11.547  14.387
10801SOL     OW34299   7.327   8.600   4.861
10801SOL    HW134300   7.397   8.644   4.910
10801SOL    HW234301   7.354   8.608   4.769
10802SOL     OW34302  14.032  13.526   2.176
10802SOL    HW134303  14.021  13.586   2.102
10802SOL    HW234304  14.077  13.451   2.138
10803SOL     OW34305  13.798   0.900  11.932
10803SOL    HW134306  13.830   0.919  12.020
10803SOL    HW234307  13.709   0.868  11.946
10804SOL     OW34308  11.076   0.134  14.737
10804SOL    HW134309  11.072   0.184  14.655
10804SOL    HW234310  11.012   0.064  14.725
10805SOL     OW34311   0.636   8.168  12.825
10805SOL    HW134312   0.542   8.185  12.825
10805SOL    HW234313   0.647   8.097  12.761
10806SOL     OW34314   4.299   2.412  11.622
10806SOL    HW134315   4.274   2.453  11.705
10806SOL    HW234316   4.302   2.485  11.560
10807SOL     OW34317   8.139   1.429  10.722
10807SOL    HW134318   8.132   1.510  10.672
10807SOL    HW234319   8.230   1.403  10.714
10808SOL     OW34320  11.987   9.777   1.255
10808SOL    HW134321  11.909   9.738   1.216
10808SOL    HW234322  12.059   9.750   1.198
10809SOL     OW34323   5.125   8.076   3.441
10809SOL    HW134324   5.186   8.117   3.502
10809SOL    HW234325   5.180   8.034   3.375
10810SOL     OW34326  14.376  11.076   6.433
10810SOL    HW134327  14.395  11.170   6.435
10810SOL    HW234328  14.370  11.055   6.340
10811SOL     OW34329   2.494   9.207   7.545
10811SOL    HW134330   2.455   9.292   7.522
10811SOL    HW234331   2.583   9.229   7.575
10812SOL     OW34332  11.343  13.430   2.154
10812SOL    HW134333  11.399  13.465   2.224
10812SOL    HW234334  11.270  13.491   2.150
10813SOL     OW34335   1.045   4.878  13.221
10813SOL    HW134336   1.000   4.804  13.179
10813SOL    HW234337   1.135   4.873  13.189
10814SOL     OW34338   4.848   7.435  11.561
10814SOL    HW134339   4.817   7.473  11.643
10814SOL    HW234340   4.769   7.410  11.515
10815SOL     OW34341   7.100   4.652   5.528
10815SOL    HW134342   7.089   4.710   5.453
10815SOL    HW234343   7.139   4.572   5.492
10816SOL     OW34344  13.227  10.809   4.724
10816SOL    HW134345  13.157  10.747   4.745
10816SOL    HW234346  13.240  10.858   4.805
10817SOL     OW34347   0.724   3.878  14.004
10817SOL    HW134348   0.635   3.845  14.008
10817SOL    HW234349   0.763   3.851  14.087
10818SOL     OW34350   5.627   2.118  14.245
10818SOL    HW134351   5.712   2.140  14.282
10818SOL    HW234352   5.646   2.091  14.155
10819SOL     OW34353   2.249   4.084  14.438
10819SOL    HW134354   2.251   4.180  14.443
10819SOL    HW234355   2.157   4.061  14.454
10820SOL     OW34356  11.503   2.925   1.300
10820SOL    HW134357  11.560   3.002   1.296
10820SOL    HW234358  11.527   2.874   1.223
10821SOL     OW34359   7.315   3.151  12.640
10821SOL    HW134360   7.328   3.132  12.733
10821SOL    HW234361   7.235   3.204  12.637
10822SOL     OW34362   5.881   9.785  12.686
10822SOL    HW134363   5.895   9.819  12.774
10822SOL    HW234364   5.949   9.828  12.633
10823SOL     OW34365   3.455   7.279   7.440
10823SOL    HW134366   3.367   7.257   7.474
10823SOL    HW234367   3.493   7.194   7.418
10824SOL     OW34368   1.735   4.184  13.065
10824SOL    HW134369   1.763   4.116  13.004
10824SOL    HW234370   1.738   4.142  13.151
10825SOL     OW34371   1.832  10.317   2.213
10825SOL    HW134372   1.910  10.325   2.268
10825SOL    HW234373   1.866  10.286   2.129
10826SOL     OW34374   7.797   6.449   5.202
10826SOL    HW134375   7.871   6.500   5.234
10826SOL    HW234376   7.784   6.381   5.268
10827SOL     OW34377   1.250   9.680   6.276
10827SOL    HW134378   1.201   9.751   6.318
10827SOL    HW234379   1.247   9.608   6.339
10828SOL     OW34380   8.898   5.459   3.431
10828SOL    HW134381   8.953   5.394   3.388
10828SOL    HW234382   8.945   5.481   3.511
10829SOL     OW34383  13.023  11.529   9.479
10829SOL    HW134384  12.963  11.454   9.473
10829SOL    HW234385  12.967  11.602   9.505
10830SOL     OW34386  14.462   3.776  10.294
10830SOL    HW134387  14.481   3.691  10.254
10830SOL    HW234388  14.375   3.799  10.261
10831SOL     OW34389   0.730  12.496  12.822
10831SOL    HW134390   0.790  12.454  12.760
10831SOL    HW234391   0.674  12.426  12.853
10832SOL     OW34392   7.704   4.733  11.291
10832SOL    HW134393   7.643   4.676  11.244
10832SOL    HW234394   7.684   4.821  11.258
10833SOL     OW34395  14.846   9.506   8.222
10833SOL    HW134396  14.811   9.444   8.158
10833SOL    HW234397   0.052   9.488   8.225
10834SOL     OW34398  12.452  11.808   5.367
10834SOL    HW134399  12.442  11.887   5.314
10834SOL    HW234400  12.462  11.840   5.456
10835SOL     OW34401  13.012   6.455  14.258
10835SOL    HW134402  13.035   6.509  14.183
10835SOL    HW234403  13.039   6.367  14.234
10836SOL     OW34404   8.041  12.475   5.652
10836SOL    HW134405   8.006  12.483   5.563
10836SOL    HW234406   8.127  12.433   5.640
10837SOL     OW34407   1.994  11.933   1.335
10837SOL    HW134408   2.043  11.855   1.358
10837SOL    HW234409   1.973  11.974   1.419
10838SOL     OW34410  11.369   5.741   0.397
10838SOL    HW134411  11.308   5.671   0.374
10838SOL    HW234412  11.378   5.736   0.492
10839SOL     OW34413  13.573  11.035   4.971
10839SOL    HW134414  13.667  11.021   4.979
10839SOL    HW234415  13.565  11.120   4.927
10840SOL     OW34416   6.799  13.473  10.451
10840SOL    HW134417   6.818  13.561  10.420
10840SOL    HW234418   6.742  13.435  10.383
10841SOL     OW34419   7.908   4.983   2.937
10841SOL    HW134420   7.999   4.952   2.935
10841SOL    HW234421   7.886   4.984   3.031
10842SOL     OW34422   0.026   1.366   0.403
10842SOL    HW134423   0.068   1.439   0.358
10842SOL    HW234424  14.843   1.407   0.455
10843SOL     OW34425  10.294   3.308   1.859
10843SOL    HW134426  10.228   3.258   1.906
10843SOL    HW234427  10.377   3.265   1.879
10844SOL     OW34428   1.090   5.909   3.453
10844SOL    HW134429   1.138   5.907   3.370
10844SOL    HW234430   1.156   5.932   3.518
10845SOL     OW34431   3.699  11.177   5.872
10845SOL    HW134432   3.729  11.216   5.954
10845SOL    HW234433   3.614  11.138   5.894
10846SOL     OW34434   3.268   0.468   3.518
10846SOL    HW134435   3.330   0.459   3.446
10846SOL    HW234436   3.222   0.384   3.521
10847SOL     OW34437   5.112   3.592   7.396
10847SOL    HW134438   5.099   3.590   7.301
10847SOL    HW234439   5.099   3.684   7.419
10848SOL     OW34440   8.301   6.501  13.712
10848SOL    HW134441   8.378   6.452  13.684
10848SOL    HW234442   8.227   6.443  13.694
10849SOL     OW34443   7.915   9.948  10.947
10849SOL    HW134444   7.873   9.862  10.959
10849SOL    HW234445   7.926   9.956  10.852
10850SOL     OW34446   4.255   7.648   0.508
10850SOL    HW134447   4.316   7.705   0.555
10850SOL    HW234448   4.243   7.693   0.424
10851SOL     OW34449   9.559  14.278  14.082
10851SOL    HW134450   9.580  14.248  14.170
10851SOL    HW234451   9.644  14.292  14.040
10852SOL     OW34452   5.685   0.461   6.966
10852SOL    HW134453   5.736   0.543   6.966
10852SOL    HW234454   5.615   0.477   6.903
10853SOL     OW34455  14.735   9.062   9.608
10853SOL    HW134456  14.713   9.038   9.518
10853SOL    HW234457  14.762   8.980   9.649
10854SOL     OW34458   6.352   1.174   2.698
10854SOL    HW134459   6.413   1.205   2.631
10854SOL    HW234460   6.288   1.244   2.706
10855SOL     OW34461  13.443   5.125  11.337
10855SOL    HW134462  13.416   5.120  11.245
10855SOL    HW234463  13.365   5.153  11.384
10856SOL     OW34464   5.803   3.635   1.933
10856SOL    HW134465   5.764   3.721   1.946
10856SOL    HW234466   5.734   3.573   1.958
10857SOL     OW34467   9.718   9.284  10.519
10857SOL    HW134468   9.671   9.361  10.550
10857SOL    HW234469   9.749   9.241  10.599
10858SOL     OW34470   0.458  10.735  12.734
10858SOL    HW134471   0.405  10.728  12.655
10858SOL    HW234472   0.538  10.686  12.715
10859SOL     OW34473   1.630  12.926   1.972
10859SOL    HW134474   1.680  12.941   2.052
10859SOL    HW234475   1.542  12.905   2.004
10860SOL     OW34476   8.967  11.064  10.680
10860SOL    HW134477   8.983  11.021  10.596
10860SOL    HW234478   9.049  11.111  10.699
10861SOL     OW34479   8.904   7.148   9.017
10861SOL    HW134480   8.901   7.229   8.967
10861SOL    HW234481   8.872   7.172   9.104
10862SOL     OW34482   4.447   2.959   6.218
10862SOL    HW134483   4.445   3.034   6.159
10862SOL    HW234484   4.531   2.917   6.203
10863SOL     OW34485   1.390   6.749  14.074
10863SOL    HW134486   1.467   6.795  14.038
10863SOL    HW234487   1.422   6.709  14.155
10864SOL     OW34488   5.983   5.961   1.317
10864SOL    HW134489   6.005   5.922   1.233
10864SOL    HW234490   5.919   5.901   1.356
10865SOL     OW34491   1.223   7.802   0.677
10865SOL    HW134492   1.299   7.816   0.734
10865SOL    HW234493   1.191   7.890   0.658
10866SOL     OW34494   6.288   7.813   4.234
10866SOL    HW134495   6.298   7.801   4.140
10866SOL    HW234496   6.352   7.752   4.272
10867SOL     OW34497  11.273   7.321  10.495
10867SOL    HW134498  11.237   7.258  10.433
10867SOL    HW234499  11.210   7.322  10.567
10868SOL     OW34500   5.648  13.168   9.170
10868SOL    HW134501   5.685  13.192   9.255
10868SOL    HW234502   5.610  13.082   9.183
10869SOL     OW34503   7.594   5.734   9.383
10869SOL    HW134504   7.650   5.716   9.308
10869SOL    HW234505   7.566   5.825   9.370
10870SOL     OW34506   2.187   1.440   4.174
10870SOL    HW134507   2.280   1.445   4.197
10870SOL    HW234508   2.187   1.423   4.080
10871SOL     OW34509   9.989   7.408   4.744
10871SOL    HW134510  10.035   7.422   4.661
10871SOL    HW234511   9.979   7.495   4.782
10872SOL     OW34512   9.187  12.927  14.804
10872SOL    HW134513   9.209  12.866  14.874
10872SOL    HW234514   9.094  12.911  14.786
10873SOL     OW34515  13.860  14.694   8.999
10873SOL    HW134516  13.879  14.665   9.088
10873SOL    HW234517  13.871  14.789   9.003
10874SOL     OW34518  10.370  13.424  10.730
10874SOL    HW134519  10.328  13.467  10.656
10874SOL    HW234520  10.349  13.331  10.719
10875SOL     OW34521   2.435   7.180   6.385
10875SOL    HW134522   2.499   7.251   6.383
10875SOL    HW234523   2.411   7.173   6.478
10876SOL     OW34524   4.556   9.299  12.369
10876SOL    HW134525   4.511   9.360  12.427
10876SOL    HW234526   4.648   9.323  12.376
10877SOL     OW34527   7.923  12.033  14.086
10877SOL    HW134528   7.870  12.093  14.032
10877SOL    HW234529   7.955  12.088  14.157
10878SOL     OW34530   9.427   9.971   5.417
10878SOL    HW134531   9.365   9.979   5.489
10878SOL    HW234532   9.380   9.920   5.351
10879SOL     OW34533   8.105   9.733   9.867
10879SOL    HW134534   8.115   9.818   9.824
10879SOL    HW234535   8.117   9.669   9.796
10880SOL     OW34536   9.802  12.929   3.596
10880SOL    HW134537   9.786  13.003   3.538
10880SOL    HW234538   9.756  12.951   3.677
10881SOL     OW34539   9.212   7.707   9.620
10881SOL    HW134540   9.260   7.762   9.558
10881SOL    HW234541   9.169   7.641   9.565
10882SOL     OW34542   6.872  14.720  10.759
10882SOL    HW134543   6.954  14.763  10.784
10882SOL    HW234544   6.894  14.671  10.680
10883SOL     OW34545   0.606   7.263   6.031
10883SOL    HW134546   0.679   7.207   6.061
10883SOL    HW234547   0.649   7.332   5.980
10884SOL     OW34548  10.604  10.219  11.820
10884SOL    HW134549  10.637  10.278  11.888
10884SOL    HW234550  10.580  10.276  11.747
10885SOL     OW34551  10.879   9.031   3.896
10885SOL    HW134552  10.949   9.031   3.831
10885SOL    HW234553  10.848   8.940   3.898
10886SOL     OW34554  14.885   1.576   1.126
10886SOL    HW134555  14.804   1.625   1.111
10886SOL    HW234556   0.004   1.568   1.221
10887SOL     OW34557   6.853  12.314   3.093
10887SOL    HW134558   6.904  12.345   3.168
10887SOL    HW234559   6.918  12.296   3.026
10888SOL     OW34560   6.635  11.242   0.092
10888SOL    HW134561   6.587  11.245   0.009
10888SOL    HW234562   6.585  11.180   0.146
10889SOL     OW34563   0.371  11.979   8.286
10889SOL    HW134564   0.417  12.024   8.356
10889SOL    HW234565   0.283  11.964   8.320
10890SOL     OW34566   8.579   1.740   7.390
10890SOL    HW134567   8.569   1.805   7.459
10890SOL    HW234568   8.530   1.664   7.421
10891SOL     OW34569   7.523   7.941   1.075
10891SOL    HW134570   7.471   7.860   1.079
10891SOL    HW234571   7.511   7.980   1.162
10892SOL     OW34572   2.007   6.505  10.462
10892SOL    HW134573   2.101   6.524  10.459
10892SOL    HW234574   2.000   6.424  10.512
10893SOL     OW34575   3.884   5.212   3.867
10893SOL    HW134576   3.926   5.291   3.832
10893SOL    HW234577   3.799   5.242   3.900
10894SOL     OW34578  11.937   9.267  10.269
10894SOL    HW134579  11.852   9.287  10.309
10894SOL    HW234580  12.000   9.319  10.320
10895SOL     OW34581   8.390   7.992   0.659
10895SOL    HW134582   8.399   8.019   0.567
10895SOL    HW234583   8.300   7.961   0.666
10896SOL     OW34584   8.812   0.733   3.050
10896SOL    HW134585   8.778   0.644   3.059
10896SOL    HW234586   8.896   0.731   3.096
10897SOL     OW34587   9.936   3.383  14.826
10897SOL    HW134588   9.906   3.295  14.848
10897SOL    HW234589  10.009   3.369  14.766
10898SOL     OW34590  13.608  10.472  12.566
10898SOL    HW134591  13.594  10.499  12.657
10898SOL    HW234592  13.701  10.447  12.563
10899SOL     OW34593  12.779  14.697   1.408
10899SOL    HW134594  12.767  14.684   1.314
10899SOL    HW234595  12.803  14.789   1.416
10900SOL     OW34596   8.576   0.579  12.098
10900SOL    HW134597   8.558   0.638  12.025
10900SOL    HW234598   8.528   0.616  12.172
10901SOL     OW34599  12.192   7.639   6.740
10901SOL    HW134600  12.282   7.629   6.770
10901SOL    HW234601  12.161   7.720   6.780
10902SOL     OW34602   4.811  14.301  13.286
10902SOL    HW134603   4.835  14.227  13.342
10902SOL    HW234604   4.895  14.340  13.261
10903SOL     OW34605   0.104  10.557   0.236
10903SOL    HW134606   0.044  10.580   0.307
10903SOL    HW234607   0.061  10.591   0.157
10904SOL     OW34608   6.279   9.225  14.583
10904SOL    HW134609   6.288   9.263  14.495
10904SOL    HW234610   6.284   9.131  14.569
10905SOL     OW34611   7.121   5.147  10.785
10905SOL    HW134612   7.026   5.152  10.782
10905SOL    HW234613   7.151   5.237  10.775
10906SOL     OW34614   9.894  10.690   4.572
10906SOL    HW134615   9.901  10.777   4.534
10906SOL    HW234616   9.830  10.645   4.518
10907SOL     OW34617   0.269  11.403   6.403
10907SOL    HW134618   0.221  11.352   6.337
10907SOL    HW234619   0.315  11.471   6.352
10908SOL     OW34620  13.955  11.690   9.899
10908SOL    HW134621  13.918  11.646   9.823
10908SOL    HW234622  14.037  11.643   9.916
10909SOL     OW34623   4.896   4.037   3.988
10909SOL    HW134624   4.809   4.006   3.967
10909SOL    HW234625   4.923   3.985   4.063
10910SOL     OW34626   1.015  14.054  12.354
10910SOL    HW134627   1.051  14.069  12.441
10910SOL    HW234628   1.020  13.959  12.342
10911SOL     OW34629  12.850  11.462   1.561
10911SOL    HW134630  12.902  11.510   1.496
10911SOL    HW234631  12.883  11.493   1.646
10912SOL     OW34632   1.904  13.520   0.401
10912SOL    HW134633   1.849  13.444   0.421
10912SOL    HW234634   1.978  13.512   0.460
10913SOL     OW34635   1.616   8.945   9.093
10913SOL    HW134636   1.535   8.908   9.129
10913SOL    HW234637   1.686   8.903   9.144
10914SOL     OW34638  10.950  13.597  10.649
10914SOL    HW134639  11.029  13.545  10.662
10914SOL    HW234640  10.879  13.543  10.684
10915SOL     OW34641   6.689   9.409   3.164
10915SOL    HW134642   6.712   9.317   3.177
10915SOL    HW234643   6.598   9.407   3.134
10916SOL     OW34644   0.343   1.414   4.189
10916SOL    HW134645   0.399   1.339   4.208
10916SOL    HW234646   0.282   1.381   4.123
10917SOL     OW34647   4.895  11.893   6.049
10917SOL    HW134648   4.949  11.844   5.987
10917SOL    HW234649   4.947  11.971   6.069
10918SOL     OW34650   3.680   7.966   8.213
10918SOL    HW134651   3.629   8.020   8.153
10918SOL    HW234652   3.679   8.014   8.296
10919SOL     OW34653  12.300   5.223   1.346
10919SOL    HW134654  12.306   5.203   1.439
10919SOL    HW234655  12.230   5.288   1.340
10920SOL     OW34656   7.547   6.028   1.534
10920SOL    HW134657   7.538   5.960   1.601
10920SOL    HW234658   7.607   5.990   1.469
10921SOL     OW34659   4.796   1.410   0.739
10921SOL    HW134660   4.776   1.438   0.828
10921SOL    HW234661   4.836   1.324   0.750
10922SOL     OW34662   6.151   6.731   4.453
10922SOL    HW134663   6.113   6.747   4.366
10922SOL    HW234664   6.191   6.814   4.477
10923SOL     OW34665   6.522   1.691   5.425
10923SOL    HW134666   6.570   1.610   5.441
10923SOL    HW234667   6.585   1.760   5.441
10924SOL     OW34668   4.033   0.265   2.525
10924SOL    HW134669   3.984   0.195   2.480
10924SOL    HW234670   4.075   0.220   2.599
10925SOL     OW34671  12.096   6.949  14.381
10925SOL    HW134672  12.170   6.890  14.392
10925SOL    HW234673  12.060   6.927  14.294
10926SOL     OW34674   8.757   9.185   4.733
10926SOL    HW134675   8.809   9.107   4.750
10926SOL    HW234676   8.678   9.152   4.690
10927SOL     OW34677   0.677   4.767   2.509
10927SOL    HW134678   0.738   4.841   2.515
10927SOL    HW234679   0.647   4.754   2.599
10928SOL     OW34680   6.957   1.692   0.142
10928SOL    HW134681   6.974   1.762   0.079
10928SOL    HW234682   6.948   1.613   0.088
10929SOL     OW34683   4.831  12.465   3.608
10929SOL    HW134684   4.809  12.545   3.655
10929SOL    HW234685   4.771  12.399   3.644
10930SOL     OW34686   7.483   1.415  10.451
10930SOL    HW134687   7.430   1.346  10.491
10930SOL    HW234688   7.525   1.459  10.525
10931SOL     OW34689   6.333   5.088   7.100
10931SOL    HW134690   6.400   5.152   7.124
10931SOL    HW234691   6.251   5.139   7.100
10932SOL     OW34692   7.127  14.762   5.807
10932SOL    HW134693   7.210  14.805   5.830
10932SOL    HW234694   7.087  14.740   5.891
10933SOL     OW34695   3.687  12.002   6.688
10933SOL    HW134696   3.642  12.037   6.611
10933SOL    HW234697   3.744  12.073   6.717
10934SOL     OW34698   1.022   7.405   9.975
10934SOL    HW134699   1.068   7.328  10.011
10934SOL    HW234700   1.020   7.389   9.881
10935SOL     OW34701   5.654   3.418   3.529
10935SOL    HW134702   5.592   3.346   3.522
10935SOL    HW234703   5.667   3.430   3.623
10936SOL     OW34704   9.299   7.463   0.048
10936SOL    HW134705   9.291   7.532   0.114
10936SOL    HW234706   9.212   7.425   0.041
10937SOL     OW34707   6.190  10.461  11.196
10937SOL    HW134708   6.203  10.554  11.176
10937SOL    HW234709   6.118  10.460  11.258
10938SOL     OW34710   4.966  13.089   9.305
10938SOL    HW134711   5.052  13.081   9.263
10938SOL    HW234712   4.947  13.001   9.338
10939SOL     OW34713   7.949  11.997   9.277
10939SOL    HW134714   7.871  11.957   9.240
10939SOL    HW234715   8.022  11.949   9.239
10940SOL     OW34716  14.013   3.308  13.637
10940SOL    HW134717  13.940   3.253  13.665
10940SOL    HW234718  13.988   3.397  13.661
10941SOL     OW34719  14.308   6.935  13.520
10941SOL    HW134720  14.284   6.881  13.445
10941SOL    HW234721  14.378   6.992  13.487
10942SOL     OW34722   6.659   3.999  10.365
10942SOL    HW134723   6.638   3.984  10.273
10942SOL    HW234724   6.735   3.944  10.382
10943SOL     OW34725   9.064  11.794   5.328
10943SOL    HW134726   8.992  11.816   5.269
10943SOL    HW234727   9.088  11.704   5.304
10944SOL     OW34728  13.032   3.207   0.957
10944SOL    HW134729  13.047   3.146   0.885
10944SOL    HW234730  13.098   3.184   1.022
10945SOL     OW34731  12.133  14.517  14.137
10945SOL    HW134732  12.073  14.501  14.065
10945SOL    HW234733  12.151  14.431  14.174
10946SOL     OW34734   0.320   3.132   2.326
10946SOL    HW134735   0.299   3.070   2.396
10946SOL    HW234736   0.241   3.184   2.314
10947SOL     OW34737   3.559  12.105   3.781
10947SOL    HW134738   3.521  12.064   3.704
10947SOL    HW234739   3.563  12.198   3.760
10948SOL     OW34740   0.526   7.718   1.701
10948SOL    HW134741   0.571   7.660   1.639
10948SOL    HW234742   0.434   7.692   1.695
10949SOL     OW34743   7.842   9.680   0.898
10949SOL    HW134744   7.860   9.770   0.872
10949SOL    HW234745   7.750   9.681   0.926
10950SOL     OW34746   6.163   8.590   2.747
10950SOL    HW134747   6.207   8.529   2.805
10950SOL    HW234748   6.192   8.677   2.776
10951SOL     OW34749  14.863   7.034  12.158
10951SOL    HW134750  14.781   7.060  12.116
10951SOL    HW234751   0.011   6.965  12.101
10952SOL     OW34752  11.939   7.528  14.298
10952SOL    HW134753  11.857   7.491  14.263
10952SOL    HW234754  11.931   7.518  14.393
10953SOL     OW34755   6.768   4.664  13.214
10953SOL    HW134756   6.765   4.752  13.252
10953SOL    HW234757   6.700   4.616  13.260
10954SOL     OW34758   2.144   0.771   9.146
10954SOL    HW134759   2.076   0.838   9.143
10954SOL    HW234760   2.225   0.820   9.163
10955SOL     OW34761  12.707   5.996   0.233
10955SOL    HW134762  12.705   5.934   0.160
10955SOL    HW234763  12.627   5.979   0.282
10956SOL     OW34764   6.261   5.521   2.209
10956SOL    HW134765   6.178   5.567   2.216
10956SOL    HW234766   6.322   5.587   2.178
10957SOL     OW34767   8.011   7.111   4.193
10957SOL    HW134768   8.064   7.070   4.261
10957SOL    HW234769   8.062   7.186   4.164
10958SOL     OW34770   5.630   2.446   6.323
10958SOL    HW134771   5.640   2.474   6.414
10958SOL    HW234772   5.537   2.424   6.315
10959SOL     OW34773  11.936  10.749  10.470
10959SOL    HW134774  11.848  10.775  10.441
10959SOL    HW234775  11.930  10.654  10.480
10960SOL     OW34776   2.662   2.901  14.089
10960SOL    HW134777   2.581   2.851  14.082
10960SOL    HW234778   2.686   2.897  14.182
10961SOL     OW34779   3.336   7.214   7.024
10961SOL    HW134780   3.422   7.179   7.050
10961SOL    HW234781   3.356   7.276   6.954
10962SOL     OW34782   0.245  13.523   1.447
10962SOL    HW134783   0.197  13.601   1.472
10962SOL    HW234784   0.210  13.454   1.504
10963SOL     OW34785   4.211   0.722   7.482
10963SOL    HW134786   4.134   0.737   7.427
10963SOL    HW234787   4.202   0.631   7.512
10964SOL     OW34788   7.888   4.061  14.776
10964SOL    HW134789   7.846   4.147  14.774
10964SOL    HW234790   7.892   4.034  14.684
10965SOL     OW34791  14.742   6.964   7.744
10965SOL    HW134792  14.719   6.925   7.829
10965SOL    HW234793  14.688   6.918   7.681
10966SOL     OW34794   5.950  12.503   6.406
10966SOL    HW134795   6.011  12.430   6.392
10966SOL    HW234796   5.982  12.572   6.347
10967SOL     OW34797  12.083  10.619  11.837
10967SOL    HW134798  12.151  10.552  11.842
10967SOL    HW234799  12.069  10.633  11.744
10968SOL     OW34800   0.500   2.433  11.050
10968SOL    HW134801   0.512   2.514  11.099
10968SOL    HW234802   0.586   2.391  11.051
10969SOL     OW34803  14.107   3.986   3.583
10969SOL    HW134804  14.040   3.926   3.551
10969SOL    HW234805  14.073   4.019   3.666
10970SOL     OW34806   2.760   2.627   4.634
10970SOL    HW134807   2.780   2.701   4.576
10970SOL    HW234808   2.717   2.563   4.577
10971SOL     OW34809   2.038   8.271   6.451
10971SOL    HW134810   1.996   8.196   6.408
10971SOL    HW234811   1.981   8.291   6.525
10972SOL     OW34812   0.275   6.268   5.221
10972SOL    HW134813   0.203   6.329   5.204
10972SOL    HW234814   0.247   6.219   5.299
10973SOL     OW34815  12.545  10.726  13.638
10973SOL    HW134816  12.571  10.814  13.665
10973SOL    HW234817  12.450  10.724  13.651
10974SOL     OW34818  14.633   4.030   5.566
10974SOL    HW134819  14.682   4.112   5.564
10974SOL    HW234820  14.610   4.013   5.475
10975SOL     OW34821   6.244  11.278   4.002
10975SOL    HW134822   6.185  11.310   3.934
10975SOL    HW234823   6.303  11.351   4.019
10976SOL     OW34824  10.371  12.508   0.987
10976SOL    HW134825  10.317  12.458   0.927
10976SOL    HW234826  10.398  12.445   1.054
10977SOL     OW34827   7.809   7.597   3.323
10977SOL    HW134828   7.779   7.651   3.396
10977SOL    HW234829   7.733   7.542   3.301
10978SOL     OW34830  14.332   8.718   0.443
10978SOL    HW134831  14.385   8.642   0.421
10978SOL    HW234832  14.353   8.783   0.376
10979SOL     OW34833   0.340  10.611  13.194
10979SOL    HW134834   0.351  10.557  13.116
10979SOL    HW234835   0.314  10.549  13.263
10980SOL     OW34836   9.088  10.871  13.185
10980SOL    HW134837   9.125  10.862  13.097
10980SOL    HW234838   9.057  10.961  13.189
10981SOL     OW34839  13.337   4.069  12.592
10981SOL    HW134840  13.305   4.148  12.548
10981SOL    HW234841  13.258   4.018  12.610
10982SOL     OW34842   0.770   5.811  12.302
10982SOL    HW134843   0.678   5.836  12.301
10982SOL    HW234844   0.780   5.752  12.227
10983SOL     OW34845   4.421   4.440   9.986
10983SOL    HW134846   4.488   4.487  10.035
10983SOL    HW234847   4.383   4.505   9.928
10984SOL     OW34848   3.948   9.166   1.173
10984SOL    HW134849   3.891   9.166   1.250
10984SOL    HW234850   3.890   9.143   1.100
10985SOL     OW34851  11.121  13.268   3.179
10985SOL    HW134852  11.109  13.195   3.239
10985SOL    HW234853  11.206  13.252   3.138
10986SOL     OW34854   2.611  11.902   9.334
10986SOL    HW134855   2.554  11.850   9.277
10986SOL    HW234856   2.555  11.925   9.408
10987SOL     OW34857   9.966   3.243  13.489
10987SOL    HW134858   9.964   3.189  13.568
10987SOL    HW234859   9.895   3.305  13.500
10988SOL     OW34860   7.757   5.829  12.782
10988SOL    HW134861   7.678   5.811  12.732
10988SOL    HW234862   7.805   5.892  12.729
10989SOL     OW34863   8.056   2.032   6.503
10989SOL    HW134864   8.094   1.949   6.530
10989SOL    HW234865   8.068   2.034   6.408
10990SOL     OW34866   4.071   3.074  13.214
10990SOL    HW134867   4.088   3.068  13.308
10990SOL    HW234868   4.125   3.148  13.185
10991SOL     OW34869   3.869  10.417  13.500
10991SOL    HW134870   3.875  10.391  13.592
10991SOL    HW234871   3.853  10.511  13.504
10992SOL     OW34872   8.663  10.927   7.787
10992SOL    HW134873   8.720  10.991   7.746
10992SOL    HW234874   8.661  10.952   7.880
10993SOL     OW34875   4.723   6.341  13.575
10993SOL    HW134876   4.775   6.380  13.646
10993SOL    HW234877   4.638   6.323  13.616
10994SOL     OW34878   4.469   5.830   4.923
10994SOL    HW134879   4.491   5.800   5.011
10994SOL    HW234880   4.450   5.923   4.933
10995SOL     OW34881   6.280   4.632   7.983
10995SOL    HW134882   6.235   4.579   7.917
10995SOL    HW234883   6.311   4.708   7.935
10996SOL     OW34884   9.743   5.645   5.919
10996SOL    HW134885   9.756   5.725   5.868
10996SOL    HW234886   9.706   5.675   6.002
10997SOL     OW34887   7.349  14.002  13.995
10997SOL    HW134888   7.444  14.011  13.990
10997SOL    HW234889   7.335  13.934  14.061
10998SOL     OW34890  12.845   1.909   9.978
10998SOL    HW134891  12.756   1.887  10.007
10998SOL    HW234892  12.870   1.836   9.920
10999SOL     OW34893   8.369   8.608   0.603
10999SOL    HW134894   8.286   8.609   0.649
10999SOL    HW234895   8.349   8.644   0.516
11000SOL     OW34896   5.003   7.051  12.162
11000SOL    HW134897   4.993   6.977  12.222
11000SOL    HW234898   4.938   7.115  12.192
11001SOL     OW34899   7.357  12.993   5.114
11001SOL    HW134900   7.427  13.003   5.050
11001SOL    HW234901   7.383  12.917   5.167
11002SOL     OW34902   2.797   2.708   2.550
11002SOL    HW134903   2.888   2.716   2.577
11002SOL    HW234904   2.802   2.688   2.456
11003SOL     OW34905   1.528   0.114   0.505
11003SOL    HW134906   1.483   0.189   0.542
11003SOL    HW234907   1.595   0.152   0.448
11004SOL     OW34908  12.052   8.040   0.455
11004SOL    HW134909  12.117   7.981   0.416
11004SOL    HW234910  11.969   7.993   0.449
11005SOL     OW34911  13.193  11.057  13.629
11005SOL    HW134912  13.225  10.970  13.650
11005SOL    HW234913  13.238  11.080  13.547
11006SOL     OW34914  13.883   1.478   8.475
11006SOL    HW134915  13.830   1.400   8.460
11006SOL    HW234916  13.823   1.551   8.462
11007SOL     OW34917   1.389  12.474   2.043
11007SOL    HW134918   1.434  12.406   1.993
11007SOL    HW234919   1.404  12.555   1.993
11008SOL     OW34920   2.522   1.020   2.973
11008SOL    HW134921   2.426   1.013   2.978
11008SOL    HW234922   2.542   1.016   2.880
11009SOL     OW34923   2.216   6.366   9.578
11009SOL    HW134924   2.122   6.368   9.562
11009SOL    HW234925   2.235   6.451   9.619
11010SOL     OW34926  12.938  12.766  14.733
11010SOL    HW134927  12.975  12.847  14.769
11010SOL    HW234928  12.855  12.755  14.779
11011SOL     OW34929   7.944   8.953   1.430
11011SOL    HW134930   7.883   8.981   1.361
11011SOL    HW234931   7.890   8.949   1.509
11012SOL     OW34932   5.027  12.125   9.954
11012SOL    HW134933   5.047  12.045  10.003
11012SOL    HW234934   5.108  12.146   9.908
11013SOL     OW34935  13.632   5.409  13.912
11013SOL    HW134936  13.619   5.446  14.000
11013SOL    HW234937  13.714   5.448  13.882
11014SOL     OW34938   9.810  13.554  10.202
11014SOL    HW134939   9.891  13.539  10.154
11014SOL    HW234940   9.780  13.466  10.226
11015SOL     OW34941   2.545   7.272   1.359
11015SOL    HW134942   2.461   7.291   1.403
11015SOL    HW234943   2.606   7.335   1.397
11016SOL     OW34944   9.170  12.955  14.132
11016SOL    HW134945   9.242  13.003  14.172
11016SOL    HW234946   9.159  12.877  14.187
11017SOL     OW34947   1.545  13.423  11.517
11017SOL    HW134948   1.548  13.439  11.422
11017SOL    HW234949   1.636  13.407  11.542
11018SOL     OW34950  14.806   4.654   7.161
11018SOL    HW134951  14.879   4.670   7.220
11018SOL    HW234952  14.812   4.561   7.140
11019SOL     OW34953   0.693   5.731  10.018
11019SOL    HW134954   0.645   5.648  10.011
11019SOL    HW234955   0.725   5.734  10.108
11020SOL     OW34956  11.797   8.580  12.599
11020SOL    HW134957  11.704   8.602  12.600
11020SOL    HW234958  11.799   8.486  12.619
11021SOL     OW34959   5.760   8.008   8.085
11021SOL    HW134960   5.771   8.013   7.990
11021SOL    HW234961   5.667   7.996   8.098
11022SOL     OW34962   3.936   0.921  14.519
11022SOL    HW134963   3.931   0.987  14.588
11022SOL    HW234964   3.855   0.871  14.527
11023SOL     OW34965  10.327   8.188   1.222
11023SOL    HW134966  10.333   8.126   1.295
11023SOL    HW234967  10.248   8.238   1.239
11024SOL     OW34968   2.430   2.012   1.462
11024SOL    HW134969   2.518   2.046   1.476
11024SOL    HW234970   2.374   2.089   1.463
11025SOL     OW34971  11.467   6.987   0.061
11025SOL    HW134972  11.508   7.055   0.115
11025SOL    HW234973  11.375   7.013   0.054
11026SOL     OW34974   0.215   7.706   9.529
11026SOL    HW134975   0.121   7.690   9.531
11026SOL    HW234976   0.252   7.626   9.490
11027SOL     OW34977   4.574   2.930   6.867
11027SOL    HW134978   4.566   3.022   6.843
11027SOL    HW234979   4.502   2.887   6.822
11028SOL     OW34980   3.210   2.121  12.098
11028SOL    HW134981   3.165   2.037  12.103
11028SOL    HW234982   3.141   2.185  12.085
11029SOL     OW34983   8.391  11.818  12.756
11029SOL    HW134984   8.390  11.869  12.837
11029SOL    HW234985   8.483  11.803  12.738
11030SOL     OW34986   8.654   8.635   4.710
11030SOL    HW134987   8.653   8.696   4.637
11030SOL    HW234988   8.738   8.651   4.754
11031SOL     OW34989  13.104   4.839   3.254
11031SOL    HW134990  13.086   4.823   3.161
11031SOL    HW234991  13.049   4.914   3.276
11032SOL     OW34992   9.646  11.277  11.460
11032SOL    HW134993   9.684  11.195  11.430
11032SOL    HW234994   9.660  11.278  11.554
11033SOL     OW34995   4.853  12.430   5.920
11033SOL    HW134996   4.781  12.450   5.861
11033SOL    HW234997   4.821  12.454   6.007
11034SOL     OW34998  11.280  12.112   4.920
11034SOL    HW134999  11.240  12.130   4.836
11034SOL    HW235000  11.292  12.017   4.921
11035SOL     OW35001   0.886   1.361  10.959
11035SOL    HW135002   0.888   1.406  10.874
11035SOL    HW235003   0.830   1.286  10.945
11036SOL     OW35004  14.486   7.649   3.717
11036SOL    HW135005  14.487   7.743   3.736
11036SOL    HW235006  14.401   7.632   3.678
11037SOL     OW35007  12.137   2.643   5.402
11037SOL    HW135008  12.069   2.654   5.335
11037SOL    HW235009  12.091   2.606   5.477
11038SOL     OW35010   2.881  14.288   9.704
11038SOL    HW135011   2.961  14.272   9.655
11038SOL    HW235012   2.814  14.237   9.659
11039SOL     OW35013  10.162   8.394   0.108
11039SOL    HW135014  10.223   8.321   0.094
11039SOL    HW235015  10.086   8.354   0.151
11040SOL     OW35016   7.434   0.751  10.662
11040SOL    HW135017   7.368   0.751  10.732
11040SOL    HW235018   7.496   0.683  10.688
11041SOL     OW35019  11.799  11.156   0.381
11041SOL    HW135020  11.832  11.125   0.296
11041SOL    HW235021  11.742  11.085   0.411
11042SOL     OW35022   7.119   1.263   6.342
11042SOL    HW135023   7.037   1.312   6.340
11042SOL    HW235024   7.095   1.178   6.379
11043SOL     OW35025   0.411   3.453  10.880
11043SOL    HW135026   0.404   3.378  10.821
11043SOL    HW235027   0.400   3.415  10.968
11044SOL     OW35028  10.408   6.565   5.771
11044SOL    HW135029  10.437   6.651   5.741
11044SOL    HW235030  10.488   6.516   5.786
11045SOL     OW35031  13.094  12.127   0.537
11045SOL    HW135032  13.002  12.106   0.553
11045SOL    HW235033  13.107  12.111   0.444
11046SOL     OW35034   6.291   6.225   3.368
11046SOL    HW135035   6.219   6.288   3.369
11046SOL    HW235036   6.275   6.169   3.445
11047SOL     OW35037  12.734   4.680   2.025
11047SOL    HW135038  12.815   4.732   2.024
11047SOL    HW235039  12.764   4.589   2.022
11048SOL     OW35040  13.182   5.706  14.366
11048SOL    HW135041  13.151   5.667  14.448
11048SOL    HW235042  13.275   5.725  14.382
11049SOL     OW35043  12.809  13.498   6.882
11049SOL    HW135044  12.863  13.532   6.811
11049SOL    HW235045  12.866  13.437   6.928
11050SOL     OW35046  13.284  10.830  10.392
11050SOL    HW135047  13.229  10.847  10.468
11050SOL    HW235048  13.262  10.741  10.366
11051SOL     OW35049   9.725   5.418   7.273
11051SOL    HW135050   9.745   5.503   7.313
11051SOL    HW235051   9.805   5.367   7.284
11052SOL     OW35052   7.723  11.179   9.885
11052SOL    HW135053   7.807  11.180   9.840
11052SOL    HW235054   7.680  11.100   9.853
11053SOL     OW35055   8.637  11.209  14.657
11053SOL    HW135056   8.654  11.248  14.571
11053SOL    HW235057   8.568  11.264  14.695
11054SOL     OW35058   1.103  12.319  11.473
11054SOL    HW135059   1.171  12.255  11.494
11054SOL    HW235060   1.140  12.403  11.500
11055SOL     OW35061   0.346   8.683  11.692
11055SOL    HW135062   0.427   8.654  11.734
11055SOL    HW235063   0.287   8.705  11.765
11056SOL     OW35064   9.021   3.578   9.896
11056SOL    HW135065   9.090   3.584   9.830
11056SOL    HW235066   8.941   3.605   9.850
11057SOL     OW35067  11.589   0.766   0.722
11057SOL    HW135068  11.661   0.815   0.682
11057SOL    HW235069  11.622   0.738   0.807
11058SOL     OW35070  14.157  14.740   7.751
11058SOL    HW135071  14.218  14.747   7.678
11058SOL    HW235072  14.112  14.825   7.753
11059SOL     OW35073   1.742  10.107  14.262
11059SOL    HW135074   1.658  10.116  14.305
11059SOL    HW235075   1.806  10.112  14.333
11060SOL     OW35076   8.998   6.452   2.499
11060SOL    HW135077   8.972   6.387   2.435
11060SOL    HW235078   8.963   6.535   2.466
11061SOL     OW35079  11.381   0.468   2.790
11061SOL    HW135080  11.294   0.442   2.821
11061SOL    HW235081  11.364   0.537   2.725
11062SOL     OW35082   0.727   7.514  13.518
11062SOL    HW135083   0.682   7.507  13.434
11062SOL    HW235084   0.680   7.455  13.576
11063SOL     OW35085   2.662   5.181   4.423
11063SOL    HW135086   2.576   5.222   4.426
11063SOL    HW235087   2.712   5.234   4.361
11064SOL     OW35088  11.454   2.284  13.553
11064SOL    HW135089  11.490   2.264  13.639
11064SOL    HW235090  11.401   2.362  13.565
11065SOL     OW35091   4.947   7.002  10.149
11065SOL    HW135092   4.958   7.032  10.240
11065SOL    HW235093   5.026   7.032  10.105
11066SOL     OW35094   4.869   8.302   8.944
11066SOL    HW135095   4.793   8.314   8.887
11066SOL    HW235096   4.888   8.208   8.939
11067SOL     OW35097   2.588  13.514   8.514
11067SOL    HW135098   2.494  13.503   8.529
11067SOL    HW235099   2.623  13.541   8.599
11068SOL     OW35100  10.502  12.936   2.239
11068SOL    HW135101  10.534  12.867   2.298
11068SOL    HW235102  10.467  13.003   2.298
11069SOL     OW35103   9.519   5.653   9.193
11069SOL    HW135104   9.440   5.630   9.144
11069SOL    HW235105   9.589   5.653   9.127
11070SOL     OW35106   4.780  12.500   8.418
11070SOL    HW135107   4.812  12.492   8.329
11070SOL    HW235108   4.733  12.584   8.420
11071SOL     OW35109  10.420  10.016   4.441
11071SOL    HW135110  10.459   9.976   4.519
11071SOL    HW235111  10.434   9.952   4.371
11072SOL     OW35112   8.147  13.253   5.042
11072SOL    HW135113   8.189  13.236   5.126
11072SOL    HW235114   8.198  13.324   5.004
11073SOL     OW35115  10.422  11.127  13.499
11073SOL    HW135116  10.456  11.199  13.447
11073SOL    HW235117  10.491  11.061  13.498
11074SOL     OW35118  10.099  10.763   9.295
11074SOL    HW135119  10.029  10.801   9.347
11074SOL    HW235120  10.177  10.771   9.351
11075SOL     OW35121   7.892   3.000   4.026
11075SOL    HW135122   7.797   3.007   4.026
11075SOL    HW235123   7.917   3.020   4.116
11076SOL     OW35124   9.898   7.144   2.019
11076SOL    HW135125   9.851   7.136   1.937
11076SOL    HW235126   9.928   7.235   2.021
11077SOL     OW35127   1.947  12.567   4.324
11077SOL    HW135128   1.953  12.504   4.253
11077SOL    HW235129   2.038  12.592   4.341
11078SOL     OW35130   9.697   1.976  11.784
11078SOL    HW135131   9.787   2.000  11.764
11078SOL    HW235132   9.655   1.966  11.699
11079SOL     OW35133  11.046  13.628  11.680
11079SOL    HW135134  10.983  13.684  11.727
11079SOL    HW235135  11.077  13.683  11.608
11080SOL     OW35136   0.992   9.047   4.794
11080SOL    HW135137   1.032   8.967   4.760
11080SOL    HW235138   0.959   9.023   4.880
11081SOL     OW35139  10.291  13.486  11.791
11081SOL    HW135140  10.316  13.407  11.839
11081SOL    HW235141  10.373  13.532  11.774
11082SOL     OW35142   2.386   1.793   1.846
11082SOL    HW135143   2.344   1.879   1.857
11082SOL    HW235144   2.397   1.760   1.935
11083SOL     OW35145  11.429   4.502   4.818
11083SOL    HW135146  11.401   4.411   4.809
11083SOL    HW235147  11.348   4.552   4.823
11084SOL     OW35148   2.366   4.988   3.845
11084SOL    HW135149   2.315   4.985   3.926
11084SOL    HW235150   2.307   4.954   3.778
11085SOL     OW35151   8.713  13.756   1.453
11085SOL    HW135152   8.765  13.825   1.494
11085SOL    HW235153   8.776  13.687   1.432
11086SOL     OW35154  14.130   2.340   4.523
11086SOL    HW135155  14.124   2.395   4.445
11086SOL    HW235156  14.045   2.351   4.567
11087SOL     OW35157   6.504   6.921  14.086
11087SOL    HW135158   6.591   6.923  14.046
11087SOL    HW235159   6.468   7.009  14.069
11088SOL     OW35160   3.603  13.404   3.088
11088SOL    HW135161   3.597  13.495   3.114
11088SOL    HW235162   3.517  13.367   3.109
11089SOL     OW35163   6.891   3.395  13.159
11089SOL    HW135164   6.961   3.461  13.168
11089SOL    HW235165   6.932   3.323  13.112
11090SOL     OW35166  11.082   5.047  13.646
11090SOL    HW135167  11.079   4.958  13.680
11090SOL    HW235168  11.174   5.072  13.651
11091SOL     OW35169  12.756   6.198   5.001
11091SOL    HW135170  12.802   6.115   4.993
11091SOL    HW235171  12.775   6.244   4.919
11092SOL     OW35172  11.895  13.905  10.759
11092SOL    HW135173  11.829  13.974  10.767
11092SOL    HW235174  11.871  13.858  10.679
11093SOL     OW35175   4.171   2.392   0.259
11093SOL    HW135176   4.152   2.468   0.204
11093SOL    HW235177   4.221   2.428   0.333
11094SOL     OW35178   1.786   9.368   2.912
11094SOL    HW135179   1.699   9.330   2.920
11094SOL    HW235180   1.824   9.325   2.835
11095SOL     OW35181  12.900  12.757  13.479
11095SOL    HW135182  12.823  12.792  13.435
11095SOL    HW235183  12.887  12.780  13.571
11096SOL     OW35184   9.513  11.120   6.561
11096SOL    HW135185   9.589  11.073   6.526
11096SOL    HW235186   9.494  11.188   6.495
11097SOL     OW35187  10.454   2.636   4.090
11097SOL    HW135188  10.378   2.641   4.032
11097SOL    HW235189  10.520   2.691   4.046
11098SOL     OW35190   3.805  12.346   5.375
11098SOL    HW135191   3.829  12.337   5.468
11098SOL    HW235192   3.836  12.433   5.351
11099SOL     OW35193  12.723  14.206   3.932
11099SOL    HW135194  12.734  14.114   3.955
11099SOL    HW235195  12.702  14.249   4.015
11100SOL     OW35196  14.864   6.642   7.378
11100SOL    HW135197  14.783   6.658   7.331
11100SOL    HW235198  14.878   6.547   7.370
11101SOL     OW35199   7.301  10.101   9.017
11101SOL    HW135200   7.362  10.152   8.964
11101SOL    HW235201   7.331  10.010   9.008
11102SOL     OW35202   4.727  11.703   4.542
11102SOL    HW135203   4.712  11.647   4.618
11102SOL    HW235204   4.752  11.643   4.472
11103SOL     OW35205   1.824  13.651   6.985
11103SOL    HW135206   1.870  13.607   6.914
11103SOL    HW235207   1.832  13.592   7.059
11104SOL     OW35208  11.502   1.512   4.914
11104SOL    HW135209  11.556   1.561   4.853
11104SOL    HW235210  11.523   1.421   4.897
11105SOL     OW35211   1.174   2.927   8.566
11105SOL    HW135212   1.084   2.949   8.542
11105SOL    HW235213   1.190   2.843   8.523
11106SOL     OW35214  12.016   5.226   2.826
11106SOL    HW135215  12.084   5.251   2.763
11106SOL    HW235216  12.065   5.197   2.903
11107SOL     OW35217  10.050   7.657   5.935
11107SOL    HW135218  10.059   7.600   5.859
11107SOL    HW235219  10.136   7.655   5.977
11108SOL     OW35220  10.923   2.543   2.764
11108SOL    HW135221  10.959   2.570   2.679
11108SOL    HW235222  10.828   2.537   2.749
11109SOL     OW35223   6.382  13.223   6.764
11109SOL    HW135224   6.436  13.155   6.724
11109SOL    HW235225   6.310  13.175   6.805
11110SOL     OW35226   9.406  12.291   9.284
11110SOL    HW135227   9.454  12.373   9.273
11110SOL    HW235228   9.439  12.255   9.367
11111SOL     OW35229  11.652  13.378  11.183
11111SOL    HW135230  11.734  13.330  11.186
11111SOL    HW235231  11.678  13.469  11.166
11112SOL     OW35232  10.160   4.579   3.033
11112SOL    HW135233  10.250   4.570   3.064
11112SOL    HW235234  10.143   4.673   3.035
11113SOL     OW35235   5.784   5.194  12.997
11113SOL    HW135236   5.845   5.131  13.034
11113SOL    HW235237   5.837   5.272  12.980
11114SOL     OW35238   6.894  10.138  10.365
11114SOL    HW135239   6.825  10.124  10.300
11114SOL    HW235240   6.975  10.120  10.318
11115SOL     OW35241  14.207   5.134   3.264
11115SOL    HW135242  14.225   5.219   3.224
11115SOL    HW235243  14.287   5.112   3.311
11116SOL     OW35244   2.647  10.813  12.248
11116SOL    HW135245   2.580  10.745  12.239
11116SOL    HW235246   2.728  10.765  12.266
11117SOL     OW35247   7.484   2.448  11.895
11117SOL    HW135248   7.532   2.459  11.814
11117SOL    HW235249   7.550   2.454  11.964
11118SOL     OW35250   8.686  12.207   1.341
11118SOL    HW135251   8.630  12.242   1.272
11118SOL    HW235252   8.756  12.271   1.351
11119SOL     OW35253  10.539   7.524   4.721
11119SOL    HW135254  10.453   7.549   4.686
11119SOL    HW235255  10.598   7.594   4.694
11120SOL     OW35256  11.799   4.009   7.807
11120SOL    HW135257  11.743   4.005   7.730
11120SOL    HW235258  11.738   4.012   7.881
11121SOL     OW35259  14.217  14.158   9.682
11121SOL    HW135260  14.286  14.108   9.639
11121SOL    HW235261  14.147  14.164   9.617
11122SOL     OW35262  12.210   3.616  13.558
11122SOL    HW135263  12.123   3.635  13.523
11122SOL    HW235264  12.203   3.527  13.592
11123SOL     OW35265   8.112  13.846   7.140
11123SOL    HW135266   8.204  13.852   7.116
11123SOL    HW235267   8.101  13.757   7.173
11124SOL     OW35268   0.535  13.847   2.406
11124SOL    HW135269   0.504  13.878   2.491
11124SOL    HW235270   0.536  13.751   2.414
11125SOL     OW35271   3.160   4.818   8.623
11125SOL    HW135272   3.091   4.861   8.572
11125SOL    HW235273   3.146   4.850   8.712
11126SOL     OW35274  14.339  10.766   9.494
11126SOL    HW135275  14.301  10.839   9.544
11126SOL    HW235276  14.293  10.689   9.527
11127SOL     OW35277   4.989   6.379   7.362
11127SOL    HW135278   4.991   6.463   7.316
11127SOL    HW235279   4.919   6.329   7.318
11128SOL     OW35280  13.057  10.409   9.090
11128SOL    HW135281  12.992  10.463   9.044
11128SOL    HW235282  13.103  10.361   9.021
11129SOL     OW35283  10.717   8.565   8.738
11129SOL    HW135284  10.739   8.513   8.660
11129SOL    HW235285  10.801   8.587   8.776
11130SOL     OW35286   7.129   5.254   9.821
11130SOL    HW135287   7.076   5.203   9.882
11130SOL    HW235288   7.071   5.324   9.791
11131SOL     OW35289  14.802   1.992  10.814
11131SOL    HW135290  14.729   1.964  10.758
11131SOL    HW235291  14.825   2.079  10.781
11132SOL     OW35292  13.699   6.578   1.711
11132SOL    HW135293  13.608   6.585   1.741
11132SOL    HW235294  13.706   6.487   1.681
11133SOL     OW35295   1.317   4.882   4.837
11133SOL    HW135296   1.265   4.801   4.842
11133SOL    HW235297   1.341   4.900   4.928
11134SOL     OW35298  12.389   8.096   3.423
11134SOL    HW135299  12.350   8.063   3.342
11134SOL    HW235300  12.440   8.022   3.456
11135SOL     OW35301   3.424   0.088  13.590
11135SOL    HW135302   3.391   0.100  13.501
11135SOL    HW235303   3.385   0.006  13.619
11136SOL     OW35304   1.653   6.416   8.106
11136SOL    HW135305   1.662   6.333   8.060
11136SOL    HW235306   1.732   6.422   8.160
11137SOL     OW35307   9.452   3.543   0.926
11137SOL    HW135308   9.446   3.639   0.927
11137SOL    HW235309   9.500   3.521   1.005
11138SOL     OW35310   9.578   3.049   1.131
11138SOL    HW135311   9.558   3.129   1.083
11138SOL    HW235312   9.611   2.988   1.065
11139SOL     OW35313  14.055   3.454   5.656
11139SOL    HW135314  13.968   3.481   5.686
11139SOL    HW235315  14.047   3.451   5.560
11140SOL     OW35316   4.041   5.112   3.489
11140SOL    HW135317   3.977   5.105   3.560
11140SOL    HW235318   4.012   5.047   3.425
11141SOL     OW35319   3.023  12.661   0.726
11141SOL    HW135320   3.006  12.746   0.687
11141SOL    HW235321   2.966  12.658   0.803
11142SOL     OW35322   3.215   3.568   1.224
11142SOL    HW135323   3.219   3.550   1.130
11142SOL    HW235324   3.269   3.499   1.263
11143SOL     OW35325   6.422  14.775  12.357
11143SOL    HW135326   6.332  14.757  12.329
11143SOL    HW235327   6.419  14.768  12.453
11144SOL     OW35328   4.081   5.112  11.149
11144SOL    HW135329   4.089   5.075  11.237
11144SOL    HW235330   4.161   5.162  11.136
11145SOL     OW35331   9.250   5.399  14.118
11145SOL    HW135332   9.181   5.333  14.112
11145SOL    HW235333   9.283   5.392  14.207
11146SOL     OW35334   7.992  11.448   8.798
11146SOL    HW135335   7.998  11.516   8.866
11146SOL    HW235336   7.911  11.468   8.752
11147SOL     OW35337  10.999   8.320  11.499
11147SOL    HW135338  10.994   8.385  11.569
11147SOL    HW235339  10.983   8.369  11.419
11148SOL     OW35340  13.724  11.139   5.538
11148SOL    HW135341  13.763  11.052   5.532
11148SOL    HW235342  13.634  11.127   5.507
11149SOL     OW35343  12.268  13.726   6.666
11149SOL    HW135344  12.212  13.692   6.736
11149SOL    HW235345  12.299  13.811   6.699
11150SOL     OW35346   1.473  14.543   6.246
11150SOL    HW135347   1.521  14.476   6.295
11150SOL    HW235348   1.381  14.515   6.251
11151SOL     OW35349  14.709   8.035  12.652
11151SOL    HW135350  14.673   8.008  12.737
11151SOL    HW235351  14.722   7.953  12.605
11152SOL     OW35352   5.274   7.926   2.989
11152SOL    HW135353   5.359   7.880   2.989
11152SOL    HW235354   5.294   8.011   2.950
11153SOL     OW35355   2.316   7.647   9.660
11153SOL    HW135356   2.324   7.628   9.754
11153SOL    HW235357   2.288   7.738   9.657
11154SOL     OW35358  10.195   5.445   4.505
11154SOL    HW135359  10.225   5.387   4.435
11154SOL    HW235360  10.160   5.386   4.572
11155SOL     OW35361   4.463  13.561  11.913
11155SOL    HW135362   4.553  13.580  11.887
11155SOL    HW235363   4.411  13.578  11.835
11156SOL     OW35364  10.614  14.102   0.612
11156SOL    HW135365  10.640  14.011   0.617
11156SOL    HW235366  10.520  14.099   0.592
11157SOL     OW35367   2.517  14.230   7.006
11157SOL    HW135368   2.598  14.182   7.025
11157SOL    HW235369   2.453  14.162   6.985
11158SOL     OW35370  13.784   6.313   3.219
11158SOL    HW135371  13.814   6.394   3.260
11158SOL    HW235372  13.863   6.275   3.181
11159SOL     OW35373  10.554   9.388  12.882
11159SOL    HW135374  10.614   9.419  12.949
11159SOL    HW235375  10.532   9.299  12.908
11160SOL     OW35376  13.258   7.752   6.013
11160SOL    HW135377  13.177   7.707   5.988
11160SOL    HW235378  13.270   7.729   6.105
11161SOL     OW35379  11.176  14.418   9.799
11161SOL    HW135380  11.226  14.400   9.879
11161SOL    HW235381  11.217  14.363   9.732
11162SOL     OW35382   7.696   6.199  13.296
11162SOL    HW135383   7.732   6.184  13.208
11162SOL    HW235384   7.636   6.126  13.310
11163SOL     OW35385   8.179  13.127   9.699
11163SOL    HW135386   8.258  13.077   9.676
11163SOL    HW235387   8.146  13.159   9.615
11164SOL     OW35388  14.276   1.653   2.439
11164SOL    HW135389  14.258   1.738   2.480
11164SOL    HW235390  14.269   1.669   2.345
11165SOL     OW35391   4.186   8.574   7.974
11165SOL    HW135392   4.168   8.482   7.997
11165SOL    HW235393   4.138   8.625   8.039
11166SOL     OW35394  10.276  13.635   1.411
11166SOL    HW135395  10.272  13.588   1.494
11166SOL    HW235396  10.214  13.588   1.354
11167SOL     OW35397   1.287  14.494   8.431
11167SOL    HW135398   1.236  14.476   8.352
11167SOL    HW235399   1.237  14.562   8.477
11168SOL     OW35400   5.372  11.285  13.821
11168SOL    HW135401   5.395  11.378  13.821
11168SOL    HW235402   5.279  11.283  13.801
11169SOL     OW35403   8.404   7.792   9.594
11169SOL    HW135404   8.376   7.786   9.502
11169SOL    HW235405   8.414   7.885   9.610
11170SOL     OW35406  13.263   1.345  14.488
11170SOL    HW135407  13.312   1.427  14.477
11170SOL    HW235408  13.330   1.276  14.484
11171SOL     OW35409   3.318   3.076   7.519
11171SOL    HW135410   3.413   3.066   7.507
11171SOL    HW235411   3.303   3.170   7.511
11172SOL     OW35412   8.586   0.828   7.466
11172SOL    HW135413   8.574   0.890   7.538
11172SOL    HW235414   8.509   0.772   7.470
11173SOL     OW35415   3.564  10.085   4.403
11173SOL    HW135416   3.476  10.118   4.386
11173SOL    HW235417   3.556  10.035   4.484
11174SOL     OW35418   4.820   9.815  13.996
11174SOL    HW135419   4.817   9.782  14.086
11174SOL    HW235420   4.903   9.862  13.990
11175SOL     OW35421   2.914   3.320   2.981
11175SOL    HW135422   2.913   3.399   2.928
11175SOL    HW235423   2.896   3.350   3.070
11176SOL     OW35424   7.472   8.285  10.985
11176SOL    HW135425   7.543   8.345  11.009
11176SOL    HW235426   7.447   8.244  11.068
11177SOL     OW35427   2.299  10.653   3.915
11177SOL    HW135428   2.298  10.658   4.011
11177SOL    HW235429   2.242  10.725   3.887
11178SOL     OW35430   6.707   9.645   6.281
11178SOL    HW135431   6.723   9.725   6.331
11178SOL    HW235432   6.629   9.607   6.321
11179SOL     OW35433   0.620   2.854   2.392
11179SOL    HW135434   0.569   2.902   2.458
11179SOL    HW235435   0.569   2.774   2.377
11180SOL     OW35436  10.662   5.816   8.171
11180SOL    HW135437  10.575   5.846   8.145
11180SOL    HW235438  10.711   5.896   8.190
11181SOL     OW35439   2.025   1.359   2.344
11181SOL    HW135440   1.933   1.337   2.332
11181SOL    HW235441   2.064   1.280   2.381
11182SOL     OW35442   1.358   1.939  12.516
11182SOL    HW135443   1.440   1.988  12.521
11182SOL    HW235444   1.305   1.974  12.588
11183SOL     OW35445  12.690  13.071   8.752
11183SOL    HW135446  12.742  13.102   8.677
11183SOL    HW235447  12.737  12.993   8.783
11184SOL     OW35448   7.779  14.004  14.660
11184SOL    HW135449   7.728  13.967  14.587
11184SOL    HW235450   7.719  14.068  14.699
11185SOL     OW35451   6.826   6.571   2.168
11185SOL    HW135452   6.910   6.614   2.186
11185SOL    HW235453   6.761   6.629   2.208
11186SOL     OW35454   1.562   4.671  13.674
11186SOL    HW135455   1.561   4.697  13.582
11186SOL    HW235456   1.472   4.644  13.693
11187SOL     OW35457   2.106   6.427  10.806
11187SOL    HW135458   2.063   6.368  10.869
11187SOL    HW235459   2.199   6.407  10.814
11188SOL     OW35460   3.545   1.955  11.728
11188SOL    HW135461   3.532   2.038  11.681
11188SOL    HW235462   3.460   1.912  11.725
11189SOL     OW35463   2.128  14.014   8.303
11189SOL    HW135464   2.045  14.063   8.301
11189SOL    HW235465   2.176  14.047   8.227
11190SOL     OW35466  12.488   8.346  14.601
11190SOL    HW135467  12.577   8.340  14.569
11190SOL    HW235468  12.457   8.256  14.605
11191SOL     OW35469   4.033   4.301   9.165
11191SOL    HW135470   4.055   4.328   9.254
11191SOL    HW235471   4.116   4.277   9.125
11192SOL     OW35472   9.119  11.734   6.653
11192SOL    HW135473   9.114  11.639   6.649
11192SOL    HW235474   9.047  11.760   6.711
11193SOL     OW35475  10.013   4.208   7.072
11193SOL    HW135476   9.991   4.251   7.155
11193SOL    HW235477  10.108   4.197   7.075
11194SOL     OW35478  14.176   7.239  13.663
11194SOL    HW135479  14.177   7.334  13.681
11194SOL    HW235480  14.232   7.229  13.586
11195SOL     OW35481   1.171  13.336   1.669
11195SOL    HW135482   1.215  13.344   1.753
11195SOL    HW235483   1.079  13.351   1.689
11196SOL     OW35484  14.450   1.691   5.969
11196SOL    HW135485  14.355   1.689   5.979
11196SOL    HW235486  14.472   1.784   5.969
11197SOL     OW35487   5.340  11.463   2.743
11197SOL    HW135488   5.424  11.417   2.746
11197SOL    HW235489   5.291  11.426   2.816
11198SOL     OW35490  12.448   7.528   2.997
11198SOL    HW135491  12.387   7.459   3.025
11198SOL    HW235492  12.518   7.481   2.951
11199SOL     OW35493  13.902   5.729   5.882
11199SOL    HW135494  13.881   5.660   5.818
11199SOL    HW235495  13.862   5.808   5.845
11200SOL     OW35496   6.123   3.415   2.877
11200SOL    HW135497   6.140   3.488   2.817
11200SOL    HW235498   6.146   3.449   2.964
11201SOL     OW35499   6.293   9.176  12.077
11201SOL    HW135500   6.349   9.106  12.109
11201SOL    HW235501   6.227   9.187  12.146
11202SOL     OW35502  11.169   3.394  13.490
11202SOL    HW135503  11.203   3.467  13.541
11202SOL    HW235504  11.127   3.435  13.414
11203SOL     OW35505   5.601  13.027   0.836
11203SOL    HW135506   5.541  12.952   0.836
11203SOL    HW235507   5.640  13.027   0.749
11204SOL     OW35508  13.643   9.619   0.450
11204SOL    HW135509  13.565   9.579   0.412
11204SOL    HW235510  13.673   9.556   0.515
11205SOL     OW35511   3.408   1.496   1.623
11205SOL    HW135512   3.391   1.475   1.714
11205SOL    HW235513   3.490   1.546   1.624
11206SOL     OW35514   5.394   0.907  14.311
11206SOL    HW135515   5.474   0.921  14.363
11206SOL    HW235516   5.424   0.854  14.237
11207SOL     OW35517   8.586  10.331  12.985
11207SOL    HW135518   8.554  10.245  13.014
11207SOL    HW235519   8.619  10.373  13.064
11208SOL     OW35520   4.483  13.739  11.120
11208SOL    HW135521   4.569  13.723  11.158
11208SOL    HW235522   4.439  13.796  11.183
11209SOL     OW35523   9.367   8.177   9.126
11209SOL    HW135524   9.391   8.130   9.046
11209SOL    HW235525   9.279   8.146   9.147
11210SOL     OW35526  12.935   9.909   3.516
11210SOL    HW135527  13.017   9.956   3.504
11210SOL    HW235528  12.953   9.821   3.483
11211SOL     OW35529   1.891   4.094   0.675
11211SOL    HW135530   1.830   4.162   0.649
11211SOL    HW235531   1.850   4.053   0.751
11212SOL     OW35532   8.007   5.444   3.969
11212SOL    HW135533   8.000   5.353   3.999
11212SOL    HW235534   7.922   5.463   3.929
11213SOL     OW35535   9.227   2.155   1.107
11213SOL    HW135536   9.158   2.135   1.043
11213SOL    HW235537   9.259   2.069   1.135
11214SOL     OW35538   5.204   3.029   4.613
11214SOL    HW135539   5.156   2.947   4.606
11214SOL    HW235540   5.255   3.034   4.532
11215SOL     OW35541  11.996   0.195  11.341
11215SOL    HW135542  11.906   0.209  11.311
11215SOL    HW235543  12.020   0.277  11.384
11216SOL     OW35544   7.936   0.748   9.752
11216SOL    HW135545   7.928   0.660   9.787
11216SOL    HW235546   7.978   0.798   9.822
11217SOL     OW35547   2.933   5.549   7.038
11217SOL    HW135548   2.877   5.497   6.980
11217SOL    HW235549   2.872   5.586   7.102
11218SOL     OW35550   9.362  10.655  14.595
11218SOL    HW135551   9.404  10.738  14.616
11218SOL    HW235552   9.425  10.589  14.624
11219SOL     OW35553  10.839   4.838   2.170
11219SOL    HW135554  10.877   4.925   2.167
11219SOL    HW235555  10.745   4.853   2.167
11220SOL     OW35556   4.684   2.335   2.341
11220SOL    HW135557   4.712   2.254   2.298
11220SOL    HW235558   4.601   2.356   2.299
11221SOL     OW35559  10.299   6.268   3.645
11221SOL    HW135560  10.349   6.234   3.719
11221SOL    HW235561  10.237   6.329   3.684
11222SOL     OW35562   8.154  13.425  11.502
11222SOL    HW135563   8.194  13.416  11.415
11222SOL    HW235564   8.228  13.438  11.561
11223SOL     OW35565   3.792   0.910  10.990
11223SOL    HW135566   3.830   0.833  10.948
11223SOL    HW235567   3.697   0.900  10.979
11224SOL     OW35568   4.080   9.357  13.218
11224SOL    HW135569   4.171   9.355  13.190
11224SOL    HW235570   4.046   9.440  13.185
11225SOL     OW35571   7.622   4.124   8.559
11225SOL    HW135572   7.561   4.193   8.586
11225SOL    HW235573   7.566   4.057   8.519
11226SOL     OW35574   6.581   3.971   3.956
11226SOL    HW135575   6.487   3.954   3.963
11226SOL    HW235576   6.599   4.037   4.022
11227SOL     OW35577  11.986   1.077   6.538
11227SOL    HW135578  11.952   1.005   6.590
11227SOL    HW235579  12.036   1.035   6.468
11228SOL     OW35580  10.667   0.726   8.187
11228SOL    HW135581  10.584   0.770   8.206
11228SOL    HW235582  10.672   0.655   8.251
11229SOL     OW35583   1.647   9.981   4.453
11229SOL    HW135584   1.695   9.960   4.533
11229SOL    HW235585   1.650   9.901   4.401
11230SOL     OW35586   1.575   2.369   5.975
11230SOL    HW135587   1.590   2.275   5.986
11230SOL    HW235588   1.552   2.379   5.883
11231SOL     OW35589  12.941   8.102   8.232
11231SOL    HW135590  12.930   8.032   8.167
11231SOL    HW235591  13.015   8.153   8.199
11232SOL     OW35592   0.670   0.205   8.731
11232SOL    HW135593   0.763   0.217   8.714
11232SOL    HW235594   0.626   0.260   8.666
11233SOL     OW35595  10.439   6.003  13.958
11233SOL    HW135596  10.474   5.924  13.916
11233SOL    HW235597  10.362   5.972  14.006
11234SOL     OW35598   7.663   8.015   7.498
11234SOL    HW135599   7.738   8.040   7.552
11234SOL    HW235600   7.599   8.084   7.514
11235SOL     OW35601   8.710   3.124   9.577
11235SOL    HW135602   8.647   3.083   9.636
11235SOL    HW235603   8.733   3.207   9.619
11236SOL     OW35604  12.023   8.570  10.005
11236SOL    HW135605  12.106   8.525  10.021
11236SOL    HW235606  11.963   8.534  10.071
11237SOL     OW35607   7.129   0.611   1.064
11237SOL    HW135608   7.147   0.548   0.995
11237SOL    HW235609   7.065   0.671   1.026
11238SOL     OW35610  12.777   5.918  12.550
11238SOL    HW135611  12.796   5.900  12.642
11238SOL    HW235612  12.710   5.987  12.552
11239SOL     OW35613   9.662   1.014  10.219
11239SOL    HW135614   9.724   1.050  10.283
11239SOL    HW235615   9.707   0.938  10.183
11240SOL     OW35616   0.810   7.438   7.891
11240SOL    HW135617   0.853   7.494   7.826
11240SOL    HW235618   0.759   7.376   7.838
11241SOL     OW35619  13.898   0.318  10.388
11241SOL    HW135620  13.968   0.367  10.432
11241SOL    HW235621  13.817   0.359  10.420
11242SOL     OW35622   6.126   2.714  14.612
11242SOL    HW135623   6.035   2.706  14.582
11242SOL    HW235624   6.141   2.634  14.663
11243SOL     OW35625   2.402  14.267   3.469
11243SOL    HW135626   2.313  14.262   3.505
11243SOL    HW235627   2.390  14.269   3.374
11244SOL     OW35628   1.335   4.927  12.816
11244SOL    HW135629   1.289   4.865  12.759
11244SOL    HW235630   1.303   5.013  12.789
11245SOL     OW35631   4.509   9.552   1.406
11245SOL    HW135632   4.567   9.500   1.350
11245SOL    HW235633   4.510   9.507   1.490
11246SOL     OW35634  11.261   7.938   3.213
11246SOL    HW135635  11.329   7.950   3.146
11246SOL    HW235636  11.252   8.024   3.254
11247SOL     OW35637  14.096   4.157   9.483
11247SOL    HW135638  14.053   4.167   9.568
11247SOL    HW235639  14.055   4.224   9.428
11248SOL     OW35640   2.364  13.713  10.724
11248SOL    HW135641   2.339  13.630  10.764
11248SOL    HW235642   2.436  13.690  10.665
11249SOL     OW35643  12.823   2.756  14.481
11249SOL    HW135644  12.893   2.715  14.430
11249SOL    HW235645  12.743   2.730  14.435
11250SOL     OW35646   8.172  13.257   8.210
11250SOL    HW135647   8.109  13.186   8.213
11250SOL    HW235648   8.185  13.283   8.302
11251SOL     OW35649  10.790   8.188   7.442
11251SOL    HW135650  10.779   8.283   7.439
11251SOL    HW235651  10.703   8.154   7.461
11252SOL     OW35652   7.349   0.742   1.215
11252SOL    HW135653   7.287   0.702   1.154
11252SOL    HW235654   7.418   0.677   1.226
11253SOL     OW35655   5.889   3.094  10.808
11253SOL    HW135656   5.910   3.127  10.721
11253SOL    HW235657   5.821   3.152  10.840
11254SOL     OW35658  11.552  13.581   9.415
11254SOL    HW135659  11.567  13.487   9.427
11254SOL    HW235660  11.587  13.600   9.328
11255SOL     OW35661  10.421  11.335  13.329
11255SOL    HW135662  10.457  11.410  13.282
11255SOL    HW235663  10.333  11.324  13.292
11256SOL     OW35664  11.578   0.084   2.682
11256SOL    HW135665  11.514   0.123   2.622
11256SOL    HW235666  11.659   0.079   2.631
11257SOL     OW35667  12.988   2.134  11.232
11257SOL    HW135668  13.038   2.090  11.302
11257SOL    HW235669  12.999   2.077  11.156
11258SOL     OW35670  12.741  14.795  14.146
11258SOL    HW135671  12.734  14.850  14.225
11258SOL    HW235672  12.677  14.725  14.160
11259SOL     OW35673   1.542  13.268   2.730
11259SOL    HW135674   1.564  13.207   2.800
11259SOL    HW235675   1.569  13.223   2.650
11260SOL     OW35676   4.820   4.260   6.602
11260SOL    HW135677   4.762   4.233   6.673
11260SOL    HW235678   4.892   4.306   6.646
11261SOL     OW35679  10.443  10.018  11.896
11261SOL    HW135680  10.500  10.089  11.865
11261SOL    HW235681  10.358  10.060  11.911
11262SOL     OW35682  13.687  14.453   5.570
11262SOL    HW135683  13.686  14.358   5.571
11262SOL    HW235684  13.677  14.476   5.478
11263SOL     OW35685   0.461  11.156  10.415
11263SOL    HW135686   0.366  11.161  10.406
11263SOL    HW235687   0.485  11.075  10.369
11264SOL     OW35688  11.667   1.541   0.599
11264SOL    HW135689  11.621   1.497   0.527
11264SOL    HW235690  11.608   1.611   0.625
11265SOL     OW35691   1.035   4.312   1.048
11265SOL    HW135692   0.984   4.256   1.107
11265SOL    HW235693   1.100   4.353   1.105
11266SOL     OW35694  12.106  12.076   9.680
11266SOL    HW135695  12.077  12.041   9.596
11266SOL    HW235696  12.093  12.004   9.742
11267SOL     OW35697   2.776  11.453  12.083
11267SOL    HW135698   2.768  11.367  12.042
11267SOL    HW235699   2.780  11.434  12.177
11268SOL     OW35700   0.374  12.997   8.317
11268SOL    HW135701   0.284  13.026   8.326
11268SOL    HW235702   0.386  12.935   8.389
11269SOL     OW35703   0.340   0.759   9.286
11269SOL    HW135704   0.337   0.741   9.380
11269SOL    HW235705   0.398   0.835   9.278
11270SOL     OW35706   7.782  12.013   1.462
11270SOL    HW135707   7.733  11.989   1.541
11270SOL    HW235708   7.855  12.066   1.494
11271SOL     OW35709   0.141  13.961  13.893
11271SOL    HW135710   0.139  13.865  13.892
11271SOL    HW235711   0.148  13.984  13.985
11272SOL     OW35712   8.252  11.899   0.059
11272SOL    HW135713   8.193  11.886  14.871
11272SOL    HW235714   8.330  11.939   0.021
11273SOL     OW35715   8.973   1.603  11.594
11273SOL    HW135716   8.911   1.531  11.581
11273SOL    HW235717   9.059   1.564  11.579
11274SOL     OW35718   2.694   7.095  13.595
11274SOL    HW135719   2.764   7.155  13.570
11274SOL    HW235720   2.730   7.046  13.669
11275SOL     OW35721   2.681   3.247  13.358
11275SOL    HW135722   2.679   3.216  13.268
11275SOL    HW235723   2.774   3.249  13.381
11276SOL     OW35724  14.676   2.529   5.859
11276SOL    HW135725  14.622   2.450   5.867
11276SOL    HW235726  14.696   2.554   5.949
11277SOL     OW35727   7.563  11.289  12.699
11277SOL    HW135728   7.494  11.259  12.641
11277SOL    HW235729   7.606  11.360  12.651
11278SOL     OW35730   2.224  11.327  12.881
11278SOL    HW135731   2.157  11.280  12.930
11278SOL    HW235732   2.223  11.415  12.918
11279SOL     OW35733   8.516   6.110   2.194
11279SOL    HW135734   8.492   6.203   2.192
11279SOL    HW235735   8.434   6.065   2.211
11280SOL     OW35736  13.242   8.152   0.307
11280SOL    HW135737  13.333   8.165   0.280
11280SOL    HW235738  13.199   8.113   0.231
11281SOL     OW35739  14.804  14.562  14.127
11281SOL    HW135740  14.860  14.539  14.053
11281SOL    HW235741  14.724  14.511  14.114
11282SOL     OW35742   9.124  14.395   1.190
11282SOL    HW135743   9.144  14.488   1.206
11282SOL    HW235744   9.033  14.385   1.216
11283SOL     OW35745   4.717   2.869   0.779
11283SOL    HW135746   4.705   2.780   0.812
11283SOL    HW235747   4.630   2.908   0.782
11284SOL     OW35748   7.485   1.287  10.916
11284SOL    HW135749   7.463   1.194  10.924
11284SOL    HW235750   7.415   1.323  10.861
11285SOL     OW35751   3.956   0.467  10.034
11285SOL    HW135752   4.041   0.428  10.016
11285SOL    HW235753   3.961   0.555   9.996
11286SOL     OW35754  14.274   0.501   5.681
11286SOL    HW135755  14.205   0.555   5.722
11286SOL    HW235756  14.249   0.411   5.702
11287SOL     OW35757   2.950   3.048   9.029
11287SOL    HW135758   2.932   3.045   9.123
11287SOL    HW235759   2.864   3.051   8.988
11288SOL     OW35760  13.472   6.969  12.995
11288SOL    HW135761  13.424   6.887  13.004
11288SOL    HW235762  13.423   7.032  13.049
11289SOL     OW35763   1.281   5.782   1.160
11289SOL    HW135764   1.285   5.714   1.226
11289SOL    HW235765   1.360   5.770   1.108
11290SOL     OW35766  10.491  12.551   2.021
11290SOL    HW135767  10.430  12.573   2.092
11290SOL    HW235768  10.534  12.471   2.050
11291SOL     OW35769   0.292   9.306  14.169
11291SOL    HW135770   0.233   9.302  14.245
11291SOL    HW235771   0.234   9.301  14.093
11292SOL     OW35772   7.716   8.434  13.343
11292SOL    HW135773   7.639   8.457  13.394
11292SOL    HW235774   7.684   8.423  13.254
11293SOL     OW35775  13.354  12.236   7.473
11293SOL    HW135776  13.389  12.324   7.491
11293SOL    HW235777  13.422  12.193   7.422
11294SOL     OW35778   2.749   2.204   3.976
11294SOL    HW135779   2.825   2.164   3.934
11294SOL    HW235780   2.689   2.222   3.904
11295SOL     OW35781   7.767   0.838  11.979
11295SOL    HW135782   7.704   0.767  11.964
11295SOL    HW235783   7.772   0.883  11.895
11296SOL     OW35784   2.641   3.606   7.918
11296SOL    HW135785   2.666   3.539   7.982
11296SOL    HW235786   2.548   3.621   7.934
11297SOL     OW35787   9.783  10.951  12.442
11297SOL    HW135788   9.850  10.918  12.381
11297SOL    HW235789   9.831  11.011  12.499
11298SOL     OW35790  10.107   1.507  11.692
11298SOL    HW135791  10.085   1.419  11.724
11298SOL    HW235792  10.044   1.523  11.622
11299SOL     OW35793   2.801   0.623  13.197
11299SOL    HW135794   2.727   0.591  13.250
11299SOL    HW235795   2.806   0.563  13.123
11300SOL     OW35796  14.716   6.559   9.319
11300SOL    HW135797  14.636   6.595   9.356
11300SOL    HW235798  14.743   6.491   9.380
11301SOL     OW35799  11.850   3.157   5.938
11301SOL    HW135800  11.797   3.189   6.011
11301SOL    HW235801  11.788   3.105   5.886
11302SOL     OW35802   8.270   7.750   9.343
11302SOL    HW135803   8.298   7.806   9.271
11302SOL    HW235804   8.303   7.663   9.320
11303SOL     OW35805   5.457   4.880  13.894
11303SOL    HW135806   5.553   4.881  13.900
11303SOL    HW235807   5.430   4.968  13.921
11304SOL     OW35808  10.526  11.607   6.315
11304SOL    HW135809  10.600  11.649   6.358
11304SOL    HW235810  10.562  11.570   6.234
11305SOL     OW35811  10.977   9.576  10.740
11305SOL    HW135812  10.971   9.543  10.830
11305SOL    HW235813  10.918   9.652  10.739
11306SOL     OW35814   4.394   9.352   3.301
11306SOL    HW135815   4.347   9.286   3.352
11306SOL    HW235816   4.467   9.304   3.261
11307SOL     OW35817  11.171  14.682   8.318
11307SOL    HW135818  11.127  14.715   8.396
11307SOL    HW235819  11.101  14.644   8.265
11308SOL     OW35820   7.941   0.447   1.945
11308SOL    HW135821   7.985   0.370   1.982
11308SOL    HW235822   7.858   0.413   1.912
11309SOL     OW35823   1.726  12.460   3.066
11309SOL    HW135824   1.808  12.412   3.053
11309SOL    HW235825   1.748  12.551   3.045
11310SOL     OW35826  14.210  13.935  10.582
11310SOL    HW135827  14.269  14.009  10.600
11310SOL    HW235828  14.227  13.874  10.654
11311SOL     OW35829  11.923  13.835  10.470
11311SOL    HW135830  11.872  13.912  10.495
11311SOL    HW235831  12.013  13.869  10.459
11312SOL     OW35832  14.236   1.563  13.958
11312SOL    HW135833  14.162   1.518  13.918
11312SOL    HW235834  14.309   1.549  13.898
11313SOL     OW35835   3.686   6.567   1.308
11313SOL    HW135836   3.764   6.550   1.361
11313SOL    HW235837   3.701   6.654   1.271
11314SOL     OW35838   6.669  13.322  10.643
11314SOL    HW135839   6.731  13.365  10.583
11314SOL    HW235840   6.685  13.365  10.727
11315SOL     OW35841  14.710   2.473   9.149
11315SOL    HW135842  14.636   2.466   9.088
11315SOL    HW235843  14.743   2.562   9.135
11316SOL     OW35844  12.417   7.323   1.123
11316SOL    HW135845  12.449   7.338   1.212
11316SOL    HW235846  12.433   7.230   1.107
11317SOL     OW35847   2.920   4.837   4.364
11317SOL    HW135848   2.838   4.856   4.411
11317SOL    HW235849   2.917   4.743   4.347
11318SOL     OW35850   5.049  12.038   0.017
11318SOL    HW135851   5.085  12.035   0.105
11318SOL    HW235852   5.106  11.982  14.852
11319SOL     OW35853  11.079   7.720   5.636
11319SOL    HW135854  11.160   7.769   5.654
11319SOL    HW235855  11.021   7.785   5.596
11320SOL     OW35856   4.675   0.595  13.386
11320SOL    HW135857   4.763   0.559  13.377
11320SOL    HW235858   4.645   0.565  13.471
11321SOL     OW35859   3.835   1.722   7.764
11321SOL    HW135860   3.898   1.785   7.799
11321SOL    HW235861   3.865   1.706   7.675
11322SOL     OW35862   3.972   8.799   2.275
11322SOL    HW135863   3.914   8.784   2.350
11322SOL    HW235864   3.943   8.736   2.209
11323SOL     OW35865   0.598   6.374   0.937
11323SOL    HW135866   0.503   6.386   0.948
11323SOL    HW235867   0.612   6.282   0.959
11324SOL     OW35868  10.444  12.060  10.343
11324SOL    HW135869  10.359  12.073  10.385
11324SOL    HW235870  10.450  11.966  10.329
11325SOL     OW35871  13.963   1.466   9.112
11325SOL    HW135872  13.982   1.450   9.204
11325SOL    HW235873  14.043   1.504   9.077
11326SOL     OW35874  10.351   9.321   0.786
11326SOL    HW135875  10.430   9.268   0.778
11326SOL    HW235876  10.331   9.349   0.697
11327SOL     OW35877   6.265  10.066   1.464
11327SOL    HW135878   6.205  10.059   1.390
11327SOL    HW235879   6.209  10.088   1.539
11328SOL     OW35880   0.320   8.606  13.715
11328SOL    HW135881   0.394   8.546  13.708
11328SOL    HW235882   0.304   8.615  13.809
11329SOL     OW35883   4.372  14.479   0.208
11329SOL    HW135884   4.359  14.472   0.113
11329SOL    HW235885   4.352  14.391   0.241
11330SOL     OW35886   4.556   8.541   4.414
11330SOL    HW135887   4.492   8.523   4.344
11330SOL    HW235888   4.532   8.480   4.484
11331SOL     OW35889   3.373   3.747  14.251
11331SOL    HW135890   3.306   3.780  14.191
11331SOL    HW235891   3.423   3.684  14.199
11332SOL     OW35892  12.628  10.038   9.398
11332SOL    HW135893  12.583  10.026   9.314
11332SOL    HW235894  12.557  10.050   9.461
11333SOL     OW35895   3.170   7.425   2.638
11333SOL    HW135896   3.227   7.371   2.693
11333SOL    HW235897   3.134   7.491   2.698
11334SOL     OW35898   5.040  10.211  13.339
11334SOL    HW135899   5.032  10.302  13.311
11334SOL    HW235900   5.005  10.210  13.428
11335SOL     OW35901   2.454   3.359  13.387
11335SOL    HW135902   2.547   3.336  13.386
11335SOL    HW235903   2.436   3.379  13.479
11336SOL     OW35904   2.550   9.094   2.928
11336SOL    HW135905   2.629   9.047   2.955
11336SOL    HW235906   2.512   9.040   2.858
11337SOL     OW35907   8.446   8.067  13.510
11337SOL    HW135908   8.377   8.090  13.448
11337SOL    HW235909   8.420   7.982  13.545
11338SOL     OW35910   9.705   3.297   2.517
11338SOL    HW135911   9.781   3.354   2.522
11338SOL    HW235912   9.633   3.349   2.551
11339SOL     OW35913   7.530   3.892   3.737
11339SOL    HW135914   7.564   3.908   3.649
11339SOL    HW235915   7.608   3.882   3.791
11340SOL     OW35916   5.303   8.977   1.782
11340SOL    HW135917   5.373   9.000   1.721
11340SOL    HW235918   5.296   9.053   1.840
11341SOL     OW35919   3.600  10.759  12.623
11341SOL    HW135920   3.545  10.705  12.679
11341SOL    HW235921   3.612  10.707  12.543
11342SOL     OW35922   6.737   6.227   7.037
11342SOL    HW135923   6.703   6.137   7.042
11342SOL    HW235924   6.672   6.279   7.083
11343SOL     OW35925   5.006   7.061   7.238
11343SOL    HW135926   4.933   7.009   7.205
11343SOL    HW235927   4.998   7.057   7.333
11344SOL     OW35928   3.639   5.554   9.195
11344SOL    HW135929   3.578   5.608   9.144
11344SOL    HW235930   3.600   5.550   9.283
11345SOL     OW35931  13.660   4.616  10.959
11345SOL    HW135932  13.602   4.674  10.910
11345SOL    HW235933  13.633   4.528  10.932
11346SOL     OW35934  12.154   2.436   9.106
11346SOL    HW135935  12.083   2.437   9.170
11346SOL    HW235936  12.115   2.474   9.026
11347SOL     OW35937   2.143  12.208   4.457
11347SOL    HW135938   2.176  12.240   4.373
11347SOL    HW235939   2.220  12.176   4.503
11348SOL     OW35940  11.794   6.488   0.805
11348SOL    HW135941  11.734   6.562   0.814
11348SOL    HW235942  11.868   6.511   0.862
11349SOL     OW35943   0.654  14.655  14.318
11349SOL    HW135944   0.620  14.565  14.308
11349SOL    HW235945   0.746  14.648  14.292
11350SOL     OW35946   3.240   3.236   5.905
11350SOL    HW135947   3.284   3.233   5.820
11350SOL    HW235948   3.299   3.189   5.964
11351SOL     OW35949   7.699   0.209   2.656
11351SOL    HW135950   7.626   0.227   2.597
11351SOL    HW235951   7.765   0.168   2.601
11352SOL     OW35952   9.781   0.187  12.741
11352SOL    HW135953   9.851   0.159  12.800
11352SOL    HW235954   9.711   0.216  12.800
11353SOL     OW35955   8.038   0.579   5.294
11353SOL    HW135956   8.031   0.638   5.369
11353SOL    HW235957   7.988   0.502   5.319
11354SOL     OW35958  10.125  14.626  12.497
11354SOL    HW135959  10.151  14.654  12.585
11354SOL    HW235960  10.126  14.706  12.445
11355SOL     OW35961   9.900   5.020   7.267
11355SOL    HW135962   9.910   5.098   7.212
11355SOL    HW235963   9.965   5.031   7.336
11356SOL     OW35964   6.619   8.865   9.057
11356SOL    HW135965   6.602   8.876   8.964
11356SOL    HW235966   6.709   8.833   9.062
11357SOL     OW35967  12.103   9.145  12.601
11357SOL    HW135968  12.031   9.188  12.646
11357SOL    HW235969  12.147   9.094  12.669
11358SOL     OW35970   9.630   2.038   1.928
11358SOL    HW135971   9.705   1.980   1.916
11358SOL    HW235972   9.555   1.989   1.895
11359SOL     OW35973   2.928  13.617  13.055
11359SOL    HW135974   2.953  13.697  13.010
11359SOL    HW235975   2.874  13.570  12.992
11360SOL     OW35976  10.405   6.048   4.244
11360SOL    HW135977  10.448   6.122   4.287
11360SOL    HW235978  10.416   5.975   4.305
11361SOL     OW35979  12.095   4.856   4.510
11361SOL    HW135980  12.017   4.891   4.466
11361SOL    HW235981  12.061   4.789   4.569
11362SOL     OW35982  10.033   5.895   2.924
11362SOL    HW135983  10.046   5.917   3.017
11362SOL    HW235984   9.938   5.900   2.912
11363SOL     OW35985  10.155  11.613   6.162
11363SOL    HW135986  10.088  11.669   6.203
11363SOL    HW235987  10.229  11.672   6.147
11364SOL     OW35988  14.384  11.491  14.167
11364SOL    HW135989  14.344  11.543  14.097
11364SOL    HW235990  14.463  11.454  14.128
11365SOL     OW35991   7.924  11.679   1.225
11365SOL    HW135992   7.919  11.678   1.129
11365SOL    HW235993   7.871  11.754   1.251
11366SOL     OW35994   2.693   4.929   2.026
11366SOL    HW135995   2.688   4.861   2.094
11366SOL    HW235996   2.697   5.011   2.075
11367SOL     OW35997  11.690  10.968  10.852
11367SOL    HW135998  11.773  10.991  10.810
11367SOL    HW235999  11.667  10.883  10.815
11368SOL     OW36000  11.379   7.786   3.949
11368SOL    HW136001  11.301   7.782   3.893
11368SOL    HW236002  11.351   7.743   4.030
11369SOL     OW36003   4.639   3.247   7.484
11369SOL    HW136004   4.553   3.264   7.446
11369SOL    HW236005   4.631   3.160   7.522
11370SOL     OW36006   0.403   0.929  13.686
11370SOL    HW136007   0.484   0.879  13.685
11370SOL    HW236008   0.380   0.940  13.594
11371SOL     OW36009   5.127   2.395  10.247
11371SOL    HW136010   5.121   2.317  10.193
11371SOL    HW236011   5.220   2.405  10.266
11372SOL     OW36012   0.392   7.953   1.124
11372SOL    HW136013   0.373   7.863   1.095
11372SOL    HW236014   0.464   7.981   1.067
11373SOL     OW36015   1.677  11.663   8.460
11373SOL    HW136016   1.601  11.615   8.493
11373SOL    HW236017   1.639  11.737   8.412
11374SOL     OW36018  14.644  11.850  14.666
11374SOL    HW136019  14.616  11.817  14.581
11374SOL    HW236020  14.568  11.898  14.699
11375SOL     OW36021  14.335   7.343   7.926
11375SOL    HW136022  14.354   7.435   7.948
11375SOL    HW236023  14.242   7.343   7.904
11376SOL     OW36024  10.989   7.223   0.004
11376SOL    HW136025  11.011   7.246   0.094
11376SOL    HW236026  10.894   7.207   0.007
11377SOL     OW36027   4.135   0.625   1.160
11377SOL    HW136028   4.109   0.620   1.252
11377SOL    HW236029   4.121   0.716   1.135
11378SOL     OW36030   7.134  12.074   4.097
11378SOL    HW136031   7.174  12.099   4.180
11378SOL    HW236032   7.089  11.992   4.116
11379SOL     OW36033   3.178   3.008   1.909
11379SOL    HW136034   3.102   2.959   1.939
11379SOL    HW236035   3.155   3.036   1.820
11380SOL     OW36036   9.162  12.703  13.292
11380SOL    HW136037   9.213  12.678  13.368
11380SOL    HW236038   9.092  12.638  13.287
11381SOL     OW36039   1.212   9.262   2.831
11381SOL    HW136040   1.253   9.342   2.864
11381SOL    HW236041   1.130   9.254   2.880
11382SOL     OW36042   1.409  11.207   0.487
11382SOL    HW136043   1.426  11.162   0.404
11382SOL    HW236044   1.451  11.152   0.553
11383SOL     OW36045  11.539  12.315   0.039
11383SOL    HW136046  11.559  12.226   0.008
11383SOL    HW236047  11.596  12.327   0.115
11384SOL     OW36048   3.873  14.562   8.169
11384SOL    HW136049   3.854  14.626   8.237
11384SOL    HW236050   3.941  14.506   8.207
11385SOL     OW36051  12.822   5.606  11.170
11385SOL    HW136052  12.742   5.565  11.137
11385SOL    HW236053  12.826   5.579  11.262
11386SOL     OW36054  13.183   4.111   5.388
11386SOL    HW136055  13.123   4.126   5.315
11386SOL    HW236056  13.140   4.043   5.440
11387SOL     OW36057   7.636   3.307  13.565
11387SOL    HW136058   7.689   3.260  13.629
11387SOL    HW236059   7.609   3.387  13.612
11388SOL     OW36060   0.559   0.569   1.476
11388SOL    HW136061   0.649   0.539   1.465
11388SOL    HW236062   0.507   0.506   1.426
11389SOL     OW36063   7.908   8.794   1.862
11389SOL    HW136064   7.951   8.841   1.934
11389SOL    HW236065   7.979   8.772   1.802
11390SOL     OW36066   3.435  10.807   8.230
11390SOL    HW136067   3.530  10.806   8.225
11390SOL    HW236068   3.416  10.836   8.319
11391SOL     OW36069  12.184   4.173   7.284
11391SOL    HW136070  12.183   4.256   7.332
11391SOL    HW236071  12.272   4.138   7.299
11392SOL     OW36072   5.527   9.939  14.619
11392SOL    HW136073   5.449   9.886  14.605
11392SOL    HW236074   5.553   9.918  14.709
11393SOL     OW36075   0.732   9.950   3.624
11393SOL    HW136076   0.786  10.003   3.683
11393SOL    HW236077   0.660  10.009   3.599
11394SOL     OW36078   2.863   1.160  10.952
11394SOL    HW136079   2.832   1.078  10.914
11394SOL    HW236080   2.789   1.191  11.004
11395SOL     OW36081  14.242  11.979   5.849
11395SOL    HW136082  14.164  11.925   5.864
11395SOL    HW236083  14.307  11.943   5.910
11396SOL     OW36084   3.112   5.640  10.667
11396SOL    HW136085   3.116   5.606  10.757
11396SOL    HW236086   3.174   5.713  10.666
11397SOL     OW36087   2.524  13.924  12.692
11397SOL    HW136088   2.566  14.010  12.690
11397SOL    HW236089   2.595  13.863  12.677
11398SOL     OW36090   1.823  13.183   6.274
11398SOL    HW136091   1.916  13.186   6.296
11398SOL    HW236092   1.779  13.225   6.348
11399SOL     OW36093   6.116   6.655  10.492
11399SOL    HW136094   6.032   6.609  10.482
11399SOL    HW236095   6.110   6.730  10.433
11400SOL     OW36096  12.139   7.008   2.984
11400SOL    HW136097  12.102   7.053   3.060
11400SOL    HW236098  12.094   6.924   2.982
11401SOL     OW36099   9.074   2.807   3.628
11401SOL    HW136100   9.164   2.818   3.597
11401SOL    HW236101   9.075   2.844   3.716
11402SOL     OW36102   3.750  14.578   8.917
11402SOL    HW136103   3.744  14.599   9.010
11402SOL    HW236104   3.752  14.663   8.873
11403SOL     OW36105   7.421   0.208   4.711
11403SOL    HW136106   7.432   0.263   4.633
11403SOL    HW236107   7.368   0.134   4.680
11404SOL     OW36108   9.737   7.122   0.018
11404SOL    HW136109   9.749   7.104  14.812
11404SOL    HW236110   9.818   7.092   0.059
11405SOL     OW36111   8.812   2.093   2.509
11405SOL    HW136112   8.861   2.108   2.429
11405SOL    HW236113   8.720   2.101   2.483
11406SOL     OW36114   5.113   6.666   1.292
11406SOL    HW136115   5.171   6.733   1.256
11406SOL    HW236116   5.117   6.680   1.387
11407SOL     OW36117  12.713  12.945   9.433
11407SOL    HW136118  12.721  12.906   9.520
11407SOL    HW236119  12.636  12.903   9.395
11408SOL     OW36120   3.822  10.831   7.741
11408SOL    HW136121   3.875  10.757   7.710
11408SOL    HW236122   3.847  10.904   7.685
11409SOL     OW36123  12.941   2.241   3.091
11409SOL    HW136124  12.976   2.214   3.176
11409SOL    HW236125  12.858   2.194   3.083
11410SOL     OW36126   9.314  13.128   7.384
11410SOL    HW136127   9.316  13.220   7.410
11410SOL    HW236128   9.245  13.089   7.438
11411SOL     OW36129   4.206   4.359   4.880
11411SOL    HW136130   4.142   4.425   4.857
11411SOL    HW236131   4.266   4.355   4.805
11412SOL     OW36132   7.911   0.569  13.014
11412SOL    HW136133   7.895   0.602  12.926
11412SOL    HW236134   8.007   0.562  13.020
11413SOL     OW36135  12.716   6.353  10.608
11413SOL    HW136136  12.710   6.263  10.640
11413SOL    HW236137  12.689   6.407  10.682
11414SOL     OW36138   7.741   7.388   8.558
11414SOL    HW136139   7.783   7.318   8.508
11414SOL    HW236140   7.649   7.364   8.562
11415SOL     OW36141   3.995  10.523  10.090
11415SOL    HW136142   3.953  10.476  10.162
11415SOL    HW236143   4.009  10.456  10.023
11416SOL     OW36144   8.391   9.910   0.732
11416SOL    HW136145   8.314   9.855   0.717
11416SOL    HW236146   8.409   9.949   0.647
11417SOL     OW36147   4.768   3.757   9.268
11417SOL    HW136148   4.786   3.692   9.336
11417SOL    HW236149   4.838   3.745   9.204
11418SOL     OW36150  11.298  14.493   1.854
11418SOL    HW136151  11.263  14.499   1.765
11418SOL    HW236152  11.258  14.414   1.890
11419SOL     OW36153   2.652   8.768   1.556
11419SOL    HW136154   2.657   8.720   1.639
11419SOL    HW236155   2.717   8.726   1.500
11420SOL     OW36156  12.525  10.765  10.890
11420SOL    HW136157  12.460  10.827  10.857
11420SOL    HW236158  12.490  10.679  10.866
11421SOL     OW36159   9.294  14.240  11.664
11421SOL    HW136160   9.269  14.276  11.749
11421SOL    HW236161   9.384  14.272  11.650
11422SOL     OW36162   9.377   9.450   1.577
11422SOL    HW136163   9.415   9.447   1.665
11422SOL    HW236164   9.292   9.406   1.586
11423SOL     OW36165  10.697   6.224  12.470
11423SOL    HW136166  10.656   6.228  12.557
11423SOL    HW236167  10.752   6.303  12.466
11424SOL     OW36168   2.565   0.936  11.695
11424SOL    HW136169   2.607   0.873  11.754
11424SOL    HW236170   2.635   0.966  11.638
11425SOL     OW36171   7.671   7.166  10.471
11425SOL    HW136172   7.636   7.080  10.446
11425SOL    HW236173   7.732   7.188  10.401
11426SOL     OW36174   7.650   1.755   3.838
11426SOL    HW136175   7.692   1.671   3.858
11426SOL    HW236176   7.592   1.771   3.912
11427SOL     OW36177   1.850  11.177   4.807
11427SOL    HW136178   1.895  11.156   4.888
11427SOL    HW236179   1.821  11.268   4.818
11428SOL     OW36180  11.858   6.861  10.265
11428SOL    HW136181  11.918   6.852  10.191
11428SOL    HW236182  11.906   6.824  10.339
11429SOL     OW36183   4.332   7.870  13.129
11429SOL    HW136184   4.277   7.939  13.090
11429SOL    HW236185   4.287   7.845  13.209
11430SOL     OW36186  11.374   8.364  13.607
11430SOL    HW136187  11.461   8.329  13.626
11430SOL    HW236188  11.322   8.287  13.585
11431SOL     OW36189   6.527   8.691   3.744
11431SOL    HW136190   6.492   8.602   3.750
11431SOL    HW236191   6.520   8.726   3.833
11432SOL     OW36192   5.871   7.339   2.801
11432SOL    HW136193   5.850   7.252   2.768
11432SOL    HW236194   5.800   7.360   2.862
11433SOL     OW36195  14.320  11.484  12.545
11433SOL    HW136196  14.354  11.549  12.482
11433SOL    HW236197  14.241  11.525  12.580
11434SOL     OW36198  11.576  14.734  13.595
11434SOL    HW136199  11.660  14.742  13.640
11434SOL    HW236200  11.511  14.743  13.665
11435SOL     OW36201  11.760   6.049  12.151
11435SOL    HW136202  11.791   5.989  12.083
11435SOL    HW236203  11.835   6.061  12.209
11436SOL     OW36204  11.074   9.601   6.730
11436SOL    HW136205  10.982   9.623   6.741
11436SOL    HW236206  11.082   9.510   6.759
11437SOL     OW36207   9.199   7.953   1.058
11437SOL    HW136208   9.266   8.018   1.077
11437SOL    HW236209   9.226   7.915   0.974
11438SOL     OW36210  11.987   0.859  13.637
11438SOL    HW136211  12.030   0.775  13.651
11438SOL    HW236212  11.894   0.838  13.629
11439SOL     OW36213   5.211  11.469   5.271
11439SOL    HW136214   5.139  11.513   5.225
11439SOL    HW236215   5.288  11.486   5.217
11440SOL     OW36216   7.539   1.232   3.048
11440SOL    HW136217   7.494   1.316   3.059
11440SOL    HW236218   7.632   1.254   3.055
11441SOL     OW36219   6.592   4.892   5.096
11441SOL    HW136220   6.629   4.806   5.117
11441SOL    HW236221   6.631   4.951   5.160
11442SOL     OW36222   5.618  13.760   5.886
11442SOL    HW136223   5.661  13.843   5.908
11442SOL    HW236224   5.684  13.694   5.906
11443SOL     OW36225   2.060   9.499   1.667
11443SOL    HW136226   2.028   9.492   1.578
11443SOL    HW236227   2.103   9.414   1.684
11444SOL     OW36228   5.791   4.485   7.891
11444SOL    HW136229   5.834   4.570   7.897
11444SOL    HW236230   5.862   4.421   7.896
11445SOL     OW36231  14.470  11.767   9.891
11445SOL    HW136232  14.406  11.759   9.962
11445SOL    HW236233  14.417  11.769   9.811
11446SOL     OW36234   8.428   9.225  12.826
11446SOL    HW136235   8.403   9.315  12.806
11446SOL    HW236236   8.491   9.202  12.757
11447SOL     OW36237   7.902   7.309   2.269
11447SOL    HW136238   7.898   7.312   2.365
11447SOL    HW236239   7.814   7.336   2.241
11448SOL     OW36240   1.603   3.561   8.658
11448SOL    HW136241   1.537   3.493   8.647
11448SOL    HW236242   1.618   3.594   8.569
11449SOL     OW36243   2.614   9.317  13.501
11449SOL    HW136244   2.702   9.292  13.472
11449SOL    HW236245   2.573   9.234  13.525
11450SOL     OW36246   9.823   7.046   9.539
11450SOL    HW136247   9.762   7.106   9.495
11450SOL    HW236248   9.850   7.093   9.617
11451SOL     OW36249   1.703   3.235  13.956
11451SOL    HW136250   1.779   3.271  13.910
11451SOL    HW236251   1.718   3.257  14.048
11452SOL     OW36252  12.381  13.576   1.152
11452SOL    HW136253  12.455  13.600   1.208
11452SOL    HW236254  12.306  13.620   1.191
11453SOL     OW36255   2.849   5.736   5.030
11453SOL    HW136256   2.869   5.701   5.117
11453SOL    HW236257   2.806   5.664   4.984
11454SOL     OW36258   1.416  11.035   6.645
11454SOL    HW136259   1.395  11.071   6.559
11454SOL    HW236260   1.494  10.982   6.630
11455SOL     OW36261  12.100  13.876  10.013
11455SOL    HW136262  12.174  13.916  10.059
11455SOL    HW236263  12.030  13.874  10.079
11456SOL     OW36264   3.706   2.217  10.001
11456SOL    HW136265   3.649   2.141   9.985
11456SOL    HW236266   3.714   2.221  10.096
11457SOL     OW36267   1.328  12.110   8.794
11457SOL    HW136268   1.280  12.185   8.830
11457SOL    HW236269   1.328  12.046   8.865
11458SOL     OW36270   8.347   5.691   9.888
11458SOL    HW136271   8.415   5.711   9.952
11458SOL    HW236272   8.312   5.776   9.863
11459SOL     OW36273   7.391   1.743   8.292
11459SOL    HW136274   7.300   1.759   8.268
11459SOL    HW236275   7.385   1.689   8.371
11460SOL     OW36276   7.549   9.910  14.291
11460SOL    HW136277   7.580   9.826  14.324
11460SOL    HW236278   7.566   9.972  14.361
11461SOL     OW36279   8.705   8.287   2.091
11461SOL    HW136280   8.637   8.344   2.054
11461SOL    HW236281   8.780   8.346   2.104
11462SOL     OW36282   9.389   4.011  10.039
11462SOL    HW136283   9.483   3.998  10.047
11462SOL    HW236284   9.366   3.973   9.954
11463SOL     OW36285  13.571  12.653   7.007
11463SOL    HW136286  13.664  12.660   7.029
11463SOL    HW236287  13.527  12.707   7.073
11464SOL     OW36288   9.860  12.011   6.508
11464SOL    HW136289   9.855  12.106   6.518
11464SOL    HW236290   9.834  11.995   6.418
11465SOL     OW36291   1.837   2.986   7.229
11465SOL    HW136292   1.882   3.045   7.290
11465SOL    HW236293   1.756   2.963   7.274
11466SOL     OW36294   5.460   5.590  12.198
11466SOL    HW136295   5.453   5.574  12.104
11466SOL    HW236296   5.426   5.679  12.210
11467SOL     OW36297   3.734   1.886   7.377
11467SOL    HW136298   3.683   1.966   7.364
11467SOL    HW236299   3.811   1.897   7.321
11468SOL     OW36300   7.661   5.392  11.725
11468SOL    HW136301   7.712   5.397  11.644
11468SOL    HW236302   7.584   5.340  11.702
11469SOL     OW36303  10.087   6.981   9.449
11469SOL    HW136304  10.005   7.030   9.452
11469SOL    HW236305  10.139   7.026   9.383
11470SOL     OW36306   4.103  13.409   7.852
11470SOL    HW136307   4.090  13.464   7.929
11470SOL    HW236308   4.179  13.447   7.808
11471SOL     OW36309   2.149   0.194  13.921
11471SOL    HW136310   2.220   0.130  13.912
11471SOL    HW236311   2.078   0.145  13.963
11472SOL     OW36312   4.741  11.564  10.868
11472SOL    HW136313   4.785  11.534  10.789
11472SOL    HW236314   4.648  11.559  10.847
11473SOL     OW36315   9.866   1.434   9.185
11473SOL    HW136316   9.913   1.400   9.109
11473SOL    HW236317   9.879   1.367   9.253
11474SOL     OW36318   2.612   5.140   1.467
11474SOL    HW136319   2.543   5.115   1.529
11474SOL    HW236320   2.691   5.144   1.520
11475SOL     OW36321  12.934  14.193   6.804
11475SOL    HW136322  12.924  14.121   6.866
11475SOL    HW236323  12.967  14.150   6.724
11476SOL     OW36324  12.310  10.815  14.821
11476SOL    HW136325  12.380  10.785  14.879
11476SOL    HW236326  12.343  10.802  14.733
11477SOL     OW36327   4.280   1.589  14.687
11477SOL    HW136328   4.342   1.634  14.629
11477SOL    HW236329   4.310   1.498  14.687
11478SOL     OW36330   1.607   9.608   0.108
11478SOL    HW136331   1.540   9.667   0.074
11478SOL    HW236332   1.563   9.560   0.177
11479SOL     OW36333   6.898   4.400   4.024
11479SOL    HW136334   6.829   4.465   4.042
11479SOL    HW236335   6.977   4.452   4.009
11480SOL     OW36336  14.692   2.008   3.579
11480SOL    HW136337  14.778   1.993   3.618
11480SOL    HW236338  14.661   2.089   3.618
11481SOL     OW36339   4.051   9.984   2.561
11481SOL    HW136340   4.117   9.925   2.526
11481SOL    HW236341   4.079   9.999   2.652
11482SOL     OW36342  11.639   0.487   9.764
11482SOL    HW136343  11.576   0.472   9.694
11482SOL    HW236344  11.725   0.478   9.722
11483SOL     OW36345   7.413   7.521   5.772
11483SOL    HW136346   7.457   7.605   5.755
11483SOL    HW236347   7.322   7.545   5.790
11484SOL     OW36348   5.184   6.582   2.482
11484SOL    HW136349   5.260   6.638   2.495
11484SOL    HW236350   5.109   6.640   2.496
11485SOL     OW36351   0.325   3.169  10.970
11485SOL    HW136352   0.350   3.088  10.925
11485SOL    HW236353   0.382   3.171  11.048
11486SOL     OW36354   3.660  10.008   9.617
11486SOL    HW136355   3.739   9.955   9.627
11486SOL    HW236356   3.610   9.964   9.549
11487SOL     OW36357  11.874   1.870  11.504
11487SOL    HW136358  11.828   1.914  11.433
11487SOL    HW236359  11.807   1.857  11.572
11488SOL     OW36360  11.570   6.104   8.628
11488SOL    HW136361  11.566   6.111   8.724
11488SOL    HW236362  11.479   6.101   8.600
11489SOL     OW36363  14.134   4.070   7.904
11489SOL    HW136364  14.206   4.066   7.966
11489SOL    HW236365  14.168   4.119   7.829
11490SOL     OW36366   4.755  10.118   9.192
11490SOL    HW136367   4.780  10.180   9.124
11490SOL    HW236368   4.690  10.164   9.244
11491SOL     OW36369   9.376   2.436   1.545
11491SOL    HW136370   9.330   2.360   1.509
11491SOL    HW236371   9.465   2.404   1.560
11492SOL     OW36372  14.174   4.049  10.950
11492SOL    HW136373  14.143   3.978  10.894
11492SOL    HW236374  14.103   4.114  10.947
11493SOL     OW36375   9.991  13.254   8.791
11493SOL    HW136376   9.937  13.245   8.869
11493SOL    HW236377   9.929  13.257   8.718
11494SOL     OW36378  10.509  10.556   4.604
11494SOL    HW136379  10.526  10.543   4.511
11494SOL    HW236380  10.513  10.651   4.616
11495SOL     OW36381  11.923  10.713  10.860
11495SOL    HW136382  11.843  10.711  10.912
11495SOL    HW236383  11.918  10.797  10.813
11496SOL     OW36384   5.029   2.580   8.497
11496SOL    HW136385   4.972   2.655   8.479
11496SOL    HW236386   4.993   2.541   8.576
11497SOL     OW36387  11.895  12.125  12.067
11497SOL    HW136388  11.980  12.166  12.052
11497SOL    HW236389  11.908  12.070  12.145
11498SOL     OW36390   5.773  14.884  11.419
11498SOL    HW136391   5.830  14.828  11.367
11498SOL    HW236392   5.809   0.085  11.409
11499SOL     OW36393  10.997   6.489   3.912
11499SOL    HW136394  11.050   6.519   3.986
11499SOL    HW236395  11.059   6.447   3.853
11500SOL     OW36396   0.599  11.405  13.675
11500SOL    HW136397   0.560  11.321  13.650
11500SOL    HW236398   0.549  11.470  13.626
11501SOL     OW36399   6.540   4.609   7.761
11501SOL    HW136400   6.531   4.514   7.758
11501SOL    HW236401   6.627   4.626   7.725
11502SOL     OW36402   1.616   6.235   5.014
11502SOL    HW136403   1.538   6.181   5.023
11502SOL    HW236404   1.629   6.245   4.920
11503SOL     OW36405  13.913  10.060   1.947
11503SOL    HW136406  13.947  10.148   1.960
11503SOL    HW236407  13.980  10.016   1.894
11504SOL     OW36408   1.955  11.398   3.805
11504SOL    HW136409   2.039  11.413   3.850
11504SOL    HW236410   1.899  11.359   3.872
11505SOL     OW36411   7.146   5.645  11.544
11505SOL    HW136412   7.120   5.599  11.465
11505SOL    HW236413   7.173   5.576  11.605
11506SOL     OW36414  11.468   4.601  12.301
11506SOL    HW136415  11.490   4.611  12.208
11506SOL    HW236416  11.382   4.558  12.301
11507SOL     OW36417   1.152   6.198  11.008
11507SOL    HW136418   1.082   6.217  11.070
11507SOL    HW236419   1.230   6.238  11.047
11508SOL     OW36420   5.076  13.581   4.379
11508SOL    HW136421   5.106  13.604   4.291
11508SOL    HW236422   4.999  13.527   4.364
11509SOL     OW36423   6.030   5.090   7.990
11509SOL    HW136424   5.961   5.101   7.925
11509SOL    HW236425   6.103   5.143   7.956
11510SOL     OW36426   3.695   0.662  14.265
11510SOL    HW136427   3.604   0.678  14.239
11510SOL    HW236428   3.705   0.711  14.347
11511SOL     OW36429   3.197  14.359  12.371
11511SOL    HW136430   3.211  14.396  12.458
11511SOL    HW236431   3.103  14.343  12.367
11512SOL     OW36432   0.916  10.680   5.611
11512SOL    HW136433   0.900  10.598   5.658
11512SOL    HW236434   1.004  10.668   5.574
11513SOL     OW36435  10.237  12.422   4.776
11513SOL    HW136436  10.158  12.473   4.757
11513SOL    HW236437  10.208  12.355   4.838
11514SOL     OW36438   1.336  11.482   5.792
11514SOL    HW136439   1.274  11.552   5.809
11514SOL    HW236440   1.339  11.431   5.873
11515SOL     OW36441   3.111  12.586   9.466
11515SOL    HW136442   3.087  12.534   9.390
11515SOL    HW236443   3.196  12.624   9.444
11516SOL     OW36444  10.114   2.601   7.260
11516SOL    HW136445  10.125   2.507   7.250
11516SOL    HW236446  10.132   2.618   7.353
11517SOL     OW36447   3.155  13.258   2.190
11517SOL    HW136448   3.243  13.255   2.227
11517SOL    HW236449   3.120  13.170   2.204
11518SOL     OW36450  12.490   6.740  10.239
11518SOL    HW136451  12.399   6.764  10.255
11518SOL    HW236452  12.539   6.821  10.252
11519SOL     OW36453  10.712  10.765  12.759
11519SOL    HW136454  10.773  10.733  12.693
11519SOL    HW236455  10.754  10.745  12.843
11520SOL     OW36456   8.331   4.724  11.251
11520SOL    HW136457   8.353   4.771  11.170
11520SOL    HW236458   8.394   4.757  11.315
11521SOL     OW36459   0.778   8.263   7.586
11521SOL    HW136460   0.819   8.208   7.653
11521SOL    HW236461   0.799   8.353   7.613
11522SOL     OW36462   2.717   6.795   3.486
11522SOL    HW136463   2.764   6.715   3.508
11522SOL    HW236464   2.697   6.835   3.571
11523SOL     OW36465   5.388   7.854  14.244
11523SOL    HW136466   5.461   7.893  14.196
11523SOL    HW236467   5.383   7.765  14.212
11524SOL     OW36468   1.141  10.349   5.671
11524SOL    HW136469   1.096  10.293   5.735
11524SOL    HW236470   1.183  10.288   5.611
11525SOL     OW36471   6.001   2.799   9.949
11525SOL    HW136472   6.074   2.852   9.980
11525SOL    HW236473   6.012   2.798   9.854
11526SOL     OW36474  10.836   5.978   1.755
11526SOL    HW136475  10.856   5.925   1.831
11526SOL    HW236476  10.792   6.056   1.790
11527SOL     OW36477  10.293  13.008   0.475
11527SOL    HW136478  10.320  13.037   0.562
11527SOL    HW236479  10.338  12.924   0.462
11528SOL     OW36480  11.204   5.701   0.060
11528SOL    HW136481  11.135   5.685   0.124
11528SOL    HW236482  11.259   5.623   0.064
11529SOL     OW36483  11.919   7.121  13.081
11529SOL    HW136484  11.890   7.212  13.079
11529SOL    HW236485  11.968   7.109  12.999
11530SOL     OW36486  12.908  11.313   6.308
11530SOL    HW136487  13.000  11.288   6.299
11530SOL    HW236488  12.874  11.256   6.376
11531SOL     OW36489   1.550   4.124  11.265
11531SOL    HW136490   1.563   4.185  11.192
11531SOL    HW236491   1.595   4.044  11.238
11532SOL     OW36492   8.192   8.928   7.115
11532SOL    HW136493   8.160   8.847   7.155
11532SOL    HW236494   8.113   8.970   7.080
11533SOL     OW36495  12.827   7.043   0.326
11533SOL    HW136496  12.781   6.993   0.394
11533SOL    HW236497  12.878   6.977   0.278
11534SOL     OW36498   2.243  14.614  12.404
11534SOL    HW136499   2.262  14.537  12.349
11534SOL    HW236500   2.147  14.616  12.409
11535SOL     OW36501   8.301   7.355   0.475
11535SOL    HW136502   8.261   7.345   0.388
11535SOL    HW236503   8.391   7.325   0.464
11536SOL     OW36504  11.117   9.368   2.172
11536SOL    HW136505  11.047   9.379   2.236
11536SOL    HW236506  11.182   9.435   2.195
11537SOL     OW36507  12.125   3.419   7.984
11537SOL    HW136508  12.205   3.411   8.036
11537SOL    HW236509  12.130   3.507   7.945
11538SOL     OW36510   1.692  11.401  14.500
11538SOL    HW136511   1.600  11.418  14.518
11538SOL    HW236512   1.701  11.306  14.506
11539SOL     OW36513  13.475   7.381   3.538
11539SOL    HW136514  13.468   7.453   3.600
11539SOL    HW236515  13.514   7.310   3.589
11540SOL     OW36516  12.265  11.095   3.604
11540SOL    HW136517  12.266  11.008   3.564
11540SOL    HW236518  12.174  11.110   3.628
11541SOL     OW36519  12.856   6.574  14.455
11541SOL    HW136520  12.918   6.552  14.385
11541SOL    HW236521  12.838   6.490  14.497
11542SOL     OW36522   1.828  12.721   3.033
11542SOL    HW136523   1.922  12.707   3.023
11542SOL    HW236524   1.814  12.719   3.128
11543SOL     OW36525   2.046   3.725  14.590
11543SOL    HW136526   2.051   3.796  14.654
11543SOL    HW236527   1.964   3.740  14.543
11544SOL     OW36528   6.101   1.597   5.574
11544SOL    HW136529   6.045   1.653   5.520
11544SOL    HW236530   6.049   1.578   5.652
11545SOL     OW36531   0.692   6.895   2.895
11545SOL    HW136532   0.764   6.945   2.856
11545SOL    HW236533   0.734   6.829   2.950
11546SOL     OW36534  14.412  10.163   9.892
11546SOL    HW136535  14.482  10.114   9.848
11546SOL    HW236536  14.332  10.134   9.848
11547SOL     OW36537   4.841   7.795   6.295
11547SOL    HW136538   4.760   7.846   6.300
11547SOL    HW236539   4.815   7.708   6.328
11548SOL     OW36540   4.985   7.601   3.459
11548SOL    HW136541   5.056   7.619   3.520
11548SOL    HW236542   5.021   7.534   3.400
11549SOL     OW36543   9.946   0.678   1.290
11549SOL    HW136544   9.910   0.761   1.256
11549SOL    HW236545   9.869   0.621   1.299
11550SOL     OW36546   7.698   3.387  13.113
11550SOL    HW136547   7.671   3.332  13.187
11550SOL    HW236548   7.793   3.374  13.107
11551SOL     OW36549   0.472   7.320  14.095
11551SOL    HW136550   0.411   7.393  14.093
11551SOL    HW236551   0.421   7.245  14.065
11552SOL     OW36552  10.104  11.652  12.630
11552SOL    HW136553  10.081  11.695  12.712
11552SOL    HW236554  10.024  11.606  12.605
11553SOL     OW36555   9.419   4.477   2.174
11553SOL    HW136556   9.394   4.568   2.191
11553SOL    HW236557   9.365   4.452   2.098
11554SOL     OW36558  13.814   0.461  13.553
11554SOL    HW136559  13.877   0.403  13.595
11554SOL    HW236560  13.835   0.456  13.460
11555SOL     OW36561   7.354   6.112   0.891
11555SOL    HW136562   7.381   6.021   0.902
11555SOL    HW236563   7.383   6.155   0.972
11556SOL     OW36564   4.718  10.780   5.100
11556SOL    HW136565   4.734  10.708   5.039
11556SOL    HW236566   4.748  10.858   5.055
11557SOL     OW36567   9.040   7.212   5.127
11557SOL    HW136568   8.993   7.224   5.209
11557SOL    HW236569   9.018   7.123   5.099
11558SOL     OW36570  13.182   9.915  14.432
11558SOL    HW136571  13.239   9.990  14.419
11558SOL    HW236572  13.111   9.927  14.369
11559SOL     OW36573  13.973  14.537  11.175
11559SOL    HW136574  13.966  14.509  11.266
11559SOL    HW236575  13.904  14.602  11.164
11560SOL     OW36576   2.117   2.431   7.862
11560SOL    HW136577   2.031   2.459   7.832
11560SOL    HW236578   2.122   2.458   7.954
11561SOL     OW36579   5.053   2.068   1.553
11561SOL    HW136580   4.984   2.112   1.604
11561SOL    HW236581   5.071   1.987   1.601
11562SOL     OW36582  13.651   0.446  11.183
11562SOL    HW136583  13.652   0.386  11.257
11562SOL    HW236584  13.563   0.437  11.146
11563SOL     OW36585  10.618  14.049   4.870
11563SOL    HW136586  10.523  14.050   4.860
11563SOL    HW236587  10.633  14.073   4.961
11564SOL     OW36588   6.151   3.820  14.584
11564SOL    HW136589   6.087   3.749  14.595
11564SOL    HW236590   6.100   3.894  14.553
11565SOL     OW36591  13.971   9.622   1.288
11565SOL    HW136592  13.892   9.617   1.341
11565SOL    HW236593  14.043   9.616   1.351
11566SOL     OW36594  13.855  14.315   6.664
11566SOL    HW136595  13.835  14.399   6.704
11566SOL    HW236596  13.794  14.254   6.703
11567SOL     OW36597   7.126  12.974   2.431
11567SOL    HW136598   7.138  12.880   2.444
11567SOL    HW236599   7.126  12.984   2.335
11568SOL     OW36600   7.381   8.227  11.942
11568SOL    HW136601   7.439   8.157  11.972
11568SOL    HW236602   7.438   8.302  11.928
11569SOL     OW36603   4.456   2.907   5.754
11569SOL    HW136604   4.426   2.875   5.669
11569SOL    HW236605   4.388   2.967   5.783
11570SOL     OW36606   6.488   4.781  11.195
11570SOL    HW136607   6.432   4.851  11.161
11570SOL    HW236608   6.501   4.722  11.120
11571SOL     OW36609   1.067   2.701   3.390
11571SOL    HW136610   1.067   2.791   3.423
11571SOL    HW236611   0.990   2.697   3.333
11572SOL     OW36612   4.489   8.648   1.875
11572SOL    HW136613   4.562   8.605   1.919
11572SOL    HW236614   4.430   8.577   1.850
11573SOL     OW36615  13.438   2.026   0.158
11573SOL    HW136616  13.353   2.021   0.114
11573SOL    HW236617  13.489   2.088   0.106
11574SOL     OW36618  14.288   3.353   3.114
11574SOL    HW136619  14.363   3.368   3.055
11574SOL    HW236620  14.273   3.259   3.109
11575SOL     OW36621   8.053   4.251   8.639
11575SOL    HW136622   8.121   4.184   8.645
11575SOL    HW236623   8.002   4.227   8.561
11576SOL     OW36624  14.538   8.439  11.115
11576SOL    HW136625  14.506   8.349  11.109
11576SOL    HW236626  14.630   8.433  11.086
11577SOL     OW36627   1.058   7.446   5.082
11577SOL    HW136628   1.133   7.407   5.127
11577SOL    HW236629   1.085   7.536   5.064
11578SOL     OW36630   0.254   4.322   6.245
11578SOL    HW136631   0.312   4.269   6.191
11578SOL    HW236632   0.298   4.328   6.330
11579SOL     OW36633   7.315   5.093  13.035
11579SOL    HW136634   7.234   5.065  12.993
11579SOL    HW236635   7.380   5.028  13.008
11580SOL     OW36636   3.495   2.783   1.606
11580SOL    HW136637   3.517   2.746   1.520
11580SOL    HW236638   3.545   2.864   1.611
11581SOL     OW36639  10.493   6.416   5.430
11581SOL    HW136640  10.525   6.387   5.345
11581SOL    HW236641  10.553   6.377   5.494
11582SOL     OW36642   5.025  11.793   4.288
11582SOL    HW136643   4.940  11.754   4.266
11582SOL    HW236644   5.089  11.737   4.243
11583SOL     OW36645   0.459  13.393  11.452
11583SOL    HW136646   0.382  13.399  11.509
11583SOL    HW236647   0.424  13.362  11.368
11584SOL     OW36648   2.017   8.437  13.502
11584SOL    HW136649   1.956   8.451  13.575
11584SOL    HW236650   2.049   8.348  13.515
11585SOL     OW36651   0.597   2.295   2.510
11585SOL    HW136652   0.573   2.220   2.457
11585SOL    HW236653   0.531   2.361   2.489
11586SOL     OW36654   6.945   8.494  10.527
11586SOL    HW136655   6.999   8.423  10.493
11586SOL    HW236656   7.007   8.566  10.542
11587SOL     OW36657   6.533   5.099   7.472
11587SOL    HW136658   6.485   5.157   7.412
11587SOL    HW236659   6.590   5.157   7.522
11588SOL     OW36660   7.059   8.844  12.707
11588SOL    HW136661   7.108   8.880  12.781
11588SOL    HW236662   7.093   8.755  12.697
11589SOL     OW36663   5.509   4.702  12.611
11589SOL    HW136664   5.486   4.705  12.518
11589SOL    HW236665   5.489   4.789  12.644
11590SOL     OW36666   2.859   6.507   2.981
11590SOL    HW136667   2.812   6.580   2.941
11590SOL    HW236668   2.845   6.433   2.921
11591SOL     OW36669   4.250  13.763  11.934
11591SOL    HW136670   4.159  13.733  11.939
11591SOL    HW236671   4.302  13.684  11.949
11592SOL     OW36672   2.347  14.064   0.786
11592SOL    HW136673   2.336  14.106   0.872
11592SOL    HW236674   2.384  14.132   0.731
11593SOL     OW36675   4.626  12.170  10.837
11593SOL    HW136676   4.719  12.167  10.815
11593SOL    HW236677   4.581  12.161  10.753
11594SOL     OW36678   5.452   9.159   9.913
11594SOL    HW136679   5.375   9.172   9.968
11594SOL    HW236680   5.518   9.218   9.951
11595SOL     OW36681  14.182   7.537   8.752
11595SOL    HW136682  14.121   7.586   8.809
11595SOL    HW236683  14.267   7.576   8.769
11596SOL     OW36684   7.204   5.072   5.003
11596SOL    HW136685   7.274   5.035   5.057
11596SOL    HW236686   7.241   5.153   4.968
11597SOL     OW36687   8.100   4.600   4.474
11597SOL    HW136688   8.115   4.611   4.568
11597SOL    HW236689   8.106   4.688   4.438
11598SOL     OW36690  12.382  11.333   5.167
11598SOL    HW136691  12.406  11.420   5.201
11598SOL    HW236692  12.395  11.274   5.241
11599SOL     OW36693  10.754   8.655   5.695
11599SOL    HW136694  10.806   8.625   5.769
11599SOL    HW236695  10.818   8.689   5.632
11600SOL     OW36696   4.096   1.229  12.647
11600SOL    HW136697   4.107   1.226  12.742
11600SOL    HW236698   4.151   1.158  12.614
11601SOL     OW36699   5.491   1.574   4.988
11601SOL    HW136700   5.418   1.588   4.928
11601SOL    HW236701   5.473   1.489   5.028
11602SOL     OW36702   1.786   9.311  13.967
11602SOL    HW136703   1.858   9.359  13.927
11602SOL    HW236704   1.730   9.379  14.005
11603SOL     OW36705   0.195  14.626  11.087
11603SOL    HW136706   0.130  14.638  11.156
11603SOL    HW236707   0.184  14.702  11.030
11604SOL     OW36708   6.186   4.007   7.533
11604SOL    HW136709   6.279   3.985   7.532
11604SOL    HW236710   6.142   3.923   7.547
11605SOL     OW36711  10.007   8.193   0.903
11605SOL    HW136712   9.914   8.205   0.885
11605SOL    HW236713  10.010   8.135   0.979
11606SOL     OW36714   3.590   0.083   2.434
11606SOL    HW136715   3.584   0.041   2.348
11606SOL    HW236716   3.551   0.169   2.422
11607SOL     OW36717   2.089  10.555   1.669
11607SOL    HW136718   1.999  10.534   1.692
11607SOL    HW236719   2.085  10.590   1.580
11608SOL     OW36720   5.854  10.717   4.287
11608SOL    HW136721   5.927  10.777   4.274
11608SOL    HW236722   5.829  10.728   4.379
11609SOL     OW36723   0.319   6.530   2.530
11609SOL    HW136724   0.358   6.613   2.504
11609SOL    HW236725   0.392   6.478   2.564
11610SOL     OW36726  13.724   1.632   2.322
11610SOL    HW136727  13.719   1.715   2.368
11610SOL    HW236728  13.656   1.638   2.255
11611SOL     OW36729   7.784   8.754  11.131
11611SOL    HW136730   7.839   8.694  11.181
11611SOL    HW236731   7.847   8.810  11.085
11612SOL     OW36732   6.426  10.080   2.355
11612SOL    HW136733   6.495  10.014   2.351
11612SOL    HW236734   6.451  10.136   2.428
11613SOL     OW36735   7.497  13.869   5.269
11613SOL    HW136736   7.446  13.790   5.285
11613SOL    HW236737   7.588  13.841   5.283
11614SOL     OW36738   3.380   2.611  14.776
11614SOL    HW136739   3.447   2.637  14.712
11614SOL    HW236740   3.342   2.694  14.805
11615SOL     OW36741  11.408   9.731   0.959
11615SOL    HW136742  11.363   9.768   0.883
11615SOL    HW236743  11.406   9.637   0.944
11616SOL     OW36744   8.026   3.778   9.527
11616SOL    HW136745   7.936   3.746   9.531
11616SOL    HW236746   8.018   3.873   9.538
11617SOL     OW36747   7.883   9.961   7.416
11617SOL    HW136748   7.937   9.901   7.467
11617SOL    HW236749   7.805   9.975   7.470
11618SOL     OW36750   3.423  10.625   7.574
11618SOL    HW136751   3.375  10.666   7.646
11618SOL    HW236752   3.403  10.532   7.582
11619SOL     OW36753   6.378   9.300   6.996
11619SOL    HW136754   6.312   9.280   7.063
11619SOL    HW236755   6.460   9.271   7.034
11620SOL     OW36756   4.474  14.051  10.255
11620SOL    HW136757   4.405  14.117  10.250
11620SOL    HW236758   4.426  13.968  10.255
11621SOL     OW36759   4.410   1.930  12.126
11621SOL    HW136760   4.468   1.913  12.200
11621SOL    HW236761   4.405   1.846  12.079
11622SOL     OW36762  12.828   6.567   2.544
11622SOL    HW136763  12.861   6.556   2.633
11622SOL    HW236764  12.741   6.605   2.554
11623SOL     OW36765   3.717   2.457   8.781
11623SOL    HW136766   3.696   2.547   8.803
11623SOL    HW236767   3.652   2.432   8.716
11624SOL     OW36768  10.771   0.717   4.193
11624SOL    HW136769  10.850   0.770   4.193
11624SOL    HW236770  10.801   0.628   4.211
11625SOL     OW36771   6.052   7.566   4.065
11625SOL    HW136772   5.998   7.594   4.139
11625SOL    HW236773   6.110   7.640   4.048
11626SOL     OW36774   7.762  11.149  14.115
11626SOL    HW136775   7.721  11.152  14.202
11626SOL    HW236776   7.722  11.074  14.072
11627SOL     OW36777   2.762  14.140   7.108
11627SOL    HW136778   2.818  14.111   7.180
11627SOL    HW236779   2.805  14.219   7.075
11628SOL     OW36780   1.779   7.614   9.033
11628SOL    HW136781   1.870   7.607   9.004
11628SOL    HW236782   1.774   7.556   9.109
11629SOL     OW36783   7.136   3.243   4.634
11629SOL    HW136784   7.182   3.164   4.607
11629SOL    HW236785   7.202   3.297   4.677
11630SOL     OW36786   1.261   1.317   9.855
11630SOL    HW136787   1.329   1.325   9.788
11630SOL    HW236788   1.236   1.406   9.876
11631SOL     OW36789   0.609  11.343   9.152
11631SOL    HW136790   0.630  11.431   9.122
11631SOL    HW236791   0.633  11.286   9.078
11632SOL     OW36792  11.063   4.348   5.647
11632SOL    HW136793  11.133   4.398   5.688
11632SOL    HW236794  11.008   4.318   5.719
11633SOL     OW36795   0.171   0.472  14.863
11633SOL    HW136796   0.089   0.449  14.819
11633SOL    HW236797   0.235   0.410  14.828
11634SOL     OW36798   9.034  14.630  13.690
11634SOL    HW136799   8.982  14.689  13.635
11634SOL    HW236800   8.971  14.567  13.724
11635SOL     OW36801  10.607   3.993  12.455
11635SOL    HW136802  10.637   4.059  12.392
11635SOL    HW236803  10.686   3.947  12.482
11636SOL     OW36804   1.254   8.716   1.054
11636SOL    HW136805   1.254   8.656   0.979
11636SOL    HW236806   1.347   8.731   1.073
11637SOL     OW36807  11.135   8.770  12.763
11637SOL    HW136808  11.064   8.786  12.701
11637SOL    HW236809  11.165   8.681  12.744
11638SOL     OW36810   0.421   0.296  13.123
11638SOL    HW136811   0.492   0.350  13.160
11638SOL    HW236812   0.442   0.290  13.030
11639SOL     OW36813   0.620   2.235   9.348
11639SOL    HW136814   0.678   2.203   9.418
11639SOL    HW236815   0.561   2.161   9.331
11640SOL     OW36816   8.674   3.985   5.700
11640SOL    HW136817   8.661   3.890   5.691
11640SOL    HW236818   8.760   3.994   5.742
11641SOL     OW36819   3.217  12.247   1.320
11641SOL    HW136820   3.288  12.208   1.269
11641SOL    HW236821   3.188  12.322   1.268
11642SOL     OW36822  11.918   2.702  10.813
11642SOL    HW136823  11.996   2.735  10.769
11642SOL    HW236824  11.945   2.688  10.903
11643SOL     OW36825   9.801   3.793   2.868
11643SOL    HW136826   9.806   3.842   2.786
11643SOL    HW236827   9.710   3.762   2.872
11644SOL     OW36828  11.189   1.184   8.703
11644SOL    HW136829  11.180   1.241   8.779
11644SOL    HW236830  11.189   1.244   8.628
11645SOL     OW36831  12.318   4.698   2.417
11645SOL    HW136832  12.409   4.677   2.394
11645SOL    HW236833  12.277   4.614   2.434
11646SOL     OW36834  11.388   9.366   0.315
11646SOL    HW136835  11.479   9.380   0.289
11646SOL    HW236836  11.377   9.419   0.394
11647SOL     OW36837   7.135   8.300   3.077
11647SOL    HW136838   7.112   8.229   3.017
11647SOL    HW236839   7.096   8.378   3.039
11648SOL     OW36840   6.507   7.031   6.631
11648SOL    HW136841   6.602   7.027   6.639
11648SOL    HW236842   6.481   6.941   6.610
11649SOL     OW36843  13.237  14.797   8.207
11649SOL    HW136844  13.184  14.729   8.250
11649SOL    HW236845  13.200  14.880   8.239
11650SOL     OW36846  11.153  11.265  11.644
11650SOL    HW136847  11.099  11.309  11.578
11650SOL    HW236848  11.239  11.306  11.637
11651SOL     OW36849   5.267   9.890   9.611
11651SOL    HW136850   5.220   9.872   9.692
11651SOL    HW236851   5.229   9.971   9.578
11652SOL     OW36852   8.984  10.100   9.523
11652SOL    HW136853   9.049  10.129   9.586
11652SOL    HW236854   9.025  10.025   9.479
11653SOL     OW36855   4.565   1.221   1.359
11653SOL    HW136856   4.477   1.219   1.395
11653SOL    HW236857   4.612   1.152   1.406
11654SOL     OW36858   7.279   1.212   1.273
11654SOL    HW136859   7.184   1.201   1.270
11654SOL    HW236860   7.310   1.135   1.322
11655SOL     OW36861   7.811  10.491   1.943
11655SOL    HW136862   7.875  10.442   1.892
11655SOL    HW236863   7.844  10.486   2.033
11656SOL     OW36864   2.274   4.234   2.923
11656SOL    HW136865   2.178   4.242   2.921
11656SOL    HW236866   2.294   4.209   3.013
11657SOL     OW36867  11.720   7.313   2.585
11657SOL    HW136868  11.704   7.335   2.677
11657SOL    HW236869  11.810   7.341   2.569
11658SOL     OW36870   2.039   8.522   4.250
11658SOL    HW136871   2.074   8.597   4.201
11658SOL    HW236872   2.105   8.504   4.316
11659SOL     OW36873   5.609  10.711   7.541
11659SOL    HW136874   5.617  10.801   7.507
11659SOL    HW236875   5.692  10.695   7.586
11660SOL     OW36876   7.249   4.683  14.811
11660SOL    HW136877   7.204   4.608  14.849
11660SOL    HW236878   7.201   4.759  14.844
11661SOL     OW36879  13.131   2.223  14.278
11661SOL    HW136880  13.060   2.160  14.266
11661SOL    HW236881  13.102   2.302  14.233
11662SOL     OW36882   6.542  12.380   1.020
11662SOL    HW136883   6.579  12.303   0.977
11662SOL    HW236884   6.615  12.417   1.070
11663SOL     OW36885   3.898   9.208   3.029
11663SOL    HW136886   3.947   9.126   3.022
11663SOL    HW236887   3.959   9.275   2.997
11664SOL     OW36888   5.872   6.981   4.461
11664SOL    HW136889   5.848   7.049   4.524
11664SOL    HW236890   5.952   7.013   4.420
11665SOL     OW36891   4.267  14.588   3.009
11665SOL    HW136892   4.327  14.631   3.070
11665SOL    HW236893   4.290  14.625   2.923
11666SOL     OW36894   2.035   7.505   6.796
11666SOL    HW136895   2.011   7.500   6.888
11666SOL    HW236896   2.122   7.544   6.796
11667SOL     OW36897  13.923   5.795  13.663
11667SOL    HW136898  13.991   5.746  13.616
11667SOL    HW236899  13.955   5.885  13.663
11668SOL     OW36900  12.767   7.257   3.488
11668SOL    HW136901  12.856   7.225   3.501
11668SOL    HW236902  12.722   7.184   3.446
11669SOL     OW36903  10.962   6.942   5.010
11669SOL    HW136904  11.034   7.004   5.022
11669SOL    HW236905  10.941   6.948   4.917
11670SOL     OW36906  11.160   2.065   6.444
11670SOL    HW136907  11.181   1.999   6.510
11670SOL    HW236908  11.230   2.059   6.379
11671SOL     OW36909   5.267   6.820   2.228
11671SOL    HW136910   5.342   6.879   2.220
11671SOL    HW236911   5.302   6.743   2.272
11672SOL     OW36912  10.437  14.708   9.877
11672SOL    HW136913  10.421  14.625   9.922
11672SOL    HW236914  10.527  14.730   9.899
11673SOL     OW36915   4.093   7.411   3.526
11673SOL    HW136916   4.139   7.428   3.608
11673SOL    HW236917   4.000   7.418   3.548
11674SOL     OW36918   4.132  12.590   8.349
11674SOL    HW136919   4.064  12.651   8.379
11674SOL    HW236920   4.209  12.613   8.402
11675SOL     OW36921   2.731   6.109   6.504
11675SOL    HW136922   2.690   6.023   6.501
11675SOL    HW236923   2.759   6.126   6.414
11676SOL     OW36924   9.493  14.737   8.930
11676SOL    HW136925   9.547  14.690   8.993
11676SOL    HW236926   9.453  14.808   8.980
11677SOL     OW36927  13.531   7.703   2.138
11677SOL    HW136928  13.473   7.631   2.113
11677SOL    HW236929  13.559   7.742   2.055
11678SOL     OW36930   4.782   5.976  12.171
11678SOL    HW136931   4.723   6.043  12.136
11678SOL    HW236932   4.746   5.954  12.257
11679SOL     OW36933  10.775  11.825   7.790
11679SOL    HW136934  10.692  11.830   7.838
11679SOL    HW236935  10.785  11.731   7.770
11680SOL     OW36936   7.519   6.926   3.712
11680SOL    HW136937   7.438   6.975   3.726
11680SOL    HW236938   7.579   6.990   3.672
11681SOL     OW36939   2.724   6.559   8.029
11681SOL    HW136940   2.688   6.570   8.117
11681SOL    HW236941   2.687   6.632   7.980
11682SOL     OW36942  11.164   6.042   1.510
11682SOL    HW136943  11.229   6.112   1.520
11682SOL    HW236944  11.175   6.011   1.420
11683SOL     OW36945   3.869   8.439   1.033
11683SOL    HW136946   3.788   8.471   0.993
11683SOL    HW236947   3.932   8.510   1.018
11684SOL     OW36948  13.611  10.184  12.946
11684SOL    HW136949  13.692  10.184  12.998
11684SOL    HW236950  13.560  10.111  12.981
11685SOL     OW36951   0.086  10.509  12.223
11685SOL    HW136952   0.172  10.469  12.236
11685SOL    HW236953   0.078  10.519  12.129
11686SOL     OW36954  10.772  10.435   4.127
11686SOL    HW136955  10.692  10.382   4.128
11686SOL    HW236956  10.833  10.386   4.073
11687SOL     OW36957   4.582   7.458  13.300
11687SOL    HW136958   4.618   7.385  13.351
11687SOL    HW236959   4.628   7.453  13.216
11688SOL     OW36960   6.962   1.053   2.210
11688SOL    HW136961   6.881   1.004   2.226
11688SOL    HW236962   7.007   1.052   2.295
11689SOL     OW36963   2.922   0.616   1.112
11689SOL    HW136964   2.896   0.529   1.083
11689SOL    HW236965   2.940   0.607   1.205
11690SOL     OW36966   0.729   0.770  10.063
11690SOL    HW136967   0.683   0.838  10.014
11690SOL    HW236968   0.662   0.706  10.085
11691SOL     OW36969   6.320   1.536   7.042
11691SOL    HW136970   6.406   1.494   7.036
11691SOL    HW236971   6.272   1.484   7.106
11692SOL     OW36972  13.663  13.095  14.177
11692SOL    HW136973  13.665  13.162  14.108
11692SOL    HW236974  13.753  13.091  14.209
11693SOL     OW36975   2.119   5.439   5.709
11693SOL    HW136976   2.092   5.348   5.700
11693SOL    HW236977   2.073   5.470   5.787
11694SOL     OW36978  10.397  10.290   7.935
11694SOL    HW136979  10.423  10.227   8.003
11694SOL    HW236980  10.389  10.237   7.856
11695SOL     OW36981  13.612   7.663   1.812
11695SOL    HW136982  13.538   7.716   1.843
11695SOL    HW236983  13.689   7.716   1.830
11696SOL     OW36984   9.204  13.098   8.447
11696SOL    HW136985   9.230  13.034   8.380
11696SOL    HW236986   9.263  13.082   8.520
11697SOL     OW36987   5.973   2.385  13.816
11697SOL    HW136988   5.966   2.385  13.721
11697SOL    HW236989   6.064   2.406  13.834
11698SOL     OW36990  11.100   1.908   8.291
11698SOL    HW136991  11.181   1.885   8.244
11698SOL    HW236992  11.058   1.973   8.236
11699SOL     OW36993  11.723   1.680  10.052
11699SOL    HW136994  11.645   1.683  10.107
11699SOL    HW236995  11.696   1.630   9.975
11700SOL     OW36996   3.795   6.412   1.731
11700SOL    HW136997   3.847   6.386   1.807
11700SOL    HW236998   3.721   6.351   1.732
11701SOL     OW36999  14.820  12.649   5.829
11701SOL    HW137000   0.012  12.693   5.798
11701SOL    HW237001  14.789  12.704   5.901
11702SOL     OW37002   6.163   9.074   8.333
11702SOL    HW137003   6.218   9.089   8.409
11702SOL    HW237004   6.136   9.162   8.305
11703SOL     OW37005   9.141   3.970   2.589
11703SOL    HW137006   9.059   3.957   2.541
11703SOL    HW237007   9.148   4.065   2.599
11704SOL     OW37008   7.098  13.037   9.964
11704SOL    HW137009   7.089  13.008   9.874
11704SOL    HW237010   7.192  13.052   9.976
11705SOL     OW37011   1.750  13.074   1.622
11705SOL    HW137012   1.738  12.991   1.576
11705SOL    HW237013   1.774  13.049   1.711
11706SOL     OW37014  12.901   3.313   4.021
11706SOL    HW137015  12.815   3.351   4.010
11706SOL    HW237016  12.920   3.322   4.115
11707SOL     OW37017   4.572   5.527   0.114
11707SOL    HW137018   4.569   5.432   0.119
11707SOL    HW237019   4.555   5.547   0.021
11708SOL     OW37020   8.080  11.213  12.384
11708SOL    HW137021   8.116  11.170  12.461
11708SOL    HW237022   8.022  11.147  12.345
11709SOL     OW37023   5.289   4.512  12.920
11709SOL    HW137024   5.329   4.463  12.991
11709SOL    HW237025   5.352   4.505  12.848
11710SOL     OW37026   4.340   5.344   9.587
11710SOL    HW137027   4.365   5.341   9.679
11710SOL    HW237028   4.252   5.381   9.587
11711SOL     OW37029  13.769   9.690   7.554
11711SOL    HW137030  13.850   9.641   7.540
11711SOL    HW237031  13.786   9.776   7.516
11712SOL     OW37032  11.059  14.828   2.112
11712SOL    HW137033  11.021   0.023   2.143
11712SOL    HW237034  10.987  14.781   2.071
11713SOL     OW37035   8.803   2.642   9.695
11713SOL    HW137036   8.817   2.670   9.786
11713SOL    HW237037   8.737   2.704   9.661
11714SOL     OW37038   1.631   5.702   6.908
11714SOL    HW137039   1.666   5.659   6.830
11714SOL    HW237040   1.667   5.791   6.904
11715SOL     OW37041   7.193  13.320   8.324
11715SOL    HW137042   7.260  13.253   8.336
11715SOL    HW237043   7.236  13.402   8.347
11716SOL     OW37044  12.995   8.326   2.046
11716SOL    HW137045  13.028   8.237   2.059
11716SOL    HW237046  13.067   8.372   2.002
11717SOL     OW37047   6.820   5.557   0.885
11717SOL    HW137048   6.783   5.645   0.888
11717SOL    HW237049   6.790   5.516   0.966
11718SOL     OW37050  14.574   5.004  12.656
11718SOL    HW137051  14.648   5.065  12.661
11718SOL    HW237052  14.605   4.934  12.598
11719SOL     OW37053   7.522   2.093   9.136
11719SOL    HW137054   7.564   2.128   9.215
11719SOL    HW237055   7.568   2.010   9.120
11720SOL     OW37056   5.032   0.168   7.794
11720SOL    HW137057   5.068   0.190   7.708
11720SOL    HW237058   4.985   0.247   7.821
11721SOL     OW37059  12.685   3.885  10.057
11721SOL    HW137060  12.660   3.823   9.988
11721SOL    HW237061  12.612   3.882  10.119
11722SOL     OW37062  13.637   1.183  11.190
11722SOL    HW137063  13.624   1.179  11.285
11722SOL    HW237064  13.731   1.190  11.179
11723SOL     OW37065   4.232   9.604   7.047
11723SOL    HW137066   4.270   9.546   7.112
11723SOL    HW237067   4.163   9.552   7.006
11724SOL     OW37068  14.784   3.015   1.845
11724SOL    HW137069  14.850   2.999   1.912
11724SOL    HW237070  14.780   3.110   1.836
11725SOL     OW37071  13.466  11.324   5.187
11725SOL    HW137072  13.463  11.416   5.213
11725SOL    HW237073  13.389  11.312   5.132
11726SOL     OW37074  12.006   9.809   7.960
11726SOL    HW137075  11.944   9.871   7.999
11726SOL    HW237076  12.015   9.838   7.869
11727SOL     OW37077  14.858  14.062  10.428
11727SOL    HW137078   0.048  14.009  10.446
11727SOL    HW237079  14.835  14.099  10.514
11728SOL     OW37080   1.183   1.960   1.979
11728SOL    HW137081   1.247   1.897   2.013
11728SOL    HW237082   1.102   1.941   2.026
11729SOL     OW37083   9.812   7.302  10.660
11729SOL    HW137084   9.876   7.317  10.730
11729SOL    HW237085   9.728   7.299  10.705
11730SOL     OW37086   7.952   4.362   4.431
11730SOL    HW137087   7.982   4.360   4.340
11730SOL    HW237088   8.002   4.433   4.472
11731SOL     OW37089   6.179   7.554   9.734
11731SOL    HW137090   6.124   7.519   9.804
11731SOL    HW237091   6.215   7.635   9.770
11732SOL     OW37092  11.031   5.608   5.058
11732SOL    HW137093  11.095   5.537   5.060
11732SOL    HW237094  10.950   5.567   5.026
11733SOL     OW37095  11.156   9.643   7.385
11733SOL    HW137096  11.203   9.663   7.303
11733SOL    HW237097  11.077   9.697   7.381
11734SOL     OW37098   3.042   2.686   9.441
11734SOL    HW137099   3.053   2.602   9.487
11734SOL    HW237100   3.083   2.672   9.356
11735SOL     OW37101  14.678   0.751  14.120
11735SOL    HW137102  14.653   0.840  14.144
11735SOL    HW237103  14.762   0.737  14.165
11736SOL     OW37104   2.957  12.103  12.340
11736SOL    HW137105   3.014  12.180  12.349
11736SOL    HW237106   2.902  12.105  12.418
11737SOL     OW37107   4.150   4.554   7.307
11737SOL    HW137108   4.196   4.632   7.336
11737SOL    HW237109   4.075   4.587   7.257
11738SOL     OW37110  14.479   5.400   6.138
11738SOL    HW137111  14.572   5.380   6.129
11738SOL    HW237112  14.438   5.357   6.063
11739SOL     OW37113   3.282  12.689   4.909
11739SOL    HW137114   3.355  12.674   4.969
11739SOL    HW237115   3.271  12.606   4.864
11740SOL     OW37116  12.625  11.223   7.518
11740SOL    HW137117  12.581  11.247   7.436
11740SOL    HW237118  12.708  11.186   7.490
11741SOL     OW37119  14.064   6.542   3.241
11741SOL    HW137120  14.145   6.491   3.246
11741SOL    HW237121  14.092   6.633   3.257
11742SOL     OW37122  10.480   6.322  10.171
11742SOL    HW137123  10.498   6.364  10.256
11742SOL    HW237124  10.436   6.389  10.120
11743SOL     OW37125   8.121  13.885  11.998
11743SOL    HW137126   8.171  13.810  11.966
11743SOL    HW237127   8.031  13.853  12.007
11744SOL     OW37128   4.358   5.961   3.509
11744SOL    HW137129   4.330   6.008   3.588
11744SOL    HW237130   4.429   6.014   3.474
11745SOL     OW37131  11.540   8.998  10.382
11745SOL    HW137132  11.460   9.049  10.389
11745SOL    HW237133  11.530   8.948  10.302
11746SOL     OW37134  12.775   2.377   3.886
11746SOL    HW137135  12.710   2.434   3.925
11746SOL    HW237136  12.855   2.429   3.885
11747SOL     OW37137   3.356   2.556   2.700
11747SOL    HW137138   3.348   2.647   2.670
11747SOL    HW237139   3.425   2.519   2.645
11748SOL     OW37140   1.882   5.256   8.124
11748SOL    HW137141   1.830   5.281   8.048
11748SOL    HW237142   1.891   5.161   8.117
11749SOL     OW37143   5.862  13.044   8.318
11749SOL    HW137144   5.818  13.035   8.234
11749SOL    HW237145   5.954  13.022   8.299
11750SOL     OW37146  11.868   5.797   6.276
11750SOL    HW137147  11.867   5.728   6.342
11750SOL    HW237148  11.905   5.755   6.198
11751SOL     OW37149   0.930   1.050  14.254
11751SOL    HW137150   0.872   1.122  14.281
11751SOL    HW237151   0.947   1.067  14.161
11752SOL     OW37152   1.565  13.878   5.003
11752SOL    HW137153   1.643  13.933   5.015
11752SOL    HW237154   1.594  13.789   5.025
11753SOL     OW37155   7.083   6.497   4.732
11753SOL    HW137156   7.099   6.425   4.794
11753SOL    HW237157   7.108   6.576   4.780
11754SOL     OW37158  10.587  12.588   5.636
11754SOL    HW137159  10.557  12.529   5.705
11754SOL    HW237160  10.632  12.531   5.573
11755SOL     OW37161   1.203  11.205   9.782
11755SOL    HW137162   1.119  11.220   9.738
11755SOL    HW237163   1.259  11.276   9.753
11756SOL     OW37164   4.563   6.949   2.747
11756SOL    HW137165   4.497   6.916   2.686
11756SOL    HW237166   4.625   6.877   2.757
11757SOL     OW37167   6.284  11.986   6.310
11757SOL    HW137168   6.289  11.891   6.317
11757SOL    HW237169   6.260  12.002   6.218
11758SOL     OW37170   3.200  13.227  10.031
11758SOL    HW137171   3.145  13.252   9.957
11758SOL    HW237172   3.179  13.135  10.047
11759SOL     OW37173   5.992   9.191  11.563
11759SOL    HW137174   6.057   9.261  11.559
11759SOL    HW237175   5.940   9.202  11.484
11760SOL     OW37176   0.912  10.390   1.679
11760SOL    HW137177   0.865  10.366   1.599
11760SOL    HW237178   0.965  10.465   1.655
11761SOL     OW37179   2.206  10.622   8.977
11761SOL    HW137180   2.165  10.551   9.026
11761SOL    HW237181   2.299  10.616   9.001
11762SOL     OW37182   4.220   3.380   3.171
11762SOL    HW137183   4.168   3.384   3.251
11762SOL    HW237184   4.249   3.289   3.166
11763SOL     OW37185   5.055  13.556   1.250
11763SOL    HW137186   5.149  13.573   1.247
11763SOL    HW237187   5.027  13.561   1.158
11764SOL     OW37188   7.859  11.991  13.380
11764SOL    HW137189   7.773  11.953  13.397
11764SOL    HW237190   7.867  12.062  13.443
11765SOL     OW37191   8.231   8.758  10.678
11765SOL    HW137192   8.137   8.762  10.663
11765SOL    HW237193   8.241   8.768  10.772
11766SOL     OW37194  14.357   9.275   8.933
11766SOL    HW137195  14.308   9.267   9.014
11766SOL    HW237196  14.442   9.235   8.952
11767SOL     OW37197   3.639   1.736  14.819
11767SOL    HW137198   3.642   1.829  14.842
11767SOL    HW237199   3.557   1.726  14.769
11768SOL     OW37200   8.450   7.255  14.416
11768SOL    HW137201   8.377   7.243  14.476
11768SOL    HW237202   8.528   7.236  14.468
11769SOL     OW37203   3.983  10.545   1.557
11769SOL    HW137204   3.968  10.463   1.605
11769SOL    HW237205   4.047  10.522   1.490
11770SOL     OW37206   9.033  13.654  12.033
11770SOL    HW137207   9.125  13.628  12.041
11770SOL    HW237208   9.009  13.630  11.944
11771SOL     OW37209   9.930   8.640   6.319
11771SOL    HW137210   9.840   8.647   6.288
11771SOL    HW237211   9.953   8.548   6.305
11772SOL     OW37212  11.567   5.028   1.645
11772SOL    HW137213  11.566   5.074   1.560
11772SOL    HW237214  11.607   5.090   1.705
11773SOL     OW37215   7.547   6.134   5.536
11773SOL    HW137216   7.528   6.076   5.462
11773SOL    HW237217   7.581   6.076   5.604
11774SOL     OW37218   2.605   1.773   2.805
11774SOL    HW137219   2.672   1.714   2.841
11774SOL    HW237220   2.620   1.772   2.711
11775SOL     OW37221   2.132   7.961  10.391
11775SOL    HW137222   2.101   8.014  10.464
11775SOL    HW237223   2.085   7.878  10.401
11776SOL     OW37224   2.988   9.301   8.101
11776SOL    HW137225   2.959   9.319   8.191
11776SOL    HW237226   2.969   9.381   8.053
11777SOL     OW37227   9.709   5.022   5.666
11777SOL    HW137228   9.633   4.965   5.682
11777SOL    HW237229   9.708   5.084   5.739
11778SOL     OW37230  13.461   7.526   5.793
11778SOL    HW137231  13.529   7.559   5.734
11778SOL    HW237232  13.382   7.523   5.739
11779SOL     OW37233   2.468  13.269   7.950
11779SOL    HW137234   2.531  13.204   7.982
11779SOL    HW237235   2.522  13.336   7.908
11780SOL     OW37236  12.728   6.915   2.476
11780SOL    HW137237  12.660   6.964   2.430
11780SOL    HW237238  12.690   6.828   2.490
11781SOL     OW37239  14.059  14.096   5.263
11781SOL    HW137240  14.072  14.002   5.274
11781SOL    HW237241  14.003  14.121   5.336
11782SOL     OW37242  11.294   8.320   8.284
11782SOL    HW137243  11.212   8.281   8.314
11782SOL    HW237244  11.362   8.272   8.332
11783SOL     OW37245   2.987   8.378   9.567
11783SOL    HW137246   3.000   8.284   9.581
11783SOL    HW237247   2.962   8.412   9.652
11784SOL     OW37248  10.547  12.191   4.434
11784SOL    HW137249  10.463  12.153   4.408
11784SOL    HW237250  10.524  12.278   4.468
11785SOL     OW37251  13.850   8.317   6.067
11785SOL    HW137252  13.921   8.355   6.119
11785SOL    HW237253  13.889   8.241   6.025
11786SOL     OW37254   3.856  13.016   4.355
11786SOL    HW137255   3.877  12.945   4.416
11786SOL    HW237256   3.868  12.977   4.268
11787SOL     OW37257  12.345   0.328   9.272
11787SOL    HW137258  12.434   0.296   9.284
11787SOL    HW237259  12.294   0.250   9.250
11788SOL     OW37260   4.051   5.599   4.926
11788SOL    HW137261   4.042   5.620   4.833
11788SOL    HW237262   4.028   5.681   4.971
11789SOL     OW37263   4.403   0.355  12.914
11789SOL    HW137264   4.335   0.305  12.869
11789SOL    HW237265   4.377   0.446  12.905
11790SOL     OW37266   2.394   5.104   2.173
11790SOL    HW137267   2.365   5.151   2.250
11790SOL    HW237268   2.327   5.037   2.158
11791SOL     OW37269   0.101   3.973   6.820
11791SOL    HW137270   0.146   3.954   6.738
11791SOL    HW237271   0.071   3.887   6.851
11792SOL     OW37272   9.058  12.177   1.893
11792SOL    HW137273   9.006  12.256   1.878
11792SOL    HW237274   9.102  12.161   1.810
11793SOL     OW37275  11.700  10.867  10.364
11793SOL    HW137276  11.725  10.956  10.337
11793SOL    HW237277  11.623  10.880  10.418
11794SOL     OW37278  14.818   8.905   3.593
11794SOL    HW137279  14.861   8.911   3.678
11794SOL    HW237280  14.747   8.971   3.597
11795SOL     OW37281   5.464   8.868  10.396
11795SOL    HW137282   5.516   8.796  10.359
11795SOL    HW237283   5.490   8.872  10.488
11796SOL     OW37284  10.510  13.151   2.684
11796SOL    HW137285  10.423  13.185   2.666
11796SOL    HW237286  10.569  13.223   2.662
11797SOL     OW37287  10.098   3.133  14.068
11797SOL    HW137288  10.120   3.226  14.061
11797SOL    HW237289  10.158   3.090  14.006
11798SOL     OW37290   0.803   9.829  13.919
11798SOL    HW137291   0.844   9.884  13.986
11798SOL    HW237292   0.877   9.785  13.876
11799SOL     OW37293   7.025   4.286   5.656
11799SOL    HW137294   7.042   4.371   5.695
11799SOL    HW237295   6.960   4.303   5.587
11800SOL     OW37296  11.222   4.714   3.484
11800SOL    HW137297  11.299   4.702   3.539
11800SOL    HW237298  11.164   4.770   3.536
11801SOL     OW37299  12.359   9.344  12.830
11801SOL    HW137300  12.352   9.440  12.828
11801SOL    HW237301  12.281   9.315  12.877
11802SOL     OW37302  13.035   6.657  10.584
11802SOL    HW137303  12.944   6.627  10.576
11802SOL    HW237304  13.076   6.629  10.501
11803SOL     OW37305   6.407   4.072  11.337
11803SOL    HW137306   6.435   4.076  11.246
11803SOL    HW237307   6.464   4.005  11.377
11804SOL     OW37308   9.668   1.151   2.002
11804SOL    HW137309   9.658   1.077   2.061
11804SOL    HW237310   9.690   1.225   2.059
11805SOL     OW37311   9.452   4.609   1.536
11805SOL    HW137312   9.442   4.702   1.556
11805SOL    HW237313   9.494   4.608   1.450
11806SOL     OW37314   5.999  11.211  12.535
11806SOL    HW137315   5.989  11.304  12.554
11806SOL    HW237316   6.044  11.176  12.612
11807SOL     OW37317  13.303   8.943   2.458
11807SOL    HW137318  13.236   9.003   2.423
11807SOL    HW237319  13.253   8.877   2.505
11808SOL     OW37320  14.652   0.637  14.440
11808SOL    HW137321  14.590   0.570  14.413
11808SOL    HW237322  14.599   0.716  14.450
11809SOL     OW37323   9.540  12.517   9.362
11809SOL    HW137324   9.502  12.603   9.344
11809SOL    HW237325   9.630  12.536   9.391
11810SOL     OW37326   2.251  11.978  12.461
11810SOL    HW137327   2.178  12.038  12.445
11810SOL    HW237328   2.294  12.013  12.539
11811SOL     OW37329   5.522   7.195   3.904
11811SOL    HW137330   5.517   7.174   3.997
11811SOL    HW237331   5.437   7.233   3.883
11812SOL     OW37332   0.122   6.138   2.235
11812SOL    HW137333   0.063   6.113   2.306
11812SOL    HW237334   0.074   6.205   2.186
11813SOL     OW37335   2.992   5.405   9.259
11813SOL    HW137336   3.086   5.412   9.242
11813SOL    HW237337   2.971   5.483   9.311
11814SOL     OW37338  13.932   3.847  10.837
11814SOL    HW137339  13.841   3.848  10.865
11814SOL    HW237340  13.981   3.817  10.913
11815SOL     OW37341   9.999   9.714   4.380
11815SOL    HW137342  10.025   9.775   4.311
11815SOL    HW237343  10.032   9.754   4.460
11816SOL     OW37344   9.659  11.261   7.551
11816SOL    HW137345   9.599  11.309   7.494
11816SOL    HW237346   9.702  11.329   7.603
11817SOL     OW37347   1.154   4.991  14.625
11817SOL    HW137348   1.086   4.923  14.625
11817SOL    HW237349   1.233   4.946  14.654
11818SOL     OW37350  14.141   6.559   1.147
11818SOL    HW137351  14.122   6.568   1.240
11818SOL    HW237352  14.138   6.465   1.131
11819SOL     OW37353   4.438  10.963   7.181
11819SOL    HW137354   4.356  10.955   7.133
11819SOL    HW237355   4.426  10.907   7.258
11820SOL     OW37356   6.696  14.087  12.976
11820SOL    HW137357   6.686  14.045  13.062
11820SOL    HW237358   6.608  14.083  12.938
11821SOL     OW37359   7.143   4.143   6.149
11821SOL    HW137360   7.185   4.185   6.074
11821SOL    HW237361   7.208   4.081   6.182
11822SOL     OW37362  10.911   1.985  10.426
11822SOL    HW137363  10.858   1.928  10.369
11822SOL    HW237364  10.875   1.970  10.514
11823SOL     OW37365  14.299   0.433   5.235
11823SOL    HW137366  14.369   0.383   5.277
11823SOL    HW237367  14.305   0.520   5.273
11824SOL     OW37368  12.485   3.443  14.301
11824SOL    HW137369  12.424   3.515  14.315
11824SOL    HW237370  12.497   3.439  14.207
11825SOL     OW37371   2.412   9.311   0.861
11825SOL    HW137372   2.348   9.375   0.892
11825SOL    HW237373   2.361   9.246   0.812
11826SOL     OW37374   5.454  13.650  11.063
11826SOL    HW137375   5.505  13.730  11.062
11826SOL    HW237376   5.486  13.601  11.138
11827SOL     OW37377   0.788  12.812  10.158
11827SOL    HW137378   0.837  12.874  10.213
11827SOL    HW237379   0.814  12.833  10.069
11828SOL     OW37380  12.777   7.159   5.712
11828SOL    HW137381  12.693   7.131   5.748
11828SOL    HW237382  12.781   7.118   5.625
11829SOL     OW37383  12.522   4.767   1.348
11829SOL    HW137384  12.438   4.807   1.329
11829SOL    HW237385  12.554   4.813   1.425
11830SOL     OW37386   7.530  11.083   3.076
11830SOL    HW137387   7.581  11.159   3.104
11830SOL    HW237388   7.582  11.045   3.005
11831SOL     OW37389   0.747   2.613  10.873
11831SOL    HW137390   0.749   2.708  10.888
11831SOL    HW237391   0.777   2.602  10.783
11832SOL     OW37392  14.725   8.734  12.552
11832SOL    HW137393  14.734   8.816  12.600
11832SOL    HW237394  14.813   8.719  12.515
11833SOL     OW37395   3.778  12.337  12.148
11833SOL    HW137396   3.849  12.295  12.197
11833SOL    HW237397   3.818  12.361  12.065
11834SOL     OW37398   9.999   3.316   3.911
11834SOL    HW137399   9.990   3.356   3.824
11834SOL    HW237400  10.092   3.326   3.933
11835SOL     OW37401   6.675   0.681   9.175
11835SOL    HW137402   6.604   0.731   9.136
11835SOL    HW237403   6.638   0.595   9.192
11836SOL     OW37404  11.065  12.229   1.948
11836SOL    HW137405  11.007  12.158   1.921
11836SOL    HW237406  11.153  12.195   1.935
11837SOL     OW37407   8.548   2.960   0.685
11837SOL    HW137408   8.525   3.031   0.625
11837SOL    HW237409   8.482   2.964   0.754
11838SOL     OW37410   3.104   5.500   5.015
11838SOL    HW137411   3.161   5.574   5.036
11838SOL    HW237412   3.140   5.463   4.935
11839SOL     OW37413  10.440   4.510  11.121
11839SOL    HW137414  10.526   4.496  11.080
11839SOL    HW237415  10.390   4.432  11.096
11840SOL     OW37416   4.899   0.698   7.246
11840SOL    HW137417   4.926   0.680   7.155
11840SOL    HW237418   4.856   0.617   7.274
11841SOL     OW37419  12.959   7.138   7.391
11841SOL    HW137420  12.937   7.182   7.309
11841SOL    HW237421  12.889   7.165   7.452
11842SOL     OW37422   1.998   3.062   7.643
11842SOL    HW137423   1.986   2.968   7.656
11842SOL    HW237424   2.031   3.093   7.728
11843SOL     OW37425   5.303   0.014   4.238
11843SOL    HW137426   5.234   0.034   4.301
11843SOL    HW237427   5.364   0.087   4.246
11844SOL     OW37428   2.372  10.598   0.400
11844SOL    HW137429   2.313  10.573   0.470
11844SOL    HW237430   2.459  10.571   0.430
11845SOL     OW37431   3.457  10.923  10.294
11845SOL    HW137432   3.365  10.947  10.287
11845SOL    HW237433   3.490  10.928  10.205
11846SOL     OW37434  12.827  14.878  12.054
11846SOL    HW137435  12.780  14.831  11.985
11846SOL    HW237436  12.828   0.082  12.026
11847SOL     OW37437  12.747   9.940  13.793
11847SOL    HW137438  12.744   9.858  13.743
11847SOL    HW237439  12.675   9.933  13.855
11848SOL     OW37440   6.408   5.046   6.126
11848SOL    HW137441   6.422   5.088   6.211
11848SOL    HW237442   6.493   5.048   6.084
11849SOL     OW37443   2.396   9.931   0.171
11849SOL    HW137444   2.317   9.913   0.221
11849SOL    HW237445   2.373   9.907   0.081
11850SOL     OW37446   4.319  11.539  13.109
11850SOL    HW137447   4.247  11.500  13.060
11850SOL    HW237448   4.290  11.536  13.200
11851SOL     OW37449   5.055   8.889   3.903
11851SOL    HW137450   5.043   8.837   3.982
11851SOL    HW237451   5.137   8.935   3.917
11852SOL     OW37452   4.741   0.566   7.996
11852SOL    HW137453   4.805   0.594   8.061
11852SOL    HW237454   4.657   0.599   8.029
11853SOL     OW37455  12.763  10.579  11.238
11853SOL    HW137456  12.838  10.523  11.216
11853SOL    HW237457  12.776  10.602  11.330
11854SOL     OW37458  11.355   3.835   0.543
11854SOL    HW137459  11.409   3.908   0.513
11854SOL    HW237460  11.306   3.807   0.465
11855SOL     OW37461   9.726   5.273  14.677
11855SOL    HW137462   9.793   5.316  14.729
11855SOL    HW237463   9.698   5.340  14.614
11856SOL     OW37464   7.993   3.468   6.498
11856SOL    HW137465   7.956   3.554   6.517
11856SOL    HW237466   7.924   3.406   6.523
11857SOL     OW37467   5.975  10.481   8.551
11857SOL    HW137468   6.031  10.472   8.629
11857SOL    HW237469   5.949  10.574   8.552
11858SOL     OW37470   9.366   3.348   9.787
11858SOL    HW137471   9.435   3.364   9.722
11858SOL    HW237472   9.352   3.433   9.829
11859SOL     OW37473  12.936  12.250   5.583
11859SOL    HW137474  12.933  12.177   5.645
11859SOL    HW237475  13.012  12.301   5.609
11860SOL     OW37476  14.408  10.069   3.148
11860SOL    HW137477  14.502  10.081   3.136
11860SOL    HW237478  14.399   9.980   3.182
11861SOL     OW37479  12.482   0.105   6.287
11861SOL    HW137480  12.543   0.039   6.255
11861SOL    HW237481  12.523   0.189   6.265
11862SOL     OW37482   3.883   0.451   7.303
11862SOL    HW137483   3.871   0.545   7.313
11862SOL    HW237484   3.884   0.417   7.393
11863SOL     OW37485  10.851   5.664   0.879
11863SOL    HW137486  10.920   5.702   0.826
11863SOL    HW237487  10.809   5.739   0.921
11864SOL     OW37488   1.727  12.537   7.101
11864SOL    HW137489   1.668  12.503   7.034
11864SOL    HW237490   1.670  12.572   7.169
11865SOL     OW37491   2.770  12.164  10.406
11865SOL    HW137492   2.725  12.145  10.489
11865SOL    HW237493   2.860  12.133  10.419
11866SOL     OW37494  10.911   3.465   9.649
11866SOL    HW137495  10.991   3.515   9.633
11866SOL    HW237496  10.933   3.408   9.723
11867SOL     OW37497   6.180  10.670  12.738
11867SOL    HW137498   6.113  10.602  12.746
11867SOL    HW237499   6.208  10.686  12.828
11868SOL     OW37500  10.981  13.760   4.148
11868SOL    HW137501  10.938  13.779   4.065
11868SOL    HW237502  10.910  13.735   4.207
11869SOL     OW37503  10.466   3.987   9.423
11869SOL    HW137504  10.407   3.914   9.442
11869SOL    HW237505  10.420   4.038   9.356
11870SOL     OW37506  12.879  14.743  13.922
11870SOL    HW137507  12.967  14.717  13.950
11870SOL    HW237508  12.833  14.764  14.004
11871SOL     OW37509   0.491   4.007   7.253
11871SOL    HW137510   0.493   3.924   7.300
11871SOL    HW237511   0.535   3.990   7.170
11872SOL     OW37512   7.863   5.097   5.994
11872SOL    HW137513   7.930   5.040   6.032
11872SOL    HW237514   7.802   5.113   6.066
11873SOL     OW37515  13.699   8.070   9.197
11873SOL    HW137516  13.694   7.978   9.220
11873SOL    HW237517  13.610   8.103   9.207
11874SOL     OW37518   8.281   7.394  13.362
11874SOL    HW137519   8.318   7.311  13.334
11874SOL    HW237520   8.228   7.373  13.439
11875SOL     OW37521   7.520   1.823   4.774
11875SOL    HW137522   7.520   1.790   4.864
11875SOL    HW237523   7.610   1.855   4.761
11876SOL     OW37524  10.139   8.958   4.462
11876SOL    HW137525  10.050   8.980   4.432
11876SOL    HW237526  10.127   8.930   4.552
11877SOL     OW37527  10.347   7.083  12.453
11877SOL    HW137528  10.301   7.167  12.456
11877SOL    HW237529  10.330   7.050  12.365
11878SOL     OW37530   0.958   2.496  14.732
11878SOL    HW137531   0.925   2.463  14.649
11878SOL    HW237532   1.053   2.493  14.722
11879SOL     OW37533   0.132  11.385   1.710
11879SOL    HW137534   0.132  11.309   1.652
11879SOL    HW237535   0.155  11.459   1.654
11880SOL     OW37536   1.284   0.547   7.169
11880SOL    HW137537   1.367   0.555   7.217
11880SOL    HW237538   1.217   0.560   7.236
11881SOL     OW37539   9.305  13.930   2.745
11881SOL    HW137540   9.238  13.996   2.760
11881SOL    HW237541   9.268  13.849   2.779
11882SOL     OW37542   7.982  10.097  12.550
11882SOL    HW137543   8.074  10.070  12.552
11882SOL    HW237544   7.956  10.086  12.458
11883SOL     OW37545   1.655   8.557  12.894
11883SOL    HW137546   1.599   8.630  12.867
11883SOL    HW237547   1.615   8.480  12.853
11884SOL     OW37548   0.458   1.593  13.837
11884SOL    HW137549   0.401   1.559  13.906
11884SOL    HW237550   0.491   1.515  13.792
11885SOL     OW37551  13.021   7.876  14.463
11885SOL    HW137552  13.070   7.954  14.488
11885SOL    HW237553  13.017   7.879  14.367
11886SOL     OW37554   0.291   9.099   8.089
11886SOL    HW137555   0.320   9.190   8.090
11886SOL    HW237556   0.307   9.070   7.999
11887SOL     OW37557   2.954  13.876  12.997
11887SOL    HW137558   2.998  13.924  12.927
11887SOL    HW237559   2.986  13.917  13.077
11888SOL     OW37560   2.190   9.899   3.043
11888SOL    HW137561   2.159   9.908   2.953
11888SOL    HW237562   2.284   9.883   3.034
11889SOL     OW37563   1.119   4.994   1.538
11889SOL    HW137564   1.155   5.050   1.607
11889SOL    HW237565   1.100   4.911   1.583
11890SOL     OW37566  11.539   7.782  14.183
11890SOL    HW137567  11.516   7.730  14.261
11890SOL    HW237568  11.497   7.735  14.111
11891SOL     OW37569  12.883   2.355  13.675
11891SOL    HW137570  12.932   2.422  13.723
11891SOL    HW237571  12.839   2.304  13.743
11892SOL     OW37572  10.458   8.759   3.563
11892SOL    HW137573  10.527   8.743   3.627
11892SOL    HW237574  10.390   8.695   3.584
11893SOL     OW37575   8.155   7.469   4.771
11893SOL    HW137576   8.076   7.417   4.760
11893SOL    HW237577   8.123   7.554   4.803
11894SOL     OW37578   9.690  13.199   0.231
11894SOL    HW137579   9.775  13.205   0.275
11894SOL    HW237580   9.710  13.200   0.138
11895SOL     OW37581  13.854  13.251   1.826
11895SOL    HW137582  13.785  13.241   1.760
11895SOL    HW237583  13.926  13.294   1.779
11896SOL     OW37584   7.117   9.358   7.773
11896SOL    HW137585   7.150   9.362   7.683
11896SOL    HW237586   7.157   9.278   7.808
11897SOL     OW37587  13.241   4.650   3.762
11897SOL    HW137588  13.244   4.556   3.777
11897SOL    HW237589  13.288   4.664   3.680
11898SOL     OW37590   9.715   6.046   3.394
11898SOL    HW137591   9.794   6.079   3.436
11898SOL    HW237592   9.739   5.960   3.360
11899SOL     OW37593   5.658   0.402  10.321
11899SOL    HW137594   5.627   0.342  10.389
11899SOL    HW237595   5.611   0.375  10.242
11900SOL     OW37596  12.103  10.929   3.279
11900SOL    HW137597  12.023  10.912   3.328
11900SOL    HW237598  12.079  10.995   3.215
11901SOL     OW37599   9.216   5.076  12.645
11901SOL    HW137600   9.180   5.027  12.570
11901SOL    HW237601   9.139   5.101  12.696
11902SOL     OW37602   1.580   0.493  11.228
11902SOL    HW137603   1.503   0.445  11.199
11902SOL    HW237604   1.545   0.571  11.270
11903SOL     OW37605   3.270  14.432   2.709
11903SOL    HW137606   3.205  14.378   2.664
11903SOL    HW237607   3.325  14.467   2.639
11904SOL     OW37608   2.631   7.716  14.728
11904SOL    HW137609   2.726   7.728  14.738
11904SOL    HW237610   2.623   7.627  14.692
11905SOL     OW37611  11.908   1.430   4.374
11905SOL    HW137612  11.919   1.368   4.446
11905SOL    HW237613  11.994   1.432   4.331
11906SOL     OW37614   0.075   3.759   7.822
11906SOL    HW137615   0.144   3.702   7.856
11906SOL    HW237616  14.880   3.717   7.849
11907SOL     OW37617   4.608  14.154   5.834
11907SOL    HW137618   4.664  14.187   5.905
11907SOL    HW237619   4.585  14.233   5.784
11908SOL     OW37620  10.935   1.861  14.590
11908SOL    HW137621  10.983   1.815  14.659
11908SOL    HW237622  10.998   1.925  14.557
11909SOL     OW37623  14.716   0.662   5.614
11909SOL    HW137624  14.763   0.579   5.620
11909SOL    HW237625  14.624   0.639   5.628
11910SOL     OW37626   8.531  13.303   9.915
11910SOL    HW137627   8.536  13.207   9.913
11910SOL    HW237628   8.524  13.324  10.008
11911SOL     OW37629  13.285   4.289  11.393
11911SOL    HW137630  13.316   4.322  11.478
11911SOL    HW237631  13.364   4.254  11.351
11912SOL     OW37632   5.031  11.342   7.098
11912SOL    HW137633   4.986  11.336   7.182
11912SOL    HW237634   4.972  11.298   7.036
11913SOL     OW37635   1.498   9.338   7.247
11913SOL    HW137636   1.428   9.404   7.244
11913SOL    HW237637   1.469   9.269   7.187
11914SOL     OW37638  14.059   1.857   3.640
11914SOL    HW137639  14.127   1.922   3.621
11914SOL    HW237640  14.085   1.820   3.725
11915SOL     OW37641  10.806   9.769  10.017
11915SOL    HW137642  10.824   9.677  10.039
11915SOL    HW237643  10.886   9.815  10.044
11916SOL     OW37644  10.621  12.540   0.569
11916SOL    HW137645  10.676  12.503   0.638
11916SOL    HW237646  10.552  12.475   0.556
11917SOL     OW37647   7.711   5.603   7.817
11917SOL    HW137648   7.716   5.533   7.883
11917SOL    HW237649   7.798   5.642   7.817
11918SOL     OW37650   4.398   1.145   9.239
11918SOL    HW137651   4.340   1.084   9.285
11918SOL    HW237652   4.483   1.131   9.280
11919SOL     OW37653  14.034   9.827   2.709
11919SOL    HW137654  14.096   9.868   2.769
11919SOL    HW237655  14.050   9.733   2.717
11920SOL     OW37656   4.601  10.673   2.137
11920SOL    HW137657   4.529  10.615   2.159
11920SOL    HW237658   4.590  10.690   2.043
11921SOL     OW37659   9.512   5.137   2.029
11921SOL    HW137660   9.440   5.139   1.965
11921SOL    HW237661   9.508   5.050   2.067
11922SOL     OW37662  14.514  12.586  13.370
11922SOL    HW137663  14.563  12.645  13.314
11922SOL    HW237664  14.564  12.505  13.371
11923SOL     OW37665   5.190   8.263   6.969
11923SOL    HW137666   5.141   8.208   6.908
11923SOL    HW237667   5.235   8.201   7.026
11924SOL     OW37668  13.541   3.068   5.911
11924SOL    HW137669  13.518   3.152   5.871
11924SOL    HW237670  13.459   3.019   5.912
11925SOL     OW37671  10.235   6.786   6.556
11925SOL    HW137672  10.146   6.820   6.549
11925SOL    HW237673  10.263   6.811   6.644
11926SOL     OW37674  13.523   5.169   1.385
11926SOL    HW137675  13.531   5.194   1.293
11926SOL    HW237676  13.566   5.239   1.433
11927SOL     OW37677   5.983   2.943  10.295
11927SOL    HW137678   5.931   2.864  10.307
11927SOL    HW237679   5.923   3.006  10.256
11928SOL     OW37680  13.189   9.434   4.426
11928SOL    HW137681  13.205   9.455   4.518
11928SOL    HW237682  13.267   9.463   4.381
11929SOL     OW37683   9.466   5.601   7.595
11929SOL    HW137684   9.465   5.647   7.511
11929SOL    HW237685   9.414   5.522   7.580
11930SOL     OW37686  14.098   9.868   6.619
11930SOL    HW137687  14.064   9.901   6.703
11930SOL    HW237688  14.027   9.815   6.583
11931SOL     OW37689   3.057   7.398  11.787
11931SOL    HW137690   2.965   7.412  11.810
11931SOL    HW237691   3.102   7.387  11.871
11932SOL     OW37692  13.388   8.247   4.907
11932SOL    HW137693  13.329   8.272   4.836
11932SOL    HW237694  13.336   8.188   4.962
11933SOL     OW37695   1.522   6.233   6.362
11933SOL    HW137696   1.541   6.153   6.411
11933SOL    HW237697   1.500   6.297   6.429
11934SOL     OW37698   8.186   8.865   3.003
11934SOL    HW137699   8.180   8.961   3.006
11934SOL    HW237700   8.127   8.835   3.072
11935SOL     OW37701   4.818   3.040   2.158
11935SOL    HW137702   4.749   3.092   2.116
11935SOL    HW237703   4.806   2.951   2.125
11936SOL     OW37704   7.814   5.189  10.800
11936SOL    HW137705   7.766   5.271  10.813
11936SOL    HW237706   7.763   5.142  10.735
11937SOL     OW37707  10.913   5.303  12.085
11937SOL    HW137708  10.926   5.275  11.995
11937SOL    HW237709  11.000   5.327  12.116
11938SOL     OW37710   5.901   8.397   1.113
11938SOL    HW137711   5.997   8.391   1.107
11938SOL    HW237712   5.876   8.446   1.035
11939SOL     OW37713  13.510   6.337   0.874
11939SOL    HW137714  13.458   6.287   0.936
11939SOL    HW237715  13.523   6.422   0.916
11940SOL     OW37716   8.473   5.086   0.660
11940SOL    HW137717   8.417   5.074   0.737
11940SOL    HW237718   8.528   5.007   0.658
11941SOL     OW37719   1.081   5.541   5.425
11941SOL    HW137720   1.051   5.527   5.515
11941SOL    HW237721   1.028   5.615   5.393
11942SOL     OW37722   0.181   8.521   2.105
11942SOL    HW137723   0.164   8.614   2.089
11942SOL    HW237724   0.131   8.501   2.184
11943SOL     OW37725   7.327  14.277   7.545
11943SOL    HW137726   7.244  14.232   7.526
11943SOL    HW237727   7.303  14.348   7.604
11944SOL     OW37728  11.127  11.615  11.911
11944SOL    HW137729  11.193  11.666  11.864
11944SOL    HW237730  11.054  11.677  11.924
11945SOL     OW37731   1.855   1.076   5.381
11945SOL    HW137732   1.794   1.149   5.380
11945SOL    HW237733   1.799   0.998   5.380
11946SOL     OW37734   7.480   0.715  10.369
11946SOL    HW137735   7.418   0.674  10.309
11946SOL    HW237736   7.437   0.710  10.455
11947SOL     OW37737  13.862   2.267   2.634
11947SOL    HW137738  13.787   2.231   2.587
11947SOL    HW237739  13.892   2.340   2.579
11948SOL     OW37740   0.389  14.645   1.599
11948SOL    HW137741   0.407  14.737   1.616
11948SOL    HW237742   0.441  14.625   1.521
11949SOL     OW37743  12.805  13.063  14.509
11949SOL    HW137744  12.878  13.125  14.512
11949SOL    HW237745  12.846  12.977  14.515
11950SOL     OW37746   1.250  14.680  11.118
11950SOL    HW137747   1.232  14.586  11.127
11950SOL    HW237748   1.185  14.711  11.056
11951SOL     OW37749   7.827  13.458  10.969
11951SOL    HW137750   7.807  13.492  11.056
11951SOL    HW237751   7.770  13.506  10.910
11952SOL     OW37752  10.111   7.167   4.823
11952SOL    HW137753  10.113   7.114   4.743
11952SOL    HW237754  10.058   7.244   4.799
11953SOL     OW37755   4.646   4.704   2.240
11953SOL    HW137756   4.679   4.651   2.312
11953SOL    HW237757   4.659   4.794   2.268
11954SOL     OW37758  14.010   3.436  12.129
11954SOL    HW137759  14.089   3.449  12.076
11954SOL    HW237760  14.030   3.481  12.211
11955SOL     OW37761   2.474  12.593  12.454
11955SOL    HW137762   2.529  12.629  12.523
11955SOL    HW237763   2.459  12.502  12.481
11956SOL     OW37764   0.183   0.029   8.019
11956SOL    HW137765   0.126   0.043   7.944
11956SOL    HW237766   0.241   0.105   8.020
11957SOL     OW37767   0.585  12.732  12.051
11957SOL    HW137768   0.591  12.827  12.050
11957SOL    HW237769   0.578  12.707  11.959
11958SOL     OW37770   6.423  14.194   3.339
11958SOL    HW137771   6.432  14.189   3.244
11958SOL    HW237772   6.456  14.110   3.371
11959SOL     OW37773   8.105   7.128  13.271
11959SOL    HW137774   8.035   7.147  13.209
11959SOL    HW237775   8.098   7.196  13.338
11960SOL     OW37776   1.426   4.376   7.154
11960SOL    HW137777   1.481   4.443   7.195
11960SOL    HW237778   1.487   4.325   7.101
11961SOL     OW37779   6.072   9.545  11.531
11961SOL    HW137780   6.126   9.473  11.562
11961SOL    HW237781   6.089   9.616  11.593
11962SOL     OW37782   9.722   6.924  14.162
11962SOL    HW137783   9.757   6.900  14.248
11962SOL    HW237784   9.665   6.851  14.138
11963SOL     OW37785   5.313  12.111   5.693
11963SOL    HW137786   5.299  12.029   5.645
11963SOL    HW237787   5.408  12.117   5.704
11964SOL     OW37788   2.098  12.593   9.802
11964SOL    HW137789   2.052  12.677   9.809
11964SOL    HW237790   2.123  12.573   9.893
11965SOL     OW37791   3.735   6.347  11.090
11965SOL    HW137792   3.668   6.279  11.084
11965SOL    HW237793   3.688   6.423  11.126
11966SOL     OW37794   7.543   2.176   9.399
11966SOL    HW137795   7.627   2.168   9.445
11966SOL    HW237796   7.490   2.104   9.434
11967SOL     OW37797   6.060  11.790  12.504
11967SOL    HW137798   6.120  11.862  12.523
11967SOL    HW237799   5.987  11.831  12.457
11968SOL     OW37800   5.706   9.943   7.848
11968SOL    HW137801   5.734  10.006   7.782
11968SOL    HW237802   5.770   9.952   7.918
11969SOL     OW37803   7.311   1.844   6.912
11969SOL    HW137804   7.283   1.754   6.927
11969SOL    HW237805   7.400   1.836   6.878
11970SOL     OW37806  14.600   8.519   6.550
11970SOL    HW137807  14.505   8.514   6.534
11970SOL    HW237808  14.623   8.608   6.524
11971SOL     OW37809  14.832   0.996  13.903
11971SOL    HW137810  14.769   0.987  13.831
11971SOL    HW237811   0.022   0.948  13.873
11972SOL     OW37812   0.167  13.439   5.166
11972SOL    HW137813   0.186  13.356   5.122
11972SOL    HW237814   0.142  13.499   5.096
11973SOL     OW37815   0.750   3.946  14.634
11973SOL    HW137816   0.777   3.859  14.666
11973SOL    HW237817   0.794   4.007  14.693
11974SOL     OW37818   6.868  12.951   3.535
11974SOL    HW137819   6.913  12.971   3.617
11974SOL    HW237820   6.930  12.976   3.466
11975SOL     OW37821   1.286   9.285   1.766
11975SOL    HW137822   1.350   9.238   1.820
11975SOL    HW237823   1.307   9.377   1.778
11976SOL     OW37824   0.125  11.120   0.668
11976SOL    HW137825   0.044  11.076   0.642
11976SOL    HW237826   0.098  11.210   0.686
11977SOL     OW37827   4.317   7.285   5.779
11977SOL    HW137828   4.361   7.313   5.859
11977SOL    HW237829   4.314   7.363   5.724
11978SOL     OW37830   4.324   8.247   8.189
11978SOL    HW137831   4.373   8.280   8.265
11978SOL    HW237832   4.328   8.152   8.197
11979SOL     OW37833   0.507   0.091  11.415
11979SOL    HW137834   0.441   0.149  11.377
11979SOL    HW237835   0.572   0.080  11.346
11980SOL     OW37836   3.495   2.005   7.101
11980SOL    HW137837   3.515   1.921   7.141
11980SOL    HW237838   3.562   2.065   7.135
11981SOL     OW37839   7.851   4.886   8.285
11981SOL    HW137840   7.881   4.966   8.329
11981SOL    HW237841   7.921   4.864   8.224
11982SOL     OW37842   9.402   4.959   7.719
11982SOL    HW137843   9.404   5.011   7.639
11982SOL    HW237844   9.472   4.894   7.708
11983SOL     OW37845   5.110   4.936   6.013
11983SOL    HW137846   5.019   4.923   5.986
11983SOL    HW237847   5.104   4.981   6.098
11984SOL     OW37848   5.371   0.369   0.329
11984SOL    HW137849   5.416   0.303   0.277
11984SOL    HW237850   5.278   0.356   0.311
11985SOL     OW37851  10.952   2.098   2.727
11985SOL    HW137852  11.001   2.167   2.773
11985SOL    HW237853  10.948   2.026   2.790
11986SOL     OW37854  12.573   6.925   9.666
11986SOL    HW137855  12.629   6.860   9.622
11986SOL    HW237856  12.610   6.933   9.754
11987SOL     OW37857  10.308  14.046  10.106
11987SOL    HW137858  10.396  14.055  10.142
11987SOL    HW237859  10.256  14.009  10.177
11988SOL     OW37860   8.548   1.355  10.420
11988SOL    HW137861   8.463   1.315  10.438
11988SOL    HW237862   8.605   1.324  10.489
11989SOL     OW37863  10.596   9.632  12.378
11989SOL    HW137864  10.614   9.658  12.287
11989SOL    HW237865  10.658   9.682  12.430
11990SOL     OW37866   7.907  12.728   5.418
11990SOL    HW137867   7.956  12.646   5.410
11990SOL    HW237868   7.972  12.797   5.403
11991SOL     OW37869   3.646   8.875   2.709
11991SOL    HW137870   3.713   8.870   2.777
11991SOL    HW237871   3.571   8.827   2.745
11992SOL     OW37872   3.036   9.944   5.953
11992SOL    HW137873   3.128   9.929   5.978
11992SOL    HW237874   3.007  10.014   6.012
11993SOL     OW37875   7.293   6.809  10.925
11993SOL    HW137876   7.215   6.831  10.876
11993SOL    HW237877   7.365   6.853  10.879
11994SOL     OW37878   9.160   3.761   4.971
11994SOL    HW137879   9.122   3.848   4.972
11994SOL    HW237880   9.085   3.701   4.970
11995SOL     OW37881  11.999   7.839  12.244
11995SOL    HW137882  11.964   7.923  12.274
11995SOL    HW237883  12.072   7.821  12.303
11996SOL     OW37884  10.238  10.272   1.957
11996SOL    HW137885  10.164  10.256   1.897
11996SOL    HW237886  10.201  10.324   2.027
11997SOL     OW37887   3.476   2.020   0.987
11997SOL    HW137888   3.450   2.101   1.031
11997SOL    HW237889   3.571   2.018   0.995
11998SOL     OW37890   6.717  11.694   5.884
11998SOL    HW137891   6.683  11.762   5.942
11998SOL    HW237892   6.659  11.620   5.898
11999SOL     OW37893   9.899   7.463   9.847
11999SOL    HW137894   9.834   7.455   9.777
11999SOL    HW237895   9.850   7.500   9.921
12000SOL     OW37896   2.090   4.044  12.142
12000SOL    HW137897   2.115   4.046  12.234
12000SOL    HW237898   2.171   4.064  12.095
12001SOL     OW37899   4.171   6.795   8.046
12001SOL    HW137900   4.077   6.799   8.027
12001SOL    HW237901   4.209   6.866   7.994
12002SOL     OW37902  14.608  12.595   9.385
12002SOL    HW137903  14.600  12.513   9.433
12002SOL    HW237904  14.678  12.643   9.430
12003SOL     OW37905   6.462   3.118   1.177
12003SOL    HW137906   6.426   3.031   1.161
12003SOL    HW237907   6.391   3.178   1.156
12004SOL     OW37908  13.383  12.497   8.831
12004SOL    HW137909  13.429  12.471   8.911
12004SOL    HW237910  13.367  12.591   8.842
12005SOL     OW37911   2.758   0.887   9.047
12005SOL    HW137912   2.837   0.937   9.026
12005SOL    HW237913   2.756   0.884   9.143
12006SOL     OW37914   0.735  14.714   1.811
12006SOL    HW137915   0.640  14.710   1.822
12006SOL    HW237916   0.763  14.622   1.810
12007SOL     OW37917  10.988   4.318   1.814
12007SOL    HW137918  11.003   4.246   1.752
12007SOL    HW237919  10.906   4.358   1.784
12008SOL     OW37920   7.054   5.830   8.820
12008SOL    HW137921   7.071   5.897   8.887
12008SOL    HW237922   7.035   5.880   8.741
12009SOL     OW37923  10.236  12.039   1.521
12009SOL    HW137924  10.276  11.968   1.570
12009SOL    HW237925  10.249  12.016   1.429
12010SOL     OW37926   2.670  10.716  14.354
12010SOL    HW137927   2.702  10.696  14.266
12010SOL    HW237928   2.720  10.794  14.380
12011SOL     OW37929   2.463   7.059   5.159
12011SOL    HW137930   2.376   7.099   5.160
12011SOL    HW237931   2.482   7.043   5.067
12012SOL     OW37932   2.549   7.780  10.402
12012SOL    HW137933   2.484   7.724  10.445
12012SOL    HW237934   2.501   7.859  10.378
12013SOL     OW37935   5.550  13.462   6.468
12013SOL    HW137936   5.506  13.542   6.439
12013SOL    HW237937   5.551  13.468   6.563
12014SOL     OW37938  14.753  12.164   5.565
12014SOL    HW137939  14.714  12.132   5.483
12014SOL    HW237940  14.684  12.215   5.605
12015SOL     OW37941  11.793   4.650   6.678
12015SOL    HW137942  11.743   4.696   6.745
12015SOL    HW237943  11.872   4.620   6.723
12016SOL     OW37944   0.593   7.677   4.044
12016SOL    HW137945   0.576   7.650   4.135
12016SOL    HW237946   0.559   7.605   3.991
12017SOL     OW37947   3.958   6.537   7.347
12017SOL    HW137948   3.967   6.508   7.256
12017SOL    HW237949   4.007   6.472   7.397
12018SOL     OW37950   5.270   0.422   3.590
12018SOL    HW137951   5.359   0.453   3.580
12018SOL    HW237952   5.228   0.441   3.507
12019SOL     OW37953  12.845   5.851   6.132
12019SOL    HW137954  12.770   5.821   6.183
12019SOL    HW237955  12.842   5.946   6.137
12020SOL     OW37956   5.685  10.602  10.437
12020SOL    HW137957   5.674  10.532  10.501
12020SOL    HW237958   5.740  10.563  10.369
12021SOL     OW37959   7.989   1.672   0.442
12021SOL    HW137960   7.911   1.629   0.476
12021SOL    HW237961   8.010   1.738   0.508
12022SOL     OW37962   3.598   8.170  10.554
12022SOL    HW137963   3.511   8.148  10.521
12022SOL    HW237964   3.638   8.086  10.574
12023SOL     OW37965   9.013  12.550   9.174
12023SOL    HW137966   9.007  12.515   9.085
12023SOL    HW237967   9.081  12.617   9.168
12024SOL     OW37968  11.687  12.235   5.730
12024SOL    HW137969  11.661  12.284   5.808
12024SOL    HW237970  11.653  12.147   5.745
12025SOL     OW37971  13.598   2.913   8.301
12025SOL    HW137972  13.521   2.906   8.357
12025SOL    HW237973  13.564   2.920   8.212
12026SOL     OW37974   3.748   9.756  10.550
12026SOL    HW137975   3.807   9.685  10.574
12026SOL    HW237976   3.750   9.816  10.624
12027SOL     OW37977  11.274   5.752   3.636
12027SOL    HW137978  11.287   5.740   3.542
12027SOL    HW237979  11.278   5.663   3.672
12028SOL     OW37980   3.653   9.212  12.346
12028SOL    HW137981   3.642   9.281  12.411
12028SOL    HW237982   3.746   9.190  12.349
12029SOL     OW37983   0.779   8.109   5.517
12029SOL    HW137984   0.726   8.031   5.499
12029SOL    HW237985   0.820   8.131   5.433
12030SOL     OW37986   4.784   5.546  10.870
12030SOL    HW137987   4.818   5.577  10.953
12030SOL    HW237988   4.725   5.615  10.840
12031SOL     OW37989   4.117   6.405   3.690
12031SOL    HW137990   4.151   6.483   3.734
12031SOL    HW237991   4.116   6.337   3.757
12032SOL     OW37992   4.050   5.506  10.869
12032SOL    HW137993   4.132   5.456  10.865
12032SOL    HW237994   4.077   5.597  10.869
12033SOL     OW37995   5.427  12.080  13.456
12033SOL    HW137996   5.428  12.009  13.520
12033SOL    HW237997   5.505  12.132  13.476
12034SOL     OW37998   0.147   3.433  10.547
12034SOL    HW137999   0.208   3.507  10.553
12034SOL    HW238000   0.172   3.387  10.467
12035SOL     OW38001  13.011  13.209   9.470
12035SOL    HW138002  12.929  13.181   9.511
12035SOL    HW238003  13.056  13.127   9.449
12036SOL     OW38004   5.759  10.476  12.573
12036SOL    HW138005   5.747  10.381  12.573
12036SOL    HW238006   5.792  10.496  12.485
12037SOL     OW38007   2.970  10.923  13.733
12037SOL    HW138008   2.893  10.960  13.690
12037SOL    HW238009   2.935  10.853  13.788
12038SOL     OW38010   7.830   7.767   9.800
12038SOL    HW138011   7.877   7.687   9.777
12038SOL    HW238012   7.737   7.743   9.792
12039SOL     OW38013   7.962   6.096   1.548
12039SOL    HW138014   7.895   6.039   1.509
12039SOL    HW238015   7.916   6.179   1.564
12040SOL     OW38016  13.602   7.687  12.684
12040SOL    HW138017  13.653   7.725  12.755
12040SOL    HW238018  13.511   7.706  12.707
12041SOL     OW38019   0.984   1.346  14.543
12041SOL    HW138020   1.034   1.265  14.532
12041SOL    HW238021   1.040   1.414  14.506
12042SOL     OW38022   1.495   6.322  10.269
12042SOL    HW138023   1.442   6.290  10.197
12042SOL    HW238024   1.583   6.288  10.251
12043SOL     OW38025   6.123   5.214   8.518
12043SOL    HW138026   6.156   5.212   8.608
12043SOL    HW238027   6.199   5.239   8.465
12044SOL     OW38028  12.119   5.233  10.654
12044SOL    HW138029  12.195   5.238  10.596
12044SOL    HW238030  12.148   5.180  10.728
12045SOL     OW38031   5.982   9.861  11.492
12045SOL    HW138032   5.938   9.779  11.473
12045SOL    HW238033   5.912   9.922  11.516
12046SOL     OW38034   1.085  12.373   2.744
12046SOL    HW138035   1.101  12.428   2.667
12046SOL    HW238036   1.158  12.392   2.802
12047SOL     OW38037   6.417   2.153  13.635
12047SOL    HW138038   6.340   2.109  13.669
12047SOL    HW238039   6.455   2.197  13.711
12048SOL     OW38040   7.923   3.410   5.300
12048SOL    HW138041   7.829   3.393   5.288
12048SOL    HW238042   7.946   3.363   5.380
12049SOL     OW38043   9.429   8.844  10.324
12049SOL    HW138044   9.400   8.777  10.262
12049SOL    HW238045   9.499   8.803  10.374
12050SOL     OW38046   6.902  14.378   4.741
12050SOL    HW138047   6.812  14.394   4.770
12050SOL    HW238048   6.902  14.287   4.712
12051SOL     OW38049   9.736   3.409   6.988
12051SOL    HW138050   9.715   3.315   6.990
12051SOL    HW238051   9.772   3.427   7.075
12052SOL     OW38052   9.601   9.875   2.450
12052SOL    HW138053   9.553   9.902   2.528
12052SOL    HW238054   9.568   9.787   2.431
12053SOL     OW38055   7.366   7.949   2.009
12053SOL    HW138056   7.318   8.030   2.027
12053SOL    HW238057   7.392   7.955   1.918
12054SOL     OW38058   3.181   2.869   7.643
12054SOL    HW138059   3.220   2.782   7.655
12054SOL    HW238060   3.254   2.925   7.617
12055SOL     OW38061   4.065  14.618   0.646
12055SOL    HW138062   3.995  14.635   0.582
12055SOL    HW238063   4.141  14.597   0.594
12056SOL     OW38064  14.180  11.311   6.993
12056SOL    HW138065  14.100  11.362   6.979
12056SOL    HW238066  14.173  11.238   6.931
12057SOL     OW38067  14.110   8.867   9.436
12057SOL    HW138068  14.141   8.881   9.525
12057SOL    HW238069  14.180   8.901   9.380
12058SOL     OW38070   2.779   5.049   2.461
12058SOL    HW138071   2.685   5.035   2.450
12058SOL    HW238072   2.820   4.976   2.415
12059SOL     OW38073  13.068   3.898   7.230
12059SOL    HW138074  13.018   3.979   7.223
12059SOL    HW238075  13.157   3.925   7.251
12060SOL     OW38076   7.379   6.120   6.815
12060SOL    HW138077   7.446   6.178   6.780
12060SOL    HW238078   7.363   6.056   6.745
12061SOL     OW38079  12.136  10.537  12.229
12061SOL    HW138080  12.137  10.588  12.310
12061SOL    HW238081  12.226  10.543  12.197
12062SOL     OW38082  12.543  13.864  13.844
12062SOL    HW138083  12.539  13.896  13.934
12062SOL    HW238084  12.456  13.828  13.828
12063SOL     OW38085   3.607   1.176   5.689
12063SOL    HW138086   3.669   1.132   5.631
12063SOL    HW238087   3.555   1.106   5.727
12064SOL     OW38088   9.320  12.705  11.714
12064SOL    HW138089   9.313  12.635  11.779
12064SOL    HW238090   9.404  12.691  11.671
12065SOL     OW38091  12.993  12.658   9.018
12065SOL    HW138092  12.902  12.633   9.033
12065SOL    HW238093  13.044  12.597   9.071
12066SOL     OW38094   2.700   9.460   2.357
12066SOL    HW138095   2.612   9.428   2.377
12066SOL    HW238096   2.757   9.408   2.414
12067SOL     OW38097   3.400   7.620   6.088
12067SOL    HW138098   3.316   7.615   6.133
12067SOL    HW238099   3.385   7.679   6.015
12068SOL     OW38100   4.520   6.884   1.614
12068SOL    HW138101   4.604   6.896   1.658
12068SOL    HW238102   4.525   6.797   1.576
12069SOL     OW38103   9.045   2.324  14.328
12069SOL    HW138104   9.009   2.395  14.381
12069SOL    HW238105   8.977   2.304  14.264
12070SOL     OW38106   0.638   3.482   1.018
12070SOL    HW138107   0.699   3.479   0.945
12070SOL    HW238108   0.552   3.496   0.978
12071SOL     OW38109  10.745  13.578   7.727
12071SOL    HW138110  10.741  13.556   7.820
12071SOL    HW238111  10.757  13.494   7.683
12072SOL     OW38112  12.371  10.961   6.482
12072SOL    HW138113  12.375  11.014   6.562
12072SOL    HW238114  12.439  10.895   6.494
12073SOL     OW38115   4.344   4.609   7.699
12073SOL    HW138116   4.283   4.555   7.749
12073SOL    HW238117   4.390   4.661   7.764
12074SOL     OW38118  11.868   6.083   2.861
12074SOL    HW138119  11.907   6.034   2.789
12074SOL    HW238120  11.869   6.023   2.935
12075SOL     OW38121   6.026  13.381   3.060
12075SOL    HW138122   6.014  13.292   3.093
12075SOL    HW238123   6.119  13.399   3.074
12076SOL     OW38124   3.403   7.122   3.728
12076SOL    HW138125   3.387   7.027   3.726
12076SOL    HW238126   3.316   7.161   3.731
12077SOL     OW38127   3.275   8.507   5.153
12077SOL    HW138128   3.301   8.434   5.096
12077SOL    HW238129   3.188   8.484   5.185
12078SOL     OW38130   9.355  13.862  10.316
12078SOL    HW138131   9.358  13.882  10.223
12078SOL    HW238132   9.417  13.923  10.356
12079SOL     OW38133   0.275   7.598   5.262
12079SOL    HW138134   0.230   7.674   5.299
12079SOL    HW238135   0.356   7.592   5.312
12080SOL     OW38136  10.709   7.003   0.930
12080SOL    HW138137  10.638   6.967   0.984
12080SOL    HW238138  10.789   6.968   0.969
12081SOL     OW38139  12.207  13.030  12.483
12081SOL    HW138140  12.167  13.112  12.512
12081SOL    HW238141  12.139  12.964  12.497
12082SOL     OW38142  14.485  12.117  11.942
12082SOL    HW138143  14.532  12.167  12.008
12082SOL    HW238144  14.437  12.050  11.991
12083SOL     OW38145   1.478   9.935   3.128
12083SOL    HW138146   1.569   9.947   3.156
12083SOL    HW238147   1.426   9.972   3.200
12084SOL     OW38148   2.957  11.912   7.549
12084SOL    HW138149   2.903  11.867   7.484
12084SOL    HW238150   3.036  11.937   7.502
12085SOL     OW38151   9.003   1.817   5.553
12085SOL    HW138152   8.952   1.835   5.474
12085SOL    HW238153   9.000   1.722   5.562
12086SOL     OW38154   9.174   9.702   6.633
12086SOL    HW138155   9.107   9.636   6.613
12086SOL    HW238156   9.136   9.784   6.601
12087SOL     OW38157   8.339   6.249   3.149
12087SOL    HW138158   8.318   6.334   3.112
12087SOL    HW238159   8.318   6.257   3.242
12088SOL     OW38160   9.523   0.560  11.139
12088SOL    HW138161   9.598   0.603  11.179
12088SOL    HW238162   9.514   0.477  11.187
12089SOL     OW38163   6.992  14.591   2.367
12089SOL    HW138164   6.937  14.521   2.401
12089SOL    HW238165   7.015  14.563   2.278
12090SOL     OW38166  10.048   4.696  11.520
12090SOL    HW138167  10.079   4.712  11.609
12090SOL    HW238168   9.971   4.752  11.511
12091SOL     OW38169   3.035   1.035   8.888
12091SOL    HW138170   3.029   0.941   8.874
12091SOL    HW238171   2.953   1.070   8.853
12092SOL     OW38172  10.035   0.223  14.530
12092SOL    HW138173   9.968   0.157  14.550
12092SOL    HW238174  10.099   0.175  14.477
12093SOL     OW38175   5.288  10.603   1.965
12093SOL    HW138176   5.213  10.654   1.998
12093SOL    HW238177   5.322  10.656   1.893
12094SOL     OW38178   5.345  13.485   6.136
12094SOL    HW138179   5.332  13.436   6.218
12094SOL    HW238180   5.345  13.577   6.164
12095SOL     OW38181  14.580  10.778   1.220
12095SOL    HW138182  14.608  10.702   1.272
12095SOL    HW238183  14.534  10.834   1.282
12096SOL     OW38184   4.961   1.451   2.955
12096SOL    HW138185   5.052   1.481   2.950
12096SOL    HW238186   4.948   1.400   2.874
12097SOL     OW38187  12.927  11.812   8.654
12097SOL    HW138188  12.996  11.878   8.645
12097SOL    HW238189  12.967  11.732   8.620
12098SOL     OW38190   3.033  11.422   9.428
12098SOL    HW138191   3.104  11.476   9.462
12098SOL    HW238192   3.074  11.338   9.407
12099SOL     OW38193   6.228   8.531   9.567
12099SOL    HW138194   6.164   8.602   9.569
12099SOL    HW238195   6.244   8.509   9.658
12100SOL     OW38196  13.502  11.834   4.005
12100SOL    HW138197  13.410  11.807   4.005
12100SOL    HW238198  13.541  11.786   4.078
12101SOL     OW38199  10.618   7.234   3.046
12101SOL    HW138200  10.523   7.247   3.047
12101SOL    HW238201  10.632   7.166   2.980
12102SOL     OW38202   4.012  13.438   1.614
12102SOL    HW138203   4.103  13.428   1.643
12102SOL    HW238204   3.966  13.470   1.691
12103SOL     OW38205   8.856   7.940   5.994
12103SOL    HW138206   8.826   8.030   5.979
12103SOL    HW238207   8.810   7.888   5.928
12104SOL     OW38208   7.043   1.141   4.088
12104SOL    HW138209   7.018   1.208   4.151
12104SOL    HW238210   7.131   1.114   4.115
12105SOL     OW38211   3.770  13.865   1.615
12105SOL    HW138212   3.846  13.879   1.559
12105SOL    HW238213   3.752  13.771   1.608
12106SOL     OW38214   5.043  12.257   5.651
12106SOL    HW138215   4.965  12.203   5.660
12106SOL    HW238216   5.116  12.196   5.666
12107SOL     OW38217   6.548   9.105   6.274
12107SOL    HW138218   6.509   9.174   6.328
12107SOL    HW238219   6.607   9.058   6.333
12108SOL     OW38220  10.760  10.374   3.830
12108SOL    HW138221  10.717  10.417   3.757
12108SOL    HW238222  10.693  10.318   3.868
12109SOL     OW38223   7.257   2.107   4.539
12109SOL    HW138224   7.312   2.035   4.510
12109SOL    HW238225   7.311   2.155   4.602
12110SOL     OW38226   1.108  13.143   0.146
12110SOL    HW138227   1.096  13.129   0.052
12110SOL    HW238228   1.027  13.112   0.186
12111SOL     OW38229  12.693   2.222   4.299
12111SOL    HW138230  12.761   2.280   4.332
12111SOL    HW238231  12.730   2.134   4.306
12112SOL     OW38232  11.463   8.428   5.666
12112SOL    HW138233  11.477   8.523   5.670
12112SOL    HW238234  11.516   8.399   5.592
12113SOL     OW38235  14.532   4.990   3.211
12113SOL    HW138236  14.454   4.934   3.202
12113SOL    HW238237  14.594   4.954   3.148
12114SOL     OW38238   5.125   9.767   1.997
12114SOL    HW138239   5.101   9.827   1.926
12114SOL    HW238240   5.090   9.808   2.076
12115SOL     OW38241  13.596   8.945   3.060
12115SOL    HW138242  13.648   8.866   3.074
12115SOL    HW238243  13.602   8.960   2.965
12116SOL     OW38244   5.743   4.565   7.260
12116SOL    HW138245   5.707   4.504   7.325
12116SOL    HW238246   5.732   4.651   7.299
12117SOL     OW38247   9.740  14.304   5.667
12117SOL    HW138248   9.818  14.271   5.624
12117SOL    HW238249   9.671  14.296   5.601
12118SOL     OW38250   4.524   8.021   6.646
12118SOL    HW138251   4.613   7.987   6.650
12118SOL    HW238252   4.524   8.094   6.707
12119SOL     OW38253   1.008  10.495   4.063
12119SOL    HW138254   0.918  10.521   4.045
12119SOL    HW238255   1.046  10.480   3.976
12120SOL     OW38256   3.847   7.359   4.787
12120SOL    HW138257   3.908   7.415   4.740
12120SOL    HW238258   3.845   7.395   4.876
12121SOL     OW38259  10.805   6.995   9.029
12121SOL    HW138260  10.793   7.041   8.946
12121SOL    HW238261  10.730   6.936   9.034
12122SOL     OW38262  10.352  13.610   8.120
12122SOL    HW138263  10.279  13.584   8.064
12122SOL    HW238264  10.389  13.687   8.077
12123SOL     OW38265   5.973   7.600   9.995
12123SOL    HW138266   5.882   7.614   9.969
12123SOL    HW238267   6.000   7.683  10.034
12124SOL     OW38268  12.476  12.775   2.042
12124SOL    HW138269  12.433  12.699   2.004
12124SOL    HW238270  12.505  12.827   1.967
12125SOL     OW38271   3.039   2.088   7.957
12125SOL    HW138272   3.004   2.118   8.040
12125SOL    HW238273   3.132   2.111   7.960
12126SOL     OW38274   9.264   8.679  12.388
12126SOL    HW138275   9.184   8.662  12.338
12126SOL    HW238276   9.323   8.607  12.364
12127SOL     OW38277   4.726   8.499  11.737
12127SOL    HW138278   4.760   8.525  11.652
12127SOL    HW238279   4.645   8.550  11.747
12128SOL     OW38280   0.028   8.386  13.094
12128SOL    HW138281   0.081   8.427  13.026
12128SOL    HW238282  14.831   8.370  13.052
12129SOL     OW38283   4.173  11.228   7.731
12129SOL    HW138284   4.088  11.259   7.763
12129SOL    HW238285   4.151  11.173   7.656
12130SOL     OW38286  12.423   5.275  11.289
12130SOL    HW138287  12.487   5.294  11.357
12130SOL    HW238288  12.375   5.357  11.278
12131SOL     OW38289  11.946   7.556   9.737
12131SOL    HW138290  11.937   7.573   9.644
12131SOL    HW238291  11.871   7.601   9.777
12132SOL     OW38292  10.611  11.783   3.558
12132SOL    HW138293  10.622  11.815   3.647
12132SOL    HW238294  10.553  11.847   3.517
12133SOL     OW38295   0.660   8.281  12.102
12133SOL    HW138296   0.639   8.323  12.185
12133SOL    HW238297   0.580   8.235  12.078
12134SOL     OW38298   6.325   0.487   1.051
12134SOL    HW138299   6.252   0.529   1.097
12134SOL    HW238300   6.290   0.401   1.026
12135SOL     OW38301   9.191   2.322   7.594
12135SOL    HW138302   9.188   2.403   7.644
12135SOL    HW238303   9.148   2.343   7.511
12136SOL     OW38304  12.883   4.907   1.753
12136SOL    HW138305  12.916   4.944   1.671
12136SOL    HW238306  12.855   4.983   1.803
12137SOL     OW38307   3.160  12.467   1.148
12137SOL    HW138308   3.154  12.555   1.185
12137SOL    HW238309   3.251  12.458   1.122
12138SOL     OW38310  13.783  12.532   8.788
12138SOL    HW138311  13.797  12.439   8.769
12138SOL    HW238312  13.774  12.573   8.702
12139SOL     OW38313   8.092  13.926   4.209
12139SOL    HW138314   8.109  13.950   4.300
12139SOL    HW238315   8.110  14.006   4.159
12140SOL     OW38316  10.876  13.749  11.862
12140SOL    HW138317  10.785  13.729  11.841
12140SOL    HW238318  10.871  13.813  11.933
12141SOL     OW38319   6.966   9.465  10.600
12141SOL    HW138320   6.908   9.448  10.526
12141SOL    HW238321   7.002   9.552  10.583
12142SOL     OW38322   1.314   7.902  14.202
12142SOL    HW138323   1.355   7.983  14.173
12142SOL    HW238324   1.304   7.912  14.297
12143SOL     OW38325   9.588  14.400   8.363
12143SOL    HW138326   9.680  14.418   8.345
12143SOL    HW238327   9.587  14.318   8.412
12144SOL     OW38328  10.643   6.325  13.636
12144SOL    HW138329  10.711   6.323  13.568
12144SOL    HW238330  10.581   6.257  13.610
12145SOL     OW38331   5.272  14.447   4.222
12145SOL    HW138332   5.254  14.539   4.239
12145SOL    HW238333   5.363  14.446   4.190
12146SOL     OW38334   3.302  12.161  13.878
12146SOL    HW138335   3.387  12.147  13.836
12146SOL    HW238336   3.258  12.226  13.824
12147SOL     OW38337  12.923   0.153   6.535
12147SOL    HW138338  12.936   0.199   6.618
12147SOL    HW238339  12.917   0.222   6.469
12148SOL     OW38340  10.547  11.501  12.976
12148SOL    HW138341  10.510  11.414  12.989
12148SOL    HW238342  10.472  11.557  12.958
12149SOL     OW38343   5.604   7.248   3.207
12149SOL    HW138344   5.688   7.282   3.177
12149SOL    HW238345   5.625   7.191   3.281
12150SOL     OW38346  10.678   2.836  14.729
12150SOL    HW138347  10.672   2.915  14.783
12150SOL    HW238348  10.655   2.764  14.789
12151SOL     OW38349   4.633  13.749  13.769
12151SOL    HW138350   4.669  13.666  13.800
12151SOL    HW238351   4.543  13.750  13.801
12152SOL     OW38352   5.213  10.344   7.568
12152SOL    HW138353   5.300  10.371   7.595
12152SOL    HW238354   5.155  10.412   7.602
12153SOL     OW38355   1.182  14.210  14.627
12153SOL    HW138356   1.262  14.185  14.581
12153SOL    HW238357   1.143  14.127  14.654
12154SOL     OW38358  12.087   6.378  12.078
12154SOL    HW138359  12.006   6.427  12.064
12154SOL    HW238360  12.099   6.377  12.173
12155SOL     OW38361   5.459   9.917   2.532
12155SOL    HW138362   5.427  10.006   2.541
12155SOL    HW238363   5.466   9.903   2.437
12156SOL     OW38364   1.295  14.120   3.328
12156SOL    HW138365   1.376  14.108   3.378
12156SOL    HW238366   1.283  14.037   3.283
12157SOL     OW38367  13.430  13.850   6.628
12157SOL    HW138368  13.470  13.770   6.662
12157SOL    HW238369  13.467  13.860   6.540
12158SOL     OW38370   9.593   2.514   3.316
12158SOL    HW138371   9.498   2.516   3.325
12158SOL    HW238372   9.622   2.443   3.373
12159SOL     OW38373   5.628   3.179  13.089
12159SOL    HW138374   5.575   3.171  13.169
12159SOL    HW238375   5.717   3.159  13.118
12160SOL     OW38376   7.149   6.549   7.991
12160SOL    HW138377   7.138   6.518   7.901
12160SOL    HW238378   7.240   6.579   7.994
12161SOL     OW38379   8.197  12.269   6.873
12161SOL    HW138380   8.125  12.294   6.815
12161SOL    HW238381   8.253  12.213   6.819
12162SOL     OW38382   7.575   4.610   7.561
12162SOL    HW138383   7.589   4.626   7.468
12162SOL    HW238384   7.596   4.693   7.604
12163SOL     OW38385  12.366  11.674   4.166
12163SOL    HW138386  12.281  11.628   4.167
12163SOL    HW238387  12.374  11.710   4.254
12164SOL     OW38388   4.098   0.874  10.882
12164SOL    HW138389   4.058   0.951  10.843
12164SOL    HW238390   4.054   0.800  10.840
12165SOL     OW38391   8.948   4.062   3.403
12165SOL    HW138392   8.936   4.152   3.373
12165SOL    HW238393   9.010   4.023   3.342
12166SOL     OW38394   7.325  11.150  13.915
12166SOL    HW138395   7.241  11.195  13.907
12166SOL    HW238396   7.377  11.206  13.972
12167SOL     OW38397   5.047   8.243   3.136
12167SOL    HW138398   5.134   8.275   3.162
12167SOL    HW238399   4.997   8.243   3.217
12168SOL     OW38400  11.098   6.592   8.569
12168SOL    HW138401  11.136   6.518   8.615
12168SOL    HW238402  11.114   6.667   8.627
12169SOL     OW38403   5.339   9.527   0.992
12169SOL    HW138404   5.434   9.539   1.002
12169SOL    HW238405   5.301   9.600   1.042
12170SOL     OW38406   3.477   6.312  10.028
12170SOL    HW138407   3.506   6.401  10.049
12170SOL    HW238408   3.512   6.258  10.100
12171SOL     OW38409  10.742   9.843   6.865
12171SOL    HW138410  10.671   9.781   6.882
12171SOL    HW238411  10.699   9.925   6.843
12172SOL     OW38412  12.863  11.061   7.603
12172SOL    HW138413  12.899  11.034   7.687
12172SOL    HW238414  12.934  11.047   7.541
12173SOL     OW38415   1.683   8.869  11.472
12173SOL    HW138416   1.628   8.927  11.418
12173SOL    HW238417   1.771   8.904  11.462
12174SOL     OW38418   9.874   8.758   3.453
12174SOL    HW138419   9.932   8.834   3.447
12174SOL    HW238420   9.932   8.682   3.441
12175SOL     OW38421   6.644  12.535   4.885
12175SOL    HW138422   6.580  12.567   4.822
12175SOL    HW238423   6.632  12.590   4.962
12176SOL     OW38424   3.637   2.344  13.447
12176SOL    HW138425   3.631   2.304  13.360
12176SOL    HW238426   3.704   2.411  13.438
12177SOL     OW38427  11.505   4.726  14.102
12177SOL    HW138428  11.537   4.816  14.098
12177SOL    HW238429  11.566   4.680  14.159
12178SOL     OW38430  12.346   6.393   6.746
12178SOL    HW138431  12.276   6.411   6.808
12178SOL    HW238432  12.422   6.440   6.780
12179SOL     OW38433  11.155   8.158   3.371
12179SOL    HW138434  11.092   8.103   3.418
12179SOL    HW238435  11.209   8.197   3.439
12180SOL     OW38436   4.394   3.933  12.668
12180SOL    HW138437   4.375   4.016  12.712
12180SOL    HW238438   4.387   3.867  12.738
12181SOL     OW38439   1.326   7.811  10.557
12181SOL    HW138440   1.343   7.905  10.557
12181SOL    HW238441   1.380   7.777  10.486
12182SOL     OW38442  10.314   3.290  12.646
12182SOL    HW138443  10.256   3.233  12.696
12182SOL    HW238444  10.402   3.269  12.677
12183SOL     OW38445  11.691  11.338   0.777
12183SOL    HW138446  11.640  11.417   0.765
12183SOL    HW238447  11.634  11.279   0.826
12184SOL     OW38448   2.474   9.670   2.345
12184SOL    HW138449   2.433   9.638   2.265
12184SOL    HW238450   2.457   9.764   2.345
12185SOL     OW38451  10.294   6.477   7.145
12185SOL    HW138452  10.362   6.509   7.204
12185SOL    HW238453  10.236   6.426   7.202
12186SOL     OW38454  11.130   4.194   4.550
12186SOL    HW138455  11.050   4.159   4.511
12186SOL    HW238456  11.127   4.288   4.533
12187SOL     OW38457   4.885  13.078   2.993
12187SOL    HW138458   4.821  13.055   3.060
12187SOL    HW238459   4.936  13.149   3.032
12188SOL     OW38460  11.106   8.639   9.060
12188SOL    HW138461  11.143   8.551   9.054
12188SOL    HW238462  11.035   8.631   9.123
12189SOL     OW38463   5.262  11.946  11.893
12189SOL    HW138464   5.277  11.887  11.820
12189SOL    HW238465   5.300  11.902  11.968
12190SOL     OW38466  12.699   0.045   5.812
12190SOL    HW138467  12.675   0.018   5.901
12190SOL    HW238468  12.769   0.109   5.825
12191SOL     OW38469   9.484   6.157  14.578
12191SOL    HW138470   9.491   6.090  14.509
12191SOL    HW238471   9.470   6.108  14.658
12192SOL     OW38472   5.211   5.528   9.528
12192SOL    HW138473   5.303   5.505   9.542
12192SOL    HW238474   5.207   5.622   9.545
12193SOL     OW38475   1.470   7.453   5.403
12193SOL    HW138476   1.413   7.465   5.479
12193SOL    HW238477   1.550   7.501   5.425
12194SOL     OW38478   9.859   9.677  10.204
12194SOL    HW138479   9.841   9.607  10.266
12194SOL    HW238480   9.789   9.670  10.139
12195SOL     OW38481   1.261   5.076   4.237
12195SOL    HW138482   1.302   5.027   4.309
12195SOL    HW238483   1.220   5.151   4.280
12196SOL     OW38484   3.514  14.718   0.385
12196SOL    HW138485   3.509  14.640   0.440
12196SOL    HW238486   3.424  14.753   0.386
12197SOL     OW38487  11.959   8.085   8.472
12197SOL    HW138488  11.990   8.065   8.384
12197SOL    HW238489  11.932   8.177   8.467
12198SOL     OW38490   4.804   4.378   4.418
12198SOL    HW138491   4.838   4.418   4.338
12198SOL    HW238492   4.834   4.435   4.488
12199SOL     OW38493   1.925   1.177   2.692
12199SOL    HW138494   1.956   1.140   2.609
12199SOL    HW238495   1.996   1.160   2.753
12200SOL     OW38496   0.121  11.752   6.411
12200SOL    HW138497   0.131  11.834   6.363
12200SOL    HW238498   0.085  11.691   6.347
12201SOL     OW38499   8.996  14.113   5.028
12201SOL    HW138500   9.068  14.176   5.027
12201SOL    HW238501   9.034  14.033   5.063
12202SOL     OW38502   6.302   1.962   2.252
12202SOL    HW138503   6.376   1.927   2.301
12202SOL    HW238504   6.332   1.965   2.161
12203SOL     OW38505   2.342   7.578   9.942
12203SOL    HW138506   2.272   7.512   9.939
12203SOL    HW238507   2.350   7.600  10.035
12204SOL     OW38508   5.447   6.258  11.345
12204SOL    HW138509   5.459   6.223  11.257
12204SOL    HW238510   5.379   6.203  11.384
12205SOL     OW38511   6.357   5.955  11.987
12205SOL    HW138512   6.406   5.890  11.937
12205SOL    HW238513   6.412   6.033  11.986
12206SOL     OW38514  11.959   8.580   5.780
12206SOL    HW138515  12.021   8.627   5.724
12206SOL    HW238516  11.979   8.487   5.766
12207SOL     OW38517   3.135  13.240  11.721
12207SOL    HW138518   3.176  13.314  11.675
12207SOL    HW238519   3.175  13.163  11.681
12208SOL     OW38520  10.350  14.818   4.754
12208SOL    HW138521  10.335  14.801   4.661
12208SOL    HW238522  10.397   0.015   4.756
12209SOL     OW38523   3.022   3.624   3.149
12209SOL    HW138524   3.066   3.701   3.114
12209SOL    HW238525   2.974   3.587   3.074
12210SOL     OW38526   0.083   4.637   4.918
12210SOL    HW138527   0.081   4.694   4.841
12210SOL    HW238528  14.879   4.615   4.934
12211SOL     OW38529   4.841  10.060   8.501
12211SOL    HW138530   4.891  10.141   8.503
12211SOL    HW238531   4.837  10.036   8.408
12212SOL     OW38532  13.608   6.469   9.602
12212SOL    HW138533  13.559   6.388   9.618
12212SOL    HW238534  13.699   6.447   9.622
12213SOL     OW38535   6.223   0.040   9.930
12213SOL    HW138536   6.276   0.120   9.930
12213SOL    HW238537   6.235   0.003   9.843
12214SOL     OW38538  14.679  13.191  10.566
12214SOL    HW138539  14.716  13.120  10.513
12214SOL    HW238540  14.665  13.263  10.503
12215SOL     OW38541   1.702   1.727   8.544
12215SOL    HW138542   1.711   1.639   8.580
12215SOL    HW238543   1.780   1.773   8.573
12216SOL     OW38544  12.599   4.222   3.141
12216SOL    HW138545  12.519   4.270   3.164
12216SOL    HW238546  12.585   4.195   3.050
12217SOL     OW38547  14.801   5.176  13.564
12217SOL    HW138548  14.783   5.190  13.471
12217SOL    HW238549  14.841   5.257  13.593
12218SOL     OW38550  12.015   0.808   1.643
12218SOL    HW138551  12.058   0.753   1.578
12218SOL    HW238552  12.057   0.785   1.726
12219SOL     OW38553   4.217   5.175   2.695
12219SOL    HW138554   4.226   5.131   2.610
12219SOL    HW238555   4.144   5.236   2.683
12220SOL     OW38556   0.683  11.348  12.689
12220SOL    HW138557   0.649  11.438  12.686
12220SOL    HW238558   0.610  11.295  12.720
12221SOL     OW38559   4.782   7.425   4.027
12221SOL    HW138560   4.696   7.467   4.018
12221SOL    HW238561   4.834   7.461   3.955
12222SOL     OW38562  14.387   4.199   1.920
12222SOL    HW138563  14.330   4.192   1.996
12222SOL    HW238564  14.417   4.290   1.920
12223SOL     OW38565   8.661   4.870   6.378
12223SOL    HW138566   8.652   4.778   6.401
12223SOL    HW238567   8.679   4.913   6.462
12224SOL     OW38568  13.637   3.319   1.972
12224SOL    HW138569  13.637   3.231   1.935
12224SOL    HW238570  13.548   3.351   1.960
12225SOL     OW38571   3.553   9.646   4.627
12225SOL    HW138572   3.618   9.578   4.609
12225SOL    HW238573   3.517   9.622   4.713
12226SOL     OW38574   6.237   1.980   1.468
12226SOL    HW138575   6.255   2.073   1.455
12226SOL    HW238576   6.243   1.942   1.381
12227SOL     OW38577   1.071  14.292   5.414
12227SOL    HW138578   1.069  14.206   5.456
12227SOL    HW238579   1.073  14.354   5.487
12228SOL     OW38580   3.581  11.829   9.372
12228SOL    HW138581   3.591  11.794   9.460
12228SOL    HW238582   3.521  11.769   9.329
12229SOL     OW38583  13.664   2.094  12.303
12229SOL    HW138584  13.669   2.013  12.252
12229SOL    HW238585  13.639   2.065  12.391
12230SOL     OW38586   2.994  12.493  14.135
12230SOL    HW138587   3.033  12.511  14.220
12230SOL    HW238588   3.034  12.410  14.107
12231SOL     OW38589   9.490   6.519  13.117
12231SOL    HW138590   9.452   6.435  13.092
12231SOL    HW238591   9.548   6.541  13.044
12232SOL     OW38592  12.820   1.160  11.069
12232SOL    HW138593  12.841   1.139  10.978
12232SOL    HW238594  12.874   1.236  11.090
12233SOL     OW38595  14.404  10.089   6.438
12233SOL    HW138596  14.434  10.013   6.388
12233SOL    HW238597  14.481  10.118   6.487
12234SOL     OW38598   5.293   2.047   3.124
12234SOL    HW138599   5.332   2.100   3.194
12234SOL    HW238600   5.360   2.045   3.056
12235SOL     OW38601   6.730   6.139  10.421
12235SOL    HW138602   6.708   6.190  10.343
12235SOL    HW238603   6.681   6.057  10.411
12236SOL     OW38604   3.999   5.149  10.347
12236SOL    HW138605   3.924   5.172  10.402
12236SOL    HW238606   3.962   5.099  10.275
12237SOL     OW38607  11.667  10.446   2.483
12237SOL    HW138608  11.674  10.534   2.520
12237SOL    HW238609  11.578  10.442   2.448
12238SOL     OW38610  13.756   2.074   8.334
12238SOL    HW138611  13.746   2.101   8.425
12238SOL    HW238612  13.787   2.152   8.288
12239SOL     OW38613   3.008  13.709   9.928
12239SOL    HW138614   3.003  13.787   9.874
12239SOL    HW238615   2.918  13.676   9.932
12240SOL     OW38616   1.500  11.377   4.145
12240SOL    HW138617   1.446  11.404   4.219
12240SOL    HW238618   1.446  11.315   4.096
12241SOL     OW38619   0.529  10.209   0.242
12241SOL    HW138620   0.447  10.253   0.260
12241SOL    HW238621   0.505  10.135   0.186
12242SOL     OW38622  11.096   4.771   2.643
12242SOL    HW138623  11.139   4.832   2.702
12242SOL    HW238624  11.103   4.686   2.686
12243SOL     OW38625  13.146  13.143  12.281
12243SOL    HW138626  13.082  13.107  12.341
12243SOL    HW238627  13.205  13.195  12.336
12244SOL     OW38628  14.164   2.881   5.924
12244SOL    HW138629  14.152   2.825   6.001
12244SOL    HW238630  14.257   2.876   5.904
12245SOL     OW38631  12.031   2.795   4.254
12245SOL    HW138632  12.067   2.880   4.279
12245SOL    HW238633  12.056   2.736   4.326
12246SOL     OW38634   5.476   8.484   4.022
12246SOL    HW138635   5.518   8.531   4.094
12246SOL    HW238636   5.422   8.549   3.978
12247SOL     OW38637   7.782  11.527   0.283
12247SOL    HW138638   7.860  11.577   0.258
12247SOL    HW238639   7.792  11.444   0.237
12248SOL     OW38640  13.693   1.372  10.893
12248SOL    HW138641  13.604   1.364  10.925
12248SOL    HW238642  13.700   1.463  10.864
12249SOL     OW38643  12.370  13.067   7.502
12249SOL    HW138644  12.347  12.996   7.562
12249SOL    HW238645  12.443  13.112   7.544
12250SOL     OW38646   4.974   8.734   6.056
12250SOL    HW138647   4.950   8.796   6.125
12250SOL    HW238648   5.007   8.657   6.102
12251SOL     OW38649   2.737   0.420   3.521
12251SOL    HW138650   2.668   0.456   3.578
12251SOL    HW238651   2.717   0.326   3.516
12252SOL     OW38652   8.470   3.406   1.692
12252SOL    HW138653   8.486   3.441   1.605
12252SOL    HW238654   8.413   3.331   1.677
12253SOL     OW38655   6.767  12.910   9.949
12253SOL    HW138656   6.715  12.953   9.881
12253SOL    HW238657   6.820  12.845   9.902
12254SOL     OW38658   9.678   1.953   8.210
12254SOL    HW138659   9.666   1.951   8.305
12254SOL    HW238660   9.654   2.042   8.184
12255SOL     OW38661   3.740   8.048  14.683
12255SOL    HW138662   3.661   8.011  14.722
12255SOL    HW238663   3.724   8.045  14.589
12256SOL     OW38664  13.426   9.169   8.100
12256SOL    HW138665  13.428   9.229   8.175
12256SOL    HW238666  13.517   9.168   8.068
12257SOL     OW38667  14.184  11.660  14.837
12257SOL    HW138668  14.276  11.683  14.845
12257SOL    HW238669  14.183  11.565  14.835
12258SOL     OW38670  11.865  11.454  12.174
12258SOL    HW138671  11.847  11.408  12.092
12258SOL    HW238672  11.931  11.519  12.152
12259SOL     OW38673   9.449   7.005   7.050
12259SOL    HW138674   9.492   7.084   7.082
12259SOL    HW238675   9.366   7.035   7.014
12260SOL     OW38676  12.288   6.074  10.358
12260SOL    HW138677  12.200   6.094  10.388
12260SOL    HW238678  12.275   6.013  10.285
12261SOL     OW38679   9.226  11.158   8.963
12261SOL    HW138680   9.270  11.231   8.920
12261SOL    HW238681   9.251  11.081   8.911
12262SOL     OW38682   5.549  14.436   4.168
12262SOL    HW138683   5.556  14.531   4.168
12262SOL    HW238684   5.635  14.406   4.138
12263SOL     OW38685   1.036  13.207  11.867
12263SOL    HW138686   1.053  13.189  11.775
12263SOL    HW238687   1.103  13.271  11.892
12264SOL     OW38688   9.492   6.235  14.134
12264SOL    HW138689   9.471   6.278  14.051
12264SOL    HW238690   9.564   6.176  14.113
12265SOL     OW38691   7.540   2.142  10.899
12265SOL    HW138692   7.518   2.064  10.951
12265SOL    HW238693   7.501   2.214  10.947
12266SOL     OW38694   4.397  11.426   7.740
12266SOL    HW138695   4.323  11.366   7.733
12266SOL    HW238696   4.369  11.505   7.692
12267SOL     OW38697   8.112   7.009  12.087
12267SOL    HW138698   8.167   7.018  12.165
12267SOL    HW238699   8.123   6.917  12.062
12268SOL     OW38700  11.473   2.709  14.203
12268SOL    HW138701  11.445   2.710  14.294
12268SOL    HW238702  11.538   2.640  14.198
12269SOL     OW38703   2.010   0.612   3.131
12269SOL    HW138704   2.031   0.552   3.060
12269SOL    HW238705   2.005   0.698   3.089
12270SOL     OW38706  10.636   3.393  11.568
12270SOL    HW138707  10.620   3.395  11.663
12270SOL    HW238708  10.593   3.312  11.539
12271SOL     OW38709   4.850   7.448  10.852
12271SOL    HW138710   4.908   7.439  10.776
12271SOL    HW238711   4.901   7.410  10.924
12272SOL     OW38712  11.395   7.974  14.412
12272SOL    HW138713  11.354   8.059  14.427
12272SOL    HW238714  11.468   7.972  14.474
12273SOL     OW38715   7.272  14.421   5.666
12273SOL    HW138716   7.331  14.374   5.725
12273SOL    HW238717   7.317  14.503   5.648
12274SOL     OW38718  12.417   9.171  13.983
12274SOL    HW138719  12.469   9.186  13.904
12274SOL    HW238720  12.368   9.091  13.965
12275SOL     OW38721   1.548   9.848   9.809
12275SOL    HW138722   1.548   9.869   9.715
12275SOL    HW238723   1.602   9.916   9.848
12276SOL     OW38724  14.491   6.305  13.013
12276SOL    HW138725  14.458   6.382  12.967
12276SOL    HW238726  14.558   6.268  12.955
12277SOL     OW38727  14.443   9.174   0.320
12277SOL    HW138728  14.422   9.266   0.306
12277SOL    HW238729  14.510   9.175   0.389
12278SOL     OW38730   0.747   9.514  14.561
12278SOL    HW138731   0.767   9.532  14.653
12278SOL    HW238732   0.676   9.449  14.564
12279SOL     OW38733  14.135   4.561   0.546
12279SOL    HW138734  14.202   4.495   0.565
12279SOL    HW238735  14.056   4.529   0.591
12280SOL     OW38736   0.424  14.470   5.182
12280SOL    HW138737   0.401  14.435   5.096
12280SOL    HW238738   0.519  14.464   5.185
12281SOL     OW38739  13.312   4.440   2.244
12281SOL    HW138740  13.243   4.461   2.308
12281SOL    HW238741  13.283   4.358   2.205
12282SOL     OW38742   1.049   3.732   4.448
12282SOL    HW138743   1.122   3.714   4.388
12282SOL    HW238744   1.087   3.723   4.536
12283SOL     OW38745   3.751   3.318   4.118
12283SOL    HW138746   3.807   3.389   4.086
12283SOL    HW238747   3.745   3.333   4.212
12284SOL     OW38748  10.209   6.988   2.189
12284SOL    HW138749  10.150   6.949   2.254
12284SOL    HW238750  10.170   6.967   2.105
12285SOL     OW38751   5.525   7.946  11.127
12285SOL    HW138752   5.620   7.945  11.136
12285SOL    HW238753   5.502   7.854  11.114
12286SOL     OW38754   9.426   8.888   7.347
12286SOL    HW138755   9.458   8.851   7.429
12286SOL    HW238756   9.335   8.913   7.366
12287SOL     OW38757   5.677  12.988   4.811
12287SOL    HW138758   5.634  13.071   4.833
12287SOL    HW238759   5.766  13.013   4.789
12288SOL     OW38760  10.974   7.698  11.022
12288SOL    HW138761  11.030   7.757  11.072
12288SOL    HW238762  10.980   7.615  11.068
12289SOL     OW38763  13.416   7.117  10.072
12289SOL    HW138764  13.410   7.211  10.056
12289SOL    HW238765  13.366   7.077  10.001
12290SOL     OW38766   5.911   3.575   0.274
12290SOL    HW138767   5.867   3.657   0.254
12290SOL    HW238768   5.988   3.601   0.324
12291SOL     OW38769   4.221  14.388   5.342
12291SOL    HW138770   4.288  14.354   5.283
12291SOL    HW238771   4.269  14.444   5.403
12292SOL     OW38772  13.953   8.412   7.188
12292SOL    HW138773  14.041   8.447   7.199
12292SOL    HW238774  13.898   8.465   7.246
12293SOL     OW38775  13.983   9.030   0.286
12293SOL    HW138776  14.049   9.089   0.321
12293SOL    HW238777  13.973   8.962   0.353
12294SOL     OW38778  10.398   0.330   4.893
12294SOL    HW138779  10.391   0.298   4.983
12294SOL    HW238780  10.426   0.254   4.843
12295SOL     OW38781   3.120   1.404  13.842
12295SOL    HW138782   3.157   1.344  13.908
12295SOL    HW238783   3.073   1.346  13.782
12296SOL     OW38784  13.534   7.722  10.899
12296SOL    HW138785  13.524   7.627  10.894
12296SOL    HW238786  13.445   7.756  10.892
12297SOL     OW38787  13.673   3.258  13.943
12297SOL    HW138788  13.698   3.283  13.855
12297SOL    HW238789  13.662   3.163  13.938
12298SOL     OW38790   0.689  11.248   4.491
12298SOL    HW138791   0.638  11.216   4.416
12298SOL    HW238792   0.776  11.209   4.480
12299SOL     OW38793   9.096   4.265   2.585
12299SOL    HW138794   9.049   4.271   2.502
12299SOL    HW238795   9.164   4.332   2.579
12300SOL     OW38796   6.541  10.172   0.225
12300SOL    HW138797   6.579  10.191   0.139
12300SOL    HW238798   6.616  10.146   0.279
12301SOL     OW38799   4.375  12.168  10.964
12301SOL    HW138800   4.332  12.254  10.958
12301SOL    HW238801   4.468  12.188  10.954
12302SOL     OW38802   8.858   2.653  12.935
12302SOL    HW138803   8.857   2.669  13.029
12302SOL    HW238804   8.765   2.646  12.911
12303SOL     OW38805   7.121   8.078   2.889
12303SOL    HW138806   7.151   8.003   2.838
12303SOL    HW238807   7.042   8.107   2.843
12304SOL     OW38808   0.622  10.977  14.524
12304SOL    HW138809   0.582  10.896  14.555
12304SOL    HW238810   0.580  10.993  14.439
12305SOL     OW38811   8.265   7.357   1.714
12305SOL    HW138812   8.274   7.444   1.754
12305SOL    HW238813   8.219   7.306   1.780
12306SOL     OW38814   7.531  10.718   3.931
12306SOL    HW138815   7.531  10.805   3.969
12306SOL    HW238816   7.559  10.660   4.001
12307SOL     OW38817   7.009  11.780   1.565
12307SOL    HW138818   7.063  11.765   1.486
12307SOL    HW238819   7.073  11.795   1.635
12308SOL     OW38820   1.112   3.174  12.896
12308SOL    HW138821   1.023   3.184  12.864
12308SOL    HW238822   1.165   3.159  12.818
12309SOL     OW38823  13.748   6.392   2.172
12309SOL    HW138824  13.763   6.412   2.079
12309SOL    HW238825  13.656   6.413   2.187
12310SOL     OW38826  11.446  12.637   8.134
12310SOL    HW138827  11.511  12.708   8.138
12310SOL    HW238828  11.496  12.558   8.152
12311SOL     OW38829  11.172  13.132   2.422
12311SOL    HW138830  11.152  13.225   2.412
12311SOL    HW238831  11.174  13.098   2.332
12312SOL     OW38832   1.209   1.166   9.251
12312SOL    HW138833   1.180   1.078   9.274
12312SOL    HW238834   1.133   1.221   9.266
12313SOL     OW38835  11.782   4.109   8.364
12313SOL    HW138836  11.745   4.171   8.302
12313SOL    HW238837  11.716   4.100   8.433
12314SOL     OW38838  13.264   8.649  12.960
12314SOL    HW138839  13.204   8.676  13.030
12314SOL    HW238840  13.235   8.697  12.883
12315SOL     OW38841   4.539   6.210   7.794
12315SOL    HW138842   4.634   6.208   7.806
12315SOL    HW238843   4.522   6.294   7.751
12316SOL     OW38844  13.804   4.741   6.973
12316SOL    HW138845  13.871   4.695   6.924
12316SOL    HW238846  13.793   4.825   6.928
12317SOL     OW38847   4.921   6.024   9.933
12317SOL    HW138848   4.834   6.004   9.898
12317SOL    HW238849   4.970   5.942   9.923
12318SOL     OW38850  12.786   8.611  11.793
12318SOL    HW138851  12.744   8.690  11.758
12318SOL    HW238852  12.722   8.575  11.854
12319SOL     OW38853   2.601   6.337  13.751
12319SOL    HW138854   2.513   6.362  13.721
12319SOL    HW238855   2.589   6.313  13.843
12320SOL     OW38856  11.870   8.582   3.215
12320SOL    HW138857  11.811   8.568   3.289
12320SOL    HW238858  11.847   8.668   3.181
12321SOL     OW38859   9.670  12.953   9.274
12321SOL    HW138860   9.755  12.911   9.283
12321SOL    HW238861   9.674  13.028   9.334
12322SOL     OW38862  13.621  10.341   4.534
12322SOL    HW138863  13.554  10.376   4.593
12322SOL    HW238864  13.702  10.348   4.584
12323SOL     OW38865   4.840   6.940   9.550
12323SOL    HW138866   4.779   6.934   9.477
12323SOL    HW238867   4.871   6.850   9.563
12324SOL     OW38868   8.552   4.373   8.707
12324SOL    HW138869   8.493   4.376   8.631
12324SOL    HW238870   8.498   4.338   8.778
12325SOL     OW38871   8.229   2.935   1.937
12325SOL    HW138872   8.177   2.875   1.990
12325SOL    HW238873   8.178   3.015   1.934
12326SOL     OW38874   1.458  11.531   7.884
12326SOL    HW138875   1.378  11.574   7.914
12326SOL    HW238876   1.458  11.543   7.789
12327SOL     OW38877   9.101  11.105   5.752
12327SOL    HW138878   9.122  11.170   5.685
12327SOL    HW238879   9.013  11.129   5.782
12328SOL     OW38880  11.180   3.404   0.756
12328SOL    HW138881  11.234   3.480   0.776
12328SOL    HW238882  11.091   3.432   0.778
12329SOL     OW38883   4.366   3.590  14.466
12329SOL    HW138884   4.343   3.682  14.479
12329SOL    HW238885   4.303   3.558  14.402
12330SOL     OW38886  11.611  11.884   4.914
12330SOL    HW138887  11.559  11.901   4.992
12330SOL    HW238888  11.665  11.963   4.903
12331SOL     OW38889   7.966   3.142   7.656
12331SOL    HW138890   7.984   3.081   7.584
12331SOL    HW238891   7.885   3.187   7.629
12332SOL     OW38892  12.947   3.641  12.699
12332SOL    HW138893  13.025   3.597  12.663
12332SOL    HW238894  12.895   3.663  12.622
12333SOL     OW38895   9.542   4.734   8.560
12333SOL    HW138896   9.582   4.750   8.475
12333SOL    HW238897   9.453   4.704   8.539
12334SOL     OW38898  14.807   9.940   6.678
12334SOL    HW138899  14.866   9.909   6.609
12334SOL    HW238900  14.864   9.958   6.753
12335SOL     OW38901   8.211   1.549   0.390
12335SOL    HW138902   8.174   1.471   0.349
12335SOL    HW238903   8.135   1.604   0.411
12336SOL     OW38904   3.155   2.829   5.967
12336SOL    HW138905   3.197   2.862   6.047
12336SOL    HW238906   3.221   2.773   5.927
12337SOL     OW38907   8.483   9.681   5.915
12337SOL    HW138908   8.427   9.685   5.837
12337SOL    HW238909   8.470   9.593   5.949
12338SOL     OW38910  13.874  11.898  11.382
12338SOL    HW138911  13.820  11.884  11.304
12338SOL    HW238912  13.899  11.990  11.379
12339SOL     OW38913   6.030   3.350  13.840
12339SOL    HW138914   6.047   3.401  13.919
12339SOL    HW238915   6.116   3.319  13.811
12340SOL     OW38916   5.408   0.967   4.892
12340SOL    HW138917   5.502   0.951   4.888
12340SOL    HW238918   5.369   0.894   4.843
12341SOL     OW38919   8.351   8.015  14.730
12341SOL    HW138920   8.358   7.920  14.726
12341SOL    HW238921   8.409   8.047  14.661
12342SOL     OW38922   3.476   0.704   5.529
12342SOL    HW138923   3.571   0.722   5.528
12342SOL    HW238924   3.470   0.608   5.532
12343SOL     OW38925  13.037   9.282  13.177
12343SOL    HW138926  13.038   9.186  13.175
12343SOL    HW238927  13.116   9.308  13.130
12344SOL     OW38928  13.421  14.430   2.124
12344SOL    HW138929  13.414  14.514   2.170
12344SOL    HW238930  13.451  14.452   2.036
12345SOL     OW38931   1.304   2.246   6.951
12345SOL    HW138932   1.290   2.285   7.038
12345SOL    HW238933   1.295   2.320   6.891
12346SOL     OW38934   9.301  13.034  11.709
12346SOL    HW138935   9.270  13.066  11.794
12346SOL    HW238936   9.395  13.018  11.723
12347SOL     OW38937   4.326   5.453  13.701
12347SOL    HW138938   4.381   5.468  13.623
12347SOL    HW238939   4.309   5.541  13.735
12348SOL     OW38940   7.571   7.865  14.665
12348SOL    HW138941   7.643   7.811  14.698
12348SOL    HW238942   7.607   7.909  14.588
12349SOL     OW38943  10.977   2.510   5.452
12349SOL    HW138944  10.905   2.562   5.488
12349SOL    HW238945  11.051   2.571   5.448
12350SOL     OW38946   3.430   7.778  14.616
12350SOL    HW138947   3.437   7.707  14.551
12350SOL    HW238948   3.456   7.856  14.568
12351SOL     OW38949   2.015   3.330   8.091
12351SOL    HW138950   2.001   3.382   8.170
12351SOL    HW238951   2.042   3.393   8.025
12352SOL     OW38952   6.988   8.911   2.832
12352SOL    HW138953   7.075   8.946   2.815
12352SOL    HW238954   6.993   8.875   2.921
12353SOL     OW38955  14.026   5.444   0.736
12353SOL    HW138956  13.936   5.442   0.770
12353SOL    HW238957  14.050   5.536   0.738
12354SOL     OW38958  10.903   3.665   3.255
12354SOL    HW138959  10.980   3.657   3.199
12354SOL    HW238960  10.894   3.759   3.270
12355SOL     OW38961   2.856   0.085  13.406
12355SOL    HW138962   2.876   0.004  13.359
12355SOL    HW238963   2.779   0.063  13.460
12356SOL     OW38964   3.398  14.159   2.559
12356SOL    HW138965   3.319  14.157   2.505
12356SOL    HW238966   3.366  14.145   2.648
12357SOL     OW38967   5.617   7.831  13.792
12357SOL    HW138968   5.540   7.789  13.831
12357SOL    HW238969   5.596   7.924  13.792
12358SOL     OW38970  13.628   8.307   2.227
12358SOL    HW138971  13.717   8.312   2.261
12358SOL    HW238972  13.580   8.375   2.275
12359SOL     OW38973   8.543   9.331   4.025
12359SOL    HW138974   8.553   9.422   4.053
12359SOL    HW238975   8.602   9.282   4.083
12360SOL     OW38976   5.917  13.535  10.748
12360SOL    HW138977   5.877  13.622  10.744
12360SOL    HW238978   5.926  13.508  10.657
12361SOL     OW38979   9.210   8.757  14.567
12361SOL    HW138980   9.170   8.720  14.489
12361SOL    HW238981   9.272   8.690  14.597
12362SOL     OW38982   8.041  14.266  13.930
12362SOL    HW138983   8.088  14.332  13.981
12362SOL    HW238984   7.949  14.280  13.952
12363SOL     OW38985  14.629  10.710   4.014
12363SOL    HW138986  14.539  10.738   3.997
12363SOL    HW238987  14.672  10.787   4.051
12364SOL     OW38988   0.205   2.198   8.676
12364SOL    HW138989   0.259   2.119   8.674
12364SOL    HW238990   0.186   2.212   8.769
12365SOL     OW38991   8.683   6.152   5.515
12365SOL    HW138992   8.626   6.158   5.438
12365SOL    HW238993   8.731   6.235   5.515
12366SOL     OW38994   4.231   4.874   7.867
12366SOL    HW138995   4.155   4.840   7.819
12366SOL    HW238996   4.307   4.840   7.820
12367SOL     OW38997  12.871  12.957  10.006
12367SOL    HW138998  12.788  12.958   9.958
12367SOL    HW238999  12.873  13.041  10.053
12368SOL     OW39000   6.454   3.639   7.747
12368SOL    HW139001   6.381   3.620   7.687
12368SOL    HW239002   6.480   3.728   7.724
12369SOL     OW39003   5.830   8.965   3.595
12369SOL    HW139004   5.851   9.051   3.558
12369SOL    HW239005   5.913   8.933   3.630
12370SOL     OW39006   1.513  12.710   7.716
12370SOL    HW139007   1.547  12.792   7.682
12370SOL    HW239008   1.487  12.730   7.806
12371SOL     OW39009   4.334   8.604  13.936
12371SOL    HW139010   4.425   8.634  13.929
12371SOL    HW239011   4.339   8.509  13.924
12372SOL     OW39012  14.322   2.574   9.889
12372SOL    HW139013  14.307   2.654   9.838
12372SOL    HW239014  14.399   2.594   9.942
12373SOL     OW39015  10.440  13.738   9.738
12373SOL    HW139016  10.385  13.662   9.756
12373SOL    HW239017  10.378  13.809   9.725
12374SOL     OW39018  14.153   8.271   0.659
12374SOL    HW139019  14.098   8.346   0.638
12374SOL    HW239020  14.234   8.286   0.610
12375SOL     OW39021  10.824  10.214   5.844
12375SOL    HW139022  10.863  10.128   5.857
12375SOL    HW239023  10.816  10.250   5.932
12376SOL     OW39024   6.617  11.782  12.150
12376SOL    HW139025   6.689  11.720  12.162
12376SOL    HW239026   6.539  11.727  12.147
12377SOL     OW39027   3.621  12.290  11.719
12377SOL    HW139028   3.713  12.268  11.704
12377SOL    HW239029   3.606  12.368  11.665
12378SOL     OW39030  14.181  11.321   8.460
12378SOL    HW139031  14.207  11.289   8.373
12378SOL    HW239032  14.109  11.264   8.485
12379SOL     OW39033   9.081   2.245  10.602
12379SOL    HW139034   9.051   2.196  10.679
12379SOL    HW239035   9.020   2.319  10.596
12380SOL     OW39036   1.265   8.625   7.193
12380SOL    HW139037   1.354   8.615   7.157
12380SOL    HW239038   1.239   8.537   7.219
12381SOL     OW39039   3.931  10.990   2.415
12381SOL    HW139040   3.894  10.903   2.397
12381SOL    HW239041   3.969  11.017   2.331
12382SOL     OW39042   9.677   4.236   8.170
12382SOL    HW139043   9.625   4.188   8.235
12382SOL    HW239044   9.613   4.291   8.124
12383SOL     OW39045  11.068  10.961   8.033
12383SOL    HW139046  11.143  10.906   8.050
12383SOL    HW239047  11.088  11.044   8.076
12384SOL     OW39048   0.103   9.738  11.873
12384SOL    HW139049   0.106   9.826  11.837
12384SOL    HW239050   0.126   9.749  11.965
12385SOL     OW39051   5.468   3.987  12.335
12385SOL    HW139052   5.544   3.978  12.277
12385SOL    HW239053   5.503   3.977  12.423
12386SOL     OW39054   2.211   4.819  11.014
12386SOL    HW139055   2.233   4.879  11.086
12386SOL    HW239056   2.128   4.853  10.980
12387SOL     OW39057   9.956  14.872   1.870
12387SOL    HW139058   9.918  14.790   1.837
12387SOL    HW239059  10.026  14.844   1.930
12388SOL     OW39060  10.894   5.567   7.827
12388SOL    HW139061  10.842   5.583   7.906
12388SOL    HW239062  10.923   5.653   7.799
12389SOL     OW39063   8.489  12.341   7.889
12389SOL    HW139064   8.547  12.389   7.948
12389SOL    HW239065   8.515  12.249   7.900
12390SOL     OW39066   6.408  10.736   4.195
12390SOL    HW139067   6.344  10.711   4.128
12390SOL    HW239068   6.485  10.683   4.176
12391SOL     OW39069   7.160   7.634   0.012
12391SOL    HW139070   7.256   7.637   0.021
12391SOL    HW239071   7.129   7.616   0.101
12392SOL     OW39072   4.347  10.926   3.384
12392SOL    HW139073   4.365  10.849   3.437
12392SOL    HW239074   4.358  10.896   3.293
12393SOL     OW39075   8.209   9.563   1.167
12393SOL    HW139076   8.264   9.582   1.092
12393SOL    HW239077   8.193   9.649   1.207
12394SOL     OW39078   8.789  10.399   0.595
12394SOL    HW139079   8.846  10.420   0.668
12394SOL    HW239080   8.756  10.483   0.564
12395SOL     OW39081   8.475  13.529   0.221
12395SOL    HW139082   8.466  13.578   0.303
12395SOL    HW239083   8.390  13.540   0.177
12396SOL     OW39084  12.602   1.383   6.460
12396SOL    HW139085  12.521   1.379   6.410
12396SOL    HW239086  12.638   1.469   6.440
12397SOL     OW39087   6.946   2.118   2.224
12397SOL    HW139088   7.001   2.097   2.299
12397SOL    HW239089   6.996   2.086   2.149
12398SOL     OW39090   7.138   8.840   0.834
12398SOL    HW139091   7.198   8.904   0.797
12398SOL    HW239092   7.176   8.818   0.919
12399SOL     OW39093   8.253   5.655   2.251
12399SOL    HW139094   8.212   5.742   2.250
12399SOL    HW239095   8.188   5.599   2.293
12400SOL     OW39096   3.448  10.338   2.938
12400SOL    HW139097   3.502  10.277   2.888
12400SOL    HW239098   3.414  10.399   2.873
12401SOL     OW39099   9.169   4.156   1.320
12401SOL    HW139100   9.082   4.117   1.323
12401SOL    HW239101   9.229   4.082   1.319
12402SOL     OW39102   4.079   8.767  10.928
12402SOL    HW139103   4.048   8.820  11.001
12402SOL    HW239104   4.028   8.686  10.935
12403SOL     OW39105   9.410   3.674   6.119
12403SOL    HW139106   9.389   3.764   6.142
12403SOL    HW239107   9.445   3.635   6.199
12404SOL     OW39108   8.238   3.882   1.299
12404SOL    HW139109   8.191   3.921   1.226
12404SOL    HW239110   8.171   3.867   1.366
12405SOL     OW39111  13.767  10.290   0.769
12405SOL    HW139112  13.800  10.324   0.686
12405SOL    HW239113  13.842  10.293   0.827
12406SOL     OW39114   9.862   8.861   1.678
12406SOL    HW139115   9.903   8.933   1.728
12406SOL    HW239116   9.791   8.830   1.735
12407SOL     OW39117   1.820   8.710   3.528
12407SOL    HW139118   1.888   8.704   3.595
12407SOL    HW239119   1.858   8.668   3.451
12408SOL     OW39120   7.547  11.578   1.534
12408SOL    HW139121   7.501  11.595   1.452
12408SOL    HW239122   7.546  11.483   1.543
12409SOL     OW39123  12.630   5.905   5.737
12409SOL    HW139124  12.621   5.946   5.651
12409SOL    HW239125  12.715   5.934   5.768
12410SOL     OW39126   3.948   0.500  11.339
12410SOL    HW139127   4.020   0.472  11.395
12410SOL    HW239128   3.951   0.596  11.341
12411SOL     OW39129   6.186  10.146   4.334
12411SOL    HW139130   6.138  10.227   4.318
12411SOL    HW239131   6.117  10.081   4.350
12412SOL     OW39132  14.164  11.498   3.110
12412SOL    HW139133  14.111  11.435   3.158
12412SOL    HW239134  14.233  11.524   3.171
12413SOL     OW39135  13.090  10.647   1.080
12413SOL    HW139136  13.070  10.564   1.124
12413SOL    HW239137  13.147  10.624   1.007
12414SOL     OW39138  12.276   9.174  11.412
12414SOL    HW139139  12.352   9.225  11.442
12414SOL    HW239140  12.313   9.111  11.351
12415SOL     OW39141  10.184  14.334  11.480
12415SOL    HW139142  10.198  14.422  11.443
12415SOL    HW239143  10.224  14.339  11.567
12416SOL     OW39144  14.567  10.492   8.675
12416SOL    HW139145  14.603  10.433   8.742
12416SOL    HW239146  14.482  10.454   8.653
12417SOL     OW39147  12.101   4.931   8.541
12417SOL    HW139148  12.120   4.843   8.506
12417SOL    HW239149  12.017   4.955   8.502
12418SOL     OW39150   0.952   0.934   0.374
12418SOL    HW139151   0.992   0.922   0.460
12418SOL    HW239152   0.968   0.851   0.329
12419SOL     OW39153   8.464   5.965  14.109
12419SOL    HW139154   8.486   6.001  14.195
12419SOL    HW239155   8.465   6.040  14.050
12420SOL     OW39156   1.821   1.813  12.197
12420SOL    HW139157   1.885   1.772  12.138
12420SOL    HW239158   1.782   1.740  12.245
12421SOL     OW39159  10.454   4.402   1.446
12421SOL    HW139160  10.408   4.320   1.465
12421SOL    HW239161  10.385   4.460   1.412
12422SOL     OW39162  13.371  13.240   4.028
12422SOL    HW139163  13.352  13.329   3.998
12422SOL    HW239164  13.467  13.235   4.029
12423SOL     OW39165   1.280  14.409   9.897
12423SOL    HW139166   1.356  14.419   9.841
12423SOL    HW239167   1.294  14.325   9.941
12424SOL     OW39168   2.611   3.465   9.062
12424SOL    HW139169   2.657   3.436   8.983
12424SOL    HW239170   2.646   3.552   9.080
12425SOL     OW39171   0.672   5.735   7.022
12425SOL    HW139172   0.746   5.795   7.022
12425SOL    HW239173   0.710   5.649   7.042
12426SOL     OW39174   0.789   6.526   7.703
12426SOL    HW139175   0.867   6.549   7.653
12426SOL    HW239176   0.744   6.609   7.718
12427SOL     OW39177   7.217  14.135  14.399
12427SOL    HW139178   7.220  14.229  14.419
12427SOL    HW239179   7.295  14.099  14.443
12428SOL     OW39180   7.100   3.844   9.149
12428SOL    HW139181   7.018   3.823   9.106
12428SOL    HW239182   7.096   3.939   9.164
12429SOL     OW39183   0.247  14.424   5.921
12429SOL    HW139184   0.233  14.331   5.903
12429SOL    HW239185   0.340  14.431   5.942
12430SOL     OW39186   0.095   4.983  11.952
12430SOL    HW139187   0.099   4.971  12.047
12430SOL    HW239188   0.024   4.925  11.924
12431SOL     OW39189   3.586   0.017  10.022
12431SOL    HW139190   3.526  14.873  10.089
12431SOL    HW239191   3.609   0.105  10.051
12432SOL     OW39192   9.670   9.606   9.992
12432SOL    HW139193   9.589   9.658  10.003
12432SOL    HW239194   9.639   9.516   9.982
12433SOL     OW39195  10.524   6.102   6.650
12433SOL    HW139196  10.610   6.131   6.620
12433SOL    HW239197  10.523   6.125   6.743
12434SOL     OW39198   5.453   9.770  13.380
12434SOL    HW139199   5.455   9.798  13.472
12434SOL    HW239200   5.394   9.695  13.380
12435SOL     OW39201   7.691  14.290   0.594
12435SOL    HW139202   7.781  14.268   0.621
12435SOL    HW239203   7.636  14.244   0.657
12436SOL     OW39204   7.166  14.844   8.710
12436SOL    HW139205   7.078  14.870   8.684
12436SOL    HW239206   7.195   0.026   8.769
12437SOL     OW39207   5.213   5.493  12.441
12437SOL    HW139208   5.244   5.415  12.394
12437SOL    HW239209   5.293   5.540  12.464
12438SOL     OW39210   9.694  12.890  12.952
12438SOL    HW139211   9.705  12.979  12.918
12438SOL    HW239212   9.689  12.835  12.874
12439SOL     OW39213   5.907   4.442   5.866
12439SOL    HW139214   5.896   4.347   5.863
12439SOL    HW239215   5.897   4.470   5.775
12440SOL     OW39216   2.972   9.021   4.075
12440SOL    HW139217   2.911   9.080   4.118
12440SOL    HW239218   2.934   9.003   3.990
12441SOL     OW39219   5.557  14.083   4.971
12441SOL    HW139220   5.631  14.057   4.916
12441SOL    HW239221   5.482  14.084   4.911
12442SOL     OW39222   2.380   0.366   0.438
12442SOL    HW139223   2.298   0.388   0.394
12442SOL    HW239224   2.381   0.421   0.517
12443SOL     OW39225   9.694   7.268   7.827
12443SOL    HW139226   9.755   7.221   7.771
12443SOL    HW239227   9.742   7.282   7.909
12444SOL     OW39228   6.628   8.295   1.245
12444SOL    HW139229   6.582   8.379   1.250
12444SOL    HW239230   6.558   8.229   1.244
12445SOL     OW39231   5.284  12.946   6.755
12445SOL    HW139232   5.281  13.008   6.828
12445SOL    HW239233   5.194  12.914   6.746
12446SOL     OW39234  11.677   2.781  14.014
12446SOL    HW139235  11.603   2.772  14.074
12446SOL    HW239236  11.666   2.708  13.952
12447SOL     OW39237  13.337  11.600  13.112
12447SOL    HW139238  13.361  11.692  13.122
12447SOL    HW239239  13.340  11.565  13.201
12448SOL     OW39240   4.308   7.048   1.548
12448SOL    HW139241   4.339   7.138   1.558
12448SOL    HW239242   4.386   6.995   1.562
12449SOL     OW39243   9.235  10.064  11.482
12449SOL    HW139244   9.187  10.132  11.435
12449SOL    HW239245   9.271  10.109  11.559
12450SOL     OW39246   9.832  10.600   1.447
12450SOL    HW139247   9.749  10.604   1.399
12450SOL    HW239248   9.867  10.688   1.440
12451SOL     OW39249   4.806  12.602   3.374
12451SOL    HW139250   4.815  12.535   3.442
12451SOL    HW239251   4.872  12.668   3.397
12452SOL     OW39252   6.743   2.960  11.897
12452SOL    HW139253   6.749   2.931  11.806
12452SOL    HW239254   6.754   2.880  11.949
12453SOL     OW39255   8.807   1.240   4.444
12453SOL    HW139256   8.882   1.292   4.474
12453SOL    HW239257   8.805   1.254   4.349
12454SOL     OW39258   6.044  11.471   3.485
12454SOL    HW139259   6.011  11.422   3.409
12454SOL    HW239260   6.014  11.560   3.472
12455SOL     OW39261  12.403  10.511   4.716
12455SOL    HW139262  12.366  10.586   4.762
12455SOL    HW239263  12.329  10.469   4.673
12456SOL     OW39264   3.652   4.510   7.101
12456SOL    HW139265   3.681   4.420   7.086
12456SOL    HW239266   3.594   4.504   7.177
12457SOL     OW39267   4.417  12.972   0.331
12457SOL    HW139268   4.498  13.013   0.302
12457SOL    HW239269   4.392  13.020   0.410
12458SOL     OW39270   6.542  13.236   1.405
12458SOL    HW139271   6.520  13.325   1.378
12458SOL    HW239272   6.500  13.225   1.491
12459SOL     OW39273  13.211   1.154  10.814
12459SOL    HW139274  13.293   1.180  10.771
12459SOL    HW239275  13.196   1.064  10.783
12460SOL     OW39276   6.670   7.388  11.667
12460SOL    HW139277   6.606   7.381  11.597
12460SOL    HW239278   6.626   7.351  11.744
12461SOL     OW39279  13.220  12.194  11.307
12461SOL    HW139280  13.265  12.279  11.300
12461SOL    HW239281  13.250  12.144  11.231
12462SOL     OW39282  11.246   8.424   4.102
12462SOL    HW139283  11.332   8.416   4.144
12462SOL    HW239284  11.192   8.358   4.147
12463SOL     OW39285   6.979  12.680  10.081
12463SOL    HW139286   6.923  12.630  10.021
12463SOL    HW239287   7.064  12.682  10.038
12464SOL     OW39288   8.718   9.876   8.058
12464SOL    HW139289   8.719   9.927   7.977
12464SOL    HW239290   8.648   9.812   8.045
12465SOL     OW39291  11.511   1.954  11.292
12465SOL    HW139292  11.477   1.920  11.209
12465SOL    HW239293  11.437   1.950  11.352
12466SOL     OW39294   1.846  11.041   4.137
12466SOL    HW139295   1.918  10.999   4.184
12466SOL    HW239296   1.767  11.017   4.186
12467SOL     OW39297   1.649   2.431   6.936
12467SOL    HW139298   1.637   2.345   6.976
12467SOL    HW239299   1.667   2.412   6.844
12468SOL     OW39300  10.000   8.983   3.106
12468SOL    HW139301  10.016   8.907   3.050
12468SOL    HW239302  10.082   8.994   3.154
12469SOL     OW39303   2.049   2.775  14.131
12469SOL    HW139304   2.089   2.851  14.088
12469SOL    HW239305   2.111   2.751  14.199
12470SOL     OW39306   0.742   3.492   0.586
12470SOL    HW139307   0.745   3.580   0.623
12470SOL    HW239308   0.787   3.500   0.501
12471SOL     OW39309  11.287   9.602   2.311
12471SOL    HW139310  11.372   9.644   2.302
12471SOL    HW239311  11.292   9.552   2.393
12472SOL     OW39312   8.818   5.095   9.880
12472SOL    HW139313   8.814   5.185   9.846
12472SOL    HW239314   8.808   5.040   9.803
12473SOL     OW39315   4.726  14.297  13.873
12473SOL    HW139316   4.770  14.255  13.946
12473SOL    HW239317   4.686  14.225  13.824
12474SOL     OW39318   3.175   9.985  11.453
12474SOL    HW139319   3.143  10.075  11.459
12474SOL    HW239320   3.135   9.941  11.528
12475SOL     OW39321  11.916  13.923  12.464
12475SOL    HW139322  11.852  13.993  12.477
12475SOL    HW239323  11.985  13.964  12.411
12476SOL     OW39324   9.689   8.851  11.897
12476SOL    HW139325   9.730   8.856  11.983
12476SOL    HW239326   9.758   8.819  11.840
12477SOL     OW39327  14.155  14.582   7.972
12477SOL    HW139328  14.171  14.653   7.910
12477SOL    HW239329  14.060  14.578   7.979
12478SOL     OW39330   9.673   1.754   2.753
12478SOL    HW139331   9.589   1.785   2.722
12478SOL    HW239332   9.674   1.775   2.846
12479SOL     OW39333   0.096  10.948   1.798
12479SOL    HW139334   0.083  10.967   1.891
12479SOL    HW239335   0.124  10.857   1.795
12480SOL     OW39336   1.004  12.827   8.197
12480SOL    HW139337   0.987  12.861   8.109
12480SOL    HW239338   0.921  12.788   8.224
12481SOL     OW39339   6.890   3.993   6.119
12481SOL    HW139340   6.977   4.034   6.120
12481SOL    HW239341   6.888   3.943   6.038
12482SOL     OW39342  13.194  11.319  13.345
12482SOL    HW139343  13.116  11.369  13.369
12482SOL    HW239344  13.184  11.302  13.251
12483SOL     OW39345  13.650   6.362   4.476
12483SOL    HW139346  13.723   6.374   4.537
12483SOL    HW239347  13.683   6.300   4.411
12484SOL     OW39348  14.362   9.986  12.847
12484SOL    HW139349  14.427  10.045  12.809
12484SOL    HW239350  14.346   9.920  12.780
12485SOL     OW39351   3.509   2.513   2.449
12485SOL    HW139352   3.418   2.494   2.424
12485SOL    HW239353   3.554   2.429   2.443
12486SOL     OW39354   7.030  14.058   7.237
12486SOL    HW139355   7.115  14.098   7.223
12486SOL    HW239356   6.968  14.131   7.230
12487SOL     OW39357   6.789   0.938  10.198
12487SOL    HW139358   6.750   0.943  10.286
12487SOL    HW239359   6.872   0.984  10.205
12488SOL     OW39360   6.284  12.697   0.589
12488SOL    HW139361   6.274  12.744   0.671
12488SOL    HW239362   6.334  12.619   0.612
12489SOL     OW39363  10.946   8.232   6.956
12489SOL    HW139364  10.886   8.257   6.886
12489SOL    HW239365  10.944   8.136   6.956
12490SOL     OW39366  13.281   5.624   9.502
12490SOL    HW139367  13.213   5.673   9.549
12490SOL    HW239368  13.344   5.601   9.570
12491SOL     OW39369   0.640  11.004   1.925
12491SOL    HW139370   0.603  11.014   2.013
12491SOL    HW239371   0.731  10.980   1.941
12492SOL     OW39372   6.703   7.484   8.924
12492SOL    HW139373   6.628   7.465   8.867
12492SOL    HW239374   6.728   7.398   8.959
12493SOL     OW39375   5.494  10.022   8.040
12493SOL    HW139376   5.436   9.994   8.111
12493SOL    HW239377   5.558   9.951   8.033
12494SOL     OW39378   9.005  14.814   1.444
12494SOL    HW139379   8.936  14.841   1.383
12494SOL    HW239380   9.074  14.880   1.432
12495SOL     OW39381   7.679  10.284  11.252
12495SOL    HW139382   7.713  10.263  11.165
12495SOL    HW239383   7.605  10.224  11.263
12496SOL     OW39384  11.255   6.492   8.925
12496SOL    HW139385  11.214   6.576   8.946
12496SOL    HW239386  11.182   6.433   8.907
12497SOL     OW39387   7.005  13.296   3.780
12497SOL    HW139388   7.018  13.300   3.874
12497SOL    HW239389   7.000  13.202   3.761
12498SOL     OW39390   4.595   6.739   4.439
12498SOL    HW139391   4.570   6.647   4.440
12498SOL    HW239392   4.573   6.771   4.527
12499SOL     OW39393  12.661   8.269  13.986
12499SOL    HW139394  12.668   8.178  13.960
12499SOL    HW239395  12.577   8.276  14.031
12500SOL     OW39396   4.052   6.812   4.101
12500SOL    HW139397   4.081   6.856   4.022
12500SOL    HW239398   4.105   6.851   4.171
12501SOL     OW39399  14.183  12.406   2.323
12501SOL    HW139400  14.108  12.449   2.282
12501SOL    HW239401  14.238  12.379   2.250
12502SOL     OW39402  11.382   6.743   4.969
12502SOL    HW139403  11.314   6.758   5.034
12502SOL    HW239404  11.336   6.738   4.885
12503SOL     OW39405  10.768   3.604   8.816
12503SOL    HW139406  10.691   3.598   8.873
12503SOL    HW239407  10.766   3.693   8.783
12504SOL     OW39408  11.647   3.455   5.936
12504SOL    HW139409  11.647   3.377   5.993
12504SOL    HW239410  11.710   3.514   5.977
12505SOL     OW39411   8.185   8.241   3.181
12505SOL    HW139412   8.157   8.267   3.093
12505SOL    HW239413   8.180   8.146   3.181
12506SOL     OW39414   9.659   0.617   7.591
12506SOL    HW139415   9.663   0.550   7.660
12506SOL    HW239416   9.741   0.664   7.598
12507SOL     OW39417   9.978   8.986   7.379
12507SOL    HW139418   9.979   9.078   7.350
12507SOL    HW239419   9.951   8.990   7.471
12508SOL     OW39420   4.883   1.150   4.135
12508SOL    HW139421   4.835   1.166   4.054
12508SOL    HW239422   4.884   1.234   4.180
12509SOL     OW39423   0.551   1.340  11.763
12509SOL    HW139424   0.456   1.341  11.752
12509SOL    HW239425   0.582   1.274  11.701
12510SOL     OW39426   5.641   1.479   9.039
12510SOL    HW139427   5.620   1.386   9.045
12510SOL    HW239428   5.654   1.495   8.946
12511SOL     OW39429  10.420   8.358  14.505
12511SOL    HW139430  10.340   8.403  14.478
12511SOL    HW239431  10.390   8.273  14.536
12512SOL     OW39432   9.860   7.520   8.229
12512SOL    HW139433   9.931   7.471   8.270
12512SOL    HW239434   9.802   7.543   8.302
12513SOL     OW39435   1.677   0.430   8.428
12513SOL    HW139436   1.643   0.366   8.365
12513SOL    HW239437   1.609   0.434   8.496
12514SOL     OW39438   7.771   1.967   4.716
12514SOL    HW139439   7.824   1.928   4.785
12514SOL    HW239440   7.812   1.937   4.635
12515SOL     OW39441  10.239   3.913   7.160
12515SOL    HW139442  10.196   3.905   7.075
12515SOL    HW239443  10.223   3.829   7.203
12516SOL     OW39444  13.154   9.109   9.405
12516SOL    HW139445  13.124   9.143   9.321
12516SOL    HW239446  13.183   9.020   9.387
12517SOL     OW39447   4.877   5.203   0.437
12517SOL    HW139448   4.786   5.194   0.465
12517SOL    HW239449   4.877   5.282   0.382
12518SOL     OW39450   5.162   3.631   5.692
12518SOL    HW139451   5.135   3.541   5.710
12518SOL    HW239452   5.239   3.623   5.636
12519SOL     OW39453   7.248   2.756  10.605
12519SOL    HW139454   7.194   2.818  10.557
12519SOL    HW239455   7.229   2.671  10.564
12520SOL     OW39456  10.939  12.346   7.908
12520SOL    HW139457  10.895  12.267   7.939
12520SOL    HW239458  10.908  12.415   7.966
12521SOL     OW39459   9.817  13.102  12.483
12521SOL    HW139460   9.774  13.050  12.550
12521SOL    HW239461   9.910  13.080  12.491
12522SOL     OW39462  13.310   2.289   3.644
12522SOL    HW139463  13.404   2.299   3.628
12522SOL    HW239464  13.302   2.276   3.739
12523SOL     OW39465   4.904  14.250   0.023
12523SOL    HW139466   4.942  14.308  14.845
12523SOL    HW239467   4.950  14.271   0.104
12524SOL     OW39468  12.758   2.329   4.711
12524SOL    HW139469  12.791   2.362   4.794
12524SOL    HW239470  12.717   2.246   4.733
12525SOL     OW39471   6.700   7.128   7.161
12525SOL    HW139472   6.660   7.214   7.143
12525SOL    HW239473   6.737   7.101   7.077
12526SOL     OW39474   3.495  14.170   6.840
12526SOL    HW139475   3.575  14.221   6.854
12526SOL    HW239476   3.488  14.115   6.918
12527SOL     OW39477   5.375   6.775   7.023
12527SOL    HW139478   5.390   6.773   7.117
12527SOL    HW239479   5.460   6.799   6.986
12528SOL     OW39480   1.426  12.390   6.420
12528SOL    HW139481   1.471  12.441   6.488
12528SOL    HW239482   1.416  12.303   6.459
12529SOL     OW39483  13.264   5.610   1.467
12529SOL    HW139484  13.351   5.647   1.483
12529SOL    HW239485  13.276   5.549   1.394
12530SOL     OW39486   2.504  12.220   1.468
12530SOL    HW139487   2.471  12.130   1.468
12530SOL    HW239488   2.552  12.228   1.385
12531SOL     OW39489  11.207   2.948  10.495
12531SOL    HW139490  11.271   2.958  10.424
12531SOL    HW239491  11.254   2.899  10.563
12532SOL     OW39492   1.750   7.793   9.430
12532SOL    HW139493   1.681   7.729   9.416
12532SOL    HW239494   1.762   7.835   9.344
12533SOL     OW39495   1.583   2.801  12.645
12533SOL    HW139496   1.654   2.842  12.596
12533SOL    HW239497   1.511   2.865  12.641
12534SOL     OW39498   9.485   8.743   5.153
12534SOL    HW139499   9.579   8.735   5.137
12534SOL    HW239500   9.469   8.837   5.153
12535SOL     OW39501   4.461   5.445   6.679
12535SOL    HW139502   4.473   5.356   6.711
12535SOL    HW239503   4.402   5.436   6.604
12536SOL     OW39504  14.047   0.941   1.976
12536SOL    HW139505  14.064   0.906   2.064
12536SOL    HW239506  14.067   1.034   1.984
12537SOL     OW39507   3.864   5.564  13.388
12537SOL    HW139508   3.882   5.577  13.481
12537SOL    HW239509   3.900   5.642  13.345
12538SOL     OW39510   8.433  10.701   8.253
12538SOL    HW139511   8.433  10.783   8.202
12538SOL    HW239512   8.376  10.643   8.203
12539SOL     OW39513  11.399   7.370   5.527
12539SOL    HW139514  11.311   7.399   5.553
12539SOL    HW239515  11.436   7.331   5.606
12540SOL     OW39516   3.010  14.153   5.580
12540SOL    HW139517   3.014  14.246   5.558
12540SOL    HW239518   2.924  14.143   5.622
12541SOL     OW39519  10.733  11.768   6.002
12541SOL    HW139520  10.766  11.780   6.091
12541SOL    HW239521  10.812  11.760   5.948
12542SOL     OW39522   4.105   3.755   8.331
12542SOL    HW139523   4.050   3.807   8.274
12542SOL    HW239524   4.119   3.810   8.408
12543SOL     OW39525   7.287   6.926  12.960
12543SOL    HW139526   7.317   6.919  12.870
12543SOL    HW239527   7.231   7.004  12.960
12544SOL     OW39528   2.783   9.437   3.134
12544SOL    HW139529   2.731   9.456   3.212
12544SOL    HW239530   2.866   9.403   3.168
12545SOL     OW39531  12.487  11.545   1.362
12545SOL    HW139532  12.465  11.531   1.270
12545SOL    HW239533  12.475  11.639   1.376
12546SOL     OW39534  11.614   6.418   5.825
12546SOL    HW139535  11.691   6.393   5.774
12546SOL    HW239536  11.640   6.404   5.917
12547SOL     OW39537   8.892  11.103   4.811
12547SOL    HW139538   8.801  11.074   4.809
12547SOL    HW239539   8.943  11.022   4.803
12548SOL     OW39540   7.633  13.492  12.719
12548SOL    HW139541   7.598  13.566  12.769
12548SOL    HW239542   7.584  13.417  12.751
12549SOL     OW39543   7.962   7.511  12.022
12549SOL    HW139544   8.025   7.565  12.069
12549SOL    HW239545   7.877   7.547  12.045
12550SOL     OW39546   4.506   2.190  13.259
12550SOL    HW139547   4.490   2.160  13.348
12550SOL    HW239548   4.554   2.273  13.269
12551SOL     OW39549   8.982   1.427  13.541
12551SOL    HW139550   8.958   1.342  13.503
12551SOL    HW239551   9.075   1.436  13.523
12552SOL     OW39552   5.512  11.004   8.434
12552SOL    HW139553   5.456  10.936   8.396
12552SOL    HW239554   5.551  11.048   8.359
12553SOL     OW39555   6.051  10.010   7.202
12553SOL    HW139556   6.143  10.010   7.175
12553SOL    HW239557   6.025  10.102   7.196
12554SOL     OW39558   4.110   4.089   4.824
12554SOL    HW139559   4.144   4.179   4.820
12554SOL    HW239560   4.017   4.098   4.805
12555SOL     OW39561   8.528  14.438   0.004
12555SOL    HW139562   8.613  14.455  14.850
12555SOL    HW239563   8.545  14.444   0.098
12556SOL     OW39564   2.550   1.374  10.234
12556SOL    HW139565   2.517   1.440  10.295
12556SOL    HW239566   2.521   1.403  10.148
12557SOL     OW39567   0.251   0.287  10.497
12557SOL    HW139568   0.323   0.349  10.482
12557SOL    HW239569   0.274   0.244  10.579
12558SOL     OW39570  14.162  14.797   9.698
12558SOL    HW139571  14.228  14.755   9.753
12558SOL    HW239572  14.122  14.862   9.755
12559SOL     OW39573  14.613   8.546   1.622
12559SOL    HW139574  14.635   8.493   1.545
12559SOL    HW239575  14.605   8.483   1.693
12560SOL     OW39576  14.778  13.244   8.131
12560SOL    HW139577  14.817  13.170   8.085
12560SOL    HW239578  14.851  13.286   8.176
12561SOL     OW39579   0.136  14.849  11.488
12561SOL    HW139580   0.072  14.779  11.499
12561SOL    HW239581   0.203  14.812  11.431
12562SOL     OW39582   1.698   2.441  13.862
12562SOL    HW139583   1.699   2.537  13.866
12562SOL    HW239584   1.676   2.421  13.771
12563SOL     OW39585   2.961   6.721  12.163
12563SOL    HW139586   2.952   6.668  12.083
12563SOL    HW239587   2.878   6.709  12.209
12564SOL     OW39588  12.201   9.443  10.048
12564SOL    HW139589  12.130   9.506  10.034
12564SOL    HW239590  12.170   9.362  10.007
12565SOL     OW39591  10.005   7.548  12.346
12565SOL    HW139592  10.049   7.479  12.396
12565SOL    HW239593   9.918   7.554  12.385
12566SOL     OW39594   8.955   3.538   7.034
12566SOL    HW139595   8.898   3.521   7.109
12566SOL    HW239596   9.039   3.562   7.073
12567SOL     OW39597   1.634   6.978   0.547
12567SOL    HW139598   1.713   7.021   0.515
12567SOL    HW239599   1.601   6.929   0.471
12568SOL     OW39600   3.395   5.350  10.826
12568SOL    HW139601   3.384   5.288  10.754
12568SOL    HW239602   3.437   5.300  10.896
12569SOL     OW39603  14.772   2.295   2.804
12569SOL    HW139604  14.816   2.234   2.744
12569SOL    HW239605  14.818   2.284   2.887
12570SOL     OW39606  14.642   4.935   0.595
12570SOL    HW139607  14.547   4.929   0.601
12570SOL    HW239608  14.675   4.886   0.670
12571SOL     OW39609   1.344   5.370   1.997
12571SOL    HW139610   1.384   5.447   1.957
12571SOL    HW239611   1.366   5.378   2.090
12572SOL     OW39612   6.789   0.930   6.531
12572SOL    HW139613   6.822   0.907   6.617
12572SOL    HW239614   6.755   0.848   6.495
12573SOL     OW39615  10.942   5.905   8.721
12573SOL    HW139616  10.883   5.878   8.791
12573SOL    HW239617  10.954   5.826   8.668
12574SOL     OW39618  10.411   3.826  14.039
12574SOL    HW139619  10.500   3.854  14.059
12574SOL    HW239620  10.417   3.783  13.954
12575SOL     OW39621   8.754   3.506   2.492
12575SOL    HW139622   8.810   3.566   2.443
12575SOL    HW239623   8.814   3.447   2.537
12576SOL     OW39624   3.367  12.279  10.010
12576SOL    HW139625   3.458  12.307  10.016
12576SOL    HW239626   3.361  12.232   9.927
12577SOL     OW39627  14.872  11.599   4.154
12577SOL    HW139628   0.059  11.659   4.157
12577SOL    HW239629  14.853  11.580   4.246
12578SOL     OW39630   0.969  13.338   2.094
12578SOL    HW139631   0.988  13.245   2.087
12578SOL    HW239632   0.923  13.347   2.178
12579SOL     OW39633   8.110  13.370   8.843
12579SOL    HW139634   8.096  13.276   8.832
12579SOL    HW239635   8.193  13.376   8.891
12580SOL     OW39636   9.762   6.625  14.178
12580SOL    HW139637   9.783   6.645  14.270
12580SOL    HW239638   9.773   6.531  14.171
12581SOL     OW39639  12.732   1.964  12.404
12581SOL    HW139640  12.660   2.022  12.379
12581SOL    HW239641  12.756   1.918  12.324
12582SOL     OW39642  10.129   6.385  10.165
12582SOL    HW139643  10.072   6.374  10.089
12582SOL    HW239644  10.202   6.437  10.133
12583SOL     OW39645   2.795  10.946  14.440
12583SOL    HW139646   2.759  10.954  14.529
12583SOL    HW239647   2.890  10.947  14.453
12584SOL     OW39648   2.940   1.153   0.146
12584SOL    HW139649   2.966   1.214   0.215
12584SOL    HW239650   2.845   1.145   0.156
12585SOL     OW39651   6.595   4.717  10.861
12585SOL    HW139652   6.638   4.633  10.871
12585SOL    HW239653   6.507   4.696  10.829
12586SOL     OW39654   4.827  12.939   8.956
12586SOL    HW139655   4.833  13.031   8.982
12586SOL    HW239656   4.735  12.927   8.934
12587SOL     OW39657   8.924   5.919   6.097
12587SOL    HW139658   8.999   5.974   6.077
12587SOL    HW239659   8.937   5.892   6.188
12588SOL     OW39660   1.500   4.648   7.391
12588SOL    HW139661   1.419   4.685   7.356
12588SOL    HW239662   1.552   4.724   7.417
12589SOL     OW39663   2.268   3.074   4.661
12589SOL    HW139664   2.223   3.082   4.577
12589SOL    HW239665   2.216   3.129   4.720
12590SOL     OW39666  12.233   4.622  10.260
12590SOL    HW139667  12.262   4.603  10.170
12590SOL    HW239668  12.198   4.710  10.255
12591SOL     OW39669  14.047  10.841   6.707
12591SOL    HW139670  14.010  10.754   6.693
12591SOL    HW239671  14.082  10.866   6.621
12592SOL     OW39672   4.019   3.492   8.581
12592SOL    HW139673   3.939   3.526   8.542
12592SOL    HW239674   4.053   3.564   8.634
12593SOL     OW39675   0.130  13.090  10.522
12593SOL    HW139676   0.179  13.033  10.581
12593SOL    HW239677   0.060  13.034  10.488
12594SOL     OW39678   9.131   3.711   1.313
12594SOL    HW139679   9.116   3.794   1.359
12594SOL    HW239680   9.151   3.648   1.383
12595SOL     OW39681   3.742   9.278   3.293
12595SOL    HW139682   3.775   9.188   3.285
12595SOL    HW239683   3.702   9.296   3.208
12596SOL     OW39684   6.363  14.056   8.413
12596SOL    HW139685   6.323  14.068   8.499
12596SOL    HW239686   6.353  14.140   8.369
12597SOL     OW39687  13.643   1.327   1.351
12597SOL    HW139688  13.619   1.418   1.332
12597SOL    HW239689  13.619   1.315   1.443
12598SOL     OW39690   7.738  10.640   5.856
12598SOL    HW139691   7.811  10.676   5.905
12598SOL    HW239692   7.748  10.674   5.767
12599SOL     OW39693  14.621   3.542   3.974
12599SOL    HW139694  14.547   3.511   4.026
12599SOL    HW239695  14.591   3.534   3.883
12600SOL     OW39696  12.022  12.482   0.937
12600SOL    HW139697  11.932  12.490   0.968
12600SOL    HW239698  12.075  12.480   1.016
12601SOL     OW39699  12.602   8.523  14.223
12601SOL    HW139700  12.556   8.541  14.304
12601SOL    HW239701  12.695   8.520  14.248
12602SOL     OW39702   1.125   4.816   4.604
12602SOL    HW139703   1.110   4.761   4.681
12602SOL    HW239704   1.192   4.769   4.554
12603SOL     OW39705  11.159   4.845   2.387
12603SOL    HW139706  11.144   4.756   2.356
12603SOL    HW239707  11.151   4.838   2.482
12604SOL     OW39708   5.402  12.246   3.482
12604SOL    HW139709   5.490  12.210   3.494
12604SOL    HW239710   5.344  12.173   3.502
12605SOL     OW39711  14.730   1.657  14.184
12605SOL    HW139712  14.698   1.745  14.201
12605SOL    HW239713  14.651   1.605  14.168
12606SOL     OW39714   4.808   7.145   8.523
12606SOL    HW139715   4.886   7.171   8.571
12606SOL    HW239716   4.797   7.052   8.542
12607SOL     OW39717   5.445   2.628  13.510
12607SOL    HW139718   5.466   2.650  13.601
12607SOL    HW239719   5.522   2.658  13.460
12608SOL     OW39720  10.467   4.232  13.978
12608SOL    HW139721  10.412   4.295  13.932
12608SOL    HW239722  10.408   4.189  14.040
12609SOL     OW39723   5.167  14.802   1.554
12609SOL    HW139724   5.243  14.860   1.548
12609SOL    HW239725   5.092  14.861   1.554
12610SOL     OW39726   6.455   8.067   0.165
12610SOL    HW139727   6.433   8.038   0.077
12610SOL    HW239728   6.377   8.112   0.196
12611SOL     OW39729   8.639  13.162   8.152
12611SOL    HW139730   8.696  13.231   8.120
12611SOL    HW239731   8.551  13.187   8.122
12612SOL     OW39732   6.884   1.068  12.841
12612SOL    HW139733   6.906   1.152  12.883
12612SOL    HW239734   6.883   1.088  12.748
12613SOL     OW39735  14.376  11.264  10.365
12613SOL    HW139736  14.338  11.177  10.372
12613SOL    HW239737  14.322  11.319  10.422
12614SOL     OW39738   5.914   3.783  13.522
12614SOL    HW139739   5.834   3.833  13.504
12614SOL    HW239740   5.985   3.847  13.514
12615SOL     OW39741   7.929   9.398  11.158
12615SOL    HW139742   7.865   9.349  11.106
12615SOL    HW239743   8.009   9.396  11.106
12616SOL     OW39744  11.687   8.359   7.535
12616SOL    HW139745  11.596   8.354   7.567
12616SOL    HW239746  11.681   8.408   7.453
12617SOL     OW39747   0.164   3.284   4.796
12617SOL    HW139748   0.143   3.344   4.867
12617SOL    HW239749   0.083   3.277   4.746
12618SOL     OW39750  13.397   2.387   9.814
12618SOL    HW139751  13.337   2.316   9.835
12618SOL    HW239752  13.480   2.362   9.856
12619SOL     OW39753  10.204   7.152   9.258
12619SOL    HW139754  10.295   7.167   9.231
12619SOL    HW239755  10.163   7.238   9.255
12620SOL     OW39756   0.055   3.917   3.426
12620SOL    HW139757   0.091   3.932   3.338
12620SOL    HW239758   0.103   3.840   3.458
12621SOL     OW39759   9.595   4.889  11.617
12621SOL    HW139760   9.519   4.858  11.667
12621SOL    HW239761   9.670   4.857  11.667
12622SOL     OW39762   3.056  10.197   7.641
12622SOL    HW139763   3.121  10.170   7.706
12622SOL    HW239764   2.972  10.170   7.679
12623SOL     OW39765  12.005  12.783  11.424
12623SOL    HW139766  12.022  12.728  11.348
12623SOL    HW239767  12.084  12.836  11.433
12624SOL     OW39768   0.236  13.550   7.893
12624SOL    HW139769   0.280  13.476   7.850
12624SOL    HW239770   0.143  13.538   7.872
12625SOL     OW39771   9.863   6.056  12.446
12625SOL    HW139772   9.839   6.076  12.536
12625SOL    HW239773   9.935   5.993  12.455
12626SOL     OW39774  12.960   5.182  13.395
12626SOL    HW139775  12.904   5.220  13.327
12626SOL    HW239776  12.908   5.187  13.475
12627SOL     OW39777  12.753   6.939   5.070
12627SOL    HW139778  12.679   6.965   5.015
12627SOL    HW239779  12.799   6.872   5.020
12628SOL     OW39780   0.603   5.318  14.239
12628SOL    HW139781   0.560   5.288  14.158
12628SOL    HW239782   0.696   5.319  14.218
12629SOL     OW39783   7.895  13.083  13.370
12629SOL    HW139784   7.853  13.079  13.284
12629SOL    HW239785   7.939  12.998  13.380
12630SOL     OW39786   6.120  13.226   6.340
12630SOL    HW139787   6.099  13.186   6.256
12630SOL    HW239788   6.091  13.317   6.331
12631SOL     OW39789   3.437   9.885  12.785
12631SOL    HW139790   3.433   9.975  12.755
12631SOL    HW239791   3.392   9.835  12.717
12632SOL     OW39792  12.483   0.614   0.031
12632SOL    HW139793  12.573   0.643   0.046
12632SOL    HW239794  12.431   0.694   0.035
12633SOL     OW39795  13.834   6.544  10.019
12633SOL    HW139796  13.805   6.588  10.099
12633SOL    HW239797  13.765   6.480  10.000
12634SOL     OW39798  14.386   8.879  14.352
12634SOL    HW139799  14.374   8.888  14.447
12634SOL    HW239800  14.453   8.943  14.330
12635SOL     OW39801  13.448   4.740   8.717
12635SOL    HW139802  13.372   4.790   8.688
12635SOL    HW239803  13.489   4.797   8.782
12636SOL     OW39804   4.116   4.312   7.638
12636SOL    HW139805   4.199   4.308   7.590
12636SOL    HW239806   4.056   4.359   7.580
12637SOL     OW39807   9.640   6.114   5.519
12637SOL    HW139808   9.677   6.200   5.502
12637SOL    HW239809   9.559   6.112   5.467
12638SOL     OW39810  12.661   0.821   3.402
12638SOL    HW139811  12.588   0.781   3.450
12638SOL    HW239812  12.660   0.913   3.429
12639SOL     OW39813   5.613  11.579   6.281
12639SOL    HW139814   5.692  11.532   6.305
12639SOL    HW239815   5.577  11.609   6.364
12640SOL     OW39816   6.110  11.416   6.563
12640SOL    HW139817   6.101  11.474   6.639
12640SOL    HW239818   6.203  11.393   6.561
12641SOL     OW39819  10.831  11.942  12.343
12641SOL    HW139820  10.737  11.940  12.359
12641SOL    HW239821  10.871  11.948  12.430
12642SOL     OW39822  10.244  11.596  13.571
12642SOL    HW139823  10.322  11.635  13.611
12642SOL    HW239824  10.230  11.647  13.491
12643SOL     OW39825   7.211   9.054   2.825
12643SOL    HW139826   7.223   9.017   2.912
12643SOL    HW239827   7.298   9.085   2.799
12644SOL     OW39828   3.434   6.037   5.698
12644SOL    HW139829   3.432   6.058   5.791
12644SOL    HW239830   3.405   5.946   5.694
12645SOL     OW39831   2.907   2.626   7.351
12645SOL    HW139832   2.886   2.552   7.294
12645SOL    HW239833   2.934   2.696   7.291
12646SOL     OW39834  13.986   6.107   3.380
12646SOL    HW139835  13.923   6.036   3.374
12646SOL    HW239836  13.939   6.184   3.347
12647SOL     OW39837   6.222   4.900  14.744
12647SOL    HW139838   6.270   4.909  14.662
12647SOL    HW239839   6.190   4.988  14.763
12648SOL     OW39840   8.744  13.349  10.523
12648SOL    HW139841   8.658  13.391  10.519
12648SOL    HW239842   8.733  13.277  10.584
12649SOL     OW39843   1.585  12.472   0.238
12649SOL    HW139844   1.677  12.496   0.252
12649SOL    HW239845   1.539  12.510   0.312
12650SOL     OW39846   8.577   6.316   0.809
12650SOL    HW139847   8.602   6.403   0.777
12650SOL    HW239848   8.659   6.278   0.841
12651SOL     OW39849  12.180  13.470   0.657
12651SOL    HW139850  12.138  13.514   0.731
12651SOL    HW239851  12.274  13.482   0.673
12652SOL     OW39852  13.119   2.274   0.968
12652SOL    HW139853  13.129   2.262   0.873
12652SOL    HW239854  13.051   2.341   0.976
12653SOL     OW39855  12.100   7.832   5.619
12653SOL    HW139856  12.066   7.789   5.541
12653SOL    HW239857  12.118   7.922   5.591
12654SOL     OW39858  14.395   7.606   7.993
12654SOL    HW139859  14.427   7.644   7.911
12654SOL    HW239860  14.398   7.679   8.056
12655SOL     OW39861   7.452  13.593  10.191
12655SOL    HW139862   7.541  13.624  10.203
12655SOL    HW239863   7.425  13.562  10.278
12656SOL     OW39864   0.439   5.990  14.254
12656SOL    HW139865   0.417   6.033  14.337
12656SOL    HW239866   0.473   5.904  14.279
12657SOL     OW39867  12.149   7.407  12.535
12657SOL    HW139868  12.102   7.450  12.463
12657SOL    HW239869  12.208   7.473  12.569
12658SOL     OW39870   3.480   8.396   7.095
12658SOL    HW139871   3.534   8.352   7.161
12658SOL    HW239872   3.496   8.490   7.111
12659SOL     OW39873  12.293  12.399   0.823
12659SOL    HW139874  12.217  12.453   0.844
12659SOL    HW239875  12.264  12.310   0.843
12660SOL     OW39876   4.710   2.032   3.201
12660SOL    HW139877   4.800   2.001   3.185
12660SOL    HW239878   4.696   2.019   3.294
12661SOL     OW39879   7.204  12.884  11.394
12661SOL    HW139880   7.252  12.803  11.413
12661SOL    HW239881   7.112  12.860  11.408
12662SOL     OW39882  11.022  11.959   7.115
12662SOL    HW139883  11.042  11.933   7.025
12662SOL    HW239884  10.927  11.970   7.117
12663SOL     OW39885   6.174  13.044  10.431
12663SOL    HW139886   6.256  13.054  10.479
12663SOL    HW239887   6.158  13.131  10.394
12664SOL     OW39888   4.993  13.670   2.462
12664SOL    HW139889   5.057  13.678   2.390
12664SOL    HW239890   5.045  13.681   2.541
12665SOL     OW39891   0.665  13.579   1.895
12665SOL    HW139892   0.636  13.515   1.830
12665SOL    HW239893   0.584  13.609   1.936
12666SOL     OW39894   1.494   3.287  10.999
12666SOL    HW139895   1.465   3.345  10.929
12666SOL    HW239896   1.475   3.199  10.968
12667SOL     OW39897   8.334   8.674  14.186
12667SOL    HW139898   8.365   8.742  14.245
12667SOL    HW239899   8.247   8.652  14.218
12668SOL     OW39900   8.160   3.504   4.903
12668SOL    HW139901   8.195   3.508   4.992
12668SOL    HW239902   8.213   3.566   4.853
12669SOL     OW39903   1.902  14.884  12.135
12669SOL    HW139904   1.855   0.080  12.142
12669SOL    HW239905   1.951   0.004  12.053
12670SOL     OW39906  13.951   5.070   1.763
12670SOL    HW139907  13.970   4.989   1.714
12670SOL    HW239908  14.022   5.076   1.827
12671SOL     OW39909   3.613   7.549   1.132
12671SOL    HW139910   3.569   7.627   1.099
12671SOL    HW239911   3.705   7.562   1.109
12672SOL     OW39912  12.186   6.420   4.547
12672SOL    HW139913  12.263   6.364   4.543
12672SOL    HW239914  12.155   6.412   4.638
12673SOL     OW39915   6.901   3.890  10.475
12673SOL    HW139916   6.995   3.897  10.455
12673SOL    HW239917   6.891   3.935  10.559
12674SOL     OW39918   3.420  12.913  10.544
12674SOL    HW139919   3.463  12.949  10.467
12674SOL    HW239920   3.443  12.820  10.544
12675SOL     OW39921  10.155   1.419  13.815
12675SOL    HW139922  10.184   1.503  13.780
12675SOL    HW239923  10.108   1.441  13.896
12676SOL     OW39924   4.293   6.028   1.524
12676SOL    HW139925   4.321   5.958   1.584
12676SOL    HW239926   4.361   6.095   1.532
12677SOL     OW39927   4.599   8.514   5.676
12677SOL    HW139928   4.619   8.502   5.583
12677SOL    HW239929   4.507   8.537   5.678
12678SOL     OW39930   1.406  11.069   9.892
12678SOL    HW139931   1.325  11.103   9.854
12678SOL    HW239932   1.381  10.985   9.930
12679SOL     OW39933   4.109  11.615   1.592
12679SOL    HW139934   4.026  11.661   1.604
12679SOL    HW239935   4.163  11.643   1.666
12680SOL     OW39936  13.778  13.416   8.426
12680SOL    HW139937  13.840  13.345   8.442
12680SOL    HW239938  13.702  13.373   8.387
12681SOL     OW39939   1.446   6.906  13.367
12681SOL    HW139940   1.440   6.903  13.463
12681SOL    HW239941   1.540   6.909  13.349
12682SOL     OW39942   4.522   2.528   6.451
12682SOL    HW139943   4.478   2.508   6.533
12682SOL    HW239944   4.566   2.611   6.468
12683SOL     OW39945  11.102   3.569   8.322
12683SOL    HW139946  11.010   3.551   8.337
12683SOL    HW239947  11.138   3.585   8.409
12684SOL     OW39948   8.090   9.820  12.333
12684SOL    HW139949   8.012   9.805  12.387
12684SOL    HW239950   8.119   9.908  12.357
12685SOL     OW39951   1.760  14.475   0.278
12685SOL    HW139952   1.686  14.423   0.309
12685SOL    HW239953   1.832  14.450   0.336
12686SOL     OW39954   3.739   5.981  14.454
12686SOL    HW139955   3.785   6.065  14.460
12686SOL    HW239956   3.657   5.996  14.502
12687SOL     OW39957   7.432   1.343  14.597
12687SOL    HW139958   7.512   1.319  14.549
12687SOL    HW239959   7.371   1.371  14.528
12688SOL     OW39960  14.555   0.925   3.496
12688SOL    HW139961  14.548   0.906   3.403
12688SOL    HW239962  14.589   0.844   3.535
12689SOL     OW39963   7.695  11.734   8.154
12689SOL    HW139964   7.709  11.818   8.197
12689SOL    HW239965   7.626  11.692   8.205
12690SOL     OW39966  13.863   8.408   3.455
12690SOL    HW139967  13.953   8.423   3.484
12690SOL    HW239968  13.853   8.466   3.380
12691SOL     OW39969  14.283   9.370   2.697
12691SOL    HW139970  14.349   9.309   2.729
12691SOL    HW239971  14.200   9.332   2.724
12692SOL     OW39972  12.826   7.694   8.917
12692SOL    HW139973  12.891   7.761   8.894
12692SOL    HW239974  12.763   7.695   8.845
12693SOL     OW39975   6.990   2.708   8.498
12693SOL    HW139976   6.900   2.726   8.473
12693SOL    HW239977   7.042   2.733   8.422
12694SOL     OW39978   1.583   8.971  10.680
12694SOL    HW139979   1.495   9.005  10.698
12694SOL    HW239980   1.569   8.902  10.616
12695SOL     OW39981   8.089  11.466   2.360
12695SOL    HW139982   8.118  11.546   2.403
12695SOL    HW239983   8.068  11.406   2.432
12696SOL     OW39984   1.218   2.315   1.632
12696SOL    HW139985   1.162   2.363   1.693
12696SOL    HW239986   1.215   2.225   1.661
12697SOL     OW39987  12.504  12.381   5.112
12697SOL    HW139988  12.541  12.308   5.062
12697SOL    HW239989  12.420  12.398   5.070
12698SOL     OW39990   0.128   2.691   5.809
12698SOL    HW139991   0.093   2.660   5.726
12698SOL    HW239992   0.059   2.749   5.843
12699SOL     OW39993   4.587  10.497  11.634
12699SOL    HW139994   4.596  10.412  11.590
12699SOL    HW239995   4.497  10.524  11.615
12700SOL     OW39996   0.248   8.808   2.851
12700SOL    HW139997   0.175   8.789   2.910
12700SOL    HW239998   0.302   8.729   2.854
12701SOL     OW39999  12.113  11.963   1.312
12701SOL    HW140000  12.083  12.053   1.304
12701SOL    HW240001  12.146  11.941   1.224
12702SOL     OW40002   4.677   0.040   2.315
12702SOL    HW140003   4.729  14.847   2.320
12702SOL    HW240004   4.589   0.010   2.293
12703SOL     OW40005  12.062  14.161   5.866
12703SOL    HW140006  12.138  14.149   5.923
12703SOL    HW240007  11.995  14.201   5.922
12704SOL     OW40008   5.321   2.277   4.329
12704SOL    HW140009   5.363   2.198   4.363
12704SOL    HW240010   5.380   2.308   4.260
12705SOL     OW40011   6.682  10.986   4.075
12705SOL    HW140012   6.607  10.941   4.036
12705SOL    HW240013   6.759  10.941   4.040
12706SOL     OW40014  14.045   1.759  14.014
12706SOL    HW140015  14.102   1.687  13.985
12706SOL    HW240016  13.972   1.715  14.058
12707SOL     OW40017   4.729  13.658  11.840
12707SOL    HW140018   4.819  13.627  11.826
12707SOL    HW240019   4.739  13.750  11.864
12708SOL     OW40020  12.528   1.596  12.292
12708SOL    HW140021  12.538   1.522  12.352
12708SOL    HW240022  12.493   1.667  12.347
12709SOL     OW40023  14.464   4.653  11.931
12709SOL    HW140024  14.452   4.733  11.879
12709SOL    HW240025  14.458   4.582  11.866
12710SOL     OW40026   1.491  12.419  10.357
12710SOL    HW140027   1.489  12.436  10.263
12710SOL    HW240028   1.552  12.346  10.368
12711SOL     OW40029   2.804   8.347   2.077
12711SOL    HW140030   2.879   8.403   2.059
12711SOL    HW240031   2.743   8.404   2.124
12712SOL     OW40032   8.012   3.820   1.486
12712SOL    HW140033   7.922   3.819   1.453
12712SOL    HW240034   8.003   3.821   1.581
12713SOL     OW40035   4.158   6.745  10.302
12713SOL    HW140036   4.185   6.655  10.318
12713SOL    HW240037   4.232   6.785  10.257
12714SOL     OW40038   2.971   5.957  13.855
12714SOL    HW140039   2.889   5.919  13.886
12714SOL    HW240040   3.033   5.942  13.926
12715SOL     OW40041  12.712   7.071   1.255
12715SOL    HW140042  12.739   7.131   1.186
12715SOL    HW240043  12.617   7.064   1.245
12716SOL     OW40044  14.609   2.778   7.045
12716SOL    HW140045  14.645   2.823   6.969
12716SOL    HW240046  14.575   2.696   7.010
12717SOL     OW40047  11.647  14.239  12.538
12717SOL    HW140048  11.678  14.306  12.477
12717SOL    HW240049  11.674  14.272  12.624
12718SOL     OW40050  13.302  14.699  10.210
12718SOL    HW140051  13.292  14.607  10.187
12718SOL    HW240052  13.246  14.746  10.149
12719SOL     OW40053  10.319   1.815   7.940
12719SOL    HW140054  10.256   1.760   7.986
12719SOL    HW240055  10.292   1.813   7.848
12720SOL     OW40056  11.462   2.007   8.573
12720SOL    HW140057  11.400   1.947   8.614
12720SOL    HW240058  11.546   1.962   8.576
12721SOL     OW40059   7.040   6.287   0.156
12721SOL    HW140060   7.118   6.329   0.120
12721SOL    HW240061   6.967   6.339   0.122
12722SOL     OW40062  12.514  10.303   8.871
12722SOL    HW140063  12.437  10.359   8.878
12722SOL    HW240064  12.480  10.219   8.839
12723SOL     OW40065   8.030   8.012   6.588
12723SOL    HW140066   7.999   7.938   6.641
12723SOL    HW240067   8.123   7.993   6.574
12724SOL     OW40068   1.708   1.983   0.959
12724SOL    HW140069   1.759   1.926   1.017
12724SOL    HW240070   1.698   1.933   0.878
12725SOL     OW40071   4.077   5.656   3.512
12725SOL    HW140072   4.035   5.611   3.586
12725SOL    HW240073   4.148   5.598   3.485
12726SOL     OW40074   1.495   6.942  11.499
12726SOL    HW140075   1.446   6.914  11.422
12726SOL    HW240076   1.536   7.025  11.473
12727SOL     OW40077   7.102   2.466   6.467
12727SOL    HW140078   7.085   2.373   6.458
12727SOL    HW240079   7.195   2.476   6.446
12728SOL     OW40080   1.704   7.952   5.686
12728SOL    HW140081   1.710   7.864   5.724
12728SOL    HW240082   1.622   7.951   5.636
12729SOL     OW40083   5.704   1.865  12.369
12729SOL    HW140084   5.787   1.898  12.404
12729SOL    HW240085   5.637   1.902  12.426
12730SOL     OW40086   7.018   3.859   6.686
12730SOL    HW140087   7.017   3.950   6.717
12730SOL    HW240088   7.108   3.830   6.699
12731SOL     OW40089   4.870   8.018   3.402
12731SOL    HW140090   4.962   8.044   3.412
12731SOL    HW240091   4.848   7.977   3.485
12732SOL     OW40092  13.949  11.547   8.497
12732SOL    HW140093  13.969  11.453   8.496
12732SOL    HW240094  13.962  11.575   8.406
12733SOL     OW40095  11.133   9.141   4.486
12733SOL    HW140096  11.063   9.108   4.542
12733SOL    HW240097  11.093   9.144   4.398
12734SOL     OW40098   3.961   1.036  13.768
12734SOL    HW140099   4.000   0.976  13.832
12734SOL    HW240100   3.924   0.978  13.701
12735SOL     OW40101   5.637   4.238  12.454
12735SOL    HW140102   5.644   4.213  12.546
12735SOL    HW240103   5.723   4.218  12.417
12736SOL     OW40104  11.341   1.201   0.189
12736SOL    HW140105  11.373   1.150   0.115
12736SOL    HW240106  11.373   1.290   0.173
12737SOL     OW40107   0.137   3.430  12.477
12737SOL    HW140108   0.207   3.495  12.483
12737SOL    HW240109   0.067   3.466  12.532
12738SOL     OW40110  14.501  11.962   6.439
12738SOL    HW140111  14.577  12.020   6.437
12738SOL    HW240112  14.528  11.889   6.495
12739SOL     OW40113   5.200   3.864   7.467
12739SOL    HW140114   5.288   3.833   7.448
12739SOL    HW240115   5.204   3.898   7.556
12740SOL     OW40116   3.991   4.793  10.352
12740SOL    HW140117   3.915   4.787  10.294
12740SOL    HW240118   4.063   4.756  10.302
12741SOL     OW40119   9.885  14.589   1.776
12741SOL    HW140120   9.846  14.552   1.855
12741SOL    HW240121   9.941  14.519   1.742
12742SOL     OW40122  11.511  11.789  13.521
12742SOL    HW140123  11.470  11.871  13.548
12742SOL    HW240124  11.444  11.746  13.468
12743SOL     OW40125   7.298   9.281   6.480
12743SOL    HW140126   7.323   9.197   6.439
12743SOL    HW240127   7.378   9.333   6.477
12744SOL     OW40128   5.335   9.425  11.588
12744SOL    HW140129   5.404   9.361  11.568
12744SOL    HW240130   5.375   9.510  11.567
12745SOL     OW40131   4.434  12.318   3.085
12745SOL    HW140132   4.509  12.372   3.065
12745SOL    HW240133   4.420  12.265   3.007
12746SOL     OW40134  13.603  13.564   6.481
12746SOL    HW140135  13.541  13.506   6.436
12746SOL    HW240136  13.565  13.578   6.567
12747SOL     OW40137  10.179   0.989   4.652
12747SOL    HW140138  10.267   0.970   4.617
12747SOL    HW240139  10.119   0.956   4.585
12748SOL     OW40140  14.060   5.405   2.553
12748SOL    HW140141  14.153   5.396   2.574
12748SOL    HW240142  14.015   5.385   2.636
12749SOL     OW40143   6.521   5.373  14.100
12749SOL    HW140144   6.600   5.425  14.087
12749SOL    HW240145   6.471   5.384  14.019
12750SOL     OW40146  12.175  11.884   5.845
12750SOL    HW140147  12.263  11.919   5.862
12750SOL    HW240148  12.120  11.927   5.910
12751SOL     OW40149   8.512   4.397   5.129
12751SOL    HW140150   8.597   4.354   5.126
12751SOL    HW240151   8.511   4.444   5.212
12752SOL     OW40152  12.164   6.958   7.239
12752SOL    HW140153  12.224   7.032   7.245
12752SOL    HW240154  12.179   6.909   7.320
12753SOL     OW40155  10.096  11.950   5.991
12753SOL    HW140156  10.031  11.904   5.937
12753SOL    HW240157  10.152  11.881   6.026
12754SOL     OW40158  13.485   8.040   7.360
12754SOL    HW140159  13.390   8.050   7.349
12754SOL    HW240160  13.515   8.006   7.275
12755SOL     OW40161   4.280   8.310  11.708
12755SOL    HW140162   4.190   8.340  11.697
12755SOL    HW240163   4.277   8.250  11.783
12756SOL     OW40164   2.535   3.774   9.787
12756SOL    HW140165   2.530   3.725   9.705
12756SOL    HW240166   2.448   3.812   9.797
12757SOL     OW40167   0.185   9.112  14.624
12757SOL    HW140168   0.132   9.116  14.704
12757SOL    HW240169   0.274   9.094  14.655
12758SOL     OW40170  10.203   1.247   2.977
12758SOL    HW140171  10.218   1.270   2.885
12758SOL    HW240172  10.147   1.170   2.974
12759SOL     OW40173   0.726  11.609   7.585
12759SOL    HW140174   0.674  11.678   7.626
12759SOL    HW240175   0.664  11.561   7.531
12760SOL     OW40176  13.630   1.101  10.373
12760SOL    HW140177  13.602   1.041  10.303
12760SOL    HW240178  13.697   1.156  10.332
12761SOL     OW40179  12.544  10.542  13.351
12761SOL    HW140180  12.580  10.472  13.406
12761SOL    HW240181  12.556  10.621  13.404
12762SOL     OW40182   5.696  12.870  14.613
12762SOL    HW140183   5.671  12.852  14.704
12762SOL    HW240184   5.702  12.965  14.608
12763SOL     OW40185   4.340  14.026  11.890
12763SOL    HW140186   4.324  13.935  11.915
12763SOL    HW240187   4.410  14.021  11.825
12764SOL     OW40188   7.709   4.536  14.606
12764SOL    HW140189   7.735   4.628  14.596
12764SOL    HW240190   7.623   4.539  14.647
12765SOL     OW40191   7.622  13.612   1.215
12765SOL    HW140192   7.579  13.609   1.301
12765SOL    HW240193   7.635  13.520   1.192
12766SOL     OW40194  13.525  14.855   3.666
12766SOL    HW140195  13.496   0.000   3.751
12766SOL    HW240196  13.597  14.796   3.686
12767SOL     OW40197   0.736   2.065   9.536
12767SOL    HW140198   0.711   1.996   9.598
12767SOL    HW240199   0.830   2.076   9.549
12768SOL     OW40200   0.744  14.847   6.334
12768SOL    HW140201   0.756   0.020   6.261
12768SOL    HW240202   0.793   0.000   6.406
12769SOL     OW40203   1.273   4.922   0.997
12769SOL    HW140204   1.315   4.964   0.921
12769SOL    HW240205   1.253   4.833   0.967
12770SOL     OW40206   2.568   1.765  10.857
12770SOL    HW140207   2.485   1.813  10.859
12770SOL    HW240208   2.615   1.802  10.782
12771SOL     OW40209   0.231   1.379  14.620
12771SOL    HW140210   0.175   1.307  14.648
12771SOL    HW240211   0.191   1.410  14.539
12772SOL     OW40212  12.229   1.522  13.513
12772SOL    HW140213  12.165   1.480  13.571
12772SOL    HW240214  12.250   1.455  13.447
12773SOL     OW40215   8.186   0.256   4.933
12773SOL    HW140216   8.242   0.286   5.004
12773SOL    HW240217   8.102   0.239   4.974
12774SOL     OW40218   3.158   5.024   8.396
12774SOL    HW140219   3.235   5.056   8.349
12774SOL    HW240220   3.111   4.971   8.332
12775SOL     OW40221   6.991   9.919   0.885
12775SOL    HW140222   7.036   9.966   0.814
12775SOL    HW240223   7.005   9.826   0.864
12776SOL     OW40224   6.397   9.112   1.123
12776SOL    HW140225   6.305   9.120   1.097
12776SOL    HW240226   6.432   9.200   1.117
12777SOL     OW40227  14.264   1.121   4.244
12777SOL    HW140228  14.203   1.194   4.250
12777SOL    HW240229  14.253   1.074   4.327
12778SOL     OW40230  13.667   8.726   0.564
12778SOL    HW140231  13.698   8.659   0.625
12778SOL    HW240232  13.597   8.771   0.612
12779SOL     OW40233  11.582  14.096   8.707
12779SOL    HW140234  11.509  14.082   8.768
12779SOL    HW240235  11.650  14.138   8.761
12780SOL     OW40236  14.609   6.953   4.987
12780SOL    HW140237  14.561   6.964   5.069
12780SOL    HW240238  14.652   7.038   4.972
12781SOL     OW40239   0.862  10.335  12.256
12781SOL    HW140240   0.887  10.408  12.311
12781SOL    HW240241   0.940  10.280  12.251
12782SOL     OW40242  12.702   1.874   6.769
12782SOL    HW140243  12.738   1.815   6.835
12782SOL    HW240244  12.609   1.850   6.763
12783SOL     OW40245   3.399   1.620  10.701
12783SOL    HW140246   3.470   1.642  10.760
12783SOL    HW240247   3.337   1.570  10.755
12784SOL     OW40248   0.442   2.838   9.641
12784SOL    HW140249   0.410   2.754   9.609
12784SOL    HW240250   0.532   2.843   9.611
12785SOL     OW40251   0.652   2.759  13.546
12785SOL    HW140252   0.634   2.668  13.568
12785SOL    HW240253   0.743   2.760  13.517
12786SOL     OW40254  12.141  12.006  10.566
12786SOL    HW140255  12.091  12.087  10.567
12786SOL    HW240256  12.090  11.947  10.511
12787SOL     OW40257  11.311  12.600   1.542
12787SOL    HW140258  11.398  12.580   1.578
12787SOL    HW240259  11.298  12.693   1.563
12788SOL     OW40260   5.081   3.331  13.298
12788SOL    HW140261   5.033   3.412  13.310
12788SOL    HW240262   5.034   3.285  13.228
12789SOL     OW40263   5.938  14.107  12.784
12789SOL    HW140264   5.858  14.061  12.758
12789SOL    HW240265   5.949  14.086  12.877
12790SOL     OW40266   4.424   0.109   0.156
12790SOL    HW140267   4.389   0.026   0.191
12790SOL    HW240268   4.437   0.164   0.233
12791SOL     OW40269   3.908  11.482  13.817
12791SOL    HW140270   3.837  11.420  13.835
12791SOL    HW240271   3.864  11.558  13.780
12792SOL     OW40272  10.485   9.357  12.325
12792SOL    HW140273  10.518   9.443  12.299
12792SOL    HW240274  10.493   9.355  12.420
12793SOL     OW40275   6.259   4.469  13.359
12793SOL    HW140276   6.164   4.472  13.348
12793SOL    HW240277   6.273   4.413  13.436
12794SOL     OW40278   4.429   6.121   9.218
12794SOL    HW140279   4.357   6.070   9.253
12794SOL    HW240280   4.472   6.063   9.155
12795SOL     OW40281   1.069  10.312  13.068
12795SOL    HW140282   1.080  10.217  13.075
12795SOL    HW240283   0.986  10.330  13.113
12796SOL     OW40284  10.325  10.022  12.495
12796SOL    HW140285  10.274   9.967  12.555
12796SOL    HW240286  10.261  10.058  12.435
12797SOL     OW40287  11.178   2.430   4.076
12797SOL    HW140288  11.176   2.420   4.171
12797SOL    HW240289  11.264   2.394   4.051
12798SOL     OW40290  13.903   7.098   3.799
12798SOL    HW140291  13.932   7.165   3.861
12798SOL    HW240292  13.892   7.019   3.852
12799SOL     OW40293   7.719  12.650   9.641
12799SOL    HW140294   7.757  12.642   9.554
12799SOL    HW240295   7.656  12.722   9.633
12800SOL     OW40296   5.374  12.276   0.195
12800SOL    HW140297   5.383  12.209   0.127
12800SOL    HW240298   5.431  12.245   0.266
12801SOL     OW40299   1.222   4.310   9.925
12801SOL    HW140300   1.251   4.340   9.839
12801SOL    HW240301   1.281   4.352   9.987
12802SOL     OW40302  13.260   1.937   3.716
12802SOL    HW140303  13.304   1.923   3.632
12802SOL    HW240304  13.257   1.851   3.756
12803SOL     OW40305  11.359   1.213  10.975
12803SOL    HW140306  11.273   1.242  10.944
12803SOL    HW240307  11.340   1.155  11.048
12804SOL     OW40308   1.304  14.303   3.611
12804SOL    HW140309   1.354  14.250   3.550
12804SOL    HW240310   1.363  14.317   3.685
12805SOL     OW40311   0.181   2.917   9.784
12805SOL    HW140312   0.216   2.911   9.696
12805SOL    HW240313   0.253   2.887   9.841
12806SOL     OW40314   2.154   0.116   2.737
12806SOL    HW140315   2.088   0.047   2.736
12806SOL    HW240316   2.135   0.169   2.659
12807SOL     OW40317   5.616   3.739  11.656
12807SOL    HW140318   5.659   3.823  11.674
12807SOL    HW240319   5.660   3.677  11.713
12808SOL     OW40320   8.554   6.551  11.079
12808SOL    HW140321   8.459   6.565  11.073
12808SOL    HW240322   8.572   6.481  11.016
12809SOL     OW40323   1.307   0.628   8.530
12809SOL    HW140324   1.215   0.602   8.523
12809SOL    HW240325   1.304   0.724   8.540
12810SOL     OW40326   6.152   8.539   6.470
12810SOL    HW140327   6.210   8.483   6.419
12810SOL    HW240328   6.211   8.584   6.532
12811SOL     OW40329   9.790   6.336   0.614
12811SOL    HW140330   9.730   6.386   0.558
12811SOL    HW240331   9.864   6.395   0.628
12812SOL     OW40332  14.308   1.252   2.235
12812SOL    HW140333  14.289   1.331   2.186
12812SOL    HW240334  14.302   1.278   2.327
12813SOL     OW40335   7.443   7.145   8.884
12813SOL    HW140336   7.426   7.061   8.842
12813SOL    HW240337   7.358   7.173   8.918
12814SOL     OW40338   2.786  11.832   8.294
12814SOL    HW140339   2.753  11.860   8.209
12814SOL    HW240340   2.763  11.903   8.354
12815SOL     OW40341   2.345   5.154   4.512
12815SOL    HW140342   2.359   5.083   4.574
12815SOL    HW240343   2.380   5.232   4.556
12816SOL     OW40344   4.773  13.830   9.773
12816SOL    HW140345   4.827  13.837   9.852
12816SOL    HW240346   4.736  13.918   9.762
12817SOL     OW40347  13.272   9.672   7.830
12817SOL    HW140348  13.338   9.662   7.761
12817SOL    HW240349  13.189   9.646   7.788
12818SOL     OW40350   8.460   7.133   5.797
12818SOL    HW140351   8.457   7.203   5.731
12818SOL    HW240352   8.473   7.053   5.746
12819SOL     OW40353   2.772   0.300  14.887
12819SOL    HW140354   2.759   0.226   0.058
12819SOL    HW240355   2.801   0.371   0.057
12820SOL     OW40356   7.213  14.788  12.472
12820SOL    HW140357   7.279  14.754  12.412
12820SOL    HW240358   7.261  14.810  12.552
12821SOL     OW40359  11.361   4.986  14.418
12821SOL    HW140360  11.336   4.933  14.493
12821SOL    HW240361  11.299   4.961  14.350
12822SOL     OW40362  10.224   9.381   4.618
12822SOL    HW140363  10.160   9.350   4.554
12822SOL    HW240364  10.280   9.306   4.636
12823SOL     OW40365  12.832   5.834  14.572
12823SOL    HW140366  12.779   5.755  14.580
12823SOL    HW240367  12.825   5.859  14.480
12824SOL     OW40368  12.697  13.391  14.349
12824SOL    HW140369  12.721  13.378  14.257
12824SOL    HW240370  12.777  13.420  14.391
12825SOL     OW40371   0.984   0.680   8.732
12825SOL    HW140372   0.897   0.670   8.694
12825SOL    HW240373   0.980   0.765   8.778
12826SOL     OW40374   5.576   5.765   5.240
12826SOL    HW140375   5.602   5.680   5.275
12826SOL    HW240376   5.524   5.806   5.309
12827SOL     OW40377  11.058   3.211   4.505
12827SOL    HW140378  10.963   3.202   4.493
12827SOL    HW240379  11.075   3.174   4.592
12828SOL     OW40380   6.122  11.136   9.596
12828SOL    HW140381   6.072  11.112   9.519
12828SOL    HW240382   6.177  11.210   9.568
12829SOL     OW40383   2.167   1.054  14.131
12829SOL    HW140384   2.143   1.144  14.150
12829SOL    HW240385   2.260   1.048  14.155
12830SOL     OW40386   0.132   3.707   5.174
12830SOL    HW140387   0.046   3.715   5.215
12830SOL    HW240388   0.173   3.793   5.185
12831SOL     OW40389   5.375   7.858   2.219
12831SOL    HW140390   5.423   7.867   2.302
12831SOL    HW240391   5.391   7.941   2.174
12832SOL     OW40392   0.438   0.632   5.855
12832SOL    HW140393   0.405   0.545   5.831
12832SOL    HW240394   0.501   0.654   5.787
12833SOL     OW40395  10.331   7.272   3.072
12833SOL    HW140396  10.270   7.199   3.084
12833SOL    HW240397  10.316   7.329   3.148
12834SOL     OW40398   2.618   1.969   5.561
12834SOL    HW140399   2.556   1.911   5.605
12834SOL    HW240400   2.566   2.013   5.494
12835SOL     OW40401  12.317  12.869  10.739
12835SOL    HW140402  12.361  12.870  10.825
12835SOL    HW240403  12.283  12.780  10.731
12836SOL     OW40404  14.669  11.256  14.814
12836SOL    HW140405  14.637  11.254   0.017
12836SOL    HW240406  14.670  11.164  14.787
12837SOL     OW40407  10.540  13.866   6.839
12837SOL    HW140408  10.575  13.894   6.923
12837SOL    HW240409  10.455  13.909   6.832
12838SOL     OW40410   8.698  10.884   8.869
12838SOL    HW140411   8.712  10.945   8.796
12838SOL    HW240412   8.781  10.883   8.916
12839SOL     OW40413  13.363   4.761   2.847
12839SOL    HW140414  13.420   4.688   2.823
12839SOL    HW240415  13.400   4.794   2.929
12840SOL     OW40416   2.165   0.744   7.869
12840SOL    HW140417   2.191   0.836   7.870
12840SOL    HW240418   2.152   0.721   7.961
12841SOL     OW40419  14.111  10.061  10.880
12841SOL    HW140420  14.059  10.063  10.799
12841SOL    HW240421  14.112   9.969  10.905
12842SOL     OW40422   3.788  12.176  13.137
12842SOL    HW140423   3.718  12.116  13.162
12842SOL    HW240424   3.831  12.133  13.063
12843SOL     OW40425   9.672   6.000   5.990
12843SOL    HW140426   9.662   6.078   5.936
12843SOL    HW240427   9.595   5.946   5.969
12844SOL     OW40428  12.087   1.195   0.443
12844SOL    HW140429  12.146   1.221   0.372
12844SOL    HW240430  12.121   1.238   0.521
12845SOL     OW40431   1.214   3.882   4.794
12845SOL    HW140432   1.273   3.814   4.762
12845SOL    HW240433   1.245   3.901   4.883
12846SOL     OW40434   8.518   2.114  11.098
12846SOL    HW140435   8.491   2.131  11.008
12846SOL    HW240436   8.443   2.141  11.151
12847SOL     OW40437   2.043   7.929   8.124
12847SOL    HW140438   2.008   7.865   8.062
12847SOL    HW240439   1.986   8.006   8.115
12848SOL     OW40440   6.035  13.213   0.970
12848SOL    HW140441   6.109  13.154   0.959
12848SOL    HW240442   6.072  13.301   0.960
12849SOL     OW40443   4.210   3.977   8.855
12849SOL    HW140444   4.272   3.996   8.785
12849SOL    HW240445   4.262   3.938   8.924
12850SOL     OW40446   5.444   0.007   2.724
12850SOL    HW140447   5.488  14.839   2.660
12850SOL    HW240448   5.497  14.885   2.803
12851SOL     OW40449   8.329   8.707   9.851
12851SOL    HW140450   8.371   8.640   9.905
12851SOL    HW240451   8.239   8.712   9.885
12852SOL     OW40452   5.719  14.818   6.163
12852SOL    HW140453   5.724   0.014   6.116
12852SOL    HW240454   5.739  14.752   6.097
12853SOL     OW40455   9.358  14.669  11.629
12853SOL    HW140456   9.428  14.722  11.668
12853SOL    HW240457   9.375  14.671  11.535
12854SOL     OW40458  14.287   3.380  11.129
12854SOL    HW140459  14.324   3.376  11.217
12854SOL    HW240460  14.260   3.290  11.110
12855SOL     OW40461  10.749   7.464   6.995
12855SOL    HW140462  10.710   7.539   6.950
12855SOL    HW240463  10.833   7.496   7.027
12856SOL     OW40464   2.690   3.758  10.019
12856SOL    HW140465   2.663   3.759   9.927
12856SOL    HW240466   2.743   3.679  10.028
12857SOL     OW40467  14.402  12.455   4.299
12857SOL    HW140468  14.344  12.388   4.264
12857SOL    HW240469  14.357  12.489   4.376
12858SOL     OW40470  13.050  13.345   3.939
12858SOL    HW140471  12.974  13.384   3.895
12858SOL    HW240472  13.090  13.417   3.988
12859SOL     OW40473  13.549  10.370  10.073
12859SOL    HW140474  13.586  10.312  10.140
12859SOL    HW240475  13.608  10.362   9.998
12860SOL     OW40476   3.686  14.341  14.161
12860SOL    HW140477   3.671  14.301  14.247
12860SOL    HW240478   3.699  14.267  14.102
12861SOL     OW40479   5.380  12.414   7.607
12861SOL    HW140480   5.442  12.370   7.549
12861SOL    HW240481   5.382  12.362   7.687
12862SOL     OW40482   2.034   8.483   5.276
12862SOL    HW140483   2.024   8.458   5.368
12862SOL    HW240484   2.004   8.407   5.226
12863SOL     OW40485   5.762   7.445  14.602
12863SOL    HW140486   5.738   7.537  14.611
12863SOL    HW240487   5.794   7.420  14.689
12864SOL     OW40488  11.351   3.330  13.049
12864SOL    HW140489  11.296   3.338  13.126
12864SOL    HW240490  11.290   3.322  12.976
12865SOL     OW40491   0.778   8.517   0.304
12865SOL    HW140492   0.725   8.591   0.333
12865SOL    HW240493   0.724   8.440   0.320
12866SOL     OW40494   1.687   6.642  13.517
12866SOL    HW140495   1.738   6.677  13.590
12866SOL    HW240496   1.604   6.688  13.522
12867SOL     OW40497   7.566   4.888   3.001
12867SOL    HW140498   7.486   4.918   3.044
12867SOL    HW240499   7.605   4.968   2.965
12868SOL     OW40500   3.102   4.542   7.878
12868SOL    HW140501   3.028   4.602   7.875
12868SOL    HW240502   3.157   4.568   7.804
12869SOL     OW40503   1.100   7.157   9.485
12869SOL    HW140504   1.181   7.140   9.439
12869SOL    HW240505   1.057   7.072   9.491
12870SOL     OW40506   7.106   0.860   1.554
12870SOL    HW140507   7.096   0.881   1.647
12870SOL    HW240508   7.071   0.771   1.545
12871SOL     OW40509   1.419   0.516  11.786
12871SOL    HW140510   1.397   0.520  11.693
12871SOL    HW240511   1.455   0.428  11.799
12872SOL     OW40512   5.996   7.653   0.911
12872SOL    HW140513   5.948   7.730   0.938
12872SOL    HW240514   5.976   7.587   0.977
12873SOL     OW40515  13.412   9.019  10.914
12873SOL    HW140516  13.483   9.036  10.852
12873SOL    HW240517  13.433   9.073  10.990
12874SOL     OW40518   9.727  12.632  10.138
12874SOL    HW140519   9.778  12.602  10.063
12874SOL    HW240520   9.656  12.684  10.100
12875SOL     OW40521   2.167  10.019  14.785
12875SOL    HW140522   2.260  10.044  14.781
12875SOL    HW240523   2.120  10.101  14.799
12876SOL     OW40524   3.869  11.387   2.740
12876SOL    HW140525   3.823  11.316   2.696
12876SOL    HW240526   3.805  11.421   2.804
12877SOL     OW40527   6.511  12.683   7.916
12877SOL    HW140528   6.427  12.707   7.877
12877SOL    HW240529   6.574  12.743   7.877
12878SOL     OW40530   0.588   0.318   5.934
12878SOL    HW140531   0.579   0.372   6.012
12878SOL    HW240532   0.682   0.301   5.927
12879SOL     OW40533  14.718   0.478   1.158
12879SOL    HW140534  14.629   0.444   1.168
12879SOL    HW240535  14.748   0.493   1.248
12880SOL     OW40536  11.158  10.711   9.485
12880SOL    HW140537  11.081  10.768   9.491
12880SOL    HW240538  11.210  10.732   9.562
12881SOL     OW40539   1.405   6.298  11.078
12881SOL    HW140540   1.380   6.389  11.090
12881SOL    HW240541   1.441   6.271  11.163
12882SOL     OW40542  10.376   1.048   0.772
12882SOL    HW140543  10.430   0.973   0.799
12882SOL    HW240544  10.417   1.123   0.814
12883SOL     OW40545   0.056  13.037   5.908
12883SOL    HW140546  14.861  13.035   5.860
12883SOL    HW240547   0.122  13.008   5.845
12884SOL     OW40548  13.726   2.832  14.394
12884SOL    HW140549  13.676   2.847  14.313
12884SOL    HW240550  13.680   2.759  14.437
12885SOL     OW40551  10.314   3.287  11.993
12885SOL    HW140552  10.382   3.279  12.059
12885SOL    HW240553  10.277   3.374  12.006
12886SOL     OW40554  11.006  12.746  13.510
12886SOL    HW140555  11.073  12.770  13.574
12886SOL    HW240556  10.932  12.803  13.530
12887SOL     OW40557  13.851   4.472   2.630
12887SOL    HW140558  13.884   4.474   2.540
12887SOL    HW240559  13.911   4.527   2.679
12888SOL     OW40560   7.867   1.215   1.399
12888SOL    HW140561   7.801   1.242   1.336
12888SOL    HW240562   7.819   1.164   1.465
12889SOL     OW40563  13.871  10.406  12.582
12889SOL    HW140564  13.949  10.459  12.596
12889SOL    HW240565  13.885  10.329  12.637
12890SOL     OW40566   0.238  10.447   8.574
12890SOL    HW140567   0.294  10.470   8.649
12890SOL    HW240568   0.261  10.511   8.507
12891SOL     OW40569   7.395  10.773  14.255
12891SOL    HW140570   7.470  10.829  14.273
12891SOL    HW240571   7.327  10.804  14.315
12892SOL     OW40572   8.280  11.313  13.868
12892SOL    HW140573   8.246  11.235  13.912
12892SOL    HW240574   8.242  11.387  13.915
12893SOL     OW40575   2.126   3.234  13.079
12893SOL    HW140576   2.152   3.147  13.109
12893SOL    HW240577   2.109   3.224  12.985
12894SOL     OW40578   6.477   5.021   4.877
12894SOL    HW140579   6.535   4.971   4.934
12894SOL    HW240580   6.412   5.058   4.936
12895SOL     OW40581  12.511   0.070  10.305
12895SOL    HW140582  12.476   0.151  10.266
12895SOL    HW240583  12.599   0.063  10.269
12896SOL     OW40584  12.254  10.724  13.599
12896SOL    HW140585  12.238  10.632  13.579
12896SOL    HW240586  12.197  10.742  13.675
12897SOL     OW40587   4.509   5.061   5.485
12897SOL    HW140588   4.515   5.107   5.402
12897SOL    HW240589   4.564   4.983   5.474
12898SOL     OW40590   8.840   3.074   1.530
12898SOL    HW140591   8.823   2.980   1.540
12898SOL    HW240592   8.906   3.079   1.461
12899SOL     OW40593   0.755   9.506   7.528
12899SOL    HW140594   0.697   9.582   7.540
12899SOL    HW240595   0.843   9.541   7.536
12900SOL     OW40596  10.545   8.250   6.176
12900SOL    HW140597  10.506   8.295   6.100
12900SOL    HW240598  10.534   8.157   6.157
12901SOL     OW40599  13.329   0.988  11.767
12901SOL    HW140600  13.234   0.988  11.768
12901SOL    HW240601  13.353   1.056  11.830
12902SOL     OW40602  10.257   1.093  10.552
12902SOL    HW140603  10.220   1.126  10.634
12902SOL    HW240604  10.216   1.147  10.485
12903SOL     OW40605  13.938  10.836   7.986
12903SOL    HW140606  13.951  10.774   8.057
12903SOL    HW240607  14.020  10.886   7.982
12904SOL     OW40608   4.926   7.170   4.768
12904SOL    HW140609   4.972   7.144   4.848
12904SOL    HW240610   4.859   7.232   4.797
12905SOL     OW40611   3.746   0.624   4.730
12905SOL    HW140612   3.806   0.698   4.736
12905SOL    HW240613   3.795   0.558   4.681
12906SOL     OW40614  10.609  12.992   7.893
12906SOL    HW140615  10.664  12.989   7.972
12906SOL    HW240616  10.669  12.973   7.821
12907SOL     OW40617   3.859  10.571  12.020
12907SOL    HW140618   3.867  10.477  12.030
12907SOL    HW240619   3.905  10.590  11.937
12908SOL     OW40620   7.276  14.055  13.121
12908SOL    HW140621   7.317  13.995  13.183
12908SOL    HW240622   7.326  14.136  13.130
12909SOL     OW40623  10.596   5.350  11.311
12909SOL    HW140624  10.564   5.313  11.229
12909SOL    HW240625  10.602   5.444  11.296
12910SOL     OW40626   1.399   9.887   1.036
12910SOL    HW140627   1.311   9.861   1.010
12910SOL    HW240628   1.436   9.808   1.076
12911SOL     OW40629   1.093   5.522   0.189
12911SOL    HW140630   1.129   5.437   0.162
12911SOL    HW240631   1.001   5.519   0.161
12912SOL     OW40632  11.224   2.219   5.649
12912SOL    HW140633  11.158   2.251   5.711
12912SOL    HW240634  11.177   2.211   5.566
12913SOL     OW40635   9.226   6.867   7.776
12913SOL    HW140636   9.197   6.777   7.791
12913SOL    HW240637   9.222   6.908   7.862
12914SOL     OW40638   1.612   4.135   2.528
12914SOL    HW140639   1.524   4.172   2.524
12914SOL    HW240640   1.601   4.044   2.500
12915SOL     OW40641   6.338   4.102   3.326
12915SOL    HW140642   6.361   4.047   3.252
12915SOL    HW240643   6.243   4.105   3.326
12916SOL     OW40644   4.913   6.338   5.308
12916SOL    HW140645   4.827   6.378   5.296
12916SOL    HW240646   4.914   6.311   5.400
12917SOL     OW40647  11.968   5.965   2.625
12917SOL    HW140648  11.970   6.047   2.576
12917SOL    HW240649  11.925   5.903   2.566
12918SOL     OW40650  10.178  12.253   7.949
12918SOL    HW140651  10.132  12.337   7.956
12918SOL    HW240652  10.201  12.231   8.039
12919SOL     OW40653   8.761   1.967   6.363
12919SOL    HW140654   8.758   2.061   6.380
12919SOL    HW240655   8.802   1.960   6.277
12920SOL     OW40656   6.864  12.271   0.918
12920SOL    HW140657   6.901  12.320   0.844
12920SOL    HW240658   6.929  12.280   0.987
12921SOL     OW40659  14.293   9.374   4.861
12921SOL    HW140660  14.326   9.463   4.850
12921SOL    HW240661  14.209   9.374   4.815
12922SOL     OW40662   4.308   4.435   0.170
12922SOL    HW140663   4.293   4.374   0.098
12922SOL    HW240664   4.247   4.408   0.238
12923SOL     OW40665   5.827   8.170  14.245
12923SOL    HW140666   5.751   8.217  14.279
12923SOL    HW240667   5.891   8.175  14.317
12924SOL     OW40668  12.359  13.634   6.026
12924SOL    HW140669  12.331  13.543   6.020
12924SOL    HW240670  12.291  13.683   5.979
12925SOL     OW40671   8.273   4.603   8.352
12925SOL    HW140672   8.218   4.657   8.408
12925SOL    HW240673   8.312   4.665   8.290
12926SOL     OW40674   4.754  14.286   1.190
12926SOL    HW140675   4.782  14.221   1.254
12926SOL    HW240676   4.689  14.241   1.137
12927SOL     OW40677  10.880   6.138  11.635
12927SOL    HW140678  10.836   6.179  11.708
12927SOL    HW240679  10.853   6.189  11.558
12928SOL     OW40680  13.919   6.814  13.139
12928SOL    HW140681  13.949   6.807  13.048
12928SOL    HW240682  13.946   6.732  13.179
12929SOL     OW40683  11.172  11.832   4.594
12929SOL    HW140684  11.210  11.895   4.533
12929SOL    HW240685  11.141  11.884   4.668
12930SOL     OW40686  13.465  12.472  14.278
12930SOL    HW140687  13.375  12.459  14.246
12930SOL    HW240688  13.466  12.563  14.308
12931SOL     OW40689   6.532   4.689   4.707
12931SOL    HW140690   6.483   4.760   4.666
12931SOL    HW240691   6.478   4.663   4.782
12932SOL     OW40692   4.297  12.960   8.054
12932SOL    HW140693   4.362  12.952   7.985
12932SOL    HW240694   4.285  12.870   8.086
12933SOL     OW40695   7.634  13.169   5.225
12933SOL    HW140696   7.634  13.116   5.145
12933SOL    HW240697   7.656  13.107   5.295
12934SOL     OW40698   2.040   6.642   7.099
12934SOL    HW140699   2.039   6.666   7.192
12934SOL    HW240700   2.023   6.724   7.053
12935SOL     OW40701  10.941   2.199   4.364
12935SOL    HW140702  10.912   2.149   4.441
12935SOL    HW240703  10.995   2.137   4.314
12936SOL     OW40704   4.106   1.493   5.989
12936SOL    HW140705   4.056   1.569   6.019
12936SOL    HW240706   4.120   1.509   5.896
12937SOL     OW40707   0.373   5.038   8.731
12937SOL    HW140708   0.347   4.965   8.674
12937SOL    HW240709   0.436   5.088   8.679
12938SOL     OW40710   9.298  11.691   4.423
12938SOL    HW140711   9.301  11.642   4.505
12938SOL    HW240712   9.204  11.698   4.404
12939SOL     OW40713   0.643  14.425  10.615
12939SOL    HW140714   0.609  14.374  10.542
12939SOL    HW240715   0.738  14.420  10.606
12940SOL     OW40716  12.214   5.856  14.080
12940SOL    HW140717  12.256   5.914  14.017
12940SOL    HW240718  12.122   5.852  14.052
12941SOL     OW40719  12.393   2.605   6.941
12941SOL    HW140720  12.352   2.549   6.875
12941SOL    HW240721  12.322   2.661   6.972
12942SOL     OW40722   7.327  13.157   1.767
12942SOL    HW140723   7.411  13.112   1.769
12942SOL    HW240724   7.263  13.089   1.793
12943SOL     OW40725   9.222  10.824   4.141
12943SOL    HW140726   9.233  10.919   4.130
12943SOL    HW240727   9.273  10.803   4.220
12944SOL     OW40728   8.507  11.042   9.041
12944SOL    HW140729   8.454  11.001   8.973
12944SOL    HW240730   8.538  10.968   9.094
12945SOL     OW40731   8.578   7.736   2.076
12945SOL    HW140732   8.605   7.796   2.007
12945SOL    HW240733   8.483   7.727   2.064
12946SOL     OW40734  12.200   6.404  14.662
12946SOL    HW140735  12.244   6.425  14.580
12946SOL    HW240736  12.236   6.467  14.725
12947SOL     OW40737  13.817  10.590  11.594
12947SOL    HW140738  13.818  10.635  11.679
12947SOL    HW240739  13.793  10.500  11.616
12948SOL     OW40740   1.281   4.770   5.398
12948SOL    HW140741   1.191   4.738   5.411
12948SOL    HW240742   1.276   4.864   5.416
12949SOL     OW40743  14.737  10.004   0.252
12949SOL    HW140744  14.729  10.071   0.320
12949SOL    HW240745  14.800  10.041   0.190
12950SOL     OW40746  11.225   3.436  10.028
12950SOL    HW140747  11.192   3.363   9.975
12950SOL    HW240748  11.317   3.446  10.001
12951SOL     OW40749  14.827   6.665  13.811
12951SOL    HW140750  14.731   6.669  13.819
12951SOL    HW240751  14.858   6.664  13.902
12952SOL     OW40752  12.244   9.782   2.696
12952SOL    HW140753  12.180   9.751   2.632
12952SOL    HW240754  12.259   9.706   2.753
12953SOL     OW40755  13.820   3.617  10.031
12953SOL    HW140756  13.836   3.681   9.962
12953SOL    HW240757  13.775   3.666  10.100
12954SOL     OW40758  14.860   4.944  13.954
12954SOL    HW140759  14.852   5.039  13.954
12954SOL    HW240760   0.036   4.925  14.023
12955SOL     OW40761  14.006   2.257   9.003
12955SOL    HW140762  13.911   2.262   9.016
12955SOL    HW240763  14.031   2.172   9.039
12956SOL     OW40764   3.244   6.002   1.326
12956SOL    HW140765   3.302   6.078   1.327
12956SOL    HW240766   3.156   6.039   1.314
12957SOL     OW40767   4.905   3.650  13.297
12957SOL    HW140768   4.986   3.692  13.268
12957SOL    HW240769   4.840   3.721  13.296
12958SOL     OW40770  11.538  13.469  12.028
12958SOL    HW140771  11.531  13.400  11.963
12958SOL    HW240772  11.541  13.550  11.977
12959SOL     OW40773   0.548   0.600   4.458
12959SOL    HW140774   0.598   0.582   4.537
12959SOL    HW240775   0.607   0.650   4.402
12960SOL     OW40776  11.605   9.179   3.473
12960SOL    HW140777  11.567   9.266   3.484
12960SOL    HW240778  11.660   9.168   3.551
12961SOL     OW40779   6.554  13.207   7.983
12961SOL    HW140780   6.475  13.213   7.929
12961SOL    HW240781   6.625  13.236   7.926
12962SOL     OW40782   2.655   0.669   9.889
12962SOL    HW140783   2.749   0.672   9.910
12962SOL    HW240784   2.651   0.700   9.798
12963SOL     OW40785   5.643   5.425   2.534
12963SOL    HW140786   5.729   5.385   2.549
12963SOL    HW240787   5.661   5.519   2.529
12964SOL     OW40788   5.578   4.701   4.464
12964SOL    HW140789   5.669   4.670   4.458
12964SOL    HW240790   5.537   4.644   4.528
12965SOL     OW40791  11.089   8.058  10.889
12965SOL    HW140792  11.177   8.024  10.901
12965SOL    HW240793  11.049   7.999  10.825
12966SOL     OW40794   5.791   4.136  14.113
12966SOL    HW140795   5.856   4.207  14.114
12966SOL    HW240796   5.707   4.181  14.118
12967SOL     OW40797   3.432  13.952   8.841
12967SOL    HW140798   3.481  14.016   8.790
12967SOL    HW240799   3.493  13.879   8.852
12968SOL     OW40800  12.532  14.255   4.823
12968SOL    HW140801  12.584  14.279   4.900
12968SOL    HW240802  12.490  14.337   4.796
12969SOL     OW40803   3.701   1.519   6.012
12969SOL    HW140804   3.754   1.559   5.943
12969SOL    HW240805   3.646   1.456   5.965
12970SOL     OW40806   8.608  14.032   6.321
12970SOL    HW140807   8.581  14.074   6.403
12970SOL    HW240808   8.527  14.028   6.269
12971SOL     OW40809   3.715  12.939   3.358
12971SOL    HW140810   3.756  12.868   3.309
12971SOL    HW240811   3.777  13.012   3.351
12972SOL     OW40812  11.517  10.036   0.001
12972SOL    HW140813  11.511  10.053  14.794
12972SOL    HW240814  11.444  10.084   0.039
12973SOL     OW40815   2.323  13.508  14.577
12973SOL    HW140816   2.354  13.446  14.643
12973SOL    HW240817   2.387  13.580  14.581
12974SOL     OW40818   1.943   7.035   6.183
12974SOL    HW140819   1.970   6.944   6.168
12974SOL    HW240820   2.023   7.080   6.210
12975SOL     OW40821   3.727   2.999  12.160
12975SOL    HW140822   3.811   2.966  12.189
12975SOL    HW240823   3.689   3.040  12.238
12976SOL     OW40824   0.848  14.422   3.743
12976SOL    HW140825   0.879  14.370   3.817
12976SOL    HW240826   0.876  14.373   3.666
12977SOL     OW40827  11.793  14.578  14.054
12977SOL    HW140828  11.839  14.648  14.006
12977SOL    HW240829  11.755  14.623  14.130
12978SOL     OW40830   3.218  14.754   7.060
12978SOL    HW140831   3.166  14.834   7.071
12978SOL    HW240832   3.215  14.736   6.967
12979SOL     OW40833   4.077   3.565  10.295
12979SOL    HW140834   4.104   3.645  10.249
12979SOL    HW240835   3.989   3.585  10.328
12980SOL     OW40836   4.483   2.703   5.255
12980SOL    HW140837   4.566   2.734   5.290
12980SOL    HW240838   4.506   2.627   5.202
12981SOL     OW40839   6.781   6.999   5.804
12981SOL    HW140840   6.860   6.958   5.840
12981SOL    HW240841   6.773   7.081   5.853
12982SOL     OW40842  10.127   0.087  11.339
12982SOL    HW140843  10.179   0.166  11.327
12982SOL    HW240844  10.069   0.108  11.413
12983SOL     OW40845   7.169   6.533   2.051
12983SOL    HW140846   7.138   6.614   2.092
12983SOL    HW240847   7.090   6.494   2.015
12984SOL     OW40848   0.359   7.240  10.941
12984SOL    HW140849   0.422   7.286  10.886
12984SOL    HW240850   0.302   7.194  10.879
12985SOL     OW40851   1.922   3.452   5.708
12985SOL    HW140852   1.957   3.387   5.769
12985SOL    HW240853   1.992   3.467   5.645
12986SOL     OW40854   6.064   7.917  13.813
12986SOL    HW140855   6.031   7.926  13.902
12986SOL    HW240856   6.000   7.861  13.769
12987SOL     OW40857  11.773   6.581  10.075
12987SOL    HW140858  11.750   6.565  10.167
12987SOL    HW240859  11.802   6.496  10.043
12988SOL     OW40860   0.050   0.988  13.601
12988SOL    HW140861   0.129   0.997  13.547
12988SOL    HW240862   0.003   0.914  13.563
12989SOL     OW40863  10.009   1.451   4.395
12989SOL    HW140864   9.983   1.449   4.487
12989SOL    HW240865   9.929   1.477   4.348
12990SOL     OW40866  14.864   6.309   9.425
12990SOL    HW140867   0.066   6.321   9.459
12990SOL    HW240868  14.873   6.319   9.330
12991SOL     OW40869   6.291   4.035   9.795
12991SOL    HW140870   6.283   3.948   9.835
12991SOL    HW240871   6.302   4.018   9.701
12992SOL     OW40872  11.072   0.922   2.620
12992SOL    HW140873  11.148   0.923   2.679
12992SOL    HW240874  11.054   1.014   2.603
12993SOL     OW40875   2.691  12.111   5.291
12993SOL    HW140876   2.710  12.064   5.209
12993SOL    HW240877   2.724  12.199   5.277
12994SOL     OW40878   6.864   3.896   2.304
12994SOL    HW140879   6.954   3.863   2.295
12994SOL    HW240880   6.874   3.984   2.339
12995SOL     OW40881   6.167   4.554  12.653
12995SOL    HW140882   6.100   4.486  12.643
12995SOL    HW240883   6.140   4.623  12.592
12996SOL     OW40884   5.503   7.211   4.789
12996SOL    HW140885   5.589   7.242   4.761
12996SOL    HW240886   5.458   7.187   4.709
12997SOL     OW40887   1.155  14.788   6.742
12997SOL    HW140888   1.090  14.858   6.749
12997SOL    HW240889   1.170  14.760   6.832
12998SOL     OW40890  13.402  13.809   0.449
12998SOL    HW140891  13.435  13.893   0.418
12998SOL    HW240892  13.334  13.785   0.386
12999SOL     OW40893   5.382  11.356   6.916
12999SOL    HW140894   5.395  11.445   6.881
12999SOL    HW240895   5.297  11.330   6.882
13000SOL     OW40896   7.488  10.180  10.920
13000SOL    HW140897   7.463  10.169  11.012
13000SOL    HW240898   7.404  10.180  10.873
13001SOL     OW40899   2.322   5.494   1.086
13001SOL    HW140900   2.229   5.485   1.064
13001SOL    HW240901   2.366   5.502   1.001
13002SOL     OW40902   0.773   6.918   1.769
13002SOL    HW140903   0.824   6.850   1.725
13002SOL    HW240904   0.817   6.931   1.852
13003SOL     OW40905   7.328  14.074  14.722
13003SOL    HW140906   7.421  14.093  14.727
13003SOL    HW240907   7.323  13.994  14.669
13004SOL     OW40908   9.150  13.207   1.764
13004SOL    HW140909   9.076  13.147   1.754
13004SOL    HW240910   9.111  13.294   1.764
13005SOL     OW40911   1.168   5.060   3.459
13005SOL    HW140912   1.218   5.075   3.379
13005SOL    HW240913   1.078   5.083   3.435
13006SOL     OW40914   7.942   7.772  13.525
13006SOL    HW140915   8.026   7.806  13.494
13006SOL    HW240916   7.964   7.688  13.564
13007SOL     OW40917   2.836   3.817   5.259
13007SOL    HW140918   2.883   3.736   5.243
13007SOL    HW240919   2.743   3.792   5.259
13008SOL     OW40920  14.105   7.797   7.078
13008SOL    HW140921  14.183   7.777   7.129
13008SOL    HW240922  14.120   7.755   6.993
13009SOL     OW40923   7.525  14.796   2.141
13009SOL    HW140924   7.564  14.879   2.116
13009SOL    HW240925   7.519  14.799   2.237
13010SOL     OW40926   3.798  10.923  12.730
13010SOL    HW140927   3.740  10.856  12.694
13010SOL    HW240928   3.800  10.905  12.824
13011SOL     OW40929   6.168   8.501  14.113
13011SOL    HW140930   6.135   8.436  14.175
13011SOL    HW240931   6.171   8.456  14.029
13012SOL     OW40932   7.474   3.798   4.156
13012SOL    HW140933   7.475   3.765   4.067
13012SOL    HW240934   7.551   3.855   4.162
13013SOL     OW40935  12.272  14.468   2.394
13013SOL    HW140936  12.342  14.513   2.347
13013SOL    HW240937  12.294  14.375   2.386
13014SOL     OW40938  10.356  13.322  10.264
13014SOL    HW140939  10.424  13.380  10.298
13014SOL    HW240940  10.322  13.368  10.187
13015SOL     OW40941  11.871   0.582   7.385
13015SOL    HW140942  11.891   0.505   7.437
13015SOL    HW240943  11.798   0.554   7.328
13016SOL     OW40944   7.458  11.638   9.556
13016SOL    HW140945   7.437  11.600   9.471
13016SOL    HW240946   7.545  11.605   9.577
13017SOL     OW40947  11.398  11.333   9.774
13017SOL    HW140948  11.357  11.353   9.690
13017SOL    HW240949  11.397  11.416   9.821
13018SOL     OW40950   7.939  13.939   9.663
13018SOL    HW140951   7.972  14.011   9.609
13018SOL    HW240952   8.016  13.902   9.704
13019SOL     OW40953   0.602  14.124  14.307
13019SOL    HW140954   0.564  14.172  14.380
13019SOL    HW240955   0.676  14.076  14.345
13020SOL     OW40956   5.772   6.647   9.775
13020SOL    HW140957   5.682   6.681   9.766
13020SOL    HW240958   5.823   6.697   9.713
13021SOL     OW40959  12.679   9.939  13.312
13021SOL    HW140960  12.723   9.855  13.324
13021SOL    HW240961  12.597   9.917  13.267
13022SOL     OW40962   0.687  12.034   7.598
13022SOL    HW140963   0.648  11.963   7.649
13022SOL    HW240964   0.633  12.111   7.619
13023SOL     OW40965   5.113   3.936  12.032
13023SOL    HW140966   5.194   3.902  12.070
13023SOL    HW240967   5.079   3.996  12.098
13024SOL     OW40968   3.182  12.470  12.188
13024SOL    HW140969   3.272  12.503  12.185
13024SOL    HW240970   3.144  12.496  12.104
13025SOL     OW40971  13.982   0.921   6.862
13025SOL    HW140972  13.929   0.861   6.916
13025SOL    HW240973  14.068   0.878   6.857
13026SOL     OW40974  13.248  10.997  12.559
13026SOL    HW140975  13.211  10.919  12.518
13026SOL    HW240976  13.186  11.020  12.628
13027SOL     OW40977  10.405   5.644   4.618
13027SOL    HW140978  10.432   5.555   4.639
13027SOL    HW240979  10.314   5.636   4.589
13028SOL     OW40980   4.108  13.903  12.433
13028SOL    HW140981   4.015  13.926  12.431
13028SOL    HW240982   4.139  13.920  12.344
13029SOL     OW40983   9.955   5.394   0.802
13029SOL    HW140984   9.944   5.373   0.895
13029SOL    HW240985   9.962   5.309   0.759
13030SOL     OW40986   4.890   4.781   0.368
13030SOL    HW140987   4.859   4.744   0.285
13030SOL    HW240988   4.867   4.715   0.434
13031SOL     OW40989  13.189   8.680   6.008
13031SOL    HW140990  13.265   8.640   6.050
13031SOL    HW240991  13.126   8.608   5.999
13032SOL     OW40992   6.106  11.550   5.798
13032SOL    HW140993   6.064  11.627   5.758
13032SOL    HW240994   6.046  11.522   5.866
13033SOL     OW40995   7.119   8.091   1.978
13033SOL    HW140996   7.107   8.163   2.040
13033SOL    HW240997   7.088   8.127   1.894
13034SOL     OW40998   0.194  13.939  10.491
13034SOL    HW140999   0.279  13.906  10.463
13034SOL    HW241000   0.210  13.979  10.576
13035SOL     OW41001  10.409   4.495   1.167
13035SOL    HW141002  10.463   4.489   1.246
13035SOL    HW241003  10.463   4.457   1.098
13036SOL     OW41004  11.116   5.441   9.268
13036SOL    HW141005  11.032   5.482   9.286
13036SOL    HW241006  11.159   5.498   9.204
13037SOL     OW41007  12.647   1.180   6.640
13037SOL    HW141008  12.733   1.186   6.682
13037SOL    HW241009  12.637   1.262   6.592
13038SOL     OW41010  12.689   2.370  12.311
13038SOL    HW141011  12.785   2.372  12.316
13038SOL    HW241012  12.666   2.458  12.281
13039SOL     OW41013   0.917   8.996   7.363
13039SOL    HW141014   0.930   9.079   7.318
13039SOL    HW241015   0.984   8.938   7.326
13040SOL     OW41016   3.758   0.283   7.917
13040SOL    HW141017   3.791   0.363   7.875
13040SOL    HW241018   3.836   0.238   7.947
13041SOL     OW41019   9.487   6.354   2.791
13041SOL    HW141020   9.572   6.309   2.792
13041SOL    HW241021   9.438   6.311   2.720
13042SOL     OW41022   3.252  11.266   7.385
13042SOL    HW141023   3.173  11.277   7.332
13042SOL    HW241024   3.313  11.219   7.328
13043SOL     OW41025  11.101  13.731   4.896
13043SOL    HW141026  11.135  13.786   4.826
13043SOL    HW241027  11.028  13.684   4.856
13044SOL     OW41028   1.361   2.701   7.033
13044SOL    HW141029   1.424   2.703   6.960
13044SOL    HW241030   1.406   2.747   7.104
13045SOL     OW41031  12.378   3.303  11.394
13045SOL    HW141032  12.466   3.308  11.359
13045SOL    HW241033  12.348   3.394  11.396
13046SOL     OW41034   4.451   1.520  13.915
13046SOL    HW141035   4.426   1.589  13.977
13046SOL    HW241036   4.369   1.492  13.876
13047SOL     OW41037   9.017   0.904   7.696
13047SOL    HW141038   9.085   0.965   7.667
13047SOL    HW241039   9.038   0.822   7.652
13048SOL     OW41040  14.858   5.036  10.366
13048SOL    HW141041  14.830   5.117  10.407
13048SOL    HW241042   0.054   5.058  10.324
13049SOL     OW41043   1.651  10.906   5.954
13049SOL    HW141044   1.679  10.828   5.907
13049SOL    HW241045   1.557  10.894   5.967
13050SOL     OW41046  12.422   4.024  13.495
13050SOL    HW141047  12.488   4.057  13.555
13050SOL    HW241048  12.378   3.954  13.543
13051SOL     OW41049   0.086   7.696  14.545
13051SOL    HW141050   0.044   7.664  14.625
13051SOL    HW241051   0.051   7.785  14.533
13052SOL     OW41052   7.994  13.668   9.747
13052SOL    HW141053   7.901  13.672   9.724
13052SOL    HW241054   7.996  13.637   9.837
13053SOL     OW41055  10.257   0.600  14.533
13053SOL    HW141056  10.281   0.571  14.444
13053SOL    HW241057  10.221   0.521  14.574
13054SOL     OW41058  11.312   3.734  14.347
13054SOL    HW141059  11.379   3.803  14.355
13054SOL    HW241060  11.307   3.696  14.435
13055SOL     OW41061   0.945  14.792   5.628
13055SOL    HW141062   0.980  14.739   5.556
13055SOL    HW241063   1.022  14.833   5.667
13056SOL     OW41064   4.508   2.231   0.815
13056SOL    HW141065   4.564   2.158   0.789
13056SOL    HW241066   4.553   2.270   0.890
13057SOL     OW41067   7.063   9.649  11.234
13057SOL    HW141068   7.066   9.553  11.236
13057SOL    HW241069   7.111   9.672  11.155
13058SOL     OW41070  13.355   5.731  10.189
13058SOL    HW141071  13.423   5.663  10.192
13058SOL    HW241072  13.361   5.776  10.273
13059SOL     OW41073   6.247   8.426  12.691
13059SOL    HW141074   6.253   8.490  12.620
13059SOL    HW241075   6.230   8.479  12.769
13060SOL     OW41076  14.651   0.290   9.187
13060SOL    HW141077  14.573   0.314   9.137
13060SOL    HW241078  14.660   0.195   9.174
13061SOL     OW41079   1.048  12.606   9.664
13061SOL    HW141080   1.052  12.665   9.589
13061SOL    HW241081   1.133  12.616   9.707
13062SOL     OW41082  10.183   0.232   3.773
13062SOL    HW141083  10.116   0.247   3.839
13062SOL    HW241084  10.234   0.313   3.772
13063SOL     OW41085   9.501  14.553   4.367
13063SOL    HW141086   9.424  14.602   4.399
13063SOL    HW241087   9.538  14.609   4.298
13064SOL     OW41088   6.526   0.331   5.490
13064SOL    HW141089   6.536   0.363   5.580
13064SOL    HW241090   6.444   0.371   5.461
13065SOL     OW41091  14.172  11.303   4.206
13065SOL    HW141092  14.146  11.222   4.163
13065SOL    HW241093  14.262  11.287   4.235
13066SOL     OW41094  10.257   3.004   6.962
13066SOL    HW141095  10.287   2.926   7.008
13066SOL    HW241096  10.324   3.022   6.897
13067SOL     OW41097   0.117  14.609   8.694
13067SOL    HW141098   0.177  14.668   8.741
13067SOL    HW241099   0.053  14.667   8.653
13068SOL     OW41100  10.548   2.496   7.558
13068SOL    HW141101  10.564   2.455   7.643
13068SOL    HW241102  10.569   2.427   7.494
13069SOL     OW41103   4.055   0.926  14.053
13069SOL    HW141104   3.993   0.856  14.073
13069SOL    HW241105   4.085   0.957  14.138
13070SOL     OW41106  10.571   6.787  13.950
13070SOL    HW141107  10.544   6.802  14.041
13070SOL    HW241108  10.563   6.873  13.908
13071SOL     OW41109   1.259   7.648  12.206
13071SOL    HW141110   1.328   7.620  12.267
13071SOL    HW241111   1.306   7.692  12.135
13072SOL     OW41112   9.209   3.091  11.719
13072SOL    HW141113   9.221   3.148  11.643
13072SOL    HW241114   9.275   3.121  11.782
13073SOL     OW41115  12.351   7.781   5.701
13073SOL    HW141116  12.259   7.800   5.684
13073SOL    HW241117  12.357   7.685   5.698
13074SOL     OW41118   9.584  13.738  11.708
13074SOL    HW141119   9.574  13.802  11.779
13074SOL    HW241120   9.494  13.721  11.678
13075SOL     OW41121   6.876   9.823  14.081
13075SOL    HW141122   6.802   9.850  14.027
13075SOL    HW241123   6.840   9.758  14.141
13076SOL     OW41124   6.933   2.733   0.423
13076SOL    HW141125   6.919   2.774   0.508
13076SOL    HW241126   6.996   2.663   0.440
13077SOL     OW41127   5.600  11.939  14.784
13077SOL    HW141128   5.510  11.967  14.798
13077SOL    HW241129   5.593  11.846  14.762
13078SOL     OW41130   9.093  12.160  13.699
13078SOL    HW141131   9.119  12.224  13.765
13078SOL    HW241132   9.154  12.173  13.627
13079SOL     OW41133   6.464   4.475   5.191
13079SOL    HW141134   6.484   4.384   5.167
13079SOL    HW241135   6.391   4.468   5.252
13080SOL     OW41136   6.921   9.402   2.181
13080SOL    HW141137   6.829   9.385   2.202
13080SOL    HW241138   6.965   9.401   2.266
13081SOL     OW41139   0.609   6.362   3.255
13081SOL    HW141140   0.625   6.274   3.221
13081SOL    HW241141   0.565   6.347   3.339
13082SOL     OW41142   6.704   5.585  14.049
13082SOL    HW141143   6.651   5.603  13.971
13082SOL    HW241144   6.775   5.649  14.046
13083SOL     OW41145   2.219   6.754   1.067
13083SOL    HW141146   2.137   6.802   1.071
13083SOL    HW241147   2.286   6.820   1.084
13084SOL     OW41148   1.924   5.630   6.422
13084SOL    HW141149   1.995   5.669   6.473
13084SOL    HW241150   1.929   5.673   6.337
13085SOL     OW41151   7.914   0.487   7.412
13085SOL    HW141152   7.852   0.557   7.392
13085SOL    HW241153   7.872   0.437   7.482
13086SOL     OW41154   8.209  12.828   2.039
13086SOL    HW141155   8.156  12.753   2.067
13086SOL    HW241156   8.290  12.820   2.089
13087SOL     OW41157  14.315   9.619   4.224
13087SOL    HW141158  14.313   9.631   4.129
13087SOL    HW241159  14.340   9.705   4.258
13088SOL     OW41160   4.791  13.897   2.813
13088SOL    HW141161   4.878  13.878   2.779
13088SOL    HW241162   4.806  13.933   2.900
13089SOL     OW41163   6.427  11.773   3.891
13089SOL    HW141164   6.496  11.708   3.881
13089SOL    HW241165   6.346  11.723   3.892
13090SOL     OW41166   1.096  10.530  12.890
13090SOL    HW141167   1.109  10.446  12.934
13090SOL    HW241168   1.061  10.588  12.959
13091SOL     OW41169   1.007   2.792  12.850
13091SOL    HW141170   0.943   2.853  12.815
13091SOL    HW241171   0.976   2.774  12.939
13092SOL     OW41172  11.282  13.491  10.746
13092SOL    HW141173  11.197  13.485  10.789
13092SOL    HW241174  11.339  13.433  10.796
13093SOL     OW41175   5.289   6.884   2.516
13093SOL    HW141176   5.312   6.967   2.557
13093SOL    HW241177   5.316   6.894   2.425
13094SOL     OW41178   4.313   1.525  14.389
13094SOL    HW141179   4.226   1.565  14.397
13094SOL    HW241180   4.306   1.443  14.437
13095SOL     OW41181   4.612  13.288   9.678
13095SOL    HW141182   4.531  13.252   9.714
13095SOL    HW241183   4.585  13.335   9.599
13096SOL     OW41184   2.230   5.304   7.656
13096SOL    HW141185   2.317   5.264   7.651
13096SOL    HW241186   2.187   5.278   7.575
13097SOL     OW41187   4.643   5.590   1.288
13097SOL    HW141188   4.616   5.625   1.373
13097SOL    HW241189   4.728   5.630   1.272
13098SOL     OW41190   3.770   0.195  10.890
13098SOL    HW141191   3.807   0.114  10.857
13098SOL    HW241192   3.677   0.176  10.903
13099SOL     OW41193   2.701   8.691   9.780
13099SOL    HW141194   2.795   8.677   9.790
13099SOL    HW241195   2.684   8.775   9.822
13100SOL     OW41196   7.552   5.792   4.124
13100SOL    HW141197   7.529   5.884   4.138
13100SOL    HW241198   7.633   5.796   4.072
13101SOL     OW41199   8.055   4.635  11.229
13101SOL    HW141200   8.146   4.662  11.241
13101SOL    HW241201   8.009   4.716  11.207
13102SOL     OW41202   2.260  10.565  11.639
13102SOL    HW141203   2.339  10.529  11.679
13102SOL    HW241204   2.208  10.488  11.616
13103SOL     OW41205   7.964   5.686   6.293
13103SOL    HW141206   7.880   5.716   6.258
13103SOL    HW241207   7.972   5.597   6.260
13104SOL     OW41208   4.898   5.010   9.836
13104SOL    HW141209   4.985   4.971   9.841
13104SOL    HW241210   4.892   5.042   9.746
13105SOL     OW41211   9.786  13.481  13.175
13105SOL    HW141212   9.860  13.423  13.195
13105SOL    HW241213   9.778  13.537  13.253
13106SOL     OW41214  12.186   0.993  10.636
13106SOL    HW141215  12.127   0.925  10.604
13106SOL    HW241216  12.268   0.947  10.655
13107SOL     OW41217  13.063   2.064  14.007
13107SOL    HW141218  13.053   2.160  14.008
13107SOL    HW241219  13.005   2.033  14.077
13108SOL     OW41220   3.192  11.025   2.319
13108SOL    HW141221   3.169  11.117   2.328
13108SOL    HW241222   3.229  11.000   2.403
13109SOL     OW41223   7.420  11.032  11.782
13109SOL    HW141224   7.365  11.103  11.750
13109SOL    HW241225   7.424  11.045  11.876
13110SOL     OW41226   5.046  14.711   8.236
13110SOL    HW141227   5.006  14.739   8.318
13110SOL    HW241228   5.129  14.758   8.232
13111SOL     OW41229   1.758   1.363   6.714
13111SOL    HW141230   1.817   1.387   6.642
13111SOL    HW241231   1.793   1.408   6.790
13112SOL     OW41232   5.731   2.121  11.736
13112SOL    HW141233   5.776   2.047  11.778
13112SOL    HW241234   5.744   2.194  11.797
13113SOL     OW41235  14.859   7.171  11.792
13113SOL    HW141236  14.881   7.112  11.719
13113SOL    HW241237  14.797   7.122  11.845
13114SOL     OW41238   7.615   3.910  14.085
13114SOL    HW141239   7.546   3.961  14.043
13114SOL    HW241240   7.571   3.857  14.151
13115SOL     OW41241   0.857   8.374  13.673
13115SOL    HW141242   0.834   8.466  13.688
13115SOL    HW241243   0.849   8.362  13.578
13116SOL     OW41244   1.496   5.913   2.924
13116SOL    HW141245   1.585   5.946   2.934
13116SOL    HW241246   1.441   5.978   2.968
13117SOL     OW41247  14.502   3.436   8.503
13117SOL    HW141248  14.410   3.458   8.485
13117SOL    HW241249  14.551   3.513   8.475
13118SOL     OW41250   0.628   9.891   9.872
13118SOL    HW141251   0.723   9.902   9.863
13118SOL    HW241252   0.617   9.801   9.901
13119SOL     OW41253   6.905   2.145  13.566
13119SOL    HW141254   6.923   2.203  13.493
13119SOL    HW241255   6.813   2.120  13.556
13120SOL     OW41256  10.123  13.918   0.689
13120SOL    HW141257  10.160  13.858   0.754
13120SOL    HW241258  10.140  14.006   0.725
13121SOL     OW41259   9.278  14.077   5.730
13121SOL    HW141260   9.317  14.027   5.801
13121SOL    HW241261   9.326  14.050   5.652
13122SOL     OW41262  14.608   8.840   5.203
13122SOL    HW141263  14.516   8.847   5.178
13122SOL    HW241264  14.644   8.775   5.142
13123SOL     OW41265  11.319   4.082  12.468
13123SOL    HW141266  11.411   4.102  12.487
13123SOL    HW241267  11.270   4.149  12.514
13124SOL     OW41268   1.244  11.725   3.285
13124SOL    HW141269   1.239  11.772   3.368
13124SOL    HW241270   1.328  11.751   3.248
13125SOL     OW41271   7.229  12.124   1.249
13125SOL    HW141272   7.269  12.067   1.183
13125SOL    HW241273   7.296  12.135   1.316
13126SOL     OW41274   6.770   0.134   7.427
13126SOL    HW141275   6.774   0.039   7.434
13126SOL    HW241276   6.731   0.150   7.341
13127SOL     OW41277  10.366   2.826   5.686
13127SOL    HW141278  10.396   2.776   5.611
13127SOL    HW241279  10.346   2.913   5.651
13128SOL     OW41280  12.811   5.982   6.781
13128SOL    HW141281  12.874   5.912   6.764
13128SOL    HW241282  12.861   6.063   6.770
13129SOL     OW41283  10.722   7.894  12.839
13129SOL    HW141284  10.682   7.977  12.863
13129SOL    HW241285  10.744   7.903  12.746
13130SOL     OW41286   9.530  14.819   4.253
13130SOL    HW141287   9.476  14.836   4.176
13130SOL    HW241288   9.619  14.810   4.219
13131SOL     OW41289  13.002   1.170  13.705
13131SOL    HW141290  12.922   1.207  13.668
13131SOL    HW241291  13.047   1.244  13.744
13132SOL     OW41292   4.778  12.463   0.415
13132SOL    HW141293   4.704  12.420   0.373
13132SOL    HW241294   4.754  12.466   0.508
13133SOL     OW41295   5.713  14.410   9.342
13133SOL    HW141296   5.743  14.473   9.277
13133SOL    HW241297   5.629  14.379   9.309
13134SOL     OW41298   3.006   7.009  10.975
13134SOL    HW141299   3.004   7.044  11.065
13134SOL    HW241300   2.920   6.970  10.962
13135SOL     OW41301   1.267   9.795   0.391
13135SOL    HW141302   1.254   9.700   0.385
13135SOL    HW241303   1.185   9.832   0.358
13136SOL     OW41304   2.405  10.355  11.052
13136SOL    HW141305   2.433  10.447  11.052
13136SOL    HW241306   2.341  10.349  10.981
13137SOL     OW41307   0.804   7.895   6.135
13137SOL    HW141308   0.814   7.988   6.156
13137SOL    HW241309   0.712   7.876   6.151
13138SOL     OW41310   6.626  10.912   0.955
13138SOL    HW141311   6.707  10.863   0.942
13138SOL    HW241312   6.647  10.978   1.020
13139SOL     OW41313  13.641  14.200   6.368
13139SOL    HW141314  13.600  14.161   6.291
13139SOL    HW241315  13.726  14.232   6.336
13140SOL     OW41316   8.102   7.421  11.638
13140SOL    HW141317   8.164   7.494  11.638
13140SOL    HW241318   8.139   7.358  11.699
13141SOL     OW41319  12.749   9.115   2.913
13141SOL    HW141320  12.661   9.077   2.907
13141SOL    HW241321  12.808   9.044   2.888
13142SOL     OW41322   7.435  13.580  14.465
13142SOL    HW141323   7.530  13.593  14.463
13142SOL    HW241324   7.409  13.581  14.373
13143SOL     OW41325  13.453   3.166  10.643
13143SOL    HW141326  13.523   3.156  10.579
13143SOL    HW241327  13.495   3.207  10.719
13144SOL     OW41328   0.281  12.177   0.805
13144SOL    HW141329   0.351  12.130   0.760
13144SOL    HW241330   0.314  12.187   0.895
13145SOL     OW41331   8.456   3.953   8.560
13145SOL    HW141332   8.388   3.953   8.492
13145SOL    HW241333   8.452   4.042   8.596
13146SOL     OW41334  11.146  12.242   0.033
13146SOL    HW141335  11.054  12.238   0.008
13146SOL    HW241336  11.161  12.164   0.086
13147SOL     OW41337  10.507   8.373   1.548
13147SOL    HW141338  10.602   8.364   1.536
13147SOL    HW241339  10.497   8.419   1.631
13148SOL     OW41340   3.775   7.759  11.267
13148SOL    HW141341   3.692   7.770  11.219
13148SOL    HW241342   3.776   7.830  11.330
13149SOL     OW41343   6.362   6.342   2.978
13149SOL    HW141344   6.368   6.411   3.044
13149SOL    HW241345   6.414   6.270   3.014
13150SOL     OW41346   7.534   4.332   1.387
13150SOL    HW141347   7.617   4.378   1.394
13150SOL    HW241348   7.533   4.273   1.463
13151SOL     OW41349   8.806  10.847  11.424
13151SOL    HW141350   8.788  10.803  11.508
13151SOL    HW241351   8.752  10.926  11.426
13152SOL     OW41352  14.413   1.921   0.201
13152SOL    HW141353  14.348   1.852   0.211
13152SOL    HW241354  14.495   1.883   0.234
13153SOL     OW41355   4.948   8.511  14.028
13153SOL    HW141356   4.891   8.437  14.046
13153SOL    HW241357   5.036   8.480  14.046
13154SOL     OW41358   7.762   3.715   9.556
13154SOL    HW141359   7.682   3.741   9.602
13154SOL    HW241360   7.739   3.721   9.463
13155SOL     OW41361  14.365   3.278   4.532
13155SOL    HW141362  14.460   3.282   4.517
13155SOL    HW241363  14.327   3.321   4.455
13156SOL     OW41364   7.611  13.569   3.059
13156SOL    HW141365   7.608  13.479   3.091
13156SOL    HW241366   7.561  13.620   3.123
13157SOL     OW41367  11.073   3.016   3.890
13157SOL    HW141368  11.062   3.098   3.843
13157SOL    HW241369  11.060   3.039   3.982
13158SOL     OW41370   8.081  11.781   1.523
13158SOL    HW141371   8.127  11.817   1.599
13158SOL    HW241372   7.998  11.750   1.557
13159SOL     OW41373   9.149  11.061  11.515
13159SOL    HW141374   9.188  10.979  11.485
13159SOL    HW241375   9.144  11.116  11.437
13160SOL     OW41376   6.717   5.934   3.364
13160SOL    HW141377   6.681   5.913   3.278
13160SOL    HW241378   6.812   5.921   3.355
13161SOL     OW41379   2.487  11.177  10.717
13161SOL    HW141380   2.468  11.187  10.623
13161SOL    HW241381   2.582  11.185  10.723
13162SOL     OW41382   8.455   1.336  11.860
13162SOL    HW141383   8.471   1.309  11.770
13162SOL    HW241384   8.543   1.347  11.898
13163SOL     OW41385   3.394   1.040  10.129
13163SOL    HW141386   3.453   1.028  10.054
13163SOL    HW241387   3.344   0.958  10.134
13164SOL     OW41388   2.115   5.855   9.490
13164SOL    HW141389   2.055   5.913   9.443
13164SOL    HW241390   2.202   5.883   9.462
13165SOL     OW41391   6.085   0.006   6.823
13165SOL    HW141392   6.093   0.071   6.753
13165SOL    HW241393   6.011  14.839   6.796
13166SOL     OW41394  13.930   7.042   8.508
13166SOL    HW141395  13.855   7.079   8.462
13166SOL    HW241396  14.007   7.080   8.465
13167SOL     OW41397  14.696   1.008  12.286
13167SOL    HW141398  14.742   1.038  12.208
13167SOL    HW241399  14.655   0.925  12.259
13168SOL     OW41400   0.239   2.543   5.478
13168SOL    HW141401   0.298   2.476   5.443
13168SOL    HW241402   0.218   2.512   5.566
13169SOL     OW41403   9.740   7.671   9.205
13169SOL    HW141404   9.809   7.731   9.177
13169SOL    HW241405   9.732   7.608   9.134
13170SOL     OW41406   8.012   4.549  12.933
13170SOL    HW141407   8.081   4.521  12.992
13170SOL    HW241408   8.042   4.633  12.900
13171SOL     OW41409  10.446   1.538  14.854
13171SOL    HW141410  10.520   1.538   0.026
13171SOL    HW241411  10.415   1.628  14.852
13172SOL     OW41412   7.435   7.224  14.694
13172SOL    HW141413   7.380   7.169  14.638
13172SOL    HW241414   7.386   7.231  14.776
13173SOL     OW41415   4.784   8.586   8.288
13173SOL    HW141416   4.761   8.548   8.203
13173SOL    HW241417   4.854   8.648   8.267
13174SOL     OW41418   2.889   3.986   0.097
13174SOL    HW141419   2.821   4.020   0.155
13174SOL    HW241420   2.845   3.972   0.013
13175SOL     OW41421   4.720   9.513   2.359
13175SOL    HW141422   4.683   9.499   2.272
13175SOL    HW241423   4.765   9.596   2.354
13176SOL     OW41424   8.383  11.145   0.206
13176SOL    HW141425   8.294  11.120   0.182
13176SOL    HW241426   8.406  11.086   0.277
13177SOL     OW41427  10.373   2.529  14.744
13177SOL    HW141428  10.350   2.442  14.711
13177SOL    HW241429  10.410   2.574  14.668
13178SOL     OW41430   9.069  13.355  13.741
13178SOL    HW141431   9.098  13.362  13.649
13178SOL    HW241432   9.008  13.282  13.741
13179SOL     OW41433   4.115   3.881  13.856
13179SOL    HW141434   4.205   3.901  13.882
13179SOL    HW241435   4.060   3.935  13.913
13180SOL     OW41436   0.991   0.920   9.937
13180SOL    HW141437   0.916   0.964   9.898
13180SOL    HW241438   1.032   0.873   9.865
13181SOL     OW41439  10.134   4.473   6.762
13181SOL    HW141440  10.189   4.395   6.756
13181SOL    HW241441  10.144   4.516   6.677
13182SOL     OW41442   1.639  13.992  10.001
13182SOL    HW141443   1.687  13.967  10.080
13182SOL    HW241444   1.581  13.918   9.983
13183SOL     OW41445   2.234  12.092  13.163
13183SOL    HW141446   2.298  12.025  13.140
13183SOL    HW241447   2.231  12.150  13.087
13184SOL     OW41448   1.674   8.324   5.178
13184SOL    HW141449   1.685   8.419   5.190
13184SOL    HW241450   1.673   8.289   5.267
13185SOL     OW41451  14.252   8.383   0.365
13185SOL    HW141452  14.260   8.307   0.307
13185SOL    HW241453  14.342   8.413   0.378
13186SOL     OW41454  11.835   5.459  10.941
13186SOL    HW141455  11.911   5.462  10.999
13186SOL    HW241456  11.806   5.368  10.943
13187SOL     OW41457  13.986   4.694   1.855
13187SOL    HW141458  14.021   4.630   1.917
13187SOL    HW241459  14.049   4.695   1.783
13188SOL     OW41460   0.651   7.899   0.197
13188SOL    HW141461   0.638   7.953   0.119
13188SOL    HW241462   0.724   7.841   0.175
13189SOL     OW41463   7.774  14.015  12.647
13189SOL    HW141464   7.727  14.076  12.590
13189SOL    HW241465   7.825  13.961  12.587
13190SOL     OW41466   7.432  14.373   8.695
13190SOL    HW141467   7.449  14.439   8.762
13190SOL    HW241468   7.518  14.342   8.669
13191SOL     OW41469   1.781  14.419  11.086
13191SOL    HW141470   1.758  14.508  11.113
13191SOL    HW241471   1.707  14.365  11.116
13192SOL     OW41472   0.499  12.873   8.532
13192SOL    HW141473   0.478  12.864   8.625
13192SOL    HW241474   0.594  12.882   8.528
13193SOL     OW41475   4.987   2.733   6.244
13193SOL    HW141476   5.032   2.799   6.190
13193SOL    HW241477   5.002   2.651   6.198
13194SOL     OW41478  11.916  10.154   3.646
13194SOL    HW141479  11.942  10.180   3.557
13194SOL    HW241480  11.977  10.083   3.668
13195SOL     OW41481  10.201   2.763   8.773
13195SOL    HW141482  10.289   2.740   8.802
13195SOL    HW241483  10.191   2.718   8.689
13196SOL     OW41484   5.691   0.278  13.823
13196SOL    HW141485   5.712   0.335  13.897
13196SOL    HW241486   5.646   0.336  13.761
13197SOL     OW41487   2.232  11.282   5.953
13197SOL    HW141488   2.318  11.318   5.977
13197SOL    HW241489   2.211  11.325   5.870
13198SOL     OW41490   3.271   0.504   3.086
13198SOL    HW141491   3.344   0.564   3.100
13198SOL    HW241492   3.210   0.523   3.157
13199SOL     OW41493  11.842  12.990   8.556
13199SOL    HW141494  11.868  13.030   8.639
13199SOL    HW241495  11.888  13.042   8.489
13200SOL     OW41496   5.968   3.257   7.664
13200SOL    HW141497   5.941   3.289   7.750
13200SOL    HW241498   6.031   3.187   7.683
13201SOL     OW41499  12.132   0.043  12.678
13201SOL    HW141500  12.113  14.840  12.704
13201SOL    HW241501  12.195   0.034  12.606
13202SOL     OW41502   0.639   6.184   4.712
13202SOL    HW141503   0.551   6.163   4.743
13202SOL    HW241504   0.658   6.116   4.647
13203SOL     OW41505   1.130   4.671   4.853
13203SOL    HW141506   1.054   4.706   4.898
13203SOL    HW241507   1.109   4.579   4.837
13204SOL     OW41508  14.725   8.377   7.612
13204SOL    HW141509  14.721   8.469   7.585
13204SOL    HW241510  14.776   8.379   7.693
13205SOL     OW41511   2.330   2.373  12.320
13205SOL    HW141512   2.280   2.449  12.287
13205SOL    HW241513   2.294   2.358  12.408
13206SOL     OW41514   9.639  14.781  12.368
13206SOL    HW141515   9.648  14.687  12.348
13206SOL    HW241516   9.728  14.810  12.387
13207SOL     OW41517  10.955   3.900   0.246
13207SOL    HW141518  10.916   3.857   0.170
13207SOL    HW241519  10.895   3.972   0.267
13208SOL     OW41520   8.924   1.712   3.294
13208SOL    HW141521   8.914   1.794   3.342
13208SOL    HW241522   8.873   1.648   3.344
13209SOL     OW41523   7.596   5.746   3.452
13209SOL    HW141524   7.597   5.818   3.389
13209SOL    HW241525   7.563   5.786   3.533
13210SOL     OW41526   1.358  11.537   3.085
13210SOL    HW141527   1.312  11.609   3.040
13210SOL    HW241528   1.364  11.567   3.176
13211SOL     OW41529  10.000   5.577   4.874
13211SOL    HW141530   9.962   5.516   4.811
13211SOL    HW241531   9.973   5.664   4.842
13212SOL     OW41532  11.262   0.216  11.134
13212SOL    HW141533  11.245   0.282  11.202
13212SOL    HW241534  11.175   0.190  11.103
13213SOL     OW41535  12.070   0.792  10.078
13213SOL    HW141536  12.017   0.868  10.105
13213SOL    HW241537  12.024   0.757  10.002
13214SOL     OW41538   5.797   4.465  10.705
13214SOL    HW141539   5.728   4.409  10.742
13214SOL    HW241540   5.825   4.420  10.625
13215SOL     OW41541  12.034  11.843   4.036
13215SOL    HW141542  12.064  11.766   4.084
13215SOL    HW241543  11.953  11.815   3.993
13216SOL     OW41544   9.924   2.754  10.442
13216SOL    HW141545   9.874   2.814  10.386
13216SOL    HW241546   9.890   2.667  10.420
13217SOL     OW41547   1.879  12.229   1.559
13217SOL    HW141548   1.831  12.159   1.603
13217SOL    HW241549   1.963  12.232   1.603
13218SOL     OW41550   0.266  12.315  13.586
13218SOL    HW141551   0.234  12.404  13.573
13218SOL    HW241552   0.327  12.321  13.659
13219SOL     OW41553   1.601   4.560   5.111
13219SOL    HW141554   1.586   4.638   5.164
13219SOL    HW241555   1.520   4.550   5.061
13220SOL     OW41556   2.158  12.122  13.833
13220SOL    HW141557   2.209  12.041  13.840
13220SOL    HW241558   2.093  12.115  13.903
13221SOL     OW41559   3.354  12.771   0.673
13221SOL    HW141560   3.396  12.685   0.664
13221SOL    HW241561   3.282  12.756   0.734
13222SOL     OW41562  13.987   8.140   2.986
13222SOL    HW141563  14.069   8.160   3.032
13222SOL    HW241564  13.977   8.211   2.922
13223SOL     OW41565  10.884   6.011   0.783
13223SOL    HW141566  10.821   5.975   0.845
13223SOL    HW241567  10.909   6.095   0.821
13224SOL     OW41568   3.230   3.598   7.441
13224SOL    HW141569   3.144   3.638   7.451
13224SOL    HW241570   3.257   3.622   7.352
13225SOL     OW41571  11.998  12.752   6.653
13225SOL    HW141572  11.906  12.730   6.660
13225SOL    HW241573  12.000  12.831   6.598
13226SOL     OW41574   5.833  11.140  11.387
13226SOL    HW141575   5.820  11.191  11.307
13226SOL    HW241576   5.748  11.141  11.431
13227SOL     OW41577   4.237  14.108   3.002
13227SOL    HW141578   4.239  14.013   3.014
13227SOL    HW241579   4.310  14.140   3.054
13228SOL     OW41580   8.975   9.288   3.502
13228SOL    HW141581   8.890   9.287   3.545
13228SOL    HW241582   8.956   9.275   3.410
13229SOL     OW41583   8.627  10.529  13.677
13229SOL    HW141584   8.697  10.485  13.628
13229SOL    HW241585   8.671  10.594  13.730
13230SOL     OW41586  11.078   6.557   5.820
13230SOL    HW141587  11.122   6.481   5.783
13230SOL    HW241588  10.993   6.525   5.849
13231SOL     OW41589   3.661   3.025  14.144
13231SOL    HW141590   3.582   3.046  14.094
13231SOL    HW241591   3.694   2.944  14.105
13232SOL     OW41592  14.193  13.346  12.623
13232SOL    HW141593  14.200  13.438  12.596
13232SOL    HW241594  14.223  13.296  12.547
13233SOL     OW41595   9.535   5.010   5.318
13233SOL    HW141596   9.446   5.029   5.347
13233SOL    HW241597   9.556   4.925   5.358
13234SOL     OW41598   6.481   3.648   3.510
13234SOL    HW141599   6.448   3.674   3.596
13234SOL    HW241600   6.466   3.553   3.507
13235SOL     OW41601   4.019   4.220   6.606
13235SOL    HW141602   4.042   4.280   6.535
13235SOL    HW241603   3.940   4.257   6.645
13236SOL     OW41604  11.172  13.279  10.271
13236SOL    HW141605  11.078  13.272  10.253
13236SOL    HW241606  11.177  13.326  10.355
13237SOL     OW41607   4.611   7.382   0.540
13237SOL    HW141608   4.642   7.434   0.466
13237SOL    HW241609   4.653   7.421   0.616
13238SOL     OW41610  12.960   0.704  13.642
13238SOL    HW141611  13.016   0.769  13.682
13238SOL    HW241612  12.871   0.739  13.652
13239SOL     OW41613   5.868  13.692  12.935
13239SOL    HW141614   5.916  13.681  12.853
13239SOL    HW241615   5.841  13.603  12.959
13240SOL     OW41616  11.912  13.413   6.839
13240SOL    HW141617  11.906  13.335   6.894
13240SOL    HW241618  11.949  13.382   6.756
13241SOL     OW41619   6.077  12.972   5.467
13241SOL    HW141620   6.066  13.041   5.401
13241SOL    HW241621   6.158  12.928   5.442
13242SOL     OW41622   6.609   1.756  11.899
13242SOL    HW141623   6.673   1.685  11.897
13242SOL    HW241624   6.529   1.717  11.863
13243SOL     OW41625  12.952  13.939   2.407
13243SOL    HW141626  12.917  13.979   2.486
13243SOL    HW241627  12.917  13.992   2.336
13244SOL     OW41628   3.900  11.913  11.226
13244SOL    HW141629   3.811  11.947  11.236
13244SOL    HW241630   3.901  11.874  11.139
13245SOL     OW41631  12.227   8.787  11.869
13245SOL    HW141632  12.269   8.858  11.821
13245SOL    HW241633  12.295   8.720  11.878
13246SOL     OW41634   7.820   7.463   8.977
13246SOL    HW141635   7.838   7.541   8.924
13246SOL    HW241636   7.822   7.391   8.914
13247SOL     OW41637  10.193   0.887  10.031
13247SOL    HW141638  10.268   0.946  10.022
13247SOL    HW241639  10.205   0.821   9.962
13248SOL     OW41640   0.063   8.762  14.841
13248SOL    HW141641   0.116   8.771  14.761
13248SOL    HW241642  14.861   8.751  14.809
13249SOL     OW41643  12.749   2.176   6.488
13249SOL    HW141644  12.727   2.201   6.577
13249SOL    HW241645  12.813   2.241   6.459
13250SOL     OW41646  14.449   4.744   0.092
13250SOL    HW141647  14.468   4.788   0.009
13250SOL    HW241648  14.449   4.815   0.157
13251SOL     OW41649   7.960   0.670  12.102
13251SOL    HW141650   7.926   0.596  12.052
13251SOL    HW241651   7.921   0.747  12.061
13252SOL     OW41652   8.800   2.339  11.949
13252SOL    HW141653   8.894   2.323  11.940
13252SOL    HW241654   8.794   2.411  12.012
13253SOL     OW41655  13.018  13.210   4.502
13253SOL    HW141656  13.111  13.219   4.523
13253SOL    HW241657  12.988  13.300   4.491
13254SOL     OW41658   9.050   3.596  14.071
13254SOL    HW141659   9.101   3.647  14.008
13254SOL    HW241660   9.114   3.569  14.137
13255SOL     OW41661   0.053   1.897   6.494
13255SOL    HW141662   0.055   1.843   6.415
13255SOL    HW241663   0.122   1.962   6.480
13256SOL     OW41664   9.323   7.314   6.847
13256SOL    HW141665   9.281   7.236   6.882
13256SOL    HW241666   9.282   7.328   6.761
13257SOL     OW41667   5.270  10.561   3.684
13257SOL    HW141668   5.212  10.507   3.738
13257SOL    HW241669   5.324  10.498   3.637
13258SOL     OW41670   1.396   4.424  13.296
13258SOL    HW141671   1.322   4.477  13.268
13258SOL    HW241672   1.414   4.367  13.222
13259SOL     OW41673   5.646  12.826   3.579
13259SOL    HW141674   5.660  12.914   3.616
13259SOL    HW241675   5.561  12.831   3.537
13260SOL     OW41676   7.566   9.279  12.848
13260SOL    HW141677   7.541   9.314  12.762
13260SOL    HW241678   7.547   9.185  12.842
13261SOL     OW41679  13.007   0.608   3.671
13261SOL    HW141680  12.930   0.589   3.724
13261SOL    HW241681  13.070   0.646   3.733
13262SOL     OW41682   7.883   9.081   4.176
13262SOL    HW141683   7.973   9.058   4.199
13262SOL    HW241684   7.864   9.160   4.227
13263SOL     OW41685  12.706   9.809   3.624
13263SOL    HW141686  12.785   9.848   3.587
13263SOL    HW241687  12.736   9.764   3.703
13264SOL     OW41688  10.865  11.496   4.191
13264SOL    HW141689  10.959  11.504   4.204
13264SOL    HW241690  10.828  11.577   4.227
13265SOL     OW41691   5.212  10.726   0.654
13265SOL    HW141692   5.284  10.673   0.619
13265SOL    HW241693   5.241  10.751   0.741
13266SOL     OW41694   7.289  11.301   0.538
13266SOL    HW141695   7.255  11.295   0.628
13266SOL    HW241696   7.213  11.286   0.483
13267SOL     OW41697  12.789   8.921   5.126
13267SOL    HW141698  12.822   8.845   5.078
13267SOL    HW241699  12.725   8.884   5.187
13268SOL     OW41700   6.349  14.638  14.354
13268SOL    HW141701   6.414  14.569  14.342
13268SOL    HW241702   6.328  14.667  14.265
13269SOL     OW41703   4.900   3.810   7.813
13269SOL    HW141704   4.841   3.738   7.837
13269SOL    HW241705   4.842   3.878   7.778
13270SOL     OW41706  14.788   7.111   4.570
13270SOL    HW141707  14.749   7.156   4.495
13270SOL    HW241708  14.732   7.034   4.583
13271SOL     OW41709  11.146   3.475   6.120
13271SOL    HW141710  11.187   3.545   6.069
13271SOL    HW241711  11.215   3.410   6.133
13272SOL     OW41712   5.045   8.061   4.177
13272SOL    HW141713   5.025   8.056   4.084
13272SOL    HW241714   5.120   8.120   4.182
13273SOL     OW41715   4.143  10.411   2.307
13273SOL    HW141716   4.097  10.327   2.307
13273SOL    HW241717   4.204  10.406   2.380
13274SOL     OW41718   3.380   9.213   4.256
13274SOL    HW141719   3.459   9.188   4.208
13274SOL    HW241720   3.313   9.223   4.189
13275SOL     OW41721   9.236   8.582   7.861
13275SOL    HW141722   9.224   8.666   7.817
13275SOL    HW241723   9.157   8.532   7.840
13276SOL     OW41724   9.455   2.374   2.358
13276SOL    HW141725   9.411   2.405   2.437
13276SOL    HW241726   9.409   2.417   2.286
13277SOL     OW41727   1.153   1.113   6.792
13277SOL    HW141728   1.087   1.171   6.754
13277SOL    HW241729   1.229   1.170   6.809
13278SOL     OW41730  10.543   1.074   5.624
13278SOL    HW141731  10.592   1.046   5.702
13278SOL    HW241732  10.488   1.146   5.655
13279SOL     OW41733   4.353   0.509   2.494
13279SOL    HW141734   4.297   0.461   2.433
13279SOL    HW241735   4.417   0.444   2.524
13280SOL     OW41736  14.563  13.891  14.516
13280SOL    HW141737  14.612  13.834  14.576
13280SOL    HW241738  14.583  13.980  14.545
13281SOL     OW41739   3.645  11.157   8.483
13281SOL    HW141740   3.653  11.194   8.395
13281SOL    HW241741   3.628  11.232   8.540
13282SOL     OW41742   9.660  12.388   7.833
13282SOL    HW141743   9.691  12.466   7.788
13282SOL    HW241744   9.603  12.344   7.770
13283SOL     OW41745   1.289   7.621   2.462
13283SOL    HW141746   1.308   7.613   2.555
13283SOL    HW241747   1.374   7.631   2.420
13284SOL     OW41748   2.961   5.115   2.815
13284SOL    HW141749   2.869   5.089   2.815
13284SOL    HW241750   2.980   5.136   2.723
13285SOL     OW41751  11.802  11.165  11.505
13285SOL    HW141752  11.893  11.134  11.503
13285SOL    HW241753  11.803  11.236  11.569
13286SOL     OW41754   2.865  12.975   1.595
13286SOL    HW141755   2.855  13.037   1.523
13286SOL    HW241756   2.802  12.905   1.575
13287SOL     OW41757   3.793   9.623  12.094
13287SOL    HW141758   3.748   9.541  12.113
13287SOL    HW241759   3.840   9.644  12.175
13288SOL     OW41760   2.466   6.685  13.591
13288SOL    HW141761   2.558   6.707  13.578
13288SOL    HW241762   2.466   6.625  13.666
13289SOL     OW41763   8.355   5.459   0.291
13289SOL    HW141764   8.401   5.427   0.368
13289SOL    HW241765   8.292   5.522   0.325
13290SOL     OW41766   2.887  13.738  14.662
13290SOL    HW141767   2.918  13.665  14.714
13290SOL    HW241768   2.810  13.703  14.615
13291SOL     OW41769   0.637   5.307  13.356
13291SOL    HW141770   0.732   5.298  13.346
13291SOL    HW241771   0.608   5.224  13.394
13292SOL     OW41772   0.519  11.233   6.417
13292SOL    HW141773   0.533  11.327   6.401
13292SOL    HW241774   0.594  11.206   6.470
13293SOL     OW41775   7.928  10.845   9.957
13293SOL    HW141776   7.967  10.929   9.980
13293SOL    HW241777   7.954  10.786  10.028
13294SOL     OW41778   7.493  14.474   8.379
13294SOL    HW141779   7.443  14.556   8.373
13294SOL    HW241780   7.442  14.419   8.438
13295SOL     OW41781   2.657   6.197  11.527
13295SOL    HW141782   2.589   6.260  11.550
13295SOL    HW241783   2.719   6.201  11.599
13296SOL     OW41784   0.372  12.532   8.693
13296SOL    HW141785   0.281  12.559   8.700
13296SOL    HW241786   0.416  12.575   8.766
13297SOL     OW41787  12.922   5.248   3.662
13297SOL    HW141788  12.865   5.174   3.638
13297SOL    HW241789  12.981   5.257   3.588
13298SOL     OW41790  11.866   2.130   1.728
13298SOL    HW141791  11.861   2.107   1.821
13298SOL    HW241792  11.900   2.050   1.686
13299SOL     OW41793   1.084   1.075   9.563
13299SOL    HW141794   1.120   1.022   9.491
13299SOL    HW241795   1.021   1.017   9.606
13300SOL     OW41796   9.993   2.670  10.126
13300SOL    HW141797  10.053   2.743  10.146
13300SOL    HW241798  10.051   2.596  10.108
13301SOL     OW41799   0.922   8.104  12.148
13301SOL    HW141800   0.962   8.030  12.103
13301SOL    HW241801   0.841   8.068  12.185
13302SOL     OW41802   5.236  10.703   4.902
13302SOL    HW141803   5.235  10.659   4.817
13302SOL    HW241804   5.160  10.668   4.948
13303SOL     OW41805   8.673   0.340  11.100
13303SOL    HW141806   8.734   0.320  11.171
13303SOL    HW241807   8.586   0.327  11.138
13304SOL     OW41808  14.092   6.755  12.907
13304SOL    HW141809  14.161   6.785  12.966
13304SOL    HW241810  14.078   6.829  12.847
13305SOL     OW41811   5.636   7.903   0.419
13305SOL    HW141812   5.714   7.906   0.474
13305SOL    HW241813   5.668   7.887   0.331
13306SOL     OW41814   0.016   1.812   2.799
13306SOL    HW141815  14.827   1.829   2.854
13306SOL    HW241816   0.030   1.718   2.806
13307SOL     OW41817  13.184  14.609   1.990
13307SOL    HW141818  13.205  14.699   2.013
13307SOL    HW241819  13.229  14.556   2.055
13308SOL     OW41820   3.182  13.868   1.299
13308SOL    HW141821   3.182  13.956   1.337
13308SOL    HW241822   3.274  13.844   1.294
13309SOL     OW41823   1.482   0.183  13.730
13309SOL    HW141824   1.394   0.214  13.708
13309SOL    HW241825   1.472   0.142  13.816
13310SOL     OW41826   3.826   7.798  10.873
13310SOL    HW141827   3.908   7.844  10.893
13310SOL    HW241828   3.852   7.707  10.864
13311SOL     OW41829   7.920   7.101   4.512
13311SOL    HW141830   7.825   7.104   4.515
13311SOL    HW241831   7.948   7.178   4.563
13312SOL     OW41832  13.482   1.583   3.560
13312SOL    HW141833  13.438   1.668   3.556
13312SOL    HW241834  13.432   1.533   3.625
13313SOL     OW41835   8.460   9.682   3.566
13313SOL    HW141836   8.476   9.688   3.660
13313SOL    HW241837   8.426   9.768   3.542
13314SOL     OW41838   4.145   8.712  13.099
13314SOL    HW141839   4.078   8.653  13.064
13314SOL    HW241840   4.171   8.767  13.024
13315SOL     OW41841   6.693   3.920  11.661
13315SOL    HW141842   6.636   3.880  11.597
13315SOL    HW241843   6.646   3.998  11.691
13316SOL     OW41844   3.906   0.834  11.809
13316SOL    HW141845   3.840   0.895  11.777
13316SOL    HW241846   3.967   0.824  11.735
13317SOL     OW41847   1.294   8.006  13.201
13317SOL    HW141848   1.311   8.077  13.140
13317SOL    HW241849   1.272   7.931  13.146
13318SOL     OW41850   1.657  14.235   7.085
13318SOL    HW141851   1.682  14.144   7.071
13318SOL    HW241852   1.716  14.266   7.154
13319SOL     OW41853  14.440   2.365  11.487
13319SOL    HW141854  14.456   2.302  11.558
13319SOL    HW241855  14.401   2.312  11.417
13320SOL     OW41856   8.243  13.814   6.258
13320SOL    HW141857   8.186  13.804   6.334
13320SOL    HW241858   8.184  13.813   6.183
13321SOL     OW41859  14.352   3.267   9.584
13321SOL    HW141860  14.426   3.226   9.630
13321SOL    HW241861  14.379   3.358   9.572
13322SOL     OW41862   0.409   7.960   8.923
13322SOL    HW141863   0.338   7.974   8.987
13322SOL    HW241864   0.378   8.002   8.843
13323SOL     OW41865  13.806  12.288  10.347
13323SOL    HW141866  13.775  12.308  10.435
13323SOL    HW241867  13.891  12.330  10.341
13324SOL     OW41868   5.854   9.034   7.787
13324SOL    HW141869   5.816   9.053   7.702
13324SOL    HW241870   5.913   8.960   7.772
13325SOL     OW41871   0.596  13.110   7.731
13325SOL    HW141872   0.639  13.027   7.750
13325SOL    HW241873   0.536  13.123   7.805
13326SOL     OW41874   8.426  10.343   3.033
13326SOL    HW141875   8.429  10.389   2.949
13326SOL    HW241876   8.346  10.375   3.075
13327SOL     OW41877   3.859  14.552   5.564
13327SOL    HW141878   3.900  14.483   5.511
13327SOL    HW241879   3.800  14.597   5.503
13328SOL     OW41880  14.571   8.974   6.410
13328SOL    HW141881  14.520   8.918   6.350
13328SOL    HW241882  14.630   8.913   6.454
13329SOL     OW41883   0.074  10.601   2.544
13329SOL    HW141884   0.042  10.574   2.631
13329SOL    HW241885   0.044  10.691   2.535
13330SOL     OW41886   4.435   0.744   5.991
13330SOL    HW141887   4.512   0.716   5.941
13330SOL    HW241888   4.431   0.839   5.978
13331SOL     OW41889   8.289   4.769  11.663
13331SOL    HW141890   8.288   4.697  11.600
13331SOL    HW241891   8.277   4.726  11.748
13332SOL     OW41892   1.656  12.630  10.857
13332SOL    HW141893   1.661  12.604  10.765
13332SOL    HW241894   1.573  12.677  10.864
13333SOL     OW41895   0.787   7.057  13.146
13333SOL    HW141896   0.862   7.066  13.205
13333SOL    HW241897   0.779   7.143  13.104
13334SOL     OW41898  11.866  12.090  10.758
13334SOL    HW141899  11.869  11.994  10.756
13334SOL    HW241900  11.805  12.113  10.688
13335SOL     OW41901  10.608  13.132  10.577
13335SOL    HW141902  10.624  13.091  10.492
13335SOL    HW241903  10.513  13.130  10.587
13336SOL     OW41904   2.787   5.641   1.646
13336SOL    HW141905   2.769   5.705   1.578
13336SOL    HW241906   2.775   5.556   1.603
13337SOL     OW41907  12.029   4.821  11.887
13337SOL    HW141908  12.067   4.909  11.890
13337SOL    HW241909  11.951   4.826  11.942
13338SOL     OW41910   5.145   8.982   1.299
13338SOL    HW141911   5.200   8.907   1.322
13338SOL    HW241912   5.202   9.038   1.247
13339SOL     OW41913  11.561  11.850  10.330
13339SOL    HW141914  11.630  11.917  10.334
13339SOL    HW241915  11.561  11.810  10.417
13340SOL     OW41916   0.439   3.856   6.613
13340SOL    HW141917   0.490   3.785   6.653
13340SOL    HW241918   0.466   3.934   6.661
13341SOL     OW41919   1.597  10.821   0.454
13341SOL    HW141920   1.504  10.801   0.445
13341SOL    HW241921   1.607  10.853   0.543
13342SOL     OW41922  11.956  10.529   7.214
13342SOL    HW141923  11.991  10.581   7.287
13342SOL    HW241924  11.862  10.545   7.216
13343SOL     OW41925   9.464  14.129   7.425
13343SOL    HW141926   9.380  14.153   7.385
13343SOL    HW241927   9.444  14.116   7.517
13344SOL     OW41928  13.391   0.379  11.171
13344SOL    HW141929  13.428   0.292  11.185
13344SOL    HW241930  13.324   0.388  11.239
13345SOL     OW41931   5.580   4.768   0.858
13345SOL    HW141932   5.568   4.713   0.780
13345SOL    HW241933   5.664   4.739   0.894
13346SOL     OW41934   8.874   2.851   5.742
13346SOL    HW141935   8.957   2.838   5.697
13346SOL    HW241936   8.881   2.938   5.782
13347SOL     OW41937   5.306   1.035   9.702
13347SOL    HW141938   5.264   0.952   9.723
13347SOL    HW241939   5.235   1.091   9.671
13348SOL     OW41940  14.418  14.879   5.623
13348SOL    HW141941  14.367  14.823   5.681
13348SOL    HW241942  14.496   0.015   5.673
13349SOL     OW41943   9.763   4.161  14.377
13349SOL    HW141944   9.701   4.142  14.308
13349SOL    HW241945   9.834   4.209  14.333
13350SOL     OW41946  13.145   2.667  13.621
13350SOL    HW141947  13.170   2.690  13.710
13350SOL    HW241948  13.178   2.579  13.608
13351SOL     OW41949   1.753   5.544   0.360
13351SOL    HW141950   1.764   5.461   0.313
13351SOL    HW241951   1.686   5.525   0.427
13352SOL     OW41952   1.168   8.968   0.900
13352SOL    HW141953   1.189   8.896   0.841
13352SOL    HW241954   1.175   8.930   0.988
13353SOL     OW41955   1.369  10.399  12.807
13353SOL    HW141956   1.356  10.321  12.861
13353SOL    HW241957   1.383  10.470  12.870
13354SOL     OW41958  13.111   2.836   7.448
13354SOL    HW141959  13.073   2.871   7.367
13354SOL    HW241960  13.179   2.899   7.472
13355SOL     OW41961   1.304  13.628   6.492
13355SOL    HW141962   1.249  13.582   6.555
13355SOL    HW241963   1.344  13.698   6.542
13356SOL     OW41964   9.808   9.156   6.922
13356SOL    HW141965   9.866   9.088   6.955
13356SOL    HW241966   9.866   9.218   6.877
13357SOL     OW41967  11.234  10.738   8.113
13357SOL    HW141968  11.322  10.713   8.140
13357SOL    HW241969  11.176  10.696   8.177
13358SOL     OW41970   4.901   3.658   3.016
13358SOL    HW141971   4.812   3.675   2.983
13358SOL    HW241972   4.895   3.671   3.110
13359SOL     OW41973   2.641  14.708   0.323
13359SOL    HW141974   2.726  14.731   0.288
13359SOL    HW241975   2.608  14.641   0.263
13360SOL     OW41976   3.104  12.208   2.473
13360SOL    HW141977   3.028  12.237   2.524
13360SOL    HW241978   3.130  12.284   2.421
13361SOL     OW41979   9.027  14.200   3.916
13361SOL    HW141980   8.974  14.270   3.876
13361SOL    HW241981   9.082  14.168   3.844
13362SOL     OW41982   7.787   8.769   0.814
13362SOL    HW141983   7.692   8.779   0.814
13362SOL    HW241984   7.820   8.856   0.837
13363SOL     OW41985   1.679   7.307   3.915
13363SOL    HW141986   1.673   7.226   3.864
13363SOL    HW241987   1.698   7.278   4.004
13364SOL     OW41988   7.948   7.276  14.473
13364SOL    HW141989   7.893   7.208  14.511
13364SOL    HW241990   7.896   7.356  14.482
13365SOL     OW41991   4.480  11.736  13.811
13365SOL    HW141992   4.505  11.646  13.831
13365SOL    HW241993   4.418  11.760  13.879
13366SOL     OW41994   6.131   2.825   2.229
13366SOL    HW141995   6.172   2.876   2.299
13366SOL    HW241996   6.185   2.842   2.152
13367SOL     OW41997   5.789  13.512  13.558
13367SOL    HW141998   5.748  13.465  13.484
13367SOL    HW241999   5.808  13.443  13.621
13368SOL     OW42000   1.633  12.486   4.934
13368SOL    HW142001   1.592  12.454   5.015
13368SOL    HW242002   1.594  12.433   4.865
13369SOL     OW42003   2.134  14.467   5.784
13369SOL    HW142004   2.149  14.387   5.834
13369SOL    HW242005   2.219  14.511   5.783
13370SOL     OW42006   1.653  10.931   0.190
13370SOL    HW142007   1.627  10.886   0.270
13370SOL    HW242008   1.723  10.990   0.217
13371SOL     OW42009   9.158  14.140   6.771
13371SOL    HW142010   9.139  14.079   6.842
13371SOL    HW242011   9.124  14.224   6.801
13372SOL     OW42012  12.926  14.442   1.884
13372SOL    HW142013  13.022  14.441   1.889
13372SOL    HW242014  12.902  14.530   1.911
13373SOL     OW42015   1.146   8.075   7.266
13373SOL    HW142016   1.058   8.107   7.285
13373SOL    HW242017   1.171   8.025   7.344
13374SOL     OW42018   6.930   9.497  13.452
13374SOL    HW142019   7.000   9.435  13.475
13374SOL    HW242020   6.974   9.564  13.400
13375SOL     OW42021   5.355   9.688   9.919
13375SOL    HW142022   5.281   9.746   9.904
13375SOL    HW242023   5.353   9.628   9.844
13376SOL     OW42024  11.888  13.860   4.995
13376SOL    HW142025  11.903  13.775   4.952
13376SOL    HW242026  11.805  13.890   4.958
13377SOL     OW42027  11.147   5.806   7.976
13377SOL    HW142028  11.096   5.858   7.913
13377SOL    HW242029  11.207   5.755   7.922
13378SOL     OW42030   0.996   5.951   9.268
13378SOL    HW142031   1.070   5.943   9.208
13378SOL    HW242032   0.958   5.863   9.271
13379SOL     OW42033   7.492   1.422   1.398
13379SOL    HW142034   7.524   1.373   1.323
13379SOL    HW242035   7.548   1.499   1.403
13380SOL     OW42036   7.417   6.364   5.473
13380SOL    HW142037   7.461   6.297   5.526
13380SOL    HW242038   7.395   6.433   5.536
13381SOL     OW42039   3.667   5.540   9.940
13381SOL    HW142040   3.588   5.526   9.991
13381SOL    HW242041   3.690   5.454   9.906
13382SOL     OW42042   9.012   9.498  12.530
13382SOL    HW142043   9.083   9.562  12.538
13382SOL    HW242044   9.056   9.413  12.526
13383SOL     OW42045   7.739  11.434   9.183
13383SOL    HW142046   7.754  11.340   9.198
13383SOL    HW242047   7.823  11.475   9.205
13384SOL     OW42048   5.990  11.658   9.378
13384SOL    HW142049   6.041  11.679   9.456
13384SOL    HW242050   5.920  11.723   9.376
13385SOL     OW42051   0.984  11.943   5.906
13385SOL    HW142052   0.891  11.947   5.885
13385SOL    HW242053   0.990  11.984   5.993
13386SOL     OW42054  10.514   9.696  10.094
13386SOL    HW142055  10.476   9.677  10.008
13386SOL    HW242056  10.605   9.719  10.075
13387SOL     OW42057   6.252   2.398   2.238
13387SOL    HW142058   6.327   2.431   2.188
13387SOL    HW242059   6.280   2.402   2.329
13388SOL     OW42060   9.283   0.894  12.577
13388SOL    HW142061   9.331   0.948  12.639
13388SOL    HW242062   9.282   0.807  12.617
13389SOL     OW42063   0.985  10.876   9.131
13389SOL    HW142064   0.989  10.972   9.132
13389SOL    HW242065   1.050  10.850   9.065
13390SOL     OW42066   5.320   5.068   4.874
13390SOL    HW142067   5.378   4.995   4.897
13390SOL    HW242068   5.318   5.121   4.954
13391SOL     OW42069   5.806  11.487   2.621
13391SOL    HW142070   5.751  11.496   2.698
13391SOL    HW242071   5.807  11.575   2.581
13392SOL     OW42072  10.918  14.699   5.252
13392SOL    HW142073  10.898  14.652   5.333
13392SOL    HW242074  10.843  14.682   5.196
13393SOL     OW42075   8.642  13.764   2.491
13393SOL    HW142076   8.713  13.817   2.526
13393SOL    HW242077   8.641  13.784   2.398
13394SOL     OW42078   0.022  11.271   4.406
13394SOL    HW142079  14.843  11.280   4.338
13394SOL    HW242080   0.027  11.357   4.447
13395SOL     OW42081  12.260  11.467   8.391
13395SOL    HW142082  12.223  11.382   8.367
13395SOL    HW242083  12.288  11.504   8.307
13396SOL     OW42084   5.473   1.322   8.025
13396SOL    HW142085   5.419   1.396   7.999
13396SOL    HW242086   5.514   1.349   8.107
13397SOL     OW42087   7.496   4.910  12.933
13397SOL    HW142088   7.592   4.917  12.936
13397SOL    HW242089   7.479   4.855  12.856
13398SOL     OW42090  10.900   2.755  13.939
13398SOL    HW142091  10.961   2.756  14.013
13398SOL    HW242092  10.862   2.842  13.938
13399SOL     OW42093   1.023   2.982   4.948
13399SOL    HW142094   0.965   3.048   4.986
13399SOL    HW242095   0.966   2.909   4.925
13400SOL     OW42096  11.412  13.437   9.122
13400SOL    HW142097  11.495  13.390   9.117
13400SOL    HW242098  11.437  13.528   9.137
13401SOL     OW42099  14.101  12.149   2.158
13401SOL    HW142100  14.091  12.055   2.174
13401SOL    HW242101  14.182  12.173   2.203
13402SOL     OW42102   6.599   5.956   1.136
13402SOL    HW142103   6.520   5.968   1.188
13402SOL    HW242104   6.637   6.043   1.129
13403SOL     OW42105   2.061  13.745   6.691
13403SOL    HW142106   2.094  13.697   6.616
13403SOL    HW242107   2.012  13.680   6.741
13404SOL     OW42108  13.745   3.683   7.793
13404SOL    HW142109  13.702   3.763   7.764
13404SOL    HW242110  13.775   3.703   7.882
13405SOL     OW42111   1.878  14.000   5.333
13405SOL    HW142112   1.908  14.045   5.411
13405SOL    HW242113   1.948  13.937   5.314
13406SOL     OW42114   0.723   4.554  10.754
13406SOL    HW142115   0.630   4.546  10.777
13406SOL    HW242116   0.732   4.645  10.724
13407SOL     OW42117   3.574  10.651   9.800
13407SOL    HW142118   3.646  10.695   9.843
13407SOL    HW242119   3.615  10.592   9.737
13408SOL     OW42120   3.223   6.704   8.720
13408SOL    HW142121   3.209   6.728   8.812
13408SOL    HW242122   3.156   6.639   8.702
13409SOL     OW42123   1.074   9.321  11.992
13409SOL    HW142124   1.144   9.279  12.041
13409SOL    HW242125   1.063   9.406  12.034
13410SOL     OW42126   7.246   7.922   8.374
13410SOL    HW142127   7.184   7.994   8.367
13410SOL    HW242128   7.329   7.963   8.396
13411SOL     OW42129   3.988  12.990  12.740
13411SOL    HW142130   3.905  12.955  12.773
13411SOL    HW242131   4.023  13.041  12.813
13412SOL     OW42132  11.895   3.123  12.311
13412SOL    HW142133  11.812   3.156  12.345
13412SOL    HW242134  11.956   3.134  12.383
13413SOL     OW42135   1.749  14.557  12.295
13413SOL    HW142136   1.674  14.538  12.352
13413SOL    HW242137   1.709  14.589  12.214
13414SOL     OW42138   8.207   0.018   5.304
13414SOL    HW142139   8.273  14.841   5.279
13414SOL    HW242140   8.240   0.101   5.269
13415SOL     OW42141  12.653  13.975   4.095
13415SOL    HW142142  12.603  14.036   4.149
13415SOL    HW242143  12.596  13.898   4.087
13416SOL     OW42144   6.415   9.400  13.925
13416SOL    HW142145   6.469   9.334  13.969
13416SOL    HW242146   6.457   9.413  13.840
13417SOL     OW42147  12.580   4.926   9.114
13417SOL    HW142148  12.675   4.933   9.105
13417SOL    HW242149  12.567   4.888   9.200
13418SOL     OW42150  11.732   4.681   9.731
13418SOL    HW142151  11.805   4.637   9.688
13418SOL    HW242152  11.758   4.687   9.823
13419SOL     OW42153   0.321   9.808   0.292
13419SOL    HW142154   0.416   9.803   0.295
13419SOL    HW242155   0.294   9.727   0.250
13420SOL     OW42156   8.868   6.416   3.448
13420SOL    HW142157   8.828   6.495   3.412
13420SOL    HW242158   8.961   6.424   3.427
13421SOL     OW42159  14.566   7.561   1.479
13421SOL    HW142160  14.603   7.647   1.459
13421SOL    HW242161  14.518   7.573   1.561
13422SOL     OW42162   2.603  10.214   4.037
13422SOL    HW142163   2.673  10.278   4.050
13422SOL    HW242164   2.535  10.262   3.990
13423SOL     OW42165   1.507   9.123   8.921
13423SOL    HW142166   1.413   9.139   8.931
13423SOL    HW242167   1.530   9.069   8.997
13424SOL     OW42168   9.225   8.645   4.682
13424SOL    HW142169   9.312   8.607   4.673
13424SOL    HW242170   9.210   8.650   4.776
13425SOL     OW42171   1.094  10.192  14.264
13425SOL    HW142172   1.105  10.177  14.358
13425SOL    HW242173   1.149  10.125  14.223
13426SOL     OW42174   0.800   8.984  13.889
13426SOL    HW142175   0.863   8.947  13.827
13426SOL    HW242176   0.732   8.917  13.897
13427SOL     OW42177  13.504  11.563   6.818
13427SOL    HW142178  13.502  11.577   6.723
13427SOL    HW242179  13.415  11.586   6.846
13428SOL     OW42180   1.609  12.179   5.795
13428SOL    HW142181   1.520  12.177   5.830
13428SOL    HW242182   1.601  12.145   5.706
13429SOL     OW42183  10.297   2.800   7.123
13429SOL    HW142184  10.282   2.757   7.039
13429SOL    HW242185  10.227   2.765   7.179
13430SOL     OW42186   4.232   7.779  14.796
13430SOL    HW142187   4.264   7.859  14.836
13430SOL    HW242188   4.256   7.787  14.703
13431SOL     OW42189   3.156   4.276   3.664
13431SOL    HW142190   3.070   4.264   3.623
13431SOL    HW242191   3.175   4.192   3.705
13432SOL     OW42192   6.682   8.053   2.733
13432SOL    HW142193   6.590   8.069   2.711
13432SOL    HW242194   6.680   7.971   2.783
13433SOL     OW42195   0.198  12.336  12.100
13433SOL    HW142196   0.263  12.345  12.029
13433SOL    HW242197   0.166  12.425  12.115
13434SOL     OW42198   6.399   8.102  11.051
13434SOL    HW142199   6.408   8.197  11.060
13434SOL    HW242200   6.468   8.066  11.107
13435SOL     OW42201   3.254   4.855   9.471
13435SOL    HW142202   3.335   4.869   9.422
13435SOL    HW242203   3.215   4.777   9.431
13436SOL     OW42204  12.902  10.854   6.221
13436SOL    HW142205  12.926  10.910   6.147
13436SOL    HW242206  12.925  10.766   6.193
13437SOL     OW42207   5.966   2.351  13.115
13437SOL    HW142208   6.049   2.309  13.096
13437SOL    HW242209   5.900   2.292  13.080
13438SOL     OW42210   9.485   1.776   4.967
13438SOL    HW142211   9.465   1.866   4.941
13438SOL    HW242212   9.476   1.725   4.886
13439SOL     OW42213   7.524   7.763   6.828
13439SOL    HW142214   7.609   7.802   6.807
13439SOL    HW242215   7.517   7.687   6.770
13440SOL     OW42216   4.535   4.432   7.443
13440SOL    HW142217   4.505   4.518   7.472
13440SOL    HW242218   4.566   4.388   7.522
13441SOL     OW42219   9.070  11.687   5.003
13441SOL    HW142220   9.007  11.660   4.936
13441SOL    HW242221   9.035  11.769   5.038
13442SOL     OW42222  10.348   3.583   1.963
13442SOL    HW142223  10.422   3.578   2.023
13442SOL    HW242224  10.297   3.504   1.981
13443SOL     OW42225   0.122   4.356  13.851
13443SOL    HW142226   0.039   4.313  13.871
13443SOL    HW242227   0.152   4.314  13.771
13444SOL     OW42228   0.501   3.805  12.744
13444SOL    HW142229   0.439   3.789  12.673
13444SOL    HW242230   0.550   3.883  12.717
13445SOL     OW42231   2.650  12.387   4.858
13445SOL    HW142232   2.632  12.385   4.952
13445SOL    HW242233   2.564  12.394   4.817
13446SOL     OW42234   5.156  10.169  12.512
13446SOL    HW142235   5.098  10.131  12.446
13446SOL    HW242236   5.097  10.213  12.574
13447SOL     OW42237   9.817  13.124   0.461
13447SOL    HW142238   9.899  13.158   0.424
13447SOL    HW242239   9.832  13.123   0.556
13448SOL     OW42240  13.752   5.634   2.378
13448SOL    HW142241  13.821   5.679   2.329
13448SOL    HW242242  13.781   5.638   2.469
13449SOL     OW42243  13.064  10.451   7.273
13449SOL    HW142244  13.124  10.488   7.338
13449SOL    HW242245  13.119  10.394   7.219
13450SOL     OW42246  13.432   8.187  13.004
13450SOL    HW142247  13.397   8.098  12.999
13450SOL    HW242248  13.356   8.242  13.020
13451SOL     OW42249   0.308   2.170   3.493
13451SOL    HW142250   0.270   2.154   3.579
13451SOL    HW242251   0.382   2.110   3.488
13452SOL     OW42252   0.305   1.857   0.188
13452SOL    HW142253   0.338   1.946   0.178
13452SOL    HW242254   0.381   1.807   0.216
13453SOL     OW42255  12.509   3.098  13.411
13453SOL    HW142256  12.494   3.126  13.321
13453SOL    HW242257  12.594   3.135  13.433
13454SOL     OW42258   5.234   8.056  12.953
13454SOL    HW142259   5.245   8.010  12.870
13454SOL    HW242260   5.224   7.987  13.018
13455SOL     OW42261   7.390   5.096   0.944
13455SOL    HW142262   7.424   5.008   0.928
13455SOL    HW242263   7.368   5.098   1.037
13456SOL     OW42264  12.217   5.301  14.391
13456SOL    HW142265  12.302   5.276  14.354
13456SOL    HW242266  12.225   5.280  14.484
13457SOL     OW42267   1.196  11.456  11.621
13457SOL    HW142268   1.251  11.468  11.698
13457SOL    HW242269   1.130  11.526  11.627
13458SOL     OW42270   2.638   1.298  12.252
13458SOL    HW142271   2.664   1.340  12.334
13458SOL    HW242272   2.561   1.246  12.275
13459SOL     OW42273   1.776   1.153   9.166
13459SOL    HW142274   1.705   1.202   9.208
13459SOL    HW242275   1.849   1.215   9.161
13460SOL     OW42276   7.687  13.647  14.431
13460SOL    HW142277   7.723  13.636  14.519
13460SOL    HW242278   7.752  13.608  14.373
13461SOL     OW42279   9.002   3.111   1.324
13461SOL    HW142280   9.087   3.067   1.329
13461SOL    HW242281   8.997   3.145   1.234
13462SOL     OW42282  14.819   2.664  13.632
13462SOL    HW142283  14.734   2.646  13.592
13462SOL    HW242284  14.854   2.577  13.653
13463SOL     OW42285  11.670   0.250   0.863
13463SOL    HW142286  11.698   0.333   0.823
13463SOL    HW242287  11.716   0.247   0.947
13464SOL     OW42288   2.022   4.645   9.688
13464SOL    HW142289   2.043   4.735   9.712
13464SOL    HW242290   1.959   4.616   9.755
13465SOL     OW42291  10.426  14.455   6.233
13465SOL    HW142292  10.440  14.397   6.158
13465SOL    HW242293  10.463  14.407   6.307
13466SOL     OW42294   7.593   0.185   0.704
13466SOL    HW142295   7.676   0.191   0.656
13466SOL    HW242296   7.593   0.260   0.763
13467SOL     OW42297   8.262   7.850   4.446
13467SOL    HW142298   8.293   7.823   4.532
13467SOL    HW242299   8.279   7.944   4.443
13468SOL     OW42300   4.198   3.733  13.344
13468SOL    HW142301   4.211   3.825  13.367
13468SOL    HW242302   4.233   3.726  13.255
13469SOL     OW42303   9.138   4.424   0.651
13469SOL    HW142304   9.219   4.387   0.684
13469SOL    HW242305   9.076   4.415   0.723
13470SOL     OW42306  13.212   9.870   5.547
13470SOL    HW142307  13.220   9.928   5.623
13470SOL    HW242308  13.205   9.929   5.472
13471SOL     OW42309   0.155  11.020  13.430
13471SOL    HW142310   0.216  10.952  13.402
13471SOL    HW242311   0.086  10.971  13.476
13472SOL     OW42312  12.955   8.224  13.781
13472SOL    HW142313  12.925   8.237  13.691
13472SOL    HW242314  12.901   8.283  13.833
13473SOL     OW42315  14.070   6.277   4.689
13473SOL    HW142316  14.112   6.202   4.734
13473SOL    HW242317  14.116   6.283   4.605
13474SOL     OW42318   9.645   0.315   9.058
13474SOL    HW142319   9.576   0.292   8.995
13474SOL    HW242320   9.641   0.244   9.123
13475SOL     OW42321  10.472   7.581  14.586
13475SOL    HW142322  10.396   7.571  14.529
13475SOL    HW242323  10.436   7.580  14.675
13476SOL     OW42324   8.780  12.307  12.805
13476SOL    HW142325   8.698  12.302  12.854
13476SOL    HW242326   8.756  12.344  12.720
13477SOL     OW42327   7.723   8.414  13.936
13477SOL    HW142328   7.745   8.473  14.008
13477SOL    HW242329   7.633   8.437  13.913
13478SOL     OW42330   7.159  12.954   1.479
13478SOL    HW142331   7.232  12.902   1.512
13478SOL    HW242332   7.087  12.937   1.540
13479SOL     OW42333   8.287   9.158  12.579
13479SOL    HW142334   8.314   9.128  12.666
13479SOL    HW242335   8.363   9.206  12.545
13480SOL     OW42336  12.383   0.443   7.709
13480SOL    HW142337  12.431   0.520   7.738
13480SOL    HW242338  12.291   0.464   7.725
13481SOL     OW42339   2.895   5.102   5.948
13481SOL    HW142340   2.950   5.037   5.904
13481SOL    HW242341   2.895   5.075   6.040
13482SOL     OW42342   6.626  11.094   1.178
13482SOL    HW142343   6.654  11.186   1.184
13482SOL    HW242344   6.531  11.098   1.187
13483SOL     OW42345   9.111  10.250   9.895
13483SOL    HW142346   9.016  10.260   9.899
13483SOL    HW242347   9.144  10.314   9.959
13484SOL     OW42348   9.394   9.942   5.887
13484SOL    HW142349   9.447  10.003   5.940
13484SOL    HW242350   9.320   9.921   5.943
13485SOL     OW42351  14.056   8.402   8.061
13485SOL    HW142352  14.122   8.470   8.050
13485SOL    HW242353  14.065   8.372   8.151
13486SOL     OW42354   2.148   4.119  11.546
13486SOL    HW142355   2.143   4.027  11.520
13486SOL    HW242356   2.186   4.163  11.470
13487SOL     OW42357  14.252   7.877   0.464
13487SOL    HW142358  14.214   7.909   0.546
13487SOL    HW242359  14.211   7.792   0.449
13488SOL     OW42360  11.050  10.291   9.959
13488SOL    HW142361  10.986  10.284  10.030
13488SOL    HW242362  11.001  10.268   9.880
13489SOL     OW42363   3.373   4.121  13.754
13489SOL    HW142364   3.409   4.114  13.666
13489SOL    HW242365   3.317   4.199  13.751
13490SOL     OW42366   8.666   7.306  14.858
13490SOL    HW142367   8.572   7.289  14.867
13490SOL    HW242368   8.671   7.378  14.794
13491SOL     OW42369  10.826   3.270   7.940
13491SOL    HW142370  10.880   3.191   7.944
13491SOL    HW242371  10.884   3.341   7.968
13492SOL     OW42372   9.077  13.733  13.134
13492SOL    HW142373   9.120  13.669  13.078
13492SOL    HW242374   9.142  13.756  13.200
13493SOL     OW42375  10.276   9.478   6.942
13493SOL    HW142376  10.207   9.498   6.879
13493SOL    HW242377  10.274   9.552   7.003
13494SOL     OW42378  13.584  14.091  13.023
13494SOL    HW142379  13.503  14.141  13.012
13494SOL    HW242380  13.639  14.119  12.949
13495SOL     OW42381   5.143  13.925   0.111
13495SOL    HW142382   5.138  13.830   0.108
13495SOL    HW242383   5.188  13.950   0.030
13496SOL     OW42384  10.226   2.637   1.831
13496SOL    HW142385  10.163   2.610   1.898
13496SOL    HW242386  10.310   2.640   1.876
13497SOL     OW42387   7.836  13.124  10.319
13497SOL    HW142388   7.789  13.093  10.397
13497SOL    HW242389   7.821  13.219  10.319
13498SOL     OW42390  10.849   5.988   4.410
13498SOL    HW142391  10.795   5.950   4.341
13498SOL    HW242392  10.915   5.921   4.430
13499SOL     OW42393  12.104   5.911   7.103
13499SOL    HW142394  12.183   5.964   7.116
13499SOL    HW242395  12.032   5.972   7.118
13500SOL     OW42396  10.874  11.775  14.736
13500SOL    HW142397  10.780  11.793  14.730
13500SOL    HW242398  10.880  11.691  14.780
13501SOL     OW42399   3.470  10.027   5.863
13501SOL    HW142400   3.378  10.012   5.887
13501SOL    HW242401   3.484   9.970   5.787
13502SOL     OW42402   1.588   5.265  10.506
13502SOL    HW142403   1.581   5.215  10.587
13502SOL    HW242404   1.557   5.353  10.529
13503SOL     OW42405   2.927   7.482   9.565
13503SOL    HW142406   2.930   7.577   9.566
13503SOL    HW242407   2.835   7.461   9.550
13504SOL     OW42408  13.778   9.475  10.387
13504SOL    HW142409  13.735   9.413  10.446
13504SOL    HW242410  13.736   9.461  10.302
13505SOL     OW42411   6.813  14.673   0.076
13505SOL    HW142412   6.788  14.628  14.883
13505SOL    HW242413   6.734  14.671   0.130
13506SOL     OW42414   0.011   9.508  10.797
13506SOL    HW142415   0.085   9.525  10.855
13506SOL    HW242416  14.823   9.548  10.840
13507SOL     OW42417   9.926  11.152   5.452
13507SOL    HW142418   9.948  11.063   5.479
13507SOL    HW242419   9.918  11.200   5.534
13508SOL     OW42420   0.437   6.522   0.238
13508SOL    HW142421   0.488   6.555   0.164
13508SOL    HW242422   0.384   6.597   0.266
13509SOL     OW42423   0.423   7.477   4.737
13509SOL    HW142424   0.359   7.407   4.745
13509SOL    HW242425   0.421   7.500   4.644
13510SOL     OW42426   5.186  14.839  13.548
13510SOL    HW142427   5.211   0.045  13.549
13510SOL    HW242428   5.269  14.793  13.536
13511SOL     OW42429   2.540  10.950  12.715
13511SOL    HW142430   2.492  11.033  12.715
13511SOL    HW242431   2.575  10.941  12.803
13512SOL     OW42432  11.326   2.177   2.701
13512SOL    HW142433  11.236   2.202   2.722
13512SOL    HW242434  11.331   2.084   2.721
13513SOL     OW42435  10.481  10.011  13.772
13513SOL    HW142436  10.495  10.071  13.845
13513SOL    HW242437  10.405  10.046  13.726
13514SOL     OW42438   1.728   2.318  10.488
13514SOL    HW142439   1.722   2.345  10.396
13514SOL    HW242440   1.816   2.341  10.515
13515SOL     OW42441   3.717   9.448   4.578
13515SOL    HW142442   3.780   9.379   4.598
13515SOL    HW242443   3.646   9.403   4.533
13516SOL     OW42444  11.208   2.483  14.746
13516SOL    HW142445  11.128   2.451  14.787
13516SOL    HW242446  11.267   2.407  14.746
13517SOL     OW42447   1.345   4.406  11.476
13517SOL    HW142448   1.338   4.317  11.441
13517SOL    HW242449   1.438   4.426  11.471
13518SOL     OW42450   7.822   0.929  13.115
13518SOL    HW142451   7.758   0.887  13.057
13518SOL    HW242452   7.812   1.023  13.098
13519SOL     OW42453  13.939   8.884   2.287
13519SOL    HW142454  13.944   8.859   2.380
13519SOL    HW242455  13.876   8.956   2.285
13520SOL     OW42456   0.226  10.792  12.061
13520SOL    HW142457   0.185  10.744  11.989
13520SOL    HW242458   0.164  10.861  12.084
13521SOL     OW42459   6.298  14.656  13.086
13521SOL    HW142460   6.323  14.646  12.994
13521SOL    HW242461   6.371  14.620  13.135
13522SOL     OW42462  10.391   6.569  10.929
13522SOL    HW142463  10.429   6.651  10.897
13522SOL    HW242464  10.354   6.591  11.014
13523SOL     OW42465   1.255   5.451  12.940
13523SOL    HW142466   1.180   5.391  12.940
13523SOL    HW242467   1.215   5.538  12.944
13524SOL     OW42468   2.753  10.968   8.035
13524SOL    HW142469   2.802  11.047   8.013
13524SOL    HW242470   2.798  10.932   8.112
13525SOL     OW42471   3.676   8.301   7.862
13525SOL    HW142472   3.722   8.329   7.942
13525SOL    HW242473   3.643   8.382   7.824
13526SOL     OW42474   1.378   1.500  13.947
13526SOL    HW142475   1.345   1.433  14.008
13526SOL    HW242476   1.473   1.488  13.948
13527SOL     OW42477  14.820  13.469   5.022
13527SOL    HW142478  14.793  13.516   4.943
13527SOL    HW242479  14.820  13.535   5.091
13528SOL     OW42480  13.321  13.155   0.570
13528SOL    HW142481  13.352  13.155   0.480
13528SOL    HW242482  13.318  13.062   0.595
13529SOL     OW42483   8.877  14.352   8.399
13529SOL    HW142484   8.920  14.299   8.466
13529SOL    HW242485   8.935  14.427   8.387
13530SOL     OW42486   3.303   5.663   6.895
13530SOL    HW142487   3.284   5.603   6.823
13530SOL    HW242488   3.336   5.608   6.966
13531SOL     OW42489   2.377   7.579  11.164
13531SOL    HW142490   2.339   7.526  11.094
13531SOL    HW242491   2.358   7.669  11.139
13532SOL     OW42492   9.290   8.927  14.330
13532SOL    HW142493   9.262   8.888  14.413
13532SOL    HW242494   9.261   8.865  14.263
13533SOL     OW42495   7.306   4.033   4.047
13533SOL    HW142496   7.317   3.941   4.070
13533SOL    HW242497   7.336   4.082   4.123
13534SOL     OW42498   8.025   1.081   2.277
13534SOL    HW142499   8.110   1.119   2.253
13534SOL    HW242500   8.045   0.989   2.295
13535SOL     OW42501   2.337  11.020  13.652
13535SOL    HW142502   2.317  10.940  13.701
13535SOL    HW242503   2.399  10.991  13.585
13536SOL     OW42504  13.038   2.606   8.048
13536SOL    HW142505  13.004   2.560   7.971
13536SOL    HW242506  12.989   2.688   8.050
13537SOL     OW42507   3.837   1.879   5.004
13537SOL    HW142508   3.746   1.880   4.974
13537SOL    HW242509   3.855   1.787   5.023
13538SOL     OW42510   4.527  11.676   5.910
13538SOL    HW142511   4.599  11.632   5.955
13538SOL    HW242512   4.494  11.611   5.848
13539SOL     OW42513   4.672   8.798   9.127
13539SOL    HW142514   4.634   8.741   9.194
13539SOL    HW242515   4.679   8.742   9.050
13540SOL     OW42516   8.768  13.373   1.313
13540SOL    HW142517   8.762  13.381   1.218
13540SOL    HW242518   8.840  13.431   1.338
13541SOL     OW42519   0.153  10.983   9.134
13541SOL    HW142520   0.080  10.945   9.085
13541SOL    HW242521   0.224  10.920   9.123
13542SOL     OW42522   5.823   4.055   4.056
13542SOL    HW142523   5.799   4.147   4.048
13542SOL    HW242524   5.769   4.022   4.129
13543SOL     OW42525   1.274   1.739   4.574
13543SOL    HW142526   1.238   1.813   4.525
13543SOL    HW242527   1.356   1.718   4.530
13544SOL     OW42528  12.559   8.501  12.972
13544SOL    HW142529  12.500   8.473  13.042
13544SOL    HW242530  12.638   8.530  13.016
13545SOL     OW42531   6.188   2.019   0.518
13545SOL    HW142532   6.258   1.998   0.457
13545SOL    HW242533   6.232   2.046   0.599
13546SOL     OW42534   0.231   1.834   1.989
13546SOL    HW142535   0.158   1.895   1.997
13546SOL    HW242536   0.223   1.797   1.901
13547SOL     OW42537  14.638  12.765   1.915
13547SOL    HW142538  14.651  12.828   1.986
13547SOL    HW242539  14.545  12.742   1.921
13548SOL     OW42540   9.402   8.954   9.451
13548SOL    HW142541   9.465   8.920   9.515
13548SOL    HW242542   9.340   8.882   9.438
13549SOL     OW42543  13.669  12.358  14.568
13549SOL    HW142544  13.758  12.386  14.592
13549SOL    HW242545  13.674  12.345  14.473
13550SOL     OW42546   9.899  11.246  10.621
13550SOL    HW142547   9.870  11.335  10.644
13550SOL    HW242548   9.975  11.230  10.677
13551SOL     OW42549   1.315   1.060   4.873
13551SOL    HW142550   1.227   1.083   4.845
13551SOL    HW242551   1.331   0.974   4.835
13552SOL     OW42552   2.787   4.410  12.396
13552SOL    HW142553   2.771   4.418  12.302
13552SOL    HW242554   2.753   4.492  12.432
13553SOL     OW42555  10.709  10.223   9.687
13553SOL    HW142556  10.802  10.242   9.678
13553SOL    HW242557  10.702  10.181   9.773
13554SOL     OW42558   8.870   3.086   3.889
13554SOL    HW142559   8.882   2.995   3.916
13554SOL    HW242560   8.951   3.129   3.913
13555SOL     OW42561   4.594   5.820   9.474
13555SOL    HW142562   4.515   5.836   9.525
13555SOL    HW242563   4.562   5.791   9.389
13556SOL     OW42564   7.422  12.739   6.797
13556SOL    HW142565   7.507  12.762   6.760
13556SOL    HW242566   7.394  12.818   6.844
13557SOL     OW42567  10.922   1.595   6.236
13557SOL    HW142568  10.907   1.609   6.142
13557SOL    HW242569  11.017   1.599   6.246
13558SOL     OW42570   5.610   8.166  13.111
13558SOL    HW142571   5.616   8.073  13.134
13558SOL    HW242572   5.640   8.170  13.020
13559SOL     OW42573  13.594  11.081  13.522
13559SOL    HW142574  13.561  11.151  13.578
13559SOL    HW242575  13.612  11.123  13.439
13560SOL     OW42576   5.936  14.682  10.576
13560SOL    HW142577   6.024  14.647  10.585
13560SOL    HW242578   5.898  14.635  10.502
13561SOL     OW42579  13.598   8.796   6.956
13561SOL    HW142580  13.596   8.730   7.025
13561SOL    HW242581  13.685   8.836   6.964
13562SOL     OW42582   6.304   2.054   7.504
13562SOL    HW142583   6.227   2.110   7.517
13562SOL    HW242584   6.302   2.033   7.410
13563SOL     OW42585   9.105   5.371   0.034
13563SOL    HW142586   9.087   5.362   0.127
13563SOL    HW242587   9.200   5.376   0.028
13564SOL     OW42588   7.301   5.287   8.732
13564SOL    HW142589   7.389   5.305   8.700
13564SOL    HW242590   7.285   5.195   8.709
13565SOL     OW42591  11.520   9.997   8.853
13565SOL    HW142592  11.570  10.079   8.850
13565SOL    HW242593  11.577   9.936   8.898
13566SOL     OW42594   8.640   1.490   7.721
13566SOL    HW142595   8.556   1.514   7.682
13566SOL    HW242596   8.703   1.551   7.684
13567SOL     OW42597   8.393   5.431  13.342
13567SOL    HW142598   8.385   5.432  13.246
13567SOL    HW242599   8.409   5.339  13.363
13568SOL     OW42600   6.430   9.289  12.728
13568SOL    HW142601   6.455   9.201  12.756
13568SOL    HW242602   6.513   9.333  12.714
13569SOL     OW42603   0.254   1.019  11.326
13569SOL    HW142604   0.250   0.998  11.232
13569SOL    HW242605   0.275   1.112  11.328
13570SOL     OW42606   1.248   3.214   3.441
13570SOL    HW142607   1.218   3.162   3.367
13570SOL    HW242608   1.168   3.234   3.490
13571SOL     OW42609   4.434   0.177   8.155
13571SOL    HW142610   4.459   0.229   8.078
13571SOL    HW242611   4.373   0.234   8.203
13572SOL     OW42612  11.596   4.114  13.516
13572SOL    HW142613  11.605   4.039  13.457
13572SOL    HW242614  11.502   4.128  13.522
13573SOL     OW42615  12.233  10.216   1.425
13573SOL    HW142616  12.138  10.228   1.419
13573SOL    HW242617  12.268  10.273   1.357
13574SOL     OW42618   3.779   6.933   1.994
13574SOL    HW142619   3.766   6.841   1.973
13574SOL    HW242620   3.738   6.944   2.080
13575SOL     OW42621   8.790  13.254   4.662
13575SOL    HW142622   8.792  13.165   4.697
13575SOL    HW242623   8.699  13.269   4.639
13576SOL     OW42624   8.594   4.485  13.999
13576SOL    HW142625   8.638   4.412  13.954
13576SOL    HW242626   8.593   4.555  13.933
13577SOL     OW42627   2.116   8.604  14.039
13577SOL    HW142628   2.101   8.587  14.132
13577SOL    HW242629   2.146   8.520  14.004
13578SOL     OW42630   2.598   4.609   8.252
13578SOL    HW142631   2.660   4.541   8.226
13578SOL    HW242632   2.650   4.689   8.257
13579SOL     OW42633   0.614   1.120  11.607
13579SOL    HW142634   0.618   1.163  11.521
13579SOL    HW242635   0.560   1.042  11.592
13580SOL     OW42636   0.818  12.736   9.305
13580SOL    HW142637   0.768  12.817   9.312
13580SOL    HW242638   0.752  12.667   9.308
13581SOL     OW42639  12.500   3.507   5.814
13581SOL    HW142640  12.534   3.540   5.897
13581SOL    HW242641  12.496   3.583   5.757
13582SOL     OW42642   3.881   9.506  10.611
13582SOL    HW142643   3.840   9.468  10.533
13582SOL    HW242644   3.965   9.461  10.619
13583SOL     OW42645  12.556   6.471  13.919
13583SOL    HW142646  12.582   6.463  14.011
13583SOL    HW242647  12.572   6.563  13.898
13584SOL     OW42648   1.967  12.560  10.860
13584SOL    HW142649   1.939  12.540  10.771
13584SOL    HW242650   1.889  12.599  10.901
13585SOL     OW42651   9.411   0.177   1.572
13585SOL    HW142652   9.487   0.120   1.570
13585SOL    HW242653   9.346   0.129   1.623
13586SOL     OW42654   1.747  11.440   4.784
13586SOL    HW142655   1.716  11.455   4.694
13586SOL    HW242656   1.676  11.472   4.839
13587SOL     OW42657  12.301  12.329  11.042
13587SOL    HW142658  12.375  12.353  10.986
13587SOL    HW242659  12.227  12.377  11.006
13588SOL     OW42660   3.971   7.001  14.268
13588SOL    HW142661   3.987   6.919  14.315
13588SOL    HW242662   4.057   7.043  14.263
13589SOL     OW42663  11.100  12.702  10.564
13589SOL    HW142664  11.060  12.754  10.633
13589SOL    HW242665  11.139  12.628  10.610
13590SOL     OW42666   7.247   7.464  13.411
13590SOL    HW142667   7.259   7.557  13.393
13590SOL    HW242668   7.313   7.444  13.478
13591SOL     OW42669   6.943   0.030   0.420
13591SOL    HW142670   6.856   0.029   0.460
13591SOL    HW242671   6.925   0.042   0.326
13592SOL     OW42672  12.474  13.270  13.837
13592SOL    HW142673  12.428  13.227  13.909
13592SOL    HW242674  12.412  13.267  13.764
13593SOL     OW42675   1.100   5.390   7.648
13593SOL    HW142676   1.077   5.473   7.690
13593SOL    HW242677   1.084   5.324   7.715
13594SOL     OW42678   4.643  13.019   9.401
13594SOL    HW142679   4.640  12.927   9.374
13594SOL    HW242680   4.618  13.018   9.493
13595SOL     OW42681   2.397   7.312   4.100
13595SOL    HW142682   2.344   7.268   4.033
13595SOL    HW242683   2.376   7.404   4.090
13596SOL     OW42684  13.484   5.489   5.749
13596SOL    HW142685  13.518   5.559   5.694
13596SOL    HW242686  13.467   5.532   5.833
13597SOL     OW42687  14.491   1.522  10.897
13597SOL    HW142688  14.405   1.538  10.858
13597SOL    HW242689  14.502   1.427  10.893
13598SOL     OW42690   9.079  11.794  14.092
13598SOL    HW142691   9.157  11.766  14.044
13598SOL    HW242692   9.112  11.854  14.159
13599SOL     OW42693   5.485   1.380   9.604
13599SOL    HW142694   5.519   1.375   9.514
13599SOL    HW242695   5.552   1.337   9.657
13600SOL     OW42696   8.022   0.316  10.501
13600SOL    HW142697   8.043   0.307  10.408
13600SOL    HW242698   8.106   0.334  10.543
13601SOL     OW42699  11.314   2.161   4.350
13601SOL    HW142700  11.400   2.142   4.313
13601SOL    HW242701  11.258   2.090   4.320
13602SOL     OW42702   1.460   2.267  14.511
13602SOL    HW142703   1.407   2.305  14.441
13602SOL    HW242704   1.479   2.178  14.481
13603SOL     OW42705   9.471   1.161   3.778
13603SOL    HW142706   9.443   1.184   3.689
13603SOL    HW242707   9.390   1.163   3.829
13604SOL     OW42708  13.105   7.712   9.546
13604SOL    HW142709  13.103   7.650   9.473
13604SOL    HW242710  13.171   7.677   9.605
13605SOL     OW42711  13.923   3.693   5.448
13605SOL    HW142712  13.969   3.761   5.498
13605SOL    HW242713  13.855   3.662   5.507
13606SOL     OW42714   8.972   0.996  13.645
13606SOL    HW142715   8.985   0.923  13.585
13606SOL    HW242716   8.930   0.957  13.722
13607SOL     OW42717   4.547   3.424   7.718
13607SOL    HW142718   4.517   3.358   7.781
13607SOL    HW242719   4.575   3.373   7.642
13608SOL     OW42720   8.819  11.732  14.548
13608SOL    HW142721   8.802  11.825  14.536
13608SOL    HW242722   8.847  11.701  14.462
13609SOL     OW42723  13.168   7.331  13.739
13609SOL    HW142724  13.133   7.263  13.682
13609SOL    HW242725  13.191   7.285  13.820
13610SOL     OW42726   3.460   3.724   3.445
13610SOL    HW142727   3.529   3.692   3.503
13610SOL    HW242728   3.475   3.819   3.440
13611SOL     OW42729   1.994  14.700  12.365
13611SOL    HW142730   1.900  14.690  12.353
13611SOL    HW242731   2.005  14.788  12.400
13612SOL     OW42732   4.939  11.524  14.468
13612SOL    HW142733   4.885  11.601  14.484
13612SOL    HW242734   4.878  11.459  14.435
13613SOL     OW42735   6.049   2.458  12.329
13613SOL    HW142736   5.978   2.517  12.306
13613SOL    HW242737   6.097   2.503  12.399
13614SOL     OW42738   5.145   6.703   5.582
13614SOL    HW142739   5.174   6.786   5.620
13614SOL    HW242740   5.171   6.708   5.490
13615SOL     OW42741   6.227  11.184   0.316
13615SOL    HW142742   6.146  11.158   0.360
13615SOL    HW242743   6.265  11.252   0.372
13616SOL     OW42744   3.465   4.102  13.500
13616SOL    HW142745   3.511   4.183  13.480
13616SOL    HW242746   3.523   4.033  13.468
13617SOL     OW42747   7.017   2.584  12.086
13617SOL    HW142748   7.086   2.596  12.020
13617SOL    HW242749   7.014   2.490  12.101
13618SOL     OW42750  13.317   6.505   5.070
13618SOL    HW142751  13.283   6.471   5.152
13618SOL    HW242752  13.404   6.539   5.092
13619SOL     OW42753   0.365  10.444  10.235
13619SOL    HW142754   0.417  10.453  10.156
13619SOL    HW242755   0.285  10.494  10.217
13620SOL     OW42756   8.678   5.479   1.885
13620SOL    HW142757   8.630   5.441   1.958
13620SOL    HW242758   8.639   5.440   1.807
13621SOL     OW42759   1.087  14.051   5.871
13621SOL    HW142760   1.058  13.969   5.832
13621SOL    HW242761   1.028  14.117   5.836
13622SOL     OW42762   5.709   7.840   5.618
13622SOL    HW142763   5.678   7.761   5.575
13622SOL    HW242764   5.645   7.907   5.596
13623SOL     OW42765   6.956  13.790   7.777
13623SOL    HW142766   6.961  13.833   7.692
13623SOL    HW242767   6.986  13.857   7.839
13624SOL     OW42768   7.876   8.580   2.451
13624SOL    HW142769   7.965   8.595   2.484
13624SOL    HW242770   7.868   8.485   2.446
13625SOL     OW42771   2.152   8.441  10.576
13625SOL    HW142772   2.153   8.385  10.497
13625SOL    HW242773   2.069   8.419  10.619
13626SOL     OW42774   9.674   3.606  11.502
13626SOL    HW142775   9.683   3.620  11.407
13626SOL    HW242776   9.583   3.577  11.513
13627SOL     OW42777   1.402  11.040   6.205
13627SOL    HW142778   1.424  10.987   6.128
13627SOL    HW242779   1.417  10.982   6.279
13628SOL     OW42780   6.139   8.572   5.335
13628SOL    HW142781   6.048   8.584   5.309
13628SOL    HW242782   6.168   8.494   5.287
13629SOL     OW42783   7.550  10.020  11.613
13629SOL    HW142784   7.590   9.989  11.531
13629SOL    HW242785   7.613   9.995  11.681
13630SOL     OW42786   5.170  12.211  10.468
13630SOL    HW142787   5.257  12.177  10.449
13630SOL    HW242788   5.114  12.175  10.400
13631SOL     OW42789   4.369   9.066  10.967
13631SOL    HW142790   4.364   9.089  11.060
13631SOL    HW242791   4.379   8.971  10.967
13632SOL     OW42792  14.025   0.182  12.366
13632SOL    HW142793  14.087   0.246  12.331
13632SOL    HW242794  13.984   0.143  12.288
13633SOL     OW42795   4.495   6.078  14.360
13633SOL    HW142796   4.477   6.005  14.419
13633SOL    HW242797   4.409   6.117  14.345
13634SOL     OW42798  12.843   8.665  10.744
13634SOL    HW142799  12.758   8.691  10.780
13634SOL    HW242800  12.822   8.593  10.684
13635SOL     OW42801   5.551  14.725   0.135
13635SOL    HW142802   5.523  14.643   0.176
13635SOL    HW242803   5.469  14.766   0.105
13636SOL     OW42804  13.034   1.342   8.400
13636SOL    HW142805  13.058   1.381   8.316
13636SOL    HW242806  12.939   1.329   8.393
13637SOL     OW42807  13.773   1.486   3.212
13637SOL    HW142808  13.728   1.438   3.142
13637SOL    HW242809  13.866   1.475   3.191
13638SOL     OW42810  10.373   2.302   6.917
13638SOL    HW142811  10.281   2.280   6.899
13638SOL    HW242812  10.405   2.339   6.835
13639SOL     OW42813   1.399   5.064  10.494
13639SOL    HW142814   1.460   5.137  10.485
13639SOL    HW242815   1.313   5.103  10.475
13640SOL     OW42816  11.999   5.798   7.482
13640SOL    HW142817  12.043   5.730   7.532
13640SOL    HW242818  11.990   5.763   7.394
13641SOL     OW42819   7.054  10.070  14.067
13641SOL    HW142820   6.978  10.012  14.070
13641SOL    HW242821   7.089  10.069  14.156
13642SOL     OW42822   5.331  13.688   5.113
13642SOL    HW142823   5.276  13.666   5.188
13642SOL    HW242824   5.341  13.605   5.065
13643SOL     OW42825  14.214   5.219   5.745
13643SOL    HW142826  14.232   5.208   5.652
13643SOL    HW242827  14.127   5.260   5.748
13644SOL     OW42828  11.261   2.707   9.835
13644SOL    HW142829  11.196   2.688   9.767
13644SOL    HW242830  11.316   2.776   9.797
13645SOL     OW42831   6.953  13.058  10.821
13645SOL    HW142832   6.891  13.049  10.748
13645SOL    HW242833   7.035  13.085  10.779
13646SOL     OW42834  13.702   8.251   5.428
13646SOL    HW142835  13.716   8.318   5.361
13646SOL    HW242836  13.781   8.255   5.482
13647SOL     OW42837  13.096   2.897  11.763
13647SOL    HW142838  13.157   2.953  11.812
13647SOL    HW242839  13.058   2.955  11.697
13648SOL     OW42840   6.922   9.033   4.088
13648SOL    HW142841   6.921   9.113   4.140
13648SOL    HW242842   7.014   9.020   4.065
13649SOL     OW42843   2.816   2.411  13.183
13649SOL    HW142844   2.899   2.410  13.231
13649SOL    HW242845   2.841   2.404  13.091
13650SOL     OW42846   9.738  11.833   2.688
13650SOL    HW142847   9.652  11.805   2.658
13650SOL    HW242848   9.722  11.916   2.732
13651SOL     OW42849  14.121   9.409  14.092
13651SOL    HW142850  14.192   9.404  14.028
13651SOL    HW242851  14.119   9.322  14.133
13652SOL     OW42852   1.406   6.703  14.435
13652SOL    HW142853   1.464   6.628  14.450
13652SOL    HW242854   1.462   6.770  14.397
13653SOL     OW42855  11.673   8.517   3.397
13653SOL    HW142856  11.628   8.518   3.482
13653SOL    HW242857  11.684   8.424   3.377
13654SOL     OW42858  12.135   1.904  13.791
13654SOL    HW142859  12.151   1.825  13.842
13654SOL    HW242860  12.146   1.876  13.700
13655SOL     OW42861   3.974   2.642  13.342
13655SOL    HW142862   3.941   2.701  13.274
13655SOL    HW242863   4.068   2.663  13.347
13656SOL     OW42864  10.505  13.446   4.989
13656SOL    HW142865  10.555  13.424   4.910
13656SOL    HW242866  10.509  13.367   5.042
13657SOL     OW42867  14.183  13.880   5.050
13657SOL    HW142868  14.188  13.950   4.984
13657SOL    HW242869  14.104  13.900   5.100
13658SOL     OW42870  11.842  13.495  10.894
13658SOL    HW142871  11.781  13.439  10.847
13658SOL    HW242872  11.888  13.543  10.825
13659SOL     OW42873   6.894   6.198   7.968
13659SOL    HW142874   6.873   6.270   8.029
13659SOL    HW242875   6.833   6.128   7.993
13660SOL     OW42876   7.300  11.039   0.166
13660SOL    HW142877   7.343  11.051   0.251
13660SOL    HW242878   7.216  10.998   0.188
13661SOL     OW42879  13.832   2.515   8.155
13661SOL    HW142880  13.802   2.564   8.232
13661SOL    HW242881  13.754   2.506   8.101
13662SOL     OW42882   7.495   7.276   9.347
13662SOL    HW142883   7.450   7.267   9.431
13662SOL    HW242884   7.526   7.187   9.327
13663SOL     OW42885   6.210  12.641   2.765
13663SOL    HW142886   6.193  12.551   2.736
13663SOL    HW242887   6.305  12.651   2.757
13664SOL     OW42888   3.971  12.954   3.702
13664SOL    HW142889   4.000  13.044   3.714
13664SOL    HW242890   4.030  12.903   3.758
13665SOL     OW42891   4.629   3.097   6.453
13665SOL    HW142892   4.683   3.093   6.374
13665SOL    HW242893   4.582   3.180   6.446
13666SOL     OW42894  12.443  13.795  10.777
13666SOL    HW142895  12.498  13.859  10.731
13666SOL    HW242896  12.434  13.829  10.866
13667SOL     OW42897  13.035   9.700   4.000
13667SOL    HW142898  12.970   9.685   3.932
13667SOL    HW242899  12.993   9.670   4.081
13668SOL     OW42900  10.772  13.785   9.975
13668SOL    HW142901  10.778  13.828   9.890
13668SOL    HW242902  10.853  13.810  10.019
13669SOL     OW42903  12.634   9.943   4.627
13669SOL    HW142904  12.562   9.912   4.683
13669SOL    HW242905  12.591   9.975   4.548
13670SOL     OW42906  14.424  12.372  10.586
13670SOL    HW142907  14.442  12.437  10.518
13670SOL    HW242908  14.420  12.422  10.667
13671SOL     OW42909   3.498   7.291   4.406
13671SOL    HW142910   3.528   7.300   4.496
13671SOL    HW242911   3.440   7.365   4.392
13672SOL     OW42912  11.058   3.192   4.125
13672SOL    HW142913  11.083   3.251   4.054
13672SOL    HW242914  10.979   3.231   4.162
13673SOL     OW42915   5.361   5.929  12.439
13673SOL    HW142916   5.357   5.903  12.347
13673SOL    HW242917   5.346   6.024  12.438
13674SOL     OW42918   4.685   6.752   8.414
13674SOL    HW142919   4.645   6.673   8.452
13674SOL    HW242920   4.757   6.718   8.360
13675SOL     OW42921  14.217  11.885   4.448
13675SOL    HW142922  14.156  11.856   4.516
13675SOL    HW242923  14.208  11.981   4.447
13676SOL     OW42924   7.479   2.317  13.314
13676SOL    HW142925   7.569   2.310  13.347
13676SOL    HW242926   7.488   2.303  13.219
13677SOL     OW42927   2.178   0.383   7.333
13677SOL    HW142928   2.210   0.433   7.258
13677SOL    HW242929   2.107   0.329   7.298
13678SOL     OW42930   9.439   7.680   7.460
13678SOL    HW142931   9.504   7.711   7.522
13678SOL    HW242932   9.490   7.650   7.384
13679SOL     OW42933  11.744   2.440   9.796
13679SOL    HW142934  11.834   2.439   9.763
13679SOL    HW242935  11.753   2.431   9.891
13680SOL     OW42936  12.436  12.888   5.113
13680SOL    HW142937  12.352  12.908   5.154
13680SOL    HW242938  12.412  12.850   5.028
13681SOL     OW42939   7.666   6.684   6.302
13681SOL    HW142940   7.660   6.774   6.334
13681SOL    HW242941   7.760   6.668   6.294
13682SOL     OW42942  10.505   0.948  14.774
13682SOL    HW142943  10.583   0.905  14.808
13682SOL    HW242944  10.517   0.947  14.679
13683SOL     OW42945   7.059   0.123   6.266
13683SOL    HW142946   7.004   0.046   6.249
13683SOL    HW242947   7.040   0.183   6.194
13684SOL     OW42948  10.854  10.298   8.043
13684SOL    HW142949  10.805  10.372   8.007
13684SOL    HW242950  10.805  10.273   8.121
13685SOL     OW42951   8.494  14.056   1.096
13685SOL    HW142952   8.558  14.123   1.073
13685SOL    HW242953   8.541  13.973   1.088
13686SOL     OW42954   0.061   1.548  11.349
13686SOL    HW142955  14.881   1.616  11.359
13686SOL    HW242956   0.143   1.590  11.374
13687SOL     OW42957  13.512   2.169   1.827
13687SOL    HW142958  13.575   2.157   1.756
13687SOL    HW242959  13.522   2.092   1.882
13688SOL     OW42960   0.391  12.518  14.649
13688SOL    HW142961   0.387  12.527  14.554
13688SOL    HW242962   0.401  12.607  14.682
13689SOL     OW42963   3.844  10.248  11.140
13689SOL    HW142964   3.783  10.302  11.088
13689SOL    HW242965   3.891  10.311  11.195
13690SOL     OW42966   8.799   6.158   7.417
13690SOL    HW142967   8.863   6.192   7.354
13690SOL    HW242968   8.842   6.081   7.455
13691SOL     OW42969   3.938   4.573   3.449
13691SOL    HW142970   3.913   4.622   3.527
13691SOL    HW242971   3.935   4.481   3.476
13692SOL     OW42972  11.675   9.793  12.988
13692SOL    HW142973  11.653   9.731  12.919
13692SOL    HW242974  11.736   9.855  12.948
13693SOL     OW42975   5.239  10.152   4.373
13693SOL    HW142976   5.157  10.128   4.417
13693SOL    HW242977   5.307  10.107   4.423
13694SOL     OW42978   8.715   1.447   0.554
13694SOL    HW142979   8.657   1.453   0.478
13694SOL    HW242980   8.697   1.361   0.592
13695SOL     OW42981   2.072   9.583   3.420
13695SOL    HW142982   2.129   9.657   3.398
13695SOL    HW242983   2.133   9.511   3.437
13696SOL     OW42984  12.713   3.994   8.739
13696SOL    HW142985  12.677   3.943   8.811
13696SOL    HW242986  12.671   4.080   8.749
13697SOL     OW42987  10.970  11.600   5.528
13697SOL    HW142988  10.977  11.654   5.449
13697SOL    HW242989  11.052  11.615   5.574
13698SOL     OW42990   2.398   0.006  12.784
13698SOL    HW142991   2.387   0.005  12.689
13698SOL    HW242992   2.491  14.876  12.798
13699SOL     OW42993   3.256   8.043  11.880
13699SOL    HW142994   3.262   7.962  11.830
13699SOL    HW242995   3.163   8.067  11.875
13700SOL     OW42996   4.487   4.766   9.712
13700SOL    HW142997   4.517   4.805   9.630
13700SOL    HW242998   4.407   4.813   9.734
13701SOL     OW42999   3.869   4.147   2.317
13701SOL    HW143000   3.953   4.138   2.362
13701SOL    HW243001   3.857   4.064   2.272
13702SOL     OW43002  14.376  12.391   0.980
13702SOL    HW143003  14.332  12.307   0.986
13702SOL    HW243004  14.325  12.449   1.038
13703SOL     OW43005   2.578  12.498   2.492
13703SOL    HW143006   2.659  12.549   2.488
13703SOL    HW243007   2.548  12.493   2.401
13704SOL     OW43008  14.660   3.156   0.447
13704SOL    HW143009  14.688   3.108   0.370
13704SOL    HW243010  14.736   3.208   0.473
13705SOL     OW43011   8.502  10.511   5.623
13705SOL    HW143012   8.418  10.528   5.666
13705SOL    HW243013   8.527  10.595   5.584
13706SOL     OW43014  12.193   6.940   9.353
13706SOL    HW143015  12.245   6.892   9.418
13706SOL    HW243016  12.113   6.964   9.401
13707SOL     OW43017  14.305  13.608   2.646
13707SOL    HW143018  14.247  13.662   2.594
13707SOL    HW243019  14.371  13.669   2.680
13708SOL     OW43020   6.383   3.879  11.054
13708SOL    HW143021   6.405   3.972  11.059
13708SOL    HW243022   6.429   3.847  10.977
13709SOL     OW43023   2.700  14.056  14.727
13709SOL    HW143024   2.747  14.064  14.810
13709SOL    HW243025   2.768  14.037  14.663
13710SOL     OW43026   0.971   8.055   5.720
13710SOL    HW143027   0.935   8.076   5.807
13710SOL    HW243028   0.911   8.097   5.659
13711SOL     OW43029   7.941  10.478   9.292
13711SOL    HW143030   8.022  10.486   9.243
13711SOL    HW243031   7.959  10.409   9.357
13712SOL     OW43032   6.110  13.277   7.666
13712SOL    HW143033   6.016  13.279   7.686
13712SOL    HW243034   6.113  13.266   7.571
13713SOL     OW43035   0.774   6.257   7.555
13713SOL    HW143036   0.771   6.341   7.601
13713SOL    HW243037   0.707   6.265   7.486
13714SOL     OW43038  13.723   7.164   8.319
13714SOL    HW143039  13.749   7.085   8.272
13714SOL    HW243040  13.689   7.222   8.251
13715SOL     OW43041  10.293  12.439  12.280
13715SOL    HW143042  10.387  12.454  12.287
13715SOL    HW243043  10.279  12.414  12.189
13716SOL     OW43044   1.408   7.765   5.323
13716SOL    HW143045   1.318   7.745   5.350
13716SOL    HW243046   1.409   7.749   5.229
13717SOL     OW43047   7.829   6.622  13.390
13717SOL    HW143048   7.895   6.685  13.417
13717SOL    HW243049   7.765   6.673  13.341
13718SOL     OW43050  14.796  14.060  11.138
13718SOL    HW143051  14.707  14.079  11.108
13718SOL    HW243052  14.788  14.055  11.233
13719SOL     OW43053  10.124   8.780   6.182
13719SOL    HW143054  10.063   8.727   6.234
13719SOL    HW243055  10.083   8.788   6.097
13720SOL     OW43056   6.789  13.991   1.485
13720SOL    HW143057   6.708  14.040   1.469
13720SOL    HW243058   6.808  14.007   1.578
13721SOL     OW43059   4.627   0.111   2.642
13721SOL    HW143060   4.595   0.183   2.696
13721SOL    HW243061   4.716   0.137   2.618
13722SOL     OW43062   3.068   0.886  10.770
13722SOL    HW143063   3.119   0.963  10.743
13722SOL    HW243064   3.133   0.824  10.802
13723SOL     OW43065  11.381   8.788   4.201
13723SOL    HW143066  11.376   8.839   4.283
13723SOL    HW243067  11.290   8.776   4.175
13724SOL     OW43068   4.269  13.257  12.656
13724SOL    HW143069   4.282  13.269  12.561
13724SOL    HW243070   4.218  13.334  12.682
13725SOL     OW43071   7.334   2.277   9.705
13725SOL    HW143072   7.297   2.197   9.744
13725SOL    HW243073   7.257   2.328   9.679
13726SOL     OW43074   2.853   8.676   0.129
13726SOL    HW143075   2.918   8.608   0.143
13726SOL    HW243076   2.856   8.694   0.035
13727SOL     OW43077   5.730   9.809   5.481
13727SOL    HW143078   5.726   9.880   5.545
13727SOL    HW243079   5.772   9.736   5.528
13728SOL     OW43080  13.639   0.507   9.240
13728SOL    HW143081  13.714   0.498   9.181
13728SOL    HW243082  13.569   0.542   9.184
13729SOL     OW43083   4.336   5.962  13.680
13729SOL    HW143084   4.410   5.915  13.640
13729SOL    HW243085   4.276   5.977  13.607
13730SOL     OW43086   3.161  13.327   0.197
13730SOL    HW143087   3.111  13.408   0.204
13730SOL    HW243088   3.237  13.349   0.144
13731SOL     OW43089  13.077   4.509   3.036
13731SOL    HW143090  12.993   4.475   3.003
13731SOL    HW243091  13.078   4.601   3.009
13732SOL     OW43092  12.374  11.331   6.799
13732SOL    HW143093  12.369  11.397   6.731
13732SOL    HW243094  12.418  11.374   6.872
13733SOL     OW43095  10.812   7.932   3.123
13733SOL    HW143096  10.859   8.015   3.123
13733SOL    HW243097  10.761   7.933   3.042
13734SOL     OW43098   6.659   8.643  13.603
13734SOL    HW143099   6.660   8.551  13.579
13734SOL    HW243100   6.677   8.645  13.696
13735SOL     OW43101   7.867   6.978   2.469
13735SOL    HW143102   7.842   6.953   2.558
13735SOL    HW243103   7.891   7.071   2.476
13736SOL     OW43104  13.608   6.230   5.549
13736SOL    HW143105  13.689   6.182   5.529
13736SOL    HW243106  13.583   6.270   5.466
13737SOL     OW43107   8.152   4.974  11.575
13737SOL    HW143108   8.081   4.932  11.527
13737SOL    HW243109   8.207   4.901  11.604
13738SOL     OW43110  12.608   4.931  13.902
13738SOL    HW143111  12.701   4.911  13.897
13738SOL    HW243112  12.580   4.896  13.986
13739SOL     OW43113   7.615   7.872   8.974
13739SOL    HW143114   7.591   7.965   8.973
13739SOL    HW243115   7.533   7.826   8.988
13740SOL     OW43116   8.834   2.290   8.727
13740SOL    HW143117   8.805   2.243   8.649
13740SOL    HW243118   8.834   2.382   8.701
13741SOL     OW43119   9.208   5.725  11.418
13741SOL    HW143120   9.168   5.737  11.332
13741SOL    HW243121   9.294   5.768  11.411
13742SOL     OW43122  13.394   2.883  10.418
13742SOL    HW143123  13.487   2.868  10.400
13742SOL    HW243124  13.391   2.902  10.512
13743SOL     OW43125   2.541   0.674  13.828
13743SOL    HW143126   2.614   0.726  13.860
13743SOL    HW243127   2.483   0.664  13.903
13744SOL     OW43128   6.234  14.328  13.035
13744SOL    HW143129   6.249  14.261  12.968
13744SOL    HW243130   6.271  14.290  13.115
13745SOL     OW43131   6.093  13.807   4.995
13745SOL    HW143132   6.136  13.870   4.937
13745SOL    HW243133   6.072  13.858   5.074
13746SOL     OW43134   5.454  14.538  10.666
13746SOL    HW143135   5.432  14.503  10.753
13746SOL    HW243136   5.424  14.471  10.605
13747SOL     OW43137   2.412   8.973   7.667
13747SOL    HW143138   2.439   8.909   7.601
13747SOL    HW243139   2.434   9.058   7.630
13748SOL     OW43140   0.997  10.094   2.575
13748SOL    HW143141   0.953  10.017   2.540
13748SOL    HW243142   0.963  10.167   2.522
13749SOL     OW43143   0.211  10.061   1.225
13749SOL    HW143144   0.305  10.048   1.234
13749SOL    HW243145   0.199  10.097   1.137
13750SOL     OW43146   1.025  13.904   3.843
13750SOL    HW143147   1.025  13.981   3.899
13750SOL    HW243148   1.118  13.879   3.835
13751SOL     OW43149   2.083   5.025  10.363
13751SOL    HW143150   2.010   5.023  10.425
13751SOL    HW243151   2.161   5.021  10.419
13752SOL     OW43152   7.430  12.897  14.397
13752SOL    HW143153   7.433  12.922  14.489
13752SOL    HW243154   7.498  12.830  14.387
13753SOL     OW43155   1.927   3.869   5.305
13753SOL    HW143156   1.969   3.884   5.220
13753SOL    HW243157   1.909   3.775   5.306
13754SOL     OW43158  12.232   0.705   1.013
13754SOL    HW143159  12.294   0.633   1.025
13754SOL    HW243160  12.286   0.784   1.023
13755SOL     OW43161   2.698   7.269   4.145
13755SOL    HW143162   2.789   7.295   4.128
13755SOL    HW243163   2.653   7.352   4.162
13756SOL     OW43164  13.326   6.145  10.152
13756SOL    HW143165  13.344   6.154  10.059
13756SOL    HW243166  13.233   6.124  10.156
13757SOL     OW43167   8.762   9.710  13.014
13757SOL    HW143168   8.850   9.714  13.052
13757SOL    HW243169   8.765   9.633  12.957
13758SOL     OW43170  12.960   0.713   2.293
13758SOL    HW143171  12.995   0.656   2.362
13758SOL    HW243172  12.908   0.778   2.340
13759SOL     OW43173   0.700  13.796   7.338
13759SOL    HW143174   0.632  13.851   7.378
13759SOL    HW243175   0.681  13.708   7.369
13760SOL     OW43176   2.061  12.095  10.523
13760SOL    HW143177   2.142  12.057  10.560
13760SOL    HW243178   2.022  12.143  10.596
13761SOL     OW43179   9.537   5.873   5.678
13761SOL    HW143180   9.506   5.786   5.702
13761SOL    HW243181   9.631   5.870   5.694
13762SOL     OW43182   4.751  11.411   0.781
13762SOL    HW143183   4.662  11.444   0.767
13762SOL    HW243184   4.793  11.478   0.836
13763SOL     OW43185   2.101  13.185   0.090
13763SOL    HW143186   2.057  13.220   0.013
13763SOL    HW243187   2.193  13.176   0.063
13764SOL     OW43188   3.461   0.970   5.377
13764SOL    HW143189   3.441   0.890   5.425
13764SOL    HW243190   3.512   1.023   5.438
13765SOL     OW43191  10.725   6.176   4.963
13765SOL    HW143192  10.795   6.111   4.952
13765SOL    HW243193  10.719   6.219   4.878
13766SOL     OW43194   9.303   6.756   2.419
13766SOL    HW143195   9.241   6.733   2.350
13766SOL    HW243196   9.266   6.718   2.499
13767SOL     OW43197   0.793   2.020   7.957
13767SOL    HW143198   0.742   2.047   8.033
13767SOL    HW243199   0.741   2.047   7.882
13768SOL     OW43200  14.594   6.207   8.611
13768SOL    HW143201  14.537   6.136   8.639
13768SOL    HW243202  14.682   6.170   8.612
13769SOL     OW43203   5.714   4.336  13.454
13769SOL    HW143204   5.719   4.406  13.389
13769SOL    HW243205   5.621   4.316  13.460
13770SOL     OW43206   8.490   4.328   2.140
13770SOL    HW143207   8.537   4.252   2.173
13770SOL    HW243208   8.462   4.375   2.218
13771SOL     OW43209   9.836   7.947   1.785
13771SOL    HW143210   9.840   7.864   1.832
13771SOL    HW243211   9.916   7.993   1.812
13772SOL     OW43212  13.083  10.178  10.779
13772SOL    HW143213  13.043  10.228  10.850
13772SOL    HW243214  13.155  10.130  10.822
13773SOL     OW43215  13.331   8.373  13.461
13773SOL    HW143216  13.294   8.290  13.490
13773SOL    HW243217  13.413   8.349  13.417
13774SOL     OW43218  14.106   5.496   2.183
13774SOL    HW143219  14.068   5.559   2.122
13774SOL    HW243220  14.147   5.549   2.251
13775SOL     OW43221   8.229  13.990   2.722
13775SOL    HW143222   8.320  13.965   2.708
13775SOL    HW243223   8.221  14.076   2.681
13776SOL     OW43224  14.743   7.153  10.507
13776SOL    HW143225  14.813   7.133  10.569
13776SOL    HW243226  14.709   7.068  10.480
13777SOL     OW43227  11.136   6.646   0.801
13777SOL    HW143228  11.126   6.584   0.729
13777SOL    HW243229  11.058   6.701   0.796
13778SOL     OW43230  11.185   4.965   7.334
13778SOL    HW143231  11.232   4.925   7.408
13778SOL    HW243232  11.253   4.979   7.268
13779SOL     OW43233   4.746  10.412   4.672
13779SOL    HW143234   4.689  10.334   4.672
13779SOL    HW243235   4.813  10.393   4.607
13780SOL     OW43236  10.861   6.841   6.131
13780SOL    HW143237  10.946   6.797   6.133
13780SOL    HW243238  10.797   6.770   6.137
13781SOL     OW43239   9.581   3.693  13.703
13781SOL    HW143240   9.600   3.604  13.672
13781SOL    HW243241   9.659   3.743  13.682
13782SOL     OW43242   7.792  10.377  10.445
13782SOL    HW143243   7.735  10.304  10.422
13782SOL    HW243244   7.826  10.354  10.532
13783SOL     OW43245   9.762   7.150   1.256
13783SOL    HW143246   9.756   7.182   1.346
13783SOL    HW243247   9.773   7.056   1.265
13784SOL     OW43248   8.188   7.403   6.672
13784SOL    HW143249   8.208   7.492   6.701
13784SOL    HW243250   8.092   7.399   6.673
13785SOL     OW43251  14.718  12.926   2.153
13785SOL    HW143252  14.714  12.851   2.212
13785SOL    HW243253  14.645  12.982   2.180
13786SOL     OW43254   7.296   0.448   5.747
13786SOL    HW143255   7.228   0.491   5.694
13786SOL    HW243256   7.356   0.519   5.771
13787SOL     OW43257  11.732   8.436   9.897
13787SOL    HW143258  11.750   8.483   9.816
13787SOL    HW243259  11.794   8.363   9.897
13788SOL     OW43260  14.202   8.748  12.010
13788SOL    HW143261  14.135   8.692  12.050
13788SOL    HW243262  14.255   8.778  12.084
13789SOL     OW43263   6.504   5.483   3.888
13789SOL    HW143264   6.439   5.551   3.904
13789SOL    HW243265   6.531   5.497   3.797
13790SOL     OW43266  14.096  10.326   5.517
13790SOL    HW143267  14.121  10.242   5.478
13790SOL    HW243268  14.153  10.334   5.593
13791SOL     OW43269   5.408  13.327   9.967
13791SOL    HW143270   5.466  13.257   9.937
13791SOL    HW243271   5.343  13.336   9.897
13792SOL     OW43272   2.295   3.719  13.647
13792SOL    HW143273   2.261   3.641  13.691
13792SOL    HW243274   2.329   3.774  13.717
13793SOL     OW43275   9.357   2.879   9.207
13793SOL    HW143276   9.439   2.901   9.252
13793SOL    HW243277   9.290   2.931   9.252
13794SOL     OW43278   8.589   7.557   6.861
13794SOL    HW143279   8.651   7.629   6.874
13794SOL    HW243280   8.571   7.525   6.950
13795SOL     OW43281  11.464  12.195  13.856
13795SOL    HW143282  11.510  12.202  13.939
13795SOL    HW243283  11.509  12.256  13.798
13796SOL     OW43284   9.804   4.841   6.665
13796SOL    HW143285   9.758   4.778   6.610
13796SOL    HW243286   9.896   4.834   6.639
13797SOL     OW43287  13.161  11.978   5.326
13797SOL    HW143288  13.167  11.884   5.305
13797SOL    HW243289  13.136  12.019   5.244
13798SOL     OW43290  10.462  10.610   1.254
13798SOL    HW143291  10.388  10.659   1.217
13798SOL    HW243292  10.447  10.520   1.227
13799SOL     OW43293   5.471   6.214   0.624
13799SOL    HW143294   5.381   6.181   0.623
13799SOL    HW243295   5.511   6.180   0.544
13800SOL     OW43296   2.050  14.849   0.420
13800SOL    HW143297   2.018   0.028   0.482
13800SOL    HW243298   1.979  14.841   0.356
13801SOL     OW43299   5.628  14.636  11.787
13801SOL    HW143300   5.616  14.702  11.856
13801SOL    HW243301   5.632  14.553  11.834
13802SOL     OW43302  12.754   0.780  11.985
13802SOL    HW143303  12.663   0.753  11.994
13802SOL    HW243304  12.749   0.865  11.942
13803SOL     OW43305  11.611   8.149   0.865
13803SOL    HW143306  11.653   8.139   0.950
13803SOL    HW243307  11.599   8.059   0.834
13804SOL     OW43308   5.466   8.907   2.348
13804SOL    HW143309   5.510   8.953   2.420
13804SOL    HW243310   5.395   8.858   2.391
13805SOL     OW43311  12.858  10.111   4.690
13805SOL    HW143312  12.911  10.180   4.651
13805SOL    HW243313  12.803  10.078   4.619
13806SOL     OW43314  13.118   3.654   2.159
13806SOL    HW143315  13.192   3.625   2.213
13806SOL    HW243316  13.062   3.702   2.219
13807SOL     OW43317   0.782   4.156  14.088
13807SOL    HW143318   0.790   4.081  14.029
13807SOL    HW243319   0.771   4.117  14.175
13808SOL     OW43320   6.738  13.889   3.190
13808SOL    HW143321   6.788  13.846   3.259
13808SOL    HW243322   6.648  13.862   3.205
13809SOL     OW43323   0.833   2.447   7.275
13809SOL    HW143324   0.860   2.464   7.185
13809SOL    HW243325   0.742   2.418   7.267
13810SOL     OW43326  11.441  14.190   6.992
13810SOL    HW143327  11.510  14.218   6.931
13810SOL    HW243328  11.362  14.185   6.938
13811SOL     OW43329   5.257  12.688  12.454
13811SOL    HW143330   5.351  12.699  12.466
13811SOL    HW243331   5.235  12.748  12.383
13812SOL     OW43332   3.543   2.506   4.554
13812SOL    HW143333   3.469   2.542   4.603
13812SOL    HW243334   3.601   2.470   4.621
13813SOL     OW43335  13.584  12.561  11.467
13813SOL    HW143336  13.528  12.632  11.497
13813SOL    HW243337  13.608  12.514  11.548
13814SOL     OW43338   1.990   8.567   7.079
13814SOL    HW143339   1.992   8.659   7.104
13814SOL    HW243340   2.061   8.527   7.129
13815SOL     OW43341   8.609   4.951   1.287
13815SOL    HW143342   8.669   5.021   1.313
13815SOL    HW243343   8.524   4.980   1.317
13816SOL     OW43344   1.929   1.967  11.720
13816SOL    HW143345   1.978   1.958  11.638
13816SOL    HW243346   1.950   1.887  11.768
13817SOL     OW43347   3.685   8.548   1.480
13817SOL    HW143348   3.647   8.481   1.536
13817SOL    HW243349   3.621   8.563   1.411
13818SOL     OW43350  10.583  14.333   0.274
13818SOL    HW143351  10.513  14.278   0.311
13818SOL    HW243352  10.539  14.387   0.209
13819SOL     OW43353   1.878   1.398  12.646
13819SOL    HW143354   1.873   1.360  12.559
13819SOL    HW243355   1.951   1.351  12.688
13820SOL     OW43356   1.885   1.339  14.093
13820SOL    HW143357   1.849   1.372  14.174
13820SOL    HW243358   1.969   1.384  14.083
13821SOL     OW43359  12.145   0.536   4.810
13821SOL    HW143360  12.101   0.593   4.873
13821SOL    HW243361  12.086   0.534   4.735
13822SOL     OW43362  10.290   0.929   9.533
13822SOL    HW143363  10.240   0.965   9.460
13822SOL    HW243364  10.358   0.994   9.551
13823SOL     OW43365   1.245   6.267  11.846
13823SOL    HW143366   1.314   6.208  11.875
13823SOL    HW243367   1.250   6.342  11.906
13824SOL     OW43368   4.262   1.068  14.584
13824SOL    HW143369   4.356   1.063  14.597
13824SOL    HW243370   4.226   1.078  14.672
13825SOL     OW43371   0.595   9.425   6.062
13825SOL    HW143372   0.678   9.471   6.050
13825SOL    HW243373   0.557   9.421   5.974
13826SOL     OW43374   0.599   7.604  11.032
13826SOL    HW143375   0.651   7.675  11.068
13826SOL    HW243376   0.663   7.542  10.996
13827SOL     OW43377  13.326   2.578   7.481
13827SOL    HW143378  13.319   2.656   7.426
13827SOL    HW243379  13.363   2.609   7.563
13828SOL     OW43380   7.699  14.264   0.289
13828SOL    HW143381   7.703  14.253   0.384
13828SOL    HW243382   7.700  14.359   0.276
13829SOL     OW43383  10.992   3.960   3.790
13829SOL    HW143384  11.027   3.929   3.707
13829SOL    HW243385  10.907   3.916   3.798
13830SOL     OW43386   0.625   5.881   7.873
13830SOL    HW143387   0.662   5.893   7.960
13830SOL    HW243388   0.584   5.965   7.852
13831SOL     OW43389  11.676   9.352   6.354
13831SOL    HW143390  11.759   9.393   6.327
13831SOL    HW243391  11.673   9.271   6.304
13832SOL     OW43392   7.289   4.775  11.090
13832SOL    HW143393   7.325   4.859  11.117
13832SOL    HW243394   7.355   4.711  11.117
13833SOL     OW43395   3.986  13.604  11.806
13833SOL    HW143396   3.921  13.671  11.826
13833SOL    HW243397   4.004  13.562  11.890
13834SOL     OW43398   6.004   0.550   5.675
13834SOL    HW143399   6.080   0.563   5.619
13834SOL    HW243400   5.940   0.506   5.619
13835SOL     OW43401  11.397   3.368   9.676
13835SOL    HW143402  11.419   3.435   9.611
13835SOL    HW243403  11.433   3.402   9.758
13836SOL     OW43404   9.204   3.517   1.515
13836SOL    HW143405   9.220   3.423   1.504
13836SOL    HW243406   9.290   3.553   1.537
13837SOL     OW43407   3.063  14.608   2.212
13837SOL    HW143408   3.136  14.547   2.202
13837SOL    HW243409   3.025  14.586   2.296
13838SOL     OW43410   9.380  14.864   5.850
13838SOL    HW143411   9.408  14.887   5.939
13838SOL    HW243412   9.327  14.785   5.861
13839SOL     OW43413  14.863  12.600   4.451
13839SOL    HW143414  14.820  12.654   4.518
13839SOL    HW243415  14.791  12.553   4.408
13840SOL     OW43416   6.259   4.199  10.797
13840SOL    HW143417   6.194   4.155  10.853
13840SOL    HW243418   6.304   4.127  10.753
13841SOL     OW43419   1.767  12.485   0.618
13841SOL    HW143420   1.753  12.566   0.569
13841SOL    HW243421   1.855  12.457   0.593
13842SOL     OW43422   3.662  14.128   1.293
13842SOL    HW143423   3.742  14.157   1.338
13842SOL    HW243424   3.657  14.034   1.313
13843SOL     OW43425   4.051  13.029  14.469
13843SOL    HW143426   4.023  12.988  14.551
13843SOL    HW243427   4.034  12.962  14.402
13844SOL     OW43428  13.566   0.712   5.357
13844SOL    HW143429  13.629   0.784   5.347
13844SOL    HW243430  13.504   0.725   5.285
13845SOL     OW43431   3.412   5.259   2.594
13845SOL    HW143432   3.351   5.268   2.520
13845SOL    HW243433   3.406   5.343   2.640
13846SOL     OW43434   2.448   0.136   0.321
13846SOL    HW143435   2.373   0.090   0.282
13846SOL    HW243436   2.409   0.210   0.367
13847SOL     OW43437  13.907   3.704   5.959
13847SOL    HW143438  13.900   3.612   5.984
13847SOL    HW243439  13.818   3.738   5.965
13848SOL     OW43440   4.700   7.793   4.736
13848SOL    HW143441   4.727   7.766   4.824
13848SOL    HW243442   4.754   7.741   4.677
13849SOL     OW43443   8.399   9.640  13.075
13849SOL    HW143444   8.459   9.714  13.080
13849SOL    HW243445   8.326   9.664  13.132
13850SOL     OW43446   6.439   4.170  13.093
13850SOL    HW143447   6.456   4.077  13.078
13850SOL    HW243448   6.513   4.200  13.146
13851SOL     OW43449   7.083  11.325  12.513
13851SOL    HW143450   7.124  11.377  12.444
13851SOL    HW243451   7.074  11.237  12.475
13852SOL     OW43452   7.830   5.366  11.922
13852SOL    HW143453   7.755   5.378  11.864
13852SOL    HW243454   7.906   5.371  11.865
13853SOL     OW43455  12.672   6.530  13.173
13853SOL    HW143456  12.658   6.554  13.265
13853SOL    HW243457  12.691   6.612  13.129
13854SOL     OW43458  10.709   9.378   4.726
13854SOL    HW143459  10.763   9.454   4.752
13854SOL    HW243460  10.640   9.375   4.793
13855SOL     OW43461   6.773   2.685   3.235
13855SOL    HW143462   6.834   2.746   3.193
13855SOL    HW243463   6.803   2.598   3.208
13856SOL     OW43464   8.170   6.988  10.852
13856SOL    HW143465   8.126   6.939  10.922
13856SOL    HW243466   8.263   6.971  10.866
13857SOL     OW43467  10.485   3.692   0.094
13857SOL    HW143468  10.459   3.622   0.153
13857SOL    HW243469  10.521   3.647   0.017
13858SOL     OW43470   6.824   0.002   8.414
13858SOL    HW143471   6.894   0.067   8.412
13858SOL    HW243472   6.847  14.831   8.486
13859SOL     OW43473   6.851  11.994   1.526
13859SOL    HW143474   6.916  11.925   1.540
13859SOL    HW243475   6.792  11.957   1.460
13860SOL     OW43476   5.454   3.660   9.613
13860SOL    HW143477   5.460   3.731   9.549
13860SOL    HW243478   5.369   3.673   9.655
13861SOL     OW43479  13.813   5.506   6.925
13861SOL    HW143480  13.893   5.457   6.942
13861SOL    HW243481  13.843   5.586   6.881
13862SOL     OW43482   6.057  12.352  11.587
13862SOL    HW143483   6.145  12.351  11.624
13862SOL    HW243484   6.058  12.285  11.519
13863SOL     OW43485   9.676  13.236   6.208
13863SOL    HW143486   9.665  13.210   6.117
13863SOL    HW243487   9.659  13.330   6.209
13864SOL     OW43488   3.062   1.242   2.631
13864SOL    HW143489   2.998   1.227   2.700
13864SOL    HW243490   3.056   1.335   2.611
13865SOL     OW43491   9.309  11.341   5.215
13865SOL    HW143492   9.302  11.250   5.243
13865SOL    HW243493   9.389  11.373   5.257
13866SOL     OW43494   1.124   6.346   8.594
13866SOL    HW143495   1.092   6.429   8.629
13866SOL    HW243496   1.046   6.290   8.589
13867SOL     OW43497   8.709   0.042   2.344
13867SOL    HW143498   8.755   0.077   2.420
13867SOL    HW243499   8.670  14.848   2.375
13868SOL     OW43500   1.295   2.510   0.454
13868SOL    HW143501   1.219   2.514   0.512
13868SOL    HW243502   1.268   2.451   0.383
13869SOL     OW43503   0.963   5.875   0.528
13869SOL    HW143504   0.899   5.934   0.489
13869SOL    HW243505   0.938   5.788   0.497
13870SOL     OW43506   3.123   6.238   2.820
13870SOL    HW143507   3.176   6.175   2.772
13870SOL    HW243508   3.177   6.317   2.824
13871SOL     OW43509  10.625   2.411   3.878
13871SOL    HW143510  10.699   2.357   3.904
13871SOL    HW243511  10.555   2.349   3.859
13872SOL     OW43512   6.032   2.494   4.365
13872SOL    HW143513   6.101   2.435   4.396
13872SOL    HW243514   6.009   2.546   4.442
13873SOL     OW43515  10.033  12.204   2.107
13873SOL    HW143516   9.942  12.212   2.078
13873SOL    HW243517  10.084  12.210   2.027
13874SOL     OW43518   1.365   3.782  12.258
13874SOL    HW143519   1.362   3.842  12.184
13874SOL    HW243520   1.369   3.839  12.335
13875SOL     OW43521   1.654   1.313   9.358
13875SOL    HW143522   1.660   1.408   9.372
13875SOL    HW243523   1.561   1.295   9.350
13876SOL     OW43524   7.369   3.351  11.416
13876SOL    HW143525   7.376   3.399  11.334
13876SOL    HW243526   7.375   3.419  11.484
13877SOL     OW43527   7.703  14.091   5.056
13877SOL    HW143528   7.727  14.159   5.119
13877SOL    HW243529   7.765  14.019   5.073
13878SOL     OW43530   3.677   6.187   9.848
13878SOL    HW143531   3.619   6.215   9.918
13878SOL    HW243532   3.704   6.269   9.805
13879SOL     OW43533   0.738  10.758   3.254
13879SOL    HW143534   0.717  10.697   3.184
13879SOL    HW243535   0.797  10.822   3.214
13880SOL     OW43536   0.098   6.024   1.460
13880SOL    HW143537   0.074   6.116   1.461
13880SOL    HW243538   0.182   6.020   1.506
13881SOL     OW43539  13.133   1.355   3.848
13881SOL    HW143540  13.096   1.272   3.879
13881SOL    HW243541  13.201   1.376   3.912
13882SOL     OW43542   6.466   0.642  10.085
13882SOL    HW143543   6.449   0.548  10.091
13882SOL    HW243544   6.380   0.681  10.074
13883SOL     OW43545  12.612   6.759   0.083
13883SOL    HW143546  12.650   6.709   0.011
13883SOL    HW243547  12.680   6.762   0.149
13884SOL     OW43548   9.762   2.002  13.066
13884SOL    HW143549   9.765   1.907  13.072
13884SOL    HW243550   9.683   2.027  13.114
13885SOL     OW43551  13.039   6.215  10.047
13885SOL    HW143552  12.997   6.160  10.113
13885SOL    HW243553  13.045   6.159   9.969
13886SOL     OW43554  12.983   7.064   7.853
13886SOL    HW143555  13.004   7.036   7.943
13886SOL    HW243556  13.047   7.133   7.834
13887SOL     OW43557   5.831   1.151  11.950
13887SOL    HW143558   5.800   1.144  12.040
13887SOL    HW243559   5.860   1.242  11.941
13888SOL     OW43560  11.487   1.659   1.478
13888SOL    HW143561  11.528   1.708   1.549
13888SOL    HW243562  11.543   1.674   1.402
13889SOL     OW43563   8.674   6.825   4.140
13889SOL    HW143564   8.617   6.853   4.212
13889SOL    HW243565   8.633   6.744   4.108
13890SOL     OW43566  13.403   3.646   4.671
13890SOL    HW143567  13.391   3.593   4.593
13890SOL    HW243568  13.395   3.737   4.641
13891SOL     OW43569  12.167   3.727   4.020
13891SOL    HW143570  12.176   3.780   3.941
13891SOL    HW243571  12.091   3.671   4.003
13892SOL     OW43572  10.552  11.031  10.187
13892SOL    HW143573  10.533  11.108  10.241
13892SOL    HW243574  10.591  10.968  10.247
13893SOL     OW43575  11.937   9.522   8.561
13893SOL    HW143576  11.880   9.499   8.488
13893SOL    HW243577  11.878   9.543   8.633
13894SOL     OW43578   6.399   0.504  12.713
13894SOL    HW143579   6.409   0.553  12.632
13894SOL    HW243580   6.481   0.456  12.723
13895SOL     OW43581  10.386   9.653  10.645
13895SOL    HW143582  10.321   9.641  10.577
13895SOL    HW243583  10.466   9.677  10.598
13896SOL     OW43584   1.023  11.893   4.433
13896SOL    HW143585   0.999  11.806   4.402
13896SOL    HW243586   1.117  11.887   4.450
13897SOL     OW43587  11.528   3.899   1.380
13897SOL    HW143588  11.498   3.854   1.459
13897SOL    HW243589  11.498   3.844   1.308
13898SOL     OW43590  13.972  13.926   1.967
13898SOL    HW143591  14.027  13.890   1.897
13898SOL    HW243592  13.883  13.898   1.945
13899SOL     OW43593  13.227   2.669   8.849
13899SOL    HW143594  13.258   2.581   8.871
13899SOL    HW243595  13.256   2.724   8.922
13900SOL     OW43596   3.925   0.246   6.037
13900SOL    HW143597   3.892   0.194   5.964
13900SOL    HW243598   3.964   0.181   6.096
13901SOL     OW43599   6.049  13.948  11.583
13901SOL    HW143600   6.141  13.942  11.608
13901SOL    HW243601   6.008  13.995  11.655
13902SOL     OW43602   7.603   6.515  14.692
13902SOL    HW143603   7.528   6.574  14.687
13902SOL    HW243604   7.677   6.567  14.659
13903SOL     OW43605  10.262   5.680   9.593
13903SOL    HW143606  10.287   5.627   9.668
13903SOL    HW243607  10.179   5.642   9.563
13904SOL     OW43608   5.961   1.869   9.689
13904SOL    HW143609   6.017   1.943   9.664
13904SOL    HW243610   6.021   1.796   9.701
13905SOL     OW43611   0.628  12.518  11.523
13905SOL    HW143612   0.626  12.470  11.440
13905SOL    HW243613   0.536  12.543  11.538
13906SOL     OW43614   6.113  14.257   7.783
13906SOL    HW143615   6.033  14.306   7.805
13906SOL    HW243616   6.148  14.301   7.705
13907SOL     OW43617   1.626   7.284   9.099
13907SOL    HW143618   1.576   7.363   9.077
13907SOL    HW243619   1.685   7.312   9.169
13908SOL     OW43620  10.723  13.329   6.374
13908SOL    HW143621  10.715  13.235   6.360
13908SOL    HW243622  10.728  13.339   6.469
13909SOL     OW43623  14.086   9.542   8.869
13909SOL    HW143624  14.061   9.462   8.822
13909SOL    HW243625  14.131   9.510   8.947
13910SOL     OW43626  13.347  12.914   2.540
13910SOL    HW143627  13.371  12.822   2.534
13910SOL    HW243628  13.251  12.914   2.543
13911SOL     OW43629   0.363   2.966  10.594
13911SOL    HW143630   0.302   2.902  10.631
13911SOL    HW243631   0.316   3.003  10.519
13912SOL     OW43632   2.916  11.128  12.676
13912SOL    HW143633   2.946  11.137  12.767
13912SOL    HW243634   2.828  11.093  12.683
13913SOL     OW43635   3.939  10.178   9.118
13913SOL    HW143636   3.976  10.200   9.033
13913SOL    HW243637   3.873  10.112   9.099
13914SOL     OW43638   8.217  14.645   6.405
13914SOL    HW143639   8.159  14.622   6.478
13914SOL    HW243640   8.300  14.603   6.426
13915SOL     OW43641   4.766  11.758  14.203
13915SOL    HW143642   4.683  11.784  14.162
13915SOL    HW243643   4.775  11.665  14.182
13916SOL     OW43644   6.279   0.558   0.403
13916SOL    HW143645   6.196   0.601   0.422
13916SOL    HW243646   6.259   0.498   0.331
13917SOL     OW43647  10.535  14.635   6.580
13917SOL    HW143648  10.459  14.659   6.633
13917SOL    HW243649  10.576  14.718   6.556
13918SOL     OW43650   0.477   0.721  12.160
13918SOL    HW143651   0.469   0.700  12.067
13918SOL    HW243652   0.447   0.643  12.206
13919SOL     OW43653  11.085   6.639   8.080
13919SOL    HW143654  11.174   6.664   8.060
13919SOL    HW243655  11.031   6.692   8.022
13920SOL     OW43656   6.041   4.269   1.972
13920SOL    HW143657   5.973   4.324   1.931
13920SOL    HW243658   5.995   4.189   1.996
13921SOL     OW43659  13.322   2.203   5.681
13921SOL    HW143660  13.402   2.172   5.722
13921SOL    HW243661  13.276   2.123   5.655
13922SOL     OW43662  14.532   0.108   7.383
13922SOL    HW143663  14.574   0.063   7.456
13922SOL    HW243664  14.441   0.120   7.410
13923SOL     OW43665   9.941   4.817   4.910
13923SOL    HW143666   9.985   4.858   4.836
13923SOL    HW243667   9.899   4.739   4.873
13924SOL     OW43668  11.810   8.891   3.519
13924SOL    HW143669  11.825   8.797   3.516
13924SOL    HW243670  11.894   8.928   3.545
13925SOL     OW43671   3.256   7.300  11.093
13925SOL    HW143672   3.184   7.309  11.156
13925SOL    HW243673   3.218   7.324  11.009
13926SOL     OW43674  11.197   2.710   5.744
13926SOL    HW143675  11.256   2.639   5.721
13926SOL    HW243676  11.171   2.748   5.660
13927SOL     OW43677   9.586   1.234  14.672
13927SOL    HW143678   9.602   1.205  14.582
13927SOL    HW243679   9.522   1.305  14.663
13928SOL     OW43680  10.707  12.971  14.630
13928SOL    HW143681  10.678  12.977  14.539
13928SOL    HW243682  10.739  13.059  14.650
13929SOL     OW43683   6.158   2.849   8.481
13929SOL    HW143684   6.073   2.860   8.439
13929SOL    HW243685   6.202   2.933   8.467
13930SOL     OW43686   1.046   1.544   9.388
13930SOL    HW143687   1.142   1.540   9.386
13930SOL    HW243688   1.021   1.487   9.461
13931SOL     OW43689   0.995   3.465  10.005
13931SOL    HW143690   1.029   3.468  10.095
13931SOL    HW243691   1.012   3.375   9.976
13932SOL     OW43692  13.457  12.292   9.981
13932SOL    HW143693  13.424  12.365  10.033
13932SOL    HW243694  13.378  12.251   9.944
13933SOL     OW43695   6.551   5.543  12.811
13933SOL    HW143696   6.551   5.492  12.729
13933SOL    HW243697   6.462   5.577  12.817
13934SOL     OW43698  13.278   5.409   9.946
13934SOL    HW143699  13.318   5.496   9.948
13934SOL    HW243700  13.330   5.357  10.008
13935SOL     OW43701   3.016   2.462   4.644
13935SOL    HW143702   2.956   2.535   4.660
13935SOL    HW243703   2.964   2.397   4.599
13936SOL     OW43704  12.353   2.075  11.522
13936SOL    HW143705  12.381   2.134  11.452
13936SOL    HW243706  12.257   2.077  11.518
13937SOL     OW43707   3.832   9.107   8.989
13937SOL    HW143708   3.841   9.069   9.076
13937SOL    HW243709   3.906   9.167   8.982
13938SOL     OW43710  14.190   4.847   3.569
13938SOL    HW143711  14.272   4.892   3.552
13938SOL    HW243712  14.134   4.868   3.494
13939SOL     OW43713   6.140   1.915   6.290
13939SOL    HW143714   6.129   1.995   6.341
13939SOL    HW243715   6.144   1.845   6.356
13940SOL     OW43716   7.966  12.961   9.725
13940SOL    HW143717   7.932  12.963   9.814
13940SOL    HW243718   8.036  13.026   9.724
13941SOL     OW43719  10.503  12.100   9.968
13941SOL    HW143720  10.586  12.114  10.014
13941SOL    HW243721  10.506  12.160   9.894
13942SOL     OW43722   4.898   2.810   7.298
13942SOL    HW143723   4.985   2.773   7.312
13942SOL    HW243724   4.858   2.752   7.233
13943SOL     OW43725   8.849  11.542  12.919
13943SOL    HW143726   8.863  11.461  12.870
13943SOL    HW243727   8.783  11.590  12.869
13944SOL     OW43728   4.800   7.216   8.035
13944SOL    HW143729   4.858   7.280   8.076
13944SOL    HW243730   4.805   7.139   8.092
13945SOL     OW43731   2.919   7.259   3.023
13945SOL    HW143732   2.898   7.272   3.115
13945SOL    HW243733   2.849   7.302   2.975
13946SOL     OW43734   4.922   4.573   2.639
13946SOL    HW143735   5.004   4.531   2.615
13946SOL    HW243736   4.871   4.503   2.681
13947SOL     OW43737   0.110   3.649   3.756
13947SOL    HW143738   0.206   3.654   3.761
13947SOL    HW243739   0.091   3.630   3.665
13948SOL     OW43740  11.066  12.609  14.464
13948SOL    HW143741  11.070  12.514  14.472
13948SOL    HW243742  10.973  12.628  14.456
13949SOL     OW43743   5.972  10.250   7.220
13949SOL    HW143744   5.988  10.267   7.313
13949SOL    HW243745   5.916  10.322   7.192
13950SOL     OW43746   5.174   7.598  13.153
13950SOL    HW143747   5.243   7.538  13.180
13950SOL    HW243748   5.180   7.601  13.057
13951SOL     OW43749   3.085  10.127   8.785
13951SOL    HW143750   3.104  10.137   8.878
13951SOL    HW243751   3.139  10.193   8.742
13952SOL     OW43752   5.446   5.022  11.143
13952SOL    HW143753   5.393   5.034  11.065
13952SOL    HW243754   5.433   5.103  11.194
13953SOL     OW43755   0.317  10.947  10.767
13953SOL    HW143756   0.257  10.942  10.692
13953SOL    HW243757   0.260  10.949  10.844
13954SOL     OW43758   8.669   8.233   1.245
13954SOL    HW143759   8.618   8.241   1.326
13954SOL    HW243760   8.644   8.148   1.209
13955SOL     OW43761   3.310   3.315  10.940
13955SOL    HW143762   3.359   3.383  10.986
13955SOL    HW243763   3.221   3.349  10.933
13956SOL     OW43764   5.467   9.407   9.018
13956SOL    HW143765   5.514   9.365   9.090
13956SOL    HW243766   5.447   9.495   9.049
13957SOL     OW43767   2.142  13.899   0.511
13957SOL    HW143768   2.107  13.911   0.599
13957SOL    HW243769   2.065  13.880   0.457
13958SOL     OW43770   8.442  12.952   2.490
13958SOL    HW143771   8.445  12.941   2.395
13958SOL    HW243772   8.452  12.863   2.524
13959SOL     OW43773   0.199   1.854   8.560
13959SOL    HW143774   0.157   1.852   8.474
13959SOL    HW243775   0.176   1.770   8.600
13960SOL     OW43776   1.480  14.759  13.611
13960SOL    HW143777   1.490  14.837  13.557
13960SOL    HW243778   1.448  14.792  13.695
13961SOL     OW43779  13.457  10.430  13.651
13961SOL    HW143780  13.411  10.352  13.684
13961SOL    HW243781  13.388  10.482  13.610
13962SOL     OW43782  11.634   8.298   0.648
13962SOL    HW143783  11.626   8.249   0.730
13962SOL    HW243784  11.687   8.242   0.592
13963SOL     OW43785  10.662  10.623   4.356
13963SOL    HW143786  10.720  10.699   4.361
13963SOL    HW243787  10.703  10.565   4.292
13964SOL     OW43788  14.036  11.004   1.373
13964SOL    HW143789  13.962  11.032   1.426
13964SOL    HW243790  14.056  11.079   1.317
13965SOL     OW43791   5.458  12.234   8.397
13965SOL    HW143792   5.397  12.218   8.469
13965SOL    HW243793   5.437  12.168   8.332
13966SOL     OW43794  13.737  10.747   0.718
13966SOL    HW143795  13.778  10.673   0.764
13966SOL    HW243796  13.655  10.763   0.765
13967SOL     OW43797   5.676  11.909   1.999
13967SOL    HW143798   5.707  11.890   1.910
13967SOL    HW243799   5.681  12.005   2.006
13968SOL     OW43800   0.781   3.416  12.324
13968SOL    HW143801   0.773   3.388  12.415
13968SOL    HW243802   0.837   3.351  12.283
13969SOL     OW43803   1.122  11.393  13.940
13969SOL    HW143804   1.061  11.466  13.937
13969SOL    HW243805   1.076  11.325  13.989
13970SOL     OW43806   1.327  11.236   7.120
13970SOL    HW143807   1.329  11.218   7.025
13970SOL    HW243808   1.267  11.170   7.155
13971SOL     OW43809   9.353   7.293  12.675
13971SOL    HW143810   9.328   7.249  12.756
13971SOL    HW243811   9.411   7.231  12.631
13972SOL     OW43812  10.878  11.345   2.650
13972SOL    HW143813  10.969  11.370   2.636
13972SOL    HW243814  10.864  11.353   2.744
13973SOL     OW43815  10.008   9.300   9.861
13973SOL    HW143816   9.961   9.370   9.905
13973SOL    HW243817   9.994   9.223   9.917
13974SOL     OW43818   8.135  11.355  12.780
13974SOL    HW143819   8.066  11.341  12.715
13974SOL    HW243820   8.141  11.450  12.788
13975SOL     OW43821   0.360   5.698   4.344
13975SOL    HW143822   0.314   5.712   4.426
13975SOL    HW243823   0.291   5.697   4.278
13976SOL     OW43824   4.997  13.037   0.805
13976SOL    HW143825   4.911  13.067   0.777
13976SOL    HW243826   5.046  13.118   0.823
13977SOL     OW43827   7.823   0.553  14.724
13977SOL    HW143828   7.744   0.564  14.778
13977SOL    HW243829   7.890   0.524  14.786
13978SOL     OW43830  11.707  11.797  11.114
13978SOL    HW143831  11.800  11.782  11.098
13978SOL    HW243832  11.673  11.827  11.029
13979SOL     OW43833  12.057   7.321   2.851
13979SOL    HW143834  12.109   7.401   2.860
13979SOL    HW243835  12.045   7.290   2.941
13980SOL     OW43836   8.920   6.588  11.153
13980SOL    HW143837   8.867   6.650  11.203
13980SOL    HW243838   8.926   6.626  11.066
13981SOL     OW43839  12.747  11.945   1.090
13981SOL    HW143840  12.762  11.884   1.018
13981SOL    HW243841  12.658  11.926   1.119
13982SOL     OW43842   7.936   7.580   6.094
13982SOL    HW143843   8.003   7.631   6.049
13982SOL    HW243844   7.922   7.626   6.177
13983SOL     OW43845   7.677   7.685   6.099
13983SOL    HW143846   7.756   7.639   6.071
13983SOL    HW243847   7.637   7.627   6.164
13984SOL     OW43848  12.186   5.226   9.530
13984SOL    HW143849  12.239   5.147   9.526
13984SOL    HW243850  12.111   5.202   9.585
13985SOL     OW43851   1.430   2.300   3.052
13985SOL    HW143852   1.426   2.393   3.031
13985SOL    HW243853   1.392   2.293   3.139
13986SOL     OW43854   9.299   8.633   3.549
13986SOL    HW143855   9.217   8.636   3.599
13986SOL    HW243856   9.292   8.554   3.496
13987SOL     OW43857   6.366   3.296   6.548
13987SOL    HW143858   6.419   3.248   6.612
13987SOL    HW243859   6.314   3.229   6.505
13988SOL     OW43860  12.509   7.617  12.975
13988SOL    HW143861  12.433   7.648  12.925
13988SOL    HW243862  12.584   7.654  12.929
13989SOL     OW43863   0.228  10.715   1.745
13989SOL    HW143864   0.303  10.701   1.803
13989SOL    HW243865   0.260  10.690   1.658
13990SOL     OW43866   5.030  12.764  12.652
13990SOL    HW143867   5.097  12.741  12.588
13990SOL    HW243868   5.078  12.800  12.726
13991SOL     OW43869   1.299   8.592  13.897
13991SOL    HW143870   1.222   8.536  13.909
13991SOL    HW243871   1.264   8.681  13.902
13992SOL     OW43872   5.648   4.104   9.800
13992SOL    HW143873   5.564   4.087   9.842
13992SOL    HW243874   5.712   4.060   9.855
13993SOL     OW43875  13.257   5.941   2.922
13993SOL    HW143876  13.241   5.875   2.990
13993SOL    HW243877  13.350   5.961   2.929
13994SOL     OW43878   8.058  13.995   0.121
13994SOL    HW143879   8.030  14.015   0.210
13994SOL    HW243880   8.143  14.037   0.112
13995SOL     OW43881  14.623   5.804   6.251
13995SOL    HW143882  14.570   5.848   6.185
13995SOL    HW243883  14.700   5.861   6.261
13996SOL     OW43884   1.069  12.549   1.492
13996SOL    HW143885   1.047  12.465   1.453
13996SOL    HW243886   1.137  12.527   1.557
13997SOL     OW43887   8.740   0.080  10.715
13997SOL    HW143888   8.830   0.112  10.707
13997SOL    HW243889   8.686   0.158  10.711
13998SOL     OW43890  14.872   2.078   1.451
13998SOL    HW143891  14.822   2.158   1.465
13998SOL    HW243892   0.014   2.053   1.539
13999SOL     OW43893   2.167   6.220   5.588
13999SOL    HW143894   2.211   6.231   5.504
13999SOL    HW243895   2.238   6.223   5.652
14000SOL     OW43896   7.909   4.020   1.906
14000SOL    HW143897   7.862   4.085   1.854
14000SOL    HW243898   7.844   3.953   1.925
14001SOL     OW43899   9.896  11.754   9.873
14001SOL    HW143900   9.846  11.819   9.923
14001SOL    HW243901   9.906  11.680   9.934
14002SOL     OW43902  14.328  13.700  13.382
14002SOL    HW143903  14.315  13.620  13.331
14002SOL    HW243904  14.307  13.674  13.472
14003SOL     OW43905   2.494   4.014   9.482
14003SOL    HW143906   2.481   4.056   9.567
14003SOL    HW243907   2.503   4.087   9.421
14004SOL     OW43908   1.930   4.358   5.178
14004SOL    HW143909   1.941   4.425   5.246
14004SOL    HW243910   2.009   4.304   5.184
14005SOL     OW43911   9.108  12.672   2.211
14005SOL    HW143912   9.059  12.713   2.139
14005SOL    HW243913   9.114  12.580   2.186
14006SOL     OW43914  12.447  14.861  11.335
14006SOL    HW143915  12.468  14.796  11.402
14006SOL    HW243916  12.365   0.012  11.364
14007SOL     OW43917   2.208   6.707   8.855
14007SOL    HW143918   2.199   6.794   8.817
14007SOL    HW243919   2.128   6.660   8.829
14008SOL     OW43920   2.217   1.800  13.803
14008SOL    HW143921   2.196   1.852  13.725
14008SOL    HW243922   2.313   1.795  13.803
14009SOL     OW43923   9.941  14.326  11.025
14009SOL    HW143924   9.927  14.412  10.986
14009SOL    HW243925   9.922  14.338  11.118
14010SOL     OW43926  10.492   6.626  13.069
14010SOL    HW143927  10.479   6.562  12.999
14010SOL    HW243928  10.482   6.575  13.150
14011SOL     OW43929   7.668   6.826   1.287
14011SOL    HW143930   7.617   6.831   1.207
14011SOL    HW243931   7.648   6.739   1.322
14012SOL     OW43932   3.860   4.755   3.630
14012SOL    HW143933   3.799   4.750   3.704
14012SOL    HW243934   3.884   4.848   3.626
14013SOL     OW43935   9.721   4.989   3.851
14013SOL    HW143936   9.682   4.910   3.813
14013SOL    HW243937   9.647   5.037   3.888
14014SOL     OW43938   2.421   9.558   2.601
14014SOL    HW143939   2.481   9.484   2.613
14014SOL    HW243940   2.456   9.605   2.525
14015SOL     OW43941   3.664   9.404   9.776
14015SOL    HW143942   3.585   9.358   9.806
14015SOL    HW243943   3.736   9.344   9.796
14016SOL     OW43944  13.342  13.560   9.156
14016SOL    HW143945  13.371  13.630   9.097
14016SOL    HW243946  13.405  13.561   9.228
14017SOL     OW43947  14.536  11.512   0.189
14017SOL    HW143948  14.611  11.561   0.152
14017SOL    HW243949  14.472  11.509   0.118
14018SOL     OW43950   3.771  12.550  10.232
14018SOL    HW143951   3.779  12.593  10.317
14018SOL    HW243952   3.709  12.605  10.184
14019SOL     OW43953   5.278   1.577  13.399
14019SOL    HW143954   5.290   1.562  13.305
14019SOL    HW243955   5.302   1.668  13.412
14020SOL     OW43956   2.687   4.575   6.505
14020SOL    HW143957   2.639   4.608   6.428
14020SOL    HW243958   2.778   4.599   6.488
14021SOL     OW43959   1.822   5.211   1.633
14021SOL    HW143960   1.849   5.292   1.676
14021SOL    HW243961   1.870   5.142   1.680
14022SOL     OW43962  11.996   9.882   3.890
14022SOL    HW143963  12.031   9.882   3.801
14022SOL    HW243964  12.058   9.830   3.940
14023SOL     OW43965   1.771   8.102  13.166
14023SOL    HW143966   1.844   8.061  13.120
14023SOL    HW243967   1.708   8.124  13.098
14024SOL     OW43968  11.877  13.542  10.115
14024SOL    HW143969  11.831  13.459  10.101
14024SOL    HW243970  11.934  13.550  10.038
14025SOL     OW43971   4.655   8.457  13.129
14025SOL    HW143972   4.567   8.425  13.149
14025SOL    HW243973   4.676   8.515  13.202
14026SOL     OW43974   6.377   1.571   6.620
14026SOL    HW143975   6.414   1.483   6.628
14026SOL    HW243976   6.286   1.562   6.645
14027SOL     OW43977  12.972   3.828  11.753
14027SOL    HW143978  12.984   3.835  11.848
14027SOL    HW243979  12.970   3.919  11.722
14028SOL     OW43980   4.003   7.742   6.868
14028SOL    HW143981   4.067   7.747   6.940
14028SOL    HW243982   3.953   7.662   6.887
14029SOL     OW43983   0.876   4.577   1.183
14029SOL    HW143984   0.835   4.609   1.103
14029SOL    HW243985   0.844   4.488   1.193
14030SOL     OW43986   0.265   0.043   4.759
14030SOL    HW143987   0.179   0.019   4.791
14030SOL    HW243988   0.310   0.079   4.835
14031SOL     OW43989   8.494  10.710   8.821
14031SOL    HW143990   8.576  10.755   8.843
14031SOL    HW243991   8.478  10.733   8.729
14032SOL     OW43992   9.497   2.526   9.684
14032SOL    HW143993   9.533   2.564   9.604
14032SOL    HW243994   9.442   2.594   9.721
14033SOL     OW43995  12.521  12.756   0.260
14033SOL    HW143996  12.610  12.724   0.248
14033SOL    HW243997  12.506  12.814   0.185
14034SOL     OW43998   2.589  12.785   0.953
14034SOL    HW143999   2.580  12.708   0.896
14034SOL    HW244000   2.530  12.850   0.915
14035SOL     OW44001   3.876   5.364   1.797
14035SOL    HW144002   3.874   5.325   1.885
14035SOL    HW244003   3.884   5.290   1.738
14036SOL     OW44004   6.857  11.219   8.244
14036SOL    HW144005   6.938  11.235   8.195
14036SOL    HW244006   6.796  11.285   8.211
14037SOL     OW44007   6.130  14.066   6.420
14037SOL    HW144008   6.097  14.155   6.420
14037SOL    HW244009   6.221  14.074   6.449
14038SOL     OW44010   2.383   0.410   4.795
14038SOL    HW144011   2.353   0.411   4.886
14038SOL    HW244012   2.477   0.394   4.801
14039SOL     OW44013   6.381   8.895   9.438
14039SOL    HW144014   6.411   8.946   9.363
14039SOL    HW244015   6.303   8.941   9.469
14040SOL     OW44016   6.655   3.501   2.951
14040SOL    HW144017   6.617   3.493   3.038
14040SOL    HW244018   6.581   3.488   2.891
14041SOL     OW44019  12.450   7.327   7.921
14041SOL    HW144020  12.389   7.383   7.969
14041SOL    HW244021  12.394   7.265   7.875
14042SOL     OW44022   6.599  11.958  12.676
14042SOL    HW144023   6.536  12.030  12.668
14042SOL    HW244024   6.685  12.002  12.678
14043SOL     OW44025  11.773  14.064  12.206
14043SOL    HW144026  11.822  13.985  12.182
14043SOL    HW244027  11.700  14.067  12.144
14044SOL     OW44028   6.630   2.511  14.589
14044SOL    HW144029   6.611   2.595  14.546
14044SOL    HW244030   6.576   2.447  14.542
14045SOL     OW44031   2.685   4.905   0.313
14045SOL    HW144032   2.594   4.931   0.325
14045SOL    HW244033   2.706   4.935   0.224
14046SOL     OW44034   2.586   4.634   7.860
14046SOL    HW144035   2.574   4.567   7.927
14046SOL    HW244036   2.513   4.695   7.873
14047SOL     OW44037  14.379   9.177   6.392
14047SOL    HW144038  14.327   9.142   6.465
14047SOL    HW244039  14.453   9.117   6.384
14048SOL     OW44040   7.138  11.678   5.579
14048SOL    HW144041   7.045  11.698   5.590
14048SOL    HW244042   7.142  11.627   5.498
14049SOL     OW44043   9.614  13.211   5.680
14049SOL    HW144044   9.654  13.244   5.760
14049SOL    HW244045   9.554  13.281   5.653
14050SOL     OW44046   1.447   5.366  13.128
14050SOL    HW144047   1.377   5.372  13.194
14050SOL    HW244048   1.401   5.368  13.044
14051SOL     OW44049  10.245   9.375   1.746
14051SOL    HW144050  10.291   9.371   1.830
14051SOL    HW244051  10.177   9.441   1.759
14052SOL     OW44052  11.347   6.603   1.148
14052SOL    HW144053  11.406   6.648   1.209
14052SOL    HW244054  11.393   6.522   1.127
14053SOL     OW44055  10.629  11.261   6.864
14053SOL    HW144056  10.577  11.187   6.897
14053SOL    HW244057  10.692  11.279   6.934
14054SOL     OW44058   0.792   4.357   6.941
14054SOL    HW144059   0.716   4.396   6.984
14054SOL    HW244060   0.864   4.373   7.003
14055SOL     OW44061  14.700  11.776  14.390
14055SOL    HW144062  14.691  11.820  14.305
14055SOL    HW244063  14.615  11.732  14.402
14056SOL     OW44064  11.406   0.679  12.603
14056SOL    HW144065  11.484   0.663  12.656
14056SOL    HW244066  11.338   0.627  12.645
14057SOL     OW44067   6.446   3.759   6.619
14057SOL    HW144068   6.530   3.736   6.659
14057SOL    HW244069   6.409   3.825   6.678
14058SOL     OW44070   9.630   8.010   9.927
14058SOL    HW144071   9.578   8.078   9.970
14058SOL    HW244072   9.581   7.929   9.944
14059SOL     OW44073  10.448   3.462   8.170
14059SOL    HW144074  10.517   3.456   8.104
14059SOL    HW244075  10.367   3.446   8.121
14060SOL     OW44076   2.291   8.329  14.193
14060SOL    HW144077   2.207   8.350  14.236
14060SOL    HW244078   2.307   8.237  14.217
14061SOL     OW44079  14.364   2.845   8.584
14061SOL    HW144080  14.347   2.790   8.508
14061SOL    HW244081  14.329   2.795   8.658
14062SOL     OW44082   1.745   7.867   9.829
14062SOL    HW144083   1.683   7.939   9.818
14062SOL    HW244084   1.698   7.802   9.880
14063SOL     OW44085   5.502  10.602  14.778
14063SOL    HW144086   5.460  10.664  14.838
14063SOL    HW244087   5.552  10.657  14.718
14064SOL     OW44088   3.372   4.919  11.603
14064SOL    HW144089   3.359   5.011  11.626
14064SOL    HW244090   3.407   4.879  11.683
14065SOL     OW44091   9.815   7.594   7.096
14065SOL    HW144092   9.863   7.677   7.097
14065SOL    HW244093   9.813   7.569   7.003
14066SOL     OW44094  14.101   6.626   5.037
14066SOL    HW144095  14.058   6.707   5.064
14066SOL    HW244096  14.030   6.572   5.002
14067SOL     OW44097   9.998   6.206  10.341
14067SOL    HW144098  10.035   6.267  10.277
14067SOL    HW244099  10.020   6.244  10.426
14068SOL     OW44100   1.068   1.127   1.892
14068SOL    HW144101   1.007   1.184   1.939
14068SOL    HW244102   1.012   1.059   1.852
14069SOL     OW44103  10.649   6.081   7.430
14069SOL    HW144104  10.686   6.017   7.369
14069SOL    HW244105  10.667   6.045   7.517
14070SOL     OW44106  10.520   1.496   9.460
14070SOL    HW144107  10.456   1.480   9.529
14070SOL    HW244108  10.532   1.591   9.460
14071SOL     OW44109   6.117  10.772  11.837
14071SOL    HW144110   6.181  10.801  11.772
14071SOL    HW244111   6.119  10.677  11.831
14072SOL     OW44112   9.945   6.065   3.574
14072SOL    HW144113  10.028   6.026   3.547
14072SOL    HW244114   9.932   6.032   3.663
14073SOL     OW44115  13.315   7.683   0.104
14073SOL    HW144116  13.274   7.602   0.134
14073SOL    HW244117  13.285   7.749   0.167
14074SOL     OW44118   0.894  11.482  12.547
14074SOL    HW144119   0.866  11.550  12.608
14074SOL    HW244120   0.836  11.407  12.566
14075SOL     OW44121   5.898   9.925   2.340
14075SOL    HW144122   5.884   9.842   2.386
14075SOL    HW244123   5.851   9.989   2.392
14076SOL     OW44124   6.915   1.806   2.190
14076SOL    HW144125   6.837   1.861   2.183
14076SOL    HW244126   6.963   1.841   2.265
14077SOL     OW44127   9.164   0.406  12.805
14077SOL    HW144128   9.162   0.340  12.874
14077SOL    HW244129   9.232   0.376  12.744
14078SOL     OW44130  11.057   1.211   0.199
14078SOL    HW144131  11.031   1.233   0.288
14078SOL    HW244132  11.153   1.211   0.201
14079SOL     OW44133   3.038  13.473   0.771
14079SOL    HW144134   3.131  13.496   0.777
14079SOL    HW244135   3.031  13.390   0.819
14080SOL     OW44136   5.352  12.717   7.218
14080SOL    HW144137   5.410  12.682   7.151
14080SOL    HW244138   5.410  12.751   7.286
14081SOL     OW44139   2.070   9.513   8.757
14081SOL    HW144140   2.043   9.461   8.833
14081SOL    HW244141   1.996   9.509   8.697
14082SOL     OW44142   7.276   2.169   0.917
14082SOL    HW144143   7.325   2.098   0.875
14082SOL    HW244144   7.320   2.183   1.001
14083SOL     OW44145   4.855  13.362  10.447
14083SOL    HW144146   4.817  13.285  10.487
14083SOL    HW244147   4.910  13.329  10.376
14084SOL     OW44148  11.098   3.778  13.857
14084SOL    HW144149  11.068   3.774  13.766
14084SOL    HW244150  11.039   3.720  13.905
14085SOL     OW44151   0.166   4.890  14.157
14085SOL    HW144152   0.244   4.853  14.116
14085SOL    HW244153   0.198   4.967  14.204
14086SOL     OW44154  13.172   7.906   1.639
14086SOL    HW144155  13.100   7.865   1.687
14086SOL    HW244156  13.129   7.965   1.578
14087SOL     OW44157   3.055   8.449   4.199
14087SOL    HW144158   3.034   8.533   4.158
14087SOL    HW244159   3.140   8.426   4.162
14088SOL     OW44160   0.698   5.561   5.061
14088SOL    HW144161   0.763   5.529   4.998
14088SOL    HW244162   0.712   5.655   5.064
14089SOL     OW44163   8.677  11.369  14.430
14089SOL    HW144164   8.604  11.408  14.381
14089SOL    HW244165   8.754  11.384  14.376
14090SOL     OW44166   1.089   3.790  13.971
14090SOL    HW144167   1.012   3.820  13.922
14090SOL    HW244168   1.058   3.717  14.023
14091SOL     OW44169   5.958  10.412   5.102
14091SOL    HW144170   6.010  10.489   5.127
14091SOL    HW244171   5.968  10.351   5.175
14092SOL     OW44172   9.812   8.403   6.740
14092SOL    HW144173   9.908   8.407   6.743
14092SOL    HW244174   9.792   8.365   6.654
14093SOL     OW44175   5.287  12.399   2.667
14093SOL    HW144176   5.345  12.456   2.717
14093SOL    HW244177   5.266  12.328   2.727
14094SOL     OW44178   8.910   2.884   6.093
14094SOL    HW144179   8.910   2.955   6.029
14094SOL    HW244180   8.995   2.891   6.136
14095SOL     OW44181   0.931  13.456   5.273
14095SOL    HW144182   0.921  13.381   5.332
14095SOL    HW244183   0.921  13.532   5.329
14096SOL     OW44184  10.082   4.083   6.120
14096SOL    HW144185  10.011   4.089   6.185
14096SOL    HW244186  10.160   4.114   6.167
14097SOL     OW44187   7.591   3.536  11.189
14097SOL    HW144188   7.521   3.476  11.163
14097SOL    HW244189   7.667   3.505  11.139
14098SOL     OW44190   9.047   6.529  11.805
14098SOL    HW144191   9.012   6.560  11.889
14098SOL    HW244192   8.980   6.551  11.741
14099SOL     OW44193   8.762  12.187  12.165
14099SOL    HW144194   8.677  12.200  12.123
14099SOL    HW244195   8.744  12.191  12.259
14100SOL     OW44196   6.155   1.717  13.153
14100SOL    HW144197   6.154   1.656  13.227
14100SOL    HW244198   6.063   1.727  13.128
14101SOL     OW44199  11.128  10.810   0.933
14101SOL    HW144200  11.100  10.888   0.981
14101SOL    HW244201  11.166  10.753   0.999
14102SOL     OW44202   3.981   3.236   8.695
14102SOL    HW144203   4.009   3.327   8.698
14102SOL    HW244204   3.886   3.241   8.682
14103SOL     OW44205  13.272   5.688   5.906
14103SOL    HW144206  13.204   5.713   5.969
14103SOL    HW244207  13.349   5.669   5.959
14104SOL     OW44208  14.558   5.690  14.620
14104SOL    HW144209  14.557   5.751  14.545
14104SOL    HW244210  14.485   5.719  14.675
14105SOL     OW44211   3.346   6.909   2.555
14105SOL    HW144212   3.288   6.969   2.601
14105SOL    HW244213   3.289   6.836   2.529
14106SOL     OW44214   8.918   8.205   1.541
14106SOL    HW144215   8.887   8.114   1.537
14106SOL    HW244216   8.992   8.208   1.481
14107SOL     OW44217   1.893   5.817   5.619
14107SOL    HW144218   1.917   5.907   5.597
14107SOL    HW244219   1.827   5.825   5.688
14108SOL     OW44220   4.750   0.468   1.448
14108SOL    HW144221   4.841   0.493   1.433
14108SOL    HW244222   4.736   0.392   1.391
14109SOL     OW44223   4.063   0.749   3.081
14109SOL    HW144224   4.084   0.792   2.998
14109SOL    HW244225   4.027   0.819   3.136
14110SOL     OW44226   7.743   6.564  13.962
14110SOL    HW144227   7.829   6.538  13.996
14110SOL    HW244228   7.721   6.496  13.898
14111SOL     OW44229  14.529   9.221  13.218
14111SOL    HW144230  14.583   9.262  13.151
14111SOL    HW244231  14.510   9.134  13.182
14112SOL     OW44232  10.114   9.141  10.540
14112SOL    HW144233  10.059   9.115  10.613
14112SOL    HW244234  10.193   9.087  10.549
14113SOL     OW44235   2.893   4.402   9.847
14113SOL    HW144236   2.852   4.410   9.933
14113SOL    HW244237   2.901   4.307   9.833
14114SOL     OW44238   6.486   9.504   1.219
14114SOL    HW144239   6.567   9.552   1.240
14114SOL    HW244240   6.516   9.430   1.166
14115SOL     OW44241   0.095   7.807   9.163
14115SOL    HW144242   0.138   7.858   9.231
14115SOL    HW244243   0.124   7.847   9.081
14116SOL     OW44244  10.902  14.645   7.436
14116SOL    HW144245  10.826  14.603   7.475
14116SOL    HW244246  10.931  14.584   7.369
14117SOL     OW44247   7.957   6.262  12.258
14117SOL    HW144248   7.984   6.254  12.166
14117SOL    HW244249   8.033   6.230  12.307
14118SOL     OW44250   3.365   3.867  11.736
14118SOL    HW144251   3.358   3.950  11.690
14118SOL    HW244252   3.382   3.802  11.668
14119SOL     OW44253  12.163   3.499   9.004
14119SOL    HW144254  12.207   3.514   9.088
14119SOL    HW244255  12.072   3.526   9.019
14120SOL     OW44256  12.276  12.470   4.152
14120SOL    HW144257  12.242  12.557   4.129
14120SOL    HW244258  12.225  12.444   4.228
14121SOL     OW44259   2.213   7.834   6.325
14121SOL    HW144260   2.139   7.825   6.265
14121SOL    HW244261   2.174   7.845   6.411
14122SOL     OW44262  14.775  10.936   9.978
14122SOL    HW144263  14.777  11.031   9.969
14122SOL    HW244264  14.745  10.905   9.892
14123SOL     OW44265   3.742   3.545   0.881
14123SOL    HW144266   3.803   3.594   0.826
14123SOL    HW244267   3.774   3.558   0.970
14124SOL     OW44268  11.703  13.110   0.846
14124SOL    HW144269  11.785  13.086   0.803
14124SOL    HW244270  11.688  13.040   0.910
14125SOL     OW44271   2.827   0.424  12.739
14125SOL    HW144272   2.899   0.392  12.793
14125SOL    HW244273   2.825   0.518  12.757
14126SOL     OW44274   6.292  14.778  13.413
14126SOL    HW144275   6.356  14.721  13.456
14126SOL    HW244276   6.345  14.849  13.377
14127SOL     OW44277  13.478   7.746   3.739
14127SOL    HW144278  13.503   7.748   3.831
14127SOL    HW244279  13.490   7.836   3.709
14128SOL     OW44280  14.516  13.150   9.691
14128SOL    HW144281  14.476  13.101   9.620
14128SOL    HW244282  14.601  13.107   9.706
14129SOL     OW44283  14.054   7.991   3.539
14129SOL    HW144284  14.002   8.008   3.460
14129SOL    HW244285  14.092   7.904   3.524
14130SOL     OW44286   2.308  11.245  14.125
14130SOL    HW144287   2.300  11.172  14.063
14130SOL    HW244288   2.380  11.297  14.090
14131SOL     OW44289  10.849   1.732   2.508
14131SOL    HW144290  10.883   1.671   2.443
14131SOL    HW244291  10.807   1.676   2.573
14132SOL     OW44292   5.907   6.423   5.244
14132SOL    HW144293   5.822   6.419   5.287
14132SOL    HW244294   5.937   6.513   5.257
14133SOL     OW44295   2.492   0.491   0.883
14133SOL    HW144296   2.502   0.577   0.925
14133SOL    HW244297   2.504   0.509   0.789
14134SOL     OW44298  12.435   3.601   1.625
14134SOL    HW144299  12.488   3.540   1.574
14134SOL    HW244300  12.433   3.563   1.712
14135SOL     OW44301  13.032  10.309   0.510
14135SOL    HW144302  12.943  10.317   0.477
14135SOL    HW244303  13.058  10.398   0.531
14136SOL     OW44304   5.268   9.057  11.780
14136SOL    HW144305   5.313   9.015  11.708
14136SOL    HW244306   5.233   8.984  11.832
14137SOL     OW44307  12.211  14.257  14.218
14137SOL    HW144308  12.300  14.279  14.247
14137SOL    HW244309  12.219  14.167  14.185
14138SOL     OW44310   0.709  11.337   7.628
14138SOL    HW144311   0.674  11.364   7.543
14138SOL    HW244312   0.735  11.419   7.670
14139SOL     OW44313  14.634   0.084  10.807
14139SOL    HW144314  14.695   0.118  10.742
14139SOL    HW244315  14.684   0.085  10.889
14140SOL     OW44316   7.109   2.420   2.306
14140SOL    HW144317   7.186   2.455   2.262
14140SOL    HW244318   7.061   2.373   2.239
14141SOL     OW44319   0.848   7.315   7.142
14141SOL    HW144320   0.893   7.373   7.080
14141SOL    HW244321   0.909   7.242   7.154
14142SOL     OW44322   8.095  12.317   4.428
14142SOL    HW144323   8.128  12.230   4.405
14142SOL    HW244324   8.127  12.332   4.517
14143SOL     OW44325  13.454   6.733  12.050
14143SOL    HW144326  13.492   6.648  12.072
14143SOL    HW244327  13.387   6.747  12.117
14144SOL     OW44328   6.340   4.895  11.401
14144SOL    HW144329   6.394   4.873  11.325
14144SOL    HW244330   6.345   4.990  11.408
14145SOL     OW44331  12.662   1.056  10.085
14145SOL    HW144332  12.662   0.973  10.134
14145SOL    HW244333  12.570   1.078  10.076
14146SOL     OW44334   1.270   5.913  10.976
14146SOL    HW144335   1.216   5.991  10.970
14146SOL    HW244336   1.339   5.927  10.911
14147SOL     OW44337   5.216   5.281   6.296
14147SOL    HW144338   5.146   5.253   6.238
14147SOL    HW244339   5.268   5.342   6.244
14148SOL     OW44340   2.203   8.718   8.311
14148SOL    HW144341   2.203   8.624   8.291
14148SOL    HW244342   2.266   8.755   8.250
14149SOL     OW44343   2.031   4.599   2.620
14149SOL    HW144344   2.079   4.527   2.660
14149SOL    HW244345   1.977   4.635   2.691
14150SOL     OW44346  13.558  13.838   3.815
14150SOL    HW144347  13.627  13.883   3.864
14150SOL    HW244348  13.581  13.745   3.822
14151SOL     OW44349  12.962   1.786   3.564
14151SOL    HW144350  12.876   1.800   3.605
14151SOL    HW244351  13.013   1.863   3.590
14152SOL     OW44352  13.523   7.351   6.936
14152SOL    HW144353  13.460   7.416   6.905
14152SOL    HW244354  13.587   7.344   6.866
14153SOL     OW44355   6.754  10.097   0.366
14153SOL    HW144356   6.751  10.128   0.457
14153SOL    HW244357   6.827  10.036   0.364
14154SOL     OW44358   1.722   6.394   8.519
14154SOL    HW144359   1.760   6.380   8.432
14154SOL    HW244360   1.791   6.438   8.569
14155SOL     OW44361   6.601   6.896   6.331
14155SOL    HW144362   6.640   6.879   6.416
14155SOL    HW244363   6.544   6.821   6.314
14156SOL     OW44364   8.879   9.640  13.882
14156SOL    HW144365   8.786   9.621  13.871
14156SOL    HW244366   8.881   9.718  13.938
14157SOL     OW44367   5.265   8.222   7.408
14157SOL    HW144368   5.312   8.303   7.387
14157SOL    HW244369   5.332   8.163   7.443
14158SOL     OW44370   4.353   5.348  10.103
14158SOL    HW144371   4.346   5.337  10.198
14158SOL    HW244372   4.263   5.367  10.075
14159SOL     OW44373  14.115   6.909   3.095
14159SOL    HW144374  14.209   6.919   3.079
14159SOL    HW244375  14.081   6.998   3.092
14160SOL     OW44376   6.274   0.208  12.800
14160SOL    HW144377   6.213   0.281  12.804
14160SOL    HW244378   6.348   0.236  12.854
14161SOL     OW44379   6.134  11.091   1.288
14161SOL    HW144380   6.154  11.168   1.235
14161SOL    HW244381   6.195  11.097   1.363
14162SOL     OW44382  12.487   4.894   3.665
14162SOL    HW144383  12.474   4.800   3.653
14162SOL    HW244384  12.414   4.935   3.620
14163SOL     OW44385   2.802   9.803   2.742
14163SOL    HW144386   2.776   9.726   2.793
14163SOL    HW244387   2.833   9.767   2.658
14164SOL     OW44388   9.492   8.831   0.650
14164SOL    HW144389   9.545   8.775   0.593
14164SOL    HW244390   9.557   8.876   0.704
14165SOL     OW44391   3.237   7.535   5.563
14165SOL    HW144392   3.214   7.557   5.654
14165SOL    HW244393   3.324   7.573   5.551
14166SOL     OW44394  11.583   1.031   8.254
14166SOL    HW144395  11.540   1.047   8.339
14166SOL    HW244396  11.513   1.042   8.190
14167SOL     OW44397   2.004   4.176   9.947
14167SOL    HW144398   1.976   4.236   9.878
14167SOL    HW244399   2.092   4.204   9.969
14168SOL     OW44400  10.466   1.060   1.261
14168SOL    HW144401  10.533   0.993   1.270
14168SOL    HW244402  10.475   1.091   1.171
14169SOL     OW44403   4.148   4.946   8.232
14169SOL    HW144404   4.121   4.896   8.309
14169SOL    HW244405   4.210   4.889   8.187
14170SOL     OW44406   9.099   7.212   7.662
14170SOL    HW144407   9.025   7.151   7.667
14170SOL    HW244408   9.134   7.215   7.751
14171SOL     OW44409  13.845   1.318  13.566
14171SOL    HW144410  13.909   1.373  13.520
14171SOL    HW244411  13.895   1.279  13.638
14172SOL     OW44412  12.684   7.192   9.316
14172SOL    HW144413  12.756   7.254   9.305
14172SOL    HW244414  12.665   7.194   9.410
14173SOL     OW44415   0.156  11.992   5.415
14173SOL    HW144416   0.070  11.977   5.375
14173SOL    HW244417   0.143  11.971   5.507
14174SOL     OW44418  14.803  10.791  12.132
14174SOL    HW144419  14.791  10.886  12.126
14174SOL    HW244420  14.808  10.773  12.226
14175SOL     OW44421   8.191  10.689   6.467
14175SOL    HW144422   8.179  10.706   6.374
14175SOL    HW244423   8.233  10.603   6.471
14176SOL     OW44424   8.723   8.206   5.527
14176SOL    HW144425   8.727   8.180   5.435
14176SOL    HW244426   8.629   8.216   5.545
14177SOL     OW44427  14.183  11.725   1.085
14177SOL    HW144428  14.271  11.707   1.052
14177SOL    HW244429  14.193  11.729   1.180
14178SOL     OW44430   7.096   8.944  12.390
14178SOL    HW144431   7.032   9.015  12.394
14178SOL    HW244432   7.127   8.935  12.481
14179SOL     OW44433   1.293  11.754  10.649
14179SOL    HW144434   1.319  11.696  10.578
14179SOL    HW244435   1.198  11.746  10.653
14180SOL     OW44436   9.374   6.308  11.311
14180SOL    HW144437   9.380   6.328  11.405
14180SOL    HW244438   9.388   6.392  11.267
14181SOL     OW44439   4.711   8.438  10.899
14181SOL    HW144440   4.795   8.471  10.867
14181SOL    HW244441   4.717   8.343  10.888
14182SOL     OW44442  13.147  14.817  14.205
14182SOL    HW144443  13.093  14.751  14.249
14182SOL    HW244444  13.152   0.002  14.267
14183SOL     OW44445   0.376   9.995   9.265
14183SOL    HW144446   0.366  10.089   9.246
14183SOL    HW244447   0.355   9.952   9.182
14184SOL     OW44448   3.291   6.506   0.106
14184SOL    HW144449   3.227   6.438   0.087
14184SOL    HW244450   3.335   6.476   0.186
14185SOL     OW44451   8.451   3.810   3.785
14185SOL    HW144452   8.444   3.716   3.801
14185SOL    HW244453   8.361   3.838   3.769
14186SOL     OW44454  12.907   6.901   1.323
14186SOL    HW144455  12.975   6.965   1.346
14186SOL    HW244456  12.833   6.953   1.294
14187SOL     OW44457   6.386   1.635  11.486
14187SOL    HW144458   6.313   1.647  11.546
14187SOL    HW244459   6.415   1.724  11.464
14188SOL     OW44460   1.224   9.540   0.366
14188SOL    HW144461   1.316   9.523   0.345
14188SOL    HW244462   1.206   9.482   0.440
14189SOL     OW44463   2.886   1.937   0.155
14189SOL    HW144464   2.814   1.887   0.117
14189SOL    HW244465   2.908   1.890   0.235
14190SOL     OW44466   1.551  10.452  12.612
14190SOL    HW144467   1.480  10.452  12.676
14190SOL    HW244468   1.590  10.540  12.620
14191SOL     OW44469   2.753   2.437  11.984
14191SOL    HW144470   2.730   2.494  11.911
14191SOL    HW244471   2.756   2.495  12.060
14192SOL     OW44472   0.271   2.536  14.416
14192SOL    HW144473   0.363   2.511  14.420
14192SOL    HW244474   0.245   2.519  14.325
14193SOL     OW44475  13.201  12.899  14.624
14193SOL    HW144476  13.261  12.931  14.692
14193SOL    HW244477  13.166  12.978  14.584
14194SOL     OW44478   0.526  13.692   0.186
14194SOL    HW144479   0.529  13.611   0.236
14194SOL    HW244480   0.575  13.673   0.106
14195SOL     OW44481  12.496  12.439   6.148
14195SOL    HW144482  12.416  12.413   6.103
14195SOL    HW244483  12.468  12.500   6.215
14196SOL     OW44484   5.166  13.050   4.667
14196SOL    HW144485   5.122  13.024   4.586
14196SOL    HW244486   5.215  12.972   4.693
14197SOL     OW44487  14.716  11.372  10.180
14197SOL    HW144488  14.665  11.298  10.148
14197SOL    HW244489  14.690  11.445  10.124
14198SOL     OW44490  13.017   8.010   6.899
14198SOL    HW144491  13.028   8.104   6.882
14198SOL    HW244492  12.963   7.979   6.827
14199SOL     OW44493   9.315  11.325   9.172
14199SOL    HW144494   9.268  11.311   9.090
14199SOL    HW244495   9.362  11.242   9.187
14200SOL     OW44496   0.525  11.782  13.734
14200SOL    HW144497   0.508  11.875  13.726
14200SOL    HW244498   0.499  11.760  13.824
14201SOL     OW44499   3.524   1.349   5.898
14201SOL    HW144500   3.478   1.282   5.950
14201SOL    HW244501   3.555   1.302   5.820
14202SOL     OW44502   1.454   0.248   5.055
14202SOL    HW144503   1.446   0.157   5.027
14202SOL    HW244504   1.533   0.280   5.011
14203SOL     OW44505   8.011   4.915   4.159
14203SOL    HW144506   8.012   4.969   4.080
14203SOL    HW244507   7.918   4.894   4.173
14204SOL     OW44508   7.180   9.646   6.200
14204SOL    HW144509   7.194   9.607   6.286
14204SOL    HW244510   7.212   9.580   6.138
14205SOL     OW44511  10.766   0.648   6.632
14205SOL    HW144512  10.730   0.689   6.553
14205SOL    HW244513  10.808   0.719   6.679
14206SOL     OW44514   9.209  12.348  13.840
14206SOL    HW144515   9.290  12.311  13.805
14206SOL    HW244516   9.226  12.442  13.847
14207SOL     OW44517  13.492   3.183   0.167
14207SOL    HW144518  13.496   3.184   0.071
14207SOL    HW244519  13.429   3.115   0.188
14208SOL     OW44520   3.553  11.867  13.983
14208SOL    HW144521   3.493  11.805  14.025
14208SOL    HW244522   3.567  11.832  13.896
14209SOL     OW44523  10.802   7.059  11.545
14209SOL    HW144524  10.798   6.980  11.490
14209SOL    HW244525  10.762   7.031  11.628
14210SOL     OW44526  13.532   6.041   7.404
14210SOL    HW144527  13.484   5.967   7.365
14210SOL    HW244528  13.579   6.080   7.330
14211SOL     OW44529  11.686   0.495  12.659
14211SOL    HW144530  11.724   0.527  12.578
14211SOL    HW244531  11.754   0.509  12.725
14212SOL     OW44532  10.729   4.377   5.165
14212SOL    HW144533  10.815   4.337   5.156
14212SOL    HW244534  10.707   4.367   5.258
14213SOL     OW44535  11.292  12.012   4.425
14213SOL    HW144536  11.383  11.982   4.436
14213SOL    HW244537  11.275  12.002   4.331
14214SOL     OW44538   7.173  12.980   8.179
14214SOL    HW144539   7.125  12.991   8.097
14214SOL    HW244540   7.105  12.974   8.246
14215SOL     OW44541   0.175  13.704   9.818
14215SOL    HW144542   0.266  13.735   9.816
14215SOL    HW244543   0.123  13.782   9.800
14216SOL     OW44544   1.017  13.693   0.817
14216SOL    HW144545   0.970  13.630   0.872
14216SOL    HW244546   1.096  13.714   0.867
14217SOL     OW44547   7.179   1.884   0.106
14217SOL    HW144548   7.269   1.917   0.114
14217SOL    HW244549   7.189   1.789   0.099
14218SOL     OW44550   4.562   9.778   5.737
14218SOL    HW144551   4.644   9.730   5.741
14218SOL    HW244552   4.588   9.870   5.739
14219SOL     OW44553  10.089   2.263   8.092
14219SOL    HW144554  10.151   2.323   8.049
14219SOL    HW244555  10.105   2.178   8.051
14220SOL     OW44556  10.098  11.023   9.972
14220SOL    HW144557  10.137  11.097   9.924
14220SOL    HW244558  10.105  11.049  10.064
14221SOL     OW44559   6.497  14.530   8.796
14221SOL    HW144560   6.586  14.525   8.832
14221SOL    HW244561   6.448  14.463   8.845
14222SOL     OW44562   2.330   0.571   6.266
14222SOL    HW144563   2.346   0.639   6.201
14222SOL    HW244564   2.393   0.502   6.244
14223SOL     OW44565  11.133   9.874  14.120
14223SOL    HW144566  11.075   9.801  14.141
14223SOL    HW244567  11.083   9.927  14.058
14224SOL     OW44568   7.935   3.996   6.106
14224SOL    HW144569   7.903   4.085   6.094
14224SOL    HW244570   8.028   4.000   6.084
14225SOL     OW44571   5.820   6.210   0.075
14225SOL    HW144572   5.905   6.218   0.118
14225SOL    HW244573   5.832   6.254  14.878
14226SOL     OW44574   2.569   9.748   8.368
14226SOL    HW144575   2.572   9.818   8.433
14226SOL    HW244576   2.544   9.670   8.417
14227SOL     OW44577   0.288  13.506   6.219
14227SOL    HW144578   0.222  13.474   6.281
14227SOL    HW244579   0.328  13.581   6.264
14228SOL     OW44580  13.141  11.397   7.841
14228SOL    HW144581  13.193  11.410   7.762
14228SOL    HW244582  13.054  11.374   7.808
14229SOL     OW44583   5.317   5.871  13.644
14229SOL    HW144584   5.311   5.843  13.553
14229SOL    HW244585   5.235   5.843  13.684
14230SOL     OW44586  10.432   6.919  14.824
14230SOL    HW144587  10.388   6.835  14.815
14230SOL    HW244588  10.525   6.898  14.815
14231SOL     OW44589   8.834   0.027  10.416
14231SOL    HW144590   8.912  14.871  10.381
14231SOL    HW244591   8.795  14.850  10.476
14232SOL     OW44592   1.581   2.192   7.097
14232SOL    HW144593   1.514   2.156   7.154
14232SOL    HW244594   1.642   2.236   7.157
14233SOL     OW44595  10.105  12.647  11.927
14233SOL    HW144596  10.113  12.738  11.956
14233SOL    HW244597  10.179  12.635  11.867
14234SOL     OW44598   5.401   9.352  12.811
14234SOL    HW144599   5.450   9.356  12.894
14234SOL    HW244600   5.441   9.419  12.756
14235SOL     OW44601  11.280   8.599  14.721
14235SOL    HW144602  11.370   8.626  14.702
14235SOL    HW244603  11.256   8.647  14.800
14236SOL     OW44604   3.561  10.657   2.319
14236SOL    HW144605   3.565  10.579   2.375
14236SOL    HW244606   3.468  10.669   2.300
14237SOL     OW44607   4.621   1.343   4.150
14237SOL    HW144608   4.692   1.382   4.200
14237SOL    HW244609   4.626   1.249   4.168
14238SOL     OW44610  13.206   8.780   0.448
14238SOL    HW144611  13.254   8.719   0.393
14238SOL    HW244612  13.188   8.855   0.392
14239SOL     OW44613   4.728   3.205   5.986
14239SOL    HW144614   4.753   3.115   6.005
14239SOL    HW244615   4.785   3.259   6.041
14240SOL     OW44616   5.663   7.055   3.678
14240SOL    HW144617   5.607   6.996   3.627
14240SOL    HW244618   5.603   7.097   3.740
14241SOL     OW44619   0.348  10.229   9.602
14241SOL    HW144620   0.291  10.194   9.534
14241SOL    HW244621   0.289  10.276   9.661
14242SOL     OW44622   3.621  11.157   7.414
14242SOL    HW144623   3.626  11.065   7.441
14242SOL    HW244624   3.634  11.207   7.495
14243SOL     OW44625   2.220   7.053  11.451
14243SOL    HW144626   2.138   7.012  11.477
14243SOL    HW244627   2.217   7.056  11.355
14244SOL     OW44628   9.893  13.219   7.179
14244SOL    HW144629   9.821  13.279   7.162
14244SOL    HW244630   9.853  13.132   7.172
14245SOL     OW44631   7.594  13.980  14.436
14245SOL    HW144632   7.515  13.943  14.474
14245SOL    HW244633   7.563  14.052  14.381
14246SOL     OW44634   7.869  13.075   2.686
14246SOL    HW144635   7.837  13.164   2.699
14246SOL    HW244636   7.964  13.084   2.679
14247SOL     OW44637   7.888   8.033   4.882
14247SOL    HW144638   7.850   8.087   4.813
14247SOL    HW244639   7.906   8.094   4.953
14248SOL     OW44640   6.136  10.918   1.716
14248SOL    HW144641   6.188  10.846   1.753
14248SOL    HW244642   6.096  10.880   1.638
14249SOL     OW44643   8.228   0.377   1.169
14249SOL    HW144644   8.149   0.391   1.117
14249SOL    HW244645   8.228   0.449   1.232
14250SOL     OW44646   1.212  11.680   7.524
14250SOL    HW144647   1.140  11.646   7.471
14250SOL    HW244648   1.193  11.773   7.534
14251SOL     OW44649   9.556   5.155  11.595
14251SOL    HW144650   9.619   5.196  11.535
14251SOL    HW244651   9.578   5.062  11.594
14252SOL     OW44652   0.971   5.599   0.460
14252SOL    HW144653   0.883   5.561   0.449
14252SOL    HW244654   1.029   5.538   0.415
14253SOL     OW44655   3.126   9.426   2.531
14253SOL    HW144656   3.097   9.478   2.606
14253SOL    HW244657   3.117   9.484   2.456
14254SOL     OW44658  13.428  12.821  11.260
14254SOL    HW144659  13.388  12.848  11.177
14254SOL    HW244660  13.510  12.779  11.235
14255SOL     OW44661   3.800  12.669   1.075
14255SOL    HW144662   3.885  12.699   1.045
14255SOL    HW244663   3.742  12.682   1.000
14256SOL     OW44664   2.927   0.317   1.816
14256SOL    HW144665   2.971   0.266   1.884
14256SOL    HW244666   2.920   0.256   1.742
14257SOL     OW44667  13.295   7.129  13.121
14257SOL    HW144668  13.327   7.150  13.209
14257SOL    HW244669  13.200   7.139  13.128
14258SOL     OW44670   0.705   2.956   1.112
14258SOL    HW144671   0.644   2.985   1.180
14258SOL    HW244672   0.734   2.870   1.142
14259SOL     OW44673   3.409   4.132   5.282
14259SOL    HW144674   3.362   4.102   5.204
14259SOL    HW244675   3.342   4.174   5.336
14260SOL     OW44676  11.971   1.617   9.065
14260SOL    HW144677  11.994   1.687   9.005
14260SOL    HW244678  11.966   1.659   9.151
14261SOL     OW44679   1.286   6.200   8.805
14261SOL    HW144680   1.194   6.225   8.793
14261SOL    HW244681   1.325   6.211   8.718
14262SOL     OW44682   9.981   0.218   6.863
14262SOL    HW144683  10.008   0.165   6.788
14262SOL    HW244684  10.050   0.203   6.929
14263SOL     OW44685   8.344   6.150   7.616
14263SOL    HW144686   8.400   6.098   7.674
14263SOL    HW244687   8.405   6.190   7.553
14264SOL     OW44688   3.177  12.822   2.541
14264SOL    HW144689   3.214  12.751   2.490
14264SOL    HW244690   3.104  12.783   2.588
14265SOL     OW44691  12.101   3.875   8.456
14265SOL    HW144692  12.014   3.892   8.494
14265SOL    HW244693  12.117   3.950   8.399
14266SOL     OW44694   6.160  13.923   2.215
14266SOL    HW144695   6.088  13.958   2.267
14266SOL    HW244696   6.120  13.856   2.160
14267SOL     OW44697   6.183  13.144   7.174
14267SOL    HW144698   6.250  13.121   7.110
14267SOL    HW244699   6.101  13.115   7.134
14268SOL     OW44700  11.060  11.870  13.495
14268SOL    HW144701  11.109  11.788  13.496
14268SOL    HW244702  10.970  11.843  13.476
14269SOL     OW44703   5.775  10.323   6.019
14269SOL    HW144704   5.729  10.391   5.969
14269SOL    HW244705   5.777  10.247   5.961
14270SOL     OW44706   7.547   0.727  11.228
14270SOL    HW144707   7.538   0.789  11.301
14270SOL    HW244708   7.639   0.701  11.229
14271SOL     OW44709   7.920   6.819  14.158
14271SOL    HW144710   7.964   6.850  14.237
14271SOL    HW244711   7.950   6.729  14.148
14272SOL     OW44712   8.636   6.719   0.221
14272SOL    HW144713   8.624   6.624   0.232
14272SOL    HW244714   8.659   6.751   0.308
14273SOL     OW44715   3.195   2.892   0.185
14273SOL    HW144716   3.127   2.904   0.118
14273SOL    HW244717   3.181   2.802   0.217
14274SOL     OW44718   8.845   0.011   4.581
14274SOL    HW144719   8.840   0.105   4.563
14274SOL    HW244720   8.814   0.002   4.671
14275SOL     OW44721   7.215  13.559   6.272
14275SOL    HW144722   7.308  13.579   6.272
14275SOL    HW244723   7.196  13.531   6.183
14276SOL     OW44724   3.505   2.557  11.955
14276SOL    HW144725   3.421   2.556  12.001
14276SOL    HW244726   3.499   2.483  11.894
14277SOL     OW44727   3.871   6.314   1.985
14277SOL    HW144728   3.875   6.234   2.039
14277SOL    HW244729   3.836   6.380   2.044
14278SOL     OW44730   6.365  11.858  11.952
14278SOL    HW144731   6.365  11.772  11.994
14278SOL    HW244732   6.278  11.865  11.912
14279SOL     OW44733   6.546   9.836   7.545
14279SOL    HW144734   6.530   9.928   7.525
14279SOL    HW244735   6.628   9.816   7.500
14280SOL     OW44736  13.390   3.179  11.039
14280SOL    HW144737  13.329   3.110  11.013
14280SOL    HW244738  13.430   3.147  11.120
14281SOL     OW44739   6.475   2.879   1.402
14281SOL    HW144740   6.545   2.871   1.337
14281SOL    HW244741   6.515   2.929   1.473
14282SOL     OW44742  14.761  14.358  11.220
14282SOL    HW144743  14.826  14.292  11.244
14282SOL    HW244744  14.781  14.378  11.128
14283SOL     OW44745   1.876   6.685  12.324
14283SOL    HW144746   1.900   6.770  12.363
14283SOL    HW244747   1.783   6.675  12.344
14284SOL     OW44748   7.307   2.031   9.989
14284SOL    HW144749   7.393   2.024   9.948
14284SOL    HW244750   7.252   1.970   9.939
14285SOL     OW44751   6.738   2.743  10.569
14285SOL    HW144752   6.816   2.762  10.517
14285SOL    HW244753   6.770   2.697  10.646
14286SOL     OW44754  11.788  12.018  10.417
14286SOL    HW144755  11.878  12.041  10.393
14286SOL    HW244756  11.734  12.081  10.369
14287SOL     OW44757  11.880   3.381   0.205
14287SOL    HW144758  11.789   3.377   0.234
14287SOL    HW244759  11.909   3.468   0.229
14288SOL     OW44760   5.210   1.976   4.799
14288SOL    HW144761   5.141   2.014   4.744
14288SOL    HW244762   5.263   1.924   4.738
14289SOL     OW44763   3.218   0.998   2.648
14289SOL    HW144764   3.249   0.962   2.731
14289SOL    HW244765   3.218   1.093   2.661
14290SOL     OW44766  11.536   2.376   2.340
14290SOL    HW144767  11.541   2.442   2.270
14290SOL    HW244768  11.457   2.398   2.389
14291SOL     OW44769  10.910  10.122   7.474
14291SOL    HW144770  10.946  10.043   7.516
14291SOL    HW244771  10.981  10.154   7.419
14292SOL     OW44772   0.867  13.064   0.226
14292SOL    HW144773   0.806  13.109   0.167
14292SOL    HW244774   0.827  13.072   0.313
14293SOL     OW44775   1.660   2.158   3.097
14293SOL    HW144776   1.592   2.224   3.081
14293SOL    HW244777   1.622   2.102   3.165
14294SOL     OW44778   1.664   2.525  14.659
14294SOL    HW144779   1.622   2.442  14.680
14294SOL    HW244780   1.726   2.539  14.731
14295SOL     OW44781   7.471  12.718   1.062
14295SOL    HW144782   7.424  12.775   1.001
14295SOL    HW244783   7.562  12.745   1.055
14296SOL     OW44784   6.568  12.873  12.592
14296SOL    HW144785   6.484  12.911  12.618
14296SOL    HW244786   6.610  12.849  12.675
14297SOL     OW44787   5.982   4.170   9.272
14297SOL    HW144788   5.919   4.173   9.344
14297SOL    HW244789   5.950   4.237   9.210
14298SOL     OW44790  10.389  14.865  12.002
14298SOL    HW144791  10.463   0.034  11.981
14298SOL    HW244792  10.312   0.031  11.984
14299SOL     OW44793  12.406  11.904   0.170
14299SOL    HW144794  12.337  11.846   0.140
14299SOL    HW244795  12.361  11.964   0.230
14300SOL     OW44796  10.408  11.759   2.547
14300SOL    HW144797  10.436  11.807   2.625
14300SOL    HW244798  10.352  11.820   2.499
14301SOL     OW44799  13.237  11.268   5.758
14301SOL    HW144800  13.175  11.244   5.689
14301SOL    HW244801  13.183  11.290   5.834
14302SOL     OW44802   0.547   7.527   4.270
14302SOL    HW144803   0.509   7.520   4.358
14302SOL    HW244804   0.640   7.508   4.282
14303SOL     OW44805   2.687  14.349   4.435
14303SOL    HW144806   2.690  14.393   4.350
14303SOL    HW244807   2.594  14.340   4.455
14304SOL     OW44808   8.787  12.006  13.095
14304SOL    HW144809   8.854  12.041  13.153
14304SOL    HW244810   8.705  12.021  13.141
14305SOL     OW44811  11.475  13.383   9.918
14305SOL    HW144812  11.570  13.374   9.920
14305SOL    HW244813  11.452  13.424  10.002
14306SOL     OW44814   8.147  13.189   3.765
14306SOL    HW144815   8.113  13.141   3.840
14306SOL    HW244816   8.107  13.146   3.689
14307SOL     OW44817   1.694   8.131   8.344
14307SOL    HW144818   1.779   8.139   8.301
14307SOL    HW244819   1.635   8.099   8.275
14308SOL     OW44820   2.070  13.566  14.637
14308SOL    HW144821   2.163  13.572  14.619
14308SOL    HW244822   2.031  13.539  14.553
14309SOL     OW44823   4.506   7.134   0.577
14309SOL    HW144824   4.591   7.091   0.587
14309SOL    HW244825   4.526   7.227   0.575
14310SOL     OW44826   5.616   1.015  11.486
14310SOL    HW144827   5.605   0.995  11.393
14310SOL    HW244828   5.668   0.942  11.520
14311SOL     OW44829   3.216   8.254   5.836
14311SOL    HW144830   3.269   8.180   5.865
14311SOL    HW244831   3.229   8.320   5.904
14312SOL     OW44832   4.353   0.246   1.727
14312SOL    HW144833   4.415   0.187   1.771
14312SOL    HW244834   4.270   0.197   1.727
14313SOL     OW44835  11.800   0.795   8.532
14313SOL    HW144836  11.712   0.760   8.517
14313SOL    HW244837  11.856   0.717   8.540
14314SOL     OW44838   7.402   6.651   5.939
14314SOL    HW144839   7.393   6.593   6.015
14314SOL    HW244840   7.461   6.720   5.968
14315SOL     OW44841  13.229   1.438   3.197
14315SOL    HW144842  13.310   1.399   3.230
14315SOL    HW244843  13.197   1.491   3.271
14316SOL     OW44844   3.690   4.924  12.270
14316SOL    HW144845   3.627   4.943  12.201
14316SOL    HW244846   3.760   4.877  12.226
14317SOL     OW44847   0.446  11.599  12.362
14317SOL    HW144848   0.458  11.511  12.397
14317SOL    HW244849   0.437  11.655  12.440
14318SOL     OW44850   6.902   7.228   1.094
14318SOL    HW144851   6.939   7.145   1.125
14318SOL    HW244852   6.906   7.286   1.170
14319SOL     OW44853   8.036   4.718  12.136
14319SOL    HW144854   8.078   4.632  12.135
14319SOL    HW244855   7.954   4.705  12.088
14320SOL     OW44856  14.618   1.940   9.898
14320SOL    HW144857  14.623   2.017   9.842
14320SOL    HW244858  14.664   1.872   9.848
14321SOL     OW44859   1.817  13.386   8.032
14321SOL    HW144860   1.765  13.306   8.030
14321SOL    HW244861   1.881  13.372   8.102
14322SOL     OW44862   5.481   6.623   3.289
14322SOL    HW144863   5.407   6.604   3.347
14322SOL    HW244864   5.457   6.583   3.206
14323SOL     OW44865  14.601   0.733   8.890
14323SOL    HW144866  14.626   0.648   8.925
14323SOL    HW244867  14.672   0.756   8.830
14324SOL     OW44868   7.127   1.371   2.678
14324SOL    HW144869   7.152   1.282   2.654
14324SOL    HW244870   7.034   1.377   2.655
14325SOL     OW44871   0.507   6.924  12.611
14325SOL    HW144872   0.458   6.855  12.657
14325SOL    HW244873   0.519   6.890  12.523
14326SOL     OW44874   6.919   3.062   2.187
14326SOL    HW144875   6.869   2.985   2.161
14326SOL    HW244876   6.859   3.112   2.243
14327SOL     OW44877  13.441   7.184  11.588
14327SOL    HW144878  13.345   7.184  11.583
14327SOL    HW244879  13.470   7.210  11.501
14328SOL     OW44880   9.366   3.603   3.129
14328SOL    HW144881   9.349   3.583   3.221
14328SOL    HW244882   9.286   3.579   3.084
14329SOL     OW44883  10.847  12.297   5.096
14329SOL    HW144884  10.921  12.342   5.053
14329SOL    HW244885  10.802  12.366   5.144
14330SOL     OW44886   4.808   6.259  10.988
14330SOL    HW144887   4.766   6.208  10.918
14330SOL    HW244888   4.898   6.273  10.956
14331SOL     OW44889   3.010   8.759   9.830
14331SOL    HW144890   3.035   8.852   9.825
14331SOL    HW244891   2.983   8.747   9.921
14332SOL     OW44892   3.193   2.793   1.493
14332SOL    HW144893   3.203   2.711   1.540
14332SOL    HW244894   3.259   2.789   1.423
14333SOL     OW44895   5.723   1.634   2.913
14333SOL    HW144896   5.795   1.668   2.966
14333SOL    HW244897   5.740   1.540   2.907
14334SOL     OW44898   3.497  12.253   4.008
14334SOL    HW144899   3.410  12.280   3.979
14334SOL    HW244900   3.522  12.183   3.948
14335SOL     OW44901   1.840  12.139  13.897
14335SOL    HW144902   1.865  12.053  13.861
14335SOL    HW244903   1.870  12.136  13.988
14336SOL     OW44904  14.540   9.677  14.227
14336SOL    HW144905  14.529   9.761  14.272
14336SOL    HW244906  14.628   9.648  14.251
14337SOL     OW44907  13.774   9.197   3.131
14337SOL    HW144908  13.735   9.111   3.120
14337SOL    HW244909  13.856   9.194   3.082
14338SOL     OW44910   9.249  14.454   2.539
14338SOL    HW144911   9.339  14.425   2.527
14338SOL    HW244912   9.196  14.377   2.521
14339SOL     OW44913   3.882  10.830   5.362
14339SOL    HW144914   3.970  10.811   5.329
14339SOL    HW244915   3.831  10.852   5.284
14340SOL     OW44916   2.548   4.690  14.587
14340SOL    HW144917   2.547   4.720  14.678
14340SOL    HW244918   2.641   4.678  14.567
14341SOL     OW44919  12.070  12.730  12.020
14341SOL    HW144920  12.026  12.799  12.069
14341SOL    HW244921  12.084  12.660  12.084
14342SOL     OW44922  11.358  14.409   4.634
14342SOL    HW144923  11.263  14.407   4.646
14342SOL    HW244924  11.385  14.494   4.669
14343SOL     OW44925   5.263   2.397  13.558
14343SOL    HW144926   5.242   2.414  13.650
14343SOL    HW244927   5.313   2.475  13.531
14344SOL     OW44928  12.298   1.283  10.038
14344SOL    HW144929  12.207   1.287  10.068
14344SOL    HW244930  12.293   1.290   9.943
14345SOL     OW44931  12.030   0.783  14.618
14345SOL    HW144932  12.022   0.691  14.596
14345SOL    HW244933  12.038   0.828  14.534
14346SOL     OW44934   5.381   1.987   7.642
14346SOL    HW144935   5.380   2.054   7.710
14346SOL    HW244936   5.352   1.907   7.685
14347SOL     OW44937   8.598  12.519   3.891
14347SOL    HW144938   8.612  12.578   3.817
14347SOL    HW244939   8.662  12.449   3.878
14348SOL     OW44940   0.836   7.206  10.461
14348SOL    HW144941   0.779   7.147  10.511
14348SOL    HW244942   0.850   7.281  10.519
14349SOL     OW44943   6.037   8.502   8.546
14349SOL    HW144944   6.050   8.415   8.585
14349SOL    HW244945   6.077   8.563   8.608
14350SOL     OW44946  11.370   5.203   3.780
14350SOL    HW144947  11.296   5.186   3.722
14350SOL    HW244948  11.379   5.123   3.831
14351SOL     OW44949   3.182  11.668   9.414
14351SOL    HW144950   3.253  11.631   9.361
14351SOL    HW244951   3.129  11.718   9.351
14352SOL     OW44952   0.109  10.402  10.836
14352SOL    HW144953   0.025  10.362  10.813
14352SOL    HW244954   0.131  10.457  10.761
14353SOL     OW44955  12.394  10.039   9.521
14353SOL    HW144956  12.372  10.090   9.599
14353SOL    HW244957  12.319  10.049   9.463
14354SOL     OW44958  12.325   0.170   5.263
14354SOL    HW144959  12.356   0.085   5.293
14354SOL    HW244960  12.367   0.233   5.323
14355SOL     OW44961  14.017   6.316  13.692
14355SOL    HW144962  14.092   6.375  13.685
14355SOL    HW244963  13.974   6.341  13.774
14356SOL     OW44964   1.859   1.868   4.440
14356SOL    HW144965   1.918   1.821   4.499
14356SOL    HW244966   1.885   1.960   4.449
14357SOL     OW44967  12.390  14.365  12.941
14357SOL    HW144968  12.439  14.295  12.984
14357SOL    HW244969  12.308  14.370  12.989
14358SOL     OW44970   9.572   4.147   5.267
14358SOL    HW144971   9.520   4.087   5.215
14358SOL    HW244972   9.593   4.098   5.347
14359SOL     OW44973  11.771   9.323  10.684
14359SOL    HW144974  11.818   9.250  10.645
14359SOL    HW244975  11.680   9.292  10.691
14360SOL     OW44976  13.822   8.540   0.052
14360SOL    HW144977  13.881   8.585   0.113
14360SOL    HW244978  13.787   8.611  14.885
14361SOL     OW44979   1.260   0.079  10.816
14361SOL    HW144980   1.261  14.877  10.782
14361SOL    HW244981   1.318   0.128  10.757
14362SOL     OW44982  13.756   5.789  11.382
14362SOL    HW144983  13.840   5.809  11.422
14362SOL    HW244984  13.691   5.818  11.446
14363SOL     OW44985   7.385   0.671   2.340
14363SOL    HW144986   7.470   0.634   2.362
14363SOL    HW244987   7.344   0.689   2.425
14364SOL     OW44988   8.801   6.331   0.348
14364SOL    HW144989   8.851   6.287   0.279
14364SOL    HW244990   8.810   6.274   0.424
14365SOL     OW44991   9.621  11.006   4.204
14365SOL    HW144992   9.589  11.096   4.203
14365SOL    HW244993   9.608  10.977   4.295
14366SOL     OW44994  13.110  14.629  13.618
14366SOL    HW144995  13.028  14.674  13.636
14366SOL    HW244996  13.084  14.545  13.581
14367SOL     OW44997   0.744   1.131   2.058
14367SOL    HW144998   0.652   1.152   2.073
14367SOL    HW244999   0.748   1.035   2.066
14368SOL     OW45000   9.631  14.369  14.863
14368SOL    HW145001   9.700  14.331   0.030
14368SOL    HW245002   9.642  14.328  14.778
14369SOL     OW45003   9.423   0.766   2.391
14369SOL    HW145004   9.469   0.683   2.378
14369SOL    HW245005   9.367   0.775   2.314
14370SOL     OW45006  11.780  13.647   9.575
14370SOL    HW145007  11.808  13.736   9.597
14370SOL    HW245008  11.697  13.658   9.529
14371SOL     OW45009   6.928  11.506   9.832
14371SOL    HW145010   6.945  11.442   9.763
14371SOL    HW245011   6.966  11.587   9.798
14372SOL     OW45012  12.824   5.275   5.173
14372SOL    HW145013  12.896   5.330   5.143
14372SOL    HW245014  12.749   5.304   5.122
14373SOL     OW45015  12.692  13.849   1.051
14373SOL    HW145016  12.713  13.835   0.959
14373SOL    HW245017  12.748  13.921   1.078
14374SOL     OW45018   4.319   5.726   5.950
14374SOL    HW145019   4.412   5.728   5.931
14374SOL    HW245020   4.276   5.737   5.865
14375SOL     OW45021   4.551  12.654   8.470
14375SOL    HW145022   4.503  12.688   8.394
14375SOL    HW245023   4.581  12.732   8.516
14376SOL     OW45024   9.515   2.662   8.119
14376SOL    HW145025   9.600   2.643   8.080
14376SOL    HW245026   9.527   2.747   8.162
14377SOL     OW45027   9.058   1.488   9.631
14377SOL    HW145028   8.973   1.453   9.662
14377SOL    HW245029   9.051   1.488   9.536
14378SOL     OW45030   8.040   0.002  10.153
14378SOL    HW145031   8.052   0.090  10.188
14378SOL    HW245032   8.008   0.015  10.064
14379SOL     OW45033   2.727   9.574   3.867
14379SOL    HW145034   2.674   9.517   3.923
14379SOL    HW245035   2.739   9.525   3.786
14380SOL     OW45036  12.679  11.272   3.987
14380SOL    HW145037  12.684  11.264   3.891
14380SOL    HW245038  12.720  11.356   4.006
14381SOL     OW45039   9.047  11.406   4.701
14381SOL    HW145040   9.002  11.355   4.633
14381SOL    HW245041   8.994  11.485   4.711
14382SOL     OW45042  13.231   8.500   7.636
14382SOL    HW145043  13.297   8.447   7.591
14382SOL    HW245044  13.149   8.454   7.620
14383SOL     OW45045  12.781   3.188   1.741
14383SOL    HW145046  12.805   3.189   1.648
14383SOL    HW245047  12.727   3.110   1.751
14384SOL     OW45048   6.356   1.015   9.181
14384SOL    HW145049   6.276   1.020   9.128
14384SOL    HW245050   6.368   1.104   9.215
14385SOL     OW45051   4.581   3.389   4.433
14385SOL    HW145052   4.529   3.340   4.369
14385SOL    HW245053   4.644   3.438   4.379
14386SOL     OW45054   2.465   9.736   8.785
14386SOL    HW145055   2.373   9.709   8.786
14386SOL    HW245056   2.481   9.768   8.873
14387SOL     OW45057  10.069  13.976   5.757
14387SOL    HW145058   9.986  13.959   5.713
14387SOL    HW245059  10.136  13.936   5.701
14388SOL     OW45060   0.229  11.479   7.193
14388SOL    HW145061   0.217  11.573   7.210
14388SOL    HW245062   0.318  11.461   7.222
14389SOL     OW45063  12.699  11.891   2.469
14389SOL    HW145064  12.740  11.866   2.551
14389SOL    HW245065  12.698  11.987   2.470
14390SOL     OW45066   2.526   6.932   6.331
14390SOL    HW145067   2.500   7.020   6.359
14390SOL    HW245068   2.528   6.881   6.412
14391SOL     OW45069   6.606   1.303   2.300
14391SOL    HW145070   6.604   1.252   2.219
14391SOL    HW245071   6.613   1.394   2.272
14392SOL     OW45072   3.276   7.273  13.765
14392SOL    HW145073   3.347   7.334  13.783
14392SOL    HW245074   3.309   7.218  13.694
14393SOL     OW45075  14.065  12.247  12.959
14393SOL    HW145076  13.973  12.261  12.935
14393SOL    HW245077  14.065  12.249  13.055
14394SOL     OW45078  13.559   0.264   8.899
14394SOL    HW145079  13.587   0.270   8.991
14394SOL    HW245080  13.535   0.353   8.876
14395SOL     OW45081   2.308   3.452   0.726
14395SOL    HW145082   2.399   3.467   0.751
14395SOL    HW245083   2.264   3.429   0.808
14396SOL     OW45084   9.447   6.121   2.086
14396SOL    HW145085   9.430   6.193   2.148
14396SOL    HW245086   9.365   6.110   2.039
14397SOL     OW45087   1.043   0.179   1.968
14397SOL    HW145088   0.964   0.139   2.005
14397SOL    HW245089   1.077   0.114   1.907
14398SOL     OW45090   1.060   4.125   9.842
14398SOL    HW145091   0.972   4.153   9.870
14398SOL    HW245092   1.120   4.179   9.893
14399SOL     OW45093  13.191  10.097   4.721
14399SOL    HW145094  13.234  10.123   4.802
14399SOL    HW245095  13.127  10.166   4.705
14400SOL     OW45096   4.062   4.136   0.551
14400SOL    HW145097   4.114   4.060   0.526
14400SOL    HW245098   3.976   4.100   0.574
14401SOL     OW45099   9.927  11.890   0.250
14401SOL    HW145100   9.857  11.943   0.213
14401SOL    HW245101   9.919  11.805   0.207
14402SOL     OW45102   6.412   1.481   0.015
14402SOL    HW145103   6.432   1.462  14.811
14402SOL    HW245104   6.402   1.396   0.057
14403SOL     OW45105   4.974   5.527   6.634
14403SOL    HW145106   4.947   5.582   6.708
14403SOL    HW245107   5.032   5.462   6.672
14404SOL     OW45108  13.801  13.928   5.917
14404SOL    HW145109  13.893  13.942   5.944
14404SOL    HW245110  13.775  14.012   5.879
14405SOL     OW45111   3.151  10.201   4.640
14405SOL    HW145112   3.166  10.250   4.721
14405SOL    HW245113   3.091  10.130   4.665
14406SOL     OW45114   7.564   8.363   3.466
14406SOL    HW145115   7.656   8.374   3.443
14406SOL    HW245116   7.552   8.419   3.542
14407SOL     OW45117   5.205   6.627  10.247
14407SOL    HW145118   5.113   6.644  10.223
14407SOL    HW245119   5.233   6.560  10.185
14408SOL     OW45120   2.987  11.207  14.731
14408SOL    HW145121   2.997  11.218  14.637
14408SOL    HW245122   3.066  11.245  14.768
14409SOL     OW45123   9.543   4.470  13.089
14409SOL    HW145124   9.614   4.524  13.124
14409SOL    HW245125   9.582   4.383  13.077
14410SOL     OW45126   9.971   2.036  12.432
14410SOL    HW145127   9.972   1.940  12.431
14410SOL    HW245128  10.024   2.061  12.356
14411SOL     OW45129  14.395   8.394   9.208
14411SOL    HW145130  14.416   8.305   9.237
14411SOL    HW245131  14.331   8.381   9.139
14412SOL     OW45132   0.395   8.015  11.847
14412SOL    HW145133   0.411   8.100  11.888
14412SOL    HW245134   0.347   8.036  11.767
14413SOL     OW45135   7.656  14.833   8.341
14413SOL    HW145136   7.619   0.031   8.364
14413SOL    HW245137   7.612  14.808   8.260
14414SOL     OW45138   2.045   0.137   1.311
14414SOL    HW145139   2.025   0.049   1.280
14414SOL    HW245140   2.061   0.128   1.404
14415SOL     OW45141   4.366   0.506   6.493
14415SOL    HW145142   4.363   0.520   6.398
14415SOL    HW245143   4.284   0.544   6.525
14416SOL     OW45144   4.464   1.561   2.675
14416SOL    HW145145   4.476   1.656   2.685
14416SOL    HW245146   4.399   1.538   2.741
14417SOL     OW45147   6.164  11.314   5.364
14417SOL    HW145148   6.160  11.398   5.409
14417SOL    HW245149   6.078  11.274   5.379
14418SOL     OW45150   8.128  12.680  12.291
14418SOL    HW145151   8.080  12.650  12.368
14418SOL    HW245152   8.100  12.621  12.221
14419SOL     OW45153   0.913   7.109   2.500
14419SOL    HW145154   0.819   7.114   2.517
14419SOL    HW245155   0.924   7.154   2.416
14420SOL     OW45156  11.133  14.175   1.467
14420SOL    HW145157  11.125  14.168   1.372
14420SOL    HW245158  11.109  14.089   1.500
14421SOL     OW45159   6.882  13.549  11.836
14421SOL    HW145160   6.850  13.527  11.923
14421SOL    HW245161   6.957  13.490  11.822
14422SOL     OW45162   9.282   5.893  10.604
14422SOL    HW145163   9.259   5.968  10.657
14422SOL    HW245164   9.378   5.891  10.604
14423SOL     OW45165  10.012   4.530   9.087
14423SOL    HW145166   9.934   4.476   9.101
14423SOL    HW245167  10.035   4.562   9.174
14424SOL     OW45168   5.090   1.438  10.965
14424SOL    HW145169   5.005   1.458  11.004
14424SOL    HW245170   5.103   1.508  10.901
14425SOL     OW45171   6.653   9.410   2.228
14425SOL    HW145172   6.639   9.351   2.302
14425SOL    HW245173   6.583   9.388   2.166
14426SOL     OW45174   1.705  14.192   4.405
14426SOL    HW145175   1.747  14.130   4.466
14426SOL    HW245176   1.637  14.234   4.458
14427SOL     OW45177   1.215   2.218   4.343
14427SOL    HW145178   1.252   2.273   4.274
14427SOL    HW245179   1.208   2.276   4.419
14428SOL     OW45180   9.894  14.291   3.423
14428SOL    HW145181   9.808  14.309   3.462
14428SOL    HW245182   9.941  14.373   3.430
14429SOL     OW45183  10.505  14.516   3.302
14429SOL    HW145184  10.553  14.598   3.313
14429SOL    HW245185  10.553  14.469   3.234
14430SOL     OW45186  11.232  11.399   6.109
14430SOL    HW145187  11.167  11.338   6.144
14430SOL    HW245188  11.282  11.426   6.186
14431SOL     OW45189  10.826  12.268   1.538
14431SOL    HW145190  10.748  12.217   1.514
14431SOL    HW245191  10.792  12.343   1.586
14432SOL     OW45192  14.858   0.071   5.235
14432SOL    HW145193   0.055   0.053   5.193
14432SOL    HW245194  14.808   0.120   5.169
14433SOL     OW45195  14.172   6.023   9.104
14433SOL    HW145196  14.237   6.064   9.047
14433SOL    HW245197  14.087   6.053   9.070
14434SOL     OW45198  14.163   6.417  13.417
14434SOL    HW145199  14.217   6.355  13.368
14434SOL    HW245200  14.225   6.480  13.454
14435SOL     OW45201  14.556   9.690  11.621
14435SOL    HW145202  14.542   9.708  11.714
14435SOL    HW245203  14.594   9.602  11.620
14436SOL     OW45204  14.767   2.253   1.097
14436SOL    HW145205  14.686   2.250   1.046
14436SOL    HW245206  14.813   2.330   1.064
14437SOL     OW45207   2.701  10.630   1.115
14437SOL    HW145208   2.756  10.578   1.055
14437SOL    HW245209   2.757  10.702   1.142
14438SOL     OW45210  11.515   3.197   9.482
14438SOL    HW145211  11.583   3.260   9.507
14438SOL    HW245212  11.440   3.219   9.539
14439SOL     OW45213   4.314   9.077   0.311
14439SOL    HW145214   4.341   9.029   0.389
14439SOL    HW245215   4.284   9.009   0.250
14440SOL     OW45216   3.842  14.151   2.114
14440SOL    HW145217   3.769  14.205   2.085
14440SOL    HW245218   3.807  14.061   2.112
14441SOL     OW45219  11.010   4.889   6.424
14441SOL    HW145220  10.930   4.836   6.430
14441SOL    HW245221  10.993   4.950   6.353
14442SOL     OW45222   5.800   5.377  11.333
14442SOL    HW145223   5.774   5.286  11.350
14442SOL    HW245224   5.895   5.372  11.321
14443SOL     OW45225   1.160   7.704   1.720
14443SOL    HW145226   1.068   7.681   1.720
14443SOL    HW245227   1.203   7.633   1.671
14444SOL     OW45228   9.245   3.155   6.594
14444SOL    HW145229   9.250   3.237   6.642
14444SOL    HW245230   9.155   3.125   6.607
14445SOL     OW45231   1.911   7.752  13.473
14445SOL    HW145232   1.995   7.787  13.444
14445SOL    HW245233   1.851   7.827  13.466
14446SOL     OW45234   0.219   7.139   1.337
14446SOL    HW145235   0.150   7.188   1.383
14446SOL    HW245236   0.234   7.188   1.256
14447SOL     OW45237  14.112   4.634   9.252
14447SOL    HW145238  14.164   4.693   9.198
14447SOL    HW245239  14.040   4.688   9.284
14448SOL     OW45240   5.888  12.432   3.733
14448SOL    HW145241   5.929  12.364   3.680
14448SOL    HW245242   5.872  12.389   3.818
14449SOL     OW45243  11.123   7.990  11.962
14449SOL    HW145244  11.127   8.058  12.030
14449SOL    HW245245  11.142   7.909  12.009
14450SOL     OW45246  14.110   9.951  13.152
14450SOL    HW145247  14.125   9.995  13.068
14450SOL    HW245248  14.157  10.004  13.215
14451SOL     OW45249  13.218  13.492  10.025
14451SOL    HW145250  13.253  13.512   9.938
14451SOL    HW245251  13.178  13.574  10.053
14452SOL     OW45252   5.789   6.488   3.773
14452SOL    HW145253   5.857   6.554   3.761
14452SOL    HW245254   5.800   6.460   3.864
14453SOL     OW45255   4.836  11.104   7.524
14453SOL    HW145256   4.741  11.099   7.515
14453SOL    HW245257   4.851  11.162   7.598
14454SOL     OW45258   2.777   6.511   9.619
14454SOL    HW145259   2.868   6.531   9.641
14454SOL    HW245260   2.781   6.475   9.531
14455SOL     OW45261  13.322   8.106   9.578
14455SOL    HW145262  13.234   8.098   9.615
14455SOL    HW245263  13.347   8.197   9.596
14456SOL     OW45264  10.964   9.075  14.577
14456SOL    HW145265  10.995   9.041  14.661
14456SOL    HW245266  11.016   9.028  14.512
14457SOL     OW45267  14.046  10.297   1.367
14457SOL    HW145268  13.976  10.362   1.354
14457SOL    HW245269  14.021  10.251   1.447
14458SOL     OW45270   7.237   8.354  11.757
14458SOL    HW145271   7.277   8.303  11.827
14458SOL    HW245272   7.143   8.337  11.765
14459SOL     OW45273  12.934  10.992   6.003
14459SOL    HW145274  12.895  11.078   5.987
14459SOL    HW245275  12.894  10.935   5.937
14460SOL     OW45276  14.555   2.296   3.380
14460SOL    HW145277  14.473   2.249   3.367
14460SOL    HW245278  14.614   2.260   3.314
14461SOL     OW45279   8.601   1.790  12.220
14461SOL    HW145280   8.554   1.854  12.273
14461SOL    HW245281   8.567   1.803  12.132
14462SOL     OW45282   9.785   9.430   9.623
14462SOL    HW145283   9.764   9.347   9.666
14462SOL    HW245284   9.861   9.410   9.569
14463SOL     OW45285   0.868   2.589   0.791
14463SOL    HW145286   0.773   2.591   0.780
14463SOL    HW245287   0.883   2.602   0.884
14464SOL     OW45288   0.572   5.042   1.125
14464SOL    HW145289   0.636   5.059   1.056
14464SOL    HW245290   0.539   5.129   1.148
14465SOL     OW45291  10.431   4.302  10.910
14465SOL    HW145292  10.431   4.216  10.868
14465SOL    HW245293  10.338   4.324  10.919
14466SOL     OW45294   4.591  12.651   2.062
14466SOL    HW145295   4.658  12.679   2.000
14466SOL    HW245296   4.617  12.693   2.145
14467SOL     OW45297   2.354   9.112   8.111
14467SOL    HW145298   2.356   9.174   8.183
14467SOL    HW245299   2.265   9.118   8.076
14468SOL     OW45300   9.799   0.265  13.906
14468SOL    HW145301   9.887   0.236  13.881
14468SOL    HW245302   9.813   0.321  13.982
14469SOL     OW45303   2.286   7.917   9.727
14469SOL    HW145304   2.207   7.947   9.682
14469SOL    HW245305   2.286   7.965   9.810
14470SOL     OW45306   3.970  11.616  12.714
14470SOL    HW145307   4.038  11.684  12.725
14470SOL    HW245308   3.913  11.650  12.645
14471SOL     OW45309  13.233   2.314   7.597
14471SOL    HW145310  13.244   2.335   7.690
14471SOL    HW245311  13.285   2.380   7.551
14472SOL     OW45312  10.746  12.859   3.469
14472SOL    HW145313  10.789  12.943   3.487
14472SOL    HW245314  10.707  12.834   3.553
14473SOL     OW45315  11.445   3.606  11.815
14473SOL    HW145316  11.502   3.674  11.778
14473SOL    HW245317  11.359   3.623  11.777
14474SOL     OW45318   6.455   5.707  11.431
14474SOL    HW145319   6.490   5.620  11.414
14474SOL    HW245320   6.532   5.764  11.432
14475SOL     OW45321   9.844   3.339   8.201
14475SOL    HW145322   9.873   3.306   8.286
14475SOL    HW245323   9.815   3.261   8.153
14476SOL     OW45324   2.762  11.111   9.684
14476SOL    HW145325   2.807  11.195   9.695
14476SOL    HW245326   2.781  11.085   9.593
14477SOL     OW45327   2.554  12.918  14.084
14477SOL    HW145328   2.483  12.934  14.022
14477SOL    HW245329   2.515  12.935  14.170
14478SOL     OW45330   8.089   3.027   3.562
14478SOL    HW145331   8.013   3.027   3.621
14478SOL    HW245332   8.109   2.934   3.549
14479SOL     OW45333  10.520  14.719  14.123
14479SOL    HW145334  10.437  14.739  14.167
14479SOL    HW245335  10.544  14.800  14.078
14480SOL     OW45336   2.096  10.145  12.896
14480SOL    HW145337   2.065  10.146  12.987
14480SOL    HW245338   2.189  10.124  12.903
14481SOL     OW45339  10.625  13.886  12.825
14481SOL    HW145340  10.608  13.950  12.894
14481SOL    HW245341  10.649  13.806  12.872
14482SOL     OW45342   6.359  13.093   5.151
14482SOL    HW145343   6.286  13.031   5.151
14482SOL    HW245344   6.372  13.115   5.243
14483SOL     OW45345   3.959  11.986  12.646
14483SOL    HW145346   3.996  12.051  12.587
14483SOL    HW245347   4.034  11.931  12.671
14484SOL     OW45348   1.599  10.720  10.844
14484SOL    HW145349   1.583  10.631  10.878
14484SOL    HW245350   1.513  10.762  10.847
14485SOL     OW45351   7.469  12.201   7.674
14485SOL    HW145352   7.556  12.239   7.678
14485SOL    HW245353   7.419  12.260   7.617
14486SOL     OW45354   9.012   1.795  13.918
14486SOL    HW145355   8.946   1.795  13.987
14486SOL    HW245356   9.087   1.841  13.957
14487SOL     OW45357  11.640   7.915   4.435
14487SOL    HW145358  11.667   7.901   4.344
14487SOL    HW245359  11.722   7.914   4.485
14488SOL     OW45360   8.028   9.952  13.647
14488SOL    HW145361   8.051  10.037  13.610
14488SOL    HW245362   7.933   9.952  13.650
14489SOL     OW45363   2.419   3.296  10.292
14489SOL    HW145364   2.458   3.238  10.226
14489SOL    HW245365   2.478   3.371  10.296
14490SOL     OW45366   1.631   1.508   4.934
14490SOL    HW145367   1.703   1.467   4.885
14490SOL    HW245368   1.628   1.458   5.016
14491SOL     OW45369   8.434   8.802   3.547
14491SOL    HW145370   8.443   8.889   3.509
14491SOL    HW245371   8.339   8.787   3.551
14492SOL     OW45372   0.891   8.429  11.033
14492SOL    HW145373   0.929   8.476  11.107
14492SOL    HW245374   0.961   8.429  10.967
14493SOL     OW45375  12.200  14.088   3.435
14493SOL    HW145376  12.217  14.172   3.392
14493SOL    HW245377  12.109  14.069   3.414
14494SOL     OW45378   7.142   5.109  13.962
14494SOL    HW145379   7.226   5.127  14.003
14494SOL    HW245380   7.077   5.150  14.020
14495SOL     OW45381   7.053   3.603  14.351
14495SOL    HW145382   7.135   3.653  14.346
14495SOL    HW245383   7.057   3.562  14.438
14496SOL     OW45384  11.735   4.482   7.157
14496SOL    HW145385  11.686   4.525   7.227
14496SOL    HW245386  11.704   4.391   7.158
14497SOL     OW45387   6.824   9.010   6.407
14497SOL    HW145388   6.833   9.015   6.502
14497SOL    HW245389   6.824   8.917   6.387
14498SOL     OW45390   2.086  13.741  10.843
14498SOL    HW145391   2.084  13.773  10.933
14498SOL    HW245392   2.179  13.743  10.819
14499SOL     OW45393   4.764   4.661   0.097
14499SOL    HW145394   4.781   4.573   0.065
14499SOL    HW245395   4.682   4.654   0.145
14500SOL     OW45396  14.226   0.192   9.136
14500SOL    HW145397  14.206   0.255   9.205
14500SOL    HW245398  14.265   0.118   9.183
14501SOL     OW45399   0.218   2.025  11.007
14501SOL    HW145400   0.261   1.971  11.073
14501SOL    HW245401   0.132   1.984  10.996
14502SOL     OW45402   9.075  14.181  14.419
14502SOL    HW145403   9.013  14.128  14.369
14502SOL    HW245404   9.155  14.130  14.419
14503SOL     OW45405  14.440  13.510   5.624
14503SOL    HW145406  14.359  13.502   5.573
14503SOL    HW245407  14.415  13.486   5.713
14504SOL     OW45408   9.379   2.995  11.172
14504SOL    HW145409   9.456   3.026  11.220
14504SOL    HW245410   9.389   3.031  11.084
14505SOL     OW45411   4.571  13.807  14.754
14505SOL    HW145412   4.581  13.850  14.669
14505SOL    HW245413   4.618  13.725  14.744
14506SOL     OW45414   3.057   5.837  10.347
14506SOL    HW145415   3.044   5.754  10.393
14506SOL    HW245416   3.009   5.901  10.398
14507SOL     OW45417  13.430   1.238  11.822
14507SOL    HW145418  13.346   1.252  11.778
14507SOL    HW245419  13.489   1.303  11.782
14508SOL     OW45420   4.401   8.214   2.409
14508SOL    HW145421   4.421   8.279   2.342
14508SOL    HW245422   4.342   8.152   2.365
14509SOL     OW45423   1.723   8.559   8.213
14509SOL    HW145424   1.810   8.537   8.247
14509SOL    HW245425   1.716   8.654   8.225
14510SOL     OW45426   7.552  13.214   5.882
14510SOL    HW145427   7.524  13.123   5.872
14510SOL    HW245428   7.551  13.249   5.793
14511SOL     OW45429  14.679   8.659   9.644
14511SOL    HW145430  14.728   8.737   9.671
14511SOL    HW245431  14.587   8.683   9.660
14512SOL     OW45432   5.938   5.625  10.443
14512SOL    HW145433   6.005   5.665  10.388
14512SOL    HW245434   5.895   5.699  10.486
14513SOL     OW45435   8.959   9.545   9.552
14513SOL    HW145436   9.005   9.586   9.478
14513SOL    HW245437   8.869   9.578   9.545
14514SOL     OW45438  12.511   3.166  13.130
14514SOL    HW145439  12.572   3.240  13.120
14514SOL    HW245440  12.540   3.103  13.064
14515SOL     OW45441   3.329   8.070   9.381
14515SOL    HW145442   3.310   8.163   9.375
14515SOL    HW245443   3.383   8.052   9.304
14516SOL     OW45444   1.399  13.174  11.548
14516SOL    HW145445   1.477  13.229  11.537
14516SOL    HW245446   1.406  13.141  11.638
14517SOL     OW45447   8.698   5.430   2.225
14517SOL    HW145448   8.610   5.411   2.192
14517SOL    HW245449   8.739   5.344   2.235
14518SOL     OW45450   0.622  12.168   7.254
14518SOL    HW145451   0.694  12.106   7.269
14518SOL    HW245452   0.644  12.211   7.172
14519SOL     OW45453   4.157  13.439   3.644
14519SOL    HW145454   4.092  13.413   3.579
14519SOL    HW245455   4.196  13.356   3.674
14520SOL     OW45456  12.452  10.088   1.011
14520SOL    HW145457  12.488  10.165   0.967
14520SOL    HW245458  12.521  10.061   1.071
14521SOL     OW45459   3.952  11.858   7.798
14521SOL    HW145460   3.977  11.943   7.833
14521SOL    HW245461   3.913  11.877   7.712
14522SOL     OW45462  13.743   5.541  10.945
14522SOL    HW145463  13.715   5.580  11.028
14522SOL    HW245464  13.802   5.606  10.906
14523SOL     OW45465   0.182  11.449   9.985
14523SOL    HW145466   0.124  11.518  10.015
14523SOL    HW245467   0.270  11.485   9.995
14524SOL     OW45468  14.377   3.870   5.039
14524SOL    HW145469  14.416   3.925   5.106
14524SOL    HW245470  14.285   3.862   5.065
14525SOL     OW45471   2.413   6.941   0.061
14525SOL    HW145472   2.374   6.964   0.145
14525SOL    HW245473   2.341   6.906   0.009
14526SOL     OW45474   5.697  14.511   9.089
14526SOL    HW145475   5.769  14.569   9.113
14526SOL    HW245476   5.621  14.547   9.136
14527SOL     OW45477   4.690   1.796   9.581
14527SOL    HW145478   4.750   1.869   9.574
14527SOL    HW245479   4.641   1.812   9.662
14528SOL     OW45480   7.920  13.000   1.703
14528SOL    HW145481   7.992  12.937   1.706
14528SOL    HW245482   7.959  13.082   1.734
14529SOL     OW45483   6.869   9.936   2.068
14529SOL    HW145484   6.861   9.856   2.015
14529SOL    HW245485   6.851  10.007   2.007
14530SOL     OW45486   1.854  10.780  14.447
14530SOL    HW145487   1.861  10.754  14.539
14530SOL    HW245488   1.943  10.773  14.413
14531SOL     OW45489  12.942   9.404  10.297
14531SOL    HW145490  12.997   9.335  10.334
14531SOL    HW245491  12.960   9.481  10.351
14532SOL     OW45492   5.368   0.241   1.061
14532SOL    HW145493   5.294   0.206   1.011
14532SOL    HW245494   5.410   0.165   1.099
14533SOL     OW45495   0.931   3.561   8.719
14533SOL    HW145496   0.912   3.601   8.804
14533SOL    HW245497   1.003   3.501   8.736
14534SOL     OW45498  11.689  12.524   5.280
14534SOL    HW145499  11.732  12.604   5.311
14534SOL    HW245500  11.698  12.462   5.352
14535SOL     OW45501  11.438  11.293   0.478
14535SOL    HW145502  11.430  11.198   0.482
14535SOL    HW245503  11.369  11.321   0.417
14536SOL     OW45504  14.180  11.087  13.957
14536SOL    HW145505  14.215  11.053  14.039
14536SOL    HW245506  14.171  11.181  13.972
14537SOL     OW45507  10.274   6.851   6.808
14537SOL    HW145508  10.212   6.920   6.830
14537SOL    HW245509  10.268   6.789   6.881
14538SOL     OW45510   6.920  12.714   0.110
14538SOL    HW145511   6.928  12.639   0.169
14538SOL    HW245512   7.009  12.728   0.077
14539SOL     OW45513   6.443   0.652   4.626
14539SOL    HW145514   6.469   0.618   4.540
14539SOL    HW245515   6.349   0.635   4.631
14540SOL     OW45516   1.252   1.405  10.281
14540SOL    HW145517   1.176   1.345  10.282
14540SOL    HW245518   1.238   1.460  10.204
14541SOL     OW45519   3.364  10.025   0.083
14541SOL    HW145520   3.393   9.964   0.151
14541SOL    HW245521   3.316  10.093   0.130
14542SOL     OW45522  11.078  13.524   3.950
14542SOL    HW145523  10.988  13.497   3.964
14542SOL    HW245524  11.095  13.505   3.858
14543SOL     OW45525  12.867   3.382   9.855
14543SOL    HW145526  12.947   3.434   9.862
14543SOL    HW245527  12.891   3.307   9.801
14544SOL     OW45528  13.380   4.962   8.338
14544SOL    HW145529  13.445   5.019   8.378
14544SOL    HW245530  13.419   4.937   8.254
14545SOL     OW45531   1.808  14.306   7.301
14545SOL    HW145532   1.738  14.308   7.367
14545SOL    HW245533   1.868  14.375   7.328
14546SOL     OW45534   9.105  12.569   1.122
14546SOL    HW145535   9.056  12.615   1.190
14546SOL    HW245536   9.129  12.485   1.161
14547SOL     OW45537   5.217   9.686  12.710
14547SOL    HW145538   5.199   9.775  12.682
14547SOL    HW245539   5.311   9.675  12.698
14548SOL     OW45540   8.544   9.678  10.239
14548SOL    HW145541   8.472   9.653  10.297
14548SOL    HW245542   8.618   9.692  10.298
14549SOL     OW45543  13.079   4.538   8.857
14549SOL    HW145544  13.163   4.524   8.814
14549SOL    HW245545  13.098   4.530   8.951
14550SOL     OW45546   8.146   7.716   6.016
14550SOL    HW145547   8.229   7.747   6.052
14550SOL    HW245548   8.124   7.779   5.948
14551SOL     OW45549   6.863   2.691  11.100
14551SOL    HW145550   6.843   2.647  11.182
14551SOL    HW245551   6.803   2.652  11.036
14552SOL     OW45552   6.524   0.692   1.189
14552SOL    HW145553   6.466   0.735   1.252
14552SOL    HW245554   6.466   0.660   1.120
14553SOL     OW45555  13.316   9.833   1.457
14553SOL    HW145556  13.370   9.771   1.507
14553SOL    HW245557  13.237   9.783   1.436
14554SOL     OW45558   8.328   4.034  14.606
14554SOL    HW145559   8.360   3.957  14.559
14554SOL    HW245560   8.405   4.069  14.650
14555SOL     OW45561  10.299   2.729   3.583
14555SOL    HW145562  10.311   2.802   3.522
14555SOL    HW245563  10.266   2.658   3.528
14556SOL     OW45564  13.545  11.999  10.595
14556SOL    HW145565  13.578  11.917  10.558
14556SOL    HW245566  13.587  12.005  10.681
14557SOL     OW45567   5.465  13.429   2.981
14557SOL    HW145568   5.454  13.383   2.898
14557SOL    HW245569   5.522  13.372   3.033
14558SOL     OW45570   0.688   0.395  13.411
14558SOL    HW145571   0.642   0.329  13.463
14558SOL    HW245572   0.769   0.412  13.460
14559SOL     OW45573   8.779   5.289  12.098
14559SOL    HW145574   8.810   5.213  12.049
14559SOL    HW245575   8.725   5.338  12.035
14560SOL     OW45576   3.782   6.389  11.905
14560SOL    HW145577   3.718   6.434  11.960
14560SOL    HW245578   3.822   6.324  11.963
14561SOL     OW45579   9.042   5.518  11.621
14561SOL    HW145580   9.109   5.584  11.638
14561SOL    HW245581   8.961   5.569  11.614
14562SOL     OW45582   9.437   1.531  12.137
14562SOL    HW145583   9.383   1.459  12.168
14562SOL    HW245584   9.388   1.610  12.160
14563SOL     OW45585   4.843  14.256   5.516
14563SOL    HW145586   4.850  14.195   5.442
14563SOL    HW245587   4.891  14.213   5.587
14564SOL     OW45588   4.904  10.210   0.576
14564SOL    HW145589   4.988  10.179   0.541
14564SOL    HW245590   4.879  10.282   0.518
14565SOL     OW45591   7.428  13.977   9.079
14565SOL    HW145592   7.442  14.040   9.009
14565SOL    HW245593   7.492  14.001   9.146
14566SOL     OW45594   0.681  10.624  12.651
14566SOL    HW145595   0.684  10.533  12.679
14566SOL    HW245596   0.747  10.668  12.704
14567SOL     OW45597  13.098  12.891   2.304
14567SOL    HW145598  13.172  12.841   2.268
14567SOL    HW245599  13.053  12.926   2.227
14568SOL     OW45600  12.305  11.810   7.020
14568SOL    HW145601  12.261  11.873   6.964
14568SOL    HW245602  12.238  11.747   7.044
14569SOL     OW45603   8.479   2.168   0.553
14569SOL    HW145604   8.464   2.173   0.647
14569SOL    HW245605   8.411   2.107   0.522
14570SOL     OW45606   0.589   0.870   8.490
14570SOL    HW145607   0.569   0.839   8.578
14570SOL    HW245608   0.568   0.796   8.433
14571SOL     OW45609   6.647  12.976   8.114
14571SOL    HW145610   6.614  13.061   8.086
14571SOL    HW245611   6.709  12.997   8.184
14572SOL     OW45612   1.912   2.829  14.629
14572SOL    HW145613   1.964   2.762  14.585
14572SOL    HW245614   1.896   2.794  14.717
14573SOL     OW45615  12.837   1.503  13.779
14573SOL    HW145616  12.925   1.474  13.801
14573SOL    HW245617  12.801   1.434  13.724
14574SOL     OW45618   4.437   3.513  12.673
14574SOL    HW145619   4.533   3.517  12.667
14574SOL    HW245620   4.414   3.585  12.731
14575SOL     OW45621  10.887  14.040  14.204
14575SOL    HW145622  10.913  14.115  14.257
14575SOL    HW245623  10.810  14.005  14.248
14576SOL     OW45624   8.684   4.003   9.233
14576SOL    HW145625   8.645   3.984   9.319
14576SOL    HW245626   8.614   3.985   9.170
14577SOL     OW45627   3.661   8.898  10.745
14577SOL    HW145628   3.615   8.891  10.662
14577SOL    HW245629   3.722   8.970  10.733
14578SOL     OW45630   1.760   3.572   4.162
14578SOL    HW145631   1.665   3.585   4.163
14578SOL    HW245632   1.797   3.660   4.163
14579SOL     OW45633   8.148   6.509  14.543
14579SOL    HW145634   8.203   6.477  14.472
14579SOL    HW245635   8.210   6.546  14.606
14580SOL     OW45636   4.432  13.206   9.857
14580SOL    HW145637   4.408  13.285   9.905
14580SOL    HW245638   4.495  13.162   9.913
14581SOL     OW45639  11.766  14.801   0.578
14581SOL    HW145640  11.683  14.849   0.580
14581SOL    HW245641  11.830  14.865   0.545
14582SOL     OW45642   5.600  13.132   0.242
14582SOL    HW145643   5.559  13.047   0.223
14582SOL    HW245644   5.692  13.119   0.219
14583SOL     OW45645   1.968   5.165   0.785
14583SOL    HW145646   2.011   5.180   0.869
14583SOL    HW245647   2.037   5.176   0.720
14584SOL     OW45648   9.155  11.175   1.397
14584SOL    HW145649   9.213  11.104   1.369
14584SOL    HW245650   9.077  11.130   1.430
14585SOL     OW45651  12.095  14.676   0.624
14585SOL    HW145652  12.066  14.745   0.565
14585SOL    HW245653  12.037  14.682   0.699
14586SOL     OW45654  11.248   3.239   8.433
14586SOL    HW145655  11.157   3.210   8.421
14586SOL    HW245656  11.249   3.276   8.522
14587SOL     OW45657  13.677  14.666   2.421
14587SOL    HW145658  13.753  14.721   2.402
14587SOL    HW245659  13.697  14.582   2.381
14588SOL     OW45660   5.619   8.580   0.383
14588SOL    HW145661   5.527   8.604   0.373
14588SOL    HW245662   5.623   8.488   0.359
14589SOL     OW45663   1.567   1.291  11.606
14589SOL    HW145664   1.521   1.344  11.671
14589SOL    HW245665   1.548   1.334  11.523
14590SOL     OW45666  14.500  13.791  10.399
14590SOL    HW145667  14.428  13.828  10.350
14590SOL    HW245668  14.466  13.708  10.434
14591SOL     OW45669   9.569   1.495   3.723
14591SOL    HW145670   9.641   1.523   3.667
14591SOL    HW245671   9.562   1.401   3.708
14592SOL     OW45672   9.842  11.944   7.014
14592SOL    HW145673   9.748  11.946   7.028
14592SOL    HW245674   9.853  11.936   6.920
14593SOL     OW45675  13.480  13.092  14.375
14593SOL    HW145676  13.518  13.039  14.445
14593SOL    HW245677  13.548  13.095  14.308
14594SOL     OW45678  11.903   4.673   2.558
14594SOL    HW145679  11.921   4.596   2.503
14594SOL    HW245680  11.847   4.729   2.504
14595SOL     OW45681   0.678  10.349  12.518
14595SOL    HW145682   0.679  10.261  12.482
14595SOL    HW245683   0.724  10.402  12.454
14596SOL     OW45684  12.856   6.854   7.741
14596SOL    HW145685  12.921   6.870   7.672
14596SOL    HW245686  12.873   6.922   7.807
14597SOL     OW45687  11.253  10.740  10.433
14597SOL    HW145688  11.166  10.740  10.393
14597SOL    HW245689  11.242  10.784  10.517
14598SOL     OW45690  11.419   2.712  14.506
14598SOL    HW145691  11.323   2.715  14.500
14598SOL    HW245692  11.437   2.630  14.552
14599SOL     OW45693   7.033  12.287   2.124
14599SOL    HW145694   7.074  12.202   2.140
14599SOL    HW245695   7.103  12.343   2.092
14600SOL     OW45696   0.258   1.753   6.322
14600SOL    HW145697   0.343   1.723   6.290
14600SOL    HW245698   0.235   1.690   6.391
14601SOL     OW45699   7.906   9.839   2.849
14601SOL    HW145700   7.819   9.819   2.884
14601SOL    HW245701   7.933   9.918   2.896
14602SOL     OW45702   7.940  11.846   1.924
14602SOL    HW145703   7.961  11.753   1.910
14602SOL    HW245704   7.913  11.850   2.016
14603SOL     OW45705  12.651  10.114  14.237
14603SOL    HW145706  12.738  10.147  14.217
14603SOL    HW245707  12.621  10.168  14.311
14604SOL     OW45708   2.126   2.474  13.415
14604SOL    HW145709   2.193   2.414  13.382
14604SOL    HW245710   2.124   2.457  13.510
14605SOL     OW45711  10.908  10.784   0.747
14605SOL    HW145712  10.921  10.690   0.736
14605SOL    HW245713  10.972  10.809   0.814
14606SOL     OW45714  12.799   6.409  13.636
14606SOL    HW145715  12.850   6.335  13.667
14606SOL    HW245716  12.747   6.375  13.564
14607SOL     OW45717   2.379  12.072   7.686
14607SOL    HW145718   2.465  12.031   7.677
14607SOL    HW245719   2.397  12.160   7.720
14608SOL     OW45720   3.791  10.700   1.001
14608SOL    HW145721   3.765  10.626   0.947
14608SOL    HW245722   3.875  10.674   1.039
14609SOL     OW45723   1.595   9.811   1.910
14609SOL    HW145724   1.628   9.866   1.981
14609SOL    HW245725   1.604   9.721   1.943
14610SOL     OW45726  13.077   7.141  14.812
14610SOL    HW145727  13.015   7.198  14.858
14610SOL    HW245728  13.077   7.060  14.863
14611SOL     OW45729  11.100   9.647   8.444
14611SOL    HW145730  11.083   9.595   8.522
14611SOL    HW245731  11.196   9.647   8.436
14612SOL     OW45732   3.430   0.930  14.887
14612SOL    HW145733   3.517   0.898   0.020
14612SOL    HW245734   3.421   1.011   0.049
14613SOL     OW45735   9.212  13.560   0.042
14613SOL    HW145736   9.148  13.618   0.083
14613SOL    HW245737   9.194  13.566  14.836
14614SOL     OW45738   6.206   0.682   8.911
14614SOL    HW145739   6.180   0.731   8.989
14614SOL    HW245740   6.140   0.614   8.901
14615SOL     OW45741   0.593   9.255  13.451
14615SOL    HW145742   0.526   9.261  13.519
14615SOL    HW245743   0.600   9.344  13.416
14616SOL     OW45744   2.073  13.121   6.004
14616SOL    HW145745   2.043  13.054   6.065
14616SOL    HW245746   2.019  13.109   5.926
14617SOL     OW45747   8.461   6.406   9.935
14617SOL    HW145748   8.389   6.449   9.981
14617SOL    HW245749   8.438   6.412   9.843
14618SOL     OW45750  14.072   5.095   8.795
14618SOL    HW145751  14.158   5.135   8.790
14618SOL    HW245752  14.035   5.106   8.708
14619SOL     OW45753   1.568   3.781   6.829
14619SOL    HW145754   1.542   3.693   6.858
14619SOL    HW245755   1.660   3.771   6.803
14620SOL     OW45756   5.527   3.561   7.497
14620SOL    HW145757   5.442   3.552   7.539
14620SOL    HW245758   5.549   3.473   7.467
14621SOL     OW45759   4.185  12.327   7.792
14621SOL    HW145760   4.161  12.382   7.867
14621SOL    HW245761   4.130  12.359   7.720
14622SOL     OW45762   5.253   3.234   8.555
14622SOL    HW145763   5.177   3.247   8.498
14622SOL    HW245764   5.225   3.269   8.640
14623SOL     OW45765   6.457   3.083   0.601
14623SOL    HW145766   6.402   3.159   0.620
14623SOL    HW245767   6.449   3.028   0.679
14624SOL     OW45768  11.367   5.662  13.664
14624SOL    HW145769  11.277   5.631  13.650
14624SOL    HW245770  11.390   5.630  13.751
14625SOL     OW45771  10.831   4.290   6.171
14625SOL    HW145772  10.819   4.346   6.248
14625SOL    HW245773  10.743   4.263   6.147
14626SOL     OW45774  10.060   3.106  11.073
14626SOL    HW145775   9.970   3.079  11.092
14626SOL    HW245776  10.090   3.149  11.153
14627SOL     OW45777   8.121   5.552   0.785
14627SOL    HW145778   8.161   5.635   0.811
14627SOL    HW245779   8.041   5.577   0.739
14628SOL     OW45780  10.120  10.101   2.857
14628SOL    HW145781  10.188  10.073   2.795
14628SOL    HW245782  10.115  10.196   2.846
14629SOL     OW45783   3.348   5.128  11.049
14629SOL    HW145784   3.423   5.186  11.061
14629SOL    HW245785   3.286   5.179  10.997
14630SOL     OW45786  11.613  10.412   7.040
14630SOL    HW145787  11.643  10.472   7.108
14630SOL    HW245788  11.653  10.328   7.063
14631SOL     OW45789  10.714   6.774   4.659
14631SOL    HW145790  10.803   6.742   4.675
14631SOL    HW245791  10.658   6.697   4.669
14632SOL     OW45792   6.629   5.450   4.255
14632SOL    HW145793   6.559   5.511   4.230
14632SOL    HW245794   6.593   5.403   4.331
14633SOL     OW45795   4.965   0.626   8.404
14633SOL    HW145796   4.912   0.698   8.369
14633SOL    HW245797   4.912   0.588   8.473
14634SOL     OW45798   5.332   7.458  12.979
14634SOL    HW145799   5.366   7.405  13.051
14634SOL    HW245800   5.409   7.503  12.944
14635SOL     OW45801   5.973  12.942  14.796
14635SOL    HW145802   5.933  13.017  14.751
14635SOL    HW245803   6.053  12.924  14.746
14636SOL     OW45804   7.109   5.850   3.778
14636SOL    HW145805   7.064   5.908   3.715
14636SOL    HW245806   7.183   5.902   3.808
14637SOL     OW45807   0.133  11.437  11.512
14637SOL    HW145808   0.215  11.447  11.561
14637SOL    HW245809   0.066  11.430  11.579
14638SOL     OW45810  11.666   9.870  12.603
14638SOL    HW145811  11.662   9.776  12.618
14638SOL    HW245812  11.590   9.905  12.650
14639SOL     OW45813  11.963   6.796   2.340
14639SOL    HW145814  11.874   6.826   2.355
14639SOL    HW245815  11.953   6.706   2.310
14640SOL     OW45816   9.731   7.979   6.270
14640SOL    HW145817   9.749   7.936   6.186
14640SOL    HW245818   9.710   7.907   6.329
14641SOL     OW45819  10.222  12.452   2.289
14641SOL    HW145820  10.149  12.463   2.228
14641SOL    HW245821  10.264  12.537   2.291
14642SOL     OW45822  11.074   9.255  11.550
14642SOL    HW145823  11.146   9.195  11.568
14642SOL    HW245824  11.116   9.340  11.537
14643SOL     OW45825   1.770  14.141   6.425
14643SOL    HW145826   1.831  14.148   6.352
14643SOL    HW245827   1.823  14.160   6.502
14644SOL     OW45828  11.521   0.984   3.915
14644SOL    HW145829  11.528   1.008   3.822
14644SOL    HW245830  11.567   0.900   3.921
14645SOL     OW45831   3.483   6.240   2.421
14645SOL    HW145832   3.577   6.223   2.413
14645SOL    HW245833   3.442   6.184   2.355
14646SOL     OW45834   8.436   2.881   9.095
14646SOL    HW145835   8.510   2.872   9.155
14646SOL    HW245836   8.370   2.820   9.129
14647SOL     OW45837  12.490  11.555  14.402
14647SOL    HW145838  12.445  11.637  14.381
14647SOL    HW245839  12.558  11.581  14.464
14648SOL     OW45840  13.263   4.763   3.447
14648SOL    HW145841  13.202   4.783   3.519
14648SOL    HW245842  13.219   4.796   3.369
14649SOL     OW45843  10.362  11.605   3.151
14649SOL    HW145844  10.386  11.563   3.234
14649SOL    HW245845  10.267  11.597   3.147
14650SOL     OW45846  12.734  14.264   5.260
14650SOL    HW145847  12.783  14.212   5.323
14650SOL    HW245848  12.668  14.310   5.312
14651SOL     OW45849   0.335   1.357   2.918
14651SOL    HW145850   0.417   1.401   2.944
14651SOL    HW245851   0.271   1.385   2.983
14652SOL     OW45852   6.466  11.815   6.440
14652SOL    HW145853   6.511  11.885   6.393
14652SOL    HW245854   6.468  11.741   6.379
14653SOL     OW45855  13.354   1.854  12.359
14653SOL    HW145856  13.267   1.871  12.395
14653SOL    HW245857  13.338   1.804  12.280
14654SOL     OW45858   9.557   9.971  12.366
14654SOL    HW145859   9.631   9.922  12.332
14654SOL    HW245860   9.570  10.060  12.333
14655SOL     OW45861   9.981  13.097  14.213
14655SOL    HW145862   9.906  13.155  14.226
14655SOL    HW245863   9.980  13.078  14.119
14656SOL     OW45864   1.507  14.231   1.259
14656SOL    HW145865   1.542  14.168   1.196
14656SOL    HW245866   1.423  14.194   1.286
14657SOL     OW45867   2.132  11.174  14.779
14657SOL    HW145868   2.124  11.114  14.705
14657SOL    HW245869   2.070  11.245  14.758
14658SOL     OW45870  13.308   1.337  10.577
14658SOL    HW145871  13.227   1.304  10.540
14658SOL    HW245872  13.371   1.335  10.505
14659SOL     OW45873  12.843   8.081   8.482
14659SOL    HW145874  12.842   8.100   8.388
14659SOL    HW245875  12.926   8.035   8.497
14660SOL     OW45876  10.814   2.318   5.220
14660SOL    HW145877  10.845   2.281   5.137
14660SOL    HW245878  10.889   2.367   5.254
14661SOL     OW45879   8.767   5.830   3.593
14661SOL    HW145880   8.735   5.920   3.588
14661SOL    HW245881   8.851   5.832   3.549
14662SOL     OW45882   1.628   8.307   9.139
14662SOL    HW145883   1.534   8.325   9.133
14662SOL    HW245884   1.637   8.248   9.214
14663SOL     OW45885   0.639   7.873   5.421
14663SOL    HW145886   0.619   7.785   5.389
14663SOL    HW245887   0.675   7.918   5.345
14664SOL     OW45888   7.192   6.037   7.023
14664SOL    HW145889   7.238   6.063   6.944
14664SOL    HW245890   7.108   6.083   7.018
14665SOL     OW45891   1.438   1.485  14.818
14665SOL    HW145892   1.400   1.434  14.747
14665SOL    HW245893   1.466   1.418  14.882
14666SOL     OW45894   3.807   3.204  14.867
14666SOL    HW145895   3.803   3.233  14.776
14666SOL    HW245896   3.859   3.124  14.864
14667SOL     OW45897  14.117   0.840  10.100
14667SOL    HW145898  14.167   0.916  10.071
14667SOL    HW245899  14.183   0.773  10.118
14668SOL     OW45900  12.521   4.250   1.671
14668SOL    HW145901  12.433   4.274   1.643
14668SOL    HW245902  12.530   4.288   1.758
14669SOL     OW45903  13.488  10.746   0.854
14669SOL    HW145904  13.426  10.818   0.851
14669SOL    HW245905  13.435  10.668   0.836
14670SOL     OW45906   7.375   5.119   1.793
14670SOL    HW145907   7.419   5.171   1.860
14670SOL    HW245908   7.288   5.158   1.786
14671SOL     OW45909   8.624   5.509   5.065
14671SOL    HW145910   8.664   5.525   5.151
14671SOL    HW245911   8.685   5.550   5.003
14672SOL     OW45912  12.756   5.669   9.143
14672SOL    HW145913  12.839   5.695   9.183
14672SOL    HW245914  12.748   5.724   9.066
14673SOL     OW45915  13.285   1.274   0.044
14673SOL    HW145916  13.265   1.364   0.068
14673SOL    HW245917  13.362   1.252   0.096
14674SOL     OW45918   9.620  12.385   0.326
14674SOL    HW145919   9.526  12.379   0.308
14674SOL    HW245920   9.642  12.477   0.312
14675SOL     OW45921  12.042   0.427  12.871
14675SOL    HW145922  11.975   0.378  12.822
14675SOL    HW245923  12.046   0.511  12.826
14676SOL     OW45924   0.548   4.256  10.473
14676SOL    HW145925   0.614   4.325  10.487
14676SOL    HW245926   0.471   4.286  10.522
14677SOL     OW45927   6.466   6.672   3.512
14677SOL    HW145928   6.421   6.752   3.484
14677SOL    HW245929   6.436   6.657   3.601
14678SOL     OW45930   9.554   1.479   7.786
14678SOL    HW145931   9.511   1.396   7.807
14678SOL    HW245932   9.503   1.514   7.713
14679SOL     OW45933   4.643   4.026   7.974
14679SOL    HW145934   4.687   3.951   8.014
14679SOL    HW245935   4.653   4.096   8.038
14680SOL     OW45936   5.424   3.653   7.120
14680SOL    HW145937   5.416   3.727   7.180
14680SOL    HW245938   5.473   3.587   7.168
14681SOL     OW45939   1.200   4.190   2.046
14681SOL    HW145940   1.238   4.120   2.098
14681SOL    HW245941   1.219   4.165   1.955
14682SOL     OW45942  14.669   5.035   2.290
14682SOL    HW145943  14.732   4.985   2.237
14682SOL    HW245944  14.685   5.005   2.380
14683SOL     OW45945   7.811   7.088   5.219
14683SOL    HW145946   7.828   7.133   5.302
14683SOL    HW245947   7.737   7.030   5.238
14684SOL     OW45948   6.455   9.637  14.097
14684SOL    HW145949   6.514   9.696  14.050
14684SOL    HW245950   6.427   9.573  14.032
14685SOL     OW45951   7.346   2.466  13.918
14685SOL    HW145952   7.281   2.395  13.920
14685SOL    HW245953   7.371   2.473  13.826
14686SOL     OW45954   7.737   8.684  13.576
14686SOL    HW145955   7.775   8.712  13.493
14686SOL    HW245956   7.812   8.671  13.634
14687SOL     OW45957   0.497   0.109  10.434
14687SOL    HW145958   0.418   0.056  10.442
14687SOL    HW245959   0.465   0.195  10.405
14688SOL     OW45960   9.654  14.361   3.837
14688SOL    HW145961   9.720  14.318   3.892
14688SOL    HW245962   9.575  14.308   3.847
14689SOL     OW45963  12.543   7.437   0.026
14689SOL    HW145964  12.481   7.477   0.087
14689SOL    HW245965  12.611   7.398   0.081
14690SOL     OW45966  13.105  14.604  14.378
14690SOL    HW145967  13.081  14.512  14.387
14690SOL    HW245968  13.080  14.644  14.461
14691SOL     OW45969  11.282  14.160   9.142
14691SOL    HW145970  11.250  14.227   9.082
14691SOL    HW245971  11.216  14.154   9.211
14692SOL     OW45972   8.939   5.833   7.018
14692SOL    HW145973   9.029   5.807   7.038
14692SOL    HW245974   8.905   5.762   6.964
14693SOL     OW45975   8.586   6.031   2.564
14693SOL    HW145976   8.542   5.958   2.521
14693SOL    HW245977   8.518   6.097   2.574
14694SOL     OW45978  10.071  11.056  10.891
14694SOL    HW145979  10.150  11.110  10.884
14694SOL    HW245980  10.104  10.968  10.911
14695SOL     OW45981   3.301   0.637   5.883
14695SOL    HW145982   3.210   0.642   5.856
14695SOL    HW245983   3.326   0.546   5.869
14696SOL     OW45984  12.277   3.315   5.919
14696SOL    HW145985  12.319   3.400   5.904
14696SOL    HW245986  12.294   3.296   6.011
14697SOL     OW45987   5.223   9.169   1.957
14697SOL    HW145988   5.157   9.144   2.023
14697SOL    HW245989   5.288   9.219   2.007
14698SOL     OW45990   7.182   1.565  11.793
14698SOL    HW145991   7.248   1.516  11.743
14698SOL    HW245992   7.107   1.570  11.735
14699SOL     OW45993   8.433   9.215  14.770
14699SOL    HW145994   8.379   9.256  14.703
14699SOL    HW245995   8.409   9.122  14.767
14700SOL     OW45996   5.643   9.263   1.203
14700SOL    HW145997   5.596   9.239   1.124
14700SOL    HW245998   5.709   9.195   1.215
14701SOL     OW45999   4.799   2.560   7.225
14701SOL    HW146000   4.710   2.594   7.231
14701SOL    HW246001   4.806   2.498   7.297
14702SOL     OW46002   6.962  13.192  13.577
14702SOL    HW146003   7.017  13.162  13.504
14702SOL    HW246004   6.972  13.288  13.577
14703SOL     OW46005   4.103  10.009  14.740
14703SOL    HW146006   4.019  10.036  14.705
14703SOL    HW246007   4.154   9.982  14.663
14704SOL     OW46008  10.121  12.941  10.411
14704SOL    HW146009  10.167  12.880  10.468
14704SOL    HW246010  10.186  12.965  10.344
14705SOL     OW46011   4.314   0.847   1.921
14705SOL    HW146012   4.409   0.845   1.911
14705SOL    HW246013   4.299   0.827   2.013
14706SOL     OW46014  12.731   4.140  14.217
14706SOL    HW146015  12.674   4.107  14.286
14706SOL    HW246016  12.763   4.224  14.251
14707SOL     OW46017  11.463   0.583  13.377
14707SOL    HW146018  11.510   0.508  13.341
14707SOL    HW246019  11.449   0.561  13.469
14708SOL     OW46020   8.003  12.640   1.540
14708SOL    HW146021   7.958  12.722   1.519
14708SOL    HW246022   8.064  12.663   1.609
14709SOL     OW46023   6.023   7.080   0.567
14709SOL    HW146024   5.980   7.096   0.651
14709SOL    HW246025   5.993   6.992   0.542
14710SOL     OW46026  12.406   5.648   9.451
14710SOL    HW146027  12.458   5.612   9.523
14710SOL    HW246028  12.456   5.724   9.421
14711SOL     OW46029   2.020   0.282   9.348
14711SOL    HW146030   2.029   0.195   9.309
14711SOL    HW246031   2.058   0.341   9.283
14712SOL     OW46032   5.432   2.325   3.188
14712SOL    HW146033   5.508   2.327   3.130
14712SOL    HW246034   5.367   2.379   3.144
14713SOL     OW46035   9.591   7.320   1.068
14713SOL    HW146036   9.649   7.261   1.116
14713SOL    HW246037   9.641   7.402   1.061
14714SOL     OW46038  13.166  12.587   6.023
14714SOL    HW146039  13.254  12.568   5.991
14714SOL    HW246040  13.151  12.679   6.000
14715SOL     OW46041   9.676   8.458   2.400
14715SOL    HW146042   9.660   8.375   2.356
14715SOL    HW246043   9.610   8.461   2.470
14716SOL     OW46044   2.450  11.164   1.256
14716SOL    HW146045   2.524  11.106   1.241
14716SOL    HW246046   2.374  11.106   1.260
14717SOL     OW46047   1.057   7.156   0.319
14717SOL    HW146048   1.001   7.233   0.336
14717SOL    HW246049   1.146   7.188   0.335
14718SOL     OW46050   7.140   6.343   9.619
14718SOL    HW146051   7.157   6.416   9.560
14718SOL    HW246052   7.064   6.299   9.580
14719SOL     OW46053   4.949  11.319   2.422
14719SOL    HW146054   5.029  11.292   2.467
14719SOL    HW246055   4.880  11.307   2.486
14720SOL     OW46056   6.058   5.559   5.323
14720SOL    HW146057   6.054   5.507   5.243
14720SOL    HW246058   6.151   5.559   5.348
14721SOL     OW46059   2.709  12.787   2.506
14721SOL    HW146060   2.620  12.821   2.520
14721SOL    HW246061   2.729  12.810   2.415
14722SOL     OW46062   7.600  12.883   7.708
14722SOL    HW146063   7.567  12.858   7.622
14722SOL    HW246064   7.691  12.909   7.693
14723SOL     OW46065   0.507   0.761  14.875
14723SOL    HW146066   0.597   0.729  14.875
14723SOL    HW246067   0.470   0.728   0.070
14724SOL     OW46068   5.653   4.139   3.419
14724SOL    HW146069   5.745   4.154   3.439
14724SOL    HW246070   5.651   4.120   3.325
14725SOL     OW46071  10.439   3.970  11.543
14725SOL    HW146072  10.395   3.889  11.518
14725SOL    HW246073  10.369   4.027  11.575
14726SOL     OW46074   4.712   2.913   9.299
14726SOL    HW146075   4.799   2.878   9.280
14726SOL    HW246076   4.694   2.887   9.390
14727SOL     OW46077   1.152  14.487  14.581
14727SOL    HW146078   1.235  14.477  14.628
14727SOL    HW246079   1.117  14.398  14.576
14728SOL     OW46080  11.559   1.259   3.684
14728SOL    HW146081  11.649   1.250   3.652
14728SOL    HW246082  11.568   1.299   3.771
14729SOL     OW46083  10.697  14.136   0.930
14729SOL    HW146084  10.627  14.192   0.963
14729SOL    HW246085  10.682  14.133   0.835
14730SOL     OW46086   0.795   9.594   5.999
14730SOL    HW146087   0.755   9.670   6.041
14730SOL    HW246088   0.827   9.627   5.915
14731SOL     OW46089   5.360  13.440  11.449
14731SOL    HW146090   5.402  13.364  11.489
14731SOL    HW246091   5.304  13.404  11.380
14732SOL     OW46092  13.848  10.501   2.112
14732SOL    HW146093  13.865  10.596   2.112
14732SOL    HW246094  13.753  10.494   2.122
14733SOL     OW46095   5.080   1.726   7.901
14733SOL    HW146096   5.101   1.656   7.963
14733SOL    HW246097   5.138   1.711   7.827
14734SOL     OW46098   3.387   8.331  12.316
14734SOL    HW146099   3.380   8.387  12.239
14734SOL    HW246100   3.475   8.346  12.349
14735SOL     OW46101   7.884   4.093   9.632
14735SOL    HW146102   7.903   4.052   9.716
14735SOL    HW246103   7.957   4.154   9.618
14736SOL     OW46104   9.290   0.900  10.675
14736SOL    HW146105   9.240   0.826  10.641
14736SOL    HW246106   9.381   0.876  10.660
14737SOL     OW46107   1.126  10.039  13.098
14737SOL    HW146108   1.142   9.964  13.041
14737SOL    HW246109   1.120  10.002  13.186
14738SOL     OW46110  11.481  12.629   7.413
14738SOL    HW146111  11.406  12.656   7.465
14738SOL    HW246112  11.463  12.662   7.325
14739SOL     OW46113   2.860   1.634  14.309
14739SOL    HW146114   2.853   1.546  14.271
14739SOL    HW246115   2.891   1.689  14.238
14740SOL     OW46116   5.418   5.902   5.407
14740SOL    HW146117   5.332   5.910   5.447
14740SOL    HW246118   5.479   5.912   5.480
14741SOL     OW46119   5.202  12.630  12.968
14741SOL    HW146120   5.271  12.586  12.918
14741SOL    HW246121   5.185  12.571  13.041
14742SOL     OW46122   8.186  14.843   7.099
14742SOL    HW146123   8.211  14.753   7.120
14742SOL    HW246124   8.266   0.007   7.115
14743SOL     OW46125   9.685   0.706   6.549
14743SOL    HW146126   9.651   0.740   6.632
14743SOL    HW246127   9.642   0.760   6.482
14744SOL     OW46128   1.654   0.815   3.161
14744SOL    HW146129   1.564   0.826   3.130
14744SOL    HW246130   1.704   0.791   3.083
14745SOL     OW46131   5.725  14.385   3.675
14745SOL    HW146132   5.736  14.311   3.734
14745SOL    HW246133   5.650  14.433   3.709
14746SOL     OW46134   4.118  11.065  11.489
14746SOL    HW146135   4.185  11.106  11.544
14746SOL    HW246136   4.167  11.005  11.433
14747SOL     OW46137   2.195  14.322   7.062
14747SOL    HW146138   2.281  14.285   7.044
14747SOL    HW246139   2.134  14.251   7.044
14748SOL     OW46140   2.553  13.006   3.380
14748SOL    HW146141   2.487  13.063   3.419
14748SOL    HW246142   2.533  12.919   3.415
14749SOL     OW46143  10.250   6.006  11.574
14749SOL    HW146144  10.343   6.015  11.590
14749SOL    HW246145  10.240   5.916  11.543
14750SOL     OW46146   8.740  14.024  14.569
14750SOL    HW146147   8.735  14.110  14.611
14750SOL    HW246148   8.776  13.967  14.637
14751SOL     OW46149   4.151   2.377   7.706
14751SOL    HW146150   4.166   2.294   7.750
14751SOL    HW246151   4.199   2.441   7.759
14752SOL     OW46152   0.579   2.127   8.893
14752SOL    HW146153   0.615   2.174   8.818
14752SOL    HW246154   0.643   2.059   8.911
14753SOL     OW46155   7.143   1.114  12.110
14753SOL    HW146156   7.117   1.035  12.064
14753SOL    HW246157   7.187   1.083  12.189
14754SOL     OW46158   1.896   1.131  13.924
14754SOL    HW146159   1.876   1.187  13.999
14754SOL    HW246160   1.944   1.057  13.961
14755SOL     OW46161   7.480   5.361   0.334
14755SOL    HW146162   7.402   5.348   0.279
14755SOL    HW246163   7.523   5.276   0.336
14756SOL     OW46164   0.557   3.793   4.567
14756SOL    HW146165   0.541   3.767   4.476
14756SOL    HW246166   0.648   3.769   4.583
14757SOL     OW46167   0.166   4.883   6.760
14757SOL    HW146168   0.098   4.827   6.797
14757SOL    HW246169   0.233   4.822   6.729
14758SOL     OW46170   5.027   7.528   6.900
14758SOL    HW146171   5.116   7.504   6.928
14758SOL    HW246172   5.009   7.471   6.825
14759SOL     OW46173   2.515   5.717   6.686
14759SOL    HW146174   2.455   5.684   6.752
14759SOL    HW246175   2.581   5.766   6.735
14760SOL     OW46176   4.324  14.155   7.863
14760SOL    HW146177   4.259  14.196   7.920
14760SOL    HW246178   4.279  14.144   7.779
14761SOL     OW46179  12.163   6.183   2.208
14761SOL    HW146180  12.209   6.173   2.125
14761SOL    HW246181  12.080   6.225   2.186
14762SOL     OW46182   3.365   4.727  12.432
14762SOL    HW146183   3.404   4.703  12.517
14762SOL    HW246184   3.348   4.821  12.439
14763SOL     OW46185  11.639   9.562   2.847
14763SOL    HW146186  11.732   9.552   2.864
14763SOL    HW246187  11.610   9.629   2.909
14764SOL     OW46188   8.212   9.758  10.451
14764SOL    HW146189   8.163   9.706  10.388
14764SOL    HW246190   8.270   9.696  10.494
14765SOL     OW46191   2.094   4.107  13.806
14765SOL    HW146192   2.107   4.131  13.898
14765SOL    HW246193   2.172   4.141  13.761
14766SOL     OW46194   9.715  13.175   9.458
14766SOL    HW146195   9.797  13.201   9.501
14766SOL    HW246196   9.654  13.247   9.477
14767SOL     OW46197   9.655   0.440   4.671
14767SOL    HW146198   9.664   0.354   4.630
14767SOL    HW246199   9.713   0.497   4.621
14768SOL     OW46200   3.822   3.061   9.308
14768SOL    HW146201   3.783   3.003   9.242
14768SOL    HW246202   3.803   3.018   9.392
14769SOL     OW46203  13.497   9.468   6.084
14769SOL    HW146204  13.528   9.384   6.118
14769SOL    HW246205  13.561   9.531   6.115
14770SOL     OW46206   8.355  12.395   7.076
14770SOL    HW146207   8.276  12.345   7.055
14770SOL    HW246208   8.403  12.398   6.993
14771SOL     OW46209   5.655   6.827   7.230
14771SOL    HW146210   5.636   6.921   7.229
14771SOL    HW246211   5.750   6.822   7.240
14772SOL     OW46212   7.905  14.355   0.077
14772SOL    HW146213   7.816  14.371   0.046
14772SOL    HW246214   7.895  14.298   0.153
14773SOL     OW46215   0.154   4.323  11.681
14773SOL    HW146216   0.064   4.356  11.683
14773SOL    HW246217   0.195   4.368  11.607
14774SOL     OW46218   3.363   7.522  12.968
14774SOL    HW146219   3.414   7.443  12.950
14774SOL    HW246220   3.400   7.556  13.049
14775SOL     OW46221   6.547  10.166  11.225
14775SOL    HW146222   6.549  10.134  11.315
14775SOL    HW246223   6.636  10.198  11.208
14776SOL     OW46224  12.148  13.658   8.214
14776SOL    HW146225  12.154  13.750   8.237
14776SOL    HW246226  12.239  13.629   8.204
14777SOL     OW46227   9.227   1.096  13.130
14777SOL    HW146228   9.137   1.064  13.131
14777SOL    HW246229   9.266   1.061  13.210
14778SOL     OW46230  12.111   3.986   1.411
14778SOL    HW146231  12.155   4.016   1.490
14778SOL    HW246232  12.142   3.897   1.398
14779SOL     OW46233   3.134  13.445   4.980
14779SOL    HW146234   3.217  13.402   4.960
14779SOL    HW246235   3.088  13.384   5.037
14780SOL     OW46236   4.378   5.424   5.780
14780SOL    HW146237   4.323   5.416   5.702
14780SOL    HW246238   4.319   5.454   5.849
14781SOL     OW46239   2.314   3.843   1.906
14781SOL    HW146240   2.232   3.799   1.883
14781SOL    HW246241   2.290   3.904   1.975
14782SOL     OW46242   4.715  14.450   4.252
14782SOL    HW146243   4.799  14.409   4.274
14782SOL    HW246244   4.739  14.523   4.195
14783SOL     OW46245  10.515   4.513   2.463
14783SOL    HW146246  10.559   4.455   2.401
14783SOL    HW246247  10.520   4.466   2.547
14784SOL     OW46248  11.239  12.095   5.859
14784SOL    HW146249  11.231  12.011   5.905
14784SOL    HW246250  11.277  12.071   5.774
14785SOL     OW46251   0.052  10.646   7.829
14785SOL    HW146252   0.101  10.608   7.756
14785SOL    HW246253   0.006  10.720   7.791
14786SOL     OW46254  13.933   4.390   7.046
14786SOL    HW146255  13.901   4.333   7.116
14786SOL    HW246256  13.884   4.364   6.969
14787SOL     OW46257   5.883   0.010   8.199
14787SOL    HW146258   5.849   0.078   8.141
14787SOL    HW246259   5.962   0.048   8.236
14788SOL     OW46260   3.216   3.391   3.913
14788SOL    HW146261   3.146   3.448   3.880
14788SOL    HW246262   3.275   3.450   3.960
14789SOL     OW46263   5.304   5.960  11.962
14789SOL    HW146264   5.236   5.980  11.898
14789SOL    HW246265   5.373   5.916  11.912
14790SOL     OW46266   3.583  14.530   3.343
14790SOL    HW146267   3.606  14.544   3.435
14790SOL    HW246268   3.667  14.529   3.298
14791SOL     OW46269  13.989   0.752  13.534
14791SOL    HW146270  13.979   0.846  13.522
14791SOL    HW246271  14.002   0.718  13.445
14792SOL     OW46272  12.954   7.511   5.185
14792SOL    HW146273  12.918   7.583   5.133
14792SOL    HW246274  12.950   7.543   5.275
14793SOL     OW46275   6.513   9.280  11.613
14793SOL    HW146276   6.539   9.369  11.589
14793SOL    HW246277   6.580   9.251  11.674
14794SOL     OW46278  12.371   7.621   7.107
14794SOL    HW146279  12.291   7.648   7.153
14794SOL    HW246280  12.426   7.583   7.176
14795SOL     OW46281   8.020   2.297   5.959
14795SOL    HW146282   7.979   2.234   5.900
14795SOL    HW246283   8.108   2.311   5.923
14796SOL     OW46284  13.161  11.543   8.175
14796SOL    HW146285  13.224  11.506   8.112
14796SOL    HW246286  13.137  11.469   8.231
14797SOL     OW46287  14.337   0.455   4.323
14797SOL    HW146288  14.355   0.389   4.390
14797SOL    HW246289  14.243   0.472   4.331
14798SOL     OW46290   8.255   3.317   4.045
14798SOL    HW146291   8.176   3.338   4.095
14798SOL    HW246292   8.224   3.264   3.971
14799SOL     OW46293  11.317  12.574   2.372
14799SOL    HW146294  11.371  12.654   2.374
14799SOL    HW246295  11.228  12.606   2.360
14800SOL     OW46296   2.477   6.128   3.322
14800SOL    HW146297   2.452   6.210   3.365
14800SOL    HW246298   2.415   6.120   3.249
14801SOL     OW46299   1.045  11.492  10.756
14801SOL    HW146300   0.950  11.498  10.758
14801SOL    HW246301   1.064  11.443  10.676
14802SOL     OW46302   2.768   2.675  14.615
14802SOL    HW146303   2.763   2.741  14.684
14802SOL    HW246304   2.861   2.664  14.598
14803SOL     OW46305   8.574   2.737   6.722
14803SOL    HW146306   8.636   2.775   6.659
14803SOL    HW246307   8.510   2.807   6.735
14804SOL     OW46308   1.204  13.068   9.115
14804SOL    HW146309   1.110  13.054   9.106
14804SOL    HW246310   1.216  13.163   9.109
14805SOL     OW46311   3.655  10.971   2.892
14805SOL    HW146312   3.669  10.903   2.958
14805SOL    HW246313   3.651  10.923   2.809
14806SOL     OW46314   2.599  12.511   1.935
14806SOL    HW146315   2.621  12.435   1.881
14806SOL    HW246316   2.529  12.556   1.889
14807SOL     OW46317   0.291  11.051  12.758
14807SOL    HW146318   0.204  11.017  12.777
14807SOL    HW246319   0.304  11.035  12.665
14808SOL     OW46320   9.410   8.740   6.001
14808SOL    HW146321   9.490   8.700   6.036
14808SOL    HW246322   9.434   8.831   5.985
14809SOL     OW46323   1.390   5.317  10.762
14809SOL    HW146324   1.355   5.274  10.840
14809SOL    HW246325   1.313   5.349  10.715
14810SOL     OW46326   9.522   8.498   5.747
14810SOL    HW146327   9.535   8.432   5.679
14810SOL    HW246328   9.455   8.556   5.712
14811SOL     OW46329   1.565  10.365   1.314
14811SOL    HW146330   1.526  10.363   1.401
14811SOL    HW246331   1.522  10.294   1.266
14812SOL     OW46332   2.267   5.403   6.435
14812SOL    HW146333   2.191   5.371   6.386
14812SOL    HW246334   2.251   5.376   6.525
14813SOL     OW46335   6.543  11.726   8.626
14813SOL    HW146336   6.533  11.632   8.610
14813SOL    HW246337   6.493  11.767   8.555
14814SOL     OW46338   6.359  12.835   5.431
14814SOL    HW146339   6.350  12.745   5.462
14814SOL    HW246340   6.368  12.828   5.336
14815SOL     OW46341  14.281  13.822   3.671
14815SOL    HW146342  14.206  13.765   3.652
14815SOL    HW246343  14.357  13.764   3.662
14816SOL     OW46344   3.039   0.974  14.266
14816SOL    HW146345   2.971   0.926  14.313
14816SOL    HW246346   3.063   1.045  14.325
14817SOL     OW46347  10.909   4.641  12.088
14817SOL    HW146348  10.860   4.571  12.044
14817SOL    HW246349  10.844   4.710  12.104
14818SOL     OW46350   2.641  10.456   6.723
14818SOL    HW146351   2.595  10.485   6.644
14818SOL    HW246352   2.639  10.532   6.781
14819SOL     OW46353   2.472   9.533   0.664
14819SOL    HW146354   2.418   9.467   0.620
14819SOL    HW246355   2.484   9.499   0.753
14820SOL     OW46356   6.639  10.191  12.867
14820SOL    HW146357   6.707  10.245  12.908
14820SOL    HW246358   6.687  10.136  12.804
14821SOL     OW46359   6.237   2.237   1.828
14821SOL    HW146360   6.213   2.146   1.809
14821SOL    HW246361   6.214   2.249   1.920
14822SOL     OW46362   6.834  12.961   4.009
14822SOL    HW146363   6.865  12.882   3.963
14822SOL    HW246364   6.822  12.932   4.099
14823SOL     OW46365  12.741   4.780  12.532
14823SOL    HW146366  12.695   4.861  12.554
14823SOL    HW246367  12.756   4.737  12.616
14824SOL     OW46368  14.807  11.937   1.195
14824SOL    HW146369  14.874  11.901   1.137
14824SOL    HW246370  14.788  11.866   1.256
14825SOL     OW46371  13.354  14.067   4.004
14825SOL    HW146372  13.319  14.061   3.915
14825SOL    HW246373  13.373  14.160   4.016
14826SOL     OW46374  10.689   5.495   0.760
14826SOL    HW146375  10.645   5.577   0.738
14826SOL    HW246376  10.755   5.519   0.824
14827SOL     OW46377   6.022   7.269   0.158
14827SOL    HW146378   6.021   7.174   0.147
14827SOL    HW246379   6.107   7.296   0.124
14828SOL     OW46380  13.422  10.177   6.885
14828SOL    HW146381  13.423  10.254   6.828
14828SOL    HW246382  13.352  10.122   6.850
14829SOL     OW46383  11.805  12.740   0.177
14829SOL    HW146384  11.887  12.776   0.142
14829SOL    HW246385  11.742  12.812   0.171
14830SOL     OW46386   9.235   5.985   5.871
14830SOL    HW146387   9.177   6.051   5.909
14830SOL    HW246388   9.280   6.031   5.800
14831SOL     OW46389   4.852  11.324  14.792
14831SOL    HW146390   4.772  11.367  14.761
14831SOL    HW246391   4.922  11.363  14.740
14832SOL     OW46392  14.422   5.113  10.187
14832SOL    HW146393  14.374   5.042  10.145
14832SOL    HW246394  14.367   5.138  10.261
14833SOL     OW46395   7.107   4.783   8.166
14833SOL    HW146396   7.119   4.698   8.208
14833SOL    HW246397   7.161   4.778   8.087
14834SOL     OW46398   9.480   9.423  14.108
14834SOL    HW146399   9.499   9.400  14.199
14834SOL    HW246400   9.534   9.363  14.056
14835SOL     OW46401   0.609  10.504   7.258
14835SOL    HW146402   0.639  10.583   7.302
14835SOL    HW246403   0.612  10.436   7.325
14836SOL     OW46404  14.125  14.001  14.847
14836SOL    HW146405  14.204  13.963  14.886
14836SOL    HW246406  14.075  13.925  14.817
14837SOL     OW46407   8.364   5.928  13.311
14837SOL    HW146408   8.340   6.020  13.300
14837SOL    HW246409   8.328   5.884  13.234
14838SOL     OW46410   4.050   1.915   1.533
14838SOL    HW146411   3.995   1.931   1.456
14838SOL    HW246412   4.031   1.989   1.591
14839SOL     OW46413   1.462   6.524  11.624
14839SOL    HW146414   1.521   6.473  11.680
14839SOL    HW246415   1.514   6.600  11.598
14840SOL     OW46416   9.547   0.851   6.377
14840SOL    HW146417   9.621   0.908   6.354
14840SOL    HW246418   9.470   0.896   6.342
14841SOL     OW46419  14.471   1.840   9.001
14841SOL    HW146420  14.418   1.851   8.922
14841SOL    HW246421  14.551   1.797   8.971
14842SOL     OW46422   7.508   4.622   2.962
14842SOL    HW146423   7.473   4.619   2.873
14842SOL    HW246424   7.514   4.716   2.982
14843SOL     OW46425   2.571   6.337   7.906
14843SOL    HW146426   2.643   6.399   7.920
14843SOL    HW246427   2.573   6.319   7.812
14844SOL     OW46428   2.356  10.538   0.122
14844SOL    HW146429   2.376  10.575   0.208
14844SOL    HW246430   2.271  10.576   0.100
14845SOL     OW46431   8.194   5.405   6.830
14845SOL    HW146432   8.182   5.490   6.788
14845SOL    HW246433   8.285   5.381   6.810
14846SOL     OW46434   5.943   1.972  14.107
14846SOL    HW146435   5.947   2.054  14.156
14846SOL    HW246436   5.926   1.905  14.173
14847SOL     OW46437   6.834   4.933   9.831
14847SOL    HW146438   6.896   4.861   9.818
14847SOL    HW246439   6.883   4.998   9.882
14848SOL     OW46440  12.103  14.814  10.143
14848SOL    HW146441  12.135  14.833  10.055
14848SOL    HW246442  12.158  14.867  10.200
14849SOL     OW46443   1.833   3.786   6.278
14849SOL    HW146444   1.755   3.731   6.272
14849SOL    HW246445   1.870   3.767   6.364
14850SOL     OW46446   7.927  12.398  10.305
14850SOL    HW146447   8.003  12.455  10.292
14850SOL    HW246448   7.961  12.310  10.289
14851SOL     OW46449   5.580  13.151   7.554
14851SOL    HW146450   5.587  13.059   7.578
14851SOL    HW246451   5.491  13.176   7.577
14852SOL     OW46452  13.637  14.370   8.823
14852SOL    HW146453  13.731  14.377   8.807
14852SOL    HW246454  13.597  14.424   8.755
14853SOL     OW46455   4.704   8.603   8.921
14853SOL    HW146456   4.753   8.634   8.845
14853SOL    HW246457   4.650   8.532   8.888
14854SOL     OW46458   6.566  13.155   6.071
14854SOL    HW146459   6.519  13.217   6.127
14854SOL    HW246460   6.619  13.103   6.132
14855SOL     OW46461  14.037   8.123   7.389
14855SOL    HW146462  14.099   8.190   7.360
14855SOL    HW246463  13.979   8.169   7.450
14856SOL     OW46464   3.769   9.900   4.584
14856SOL    HW146465   3.677   9.917   4.603
14856SOL    HW246466   3.773   9.805   4.568
14857SOL     OW46467  14.677   3.810   8.689
14857SOL    HW146468  14.766   3.781   8.666
14857SOL    HW246469  14.673   3.901   8.658
14858SOL     OW46470   7.044   2.850   3.942
14858SOL    HW146471   7.017   2.872   3.853
14858SOL    HW246472   7.084   2.930   3.975
14859SOL     OW46473  13.749  10.764   8.297
14859SOL    HW146474  13.839  10.770   8.266
14859SOL    HW246475  13.715  10.853   8.291
14860SOL     OW46476   4.741   3.603  12.523
14860SOL    HW146477   4.667   3.657  12.496
14860SOL    HW246478   4.760   3.548  12.447
14861SOL     OW46479   2.572   2.442   1.135
14861SOL    HW146480   2.534   2.359   1.104
14861SOL    HW246481   2.564   2.438   1.230
14862SOL     OW46482  13.559   5.966  14.524
14862SOL    HW146483  13.609   5.962  14.606
14862SOL    HW246484  13.624   5.990  14.458
14863SOL     OW46485  12.516   5.166   5.297
14863SOL    HW146486  12.549   5.211   5.220
14863SOL    HW246487  12.487   5.080   5.264
14864SOL     OW46488   7.858   0.611   2.606
14864SOL    HW146489   7.882   0.557   2.531
14864SOL    HW246490   7.925   0.592   2.671
14865SOL     OW46491   8.515   8.751  11.413
14865SOL    HW146492   8.573   8.720  11.343
14865SOL    HW246493   8.500   8.843  11.392
14866SOL     OW46494   8.769  13.198   1.618
14866SOL    HW146495   8.752  13.222   1.709
14866SOL    HW246496   8.748  13.277   1.568
14867SOL     OW46497   5.510   6.056   1.669
14867SOL    HW146498   5.431   6.096   1.632
14867SOL    HW246499   5.500   5.963   1.651
14868SOL     OW46500   2.954   6.027   5.104
14868SOL    HW146501   2.935   6.053   5.194
14868SOL    HW246502   2.900   5.949   5.089
14869SOL     OW46503   5.405  14.285   0.562
14869SOL    HW146504   5.462  14.360   0.543
14869SOL    HW246505   5.465  14.214   0.584
14870SOL     OW46506   7.666   5.958   0.926
14870SOL    HW146507   7.586   5.908   0.911
14870SOL    HW246508   7.703   5.921   1.006
14871SOL     OW46509   5.073   1.470   3.372
14871SOL    HW146510   5.120   1.514   3.301
14871SOL    HW246511   5.020   1.404   3.329
14872SOL     OW46512   3.850  12.078   2.927
14872SOL    HW146513   3.773  12.124   2.894
14872SOL    HW246514   3.874  12.017   2.857
14873SOL     OW46515   1.923   6.214  11.952
14873SOL    HW146516   1.908   6.292  11.900
14873SOL    HW246517   1.906   6.241  12.043
14874SOL     OW46518  12.104  12.233   3.763
14874SOL    HW146519  12.015  12.251   3.733
14874SOL    HW246520  12.159  12.252   3.688
14875SOL     OW46521   5.913  10.655   3.082
14875SOL    HW146522   5.832  10.676   3.129
14875SOL    HW246523   5.885  10.631   2.994
14876SOL     OW46524  12.546   7.376   6.754
14876SOL    HW146525  12.513   7.289   6.733
14876SOL    HW246526  12.557   7.418   6.669
14877SOL     OW46527  11.941  12.361   8.494
14877SOL    HW146528  12.024  12.351   8.541
14877SOL    HW246529  11.952  12.442   8.444
14878SOL     OW46530   1.249   8.322   8.607
14878SOL    HW146531   1.216   8.263   8.675
14878SOL    HW246532   1.332   8.283   8.581
14879SOL     OW46533   3.410   7.185   9.724
14879SOL    HW146534   3.439   7.221   9.808
14879SOL    HW246535   3.436   7.093   9.727
14880SOL     OW46536  14.367   9.513  10.928
14880SOL    HW146537  14.313   9.556  10.995
14880SOL    HW246538  14.366   9.421  10.953
14881SOL     OW46539   9.817   2.692   5.405
14881SOL    HW146540   9.853   2.765   5.355
14881SOL    HW246541   9.796   2.729   5.490
14882SOL     OW46542   2.190  13.978   7.800
14882SOL    HW146543   2.259  13.927   7.757
14882SOL    HW246544   2.157  13.920   7.869
14883SOL     OW46545   3.539   4.857  14.575
14883SOL    HW146546   3.601   4.894  14.638
14883SOL    HW246547   3.520   4.928  14.514
14884SOL     OW46548   4.132  13.855   9.264
14884SOL    HW146549   4.097  13.894   9.345
14884SOL    HW246550   4.215  13.900   9.250
14885SOL     OW46551   4.089   8.499   0.504
14885SOL    HW146552   4.048   8.503   0.418
14885SOL    HW246553   4.155   8.431   0.496
14886SOL     OW46554   2.178   2.938   3.990
14886SOL    HW146555   2.249   2.979   4.039
14886SOL    HW246556   2.100   2.986   4.015
14887SOL     OW46557   6.716   0.248   0.223
14887SOL    HW146558   6.786   0.260   0.160
14887SOL    HW246559   6.754   0.272   0.307
14888SOL     OW46560  10.628   8.572   9.256
14888SOL    HW146561  10.631   8.650   9.201
14888SOL    HW246562  10.561   8.516   9.215
14889SOL     OW46563   8.191   9.195   2.431
14889SOL    HW146564   8.199   9.291   2.432
14889SOL    HW246565   8.107   9.178   2.475
14890SOL     OW46566   0.170   5.731   7.940
14890SOL    HW146567   0.174   5.647   7.986
14890SOL    HW246568   0.249   5.777   7.967
14891SOL     OW46569   0.277   6.467  10.408
14891SOL    HW146570   0.251   6.375  10.404
14891SOL    HW246571   0.271   6.490  10.500
14892SOL     OW46572   3.785   5.602   5.312
14892SOL    HW146573   3.696   5.574   5.334
14892SOL    HW246574   3.772   5.683   5.262
14893SOL     OW46575  13.424   8.741  10.814
14893SOL    HW146576  13.519   8.734  10.816
14893SOL    HW246577  13.404   8.815  10.871
14894SOL     OW46578   2.261   7.348   4.954
14894SOL    HW146579   2.266   7.273   5.013
14894SOL    HW246580   2.177   7.338   4.908
14895SOL     OW46581   4.798   5.392   5.737
14895SOL    HW146582   4.759   5.307   5.719
14895SOL    HW246583   4.833   5.421   5.652
14896SOL     OW46584   5.136   8.582  11.975
14896SOL    HW146585   5.204   8.570  12.041
14896SOL    HW246586   5.086   8.499  11.977
14897SOL     OW46587   2.819   9.739   0.599
14897SOL    HW146588   2.813   9.834   0.584
14897SOL    HW246589   2.772   9.700   0.526
14898SOL     OW46590   5.946  12.596  11.731
14898SOL    HW146591   5.921  12.616  11.821
14898SOL    HW246592   6.041  12.597  11.731
14899SOL     OW46593  10.979   0.551  12.507
14899SOL    HW146594  11.020   0.516  12.586
14899SOL    HW246595  10.933   0.475  12.469
14900SOL     OW46596  10.408  14.521   7.482
14900SOL    HW146597  10.335  14.461   7.497
14900SOL    HW246598  10.419  14.567   7.565
14901SOL     OW46599   3.196  14.615   4.902
14901SOL    HW146600   3.116  14.576   4.867
14901SOL    HW246601   3.181  14.709   4.896
14902SOL     OW46602   9.466   3.801   9.546
14902SOL    HW146603   9.421   3.759   9.473
14902SOL    HW246604   9.493   3.886   9.512
14903SOL     OW46605   1.864   2.447  11.624
14903SOL    HW146606   1.841   2.404  11.542
14903SOL    HW246607   1.865   2.377  11.689
14904SOL     OW46608   1.408   0.646  14.403
14904SOL    HW146609   1.338   0.598  14.447
14904SOL    HW246610   1.438   0.587  14.334
14905SOL     OW46611  10.235   0.084   0.351
14905SOL    HW146612  10.305   0.117   0.295
14905SOL    HW246613  10.220   0.153   0.415
14906SOL     OW46614   6.616   0.515   4.861
14906SOL    HW146615   6.692   0.502   4.918
14906SOL    HW246616   6.653   0.522   4.773
14907SOL     OW46617  11.434   9.561   9.076
14907SOL    HW146618  11.401   9.646   9.049
14907SOL    HW246619  11.357   9.504   9.076
14908SOL     OW46620   1.665  11.375   9.593
14908SOL    HW146621   1.733  11.425   9.638
14908SOL    HW246622   1.684  11.283   9.614
14909SOL     OW46623   4.639  10.508   1.190
14909SOL    HW146624   4.615  10.463   1.109
14909SOL    HW246625   4.581  10.470   1.257
14910SOL     OW46626   7.710  10.629  14.101
14910SOL    HW146627   7.684  10.566  14.168
14910SOL    HW246628   7.740  10.706  14.149
14911SOL     OW46629  11.811   5.948   3.087
14911SOL    HW146630  11.717   5.951   3.068
14911SOL    HW246631  11.818   5.984   3.176
14912SOL     OW46632   6.673   7.468  10.322
14912SOL    HW146633   6.657   7.382  10.282
14912SOL    HW246634   6.748   7.503  10.273
14913SOL     OW46635   0.784   2.810   0.375
14913SOL    HW146636   0.765   2.875   0.443
14913SOL    HW246637   0.862   2.844   0.331
14914SOL     OW46638   4.261  11.372   0.110
14914SOL    HW146639   4.184  11.369   0.053
14914SOL    HW246640   4.226  11.357   0.198
14915SOL     OW46641   5.595   9.390  10.479
14915SOL    HW146642   5.571   9.432  10.397
14915SOL    HW246643   5.690   9.401  10.484
14916SOL     OW46644   3.566   4.782   0.761
14916SOL    HW146645   3.507   4.853   0.736
14916SOL    HW246646   3.580   4.733   0.680
14917SOL     OW46647   2.187  11.532   0.027
14917SOL    HW146648   2.152  11.508   0.113
14917SOL    HW246649   2.282  11.531   0.039
14918SOL     OW46650   7.099   2.045   5.801
14918SOL    HW146651   7.090   1.980   5.871
14918SOL    HW246652   7.119   2.127   5.846
14919SOL     OW46653   8.755  10.012  10.509
14919SOL    HW146654   8.822   9.945  10.501
14919SOL    HW246655   8.773  10.073  10.438
14920SOL     OW46656   2.725   4.561   7.143
14920SOL    HW146657   2.638   4.562   7.103
14920SOL    HW246658   2.782   4.525   7.075
14921SOL     OW46659   5.168   4.995   5.706
14921SOL    HW146660   5.127   4.992   5.792
14921SOL    HW246661   5.260   5.016   5.725
14922SOL     OW46662  13.045  13.551   4.456
14922SOL    HW146663  13.060  13.630   4.508
14922SOL    HW246664  12.990  13.581   4.383
14923SOL     OW46665  12.049   2.997   6.377
14923SOL    HW146666  12.010   2.910   6.371
14923SOL    HW246667  12.123   2.994   6.317
14924SOL     OW46668  13.789   3.451   1.412
14924SOL    HW146669  13.868   3.396   1.416
14924SOL    HW246670  13.723   3.403   1.462
14925SOL     OW46671  12.228  10.351  10.529
14925SOL    HW146672  12.161  10.407  10.570
14925SOL    HW246673  12.181  10.301  10.463
14926SOL     OW46674   8.571   0.847  13.168
14926SOL    HW146675   8.489   0.860  13.216
14926SOL    HW246676   8.546   0.798  13.090
14927SOL     OW46677   5.939   9.815   1.864
14927SOL    HW146678   5.869   9.875   1.837
14927SOL    HW246679   5.969   9.851   1.948
14928SOL     OW46680  11.599  14.532   1.836
14928SOL    HW146681  11.632  14.621   1.853
14928SOL    HW246682  11.503  14.542   1.836
14929SOL     OW46683  10.453   9.111   8.740
14929SOL    HW146684  10.509   9.040   8.772
14929SOL    HW246685  10.476   9.186   8.795
14930SOL     OW46686  10.128   2.988   6.073
14930SOL    HW146687  10.105   3.066   6.123
14930SOL    HW246688  10.196   3.018   6.012
14931SOL     OW46689   9.610   5.642   8.787
14931SOL    HW146690   9.670   5.676   8.720
14931SOL    HW246691   9.668   5.615   8.858
14932SOL     OW46692  13.671   3.098   8.808
14932SOL    HW146693  13.733   3.071   8.876
14932SOL    HW246694  13.599   3.035   8.815
14933SOL     OW46695   4.661   4.750   5.776
14933SOL    HW146696   4.738   4.780   5.824
14933SOL    HW246697   4.594   4.737   5.844
14934SOL     OW46698   1.271   6.565   5.465
14934SOL    HW146699   1.241   6.507   5.395
14934SOL    HW246700   1.301   6.506   5.534
14935SOL     OW46701  12.227  12.835   8.335
14935SOL    HW146702  12.265  12.827   8.248
14935SOL    HW246703  12.259  12.919   8.367
14936SOL     OW46704  13.798   8.318  12.677
14936SOL    HW146705  13.749   8.243  12.710
14936SOL    HW246706  13.866   8.280  12.621
14937SOL     OW46707   7.090   7.706   5.212
14937SOL    HW146708   7.141   7.629   5.185
14937SOL    HW246709   7.127   7.730   5.297
14938SOL     OW46710   9.876   6.928   9.837
14938SOL    HW146711   9.821   6.985   9.783
14938SOL    HW246712   9.827   6.918   9.919
14939SOL     OW46713   2.807   0.673   6.291
14939SOL    HW146714   2.770   0.637   6.210
14939SOL    HW246715   2.838   0.760   6.266
14940SOL     OW46716  11.041   3.614   5.006
14940SOL    HW146717  11.128   3.618   4.966
14940SOL    HW246718  11.053   3.652   5.093
14941SOL     OW46719   3.002   1.427   8.897
14941SOL    HW146720   2.948   1.454   8.823
14941SOL    HW246721   3.019   1.508   8.945
14942SOL     OW46722   5.725   1.670   4.555
14942SOL    HW146723   5.650   1.675   4.496
14942SOL    HW246724   5.784   1.739   4.524
14943SOL     OW46725   8.587   1.672   6.789
14943SOL    HW146726   8.502   1.671   6.745
14943SOL    HW246727   8.641   1.728   6.733
14944SOL     OW46728  10.981  13.420  12.832
14944SOL    HW146729  11.001  13.472  12.754
14944SOL    HW246730  10.948  13.484  12.895
14945SOL     OW46731  11.429   4.834  10.744
14945SOL    HW146732  11.523   4.841  10.759
14945SOL    HW246733  11.408   4.910  10.689
14946SOL     OW46734  12.590   6.479   3.701
14946SOL    HW146735  12.598   6.433   3.617
14946SOL    HW246736  12.497   6.477   3.720
14947SOL     OW46737   2.282   1.435  12.745
14947SOL    HW146738   2.367   1.452  12.704
14947SOL    HW246739   2.246   1.361  12.696
14948SOL     OW46740   2.117   9.511  11.692
14948SOL    HW146741   2.201   9.534  11.652
14948SOL    HW246742   2.064   9.590  11.683
14949SOL     OW46743   5.314   2.536   7.402
14949SOL    HW146744   5.270   2.619   7.383
14949SOL    HW246745   5.253   2.469   7.370
14950SOL     OW46746   7.980   2.153   6.835
14950SOL    HW146747   8.017   2.135   6.749
14950SOL    HW246748   7.908   2.215   6.818
14951SOL     OW46749  13.462   3.464  12.718
14951SOL    HW146750  13.497   3.538  12.669
14951SOL    HW246751  13.401   3.503  12.780
14952SOL     OW46752  12.446   2.234  11.349
14952SOL    HW146753  12.529   2.267  11.315
14952SOL    HW246754  12.389   2.311  11.352
14953SOL     OW46755  14.290  10.310  10.856
14953SOL    HW146756  14.289  10.231  10.909
14953SOL    HW246757  14.284  10.279  10.766
14954SOL     OW46758   0.295   2.987   1.659
14954SOL    HW146759   0.255   3.036   1.731
14954SOL    HW246760   0.262   3.028   1.580
14955SOL     OW46761   8.666   8.746   6.133
14955SOL    HW146762   8.660   8.835   6.167
14955SOL    HW246763   8.640   8.691   6.206
14956SOL     OW46764   3.907   8.457  14.072
14956SOL    HW146765   3.887   8.538  14.024
14956SOL    HW246766   3.988   8.476  14.119
14957SOL     OW46767  11.006  13.728   7.275
14957SOL    HW146768  11.088  13.685   7.251
14957SOL    HW246769  10.966  13.669   7.339
14958SOL     OW46770  14.295  10.002   1.426
14958SOL    HW146771  14.362  10.021   1.491
14958SOL    HW246772  14.212  10.013   1.472
14959SOL     OW46773   0.436   4.302   5.070
14959SOL    HW146774   0.487   4.383   5.069
14959SOL    HW246775   0.357   4.323   5.020
14960SOL     OW46776   7.470  13.753  12.242
14960SOL    HW146777   7.499  13.809  12.314
14960SOL    HW246778   7.435  13.814  12.176
14961SOL     OW46779   1.269   2.222   6.127
14961SOL    HW146780   1.235   2.133   6.142
14961SOL    HW246781   1.266   2.233   6.032
14962SOL     OW46782   5.005  11.781  10.526
14962SOL    HW146783   4.962  11.737  10.453
14962SOL    HW246784   5.080  11.825  10.487
14963SOL     OW46785  12.376  11.347   0.445
14963SOL    HW146786  12.312  11.315   0.509
14963SOL    HW246787  12.341  11.320   0.360
14964SOL     OW46788  10.194   4.797   6.829
14964SOL    HW146789  10.241   4.715   6.841
14964SOL    HW246790  10.233   4.837   6.752
14965SOL     OW46791   2.531   3.817   5.769
14965SOL    HW146792   2.483   3.892   5.804
14965SOL    HW246793   2.485   3.740   5.804
14966SOL     OW46794   6.508  12.922   9.727
14966SOL    HW146795   6.536  12.982   9.657
14966SOL    HW246796   6.575  12.854   9.728
14967SOL     OW46797   6.752   8.628   9.703
14967SOL    HW146798   6.726   8.660   9.617
14967SOL    HW246799   6.786   8.704   9.748
14968SOL     OW46800   2.058   0.011  14.232
14968SOL    HW146801   1.991  14.869  14.294
14968SOL    HW246802   2.009   0.055  14.163
14969SOL     OW46803   8.345   3.910   3.475
14969SOL    HW146804   8.260   3.867   3.485
14969SOL    HW246805   8.404   3.839   3.449
14970SOL     OW46806  13.460   9.782  10.019
14970SOL    HW146807  13.377   9.829  10.033
14970SOL    HW246808  13.493   9.817   9.937
14971SOL     OW46809   5.996  14.271  10.537
14971SOL    HW146810   6.044  14.317  10.468
14971SOL    HW246811   5.958  14.341  10.590
14972SOL     OW46812   4.581   6.986   1.067
14972SOL    HW146813   4.614   6.897   1.079
14972SOL    HW246814   4.633   7.023   0.996
14973SOL     OW46815  10.918  14.425   2.772
14973SOL    HW146816  10.994  14.462   2.728
14973SOL    HW246817  10.844  14.451   2.717
14974SOL     OW46818   4.967   5.218   7.019
14974SOL    HW146819   5.012   5.134   7.012
14974SOL    HW246820   4.999   5.270   6.945
14975SOL     OW46821  11.755   9.923   8.061
14975SOL    HW146822  11.683   9.862   8.073
14975SOL    HW246823  11.718   9.995   8.010
14976SOL     OW46824   4.477  13.267   7.400
14976SOL    HW146825   4.462  13.178   7.369
14976SOL    HW246826   4.404  13.285   7.459
14977SOL     OW46827  13.903  13.734  11.819
14977SOL    HW146828  13.957  13.761  11.894
14977SOL    HW246829  13.862  13.653  11.847
14978SOL     OW46830  14.523   9.556   9.345
14978SOL    HW146831  14.492   9.493   9.411
14978SOL    HW246832  14.446   9.608   9.324
14979SOL     OW46833   1.383   0.277   0.739
14979SOL    HW146834   1.440   0.325   0.799
14979SOL    HW246835   1.364   0.195   0.783
14980SOL     OW46836  11.702   5.119   7.590
14980SOL    HW146837  11.707   5.182   7.662
14980SOL    HW246838  11.652   5.163   7.522
14981SOL     OW46839   6.759  13.823   6.789
14981SOL    HW146840   6.807  13.780   6.860
14981SOL    HW246841   6.774  13.767   6.712
14982SOL     OW46842   9.079   3.559   8.319
14982SOL    HW146843   9.123   3.625   8.266
14982SOL    HW246844   8.988   3.590   8.324
14983SOL     OW46845  10.981   3.111   1.838
14983SOL    HW146846  11.051   3.084   1.779
14983SOL    HW246847  10.935   3.181   1.791
14984SOL     OW46848   1.924  14.266   0.400
14984SOL    HW146849   2.001  14.316   0.428
14984SOL    HW246850   1.951  14.222   0.319
14985SOL     OW46851  14.160  13.108   0.791
14985SOL    HW146852  14.111  13.183   0.823
14985SOL    HW246853  14.192  13.135   0.705
14986SOL     OW46854   5.297   8.759   1.067
14986SOL    HW146855   5.387   8.766   1.096
14986SOL    HW246856   5.259   8.691   1.122
14987SOL     OW46857   1.959  12.301   8.159
14987SOL    HW146858   2.049  12.322   8.185
14987SOL    HW246859   1.904  12.358   8.212
14988SOL     OW46860  13.256  12.266   0.929
14988SOL    HW146861  13.259  12.295   1.020
14988SOL    HW246862  13.175  12.215   0.923
14989SOL     OW46863  13.855   9.056   1.089
14989SOL    HW146864  13.892   9.143   1.104
14989SOL    HW246865  13.824   9.028   1.176
14990SOL     OW46866   0.457   8.878  11.204
14990SOL    HW146867   0.407   8.950  11.166
14990SOL    HW246868   0.410   8.856  11.285
14991SOL     OW46869   9.787   7.401   6.383
14991SOL    HW146870   9.769   7.347   6.460
14991SOL    HW246871   9.701   7.432   6.355
14992SOL     OW46872   3.563   5.207   5.409
14992SOL    HW146873   3.642   5.192   5.461
14992SOL    HW246874   3.567   5.143   5.339
14993SOL     OW46875   6.535   3.020  10.908
14993SOL    HW146876   6.449   3.062  10.896
14993SOL    HW246877   6.518   2.927  10.893
14994SOL     OW46878   0.060  13.534   4.094
14994SOL    HW146879   0.152  13.510   4.082
14994SOL    HW246880   0.025  13.466   4.152
14995SOL     OW46881   6.699  10.643   6.169
14995SOL    HW146882   6.744  10.696   6.103
14995SOL    HW246883   6.662  10.707   6.229
14996SOL     OW46884   9.498   5.995   0.428
14996SOL    HW146885   9.419   5.948   0.400
14996SOL    HW246886   9.464   6.072   0.473
14997SOL     OW46887   3.998   7.486   6.499
14997SOL    HW146888   4.049   7.486   6.418
14997SOL    HW246889   4.046   7.545   6.557
14998SOL     OW46890   6.204  11.042   6.297
14998SOL    HW146891   6.287  11.019   6.255
14998SOL    HW246892   6.216  11.014   6.388
14999SOL     OW46893   9.973   9.828   5.715
14999SOL    HW146894   9.920   9.906   5.734
14999SOL    HW246895   9.923   9.782   5.647
15000SOL     OW46896  14.232   2.410  11.029
15000SOL    HW146897  14.153   2.464  11.033
15000SOL    HW246898  14.282   2.448  10.956
15001SOL     OW46899  11.393   9.974   9.271
15001SOL    HW146900  11.420   9.928   9.191
15001SOL    HW246901  11.300   9.955   9.279
15002SOL     OW46902  10.327  12.278  14.253
15002SOL    HW146903  10.234  12.297  14.240
15002SOL    HW246904  10.330  12.186  14.279
15003SOL     OW46905   4.622   2.891   9.580
15003SOL    HW146906   4.580   2.977   9.570
15003SOL    HW246907   4.549   2.831   9.596
15004SOL     OW46908  14.506   3.439   5.102
15004SOL    HW146909  14.435   3.426   5.164
15004SOL    HW246910  14.575   3.379   5.130
15005SOL     OW46911  11.823   0.514   6.882
15005SOL    HW146912  11.901   0.567   6.898
15005SOL    HW246913  11.759   0.575   6.847
15006SOL     OW46914   4.667   3.181   1.349
15006SOL    HW146915   4.655   3.123   1.274
15006SOL    HW246916   4.760   3.171   1.372
15007SOL     OW46917   9.992   8.247   0.460
15007SOL    HW146918   9.960   8.306   0.392
15007SOL    HW246919   9.983   8.160   0.421
15008SOL     OW46920  13.095   2.642   1.469
15008SOL    HW146921  13.050   2.588   1.404
15008SOL    HW246922  13.187   2.617   1.460
15009SOL     OW46923   3.188   7.622   7.747
15009SOL    HW146924   3.223   7.536   7.724
15009SOL    HW246925   3.101   7.604   7.783
15010SOL     OW46926   4.779   8.317   6.120
15010SOL    HW146927   4.788   8.336   6.027
15010SOL    HW246928   4.787   8.222   6.126
15011SOL     OW46929   8.147   9.120   3.023
15011SOL    HW146930   8.103   9.199   2.991
15011SOL    HW246931   8.112   9.106   3.111
15012SOL     OW46932  10.904  12.832   6.970
15012SOL    HW146933  10.846  12.899   7.005
15012SOL    HW246934  10.847  12.757   6.953
15013SOL     OW46935   8.435   6.300   4.481
15013SOL    HW146936   8.510   6.360   4.481
15013SOL    HW246937   8.454   6.238   4.551
15014SOL     OW46938   8.894   9.148   3.737
15014SOL    HW146939   8.943   9.086   3.683
15014SOL    HW246940   8.814   9.165   3.687
15015SOL     OW46941   6.114   0.483  13.872
15015SOL    HW146942   6.072   0.402  13.899
15015SOL    HW246943   6.057   0.552  13.906
15016SOL     OW46944  10.165  14.405   6.283
15016SOL    HW146945  10.254  14.441   6.292
15016SOL    HW246946  10.111  14.461   6.338
15017SOL     OW46947   7.085   4.124   0.032
15017SOL    HW146948   7.043   4.201  14.881
15017SOL    HW246949   7.176   4.152   0.048
15018SOL     OW46950  12.073  11.775  10.406
15018SOL    HW146951  12.090  11.759  10.499
15018SOL    HW246952  12.073  11.688  10.366
15019SOL     OW46953   7.305  13.833   2.848
15019SOL    HW146954   7.347  13.841   2.762
15019SOL    HW246955   7.371  13.863   2.910
15020SOL     OW46956   7.343  14.627   6.757
15020SOL    HW146957   7.428  14.595   6.788
15020SOL    HW246958   7.306  14.555   6.707
15021SOL     OW46959   5.725   0.732   6.825
15021SOL    HW146960   5.783   0.802   6.855
15021SOL    HW246961   5.760   0.708   6.739
15022SOL     OW46962   8.381  10.376   7.785
15022SOL    HW146963   8.337  10.329   7.715
15022SOL    HW246964   8.379  10.316   7.860
15023SOL     OW46965   1.043   1.963  12.558
15023SOL    HW146966   0.989   2.034  12.521
15023SOL    HW246967   1.113   2.008  12.605
15024SOL     OW46968   5.346  12.620  12.124
15024SOL    HW146969   5.294  12.694  12.093
15024SOL    HW246970   5.286  12.568  12.176
15025SOL     OW46971  10.705   3.288   0.718
15025SOL    HW146972  10.704   3.260   0.626
15025SOL    HW246973  10.786   3.338   0.726
15026SOL     OW46974   5.114   4.316   1.208
15026SOL    HW146975   5.077   4.293   1.293
15026SOL    HW246976   5.042   4.306   1.146
15027SOL     OW46977   0.286  14.232  14.278
15027SOL    HW146978   0.308  14.187  14.196
15027SOL    HW246979   0.250  14.316  14.250
15028SOL     OW46980  13.989   6.044  13.557
15028SOL    HW146981  13.895   6.054  13.542
15028SOL    HW246982  14.014   6.124  13.603
15029SOL     OW46983  12.103  12.220   0.185
15029SOL    HW146984  12.076  12.306   0.216
15029SOL    HW246985  12.198  12.219   0.196
15030SOL     OW46986   1.216  14.428   9.436
15030SOL    HW146987   1.218  14.512   9.481
15030SOL    HW246988   1.275  14.439   9.361
15031SOL     OW46989   7.613  13.532   6.739
15031SOL    HW146990   7.536  13.475   6.735
15031SOL    HW246991   7.682  13.476   6.775
15032SOL     OW46992   0.431   3.470   6.598
15032SOL    HW146993   0.406   3.378   6.593
15032SOL    HW246994   0.447   3.485   6.691
15033SOL     OW46995  10.027  11.539   8.889
15033SOL    HW146996   9.940  11.549   8.852
15033SOL    HW246997  10.024  11.587   8.972
15034SOL     OW46998   4.929   1.628   6.352
15034SOL    HW146999   4.839   1.621   6.382
15034SOL    HW247000   4.944   1.548   6.302
15035SOL     OW47001   9.807   1.303   1.373
15035SOL    HW147002   9.787   1.212   1.396
15035SOL    HW247003   9.775   1.312   1.284
15036SOL     OW47004  12.833  10.201   7.270
15036SOL    HW147005  12.871  10.197   7.358
15036SOL    HW247006  12.826  10.295   7.252
15037SOL     OW47007   9.850   9.102  10.731
15037SOL    HW147008   9.867   9.009  10.711
15037SOL    HW247009   9.914   9.123  10.799
15038SOL     OW47010   2.675   1.814   4.735
15038SOL    HW147011   2.617   1.772   4.671
15038SOL    HW247012   2.722   1.881   4.685
15039SOL     OW47013   8.652   4.584  11.609
15039SOL    HW147014   8.650   4.489  11.598
15039SOL    HW247015   8.616   4.618  11.527
15040SOL     OW47016   1.814  11.664  11.207
15040SOL    HW147017   1.779  11.655  11.119
15040SOL    HW247018   1.829  11.758  11.218
15041SOL     OW47019  10.321   6.763   7.319
15041SOL    HW147020  10.404   6.811   7.322
15041SOL    HW247021  10.255   6.829   7.341
15042SOL     OW47022   3.020   5.552  10.289
15042SOL    HW147023   2.971   5.575  10.210
15042SOL    HW247024   3.089   5.494  10.259
15043SOL     OW47025   5.345   6.988   4.358
15043SOL    HW147026   5.301   6.951   4.435
15043SOL    HW247027   5.320   6.930   4.286
15044SOL     OW47028   5.452   0.783   3.673
15044SOL    HW147029   5.446   0.706   3.616
15044SOL    HW247030   5.423   0.752   3.759
15045SOL     OW47031  14.046   5.803   4.332
15045SOL    HW147032  13.961   5.845   4.319
15045SOL    HW247033  14.065   5.815   4.425
15046SOL     OW47034  12.891  14.312   0.690
15046SOL    HW147035  12.865  14.328   0.600
15046SOL    HW247036  12.912  14.218   0.693
15047SOL     OW47037   8.363   1.126   8.708
15047SOL    HW147038   8.431   1.165   8.653
15047SOL    HW247039   8.281   1.148   8.664
15048SOL     OW47040  12.843   1.428  13.444
15048SOL    HW147041  12.876   1.510  13.481
15048SOL    HW247042  12.764   1.454  13.396
15049SOL     OW47043  13.877  11.791   4.047
15049SOL    HW147044  13.836  11.712   4.013
15049SOL    HW247045  13.901  11.769   4.137
15050SOL     OW47046  10.004  10.119   0.536
15050SOL    HW147047   9.930  10.065   0.509
15050SOL    HW247048  10.007  10.111   0.631
15051SOL     OW47049   4.884   9.569  11.747
15051SOL    HW147050   4.884   9.510  11.822
15051SOL    HW247051   4.805   9.622  11.758
15052SOL     OW47052  13.622   7.228   3.701
15052SOL    HW147053  13.543   7.201   3.749
15052SOL    HW247054  13.688   7.164   3.728
15053SOL     OW47055  10.171   8.239  13.188
15053SOL    HW147056  10.092   8.203  13.146
15053SOL    HW247057  10.241   8.219  13.127
15054SOL     OW47058   8.392   8.812   5.347
15054SOL    HW147059   8.421   8.873   5.279
15054SOL    HW247060   8.351   8.740   5.299
15055SOL     OW47061   8.950   3.320  10.548
15055SOL    HW147062   8.898   3.270  10.485
15055SOL    HW247063   8.923   3.287  10.634
15056SOL     OW47064  10.746   9.207   6.972
15056SOL    HW147065  10.679   9.259   7.016
15056SOL    HW247066  10.824   9.217   7.027
15057SOL     OW47067   6.584   4.223   4.089
15057SOL    HW147068   6.670   4.185   4.073
15057SOL    HW247069   6.582   4.239   4.184
15058SOL     OW47070  11.777   0.468   0.721
15058SOL    HW147071  11.769   0.558   0.753
15058SOL    HW247072  11.736   0.470   0.634
15059SOL     OW47073   2.018   6.181   6.778
15059SOL    HW147074   1.923   6.192   6.787
15059SOL    HW247075   2.055   6.230   6.852
15060SOL     OW47076   2.665   1.426   6.377
15060SOL    HW147077   2.624   1.506   6.410
15060SOL    HW247078   2.754   1.452   6.354
15061SOL     OW47079   1.650   5.391  11.804
15061SOL    HW147080   1.591   5.344  11.863
15061SOL    HW247081   1.645   5.343  11.722
15062SOL     OW47082   5.939   0.618  11.706
15062SOL    HW147083   5.901   0.533  11.729
15062SOL    HW247084   6.028   0.616  11.741
15063SOL     OW47085   9.461   7.132   4.653
15063SOL    HW147086   9.527   7.201   4.646
15063SOL    HW247087   9.502   7.055   4.614
15064SOL     OW47088   7.785  11.896  12.526
15064SOL    HW147089   7.809  11.815  12.572
15064SOL    HW247090   7.708  11.928  12.572
15065SOL     OW47091   7.535   6.743   1.002
15065SOL    HW147092   7.474   6.812   1.028
15065SOL    HW247093   7.490   6.697   0.930
15066SOL     OW47094   4.806  10.802  12.086
15066SOL    HW147095   4.822  10.791  11.992
15066SOL    HW247096   4.849  10.727  12.127
15067SOL     OW47097   1.133  11.730   8.968
15067SOL    HW147098   1.148  11.637   8.981
15067SOL    HW247099   1.058  11.751   9.024
15068SOL     OW47100   5.775   0.692   0.714
15068SOL    HW147101   5.681   0.683   0.731
15068SOL    HW247102   5.816   0.667   0.796
15069SOL     OW47103   9.087   3.319  12.663
15069SOL    HW147104   9.057   3.230  12.683
15069SOL    HW247105   9.108   3.317  12.570
15070SOL     OW47106   6.257   7.967   0.849
15070SOL    HW147107   6.284   7.881   0.816
15070SOL    HW247108   6.262   7.958   0.944
15071SOL     OW47109   7.126   3.789   2.286
15071SOL    HW147110   7.191   3.718   2.288
15071SOL    HW247111   7.170   3.863   2.328
15072SOL     OW47112  11.199   3.864  10.188
15072SOL    HW147113  11.136   3.888  10.119
15072SOL    HW247114  11.221   3.773  10.169
15073SOL     OW47115   4.669   4.290  11.397
15073SOL    HW147116   4.732   4.224  11.426
15073SOL    HW247117   4.718   4.372  11.398
15074SOL     OW47118   8.416  12.206   3.672
15074SOL    HW147119   8.462  12.201   3.588
15074SOL    HW247120   8.485  12.194   3.738
15075SOL     OW47121   5.255   1.095   2.686
15075SOL    HW147122   5.329   1.113   2.744
15075SOL    HW247123   5.291   1.105   2.598
15076SOL     OW47124  14.636  13.045  11.274
15076SOL    HW147125  14.713  13.028  11.220
15076SOL    HW247126  14.634  12.973  11.337
15077SOL     OW47127   4.554   1.536   1.965
15077SOL    HW147128   4.600   1.462   2.005
15077SOL    HW247129   4.538   1.597   2.037
15078SOL     OW47130  10.112   4.329   8.389
15078SOL    HW147131  10.066   4.370   8.316
15078SOL    HW247132  10.120   4.399   8.454
15079SOL     OW47133   3.719   6.802   1.163
15079SOL    HW147134   3.795   6.851   1.196
15079SOL    HW247135   3.653   6.869   1.146
15080SOL     OW47136  12.519   3.989   9.710
15080SOL    HW147137  12.557   3.908   9.745
15080SOL    HW247138  12.555   3.996   9.622
15081SOL     OW47139   7.924  14.315   2.871
15081SOL    HW147140   7.963  14.402   2.877
15081SOL    HW247141   7.858  14.313   2.940
15082SOL     OW47142   1.625   8.902   0.323
15082SOL    HW147143   1.612   8.933   0.413
15082SOL    HW247144   1.537   8.895   0.287
15083SOL     OW47145   5.033   2.514  12.265
15083SOL    HW147146   5.043   2.422  12.290
15083SOL    HW247147   5.098   2.561  12.318
15084SOL     OW47148  13.750  13.037   7.033
15084SOL    HW147149  13.802  13.114   7.053
15084SOL    HW247150  13.784  12.969   7.090
15085SOL     OW47151  13.399   5.462   4.604
15085SOL    HW147152  13.374   5.398   4.670
15085SOL    HW247153  13.460   5.415   4.547
15086SOL     OW47154   0.707   2.815  10.482
15086SOL    HW147155   0.616   2.792  10.464
15086SOL    HW247156   0.705   2.909  10.502
15087SOL     OW47157   0.650   4.592   9.823
15087SOL    HW147158   0.581   4.653   9.798
15087SOL    HW247159   0.731   4.634   9.794
15088SOL     OW47160  11.700   1.246  14.289
15088SOL    HW147161  11.782   1.200  14.303
15088SOL    HW247162  11.698   1.264  14.195
15089SOL     OW47163  10.770   5.117   9.684
15089SOL    HW147164  10.819   5.181   9.632
15089SOL    HW247165  10.837   5.060   9.721
15090SOL     OW47166  13.647  11.959  10.099
15090SOL    HW147167  13.688  12.001  10.175
15090SOL    HW247168  13.667  11.866  10.109
15091SOL     OW47169   8.023   1.511  11.253
15091SOL    HW147170   8.100   1.568  11.249
15091SOL    HW247171   7.986   1.515  11.164
15092SOL     OW47172  14.197   1.582   9.090
15092SOL    HW147173  14.286   1.548   9.089
15092SOL    HW247174  14.176   1.591   9.183
15093SOL     OW47175   6.566   3.541   7.190
15093SOL    HW147176   6.556   3.634   7.173
15093SOL    HW247177   6.602   3.504   7.109
15094SOL     OW47178   9.029  10.856  12.048
15094SOL    HW147179   9.051  10.884  11.959
15094SOL    HW247180   8.933  10.855  12.050
15095SOL     OW47181   3.721  12.248   2.590
15095SOL    HW147182   3.802  12.198   2.590
15095SOL    HW247183   3.716  12.287   2.677
15096SOL     OW47184  12.305  10.875   2.354
15096SOL    HW147185  12.358  10.801   2.325
15096SOL    HW247186  12.358  10.918   2.420
15097SOL     OW47187   1.052  11.085   1.482
15097SOL    HW147188   1.030  11.040   1.564
15097SOL    HW247189   1.006  11.169   1.489
15098SOL     OW47190   8.361   5.571   5.170
15098SOL    HW147191   8.411   5.523   5.103
15098SOL    HW247192   8.424   5.591   5.238
15099SOL     OW47193   9.154  14.811   3.373
15099SOL    HW147194   9.138  14.735   3.429
15099SOL    HW247195   9.215  14.780   3.306
15100SOL     OW47196   4.401   0.221   5.186
15100SOL    HW147197   4.459   0.156   5.226
15100SOL    HW247198   4.455   0.299   5.177
15101SOL     OW47199  10.441   5.950  13.122
15101SOL    HW147200  10.406   6.000  13.048
15101SOL    HW247201  10.393   5.867  13.120
15102SOL     OW47202   8.173   4.288   2.883
15102SOL    HW147203   8.194   4.219   2.945
15102SOL    HW247204   8.164   4.243   2.799
15103SOL     OW47205   0.395   2.429   2.799
15103SOL    HW147206   0.323   2.481   2.836
15103SOL    HW247207   0.351   2.355   2.757
15104SOL     OW47208  12.390   4.158   6.510
15104SOL    HW147209  12.399   4.173   6.416
15104SOL    HW247210  12.299   4.182   6.529
15105SOL     OW47211  14.562   9.198   2.189
15105SOL    HW147212  14.608   9.128   2.142
15105SOL    HW247213  14.568   9.274   2.132
15106SOL     OW47214   1.709   6.219   0.691
15106SOL    HW147215   1.651   6.166   0.745
15106SOL    HW247216   1.711   6.305   0.734
15107SOL     OW47217  10.613   7.481   9.675
15107SOL    HW147218  10.666   7.547   9.721
15107SOL    HW247219  10.659   7.398   9.692
15108SOL     OW47220   8.488  13.770   1.273
15108SOL    HW147221   8.558  13.792   1.334
15108SOL    HW247222   8.409  13.809   1.310
15109SOL     OW47223   8.252  13.418  12.852
15109SOL    HW147224   8.211  13.424  12.938
15109SOL    HW247225   8.235  13.328  12.824
15110SOL     OW47226  12.227   9.921   9.822
15110SOL    HW147227  12.278  10.002   9.818
15110SOL    HW247228  12.251   9.882   9.906
15111SOL     OW47229  12.750   7.849   7.807
15111SOL    HW147230  12.667   7.810   7.834
15111SOL    HW247231  12.725   7.923   7.752
15112SOL     OW47232  11.543   4.545  10.196
15112SOL    HW147233  11.557   4.574  10.106
15112SOL    HW247234  11.516   4.623  10.244
15113SOL     OW47235  11.752   4.556  11.006
15113SOL    HW147236  11.784   4.466  11.008
15113SOL    HW247237  11.759   4.582  10.914
15114SOL     OW47238   0.833  14.875   8.333
15114SOL    HW147239   0.838  14.828   8.416
15114SOL    HW247240   0.820  14.806   8.268
15115SOL     OW47241  11.327   9.262   5.212
15115SOL    HW147242  11.413   9.298   5.193
15115SOL    HW247243  11.334   9.168   5.193
15116SOL     OW47244  14.599  11.365   8.652
15116SOL    HW147245  14.548  11.388   8.730
15116SOL    HW247246  14.578  11.435   8.590
15117SOL     OW47247  12.204  13.060   2.291
15117SOL    HW147248  12.140  13.057   2.362
15117SOL    HW247249  12.227  12.968   2.274
15118SOL     OW47250   5.230   4.562   1.998
15118SOL    HW147251   5.273   4.645   2.018
15118SOL    HW247252   5.153   4.586   1.946
15119SOL     OW47253  12.666   0.423   8.863
15119SOL    HW147254  12.633   0.347   8.911
15119SOL    HW247255  12.728   0.464   8.924
15120SOL     OW47256   6.959   1.808   6.980
15120SOL    HW147257   6.865   1.796   6.966
15120SOL    HW247258   6.993   1.841   6.897
15121SOL     OW47259  13.301   2.355   2.346
15121SOL    HW147260  13.272   2.335   2.435
15121SOL    HW247261  13.223   2.345   2.292
15122SOL     OW47262   0.175   1.694  12.080
15122SOL    HW147263   0.133   1.705  11.995
15122SOL    HW247264   0.269   1.703  12.062
15123SOL     OW47265   2.159   1.501  13.551
15123SOL    HW147266   2.226   1.528  13.488
15123SOL    HW247267   2.089   1.464  13.498
15124SOL     OW47268   4.224   8.099  11.231
15124SOL    HW147269   4.286   8.151  11.281
15124SOL    HW247270   4.178   8.047  11.297
15125SOL     OW47271   2.864   4.817   2.317
15125SOL    HW147272   2.956   4.793   2.309
15125SOL    HW247273   2.819   4.764   2.251
15126SOL     OW47274   5.521  12.199   4.783
15126SOL    HW147275   5.590  12.182   4.848
15126SOL    HW247276   5.511  12.116   4.736
15127SOL     OW47277   4.181   7.590   7.940
15127SOL    HW147278   4.179   7.658   7.873
15127SOL    HW247279   4.151   7.634   8.020
15128SOL     OW47280   0.072   8.910  14.425
15128SOL    HW147281  14.866   8.928  14.415
15128SOL    HW247282   0.108   8.992  14.460
15129SOL     OW47283  14.817   1.236  13.638
15129SOL    HW147284  14.857   1.153  13.662
15129SOL    HW247285  14.855   1.258  13.553
15130SOL     OW47286  10.036  14.326   7.001
15130SOL    HW147287   9.955  14.298   6.959
15130SOL    HW247288  10.049  14.416   6.971
15131SOL     OW47289  12.007  11.479   5.132
15131SOL    HW147290  12.050  11.523   5.205
15131SOL    HW247291  11.984  11.392   5.166
15132SOL     OW47292   0.837   5.689   7.417
15132SOL    HW147293   0.786   5.637   7.480
15132SOL    HW247294   0.836   5.778   7.453
15133SOL     OW47295   4.271  11.458   5.577
15133SOL    HW147296   4.244  11.548   5.560
15133SOL    HW247297   4.353  11.448   5.529
15134SOL     OW47298  12.552   4.307   6.658
15134SOL    HW147299  12.503   4.249   6.600
15134SOL    HW247300  12.636   4.262   6.672
15135SOL     OW47301   5.277  13.558  12.874
15135SOL    HW147302   5.217  13.629  12.894
15135SOL    HW247303   5.220  13.483  12.857
15136SOL     OW47304   6.069   6.311  14.641
15136SOL    HW147305   6.107   6.223  14.644
15136SOL    HW247306   6.020   6.313  14.559
15137SOL     OW47307  11.191  13.298   5.613
15137SOL    HW147308  11.165  13.339   5.696
15137SOL    HW247309  11.204  13.372   5.553
15138SOL     OW47310   2.370   3.641  11.756
15138SOL    HW147311   2.282   3.620  11.722
15138SOL    HW247312   2.389   3.728  11.721
15139SOL     OW47313   3.372   3.073   7.059
15139SOL    HW147314   3.461   3.079   7.024
15139SOL    HW247315   3.319   3.043   6.985
15140SOL     OW47316   4.311   7.332  11.476
15140SOL    HW147317   4.281   7.314  11.565
15140SOL    HW247318   4.400   7.297  11.473
15141SOL     OW47319   0.109   1.389  13.820
15141SOL    HW147320   0.061   1.309  13.799
15141SOL    HW247321   0.199   1.371  13.794
15142SOL     OW47322   4.191   5.605   2.704
15142SOL    HW147323   4.200   5.699   2.687
15142SOL    HW247324   4.163   5.600   2.796
15143SOL     OW47325   6.190  13.363  12.646
15143SOL    HW147326   6.269  13.415  12.664
15143SOL    HW247327   6.181  13.366  12.551
15144SOL     OW47328   0.346   8.073   3.685
15144SOL    HW147329   0.318   7.984   3.707
15144SOL    HW247330   0.267   8.116   3.653
15145SOL     OW47331   3.204   9.260   1.452
15145SOL    HW147332   3.294   9.257   1.419
15145SOL    HW247333   3.169   9.172   1.435
15146SOL     OW47334  12.403   3.067   0.591
15146SOL    HW147335  12.460   3.143   0.581
15146SOL    HW247336  12.452   2.994   0.553
15147SOL     OW47337   8.724   7.308   8.722
15147SOL    HW147338   8.743   7.361   8.644
15147SOL    HW247339   8.640   7.341   8.754
15148SOL     OW47340   9.412   1.846   4.243
15148SOL    HW147341   9.341   1.896   4.202
15148SOL    HW247342   9.465   1.912   4.288
15149SOL     OW47343  11.220  10.414  10.696
15149SOL    HW147344  11.170  10.334  10.712
15149SOL    HW247345  11.231  10.416  10.601
15150SOL     OW47346   0.994   4.305   3.118
15150SOL    HW147347   1.003   4.218   3.158
15150SOL    HW247348   0.985   4.364   3.193
15151SOL     OW47349  11.171  14.668   3.414
15151SOL    HW147350  11.076  14.681   3.414
15151SOL    HW247351  11.195  14.656   3.322
15152SOL     OW47352   2.191  12.680   0.873
15152SOL    HW147353   2.205  12.633   0.954
15152SOL    HW247354   2.096  12.684   0.863
15153SOL     OW47355   6.033   6.265  13.452
15153SOL    HW147356   6.023   6.200  13.382
15153SOL    HW247357   6.061   6.345  13.406
15154SOL     OW47358   0.312   0.550   9.739
15154SOL    HW147359   0.355   0.465   9.726
15154SOL    HW247360   0.222   0.536   9.709
15155SOL     OW47361  14.405   4.523  14.179
15155SOL    HW147362  14.392   4.428  14.188
15155SOL    HW247363  14.324   4.561  14.213
15156SOL     OW47364   4.167  10.354   0.828
15156SOL    HW147365   4.223  10.431   0.829
15156SOL    HW247366   4.078  10.388   0.840
15157SOL     OW47367   3.715  11.688   4.047
15157SOL    HW147368   3.645  11.632   4.015
15157SOL    HW247369   3.677  11.776   4.047
15158SOL     OW47370  13.452   9.713   3.358
15158SOL    HW147371  13.383   9.707   3.424
15158SOL    HW247372  13.512   9.779   3.392
15159SOL     OW47373  13.269   9.297  10.682
15159SOL    HW147374  13.195   9.348  10.715
15159SOL    HW247375  13.247   9.206  10.704
15160SOL     OW47376  11.348   1.466   0.093
15160SOL    HW147377  11.393   1.537   0.047
15160SOL    HW247378  11.292   1.511   0.156
15161SOL     OW47379  13.962   4.410   5.324
15161SOL    HW147380  13.945   4.319   5.301
15161SOL    HW247381  13.984   4.452   5.241
15162SOL     OW47382   8.702   9.285   2.950
15162SOL    HW147383   8.698   9.299   3.045
15162SOL    HW247384   8.664   9.365   2.913
15163SOL     OW47385  10.367  14.091   4.777
15163SOL    HW147386  10.352  14.162   4.715
15163SOL    HW247387  10.303  14.024   4.754
15164SOL     OW47388  13.953   9.294   1.128
15164SOL    HW147389  13.949   9.336   1.042
15164SOL    HW247390  13.937   9.366   1.190
15165SOL     OW47391  13.895   9.612   4.892
15165SOL    HW147392  13.832   9.592   4.823
15165SOL    HW247393  13.847   9.668   4.953
15166SOL     OW47394  14.426   9.799  13.081
15166SOL    HW147395  14.413   9.872  13.020
15166SOL    HW247396  14.399   9.722  13.031
15167SOL     OW47397   7.665  12.382   9.734
15167SOL    HW147398   7.690  12.463   9.688
15167SOL    HW247399   7.707  12.390   9.819
15168SOL     OW47400   0.248   8.628   9.956
15168SOL    HW147401   0.194   8.616  10.034
15168SOL    HW247402   0.307   8.699   9.979
15169SOL     OW47403   7.670  10.365   8.719
15169SOL    HW147404   7.631  10.431   8.661
15169SOL    HW247405   7.719  10.308   8.659
15170SOL     OW47406  11.937  11.616   2.686
15170SOL    HW147407  12.006  11.555   2.659
15170SOL    HW247408  11.880  11.624   2.609
15171SOL     OW47409   6.188   2.735   4.257
15171SOL    HW147410   6.233   2.820   4.252
15171SOL    HW247411   6.154   2.732   4.346
15172SOL     OW47412  14.383   6.047   7.063
15172SOL    HW147413  14.332   5.966   7.060
15172SOL    HW247414  14.471   6.021   7.034
15173SOL     OW47415   3.516   0.525  13.680
15173SOL    HW147416   3.444   0.512  13.619
15173SOL    HW247417   3.480   0.581  13.749
15174SOL     OW47418  10.459   9.111   2.518
15174SOL    HW147419  10.400   9.122   2.444
15174SOL    HW247420  10.411   9.148   2.592
15175SOL     OW47421  11.668   0.343   6.282
15175SOL    HW147422  11.621   0.373   6.360
15175SOL    HW247423  11.599   0.333   6.216
15176SOL     OW47424   6.902   6.224   6.440
15176SOL    HW147425   6.963   6.290   6.473
15176SOL    HW247426   6.880   6.171   6.517
15177SOL     OW47427   9.103  13.813   4.415
15177SOL    HW147428   9.018  13.821   4.458
15177SOL    HW247429   9.138  13.902   4.414
15178SOL     OW47430   4.137   8.101   3.559
15178SOL    HW147431   4.074   8.152   3.507
15178SOL    HW247432   4.217   8.153   3.556
15179SOL     OW47433   9.219   8.827  13.639
15179SOL    HW147434   9.186   8.814  13.550
15179SOL    HW247435   9.313   8.838  13.628
15180SOL     OW47436   3.102  13.026   4.106
15180SOL    HW147437   3.191  13.018   4.139
15180SOL    HW247438   3.047  13.022   4.184
15181SOL     OW47439   6.587   7.250   2.751
15181SOL    HW147440   6.515   7.204   2.709
15181SOL    HW247441   6.658   7.248   2.687
15182SOL     OW47442   5.700   6.798   2.983
15182SOL    HW147443   5.649   6.873   3.012
15182SOL    HW247444   5.733   6.759   3.064
15183SOL     OW47445   5.508   8.151   8.585
15183SOL    HW147446   5.419   8.165   8.617
15183SOL    HW247447   5.536   8.237   8.553
15184SOL     OW47448   1.190   7.703   5.003
15184SOL    HW147449   1.284   7.721   5.004
15184SOL    HW247450   1.156   7.757   4.931
15185SOL     OW47451  11.178   1.309   0.645
15185SOL    HW147452  11.134   1.250   0.705
15185SOL    HW247453  11.185   1.259   0.563
15186SOL     OW47454   2.710   2.154   3.579
15186SOL    HW147455   2.640   2.136   3.641
15186SOL    HW247456   2.733   2.245   3.595
15187SOL     OW47457   7.777   2.283   9.528
15187SOL    HW147458   7.780   2.379   9.531
15187SOL    HW247459   7.815   2.255   9.610
15188SOL     OW47460  12.446   0.483  11.094
15188SOL    HW147461  12.541   0.476  11.084
15188SOL    HW247462  12.411   0.446  11.013
15189SOL     OW47463  12.837   2.804   5.221
15189SOL    HW147464  12.924   2.838   5.197
15189SOL    HW247465  12.829   2.825   5.314
15190SOL     OW47466   5.946   0.139   3.647
15190SOL    HW147467   5.909   0.056   3.679
15190SOL    HW247468   5.874   0.201   3.653
15191SOL     OW47469   1.515   0.309   6.197
15191SOL    HW147470   1.471   0.226   6.181
15191SOL    HW247471   1.568   0.323   6.118
15192SOL     OW47472   2.165   3.719   2.223
15192SOL    HW147473   2.241   3.708   2.280
15192SOL    HW247474   2.147   3.631   2.190
15193SOL     OW47475   7.517   1.034   4.431
15193SOL    HW147476   7.454   1.106   4.428
15193SOL    HW247477   7.463   0.956   4.449
15194SOL     OW47478  10.213   6.882   2.564
15194SOL    HW147479  10.147   6.894   2.633
15194SOL    HW247480  10.216   6.965   2.518
15195SOL     OW47481   9.476   3.578   4.788
15195SOL    HW147482   9.564   3.566   4.753
15195SOL    HW247483   9.429   3.625   4.719
15196SOL     OW47484   8.744   8.438   3.707
15196SOL    HW147485   8.780   8.491   3.778
15196SOL    HW247486   8.673   8.491   3.670
15197SOL     OW47487  11.898  12.575   5.849
15197SOL    HW147488  11.968  12.629   5.813
15197SOL    HW247489  11.828  12.578   5.783
15198SOL     OW47490   6.324   3.961  10.678
15198SOL    HW147491   6.272   3.886  10.649
15198SOL    HW247492   6.415   3.933  10.664
15199SOL     OW47493   8.508   4.784  12.849
15199SOL    HW147494   8.467   4.739  12.775
15199SOL    HW247495   8.591   4.738  12.862
15200SOL     OW47496  10.231   2.106   3.951
15200SOL    HW147497  10.146   2.072   3.921
15200SOL    HW247498  10.278   2.128   3.870
15201SOL     OW47499  14.382   5.493  13.177
15201SOL    HW147500  14.447   5.549  13.135
15201SOL    HW247501  14.434   5.432  13.231
15202SOL     OW47502   2.786   6.097   2.192
15202SOL    HW147503   2.837   6.178   2.199
15202SOL    HW247504   2.718   6.105   2.259
15203SOL     OW47505   5.397  14.522   9.529
15203SOL    HW147506   5.380  14.522   9.435
15203SOL    HW247507   5.362  14.438   9.560
15204SOL     OW47508   6.442   8.978   3.394
15204SOL    HW147509   6.400   8.901   3.356
15204SOL    HW247510   6.504   8.943   3.457
15205SOL     OW47511   1.243  12.546   6.621
15205SOL    HW147512   1.338  12.537   6.612
15205SOL    HW247513   1.230  12.636   6.651
15206SOL     OW47514   8.482   1.063   2.943
15206SOL    HW147515   8.566   1.066   2.898
15206SOL    HW247516   8.499   1.013   3.023
15207SOL     OW47517   6.673  11.865   2.027
15207SOL    HW147518   6.731  11.889   2.099
15207SOL    HW247519   6.681  11.770   2.021
15208SOL     OW47520   7.194   0.904  12.739
15208SOL    HW147521   7.116   0.914  12.685
15208SOL    HW247522   7.198   0.810  12.759
15209SOL     OW47523  10.657   7.644   0.692
15209SOL    HW147524  10.667   7.738   0.707
15209SOL    HW247525  10.655   7.605   0.780
15210SOL     OW47526   6.448  11.368  13.064
15210SOL    HW147527   6.499  11.418  13.000
15210SOL    HW247528   6.496  11.376  13.146
15211SOL     OW47529   0.396   1.487   4.895
15211SOL    HW147530   0.449   1.420   4.852
15211SOL    HW247531   0.434   1.570   4.867
15212SOL     OW47532   5.494   2.321   3.478
15212SOL    HW147533   5.476   2.257   3.547
15212SOL    HW247534   5.461   2.279   3.398
15213SOL     OW47535   1.775   1.648   8.808
15213SOL    HW147536   1.785   1.604   8.892
15213SOL    HW247537   1.759   1.578   8.746
15214SOL     OW47538  12.069  12.439   9.836
15214SOL    HW147539  12.111  12.357   9.863
15214SOL    HW247540  12.017  12.464   9.912
15215SOL     OW47541  12.096  11.848   9.829
15215SOL    HW147542  12.150  11.776   9.796
15215SOL    HW247543  12.051  11.811   9.905
15216SOL     OW47544   0.612  13.286   5.099
15216SOL    HW147545   0.625  13.289   5.004
15216SOL    HW247546   0.517  13.282   5.111
15217SOL     OW47547  11.220   3.655   7.625
15217SOL    HW147548  11.210   3.615   7.538
15217SOL    HW247549  11.169   3.599   7.683
15218SOL     OW47550   8.177   4.682   7.933
15218SOL    HW147551   8.181   4.615   8.001
15218SOL    HW247552   8.269   4.704   7.917
15219SOL     OW47553   1.799   9.691   8.791
15219SOL    HW147554   1.737   9.634   8.837
15219SOL    HW247555   1.817   9.646   8.708
15220SOL     OW47556   0.407   1.866  13.833
15220SOL    HW147557   0.464   1.898  13.764
15220SOL    HW247558   0.393   1.773  13.813
15221SOL     OW47559   8.888   6.852  14.691
15221SOL    HW147560   8.933   6.781  14.644
15221SOL    HW247561   8.805   6.814  14.718
15222SOL     OW47562   0.789  13.896  10.430
15222SOL    HW147563   0.852  13.859  10.491
15222SOL    HW247564   0.753  13.820  10.384
15223SOL     OW47565   2.047   6.043   4.434
15223SOL    HW147566   2.001   6.001   4.507
15223SOL    HW247567   2.012   6.000   4.356
15224SOL     OW47568   7.756  11.587  11.077
15224SOL    HW147569   7.668  11.550  11.086
15224SOL    HW247570   7.809  11.515  11.043
15225SOL     OW47571   4.830  13.970   9.093
15225SOL    HW147572   4.857  13.918   9.018
15225SOL    HW247573   4.792  14.049   9.056
15226SOL     OW47574   2.430  11.842   6.199
15226SOL    HW147575   2.478  11.780   6.254
15226SOL    HW247576   2.433  11.924   6.248
15227SOL     OW47577  10.440   0.690   2.672
15227SOL    HW147578  10.513   0.632   2.695
15227SOL    HW247579  10.372   0.632   2.638
15228SOL     OW47580   7.153   0.103  13.111
15228SOL    HW147581   7.062   0.082  13.132
15228SOL    HW247582   7.204   0.047  13.170
15229SOL     OW47583   3.972   6.101  10.235
15229SOL    HW147584   3.887   6.074  10.200
15229SOL    HW247585   3.998   6.029  10.293
15230SOL     OW47586   2.424  14.841   5.378
15230SOL    HW147587   2.502  14.825   5.429
15230SOL    HW247588   2.398  14.755   5.345
15231SOL     OW47589   3.491   4.615   2.422
15231SOL    HW147590   3.441   4.578   2.496
15231SOL    HW247591   3.554   4.673   2.463
15232SOL     OW47592   2.541  13.972   5.775
15232SOL    HW147593   2.513  13.919   5.849
15232SOL    HW247594   2.478  13.951   5.705
15233SOL     OW47595  10.600  14.059  10.159
15233SOL    HW147596  10.686  14.031  10.192
15233SOL    HW247597  10.611  14.151  10.138
15234SOL     OW47598   7.621  14.011   3.547
15234SOL    HW147599   7.596  14.067   3.473
15234SOL    HW247600   7.646  14.073   3.615
15235SOL     OW47601  11.832   5.708   4.752
15235SOL    HW147602  11.907   5.719   4.693
15235SOL    HW247603  11.811   5.796   4.782
15236SOL     OW47604  10.339  13.246   8.309
15236SOL    HW147605  10.300  13.163   8.336
15236SOL    HW247606  10.374  13.229   8.221
15237SOL     OW47607   0.463   7.256   3.314
15237SOL    HW147608   0.387   7.267   3.258
15237SOL    HW247609   0.515   7.187   3.272
15238SOL     OW47610   3.847   7.656  12.459
15238SOL    HW147611   3.833   7.642  12.365
15238SOL    HW247612   3.942   7.662  12.468
15239SOL     OW47613   8.146   7.339   5.059
15239SOL    HW147614   8.193   7.323   4.977
15239SOL    HW247615   8.144   7.434   5.068
15240SOL     OW47616   3.492  11.764   6.801
15240SOL    HW147617   3.418  11.764   6.740
15240SOL    HW247618   3.459  11.810   6.878
15241SOL     OW47619  11.461  13.282   6.293
15241SOL    HW147620  11.504  13.340   6.356
15241SOL    HW247621  11.476  13.322   6.208
15242SOL     OW47622  11.541  10.483   3.604
15242SOL    HW147623  11.512  10.469   3.515
15242SOL    HW247624  11.524  10.400   3.649
15243SOL     OW47625  10.515   8.513   1.787
15243SOL    HW147626  10.597   8.546   1.825
15243SOL    HW247627  10.449   8.578   1.813
15244SOL     OW47628   9.968   7.886   3.804
15244SOL    HW147629   9.961   7.796   3.773
15244SOL    HW247630   9.911   7.890   3.882
15245SOL     OW47631   3.810   3.423   0.187
15245SOL    HW147632   3.844   3.340   0.155
15245SOL    HW247633   3.874   3.451   0.253
15246SOL     OW47634   2.744   7.339   4.452
15246SOL    HW147635   2.792   7.258   4.436
15246SOL    HW247636   2.774   7.399   4.384
15247SOL     OW47637   0.068   0.277  13.977
15247SOL    HW147638   0.106   0.333  14.045
15247SOL    HW247639   0.057   0.192  14.019
15248SOL     OW47640  13.865   8.653  10.473
15248SOL    HW147641  13.860   8.721  10.405
15248SOL    HW247642  13.959   8.643  10.489
15249SOL     OW47643  12.693   1.075   4.573
15249SOL    HW147644  12.639   1.003   4.603
15249SOL    HW247645  12.664   1.092   4.483
15250SOL     OW47646  12.259   8.044  12.024
15250SOL    HW147647  12.218   7.962  11.996
15250SOL    HW247648  12.185   8.101  12.045
15251SOL     OW47649   7.783  12.654   0.188
15251SOL    HW147650   7.805  12.742   0.219
15251SOL    HW247651   7.833  12.595   0.244
15252SOL     OW47652   1.554   4.303   6.115
15252SOL    HW147653   1.462   4.330   6.111
15252SOL    HW247654   1.603   4.385   6.120
15253SOL     OW47655  13.030   3.168   6.077
15253SOL    HW147656  13.116   3.171   6.119
15253SOL    HW247657  13.016   3.257   6.045
15254SOL     OW47658  14.819   4.398   4.262
15254SOL    HW147659  14.827   4.466   4.329
15254SOL    HW247660  14.800   4.447   4.182
15255SOL     OW47661   5.492  14.621  12.480
15255SOL    HW147662   5.545  14.621  12.400
15255SOL    HW247663   5.525  14.548  12.531
15256SOL     OW47664  14.616  12.080   9.609
15256SOL    HW147665  14.688  12.017   9.610
15256SOL    HW247666  14.546  12.036   9.560
15257SOL     OW47667   1.157  13.644   8.626
15257SOL    HW147668   1.092  13.657   8.557
15257SOL    HW247669   1.107  13.647   8.708
15258SOL     OW47670  14.142   1.061  10.869
15258SOL    HW147671  14.130   0.998  10.941
15258SOL    HW247672  14.072   1.125  10.881
15259SOL     OW47673   4.577  13.207   7.037
15259SOL    HW147674   4.601  13.272   7.103
15259SOL    HW247675   4.566  13.126   7.086
15260SOL     OW47676   1.032   2.785   7.405
15260SOL    HW147677   1.011   2.697   7.374
15260SOL    HW247678   1.046   2.836   7.325
15261SOL     OW47679   1.888   9.399   0.951
15261SOL    HW147680   1.798   9.369   0.934
15261SOL    HW247681   1.903   9.468   0.887
15262SOL     OW47682  12.289   5.528   2.819
15262SOL    HW147683  12.313   5.534   2.912
15262SOL    HW247684  12.223   5.596   2.807
15263SOL     OW47685  14.420   2.707   7.272
15263SOL    HW147686  14.461   2.755   7.200
15263SOL    HW247687  14.405   2.619   7.236
15264SOL     OW47688   0.709  10.473   4.283
15264SOL    HW147689   0.683  10.399   4.227
15264SOL    HW247690   0.631  10.490   4.337
15265SOL     OW47691  11.234  11.671   5.235
15265SOL    HW147692  11.289  11.659   5.158
15265SOL    HW247693  11.209  11.582   5.260
15266SOL     OW47694   2.190   9.136   3.174
15266SOL    HW147695   2.107   9.175   3.144
15266SOL    HW247696   2.255   9.204   3.160
15267SOL     OW47697  13.275  13.306  12.445
15267SOL    HW147698  13.252  13.324  12.536
15267SOL    HW247699  13.359  13.351  12.433
15268SOL     OW47700  11.005   2.140   0.188
15268SOL    HW147701  10.953   2.066   0.156
15268SOL    HW247702  11.084   2.138   0.134
15269SOL     OW47703  12.978  13.385   2.913
15269SOL    HW147704  12.954  13.476   2.932
15269SOL    HW247705  13.009  13.388   2.822
15270SOL     OW47706   6.275  11.978  12.548
15270SOL    HW147707   6.359  11.939  12.526
15270SOL    HW247708   6.287  12.072  12.534
15271SOL     OW47709  11.116   3.892   4.803
15271SOL    HW147710  11.040   3.868   4.750
15271SOL    HW247711  11.146   3.809   4.840
15272SOL     OW47712   0.536  10.444  10.491
15272SOL    HW147713   0.454  10.427  10.444
15272SOL    HW247714   0.531  10.536  10.515
15273SOL     OW47715   8.996   1.111   6.163
15273SOL    HW147716   9.069   1.156   6.206
15273SOL    HW247717   8.939   1.084   6.235
15274SOL     OW47718   2.740   0.937   3.969
15274SOL    HW147719   2.766   0.880   3.897
15274SOL    HW247720   2.646   0.952   3.955
15275SOL     OW47721  14.594   4.927   1.060
15275SOL    HW147722  14.512   4.936   1.108
15275SOL    HW247723  14.645   5.004   1.085
15276SOL     OW47724   6.191   5.416   4.943
15276SOL    HW147725   6.228   5.500   4.918
15276SOL    HW247726   6.107   5.437   4.984
15277SOL     OW47727   2.447   4.602   0.737
15277SOL    HW147728   2.434   4.600   0.832
15277SOL    HW247729   2.535   4.636   0.725
15278SOL     OW47730   4.638   2.912  11.662
15278SOL    HW147731   4.571   2.942  11.600
15278SOL    HW247732   4.696   2.987  11.672
15279SOL     OW47733   4.372   0.586  14.028
15279SOL    HW147734   4.389   0.583  14.123
15279SOL    HW247735   4.382   0.679  14.006
15280SOL     OW47736   1.261  14.245  12.327
15280SOL    HW147737   1.238  14.202  12.410
15280SOL    HW247738   1.177  14.270  12.290
15281SOL     OW47739  14.751  13.612   8.770
15281SOL    HW147740  14.825  13.673   8.771
15281SOL    HW247741  14.735  13.594   8.677
15282SOL     OW47742   1.154   9.920   6.412
15282SOL    HW147743   1.119  10.005   6.386
15282SOL    HW247744   1.241   9.939   6.446
15283SOL     OW47745   9.517   7.753  11.317
15283SOL    HW147746   9.463   7.759  11.396
15283SOL    HW247747   9.456   7.722  11.249
15284SOL     OW47748  14.566   0.804  12.892
15284SOL    HW147749  14.609   0.888  12.879
15284SOL    HW247750  14.631   0.739  12.865
15285SOL     OW47751  11.508  10.082   6.831
15285SOL    HW147752  11.488  10.150   6.895
15285SOL    HW247753  11.423  10.047   6.806
15286SOL     OW47754   4.652   5.677   6.046
15286SOL    HW147755   4.743   5.656   6.068
15286SOL    HW247756   4.600   5.635   6.115
15287SOL     OW47757  11.141   1.107  13.327
15287SOL    HW147758  11.180   1.171  13.387
15287SOL    HW247759  11.148   1.148  13.241
15288SOL     OW47760   1.748   2.503   2.324
15288SOL    HW147761   1.714   2.416   2.304
15288SOL    HW247762   1.699   2.531   2.401
15289SOL     OW47763   0.583   3.485   5.554
15289SOL    HW147764   0.620   3.542   5.623
15289SOL    HW247765   0.577   3.542   5.477
15290SOL     OW47766   6.357   6.018   0.445
15290SOL    HW147767   6.448   6.007   0.473
15290SOL    HW247768   6.332   5.932   0.411
15291SOL     OW47769   2.535   4.547   2.251
15291SOL    HW147770   2.504   4.566   2.339
15291SOL    HW247771   2.460   4.505   2.208
15292SOL     OW47772   6.897   7.983   2.224
15292SOL    HW147773   6.927   8.071   2.244
15292SOL    HW247774   6.976   7.937   2.195
15293SOL     OW47775  13.971  13.795   4.185
15293SOL    HW147776  14.006  13.769   4.100
15293SOL    HW247777  13.965  13.890   4.180
15294SOL     OW47778   8.100  14.409   8.488
15294SOL    HW147779   8.064  14.455   8.413
15294SOL    HW247780   8.194  14.429   8.487
15295SOL     OW47781   2.059  12.173  10.924
15295SOL    HW147782   2.028  12.246  10.978
15295SOL    HW247783   2.009  12.181  10.843
15296SOL     OW47784  12.559   8.837  11.383
15296SOL    HW147785  12.508   8.757  11.379
15296SOL    HW247786  12.591   8.842  11.473
15297SOL     OW47787  10.513   4.947   1.150
15297SOL    HW147788  10.496   4.882   1.082
15297SOL    HW247789  10.589   4.913   1.197
15298SOL     OW47790   4.900  14.784   9.155
15298SOL    HW147791   4.872  14.743   9.237
15298SOL    HW247792   4.985  14.746   9.136
15299SOL     OW47793   6.352  14.774   9.037
15299SOL    HW147794   6.377  14.682   9.043
15299SOL    HW247795   6.303  14.791   9.118
15300SOL     OW47796   8.433   4.057   1.491
15300SOL    HW147797   8.390   4.043   1.407
15300SOL    HW247798   8.484   3.977   1.506
15301SOL     OW47799   1.901  13.428   8.994
15301SOL    HW147800   1.923  13.346   8.951
15301SOL    HW247801   1.944  13.423   9.079
15302SOL     OW47802   6.072  10.577   1.797
15302SOL    HW147803   6.050  10.569   1.704
15302SOL    HW247804   6.072  10.487   1.829
15303SOL     OW47805   7.101   0.155   5.116
15303SOL    HW147806   7.161   0.181   5.047
15303SOL    HW247807   7.018   0.140   5.071
15304SOL     OW47808  13.298  14.446  11.242
15304SOL    HW147809  13.343  14.369  11.209
15304SOL    HW247810  13.367  14.513  11.248
15305SOL     OW47811  14.463   4.661  12.811
15305SOL    HW147812  14.522   4.662  12.886
15305SOL    HW247813  14.521   4.666  12.735
15306SOL     OW47814  10.777  14.371   5.247
15306SOL    HW147815  10.788  14.451   5.196
15306SOL    HW247816  10.710  14.392   5.312
15307SOL     OW47817   1.667   3.917   5.412
15307SOL    HW147818   1.762   3.912   5.425
15307SOL    HW247819   1.633   3.939   5.499
15308SOL     OW47820   7.223   2.082   9.269
15308SOL    HW147821   7.198   2.092   9.177
15308SOL    HW247822   7.293   2.146   9.281
15309SOL     OW47823   8.912   5.918   9.222
15309SOL    HW147824   8.837   5.871   9.185
15309SOL    HW247825   8.968   5.934   9.147
15310SOL     OW47826   5.798  10.230  12.079
15310SOL    HW147827   5.880  10.208  12.034
15310SOL    HW247828   5.826  10.268  12.162
15311SOL     OW47829   3.074   4.923   6.998
15311SOL    HW147830   3.054   4.830   6.998
15311SOL    HW247831   3.026   4.959   7.072
15312SOL     OW47832   4.482  14.248   0.913
15312SOL    HW147833   4.540  14.322   0.895
15312SOL    HW247834   4.439  14.230   0.829
15313SOL     OW47835  12.988  10.496  13.824
15313SOL    HW147836  13.009  10.410  13.789
15313SOL    HW247837  12.919  10.529  13.767
15314SOL     OW47838   4.444   3.199   7.854
15314SOL    HW147839   4.490   3.116   7.868
15314SOL    HW247840   4.379   3.179   7.786
15315SOL     OW47841   4.454   2.716   0.124
15315SOL    HW147842   4.472   2.704   0.217
15315SOL    HW247843   4.429   2.629   0.092
15316SOL     OW47844   7.113   1.267  12.445
15316SOL    HW147845   7.057   1.274  12.368
15316SOL    HW247846   7.200   1.294  12.414
15317SOL     OW47847   2.813   8.452  12.471
15317SOL    HW147848   2.892   8.504  12.485
15317SOL    HW247849   2.747   8.514  12.440
15318SOL     OW47850   9.145   4.965   5.743
15318SOL    HW147851   9.089   5.039   5.763
15318SOL    HW247852   9.088   4.888   5.751
15319SOL     OW47853  12.377  12.414  11.663
15319SOL    HW147854  12.452  12.461  11.701
15319SOL    HW247855  12.341  12.476  11.599
15320SOL     OW47856   7.578  12.172   3.022
15320SOL    HW147857   7.568  12.077   3.028
15320SOL    HW247858   7.661  12.185   2.975
15321SOL     OW47859   2.468  11.249  12.107
15321SOL    HW147860   2.563  11.258  12.102
15321SOL    HW247861   2.442  11.219  12.020
15322SOL     OW47862  10.546  14.065   4.335
15322SOL    HW147863  10.635  14.069   4.299
15322SOL    HW247864  10.490  14.081   4.259
15323SOL     OW47865  10.820  14.387   3.345
15323SOL    HW147866  10.738  14.374   3.296
15323SOL    HW247867  10.889  14.378   3.279
15324SOL     OW47868   5.812  14.615   5.979
15324SOL    HW147869   5.786  14.528   5.949
15324SOL    HW247870   5.882  14.598   6.042
15325SOL     OW47871   1.735   6.440  11.948
15325SOL    HW147872   1.676   6.427  11.873
15325SOL    HW247873   1.679   6.427  12.025
15326SOL     OW47874   9.708   4.676   0.203
15326SOL    HW147875   9.764   4.753   0.190
15326SOL    HW247876   9.682   4.651   0.114
15327SOL     OW47877   9.625  10.277   3.968
15327SOL    HW147878   9.582  10.362   3.959
15327SOL    HW247879   9.574  10.231   4.035
15328SOL     OW47880  13.854   0.703   1.576
15328SOL    HW147881  13.810   0.659   1.648
15328SOL    HW247882  13.885   0.785   1.613
15329SOL     OW47883  12.642  11.754   1.697
15329SOL    HW147884  12.640  11.679   1.757
15329SOL    HW247885  12.572  11.811   1.729
15330SOL     OW47886  14.695   2.209   7.663
15330SOL    HW147887  14.608   2.247   7.657
15330SOL    HW247888  14.750   2.265   7.607
15331SOL     OW47889  10.206   4.809   4.487
15331SOL    HW147890  10.254   4.851   4.416
15331SOL    HW247891  10.197   4.718   4.460
15332SOL     OW47892   1.287   4.659   9.637
15332SOL    HW147893   1.372   4.702   9.624
15332SOL    HW247894   1.287   4.636   9.730
15333SOL     OW47895   8.537   0.350   2.346
15333SOL    HW147896   8.629   0.347   2.371
15333SOL    HW247897   8.529   0.426   2.289
15334SOL     OW47898   2.888  11.270   8.575
15334SOL    HW147899   2.978  11.301   8.588
15334SOL    HW247900   2.876  11.272   8.480
15335SOL     OW47901  12.481   8.929   1.678
15335SOL    HW147902  12.419   8.892   1.741
15335SOL    HW247903  12.503   9.015   1.714
15336SOL     OW47904   5.260   3.874  13.935
15336SOL    HW147905   5.307   3.930  13.997
15336SOL    HW247906   5.221   3.805  13.989
15337SOL     OW47907  11.789   3.160  10.650
15337SOL    HW147908  11.841   3.108  10.589
15337SOL    HW247909  11.853   3.208  10.702
15338SOL     OW47910   3.958   8.410  12.033
15338SOL    HW147911   3.967   8.399  12.128
15338SOL    HW247912   3.866   8.437  12.021
15339SOL     OW47913   8.424   2.919   0.252
15339SOL    HW147914   8.500   2.967   0.284
15339SOL    HW247915   8.402   2.961   0.169
15340SOL     OW47916   1.415  13.783   0.404
15340SOL    HW147917   1.369  13.713   0.450
15340SOL    HW247918   1.374  13.786   0.317
15341SOL     OW47919   1.678   6.352   1.141
15341SOL    HW147920   1.671   6.442   1.112
15341SOL    HW247921   1.772   6.332   1.135
15342SOL     OW47922  11.996   5.564   9.287
15342SOL    HW147923  11.927   5.526   9.342
15342SOL    HW247924  12.074   5.514   9.310
15343SOL     OW47925   1.223   1.758   1.431
15343SOL    HW147926   1.212   1.706   1.510
15343SOL    HW247927   1.312   1.738   1.401
15344SOL     OW47928   6.805   5.209   1.233
15344SOL    HW147929   6.835   5.299   1.246
15344SOL    HW247930   6.732   5.216   1.172
15345SOL     OW47931  14.323  13.525   8.369
15345SOL    HW147932  14.385  13.579   8.320
15345SOL    HW247933  14.336  13.550   8.460
15346SOL     OW47934   0.065  11.469   3.905
15346SOL    HW147935   0.015  11.498   3.981
15346SOL    HW247936   0.122  11.401   3.939
15347SOL     OW47937   2.980  14.338  14.867
15347SOL    HW147938   2.912  14.406  14.861
15347SOL    HW247939   3.004  14.320  14.776
15348SOL     OW47940   6.596   2.145   1.236
15348SOL    HW147941   6.502   2.154   1.248
15348SOL    HW247942   6.629   2.114   1.320
15349SOL     OW47943   5.257   5.283   5.326
15349SOL    HW147944   5.164   5.275   5.350
15349SOL    HW247945   5.301   5.306   5.408
15350SOL     OW47946   7.642   1.113   6.175
15350SOL    HW147947   7.662   1.067   6.256
15350SOL    HW247948   7.716   1.173   6.163
15351SOL     OW47949  14.358  13.184   0.174
15351SOL    HW147950  14.322  13.197   0.086
15351SOL    HW247951  14.296  13.227   0.232
15352SOL     OW47952  13.978   2.537   0.518
15352SOL    HW147953  13.925   2.605   0.476
15352SOL    HW247954  13.916   2.489   0.573
15353SOL     OW47955   2.896   4.029   4.239
15353SOL    HW147956   2.962   4.098   4.246
15353SOL    HW247957   2.937   3.952   4.277
15354SOL     OW47958   2.839   3.858  10.241
15354SOL    HW147959   2.786   3.820  10.171
15354SOL    HW247960   2.781   3.861  10.317
15355SOL     OW47961   5.402   6.003  13.139
15355SOL    HW147962   5.414   5.948  13.062
15355SOL    HW247963   5.463   6.076  13.128
15356SOL     OW47964   3.042  13.861   7.959
15356SOL    HW147965   3.120  13.893   7.912
15356SOL    HW247966   3.041  13.767   7.942
15357SOL     OW47967   7.637   5.897  10.758
15357SOL    HW147968   7.671   5.857  10.679
15357SOL    HW247969   7.662   5.990  10.750
15358SOL     OW47970  10.131   0.876   8.578
15358SOL    HW147971  10.208   0.873   8.521
15358SOL    HW247972  10.082   0.797   8.556
15359SOL     OW47973   0.610   1.373   6.638
15359SOL    HW147974   0.544   1.402   6.701
15359SOL    HW247975   0.664   1.451   6.623
15360SOL     OW47976  11.124   4.645   0.733
15360SOL    HW147977  11.144   4.557   0.703
15360SOL    HW247978  11.031   4.657   0.713
15361SOL     OW47979   8.965   2.599   1.550
15361SOL    HW147980   9.040   2.607   1.491
15361SOL    HW247981   8.909   2.673   1.526
15362SOL     OW47982   3.779  13.616  10.902
15362SOL    HW147983   3.692  13.588  10.932
15362SOL    HW247984   3.826  13.534  10.884
15363SOL     OW47985   6.876   4.066   1.152
15363SOL    HW147986   6.842   3.979   1.130
15363SOL    HW247987   6.872   4.114   1.070
15364SOL     OW47988   8.509   8.632   6.944
15364SOL    HW147989   8.472   8.668   6.864
15364SOL    HW247990   8.439   8.580   6.982
15365SOL     OW47991   1.871   1.287   4.135
15365SOL    HW147992   1.812   1.356   4.105
15365SOL    HW247993   1.928   1.329   4.199
15366SOL     OW47994   1.940  14.818   3.555
15366SOL    HW147995   1.913   0.014   3.594
15366SOL    HW247996   1.921  14.828   3.461
15367SOL     OW47997  12.454   5.516  13.972
15367SOL    HW147998  12.364   5.508  13.940
15367SOL    HW247999  12.508   5.510  13.894
15368SOL     OW48000  11.061   5.389   4.055
15368SOL    HW148001  11.048   5.376   4.148
15368SOL    HW248002  11.114   5.313   4.027
15369SOL     OW48003   8.755   5.588   6.942
15369SOL    HW148004   8.670   5.627   6.961
15369SOL    HW248005   8.744   5.544   6.858
15370SOL     OW48006   0.891   1.373   3.221
15370SOL    HW148007   0.835   1.344   3.149
15370SOL    HW248008   0.856   1.330   3.298
15371SOL     OW48009   0.130   4.067   2.753
15371SOL    HW148010   0.089   4.140   2.707
15371SOL    HW248011   0.171   4.107   2.830
15372SOL     OW48012   8.932   9.069   8.952
15372SOL    HW148013   8.999   9.137   8.949
15372SOL    HW248014   8.853   9.110   8.917
15373SOL     OW48015   8.175   4.467  13.131
15373SOL    HW148016   8.260   4.447  13.169
15373SOL    HW248017   8.116   4.403  13.170
15374SOL     OW48018   2.300  11.827  14.599
15374SOL    HW148019   2.259  11.824  14.685
15374SOL    HW248020   2.263  11.753  14.552
15375SOL     OW48021  10.998  10.269   3.899
15375SOL    HW148022  11.060  10.339   3.921
15375SOL    HW248023  10.916  10.314   3.880
15376SOL     OW48024  10.033  12.950  12.566
15376SOL    HW148025  10.114  13.001  12.576
15376SOL    HW248026  10.014  12.919  12.655
15377SOL     OW48027   1.094  10.516   5.491
15377SOL    HW148028   1.113  10.451   5.558
15377SOL    HW248029   1.155  10.495   5.420
15378SOL     OW48030   2.404   3.572   8.087
15378SOL    HW148031   2.410   3.627   8.165
15378SOL    HW248032   2.377   3.486   8.119
15379SOL     OW48033   2.966   3.350   6.472
15379SOL    HW148034   2.932   3.297   6.544
15379SOL    HW248035   2.949   3.440   6.498
15380SOL     OW48036  14.164  11.757   7.369
15380SOL    HW148037  14.211  11.772   7.287
15380SOL    HW248038  14.081  11.717   7.342
15381SOL     OW48039   3.603   8.958  10.492
15381SOL    HW148040   3.563   8.884  10.446
15381SOL    HW248041   3.529   9.014  10.516
15382SOL     OW48042  14.285  14.208   5.334
15382SOL    HW148043  14.341  14.131   5.342
15382SOL    HW248044  14.200  14.173   5.307
15383SOL     OW48045   1.674   5.892   7.332
15383SOL    HW148046   1.589   5.862   7.366
15383SOL    HW248047   1.676   5.986   7.350
15384SOL     OW48048   0.421   8.987   7.339
15384SOL    HW148049   0.379   9.015   7.257
15384SOL    HW248050   0.464   8.904   7.316
15385SOL     OW48051   9.991   9.622   5.020
15385SOL    HW148052   9.975   9.637   4.927
15385SOL    HW248053   9.996   9.710   5.058
15386SOL     OW48054   7.751   6.375  12.023
15386SOL    HW148055   7.831   6.414  11.989
15386SOL    HW248056   7.764   6.281  12.013
15387SOL     OW48057  13.517   4.523   7.336
15387SOL    HW148058  13.591   4.520   7.275
15387SOL    HW248059  13.524   4.609   7.377
15388SOL     OW48060   2.022   0.594  11.051
15388SOL    HW148061   1.989   0.616  10.964
15388SOL    HW248062   1.956   0.536  11.088
15389SOL     OW48063   0.143   6.508  13.702
15389SOL    HW148064   0.074   6.554  13.750
15389SOL    HW248065   0.193   6.463  13.770
15390SOL     OW48066   5.892   4.574   5.590
15390SOL    HW148067   5.960   4.528   5.540
15390SOL    HW248068   5.811   4.554   5.544
15391SOL     OW48069   8.522   3.189   7.961
15391SOL    HW148070   8.528   3.230   8.047
15391SOL    HW248071   8.609   3.151   7.946
15392SOL     OW48072   3.506  10.566  11.589
15392SOL    HW148073   3.601  10.565  11.595
15392SOL    HW248074   3.482  10.473  11.582
15393SOL     OW48075   8.376   0.838   2.485
15393SOL    HW148076   8.445   0.794   2.533
15393SOL    HW248077   8.317   0.873   2.552
15394SOL     OW48078  10.184   6.597  10.603
15394SOL    HW148079  10.089   6.611  10.600
15394SOL    HW248080  10.194   6.522  10.662
15395SOL     OW48081   9.471   5.213   3.563
15395SOL    HW148082   9.414   5.226   3.488
15395SOL    HW248083   9.507   5.300   3.581
15396SOL     OW48084  11.165  10.287   9.368
15396SOL    HW148085  11.199  10.258   9.283
15396SOL    HW248086  11.132  10.207   9.409
15397SOL     OW48087  11.733   5.159   6.507
15397SOL    HW148088  11.691   5.074   6.497
15397SOL    HW248089  11.662   5.218   6.535
15398SOL     OW48090   6.787   0.326  13.914
15398SOL    HW148091   6.837   0.407  13.919
15398SOL    HW248092   6.730   0.328  13.991
15399SOL     OW48093   2.048  10.335   0.333
15399SOL    HW148094   2.011  10.420   0.313
15399SOL    HW248095   2.142  10.352   0.344
15400SOL     OW48096   2.597   3.450   1.379
15400SOL    HW148097   2.585   3.364   1.338
15400SOL    HW248098   2.510   3.490   1.376
15401SOL     OW48099   4.420   8.428   7.581
15401SOL    HW148100   4.471   8.407   7.502
15401SOL    HW248101   4.464   8.380   7.651
15402SOL     OW48102   4.487  12.314  14.873
15402SOL    HW148103   4.443  12.231   0.001
15402SOL    HW248104   4.528  12.304  14.787
15403SOL     OW48105   3.720  12.730   0.786
15403SOL    HW148106   3.670  12.664   0.737
15403SOL    HW248107   3.690  12.814   0.750
15404SOL     OW48108   8.373  11.999  13.995
15404SOL    HW148109   8.315  12.033  13.926
15404SOL    HW248110   8.417  12.077  14.029
15405SOL     OW48111  10.341   6.629   4.703
15405SOL    HW148112  10.424   6.587   4.680
15405SOL    HW248113  10.309   6.580   4.779
15406SOL     OW48114   0.800  10.732   4.297
15406SOL    HW148115   0.828  10.760   4.384
15406SOL    HW248116   0.775  10.640   4.309
15407SOL     OW48117   8.547  14.291   0.346
15407SOL    HW148118   8.457  14.260   0.357
15407SOL    HW248119   8.589  14.224   0.293
15408SOL     OW48120   9.373   6.512   0.064
15408SOL    HW148121   9.415   6.427   0.055
15408SOL    HW248122   9.332   6.527  14.866
15409SOL     OW48123  14.371   6.211   0.236
15409SOL    HW148124  14.329   6.136   0.279
15409SOL    HW248125  14.375   6.278   0.303
15410SOL     OW48126  13.625   9.549  11.631
15410SOL    HW148127  13.545   9.508  11.598
15410SOL    HW248128  13.594   9.624  11.682
15411SOL     OW48129   4.404   3.709   2.241
15411SOL    HW148130   4.370   3.635   2.192
15411SOL    HW248131   4.489   3.728   2.201
15412SOL     OW48132   8.444   3.920   7.664
15412SOL    HW148133   8.385   3.895   7.592
15412SOL    HW248134   8.448   4.016   7.659
15413SOL     OW48135   5.664  11.888   7.817
15413SOL    HW148136   5.591  11.907   7.759
15413SOL    HW248137   5.655  11.796   7.838
15414SOL     OW48138   9.214   8.350  12.110
15414SOL    HW148139   9.251   8.263  12.115
15414SOL    HW248140   9.269   8.404  12.167
15415SOL     OW48141   0.028  13.185  10.171
15415SOL    HW148142   0.108  13.131  10.177
15415SOL    HW248143   0.048  13.264  10.220
15416SOL     OW48144   7.868  13.068   0.519
15416SOL    HW148145   7.805  13.060   0.590
15416SOL    HW248146   7.871  13.162   0.499
15417SOL     OW48147  12.665   9.392  11.951
15417SOL    HW148148  12.737   9.446  11.981
15417SOL    HW248149  12.587   9.446  11.965
15418SOL     OW48150   5.341   5.125   6.957
15418SOL    HW148151   5.377   5.211   6.934
15418SOL    HW248152   5.383   5.065   6.895
15419SOL     OW48153   4.752  14.764   7.953
15419SOL    HW148154   4.837  14.797   7.923
15419SOL    HW248155   4.736  14.687   7.897
15420SOL     OW48156   9.199   1.087   7.631
15420SOL    HW148157   9.184   1.161   7.690
15420SOL    HW248158   9.214   1.127   7.546
15421SOL     OW48159   4.231   3.643   5.831
15421SOL    HW148160   4.192   3.718   5.785
15421SOL    HW248161   4.164   3.618   5.895
15422SOL     OW48162   6.538   1.879   1.394
15422SOL    HW148163   6.476   1.834   1.452
15422SOL    HW248164   6.571   1.810   1.336
15423SOL     OW48165   2.044   7.173  12.393
15423SOL    HW148166   2.026   7.264  12.372
15423SOL    HW248167   2.116   7.176  12.456
15424SOL     OW48168   1.102   0.486  13.637
15424SOL    HW148169   1.091   0.466  13.730
15424SOL    HW248170   1.020   0.459  13.597
15425SOL     OW48171   1.497   9.664   3.013
15425SOL    HW148172   1.484   9.707   3.098
15425SOL    HW248173   1.575   9.705   2.976
15426SOL     OW48174  13.363   1.649  10.199
15426SOL    HW148175  13.305   1.723  10.182
15426SOL    HW248176  13.357   1.634  10.293
15427SOL     OW48177   4.440   3.224   6.820
15427SOL    HW148178   4.365   3.260   6.772
15427SOL    HW248179   4.489   3.300   6.849
15428SOL     OW48180   3.819   5.205  12.283
15428SOL    HW148181   3.789   5.159  12.205
15428SOL    HW248182   3.849   5.136  12.342
15429SOL     OW48183  14.318   5.033   9.513
15429SOL    HW148184  14.241   4.992   9.473
15429SOL    HW248185  14.379   4.961   9.528
15430SOL     OW48186   2.822  10.513   2.137
15430SOL    HW148187   2.737  10.481   2.168
15430SOL    HW248188   2.886  10.454   2.178
15431SOL     OW48189   4.250   6.643   8.264
15431SOL    HW148190   4.307   6.708   8.306
15431SOL    HW248191   4.228   6.682   8.179
15432SOL     OW48192  10.800   4.641  12.629
15432SOL    HW148193  10.741   4.679  12.694
15432SOL    HW248194  10.743   4.587  12.573
15433SOL     OW48195   5.734   1.077  13.946
15433SOL    HW148196   5.828   1.078  13.928
15433SOL    HW248197   5.704   1.164  13.921
15434SOL     OW48198  10.509   2.880   3.706
15434SOL    HW148199  10.460   2.801   3.681
15434SOL    HW248200  10.598   2.862   3.676
15435SOL     OW48201   8.107  12.845   9.255
15435SOL    HW148202   8.182  12.903   9.238
15435SOL    HW248203   8.055  12.850   9.175
15436SOL     OW48204   8.133  10.078  11.043
15436SOL    HW148205   8.149  10.151  10.984
15436SOL    HW248206   8.064  10.027  11.001
15437SOL     OW48207  10.267   3.555   9.060
15437SOL    HW148208  10.302   3.614   8.993
15437SOL    HW248209  10.212   3.494   9.012
15438SOL     OW48210  11.984  14.522  13.091
15438SOL    HW148211  11.936  14.440  13.088
15438SOL    HW248212  12.025  14.529  13.005
15439SOL     OW48213   8.869   1.552  10.368
15439SOL    HW148214   8.782   1.519  10.393
15439SOL    HW248215   8.851   1.612  10.296
15440SOL     OW48216  14.130  13.122   2.159
15440SOL    HW148217  14.057  13.182   2.150
15440SOL    HW248218  14.148  13.119   2.253
15441SOL     OW48219   1.823   7.677   1.193
15441SOL    HW148220   1.797   7.656   1.103
15441SOL    HW248221   1.907   7.633   1.204
15442SOL     OW48222  14.096   9.801  10.980
15442SOL    HW148223  14.112   9.726  11.037
15442SOL    HW248224  14.119   9.770  10.892
15443SOL     OW48225   7.569  14.676  12.593
15443SOL    HW148226   7.589  14.696  12.501
15443SOL    HW248227   7.581  14.760  12.638
15444SOL     OW48228   7.028  13.778  12.702
15444SOL    HW148229   7.000  13.862  12.740
15444SOL    HW248230   7.123  13.781  12.704
15445SOL     OW48231  10.274   5.016   5.280
15445SOL    HW148232  10.221   4.953   5.230
15445SOL    HW248233  10.351   4.965   5.307
15446SOL     OW48234  10.960   6.664   9.524
15446SOL    HW148235  10.988   6.712   9.603
15446SOL    HW248236  11.024   6.594   9.515
15447SOL     OW48237   6.165   1.457   9.892
15447SOL    HW148238   6.159   1.435   9.985
15447SOL    HW248239   6.258   1.449   9.871
15448SOL     OW48240   3.096   1.340   9.484
15448SOL    HW148241   3.114   1.323   9.576
15448SOL    HW248242   3.022   1.401   9.484
15449SOL     OW48243   5.897  11.936   9.577
15449SOL    HW148244   5.852  11.929   9.493
15449SOL    HW248245   5.979  11.890   9.564
15450SOL     OW48246   9.294   0.159   8.273
15450SOL    HW148247   9.298   0.108   8.354
15450SOL    HW248248   9.380   0.145   8.233
15451SOL     OW48249   4.570   6.207  12.177
15451SOL    HW148250   4.551   6.298  12.203
15451SOL    HW248251   4.496   6.182  12.122
15452SOL     OW48252  10.866  10.108   8.419
15452SOL    HW148253  10.871  10.025   8.371
15452SOL    HW248254  10.926  10.097   8.492
15453SOL     OW48255   0.565   3.154   3.271
15453SOL    HW148256   0.546   3.228   3.329
15453SOL    HW248257   0.544   3.076   3.323
15454SOL     OW48258   4.646   7.007  12.017
15454SOL    HW148259   4.651   7.057  12.098
15454SOL    HW248260   4.657   6.916  12.044
15455SOL     OW48261   4.702   8.636   9.514
15455SOL    HW148262   4.797   8.644   9.502
15455SOL    HW248263   4.688   8.543   9.534
15456SOL     OW48264  11.749   5.058  12.515
15456SOL    HW148265  11.736   4.970  12.550
15456SOL    HW248266  11.820   5.095  12.568
15457SOL     OW48267  11.230   9.968   4.088
15457SOL    HW148268  11.140   9.992   4.108
15457SOL    HW248269  11.254   9.904   4.155
15458SOL     OW48270   1.140  14.046   0.708
15458SOL    HW148271   1.228  14.055   0.672
15458SOL    HW248272   1.112  14.136   0.726
15459SOL     OW48273   3.523   2.095  14.508
15459SOL    HW148274   3.480   2.096  14.593
15459SOL    HW248275   3.538   2.187  14.488
15460SOL     OW48276   5.581   3.831   5.752
15460SOL    HW148277   5.599   3.829   5.846
15460SOL    HW248278   5.493   3.869   5.746
15461SOL     OW48279   2.259  12.503  13.756
15461SOL    HW148280   2.196  12.440  13.722
15461SOL    HW248281   2.342  12.480  13.714
15462SOL     OW48282   9.891  14.804  12.685
15462SOL    HW148283   9.886  14.843  12.597
15462SOL    HW248284   9.982  14.815  12.711
15463SOL     OW48285  11.653  11.449   4.936
15463SOL    HW148286  11.692  11.440   4.849
15463SOL    HW248287  11.703  11.519   4.977
15464SOL     OW48288   1.379   6.493  12.356
15464SOL    HW148289   1.314   6.561  12.372
15464SOL    HW248290   1.378   6.439  12.435
15465SOL     OW48291   4.916   4.870   5.512
15465SOL    HW148292   4.922   4.957   5.550
15465SOL    HW248293   4.986   4.820   5.554
15466SOL     OW48294   9.201   4.299   0.349
15466SOL    HW148295   9.244   4.220   0.381
15466SOL    HW248296   9.110   4.291   0.378
15467SOL     OW48297  11.306   3.954  11.945
15467SOL    HW148298  11.321   3.999  12.028
15467SOL    HW248299  11.242   3.886  11.966
15468SOL     OW48300   4.204  14.856   3.651
15468SOL    HW148301   4.250   0.034   3.704
15468SOL    HW248302   4.260  14.778   3.655
15469SOL     OW48303   8.220  12.693   4.235
15469SOL    HW148304   8.145  12.751   4.249
15469SOL    HW248305   8.256  12.719   4.151
15470SOL     OW48306  13.250  11.933   5.051
15470SOL    HW148307  13.218  11.963   4.966
15470SOL    HW248308  13.212  11.845   5.062
15471SOL     OW48309  13.146   1.074   3.283
15471SOL    HW148310  13.209   1.108   3.347
15471SOL    HW248311  13.060   1.093   3.321
15472SOL     OW48312   1.570   3.591   9.394
15472SOL    HW148313   1.514   3.518   9.371
15472SOL    HW248314   1.523   3.669   9.362
15473SOL     OW48315   0.588  12.666   1.046
15473SOL    HW148316   0.569  12.618   0.966
15473SOL    HW248317   0.683  12.667   1.053
15474SOL     OW48318   1.124   7.505   2.939
15474SOL    HW148319   1.181   7.563   2.991
15474SOL    HW248320   1.184   7.444   2.897
15475SOL     OW48321   3.944  12.127   4.633
15475SOL    HW148322   3.867  12.073   4.613
15475SOL    HW248323   4.007  12.065   4.671
15476SOL     OW48324   0.172  10.469   2.059
15476SOL    HW148325   0.115  10.542   2.035
15476SOL    HW248326   0.121  10.391   2.041
15477SOL     OW48327   9.639  10.857   6.893
15477SOL    HW148328   9.633  10.762   6.890
15477SOL    HW248329   9.623  10.880   6.984
15478SOL     OW48330  13.229  14.247   3.249
15478SOL    HW148331  13.248  14.155   3.267
15478SOL    HW248332  13.155  14.244   3.188
15479SOL     OW48333   8.977   9.663   3.625
15479SOL    HW148334   9.056   9.716   3.624
15479SOL    HW248335   8.946   9.664   3.535
15480SOL     OW48336  13.528   1.405   8.270
15480SOL    HW148337  13.508   1.496   8.250
15480SOL    HW248338  13.471   1.383   8.344
15481SOL     OW48339   7.212   4.278   2.321
15481SOL    HW148340   7.305   4.291   2.335
15481SOL    HW248341   7.171   4.302   2.404
15482SOL     OW48342  10.938   0.076  10.291
15482SOL    HW148343  11.010   0.049  10.234
15482SOL    HW248344  10.982   0.112  10.368
15483SOL     OW48345   2.282   0.402  14.054
15483SOL    HW148346   2.354   0.412  13.992
15483SOL    HW248347   2.229   0.331  14.018
15484SOL     OW48348   3.208   5.454   9.750
15484SOL    HW148349   3.119   5.489   9.759
15484SOL    HW248350   3.264   5.518   9.793
15485SOL     OW48351   5.101   3.623  13.640
15485SOL    HW148352   5.051   3.702  13.661
15485SOL    HW248353   5.174   3.654  13.586
15486SOL     OW48354   0.007   9.242   7.725
15486SOL    HW148355  14.831   9.284   7.667
15486SOL    HW248356   0.019   9.303   7.797
15487SOL     OW48357   2.926  11.450  11.636
15487SOL    HW148358   3.009  11.415  11.603
15487SOL    HW248359   2.946  11.476  11.726
15488SOL     OW48360   0.041   4.468  10.707
15488SOL    HW148361  14.846   4.462  10.659
15488SOL    HW248362   0.031   4.407  10.780
15489SOL     OW48363   8.742  10.419  11.549
15489SOL    HW148364   8.711  10.507  11.528
15489SOL    HW248365   8.663  10.372  11.576
15490SOL     OW48366   5.939  10.501   6.655
15490SOL    HW148367   5.937  10.433   6.722
15490SOL    HW248368   5.873  10.564   6.681
15491SOL     OW48369   9.537   7.013   9.721
15491SOL    HW148370   9.556   6.990   9.630
15491SOL    HW248371   9.445   6.987   9.733
15492SOL     OW48372   9.109  10.621   7.387
15492SOL    HW148373   9.141  10.691   7.443
15492SOL    HW248374   9.014  10.622   7.400
15493SOL     OW48375   1.293   7.431   6.790
15493SOL    HW148376   1.344   7.372   6.734
15493SOL    HW248377   1.203   7.421   6.760
15494SOL     OW48378  14.761   4.862   3.052
15494SOL    HW148379  14.726   4.865   2.963
15494SOL    HW248380  14.817   4.939   3.058
15495SOL     OW48381  10.372   7.784   7.814
15495SOL    HW148382  10.344   7.825   7.732
15495SOL    HW248383  10.425   7.852   7.857
15496SOL     OW48384   5.110   4.852  11.279
15496SOL    HW148385   5.205   4.847  11.286
15496SOL    HW248386   5.078   4.805  11.356
15497SOL     OW48387   2.391  13.159   1.419
15497SOL    HW148388   2.370  13.231   1.360
15497SOL    HW248389   2.357  13.187   1.504
15498SOL     OW48390   0.498  13.625   5.219
15498SOL    HW148391   0.441  13.555   5.252
15498SOL    HW248392   0.437  13.688   5.179
15499SOL     OW48393   3.087  10.733   1.260
15499SOL    HW148394   3.094  10.776   1.345
15499SOL    HW248395   3.109  10.642   1.277
15500SOL     OW48396   2.544   7.546   0.617
15500SOL    HW148397   2.579   7.501   0.540
15500SOL    HW248398   2.570   7.637   0.606
15501SOL     OW48399   0.311  11.110  11.969
15501SOL    HW148400   0.354  11.195  11.958
15501SOL    HW248401   0.221  11.126  11.941
15502SOL     OW48402   2.775   7.707  10.278
15502SOL    HW148403   2.795   7.788  10.231
15502SOL    HW248404   2.700   7.730  10.334
15503SOL     OW48405   3.399  13.696   2.272
15503SOL    HW148406   3.478  13.646   2.253
15503SOL    HW248407   3.378  13.742   2.190
15504SOL     OW48408   2.234   1.580   9.311
15504SOL    HW148409   2.178   1.611   9.383
15504SOL    HW248410   2.205   1.630   9.235
15505SOL     OW48411   5.758  13.809   9.425
15505SOL    HW148412   5.733  13.816   9.517
15505SOL    HW248413   5.743  13.717   9.404
15506SOL     OW48414   0.017   2.464   7.547
15506SOL    HW148415   0.028   2.397   7.479
15506SOL    HW248416   0.053   2.424   7.626
15507SOL     OW48417  11.715   0.675  10.464
15507SOL    HW148418  11.629   0.633  10.455
15507SOL    HW248419  11.714   0.714  10.551
15508SOL     OW48420   5.813  11.492  12.933
15508SOL    HW148421   5.862  11.410  12.922
15508SOL    HW248422   5.770  11.505  12.848
15509SOL     OW48423   8.985   1.616  11.060
15509SOL    HW148424   8.910   1.595  11.115
15509SOL    HW248425   8.950   1.672  10.991
15510SOL     OW48426   0.912  11.033   7.168
15510SOL    HW148427   0.929  11.078   7.085
15510SOL    HW248428   0.827  11.068   7.197
15511SOL     OW48429  12.345   6.559   2.745
15511SOL    HW148430  12.393   6.522   2.672
15511SOL    HW248431  12.334   6.652   2.722
15512SOL     OW48432  11.960  14.206   4.980
15512SOL    HW148433  11.921  14.156   4.908
15512SOL    HW248434  11.901  14.193   5.054
15513SOL     OW48435   3.352   7.143   8.595
15513SOL    HW148436   3.318   7.061   8.560
15513SOL    HW248437   3.435   7.156   8.548
15514SOL     OW48438   2.688   6.761   7.374
15514SOL    HW148439   2.763   6.704   7.356
15514SOL    HW248440   2.713   6.845   7.336
15515SOL     OW48441   4.079   3.796   4.430
15515SOL    HW148442   4.016   3.822   4.498
15515SOL    HW248443   4.165   3.812   4.469
15516SOL     OW48444   0.587   8.769  13.806
15516SOL    HW148445   0.550   8.846  13.763
15516SOL    HW248446   0.518   8.703  13.800
15517SOL     OW48447   4.326  10.133   6.398
15517SOL    HW148448   4.327  10.040   6.376
15517SOL    HW248449   4.398  10.144   6.460
15518SOL     OW48450  10.256   6.898  13.369
15518SOL    HW148451  10.180   6.841  13.360
15518SOL    HW248452  10.301   6.866  13.447
15519SOL     OW48453   7.417   6.581  11.191
15519SOL    HW148454   7.493   6.632  11.160
15519SOL    HW248455   7.349   6.599  11.127
15520SOL     OW48456   5.185   3.846   9.988
15520SOL    HW148457   5.238   3.907  10.040
15520SOL    HW248458   5.173   3.770  10.045
15521SOL     OW48459   4.538  10.109  12.477
15521SOL    HW148460   4.506  10.081  12.391
15521SOL    HW248461   4.504  10.044  12.538
15522SOL     OW48462  12.231  13.629  12.080
15522SOL    HW148463  12.314  13.582  12.072
15522SOL    HW248464  12.173  13.568  12.125
15523SOL     OW48465  11.831  14.081   3.526
15523SOL    HW148466  11.745  14.066   3.487
15523SOL    HW248467  11.823  14.166   3.569
15524SOL     OW48468  10.211  11.573   2.833
15524SOL    HW148469  10.155  11.568   2.911
15524SOL    HW248470  10.294  11.535   2.861
15525SOL     OW48471   1.482   8.945   9.475
15525SOL    HW148472   1.554   9.000   9.505
15525SOL    HW248473   1.403   8.992   9.503
15526SOL     OW48474  10.959   7.635  10.445
15526SOL    HW148475  10.933   7.545  10.426
15526SOL    HW248476  10.890   7.668  10.503
15527SOL     OW48477   7.119   4.934   5.403
15527SOL    HW148478   7.063   5.000   5.443
15527SOL    HW248479   7.201   4.939   5.452
15528SOL     OW48480   5.257  14.773   0.779
15528SOL    HW148481   5.204  14.758   0.858
15528SOL    HW248482   5.279  14.686   0.748
15529SOL     OW48483   5.107   3.223  14.408
15529SOL    HW148484   5.184   3.248  14.460
15529SOL    HW248485   5.057   3.166  14.466
15530SOL     OW48486   1.866   8.658   1.806
15530SOL    HW148487   1.788   8.658   1.751
15530SOL    HW248488   1.938   8.679   1.745
15531SOL     OW48489   2.048   6.006  14.758
15531SOL    HW148490   1.965   6.011  14.807
15531SOL    HW248491   2.061   5.912  14.743
15532SOL     OW48492   7.364   9.716  12.382
15532SOL    HW148493   7.398   9.628  12.363
15532SOL    HW248494   7.350   9.755  12.296
15533SOL     OW48495   5.017  12.476   3.138
15533SOL    HW148496   4.949  12.525   3.091
15533SOL    HW248497   5.071  12.544   3.179
15534SOL     OW48498   0.750  12.933   9.743
15534SOL    HW148499   0.804  12.944   9.822
15534SOL    HW248500   0.808  12.956   9.671
15535SOL     OW48501   4.491  14.758  12.266
15535SOL    HW148502   4.440  14.704  12.205
15535SOL    HW248503   4.579  14.758  12.230
15536SOL     OW48504   2.272  11.100   4.667
15536SOL    HW148505   2.245  11.013   4.637
15536SOL    HW248506   2.332  11.132   4.600
15537SOL     OW48507  12.139   4.745   2.674
15537SOL    HW148508  12.061   4.712   2.629
15537SOL    HW248509  12.130   4.840   2.671
15538SOL     OW48510  13.860  14.095  14.127
15538SOL    HW148511  13.776  14.081  14.083
15538SOL    HW248512  13.921  14.037  14.080
15539SOL     OW48513  10.514   5.612  11.985
15539SOL    HW148514  10.461   5.587  12.060
15539SOL    HW248515  10.580   5.544  11.978
15540SOL     OW48516   5.953   8.238   4.175
15540SOL    HW148517   5.965   8.213   4.267
15540SOL    HW248518   5.858   8.234   4.162
15541SOL     OW48519   2.829   8.815   8.517
15541SOL    HW148520   2.763   8.854   8.459
15541SOL    HW248521   2.834   8.723   8.490
15542SOL     OW48522   3.556  13.101  13.761
15542SOL    HW148523   3.492  13.030  13.766
15542SOL    HW248524   3.526  13.156  13.689
15543SOL     OW48525   6.720  12.756   2.941
15543SOL    HW148526   6.728  12.674   2.893
15543SOL    HW248527   6.753  12.823   2.881
15544SOL     OW48528   7.177  11.765   4.720
15544SOL    HW148529   7.238  11.806   4.782
15544SOL    HW248530   7.234  11.727   4.653
15545SOL     OW48531   5.598   9.737  10.289
15545SOL    HW148532   5.661   9.788  10.238
15545SOL    HW248533   5.611   9.646  10.260
15546SOL     OW48534   7.653   1.955  11.569
15546SOL    HW148535   7.644   1.967  11.663
15546SOL    HW248536   7.565   1.972  11.534
15547SOL     OW48537  12.402   7.143   7.711
15547SOL    HW148538  12.384   7.163   7.619
15547SOL    HW248539  12.316   7.120   7.747
15548SOL     OW48540   1.735   0.168   6.843
15548SOL    HW148541   1.811   0.163   6.901
15548SOL    HW248542   1.676   0.100   6.876
15549SOL     OW48543   2.634  10.309   3.643
15549SOL    HW148544   2.620  10.391   3.596
15549SOL    HW248545   2.718  10.320   3.687
15550SOL     OW48546   3.734   2.496   3.654
15550SOL    HW148547   3.747   2.485   3.748
15550SOL    HW248548   3.800   2.560   3.628
15551SOL     OW48549   1.614   3.872   7.098
15551SOL    HW148550   1.570   3.822   7.166
15551SOL    HW248551   1.594   3.826   7.017
15552SOL     OW48552   1.172   6.643   9.508
15552SOL    HW148553   1.223   6.655   9.428
15552SOL    HW248554   1.115   6.720   9.511
15553SOL     OW48555   8.266  11.917   2.954
15553SOL    HW148556   8.310  11.952   2.877
15553SOL    HW248557   8.189  11.872   2.919
15554SOL     OW48558   5.959  12.144   5.575
15554SOL    HW148559   6.037  12.168   5.525
15554SOL    HW248560   5.980  12.171   5.665
15555SOL     OW48561   5.154  11.445   0.844
15555SOL    HW148562   5.078  11.437   0.901
15555SOL    HW248563   5.168  11.539   0.835
15556SOL     OW48564   4.293   6.874  13.660
15556SOL    HW148565   4.265   6.797  13.709
15556SOL    HW248566   4.318   6.839  13.574
15557SOL     OW48567   4.604   5.573   2.726
15557SOL    HW148568   4.609   5.651   2.780
15557SOL    HW248569   4.641   5.503   2.780
15558SOL     OW48570  14.318   9.989   1.132
15558SOL    HW148571  14.269  10.059   1.089
15558SOL    HW248572  14.274   9.978   1.217
15559SOL     OW48573   0.932  12.503   7.853
15559SOL    HW148574   0.970  12.417   7.871
15559SOL    HW248575   1.008  12.561   7.843
15560SOL     OW48576   2.298   9.754   5.672
15560SOL    HW148577   2.327   9.822   5.733
15560SOL    HW248578   2.324   9.672   5.713
15561SOL     OW48579  14.379  14.368   7.003
15561SOL    HW148580  14.408  14.439   7.061
15561SOL    HW248581  14.295  14.398   6.968
15562SOL     OW48582   8.358  13.784  11.694
15562SOL    HW148583   8.411  13.745  11.624
15562SOL    HW248584   8.327  13.709  11.744
15563SOL     OW48585   4.018  10.546   7.337
15563SOL    HW148586   3.947  10.562   7.400
15563SOL    HW248587   3.975  10.539   7.252
15564SOL     OW48588   3.416   2.816  13.762
15564SOL    HW148589   3.350   2.756  13.799
15564SOL    HW248590   3.367   2.868  13.698
15565SOL     OW48591   6.716   3.606  12.267
15565SOL    HW148592   6.797   3.609  12.317
15565SOL    HW248593   6.682   3.517  12.281
15566SOL     OW48594  13.143  12.633  12.813
15566SOL    HW148595  13.065  12.688  12.827
15566SOL    HW248596  13.216  12.694  12.822
15567SOL     OW48597  11.315   7.069   6.695
15567SOL    HW148598  11.284   7.135   6.757
15567SOL    HW248599  11.260   7.081   6.617
15568SOL     OW48600   8.527   0.547   6.198
15568SOL    HW148601   8.455   0.584   6.249
15568SOL    HW248602   8.598   0.535   6.261
15569SOL     OW48603  12.410   7.053  11.868
15569SOL    HW148604  12.420   7.147  11.881
15569SOL    HW248605  12.330   7.031  11.916
15570SOL     OW48606   0.894  10.136   4.378
15570SOL    HW148607   0.966  10.196   4.357
15570SOL    HW248608   0.923  10.051   4.346
15571SOL     OW48609  11.805   7.746  14.473
15571SOL    HW148610  11.837   7.696  14.548
15571SOL    HW248611  11.717   7.711  14.458
15572SOL     OW48612   6.920   6.280   8.821
15572SOL    HW148613   6.922   6.371   8.851
15572SOL    HW248614   6.979   6.234   8.881
15573SOL     OW48615   6.741   5.295  12.649
15573SOL    HW148616   6.731   5.386  12.620
15573SOL    HW248617   6.739   5.301  12.745
15574SOL     OW48618  14.137   2.521  12.828
15574SOL    HW148619  14.091   2.499  12.747
15574SOL    HW248620  14.120   2.614  12.841
15575SOL     OW48621   3.904   9.217   4.594
15575SOL    HW148622   3.919   9.123   4.584
15575SOL    HW248623   3.975   9.247   4.652
15576SOL     OW48624   9.655   9.415   7.403
15576SOL    HW148625   9.703   9.493   7.377
15576SOL    HW248626   9.680   9.349   7.339
15577SOL     OW48627   9.132   2.017   9.399
15577SOL    HW148628   9.217   2.002   9.358
15577SOL    HW248629   9.133   2.111   9.421
15578SOL     OW48630  10.597   3.448   5.942
15578SOL    HW148631  10.659   3.382   5.911
15578SOL    HW248632  10.591   3.512   5.871
15579SOL     OW48633   9.281   8.069  12.050
15579SOL    HW148634   9.371   8.037  12.056
15579SOL    HW248635   9.254   8.049  11.961
15580SOL     OW48636   9.921   0.588  13.646
15580SOL    HW148637   9.960   0.554  13.727
15580SOL    HW248638   9.883   0.672  13.672
15581SOL     OW48639  14.807   5.201   9.039
15581SOL    HW148640  14.843   5.116   9.062
15581SOL    HW248641  14.815   5.206   8.944
15582SOL     OW48642   4.786   4.110   5.251
15582SOL    HW148643   4.720   4.057   5.296
15582SOL    HW248644   4.761   4.104   5.158
15583SOL     OW48645  10.833   3.113   3.660
15583SOL    HW148646  10.865   3.028   3.689
15583SOL    HW248647  10.868   3.123   3.571
15584SOL     OW48648   3.626   0.005   2.781
15584SOL    HW148649   3.707   0.023   2.734
15584SOL    HW248650   3.562  14.874   2.713
15585SOL     OW48651   4.401   9.616   9.833
15585SOL    HW148652   4.332   9.681   9.838
15585SOL    HW248653   4.470   9.658   9.781
15586SOL     OW48654   6.787   6.030   1.753
15586SOL    HW148655   6.713   6.090   1.746
15586SOL    HW248656   6.804   6.002   1.663
15587SOL     OW48657  11.417   4.447  13.755
15587SOL    HW148658  11.476   4.443  13.831
15587SOL    HW248659  11.371   4.363  13.757
15588SOL     OW48660  11.625   8.070   4.050
15588SOL    HW148661  11.591   8.053   3.962
15588SOL    HW248662  11.661   8.159   4.044
15589SOL     OW48663  11.485   0.167   5.460
15589SOL    HW148664  11.437   0.190   5.380
15589SOL    HW248665  11.450   0.082   5.486
15590SOL     OW48666  12.311   8.924  10.107
15590SOL    HW148667  12.222   8.950  10.131
15590SOL    HW248668  12.306   8.909  10.012
15591SOL     OW48669   1.745  12.724  11.715
15591SOL    HW148670   1.674  12.679  11.671
15591SOL    HW248671   1.816  12.660  11.721
15592SOL     OW48672   8.623   1.141  10.672
15592SOL    HW148673   8.630   1.087  10.594
15592SOL    HW248674   8.700   1.118  10.725
15593SOL     OW48675   1.083  12.244  12.196
15593SOL    HW148676   1.096  12.201  12.111
15593SOL    HW248677   0.998  12.288  12.187
15594SOL     OW48678  10.966   5.056   8.607
15594SOL    HW148679  10.901   5.118   8.639
15594SOL    HW248680  11.012   5.027   8.686
15595SOL     OW48681   6.870  13.839   7.189
15595SOL    HW148682   6.777  13.858   7.195
15595SOL    HW248683   6.913  13.918   7.224
15596SOL     OW48684  11.674   2.122   0.158
15596SOL    HW148685  11.669   2.026   0.151
15596SOL    HW248686  11.584   2.148   0.178
15597SOL     OW48687  12.499   8.697   2.702
15597SOL    HW148688  12.575   8.670   2.753
15597SOL    HW248689  12.525   8.684   2.611
15598SOL     OW48690  14.214   6.433   2.509
15598SOL    HW148691  14.232   6.520   2.546
15598SOL    HW248692  14.120   6.434   2.491
15599SOL     OW48693   5.192   2.604  10.887
15599SOL    HW148694   5.106   2.597  10.848
15599SOL    HW248695   5.200   2.526  10.942
15600SOL     OW48696  10.897   9.059   8.905
15600SOL    HW148697  10.891   8.991   8.838
15600SOL    HW248698  10.932   9.014   8.982
15601SOL     OW48699  13.018   3.865   8.023
15601SOL    HW148700  12.944   3.924   8.009
15601SOL    HW248701  13.000   3.824   8.108
15602SOL     OW48702   9.819   9.319   6.158
15602SOL    HW148703   9.754   9.380   6.193
15602SOL    HW248704   9.790   9.233   6.189
15603SOL     OW48705   5.232  10.709  13.208
15603SOL    HW148706   5.256  10.670  13.124
15603SOL    HW248707   5.183  10.788  13.184
15604SOL     OW48708  10.138   9.993   2.510
15604SOL    HW148709  10.044   9.983   2.527
15604SOL    HW248710  10.153  10.087   2.517
15605SOL     OW48711   9.840   1.066   7.235
15605SOL    HW148712   9.786   1.035   7.308
15605SOL    HW248713   9.858   0.987   7.183
15606SOL     OW48714   9.988   2.920   9.933
15606SOL    HW148715  10.007   2.928  10.026
15606SOL    HW248716  10.074   2.910   9.891
15607SOL     OW48717   4.714   7.951   3.743
15607SOL    HW148718   4.656   7.877   3.724
15607SOL    HW248719   4.800   7.911   3.756
15608SOL     OW48720   9.454  12.992  10.960
15608SOL    HW148721   9.392  12.940  11.012
15608SOL    HW248722   9.512  12.927  10.921
15609SOL     OW48723   4.701   1.244   5.538
15609SOL    HW148724   4.662   1.174   5.485
15609SOL    HW248725   4.778   1.271   5.488
15610SOL     OW48726   2.753  12.090   6.187
15610SOL    HW148727   2.761  12.093   6.283
15610SOL    HW248728   2.664  12.123   6.170
15611SOL     OW48729   0.689   3.434  11.653
15611SOL    HW148730   0.783   3.435  11.671
15611SOL    HW248731   0.651   3.495  11.716
15612SOL     OW48732   5.065   6.663   2.839
15612SOL    HW148733   5.128   6.727   2.873
15612SOL    HW248734   5.064   6.680   2.744
15613SOL     OW48735   3.193  11.144   0.597
15613SOL    HW148736   3.190  11.050   0.614
15613SOL    HW248737   3.283  11.161   0.570
15614SOL     OW48738  10.069   2.126   5.821
15614SOL    HW148739  10.053   2.043   5.866
15614SOL    HW248740   9.987   2.145   5.776
15615SOL     OW48741  11.194   7.129  11.266
15615SOL    HW148742  11.249   7.062  11.224
15615SOL    HW248743  11.234   7.212  11.240
15616SOL     OW48744   0.109   0.684   6.654
15616SOL    HW148745   0.189   0.676   6.601
15616SOL    HW248746   0.130   0.640   6.736
15617SOL     OW48747   6.614   2.564  13.313
15617SOL    HW148748   6.594   2.582  13.222
15617SOL    HW248749   6.569   2.633  13.362
15618SOL     OW48750   0.858  10.194   6.104
15618SOL    HW148751   0.882  10.286   6.106
15618SOL    HW248752   0.923  10.151   6.161
15619SOL     OW48753  14.476   0.995   0.229
15619SOL    HW148754  14.539   1.010   0.298
15619SOL    HW248755  14.528   0.987   0.149
15620SOL     OW48756   6.698   9.838   8.047
15620SOL    HW148757   6.630   9.853   8.113
15620SOL    HW248758   6.651   9.799   7.973
15621SOL     OW48759   1.927   7.469  10.212
15621SOL    HW148760   1.926   7.537  10.145
15621SOL    HW248761   1.855   7.410  10.188
15622SOL     OW48762   2.531   8.221   9.455
15622SOL    HW148763   2.437   8.230   9.469
15622SOL    HW248764   2.557   8.301   9.409
15623SOL     OW48765   8.242   1.870   6.117
15623SOL    HW148766   8.231   1.862   6.022
15623SOL    HW248767   8.192   1.949   6.139
15624SOL     OW48768   1.418   1.048   1.572
15624SOL    HW148769   1.339   0.994   1.570
15624SOL    HW248770   1.390   1.132   1.608
15625SOL     OW48771   2.590  12.898   6.912
15625SOL    HW148772   2.629  12.961   6.851
15625SOL    HW248773   2.650  12.824   6.912
15626SOL     OW48774   3.783   3.858   5.143
15626SOL    HW148775   3.716   3.867   5.211
15626SOL    HW248776   3.810   3.766   5.149
15627SOL     OW48777  12.333  11.951   1.497
15627SOL    HW148778  12.242  11.945   1.467
15627SOL    HW248779  12.331  11.919   1.587
15628SOL     OW48780   6.076   8.882  14.347
15628SOL    HW148781   6.066   8.926  14.262
15628SOL    HW248782   6.030   8.938  14.409
15629SOL     OW48783   4.976   8.365   5.519
15629SOL    HW148784   5.065   8.350   5.550
15629SOL    HW248785   4.955   8.454   5.549
15630SOL     OW48786  10.565   2.828   4.650
15630SOL    HW148787  10.620   2.901   4.621
15630SOL    HW248788  10.621   2.778   4.709
15631SOL     OW48789  14.535   3.699   2.478
15631SOL    HW148790  14.443   3.691   2.454
15631SOL    HW248791  14.558   3.789   2.456
15632SOL     OW48792  14.886  12.611   1.933
15632SOL    HW148793  14.834  12.674   1.884
15632SOL    HW248794  14.885  12.531   1.880
15633SOL     OW48795   9.596  12.840   8.091
15633SOL    HW148796   9.636  12.754   8.105
15633SOL    HW248797   9.570  12.869   8.179
15634SOL     OW48798  13.977   9.614  14.516
15634SOL    HW148799  13.924   9.663  14.454
15634SOL    HW248800  13.969   9.662  14.598
15635SOL     OW48801   9.102  13.321   1.407
15635SOL    HW148802   9.106  13.367   1.491
15635SOL    HW248803   9.177  13.262   1.408
15636SOL     OW48804   9.711   9.481  13.119
15636SOL    HW148805   9.664   9.530  13.186
15636SOL    HW248806   9.644   9.459  13.054
15637SOL     OW48807  11.668   4.200   5.033
15637SOL    HW148808  11.652   4.281   5.081
15637SOL    HW248809  11.618   4.210   4.952
15638SOL     OW48810   3.304  11.366   1.309
15638SOL    HW148811   3.253  11.311   1.368
15638SOL    HW248812   3.240  11.404   1.249
15639SOL     OW48813  10.224  13.078   9.539
15639SOL    HW148814  10.164  13.006   9.555
15639SOL    HW248815  10.305  13.035   9.509
15640SOL     OW48816   4.367   7.013  13.890
15640SOL    HW148817   4.423   7.073  13.841
15640SOL    HW248818   4.354   6.939  13.832
15641SOL     OW48819   6.749  13.912   5.445
15641SOL    HW148820   6.752  13.955   5.360
15641SOL    HW248821   6.685  13.962   5.496
15642SOL     OW48822   7.019   9.695   0.337
15642SOL    HW148823   7.027   9.660   0.426
15642SOL    HW248824   6.988   9.622   0.285
15643SOL     OW48825   0.396   5.511   1.153
15643SOL    HW148826   0.418   5.596   1.192
15643SOL    HW248827   0.338   5.533   1.080
15644SOL     OW48828   2.110   7.622  14.334
15644SOL    HW148829   2.045   7.689  14.313
15644SOL    HW248830   2.193   7.669  14.339
15645SOL     OW48831   4.737  14.731  12.159
15645SOL    HW148832   4.829  14.720  12.183
15645SOL    HW248833   4.731  14.820  12.125
15646SOL     OW48834   3.241  11.098  10.600
15646SOL    HW148835   3.187  11.172  10.571
15646SOL    HW248836   3.303  11.137  10.661
15647SOL     OW48837   2.175   9.819   9.921
15647SOL    HW148838   2.186   9.729   9.952
15647SOL    HW248839   2.114   9.812   9.847
15648SOL     OW48840  10.669  10.148   3.956
15648SOL    HW148841  10.666  10.092   4.034
15648SOL    HW248842  10.590  10.126   3.907
15649SOL     OW48843   1.814   8.736   0.275
15649SOL    HW148844   1.737   8.791   0.289
15649SOL    HW248845   1.882   8.777   0.328
15650SOL     OW48846   3.410   8.060  14.452
15650SOL    HW148847   3.468   8.055  14.377
15650SOL    HW248848   3.459   8.111  14.517
15651SOL     OW48849   0.750   2.753  13.096
15651SOL    HW148850   0.668   2.731  13.053
15651SOL    HW248851   0.758   2.848  13.087
15652SOL     OW48852   7.452   3.302  10.400
15652SOL    HW148853   7.446   3.383  10.350
15652SOL    HW248854   7.362   3.268  10.400
15653SOL     OW48855   8.083   3.181   0.790
15653SOL    HW148856   7.999   3.183   0.836
15653SOL    HW248857   8.086   3.095   0.749
15654SOL     OW48858  10.538   1.400   3.111
15654SOL    HW148859  10.469   1.343   3.145
15654SOL    HW248860  10.584   1.347   3.046
15655SOL     OW48861  14.807  13.525  10.119
15655SOL    HW148862  14.880  13.493  10.066
15655SOL    HW248863  14.844  13.595  10.171
15656SOL     OW48864   4.882   7.485   2.404
15656SOL    HW148865   4.813   7.445   2.352
15656SOL    HW248866   4.855   7.471   2.495
15657SOL     OW48867   2.123   9.429  12.539
15657SOL    HW148868   2.116   9.466  12.627
15657SOL    HW248869   2.039   9.386  12.524
15658SOL     OW48870   4.047   6.295   5.894
15658SOL    HW148871   4.032   6.239   5.970
15658SOL    HW248872   3.959   6.319   5.864
15659SOL     OW48873  12.608  13.993   3.053
15659SOL    HW148874  12.531  13.971   3.000
15659SOL    HW248875  12.574  13.997   3.143
15660SOL     OW48876   9.706   8.535  14.189
15660SOL    HW148877   9.789   8.515  14.145
15660SOL    HW248878   9.658   8.452  14.186
15661SOL     OW48879   4.273  13.616  11.710
15661SOL    HW148880   4.197  13.661  11.748
15661SOL    HW248881   4.284  13.657  11.624
15662SOL     OW48882   6.598   6.587   7.818
15662SOL    HW148883   6.516   6.621   7.855
15662SOL    HW248884   6.595   6.493   7.834
15663SOL     OW48885   5.297  12.731   1.984
15663SOL    HW148886   5.250  12.807   2.019
15663SOL    HW248887   5.362  12.710   2.050
15664SOL     OW48888  14.807   5.277   9.502
15664SOL    HW148889  14.780   5.225   9.426
15664SOL    HW248890  14.824   5.364   9.466
15665SOL     OW48891   4.860   4.211  14.259
15665SOL    HW148892   4.940   4.257  14.283
15665SOL    HW248893   4.813   4.272  14.202
15666SOL     OW48894   0.248  12.243   8.890
15666SOL    HW148895   0.227  12.156   8.923
15666SOL    HW248896   0.290  12.227   8.805
15667SOL     OW48897  10.451   8.258   0.277
15667SOL    HW148898  10.406   8.196   0.219
15667SOL    HW248899  10.396   8.262   0.355
15668SOL     OW48900   3.253   0.269  11.853
15668SOL    HW148901   3.216   0.185  11.878
15668SOL    HW248902   3.348   0.254  11.853
15669SOL     OW48903  12.591  10.582  14.407
15669SOL    HW148904  12.566  10.507  14.354
15669SOL    HW248905  12.579  10.553  14.497
15670SOL     OW48906  13.369   6.289   9.912
15670SOL    HW148907  13.335   6.372   9.948
15670SOL    HW248908  13.335   6.286   9.823
15671SOL     OW48909   9.390   4.993   5.606
15671SOL    HW148910   9.346   5.018   5.687
15671SOL    HW248911   9.318   4.969   5.546
15672SOL     OW48912   6.054  13.095  12.062
15672SOL    HW148913   6.053  13.026  11.996
15672SOL    HW248914   6.046  13.049  12.145
15673SOL     OW48915  13.911  14.271  10.155
15673SOL    HW148916  13.837  14.211  10.162
15673SOL    HW248917  13.876  14.357  10.180
15674SOL     OW48918   7.966   6.957   0.729
15674SOL    HW148919   8.017   6.915   0.799
15674SOL    HW248920   8.026   7.021   0.691
15675SOL     OW48921  11.745   5.885   5.690
15675SOL    HW148922  11.801   5.863   5.615
15675SOL    HW248923  11.700   5.965   5.663
15676SOL     OW48924   3.213  11.768   3.489
15676SOL    HW148925   3.183  11.858   3.477
15676SOL    HW248926   3.269  11.772   3.567
15677SOL     OW48927   1.958  10.168   6.425
15677SOL    HW148928   1.949  10.082   6.384
15677SOL    HW248929   1.963  10.150   6.518
15678SOL     OW48930  13.782  11.179   4.743
15678SOL    HW148931  13.690  11.206   4.755
15678SOL    HW248932  13.794  11.108   4.806
15679SOL     OW48933   7.120   4.765   2.613
15679SOL    HW148934   7.197   4.711   2.601
15679SOL    HW248935   7.047   4.709   2.586
15680SOL     OW48936   0.050  14.771   4.934
15680SOL    HW148937  14.850  14.801   4.911
15680SOL    HW248938   0.044  14.675   4.933
15681SOL     OW48939  11.998   4.426   4.788
15681SOL    HW148940  11.977   4.347   4.738
15681SOL    HW248941  12.076   4.403   4.838
15682SOL     OW48942   3.934   5.952   2.369
15682SOL    HW148943   3.909   5.870   2.326
15682SOL    HW248944   4.029   5.948   2.375
15683SOL     OW48945   7.253  10.447   0.479
15683SOL    HW148946   7.172  10.480   0.518
15683SOL    HW248947   7.322  10.501   0.519
15684SOL     OW48948  13.268  11.530   2.326
15684SOL    HW148949  13.354  11.518   2.286
15684SOL    HW248950  13.287  11.533   2.420
15685SOL     OW48951   6.322   1.617   9.181
15685SOL    HW148952   6.396   1.624   9.242
15685SOL    HW248953   6.322   1.700   9.134
15686SOL     OW48954   2.166   1.500   8.164
15686SOL    HW148955   2.210   1.584   8.176
15686SOL    HW248956   2.107   1.493   8.240
15687SOL     OW48957   9.716   0.396   6.262
15687SOL    HW148958   9.806   0.369   6.274
15687SOL    HW248959   9.666   0.343   6.324
15688SOL     OW48960   8.282   7.094   2.398
15688SOL    HW148961   8.366   7.089   2.354
15688SOL    HW248962   8.277   7.014   2.451
15689SOL     OW48963  14.851   5.977   1.013
15689SOL    HW148964  14.803   5.906   1.055
15689SOL    HW248965  14.800   6.056   1.035
15690SOL     OW48966  13.587  10.408  11.752
15690SOL    HW148967  13.659  10.371  11.804
15690SOL    HW248968  13.541  10.332  11.718
15691SOL     OW48969  10.132   7.587  13.453
15691SOL    HW148970  10.065   7.593  13.385
15691SOL    HW248971  10.214   7.574  13.406
15692SOL     OW48972   9.703   7.883  10.584
15692SOL    HW148973   9.733   7.847  10.500
15692SOL    HW248974   9.784   7.901  10.632
15693SOL     OW48975  11.248  14.736   1.480
15693SOL    HW148976  11.316  14.799   1.457
15693SOL    HW248977  11.295  14.653   1.491
15694SOL     OW48978   0.500   3.849  10.695
15694SOL    HW148979   0.506   3.895  10.778
15694SOL    HW248980   0.431   3.784  10.708
15695SOL     OW48981  12.086   3.133   8.868
15695SOL    HW148982  12.101   3.211   8.815
15695SOL    HW248983  12.079   3.061   8.805
15696SOL     OW48984   1.617   4.871   4.852
15696SOL    HW148985   1.566   4.817   4.792
15696SOL    HW248986   1.607   4.828   4.937
15697SOL     OW48987  10.562  10.356   0.591
15697SOL    HW148988  10.563  10.423   0.659
15697SOL    HW248989  10.516  10.282   0.630
15698SOL     OW48990   3.481  14.574   7.626
15698SOL    HW148991   3.416  14.506   7.612
15698SOL    HW248992   3.560  14.541   7.583
15699SOL     OW48993   8.504  14.637  10.328
15699SOL    HW148994   8.429  14.684  10.293
15699SOL    HW248995   8.557  14.615  10.252
15700SOL     OW48996   3.459   1.476  14.331
15700SOL    HW148997   3.513   1.556  14.329
15700SOL    HW248998   3.370   1.508  14.344
15701SOL     OW48999   5.457   0.425   9.715
15701SOL    HW149000   5.553   0.423   9.707
15701SOL    HW249001   5.438   0.512   9.750
15702SOL     OW49002   7.042  12.473   6.374
15702SOL    HW149003   7.115  12.449   6.317
15702SOL    HW249004   7.029  12.567   6.360
15703SOL     OW49005   9.481   1.338   5.012
15703SOL    HW149006   9.532   1.258   5.027
15703SOL    HW249007   9.546   1.408   5.015
15704SOL     OW49008  13.121  12.854   8.798
15704SOL    HW149009  13.204  12.808   8.806
15704SOL    HW249010  13.062  12.807   8.857
15705SOL     OW49011   0.564   7.461   2.068
15705SOL    HW149012   0.585   7.511   2.146
15705SOL    HW249013   0.565   7.369   2.097
15706SOL     OW49014  13.674  10.727  12.161
15706SOL    HW149015  13.679  10.715  12.066
15706SOL    HW249016  13.626  10.651  12.193
15707SOL     OW49017   6.780   2.883   9.210
15707SOL    HW149018   6.847   2.904   9.274
15707SOL    HW249019   6.711   2.840   9.261
15708SOL     OW49020  11.086   2.772   4.405
15708SOL    HW149021  11.103   2.832   4.332
15708SOL    HW249022  11.031   2.704   4.367
15709SOL     OW49023  12.201   6.274   6.451
15709SOL    HW149024  12.265   6.251   6.519
15709SOL    HW249025  12.154   6.192   6.435
15710SOL     OW49026  13.483   1.823   4.062
15710SOL    HW149027  13.555   1.823   3.998
15710SOL    HW249028  13.513   1.881   4.132
15711SOL     OW49029   3.034   6.662  14.537
15711SOL    HW149030   3.076   6.748  14.526
15711SOL    HW249031   2.989   6.669  14.621
15712SOL     OW49032   7.530   8.493   8.809
15712SOL    HW149033   7.511   8.533   8.893
15712SOL    HW249034   7.458   8.431   8.796
15713SOL     OW49035  12.756   7.886  10.976
15713SOL    HW149036  12.811   7.847  10.908
15713SOL    HW249037  12.680   7.920  10.929
15714SOL     OW49038   0.221   3.907  10.117
15714SOL    HW149039   0.296   3.966  10.122
15714SOL    HW249040   0.173   3.924  10.198
15715SOL     OW49041  11.452  10.191   8.011
15715SOL    HW149042  11.547  10.194   8.024
15715SOL    HW249043  11.440  10.205   7.917
15716SOL     OW49044   7.096   7.734   9.605
15716SOL    HW149045   7.100   7.663   9.669
15716SOL    HW249046   7.151   7.704   9.532
15717SOL     OW49047   5.499   7.018  11.871
15717SOL    HW149048   5.443   7.042  11.797
15717SOL    HW249049   5.577   6.980  11.830
15718SOL     OW49050  14.719  12.554  10.373
15718SOL    HW149051  14.626  12.572  10.387
15718SOL    HW249052  14.764  12.629  10.411
15719SOL     OW49053  13.125  10.444   2.655
15719SOL    HW149054  13.069  10.485   2.589
15719SOL    HW249055  13.171  10.375   2.607
15720SOL     OW49056   2.700  10.093  10.675
15720SOL    HW149057   2.710  10.163  10.739
15720SOL    HW249058   2.682  10.015  10.728
15721SOL     OW49059   3.705   2.788  11.734
15721SOL    HW149060   3.634   2.849  11.754
15721SOL    HW249061   3.749   2.775  11.818
15722SOL     OW49062   7.888   6.471   8.205
15722SOL    HW149063   7.837   6.547   8.234
15722SOL    HW249064   7.826   6.399   8.205
15723SOL     OW49065  11.220  11.026  11.496
15723SOL    HW149066  11.208  11.093  11.563
15723SOL    HW249067  11.234  11.074  11.415
15724SOL     OW49068   8.337  14.516  12.668
15724SOL    HW149069   8.354  14.608  12.649
15724SOL    HW249070   8.424  14.479  12.687
15725SOL     OW49071   8.498   5.321   0.503
15725SOL    HW149072   8.585   5.341   0.538
15725SOL    HW249073   8.471   5.241   0.548
15726SOL     OW49074   6.251  14.395  11.590
15726SOL    HW149075   6.314  14.396  11.518
15726SOL    HW249076   6.272  14.316  11.640
15727SOL     OW49077   8.723  11.020  14.857
15727SOL    HW149078   8.641  10.975  14.837
15727SOL    HW249079   8.714  11.105  14.814
15728SOL     OW49080   6.249  12.783  10.643
15728SOL    HW149081   6.265  12.874  10.620
15728SOL    HW249082   6.159  12.766  10.614
15729SOL     OW49083   7.712   8.086  13.812
15729SOL    HW149084   7.665   8.090  13.728
15729SOL    HW249085   7.756   8.001  13.810
15730SOL     OW49086  11.663   3.887   0.044
15730SOL    HW149087  11.638   3.977   0.067
15730SOL    HW249088  11.750   3.876   0.080
15731SOL     OW49089   5.261   5.652  11.709
15731SOL    HW149090   5.202   5.655  11.785
15731SOL    HW249091   5.282   5.560  11.698
15732SOL     OW49092   9.260   0.577  11.124
15732SOL    HW149093   9.225   0.656  11.084
15732SOL    HW249094   9.355   0.583  11.112
15733SOL     OW49095   3.603   5.625  14.581
15733SOL    HW149096   3.657   5.686  14.529
15733SOL    HW249097   3.563   5.681  14.648
15734SOL     OW49098   2.684   6.866   9.738
15734SOL    HW149099   2.773   6.835   9.752
15734SOL    HW249100   2.628   6.803   9.783
15735SOL     OW49101   1.660  12.966   7.112
15735SOL    HW149102   1.687  12.907   7.041
15735SOL    HW249103   1.589  13.018   7.074
15736SOL     OW49104   9.921   7.505   2.526
15736SOL    HW149105   9.845   7.516   2.582
15736SOL    HW249106   9.892   7.535   2.440
15737SOL     OW49107   7.476  13.463  13.288
15737SOL    HW149108   7.563  13.424  13.294
15737SOL    HW249109   7.489  13.555  13.308
15738SOL     OW49110  10.425   6.478  13.359
15738SOL    HW149111  10.457   6.481  13.449
15738SOL    HW249112  10.386   6.391  13.350
15739SOL     OW49113  13.126   8.276   8.083
15739SOL    HW149114  13.100   8.335   8.154
15739SOL    HW249115  13.222   8.276   8.086
15740SOL     OW49116   7.444   6.381   8.474
15740SOL    HW149117   7.358   6.413   8.502
15740SOL    HW249118   7.483   6.454   8.426
15741SOL     OW49119  14.656  14.041  12.805
15741SOL    HW149120  14.747  14.069  12.797
15741SOL    HW249121  14.609  14.120  12.832
15742SOL     OW49122  12.660  11.661   9.371
15742SOL    HW149123  12.708  11.681   9.290
15742SOL    HW249124  12.569  11.681   9.351
15743SOL     OW49125  10.963  12.368   3.831
15743SOL    HW149126  11.031  12.313   3.871
15743SOL    HW249127  11.007  12.450   3.811
15744SOL     OW49128   6.509  13.283   0.758
15744SOL    HW149129   6.580  13.282   0.694
15744SOL    HW249130   6.553  13.281   0.843
15745SOL     OW49131   1.928   3.904   6.739
15745SOL    HW149132   2.012   3.879   6.703
15745SOL    HW249133   1.878   3.822   6.742
15746SOL     OW49134   8.159   2.936   2.788
15746SOL    HW149135   8.219   3.000   2.751
15746SOL    HW249136   8.215   2.868   2.824
15747SOL     OW49137   8.904   8.072   2.363
15747SOL    HW149138   8.864   8.078   2.450
15747SOL    HW249139   8.944   8.158   2.349
15748SOL     OW49140   4.015  10.813   1.158
15748SOL    HW149141   3.941  10.838   1.103
15748SOL    HW249142   4.032  10.722   1.134
15749SOL     OW49143   7.549  13.173   1.016
15749SOL    HW149144   7.496  13.100   1.046
15749SOL    HW249145   7.515  13.192   0.928
15750SOL     OW49146   0.727  11.066  13.685
15750SOL    HW149147   0.761  11.069  13.595
15750SOL    HW249148   0.801  11.095  13.739
15751SOL     OW49149   8.751   3.357  13.958
15751SOL    HW149150   8.826   3.376  13.901
15751SOL    HW249151   8.774   3.396  14.042
15752SOL     OW49152   5.671   6.886   4.637
15752SOL    HW149153   5.639   6.864   4.724
15752SOL    HW249154   5.764   6.865   4.639
15753SOL     OW49155   5.840   8.549   0.892
15753SOL    HW149156   5.876   8.638   0.884
15753SOL    HW249157   5.839   8.516   0.802
15754SOL     OW49158   8.423  11.567   8.331
15754SOL    HW149159   8.456  11.478   8.336
15754SOL    HW249160   8.421  11.597   8.422
15755SOL     OW49161   6.849   4.031  11.013
15755SOL    HW149162   6.798   4.105  10.980
15755SOL    HW249163   6.867   4.052  11.104
15756SOL     OW49164  14.849  12.451   9.572
15756SOL    HW149165   0.005  12.518   9.518
15756SOL    HW249166   0.030  12.419   9.630
15757SOL     OW49167  12.047   1.066   2.870
15757SOL    HW149168  12.006   0.981   2.855
15757SOL    HW249169  12.137   1.056   2.839
15758SOL     OW49170   1.191   9.162  11.763
15758SOL    HW149171   1.260   9.227  11.771
15758SOL    HW249172   1.121   9.194  11.821
15759SOL     OW49173   2.524  10.742  11.714
15759SOL    HW149174   2.602  10.758  11.661
15759SOL    HW249175   2.467  10.817  11.696
15760SOL     OW49176  10.169   3.200   1.438
15760SOL    HW149177  10.078   3.228   1.434
15760SOL    HW249178  10.203   3.241   1.518
15761SOL     OW49179   7.289   2.514   4.753
15761SOL    HW149180   7.282   2.591   4.696
15761SOL    HW249181   7.227   2.530   4.823
15762SOL     OW49182  10.082  13.910  12.794
15762SOL    HW149183  10.048  13.838  12.846
15762SOL    HW249184  10.024  13.984  12.814
15763SOL     OW49185  10.869   8.469   6.513
15763SOL    HW149186  10.959   8.503   6.512
15763SOL    HW249187  10.858   8.429   6.427
15764SOL     OW49188   3.523   3.233   4.010
15764SOL    HW149189   3.600   3.267   4.056
15764SOL    HW249190   3.449   3.265   4.061
15765SOL     OW49191   9.842   1.930   8.466
15765SOL    HW149192   9.772   1.977   8.512
15765SOL    HW249193   9.854   1.850   8.517
15766SOL     OW49194   6.114   2.775  13.983
15766SOL    HW149195   6.130   2.868  14.000
15766SOL    HW249196   6.182   2.750  13.921
15767SOL     OW49197  14.342   0.372   7.164
15767SOL    HW149198  14.247   0.366   7.151
15767SOL    HW249199  14.378   0.298   7.114
15768SOL     OW49200   5.775   6.983   7.696
15768SOL    HW149201   5.811   6.947   7.615
15768SOL    HW249202   5.706   6.921   7.722
15769SOL     OW49203   5.248  11.334   7.638
15769SOL    HW149204   5.334  11.359   7.604
15769SOL    HW249205   5.185  11.380   7.583
15770SOL     OW49206   7.178   7.042   2.352
15770SOL    HW149207   7.138   7.120   2.314
15770SOL    HW249208   7.106   6.980   2.361
15771SOL     OW49209   4.718  14.667   6.587
15771SOL    HW149210   4.683  14.732   6.649
15771SOL    HW249211   4.659  14.592   6.596
15772SOL     OW49212   6.568   3.081  13.486
15772SOL    HW149213   6.607   3.146  13.428
15772SOL    HW249214   6.586   3.113  13.574
15773SOL     OW49215   2.969   2.518  10.577
15773SOL    HW149216   2.993   2.492  10.666
15773SOL    HW249217   2.964   2.613  10.580
15774SOL     OW49218   9.859  12.251  14.400
15774SOL    HW149219   9.903  12.182  14.449
15774SOL    HW249220   9.778  12.267  14.448
15775SOL     OW49221   1.951   6.449  12.572
15775SOL    HW149222   1.868   6.412  12.603
15775SOL    HW249223   1.929   6.539  12.548
15776SOL     OW49224   8.325   1.657   7.212
15776SOL    HW149225   8.241   1.611   7.214
15776SOL    HW249226   8.389   1.590   7.187
15777SOL     OW49227   9.795  10.627   1.110
15777SOL    HW149228   9.886  10.606   1.087
15777SOL    HW249229   9.783  10.717   1.078
15778SOL     OW49230  13.932   0.105  11.851
15778SOL    HW149231  13.995   0.039  11.822
15778SOL    HW249232  13.848   0.059  11.852
15779SOL     OW49233  14.740  12.965   9.436
15779SOL    HW149234  14.655  12.933   9.404
15779SOL    HW249235  14.726  12.976   9.530
15780SOL     OW49236   9.176   7.643  11.740
15780SOL    HW149237   9.263   7.646  11.781
15780SOL    HW249238   9.142   7.556  11.763
15781SOL     OW49239   8.644   7.607   4.742
15781SOL    HW149240   8.726   7.557   4.749
15781SOL    HW249241   8.667   7.686   4.693
15782SOL     OW49242   5.748  14.405   6.898
15782SOL    HW149243   5.683  14.372   6.836
15782SOL    HW249244   5.708  14.482   6.938
15783SOL     OW49245   0.203   4.374   4.940
15783SOL    HW149246   0.152   4.328   4.873
15783SOL    HW249247   0.151   4.452   4.960
15784SOL     OW49248   8.787   7.420   7.347
15784SOL    HW149249   8.727   7.494   7.336
15784SOL    HW249250   8.823   7.405   7.259
15785SOL     OW49251   4.506   7.498  10.938
15785SOL    HW149252   4.449   7.526  11.009
15785SOL    HW249253   4.555   7.424  10.975
15786SOL     OW49254   1.169  14.725  14.006
15786SOL    HW149255   1.184  14.633  14.027
15786SOL    HW249256   1.143  14.765  14.089
15787SOL     OW49257  12.665   7.272  10.372
15787SOL    HW149258  12.725   7.345  10.360
15787SOL    HW249259  12.706   7.217  10.438
15788SOL     OW49260   8.134  11.476   5.096
15788SOL    HW149261   8.165  11.522   5.018
15788SOL    HW249262   8.060  11.424   5.066
15789SOL     OW49263   2.266   7.060   8.021
15789SOL    HW149264   2.315   7.014   7.954
15789SOL    HW249265   2.332   7.085   8.086
15790SOL     OW49266   6.242  14.688   8.784
15790SOL    HW149267   6.317  14.629   8.778
15790SOL    HW249268   6.263  14.747   8.856
15791SOL     OW49269   4.387  11.055   5.187
15791SOL    HW149270   4.425  10.974   5.154
15791SOL    HW249271   4.294  11.034   5.200
15792SOL     OW49272   9.032   6.193   1.674
15792SOL    HW149273   9.099   6.173   1.608
15792SOL    HW249274   8.950   6.196   1.624
15793SOL     OW49275   4.723  11.169   9.849
15793SOL    HW149276   4.765  11.116   9.918
15793SOL    HW249277   4.686  11.244   9.896
15794SOL     OW49278   5.864   2.817  11.927
15794SOL    HW149279   5.928   2.822  11.856
15794SOL    HW249280   5.905   2.862  12.001
15795SOL     OW49281  14.591   0.550   4.390
15795SOL    HW149282  14.506   0.562   4.349
15795SOL    HW249283  14.584   0.468   4.438
15796SOL     OW49284   6.205   3.566   6.195
15796SOL    HW149285   6.138   3.608   6.250
15796SOL    HW249286   6.285   3.614   6.215
15797SOL     OW49287  11.942   2.091   7.748
15797SOL    HW149288  11.955   2.172   7.699
15797SOL    HW249289  11.855   2.099   7.786
15798SOL     OW49290   2.086   9.205  14.855
15798SOL    HW149291   2.016   9.268  14.836
15798SOL    HW249292   2.099   9.158  14.772
15799SOL     OW49293   5.424   4.625  11.192
15799SOL    HW149294   5.372   4.545  11.197
15799SOL    HW249295   5.419   4.650  11.099
15800SOL     OW49296  14.494  14.752  10.788
15800SOL    HW149297  14.524  14.703  10.865
15800SOL    HW249298  14.543  14.834  10.792
15801SOL     OW49299  14.631   7.958  10.555
15801SOL    HW149300  14.718   7.990  10.531
15801SOL    HW249301  14.614   7.886  10.494
15802SOL     OW49302  11.543   8.502   5.951
15802SOL    HW149303  11.519   8.528   5.862
15802SOL    HW249304  11.636   8.479   5.945
15803SOL     OW49305  13.692  14.329  10.650
15803SOL    HW149306  13.664  14.410  10.607
15803SOL    HW249307  13.716  14.270  10.578
15804SOL     OW49308   9.566   9.024  10.171
15804SOL    HW149309   9.573   9.112  10.210
15804SOL    HW249310   9.521   8.972  10.237
15805SOL     OW49311   4.363   5.539   1.743
15805SOL    HW149312   4.284   5.485   1.752
15805SOL    HW249313   4.429   5.478   1.709
15806SOL     OW49314   8.870   7.237   9.846
15806SOL    HW149315   8.833   7.184   9.776
15806SOL    HW249316   8.938   7.181   9.885
15807SOL     OW49317  13.459   4.259   4.307
15807SOL    HW149318  13.530   4.222   4.254
15807SOL    HW249319  13.475   4.353   4.306
15808SOL     OW49320   8.790   9.919   4.372
15808SOL    HW149321   8.723   9.983   4.398
15808SOL    HW249322   8.870   9.969   4.365
15809SOL     OW49323   2.299   0.108  14.313
15809SOL    HW149324   2.212   0.074  14.291
15809SOL    HW249325   2.356   0.031  14.311
15810SOL     OW49326   6.083  12.655   1.757
15810SOL    HW149327   6.024  12.730   1.765
15810SOL    HW249328   6.042  12.586   1.810
15811SOL     OW49329   0.765   0.445   3.679
15811SOL    HW149330   0.683   0.447   3.630
15811SOL    HW249331   0.832   0.425   3.613
15812SOL     OW49332   6.269   7.188   2.367
15812SOL    HW149333   6.226   7.147   2.292
15812SOL    HW249334   6.224   7.272   2.378
15813SOL     OW49335   2.517   4.143   4.808
15813SOL    HW149336   2.570   4.121   4.885
15813SOL    HW249337   2.579   4.180   4.745
15814SOL     OW49338   5.177  11.425   5.595
15814SOL    HW149339   5.261  11.415   5.552
15814SOL    HW249340   5.195  11.479   5.672
15815SOL     OW49341   1.459   5.495   2.834
15815SOL    HW149342   1.441   5.503   2.740
15815SOL    HW249343   1.542   5.542   2.847
15816SOL     OW49344   2.254   8.717  10.896
15816SOL    HW149345   2.227   8.629  10.926
15816SOL    HW249346   2.299   8.754  10.971
15817SOL     OW49347  10.298  14.216   8.700
15817SOL    HW149348  10.346  14.174   8.772
15817SOL    HW249349  10.265  14.143   8.648
15818SOL     OW49350  12.069   7.949   0.802
15818SOL    HW149351  12.146   7.918   0.755
15818SOL    HW249352  12.006   7.971   0.733
15819SOL     OW49353  13.220  10.076   3.370
15819SOL    HW149354  13.296  10.128   3.347
15819SOL    HW249355  13.229   9.995   3.319
15820SOL     OW49356   8.203  13.765   5.292
15820SOL    HW149357   8.284  13.816   5.289
15820SOL    HW249358   8.133  13.831   5.291
15821SOL     OW49359   8.795   3.700  14.051
15821SOL    HW149360   8.745   3.634  14.099
15821SOL    HW249361   8.887   3.680  14.072
15822SOL     OW49362   2.336   3.905  11.252
15822SOL    HW149363   2.248   3.936  11.232
15822SOL    HW249364   2.323   3.824  11.300
15823SOL     OW49365   8.630  10.321   1.868
15823SOL    HW149366   8.651  10.276   1.950
15823SOL    HW249367   8.696  10.290   1.806
15824SOL     OW49368   2.787  12.397  13.977
15824SOL    HW149369   2.831  12.403  14.062
15824SOL    HW249370   2.694  12.403  13.998
15825SOL     OW49371   2.511   9.934  13.031
15825SOL    HW149372   2.597   9.932  13.074
15825SOL    HW249373   2.457   9.875  13.083
15826SOL     OW49374   8.090   0.191   0.310
15826SOL    HW149375   8.108   0.163   0.400
15826SOL    HW249376   8.009   0.146   0.286
15827SOL     OW49377   9.246   8.147   1.777
15827SOL    HW149378   9.223   8.079   1.840
15827SOL    HW249379   9.237   8.229   1.826
15828SOL     OW49380   8.139   4.859   7.558
15828SOL    HW149381   8.049   4.865   7.590
15828SOL    HW249382   8.130   4.858   7.462
15829SOL     OW49383   9.749  14.397   0.968
15829SOL    HW149384   9.696  14.326   1.004
15829SOL    HW249385   9.752  14.462   1.038
15830SOL     OW49386   2.257   0.230  11.836
15830SOL    HW149387   2.304   0.214  11.755
15830SOL    HW249388   2.313   0.193  11.904
15831SOL     OW49389   4.006   1.792  10.054
15831SOL    HW149390   4.074   1.846  10.094
15831SOL    HW249391   4.034   1.702  10.071
15832SOL     OW49392   1.717   8.949   8.787
15832SOL    HW149393   1.673   9.001   8.855
15832SOL    HW249394   1.645   8.916   8.733
15833SOL     OW49395  13.928  11.196   3.084
15833SOL    HW149396  13.843  11.189   3.127
15833SOL    HW249397  13.914  11.259   3.013
15834SOL     OW49398   4.703  13.018  14.612
15834SOL    HW149399   4.771  12.952  14.624
15834SOL    HW249400   4.737  13.097  14.656
15835SOL     OW49401   0.184   8.725  14.613
15835SOL    HW149402   0.236   8.656  14.572
15835SOL    HW249403   0.192   8.799  14.554
15836SOL     OW49404   9.031  11.321   6.003
15836SOL    HW149405   8.989  11.403   5.979
15836SOL    HW249406   9.123  11.333   5.979
15837SOL     OW49407   9.677  14.406   2.023
15837SOL    HW149408   9.756  14.436   2.068
15837SOL    HW249409   9.608  14.465   2.052
15838SOL     OW49410   2.146   1.295  10.902
15838SOL    HW149411   2.106   1.214  10.935
15838SOL    HW249412   2.205   1.266  10.833
15839SOL     OW49413  11.842   9.408  12.383
15839SOL    HW149414  11.905   9.359  12.331
15839SOL    HW249415  11.786   9.341  12.423
15840SOL     OW49416   5.906   1.196   7.175
15840SOL    HW149417   5.943   1.213   7.261
15840SOL    HW249418   5.846   1.269   7.159
15841SOL     OW49419  10.873   6.606   3.481
15841SOL    HW149420  10.873   6.593   3.575
15841SOL    HW249421  10.914   6.692   3.469
15842SOL     OW49422  12.468  11.277   0.802
15842SOL    HW149423  12.432  11.277   0.891
15842SOL    HW249424  12.399  11.238   0.749
15843SOL     OW49425  13.596   0.800   3.549
15843SOL    HW149426  13.525   0.826   3.491
15843SOL    HW249427  13.634   0.723   3.508
15844SOL     OW49428  14.372  13.332  13.704
15844SOL    HW149429  14.399  13.424  13.699
15844SOL    HW249430  14.315  13.329  13.781
15845SOL     OW49431   4.569   6.846   5.579
15845SOL    HW149432   4.531   6.783   5.640
15845SOL    HW249433   4.510   6.922   5.584
15846SOL     OW49434   9.987   4.816  10.600
15846SOL    HW149435   9.923   4.802  10.670
15846SOL    HW249436   9.940   4.792  10.519
15847SOL     OW49437   9.970   0.675   2.506
15847SOL    HW149438  10.058   0.690   2.540
15847SOL    HW249439   9.978   0.595   2.453
15848SOL     OW49440  11.434   7.650   6.143
15848SOL    HW149441  11.362   7.671   6.083
15848SOL    HW249442  11.443   7.555   6.137
15849SOL     OW49443  13.562  11.206  10.110
15849SOL    HW149444  13.560  11.212  10.205
15849SOL    HW249445  13.494  11.143  10.088
15850SOL     OW49446  11.073   7.585  12.781
15850SOL    HW149447  11.125   7.541  12.848
15850SOL    HW249448  10.991   7.607  12.825
15851SOL     OW49449   3.729   4.956  14.764
15851SOL    HW149450   3.721   4.989  14.853
15851SOL    HW249451   3.803   4.895  14.767
15852SOL     OW49452  14.089   6.251   0.669
15852SOL    HW149453  14.179   6.275   0.690
15852SOL    HW249454  14.079   6.163   0.706
15853SOL     OW49455  14.692   5.764   4.895
15853SOL    HW149456  14.746   5.688   4.871
15853SOL    HW249457  14.663   5.745   4.984
15854SOL     OW49458  10.647  13.440   2.953
15854SOL    HW149459  10.647  13.349   2.983
15854SOL    HW249460  10.580  13.483   3.006
15855SOL     OW49461   1.187   1.511  14.470
15855SOL    HW149462   1.267   1.466  14.498
15855SOL    HW249463   1.200   1.527  14.376
15856SOL     OW49464   8.456   6.880   4.271
15856SOL    HW149465   8.408   6.961   4.288
15856SOL    HW249466   8.422   6.818   4.335
15857SOL     OW49467   7.821   1.621   2.952
15857SOL    HW149468   7.782   1.621   3.039
15857SOL    HW249469   7.750   1.594   2.893
15858SOL     OW49470   4.857   3.005   6.708
15858SOL    HW149471   4.862   3.007   6.612
15858SOL    HW249472   4.893   2.920   6.732
15859SOL     OW49473  13.250   2.402   7.861
15859SOL    HW149474  13.159   2.424   7.884
15859SOL    HW249475  13.291   2.382   7.945
15860SOL     OW49476   0.103  12.763   7.703
15860SOL    HW149477   0.163  12.728   7.638
15860SOL    HW249478   0.029  12.796   7.652
15861SOL     OW49479   2.489   9.152   4.759
15861SOL    HW149480   2.395   9.166   4.768
15861SOL    HW249481   2.505   9.066   4.798
15862SOL     OW49482  13.407   0.668  13.765
15862SOL    HW149483  13.501   0.678  13.749
15862SOL    HW249484  13.380   0.752  13.802
15863SOL     OW49485   3.693   4.485   0.775
15863SOL    HW149486   3.715   4.404   0.820
15863SOL    HW249487   3.778   4.529   0.764
15864SOL     OW49488   3.928   2.187   9.058
15864SOL    HW149489   3.915   2.175   8.964
15864SOL    HW249490   3.868   2.124   9.099
15865SOL     OW49491  11.081   4.731   8.040
15865SOL    HW149492  11.071   4.826   8.034
15865SOL    HW249493  11.031   4.706   8.117
15866SOL     OW49494   1.275   3.480   8.842
15866SOL    HW149495   1.226   3.418   8.896
15866SOL    HW249496   1.362   3.442   8.834
15867SOL     OW49497   2.090  12.026   2.354
15867SOL    HW149498   2.182  12.003   2.339
15867SOL    HW249499   2.072  11.998   2.444
15868SOL     OW49500   1.448   7.458   4.265
15868SOL    HW149501   1.409   7.460   4.352
15868SOL    HW249502   1.376   7.480   4.206
15869SOL     OW49503   3.782   4.807  12.881
15869SOL    HW149504   3.853   4.764  12.834
15869SOL    HW249505   3.714   4.819  12.815
15870SOL     OW49506   8.332  12.784   6.145
15870SOL    HW149507   8.269  12.766   6.215
15870SOL    HW249508   8.413  12.806   6.191
15871SOL     OW49509   4.966  14.540  12.763
15871SOL    HW149510   4.888  14.595  12.772
15871SOL    HW249511   4.979  14.534  12.668
15872SOL     OW49512  11.634   7.360   1.061
15872SOL    HW149513  11.675   7.303   0.996
15872SOL    HW249514  11.698   7.366   1.132
15873SOL     OW49515   6.138  10.670   6.107
15873SOL    HW149516   6.089  10.675   6.189
15873SOL    HW249517   6.141  10.576   6.087
15874SOL     OW49518  11.633   8.411   8.705
15874SOL    HW149519  11.589   8.337   8.663
15874SOL    HW249520  11.646   8.475   8.635
15875SOL     OW49521   2.871  12.275   8.721
15875SOL    HW149522   2.798  12.241   8.668
15875SOL    HW249523   2.848  12.252   8.811
15876SOL     OW49524   0.492  12.746  11.022
15876SOL    HW149525   0.561  12.682  11.042
15876SOL    HW249526   0.486  12.745  10.926
15877SOL     OW49527  10.597   1.537   2.405
15877SOL    HW149528  10.592   1.480   2.482
15877SOL    HW249529  10.588   1.626   2.442
15878SOL     OW49530   8.718  12.764  12.447
15878SOL    HW149531   8.726  12.787  12.540
15878SOL    HW249532   8.749  12.841  12.400
15879SOL     OW49533  11.772   2.443  10.082
15879SOL    HW149534  11.835   2.512  10.063
15879SOL    HW249535  11.742   2.461  10.171
15880SOL     OW49536   1.230  13.114  12.675
15880SOL    HW149537   1.152  13.058  12.679
15880SOL    HW249538   1.210  13.186  12.734
15881SOL     OW49539   5.077   2.753  13.597
15881SOL    HW149540   5.105   2.835  13.638
15881SOL    HW249541   5.095   2.686  13.662
15882SOL     OW49542   3.571  10.908  10.036
15882SOL    HW149543   3.592  10.967   9.964
15882SOL    HW249544   3.650  10.853  10.044
15883SOL     OW49545   6.861  10.134   2.310
15883SOL    HW149546   6.902  10.161   2.228
15883SOL    HW249547   6.807  10.209   2.336
15884SOL     OW49548   0.075   9.058  13.410
15884SOL    HW149549   0.084   9.088  13.320
15884SOL    HW249550  14.884   9.102  13.442
15885SOL     OW49551  11.628  12.951   9.465
15885SOL    HW149552  11.679  12.993   9.534
15885SOL    HW249553  11.546  12.925   9.508
15886SOL     OW49554   0.473   5.496  13.203
15886SOL    HW149555   0.527   5.576  13.195
15886SOL    HW249556   0.530   5.434  13.249
15887SOL     OW49557   1.181  14.463   4.575
15887SOL    HW149558   1.169  14.482   4.482
15887SOL    HW249559   1.200  14.369   4.578
15888SOL     OW49560   5.357  13.256  10.469
15888SOL    HW149561   5.394  13.171  10.442
15888SOL    HW249562   5.362  13.310  10.390
15889SOL     OW49563  13.853  14.277  14.388
15889SOL    HW149564  13.943  14.248  14.373
15889SOL    HW249565  13.826  14.317  14.305
15890SOL     OW49566   2.402  14.019  12.908
15890SOL    HW149567   2.439  13.976  12.831
15890SOL    HW249568   2.389  14.110  12.880
15891SOL     OW49569   7.566  10.890   6.529
15891SOL    HW149570   7.557  10.920   6.619
15891SOL    HW249571   7.660  10.873   6.518
15892SOL     OW49572   0.116  14.290   1.879
15892SOL    HW149573   0.052  14.357   1.856
15892SOL    HW249574   0.140  14.309   1.969
15893SOL     OW49575   7.173  11.647  13.278
15893SOL    HW149576   7.236  11.649  13.205
15893SOL    HW249577   7.088  11.657  13.236
15894SOL     OW49578   7.576   6.879   2.873
15894SOL    HW149579   7.597   6.853   2.783
15894SOL    HW249580   7.620   6.814   2.927
15895SOL     OW49581   4.739   2.521   2.007
15895SOL    HW149582   4.674   2.456   2.034
15895SOL    HW249583   4.746   2.509   1.912
15896SOL     OW49584  14.531   0.011   4.555
15896SOL    HW149585  14.609   0.039   4.603
15896SOL    HW249586  14.506  14.815   4.595
15897SOL     OW49587   2.413   3.188   9.767
15897SOL    HW149588   2.318   3.172   9.767
15897SOL    HW249589   2.420   3.282   9.784
15898SOL     OW49590   7.655   7.318   0.788
15898SOL    HW149591   7.746   7.295   0.807
15898SOL    HW249592   7.655   7.414   0.780
15899SOL     OW49593   2.318   8.880   3.090
15899SOL    HW149594   2.365   8.869   3.173
15899SOL    HW249595   2.263   8.957   3.103
15900SOL     OW49596   3.020  14.761  10.333
15900SOL    HW149597   3.013  14.857  10.333
15900SOL    HW249598   2.929  14.730  10.330
15901SOL     OW49599  11.268   1.921  12.213
15901SOL    HW149600  11.321   1.929  12.292
15901SOL    HW249601  11.182   1.956  12.237
15902SOL     OW49602   7.664  14.270   6.631
15902SOL    HW149603   7.747  14.301   6.667
15902SOL    HW249604   7.688  14.198   6.573
15903SOL     OW49605  13.333   9.073  13.347
15903SOL    HW149606  13.278   9.091  13.423
15903SOL    HW249607  13.402   9.015  13.380
15904SOL     OW49608   6.698  10.210  10.686
15904SOL    HW149609   6.604  10.208  10.671
15904SOL    HW249610   6.713  10.291  10.735
15905SOL     OW49611  14.519   0.426   1.991
15905SOL    HW149612  14.549   0.507   2.033
15905SOL    HW249613  14.559   0.428   1.904
15906SOL     OW49614   4.032   3.720  14.112
15906SOL    HW149615   3.945   3.762  14.111
15906SOL    HW249616   4.050   3.700  14.020
15907SOL     OW49617  10.248   9.154   1.364
15907SOL    HW149618  10.202   9.132   1.445
15907SOL    HW249619  10.312   9.083   1.353
15908SOL     OW49620   8.518  12.918   2.132
15908SOL    HW149621   8.482  13.007   2.139
15908SOL    HW249622   8.568  12.919   2.051
15909SOL     OW49623   6.782   2.305   5.007
15909SOL    HW149624   6.823   2.225   4.973
15909SOL    HW249625   6.777   2.291   5.102
15910SOL     OW49626   4.790   1.180  10.453
15910SOL    HW149627   4.695   1.181  10.467
15910SOL    HW249628   4.827   1.159  10.539
15911SOL     OW49629   7.404  10.594   9.775
15911SOL    HW149630   7.481  10.541   9.797
15911SOL    HW249631   7.358  10.542   9.708
15912SOL     OW49632   3.901  12.916   2.071
15912SOL    HW149633   3.993  12.925   2.048
15912SOL    HW249634   3.899  12.852   2.142
15913SOL     OW49635  12.140   8.350   9.406
15913SOL    HW149636  12.084   8.417   9.367
15913SOL    HW249637  12.187   8.396   9.476
15914SOL     OW49638   9.807  13.017  10.381
15914SOL    HW149639   9.856  13.020  10.299
15914SOL    HW249640   9.851  12.950  10.434
15915SOL     OW49641   4.883  10.282   4.199
15915SOL    HW149642   4.915  10.367   4.170
15915SOL    HW249643   4.884  10.228   4.119
15916SOL     OW49644   3.348  13.269   6.059
15916SOL    HW149645   3.335  13.363   6.045
15916SOL    HW249646   3.278  13.243   6.117
15917SOL     OW49647   4.166  13.168   9.000
15917SOL    HW149648   4.193  13.204   9.085
15917SOL    HW249649   4.096  13.107   9.022
15918SOL     OW49650  10.769  12.572  14.439
15918SOL    HW149651  10.779  12.488  14.393
15918SOL    HW249652  10.704  12.554  14.507
15919SOL     OW49653   1.017   9.248   0.884
15919SOL    HW149654   1.013   9.280   0.974
15919SOL    HW249655   1.044   9.157   0.892
15920SOL     OW49656   4.627  14.190  10.570
15920SOL    HW149657   4.652  14.184  10.662
15920SOL    HW249658   4.701  14.234  10.528
15921SOL     OW49659   0.485  11.196   6.838
15921SOL    HW149660   0.429  11.178   6.914
15921SOL    HW249661   0.506  11.109   6.804
15922SOL     OW49662   9.802  12.310  14.753
15922SOL    HW149663   9.755  12.322  14.670
15922SOL    HW249664   9.853  12.230  14.740
15923SOL     OW49665   2.784  12.741   0.527
15923SOL    HW149666   2.868  12.786   0.514
15923SOL    HW249667   2.732  12.802   0.579
15924SOL     OW49668   9.772   3.491  13.127
15924SOL    HW149669   9.813   3.477  13.042
15924SOL    HW249670   9.681   3.511  13.107
15925SOL     OW49671   4.715   9.160   5.648
15925SOL    HW149672   4.729   9.251   5.673
15925SOL    HW249673   4.621   9.145   5.659
15926SOL     OW49674   0.957   3.222  12.226
15926SOL    HW149675   1.009   3.233  12.146
15926SOL    HW249676   0.901   3.147  12.207
15927SOL     OW49677   1.602   6.017   7.690
15927SOL    HW149678   1.532   6.057   7.638
15927SOL    HW249679   1.583   6.042   7.780
15928SOL     OW49680   1.064   8.894   6.031
15928SOL    HW149681   1.148   8.895   6.078
15928SOL    HW249682   1.003   8.939   6.089
15929SOL     OW49683  13.468   4.401  13.356
15929SOL    HW149684  13.469   4.342  13.432
15929SOL    HW249685  13.555   4.393  13.318
15930SOL     OW49686  13.762   2.822  12.774
15930SOL    HW149687  13.830   2.817  12.707
15930SOL    HW249688  13.755   2.732  12.808
15931SOL     OW49689   3.566  12.744  11.471
15931SOL    HW149690   3.512  12.780  11.541
15931SOL    HW249691   3.534  12.785  11.392
15932SOL     OW49692   7.905   3.498  12.483
15932SOL    HW149693   7.851   3.542  12.417
15932SOL    HW249694   7.959   3.568  12.520
15933SOL     OW49695   4.486   0.270  13.184
15933SOL    HW149696   4.444   0.335  13.127
15933SOL    HW249697   4.538   0.322  13.245
15934SOL     OW49698  10.219  14.793   2.863
15934SOL    HW149699  10.260  14.774   2.948
15934SOL    HW249700  10.132  14.824   2.885
15935SOL     OW49701   9.251   4.782  10.360
15935SOL    HW149702   9.207   4.733  10.292
15935SOL    HW249703   9.325   4.726  10.386
15936SOL     OW49704   3.326   0.753   1.265
15936SOL    HW149705   3.259   0.741   1.333
15936SOL    HW249706   3.335   0.848   1.258
15937SOL     OW49707   0.368   1.839  11.133
15937SOL    HW149708   0.457   1.809  11.148
15937SOL    HW249709   0.315   1.793  11.199
15938SOL     OW49710  13.758   6.136   7.249
15938SOL    HW149711  13.823   6.174   7.190
15938SOL    HW249712  13.797   6.143   7.336
15939SOL     OW49713   1.694   5.640  14.846
15939SOL    HW149714   1.763   5.667   0.020
15939SOL    HW249715   1.614   5.680  14.881
15940SOL     OW49716   2.391   5.302   9.226
15940SOL    HW149717   2.372   5.327   9.317
15940SOL    HW249718   2.328   5.232   9.208
15941SOL     OW49719   4.592   4.976   7.307
15941SOL    HW149720   4.508   5.021   7.295
15941SOL    HW249721   4.624   5.008   7.392
15942SOL     OW49722  13.586  12.485   8.032
15942SOL    HW149723  13.676  12.452   8.034
15942SOL    HW249724  13.577  12.525   7.946
15943SOL     OW49725   4.018  13.311  11.130
15943SOL    HW149726   3.992  13.259  11.206
15943SOL    HW249727   4.101  13.351  11.156
15944SOL     OW49728   5.650  11.879   1.157
15944SOL    HW149729   5.703  11.829   1.095
15944SOL    HW249730   5.662  11.834   1.241
15945SOL     OW49731   7.089   9.654   7.197
15945SOL    HW149732   7.147   9.578   7.201
15945SOL    HW249733   7.030   9.637   7.124
15946SOL     OW49734  10.824  13.704   3.881
15946SOL    HW149735  10.735  13.681   3.906
15946SOL    HW249736  10.816  13.743   3.794
15947SOL     OW49737   0.877   1.771   7.284
15947SOL    HW149738   0.942   1.836   7.258
15947SOL    HW249739   0.910   1.737   7.368
15948SOL     OW49740   0.716  12.749   8.271
15948SOL    HW149741   0.659  12.706   8.335
15948SOL    HW249742   0.717  12.689   8.196
15949SOL     OW49743   2.706  13.075   2.230
15949SOL    HW149744   2.626  13.050   2.184
15949SOL    HW249745   2.684  13.067   2.323
15950SOL     OW49746   1.947   3.206   7.389
15950SOL    HW149747   1.950   3.168   7.477
15950SOL    HW249748   1.952   3.300   7.403
15951SOL     OW49749  14.264   6.495  14.023
15951SOL    HW149750  14.321   6.539  14.086
15951SOL    HW249751  14.197   6.453  14.077
15952SOL     OW49752   5.537  12.360   8.731
15952SOL    HW149753   5.606  12.322   8.678
15952SOL    HW249754   5.544  12.316   8.816
15953SOL     OW49755   4.077  11.466  11.952
15953SOL    HW149756   4.075  11.467  12.047
15953SOL    HW249757   4.047  11.554  11.927
15954SOL     OW49758  14.255  12.196   1.302
15954SOL    HW149759  14.288  12.109   1.281
15954SOL    HW249760  14.239  12.237   1.217
15955SOL     OW49761  11.463   9.460   7.417
15955SOL    HW149762  11.472   9.536   7.475
15955SOL    HW249763  11.540   9.406   7.437
15956SOL     OW49764   1.041   7.126  11.545
15956SOL    HW149765   1.115   7.069  11.569
15956SOL    HW249766   0.982   7.069  11.496
15957SOL     OW49767   1.471   9.956  11.916
15957SOL    HW149768   1.475  10.048  11.890
15957SOL    HW249769   1.557   9.920  11.894
15958SOL     OW49770   2.414   5.445   5.047
15958SOL    HW149771   2.345   5.447   5.113
15958SOL    HW249772   2.412   5.533   5.008
15959SOL     OW49773  12.399   2.268  13.650
15959SOL    HW149774  12.316   2.284  13.694
15959SOL    HW249775  12.404   2.173  13.643
15960SOL     OW49776   4.668   0.699   2.951
15960SOL    HW149777   4.605   0.666   3.015
15960SOL    HW249778   4.629   0.678   2.866
15961SOL     OW49779  10.797   3.271   5.862
15961SOL    HW149780  10.785   3.236   5.774
15961SOL    HW249781  10.888   3.250   5.884
15962SOL     OW49782  13.579   2.826   4.031
15962SOL    HW149783  13.609   2.910   4.068
15962SOL    HW249784  13.657   2.788   3.992
15963SOL     OW49785   8.684   3.474   6.727
15963SOL    HW149786   8.650   3.563   6.726
15963SOL    HW249787   8.633   3.428   6.661
15964SOL     OW49788   1.260   9.519   2.626
15964SOL    HW149789   1.284   9.606   2.594
15964SOL    HW249790   1.334   9.492   2.681
15965SOL     OW49791  10.629   9.746   1.329
15965SOL    HW149792  10.685   9.715   1.400
15965SOL    HW249793  10.648   9.840   1.323
15966SOL     OW49794  11.953   2.950   3.940
15966SOL    HW149795  11.932   2.930   4.031
15966SOL    HW249796  12.048   2.959   3.937
15967SOL     OW49797   1.854   3.192   4.839
15967SOL    HW149798   1.840   3.166   4.748
15967SOL    HW249799   1.767   3.216   4.871
15968SOL     OW49800   5.375   7.832   9.999
15968SOL    HW149801   5.295   7.841   9.947
15968SOL    HW249802   5.438   7.891   9.956
15969SOL     OW49803   2.938  13.546   6.655
15969SOL    HW149804   2.983  13.628   6.676
15969SOL    HW249805   2.895  13.521   6.737
15970SOL     OW49806   8.300  12.499   9.294
15970SOL    HW149807   8.211  12.510   9.326
15970SOL    HW249808   8.328  12.414   9.328
15971SOL     OW49809  13.033   5.461   5.174
15971SOL    HW149810  13.079   5.446   5.256
15971SOL    HW249811  13.023   5.556   5.169
15972SOL     OW49812   3.147   5.470   1.116
15972SOL    HW149813   3.170   5.377   1.118
15972SOL    HW249814   3.217   5.514   1.164
15973SOL     OW49815   1.039   1.654  10.095
15973SOL    HW149816   1.132   1.660  10.072
15973SOL    HW249817   1.021   1.560  10.093
15974SOL     OW49818   0.518   0.913   2.593
15974SOL    HW149819   0.565   0.920   2.510
15974SOL    HW249820   0.452   0.983   2.590
15975SOL     OW49821  14.860  13.157   6.605
15975SOL    HW149822   0.064  13.145   6.577
15975SOL    HW249823  14.866  13.223   6.675
15976SOL     OW49824   3.346  11.074  14.375
15976SOL    HW149825   3.380  11.003  14.429
15976SOL    HW249826   3.422  11.129  14.356
15977SOL     OW49827  12.561   9.430   0.487
15977SOL    HW149828  12.634   9.378   0.452
15977SOL    HW249829  12.597   9.519   0.494
15978SOL     OW49830   0.353  13.165   7.913
15978SOL    HW149831   0.310  13.224   7.851
15978SOL    HW249832   0.314  13.079   7.895
15979SOL     OW49833  13.790  11.300  11.507
15979SOL    HW149834  13.764  11.255  11.427
15979SOL    HW249835  13.732  11.376  11.512
15980SOL     OW49836   6.023   5.883   4.512
15980SOL    HW149837   6.101   5.922   4.553
15980SOL    HW249838   6.001   5.809   4.568
15981SOL     OW49839   2.238   1.642   0.921
15981SOL    HW149840   2.214   1.549   0.917
15981SOL    HW249841   2.210   1.670   1.009
15982SOL     OW49842  14.759   4.053   3.547
15982SOL    HW149843  14.785   4.069   3.638
15982SOL    HW249844  14.828   3.997   3.511
15983SOL     OW49845   7.928  10.706   8.564
15983SOL    HW149846   7.866  10.659   8.508
15983SOL    HW249847   7.894  10.795   8.568
15984SOL     OW49848  11.946  13.525   6.425
15984SOL    HW149849  11.995  13.601   6.456
15984SOL    HW249850  11.992  13.498   6.345
15985SOL     OW49851  11.159   7.476   5.598
15985SOL    HW149852  11.140   7.568   5.617
15985SOL    HW249853  11.086   7.447   5.543
15986SOL     OW49854   3.205   2.515   6.085
15986SOL    HW149855   3.203   2.420   6.075
15986SOL    HW249856   3.130   2.535   6.140
15987SOL     OW49857  11.188  10.889  11.218
15987SOL    HW149858  11.249  10.907  11.146
15987SOL    HW249859  11.241  10.900  11.297
15988SOL     OW49860  11.292   3.287   9.130
15988SOL    HW149861  11.234   3.301   9.054
15988SOL    HW249862  11.357   3.225   9.099
15989SOL     OW49863   7.449  11.367   2.996
15989SOL    HW149864   7.436  11.457   2.967
15989SOL    HW249865   7.413  11.313   2.926
15990SOL     OW49866  14.314  11.887   6.706
15990SOL    HW149867  14.300  11.889   6.611
15990SOL    HW249868  14.365  11.808   6.721
15991SOL     OW49869   0.323   5.254  10.437
15991SOL    HW149870   0.303   5.333  10.489
15991SOL    HW249871   0.287   5.273  10.350
15992SOL     OW49872   6.471  13.737  12.928
15992SOL    HW149873   6.507  13.814  12.971
15992SOL    HW249874   6.470  13.760  12.835
15993SOL     OW49875   8.038  12.221  10.853
15993SOL    HW149876   8.093  12.274  10.796
15993SOL    HW249877   7.980  12.174  10.792
15994SOL     OW49878   5.521  10.452   7.346
15994SOL    HW149879   5.452  10.500   7.301
15994SOL    HW249880   5.550  10.511   7.416
15995SOL     OW49881  14.157   1.514   8.540
15995SOL    HW149882  14.164   1.463   8.621
15995SOL    HW249883  14.063   1.520   8.523
15996SOL     OW49884   9.662   0.833   4.322
15996SOL    HW149885   9.583   0.812   4.372
15996SOL    HW249886   9.733   0.797   4.375
15997SOL     OW49887   0.222   3.767   9.443
15997SOL    HW149888   0.139   3.804   9.412
15997SOL    HW249889   0.225   3.680   9.403
15998SOL     OW49890   7.951   5.201   9.677
15998SOL    HW149891   7.992   5.286   9.693
15998SOL    HW249892   7.901   5.183   9.757
15999SOL     OW49893   4.396   5.105   0.522
15999SOL    HW149894   4.339   5.028   0.521
15999SOL    HW249895   4.345   5.173   0.479
16000SOL     OW49896  13.669   6.402   7.515
16000SOL    HW149897  13.616   6.466   7.469
16000SOL    HW249898  13.757   6.411   7.477
16001SOL     OW49899   4.849   9.098  11.132
16001SOL    HW149900   4.841   9.090  11.227
16001SOL    HW249901   4.772   9.148  11.106
16002SOL     OW49902   3.689   8.114   8.865
16002SOL    HW149903   3.782   8.125   8.882
16002SOL    HW249904   3.674   8.019   8.871
16003SOL     OW49905  13.335  10.868   1.677
16003SOL    HW149906  13.376  10.801   1.624
16003SOL    HW249907  13.407  10.903   1.730
16004SOL     OW49908  14.166   2.146   9.584
16004SOL    HW149909  14.224   2.198   9.640
16004SOL    HW249910  14.148   2.204   9.509
16005SOL     OW49911   9.999  14.687   6.535
16005SOL    HW149912   9.973  14.608   6.487
16005SOL    HW249913   9.943  14.756   6.499
16006SOL     OW49914   8.270   3.286  14.650
16006SOL    HW149915   8.196   3.243  14.608
16006SOL    HW249916   8.343   3.273  14.588
16007SOL     OW49917  11.300   5.559   5.753
16007SOL    HW149918  11.279   5.571   5.845
16007SOL    HW249919  11.391   5.586   5.745
16008SOL     OW49920   2.393   6.496  11.268
16008SOL    HW149921   2.417   6.413  11.309
16008SOL    HW249922   2.308   6.479  11.227
16009SOL     OW49923   2.300  13.749   8.869
16009SOL    HW149924   2.228  13.742   8.931
16009SOL    HW249925   2.376  13.773   8.923
16010SOL     OW49926  14.301   8.496   3.227
16010SOL    HW149927  14.257   8.558   3.169
16010SOL    HW249928  14.370   8.547   3.269
16011SOL     OW49929  13.241  12.527   7.449
16011SOL    HW149930  13.295  12.538   7.371
16011SOL    HW249931  13.166  12.476   7.420
16012SOL     OW49932   5.278   2.870  11.287
16012SOL    HW149933   5.272   2.869  11.383
16012SOL    HW249934   5.355   2.818  11.268
16013SOL     OW49935   5.744  10.529   2.250
16013SOL    HW149936   5.711  10.585   2.321
16013SOL    HW249937   5.703  10.565   2.171
16014SOL     OW49938   9.133   5.891   0.607
16014SOL    HW149939   9.155   5.900   0.514
16014SOL    HW249940   9.183   5.814   0.635
16015SOL     OW49941   3.254   7.531  13.264
16015SOL    HW149942   3.328   7.587  13.238
16015SOL    HW249943   3.210   7.581  13.332
16016SOL     OW49944   1.353   6.309  10.609
16016SOL    HW149945   1.438   6.277  10.639
16016SOL    HW249946   1.298   6.310  10.687
16017SOL     OW49947   4.521  10.608   2.613
16017SOL    HW149948   4.534  10.643   2.525
16017SOL    HW249949   4.537  10.683   2.671
16018SOL     OW49950   7.779   0.125  13.665
16018SOL    HW149951   7.684   0.133  13.675
16018SOL    HW249952   7.804   0.201  13.613
16019SOL     OW49953  14.567  13.436   2.000
16019SOL    HW149954  14.491  13.429   2.058
16019SOL    HW249955  14.622  13.504   2.039
16020SOL     OW49956   1.971   5.227   5.886
16020SOL    HW149957   2.002   5.141   5.915
16020SOL    HW249958   1.875   5.218   5.885
16021SOL     OW49959   2.875  10.468   9.492
16021SOL    HW149960   2.924  10.515   9.560
16021SOL    HW249961   2.882  10.376   9.516
16022SOL     OW49962   4.651   8.380   9.564
16022SOL    HW149963   4.592   8.328   9.510
16022SOL    HW249964   4.681   8.319   9.632
16023SOL     OW49965   6.714  14.677   9.293
16023SOL    HW149966   6.788  14.618   9.282
16023SOL    HW249967   6.705  14.721   9.208
16024SOL     OW49968   9.436   6.376   2.215
16024SOL    HW149969   9.492   6.388   2.291
16024SOL    HW249970   9.388   6.459   2.208
16025SOL     OW49971  12.603   7.455   2.604
16025SOL    HW149972  12.678   7.412   2.645
16025SOL    HW249973  12.640   7.497   2.526
16026SOL     OW49974   4.104  14.037   7.144
16026SOL    HW149975   4.100  14.033   7.048
16026SOL    HW249976   4.114  13.946   7.171
16027SOL     OW49977   3.104   7.038   1.768
16027SOL    HW149978   3.098   6.974   1.697
16027SOL    HW249979   3.189   7.022   1.808
16028SOL     OW49980  14.044   0.185   5.408
16028SOL    HW149981  14.054   0.269   5.452
16028SOL    HW249982  13.986   0.202   5.335
16029SOL     OW49983   2.830   0.916   6.669
16029SOL    HW149984   2.791   0.829   6.657
16029SOL    HW249985   2.884   0.907   6.748
16030SOL     OW49986  10.672   2.243   8.371
16030SOL    HW149987  10.643   2.159   8.405
16030SOL    HW249988  10.696   2.294   8.449
16031SOL     OW49989   4.774   9.732   6.558
16031SOL    HW149990   4.753   9.640   6.543
16031SOL    HW249991   4.814   9.760   6.476
16032SOL     OW49992  14.189   3.264   9.057
16032SOL    HW149993  14.278   3.270   9.090
16032SOL    HW249994  14.142   3.334   9.103
16033SOL     OW49995  13.908   2.951  11.010
16033SOL    HW149996  13.948   2.879  10.961
16033SOL    HW249997  13.826   2.968  10.964
16034SOL     OW49998  10.368   8.496   1.354
16034SOL    HW149999  10.403   8.431   1.415
16034SOL    HW250000  10.286   8.459   1.323
16035SOL     OW50001   6.992   5.472   1.919
16035SOL    HW150002   7.075   5.516   1.902
16035SOL    HW250003   7.002   5.435   2.007
16036SOL     OW50004   9.491   2.797  13.964
16036SOL    HW150005   9.459   2.887  13.968
16036SOL    HW250006   9.553   2.790  14.037
16037SOL     OW50007   4.985  14.051  12.974
16037SOL    HW150008   4.991  14.146  12.962
16037SOL    HW250009   5.063  14.030  13.026
16038SOL     OW50010   0.187   9.006  10.898
16038SOL    HW150011   0.163   8.959  10.977
16038SOL    HW250012   0.149   9.093  10.908
16039SOL     OW50013   6.732   7.528   3.318
16039SOL    HW150014   6.788   7.551   3.243
16039SOL    HW250015   6.749   7.435   3.333
16040SOL     OW50016   1.671  12.745   8.490
16040SOL    HW150017   1.742  12.800   8.458
16040SOL    HW250018   1.715  12.667   8.524
16041SOL     OW50019  11.856  12.890   3.928
16041SOL    HW150020  11.792  12.908   3.997
16041SOL    HW250021  11.875  12.797   3.937
16042SOL     OW50022   5.533   8.082   2.106
16042SOL    HW150023   5.524   8.061   2.013
16042SOL    HW250024   5.622   8.117   2.115
16043SOL     OW50025   3.347   2.848  11.306
16043SOL    HW150026   3.346   2.930  11.257
16043SOL    HW250027   3.267   2.803  11.278
16044SOL     OW50028  10.404  13.008   2.904
16044SOL    HW150029  10.412  13.020   2.810
16044SOL    HW250030  10.432  13.091   2.942
16045SOL     OW50031   6.994   0.663   3.046
16045SOL    HW150032   6.944   0.711   3.112
16045SOL    HW250033   6.934   0.653   2.972
16046SOL     OW50034  12.744   7.121   3.749
16046SOL    HW150035  12.729   7.206   3.708
16046SOL    HW250036  12.714   7.133   3.839
16047SOL     OW50037  12.226   0.077  13.969
16047SOL    HW150038  12.313   0.041  13.956
16047SOL    HW250039  12.239   0.172  13.972
16048SOL     OW50040  10.929   5.338   9.560
16048SOL    HW150041  10.870   5.357   9.486
16048SOL    HW250042  10.951   5.424   9.595
16049SOL     OW50043   2.468   3.505   9.327
16049SOL    HW150044   2.503   3.482   9.241
16049SOL    HW250045   2.427   3.424   9.358
16050SOL     OW50046   3.051   7.466   3.434
16050SOL    HW150047   3.124   7.409   3.457
16050SOL    HW250048   3.092   7.547   3.405
16051SOL     OW50049   7.916  11.477  10.314
16051SOL    HW150050   7.998  11.515  10.283
16051SOL    HW250051   7.857  11.483  10.238
16052SOL     OW50052  10.025  13.669   5.312
16052SOL    HW150053  10.047  13.578   5.292
16052SOL    HW250054  10.003  13.669   5.406
16053SOL     OW50055   7.281   9.211   9.380
16053SOL    HW150056   7.295   9.164   9.298
16053SOL    HW250057   7.341   9.286   9.375
16054SOL     OW50058   5.697  13.653   8.646
16054SOL    HW150059   5.636  13.711   8.601
16054SOL    HW250060   5.740  13.604   8.575
16055SOL     OW50061   9.510  13.496  13.255
16055SOL    HW150062   9.520  13.529  13.344
16055SOL    HW250063   9.600  13.484  13.225
16056SOL     OW50064  10.530  10.489  13.601
16056SOL    HW150065  10.602  10.540  13.638
16056SOL    HW250066  10.538  10.500  13.506
16057SOL     OW50067   0.561  11.233  13.261
16057SOL    HW150068   0.584  11.296  13.193
16057SOL    HW250069   0.474  11.260  13.290
16058SOL     OW50070   3.180  10.326   9.770
16058SOL    HW150071   3.112  10.300   9.833
16058SOL    HW250072   3.237  10.385   9.820
16059SOL     OW50073   6.210  11.384   9.813
16059SOL    HW150074   6.233  11.379   9.720
16059SOL    HW250075   6.256  11.462   9.844
16060SOL     OW50076   7.839  12.085   9.528
16060SOL    HW150077   7.869  12.075   9.437
16060SOL    HW250078   7.756  12.131   9.520
16061SOL     OW50079   4.070   1.924   5.392
16061SOL    HW150080   4.062   2.019   5.396
16061SOL    HW250081   4.068   1.904   5.298
16062SOL     OW50082   7.578   5.709   5.310
16062SOL    HW150083   7.643   5.744   5.370
16062SOL    HW250084   7.617   5.630   5.274
16063SOL     OW50085  13.885   2.369   4.661
16063SOL    HW150086  13.922   2.454   4.684
16063SOL    HW250087  13.792   2.387   4.645
16064SOL     OW50088   5.193   8.365   1.524
16064SOL    HW150089   5.281   8.403   1.513
16064SOL    HW250090   5.175   8.322   1.440
16065SOL     OW50091  12.207  11.991   3.848
16065SOL    HW150092  12.172  11.979   3.936
16065SOL    HW250093  12.167  12.073   3.817
16066SOL     OW50094  10.669   9.044   4.833
16066SOL    HW150095  10.699   9.120   4.782
16066SOL    HW250096  10.690   8.968   4.778
16067SOL     OW50097   0.200   9.357  13.882
16067SOL    HW150098   0.288   9.371  13.919
16067SOL    HW250099   0.193   9.423  13.813
16068SOL     OW50100   4.974   2.132   0.329
16068SOL    HW150101   4.934   2.070   0.269
16068SOL    HW250102   5.043   2.174   0.277
16069SOL     OW50103  13.823  13.955   6.385
16069SOL    HW150104  13.738  13.980   6.422
16069SOL    HW250105  13.833  14.011   6.308
16070SOL     OW50106  12.323   5.168   4.919
16070SOL    HW150107  12.296   5.098   4.979
16070SOL    HW250108  12.249   5.178   4.859
16071SOL     OW50109   1.483   0.115   1.672
16071SOL    HW150110   1.548   0.046   1.661
16071SOL    HW250111   1.476   0.128   1.767
16072SOL     OW50112   5.428   6.111   2.928
16072SOL    HW150113   5.444   6.027   2.885
16072SOL    HW250114   5.398   6.169   2.859
16073SOL     OW50115  14.194   1.699   2.878
16073SOL    HW150116  14.203   1.794   2.884
16073SOL    HW250117  14.103   1.682   2.904
16074SOL     OW50118   1.223   2.981  10.089
16074SOL    HW150119   1.224   2.906  10.149
16074SOL    HW250120   1.183   2.947  10.009
16075SOL     OW50121   2.352   4.497   2.902
16075SOL    HW150122   2.413   4.503   2.828
16075SOL    HW250123   2.337   4.403   2.912
16076SOL     OW50124  10.639   7.844  13.786
16076SOL    HW150125  10.667   7.841  13.877
16076SOL    HW250126  10.644   7.754  13.756
16077SOL     OW50127   6.973   9.785   3.563
16077SOL    HW150128   6.925   9.713   3.521
16077SOL    HW250129   6.984   9.850   3.494
16078SOL     OW50130   0.403  12.162   3.754
16078SOL    HW150131   0.420  12.069   3.741
16078SOL    HW250132   0.488  12.199   3.778
16079SOL     OW50133   6.174   8.692   4.872
16079SOL    HW150134   6.114   8.706   4.945
16079SOL    HW250135   6.258   8.728   4.902
16080SOL     OW50136   3.998   6.942   7.369
16080SOL    HW150137   3.954   6.858   7.352
16080SOL    HW250138   3.930   7.008   7.353
16081SOL     OW50139  13.881   8.814   1.930
16081SOL    HW150140  13.946   8.811   1.860
16081SOL    HW250141  13.797   8.797   1.886
16082SOL     OW50142  14.870  12.135  11.966
16082SOL    HW150143   0.070  12.148  11.929
16082SOL    HW250144  14.882  12.069  12.034
16083SOL     OW50145   0.025  11.200  13.272
16083SOL    HW150146   0.027  11.261  13.345
16083SOL    HW250147   0.058  11.118  13.308
16084SOL     OW50148   1.931   7.401  12.254
16084SOL    HW150149   1.930   7.316  12.211
16084SOL    HW250150   1.858   7.449  12.215
16085SOL     OW50151   7.108  10.129   7.498
16085SOL    HW150152   7.179  10.191   7.514
16085SOL    HW250153   7.118  10.062   7.565
16086SOL     OW50154   8.528   7.951   5.612
16086SOL    HW150155   8.545   8.045   5.616
16086SOL    HW250156   8.456   7.937   5.674
16087SOL     OW50157   2.182  12.897   2.142
16087SOL    HW150158   2.143  12.853   2.066
16087SOL    HW250159   2.108  12.909   2.202
16088SOL     OW50160   9.342   2.173   7.315
16088SOL    HW150161   9.403   2.227   7.366
16088SOL    HW250162   9.335   2.218   7.231
16089SOL     OW50163   8.845   9.023  11.327
16089SOL    HW150164   8.920   8.997  11.273
16089SOL    HW250165   8.883   9.065  11.403
16090SOL     OW50166   2.038   5.287   6.358
16090SOL    HW150167   2.026   5.196   6.330
16090SOL    HW250168   2.029   5.339   6.278
16091SOL     OW50169   7.362   4.106   0.866
16091SOL    HW150170   7.332   4.070   0.950
16091SOL    HW250171   7.284   4.148   0.829
16092SOL     OW50172   8.927   8.473   1.486
16092SOL    HW150173   9.000   8.494   1.544
16092SOL    HW250174   8.922   8.378   1.486
16093SOL     OW50175   2.179  11.647   6.509
16093SOL    HW150176   2.108  11.596   6.470
16093SOL    HW250177   2.157  11.652   6.602
16094SOL     OW50178   3.955   4.811   6.423
16094SOL    HW150179   3.908   4.757   6.359
16094SOL    HW250180   4.039   4.766   6.434
16095SOL     OW50181   0.173   6.952   1.543
16095SOL    HW150182   0.154   6.858   1.535
16095SOL    HW250183   0.220   6.974   1.462
16096SOL     OW50184  12.984  13.276   9.044
16096SOL    HW150185  12.923  13.340   9.007
16096SOL    HW250186  12.929  13.222   9.101
16097SOL     OW50187  13.265   0.952   1.999
16097SOL    HW150188  13.361   0.959   2.001
16097SOL    HW250189  13.243   0.918   2.086
16098SOL     OW50190   6.005  11.402  11.181
16098SOL    HW150191   6.079  11.408  11.242
16098SOL    HW250192   6.024  11.466  11.113
16099SOL     OW50193   0.378   7.453   0.615
16099SOL    HW150194   0.367   7.431   0.708
16099SOL    HW250195   0.346   7.376   0.568
16100SOL     OW50196  11.143   8.758  10.504
16100SOL    HW150197  11.182   8.747  10.591
16100SOL    HW250198  11.060   8.803  10.520
16101SOL     OW50199   0.492   1.281   3.220
16101SOL    HW150200   0.575   1.276   3.172
16101SOL    HW250201   0.471   1.374   3.223
16102SOL     OW50202   4.915   6.679   9.539
16102SOL    HW150203   4.985   6.668   9.474
16102SOL    HW250204   4.931   6.609   9.602
16103SOL     OW50205   2.485   7.676   9.324
16103SOL    HW150206   2.483   7.771   9.329
16103SOL    HW250207   2.398   7.649   9.354
16104SOL     OW50208  13.848   4.944  12.544
16104SOL    HW150209  13.834   4.890  12.467
16104SOL    HW250210  13.766   4.990  12.557
16105SOL     OW50211  10.203   1.751   4.403
16105SOL    HW150212  10.111   1.733   4.385
16105SOL    HW250213  10.212   1.846   4.395
16106SOL     OW50214   0.712   4.815   0.785
16106SOL    HW150215   0.760   4.895   0.808
16106SOL    HW250216   0.622   4.845   0.772
16107SOL     OW50217   2.289   1.843   0.691
16107SOL    HW150218   2.200   1.809   0.684
16107SOL    HW250219   2.334   1.784   0.751
16108SOL     OW50220   3.723   1.040  11.745
16108SOL    HW150221   3.711   1.095  11.822
16108SOL    HW250222   3.641   1.046  11.697
16109SOL     OW50223   1.570   8.202   1.252
16109SOL    HW150224   1.507   8.217   1.181
16109SOL    HW250225   1.516   8.191   1.330
16110SOL     OW50226  13.963   6.397  14.456
16110SOL    HW150227  13.992   6.420  14.544
16110SOL    HW250228  13.892   6.458  14.438
16111SOL     OW50229   0.180  14.061   5.104
16111SOL    HW150230   0.167  14.152   5.133
16111SOL    HW250231   0.135  14.009   5.170
16112SOL     OW50232   1.938   8.697   3.778
16112SOL    HW150233   2.008   8.762   3.785
16112SOL    HW250234   1.866   8.734   3.830
16113SOL     OW50235   7.684   0.726   8.481
16113SOL    HW150236   7.629   0.798   8.451
16113SOL    HW250237   7.621   0.660   8.512
16114SOL     OW50238   7.490   5.722  13.165
16114SOL    HW150239   7.512   5.653  13.103
16114SOL    HW250240   7.404   5.698  13.199
16115SOL     OW50241   5.883  12.384   9.006
16115SOL    HW150242   5.879  12.339   8.921
16115SOL    HW250243   5.899  12.314   9.069
16116SOL     OW50244  14.377   7.821   5.869
16116SOL    HW150245  14.431   7.783   5.938
16116SOL    HW250246  14.361   7.748   5.809
16117SOL     OW50247   7.721  12.159   3.788
16117SOL    HW150248   7.799  12.148   3.842
16117SOL    HW250249   7.679  12.238   3.821
16118SOL     OW50250   1.042   7.201  10.666
16118SOL    HW150251   1.041   7.264  10.594
16118SOL    HW250252   1.132   7.167  10.666
16119SOL     OW50253   2.986   8.725   1.019
16119SOL    HW150254   3.031   8.645   1.047
16119SOL    HW250255   2.993   8.784   1.094
16120SOL     OW50256  13.744   3.647   0.362
16120SOL    HW150257  13.822   3.670   0.311
16120SOL    HW250258  13.775   3.641   0.453
16121SOL     OW50259   0.719   9.067  14.563
16121SOL    HW150260   0.767   9.054  14.644
16121SOL    HW250261   0.785   9.063  14.494
16122SOL     OW50262   7.497   8.546   5.813
16122SOL    HW150263   7.429   8.479   5.820
16122SOL    HW250264   7.568   8.503   5.765
16123SOL     OW50265   4.135   8.488   6.643
16123SOL    HW150266   4.207   8.530   6.594
16123SOL    HW250267   4.109   8.414   6.588
16124SOL     OW50268   6.540  10.501   9.654
16124SOL    HW150269   6.527  10.596   9.649
16124SOL    HW250270   6.535  10.481   9.748
16125SOL     OW50271   3.472   2.967   4.466
16125SOL    HW150272   3.404   2.979   4.400
16125SOL    HW250273   3.538   2.914   4.422
16126SOL     OW50274   0.722   8.702   1.333
16126SOL    HW150275   0.811   8.676   1.354
16126SOL    HW250276   0.716   8.793   1.361
16127SOL     OW50277  12.678   5.598   1.005
16127SOL    HW150278  12.648   5.687   0.986
16127SOL    HW250279  12.597   5.549   1.019
16128SOL     OW50280   6.875  12.815  13.010
16128SOL    HW150281   6.809  12.845  13.072
16128SOL    HW250282   6.902  12.894  12.963
16129SOL     OW50283   8.034   9.504   7.689
16129SOL    HW150284   7.945   9.538   7.675
16129SOL    HW250285   8.043   9.435   7.624
16130SOL     OW50286   2.380   9.856  12.274
16130SOL    HW150287   2.421   9.799  12.209
16130SOL    HW250288   2.320   9.911  12.223
16131SOL     OW50289   0.322  10.556   1.528
16131SOL    HW150290   0.280  10.480   1.490
16131SOL    HW250291   0.412  10.553   1.495
16132SOL     OW50292  10.143   8.806  10.858
16132SOL    HW150293  10.184   8.725  10.828
16132SOL    HW250294  10.189   8.827  10.940
16133SOL     OW50295   4.870  12.126   9.716
16133SOL    HW150296   4.917  12.098   9.794
16133SOL    HW250297   4.842  12.216   9.735
16134SOL     OW50298  11.061  10.313   2.636
16134SOL    HW150299  11.122  10.346   2.701
16134SOL    HW250300  11.018  10.239   2.678
16135SOL     OW50301   7.755  11.510   8.691
16135SOL    HW150302   7.690  11.444   8.667
16135SOL    HW250303   7.771  11.559   8.610
16136SOL     OW50304   8.786  12.953   9.198
16136SOL    HW150305   8.771  12.862   9.225
16136SOL    HW250306   8.718  12.970   9.133
16137SOL     OW50307   3.313   8.924  14.830
16137SOL    HW150308   3.370   8.937   0.018
16137SOL    HW250309   3.265   8.844  14.849
16138SOL     OW50310   2.051  10.956   7.657
16138SOL    HW150311   2.073  10.885   7.717
16138SOL    HW250312   2.120  11.021   7.672
16139SOL     OW50313   0.956  14.707  14.659
16139SOL    HW150314   0.931  14.674  14.746
16139SOL    HW250315   1.050  14.689  14.653
16140SOL     OW50316  13.949   5.823  12.046
16140SOL    HW150317  13.928   5.867  11.963
16140SOL    HW250318  13.900   5.741  12.042
16141SOL     OW50319  11.402   4.085   4.933
16141SOL    HW150320  11.351   4.141   4.874
16141SOL    HW250321  11.388   3.996   4.900
16142SOL     OW50322  10.873   9.886   9.508
16142SOL    HW150323  10.796   9.895   9.452
16142SOL    HW250324  10.888   9.792   9.514
16143SOL     OW50325   9.737   7.574  11.862
16143SOL    HW150326   9.818   7.546  11.819
16143SOL    HW250327   9.766   7.631  11.933
16144SOL     OW50328  10.961   0.899  11.290
16144SOL    HW150329  10.942   0.810  11.258
16144SOL    HW250330  10.924   0.956  11.223
16145SOL     OW50331  14.590  14.232  11.448
16145SOL    HW150332  14.562  14.252  11.537
16145SOL    HW250333  14.673  14.279  11.438
16146SOL     OW50334   0.369   9.395   5.322
16146SOL    HW150335   0.447   9.427   5.366
16146SOL    HW250336   0.394   9.391   5.229
16147SOL     OW50337   8.270   8.637   4.508
16147SOL    HW150338   8.340   8.693   4.473
16147SOL    HW250339   8.313   8.553   4.525
16148SOL     OW50340   4.886   8.918   2.765
16148SOL    HW150341   4.805   8.961   2.739
16148SOL    HW250342   4.860   8.857   2.834
16149SOL     OW50343   0.892  11.635  13.148
16149SOL    HW150344   0.848  11.630  13.063
16149SOL    HW250345   0.826  11.604  13.210
16150SOL     OW50346  13.768   6.228  14.543
16150SOL    HW150347  13.836   6.264  14.487
16150SOL    HW250348  13.687   6.267  14.511
16151SOL     OW50349   3.118   9.632   8.977
16151SOL    HW150350   3.211   9.610   8.978
16151SOL    HW250351   3.088   9.605   8.890
16152SOL     OW50352  12.484   9.009   3.003
16152SOL    HW150353  12.433   9.039   3.078
16152SOL    HW250354  12.509   8.919   3.026
16153SOL     OW50355   8.124   0.369   8.196
16153SOL    HW150356   8.042   0.321   8.211
16153SOL    HW250357   8.129   0.377   8.101
16154SOL     OW50358  14.568   0.661   5.925
16154SOL    HW150359  14.485   0.710   5.927
16154SOL    HW250360  14.556   0.595   5.857
16155SOL     OW50361  10.816   7.695   4.737
16155SOL    HW150362  10.765   7.772   4.712
16155SOL    HW250363  10.903   7.729   4.758
16156SOL     OW50364   4.422   1.107   3.376
16156SOL    HW150365   4.490   1.079   3.315
16156SOL    HW250366   4.428   1.045   3.449
16157SOL     OW50367   7.371   2.333   2.933
16157SOL    HW150368   7.388   2.426   2.927
16157SOL    HW250369   7.316   2.313   2.857
16158SOL     OW50370   0.652   5.276  10.822
16158SOL    HW150371   0.663   5.329  10.743
16158SOL    HW250372   0.606   5.198  10.792
16159SOL     OW50373   0.041   0.852   3.357
16159SOL    HW150374   0.094   0.860   3.278
16159SOL    HW250375  14.872   0.929   3.356
16160SOL     OW50376   6.389   8.684  14.085
16160SOL    HW150377   6.442   8.706  14.162
16160SOL    HW250378   6.332   8.613  14.115
16161SOL     OW50379   4.500  13.866  12.923
16161SOL    HW150380   4.559  13.940  12.938
16161SOL    HW250381   4.520  13.837  12.834
16162SOL     OW50382   5.335   1.731   6.254
16162SOL    HW150383   5.288   1.648   6.260
16162SOL    HW250384   5.272   1.791   6.213
16163SOL     OW50385   7.220   2.025   2.743
16163SOL    HW150386   7.198   2.097   2.684
16163SOL    HW250387   7.312   2.039   2.766
16164SOL     OW50388   4.894   0.705   2.293
16164SOL    HW150389   4.976   0.714   2.342
16164SOL    HW250390   4.831   0.757   2.342
16165SOL     OW50391   3.243   0.831  13.916
16165SOL    HW150392   3.240   0.860  14.008
16165SOL    HW250393   3.332   0.851  13.887
16166SOL     OW50394   7.508   6.703   9.298
16166SOL    HW150395   7.421   6.720   9.262
16166SOL    HW250396   7.491   6.672   9.387
16167SOL     OW50397   7.985   2.734   9.716
16167SOL    HW150398   7.903   2.711   9.673
16167SOL    HW250399   8.050   2.676   9.677
16168SOL     OW50400   6.215   2.407   8.761
16168SOL    HW150401   6.186   2.480   8.708
16168SOL    HW250402   6.162   2.333   8.732
16169SOL     OW50403  11.475  13.712  14.040
16169SOL    HW150404  11.481  13.616  14.046
16169SOL    HW250405  11.448  13.728  13.949
16170SOL     OW50406   8.751  13.097   0.178
16170SOL    HW150407   8.686  13.163   0.201
16170SOL    HW250408   8.795  13.132   0.101
16171SOL     OW50409  13.298   5.410   5.032
16171SOL    HW150410  13.225   5.454   5.076
16171SOL    HW250411  13.323   5.340   5.092
16172SOL     OW50412   9.794   5.945   1.023
16172SOL    HW150413   9.830   6.018   0.973
16172SOL    HW250414   9.782   5.875   0.959
16173SOL     OW50415  12.607  12.467  12.225
16173SOL    HW150416  12.643  12.389  12.181
16173SOL    HW250417  12.617  12.537  12.161
16174SOL     OW50418  13.795   3.591   5.676
16174SOL    HW150419  13.705   3.596   5.706
16174SOL    HW250420  13.847   3.616   5.752
16175SOL     OW50421   0.754   2.059   8.645
16175SOL    HW150422   0.694   1.986   8.658
16175SOL    HW250423   0.738   2.089   8.556
16176SOL     OW50424  12.388   2.235   5.336
16176SOL    HW150425  12.373   2.200   5.424
16176SOL    HW250426  12.411   2.327   5.350
16177SOL     OW50427   2.237  11.318   5.397
16177SOL    HW150428   2.270  11.233   5.369
16177SOL    HW250429   2.142  11.309   5.393
16178SOL     OW50430   1.321   4.939  10.749
16178SOL    HW150431   1.323   4.962  10.656
16178SOL    HW250432   1.315   5.023  10.794
16179SOL     OW50433   2.788  13.629   7.028
16179SOL    HW150434   2.726  13.577   7.079
16179SOL    HW250435   2.868  13.576   7.027
16180SOL     OW50436  13.175   4.633   0.823
16180SOL    HW150437  13.167   4.708   0.883
16180SOL    HW250438  13.139   4.559   0.872
16181SOL     OW50439   2.911   2.014  12.111
16181SOL    HW150440   2.885   2.067  12.035
16181SOL    HW250441   2.905   2.074  12.185
16182SOL     OW50442   4.138   8.229   8.463
16182SOL    HW150443   4.199   8.302   8.452
16182SOL    HW250444   4.155   8.172   8.387
16183SOL     OW50445  14.812  14.000  10.157
16183SOL    HW150446  14.822  14.012  10.252
16183SOL    HW250447   0.014  13.992  10.124
16184SOL     OW50448   8.393   5.294   9.427
16184SOL    HW150449   8.406   5.376   9.379
16184SOL    HW250450   8.299   5.276   9.418
16185SOL     OW50451   3.620  14.120   0.009
16185SOL    HW150452   3.627  14.204   0.055
16185SOL    HW250453   3.658  14.056   0.068
16186SOL     OW50454   4.694  12.034  14.286
16186SOL    HW150455   4.720  11.953  14.241
16186SOL    HW250456   4.640  12.081  14.221
16187SOL     OW50457   0.719   2.851   7.559
16187SOL    HW150458   0.691   2.771   7.603
16187SOL    HW250459   0.739   2.823   7.469
16188SOL     OW50460  11.466   0.840   9.730
16188SOL    HW150461  11.550   0.804   9.759
16188SOL    HW250462  11.407   0.828   9.804
16189SOL     OW50463  10.439  12.599   6.592
16189SOL    HW150464  10.483  12.635   6.669
16189SOL    HW250465  10.378  12.534   6.627
16190SOL     OW50466   1.394   0.031   7.792
16190SOL    HW150467   1.434  14.832   7.784
16190SOL    HW250468   1.312   0.024   7.745
16191SOL     OW50469   7.266   2.862  13.248
16191SOL    HW150470   7.236   2.845  13.338
16191SOL    HW250471   7.185   2.868  13.197
16192SOL     OW50472   7.304   8.504  12.323
16192SOL    HW150473   7.278   8.596  12.321
16192SOL    HW250474   7.229   8.457  12.288
16193SOL     OW50475   3.553   2.871  11.483
16193SOL    HW150476   3.468   2.871  11.439
16193SOL    HW250477   3.541   2.813  11.558
16194SOL     OW50478   7.834   2.989  14.181
16194SOL    HW150479   7.887   2.909  14.186
16194SOL    HW250480   7.754   2.967  14.229
16195SOL     OW50481   8.612   3.947   5.205
16195SOL    HW150482   8.706   3.929   5.198
16195SOL    HW250483   8.601   3.987   5.291
16196SOL     OW50484   0.660   4.540   5.934
16196SOL    HW150485   0.571   4.557   5.902
16196SOL    HW250486   0.662   4.445   5.946
16197SOL     OW50487   6.358   0.428  13.753
16197SOL    HW150488   6.364   0.333  13.743
16197SOL    HW250489   6.268   0.444  13.782
16198SOL     OW50490   9.168  13.960  10.939
16198SOL    HW150491   9.243  13.940  10.995
16198SOL    HW250492   9.105  13.891  10.956
16199SOL     OW50493   8.770   5.152  10.387
16199SOL    HW150494   8.856   5.135  10.348
16199SOL    HW250495   8.749   5.073  10.436
16200SOL     OW50496   0.119   1.290   1.434
16200SOL    HW150497   0.126   1.196   1.418
16200SOL    HW250498   0.201   1.327   1.399
16201SOL     OW50499   6.372  13.521   7.707
16201SOL    HW150500   6.384  13.432   7.741
16201SOL    HW250501   6.281  13.543   7.727
16202SOL     OW50502  10.981   0.336  12.128
16202SOL    HW150503  10.896   0.297  12.145
16202SOL    HW250504  10.979   0.420  12.174
16203SOL     OW50505   7.032  10.826  13.999
16203SOL    HW150506   7.055  10.903  14.051
16203SOL    HW250507   7.099  10.761  14.020
16204SOL     OW50508   9.904   7.100   8.943
16204SOL    HW150509   9.838   7.148   8.992
16204SOL    HW250510   9.855   7.031   8.898
16205SOL     OW50511   4.184   5.908   5.739
16205SOL    HW150512   4.267   5.952   5.758
16205SOL    HW250513   4.130   5.925   5.816
16206SOL     OW50514   8.080  13.216   7.191
16206SOL    HW150515   8.061  13.248   7.279
16206SOL    HW250516   8.023  13.140   7.180
16207SOL     OW50517   5.173   0.849  10.803
16207SOL    HW150518   5.143   0.889  10.884
16207SOL    HW250519   5.267   0.863  10.802
16208SOL     OW50520   2.550   8.683   8.358
16208SOL    HW150521   2.604   8.755   8.323
16208SOL    HW250522   2.526   8.632   8.281
16209SOL     OW50523  13.317   3.458   5.747
16209SOL    HW150524  13.372   3.502   5.682
16209SOL    HW250525  13.251   3.523   5.770
16210SOL     OW50526   8.735   9.696  14.862
16210SOL    HW150527   8.822   9.735  14.858
16210SOL    HW250528   8.723   9.675   0.067
16211SOL     OW50529   8.017  13.847  10.861
16211SOL    HW150530   8.053  13.923  10.907
16211SOL    HW250531   8.092  13.808  10.816
16212SOL     OW50532  12.670   2.185   3.379
16212SOL    HW150533  12.637   2.260   3.429
16212SOL    HW250534  12.620   2.186   3.298
16213SOL     OW50535   4.436   0.309   2.713
16213SOL    HW150536   4.348   0.336   2.689
16213SOL    HW250537   4.425   0.254   2.791
16214SOL     OW50538  13.520   3.636   3.001
16214SOL    HW150539  13.580   3.566   3.026
16214SOL    HW250540  13.437   3.591   2.983
16215SOL     OW50541   6.945   1.424  10.085
16215SOL    HW150542   6.861   1.466  10.071
16215SOL    HW250543   6.930   1.362  10.156
16216SOL     OW50544  13.556  10.328   0.913
16216SOL    HW150545  13.503  10.250   0.934
16216SOL    HW250546  13.625  10.295   0.856
16217SOL     OW50547  14.194   7.205  11.118
16217SOL    HW150548  14.174   7.111  11.120
16217SOL    HW250549  14.286   7.209  11.091
16218SOL     OW50550  14.313  10.004   7.208
16218SOL    HW150551  14.355  10.053   7.279
16218SOL    HW250552  14.262   9.936   7.253
16219SOL     OW50553   8.543   4.797   4.032
16219SOL    HW150554   8.561   4.711   3.995
16219SOL    HW250555   8.493   4.780   4.112
16220SOL     OW50556   1.513   3.253   6.465
16220SOL    HW150557   1.454   3.179   6.479
16220SOL    HW250558   1.521   3.293   6.552
16221SOL     OW50559   0.177  10.821   0.033
16221SOL    HW150560   0.100  10.867   0.067
16221SOL    HW250561   0.219  10.884  14.862
16222SOL     OW50562  10.850   8.431   5.307
16222SOL    HW150563  10.897   8.375   5.246
16222SOL    HW250564  10.916   8.455   5.373
16223SOL     OW50565   9.321   5.190   5.248
16223SOL    HW150566   9.381   5.217   5.317
16223SOL    HW250567   9.357   5.230   5.168
16224SOL     OW50568   0.214   3.009   4.538
16224SOL    HW150569   0.279   2.941   4.521
16224SOL    HW250570   0.263   3.091   4.534
16225SOL     OW50571   6.132   5.885   8.055
16225SOL    HW150572   6.083   5.941   7.995
16225SOL    HW250573   6.086   5.894   8.139
16226SOL     OW50574  10.150  14.017  12.542
16226SOL    HW150575  10.115  13.959  12.610
16226SOL    HW250576  10.121  13.977  12.460
16227SOL     OW50577  11.369  12.398  11.530
16227SOL    HW150578  11.433  12.409  11.459
16227SOL    HW250579  11.352  12.304  11.532
16228SOL     OW50580   0.143  12.148  14.029
16228SOL    HW150581   0.129  12.174  13.938
16228SOL    HW250582   0.084  12.203  14.079
16229SOL     OW50583   5.530  14.331   3.011
16229SOL    HW150584   5.576  14.323   3.095
16229SOL    HW250585   5.592  14.379   2.955
16230SOL     OW50586   8.358  13.661   2.117
16230SOL    HW150587   8.334  13.716   2.192
16230SOL    HW250588   8.423  13.713   2.069
16231SOL     OW50589  13.595  14.677   4.568
16231SOL    HW150590  13.592  14.597   4.621
16231SOL    HW250591  13.564  14.745   4.627
16232SOL     OW50592   0.848  10.496  13.401
16232SOL    HW150593   0.826  10.574  13.453
16232SOL    HW250594   0.932  10.467  13.438
16233SOL     OW50595   2.259   6.724   2.669
16233SOL    HW150596   2.169   6.736   2.699
16233SOL    HW250597   2.250   6.685   2.582
16234SOL     OW50598   0.326  10.774   3.805
16234SOL    HW150599   0.235  10.781   3.833
16234SOL    HW250600   0.346  10.681   3.812
16235SOL     OW50601   0.060   0.598   3.549
16235SOL    HW150602   0.124   0.527   3.553
16235SOL    HW250603   0.110   0.673   3.519
16236SOL     OW50604  14.849   3.480   5.361
16236SOL    HW150605  14.787   3.539   5.317
16236SOL    HW250606  14.830   3.491   5.454
16237SOL     OW50607   7.242  10.725  10.729
16237SOL    HW150608   7.231  10.766  10.643
16237SOL    HW250609   7.332  10.747  10.755
16238SOL     OW50610  10.907   0.852   9.119
16238SOL    HW150611  10.887   0.927   9.175
16238SOL    HW250612  10.938   0.890   9.037
16239SOL     OW50613   1.899   2.272  12.157
16239SOL    HW150614   1.933   2.204  12.098
16239SOL    HW250615   1.868   2.223  12.233
16240SOL     OW50616   0.957   6.396   2.440
16240SOL    HW150617   1.034   6.432   2.396
16240SOL    HW250618   0.988   6.313   2.478
16241SOL     OW50619   8.575  12.952  11.406
16241SOL    HW150620   8.613  12.870  11.437
16241SOL    HW250621   8.573  13.009  11.483
16242SOL     OW50622   0.352   6.262   9.683
16242SOL    HW150623   0.323   6.346   9.648
16242SOL    HW250624   0.444   6.255   9.657
16243SOL     OW50625   5.174   3.636   4.155
16243SOL    HW150626   5.120   3.678   4.088
16243SOL    HW250627   5.183   3.703   4.223
16244SOL     OW50628   5.665   3.048   5.661
16244SOL    HW150629   5.610   2.975   5.690
16244SOL    HW250630   5.709   3.077   5.741
16245SOL     OW50631   5.764  14.281   3.206
16245SOL    HW150632   5.845  14.273   3.255
16245SOL    HW250633   5.721  14.358   3.243
16246SOL     OW50634   1.162  11.728   6.748
16246SOL    HW150635   1.113  11.809   6.736
16246SOL    HW250636   1.176  11.722   6.843
16247SOL     OW50637   8.849   7.971   9.627
16247SOL    HW150638   8.921   7.932   9.676
16247SOL    HW250639   8.770   7.930   9.665
16248SOL     OW50640  14.466  11.982   2.472
16248SOL    HW150641  14.468  12.025   2.557
16248SOL    HW250642  14.557  11.958   2.455
16249SOL     OW50643   9.038   5.720   0.072
16249SOL    HW150644   8.982   5.757   0.141
16249SOL    HW250645   8.984   5.653   0.031
16250SOL     OW50646  12.539   0.289   4.680
16250SOL    HW150647  12.532   0.361   4.744
16250SOL    HW250648  12.604   0.320   4.617
16251SOL     OW50649   8.969   4.032   7.505
16251SOL    HW150650   9.032   4.043   7.577
16251SOL    HW250651   9.016   4.061   7.427
16252SOL     OW50652  12.435   1.057   5.812
16252SOL    HW150653  12.383   1.128   5.777
16252SOL    HW250654  12.452   1.000   5.737
16253SOL     OW50655   1.978  12.231   5.687
16253SOL    HW150656   1.900  12.207   5.638
16253SOL    HW250657   1.958  12.209   5.778
16254SOL     OW50658   1.374   9.901   7.706
16254SOL    HW150659   1.411   9.921   7.792
16254SOL    HW250660   1.432   9.835   7.669
16255SOL     OW50661   2.642  12.251   3.402
16255SOL    HW150662   2.624  12.229   3.494
16255SOL    HW250663   2.622  12.345   3.396
16256SOL     OW50664   6.094   3.594  13.378
16256SOL    HW150665   6.076   3.596  13.284
16256SOL    HW250666   6.038   3.664  13.414
16257SOL     OW50667  11.637   6.301  12.188
16257SOL    HW150668  11.688   6.221  12.171
16257SOL    HW250669  11.641   6.350  12.106
16258SOL     OW50670  14.242   0.446   1.393
16258SOL    HW150671  14.183   0.386   1.349
16258SOL    HW250672  14.232   0.529   1.346
16259SOL     OW50673  12.437   2.991   5.190
16259SOL    HW150674  12.371   3.059   5.175
16259SOL    HW250675  12.521   3.034   5.174
16260SOL     OW50676  14.299   4.781   1.177
16260SOL    HW150677  14.225   4.761   1.120
16260SOL    HW250678  14.372   4.732   1.139
16261SOL     OW50679   3.397  10.739   5.330
16261SOL    HW150680   3.335  10.787   5.274
16261SOL    HW250681   3.432  10.805   5.389
16262SOL     OW50682   5.013   2.114  11.766
16262SOL    HW150683   5.024   2.158  11.681
16262SOL    HW250684   5.066   2.165  11.827
16263SOL     OW50685   0.160   1.798   5.862
16263SOL    HW150686   0.078   1.791   5.911
16263SOL    HW250687   0.155   1.729   5.796
16264SOL     OW50688   9.381  11.930  14.015
16264SOL    HW150689   9.407  11.891  13.932
16264SOL    HW250690   9.346  12.016  13.992
16265SOL     OW50691   1.608   5.544   3.565
16265SOL    HW150692   1.558   5.589   3.497
16265SOL    HW250693   1.583   5.452   3.555
16266SOL     OW50694   4.267   6.464  11.633
16266SOL    HW150695   4.201   6.462  11.702
16266SOL    HW250696   4.321   6.387  11.648
16267SOL     OW50697   0.485  12.451  14.290
16267SOL    HW150698   0.441  12.536  14.291
16267SOL    HW250699   0.416  12.388  14.314
16268SOL     OW50700  13.101   3.344   8.148
16268SOL    HW150701  13.085   3.251   8.163
16268SOL    HW250702  13.189   3.347   8.109
16269SOL     OW50703   1.386  12.407   2.792
16269SOL    HW150704   1.395  12.499   2.814
16269SOL    HW250705   1.456  12.363   2.840
16270SOL     OW50706   3.298   6.902  14.318
16270SOL    HW150707   3.210   6.865  14.320
16270SOL    HW250708   3.346   6.852  14.384
16271SOL     OW50709   4.994   4.943   8.140
16271SOL    HW150710   4.923   4.921   8.200
16271SOL    HW250711   4.972   4.896   8.060
16272SOL     OW50712   7.559   9.431   7.619
16272SOL    HW150713   7.618   9.359   7.597
16272SOL    HW250714   7.475   9.406   7.581
16273SOL     OW50715   7.725  11.628  11.403
16273SOL    HW150716   7.735  11.617  11.498
16273SOL    HW250717   7.703  11.540  11.371
16274SOL     OW50718   9.933   7.232   5.763
16274SOL    HW150719   9.906   7.141   5.754
16274SOL    HW250720   9.851   7.281   5.771
16275SOL     OW50721   7.260  11.862   8.403
16275SOL    HW150722   7.213  11.784   8.373
16275SOL    HW250723   7.273  11.914   8.323
16276SOL     OW50724  11.096   2.881   0.273
16276SOL    HW150725  11.116   2.964   0.230
16276SOL    HW250726  11.162   2.820   0.239
16277SOL     OW50727   2.228   1.440   6.476
16277SOL    HW150728   2.166   1.501   6.516
16277SOL    HW250729   2.275   1.401   6.550
16278SOL     OW50730   8.751   1.791  14.853
16278SOL    HW150731   8.800   1.829   0.038
16278SOL    HW250732   8.793   1.707  14.836
16279SOL     OW50733   8.911   1.877  10.654
16279SOL    HW150734   8.911   1.948  10.718
16279SOL    HW250735   8.891   1.798  10.704
16280SOL     OW50736  10.336   2.272  14.664
16280SOL    HW150737  10.309   2.273  14.572
16280SOL    HW250738  10.365   2.182  14.679
16281SOL     OW50739   9.971   8.200   7.273
16281SOL    HW150740   9.936   8.221   7.187
16281SOL    HW250741   9.918   8.251   7.334
16282SOL     OW50742   1.215  13.461   7.748
16282SOL    HW150743   1.263  13.534   7.709
16282SOL    HW250744   1.280  13.390   7.752
16283SOL     OW50745   7.110   5.399   3.068
16283SOL    HW150746   7.036   5.430   3.120
16283SOL    HW250747   7.070   5.344   3.001
16284SOL     OW50748   8.142  13.211   4.552
16284SOL    HW150749   8.090  13.272   4.605
16284SOL    HW250750   8.201  13.169   4.614
16285SOL     OW50751   2.948   6.911   5.990
16285SOL    HW150752   2.986   6.881   6.073
16285SOL    HW250753   2.871   6.961   6.015
16286SOL     OW50754  10.123  14.494  12.147
16286SOL    HW150755  10.136  14.577  12.192
16286SOL    HW250756  10.076  14.518  12.067
16287SOL     OW50757   6.021  14.414   0.047
16287SOL    HW150758   5.972  14.472  14.875
16287SOL    HW250759   6.109  14.452   0.051
16288SOL     OW50760  13.438   4.921   5.885
16288SOL    HW150761  13.391   4.843   5.857
16288SOL    HW250762  13.374   4.972   5.934
16289SOL     OW50763   8.035  12.473   5.381
16289SOL    HW150764   8.128  12.453   5.368
16289SOL    HW250765   7.993  12.448   5.299
16290SOL     OW50766  10.141   8.357   9.068
16290SOL    HW150767  10.100   8.442   9.054
16290SOL    HW250768  10.213   8.354   9.004
16291SOL     OW50769   5.250   3.091   5.254
16291SOL    HW150770   5.285   3.013   5.296
16291SOL    HW250771   5.156   3.074   5.249
16292SOL     OW50772   1.495  13.756   1.568
16292SOL    HW150773   1.419  13.705   1.594
16292SOL    HW250774   1.538  13.703   1.501
16293SOL     OW50775  14.722   9.429   7.551
16293SOL    HW150776  14.780   9.480   7.495
16293SOL    HW250777  14.670   9.376   7.491
16294SOL     OW50778  14.577   8.434   9.923
16294SOL    HW150779  14.587   8.363   9.986
16294SOL    HW250780  14.483   8.437   9.904
16295SOL     OW50781   9.532   8.206   3.284
16295SOL    HW150782   9.552   8.184   3.193
16295SOL    HW250783   9.607   8.172   3.333
16296SOL     OW50784   4.083   4.082  12.022
16296SOL    HW150785   4.153   4.038  11.973
16296SOL    HW250786   4.037   4.134  11.956
16297SOL     OW50787   1.334  12.536   4.761
16297SOL    HW150788   1.343  12.456   4.709
16297SOL    HW250789   1.288  12.508   4.840
16298SOL     OW50790   1.225   8.724   5.697
16298SOL    HW150791   1.151   8.699   5.752
16298SOL    HW250792   1.229   8.656   5.629
16299SOL     OW50793   2.609   6.095   1.936
16299SOL    HW150794   2.682   6.113   1.877
16299SOL    HW250795   2.640   6.124   2.022
16300SOL     OW50796   4.224   1.612   5.285
16300SOL    HW150797   4.203   1.595   5.193
16300SOL    HW250798   4.164   1.682   5.311
16301SOL     OW50799   4.909  12.438   1.995
16301SOL    HW150800   4.978  12.376   1.972
16301SOL    HW250801   4.874  12.468   1.911
16302SOL     OW50802   1.355  11.049   5.116
16302SOL    HW150803   1.379  11.088   5.200
16302SOL    HW250804   1.418  11.085   5.054
16303SOL     OW50805   4.968   5.518  12.562
16303SOL    HW150806   4.984   5.569  12.641
16303SOL    HW250807   5.053   5.515  12.517
16304SOL     OW50808   3.855   0.285   5.297
16304SOL    HW150809   3.950   0.289   5.303
16304SOL    HW250810   3.826   0.263   5.385
16305SOL     OW50811   8.376   4.815   6.895
16305SOL    HW150812   8.317   4.865   6.952
16305SOL    HW250813   8.414   4.881   6.837
16306SOL     OW50814  13.167   8.126  14.436
16306SOL    HW150815  13.249   8.086  14.408
16306SOL    HW250816  13.178   8.140  14.530
16307SOL     OW50817  11.614   3.122  14.201
16307SOL    HW150818  11.548   3.191  14.196
16307SOL    HW250819  11.595   3.076  14.282
16308SOL     OW50820   5.686   6.807   8.344
16308SOL    HW150821   5.641   6.840   8.422
16308SOL    HW250822   5.618   6.804   8.277
16309SOL     OW50823   7.392   0.201  10.542
16309SOL    HW150824   7.346   0.125  10.505
16309SOL    HW250825   7.339   0.276  10.516
16310SOL     OW50826  10.818   4.874   0.247
16310SOL    HW150827  10.875   4.800   0.226
16310SOL    HW250828  10.802   4.917   0.163
16311SOL     OW50829   1.294   5.848   8.824
16311SOL    HW150830   1.244   5.777   8.784
16311SOL    HW250831   1.302   5.913   8.754
16312SOL     OW50832  12.833   0.842   8.505
16312SOL    HW150833  12.911   0.786   8.513
16312SOL    HW250834  12.781   0.822   8.583
16313SOL     OW50835   9.967   2.677  10.762
16313SOL    HW150836   9.980   2.675  10.668
16313SOL    HW250837   9.917   2.758  10.778
16314SOL     OW50838  12.413   6.221   3.192
16314SOL    HW150839  12.502   6.246   3.218
16314SOL    HW250840  12.421   6.128   3.168
16315SOL     OW50841   1.328  11.480  12.572
16315SOL    HW150842   1.254  11.461  12.631
16315SOL    HW250843   1.288  11.524  12.497
16316SOL     OW50844   0.980   9.303   5.923
16316SOL    HW150845   1.034   9.289   5.845
16316SOL    HW250846   1.025   9.372   5.972
16317SOL     OW50847   4.828   9.150   3.180
16317SOL    HW150848   4.880   9.223   3.147
16317SOL    HW250849   4.892   9.079   3.193
16318SOL     OW50850   1.666   3.962   0.221
16318SOL    HW150851   1.712   3.947   0.138
16318SOL    HW250852   1.725   3.927   0.287
16319SOL     OW50853   5.909   4.924  11.779
16319SOL    HW150854   5.893   4.919  11.685
16319SOL    HW250855   5.980   4.987  11.788
16320SOL     OW50856   1.835   6.593  10.118
16320SOL    HW150857   1.842   6.683  10.087
16320SOL    HW250858   1.838   6.601  10.214
16321SOL     OW50859   8.454   6.636  12.785
16321SOL    HW150860   8.409   6.552  12.777
16321SOL    HW250861   8.529   6.629  12.727
16322SOL     OW50862   5.014   1.005   8.457
16322SOL    HW150863   5.056   1.084   8.423
16322SOL    HW250864   5.080   0.965   8.514
16323SOL     OW50865   5.815   1.892   7.483
16323SOL    HW150866   5.739   1.860   7.533
16323SOL    HW250867   5.860   1.812   7.455
16324SOL     OW50868   4.668  10.005  13.143
16324SOL    HW150869   4.758   9.990  13.114
16324SOL    HW250870   4.675  10.016  13.238
16325SOL     OW50871  11.998  10.893  13.962
16325SOL    HW150872  11.995  10.986  13.940
16325SOL    HW250873  12.092  10.873  13.968
16326SOL     OW50874  14.000   3.927  11.343
16326SOL    HW150875  14.031   4.015  11.324
16326SOL    HW250876  14.050   3.899  11.420
16327SOL     OW50877   2.350   9.589  10.171
16327SOL    HW150878   2.290   9.632  10.232
16327SOL    HW250879   2.299   9.516  10.136
16328SOL     OW50880  11.185   5.574   8.763
16328SOL    HW150881  11.230   5.652   8.731
16328SOL    HW250882  11.221   5.502   8.710
16329SOL     OW50883   1.634  11.479   3.154
16329SOL    HW150884   1.559  11.509   3.103
16329SOL    HW250885   1.599  11.460   3.241
16330SOL     OW50886   9.661   2.489   9.463
16330SOL    HW150887   9.746   2.486   9.507
16330SOL    HW250888   9.661   2.572   9.416
16331SOL     OW50889   4.744   1.243   7.269
16331SOL    HW150890   4.835   1.258   7.296
16331SOL    HW250891   4.691   1.287   7.336
16332SOL     OW50892   9.960   4.332   1.882
16332SOL    HW150893  10.044   4.358   1.844
16332SOL    HW250894   9.922   4.413   1.916
16333SOL     OW50895   6.487   7.902   5.900
16333SOL    HW150896   6.545   7.966   5.941
16333SOL    HW250897   6.404   7.948   5.892
16334SOL     OW50898  11.822   7.928   7.520
16334SOL    HW150899  11.789   7.990   7.455
16334SOL    HW250900  11.915   7.919   7.499
16335SOL     OW50901  14.630   1.281  12.997
16335SOL    HW150902  14.616   1.323  12.911
16335SOL    HW250903  14.670   1.197  12.976
16336SOL     OW50904   0.574   8.181   3.603
16336SOL    HW150905   0.582   8.200   3.696
16336SOL    HW250906   0.485   8.148   3.593
16337SOL     OW50907  12.187  10.888   0.817
16337SOL    HW150908  12.104  10.919   0.853
16337SOL    HW250909  12.189  10.923   0.728
16338SOL     OW50910   7.539   7.677   9.797
16338SOL    HW150911   7.466   7.687   9.858
16338SOL    HW250912   7.533   7.586   9.768
16339SOL     OW50913   6.087   9.537  10.388
16339SOL    HW150914   6.140   9.458  10.374
16339SOL    HW250915   6.147   9.599  10.431
16340SOL     OW50916   9.949   1.499   2.588
16340SOL    HW150917   9.922   1.483   2.498
16340SOL    HW250918  10.019   1.436   2.604
16341SOL     OW50919   2.932   3.248   8.548
16341SOL    HW150920   2.947   3.157   8.522
16341SOL    HW250921   2.858   3.277   8.496
16342SOL     OW50922   8.458   8.078   9.566
16342SOL    HW150923   8.460   8.106   9.658
16342SOL    HW250924   8.483   8.157   9.517
16343SOL     OW50925   3.303   6.264   9.033
16343SOL    HW150926   3.256   6.270   8.950
16343SOL    HW250927   3.271   6.338   9.084
16344SOL     OW50928   5.633  14.645   8.577
16344SOL    HW150929   5.628  14.693   8.494
16344SOL    HW250930   5.715  14.676   8.617
16345SOL     OW50931   2.712   1.041   5.529
16345SOL    HW150932   2.733   1.133   5.516
16345SOL    HW250933   2.670   1.039   5.616
16346SOL     OW50934  10.595  12.678   3.699
16346SOL    HW150935  10.586  12.608   3.634
16346SOL    HW250936  10.565  12.639   3.781
16347SOL     OW50937   0.281   1.286  11.763
16347SOL    HW150938   0.246   1.277  11.852
16347SOL    HW250939   0.213   1.249  11.706
16348SOL     OW50940  14.683  13.633   4.826
16348SOL    HW150941  14.635  13.669   4.752
16348SOL    HW250942  14.762  13.595   4.788
16349SOL     OW50943  14.869   6.708   5.720
16349SOL    HW150944  14.811   6.773   5.681
16349SOL    HW250945   0.069   6.746   5.713
16350SOL     OW50946  13.653   9.246   6.108
16350SOL    HW150947  13.596   9.170   6.093
16350SOL    HW250948  13.741   9.210   6.107
16351SOL     OW50949   0.303   8.166   3.240
16351SOL    HW150950   0.393   8.193   3.222
16351SOL    HW250951   0.249   8.235   3.201
16352SOL     OW50952   5.897   8.386   3.057
16352SOL    HW150953   5.991   8.368   3.055
16352SOL    HW250954   5.869   8.376   2.966
16353SOL     OW50955  12.658   2.651   6.806
16353SOL    HW150956  12.585   2.629   6.863
16353SOL    HW250957  12.656   2.584   6.737
16354SOL     OW50958  13.390   8.355   1.164
16354SOL    HW150959  13.366   8.389   1.077
16354SOL    HW250960  13.465   8.298   1.148
16355SOL     OW50961  11.135   8.769   7.027
16355SOL    HW150962  11.119   8.705   6.958
16355SOL    HW250963  11.210   8.820   6.995
16356SOL     OW50964   3.045   2.160   3.677
16356SOL    HW150965   2.956   2.181   3.648
16356SOL    HW250966   3.081   2.106   3.608
16357SOL     OW50967  10.692   6.771   2.793
16357SOL    HW150968  10.751   6.704   2.827
16357SOL    HW250969  10.629   6.722   2.740
16358SOL     OW50970   7.280   2.658  12.409
16358SOL    HW150971   7.318   2.720  12.471
16358SOL    HW250972   7.186   2.673  12.413
16359SOL     OW50973   6.490   9.728  11.962
16359SOL    HW150974   6.496   9.813  12.005
16359SOL    HW250975   6.557   9.732  11.893
16360SOL     OW50976   7.170   1.951  13.285
16360SOL    HW150977   7.221   1.870  13.275
16360SOL    HW250978   7.203   2.009  13.217
16361SOL     OW50979   7.301   3.618   3.064
16361SOL    HW150980   7.358   3.659   2.998
16361SOL    HW250981   7.295   3.526   3.038
16362SOL     OW50982   2.312   9.460   6.535
16362SOL    HW150983   2.341   9.420   6.617
16362SOL    HW250984   2.338   9.397   6.467
16363SOL     OW50985   4.656  12.610   9.113
16363SOL    HW150986   4.649  12.629   9.019
16363SOL    HW250987   4.725  12.544   9.119
16364SOL     OW50988  12.560   7.180   9.573
16364SOL    HW150989  12.590   7.094   9.603
16364SOL    HW250990  12.500   7.210   9.641
16365SOL     OW50991  10.470   2.715  12.674
16365SOL    HW150992  10.521   2.638  12.648
16365SOL    HW250993  10.463   2.767  12.593
16366SOL     OW50994   5.931  14.418  10.736
16366SOL    HW150995   5.885  14.493  10.775
16366SOL    HW250996   6.005  14.402  10.795
16367SOL     OW50997   0.061   7.502  14.846
16367SOL    HW150998   0.137   7.445  14.832
16367SOL    HW250999   0.001   7.449   0.010
16368SOL     OW51000   1.320   4.830   7.285
16368SOL    HW151001   1.361   4.909   7.321
16368SOL    HW251002   1.232   4.857   7.262
16369SOL     OW51003  11.810   2.127   4.252
16369SOL    HW151004  11.756   2.121   4.331
16369SOL    HW251005  11.897   2.096   4.280
16370SOL     OW51006   3.742  11.960   8.325
16370SOL    HW151007   3.715  11.875   8.289
16370SOL    HW251008   3.667  11.988   8.378
16371SOL     OW51009   2.010   1.195   5.777
16371SOL    HW151010   2.045   1.206   5.689
16371SOL    HW251011   1.938   1.134   5.767
16372SOL     OW51012  14.248  11.553   8.215
16372SOL    HW151013  14.160  11.574   8.182
16372SOL    HW251014  14.262  11.615   8.287
16373SOL     OW51015   7.821  13.754   7.355
16373SOL    HW151016   7.804  13.827   7.414
16373SOL    HW251017   7.740  13.745   7.305
16374SOL     OW51018   1.727   9.119  12.668
16374SOL    HW151019   1.801   9.123  12.729
16374SOL    HW251020   1.654   9.087  12.721
16375SOL     OW51021   8.470   1.457   1.349
16375SOL    HW151022   8.550   1.494   1.386
16375SOL    HW251023   8.401   1.516   1.380
16376SOL     OW51024   8.207   1.589   8.753
16376SOL    HW151025   8.254   1.607   8.834
16376SOL    HW251026   8.115   1.605   8.774
16377SOL     OW51027   2.454  12.802  13.032
16377SOL    HW151028   2.519  12.732  13.028
16377SOL    HW251029   2.501  12.879  13.000
16378SOL     OW51030   8.614   7.213   4.704
16378SOL    HW151031   8.603   7.121   4.682
16378SOL    HW251032   8.651   7.252   4.625
16379SOL     OW51033   0.636  10.137  14.581
16379SOL    HW151034   0.562  10.175  14.629
16379SOL    HW251035   0.640  10.188  14.500
16380SOL     OW51036  14.266   4.728   6.593
16380SOL    HW151037  14.307   4.769   6.669
16380SOL    HW251038  14.183   4.774   6.582
16381SOL     OW51039   0.870   4.331   3.788
16381SOL    HW151040   0.905   4.321   3.700
16381SOL    HW251041   0.916   4.266   3.840
16382SOL     OW51042  12.292   1.497   9.507
16382SOL    HW151043  12.333   1.519   9.423
16382SOL    HW251044  12.227   1.566   9.521
16383SOL     OW51045   2.657   8.330   8.393
16383SOL    HW151046   2.650   8.235   8.400
16383SOL    HW251047   2.629   8.362   8.478
16384SOL     OW51048  13.187   7.572   1.002
16384SOL    HW151049  13.278   7.590   1.028
16384SOL    HW251050  13.185   7.477   0.987
16385SOL     OW51051   5.430  14.199   1.110
16385SOL    HW151052   5.345  14.192   1.153
16385SOL    HW251053   5.490  14.224   1.180
16386SOL     OW51054  10.612   1.314  12.018
16386SOL    HW151055  10.565   1.393  11.989
16386SOL    HW251056  10.577   1.296  12.105
16387SOL     OW51057  14.451  14.828   2.483
16387SOL    HW151058  14.474  14.736   2.466
16387SOL    HW251059  14.389  14.823   2.556
16388SOL     OW51060   8.007   7.702   9.458
16388SOL    HW151061   8.101   7.710   9.441
16388SOL    HW251062   7.976   7.641   9.392
16389SOL     OW51063   4.554  10.231   4.689
16389SOL    HW151064   4.483  10.291   4.712
16389SOL    HW251065   4.519  10.144   4.710
16390SOL     OW51066   9.557   6.169   4.205
16390SOL    HW151067   9.502   6.224   4.262
16390SOL    HW251068   9.642   6.168   4.248
16391SOL     OW51069   3.378   0.004   2.617
16391SOL    HW151070   3.427   0.045   2.546
16391SOL    HW251071   3.334  14.817   2.577
16392SOL     OW51072   5.406   2.003  11.802
16392SOL    HW151073   5.493   2.007  11.842
16392SOL    HW251074   5.406   1.921  11.752
16393SOL     OW51075  12.483  12.713   3.685
16393SOL    HW151076  12.538  12.659   3.627
16393SOL    HW251077  12.471  12.659   3.763
16394SOL     OW51078   3.601   7.092   5.711
16394SOL    HW151079   3.555   7.174   5.698
16394SOL    HW251080   3.584   7.068   5.802
16395SOL     OW51081   0.988   2.270  11.620
16395SOL    HW151082   0.917   2.313  11.572
16395SOL    HW251083   0.990   2.315  11.705
16396SOL     OW51084  14.667   7.813  13.543
16396SOL    HW151085  14.742   7.756  13.557
16396SOL    HW251086  14.679   7.885  13.604
16397SOL     OW51087   8.630  11.447   0.053
16397SOL    HW151088   8.658  11.477  14.854
16397SOL    HW251089   8.579  11.519   0.089
16398SOL     OW51090   2.457  14.239   1.427
16398SOL    HW151091   2.535  14.257   1.479
16398SOL    HW251092   2.491  14.217   1.340
16399SOL     OW51093  10.059   4.098  12.368
16399SOL    HW151094  10.075   4.011  12.330
16399SOL    HW251095  10.129   4.153  12.331
16400SOL     OW51096   0.253   8.096   7.353
16400SOL    HW151097   0.206   8.172   7.386
16400SOL    HW251098   0.269   8.042   7.431
16401SOL     OW51099  13.075   7.648  11.403
16401SOL    HW151100  13.111   7.674  11.488
16401SOL    HW251101  12.980   7.641  11.419
16402SOL     OW51102   6.896  12.110   5.946
16402SOL    HW151103   6.948  12.090   6.024
16402SOL    HW251104   6.919  12.201   5.926
16403SOL     OW51105  13.953  13.777   9.683
16403SOL    HW151106  14.044  13.792   9.710
16403SOL    HW251107  13.926  13.860   9.645
16404SOL     OW51108   5.282   9.053   4.554
16404SOL    HW151109   5.351   8.992   4.526
16404SOL    HW251110   5.232   9.069   4.474
16405SOL     OW51111  12.928   1.826  10.749
16405SOL    HW151112  12.838   1.854  10.765
16405SOL    HW251113  12.974   1.846  10.831
16406SOL     OW51114   8.465  11.145   2.083
16406SOL    HW151115   8.536  11.162   2.145
16406SOL    HW251116   8.502  11.165   1.997
16407SOL     OW51117  11.936  11.413   3.755
16407SOL    HW151118  11.849  11.416   3.795
16407SOL    HW251119  11.930  11.340   3.693
16408SOL     OW51120  10.001  13.204  11.576
16408SOL    HW151121   9.931  13.263  11.547
16408SOL    HW251122   9.960  13.118  11.580
16409SOL     OW51123   6.769   1.392   5.162
16409SOL    HW151124   6.728   1.478   5.151
16409SOL    HW251125   6.696   1.330   5.166
16410SOL     OW51126   8.459  12.769   1.574
16410SOL    HW151127   8.420  12.712   1.640
16410SOL    HW251128   8.448  12.722   1.492
16411SOL     OW51129   9.828  14.791   6.931
16411SOL    HW151130   9.838  14.870   6.984
16411SOL    HW251131   9.771  14.734   6.982
16412SOL     OW51132  12.592   1.886   1.545
16412SOL    HW151133  12.664   1.852   1.492
16412SOL    HW251134  12.598   1.981   1.538
16413SOL     OW51135   7.225  12.750   9.087
16413SOL    HW151136   7.226  12.668   9.038
16413SOL    HW251137   7.132  12.768   9.102
16414SOL     OW51138   3.117   2.050  11.493
16414SOL    HW151139   3.084   2.120  11.437
16414SOL    HW251140   3.158   2.095  11.566
16415SOL     OW51141   9.637   5.142   9.240
16415SOL    HW151142   9.633   5.068   9.179
16415SOL    HW251143   9.545   5.168   9.251
16416SOL     OW51144  14.422   9.146   9.518
16416SOL    HW151145  14.405   9.238   9.541
16416SOL    HW251146  14.461   9.109   9.598
16417SOL     OW51147   6.307  11.272  13.746
16417SOL    HW151148   6.273  11.226  13.823
16417SOL    HW251149   6.388  11.313  13.776
16418SOL     OW51150  14.054  10.371  11.592
16418SOL    HW151151  14.012  10.371  11.506
16418SOL    HW251152  14.107  10.451  11.593
16419SOL     OW51153  10.682  14.510   7.475
16419SOL    HW151154  10.695  14.426   7.518
16419SOL    HW251155  10.590  14.510   7.449
16420SOL     OW51156   2.551  10.559   4.795
16420SOL    HW151157   2.536  10.629   4.731
16420SOL    HW251158   2.611  10.499   4.751
16421SOL     OW51159  14.160   0.259   5.887
16421SOL    HW151160  14.222   0.197   5.924
16421SOL    HW251161  14.126   0.215   5.809
16422SOL     OW51162  14.194  14.102  14.564
16422SOL    HW151163  14.142  14.171  14.604
16422SOL    HW251164  14.140  14.023  14.572
16423SOL     OW51165  12.574   0.125   3.205
16423SOL    HW151166  12.558   0.203   3.152
16423SOL    HW251167  12.670   0.114   3.203
16424SOL     OW51168   8.481  11.894   0.733
16424SOL    HW151169   8.454  11.908   0.642
16424SOL    HW251170   8.576  11.883   0.728
16425SOL     OW51171   4.509   4.907   8.991
16425SOL    HW151172   4.577   4.918   8.925
16425SOL    HW251173   4.525   4.820   9.028
16426SOL     OW51174   9.472  11.642   4.000
16426SOL    HW151175   9.555  11.611   4.035
16426SOL    HW251176   9.470  11.610   3.910
16427SOL     OW51177   5.994   0.661   4.804
16427SOL    HW151178   5.922   0.635   4.861
16427SOL    HW251179   5.985   0.756   4.797
16428SOL     OW51180   8.237   7.287   4.130
16428SOL    HW151181   8.264   7.375   4.105
16428SOL    HW251182   8.305   7.230   4.094
16429SOL     OW51183  11.834  12.260   3.681
16429SOL    HW151184  11.845  12.337   3.737
16429SOL    HW251185  11.783  12.199   3.734
16430SOL     OW51186   0.429   2.890  11.311
16430SOL    HW151187   0.483   2.886  11.391
16430SOL    HW251188   0.342   2.863  11.340
16431SOL     OW51189   9.042   8.630   6.237
16431SOL    HW151190   9.070   8.708   6.286
16431SOL    HW251191   9.046   8.657   6.145
16432SOL     OW51192  12.748   3.210   8.865
16432SOL    HW151193  12.681   3.269   8.832
16432SOL    HW251194  12.702   3.151   8.924
16433SOL     OW51195  13.455   1.585   7.167
16433SOL    HW151196  13.533   1.536   7.195
16433SOL    HW251197  13.432   1.548   7.082
16434SOL     OW51198   5.738   3.577   9.759
16434SOL    HW151199   5.684   3.638   9.810
16434SOL    HW251200   5.686   3.559   9.680
16435SOL     OW51201   0.708   7.217  12.389
16435SOL    HW151202   0.679   7.260  12.309
16435SOL    HW251203   0.749   7.135  12.360
16436SOL     OW51204   4.928   4.641   7.139
16436SOL    HW151205   4.984   4.592   7.200
16436SOL    HW251206   4.968   4.728   7.133
16437SOL     OW51207   7.090   6.539  10.839
16437SOL    HW151208   7.017   6.478  10.826
16437SOL    HW251209   7.088   6.596  10.763
16438SOL     OW51210   8.893   4.548   1.592
16438SOL    HW151211   8.844   4.487   1.648
16438SOL    HW251212   8.932   4.610   1.653
16439SOL     OW51213   8.592   5.388   1.641
16439SOL    HW151214   8.532   5.369   1.569
16439SOL    HW251215   8.660   5.443   1.602
16440SOL     OW51216   8.961  11.896  10.082
16440SOL    HW151217   9.025  11.931  10.144
16440SOL    HW251218   8.890  11.863  10.137
16441SOL     OW51219  12.015   1.958   0.374
16441SOL    HW151220  11.943   1.944   0.436
16441SOL    HW251221  12.009   2.050   0.350
16442SOL     OW51222   5.583   6.144  14.367
16442SOL    HW151223   5.667   6.098  14.361
16442SOL    HW251224   5.519   6.081  14.335
16443SOL     OW51225   1.080   9.825   9.106
16443SOL    HW151226   0.987   9.811   9.123
16443SOL    HW251227   1.113   9.862   9.188
16444SOL     OW51228   5.597   3.983  14.861
16444SOL    HW151229   5.650   4.062  14.873
16444SOL    HW251230   5.572   3.986  14.768
16445SOL     OW51231   0.586   8.904   3.040
16445SOL    HW151232   0.681   8.914   3.044
16445SOL    HW251233   0.571   8.841   2.969
16446SOL     OW51234   8.971   3.966   4.550
16446SOL    HW151235   8.903   3.965   4.483
16446SOL    HW251236   9.024   3.889   4.531
16447SOL     OW51237   6.373   0.951   4.566
16447SOL    HW151238   6.360   0.858   4.582
16447SOL    HW251239   6.460   0.970   4.600
16448SOL     OW51240   7.921  13.646   6.938
16448SOL    HW151241   8.006  13.659   6.978
16448SOL    HW251242   7.901  13.553   6.953
16449SOL     OW51243   8.033   6.029   9.669
16449SOL    HW151244   8.056   6.089   9.598
16449SOL    HW251245   7.976   5.963   9.628
16450SOL     OW51246  14.875   8.806   8.947
16450SOL    HW151247  14.836   8.781   8.864
16450SOL    HW251248   0.026   8.725   8.982
16451SOL     OW51249   0.711   8.004   1.288
16451SOL    HW151250   0.778   8.071   1.297
16451SOL    HW251251   0.680   7.988   1.378
16452SOL     OW51252   0.138   6.671  12.319
16452SOL    HW151253   0.140   6.763  12.345
16452SOL    HW251254   0.059   6.662  12.266
16453SOL     OW51255   9.927   3.534   0.185
16453SOL    HW151256   9.910   3.443   0.209
16453SOL    HW251257   9.989   3.530   0.112
16454SOL     OW51258   6.157  12.021   7.433
16454SOL    HW151259   6.139  12.114   7.422
16454SOL    HW251260   6.109  11.979   7.361
16455SOL     OW51261   1.788   1.577   2.404
16455SOL    HW151262   1.848   1.587   2.477
16455SOL    HW251263   1.737   1.499   2.425
16456SOL     OW51264   5.438   9.954   6.566
16456SOL    HW151265   5.515   9.930   6.617
16456SOL    HW251266   5.439   9.895   6.491
16457SOL     OW51267   2.180   1.832   8.145
16457SOL    HW151268   2.251   1.869   8.198
16457SOL    HW251269   2.133   1.908   8.111
16458SOL     OW51270   2.994  14.164  13.895
16458SOL    HW151271   3.076  14.213  13.900
16458SOL    HW251272   2.944  14.208  13.826
16459SOL     OW51273   5.146   3.834   8.484
16459SOL    HW151274   5.204   3.869   8.416
16459SOL    HW251275   5.201   3.830   8.562
16460SOL     OW51276   0.433   8.757   1.259
16460SOL    HW151277   0.526   8.775   1.274
16460SOL    HW251278   0.417   8.785   1.169
16461SOL     OW51279  14.365   8.711   0.735
16461SOL    HW151280  14.334   8.700   0.646
16461SOL    HW251281  14.286   8.707   0.789
16462SOL     OW51282   6.722   8.335  12.111
16462SOL    HW151283   6.782   8.409  12.114
16462SOL    HW251284   6.729   8.295  12.198
16463SOL     OW51285   9.032  11.663  13.552
16463SOL    HW151286   9.015  11.570  13.537
16463SOL    HW251287   9.126  11.672  13.539
16464SOL     OW51288   9.373   3.663   7.481
16464SOL    HW151289   9.369   3.745   7.431
16464SOL    HW251290   9.409   3.600   7.419
16465SOL     OW51291  10.677   3.327   9.247
16465SOL    HW151292  10.735   3.268   9.295
16465SOL    HW251293  10.607   3.271   9.214
16466SOL     OW51294   0.906  10.966   1.949
16466SOL    HW151295   0.928  10.885   1.903
16466SOL    HW251296   0.895  11.031   1.880
16467SOL     OW51297   3.511   8.055   5.694
16467SOL    HW151298   3.428   8.018   5.663
16467SOL    HW251299   3.492   8.085   5.783
16468SOL     OW51300  11.395   3.389   8.249
16468SOL    HW151301  11.488   3.379   8.267
16468SOL    HW251302  11.352   3.342   8.321
16469SOL     OW51303  10.274   9.108   9.429
16469SOL    HW151304  10.222   9.097   9.509
16469SOL    HW251305  10.258   9.028   9.379
16470SOL     OW51306  12.752  14.208   5.659
16470SOL    HW151307  12.794  14.172   5.581
16470SOL    HW251308  12.765  14.141   5.726
16471SOL     OW51309   5.889  12.638   9.178
16471SOL    HW151310   5.903  12.575   9.107
16471SOL    HW251311   5.803  12.675   9.159
16472SOL     OW51312   0.791   3.244   6.978
16472SOL    HW151313   0.776   3.188   7.054
16472SOL    HW251314   0.841   3.318   7.013
16473SOL     OW51315   0.244   3.349  10.039
16473SOL    HW151316   0.223   3.439  10.064
16473SOL    HW251317   0.162   3.314  10.004
16474SOL     OW51318   1.909  12.535   0.996
16474SOL    HW151319   1.955  12.456   0.965
16474SOL    HW251320   1.889  12.517   1.088
16475SOL     OW51321   6.280   7.211  12.544
16475SOL    HW151322   6.291   7.139  12.607
16475SOL    HW251323   6.224   7.175  12.476
16476SOL     OW51324   5.981   9.386   5.440
16476SOL    HW151325   5.943   9.452   5.498
16476SOL    HW251326   6.074   9.407   5.437
16477SOL     OW51327  10.910  14.114  10.297
16477SOL    HW151328  10.973  14.182  10.322
16477SOL    HW251329  10.962  14.050  10.249
16478SOL     OW51330   1.661   0.644  10.016
16478SOL    HW151331   1.658   0.560   9.968
16478SOL    HW251332   1.735   0.691   9.978
16479SOL     OW51333  12.659   3.039   5.979
16479SOL    HW151334  12.566   3.062   5.984
16479SOL    HW251335  12.699   3.112   5.932
16480SOL     OW51336   7.277   4.125   5.423
16480SOL    HW151337   7.312   4.046   5.464
16480SOL    HW251338   7.337   4.195   5.450
16481SOL     OW51339   4.137   1.330  13.555
16481SOL    HW151340   4.122   1.247  13.509
16481SOL    HW251341   4.128   1.397  13.487
16482SOL     OW51342   4.251   4.237   1.064
16482SOL    HW151343   4.266   4.142   1.073
16482SOL    HW251344   4.275   4.273   1.149
16483SOL     OW51345  14.635   9.094   3.548
16483SOL    HW151346  14.621   9.047   3.466
16483SOL    HW251347  14.712   9.149   3.531
16484SOL     OW51348   5.824   8.681   2.928
16484SOL    HW151349   5.807   8.657   3.019
16484SOL    HW251350   5.861   8.603   2.888
16485SOL     OW51351   6.664  11.135   6.332
16485SOL    HW151352   6.659  11.229   6.351
16485SOL    HW251353   6.609  11.094   6.399
16486SOL     OW51354   2.110  13.823   2.216
16486SOL    HW151355   2.163  13.799   2.291
16486SOL    HW251356   2.019  13.811   2.246
16487SOL     OW51357   0.724   1.776   3.029
16487SOL    HW151358   0.694   1.866   3.025
16487SOL    HW251359   0.814   1.779   2.994
16488SOL     OW51360  12.956   0.991   0.635
16488SOL    HW151361  13.030   1.042   0.669
16488SOL    HW251362  12.912   1.051   0.574
16489SOL     OW51363   4.333  12.573   1.302
16489SOL    HW151364   4.375  12.601   1.383
16489SOL    HW251365   4.328  12.478   1.309
16490SOL     OW51366  11.408   5.952   0.229
16490SOL    HW151367  11.485   5.998   0.262
16490SOL    HW251368  11.413   5.865   0.268
16491SOL     OW51369   9.412   4.360   4.212
16491SOL    HW151370   9.447   4.443   4.245
16491SOL    HW251371   9.410   4.372   4.117
16492SOL     OW51372  10.728   3.351   5.297
16492SOL    HW151373  10.802   3.363   5.237
16492SOL    HW251374  10.750   3.403   5.374
16493SOL     OW51375   2.330   0.435  11.519
16493SOL    HW151376   2.270   0.510  11.523
16493SOL    HW251377   2.409   0.465  11.565
16494SOL     OW51378  13.409   0.964   9.025
16494SOL    HW151379  13.316   0.975   9.046
16494SOL    HW251380  13.424   1.027   8.954
16495SOL     OW51381   6.995   4.580   1.630
16495SOL    HW151382   6.959   4.667   1.640
16495SOL    HW251383   6.921   4.521   1.646
16496SOL     OW51384  13.913  10.310   7.670
16496SOL    HW151385  14.008  10.318   7.678
16496SOL    HW251386  13.879  10.394   7.702
16497SOL     OW51387  13.665  11.303   6.314
16497SOL    HW151388  13.655  11.254   6.232
16497SOL    HW251389  13.584  11.286   6.362
16498SOL     OW51390   5.494  10.703   1.781
16498SOL    HW151391   5.516  10.791   1.750
16498SOL    HW251392   5.530  10.698   1.869
16499SOL     OW51393   5.600   4.145   5.786
16499SOL    HW151394   5.534   4.097   5.736
16499SOL    HW251395   5.612   4.095   5.866
16500SOL     OW51396  11.420  12.970   4.200
16500SOL    HW151397  11.454  12.883   4.224
16500SOL    HW251398  11.349  12.986   4.263
16501SOL     OW51399  12.774   5.470   3.575
16501SOL    HW151400  12.830   5.414   3.629
16501SOL    HW251401  12.744   5.413   3.505
16502SOL     OW51402  14.652   6.159   7.067
16502SOL    HW151403  14.617   6.215   7.136
16502SOL    HW251404  14.747   6.169   7.073
16503SOL     OW51405  10.636  12.948  11.731
16503SOL    HW151406  10.574  12.948  11.804
16503SOL    HW251407  10.720  12.929  11.772
16504SOL     OW51408  10.207  10.510  11.232
16504SOL    HW151409  10.126  10.554  11.207
16504SOL    HW251410  10.187  10.417  11.227
16505SOL     OW51411   7.276   2.231   0.367
16505SOL    HW151412   7.231   2.282   0.299
16505SOL    HW251413   7.311   2.298   0.427
16506SOL     OW51414  13.163  13.177  13.143
16506SOL    HW151415  13.221  13.172  13.067
16506SOL    HW251416  13.195  13.109  13.203
16507SOL     OW51417  14.623  14.021   8.745
16507SOL    HW151418  14.571  14.101   8.738
16507SOL    HW251419  14.710  14.046   8.713
16508SOL     OW51420   9.532   5.857  12.950
16508SOL    HW151421   9.504   5.940  12.913
16508SOL    HW251422   9.457   5.826  13.001
16509SOL     OW51423  10.667  13.735  12.188
16509SOL    HW151424  10.692  13.813  12.137
16509SOL    HW251425  10.748  13.705  12.228
16510SOL     OW51426   9.549   3.840   2.336
16510SOL    HW151427   9.513   3.815   2.421
16510SOL    HW251428   9.635   3.877   2.357
16511SOL     OW51429   4.938  11.269   8.833
16511SOL    HW151430   4.844  11.277   8.848
16511SOL    HW251431   4.959  11.335   8.767
16512SOL     OW51432   0.145   8.489   3.704
16512SOL    HW151433   0.152   8.580   3.733
16512SOL    HW251434   0.234   8.466   3.676
16513SOL     OW51435  12.797   6.846   9.828
16513SOL    HW151436  12.774   6.770   9.882
16513SOL    HW251437  12.889   6.832   9.804
16514SOL     OW51438  10.617   6.406   9.210
16514SOL    HW151439  10.592   6.332   9.265
16514SOL    HW251440  10.654   6.470   9.271
16515SOL     OW51441   4.161  10.583   5.792
16515SOL    HW151442   4.100  10.614   5.859
16515SOL    HW251443   4.140  10.635   5.714
16516SOL     OW51444  10.310   4.732   4.139
16516SOL    HW151445  10.245   4.678   4.184
16516SOL    HW251446  10.362   4.771   4.209
16517SOL     OW51447  10.722  11.978   4.440
16517SOL    HW151448  10.714  11.944   4.530
16517SOL    HW251449  10.654  12.045   4.435
16518SOL     OW51450  10.530   8.458   5.676
16518SOL    HW151451  10.597   8.525   5.690
16518SOL    HW251452  10.476   8.493   5.604
16519SOL     OW51453  11.447  13.470  10.295
16519SOL    HW151454  11.513  13.409  10.262
16519SOL    HW251455  11.409  13.426  10.370
16520SOL     OW51456   5.642   0.628  13.900
16520SOL    HW151457   5.591   0.626  13.819
16520SOL    HW251458   5.709   0.694  13.884
16521SOL     OW51459   6.338  13.476  11.728
16521SOL    HW151460   6.357  13.491  11.821
16521SOL    HW251461   6.422  13.452  11.690
16522SOL     OW51462   6.033   6.879   3.600
16522SOL    HW151463   6.048   6.974   3.601
16522SOL    HW251464   6.017   6.858   3.508
16523SOL     OW51465  12.810   1.252   0.209
16523SOL    HW151466  12.861   1.207   0.276
16523SOL    HW251467  12.721   1.254   0.244
16524SOL     OW51468  14.151  10.690   3.302
16524SOL    HW151469  14.245  10.676   3.290
16524SOL    HW251470  14.133  10.774   3.259
16525SOL     OW51471   8.072   9.425  14.030
16525SOL    HW151472   8.077   9.371  13.951
16525SOL    HW251473   7.978   9.431  14.048
16526SOL     OW51474   9.780   5.226  11.076
16526SOL    HW151475   9.872   5.237  11.051
16526SOL    HW251476   9.764   5.132  11.067
16527SOL     OW51477   9.386   6.000   9.779
16527SOL    HW151478   9.317   5.955   9.730
16527SOL    HW251479   9.340   6.067   9.829
16528SOL     OW51480  10.842   0.149   0.476
16528SOL    HW151481  10.793   0.214   0.527
16528SOL    HW251482  10.816   0.065   0.515
16529SOL     OW51483  11.611   3.733  14.678
16529SOL    HW151484  11.691   3.681  14.674
16529SOL    HW251485  11.596   3.746  14.771
16530SOL     OW51486  13.980   3.235   0.668
16530SOL    HW151487  14.062   3.202   0.705
16530SOL    HW251488  14.007   3.299   0.603
16531SOL     OW51489   0.672   6.542   0.469
16531SOL    HW151490   0.579   6.564   0.471
16531SOL    HW251491   0.689   6.499   0.552
16532SOL     OW51492   5.512   5.787   1.976
16532SOL    HW151493   5.551   5.758   2.058
16532SOL    HW251494   5.465   5.867   2.000
16533SOL     OW51495   3.731   7.543   5.229
16533SOL    HW151496   3.766   7.569   5.314
16533SOL    HW251497   3.718   7.625   5.182
16534SOL     OW51498   1.274   4.981   6.039
16534SOL    HW151499   1.286   4.902   5.986
16534SOL    HW251500   1.261   4.948   6.128
16535SOL     OW51501   2.192   6.211  11.527
16535SOL    HW151502   2.272   6.201  11.475
16535SOL    HW251503   2.221   6.200  11.617
16536SOL     OW51504   2.929   2.185   9.550
16536SOL    HW151505   2.994   2.186   9.479
16536SOL    HW251506   2.886   2.100   9.540
16537SOL     OW51507   9.272   9.785   9.003
16537SOL    HW151508   9.352   9.805   9.051
16537SOL    HW251509   9.271   9.689   8.997
16538SOL     OW51510   5.218  12.390  11.698
16538SOL    HW151511   5.237  12.392  11.792
16538SOL    HW251512   5.266  12.313  11.666
16539SOL     OW51513   1.935   9.888   6.419
16539SOL    HW151514   1.988   9.890   6.499
16539SOL    HW251515   1.993   9.850   6.353
16540SOL     OW51516   8.479   8.522   3.601
16540SOL    HW151517   8.496   8.612   3.572
16540SOL    HW251518   8.391   8.502   3.570
16541SOL     OW51519   4.344  10.665   6.997
16541SOL    HW151520   4.335  10.725   6.923
16541SOL    HW251521   4.321  10.579   6.961
16542SOL     OW51522  13.984   0.036  13.825
16542SOL    HW151523  13.916   0.022  13.891
16542SOL    HW251524  14.042  14.847  13.833
16543SOL     OW51525  10.058   4.916   8.594
16543SOL    HW151526  10.105   4.998   8.583
16543SOL    HW251527  10.097   4.876   8.672
16544SOL     OW51528   0.198   2.879   3.283
16544SOL    HW151529   0.228   2.890   3.374
16544SOL    HW251530   0.250   2.805   3.251
16545SOL     OW51531   6.250   0.122   5.540
16545SOL    HW151532   6.277   0.162   5.457
16545SOL    HW251533   6.168   0.166   5.562
16546SOL     OW51534   3.116   4.238  10.394
16546SOL    HW151535   3.037   4.220  10.343
16546SOL    HW251536   3.110   4.332  10.414
16547SOL     OW51537   2.861   8.238  14.696
16547SOL    HW151538   2.930   8.172  14.697
16547SOL    HW251539   2.780   8.189  14.684
16548SOL     OW51540  13.436   3.162  13.719
16548SOL    HW151541  13.373   3.234  13.724
16548SOL    HW251542  13.475   3.168  13.632
16549SOL     OW51543   3.543   9.588   7.618
16549SOL    HW151544   3.555   9.508   7.669
16549SOL    HW251545   3.583   9.569   7.534
16550SOL     OW51546   0.329   3.628   7.905
16550SOL    HW151547   0.360   3.716   7.881
16550SOL    HW251548   0.375   3.608   7.986
16551SOL     OW51549   7.335   5.685   2.150
16551SOL    HW151550   7.268   5.731   2.201
16551SOL    HW251551   7.411   5.744   2.152
16552SOL     OW51552   6.171  13.313   3.585
16552SOL    HW151553   6.254  13.275   3.556
16552SOL    HW251554   6.158  13.276   3.672
16553SOL     OW51555   9.569  13.009   5.178
16553SOL    HW151556   9.620  13.065   5.119
16553SOL    HW251557   9.614  13.017   5.262
16554SOL     OW51558   2.885   7.859  12.470
16554SOL    HW151559   2.795   7.827  12.458
16554SOL    HW251560   2.894   7.928  12.404
16555SOL     OW51561   9.262   6.916   5.437
16555SOL    HW151562   9.262   7.002   5.478
16555SOL    HW251563   9.174   6.908   5.399
16556SOL     OW51564   2.590   4.681   8.535
16556SOL    HW151565   2.598   4.747   8.466
16556SOL    HW251566   2.674   4.684   8.581
16557SOL     OW51567   0.240   6.416  12.232
16557SOL    HW151568   0.231   6.361  12.310
16557SOL    HW251569   0.241   6.506  12.266
16558SOL     OW51570   7.088   0.032  11.750
16558SOL    HW151571   7.105  14.851  11.815
16558SOL    HW251572   7.171   0.042  11.703
16559SOL     OW51573   1.144   9.548  14.136
16559SOL    HW151574   1.152   9.594  14.220
16559SOL    HW251575   1.114   9.461  14.159
16560SOL     OW51576   3.359  13.554   1.846
16560SOL    HW151577   3.381  13.628   1.902
16560SOL    HW251578   3.407  13.480   1.883
16561SOL     OW51579   3.991   7.724  14.031
16561SOL    HW151580   3.954   7.732  14.118
16561SOL    HW251581   3.957   7.800  13.983
16562SOL     OW51582   3.300   7.166  10.786
16562SOL    HW151583   3.361   7.110  10.834
16562SOL    HW251584   3.355   7.229  10.740
16563SOL     OW51585   9.070  14.095   9.242
16563SOL    HW151586   8.990  14.048   9.263
16563SOL    HW251587   9.087  14.074   9.150
16564SOL     OW51588   5.503  12.433  10.587
16564SOL    HW151589   5.515  12.512  10.534
16564SOL    HW251590   5.591  12.401  10.604
16565SOL     OW51591  10.846   0.661   8.580
16565SOL    HW151592  10.936   0.693   8.585
16565SOL    HW251593  10.801   0.703   8.653
16566SOL     OW51594   4.181   2.720   5.983
16566SOL    HW151595   4.168   2.795   5.925
16566SOL    HW251596   4.098   2.672   5.978
16567SOL     OW51597   6.605   5.292   4.487
16567SOL    HW151598   6.693   5.277   4.454
16567SOL    HW251599   6.610   5.271   4.580
16568SOL     OW51600   2.160   4.162   1.733
16568SOL    HW151601   2.209   4.179   1.813
16568SOL    HW251602   2.222   4.117   1.676
16569SOL     OW51603   6.619   6.011  11.033
16569SOL    HW151604   6.545   6.041  10.981
16569SOL    HW251605   6.692   6.067  11.006
16570SOL     OW51606   2.017  13.398   2.364
16570SOL    HW151607   2.020  13.310   2.403
16570SOL    HW251608   2.103  13.410   2.325
16571SOL     OW51609   4.582  12.491   0.674
16571SOL    HW151610   4.562  12.502   0.767
16571SOL    HW251611   4.520  12.547   0.629
16572SOL     OW51612   0.073   3.431  12.861
16572SOL    HW151613  14.880   3.435  12.913
16572SOL    HW251614   0.048   3.464  12.775
16573SOL     OW51615  14.616  12.234   5.105
16573SOL    HW151616  14.614  12.142   5.077
16573SOL    HW251617  14.702  12.265   5.077
16574SOL     OW51618  10.599  13.146  13.786
16574SOL    HW151619  10.575  13.055  13.805
16574SOL    HW251620  10.683  13.140  13.741
16575SOL     OW51621  12.506   1.708   6.140
16575SOL    HW151622  12.425   1.666   6.169
16575SOL    HW251623  12.575   1.649   6.170
16576SOL     OW51624  12.187   0.875   5.600
16576SOL    HW151625  12.259   0.811   5.595
16576SOL    HW251626  12.182   0.912   5.512
16577SOL     OW51627   0.026  12.378  14.394
16577SOL    HW151628   0.013  12.419  14.309
16577SOL    HW251629   0.097  12.316  14.380
16578SOL     OW51630   9.304   8.210  10.512
16578SOL    HW151631   9.390   8.251  10.521
16578SOL    HW251632   9.303   8.179  10.421
16579SOL     OW51633  12.509   6.498   4.986
16579SOL    HW151634  12.525   6.498   4.892
16579SOL    HW251635  12.420   6.533   4.996
16580SOL     OW51636  10.548  13.250  10.963
16580SOL    HW151637  10.511  13.307  10.895
16580SOL    HW251638  10.482  13.251  11.033
16581SOL     OW51639   7.528   4.431   3.505
16581SOL    HW151640   7.535   4.488   3.582
16581SOL    HW251641   7.492   4.488   3.437
16582SOL     OW51642   3.996   6.918   1.644
16582SOL    HW151643   4.053   6.862   1.593
16582SOL    HW251644   3.909   6.907   1.605
16583SOL     OW51645   5.970   4.379   3.209
16583SOL    HW151646   6.059   4.413   3.201
16583SOL    HW251647   5.942   4.364   3.119
16584SOL     OW51648   2.264   5.765  13.723
16584SOL    HW151649   2.342   5.819  13.736
16584SOL    HW251650   2.242   5.733  13.811
16585SOL     OW51651  13.852   4.117  14.378
16585SOL    HW151652  13.861   4.029  14.413
16585SOL    HW251653  13.893   4.113  14.292
16586SOL     OW51654  10.365   6.895  14.353
16586SOL    HW151655  10.324   6.899  14.439
16586SOL    HW251656  10.296   6.862  14.295
16587SOL     OW51657   7.157   2.249  11.377
16587SOL    HW151658   7.164   2.337  11.340
16587SOL    HW251659   7.066   2.242  11.404
16588SOL     OW51660   9.737   9.208   2.479
16588SOL    HW151661   9.719   9.148   2.406
16588SOL    HW251662   9.698   9.291   2.451
16589SOL     OW51663   4.809   4.397   1.852
16589SOL    HW151664   4.802   4.383   1.947
16589SOL    HW251665   4.763   4.479   1.836
16590SOL     OW51666  10.475   9.505   2.340
16590SOL    HW151667  10.435   9.490   2.426
16590SOL    HW251668  10.486   9.600   2.335
16591SOL     OW51669   4.409  10.596   5.917
16591SOL    HW151670   4.393  10.685   5.950
16591SOL    HW251671   4.324  10.566   5.887
16592SOL     OW51672   4.107   0.282   3.755
16592SOL    HW151673   4.187   0.229   3.759
16592SOL    HW251674   4.106   0.318   3.666
16593SOL     OW51675   0.978   1.110   5.011
16593SOL    HW151676   1.049   1.052   5.038
16593SOL    HW251677   1.022   1.183   4.966
16594SOL     OW51678   5.281   4.275   4.651
16594SOL    HW151679   5.205   4.219   4.639
16594SOL    HW251680   5.307   4.261   4.742
16595SOL     OW51681   6.818  10.787   5.946
16595SOL    HW151682   6.795  10.876   5.972
16595SOL    HW251683   6.913  10.789   5.934
16596SOL     OW51684   9.234  13.722   6.285
16596SOL    HW151685   9.317  13.769   6.284
16596SOL    HW251686   9.242  13.660   6.357
16597SOL     OW51687  11.819   4.503   9.019
16597SOL    HW151688  11.756   4.573   9.037
16597SOL    HW251689  11.900   4.550   8.996
16598SOL     OW51690   8.827   7.160   5.647
16598SOL    HW151691   8.771   7.202   5.581
16598SOL    HW251692   8.911   7.205   5.640
16599SOL     OW51693  13.616  10.425   7.133
16599SOL    HW151694  13.588  10.376   7.055
16599SOL    HW251695  13.578  10.512   7.121
16600SOL     OW51696  13.668  13.263   6.282
16600SOL    HW151697  13.760  13.259   6.305
16600SOL    HW251698  13.667  13.278   6.188
16601SOL     OW51699   1.501  14.553  13.908
16601SOL    HW151700   1.474  14.645  13.901
16601SOL    HW251701   1.436  14.514  13.966
16602SOL     OW51702  12.428   3.918   6.672
16602SOL    HW151703  12.433   3.998   6.619
16602SOL    HW251704  12.348   3.930   6.725
16603SOL     OW51705   3.052   1.813  10.180
16603SOL    HW151706   3.046   1.738  10.122
16603SOL    HW251707   3.133   1.857  10.154
16604SOL     OW51708  13.862   4.272   7.823
16604SOL    HW151709  13.822   4.197   7.867
16604SOL    HW251710  13.947   4.283   7.867
16605SOL     OW51711   0.315  10.550   5.209
16605SOL    HW151712   0.287  10.460   5.194
16605SOL    HW251713   0.397  10.558   5.161
16606SOL     OW51714   3.728   3.039   8.121
16606SOL    HW151715   3.796   2.972   8.130
16606SOL    HW251716   3.774   3.114   8.083
16607SOL     OW51717   4.331   3.199  12.530
16607SOL    HW151718   4.400   3.208  12.465
16607SOL    HW251719   4.355   3.260  12.600
16608SOL     OW51720  14.603   0.732   1.445
16608SOL    HW151721  14.570   0.692   1.525
16608SOL    HW251722  14.677   0.676   1.420
16609SOL     OW51723   0.765  12.676   4.056
16609SOL    HW151724   0.681  12.719   4.041
16609SOL    HW251725   0.742  12.593   4.098
16610SOL     OW51726   6.730  10.422   2.601
16610SOL    HW151727   6.817  10.443   2.567
16610SOL    HW251728   6.690  10.369   2.531
16611SOL     OW51729   9.548   6.230   3.519
16611SOL    HW151730   9.573   6.160   3.458
16611SOL    HW251731   9.632   6.265   3.549
16612SOL     OW51732  13.504   7.473   8.194
16612SOL    HW151733  13.544   7.551   8.155
16612SOL    HW251734  13.557   7.400   8.161
16613SOL     OW51735   5.396   6.367  11.662
16613SOL    HW151736   5.374   6.277  11.640
16613SOL    HW251737   5.476   6.360  11.714
16614SOL     OW51738   5.915   2.959   7.151
16614SOL    HW151739   5.927   3.049   7.119
16614SOL    HW251740   5.995   2.940   7.199
16615SOL     OW51741   8.266   6.305   2.328
16615SOL    HW151742   8.181   6.306   2.371
16615SOL    HW251743   8.302   6.218   2.348
16616SOL     OW51744  11.453  12.160  12.097
16616SOL    HW151745  11.503  12.162  12.016
16616SOL    HW251746  11.488  12.087  12.147
16617SOL     OW51747   8.454   7.668   8.422
16617SOL    HW151748   8.380   7.727   8.410
16617SOL    HW251749   8.418   7.581   8.408
16618SOL     OW51750  10.715   2.683  10.570
16618SOL    HW151751  10.808   2.674  10.586
16618SOL    HW251752  10.703   2.776  10.548
16619SOL     OW51753   0.287   8.662   6.033
16619SOL    HW151754   0.232   8.722   6.083
16619SOL    HW251755   0.308   8.711   5.953
16620SOL     OW51756   3.083   2.211   1.770
16620SOL    HW151757   3.018   2.147   1.742
16620SOL    HW251758   3.159   2.158   1.795
16621SOL     OW51759   5.052   6.600   7.770
16621SOL    HW151760   5.040   6.626   7.861
16621SOL    HW251761   4.965   6.572   7.741
16622SOL     OW51762  12.457  11.954   8.091
16622SOL    HW151763  12.545  11.917   8.087
16622SOL    HW251764  12.471  12.044   8.123
16623SOL     OW51765   3.190  13.483  11.593
16623SOL    HW151766   3.219  13.532  11.515
16623SOL    HW251767   3.240  13.522  11.665
16624SOL     OW51768   4.118   8.348   6.157
16624SOL    HW151769   4.140   8.269   6.109
16624SOL    HW251770   4.198   8.372   6.203
16625SOL     OW51771   9.389  14.313   3.903
16625SOL    HW151772   9.365  14.302   3.995
16625SOL    HW251773   9.349  14.396   3.877
16626SOL     OW51774   7.990  12.325   4.871
16626SOL    HW151775   8.070  12.278   4.845
16626SOL    HW251776   7.924  12.297   4.808
16627SOL     OW51777  14.606   5.070   4.228
16627SOL    HW151778  14.605   5.059   4.323
16627SOL    HW251779  14.666   5.142   4.212
16628SOL     OW51780  12.787   8.680   1.352
16628SOL    HW151781  12.697   8.659   1.330
16628SOL    HW251782  12.786   8.774   1.370
16629SOL     OW51783   0.639   2.066  11.523
16629SOL    HW151784   0.633   2.021  11.606
16629SOL    HW251785   0.684   2.005  11.465
16630SOL     OW51786   4.225  12.793  10.531
16630SOL    HW151787   4.157  12.727  10.539
16630SOL    HW251788   4.238  12.804  10.436
16631SOL     OW51789  14.446   7.825   2.395
16631SOL    HW151790  14.451   7.818   2.300
16631SOL    HW251791  14.373   7.885   2.411
16632SOL     OW51792   8.215   6.344   0.629
16632SOL    HW151793   8.241   6.253   0.619
16632SOL    HW251794   8.233   6.364   0.721
16633SOL     OW51795   7.556  11.898  13.364
16633SOL    HW151796   7.529  11.811  13.336
16633SOL    HW251797   7.481  11.954  13.346
16634SOL     OW51798   5.712   7.044   9.811
16634SOL    HW151799   5.618   7.027   9.809
16634SOL    HW251800   5.723   7.124   9.759
16635SOL     OW51801   7.393   4.160   4.680
16635SOL    HW151802   7.478   4.138   4.719
16635SOL    HW251803   7.329   4.118   4.738
16636SOL     OW51804   4.562  11.075   9.650
16636SOL    HW151805   4.620  11.120   9.712
16636SOL    HW251806   4.592  10.984   9.651
16637SOL     OW51807   4.754  10.797   2.617
16637SOL    HW151808   4.665  10.802   2.652
16637SOL    HW251809   4.742  10.791   2.522
16638SOL     OW51810   5.119  13.364  10.331
16638SOL    HW151811   5.111  13.403  10.418
16638SOL    HW251812   5.140  13.272  10.348
16639SOL     OW51813   4.953   5.597   9.294
16639SOL    HW151814   5.033   5.554   9.265
16639SOL    HW251815   4.944   5.673   9.236
16640SOL     OW51816   8.656   1.189   1.957
16640SOL    HW151817   8.578   1.158   2.002
16640SOL    HW251818   8.729   1.142   1.998
16641SOL     OW51819  13.441  10.664  11.746
16641SOL    HW151820  13.469  10.581  11.784
16641SOL    HW251821  13.465  10.658  11.654
16642SOL     OW51822   4.146   8.302  12.847
16642SOL    HW151823   4.073   8.258  12.891
16642SOL    HW251824   4.205   8.328  12.918
16643SOL     OW51825   1.513   7.280   6.665
16643SOL    HW151826   1.581   7.325   6.616
16643SOL    HW251827   1.561   7.226   6.729
16644SOL     OW51828   1.335   8.845  13.679
16644SOL    HW151829   1.410   8.858  13.736
16644SOL    HW251830   1.273   8.914  13.704
16645SOL     OW51831   0.555   3.703   9.198
16645SOL    HW151832   0.588   3.702   9.288
16645SOL    HW251833   0.520   3.791   9.186
16646SOL     OW51834   8.358   6.625  11.882
16646SOL    HW151835   8.301   6.590  11.814
16646SOL    HW251836   8.372   6.552  11.942
16647SOL     OW51837   1.825  10.181  13.384
16647SOL    HW151838   1.902  10.210  13.434
16647SOL    HW251839   1.765  10.256  13.389
16648SOL     OW51840   7.505   1.054  11.945
16648SOL    HW151841   7.424   1.051  11.894
16648SOL    HW251842   7.529   0.962  11.957
16649SOL     OW51843   4.055   3.967  12.286
16649SOL    HW151844   4.087   4.019  12.360
16649SOL    HW251845   4.045   4.031  12.215
16650SOL     OW51846   7.679  11.343   3.168
16650SOL    HW151847   7.593  11.348   3.125
16650SOL    HW251848   7.689  11.428   3.210
16651SOL     OW51849   0.012  11.042  14.668
16651SOL    HW151850  14.849  11.013  14.744
16651SOL    HW251851   0.099  11.062  14.703
16652SOL     OW51852   4.758   4.801   9.228
16652SOL    HW151853   4.810   4.741   9.174
16652SOL    HW251854   4.778   4.888   9.193
16653SOL     OW51855   9.536   5.639  14.589
16653SOL    HW151856   9.561   5.649  14.681
16653SOL    HW251857   9.604   5.584  14.551
16654SOL     OW51858   8.262  13.543   2.615
16654SOL    HW151859   8.308  13.619   2.652
16654SOL    HW251860   8.266  13.476   2.683
16655SOL     OW51861  14.148   9.255   6.218
16655SOL    HW151862  14.139   9.166   6.183
16655SOL    HW251863  14.222   9.250   6.279
16656SOL     OW51864  13.780   3.387   7.937
16656SOL    HW151865  13.867   3.423   7.953
16656SOL    HW251866  13.732   3.401   8.019
16657SOL     OW51867  13.114  12.333   3.186
16657SOL    HW151868  13.097  12.256   3.240
16657SOL    HW251869  13.189  12.308   3.132
16658SOL     OW51870  13.168   6.536   4.822
16658SOL    HW151871  13.229   6.524   4.895
16658SOL    HW251872  13.170   6.453   4.775
16659SOL     OW51873   6.252   8.981   4.054
16659SOL    HW151874   6.246   8.935   3.970
16659SOL    HW251875   6.329   9.038   4.045
16660SOL     OW51876   0.426  12.536   3.418
16660SOL    HW151877   0.444  12.516   3.326
16660SOL    HW251878   0.335  12.566   3.418
16661SOL     OW51879  13.805   1.681   9.466
16661SOL    HW151880  13.784   1.594   9.501
16661SOL    HW251881  13.809   1.737   9.543
16662SOL     OW51882   1.565  11.348   1.807
16662SOL    HW151883   1.560  11.427   1.860
16662SOL    HW251884   1.603  11.282   1.866
16663SOL     OW51885   9.648   4.594   7.314
16663SOL    HW151886   9.649   4.553   7.400
16663SOL    HW251887   9.673   4.524   7.254
16664SOL     OW51888   8.577   8.221   2.843
16664SOL    HW151889   8.602   8.150   2.901
16664SOL    HW251890   8.586   8.300   2.896
16665SOL     OW51891   1.472  11.645   9.461
16665SOL    HW151892   1.434  11.732   9.449
16665SOL    HW251893   1.443  11.596   9.384
16666SOL     OW51894  13.491   5.833   5.394
16666SOL    HW151895  13.417   5.840   5.333
16666SOL    HW251896  13.469   5.892   5.466
16667SOL     OW51897  12.596   8.708  12.262
16667SOL    HW151898  12.618   8.616  12.246
16667SOL    HW251899  12.633   8.727  12.348
16668SOL     OW51900   5.904  14.092  13.071
16668SOL    HW151901   5.928  14.122  13.159
16668SOL    HW251902   5.901  13.997  13.079
16669SOL     OW51903  14.269  14.351   8.026
16669SOL    HW151904  14.235  14.439   8.009
16669SOL    HW251905  14.209  14.314   8.090
16670SOL     OW51906   5.338   1.814   1.655
16670SOL    HW151907   5.309   1.727   1.682
16670SOL    HW251908   5.353   1.805   1.561
16671SOL     OW51909  10.390  11.115   0.778
16671SOL    HW151910  10.480  11.085   0.762
16671SOL    HW251911  10.397  11.174   0.852
16672SOL     OW51912   8.972   9.544  11.695
16672SOL    HW151913   8.978   9.539  11.600
16672SOL    HW251914   8.930   9.462  11.721
16673SOL     OW51915   0.714   5.010  11.089
16673SOL    HW151916   0.775   5.023  11.162
16673SOL    HW251917   0.629   4.999  11.130
16674SOL     OW51918   7.553   5.926   6.051
16674SOL    HW151919   7.615   5.861   6.085
16674SOL    HW251920   7.528   5.893   5.965
16675SOL     OW51921  12.985  13.977   6.630
16675SOL    HW151922  13.042  13.902   6.615
16675SOL    HW251923  12.898  13.948   6.601
16676SOL     OW51924  13.486  11.551   4.724
16676SOL    HW151925  13.445  11.507   4.650
16676SOL    HW251926  13.452  11.640   4.721
16677SOL     OW51927   3.586   3.094  12.375
16677SOL    HW151928   3.613   3.150  12.448
16677SOL    HW251929   3.514   3.142  12.333
16678SOL     OW51930   5.272   9.916   5.055
16678SOL    HW151931   5.342   9.978   5.074
16678SOL    HW251932   5.316   9.832   5.044
16679SOL     OW51933   3.280   9.367   0.437
16679SOL    HW151934   3.281   9.273   0.452
16679SOL    HW251935   3.230   9.403   0.510
16680SOL     OW51936   7.768  10.877   9.226
16680SOL    HW151937   7.818  10.875   9.144
16680SOL    HW251938   7.800  10.800   9.274
16681SOL     OW51939   5.230   5.041   0.758
16681SOL    HW151940   5.257   4.950   0.744
16681SOL    HW251941   5.140   5.044   0.726
16682SOL     OW51942  13.093  12.680   7.618
16682SOL    HW151943  13.143  12.636   7.548
16682SOL    HW251944  13.082  12.612   7.685
16683SOL     OW51945   8.263  12.440  13.605
16683SOL    HW151946   8.332  12.495  13.644
16683SOL    HW251947   8.302  12.353  13.600
16684SOL     OW51948   2.736   9.144   1.462
16684SOL    HW151949   2.738   9.099   1.378
16684SOL    HW251950   2.730   9.237   1.440
16685SOL     OW51951   5.977  11.378   2.960
16685SOL    HW151952   6.053  11.337   2.920
16685SOL    HW251953   5.902  11.332   2.925
16686SOL     OW51954  13.939   9.906  12.287
16686SOL    HW151955  13.970   9.994  12.268
16686SOL    HW251956  13.904   9.911  12.376
16687SOL     OW51957   4.836  12.860   9.695
16687SOL    HW151958   4.851  12.828   9.784
16687SOL    HW251959   4.869  12.950   9.696
16688SOL     OW51960   7.670   5.232  11.156
16688SOL    HW151961   7.623   5.282  11.222
16688SOL    HW251962   7.741   5.291  11.128
16689SOL     OW51963  10.837   8.305  12.502
16689SOL    HW151964  10.742   8.302  12.508
16689SOL    HW251965  10.857   8.396  12.477
16690SOL     OW51966   3.556   2.153   4.828
16690SOL    HW151967   3.542   2.066   4.789
16690SOL    HW251968   3.515   2.214   4.767
16691SOL     OW51969   3.685  13.482   5.847
16691SOL    HW151970   3.608  13.473   5.790
16691SOL    HW251971   3.756  13.441   5.797
16692SOL     OW51972   0.195  11.436   6.659
16692SOL    HW151973   0.144  11.362   6.691
16692SOL    HW251974   0.215  11.414   6.568
16693SOL     OW51975   7.952  14.522   2.025
16693SOL    HW151976   7.897  14.530   2.102
16693SOL    HW251977   7.919  14.588   1.964
16694SOL     OW51978   8.754  12.012   7.277
16694SOL    HW151979   8.689  11.969   7.333
16694SOL    HW251980   8.800  12.071   7.337
16695SOL     OW51981   2.492   0.127   4.420
16695SOL    HW151982   2.585   0.138   4.398
16695SOL    HW251983   2.464   0.052   4.367
16696SOL     OW51984  12.645   6.608  11.453
16696SOL    HW151985  12.620   6.593  11.544
16696SOL    HW251986  12.737   6.632  11.457
16697SOL     OW51987   5.970   7.048  10.954
16697SOL    HW151988   6.025   7.007  10.887
16697SOL    HW251989   5.942   7.130  10.916
16698SOL     OW51990  14.746   1.750   3.057
16698SOL    HW151991  14.675   1.696   3.092
16698SOL    HW251992  14.809   1.756   3.128
16699SOL     OW51993   2.366  11.827  14.197
16699SOL    HW151994   2.275  11.830  14.167
16699SOL    HW251995   2.372  11.898  14.260
16700SOL     OW51996  14.621   1.333   4.069
16700SOL    HW151997  14.587   1.263   4.124
16700SOL    HW251998  14.610   1.413   4.121
16701SOL     OW51999   8.849   9.142  12.736
16701SOL    HW152000   8.857   9.221  12.681
16701SOL    HW252001   8.850   9.176  12.826
16702SOL     OW52002   7.692  11.686   3.563
16702SOL    HW152003   7.731  11.770   3.586
16702SOL    HW252004   7.763  11.622   3.572
16703SOL     OW52005   5.566   0.574   0.291
16703SOL    HW152006   5.636   0.540   0.348
16703SOL    HW252007   5.498   0.507   0.295
16704SOL     OW52008   2.490   4.758   7.265
16704SOL    HW152009   2.429   4.708   7.210
16704SOL    HW252010   2.563   4.780   7.207
16705SOL     OW52011   5.159   0.379   5.265
16705SOL    HW152012   5.190   0.446   5.326
16705SOL    HW252013   5.229   0.314   5.263
16706SOL     OW52014  10.786   3.736   3.825
16706SOL    HW152015  10.697   3.702   3.812
16706SOL    HW252016  10.831   3.667   3.874
16707SOL     OW52017   3.735  11.922  14.162
16707SOL    HW152018   3.732  12.018  14.171
16707SOL    HW252019   3.667  11.902  14.098
16708SOL     OW52020   1.515  14.570   2.170
16708SOL    HW152021   1.443  14.537   2.116
16708SOL    HW252022   1.589  14.578   2.110
16709SOL     OW52023   4.418   1.565   1.359
16709SOL    HW152024   4.441   1.524   1.442
16709SOL    HW252025   4.322   1.566   1.359
16710SOL     OW52026   1.118  12.440  13.162
16710SOL    HW152027   1.184  12.502  13.192
16710SOL    HW252028   1.053  12.494  13.117
16711SOL     OW52029  11.732   2.995   0.730
16711SOL    HW152030  11.650   3.029   0.767
16711SOL    HW252031  11.731   3.026   0.639
16712SOL     OW52032   7.646   1.981  13.419
16712SOL    HW152033   7.678   1.910  13.475
16712SOL    HW252034   7.563   2.007  13.459
16713SOL     OW52035   4.256   8.675   9.549
16713SOL    HW152036   4.201   8.750   9.526
16713SOL    HW252037   4.217   8.601   9.503
16714SOL     OW52038   5.944  14.252   7.021
16714SOL    HW152039   5.889  14.312   6.971
16714SOL    HW252040   5.883  14.202   7.075
16715SOL     OW52041  10.702  12.856  11.181
16715SOL    HW152042  10.756  12.912  11.237
16715SOL    HW252043  10.718  12.767  11.214
16716SOL     OW52044  13.734   3.123  11.605
16716SOL    HW152045  13.784   3.166  11.536
16716SOL    HW252046  13.732   3.031  11.579
16717SOL     OW52047   3.348   5.991  13.702
16717SOL    HW152048   3.297   5.973  13.781
16717SOL    HW252049   3.389   5.907  13.681
16718SOL     OW52050  11.521  13.259   4.193
16718SOL    HW152051  11.614  13.273   4.207
16718SOL    HW252052  11.511  13.164   4.185
16719SOL     OW52053   0.273  13.046  10.208
16719SOL    HW152054   0.213  12.972  10.195
16719SOL    HW252055   0.271  13.062  10.302
16720SOL     OW52056   9.052   8.384  10.339
16720SOL    HW152057   8.987   8.446  10.306
16720SOL    HW252058   9.099   8.433  10.407
16721SOL     OW52059   8.023   0.622   3.197
16721SOL    HW152060   8.090   0.573   3.245
16721SOL    HW252061   7.947   0.563   3.194
16722SOL     OW52062   2.498   5.013  10.699
16722SOL    HW152063   2.543   4.967  10.770
16722SOL    HW252064   2.568   5.040  10.640
16723SOL     OW52065  13.554  13.727   4.457
16723SOL    HW152066  13.561  13.716   4.362
16723SOL    HW252067  13.467  13.763   4.471
16724SOL     OW52068   7.143   8.283   3.390
16724SOL    HW152069   7.114   8.332   3.468
16724SOL    HW252070   7.137   8.347   3.319
16725SOL     OW52071  14.735   9.149   0.057
16725SOL    HW152072  14.653   9.176   0.100
16725SOL    HW252073  14.745   9.212  14.873
16726SOL     OW52074  12.860   4.791   7.953
16726SOL    HW152075  12.869   4.828   8.041
16726SOL    HW252076  12.941   4.744   7.938
16727SOL     OW52077   8.477   7.304   9.073
16727SOL    HW152078   8.500   7.326   8.983
16727SOL    HW252079   8.382   7.294   9.072
16728SOL     OW52080   8.684   7.497  14.351
16728SOL    HW152081   8.682   7.440  14.275
16728SOL    HW252082   8.592   7.504  14.379
16729SOL     OW52083   5.274  14.611  11.437
16729SOL    HW152084   5.367  14.604  11.458
16729SOL    HW252085   5.229  14.576  11.514
16730SOL     OW52086  12.886  13.814   1.394
16730SOL    HW152087  12.946  13.886   1.373
16730SOL    HW252088  12.938  13.755   1.449
16731SOL     OW52089   1.820   3.670   6.864
16731SOL    HW152090   1.859   3.592   6.825
16731SOL    HW252091   1.786   3.640   6.948
16732SOL     OW52092   4.296   2.234  13.087
16732SOL    HW152093   4.374   2.225  13.142
16732SOL    HW252094   4.329   2.261  13.002
16733SOL     OW52095   3.825  11.804   7.078
16733SOL    HW152096   3.818  11.756   6.996
16733SOL    HW252097   3.884  11.751   7.132
16734SOL     OW52098   0.167   8.627   6.555
16734SOL    HW152099   0.185   8.717   6.531
16734SOL    HW252100   0.105   8.633   6.628
16735SOL     OW52101   2.212   2.928   7.124
16735SOL    HW152102   2.126   2.952   7.089
16735SOL    HW252103   2.223   2.984   7.201
16736SOL     OW52104   6.802   8.130   8.101
16736SOL    HW152105   6.835   8.216   8.128
16736SOL    HW252106   6.712   8.127   8.135
16737SOL     OW52107   5.110  10.710   0.306
16737SOL    HW152108   5.079  10.677   0.222
16737SOL    HW252109   5.114  10.633   0.362
16738SOL     OW52110   1.436   3.664   8.428
16738SOL    HW152111   1.513   3.648   8.374
16738SOL    HW252112   1.362   3.641   8.372
16739SOL     OW52113   0.405   4.157  13.712
16739SOL    HW152114   0.413   4.068  13.747
16739SOL    HW252115   0.445   4.213  13.778
16740SOL     OW52116  11.228  13.667   1.874
16740SOL    HW152117  11.226  13.621   1.790
16740SOL    HW252118  11.226  13.760   1.850
16741SOL     OW52119   6.398   0.570  11.825
16741SOL    HW152120   6.474   0.531  11.783
16741SOL    HW252121   6.385   0.653  11.780
16742SOL     OW52122   4.148   1.119   0.447
16742SOL    HW152123   4.206   1.155   0.379
16742SOL    HW252124   4.203   1.110   0.524
16743SOL     OW52125   4.642   7.862   8.959
16743SOL    HW152126   4.658   7.819   8.875
16743SOL    HW252127   4.606   7.793   9.015
16744SOL     OW52128  14.601   1.892   2.865
16744SOL    HW152129  14.651   1.891   2.947
16744SOL    HW252130  14.610   1.802   2.831
16745SOL     OW52131   3.487   8.684   8.950
16745SOL    HW152132   3.452   8.620   9.013
16745SOL    HW252133   3.471   8.769   8.991
16746SOL     OW52134   6.864   0.327  12.616
16746SOL    HW152135   6.946   0.289  12.649
16746SOL    HW252136   6.840   0.271  12.542
16747SOL     OW52137  13.558   0.314   4.138
16747SOL    HW152138  13.653   0.319   4.150
16747SOL    HW252139  13.537   0.390   4.082
16748SOL     OW52140   6.289   7.431  10.451
16748SOL    HW152141   6.324   7.362  10.395
16748SOL    HW252142   6.194   7.423  10.444
16749SOL     OW52143   0.808  13.861   8.148
16749SOL    HW152144   0.890  13.817   8.172
16749SOL    HW252145   0.816  13.949   8.186
16750SOL     OW52146   5.657   4.933   2.276
16750SOL    HW152147   5.564   4.912   2.273
16750SOL    HW252148   5.661   5.026   2.299
16751SOL     OW52149   0.408   7.551  11.316
16751SOL    HW152150   0.422   7.543  11.411
16751SOL    HW252151   0.489   7.589  11.283
16752SOL     OW52152   6.207  11.116   7.789
16752SOL    HW152153   6.232  11.056   7.859
16752SOL    HW252154   6.112  11.126   7.799
16753SOL     OW52155   1.974   2.807   7.724
16753SOL    HW152156   1.892   2.828   7.767
16753SOL    HW252157   1.984   2.713   7.735
16754SOL     OW52158   1.606  13.552   7.487
16754SOL    HW152159   1.621  13.644   7.510
16754SOL    HW252160   1.681  13.506   7.525
16755SOL     OW52161  12.241  11.246   0.196
16755SOL    HW152162  12.181  11.281   0.130
16755SOL    HW252163  12.290  11.178   0.149
16756SOL     OW52164   4.100   1.755   1.822
16756SOL    HW152165   4.060   1.811   1.756
16756SOL    HW252166   4.194   1.760   1.805
16757SOL     OW52167   8.385  10.943  11.378
16757SOL    HW152168   8.373  10.859  11.335
16757SOL    HW252169   8.315  10.999  11.343
16758SOL     OW52170   9.165  12.830   1.828
16758SOL    HW152171   9.175  12.735   1.831
16758SOL    HW252172   9.109  12.845   1.752
16759SOL     OW52173   1.913   6.350   2.036
16759SOL    HW152174   1.927   6.402   1.957
16759SOL    HW252175   1.956   6.267   2.018
16760SOL     OW52176   0.854  11.421   7.258
16760SOL    HW152177   0.842  11.410   7.164
16760SOL    HW252178   0.771  11.393   7.297
16761SOL     OW52179   4.611   8.334   3.970
16761SOL    HW152180   4.551   8.333   4.044
16761SOL    HW252181   4.660   8.416   3.980
16762SOL     OW52182  13.504  14.523  11.028
16762SOL    HW152183  13.466  14.494  10.944
16762SOL    HW252184  13.585  14.473  11.035
16763SOL     OW52185   2.330  13.255   6.175
16763SOL    HW152186   2.363  13.290   6.258
16763SOL    HW252187   2.396  13.279   6.111
16764SOL     OW52188  14.428   7.121   4.452
16764SOL    HW152189  14.469   7.208   4.450
16764SOL    HW252190  14.335   7.138   4.465
16765SOL     OW52191  14.322  10.097  14.337
16765SOL    HW152192  14.263  10.147  14.394
16765SOL    HW252193  14.277  10.093  14.253
16766SOL     OW52194  12.994   3.365   3.783
16766SOL    HW152195  12.973   3.290   3.727
16766SOL    HW252196  12.956   3.344   3.868
16767SOL     OW52197   6.858  12.655   5.511
16767SOL    HW152198   6.923  12.688   5.449
16767SOL    HW252199   6.794  12.608   5.457
16768SOL     OW52200  13.539   6.492   0.069
16768SOL    HW152201  13.496   6.571   0.101
16768SOL    HW252202  13.531   6.430   0.141
16769SOL     OW52203   0.700   4.644  14.729
16769SOL    HW152204   0.793   4.661  14.713
16769SOL    HW252205   0.669   4.722  14.774
16770SOL     OW52206   9.076   5.418   7.463
16770SOL    HW152207   9.171   5.421   7.479
16770SOL    HW252208   9.064   5.344   7.403
16771SOL     OW52209  13.176   6.296   3.806
16771SOL    HW152210  13.156   6.203   3.796
16771SOL    HW252211  13.111   6.328   3.869
16772SOL     OW52212   7.105   0.114   0.881
16772SOL    HW152213   7.063   0.047   0.934
16772SOL    HW252214   7.122   0.071   0.797
16773SOL     OW52215   0.108  12.295  10.512
16773SOL    HW152216   0.024  12.252  10.523
16773SOL    HW252217   0.115  12.355  10.586
16774SOL     OW52218   5.408   3.647   1.779
16774SOL    HW152219   5.485   3.647   1.723
16774SOL    HW252220   5.376   3.557   1.777
16775SOL     OW52221  11.948   4.909   5.288
16775SOL    HW152222  12.010   4.908   5.361
16775SOL    HW252223  11.869   4.949   5.324
16776SOL     OW52224   1.497   1.866   0.119
16776SOL    HW152225   1.402   1.864   0.107
16776SOL    HW252226   1.531   1.809   0.050
16777SOL     OW52227  12.847   3.416   8.160
16777SOL    HW152228  12.942   3.422   8.172
16777SOL    HW252229  12.836   3.387   8.070
16778SOL     OW52230   4.904  11.689  11.238
16778SOL    HW152231   4.881  11.781  11.249
16778SOL    HW252232   4.969  11.672  11.305
16779SOL     OW52233  11.566  13.952   9.690
16779SOL    HW152234  11.502  13.945   9.619
16779SOL    HW252235  11.529  13.899   9.761
16780SOL     OW52236   9.472   0.147   0.448
16780SOL    HW152237   9.533   0.139   0.522
16780SOL    HW252238   9.495   0.230   0.407
16781SOL     OW52239   8.883  13.471  11.531
16781SOL    HW152240   8.828  13.513  11.465
16781SOL    HW252241   8.853  13.380  11.532
16782SOL     OW52242   9.779   6.987   4.006
16782SOL    HW152243   9.707   6.988   3.942
16782SOL    HW252244   9.737   6.962   4.088
16783SOL     OW52245   9.049   0.400  12.125
16783SOL    HW152246   8.998   0.481  12.133
16783SOL    HW252247   9.093   0.408  12.040
16784SOL     OW52248   4.607   8.703  12.645
16784SOL    HW152249   4.584   8.636  12.709
16784SOL    HW252250   4.702   8.695  12.635
16785SOL     OW52251   8.407   0.314  11.209
16785SOL    HW152252   8.400   0.255  11.284
16785SOL    HW252253   8.432   0.398  11.247
16786SOL     OW52254   3.489  14.503   6.591
16786SOL    HW152255   3.481  14.596   6.570
16786SOL    HW252256   3.399  14.472   6.601
16787SOL     OW52257  11.129   2.886   5.521
16787SOL    HW152258  11.181   2.967   5.525
16787SOL    HW252259  11.107   2.876   5.429
16788SOL     OW52260   4.931   6.216  11.546
16788SOL    HW152261   4.860   6.163  11.511
16788SOL    HW252262   4.994   6.222  11.475
16789SOL     OW52263   3.435   5.748  13.542
16789SOL    HW152264   3.508   5.783  13.490
16789SOL    HW252265   3.392   5.686  13.484
16790SOL     OW52266  14.655   4.445   1.718
16790SOL    HW152267  14.606   4.471   1.796
16790SOL    HW252268  14.608   4.486   1.645
16791SOL     OW52269   5.956   2.144   4.519
16791SOL    HW152270   5.893   2.193   4.571
16791SOL    HW252271   5.977   2.202   4.445
16792SOL     OW52272   2.532   3.915   5.294
16792SOL    HW152273   2.527   3.952   5.382
16792SOL    HW252274   2.464   3.848   5.293
16793SOL     OW52275   9.081  13.855   6.569
16793SOL    HW152276   9.062  13.764   6.547
16793SOL    HW252277   9.130  13.849   6.652
16794SOL     OW52278  12.576   3.090  10.896
16794SOL    HW152279  12.544   3.038  10.970
16794SOL    HW252280  12.601   3.174  10.935
16795SOL     OW52281   9.426   3.540  12.249
16795SOL    HW152282   9.397   3.508  12.334
16795SOL    HW252283   9.439   3.461  12.197
16796SOL     OW52284   8.920   4.132   1.823
16796SOL    HW152285   8.842   4.122   1.878
16796SOL    HW252286   8.886   4.128   1.733
16797SOL     OW52287   0.257  12.655   0.554
16797SOL    HW152288   0.258  12.560   0.570
16797SOL    HW252289   0.297  12.666   0.469
16798SOL     OW52290   4.094  10.070   7.379
16798SOL    HW152291   4.047  10.147   7.345
16798SOL    HW252292   4.114  10.019   7.300
16799SOL     OW52293   3.887  13.850  11.886
16799SOL    HW152294   3.952  13.914  11.859
16799SOL    HW252295   3.863  13.877  11.975
16800SOL     OW52296  13.980   6.535   6.087
16800SOL    HW152297  13.931   6.477   6.146
16800SOL    HW252298  14.058   6.485   6.064
16801SOL     OW52299   8.861   5.732  13.196
16801SOL    HW152300   8.808   5.664  13.238
16801SOL    HW252301   8.806   5.810  13.198
16802SOL     OW52302  14.886   6.381  12.082
16802SOL    HW152303   0.087   6.363  12.114
16802SOL    HW252304  14.861   6.462  12.127
16803SOL     OW52305  12.208   5.214  11.111
16803SOL    HW152306  12.289   5.228  11.161
16803SOL    HW252307  12.156   5.293  11.129
16804SOL     OW52308  11.952  14.503   8.994
16804SOL    HW152309  11.906  14.556   8.929
16804SOL    HW252310  11.968  14.563   9.067
16805SOL     OW52311   7.097   1.787   1.985
16805SOL    HW152312   7.127   1.697   1.982
16805SOL    HW252313   7.038   1.791   2.061
16806SOL     OW52314  14.258   2.959   9.874
16806SOL    HW152315  14.223   3.030   9.820
16806SOL    HW252316  14.229   2.879   9.830
16807SOL     OW52317   5.919  11.587  13.146
16807SOL    HW152318   6.006  11.548  13.143
16807SOL    HW252319   5.873  11.550  13.070
16808SOL     OW52320  10.705  12.599   4.140
16808SOL    HW152321  10.638  12.554   4.191
16808SOL    HW252322  10.762  12.528   4.109
16809SOL     OW52323   2.873  12.686   1.774
16809SOL    HW152324   2.908  12.762   1.728
16809SOL    HW252325   2.806  12.651   1.715
16810SOL     OW52326  11.153   4.580  10.715
16810SOL    HW152327  11.206   4.645  10.669
16810SOL    HW252328  11.119   4.628  10.791
16811SOL     OW52329  14.749   1.043  10.061
16811SOL    HW152330  14.809   1.100  10.014
16811SOL    HW252331  14.689   1.103  10.106
16812SOL     OW52332  12.261   5.039   3.557
16812SOL    HW152333  12.198   4.993   3.611
16812SOL    HW252334  12.229   5.029   3.468
16813SOL     OW52335  14.823   9.384   0.618
16813SOL    HW152336  14.826   9.406   0.524
16813SOL    HW252337  14.770   9.454   0.657
16814SOL     OW52338   2.109  10.870   0.816
16814SOL    HW152339   2.059  10.888   0.896
16814SOL    HW252340   2.200  10.866   0.846
16815SOL     OW52341   4.870  11.758   8.197
16815SOL    HW152342   4.864  11.670   8.158
16815SOL    HW252343   4.920  11.744   8.278
16816SOL     OW52344   7.718   0.606   1.651
16816SOL    HW152345   7.704   0.513   1.639
16816SOL    HW252346   7.755   0.637   1.568
16817SOL     OW52347  12.435   3.075  10.250
16817SOL    HW152348  12.394   3.081  10.164
16817SOL    HW252349  12.522   3.040  10.233
16818SOL     OW52350  14.378   2.914   9.100
16818SOL    HW152351  14.442   2.923   9.170
16818SOL    HW252352  14.362   2.819   9.093
16819SOL     OW52353   0.692   7.369   6.815
16819SOL    HW152354   0.667   7.347   6.725
16819SOL    HW252355   0.617   7.342   6.868
16820SOL     OW52356   0.562   2.682   8.674
16820SOL    HW152357   0.548   2.763   8.721
16820SOL    HW252358   0.658   2.671   8.674
16821SOL     OW52359   6.950   3.222   6.299
16821SOL    HW152360   6.865   3.218   6.343
16821SOL    HW252361   7.001   3.284   6.352
16822SOL     OW52362   9.755   2.522  13.394
16822SOL    HW152363   9.810   2.573  13.453
16822SOL    HW252364   9.785   2.431  13.407
16823SOL     OW52365  13.897   7.446   0.721
16823SOL    HW152366  13.887   7.354   0.744
16823SOL    HW252367  13.870   7.452   0.630
16824SOL     OW52368  12.147   1.389   4.893
16824SOL    HW152369  12.150   1.472   4.940
16824SOL    HW252370  12.161   1.413   4.801
16825SOL     OW52371  10.331   3.189  11.050
16825SOL    HW152372  10.374   3.156  11.129
16825SOL    HW252373  10.258   3.129  11.036
16826SOL     OW52374   7.481   4.978   4.332
16826SOL    HW152375   7.441   5.043   4.275
16826SOL    HW252376   7.570   5.011   4.347
16827SOL     OW52377   2.101  14.704  14.029
16827SOL    HW152378   2.034  14.746  14.083
16827SOL    HW252379   2.165  14.774  14.011
16828SOL     OW52380  13.181  14.193  10.941
16828SOL    HW152381  13.231  14.241  10.875
16828SOL    HW252382  13.093  14.185  10.903
16829SOL     OW52383  12.126   1.878   6.032
16829SOL    HW152384  12.183   1.823   5.978
16829SOL    HW252385  12.186   1.925   6.089
16830SOL     OW52386   5.542   0.312   2.358
16830SOL    HW152387   5.544   0.238   2.297
16830SOL    HW252388   5.449   0.331   2.370
16831SOL     OW52389   4.567   0.448   7.677
16831SOL    HW152390   4.547   0.541   7.668
16831SOL    HW252391   4.663   0.445   7.685
16832SOL     OW52392   6.507   4.116  11.000
16832SOL    HW152393   6.582   4.114  10.941
16832SOL    HW252394   6.465   4.200  10.982
16833SOL     OW52395  10.508   0.309   7.960
16833SOL    HW152396  10.508   0.349   7.872
16833SOL    HW252397  10.439   0.243   7.956
16834SOL     OW52398   9.808  12.085   5.583
16834SOL    HW152399   9.743  12.106   5.650
16834SOL    HW252400   9.867  12.161   5.581
16835SOL     OW52401  13.400  11.400   5.516
16835SOL    HW152402  13.408  11.466   5.447
16835SOL    HW252403  13.484  11.404   5.563
16836SOL     OW52404   9.028   7.742   7.987
16836SOL    HW152405   8.953   7.801   7.997
16836SOL    HW252406   9.088   7.791   7.929
16837SOL     OW52407   2.120   0.494   2.636
16837SOL    HW152408   2.111   0.531   2.548
16837SOL    HW252409   2.142   0.402   2.622
16838SOL     OW52410   9.794   0.322   0.597
16838SOL    HW152411   9.706   0.324   0.561
16838SOL    HW252412   9.782   0.340   0.691
16839SOL     OW52413  13.932   5.412   8.569
16839SOL    HW152414  13.970   5.345   8.511
16839SOL    HW252415  13.954   5.495   8.526
16840SOL     OW52416  14.676   8.658   7.594
16840SOL    HW152417  14.695   8.688   7.505
16840SOL    HW252418  14.696   8.733   7.650
16841SOL     OW52419   5.679   5.505  13.240
16841SOL    HW152420   5.756   5.448  13.241
16841SOL    HW252421   5.704   5.577  13.181
16842SOL     OW52422   9.119  14.410   9.535
16842SOL    HW152423   9.118  14.403   9.439
16842SOL    HW252424   9.189  14.351   9.562
16843SOL     OW52425   2.718  12.369   9.904
16843SOL    HW152426   2.752  12.297   9.957
16843SOL    HW252427   2.778  12.442   9.920
16844SOL     OW52428   7.620   5.175  13.978
16844SOL    HW152429   7.695   5.116  13.985
16844SOL    HW252430   7.648   5.255  14.022
16845SOL     OW52431   7.113  11.136   6.116
16845SOL    HW152432   7.067  11.110   6.195
16845SOL    HW252433   7.143  11.225   6.135
16846SOL     OW52434   2.499  14.675  13.930
16846SOL    HW152435   2.593  14.679  13.942
16846SOL    HW252436   2.486  14.621  13.852
16847SOL     OW52437   9.276  14.745   7.405
16847SOL    HW152438   9.185  14.749   7.435
16847SOL    HW252439   9.311  14.665   7.445
16848SOL     OW52440   1.883   5.701   0.155
16848SOL    HW152441   1.979   5.707   0.156
16848SOL    HW252442   1.862   5.643   0.228
16849SOL     OW52443  13.098   2.366  12.554
16849SOL    HW152444  13.096   2.290  12.496
16849SOL    HW252445  13.173   2.349  12.612
16850SOL     OW52446  10.992   5.615   7.104
16850SOL    HW152447  10.916   5.567   7.137
16850SOL    HW252448  11.017   5.569   7.024
16851SOL     OW52449   4.810  10.425   7.933
16851SOL    HW152450   4.793  10.354   7.872
16851SOL    HW252451   4.833  10.500   7.878
16852SOL     OW52452   7.175   8.553  10.226
16852SOL    HW152453   7.212   8.626  10.176
16852SOL    HW252454   7.205   8.568  10.316
16853SOL     OW52455   9.994   9.407   5.185
16853SOL    HW152456  10.004   9.485   5.130
16853SOL    HW252457  10.061   9.416   5.252
16854SOL     OW52458   7.041   9.033  10.207
16854SOL    HW152459   6.989   8.957  10.233
16854SOL    HW252460   6.979   9.090  10.160
16855SOL     OW52461  14.717   1.187   7.156
16855SOL    HW152462  14.732   1.275   7.120
16855SOL    HW252463  14.782   1.132   7.113
16856SOL     OW52464   1.772   0.851   4.121
16856SOL    HW152465   1.742   0.917   4.059
16856SOL    HW252466   1.762   0.892   4.207
16857SOL     OW52467  13.438  13.728   8.950
16857SOL    HW152468  13.499  13.666   8.910
16857SOL    HW252469  13.359  13.722   8.895
16858SOL     OW52470   9.619   7.303   2.330
16858SOL    HW152471   9.700   7.352   2.340
16858SOL    HW252472   9.586   7.327   2.244
16859SOL     OW52473  13.942  13.129  14.204
16859SOL    HW152474  13.991  13.064  14.255
16859SOL    HW252475  13.985  13.129  14.119
16860SOL     OW52476   0.583   1.012   8.078
16860SOL    HW152477   0.571   1.097   8.036
16860SOL    HW252478   0.494   0.978   8.089
16861SOL     OW52479   1.412   8.041   1.494
16861SOL    HW152480   1.385   7.956   1.458
16861SOL    HW252481   1.332   8.093   1.496
16862SOL     OW52482  11.536  12.644   3.069
16862SOL    HW152483  11.588  12.704   3.016
16862SOL    HW252484  11.500  12.581   3.007
16863SOL     OW52485   3.969   7.659   9.786
16863SOL    HW152486   3.943   7.604   9.712
16863SOL    HW252487   4.027   7.725   9.748
16864SOL     OW52488   2.966   5.283   9.505
16864SOL    HW152489   2.961   5.320   9.417
16864SOL    HW252490   2.955   5.358   9.564
16865SOL     OW52491   9.487  12.818  14.288
16865SOL    HW152492   9.450  12.899  14.323
16865SOL    HW252493   9.488  12.832  14.193
16866SOL     OW52494  10.014   0.070  14.873
16866SOL    HW152495  10.000   0.044  14.782
16866SOL    HW252496  10.004   0.165  14.872
16867SOL     OW52497   8.635   5.717   8.469
16867SOL    HW152498   8.678   5.762   8.542
16867SOL    HW252499   8.555   5.681   8.506
16868SOL     OW52500   4.254  11.709   5.432
16868SOL    HW152501   4.290  11.796   5.444
16868SOL    HW252502   4.215  11.710   5.345
16869SOL     OW52503  11.872   7.090   9.765
16869SOL    HW152504  11.810   7.125   9.701
16869SOL    HW252505  11.899   7.166   9.816
16870SOL     OW52506   5.810   4.379   1.825
16870SOL    HW152507   5.725   4.418   1.808
16870SOL    HW252508   5.825   4.320   1.751
16871SOL     OW52509  12.643   3.613   2.166
16871SOL    HW152510  12.659   3.691   2.113
16871SOL    HW252511  12.548   3.601   2.163
16872SOL     OW52512   1.912   6.634   9.472
16872SOL    HW152513   1.958   6.705   9.427
16872SOL    HW252514   1.872   6.583   9.401
16873SOL     OW52515   9.369  11.118  13.979
16873SOL    HW152516   9.426  11.151  13.910
16873SOL    HW252517   9.427  11.073  14.039
16874SOL     OW52518   3.099   5.470   0.840
16874SOL    HW152519   3.043   5.546   0.824
16874SOL    HW252520   3.121   5.475   0.933
16875SOL     OW52521   6.042   5.390  14.108
16875SOL    HW152522   6.100   5.466  14.102
16875SOL    HW252523   6.003   5.396  14.195
16876SOL     OW52524   5.553   9.095  12.417
16876SOL    HW152525   5.605   9.113  12.495
16876SOL    HW252526   5.465   9.123  12.439
16877SOL     OW52527   2.501   4.543  10.311
16877SOL    HW152528   2.455   4.480  10.366
16877SOL    HW252529   2.527   4.612  10.372
16878SOL     OW52530   5.850  11.226  11.894
16878SOL    HW152531   5.800  11.189  11.966
16878SOL    HW252532   5.933  11.252  11.934
16879SOL     OW52533  13.738  10.954   3.466
16879SOL    HW152534  13.678  11.008   3.415
16879SOL    HW252535  13.811  11.013   3.486
16880SOL     OW52536  10.689   3.118   6.515
16880SOL    HW152537  10.759   3.062   6.481
16880SOL    HW252538  10.626   3.124   6.442
16881SOL     OW52539   3.624  11.646   9.622
16881SOL    HW152540   3.557  11.602   9.674
16881SOL    HW252541   3.706  11.609   9.653
16882SOL     OW52542  13.216   3.316   4.199
16882SOL    HW152543  13.127   3.296   4.226
16882SOL    HW252544  13.207   3.390   4.138
16883SOL     OW52545   9.213   3.099   5.802
16883SOL    HW152546   9.283   3.072   5.861
16883SOL    HW252547   9.243   3.183   5.766
16884SOL     OW52548  12.420   7.740  10.215
16884SOL    HW152549  12.502   7.781  10.188
16884SOL    HW252550  12.353   7.787  10.165
16885SOL     OW52551  11.873   0.108  11.633
16885SOL    HW152552  11.911   0.183  11.678
16885SOL    HW252553  11.778   0.120  11.643
16886SOL     OW52554   0.565  11.529   2.715
16886SOL    HW152555   0.659  11.524   2.695
16886SOL    HW252556   0.539  11.439   2.733
16887SOL     OW52557   2.901   3.058   2.269
16887SOL    HW152558   2.938   2.977   2.235
16887SOL    HW252559   2.928   3.125   2.207
16888SOL     OW52560   5.659   9.877   6.688
16888SOL    HW152561   5.688   9.833   6.768
16888SOL    HW252562   5.714   9.841   6.619
16889SOL     OW52563  10.529   6.938   7.983
16889SOL    HW152564  10.558   7.028   7.969
16889SOL    HW252565  10.444   6.933   7.940
16890SOL     OW52566  10.615   8.103  11.646
16890SOL    HW152567  10.691   8.067  11.600
16890SOL    HW252568  10.618   8.063  11.733
16891SOL     OW52569   6.802   8.738  12.836
16891SOL    HW152570   6.890   8.755  12.802
16891SOL    HW252571   6.768   8.825  12.859
16892SOL     OW52572  13.216   9.184  11.220
16892SOL    HW152573  13.300   9.176  11.176
16892SOL    HW252574  13.186   9.093  11.232
16893SOL     OW52575   2.794   9.014   7.214
16893SOL    HW152576   2.719   9.012   7.156
16893SOL    HW252577   2.763   8.972   7.295
16894SOL     OW52578   9.842   7.955  11.665
16894SOL    HW152579   9.907   8.025  11.654
16894SOL    HW252580   9.893   7.874  11.658
16895SOL     OW52581   3.968   8.000   5.187
16895SOL    HW152582   4.033   7.973   5.253
16895SOL    HW252583   3.942   8.088   5.215
16896SOL     OW52584   6.390   8.600   1.661
16896SOL    HW152585   6.328   8.619   1.591
16896SOL    HW252586   6.455   8.543   1.620
16897SOL     OW52587   5.752   1.404   3.953
16897SOL    HW152588   5.711   1.468   3.895
16897SOL    HW252589   5.762   1.326   3.898
16898SOL     OW52590   1.211   5.433  13.237
16898SOL    HW152591   1.214   5.511  13.181
16898SOL    HW252592   1.213   5.468  13.326
16899SOL     OW52593  14.240  10.262   2.478
16899SOL    HW152594  14.151  10.258   2.441
16899SOL    HW252595  14.272  10.349   2.454
16900SOL     OW52596   8.965   5.757   2.665
16900SOL    HW152597   9.017   5.779   2.742
16900SOL    HW252598   8.877   5.791   2.685
16901SOL     OW52599   6.366  12.059   9.167
16901SOL    HW152600   6.381  12.153   9.162
16901SOL    HW252601   6.452  12.020   9.149
16902SOL     OW52602   4.324   0.684   5.605
16902SOL    HW152603   4.346   0.636   5.685
16902SOL    HW252604   4.294   0.617   5.544
16903SOL     OW52605  10.252   8.814   6.411
16903SOL    HW152606  10.185   8.806   6.478
16903SOL    HW252607  10.203   8.823   6.329
16904SOL     OW52608  12.719   2.340   9.797
16904SOL    HW152609  12.695   2.411   9.856
16904SOL    HW252610  12.762   2.384   9.723
16905SOL     OW52611   6.307   0.706   4.299
16905SOL    HW152612   6.303   0.779   4.237
16905SOL    HW252613   6.268   0.740   4.379
16906SOL     OW52614   6.142   4.821   4.873
16906SOL    HW152615   6.186   4.737   4.882
16906SOL    HW252616   6.213   4.885   4.864
16907SOL     OW52617  14.231   8.809   0.051
16907SOL    HW152618  14.264   8.848   0.131
16907SOL    HW252619  14.185   8.880   0.006
16908SOL     OW52620   3.548   1.499  12.869
16908SOL    HW152621   3.545   1.460  12.956
16908SOL    HW252622   3.474   1.560  12.868
16909SOL     OW52623  14.514   4.808   4.191
16909SOL    HW152624  14.563   4.888   4.211
16909SOL    HW252625  14.519   4.799   4.096
16910SOL     OW52626  14.273  13.001  12.179
16910SOL    HW152627  14.308  13.066  12.119
16910SOL    HW252628  14.194  12.969  12.136
16911SOL     OW52629  11.518   1.007  11.769
16911SOL    HW152630  11.559   0.925  11.743
16911SOL    HW252631  11.489   1.047  11.687
16912SOL     OW52632   7.152   6.124   6.256
16912SOL    HW152633   7.168   6.217   6.238
16912SOL    HW252634   7.079   6.124   6.317
16913SOL     OW52635   5.292   4.040  13.138
16913SOL    HW152636   5.287   3.979  13.065
16913SOL    HW252637   5.202   4.070  13.150
16914SOL     OW52638   4.682   3.821   5.533
16914SOL    HW152639   4.756   3.760   5.533
16914SOL    HW252640   4.681   3.858   5.445
16915SOL     OW52641   8.692  14.650  10.517
16915SOL    HW152642   8.640  14.625  10.441
16915SOL    HW252643   8.628  14.683  10.580
16916SOL     OW52644   5.908  12.240   8.778
16916SOL    HW152645   5.954  12.291   8.711
16916SOL    HW252646   5.929  12.149   8.758
16917SOL     OW52647   1.087  12.672   7.190
16917SOL    HW152648   1.105  12.710   7.276
16917SOL    HW252649   1.085  12.577   7.205
16918SOL     OW52650  12.308  10.521   6.303
16918SOL    HW152651  12.254  10.527   6.382
16918SOL    HW252652  12.261  10.573   6.238
16919SOL     OW52653   0.116  12.065   4.015
16919SOL    HW152654   0.125  12.155   4.046
16919SOL    HW252655   0.200  12.024   4.032
16920SOL     OW52656  14.618   4.124  12.527
16920SOL    HW152657  14.702   4.169  12.519
16920SOL    HW252658  14.558   4.174  12.472
16921SOL     OW52659  12.505   1.952   6.015
16921SOL    HW152660  12.512   1.861   6.044
16921SOL    HW252661  12.596   1.981   6.005
16922SOL     OW52662   3.798  13.284   9.010
16922SOL    HW152663   3.865  13.333   8.962
16922SOL    HW252664   3.831  13.195   9.014
16923SOL     OW52665   6.316  12.424  12.808
16923SOL    HW152666   6.316  12.475  12.889
16923SOL    HW252667   6.319  12.491  12.739
16924SOL     OW52668   2.225  14.363  12.261
16924SOL    HW152669   2.219  14.338  12.169
16924SOL    HW252670   2.139  14.344  12.297
16925SOL     OW52671   7.098   5.058  11.691
16925SOL    HW152672   7.075   5.011  11.611
16925SOL    HW252673   7.187   5.029  11.712
16926SOL     OW52674   9.489  13.355  10.526
16926SOL    HW152675   9.499  13.263  10.552
16926SOL    HW252676   9.578  13.383  10.504
16927SOL     OW52677  11.328  13.780   2.677
16927SOL    HW152678  11.260  13.843   2.702
16927SOL    HW252679  11.410  13.821   2.706
16928SOL     OW52680   8.074   7.635   6.966
16928SOL    HW152681   8.165   7.609   6.949
16928SOL    HW252682   8.081   7.723   7.002
16929SOL     OW52683   4.989   3.648  11.419
16929SOL    HW152684   5.060   3.599  11.379
16929SOL    HW252685   4.912   3.627  11.367
16930SOL     OW52686   4.154  14.671   8.875
16930SOL    HW152687   4.114  14.749   8.835
16930SOL    HW252688   4.245  14.674   8.846
16931SOL     OW52689   5.805   1.770   0.645
16931SOL    HW152690   5.855   1.774   0.563
16931SOL    HW252691   5.731   1.830   0.630
16932SOL     OW52692  14.248  10.258   2.180
16932SOL    HW152693  14.340  10.238   2.201
16932SOL    HW252694  14.197  10.206   2.242
16933SOL     OW52695   6.417  10.265  10.638
16933SOL    HW152696   6.349  10.270  10.705
16933SOL    HW252697   6.370  10.274  10.556
16934SOL     OW52698   2.520  12.925   7.193
16934SOL    HW152699   2.601  12.977   7.188
16934SOL    HW252700   2.502  12.899   7.103
16935SOL     OW52701   9.343   3.635  12.007
16935SOL    HW152702   9.375   3.634  12.097
16935SOL    HW252703   9.371   3.720  11.972
16936SOL     OW52704   9.237   8.402   4.950
16936SOL    HW152705   9.142   8.392   4.948
16936SOL    HW252706   9.251   8.497   4.954
16937SOL     OW52707   1.322  14.711   4.640
16937SOL    HW152708   1.292  14.637   4.589
16937SOL    HW252709   1.351  14.673   4.723
16938SOL     OW52710   5.946   5.449   6.738
16938SOL    HW152711   5.866   5.434   6.688
16938SOL    HW252712   5.990   5.364   6.742
16939SOL     OW52713   1.802  12.083   8.062
16939SOL    HW152714   1.849  12.007   8.097
16939SOL    HW252715   1.859  12.158   8.079
16940SOL     OW52716   1.989   6.783   6.097
16940SOL    HW152717   2.046   6.790   6.020
16940SOL    HW252718   1.931   6.710   6.076
16941SOL     OW52719  13.359  14.189   0.904
16941SOL    HW152720  13.324  14.108   0.867
16941SOL    HW252721  13.287  14.252   0.896
16942SOL     OW52722   4.152   9.967   9.405
16942SOL    HW152723   4.127  10.059   9.398
16942SOL    HW252724   4.205   9.951   9.327
16943SOL     OW52725   7.387   6.871  13.221
16943SOL    HW152726   7.320   6.897  13.285
16943SOL    HW252727   7.349   6.895  13.136
16944SOL     OW52728   7.807   2.287  12.890
16944SOL    HW152729   7.769   2.367  12.927
16944SOL    HW252730   7.883   2.318  12.841
16945SOL     OW52731  10.565   3.473   0.403
16945SOL    HW152732  10.612   3.435   0.328
16945SOL    HW252733  10.474   3.445   0.392
16946SOL     OW52734  13.285   1.252   9.584
16946SOL    HW152735  13.251   1.326   9.634
16946SOL    HW252736  13.225   1.243   9.510
16947SOL     OW52737   8.690   0.209  12.349
16947SOL    HW152738   8.647   0.294  12.342
16947SOL    HW252739   8.771   0.219  12.299
16948SOL     OW52740  11.199   6.740  10.185
16948SOL    HW152741  11.190   6.645  10.189
16948SOL    HW252742  11.132   6.773  10.245
16949SOL     OW52743   9.431   3.001   8.969
16949SOL    HW152744   9.462   3.001   9.060
16949SOL    HW252745   9.434   3.093   8.942
16950SOL     OW52746   3.621   9.794  12.000
16950SOL    HW152747   3.569   9.766  11.925
16950SOL    HW252748   3.675   9.717  12.022
16951SOL     OW52749  13.247  11.173   0.557
16951SOL    HW152750  13.333  11.212   0.567
16951SOL    HW252751  13.218  11.202   0.470
16952SOL     OW52752   1.136   4.177   0.150
16952SOL    HW152753   1.071   4.174   0.220
16952SOL    HW252754   1.217   4.149   0.191
16953SOL     OW52755  12.674   1.185   9.398
16953SOL    HW152756  12.737   1.130   9.443
16953SOL    HW252757  12.683   1.162   9.305
16954SOL     OW52758   7.890   9.758  14.095
16954SOL    HW152759   7.816   9.699  14.110
16954SOL    HW252760   7.903   9.803  14.178
16955SOL     OW52761   1.126   8.352  10.201
16955SOL    HW152762   1.166   8.271  10.171
16955SOL    HW252763   1.032   8.339  10.188
16956SOL     OW52764  14.608   6.198   9.316
16956SOL    HW152765  14.669   6.231   9.383
16956SOL    HW252766  14.541   6.151   9.366
16957SOL     OW52767   3.112   8.661   5.447
16957SOL    HW152768   3.204   8.667   5.474
16957SOL    HW252769   3.115   8.611   5.365
16958SOL     OW52770  13.564   1.160  12.871
16958SOL    HW152771  13.502   1.232  12.864
16958SOL    HW252772  13.557   1.132  12.963
16959SOL     OW52773  14.759   2.469  10.100
16959SOL    HW152774  14.795   2.442  10.185
16959SOL    HW252775  14.827   2.524  10.062
16960SOL     OW52776   0.547   2.333   7.939
16960SOL    HW152777   0.595   2.402   7.986
16960SOL    HW252778   0.616   2.279   7.900
16961SOL     OW52779   0.082   4.331   3.128
16961SOL    HW152780   0.056   4.307   3.217
16961SOL    HW252781   0.012   4.297   3.072
16962SOL     OW52782  12.505  10.559   6.868
16962SOL    HW152783  12.436  10.574   6.803
16962SOL    HW252784  12.531  10.647   6.896
16963SOL     OW52785   2.580  11.905  12.537
16963SOL    HW152786   2.552  11.908  12.629
16963SOL    HW252787   2.570  11.813  12.512
16964SOL     OW52788   6.508   5.442  11.350
16964SOL    HW152789   6.499   5.347  11.343
16964SOL    HW252790   6.584   5.463  11.296
16965SOL     OW52791  10.186   2.037   0.578
16965SOL    HW152792  10.116   1.972   0.571
16965SOL    HW252793  10.156   2.112   0.528
16966SOL     OW52794  11.390   4.952   2.234
16966SOL    HW152795  11.337   4.937   2.312
16966SOL    HW252796  11.327   4.962   2.163
16967SOL     OW52797  10.593  10.353   6.753
16967SOL    HW152798  10.562  10.398   6.832
16967SOL    HW252799  10.516  10.343   6.698
16968SOL     OW52800   8.925   4.823  10.518
16968SOL    HW152801   8.922   4.736  10.481
16968SOL    HW252802   8.837   4.858  10.507
16969SOL     OW52803  14.836   8.656   6.730
16969SOL    HW152804  14.832   8.563   6.749
16969SOL    HW252805  14.845   8.698   6.815
16970SOL     OW52806  13.065   7.906  14.174
16970SOL    HW152807  13.089   7.990  14.137
16970SOL    HW252808  13.045   7.851  14.098
16971SOL     OW52809  10.139   6.170   9.323
16971SOL    HW152810  10.132   6.256   9.281
16971SOL    HW252811  10.150   6.189   9.416
16972SOL     OW52812   0.361  14.051   0.598
16972SOL    HW152813   0.421  14.115   0.636
16972SOL    HW252814   0.416  13.974   0.580
16973SOL     OW52815  10.273  11.721   9.542
16973SOL    HW152816  10.181  11.694   9.541
16973SOL    HW252817  10.313  11.673   9.470
16974SOL     OW52818  13.882   3.350   3.806
16974SOL    HW152819  13.880   3.280   3.740
16974SOL    HW252820  13.833   3.422   3.766
16975SOL     OW52821   3.410   1.883   6.868
16975SOL    HW152822   3.491   1.852   6.827
16975SOL    HW252823   3.440   1.935   6.943
16976SOL     OW52824   1.950  14.823   2.693
16976SOL    HW152825   1.906  14.837   2.609
16976SOL    HW252826   1.887  14.774   2.745
16977SOL     OW52827   9.541  14.286   9.304
16977SOL    HW152828   9.569  14.195   9.303
16977SOL    HW252829   9.501  14.299   9.218
16978SOL     OW52830   5.206   9.128  14.326
16978SOL    HW152831   5.138   9.062  14.312
16978SOL    HW252832   5.284   9.092  14.282
16979SOL     OW52833  12.782   4.266   9.775
16979SOL    HW152834  12.854   4.204   9.762
16979SOL    HW252835  12.729   4.226   9.844
16980SOL     OW52836  12.126   2.699   6.423
16980SOL    HW152837  12.171   2.764   6.477
16980SOL    HW252838  12.170   2.706   6.337
16981SOL     OW52839  12.325   2.718  14.144
16981SOL    HW152840  12.331   2.731  14.049
16981SOL    HW252841  12.387   2.781  14.180
16982SOL     OW52842  10.936   0.194  11.576
16982SOL    HW152843  10.841   0.181  11.576
16982SOL    HW252844  10.971   0.113  11.612
16983SOL     OW52845  10.253   1.126   7.838
16983SOL    HW152846  10.227   1.040   7.872
16983SOL    HW252847  10.172   1.164   7.805
16984SOL     OW52848  12.914   9.432  12.979
16984SOL    HW152849  12.822   9.408  12.967
16984SOL    HW252850  12.936   9.398  13.066
16985SOL     OW52851  13.683   5.784   6.480
16985SOL    HW152852  13.714   5.695   6.463
16985SOL    HW252853  13.733   5.839   6.419
16986SOL     OW52854   4.868  10.351  11.442
16986SOL    HW152855   4.820  10.386  11.367
16986SOL    HW252856   4.896  10.428  11.491
16987SOL     OW52857  14.422   2.698  11.731
16987SOL    HW152858  14.344   2.702  11.676
16987SOL    HW252859  14.397   2.643  11.805
16988SOL     OW52860  14.314  11.131  12.442
16988SOL    HW152861  14.366  11.172  12.372
16988SOL    HW252862  14.371  11.063  12.477
16989SOL     OW52863   9.925   6.923  12.782
16989SOL    HW152864   9.980   6.984  12.831
16989SOL    HW252865   9.939   6.945  12.690
16990SOL     OW52866  11.815   5.965   1.412
16990SOL    HW152867  11.784   6.022   1.341
16990SOL    HW252868  11.905   5.994   1.428
16991SOL     OW52869   0.820   9.690   0.398
16991SOL    HW152870   0.777   9.728   0.475
16991SOL    HW252871   0.749   9.671   0.337
16992SOL     OW52872  13.842  12.967   3.067
16992SOL    HW152873  13.828  13.060   3.084
16992SOL    HW252874  13.929  12.949   3.100
16993SOL     OW52875   7.087   7.288   0.218
16993SOL    HW152876   7.037   7.239   0.152
16993SOL    HW252877   7.019   7.327   0.274
16994SOL     OW52878   8.401   6.564   8.987
16994SOL    HW152879   8.392   6.470   8.971
16994SOL    HW252880   8.487   6.573   9.030
16995SOL     OW52881  10.864   3.516   7.693
16995SOL    HW152882  10.873   3.608   7.716
16995SOL    HW252883  10.940   3.473   7.732
16996SOL     OW52884   3.518  11.314   3.357
16996SOL    HW152885   3.610  11.320   3.331
16996SOL    HW252886   3.487  11.405   3.357
16997SOL     OW52887   3.785   6.058   4.037
16997SOL    HW152888   3.703   6.092   4.073
16997SOL    HW252889   3.816   5.995   4.101
16998SOL     OW52890   4.762  11.521  12.870
16998SOL    HW152891   4.673  11.493  12.892
16998SOL    HW252892   4.818  11.456  12.911
16999SOL     OW52893   8.223   1.751   3.216
16999SOL    HW152894   8.173   1.830   3.200
16999SOL    HW252895   8.294   1.753   3.151
17000SOL     OW52896   7.748   4.655   5.967
17000SOL    HW152897   7.730   4.708   5.889
17000SOL    HW252898   7.703   4.572   5.950
17001SOL     OW52899  11.192   4.908   2.022
17001SOL    HW152900  11.120   4.857   1.985
17001SOL    HW252901  11.266   4.893   1.963
17002SOL     OW52902   2.403  14.353   5.623
17002SOL    HW152903   2.476  14.363   5.562
17002SOL    HW252904   2.325  14.356   5.569
17003SOL     OW52905  11.247  11.074  14.535
17003SOL    HW152906  11.289  10.992  14.508
17003SOL    HW252907  11.305  11.143  14.503
17004SOL     OW52908  10.870   2.473   7.093
17004SOL    HW152909  10.910   2.390   7.118
17004SOL    HW252910  10.825   2.454   7.010
17005SOL     OW52911  12.853   1.993   6.290
17005SOL    HW152912  12.944   1.994   6.319
17005SOL    HW252913  12.805   2.043   6.355
17006SOL     OW52914   2.026  11.992  14.051
17006SOL    HW152915   2.078  12.019  14.127
17006SOL    HW252916   2.015  11.898  14.062
17007SOL     OW52917  14.562  11.149   5.040
17007SOL    HW152918  14.498  11.130   5.109
17007SOL    HW252919  14.623  11.076   5.042
17008SOL     OW52920   4.201   8.534   2.967
17008SOL    HW152921   4.232   8.624   2.979
17008SOL    HW252922   4.213   8.517   2.874
17009SOL     OW52923   8.416   3.442   0.688
17009SOL    HW152924   8.438   3.431   0.780
17009SOL    HW252925   8.473   3.514   0.659
17010SOL     OW52926   4.649  12.333   3.727
17010SOL    HW152927   4.563  12.373   3.742
17010SOL    HW252928   4.641  12.245   3.764
17011SOL     OW52929  10.285   4.374  11.422
17011SOL    HW152930  10.348   4.333  11.481
17011SOL    HW252931  10.219   4.306  11.406
17012SOL     OW52932  11.618   5.642   3.844
17012SOL    HW152933  11.559   5.631   3.918
17012SOL    HW252934  11.590   5.724   3.803
17013SOL     OW52935   0.682   6.782   3.924
17013SOL    HW152936   0.603   6.809   3.877
17013SOL    HW252937   0.667   6.689   3.944
17014SOL     OW52938   4.429  12.272   1.448
17014SOL    HW152939   4.472  12.233   1.524
17014SOL    HW252940   4.466  12.360   1.442
17015SOL     OW52941   2.533  11.683  11.267
17015SOL    HW152942   2.547  11.701  11.174
17015SOL    HW252943   2.521  11.588  11.272
17016SOL     OW52944   5.211  13.598   8.143
17016SOL    HW152945   5.268  13.623   8.069
17016SOL    HW252946   5.159  13.676   8.161
17017SOL     OW52947   7.809  11.218   6.716
17017SOL    HW152948   7.755  11.298   6.720
17017SOL    HW252949   7.808  11.184   6.805
17018SOL     OW52950   1.844  13.969   7.688
17018SOL    HW152951   1.812  14.016   7.766
17018SOL    HW252952   1.787  13.892   7.682
17019SOL     OW52953   1.762   8.975   3.447
17019SOL    HW152954   1.669   8.997   3.444
17019SOL    HW252955   1.764   8.886   3.483
17020SOL     OW52956  11.197   3.766  12.224
17020SOL    HW152957  11.112   3.796  12.192
17020SOL    HW252958  11.243   3.847  12.246
17021SOL     OW52959  14.692  11.351   4.867
17021SOL    HW152960  14.660  11.264   4.889
17021SOL    HW252961  14.618  11.394   4.824
17022SOL     OW52962   8.803   7.143   2.677
17022SOL    HW152963   8.718   7.153   2.636
17022SOL    HW252964   8.851   7.223   2.653
17023SOL     OW52965  13.756   1.683   3.640
17023SOL    HW152966  13.793   1.753   3.587
17023SOL    HW252967  13.681   1.652   3.590
17024SOL     OW52968   2.500   8.415   9.022
17024SOL    HW152969   2.581   8.364   9.017
17024SOL    HW252970   2.501   8.468   8.942
17025SOL     OW52971  12.423   6.036   1.121
17025SOL    HW152972  12.337   5.996   1.105
17025SOL    HW252973  12.416   6.124   1.084
17026SOL     OW52974   8.228  13.823   0.585
17026SOL    HW152975   8.193  13.892   0.642
17026SOL    HW252976   8.153  13.766   0.568
17027SOL     OW52977   6.616   3.476  10.023
17027SOL    HW152978   6.672   3.541   9.980
17027SOL    HW252979   6.678   3.411  10.058
17028SOL     OW52980   0.204  14.410   0.606
17028SOL    HW152981   0.216  14.499   0.641
17028SOL    HW252982   0.187  14.423   0.513
17029SOL     OW52983  10.162  12.297  13.242
17029SOL    HW152984  10.074  12.289  13.205
17029SOL    HW252985  10.185  12.390  13.231
17030SOL     OW52986   4.963   9.199   1.763
17030SOL    HW152987   5.058   9.205   1.758
17030SOL    HW252988   4.940   9.234   1.849
17031SOL     OW52989  13.389  12.192   8.904
17031SOL    HW152990  13.431  12.255   8.963
17031SOL    HW252991  13.297  12.193   8.930
17032SOL     OW52992   8.624  10.868  11.700
17032SOL    HW152993   8.646  10.832  11.786
17032SOL    HW252994   8.612  10.962  11.717
17033SOL     OW52995   4.790  11.672   6.189
17033SOL    HW152996   4.733  11.617   6.134
17033SOL    HW252997   4.851  11.712   6.127
17034SOL     OW52998  13.876   4.851   7.226
17034SOL    HW152999  13.837   4.938   7.234
17034SOL    HW253000  13.829   4.811   7.153
17035SOL     OW53001   4.047   0.672  12.156
17035SOL    HW153002   4.136   0.691  12.184
17035SOL    HW253003   4.057   0.635  12.068
17036SOL     OW53004   9.016   4.398   9.917
17036SOL    HW153005   9.070   4.361   9.986
17036SOL    HW253006   9.076   4.451   9.865
17037SOL     OW53007   2.540   6.604  13.055
17037SOL    HW153008   2.478   6.672  13.028
17037SOL    HW253009   2.622   6.629  13.014
17038SOL     OW53010  12.811  13.064   6.171
17038SOL    HW153011  12.837  13.031   6.086
17038SOL    HW253012  12.827  13.159   6.166
17039SOL     OW53013  13.403  14.268  13.620
17039SOL    HW153014  13.388  14.334  13.687
17039SOL    HW253015  13.346  14.195  13.645
17040SOL     OW53016   3.433   6.120  10.839
17040SOL    HW153017   3.436   6.196  10.781
17040SOL    HW253018   3.484   6.053  10.794
17041SOL     OW53019   5.847   2.190   8.128
17041SOL    HW153020   5.774   2.170   8.186
17041SOL    HW253021   5.833   2.134   8.052
17042SOL     OW53022   3.166   7.350   9.351
17042SOL    HW153023   3.179   7.404   9.429
17042SOL    HW253024   3.194   7.406   9.278
17043SOL     OW53025   0.520   8.833  12.793
17043SOL    HW153026   0.496   8.889  12.867
17043SOL    HW253027   0.578   8.888  12.740
17044SOL     OW53028   8.656   6.287   5.888
17044SOL    HW153029   8.592   6.354   5.865
17044SOL    HW253030   8.629   6.210   5.839
17045SOL     OW53031  10.464  10.074   6.967
17045SOL    HW153032  10.512  10.096   7.047
17045SOL    HW253033  10.533  10.051   6.904
17046SOL     OW53034  10.303   1.535   0.769
17046SOL    HW153035  10.314   1.628   0.748
17046SOL    HW253036  10.347   1.489   0.698
17047SOL     OW53037   8.745  13.598  13.703
17047SOL    HW153038   8.674  13.622  13.642
17047SOL    HW253039   8.700  13.572  13.783
17048SOL     OW53040   3.180   6.944  13.464
17048SOL    HW153041   3.158   6.881  13.532
17048SOL    HW253042   3.220   6.891  13.395
17049SOL     OW53043   4.573   6.712   7.513
17049SOL    HW153044   4.489   6.730   7.555
17049SOL    HW253045   4.587   6.787   7.455
17050SOL     OW53046   9.684   7.589   1.353
17050SOL    HW153047   9.728   7.665   1.391
17050SOL    HW253048   9.738   7.564   1.278
17051SOL     OW53049   2.594   7.922  13.791
17051SOL    HW153050   2.522   7.959  13.740
17051SOL    HW253051   2.639   7.864  13.730
17052SOL     OW53052   0.793   0.151   7.461
17052SOL    HW153053   0.845   0.190   7.390
17052SOL    HW253054   0.788   0.219   7.528
17053SOL     OW53055   4.345  13.767   1.057
17053SOL    HW153056   4.392  13.829   1.002
17053SOL    HW253057   4.330  13.814   1.140
17054SOL     OW53058   7.887   3.068   1.719
17054SOL    HW153059   7.863   3.127   1.790
17054SOL    HW253060   7.958   3.014   1.754
17055SOL     OW53061  11.707  12.037   9.149
17055SOL    HW153062  11.681  12.052   9.058
17055SOL    HW253063  11.646  11.971   9.180
17056SOL     OW53064   9.020  11.286   4.968
17056SOL    HW153065   8.962  11.226   4.921
17056SOL    HW253066   9.040  11.355   4.904
17057SOL     OW53067   4.195   2.751   7.789
17057SOL    HW153068   4.109   2.783   7.817
17057SOL    HW253069   4.214   2.800   7.709
17058SOL     OW53070  10.537   4.876   8.475
17058SOL    HW153071  10.528   4.865   8.380
17058SOL    HW253072  10.458   4.924   8.501
17059SOL     OW53073   5.902   5.717   3.409
17059SOL    HW153074   5.887   5.692   3.318
17059SOL    HW253075   5.878   5.810   3.412
17060SOL     OW53076   9.634  11.350   8.820
17060SOL    HW153077   9.700  11.417   8.801
17060SOL    HW253078   9.556  11.400   8.845
17061SOL     OW53079   9.969   6.055   1.659
17061SOL    HW153080  10.042   6.043   1.598
17061SOL    HW253081   9.959   5.969   1.700
17062SOL     OW53082   5.412   0.083   1.854
17062SOL    HW153083   5.501   0.096   1.888
17062SOL    HW253084   5.407  14.877   1.835
17063SOL     OW53085  10.541   7.307   8.116
17063SOL    HW153086  10.555   7.280   8.207
17063SOL    HW253087  10.585   7.239   8.065
17064SOL     OW53088   1.645  13.213   3.841
17064SOL    HW153089   1.627  13.232   3.749
17064SOL    HW253090   1.725  13.160   3.840
17065SOL     OW53091   1.092   6.714   5.295
17065SOL    HW153092   1.011   6.734   5.341
17065SOL    HW253093   1.154   6.691   5.365
17066SOL     OW53094   1.000  14.664   4.158
17066SOL    HW153095   0.989  14.688   4.066
17066SOL    HW253096   0.912  14.669   4.195
17067SOL     OW53097   4.284  11.312   9.273
17067SOL    HW153098   4.193  11.311   9.246
17067SOL    HW253099   4.320  11.229   9.240
17068SOL     OW53100   8.243   4.954   5.157
17068SOL    HW153101   8.274   5.044   5.145
17068SOL    HW253102   8.165   4.948   5.101
17069SOL     OW53103  14.255   1.249  13.567
17069SOL    HW153104  14.334   1.238  13.619
17069SOL    HW253105  14.245   1.344  13.558
17070SOL     OW53106   6.582   1.688   6.452
17070SOL    HW153107   6.524   1.615   6.472
17070SOL    HW253108   6.631   1.659   6.374
17071SOL     OW53109  10.389   2.252  11.682
17071SOL    HW153110  10.316   2.277  11.626
17071SOL    HW253111  10.382   2.157  11.692
17072SOL     OW53112   8.309   1.966   0.461
17072SOL    HW153113   8.289   2.045   0.410
17072SOL    HW253114   8.301   1.895   0.398
17073SOL     OW53115  12.744  12.562   3.681
17073SOL    HW153116  12.838  12.544   3.684
17073SOL    HW253117  12.728  12.588   3.590
17074SOL     OW53118   8.262   8.539   9.264
17074SOL    HW153119   8.330   8.509   9.203
17074SOL    HW253120   8.284   8.497   9.347
17075SOL     OW53121  10.608   1.303   1.590
17075SOL    HW153122  10.657   1.362   1.533
17075SOL    HW253123  10.607   1.220   1.543
17076SOL     OW53124   9.585   8.046  13.539
17076SOL    HW153125   9.585   8.021  13.446
17076SOL    HW253126   9.494   8.034  13.566
17077SOL     OW53127   7.755   3.018  14.758
17077SOL    HW153128   7.728   3.090  14.701
17077SOL    HW253129   7.778   2.947  14.698
17078SOL     OW53130   0.956   1.201   7.183
17078SOL    HW153131   0.916   1.248   7.255
17078SOL    HW253132   0.904   1.225   7.106
17079SOL     OW53133  10.137   5.418  12.677
17079SOL    HW153134  10.167   5.427  12.768
17079SOL    HW253135  10.053   5.371  12.685
17080SOL     OW53136   6.896   0.725  13.590
17080SOL    HW153137   6.852   0.806  13.568
17080SOL    HW253138   6.946   0.745  13.670
17081SOL     OW53139   4.549   4.527   8.986
17081SOL    HW153140   4.553   4.566   9.073
17081SOL    HW253141   4.628   4.473   8.981
17082SOL     OW53142   9.662  13.029   9.717
17082SOL    HW153143   9.653  13.074   9.633
17082SOL    HW253144   9.693  13.097   9.778
17083SOL     OW53145   5.995  10.312  11.355
17083SOL    HW153146   5.910  10.325  11.397
17083SOL    HW253147   6.058  10.317  11.426
17084SOL     OW53148  12.477  10.954  13.817
17084SOL    HW153149  12.507  10.876  13.864
17084SOL    HW253150  12.555  11.008  13.808
17085SOL     OW53151   0.658   3.585   8.993
17085SOL    HW153152   0.613   3.607   9.075
17085SOL    HW253153   0.749   3.571   9.019
17086SOL     OW53154  13.823  11.898   1.929
17086SOL    HW153155  13.757  11.960   1.961
17086SOL    HW253156  13.792  11.813   1.957
17087SOL     OW53157  12.413   8.877   9.015
17087SOL    HW153158  12.398   8.787   9.044
17087SOL    HW253159  12.474   8.912   9.080
17088SOL     OW53160  12.681   9.562   9.519
17088SOL    HW153161  12.621   9.636   9.533
17088SOL    HW253162  12.667   9.537   9.428
17089SOL     OW53163   3.013   8.929   6.230
17089SOL    HW153164   3.090   8.874   6.214
17089SOL    HW253165   3.037   8.984   6.303
17090SOL     OW53166   0.627   5.335   9.426
17090SOL    HW153167   0.693   5.402   9.442
17090SOL    HW253168   0.590   5.357   9.341
17091SOL     OW53169  12.760   7.771   6.321
17091SOL    HW153170  12.699   7.698   6.327
17091SOL    HW253171  12.714   7.837   6.269
17092SOL     OW53172   6.218  10.029   0.634
17092SOL    HW153173   6.127  10.025   0.665
17092SOL    HW253174   6.269   9.986   0.702
17093SOL     OW53175  12.683  14.750   8.346
17093SOL    HW153176  12.742  14.695   8.397
17093SOL    HW253177  12.725  14.836   8.343
17094SOL     OW53178   0.174   5.622   6.532
17094SOL    HW153179   0.220   5.556   6.585
17094SOL    HW253180   0.114   5.664   6.594
17095SOL     OW53181   2.145   9.204   6.246
17095SOL    HW153182   2.086   9.225   6.173
17095SOL    HW253183   2.088   9.202   6.323
17096SOL     OW53184   6.806   9.183  13.181
17096SOL    HW153185   6.776   9.255  13.125
17096SOL    HW253186   6.729   9.159  13.232
17097SOL     OW53187   6.385   6.734  11.350
17097SOL    HW153188   6.374   6.660  11.291
17097SOL    HW253189   6.460   6.711  11.405
17098SOL     OW53190  12.105  13.003   7.336
17098SOL    HW153191  12.058  12.960   7.408
17098SOL    HW253192  12.188  13.031   7.375
17099SOL     OW53193   0.130   4.839   5.815
17099SOL    HW153194   0.219   4.875   5.814
17099SOL    HW253195   0.073   4.916   5.807
17100SOL     OW53196   7.116   1.411   2.952
17100SOL    HW153197   7.136   1.386   2.862
17100SOL    HW253198   7.189   1.376   3.003
17101SOL     OW53199   7.249   3.429  14.749
17101SOL    HW153200   7.309   3.358  14.726
17101SOL    HW253201   7.305   3.500  14.779
17102SOL     OW53202   0.879   8.595   7.019
17102SOL    HW153203   0.936   8.672   7.018
17102SOL    HW253204   0.931   8.526   6.978
17103SOL     OW53205  11.179   9.066  10.659
17103SOL    HW153206  11.141   9.136  10.712
17103SOL    HW253207  11.174   8.989  10.715
17104SOL     OW53208  10.687   2.228  11.869
17104SOL    HW153209  10.709   2.135  11.873
17104SOL    HW253210  10.630   2.243  11.944
17105SOL     OW53211   5.285  10.502   9.957
17105SOL    HW153212   5.242  10.494  10.042
17105SOL    HW253213   5.317  10.592   9.955
17106SOL     OW53214  10.477  12.630   5.058
17106SOL    HW153215  10.502  12.686   5.131
17106SOL    HW253216  10.401  12.582   5.089
17107SOL     OW53217   1.705   7.155  10.345
17107SOL    HW153218   1.707   7.210  10.267
17107SOL    HW253219   1.789   7.172  10.389
17108SOL     OW53220  14.862   4.628   1.407
17108SOL    HW153221   0.047   4.661   1.461
17108SOL    HW253222  14.824   4.706   1.367
17109SOL     OW53223  11.395  14.606  11.110
17109SOL    HW153224  11.396  14.590  11.204
17109SOL    HW253225  11.325  14.670  11.096
17110SOL     OW53226  14.190   2.583   3.598
17110SOL    HW153227  14.137   2.662   3.585
17110SOL    HW253228  14.129   2.518   3.631
17111SOL     OW53229   8.203  13.951   2.990
17111SOL    HW153230   8.244  13.865   2.976
17111SOL    HW253231   8.178  13.980   2.903
17112SOL     OW53232   6.330   3.825   3.209
17112SOL    HW153233   6.253   3.872   3.176
17112SOL    HW253234   6.300   3.785   3.290
17113SOL     OW53235  14.460   7.104   7.517
17113SOL    HW153236  14.459   7.187   7.564
17113SOL    HW253237  14.515   7.121   7.440
17114SOL     OW53238   1.323  14.046   2.510
17114SOL    HW153239   1.397  13.991   2.538
17114SOL    HW253240   1.285  14.077   2.592
17115SOL     OW53241   4.936  13.441  12.759
17115SOL    HW153242   5.005  13.384  12.792
17115SOL    HW253243   4.858  13.416  12.808
17116SOL     OW53244   3.315  12.777   6.927
17116SOL    HW153245   3.295  12.694   6.971
17116SOL    HW253246   3.239  12.832   6.943
17117SOL     OW53247  13.322   6.622   0.848
17117SOL    HW153248  13.323   6.637   0.754
17117SOL    HW253249  13.323   6.527   0.857
17118SOL     OW53250  10.484   2.854   6.731
17118SOL    HW153251  10.544   2.883   6.799
17118SOL    HW253252  10.540   2.829   6.658
17119SOL     OW53253   9.713  11.824   4.288
17119SOL    HW153254   9.751  11.767   4.221
17119SOL    HW253255   9.767  11.808   4.366
17120SOL     OW53256   2.526  12.450  13.676
17120SOL    HW153257   2.547  12.375  13.732
17120SOL    HW253258   2.542  12.418  13.587
17121SOL     OW53259  12.416   1.909  11.205
17121SOL    HW153260  12.436   1.921  11.112
17121SOL    HW253261  12.498   1.927  11.250
17122SOL     OW53262   6.101   4.615   3.925
17122SOL    HW153263   6.021   4.582   3.884
17122SOL    HW253264   6.083   4.610   4.019
17123SOL     OW53265   0.123   1.611   5.646
17123SOL    HW153266   0.064   1.631   5.574
17123SOL    HW253267   0.116   1.516   5.658
17124SOL     OW53268  10.888   0.264  14.296
17124SOL    HW153269  10.808   0.315  14.307
17124SOL    HW253270  10.922   0.290  14.210
17125SOL     OW53271   7.191  11.918   9.534
17125SOL    HW153272   7.220  11.948   9.448
17125SOL    HW253273   7.272  11.901   9.582
17126SOL     OW53274   1.606   2.827  13.133
17126SOL    HW153275   1.620   2.736  13.159
17126SOL    HW253276   1.644   2.833  13.045
17127SOL     OW53277  12.514   5.363  11.564
17127SOL    HW153278  12.577   5.301  11.601
17127SOL    HW253279  12.431   5.344  11.609
17128SOL     OW53280  12.300  14.828  13.145
17128SOL    HW153281  12.279   0.002  13.214
17128SOL    HW253282  12.344  14.881  13.078
17129SOL     OW53283   3.244   9.096   9.324
17129SOL    HW153284   3.203   9.165   9.377
17129SOL    HW253285   3.338   9.111   9.335
17130SOL     OW53286   5.581   8.266   3.853
17130SOL    HW153287   5.546   8.353   3.875
17130SOL    HW253288   5.606   8.273   3.761
17131SOL     OW53289   8.207   3.486   6.315
17131SOL    HW153290   8.232   3.404   6.272
17131SOL    HW253291   8.113   3.474   6.334
17132SOL     OW53292  11.086  13.430   7.259
17132SOL    HW153293  11.095  13.335   7.260
17132SOL    HW253294  11.011  13.448   7.315
17133SOL     OW53295   0.452  11.018   0.869
17133SOL    HW153296   0.397  11.094   0.854
17133SOL    HW253297   0.518  11.048   0.931
17134SOL     OW53298   9.700   0.953  13.499
17134SOL    HW153299   9.652   0.919  13.424
17134SOL    HW253300   9.745   1.031  13.466
17135SOL     OW53301   3.129   5.365   2.152
17135SOL    HW153302   3.127   5.269   2.142
17135SOL    HW253303   3.213   5.391   2.116
17136SOL     OW53304   5.451  10.638  12.813
17136SOL    HW153305   5.537  10.681  12.819
17136SOL    HW253306   5.390  10.710  12.795
17137SOL     OW53307   5.226  10.424   0.744
17137SOL    HW153308   5.170  10.433   0.821
17137SOL    HW253309   5.252  10.332   0.743
17138SOL     OW53310   0.960   9.768   1.846
17138SOL    HW153311   0.921   9.759   1.759
17138SOL    HW253312   1.054   9.760   1.831
17139SOL     OW53313   5.219   6.382   5.040
17139SOL    HW153314   5.309   6.413   5.046
17139SOL    HW253315   5.204   6.337   5.123
17140SOL     OW53316   3.512   6.652  13.465
17140SOL    HW153317   3.480   6.674  13.553
17140SOL    HW253318   3.605   6.675  13.468
17141SOL     OW53319  11.395   8.834   1.420
17141SOL    HW153320  11.327   8.883   1.465
17141SOL    HW253321  11.375   8.845   1.327
17142SOL     OW53322  14.546  10.669   0.982
17142SOL    HW153323  14.522  10.709   1.066
17142SOL    HW253324  14.514  10.731   0.916
17143SOL     OW53325  12.484   5.157   2.932
17143SOL    HW153326  12.517   5.214   2.862
17143SOL    HW253327  12.540   5.080   2.928
17144SOL     OW53328   3.454  10.348  13.371
17144SOL    HW153329   3.544  10.326  13.348
17144SOL    HW253330   3.402  10.315  13.298
17145SOL     OW53331   4.110   4.609   1.582
17145SOL    HW153332   4.118   4.572   1.494
17145SOL    HW253333   4.091   4.533   1.638
17146SOL     OW53334   2.292   9.065   0.095
17146SOL    HW153335   2.242   9.116   0.033
17146SOL    HW253336   2.348   9.009   0.041
17147SOL     OW53337   7.528   8.585  11.108
17147SOL    HW153338   7.570   8.646  11.046
17147SOL    HW253339   7.441   8.622  11.123
17148SOL     OW53340   1.889   9.795  10.179
17148SOL    HW153341   1.802   9.756  10.178
17148SOL    HW253342   1.942   9.735  10.232
17149SOL     OW53343   9.236   6.298  10.993
17149SOL    HW153344   9.246   6.363  11.063
17149SOL    HW253345   9.156   6.250  11.017
17150SOL     OW53346   4.084   9.811   8.945
17150SOL    HW153347   4.010   9.809   9.006
17150SOL    HW253348   4.043   9.814   8.858
17151SOL     OW53349   5.796   5.747  13.372
17151SOL    HW153350   5.824   5.712  13.456
17151SOL    HW253351   5.874   5.789  13.336
17152SOL     OW53352  12.868   9.692  14.568
17152SOL    HW153353  12.960   9.707  14.590
17152SOL    HW253354  12.828   9.778  14.571
17153SOL     OW53355  13.953   3.653   0.067
17153SOL    HW153356  13.939   3.558   0.076
17153SOL    HW253357  14.015   3.675   0.136
17154SOL     OW53358   2.929  10.113   9.981
17154SOL    HW153359   2.965  10.074   9.901
17154SOL    HW253360   2.949  10.049  10.050
17155SOL     OW53361   6.241  12.447  14.284
17155SOL    HW153362   6.217  12.535  14.257
17155SOL    HW253363   6.305  12.460  14.355
17156SOL     OW53364   4.124   5.897  10.326
17156SOL    HW153365   4.184   5.876  10.255
17156SOL    HW253366   4.092   5.812  10.356
17157SOL     OW53367  13.862   5.434   6.188
17157SOL    HW153368  13.946   5.461   6.226
17157SOL    HW253369  13.806   5.511   6.194
17158SOL     OW53370   9.756  13.774  10.049
17158SOL    HW153371   9.675  13.768   9.999
17158SOL    HW253372   9.756  13.696  10.105
17159SOL     OW53373  13.294   3.670  12.872
17159SOL    HW153374  13.327   3.747  12.918
17159SOL    HW253375  13.245   3.622  12.938
17160SOL     OW53376   8.098   1.925  13.615
17160SOL    HW153377   8.117   1.852  13.556
17160SOL    HW253378   8.009   1.907  13.646
17161SOL     OW53379   8.489   3.633   1.877
17161SOL    HW153380   8.449   3.565   1.823
17161SOL    HW253381   8.514   3.587   1.957
17162SOL     OW53382  10.658   2.016  14.001
17162SOL    HW153383  10.679   2.106  14.024
17162SOL    HW253384  10.585   2.023  13.940
17163SOL     OW53385   6.754   0.453   3.749
17163SOL    HW153386   6.736   0.522   3.813
17163SOL    HW253387   6.684   0.389   3.762
17164SOL     OW53388  11.559   0.813  11.970
17164SOL    HW153389  11.514   0.889  11.933
17164SOL    HW253390  11.639   0.806  11.918
17165SOL     OW53391   5.588   2.898  14.499
17165SOL    HW153392   5.581   2.928  14.408
17165SOL    HW253393   5.500   2.910  14.535
17166SOL     OW53394   9.985   4.491   4.680
17166SOL    HW153395   9.950   4.417   4.632
17166SOL    HW253396   9.945   4.568   4.640
17167SOL     OW53397   4.912   4.203  13.900
17167SOL    HW153398   4.974   4.180  13.969
17167SOL    HW253399   4.867   4.121  13.879
17168SOL     OW53400   5.991  14.876   8.493
17168SOL    HW153401   6.053  14.879   8.420
17168SOL    HW253402   6.044   0.009   8.570
17169SOL     OW53403  10.633  10.051   7.472
17169SOL    HW153404  10.726  10.070   7.458
17169SOL    HW253405  10.613  10.093   7.555
17170SOL     OW53406  10.540   9.002   4.239
17170SOL    HW153407  10.634   9.022   4.229
17170SOL    HW253408  10.503   9.082   4.277
17171SOL     OW53409  11.063   3.130   7.998
17171SOL    HW153410  11.109   3.053   8.032
17171SOL    HW253411  11.129   3.177   7.947
17172SOL     OW53412   5.283   7.253  11.285
17172SOL    HW153413   5.204   7.199  11.291
17172SOL    HW253414   5.253   7.343  11.295
17173SOL     OW53415  14.850  13.582   9.218
17173SOL    HW153416  14.773  13.527   9.206
17173SOL    HW253417  14.820  13.671   9.200
17174SOL     OW53418  11.505   9.143  14.117
17174SOL    HW153419  11.492   9.166  14.209
17174SOL    HW253420  11.449   9.204  14.069
17175SOL     OW53421  11.345   9.695   6.820
17175SOL    HW153422  11.269   9.638   6.807
17175SOL    HW253423  11.420   9.640   6.799
17176SOL     OW53424  13.373   9.024  14.733
17176SOL    HW153425  13.449   9.066  14.773
17176SOL    HW253426  13.398   9.011  14.642
17177SOL     OW53427   4.727   6.307   9.748
17177SOL    HW153428   4.761   6.225   9.712
17177SOL    HW253429   4.742   6.371   9.679
17178SOL     OW53430   3.855   7.701   1.080
17178SOL    HW153431   3.870   7.682   0.987
17178SOL    HW253432   3.943   7.703   1.118
17179SOL     OW53433  12.479   4.056  12.666
17179SOL    HW153434  12.487   4.005  12.586
17179SOL    HW253435  12.533   4.009  12.730
17180SOL     OW53436   4.303   0.451   4.797
17180SOL    HW153437   4.271   0.477   4.883
17180SOL    HW253438   4.383   0.502   4.784
17181SOL     OW53439  13.698  10.956   4.098
17181SOL    HW153440  13.623  10.935   4.152
17181SOL    HW253441  13.732  10.871   4.068
17182SOL     OW53442  12.831   6.129  11.025
17182SOL    HW153443  12.910   6.149  10.975
17182SOL    HW253444  12.845   6.039  11.056
17183SOL     OW53445   5.666   3.130   0.238
17183SOL    HW153446   5.572   3.115   0.228
17183SOL    HW253447   5.690   3.183   0.162
17184SOL     OW53448  14.426   1.239  14.806
17184SOL    HW153449  14.345   1.202  14.841
17184SOL    HW253450  14.401   1.280  14.724
17185SOL     OW53451   1.225  14.686  11.547
17185SOL    HW153452   1.290  14.721  11.486
17185SOL    HW253453   1.146  14.674  11.494
17186SOL     OW53454   1.936  11.092   7.359
17186SOL    HW153455   2.014  11.077   7.413
17186SOL    HW253456   1.864  11.098   7.421
17187SOL     OW53457   6.007   6.971  11.647
17187SOL    HW153458   6.094   6.955  11.611
17187SOL    HW253459   6.005   6.921  11.729
17188SOL     OW53460   3.998   5.740   4.056
17188SOL    HW153461   3.957   5.753   3.970
17188SOL    HW253462   4.087   5.772   4.046
17189SOL     OW53463   5.476  11.013   5.995
17189SOL    HW153464   5.546  11.079   5.990
17189SOL    HW253465   5.522  10.931   6.013
17190SOL     OW53466   5.952   4.173   5.889
17190SOL    HW153467   5.876   4.147   5.941
17190SOL    HW253468   6.011   4.214   5.952
17191SOL     OW53469   7.845  14.411  14.091
17191SOL    HW153470   7.782  14.456  14.147
17191SOL    HW253471   7.931  14.432  14.128
17192SOL     OW53472  12.266  13.151   8.679
17192SOL    HW153473  12.304  13.083   8.623
17192SOL    HW253474  12.199  13.106   8.729
17193SOL     OW53475   4.852   3.111   6.267
17193SOL    HW153476   4.873   3.047   6.335
17193SOL    HW253477   4.876   3.195   6.305
17194SOL     OW53478   8.248   3.482   9.082
17194SOL    HW153479   8.267   3.395   9.116
17194SOL    HW253480   8.232   3.535   9.160
17195SOL     OW53481   1.798   3.976   3.181
17195SOL    HW153482   1.870   3.962   3.243
17195SOL    HW253483   1.797   3.897   3.127
17196SOL     OW53484   7.322   7.473   5.141
17196SOL    HW153485   7.242   7.432   5.107
17196SOL    HW253486   7.391   7.444   5.082
17197SOL     OW53487   5.362  11.628  12.774
17197SOL    HW153488   5.280  11.584  12.795
17197SOL    HW253489   5.429  11.574  12.815
17198SOL     OW53490   2.863   7.292   0.721
17198SOL    HW153491   2.916   7.249   0.788
17198SOL    HW253492   2.775   7.258   0.734
17199SOL     OW53493  11.588   7.882   9.459
17199SOL    HW153494  11.523   7.951   9.453
17199SOL    HW253495  11.654   7.916   9.519
17200SOL     OW53496   9.267   7.912  10.317
17200SOL    HW153497   9.255   7.899  10.411
17200SOL    HW253498   9.183   7.887  10.279
17201SOL     OW53499   2.108   7.973   0.310
17201SOL    HW153500   2.034   8.032   0.298
17201SOL    HW253501   2.172   8.001   0.246
17202SOL     OW53502   5.394   4.996   8.426
17202SOL    HW153503   5.346   4.945   8.361
17202SOL    HW253504   5.486   4.973   8.412
17203SOL     OW53505  11.432  12.453   2.879
17203SOL    HW153506  11.501  12.471   2.816
17203SOL    HW253507  11.357  12.427   2.825
17204SOL     OW53508   9.064   0.846   3.979
17204SOL    HW153509   9.055   0.883   3.891
17204SOL    HW253510   9.157   0.856   3.999
17205SOL     OW53511  12.337   1.965   2.818
17205SOL    HW153512  12.421   2.007   2.838
17205SOL    HW253513  12.319   1.911   2.894
17206SOL     OW53514   1.254   8.985  10.029
17206SOL    HW153515   1.243   9.080  10.025
17206SOL    HW253516   1.345   8.973  10.057
17207SOL     OW53517   2.427   3.716  13.971
17207SOL    HW153518   2.458   3.643  14.024
17207SOL    HW253519   2.354   3.753  14.022
17208SOL     OW53520   7.395  12.067  11.042
17208SOL    HW153521   7.489  12.067  11.061
17208SOL    HW253522   7.368  11.977  11.056
17209SOL     OW53523  14.833   6.657  14.098
17209SOL    HW153524   0.034   6.645  14.132
17209SOL    HW253525  14.776   6.632  14.170
17210SOL     OW53526   9.035   7.610   9.198
17210SOL    HW153527   9.019   7.693   9.244
17210SOL    HW253528   8.997   7.543   9.255
17211SOL     OW53529   1.627   3.947   5.143
17211SOL    HW153530   1.654   4.039   5.149
17211SOL    HW253531   1.627   3.915   5.233
17212SOL     OW53532   8.883   1.606   8.914
17212SOL    HW153533   8.873   1.700   8.928
17212SOL    HW253534   8.977   1.591   8.920
17213SOL     OW53535  10.822   4.467   2.602
17213SOL    HW153536  10.819   4.528   2.529
17213SOL    HW253537  10.730   4.447   2.621
17214SOL     OW53538   6.687   9.635  14.252
17214SOL    HW153539   6.591   9.638  14.246
17214SOL    HW253540   6.713   9.572  14.185
17215SOL     OW53541  12.040   0.980  10.961
17215SOL    HW153542  12.016   0.957  11.051
17215SOL    HW253543  11.969   0.946  10.908
17216SOL     OW53544   1.762   9.939   4.713
17216SOL    HW153545   1.732   9.887   4.787
17216SOL    HW253546   1.828   9.884   4.670
17217SOL     OW53547   9.611   9.951  14.386
17217SOL    HW153548   9.664   9.926  14.461
17217SOL    HW253549   9.529   9.903  14.397
17218SOL     OW53550   0.878   7.480   9.057
17218SOL    HW153551   0.871   7.573   9.032
17218SOL    HW253552   0.971   7.460   9.050
17219SOL     OW53553   3.666   3.922   4.250
17219SOL    HW153554   3.597   3.986   4.267
17219SOL    HW253555   3.643   3.885   4.164
17220SOL     OW53556   6.651   0.565   6.968
17220SOL    HW153557   6.625   0.654   6.944
17220SOL    HW253558   6.600   0.509   6.909
17221SOL     OW53559   8.382   9.679   7.217
17221SOL    HW153560   8.357   9.654   7.129
17221SOL    HW253561   8.466   9.725   7.207
17222SOL     OW53562  11.167   6.834  10.517
17222SOL    HW153563  11.165   6.791  10.603
17222SOL    HW253564  11.259   6.836  10.493
17223SOL     OW53565   9.307   7.935  13.626
17223SOL    HW153566   9.343   7.876  13.560
17223SOL    HW253567   9.237   7.884  13.668
17224SOL     OW53568  12.025   9.899   1.477
17224SOL    HW153569  12.036   9.824   1.535
17224SOL    HW253570  12.017   9.861   1.390
17225SOL     OW53571  10.547   4.782   4.589
17225SOL    HW153572  10.560   4.750   4.500
17225SOL    HW253573  10.528   4.875   4.579
17226SOL     OW53574  14.632   2.850   4.517
17226SOL    HW153575  14.554   2.797   4.532
17226SOL    HW253576  14.703   2.803   4.561
17227SOL     OW53577  14.882   9.331   2.881
17227SOL    HW153578   0.087   9.308   2.870
17227SOL    HW253579  14.835   9.257   2.843
17228SOL     OW53580  10.552   9.813   5.873
17228SOL    HW153581  10.510   9.899   5.878
17228SOL    HW253582  10.519   9.767   5.951
17229SOL     OW53583   8.017  11.371   6.672
17229SOL    HW153584   7.959  11.296   6.687
17229SOL    HW253585   8.101  11.332   6.650
17230SOL     OW53586  10.169   4.807   5.049
17230SOL    HW153587  10.237   4.814   4.983
17230SOL    HW253588  10.087   4.821   5.001
17231SOL     OW53589   2.899   6.621   3.594
17231SOL    HW153590   2.989   6.652   3.589
17231SOL    HW253591   2.903   6.530   3.564
17232SOL     OW53592  10.788   5.865   5.191
17232SOL    HW153593  10.768   5.779   5.153
17232SOL    HW253594  10.874   5.887   5.156
17233SOL     OW53595  13.926   1.920   1.163
17233SOL    HW153596  13.833   1.905   1.184
17233SOL    HW253597  13.955   1.985   1.227
17234SOL     OW53598   3.193   8.123  14.674
17234SOL    HW153599   3.182   8.029  14.687
17234SOL    HW253600   3.186   8.134  14.579
17235SOL     OW53601   1.783  12.971  12.515
17235SOL    HW153602   1.748  13.033  12.579
17235SOL    HW253603   1.792  12.889  12.564
17236SOL     OW53604   5.452   3.153  12.334
17236SOL    HW153605   5.500   3.073  12.354
17236SOL    HW253606   5.446   3.155  12.239
17237SOL     OW53607   8.733   9.331   8.893
17237SOL    HW153608   8.669   9.319   8.963
17237SOL    HW253609   8.800   9.389   8.930
17238SOL     OW53610   9.218   8.578   3.164
17238SOL    HW153611   9.256   8.656   3.123
17238SOL    HW253612   9.207   8.516   3.093
17239SOL     OW53613   6.407  11.197  10.818
17239SOL    HW153614   6.324  11.228  10.781
17239SOL    HW253615   6.427  11.260  10.887
17240SOL     OW53616  14.497   5.699   1.832
17240SOL    HW153617  14.479   5.744   1.915
17240SOL    HW253618  14.414   5.657   1.809
17241SOL     OW53619  13.628  11.158   2.396
17241SOL    HW153620  13.686  11.233   2.389
17241SOL    HW253621  13.677  11.094   2.448
17242SOL     OW53622   6.356   1.109   0.782
17242SOL    HW153623   6.330   1.114   0.690
17242SOL    HW253624   6.442   1.067   0.780
17243SOL     OW53625   7.007  11.836   8.596
17243SOL    HW153626   7.016  11.907   8.532
17243SOL    HW253627   6.949  11.773   8.554
17244SOL     OW53628  12.727   9.614  11.175
17244SOL    HW153629  12.813   9.587  11.140
17244SOL    HW253630  12.684   9.531  11.197
17245SOL     OW53631   7.391  11.668  12.540
17245SOL    HW153632   7.295  11.674  12.539
17245SOL    HW253633   7.410  11.611  12.615
17246SOL     OW53634   7.012  12.603   2.905
17246SOL    HW153635   7.085  12.572   2.959
17246SOL    HW253636   6.959  12.656   2.965
17247SOL     OW53637   5.936   1.243   4.435
17247SOL    HW153638   5.846   1.267   4.414
17247SOL    HW253639   5.989   1.285   4.367
17248SOL     OW53640  10.962  14.198  11.757
17248SOL    HW153641  10.971  14.242  11.672
17248SOL    HW253642  10.873  14.218  11.785
17249SOL     OW53643   6.142   1.183   6.346
17249SOL    HW153644   6.063   1.224   6.311
17249SOL    HW253645   6.111   1.102   6.387
17250SOL     OW53646   3.636   6.933  14.008
17250SOL    HW153647   3.594   6.848  13.993
17250SOL    HW253648   3.563   6.995  14.015
17251SOL     OW53649  11.435  12.572  10.996
17251SOL    HW153650  11.415  12.481  11.014
17251SOL    HW253651  11.522  12.586  11.032
17252SOL     OW53652   9.360  12.488   3.770
17252SOL    HW153653   9.410  12.448   3.841
17252SOL    HW253654   9.370  12.582   3.785
17253SOL     OW53655   9.412  14.532  13.372
17253SOL    HW153656   9.472  14.579  13.430
17253SOL    HW253657   9.338  14.510  13.428
17254SOL     OW53658  13.371  12.359   8.117
17254SOL    HW153659  13.358  12.392   8.206
17254SOL    HW253660  13.458  12.389   8.092
17255SOL     OW53661  13.863   1.222   8.977
17255SOL    HW153662  13.939   1.198   8.924
17255SOL    HW253663  13.883   1.309   9.010
17256SOL     OW53664   3.287   8.440   0.494
17256SOL    HW153665   3.222   8.370   0.502
17256SOL    HW253666   3.328   8.445   0.580
17257SOL     OW53667  12.598   3.271  14.879
17257SOL    HW153668  12.568   3.205   0.054
17257SOL    HW253669  12.519   3.317  14.852
17258SOL     OW53670   4.815   6.952  14.368
17258SOL    HW153671   4.826   6.857  14.360
17258SOL    HW253672   4.883   6.988  14.312
17259SOL     OW53673  14.874   4.026   9.699
17259SOL    HW153674   0.008   4.081   9.624
17259SOL    HW253675  14.817   3.958   9.664
17260SOL     OW53676  12.417   9.548  10.223
17260SOL    HW153677  12.327   9.555  10.194
17260SOL    HW253678  12.445   9.461  10.194
17261SOL     OW53679   1.787  10.710  11.147
17261SOL    HW153680   1.762  10.801  11.163
17261SOL    HW253681   1.818  10.710  11.056
17262SOL     OW53682  13.053   7.561   2.605
17262SOL    HW153683  13.084   7.602   2.685
17262SOL    HW253684  13.131   7.521   2.566
17263SOL     OW53685   1.557   6.456  12.165
17263SOL    HW153686   1.598   6.542  12.155
17263SOL    HW253687   1.493   6.468  12.236
17264SOL     OW53688   8.726  14.044   5.069
17264SOL    HW153689   8.818  14.044   5.044
17264SOL    HW253690   8.704  13.952   5.081
17265SOL     OW53691   6.436   6.213   6.131
17265SOL    HW153692   6.461   6.289   6.182
17265SOL    HW253693   6.506   6.202   6.067
17266SOL     OW53694   9.021   1.513   1.272
17266SOL    HW153695   9.096   1.534   1.328
17266SOL    HW253696   9.025   1.417   1.262
17267SOL     OW53697   3.065   5.351   5.386
17267SOL    HW153698   3.063   5.301   5.304
17267SOL    HW253699   3.158   5.364   5.403
17268SOL     OW53700   2.361  14.129   9.279
17268SOL    HW153701   2.356  14.192   9.208
17268SOL    HW253702   2.307  14.055   9.251
17269SOL     OW53703   2.284   5.024  14.471
17269SOL    HW153704   2.259   4.991  14.558
17269SOL    HW253705   2.209   5.003  14.415
17270SOL     OW53706   6.146   0.441   0.166
17270SOL    HW153707   6.118   0.351   0.182
17270SOL    HW253708   6.067   0.485   0.135
17271SOL     OW53709   8.579  12.164   6.076
17271SOL    HW153710   8.623  12.086   6.040
17271SOL    HW253711   8.491  12.161   6.039
17272SOL     OW53712   8.954   2.928  12.481
17272SOL    HW153713   8.937   2.837  12.506
17272SOL    HW253714   8.877   2.953  12.429
17273SOL     OW53715   3.314   6.011   6.216
17273SOL    HW153716   3.319   6.106   6.227
17273SOL    HW253717   3.227   5.987   6.250
17274SOL     OW53718  12.853   2.779   4.179
17274SOL    HW153719  12.826   2.857   4.130
17274SOL    HW253720  12.804   2.784   4.261
17275SOL     OW53721  12.821   4.044   6.004
17275SOL    HW153722  12.778   4.064   6.087
17275SOL    HW253723  12.839   3.950   6.008
17276SOL     OW53724   7.805  10.388   5.696
17276SOL    HW153725   7.799  10.477   5.662
17276SOL    HW253726   7.879  10.390   5.756
17277SOL     OW53727   4.217  14.180   9.480
17277SOL    HW153728   4.265  14.170   9.397
17277SOL    HW253729   4.190  14.272   9.481
17278SOL     OW53730   1.961   6.276   0.743
17278SOL    HW153731   2.016   6.216   0.794
17278SOL    HW253732   1.891   6.220   0.709
17279SOL     OW53733   6.890   7.621  10.197
17279SOL    HW153734   6.943   7.542  10.197
17279SOL    HW253735   6.915   7.666  10.278
17280SOL     OW53736   9.159  13.337   3.617
17280SOL    HW153737   9.134  13.291   3.697
17280SOL    HW253738   9.163  13.268   3.550
17281SOL     OW53739   7.950   0.532   9.891
17281SOL    HW153740   8.016   0.465   9.875
17281SOL    HW253741   7.881   0.487   9.940
17282SOL     OW53742  12.270  10.054   0.637
17282SOL    HW153743  12.287  10.091   0.550
17282SOL    HW253744  12.273  10.129   0.696
17283SOL     OW53745  13.337   5.112  10.266
17283SOL    HW153746  13.424   5.148  10.246
17283SOL    HW253747  13.286   5.125  10.186
17284SOL     OW53748   6.388  13.890  14.866
17284SOL    HW153749   6.358  13.870   0.067
17284SOL    HW253750   6.325  13.845  14.809
17285SOL     OW53751   2.366   7.293   6.941
17285SOL    HW153752   2.373   7.361   7.009
17285SOL    HW253753   2.340   7.214   6.988
17286SOL     OW53754   2.892  14.572  10.772
17286SOL    HW153755   2.871  14.665  10.758
17286SOL    HW253756   2.838  14.547  10.847
17287SOL     OW53757  12.259  10.822   5.042
17287SOL    HW153758  12.184  10.854   4.991
17287SOL    HW253759  12.332  10.879   5.015
17288SOL     OW53760   2.524   3.299   6.118
17288SOL    HW153761   2.614   3.307   6.149
17288SOL    HW253762   2.530   3.311   6.023
17289SOL     OW53763  13.042  10.610   4.813
17289SOL    HW153764  12.999  10.596   4.729
17289SOL    HW253765  12.974  10.593   4.878
17290SOL     OW53766   3.763   3.461   7.435
17290SOL    HW153767   3.752   3.386   7.494
17290SOL    HW253768   3.832   3.513   7.475
17291SOL     OW53769   3.633   4.294   9.701
17291SOL    HW153770   3.678   4.310   9.618
17291SOL    HW253771   3.657   4.369   9.756
17292SOL     OW53772   4.945   9.375  10.351
17292SOL    HW153773   4.978   9.424  10.276
17292SOL    HW253774   4.894   9.304  10.314
17293SOL     OW53775   1.919   9.594   2.853
17293SOL    HW153776   1.880   9.507   2.842
17293SOL    HW253777   2.006   9.577   2.888
17294SOL     OW53778  13.594  14.536   0.169
17294SOL    HW153779  13.551  14.568   0.089
17294SOL    HW253780  13.599  14.441   0.158
17295SOL     OW53781   6.718  14.477   3.308
17295SOL    HW153782   6.716  14.566   3.344
17295SOL    HW253783   6.638  14.470   3.256
17296SOL     OW53784   2.116   2.397  13.680
17296SOL    HW153785   2.066   2.415  13.760
17296SOL    HW253786   2.093   2.307  13.657
17297SOL     OW53787   2.471  12.965  12.738
17297SOL    HW153788   2.378  12.978  12.758
17297SOL    HW253789   2.479  12.985  12.645
17298SOL     OW53790   4.323  12.949  13.491
17298SOL    HW153791   4.353  12.867  13.528
17298SOL    HW253792   4.319  12.932  13.396
17299SOL     OW53793   0.849   3.975   7.156
17299SOL    HW153794   0.822   4.015   7.239
17299SOL    HW253795   0.767   3.950   7.114
17300SOL     OW53796   0.560  11.666   4.699
17300SOL    HW153797   0.598  11.631   4.618
17300SOL    HW253798   0.466  11.665   4.684
17301SOL     OW53799   9.043   1.520   5.218
17301SOL    HW153800   9.121   1.574   5.230
17301SOL    HW253801   8.975   1.581   5.188
17302SOL     OW53802  14.748   3.261  10.871
17302SOL    HW153803  14.840   3.249  10.846
17302SOL    HW253804  14.739   3.355  10.884
17303SOL     OW53805  13.587   9.134   7.601
17303SOL    HW153806  13.626   9.139   7.688
17303SOL    HW253807  13.507   9.187   7.608
17304SOL     OW53808   1.111  14.053   5.551
17304SOL    HW153809   1.069  14.000   5.619
17304SOL    HW253810   1.180  13.997   5.516
17305SOL     OW53811   8.478   6.240  13.676
17305SOL    HW153812   8.409   6.191  13.630
17305SOL    HW253813   8.558   6.189  13.661
17306SOL     OW53814  13.024   9.286   3.155
17306SOL    HW153815  13.022   9.316   3.064
17306SOL    HW253816  13.010   9.366   3.207
17307SOL     OW53817  14.863  11.977  14.482
17307SOL    HW153818  14.821  11.892  14.472
17307SOL    HW253819   0.064  11.965  14.449
17308SOL     OW53820   1.023   4.340  10.227
17308SOL    HW153821   0.953   4.378  10.174
17308SOL    HW253822   1.084   4.412  10.242
17309SOL     OW53823   3.706   8.737  11.727
17309SOL    HW153824   3.691   8.643  11.725
17309SOL    HW253825   3.799   8.747  11.709
17310SOL     OW53826   1.538   4.077   8.244
17310SOL    HW153827   1.447   4.050   8.260
17310SOL    HW253828   1.531   4.169   8.217
17311SOL     OW53829  11.362   7.286   0.952
17311SOL    HW153830  11.446   7.244   0.931
17311SOL    HW253831  11.386   7.375   0.978
17312SOL     OW53832   2.109   9.469   8.034
17312SOL    HW153833   2.166   9.437   7.964
17312SOL    HW253834   2.049   9.397   8.051
17313SOL     OW53835  13.688   0.968   6.419
17313SOL    HW153836  13.729   0.934   6.340
17313SOL    HW253837  13.721   0.912   6.489
17314SOL     OW53838  11.772   9.148  13.262
17314SOL    HW153839  11.808   9.161  13.349
17314SOL    HW253840  11.745   9.056  13.259
17315SOL     OW53841   6.065   0.325  14.393
17315SOL    HW153842   6.062   0.280  14.308
17315SOL    HW253843   6.037   0.260  14.456
17316SOL     OW53844   0.573   4.926   8.883
17316SOL    HW153845   0.555   4.983   8.808
17316SOL    HW253846   0.572   4.837   8.847
17317SOL     OW53847   3.850   1.458   2.229
17317SOL    HW153848   3.891   1.524   2.173
17317SOL    HW253849   3.841   1.501   2.314
17318SOL     OW53850   3.305   6.087  10.227
17318SOL    HW153851   3.309   6.107  10.321
17318SOL    HW253852   3.391   6.113  10.193
17319SOL     OW53853   0.207   4.801  11.731
17319SOL    HW153854   0.112   4.794  11.720
17319SOL    HW253855   0.221   4.796  11.826
17320SOL     OW53856   5.593   1.627   4.150
17320SOL    HW153857   5.502   1.645   4.173
17320SOL    HW253858   5.595   1.534   4.129
17321SOL     OW53859  11.928   4.841  13.469
17321SOL    HW153860  11.894   4.774  13.409
17321SOL    HW253861  12.018   4.815  13.485
17322SOL     OW53862  14.507   7.716   9.768
17322SOL    HW153863  14.505   7.688   9.860
17322SOL    HW253864  14.470   7.804   9.768
17323SOL     OW53865   4.804   8.695   8.693
17323SOL    HW153866   4.834   8.784   8.677
17323SOL    HW253867   4.882   8.641   8.680
17324SOL     OW53868  13.765   3.563   3.678
17324SOL    HW153869  13.840   3.543   3.622
17324SOL    HW253870  13.787   3.648   3.718
17325SOL     OW53871   4.296   5.818  10.131
17325SOL    HW153872   4.372   5.842  10.079
17325SOL    HW253873   4.258   5.742  10.086
17326SOL     OW53874   4.930   9.233  14.068
17326SOL    HW153875   4.913   9.270  13.982
17326SOL    HW253876   4.980   9.154  14.051
17327SOL     OW53877   7.957   2.344  11.678
17327SOL    HW153878   7.906   2.414  11.638
17327SOL    HW253879   8.047   2.359  11.649
17328SOL     OW53880   3.710   0.640  13.512
17328SOL    HW153881   3.653   0.578  13.559
17328SOL    HW253882   3.753   0.586  13.446
17329SOL     OW53883  14.117   8.798  10.678
17329SOL    HW153884  14.124   8.775  10.771
17329SOL    HW253885  14.205   8.782  10.643
17330SOL     OW53886   4.250  10.444  11.634
17330SOL    HW153887   4.306  10.383  11.586
17330SOL    HW253888   4.259  10.527  11.587
17331SOL     OW53889   9.040  14.070   8.406
17331SOL    HW153890   9.062  14.112   8.489
17331SOL    HW253891   8.974  14.003   8.429
17332SOL     OW53892   1.968   6.975  14.188
17332SOL    HW153893   2.019   6.958  14.267
17332SOL    HW253894   1.999   7.061  14.159
17333SOL     OW53895  13.457   4.669   3.932
17333SOL    HW153896  13.371   4.646   3.897
17333SOL    HW253897  13.502   4.711   3.858
17334SOL     OW53898   9.434  14.189   9.942
17334SOL    HW153899   9.447  14.269   9.993
17334SOL    HW253900   9.522  14.153   9.932
17335SOL     OW53901  11.857   6.425  13.172
17335SOL    HW153902  11.769   6.407  13.138
17335SOL    HW253903  11.842   6.454  13.262
17336SOL     OW53904  13.908   6.457   4.043
17336SOL    HW153905  13.820   6.469   4.007
17336SOL    HW253906  13.914   6.363   4.060
17337SOL     OW53907   8.869   8.262  14.507
17337SOL    HW153908   8.808   8.320  14.463
17337SOL    HW253909   8.847   8.269  14.600
17338SOL     OW53910   5.466   9.296   5.296
17338SOL    HW153911   5.439   9.235   5.227
17338SOL    HW253912   5.416   9.269   5.373
17339SOL     OW53913   9.021  11.283   8.080
17339SOL    HW153914   9.026  11.373   8.047
17339SOL    HW253915   8.967  11.289   8.159
17340SOL     OW53916   8.848   0.624   9.162
17340SOL    HW153917   8.928   0.572   9.171
17340SOL    HW253918   8.812   0.597   9.077
17341SOL     OW53919   4.671   7.328   1.462
17341SOL    HW153920   4.579   7.354   1.473
17341SOL    HW253921   4.667   7.236   1.438
17342SOL     OW53922   0.616   9.209  10.949
17342SOL    HW153923   0.700   9.166  10.961
17342SOL    HW253924   0.635   9.303  10.954
17343SOL     OW53925   5.358  12.241   6.971
17343SOL    HW153926   5.303  12.258   7.046
17343SOL    HW253927   5.333  12.308   6.907
17344SOL     OW53928   4.167   7.559  11.293
17344SOL    HW153929   4.130   7.526  11.375
17344SOL    HW253930   4.094   7.558  11.231
17345SOL     OW53931  12.354  13.244   4.022
17345SOL    HW153932  12.321  13.324   4.063
17345SOL    HW253933  12.315  13.173   4.072
17346SOL     OW53934   0.924   1.773   7.574
17346SOL    HW153935   0.979   1.703   7.607
17346SOL    HW253936   0.838   1.757   7.611
17347SOL     OW53937  12.479   0.983  12.198
17347SOL    HW153938  12.406   1.044  12.206
17347SOL    HW253939  12.438   0.899  12.174
17348SOL     OW53940   4.443  10.820  13.139
17348SOL    HW153941   4.403  10.865  13.064
17348SOL    HW253942   4.369  10.791  13.192
17349SOL     OW53943   5.689   9.003  14.345
17349SOL    HW153944   5.611   9.056  14.328
17349SOL    HW253945   5.706   8.959  14.261
17350SOL     OW53946   0.575   6.784  11.576
17350SOL    HW153947   0.552   6.870  11.610
17350SOL    HW253948   0.505   6.726  11.609
17351SOL     OW53949  11.645   8.122  10.775
17351SOL    HW153950  11.632   8.112  10.870
17351SOL    HW253951  11.557   8.122  10.739
17352SOL     OW53952  13.451  14.392   6.933
17352SOL    HW153953  13.449  14.375   6.838
17352SOL    HW253954  13.544  14.403   6.953
17353SOL     OW53955   7.233   9.677   8.148
17353SOL    HW153956   7.298   9.607   8.154
17353SOL    HW253957   7.274   9.751   8.194
17354SOL     OW53958  13.225   7.609   7.969
17354SOL    HW153959  13.268   7.609   7.883
17354SOL    HW253960  13.215   7.702   7.990
17355SOL     OW53961   0.852   0.981   2.742
17355SOL    HW153962   0.815   1.069   2.735
17355SOL    HW253963   0.776   0.923   2.748
17356SOL     OW53964  12.375   0.231   4.338
17356SOL    HW153965  12.373   0.178   4.258
17356SOL    HW253966  12.283   0.246   4.359
17357SOL     OW53967   4.358   6.780   2.641
17357SOL    HW153968   4.399   6.741   2.564
17357SOL    HW253969   4.266   6.789   2.617
17358SOL     OW53970   0.975   7.232   6.759
17358SOL    HW153971   0.953   7.312   6.807
17358SOL    HW253972   0.896   7.179   6.763
17359SOL     OW53973   2.553   8.577  12.505
17359SOL    HW153974   2.528   8.494  12.465
17359SOL    HW253975   2.528   8.644  12.441
17360SOL     OW53976   0.934   2.743  13.471
17360SOL    HW153977   0.907   2.652  13.460
17360SOL    HW253978   1.024   2.746  13.438
17361SOL     OW53979   5.722   4.402   9.797
17361SOL    HW153980   5.663   4.329   9.781
17361SOL    HW253981   5.671   4.480   9.775
17362SOL     OW53982   3.261   8.344   9.366
17362SOL    HW153983   3.315   8.357   9.289
17362SOL    HW253984   3.176   8.382   9.343
17363SOL     OW53985   8.104  14.072  12.969
17363SOL    HW153986   8.030  14.115  12.925
17363SOL    HW253987   8.072  13.984  12.988
17364SOL     OW53988   6.659  13.993   0.804
17364SOL    HW153989   6.662  14.089   0.802
17364SOL    HW253990   6.608  13.973   0.883
17365SOL     OW53991   6.072  12.074   7.815
17365SOL    HW153992   6.141  12.098   7.753
17365SOL    HW253993   6.001  12.040   7.761
17366SOL     OW53994   2.519   4.631   8.824
17366SOL    HW153995   2.567   4.567   8.877
17366SOL    HW253996   2.572   4.643   8.746
17367SOL     OW53997  11.845   3.200   7.362
17367SOL    HW153998  11.906   3.201   7.288
17367SOL    HW253999  11.761   3.178   7.323
17368SOL     OW54000  14.776   8.215   2.199
17368SOL    HW154001  14.700   8.271   2.183
17368SOL    HW254002  14.738   8.127   2.209
17369SOL     OW54003   0.239   8.252   5.866
17369SOL    HW154004   0.162   8.309   5.862
17369SOL    HW254005   0.286   8.280   5.944
17370SOL     OW54006   2.251   9.405   3.449
17370SOL    HW154007   2.329   9.360   3.417
17370SOL    HW254008   2.184   9.337   3.453
17371SOL     OW54009   5.064   1.805   7.543
17371SOL    HW154010   5.011   1.766   7.473
17371SOL    HW254011   5.034   1.895   7.550
17372SOL     OW54012   9.573   6.062  11.651
17372SOL    HW154013   9.654   6.021  11.623
17372SOL    HW254014   9.596   6.111  11.729
17373SOL     OW54015   3.870   9.858   9.326
17373SOL    HW154016   3.859   9.799   9.400
17373SOL    HW254017   3.933   9.924   9.357
17374SOL     OW54018   3.620   5.641  12.437
17374SOL    HW154019   3.543   5.591  12.463
17374SOL    HW254020   3.694   5.594  12.475
17375SOL     OW54021  14.003   4.510  12.644
17375SOL    HW154022  14.097   4.526  12.654
17375SOL    HW254023  13.998   4.432  12.587
17376SOL     OW54024   3.949   0.162   9.919
17376SOL    HW154025   3.994   0.123   9.995
17376SOL    HW254026   3.879   0.215   9.957
17377SOL     OW54027   4.552   5.144   3.181
17377SOL    HW154028   4.461   5.163   3.206
17377SOL    HW254029   4.601   5.221   3.207
17378SOL     OW54030   3.109   5.853   2.238
17378SOL    HW154031   3.074   5.824   2.322
17378SOL    HW254032   3.183   5.795   2.221
17379SOL     OW54033   1.775   9.841   3.809
17379SOL    HW154034   1.802   9.763   3.760
17379SOL    HW254035   1.835   9.845   3.883
17380SOL     OW54036   8.716   7.558  12.432
17380SOL    HW154037   8.776   7.535  12.503
17380SOL    HW254038   8.679   7.475  12.404
17381SOL     OW54039   9.979  14.021  13.691
17381SOL    HW154040  10.053  14.022  13.753
17381SOL    HW254041  10.015  13.982  13.612
17382SOL     OW54042  12.456   2.123   7.807
17382SOL    HW154043  12.377   2.090   7.849
17382SOL    HW254044  12.528   2.084   7.857
17383SOL     OW54045  12.305   8.416  14.407
17383SOL    HW154046  12.249   8.494  14.409
17383SOL    HW254047  12.350   8.417  14.491
17384SOL     OW54048  12.633   5.249   9.941
17384SOL    HW154049  12.712   5.261   9.889
17384SOL    HW254050  12.623   5.331   9.988
17385SOL     OW54051   7.828   7.323   3.495
17385SOL    HW154052   7.757   7.376   3.530
17385SOL    HW254053   7.905   7.350   3.545
17386SOL     OW54054   8.751   6.495   2.651
17386SOL    HW154055   8.660   6.488   2.622
17386SOL    HW254056   8.795   6.420   2.611
17387SOL     OW54057   8.737   3.234   5.331
17387SOL    HW154058   8.673   3.203   5.395
17387SOL    HW254059   8.815   3.254   5.383
17388SOL     OW54060   2.721   3.580   0.865
17388SOL    HW154061   2.792   3.517   0.850
17388SOL    HW254062   2.702   3.616   0.779
17389SOL     OW54063   0.176  13.484   0.643
17389SOL    HW154064   0.085  13.512   0.650
17389SOL    HW254065   0.216  13.547   0.584
17390SOL     OW54066   8.474   8.629   3.330
17390SOL    HW154067   8.405   8.563   3.329
17390SOL    HW254068   8.468   8.669   3.417
17391SOL     OW54069   7.547  14.109   2.772
17391SOL    HW154070   7.556  14.155   2.855
17391SOL    HW254071   7.634  14.074   2.754
17392SOL     OW54072  14.792   2.349  12.373
17392SOL    HW154073  14.854   2.285  12.337
17392SOL    HW254074  14.779   2.320  12.463
17393SOL     OW54075   1.612   4.108   3.437
17393SOL    HW154076   1.558   4.044   3.483
17393SOL    HW254077   1.702   4.075   3.448
17394SOL     OW54078   9.774   3.110   4.568
17394SOL    HW154079   9.714   3.183   4.552
17394SOL    HW254080   9.743   3.041   4.510
17395SOL     OW54081   0.898   5.695   9.247
17395SOL    HW154082   0.974   5.638   9.259
17395SOL    HW254083   0.837   5.670   9.316
17396SOL     OW54084  13.087   0.953   5.742
17396SOL    HW154085  13.000   0.968   5.705
17396SOL    HW254086  13.148   0.975   5.671
17397SOL     OW54087  11.729   9.648   0.571
17397SOL    HW154088  11.739   9.734   0.531
17397SOL    HW254089  11.779   9.589   0.515
17398SOL     OW54090  11.916   9.627   9.798
17398SOL    HW154091  11.953   9.648   9.884
17398SOL    HW254092  11.975   9.560   9.763
17399SOL     OW54093   5.184   6.166   0.532
17399SOL    HW154094   5.185   6.258   0.506
17399SOL    HW254095   5.148   6.120   0.455
17400SOL     OW54096   3.006   3.774   7.485
17400SOL    HW154097   3.023   3.829   7.408
17400SOL    HW254098   3.001   3.836   7.558
17401SOL     OW54099   2.753  11.193   5.906
17401SOL    HW154100   2.727  11.178   5.815
17401SOL    HW254101   2.711  11.123   5.956
17402SOL     OW54102  10.194  11.464  10.389
17402SOL    HW154103  10.244  11.545  10.385
17402SOL    HW254104  10.188  11.435  10.298
17403SOL     OW54105   0.584   9.169  11.611
17403SOL    HW154106   0.609   9.218  11.689
17403SOL    HW254107   0.666   9.158  11.563
17404SOL     OW54108   8.379   6.201  13.276
17404SOL    HW154109   8.374   6.245  13.191
17404SOL    HW254110   8.346   6.265  13.338
17405SOL     OW54111   2.421   6.759   7.473
17405SOL    HW154112   2.509   6.742   7.439
17405SOL    HW254113   2.390   6.673   7.502
17406SOL     OW54114   3.080  13.585  11.990
17406SOL    HW154115   3.101  13.655  11.928
17406SOL    HW254116   3.091  13.504  11.939
17407SOL     OW54117   3.740   0.094   7.689
17407SOL    HW154118   3.731   0.019   7.749
17407SOL    HW254119   3.718   0.170   7.742
17408SOL     OW54120  12.269  14.515   3.737
17408SOL    HW154121  12.231  14.582   3.795
17408SOL    HW254122  12.290  14.442   3.796
17409SOL     OW54123   9.631  12.020   0.586
17409SOL    HW154124   9.688  12.088   0.551
17409SOL    HW254125   9.687  11.942   0.590
17410SOL     OW54126   4.134  10.617   9.739
17410SOL    HW154127   4.045  10.581   9.735
17410SOL    HW254128   4.135  10.670   9.818
17411SOL     OW54129   6.243  14.397   2.333
17411SOL    HW154130   6.154  14.405   2.368
17411SOL    HW254131   6.300  14.406   2.409
17412SOL     OW54132   8.842  12.723  13.549
17412SOL    HW154133   8.848  12.797  13.610
17412SOL    HW254134   8.773  12.749  13.488
17413SOL     OW54135  12.753  12.647   3.940
17413SOL    HW154136  12.741  12.611   3.853
17413SOL    HW254137  12.827  12.707   3.931
17414SOL     OW54138  11.965   7.640   7.678
17414SOL    HW154139  11.873   7.658   7.698
17414SOL    HW254140  11.963   7.558   7.630
17415SOL     OW54141   7.890   6.566  13.085
17415SOL    HW154142   7.866   6.559  13.177
17415SOL    HW254143   7.823   6.624  13.048
17416SOL     OW54144   3.470   2.687  10.122
17416SOL    HW154145   3.419   2.746  10.067
17416SOL    HW254146   3.556   2.728  10.127
17417SOL     OW54147   5.603   7.286  14.194
17417SOL    HW154148   5.635   7.198  14.211
17417SOL    HW254149   5.670   7.325  14.137
17418SOL     OW54150  11.097   8.390   5.449
17418SOL    HW154151  11.126   8.450   5.518
17418SOL    HW254152  11.143   8.308   5.468
17419SOL     OW54153  12.501   8.241   1.943
17419SOL    HW154154  12.509   8.249   2.038
17419SOL    HW254155  12.416   8.200   1.929
17420SOL     OW54156   8.389   3.410   5.940
17420SOL    HW154157   8.384   3.344   6.010
17420SOL    HW254158   8.372   3.493   5.984
17421SOL     OW54159  13.725  11.338   3.226
17421SOL    HW154160  13.721  11.425   3.187
17421SOL    HW254161  13.715  11.353   3.320
17422SOL     OW54162  11.691   4.059  10.707
17422SOL    HW154163  11.723   4.098  10.625
17422SOL    HW254164  11.596   4.062  10.699
17423SOL     OW54165   9.722   5.826   1.268
17423SOL    HW154166   9.757   5.884   1.201
17423SOL    HW254167   9.743   5.869   1.351
17424SOL     OW54168   2.404  13.150  12.109
17424SOL    HW154169   2.423  13.241  12.129
17424SOL    HW254170   2.395  13.107  12.194
17425SOL     OW54171   2.856  11.064   2.276
17425SOL    HW154172   2.899  11.069   2.361
17425SOL    HW254173   2.927  11.054   2.213
17426SOL     OW54174   3.876  12.235   3.879
17426SOL    HW154175   3.898  12.189   3.798
17426SOL    HW254176   3.904  12.175   3.949
17427SOL     OW54177   0.265   4.441   7.428
17427SOL    HW154178   0.293   4.388   7.353
17427SOL    HW254179   0.217   4.379   7.483
17428SOL     OW54180   2.194  12.299   8.968
17428SOL    HW154181   2.238  12.218   8.993
17428SOL    HW254182   2.146  12.277   8.888
17429SOL     OW54183   3.205   1.016   0.853
17429SOL    HW154184   3.293   0.988   0.876
17429SOL    HW254185   3.208   1.111   0.857
17430SOL     OW54186  13.940  14.576   5.947
17430SOL    HW154187  13.845  14.576   5.959
17430SOL    HW254188  13.951  14.592   5.853
17431SOL     OW54189   8.603   4.512   8.942
17431SOL    HW154190   8.564   4.573   9.004
17431SOL    HW254191   8.637   4.568   8.872
17432SOL     OW54192   2.221   4.737   4.666
17432SOL    HW154193   2.147   4.707   4.614
17432SOL    HW254194   2.209   4.695   4.751
17433SOL     OW54195   0.720  12.643   6.407
17433SOL    HW154196   0.722  12.557   6.366
17433SOL    HW254197   0.663  12.695   6.350
17434SOL     OW54198   6.738   6.120   2.061
17434SOL    HW154199   6.746   6.029   2.088
17434SOL    HW254200   6.667   6.120   1.996
17435SOL     OW54201   0.838   6.030   6.631
17435SOL    HW154202   0.752   6.034   6.674
17435SOL    HW254203   0.867   5.940   6.643
17436SOL     OW54204   4.362  10.139  11.390
17436SOL    HW154205   4.402  10.165  11.473
17436SOL    HW254206   4.322  10.219  11.356
17437SOL     OW54207  13.683   6.738   0.006
17437SOL    HW154208  13.636   6.724  14.812
17437SOL    HW254209  13.776   6.734  14.869
17438SOL     OW54210   1.791   3.292   8.819
17438SOL    HW154211   1.717   3.332   8.863
17438SOL    HW254212   1.752   3.235   8.753
17439SOL     OW54213   7.669   6.166   7.791
17439SOL    HW154214   7.630   6.231   7.849
17439SOL    HW254215   7.693   6.094   7.849
17440SOL     OW54216  10.730   5.783   6.297
17440SOL    HW154217  10.653   5.832   6.268
17440SOL    HW254218  10.696   5.700   6.329
17441SOL     OW54219   0.811   2.459   4.215
17441SOL    HW154220   0.856   2.376   4.201
17441SOL    HW254221   0.859   2.501   4.287
17442SOL     OW54222  14.606  12.118   5.346
17442SOL    HW154223  14.526  12.129   5.397
17442SOL    HW254224  14.601  12.184   5.278
17443SOL     OW54225   6.198   6.628   9.393
17443SOL    HW154226   6.160   6.565   9.454
17443SOL    HW254227   6.237   6.695   9.449
17444SOL     OW54228  10.424   0.917   2.821
17444SOL    HW154229  10.430   0.840   2.765
17444SOL    HW254230  10.494   0.905   2.885
17445SOL     OW54231   9.829   6.108  14.777
17445SOL    HW154232   9.804   6.054  14.852
17445SOL    HW254233   9.843   6.195  14.815
17446SOL     OW54234   5.608   1.673  11.664
17446SOL    HW154235   5.659   1.598  11.632
17446SOL    HW254236   5.588   1.651  11.755
17447SOL     OW54237   6.133   3.193  14.303
17447SOL    HW154238   6.071   3.122  14.289
17447SOL    HW254239   6.219   3.150  14.308
17448SOL     OW54240   3.065   1.638  11.028
17448SOL    HW154241   2.999   1.634  10.959
17448SOL    HW254242   3.140   1.591  10.992
17449SOL     OW54243  13.124   2.764   4.098
17449SOL    HW154244  13.029   2.761   4.112
17449SOL    HW254245  13.148   2.855   4.115
17450SOL     OW54246  10.214   2.390   4.320
17450SOL    HW154247  10.302   2.387   4.282
17450SOL    HW254248  10.228   2.422   4.410
17451SOL     OW54249  12.750  12.743   9.767
17451SOL    HW154250  12.837  12.781   9.774
17451SOL    HW254251  12.758  12.657   9.807
17452SOL     OW54252   6.526   8.940  13.857
17452SOL    HW154253   6.536   9.012  13.920
17452SOL    HW254254   6.447   8.894  13.885
17453SOL     OW54255  13.905  11.243  12.449
17453SOL    HW154256  13.981  11.301  12.444
17453SOL    HW254257  13.940  11.156  12.429
17454SOL     OW54258   3.928   2.727   3.404
17454SOL    HW154259   3.991   2.755   3.338
17454SOL    HW254260   3.980   2.679   3.469
17455SOL     OW54261   1.568   9.797  10.282
17455SOL    HW154262   1.474   9.801  10.298
17455SOL    HW254263   1.607   9.783  10.368
17456SOL     OW54264  10.102  11.162   1.075
17456SOL    HW154265  10.030  11.146   1.137
17456SOL    HW254266  10.129  11.252   1.092
17457SOL     OW54267   2.466  14.600  10.667
17457SOL    HW154268   2.461  14.610  10.762
17457SOL    HW254269   2.524  14.525  10.654
17458SOL     OW54270   5.785  12.806  11.525
17458SOL    HW154271   5.743  12.769  11.447
17458SOL    HW254272   5.827  12.886  11.495
17459SOL     OW54273   7.731  11.182   8.018
17459SOL    HW154274   7.664  11.250   8.029
17459SOL    HW254275   7.742  11.174   7.924
17460SOL     OW54276  14.537   0.252   2.758
17460SOL    HW154277  14.586   0.293   2.829
17460SOL    HW254278  14.542   0.314   2.686
17461SOL     OW54279   0.590  14.525   3.082
17461SOL    HW154280   0.647  14.471   3.028
17461SOL    HW254281   0.638  14.606   3.094
17462SOL     OW54282   4.369  13.125  11.459
17462SOL    HW154283   4.334  13.133  11.370
17462SOL    HW254284   4.346  13.208  11.501
17463SOL     OW54285   4.862  10.812   7.165
17463SOL    HW154286   4.856  10.898   7.207
17463SOL    HW254287   4.775  10.797   7.129
17464SOL     OW54288  14.722   5.052   2.610
17464SOL    HW154289  14.799   5.095   2.575
17464SOL    HW254290  14.756   4.982   2.666
17465SOL     OW54291  10.533   3.053  11.224
17465SOL    HW154292  10.577   3.116  11.282
17465SOL    HW254293  10.566   2.968  11.253
17466SOL     OW54294  10.990   0.746  14.414
17466SOL    HW154295  10.971   0.717  14.504
17466SOL    HW254296  11.084   0.762  14.413
17467SOL     OW54297  14.338   0.822   9.838
17467SOL    HW154298  14.293   0.897   9.797
17467SOL    HW254299  14.387   0.860   9.910
17468SOL     OW54300   0.543  12.804   6.243
17468SOL    HW154301   0.461  12.796   6.292
17468SOL    HW254302   0.555  12.899   6.233
17469SOL     OW54303  10.575   6.865   0.371
17469SOL    HW154304  10.603   6.828   0.455
17469SOL    HW254305  10.623   6.947   0.363
17470SOL     OW54306  12.182   5.760  13.219
17470SOL    HW154307  12.179   5.855  13.227
17470SOL    HW254308  12.238   5.732  13.292
17471SOL     OW54309   0.451  14.419   4.262
17471SOL    HW154310   0.463  14.325   4.251
17471SOL    HW254311   0.427  14.430   4.354
17472SOL     OW54312   9.958   1.872   4.703
17472SOL    HW154313  10.036   1.819   4.719
17472SOL    HW254314   9.978   1.920   4.623
17473SOL     OW54315   8.575   1.041   9.600
17473SOL    HW154316   8.602   0.954   9.632
17473SOL    HW254317   8.480   1.039   9.605
17474SOL     OW54318   1.344  10.954  14.846
17474SOL    HW154319   1.326  10.923   0.047
17474SOL    HW254320   1.278  10.911  14.792
17475SOL     OW54321   6.394   8.653  13.522
17475SOL    HW154322   6.474   8.633  13.570
17475SOL    HW254323   6.343   8.572  13.524
17476SOL     OW54324   7.731   2.944   3.092
17476SOL    HW154325   7.780   2.908   3.018
17476SOL    HW254326   7.794   2.995   3.142
17477SOL     OW54327  11.492   0.550   0.978
17477SOL    HW154328  11.449   0.521   1.058
17477SOL    HW254329  11.470   0.483   0.913
17478SOL     OW54330   0.818  12.106   8.378
17478SOL    HW154331   0.907  12.140   8.384
17478SOL    HW254332   0.814  12.038   8.446
17479SOL     OW54333   8.219   9.322  11.566
17479SOL    HW154334   8.153   9.254  11.581
17479SOL    HW254335   8.169   9.396  11.531
17480SOL     OW54336  10.905   8.545  11.332
17480SOL    HW154337  10.867   8.535  11.245
17480SOL    HW254338  10.990   8.587  11.316
17481SOL     OW54339   7.998   2.941   8.256
17481SOL    HW154340   7.969   2.974   8.341
17481SOL    HW254341   7.953   2.996   8.192
17482SOL     OW54342   8.181   5.655   2.705
17482SOL    HW154343   8.245   5.623   2.641
17482SOL    HW254344   8.133   5.576   2.731
17483SOL     OW54345  11.257   2.816   4.645
17483SOL    HW154346  11.179   2.823   4.590
17483SOL    HW254347  11.321   2.875   4.605
17484SOL     OW54348   0.808   3.482   6.329
17484SOL    HW154349   0.780   3.475   6.420
17484SOL    HW254350   0.763   3.410   6.285
17485SOL     OW54351  11.753   1.438  12.112
17485SOL    HW154352  11.775   1.531  12.111
17485SOL    HW254353  11.779   1.408  12.199
17486SOL     OW54354  13.585   9.656  10.687
17486SOL    HW154355  13.517   9.613  10.740
17486SOL    HW254356  13.666   9.615  10.716
17487SOL     OW54357   6.239   2.853  13.730
17487SOL    HW154358   6.322   2.805  13.734
17487SOL    HW254359   6.176   2.789  13.698
17488SOL     OW54360  10.601   9.242  13.264
17488SOL    HW154361  10.670   9.175  13.272
17488SOL    HW254362  10.589   9.275  13.354
17489SOL     OW54363   4.545   3.213   2.172
17489SOL    HW154364   4.553   3.139   2.233
17489SOL    HW254365   4.453   3.211   2.144
17490SOL     OW54366   6.622   0.303  13.510
17490SOL    HW154367   6.558   0.374  13.498
17490SOL    HW254368   6.702   0.347  13.537
17491SOL     OW54369   7.685  13.936   9.785
17491SOL    HW154370   7.687  13.870   9.854
17491SOL    HW254371   7.777  13.960   9.771
17492SOL     OW54372   2.423  13.937  11.747
17492SOL    HW154373   2.450  13.886  11.823
17492SOL    HW254374   2.488  14.007  11.741
17493SOL     OW54375  14.204  11.259   4.613
17493SOL    HW154376  14.278  11.222   4.662
17493SOL    HW254377  14.130  11.251   4.673
17494SOL     OW54378   7.024   4.014   2.653
17494SOL    HW154379   6.993   4.056   2.734
17494SOL    HW254380   7.043   3.924   2.679
17495SOL     OW54381   9.158   6.297  13.928
17495SOL    HW154382   9.096   6.332  13.865
17495SOL    HW254383   9.240   6.342  13.908
17496SOL     OW54384  10.199   8.002   4.737
17496SOL    HW154385  10.226   8.075   4.681
17496SOL    HW254386  10.128   8.036   4.790
17497SOL     OW54387   9.909   7.466   5.253
17497SOL    HW154388   9.995   7.497   5.224
17497SOL    HW254389   9.849   7.537   5.231
17498SOL     OW54390  11.943   7.669   1.069
17498SOL    HW154391  11.962   7.760   1.091
17498SOL    HW254392  11.873   7.675   1.003
17499SOL     OW54393   7.363   5.346  12.418
17499SOL    HW154394   7.430   5.280  12.402
17499SOL    HW254395   7.280   5.299  12.405
17500SOL     OW54396   1.653   7.887   4.205
17500SOL    HW154397   1.719   7.846   4.148
17500SOL    HW254398   1.698   7.964   4.240
17501SOL     OW54399  11.023   5.531   4.538
17501SOL    HW154400  10.934   5.531   4.573
17501SOL    HW254401  11.070   5.468   4.593
17502SOL     OW54402  14.787  13.410   6.226
17502SOL    HW154403  14.729  13.342   6.263
17502SOL    HW254404  14.787  13.393   6.132
17503SOL     OW54405   1.297   3.685  14.331
17503SOL    HW154406   1.228   3.723  14.278
17503SOL    HW254407   1.252   3.649  14.407
17504SOL     OW54408   8.502   0.266   2.665
17504SOL    HW154409   8.566   0.293   2.599
17504SOL    HW254410   8.477   0.177   2.640
17505SOL     OW54411   8.819   6.949   6.240
17505SOL    HW154412   8.807   7.007   6.315
17505SOL    HW254413   8.762   6.985   6.172
17506SOL     OW54414   1.067  11.250   2.256
17506SOL    HW154415   1.081  11.314   2.325
17506SOL    HW254416   1.031  11.300   2.183
17507SOL     OW54417   7.108   6.617   5.670
17507SOL    HW154418   7.201   6.598   5.677
17507SOL    HW254419   7.104   6.710   5.648
17508SOL     OW54420   6.277   8.185  12.553
17508SOL    HW154421   6.366   8.193  12.518
17508SOL    HW254422   6.258   8.271  12.589
17509SOL     OW54423   7.881   7.274   0.156
17509SOL    HW154424   7.877   7.321   0.239
17509SOL    HW254425   7.944   7.324   0.104
17510SOL     OW54426  12.457   3.246   7.591
17510SOL    HW154427  12.515   3.317   7.620
17510SOL    HW254428  12.380   3.255   7.647
17511SOL     OW54429   3.114   7.915  10.315
17511SOL    HW154430   3.145   7.842  10.369
17511SOL    HW254431   3.189   7.939  10.262
17512SOL     OW54432   0.716   2.382  12.461
17512SOL    HW154433   0.640   2.369  12.518
17512SOL    HW254434   0.684   2.437  12.390
17513SOL     OW54435  11.335  12.500   4.323
17513SOL    HW154436  11.338  12.511   4.228
17513SOL    HW254437  11.254  12.451   4.339
17514SOL     OW54438   0.299   4.924  14.850
17514SOL    HW154439   0.337   4.982  14.784
17514SOL    HW254440   0.373   4.874  14.883
17515SOL     OW54441   1.015   1.563   2.947
17515SOL    HW154442   1.023   1.581   3.040
17515SOL    HW254443   0.984   1.646   2.909
17516SOL     OW54444   9.477  10.260  14.078
17516SOL    HW154445   9.537  10.264  14.003
17516SOL    HW254446   9.405  10.319  14.054
17517SOL     OW54447   1.182   1.728   2.699
17517SOL    HW154448   1.218   1.641   2.680
17517SOL    HW254449   1.258   1.785   2.705
17518SOL     OW54450   3.009   3.314   8.986
17518SOL    HW154451   3.006   3.337   9.079
17518SOL    HW254452   3.019   3.219   8.985
17519SOL     OW54453   2.114   7.859   2.979
17519SOL    HW154454   2.193   7.814   3.012
17519SOL    HW254455   2.127   7.863   2.885
17520SOL     OW54456   1.084  10.932  10.220
17520SOL    HW154457   1.075  10.973  10.306
17520SOL    HW254458   1.068  11.003  10.158
17521SOL     OW54459   2.258  11.844  12.798
17521SOL    HW154460   2.210  11.777  12.847
17521SOL    HW254461   2.190  11.892  12.751
17522SOL     OW54462  14.276   3.566   9.347
17522SOL    HW154463  14.284   3.569   9.442
17522SOL    HW254464  14.327   3.641   9.316
17523SOL     OW54465   1.729   5.580   2.090
17523SOL    HW154466   1.810   5.632   2.090
17523SOL    HW254467   1.757   5.493   2.117
17524SOL     OW54468  11.334   2.728  10.098
17524SOL    HW154469  11.296   2.742  10.011
17524SOL    HW254470  11.287   2.652  10.133
17525SOL     OW54471   3.311  10.810   9.964
17525SOL    HW154472   3.358  10.726   9.961
17525SOL    HW254473   3.367  10.866  10.018
17526SOL     OW54474   2.043   4.748   0.395
17526SOL    HW154475   2.072   4.666   0.434
17526SOL    HW254476   1.973   4.779   0.452
17527SOL     OW54477  12.299  14.000  14.450
17527SOL    HW154478  12.386  14.033  14.432
17527SOL    HW254479  12.288  14.010  14.545
17528SOL     OW54480   5.238   4.297  14.567
17528SOL    HW154481   5.151   4.313  14.603
17528SOL    HW254482   5.298   4.328  14.636
17529SOL     OW54483  13.089   4.318   6.418
17529SOL    HW154484  13.172   4.291   6.457
17529SOL    HW254485  13.094   4.286   6.328
17530SOL     OW54486   8.373   9.472   0.391
17530SOL    HW154487   8.455   9.452   0.437
17530SOL    HW254488   8.363   9.400   0.329
17531SOL     OW54489   5.126  14.473   2.691
17531SOL    HW154490   5.118  14.435   2.604
17531SOL    HW254491   5.198  14.535   2.684
17532SOL     OW54492   7.596   3.836  14.874
17532SOL    HW154493   7.538   3.887   0.043
17532SOL    HW254494   7.556   3.840  14.787
17533SOL     OW54495  14.641  10.094   8.095
17533SOL    HW154496  14.724  10.138   8.112
17533SOL    HW254497  14.664  10.019   8.040
17534SOL     OW54498   2.833  11.142  12.951
17534SOL    HW154499   2.889  11.157  13.027
17534SOL    HW254500   2.764  11.083  12.983
17535SOL     OW54501   0.441   5.178   6.623
17535SOL    HW154502   0.407   5.116   6.687
17535SOL    HW254503   0.420   5.140   6.538
17536SOL     OW54504   9.718  14.707   3.484
17536SOL    HW154505   9.750  14.753   3.561
17536SOL    HW254506   9.767  14.625   3.482
17537SOL     OW54507   0.804  10.286   0.225
17537SOL    HW154508   0.709  10.270   0.229
17537SOL    HW254509   0.814  10.375   0.259
17538SOL     OW54510  12.892   0.402   4.045
17538SOL    HW154511  12.958   0.385   4.113
17538SOL    HW254512  12.924   0.355   3.968
17539SOL     OW54513   3.355   4.492   6.533
17539SOL    HW154514   3.263   4.479   6.509
17539SOL    HW254515   3.387   4.555   6.469
17540SOL     OW54516   9.656   4.454  11.006
17540SOL    HW154517   9.666   4.362  10.981
17540SOL    HW254518   9.639   4.500  10.923
17541SOL     OW54519   9.275   5.679  10.125
17541SOL    HW154520   9.212   5.751  10.114
17541SOL    HW254521   9.248   5.637  10.206
17542SOL     OW54522   2.106   9.738  14.871
17542SOL    HW154523   2.133   9.811  14.816
17542SOL    HW254524   2.068   9.779   0.062
17543SOL     OW54525   8.958   7.095   4.110
17543SOL    HW154526   8.994   7.156   4.175
17543SOL    HW254527   8.999   7.011   4.131
17544SOL     OW54528   4.906   3.754   5.747
17544SOL    HW154529   4.840   3.720   5.807
17544SOL    HW254530   4.982   3.697   5.761
17545SOL     OW54531  14.066  10.704   7.151
17545SOL    HW154532  14.129  10.654   7.204
17545SOL    HW254533  14.117  10.732   7.075
17546SOL     OW54534   8.670   3.387   1.057
17546SOL    HW154535   8.708   3.462   1.104
17546SOL    HW254536   8.583   3.377   1.094
17547SOL     OW54537   1.771   9.923   1.419
17547SOL    HW154538   1.861   9.936   1.451
17547SOL    HW254539   1.720   9.907   1.499
17548SOL     OW54540   9.078   5.333   1.233
17548SOL    HW154541   9.161   5.319   1.278
17548SOL    HW254542   9.076   5.428   1.216
17549SOL     OW54543  11.927  11.428   1.470
17549SOL    HW154544  11.879  11.403   1.549
17549SOL    HW254545  12.010  11.464   1.503
17550SOL     OW54546  13.357   0.618   7.536
17550SOL    HW154547  13.307   0.584   7.610
17550SOL    HW254548  13.445   0.581   7.548
17551SOL     OW54549  12.412   8.205   5.376
17551SOL    HW154550  12.348   8.260   5.420
17551SOL    HW254551  12.393   8.215   5.283
17552SOL     OW54552  11.164   0.048  13.821
17552SOL    HW154553  11.146   0.009  13.907
17552SOL    HW254554  11.096   0.115  13.810
17553SOL     OW54555  12.955   1.890   8.286
17553SOL    HW154556  13.046   1.919   8.290
17553SOL    HW254557  12.921   1.930   8.206
17554SOL     OW54558  10.488   6.926   1.577
17554SOL    HW154559  10.578   6.906   1.553
17554SOL    HW254560  10.472   7.013   1.540
17555SOL     OW54561  10.105   5.552   0.619
17555SOL    HW154562  10.186   5.563   0.669
17555SOL    HW254563  10.047   5.504   0.678
17556SOL     OW54564   9.527   1.062   0.522
17556SOL    HW154565   9.525   1.007   0.600
17556SOL    HW254566   9.446   1.112   0.525
17557SOL     OW54567   9.753  13.057  11.627
17557SOL    HW154568   9.687  13.107  11.674
17557SOL    HW254569   9.749  12.969  11.665
17558SOL     OW54570   3.695  13.682   0.287
17558SOL    HW154571   3.772  13.632   0.314
17558SOL    HW254572   3.657  13.714   0.369
17559SOL     OW54573   4.776   7.301   1.819
17559SOL    HW154574   4.830   7.278   1.895
17559SOL    HW254575   4.819   7.377   1.781
17560SOL     OW54576  12.950   8.862   2.356
17560SOL    HW154577  12.952   8.879   2.451
17560SOL    HW254578  12.908   8.777   2.348
17561SOL     OW54579  10.174  10.864   0.341
17561SOL    HW154580  10.224  10.842   0.420
17561SOL    HW254581  10.093  10.813   0.349
17562SOL     OW54582  13.387   2.670  12.267
17562SOL    HW154583  13.330   2.625  12.205
17562SOL    HW254584  13.413   2.751  12.221
17563SOL     OW54585   2.989   0.420  13.735
17563SOL    HW154586   2.938   0.343  13.710
17563SOL    HW254587   2.960   0.488  13.675
17564SOL     OW54588  11.470   7.355   0.663
17564SOL    HW154589  11.537   7.296   0.697
17564SOL    HW254590  11.466   7.426   0.728
17565SOL     OW54591  11.256   7.557  14.521
17565SOL    HW154592  11.230   7.529  14.609
17565SOL    HW254593  11.190   7.622  14.497
17566SOL     OW54594   5.205  12.929  11.217
17566SOL    HW154595   5.119  12.903  11.186
17566SOL    HW254596   5.239  12.988  11.149
17567SOL     OW54597   5.619  11.524   5.190
17567SOL    HW154598   5.569  11.446   5.166
17567SOL    HW254599   5.571  11.597   5.149
17568SOL     OW54600   8.161   8.623  12.728
17568SOL    HW154601   8.093   8.612  12.662
17568SOL    HW254602   8.177   8.535  12.762
17569SOL     OW54603  14.426   0.079   9.977
17569SOL    HW154604  14.450   0.035  10.059
17569SOL    HW254605  14.505   0.125   9.950
17570SOL     OW54606  10.855  13.587   4.393
17570SOL    HW154607  10.858  13.660   4.454
17570SOL    HW254608  10.933  13.534   4.413
17571SOL     OW54609   8.975   6.000  10.829
17571SOL    HW154610   9.055   5.973  10.783
17571SOL    HW254611   8.911   5.932  10.809
17572SOL     OW54612   4.372   6.254   1.264
17572SOL    HW154613   4.327   6.235   1.182
17572SOL    HW254614   4.464   6.244   1.244
17573SOL     OW54615   1.754   5.122  11.335
17573SOL    HW154616   1.736   5.054  11.400
17573SOL    HW254617   1.827   5.086  11.284
17574SOL     OW54618  12.308   9.819   3.381
17574SOL    HW154619  12.217   9.848   3.386
17574SOL    HW254620  12.312   9.769   3.299
17575SOL     OW54621  14.700  13.999  13.631
17575SOL    HW154622  14.655  14.054  13.567
17575SOL    HW254623  14.642  13.923  13.642
17576SOL     OW54624   9.690   4.973   3.228
17576SOL    HW154625   9.613   4.950   3.176
17576SOL    HW254626   9.669   4.948   3.317
17577SOL     OW54627   3.135   3.726   5.098
17577SOL    HW154628   3.152   3.679   5.016
17577SOL    HW254629   3.047   3.762   5.087
17578SOL     OW54630  14.603  14.407   2.266
17578SOL    HW154631  14.667  14.364   2.210
17578SOL    HW254632  14.557  14.335   2.309
17579SOL     OW54633   8.561   0.738   6.507
17579SOL    HW154634   8.491   0.680   6.538
17579SOL    HW254635   8.629   0.680   6.475
17580SOL     OW54636   6.054   4.108   6.211
17580SOL    HW154637   6.145   4.130   6.232
17580SOL    HW254638   6.004   4.187   6.233
17581SOL     OW54639   6.354  10.152   3.020
17581SOL    HW154640   6.360  10.199   2.936
17581SOL    HW254641   6.297  10.077   3.001
17582SOL     OW54642   8.854   9.400  14.727
17582SOL    HW154643   8.803   9.329  14.763
17582SOL    HW254644   8.888   9.447  14.804
17583SOL     OW54645  10.471   5.403   0.114
17583SOL    HW154646  10.566   5.405   0.125
17583SOL    HW254647  10.450   5.311   0.098
17584SOL     OW54648   4.740   1.743   0.362
17584SOL    HW154649   4.652   1.742   0.400
17584SOL    HW254650   4.799   1.756   0.436
17585SOL     OW54651   0.504   7.472   3.889
17585SOL    HW154652   0.410   7.465   3.874
17585SOL    HW254653   0.535   7.382   3.889
17586SOL     OW54654   7.283  14.779  13.280
17586SOL    HW154655   7.287  14.810  13.370
17586SOL    HW254656   7.208  14.720  13.277
17587SOL     OW54657   4.946  14.657   1.821
17587SOL    HW154658   5.014  14.649   1.888
17587SOL    HW254659   4.864  14.654   1.870
17588SOL     OW54660   9.342   4.732   3.329
17588SOL    HW154661   9.304   4.772   3.408
17588SOL    HW254662   9.281   4.754   3.259
17589SOL     OW54663   6.182   9.607  12.119
17589SOL    HW154664   6.195   9.566  12.033
17589SOL    HW254665   6.122   9.679  12.101
17590SOL     OW54666   4.371   2.185   4.002
17590SOL    HW154667   4.298   2.195   4.063
17590SOL    HW254668   4.425   2.116   4.041
17591SOL     OW54669  12.840   8.354   6.174
17591SOL    HW154670  12.750   8.383   6.186
17591SOL    HW254671  12.891   8.409   6.235
17592SOL     OW54672   5.526   4.855   1.748
17592SOL    HW154673   5.494   4.881   1.661
17592SOL    HW254674   5.457   4.799   1.783
17593SOL     OW54675   0.016   3.596   3.450
17593SOL    HW154676   0.055   3.511   3.431
17593SOL    HW254677  14.836   3.608   3.383
17594SOL     OW54678   8.771   9.903   9.686
17594SOL    HW154679   8.697   9.949   9.726
17594SOL    HW254680   8.847   9.958   9.707
17595SOL     OW54681   9.853  12.893  11.400
17595SOL    HW154682   9.773  12.864  11.355
17595SOL    HW254683   9.824  12.966  11.454
17596SOL     OW54684   7.328   0.790  14.152
17596SOL    HW154685   7.349   0.719  14.091
17596SOL    HW254686   7.345   0.754  14.239
17597SOL     OW54687   4.014  14.234   2.316
17597SOL    HW154688   3.938  14.203   2.267
17597SOL    HW254689   4.052  14.301   2.259
17598SOL     OW54690   0.596  10.032   5.381
17598SOL    HW154691   0.539  10.090   5.331
17598SOL    HW254692   0.587   9.947   5.338
17599SOL     OW54693   2.737   5.150   1.241
17599SOL    HW154694   2.767   5.062   1.221
17599SOL    HW254695   2.697   5.143   1.328
17600SOL     OW54696  12.911   1.406   6.463
17600SOL    HW154697  12.827   1.449   6.478
17600SOL    HW254698  12.950   1.453   6.390
17601SOL     OW54699   8.968   8.103   6.408
17601SOL    HW154700   8.979   8.091   6.502
17601SOL    HW254701   8.875   8.088   6.393
17602SOL     OW54702   4.491   8.302   6.515
17602SOL    HW154703   4.489   8.300   6.611
17602SOL    HW254704   4.544   8.379   6.494
17603SOL     OW54705  12.844  10.976   8.034
17603SOL    HW154706  12.881  10.897   8.074
17603SOL    HW254707  12.914  11.009   7.977
17604SOL     OW54708   1.449   5.174   7.895
17604SOL    HW154709   1.537   5.182   7.858
17604SOL    HW254710   1.417   5.090   7.864
17605SOL     OW54711  14.811   8.320  13.355
17605SOL    HW154712  14.750   8.388  13.384
17605SOL    HW254713  14.845   8.353  13.271
17606SOL     OW54714   8.819  12.027   4.952
17606SOL    HW154715   8.824  12.119   4.980
17606SOL    HW254716   8.862  12.027   4.866
17607SOL     OW54717  14.170   1.473   4.521
17607SOL    HW154718  14.129   1.387   4.509
17607SOL    HW254719  14.263   1.458   4.499
17608SOL     OW54720   6.612   4.602   2.029
17608SOL    HW154721   6.566   4.674   2.071
17608SOL    HW254722   6.543   4.551   1.986
17609SOL     OW54723   6.601   4.864  13.918
17609SOL    HW154724   6.651   4.783  13.913
17609SOL    HW254725   6.513   4.839  13.890
17610SOL     OW54726  14.498   3.135  13.230
17610SOL    HW154727  14.447   3.144  13.311
17610SOL    HW254728  14.439   3.089  13.170
17611SOL     OW54729   9.311  10.112   7.764
17611SOL    HW154730   9.236  10.065   7.801
17611SOL    HW254731   9.276  10.197   7.739
17612SOL     OW54732  10.657   8.871   7.890
17612SOL    HW154733  10.726   8.805   7.888
17612SOL    HW254734  10.701   8.953   7.866
17613SOL     OW54735  10.910   6.529  11.913
17613SOL    HW154736  10.912   6.608  11.859
17613SOL    HW254737  10.992   6.532  11.962
17614SOL     OW54738   1.237   3.608   8.617
17614SOL    HW154739   1.250   3.570   8.704
17614SOL    HW254740   1.325   3.624   8.584
17615SOL     OW54741   2.608  10.084  12.011
17615SOL    HW154742   2.647  10.031  12.080
17615SOL    HW254743   2.679  10.139  11.980
17616SOL     OW54744   8.030   9.715  14.418
17616SOL    HW154745   8.031   9.639  14.476
17616SOL    HW254746   8.111   9.709  14.368
17617SOL     OW54747   8.512  10.583  11.275
17617SOL    HW154748   8.571  10.617  11.208
17617SOL    HW254749   8.547  10.616  11.357
17618SOL     OW54750   8.215  11.074   4.759
17618SOL    HW154751   8.254  11.037   4.680
17618SOL    HW254752   8.152  11.008   4.788
17619SOL     OW54753   3.748  14.198   5.573
17619SOL    HW154754   3.703  14.240   5.646
17619SOL    HW254755   3.841  14.204   5.594
17620SOL     OW54756   1.751   0.136   5.283
17620SOL    HW154757   1.789   0.072   5.222
17620SOL    HW254758   1.696   0.084   5.342
17621SOL     OW54759   3.421  13.801  12.872
17621SOL    HW154760   3.467  13.718  12.859
17621SOL    HW254761   3.441  13.852  12.794
17622SOL     OW54762   8.828  11.575  11.643
17622SOL    HW154763   8.848  11.610  11.556
17622SOL    HW254764   8.747  11.620  11.669
17623SOL     OW54765   6.541   3.458   4.193
17623SOL    HW154766   6.612   3.499   4.242
17623SOL    HW254767   6.578   3.442   4.106
17624SOL     OW54768  11.050   1.454  12.607
17624SOL    HW154769  11.125   1.423  12.556
17624SOL    HW254770  10.978   1.455  12.545
17625SOL     OW54771  10.796  14.502  10.646
17625SOL    HW154772  10.810  14.589  10.610
17625SOL    HW254773  10.764  14.450  10.572
17626SOL     OW54774   9.919   0.780   6.174
17626SOL    HW154775   9.868   0.850   6.215
17626SOL    HW254776   9.965   0.739   6.248
17627SOL     OW54777  13.867   4.020   1.553
17627SOL    HW154778  13.869   4.070   1.634
17627SOL    HW254779  13.798   4.062   1.500
17628SOL     OW54780   5.818   6.950   0.184
17628SOL    HW154781   5.913   6.954   0.181
17628SOL    HW254782   5.797   6.857   0.186
17629SOL     OW54783   8.348  11.619  11.513
17629SOL    HW154784   8.371  11.709  11.537
17629SOL    HW254785   8.338  11.575  11.597
17630SOL     OW54786  14.221   7.137   9.140
17630SOL    HW154787  14.285   7.136   9.068
17630SOL    HW254788  14.136   7.142   9.096
17631SOL     OW54789   8.343   4.597  10.869
17631SOL    HW154790   8.349   4.540  10.945
17631SOL    HW254791   8.308   4.679  10.903
17632SOL     OW54792  11.665   9.387  10.066
17632SOL    HW154793  11.702   9.306  10.102
17632SOL    HW254794  11.695   9.456  10.126
17633SOL     OW54795   7.523   3.238   5.852
17633SOL    HW154796   7.506   3.237   5.757
17633SOL    HW254797   7.618   3.232   5.860
17634SOL     OW54798  10.607  14.335  10.150
17634SOL    HW154799  10.631  14.420  10.188
17634SOL    HW254800  10.513  14.328  10.164
17635SOL     OW54801  10.410   7.873   7.404
17635SOL    HW154802  10.393   7.779   7.398
17635SOL    HW254803  10.396   7.906   7.315
17636SOL     OW54804  11.582   0.073   1.708
17636SOL    HW154805  11.640   0.146   1.686
17636SOL    HW254806  11.619   0.035   1.787
17637SOL     OW54807   1.661   9.695   5.590
17637SOL    HW154808   1.580   9.646   5.575
17637SOL    HW254809   1.719   9.633   5.632
17638SOL     OW54810  14.099  13.993   9.872
17638SOL    HW154811  14.154  13.917   9.890
17638SOL    HW254812  14.140  14.036   9.797
17639SOL     OW54813   7.353  10.685   5.201
17639SOL    HW154814   7.379  10.685   5.109
17639SOL    HW254815   7.264  10.649   5.201
17640SOL     OW54816   8.118   2.561   4.963
17640SOL    HW154817   8.140   2.646   5.001
17640SOL    HW254818   8.081   2.582   4.877
17641SOL     OW54819   7.102   0.189  10.491
17641SOL    HW154820   7.011   0.201  10.466
17641SOL    HW254821   7.117   0.095  10.484
17642SOL     OW54822   1.241   2.515   8.782
17642SOL    HW154823   1.313   2.576   8.794
17642SOL    HW254824   1.164   2.559   8.818
17643SOL     OW54825  10.485  11.576   8.548
17643SOL    HW154826  10.481  11.666   8.514
17643SOL    HW254827  10.403  11.536   8.520
17644SOL     OW54828   7.277  12.498   4.562
17644SOL    HW154829   7.271  12.591   4.582
17644SOL    HW254830   7.343  12.465   4.622
17645SOL     OW54831  14.414   0.836   6.523
17645SOL    HW154832  14.461   0.892   6.584
17645SOL    HW254833  14.339   0.888   6.495
17646SOL     OW54834   5.389   8.913  10.918
17646SOL    HW154835   5.449   8.898  10.991
17646SOL    HW254836   5.302   8.910  10.958
17647SOL     OW54837  11.567   4.397   8.976
17647SOL    HW154838  11.543   4.470   8.919
17647SOL    HW254839  11.648   4.425   9.018
17648SOL     OW54840   1.838   5.440  13.226
17648SOL    HW154841   1.775   5.512  13.214
17648SOL    HW254842   1.783   5.365  13.248
17649SOL     OW54843  12.201   1.870  11.816
17649SOL    HW154844  12.269   1.810  11.785
17649SOL    HW254845  12.234   1.957  11.795
17650SOL     OW54846   7.614   7.368  10.641
17650SOL    HW154847   7.652   7.308  10.577
17650SOL    HW254848   7.558   7.426  10.590
17651SOL     OW54849   0.272   7.009   9.476
17651SOL    HW154850   0.289   6.937   9.537
17651SOL    HW254851   0.355   7.057   9.472
17652SOL     OW54852   8.863   9.897   7.195
17652SOL    HW154853   8.879   9.808   7.226
17652SOL    HW254854   8.885   9.894   7.102
17653SOL     OW54855   9.195   9.175  11.146
17653SOL    HW154856   9.272   9.197  11.199
17653SOL    HW254857   9.133   9.246  11.163
17654SOL     OW54858   7.157   3.584   4.333
17654SOL    HW154859   7.181   3.676   4.346
17654SOL    HW254860   7.122   3.581   4.244
17655SOL     OW54861  14.744   9.513   3.690
17655SOL    HW154862  14.771   9.444   3.751
17655SOL    HW254863  14.825   9.560   3.670
17656SOL     OW54864   2.020  13.277   1.350
17656SOL    HW154865   1.929  13.266   1.378
17656SOL    HW254866   2.051  13.353   1.400
17657SOL     OW54867   2.486  12.798   5.444
17657SOL    HW154868   2.543  12.790   5.368
17657SOL    HW254869   2.533  12.858   5.502
17658SOL     OW54870   8.959   6.755   6.617
17658SOL    HW154871   9.016   6.735   6.543
17658SOL    HW254872   9.008   6.820   6.669
17659SOL     OW54873   0.165  10.021   9.468
17659SOL    HW154874   0.244  10.010   9.415
17659SOL    HW254875   0.170   9.951   9.533
17660SOL     OW54876   1.302   3.709  12.618
17660SOL    HW154877   1.334   3.799  12.629
17660SOL    HW254878   1.382   3.656  12.615
17661SOL     OW54879  12.765  13.063   1.341
17661SOL    HW154880  12.805  13.034   1.259
17661SOL    HW254881  12.696  13.124   1.314
17662SOL     OW54882   5.584   1.378  10.017
17662SOL    HW154883   5.531   1.432  10.076
17662SOL    HW254884   5.539   1.293  10.016
17663SOL     OW54885   7.920   2.667   7.433
17663SOL    HW154886   7.881   2.627   7.356
17663SOL    HW254887   7.981   2.601   7.466
17664SOL     OW54888  12.127   1.155   9.447
17664SOL    HW154889  12.190   1.094   9.485
17664SOL    HW254890  12.168   1.184   9.365
17665SOL     OW54891   3.806   5.347   6.701
17665SOL    HW154892   3.854   5.310   6.627
17665SOL    HW254893   3.782   5.435   6.673
17666SOL     OW54894  11.487   1.801   9.774
17666SOL    HW154895  11.523   1.860   9.840
17666SOL    HW254896  11.563   1.774   9.722
17667SOL     OW54897  10.301  13.174   7.757
17667SOL    HW154898  10.301  13.184   7.662
17667SOL    HW254899  10.342  13.254   7.790
17668SOL     OW54900   5.861   3.539  10.399
17668SOL    HW154901   5.872   3.468  10.336
17668SOL    HW254902   5.767   3.539  10.419
17669SOL     OW54903   0.292   8.197  13.669
17669SOL    HW154904   0.280   8.189  13.575
17669SOL    HW254905   0.361   8.262  13.679
17670SOL     OW54906   3.169   9.188   6.010
17670SOL    HW154907   3.084   9.231   6.014
17670SOL    HW254908   3.221   9.244   5.952
17671SOL     OW54909  13.385   7.231  12.113
17671SOL    HW154910  13.302   7.207  12.155
17671SOL    HW254911  13.370   7.216  12.020
17672SOL     OW54912   6.666   4.417  10.153
17672SOL    HW154913   6.719   4.451  10.081
17672SOL    HW254914   6.592   4.476  10.159
17673SOL     OW54915  10.174  12.737   7.211
17673SOL    HW154916  10.155  12.699   7.126
17673SOL    HW254917  10.261  12.704   7.234
17674SOL     OW54918  13.230  14.231   2.921
17674SOL    HW154919  13.288  14.300   2.952
17674SOL    HW254920  13.287  14.175   2.868
17675SOL     OW54921  11.311  11.973   7.922
17675SOL    HW154922  11.297  12.013   8.008
17675SOL    HW254923  11.397  12.005   7.896
17676SOL     OW54924   3.127   6.454  13.492
17676SOL    HW154925   3.089   6.533  13.452
17676SOL    HW254926   3.207   6.438  13.441
17677SOL     OW54927   4.578   4.942   0.931
17677SOL    HW154928   4.515   4.872   0.916
17677SOL    HW254929   4.525   5.017   0.960
17678SOL     OW54930  12.354  10.868   3.774
17678SOL    HW154931  12.405  10.873   3.855
17678SOL    HW254932  12.281  10.810   3.796
17679SOL     OW54933   0.866  12.067   7.803
17679SOL    HW154934   0.824  12.071   7.718
17679SOL    HW254935   0.819  12.131   7.857
17680SOL     OW54936   0.920   3.314  11.235
17680SOL    HW154937   0.847   3.279  11.285
17680SOL    HW254938   0.944   3.244  11.175
17681SOL     OW54939   2.555   7.860   7.028
17681SOL    HW154940   2.516   7.837   7.112
17681SOL    HW254941   2.600   7.780   6.999
17682SOL     OW54942   5.345   8.666  14.348
17682SOL    HW154943   5.296   8.594  14.310
17682SOL    HW254944   5.335   8.655  14.443
17683SOL     OW54945  11.314  13.785   1.599
17683SOL    HW154946  11.262  13.864   1.618
17683SOL    HW254947  11.327  13.787   1.505
17684SOL     OW54948  13.277   3.398   1.361
17684SOL    HW154949  13.298   3.305   1.350
17684SOL    HW254950  13.285   3.412   1.456
17685SOL     OW54951  13.779  12.193   1.789
17685SOL    HW154952  13.813  12.282   1.788
17685SOL    HW254953  13.690  12.200   1.823
17686SOL     OW54954   9.648  11.909  14.690
17686SOL    HW154955   9.688  11.909  14.603
17686SOL    HW254956   9.692  11.838  14.736
17687SOL     OW54957   2.202  14.659  12.873
17687SOL    HW154958   2.226  14.752  12.871
17687SOL    HW254959   2.275  14.616  12.917
17688SOL     OW54960   9.096   2.854   9.821
17688SOL    HW154961   9.123   2.946   9.827
17688SOL    HW254962   9.049   2.849   9.738
17689SOL     OW54963   7.024   2.299  14.749
17689SOL    HW154964   7.054   2.295  14.839
17689SOL    HW254965   6.932   2.326  14.755
17690SOL     OW54966  12.551   3.203   8.527
17690SOL    HW154967  12.608   3.279   8.534
17690SOL    HW254968  12.597   3.144   8.467
17691SOL     OW54969  12.740   9.395  13.236
17691SOL    HW154970  12.717   9.368  13.325
17691SOL    HW254971  12.768   9.315  13.193
17692SOL     OW54972  11.490   8.228   9.848
17692SOL    HW154973  11.492   8.314   9.807
17692SOL    HW254974  11.548   8.237   9.924
17693SOL     OW54975   4.038  10.619  11.791
17693SOL    HW154976   4.017  10.694  11.735
17693SOL    HW254977   4.132  10.626  11.808
17694SOL     OW54978  11.842  14.421   9.734
17694SOL    HW154979  11.750  14.396   9.735
17694SOL    HW254980  11.878  14.380   9.655
17695SOL     OW54981   7.733  11.499   1.923
17695SOL    HW154982   7.719  11.408   1.949
17695SOL    HW254983   7.821  11.520   1.954
17696SOL     OW54984  12.435   6.453  12.621
17696SOL    HW154985  12.367   6.410  12.673
17696SOL    HW254986  12.468   6.523  12.677
17697SOL     OW54987  10.061  13.224  10.144
17697SOL    HW154988  10.140  13.196  10.098
17697SOL    HW254989  10.005  13.147  10.145
17698SOL     OW54990   6.720   6.725   2.440
17698SOL    HW154991   6.765   6.690   2.516
17698SOL    HW254992   6.628   6.727   2.466
17699SOL     OW54993  11.865   7.127   7.601
17699SOL    HW154994  11.874   7.222   7.609
17699SOL    HW254995  11.819   7.115   7.517
17700SOL     OW54996   9.908  10.289  12.976
17700SOL    HW154997   9.994  10.248  12.972
17700SOL    HW254998   9.887  10.292  13.069
17701SOL     OW54999   6.427   4.491   6.798
17701SOL    HW155000   6.442   4.412   6.851
17701SOL    HW255001   6.358   4.538   6.845
17702SOL     OW55002   3.635  10.855   4.132
17702SOL    HW155003   3.566  10.844   4.067
17702SOL    HW255004   3.716  10.862   4.081
17703SOL     OW55005   8.581   0.539  10.888
17703SOL    HW155006   8.650   0.528  10.823
17703SOL    HW255007   8.587   0.461  10.943
17704SOL     OW55008   9.131  11.804  14.528
17704SOL    HW155009   9.223  11.826  14.540
17704SOL    HW255010   9.128  11.754  14.447
17705SOL     OW55011   5.885  10.008   4.363
17705SOL    HW155012   5.803   9.961   4.377
17705SOL    HW255013   5.861  10.081   4.304
17706SOL     OW55014   1.401   5.682   4.142
17706SOL    HW155015   1.412   5.765   4.095
17706SOL    HW255016   1.320   5.645   4.106
17707SOL     OW55017  13.210   7.092   2.508
17707SOL    HW155018  13.131   7.038   2.498
17707SOL    HW255019  13.209   7.151   2.432
17708SOL     OW55020   2.475   8.721   5.128
17708SOL    HW155021   2.566   8.749   5.132
17708SOL    HW255022   2.475   8.632   5.163
17709SOL     OW55023   4.979   6.926   9.784
17709SOL    HW155024   4.912   6.932   9.715
17709SOL    HW255025   5.054   6.887   9.741
17710SOL     OW55026   6.867   4.849   8.635
17710SOL    HW155027   6.825   4.881   8.715
17710SOL    HW255028   6.860   4.753   8.641
17711SOL     OW55029  12.305   8.502   5.942
17711SOL    HW155030  12.345   8.428   5.989
17711SOL    HW255031  12.374   8.533   5.884
17712SOL     OW55032   8.140  10.267   1.451
17712SOL    HW155033   8.087  10.187   1.456
17712SOL    HW255034   8.217  10.249   1.504
17713SOL     OW55035  13.909   7.436  14.394
17713SOL    HW155036  13.817   7.460  14.386
17713SOL    HW255037  13.956   7.503  14.344
17714SOL     OW55038  12.390   7.814   6.567
17714SOL    HW155039  12.317   7.782   6.620
17714SOL    HW255040  12.360   7.806   6.477
17715SOL     OW55041   6.726   6.374   3.077
17715SOL    HW155042   6.706   6.449   3.021
17715SOL    HW255043   6.674   6.389   3.156
17716SOL     OW55044  13.608  14.131   9.536
17716SOL    HW155045  13.526  14.131   9.486
17716SOL    HW255046  13.639  14.222   9.532
17717SOL     OW55047   0.626   1.969   6.122
17717SOL    HW155048   0.536   1.949   6.096
17717SOL    HW255049   0.680   1.929   6.054
17718SOL     OW55050   0.735   5.880   5.803
17718SOL    HW155051   0.742   5.875   5.707
17718SOL    HW255052   0.782   5.960   5.826
17719SOL     OW55053   1.992   7.831   4.243
17719SOL    HW155054   2.060   7.891   4.213
17719SOL    HW255055   1.992   7.760   4.179
17720SOL     OW55056   5.168  13.243   0.866
17720SOL    HW155057   5.174  13.316   0.927
17720SOL    HW255058   5.255  13.237   0.827
17721SOL     OW55059   1.971   1.029  11.709
17721SOL    HW155060   1.945   1.103  11.763
17721SOL    HW255061   1.904   1.024  11.640
17722SOL     OW55062   4.151   4.657  10.180
17722SOL    HW155063   4.227   4.715  10.185
17722SOL    HW255064   4.184   4.571  10.205
17723SOL     OW55065   2.531   9.866   3.791
17723SOL    HW155066   2.607   9.842   3.737
17723SOL    HW255067   2.568   9.914   3.865
17724SOL     OW55068  14.166   3.276   7.389
17724SOL    HW155069  14.139   3.237   7.473
17724SOL    HW255070  14.261   3.265   7.387
17725SOL     OW55071  12.621   8.389  11.920
17725SOL    HW155072  12.550   8.329  11.941
17725SOL    HW255073  12.694   8.359  11.975
17726SOL     OW55074  10.503   4.739   9.214
17726SOL    HW155075  10.451   4.787   9.149
17726SOL    HW255076  10.574   4.799   9.237
17727SOL     OW55077   1.423  12.817  12.536
17727SOL    HW155078   1.439  12.753  12.467
17727SOL    HW255079   1.410  12.900  12.489
17728SOL     OW55080   5.080   1.849  14.774
17728SOL    HW155081   5.168   1.880  14.797
17728SOL    HW255082   5.094   1.763  14.736
17729SOL     OW55083   0.699  13.213   3.859
17729SOL    HW155084   0.654  13.154   3.920
17729SOL    HW255085   0.629  13.247   3.803
17730SOL     OW55086   7.717  13.041   7.316
17730SOL    HW155087   7.641  13.092   7.346
17730SOL    HW255088   7.680  12.956   7.293
17731SOL     OW55089   5.664   4.905  12.314
17731SOL    HW155090   5.753   4.870  12.312
17731SOL    HW255091   5.641   4.919  12.222
17732SOL     OW55092  10.445  13.989   1.536
17732SOL    HW155093  10.480  13.911   1.578
17732SOL    HW255094  10.418  13.959   1.449
17733SOL     OW55095  14.151   1.784  12.229
17733SOL    HW155096  14.199   1.711  12.269
17733SOL    HW255097  14.082   1.804  12.293
17734SOL     OW55098  14.030   9.024  12.258
17734SOL    HW155099  13.994   9.098  12.308
17734SOL    HW255100  14.101   9.063  12.206
17735SOL     OW55101   9.241   1.105  14.467
17735SOL    HW155102   9.263   1.058  14.547
17735SOL    HW255103   9.322   1.105  14.416
17736SOL     OW55104   1.869   4.967   0.017
17736SOL    HW155105   1.785   4.986   0.059
17736SOL    HW255106   1.919   5.048   0.025
17737SOL     OW55107   4.552   5.393  11.591
17737SOL    HW155108   4.552   5.300  11.572
17737SOL    HW255109   4.634   5.409  11.639
17738SOL     OW55110   2.943  10.660   3.209
17738SOL    HW155111   2.937  10.585   3.269
17738SOL    HW255112   2.855  10.668   3.172
17739SOL     OW55113   4.444  12.750  13.603
17739SOL    HW155114   4.508  12.744  13.532
17739SOL    HW255115   4.497  12.758  13.683
17740SOL     OW55116   7.099  10.917   5.926
17740SOL    HW155117   7.064  10.950   5.844
17740SOL    HW255118   7.095  10.992   5.986
17741SOL     OW55119  14.385   0.123  11.997
17741SOL    HW155120  14.348   0.210  12.011
17741SOL    HW255121  14.480   0.136  12.003
17742SOL     OW55122   8.316   7.556  10.343
17742SOL    HW155123   8.237   7.540  10.292
17742SOL    HW255124   8.374   7.483  10.320
17743SOL     OW55125  10.269   7.006   3.842
17743SOL    HW155126  10.244   7.081   3.788
17743SOL    HW255127  10.186   6.975   3.879
17744SOL     OW55128   3.892  10.593   6.843
17744SOL    HW155129   3.827  10.545   6.792
17744SOL    HW255130   3.974  10.581   6.794
17745SOL     OW55131   5.600   5.879   3.282
17745SOL    HW155132   5.633   5.815   3.219
17745SOL    HW255133   5.660   5.953   3.274
17746SOL     OW55134   7.775   0.422  10.525
17746SOL    HW155135   7.795   0.511  10.495
17746SOL    HW255136   7.856   0.373  10.511
17747SOL     OW55137  10.545   8.839  11.573
17747SOL    HW155138  10.519   8.929  11.592
17747SOL    HW255139  10.640   8.844  11.556
17748SOL     OW55140   2.257   8.435   7.021
17748SOL    HW155141   2.351   8.424   7.006
17748SOL    HW255142   2.250   8.516   7.071
17749SOL     OW55143  14.458   9.650   7.245
17749SOL    HW155144  14.486   9.742   7.250
17749SOL    HW255145  14.464   9.628   7.153
17750SOL     OW55146   1.477  13.332   5.444
17750SOL    HW155147   1.448  13.248   5.479
17750SOL    HW255148   1.465  13.324   5.349
17751SOL     OW55149   4.719   7.474  11.263
17751SOL    HW155150   4.667   7.522  11.198
17751SOL    HW255151   4.666   7.479  11.343
17752SOL     OW55152   1.283   5.897   4.509
17752SOL    HW155153   1.221   5.832   4.476
17752SOL    HW255154   1.317   5.858   4.590
17753SOL     OW55155   8.526   0.449  14.369
17753SOL    HW155156   8.436   0.417  14.367
17753SOL    HW255157   8.517   0.543  14.382
17754SOL     OW55158   1.205   2.510   6.234
17754SOL    HW155159   1.155   2.551   6.164
17754SOL    HW255160   1.218   2.420   6.204
17755SOL     OW55161   6.514  14.725   0.685
17755SOL    HW155162   6.502  14.731   0.779
17755SOL    HW255163   6.476  14.640   0.661
17756SOL     OW55164  14.315   9.563   9.115
17756SOL    HW155165  14.380   9.493   9.111
17756SOL    HW255166  14.364   9.643   9.093
17757SOL     OW55167   1.259  12.910   1.770
17757SOL    HW155168   1.229  12.975   1.834
17757SOL    HW255169   1.207  12.928   1.692
17758SOL     OW55170   1.307   7.641  12.571
17758SOL    HW155171   1.352   7.604  12.495
17758SOL    HW255172   1.231   7.585  12.585
17759SOL     OW55173   9.712   4.657  11.859
17759SOL    HW155174   9.739   4.616  11.941
17759SOL    HW255175   9.623   4.688  11.876
17760SOL     OW55176  11.119   2.752  13.492
17760SOL    HW155177  11.054   2.715  13.432
17760SOL    HW255178  11.174   2.808  13.437
17761SOL     OW55179   5.766   1.361   5.704
17761SOL    HW155180   5.719   1.294   5.654
17761SOL    HW255181   5.708   1.437   5.702
17762SOL     OW55182  11.506   6.984   2.548
17762SOL    HW155183  11.447   7.045   2.504
17762SOL    HW255184  11.520   6.914   2.485
17763SOL     OW55185   8.026  14.268   8.707
17763SOL    HW155186   8.056  14.338   8.648
17763SOL    HW255187   7.969  14.313   8.770
17764SOL     OW55188   5.906   9.870   2.834
17764SOL    HW155189   5.935   9.792   2.785
17764SOL    HW255190   5.812   9.858   2.844
17765SOL     OW55191   9.722   2.838  14.808
17765SOL    HW155192   9.631   2.860  14.829
17765SOL    HW255193   9.744   2.768  14.870
17766SOL     OW55194  10.394  14.243   1.618
17766SOL    HW155195  10.359  14.155   1.607
17766SOL    HW255196  10.484  14.237   1.586
17767SOL     OW55197   6.448  11.542   6.197
17767SOL    HW155198   6.512  11.604   6.161
17767SOL    HW255199   6.374  11.546   6.136
17768SOL     OW55200  11.669   2.784   8.966
17768SOL    HW155201  11.662   2.705   9.020
17768SOL    HW255202  11.616   2.849   9.012
17769SOL     OW55203   4.284   0.610   1.725
17769SOL    HW155204   4.293   0.676   1.794
17769SOL    HW255205   4.374   0.584   1.705
17770SOL     OW55206   3.337   5.976  14.375
17770SOL    HW155207   3.420   6.009  14.341
17770SOL    HW255208   3.286   6.055  14.393
17771SOL     OW55209   1.145  13.461  10.541
17771SOL    HW155210   1.070  13.511  10.574
17771SOL    HW255211   1.147  13.481  10.447
17772SOL     OW55212   8.065   7.868   0.347
17772SOL    HW155213   8.074   7.958   0.314
17772SOL    HW255214   8.146   7.854   0.396
17773SOL     OW55215   7.040   0.227   2.347
17773SOL    HW155216   7.114   0.169   2.370
17773SOL    HW255217   7.081   0.304   2.309
17774SOL     OW55218   9.581   3.548   2.151
17774SOL    HW155219   9.513   3.610   2.127
17774SOL    HW255220   9.659   3.579   2.104
17775SOL     OW55221   1.924   6.325  10.051
17775SOL    HW155222   2.007   6.334  10.099
17775SOL    HW255223   1.903   6.414  10.023
17776SOL     OW55224   6.152   9.900   6.512
17776SOL    HW155225   6.104   9.824   6.545
17776SOL    HW255226   6.108   9.975   6.552
17777SOL     OW55227   2.483   2.677   4.394
17777SOL    HW155228   2.418   2.747   4.390
17777SOL    HW255229   2.540   2.693   4.319
17778SOL     OW55230  10.090   2.489   6.541
17778SOL    HW155231  10.064   2.543   6.467
17778SOL    HW255232  10.013   2.486   6.598
17779SOL     OW55233  13.369   6.856   2.327
17779SOL    HW155234  13.459   6.848   2.296
17779SOL    HW255235  13.378   6.882   2.419
17780SOL     OW55236  13.238  13.488   8.645
17780SOL    HW155237  13.286  13.484   8.728
17780SOL    HW255238  13.288  13.550   8.591
17781SOL     OW55239  14.256   0.862   0.273
17781SOL    HW155240  14.323   0.930   0.264
17781SOL    HW255241  14.243   0.829   0.184
17782SOL     OW55242   5.382   1.149   1.606
17782SOL    HW155243   5.306   1.115   1.653
17782SOL    HW255244   5.354   1.154   1.514
17783SOL     OW55245   3.189   2.183  11.728
17783SOL    HW155246   3.206   2.275  11.708
17783SOL    HW255247   3.250   2.163  11.799
17784SOL     OW55248  11.032   4.096   1.413
17784SOL    HW155249  10.941   4.115   1.434
17784SOL    HW255250  11.059   4.168   1.356
17785SOL     OW55251  11.014   1.238   5.560
17785SOL    HW155252  11.014   1.325   5.519
17785SOL    HW255253  11.094   1.197   5.528
17786SOL     OW55254   9.159   8.752   2.247
17786SOL    HW155255   9.226   8.782   2.185
17786SOL    HW255256   9.084   8.810   2.232
17787SOL     OW55257  12.072   8.656   1.818
17787SOL    HW155258  12.142   8.590   1.815
17787SOL    HW255259  12.047   8.668   1.726
17788SOL     OW55260   9.273   6.254   3.893
17788SOL    HW155261   9.187   6.259   3.850
17788SOL    HW255262   9.258   6.201   3.971
17789SOL     OW55263  14.643  11.228   4.509
17789SOL    HW155264  14.620  11.178   4.587
17789SOL    HW255265  14.734  11.203   4.491
17790SOL     OW55266  14.433   4.219  13.191
17790SOL    HW155267  14.354   4.221  13.138
17790SOL    HW255268  14.462   4.128  13.188
17791SOL     OW55269   8.775  12.351   6.809
17791SOL    HW155270   8.788  12.256   6.809
17791SOL    HW255271   8.739  12.371   6.723
17792SOL     OW55272   1.837   5.369  14.401
17792SOL    HW155273   1.779   5.407  14.466
17792SOL    HW255274   1.791   5.380  14.318
17793SOL     OW55275   5.709  14.845   7.048
17793SOL    HW155276   5.788  14.869   7.097
17793SOL    HW255277   5.665   0.041   7.029
17794SOL     OW55278   2.689   8.122   4.290
17794SOL    HW155279   2.781   8.130   4.312
17794SOL    HW255280   2.688   8.099   4.197
17795SOL     OW55281   3.487   7.073   5.978
17795SOL    HW155282   3.456   6.982   5.975
17795SOL    HW255283   3.407   7.125   5.990
17796SOL     OW55284   1.498  13.763   8.237
17796SOL    HW155285   1.435  13.799   8.300
17796SOL    HW255286   1.465  13.675   8.217
17797SOL     OW55287   8.028  10.304   3.646
17797SOL    HW155288   7.980  10.227   3.675
17797SOL    HW255289   7.992  10.324   3.559
17798SOL     OW55290   7.518  14.344  10.120
17798SOL    HW155291   7.449  14.278  10.109
17798SOL    HW255292   7.590  14.296  10.162
17799SOL     OW55293   3.505   2.822   5.669
17799SOL    HW155294   3.413   2.820   5.642
17799SOL    HW255295   3.550   2.767   5.605
17800SOL     OW55296  10.017   5.964   8.483
17800SOL    HW155297  10.090   5.972   8.544
17800SOL    HW255298   9.968   5.888   8.514
17801SOL     OW55299   3.551   7.914  14.881
17801SOL    HW155300   3.495   7.842  14.853
17801SOL    HW255301   3.513   7.943   0.077
17802SOL     OW55302   1.265   6.785   7.200
17802SOL    HW155303   1.300   6.757   7.116
17802SOL    HW255304   1.200   6.718   7.222
17803SOL     OW55305   5.438  11.676  10.368
17803SOL    HW155306   5.495  11.659  10.443
17803SOL    HW255307   5.403  11.590  10.344
17804SOL     OW55308   8.994   3.671   6.139
17804SOL    HW155309   8.919   3.623   6.105
17804SOL    HW255310   8.964   3.704   6.224
17805SOL     OW55311   4.408   3.980   2.622
17805SOL    HW155312   4.488   3.941   2.586
17805SOL    HW255313   4.414   4.073   2.598
17806SOL     OW55314   4.176  11.788  10.466
17806SOL    HW155315   4.114  11.858  10.446
17806SOL    HW255316   4.125  11.722  10.512
17807SOL     OW55317   7.575  14.876   1.547
17807SOL    HW155318   7.521  14.812   1.594
17807SOL    HW255319   7.665  14.846   1.561
17808SOL     OW55320   5.770   5.759  11.609
17808SOL    HW155321   5.675   5.757  11.597
17808SOL    HW255322   5.800   5.674  11.577
17809SOL     OW55323   7.786  10.046   9.888
17809SOL    HW155324   7.751  10.070   9.803
17809SOL    HW255325   7.788  10.128   9.937
17810SOL     OW55326   6.722   3.396   0.704
17810SOL    HW155327   6.798   3.455   0.704
17810SOL    HW255328   6.646   3.454   0.711
17811SOL     OW55329   0.082  10.498  12.490
17811SOL    HW155330   0.055  10.488  12.399
17811SOL    HW255331   0.016  10.449  12.540
17812SOL     OW55332   5.270   2.659  14.329
17812SOL    HW155333   5.316   2.715  14.266
17812SOL    HW255334   5.322   2.664  14.408
17813SOL     OW55335  14.215   9.321   1.964
17813SOL    HW155336  14.202   9.241   2.016
17813SOL    HW255337  14.266   9.378   2.021
17814SOL     OW55338  12.787  11.609  12.319
17814SOL    HW155339  12.781  11.522  12.280
17814SOL    HW255340  12.830  11.662  12.252
17815SOL     OW55341  13.488   0.100  12.348
17815SOL    HW155342  13.560   0.163  12.343
17815SOL    HW255343  13.449   0.114  12.434
17816SOL     OW55344  10.566   5.644   9.014
17816SOL    HW155345  10.606   5.662   8.929
17816SOL    HW255346  10.485   5.599   8.994
17817SOL     OW55347   0.629   0.077  11.657
17817SOL    HW155348   0.647   0.160  11.702
17817SOL    HW255349   0.595   0.103  11.572
17818SOL     OW55350   8.074   6.976   6.523
17818SOL    HW155351   8.098   7.030   6.447
17818SOL    HW255352   8.137   6.903   6.520
17819SOL     OW55353   1.022  12.286   2.137
17819SOL    HW155354   0.931  12.294   2.165
17819SOL    HW255355   1.017  12.275   2.043
17820SOL     OW55356   7.799   4.622   3.403
17820SOL    HW155357   7.878   4.676   3.389
17820SOL    HW255358   7.820   4.569   3.480
17821SOL     OW55359  12.661   0.960   0.358
17821SOL    HW155360  12.604   0.933   0.430
17821SOL    HW255361  12.606   1.017   0.304
17822SOL     OW55362  11.931   0.884   4.069
17822SOL    HW155363  11.887   0.938   4.003
17822SOL    HW255364  11.936   0.797   4.030
17823SOL     OW55365  14.310  11.659   0.648
17823SOL    HW155366  14.368  11.650   0.573
17823SOL    HW255367  14.230  11.699   0.613
17824SOL     OW55368  10.828   0.390  11.087
17824SOL    HW155369  10.794   0.437  11.011
17824SOL    HW255370  10.751   0.375  11.142
17825SOL     OW55371   0.436   6.074   7.132
17825SOL    HW155372   0.377   6.108   7.064
17825SOL    HW255373   0.522   6.073   7.091
17826SOL     OW55374   6.123  12.131  11.445
17826SOL    HW155375   6.167  12.054  11.479
17826SOL    HW255376   6.193  12.184  11.406
17827SOL     OW55377   4.813   9.664   8.497
17827SOL    HW155378   4.866   9.620   8.564
17827SOL    HW255379   4.724   9.636   8.515
17828SOL     OW55380  11.029  10.682   8.870
17828SOL    HW155381  11.036  10.630   8.790
17828SOL    HW255382  11.004  10.619   8.937
17829SOL     OW55383   5.263  10.078   4.090
17829SOL    HW155384   5.326  10.140   4.055
17829SOL    HW255385   5.246  10.109   4.179
17830SOL     OW55386  14.194   6.053   2.324
17830SOL    HW155387  14.124   6.104   2.283
17830SOL    HW255388  14.216   6.102   2.403
17831SOL     OW55389  13.520   9.739   9.048
17831SOL    HW155390  13.593   9.767   9.103
17831SOL    HW255391  13.442   9.765   9.097
17832SOL     OW55392   1.887  11.826   8.084
17832SOL    HW155393   1.822  11.779   8.032
17832SOL    HW255394   1.920  11.761   8.146
17833SOL     OW55395   5.881   1.647  12.437
17833SOL    HW155396   5.852   1.595  12.512
17833SOL    HW255397   5.802   1.694  12.409
17834SOL     OW55398   3.390   0.765   2.189
17834SOL    HW155399   3.479   0.782   2.159
17834SOL    HW255400   3.394   0.773   2.284
17835SOL     OW55401   2.920   8.613   1.508
17835SOL    HW155402   2.976   8.550   1.552
17835SOL    HW255403   2.884   8.565   1.433
17836SOL     OW55404  11.133   2.136   6.177
17836SOL    HW155405  11.192   2.161   6.106
17836SOL    HW255406  11.077   2.213   6.190
17837SOL     OW55407   6.633  12.475   6.015
17837SOL    HW155408   6.701  12.470   6.081
17837SOL    HW255409   6.666  12.537   5.950
17838SOL     OW55410   4.765   0.239  12.293
17838SOL    HW155411   4.808   0.184  12.358
17838SOL    HW255412   4.825   0.313  12.282
17839SOL     OW55413   7.545   6.808  11.783
17839SOL    HW155414   7.578   6.719  11.798
17839SOL    HW255415   7.583   6.860  11.853
17840SOL     OW55416   0.805   5.449   3.604
17840SOL    HW155417   0.768   5.426   3.518
17840SOL    HW255418   0.895   5.475   3.585
17841SOL     OW55419  12.181   2.642   7.881
17841SOL    HW155420  12.257   2.694   7.904
17841SOL    HW255421  12.122   2.703   7.837
17842SOL     OW55422   2.482  12.904  14.352
17842SOL    HW155423   2.560  12.853  14.373
17842SOL    HW255424   2.411  12.857  14.395
17843SOL     OW55425   4.960   7.312   7.187
17843SOL    HW155426   4.984   7.223   7.213
17843SOL    HW255427   5.004   7.368   7.251
17844SOL     OW55428   9.103   9.998   0.871
17844SOL    HW155429   9.140   9.950   0.797
17844SOL    HW255430   9.026  10.043   0.836
17845SOL     OW55431   2.854   7.204   8.941
17845SOL    HW155432   2.760   7.213   8.955
17845SOL    HW255433   2.892   7.206   9.029
17846SOL     OW55434  14.581   3.093   3.101
17846SOL    HW155435  14.548   3.051   3.181
17846SOL    HW255436  14.667   3.125   3.125
17847SOL     OW55437  10.447  10.399   9.900
17847SOL    HW155438  10.529  10.393   9.949
17847SOL    HW255439  10.472  10.386   9.808
17848SOL     OW55440  14.849   4.056  13.646
17848SOL    HW155441  14.834   4.108  13.567
17848SOL    HW255442  14.821   3.968  13.622
17849SOL     OW55443  14.687  12.857   4.429
17849SOL    HW155444  14.709  12.854   4.522
17849SOL    HW255445  14.772  12.860   4.384
17850SOL     OW55446  12.315   0.530   1.345
17850SOL    HW155447  12.381   0.578   1.395
17850SOL    HW255448  12.315   0.442   1.384
17851SOL     OW55449   6.768   1.283   6.850
17851SOL    HW155450   6.767   1.300   6.756
17851SOL    HW255451   6.861   1.286   6.874
17852SOL     OW55452   0.643  11.007  12.243
17852SOL    HW155453   0.583  10.953  12.192
17852SOL    HW255454   0.634  11.095  12.207
17853SOL     OW55455   4.397   6.537   3.366
17853SOL    HW155456   4.422   6.494   3.448
17853SOL    HW255457   4.479   6.544   3.317
17854SOL     OW55458  12.802  11.353   9.508
17854SOL    HW155459  12.782  11.264   9.537
17854SOL    HW255460  12.729  11.406   9.539
17855SOL     OW55461   6.772   7.175  12.423
17855SOL    HW155462   6.707   7.149  12.488
17855SOL    HW255463   6.848   7.119  12.440
17856SOL     OW55464   3.568  11.736  14.630
17856SOL    HW155465   3.523  11.662  14.672
17856SOL    HW255466   3.605  11.700  14.550
17857SOL     OW55467   4.531   9.259   1.998
17857SOL    HW155468   4.608   9.224   1.954
17857SOL    HW255469   4.487   9.312   1.931
17858SOL     OW55470   6.341   2.935   2.077
17858SOL    HW155471   6.328   2.951   2.171
17858SOL    HW255472   6.413   2.994   2.052
17859SOL     OW55473  11.323   0.887   6.499
17859SOL    HW155474  11.251   0.933   6.541
17859SOL    HW255475  11.331   0.927   6.413
17860SOL     OW55476   5.161  13.917   5.478
17860SOL    HW155477   5.217  13.993   5.466
17860SOL    HW255478   5.140  13.917   5.572
17861SOL     OW55479   9.989   1.399   8.002
17861SOL    HW155480   9.990   1.320   7.949
17861SOL    HW255481   9.919   1.453   7.965
17862SOL     OW55482   3.807   7.254  11.532
17862SOL    HW155483   3.860   7.175  11.529
17862SOL    HW255484   3.751   7.249  11.455
17863SOL     OW55485   8.594  10.750  11.058
17863SOL    HW155486   8.554  10.703  10.985
17863SOL    HW255487   8.593  10.842  11.031
17864SOL     OW55488   6.620   8.580  12.471
17864SOL    HW155489   6.543   8.530  12.447
17864SOL    HW255490   6.682   8.515  12.503
17865SOL     OW55491   1.089   0.492   4.265
17865SOL    HW155492   1.074   0.398   4.269
17865SOL    HW255493   1.173   0.501   4.219
17866SOL     OW55494   5.101   9.424   9.619
17866SOL    HW155495   5.102   9.509   9.574
17866SOL    HW255496   5.015   9.420   9.661
17867SOL     OW55497  14.807  12.280   4.482
17867SOL    HW155498  14.738  12.248   4.539
17867SOL    HW255499  14.779  12.367   4.455
17868SOL     OW55500   2.726   8.446   7.327
17868SOL    HW155501   2.677   8.488   7.398
17868SOL    HW255502   2.687   8.480   7.247
17869SOL     OW55503   9.109  10.081   2.334
17869SOL    HW155504   9.183  10.122   2.379
17869SOL    HW255505   9.049  10.154   2.315
17870SOL     OW55506  12.047   0.329  14.356
17870SOL    HW155507  11.975   0.275  14.388
17870SOL    HW255508  12.127   0.281  14.380
17871SOL     OW55509   1.414   0.291   1.468
17871SOL    HW155510   1.437   0.228   1.536
17871SOL    HW255511   1.461   0.259   1.390
17872SOL     OW55512  13.104  12.246   7.615
17872SOL    HW155513  13.191  12.257   7.574
17872SOL    HW255514  13.043  12.252   7.541
17873SOL     OW55515   7.189   1.811   4.308
17873SOL    HW155516   7.232   1.892   4.281
17873SOL    HW255517   7.260   1.750   4.324
17874SOL     OW55518  14.753   4.650   0.510
17874SOL    HW155519  14.837   4.630   0.469
17874SOL    HW255520  14.744   4.745   0.503
17875SOL     OW55521   3.504  12.252  13.309
17875SOL    HW155522   3.466  12.233  13.395
17875SOL    HW255523   3.502  12.168  13.264
17876SOL     OW55524  10.194   6.745   5.871
17876SOL    HW155525  10.110   6.708   5.897
17876SOL    HW255526  10.258   6.683   5.906
17877SOL     OW55527  10.634   9.450  10.741
17877SOL    HW155528  10.560   9.471  10.799
17877SOL    HW255529  10.693   9.525  10.750
17878SOL     OW55530  13.456   2.911   8.759
17878SOL    HW155531  13.372   2.931   8.717
17878SOL    HW255532  13.438   2.917   8.853
17879SOL     OW55533   9.533   2.991  13.475
17879SOL    HW155534   9.595   2.953  13.412
17879SOL    HW255535   9.547   2.940  13.555
17880SOL     OW55536   4.895   1.103  13.846
17880SOL    HW155537   4.846   1.155  13.910
17880SOL    HW255538   4.828   1.070  13.786
17881SOL     OW55539   0.563   1.673   0.385
17881SOL    HW155540   0.628   1.643   0.449
17881SOL    HW255541   0.518   1.593   0.358
17882SOL     OW55542  11.362   7.630  11.980
17882SOL    HW155543  11.315   7.695  12.032
17882SOL    HW255544  11.319   7.547  12.000
17883SOL     OW55545  10.076  10.573  11.549
17883SOL    HW155546  10.163  10.607  11.571
17883SOL    HW255547  10.022  10.593  11.626
17884SOL     OW55548  11.690  12.487  10.273
17884SOL    HW155549  11.683  12.579  10.296
17884SOL    HW255550  11.702  12.442  10.357
17885SOL     OW55551   4.646  12.459  10.341
17885SOL    HW155552   4.620  12.532  10.397
17885SOL    HW255553   4.685  12.395  10.401
17886SOL     OW55554   1.263   7.268   0.803
17886SOL    HW155555   1.301   7.197   0.752
17886SOL    HW255556   1.339   7.318   0.834
17887SOL     OW55557   4.189   0.247   4.355
17887SOL    HW155558   4.137   0.320   4.323
17887SOL    HW255559   4.244   0.285   4.424
17888SOL     OW55560  13.460   3.426  14.660
17888SOL    HW155561  13.533   3.459  14.712
17888SOL    HW255562  13.458   3.484  14.584
17889SOL     OW55563  10.237  10.999   6.304
17889SOL    HW155564  10.157  10.959   6.338
17889SOL    HW255565  10.207  11.061   6.237
17890SOL     OW55566  11.477   5.679   6.378
17890SOL    HW155567  11.475   5.585   6.396
17890SOL    HW255568  11.387   5.699   6.351
17891SOL     OW55569   0.723   4.807   1.880
17891SOL    HW155570   0.800   4.751   1.884
17891SOL    HW255571   0.671   4.771   1.809
17892SOL     OW55572   0.867  11.920   3.151
17892SOL    HW155573   0.851  11.993   3.091
17892SOL    HW255574   0.919  11.959   3.222
17893SOL     OW55575   5.412   3.674   2.109
17893SOL    HW155576   5.377   3.586   2.092
17893SOL    HW255577   5.334   3.726   2.130
17894SOL     OW55578   9.457   2.242   3.336
17894SOL    HW155579   9.447   2.270   3.245
17894SOL    HW255580   9.503   2.158   3.330
17895SOL     OW55581   3.804   3.990   4.859
17895SOL    HW155582   3.731   3.945   4.903
17895SOL    HW255583   3.766   4.072   4.828
17896SOL     OW55584  11.553   7.389  12.446
17896SOL    HW155585  11.492   7.414  12.376
17896SOL    HW255586  11.639   7.410  12.411
17897SOL     OW55587  14.181  13.687   7.594
17897SOL    HW155588  14.251  13.624   7.576
17897SOL    HW255589  14.175  13.690   7.689
17898SOL     OW55590   2.432   5.426   3.949
17898SOL    HW155591   2.478   5.347   3.922
17898SOL    HW255592   2.342   5.412   3.917
17899SOL     OW55593  13.610   2.517  11.790
17899SOL    HW155594  13.641   2.576  11.721
17899SOL    HW255595  13.650   2.550  11.870
17900SOL     OW55596   5.399  14.545   2.954
17900SOL    HW155597   5.443  14.461   2.965
17900SOL    HW255598   5.406  14.564   2.861
17901SOL     OW55599   0.811  10.198   5.448
17901SOL    HW155600   0.730  10.148   5.437
17901SOL    HW255601   0.783  10.290   5.449
17902SOL     OW55602  13.254  11.616   6.938
17902SOL    HW155603  13.298  11.701   6.935
17902SOL    HW255604  13.282  11.578   7.021
17903SOL     OW55605   1.324   1.960  13.963
17903SOL    HW155606   1.329   1.883  13.906
17903SOL    HW255607   1.246   2.007  13.934
17904SOL     OW55608  13.118  13.119   1.813
17904SOL    HW155609  13.045  13.162   1.769
17904SOL    HW255610  13.196  13.163   1.779
17905SOL     OW55611   9.333   5.981   6.251
17905SOL    HW155612   9.240   5.957   6.249
17905SOL    HW255613   9.352   5.995   6.344
17906SOL     OW55614   5.905   2.917   1.789
17906SOL    HW155615   5.978   2.872   1.747
17906SOL    HW255616   5.832   2.907   1.727
17907SOL     OW55617  12.093  12.285  13.156
17907SOL    HW155618  12.126  12.301  13.068
17907SOL    HW255619  12.165  12.312  13.213
17908SOL     OW55620   4.934   6.675  11.923
17908SOL    HW155621   4.968   6.680  11.834
17908SOL    HW255622   4.932   6.581  11.943
17909SOL     OW55623  11.283  13.506  12.237
17909SOL    HW155624  11.335  13.562  12.294
17909SOL    HW255625  11.347  13.461  12.182
17910SOL     OW55626   7.070  12.220   2.608
17910SOL    HW155627   7.039  12.267   2.530
17910SOL    HW255628   7.117  12.286   2.659
17911SOL     OW55629   4.474   2.023   1.051
17911SOL    HW155630   4.433   1.944   1.016
17911SOL    HW255631   4.552   2.035   0.997
17912SOL     OW55632   3.403   6.105   8.362
17912SOL    HW155633   3.326   6.158   8.381
17912SOL    HW255634   3.456   6.111   8.441
17913SOL     OW55635  12.625   0.375   4.414
17913SOL    HW155636  12.559   0.326   4.367
17913SOL    HW255637  12.579   0.451   4.449
17914SOL     OW55638  13.801  10.630   2.967
17914SOL    HW155639  13.735  10.619   2.899
17914SOL    HW255640  13.787  10.556   3.026
17915SOL     OW55641  12.792   5.407   4.344
17915SOL    HW155642  12.739   5.364   4.410
17915SOL    HW255643  12.779   5.355   4.265
17916SOL     OW55644   6.890  11.285  10.389
17916SOL    HW155645   6.934  11.208  10.424
17916SOL    HW255646   6.961  11.347  10.370
17917SOL     OW55647  12.322   3.993   7.573
17917SOL    HW155648  12.337   3.988   7.479
17917SOL    HW255649  12.290   4.082   7.588
17918SOL     OW55650   8.936  13.443  14.488
17918SOL    HW155651   8.913  13.473  14.400
17918SOL    HW255652   8.859  13.394  14.518
17919SOL     OW55653  11.824   6.181   1.939
17919SOL    HW155654  11.869   6.124   1.876
17919SOL    HW255655  11.772   6.121   1.992
17920SOL     OW55656   3.722   1.362   1.328
17920SOL    HW155657   3.649   1.310   1.363
17920SOL    HW255658   3.773   1.299   1.277
17921SOL     OW55659  14.064   8.503   0.509
17921SOL    HW155660  13.984   8.451   0.503
17921SOL    HW255661  14.129   8.454   0.458
17922SOL     OW55662   0.524  12.634   7.208
17922SOL    HW155663   0.610  12.610   7.241
17922SOL    HW255664   0.489  12.695   7.273
17923SOL     OW55665  11.607   5.549   2.216
17923SOL    HW155666  11.563   5.498   2.284
17923SOL    HW255667  11.601   5.640   2.247
17924SOL     OW55668   6.438  11.031   0.250
17924SOL    HW155669   6.377  10.959   0.264
17924SOL    HW255670   6.390  11.109   0.277
17925SOL     OW55671  13.218   8.056  12.872
17925SOL    HW155672  13.146   8.118  12.873
17925SOL    HW255673  13.177   7.972  12.852
17926SOL     OW55674   8.636   3.645   5.108
17926SOL    HW155675   8.574   3.694   5.054
17926SOL    HW255676   8.665   3.573   5.052
17927SOL     OW55677  11.431   3.910   6.628
17927SOL    HW155678  11.345   3.947   6.606
17927SOL    HW255679  11.432   3.825   6.584
17928SOL     OW55680   9.721   0.184  14.596
17928SOL    HW155681   9.714   0.190  14.692
17928SOL    HW255682   9.631   0.195  14.565
17929SOL     OW55683   3.401   6.903   9.620
17929SOL    HW155684   3.385   6.809   9.630
17929SOL    HW255685   3.346   6.928   9.545
17930SOL     OW55686   3.132  11.086  13.888
17930SOL    HW155687   3.064  11.124  13.943
17930SOL    HW255688   3.085  11.056  13.810
17931SOL     OW55689   9.503   3.195   1.747
17931SOL    HW155690   9.411   3.215   1.733
17931SOL    HW255691   9.512   3.104   1.720
17932SOL     OW55692   0.449  13.980   9.348
17932SOL    HW155693   0.422  13.968   9.439
17932SOL    HW255694   0.529  13.928   9.339
17933SOL     OW55695   6.373  11.655   1.353
17933SOL    HW155696   6.465  11.661   1.329
17933SOL    HW255697   6.345  11.746   1.364
17934SOL     OW55698  14.803   4.920  12.441
17934SOL    HW155699  14.886   4.876  12.421
17934SOL    HW255700  14.828   5.010  12.464
17935SOL     OW55701  14.570  12.159   7.256
17935SOL    HW155702  14.586  12.142   7.163
17935SOL    HW255703  14.633  12.102   7.302
17936SOL     OW55704  13.010   1.372  14.379
17936SOL    HW155705  13.027   1.467  14.379
17936SOL    HW255706  13.078   1.336  14.437
17937SOL     OW55707  14.384   3.940   3.761
17937SOL    HW155708  14.329   4.018   3.752
17937SOL    HW255709  14.365   3.908   3.850
17938SOL     OW55710   5.474   5.181   9.409
17938SOL    HW155711   5.461   5.274   9.422
17938SOL    HW255712   5.461   5.167   9.315
17939SOL     OW55713   2.240   8.369   7.507
17939SOL    HW155714   2.290   8.340   7.583
17939SOL    HW255715   2.276   8.318   7.434
17940SOL     OW55716   4.257   7.735   3.412
17940SOL    HW155717   4.275   7.828   3.394
17940SOL    HW255718   4.202   7.737   3.490
17941SOL     OW55719   1.334   7.264  10.496
17941SOL    HW155720   1.348   7.213  10.576
17941SOL    HW255721   1.421   7.297  10.473
17942SOL     OW55722   2.394   5.015   3.352
17942SOL    HW155723   2.423   5.076   3.420
17942SOL    HW255724   2.471   5.002   3.297
17943SOL     OW55725  12.131  14.333   8.453
17943SOL    HW155726  12.157  14.291   8.534
17943SOL    HW255727  12.116  14.261   8.391
17944SOL     OW55728   5.702  10.665   6.718
17944SOL    HW155729   5.653  10.744   6.697
17944SOL    HW255730   5.660  10.596   6.667
17945SOL     OW55731   6.562   2.886   3.291
17945SOL    HW155732   6.642   2.833   3.285
17945SOL    HW255733   6.527   2.886   3.202
17946SOL     OW55734   4.197  10.716   7.469
17946SOL    HW155735   4.204  10.748   7.379
17946SOL    HW255736   4.130  10.648   7.464
17947SOL     OW55737   9.872  14.786   5.025
17947SOL    HW155738   9.894  14.872   4.989
17947SOL    HW255739   9.873  14.728   4.948
17948SOL     OW55740   5.610   9.678   7.321
17948SOL    HW155741   5.701   9.684   7.348
17948SOL    HW255742   5.577   9.768   7.324
17949SOL     OW55743  14.190   1.767   4.438
17949SOL    HW155744  14.098   1.782   4.418
17949SOL    HW255745  14.196   1.673   4.456
17950SOL     OW55746  11.826  12.625   7.774
17950SOL    HW155747  11.857  12.709   7.808
17950SOL    HW255748  11.812  12.641   7.681
17951SOL     OW55749   5.745   9.752   7.640
17951SOL    HW155750   5.817   9.777   7.582
17951SOL    HW255751   5.720   9.833   7.684
17952SOL     OW55752   0.502  13.197   8.128
17952SOL    HW155753   0.432  13.173   8.067
17952SOL    HW255754   0.492  13.137   8.202
17953SOL     OW55755   8.921  10.142  13.195
17953SOL    HW155756   9.007  10.115  13.227
17953SOL    HW255757   8.859  10.087  13.242
17954SOL     OW55758   7.297  13.425  14.189
17954SOL    HW155759   7.229  13.393  14.248
17954SOL    HW255760   7.293  13.367  14.113
17955SOL     OW55761   7.190   5.456  10.379
17955SOL    HW155762   7.164   5.443  10.288
17955SOL    HW255763   7.256   5.388  10.395
17956SOL     OW55764   9.965  11.817   8.245
17956SOL    HW155765  10.038  11.789   8.190
17956SOL    HW255766   9.973  11.765   8.325
17957SOL     OW55767   5.481   1.837   9.364
17957SOL    HW155768   5.460   1.904   9.300
17957SOL    HW255769   5.538   1.776   9.317
17958SOL     OW55770  12.888   7.346  13.144
17958SOL    HW155771  12.831   7.293  13.200
17958SOL    HW255772  12.931   7.407  13.204
17959SOL     OW55773   7.602   5.116   6.502
17959SOL    HW155774   7.515   5.092   6.534
17959SOL    HW255775   7.663   5.078   6.566
17960SOL     OW55776   0.305  11.048  11.574
17960SOL    HW155777   0.268  11.002  11.650
17960SOL    HW255778   0.253  11.019  11.500
17961SOL     OW55779   2.393  14.105  12.400
17961SOL    HW155780   2.485  14.102  12.375
17961SOL    HW255781   2.376  14.197  12.420
17962SOL     OW55782   1.959  10.416  14.358
17962SOL    HW155783   1.935  10.366  14.435
17962SOL    HW255784   2.016  10.486  14.391
17963SOL     OW55785  12.782  13.122   3.209
17963SOL    HW155786  12.764  13.199   3.263
17963SOL    HW255787  12.865  13.142   3.166
17964SOL     OW55788  14.359  12.616  11.056
17964SOL    HW155789  14.339  12.701  11.018
17964SOL    HW255790  14.382  12.635  11.146
17965SOL     OW55791   6.503   7.247  12.186
17965SOL    HW155792   6.492   7.168  12.240
17965SOL    HW255793   6.448   7.230  12.109
17966SOL     OW55794   3.695  12.140  11.358
17966SOL    HW155795   3.678  12.091  11.279
17966SOL    HW255796   3.684  12.077  11.429
17967SOL     OW55797   7.725   7.334   8.227
17967SOL    HW155798   7.736   7.293   8.141
17967SOL    HW255799   7.667   7.275   8.275
17968SOL     OW55800   0.186   9.658   4.221
17968SOL    HW155801   0.279   9.650   4.198
17968SOL    HW255802   0.139   9.645   4.139
17969SOL     OW55803   5.282  14.376   8.603
17969SOL    HW155804   5.289  14.404   8.512
17969SOL    HW255805   5.302  14.283   8.602
17970SOL     OW55806   5.738  10.616   9.400
17970SOL    HW155807   5.764  10.708   9.398
17970SOL    HW255808   5.773  10.579   9.319
17971SOL     OW55809   7.566   1.442  12.525
17971SOL    HW155810   7.639   1.484  12.479
17971SOL    HW255811   7.558   1.491  12.607
17972SOL     OW55812   3.895   1.411   5.604
17972SOL    HW155813   3.858   1.362   5.531
17972SOL    HW255814   3.985   1.380   5.611
17973SOL     OW55815   1.049  13.723   7.830
17973SOL    HW155816   1.085  13.635   7.818
17973SOL    HW255817   1.102  13.761   7.901
17974SOL     OW55818   3.563  13.260   1.416
17974SOL    HW155819   3.499  13.202   1.458
17974SOL    HW255820   3.639  13.257   1.474
17975SOL     OW55821   6.584   2.667  12.322
17975SOL    HW155822   6.635   2.688  12.400
17975SOL    HW255823   6.530   2.745  12.306
17976SOL     OW55824   0.623   5.015  13.311
17976SOL    HW155825   0.611   4.928  13.273
17976SOL    HW255826   0.588   5.006  13.400
17977SOL     OW55827   2.594  13.911   5.103
17977SOL    HW155828   2.686  13.887   5.116
17977SOL    HW255829   2.568  13.867   5.022
17978SOL     OW55830  12.150  13.517   7.290
17978SOL    HW155831  12.238  13.553   7.284
17978SOL    HW255832  12.155  13.432   7.246
17979SOL     OW55833   9.409  11.614   6.601
17979SOL    HW155834   9.446  11.528   6.621
17979SOL    HW255835   9.332  11.595   6.547
17980SOL     OW55836   2.044  11.000   8.877
17980SOL    HW155837   1.963  11.050   8.887
17980SOL    HW255838   2.029  10.919   8.924
17981SOL     OW55839   6.361   4.022   5.069
17981SOL    HW155840   6.283   4.077   5.069
17981SOL    HW255841   6.387   4.016   4.977
17982SOL     OW55842   4.142  13.646   3.427
17982SOL    HW155843   4.144  13.601   3.511
17982SOL    HW255844   4.152  13.738   3.449
17983SOL     OW55845  12.776  10.956   9.402
17983SOL    HW155846  12.767  10.925   9.311
17983SOL    HW255847  12.686  10.981   9.427
17984SOL     OW55848   3.438  13.246   2.757
17984SOL    HW155849   3.375  13.259   2.828
17984SOL    HW255850   3.398  13.180   2.701
17985SOL     OW55851   5.915  13.061   2.220
17985SOL    HW155852   5.880  13.133   2.167
17985SOL    HW255853   5.997  13.096   2.256
17986SOL     OW55854   4.313   8.503   4.735
17986SOL    HW155855   4.334   8.442   4.806
17986SOL    HW255856   4.274   8.448   4.667
17987SOL     OW55857   6.396  13.455  12.958
17987SOL    HW155858   6.323  13.429  13.014
17987SOL    HW255859   6.413  13.546  12.980
17988SOL     OW55860   9.779   8.659   0.835
17988SOL    HW155861   9.726   8.595   0.787
17988SOL    HW255862   9.747   8.744   0.804
17989SOL     OW55863  12.065   5.113   9.741
17989SOL    HW155864  12.156   5.092   9.762
17989SOL    HW255865  12.038   5.173   9.811
17990SOL     OW55866   4.496   6.140   5.481
17990SOL    HW155867   4.548   6.069   5.442
17990SOL    HW255868   4.427   6.095   5.530
17991SOL     OW55869   7.639   9.265  11.527
17991SOL    HW155870   7.588   9.280  11.448
17991SOL    HW255871   7.721   9.313  11.512
17992SOL     OW55872   3.723   7.580   4.198
17992SOL    HW155873   3.640   7.563   4.154
17992SOL    HW255874   3.754   7.494   4.224
17993SOL     OW55875   4.950   0.898   4.043
17993SOL    HW155876   4.907   0.956   4.106
17993SOL    HW255877   4.903   0.914   3.961
17994SOL     OW55878  13.126   3.885  10.014
17994SOL    HW155879  13.095   3.822  10.079
17994SOL    HW255880  13.152   3.832   9.939
17995SOL     OW55881  12.440   5.429  10.354
17995SOL    HW155882  12.523   5.383  10.339
17995SOL    HW255883  12.384   5.364  10.397
17996SOL     OW55884  10.379   5.664  10.759
17996SOL    HW155885  10.433   5.732  10.719
17996SOL    HW255886  10.295   5.707  10.775
17997SOL     OW55887   5.341  12.094   1.625
17997SOL    HW155888   5.263  12.134   1.585
17997SOL    HW255889   5.347  12.008   1.583
17998SOL     OW55890   9.230  14.738   6.463
17998SOL    HW155891   9.229  14.651   6.421
17998SOL    HW255892   9.165  14.730   6.534
17999SOL     OW55893  13.115   5.531  12.774
17999SOL    HW155894  13.125   5.442  12.740
17999SOL    HW255895  13.067   5.577  12.705
18000SOL     OW55896   4.627   7.735   2.328
18000SOL    HW155897   4.694   7.669   2.346
18000SOL    HW255898   4.651   7.809   2.384
18001SOL     OW55899  10.196  10.316   6.144
18001SOL    HW155900  10.270  10.259   6.165
18001SOL    HW255901  10.167  10.288   6.058
18002SOL     OW55902   9.889   6.222   5.945
18002SOL    HW155903   9.808   6.255   5.906
18002SOL    HW255904   9.955   6.230   5.875
18003SOL     OW55905   3.384  14.647   6.123
18003SOL    HW155906   3.330  14.693   6.059
18003SOL    HW255907   3.338  14.660   6.206
18004SOL     OW55908   1.470   8.400   3.181
18004SOL    HW155909   1.485   8.414   3.275
18004SOL    HW255910   1.389   8.448   3.163
18005SOL     OW55911   0.872   3.653   6.091
18005SOL    HW155912   0.928   3.701   6.152
18005SOL    HW255913   0.809   3.607   6.146
18006SOL     OW55914   5.351   7.341   9.441
18006SOL    HW155915   5.409   7.329   9.515
18006SOL    HW255916   5.263   7.327   9.476
18007SOL     OW55917  14.268   0.108  14.236
18007SOL    HW155918  14.358   0.089  14.208
18007SOL    HW255919  14.220   0.122  14.155
18008SOL     OW55920   7.819   3.255   8.897
18008SOL    HW155921   7.737   3.299   8.916
18008SOL    HW255922   7.871   3.321   8.851
18009SOL     OW55923   3.606   1.153  12.473
18009SOL    HW155924   3.607   1.227  12.412
18009SOL    HW255925   3.651   1.186  12.551
18010SOL     OW55926  13.046   6.696   0.049
18010SOL    HW155927  13.049   6.601   0.058
18010SOL    HW255928  13.030   6.711  14.843
18011SOL     OW55929   2.333  10.733   9.268
18011SOL    HW155930   2.327  10.752   9.174
18011SOL    HW255931   2.389  10.656   9.273
18012SOL     OW55932   2.664  12.619   9.094
18012SOL    HW155933   2.629  12.542   9.049
18012SOL    HW255934   2.656  12.598   9.187
18013SOL     OW55935   7.815   3.785   8.665
18013SOL    HW155936   7.895   3.836   8.677
18013SOL    HW255937   7.810   3.769   8.571
18014SOL     OW55938  11.415  11.742   6.599
18014SOL    HW155939  11.503  11.777   6.614
18014SOL    HW255940  11.407  11.737   6.504
18015SOL     OW55941   2.192   0.791   2.751
18015SOL    HW155942   2.254   0.754   2.814
18015SOL    HW255943   2.202   0.736   2.674
18016SOL     OW55944  12.338   3.390   2.687
18016SOL    HW155945  12.322   3.451   2.758
18016SOL    HW255946  12.254   3.384   2.641
18017SOL     OW55947   4.537   7.027  13.452
18017SOL    HW155948   4.465   7.049  13.392
18017SOL    HW255949   4.534   6.932  13.458
18018SOL     OW55950   4.676  13.942   5.660
18018SOL    HW155951   4.639  13.992   5.733
18018SOL    HW255952   4.611  13.950   5.590
18019SOL     OW55953  12.523   9.277   0.764
18019SOL    HW155954  12.488   9.334   0.833
18019SOL    HW255955  12.510   9.326   0.683
18020SOL     OW55956   2.558   7.851   0.614
18020SOL    HW155957   2.512   7.921   0.568
18020SOL    HW255958   2.650   7.875   0.607
18021SOL     OW55959  12.620  14.034  14.191
18021SOL    HW155960  12.619  14.103  14.124
18021SOL    HW255961  12.582  14.076  14.269
18022SOL     OW55962   6.837   5.720   5.924
18022SOL    HW155963   6.882   5.708   5.840
18022SOL    HW255964   6.765   5.779   5.904
18023SOL     OW55965  12.267   2.175  10.538
18023SOL    HW155966  12.307   2.113  10.598
18023SOL    HW255967  12.182   2.136  10.516
18024SOL     OW55968   0.212  10.426  13.413
18024SOL    HW155969   0.305  10.433  13.434
18024SOL    HW255970   0.170  10.411  13.497
18025SOL     OW55971   2.511   6.827  10.429
18025SOL    HW155972   2.519   6.902  10.488
18025SOL    HW255973   2.524   6.864  10.342
18026SOL     OW55974  11.448  14.279   9.347
18026SOL    HW155975  11.409  14.214   9.290
18026SOL    HW255976  11.531  14.239   9.376
18027SOL     OW55977   1.842   4.592  10.534
18027SOL    HW155978   1.750   4.567  10.538
18027SOL    HW255979   1.841   4.686  10.516
18028SOL     OW55980  11.636   5.880   2.604
18028SOL    HW155981  11.707   5.918   2.553
18028SOL    HW255982  11.586   5.955   2.636
18029SOL     OW55983  14.117   9.937   1.830
18029SOL    HW155984  14.203   9.974   1.851
18029SOL    HW255985  14.137   9.855   1.784
18030SOL     OW55986  11.768   1.512  13.595
18030SOL    HW155987  11.763   1.492  13.688
18030SOL    HW255988  11.681   1.545  13.572
18031SOL     OW55989  13.602  12.567   3.036
18031SOL    HW155990  13.518  12.593   3.073
18031SOL    HW255991  13.617  12.479   3.070
18032SOL     OW55992   5.949   9.375  12.844
18032SOL    HW155993   5.973   9.384  12.752
18032SOL    HW255994   6.027   9.404  12.893
18033SOL     OW55995   9.197   4.843   3.536
18033SOL    HW155996   9.223   4.900   3.608
18033SOL    HW255997   9.145   4.774   3.578
18034SOL     OW55998  14.499   6.740   4.793
18034SOL    HW155999  14.453   6.673   4.844
18034SOL    HW256000  14.550   6.788   4.858
18035SOL     OW56001  13.548  14.725   0.372
18035SOL    HW156002  13.585  14.659   0.312
18035SOL    HW256003  13.608  14.799   0.366
18036SOL     OW56004  14.589  13.943   2.428
18036SOL    HW156005  14.494  13.943   2.444
18036SOL    HW256006  14.620  13.865   2.474
18037SOL     OW56007   5.990   0.478  14.668
18037SOL    HW156008   5.927   0.479  14.596
18037SOL    HW256009   6.060   0.538  14.640
18038SOL     OW56010   7.545   6.044   4.203
18038SOL    HW156011   7.613   6.110   4.196
18038SOL    HW256012   7.465   6.093   4.221
18039SOL     OW56013   7.614  11.183   0.553
18039SOL    HW156014   7.661  11.158   0.474
18039SOL    HW256015   7.625  11.278   0.559
18040SOL     OW56016   2.958  11.073   0.987
18040SOL    HW156017   3.044  11.114   0.987
18040SOL    HW256018   2.935  11.065   0.894
18041SOL     OW56019   1.719  12.660   4.494
18041SOL    HW156020   1.765  12.722   4.437
18041SOL    HW256021   1.631  12.696   4.503
18042SOL     OW56022   8.743   7.606   2.610
18042SOL    HW156023   8.735   7.517   2.575
18042SOL    HW256024   8.778   7.657   2.537
18043SOL     OW56025  12.652   0.300   1.370
18043SOL    HW156026  12.567   0.263   1.390
18043SOL    HW256027  12.694   0.314   1.455
18044SOL     OW56028  14.434   8.003  14.356
18044SOL    HW156029  14.406   8.031  14.269
18044SOL    HW256030  14.508   7.944  14.340
18045SOL     OW56031   3.065   7.078  10.703
18045SOL    HW156032   3.043   7.041  10.788
18045SOL    HW256033   3.141   7.134  10.720
18046SOL     OW56034   5.826   3.913   2.110
18046SOL    HW156035   5.820   4.006   2.132
18046SOL    HW256036   5.740   3.892   2.074
18047SOL     OW56037   7.690  13.557   2.786
18047SOL    HW156038   7.654  13.643   2.769
18047SOL    HW256039   7.630  13.517   2.849
18048SOL     OW56040   8.583  13.281  12.646
18048SOL    HW156041   8.540  13.210  12.694
18048SOL    HW256042   8.579  13.254  12.555
18049SOL     OW56043  13.399   9.385   2.601
18049SOL    HW156044  13.453   9.316   2.563
18049SOL    HW256045  13.378   9.352   2.689
18050SOL     OW56046   6.377  12.262   2.553
18050SOL    HW156047   6.456  12.306   2.584
18050SOL    HW256048   6.360  12.195   2.619
18051SOL     OW56049   1.482   6.125  10.881
18051SOL    HW156050   1.444   6.186  10.944
18051SOL    HW256051   1.524   6.180  10.815
18052SOL     OW56052   4.613   9.562   0.388
18052SOL    HW156053   4.531   9.537   0.345
18052SOL    HW256054   4.587   9.627   0.454
18053SOL     OW56055  13.809   6.362   1.128
18053SOL    HW156056  13.902   6.348   1.146
18053SOL    HW256057  13.807   6.426   1.058
18054SOL     OW56058  13.633   6.931  13.613
18054SOL    HW156059  13.729   6.929  13.611
18054SOL    HW256060  13.607   6.881  13.536
18055SOL     OW56061  12.234   3.312   1.163
18055SOL    HW156062  12.310   3.342   1.112
18055SOL    HW256063  12.260   3.226   1.196
18056SOL     OW56064  13.532   8.279   2.654
18056SOL    HW156065  13.460   8.332   2.621
18056SOL    HW256066  13.604   8.341   2.667
18057SOL     OW56067   4.395   8.066   1.821
18057SOL    HW156068   4.305   8.062   1.854
18057SOL    HW256069   4.442   8.119   1.885
18058SOL     OW56070  13.222   6.302  12.095
18058SOL    HW156071  13.307   6.315  12.053
18058SOL    HW256072  13.195   6.390  12.122
18059SOL     OW56073   8.628  12.116   2.044
18059SOL    HW156074   8.706  12.064   2.022
18059SOL    HW256075   8.663  12.199   2.075
18060SOL     OW56076   2.259   7.595   2.653
18060SOL    HW156077   2.244   7.580   2.560
18060SOL    HW256078   2.215   7.679   2.671
18061SOL     OW56079   1.287   1.675  11.953
18061SOL    HW156080   1.246   1.748  11.906
18061SOL    HW256081   1.379   1.679  11.927
18062SOL     OW56082   4.169   7.133   1.100
18062SOL    HW156083   4.161   7.228   1.111
18062SOL    HW256084   4.118   7.096   1.172
18063SOL     OW56085   6.899   0.547   2.545
18063SOL    HW156086   6.950   0.627   2.538
18063SOL    HW256087   6.808   0.577   2.541
18064SOL     OW56088   7.948   9.580   6.834
18064SOL    HW156089   7.890   9.621   6.897
18064SOL    HW256090   8.012   9.532   6.887
18065SOL     OW56091   5.360  14.584   1.077
18065SOL    HW156092   5.276  14.546   1.103
18065SOL    HW256093   5.360  14.578   0.981
18066SOL     OW56094   9.424   3.810  10.565
18066SOL    HW156095   9.413   3.893  10.611
18066SOL    HW256096   9.388   3.744  10.625
18067SOL     OW56097   7.868   3.473   8.236
18067SOL    HW156098   7.859   3.534   8.163
18067SOL    HW256099   7.865   3.386   8.195
18068SOL     OW56100   6.537   2.154  13.294
18068SOL    HW156101   6.583   2.219  13.346
18068SOL    HW256102   6.557   2.070  13.336
18069SOL     OW56103   7.817   2.828  14.530
18069SOL    HW156104   7.873   2.815  14.453
18069SOL    HW256105   7.789   2.740  14.554
18070SOL     OW56106   3.426   2.473   0.785
18070SOL    HW156107   3.481   2.448   0.859
18070SOL    HW256108   3.433   2.568   0.781
18071SOL     OW56109   6.462   0.198   1.433
18071SOL    HW156110   6.386   0.211   1.376
18071SOL    HW256111   6.439   0.120   1.485
18072SOL     OW56112   7.675   1.769  13.873
18072SOL    HW156113   7.690   1.675  13.884
18072SOL    HW256114   7.729   1.811  13.939
18073SOL     OW56115   3.535   9.450   1.304
18073SOL    HW156116   3.554   9.384   1.370
18073SOL    HW256117   3.610   9.510   1.308
18074SOL     OW56118   4.693   9.783  14.656
18074SOL    HW156119   4.684   9.707  14.597
18074SOL    HW256120   4.603   9.808  14.676
18075SOL     OW56121   2.337   1.044   8.982
18075SOL    HW156122   2.258   1.096   8.999
18075SOL    HW256123   2.352   0.996   9.062
18076SOL     OW56124  13.669  14.532   5.307
18076SOL    HW156125  13.755  14.559   5.276
18076SOL    HW256126  13.627  14.493   5.230
18077SOL     OW56127   7.793  11.954  10.796
18077SOL    HW156128   7.754  11.901  10.727
18077SOL    HW256129   7.809  12.039  10.755
18078SOL     OW56130  12.208   8.373   5.159
18078SOL    HW156131  12.208   8.353   5.253
18078SOL    HW256132  12.143   8.443   5.150
18079SOL     OW56133  11.000   9.698  13.066
18079SOL    HW156134  10.965   9.656  13.144
18079SOL    HW256135  11.065   9.637  13.032
18080SOL     OW56136   2.779   7.083  14.548
18080SOL    HW156137   2.775   7.010  14.486
18080SOL    HW256138   2.710   7.064  14.611
18081SOL     OW56139   0.066   0.362   3.161
18081SOL    HW156140   0.043   0.451   3.187
18081SOL    HW256141   0.021   0.306   3.225
18082SOL     OW56142   8.162   8.915   0.963
18082SOL    HW156143   8.072   8.944   0.949
18082SOL    HW256144   8.162   8.823   0.936
18083SOL     OW56145   1.504   0.468   9.175
18083SOL    HW156146   1.577   0.423   9.217
18083SOL    HW256147   1.520   0.455   9.081
18084SOL     OW56148   3.298   5.787   5.996
18084SOL    HW156149   3.383   5.751   6.021
18084SOL    HW256150   3.285   5.861   6.055
18085SOL     OW56151  12.734   4.536   6.014
18085SOL    HW156152  12.677   4.468   5.977
18085SOL    HW256153  12.699   4.617   5.979
18086SOL     OW56154   5.724  13.531   9.158
18086SOL    HW156155   5.773  13.608   9.129
18086SOL    HW256156   5.770  13.458   9.117
18087SOL     OW56157  11.309   2.464   1.324
18087SOL    HW156158  11.304   2.371   1.347
18087SOL    HW256159  11.275   2.510   1.402
18088SOL     OW56160   1.529   8.398   0.352
18088SOL    HW156161   1.524   8.441   0.267
18088SOL    HW256162   1.561   8.310   0.332
18089SOL     OW56163   5.262  13.013   6.217
18089SOL    HW156164   5.213  12.958   6.278
18089SOL    HW256165   5.204  13.024   6.142
18090SOL     OW56166   9.608   3.861   3.748
18090SOL    HW156167   9.640   3.934   3.694
18090SOL    HW256168   9.604   3.897   3.836
18091SOL     OW56169   2.405   0.698   2.171
18091SOL    HW156170   2.431   0.650   2.250
18091SOL    HW256171   2.460   0.777   2.171
18092SOL     OW56172   6.443   4.065   7.201
18092SOL    HW156173   6.537   4.082   7.203
18092SOL    HW256174   6.418   4.055   7.292
18093SOL     OW56175   5.465   2.987   7.297
18093SOL    HW156176   5.532   2.951   7.238
18093SOL    HW256177   5.434   3.065   7.252
18094SOL     OW56178   3.992   5.586   8.560
18094SOL    HW156179   3.987   5.681   8.552
18094SOL    HW256180   4.028   5.570   8.647
18095SOL     OW56181   8.216  10.984  12.167
18095SOL    HW156182   8.265  11.046  12.221
18095SOL    HW256183   8.208  10.906  12.221
18096SOL     OW56184  13.120   6.067  12.992
18096SOL    HW156185  13.087   6.015  12.919
18096SOL    HW256186  13.154   6.002  13.054
18097SOL     OW56187   7.836   2.514   7.214
18097SOL    HW156188   7.829   2.424   7.249
18097SOL    HW256189   7.745   2.540   7.198
18098SOL     OW56190   0.895   8.957   9.614
18098SOL    HW156191   0.951   9.016   9.664
18098SOL    HW256192   0.807   8.993   9.625
18099SOL     OW56193  13.139   8.616  10.124
18099SOL    HW156194  13.093   8.679  10.069
18099SOL    HW256195  13.209   8.667  10.165
18100SOL     OW56196   3.020   7.288   8.044
18100SOL    HW156197   3.110   7.275   8.013
18100SOL    HW256198   3.003   7.381   8.031
18101SOL     OW56199   9.729   4.006  10.673
18101SOL    HW156200   9.655   4.061  10.647
18101SOL    HW256201   9.786   4.006  10.596
18102SOL     OW56202  10.280  11.046   2.500
18102SOL    HW156203  10.375  11.053   2.503
18102SOL    HW256204  10.249  11.129   2.535
18103SOL     OW56205   7.355   5.058   2.094
18103SOL    HW156206   7.356   4.982   2.035
18103SOL    HW256207   7.263   5.086   2.095
18104SOL     OW56208   2.256  13.391   5.481
18104SOL    HW156209   2.205  13.358   5.555
18104SOL    HW256210   2.191  13.407   5.412
18105SOL     OW56211  10.235  14.127  13.724
18105SOL    HW156212  10.246  14.222  13.734
18105SOL    HW256213  10.324  14.093  13.723
18106SOL     OW56214   9.393   2.473  11.439
18106SOL    HW156215   9.421   2.465  11.348
18106SOL    HW256216   9.345   2.556  11.443
18107SOL     OW56217   0.411  12.159   5.263
18107SOL    HW156218   0.337  12.116   5.220
18107SOL    HW256219   0.372  12.218   5.327
18108SOL     OW56220   7.676   4.615  10.459
18108SOL    HW156221   7.734   4.623  10.535
18108SOL    HW256222   7.597   4.573  10.494
18109SOL     OW56223   7.601   5.194   7.740
18109SOL    HW156224   7.560   5.269   7.697
18109SOL    HW256225   7.695   5.208   7.729
18110SOL     OW56226  14.866   8.249   8.654
18110SOL    HW156227   0.041   8.270   8.724
18110SOL    HW256228  14.855   8.154   8.661
18111SOL     OW56229   1.564   9.170   5.521
18111SOL    HW156230   1.655   9.143   5.535
18111SOL    HW256231   1.522   9.094   5.482
18112SOL     OW56232   9.033   4.952   0.855
18112SOL    HW156233   8.992   4.949   0.769
18112SOL    HW256234   9.061   5.043   0.865
18113SOL     OW56235  13.284   7.549   3.913
18113SOL    HW156236  13.249   7.527   3.999
18113SOL    HW256237  13.263   7.642   3.903
18114SOL     OW56238  14.213   8.930   9.690
18114SOL    HW156239  14.189   9.022   9.699
18114SOL    HW256240  14.201   8.894   9.778
18115SOL     OW56241   3.732  14.106   1.769
18115SOL    HW156242   3.827  14.117   1.766
18115SOL    HW256243   3.716  14.023   1.723
18116SOL     OW56244  10.739  10.370   2.327
18116SOL    HW156245  10.769  10.304   2.265
18116SOL    HW256246  10.820  10.414   2.355
18117SOL     OW56247  14.496  11.691   1.562
18117SOL    HW156248  14.560  11.660   1.625
18117SOL    HW256249  14.495  11.786   1.573
18118SOL     OW56250   0.397  10.391   7.116
18118SOL    HW156251   0.479  10.367   7.160
18118SOL    HW256252   0.330  10.345   7.166
18119SOL     OW56253   8.993  14.316  12.047
18119SOL    HW156254   9.017  14.403  12.080
18119SOL    HW256255   8.899  14.309  12.062
18120SOL     OW56256  14.795   7.634   6.401
18120SOL    HW156257  14.724   7.570   6.389
18120SOL    HW256258  14.839   7.637   6.316
18121SOL     OW56259  10.454   3.883   0.367
18121SOL    HW156260  10.393   3.897   0.440
18121SOL    HW256261  10.405   3.828   0.306
18122SOL     OW56262   0.659   1.080  10.893
18122SOL    HW156263   0.594   1.144  10.922
18122SOL    HW256264   0.732   1.089  10.954
18123SOL     OW56265  12.844   0.320   1.028
18123SOL    HW156266  12.783   0.372   1.079
18123SOL    HW256267  12.879   0.381   0.963
18124SOL     OW56268   0.173  13.787   2.873
18124SOL    HW156269   0.147  13.840   2.798
18124SOL    HW256270   0.130  13.702   2.859
18125SOL     OW56271   6.675   3.140  10.055
18125SOL    HW156272   6.751   3.193  10.077
18125SOL    HW256273   6.677   3.069  10.119
18126SOL     OW56274   8.552   1.474   9.315
18126SOL    HW156275   8.621   1.537   9.296
18126SOL    HW256276   8.500   1.471   9.235
18127SOL     OW56277   1.062   5.259   3.022
18127SOL    HW156278   1.117   5.293   2.952
18127SOL    HW256279   1.083   5.314   3.098
18128SOL     OW56280   4.769   9.044  14.866
18128SOL    HW156281   4.849   9.037   0.031
18128SOL    HW256282   4.763   9.137  14.845
18129SOL     OW56283  13.240  13.120  11.301
18129SOL    HW156284  13.171  13.122  11.236
18129SOL    HW256285  13.197  13.145  11.383
18130SOL     OW56286   2.584   1.580   8.626
18130SOL    HW156287   2.581   1.664   8.672
18130SOL    HW256288   2.571   1.603   8.534
18131SOL     OW56289   5.543  11.896  10.258
18131SOL    HW156290   5.552  11.817  10.311
18131SOL    HW256291   5.523  11.965  10.322
18132SOL     OW56292   6.936  14.399  14.164
18132SOL    HW156293   6.858  14.380  14.112
18132SOL    HW256294   6.978  14.471  14.118
18133SOL     OW56295  11.940   0.480   6.578
18133SOL    HW156296  12.035   0.479   6.580
18133SOL    HW256297  11.914   0.479   6.670
18134SOL     OW56298   3.814   3.149   3.874
18134SOL    HW156299   3.760   3.138   3.796
18134SOL    HW256300   3.751   3.156   3.946
18135SOL     OW56301   8.774   4.119  13.386
18135SOL    HW156302   8.869   4.121  13.379
18135SOL    HW256303   8.756   4.157  13.472
18136SOL     OW56304   7.629   0.274   3.859
18136SOL    HW156305   7.606   0.277   3.951
18136SOL    HW256306   7.658   0.363   3.838
18137SOL     OW56307  13.708  13.513  13.886
18137SOL    HW156308  13.761  13.570  13.943
18137SOL    HW256309  13.671  13.574  13.822
18138SOL     OW56310   3.069   8.596   0.514
18138SOL    HW156311   3.035   8.595   0.604
18138SOL    HW256312   3.147   8.541   0.517
18139SOL     OW56313  11.055   6.105   9.627
18139SOL    HW156314  11.105   6.069   9.554
18139SOL    HW256315  11.060   6.037   9.695
18140SOL     OW56316  11.932  13.882   6.935
18140SOL    HW156317  11.915  13.918   7.023
18140SOL    HW256318  11.907  13.790   6.941
18141SOL     OW56319   7.657   0.220   9.321
18141SOL    HW156320   7.625   0.277   9.252
18141SOL    HW256321   7.612   0.250   9.400
18142SOL     OW56322   6.973  12.999   0.709
18142SOL    HW156323   6.885  13.007   0.747
18142SOL    HW256324   7.013  12.927   0.757
18143SOL     OW56325  14.079   4.172   1.049
18143SOL    HW156326  14.030   4.237   0.998
18143SOL    HW256327  14.103   4.104   0.986
18144SOL     OW56328  10.446   4.730   1.012
18144SOL    HW156329  10.440   4.655   1.071
18144SOL    HW256330  10.425   4.694   0.925
18145SOL     OW56331  13.840   4.427   5.560
18145SOL    HW156332  13.871   4.383   5.639
18145SOL    HW256333  13.903   4.400   5.492
18146SOL     OW56334   7.014   5.157  14.185
18146SOL    HW156335   6.942   5.216  14.207
18146SOL    HW256336   7.085   5.181  14.244
18147SOL     OW56337   9.564   4.427   9.098
18147SOL    HW156338   9.547   4.516   9.066
18147SOL    HW256339   9.482   4.400   9.140
18148SOL     OW56340   3.853   1.294   3.166
18148SOL    HW156341   3.927   1.326   3.218
18148SOL    HW256342   3.894   1.252   3.090
18149SOL     OW56343   1.680   3.739   1.447
18149SOL    HW156344   1.772   3.730   1.421
18149SOL    HW256345   1.669   3.832   1.461
18150SOL     OW56346  14.085   3.900   5.036
18150SOL    HW156347  14.117   3.970   5.093
18150SOL    HW256348  14.024   3.943   4.976
18151SOL     OW56349  13.252   1.791   5.756
18151SOL    HW156350  13.324   1.812   5.815
18151SOL    HW256351  13.262   1.853   5.683
18152SOL     OW56352   6.962  12.821  14.013
18152SOL    HW156353   7.026  12.845  13.946
18152SOL    HW256354   7.012  12.770  14.076
18153SOL     OW56355  10.075  12.361   1.138
18153SOL    HW156356  10.132  12.366   1.215
18153SOL    HW256357  10.043  12.271   1.137
18154SOL     OW56358   5.240  11.126  12.450
18154SOL    HW156359   5.229  11.074  12.371
18154SOL    HW256360   5.314  11.184  12.431
18155SOL     OW56361   4.782  13.625   0.499
18155SOL    HW156362   4.876  13.606   0.505
18155SOL    HW256363   4.755  13.641   0.589
18156SOL     OW56364   5.688   6.376   4.711
18156SOL    HW156365   5.650   6.418   4.635
18156SOL    HW256366   5.712   6.288   4.681
18157SOL     OW56367  10.074   8.581   6.935
18157SOL    HW156368  10.050   8.628   7.014
18157SOL    HW256369  10.018   8.619   6.867
18158SOL     OW56370   2.845  14.620   5.033
18158SOL    HW156371   2.840  14.712   5.060
18158SOL    HW256372   2.759  14.600   4.997
18159SOL     OW56373   9.878   6.695   0.986
18159SOL    HW156374   9.946   6.739   0.936
18159SOL    HW256375   9.796   6.732   0.953
18160SOL     OW56376  10.824   7.625   2.939
18160SOL    HW156377  10.877   7.704   2.948
18160SOL    HW256378  10.853   7.586   2.857
18161SOL     OW56379   9.959   3.554   1.219
18161SOL    HW156380   9.978   3.606   1.297
18161SOL    HW256381   9.904   3.483   1.251
18162SOL     OW56382  11.327  12.895  14.172
18162SOL    HW156383  11.264  12.891  14.100
18162SOL    HW256384  11.293  12.833  14.237
18163SOL     OW56385  10.458  11.788  10.311
18163SOL    HW156386  10.384  11.755  10.361
18163SOL    HW256387  10.531  11.732  10.336
18164SOL     OW56388   7.541  13.147  10.212
18164SOL    HW156389   7.481  13.197  10.266
18164SOL    HW256390   7.618  13.133  10.268
18165SOL     OW56391  10.666   7.443  11.193
18165SOL    HW156392  10.575   7.449  11.162
18165SOL    HW256393  10.665   7.485  11.279
18166SOL     OW56394   1.967   0.993   9.731
18166SOL    HW156395   2.048   0.994   9.680
18166SOL    HW256396   1.900   0.967   9.668
18167SOL     OW56397   9.483   6.844   3.154
18167SOL    HW156398   9.410   6.783   3.152
18167SOL    HW256399   9.554   6.794   3.195
18168SOL     OW56400   1.358   2.400   4.186
18168SOL    HW156401   1.395   2.389   4.098
18168SOL    HW256402   1.275   2.445   4.171
18169SOL     OW56403  12.559   6.134  14.686
18169SOL    HW156404  12.521   6.059  14.639
18169SOL    HW256405  12.486   6.173  14.733
18170SOL     OW56406   7.116  12.368  10.111
18170SOL    HW156407   7.075  12.411  10.035
18170SOL    HW256408   7.094  12.275  10.101
18171SOL     OW56409   6.259   0.118   6.535
18171SOL    HW156410   6.322   0.046   6.540
18171SOL    HW256411   6.279   0.162   6.452
18172SOL     OW56412   6.297   7.225  11.115
18172SOL    HW156413   6.261   7.233  11.027
18172SOL    HW256414   6.342   7.141  11.114
18173SOL     OW56415   6.254  11.451   2.729
18173SOL    HW156416   6.334  11.465   2.677
18173SOL    HW256417   6.246  11.530   2.781
18174SOL     OW56418   5.673   2.617   3.122
18174SOL    HW156419   5.612   2.689   3.143
18174SOL    HW256420   5.728   2.653   3.052
18175SOL     OW56421   8.002   9.287  12.615
18175SOL    HW156422   8.044   9.208  12.581
18175SOL    HW256423   8.067   9.356  12.602
18176SOL     OW56424   2.528   9.051  13.529
18176SOL    HW156425   2.550   9.033  13.438
18176SOL    HW256426   2.610   9.040  13.576
18177SOL     OW56427  14.493   9.050  13.709
18177SOL    HW156428  14.491   9.045  13.613
18177SOL    HW256429  14.416   9.001  13.737
18178SOL     OW56430   3.333   2.373   0.433
18178SOL    HW156431   3.380   2.310   0.487
18178SOL    HW256432   3.311   2.324   0.353
18179SOL     OW56433   6.162   9.020   0.959
18179SOL    HW156434   6.115   9.089   0.912
18179SOL    HW256435   6.180   8.954   0.893
18180SOL     OW56436   7.065   3.896   5.634
18180SOL    HW156437   7.087   3.990   5.631
18180SOL    HW256438   7.076   3.867   5.544
18181SOL     OW56439   3.407   0.190   7.043
18181SOL    HW156440   3.334   0.177   7.103
18181SOL    HW256441   3.413   0.285   7.033
18182SOL     OW56442   4.007   7.566  10.472
18182SOL    HW156443   4.072   7.616  10.423
18182SOL    HW256444   4.055   7.534  10.549
18183SOL     OW56445  12.341   9.467   0.342
18183SOL    HW156446  12.411   9.440   0.401
18183SOL    HW256447  12.341   9.400   0.274
18184SOL     OW56448   9.531  11.406   5.330
18184SOL    HW156449   9.526  11.500   5.350
18184SOL    HW256450   9.592  11.400   5.258
18185SOL     OW56451   3.039   1.949   9.903
18185SOL    HW156452   2.969   1.965   9.966
18185SOL    HW256453   3.058   2.035   9.865
18186SOL     OW56454   3.669   6.984   9.623
18186SOL    HW156455   3.709   6.910   9.575
18186SOL    HW256456   3.576   6.962   9.628
18187SOL     OW56457  14.210   7.946  12.773
18187SOL    HW156458  14.172   8.033  12.763
18187SOL    HW256459  14.210   7.931  12.867
18188SOL     OW56460  14.381   8.536   8.881
18188SOL    HW156461  14.355   8.450   8.914
18188SOL    HW256462  14.308   8.564   8.825
18189SOL     OW56463   3.362  10.898   1.824
18189SOL    HW156464   3.430  10.842   1.862
18189SOL    HW256465   3.387  10.986   1.849
18190SOL     OW56466  12.951  13.953   5.874
18190SOL    HW156467  12.930  13.860   5.866
18190SOL    HW256468  12.868  13.998   5.854
18191SOL     OW56469   7.167  10.536  12.254
18191SOL    HW156470   7.211  10.615  12.223
18191SOL    HW256471   7.142  10.489  12.174
18192SOL     OW56472   8.071   9.072   5.129
18192SOL    HW156473   7.988   9.114   5.106
18192SOL    HW256474   8.132   9.145   5.143
18193SOL     OW56475  10.608   4.816   1.787
18193SOL    HW156476  10.659   4.866   1.723
18193SOL    HW256477  10.661   4.739   1.804
18194SOL     OW56478  14.663   3.300   5.955
18194SOL    HW156479  14.592   3.362   5.970
18194SOL    HW256480  14.675   3.298   5.860
18195SOL     OW56481   6.239  12.793  12.250
18195SOL    HW156482   6.226  12.759  12.161
18195SOL    HW256483   6.334  12.791  12.263
18196SOL     OW56484  11.143   3.574  12.931
18196SOL    HW156485  11.106   3.571  12.842
18196SOL    HW256486  11.090   3.512  12.981
18197SOL     OW56487  14.513   0.961  14.210
18197SOL    HW156488  14.567   1.025  14.257
18197SOL    HW256489  14.473   0.908  14.279
18198SOL     OW56490   7.695  11.462   4.098
18198SOL    HW156491   7.654  11.432   4.017
18198SOL    HW256492   7.721  11.381   4.143
18199SOL     OW56493   1.476   4.092  10.755
18199SOL    HW156494   1.554   4.036  10.757
18199SOL    HW256495   1.492   4.153  10.683
18200SOL     OW56496   4.332  14.399  12.568
18200SOL    HW156497   4.303  14.309  12.578
18200SOL    HW256498   4.338  14.433  12.658
18201SOL     OW56499  12.336   3.165  12.318
18201SOL    HW156500  12.251   3.128  12.340
18201SOL    HW256501  12.391   3.144  12.394
18202SOL     OW56502   7.783   0.808   1.089
18202SOL    HW156503   7.721   0.872   1.054
18202SOL    HW256504   7.825   0.853   1.163
18203SOL     OW56505   8.708   5.427   9.809
18203SOL    HW156506   8.626   5.421   9.760
18203SOL    HW256507   8.687   5.394   9.896
18204SOL     OW56508  14.513   6.104   5.861
18204SOL    HW156509  14.478   6.193   5.856
18204SOL    HW256510  14.543   6.085   5.772
18205SOL     OW56511   4.598  13.795   0.374
18205SOL    HW156512   4.677  13.745   0.394
18205SOL    HW256513   4.574  13.768   0.285
18206SOL     OW56514   1.207  11.778   1.405
18206SOL    HW156515   1.300  11.763   1.388
18206SOL    HW256516   1.166  11.693   1.389
18207SOL     OW56517  13.635   0.451   6.802
18207SOL    HW156518  13.614   0.473   6.712
18207SOL    HW256519  13.577   0.377   6.823
18208SOL     OW56520  14.269   7.235  10.534
18208SOL    HW156521  14.309   7.227  10.447
18208SOL    HW256522  14.334   7.196  10.593
18209SOL     OW56523   0.765   0.693   1.873
18209SOL    HW156524   0.678   0.683   1.837
18209SOL    HW256525   0.801   0.604   1.873
18210SOL     OW56526   8.319   5.921   7.879
18210SOL    HW156527   8.306   6.016   7.884
18210SOL    HW256528   8.231   5.885   7.891
18211SOL     OW56529   9.799  12.515   6.990
18211SOL    HW156530   9.797  12.420   6.981
18211SOL    HW256531   9.787  12.530   7.084
18212SOL     OW56532  14.431   9.847   9.055
18212SOL    HW156533  14.499   9.905   9.020
18212SOL    HW256534  14.351   9.872   9.009
18213SOL     OW56535  10.311   9.946  14.423
18213SOL    HW156536  10.220   9.920  14.409
18213SOL    HW256537  10.327   9.928  14.515
18214SOL     OW56538   4.650   1.439   9.316
18214SOL    HW156539   4.633   1.414   9.406
18214SOL    HW256540   4.674   1.357   9.272
18215SOL     OW56541  14.027  10.969   9.936
18215SOL    HW156542  14.051  11.062   9.939
18215SOL    HW256543  13.936  10.967   9.966
18216SOL     OW56544   5.900   5.496   0.850
18216SOL    HW156545   5.889   5.419   0.795
18216SOL    HW256546   5.811   5.530   0.861
18217SOL     OW56547   6.113  12.836   0.128
18217SOL    HW156548   6.173  12.906   0.103
18217SOL    HW256549   6.051  12.829   0.054
18218SOL     OW56550  11.910   7.328   6.369
18218SOL    HW156551  11.851   7.308   6.442
18218SOL    HW256552  11.994   7.348   6.411
18219SOL     OW56553  14.867  14.437   5.001
18219SOL    HW156554  14.811  14.363   5.024
18219SOL    HW256555   0.029  14.456   5.080
18220SOL     OW56556   7.693  11.495   1.164
18220SOL    HW156557   7.687  11.466   1.073
18220SOL    HW256558   7.767  11.556   1.164
18221SOL     OW56559   8.211  11.162   2.194
18221SOL    HW156560   8.305  11.168   2.178
18221SOL    HW256561   8.204  11.150   2.288
18222SOL     OW56562   0.340   9.832   2.068
18222SOL    HW156563   0.248   9.813   2.053
18222SOL    HW256564   0.385   9.751   2.042
18223SOL     OW56565  12.220  10.814  11.940
18223SOL    HW156566  12.156  10.747  11.915
18223SOL    HW256567  12.295  10.764  11.971
18224SOL     OW56568   5.764   8.467  10.809
18224SOL    HW156569   5.848   8.486  10.852
18224SOL    HW256570   5.751   8.373  10.822
18225SOL     OW56571   6.340   3.527   5.185
18225SOL    HW156572   6.310   3.537   5.276
18225SOL    HW256573   6.429   3.561   5.185
18226SOL     OW56574  11.169  14.296   3.462
18226SOL    HW156575  11.129  14.312   3.376
18226SOL    HW256576  11.166  14.201   3.473
18227SOL     OW56577   5.050   1.984  10.443
18227SOL    HW156578   5.000   1.902  10.440
18227SOL    HW256579   5.141   1.957  10.453
18228SOL     OW56580  12.280   3.924   4.624
18228SOL    HW156581  12.295   3.936   4.718
18228SOL    HW256582  12.367   3.909   4.587
18229SOL     OW56583   6.696  14.482   8.992
18229SOL    HW156584   6.740  14.460   9.074
18229SOL    HW256585   6.671  14.574   9.001
18230SOL     OW56586   6.283   7.286   4.318
18230SOL    HW156587   6.294   7.320   4.229
18230SOL    HW256588   6.329   7.348   4.373
18231SOL     OW56589  14.453   7.735   4.493
18231SOL    HW156590  14.447   7.805   4.428
18231SOL    HW256591  14.464   7.655   4.442
18232SOL     OW56592   1.490   8.129   8.882
18232SOL    HW156593   1.465   8.081   8.961
18232SOL    HW256594   1.575   8.094   8.858
18233SOL     OW56595  11.355   0.407   8.111
18233SOL    HW156596  11.360   0.312   8.122
18233SOL    HW256597  11.426   0.428   8.052
18234SOL     OW56598   0.373   7.395   6.425
18234SOL    HW156599   0.300   7.431   6.476
18234SOL    HW256600   0.366   7.438   6.340
18235SOL     OW56601   0.902   5.819   8.791
18235SOL    HW156602   0.921   5.896   8.844
18235SOL    HW256603   0.839   5.769   8.844
18236SOL     OW56604   5.608   7.471   2.259
18236SOL    HW156605   5.684   7.522   2.230
18236SOL    HW256606   5.571   7.522   2.330
18237SOL     OW56607  11.916   9.362   9.400
18237SOL    HW156608  11.874   9.290   9.447
18237SOL    HW256609  11.851   9.391   9.337
18238SOL     OW56610   8.170   0.419   4.390
18238SOL    HW156611   8.117   0.369   4.328
18238SOL    HW256612   8.137   0.393   4.476
18239SOL     OW56613   1.224   7.999   7.001
18239SOL    HW156614   1.266   7.922   7.039
18239SOL    HW256615   1.185   8.044   7.076
18240SOL     OW56616   9.032  12.669  12.552
18240SOL    HW156617   9.081  12.626  12.482
18240SOL    HW256618   9.041  12.762  12.535
18241SOL     OW56619   2.354  12.437   6.789
18241SOL    HW156620   2.382  12.368   6.729
18241SOL    HW256621   2.434  12.487   6.808
18242SOL     OW56622   0.859  10.440   5.731
18242SOL    HW156623   0.849  10.397   5.646
18242SOL    HW256624   0.894  10.372   5.789
18243SOL     OW56625   7.222   0.766   8.209
18243SOL    HW156626   7.151   0.732   8.154
18243SOL    HW256627   7.228   0.859   8.186
18244SOL     OW56628  13.335  14.081   9.461
18244SOL    HW156629  13.298  14.093   9.548
18244SOL    HW256630  13.324  13.988   9.443
18245SOL     OW56631   6.581   1.726   9.753
18245SOL    HW156632   6.663   1.726   9.703
18245SOL    HW256633   6.514   1.700   9.690
18246SOL     OW56634   3.993  14.592  12.878
18246SOL    HW156635   4.084  14.616  12.894
18246SOL    HW256636   3.970  14.637  12.796
18247SOL     OW56637   2.248   5.600   4.658
18247SOL    HW156638   2.323   5.633   4.707
18247SOL    HW256639   2.253   5.505   4.667
18248SOL     OW56640   7.286  11.600   3.403
18248SOL    HW156641   7.259  11.566   3.489
18248SOL    HW256642   7.382  11.599   3.407
18249SOL     OW56643   2.267  11.129   0.756
18249SOL    HW156644   2.333  11.196   0.774
18249SOL    HW256645   2.277  11.067   0.828
18250SOL     OW56646  11.014  13.148   9.672
18250SOL    HW156647  11.018  13.060   9.636
18250SOL    HW256648  10.969  13.139   9.756
18251SOL     OW56649  11.422   5.715   3.098
18251SOL    HW156650  11.398   5.676   3.013
18251SOL    HW256651  11.388   5.804   3.093
18252SOL     OW56652   5.740  10.163  10.993
18252SOL    HW156653   5.699  10.232  11.045
18252SOL    HW256654   5.726  10.190  10.903
18253SOL     OW56655   8.034   5.937   0.816
18253SOL    HW156656   8.058   5.997   0.886
18253SOL    HW256657   7.941   5.953   0.801
18254SOL     OW56658   0.192  14.667  12.070
18254SOL    HW156659   0.216  14.695  11.982
18254SOL    HW256660   0.274  14.636  12.108
18255SOL     OW56661   9.190  13.837  13.906
18255SOL    HW156662   9.112  13.865  13.858
18255SOL    HW256663   9.155  13.798  13.987
18256SOL     OW56664  11.026   3.829   9.040
18256SOL    HW156665  10.939   3.794   9.022
18256SOL    HW256666  11.010   3.919   9.069
18257SOL     OW56667   8.896  14.344   8.825
18257SOL    HW156668   8.901  14.361   8.731
18257SOL    HW256669   8.895  14.249   8.832
18258SOL     OW56670   0.334   0.816   0.470
18258SOL    HW156671   0.355   0.727   0.498
18258SOL    HW256672   0.244   0.829   0.498
18259SOL     OW56673  10.498  10.786  13.044
18259SOL    HW156674  10.457  10.708  13.080
18259SOL    HW256675  10.479  10.782  12.950
18260SOL     OW56676   7.292   5.136  10.358
18260SOL    HW156677   7.317   5.141  10.450
18260SOL    HW256678   7.281   5.042  10.342
18261SOL     OW56679   1.809   9.038   2.883
18261SOL    HW156680   1.746   9.105   2.855
18261SOL    HW256681   1.822   9.055   2.976
18262SOL     OW56682   8.372   2.209   8.423
18262SOL    HW156683   8.325   2.210   8.340
18262SOL    HW256684   8.340   2.131   8.468
18263SOL     OW56685  11.158  11.708   6.156
18263SOL    HW156686  11.139  11.623   6.116
18263SOL    HW256687  11.096  11.714   6.229
18264SOL     OW56688  11.164   9.477   0.869
18264SOL    HW156689  11.097   9.452   0.805
18264SOL    HW256690  11.147   9.421   0.944
18265SOL     OW56691   9.689   4.267   0.463
18265SOL    HW156692   9.772   4.315   0.462
18265SOL    HW256693   9.624   4.330   0.434
18266SOL     OW56694  14.118   1.110   8.932
18266SOL    HW156695  14.129   1.018   8.911
18266SOL    HW256696  14.156   1.119   9.020
18267SOL     OW56697  12.468   5.932  11.730
18267SOL    HW156698  12.546   5.988  11.729
18267SOL    HW256699  12.407   5.977  11.671
18268SOL     OW56700   3.521  12.299   3.247
18268SOL    HW156701   3.451  12.303   3.312
18268SOL    HW256702   3.500  12.222   3.194
18269SOL     OW56703  10.098   9.214  12.478
18269SOL    HW156704  10.096   9.217  12.382
18269SOL    HW256705  10.076   9.303  12.505
18270SOL     OW56706   7.753   7.619   1.071
18270SOL    HW156707   7.689   7.581   1.010
18270SOL    HW256708   7.832   7.567   1.059
18271SOL     OW56709   0.504   8.184   1.920
18271SOL    HW156710   0.442   8.238   1.968
18271SOL    HW256711   0.449   8.132   1.861
18272SOL     OW56712  13.876   0.299  13.795
18272SOL    HW156713  13.786   0.267  13.805
18272SOL    HW256714  13.928   0.219  13.791
18273SOL     OW56715   4.711   9.520  10.733
18273SOL    HW156716   4.663   9.561  10.661
18273SOL    HW256717   4.801   9.513  10.700
18274SOL     OW56718   4.073  12.355  10.465
18274SOL    HW156719   4.145  12.302  10.499
18274SOL    HW256720   4.100  12.378  10.376
18275SOL     OW56721   9.662   5.969   2.065
18275SOL    HW156722   9.571   5.998   2.059
18275SOL    HW256723   9.714   6.048   2.050
18276SOL     OW56724   2.403   0.064   8.071
18276SOL    HW156725   2.333   0.127   8.051
18276SOL    HW256726   2.461   0.111   8.130
18277SOL     OW56727   1.991   1.250   8.892
18277SOL    HW156728   2.076   1.288   8.867
18277SOL    HW256729   2.010   1.195   8.967
18278SOL     OW56730  14.827   0.930   7.025
18278SOL    HW156731  14.785   0.845   7.017
18278SOL    HW256732  14.886   0.935   6.949
18279SOL     OW56733  13.227   6.162   7.466
18279SOL    HW156734  13.185   6.126   7.544
18279SOL    HW256735  13.319   6.135   7.474
18280SOL     OW56736   8.025  13.650   6.686
18280SOL    HW156737   7.957  13.641   6.753
18280SOL    HW256738   8.003  13.584   6.620
18281SOL     OW56739   1.649   5.892  12.206
18281SOL    HW156740   1.557   5.894  12.230
18281SOL    HW256741   1.695   5.881  12.289
18282SOL     OW56742  12.158   8.865  10.464
18282SOL    HW156743  12.206   8.806  10.405
18282SOL    HW256744  12.084   8.814  10.495
18283SOL     OW56745   6.054   5.884  13.301
18283SOL    HW156746   6.045   5.977  13.280
18283SOL    HW256747   6.148   5.873  13.316
18284SOL     OW56748  13.918   4.152  12.979
18284SOL    HW156749  13.983   4.116  12.919
18284SOL    HW256750  13.840   4.163  12.924
18285SOL     OW56751   4.639   4.693  14.714
18285SOL    HW156752   4.633   4.621  14.777
18285SOL    HW256753   4.644   4.772  14.767
18286SOL     OW56754   7.162   2.778  10.223
18286SOL    HW156755   7.204   2.697  10.255
18286SOL    HW256756   7.228   2.817  10.166
18287SOL     OW56757  12.292   4.046  11.134
18287SOL    HW156758  12.251   4.086  11.210
18287SOL    HW256759  12.367   4.103  11.115
18288SOL     OW56760   6.058   5.512  13.288
18288SOL    HW156761   6.111   5.556  13.355
18288SOL    HW256762   5.999   5.456  13.338
18289SOL     OW56763   7.950  10.118  13.220
18289SOL    HW156764   7.863  10.083  13.237
18289SOL    HW256765   7.935  10.208  13.191
18290SOL     OW56766   2.035   3.209   6.363
18290SOL    HW156767   2.126   3.196   6.338
18290SOL    HW256768   2.035   3.291   6.412
18291SOL     OW56769  12.303   8.160   6.263
18291SOL    HW156770  12.265   8.244   6.287
18291SOL    HW256771  12.242   8.123   6.200
18292SOL     OW56772   3.721  10.082   5.879
18292SOL    HW156773   3.636  10.067   5.838
18292SOL    HW256774   3.782  10.090   5.805
18293SOL     OW56775  12.326  10.567   1.129
18293SOL    HW156776  12.408  10.568   1.080
18293SOL    HW256777  12.258  10.577   1.062
18294SOL     OW56778   9.272   1.706   5.185
18294SOL    HW156779   9.217   1.784   5.182
18294SOL    HW256780   9.337   1.721   5.116
18295SOL     OW56781   7.766   7.067  12.608
18295SOL    HW156782   7.853   7.061  12.568
18295SOL    HW256783   7.706   7.049  12.536
18296SOL     OW56784   3.337   2.636   5.885
18296SOL    HW156785   3.332   2.563   5.823
18296SOL    HW256786   3.294   2.604   5.963
18297SOL     OW56787   9.018   5.121   2.784
18297SOL    HW156788   8.975   5.139   2.701
18297SOL    HW256789   8.972   5.044   2.818
18298SOL     OW56790   5.709  11.521   9.407
18298SOL    HW156791   5.803  11.536   9.417
18298SOL    HW256792   5.672  11.610   9.404
18299SOL     OW56793   3.725   7.857   1.645
18299SOL    HW156794   3.802   7.820   1.601
18299SOL    HW256795   3.750   7.861   1.738
18300SOL     OW56796  14.572   1.371   5.140
18300SOL    HW156797  14.606   1.432   5.206
18300SOL    HW256798  14.576   1.420   5.058
18301SOL     OW56799   0.635   7.145   2.548
18301SOL    HW156800   0.592   7.063   2.573
18301SOL    HW256801   0.576   7.183   2.483
18302SOL     OW56802   6.784  14.755   1.481
18302SOL    HW156803   6.786  14.842   1.441
18302SOL    HW256804   6.835  14.764   1.562
18303SOL     OW56805   4.014   8.038   2.637
18303SOL    HW156806   4.050   8.068   2.720
18303SOL    HW256807   3.949   8.104   2.614
18304SOL     OW56808  13.184  10.459   4.287
18304SOL    HW156809  13.216  10.476   4.198
18304SOL    HW256810  13.237  10.385   4.317
18305SOL     OW56811   0.772   7.114   2.026
18305SOL    HW156812   0.755   7.026   2.058
18305SOL    HW256813   0.695   7.136   1.973
18306SOL     OW56814   0.026   5.872  11.413
18306SOL    HW156815   0.034   5.967  11.410
18306SOL    HW256816   0.113   5.839  11.390
18307SOL     OW56817   7.775   3.955  10.846
18307SOL    HW156818   7.765   3.891  10.915
18307SOL    HW256819   7.817   3.908  10.775
18308SOL     OW56820   6.175  13.225  11.680
18308SOL    HW156821   6.220  13.307  11.703
18308SOL    HW256822   6.241  13.157  11.692
18309SOL     OW56823  11.944   5.734   0.740
18309SOL    HW156824  11.856   5.749   0.774
18309SOL    HW256825  11.997   5.713   0.817
18310SOL     OW56826  14.880   2.131   8.514
18310SOL    HW156827   0.072   2.156   8.561
18310SOL    HW256828   0.000   2.174   8.429
18311SOL     OW56829   7.890   7.926  11.895
18311SOL    HW156830   7.890   7.972  11.811
18311SOL    HW256831   7.803   7.887  11.900
18312SOL     OW56832  12.613  10.448  10.341
18312SOL    HW156833  12.521  10.464  10.323
18312SOL    HW256834  12.618  10.354  10.358
18313SOL     OW56835   5.623  14.604   9.928
18313SOL    HW156836   5.594  14.677   9.983
18313SOL    HW256837   5.543  14.565   9.895
18314SOL     OW56838   5.243   2.785   7.341
18314SOL    HW156839   5.334   2.814   7.346
18314SOL    HW256840   5.193   2.866   7.335
18315SOL     OW56841  12.336   2.055   4.233
18315SOL    HW156842  12.383   2.005   4.166
18315SOL    HW256843  12.385   2.041   4.313
18316SOL     OW56844   3.732   8.100   0.222
18316SOL    HW156845   3.687   8.174   0.181
18316SOL    HW256846   3.670   8.068   0.288
18317SOL     OW56847  12.109  11.635  12.126
18317SOL    HW156848  12.119  11.729  12.114
18317SOL    HW256849  12.089  11.624  12.219
18318SOL     OW56850   3.443   7.552   6.543
18318SOL    HW156851   3.522   7.577   6.591
18318SOL    HW256852   3.371   7.587   6.595
18319SOL     OW56853   6.832   0.808  14.081
18319SOL    HW156854   6.768   0.877  14.096
18319SOL    HW256855   6.797   0.732  14.127
18320SOL     OW56856   2.515   0.330   6.210
18320SOL    HW156857   2.434   0.288   6.183
18320SOL    HW256858   2.569   0.331   6.131
18321SOL     OW56859   7.912  13.342   2.646
18321SOL    HW156860   7.902  13.417   2.703
18321SOL    HW256861   7.960  13.375   2.570
18322SOL     OW56862   3.605   0.633   0.152
18322SOL    HW156863   3.527   0.683   0.179
18322SOL    HW256864   3.639   0.596   0.234
18323SOL     OW56865  10.346  14.212  10.826
18323SOL    HW156866  10.369  14.152  10.755
18323SOL    HW256867  10.404  14.287  10.814
18324SOL     OW56868   1.943   4.038   4.176
18324SOL    HW156869   2.015   4.016   4.117
18324SOL    HW256870   1.984   4.084   4.249
18325SOL     OW56871   1.671   4.216   0.330
18325SOL    HW156872   1.707   4.245   0.246
18325SOL    HW256873   1.659   4.121   0.320
18326SOL     OW56874   9.747   3.080  12.163
18326SOL    HW156875   9.765   3.053  12.253
18326SOL    HW256876   9.833   3.085  12.122
18327SOL     OW56877   5.097  12.222  11.959
18327SOL    HW156878   5.142  12.281  12.020
18327SOL    HW256879   5.157  12.148  11.949
18328SOL     OW56880  11.550   3.315   9.223
18328SOL    HW156881  11.553   3.294   9.316
18328SOL    HW256882  11.460   3.344   9.208
18329SOL     OW56883   6.600   4.388   8.553
18329SOL    HW156884   6.539   4.420   8.486
18329SOL    HW256885   6.551   4.395   8.635
18330SOL     OW56886   6.020  14.205  12.350
18330SOL    HW156887   6.091  14.183  12.290
18330SOL    HW256888   5.955  14.249  12.295
18331SOL     OW56889   2.352  11.110   4.944
18331SOL    HW156890   2.276  11.079   4.993
18331SOL    HW256891   2.323  11.110   4.853
18332SOL     OW56892  12.784   1.898   9.489
18332SOL    HW156893  12.773   1.869   9.399
18332SOL    HW256894  12.703   1.872   9.533
18333SOL     OW56895   3.414  13.773  11.070
18333SOL    HW156896   3.444  13.853  11.114
18333SOL    HW256897   3.345  13.803  11.010
18334SOL     OW56898  10.442  14.260  11.344
18334SOL    HW156899  10.454  14.200  11.270
18334SOL    HW256900  10.352  14.245  11.373
18335SOL     OW56901  10.506  14.166   4.047
18335SOL    HW156902  10.594  14.140   4.074
18335SOL    HW256903  10.518  14.208   3.962
18336SOL     OW56904   3.830   3.867   9.018
18336SOL    HW156905   3.870   3.948   8.988
18336SOL    HW256906   3.852   3.862   9.111
18337SOL     OW56907   1.565   8.495   4.770
18337SOL    HW156908   1.591   8.415   4.816
18337SOL    HW256909   1.512   8.464   4.696
18338SOL     OW56910  10.746   9.073   1.258
18338SOL    HW156911  10.653   9.086   1.241
18338SOL    HW256912  10.771   8.999   1.202
18339SOL     OW56913   4.875   6.294   2.722
18339SOL    HW156914   4.870   6.200   2.736
18339SOL    HW256915   4.800   6.313   2.665
18340SOL     OW56916   0.487   8.709  14.787
18340SOL    HW156917   0.394   8.726  14.805
18340SOL    HW256918   0.532   8.784  14.826
18341SOL     OW56919   8.092   8.242   1.053
18341SOL    HW156920   8.019   8.304   1.055
18341SOL    HW256921   8.168   8.297   1.033
18342SOL     OW56922  13.699   7.025  10.600
18342SOL    HW156923  13.646   7.103  10.583
18342SOL    HW256924  13.789   7.052  10.581
18343SOL     OW56925   9.299  10.385  12.247
18343SOL    HW156926   9.339  10.370  12.333
18343SOL    HW256927   9.205  10.378  12.263
18344SOL     OW56928  12.985  11.038   9.521
18344SOL    HW156929  12.905  11.016   9.473
18344SOL    HW256930  13.047  10.968   9.498
18345SOL     OW56931   5.565   9.869   9.616
18345SOL    HW156932   5.470   9.884   9.614
18345SOL    HW256933   5.575   9.775   9.598
18346SOL     OW56934   4.577   0.093   7.635
18346SOL    HW156935   4.545   0.110   7.724
18346SOL    HW256936   4.563  14.886   7.623
18347SOL     OW56937  12.312   7.096  11.469
18347SOL    HW156938  12.305   7.014  11.420
18347SOL    HW256939  12.225   7.135  11.464
18348SOL     OW56940  10.334   6.417  12.106
18348SOL    HW156941  10.310   6.331  12.072
18348SOL    HW256942  10.270   6.434  12.175
18349SOL     OW56943   6.051  10.718   3.711
18349SOL    HW156944   5.996  10.675   3.777
18349SOL    HW256945   5.988  10.757   3.650
18350SOL     OW56946   5.617   5.741   2.265
18350SOL    HW156947   5.687   5.792   2.223
18350SOL    HW256948   5.582   5.799   2.332
18351SOL     OW56949   7.183  12.687   4.960
18351SOL    HW156950   7.267  12.678   5.004
18351SOL    HW256951   7.203  12.680   4.867
18352SOL     OW56952   9.604   0.232   6.446
18352SOL    HW156953   9.529   0.198   6.494
18352SOL    HW256954   9.644   0.297   6.505
18353SOL     OW56955  10.584   9.925   7.948
18353SOL    HW156956  10.632   9.960   7.873
18353SOL    HW256957  10.543  10.001   7.989
18354SOL     OW56958  11.493   7.867   0.245
18354SOL    HW156959  11.405   7.868   0.208
18354SOL    HW256960  11.543   7.812   0.184
18355SOL     OW56961  10.266  10.479   8.762
18355SOL    HW156962  10.252  10.570   8.733
18355SOL    HW256963  10.195  10.430   8.722
18356SOL     OW56964  11.432   7.134   8.691
18356SOL    HW156965  11.393   7.053   8.657
18356SOL    HW256966  11.434   7.123   8.786
18357SOL     OW56967  11.764  12.634   7.495
18357SOL    HW156968  11.722  12.664   7.414
18357SOL    HW256969  11.748  12.539   7.496
18358SOL     OW56970  10.870   2.875   8.939
18358SOL    HW156971  10.940   2.809   8.947
18358SOL    HW256972  10.901   2.934   8.870
18359SOL     OW56973  11.163  13.465   3.700
18359SOL    HW156974  11.148  13.500   3.612
18359SOL    HW256975  11.232  13.399   3.688
18360SOL     OW56976   4.101  11.566   3.792
18360SOL    HW156977   4.110  11.607   3.879
18360SOL    HW256978   4.117  11.637   3.730
18361SOL     OW56979   8.030   0.342  11.968
18361SOL    HW156980   8.030   0.308  12.058
18361SOL    HW256981   7.947   0.388  11.959
18362SOL     OW56982   2.434  14.216   2.906
18362SOL    HW156983   2.474  14.303   2.899
18362SOL    HW256984   2.501  14.156   2.874
18363SOL     OW56985  11.611   5.214  10.141
18363SOL    HW156986  11.628   5.221  10.047
18363SOL    HW256987  11.650   5.130  10.166
18364SOL     OW56988  14.757   8.973   0.448
18364SOL    HW156989  14.712   9.057   0.450
18364SOL    HW256990  14.707   8.917   0.506
18365SOL     OW56991   1.326   9.667   8.852
18365SOL    HW156992   1.384   9.590   8.847
18365SOL    HW256993   1.386   9.741   8.857
18366SOL     OW56994   8.332   0.998   1.098
18366SOL    HW156995   8.352   0.905   1.082
18366SOL    HW256996   8.391   1.023   1.169
18367SOL     OW56997   8.906   1.632   7.665
18367SOL    HW156998   8.930   1.677   7.585
18367SOL    HW256999   8.989   1.613   7.708
18368SOL     OW57000  12.046   1.025   7.821
18368SOL    HW157001  11.976   1.027   7.886
18368SOL    HW257002  12.110   0.964   7.857
18369SOL     OW57003  11.389   5.998   4.934
18369SOL    HW157004  11.465   6.036   4.979
18369SOL    HW257005  11.328   6.071   4.926
18370SOL     OW57006   9.583   1.086   7.592
18370SOL    HW157007   9.599   1.047   7.505
18370SOL    HW257008   9.530   1.020   7.637
18371SOL     OW57009   2.731   7.436  10.274
18371SOL    HW157010   2.760   7.527  10.269
18371SOL    HW257011   2.760   7.396  10.192
18372SOL     OW57012  11.698   9.049   9.438
18372SOL    HW157013  11.609   9.069   9.467
18372SOL    HW257014  11.754   9.091   9.504
18373SOL     OW57015   3.910   2.441  14.620
18373SOL    HW157016   4.003   2.426  14.604
18373SOL    HW257017   3.868   2.356  14.602
18374SOL     OW57018  13.254   3.722   5.564
18374SOL    HW157019  13.188   3.664   5.603
18374SOL    HW257020  13.276   3.783   5.634
18375SOL     OW57021   7.664  11.352  11.345
18375SOL    HW157022   7.674  11.341  11.251
18375SOL    HW257023   7.708  11.276  11.383
18376SOL     OW57024  13.181   8.162  12.362
18376SOL    HW157025  13.258   8.218  12.373
18376SOL    HW257026  13.139   8.194  12.282
18377SOL     OW57027  11.257   5.290   8.921
18377SOL    HW157028  11.166   5.287   8.892
18377SOL    HW257029  11.308   5.264   8.844
18378SOL     OW57030  13.894  13.266  10.704
18378SOL    HW157031  13.906  13.333  10.637
18378SOL    HW257032  13.828  13.301  10.764
18379SOL     OW57033   3.537   4.063  10.270
18379SOL    HW157034   3.451   4.098  10.248
18379SOL    HW257035   3.596   4.101  10.205
18380SOL     OW57036   9.608   3.380   5.682
18380SOL    HW157037   9.613   3.456   5.625
18380SOL    HW257038   9.698   3.365   5.711
18381SOL     OW57039   6.356  12.357  13.680
18381SOL    HW157040   6.390  12.278  13.639
18381SOL    HW257041   6.372  12.426  13.616
18382SOL     OW57042   2.686  14.287   0.168
18382SOL    HW157043   2.630  14.350   0.122
18382SOL    HW257044   2.630  14.212   0.187
18383SOL     OW57045   4.434   2.009   4.960
18383SOL    HW157046   4.511   1.953   4.954
18383SOL    HW257047   4.424   2.026   5.054
18384SOL     OW57048   2.734  13.121   8.031
18384SOL    HW157049   2.803  13.144   8.094
18384SOL    HW257050   2.759  13.167   7.951
18385SOL     OW57051  14.886   9.706   7.796
18385SOL    HW157052   0.063   9.759   7.843
18385SOL    HW257053   0.037   9.692   7.710
18386SOL     OW57054   5.058   1.501   6.615
18386SOL    HW157055   5.090   1.540   6.697
18386SOL    HW257056   4.987   1.558   6.587
18387SOL     OW57057  13.327   7.162   3.460
18387SOL    HW157058  13.349   7.253   3.480
18387SOL    HW257059  13.365   7.112   3.532
18388SOL     OW57060   9.911   0.802   7.614
18388SOL    HW157061   9.973   0.752   7.668
18388SOL    HW257062   9.967   0.858   7.560
18389SOL     OW57063   2.865   9.114   4.515
18389SOL    HW157064   2.932   9.046   4.516
18389SOL    HW257065   2.913   9.196   4.530
18390SOL     OW57066   2.996   1.070  12.933
18390SOL    HW157067   2.958   1.135  12.992
18390SOL    HW257068   3.045   1.121  12.869
18391SOL     OW57069  10.544   1.682   5.186
18391SOL    HW157070  10.597   1.720   5.116
18391SOL    HW257071  10.568   1.732   5.264
18392SOL     OW57072   6.429  11.918  12.884
18392SOL    HW157073   6.418  11.823  12.890
18392SOL    HW257074   6.477  11.931  12.802
18393SOL     OW57075  12.826   6.240  11.262
18393SOL    HW157076  12.905   6.294  11.262
18393SOL    HW257077  12.823   6.202  11.175
18394SOL     OW57078   4.243   4.805   1.744
18394SOL    HW157079   4.197   4.745   1.686
18394SOL    HW257080   4.265   4.880   1.688
18395SOL     OW57081   4.458  11.168  11.089
18395SOL    HW157082   4.435  11.077  11.106
18395SOL    HW257083   4.392  11.219  11.137
18396SOL     OW57084   2.253   0.243  12.635
18396SOL    HW157085   2.175   0.281  12.677
18396SOL    HW257086   2.235   0.149  12.631
18397SOL     OW57087  13.020   6.942  11.210
18397SOL    HW157088  13.114   6.926  11.201
18397SOL    HW257089  12.979   6.868  11.166
18398SOL     OW57090   4.680   5.967   0.896
18398SOL    HW157091   4.729   6.021   0.959
18398SOL    HW257092   4.701   6.004   0.811
18399SOL     OW57093  13.824  11.949   5.549
18399SOL    HW157094  13.818  11.991   5.463
18399SOL    HW257095  13.762  11.876   5.544
18400SOL     OW57096   1.334   2.757   2.607
18400SOL    HW157097   1.386   2.820   2.656
18400SOL    HW257098   1.262   2.809   2.571
18401SOL     OW57099   0.160   4.924   3.879
18401SOL    HW157100   0.222   4.863   3.919
18401SOL    HW257101   0.191   5.011   3.905
18402SOL     OW57102  11.584   0.827   6.894
18402SOL    HW157103  11.524   0.840   6.968
18402SOL    HW257104  11.534   0.772   6.833
18403SOL     OW57105  11.618  10.683   4.628
18403SOL    HW157106  11.660  10.716   4.548
18403SOL    HW257107  11.527  10.668   4.603
18404SOL     OW57108  14.239  13.395   2.432
18404SOL    HW157109  14.182  13.465   2.399
18404SOL    HW257110  14.274  13.430   2.514
18405SOL     OW57111   2.825  12.371   6.734
18405SOL    HW157112   2.904  12.388   6.786
18405SOL    HW257113   2.768  12.446   6.752
18406SOL     OW57114   7.957   0.757  14.299
18406SOL    HW157115   7.976   0.731  14.389
18406SOL    HW257116   8.021   0.710  14.246
18407SOL     OW57117  10.861  13.543   7.414
18407SOL    HW157118  10.774  13.580   7.427
18407SOL    HW257119  10.873  13.483   7.488
18408SOL     OW57120   3.445  11.668   8.987
18408SOL    HW157121   3.511  11.736   8.972
18408SOL    HW257122   3.407  11.652   8.901
18409SOL     OW57123   3.927   0.169   8.379
18409SOL    HW157124   3.859   0.146   8.315
18409SOL    HW257125   3.889   0.239   8.431
18410SOL     OW57126  11.392   9.198   2.633
18410SOL    HW157127  11.369   9.131   2.569
18410SOL    HW257128  11.348   9.171   2.714
18411SOL     OW57129  14.210  13.700   1.328
18411SOL    HW157130  14.208  13.717   1.422
18411SOL    HW257131  14.303  13.695   1.306
18412SOL     OW57132   9.613  10.495   5.116
18412SOL    HW157133   9.678  10.562   5.095
18412SOL    HW257134   9.539  10.514   5.059
18413SOL     OW57135   6.230   2.337   9.672
18413SOL    HW157136   6.320   2.353   9.701
18413SOL    HW257137   6.190   2.424   9.666
18414SOL     OW57138  14.233   1.226  11.818
18414SOL    HW157139  14.215   1.295  11.882
18414SOL    HW257140  14.169   1.240  11.749
18415SOL     OW57141   4.386   5.986   6.519
18415SOL    HW157142   4.365   6.022   6.605
18415SOL    HW257143   4.363   5.893   6.526
18416SOL     OW57144  10.989   2.451   6.550
18416SOL    HW157145  10.983   2.446   6.646
18416SOL    HW257146  10.970   2.542   6.529
18417SOL     OW57147   6.621  13.031   9.335
18417SOL    HW157148   6.640  13.093   9.264
18417SOL    HW257149   6.609  13.086   9.412
18418SOL     OW57150   3.971   0.519   2.591
18418SOL    HW157151   3.970   0.426   2.571
18418SOL    HW257152   3.880   0.542   2.610
18419SOL     OW57153  14.763   1.668   2.240
18419SOL    HW157154  14.738   1.760   2.241
18419SOL    HW257155  14.859   1.669   2.234
18420SOL     OW57156  14.685   0.686   3.571
18420SOL    HW157157  14.779   0.673   3.566
18420SOL    HW257158  14.657   0.630   3.643
18421SOL     OW57159   0.826  13.005  11.129
18421SOL    HW157160   0.738  13.014  11.165
18421SOL    HW257161   0.837  12.911  11.117
18422SOL     OW57162   2.928  12.045   7.007
18422SOL    HW157163   3.001  12.049   6.945
18422SOL    HW257164   2.874  11.973   6.975
18423SOL     OW57165   8.001   4.259   1.392
18423SOL    HW157166   8.044   4.198   1.452
18423SOL    HW257167   7.933   4.206   1.349
18424SOL     OW57168  13.638   8.272  12.205
18424SOL    HW157169  13.723   8.269  12.162
18424SOL    HW257170  13.632   8.361  12.241
18425SOL     OW57171   2.112  14.212   9.805
18425SOL    HW157172   2.045  14.174   9.861
18425SOL    HW257173   2.068  14.283   9.759
18426SOL     OW57174  13.503   4.055  12.803
18426SOL    HW157175  13.488   4.147  12.825
18426SOL    HW257176  13.441   4.037  12.731
18427SOL     OW57177  13.560   4.197  14.494
18427SOL    HW157178  13.639   4.145  14.479
18427SOL    HW257179  13.493   4.155  14.440
18428SOL     OW57180   4.099   5.095   6.547
18428SOL    HW157181   4.163   5.082   6.477
18428SOL    HW257182   4.033   5.152   6.508
18429SOL     OW57183  13.494   1.755  13.258
18429SOL    HW157184  13.565   1.707  13.215
18429SOL    HW257185  13.420   1.748  13.197
18430SOL     OW57186   1.720   5.872   9.885
18430SOL    HW157187   1.691   5.849   9.797
18430SOL    HW257188   1.810   5.838   9.891
18431SOL     OW57189  11.335   1.785  14.460
18431SOL    HW157190  11.368   1.796  14.371
18431SOL    HW257191  11.285   1.865  14.478
18432SOL     OW57192   0.432   6.836   3.365
18432SOL    HW157193   0.357   6.895   3.371
18432SOL    HW257194   0.502   6.882   3.413
18433SOL     OW57195   3.055   7.832  12.107
18433SOL    HW157196   3.075   7.823  12.014
18433SOL    HW257197   3.138   7.857  12.147
18434SOL     OW57198  10.526   5.625   1.173
18434SOL    HW157199  10.602   5.683   1.163
18434SOL    HW257200  10.564   5.537   1.180
18435SOL     OW57201   8.795   2.240   8.989
18435SOL    HW157202   8.821   2.253   8.898
18435SOL    HW257203   8.743   2.317   9.011
18436SOL     OW57204   0.000  10.082   8.463
18436SOL    HW157205  14.810  10.027   8.474
18436SOL    HW257206   0.040  10.085   8.550
18437SOL     OW57207   3.723   4.713   3.127
18437SOL    HW157208   3.693   4.657   3.198
18437SOL    HW257209   3.797   4.665   3.089
18438SOL     OW57210   3.417   8.328   8.122
18438SOL    HW157211   3.359   8.380   8.178
18438SOL    HW257212   3.475   8.393   8.081
18439SOL     OW57213  10.875  14.344  14.230
18439SOL    HW157214  10.861  14.436  14.210
18439SOL    HW257215  10.903  14.306  14.146
18440SOL     OW57216   4.202   2.031  11.884
18440SOL    HW157217   4.212   2.051  11.977
18440SOL    HW257218   4.114   1.995  11.877
18441SOL     OW57219  10.700  10.291   8.292
18441SOL    HW157220  10.687  10.360   8.357
18441SOL    HW257221  10.740  10.219   8.341
18442SOL     OW57222   3.785   3.272   8.026
18442SOL    HW157223   3.710   3.301   7.974
18442SOL    HW257224   3.858   3.274   7.964
18443SOL     OW57225  13.278   0.281   7.249
18443SOL    HW157226  13.200   0.324   7.283
18443SOL    HW257227  13.247   0.196   7.218
18444SOL     OW57228   8.582   9.595   8.665
18444SOL    HW157229   8.531   9.568   8.741
18444SOL    HW257230   8.530   9.565   8.590
18445SOL     OW57231  14.132   0.845  14.391
18445SOL    HW157232  14.189   0.791  14.336
18445SOL    HW257233  14.109   0.788  14.464
18446SOL     OW57234  12.377   3.111   8.703
18446SOL    HW157235  12.445   3.140   8.642
18446SOL    HW257236  12.300   3.095   8.648
18447SOL     OW57237   4.804  14.570   0.348
18447SOL    HW157238   4.851  14.539   0.270
18447SOL    HW257239   4.785  14.491   0.398
18448SOL     OW57240   4.974  13.834  10.013
18448SOL    HW157241   5.066  13.860  10.011
18448SOL    HW257242   4.927  13.911  10.043
18449SOL     OW57243   0.321   1.562   8.318
18449SOL    HW157244   0.397   1.587   8.265
18449SOL    HW257245   0.259   1.634   8.306
18450SOL     OW57246  13.580  11.431  10.833
18450SOL    HW157247  13.592  11.497  10.902
18450SOL    HW257248  13.664  11.427  10.788
18451SOL     OW57249   2.845   2.904   4.891
18451SOL    HW157250   2.759   2.944   4.879
18451SOL    HW257251   2.827   2.817   4.927
18452SOL     OW57252  11.641  13.390   5.393
18452SOL    HW157253  11.676  13.456   5.333
18452SOL    HW257254  11.546  13.397   5.384
18453SOL     OW57255   0.116   5.676   4.202
18453SOL    HW157256   0.071   5.612   4.258
18453SOL    HW257257   0.053   5.696   4.132
18454SOL     OW57258  11.229  10.216   1.295
18454SOL    HW157259  11.214  10.286   1.359
18454SOL    HW257260  11.284  10.153   1.342
18455SOL     OW57261   3.114  12.789   2.833
18455SOL    HW157262   3.166  12.850   2.886
18455SOL    HW257263   3.034  12.838   2.813
18456SOL     OW57264   2.785   5.829  12.919
18456SOL    HW157265   2.768   5.766  12.848
18456SOL    HW257266   2.717   5.895  12.909
18457SOL     OW57267   8.139   4.167   6.663
18457SOL    HW157268   8.120   4.206   6.748
18457SOL    HW257269   8.060   4.181   6.611
18458SOL     OW57270   3.608   6.635   1.748
18458SOL    HW157271   3.608   6.653   1.842
18458SOL    HW257272   3.564   6.551   1.740
18459SOL     OW57273   5.436   5.662  13.172
18459SOL    HW157274   5.515   5.693  13.126
18459SOL    HW257275   5.456   5.571  13.194
18460SOL     OW57276   5.216   1.611   1.002
18460SOL    HW157277   5.234   1.646   0.915
18460SOL    HW257278   5.301   1.579   1.033
18461SOL     OW57279   8.212   6.378   6.908
18461SOL    HW157280   8.258   6.299   6.877
18461SOL    HW257281   8.283   6.437   6.934
18462SOL     OW57282   0.231  13.628   4.873
18462SOL    HW157283   0.325  13.616   4.883
18462SOL    HW257284   0.201  13.656   4.960
18463SOL     OW57285   7.588   6.303   3.311
18463SOL    HW157286   7.565   6.380   3.363
18463SOL    HW257287   7.682   6.311   3.296
18464SOL     OW57288   3.325   0.986   4.660
18464SOL    HW157289   3.229   0.995   4.662
18464SOL    HW257290   3.350   0.983   4.752
18465SOL     OW57291  14.832   6.842   9.943
18465SOL    HW157292  14.843   6.931   9.909
18465SOL    HW257293  14.743   6.818   9.919
18466SOL     OW57294   8.210   5.813  12.339
18466SOL    HW157295   8.126   5.792  12.380
18466SOL    HW257296   8.268   5.832  12.412
18467SOL     OW57297   2.031   7.482   8.182
18467SOL    HW157298   1.984   7.465   8.264
18467SOL    HW257299   1.967   7.465   8.114
18468SOL     OW57300   5.778   4.754  14.501
18468SOL    HW157301   5.853   4.771  14.558
18468SOL    HW257302   5.782   4.660  14.483
18469SOL     OW57303  11.882   3.164   1.698
18469SOL    HW157304  11.961   3.145   1.649
18469SOL    HW257305  11.882   3.259   1.709
18470SOL     OW57306   8.690   9.358  13.582
18470SOL    HW157307   8.765   9.347  13.642
18470SOL    HW257308   8.717   9.313  13.502
18471SOL     OW57309  13.845   6.914   2.105
18471SOL    HW157310  13.874   6.829   2.140
18471SOL    HW257311  13.861   6.975   2.177
18472SOL     OW57312   5.747   1.998  13.945
18472SOL    HW157313   5.773   2.012  13.854
18472SOL    HW257314   5.827   1.973  13.990
18473SOL     OW57315   6.848   9.309   0.391
18473SOL    HW157316   6.835   9.243   0.323
18473SOL    HW257317   6.845   9.392   0.344
18474SOL     OW57318   4.724  13.551  11.568
18474SOL    HW157319   4.694  13.603  11.642
18474SOL    HW257320   4.776  13.481  11.607
18475SOL     OW57321   0.616  14.462   0.182
18475SOL    HW157322   0.609  14.432   0.091
18475SOL    HW257323   0.580  14.390   0.234
18476SOL     OW57324   0.025   5.043   1.526
18476SOL    HW157325   0.100   5.100   1.511
18476SOL    HW257326  14.857   5.092   1.588
18477SOL     OW57327   6.255  11.504  14.141
18477SOL    HW157328   6.328  11.451  14.109
18477SOL    HW257329   6.292  11.553  14.215
18478SOL     OW57330   4.081   6.271   2.362
18478SOL    HW157331   4.102   6.339   2.298
18478SOL    HW257332   4.145   6.202   2.345
18479SOL     OW57333   3.587   3.355   3.688
18479SOL    HW157334   3.579   3.296   3.763
18479SOL    HW257335   3.554   3.304   3.614
18480SOL     OW57336   6.762   9.808   2.657
18480SOL    HW157337   6.739   9.793   2.566
18480SOL    HW257338   6.814   9.889   2.655
18481SOL     OW57339   1.001   3.113   0.515
18481SOL    HW157340   0.941   3.067   0.575
18481SOL    HW257341   1.071   3.145   0.572
18482SOL     OW57342   8.210  11.326   3.202
18482SOL    HW157343   8.119  11.354   3.195
18482SOL    HW257344   8.221  11.260   3.134
18483SOL     OW57345   0.364   8.346   7.808
18483SOL    HW157346   0.395   8.287   7.739
18483SOL    HW257347   0.442   8.392   7.838
18484SOL     OW57348   7.541   0.214   1.344
18484SOL    HW157349   7.524   0.134   1.395
18484SOL    HW257350   7.476   0.211   1.273
18485SOL     OW57351  10.630  11.682  14.522
18485SOL    HW157352  10.714  11.657  14.483
18485SOL    HW257353  10.612  11.613  14.585
18486SOL     OW57354  12.836  14.715   4.251
18486SOL    HW157355  12.819  14.664   4.330
18486SOL    HW257356  12.785  14.672   4.183
18487SOL     OW57357   5.729  14.053  14.038
18487SOL    HW157358   5.751  14.146  14.036
18487SOL    HW257359   5.813  14.008  14.033
18488SOL     OW57360  11.890   4.811   5.024
18488SOL    HW157361  11.900   4.806   5.119
18488SOL    HW257362  11.834   4.736   5.002
18489SOL     OW57363  11.895  14.846   6.461
18489SOL    HW157364  11.879   0.053   6.449
18489SOL    HW257365  11.990  14.837   6.458
18490SOL     OW57366  14.447  10.531  13.141
18490SOL    HW157367  14.389  10.479  13.086
18490SOL    HW257368  14.476  10.472  13.210
18491SOL     OW57369  11.653   9.446   8.979
18491SOL    HW157370  11.720   9.430   9.046
18491SOL    HW257371  11.576   9.475   9.028
18492SOL     OW57372   6.074  10.484   5.513
18492SOL    HW157373   6.138  10.414   5.527
18492SOL    HW257374   5.998  10.439   5.475
18493SOL     OW57375  11.587  12.942   1.024
18493SOL    HW157376  11.562  12.856   0.990
18493SOL    HW257377  11.577  12.934   1.119
18494SOL     OW57378   4.479   8.569   6.778
18494SOL    HW157379   4.397   8.606   6.810
18494SOL    HW257380   4.464   8.474   6.778
18495SOL     OW57381   9.758   2.214  13.502
18495SOL    HW157382   9.736   2.225  13.410
18495SOL    HW257383   9.673   2.199  13.545
18496SOL     OW57384   4.502   8.869   6.127
18496SOL    HW157385   4.447   8.881   6.204
18496SOL    HW257386   4.470   8.933   6.064
18497SOL     OW57387   0.270   4.130   7.934
18497SOL    HW157388   0.220   4.193   7.985
18497SOL    HW257389   0.350   4.177   7.910
18498SOL     OW57390   3.877   7.743   4.397
18498SOL    HW157391   3.809   7.695   4.349
18498SOL    HW257392   3.958   7.721   4.352
18499SOL     OW57393   1.692   2.951  13.360
18499SOL    HW157394   1.787   2.934  13.362
18499SOL    HW257395   1.664   2.914  13.276
18500SOL     OW57396  12.260   8.622  13.938
18500SOL    HW157397  12.341   8.650  13.981
18500SOL    HW257398  12.259   8.527  13.947
18501SOL     OW57399   3.650   5.157   0.282
18501SOL    HW157400   3.718   5.198   0.334
18501SOL    HW257401   3.568   5.184   0.323
18502SOL     OW57402  13.905  13.453   5.693
18502SOL    HW157403  13.987  13.492   5.723
18502SOL    HW257404  13.911  13.361   5.719
18503SOL     OW57405  14.204   3.206   9.384
18503SOL    HW157406  14.250   3.246   9.310
18503SOL    HW257407  14.260   3.225   9.460
18504SOL     OW57408   5.412   2.237   1.560
18504SOL    HW157409   5.409   2.318   1.610
18504SOL    HW257410   5.481   2.185   1.601
18505SOL     OW57411   1.738   6.360  12.722
18505SOL    HW157412   1.792   6.293  12.766
18505SOL    HW257413   1.650   6.323  12.723
18506SOL     OW57414  11.046   2.711   7.812
18506SOL    HW157415  11.112   2.689   7.879
18506SOL    HW257416  10.964   2.713   7.860
18507SOL     OW57417  14.616  13.426   0.696
18507SOL    HW157418  14.566  13.447   0.775
18507SOL    HW257419  14.664  13.346   0.719
18508SOL     OW57420   9.003   4.636  11.770
18508SOL    HW157421   8.978   4.547  11.748
18508SOL    HW257422   9.070   4.627  11.838
18509SOL     OW57423  14.854   1.276  11.351
18509SOL    HW157424  14.835   1.252  11.441
18509SOL    HW257425   0.008   1.363  11.357
18510SOL     OW57426  13.287   6.927   5.289
18510SOL    HW157427  13.231   6.948   5.213
18510SOL    HW257428  13.351   6.865   5.255
18511SOL     OW57429   3.308  10.118   7.201
18511SOL    HW157430   3.369  10.176   7.246
18511SOL    HW257431   3.233  10.112   7.259
18512SOL     OW57432   1.742   5.788  14.093
18512SOL    HW157433   1.764   5.787  14.000
18512SOL    HW257434   1.827   5.794  14.138
18513SOL     OW57435   4.268   6.857   4.610
18513SOL    HW157436   4.362   6.843   4.617
18513SOL    HW257437   4.248   6.922   4.677
18514SOL     OW57438   9.262   4.117   6.461
18514SOL    HW157439   9.205   4.193   6.465
18514SOL    HW257440   9.208   4.044   6.488
18515SOL     OW57441   5.423  13.796  13.528
18515SOL    HW157442   5.353  13.862  13.522
18515SOL    HW257443   5.403  13.734  13.457
18516SOL     OW57444  11.249  11.590   8.595
18516SOL    HW157445  11.249  11.650   8.520
18516SOL    HW257446  11.189  11.520   8.570
18517SOL     OW57447  11.977   8.546  14.303
18517SOL    HW157448  11.901   8.494  14.277
18517SOL    HW257449  12.016   8.573  14.220
18518SOL     OW57450   4.826   6.138  14.836
18518SOL    HW157451   4.825   6.226  14.875
18518SOL    HW257452   4.757   6.141  14.769
18519SOL     OW57453   7.278   4.436  11.314
18519SOL    HW157454   7.202   4.380  11.303
18519SOL    HW257455   7.344   4.380  11.354
18520SOL     OW57456  11.481   0.552  12.057
18520SOL    HW157457  11.460   0.568  12.149
18520SOL    HW257458  11.505   0.637  12.023
18521SOL     OW57459   1.069   3.883  13.378
18521SOL    HW157460   1.010   3.857  13.448
18521SOL    HW257461   1.095   3.973  13.398
18522SOL     OW57462  13.491   4.162  11.225
18522SOL    HW157463  13.527   4.215  11.296
18522SOL    HW257464  13.560   4.099  11.204
18523SOL     OW57465   0.602  10.668   5.216
18523SOL    HW157466   0.627  10.576   5.222
18523SOL    HW257467   0.683  10.716   5.229
18524SOL     OW57468   3.847  12.538   6.328
18524SOL    HW157469   3.825  12.555   6.236
18524SOL    HW257470   3.791  12.597   6.378
18525SOL     OW57471   1.050  11.373   1.045
18525SOL    HW157472   1.136  11.331   1.054
18525SOL    HW257473   1.001  11.314   0.986
18526SOL     OW57474  11.286  12.421  13.220
18526SOL    HW157475  11.303  12.474  13.142
18526SOL    HW257476  11.195  12.393  13.211
18527SOL     OW57477   4.838  14.862   9.659
18527SOL    HW157478   4.751  14.822   9.666
18527SOL    HW257479   4.866  14.876   9.749
18528SOL     OW57480  10.602   6.815  14.217
18528SOL    HW157481  10.631   6.794  14.305
18528SOL    HW257482  10.512   6.846  14.228
18529SOL     OW57483  10.943   0.017   4.547
18529SOL    HW157484  10.939  14.860   4.632
18529SOL    HW257485  10.993   0.097   4.564
18530SOL     OW57486   8.727   1.090  12.577
18530SOL    HW157487   8.734   1.132  12.491
18530SOL    HW257488   8.633   1.083  12.593
18531SOL     OW57489   4.579   7.852  14.172
18531SOL    HW157490   4.631   7.877  14.248
18531SOL    HW257491   4.494   7.894  14.187
18532SOL     OW57492  10.354  14.640   1.298
18532SOL    HW157493  10.314  14.581   1.363
18532SOL    HW257494  10.378  14.718   1.348
18533SOL     OW57495   8.386   6.098   9.256
18533SOL    HW157496   8.450   6.045   9.208
18533SOL    HW257497   8.429   6.183   9.267
18534SOL     OW57498   2.729  10.583   6.458
18534SOL    HW157499   2.791  10.622   6.519
18534SOL    HW257500   2.756  10.491   6.451
18535SOL     OW57501   8.191   0.156  11.450
18535SOL    HW157502   8.192   0.251  11.460
18535SOL    HW257503   8.100   0.135  11.428
18536SOL     OW57504  10.782  13.316   1.398
18536SOL    HW157505  10.691  13.334   1.421
18536SOL    HW257506  10.777  13.250   1.328
18537SOL     OW57507   0.946   9.833   6.978
18537SOL    HW157508   0.924   9.860   6.889
18537SOL    HW257509   1.029   9.877   6.997
18538SOL     OW57510   5.583   3.943  10.393
18538SOL    HW157511   5.511   3.908  10.446
18538SOL    HW257512   5.637   3.991  10.456
18539SOL     OW57513  11.865   0.672   3.557
18539SOL    HW157514  11.896   0.761   3.575
18539SOL    HW257515  11.786   0.662   3.609
18540SOL     OW57516   0.614   6.521  11.849
18540SOL    HW157517   0.600   6.441  11.900
18540SOL    HW257518   0.696   6.506  11.803
18541SOL     OW57519  10.471   8.438   0.881
18541SOL    HW157520  10.504   8.429   0.970
18541SOL    HW257521  10.377   8.422   0.889
18542SOL     OW57522   6.966   7.428  12.663
18542SOL    HW157523   6.872   7.429  12.646
18542SOL    HW257524   7.000   7.360  12.605
18543SOL     OW57525   3.409   6.828  14.583
18543SOL    HW157526   3.367   6.766  14.642
18543SOL    HW257527   3.502   6.824  14.606
18544SOL     OW57528   1.121   1.266   2.196
18544SOL    HW157529   1.109   1.171   2.202
18544SOL    HW257530   1.052   1.302   2.252
18545SOL     OW57531   3.729   7.223   0.342
18545SOL    HW157532   3.807   7.279   0.345
18545SOL    HW257533   3.673   7.255   0.412
18546SOL     OW57534   8.842   7.502   7.925
18546SOL    HW157535   8.772   7.562   7.952
18546SOL    HW257536   8.919   7.532   7.976
18547SOL     OW57537  12.233   9.439   4.846
18547SOL    HW157538  12.209   9.347   4.840
18547SOL    HW257539  12.277   9.447   4.931
18548SOL     OW57540   3.471  11.857  10.058
18548SOL    HW157541   3.545  11.861   9.997
18548SOL    HW257542   3.434  11.770  10.045
18549SOL     OW57543   2.055   1.982   4.863
18549SOL    HW157544   1.981   2.016   4.912
18549SOL    HW257545   2.071   2.048   4.795
18550SOL     OW57546  10.478   4.337   7.033
18550SOL    HW157547  10.571   4.343   7.012
18550SOL    HW257548  10.444   4.425   7.017
18551SOL     OW57549   2.757   6.548   8.725
18551SOL    HW157550   2.732   6.638   8.746
18551SOL    HW257551   2.757   6.502   8.809
18552SOL     OW57552   5.200  11.998  14.693
18552SOL    HW157553   5.232  11.931  14.633
18552SOL    HW257554   5.155  12.061  14.637
18553SOL     OW57555  14.854  11.148   7.763
18553SOL    HW157556  14.865  11.228   7.713
18553SOL    HW257557  14.845  11.177   7.854
18554SOL     OW57558   6.607  13.550   8.780
18554SOL    HW157559   6.644  13.629   8.819
18554SOL    HW257560   6.624  13.560   8.686
18555SOL     OW57561   3.127   7.244   9.738
18555SOL    HW157562   3.220   7.240   9.758
18555SOL    HW257563   3.121   7.299   9.659
18556SOL     OW57564   4.502   7.051   8.807
18556SOL    HW157565   4.496   7.074   8.714
18556SOL    HW257566   4.455   7.121   8.852
18557SOL     OW57567   2.207   1.947   6.859
18557SOL    HW157568   2.194   2.036   6.824
18557SOL    HW257569   2.222   1.961   6.953
18558SOL     OW57570  11.130  12.955  13.702
18558SOL    HW157571  11.148  12.928  13.792
18558SOL    HW257572  11.208  13.004  13.676
18559SOL     OW57573   5.380   4.355   7.276
18559SOL    HW157574   5.375   4.290   7.345
18559SOL    HW257575   5.463   4.339   7.233
18560SOL     OW57576  14.136   5.319   1.474
18560SOL    HW157577  14.080   5.280   1.542
18560SOL    HW257578  14.223   5.284   1.491
18561SOL     OW57579  14.335  10.803  12.680
18561SOL    HW157580  14.381  10.810  12.763
18561SOL    HW257581  14.248  10.840  12.697
18562SOL     OW57582   6.075  10.738   9.711
18562SOL    HW157583   5.980  10.729   9.705
18562SOL    HW257584   6.110  10.662   9.665
18563SOL     OW57585   0.131   6.785  11.153
18563SOL    HW157586   0.106   6.787  11.061
18563SOL    HW257587   0.184   6.864  11.166
18564SOL     OW57588   7.575   7.423   2.748
18564SOL    HW157589   7.666   7.395   2.765
18564SOL    HW257590   7.584   7.494   2.684
18565SOL     OW57591   6.560  10.425   5.385
18565SOL    HW157592   6.608  10.402   5.465
18565SOL    HW257593   6.588  10.514   5.365
18566SOL     OW57594  14.795   9.110   8.781
18566SOL    HW157595  14.705   9.085   8.802
18566SOL    HW257596  14.838   9.118   8.866
18567SOL     OW57597   7.755   2.704   9.091
18567SOL    HW157598   7.832   2.697   9.033
18567SOL    HW257599   7.685   2.735   9.033
18568SOL     OW57600  12.708  10.307   3.559
18568SOL    HW157601  12.663  10.223   3.561
18568SOL    HW257602  12.683  10.349   3.641
18569SOL     OW57603  13.690   3.502  10.386
18569SOL    HW157604  13.704   3.531  10.476
18569SOL    HW257605  13.599   3.471  10.384
18570SOL     OW57606  12.731  14.135   9.550
18570SOL    HW157607  12.792  14.160   9.619
18570SOL    HW257608  12.787  14.106   9.478
18571SOL     OW57609   3.503   6.798   5.034
18571SOL    HW157610   3.589   6.809   4.994
18571SOL    HW257611   3.468   6.887   5.040
18572SOL     OW57612   9.395   0.954   5.998
18572SOL    HW157613   9.371   0.977   5.908
18572SOL    HW257614   9.394   0.858   5.999
18573SOL     OW57615   6.274   2.289  13.399
18573SOL    HW157616   6.351   2.334  13.364
18573SOL    HW257617   6.309   2.208  13.436
18574SOL     OW57618   0.670  10.795   1.142
18574SOL    HW157619   0.733  10.863   1.117
18574SOL    HW257620   0.629  10.768   1.060
18575SOL     OW57621   4.065   8.175  11.920
18575SOL    HW157622   3.984   8.144  11.878
18575SOL    HW257623   4.044   8.263  11.951
18576SOL     OW57624   1.023  13.490   4.229
18576SOL    HW157625   0.978  13.510   4.311
18576SOL    HW257626   1.116  13.484   4.253
18577SOL     OW57627   8.651   2.652  14.293
18577SOL    HW157628   8.729   2.708  14.290
18577SOL    HW257629   8.627   2.640  14.201
18578SOL     OW57630   6.367  10.037   4.874
18578SOL    HW157631   6.296  10.101   4.875
18578SOL    HW257632   6.403  10.039   4.963
18579SOL     OW57633   6.473  12.074  10.442
18579SOL    HW157634   6.513  12.069  10.529
18579SOL    HW257635   6.519  12.009  10.390
18580SOL     OW57636  11.709  12.672   6.076
18580SOL    HW157637  11.786  12.666   6.020
18580SOL    HW257638  11.730  12.618   6.152
18581SOL     OW57639   3.191   5.531  14.849
18581SOL    HW157640   3.286   5.544  14.845
18581SOL    HW257641   3.180   5.445   0.001
18582SOL     OW57642   3.392  12.719   8.071
18582SOL    HW157643   3.457  12.787   8.055
18582SOL    HW257644   3.336  12.755   8.139
18583SOL     OW57645  14.238   6.428   5.981
18583SOL    HW157646  14.257   6.519   5.960
18583SOL    HW257647  14.310   6.379   5.942
18584SOL     OW57648  10.477   7.487   1.258
18584SOL    HW157649  10.509   7.457   1.343
18584SOL    HW257650  10.466   7.581   1.268
18585SOL     OW57651   5.704  14.780   9.674
18585SOL    HW157652   5.763  14.850   9.648
18585SOL    HW257653   5.697  14.787   9.769
18586SOL     OW57654  14.325   5.524  12.077
18586SOL    HW157655  14.356   5.443  12.118
18586SOL    HW257656  14.348   5.592  12.140
18587SOL     OW57657  11.113  12.340   8.356
18587SOL    HW157658  11.054  12.402   8.399
18587SOL    HW257659  11.092  12.256   8.395
18588SOL     OW57660  13.013  10.063   3.098
18588SOL    HW157661  13.082  10.113   3.142
18588SOL    HW257662  13.001  10.108   3.014
18589SOL     OW57663  10.298   7.679   6.093
18589SOL    HW157664  10.299   7.584   6.101
18589SOL    HW257665  10.322   7.711   6.180
18590SOL     OW57666  11.615  13.887  11.236
18590SOL    HW157667  11.525  13.855  11.235
18590SOL    HW257668  11.648  13.863  11.323
18591SOL     OW57669  11.810   4.657   3.819
18591SOL    HW157670  11.810   4.573   3.772
18591SOL    HW257671  11.875   4.709   3.773
18592SOL     OW57672  11.056   0.809   7.057
18592SOL    HW157673  11.128   0.864   7.026
18592SOL    HW257674  11.098   0.727   7.083
18593SOL     OW57675  11.786  10.005  11.561
18593SOL    HW157676  11.846   9.945  11.517
18593SOL    HW257677  11.777   9.969  11.650
18594SOL     OW57678   3.343  12.412   1.755
18594SOL    HW157679   3.358  12.354   1.680
18594SOL    HW257680   3.248  12.416   1.763
18595SOL     OW57681   1.846  14.283   6.162
18595SOL    HW157682   1.855  14.378   6.166
18595SOL    HW257683   1.931  14.249   6.191
18596SOL     OW57684   3.281  11.458   3.106
18596SOL    HW157685   3.338  11.431   3.034
18596SOL    HW257686   3.340  11.499   3.169
18597SOL     OW57687   4.964   3.696   9.096
18597SOL    HW157688   4.931   3.633   9.032
18597SOL    HW257689   4.985   3.774   9.044
18598SOL     OW57690   7.498  14.184  10.524
18598SOL    HW157691   7.574  14.157  10.575
18598SOL    HW257692   7.527  14.178  10.433
18599SOL     OW57693   4.251  12.246   8.065
18599SOL    HW157694   4.308  12.303   8.117
18599SOL    HW257695   4.299  12.232   7.984
18600SOL     OW57696   0.475  14.739  13.884
18600SOL    HW157697   0.471  14.715  13.792
18600SOL    HW257698   0.385  14.739  13.914
18601SOL     OW57699   4.684   9.784  12.076
18601SOL    HW157700   4.623   9.748  12.141
18601SOL    HW257701   4.687   9.717  12.007
18602SOL     OW57702   4.615   1.202  11.771
18602SOL    HW157703   4.681   1.269  11.751
18602SOL    HW257704   4.649   1.158  11.849
18603SOL     OW57705  13.106   5.146   9.740
18603SOL    HW157706  13.169   5.168   9.673
18603SOL    HW257707  13.065   5.065   9.710
18604SOL     OW57708   0.672   8.770   7.682
18604SOL    HW157709   0.614   8.833   7.640
18604SOL    HW257710   0.747   8.821   7.711
18605SOL     OW57711   5.274   4.982  10.714
18605SOL    HW157712   5.187   5.007  10.681
18605SOL    HW257713   5.287   5.036  10.792
18606SOL     OW57714   7.431   1.529   8.815
18606SOL    HW157715   7.509   1.583   8.829
18606SOL    HW257716   7.458   1.442   8.845
18607SOL     OW57717  12.480   3.586   3.680
18607SOL    HW157718  12.410   3.592   3.615
18607SOL    HW257719  12.511   3.496   3.674
18608SOL     OW57720   7.089   7.859   2.682
18608SOL    HW157721   7.016   7.798   2.685
18608SOL    HW257722   7.167   7.804   2.693
18609SOL     OW57723   2.550  12.917  14.832
18609SOL    HW157724   2.580  12.907   0.035
18609SOL    HW257725   2.528  12.828  14.803
18610SOL     OW57726   8.130   0.916   3.660
18610SOL    HW157727   8.180   0.852   3.709
18610SOL    HW257728   8.162   0.908   3.570
18611SOL     OW57729   2.612   3.204   1.254
18611SOL    HW157730   2.634   3.112   1.268
18611SOL    HW257731   2.687   3.239   1.205
18612SOL     OW57732   8.152   4.397  13.586
18612SOL    HW157733   8.100   4.448  13.647
18612SOL    HW257734   8.091   4.333  13.549
18613SOL     OW57735   7.632  14.548   2.855
18613SOL    HW157736   7.636  14.462   2.814
18613SOL    HW257737   7.697  14.600   2.808
18614SOL     OW57738  10.035   5.385  14.013
18614SOL    HW157739  10.099   5.371  13.942
18614SOL    HW257740  10.003   5.474  13.998
18615SOL     OW57741  11.753   7.544   3.790
18615SOL    HW157742  11.747   7.462   3.741
18615SOL    HW257743  11.835   7.538   3.839
18616SOL     OW57744   4.889  14.002   8.080
18616SOL    HW157745   4.910  14.092   8.053
18616SOL    HW257746   4.804  13.984   8.038
18617SOL     OW57747   1.826   4.060   6.281
18617SOL    HW157748   1.875   4.070   6.362
18617SOL    HW257749   1.832   3.967   6.260
18618SOL     OW57750  11.912   7.690   9.223
18618SOL    HW157751  11.917   7.749   9.299
18618SOL    HW257752  11.830   7.642   9.235
18619SOL     OW57753   2.847   6.757  11.724
18619SOL    HW157754   2.939   6.736  11.709
18619SOL    HW257755   2.836   6.845  11.688
18620SOL     OW57756   2.918  13.346  13.338
18620SOL    HW157757   2.865  13.347  13.417
18620SOL    HW257758   2.876  13.281  13.281
18621SOL     OW57759   2.513  11.394   9.574
18621SOL    HW157760   2.457  11.392   9.496
18621SOL    HW257761   2.598  11.362   9.542
18622SOL     OW57762  10.883   0.759   9.459
18622SOL    HW157763  10.863   0.847   9.426
18622SOL    HW257764  10.857   0.701   9.387
18623SOL     OW57765  10.776  13.294   9.052
18623SOL    HW157766  10.705  13.296   8.988
18623SOL    HW257767  10.764  13.210   9.097
18624SOL     OW57768   7.507   0.381   9.908
18624SOL    HW157769   7.424   0.414   9.875
18624SOL    HW257770   7.493   0.287   9.918
18625SOL     OW57771   1.341   9.763  11.454
18625SOL    HW157772   1.337   9.854  11.425
18625SOL    HW257773   1.401   9.721  11.393
18626SOL     OW57774   9.551  14.188   6.797
18626SOL    HW157775   9.592  14.267   6.761
18626SOL    HW257776   9.488  14.222   6.860
18627SOL     OW57777   0.693   7.320  13.955
18627SOL    HW157778   0.617   7.339  14.010
18627SOL    HW257779   0.764   7.369  13.995
18628SOL     OW57780   6.920  13.301  11.544
18628SOL    HW157781   6.860  13.368  11.576
18628SOL    HW257782   6.878  13.266  11.466
18629SOL     OW57783  14.829  11.418   1.314
18629SOL    HW157784  14.784  11.362   1.378
18629SOL    HW257785  14.770  11.420   1.239
18630SOL     OW57786   4.224   0.117   6.892
18630SOL    HW157787   4.210   0.125   6.986
18630SOL    HW257788   4.195   0.028   6.871
18631SOL     OW57789  12.216   4.872  11.605
18631SOL    HW157790  12.122   4.870  11.623
18631SOL    HW257791  12.223   4.868  11.510
18632SOL     OW57792   2.980  13.335   5.915
18632SOL    HW157793   2.906  13.291   5.958
18632SOL    HW257794   2.989  13.290   5.831
18633SOL     OW57795   5.295   1.191  13.970
18633SOL    HW157796   5.277   1.158  13.882
18633SOL    HW257797   5.251   1.129  14.028
18634SOL     OW57798   9.496  10.060   2.192
18634SOL    HW157799   9.464   9.991   2.135
18634SOL    HW257800   9.435  10.060   2.266
18635SOL     OW57801  12.573   1.549   7.384
18635SOL    HW157802  12.570   1.621   7.320
18635SOL    HW257803  12.629   1.582   7.454
18636SOL     OW57804   2.953   7.552   7.963
18636SOL    HW157805   2.995   7.635   7.985
18636SOL    HW257806   2.898   7.572   7.887
18637SOL     OW57807   2.928  14.742  12.940
18637SOL    HW157808   3.003  14.801  12.945
18637SOL    HW257809   2.885  14.763  12.858
18638SOL     OW57810  12.211  13.114  10.104
18638SOL    HW157811  12.139  13.051  10.115
18638SOL    HW257812  12.168  13.195  10.077
18639SOL     OW57813  14.535   8.927   3.804
18639SOL    HW157814  14.591   8.926   3.881
18639SOL    HW257815  14.588   8.970   3.737
18640SOL     OW57816   9.307   2.891   8.362
18640SOL    HW157817   9.212   2.891   8.375
18640SOL    HW257818   9.318   2.883   8.267
18641SOL     OW57819   3.525   9.687   4.356
18641SOL    HW157820   3.534   9.704   4.450
18641SOL    HW257821   3.613   9.697   4.321
18642SOL     OW57822   6.147  13.944   2.661
18642SOL    HW157823   6.082  13.883   2.627
18642SOL    HW257824   6.119  13.962   2.750
18643SOL     OW57825   1.278  11.027  13.552
18643SOL    HW157826   1.264  11.084  13.477
18643SOL    HW257827   1.214  10.957  13.541
18644SOL     OW57828  10.132   2.919   1.390
18644SOL    HW157829  10.143   3.012   1.373
18644SOL    HW257830  10.206   2.896   1.447
18645SOL     OW57831  14.820   5.417  10.674
18645SOL    HW157832  14.810   5.385  10.584
18645SOL    HW257833  14.769   5.356  10.727
18646SOL     OW57834  12.485   7.704  11.545
18646SOL    HW157835  12.455   7.794  11.528
18646SOL    HW257836  12.452   7.654  11.471
18647SOL     OW57837   3.869  10.381  10.286
18647SOL    HW157838   3.850  10.298  10.243
18647SOL    HW257839   3.806  10.385  10.359
18648SOL     OW57840   5.356  10.398  12.745
18648SOL    HW157841   5.401  10.477  12.774
18648SOL    HW257842   5.389  10.329  12.803
18649SOL     OW57843  13.406   1.368  13.169
18649SOL    HW157844  13.490   1.398  13.134
18649SOL    HW257845  13.404   1.275  13.149
18650SOL     OW57846   9.798   9.688   5.524
18650SOL    HW157847   9.816   9.725   5.437
18650SOL    HW257848   9.706   9.710   5.540
18651SOL     OW57849  11.606   6.408   9.777
18651SOL    HW157850  11.636   6.317   9.781
18651SOL    HW257851  11.687   6.460   9.771
18652SOL     OW57852  11.302   4.289   6.536
18652SOL    HW157853  11.276   4.303   6.445
18652SOL    HW257854  11.289   4.195   6.551
18653SOL     OW57855   1.739   0.424  13.143
18653SOL    HW157856   1.757   0.508  13.102
18653SOL    HW257857   1.728   0.363  13.069
18654SOL     OW57858   5.994   7.707   9.577
18654SOL    HW157859   6.031   7.637   9.632
18654SOL    HW257860   6.067   7.765   9.560
18655SOL     OW57861   0.233   2.215   2.709
18655SOL    HW157862   0.149   2.176   2.688
18655SOL    HW257863   0.259   2.172   2.791
18656SOL     OW57864   1.640  14.295  13.837
18656SOL    HW157865   1.724  14.285  13.881
18656SOL    HW257866   1.614  14.386  13.855
18657SOL     OW57867  12.796  12.091   6.681
18657SOL    HW157868  12.870  12.061   6.734
18657SOL    HW257869  12.799  12.035   6.604
18658SOL     OW57870   7.049  13.196  10.412
18658SOL    HW157871   7.000  13.123  10.450
18658SOL    HW257872   7.071  13.251  10.487
18659SOL     OW57873   6.824   1.628   0.566
18659SOL    HW157874   6.783   1.660   0.486
18659SOL    HW257875   6.752   1.587   0.615
18660SOL     OW57876   1.816   3.221   3.139
18660SOL    HW157877   1.830   3.127   3.127
18660SOL    HW257878   1.857   3.242   3.223
18661SOL     OW57879  10.754   8.796   2.194
18661SOL    HW157880  10.685   8.752   2.244
18661SOL    HW257881  10.836   8.768   2.234
18662SOL     OW57882   1.699   6.981   4.155
18662SOL    HW157883   1.714   6.937   4.239
18662SOL    HW257884   1.634   7.048   4.175
18663SOL     OW57885   9.711   2.914   2.659
18663SOL    HW157886   9.754   2.928   2.574
18663SOL    HW257887   9.645   2.983   2.664
18664SOL     OW57888   3.226  13.559   2.428
18664SOL    HW157889   3.288  13.581   2.359
18664SOL    HW257890   3.215  13.464   2.421
18665SOL     OW57891  12.222   4.418   7.440
18665SOL    HW157892  12.160   4.476   7.395
18665SOL    HW257893  12.306   4.435   7.398
18666SOL     OW57894  12.419  14.725   4.123
18666SOL    HW157895  12.336  14.718   4.075
18666SOL    HW257896  12.448  14.815   4.106
18667SOL     OW57897   7.878   4.315   5.400
18667SOL    HW157898   7.855   4.255   5.471
18667SOL    HW257899   7.899   4.259   5.326
18668SOL     OW57900   6.989   6.152  10.326
18668SOL    HW157901   6.895   6.142  10.339
18668SOL    HW257902   6.999   6.239  10.287
18669SOL     OW57903   5.287  13.095   7.549
18669SOL    HW157904   5.243  13.137   7.475
18669SOL    HW257905   5.226  13.027   7.577
18670SOL     OW57906  10.043   4.350   0.543
18670SOL    HW157907  10.002   4.399   0.471
18670SOL    HW257908  10.098   4.285   0.500
18671SOL     OW57909  11.164   8.392   0.027
18671SOL    HW157910  11.178   8.460  14.849
18671SOL    HW257911  11.219   8.418   0.101
18672SOL     OW57912   1.826   0.252   3.853
18672SOL    HW157913   1.860   0.185   3.913
18672SOL    HW257914   1.800   0.324   3.910
18673SOL     OW57915   6.597   0.909   5.362
18673SOL    HW157916   6.681   0.934   5.322
18673SOL    HW257917   6.617   0.829   5.410
18674SOL     OW57918  11.162   6.406   1.219
18674SOL    HW157919  11.235   6.462   1.193
18674SOL    HW257920  11.102   6.464   1.266
18675SOL     OW57921   9.250   6.683   8.427
18675SOL    HW157922   9.308   6.759   8.435
18675SOL    HW257923   9.211   6.692   8.340
18676SOL     OW57924   3.169   5.458  12.668
18676SOL    HW157925   3.144   5.488  12.755
18676SOL    HW257926   3.168   5.362  12.675
18677SOL     OW57927  12.930   4.265   9.328
18677SOL    HW157928  12.887   4.267   9.242
18677SOL    HW257929  12.968   4.177   9.333
18678SOL     OW57930   6.735   2.013   1.931
18678SOL    HW157931   6.773   1.934   1.892
18678SOL    HW257932   6.705   1.985   2.018
18679SOL     OW57933   0.521   4.585   5.508
18679SOL    HW157934   0.496   4.540   5.589
18679SOL    HW257935   0.439   4.619   5.473
18680SOL     OW57936   4.818  11.569   2.428
18680SOL    HW157937   4.812  11.611   2.342
18680SOL    HW257938   4.855  11.483   2.411
18681SOL     OW57939  10.061   0.049   6.671
18681SOL    HW157940  10.019   0.066   6.587
18681SOL    HW257941  10.017  14.858   6.705
18682SOL     OW57942  12.718   7.603  14.299
18682SOL    HW157943  12.660   7.670  14.335
18682SOL    HW257944  12.765   7.568  14.375
18683SOL     OW57945   7.272  12.445   1.985
18683SOL    HW157946   7.228  12.527   2.006
18683SOL    HW257947   7.364  12.460   2.010
18684SOL     OW57948  14.162   1.433  11.990
18684SOL    HW157949  14.235   1.431  12.052
18684SOL    HW257950  14.089   1.393  12.039
18685SOL     OW57951   0.108   9.379   2.476
18685SOL    HW157952   0.022   9.357   2.512
18685SOL    HW257953   0.109   9.337   2.390
18686SOL     OW57954   3.312  11.915   8.315
18686SOL    HW157955   3.379  11.981   8.333
18686SOL    HW257956   3.302  11.916   8.220
18687SOL     OW57957  12.642   1.675  10.198
18687SOL    HW157958  12.586   1.615  10.247
18687SOL    HW257959  12.640   1.643  10.108
18688SOL     OW57960   0.261   4.820  10.453
18688SOL    HW157961   0.334   4.759  10.449
18688SOL    HW257962   0.214   4.797  10.533
18689SOL     OW57963  12.483   4.179   3.425
18689SOL    HW157964  12.573   4.148   3.437
18689SOL    HW257965  12.480   4.208   3.334
18690SOL     OW57966  13.472   2.637   7.086
18690SOL    HW157967  13.513   2.564   7.133
18690SOL    HW257968  13.442   2.598   7.004
18691SOL     OW57969   3.646   8.928   9.492
18691SOL    HW157970   3.684   8.976   9.565
18691SOL    HW257971   3.633   8.839   9.525
18692SOL     OW57972   7.067   2.372   9.524
18692SOL    HW157973   7.117   2.392   9.445
18692SOL    HW257974   6.984   2.338   9.492
18693SOL     OW57975   8.988  10.486   7.133
18693SOL    HW157976   8.953  10.408   7.090
18693SOL    HW257977   8.916  10.518   7.187
18694SOL     OW57978  13.618   6.628   6.173
18694SOL    HW157979  13.554   6.590   6.114
18694SOL    HW257980  13.658   6.699   6.122
18695SOL     OW57981   3.962   1.078   8.786
18695SOL    HW157982   3.935   1.127   8.708
18695SOL    HW257983   4.025   1.135   8.830
18696SOL     OW57984   6.038   2.954   5.771
18696SOL    HW157985   6.057   3.045   5.749
18696SOL    HW257986   5.992   2.958   5.855
18697SOL     OW57987  11.419   3.685   3.378
18697SOL    HW157988  11.426   3.659   3.286
18697SOL    HW257989  11.372   3.769   3.376
18698SOL     OW57990   0.949   9.499  10.113
18698SOL    HW157991   0.898   9.526  10.037
18698SOL    HW257992   0.901   9.425  10.150
18699SOL     OW57993  14.882   2.432   0.097
18699SOL    HW157994  14.822   2.440   0.023
18699SOL    HW257995   0.050   2.510   0.091
18700SOL     OW57996  12.215  11.255   7.945
18700SOL    HW157997  12.133  11.278   7.902
18700SOL    HW257998  12.280  11.256   7.876
18701SOL     OW57999   1.559   9.177   8.654
18701SOL    HW158000   1.647   9.197   8.687
18701SOL    HW258001   1.504   9.177   8.732
18702SOL     OW58002   9.615  12.810  13.189
18702SOL    HW158003   9.644  12.849  13.106
18702SOL    HW258004   9.537  12.759  13.166
18703SOL     OW58005  14.089   3.060  10.351
18703SOL    HW158006  14.084   2.988  10.288
18703SOL    HW258007  14.139   3.024  10.424
18704SOL     OW58008  13.433   1.399   0.378
18704SOL    HW158009  13.371   1.409   0.306
18704SOL    HW258010  13.512   1.362   0.337
18705SOL     OW58011   5.454   0.779  10.712
18705SOL    HW158012   5.416   0.744  10.631
18705SOL    HW258013   5.532   0.828  10.683
18706SOL     OW58014   9.186   6.128   1.443
18706SOL    HW158015   9.275   6.099   1.461
18706SOL    HW258016   9.156   6.070   1.372
18707SOL     OW58017   2.195  12.237   3.090
18707SOL    HW158018   2.252  12.313   3.091
18707SOL    HW258019   2.242  12.170   3.139
18708SOL     OW58020   1.790  14.830   2.466
18708SOL    HW158021   1.697  14.817   2.484
18708SOL    HW258022   1.813  14.761   2.405
18709SOL     OW58023   5.618   8.853   8.928
18709SOL    HW158024   5.620   8.948   8.937
18709SOL    HW258025   5.670   8.835   8.849
18710SOL     OW58026   8.543   6.980   1.985
18710SOL    HW158027   8.601   6.905   1.998
18710SOL    HW258028   8.481   6.951   1.918
18711SOL     OW58029   4.218  10.333  11.974
18711SOL    HW158030   4.265  10.417  11.974
18711SOL    HW258031   4.248  10.289  11.894
18712SOL     OW58032  13.997  14.289  11.083
18712SOL    HW158033  14.008  14.384  11.090
18712SOL    HW258034  14.081  14.253  11.113
18713SOL     OW58035   4.936   0.182  14.685
18713SOL    HW158036   4.974   0.266  14.657
18713SOL    HW258037   4.850   0.180  14.643
18714SOL     OW58038   1.345   2.997  13.659
18714SOL    HW158039   1.420   3.043  13.698
18714SOL    HW258040   1.384   2.920  13.617
18715SOL     OW58041  12.585   5.491   9.605
18715SOL    HW158042  12.631   5.565   9.643
18715SOL    HW258043  12.617   5.486   9.515
18716SOL     OW58044   4.392  13.556   4.979
18716SOL    HW158045   4.383  13.477   5.033
18716SOL    HW258046   4.303  13.593   4.977
18717SOL     OW58047  10.860  10.754   5.595
18717SOL    HW158048  10.774  10.711   5.585
18717SOL    HW258049  10.916  10.686   5.632
18718SOL     OW58050   3.490  10.594   4.070
18718SOL    HW158051   3.545  10.558   4.139
18718SOL    HW258052   3.401  10.593   4.106
18719SOL     OW58053   9.236   4.064   9.336
18719SOL    HW158054   9.147   4.093   9.319
18719SOL    HW258055   9.259   4.011   9.260
18720SOL     OW58056   1.489  13.393   0.972
18720SOL    HW158057   1.568  13.360   1.013
18720SOL    HW258058   1.417  13.348   1.016
18721SOL     OW58059   8.647   4.065   6.598
18721SOL    HW158060   8.661   4.117   6.677
18721SOL    HW258061   8.555   4.079   6.576
18722SOL     OW58062   9.704   6.450   4.354
18722SOL    HW158063   9.693   6.451   4.449
18722SOL    HW258064   9.632   6.503   4.320
18723SOL     OW58065  13.125   2.291  12.083
18723SOL    HW158066  13.193   2.236  12.122
18723SOL    HW258067  13.048   2.234  12.077
18724SOL     OW58068   9.892  14.299   0.518
18724SOL    HW158069   9.840  14.345   0.452
18724SOL    HW258070   9.865  14.338   0.601
18725SOL     OW58071  11.289   0.728   5.308
18725SOL    HW158072  11.346   0.772   5.371
18725SOL    HW258073  11.204   0.771   5.319
18726SOL     OW58074   7.504  13.120   7.866
18726SOL    HW158075   7.548  13.055   7.811
18726SOL    HW258076   7.431  13.152   7.813
18727SOL     OW58077   8.363   5.420   9.929
18727SOL    HW158078   8.413   5.406   9.848
18727SOL    HW258079   8.341   5.513   9.927
18728SOL     OW58080  12.493  12.989   7.967
18728SOL    HW158081  12.466  12.950   7.884
18728SOL    HW258082  12.465  13.081   7.961
18729SOL     OW58083   8.724   2.541   5.036
18729SOL    HW158084   8.781   2.542   4.959
18729SOL    HW258085   8.720   2.633   5.063
18730SOL     OW58086  14.105   5.524  13.177
18730SOL    HW158087  14.098   5.618  13.192
18730SOL    HW258088  14.199   5.508  13.168
18731SOL     OW58089  14.558  13.968   2.879
18731SOL    HW158090  14.518  13.960   2.965
18731SOL    HW258091  14.553  13.880   2.842
18732SOL     OW58092   7.756  10.188  10.981
18732SOL    HW158093   7.671  10.150  10.957
18732SOL    HW258094   7.816  10.114  10.980
18733SOL     OW58095   5.414   9.358  12.240
18733SOL    HW158096   5.428   9.341  12.147
18733SOL    HW258097   5.375   9.278  12.274
18734SOL     OW58098   0.338   0.991  12.363
18734SOL    HW158099   0.420   0.948  12.389
18734SOL    HW258100   0.353   1.017  12.273
18735SOL     OW58101  14.676  10.849  12.778
18735SOL    HW158102  14.628  10.770  12.804
18735SOL    HW258103  14.618  10.921  12.803
18736SOL     OW58104   1.461  10.201   8.670
18736SOL    HW158105   1.523  10.128   8.672
18736SOL    HW258106   1.516  10.279   8.663
18737SOL     OW58107   1.189   3.132   4.729
18737SOL    HW158108   1.281   3.123   4.757
18737SOL    HW258109   1.145   3.058   4.771
18738SOL     OW58110   4.551   2.532  14.107
18738SOL    HW158111   4.535   2.606  14.049
18738SOL    HW258112   4.638   2.549  14.144
18739SOL     OW58113   1.048   1.231   1.575
18739SOL    HW158114   0.977   1.287   1.607
18739SOL    HW258115   1.114   1.235   1.644
18740SOL     OW58116  14.043   7.294   0.971
18740SOL    HW158117  14.028   7.232   0.900
18740SOL    HW258118  13.969   7.354   0.966
18741SOL     OW58119   7.722   6.157  10.738
18741SOL    HW158120   7.716   6.175  10.644
18741SOL    HW258121   7.809   6.189  10.763
18742SOL     OW58122   2.374   2.676  11.391
18742SOL    HW158123   2.406   2.632  11.469
18742SOL    HW258124   2.438   2.745  11.374
18743SOL     OW58125   3.531  13.781   4.292
18743SOL    HW158126   3.504  13.727   4.366
18743SOL    HW258127   3.507  13.730   4.215
18744SOL     OW58128  14.242   6.154  11.104
18744SOL    HW158129  14.281   6.070  11.081
18744SOL    HW258130  14.205   6.186  11.022
18745SOL     OW58131   5.206   5.724  14.678
18745SOL    HW158132   5.236   5.633  14.672
18745SOL    HW258133   5.179   5.735  14.769
18746SOL     OW58134   3.674   8.274  12.774
18746SOL    HW158135   3.702   8.184  12.763
18746SOL    HW258136   3.584   8.268  12.807
18747SOL     OW58137  11.277   0.447   3.119
18747SOL    HW158138  11.363   0.488   3.127
18747SOL    HW258139  11.217   0.520   3.102
18748SOL     OW58140   6.811   7.717   9.402
18748SOL    HW158141   6.843   7.802   9.434
18748SOL    HW258142   6.869   7.697   9.328
18749SOL     OW58143   6.571  10.181  14.012
18749SOL    HW158144   6.496  10.135  14.049
18749SOL    HW258145   6.639  10.173  14.079
18750SOL     OW58146   1.062   1.980   3.759
18750SOL    HW158147   1.013   2.046   3.711
18750SOL    HW258148   1.061   1.903   3.702
18751SOL     OW58149   2.486   1.752  13.756
18751SOL    HW158150   2.547   1.818  13.725
18751SOL    HW258151   2.480   1.688  13.685
18752SOL     OW58152  12.584   2.320  13.315
18752SOL    HW158153  12.571   2.235  13.356
18752SOL    HW258154  12.641   2.303  13.241
18753SOL     OW58155   7.674   8.012   1.950
18753SOL    HW158156   7.743   8.077   1.943
18753SOL    HW258157   7.597   8.054   1.911
18754SOL     OW58158   4.837  14.374   2.581
18754SOL    HW158159   4.866  14.283   2.570
18754SOL    HW258160   4.796  14.376   2.667
18755SOL     OW58161  13.407   8.105  12.635
18755SOL    HW158162  13.372   8.081  12.721
18755SOL    HW258163  13.371   8.192  12.618
18756SOL     OW58164   6.263   5.245   7.970
18756SOL    HW158165   6.205   5.320   7.963
18756SOL    HW258166   6.327   5.270   8.037
18757SOL     OW58167  10.417   7.593  13.130
18757SOL    HW158168  10.328   7.558  13.128
18757SOL    HW258169  10.423   7.638  13.214
18758SOL     OW58170  10.761   9.422   5.808
18758SOL    HW158171  10.693   9.424   5.875
18758SOL    HW258172  10.824   9.357   5.839
18759SOL     OW58173  10.510   9.504   7.709
18759SOL    HW158174  10.431   9.451   7.717
18759SOL    HW258175  10.488   9.569   7.642
18760SOL     OW58176   9.651   0.966   9.652
18760SOL    HW158177   9.585   0.970   9.582
18760SOL    HW258178   9.637   1.046   9.702
18761SOL     OW58179  13.106   4.037   9.037
18761SOL    HW158180  13.048   3.972   9.077
18761SOL    HW258181  13.055   4.073   8.964
18762SOL     OW58182   5.760   2.146   7.560
18762SOL    HW158183   5.769   2.071   7.501
18762SOL    HW258184   5.691   2.199   7.520
18763SOL     OW58185  12.545  12.968  11.268
18763SOL    HW158186  12.580  12.987  11.356
18763SOL    HW258187  12.618  12.986  11.209
18764SOL     OW58188   7.048  12.775   6.797
18764SOL    HW158189   7.080  12.743   6.882
18764SOL    HW258190   7.107  12.847   6.775
18765SOL     OW58191   7.015  10.049   1.695
18765SOL    HW158192   7.099  10.080   1.728
18765SOL    HW258193   7.013  10.078   1.604
18766SOL     OW58194   6.185   8.055   9.968
18766SOL    HW158195   6.135   8.132   9.994
18766SOL    HW258196   6.235   8.083   9.891
18767SOL     OW58197   7.577  10.820   2.305
18767SOL    HW158198   7.662  10.858   2.286
18767SOL    HW258199   7.526  10.891   2.343
18768SOL     OW58200  12.579  13.435  10.965
18768SOL    HW158201  12.652  13.497  10.970
18768SOL    HW258202  12.551  13.438  10.874
18769SOL     OW58203  10.726   6.585   7.674
18769SOL    HW158204  10.723   6.623   7.762
18769SOL    HW258205  10.635   6.564   7.654
18770SOL     OW58206  13.499   9.901   9.784
18770SOL    HW158207  13.408   9.875   9.765
18770SOL    HW258208  13.498   9.996   9.777
18771SOL     OW58209   4.390   1.170   8.357
18771SOL    HW158210   4.397   1.079   8.386
18771SOL    HW258211   4.309   1.202   8.397
18772SOL     OW58212  12.678   6.163   0.922
18772SOL    HW158213  12.713   6.223   0.857
18772SOL    HW258214  12.615   6.108   0.874
18773SOL     OW58215   5.278   2.613   8.411
18773SOL    HW158216   5.264   2.692   8.359
18773SOL    HW258217   5.199   2.604   8.463
18774SOL     OW58218   7.006   8.607   0.560
18774SOL    HW158219   7.009   8.664   0.484
18774SOL    HW258220   7.018   8.519   0.525
18775SOL     OW58221   7.738  14.396  13.531
18775SOL    HW158222   7.830  14.371  13.517
18775SOL    HW258223   7.736  14.431  13.621
18776SOL     OW58224   9.311  13.074   2.403
18776SOL    HW158225   9.246  13.142   2.420
18776SOL    HW258226   9.390  13.122   2.380
18777SOL     OW58227   7.054   2.444   3.958
18777SOL    HW158228   6.973   2.493   3.972
18777SOL    HW258229   7.123   2.510   3.963
18778SOL     OW58230   3.780   5.911   6.792
18778SOL    HW158231   3.833   5.947   6.721
18778SOL    HW258232   3.727   5.843   6.750
18779SOL     OW58233   0.242   6.693   0.326
18779SOL    HW158234   0.153   6.658   0.326
18779SOL    HW258235   0.231   6.788   0.317
18780SOL     OW58236  13.565   8.372   5.047
18780SOL    HW158237  13.515   8.394   5.126
18780SOL    HW258238  13.513   8.305   5.003
18781SOL     OW58239  10.340  12.801  10.187
18781SOL    HW158240  10.362  12.815  10.095
18781SOL    HW258241  10.366  12.881  10.232
18782SOL     OW58242   7.102   6.861   9.539
18782SOL    HW158243   7.079   6.897   9.625
18782SOL    HW258244   7.045   6.785   9.528
18783SOL     OW58245  13.361   9.902   2.630
18783SOL    HW158246  13.368   9.807   2.618
18783SOL    HW258247  13.449   9.932   2.650
18784SOL     OW58248   5.674   0.108   9.874
18784SOL    HW158249   5.717   0.153   9.947
18784SOL    HW258250   5.591   0.155   9.862
18785SOL     OW58251   3.088  13.341   3.395
18785SOL    HW158252   3.048  13.300   3.472
18785SOL    HW258253   3.014  13.376   3.345
18786SOL     OW58254   7.490   1.964   7.151
18786SOL    HW158255   7.582   1.992   7.146
18786SOL    HW258256   7.455   2.011   7.226
18787SOL     OW58257   2.574   8.265   7.837
18787SOL    HW158258   2.547   8.235   7.924
18787SOL    HW258259   2.661   8.227   7.824
18788SOL     OW58260   2.527   8.786   8.631
18788SOL    HW158261   2.583   8.773   8.554
18788SOL    HW258262   2.511   8.880   8.633
18789SOL     OW58263   9.524  12.983   1.524
18789SOL    HW158264   9.469  13.024   1.591
18789SOL    HW258265   9.603  13.038   1.521
18790SOL     OW58266   4.196   6.016   5.031
18790SOL    HW158267   4.208   6.082   4.963
18790SOL    HW258268   4.132   5.955   4.994
18791SOL     OW58269   3.410  14.623   0.985
18791SOL    HW158270   3.444  14.707   0.952
18791SOL    HW258271   3.362  14.586   0.911
18792SOL     OW58272   5.806   2.119   5.769
18792SOL    HW158273   5.747   2.098   5.842
18792SOL    HW258274   5.888   2.144   5.811
18793SOL     OW58275  10.843  11.851   6.249
18793SOL    HW158276  10.884  11.937   6.237
18793SOL    HW258277  10.761  11.869   6.295
18794SOL     OW58278   4.206  10.820  13.773
18794SOL    HW158279   4.220  10.892  13.835
18794SOL    HW258280   4.253  10.746  13.811
18795SOL     OW58281   4.749  14.615   8.877
18795SOL    HW158282   4.705  14.530   8.874
18795SOL    HW258283   4.834  14.596   8.917
18796SOL     OW58284   1.241  13.035   6.429
18796SOL    HW158285   1.333  13.025   6.453
18796SOL    HW258286   1.240  13.111   6.370
18797SOL     OW58287   5.465   8.029  11.765
18797SOL    HW158288   5.559   8.033  11.745
18797SOL    HW258289   5.447   8.110  11.812
18798SOL     OW58290   4.434   5.238   9.183
18798SOL    HW158291   4.475   5.267   9.101
18798SOL    HW258292   4.488   5.164   9.212
18799SOL     OW58293  13.387   7.648  14.579
18799SOL    HW158294  13.470   7.680  14.615
18799SOL    HW258295  13.354   7.720  14.526
18800SOL     OW58296   6.845   8.675   4.949
18800SOL    HW158297   6.914   8.727   4.906
18800SOL    HW258298   6.833   8.600   4.891
18801SOL     OW58299   8.716   1.146  13.697
18801SOL    HW158300   8.694   1.076  13.635
18801SOL    HW258301   8.809   1.134  13.715
18802SOL     OW58302  10.831   2.556   7.936
18802SOL    HW158303  10.763   2.523   7.877
18802SOL    HW258304  10.913   2.529   7.895
18803SOL     OW58305   0.888   7.862   0.082
18803SOL    HW158306   0.900   7.948   0.042
18803SOL    HW258307   0.922   7.801   0.017
18804SOL     OW58308   7.776   5.865   9.846
18804SOL    HW158309   7.721   5.835   9.773
18804SOL    HW258310   7.752   5.958   9.856
18805SOL     OW58311   8.157  14.719   0.497
18805SOL    HW158312   8.123  14.703   0.409
18805SOL    HW258313   8.167  14.631   0.535
18806SOL     OW58314   4.611  14.062  13.344
18806SOL    HW158315   4.558  13.991  13.310
18806SOL    HW258316   4.664  14.022  13.413
18807SOL     OW58317   6.090   7.767   0.646
18807SOL    HW158318   6.162   7.705   0.642
18807SOL    HW258319   6.044   7.746   0.728
18808SOL     OW58320  14.689   6.314  14.316
18808SOL    HW158321  14.683   6.241  14.377
18808SOL    HW258322  14.760   6.291  14.257
18809SOL     OW58323  10.341  13.472   4.478
18809SOL    HW158324  10.298  13.424   4.407
18809SOL    HW258325  10.421  13.506   4.439
18810SOL     OW58326   3.339   4.021   6.004
18810SOL    HW158327   3.378   4.063   6.081
18810SOL    HW258328   3.378   4.066   5.930
18811SOL     OW58329  14.801   6.882   0.027
18811SOL    HW158330  14.706   6.897   0.026
18811SOL    HW258331  14.816   6.829   0.105
18812SOL     OW58332   6.182   3.740  10.615
18812SOL    HW158333   6.164   3.740  10.521
18812SOL    HW258334   6.104   3.699  10.654
18813SOL     OW58335  14.276  11.919   3.237
18813SOL    HW158336  14.292  11.978   3.311
18813SOL    HW258337  14.214  11.966   3.181
18814SOL     OW58338  13.688   2.705   7.550
18814SOL    HW158339  13.671   2.716   7.643
18814SOL    HW258340  13.778   2.738   7.539
18815SOL     OW58341   3.816  13.931   6.060
18815SOL    HW158342   3.776  13.990   5.996
18815SOL    HW258343   3.805  13.844   6.024
18816SOL     OW58344   3.731  13.214   6.829
18816SOL    HW158345   3.677  13.154   6.879
18816SOL    HW258346   3.816  13.213   6.874
18817SOL     OW58347   7.235   1.334  13.236
18817SOL    HW158348   7.268   1.362  13.150
18817SOL    HW258349   7.287   1.384  13.299
18818SOL     OW58350   4.218  12.908  14.751
18818SOL    HW158351   4.214  12.935  14.843
18818SOL    HW258352   4.310  12.914  14.728
18819SOL     OW58353   0.185   7.605   8.418
18819SOL    HW158354   0.264   7.555   8.395
18819SOL    HW258355   0.217   7.689   8.449
18820SOL     OW58356   2.902   8.635  10.650
18820SOL    HW158357   2.978   8.646  10.708
18820SOL    HW258358   2.853   8.563  10.690
18821SOL     OW58359   4.245   5.178  14.537
18821SOL    HW158360   4.252   5.090  14.575
18821SOL    HW258361   4.225   5.163  14.444
18822SOL     OW58362  14.032  10.141   2.333
18822SOL    HW158363  13.995  10.124   2.420
18822SOL    HW258364  13.980  10.088   2.273
18823SOL     OW58365   3.567   8.416  11.237
18823SOL    HW158366   3.492   8.472  11.257
18823SOL    HW258367   3.611   8.461  11.164
18824SOL     OW58368   0.195  12.616  12.127
18824SOL    HW158369   0.195  12.706  12.095
18824SOL    HW258370   0.267  12.613  12.190
18825SOL     OW58371   3.396  14.525  13.316
18825SOL    HW158372   3.469  14.531  13.377
18825SOL    HW258373   3.318  14.527  13.371
18826SOL     OW58374   0.911   6.574  10.526
18826SOL    HW158375   0.963   6.651  10.506
18826SOL    HW258376   0.862   6.597  10.605
18827SOL     OW58377   0.409   7.250  11.223
18827SOL    HW158378   0.396   7.343  11.242
18827SOL    HW258379   0.380   7.240  11.132
18828SOL     OW58380   5.615  11.589   2.272
18828SOL    HW158381   5.635  11.682   2.286
18828SOL    HW258382   5.684  11.542   2.319
18829SOL     OW58383   6.751  10.264  12.230
18829SOL    HW158384   6.662  10.232  12.215
18829SOL    HW258385   6.756  10.276  12.325
18830SOL     OW58386   6.453   7.167   2.147
18830SOL    HW158387   6.421   7.107   2.079
18830SOL    HW258388   6.412   7.136   2.228
18831SOL     OW58389   4.250   2.660  11.448
18831SOL    HW158390   4.319   2.630  11.389
18831SOL    HW258391   4.171   2.617  11.416
18832SOL     OW58392   9.635   1.932  10.961
18832SOL    HW158393   9.726   1.923  10.931
18832SOL    HW258394   9.619   2.026  10.962
18833SOL     OW58395  12.427   1.850   6.760
18833SOL    HW158396  12.346   1.863   6.711
18833SOL    HW258397  12.399   1.816   6.845
18834SOL     OW58398   7.609   0.587   1.071
18834SOL    HW158399   7.585   0.565   1.161
18834SOL    HW258400   7.671   0.660   1.080
18835SOL     OW58401   0.988   6.645  14.637
18835SOL    HW158402   1.067   6.696  14.620
18835SOL    HW258403   0.937   6.699  14.697
18836SOL     OW58404   7.371  10.765   0.402
18836SOL    HW158405   7.373  10.724   0.489
18836SOL    HW258406   7.405  10.853   0.417
18837SOL     OW58407  11.207   8.663  11.348
18837SOL    HW158408  11.252   8.621  11.275
18837SOL    HW258409  11.176   8.746  11.312
18838SOL     OW58410   0.589   2.681   1.523
18838SOL    HW158411   0.606   2.740   1.596
18838SOL    HW258412   0.494   2.686   1.510
18839SOL     OW58413   1.418   8.297   4.583
18839SOL    HW158414   1.354   8.227   4.568
18839SOL    HW258415   1.435   8.334   4.497
18840SOL     OW58416  11.857  14.412  10.189
18840SOL    HW158417  11.940  14.457  10.171
18840SOL    HW258418  11.851  14.345  10.121
18841SOL     OW58419   1.511   1.205   4.768
18841SOL    HW158420   1.449   1.152   4.818
18841SOL    HW258421   1.472   1.293   4.767
18842SOL     OW58422  10.726  10.081  10.803
18842SOL    HW158423  10.652  10.133  10.832
18842SOL    HW258424  10.732  10.099  10.709
18843SOL     OW58425   5.243   9.713   8.466
18843SOL    HW158426   5.261   9.676   8.553
18843SOL    HW258427   5.166   9.767   8.478
18844SOL     OW58428   2.410  12.062   4.311
18844SOL    HW158429   2.494  12.086   4.270
18844SOL    HW258430   2.374  11.995   4.253
18845SOL     OW58431  10.507  10.628  11.159
18845SOL    HW158432  10.462  10.552  11.122
18845SOL    HW258433  10.561  10.592  11.229
18846SOL     OW58434  10.579   1.005   9.846
18846SOL    HW158435  10.610   0.921   9.814
18846SOL    HW258436  10.654   1.064   9.835
18847SOL     OW58437  12.169  12.573   2.258
18847SOL    HW158438  12.201  12.550   2.345
18847SOL    HW258439  12.188  12.495   2.204
18848SOL     OW58440  10.137  10.369   2.859
18848SOL    HW158441  10.143  10.408   2.771
18848SOL    HW258442  10.069  10.420   2.903
18849SOL     OW58443   2.964   7.355   2.470
18849SOL    HW158444   2.904   7.426   2.491
18849SOL    HW258445   3.041   7.370   2.525
18850SOL     OW58446   9.149  12.265   9.135
18850SOL    HW158447   9.146  12.340   9.075
18850SOL    HW258448   9.227  12.280   9.189
18851SOL     OW58449   4.452   2.738  12.439
18851SOL    HW158450   4.528   2.690  12.472
18851SOL    HW258451   4.377   2.693  12.479
18852SOL     OW58452   1.907  11.765  10.375
18852SOL    HW158453   1.985  11.715  10.400
18852SOL    HW258454   1.847  11.700  10.339
18853SOL     OW58455   2.277   4.209   6.508
18853SOL    HW158456   2.310   4.221   6.597
18853SOL    HW258457   2.344   4.248   6.452
18854SOL     OW58458   5.984  14.743  11.257
18854SOL    HW158459   6.035  14.821  11.279
18854SOL    HW258460   6.049  14.680  11.225
18855SOL     OW58461   5.254   2.877   7.880
18855SOL    HW158462   5.315   2.803   7.879
18855SOL    HW258463   5.216   2.876   7.967
18856SOL     OW58464  12.338   3.645  12.456
18856SOL    HW158465  12.393   3.594  12.398
18856SOL    HW258466  12.287   3.702  12.397
18857SOL     OW58467   7.837  11.544  12.281
18857SOL    HW158468   7.923  11.578  12.309
18857SOL    HW258469   7.857  11.483  12.210
18858SOL     OW58470  14.435   3.281  12.839
18858SOL    HW158471  14.344   3.250  12.845
18858SOL    HW258472  14.442   3.350  12.905
18859SOL     OW58473   7.731   7.366   7.679
18859SOL    HW158474   7.675   7.289   7.673
18859SOL    HW258475   7.818   7.334   7.654
18860SOL     OW58476   9.360   1.028  14.700
18860SOL    HW158477   9.452   1.056  14.694
18860SOL    HW258478   9.364   0.945  14.748
18861SOL     OW58479  14.647   7.335   4.450
18861SOL    HW158480  14.592   7.383   4.511
18861SOL    HW258481  14.633   7.378   4.366
18862SOL     OW58482   2.328  12.123   0.088
18862SOL    HW158483   2.319  12.121   0.184
18862SOL    HW258484   2.354  12.034   0.065
18863SOL     OW58485   3.082   9.862   0.350
18863SOL    HW158486   3.137   9.939   0.363
18863SOL    HW258487   3.143   9.793   0.324
18864SOL     OW58488   3.531   8.967   6.232
18864SOL    HW158489   3.450   8.931   6.197
18864SOL    HW258490   3.585   8.891   6.253
18865SOL     OW58491  12.762  13.245  11.316
18865SOL    HW158492  12.729  13.334  11.301
18865SOL    HW258493  12.707  13.211  11.386
18866SOL     OW58494   4.047   8.202   2.194
18866SOL    HW158495   4.138   8.213   2.222
18866SOL    HW258496   3.997   8.258   2.254
18867SOL     OW58497  14.209  13.942  12.215
18867SOL    HW158498  14.209  13.891  12.135
18867SOL    HW258499  14.284  13.910  12.265
18868SOL     OW58500  12.012   9.988   4.399
18868SOL    HW158501  11.964  10.066   4.427
18868SOL    HW258502  11.945   9.932   4.360
18869SOL     OW58503  14.232   7.729   6.290
18869SOL    HW158504  14.300   7.665   6.309
18869SOL    HW258505  14.165   7.680   6.243
18870SOL     OW58506   4.581   6.065   0.419
18870SOL    HW158507   4.569   5.985   0.469
18870SOL    HW258508   4.565   6.040   0.328
18871SOL     OW58509   7.759   9.009   8.399
18871SOL    HW158510   7.851   9.002   8.376
18871SOL    HW258511   7.759   9.032   8.492
18872SOL     OW58512  10.689   7.737   9.508
18872SOL    HW158513  10.626   7.664   9.515
18872SOL    HW258514  10.634   7.814   9.491
18873SOL     OW58515  11.491   1.294   5.625
18873SOL    HW158516  11.475   1.327   5.713
18873SOL    HW258517  11.536   1.366   5.580
18874SOL     OW58518  12.781   1.306   0.911
18874SOL    HW158519  12.772   1.279   0.819
18874SOL    HW258520  12.792   1.224   0.959
18875SOL     OW58521   4.217  10.496   0.275
18875SOL    HW158522   4.195  10.585   0.248
18875SOL    HW258523   4.139  10.464   0.319
18876SOL     OW58524   5.855  10.633  14.093
18876SOL    HW158525   5.857  10.568  14.164
18876SOL    HW258526   5.788  10.696  14.120
18877SOL     OW58527   4.394  14.217   6.560
18877SOL    HW158528   4.375  14.299   6.604
18877SOL    HW258529   4.322  14.158   6.586
18878SOL     OW58530  10.608   5.923   4.083
18878SOL    HW158531  10.535   5.976   4.114
18878SOL    HW258532  10.676   5.987   4.061
18879SOL     OW58533  11.099   8.238   4.226
18879SOL    HW158534  11.010   8.203   4.236
18879SOL    HW258535  11.151   8.164   4.196
18880SOL     OW58536   1.179  13.796   9.420
18880SOL    HW158537   1.149  13.774   9.508
18880SOL    HW258538   1.189  13.891   9.422
18881SOL     OW58539  11.631   5.043   3.601
18881SOL    HW158540  11.555   4.995   3.569
18881SOL    HW258541  11.659   4.995   3.678
18882SOL     OW58542  14.383  10.477   1.130
18882SOL    HW158543  14.426  10.551   1.087
18882SOL    HW258544  14.446  10.405   1.122
18883SOL     OW58545   3.334   2.656   7.652
18883SOL    HW158546   3.395   2.720   7.689
18883SOL    HW258547   3.388   2.578   7.638
18884SOL     OW58548   7.068   7.236  14.614
18884SOL    HW158549   7.122   7.196  14.546
18884SOL    HW258550   7.033   7.315  14.573
18885SOL     OW58551  14.340   4.589   1.973
18885SOL    HW158552  14.277   4.519   1.956
18885SOL    HW258553  14.288   4.660   2.009
18886SOL     OW58554   5.304   3.303  12.797
18886SOL    HW158555   5.339   3.392  12.790
18886SOL    HW258556   5.287   3.277  12.706
18887SOL     OW58557  12.622   7.384   9.828
18887SOL    HW158558  12.638   7.443   9.755
18887SOL    HW258559  12.669   7.304   9.806
18888SOL     OW58560   6.062   2.945   0.539
18888SOL    HW158561   6.081   2.950   0.633
18888SOL    HW258562   5.971   2.977   0.532
18889SOL     OW58563  13.697  14.136  11.236
18889SOL    HW158564  13.732  14.115  11.150
18889SOL    HW258565  13.612  14.178  11.218
18890SOL     OW58566   7.328   7.489  12.703
18890SOL    HW158567   7.360   7.570  12.663
18890SOL    HW258568   7.260   7.517  12.764
18891SOL     OW58569   2.964   8.353  13.710
18891SOL    HW158570   2.944   8.354  13.616
18891SOL    HW258571   3.036   8.415  13.719
18892SOL     OW58572   9.398  12.518  11.182
18892SOL    HW158573   9.452  12.587  11.142
18892SOL    HW258574   9.321  12.513  11.126
18893SOL     OW58575  10.436   2.966  10.806
18893SOL    HW158576  10.395   3.035  10.858
18893SOL    HW258577  10.465   2.902  10.870
18894SOL     OW58578   0.881   0.519   4.520
18894SOL    HW158579   0.881   0.424   4.507
18894SOL    HW258580   0.950   0.552   4.463
18895SOL     OW58581   7.662   4.337   4.254
18895SOL    HW158582   7.606   4.412   4.235
18895SOL    HW258583   7.727   4.370   4.315
18896SOL     OW58584   0.176   5.678   9.464
18896SOL    HW158585   0.120   5.752   9.485
18896SOL    HW258586   0.230   5.709   9.391
18897SOL     OW58587   8.628   4.754   4.496
18897SOL    HW158588   8.660   4.823   4.438
18897SOL    HW258589   8.705   4.726   4.545
18898SOL     OW58590   1.651   5.344   2.549
18898SOL    HW158591   1.578   5.404   2.534
18898SOL    HW258592   1.723   5.381   2.497
18899SOL     OW58593   2.407  14.741   8.263
18899SOL    HW158594   2.437  14.780   8.345
18899SOL    HW258595   2.429  14.805   8.196
18900SOL     OW58596   1.334   2.163  14.147
18900SOL    HW158597   1.306   2.102  14.217
18900SOL    HW258598   1.337   2.109  14.068
18901SOL     OW58599   5.651   6.313  11.807
18901SOL    HW158600   5.662   6.281  11.896
18901SOL    HW258601   5.732   6.290  11.762
18902SOL     OW58602  10.271  13.301   2.666
18902SOL    HW158603  10.283  13.329   2.757
18902SOL    HW258604  10.282  13.380   2.614
18903SOL     OW58605  12.105   5.604   3.282
18903SOL    HW158606  12.022   5.624   3.238
18903SOL    HW258607  12.165   5.584   3.210
18904SOL     OW58608  14.184   9.074   2.404
18904SOL    HW158609  14.209   9.166   2.395
18904SOL    HW258610  14.231   9.030   2.333
18905SOL     OW58611   6.984   3.470   8.734
18905SOL    HW158612   6.919   3.459   8.665
18905SOL    HW258613   6.945   3.535   8.793
18906SOL     OW58614  14.215  11.407   7.394
18906SOL    HW158615  14.156  11.465   7.347
18906SOL    HW258616  14.220  11.328   7.340
18907SOL     OW58617   0.477   2.225   6.474
18907SOL    HW158618   0.543   2.239   6.406
18907SOL    HW258619   0.421   2.156   6.440
18908SOL     OW58620  11.374   3.467   5.883
18908SOL    HW158621  11.343   3.546   5.839
18908SOL    HW258622  11.469   3.476   5.885
18909SOL     OW58623   7.551   7.306   7.154
18909SOL    HW158624   7.640   7.281   7.128
18909SOL    HW258625   7.527   7.241   7.221
18910SOL     OW58626   6.553   8.747   4.011
18910SOL    HW158627   6.642   8.748   4.046
18910SOL    HW258628   6.503   8.801   4.072
18911SOL     OW58629   6.163   9.999   5.196
18911SOL    HW158630   6.218  10.005   5.274
18911SOL    HW258631   6.216  10.036   5.126
18912SOL     OW58632  12.831  11.623  13.120
18912SOL    HW158633  12.751  11.586  13.083
18912SOL    HW258634  12.801  11.688  13.183
18913SOL     OW58635   4.011  10.312   0.410
18913SOL    HW158636   4.054  10.245   0.463
18913SOL    HW258637   3.917  10.295   0.422
18914SOL     OW58638   4.399   8.298   6.795
18914SOL    HW158639   4.457   8.270   6.866
18914SOL    HW258640   4.311   8.284   6.829
18915SOL     OW58641   6.841   6.554   2.614
18915SOL    HW158642   6.878   6.511   2.536
18915SOL    HW258643   6.862   6.495   2.686
18916SOL     OW58644   5.086  12.209   8.797
18916SOL    HW158645   5.026  12.235   8.727
18916SOL    HW258646   5.070  12.271   8.868
18917SOL     OW58647   4.060   0.474  11.066
18917SOL    HW158648   4.012   0.438  11.140
18917SOL    HW258649   4.102   0.399  11.025
18918SOL     OW58650   7.083   9.773   1.915
18918SOL    HW158651   7.097   9.719   1.992
18918SOL    HW258652   7.156   9.836   1.916
18919SOL     OW58653  14.514   8.029   6.457
18919SOL    HW158654  14.538   8.062   6.370
18919SOL    HW258655  14.595   8.035   6.508
18920SOL     OW58656  11.533   6.178   8.915
18920SOL    HW158657  11.474   6.238   8.869
18920SOL    HW258658  11.485   6.155   8.995
18921SOL     OW58659  10.091   7.980  11.950
18921SOL    HW158660  10.129   7.904  11.905
18921SOL    HW258661  10.162   8.014  12.004
18922SOL     OW58662   9.983  10.318  11.084
18922SOL    HW158663   9.970  10.300  11.177
18922SOL    HW258664   9.921  10.388  11.064
18923SOL     OW58665   2.961  12.503   9.844
18923SOL    HW158666   3.040  12.505   9.898
18923SOL    HW258667   2.968  12.422   9.794
18924SOL     OW58668  11.094  12.393   9.268
18924SOL    HW158669  11.040  12.316   9.285
18924SOL    HW258670  11.144  12.371   9.190
18925SOL     OW58671   3.488  14.470   8.133
18925SOL    HW158672   3.533  14.502   8.212
18925SOL    HW258673   3.396  14.490   8.150
18926SOL     OW58674  14.805   6.031  12.380
18926SOL    HW158675  14.797   6.107  12.439
18926SOL    HW258676  14.833   5.960  12.438
18927SOL     OW58677   8.030  13.084   1.049
18927SOL    HW158678   8.117  13.057   1.078
18927SOL    HW258679   7.989  13.004   1.017
18928SOL     OW58680   3.632   9.386  10.368
18928SOL    HW158681   3.698   9.397  10.299
18928SOL    HW258682   3.651   9.299  10.405
18929SOL     OW58683   0.635   4.664   3.095
18929SOL    HW158684   0.678   4.609   3.029
18929SOL    HW258685   0.707   4.693   3.151
18930SOL     OW58686  12.452   9.656   5.659
18930SOL    HW158687  12.436   9.564   5.639
18930SOL    HW258688  12.538   9.675   5.622
18931SOL     OW58689  10.310   7.329   3.906
18931SOL    HW158690  10.281   7.334   3.997
18931SOL    HW258691  10.354   7.412   3.890
18932SOL     OW58692  14.796   0.140   6.680
18932SOL    HW158693  14.830   0.156   6.592
18932SOL    HW258694  14.804   0.045   6.691
18933SOL     OW58695   4.387  12.706  10.300
18933SOL    HW158696   4.392  12.773  10.232
18933SOL    HW258697   4.422  12.627  10.259
18934SOL     OW58698   8.796   0.957  10.210
18934SOL    HW158699   8.852   1.026  10.245
18934SOL    HW258700   8.761   0.993  10.129
18935SOL     OW58701   0.145   4.538   9.261
18935SOL    HW158702   0.157   4.536   9.356
18935SOL    HW258703   0.060   4.496   9.247
18936SOL     OW58704   8.584   4.327  11.567
18936SOL    HW158705   8.622   4.294  11.649
18936SOL    HW258706   8.591   4.253  11.506
18937SOL     OW58707   6.673   6.358   8.759
18937SOL    HW158708   6.763   6.326   8.762
18937SOL    HW258709   6.626   6.305   8.823
18938SOL     OW58710  13.367  14.619   9.231
18938SOL    HW158711  13.406  14.697   9.270
18938SOL    HW258712  13.416  14.606   9.150
18939SOL     OW58713   8.294  12.833   4.960
18939SOL    HW158714   8.204  12.847   4.930
18939SOL    HW258715   8.341  12.804   4.882
18940SOL     OW58716   5.706   4.437   1.572
18940SOL    HW158717   5.625   4.483   1.592
18940SOL    HW258718   5.775   4.502   1.587
18941SOL     OW58719   0.550  13.783   5.482
18941SOL    HW158720   0.512  13.779   5.394
18941SOL    HW258721   0.482  13.747   5.539
18942SOL     OW58722  10.248  12.859   1.581
18942SOL    HW158723  10.222  12.951   1.571
18942SOL    HW258724  10.311  12.844   1.511
18943SOL     OW58725   6.232   6.388  11.548
18943SOL    HW158726   6.281   6.431  11.617
18943SOL    HW258727   6.243   6.295  11.564
18944SOL     OW58728  12.651   1.952  11.370
18944SOL    HW158729  12.690   2.039  11.357
18944SOL    HW258730  12.691   1.898  11.301
18945SOL     OW58731  14.500   5.470   8.283
18945SOL    HW158732  14.535   5.495   8.369
18945SOL    HW258733  14.495   5.552   8.234
18946SOL     OW58734   2.399   6.887   3.047
18946SOL    HW158735   2.480   6.865   3.092
18946SOL    HW258736   2.352   6.943   3.108
18947SOL     OW58737  11.558   7.081   1.662
18947SOL    HW158738  11.597   7.158   1.622
18947SOL    HW258739  11.530   7.109   1.748
18948SOL     OW58740   6.020   7.850   0.224
18948SOL    HW158741   6.081   7.837   0.152
18948SOL    HW258742   6.074   7.876   0.298
18949SOL     OW58743  14.466  11.015   7.098
18949SOL    HW158744  14.476  10.950   7.028
18949SOL    HW258745  14.505  11.094   7.062
18950SOL     OW58746   7.183  14.780   1.641
18950SOL    HW158747   7.113  14.780   1.706
18950SOL    HW258748   7.149  14.726   1.569
18951SOL     OW58749   4.791   7.681   9.273
18951SOL    HW158750   4.850   7.674   9.197
18951SOL    HW258751   4.846   7.717   9.342
18952SOL     OW58752  13.732  10.697   0.448
18952SOL    HW158753  13.826  10.713   0.460
18952SOL    HW258754  13.692  10.728   0.529
18953SOL     OW58755   4.016  12.152  11.381
18953SOL    HW158756   3.972  12.079  11.338
18953SOL    HW258757   3.965  12.229  11.355
18954SOL     OW58758   9.231   5.432  10.295
18954SOL    HW158759   9.179   5.360  10.332
18954SOL    HW258760   9.259   5.483  10.371
18955SOL     OW58761  12.572  13.226   8.938
18955SOL    HW158762  12.613  13.312   8.929
18955SOL    HW258763  12.607  13.174   8.866
18956SOL     OW58764  12.927   3.658   6.904
18956SOL    HW158765  12.867   3.647   6.977
18956SOL    HW258766  12.951   3.751   6.905
18957SOL     OW58767   5.652   4.987   8.328
18957SOL    HW158768   5.737   5.016   8.361
18957SOL    HW258769   5.636   5.041   8.251
18958SOL     OW58770   4.742  14.379   0.569
18958SOL    HW158771   4.696  14.417   0.644
18958SOL    HW258772   4.830  14.417   0.573
18959SOL     OW58773   9.294  14.464   8.826
18959SOL    HW158774   9.237  14.540   8.835
18959SOL    HW258775   9.237  14.389   8.839
18960SOL     OW58776   4.203   6.035  14.730
18960SOL    HW158777   4.209   5.974  14.804
18960SOL    HW258778   4.177   5.980  14.656
18961SOL     OW58779   3.987   2.973   9.918
18961SOL    HW158780   3.907   2.943   9.876
18961SOL    HW258781   3.976   2.951  10.011
18962SOL     OW58782   1.355   7.103   9.359
18962SOL    HW158783   1.379   7.118   9.267
18962SOL    HW258784   1.406   7.026   9.384
18963SOL     OW58785  10.787   3.589   2.630
18963SOL    HW158786  10.869   3.637   2.641
18963SOL    HW258787  10.754   3.577   2.719
18964SOL     OW58788  10.215  14.429  10.586
18964SOL    HW158789  10.127  14.465  10.599
18964SOL    HW258790  10.274  14.501  10.606
18965SOL     OW58791   0.936   7.638  13.044
18965SOL    HW158792   0.978   7.664  13.126
18965SOL    HW258793   0.936   7.718  12.991
18966SOL     OW58794  14.396  10.813   7.502
18966SOL    HW158795  14.442  10.836   7.582
18966SOL    HW258796  14.346  10.735   7.525
18967SOL     OW58797   7.334   0.889   0.951
18967SOL    HW158798   7.317   0.980   0.975
18967SOL    HW258799   7.343   0.844   1.035
18968SOL     OW58800   5.964   1.935   2.672
18968SOL    HW158801   6.012   1.989   2.609
18968SOL    HW258802   5.995   1.966   2.757
18969SOL     OW58803  10.491   5.437   5.126
18969SOL    HW158804  10.535   5.386   5.059
18969SOL    HW258805  10.398   5.419   5.113
18970SOL     OW58806  12.364   2.820  13.897
18970SOL    HW158807  12.457   2.840  13.893
18970SOL    HW258808  12.321   2.905  13.895
18971SOL     OW58809  11.557  13.744  14.498
18971SOL    HW158810  11.566  13.739  14.593
18971SOL    HW258811  11.591  13.660  14.466
18972SOL     OW58812   6.551  12.641   0.390
18972SOL    HW158813   6.565  12.638   0.295
18972SOL    HW258814   6.611  12.709   0.421
18973SOL     OW58815   5.547  11.274  11.174
18973SOL    HW158816   5.488  11.286  11.101
18973SOL    HW258817   5.635  11.276  11.135
18974SOL     OW58818  13.431   0.730  11.703
18974SOL    HW158819  13.458   0.699  11.789
18974SOL    HW258820  13.396   0.818  11.719
18975SOL     OW58821   7.667   6.906   5.382
18975SOL    HW158822   7.690   6.814   5.369
18975SOL    HW258823   7.571   6.906   5.388
18976SOL     OW58824   4.577   2.096   4.240
18976SOL    HW158825   4.660   2.139   4.258
18976SOL    HW258826   4.511   2.163   4.255
18977SOL     OW58827   9.171  12.651  13.577
18977SOL    HW158828   9.231  12.637  13.651
18977SOL    HW258829   9.108  12.578  13.583
18978SOL     OW58830   0.020   1.861   6.758
18978SOL    HW158831   0.035   1.876   6.665
18978SOL    HW258832  14.838   1.923   6.782
18979SOL     OW58833   0.962   2.145   8.795
18979SOL    HW158834   0.960   2.232   8.834
18979SOL    HW258835   0.874   2.132   8.759
18980SOL     OW58836   8.809   0.687  14.466
18980SOL    HW158837   8.903   0.701  14.480
18980SOL    HW258838   8.804   0.650  14.378
18981SOL     OW58839  13.626   5.658   5.591
18981SOL    HW158840  13.591   5.692   5.508
18981SOL    HW258841  13.691   5.723   5.618
18982SOL     OW58842   4.999   6.316  14.673
18982SOL    HW158843   4.965   6.404  14.687
18982SOL    HW258844   5.001   6.277  14.760
18983SOL     OW58845   9.873   0.485  11.505
18983SOL    HW158846   9.811   0.463  11.436
18983SOL    HW258847   9.818   0.510  11.580
18984SOL     OW58848   6.966   9.467   3.584
18984SOL    HW158849   6.975   9.393   3.524
18984SOL    HW258850   6.909   9.436   3.654
18985SOL     OW58851   4.780  11.658   4.253
18985SOL    HW158852   4.762  11.574   4.213
18985SOL    HW258853   4.703  11.712   4.232
18986SOL     OW58854  14.879  14.228  13.835
18986SOL    HW158855  14.794  14.199  13.801
18986SOL    HW258856   0.020  14.157  13.892
18987SOL     OW58857  13.316   4.644   1.767
18987SOL    HW158858  13.309   4.740   1.760
18987SOL    HW258859  13.234   4.612   1.730
18988SOL     OW58860  12.635   1.317   5.050
18988SOL    HW158861  12.629   1.413   5.057
18988SOL    HW258862  12.712   1.302   4.996
18989SOL     OW58863   2.007   5.196  10.658
18989SOL    HW158864   1.932   5.240  10.699
18989SOL    HW258865   2.037   5.257  10.590
18990SOL     OW58866   1.587  13.342  12.277
18990SOL    HW158867   1.620  13.382  12.196
18990SOL    HW258868   1.626  13.255  12.278
18991SOL     OW58869   8.410   7.510  14.283
18991SOL    HW158870   8.386   7.578  14.347
18991SOL    HW258871   8.396   7.428  14.330
18992SOL     OW58872   7.045   3.662  10.744
18992SOL    HW158873   7.130   3.698  10.719
18992SOL    HW258874   6.998   3.736  10.784
18993SOL     OW58875  14.128   0.954   5.791
18993SOL    HW158876  14.164   1.033   5.750
18993SOL    HW258877  14.033   0.968   5.791
18994SOL     OW58878   1.274  14.526   0.994
18994SOL    HW158879   1.213  14.452   0.994
18994SOL    HW258880   1.343  14.500   0.934
18995SOL     OW58881   0.173   9.335  10.523
18995SOL    HW158882   0.087   9.377  10.526
18995SOL    HW258883   0.221   9.383  10.455
18996SOL     OW58884  11.140   7.812   3.827
18996SOL    HW158885  11.104   7.899   3.847
18996SOL    HW258886  11.066   7.753   3.840
18997SOL     OW58887   8.015   8.472   0.676
18997SOL    HW158888   8.088   8.421   0.713
18997SOL    HW258889   8.030   8.561   0.709
18998SOL     OW58890   6.517   3.045   3.596
18998SOL    HW158891   6.453   2.979   3.568
18998SOL    HW258892   6.564   3.068   3.516
18999SOL     OW58893  13.064   6.071  13.454
18999SOL    HW158894  13.093   6.141  13.394
18999SOL    HW258895  12.976   6.098  13.480
19000SOL     OW58896  11.728  13.356   7.679
19000SOL    HW158897  11.793  13.368   7.610
19000SOL    HW258898  11.736  13.434   7.734
19001SOL     OW58899   6.730   3.974   3.445
19001SOL    HW158900   6.737   4.059   3.488
19001SOL    HW258901   6.741   3.910   3.516
19002SOL     OW58902   0.517   4.079  14.628
19002SOL    HW158903   0.603   4.039  14.641
19002SOL    HW258904   0.521   4.117  14.540
19003SOL     OW58905  14.321   0.118   5.205
19003SOL    HW158906  14.339   0.169   5.126
19003SOL    HW258907  14.244   0.159   5.243
19004SOL     OW58908  14.399  12.269   4.905
19004SOL    HW158909  14.459  12.331   4.945
19004SOL    HW258910  14.363  12.219   4.978
19005SOL     OW58911   7.252   0.633   9.378
19005SOL    HW158912   7.344   0.646   9.397
19005SOL    HW258913   7.250   0.603   9.287
19006SOL     OW58914   0.531   2.037   5.589
19006SOL    HW158915   0.454   2.039   5.532
19006SOL    HW258916   0.605   2.035   5.529
19007SOL     OW58917   4.612   2.625   1.491
19007SOL    HW158918   4.565   2.593   1.414
19007SOL    HW258919   4.569   2.708   1.512
19008SOL     OW58920  13.157   0.739   7.365
19008SOL    HW158921  13.174   0.658   7.414
19008SOL    HW258922  13.229   0.797   7.389
19009SOL     OW58923   6.780  10.806  12.827
19009SOL    HW158924   6.868  10.771  12.842
19009SOL    HW258925   6.736  10.795  12.911
19010SOL     OW58926  12.019  13.495   2.119
19010SOL    HW158927  12.096  13.491   2.062
19010SOL    HW258928  11.952  13.446   2.072
19011SOL     OW58929   1.046   9.155   9.763
19011SOL    HW158930   1.003   9.156   9.848
19011SOL    HW258931   1.111   9.225   9.768
19012SOL     OW58932   8.744   8.056   4.398
19012SOL    HW158933   8.696   7.977   4.374
19012SOL    HW258934   8.701   8.087   4.478
19013SOL     OW58935   7.707   5.391   7.087
19013SOL    HW158936   7.755   5.409   7.006
19013SOL    HW258937   7.664   5.474   7.108
19014SOL     OW58938  13.386  13.914   0.690
19014SOL    HW158939  13.393  13.851   0.618
19014SOL    HW258940  13.312  13.970   0.665
19015SOL     OW58941  13.208   2.576   8.347
19015SOL    HW158942  13.267   2.597   8.419
19015SOL    HW258943  13.123   2.563   8.389
19016SOL     OW58944   9.045   6.817   9.140
19016SOL    HW158945   9.111   6.756   9.105
19016SOL    HW258946   8.964   6.794   9.095
19017SOL     OW58947  11.497   0.622   7.898
19017SOL    HW158948  11.581   0.602   7.940
19017SOL    HW258949  11.507   0.594   7.808
19018SOL     OW58950  12.658   3.396   4.633
19018SOL    HW158951  12.738   3.344   4.645
19018SOL    HW258952  12.643   3.395   4.538
19019SOL     OW58953   5.673  13.989   1.331
19019SOL    HW158954   5.655  14.082   1.325
19019SOL    HW258955   5.615  13.949   1.266
19020SOL     OW58956   5.267   1.704   7.690
19020SOL    HW158957   5.191   1.731   7.639
19020SOL    HW258958   5.305   1.632   7.639
19021SOL     OW58959   5.531   0.466   1.166
19021SOL    HW158960   5.483   0.548   1.159
19021SOL    HW258961   5.471   0.400   1.132
19022SOL     OW58962   6.377  12.514   3.930
19022SOL    HW158963   6.469  12.496   3.946
19022SOL    HW258964   6.367  12.608   3.945
19023SOL     OW58965  12.263   4.144  11.397
19023SOL    HW158966  12.192   4.202  11.425
19023SOL    HW258967  12.331   4.155  11.463
19024SOL     OW58968   9.471   6.574  11.193
19024SOL    HW158969   9.460   6.564  11.098
19024SOL    HW258970   9.560   6.608  11.203
19025SOL     OW58971   8.559   1.939   9.270
19025SOL    HW158972   8.503   1.943   9.193
19025SOL    HW258973   8.644   1.971   9.239
19026SOL     OW58974   1.499   3.987  12.102
19026SOL    HW158975   1.539   4.052  12.045
19026SOL    HW258976   1.545   3.997  12.186
19027SOL     OW58977   6.143   1.686   9.735
19027SOL    HW158978   6.154   1.666   9.642
19027SOL    HW258979   6.139   1.601   9.778
19028SOL     OW58980   1.775   2.537   6.497
19028SOL    HW158981   1.814   2.553   6.411
19028SOL    HW258982   1.849   2.547   6.558
19029SOL     OW58983   9.399   9.568   6.675
19029SOL    HW158984   9.352   9.485   6.663
19029SOL    HW258985   9.335   9.636   6.653
19030SOL     OW58986  14.280   6.707  13.307
19030SOL    HW158987  14.243   6.631  13.261
19030SOL    HW258988  14.353   6.672  13.358
19031SOL     OW58989  11.447   1.224  13.220
19031SOL    HW158990  11.406   1.217  13.305
19031SOL    HW258991  11.498   1.305  13.225
19032SOL     OW58992   2.268  10.993   3.563
19032SOL    HW158993   2.344  11.047   3.584
19032SOL    HW258994   2.237  11.027   3.479
19033SOL     OW58995  12.479   1.748   1.743
19033SOL    HW158996  12.500   1.813   1.677
19033SOL    HW258997  12.410   1.788   1.797
19034SOL     OW58998  12.923  14.414   8.335
19034SOL    HW158999  12.844  14.378   8.375
19034SOL    HW259000  12.914  14.509   8.346
19035SOL     OW59001  14.194   8.972  11.823
19035SOL    HW159002  14.207   9.055  11.869
19035SOL    HW259003  14.199   8.906  11.891
19036SOL     OW59004   1.774  13.335   0.543
19036SOL    HW159005   1.754  13.247   0.512
19036SOL    HW259006   1.810  13.322   0.631
19037SOL     OW59007   7.587   6.677  13.230
19037SOL    HW159008   7.567   6.583  13.227
19037SOL    HW259009   7.505   6.718  13.256
19038SOL     OW59010   8.691   1.027   2.752
19038SOL    HW159011   8.723   1.117   2.756
19038SOL    HW259012   8.650   1.019   2.666
19039SOL     OW59013  14.008   5.647  14.309
19039SOL    HW159014  13.961   5.630  14.227
19039SOL    HW259015  14.017   5.561  14.350
19040SOL     OW59016   2.669   8.631   3.597
19040SOL    HW159017   2.725   8.568   3.550
19040SOL    HW259018   2.701   8.717   3.570
19041SOL     OW59019   1.291  12.736  12.772
19041SOL    HW159020   1.334  12.791  12.706
19041SOL    HW259021   1.204  12.774  12.781
19042SOL     OW59022   7.896   4.215  11.959
19042SOL    HW159023   7.868   4.300  11.926
19042SOL    HW259024   7.817   4.161  11.957
19043SOL     OW59025   9.747   3.919   1.947
19043SOL    HW159026   9.803   3.961   1.882
19043SOL    HW259027   9.684   3.868   1.896
19044SOL     OW59028   4.381  12.040   1.117
19044SOL    HW159029   4.358  11.994   1.036
19044SOL    HW259030   4.449  11.986   1.157
19045SOL     OW59031  14.453   9.642   5.633
19045SOL    HW159032  14.458   9.548   5.614
19045SOL    HW259033  14.398   9.647   5.711
19046SOL     OW59034   6.746  14.241  14.419
19046SOL    HW159035   6.819  14.303  14.412
19046SOL    HW259036   6.758  14.199  14.504
19047SOL     OW59037   2.693   5.824   0.203
19047SOL    HW159038   2.737   5.761   0.146
19047SOL    HW259039   2.654   5.887   0.142
19048SOL     OW59040   1.604  11.749   4.681
19048SOL    HW159041   1.653  11.831   4.684
19048SOL    HW259042   1.662  11.688   4.635
19049SOL     OW59043   6.120   2.231   9.325
19049SOL    HW159044   6.079   2.243   9.239
19049SOL    HW259045   6.062   2.169   9.370
19050SOL     OW59046   3.431   1.139  12.071
19050SOL    HW159047   3.413   1.107  11.982
19050SOL    HW259048   3.473   1.064  12.115
19051SOL     OW59049   3.227   6.391   4.531
19051SOL    HW159050   3.310   6.438   4.537
19051SOL    HW259051   3.161   6.459   4.524
19052SOL     OW59052  10.934   7.342   6.092
19052SOL    HW159053  10.931   7.402   6.017
19052SOL    HW259054  10.904   7.258   6.057
19053SOL     OW59055   8.938   0.148   8.206
19053SOL    HW159056   8.999   0.086   8.166
19053SOL    HW259057   8.916   0.209   8.135
19054SOL     OW59058   7.817  14.811   1.894
19054SOL    HW159059   7.901  14.856   1.889
19054SOL    HW259060   7.761  14.869   1.945
19055SOL     OW59061  13.048   2.117   9.133
19055SOL    HW159062  13.009   2.180   9.073
19055SOL    HW259063  12.982   2.048   9.142
19056SOL     OW59064   6.997  11.176   9.372
19056SOL    HW159065   7.079  11.154   9.416
19056SOL    HW259066   6.938  11.104   9.395
19057SOL     OW59067   5.306   6.111   7.150
19057SOL    HW159068   5.339   6.191   7.189
19057SOL    HW259069   5.275   6.137   7.063
19058SOL     OW59070  10.768  14.619   4.849
19058SOL    HW159071  10.726  14.704   4.834
19058SOL    HW259072  10.697  14.555   4.841
19059SOL     OW59073  11.893  10.644   5.970
19059SOL    HW159074  11.893  10.551   5.949
19059SOL    HW259075  11.803  10.663   5.997
19060SOL     OW59076  12.496  11.868   8.929
19060SOL    HW159077  12.479  11.882   9.023
19060SOL    HW259078  12.481  11.774   8.916
19061SOL     OW59079  13.513  12.389   5.296
19061SOL    HW159080  13.455  12.450   5.252
19061SOL    HW259081  13.484  12.389   5.387
19062SOL     OW59082  10.363   1.861   7.395
19062SOL    HW159083  10.399   1.916   7.325
19062SOL    HW259084  10.269   1.878   7.392
19063SOL     OW59085   6.687   3.600   1.736
19063SOL    HW159086   6.749   3.533   1.706
19063SOL    HW259087   6.603   3.574   1.695
19064SOL     OW59088   9.466   0.817   3.975
19064SOL    HW159089   9.437   0.858   4.057
19064SOL    HW259090   9.559   0.836   3.970
19065SOL     OW59091   6.517  14.669   6.026
19065SOL    HW159092   6.554  14.625   5.949
19065SOL    HW259093   6.522  14.762   6.005
19066SOL     OW59094   3.610   0.886  12.428
19066SOL    HW159095   3.581   0.862  12.340
19066SOL    HW259096   3.610   0.982  12.427
19067SOL     OW59097   9.834   3.245   0.936
19067SOL    HW159098   9.906   3.221   0.994
19067SOL    HW259099   9.873   3.299   0.868
19068SOL     OW59100  11.181   3.664   9.596
19068SOL    HW159101  11.179   3.760   9.596
19068SOL    HW259102  11.162   3.640   9.687
19069SOL     OW59103  10.960   2.267   9.328
19069SOL    HW159104  11.055   2.265   9.318
19069SOL    HW259105  10.944   2.338   9.389
19070SOL     OW59106   4.380   0.530   1.255
19070SOL    HW159107   4.378   0.484   1.339
19070SOL    HW259108   4.324   0.606   1.268
19071SOL     OW59109  14.535   1.869  12.804
19071SOL    HW159110  14.460   1.854  12.862
19071SOL    HW259111  14.516   1.952  12.761
19072SOL     OW59112  14.302   9.624   9.991
19072SOL    HW159113  14.367   9.555  10.001
19072SOL    HW259114  14.352   9.699   9.959
19073SOL     OW59115   4.437   6.928   3.608
19073SOL    HW159116   4.466   6.934   3.700
19073SOL    HW259117   4.348   6.893   3.613
19074SOL     OW59118   5.633  14.780   3.694
19074SOL    HW159119   5.603  14.691   3.676
19074SOL    HW259120   5.553  14.829   3.714
19075SOL     OW59121  14.034   3.253   5.143
19075SOL    HW159122  13.942   3.237   5.163
19075SOL    HW259123  14.034   3.336   5.096
19076SOL     OW59124   1.135   7.312   8.373
19076SOL    HW159125   1.172   7.377   8.432
19076SOL    HW259126   1.145   7.350   8.286
19077SOL     OW59127  10.374  12.585   7.794
19077SOL    HW159128  10.308  12.554   7.732
19077SOL    HW259129  10.325  12.602   7.875
19078SOL     OW59130   2.859  10.206  11.983
19078SOL    HW159131   2.863  10.297  11.953
19078SOL    HW259132   2.921  10.202  12.056
19079SOL     OW59133   9.817  12.785  14.155
19079SOL    HW159134   9.730  12.768  14.190
19079SOL    HW259135   9.815  12.877  14.129
19080SOL     OW59136   8.426   9.946  12.378
19080SOL    HW159137   8.388   9.922  12.463
19080SOL    HW259138   8.484  10.019  12.398
19081SOL     OW59139   0.484   4.032  10.190
19081SOL    HW159140   0.457   4.119  10.219
19081SOL    HW259141   0.545   4.002  10.258
19082SOL     OW59142   2.589  11.234   4.901
19082SOL    HW159143   2.562  11.240   4.809
19082SOL    HW259144   2.507  11.224   4.950
19083SOL     OW59145   7.624   6.539   4.070
19083SOL    HW159146   7.575   6.554   4.151
19083SOL    HW259147   7.556   6.535   4.002
19084SOL     OW59148  12.119   9.320  13.597
19084SOL    HW159149  12.185   9.262  13.560
19084SOL    HW259150  12.168   9.393  13.633
19085SOL     OW59151  10.391  11.463  11.109
19085SOL    HW159152  10.301  11.432  11.106
19085SOL    HW259153  10.442  11.386  11.135
19086SOL     OW59154   6.999   2.277  12.170
19086SOL    HW159155   6.956   2.292  12.086
19086SOL    HW259156   7.067   2.213  12.151
19087SOL     OW59157   3.945   3.923   7.488
19087SOL    HW159158   3.966   3.835   7.459
19087SOL    HW259159   3.934   3.916   7.583
19088SOL     OW59160   0.178   3.489   6.234
19088SOL    HW159161   0.114   3.479   6.163
19088SOL    HW259162   0.135   3.546   6.297
19089SOL     OW59163   7.392   2.057   3.083
19089SOL    HW159164   7.299   2.078   3.090
19089SOL    HW259165   7.420   2.097   3.000
19090SOL     OW59166  10.604  10.519   9.066
19090SOL    HW159167  10.622  10.427   9.087
19090SOL    HW259168  10.512  10.520   9.040
19091SOL     OW59169   8.950  14.648   4.628
19091SOL    HW159170   8.880  14.616   4.685
19091SOL    HW259171   8.924  14.738   4.608
19092SOL     OW59172   9.933   4.208   6.417
19092SOL    HW159173  10.018   4.178   6.450
19092SOL    HW259174   9.889   4.245   6.493
19093SOL     OW59175   2.622   6.202  12.292
19093SOL    HW159176   2.551   6.246  12.245
19093SOL    HW259177   2.698   6.259  12.281
19094SOL     OW59178   7.158  10.741  12.820
19094SOL    HW159179   7.121  10.713  12.736
19094SOL    HW259180   7.221  10.672  12.842
19095SOL     OW59181   2.694  11.787   7.397
19095SOL    HW159182   2.640  11.710   7.413
19095SOL    HW259183   2.709  11.787   7.303
19096SOL     OW59184   6.892   5.821   0.642
19096SOL    HW159185   6.937   5.765   0.705
19096SOL    HW259186   6.957   5.838   0.574
19097SOL     OW59187   1.048  11.064   9.971
19097SOL    HW159188   0.955  11.081   9.955
19097SOL    HW259189   1.091  11.085   9.888
19098SOL     OW59190  10.996   0.223   2.128
19098SOL    HW159191  10.948   0.301   2.099
19098SOL    HW259192  11.078   0.226   2.080
19099SOL     OW59193  11.568   5.312   0.180
19099SOL    HW159194  11.639   5.347   0.126
19099SOL    HW259195  11.567   5.219   0.160
19100SOL     OW59196   0.738  13.486  12.588
19100SOL    HW159197   0.682  13.552  12.547
19100SOL    HW259198   0.680  13.438  12.647
19101SOL     OW59199  13.102   4.564  14.476
19101SOL    HW159200  13.171   4.608  14.525
19101SOL    HW259201  13.136   4.476  14.459
19102SOL     OW59202  10.477   3.671   9.898
19102SOL    HW159203  10.469   3.576   9.899
19102SOL    HW259204  10.564   3.688   9.934
19103SOL     OW59205   8.592   8.136   0.019
19103SOL    HW159206   8.620   8.051   0.054
19103SOL    HW259207   8.536   8.113  14.832
19104SOL     OW59208  10.001   7.203  12.920
19104SOL    HW159209  10.006   7.279  12.861
19104SOL    HW259210  10.082   7.154  12.902
19105SOL     OW59211   4.711   0.845  14.031
19105SOL    HW159212   4.667   0.929  14.012
19105SOL    HW259213   4.758   0.824  13.950
19106SOL     OW59214   8.484  14.853  14.687
19106SOL    HW159215   8.415   0.026  14.715
19106SOL    HW259216   8.515  14.814  14.769
19107SOL     OW59217   0.085   6.380   7.361
19107SOL    HW159218   0.044   6.320   7.423
19107SOL    HW259219   0.176   6.386   7.389
19108SOL     OW59220  11.931   0.460  13.846
19108SOL    HW159221  11.968   0.465  13.934
19108SOL    HW259222  11.966   0.536  13.801
19109SOL     OW59223  11.277  12.744  14.409
19109SOL    HW159224  11.306  12.742  14.500
19109SOL    HW259225  11.199  12.688  14.407
19110SOL     OW59226   1.885  13.934   3.951
19110SOL    HW159227   1.833  13.854   3.957
19110SOL    HW259228   1.872  13.977   4.036
19111SOL     OW59229   4.245   0.775   6.573
19111SOL    HW159230   4.170   0.716   6.577
19111SOL    HW259231   4.228   0.830   6.496
19112SOL     OW59232   9.909   9.821  11.976
19112SOL    HW159233   9.855   9.759  11.926
19112SOL    HW259234   9.848   9.860  12.039
19113SOL     OW59235   8.044  10.098   2.228
19113SOL    HW159236   8.064  10.156   2.301
19113SOL    HW259237   8.087  10.139   2.152
19114SOL     OW59238   4.886   8.705   1.799
19114SOL    HW159239   4.956   8.646   1.771
19114SOL    HW259240   4.928   8.789   1.810
19115SOL     OW59241   4.688  12.679   8.838
19115SOL    HW159242   4.754  12.613   8.817
19115SOL    HW259243   4.692  12.740   8.764
19116SOL     OW59244   7.830   3.302  11.278
19116SOL    HW159245   7.795   3.258  11.201
19116SOL    HW259246   7.902   3.356  11.243
19117SOL     OW59247   9.214   9.573  11.970
19117SOL    HW159248   9.189   9.481  11.964
19117SOL    HW259249   9.133   9.621  11.953
19118SOL     OW59250   8.818   2.837  14.411
19118SOL    HW159251   8.727   2.860  14.429
19118SOL    HW259252   8.868   2.915  14.438
19119SOL     OW59253   1.170   7.829   4.303
19119SOL    HW159254   1.172   7.734   4.315
19119SOL    HW259255   1.262   7.855   4.314
19120SOL     OW59256   4.700   8.933  14.614
19120SOL    HW159257   4.782   8.955  14.569
19120SOL    HW259258   4.703   8.985  14.695
19121SOL     OW59259   2.783   9.592   7.207
19121SOL    HW159260   2.865   9.544   7.206
19121SOL    HW259261   2.715   9.525   7.205
19122SOL     OW59262   3.622   2.821   4.278
19122SOL    HW159263   3.716   2.822   4.292
19122SOL    HW259264   3.611   2.829   4.183
19123SOL     OW59265   5.722   5.720  10.105
19123SOL    HW159266   5.750   5.709  10.014
19123SOL    HW259267   5.770   5.652  10.153
19124SOL     OW59268   5.776  13.941   9.709
19124SOL    HW159269   5.869  13.944   9.684
19124SOL    HW259270   5.775  13.895   9.793
19125SOL     OW59271   7.495   8.904   4.379
19125SOL    HW159272   7.583   8.867   4.375
19125SOL    HW259273   7.447   8.860   4.309
19126SOL     OW59274  11.699  13.779   7.307
19126SOL    HW159275  11.777  13.725   7.296
19126SOL    HW259276  11.700  13.839   7.232
19127SOL     OW59277  11.497  12.979   2.088
19127SOL    HW159278  11.491  13.006   2.180
19127SOL    HW259279  11.587  12.946   2.079
19128SOL     OW59280   5.769   5.761   5.060
19128SOL    HW159281   5.679   5.771   5.093
19128SOL    HW259282   5.758   5.739   4.968
19129SOL     OW59283   2.212  14.246   0.133
19129SOL    HW159284   2.293  14.263   0.084
19129SOL    HW259285   2.240  14.193   0.207
19130SOL     OW59286   1.615  11.506  14.070
19130SOL    HW159287   1.596  11.586  14.118
19130SOL    HW259288   1.589  11.524  13.980
19131SOL     OW59289  10.513   2.845  14.505
19131SOL    HW159290  10.568   2.841  14.584
19131SOL    HW259291  10.556   2.910  14.450
19132SOL     OW59292  12.660   4.309   9.502
19132SOL    HW159293  12.748   4.323   9.466
19132SOL    HW259294  12.675   4.272   9.589
19133SOL     OW59295  14.830   5.417   5.447
19133SOL    HW159296  14.760   5.482   5.444
19133SOL    HW259297   0.022   5.468   5.463
19134SOL     OW59298   5.320   1.940  14.430
19134SOL    HW159299   5.246   1.887  14.400
19134SOL    HW259300   5.337   1.910  14.520
19135SOL     OW59301   9.929   0.676   2.072
19135SOL    HW159302   9.950   0.759   2.116
19135SOL    HW259303  10.014   0.636   2.057
19136SOL     OW59304   9.780   1.446  13.463
19136SOL    HW159305   9.728   1.524  13.447
19136SOL    HW259306   9.870   1.472  13.447
19137SOL     OW59307   2.910   3.601   6.833
19137SOL    HW159308   3.003   3.577   6.828
19137SOL    HW259309   2.886   3.582   6.924
19138SOL     OW59310   5.972   7.212   4.218
19138SOL    HW159311   5.929   7.293   4.193
19138SOL    HW259312   5.901   7.154   4.245
19139SOL     OW59313   7.974   0.065  12.003
19139SOL    HW159314   7.942   0.151  11.976
19139SOL    HW259315   8.064   0.062  11.972
19140SOL     OW59316  12.019   5.455   4.719
19140SOL    HW159317  12.105   5.465   4.677
19140SOL    HW259318  12.016   5.362   4.744
19141SOL     OW59319   3.892   7.906   8.049
19141SOL    HW159320   3.844   7.839   8.001
19141SOL    HW259321   3.839   7.925   8.126
19142SOL     OW59322  14.662   6.424  14.019
19142SOL    HW159323  14.664   6.515  14.047
19142SOL    HW259324  14.595   6.383  14.074
19143SOL     OW59325  12.767   3.889  13.609
19143SOL    HW159326  12.725   3.974  13.620
19143SOL    HW259327  12.816   3.876  13.691
19144SOL     OW59328   5.179   2.404  11.906
19144SOL    HW159329   5.240   2.477  11.916
19144SOL    HW259330   5.227   2.328  11.938
19145SOL     OW59331  14.231   4.508  14.697
19145SOL    HW159332  14.279   4.586  14.668
19145SOL    HW259333  14.193   4.472  14.617
19146SOL     OW59334  13.248  12.777   0.368
19146SOL    HW159335  13.196  12.801   0.292
19146SOL    HW259336  13.251  12.681   0.365
19147SOL     OW59337   2.890   4.278   0.343
19147SOL    HW159338   2.913   4.196   0.386
19147SOL    HW259339   2.950   4.342   0.380
19148SOL     OW59340   9.055  11.390   1.249
19148SOL    HW159341   9.105  11.334   1.309
19148SOL    HW259342   8.969  11.348   1.243
19149SOL     OW59343   4.288   7.632   4.816
19149SOL    HW159344   4.258   7.541   4.818
19149SOL    HW259345   4.355   7.632   4.748
19150SOL     OW59346  11.908  12.925   2.277
19150SOL    HW159347  11.887  13.013   2.244
19150SOL    HW259348  11.897  12.933   2.372
19151SOL     OW59349   1.451   6.757   4.294
19151SOL    HW159350   1.522   6.787   4.351
19151SOL    HW259351   1.452   6.662   4.302
19152SOL     OW59352   9.005   6.144  11.752
19152SOL    HW159353   8.943   6.178  11.816
19152SOL    HW259354   8.991   6.198  11.674
19153SOL     OW59355   8.842   5.996   0.041
19153SOL    HW159356   8.921   5.966  14.883
19153SOL    HW259357   8.851   5.961   0.129
19154SOL     OW59358  11.802  11.146  13.687
19154SOL    HW159359  11.864  11.126  13.757
19154SOL    HW259360  11.835  11.227  13.647
19155SOL     OW59361   4.177  11.764  10.823
19155SOL    HW159362   4.180  11.848  10.777
19155SOL    HW259363   4.227  11.779  10.903
19156SOL     OW59364   4.570   8.644   3.928
19156SOL    HW159365   4.648   8.650   3.983
19156SOL    HW259366   4.578   8.717   3.867
19157SOL     OW59367   1.459   2.771   5.457
19157SOL    HW159368   1.471   2.857   5.497
19157SOL    HW259369   1.511   2.775   5.377
19158SOL     OW59370   5.111   0.162   2.280
19158SOL    HW159371   5.126   0.070   2.260
19158SOL    HW259372   5.073   0.198   2.200
19159SOL     OW59373   6.866   2.282  11.465
19159SOL    HW159374   6.895   2.243  11.547
19159SOL    HW259375   6.774   2.301  11.478
19160SOL     OW59376  14.707   0.223   4.116
19160SOL    HW159377  14.643   0.260   4.055
19160SOL    HW259378  14.663   0.147   4.154
19161SOL     OW59379   2.330   7.600   5.236
19161SOL    HW159380   2.347   7.513   5.200
19161SOL    HW259381   2.399   7.655   5.199
19162SOL     OW59382   3.344   0.102   6.655
19162SOL    HW159383   3.403   0.146   6.716
19162SOL    HW259384   3.283   0.170   6.627
19163SOL     OW59385   7.326   7.053  12.467
19163SOL    HW159386   7.291   6.994  12.400
19163SOL    HW259387   7.294   7.139  12.442
19164SOL     OW59388   4.422   5.457   3.048
19164SOL    HW159389   4.434   5.396   2.975
19164SOL    HW259390   4.499   5.512   3.045
19165SOL     OW59391   9.227  12.498  12.393
19165SOL    HW159392   9.300  12.438  12.409
19165SOL    HW259393   9.247  12.539  12.310
19166SOL     OW59394   6.442   7.771  11.150
19166SOL    HW159395   6.420   7.678  11.154
19166SOL    HW259396   6.453   7.790  11.056
19167SOL     OW59397  10.184  10.696   3.226
19167SOL    HW159398  10.123  10.719   3.155
19167SOL    HW259399  10.128  10.657   3.293
19168SOL     OW59400  12.185  10.398  11.472
19168SOL    HW159401  12.243  10.326  11.449
19168SOL    HW259402  12.127  10.409  11.396
19169SOL     OW59403   8.556   5.779  12.211
19169SOL    HW159404   8.636   5.735  12.240
19169SOL    HW259405   8.546   5.751  12.120
19170SOL     OW59406   4.414   7.423   7.724
19170SOL    HW159407   4.469   7.351   7.753
19170SOL    HW259408   4.325   7.391   7.734
19171SOL     OW59409   2.523  10.749   6.220
19171SOL    HW159410   2.523  10.784   6.310
19171SOL    HW259411   2.604  10.699   6.214
19172SOL     OW59412  12.174   1.727   7.784
19172SOL    HW159413  12.224   1.789   7.731
19172SOL    HW259414  12.186   1.757   7.874
19173SOL     OW59415   6.070   6.448  12.224
19173SOL    HW159416   5.990   6.425  12.272
19173SOL    HW259417   6.131   6.478  12.292
19174SOL     OW59418   0.467   5.444   0.004
19174SOL    HW159419   0.462   5.533  14.856
19174SOL    HW259420   0.417   5.391  14.830
19175SOL     OW59421   8.810  14.718   5.240
19175SOL    HW159422   8.769  14.727   5.154
19175SOL    HW259423   8.891  14.768   5.233
19176SOL     OW59424  10.322  14.341   0.855
19176SOL    HW159425  10.311  14.366   0.764
19176SOL    HW259426  10.252  14.387   0.902
19177SOL     OW59427  14.539   0.949   9.603
19177SOL    HW159428  14.477   1.005   9.650
19177SOL    HW259429  14.499   0.939   9.516
19178SOL     OW59430   6.686  14.742  11.415
19178SOL    HW159431   6.660  14.731  11.323
19178SOL    HW259432   6.778  14.766  11.412
19179SOL     OW59433  10.175   8.771   0.574
19179SOL    HW159434  10.260   8.789   0.533
19179SOL    HW259435  10.175   8.821   0.655
19180SOL     OW59436  10.826  11.296  12.485
19180SOL    HW159437  10.900  11.272  12.429
19180SOL    HW259438  10.749  11.286  12.430
19181SOL     OW59439   7.813  13.609   1.692
19181SOL    HW159440   7.889  13.625   1.748
19181SOL    HW259441   7.840  13.539   1.633
19182SOL     OW59442  11.128   6.836   6.997
19182SOL    HW159443  11.186   6.891   7.050
19182SOL    HW259444  11.127   6.752   7.042
19183SOL     OW59445   4.827  12.084   0.236
19183SOL    HW159446   4.892  12.072   0.167
19183SOL    HW259447   4.743  12.086   0.189
19184SOL     OW59448   0.724   4.930   3.634
19184SOL    HW159449   0.731   5.022   3.607
19184SOL    HW259450   0.658   4.929   3.703
19185SOL     OW59451   8.815  12.737  10.591
19185SOL    HW159452   8.842  12.748  10.500
19185SOL    HW259453   8.722  12.716  10.586
19186SOL     OW59454  11.060  14.292   3.212
19186SOL    HW159455  11.022  14.341   3.139
19186SOL    HW259456  11.075  14.204   3.177
19187SOL     OW59457   2.577   4.052  14.512
19187SOL    HW159458   2.500   4.060  14.569
19187SOL    HW259459   2.564   3.968  14.468
19188SOL     OW59460   6.168   2.497  14.401
19188SOL    HW159461   6.138   2.550  14.475
19188SOL    HW259462   6.197   2.562  14.337
19189SOL     OW59463   2.067   2.244   3.128
19189SOL    HW159464   1.975   2.222   3.144
19189SOL    HW259465   2.103   2.167   3.085
19190SOL     OW59466   6.365   2.964   0.836
19190SOL    HW159467   6.319   3.042   0.865
19190SOL    HW259468   6.401   2.926   0.916
19191SOL     OW59469   8.328  14.351  11.087
19191SOL    HW159470   8.235  14.368  11.072
19191SOL    HW259471   8.373  14.402  11.020
19192SOL     OW59472   5.469   1.077   8.839
19192SOL    HW159473   5.391   1.037   8.878
19192SOL    HW259474   5.521   1.003   8.808
19193SOL     OW59475   9.530   4.082  10.943
19193SOL    HW159476   9.540   4.159  10.888
19193SOL    HW259477   9.531   4.116  11.033
19194SOL     OW59478  12.677   5.981   2.724
19194SOL    HW159479  12.596   6.005   2.769
19194SOL    HW259480  12.724   5.926   2.788
19195SOL     OW59481  11.239   4.302  11.709
19195SOL    HW159482  11.326   4.337  11.691
19195SOL    HW259483  11.250   4.207  11.703
19196SOL     OW59484  12.391  13.306  11.794
19196SOL    HW159485  12.317  13.281  11.739
19196SOL    HW259486  12.398  13.401  11.782
19197SOL     OW59487   7.320   5.667   5.459
19197SOL    HW159488   7.413   5.642   5.459
19197SOL    HW259489   7.321   5.762   5.464
19198SOL     OW59490   6.630  10.708   8.766
19198SOL    HW159491   6.720  10.689   8.789
19198SOL    HW259492   6.614  10.796   8.802
19199SOL     OW59493   6.985   3.435   9.413
19199SOL    HW159494   7.080   3.420   9.411
19199SOL    HW259495   6.966   3.481   9.331
19200SOL     OW59496   6.774   2.515  13.985
19200SOL    HW159497   6.862   2.538  13.954
19200SOL    HW259498   6.770   2.551  14.073
19201SOL     OW59499   8.762  12.241   9.264
19201SOL    HW159500   8.854  12.234   9.289
19201SOL    HW259501   8.723  12.296   9.331
19202SOL     OW59502   6.706   4.472   5.973
19202SOL    HW159503   6.694   4.478   6.068
19202SOL    HW259504   6.636   4.527   5.938
19203SOL     OW59505  12.043  12.320  13.629
19203SOL    HW159506  12.037  12.254  13.697
19203SOL    HW259507  11.958  12.318  13.585
19204SOL     OW59508   2.387  14.377  12.555
19204SOL    HW159509   2.367  14.434  12.480
19204SOL    HW259510   2.311  14.386  12.613
19205SOL     OW59511   1.857  14.143   4.828
19205SOL    HW159512   1.930  14.086   4.804
19205SOL    HW259513   1.868  14.221   4.773
19206SOL     OW59514   8.141   6.400   7.377
19206SOL    HW159515   8.096   6.380   7.295
19206SOL    HW259516   8.130   6.494   7.388
19207SOL     OW59517   4.935  11.330   2.160
19207SOL    HW159518   4.937  11.302   2.251
19207SOL    HW259519   5.016  11.379   2.147
19208SOL     OW59520   5.290   0.872   0.601
19208SOL    HW159521   5.364   0.849   0.544
19208SOL    HW259522   5.234   0.795   0.600
19209SOL     OW59523  10.384   8.883  14.280
19209SOL    HW159524  10.461   8.908  14.332
19209SOL    HW259525  10.311   8.925  14.325
19210SOL     OW59526   6.671  11.636  14.169
19210SOL    HW159527   6.656  11.720  14.124
19210SOL    HW259528   6.730  11.588  14.111
19211SOL     OW59529   5.489   7.991   8.130
19211SOL    HW159530   5.439   8.071   8.113
19211SOL    HW259531   5.442   7.923   8.081
19212SOL     OW59532   0.615  11.801   1.465
19212SOL    HW159533   0.524  11.813   1.440
19212SOL    HW259534   0.630  11.866   1.533
19213SOL     OW59535   5.040   8.489   8.844
19213SOL    HW159536   4.953   8.452   8.858
19213SOL    HW259537   5.047   8.500   8.749
19214SOL     OW59538   0.661  10.423   5.495
19214SOL    HW159539   0.566  10.413   5.501
19214SOL    HW259540   0.680  10.498   5.551
19215SOL     OW59541  13.363   1.504   5.344
19215SOL    HW159542  13.423   1.529   5.414
19215SOL    HW259543  13.293   1.456   5.388
19216SOL     OW59544   0.359  10.146  13.496
19216SOL    HW159545   0.420  10.184  13.560
19216SOL    HW259546   0.274  10.182  13.520
19217SOL     OW59547  14.500  14.504   1.359
19217SOL    HW159548  14.464  14.585   1.395
19217SOL    HW259549  14.567  14.477   1.423
19218SOL     OW59550   8.163   8.434   4.258
19218SOL    HW159551   8.256   8.452   4.271
19218SOL    HW259552   8.144   8.468   4.170
19219SOL     OW59553  14.374   3.311   3.432
19219SOL    HW159554  14.340   3.368   3.501
19219SOL    HW259555  14.299   3.295   3.374
19220SOL     OW59556   2.845   9.276   4.103
19220SOL    HW159557   2.781   9.313   4.163
19220SOL    HW259558   2.918   9.338   4.105
19221SOL     OW59559  11.507   4.566   4.542
19221SOL    HW159560  11.442   4.515   4.492
19221SOL    HW259561  11.474   4.567   4.631
19222SOL     OW59562   1.549  11.073   0.694
19222SOL    HW159563   1.640  11.076   0.664
19222SOL    HW259564   1.556  11.074   0.790
19223SOL     OW59565  10.301   5.035   8.484
19223SOL    HW159566  10.324   5.116   8.438
19223SOL    HW259567  10.273   4.975   8.415
19224SOL     OW59568   6.150   0.704  10.916
19224SOL    HW159569   6.111   0.624  10.879
19224SOL    HW259570   6.126   0.702  11.008
19225SOL     OW59571   3.954   1.806  12.334
19225SOL    HW159572   3.879   1.819  12.392
19225SOL    HW259573   3.959   1.887  12.283
19226SOL     OW59574   5.864   6.239   6.896
19226SOL    HW159575   5.893   6.324   6.931
19226SOL    HW259576   5.868   6.180   6.971
19227SOL     OW59577   6.293   4.688  12.226
19227SOL    HW159578   6.237   4.632  12.279
19227SOL    HW259579   6.319   4.634  12.152
19228SOL     OW59580  11.042   8.767   5.061
19228SOL    HW159581  10.978   8.832   5.090
19228SOL    HW259582  11.079   8.732   5.142
19229SOL     OW59583   4.046   9.968   8.328
19229SOL    HW159584   4.122   9.920   8.296
19229SOL    HW259585   4.006  10.005   8.249
19230SOL     OW59586   3.966   5.107   7.314
19230SOL    HW159587   3.986   5.186   7.364
19230SOL    HW259588   3.991   5.128   7.224
19231SOL     OW59589  12.579  10.068   2.816
19231SOL    HW159590  12.577  10.018   2.735
19231SOL    HW259591  12.524  10.018   2.876
19232SOL     OW59592   7.593   5.776  11.620
19232SOL    HW159593   7.602   5.733  11.705
19232SOL    HW259594   7.581   5.705  11.558
19233SOL     OW59595   8.444   2.675   0.369
19233SOL    HW159596   8.514   2.708   0.425
19233SOL    HW259597   8.424   2.748   0.311
19234SOL     OW59598   8.116  12.158   8.319
19234SOL    HW159599   8.069  12.090   8.271
19234SOL    HW259600   8.097  12.239   8.271
19235SOL     OW59601   6.930   3.570   0.710
19235SOL    HW159602   6.985   3.592   0.635
19235SOL    HW259603   6.982   3.508   0.761
19236SOL     OW59604   8.692  13.623   4.932
19236SOL    HW159605   8.692  13.530   4.956
19236SOL    HW259606   8.652  13.667   5.007
19237SOL     OW59607   6.711  10.588   5.802
19237SOL    HW159608   6.785  10.529   5.792
19237SOL    HW259609   6.740  10.654   5.865
19238SOL     OW59610   2.689  12.881   6.213
19238SOL    HW159611   2.777  12.842   6.211
19238SOL    HW259612   2.638  12.822   6.268
19239SOL     OW59613   8.221   1.132   8.451
19239SOL    HW159614   8.233   1.124   8.356
19239SOL    HW259615   8.132   1.100   8.466
19240SOL     OW59616  10.157  10.799   5.782
19240SOL    HW159617  10.092  10.743   5.738
19240SOL    HW259618  10.163  10.876   5.726
19241SOL     OW59619   3.872  13.486   8.199
19241SOL    HW159620   3.787  13.443   8.207
19241SOL    HW259621   3.851  13.578   8.186
19242SOL     OW59622   1.372   4.047   6.184
19242SOL    HW159623   1.433   4.093   6.242
19242SOL    HW259624   1.354   3.964   6.229
19243SOL     OW59625  11.127  13.152   0.728
19243SOL    HW159626  11.155  13.154   0.820
19243SOL    HW259627  11.058  13.085   0.725
19244SOL     OW59628   3.061   4.814  11.097
19244SOL    HW159629   2.969   4.793  11.078
19244SOL    HW259630   3.057   4.892  11.152
19245SOL     OW59631   9.694   3.897   0.461
19245SOL    HW159632   9.727   3.905   0.551
19245SOL    HW259633   9.753   3.950   0.408
19246SOL     OW59634   2.127   7.516   5.594
19246SOL    HW159635   2.086   7.529   5.679
19246SOL    HW259636   2.125   7.421   5.580
19247SOL     OW59637   4.816   7.201   3.659
19247SOL    HW159638   4.892   7.257   3.675
19247SOL    HW259639   4.852   7.113   3.650
19248SOL     OW59640  14.007   6.073   6.844
19248SOL    HW159641  13.940   6.075   6.775
19248SOL    HW259642  13.983   6.145   6.902
19249SOL     OW59643   4.114   1.773  14.457
19249SOL    HW159644   4.060   1.780  14.535
19249SOL    HW259645   4.204   1.788  14.489
19250SOL     OW59646   6.882   4.319  11.095
19250SOL    HW159647   6.935   4.303  11.173
19250SOL    HW259648   6.941   4.366  11.035
19251SOL     OW59649   5.471  12.740   1.476
19251SOL    HW159650   5.515  12.659   1.500
19251SOL    HW259651   5.540  12.794   1.437
19252SOL     OW59652  14.806   0.044   2.960
19252SOL    HW159653  14.861   0.040   2.881
19252SOL    HW259654  14.726  14.884   2.935
19253SOL     OW59655   9.745   5.915   2.922
19253SOL    HW159656   9.726   5.959   2.839
19253SOL    HW259657   9.684   5.954   2.985
19254SOL     OW59658   5.967  14.174  13.322
19254SOL    HW159659   5.918  14.121  13.385
19254SOL    HW259660   5.938  14.264  13.339
19255SOL     OW59661  12.211   4.616  13.833
19255SOL    HW159662  12.115   4.614  13.842
19255SOL    HW259663  12.242   4.546  13.891
19256SOL     OW59664   3.520   6.207   8.594
19256SOL    HW159665   3.561   6.280   8.640
19256SOL    HW259666   3.456   6.172   8.656
19257SOL     OW59667   4.302  12.232  12.426
19257SOL    HW159668   4.306  12.321  12.461
19257SOL    HW259669   4.275  12.178  12.500
19258SOL     OW59670  10.074   2.867   4.473
19258SOL    HW159671  10.150   2.814   4.497
19258SOL    HW259672  10.081   2.945   4.529
19259SOL     OW59673  11.652   0.783   1.919
19259SOL    HW159674  11.573   0.736   1.891
19259SOL    HW259675  11.719   0.715   1.921
19260SOL     OW59676  14.346   5.365   0.777
19260SOL    HW159677  14.313   5.451   0.802
19260SOL    HW259678  14.352   5.317   0.860
19261SOL     OW59679   0.618   3.899   7.016
19261SOL    HW159680   0.604   3.962   6.944
19261SOL    HW259681   0.549   3.834   7.003
19262SOL     OW59682   0.351  13.953   6.919
19262SOL    HW159683   0.267  13.999   6.923
19262SOL    HW259684   0.336  13.880   6.859
19263SOL     OW59685  12.741  14.720   7.763
19263SOL    HW159686  12.778  14.687   7.845
19263SOL    HW259687  12.708  14.807   7.785
19264SOL     OW59688   4.114   2.424   1.431
19264SOL    HW159689   4.085   2.343   1.389
19264SOL    HW259690   4.045   2.445   1.494
19265SOL     OW59691   6.124   3.170  10.891
19265SOL    HW159692   6.179   3.132  10.822
19265SOL    HW259693   6.044   3.118  10.890
19266SOL     OW59694  13.664  12.182   3.422
19266SOL    HW159695  13.625  12.221   3.501
19266SOL    HW259696  13.759  12.185   3.439
19267SOL     OW59697  14.867   1.841  14.663
19267SOL    HW159698  14.819   1.915  14.625
19267SOL    HW259699   0.051   1.824  14.601
19268SOL     OW59700   7.277   3.301   0.513
19268SOL    HW159701   7.262   3.245   0.590
19268SOL    HW259702   7.208   3.276   0.452
19269SOL     OW59703   3.898  10.580   7.575
19269SOL    HW159704   3.827  10.536   7.527
19269SOL    HW259705   3.937  10.510   7.628
19270SOL     OW59706   4.682  13.203  11.742
19270SOL    HW159707   4.653  13.114  11.725
19270SOL    HW259708   4.689  13.207  11.838
19271SOL     OW59709   3.140   6.850  10.585
19271SOL    HW159710   3.230   6.880  10.588
19271SOL    HW259711   3.090   6.920  10.627
19272SOL     OW59712   3.723   7.952  10.635
19272SOL    HW159713   3.805   7.904  10.637
19272SOL    HW259714   3.680   7.931  10.718
19273SOL     OW59715   7.033  12.251   3.893
19273SOL    HW159716   7.053  12.169   3.848
19273SOL    HW259717   7.016  12.225   3.984
19274SOL     OW59718  12.966  10.363   6.872
19274SOL    HW159719  12.999  10.394   6.787
19274SOL    HW259720  12.873  10.385   6.870
19275SOL     OW59721  12.652  13.930   8.014
19275SOL    HW159722  12.628  13.909   7.923
19275SOL    HW259723  12.570  13.924   8.062
19276SOL     OW59724   7.488   6.485   3.499
19276SOL    HW159725   7.483   6.576   3.525
19276SOL    HW259726   7.404   6.468   3.455
19277SOL     OW59727   9.994  11.475  12.420
19277SOL    HW159728   9.999  11.460  12.326
19277SOL    HW259729  10.055  11.412  12.458
19278SOL     OW59730   7.046   9.410   1.170
19278SOL    HW159731   7.057   9.468   1.094
19278SOL    HW259732   7.065   9.464   1.246
19279SOL     OW59733   6.322   0.441   7.208
19279SOL    HW159734   6.389   0.465   7.273
19279SOL    HW259735   6.278   0.365   7.246
19280SOL     OW59736  14.820   7.885   5.745
19280SOL    HW159737  14.855   7.951   5.806
19280SOL    HW259738  14.882   7.813   5.749
19281SOL     OW59739  10.744  12.266   8.387
19281SOL    HW159740  10.808  12.333   8.362
19281SOL    HW259741  10.784  12.222   8.463
19282SOL     OW59742  12.622  14.837   6.949
19282SOL    HW159743  12.624  14.879   6.863
19282SOL    HW259744  12.693  14.773   6.946
19283SOL     OW59745   7.626  11.486   4.606
19283SOL    HW159746   7.609  11.479   4.512
19283SOL    HW259747   7.718  11.509   4.612
19284SOL     OW59748   4.450   3.476   2.531
19284SOL    HW159749   4.484   3.490   2.619
19284SOL    HW259750   4.495   3.397   2.501
19285SOL     OW59751  11.276  12.622   9.236
19285SOL    HW159752  11.222  12.546   9.215
19285SOL    HW259753  11.318  12.646   9.153
19286SOL     OW59754  12.259  11.609   8.657
19286SOL    HW159755  12.274  11.540   8.722
19286SOL    HW259756  12.253  11.562   8.574
19287SOL     OW59757   4.776   4.605   1.298
19287SOL    HW159758   4.769   4.700   1.289
19287SOL    HW259759   4.868   4.589   1.317
19288SOL     OW59760   9.466  10.583   3.097
19288SOL    HW159761   9.480  10.577   3.003
19288SOL    HW259762   9.423  10.667   3.110
19289SOL     OW59763   2.575   0.038  11.143
19289SOL    HW159764   2.556   0.041  11.237
19289SOL    HW259765   2.488   0.034  11.102
19290SOL     OW59766   0.274   8.168   3.969
19290SOL    HW159767   0.326   8.193   3.893
19290SOL    HW259768   0.294   8.076   3.983
19291SOL     OW59769   6.853  11.212  13.740
19291SOL    HW159770   6.947  11.205  13.729
19291SOL    HW259771   6.829  11.293  13.695
19292SOL     OW59772  11.094   5.227   3.272
19292SOL    HW159773  11.028   5.294   3.257
19292SOL    HW259774  11.079   5.162   3.203
19293SOL     OW59775  10.829   9.194   5.570
19293SOL    HW159776  10.761   9.142   5.613
19293SOL    HW259777  10.834   9.274   5.622
19294SOL     OW59778  13.361  11.459   9.907
19294SOL    HW159779  13.369  11.364   9.908
19294SOL    HW259780  13.422  11.490   9.973
19295SOL     OW59781   5.235   5.595   0.677
19295SOL    HW159782   5.282   5.639   0.606
19295SOL    HW259783   5.169   5.541   0.632
19296SOL     OW59784   6.927  10.836   2.252
19296SOL    HW159785   6.855  10.889   2.285
19296SOL    HW259786   6.939  10.867   2.162
19297SOL     OW59787   4.939   8.551  14.737
19297SOL    HW159788   4.902   8.607  14.806
19297SOL    HW259789   5.002   8.496  14.782
19298SOL     OW59790   0.954   3.277   8.013
19298SOL    HW159791   1.027   3.279   8.074
19298SOL    HW259792   0.991   3.311   7.931
19299SOL     OW59793  14.556   6.015   5.567
19299SOL    HW159794  14.510   6.074   5.508
19299SOL    HW259795  14.533   5.927   5.537
19300SOL     OW59796   4.056  13.900   8.854
19300SOL    HW159797   4.059  13.938   8.942
19300SOL    HW259798   4.145  13.871   8.837
19301SOL     OW59799  12.428   2.841   7.097
19301SOL    HW159800  12.347   2.792   7.102
19301SOL    HW259801  12.480   2.810   7.172
19302SOL     OW59802  11.728   3.239  13.536
19302SOL    HW159803  11.675   3.203  13.607
19302SOL    HW259804  11.728   3.333  13.551
19303SOL     OW59805   0.151  10.547  11.360
19303SOL    HW159806   0.213  10.600  11.309
19303SOL    HW259807   0.147  10.590  11.445
19304SOL     OW59808   3.660   8.584  12.903
19304SOL    HW159809   3.658   8.678  12.884
19304SOL    HW259810   3.631   8.543  12.822
19305SOL     OW59811   3.472  13.823  10.777
19305SOL    HW159812   3.438  13.796  10.863
19305SOL    HW259813   3.397  13.811  10.718
19306SOL     OW59814  13.137   3.359   8.850
19306SOL    HW159815  13.230   3.347   8.829
19306SOL    HW259816  13.132   3.446   8.888
19307SOL     OW59817   7.554   5.604   0.232
19307SOL    HW159818   7.505   5.537   0.278
19307SOL    HW259819   7.644   5.593   0.261
19308SOL     OW59820  13.368   8.948   6.957
19308SOL    HW159821  13.453   8.909   6.978
19308SOL    HW259822  13.330   8.889   6.891
19309SOL     OW59823   1.118  13.637   5.202
19309SOL    HW159824   1.163  13.612   5.282
19309SOL    HW259825   1.042  13.579   5.197
19310SOL     OW59826   9.169   2.452  11.708
19310SOL    HW159827   9.208   2.403  11.780
19310SOL    HW259828   9.207   2.539  11.715
19311SOL     OW59829   3.838   3.938   8.613
19311SOL    HW159830   3.754   3.931   8.658
19311SOL    HW259831   3.824   4.004   8.546
19312SOL     OW59832  12.533  14.358   7.439
19312SOL    HW159833  12.570  14.334   7.524
19312SOL    HW259834  12.582  14.435   7.412
19313SOL     OW59835  13.117   7.045   1.406
19313SOL    HW159836  13.189   7.073   1.462
19313SOL    HW259837  13.152   7.052   1.317
19314SOL     OW59838   4.643  11.361  12.650
19314SOL    HW159839   4.637  11.385  12.742
19314SOL    HW259840   4.573  11.296  12.638
19315SOL     OW59841   4.047   1.975   0.175
19315SOL    HW159842   4.035   2.034   0.101
19315SOL    HW259843   4.102   1.905   0.142
19316SOL     OW59844  10.857  14.124   5.591
19316SOL    HW159845  10.889  14.138   5.502
19316SOL    HW259846  10.886  14.036   5.614
19317SOL     OW59847   4.695   4.190   8.786
19317SOL    HW159848   4.682   4.100   8.756
19317SOL    HW259849   4.786   4.193   8.813
19318SOL     OW59850   5.872   9.157  13.250
19318SOL    HW159851   5.841   9.085  13.305
19318SOL    HW259852   5.873   9.233  13.308
19319SOL     OW59853   4.845   8.050   6.007
19319SOL    HW159854   4.889   8.128   5.971
19319SOL    HW259855   4.831   7.993   5.931
19320SOL     OW59856  13.974   0.459   9.506
19320SOL    HW159857  13.955   0.515   9.581
19320SOL    HW259858  13.959   0.370   9.538
19321SOL     OW59859   4.544  10.321  10.987
19321SOL    HW159860   4.493  10.241  10.977
19321SOL    HW259861   4.627  10.293  11.024
19322SOL     OW59862   2.024  11.930   2.597
19322SOL    HW159863   2.058  11.846   2.629
19322SOL    HW259864   2.036  11.990   2.670
19323SOL     OW59865   4.310  12.671  14.310
19323SOL    HW159866   4.304  12.765  14.297
19323SOL    HW259867   4.232  12.648  14.361
19324SOL     OW59868   9.306  10.040  14.195
19324SOL    HW159869   9.339  10.121  14.233
19324SOL    HW259870   9.292  10.062  14.102
19325SOL     OW59871   4.168   7.161   2.773
19325SOL    HW159872   4.163   7.236   2.833
19325SOL    HW259873   4.206   7.196   2.693
19326SOL     OW59874   9.080  13.628  12.573
19326SOL    HW159875   9.010  13.694  12.581
19326SOL    HW259876   9.141  13.666  12.510
19327SOL     OW59877  13.785  10.841   5.636
19327SOL    HW159878  13.860  10.831   5.577
19327SOL    HW259879  13.804  10.782   5.709
19328SOL     OW59880   8.917  10.375   9.625
19328SOL    HW159881   8.893  10.327   9.704
19328SOL    HW259882   8.845  10.436   9.611
19329SOL     OW59883   9.721   0.404  10.084
19329SOL    HW159884   9.720   0.470  10.154
19329SOL    HW259885   9.814   0.390  10.065
19330SOL     OW59886  10.613   1.903  13.420
19330SOL    HW159887  10.563   1.985  13.427
19330SOL    HW259888  10.574   1.857  13.346
19331SOL     OW59889   8.663   0.187   2.118
19331SOL    HW159890   8.689   0.276   2.140
19331SOL    HW259891   8.662   0.141   2.202
19332SOL     OW59892   3.589  13.869  13.545
19332SOL    HW159893   3.602  13.787  13.593
19332SOL    HW259894   3.514  13.851  13.487
19333SOL     OW59895   4.775   1.678  12.250
19333SOL    HW159896   4.775   1.595  12.298
19333SOL    HW259897   4.837   1.665  12.179
19334SOL     OW59898   9.586   1.575   5.469
19334SOL    HW159899   9.623   1.604   5.553
19334SOL    HW259900   9.492   1.587   5.479
19335SOL     OW59901  11.915   1.672   7.159
19335SOL    HW159902  11.867   1.747   7.192
19335SOL    HW259903  11.865   1.596   7.188
19336SOL     OW59904  10.675   1.554   7.991
19336SOL    HW159905  10.638   1.472   8.025
19336SOL    HW259906  10.633   1.623   8.042
19337SOL     OW59907  13.409  11.633   9.217
19337SOL    HW159908  13.344  11.562   9.223
19337SOL    HW259909  13.356  11.713   9.211
19338SOL     OW59910   4.698  11.862   7.585
19338SOL    HW159911   4.705  11.846   7.679
19338SOL    HW259912   4.618  11.914   7.576
19339SOL     OW59913   5.500  11.012   3.246
19339SOL    HW159914   5.425  10.964   3.212
19339SOL    HW259915   5.484  11.019   3.340
19340SOL     OW59916  14.324   3.503  12.531
19340SOL    HW159917  14.315   3.408  12.537
19340SOL    HW259918  14.239   3.537  12.560
19341SOL     OW59919   9.725  13.314   0.971
19341SOL    HW159920   9.768  13.287   0.890
19341SOL    HW259921   9.632  13.313   0.950
19342SOL     OW59922   0.970  14.654   0.855
19342SOL    HW159923   0.986  14.737   0.811
19342SOL    HW259924   1.056  14.613   0.862
19343SOL     OW59925  11.313   6.829   0.218
19343SOL    HW159926  11.271   6.900   0.265
19343SOL    HW259927  11.389   6.870   0.176
19344SOL     OW59928   5.389  11.496   2.424
19344SOL    HW159929   5.468  11.527   2.379
19344SOL    HW259930   5.396  11.531   2.513
19345SOL     OW59931   3.016   2.074   6.576
19345SOL    HW159932   3.090   2.081   6.637
19345SOL    HW259933   3.027   2.148   6.517
19346SOL     OW59934   0.688   0.803   3.970
19346SOL    HW159935   0.704   0.840   3.884
19346SOL    HW259936   0.774   0.773   4.000
19347SOL     OW59937   9.495   7.118   2.497
19347SOL    HW159938   9.480   7.161   2.581
19347SOL    HW259939   9.526   7.188   2.439
19348SOL     OW59940   4.948   5.053  13.676
19348SOL    HW159941   4.888   4.979  13.689
19348SOL    HW259942   5.015   5.018  13.617
19349SOL     OW59943   5.776   1.084   8.180
19349SOL    HW159944   5.771   1.071   8.274
19349SOL    HW259945   5.719   1.016   8.143
19350SOL     OW59946  14.035  10.086   1.558
19350SOL    HW159947  13.966  10.042   1.508
19350SOL    HW259948  14.036  10.040   1.642
19351SOL     OW59949  13.995   2.793   8.404
19351SOL    HW159950  14.031   2.827   8.322
19351SOL    HW259951  14.062   2.811   8.470
19352SOL     OW59952  14.133   5.060   3.957
19352SOL    HW159953  14.063   5.062   3.891
19352SOL    HW259954  14.143   5.152   3.984
19353SOL     OW59955   2.657   8.123   5.695
19353SOL    HW159956   2.660   8.100   5.602
19353SOL    HW259957   2.665   8.039   5.741
19354SOL     OW59958   1.700   6.252  13.064
19354SOL    HW159959   1.769   6.187  13.053
19354SOL    HW259960   1.739   6.318  13.122
19355SOL     OW59961  12.271  13.513   9.065
19355SOL    HW159962  12.271  13.439   9.003
19355SOL    HW259963  12.302  13.587   9.013
19356SOL     OW59964   3.015   5.019   5.670
19356SOL    HW159965   3.006   5.082   5.599
19356SOL    HW259966   3.032   4.935   5.626
19357SOL     OW59967   7.501   6.191   5.158
19357SOL    HW159968   7.435   6.260   5.171
19357SOL    HW259969   7.524   6.163   5.246
19358SOL     OW59970   2.092   0.792   6.174
19358SOL    HW159971   2.158   0.823   6.235
19358SOL    HW259972   2.048   0.720   6.220
19359SOL     OW59973   1.302  10.027   6.053
19359SOL    HW159974   1.387  10.072   6.057
19359SOL    HW259975   1.323   9.934   6.052
19360SOL     OW59976   7.363  14.485   7.781
19360SOL    HW159977   7.294  14.546   7.753
19360SOL    HW259978   7.326  14.442   7.859
19361SOL     OW59979   5.099   1.063  12.299
19361SOL    HW159980   5.109   1.154  12.273
19361SOL    HW259981   5.142   1.013  12.230
19362SOL     OW59982  12.878  10.020   9.427
19362SOL    HW159983  12.783  10.030   9.433
19362SOL    HW259984  12.901  10.058   9.343
19363SOL     OW59985  11.820   1.451   9.306
19363SOL    HW159986  11.736   1.495   9.295
19363SOL    HW259987  11.883   1.508   9.262
19364SOL     OW59988   5.423   7.039   9.801
19364SOL    HW159989   5.407   7.087   9.883
19364SOL    HW259990   5.336   7.007   9.775
19365SOL     OW59991  14.734   4.901   0.292
19365SOL    HW159992  14.716   4.946   0.374
19365SOL    HW259993  14.648   4.880   0.257
19366SOL     OW59994   9.797  10.209  13.620
19366SOL    HW159995   9.826  10.118  13.615
19366SOL    HW259996   9.878  10.260  13.623
19367SOL     OW59997  11.941   7.689   1.403
19367SOL    HW159998  11.953   7.679   1.308
19367SOL    HW259999  11.948   7.784   1.417
19368SOL     OW60000  14.342  14.259  13.153
19368SOL    HW160001  14.309  14.211  13.228
19368SOL    HW260002  14.287  14.337  13.149
19369SOL     OW60003  10.688   2.342   9.621
19369SOL    HW160004  10.614   2.399   9.603
19369SOL    HW260005  10.687   2.329   9.716
19370SOL     OW60006   6.277   2.619   8.207
19370SOL    HW160007   6.304   2.563   8.133
19370SOL    HW260008   6.194   2.581   8.236
19371SOL     OW60009   4.870  10.552   1.331
19371SOL    HW160010   4.802  10.535   1.266
19371SOL    HW260011   4.869  10.476   1.388
19372SOL     OW60012  14.058   2.898   8.703
19372SOL    HW160013  14.110   2.948   8.767
19372SOL    HW260014  14.012   2.964   8.653
19373SOL     OW60015   5.067  10.137  11.378
19373SOL    HW160016   5.101  10.215  11.336
19373SOL    HW260017   4.983  10.164  11.416
19374SOL     OW60018  12.199   9.316  10.433
19374SOL    HW160019  12.205   9.259  10.509
19374SOL    HW260020  12.279   9.298  10.383
19375SOL     OW60021   7.120   7.284   1.968
19375SOL    HW160022   7.183   7.257   1.902
19375SOL    HW260023   7.065   7.349   1.923
19376SOL     OW60024   0.431   5.621   1.729
19376SOL    HW160025   0.477   5.677   1.666
19376SOL    HW260026   0.480   5.630   1.810
19377SOL     OW60027   9.590   6.131   8.079
19377SOL    HW160028   9.555   6.042   8.075
19377SOL    HW260029   9.658   6.128   8.147
19378SOL     OW60030   5.719  14.434  14.411
19378SOL    HW160031   5.807  14.400  14.395
19378SOL    HW260032   5.734  14.516  14.458
19379SOL     OW60033   8.598   2.028   2.792
19379SOL    HW160034   8.614   2.121   2.805
19379SOL    HW260035   8.566   1.997   2.877
19380SOL     OW60036  10.895  14.413   1.341
19380SOL    HW160037  10.858  14.431   1.428
19380SOL    HW260038  10.978  14.461   1.340
19381SOL     OW60039   3.643  10.412   4.592
19381SOL    HW160040   3.734  10.397   4.617
19381SOL    HW260041   3.602  10.446   4.672
19382SOL     OW60042  11.957  13.212   6.210
19382SOL    HW160043  11.907  13.174   6.283
19382SOL    HW260044  11.927  13.164   6.133
19383SOL     OW60045   5.923   4.518  14.751
19383SOL    HW160046   5.996   4.468  14.788
19383SOL    HW260047   5.944   4.609  14.769
19384SOL     OW60048  12.683   1.129   6.303
19384SOL    HW160049  12.689   1.181   6.383
19384SOL    HW260050  12.624   1.057   6.325
19385SOL     OW60051  10.512   4.750   8.235
19385SOL    HW160052  10.417   4.748   8.228
19385SOL    HW260053  10.539   4.659   8.224
19386SOL     OW60054   6.078   4.972  10.815
19386SOL    HW160055   6.003   4.986  10.758
19386SOL    HW260056   6.052   4.901  10.873
19387SOL     OW60057   3.980   5.864   4.976
19387SOL    HW160058   3.909   5.892   4.919
19387SOL    HW260059   3.937   5.839   5.058
19388SOL     OW60060   5.013   4.747   9.547
19388SOL    HW160061   4.980   4.788   9.627
19388SOL    HW260062   4.935   4.720   9.499
19389SOL     OW60063   4.526   8.706   7.572
19389SOL    HW160064   4.448   8.650   7.579
19389SOL    HW260065   4.599   8.645   7.562
19390SOL     OW60066   6.607   1.949   8.222
19390SOL    HW160067   6.694   1.974   8.252
19390SOL    HW260068   6.547   1.996   8.280
19391SOL     OW60069   9.333   5.058   4.568
19391SOL    HW160070   9.311   5.063   4.661
19391SOL    HW260071   9.261   5.103   4.525
19392SOL     OW60072   2.398  10.731   4.943
19392SOL    HW160073   2.310  10.693   4.948
19392SOL    HW260074   2.456  10.656   4.932
19393SOL     OW60075   5.046  14.638   3.603
19393SOL    HW160076   5.131  14.629   3.560
19393SOL    HW260077   5.019  14.548   3.620
19394SOL     OW60078   7.463   8.997   9.439
19394SOL    HW160079   7.420   9.082   9.427
19394SOL    HW260080   7.396   8.942   9.479
19395SOL     OW60081   8.880  13.145   9.374
19395SOL    HW160082   8.848  13.075   9.317
19395SOL    HW260083   8.975  13.129   9.379
19396SOL     OW60084  12.343  14.262   0.336
19396SOL    HW160085  12.294  14.182   0.318
19396SOL    HW260086  12.288  14.311   0.397
19397SOL     OW60087   0.174  11.291   8.399
19397SOL    HW160088   0.213  11.378   8.393
19397SOL    HW260089   0.115  11.296   8.474
19398SOL     OW60090  11.139  10.853  10.932
19398SOL    HW160091  11.064  10.829  10.877
19398SOL    HW260092  11.181  10.770  10.953
19399SOL     OW60093   4.669   6.710  11.683
19399SOL    HW160094   4.732   6.642  11.661
19399SOL    HW260095   4.701   6.788  11.637
19400SOL     OW60096   1.434  11.327   5.061
19400SOL    HW160097   1.526  11.348   5.075
19400SOL    HW260098   1.405  11.291   5.145
19401SOL     OW60099   0.805   2.371   6.617
19401SOL    HW160100   0.792   2.466   6.622
19401SOL    HW260101   0.858   2.359   6.538
19402SOL     OW60102   7.092   9.086   5.298
19402SOL    HW160103   7.118   9.011   5.245
19402SOL    HW260104   7.171   9.110   5.347
19403SOL     OW60105   3.456  13.733   1.483
19403SOL    HW160106   3.434  13.823   1.508
19403SOL    HW260107   3.544  13.720   1.517
19404SOL     OW60108  14.474  13.012   4.325
19404SOL    HW160109  14.402  12.950   4.332
19404SOL    HW260110  14.548  12.969   4.368
19405SOL     OW60111   0.228  10.059   0.369
19405SOL    HW160112   0.248   9.972   0.332
19405SOL    HW260113   0.295  10.072   0.436
19406SOL     OW60114  14.543   1.336   9.299
19406SOL    HW160115  14.519   1.373   9.384
19406SOL    HW260116  14.483   1.262   9.287
19407SOL     OW60117  13.007   3.941   5.524
19407SOL    HW160118  12.948   3.897   5.464
19407SOL    HW260119  12.953   4.007   5.566
19408SOL     OW60120  13.475   5.811   3.075
19408SOL    HW160121  13.556   5.769   3.102
19408SOL    HW260122  13.432   5.835   3.157
19409SOL     OW60123  13.961   5.823   5.108
19409SOL    HW160124  13.966   5.845   5.201
19409SOL    HW260125  13.867   5.816   5.091
19410SOL     OW60126  13.312   1.546   0.170
19410SOL    HW160127  13.232   1.583   0.205
19410SOL    HW260128  13.362   1.621   0.137
19411SOL     OW60129   6.090   1.178  10.656
19411SOL    HW160130   6.070   1.084  10.651
19411SOL    HW260131   6.090   1.198  10.750
19412SOL     OW60132  12.717   3.488  13.633
19412SOL    HW160133  12.651   3.481  13.563
19412SOL    HW260134  12.668   3.468  13.713
19413SOL     OW60135   7.467   7.483   3.778
19413SOL    HW160136   7.446   7.470   3.870
19413SOL    HW260137   7.536   7.420   3.760
19414SOL     OW60138   6.633  14.146   9.721
19414SOL    HW160139   6.703  14.161   9.784
19414SOL    HW260140   6.618  14.052   9.723
19415SOL     OW60141   1.352   5.049   0.775
19415SOL    HW160142   1.348   4.999   0.693
19415SOL    HW260143   1.338   5.140   0.749
19416SOL     OW60144   6.914  10.442  11.380
19416SOL    HW160145   6.940  10.487  11.460
19416SOL    HW260146   6.888  10.513  11.320
19417SOL     OW60147   8.650   7.819   9.767
19417SOL    HW160148   8.584   7.865   9.819
19417SOL    HW260149   8.603   7.790   9.689
19418SOL     OW60150   4.627   8.090   4.552
19418SOL    HW160151   4.687   8.055   4.486
19418SOL    HW260152   4.542   8.052   4.530
19419SOL     OW60153   2.675   9.365  10.509
19419SOL    HW160154   2.712   9.424  10.445
19419SOL    HW260155   2.589   9.341  10.474
19420SOL     OW60156   2.673   4.111  13.893
19420SOL    HW160157   2.732   4.065  13.952
19420SOL    HW260158   2.642   4.186  13.943
19421SOL     OW60159   1.899  13.760   0.278
19421SOL    HW160160   1.942  13.765   0.192
19421SOL    HW260161   1.904  13.667   0.301
19422SOL     OW60162  12.745   3.029  14.587
19422SOL    HW160163  12.681   3.005  14.654
19422SOL    HW260164  12.783   2.945  14.559
19423SOL     OW60165  12.210   7.076   9.751
19423SOL    HW160166  12.191   7.084   9.845
19423SOL    HW260167  12.268   7.149   9.732
19424SOL     OW60168   0.223   1.173   4.683
19424SOL    HW160169   0.254   1.246   4.629
19424SOL    HW260170   0.182   1.113   4.621
19425SOL     OW60171  13.044   8.434   0.796
19425SOL    HW160172  12.964   8.475   0.830
19425SOL    HW260173  13.097   8.508   0.764
19426SOL     OW60174   0.874   8.507   6.496
19426SOL    HW160175   0.835   8.530   6.581
19426SOL    HW260176   0.843   8.576   6.437
19427SOL     OW60177  13.479  12.040   6.544
19427SOL    HW160178  13.392  12.006   6.526
19427SOL    HW260179  13.517  12.058   6.458
19428SOL     OW60180  10.145   9.034   5.418
19428SOL    HW160181  10.140   9.023   5.323
19428SOL    HW260182  10.067   8.990   5.451
19429SOL     OW60183  10.442   4.521   8.624
19429SOL    HW160184  10.502   4.578   8.672
19429SOL    HW260185  10.498   4.472   8.563
19430SOL     OW60186   6.138   5.558   2.513
19430SOL    HW160187   6.057   5.577   2.561
19430SOL    HW260188   6.197   5.522   2.580
19431SOL     OW60189   4.722   6.387   0.148
19431SOL    HW160190   4.684   6.438   0.220
19431SOL    HW260191   4.648   6.354   0.099
19432SOL     OW60192   7.398   0.643   2.623
19432SOL    HW160193   7.321   0.636   2.680
19432SOL    HW260194   7.451   0.713   2.662
19433SOL     OW60195   6.014  13.697  10.964
19433SOL    HW160196   6.074  13.760  10.924
19433SOL    HW260197   5.972  13.654  10.890
19434SOL     OW60198   9.930   9.776   4.095
19434SOL    HW160199   9.882   9.827   4.160
19434SOL    HW260200   9.905   9.814   4.011
19435SOL     OW60201   0.639   4.170   3.018
19435SOL    HW160202   0.583   4.233   3.062
19435SOL    HW260203   0.676   4.117   3.088
19436SOL     OW60204  12.418   4.601   3.729
19436SOL    HW160205  12.437   4.509   3.709
19436SOL    HW260206  12.329   4.600   3.764
19437SOL     OW60207  14.528   9.100  14.507
19437SOL    HW160208  14.488   9.186  14.505
19437SOL    HW260209  14.498   9.061  14.589
19438SOL     OW60210   5.228   9.692   7.803
19438SOL    HW160211   5.147   9.656   7.767
19438SOL    HW260212   5.296   9.666   7.740
19439SOL     OW60213   2.500  11.782   6.807
19439SOL    HW160214   2.440  11.751   6.875
19439SOL    HW260215   2.445  11.836   6.750
19440SOL     OW60216   7.572   5.879   0.332
19440SOL    HW160217   7.578   5.792   0.294
19440SOL    HW260218   7.645   5.884   0.393
19441SOL     OW60219   9.934   1.291   7.372
19441SOL    HW160220   9.926   1.215   7.315
19441SOL    HW260221  10.016   1.277   7.420
19442SOL     OW60222  10.219   2.450  13.315
19442SOL    HW160223  10.297   2.487  13.274
19442SOL    HW260224  10.153   2.519  13.307
19443SOL     OW60225  12.509  14.701   0.128
19443SOL    HW160226  12.456  14.631   0.089
19443SOL    HW260227  12.480  14.704   0.219
19444SOL     OW60228   8.993   4.618  12.236
19444SOL    HW160229   9.022   4.599  12.325
19444SOL    HW260230   8.956   4.536  12.204
19445SOL     OW60231   1.098   4.819  12.307
19445SOL    HW160232   1.088   4.726  12.330
19445SOL    HW260233   1.175   4.847  12.357
19446SOL     OW60234   4.309   3.457   5.619
19446SOL    HW160235   4.275   3.492   5.702
19446SOL    HW260236   4.346   3.534   5.574
19447SOL     OW60237   9.998   9.748   7.048
19447SOL    HW160238  10.025   9.745   7.140
19447SOL    HW260239   9.947   9.667   7.036
19448SOL     OW60240   0.150   5.330   0.119
19448SOL    HW160241   0.143   5.345   0.214
19448SOL    HW260242   0.209   5.254   0.112
19449SOL     OW60243  13.285   6.761  12.956
19449SOL    HW160244  13.192   6.785  12.960
19449SOL    HW260245  13.285   6.669  12.929
19450SOL     OW60246  14.488   6.830  11.156
19450SOL    HW160247  14.402   6.853  11.191
19450SOL    HW260248  14.537   6.796  11.231
19451SOL     OW60249  13.622   7.840   9.351
19451SOL    HW160250  13.617   7.783   9.274
19451SOL    HW260251  13.548   7.814   9.405
19452SOL     OW60252   8.798   9.444   1.134
19452SOL    HW160253   8.765   9.377   1.194
19452SOL    HW260254   8.768   9.526   1.172
19453SOL     OW60255   7.223   5.307   7.706
19453SOL    HW160256   7.290   5.375   7.704
19453SOL    HW260257   7.141   5.355   7.695
19454SOL     OW60258   7.827   6.802   2.250
19454SOL    HW160259   7.819   6.711   2.279
19454SOL    HW260260   7.813   6.854   2.330
19455SOL     OW60261   6.972  14.070  10.179
19455SOL    HW160262   6.939  14.075  10.269
19455SOL    HW260263   7.033  13.997  10.179
19456SOL     OW60264   5.833   5.934   4.299
19456SOL    HW160265   5.797   5.854   4.338
19456SOL    HW260266   5.898   5.964   4.363
19457SOL     OW60267   5.921   2.978   6.012
19457SOL    HW160268   5.994   3.025   6.052
19457SOL    HW260269   5.862   2.958   6.085
19458SOL     OW60270   6.554   5.786  10.002
19458SOL    HW160271   6.557   5.881   9.998
19458SOL    HW260272   6.597   5.757   9.922
19459SOL     OW60273  12.800   5.019   8.315
19459SOL    HW160274  12.811   4.975   8.399
19459SOL    HW260275  12.836   5.106   8.329
19460SOL     OW60276   4.314   1.430   0.858
19460SOL    HW160277   4.406   1.456   0.851
19460SOL    HW260278   4.278   1.445   0.771
19461SOL     OW60279   3.182  12.848   9.828
19461SOL    HW160280   3.212  12.922   9.776
19461SOL    HW260281   3.237  12.775   9.799
19462SOL     OW60282   1.843  14.678  14.732
19462SOL    HW160283   1.749  14.695  14.728
19462SOL    HW260284   1.851  14.584  14.714
19463SOL     OW60285  11.734   1.907  14.252
19463SOL    HW160286  11.687   1.969  14.197
19463SOL    HW260287  11.682   1.827  14.247
19464SOL     OW60288   7.448  10.172   6.693
19464SOL    HW160289   7.466  10.142   6.782
19464SOL    HW260290   7.507  10.120   6.638
19465SOL     OW60291  14.301  12.299   7.794
19465SOL    HW160292  14.331  12.226   7.739
19465SOL    HW260293  14.330  12.377   7.748
19466SOL     OW60294   4.958   8.777   3.440
19466SOL    HW160295   4.998   8.826   3.512
19466SOL    HW260296   4.993   8.688   3.449
19467SOL     OW60297  13.729  14.142   8.657
19467SOL    HW160298  13.771  14.217   8.615
19467SOL    HW260299  13.662  14.181   8.714
19468SOL     OW60300  14.347  13.774   7.117
19468SOL    HW160301  14.255  13.801   7.122
19468SOL    HW260302  14.381  13.790   7.205
19469SOL     OW60303   0.057  14.820   6.912
19469SOL    HW160304   0.045  14.730   6.942
19469SOL    HW260305   0.148  14.841   6.933
19470SOL     OW60306  11.738  10.473  10.258
19470SOL    HW160307  11.649  10.481  10.223
19470SOL    HW260308  11.764  10.383  10.237
19471SOL     OW60309   0.261  12.375  10.300
19471SOL    HW160310   0.208  12.339  10.371
19471SOL    HW260311   0.351  12.365  10.329
19472SOL     OW60312   8.851   8.783   0.536
19472SOL    HW160313   8.786   8.723   0.572
19472SOL    HW260314   8.905   8.808   0.612
19473SOL     OW60315   5.322  10.846  12.732
19473SOL    HW160316   5.246  10.905  12.729
19473SOL    HW260317   5.361  10.853  12.645
19474SOL     OW60318   7.729   0.717   7.373
19474SOL    HW160319   7.644   0.732   7.414
19474SOL    HW260320   7.767   0.805   7.364
19475SOL     OW60321   7.074   2.782   7.901
19475SOL    HW160322   7.018   2.720   7.948
19475SOL    HW260323   7.025   2.865   7.903
19476SOL     OW60324  13.332  11.310   3.586
19476SOL    HW160325  13.369  11.254   3.517
19476SOL    HW260326  13.257  11.261   3.618
19477SOL     OW60327  13.052  10.241   3.859
19477SOL    HW160328  13.046  10.145   3.864
19477SOL    HW260329  13.059  10.260   3.765
19478SOL     OW60330   7.277  12.853  12.200
19478SOL    HW160331   7.255  12.866  12.108
19478SOL    HW260332   7.367  12.820  12.199
19479SOL     OW60333   5.401  14.091   6.033
19479SOL    HW160334   5.384  14.003   6.068
19479SOL    HW260335   5.374  14.085   5.941
19480SOL     OW60336   6.782   1.457   9.285
19480SOL    HW160337   6.780   1.423   9.196
19480SOL    HW260338   6.758   1.383   9.340
19481SOL     OW60339  11.159   6.531  14.054
19481SOL    HW160340  11.117   6.507  14.136
19481SOL    HW260341  11.200   6.616  14.071
19482SOL     OW60342   8.503  13.651  13.315
19482SOL    HW160343   8.522  13.558  13.308
19482SOL    HW260344   8.554  13.680  13.391
19483SOL     OW60345   4.892  13.012   3.455
19483SOL    HW160346   4.884  13.053   3.369
19483SOL    HW260347   4.924  12.924   3.436
19484SOL     OW60348  10.291  13.146  12.092
19484SOL    HW160349  10.262  13.074  12.149
19484SOL    HW260350  10.372  13.176  12.132
19485SOL     OW60351   3.869  13.240  14.440
19485SOL    HW160352   3.861  13.291  14.359
19485SOL    HW260353   3.924  13.165  14.417
19486SOL     OW60354   0.579   5.956  10.126
19486SOL    HW160355   0.598   5.874  10.081
19486SOL    HW260356   0.604   6.024  10.063
19487SOL     OW60357   8.110   7.072   1.498
19487SOL    HW160358   8.187   7.101   1.449
19487SOL    HW260359   8.112   6.977   1.493
19488SOL     OW60360  12.842   7.571   6.579
19488SOL    HW160361  12.808   7.537   6.662
19488SOL    HW260362  12.782   7.642   6.557
19489SOL     OW60363   9.652   7.866   8.122
19489SOL    HW160364   9.695   7.781   8.124
19489SOL    HW260365   9.583   7.860   8.188
19490SOL     OW60366  13.947   8.378   7.545
19490SOL    HW160367  14.010   8.439   7.507
19490SOL    HW260368  13.866   8.393   7.496
19491SOL     OW60369   4.967   4.187   9.820
19491SOL    HW160370   4.945   4.246   9.892
19491SOL    HW260371   4.950   4.099   9.854
19492SOL     OW60372   2.255   3.194   5.595
19492SOL    HW160373   2.350   3.206   5.601
19492SOL    HW260374   2.220   3.283   5.590
19493SOL     OW60375   8.399   0.205  11.914
19493SOL    HW160376   8.422   0.136  11.976
19493SOL    HW260377   8.356   0.159  11.841
19494SOL     OW60378   5.047  10.520   9.367
19494SOL    HW160379   5.094  10.443   9.335
19494SOL    HW260380   5.015  10.563   9.288
19495SOL     OW60381   5.759   6.341   5.027
19495SOL    HW160382   5.802   6.257   5.042
19495SOL    HW260383   5.790   6.396   5.099
19496SOL     OW60384   8.293  11.476   2.818
19496SOL    HW160385   8.377  11.486   2.862
19496SOL    HW260386   8.286  11.552   2.761
19497SOL     OW60387   7.463   3.224   3.893
19497SOL    HW160388   7.478   3.203   3.801
19497SOL    HW260389   7.388   3.284   3.892
19498SOL     OW60390   9.612  13.272   8.232
19498SOL    HW160391   9.610  13.214   8.308
19498SOL    HW260392   9.551  13.233   8.170
19499SOL     OW60393   4.897   9.096   6.082
19499SOL    HW160394   4.943   9.083   6.165
19499SOL    HW260395   4.956   9.150   6.029
19500SOL     OW60396   6.989  13.967   4.743
19500SOL    HW160397   6.934  13.997   4.815
19500SOL    HW260398   7.059  14.032   4.737
19501SOL     OW60399   7.889   1.638   7.450
19501SOL    HW160400   7.804   1.651   7.491
19501SOL    HW260401   7.886   1.690   7.370
19502SOL     OW60402   0.390  12.102   9.830
19502SOL    HW160403   0.376  12.162   9.756
19502SOL    HW260404   0.312  12.047   9.831
19503SOL     OW60405   3.971   4.140  10.616
19503SOL    HW160406   3.876   4.126  10.619
19503SOL    HW260407   3.982   4.222  10.569
19504SOL     OW60408   6.860   2.017  10.474
19504SOL    HW160409   6.802   2.089  10.452
19504SOL    HW260410   6.948   2.054  10.469
19505SOL     OW60411   2.927   8.688  13.679
19505SOL    HW160412   3.019   8.664  13.681
19505SOL    HW260413   2.921   8.760  13.617
19506SOL     OW60414   6.519  13.267   4.060
19506SOL    HW160415   6.437  13.218   4.066
19506SOL    HW260416   6.547  13.278   4.151
19507SOL     OW60417   0.823   7.428   4.927
19507SOL    HW160418   0.829   7.343   4.970
19507SOL    HW260419   0.908   7.470   4.945
19508SOL     OW60420  10.471  10.924   2.919
19508SOL    HW160421  10.432  10.837   2.927
19508SOL    HW260422  10.396  10.984   2.921
19509SOL     OW60423   7.246   1.876   4.736
19509SOL    HW160424   7.337   1.853   4.717
19509SOL    HW260425   7.216   1.922   4.657
19510SOL     OW60426   4.491   5.815   0.996
19510SOL    HW160427   4.548   5.862   0.935
19510SOL    HW260428   4.551   5.757   1.044
19511SOL     OW60429   3.246  10.812  11.147
19511SOL    HW160430   3.168  10.779  11.191
19511SOL    HW260431   3.319  10.782  11.200
19512SOL     OW60432  11.518   3.257  11.474
19512SOL    HW160433  11.493   3.165  11.463
19512SOL    HW260434  11.602   3.254  11.519
19513SOL     OW60435  12.417   3.218   8.013
19513SOL    HW160436  12.427   3.291   7.951
19513SOL    HW260437  12.485   3.234   8.079
19514SOL     OW60438   4.877   2.739  13.404
19514SOL    HW160439   4.905   2.804  13.340
19514SOL    HW260440   4.949   2.735  13.468
19515SOL     OW60441  12.475   5.216   7.695
19515SOL    HW160442  12.471   5.135   7.745
19515SOL    HW260443  12.534   5.197   7.622
19516SOL     OW60444   1.632   9.381   4.656
19516SOL    HW160445   1.709   9.326   4.640
19516SOL    HW260446   1.659   9.469   4.631
19517SOL     OW60447  12.749  14.470  14.249
19517SOL    HW160448  12.742  14.544  14.310
19517SOL    HW260449  12.702  14.499  14.171
19518SOL     OW60450   3.303   1.442  10.930
19518SOL    HW160451   3.361   1.424  11.004
19518SOL    HW260452   3.229   1.382  10.942
19519SOL     OW60453   5.880   0.582   1.636
19519SOL    HW160454   5.875   0.675   1.614
19519SOL    HW260455   5.796   0.563   1.677
19520SOL     OW60456  13.583  12.608   0.051
19520SOL    HW160457  13.594  12.621   0.145
19520SOL    HW260458  13.579  12.696   0.015
19521SOL     OW60459   0.247   4.862   9.601
19521SOL    HW160460   0.332   4.904   9.590
19521SOL    HW260461   0.196   4.890   9.525
19522SOL     OW60462   8.411   3.623   6.108
19522SOL    HW160463   8.412   3.575   6.191
19522SOL    HW260464   8.487   3.681   6.113
19523SOL     OW60465  11.916  11.410   1.783
19523SOL    HW160466  11.965  11.331   1.761
19523SOL    HW260467  11.959  11.444   1.862
19524SOL     OW60468   4.421  13.966   6.419
19524SOL    HW160469   4.338  13.921   6.409
19524SOL    HW260470   4.404  14.055   6.389
19525SOL     OW60471  11.719   7.977   2.769
19525SOL    HW160472  11.810   8.004   2.770
19525SOL    HW260473  11.691   7.984   2.860
19526SOL     OW60474  10.262   3.221   3.414
19526SOL    HW160475  10.301   3.152   3.360
19526SOL    HW260476  10.254   3.296   3.354
19527SOL     OW60477   2.497   4.376   8.500
19527SOL    HW160478   2.530   4.432   8.429
19527SOL    HW260479   2.402   4.376   8.488
19528SOL     OW60480   4.116   7.788  11.895
19528SOL    HW160481   4.156   7.792  11.808
19528SOL    HW260482   4.031   7.747  11.881
19529SOL     OW60483   2.528   7.763  13.361
19529SOL    HW160484   2.516   7.672  13.388
19529SOL    HW260485   2.579   7.758  13.280
19530SOL     OW60486   5.676  12.921  11.079
19530SOL    HW160487   5.743  12.974  11.036
19530SOL    HW260488   5.622  12.888  11.008
19531SOL     OW60489   4.690   4.846  12.389
19531SOL    HW160490   4.720   4.806  12.470
19531SOL    HW260491   4.602   4.809  12.375
19532SOL     OW60492   2.360  13.322   4.960
19532SOL    HW160493   2.290  13.386   4.949
19532SOL    HW260494   2.366  13.309   5.055
19533SOL     OW60495   5.025   2.674   3.112
19533SOL    HW160496   5.055   2.708   3.028
19533SOL    HW260497   5.067   2.730   3.177
19534SOL     OW60498   7.527   0.858   2.709
19534SOL    HW160499   7.495   0.833   2.795
19534SOL    HW260500   7.526   0.954   2.710
19535SOL     OW60501   8.648  13.676  11.898
19535SOL    HW160502   8.705  13.727  11.841
19535SOL    HW260503   8.638  13.592  11.852
19536SOL     OW60504   6.772  11.095   2.046
19536SOL    HW160505   6.766  11.170   2.105
19536SOL    HW260506   6.698  11.106   1.986
19537SOL     OW60507   6.297   9.239   6.585
19537SOL    HW160508   6.234   9.215   6.517
19537SOL    HW260509   6.376   9.264   6.536
19538SOL     OW60510   4.664   1.867   4.898
19538SOL    HW160511   4.597   1.850   4.831
19538SOL    HW260512   4.708   1.783   4.909
19539SOL     OW60513   7.696  10.555   8.114
19539SOL    HW160514   7.701  10.581   8.022
19539SOL    HW260515   7.619  10.498   8.119
19540SOL     OW60516  10.888   1.422  10.953
19540SOL    HW160517  10.808   1.378  10.926
19540SOL    HW260518  10.937   1.436  10.873
19541SOL     OW60519   9.322   8.102   0.375
19541SOL    HW160520   9.410   8.113   0.339
19541SOL    HW260521   9.321   8.014   0.411
19542SOL     OW60522   9.579   2.220  14.350
19542SOL    HW160523   9.603   2.298  14.300
19542SOL    HW260524   9.484   2.218  14.350
19543SOL     OW60525   4.225  12.946   4.063
19543SOL    HW160526   4.299  12.893   4.034
19543SOL    HW260527   4.264  13.030   4.087
19544SOL     OW60528  11.783   3.925   4.281
19544SOL    HW160529  11.688   3.922   4.293
19544SOL    HW260530  11.815   3.985   4.349
19545SOL     OW60531  12.435   1.072   0.177
19545SOL    HW160532  12.398   0.983   0.175
19545SOL    HW260533  12.395   1.116   0.103
19546SOL     OW60534  14.163  12.098   9.408
19546SOL    HW160535  14.076  12.060   9.395
19546SOL    HW260536  14.209  12.034   9.461
19547SOL     OW60537   0.809   7.526  10.062
19547SOL    HW160538   0.897   7.493  10.044
19547SOL    HW260539   0.813   7.557  10.152
19548SOL     OW60540   7.768   3.747   3.287
19548SOL    HW160541   7.732   3.691   3.218
19548SOL    HW260542   7.816   3.814   3.240
19549SOL     OW60543  11.436  12.849   3.857
19549SOL    HW160544  11.468  12.935   3.886
19549SOL    HW260545  11.509  12.790   3.874
19550SOL     OW60546   1.524  10.946   4.884
19550SOL    HW160547   1.436  10.946   4.846
19550SOL    HW260548   1.580  10.913   4.814
19551SOL     OW60549   2.272   5.595   2.284
19551SOL    HW160550   2.212   5.532   2.244
19551SOL    HW260551   2.297   5.555   2.368
19552SOL     OW60552   2.354  10.829   8.042
19552SOL    HW160553   2.388  10.907   8.086
19552SOL    HW260554   2.431  10.784   8.008
19553SOL     OW60555   3.726  13.602  14.676
19553SOL    HW160556   3.799  13.646  14.719
19553SOL    HW260557   3.677  13.560  14.747
19554SOL     OW60558   2.307   8.576  13.183
19554SOL    HW160559   2.348   8.491  13.204
19554SOL    HW260560   2.307   8.623  13.267
19555SOL     OW60561  14.581   6.608  12.521
19555SOL    HW160562  14.652   6.584  12.581
19555SOL    HW260563  14.501   6.588  12.570
19556SOL     OW60564   4.574   2.979   1.190
19556SOL    HW160565   4.577   2.886   1.168
19556SOL    HW260566   4.484   2.994   1.218
19557SOL     OW60567  12.267  14.530   9.123
19557SOL    HW160568  12.193  14.590   9.113
19557SOL    HW260569  12.316  14.565   9.198
19558SOL     OW60570   2.102   8.685   6.575
19558SOL    HW160571   2.109   8.660   6.668
19558SOL    HW260572   2.189   8.670   6.540
19559SOL     OW60573   5.917   6.749   3.823
19559SOL    HW160574   5.906   6.797   3.906
19559SOL    HW260575   5.962   6.811   3.766
19560SOL     OW60576   1.036   0.970   7.311
19560SOL    HW160577   0.950   0.947   7.347
19560SOL    HW260578   1.020   1.051   7.263
19561SOL     OW60579   8.480   3.807  12.035
19561SOL    HW160580   8.473   3.736  11.972
19561SOL    HW260581   8.540   3.776  12.102
19562SOL     OW60582  11.662   2.489  11.098
19562SOL    HW160583  11.663   2.585  11.095
19562SOL    HW260584  11.640   2.468  11.189
19563SOL     OW60585  11.519   6.982  11.891
19563SOL    HW160586  11.434   6.948  11.919
19563SOL    HW260587  11.537   7.054  11.952
19564SOL     OW60588   1.390   1.370   3.920
19564SOL    HW160589   1.394   1.286   3.875
19564SOL    HW260590   1.364   1.348   4.010
19565SOL     OW60591   2.048   5.589   3.057
19565SOL    HW160592   2.046   5.638   2.975
19565SOL    HW260593   2.096   5.645   3.117
19566SOL     OW60594   2.617  12.895  10.459
19566SOL    HW160595   2.561  12.903  10.381
19566SOL    HW260596   2.706  12.885  10.423
19567SOL     OW60597   4.986  13.595  11.773
19567SOL    HW160598   5.029  13.525  11.724
19567SOL    HW260599   5.036  13.603  11.853
19568SOL     OW60600   8.161   4.558  13.856
19568SOL    HW160601   8.242   4.605  13.836
19568SOL    HW260602   8.161   4.549  13.951
19569SOL     OW60603   3.482   7.439  13.778
19569SOL    HW160604   3.571   7.412  13.754
19569SOL    HW260605   3.495   7.512  13.839
19570SOL     OW60606   9.708   4.303  14.042
19570SOL    HW160607   9.691   4.345  13.958
19570SOL    HW260608   9.622   4.298  14.084
19571SOL     OW60609   8.630   4.847   2.659
19571SOL    HW160610   8.558   4.896   2.698
19571SOL    HW260611   8.664   4.905   2.591
19572SOL     OW60612  13.466   2.263  10.543
19572SOL    HW160613  13.528   2.273  10.470
19572SOL    HW260614  13.477   2.172  10.571
19573SOL     OW60615   6.220   0.768   6.085
19573SOL    HW160616   6.157   0.736   6.020
19573SOL    HW260617   6.268   0.838   6.040
19574SOL     OW60618   0.157   2.909   7.269
19574SOL    HW160619   0.098   2.981   7.290
19574SOL    HW260620   0.139   2.843   7.336
19575SOL     OW60621  12.706  12.327   5.791
19575SOL    HW160622  12.642  12.376   5.739
19575SOL    HW260623  12.774  12.302   5.729
19576SOL     OW60624  11.476  12.594   7.796
19576SOL    HW160625  11.530  12.534   7.846
19576SOL    HW260626  11.452  12.546   7.717
19577SOL     OW60627   4.012   0.705   9.935
19577SOL    HW160628   4.017   0.784   9.989
19577SOL    HW260629   4.053   0.730   9.852
19578SOL     OW60630  11.734   2.405   3.079
19578SOL    HW160631  11.702   2.485   3.122
19578SOL    HW260632  11.751   2.345   3.151
19579SOL     OW60633  10.728  11.190  14.503
19579SOL    HW160634  10.737  11.252  14.575
19579SOL    HW260635  10.809  11.140  14.504
19580SOL     OW60636  14.703   2.907   3.558
19580SOL    HW160637  14.704   2.817   3.591
19580SOL    HW260638  14.673   2.959   3.633
19581SOL     OW60639  14.476   3.953   1.613
19581SOL    HW160640  14.487   3.918   1.701
19581SOL    HW260641  14.513   4.041   1.618
19582SOL     OW60642  11.733  10.094   8.488
19582SOL    HW160643  11.792  10.020   8.499
19582SOL    HW260644  11.749  10.126   8.399
19583SOL     OW60645   6.507  13.944   1.032
19583SOL    HW160646   6.556  13.863   1.045
19583SOL    HW260647   6.466  13.962   1.116
19584SOL     OW60648   4.708   0.874   1.683
19584SOL    HW160649   4.671   0.881   1.771
19584SOL    HW260650   4.681   0.787   1.652
19585SOL     OW60651   7.095   5.028   6.822
19585SOL    HW160652   7.074   5.078   6.743
19585SOL    HW260653   7.011   5.014   6.864
19586SOL     OW60654   3.657  13.781  11.767
19586SOL    HW160655   3.737  13.795  11.819
19586SOL    HW260656   3.603  13.857  11.786
19587SOL     OW60657   9.755   9.926   2.231
19587SOL    HW160658   9.730   9.927   2.324
19587SOL    HW260659   9.722  10.009   2.197
19588SOL     OW60660   3.323   8.335  14.346
19588SOL    HW160661   3.392   8.274  14.374
19588SOL    HW260662   3.247   8.310  14.398
19589SOL     OW60663  12.019   8.507   1.222
19589SOL    HW160664  11.979   8.549   1.146
19589SOL    HW260665  11.965   8.430   1.238
19590SOL     OW60666   3.362  11.193   5.175
19590SOL    HW160667   3.345  11.276   5.219
19590SOL    HW260668   3.395  11.135   5.243
19591SOL     OW60669   1.379  13.237  14.066
19591SOL    HW160670   1.417  13.224  13.979
19591SOL    HW260671   1.445  13.203  14.127
19592SOL     OW60672  14.690   5.941   5.281
19592SOL    HW160673  14.720   5.949   5.191
19592SOL    HW260674  14.665   6.030   5.306
19593SOL     OW60675  12.522   3.628   4.393
19593SOL    HW160676  12.439   3.585   4.415
19593SOL    HW260677  12.517   3.713   4.437
19594SOL     OW60678   9.169   1.572   3.210
19594SOL    HW160679   9.157   1.551   3.117
19594SOL    HW260680   9.086   1.612   3.236
19595SOL     OW60681   6.955   1.910   2.455
19595SOL    HW160682   6.970   1.856   2.533
19595SOL    HW260683   7.014   1.985   2.466
19596SOL     OW60684  14.553   9.938  14.321
19596SOL    HW160685  14.604   9.963  14.245
19596SOL    HW260686  14.467   9.978  14.307
19597SOL     OW60687   1.489   4.025   5.914
19597SOL    HW160688   1.427   3.967   5.870
19597SOL    HW260689   1.461   4.024   6.006
19598SOL     OW60690   7.330  13.202   8.879
19598SOL    HW160691   7.348  13.271   8.944
19598SOL    HW260692   7.341  13.120   8.926
19599SOL     OW60693  14.801  11.580   8.580
19599SOL    HW160694  14.710  11.603   8.599
19599SOL    HW260695  14.809  11.589   8.485
19600SOL     OW60696   9.329   5.859   4.864
19600SOL    HW160697   9.395   5.925   4.845
19600SOL    HW260698   9.247   5.907   4.870
19601SOL     OW60699   5.625  11.701  11.017
19601SOL    HW160700   5.681  11.731  10.945
19601SOL    HW260701   5.598  11.613  10.991
19602SOL     OW60702   9.266  12.768  11.414
19602SOL    HW160703   9.197  12.707  11.387
19602SOL    HW260704   9.266  12.763  11.510
19603SOL     OW60705  11.041   8.045   5.538
19603SOL    HW160706  11.064   8.085   5.622
19603SOL    HW260707  11.109   8.075   5.478
19604SOL     OW60708   1.191   5.314  12.213
19604SOL    HW160709   1.143   5.264  12.148
19604SOL    HW260710   1.180   5.405  12.185
19605SOL     OW60711   1.126   1.100   4.260
19605SOL    HW160712   1.040   1.126   4.227
19605SOL    HW260713   1.111   1.016   4.305
19606SOL     OW60714   4.152   6.817  12.201
19606SOL    HW160715   4.112   6.834  12.286
19606SOL    HW260716   4.230   6.873  12.199
19607SOL     OW60717   9.520   5.325   8.281
19607SOL    HW160718   9.452   5.286   8.226
19607SOL    HW260719   9.478   5.340   8.365
19608SOL     OW60720   8.525   7.003   8.513
19608SOL    HW160721   8.563   7.087   8.486
19608SOL    HW260722   8.578   6.937   8.469
19609SOL     OW60723  14.063   0.761   4.786
19609SOL    HW160724  14.033   0.727   4.871
19609SOL    HW260725  14.081   0.854   4.803
19610SOL     OW60726  11.780   2.363  14.552
19610SOL    HW160727  11.857   2.421  14.556
19610SOL    HW260728  11.741   2.370  14.639
19611SOL     OW60729   0.261   8.101  13.385
19611SOL    HW160730   0.343   8.094  13.335
19611SOL    HW260731   0.193   8.079  13.321
19612SOL     OW60732   1.436   9.560   1.643
19612SOL    HW160733   1.455   9.548   1.736
19612SOL    HW260734   1.522   9.562   1.601
19613SOL     OW60735   7.011   0.996  10.609
19613SOL    HW160736   7.050   0.937  10.544
19613SOL    HW260737   7.001   1.079  10.563
19614SOL     OW60738   9.727  10.477  10.881
19614SOL    HW160739   9.765  10.425  10.810
19614SOL    HW260740   9.633  10.469  10.870
19615SOL     OW60741   0.893   4.442   9.098
19615SOL    HW160742   0.893   4.537   9.108
19615SOL    HW260743   0.871   4.428   9.006
19616SOL     OW60744  12.584  14.572   3.806
19616SOL    HW160745  12.500  14.607   3.775
19616SOL    HW260746  12.626  14.538   3.727
19617SOL     OW60747   0.881  13.947   0.777
19617SOL    HW160748   0.959  14.001   0.765
19617SOL    HW260749   0.913  13.857   0.778
19618SOL     OW60750   1.321   4.436   9.395
19618SOL    HW160751   1.396   4.430   9.454
19618SOL    HW260752   1.246   4.442   9.454
19619SOL     OW60753   1.395  12.810   1.004
19619SOL    HW160754   1.321  12.847   1.052
19619SOL    HW260755   1.363  12.725   0.974
19620SOL     OW60756  10.323   6.496  10.020
19620SOL    HW160757  10.276   6.573   9.989
19620SOL    HW260758  10.393   6.483   9.956
19621SOL     OW60759   6.370   4.520  14.736
19621SOL    HW160760   6.289   4.492  14.780
19621SOL    HW260761   6.430   4.542  14.807
19622SOL     OW60762   7.337   7.445  11.818
19622SOL    HW160763   7.296   7.475  11.737
19622SOL    HW260764   7.263   7.419  11.874
19623SOL     OW60765   7.498  14.482   6.502
19623SOL    HW160766   7.450  14.422   6.446
19623SOL    HW260767   7.561  14.427   6.548
19624SOL     OW60768   4.066   1.243  11.099
19624SOL    HW160769   4.002   1.314  11.100
19624SOL    HW260770   4.060   1.205  11.187
19625SOL     OW60771   8.193  14.667   9.885
19625SOL    HW160772   8.169  14.728   9.955
19625SOL    HW260773   8.256  14.715   9.831
19626SOL     OW60774   7.681   4.432   3.094
19626SOL    HW160775   7.734   4.396   3.023
19626SOL    HW260776   7.615   4.486   3.050
19627SOL     OW60777  10.376  14.575   8.539
19627SOL    HW160778  10.434  14.539   8.473
19627SOL    HW260779  10.372  14.507   8.607
19628SOL     OW60780   2.217  11.928   4.161
19628SOL    HW160781   2.178  11.935   4.074
19628SOL    HW260782   2.164  11.862   4.206
19629SOL     OW60783   2.380   4.970  13.467
19629SOL    HW160784   2.396   4.928  13.382
19629SOL    HW260785   2.323   5.044  13.447
19630SOL     OW60786   5.952  10.496   4.581
19630SOL    HW160787   5.970  10.475   4.673
19630SOL    HW260788   5.858  10.480   4.571
19631SOL     OW60789   5.881   0.236   2.390
19631SOL    HW160790   5.896   0.243   2.484
19631SOL    HW260791   5.835   0.316   2.366
19632SOL     OW60792   2.566  13.499   3.293
19632SOL    HW160793   2.479  13.481   3.329
19632SOL    HW260794   2.601  13.569   3.348
19633SOL     OW60795   6.746  10.082   1.872
19633SOL    HW160796   6.699  10.003   1.845
19633SOL    HW260797   6.775  10.122   1.790
19634SOL     OW60798   1.994   1.845  12.640
19634SOL    HW160799   1.982   1.916  12.703
19634SOL    HW260800   2.077   1.805  12.664
19635SOL     OW60801   6.633   9.270  10.884
19635SOL    HW160802   6.603   9.322  10.959
19635SOL    HW260803   6.675   9.333  10.826
19636SOL     OW60804   1.613   6.446   0.860
19636SOL    HW160805   1.564   6.510   0.808
19636SOL    HW260806   1.546   6.399   0.909
19637SOL     OW60807   0.725  10.524   6.989
19637SOL    HW160808   0.715  10.489   7.077
19637SOL    HW260809   0.783  10.600   6.999
19638SOL     OW60810  11.807   0.929   0.658
19638SOL    HW160811  11.839   1.014   0.689
19638SOL    HW260812  11.824   0.931   0.564
19639SOL     OW60813  14.065   3.081   9.653
19639SOL    HW160814  14.094   3.110   9.567
19639SOL    HW260815  14.008   3.007   9.636
19640SOL     OW60816  10.196   7.030  12.877
19640SOL    HW160817  10.205   7.007  12.784
19640SOL    HW260818  10.231   6.954  12.924
19641SOL     OW60819   8.154   0.750   5.652
19641SOL    HW160820   8.101   0.689   5.703
19641SOL    HW260821   8.244   0.723   5.667
19642SOL     OW60822  12.219   2.408  13.181
19642SOL    HW160823  12.289   2.367  13.131
19642SOL    HW260824  12.265   2.457  13.250
19643SOL     OW60825   0.893   4.381   9.868
19643SOL    HW160826   0.846   4.324   9.928
19643SOL    HW260827   0.846   4.373   9.785
19644SOL     OW60828  11.711   7.427  14.132
19644SOL    HW160829  11.634   7.397  14.083
19644SOL    HW260830  11.730   7.513  14.096
19645SOL     OW60831  11.372  11.846   6.977
19645SOL    HW160832  11.355  11.790   7.052
19645SOL    HW260833  11.294  11.838   6.923
19646SOL     OW60834  13.438  14.494  10.343
19646SOL    HW160835  13.512  14.504  10.402
19646SOL    HW260836  13.404  14.583  10.331
19647SOL     OW60837  13.822  10.757  13.243
19647SOL    HW160838  13.805  10.825  13.308
19647SOL    HW260839  13.804  10.800  13.159
19648SOL     OW60840   7.382  11.535   2.178
19648SOL    HW160841   7.336  11.544   2.261
19648SOL    HW260842   7.459  11.591   2.187
19649SOL     OW60843   7.917   5.708   8.079
19649SOL    HW160844   7.905   5.762   8.157
19649SOL    HW260845   7.850   5.640   8.087
19650SOL     OW60846   1.923   3.232   9.067
19650SOL    HW160847   1.949   3.143   9.043
19650SOL    HW260848   1.910   3.277   8.984
19651SOL     OW60849  13.209  10.514   8.545
19651SOL    HW160850  13.302  10.505   8.564
19651SOL    HW260851  13.180  10.586   8.601
19652SOL     OW60852   7.290   7.789   4.583
19652SOL    HW160853   7.195   7.786   4.570
19652SOL    HW260854   7.327   7.747   4.505
19653SOL     OW60855   5.597  11.484  12.275
19653SOL    HW160856   5.546  11.524  12.204
19653SOL    HW260857   5.560  11.522  12.355
19654SOL     OW60858  12.156  10.927   9.641
19654SOL    HW160859  12.236  10.979   9.650
19654SOL    HW260860  12.112  10.964   9.565
19655SOL     OW60861  11.319  12.169   6.470
19655SOL    HW160862  11.253  12.110   6.505
19655SOL    HW260863  11.402  12.122   6.483
19656SOL     OW60864   6.940   2.687  13.050
19656SOL    HW160865   6.937   2.758  13.114
19656SOL    HW260866   6.997   2.621  13.090
19657SOL     OW60867  13.261  12.975   4.078
19657SOL    HW160868  13.319  13.049   4.058
19657SOL    HW260869  13.291  12.942   4.163
19658SOL     OW60870  13.611   4.373   1.366
19658SOL    HW160871  13.666   4.440   1.406
19658SOL    HW260872  13.528   4.380   1.413
19659SOL     OW60873   6.052  13.961   6.881
19659SOL    HW160874   6.107  13.904   6.827
19659SOL    HW260875   6.049  14.044   6.833
19660SOL     OW60876  12.073   1.000   1.085
19660SOL    HW160877  12.076   1.075   1.144
19660SOL    HW260878  12.026   0.932   1.134
19661SOL     OW60879   7.772   8.366   4.475
19661SOL    HW160880   7.684   8.376   4.438
19661SOL    HW260881   7.829   8.354   4.399
19662SOL     OW60882   1.102   7.805  13.928
19662SOL    HW160883   1.018   7.792  13.971
19662SOL    HW260884   1.095   7.758  13.845
19663SOL     OW60885  12.348   6.151  10.929
19663SOL    HW160886  12.264   6.111  10.907
19663SOL    HW260887  12.351   6.148  11.025
19664SOL     OW60888   7.352   1.546   2.636
19664SOL    HW160889   7.268   1.499   2.641
19664SOL    HW260890   7.350   1.591   2.552
19665SOL     OW60891   1.765   3.862  12.658
19665SOL    HW160892   1.824   3.866  12.582
19665SOL    HW260893   1.687   3.817  12.626
19666SOL     OW60894   1.985  10.920  14.207
19666SOL    HW160895   1.981  11.007  14.167
19666SOL    HW260896   1.897  10.905  14.241
19667SOL     OW60897   3.953   9.161   2.513
19667SOL    HW160898   4.006   9.209   2.450
19667SOL    HW260899   3.893   9.109   2.459
19668SOL     OW60900   7.089   9.618   7.525
19668SOL    HW160901   7.126   9.690   7.473
19668SOL    HW260902   7.148   9.544   7.508
19669SOL     OW60903   8.280   5.911   3.379
19669SOL    HW160904   8.283   5.929   3.285
19669SOL    HW260905   8.362   5.948   3.412
19670SOL     OW60906   6.478  10.459  12.718
19670SOL    HW160907   6.497  10.469  12.811
19670SOL    HW260908   6.394  10.504  12.705
19671SOL     OW60909   8.123   2.803   3.310
19671SOL    HW160910   8.035   2.772   3.289
19671SOL    HW260911   8.139   2.774   3.399
19672SOL     OW60912  14.763  12.980  13.424
19672SOL    HW160913  14.716  12.902  13.454
19672SOL    HW260914  14.744  13.046  13.491
19673SOL     OW60915   2.826  13.065   3.882
19673SOL    HW160916   2.751  13.117   3.910
19673SOL    HW260917   2.900  13.126   3.886
19674SOL     OW60918   3.777  10.551   6.543
19674SOL    HW160919   3.715  10.482   6.522
19674SOL    HW260920   3.728  10.632   6.528
19675SOL     OW60921   7.685  11.929   6.764
19675SOL    HW160922   7.743  11.853   6.764
19675SOL    HW260923   7.744  12.004   6.765
19676SOL     OW60924   8.332   3.109   3.686
19676SOL    HW160925   8.418   3.079   3.716
19676SOL    HW260926   8.292   3.030   3.648
19677SOL     OW60927  14.680   6.894   7.026
19677SOL    HW160928  14.687   6.836   6.951
19677SOL    HW260929  14.642   6.975   6.991
19678SOL     OW60930  10.317   5.264   3.759
19678SOL    HW160931  10.270   5.201   3.814
19678SOL    HW260932  10.409   5.237   3.765
19679SOL     OW60933   6.702   2.988   9.780
19679SOL    HW160934   6.795   3.008   9.771
19679SOL    HW260935   6.693   2.964   9.872
19680SOL     OW60936   2.974   2.212   0.208
19680SOL    HW160937   2.924   2.245   0.133
19680SOL    HW260938   2.911   2.158   0.255
19681SOL     OW60939   9.661   5.524   8.047
19681SOL    HW160940   9.622   5.482   8.123
19681SOL    HW260941   9.692   5.452   7.993
19682SOL     OW60942  14.010   7.984   4.137
19682SOL    HW160943  14.005   8.017   4.227
19682SOL    HW260944  14.067   8.047   4.092
19683SOL     OW60945   7.986   7.792  12.426
19683SOL    HW160946   7.980   7.805  12.332
19683SOL    HW260947   7.938   7.711  12.443
19684SOL     OW60948   0.997   0.698  11.669
19684SOL    HW160949   0.941   0.655  11.733
19684SOL    HW260950   0.993   0.641  11.592
19685SOL     OW60951   7.086   5.877   0.466
19685SOL    HW160952   7.181   5.881   0.458
19685SOL    HW260953   7.053   5.929   0.392
19686SOL     OW60954  10.385  12.449  10.414
19686SOL    HW160955  10.465  12.480  10.457
19686SOL    HW260956  10.414  12.422  10.327
19687SOL     OW60957   3.439   9.008   4.872
19687SOL    HW160958   3.454   9.101   4.854
19687SOL    HW260959   3.347   8.993   4.853
19688SOL     OW60960   3.031   7.876   0.745
19688SOL    HW160961   3.119   7.855   0.776
19688SOL    HW260962   2.989   7.791   0.732
19689SOL     OW60963   1.501  14.096   2.198
19689SOL    HW160964   1.409  14.121   2.206
19689SOL    HW260965   1.504  14.037   2.124
19690SOL     OW60966   6.331   6.689   9.042
19690SOL    HW160967   6.358   6.764   8.990
19690SOL    HW260968   6.244   6.713   9.076
19691SOL     OW60969  13.750   1.451  12.303
19691SOL    HW160970  13.801   1.406  12.235
19691SOL    HW260971  13.687   1.504  12.254
19692SOL     OW60972   5.334  14.841   9.847
19692SOL    HW160973   5.310   0.043   9.825
19692SOL    HW260974   5.350  14.799   9.762
19693SOL     OW60975   1.677   1.480   2.084
19693SOL    HW160976   1.733   1.415   2.127
19693SOL    HW260977   1.708   1.564   2.117
19694SOL     OW60978   2.520  11.028   8.134
19694SOL    HW160979   2.597  11.023   8.077
19694SOL    HW260980   2.520  11.118   8.166
19695SOL     OW60981  10.031   5.799   9.320
19695SOL    HW160982  10.114   5.811   9.276
19695SOL    HW260983   9.984   5.881   9.307
19696SOL     OW60984   1.883   7.287   1.186
19696SOL    HW160985   1.795   7.321   1.201
19696SOL    HW260986   1.911   7.256   1.272
19697SOL     OW60987   4.203   6.891   9.948
19697SOL    HW160988   4.175   6.809   9.907
19697SOL    HW260989   4.258   6.863  10.021
19698SOL     OW60990  11.129  11.588   7.771
19698SOL    HW160991  11.170  11.503   7.757
19698SOL    HW260992  11.171  11.646   7.706
19699SOL     OW60993   1.850   0.178  12.711
19699SOL    HW160994   1.779   0.209  12.766
19699SOL    HW260995   1.918   0.246  12.719
19700SOL     OW60996   3.790   9.013   6.912
19700SOL    HW160997   3.856   8.944   6.918
19700SOL    HW260998   3.754   9.005   6.823
19701SOL     OW60999   6.323   6.230  12.240
19701SOL    HW161000   6.366   6.145  12.250
19701SOL    HW261001   6.230   6.210  12.232
19702SOL     OW61002  11.673   0.227  12.828
19702SOL    HW161003  11.753   0.242  12.778
19702SOL    HW261004  11.691   0.264  12.914
19703SOL     OW61005  12.999   6.762  13.093
19703SOL    HW161006  13.001   6.753  13.188
19703SOL    HW261007  12.907   6.753  13.070
19704SOL     OW61008   0.188  11.446   8.079
19704SOL    HW161009   0.207  11.483   8.166
19704SOL    HW261010   0.272  11.415   8.048
19705SOL     OW61011   0.788   2.060   6.861
19705SOL    HW161012   0.861   2.112   6.827
19705SOL    HW261013   0.710   2.097   6.819
19706SOL     OW61014   2.327   6.276   5.363
19706SOL    HW161015   2.321   6.366   5.331
19706SOL    HW261016   2.313   6.221   5.286
19707SOL     OW61017  12.035   8.760   1.530
19707SOL    HW161018  12.080   8.695   1.475
19707SOL    HW261019  11.967   8.797   1.474
19708SOL     OW61020   5.247  13.466   6.791
19708SOL    HW161021   5.176  13.448   6.730
19708SOL    HW261022   5.218  13.430   6.874
19709SOL     OW61023  13.151  11.555  13.976
19709SOL    HW161024  13.161  11.460  13.969
19709SOL    HW261025  13.228  11.590  13.931
19710SOL     OW61026   7.410  13.671   2.382
19710SOL    HW161027   7.355  13.749   2.381
19710SOL    HW261028   7.496  13.701   2.353
19711SOL     OW61029  14.286   1.134   1.927
19711SOL    HW161030  14.263   1.219   1.964
19711SOL    HW261031  14.367   1.109   1.972
19712SOL     OW61032  13.855  12.383  12.777
19712SOL    HW161033  13.779  12.436  12.800
19712SOL    HW261034  13.927  12.446  12.768
19713SOL     OW61035   5.845  14.030   6.469
19713SOL    HW161036   5.941  14.033   6.474
19713SOL    HW261037   5.826  13.940   6.442
19714SOL     OW61038  10.667   7.870   6.127
19714SOL    HW161039  10.650   7.797   6.066
19714SOL    HW261040  10.585   7.920   6.127
19715SOL     OW61041   1.248  14.697   1.392
19715SOL    HW161042   1.265  14.708   1.486
19715SOL    HW261043   1.216  14.782   1.363
19716SOL     OW61044  12.931   3.343  13.731
19716SOL    HW161045  12.963   3.415  13.785
19716SOL    HW261046  12.876   3.385  13.665
19717SOL     OW61047   6.668  13.002  10.339
19717SOL    HW161048   6.591  13.037  10.294
19717SOL    HW261049   6.740  13.018  10.278
19718SOL     OW61050  12.376   7.355  10.597
19718SOL    HW161051  12.421   7.427  10.643
19718SOL    HW261052  12.440   7.323  10.534
19719SOL     OW61053   7.720  11.454  14.643
19719SOL    HW161054   7.815  11.464  14.648
19719SOL    HW261055   7.685  11.541  14.662
19720SOL     OW61056   7.111   2.162   5.002
19720SOL    HW161057   7.045   2.117   4.949
19720SOL    HW261058   7.194   2.122   4.975
19721SOL     OW61059   9.965  12.917   4.995
19721SOL    HW161060   9.988  12.909   5.088
19721SOL    HW261061  10.018  12.991   4.964
19722SOL     OW61062   0.174   0.731   7.100
19722SOL    HW161063   0.241   0.793   7.071
19722SOL    HW261064   0.159   0.675   7.024
19723SOL     OW61065  12.693   4.799  11.445
19723SOL    HW161066  12.640   4.737  11.394
19723SOL    HW261067  12.703   4.757  11.531
19724SOL     OW61068  11.940   3.591  12.422
19724SOL    HW161069  11.847   3.577  12.439
19724SOL    HW261070  11.984   3.558  12.501
19725SOL     OW61071   4.911  13.920   9.492
19725SOL    HW161072   4.907  13.847   9.555
19725SOL    HW261073   4.975  13.981   9.530
19726SOL     OW61074  12.764   0.090  14.347
19726SOL    HW161075  12.811   0.041  14.414
19726SOL    HW261076  12.794   0.181  14.358
19727SOL     OW61077  10.123   4.961   2.637
19727SOL    HW161078  10.127   5.041   2.584
19727SOL    HW261079  10.107   4.992   2.726
19728SOL     OW61080   1.856   5.145   8.749
19728SOL    HW161081   1.838   5.193   8.830
19728SOL    HW261082   1.809   5.062   8.761
19729SOL     OW61083   5.655   6.578   2.626
19729SOL    HW161084   5.580   6.634   2.644
19729SOL    HW261085   5.730   6.627   2.658
19730SOL     OW61086   0.489  12.605   8.946
19730SOL    HW161087   0.579  12.586   8.972
19730SOL    HW261088   0.478  12.698   8.966
19731SOL     OW61089   2.146  11.752   8.558
19731SOL    HW161090   2.093  11.816   8.511
19731SOL    HW261091   2.210  11.805   8.606
19732SOL     OW61092   2.681   6.840   4.659
19732SOL    HW161093   2.614   6.882   4.606
19732SOL    HW261094   2.647   6.752   4.677
19733SOL     OW61095   2.774   9.128   4.905
19733SOL    HW161096   2.769   9.117   5.000
19733SOL    HW261097   2.765   9.040   4.870
19734SOL     OW61098   8.997   4.769   9.033
19734SOL    HW161099   8.937   4.698   9.057
19734SOL    HW261100   9.004   4.822   9.112
19735SOL     OW61101   6.572  11.722  12.557
19735SOL    HW161102   6.524  11.760  12.484
19735SOL    HW261103   6.576  11.791  12.622
19736SOL     OW61104  14.150  12.521   3.422
19736SOL    HW161105  14.224  12.540   3.364
19736SOL    HW261106  14.074  12.516   3.363
19737SOL     OW61107   7.197   7.338   9.280
19737SOL    HW161108   7.252   7.368   9.352
19737SOL    HW261109   7.137   7.274   9.320
19738SOL     OW61110   9.689   7.599   3.791
19738SOL    HW161111   9.722   7.536   3.855
19738SOL    HW261112   9.764   7.618   3.735
19739SOL     OW61113   8.721   6.251  10.307
19739SOL    HW161114   8.697   6.326  10.253
19739SOL    HW261115   8.648   6.191  10.299
19740SOL     OW61116   5.180  14.586   1.964
19740SOL    HW161117   5.099  14.589   2.014
19740SOL    HW261118   5.248  14.604   2.028
19741SOL     OW61119   9.082  11.347  13.443
19741SOL    HW161120   8.993  11.332  13.409
19741SOL    HW261121   9.131  11.381  13.369
19742SOL     OW61122   9.161  14.025   9.520
19742SOL    HW161123   9.225  14.096   9.531
19742SOL    HW261124   9.109  14.052   9.444
19743SOL     OW61125   8.330   0.508   4.041
19743SOL    HW161126   8.342   0.439   4.106
19743SOL    HW261127   8.302   0.584   4.091
19744SOL     OW61128  14.165  10.121   6.545
19744SOL    HW161129  14.250  10.125   6.501
19744SOL    HW261130  14.156  10.030   6.572
19745SOL     OW61131   6.097   9.641   8.900
19745SOL    HW161132   6.062   9.596   8.977
19745SOL    HW261133   6.147   9.573   8.854
19746SOL     OW61134   9.101   8.109   6.670
19746SOL    HW161135   9.193   8.133   6.674
19746SOL    HW261136   9.055   8.192   6.658
19747SOL     OW61137  14.148  12.906   4.839
19747SOL    HW161138  14.138  13.001   4.850
19747SOL    HW261139  14.085  12.884   4.770
19748SOL     OW61140   8.653   1.263   5.675
19748SOL    HW161141   8.746   1.288   5.677
19748SOL    HW261142   8.607   1.345   5.696
19749SOL     OW61143   1.511   5.463   6.035
19749SOL    HW161144   1.532   5.436   6.124
19749SOL    HW261145   1.504   5.381   5.986
19750SOL     OW61146   9.120  12.244  10.416
19750SOL    HW161147   9.052  12.306  10.442
19750SOL    HW261148   9.200  12.277  10.458
19751SOL     OW61149  13.967   6.969   9.190
19751SOL    HW161150  14.040   6.980   9.128
19751SOL    HW261151  13.980   6.881   9.226
19752SOL     OW61152   9.781   8.605   8.419
19752SOL    HW161153   9.687   8.608   8.435
19752SOL    HW261154   9.820   8.609   8.507
19753SOL     OW61155   5.554   4.195  11.962
19753SOL    HW161156   5.603   4.277  11.949
19753SOL    HW261157   5.525   4.199  12.053
19754SOL     OW61158  13.793   0.851   7.933
19754SOL    HW161159  13.858   0.783   7.951
19754SOL    HW261160  13.773   0.842   7.840
19755SOL     OW61161   4.164   9.278   9.005
19755SOL    HW161162   4.152   9.372   9.010
19755SOL    HW261163   4.245   9.266   8.955
19756SOL     OW61164   8.712   6.253  10.581
19756SOL    HW161165   8.642   6.193  10.607
19756SOL    HW261166   8.715   6.247  10.486
19757SOL     OW61167   3.188  13.105   1.873
19757SOL    HW161168   3.096  13.118   1.897
19757SOL    HW261169   3.231  13.187   1.900
19758SOL     OW61170  11.727   3.912   1.623
19758SOL    HW161171  11.637   3.878   1.616
19758SOL    HW261172  11.776   3.866   1.555
19759SOL     OW61173   9.389  10.184  10.018
19759SOL    HW161174   9.357  10.272  10.041
19759SOL    HW261175   9.375  10.178   9.924
19760SOL     OW61176   1.262  10.119  10.870
19760SOL    HW161177   1.347  10.083  10.843
19760SOL    HW261178   1.277  10.213  10.876
19761SOL     OW61179  10.792   6.147   4.624
19761SOL    HW161180  10.743   6.091   4.684
19761SOL    HW261181  10.798   6.096   4.543
19762SOL     OW61182   5.813   5.713   0.267
19762SOL    HW161183   5.829   5.770   0.192
19762SOL    HW261184   5.898   5.706   0.310
19763SOL     OW61185  11.302   7.324   9.857
19763SOL    HW161186  11.309   7.373   9.775
19763SOL    HW261187  11.213   7.289   9.856
19764SOL     OW61188   0.734  14.116   0.210
19764SOL    HW161189   0.767  14.043   0.262
19764SOL    HW261190   0.771  14.102   0.122
19765SOL     OW61191   9.895  11.513   5.311
19765SOL    HW161192   9.961  11.445   5.304
19765SOL    HW261193   9.823  11.483   5.255
19766SOL     OW61194   0.476   0.665   2.265
19766SOL    HW161195   0.404   0.631   2.320
19766SOL    HW261196   0.538   0.592   2.260
19767SOL     OW61197   8.921  13.849  12.802
19767SOL    HW161198   8.888  13.905  12.732
19767SOL    HW261199   8.867  13.771  12.799
19768SOL     OW61200   8.520   4.165   3.384
19768SOL    HW161201   8.476   4.088   3.347
19768SOL    HW261202   8.613   4.143   3.381
19769SOL     OW61203   5.122  12.061  13.653
19769SOL    HW161204   5.152  12.044  13.564
19769SOL    HW261205   5.201  12.085  13.701
19770SOL     OW61206  14.548   7.746   7.728
19770SOL    HW161207  14.611   7.776   7.664
19770SOL    HW261208  14.463   7.761   7.687
19771SOL     OW61209   5.474  14.732   4.520
19771SOL    HW161210   5.561  14.768   4.499
19771SOL    HW261211   5.490  14.640   4.539
19772SOL     OW61212   3.980   0.440   0.322
19772SOL    HW161213   4.038   0.396   0.259
19772SOL    HW261214   3.975   0.379   0.396
19773SOL     OW61215   8.245   0.869   6.595
19773SOL    HW161216   8.277   0.942   6.648
19773SOL    HW261217   8.309   0.799   6.610
19774SOL     OW61218   0.301   7.337  13.682
19774SOL    HW161219   0.218   7.294  13.706
19774SOL    HW261220   0.274   7.417  13.637
19775SOL     OW61221   4.843   7.756   1.748
19775SOL    HW161222   4.848   7.730   1.840
19775SOL    HW261223   4.794   7.685   1.706
19776SOL     OW61224  11.119   9.858   8.738
19776SOL    HW161225  11.181   9.875   8.666
19776SOL    HW261226  11.080   9.773   8.716
19777SOL     OW61227  11.610   0.706   3.893
19777SOL    HW161228  11.568   0.630   3.853
19777SOL    HW261229  11.680   0.730   3.833
19778SOL     OW61230   1.608  12.956   7.620
19778SOL    HW161231   1.582  12.945   7.528
19778SOL    HW261232   1.701  12.933   7.621
19779SOL     OW61233   0.762  10.608   0.799
19779SOL    HW161234   0.726  10.571   0.719
19779SOL    HW261235   0.845  10.562   0.811
19780SOL     OW61236   2.192  14.306  14.643
19780SOL    HW161237   2.245  14.263  14.710
19780SOL    HW261238   2.117  14.248  14.629
19781SOL     OW61239   7.095   3.117   7.253
19781SOL    HW161240   7.078   3.189   7.313
19781SOL    HW261241   7.023   3.120   7.191
19782SOL     OW61242   9.770  12.227   0.489
19782SOL    HW161243   9.722  12.294   0.440
19782SOL    HW261244   9.835  12.276   0.539
19783SOL     OW61245   8.776  12.067  13.390
19783SOL    HW161246   8.742  12.122  13.460
19783SOL    HW261247   8.812  11.991  13.434
19784SOL     OW61248   1.484   6.575   5.840
19784SOL    HW161249   1.569   6.618   5.827
19784SOL    HW261250   1.484   6.549   5.933
19785SOL     OW61251   1.582   5.452   8.095
19785SOL    HW161252   1.487   5.459   8.102
19785SOL    HW261253   1.613   5.461   8.185
19786SOL     OW61254  10.692   9.280   6.681
19786SOL    HW161255  10.627   9.349   6.668
19786SOL    HW261256  10.745   9.310   6.754
19787SOL     OW61257   5.281  14.651  13.860
19787SOL    HW161258   5.292  14.600  13.941
19787SOL    HW261259   5.356  14.627  13.806
19788SOL     OW61260  13.605   9.389  13.725
19788SOL    HW161261  13.664   9.444  13.674
19788SOL    HW261262  13.552   9.343  13.660
19789SOL     OW61263  12.637   6.219   4.291
19789SOL    HW161264  12.597   6.249   4.210
19789SOL    HW261265  12.641   6.124   4.282
19790SOL     OW61266   5.532   6.334  12.210
19790SOL    HW161267   5.523   6.415  12.160
19790SOL    HW261268   5.458   6.280  12.183
19791SOL     OW61269   3.940   5.993   3.790
19791SOL    HW161270   3.860   5.979   3.840
19791SOL    HW261271   3.916   5.976   3.699
19792SOL     OW61272  11.384   1.974   5.627
19792SOL    HW161273  11.386   1.953   5.534
19792SOL    HW261274  11.336   2.056   5.632
19793SOL     OW61275   7.400  14.260  12.699
19793SOL    HW161276   7.330  14.322  12.680
19793SOL    HW261277   7.466  14.312  12.745
19794SOL     OW61278   4.113   6.790   8.882
19794SOL    HW161279   4.044   6.854   8.895
19794SOL    HW261280   4.189   6.827   8.929
19795SOL     OW61281  12.663  10.681   5.278
19795SOL    HW161282  12.732  10.685   5.345
19795SOL    HW261283  12.582  10.691   5.327
19796SOL     OW61284   0.321   1.096  14.773
19796SOL    HW161285   0.384   1.031  14.740
19796SOL    HW261286   0.253   1.099  14.706
19797SOL     OW61287   3.793   1.955  13.212
19797SOL    HW161288   3.822   2.034  13.256
19797SOL    HW261289   3.706   1.976  13.178
19798SOL     OW61290  14.549   0.252  13.234
19798SOL    HW161291  14.549   0.177  13.174
19798SOL    HW261292  14.484   0.230  13.300
19799SOL     OW61293  11.158   1.023   7.263
19799SOL    HW161294  11.069   0.988   7.263
19799SOL    HW261295  11.188   1.010   7.173
19800SOL     OW61296   8.347   1.554  11.976
19800SOL    HW161297   8.372   1.488  11.911
19800SOL    HW261298   8.385   1.636  11.943
19801SOL     OW61299   9.103   7.917  11.659
19801SOL    HW161300   9.175   7.981  11.655
19801SOL    HW261301   9.147   7.832  11.663
19802SOL     OW61302  13.612  10.712   4.868
19802SOL    HW161303  13.584  10.645   4.932
19802SOL    HW261304  13.698  10.682   4.839
19803SOL     OW61305  10.641   3.378  13.614
19803SOL    HW161306  10.600   3.304  13.568
19803SOL    HW261307  10.646   3.350  13.705
19804SOL     OW61308  11.312  13.176  13.992
19804SOL    HW161309  11.222  13.153  14.017
19804SOL    HW261310  11.335  13.113  13.925
19805SOL     OW61311   9.296   2.290  13.883
19805SOL    HW161312   9.295   2.385  13.894
19805SOL    HW261313   9.219   2.272  13.829
19806SOL     OW61314   7.549   1.649   9.951
19806SOL    HW161315   7.507   1.734   9.966
19806SOL    HW261316   7.481   1.595   9.912
19807SOL     OW61317   2.937   1.321   1.688
19807SOL    HW161318   2.892   1.237   1.696
19807SOL    HW261319   2.896   1.363   1.612
19808SOL     OW61320   5.425   5.542   2.810
19808SOL    HW161321   5.359   5.485   2.770
19808SOL    HW261322   5.435   5.509   2.899
19809SOL     OW61323  11.226   3.287   4.882
19809SOL    HW161324  11.248   3.218   4.945
19809SOL    HW261325  11.212   3.365   4.936
19810SOL     OW61326   2.768  12.838  10.025
19810SOL    HW161327   2.837  12.808   9.967
19810SOL    HW261328   2.705  12.881   9.967
19811SOL     OW61329  12.635   8.251   3.823
19811SOL    HW161330  12.704   8.185   3.823
19811SOL    HW261331  12.672   8.324   3.772
19812SOL     OW61332  12.343  11.356   1.711
19812SOL    HW161333  12.332  11.262   1.698
19812SOL    HW261334  12.436  11.371   1.694
19813SOL     OW61335  13.132  12.914   3.344
19813SOL    HW161336  13.180  12.971   3.284
19813SOL    HW261337  13.111  12.971   3.418
19814SOL     OW61338  14.087  10.309  10.334
19814SOL    HW161339  14.055  10.219  10.337
19814SOL    HW261340  14.182  10.301  10.324
19815SOL     OW61341   2.574   8.941  10.565
19815SOL    HW161342   2.562   9.029  10.601
19815SOL    HW261343   2.547   8.948  10.473
19816SOL     OW61344   4.234  10.030  10.443
19816SOL    HW161345   4.301  10.067  10.386
19816SOL    HW261346   4.151  10.046  10.397
19817SOL     OW61347   0.737   8.460   2.207
19817SOL    HW161348   0.643   8.474   2.219
19817SOL    HW261349   0.774   8.548   2.199
19818SOL     OW61350   2.074   1.162   5.518
19818SOL    HW161351   1.999   1.132   5.468
19818SOL    HW261352   2.134   1.198   5.453
19819SOL     OW61353   6.957   8.367   1.486
19819SOL    HW161354   6.875   8.385   1.532
19819SOL    HW261355   7.021   8.351   1.555
19820SOL     OW61356  13.843   5.081   6.602
19820SOL    HW161357  13.881   5.123   6.525
19820SOL    HW261358  13.765   5.036   6.568
19821SOL     OW61359   3.449  11.421   1.570
19821SOL    HW161360   3.539  11.453   1.579
19821SOL    HW261361   3.444  11.386   1.481
19822SOL     OW61362   5.777   4.631  12.633
19822SOL    HW161363   5.817   4.714  12.660
19822SOL    HW261364   5.684   4.643  12.647
19823SOL     OW61365   4.491  12.808   3.670
19823SOL    HW161366   4.518  12.806   3.578
19823SOL    HW261367   4.442  12.890   3.678
19824SOL     OW61368   4.680   3.807  10.669
19824SOL    HW161369   4.613   3.830  10.733
19824SOL    HW261370   4.679   3.879  10.606
19825SOL     OW61371  11.951   0.000   2.293
19825SOL    HW161372  12.008  14.872   2.217
19825SOL    HW261373  11.962   0.093   2.312
19826SOL     OW61374  12.080   8.465  11.977
19826SOL    HW161375  12.022   8.540  11.987
19826SOL    HW261376  12.123   8.479  11.893
19827SOL     OW61377   0.935  12.251   7.217
19827SOL    HW161378   0.908  12.209   7.135
19827SOL    HW261379   0.906  12.189   7.285
19828SOL     OW61380   1.503   3.693   1.719
19828SOL    HW161381   1.552   3.766   1.758
19828SOL    HW261382   1.537   3.686   1.629
19829SOL     OW61383   8.564   6.366   9.293
19829SOL    HW161384   8.582   6.434   9.358
19829SOL    HW261385   8.608   6.397   9.214
19830SOL     OW61386  14.623   0.325  13.523
19830SOL    HW161387  14.685   0.345  13.453
19830SOL    HW261388  14.633   0.398  13.585
19831SOL     OW61389  10.792   5.251   0.666
19831SOL    HW161390  10.716   5.211   0.625
19831SOL    HW261391  10.758   5.332   0.705
19832SOL     OW61392  14.441   7.756  11.169
19832SOL    HW161393  14.395   7.839  11.157
19832SOL    HW261394  14.534   7.779  11.170
19833SOL     OW61395   3.145   5.920   1.685
19833SOL    HW161396   3.062   5.927   1.639
19833SOL    HW261397   3.190   5.847   1.643
19834SOL     OW61398   8.889   6.453   4.393
19834SOL    HW161399   8.955   6.520   4.373
19834SOL    HW261400   8.924   6.407   4.469
19835SOL     OW61401   8.275  12.618   5.152
19835SOL    HW161402   8.341  12.616   5.221
19835SOL    HW261403   8.290  12.701   5.107
19836SOL     OW61404   2.453   7.025   7.423
19836SOL    HW161405   2.390   6.957   7.445
19836SOL    HW261406   2.516   7.024   7.495
19837SOL     OW61407   2.440  13.734  14.618
19837SOL    HW161408   2.394  13.744  14.702
19837SOL    HW261409   2.532  13.726  14.643
19838SOL     OW61410  10.406   0.878   5.477
19838SOL    HW161411  10.497   0.865   5.451
19838SOL    HW261412  10.409   0.951   5.540
19839SOL     OW61413  14.504  10.055   1.629
19839SOL    HW161414  14.515  10.040   1.723
19839SOL    HW261415  14.591  10.078   1.598
19840SOL     OW61416   0.439  10.010  12.516
19840SOL    HW161417   0.422  10.015  12.421
19840SOL    HW261418   0.520  10.060  12.528
19841SOL     OW61419   7.970   4.868   6.389
19841SOL    HW161420   8.007   4.956   6.396
19841SOL    HW261421   7.982   4.830   6.477
19842SOL     OW61422  11.036   1.151   9.559
19842SOL    HW161423  11.051   1.229   9.612
19842SOL    HW261424  11.124   1.118   9.540
19843SOL     OW61425   2.540  13.269  12.872
19843SOL    HW161426   2.500  13.324  12.939
19843SOL    HW261427   2.590  13.330  12.818
19844SOL     OW61428   5.563   1.429   2.511
19844SOL    HW161429   5.636   1.490   2.517
19844SOL    HW261430   5.598   1.346   2.545
19845SOL     OW61431  13.340  12.580   3.193
19845SOL    HW161432  13.330  12.495   3.149
19845SOL    HW261433  13.259  12.627   3.173
19846SOL     OW61434   4.148  12.313   3.137
19846SOL    HW161435   4.110  12.256   3.204
19846SOL    HW261436   4.220  12.262   3.101
19847SOL     OW61437  10.412   3.259   7.276
19847SOL    HW161438  10.337   3.287   7.224
19847SOL    HW261439  10.398   3.165   7.290
19848SOL     OW61440   5.170   3.620   0.214
19848SOL    HW161441   5.177   3.616   0.119
19848SOL    HW261442   5.114   3.546   0.238
19849SOL     OW61443   7.460  11.598   0.095
19849SOL    HW161444   7.533  11.557   0.141
19849SOL    HW261445   7.396  11.619   0.163
19850SOL     OW61446   0.393   7.890   9.990
19850SOL    HW161447   0.448   7.813  10.003
19850SOL    HW261448   0.365   7.885   9.899
19851SOL     OW61449   5.746  13.705   3.608
19851SOL    HW161450   5.695  13.647   3.552
19851SOL    HW261451   5.831  13.713   3.564
19852SOL     OW61452  12.473   0.126  12.935
19852SOL    HW161453  12.386   0.160  12.912
19852SOL    HW261454  12.480   0.045  12.885
19853SOL     OW61455   6.169   1.043  12.380
19853SOL    HW161456   6.120   1.052  12.298
19853SOL    HW261457   6.192   1.132  12.404
19854SOL     OW61458   1.916   6.636   2.447
19854SOL    HW161459   1.884   6.716   2.405
19854SOL    HW261460   1.984   6.603   2.387
19855SOL     OW61461   0.848  10.370   1.405
19855SOL    HW161462   0.846  10.454   1.359
19855SOL    HW261463   0.854  10.305   1.336
19856SOL     OW61464   9.142   1.738   0.556
19856SOL    HW161465   9.062   1.791   0.558
19856SOL    HW261466   9.155   1.718   0.463
19857SOL     OW61467   6.652   9.662   4.875
19857SOL    HW161468   6.568   9.673   4.830
19857SOL    HW261469   6.633   9.603   4.948
19858SOL     OW61470   6.625   2.982   7.834
19858SOL    HW161471   6.539   2.953   7.865
19858SOL    HW261472   6.609   3.016   7.746
19859SOL     OW61473   9.221   9.424   7.679
19859SOL    HW161474   9.226   9.496   7.741
19859SOL    HW261475   9.141   9.442   7.629
19860SOL     OW61476  12.054  12.165   4.693
19860SOL    HW161477  12.117  12.160   4.764
19860SOL    HW261478  12.068  12.252   4.655
19861SOL     OW61479   9.629   5.908   9.230
19861SOL    HW161480   9.655   5.927   9.321
19861SOL    HW261481   9.571   5.832   9.238
19862SOL     OW61482  10.228  11.011   5.594
19862SOL    HW161483  10.271  11.090   5.627
19862SOL    HW261484  10.200  11.034   5.505
19863SOL     OW61485  13.674   1.624   1.457
19863SOL    HW161486  13.731   1.663   1.522
19863SOL    HW261487  13.613   1.570   1.507
19864SOL     OW61488   1.497   3.603   4.091
19864SOL    HW161489   1.440   3.602   4.169
19864SOL    HW261490   1.440   3.633   4.020
19865SOL     OW61491   9.074   5.595  14.393
19865SOL    HW161492   9.130   5.597  14.471
19865SOL    HW261493   9.118   5.536  14.333
19866SOL     OW61494  10.122   2.207  13.242
19866SOL    HW161495  10.068   2.211  13.164
19866SOL    HW261496  10.153   2.297  13.254
19867SOL     OW61497   6.126   7.345   9.551
19867SOL    HW161498   6.045   7.348   9.500
19867SOL    HW261499   6.159   7.435   9.546
19868SOL     OW61500   8.865  11.387   5.215
19868SOL    HW161501   8.878  11.454   5.283
19868SOL    HW261502   8.774  11.398   5.188
19869SOL     OW61503  13.851   8.851   7.040
19869SOL    HW161504  13.850   8.807   7.125
19869SOL    HW261505  13.897   8.933   7.055
19870SOL     OW61506  11.739  12.771  12.048
19870SOL    HW161507  11.730  12.747  12.140
19870SOL    HW261508  11.790  12.700  12.009
19871SOL     OW61509  12.844   5.067  13.045
19871SOL    HW161510  12.798   5.021  13.115
19871SOL    HW261511  12.872   5.150  13.084
19872SOL     OW61512  12.085  14.237   0.991
19872SOL    HW161513  12.073  14.288   1.071
19872SOL    HW261514  12.107  14.302   0.925
19873SOL     OW61515   6.281   7.346   2.016
19873SOL    HW161516   6.312   7.258   2.036
19873SOL    HW261517   6.360   7.400   2.021
19874SOL     OW61518   5.614   0.086   0.783
19874SOL    HW161519   5.655   0.035   0.713
19874SOL    HW261520   5.550   0.141   0.738
19875SOL     OW61521   9.381   8.152   1.085
19875SOL    HW161522   9.411   8.187   1.169
19875SOL    HW261523   9.461   8.135   1.036
19876SOL     OW61524  12.702  10.821   5.048
19876SOL    HW161525  12.760  10.896   5.064
19876SOL    HW261526  12.708  10.769   5.128
19877SOL     OW61527   7.779  12.502   8.424
19877SOL    HW161528   7.869  12.536   8.424
19877SOL    HW261529   7.738  12.543   8.348
19878SOL     OW61530   0.333   8.725  12.250
19878SOL    HW161531   0.428   8.738  12.247
19878SOL    HW261532   0.299   8.775  12.176
19879SOL     OW61533   1.740   1.076  12.020
19879SOL    HW161534   1.779   0.989  12.027
19879SOL    HW261535   1.666   1.064  11.960
19880SOL     OW61536   1.867  11.769   0.383
19880SOL    HW161537   1.945  11.819   0.358
19880SOL    HW261538   1.817  11.759   0.302
19881SOL     OW61539   9.300   7.311  13.331
19881SOL    HW161540   9.370   7.357  13.377
19881SOL    HW261541   9.243   7.278  13.401
19882SOL     OW61542   7.309   3.677  10.680
19882SOL    HW161543   7.359   3.715  10.753
19882SOL    HW261544   7.350   3.592  10.665
19883SOL     OW61545   5.621   6.396   1.387
19883SOL    HW161546   5.660   6.326   1.438
19883SOL    HW261547   5.680   6.408   1.313
19884SOL     OW61548   2.949   7.892  13.502
19884SOL    HW161549   3.028   7.926  13.543
19884SOL    HW261550   2.957   7.918  13.410
19885SOL     OW61551   9.637  12.308   6.280
19885SOL    HW161552   9.666  12.227   6.239
19885SOL    HW261553   9.644  12.374   6.211
19886SOL     OW61554   5.875   8.772   5.427
19886SOL    HW161555   5.912   8.743   5.511
19886SOL    HW261556   5.878   8.867   5.431
19887SOL     OW61557   8.102   9.082   7.694
19887SOL    HW161558   8.096   9.024   7.618
19887SOL    HW261559   8.083   9.169   7.659
19888SOL     OW61560  10.895   9.757  14.126
19888SOL    HW161561  10.844   9.727  14.202
19888SOL    HW261562  10.901   9.680  14.070
19889SOL     OW61563  13.358  12.723   6.832
19889SOL    HW161564  13.380  12.805   6.876
19889SOL    HW261565  13.427  12.662   6.858
19890SOL     OW61566  11.717   7.335   6.049
19890SOL    HW161567  11.652   7.402   6.030
19890SOL    HW261568  11.795   7.363   6.000
19891SOL     OW61569   5.818   5.970   3.567
19891SOL    HW161570   5.837   6.000   3.478
19891SOL    HW261571   5.826   6.049   3.622
19892SOL     OW61572  14.048  11.800   6.452
19892SOL    HW161573  14.122  11.825   6.397
19892SOL    HW261574  13.982  11.867   6.435
19893SOL     OW61575   9.796  13.325   5.381
19893SOL    HW161576   9.860  13.395   5.367
19893SOL    HW261577   9.712  13.370   5.385
19894SOL     OW61578   8.936  11.416   0.986
19894SOL    HW161579   8.925  11.353   1.057
19894SOL    HW261580   8.852  11.414   0.939
19895SOL     OW61581   2.894   2.811  12.475
19895SOL    HW161582   2.921   2.846  12.389
19895SOL    HW261583   2.908   2.717  12.468
19896SOL     OW61584   0.004  12.959  14.158
19896SOL    HW161585  14.871  13.045  14.194
19896SOL    HW261586   0.091  12.939  14.193
19897SOL     OW61587   4.554   6.843   7.000
19897SOL    HW161588   4.628   6.784   7.017
19897SOL    HW261589   4.579   6.925   7.043
19898SOL     OW61590   7.175  12.977  14.293
19898SOL    HW161591   7.191  13.072  14.290
19898SOL    HW261592   7.257  12.941  14.329
19899SOL     OW61593  14.512   0.813   4.374
19899SOL    HW161594  14.552   0.732   4.404
19899SOL    HW261595  14.585   0.864   4.338
19900SOL     OW61596   6.163   5.206  13.936
19900SOL    HW161597   6.145   5.250  13.852
19900SOL    HW261598   6.108   5.252  13.999
19901SOL     OW61599   5.349   1.495  13.671
19901SOL    HW161600   5.296   1.569  13.700
19901SOL    HW261601   5.308   1.466  13.589
19902SOL     OW61602  14.560   3.678   5.021
19902SOL    HW161603  14.532   3.587   5.036
19902SOL    HW261604  14.482   3.730   5.042
19903SOL     OW61605   0.190  11.569   7.514
19903SOL    HW161606   0.232  11.559   7.599
19903SOL    HW261607   0.249  11.624   7.464
19904SOL     OW61608   1.157  12.540   1.124
19904SOL    HW161609   1.248  12.532   1.153
19904SOL    HW261610   1.117  12.598   1.189
19905SOL     OW61611   5.925   9.855  12.361
19905SOL    HW161612   5.834   9.854  12.390
19905SOL    HW261613   5.958   9.767  12.380
19906SOL     OW61614  13.580   2.909   9.433
19906SOL    HW161615  13.608   2.986   9.483
19906SOL    HW261616  13.488   2.923   9.415
19907SOL     OW61617   7.980   3.574  13.255
19907SOL    HW161618   7.924   3.587  13.332
19907SOL    HW261619   7.965   3.482  13.231
19908SOL     OW61620  13.096   7.685  10.858
19908SOL    HW161621  13.167   7.745  10.877
19908SOL    HW261622  13.134   7.598  10.868
19909SOL     OW61623  12.294   4.246   8.817
19909SOL    HW161624  12.213   4.297   8.824
19909SOL    HW261625  12.288   4.181   8.887
19910SOL     OW61626   8.041  11.746   2.803
19910SOL    HW161627   8.119  11.736   2.748
19910SOL    HW261628   7.978  11.684   2.766
19911SOL     OW61629   6.692   4.671  14.303
19911SOL    HW161630   6.661   4.594  14.351
19911SOL    HW261631   6.637   4.742  14.334
19912SOL     OW61632   8.907  14.452   4.980
19912SOL    HW161633   8.984  14.481   5.028
19912SOL    HW261634   8.875  14.530   4.935
19913SOL     OW61635  11.745   9.469   1.201
19913SOL    HW161636  11.770   9.553   1.162
19913SOL    HW261637  11.649   9.468   1.195
19914SOL     OW61638   8.664  13.466  11.746
19914SOL    HW161639   8.676  13.398  11.811
19914SOL    HW261640   8.727  13.445  11.677
19915SOL     OW61641   8.355  12.386   7.536
19915SOL    HW161642   8.435  12.415   7.581
19915SOL    HW261643   8.294  12.459   7.548
19916SOL     OW61644  10.574   2.459   4.628
19916SOL    HW161645  10.557   2.502   4.711
19916SOL    HW261646  10.592   2.530   4.567
19917SOL     OW61647  10.307   7.281  10.772
19917SOL    HW161648  10.236   7.326  10.817
19917SOL    HW261649  10.373   7.349  10.757
19918SOL     OW61650  13.970   5.149  10.007
19918SOL    HW161651  13.984   5.122  10.098
19918SOL    HW261652  13.883   5.116   9.985
19919SOL     OW61653   2.462   6.875   2.778
19919SOL    HW161654   2.398   6.831   2.722
19919SOL    HW261655   2.441   6.845   2.867
19920SOL     OW61656   8.035   0.527   9.222
19920SOL    HW161657   8.014   0.434   9.233
19920SOL    HW261658   8.127   0.528   9.198
19921SOL     OW61659   9.538  10.266   4.919
19921SOL    HW161660   9.470  10.318   4.876
19921SOL    HW261661   9.563  10.200   4.854
19922SOL     OW61662   5.131   5.509   3.683
19922SOL    HW161663   5.220   5.536   3.705
19922SOL    HW261664   5.114   5.550   3.598
19923SOL     OW61665  12.003   9.369   6.101
19923SOL    HW161666  11.987   9.285   6.143
19923SOL    HW261667  11.979   9.434   6.167
19924SOL     OW61668   2.900   2.295   4.480
19924SOL    HW161669   2.913   2.292   4.385
19924SOL    HW261670   2.807   2.275   4.492
19925SOL     OW61671   3.023  14.428   3.103
19925SOL    HW161672   3.085  14.470   3.044
19925SOL    HW261673   2.975  14.501   3.142
19926SOL     OW61674  12.030   3.364   6.200
19926SOL    HW161675  12.111   3.314   6.209
19926SOL    HW261676  12.026   3.387   6.107
19927SOL     OW61677   2.576   3.074  11.068
19927SOL    HW161678   2.600   3.141  11.004
19927SOL    HW261679   2.532   3.006  11.016
19928SOL     OW61680   7.092   6.879   5.602
19928SOL    HW161681   7.155   6.891   5.673
19928SOL    HW261682   7.013   6.926   5.631
19929SOL     OW61683   5.401   3.210  11.594
19929SOL    HW161684   5.318   3.237  11.554
19929SOL    HW261685   5.463   3.210  11.521
19930SOL     OW61686  10.640   1.796   3.000
19930SOL    HW161687  10.598   1.757   2.923
19930SOL    HW261688  10.666   1.883   2.971
19931SOL     OW61689   2.167   4.237   0.225
19931SOL    HW161690   2.135   4.181   0.296
19931SOL    HW261691   2.135   4.324   0.248
19932SOL     OW61692  11.550   2.571  14.730
19932SOL    HW161693  11.642   2.564  14.757
19932SOL    HW261694  11.514   2.640  14.786
19933SOL     OW61695  13.120   0.065   7.165
19933SOL    HW161696  13.057   0.038   7.232
19933SOL    HW261697  13.067   0.103   7.096
19934SOL     OW61698   0.954   9.753   7.580
19934SOL    HW161699   1.047   9.755   7.605
19934SOL    HW261700   0.938   9.838   7.540
19935SOL     OW61701  11.986  14.656  13.462
19935SOL    HW161702  12.051  14.592  13.432
19935SOL    HW261703  12.033  14.710  13.525
19936SOL     OW61704   2.297   4.429  14.194
19936SOL    HW161705   2.361   4.477  14.245
19936SOL    HW261706   2.272   4.489  14.124
19937SOL     OW61707  11.187   5.780   1.327
19937SOL    HW161708  11.265   5.818   1.288
19937SOL    HW261709  11.127   5.767   1.254
19938SOL     OW61710   5.037  13.998   4.745
19938SOL    HW161711   5.084  13.937   4.801
19938SOL    HW261712   5.048  13.963   4.657
19939SOL     OW61713   0.801   3.639  12.927
19939SOL    HW161714   0.765   3.552  12.943
19939SOL    HW261715   0.880   3.642  12.981
19940SOL     OW61716   1.067   8.019   8.134
19940SOL    HW161717   1.125   8.044   8.063
19940SOL    HW261718   1.044   7.928   8.116
19941SOL     OW61719   2.042   9.083  11.977
19941SOL    HW161720   2.045   9.136  11.898
19941SOL    HW261721   2.000   9.002  11.950
19942SOL     OW61722   7.125  12.880   7.340
19942SOL    HW161723   7.041  12.892   7.296
19942SOL    HW261724   7.165  12.967   7.339
19943SOL     OW61725  12.739   8.295  14.508
19943SOL    HW161726  12.745   8.306  14.413
19943SOL    HW261727  12.778   8.209  14.524
19944SOL     OW61728   8.899   8.191  13.875
19944SOL    HW161729   8.808   8.221  13.884
19944SOL    HW261730   8.950   8.272  13.868
19945SOL     OW61731  13.094  13.898  14.279
19945SOL    HW161732  13.109  13.804  14.285
19945SOL    HW261733  13.129  13.923  14.194
19946SOL     OW61734  10.583   5.495  13.121
19946SOL    HW161735  10.506   5.486  13.177
19946SOL    HW261736  10.657   5.489  13.181
19947SOL     OW61737   4.806   7.877   0.653
19947SOL    HW161738   4.775   7.963   0.625
19947SOL    HW261739   4.844   7.839   0.574
19948SOL     OW61740   2.042   8.198   8.438
19948SOL    HW161741   2.003   8.111   8.445
19948SOL    HW261742   2.131   8.182   8.406
19949SOL     OW61743   2.431   2.903  10.192
19949SOL    HW161744   2.474   2.960  10.129
19949SOL    HW261745   2.355   2.953  10.221
19950SOL     OW61746   9.329   4.768   5.916
19950SOL    HW161747   9.256   4.746   5.974
19950SOL    HW261748   9.299   4.847   5.870
19951SOL     OW61749   4.742  12.755   7.486
19951SOL    HW161750   4.837  12.753   7.473
19951SOL    HW261751   4.718  12.662   7.495
19952SOL     OW61752  11.986   3.350   8.255
19952SOL    HW161753  11.906   3.302   8.274
19952SOL    HW261754  11.956   3.438   8.231
19953SOL     OW61755   9.996   0.093   1.394
19953SOL    HW161756  10.072   0.039   1.416
19953SOL    HW261757   9.937   0.084   1.469
19954SOL     OW61758  13.853   3.894   3.536
19954SOL    HW161759  13.774   3.858   3.496
19954SOL    HW261760  13.844   3.875   3.629
19955SOL     OW61761   3.375   5.080   4.468
19955SOL    HW161762   3.342   5.163   4.434
19955SOL    HW261763   3.343   5.014   4.407
19956SOL     OW61764  14.571   6.157   2.412
19956SOL    HW161765  14.632   6.224   2.442
19956SOL    HW261766  14.503   6.154   2.479
19957SOL     OW61767  11.040   2.515   1.673
19957SOL    HW161768  11.021   2.544   1.584
19957SOL    HW261769  11.134   2.497   1.672
19958SOL     OW61770   1.193   0.597  13.010
19958SOL    HW161771   1.232   0.605  12.923
19958SOL    HW261772   1.137   0.675  13.018
19959SOL     OW61773   9.989  11.168   7.027
19959SOL    HW161774   9.968  11.231   7.096
19959SOL    HW261775  10.082  11.181   7.010
19960SOL     OW61776  14.381  10.916   1.378
19960SOL    HW161777  14.432  10.987   1.416
19960SOL    HW261778  14.324  10.887   1.449
19961SOL     OW61779   5.473   5.535   9.984
19961SOL    HW161780   5.551   5.529   9.929
19961SOL    HW261781   5.436   5.447   9.983
19962SOL     OW61782  12.658   4.372  12.758
19962SOL    HW161783  12.646   4.319  12.837
19962SOL    HW261784  12.643   4.311  12.686
19963SOL     OW61785   3.576   0.816   8.950
19963SOL    HW161786   3.538   0.780   8.869
19963SOL    HW261787   3.610   0.902   8.923
19964SOL     OW61788   7.880   0.646  11.617
19964SOL    HW161789   7.964   0.620  11.654
19964SOL    HW261790   7.889   0.739  11.597
19965SOL     OW61791   4.113   1.283   7.823
19965SOL    HW161792   4.018   1.270   7.827
19965SOL    HW261793   4.134   1.333   7.901
19966SOL     OW61794  10.120  10.987  11.785
19966SOL    HW161795  10.119  10.924  11.857
19966SOL    HW261796  10.162  11.064  11.822
19967SOL     OW61797   7.668   0.687   2.133
19967SOL    HW161798   7.608   0.745   2.180
19967SOL    HW261799   7.712   0.745   2.071
19968SOL     OW61800   3.319   4.979   6.902
19968SOL    HW161801   3.230   4.957   6.931
19968SOL    HW261802   3.367   4.896   6.909
19969SOL     OW61803   6.951   9.992  14.352
19969SOL    HW161804   6.895   9.923  14.388
19969SOL    HW261805   7.039   9.969  14.382
19970SOL     OW61806   0.975   3.361  14.744
19970SOL    HW161807   0.975   3.300  14.670
19970SOL    HW261808   0.883   3.365  14.770
19971SOL     OW61809  11.091   5.843   3.796
19971SOL    HW161810  11.097   5.768   3.856
19971SOL    HW261811  11.156   5.825   3.728
19972SOL     OW61812  12.378  13.207   5.706
19972SOL    HW161813  12.400  13.124   5.665
19972SOL    HW261814  12.387  13.272   5.637
19973SOL     OW61815   5.905   0.087  12.133
19973SOL    HW161816   5.902   0.166  12.188
19973SOL    HW261817   5.893   0.015  12.195
19974SOL     OW61818  14.092   6.733  11.060
19974SOL    HW161819  14.000   6.713  11.074
19974SOL    HW261820  14.139   6.660  11.101
19975SOL     OW61821   1.851   7.450  14.161
19975SOL    HW161822   1.823   7.392  14.090
19975SOL    HW261823   1.935   7.414  14.189
19976SOL     OW61824   4.615  11.230   6.050
19976SOL    HW161825   4.636  11.142   6.081
19976SOL    HW261826   4.521  11.227   6.031
19977SOL     OW61827  12.948   0.096   3.485
19977SOL    HW161828  12.923   0.104   3.393
19977SOL    HW261829  12.996   0.177   3.503
19978SOL     OW61830   6.226   7.312  13.353
19978SOL    HW161831   6.270   7.236  13.392
19978SOL    HW261832   6.289   7.346  13.290
19979SOL     OW61833  12.837  10.175  12.415
19979SOL    HW161834  12.781  10.138  12.346
19979SOL    HW261835  12.924  10.142  12.396
19980SOL     OW61836   8.011   0.609   2.237
19980SOL    HW161837   7.976   0.615   2.148
19980SOL    HW261838   7.944   0.563   2.287
19981SOL     OW61839   0.470  12.714   5.089
19981SOL    HW161840   0.554  12.742   5.052
19981SOL    HW261841   0.492  12.640   5.145
19982SOL     OW61842   6.782  11.013   2.426
19982SOL    HW161843   6.784  10.958   2.505
19982SOL    HW261844   6.698  11.059   2.430
19983SOL     OW61845  11.989   4.161  11.086
19983SOL    HW161846  12.054   4.164  11.016
19983SOL    HW261847  11.920   4.221  11.057
19984SOL     OW61848  10.307   2.400   5.374
19984SOL    HW161849  10.242   2.459   5.410
19984SOL    HW261850  10.387   2.417   5.424
19985SOL     OW61851  11.401   9.797  14.076
19985SOL    HW161852  11.332   9.862  14.089
19985SOL    HW261853  11.381   9.759  13.991
19986SOL     OW61854   6.190   5.658   4.367
19986SOL    HW161855   6.255   5.661   4.296
19986SOL    HW261856   6.239   5.682   4.446
19987SOL     OW61857   1.549   8.530   6.376
19987SOL    HW161858   1.591   8.489   6.300
19987SOL    HW261859   1.591   8.616   6.382
19988SOL     OW61860   3.072   8.481   9.236
19988SOL    HW161861   3.040   8.466   9.147
19988SOL    HW261862   3.004   8.535   9.277
19989SOL     OW61863   3.283   4.444   5.099
19989SOL    HW161864   3.261   4.465   5.009
19989SOL    HW261865   3.356   4.382   5.092
19990SOL     OW61866  12.053   4.732   0.124
19990SOL    HW161867  12.019   4.747   0.036
19990SOL    HW261868  12.036   4.814   0.171
19991SOL     OW61869   1.039   1.323   0.692
19991SOL    HW161870   0.948   1.306   0.719
19991SOL    HW261871   1.071   1.386   0.756
19992SOL     OW61872   5.158  14.678   5.935
19992SOL    HW161873   5.218  14.611   5.967
19992SOL    HW261874   5.079  14.667   5.988
19993SOL     OW61875  12.976  11.742   8.131
19993SOL    HW161876  13.042  11.809   8.113
19993SOL    HW261877  13.027  11.662   8.146
19994SOL     OW61878   8.074   0.265   3.814
19994SOL    HW161879   7.986   0.229   3.801
19994SOL    HW261880   8.118   0.200   3.869
19995SOL     OW61881  11.044   9.036   4.743
19995SOL    HW161882  11.083   8.964   4.793
19995SOL    HW261883  11.006   9.093   4.809
19996SOL     OW61884   1.737   2.257   7.316
19996SOL    HW161885   1.719   2.195   7.387
19996SOL    HW261886   1.831   2.252   7.302
19997SOL     OW61887   1.787   4.666  12.832
19997SOL    HW161888   1.747   4.594  12.783
19997SOL    HW261889   1.771   4.645  12.924
19998SOL     OW61890   8.627   7.906   2.519
19998SOL    HW161891   8.620   7.939   2.430
19998SOL    HW261892   8.703   7.951   2.555
19999SOL     OW61893   6.821   6.418   8.147
19999SOL    HW161894   6.823   6.496   8.093
19999SOL    HW261895   6.742   6.428   8.201
20000SOL     OW61896  13.923  13.590   5.437
20000SOL    HW161897  13.954  13.528   5.504
20000SOL    HW261898  13.892  13.534   5.366
20001SOL     OW61899  11.055   5.737   1.979
20001SOL    HW161900  11.097   5.707   2.060
20001SOL    HW261901  10.993   5.805   2.008
20002SOL     OW61902   8.146   2.495   8.273
20002SOL    HW161903   8.054   2.499   8.297
20002SOL    HW261904   8.193   2.526   8.351
20003SOL     OW61905   5.414  12.655  14.262
20003SOL    HW161906   5.417  12.681  14.354
20003SOL    HW261907   5.503  12.669  14.230
20004SOL     OW61908   3.579   1.939   8.440
20004SOL    HW161909   3.494   1.931   8.397
20004SOL    HW261910   3.616   1.851   8.436
20005SOL     OW61911   4.670   5.937  11.086
20005SOL    HW161912   4.713   6.022  11.088
20005SOL    HW261913   4.579   5.955  11.064
20006SOL     OW61914   3.919  13.332   7.641
20006SOL    HW161915   3.958  13.360   7.725
20006SOL    HW261916   3.986  13.277   7.601
20007SOL     OW61917  12.726   5.022   4.038
20007SOL    HW161918  12.771   4.949   3.996
20007SOL    HW261919  12.685   5.071   3.967
20008SOL     OW61920  11.933   2.626   4.827
20008SOL    HW161921  11.853   2.581   4.854
20008SOL    HW261922  11.907   2.718   4.818
20009SOL     OW61923   0.246   2.665  13.457
20009SOL    HW161924   0.243   2.756  13.487
20009SOL    HW261925   0.284   2.617  13.531
20010SOL     OW61926   2.794   9.634   9.932
20010SOL    HW161927   2.873   9.683   9.909
20010SOL    HW261928   2.749   9.690   9.995
20011SOL     OW61929   6.146   1.671   2.426
20011SOL    HW161930   6.095   1.701   2.350
20011SOL    HW261931   6.086   1.680   2.500
20012SOL     OW61932  11.446   6.050  14.081
20012SOL    HW161933  11.476   6.025  14.169
20012SOL    HW261934  11.372   6.109  14.096
20013SOL     OW61935  10.033   2.540   4.691
20013SOL    HW161936   9.992   2.586   4.618
20013SOL    HW261937   9.966   2.479   4.721
20014SOL     OW61938  14.626   2.463  10.484
20014SOL    HW161939  14.683   2.428  10.415
20014SOL    HW261940  14.545   2.413  10.476
20015SOL     OW61941   9.313   6.339  10.039
20015SOL    HW161942   9.369   6.376   9.972
20015SOL    HW261943   9.333   6.245  10.039
20016SOL     OW61944   9.351  13.973   8.555
20016SOL    HW161945   9.396  14.056   8.540
20016SOL    HW261946   9.385  13.941   8.638
20017SOL     OW61947   6.821  13.308   4.458
20017SOL    HW161948   6.794  13.370   4.525
20017SOL    HW261949   6.879  13.247   4.504
20018SOL     OW61950   9.503   5.501   4.445
20018SOL    HW161951   9.520   5.581   4.495
20018SOL    HW261952   9.513   5.527   4.354
20019SOL     OW61953   2.390   7.885   5.803
20019SOL    HW161954   2.382   7.791   5.819
20019SOL    HW261955   2.395   7.924   5.890
20020SOL     OW61956   1.607   4.895  11.417
20020SOL    HW161957   1.599   4.869  11.508
20020SOL    HW261958   1.528   4.861  11.375
20021SOL     OW61959  13.968   5.067  11.092
20021SOL    HW161960  14.004   4.994  11.143
20021SOL    HW261961  13.899   5.027  11.039
20022SOL     OW61962  12.343  10.542   7.274
20022SOL    HW161963  12.374  10.492   7.199
20022SOL    HW261964  12.380  10.498   7.350
20023SOL     OW61965  12.550   7.408   5.916
20023SOL    HW161966  12.537   7.315   5.933
20023SOL    HW261967  12.629   7.431   5.965
20024SOL     OW61968   3.075  14.850   9.565
20024SOL    HW161969   3.135   0.037   9.562
20024SOL    HW261970   3.041  14.850   9.655
20025SOL     OW61971   8.732   5.506  11.890
20025SOL    HW161972   8.790   5.580  11.869
20025SOL    HW261973   8.666   5.543  11.949
20026SOL     OW61974   9.617   5.475   0.662
20026SOL    HW161975   9.623   5.570   0.668
20026SOL    HW261976   9.600   5.447   0.752
20027SOL     OW61977   8.894   0.492   1.575
20027SOL    HW161978   8.911   0.580   1.609
20027SOL    HW261979   8.801   0.492   1.554
20028SOL     OW61980   2.647   6.715   3.933
20028SOL    HW161981   2.678   6.763   3.856
20028SOL    HW261982   2.579   6.772   3.970
20029SOL     OW61983   9.608   3.527   1.165
20029SOL    HW161984   9.579   3.591   1.230
20029SOL    HW261985   9.680   3.480   1.208
20030SOL     OW61986  11.774   0.689   6.482
20030SOL    HW161987  11.823   0.612   6.512
20030SOL    HW261988  11.832   0.731   6.418
20031SOL     OW61989  10.436   7.110   2.720
20031SOL    HW161990  10.395   7.051   2.782
20031SOL    HW261991  10.366   7.131   2.657
20032SOL     OW61992   0.051  11.436   4.735
20032SOL    HW161993  14.859  11.432   4.788
20032SOL    HW261994   0.111  11.373   4.775
20033SOL     OW61995   3.709   3.130   9.724
20033SOL    HW161996   3.629   3.143   9.673
20033SOL    HW261997   3.750   3.054   9.684
20034SOL     OW61998   9.753   3.690  12.657
20034SOL    HW161999   9.662   3.664  12.675
20034SOL    HW262000   9.786   3.719  12.742
20035SOL     OW62001  11.104   7.478   4.108
20035SOL    HW162002  11.167   7.508   4.173
20035SOL    HW262003  11.030   7.539   4.115
20036SOL     OW62004   8.104  13.319   1.518
20036SOL    HW162005   8.119  13.227   1.495
20036SOL    HW262006   8.031  13.316   1.580
20037SOL     OW62007   4.869   7.526   2.815
20037SOL    HW162008   4.841   7.613   2.844
20037SOL    HW262009   4.826   7.515   2.730
20038SOL     OW62010   5.972   6.370   4.789
20038SOL    HW162011   5.996   6.433   4.720
20038SOL    HW262012   5.878   6.386   4.803
20039SOL     OW62013   8.922   7.191  11.465
20039SOL    HW162014   8.937   7.265  11.524
20039SOL    HW262015   8.900   7.232  11.381
20040SOL     OW62016   5.306   6.872   7.647
20040SOL    HW162017   5.281   6.898   7.559
20040SOL    HW262018   5.314   6.777   7.643
20041SOL     OW62019   2.806   8.231   1.795
20041SOL    HW162020   2.819   8.137   1.788
20041SOL    HW262021   2.813   8.249   1.889
20042SOL     OW62022   6.254  13.035   9.673
20042SOL    HW162023   6.285  13.125   9.684
20042SOL    HW262024   6.331  12.981   9.688
20043SOL     OW62025   9.616   5.261   9.850
20043SOL    HW162026   9.591   5.352   9.866
20043SOL    HW262027   9.534   5.212   9.862
20044SOL     OW62028  11.526   1.586   3.034
20044SOL    HW162029  11.558   1.672   3.059
20044SOL    HW262030  11.487   1.599   2.947
20045SOL     OW62031   4.396   9.292   2.239
20045SOL    HW162032   4.450   9.273   2.162
20045SOL    HW262033   4.407   9.216   2.296
20046SOL     OW62034   1.632   7.064   1.145
20046SOL    HW162035   1.555   7.030   1.189
20046SOL    HW262036   1.705   7.012   1.179
20047SOL     OW62037   4.197  12.673   7.350
20047SOL    HW162038   4.238  12.596   7.310
20047SOL    HW262039   4.184  12.734   7.277
20048SOL     OW62040  12.366  10.264   8.458
20048SOL    HW162041  12.296  10.329   8.459
20048SOL    HW262042  12.328  10.186   8.498
20049SOL     OW62043   0.517  12.483   5.234
20049SOL    HW162044   0.451  12.447   5.293
20049SOL    HW262045   0.601  12.453   5.269
20050SOL     OW62046   7.995   2.142  14.523
20050SOL    HW162047   7.964   2.075  14.462
20050SOL    HW262048   8.063   2.097  14.574
20051SOL     OW62049   6.306  13.501  12.302
20051SOL    HW162050   6.246  13.565  12.338
20051SOL    HW262051   6.251  13.441  12.252
20052SOL     OW62052  10.198   2.331  12.082
20052SOL    HW162053  10.237   2.373  12.005
20052SOL    HW262054  10.105   2.328  12.063
20053SOL     OW62055  10.804   0.498   0.008
20053SOL    HW162056  10.824   0.420   0.060
20053SOL    HW262057  10.848   0.570   0.054
20054SOL     OW62058  11.682  12.921   6.140
20054SOL    HW162059  11.694  12.831   6.109
20054SOL    HW262060  11.742  12.972   6.086
20055SOL     OW62061   2.894  13.689  10.457
20055SOL    HW162062   2.834  13.643  10.398
20055SOL    HW262063   2.919  13.623  10.522
20056SOL     OW62064  13.648  13.793  12.220
20056SOL    HW162065  13.572  13.805  12.162
20056SOL    HW262066  13.619  13.829  12.304
20057SOL     OW62067   6.580  12.997   4.379
20057SOL    HW162068   6.497  12.962   4.346
20057SOL    HW262069   6.554  13.056   4.451
20058SOL     OW62070   4.023   4.340  10.457
20058SOL    HW162071   3.991   4.352  10.368
20058SOL    HW262072   4.117   4.358  10.452
20059SOL     OW62073   6.494   3.987   7.499
20059SOL    HW162074   6.584   3.964   7.474
20059SOL    HW262075   6.491   4.083   7.492
20060SOL     OW62076  14.216   3.155  14.797
20060SOL    HW162077  14.304   3.184  14.773
20060SOL    HW262078  14.223   3.061  14.807
20061SOL     OW62079   9.498   3.451   3.741
20061SOL    HW162080   9.493   3.357   3.755
20061SOL    HW262081   9.514   3.488   3.828
20062SOL     OW62082   1.058   3.943   5.178
20062SOL    HW162083   0.984   3.944   5.117
20062SOL    HW262084   1.106   3.863   5.156
20063SOL     OW62085  10.191   4.367  10.770
20063SOL    HW162086  10.171   4.427  10.699
20063SOL    HW262087  10.219   4.287  10.727
20064SOL     OW62088  10.049   6.387  14.010
20064SOL    HW162089  10.055   6.481  13.998
20064SOL    HW262090  10.031   6.353  13.922
20065SOL     OW62091  10.839   1.635   9.244
20065SOL    HW162092  10.834   1.540   9.259
20065SOL    HW262093  10.830   1.674   9.330
20066SOL     OW62094   6.508   6.375   1.942
20066SOL    HW162095   6.540   6.465   1.929
20066SOL    HW262096   6.437   6.384   2.006
20067SOL     OW62097   9.631   5.066   6.325
20067SOL    HW162098   9.707   5.122   6.314
20067SOL    HW262099   9.556   5.126   6.321
20068SOL     OW62100  13.250   5.446   1.861
20068SOL    HW162101  13.338   5.412   1.850
20068SOL    HW262102  13.260   5.521   1.920
20069SOL     OW62103  13.454   6.115   3.652
20069SOL    HW162104  13.396   6.150   3.720
20069SOL    HW262105  13.535   6.164   3.663
20070SOL     OW62106  14.813   1.068   4.072
20070SOL    HW162107  14.788   1.160   4.064
20070SOL    HW262108  14.743   1.020   4.028
20071SOL     OW62109  10.196   0.220   7.615
20071SOL    HW162110  10.242   0.139   7.637
20071SOL    HW262111  10.216   0.235   7.523
20072SOL     OW62112   8.272  12.249   5.321
20072SOL    HW162113   8.236  12.168   5.286
20072SOL    HW262114   8.364  12.249   5.294
20073SOL     OW62115   4.250   8.923  12.385
20073SOL    HW162116   4.321   8.987  12.389
20073SOL    HW262117   4.266   8.866  12.461
20074SOL     OW62118  14.149   5.860   4.659
20074SOL    HW162119  14.205   5.937   4.661
20074SOL    HW262120  14.209   5.787   4.643
20075SOL     OW62121   6.937   8.484   4.481
20075SOL    HW162122   6.856   8.524   4.450
20075SOL    HW262123   6.922   8.390   4.475
20076SOL     OW62124  11.851   7.695   6.353
20076SOL    HW162125  11.870   7.635   6.281
20076SOL    HW262126  11.771   7.661   6.392
20077SOL     OW62127   8.642   6.518   9.518
20077SOL    HW162128   8.735   6.522   9.537
20077SOL    HW262129   8.602   6.489   9.600
20078SOL     OW62130   2.623  10.314  10.802
20078SOL    HW162131   2.534  10.341  10.782
20078SOL    HW262132   2.615  10.259  10.880
20079SOL     OW62133  13.586   1.998   8.004
20079SOL    HW162134  13.628   1.923   7.961
20079SOL    HW262135  13.580   1.973   8.096
20080SOL     OW62136   4.851  12.928   7.150
20080SOL    HW162137   4.946  12.923   7.145
20080SOL    HW262138   4.834  12.975   7.232
20081SOL     OW62139  11.430   3.725   9.150
20081SOL    HW162140  11.412   3.808   9.194
20081SOL    HW262141  11.507   3.690   9.196
20082SOL     OW62142   3.503   8.783  13.193
20082SOL    HW162143   3.440   8.714  13.173
20082SOL    HW262144   3.566   8.779  13.122
20083SOL     OW62145   5.416  14.131   8.441
20083SOL    HW162146   5.475  14.083   8.499
20083SOL    HW262147   5.462  14.212   8.422
20084SOL     OW62148  13.181   1.833   4.890
20084SOL    HW162149  13.160   1.915   4.846
20084SOL    HW262150  13.100   1.782   4.888
20085SOL     OW62151   0.935   9.930  11.838
20085SOL    HW162152   0.938   9.986  11.761
20085SOL    HW262153   1.018   9.947  11.883
20086SOL     OW62154   1.096   8.873   1.626
20086SOL    HW162155   1.060   8.796   1.583
20086SOL    HW262156   1.105   8.938   1.556
20087SOL     OW62157   2.645   2.040   2.901
20087SOL    HW162158   2.715   1.996   2.853
20087SOL    HW262159   2.579   1.972   2.915
20088SOL     OW62160   9.889  12.575   9.470
20088SOL    HW162161   9.839  12.644   9.514
20088SOL    HW262162   9.977  12.612   9.459
20089SOL     OW62163   6.641   0.121   7.892
20089SOL    HW162164   6.619   0.089   7.805
20089SOL    HW262165   6.716   0.178   7.879
20090SOL     OW62166   6.909   6.738   3.427
20090SOL    HW162167   6.909   6.643   3.441
20090SOL    HW262168   6.989   6.755   3.378
20091SOL     OW62169  11.608   5.044  14.386
20091SOL    HW162170  11.522   5.016  14.417
20091SOL    HW262171  11.598   5.138  14.370
20092SOL     OW62172   9.176   6.303   9.486
20092SOL    HW162173   9.187   6.306   9.581
20092SOL    HW262174   9.086   6.332   9.471
20093SOL     OW62175  10.698   9.196  14.632
20093SOL    HW162176  10.637   9.123  14.635
20093SOL    HW262177  10.780   9.158  14.602
20094SOL     OW62178   3.638  10.885   7.516
20094SOL    HW162179   3.618  10.883   7.609
20094SOL    HW262180   3.625  10.796   7.486
20095SOL     OW62181   4.390  11.911   5.191
20095SOL    HW162182   4.474  11.954   5.206
20095SOL    HW262183   4.358  11.950   5.109
20096SOL     OW62184  14.690   3.182  13.761
20096SOL    HW162185  14.782   3.208  13.754
20096SOL    HW262186  14.689   3.112  13.826
20097SOL     OW62187   8.433  14.274  12.840
20097SOL    HW162188   8.352  14.315  12.870
20097SOL    HW262189   8.411  14.181  12.831
20098SOL     OW62190  14.423  13.846   4.295
20098SOL    HW162191  14.379  13.889   4.368
20098SOL    HW262192  14.359  13.783   4.262
20099SOL     OW62193  10.379   8.764   1.269
20099SOL    HW162194  10.366   8.794   1.358
20099SOL    HW262195  10.359   8.670   1.271
20100SOL     OW62196  12.559   7.065   2.323
20100SOL    HW162197  12.510   7.124   2.380
20100SOL    HW262198  12.514   7.070   2.238
20101SOL     OW62199   7.689  12.485  12.223
20101SOL    HW162200   7.598  12.510  12.238
20101SOL    HW262201   7.708  12.514  12.134
20102SOL     OW62202   8.153  14.693  11.619
20102SOL    HW162203   8.095  14.743  11.562
20102SOL    HW262204   8.134  14.601  11.598
20103SOL     OW62205   4.111   0.865   6.122
20103SOL    HW162206   4.101   0.929   6.051
20103SOL    HW262207   4.035   0.807   6.112
20104SOL     OW62208   7.766  10.128   1.767
20104SOL    HW162209   7.856  10.148   1.795
20104SOL    HW262210   7.748  10.192   1.698
20105SOL     OW62211  12.785   0.837   9.225
20105SOL    HW162212  12.762   0.810   9.314
20105SOL    HW262213  12.879   0.820   9.219
20106SOL     OW62214   9.113   1.458   6.967
20106SOL    HW162215   9.197   1.435   6.927
20106SOL    HW262216   9.060   1.492   6.894
20107SOL     OW62217   4.074  14.055  11.782
20107SOL    HW162218   4.169  14.041  11.779
20107SOL    HW262219   4.048  14.063  11.691
20108SOL     OW62220   8.533   4.782   7.383
20108SOL    HW162221   8.444   4.754   7.402
20108SOL    HW262222   8.531   4.877   7.393
20109SOL     OW62223  12.024  10.592   2.471
20109SOL    HW162224  12.012  10.686   2.454
20109SOL    HW262225  11.944  10.565   2.515
20110SOL     OW62226   9.771   8.725  12.152
20110SOL    HW162227   9.866   8.722  12.143
20110SOL    HW262228   9.755   8.795  12.216
20111SOL     OW62229   9.839   1.473  12.817
20111SOL    HW162230   9.794   1.547  12.778
20111SOL    HW262231   9.896   1.512  12.884
20112SOL     OW62232   0.218   3.071  14.431
20112SOL    HW162233   0.259   2.989  14.403
20112SOL    HW262234   0.272   3.101  14.504
20113SOL     OW62235   5.618   3.208   4.465
20113SOL    HW162236   5.619   3.264   4.388
20113SOL    HW262237   5.527   3.211   4.496
20114SOL     OW62238   7.369   6.568  10.813
20114SOL    HW162239   7.287   6.519  10.806
20114SOL    HW262240   7.343   6.652  10.851
20115SOL     OW62241   8.970   0.420   7.133
20115SOL    HW162242   9.048   0.371   7.107
20115SOL    HW262243   8.925   0.362   7.195
20116SOL     OW62244   3.823  12.714   3.244
20116SOL    HW162245   3.818  12.703   3.149
20116SOL    HW262246   3.805  12.628   3.279
20117SOL     OW62247   1.304   4.573  13.785
20117SOL    HW162248   1.326   4.482  13.767
20117SOL    HW262249   1.228   4.591  13.729
20118SOL     OW62250   2.607   7.311  14.251
20118SOL    HW162251   2.666   7.317  14.327
20118SOL    HW262252   2.657   7.260  14.187
20119SOL     OW62253   1.231   8.846  13.989
20119SOL    HW162254   1.183   8.873  14.067
20119SOL    HW262255   1.177   8.875  13.916
20120SOL     OW62256   1.670  11.478   7.447
20120SOL    HW162257   1.661  11.394   7.403
20120SOL    HW262258   1.582  11.515   7.450
20121SOL     OW62259   5.728   0.728   3.708
20121SOL    HW162260   5.753   0.723   3.801
20121SOL    HW262261   5.638   0.761   3.710
20122SOL     OW62262   1.199  13.686   6.008
20122SOL    HW162263   1.108  13.713   6.000
20122SOL    HW262264   1.214  13.628   5.934
20123SOL     OW62265  12.555   8.126   2.471
20123SOL    HW162266  12.470   8.147   2.509
20123SOL    HW262267  12.618   8.138   2.542
20124SOL     OW62268   8.346  10.299   0.151
20124SOL    HW162269   8.355  10.319   0.057
20124SOL    HW262270   8.408  10.228   0.166
20125SOL     OW62271   3.301   7.598   7.186
20125SOL    HW162272   3.354   7.548   7.247
20125SOL    HW262273   3.227   7.630   7.239
20126SOL     OW62274  12.529   7.944  12.832
20126SOL    HW162275  12.460   7.878  12.826
20126SOL    HW262276  12.609   7.893  12.844
20127SOL     OW62277   9.756   2.313   5.178
20127SOL    HW162278   9.711   2.396   5.162
20127SOL    HW262279   9.778   2.316   5.271
20128SOL     OW62280   6.274  10.688   4.454
20128SOL    HW162281   6.302  10.731   4.535
20128SOL    HW262282   6.336  10.719   4.388
20129SOL     OW62283  14.413  11.831   3.553
20129SOL    HW162284  14.376  11.744   3.543
20129SOL    HW262285  14.506  11.817   3.569
20130SOL     OW62286  12.037  10.032   6.331
20130SOL    HW162287  11.991  10.099   6.381
20130SOL    HW262288  12.112  10.008   6.386
20131SOL     OW62289   4.445   6.030   9.656
20131SOL    HW162290   4.457   6.111   9.706
20131SOL    HW262291   4.351   6.015   9.656
20132SOL     OW62292   6.131   1.755   8.125
20132SOL    HW162293   6.166   1.682   8.075
20132SOL    HW262294   6.081   1.807   8.061
20133SOL     OW62295   2.211   6.397   9.017
20133SOL    HW162296   2.260   6.431   8.943
20133SOL    HW262297   2.277   6.387   9.087
20134SOL     OW62298  13.960  13.929  11.636
20134SOL    HW162299  13.929  13.871  11.706
20134SOL    HW262300  13.902  14.004  11.640
20135SOL     OW62301   2.508   9.470  14.667
20135SOL    HW162302   2.576   9.415  14.707
20135SOL    HW262303   2.544   9.559  14.672
20136SOL     OW62304   1.406   5.559  12.466
20136SOL    HW162305   1.431   5.571  12.374
20136SOL    HW262306   1.453   5.629  12.512
20137SOL     OW62307   6.044   6.831  11.872
20137SOL    HW162308   6.129   6.804  11.907
20137SOL    HW262309   5.985   6.758  11.892
20138SOL     OW62310  11.844  12.255   9.625
20138SOL    HW162311  11.908  12.319   9.593
20138SOL    HW262312  11.802  12.222   9.546
20139SOL     OW62313   3.855  12.298  10.719
20139SOL    HW162314   3.899  12.339  10.794
20139SOL    HW262315   3.912  12.225  10.694
20140SOL     OW62316   0.161   0.215   2.271
20140SOL    HW162317   0.075   0.243   2.302
20140SOL    HW262318   0.190   0.149   2.335
20141SOL     OW62319   9.606   4.462   6.039
20141SOL    HW162320   9.651   4.477   5.956
20141SOL    HW262321   9.522   4.423   6.015
20142SOL     OW62322   5.795  13.287   7.437
20142SOL    HW162323   5.761  13.318   7.353
20142SOL    HW262324   5.720  13.246   7.480
20143SOL     OW62325  13.521  13.532  14.793
20143SOL    HW162326  13.461  13.550  14.866
20143SOL    HW262327  13.514  13.609  14.737
20144SOL     OW62328   3.188  13.611  10.389
20144SOL    HW162329   3.108  13.664  10.393
20144SOL    HW262330   3.164  13.534  10.337
20145SOL     OW62331  10.470   0.258   8.340
20145SOL    HW162332  10.519   0.177   8.334
20145SOL    HW262333  10.385   0.233   8.377
20146SOL     OW62334   7.527   8.682   8.604
20146SOL    HW162335   7.603   8.665   8.549
20146SOL    HW262336   7.533   8.617   8.674
20147SOL     OW62337   6.786   4.516  11.341
20147SOL    HW162338   6.724   4.570  11.391
20147SOL    HW262339   6.846   4.579  11.300
20148SOL     OW62340   2.173   5.729   0.456
20148SOL    HW162341   2.136   5.651   0.498
20148SOL    HW262342   2.246   5.753   0.512
20149SOL     OW62343   5.518   4.021   8.197
20149SOL    HW162344   5.519   4.114   8.219
20149SOL    HW262345   5.517   4.018   8.102
20150SOL     OW62346   1.891   5.672  13.568
20150SOL    HW162347   1.828   5.621  13.517
20150SOL    HW262348   1.971   5.619  13.568
20151SOL     OW62349   9.614   6.329  12.755
20151SOL    HW162350   9.642   6.397  12.816
20151SOL    HW262351   9.613   6.372  12.669
20152SOL     OW62352   5.868   4.183   8.891
20152SOL    HW162353   5.867   4.131   8.972
20152SOL    HW262354   5.780   4.221   8.885
20153SOL     OW62355   6.663  12.607  10.750
20153SOL    HW162356   6.746  12.637  10.788
20153SOL    HW262357   6.676  12.616  10.656
20154SOL     OW62358  12.562  11.594  11.441
20154SOL    HW162359  12.564  11.641  11.358
20154SOL    HW262360  12.632  11.529  11.433
20155SOL     OW62361  10.986  14.604   9.887
20155SOL    HW162362  10.900  14.563   9.896
20155SOL    HW262363  11.035  14.543   9.832
20156SOL     OW62364  11.882  13.502   3.679
20156SOL    HW162365  11.799  13.515   3.634
20156SOL    HW262366  11.899  13.408   3.672
20157SOL     OW62367   2.678  11.916  12.851
20157SOL    HW162368   2.740  11.934  12.780
20157SOL    HW262369   2.731  11.916  12.930
20158SOL     OW62370  10.370   4.154   1.570
20158SOL    HW162371  10.296   4.093   1.578
20158SOL    HW262372  10.362   4.211   1.647
20159SOL     OW62373   9.922  10.534   8.219
20159SOL    HW162374   9.908  10.517   8.126
20159SOL    HW262375   9.878  10.462   8.264
20160SOL     OW62376  13.320   3.085   6.524
20160SOL    HW162377  13.329   3.180   6.537
20160SOL    HW262378  13.380   3.064   6.453
20161SOL     OW62379   1.331   8.924  11.063
20161SOL    HW162380   1.255   8.873  11.035
20161SOL    HW262381   1.394   8.858  11.092
20162SOL     OW62382   1.160  14.171  12.574
20162SOL    HW162383   1.146  14.231  12.648
20162SOL    HW262384   1.220  14.105  12.608
20163SOL     OW62385   2.739   7.247   6.637
20163SOL    HW162386   2.744   7.180   6.705
20163SOL    HW262387   2.781   7.324   6.676
20164SOL     OW62388  12.469  11.835   0.770
20164SOL    HW162389  12.405  11.765   0.784
20164SOL    HW262390  12.532  11.798   0.707
20165SOL     OW62391  13.609   4.862   4.048
20165SOL    HW162392  13.543   4.799   4.021
20165SOL    HW262393  13.564   4.919   4.111
20166SOL     OW62394  13.240   4.138   1.315
20166SOL    HW162395  13.313   4.160   1.257
20166SOL    HW262396  13.282   4.109   1.396
20167SOL     OW62397   4.758   2.364   4.208
20167SOL    HW162398   4.691   2.426   4.181
20167SOL    HW262399   4.796   2.402   4.287
20168SOL     OW62400   6.715  12.194  11.351
20168SOL    HW162401   6.799  12.147  11.357
20168SOL    HW262402   6.739  12.285  11.335
20169SOL     OW62403   0.265  11.334   5.317
20169SOL    HW162404   0.211  11.402   5.276
20169SOL    HW262405   0.327  11.309   5.249
20170SOL     OW62406   0.032  11.893  12.487
20170SOL    HW162407   0.043  11.808  12.529
20170SOL    HW262408  14.829  11.916  12.504
20171SOL     OW62409   0.397   0.274  11.903
20171SOL    HW162410   0.319   0.260  11.850
20171SOL    HW262411   0.416   0.188  11.940
20172SOL     OW62412   5.289  11.009  12.042
20172SOL    HW162413   5.377  11.038  12.016
20172SOL    HW262414   5.258  10.958  11.968
20173SOL     OW62415   1.617  12.971   4.792
20173SOL    HW162416   1.624  13.063   4.768
20173SOL    HW262417   1.627  12.969   4.887
20174SOL     OW62418   5.526   9.491   2.779
20174SOL    HW162419   5.577   9.455   2.707
20174SOL    HW262420   5.483   9.568   2.742
20175SOL     OW62421   4.368   1.752  13.634
20175SOL    HW162422   4.323   1.688  13.690
20175SOL    HW262423   4.451   1.709  13.611
20176SOL     OW62424  14.450   3.687   0.711
20176SOL    HW162425  14.497   3.615   0.668
20176SOL    HW262426  14.504   3.710   0.786
20177SOL     OW62427   1.674   2.563  12.262
20177SOL    HW162428   1.626   2.645  12.255
20177SOL    HW262429   1.737   2.565  12.191
20178SOL     OW62430  12.488   3.225   2.174
20178SOL    HW162431  12.489   3.146   2.121
20178SOL    HW262432  12.580   3.247   2.187
20179SOL     OW62433   9.669   4.244  12.208
20179SOL    HW162434   9.738   4.286  12.157
20179SOL    HW262435   9.670   4.290  12.292
20180SOL     OW62436  10.150   9.748   2.949
20180SOL    HW162437  10.237   9.773   2.978
20180SOL    HW262438  10.110   9.830   2.918
20181SOL     OW62439   3.592   0.085   9.725
20181SOL    HW162440   3.602   0.027   9.801
20181SOL    HW262441   3.676   0.129   9.717
20182SOL     OW62442   1.737   1.940  10.260
20182SOL    HW162443   1.674   1.968  10.327
20182SOL    HW262444   1.683   1.903  10.190
20183SOL     OW62445  13.905   3.294   3.043
20183SOL    HW162446  13.941   3.207   3.026
20183SOL    HW262447  13.961   3.330   3.111
20184SOL     OW62448  11.725  14.808   1.898
20184SOL    HW162449  11.729  14.808   1.993
20184SOL    HW262450  11.815  14.830   1.871
20185SOL     OW62451  13.145  13.008  10.344
20185SOL    HW162452  13.054  12.980  10.333
20185SOL    HW262453  13.166  12.987  10.435
20186SOL     OW62454   3.717  13.286  10.748
20186SOL    HW162455   3.643  13.300  10.807
20186SOL    HW262456   3.792  13.325  10.793
20187SOL     OW62457   3.367   4.369   3.391
20187SOL    HW162458   3.360   4.439   3.456
20187SOL    HW262459   3.297   4.387   3.329
20188SOL     OW62460   9.521   3.428   8.477
20188SOL    HW162461   9.552   3.454   8.390
20188SOL    HW262462   9.428   3.413   8.465
20189SOL     OW62463   6.043   1.914   2.270
20189SOL    HW162464   6.031   1.852   2.198
20189SOL    HW262465   6.138   1.921   2.280
20190SOL     OW62466   6.473   2.565   6.796
20190SOL    HW162467   6.545   2.597   6.741
20190SOL    HW262468   6.517   2.525   6.871
20191SOL     OW62469   5.430  13.210  11.557
20191SOL    HW162470   5.367  13.144  11.527
20191SOL    HW262471   5.439  13.193  11.651
20192SOL     OW62472   5.350  10.326   9.366
20192SOL    HW162473   5.440  10.318   9.398
20192SOL    HW262474   5.339  10.419   9.348
20193SOL     OW62475   1.571   5.378   4.264
20193SOL    HW162476   1.528   5.411   4.343
20193SOL    HW262477   1.592   5.287   4.285
20194SOL     OW62478   2.594   9.134  11.945
20194SOL    HW162479   2.529   9.204  11.936
20194SOL    HW262480   2.678   9.180  11.944
20195SOL     OW62481   6.295   6.242   1.707
20195SOL    HW162482   6.294   6.147   1.692
20195SOL    HW262483   6.286   6.251   1.802
20196SOL     OW62484   0.386   0.520   3.099
20196SOL    HW162485   0.480   0.507   3.087
20196SOL    HW262486   0.361   0.461   3.169
20197SOL     OW62487   5.976  14.244  13.929
20197SOL    HW162488   6.007  14.213  13.844
20197SOL    HW262489   5.894  14.289  13.910
20198SOL     OW62490   1.039  10.642  13.129
20198SOL    HW162491   0.949  10.638  13.162
20198SOL    HW262492   1.093  10.617  13.204
20199SOL     OW62493   3.900  12.571   4.851
20199SOL    HW162494   3.923  12.646   4.797
20199SOL    HW262495   3.952  12.499   4.816
20200SOL     OW62496   8.583   2.730  13.649
20200SOL    HW162497   8.621   2.818  13.645
20200SOL    HW262498   8.647   2.674  13.605
20201SOL     OW62499  11.132   7.454  13.255
20201SOL    HW162500  11.212   7.437  13.305
20201SOL    HW262501  11.085   7.371  13.256
20202SOL     OW62502   7.483   3.727   6.951
20202SOL    HW162503   7.532   3.673   7.013
20202SOL    HW262504   7.550   3.760   6.891
20203SOL     OW62505   2.022   0.411   2.878
20203SOL    HW162506   2.040   0.467   2.802
20203SOL    HW262507   1.988   0.330   2.840
20204SOL     OW62508   1.385   3.784  11.705
20204SOL    HW162509   1.318   3.814  11.644
20204SOL    HW262510   1.455   3.849  11.698
20205SOL     OW62511   9.754  10.032  12.910
20205SOL    HW162512   9.692  10.098  12.941
20205SOL    HW262513   9.826  10.035  12.973
20206SOL     OW62514   4.948  13.870   7.209
20206SOL    HW162515   4.909  13.878   7.296
20206SOL    HW262516   5.004  13.948   7.201
20207SOL     OW62517   6.456   6.575  13.352
20207SOL    HW162518   6.526   6.573  13.417
20207SOL    HW262519   6.403   6.498  13.372
20208SOL     OW62520   0.500   7.429   3.529
20208SOL    HW162521   0.420   7.472   3.501
20208SOL    HW262522   0.512   7.356   3.468
20209SOL     OW62523   6.081   5.620   4.767
20209SOL    HW162524   6.175   5.603   4.758
20209SOL    HW262525   6.076   5.698   4.822
20210SOL     OW62526   2.996  13.863  12.565
20210SOL    HW162527   3.079  13.828  12.532
20210SOL    HW262528   3.020  13.911  12.644
20211SOL     OW62529  10.038   0.439   0.595
20211SOL    HW162530   9.965   0.377   0.594
20211SOL    HW262531  10.044   0.468   0.686
20212SOL     OW62532   7.618   5.020  13.540
20212SOL    HW162533   7.669   4.970  13.476
20212SOL    HW262534   7.555   4.956  13.575
20213SOL     OW62535  14.545   5.130  12.126
20213SOL    HW162536  14.578   5.055  12.175
20213SOL    HW262537  14.450   5.117  12.125
20214SOL     OW62538  11.343   1.285  12.643
20214SOL    HW162539  11.295   1.202  12.635
20214SOL    HW262540  11.380   1.299  12.556
20215SOL     OW62541  14.665  11.334   8.260
20215SOL    HW162542  14.640  11.401   8.324
20215SOL    HW262543  14.623  11.362   8.179
20216SOL     OW62544  13.447  11.584  12.669
20216SOL    HW162545  13.394  11.593  12.590
20216SOL    HW262546  13.406  11.513  12.718
20217SOL     OW62547   1.958   3.215   0.963
20217SOL    HW162548   1.977   3.134   1.011
20217SOL    HW262549   1.931   3.185   0.876
20218SOL     OW62550  14.583   7.003   1.724
20218SOL    HW162551  14.662   7.041   1.762
20218SOL    HW262552  14.522   7.076   1.716
20219SOL     OW62553  11.784   3.556  10.564
20219SOL    HW162554  11.751   3.576  10.476
20219SOL    HW262555  11.877   3.536  10.550
20220SOL     OW62556   9.087  14.315  10.673
20220SOL    HW162557   9.114  14.248  10.610
20220SOL    HW262558   9.169  14.345  10.713
20221SOL     OW62559   1.608   9.640  13.296
20221SOL    HW162560   1.587   9.574  13.230
20221SOL    HW262561   1.626   9.719  13.245
20222SOL     OW62562   4.942  11.839   5.388
20222SOL    HW162563   4.917  11.843   5.296
20222SOL    HW262564   4.870  11.881   5.435
20223SOL     OW62565   9.939  11.120   1.337
20223SOL    HW162566   9.874  11.057   1.370
20223SOL    HW262567  10.004  11.126   1.408
20224SOL     OW62568   9.854   1.299   3.077
20224SOL    HW162569   9.881   1.209   3.095
20224SOL    HW262570   9.816   1.296   2.989
20225SOL     OW62571   1.030   0.583   2.112
20225SOL    HW162572   0.987   0.650   2.166
20225SOL    HW262573   1.111   0.625   2.083
20226SOL     OW62574   6.027   6.787   1.069
20226SOL    HW162575   5.974   6.752   0.997
20226SOL    HW262576   6.101   6.829   1.026
20227SOL     OW62577  11.719  14.635  13.367
20227SOL    HW162578  11.811  14.637  13.393
20227SOL    HW262579  11.671  14.649  13.448
20228SOL     OW62580   2.001   1.451  12.100
20228SOL    HW162581   2.006   1.379  12.037
20228SOL    HW262582   1.908   1.457  12.123
20229SOL     OW62583   4.730   7.020  11.034
20229SOL    HW162584   4.724   6.947  10.973
20229SOL    HW262585   4.692   6.987  11.115
20230SOL     OW62586   8.828  14.613   2.619
20230SOL    HW162587   8.817  14.553   2.546
20230SOL    HW262588   8.923  14.619   2.631
20231SOL     OW62589   5.970   8.651   1.296
20231SOL    HW162590   5.930   8.627   1.212
20231SOL    HW262591   5.978   8.568   1.343
20232SOL     OW62592   7.945   8.874  12.532
20232SOL    HW162593   7.942   8.887  12.627
20232SOL    HW262594   7.893   8.795  12.516
20233SOL     OW62595   3.143   0.379  14.127
20233SOL    HW162596   3.115   0.442  14.061
20233SOL    HW262597   3.214   0.424  14.173
20234SOL     OW62598   9.638  11.492   7.080
20234SOL    HW162599   9.653  11.538   6.997
20234SOL    HW262600   9.571  11.427   7.060
20235SOL     OW62601   5.767   4.668   1.346
20235SOL    HW162602   5.683   4.633   1.374
20235SOL    HW262603   5.832   4.615   1.393
20236SOL     OW62604   2.268   1.331   9.206
20236SOL    HW162605   2.284   1.354   9.114
20236SOL    HW262606   2.262   1.416   9.250
20237SOL     OW62607   9.503   8.240  13.281
20237SOL    HW162608   9.494   8.249  13.186
20237SOL    HW262609   9.562   8.166  13.292
20238SOL     OW62610   7.985   3.575   1.246
20238SOL    HW162611   8.020   3.490   1.221
20238SOL    HW262612   8.038   3.602   1.321
20239SOL     OW62613   2.132   4.167   2.237
20239SOL    HW162614   2.097   4.253   2.260
20239SOL    HW262615   2.134   4.120   2.321
20240SOL     OW62616  11.341   8.736   6.738
20240SOL    HW162617  11.390   8.728   6.657
20240SOL    HW262618  11.336   8.830   6.754
20241SOL     OW62619   5.671   4.697  13.507
20241SOL    HW162620   5.662   4.636  13.580
20241SOL    HW262621   5.719   4.771  13.544
20242SOL     OW62622  12.308  13.908   3.026
20242SOL    HW162623  12.302  14.003   3.038
20242SOL    HW262624  12.288  13.873   3.113
20243SOL     OW62625   5.518  10.391  11.791
20243SOL    HW162626   5.484  10.356  11.874
20243SOL    HW262627   5.612  10.398  11.805
20244SOL     OW62628  12.054  11.639   3.204
20244SOL    HW162629  12.027  11.611   3.116
20244SOL    HW262630  12.115  11.711   3.188
20245SOL     OW62631   2.684  11.877   0.082
20245SOL    HW162632   2.712  11.840  14.886
20245SOL    HW262633   2.588  11.873   0.079
20246SOL     OW62634   7.583  10.046  12.022
20246SOL    HW162635   7.645  10.115  11.999
20246SOL    HW262636   7.625   9.966  11.990
20247SOL     OW62637  13.348   7.184   3.829
20247SOL    HW162638  13.293   7.242   3.776
20247SOL    HW262639  13.287   7.140   3.888
20248SOL     OW62640   6.855   6.186   1.232
20248SOL    HW162641   6.820   6.234   1.307
20248SOL    HW262642   6.789   6.196   1.163
20249SOL     OW62643   3.970   4.070   3.663
20249SOL    HW162644   4.013   4.094   3.745
20249SOL    HW262645   3.948   3.977   3.673
20250SOL     OW62646   1.593   3.534  11.210
20250SOL    HW162647   1.501   3.510  11.203
20250SOL    HW262648   1.611   3.529  11.304
20251SOL     OW62649  11.393  13.314  11.262
20251SOL    HW162650  11.479  13.350  11.242
20251SOL    HW262651  11.398  13.222  11.236
20252SOL     OW62652  11.899  10.431  11.571
20252SOL    HW162653  11.988  10.398  11.582
20252SOL    HW262654  11.849  10.391  11.642
20253SOL     OW62655   6.786   9.594   6.753
20253SOL    HW162656   6.858   9.602   6.690
20253SOL    HW262657   6.740   9.514   6.727
20254SOL     OW62658  14.663  14.630  14.636
20254SOL    HW162659  14.619  14.680  14.567
20254SOL    HW262660  14.638  14.675  14.717
20255SOL     OW62661  13.855  13.837   2.543
20255SOL    HW162662  13.822  13.922   2.573
20255SOL    HW262663  13.905  13.803   2.618
20256SOL     OW62664   3.587   9.186  12.707
20256SOL    HW162665   3.581   9.109  12.651
20256SOL    HW262666   3.553   9.258  12.653
20257SOL     OW62667   6.814   4.920  11.085
20257SOL    HW162668   6.756   4.919  11.009
20257SOL    HW262669   6.856   4.834  11.084
20258SOL     OW62670   3.844   7.198   6.447
20258SOL    HW162671   3.878   7.109   6.434
20258SOL    HW262672   3.824   7.203   6.540
20259SOL     OW62673  14.648   6.387  13.755
20259SOL    HW162674  14.655   6.483  13.748
20259SOL    HW262675  14.650   6.370  13.849
20260SOL     OW62676  13.942  10.856  14.693
20260SOL    HW162677  14.001  10.928  14.712
20260SOL    HW262678  13.999  10.779  14.685
20261SOL     OW62679   5.513   3.159   8.603
20261SOL    HW162680   5.422   3.184   8.593
20261SOL    HW262681   5.514   3.096   8.675
20262SOL     OW62682   2.454   6.218   9.498
20262SOL    HW162683   2.395   6.293   9.504
20262SOL    HW262684   2.528   6.249   9.445
20263SOL     OW62685   6.638   2.407   1.115
20263SOL    HW162686   6.669   2.423   1.026
20263SOL    HW262687   6.641   2.311   1.124
20264SOL     OW62688  13.043  10.602   0.670
20264SOL    HW162689  13.057  10.648   0.587
20264SOL    HW262690  13.019  10.671   0.732
20265SOL     OW62691   8.777   6.651  13.536
20265SOL    HW162692   8.873   6.656  13.533
20265SOL    HW262693   8.754   6.683  13.623
20266SOL     OW62694   7.943   7.545   0.768
20266SOL    HW162695   7.896   7.627   0.756
20266SOL    HW262696   8.016   7.549   0.707
20267SOL     OW62697   1.686  10.872  11.845
20267SOL    HW162698   1.759  10.813  11.867
20267SOL    HW262699   1.657  10.905  11.930
20268SOL     OW62700   5.245   4.484   2.283
20268SOL    HW162701   5.222   4.496   2.191
20268SOL    HW262702   5.316   4.420   2.281
20269SOL     OW62703  11.474  13.281   0.319
20269SOL    HW162704  11.412  13.299   0.390
20269SOL    HW262705  11.552  13.249   0.364
20270SOL     OW62706   6.178  14.472  12.485
20270SOL    HW162707   6.102  14.522  12.515
20270SOL    HW262708   6.160  14.453  12.393
20271SOL     OW62709   4.513   5.225   0.155
20271SOL    HW162710   4.478   5.209   0.067
20271SOL    HW262711   4.481   5.150   0.207
20272SOL     OW62712  10.799   3.015   6.035
20272SOL    HW162713  10.730   3.081   6.031
20272SOL    HW262714  10.873   3.056   5.991
20273SOL     OW62715  14.810   0.612  13.142
20273SOL    HW162716  14.806   0.523  13.106
20273SOL    HW262717  14.878   0.656  13.090
20274SOL     OW62718   2.095  13.561  12.793
20274SOL    HW162719   2.051  13.629  12.843
20274SOL    HW262720   2.024  13.511  12.752
20275SOL     OW62721   7.259   3.334  13.686
20275SOL    HW162722   7.302   3.252  13.710
20275SOL    HW262723   7.329   3.389  13.651
20276SOL     OW62724   2.539  10.437   9.756
20276SOL    HW162725   2.536  10.518   9.808
20276SOL    HW262726   2.607  10.385   9.797
20277SOL     OW62727   4.029   3.388   6.997
20277SOL    HW162728   4.102   3.425   6.947
20277SOL    HW262729   4.066   3.373   7.085
20278SOL     OW62730   3.886  12.241   8.084
20278SOL    HW162731   3.926  12.154   8.082
20278SOL    HW262732   3.939  12.291   8.146
20279SOL     OW62733   0.805   5.919   7.589
20279SOL    HW162734   0.711   5.904   7.581
20279SOL    HW262735   0.821   6.002   7.544
20280SOL     OW62736   6.821   4.761   2.523
20280SOL    HW162737   6.796   4.725   2.438
20280SOL    HW262738   6.829   4.684   2.580
20281SOL     OW62739  14.498  11.057  12.812
20281SOL    HW162740  14.439  11.060  12.888
20281SOL    HW262741  14.479  11.138  12.765
20282SOL     OW62742   8.145   1.091   0.146
20282SOL    HW162743   8.238   1.097   0.167
20282SOL    HW262744   8.112   1.024   0.205
20283SOL     OW62745  13.740   2.647   9.675
20283SOL    HW162746  13.770   2.660   9.585
20283SOL    HW262747  13.647   2.628   9.667
20284SOL     OW62748  14.331   3.443   3.693
20284SOL    HW162749  14.423   3.469   3.688
20284SOL    HW262750  14.284   3.524   3.712
20285SOL     OW62751  11.411   6.620   5.450
20285SOL    HW162752  11.489   6.673   5.465
20285SOL    HW262753  11.400   6.569   5.531
20286SOL     OW62754  13.166   2.153  12.405
20286SOL    HW162755  13.099   2.145  12.337
20286SOL    HW262756  13.160   2.072  12.455
20287SOL     OW62757  11.686  10.744   7.456
20287SOL    HW162758  11.765  10.730   7.509
20287SOL    HW262759  11.716  10.797   7.382
20288SOL     OW62760  11.079   9.485   9.914
20288SOL    HW162761  11.099   9.393   9.897
20288SOL    HW262762  11.014   9.508   9.848
20289SOL     OW62763  11.871  12.902   4.669
20289SOL    HW162764  11.797  12.851   4.635
20289SOL    HW262765  11.832  12.983   4.700
20290SOL     OW62766   3.364   2.015   9.848
20290SOL    HW162767   3.336   2.104   9.872
20290SOL    HW262768   3.401   1.980   9.929
20291SOL     OW62769   9.620   6.028   6.741
20291SOL    HW162770   9.686   6.096   6.735
20291SOL    HW262771   9.651   5.971   6.811
20292SOL     OW62772   1.117   0.586   1.686
20292SOL    HW162773   1.116   0.612   1.593
20292SOL    HW262774   1.190   0.524   1.692
20293SOL     OW62775   6.252  12.850  14.034
20293SOL    HW162776   6.173  12.903  14.024
20293SOL    HW262777   6.321  12.914  14.053
20294SOL     OW62778   5.329   9.132   2.673
20294SOL    HW162779   5.260   9.088   2.722
20294SOL    HW262780   5.392   9.063   2.653
20295SOL     OW62781  10.437   9.999   2.512
20295SOL    HW162782  10.434  10.012   2.607
20295SOL    HW262783  10.435  10.088   2.476
20296SOL     OW62784  13.952   6.491   5.635
20296SOL    HW162785  13.892   6.564   5.622
20296SOL    HW262786  13.914   6.441   5.707
20297SOL     OW62787  11.779  11.370   6.019
20297SOL    HW162788  11.775  11.437   6.087
20297SOL    HW262789  11.730  11.407   5.946
20298SOL     OW62790  12.718  14.451  10.822
20298SOL    HW162791  12.630  14.485  10.804
20298SOL    HW262792  12.703  14.363  10.858
20299SOL     OW62793   8.527   6.262  13.950
20299SOL    HW162794   8.621   6.268  13.930
20299SOL    HW262795   8.485   6.252  13.865
20300SOL     OW62796  13.497  12.827   2.244
20300SOL    HW162797  13.420  12.798   2.194
20300SOL    HW262798  13.487  12.784   2.329
20301SOL     OW62799   7.537  11.606   1.800
20301SOL    HW162800   7.605  11.564   1.852
20301SOL    HW262801   7.554  11.578   1.711
20302SOL     OW62802  13.187  11.514  12.555
20302SOL    HW162803  13.175  11.520  12.460
20302SOL    HW262804  13.151  11.428  12.578
20303SOL     OW62805  14.589   4.386   2.465
20303SOL    HW162806  14.663   4.340   2.425
20303SOL    HW262807  14.601   4.478   2.440
20304SOL     OW62808  14.646  12.734  13.561
20304SOL    HW162809  14.573  12.702  13.508
20304SOL    HW262810  14.616  12.724  13.651
20305SOL     OW62811   7.802  12.037   0.422
20305SOL    HW162812   7.791  12.069   0.512
20305SOL    HW262813   7.872  12.091   0.386
20306SOL     OW62814  14.153  10.575   9.607
20306SOL    HW162815  14.146  10.637   9.679
20306SOL    HW262816  14.166  10.490   9.649
20307SOL     OW62817   0.338   7.922   4.032
20307SOL    HW162818   0.335   7.941   4.126
20307SOL    HW262819   0.411   7.861   4.022
20308SOL     OW62820   2.952   2.347   6.522
20308SOL    HW162821   3.033   2.395   6.503
20308SOL    HW262822   2.907   2.401   6.587
20309SOL     OW62823   1.866  14.297   5.759
20309SOL    HW162824   1.888  14.232   5.826
20309SOL    HW262825   1.868  14.380   5.806
20310SOL     OW62826   1.329   8.184   5.284
20310SOL    HW162827   1.253   8.125   5.281
20310SOL    HW262828   1.356   8.183   5.376
20311SOL     OW62829  12.571  12.537  14.554
20311SOL    HW162830  12.493  12.500  14.512
20311SOL    HW262831  12.629  12.462  14.567
20312SOL     OW62832   7.233   3.471  12.216
20312SOL    HW162833   7.179   3.538  12.258
20312SOL    HW262834   7.268   3.419  12.288
20313SOL     OW62835   1.875   7.887   1.371
20313SOL    HW162836   1.825   7.835   1.308
20313SOL    HW262837   1.941   7.932   1.317
20314SOL     OW62838   4.358   1.184   9.998
20314SOL    HW162839   4.422   1.212   9.933
20314SOL    HW262840   4.365   1.089   9.999
20315SOL     OW62841  14.000   8.104  11.285
20315SOL    HW162842  14.017   8.045  11.211
20315SOL    HW262843  14.062   8.076  11.352
20316SOL     OW62844  10.410  12.129   3.912
20316SOL    HW162845  10.454  12.151   3.830
20316SOL    HW262846  10.362  12.048   3.892
20317SOL     OW62847   9.241  10.150   9.659
20317SOL    HW162848   9.193  10.190   9.731
20317SOL    HW262849   9.311  10.099   9.701
20318SOL     OW62850   4.607  10.118   8.217
20318SOL    HW162851   4.595  10.036   8.265
20318SOL    HW262852   4.701  10.120   8.196
20319SOL     OW62853  12.241   3.962   8.158
20319SOL    HW162854  12.283   4.048   8.158
20319SOL    HW262855  12.147   3.981   8.152
20320SOL     OW62856  14.738  11.699   1.955
20320SOL    HW162857  14.656  11.698   2.004
20320SOL    HW262858  14.770  11.789   1.962
20321SOL     OW62859   5.412   8.774   2.986
20321SOL    HW162860   5.429   8.741   2.898
20321SOL    HW262861   5.473   8.848   2.995
20322SOL     OW62862   5.236   2.934   4.055
20322SOL    HW162863   5.231   2.887   4.138
20322SOL    HW262864   5.278   2.872   3.995
20323SOL     OW62865   5.812  14.780   8.811
20323SOL    HW162866   5.762  14.786   8.892
20323SOL    HW262867   5.869  14.704   8.824
20324SOL     OW62868  10.535   8.818   8.562
20324SOL    HW162869  10.625   8.835   8.535
20324SOL    HW262870  10.492   8.787   8.483
20325SOL     OW62871   6.776  13.872  14.431
20325SOL    HW162872   6.818  13.842  14.350
20325SOL    HW262873   6.757  13.964  14.415
20326SOL     OW62874   6.779   2.233   8.915
20326SOL    HW162875   6.711   2.169   8.933
20326SOL    HW262876   6.776   2.245   8.820
20327SOL     OW62877   5.916  12.331   3.996
20327SOL    HW162878   6.000  12.296   4.025
20327SOL    HW262879   5.879  12.373   4.074
20328SOL     OW62880  10.684  13.472   9.699
20328SOL    HW162881  10.625  13.463   9.625
20328SOL    HW262882  10.768  13.441   9.667
20329SOL     OW62883  12.244   9.659  13.080
20329SOL    HW162884  12.307   9.623  13.142
20329SOL    HW262885  12.159   9.646  13.123
20330SOL     OW62886   6.741   2.263   8.642
20330SOL    HW162887   6.802   2.334   8.621
20330SOL    HW262888   6.766   2.192   8.583
20331SOL     OW62889   1.770   0.589   5.964
20331SOL    HW162890   1.725   0.517   6.009
20331SOL    HW262891   1.713   0.609   5.889
20332SOL     OW62892   9.411  10.956  12.048
20332SOL    HW162893   9.383  11.015  12.118
20332SOL    HW262894   9.398  10.868  12.083
20333SOL     OW62895  12.748   2.259   8.263
20333SOL    HW162896  12.767   2.351   8.278
20333SOL    HW262897  12.780   2.214   8.341
20334SOL     OW62898  11.912  11.270   9.312
20334SOL    HW162899  11.856  11.328   9.363
20334SOL    HW262900  11.881  11.280   9.222
20335SOL     OW62901   0.561   7.554  14.655
20335SOL    HW162902   0.533   7.571  14.745
20335SOL    HW262903   0.615   7.630  14.631
20336SOL     OW62904  10.598   2.478  10.369
20336SOL    HW162905  10.629   2.546  10.428
20336SOL    HW262906  10.528   2.434  10.418
20337SOL     OW62907   4.141   9.811  12.617
20337SOL    HW162908   4.145   9.864  12.697
20337SOL    HW262909   4.163   9.723  12.647
20338SOL     OW62910  11.128   8.031  10.211
20338SOL    HW162911  11.160   7.944  10.234
20338SOL    HW262912  11.034   8.026  10.222
20339SOL     OW62913   4.177   0.360  14.421
20339SOL    HW162914   4.176   0.373  14.516
20339SOL    HW262915   4.256   0.309  14.405
20340SOL     OW62916   6.480  10.751   7.932
20340SOL    HW162917   6.422  10.682   7.898
20340SOL    HW262918   6.546  10.704   7.982
20341SOL     OW62919   5.017   4.708   4.425
20341SOL    HW162920   4.933   4.736   4.462
20341SOL    HW262921   5.081   4.724   4.494
20342SOL     OW62922   2.872  13.185  14.307
20342SOL    HW162923   2.830  13.119  14.252
20342SOL    HW262924   2.826  13.179  14.391
20343SOL     OW62925   3.962   1.290   1.478
20343SOL    HW162926   3.871   1.318   1.467
20343SOL    HW262927   3.965   1.252   1.566
20344SOL     OW62928   2.981  12.617  13.347
20344SOL    HW162929   2.902  12.668  13.366
20344SOL    HW262930   3.024  12.664  13.277
20345SOL     OW62931   4.532   4.492  14.871
20345SOL    HW162932   4.506   4.419  14.817
20345SOL    HW262933   4.463   4.500   0.049
20346SOL     OW62934  14.183   2.733  11.486
20346SOL    HW162935  14.147   2.756  11.401
20346SOL    HW262936  14.226   2.812  11.517
20347SOL     OW62937   4.049   9.690   1.277
20347SOL    HW162938   3.992   9.661   1.205
20347SOL    HW262939   4.074   9.779   1.253
20348SOL     OW62940  14.804  10.389   1.492
20348SOL    HW162941  14.820  10.437   1.573
20348SOL    HW262942  14.723  10.342   1.508
20349SOL     OW62943   4.500   6.756  13.375
20349SOL    HW162944   4.485   6.706  13.455
20349SOL    HW262945   4.437   6.721  13.312
20350SOL     OW62946   3.584  13.600   6.374
20350SOL    HW162947   3.499  13.644   6.373
20350SOL    HW262948   3.604  13.584   6.282
20351SOL     OW62949   8.238   6.664  10.997
20351SOL    HW162950   8.151   6.699  10.979
20351SOL    HW262951   8.245   6.665  11.092
20352SOL     OW62952   5.714   3.260   4.889
20352SOL    HW162953   5.809   3.277   4.891
20352SOL    HW262954   5.681   3.323   4.825
20353SOL     OW62955  11.420  13.230   2.616
20353SOL    HW162956  11.329  13.254   2.633
20353SOL    HW262957  11.468  13.269   2.689
20354SOL     OW62958   3.243  14.164   8.421
20354SOL    HW162959   3.214  14.110   8.494
20354SOL    HW262960   3.260  14.102   8.350
20355SOL     OW62961  11.095   4.704  13.471
20355SOL    HW162962  11.187   4.687  13.452
20355SOL    HW262963  11.097   4.770  13.540
20356SOL     OW62964   4.593  11.698   2.554
20356SOL    HW162965   4.530  11.642   2.507
20356SOL    HW262966   4.677  11.679   2.513
20357SOL     OW62967   8.150   2.199  13.954
20357SOL    HW162968   8.156   2.272  13.893
20357SOL    HW262969   8.080   2.144  13.919
20358SOL     OW62970   3.265  12.538   7.113
20358SOL    HW162971   3.262  12.518   7.206
20358SOL    HW262972   3.193  12.486   7.075
20359SOL     OW62973   5.428   5.245   4.673
20359SOL    HW162974   5.355   5.224   4.731
20359SOL    HW262975   5.398   5.215   4.587
20360SOL     OW62976   0.521  10.326   2.534
20360SOL    HW162977   0.480  10.408   2.560
20360SOL    HW262978   0.595  10.316   2.593
20361SOL     OW62979   1.680   7.458   0.270
20361SOL    HW162980   1.649   7.477   0.358
20361SOL    HW262981   1.774   7.442   0.280
20362SOL     OW62982  13.796  10.232   7.198
20362SOL    HW162983  13.732  10.301   7.182
20362SOL    HW262984  13.881  10.275   7.185
20363SOL     OW62985   9.510  10.058   2.889
20363SOL    HW162986   9.457  10.117   2.835
20363SOL    HW262987   9.503  10.095   2.978
20364SOL     OW62988  10.355   1.601   4.193
20364SOL    HW162989  10.343   1.674   4.133
20364SOL    HW262990  10.360   1.641   4.280
20365SOL     OW62991   8.504   5.651  13.115
20365SOL    HW162992   8.482   5.741  13.092
20365SOL    HW262993   8.472   5.640  13.204
20366SOL     OW62994  10.560   9.092   9.831
20366SOL    HW162995  10.505   9.055   9.901
20366SOL    HW262996  10.509   9.078   9.751
20367SOL     OW62997   5.581   7.058   3.002
20367SOL    HW162998   5.495   7.058   3.045
20367SOL    HW262999   5.638   7.105   3.063
20368SOL     OW63000   3.345   7.465  11.987
20368SOL    HW163001   3.359   7.517  12.066
20368SOL    HW263002   3.363   7.525  11.915
20369SOL     OW63003   4.588   2.156   4.576
20369SOL    HW163004   4.629   2.191   4.656
20369SOL    HW263005   4.494   2.160   4.593
20370SOL     OW63006  12.272   5.567  12.331
20370SOL    HW163007  12.188   5.595  12.368
20370SOL    HW263008  12.288   5.482  12.371
20371SOL     OW63009  12.153  10.188   5.652
20371SOL    HW163010  12.228  10.140   5.617
20371SOL    HW263011  12.169  10.279   5.627
20372SOL     OW63012   9.652   6.987   3.470
20372SOL    HW163013   9.564   7.007   3.501
20372SOL    HW263014   9.703   7.065   3.493
20373SOL     OW63015   7.930   6.205   0.578
20373SOL    HW163016   8.012   6.156   0.583
20373SOL    HW263017   7.943   6.265   0.505
20374SOL     OW63018  11.379   1.506   5.162
20374SOL    HW163019  11.397   1.514   5.068
20374SOL    HW263020  11.461   1.528   5.204
20375SOL     OW63021  14.164   9.197   9.114
20375SOL    HW163022  14.134   9.288   9.110
20375SOL    HW263023  14.083   9.146   9.113
20376SOL     OW63024  11.863  14.391   2.118
20376SOL    HW163025  11.769  14.406   2.115
20376SOL    HW263026  11.900  14.461   2.064
20377SOL     OW63027   3.353  11.992   4.540
20377SOL    HW163028   3.410  12.052   4.491
20377SOL    HW263029   3.402  11.911   4.546
20378SOL     OW63030   7.371  11.714   5.487
20378SOL    HW163031   7.282  11.707   5.521
20378SOL    HW263032   7.369  11.665   5.405
20379SOL     OW63033  11.555   1.583  14.822
20379SOL    HW163034  11.541   1.582  14.727
20379SOL    HW263035  11.647   1.606  14.832
20380SOL     OW63036   6.970  11.634   1.971
20380SOL    HW163037   7.064  11.647   1.969
20380SOL    HW263038   6.944  11.658   2.060
20381SOL     OW63039   2.532   0.472  10.423
20381SOL    HW163040   2.559   0.476  10.514
20381SOL    HW263041   2.486   0.555  10.408
20382SOL     OW63042   4.611   6.156   1.983
20382SOL    HW163043   4.544   6.167   2.050
20382SOL    HW263044   4.690   6.132   2.033
20383SOL     OW63045  12.473   3.792   1.414
20383SOL    HW163046  12.436   3.751   1.492
20383SOL    HW263047  12.528   3.863   1.448
20384SOL     OW63048   5.557   7.499   1.962
20384SOL    HW163049   5.547   7.592   1.981
20384SOL    HW263050   5.577   7.460   2.047
20385SOL     OW63051   5.118  12.592  14.206
20385SOL    HW163052   5.088  12.660  14.146
20385SOL    HW263053   5.203  12.624  14.238
20386SOL     OW63054   6.779   5.198  11.811
20386SOL    HW163055   6.774   5.232  11.721
20386SOL    HW263056   6.721   5.122  11.810
20387SOL     OW63057   5.496  13.051   8.842
20387SOL    HW163058   5.519  13.035   8.751
20387SOL    HW263059   5.532  12.976   8.889
20388SOL     OW63060   0.730  12.016  14.773
20388SOL    HW163061   0.783  11.962  14.832
20388SOL    HW263062   0.653  11.963  14.755
20389SOL     OW63063   0.293  12.659  10.202
20389SOL    HW163064   0.369  12.634  10.150
20389SOL    HW263065   0.272  12.581  10.252
20390SOL     OW63066   2.338   1.648   5.131
20390SOL    HW163067   2.306   1.725   5.083
20390SOL    HW263068   2.344   1.678   5.221
20391SOL     OW63069   5.083   6.662   1.573
20391SOL    HW163070   5.095   6.707   1.657
20391SOL    HW263071   5.102   6.570   1.592
20392SOL     OW63072  14.366  11.216   1.198
20392SOL    HW163073  14.390  11.306   1.176
20392SOL    HW263074  14.270  11.216   1.200
20393SOL     OW63075   3.333  10.776   2.622
20393SOL    HW163076   3.294  10.724   2.551
20393SOL    HW263077   3.264  10.781   2.688
20394SOL     OW63078   4.027   6.513  13.358
20394SOL    HW163079   4.004   6.581  13.295
20394SOL    HW263080   4.009   6.431  13.312
20395SOL     OW63081   0.980   4.202  12.564
20395SOL    HW163082   0.971   4.106  12.561
20395SOL    HW263083   0.965   4.223  12.657
20396SOL     OW63084  10.456  14.134  11.114
20396SOL    HW163085  10.430  14.143  11.022
20396SOL    HW263086  10.427  14.046  11.138
20397SOL     OW63087   6.051  13.554   4.270
20397SOL    HW163088   6.125  13.542   4.212
20397SOL    HW263089   6.087  13.541   4.358
20398SOL     OW63090   6.354   7.168  14.042
20398SOL    HW163091   6.266   7.135  14.061
20398SOL    HW263092   6.359   7.167  13.946
20399SOL     OW63093  13.565   4.295  11.439
20399SOL    HW163094  13.591   4.250  11.519
20399SOL    HW263095  13.548   4.385  11.466
20400SOL     OW63096   7.340  14.418   4.520
20400SOL    HW163097   7.426  14.399   4.482
20400SOL    HW263098   7.278  14.383   4.457
20401SOL     OW63099   7.402   4.808  13.174
20401SOL    HW163100   7.329   4.753  13.144
20401SOL    HW263101   7.443   4.839  13.093
20402SOL     OW63102   2.023  12.039   6.173
20402SOL    HW163103   2.012  12.058   6.266
20402SOL    HW263104   1.968  11.962   6.157
20403SOL     OW63105   4.476   3.577   5.934
20403SOL    HW163106   4.437   3.532   6.009
20403SOL    HW263107   4.401   3.596   5.877
20404SOL     OW63108  14.790   3.908   7.240
20404SOL    HW163109  14.744   3.935   7.319
20404SOL    HW263110  14.819   3.819   7.258
20405SOL     OW63111   4.319  14.886   8.500
20405SOL    HW163112   4.380   0.009   8.573
20405SOL    HW263113   4.364  14.827   8.439
20406SOL     OW63114  14.526   1.629   5.712
20406SOL    HW163115  14.473   1.692   5.663
20406SOL    HW263116  14.491   1.633   5.801
20407SOL     OW63117   1.629  11.023   9.126
20407SOL    HW163118   1.573  10.998   9.199
20407SOL    HW263119   1.696  11.080   9.165
20408SOL     OW63120   9.138   6.273  11.530
20408SOL    HW163121   9.094   6.353  11.504
20408SOL    HW263122   9.226   6.301  11.557
20409SOL     OW63123   2.311   0.347  11.239
20409SOL    HW163124   2.283   0.257  11.253
20409SOL    HW263125   2.315   0.385  11.326
20410SOL     OW63126   0.522   1.548  11.396
20410SOL    HW163127   0.547   1.583  11.482
20410SOL    HW263128   0.548   1.616  11.334
20411SOL     OW63129   4.085   0.373   9.759
20411SOL    HW163130   4.030   0.451   9.754
20411SOL    HW263131   4.037   0.314   9.818
20412SOL     OW63132   1.313   1.233   5.461
20412SOL    HW163133   1.219   1.247   5.451
20412SOL    HW263134   1.324   1.138   5.450
20413SOL     OW63135  14.011   7.852   6.429
20413SOL    HW163136  14.027   7.900   6.511
20413SOL    HW263137  14.092   7.806   6.412
20414SOL     OW63138   1.921   4.158   1.579
20414SOL    HW163139   1.991   4.185   1.639
20414SOL    HW263140   1.927   4.220   1.506
20415SOL     OW63141   9.780   3.669  14.813
20415SOL    HW163142   9.870   3.689  14.838
20415SOL    HW263143   9.729   3.685   0.005
20416SOL     OW63144   1.241   8.323   7.149
20416SOL    HW163145   1.208   8.251   7.202
20416SOL    HW263146   1.196   8.313   7.065
20417SOL     OW63147  13.393  10.384   5.869
20417SOL    HW163148  13.330  10.346   5.808
20417SOL    HW263149  13.462  10.419   5.813
20418SOL     OW63150   4.479   9.074  10.726
20418SOL    HW163151   4.440   9.069  10.814
20418SOL    HW263152   4.572   9.090  10.742
20419SOL     OW63153   4.664  12.129  11.416
20419SOL    HW163154   4.737  12.095  11.364
20419SOL    HW263155   4.705  12.188  11.479
20420SOL     OW63156  11.082  11.629   3.275
20420SOL    HW163157  11.097  11.545   3.232
20420SOL    HW263158  10.989  11.647   3.262
20421SOL     OW63159   8.169   4.586   6.174
20421SOL    HW163160   8.180   4.568   6.267
20421SOL    HW263161   8.234   4.654   6.155
20422SOL     OW63162   3.364  12.436  11.139
20422SOL    HW163163   3.320  12.521  11.134
20422SOL    HW263164   3.330  12.396  11.219
20423SOL     OW63165   9.497  12.172   5.451
20423SOL    HW163166   9.516  12.081   5.477
20423SOL    HW263167   9.483  12.168   5.357
20424SOL     OW63168   6.003   9.288  14.668
20424SOL    HW163169   6.080   9.233  14.651
20424SOL    HW263170   5.952   9.283  14.587
20425SOL     OW63171  13.535  12.529   6.695
20425SOL    HW163172  13.541  12.484   6.610
20425SOL    HW263173  13.618  12.510   6.738
20426SOL     OW63174   9.009  14.854   3.764
20426SOL    HW163175   9.069  14.817   3.830
20426SOL    HW263176   9.062   0.032   3.719
20427SOL     OW63177   5.386   0.061   3.021
20427SOL    HW163178   5.334   0.058   2.941
20427SOL    HW263179   5.408   0.153   3.032
20428SOL     OW63180  14.685   1.216   0.726
20428SOL    HW163181  14.719   1.299   0.759
20428SOL    HW263182  14.590   1.230   0.723
20429SOL     OW63183  11.293   7.773  10.706
20429SOL    HW163184  11.217   7.830  10.711
20429SOL    HW263185  11.288   7.733  10.619
20430SOL     OW63186   4.978   1.123  12.644
20430SOL    HW163187   4.916   1.151  12.575
20430SOL    HW263188   5.004   1.035  12.618
20431SOL     OW63189   8.750   4.917   9.671
20431SOL    HW163190   8.727   4.979   9.602
20431SOL    HW263191   8.842   4.897   9.656
20432SOL     OW63192   8.337   4.020   9.642
20432SOL    HW163193   8.306   3.980   9.723
20432SOL    HW263194   8.258   4.037   9.591
20433SOL     OW63195   4.305   1.695   4.340
20433SOL    HW163196   4.390   1.738   4.350
20433SOL    HW263197   4.283   1.666   4.429
20434SOL     OW63198  14.137   0.887   5.261
20434SOL    HW163199  14.148   0.836   5.341
20434SOL    HW263200  14.046   0.873   5.236
20435SOL     OW63201   8.694  13.413   5.771
20435SOL    HW163202   8.769  13.463   5.803
20435SOL    HW263203   8.724  13.322   5.773
20436SOL     OW63204   1.866   2.220  11.789
20436SOL    HW163205   1.897   2.135  11.759
20436SOL    HW263206   1.828   2.204  11.875
20437SOL     OW63207  11.940   4.077   2.057
20437SOL    HW163208  11.920   4.018   1.984
20437SOL    HW263209  11.866   4.138   2.059
20438SOL     OW63210   9.223   9.179   1.563
20438SOL    HW163211   9.212   9.093   1.522
20438SOL    HW263212   9.185   9.169   1.650
20439SOL     OW63213   4.577   1.112  13.581
20439SOL    HW163214   4.633   1.054  13.633
20439SOL    HW263215   4.498   1.123  13.635
20440SOL     OW63216   1.859   4.119   6.909
20440SOL    HW163217   1.898   4.055   6.850
20440SOL    HW263218   1.765   4.105   6.901
20441SOL     OW63219   6.016  10.470  12.833
20441SOL    HW163220   5.928  10.501  12.854
20441SOL    HW263221   6.048  10.432  12.914
20442SOL     OW63222   2.769   7.326  10.032
20442SOL    HW163223   2.813   7.241  10.035
20442SOL    HW263224   2.790   7.361   9.945
20443SOL     OW63225  11.569   7.659   2.404
20443SOL    HW163226  11.544   7.731   2.462
20443SOL    HW263227  11.510   7.588   2.427
20444SOL     OW63228   9.736  12.500  10.391
20444SOL    HW163229   9.732  12.562  10.318
20444SOL    HW263230   9.672  12.535  10.454
20445SOL     OW63231   6.793  12.154  12.310
20445SOL    HW163232   6.851  12.225  12.283
20445SOL    HW263233   6.851  12.080  12.328
20446SOL     OW63234  12.242   8.811   1.309
20446SOL    HW163235  12.176   8.812   1.240
20446SOL    HW263236  12.231   8.726   1.352
20447SOL     OW63237  10.147   9.956   3.285
20447SOL    HW163238  10.159   9.906   3.204
20447SOL    HW263239  10.234   9.962   3.323
20448SOL     OW63240   5.279   5.228   5.837
20448SOL    HW163241   5.206   5.280   5.869
20448SOL    HW263242   5.283   5.248   5.743
20449SOL     OW63243   2.371   4.594   2.497
20449SOL    HW163244   2.278   4.616   2.492
20449SOL    HW263245   2.372   4.503   2.528
20450SOL     OW63246   7.532   3.073  12.828
20450SOL    HW163247   7.590   3.048  12.900
20450SOL    HW263248   7.591   3.080  12.752
20451SOL     OW63249   9.274   5.801   4.572
20451SOL    HW163250   9.356   5.753   4.581
20451SOL    HW263251   9.247   5.820   4.662
20452SOL     OW63252   8.219   4.853   4.313
20452SOL    HW163253   8.292   4.795   4.288
20452SOL    HW263254   8.166   4.859   4.234
20453SOL     OW63255  11.697   3.328   2.010
20453SOL    HW163256  11.603   3.309   2.008
20453SOL    HW263257  11.703   3.422   2.027
20454SOL     OW63258   4.306  13.939   1.258
20454SOL    HW163259   4.211  13.938   1.247
20454SOL    HW263260   4.322  13.881   1.332
20455SOL     OW63261  11.051   5.727  14.705
20455SOL    HW163262  11.121   5.727  14.771
20455SOL    HW263263  11.076   5.656  14.645
20456SOL     OW63264   9.063   9.060  14.856
20456SOL    HW163265   9.010   9.021   0.038
20456SOL    HW263266   9.145   9.012  14.859
20457SOL     OW63267   9.114  12.864  11.809
20457SOL    HW163268   9.148  12.952  11.797
20457SOL    HW263269   9.182  12.807  11.772
20458SOL     OW63270   7.523  13.990  13.589
20458SOL    HW163271   7.605  13.974  13.635
20458SOL    HW263272   7.537  14.073  13.542
20459SOL     OW63273  14.284  10.637   4.531
20459SOL    HW163274  14.342  10.613   4.459
20459SOL    HW263275  14.297  10.731   4.542
20460SOL     OW63276   5.331   7.888   9.428
20460SOL    HW163277   5.283   7.828   9.486
20460SOL    HW263278   5.281   7.969   9.430
20461SOL     OW63279  13.569  12.905   3.159
20461SOL    HW163280  13.632  12.922   3.090
20461SOL    HW263281  13.486  12.892   3.114
20462SOL     OW63282  11.916   0.333   0.085
20462SOL    HW163283  11.989   0.359   0.141
20462SOL    HW263284  11.866   0.413   0.072
20463SOL     OW63285  10.055   9.189   2.552
20463SOL    HW163286   9.995   9.263   2.563
20463SOL    HW263287  10.128   9.226   2.502
20464SOL     OW63288   6.940  12.019   2.697
20464SOL    HW163289   6.849  12.049   2.701
20464SOL    HW263290   6.989  12.097   2.671
20465SOL     OW63291   0.403  13.470   6.734
20465SOL    HW163292   0.491  13.463   6.772
20465SOL    HW263293   0.355  13.397   6.772
20466SOL     OW63294  14.064   5.810   0.184
20466SOL    HW163295  14.155   5.790   0.206
20466SOL    HW263296  14.063   5.815   0.088
20467SOL     OW63297  10.543   3.367   9.978
20467SOL    HW163298  10.513   3.277   9.986
20467SOL    HW263299  10.635   3.360   9.953
20468SOL     OW63300   2.421   4.116   8.235
20468SOL    HW163301   2.389   4.085   8.320
20468SOL    HW263302   2.393   4.207   8.230
20469SOL     OW63303   9.473   0.611   8.866
20469SOL    HW163304   9.557   0.619   8.911
20469SOL    HW263305   9.414   0.669   8.913
20470SOL     OW63306   1.193   8.101   0.346
20470SOL    HW163307   1.108   8.060   0.363
20470SOL    HW263308   1.188   8.130   0.255
20471SOL     OW63309   8.957   8.520   6.856
20471SOL    HW163310   8.941   8.608   6.891
20471SOL    HW263311   8.942   8.461   6.930
20472SOL     OW63312   2.159   5.895   0.886
20472SOL    HW163313   2.077   5.847   0.884
20472SOL    HW263314   2.218   5.839   0.936
20473SOL     OW63315   6.246  11.853   8.562
20473SOL    HW163316   6.171  11.893   8.518
20473SOL    HW263317   6.284  11.794   8.496
20474SOL     OW63318   2.664  11.816   8.577
20474SOL    HW163319   2.729  11.749   8.596
20474SOL    HW263320   2.625  11.788   8.493
20475SOL     OW63321  13.960   0.993   1.228
20475SOL    HW163322  13.981   1.086   1.237
20475SOL    HW263323  13.923   0.969   1.313
20476SOL     OW63324   7.762   3.056   3.631
20476SOL    HW163325   7.765   3.037   3.724
20476SOL    HW263326   7.744   3.150   3.626
20477SOL     OW63327  10.189   4.340   1.108
20477SOL    HW163328  10.256   4.403   1.135
20477SOL    HW263329  10.114   4.394   1.084
20478SOL     OW63330   2.191   0.388  10.972
20478SOL    HW163331   2.252   0.373  11.044
20478SOL    HW263332   2.135   0.460  11.004
20479SOL     OW63333   0.431   1.923  14.255
20479SOL    HW163334   0.401   2.013  14.262
20479SOL    HW263335   0.524   1.927  14.275
20480SOL     OW63336   1.828  13.902  11.075
20480SOL    HW163337   1.791  13.815  11.090
20480SOL    HW263338   1.761  13.949  11.026
20481SOL     OW63339  13.973   8.331   2.765
20481SOL    HW163340  13.915   8.405   2.744
20481SOL    HW263341  14.054   8.350   2.718
20482SOL     OW63342   6.988   2.497  10.304
20482SOL    HW163343   6.965   2.405  10.321
20482SOL    HW263344   7.037   2.494  10.221
20483SOL     OW63345   3.536   4.337   6.680
20483SOL    HW163346   3.484   4.298   6.751
20483SOL    HW263347   3.473   4.387   6.629
20484SOL     OW63348   9.677  14.565   5.438
20484SOL    HW163349   9.625  14.644   5.427
20484SOL    HW263350   9.614  14.499   5.469
20485SOL     OW63351   7.776  13.677   0.435
20485SOL    HW163352   7.723  13.613   0.482
20485SOL    HW263353   7.747  13.670   0.344
20486SOL     OW63354  11.539   8.658  13.940
20486SOL    HW163355  11.490   8.726  13.985
20486SOL    HW263356  11.477   8.624  13.874
20487SOL     OW63357   2.861   3.515  10.942
20487SOL    HW163358   2.826   3.489  11.026
20487SOL    HW263359   2.798   3.578  10.908
20488SOL     OW63360   8.920   7.600  10.371
20488SOL    HW163361   8.942   7.648  10.291
20488SOL    HW263362   8.901   7.668  10.435
20489SOL     OW63363  14.521   1.080   4.145
20489SOL    HW163364  14.508   0.987   4.126
20489SOL    HW263365  14.448   1.102   4.204
20490SOL     OW63366   5.839  11.890   3.931
20490SOL    HW163367   5.823  11.905   3.837
20490SOL    HW263368   5.790  11.810   3.951
20491SOL     OW63369   6.960  13.228   2.761
20491SOL    HW163370   7.034  13.229   2.700
20491SOL    HW263371   6.952  13.136   2.786
20492SOL     OW63372   5.657   9.762   2.694
20492SOL    HW163373   5.638   9.856   2.694
20492SOL    HW263374   5.588   9.724   2.749
20493SOL     OW63375  14.666  11.712   5.304
20493SOL    HW163376  14.735  11.776   5.284
20493SOL    HW263377  14.713  11.628   5.311
20494SOL     OW63378   5.387  13.442   9.529
20494SOL    HW163379   5.340  13.361   9.508
20494SOL    HW263380   5.322  13.511   9.514
20495SOL     OW63381  14.039   0.142   7.835
20495SOL    HW163382  14.042   0.238   7.836
20495SOL    HW263383  13.998   0.120   7.752
20496SOL     OW63384   3.969  11.360   7.107
20496SOL    HW163385   3.898  11.425   7.108
20496SOL    HW263386   3.935  11.287   7.159
20497SOL     OW63387   6.577   9.214   9.474
20497SOL    HW163388   6.556   9.152   9.405
20497SOL    HW263389   6.667   9.241   9.457
20498SOL     OW63390   6.935   1.312  14.165
20498SOL    HW163391   6.954   1.286  14.074
20498SOL    HW263392   6.976   1.398  14.174
20499SOL     OW63393   2.798  13.766   2.524
20499SOL    HW163394   2.840  13.778   2.609
20499SOL    HW263395   2.869  13.737   2.466
20500SOL     OW63396   4.126   9.962   1.118
20500SOL    HW163397   4.081   9.910   1.051
20500SOL    HW263398   4.208   9.989   1.076
20501SOL     OW63399   0.272   3.258  11.576
20501SOL    HW163400   0.265   3.199  11.501
20501SOL    HW263401   0.237   3.208  11.650
20502SOL     OW63402   3.934   3.154   0.279
20502SOL    HW163403   3.942   3.096   0.355
20502SOL    HW263404   3.878   3.105   0.218
20503SOL     OW63405   5.350  13.607  10.061
20503SOL    HW163406   5.386  13.554   9.990
20503SOL    HW263407   5.315  13.685  10.018
20504SOL     OW63408  11.039   6.594  11.224
20504SOL    HW163409  11.011   6.531  11.158
20504SOL    HW263410  11.089   6.659  11.176
20505SOL     OW63411   6.738   3.357   9.376
20505SOL    HW163412   6.769   3.288   9.318
20505SOL    HW263413   6.815   3.383   9.426
20506SOL     OW63414   9.173   3.800   3.527
20506SOL    HW163415   9.235   3.755   3.585
20506SOL    HW263416   9.089   3.791   3.571
20507SOL     OW63417  14.316   2.304   8.403
20507SOL    HW163418  14.257   2.296   8.329
20507SOL    HW263419  14.287   2.237   8.465
20508SOL     OW63420  14.420   8.430  13.311
20508SOL    HW163421  14.370   8.351  13.335
20508SOL    HW263422  14.490   8.435  13.377
20509SOL     OW63423  10.518   2.632   1.886
20509SOL    HW163424  10.526   2.631   1.790
20509SOL    HW263425  10.590   2.577   1.916
20510SOL     OW63426   5.296  12.285   6.342
20510SOL    HW163427   5.366  12.327   6.293
20510SOL    HW263428   5.218  12.335   6.321
20511SOL     OW63429   2.488   7.665   9.030
20511SOL    HW163430   2.525   7.633   9.112
20511SOL    HW263431   2.521   7.754   9.022
20512SOL     OW63432   7.108   4.666   8.694
20512SOL    HW163433   7.014   4.686   8.698
20512SOL    HW263434   7.117   4.582   8.738
20513SOL     OW63435   1.592  10.859   9.395
20513SOL    HW163436   1.654  10.882   9.465
20513SOL    HW263437   1.535  10.793   9.434
20514SOL     OW63438  14.163   7.822   4.595
20514SOL    HW163439  14.170   7.826   4.691
20514SOL    HW263440  14.253   7.814   4.565
20515SOL     OW63441  13.528   7.746   7.936
20515SOL    HW163442  13.490   7.680   7.878
20515SOL    HW263443  13.471   7.748   8.012
20516SOL     OW63444   4.640   0.709   5.839
20516SOL    HW163445   4.705   0.777   5.858
20516SOL    HW263446   4.693   0.630   5.824
20517SOL     OW63447   9.332   4.089   4.926
20517SOL    HW163448   9.291   4.149   4.988
20517SOL    HW263449   9.335   4.137   4.843
20518SOL     OW63450  12.559   0.008   2.515
20518SOL    HW163451  12.631  14.836   2.532
20518SOL    HW263452  12.556   0.015   2.419
20519SOL     OW63453   4.672  14.418  12.632
20519SOL    HW163454   4.656  14.329  12.663
20519SOL    HW263455   4.642  14.474  12.703
20520SOL     OW63456   0.174   0.819  12.131
20520SOL    HW163457   0.267   0.842  12.132
20520SOL    HW263458   0.172   0.724  12.135
20521SOL     OW63459  10.766   6.485  12.422
20521SOL    HW163460  10.691   6.509  12.368
20521SOL    HW263461  10.772   6.555  12.487
20522SOL     OW63462   4.398  13.409  10.380
20522SOL    HW163463   4.445  13.414  10.463
20522SOL    HW263464   4.321  13.465  10.393
20523SOL     OW63465   4.762   6.197   4.381
20523SOL    HW163466   4.705   6.265   4.345
20523SOL    HW263467   4.805   6.239   4.457
20524SOL     OW63468   7.770   9.174  11.053
20524SOL    HW163469   7.716   9.149  11.128
20524SOL    HW263470   7.710   9.218  10.993
20525SOL     OW63471   1.632   0.256  14.545
20525SOL    HW163472   1.684   0.204  14.607
20525SOL    HW263473   1.670   0.344  14.551
20526SOL     OW63474   4.039   8.699  10.311
20526SOL    HW163475   3.953   8.670  10.281
20526SOL    HW263476   4.096   8.623  10.297
20527SOL     OW63477   8.897   3.711  10.947
20527SOL    HW163478   8.888   3.776  11.016
20527SOL    HW263479   8.991   3.706  10.931
20528SOL     OW63480  10.022   2.538   5.039
20528SOL    HW163481   9.936   2.507   5.009
20528SOL    HW263482  10.078   2.461   5.031
20529SOL     OW63483   9.253   2.647   0.075
20529SOL    HW163484   9.297   2.586   0.017
20529SOL    HW263485   9.224   2.595   0.149
20530SOL     OW63486   7.041   8.638   5.658
20530SOL    HW163487   7.103   8.690   5.607
20530SOL    HW263488   7.094   8.597   5.726
20531SOL     OW63489   7.461   8.747   7.315
20531SOL    HW163490   7.490   8.787   7.233
20531SOL    HW263491   7.527   8.680   7.333
20532SOL     OW63492   7.334   3.918   5.845
20532SOL    HW163493   7.346   3.825   5.866
20532SOL    HW263494   7.240   3.932   5.853
20533SOL     OW63495  10.787   1.480  12.497
20533SOL    HW163496  10.741   1.398  12.477
20533SOL    HW263497  10.726   1.549  12.470
20534SOL     OW63498   1.009   1.049   2.330
20534SOL    HW163499   1.054   1.061   2.413
20534SOL    HW263500   0.918   1.074   2.348
20535SOL     OW63501  12.722   5.849   3.859
20535SOL    HW163502  12.709   5.944   3.849
20535SOL    HW263503  12.743   5.819   3.770
20536SOL     OW63504   8.641  11.372  13.160
20536SOL    HW163505   8.585  11.391  13.085
20536SOL    HW263506   8.610  11.288  13.192
20537SOL     OW63507  10.024   8.975   1.475
20537SOL    HW163508  10.057   9.048   1.527
20537SOL    HW263509   9.937   8.957   1.512
20538SOL     OW63510   2.987   2.649   4.948
20538SOL    HW163511   2.971   2.654   5.042
20538SOL    HW263512   2.900   2.648   4.908
20539SOL     OW63513  14.498   8.262   7.499
20539SOL    HW163514  14.577   8.282   7.550
20539SOL    HW263515  14.461   8.348   7.478
20540SOL     OW63516   7.003   3.050   9.686
20540SOL    HW163517   7.028   2.990   9.616
20540SOL    HW263518   7.086   3.082   9.721
20541SOL     OW63519   6.481   5.297   8.133
20541SOL    HW163520   6.560   5.348   8.153
20541SOL    HW263521   6.492   5.216   8.184
20542SOL     OW63522  13.216   2.384  10.465
20542SOL    HW163523  13.286   2.329  10.501
20542SOL    HW263524  13.143   2.373  10.526
20543SOL     OW63525   2.520   4.730  11.001
20543SOL    HW163526   2.442   4.697  10.956
20543SOL    HW263527   2.555   4.796  10.942
20544SOL     OW63528  12.063   7.566  10.232
20544SOL    HW163529  11.996   7.513  10.189
20544SOL    HW263530  12.146   7.526  10.204
20545SOL     OW63531   5.160  10.357   8.601
20545SOL    HW163532   5.153  10.352   8.696
20545SOL    HW263533   5.070  10.350   8.570
20546SOL     OW63534   2.140   6.692   1.526
20546SOL    HW163535   2.221   6.723   1.485
20546SOL    HW263536   2.146   6.722   1.617
20547SOL     OW63537   4.891   9.743   6.325
20547SOL    HW163538   4.945   9.670   6.297
20547SOL    HW263539   4.835   9.762   6.249
20548SOL     OW63540  14.074   6.388   9.934
20548SOL    HW163541  14.114   6.475   9.944
20548SOL    HW263542  13.985   6.399   9.969
20549SOL     OW63543   4.521  11.926   8.020
20549SOL    HW163544   4.503  11.995   7.956
20549SOL    HW263545   4.599  11.957   8.066
20550SOL     OW63546   2.219   7.377  14.466
20550SOL    HW163547   2.194   7.376  14.374
20550SOL    HW263548   2.140   7.348  14.513
20551SOL     OW63549   8.713  11.618  12.545
20551SOL    HW163550   8.690  11.657  12.461
20551SOL    HW263551   8.703  11.689  12.608
20552SOL     OW63552   6.991   9.668   2.580
20552SOL    HW163553   6.922   9.687   2.645
20552SOL    HW263554   6.959   9.707   2.499
20553SOL     OW63555   1.969   0.324  11.167
20553SOL    HW163556   1.987   0.269  11.243
20553SOL    HW263557   2.054   0.361  11.143
20554SOL     OW63558   8.736  14.311   8.152
20554SOL    HW163559   8.810  14.251   8.139
20554SOL    HW263560   8.741  14.336   8.244
20555SOL     OW63561  12.020   9.864  13.331
20555SOL    HW163562  12.007   9.807  13.254
20555SOL    HW263563  12.104   9.837  13.367
20556SOL     OW63564  11.348   5.149   5.415
20556SOL    HW163565  11.385   5.095   5.345
20556SOL    HW263566  11.384   5.236   5.399
20557SOL     OW63567   2.407  13.419  10.301
20557SOL    HW163568   2.466  13.493  10.289
20557SOL    HW263569   2.447  13.347  10.253
20558SOL     OW63570   1.558   2.874  10.570
20558SOL    HW163571   1.492   2.808  10.550
20558SOL    HW263572   1.614   2.876  10.492
20559SOL     OW63573   0.777   9.078   1.193
20559SOL    HW163574   0.779   9.020   1.117
20559SOL    HW263575   0.823   9.157   1.164
20560SOL     OW63576   3.976  10.899   7.095
20560SOL    HW163577   3.913  10.931   7.160
20560SOL    HW263578   3.924  10.888   7.015
20561SOL     OW63579   7.374   2.844   3.991
20561SOL    HW163580   7.453   2.792   4.009
20561SOL    HW263581   7.338   2.804   3.912
20562SOL     OW63582   3.132   7.065  12.627
20562SOL    HW163583   3.133   6.998  12.558
20562SOL    HW263584   3.148   7.147  12.581
20563SOL     OW63585   9.156   1.888  13.012
20563SOL    HW163586   9.133   1.884  12.919
20563SOL    HW263587   9.084   1.842  13.057
20564SOL     OW63588   0.500   2.827   1.759
20564SOL    HW163589   0.422   2.871   1.725
20564SOL    HW263590   0.486   2.823   1.854
20565SOL     OW63591  12.346  14.391  12.006
20565SOL    HW163592  12.294  14.440  11.942
20565SOL    HW263593  12.283  14.331  12.046
20566SOL     OW63594   1.608   8.283   0.023
20566SOL    HW163595   1.684   8.261   0.076
20566SOL    HW263596   1.572   8.362   0.064
20567SOL     OW63597   8.605   1.080   7.327
20567SOL    HW163598   8.543   1.010   7.311
20567SOL    HW263599   8.670   1.072   7.257
20568SOL     OW63600  10.454   6.502   7.379
20568SOL    HW163601  10.406   6.585   7.388
20568SOL    HW263602  10.475   6.478   7.469
20569SOL     OW63603  10.567  14.386   0.585
20569SOL    HW163604  10.531  14.302   0.555
20569SOL    HW263605  10.596  14.430   0.505
20570SOL     OW63606  11.443  11.764  14.723
20570SOL    HW163607  11.392  11.688  14.698
20570SOL    HW263608  11.530  11.747  14.687
20571SOL     OW63609  13.913  12.981   0.850
20571SOL    HW163610  13.999  13.022   0.858
20571SOL    HW263611  13.879  13.012   0.766
20572SOL     OW63612   4.263   6.054   3.744
20572SOL    HW163613   4.170   6.072   3.753
20572SOL    HW263614   4.276   5.971   3.789
20573SOL     OW63615   3.298   0.317  13.840
20573SOL    HW163616   3.380   0.327  13.792
20573SOL    HW263617   3.289   0.398  13.890
20574SOL     OW63618   9.090   6.763   4.572
20574SOL    HW163619   9.142   6.825   4.623
20574SOL    HW263620   9.099   6.680   4.620
20575SOL     OW63621   4.697  11.681   3.203
20575SOL    HW163622   4.773  11.727   3.238
20575SOL    HW263623   4.706  11.688   3.108
20576SOL     OW63624   7.341  10.315   1.153
20576SOL    HW163625   7.254  10.278   1.169
20576SOL    HW263626   7.402  10.245   1.178
20577SOL     OW63627  11.277   3.309   1.730
20577SOL    HW163628  11.226   3.308   1.811
20577SOL    HW263629  11.354   3.256   1.750
20578SOL     OW63630   8.221   0.593  14.388
20578SOL    HW163631   8.233   0.670  14.443
20578SOL    HW263632   8.234   0.625  14.299
20579SOL     OW63633  14.861  14.612   7.063
20579SOL    HW163634  14.809  14.532   7.055
20579SOL    HW263635   0.061  14.581   7.087
20580SOL     OW63636   8.093   8.275   4.644
20580SOL    HW163637   8.136   8.348   4.599
20580SOL    HW263638   8.030   8.317   4.703
20581SOL     OW63639   1.056   4.953  13.663
20581SOL    HW163640   1.109   4.882  13.700
20581SOL    HW263641   1.081   5.030  13.714
20582SOL     OW63642   7.507  12.376   5.419
20582SOL    HW163643   7.591  12.337   5.443
20582SOL    HW263644   7.443  12.305   5.430
20583SOL     OW63645  13.336   3.189   3.543
20583SOL    HW163646  13.377   3.152   3.464
20583SOL    HW263647  13.406   3.239   3.585
20584SOL     OW63648   7.070  11.917   7.329
20584SOL    HW163649   7.132  11.850   7.299
20584SOL    HW263650   7.126  11.993   7.347
20585SOL     OW63651   7.912   2.727  12.175
20585SOL    HW163652   7.932   2.691  12.088
20585SOL    HW263653   7.997   2.733  12.219
20586SOL     OW63654  11.495   8.012  13.588
20586SOL    HW163655  11.586   8.036  13.603
20586SOL    HW263656  11.491   7.918  13.609
20587SOL     OW63657   5.191   9.627   2.498
20587SOL    HW163658   5.106   9.662   2.474
20587SOL    HW263659   5.210   9.561   2.432
20588SOL     OW63660  14.663   7.809   5.353
20588SOL    HW163661  14.568   7.806   5.358
20588SOL    HW263662  14.681   7.860   5.273
20589SOL     OW63663   1.506  13.626   8.833
20589SOL    HW163664   1.563  13.551   8.847
20589SOL    HW263665   1.540  13.668   8.754
20590SOL     OW63666   1.395  10.184  12.967
20590SOL    HW163667   1.338  10.171  13.043
20590SOL    HW263668   1.428  10.097  12.946
20591SOL     OW63669   1.586  10.521   9.353
20591SOL    HW163670   1.668  10.565   9.332
20591SOL    HW263671   1.549  10.498   9.268
20592SOL     OW63672   0.075   2.529   5.219
20592SOL    HW163673   0.095   2.538   5.312
20592SOL    HW263674   0.074   2.619   5.186
20593SOL     OW63675   7.644  14.015  13.944
20593SOL    HW163676   7.669  13.960  13.869
20593SOL    HW263677   7.681  13.970  14.019
20594SOL     OW63678   9.164  10.003  13.215
20594SOL    HW163679   9.197   9.952  13.141
20594SOL    HW263680   9.238  10.011  13.275
20595SOL     OW63681   6.575   6.718   1.541
20595SOL    HW163682   6.640   6.776   1.502
20595SOL    HW263683   6.531   6.679   1.465
20596SOL     OW63684   9.563   0.817  13.264
20596SOL    HW163685   9.522   0.738  13.230
20596SOL    HW263686   9.502   0.887  13.243
20597SOL     OW63687   5.313  11.116   3.775
20597SOL    HW163688   5.220  11.134   3.782
20597SOL    HW263689   5.320  11.045   3.711
20598SOL     OW63690   0.156  11.780  13.549
20598SOL    HW163691   0.118  11.855  13.504
20598SOL    HW263692   0.182  11.814  13.635
20599SOL     OW63693  13.400  14.324   3.998
20599SOL    HW163694  13.432  14.360   3.915
20599SOL    HW263695  13.317  14.371   4.013
20600SOL     OW63696  14.388  14.306   4.845
20600SOL    HW163697  14.413  14.361   4.918
20600SOL    HW263698  14.296  14.329   4.828
20601SOL     OW63699   9.002   6.825   2.018
20601SOL    HW163700   9.031   6.819   1.927
20601SOL    HW263701   8.950   6.905   2.021
20602SOL     OW63702   6.882  14.841  14.608
20602SOL    HW163703   6.897  14.783  14.683
20602SOL    HW263704   6.786  14.850  14.605
20603SOL     OW63705   5.230   0.205   3.878
20603SOL    HW163706   5.278   0.175   3.801
20603SOL    HW263707   5.205   0.125   3.924
20604SOL     OW63708   8.848  10.028   0.068
20604SOL    HW163709   8.794  10.012  14.878
20604SOL    HW263710   8.871  10.121   0.063
20605SOL     OW63711   8.613  13.024   8.986
20605SOL    HW163712   8.652  13.108   8.962
20605SOL    HW263713   8.637  12.965   8.915
20606SOL     OW63714   3.568   6.024   9.555
20606SOL    HW163715   3.639   6.044   9.616
20606SOL    HW263716   3.489   6.050   9.601
20607SOL     OW63717   1.546   3.763  14.438
20607SOL    HW163718   1.554   3.847  14.393
20607SOL    HW263719   1.473   3.719  14.395
20608SOL     OW63720   4.858   2.625   3.589
20608SOL    HW163721   4.953   2.625   3.603
20608SOL    HW263722   4.846   2.680   3.511
20609SOL     OW63723   9.036   7.498   5.992
20609SOL    HW163724   8.958   7.513   5.937
20609SOL    HW263725   9.106   7.545   5.947
20610SOL     OW63726   0.859   0.174   0.648
20610SOL    HW163727   0.765   0.165   0.632
20610SOL    HW263728   0.867   0.253   0.702
20611SOL     OW63729   6.643  11.993   5.906
20611SOL    HW163730   6.735  12.015   5.921
20611SOL    HW263731   6.595  12.052   5.964
20612SOL     OW63732   0.001  14.039   8.238
20612SOL    HW163733   0.020  14.008   8.150
20612SOL    HW263734  14.839  14.120   8.225
20613SOL     OW63735   3.247   4.005   7.746
20613SOL    HW163736   3.322   4.037   7.798
20613SOL    HW263737   3.276   4.014   7.656
20614SOL     OW63738   2.172   4.507   0.424
20614SOL    HW163739   2.248   4.514   0.482
20614SOL    HW263740   2.124   4.431   0.456
20615SOL     OW63741   7.126   8.813   3.295
20615SOL    HW163742   7.074   8.853   3.365
20615SOL    HW263743   7.181   8.749   3.340
20616SOL     OW63744   5.685   2.163  12.533
20616SOL    HW163745   5.639   2.097  12.481
20616SOL    HW263746   5.769   2.174  12.488
20617SOL     OW63747   4.263   5.943   0.296
20617SOL    HW163748   4.349   5.967   0.262
20617SOL    HW263749   4.226   6.026   0.327
20618SOL     OW63750   3.006   4.698   9.495
20618SOL    HW163751   2.964   4.708   9.580
20618SOL    HW263752   3.020   4.604   9.485
20619SOL     OW63753   0.838   1.859  12.915
20619SOL    HW163754   0.846   1.953  12.928
20619SOL    HW263755   0.813   1.849  12.823
20620SOL     OW63756   7.801   5.069  12.464
20620SOL    HW163757   7.834   5.128  12.532
20620SOL    HW263758   7.866   5.074  12.394
20621SOL     OW63759  13.155  11.652   5.723
20621SOL    HW163760  13.144  11.724   5.785
20621SOL    HW263761  13.070  11.610   5.721
20622SOL     OW63762   8.177  12.197  11.753
20622SOL    HW163763   8.083  12.216  11.761
20622SOL    HW263764   8.214  12.229  11.835
20623SOL     OW63765  11.168   1.326   8.929
20623SOL    HW163766  11.198   1.405   8.975
20623SOL    HW263767  11.076   1.317   8.953
20624SOL     OW63768   8.050   7.200  10.723
20624SOL    HW163769   7.980   7.211  10.788
20624SOL    HW263770   8.105   7.130  10.758
20625SOL     OW63771   0.929   6.133   1.403
20625SOL    HW163772   0.919   6.131   1.499
20625SOL    HW263773   0.962   6.046   1.381
20626SOL     OW63774   9.104  12.746   4.546
20626SOL    HW163775   9.116  12.831   4.503
20626SOL    HW263776   9.158  12.752   4.625
20627SOL     OW63777   2.767   8.883   3.513
20627SOL    HW163778   2.802   8.971   3.504
20627SOL    HW263779   2.792   8.839   3.432
20628SOL     OW63780   6.181  13.644  13.899
20628SOL    HW163781   6.182  13.624  13.993
20628SOL    HW263782   6.273  13.636  13.872
20629SOL     OW63783  12.551  11.030  14.624
20629SOL    HW163784  12.497  11.109  14.620
20629SOL    HW263785  12.490  10.958  14.611
20630SOL     OW63786   9.323  13.421   9.553
20630SOL    HW163787   9.228  13.416   9.547
20630SOL    HW263788   9.340  13.497   9.609
20631SOL     OW63789  10.888   9.090   3.525
20631SOL    HW163790  10.945   9.071   3.599
20631SOL    HW263791  10.936   9.155   3.473
20632SOL     OW63792   5.360   1.782   9.080
20632SOL    HW163793   5.382   1.725   9.153
20632SOL    HW263794   5.405   1.743   9.005
20633SOL     OW63795  10.909   7.914   6.997
20633SOL    HW163796  10.819   7.921   7.030
20633SOL    HW263797  10.915   7.825   6.961
20634SOL     OW63798   2.161   7.368  13.031
20634SOL    HW163799   2.242   7.328  13.062
20634SOL    HW263800   2.189   7.447  12.985
20635SOL     OW63801   4.864  10.900  13.782
20635SOL    HW163802   4.917  10.913  13.704
20635SOL    HW263803   4.797  10.836  13.755
20636SOL     OW63804  10.694   5.915   7.686
20636SOL    HW163805  10.610   5.890   7.649
20636SOL    HW263806  10.673   5.946   7.774
20637SOL     OW63807  14.300   0.625  12.776
20637SOL    HW163808  14.338   0.694  12.832
20637SOL    HW263809  14.217   0.662  12.746
20638SOL     OW63810   1.386   4.574   4.954
20638SOL    HW163811   1.417   4.593   4.866
20638SOL    HW263812   1.291   4.586   4.949
20639SOL     OW63813   5.963  14.872   9.718
20639SOL    HW163814   6.016   0.000   9.796
20639SOL    HW263815   5.957  14.777   9.712
20640SOL     OW63816   1.397   8.652  11.113
20640SOL    HW163817   1.482   8.647  11.156
20640SOL    HW263818   1.417   8.645  11.020
20641SOL     OW63819   6.160   4.975   5.167
20641SOL    HW163820   6.199   4.986   5.254
20641SOL    HW263821   6.226   5.008   5.107
20642SOL     OW63822  13.006   3.584   1.562
20642SOL    HW163823  12.975   3.521   1.497
20642SOL    HW263824  12.968   3.554   1.645
20643SOL     OW63825  10.300   1.237   1.627
20643SOL    HW163826  10.381   1.254   1.577
20643SOL    HW263827  10.255   1.169   1.576
20644SOL     OW63828   0.107   0.757   1.578
20644SOL    HW163829   0.044   0.719   1.517
20644SOL    HW263830   0.171   0.688   1.593
20645SOL     OW63831  14.508  12.224   0.602
20645SOL    HW163832  14.479  12.314   0.620
20645SOL    HW263833  14.446  12.169   0.649
20646SOL     OW63834   4.172   3.677   1.353
20646SOL    HW163835   4.101   3.732   1.387
20646SOL    HW263836   4.162   3.681   1.258
20647SOL     OW63837   5.112   5.655   5.861
20647SOL    HW163838   5.143   5.707   5.935
20647SOL    HW263839   5.098   5.718   5.791
20648SOL     OW63840   4.808   9.678   1.098
20648SOL    HW163841   4.862   9.741   1.051
20648SOL    HW263842   4.737   9.730   1.136
20649SOL     OW63843   6.610  13.170   5.531
20649SOL    HW163844   6.618  13.155   5.626
20649SOL    HW263845   6.646  13.091   5.491
20650SOL     OW63846   0.048   1.965  14.343
20650SOL    HW163847   0.118   1.924  14.393
20650SOL    HW263848   0.078   2.055  14.328
20651SOL     OW63849  11.435  10.413   2.028
20651SOL    HW163850  11.504  10.346   2.023
20651SOL    HW263851  11.354  10.365   2.008
20652SOL     OW63852   1.215   1.662   7.767
20652SOL    HW163853   1.256   1.585   7.806
20652SOL    HW263854   1.129   1.632   7.738
20653SOL     OW63855  13.857   5.893   7.514
20653SOL    HW163856  13.835   5.983   7.538
20653SOL    HW263857  13.932   5.901   7.456
20654SOL     OW63858  14.583   4.635   5.579
20654SOL    HW163859  14.656   4.659   5.522
20654SOL    HW263860  14.568   4.713   5.633
20655SOL     OW63861   7.024  13.009   5.269
20655SOL    HW163862   7.086  12.961   5.324
20655SOL    HW263863   7.019  12.958   5.189
20656SOL     OW63864   5.964  13.996  11.061
20656SOL    HW163865   5.873  13.970  11.050
20656SOL    HW263866   5.982  13.986  11.154
20657SOL     OW63867   1.824   4.048   4.846
20657SOL    HW163868   1.748   4.101   4.871
20657SOL    HW263869   1.879   4.107   4.796
20658SOL     OW63870   8.552  11.206   1.282
20658SOL    HW163871   8.585  11.179   1.368
20658SOL    HW263872   8.457  11.196   1.289
20659SOL     OW63873   6.388   8.175   7.117
20659SOL    HW163874   6.295   8.191   7.100
20659SOL    HW263875   6.396   8.080   7.116
20660SOL     OW63876   0.579  11.831   7.038
20660SOL    HW163877   0.634  11.884   6.980
20660SOL    HW263878   0.628  11.827   7.120
20661SOL     OW63879  12.527   4.500   1.305
20661SOL    HW163880  12.532   4.595   1.303
20661SOL    HW263881  12.578   4.475   1.382
20662SOL     OW63882   4.444   6.748  12.462
20662SOL    HW163883   4.420   6.798  12.539
20662SOL    HW263884   4.437   6.810  12.389
20663SOL     OW63885   5.402   1.151   8.302
20663SOL    HW163886   5.438   1.229   8.344
20663SOL    HW263887   5.379   1.179   8.214
20664SOL     OW63888   0.664   6.309   0.291
20664SOL    HW163889   0.610   6.388   0.298
20664SOL    HW263890   0.726   6.328   0.222
20665SOL     OW63891  11.099   7.559   9.695
20665SOL    HW163892  11.184   7.526   9.665
20665SOL    HW263893  11.094   7.649   9.663
20666SOL     OW63894   1.246   8.680  11.560
20666SOL    HW163895   1.247   8.701  11.467
20666SOL    HW263896   1.208   8.592  11.565
20667SOL     OW63897   0.886   0.441   8.331
20667SOL    HW163898   0.975   0.408   8.336
20667SOL    HW263899   0.841   0.380   8.272
20668SOL     OW63900  10.820   9.847   0.150
20668SOL    HW163901  10.852   9.761   0.124
20668SOL    HW263902  10.894   9.906   0.134
20669SOL     OW63903   1.199   1.284  14.055
20669SOL    HW163904   1.137   1.214  14.077
20669SOL    HW263905   1.177   1.307  13.965
20670SOL     OW63906  13.828  12.120  12.713
20670SOL    HW163907  13.794  12.140  12.626
20670SOL    HW263908  13.846  12.205  12.752
20671SOL     OW63909  11.107  11.591   0.544
20671SOL    HW163910  11.046  11.623   0.611
20671SOL    HW263911  11.179  11.655   0.545
20672SOL     OW63912   7.191   5.653   2.794
20672SOL    HW163913   7.262   5.622   2.850
20672SOL    HW263914   7.193   5.748   2.802
20673SOL     OW63915  11.643   1.802   8.044
20673SOL    HW163916  11.735   1.793   8.071
20673SOL    HW263917  11.611   1.712   8.038
20674SOL     OW63918  12.552   9.193  12.687
20674SOL    HW163919  12.476   9.247  12.711
20674SOL    HW263920  12.583   9.232  12.605
20675SOL     OW63921   4.269  10.779   6.526
20675SOL    HW163922   4.179  10.781   6.494
20675SOL    HW263923   4.311  10.710   6.475
20676SOL     OW63924   8.413   5.621   0.079
20676SOL    HW163925   8.389   5.548   0.136
20676SOL    HW263926   8.426   5.694   0.139
20677SOL     OW63927  13.237  11.361   2.978
20677SOL    HW163928  13.252  11.453   2.959
20677SOL    HW263929  13.151  11.359   3.020
20678SOL     OW63930  11.754   1.058   4.718
20678SOL    HW163931  11.766   1.007   4.638
20678SOL    HW263932  11.795   1.005   4.786
20679SOL     OW63933   7.848   7.631   2.693
20679SOL    HW163934   7.943   7.624   2.683
20679SOL    HW263935   7.833   7.723   2.715
20680SOL     OW63936   2.552  13.603  14.272
20680SOL    HW163937   2.590  13.615  14.185
20680SOL    HW263938   2.484  13.670  14.278
20681SOL     OW63939   4.281   5.928   1.105
20681SOL    HW163940   4.306   6.020   1.091
20681SOL    HW263941   4.353   5.878   1.067
20682SOL     OW63942  14.339   2.129   4.426
20682SOL    HW163943  14.296   2.211   4.450
20682SOL    HW263944  14.267   2.068   4.411
20683SOL     OW63945  12.620   8.609  11.130
20683SOL    HW163946  12.568   8.591  11.208
20683SOL    HW263947  12.555   8.628  11.062
20684SOL     OW63948  12.022   8.834   6.871
20684SOL    HW163949  12.062   8.900   6.926
20684SOL    HW263950  11.993   8.766   6.932
20685SOL     OW63951  11.413   9.738  14.325
20685SOL    HW163952  11.438   9.781  14.244
20685SOL    HW263953  11.450   9.650  14.318
20686SOL     OW63954   3.503   0.797  14.588
20686SOL    HW163955   3.468   0.876  14.546
20686SOL    HW263956   3.427   0.739  14.597
20687SOL     OW63957  12.367   2.870   4.191
20687SOL    HW163958  12.364   2.789   4.242
20687SOL    HW263959  12.328   2.936   4.249
20688SOL     OW63960   1.490   6.076  14.369
20688SOL    HW163961   1.569   6.114  14.408
20688SOL    HW263962   1.512   6.065  14.277
20689SOL     OW63963   2.616  11.570   0.317
20689SOL    HW163964   2.680  11.642   0.312
20689SOL    HW263965   2.624  11.537   0.407
20690SOL     OW63966   0.842  11.877   0.103
20690SOL    HW163967   0.867  11.785   0.099
20690SOL    HW263968   0.803  11.888   0.190
20691SOL     OW63969   7.623   2.208   2.024
20691SOL    HW163970   7.528   2.205   2.025
20691SOL    HW263971   7.650   2.117   2.014
20692SOL     OW63972  13.956  13.200   7.157
20692SOL    HW163973  14.011  13.215   7.081
20692SOL    HW263974  13.904  13.280   7.165
20693SOL     OW63975   8.318   2.372  12.908
20693SOL    HW163976   8.278   2.289  12.935
20693SOL    HW263977   8.382   2.348  12.842
20694SOL     OW63978   1.491   6.691   7.630
20694SOL    HW163979   1.471   6.785   7.635
20694SOL    HW263980   1.452   6.654   7.710
20695SOL     OW63981   6.781   7.186   9.477
20695SOL    HW163982   6.769   7.210   9.569
20695SOL    HW263983   6.747   7.261   9.429
20696SOL     OW63984   3.149   8.537   2.260
20696SOL    HW163985   3.168   8.477   2.188
20696SOL    HW263986   3.122   8.480   2.333
20697SOL     OW63987  13.307   1.825   7.093
20697SOL    HW163988  13.311   1.870   7.177
20697SOL    HW263989  13.357   1.745   7.105
20698SOL     OW63990   6.784   9.720   5.500
20698SOL    HW163991   6.790   9.708   5.405
20698SOL    HW263992   6.817   9.638   5.536
20699SOL     OW63993   8.863  12.970  11.543
20699SOL    HW163994   8.899  12.922  11.469
20699SOL    HW263995   8.821  12.904  11.598
20700SOL     OW63996  13.838   4.109   2.288
20700SOL    HW163997  13.825   4.088   2.196
20700SOL    HW263998  13.904   4.045   2.318
20701SOL     OW63999   6.556   1.830  13.953
20701SOL    HW164000   6.465   1.858  13.940
20701SOL    HW264001   6.575   1.854  14.044
20702SOL     OW64002   8.294   7.648   9.957
20702SOL    HW164003   8.238   7.651   9.880
20702SOL    HW264004   8.359   7.580   9.938
20703SOL     OW64005   3.390  13.741   2.581
20703SOL    HW164006   3.351  13.684   2.514
20703SOL    HW264007   3.461  13.787   2.534
20704SOL     OW64008   6.254   1.445   0.485
20704SOL    HW164009   6.252   1.480   0.574
20704SOL    HW264010   6.336   1.479   0.448
20705SOL     OW64011  11.413   3.901   2.377
20705SOL    HW164012  11.505   3.876   2.368
20705SOL    HW264013  11.373   3.829   2.426
20706SOL     OW64014   8.516   4.977  14.851
20706SOL    HW164015   8.422   4.981  14.833
20706SOL    HW264016   8.541   4.888  14.825
20707SOL     OW64017   3.222   1.035   6.301
20707SOL    HW164018   3.190   1.109   6.250
20707SOL    HW264019   3.189   0.958   6.254
20708SOL     OW64020   0.974   3.033  12.526
20708SOL    HW164021   0.916   3.005  12.596
20708SOL    HW264022   0.916   3.071  12.459
20709SOL     OW64023   1.913   8.868  10.657
20709SOL    HW164024   1.939   8.811  10.585
20709SOL    HW264025   1.956   8.951  10.639
20710SOL     OW64026   7.896  14.504   5.522
20710SOL    HW164027   7.808  14.538   5.507
20710SOL    HW264028   7.938  14.505   5.436
20711SOL     OW64029  13.005   8.427   2.892
20711SOL    HW164030  12.991   8.333   2.897
20711SOL    HW264031  13.096   8.436   2.862
20712SOL     OW64032  14.179   2.304   1.512
20712SOL    HW164033  14.134   2.267   1.588
20712SOL    HW264034  14.268   2.272   1.519
20713SOL     OW64035   6.759  11.714   5.573
20713SOL    HW164036   6.813  11.636   5.563
20713SOL    HW264037   6.683  11.685   5.624
20714SOL     OW64038  13.072  10.161   9.754
20714SOL    HW164039  13.091  10.089   9.694
20714SOL    HW264040  13.024  10.224   9.700
20715SOL     OW64041   9.644   3.805   7.224
20715SOL    HW164042   9.716   3.802   7.288
20715SOL    HW264043   9.604   3.718   7.230
20716SOL     OW64044   5.881   6.820   9.552
20716SOL    HW164045   5.910   6.786   9.467
20716SOL    HW264046   5.790   6.845   9.537
20717SOL     OW64047   6.831   3.828   4.193
20717SOL    HW164048   6.905   3.830   4.253
20717SOL    HW264049   6.870   3.832   4.106
20718SOL     OW64050   4.285   7.366   4.774
20718SOL    HW164051   4.293   7.280   4.733
20718SOL    HW264052   4.326   7.356   4.860
20719SOL     OW64053   2.023   9.004   9.166
20719SOL    HW164054   2.069   8.926   9.137
20719SOL    HW264055   2.023   8.997   9.262
20720SOL     OW64056  11.120  13.845  14.780
20720SOL    HW164057  11.127  13.898  14.860
20720SOL    HW264058  11.035  13.868  14.743
20721SOL     OW64059  11.755   0.975   6.724
20721SOL    HW164060  11.681   0.932   6.769
20721SOL    HW264061  11.749   1.066   6.750
20722SOL     OW64062  12.225   7.055  11.182
20722SOL    HW164063  12.260   7.029  11.097
20722SOL    HW264064  12.137   7.017  11.184
20723SOL     OW64065   1.990   7.725  12.372
20723SOL    HW164066   2.022   7.646  12.415
20723SOL    HW264067   1.915   7.752  12.425
20724SOL     OW64068  12.722   1.483   4.336
20724SOL    HW164069  12.800   1.465   4.283
20724SOL    HW264070  12.671   1.544   4.283
20725SOL     OW64071   1.785   1.283  13.522
20725SOL    HW164072   1.806   1.207  13.577
20725SOL    HW264073   1.825   1.263  13.437
20726SOL     OW64074   7.541   5.315   3.412
20726SOL    HW164075   7.623   5.331   3.458
20726SOL    HW264076   7.522   5.397   3.366
20727SOL     OW64077   6.140   9.544   1.058
20727SOL    HW164078   6.204   9.540   1.129
20727SOL    HW264079   6.073   9.604   1.089
20728SOL     OW64080  12.415   2.030  13.895
20728SOL    HW164081  12.385   2.052  13.983
20728SOL    HW264082  12.344   2.059  13.837
20729SOL     OW64083   0.098   8.311   3.108
20729SOL    HW164084   0.075   8.313   3.015
20729SOL    HW264085   0.017   8.333   3.153
20730SOL     OW64086   9.940  10.459   4.685
20730SOL    HW164087   9.850  10.430   4.698
20730SOL    HW264088   9.934  10.554   4.678
20731SOL     OW64089   0.781   1.633   4.628
20731SOL    HW164090   0.866   1.676   4.642
20731SOL    HW264091   0.788   1.550   4.674
20732SOL     OW64092  12.815   4.463   5.720
20732SOL    HW164093  12.855   4.496   5.801
20732SOL    HW264094  12.727   4.435   5.746
20733SOL     OW64095  13.698   6.277   2.445
20733SOL    HW164096  13.687   6.187   2.412
20733SOL    HW264097  13.649   6.331   2.383
20734SOL     OW64098   1.420  12.274  10.658
20734SOL    HW164099   1.344  12.312  10.701
20734SOL    HW264100   1.413  12.302  10.566
20735SOL     OW64101   7.286  11.041  12.674
20735SOL    HW164102   7.226  10.967  12.687
20735SOL    HW264103   7.362  11.020  12.728
20736SOL     OW64104   8.804   5.789  12.628
20736SOL    HW164105   8.738   5.734  12.585
20736SOL    HW264106   8.765   5.811  12.713
20737SOL     OW64107   1.763  14.376   5.090
20737SOL    HW164108   1.743  14.360   5.183
20737SOL    HW264109   1.678  14.376   5.047
20738SOL     OW64110  14.437   7.690   3.012
20738SOL    HW164111  14.378   7.616   2.997
20738SOL    HW264112  14.451   7.728   2.925
20739SOL     OW64113   1.891  14.480   9.232
20739SOL    HW164114   1.970  14.518   9.270
20739SOL    HW264115   1.842  14.556   9.199
20740SOL     OW64116   8.357  10.181   9.660
20740SOL    HW164117   8.393  10.202   9.574
20740SOL    HW264118   8.433  10.156   9.712
20741SOL     OW64119  11.157   4.619  11.963
20741SOL    HW164120  11.189   4.661  12.042
20741SOL    HW264121  11.062   4.631  11.966
20742SOL     OW64122  10.971   9.380  14.577
20742SOL    HW164123  10.915   9.310  14.609
20742SOL    HW264124  10.926   9.461  14.603
20743SOL     OW64125   3.515   3.002   9.281
20743SOL    HW164126   3.490   2.918   9.242
20743SOL    HW264127   3.567   3.046   9.214
20744SOL     OW64128   2.348   7.841  11.108
20744SOL    HW164129   2.363   7.847  11.013
20744SOL    HW264130   2.326   7.930  11.134
20745SOL     OW64131   5.551   3.489  14.119
20745SOL    HW164132   5.493   3.480  14.194
20745SOL    HW264133   5.520   3.425  14.056
20746SOL     OW64134   8.702   8.501  14.842
20746SOL    HW164135   8.606   8.500  14.846
20746SOL    HW264136   8.722   8.548  14.761
20747SOL     OW64137   3.816   2.914   9.529
20747SOL    HW164138   3.747   2.861   9.568
20747SOL    HW264139   3.867   2.853   9.475
20748SOL     OW64140   8.982   0.858   3.336
20748SOL    HW164141   9.055   0.877   3.395
20748SOL    HW264142   8.993   0.765   3.314
20749SOL     OW64143   3.653   4.526   5.560
20749SOL    HW164144   3.608   4.504   5.479
20749SOL    HW264145   3.658   4.621   5.560
20750SOL     OW64146   4.750   2.763   8.892
20750SOL    HW164147   4.694   2.736   8.965
20750SOL    HW264148   4.693   2.817   8.837
20751SOL     OW64149   6.678  11.009   8.585
20751SOL    HW164150   6.735  11.006   8.662
20751SOL    HW264151   6.592  10.982   8.618
20752SOL     OW64152   9.387  14.462  12.774
20752SOL    HW164153   9.443  14.387  12.793
20752SOL    HW264154   9.298  14.428  12.785
20753SOL     OW64155  10.266   0.443   7.780
20753SOL    HW164156  10.243   0.372   7.719
20753SOL    HW264157  10.361   0.450   7.775
20754SOL     OW64158   5.508   0.506  14.607
20754SOL    HW164159   5.583   0.455  14.636
20754SOL    HW264160   5.542   0.562  14.538
20755SOL     OW64161   2.282  13.812   7.258
20755SOL    HW164162   2.298  13.776   7.171
20755SOL    HW264163   2.290  13.736   7.317
20756SOL     OW64164   4.366  11.106   7.914
20756SOL    HW164165   4.452  11.148   7.917
20756SOL    HW264166   4.326  11.137   7.833
20757SOL     OW64167   5.316   8.161   2.876
20757SOL    HW164168   5.300   8.136   2.785
20757SOL    HW264169   5.290   8.253   2.880
20758SOL     OW64170   2.729   1.574   0.275
20758SOL    HW164171   2.710   1.655   0.321
20758SOL    HW264172   2.656   1.516   0.296
20759SOL     OW64173  12.647  14.269   0.280
20759SOL    HW164174  12.582  14.204   0.307
20759SOL    HW264175  12.636  14.275   0.185
20760SOL     OW64176   2.394   8.414  10.767
20760SOL    HW164177   2.298   8.421  10.765
20760SOL    HW264178   2.415   8.392  10.858
20761SOL     OW64179   2.811   4.932   7.952
20761SOL    HW164180   2.794   4.854   7.898
20761SOL    HW264181   2.905   4.930   7.969
20762SOL     OW64182   0.485   9.992   6.697
20762SOL    HW164183   0.502  10.050   6.623
20762SOL    HW264184   0.416  10.036   6.747
20763SOL     OW64185   1.270  11.941   7.329
20763SOL    HW164186   1.230  11.977   7.408
20763SOL    HW264187   1.195  11.916   7.274
20764SOL     OW64188   8.196   5.142   6.093
20764SOL    HW164189   8.215   5.108   6.005
20764SOL    HW264190   8.255   5.218   6.101
20765SOL     OW64191   8.508   1.043   0.479
20765SOL    HW164192   8.528   1.036   0.572
20765SOL    HW264193   8.505   0.953   0.448
20766SOL     OW64194  12.144   6.378   5.719
20766SOL    HW164195  12.090   6.321   5.665
20766SOL    HW264196  12.084   6.415   5.783
20767SOL     OW64197   1.560   2.472   0.698
20767SOL    HW164198   1.601   2.455   0.614
20767SOL    HW264199   1.542   2.385   0.734
20768SOL     OW64200   3.668  11.300  13.755
20768SOL    HW164201   3.621  11.219  13.775
20768SOL    HW264202   3.663  11.308  13.660
20769SOL     OW64203   1.636   0.159  14.290
20769SOL    HW164204   1.638   0.247  14.251
20769SOL    HW264205   1.637   0.175  14.384
20770SOL     OW64206   3.395   7.987   0.224
20770SOL    HW164207   3.358   7.940   0.298
20770SOL    HW264208   3.394   8.079   0.252
20771SOL     OW64209   3.219   3.967   2.626
20771SOL    HW164210   3.208   4.061   2.642
20771SOL    HW264211   3.144   3.926   2.669
20772SOL     OW64212  13.232   4.774   1.494
20772SOL    HW164213  13.212   4.684   1.466
20772SOL    HW264214  13.314   4.795   1.450
20773SOL     OW64215  14.024  13.384   3.290
20773SOL    HW164216  14.092  13.338   3.241
20773SOL    HW264217  14.054  13.474   3.296
20774SOL     OW64218   9.069   7.517  14.105
20774SOL    HW164219   9.015   7.595  14.111
20774SOL    HW264220   9.011   7.445  14.129
20775SOL     OW64221   9.987  14.224   8.486
20775SOL    HW164222   9.953  14.302   8.442
20775SOL    HW264223   9.965  14.238   8.578
20776SOL     OW64224  13.565   4.375   2.322
20776SOL    HW164225  13.482   4.394   2.278
20776SOL    HW264226  13.558   4.419   2.406
20777SOL     OW64227   0.326   8.545   5.201
20777SOL    HW164228   0.375   8.517   5.124
20777SOL    HW264229   0.375   8.510   5.275
20778SOL     OW64230   5.731  12.132   4.012
20778SOL    HW164231   5.809  12.187   4.025
20778SOL    HW264232   5.766  12.044   4.003
20779SOL     OW64233   7.861  12.663   7.398
20779SOL    HW164234   7.801  12.712   7.342
20779SOL    HW264235   7.805  12.617   7.460
20780SOL     OW64236   0.835   0.040   6.087
20780SOL    HW164237   0.849   0.134   6.084
20780SOL    HW264238   0.817   0.015   5.996
20781SOL     OW64239  14.683   0.099   2.511
20781SOL    HW164240  14.676   0.114   2.605
20781SOL    HW264241  14.618   0.032   2.493
20782SOL     OW64242  11.380   8.866  13.524
20782SOL    HW164243  11.465   8.909  13.512
20782SOL    HW264244  11.378   8.798  13.457
20783SOL     OW64245   6.436   3.945   3.582
20783SOL    HW164246   6.418   3.984   3.496
20783SOL    HW264247   6.519   3.986   3.609
20784SOL     OW64248   8.139   8.381  10.432
20784SOL    HW164249   8.052   8.418  10.448
20784SOL    HW264250   8.166   8.419  10.347
20785SOL     OW64251  11.971  14.567  11.145
20785SOL    HW164252  12.031  14.554  11.219
20785SOL    HW264253  12.001  14.648  11.104
20786SOL     OW64254   2.443  12.013   6.626
20786SOL    HW164255   2.513  12.051   6.678
20786SOL    HW264256   2.424  12.078   6.559
20787SOL     OW64257   1.230   5.757  13.624
20787SOL    HW164258   1.144   5.770  13.662
20787SOL    HW264259   1.268   5.844  13.619
20788SOL     OW64260   1.634  11.965   4.453
20788SOL    HW164261   1.690  11.949   4.530
20788SOL    HW264262   1.623  11.878   4.414
20789SOL     OW64263   7.622   3.662   0.581
20789SOL    HW164264   7.614   3.626   0.492
20789SOL    HW264265   7.550   3.725   0.587
20790SOL     OW64266   3.829  10.748  10.512
20790SOL    HW164267   3.812  10.800  10.433
20790SOL    HW264268   3.762  10.679  10.509
20791SOL     OW64269  13.893   1.982   0.079
20791SOL    HW164270  13.850   2.038   0.144
20791SOL    HW264271  13.851   2.005  14.883
20792SOL     OW64272   3.530   8.822  12.202
20792SOL    HW164273   3.609   8.852  12.155
20792SOL    HW264274   3.503   8.898  12.254
20793SOL     OW64275   9.292   3.434   8.790
20793SOL    HW164276   9.293   3.439   8.694
20793SOL    HW264277   9.262   3.520   8.818
20794SOL     OW64278   3.273   6.680  13.019
20794SOL    HW164279   3.243   6.764  13.054
20794SOL    HW264280   3.358   6.699  12.980
20795SOL     OW64281   6.473   0.896  13.968
20795SOL    HW164282   6.387   0.869  13.998
20795SOL    HW264283   6.462   0.987  13.942
20796SOL     OW64284   0.765   7.295   3.478
20796SOL    HW164285   0.794   7.377   3.439
20796SOL    HW264286   0.684   7.274   3.432
20797SOL     OW64287  10.357   2.660  11.726
20797SOL    HW164288  10.294   2.702  11.667
20797SOL    HW264289  10.442   2.676  11.686
20798SOL     OW64290   0.179   9.635   7.516
20798SOL    HW164291   0.142   9.556   7.477
20798SOL    HW264292   0.259   9.605   7.559
20799SOL     OW64293   4.290  12.214  14.204
20799SOL    HW164294   4.280  12.308  14.186
20799SOL    HW264295   4.250  12.201  14.290
20800SOL     OW64296   6.963   5.649  13.016
20800SOL    HW164297   6.881   5.675  12.974
20800SOL    HW264298   6.994   5.574  12.966
20801SOL     OW64299   5.803   9.122   8.266
20801SOL    HW164300   5.714   9.103   8.234
20801SOL    HW264301   5.855   9.134   8.187
20802SOL     OW64302   6.268   9.900  12.535
20802SOL    HW164303   6.206   9.923  12.466
20802SOL    HW264304   6.283   9.981  12.582
20803SOL     OW64305  10.715   7.110  13.112
20803SOL    HW164306  10.688   7.185  13.164
20803SOL    HW264307  10.702   7.034  13.169
20804SOL     OW64308   8.542   1.828  12.582
20804SOL    HW164309   8.554   1.894  12.651
20804SOL    HW264310   8.511   1.878  12.506
20805SOL     OW64311  13.100  10.676   0.041
20805SOL    HW164312  13.038  10.686  14.856
20805SOL    HW264313  13.161  10.609   0.011
20806SOL     OW64314   6.763  11.318   5.680
20806SOL    HW164315   6.789  11.310   5.772
20806SOL    HW264316   6.679  11.364   5.683
20807SOL     OW64317   6.074   9.533   4.100
20807SOL    HW164318   6.077   9.526   4.004
20807SOL    HW264319   6.075   9.442   4.131
20808SOL     OW64320   8.670   0.505   7.342
20808SOL    HW164321   8.633   0.484   7.256
20808SOL    HW264322   8.642   0.434   7.399
20809SOL     OW64323   9.304  12.816   7.435
20809SOL    HW164324   9.338  12.782   7.518
20809SOL    HW264325   9.210  12.824   7.449
20810SOL     OW64326   4.318   5.170   6.729
20810SOL    HW164327   4.230   5.156   6.694
20810SOL    HW264328   4.376   5.153   6.655
20811SOL     OW64329   6.323   1.112   6.859
20811SOL    HW164330   6.269   1.125   6.937
20811SOL    HW264331   6.292   1.029   6.822
20812SOL     OW64332  11.025   1.537   7.995
20812SOL    HW164333  11.007   1.580   8.079
20812SOL    HW264334  10.939   1.526   7.955
20813SOL     OW64335   1.491   2.072   3.322
20813SOL    HW164336   1.396   2.060   3.315
20813SOL    HW264337   1.502   2.136   3.392
20814SOL     OW64338  10.048   8.597   6.593
20814SOL    HW164339  10.023   8.593   6.501
20814SOL    HW264340  10.003   8.675   6.627
20815SOL     OW64341   1.817   8.794   3.085
20815SOL    HW164342   1.723   8.781   3.078
20815SOL    HW264343   1.830   8.888   3.075
20816SOL     OW64344   0.746  12.062  11.992
20816SOL    HW164345   0.733  12.035  11.901
20816SOL    HW264346   0.659  12.055  12.031
20817SOL     OW64347   2.814  12.568  11.858
20817SOL    HW164348   2.767  12.651  11.866
20817SOL    HW264349   2.752  12.502  11.891
20818SOL     OW64350  13.105   9.079   8.960
20818SOL    HW164351  13.108   9.126   9.044
20818SOL    HW264352  13.013   9.083   8.934
20819SOL     OW64353   8.180   9.709   0.808
20819SOL    HW164354   8.137   9.673   0.886
20819SOL    HW264355   8.182   9.636   0.746
20820SOL     OW64356   1.813  12.774   3.765
20820SOL    HW164357   1.839  12.812   3.681
20820SOL    HW264358   1.883  12.711   3.786
20821SOL     OW64359  11.153  10.471  13.634
20821SOL    HW164360  11.084  10.417  13.673
20821SOL    HW264361  11.218  10.409  13.602
20822SOL     OW64362   4.461   0.101  14.760
20822SOL    HW164363   4.400   0.037  14.722
20822SOL    HW264364   4.438   0.104  14.853
20823SOL     OW64365   6.601  11.947  13.088
20823SOL    HW164366   6.591  11.877  13.152
20823SOL    HW264367   6.533  11.930  13.023
20824SOL     OW64368   6.262   3.302   5.083
20824SOL    HW164369   6.169   3.322   5.073
20824SOL    HW264370   6.302   3.383   5.115
20825SOL     OW64371  12.593   9.097   3.825
20825SOL    HW164372  12.596   9.164   3.757
20825SOL    HW264373  12.581   9.146   3.907
20826SOL     OW64374   5.523   8.327   4.534
20826SOL    HW164375   5.446   8.368   4.575
20826SOL    HW264376   5.488   8.247   4.494
20827SOL     OW64377   6.042  10.598  13.445
20827SOL    HW164378   6.136  10.618  13.453
20827SOL    HW264379   5.998  10.672  13.486
20828SOL     OW64380  12.493  11.266  10.154
20828SOL    HW164381  12.524  11.308  10.074
20828SOL    HW264382  12.478  11.175  10.130
20829SOL     OW64383   3.295  12.337   8.981
20829SOL    HW164384   3.309  12.321   8.888
20829SOL    HW264385   3.352  12.274   9.025
20830SOL     OW64386   7.835   0.941  11.732
20830SOL    HW164387   7.878   1.009  11.783
20830SOL    HW264388   7.902   0.912  11.670
20831SOL     OW64389  14.368   3.096   2.486
20831SOL    HW164390  14.372   3.186   2.452
20831SOL    HW264391  14.373   3.042   2.408
20832SOL     OW64392  14.435  13.118  10.871
20832SOL    HW164393  14.480  13.097  10.789
20832SOL    HW264394  14.349  13.149  10.844
20833SOL     OW64395   2.528   2.109   3.799
20833SOL    HW164396   2.474   2.047   3.749
20833SOL    HW264397   2.470   2.184   3.814
20834SOL     OW64398  14.307   8.907   3.215
20834SOL    HW164399  14.336   8.834   3.270
20834SOL    HW264400  14.276   8.864   3.134
20835SOL     OW64401  10.557   3.078  12.014
20835SOL    HW164402  10.576   3.167  12.042
20835SOL    HW264403  10.488   3.048  12.073
20836SOL     OW64404   8.348  10.328   8.745
20836SOL    HW164405   8.350  10.312   8.651
20836SOL    HW264406   8.322  10.245   8.783
20837SOL     OW64407   5.135   8.432  10.796
20837SOL    HW164408   5.092   8.508  10.757
20837SOL    HW264409   5.103   8.357  10.745
20838SOL     OW64410   0.186   5.319  12.802
20838SOL    HW164411   0.252   5.333  12.870
20838SOL    HW264412   0.137   5.243  12.832
20839SOL     OW64413   6.001   5.174  12.134
20839SOL    HW164414   5.912   5.140  12.119
20839SOL    HW264415   5.991   5.269  12.127
20840SOL     OW64416   8.281   5.103  12.634
20840SOL    HW164417   8.368   5.064  12.628
20840SOL    HW264418   8.255   5.118  12.543
20841SOL     OW64419   1.622   1.232   6.122
20841SOL    HW164420   1.640   1.168   6.054
20841SOL    HW264421   1.635   1.184   6.204
20842SOL     OW64422   6.124   0.485   2.093
20842SOL    HW164423   6.078   0.550   2.040
20842SOL    HW264424   6.167   0.536   2.162
20843SOL     OW64425  11.052   7.635   4.963
20843SOL    HW164426  11.000   7.713   4.985
20843SOL    HW264427  11.075   7.597   5.048
20844SOL     OW64428  13.361   3.646  14.395
20844SOL    HW164429  13.396   3.689  14.316
20844SOL    HW264430  13.282   3.694  14.416
20845SOL     OW64431   0.286  13.328   4.662
20845SOL    HW164432   0.267  13.280   4.582
20845SOL    HW264433   0.321  13.412   4.632
20846SOL     OW64434  12.854  13.307   0.691
20846SOL    HW164435  12.874  13.282   0.601
20846SOL    HW264436  12.779  13.251   0.715
20847SOL     OW64437   4.586   3.016  12.183
20847SOL    HW164438   4.553   3.100  12.217
20847SOL    HW264439   4.674   3.009  12.220
20848SOL     OW64440   9.862   3.183   8.696
20848SOL    HW164441   9.901   3.109   8.743
20848SOL    HW264442   9.783   3.203   8.747
20849SOL     OW64443   7.753   2.207  13.318
20849SOL    HW164444   7.728   2.121  13.350
20849SOL    HW264445   7.846   2.198  13.293
20850SOL     OW64446   8.690   8.134   3.805
20850SOL    HW164447   8.749   8.208   3.819
20850SOL    HW264448   8.627   8.166   3.740
20851SOL     OW64449   8.639   0.864  14.037
20851SOL    HW164450   8.592   0.790  14.074
20851SOL    HW264451   8.652   0.924  14.110
20852SOL     OW64452   4.662   7.842  11.142
20852SOL    HW164453   4.679   7.769  11.082
20852SOL    HW264454   4.575   7.874  11.117
20853SOL     OW64455   0.374   1.107  12.079
20853SOL    HW164456   0.454   1.074  12.039
20853SOL    HW264457   0.308   1.101  12.010
20854SOL     OW64458   7.461  14.322   2.455
20854SOL    HW164459   7.499  14.405   2.484
20854SOL    HW264460   7.370  14.343   2.435
20855SOL     OW64461   0.867   7.931   1.665
20855SOL    HW164462   0.887   7.839   1.677
20855SOL    HW264463   0.772   7.937   1.679
20856SOL     OW64464  13.914   9.646   5.547
20856SOL    HW164465  13.914   9.568   5.491
20856SOL    HW264466  13.989   9.697   5.517
20857SOL     OW64467  13.808   2.383  14.752
20857SOL    HW164468  13.865   2.362  14.826
20857SOL    HW264469  13.755   2.305  14.739
20858SOL     OW64470   2.937   4.757  12.703
20858SOL    HW164471   2.983   4.685  12.660
20858SOL    HW264472   2.879   4.714  12.766
20859SOL     OW64473   6.074  11.428  12.285
20859SOL    HW164474   5.992  11.477  12.285
20859SOL    HW264475   6.142  11.495  12.272
20860SOL     OW64476   4.867   0.926   9.367
20860SOL    HW164477   4.825   0.858   9.420
20860SOL    HW264478   4.895   0.882   9.287
20861SOL     OW64479  11.675  12.860   2.959
20861SOL    HW164480  11.751  12.803   2.967
20861SOL    HW264481  11.711  12.948   2.949
20862SOL     OW64482  12.175  12.422  14.841
20862SOL    HW164483  12.251  12.372  14.873
20862SOL    HW264484  12.160  12.388  14.753
20863SOL     OW64485   5.812   3.926  13.898
20863SOL    HW164486   5.753   3.874  13.842
20863SOL    HW264487   5.754   3.964  13.964
20864SOL     OW64488  13.434   5.733  14.476
20864SOL    HW164489  13.504   5.668  14.467
20864SOL    HW264490  13.479   5.817  14.479
20865SOL     OW64491  11.036   2.049   1.903
20865SOL    HW164492  11.101   2.085   1.963
20865SOL    HW264493  10.955   2.046   1.953
20866SOL     OW64494   4.935   3.562   2.377
20866SOL    HW164495   4.945   3.469   2.357
20866SOL    HW264496   4.849   3.568   2.418
20867SOL     OW64497  11.178   0.494  14.722
20867SOL    HW164498  11.098   0.534  14.757
20867SOL    HW264499  11.180   0.521  14.631
20868SOL     OW64500   2.986   4.971   1.961
20868SOL    HW164501   2.898   4.973   1.999
20868SOL    HW264502   2.977   4.915   1.884
20869SOL     OW64503   4.692   2.866   6.148
20869SOL    HW164504   4.721   2.777   6.172
20869SOL    HW264505   4.699   2.868   6.052
20870SOL     OW64506   0.754  11.790   7.266
20870SOL    HW164507   0.779  11.729   7.335
20870SOL    HW264508   0.772  11.877   7.303
20871SOL     OW64509   6.550   4.941  14.662
20871SOL    HW164510   6.500   4.862  14.641
20871SOL    HW264511   6.592   4.966  14.580
20872SOL     OW64512  14.600  13.971   3.350
20872SOL    HW164513  14.673  13.963   3.289
20872SOL    HW264514  14.635  13.940   3.433
20873SOL     OW64515   7.970  11.023   7.833
20873SOL    HW164516   8.006  10.958   7.772
20873SOL    HW264517   7.928  11.088   7.778
20874SOL     OW64518   3.406   1.429   9.749
20874SOL    HW164519   3.394   1.522   9.766
20874SOL    HW264520   3.488   1.424   9.699
20875SOL     OW64521  14.704   2.916  10.133
20875SOL    HW164522  14.609   2.917  10.125
20875SOL    HW264523  14.734   2.860  10.062
20876SOL     OW64524  13.432   3.993   9.624
20876SOL    HW164525  13.520   3.955   9.617
20876SOL    HW264526  13.414   3.993   9.718
20877SOL     OW64527  12.854   4.431   2.077
20877SOL    HW164528  12.943   4.417   2.046
20877SOL    HW264529  12.853   4.389   2.163
20878SOL     OW64530   6.300   6.448   4.541
20878SOL    HW164531   6.262   6.513   4.481
20878SOL    HW264532   6.377   6.492   4.578
20879SOL     OW64533   7.405   9.301  13.882
20879SOL    HW164534   7.392   9.304  13.977
20879SOL    HW264535   7.334   9.246  13.850
20880SOL     OW64536   5.357  10.223   0.106
20880SOL    HW164537   5.261  10.232   0.111
20880SOL    HW264538   5.390  10.308   0.133
20881SOL     OW64539  13.655  12.167  13.318
20881SOL    HW164540  13.652  12.224  13.395
20881SOL    HW264541  13.634  12.080  13.352
20882SOL     OW64542  12.527  10.263   1.899
20882SOL    HW164543  12.439  10.300   1.902
20882SOL    HW264544  12.521  10.182   1.950
20883SOL     OW64545   4.947   7.262  12.470
20883SOL    HW164546   4.991   7.197  12.525
20883SOL    HW264547   4.862   7.274  12.511
20884SOL     OW64548  12.111   8.688   5.384
20884SOL    HW164549  12.199   8.662   5.357
20884SOL    HW264550  12.112   8.783   5.380
20885SOL     OW64551  10.574   6.550  12.255
20885SOL    HW164552  10.509   6.490  12.218
20885SOL    HW264553  10.527   6.632  12.269
20886SOL     OW64554  14.627   7.914  10.214
20886SOL    HW164555  14.610   7.837  10.268
20886SOL    HW264556  14.552   7.971  10.230
20887SOL     OW64557   3.755  14.849   1.028
20887SOL    HW164558   3.820  14.826   0.962
20887SOL    HW264559   3.725   0.049   1.003
20888SOL     OW64560  11.816   1.423   7.253
20888SOL    HW164561  11.761   1.344   7.262
20888SOL    HW264562  11.905   1.390   7.249
20889SOL     OW64563  10.200   4.149  11.762
20889SOL    HW164564  10.287   4.187  11.763
20889SOL    HW264565  10.142   4.222  11.739
20890SOL     OW64566  10.271  13.898   2.228
20890SOL    HW164567  10.205  13.868   2.165
20890SOL    HW264568  10.224  13.906   2.311
20891SOL     OW64569   3.798  12.583   0.390
20891SOL    HW164570   3.716  12.546   0.423
20891SOL    HW264571   3.778  12.607   0.299
20892SOL     OW64572  14.775  14.785  12.443
20892SOL    HW164573  14.698  14.838  12.422
20892SOL    HW264574  14.814  14.765  12.357
20893SOL     OW64575  11.688   9.072  11.321
20893SOL    HW164576  11.715   9.096  11.232
20893SOL    HW264577  11.658   9.155  11.359
20894SOL     OW64578  14.373  14.854  12.794
20894SOL    HW164579  14.372  14.802  12.714
20894SOL    HW264580  14.421   0.046  12.771
20895SOL     OW64581   3.148  11.616   6.067
20895SOL    HW164582   3.086  11.688   6.078
20895SOL    HW264583   3.125  11.553   6.135
20896SOL     OW64584   6.947  14.429  14.436
20896SOL    HW164585   6.942  14.422  14.341
20896SOL    HW264586   7.027  14.478  14.452
20897SOL     OW64587   3.699   4.324   8.661
20897SOL    HW164588   3.783   4.366   8.680
20897SOL    HW264589   3.636   4.368   8.717
20898SOL     OW64590   5.454  12.793  14.513
20898SOL    HW164591   5.428  12.775  14.603
20898SOL    HW264592   5.547  12.813  14.517
20899SOL     OW64593   0.219  10.996  13.091
20899SOL    HW164594   0.234  10.928  13.026
20899SOL    HW264595   0.269  10.967  13.168
20900SOL     OW64596   4.644   1.139   9.410
20900SOL    HW164597   4.661   1.180   9.495
20900SOL    HW264598   4.724   1.091   9.390
20901SOL     OW64599  11.648   6.118   5.274
20901SOL    HW164600  11.628   6.061   5.349
20901SOL    HW264601  11.724   6.077   5.233
20902SOL     OW64602  13.201  12.510   2.686
20902SOL    HW164603  13.165  12.428   2.721
20902SOL    HW264604  13.190  12.503   2.592
20903SOL     OW64605   1.912   6.453   0.509
20903SOL    HW164606   1.925   6.409   0.593
20903SOL    HW264607   1.939   6.389   0.443
20904SOL     OW64608   2.908  11.236  14.434
20904SOL    HW164609   2.930  11.143  14.420
20904SOL    HW264610   2.813  11.241  14.421
20905SOL     OW64611  13.925   9.188   7.515
20905SOL    HW164612  14.006   9.148   7.485
20905SOL    HW264613  13.856   9.130   7.483
20906SOL     OW64614   9.034  13.059  10.648
20906SOL    HW164615   9.039  13.154  10.634
20906SOL    HW264616   8.960  13.031  10.595
20907SOL     OW64617   5.738   3.755  14.853
20907SOL    HW164618   5.766   3.745   0.057
20907SOL    HW264619   5.685   3.834  14.852
20908SOL     OW64620   7.723   7.749   1.832
20908SOL    HW164621   7.716   7.838   1.868
20908SOL    HW264622   7.690   7.756   1.743
20909SOL     OW64623   7.620   1.944   7.929
20909SOL    HW164624   7.614   1.869   7.869
20909SOL    HW264625   7.529   1.971   7.943
20910SOL     OW64626  14.178   6.772   9.702
20910SOL    HW164627  14.177   6.840   9.769
20910SOL    HW264628  14.144   6.814   9.623
20911SOL     OW64629   6.219   8.074  12.827
20911SOL    HW164630   6.213   8.131  12.903
20911SOL    HW264631   6.231   8.134  12.753
20912SOL     OW64632   0.792   6.734   0.663
20912SOL    HW164633   0.737   6.691   0.728
20912SOL    HW264634   0.741   6.728   0.582
20913SOL     OW64635   1.532  14.306   4.569
20913SOL    HW164636   1.443  14.272   4.571
20913SOL    HW264637   1.523  14.392   4.527
20914SOL     OW64638  11.635   2.689   9.707
20914SOL    HW164639  11.673   2.603   9.724
20914SOL    HW264640  11.615   2.724   9.793
20915SOL     OW64641  10.827  12.370  10.036
20915SOL    HW164642  10.803  12.463  10.035
20915SOL    HW264643  10.920  12.369  10.057
20916SOL     OW64644   6.939   3.464  10.618
20916SOL    HW164645   6.980   3.532  10.672
20916SOL    HW264646   6.868   3.429  10.673
20917SOL     OW64647   8.861   1.923   8.865
20917SOL    HW164648   8.924   1.933   8.793
20917SOL    HW264649   8.777   1.947   8.828
20918SOL     OW64650   8.128   8.424  10.815
20918SOL    HW164651   8.192   8.494  10.804
20918SOL    HW264652   8.134   8.373  10.734
20919SOL     OW64653   7.989   8.785   0.304
20919SOL    HW164654   8.004   8.853   0.240
20919SOL    HW264655   7.911   8.739   0.273
20920SOL     OW64656  10.150   7.758  12.186
20920SOL    HW164657  10.228   7.801  12.222
20920SOL    HW264658  10.121   7.698  12.255
20921SOL     OW64659   6.995   4.045  14.063
20921SOL    HW164660   6.996   4.120  14.004
20921SOL    HW264661   7.041   3.976  14.014
20922SOL     OW64662  14.096   5.867  14.769
20922SOL    HW164663  14.111   5.959  14.746
20922SOL    HW264664  14.022   5.841  14.714
20923SOL     OW64665   8.560  13.838   1.687
20923SOL    HW164666   8.623  13.798   1.628
20923SOL    HW264667   8.575  13.932   1.678
20924SOL     OW64668  14.117  12.188   8.428
20924SOL    HW164669  14.203  12.227   8.442
20924SOL    HW264670  14.057  12.262   8.426
20925SOL     OW64671   4.780   1.848   2.488
20925SOL    HW164672   4.802   1.755   2.485
20925SOL    HW264673   4.694   1.851   2.530
20926SOL     OW64674   8.022   9.890   2.539
20926SOL    HW164675   8.073   9.953   2.590
20926SOL    HW264676   7.972   9.841   2.604
20927SOL     OW64677   6.773  13.129   9.085
20927SOL    HW164678   6.840  13.195   9.102
20927SOL    HW264679   6.731  13.158   9.004
20928SOL     OW64680   8.306   2.126  13.001
20928SOL    HW164681   8.235   2.075  13.040
20928SOL    HW264682   8.371   2.133  13.071
20929SOL     OW64683   6.118   2.207   6.145
20929SOL    HW164684   6.157   2.218   6.231
20929SOL    HW264685   6.160   2.129   6.108
20930SOL     OW64686   7.811  14.352   1.683
20930SOL    HW164687   7.761  14.360   1.602
20930SOL    HW264688   7.785  14.427   1.736
20931SOL     OW64689   8.395  13.127   7.037
20931SOL    HW164690   8.399  13.032   7.029
20931SOL    HW264691   8.302  13.148   7.029
20932SOL     OW64692   1.742   5.938   5.836
20932SOL    HW164693   1.669   5.918   5.895
20932SOL    HW264694   1.751   6.033   5.840
20933SOL     OW64695   2.656   7.517   2.121
20933SOL    HW164696   2.663   7.451   2.052
20933SOL    HW264697   2.562   7.522   2.140
20934SOL     OW64698  13.763   8.700  14.503
20934SOL    HW164699  13.732   8.768  14.562
20934SOL    HW264700  13.725   8.619  14.537
20935SOL     OW64701   7.634   3.531  11.959
20935SOL    HW164702   7.543   3.520  11.932
20935SOL    HW264703   7.636   3.502  12.050
20936SOL     OW64704  12.641  13.885   4.384
20936SOL    HW164705  12.668  13.812   4.330
20936SOL    HW264706  12.562  13.919   4.342
20937SOL     OW64707  12.934  12.293   4.893
20937SOL    HW164708  12.872  12.220   4.894
20937SOL    HW264709  12.878  12.371   4.888
20938SOL     OW64710  10.565   1.670  11.256
20938SOL    HW164711  10.496   1.664  11.190
20938SOL    HW264712  10.551   1.756  11.296
20939SOL     OW64713   1.404   1.509   4.764
20939SOL    HW164714   1.369   1.554   4.687
20939SOL    HW264715   1.487   1.553   4.783
20940SOL     OW64716   4.324   2.960   8.635
20940SOL    HW164717   4.383   3.025   8.598
20940SOL    HW264718   4.374   2.919   8.705
20941SOL     OW64719   0.250  13.200   5.101
20941SOL    HW164720   0.182  13.164   5.157
20941SOL    HW264721   0.230  13.169   5.013
20942SOL     OW64722   7.999   2.240  11.300
20942SOL    HW164723   7.983   2.175  11.368
20942SOL    HW264724   7.932   2.307  11.315
20943SOL     OW64725  11.128   0.739   8.581
20943SOL    HW164726  11.098   0.812   8.527
20943SOL    HW264727  11.178   0.780   8.652
20944SOL     OW64728  14.224   1.303   8.362
20944SOL    HW164729  14.192   1.376   8.415
20944SOL    HW264730  14.295   1.340   8.309
20945SOL     OW64731  13.539   7.164   5.299
20945SOL    HW164732  13.610   7.180   5.361
20945SOL    HW264733  13.467   7.220   5.329
20946SOL     OW64734  14.056   1.042  11.483
20946SOL    HW164735  14.145   1.074  11.465
20946SOL    HW264736  14.054   1.028  11.577
20947SOL     OW64737  11.776  12.370   8.742
20947SOL    HW164738  11.684  12.378   8.721
20947SOL    HW264739  11.818  12.345   8.659
20948SOL     OW64740  10.738   0.230   6.424
20948SOL    HW164741  10.760   0.245   6.333
20948SOL    HW264742  10.802   0.166   6.455
20949SOL     OW64743   0.366   1.474   3.570
20949SOL    HW164744   0.272   1.458   3.581
20949SOL    HW264745   0.374   1.507   3.480
20950SOL     OW64746   5.796   0.243   6.828
20950SOL    HW164747   5.715   0.231   6.779
20950SOL    HW264748   5.778   0.315   6.889
20951SOL     OW64749   7.116   7.279   6.373
20951SOL    HW164750   7.152   7.259   6.459
20951SOL    HW264751   7.031   7.235   6.371
20952SOL     OW64752   2.960   2.358   5.914
20952SOL    HW164753   3.010   2.319   5.986
20952SOL    HW264754   2.983   2.306   5.838
20953SOL     OW64755   4.807   9.856   9.268
20953SOL    HW164756   4.757   9.831   9.346
20953SOL    HW264757   4.778   9.945   9.248
20954SOL     OW64758  13.133  12.117   0.251
20954SOL    HW164759  13.229  12.121   0.246
20954SOL    HW264760  13.103  12.197   0.209
20955SOL     OW64761   3.739  14.541   9.691
20955SOL    HW164762   3.662  14.598   9.699
20955SOL    HW264763   3.804  14.582   9.748
20956SOL     OW64764   1.341   6.173   5.907
20956SOL    HW164765   1.252   6.149   5.933
20956SOL    HW264766   1.398   6.130   5.971
20957SOL     OW64767  13.614   5.368   4.354
20957SOL    HW164768  13.607   5.449   4.303
20957SOL    HW264769  13.696   5.377   4.403
20958SOL     OW64770   3.265   5.269   8.962
20958SOL    HW164771   3.300   5.221   9.037
20958SOL    HW264772   3.296   5.219   8.886
20959SOL     OW64773   4.500  11.216   7.218
20959SOL    HW164774   4.483  11.121   7.215
20959SOL    HW264775   4.426  11.254   7.170
20960SOL     OW64776   3.257   4.828   1.220
20960SOL    HW164777   3.237   4.876   1.140
20960SOL    HW264778   3.275   4.896   1.285
20961SOL     OW64779  10.988   1.042   6.856
20961SOL    HW164780  10.930   1.113   6.884
20961SOL    HW264781  11.076   1.075   6.872
20962SOL     OW64782  10.400   4.998   6.209
20962SOL    HW164783  10.404   4.957   6.123
20962SOL    HW264784  10.306   5.002   6.230
20963SOL     OW64785   8.183   7.207   9.845
20963SOL    HW164786   8.237   7.286   9.843
20963SOL    HW264787   8.187   7.173   9.755
20964SOL     OW64788   4.960   6.277  13.242
20964SOL    HW164789   4.889   6.232  13.287
20964SOL    HW264790   5.028   6.210  13.231
20965SOL     OW64791   8.552   9.650   8.070
20965SOL    HW164792   8.575   9.591   8.142
20965SOL    HW264793   8.489   9.710   8.108
20966SOL     OW64794   4.647   4.806   5.476
20966SOL    HW164795   4.742   4.810   5.470
20966SOL    HW264796   4.630   4.777   5.566
20967SOL     OW64797   9.180  12.391   2.083
20967SOL    HW164798   9.167  12.329   2.154
20967SOL    HW264799   9.091  12.411   2.052
20968SOL     OW64800  13.761  13.154  12.320
20968SOL    HW164801  13.805  13.090  12.376
20968SOL    HW264802  13.775  13.238  12.365
20969SOL     OW64803  11.596  10.997  14.780
20969SOL    HW164804  11.578  11.076  14.729
20969SOL    HW264805  11.515  10.982  14.829
20970SOL     OW64806  12.709   3.050   5.127
20970SOL    HW164807  12.767   2.977   5.149
20970SOL    HW264808  12.759   3.129   5.148
20971SOL     OW64809   9.061  13.366   6.471
20971SOL    HW164810   9.009  13.337   6.396
20971SOL    HW264811   9.043  13.302   6.539
20972SOL     OW64812   5.073   1.899  12.142
20972SOL    HW164813   5.116   1.845  12.209
20972SOL    HW264814   5.144   1.943  12.097
20973SOL     OW64815  10.809  13.191   0.485
20973SOL    HW164816  10.799  13.111   0.434
20973SOL    HW264817  10.897  13.222   0.463
20974SOL     OW64818   1.951   9.440  13.814
20974SOL    HW164819   2.033   9.487  13.799
20974SOL    HW264820   1.889   9.480  13.753
20975SOL     OW64821  11.719   0.169   9.876
20975SOL    HW164822  11.654   0.238   9.860
20975SOL    HW264823  11.737   0.133   9.789
20976SOL     OW64824   1.954  12.629   7.216
20976SOL    HW164825   1.872  12.626   7.168
20976SOL    HW264826   1.946  12.562   7.284
20977SOL     OW64827   0.711   1.697   5.977
20977SOL    HW164828   0.618   1.703   5.999
20977SOL    HW264829   0.720   1.749   5.897
20978SOL     OW64830   7.643   3.768  12.523
20978SOL    HW164831   7.604   3.682  12.505
20978SOL    HW264832   7.645   3.774  12.618
20979SOL     OW64833   2.949  13.420   2.733
20979SOL    HW164834   3.014  13.353   2.752
20979SOL    HW264835   2.941  13.419   2.637
20980SOL     OW64836  10.462   7.795   0.960
20980SOL    HW164837  10.538   7.813   0.905
20980SOL    HW264838  10.494   7.801   1.050
20981SOL     OW64839  10.500   1.755   9.519
20981SOL    HW164840  10.537   1.766   9.606
20981SOL    HW264841  10.410   1.789   9.526
20982SOL     OW64842   4.772   4.778   3.307
20982SOL    HW164843   4.755   4.836   3.381
20982SOL    HW264844   4.709   4.805   3.240
20983SOL     OW64845  11.203   6.379   5.454
20983SOL    HW164846  11.146   6.456   5.456
20983SOL    HW264847  11.288   6.413   5.427
20984SOL     OW64848   1.052   8.849  11.673
20984SOL    HW164849   1.091   8.771  11.634
20984SOL    HW264850   0.993   8.815  11.740
20985SOL     OW64851   7.145   7.748   3.712
20985SOL    HW164852   7.111   7.664   3.682
20985SOL    HW264853   7.229   7.728   3.752
20986SOL     OW64854  10.370  13.819   8.927
20986SOL    HW164855  10.291  13.766   8.915
20986SOL    HW264856  10.430  13.789   8.858
20987SOL     OW64857  13.577   8.007   3.237
20987SOL    HW164858  13.570   8.075   3.305
20987SOL    HW264859  13.629   7.938   3.277
20988SOL     OW64860  12.981   0.337   9.910
20988SOL    HW164861  12.911   0.401   9.923
20988SOL    HW264862  13.061   0.386   9.929
20989SOL     OW64863  12.151   4.212   2.713
20989SOL    HW164864  12.106   4.145   2.766
20989SOL    HW264865  12.237   4.173   2.695
20990SOL     OW64866   5.368   9.309  10.657
20990SOL    HW164867   5.437   9.364  10.621
20990SOL    HW264868   5.334   9.260  10.582
20991SOL     OW64869   7.546  10.519  12.527
20991SOL    HW164870   7.453  10.496  12.524
20991SOL    HW264871   7.576  10.507  12.437
20992SOL     OW64872   6.927   3.032   5.408
20992SOL    HW164873   6.923   2.996   5.319
20992SOL    HW264874   6.835   3.040   5.434
20993SOL     OW64875   7.633  14.217   8.037
20993SOL    HW164876   7.665  14.147   7.980
20993SOL    HW264877   7.561  14.176   8.086
20994SOL     OW64878  14.383   5.785   2.819
20994SOL    HW164879  14.472   5.790   2.853
20994SOL    HW264880  14.362   5.692   2.820
20995SOL     OW64881  13.156  10.307  12.331
20995SOL    HW164882  13.125  10.285  12.419
20995SOL    HW264883  13.242  10.266  12.325
20996SOL     OW64884   6.331  13.748   4.224
20996SOL    HW164885   6.306  13.660   4.196
20996SOL    HW264886   6.270  13.806   4.179
20997SOL     OW64887   9.669  11.399  11.217
20997SOL    HW164888   9.638  11.365  11.133
20997SOL    HW264889   9.637  11.336  11.282
20998SOL     OW64890   8.038   9.471   0.192
20998SOL    HW164891   8.133   9.475   0.178
20998SOL    HW264892   8.014   9.559   0.219
20999SOL     OW64893  11.958  10.127  12.937
20999SOL    HW164894  11.976  10.100  13.027
20999SOL    HW264895  11.915  10.211  12.944
21000SOL     OW64896   6.791   5.499   1.173
21000SOL    HW164897   6.864   5.510   1.234
21000SOL    HW264898   6.732   5.572   1.192
21001SOL     OW64899   9.593   6.964   5.128
21001SOL    HW164900   9.604   7.020   5.205
21001SOL    HW264901   9.682   6.937   5.106
21002SOL     OW64902   5.244  14.727  10.946
21002SOL    HW164903   5.310  14.767  11.002
21002SOL    HW264904   5.261  14.633  10.952
21003SOL     OW64905  14.298  10.290   1.732
21003SOL    HW164906  14.253  10.211   1.762
21003SOL    HW264907  14.228  10.350   1.708
21004SOL     OW64908   5.733   4.933   0.662
21004SOL    HW164909   5.731   5.001   0.729
21004SOL    HW264910   5.673   4.865   0.695
21005SOL     OW64911   5.008  10.777   2.644
21005SOL    HW164912   5.042  10.688   2.637
21005SOL    HW264913   4.915  10.767   2.660
21006SOL     OW64914   2.041  13.853   5.679
21006SOL    HW164915   2.102  13.926   5.673
21006SOL    HW264916   2.021  13.830   5.588
21007SOL     OW64917   3.956   8.487   5.429
21007SOL    HW164918   3.923   8.550   5.493
21007SOL    HW264919   3.990   8.540   5.357
21008SOL     OW64920   0.067  11.753  10.282
21008SOL    HW164921   0.134  11.686  10.300
21008SOL    HW264922   0.101  11.832  10.324
21009SOL     OW64923   4.230   8.932   9.255
21009SOL    HW164924   4.305   8.986   9.231
21009SOL    HW264925   4.213   8.879   9.178
21010SOL     OW64926   0.097   9.607  13.051
21010SOL    HW164927   0.011   9.636  13.082
21010SOL    HW264928   0.089   9.512  13.043
21011SOL     OW64929   2.159  14.688   2.590
21011SOL    HW164930   2.082  14.733   2.626
21011SOL    HW264931   2.192  14.635   2.663
21012SOL     OW64932   4.727  10.524   9.043
21012SOL    HW164933   4.684  10.552   8.962
21012SOL    HW264934   4.797  10.465   9.014
21013SOL     OW64935   2.416   5.184  13.958
21013SOL    HW164936   2.321   5.186  13.952
21013SOL    HW264937   2.437   5.096  13.989
21014SOL     OW64938  12.241   3.745   5.774
21014SOL    HW164939  12.334   3.766   5.772
21014SOL    HW264940  12.236   3.657   5.735
21015SOL     OW64941   6.975  14.794   2.549
21015SOL    HW164942   7.055  14.847   2.553
21015SOL    HW264943   6.992  14.732   2.479
21016SOL     OW64944   5.223   4.163   6.525
21016SOL    HW164945   5.308   4.207   6.526
21016SOL    HW264946   5.231   4.095   6.459
21017SOL     OW64947   6.099   5.905   2.980
21017SOL    HW164948   6.108   5.892   3.074
21017SOL    HW264949   6.068   5.995   2.971
21018SOL     OW64950  12.201   5.470   8.783
21018SOL    HW164951  12.250   5.388   8.790
21018SOL    HW264952  12.268   5.538   8.780
21019SOL     OW64953   0.886  10.852   5.035
21019SOL    HW164954   0.954  10.913   5.010
21019SOL    HW264955   0.895  10.843   5.130
21020SOL     OW64956  14.252   3.920   9.493
21020SOL    HW164957  14.206   4.003   9.506
21020SOL    HW264958  14.211   3.882   9.415
21021SOL     OW64959   6.713   6.560  12.288
21021SOL    HW164960   6.799   6.578  12.327
21021SOL    HW264961   6.731   6.545  12.196
21022SOL     OW64962   5.235   1.404  13.155
21022SOL    HW164963   5.156   1.457  13.145
21022SOL    HW264964   5.205   1.314  13.142
21023SOL     OW64965   8.949  13.107   8.555
21023SOL    HW164966   8.957  13.090   8.649
21023SOL    HW264967   9.035  13.141   8.530
21024SOL     OW64968   7.568  11.658   4.253
21024SOL    HW164969   7.517  11.701   4.185
21024SOL    HW264970   7.607  11.582   4.210
21025SOL     OW64971   2.842  10.708   5.484
21025SOL    HW164972   2.795  10.752   5.413
21025SOL    HW264973   2.931  10.742   5.480
21026SOL     OW64974  12.477   6.142   9.566
21026SOL    HW164975  12.533   6.065   9.580
21026SOL    HW264976  12.478   6.187   9.650
21027SOL     OW64977  13.005   8.171   7.845
21027SOL    HW164978  12.924   8.207   7.881
21027SOL    HW264979  13.071   8.188   7.912
21028SOL     OW64980   9.525   2.946  12.056
21028SOL    HW164981   9.616   2.970  12.072
21028SOL    HW264982   9.508   2.976  11.967
21029SOL     OW64983  14.884   2.668   1.139
21029SOL    HW164984   0.039   2.597   1.187
21029SOL    HW264985   0.039   2.667   1.053
21030SOL     OW64986   7.787  14.658   7.285
21030SOL    HW164987   7.786  14.662   7.380
21030SOL    HW264988   7.763  14.567   7.265
21031SOL     OW64989   5.898  13.896   3.197
21031SOL    HW164990   5.968  13.951   3.232
21031SOL    HW264991   5.853  13.951   3.134
21032SOL     OW64992   9.028   5.760   7.613
21032SOL    HW164993   9.092   5.749   7.683
21032SOL    HW264994   8.944   5.737   7.654
21033SOL     OW64995   5.952  12.194  11.918
21033SOL    HW164996   5.946  12.182  11.823
21033SOL    HW264997   5.879  12.251  11.940
21034SOL     OW64998   9.669   3.481   4.099
21034SOL    HW164999   9.698   3.462   4.189
21034SOL    HW265000   9.734   3.541   4.065
21035SOL     OW65001   1.117   7.611  11.645
21035SOL    HW165002   1.089   7.548  11.579
21035SOL    HW265003   1.167   7.559  11.708
21036SOL     OW65004  12.141   2.952  13.202
21036SOL    HW165005  12.192   3.031  13.181
21036SOL    HW265006  12.204   2.880  13.194
21037SOL     OW65007  12.070  13.144   5.717
21037SOL    HW165008  12.147  13.091   5.737
21037SOL    HW265009  12.055  13.130   5.623
21038SOL     OW65010   3.291   4.584   4.047
21038SOL    HW165011   3.256   4.605   3.961
21038SOL    HW265012   3.381   4.617   4.044
21039SOL     OW65013   1.102   0.231   4.243
21039SOL    HW165014   1.037   0.216   4.174
21039SOL    HW265015   1.111   0.145   4.285
21040SOL     OW65016  11.230   9.903   5.805
21040SOL    HW165017  11.206   9.831   5.746
21040SOL    HW265018  11.302   9.868   5.857
21041SOL     OW65019   2.164   9.257  13.006
21041SOL    HW165020   2.205   9.172  12.998
21041SOL    HW265021   2.129   9.259  13.095
21042SOL     OW65022   1.293   8.986   6.198
21042SOL    HW165023   1.340   9.001   6.280
21042SOL    HW265024   1.360   8.998   6.130
21043SOL     OW65025   2.034  10.124   8.084
21043SOL    HW165026   1.956  10.081   8.050
21043SOL    HW265027   2.094  10.129   8.009
21044SOL     OW65028   5.133   5.619  10.300
21044SOL    HW165029   5.110   5.537  10.256
21044SOL    HW265030   5.226   5.631  10.282
21045SOL     OW65031  12.098  10.584  10.676
21045SOL    HW165032  12.152  10.639  10.619
21045SOL    HW265033  12.038  10.645  10.719
21046SOL     OW65034   0.710   1.645  11.018
21046SOL    HW165035   0.621   1.611  11.005
21046SOL    HW265036   0.767   1.571  10.997
21047SOL     OW65037  13.156  13.748   8.846
21047SOL    HW165038  13.128  13.662   8.815
21047SOL    HW265039  13.100  13.765   8.922
21048SOL     OW65040  13.159   2.387  10.830
21048SOL    HW165041  13.254   2.378  10.840
21048SOL    HW265042  13.124   2.352  10.912
21049SOL     OW65043  13.570   2.526   6.635
21049SOL    HW165044  13.477   2.547   6.649
21049SOL    HW265045  13.599   2.487   6.717
21050SOL     OW65046   3.547  10.276   3.524
21050SOL    HW165047   3.547  10.362   3.567
21050SOL    HW265048   3.614  10.283   3.456
21051SOL     OW65049   2.416   3.448   2.023
21051SOL    HW165050   2.421   3.413   1.934
21051SOL    HW265051   2.324   3.470   2.035
21052SOL     OW65052   9.772  11.228  13.402
21052SOL    HW165053   9.679  11.233  13.424
21052SOL    HW265054   9.774  11.231  13.306
21053SOL     OW65055   8.355  14.423   6.188
21053SOL    HW165056   8.439  14.425   6.142
21053SOL    HW265057   8.378  14.438   6.280
21054SOL     OW65058   7.655  12.354   9.151
21054SOL    HW165059   7.688  12.435   9.191
21054SOL    HW265060   7.733  12.300   9.140
21055SOL     OW65061   7.534  12.664   4.857
21055SOL    HW165062   7.627  12.666   4.880
21055SOL    HW265063   7.514  12.570   4.847
21056SOL     OW65064  14.240   5.216   7.932
21056SOL    HW165065  14.148   5.243   7.939
21056SOL    HW265066  14.237   5.132   7.888
21057SOL     OW65067  11.810   1.345   6.085
21057SOL    HW165068  11.828   1.319   6.175
21057SOL    HW265069  11.756   1.424   6.094
21058SOL     OW65070  11.371   6.530   5.713
21058SOL    HW165071  11.299   6.471   5.736
21058SOL    HW265072  11.444   6.501   5.768
21059SOL     OW65073   0.597   5.515   5.297
21059SOL    HW165074   0.537   5.443   5.280
21059SOL    HW265075   0.634   5.536   5.211
21060SOL     OW65076   5.210  11.628   5.779
21060SOL    HW165077   5.301  11.646   5.759
21060SOL    HW265078   5.203  11.639   5.874
21061SOL     OW65079   9.511   6.808   6.835
21061SOL    HW165080   9.510   6.717   6.864
21061SOL    HW265081   9.489   6.858   6.914
21062SOL     OW65082   3.060   8.907   7.248
21062SOL    HW165083   3.123   8.882   7.180
21062SOL    HW265084   2.985   8.941   7.200
21063SOL     OW65085   7.595   3.215  11.981
21063SOL    HW165086   7.660   3.145  11.984
21063SOL    HW265087   7.573   3.224  11.888
21064SOL     OW65088   7.936  13.769  13.266
21064SOL    HW165089   7.929  13.826  13.342
21064SOL    HW265090   8.002  13.810  13.211
21065SOL     OW65091   8.290  14.798  10.251
21065SOL    HW165092   8.196  14.807  10.236
21065SOL    HW265093   8.327  14.880  10.219
21066SOL     OW65094   9.702  10.847   0.874
21066SOL    HW165095   9.742  10.782   0.815
21066SOL    HW265096   9.641  10.895   0.819
21067SOL     OW65097   3.237   6.004  11.388
21067SOL    HW165098   3.278   5.918  11.377
21067SOL    HW265099   3.291   6.048  11.454
21068SOL     OW65100   8.221  10.446   0.342
21068SOL    HW165101   8.268  10.381   0.393
21068SOL    HW265102   8.235  10.420   0.251
21069SOL     OW65103   4.022   2.542   5.470
21069SOL    HW165104   4.010   2.567   5.378
21069SOL    HW265105   3.933   2.526   5.502
21070SOL     OW65106   8.458   9.742   3.860
21070SOL    HW165107   8.375   9.717   3.902
21070SOL    HW265108   8.456   9.838   3.860
21071SOL     OW65109   0.562   4.742   1.542
21071SOL    HW165110   0.546   4.820   1.594
21071SOL    HW265111   0.600   4.775   1.460
21072SOL     OW65112   2.691   9.280  14.777
21072SOL    HW165113   2.778   9.316  14.789
21072SOL    HW265114   2.691   9.198  14.826
21073SOL     OW65115   9.416   4.433   8.309
21073SOL    HW165116   9.438   4.443   8.216
21073SOL    HW265117   9.381   4.344   8.316
21074SOL     OW65118   0.466   8.829  13.345
21074SOL    HW165119   0.384   8.808  13.301
21074SOL    HW265120   0.467   8.925  13.350
21075SOL     OW65121  11.315   5.814   4.502
21075SOL    HW165122  11.342   5.855   4.420
21075SOL    HW265123  11.394   5.769   4.533
21076SOL     OW65124   5.602  11.912  12.050
21076SOL    HW165125   5.556  11.850  12.107
21076SOL    HW265126   5.655  11.965  12.109
21077SOL     OW65127  14.146   8.508  11.800
21077SOL    HW165128  14.171   8.480  11.888
21077SOL    HW265129  14.092   8.437  11.767
21078SOL     OW65130   6.256   7.718   3.018
21078SOL    HW165131   6.177   7.702   2.968
21078SOL    HW265132   6.317   7.756   2.955
21079SOL     OW65133  10.213   4.313  12.358
21079SOL    HW165134  10.196   4.291  12.450
21079SOL    HW265135  10.146   4.378  12.336
21080SOL     OW65136   7.253  13.233   6.626
21080SOL    HW165137   7.283  13.312   6.670
21080SOL    HW265138   7.333  13.185   6.604
21081SOL     OW65139  14.760   5.180   4.877
21081SOL    HW165140  14.848   5.154   4.904
21081SOL    HW265141  14.705   5.106   4.901
21082SOL     OW65142   1.761  13.516   5.629
21082SOL    HW165143   1.760  13.612   5.629
21082SOL    HW265144   1.679  13.492   5.674
21083SOL     OW65145  12.716   4.885  13.247
21083SOL    HW165146  12.677   4.838  13.173
21083SOL    HW265147  12.755   4.817  13.302
21084SOL     OW65148   9.243   0.005   8.947
21084SOL    HW165149   9.215  14.808   8.912
21084SOL    HW265150   9.199   0.012   9.031
21085SOL     OW65151   0.082   5.365   0.408
21085SOL    HW165152   0.043   5.296   0.463
21085SOL    HW265153   0.176   5.349   0.413
21086SOL     OW65154   7.174  13.567   1.673
21086SOL    HW165155   7.079  13.558   1.677
21086SOL    HW265156   7.191  13.610   1.589
21087SOL     OW65157   9.252   5.969   9.060
21087SOL    HW165158   9.322   5.917   9.021
21087SOL    HW265159   9.176   5.951   9.006
21088SOL     OW65160   5.020   3.020  11.960
21088SOL    HW165161   4.932   3.055  11.948
21088SOL    HW265162   5.062   3.082  12.020
21089SOL     OW65163   2.832   3.967   2.090
21089SOL    HW165164   2.749   3.942   2.130
21089SOL    HW265165   2.898   3.947   2.157
21090SOL     OW65166  10.384   9.341   1.178
21090SOL    HW165167  10.313   9.297   1.224
21090SOL    HW265168  10.443   9.271   1.150
21091SOL     OW65169   4.934   9.416  12.990
21091SOL    HW165170   4.929   9.417  13.086
21091SOL    HW265171   5.023   9.446  12.971
21092SOL     OW65172   0.065  10.223   2.999
21092SOL    HW165173   0.104  10.238   3.085
21092SOL    HW265174   0.107  10.143   2.967
21093SOL     OW65175  11.849  13.483  12.846
21093SOL    HW165176  11.885  13.423  12.781
21093SOL    HW265177  11.755  13.472  12.840
21094SOL     OW65178  14.568  13.134  13.617
21094SOL    HW165179  14.582  13.076  13.692
21094SOL    HW265180  14.500  13.194  13.645
21095SOL     OW65181   8.324  12.799   3.227
21095SOL    HW165182   8.340  12.893   3.217
21095SOL    HW265183   8.293  12.771   3.141
21096SOL     OW65184   5.541   9.332  14.512
21096SOL    HW165185   5.470   9.294  14.564
21096SOL    HW265186   5.620   9.318  14.565
21097SOL     OW65187  14.054   0.433   5.491
21097SOL    HW165188  14.125   0.452   5.552
21097SOL    HW265189  13.985   0.495   5.516
21098SOL     OW65190  11.278  13.336   9.735
21098SOL    HW165191  11.342  13.345   9.805
21098SOL    HW265192  11.193  13.342   9.780
21099SOL     OW65193   1.594   6.217   1.907
21099SOL    HW165194   1.569   6.304   1.936
21099SOL    HW265195   1.561   6.158   1.975
21100SOL     OW65196   4.379  14.053  10.925
21100SOL    HW165197   4.385  14.022  10.834
21100SOL    HW265198   4.392  14.147  10.919
21101SOL     OW65199  11.209   2.970   9.501
21101SOL    HW165200  11.266   2.931   9.567
21101SOL    HW265201  11.200   3.062   9.528
21102SOL     OW65202  11.013   1.631   5.718
21102SOL    HW165203  11.105   1.607   5.708
21102SOL    HW265204  10.967   1.575   5.655
21103SOL     OW65205   1.455   9.557  10.641
21103SOL    HW165206   1.463   9.514  10.726
21103SOL    HW265207   1.402   9.498  10.589
21104SOL     OW65208   4.726   5.798   4.439
21104SOL    HW165209   4.732   5.783   4.534
21104SOL    HW265210   4.809   5.765   4.405
21105SOL     OW65211   3.286  11.883   2.131
21105SOL    HW165212   3.289  11.955   2.194
21105SOL    HW265213   3.336  11.913   2.056
21106SOL     OW65214   3.337   0.730   9.082
21106SOL    HW165215   3.277   0.788   9.130
21106SOL    HW265216   3.403   0.789   9.045
21107SOL     OW65217  12.426   9.302   6.871
21107SOL    HW165218  12.381   9.357   6.935
21107SOL    HW265219  12.444   9.360   6.797
21108SOL     OW65220   4.219   7.848   0.335
21108SOL    HW165221   4.161   7.835   0.260
21108SOL    HW265222   4.264   7.931   0.318
21109SOL     OW65223   2.157   5.005   1.595
21109SOL    HW165224   2.101   5.047   1.662
21109SOL    HW265225   2.099   4.941   1.553
21110SOL     OW65226  11.952  13.195  10.605
21110SOL    HW165227  11.988  13.277  10.637
21110SOL    HW265228  11.984  13.128  10.666
21111SOL     OW65229   2.660   8.307   3.243
21111SOL    HW165230   2.689   8.273   3.158
21111SOL    HW265231   2.564   8.308   3.236
21112SOL     OW65232   4.867  12.038   3.483
21112SOL    HW165233   4.873  11.978   3.557
21112SOL    HW265234   4.917  12.115   3.511
21113SOL     OW65235   2.220   8.729   7.130
21113SOL    HW165236   2.288   8.794   7.144
21113SOL    HW265237   2.218   8.678   7.211
21114SOL     OW65238   3.690   7.566   2.674
21114SOL    HW165239   3.748   7.638   2.650
21114SOL    HW265240   3.731   7.525   2.750
21115SOL     OW65241  12.908   5.224   6.021
21115SOL    HW165242  12.881   5.311   6.048
21115SOL    HW265243  12.915   5.175   6.103
21116SOL     OW65244  11.751   2.856   4.303
21116SOL    HW165245  11.832   2.806   4.294
21116SOL    HW265246  11.712   2.824   4.384
21117SOL     OW65247   3.687   0.836   2.824
21117SOL    HW165248   3.618   0.897   2.800
21117SOL    HW265249   3.641   0.762   2.865
21118SOL     OW65250  12.054   3.652   8.700
21118SOL    HW165251  12.021   3.709   8.770
21118SOL    HW265252  11.975   3.610   8.665
21119SOL     OW65253   5.945   2.715   5.059
21119SOL    HW165254   5.905   2.798   5.084
21119SOL    HW265255   6.032   2.738   5.026
21120SOL     OW65256   9.660   6.254   5.808
21120SOL    HW165257   9.641   6.216   5.722
21120SOL    HW265258   9.574   6.281   5.841
21121SOL     OW65259  12.212   3.072   8.478
21121SOL    HW165260  12.199   2.978   8.470
21121SOL    HW265261  12.230   3.102   8.388
21122SOL     OW65262  10.556   8.509   0.627
21122SOL    HW165263  10.635   8.455   0.621
21122SOL    HW265264  10.523   8.493   0.716
21123SOL     OW65265   3.752   0.428   8.205
21123SOL    HW165266   3.741   0.431   8.110
21123SOL    HW265267   3.758   0.335   8.225
21124SOL     OW65268  13.614   3.862   0.144
21124SOL    HW165269  13.577   3.946   0.118
21124SOL    HW265270  13.708   3.879   0.154
21125SOL     OW65271   0.090  12.348   6.959
21125SOL    HW165272   0.166  12.350   7.017
21125SOL    HW265273   0.115  12.287   6.889
21126SOL     OW65274   6.864  14.475   8.482
21126SOL    HW165275   6.784  14.426   8.465
21126SOL    HW265276   6.872  14.478   8.577
21127SOL     OW65277   6.750   1.670  14.753
21127SOL    HW165278   6.784   1.747  14.707
21127SOL    HW265279   6.746   1.602  14.686
21128SOL     OW65280   6.445   0.526   6.435
21128SOL    HW165281   6.362   0.517   6.483
21128SOL    HW265282   6.420   0.565   6.352
21129SOL     OW65283   1.647  13.465  12.902
21129SOL    HW165284   1.599  13.384  12.919
21129SOL    HW265285   1.596  13.510  12.835
21130SOL     OW65286   1.091   9.809   1.339
21130SOL    HW165287   1.097   9.754   1.261
21130SOL    HW265288   1.002   9.845   1.335
21131SOL     OW65289  11.959   3.986   8.180
21131SOL    HW165290  11.921   3.949   8.259
21131SOL    HW265291  11.890   4.042   8.144
21132SOL     OW65292   2.371  12.476   6.270
21132SOL    HW165293   2.275  12.476   6.273
21132SOL    HW265294   2.394  12.553   6.217
21133SOL     OW65295   1.542   3.422   2.134
21133SOL    HW165296   1.533   3.482   2.060
21133SOL    HW265297   1.517   3.337   2.098
21134SOL     OW65298   7.279  12.446   6.538
21134SOL    HW165299   7.248  12.403   6.617
21134SOL    HW265300   7.200  12.464   6.487
21135SOL     OW65301   5.641   1.377  13.859
21135SOL    HW165302   5.547   1.390  13.873
21135SOL    HW265303   5.678   1.465  13.864
21136SOL     OW65304  11.427  12.746  10.108
21136SOL    HW165305  11.517  12.776  10.118
21136SOL    HW265306  11.435  12.652  10.088
21137SOL     OW65307  11.147   4.856   8.777
21137SOL    HW165308  11.211   4.846   8.706
21137SOL    HW265309  11.161   4.780   8.833
21138SOL     OW65310  14.673  11.922  12.574
21138SOL    HW165311  14.616  11.853  12.540
21138SOL    HW265312  14.614  11.989  12.607
21139SOL     OW65313   3.697  14.055   7.469
21139SOL    HW165314   3.717  13.968   7.503
21139SOL    HW265315   3.778  14.083   7.427
21140SOL     OW65316   8.353   4.958   1.857
21140SOL    HW165317   8.381   4.881   1.808
21140SOL    HW265318   8.414   5.027   1.831
21141SOL     OW65319   0.182   1.588   7.617
21141SOL    HW165320   0.117   1.626   7.677
21141SOL    HW265321   0.258   1.569   7.672
21142SOL     OW65322   6.482   3.080   4.749
21142SOL    HW165323   6.405   3.026   4.770
21142SOL    HW265324   6.446   3.167   4.731
21143SOL     OW65325   7.541   0.511   6.948
21143SOL    HW165326   7.547   0.486   6.856
21143SOL    HW265327   7.464   0.466   6.981
21144SOL     OW65328  10.175   5.772   5.725
21144SOL    HW165329  10.097   5.818   5.694
21144SOL    HW265330  10.164   5.683   5.693
21145SOL     OW65331   0.406  14.224   7.357
21145SOL    HW165332   0.376  14.195   7.444
21145SOL    HW265333   0.330  14.269   7.320
21146SOL     OW65334  13.533  11.938  13.900
21146SOL    HW165335  13.482  11.899  13.971
21146SOL    HW265336  13.476  12.007  13.865
21147SOL     OW65337   7.013   1.608   9.016
21147SOL    HW165338   6.993   1.629   8.925
21147SOL    HW265339   7.035   1.515   9.015
21148SOL     OW65340   8.341   3.507   0.977
21148SOL    HW165341   8.349   3.568   1.050
21148SOL    HW265342   8.303   3.558   0.906
21149SOL     OW65343   3.853   4.957   5.031
21149SOL    HW165344   3.862   4.964   5.126
21149SOL    HW265345   3.938   4.983   4.996
21150SOL     OW65346   0.148   3.245   9.370
21150SOL    HW165347   0.169   3.312   9.435
21150SOL    HW265348   0.222   3.185   9.372
21151SOL     OW65349  10.354  12.471   3.018
21151SOL    HW165350  10.301  12.549   3.005
21151SOL    HW265351  10.355  12.427   2.933
21152SOL     OW65352   7.984   2.820  13.828
21152SOL    HW165353   7.930   2.845  13.903
21152SOL    HW265354   7.953   2.732  13.805
21153SOL     OW65355  14.021   0.068  13.547
21153SOL    HW165356  14.067   0.148  13.570
21153SOL    HW265357  13.967   0.049  13.624
21154SOL     OW65358   6.971  13.700   3.977
21154SOL    HW165359   6.895  13.746   3.941
21154SOL    HW265360   7.033  13.695   3.905
21155SOL     OW65361   9.650   4.826   7.143
21155SOL    HW165362   9.654   4.753   7.204
21155SOL    HW265363   9.714   4.889   7.177
21156SOL     OW65364   7.121   2.718   5.543
21156SOL    HW165365   7.123   2.723   5.638
21156SOL    HW265366   7.188   2.654   5.521
21157SOL     OW65367   4.219   0.112   3.417
21157SOL    HW165368   4.215   0.060   3.497
21157SOL    HW265369   4.243   0.200   3.446
21158SOL     OW65370   2.131   2.785  10.557
21158SOL    HW165371   2.219   2.797  10.594
21158SOL    HW265372   2.118   2.863  10.503
21159SOL     OW65373   9.333   2.264   9.074
21159SOL    HW165374   9.426   2.287   9.065
21159SOL    HW265375   9.302   2.320   9.145
21160SOL     OW65376  13.681   7.529   9.985
21160SOL    HW165377  13.738   7.476  10.041
21160SOL    HW265378  13.737   7.553   9.911
21161SOL     OW65379   0.231  10.908   6.499
21161SOL    HW165380   0.177  10.962   6.440
21161SOL    HW265381   0.186  10.914   6.583
21162SOL     OW65382   9.394   9.108   4.210
21162SOL    HW165383   9.305   9.107   4.174
21162SOL    HW265384   9.441   9.043   4.157
21163SOL     OW65385   8.223   8.407  10.109
21163SOL    HW165386   8.252   8.317  10.126
21163SOL    HW265387   8.178   8.402  10.025
21164SOL     OW65388   3.654   4.816   5.591
21164SOL    HW165389   3.578   4.827   5.647
21164SOL    HW265390   3.633   4.863   5.510
21165SOL     OW65391   6.728   6.898   2.206
21165SOL    HW165392   6.808   6.874   2.160
21165SOL    HW265393   6.725   6.840   2.282
21166SOL     OW65394  12.229   5.766   0.313
21166SOL    HW165395  12.134   5.774   0.318
21166SOL    HW265396  12.244   5.706   0.240
21167SOL     OW65397   0.437   2.004   8.500
21167SOL    HW165398   0.447   1.987   8.406
21167SOL    HW265399   0.385   1.930   8.532
21168SOL     OW65400  14.422   3.828  11.286
21168SOL    HW165401  14.365   3.770  11.236
21168SOL    HW265402  14.434   3.904  11.230
21169SOL     OW65403  13.360   2.143  13.263
21169SOL    HW165404  13.288   2.100  13.217
21169SOL    HW265405  13.322   2.224  13.296
21170SOL     OW65406   5.182   0.286   2.846
21170SOL    HW165407   5.189   0.311   2.939
21170SOL    HW265408   5.182   0.370   2.800
21171SOL     OW65409   5.670   9.424   5.392
21171SOL    HW165410   5.594   9.383   5.351
21171SOL    HW265411   5.711   9.474   5.322
21172SOL     OW65412   3.499   8.065   9.622
21172SOL    HW165413   3.523   8.095   9.534
21172SOL    HW265414   3.406   8.083   9.629
21173SOL     OW65415   3.829   6.060   3.519
21173SOL    HW165416   3.890   5.991   3.492
21173SOL    HW265417   3.882   6.139   3.525
21174SOL     OW65418   3.218   6.050  13.448
21174SOL    HW165419   3.138   6.097  13.473
21174SOL    HW265420   3.264   6.034  13.530
21175SOL     OW65421   9.230  14.578   9.947
21175SOL    HW165422   9.256  14.615   9.863
21175SOL    HW265423   9.199  14.490   9.926
21176SOL     OW65424   1.582   0.604  13.530
21176SOL    HW165425   1.531   0.682  13.553
21176SOL    HW265426   1.574   0.598  13.435
21177SOL     OW65427   6.733   7.697   0.558
21177SOL    HW165428   6.667   7.642   0.600
21177SOL    HW265429   6.815   7.677   0.604
21178SOL     OW65430   4.130   2.314  14.441
21178SOL    HW165431   4.119   2.400  14.401
21178SOL    HW265432   4.074   2.256  14.389
21179SOL     OW65433  13.215  14.841   9.252
21179SOL    HW165434  13.139  14.887   9.219
21179SOL    HW265435  13.245  14.787   9.179
21180SOL     OW65436  13.009   9.221   0.909
21180SOL    HW165437  13.006   9.264   0.823
21180SOL    HW265438  12.917   9.206   0.931
21181SOL     OW65439  10.042   0.814  14.388
21181SOL    HW165440   9.982   0.826  14.314
21181SOL    HW265441  10.099   0.743  14.361
21182SOL     OW65442   5.668   3.197   5.170
21182SOL    HW165443   5.727   3.188   5.095
21182SOL    HW265444   5.588   3.151   5.143
21183SOL     OW65445   7.110   0.230   6.506
21183SOL    HW165446   7.161   0.306   6.478
21183SOL    HW265447   7.086   0.185   6.425
21184SOL     OW65448   4.897   7.741   2.020
21184SOL    HW165449   4.959   7.678   1.983
21184SOL    HW265450   4.903   7.728   2.114
21185SOL     OW65451   4.708  14.129   2.129
21185SOL    HW165452   4.692  14.075   2.207
21185SOL    HW265453   4.782  14.086   2.085
21186SOL     OW65454  10.616   6.385   5.773
21186SOL    HW165455  10.625   6.291   5.756
21186SOL    HW265456  10.706   6.417   5.777
21187SOL     OW65457   8.832  11.310   8.276
21187SOL    HW165458   8.833  11.231   8.331
21187SOL    HW265459   8.742  11.342   8.282
21188SOL     OW65460   9.216  12.232   3.160
21188SOL    HW165461   9.171  12.288   3.223
21188SOL    HW265462   9.309  12.253   3.171
21189SOL     OW65463  13.911   9.900   5.883
21189SOL    HW165464  13.856   9.876   5.957
21189SOL    HW265465  13.877   9.848   5.810
21190SOL     OW65466   8.173   9.508  12.489
21190SOL    HW165467   8.133   9.575  12.543
21190SOL    HW265468   8.265   9.506  12.516
21191SOL     OW65469  13.008   9.096  11.598
21191SOL    HW165470  12.918   9.065  11.599
21191SOL    HW265471  13.022   9.135  11.684
21192SOL     OW65472  10.172   4.124   6.510
21192SOL    HW165473  10.186   4.034   6.541
21192SOL    HW265474  10.199   4.179   6.584
21193SOL     OW65475   7.806   6.175   6.970
21193SOL    HW165476   7.791   6.082   6.955
21193SOL    HW265477   7.810   6.184   7.065
21194SOL     OW65478   4.670   5.759   4.726
21194SOL    HW165479   4.582   5.780   4.757
21194SOL    HW265480   4.720   5.740   4.805
21195SOL     OW65481  12.384   5.736   9.964
21195SOL    HW165482  12.323   5.810   9.976
21195SOL    HW265483  12.429   5.729  10.048
21196SOL     OW65484  14.844   4.793   0.902
21196SOL    HW165485   0.046   4.774   0.933
21196SOL    HW265486  14.799   4.830   0.977
21197SOL     OW65487   3.418   5.499   1.201
21197SOL    HW165488   3.397   5.577   1.251
21197SOL    HW265489   3.430   5.430   1.266
21198SOL     OW65490   4.112  13.523   5.667
21198SOL    HW165491   4.125  13.533   5.762
21198SOL    HW265492   4.104  13.613   5.635
21199SOL     OW65493   5.669   8.512  11.960
21199SOL    HW165494   5.677   8.569  11.884
21199SOL    HW265495   5.650   8.572  12.033
21200SOL     OW65496   5.114   1.098   5.492
21200SOL    HW165497   5.063   1.029   5.449
21200SOL    HW265498   5.140   1.059   5.576
21201SOL     OW65499   6.911   2.593   2.424
21201SOL    HW165500   6.842   2.557   2.367
21201SOL    HW265501   6.986   2.535   2.410
21202SOL     OW65502  11.226   9.663  14.781
21202SOL    HW165503  11.155   9.658  14.718
21202SOL    HW265504  11.299   9.618  14.738
21203SOL     OW65505   9.687   9.285  12.758
21203SOL    HW165506   9.621   9.338  12.802
21203SOL    HW265507   9.636   9.222  12.707
21204SOL     OW65508  11.864  14.260   9.990
21204SOL    HW165509  11.850  14.166  10.001
21204SOL    HW265510  11.829  14.279   9.903
21205SOL     OW65511   8.634   9.587   4.074
21205SOL    HW165512   8.596   9.638   4.145
21205SOL    HW265513   8.630   9.646   3.998
21206SOL     OW65514   1.513   6.688   5.460
21206SOL    HW165515   1.581   6.627   5.489
21206SOL    HW265516   1.431   6.646   5.484
21207SOL     OW65517   9.712   4.532  10.363
21207SOL    HW165518   9.701   4.452  10.414
21207SOL    HW265519   9.715   4.503  10.272
21208SOL     OW65520  11.791   3.846   7.135
21208SOL    HW165521  11.781   3.904   7.210
21208SOL    HW265522  11.762   3.761   7.166
21209SOL     OW65523  12.493   6.067   6.991
21209SOL    HW165524  12.417   6.083   7.047
21209SOL    HW265525  12.466   5.994   6.935
21210SOL     OW65526   1.375  10.019   0.504
21210SOL    HW165527   1.337   9.956   0.442
21210SOL    HW265528   1.361  10.104   0.463
21211SOL     OW65529  11.997   1.865   8.950
21211SOL    HW165530  12.018   1.868   8.856
21211SOL    HW265531  12.043   1.939   8.988
21212SOL     OW65532   2.266   1.379   6.224
21212SOL    HW165533   2.181   1.356   6.186
21212SOL    HW265534   2.245   1.422   6.307
21213SOL     OW65535   8.162   3.461   7.970
21213SOL    HW165536   8.193   3.524   7.905
21213SOL    HW265537   8.160   3.377   7.923
21214SOL     OW65538  11.827   5.763  11.233
21214SOL    HW165539  11.733   5.764  11.218
21214SOL    HW265540  11.865   5.748  11.147
21215SOL     OW65541  12.844   8.542  14.346
21215SOL    HW165542  12.914   8.477  14.352
21215SOL    HW265543  12.864   8.605  14.416
21216SOL     OW65544  12.202   6.753   7.430
21216SOL    HW165545  12.223   6.720   7.517
21216SOL    HW265546  12.107   6.747   7.424
21217SOL     OW65547  12.619   1.376   3.410
21217SOL    HW165548  12.630   1.361   3.504
21217SOL    HW265549  12.560   1.452   3.405
21218SOL     OW65550  14.077   4.635   7.985
21218SOL    HW165551  14.129   4.620   8.064
21218SOL    HW265552  14.102   4.565   7.926
21219SOL     OW65553   7.793   9.644  11.603
21219SOL    HW165554   7.843   9.607  11.675
21219SOL    HW265555   7.805   9.583  11.530
21220SOL     OW65556  14.143   7.426  14.821
21220SOL    HW165557  14.080   7.496  14.806
21220SOL    HW265558  14.163   7.393  14.733
21221SOL     OW65559   9.394   7.490   7.032
21221SOL    HW165560   9.337   7.567   7.028
21221SOL    HW265561   9.343   7.420   6.990
21222SOL     OW65562  14.553  14.411   5.033
21222SOL    HW165563  14.530  14.476   5.099
21222SOL    HW265564  14.580  14.463   4.957
21223SOL     OW65565   4.304   1.419   9.320
21223SOL    HW165566   4.318   1.325   9.309
21223SOL    HW265567   4.250   1.426   9.399
21224SOL     OW65568   0.002   3.950   9.383
21224SOL    HW165569  14.816   3.990   9.336
21224SOL    HW265570   0.050   4.023   9.420
21225SOL     OW65571   2.581   7.588   9.850
21225SOL    HW165572   2.644   7.543   9.907
21225SOL    HW265573   2.500   7.589   9.900
21226SOL     OW65574  10.356   7.755   1.427
21226SOL    HW165575  10.260   7.750   1.426
21226SOL    HW265576  10.382   7.709   1.507
21227SOL     OW65577   3.591   5.455   3.785
21227SOL    HW165578   3.599   5.381   3.845
21227SOL    HW265579   3.518   5.431   3.728
21228SOL     OW65580  13.650   6.217   6.726
21228SOL    HW165581  13.647   6.234   6.820
21228SOL    HW265582  13.705   6.140   6.717
21229SOL     OW65583   4.167  10.227  12.202
21229SOL    HW165584   4.075  10.213  12.228
21229SOL    HW265585   4.162  10.260  12.113
21230SOL     OW65586   6.827  13.824  12.962
21230SOL    HW165587   6.783  13.909  12.959
21230SOL    HW265588   6.915  13.844  12.994
21231SOL     OW65589   8.630   1.946  13.057
21231SOL    HW165590   8.545   1.934  13.014
21231SOL    HW265591   8.643   1.865  13.106
21232SOL     OW65592   8.466   4.947   5.407
21232SOL    HW165593   8.521   4.976   5.480
21232SOL    HW265594   8.382   4.991   5.421
21233SOL     OW65595   3.428   2.432   6.603
21233SOL    HW165596   3.388   2.355   6.563
21233SOL    HW265597   3.355   2.477   6.647
21234SOL     OW65598   7.370   8.635   2.498
21234SOL    HW165599   7.361   8.676   2.585
21234SOL    HW265600   7.289   8.657   2.453
21235SOL     OW65601   9.457   2.207   5.566
21235SOL    HW165602   9.380   2.153   5.551
21235SOL    HW265603   9.421   2.292   5.594
21236SOL     OW65604   8.784   9.707   3.006
21236SOL    HW165605   8.870   9.735   3.035
21236SOL    HW265606   8.735   9.788   2.994
21237SOL     OW65607   8.669   3.721   2.067
21237SOL    HW165608   8.747   3.737   2.015
21237SOL    HW265609   8.599   3.710   2.003
21238SOL     OW65610  13.550   1.701   4.845
21238SOL    HW165611  13.617   1.726   4.909
21238SOL    HW265612  13.582   1.618   4.808
21239SOL     OW65613   6.002   1.222   0.083
21239SOL    HW165614   6.021   1.145   0.029
21239SOL    HW265615   5.987   1.187   0.170
21240SOL     OW65616   8.219  12.536   7.829
21240SOL    HW165617   8.284  12.566   7.765
21240SOL    HW265618   8.265  12.468   7.879
21241SOL     OW65619  10.476   5.864   3.751
21241SOL    HW165620  10.420   5.808   3.804
21241SOL    HW265621  10.490   5.815   3.670
21242SOL     OW65622   7.653  14.567   5.401
21242SOL    HW165623   7.626  14.640   5.346
21242SOL    HW265624   7.620  14.489   5.356
21243SOL     OW65625   7.914   9.016   0.890
21243SOL    HW165626   7.884   9.106   0.904
21243SOL    HW265627   7.913   8.977   0.977
21244SOL     OW65628   3.625   9.168   6.383
21244SOL    HW165629   3.578   9.101   6.332
21244SOL    HW265630   3.692   9.201   6.323
21245SOL     OW65631   4.520   0.765  13.642
21245SOL    HW165632   4.589   0.830  13.630
21245SOL    HW265633   4.441   0.816  13.661
21246SOL     OW65634   1.567  10.855  13.084
21246SOL    HW165635   1.644  10.823  13.037
21246SOL    HW265636   1.601  10.928  13.137
21247SOL     OW65637   0.452   6.222  12.591
21247SOL    HW165638   0.508   6.145  12.605
21247SOL    HW265639   0.474   6.282  12.662
21248SOL     OW65640   3.553  12.144   1.413
21248SOL    HW165641   3.500  12.099   1.347
21248SOL    HW265642   3.571  12.230   1.374
21249SOL     OW65643   1.274   5.222   6.969
21249SOL    HW165644   1.195   5.172   6.989
21249SOL    HW265645   1.335   5.158   6.933
21250SOL     OW65646   4.464   0.751   9.432
21250SOL    HW165647   4.428   0.807   9.363
21250SOL    HW265648   4.551   0.726   9.400
21251SOL     OW65649   4.297  14.066   2.231
21251SOL    HW165650   4.243  14.051   2.153
21251SOL    HW265651   4.378  14.018   2.214
21252SOL     OW65652   8.245   2.946  13.455
21252SOL    HW165653   8.329   2.992  13.461
21252SOL    HW265654   8.265   2.869  13.401
21253SOL     OW65655   7.596  12.350  12.658
21253SOL    HW165656   7.666  12.329  12.719
21253SOL    HW265657   7.582  12.444  12.669
21254SOL     OW65658  12.479   8.932  12.663
21254SOL    HW165659  12.495   9.022  12.691
21254SOL    HW265660  12.384   8.924  12.656
21255SOL     OW65661   3.417   2.208  11.026
21255SOL    HW165662   3.418   2.115  11.006
21255SOL    HW265663   3.458   2.250  10.950
21256SOL     OW65664  13.031  10.360   0.180
21256SOL    HW165665  13.087  10.365   0.259
21256SOL    HW265666  12.944  10.381   0.212
21257SOL     OW65667   3.542  10.844   9.173
21257SOL    HW165668   3.636  10.856   9.186
21257SOL    HW265669   3.534  10.817   9.081
21258SOL     OW65670  10.115  11.040   4.873
21258SOL    HW165671  10.081  11.069   4.789
21258SOL    HW265672  10.087  10.949   4.881
21259SOL     OW65673   5.652   9.086   4.504
21259SOL    HW165674   5.734   9.066   4.458
21259SOL    HW265675   5.680   9.136   4.581
21260SOL     OW65676   1.166   4.173   9.518
21260SOL    HW165677   1.247   4.209   9.480
21260SOL    HW265678   1.186   4.163   9.611
21261SOL     OW65679  10.468  14.173   6.944
21261SOL    HW165680  10.438  14.206   6.859
21261SOL    HW265681  10.528  14.240   6.976
21262SOL     OW65682   2.013   1.084   2.458
21262SOL    HW165683   2.086   1.024   2.444
21262SOL    HW265684   1.958   1.075   2.380
21263SOL     OW65685  14.556   7.043   2.518
21263SOL    HW165686  14.481   7.013   2.571
21263SOL    HW265687  14.612   7.090   2.579
21264SOL     OW65688   2.257  10.422  14.296
21264SOL    HW165689   2.289  10.405  14.207
21264SOL    HW265690   2.260  10.518  14.304
21265SOL     OW65691   1.970   2.339   4.993
21265SOL    HW165692   2.043   2.328   4.931
21265SOL    HW265693   2.008   2.387   5.066
21266SOL     OW65694   7.008  12.906  11.635
21266SOL    HW165695   6.986  12.976  11.696
21266SOL    HW265696   6.937  12.908  11.571
21267SOL     OW65697   0.611   9.482   1.488
21267SOL    HW165698   0.578   9.413   1.546
21267SOL    HW265699   0.576   9.461   1.402
21268SOL     OW65700   7.300   6.505   4.121
21268SOL    HW165701   7.317   6.411   4.109
21268SOL    HW265702   7.217   6.508   4.168
21269SOL     OW65703  14.279   9.822  12.651
21269SOL    HW165704  14.318   9.746  12.606
21269SOL    HW265705  14.262   9.885  12.581
21270SOL     OW65706   0.329  13.101   8.848
21270SOL    HW165707   0.281  13.144   8.919
21270SOL    HW265708   0.298  13.144   8.769
21271SOL     OW65709   1.495   7.983   7.563
21271SOL    HW165710   1.421   7.961   7.507
21271SOL    HW265711   1.525   7.899   7.597
21272SOL     OW65712  12.690  14.636   8.849
21272SOL    HW165713  12.724  14.576   8.782
21272SOL    HW265714  12.638  14.581   8.907
21273SOL     OW65715  11.346   5.038  12.803
21273SOL    HW165716  11.259   5.079  12.803
21273SOL    HW265717  11.373   5.042  12.711
21274SOL     OW65718   4.961   3.080   0.766
21274SOL    HW165719   4.897   3.012   0.788
21274SOL    HW265720   5.044   3.048   0.802
21275SOL     OW65721   1.643   0.331   2.379
21275SOL    HW165722   1.604   0.295   2.299
21275SOL    HW265723   1.572   0.328   2.444
21276SOL     OW65724   4.222  12.354  13.727
21276SOL    HW165725   4.310  12.357  13.766
21276SOL    HW265726   4.222  12.273  13.675
21277SOL     OW65727  14.554   8.721  11.298
21277SOL    HW165728  14.472   8.709  11.346
21277SOL    HW265729  14.546   8.665  11.221
21278SOL     OW65730   9.731   8.107   5.198
21278SOL    HW165731   9.656   8.130   5.252
21278SOL    HW265732   9.767   8.028   5.239
21279SOL     OW65733   5.745  10.296  10.119
21279SOL    HW165734   5.668  10.351  10.138
21279SOL    HW265735   5.748  10.233  10.191
21280SOL     OW65736   4.082   5.428   9.595
21280SOL    HW165737   4.019   5.364   9.627
21280SOL    HW265738   4.029   5.494   9.550
21281SOL     OW65739   1.951   0.965   9.276
21281SOL    HW165740   1.934   0.873   9.295
21281SOL    HW265741   1.888   1.012   9.330
21282SOL     OW65742  11.254   6.596   4.498
21282SOL    HW165743  11.267   6.566   4.408
21282SOL    HW265744  11.342   6.616   4.529
21283SOL     OW65745   1.092   1.212   7.930
21283SOL    HW165746   1.068   1.183   7.842
21283SOL    HW265747   1.037   1.159   7.988
21284SOL     OW65748  10.989  12.564  12.159
21284SOL    HW165749  10.953  12.649  12.134
21284SOL    HW265750  11.074  12.560  12.116
21285SOL     OW65751   7.997   3.447  11.491
21285SOL    HW165752   7.909   3.429  11.524
21285SOL    HW265753   8.055   3.427  11.564
21286SOL     OW65754   3.686   3.324   2.295
21286SOL    HW165755   3.776   3.297   2.314
21286SOL    HW265756   3.670   3.397   2.354
21287SOL     OW65757  13.066  11.051  12.754
21287SOL    HW165758  13.003  11.093  12.812
21287SOL    HW265759  13.062  10.958  12.778
21288SOL     OW65760   2.218  11.891   8.894
21288SOL    HW165761   2.291  11.896   8.832
21288SOL    HW265762   2.226  11.970   8.948
21289SOL     OW65763  11.895   4.218   0.846
21289SOL    HW165764  11.945   4.238   0.766
21289SOL    HW265765  11.960   4.222   0.916
21290SOL     OW65766   0.974  11.101   8.118
21290SOL    HW165767   0.989  11.112   8.024
21290SOL    HW265768   1.041  11.156   8.160
21291SOL     OW65769   2.289  11.079   0.503
21291SOL    HW165770   2.281  11.099   0.596
21291SOL    HW265771   2.363  11.018   0.499
21292SOL     OW65772   6.569   1.756   9.226
21292SOL    HW165773   6.622   1.721   9.154
21292SOL    HW265774   6.624   1.824   9.265
21293SOL     OW65775   5.801  11.873   1.761
21293SOL    HW165776   5.806  11.934   1.688
21293SOL    HW265777   5.892  11.857   1.786
21294SOL     OW65778   2.829   0.697  12.794
21294SOL    HW165779   2.924   0.708  12.799
21294SOL    HW265780   2.799   0.768  12.738
21295SOL     OW65781  12.133   7.011  12.020
21295SOL    HW165782  12.097   7.072  12.084
21295SOL    HW265783  12.135   6.927  12.066
21296SOL     OW65784   1.785   5.622   1.133
21296SOL    HW165785   1.805   5.537   1.173
21296SOL    HW265786   1.709   5.607   1.078
21297SOL     OW65787  13.814  11.394  10.682
21297SOL    HW165788  13.809  11.299  10.672
21297SOL    HW265789  13.890  11.408  10.738
21298SOL     OW65790  13.380  14.023   5.617
21298SOL    HW165791  13.315  14.074   5.665
21298SOL    HW265792  13.367  14.046   5.525
21299SOL     OW65793   1.377   2.384   3.906
21299SOL    HW165794   1.397   2.292   3.923
21299SOL    HW265795   1.413   2.401   3.819
21300SOL     OW65796   9.001  13.591   1.977
21300SOL    HW165797   8.996  13.671   2.030
21300SOL    HW265798   8.912  13.556   1.979
21301SOL     OW65799   0.570   3.031   1.567
21301SOL    HW165800   0.495   3.007   1.621
21301SOL    HW265801   0.582   3.125   1.582
21302SOL     OW65802  13.976   7.122  11.513
21302SOL    HW165803  13.909   7.098  11.577
21302SOL    HW265804  14.022   7.195  11.554
21303SOL     OW65805  13.450   1.931  12.981
21303SOL    HW165806  13.403   1.850  13.004
21303SOL    HW265807  13.396   2.001  13.018
21304SOL     OW65808   8.213  13.541  14.640
21304SOL    HW165809   8.279  13.488  14.594
21304SOL    HW265810   8.130  13.498  14.618
21305SOL     OW65811   5.224   9.512  10.365
21305SOL    HW165812   5.213   9.444  10.432
21305SOL    HW265813   5.261   9.465  10.290
21306SOL     OW65814   2.313  12.997  12.333
21306SOL    HW165815   2.249  13.048  12.383
21306SOL    HW265816   2.303  12.907  12.366
21307SOL     OW65817   5.391  13.322   7.129
21307SOL    HW165818   5.445  13.263   7.076
21307SOL    HW265819   5.451  13.392   7.155
21308SOL     OW65820   4.023   1.425   1.811
21308SOL    HW165821   3.941   1.385   1.784
21308SOL    HW265822   4.028   1.507   1.760
21309SOL     OW65823   2.748   7.554   5.829
21309SOL    HW165824   2.737   7.465   5.794
21309SOL    HW265825   2.665   7.572   5.874
21310SOL     OW65826   1.646  10.330  10.680
21310SOL    HW165827   1.675  10.286  10.600
21310SOL    HW265828   1.597  10.262  10.727
21311SOL     OW65829   3.722   7.703   3.488
21311SOL    HW165830   3.789   7.772   3.482
21311SOL    HW265831   3.665   7.718   3.412
21312SOL     OW65832  10.634   1.920  14.761
21312SOL    HW165833  10.642   1.857  14.690
21312SOL    HW265834  10.699   1.988  14.740
21313SOL     OW65835   0.871   9.823   4.964
21313SOL    HW165836   0.916   9.795   4.885
21313SOL    HW265837   0.799   9.761   4.974
21314SOL     OW65838   0.862   4.842  10.099
21314SOL    HW165839   0.858   4.752  10.066
21314SOL    HW265840   0.909   4.890  10.031
21315SOL     OW65841   9.954   1.901   6.934
21315SOL    HW165842   9.980   1.810   6.916
21315SOL    HW265843   9.917   1.899   7.022
21316SOL     OW65844  10.155   9.484  13.972
21316SOL    HW165845  10.225   9.437  14.018
21316SOL    HW265846  10.123   9.547  14.035
21317SOL     OW65847   5.817   6.366  10.544
21317SOL    HW165848   5.842   6.423  10.471
21317SOL    HW265849   5.817   6.424  10.620
21318SOL     OW65850   2.518   8.544   7.529
21318SOL    HW165851   2.553   8.554   7.617
21318SOL    HW265852   2.500   8.451   7.520
21319SOL     OW65853   3.010   4.440  10.104
21319SOL    HW165854   3.048   4.384  10.036
21319SOL    HW265855   3.062   4.521  10.101
21320SOL     OW65856  11.909   3.333  10.816
21320SOL    HW165857  11.844   3.388  10.859
21320SOL    HW265858  11.956   3.291  10.888
21321SOL     OW65859   0.621   8.118   8.710
21321SOL    HW165860   0.645   8.057   8.640
21321SOL    HW265861   0.536   8.154   8.683
21322SOL     OW65862   1.408  14.281  12.905
21322SOL    HW165863   1.435  14.227  12.979
21322SOL    HW265864   1.446  14.238  12.829
21323SOL     OW65865   2.805   2.619   2.280
21323SOL    HW165866   2.841   2.558   2.217
21323SOL    HW265867   2.731   2.660   2.235
21324SOL     OW65868   2.782   6.257  12.536
21324SOL    HW165869   2.855   6.300  12.492
21324SOL    HW265870   2.707   6.275  12.480
21325SOL     OW65871   0.737  10.711   9.376
21325SOL    HW165872   0.809  10.689   9.436
21325SOL    HW265873   0.776  10.703   9.289
21326SOL     OW65874  13.355  14.295  14.408
21326SOL    HW165875  13.298  14.272  14.335
21326SOL    HW265876  13.421  14.226  14.410
21327SOL     OW65877   1.378   5.169   5.527
21327SOL    HW165878   1.364   5.229   5.601
21327SOL    HW265879   1.473   5.165   5.517
21328SOL     OW65880   5.623   0.818   8.682
21328SOL    HW165881   5.579   0.736   8.701
21328SOL    HW265882   5.569   0.859   8.614
21329SOL     OW65883   2.209  14.870   0.187
21329SOL    HW165884   2.165   0.044   0.129
21329SOL    HW265885   2.148  14.858   0.260
21330SOL     OW65886   2.100   9.455  12.829
21330SOL    HW165887   2.059   9.515  12.891
21330SOL    HW265888   2.130   9.381  12.882
21331SOL     OW65889  13.640   4.999  10.142
21331SOL    HW165890  13.659   5.071  10.080
21331SOL    HW265891  13.662   4.920  10.093
21332SOL     OW65892   0.573   6.432   6.999
21332SOL    HW165893   0.647   6.439   7.059
21332SOL    HW265894   0.610   6.393   6.919
21333SOL     OW65895   3.339   4.315  12.506
21333SOL    HW165896   3.393   4.320  12.427
21333SOL    HW265897   3.252   4.343  12.478
21334SOL     OW65898   1.635   0.397   7.142
21334SOL    HW165899   1.607   0.468   7.200
21334SOL    HW265900   1.731   0.396   7.150
21335SOL     OW65901   3.989  10.140   9.582
21335SOL    HW165902   4.047  10.071   9.614
21335SOL    HW265903   4.041  10.187   9.516
21336SOL     OW65904   6.011   2.409  11.352
21336SOL    HW165905   5.985   2.429  11.262
21336SOL    HW265906   5.935   2.364  11.389
21337SOL     OW65907  10.032   7.254   6.682
21337SOL    HW165908  10.048   7.193   6.611
21337SOL    HW265909  10.028   7.199   6.760
21338SOL     OW65910   1.449  12.066  11.912
21338SOL    HW165911   1.435  12.158  11.891
21338SOL    HW265912   1.369  12.023  11.883
21339SOL     OW65913   8.960  11.309   4.450
21339SOL    HW165914   8.978  11.402   4.434
21339SOL    HW265915   8.951  11.271   4.363
21340SOL     OW65916  14.246   7.620  12.409
21340SOL    HW165917  14.241   7.606  12.314
21340SOL    HW265918  14.187   7.693  12.426
21341SOL     OW65919   3.192   0.927   9.213
21341SOL    HW165920   3.203   0.886   9.299
21341SOL    HW265921   3.107   0.970   9.217
21342SOL     OW65922  14.529  14.572   4.086
21342SOL    HW165923  14.489  14.657   4.105
21342SOL    HW265924  14.464  14.508   4.114
21343SOL     OW65925   8.268   5.085  10.677
21343SOL    HW165926   8.196   5.102  10.738
21343SOL    HW265927   8.344   5.075  10.733
21344SOL     OW65928   0.174   2.697   0.892
21344SOL    HW165929   0.219   2.613   0.879
21344SOL    HW265930   0.241   2.763   0.877
21345SOL     OW65931   2.599   9.589   0.412
21345SOL    HW165932   2.531   9.597   0.479
21345SOL    HW265933   2.559   9.534   0.345
21346SOL     OW65934   1.935   7.607   7.285
21346SOL    HW165935   1.862   7.661   7.316
21346SOL    HW265936   1.960   7.555   7.361
21347SOL     OW65937   4.583   0.317   7.961
21347SOL    HW165938   4.652   0.377   7.992
21347SOL    HW265939   4.562   0.347   7.873
21348SOL     OW65940   7.465  13.838  10.508
21348SOL    HW165941   7.517  13.902  10.556
21348SOL    HW265942   7.394  13.815  10.567
21349SOL     OW65943  11.729   3.676   2.941
21349SOL    HW165944  11.810   3.642   2.980
21349SOL    HW265945  11.757   3.753   2.892
21350SOL     OW65946   6.865   3.810   1.436
21350SOL    HW165947   6.851   3.798   1.342
21350SOL    HW265948   6.911   3.731   1.464
21351SOL     OW65949   3.910   8.208   8.604
21351SOL    HW165950   3.939   8.193   8.694
21351SOL    HW265951   3.989   8.239   8.559
21352SOL     OW65952   2.081   1.296  13.364
21352SOL    HW165953   2.103   1.234  13.294
21352SOL    HW265954   2.090   1.245  13.445
21353SOL     OW65955   1.406   0.398  14.738
21353SOL    HW165956   1.496   0.406  14.708
21353SOL    HW265957   1.395   0.305  14.758
21354SOL     OW65958  11.875   5.896  14.128
21354SOL    HW165959  11.898   5.858  14.043
21354SOL    HW265960  11.800   5.953  14.109
21355SOL     OW65961   0.304   9.030   3.268
21355SOL    HW165962   0.208   9.033   3.276
21355SOL    HW265963   0.320   9.043   3.174
21356SOL     OW65964  14.840   4.921  14.519
21356SOL    HW165965  14.809   4.934  14.609
21356SOL    HW265966  14.762   4.930  14.465
21357SOL     OW65967   2.362   2.981   4.914
21357SOL    HW165968   2.400   2.894   4.898
21357SOL    HW265969   2.353   3.019   4.827
21358SOL     OW65970   5.634  10.577  14.338
21358SOL    HW165971   5.610  10.489  14.369
21358SOL    HW265972   5.667  10.621  14.416
21359SOL     OW65973   7.116   6.415  10.186
21359SOL    HW165974   7.190   6.354  10.181
21359SOL    HW265975   7.098   6.438  10.095
21360SOL     OW65976   1.348  11.166   1.942
21360SOL    HW165977   1.419  11.187   1.882
21360SOL    HW265978   1.315  11.081   1.911
21361SOL     OW65979   3.494   2.676   3.640
21361SOL    HW165980   3.559   2.612   3.610
21361SOL    HW265981   3.530   2.761   3.613
21362SOL     OW65982   1.914   3.234   9.370
21362SOL    HW165983   1.974   3.191   9.309
21362SOL    HW265984   1.912   3.177   9.447
21363SOL     OW65985   1.841   2.976  12.619
21363SOL    HW165986   1.824   3.071  12.618
21363SOL    HW265987   1.847   2.955  12.712
21364SOL     OW65988  11.982   6.155  10.276
21364SOL    HW165989  12.025   6.141  10.192
21364SOL    HW265990  11.920   6.082  10.283
21365SOL     OW65991   2.583   6.896  13.232
21365SOL    HW165992   2.551   6.911  13.143
21365SOL    HW265993   2.505   6.874  13.282
21366SOL     OW65994  10.041   8.527   9.363
21366SOL    HW165995  10.091   8.547   9.284
21366SOL    HW265996  10.092   8.564   9.435
21367SOL     OW65997  14.855   8.159   5.223
21367SOL    HW165998  14.865   8.109   5.304
21367SOL    HW265999   0.028   8.233   5.234
21368SOL     OW66000  11.403   5.198  13.043
21368SOL    HW166001  11.391   5.292  13.033
21368SOL    HW266002  11.394   5.164  12.954
21369SOL     OW66003   8.336   9.481   1.684
21369SOL    HW166004   8.422   9.441   1.695
21369SOL    HW266005   8.326   9.492   1.590
21370SOL     OW66006   1.492   5.808  13.025
21370SOL    HW166007   1.460   5.751  12.956
21370SOL    HW266008   1.422   5.872  13.039
21371SOL     OW66009   2.185   3.657   9.175
21371SOL    HW166010   2.206   3.564   9.176
21371SOL    HW266011   2.262   3.699   9.214
21372SOL     OW66012   0.908   2.381   9.331
21372SOL    HW166013   0.930   2.288   9.331
21372SOL    HW266014   0.847   2.391   9.259
21373SOL     OW66015   9.252   8.137   0.740
21373SOL    HW166016   9.242   8.058   0.793
21373SOL    HW266017   9.345   8.158   0.745
21374SOL     OW66018  11.676  11.185   3.314
21374SOL    HW166019  11.740  11.189   3.243
21374SOL    HW266020  11.609  11.249   3.289
21375SOL     OW66021  13.715   4.187   6.351
21375SOL    HW166022  13.713   4.183   6.256
21375SOL    HW266023  13.744   4.277   6.371
21376SOL     OW66024  12.625   2.453   1.372
21376SOL    HW166025  12.702   2.479   1.321
21376SOL    HW266026  12.574   2.533   1.381
21377SOL     OW66027   7.587   2.597   4.283
21377SOL    HW166028   7.503   2.554   4.300
21377SOL    HW266029   7.652   2.528   4.294
21378SOL     OW66030   2.169  11.826   9.355
21378SOL    HW166031   2.133  11.791   9.436
21378SOL    HW266032   2.093  11.857   9.306
21379SOL     OW66033   2.942   9.612   5.073
21379SOL    HW166034   2.961   9.643   5.162
21379SOL    HW266035   2.851   9.584   5.077
21380SOL     OW66036   0.031  10.937   0.280
21380SOL    HW166037   0.115  10.982   0.294
21380SOL    HW266038   0.022  10.879   0.356
21381SOL     OW66039   9.330  12.425   5.574
21381SOL    HW166040   9.380  12.343   5.568
21381SOL    HW266041   9.379  12.487   5.520
21382SOL     OW66042  12.979   2.404   9.662
21382SOL    HW166043  13.009   2.493   9.646
21382SOL    HW266044  13.060   2.353   9.670
21383SOL     OW66045  14.624  13.230   4.251
21383SOL    HW166046  14.575  13.296   4.203
21383SOL    HW266047  14.562  13.159   4.264
21384SOL     OW66048  12.633   8.239   2.970
21384SOL    HW166049  12.642   8.308   3.035
21384SOL    HW266050  12.724   8.217   2.947
21385SOL     OW66051   2.115   4.630  11.521
21385SOL    HW166052   2.210   4.618  11.519
21385SOL    HW266053   2.100   4.708  11.468
21386SOL     OW66054  11.361   1.907   5.083
21386SOL    HW166055  11.358   2.002   5.090
21386SOL    HW266056  11.441   1.882   5.129
21387SOL     OW66057  11.649   7.719   7.081
21387SOL    HW166058  11.659   7.814   7.069
21387SOL    HW266059  11.558   7.708   7.108
21388SOL     OW66060   3.628   6.292   4.852
21388SOL    HW166061   3.545   6.302   4.898
21388SOL    HW266062   3.636   6.372   4.800
21389SOL     OW66063  13.482   0.410   8.151
21389SOL    HW166064  13.400   0.368   8.179
21389SOL    HW266065  13.519   0.445   8.232
21390SOL     OW66066   6.358   2.020  10.180
21390SOL    HW166067   6.272   1.985  10.153
21390SOL    HW266068   6.411   1.942  10.197
21391SOL     OW66069   5.290   7.606   0.997
21391SOL    HW166070   5.247   7.682   1.037
21391SOL    HW266071   5.315   7.636   0.910
21392SOL     OW66072   4.256   9.712   6.036
21392SOL    HW166073   4.230   9.658   5.961
21392SOL    HW266074   4.289   9.650   6.101
21393SOL     OW66075  10.773   5.260   8.696
21393SOL    HW166076  10.814   5.318   8.759
21393SOL    HW266077  10.729   5.193   8.749
21394SOL     OW66078   2.517   5.448   6.589
21394SOL    HW166079   2.442   5.450   6.530
21394SOL    HW266080   2.518   5.535   6.629
21395SOL     OW66081   0.008   2.348  11.084
21395SOL    HW166082   0.078   2.361  11.020
21395SOL    HW266083  14.830   2.295  11.037
21396SOL     OW66084  12.818   5.423   5.474
21396SOL    HW166085  12.851   5.353   5.417
21396SOL    HW266086  12.726   5.401   5.488
21397SOL     OW66087   8.690   0.960  10.466
21397SOL    HW166088   8.656   0.872  10.482
21397SOL    HW266089   8.733   0.954  10.380
21398SOL     OW66090  10.970   5.771   4.781
21398SOL    HW166091  11.009   5.684   4.788
21398SOL    HW266092  11.044   5.830   4.776
21399SOL     OW66093  14.404   3.239   0.512
21399SOL    HW166094  14.345   3.196   0.450
21399SOL    HW266095  14.492   3.216   0.480
21400SOL     OW66096  14.533   1.432  12.773
21400SOL    HW166097  14.496   1.381  12.702
21400SOL    HW266098  14.579   1.504  12.730
21401SOL     OW66099   7.786  10.502  10.207
21401SOL    HW166100   7.710  10.559  10.221
21401SOL    HW266101   7.804  10.464  10.293
21402SOL     OW66102  11.564   5.699  10.641
21402SOL    HW166103  11.650   5.681  10.603
21402SOL    HW266104  11.545   5.789  10.616
21403SOL     OW66105  10.710   1.890  10.912
21403SOL    HW166106  10.723   1.944  10.834
21403SOL    HW266107  10.644   1.935  10.963
21404SOL     OW66108  10.399  12.651   7.353
21404SOL    HW166109  10.493  12.632   7.349
21404SOL    HW266110  10.365  12.589   7.418
21405SOL     OW66111  12.178   5.576   7.566
21405SOL    HW166112  12.238   5.539   7.632
21405SOL    HW266113  12.236   5.615   7.501
21406SOL     OW66114   8.345   9.404  10.166
21406SOL    HW166115   8.417   9.429  10.108
21406SOL    HW266116   8.303   9.329  10.122
21407SOL     OW66117   5.852   4.114   8.498
21407SOL    HW166118   5.824   4.196   8.456
21407SOL    HW266119   5.947   4.124   8.507
21408SOL     OW66120   4.198   9.210   5.133
21408SOL    HW166121   4.115   9.244   5.099
21408SOL    HW266122   4.191   9.221   5.228
21409SOL     OW66123  14.258  12.869   1.899
21409SOL    HW166124  14.299  12.934   1.956
21409SOL    HW266125  14.286  12.785   1.936
21410SOL     OW66126   8.986   7.325   1.866
21410SOL    HW166127   8.905   7.304   1.819
21410SOL    HW266128   8.965   7.404   1.916
21411SOL     OW66129  14.459  11.887   7.696
21411SOL    HW166130  14.494  11.872   7.785
21411SOL    HW266131  14.393  11.819   7.685
21412SOL     OW66132  11.079  11.198   8.161
21412SOL    HW166133  11.043  11.287   8.156
21412SOL    HW266134  11.054  11.167   8.248
21413SOL     OW66135  14.264   5.285   4.598
21413SOL    HW166136  14.200   5.218   4.623
21413SOL    HW266137  14.211   5.359   4.567
21414SOL     OW66138  11.506   5.863   0.678
21414SOL    HW166139  11.430   5.874   0.735
21414SOL    HW266140  11.496   5.932   0.612
21415SOL     OW66141   6.800  14.041   5.217
21415SOL    HW166142   6.838  14.123   5.248
21415SOL    HW266143   6.862  14.009   5.152
21416SOL     OW66144   2.614   4.808  11.515
21416SOL    HW166145   2.565   4.867  11.458
21416SOL    HW266146   2.705   4.821  11.489
21417SOL     OW66147  11.656   0.063   7.815
21417SOL    HW166148  11.664   0.002   7.888
21417SOL    HW266149  11.668   0.009   7.737
21418SOL     OW66150   0.061   0.392   6.334
21418SOL    HW166151   0.030   0.463   6.279
21418SOL    HW266152   0.157   0.394   6.325
21419SOL     OW66153   8.998   5.153  10.745
21419SOL    HW166154   9.088   5.124  10.731
21419SOL    HW266155   8.965   5.095  10.814
21420SOL     OW66156   2.737   0.190   5.250
21420SOL    HW166157   2.666   0.221   5.193
21420SOL    HW266158   2.778   0.270   5.282
21421SOL     OW66159   6.338  14.836   4.344
21421SOL    HW166160   6.420  14.797   4.313
21421SOL    HW266161   6.320  14.790   4.426
21422SOL     OW66162  13.897   8.019   3.312
21422SOL    HW166163  13.849   8.057   3.239
21422SOL    HW266164  13.859   7.932   3.323
21423SOL     OW66165   9.872   1.011   8.570
21423SOL    HW166166   9.853   1.099   8.537
21423SOL    HW266167   9.954   0.987   8.527
21424SOL     OW66168  13.818   6.097   5.480
21424SOL    HW166169  13.881   6.166   5.461
21424SOL    HW266170  13.849   6.021   5.431
21425SOL     OW66171   5.207   0.124   3.552
21425SOL    HW166172   5.133   0.091   3.604
21425SOL    HW266173   5.204   0.219   3.565
21426SOL     OW66174   8.202  11.758  13.093
21426SOL    HW166175   8.201  11.771  13.188
21426SOL    HW266176   8.231  11.842  13.058
21427SOL     OW66177   4.190   5.067   9.981
21427SOL    HW166178   4.254   5.063  10.051
21427SOL    HW266179   4.110   5.031  10.019
21428SOL     OW66180   4.473  14.877   7.940
21428SOL    HW166181   4.473   0.046   8.017
21428SOL    HW266182   4.556  14.829   7.945
21429SOL     OW66183   4.330   3.174  11.628
21429SOL    HW166184   4.370   3.171  11.715
21429SOL    HW266185   4.347   3.087  11.591
21430SOL     OW66186  10.947   8.404   2.028
21430SOL    HW166187  10.911   8.396   2.116
21430SOL    HW266188  11.031   8.448   2.040
21431SOL     OW66189   7.994   4.858   0.449
21431SOL    HW166190   8.073   4.874   0.398
21431SOL    HW266191   8.017   4.882   0.539
21432SOL     OW66192   4.413   4.321   4.383
21432SOL    HW166193   4.363   4.319   4.465
21432SOL    HW266194   4.350   4.345   4.316
21433SOL     OW66195   8.332   2.972   7.892
21433SOL    HW166196   8.346   2.907   7.961
21433SOL    HW266197   8.402   3.036   7.905
21434SOL     OW66198   0.360   2.709   7.448
21434SOL    HW166199   0.366   2.781   7.386
21434SOL    HW266200   0.268   2.685   7.449
21435SOL     OW66201   0.928  10.625  10.515
21435SOL    HW166202   0.870  10.592  10.446
21435SOL    HW266203   1.014  10.592  10.491
21436SOL     OW66204  12.977  14.501   5.158
21436SOL    HW166205  12.961  14.591   5.130
21436SOL    HW266206  12.998  14.454   5.077
21437SOL     OW66207   6.999   2.633   7.657
21437SOL    HW166208   7.019   2.679   7.738
21437SOL    HW266209   6.929   2.572   7.680
21438SOL     OW66210  11.437  12.003   7.315
21438SOL    HW166211  11.355  12.050   7.301
21438SOL    HW266212  11.413  11.928   7.369
21439SOL     OW66213  14.625   5.705   5.178
21439SOL    HW166214  14.613   5.656   5.259
21439SOL    HW266215  14.620   5.797   5.204
21440SOL     OW66216   8.575  10.384   6.238
21440SOL    HW166217   8.654  10.362   6.188
21440SOL    HW266218   8.504  10.377   6.175
21441SOL     OW66219   2.701   6.917   3.733
21441SOL    HW166220   2.729   7.009   3.737
21441SOL    HW266221   2.606   6.922   3.723
21442SOL     OW66222   7.766  10.237   6.596
21442SOL    HW166223   7.724  10.160   6.634
21442SOL    HW266224   7.854  10.237   6.634
21443SOL     OW66225   4.997   8.981   0.936
21443SOL    HW166226   4.980   9.073   0.916
21443SOL    HW266227   4.937   8.961   1.008
21444SOL     OW66228   8.812  14.312   2.168
21444SOL    HW166229   8.827  14.282   2.078
21444SOL    HW266230   8.718  14.327   2.172
21445SOL     OW66231   8.391  14.081   6.765
21445SOL    HW166232   8.313  14.040   6.727
21445SOL    HW266233   8.460  14.064   6.700
21446SOL     OW66234   0.020   1.307   4.806
21446SOL    HW166235   0.098   1.259   4.777
21446SOL    HW266236  14.845   1.238   4.830
21447SOL     OW66237   5.339   8.547   8.570
21447SOL    HW166238   5.417   8.492   8.572
21447SOL    HW266239   5.355   8.613   8.637
21448SOL     OW66240   7.514   3.183   9.761
21448SOL    HW166241   7.456   3.224   9.826
21448SOL    HW266242   7.602   3.212   9.785
21449SOL     OW66243   9.887  10.513   7.950
21449SOL    HW166244   9.963  10.455   7.951
21449SOL    HW266245   9.913  10.587   7.897
21450SOL     OW66246   3.045   9.212  14.641
21450SOL    HW166247   3.000   9.192  14.723
21450SOL    HW266248   2.987   9.271  14.594
21451SOL     OW66249   7.151  11.554   7.130
21451SOL    HW166250   7.093  11.508   7.069
21451SOL    HW266251   7.239  11.536   7.097
21452SOL     OW66252   9.310  12.421   7.882
21452SOL    HW166253   9.286  12.329   7.868
21452SOL    HW266254   9.405  12.420   7.891
21453SOL     OW66255   8.936   6.246   7.212
21453SOL    HW166256   8.865   6.230   7.150
21453SOL    HW266257   9.002   6.293   7.161
21454SOL     OW66258  13.097   0.150   8.084
21454SOL    HW166259  13.091   0.063   8.044
21454SOL    HW266260  13.053   0.209   8.022
21455SOL     OW66261  11.231  10.090   5.586
21455SOL    HW166262  11.162  10.058   5.529
21455SOL    HW266263  11.229  10.032   5.662
21456SOL     OW66264  13.019   1.730   2.435
21456SOL    HW166265  12.944   1.704   2.382
21456SOL    HW266266  13.092   1.679   2.399
21457SOL     OW66267  11.193  10.300   4.839
21457SOL    HW166268  11.098  10.288   4.830
21457SOL    HW266269  11.229  10.212   4.832
21458SOL     OW66270   1.647  12.811   6.768
21458SOL    HW166271   1.719  12.779   6.823
21458SOL    HW266272   1.690  12.859   6.698
21459SOL     OW66273   2.746  13.790  12.667
21459SOL    HW166274   2.760  13.767  12.575
21459SOL    HW266275   2.828  13.832  12.693
21460SOL     OW66276   4.539   2.877   4.844
21460SOL    HW166277   4.499   2.899   4.928
21460SOL    HW266278   4.623   2.836   4.868
21461SOL     OW66279   5.619  12.819  12.985
21461SOL    HW166280   5.540  12.857  12.948
21461SOL    HW266281   5.662  12.774  12.912
21462SOL     OW66282   6.598   2.906   9.002
21462SOL    HW166283   6.567   2.815   9.006
21462SOL    HW266284   6.648   2.917   9.082
21463SOL     OW66285  12.586   1.589  11.068
21463SOL    HW166286  12.570   1.495  11.060
21463SOL    HW266287  12.629   1.599  11.153
21464SOL     OW66288  12.894   6.813   4.486
21464SOL    HW166289  12.839   6.749   4.440
21464SOL    HW266290  12.972   6.764   4.511
21465SOL     OW66291   7.595  13.586   7.602
21465SOL    HW166292   7.530  13.583   7.532
21465SOL    HW266293   7.559  13.647   7.666
21466SOL     OW66294   1.638   1.632   1.863
21466SOL    HW166295   1.656   1.558   1.921
21466SOL    HW266296   1.693   1.703   1.897
21467SOL     OW66297  14.120   2.642   9.498
21467SOL    HW166298  14.152   2.708   9.437
21467SOL    HW266299  14.038   2.611   9.459
21468SOL     OW66300   4.622  10.761   2.393
21468SOL    HW166301   4.574  10.836   2.358
21468SOL    HW266302   4.658  10.717   2.316
21469SOL     OW66303   4.087  13.652   5.920
21469SOL    HW166304   4.129  13.736   5.935
21469SOL    HW266305   3.995  13.673   5.907
21470SOL     OW66306  14.841   2.115  10.512
21470SOL    HW166307  14.828   2.195  10.564
21470SOL    HW266308   0.047   2.096  10.520
21471SOL     OW66309   0.356  12.826   2.449
21471SOL    HW166310   0.280  12.837   2.391
21471SOL    HW266311   0.388  12.738   2.429
21472SOL     OW66312   2.850   6.527   5.179
21472SOL    HW166313   2.865   6.588   5.251
21472SOL    HW266314   2.767   6.556   5.140
21473SOL     OW66315   6.903  10.193  13.148
21473SOL    HW166316   6.931  10.202  13.057
21473SOL    HW266317   6.846  10.116  13.148
21474SOL     OW66318   6.684   6.031  11.778
21474SOL    HW166319   6.635   6.102  11.737
21474SOL    HW266320   6.758   6.016  11.719
21475SOL     OW66321  11.090   2.323  13.695
21475SOL    HW166322  11.033   2.400  13.695
21475SOL    HW266323  11.174   2.355  13.661
21476SOL     OW66324   5.653  14.026   2.128
21476SOL    HW166325   5.642  14.105   2.075
21476SOL    HW266326   5.737  14.038   2.171
21477SOL     OW66327   8.549   9.380  11.819
21477SOL    HW166328   8.483   9.401  11.886
21477SOL    HW266329   8.550   9.457  11.762
21478SOL     OW66330  13.275  12.962   9.768
21478SOL    HW166331  13.195  12.946   9.817
21478SOL    HW266332  13.291  13.056   9.776
21479SOL     OW66333  12.492   4.900   6.568
21479SOL    HW166334  12.577   4.918   6.608
21479SOL    HW266335  12.429   4.944   6.624
21480SOL     OW66336   5.012  11.342   6.543
21480SOL    HW166337   4.989  11.431   6.516
21480SOL    HW266338   5.023  11.294   6.461
21481SOL     OW66339   4.433  13.110   2.900
21481SOL    HW166340   4.477  13.163   2.967
21481SOL    HW266341   4.452  13.019   2.926
21482SOL     OW66342   0.343  13.549   4.140
21482SOL    HW166343   0.321  13.552   4.233
21482SOL    HW266344   0.417  13.609   4.131
21483SOL     OW66345  11.631   6.437   3.764
21483SOL    HW166346  11.655   6.345   3.754
21483SOL    HW266347  11.632   6.471   3.675
21484SOL     OW66348  11.985  11.021   4.340
21484SOL    HW166349  12.034  11.059   4.267
21484SOL    HW266350  12.038  10.946   4.368
21485SOL     OW66351  13.896   8.622   5.813
21485SOL    HW166352  13.807   8.636   5.781
21485SOL    HW266353  13.938   8.707   5.806
21486SOL     OW66354   3.816  13.066   5.199
21486SOL    HW166355   3.813  12.975   5.229
21486SOL    HW266356   3.815  13.059   5.104
21487SOL     OW66357   0.060   3.055  14.204
21487SOL    HW166358   0.130   3.063  14.139
21487SOL    HW266359   0.104   3.071  14.288
21488SOL     OW66360   4.549  10.341  14.290
21488SOL    HW166361   4.601  10.261  14.284
21488SOL    HW266362   4.576  10.381  14.373
21489SOL     OW66363  11.096   9.232   6.332
21489SOL    HW166364  11.128   9.314   6.369
21489SOL    HW266365  11.072   9.179   6.408
21490SOL     OW66366  14.158   7.883   3.043
21490SOL    HW166367  14.152   7.795   3.007
21490SOL    HW266368  14.099   7.935   2.989
21491SOL     OW66369   9.024  11.843   0.882
21491SOL    HW166370   9.000  11.784   0.953
21491SOL    HW266371   9.120  11.850   0.888
21492SOL     OW66372   6.264   2.386   4.754
21492SOL    HW166373   6.278   2.349   4.667
21492SOL    HW266374   6.343   2.365   4.803
21493SOL     OW66375   7.143  14.557  13.165
21493SOL    HW166376   7.050  14.569  13.146
21493SOL    HW266377   7.146  14.485  13.228
21494SOL     OW66378   9.837  14.579   8.135
21494SOL    HW166379   9.746  14.608   8.132
21494SOL    HW266380   9.862  14.568   8.043
21495SOL     OW66381   8.460  10.847   6.656
21495SOL    HW166382   8.500  10.762   6.677
21495SOL    HW266383   8.535  10.906   6.643
21496SOL     OW66384   6.638   0.917  10.448
21496SOL    HW166385   6.555   0.950  10.482
21496SOL    HW266386   6.679   0.874  10.523
21497SOL     OW66387   1.656   9.775   1.224
21497SOL    HW166388   1.697   9.836   1.286
21497SOL    HW266389   1.566   9.766   1.255
21498SOL     OW66390   0.018  10.338   4.336
21498SOL    HW166391   0.109  10.307   4.331
21498SOL    HW266392  14.856  10.263   4.368
21499SOL     OW66393   8.654  12.577   7.724
21499SOL    HW166394   8.592  12.649   7.737
21499SOL    HW266395   8.618  12.505   7.776
21500SOL     OW66396   8.204   6.908  11.322
21500SOL    HW166397   8.168   6.972  11.383
21500SOL    HW266398   8.255   6.960  11.260
21501SOL     OW66399   1.260  10.242   8.856
21501SOL    HW166400   1.250  10.147   8.865
21501SOL    HW266401   1.330  10.252   8.792
21502SOL     OW66402   0.153   8.715  11.898
21502SOL    HW166403   0.160   8.811  11.895
21502SOL    HW266404   0.078   8.697  11.955
21503SOL     OW66405  11.263   1.988   7.515
21503SOL    HW166406  11.216   2.059   7.559
21503SOL    HW266407  11.328   1.959   7.580
21504SOL     OW66408   0.374  13.823   6.082
21504SOL    HW166409   0.399  13.850   5.994
21504SOL    HW266410   0.321  13.745   6.069
21505SOL     OW66411   7.842   3.000   5.071
21505SOL    HW166412   7.792   2.920   5.058
21505SOL    HW266413   7.829   3.021   5.164
21506SOL     OW66414   9.273   6.441   8.192
21506SOL    HW166415   9.362   6.407   8.179
21506SOL    HW266416   9.285   6.535   8.201
21507SOL     OW66417   0.988  10.030   9.586
21507SOL    HW166418   1.032   9.947   9.605
21507SOL    HW266419   0.971  10.068   9.672
21508SOL     OW66420   2.365   9.194   4.094
21508SOL    HW166421   2.306   9.256   4.050
21508SOL    HW266422   2.318   9.111   4.093
21509SOL     OW66423  14.307  12.860  13.528
21509SOL    HW166424  14.311  12.773  13.487
21509SOL    HW266425  14.231  12.901  13.488
21510SOL     OW66426   7.770   2.317  14.488
21510SOL    HW166427   7.825   2.274  14.423
21510SOL    HW266428   7.722   2.245  14.530
21511SOL     OW66429   3.263   5.066   3.139
21511SOL    HW166430   3.292   5.100   3.054
21511SOL    HW266431   3.176   5.029   3.121
21512SOL     OW66432   1.119  11.337   7.339
21512SOL    HW166433   1.117  11.402   7.268
21512SOL    HW266434   1.028  11.333   7.369
21513SOL     OW66435   5.938   5.524  14.539
21513SOL    HW166436   5.946   5.614  14.508
21513SOL    HW266437   5.886   5.532  14.620
21514SOL     OW66438   3.758   1.168   9.342
21514SOL    HW166439   3.714   1.173   9.258
21514SOL    HW266440   3.758   1.258   9.375
21515SOL     OW66441   3.804  12.320  13.353
21515SOL    HW166442   3.709  12.333  13.346
21515SOL    HW266443   3.828  12.276  13.271
21516SOL     OW66444   2.577   1.335   0.280
21516SOL    HW166445   2.617   1.266   0.227
21516SOL    HW266446   2.523   1.288   0.343
21517SOL     OW66447   1.362   7.010   3.484
21517SOL    HW166448   1.418   7.088   3.490
21517SOL    HW266449   1.423   6.938   3.468
21518SOL     OW66450  12.806   6.426   7.277
21518SOL    HW166451  12.753   6.347   7.263
21518SOL    HW266452  12.890   6.393   7.308
21519SOL     OW66453  12.300  10.837   6.923
21519SOL    HW166454  12.342  10.909   6.970
21519SOL    HW266455  12.363  10.812   6.856
21520SOL     OW66456  11.485  11.222   5.032
21520SOL    HW166457  11.516  11.193   5.118
21520SOL    HW266458  11.561  11.267   4.993
21521SOL     OW66459  10.997  14.357   9.258
21521SOL    HW166460  11.045  14.285   9.300
21521SOL    HW266461  10.906  14.345   9.288
21522SOL     OW66462  10.731   2.354   3.126
21522SOL    HW166463  10.643   2.385   3.103
21522SOL    HW266464  10.750   2.396   3.210
21523SOL     OW66465  11.221   3.222  13.712
21523SOL    HW166466  11.231   3.252  13.622
21523SOL    HW266467  11.173   3.140  13.705
21524SOL     OW66468   7.105   0.179   5.567
21524SOL    HW166469   7.043   0.248   5.590
21524SOL    HW266470   7.093   0.113   5.636
21525SOL     OW66471   2.720   8.770   4.137
21525SOL    HW166472   2.741   8.679   4.155
21525SOL    HW266473   2.711   8.810   4.224
21526SOL     OW66474   5.435  13.838   5.648
21526SOL    HW166475   5.471  13.820   5.735
21526SOL    HW266476   5.511  13.865   5.595
21527SOL     OW66477   4.426   7.561   1.195
21527SOL    HW166478   4.410   7.519   1.280
21527SOL    HW266479   4.503   7.615   1.209
21528SOL     OW66480  10.421   9.156   5.875
21528SOL    HW166481  10.492   9.172   5.937
21528SOL    HW266482  10.456   9.185   5.790
21529SOL     OW66483   6.131  13.641   1.669
21529SOL    HW166484   6.162  13.727   1.697
21529SOL    HW266485   6.137  13.586   1.747
21530SOL     OW66486  14.441   4.276   2.242
21530SOL    HW166487  14.465   4.301   2.331
21530SOL    HW266488  14.509   4.315   2.187
21531SOL     OW66489   7.207   8.579   2.042
21531SOL    HW166490   7.218   8.620   2.128
21531SOL    HW266491   7.284   8.608   1.993
21532SOL     OW66492   2.606   1.837   9.061
21532SOL    HW166493   2.527   1.820   9.112
21532SOL    HW266494   2.578   1.896   8.991
21533SOL     OW66495   9.401  14.724   0.884
21533SOL    HW166496   9.341  14.747   0.955
21533SOL    HW266497   9.483  14.702   0.928
21534SOL     OW66498   5.192   3.364   2.518
21534SOL    HW166499   5.217   3.392   2.431
21534SOL    HW266500   5.183   3.269   2.511
21535SOL     OW66501  11.991   0.593   8.569
21535SOL    HW166502  12.040   0.539   8.507
21535SOL    HW266503  12.051   0.664   8.591
21536SOL     OW66504   0.095  14.729   0.049
21536SOL    HW166505   0.154  14.739  14.862
21536SOL    HW266506   0.070  14.637   0.049
21537SOL     OW66507   8.126   8.627  13.316
21537SOL    HW166508   8.033   8.647  13.324
21537SOL    HW266509   8.170   8.704  13.353
21538SOL     OW66510   0.141  11.988  11.301
21538SOL    HW166511   0.233  12.001  11.277
21538SOL    HW266512   0.092  12.043  11.241
21539SOL     OW66513  12.699   9.921   1.876
21539SOL    HW166514  12.618   9.941   1.922
21539SOL    HW266515  12.766   9.920   1.945
21540SOL     OW66516   2.859  11.405   0.404
21540SOL    HW166517   2.863  11.368   0.316
21540SOL    HW266518   2.792  11.353   0.449
21541SOL     OW66519   1.173   6.199   6.546
21541SOL    HW166520   1.189   6.117   6.499
21541SOL    HW266521   1.253   6.214   6.596
21542SOL     OW66522  14.326  14.547   7.348
21542SOL    HW166523  14.412  14.524   7.382
21542SOL    HW266524  14.264  14.513   7.412
21543SOL     OW66525  14.187   3.785   2.530
21543SOL    HW166526  14.188   3.816   2.620
21543SOL    HW266527  14.176   3.691   2.537
21544SOL     OW66528   0.178  12.639   3.296
21544SOL    HW166529   0.134  12.554   3.300
21544SOL    HW266530   0.108  12.702   3.310
21545SOL     OW66531  12.047  14.159   4.578
21545SOL    HW166532  12.071  14.202   4.496
21545SOL    HW266533  12.120  14.178   4.638
21546SOL     OW66534   2.422   4.803   0.490
21546SOL    HW166535   2.431   4.896   0.468
21546SOL    HW266536   2.369   4.802   0.570
21547SOL     OW66537   3.813   9.318   8.507
21547SOL    HW166538   3.802   9.234   8.462
21547SOL    HW266539   3.851   9.376   8.440
21548SOL     OW66540   1.468   3.276   6.076
21548SOL    HW166541   1.563   3.277   6.061
21548SOL    HW266542   1.430   3.283   5.988
21549SOL     OW66543  13.735   7.111  13.356
21549SOL    HW166544  13.763   7.138  13.268
21549SOL    HW266545  13.757   7.185  13.412
21550SOL     OW66546   3.407  11.366   8.317
21550SOL    HW166547   3.414  11.461   8.328
21550SOL    HW266548   3.496  11.337   8.302
21551SOL     OW66549  12.298   5.172   1.997
21551SOL    HW166550  12.333   5.133   2.077
21551SOL    HW266551  12.204   5.160   2.003
21552SOL     OW66552   8.714   2.595  13.844
21552SOL    HW166553   8.708   2.598  13.748
21552SOL    HW266554   8.728   2.687  13.869
21553SOL     OW66555   5.891   6.685  13.301
21553SOL    HW166556   5.856   6.658  13.217
21553SOL    HW266557   5.844   6.765  13.323
21554SOL     OW66558   0.639   5.784   6.266
21554SOL    HW166559   0.554   5.772   6.307
21554SOL    HW266560   0.621   5.784   6.172
21555SOL     OW66561  14.125   8.531  10.479
21555SOL    HW166562  14.187   8.590  10.522
21555SOL    HW266563  14.127   8.451  10.533
21556SOL     OW66564   2.960   1.961   5.731
21556SOL    HW166565   2.957   1.906   5.653
21556SOL    HW266566   2.900   2.033   5.712
21557SOL     OW66567   1.337   9.347  13.254
21557SOL    HW166568   1.324   9.298  13.335
21557SOL    HW266569   1.252   9.344  13.210
21558SOL     OW66570   1.838   9.507   5.696
21558SOL    HW166571   1.803   9.421   5.718
21558SOL    HW266572   1.933   9.496   5.695
21559SOL     OW66573   3.661  14.566  12.299
21559SOL    HW166574   3.686  14.642  12.352
21559SOL    HW266575   3.735  14.505  12.309
21560SOL     OW66576   5.501   0.067   6.250
21560SOL    HW166577   5.474   0.120   6.174
21560SOL    HW266578   5.563   0.004   6.214
21561SOL     OW66579   9.421   8.294   5.954
21561SOL    HW166580   9.503   8.258   5.987
21561SOL    HW266581   9.447   8.356   5.886
21562SOL     OW66582  11.415  12.016  13.639
21562SOL    HW166583  11.424  12.092  13.697
21562SOL    HW266584  11.354  12.046  13.571
21563SOL     OW66585   4.053   2.557  10.249
21563SOL    HW166586   4.053   2.529  10.158
21563SOL    HW266587   4.124   2.508  10.290
21564SOL     OW66588  13.455   3.981   9.900
21564SOL    HW166589  13.517   4.038   9.945
21564SOL    HW266590  13.385   3.967   9.964
21565SOL     OW66591   0.347  11.729   7.952
21565SOL    HW166592   0.394  11.710   8.033
21565SOL    HW266593   0.307  11.815   7.967
21566SOL     OW66594   7.017   8.786   0.308
21566SOL    HW166595   7.078   8.849   0.345
21566SOL    HW266596   6.932   8.830   0.311
21567SOL     OW66597  11.890   1.923   5.504
21567SOL    HW166598  11.983   1.906   5.492
21567SOL    HW266599  11.885   1.966   5.590
21568SOL     OW66600   8.390   9.077   9.283
21568SOL    HW166601   8.402   9.053   9.375
21568SOL    HW266602   8.324   9.016   9.251
21569SOL     OW66603   2.524   5.912   3.485
21569SOL    HW166604   2.557   5.954   3.564
21569SOL    HW266605   2.491   5.984   3.431
21570SOL     OW66606   0.068  12.054   5.700
21570SOL    HW166607  14.884  12.075   5.639
21570SOL    HW266608   0.023  12.029   5.781
21571SOL     OW66609   4.585  11.252   6.752
21571SOL    HW166610   4.572  11.175   6.807
21571SOL    HW266611   4.636  11.220   6.677
21572SOL     OW66612  10.960   4.077   7.412
21572SOL    HW166613  10.921   4.011   7.470
21572SOL    HW266614  11.053   4.056   7.412
21573SOL     OW66615  12.568   7.335   7.368
21573SOL    HW166616  12.642   7.287   7.331
21573SOL    HW266617  12.491   7.283   7.346
21574SOL     OW66618  10.166   7.080   7.143
21574SOL    HW166619  10.247   7.127   7.123
21574SOL    HW266620  10.109   7.146   7.184
21575SOL     OW66621   9.709  10.556  10.573
21575SOL    HW166622   9.740  10.467  10.587
21575SOL    HW266623   9.648  10.550  10.499
21576SOL     OW66624   0.357   7.683  12.007
21576SOL    HW166625   0.266   7.674  12.036
21576SOL    HW266626   0.376   7.601  11.961
21577SOL     OW66627   4.577   7.656   9.110
21577SOL    HW166628   4.640   7.670   9.181
21577SOL    HW266629   4.578   7.561   9.096
21578SOL     OW66630  12.783  14.591  11.653
21578SOL    HW166631  12.715  14.614  11.589
21578SOL    HW266632  12.825  14.513  11.616
21579SOL     OW66633   1.301  13.568   9.267
21579SOL    HW166634   1.258  13.616   9.338
21579SOL    HW266635   1.372  13.626   9.239
21580SOL     OW66636   9.105   4.056   5.745
21580SOL    HW166637   9.180   4.070   5.803
21580SOL    HW266638   9.085   3.963   5.755
21581SOL     OW66639  11.459   2.890  13.242
21581SOL    HW166640  11.390   2.881  13.175
21581SOL    HW266641  11.424   2.957  13.302
21582SOL     OW66642   1.574  10.620   1.596
21582SOL    HW166643   1.508  10.565   1.554
21582SOL    HW266644   1.615  10.668   1.524
21583SOL     OW66645   2.433   2.708  10.385
21583SOL    HW166646   2.442   2.750  10.300
21583SOL    HW266647   2.522   2.682  10.408
21584SOL     OW66648   0.957   4.078   8.550
21584SOL    HW166649   0.924   4.140   8.614
21584SOL    HW266650   1.022   4.026   8.597
21585SOL     OW66651  10.706  11.842   9.325
21585SOL    HW166652  10.747  11.797   9.398
21585SOL    HW266653  10.672  11.772   9.270
21586SOL     OW66654   3.323   4.071  11.510
21586SOL    HW166655   3.305   4.134  11.441
21586SOL    HW266656   3.242   4.068  11.561
21587SOL     OW66657   6.788  12.844  11.096
21587SOL    HW166658   6.819  12.934  11.086
21587SOL    HW266659   6.693  12.851  11.096
21588SOL     OW66660  13.756  10.735  14.552
21588SOL    HW166661  13.780  10.645  14.576
21588SOL    HW266662  13.822  10.790  14.593
21589SOL     OW66663   6.820  11.991  13.246
21589SOL    HW166664   6.845  12.083  13.255
21589SOL    HW266665   6.740  11.992  13.194
21590SOL     OW66666   2.413  11.856   0.035
21590SOL    HW166667   2.346  11.830  14.860
21590SOL    HW266668   2.390  11.810   0.116
21591SOL     OW66669   1.154   3.450   3.067
21591SOL    HW166670   1.080   3.397   3.037
21591SOL    HW266671   1.221   3.440   3.000
21592SOL     OW66672  13.191  14.148  12.937
21592SOL    HW166673  13.163  14.075  12.992
21592SOL    HW266674  13.116  14.165  12.879
21593SOL     OW66675   9.048  12.738   6.736
21593SOL    HW166676   8.969  12.728   6.683
21593SOL    HW266677   9.032  12.683   6.813
21594SOL     OW66678   4.005  10.345   7.712
21594SOL    HW166679   4.054  10.425   7.695
21594SOL    HW266680   4.072  10.276   7.719
21595SOL     OW66681  12.531  11.300  11.231
21595SOL    HW166682  12.542  11.356  11.154
21595SOL    HW266683  12.522  11.212  11.196
21596SOL     OW66684   3.385   6.795  12.025
21596SOL    HW166685   3.335   6.714  12.030
21596SOL    HW266686   3.474   6.767  12.001
21597SOL     OW66687   0.304  12.998   7.237
21597SOL    HW166688   0.221  12.997   7.189
21597SOL    HW266689   0.325  13.091   7.246
21598SOL     OW66690   0.743  12.594  10.320
21598SOL    HW166691   0.821  12.541  10.336
21598SOL    HW266692   0.777  12.675  10.283
21599SOL     OW66693  14.843   7.746   8.507
21599SOL    HW166694  14.806   7.753   8.420
21599SOL    HW266695   0.030   7.686   8.497
21600SOL     OW66696  11.177  14.194  10.209
21600SOL    HW166697  11.159  14.267  10.268
21600SOL    HW266698  11.217  14.127  10.265
21601SOL     OW66699   3.135  10.038   3.512
21601SOL    HW166700   3.046  10.064   3.535
21601SOL    HW266701   3.191  10.101   3.557
21602SOL     OW66702   5.497   2.344  11.907
21602SOL    HW166703   5.449   2.427  11.897
21602SOL    HW266704   5.495   2.306  11.819
21603SOL     OW66705   0.737   8.066  11.198
21603SOL    HW166706   0.823   8.072  11.239
21603SOL    HW266707   0.720   8.153  11.163
21604SOL     OW66708  14.618   1.321   2.445
21604SOL    HW166709  14.637   1.285   2.532
21604SOL    HW266710  14.627   1.415   2.456
21605SOL     OW66711   4.673   2.201   8.738
21605SOL    HW166712   4.722   2.223   8.816
21605SOL    HW266713   4.724   2.132   8.695
21606SOL     OW66714   0.997   7.642   5.854
21606SOL    HW166715   0.962   7.647   5.942
21606SOL    HW266716   0.973   7.554   5.823
21607SOL     OW66717   1.730   3.398  12.837
21607SOL    HW166718   1.770   3.379  12.922
21607SOL    HW266719   1.636   3.394  12.854
21608SOL     OW66720  11.660   0.440   7.677
21608SOL    HW166721  11.637   0.508   7.613
21608SOL    HW266722  11.755   0.430   7.668
21609SOL     OW66723   4.850   3.273   2.292
21609SOL    HW166724   4.842   3.178   2.281
21609SOL    HW266725   4.804   3.310   2.216
21610SOL     OW66726   9.537   4.233   1.305
21610SOL    HW166727   9.479   4.266   1.375
21610SOL    HW266728   9.613   4.197   1.352
21611SOL     OW66729  12.070  12.123   7.680
21611SOL    HW166730  12.093  12.059   7.747
21611SOL    HW266731  12.004  12.079   7.626
21612SOL     OW66732  10.692   4.715   5.798
21612SOL    HW166733  10.644   4.653   5.854
21612SOL    HW266734  10.773   4.669   5.776
21613SOL     OW66735   1.919   8.999  13.198
21613SOL    HW166736   1.969   9.019  13.277
21613SOL    HW266737   1.969   8.931  13.154
21614SOL     OW66738   6.358   7.968   3.512
21614SOL    HW166739   6.404   8.001   3.589
21614SOL    HW266740   6.344   7.875   3.531
21615SOL     OW66741   9.257   5.901  12.269
21615SOL    HW166742   9.245   5.995  12.279
21615SOL    HW266743   9.339   5.892  12.221
21616SOL     OW66744   0.558   3.849  14.454
21616SOL    HW166745   0.487   3.875  14.512
21616SOL    HW266746   0.637   3.875  14.501
21617SOL     OW66747   7.410   9.865   9.861
21617SOL    HW166748   7.454   9.892   9.941
21617SOL    HW266749   7.318   9.888   9.874
21618SOL     OW66750  10.509   5.658   3.572
21618SOL    HW166751  10.456   5.597   3.622
21618SOL    HW266752  10.522   5.615   3.487
21619SOL     OW66753   7.391  13.931  12.070
21619SOL    HW166754   7.320  13.938  12.006
21619SOL    HW266755   7.468  13.965  12.024
21620SOL     OW66756   7.824   2.649  12.915
21620SOL    HW166757   7.770   2.705  12.860
21620SOL    HW266758   7.887   2.610  12.855
21621SOL     OW66759  10.234  12.843   6.272
21621SOL    HW166760  10.324  12.866   6.293
21621SOL    HW266761  10.241  12.786   6.196
21622SOL     OW66762   7.627   4.915   3.495
21622SOL    HW166763   7.534   4.910   3.472
21622SOL    HW266764   7.657   4.824   3.496
21623SOL     OW66765   4.606   3.484   6.233
21623SOL    HW166766   4.529   3.443   6.193
21623SOL    HW266767   4.582   3.576   6.244
21624SOL     OW66768   2.214   6.855   6.806
21624SOL    HW166769   2.307   6.877   6.821
21624SOL    HW266770   2.215   6.763   6.780
21625SOL     OW66771   7.606   0.888   5.278
21625SOL    HW166772   7.565   0.935   5.205
21625SOL    HW266773   7.685   0.849   5.240
21626SOL     OW66774  11.461  13.878  14.865
21626SOL    HW166775  11.484  13.861   0.069
21626SOL    HW266776  11.513  13.815  14.814
21627SOL     OW66777   5.331   9.346   5.762
21627SOL    HW166778   5.329   9.340   5.858
21627SOL    HW266779   5.292   9.431   5.742
21628SOL     OW66780   7.494   0.657   4.951
21628SOL    HW166781   7.510   0.646   4.858
21628SOL    HW266782   7.399   0.659   4.959
21629SOL     OW66783  11.780   3.488  11.009
21629SOL    HW166784  11.705   3.479  11.068
21629SOL    HW266785  11.851   3.441  11.054
21630SOL     OW66786   8.745  10.111   1.451
21630SOL    HW166787   8.770  10.030   1.406
21630SOL    HW266788   8.792  10.180   1.404
21631SOL     OW66789   2.527   2.438   2.319
21631SOL    HW166790   2.486   2.524   2.332
21631SOL    HW266791   2.592   2.432   2.389
21632SOL     OW66792  13.093   3.299   7.413
21632SOL    HW166793  13.096   3.343   7.328
21632SOL    HW266794  13.161   3.343   7.465
21633SOL     OW66795   8.171  13.055   2.739
21633SOL    HW166796   8.266  13.062   2.741
21633SOL    HW266797   8.144  13.066   2.831
21634SOL     OW66798   3.612   6.881   2.216
21634SOL    HW166799   3.654   6.912   2.297
21634SOL    HW266800   3.518   6.883   2.235
21635SOL     OW66801   9.996  11.635   8.447
21635SOL    HW166802  10.062  11.569   8.469
21635SOL    HW266803   9.980  11.682   8.529
21636SOL     OW66804   4.332   0.470  12.202
21636SOL    HW166805   4.402   0.438  12.260
21636SOL    HW266806   4.311   0.557  12.235
21637SOL     OW66807   7.342   8.232   6.592
21637SOL    HW166808   7.275   8.281   6.640
21637SOL    HW266809   7.396   8.299   6.550
21638SOL     OW66810   4.163  11.040   3.131
21638SOL    HW166811   4.130  10.969   3.186
21638SOL    HW266812   4.132  11.020   3.043
21639SOL     OW66813  11.076   9.683   2.154
21639SOL    HW166814  11.072   9.776   2.176
21639SOL    HW266815  11.150   9.650   2.204
21640SOL     OW66816  10.577  10.991  12.686
21640SOL    HW166817  10.621  11.064  12.729
21640SOL    HW266818  10.610  10.913  12.731
21641SOL     OW66819  12.396   8.770   6.554
21641SOL    HW166820  12.482   8.728   6.559
21641SOL    HW266821  12.375   8.791   6.645
21642SOL     OW66822   3.590   4.935   3.187
21642SOL    HW166823   3.506   4.904   3.222
21642SOL    HW266824   3.639   4.854   3.168
21643SOL     OW66825   7.226  14.072  11.616
21643SOL    HW166826   7.139  14.094  11.580
21643SOL    HW266827   7.211  14.062  11.710
21644SOL     OW66828   6.519   1.514  12.266
21644SOL    HW166829   6.453   1.581  12.286
21644SOL    HW266830   6.490   1.476  12.183
21645SOL     OW66831   1.529  10.009   6.940
21645SOL    HW166832   1.504   9.939   6.880
21645SOL    HW266833   1.481   9.989   7.021
21646SOL     OW66834   2.527   0.720   5.803
21646SOL    HW166835   2.582   0.671   5.743
21646SOL    HW266836   2.445   0.670   5.807
21647SOL     OW66837   9.057   8.918   3.302
21647SOL    HW166838   9.150   8.939   3.316
21647SOL    HW266839   9.050   8.907   3.207
21648SOL     OW66840   1.542  14.703   0.917
21648SOL    HW166841   1.454  14.738   0.912
21648SOL    HW266842   1.544  14.653   0.999
21649SOL     OW66843  11.631   8.102   8.561
21649SOL    HW166844  11.703   8.066   8.612
21649SOL    HW266845  11.556   8.098   8.621
21650SOL     OW66846   5.918  13.405   0.461
21650SOL    HW166847   5.897  13.340   0.529
21650SOL    HW266848   6.008  13.431   0.482
21651SOL     OW66849  11.318  13.463   7.778
21651SOL    HW166850  11.366  13.392   7.822
21651SOL    HW266851  11.250  13.487   7.840
21652SOL     OW66852   3.790   9.825   3.022
21652SOL    HW166853   3.722   9.765   2.992
21652SOL    HW266854   3.860   9.816   2.958
21653SOL     OW66855  11.792   9.014   0.457
21653SOL    HW166856  11.832   9.048   0.537
21653SOL    HW266857  11.704   9.052   0.456
21654SOL     OW66858   0.222  10.435  12.730
21654SOL    HW166859   0.282  10.430  12.655
21654SOL    HW266860   0.145  10.480  12.695
21655SOL     OW66861   8.252  14.729  14.046
21655SOL    HW166862   8.311  14.734  14.121
21655SOL    HW266863   8.272  14.645  14.004
21656SOL     OW66864   5.201   0.901  12.126
21656SOL    HW166865   5.253   0.828  12.160
21656SOL    HW266866   5.219   0.902  12.032
21657SOL     OW66867   2.892  13.287  13.681
21657SOL    HW166868   2.986  13.269  13.672
21657SOL    HW266869   2.888  13.379  13.707
21658SOL     OW66870   7.848   1.698   1.523
21658SOL    HW166871   7.889   1.612   1.518
21658SOL    HW266872   7.778   1.695   1.458
21659SOL     OW66873   7.102  11.316   0.765
21659SOL    HW166874   7.097  11.241   0.824
21659SOL    HW266875   7.015  11.324   0.727
21660SOL     OW66876   7.916   8.963  14.330
21660SOL    HW166877   7.995   8.926  14.290
21660SOL    HW266878   7.948   9.036  14.383
21661SOL     OW66879   6.108  14.485  12.199
21661SOL    HW166880   6.199  14.508  12.177
21661SOL    HW266881   6.067  14.469  12.114
21662SOL     OW66882  12.475  10.212   2.231
21662SOL    HW166883  12.420  10.212   2.310
21662SOL    HW266884  12.492  10.305   2.214
21663SOL     OW66885   6.889   4.232   1.539
21663SOL    HW166886   6.929   4.184   1.612
21663SOL    HW266887   6.861   4.315   1.578
21664SOL     OW66888   2.431   0.121   9.685
21664SOL    HW166889   2.370   0.075   9.627
21664SOL    HW266890   2.466   0.192   9.631
21665SOL     OW66891  14.668   0.252  10.204
21665SOL    HW166892  14.639   0.168  10.167
21665SOL    HW266893  14.735   0.283  10.143
21666SOL     OW66894  10.141  14.708   8.979
21666SOL    HW166895  10.055  14.665   8.986
21666SOL    HW266896  10.197  14.660   9.039
21667SOL     OW66897   0.653   0.531   3.114
21667SOL    HW166898   0.717   0.567   3.053
21667SOL    HW266899   0.699   0.460   3.159
21668SOL     OW66900   2.791  11.414   2.935
21668SOL    HW166901   2.877  11.453   2.920
21668SOL    HW266902   2.763  11.384   2.849
21669SOL     OW66903   3.253  10.180   5.990
21669SOL    HW166904   3.260  10.204   5.898
21669SOL    HW266905   3.161  10.197   6.012
21670SOL     OW66906   7.696   6.343   0.005
21670SOL    HW166907   7.637   6.411  14.860
21670SOL    HW266908   7.766   6.390   0.050
21671SOL     OW66909   5.940  12.818   9.470
21671SOL    HW166910   5.902  12.825   9.557
21671SOL    HW266911   5.865  12.820   9.410
21672SOL     OW66912   5.880   3.456  12.584
21672SOL    HW166913   5.886   3.460  12.488
21672SOL    HW266914   5.788   3.475  12.602
21673SOL     OW66915   8.330   6.493   3.001
21673SOL    HW166916   8.425   6.489   3.011
21673SOL    HW266917   8.304   6.572   3.049
21674SOL     OW66918   6.073   1.015  14.800
21674SOL    HW166919   5.988   1.049  14.771
21674SOL    HW266920   6.069   0.921  14.782
21675SOL     OW66921   5.813   6.745   4.311
21675SOL    HW166922   5.815   6.822   4.369
21675SOL    HW266923   5.742   6.691   4.345
21676SOL     OW66924   6.460   1.347   8.334
21676SOL    HW166925   6.537   1.332   8.279
21676SOL    HW266926   6.402   1.273   8.315
21677SOL     OW66927   5.769  14.766  10.747
21677SOL    HW166928   5.813  14.730  10.824
21677SOL    HW266929   5.820  14.734  10.673
21678SOL     OW66930   4.926   6.954  12.940
21678SOL    HW166931   4.893   7.036  12.975
21678SOL    HW266932   5.011   6.977  12.902
21679SOL     OW66933   8.252   2.315   1.126
21679SOL    HW166934   8.328   2.271   1.163
21679SOL    HW266935   8.181   2.296   1.188
21680SOL     OW66936   5.994   3.276  14.531
21680SOL    HW166937   6.039   3.243  14.453
21680SOL    HW266938   5.989   3.201  14.590
21681SOL     OW66939   0.430   5.088   3.191
21681SOL    HW166940   0.377   5.066   3.114
21681SOL    HW266941   0.436   5.006   3.240
21682SOL     OW66942   8.643  14.806   9.410
21682SOL    HW166943   8.676   0.006   9.387
21682SOL    HW266944   8.551  14.820   9.432
21683SOL     OW66945  11.062   7.527   3.171
21683SOL    HW166946  10.981   7.504   3.125
21683SOL    HW266947  11.097   7.444   3.202
21684SOL     OW66948   4.542   9.250   6.543
21684SOL    HW166949   4.536   9.168   6.592
21684SOL    HW266950   4.453   9.285   6.544
21685SOL     OW66951   3.614   8.294   9.451
21685SOL    HW166952   3.648   8.264   9.366
21685SOL    HW266953   3.668   8.250   9.516
21686SOL     OW66954   7.008   2.891   4.554
21686SOL    HW166955   7.037   2.894   4.463
21686SOL    HW266956   7.079   2.934   4.603
21687SOL     OW66957   0.782   0.343  13.904
21687SOL    HW166958   0.708   0.405  13.905
21687SOL    HW266959   0.751   0.269  13.853
21688SOL     OW66960   9.566   3.888   6.987
21688SOL    HW166961   9.608   3.878   7.073
21688SOL    HW266962   9.630   3.938   6.935
21689SOL     OW66963  11.715   4.413  13.075
21689SOL    HW166964  11.673   4.498  13.084
21689SOL    HW266965  11.643   4.352  13.062
21690SOL     OW66966   0.017   7.336  11.299
21690SOL    HW166967  14.820   7.303  11.329
21690SOL    HW266968   0.068   7.257  11.281
21691SOL     OW66969   9.330   1.550   6.118
21691SOL    HW166970   9.375   1.622   6.163
21691SOL    HW266971   9.244   1.545   6.160
21692SOL     OW66972   6.686   3.749   6.740
21692SOL    HW166973   6.769   3.759   6.693
21692SOL    HW266974   6.702   3.677   6.801
21693SOL     OW66975   1.558   1.843   4.072
21693SOL    HW166976   1.495   1.772   4.086
21693SOL    HW266977   1.629   1.824   4.133
21694SOL     OW66978  12.587   4.240   8.813
21694SOL    HW166979  12.494   4.228   8.834
21694SOL    HW266980  12.591   4.323   8.766
21695SOL     OW66981   0.405   8.305  11.893
21695SOL    HW166982   0.443   8.325  11.807
21695SOL    HW266983   0.385   8.390  11.931
21696SOL     OW66984   2.326   9.991   1.143
21696SOL    HW166985   2.386   9.917   1.136
21696SOL    HW266986   2.334  10.021   1.233
21697SOL     OW66987   6.966  14.838  13.906
21697SOL    HW166988   6.894  14.785  13.873
21697SOL    HW266989   6.947  14.849  13.999
21698SOL     OW66990  12.739   2.612  13.204
21698SOL    HW166991  12.741   2.574  13.292
21698SOL    HW266992  12.646   2.615  13.181
21699SOL     OW66993   3.538  13.481   0.571
21699SOL    HW166994   3.532  13.439   0.485
21699SOL    HW266995   3.481  13.430   0.627
21700SOL     OW66996  14.228   9.859   2.417
21700SOL    HW166997  14.159   9.924   2.404
21700SOL    HW266998  14.304   9.894   2.372
21701SOL     OW66999   7.948   3.888   5.014
21701SOL    HW167000   7.941   3.803   5.057
21701SOL    HW267001   8.037   3.889   4.977
21702SOL     OW67002   7.360   3.796   2.767
21702SOL    HW167003   7.265   3.808   2.758
21702SOL    HW267004   7.390   3.876   2.810
21703SOL     OW67005  14.605   4.011  13.206
21703SOL    HW167006  14.634   4.086  13.154
21703SOL    HW267007  14.682   3.987  13.258
21704SOL     OW67008   7.481   4.577  14.761
21704SOL    HW167009   7.405   4.635  14.760
21704SOL    HW267010   7.445   4.489  14.774
21705SOL     OW67011   5.449   9.858   4.269
21705SOL    HW167012   5.358   9.880   4.250
21705SOL    HW267013   5.465   9.776   4.221
21706SOL     OW67014  13.068  12.581  12.540
21706SOL    HW167015  13.059  12.579  12.635
21706SOL    HW267016  13.152  12.623  12.524
21707SOL     OW67017   6.247   8.853   8.565
21707SOL    HW167018   6.231   8.771   8.612
21707SOL    HW267019   6.170   8.907   8.583
21708SOL     OW67020   1.068  14.028   6.932
21708SOL    HW167021   1.009  14.066   6.998
21708SOL    HW267022   1.020  13.951   6.900
21709SOL     OW67023   8.429   0.727  10.737
21709SOL    HW167024   8.486   0.661  10.777
21709SOL    HW267025   8.451   0.723  10.644
21710SOL     OW67026  14.725   3.552  13.905
21710SOL    HW167027  14.788   3.489  13.941
21710SOL    HW267028  14.651   3.549  13.965
21711SOL     OW67029  14.755  12.060   6.367
21711SOL    HW167030  14.818  12.129   6.389
21711SOL    HW267031  14.798  12.010   6.297
21712SOL     OW67032   8.934  11.623  14.254
21712SOL    HW167033   8.848  11.640  14.216
21712SOL    HW267034   8.994  11.675  14.202
21713SOL     OW67035   9.740   9.665   7.366
21713SOL    HW167036   9.717   9.668   7.273
21713SOL    HW267037   9.705   9.747   7.402
21714SOL     OW67038   8.324   8.821   4.117
21714SOL    HW167039   8.340   8.835   4.024
21714SOL    HW267040   8.264   8.891   4.142
21715SOL     OW67041  14.379   5.183  12.906
21715SOL    HW167042  14.393   5.274  12.880
21715SOL    HW267043  14.413   5.131  12.833
21716SOL     OW67044  11.837   7.980   0.665
21716SOL    HW167045  11.807   8.001   0.753
21716SOL    HW267046  11.763   8.003   0.608
21717SOL     OW67047  11.978   3.345  11.120
21717SOL    HW167048  12.019   3.427  11.091
21717SOL    HW267049  12.015   3.329  11.207
21718SOL     OW67050   7.765   6.874  13.171
21718SOL    HW167051   7.727   6.943  13.118
21718SOL    HW267052   7.697   6.807  13.177
21719SOL     OW67053  11.795   9.059   1.769
21719SOL    HW167054  11.747   9.122   1.715
21719SOL    HW267055  11.871   9.107   1.799
21720SOL     OW67056   4.547   1.788  12.808
21720SOL    HW167057   4.452   1.778  12.810
21720SOL    HW267058   4.562   1.870  12.760
21721SOL     OW67059   7.330  12.727   8.118
21721SOL    HW167060   7.313  12.693   8.206
21721SOL    HW267061   7.342  12.821   8.130
21722SOL     OW67062   5.506   4.151  13.811
21722SOL    HW167063   5.601   4.159  13.823
21722SOL    HW267064   5.495   4.064  13.771
21723SOL     OW67065   4.644  11.910   1.898
21723SOL    HW167066   4.656  11.977   1.965
21723SOL    HW267067   4.689  11.945   1.820
21724SOL     OW67068   1.290  12.359  14.408
21724SOL    HW167069   1.317  12.334  14.320
21724SOL    HW267070   1.352  12.429  14.432
21725SOL     OW67071   2.493   4.822   5.591
21725SOL    HW167072   2.574   4.855   5.628
21725SOL    HW267073   2.508   4.821   5.496
21726SOL     OW67074  12.052   7.592   3.157
21726SOL    HW167075  12.072   7.598   3.064
21726SOL    HW267076  12.108   7.521   3.189
21727SOL     OW67077   9.426   6.791   0.757
21727SOL    HW167078   9.430   6.886   0.770
21727SOL    HW267079   9.459   6.754   0.840
21728SOL     OW67080   5.886  14.708   3.603
21728SOL    HW167081   5.878  14.621   3.641
21728SOL    HW267082   5.803  14.751   3.625
21729SOL     OW67083  11.420   0.613   8.992
21729SOL    HW167084  11.445   0.616   9.085
21729SOL    HW267085  11.351   0.679   8.984
21730SOL     OW67086   0.739  10.284   9.738
21730SOL    HW167087   0.720  10.241   9.655
21730SOL    HW267088   0.688  10.365   9.735
21731SOL     OW67089   7.123   5.207   1.579
21731SOL    HW167090   7.055   5.197   1.645
21731SOL    HW267091   7.178   5.279   1.611
21732SOL     OW67092   2.242   5.285  12.085
21732SOL    HW167093   2.213   5.195  12.070
21732SOL    HW267094   2.164   5.329  12.120
21733SOL     OW67095   4.286  10.934   8.601
21733SOL    HW167096   4.193  10.917   8.588
21733SOL    HW267097   4.303  11.013   8.550
21734SOL     OW67098   9.515   8.441   7.631
21734SOL    HW167099   9.564   8.384   7.691
21734SOL    HW267100   9.423   8.421   7.648
21735SOL     OW67101   3.150   5.099   2.127
21735SOL    HW167102   3.229   5.114   2.075
21735SOL    HW267103   3.093   5.048   2.070
21736SOL     OW67104  14.140   9.969   8.950
21736SOL    HW167105  14.103  10.033   9.010
21736SOL    HW267106  14.148  10.015   8.867
21737SOL     OW67107   1.897   3.776   5.781
21737SOL    HW167108   1.915   3.712   5.850
21737SOL    HW267109   1.841   3.841   5.822
21738SOL     OW67110   2.951  13.906   6.036
21738SOL    HW167111   2.860  13.916   6.063
21738SOL    HW267112   2.947  13.885   5.943
21739SOL     OW67113   5.103   9.772  12.350
21739SOL    HW167114   5.020   9.727  12.333
21739SOL    HW267115   5.169   9.713  12.314
21740SOL     OW67116   7.336   9.567   9.111
21740SOL    HW167117   7.342   9.520   9.028
21740SOL    HW267118   7.423   9.557   9.150
21741SOL     OW67119   9.350   4.915  11.795
21741SOL    HW167120   9.331   4.964  11.715
21741SOL    HW267121   9.318   4.972  11.866
21742SOL     OW67122  12.832  11.212   5.887
21742SOL    HW167123  12.799  11.172   5.807
21742SOL    HW267124  12.761  11.269   5.917
21743SOL     OW67125   1.013   7.640   0.737
21743SOL    HW167126   1.089   7.683   0.698
21743SOL    HW267127   1.024   7.547   0.718
21744SOL     OW67128   8.850  13.904   1.649
21744SOL    HW167129   8.860  13.888   1.743
21744SOL    HW267130   8.938  13.927   1.619
21745SOL     OW67131   9.124   7.997  12.408
21745SOL    HW167132   9.085   7.912  12.391
21745SOL    HW267133   9.216   7.986  12.385
21746SOL     OW67134  13.170  14.616   5.979
21746SOL    HW167135  13.099  14.672   5.947
21746SOL    HW267136  13.156  14.611   6.073
21747SOL     OW67137   6.605   6.772   0.703
21747SOL    HW167138   6.590   6.712   0.776
21747SOL    HW267139   6.699   6.768   0.687
21748SOL     OW67140   0.369   6.764  14.220
21748SOL    HW167141   0.379   6.760  14.125
21748SOL    HW267142   0.451   6.802  14.252
21749SOL     OW67143   4.355   9.760   8.869
21749SOL    HW167144   4.315   9.813   8.937
21749SOL    HW267145   4.397   9.688   8.917
21750SOL     OW67146   5.851   4.529   0.213
21750SOL    HW167147   5.920   4.463   0.209
21750SOL    HW267148   5.771   4.480   0.193
21751SOL     OW67149   9.133   6.073   0.150
21751SOL    HW167150   9.110   6.164   0.129
21751SOL    HW267151   9.107   6.023   0.073
21752SOL     OW67152   7.025   8.826   7.503
21752SOL    HW167153   7.040   8.797   7.413
21752SOL    HW267154   7.112   8.836   7.540
21753SOL     OW67155   6.673   6.729   9.337
21753SOL    HW167156   6.712   6.815   9.356
21753SOL    HW267157   6.599   6.723   9.398
21754SOL     OW67158  10.294  12.780   3.843
21754SOL    HW167159  10.357  12.740   3.903
21754SOL    HW267160  10.250  12.846   3.896
21755SOL     OW67161   5.591  13.416  14.530
21755SOL    HW167162   5.584  13.450  14.619
21755SOL    HW267163   5.541  13.479  14.477
21756SOL     OW67164   9.008   0.152   1.806
21756SOL    HW167165   8.952   0.154   1.728
21756SOL    HW267166   8.978   0.075   1.854
21757SOL     OW67167  12.390   2.878   5.704
21757SOL    HW167168  12.386   2.933   5.626
21757SOL    HW267169  12.483   2.873   5.725
21758SOL     OW67170   6.509   6.788   4.827
21758SOL    HW167171   6.503   6.849   4.901
21758SOL    HW267172   6.417   6.771   4.804
21759SOL     OW67173   5.816   9.169   3.025
21759SOL    HW167174   5.855   9.180   3.112
21759SOL    HW267175   5.773   9.253   3.008
21760SOL     OW67176  13.695  11.012   6.925
21760SOL    HW167177  13.781  11.037   6.959
21760SOL    HW267178  13.713  10.974   6.839
21761SOL     OW67179   5.062   0.304   6.052
21761SOL    HW167180   5.042   0.251   5.975
21761SOL    HW267181   5.041   0.248   6.126
21762SOL     OW67182  10.586   9.979   9.914
21762SOL    HW167183  10.667   9.987   9.964
21762SOL    HW267184  10.605   9.910   9.850
21763SOL     OW67185  12.182   0.594  14.850
21763SOL    HW167186  12.140   0.576  14.767
21763SOL    HW267187  12.255   0.652  14.828
21764SOL     OW67188  12.987   0.746  12.582
21764SOL    HW167189  13.028   0.659  12.586
21764SOL    HW267190  13.057   0.804  12.554
21765SOL     OW67191   2.869   2.592   3.094
21765SOL    HW167192   2.805   2.619   3.159
21765SOL    HW267193   2.820   2.537   3.032
21766SOL     OW67194   8.188   3.255   0.022
21766SOL    HW167195   8.092   3.266   0.017
21766SOL    HW267196   8.220   3.295  14.828
21767SOL     OW67197   7.702   0.386  13.457
21767SOL    HW167198   7.690   0.294  13.436
21767SOL    HW267199   7.614   0.424  13.451
21768SOL     OW67200   1.553   1.117  12.885
21768SOL    HW167201   1.556   1.083  12.974
21768SOL    HW267202   1.537   1.210  12.895
21769SOL     OW67203  10.493   3.948   8.994
21769SOL    HW167204  10.427   4.013   9.018
21769SOL    HW267205  10.564   3.962   9.057
21770SOL     OW67206   1.225  13.055  12.396
21770SOL    HW167207   1.273  13.127  12.354
21770SOL    HW267208   1.202  13.090  12.482
21771SOL     OW67209   0.227   3.580  13.831
21771SOL    HW167210   0.246   3.634  13.907
21771SOL    HW267211   0.205   3.643  13.762
21772SOL     OW67212  10.981   1.997   5.123
21772SOL    HW167213  11.006   2.083   5.090
21772SOL    HW267214  10.891   2.007   5.154
21773SOL     OW67215  12.553  11.134  13.347
21773SOL    HW167216  12.458  11.133  13.346
21773SOL    HW267217  12.578  11.169  13.261
21774SOL     OW67218   7.046   4.987  10.282
21774SOL    HW167219   7.045   5.078  10.253
21774SOL    HW267220   7.021   4.992  10.375
21775SOL     OW67221   9.260  12.142   4.122
21775SOL    HW167222   9.257  12.203   4.196
21775SOL    HW267223   9.309  12.067   4.154
21776SOL     OW67224   8.472  10.479   9.748
21776SOL    HW167225   8.475  10.478   9.844
21776SOL    HW267226   8.429  10.561   9.726
21777SOL     OW67227   1.427  11.785   5.841
21777SOL    HW167228   1.366  11.780   5.767
21777SOL    HW267229   1.497  11.724   5.818
21778SOL     OW67230   3.097   7.424  12.234
21778SOL    HW167231   3.186   7.457  12.233
21778SOL    HW267232   3.066   7.434  12.144
21779SOL     OW67233  11.141   2.710   9.036
21779SOL    HW167234  11.204   2.752   8.976
21779SOL    HW267235  11.159   2.750   9.121
21780SOL     OW67236  12.910   0.829   0.028
21780SOL    HW167237  12.893   0.743   0.066
21780SOL    HW267238  13.004   0.843   0.043
21781SOL     OW67239  14.604  13.163  11.582
21781SOL    HW167240  14.508  13.169  11.584
21781SOL    HW267241  14.628  13.198  11.496
21782SOL     OW67242  12.495   1.316   4.096
21782SOL    HW167243  12.435   1.304   4.023
21782SOL    HW267244  12.580   1.334   4.056
21783SOL     OW67245  11.141   2.028   1.058
21783SOL    HW167246  11.121   2.078   0.979
21783SOL    HW267247  11.063   2.039   1.113
21784SOL     OW67248   8.640  13.845   2.235
21784SOL    HW167249   8.686  13.908   2.179
21784SOL    HW267250   8.621  13.771   2.177
21785SOL     OW67251   8.486   5.568   6.805
21785SOL    HW167252   8.523   5.655   6.822
21785SOL    HW267253   8.552   5.523   6.753
21786SOL     OW67254   4.814   5.555  13.737
21786SOL    HW167255   4.721   5.578  13.747
21786SOL    HW267256   4.818   5.461  13.753
21787SOL     OW67257  10.365  11.277   6.025
21787SOL    HW167258  10.426  11.220   5.979
21787SOL    HW267259  10.309  11.312   5.956
21788SOL     OW67260   8.086   0.516  11.179
21788SOL    HW167261   8.130   0.438  11.145
21788SOL    HW267262   8.114   0.587  11.120
21789SOL     OW67263   7.135  11.421   5.386
21789SOL    HW167264   7.228  11.413   5.407
21789SOL    HW267265   7.114  11.338   5.342
21790SOL     OW67266  10.547  14.388  12.024
21790SOL    HW167267  10.465  14.344  12.046
21790SOL    HW267268  10.533  14.479  12.047
21791SOL     OW67269  13.276   7.779  14.294
21791SOL    HW167270  13.199   7.829  14.266
21791SOL    HW267271  13.275   7.701  14.238
21792SOL     OW67272   2.232   5.837   2.155
21792SOL    HW167273   2.242   5.751   2.196
21792SOL    HW267274   2.278   5.829   2.072
21793SOL     OW67275   5.014   8.689  10.744
21793SOL    HW167276   4.927   8.716  10.714
21793SOL    HW267277   5.072   8.761  10.717
21794SOL     OW67278   3.466  13.384   2.317
21794SOL    HW167279   3.475  13.295   2.283
21794SOL    HW267280   3.512  13.382   2.401
21795SOL     OW67281   6.193   6.049  14.324
21795SOL    HW167282   6.224   5.973  14.274
21795SOL    HW267283   6.203   6.122  14.264
21796SOL     OW67284   8.417   8.585  13.035
21796SOL    HW167285   8.330   8.547  13.046
21796SOL    HW267286   8.404   8.657  12.973
21797SOL     OW67287   4.862   3.948   9.586
21797SOL    HW167288   4.782   3.904   9.617
21797SOL    HW267289   4.905   3.978   9.666
21798SOL     OW67290   9.086  10.263   5.444
21798SOL    HW167291   9.139  10.331   5.487
21798SOL    HW267292   8.998  10.301   5.439
21799SOL     OW67293   9.557  12.779   0.060
21799SOL    HW167294   9.634  12.762   0.115
21799SOL    HW267295   9.483  12.776   0.120
21800SOL     OW67296   0.095   5.266   3.278
21800SOL    HW167297   0.052   5.351   3.288
21800SOL    HW267298   0.179   5.277   3.322
21801SOL     OW67299  14.820  12.985   3.243
21801SOL    HW167300  14.871  12.943   3.173
21801SOL    HW267301  14.882  12.991   3.316
21802SOL     OW67302  10.566  11.621   6.794
21802SOL    HW167303  10.590  11.701   6.747
21802SOL    HW267304  10.621  11.621   6.872
21803SOL     OW67305   6.603   1.294   3.214
21803SOL    HW167306   6.647   1.209   3.210
21803SOL    HW267307   6.595   1.322   3.123
21804SOL     OW67308   0.888   2.793   5.734
21804SOL    HW167309   0.803   2.834   5.746
21804SOL    HW267310   0.900   2.787   5.639
21805SOL     OW67311   1.105   5.647   8.722
21805SOL    HW167312   1.067   5.572   8.677
21805SOL    HW267313   1.029   5.699   8.750
21806SOL     OW67314   3.333   0.087  14.544
21806SOL    HW167315   3.338   0.154  14.476
21806SOL    HW267316   3.310   0.007  14.496
21807SOL     OW67317  12.768   8.053   1.199
21807SOL    HW167318  12.793   8.144   1.212
21807SOL    HW267319  12.847   8.011   1.165
21808SOL     OW67320  14.488   6.699   9.091
21808SOL    HW167321  14.514   6.641   9.019
21808SOL    HW267322  14.560   6.762   9.096
21809SOL     OW67323   9.376   3.316   2.809
21809SOL    HW167324   9.367   3.382   2.741
21809SOL    HW267325   9.299   3.329   2.865
21810SOL     OW67326   1.785   6.338  14.326
21810SOL    HW167327   1.846   6.403  14.360
21810SOL    HW267328   1.733   6.312  14.403
21811SOL     OW67329   7.093   7.357   5.034
21811SOL    HW167330   7.043   7.417   4.980
21811SOL    HW267331   7.052   7.271   5.020
21812SOL     OW67332   9.824   5.584  12.729
21812SOL    HW167333   9.787   5.672  12.730
21812SOL    HW267334   9.783   5.541  12.654
21813SOL     OW67335   9.161   1.100  12.839
21813SOL    HW167336   9.250   1.132  12.824
21813SOL    HW267337   9.146   1.113  12.933
21814SOL     OW67338   1.814   4.187   2.977
21814SOL    HW167339   1.806   4.109   3.032
21814SOL    HW267340   1.875   4.162   2.908
21815SOL     OW67341  11.803  11.345   7.558
21815SOL    HW167342  11.718  11.384   7.576
21815SOL    HW267343  11.855  11.416   7.521
21816SOL     OW67344  10.460   1.340  10.616
21816SOL    HW167345  10.378   1.295  10.636
21816SOL    HW267346  10.432   1.422  10.575
21817SOL     OW67347  13.100   0.284   9.246
21817SOL    HW167348  13.071   0.194   9.229
21817SOL    HW267349  13.076   0.300   9.337
21818SOL     OW67350  10.468   6.874  12.556
21818SOL    HW167351  10.433   6.961  12.538
21818SOL    HW267352  10.411   6.840  12.625
21819SOL     OW67353   4.576   8.609  13.494
21819SOL    HW167354   4.590   8.519  13.525
21819SOL    HW267355   4.632   8.662  13.551
21820SOL     OW67356   3.927   3.351  11.152
21820SOL    HW167357   3.832   3.351  11.141
21820SOL    HW267358   3.945   3.273  11.204
21821SOL     OW67359   2.361   2.676   9.308
21821SOL    HW167360   2.415   2.620   9.364
21821SOL    HW267361   2.272   2.643   9.319
21822SOL     OW67362   5.684  12.198   3.466
21822SOL    HW167363   5.666  12.270   3.406
21822SOL    HW267364   5.698  12.122   3.409
21823SOL     OW67365   9.392   4.949   0.960
21823SOL    HW167366   9.335   4.964   1.035
21823SOL    HW267367   9.475   4.920   0.998
21824SOL     OW67368   6.261  12.580   7.643
21824SOL    HW167369   6.257  12.620   7.730
21824SOL    HW267370   6.295  12.649   7.586
21825SOL     OW67371   9.580   3.165   0.553
21825SOL    HW167372   9.617   3.084   0.587
21825SOL    HW267373   9.509   3.187   0.614
21826SOL     OW67374  13.253   1.785   8.102
21826SOL    HW167375  13.240   1.866   8.150
21826SOL    HW267376  13.252   1.811   8.010
21827SOL     OW67377  13.910  14.591   5.659
21827SOL    HW167378  13.830  14.546   5.631
21827SOL    HW267379  13.925  14.657   5.592
21828SOL     OW67380   1.925  12.815  10.105
21828SOL    HW167381   1.972  12.855  10.032
21828SOL    HW267382   1.874  12.744  10.065
21829SOL     OW67383  10.432  14.256   2.581
21829SOL    HW167384  10.490  14.206   2.524
21829SOL    HW267385  10.385  14.315   2.522
21830SOL     OW67386   1.371   7.470   2.081
21830SOL    HW167387   1.429   7.547   2.081
21830SOL    HW267388   1.382   7.432   2.168
21831SOL     OW67389   3.709   1.011   1.654
21831SOL    HW167390   3.698   0.960   1.573
21831SOL    HW267391   3.621   1.042   1.675
21832SOL     OW67392  13.273  13.451   2.999
21832SOL    HW167393  13.220  13.493   2.931
21832SOL    HW267394  13.363  13.475   2.976
21833SOL     OW67395   3.314   5.562   0.689
21833SOL    HW167396   3.328   5.623   0.761
21833SOL    HW267397   3.243   5.505   0.718
21834SOL     OW67398   4.729   8.986   5.270
21834SOL    HW167399   4.798   8.946   5.323
21834SOL    HW267400   4.766   8.992   5.182
21835SOL     OW67401   8.472  11.750   3.537
21835SOL    HW167402   8.488  11.698   3.616
21835SOL    HW267403   8.413  11.820   3.566
21836SOL     OW67404   5.520  13.938   0.248
21836SOL    HW167405   5.573  13.923   0.326
21836SOL    HW267406   5.512  13.852   0.208
21837SOL     OW67407   4.188  10.813  10.589
21837SOL    HW167408   4.183  10.735  10.645
21837SOL    HW267409   4.136  10.790  10.512
21838SOL     OW67410   8.661   8.347   8.336
21838SOL    HW167411   8.751   8.377   8.344
21838SOL    HW267412   8.645   8.342   8.242
21839SOL     OW67413   5.862   9.612  11.353
21839SOL    HW167414   5.774   9.603  11.388
21839SOL    HW267415   5.920   9.588  11.426
21840SOL     OW67416  14.206   7.271  13.147
21840SOL    HW167417  14.266   7.232  13.083
21840SOL    HW267418  14.134   7.209  13.154
21841SOL     OW67419   3.230  13.424   1.639
21841SOL    HW167420   3.284  13.467   1.705
21841SOL    HW267421   3.140  13.437   1.669
21842SOL     OW67422   9.903  11.612   1.680
21842SOL    HW167423   9.930  11.550   1.747
21842SOL    HW267424   9.848  11.675   1.727
21843SOL     OW67425   5.383  10.593   7.641
21843SOL    HW167426   5.467  10.626   7.610
21843SOL    HW267427   5.403  10.507   7.677
21844SOL     OW67428   3.415  11.840   7.044
21844SOL    HW167429   3.335  11.861   7.093
21844SOL    HW267430   3.483  11.834   7.111
21845SOL     OW67431   4.959   8.507  13.586
21845SOL    HW167432   4.936   8.431  13.532
21845SOL    HW267433   5.052   8.496  13.604
21846SOL     OW67434   5.458   2.617  13.940
21846SOL    HW167435   5.364   2.602  13.952
21846SOL    HW267436   5.466   2.644  13.848
21847SOL     OW67437   2.215   9.089  10.250
21847SOL    HW167438   2.211   9.024  10.321
21847SOL    HW267439   2.269   9.047  10.183
21848SOL     OW67440   6.025   8.180   1.459
21848SOL    HW167441   6.044   8.101   1.409
21848SOL    HW267442   5.931   8.194   1.447
21849SOL     OW67443   0.403   6.606  11.693
21849SOL    HW167444   0.481   6.588  11.745
21849SOL    HW267445   0.331   6.568  11.743
21850SOL     OW67446  13.355  10.258  11.981
21850SOL    HW167447  13.401  10.232  11.901
21850SOL    HW267448  13.401  10.337  12.010
21851SOL     OW67449  10.211  13.718  13.328
21851SOL    HW167450  10.213  13.626  13.355
21851SOL    HW267451  10.295  13.753  13.355
21852SOL     OW67452   4.027  14.416   7.264
21852SOL    HW167453   4.084  14.492   7.271
21852SOL    HW267454   3.942  14.451   7.236
21853SOL     OW67455   6.388   8.392   2.611
21853SOL    HW167456   6.368   8.329   2.542
21853SOL    HW267457   6.437   8.341   2.676
21854SOL     OW67458  11.170   3.685   6.453
21854SOL    HW167459  11.217   3.730   6.383
21854SOL    HW267460  11.232   3.683   6.526
21855SOL     OW67461  11.606   5.000   9.846
21855SOL    HW167462  11.648   5.083   9.823
21855SOL    HW267463  11.672   4.933   9.827
21856SOL     OW67464   7.304   5.598  10.021
21856SOL    HW167465   7.338   5.681  10.055
21856SOL    HW267466   7.378   5.538  10.027
21857SOL     OW67467   9.047   7.306   3.603
21857SOL    HW167468   9.104   7.382   3.615
21857SOL    HW267469   9.024   7.279   3.692
21858SOL     OW67470  11.406  10.372   9.491
21858SOL    HW167471  11.430  10.464   9.491
21858SOL    HW267472  11.347  10.362   9.416
21859SOL     OW67473   8.374   1.569   0.131
21859SOL    HW167474   8.329   1.618   0.062
21859SOL    HW267475   8.310   1.563   0.202
21860SOL     OW67476  13.770   7.713  14.303
21860SOL    HW167477  13.811   7.739  14.386
21860SOL    HW267478  13.841   7.674  14.252
21861SOL     OW67479  14.453  11.147   5.282
21861SOL    HW167480  14.536  11.133   5.327
21861SOL    HW267481  14.396  11.185   5.348
21862SOL     OW67482   1.671  10.172  12.797
21862SOL    HW167483   1.615  10.233  12.846
21862SOL    HW267484   1.649  10.086  12.832
21863SOL     OW67485   3.166  13.008  10.622
21863SOL    HW167486   3.240  12.952  10.601
21863SOL    HW267487   3.090  12.950  10.614
21864SOL     OW67488  12.302   0.222   5.805
21864SOL    HW167489  12.285   0.128   5.800
21864SOL    HW267490  12.287   0.244   5.897
21865SOL     OW67491   8.116   8.991   4.255
21865SOL    HW167492   8.093   8.957   4.341
21865SOL    HW267493   8.158   9.075   4.273
21866SOL     OW67494   6.407   5.064   2.393
21866SOL    HW167495   6.404   5.135   2.329
21866SOL    HW267496   6.479   5.008   2.362
21867SOL     OW67497  13.617   7.384   6.595
21867SOL    HW167498  13.551   7.330   6.551
21867SOL    HW267499  13.694   7.377   6.540
21868SOL     OW67500  10.452   0.031   5.705
21868SOL    HW167501  10.536   0.037   5.752
21868SOL    HW267502  10.427  14.826   5.712
21869SOL     OW67503   5.329   9.980   5.511
21869SOL    HW167504   5.324   9.900   5.459
21869SOL    HW267505   5.297  10.049   5.453
21870SOL     OW67506   1.469   8.716  13.354
21870SOL    HW167507   1.462   8.790  13.414
21870SOL    HW267508   1.538   8.740  13.293
21871SOL     OW67509   1.440   5.165   6.286
21871SOL    HW167510   1.454   5.108   6.210
21871SOL    HW267511   1.350   5.196   6.275
21872SOL     OW67512   7.619  14.854   7.411
21872SOL    HW167513   7.663  14.823   7.332
21872SOL    HW267514   7.550   0.025   7.379
21873SOL     OW67515   1.017   7.852  11.616
21873SOL    HW167516   1.058   7.770  11.645
21873SOL    HW267517   1.043   7.861  11.525
21874SOL     OW67518  11.174  11.190  14.223
21874SOL    HW167519  11.122  11.110  14.230
21874SOL    HW267520  11.197  11.195  14.130
21875SOL     OW67521   9.501   3.337   6.237
21875SOL    HW167522   9.540   3.250   6.234
21875SOL    HW267523   9.407   3.322   6.222
21876SOL     OW67524  14.107   3.736   0.899
21876SOL    HW167525  14.104   3.822   0.858
21876SOL    HW267526  14.117   3.755   0.993
21877SOL     OW67527   6.568   2.374  13.026
21877SOL    HW167528   6.647   2.417  12.993
21877SOL    HW267529   6.592   2.281  13.032
21878SOL     OW67530   3.720  10.425  12.247
21878SOL    HW167531   3.676  10.365  12.186
21878SOL    HW267532   3.680  10.510  12.229
21879SOL     OW67533   9.702   3.617  11.221
21879SOL    HW167534   9.786   3.576  11.244
21879SOL    HW267535   9.718   3.661  11.138
21880SOL     OW67536   9.576   8.199  12.362
21880SOL    HW167537   9.520   8.171  12.434
21880SOL    HW267538   9.642   8.129  12.353
21881SOL     OW67539   1.510   1.714   1.355
21881SOL    HW167540   1.520   1.707   1.260
21881SOL    HW267541   1.597   1.737   1.387
21882SOL     OW67542   5.608  12.509   9.408
21882SOL    HW167543   5.655  12.433   9.374
21882SOL    HW267544   5.536  12.472   9.460
21883SOL     OW67545   6.677  10.212  14.810
21883SOL    HW167546   6.753  10.176  14.762
21883SOL    HW267547   6.702  10.301  14.832
21884SOL     OW67548   5.657   8.646  11.691
21884SOL    HW167549   5.592   8.605  11.633
21884SOL    HW267550   5.737   8.648  11.638
21885SOL     OW67551   7.054   0.718  10.010
21885SOL    HW167552   6.964   0.688  10.024
21885SOL    HW267553   7.048   0.776   9.934
21886SOL     OW67554  13.576   7.797  10.009
21886SOL    HW167555  13.631   7.873   9.993
21886SOL    HW267556  13.634   7.722   9.999
21887SOL     OW67557   6.304   3.728  11.279
21887SOL    HW167558   6.315   3.788  11.206
21887SOL    HW267559   6.238   3.770  11.335
21888SOL     OW67560   0.474   0.658   8.681
21888SOL    HW167561   0.499   0.568   8.658
21888SOL    HW267562   0.409   0.648   8.750
21889SOL     OW67563  11.400   2.998   7.518
21889SOL    HW167564  11.339   2.931   7.548
21889SOL    HW267565  11.447   2.957   7.445
21890SOL     OW67566   8.095   0.444   7.228
21890SOL    HW167567   8.036   0.462   7.301
21890SOL    HW267568   8.037   0.422   7.155
21891SOL     OW67569  13.368   0.825  13.295
21891SOL    HW167570  13.418   0.898  13.333
21891SOL    HW267571  13.372   0.756  13.362
21892SOL     OW67572   3.331   5.418  13.671
21892SOL    HW167573   3.285   5.342  13.707
21892SOL    HW267574   3.276   5.493  13.696
21893SOL     OW67575  14.167  14.601   6.528
21893SOL    HW167576  14.166  14.648   6.445
21893SOL    HW267577  14.239  14.640   6.577
21894SOL     OW67578   2.752   1.756   2.091
21894SOL    HW167579   2.746   1.724   2.001
21894SOL    HW267580   2.788   1.844   2.084
21895SOL     OW67581  13.483   4.094   2.372
21895SOL    HW167582  13.547   4.063   2.436
21895SOL    HW267583  13.512   4.183   2.351
21896SOL     OW67584  13.699  10.920   5.337
21896SOL    HW167585  13.631  10.987   5.327
21896SOL    HW267586  13.765  10.943   5.272
21897SOL     OW67587   5.177  12.129  14.040
21897SOL    HW167588   5.082  12.129  14.033
21897SOL    HW267589   5.208  12.115  13.950
21898SOL     OW67590   4.878   5.434   0.273
21898SOL    HW167591   4.920   5.506   0.227
21898SOL    HW267592   4.837   5.382   0.204
21899SOL     OW67593   1.551   4.501   5.896
21899SOL    HW167594   1.634   4.520   5.940
21899SOL    HW267595   1.575   4.461   5.813
21900SOL     OW67596   2.400   6.651   3.452
21900SOL    HW167597   2.396   6.652   3.548
21900SOL    HW267598   2.407   6.743   3.428
21901SOL     OW67599   0.729   4.579   0.935
21901SOL    HW167600   0.807   4.545   0.891
21901SOL    HW267601   0.701   4.652   0.880
21902SOL     OW67602   9.106   2.334   7.076
21902SOL    HW167603   9.106   2.256   7.020
21902SOL    HW267604   9.127   2.405   7.016
21903SOL     OW67605  14.524   1.301   8.495
21903SOL    HW167606  14.473   1.325   8.572
21903SOL    HW267607  14.610   1.275   8.530
21904SOL     OW67608   7.294   6.474  14.586
21904SOL    HW167609   7.316   6.524  14.664
21904SOL    HW267610   7.334   6.388  14.601
21905SOL     OW67611   4.250   4.027  14.651
21905SOL    HW167612   4.239   3.976  14.731
21905SOL    HW267613   4.161   4.040  14.618
21906SOL     OW67614   2.540   9.539   9.873
21906SOL    HW167615   2.622   9.535   9.924
21906SOL    HW267616   2.504   9.625   9.893
21907SOL     OW67617   9.500  11.280  12.318
21907SOL    HW167618   9.422  11.299  12.266
21907SOL    HW267619   9.536  11.366  12.339
21908SOL     OW67620   2.441   0.060  13.134
21908SOL    HW167621   2.519   0.005  13.140
21908SOL    HW267622   2.398   0.050  13.219
21909SOL     OW67623   6.314   6.590   0.559
21909SOL    HW167624   6.393   6.543   0.532
21909SOL    HW267625   6.332   6.682   0.538
21910SOL     OW67626   4.315  10.288   1.043
21910SOL    HW167627   4.266  10.314   0.965
21910SOL    HW267628   4.334  10.196   1.030
21911SOL     OW67629   8.971   8.317   2.436
21911SOL    HW167630   9.056   8.361   2.437
21911SOL    HW267631   8.908   8.386   2.413
21912SOL     OW67632  13.208  13.363   4.873
21912SOL    HW167633  13.173  13.274   4.869
21912SOL    HW267634  13.191  13.391   4.963
21913SOL     OW67635   0.367  13.652   3.293
21913SOL    HW167636   0.417  13.619   3.219
21913SOL    HW267637   0.375  13.585   3.360
21914SOL     OW67638  12.726   2.964   1.398
21914SOL    HW167639  12.809   2.952   1.350
21914SOL    HW267640  12.695   2.875   1.414
21915SOL     OW67641   4.616  11.015   2.171
21915SOL    HW167642   4.711  11.023   2.179
21915SOL    HW267643   4.596  11.047   2.083
21916SOL     OW67644   2.537  10.322   9.493
21916SOL    HW167645   2.546  10.369   9.576
21916SOL    HW267646   2.442  10.312   9.481
21917SOL     OW67647  10.292  11.263   2.989
21917SOL    HW167648  10.262  11.172   2.988
21917SOL    HW267649  10.273  11.294   3.077
21918SOL     OW67650   7.385   0.520  11.284
21918SOL    HW167651   7.297   0.545  11.257
21918SOL    HW267652   7.436   0.601  11.278
21919SOL     OW67653   4.592   5.205  10.084
21919SOL    HW167654   4.660   5.273  10.079
21919SOL    HW267655   4.510   5.254  10.080
21920SOL     OW67656  10.277   7.782  12.545
21920SOL    HW167657  10.183   7.791  12.558
21920SOL    HW267658  10.306   7.724  12.615
21921SOL     OW67659  11.120  10.393   2.264
21921SOL    HW167660  11.060  10.434   2.327
21921SOL    HW267661  11.172  10.466   2.230
21922SOL     OW67662   0.727   1.542   8.139
21922SOL    HW167663   0.735   1.455   8.101
21922SOL    HW267664   0.751   1.602   8.068
21923SOL     OW67665   1.252   2.681   9.690
21923SOL    HW167666   1.178   2.621   9.689
21923SOL    HW267667   1.305   2.655   9.614
21924SOL     OW67668   7.500   9.351  11.779
21924SOL    HW167669   7.521   9.444  11.791
21924SOL    HW267670   7.516   9.335  11.686
21925SOL     OW67671   7.406  12.102  14.863
21925SOL    HW167672   7.405  12.157   0.054
21925SOL    HW267673   7.381  12.161  14.792
21926SOL     OW67674   6.606   6.805   0.417
21926SOL    HW167675   6.522   6.842   0.390
21926SOL    HW267676   6.609   6.818   0.512
21927SOL     OW67677   7.734   9.409  10.795
21927SOL    HW167678   7.660   9.413  10.856
21927SOL    HW267679   7.714   9.473  10.727
21928SOL     OW67680  12.861   0.617   2.984
21928SOL    HW167681  12.870   0.522   2.977
21928SOL    HW267682  12.949   0.647   3.008
21929SOL     OW67683  11.317   9.343   3.017
21929SOL    HW167684  11.407   9.319   2.994
21929SOL    HW267685  11.263   9.300   2.951
21930SOL     OW67686   1.480   8.764  10.535
21930SOL    HW167687   1.389   8.760  10.563
21930SOL    HW267688   1.523   8.694  10.584
21931SOL     OW67689   1.787   2.190   6.219
21931SOL    HW167690   1.693   2.202   6.228
21931SOL    HW267691   1.798   2.147   6.134
21932SOL     OW67692   2.796  10.513   6.122
21932SOL    HW167693   2.739  10.468   6.184
21932SOL    HW267694   2.779  10.470   6.038
21933SOL     OW67695  12.018  13.255   5.440
21933SOL    HW167696  12.056  13.287   5.358
21933SOL    HW267697  12.003  13.334   5.492
21934SOL     OW67698   8.205   5.913   3.104
21934SOL    HW167699   8.130   5.969   3.085
21934SOL    HW267700   8.192   5.836   3.050
21935SOL     OW67701   6.875   2.344  11.872
21935SOL    HW167702   6.897   2.437  11.861
21935SOL    HW267703   6.780   2.344  11.889
21936SOL     OW67704  13.375   0.269   1.313
21936SOL    HW167705  13.335   0.197   1.265
21936SOL    HW267706  13.390   0.234   1.401
21937SOL     OW67707   6.465   8.250   2.836
21937SOL    HW167708   6.446   8.314   2.904
21937SOL    HW267709   6.539   8.200   2.870
21938SOL     OW67710  13.638   0.447   0.299
21938SOL    HW167711  13.701   0.382   0.268
21938SOL    HW267712  13.690   0.509   0.349
21939SOL     OW67713   8.278   3.241   1.605
21939SOL    HW167714   8.246   3.178   1.669
21939SOL    HW267715   8.212   3.310   1.604
21940SOL     OW67716   3.791   5.358   7.067
21940SOL    HW167717   3.754   5.378   7.153
21940SOL    HW267718   3.865   5.300   7.086
21941SOL     OW67719   4.580   2.755   9.111
21941SOL    HW167720   4.631   2.796   9.181
21941SOL    HW267721   4.502   2.810   9.102
21942SOL     OW67722   0.219   1.719   1.755
21942SOL    HW167723   0.234   1.760   1.669
21942SOL    HW267724   0.266   1.636   1.751
21943SOL     OW67725   7.139  11.625  12.859
21943SOL    HW167726   7.076  11.660  12.922
21943SOL    HW267727   7.085  11.589  12.789
21944SOL     OW67728  12.287  10.676  13.230
21944SOL    HW167729  12.378  10.693  13.250
21944SOL    HW267730  12.289  10.628  13.147
21945SOL     OW67731   1.376   2.004   6.600
21945SOL    HW167732   1.458   2.052   6.606
21945SOL    HW267733   1.376   1.968   6.511
21946SOL     OW67734   6.945   2.501   1.070
21946SOL    HW167735   6.880   2.512   1.001
21946SOL    HW267736   6.896   2.508   1.152
21947SOL     OW67737   7.166  13.271   5.760
21947SOL    HW167738   7.178  13.365   5.771
21947SOL    HW267739   7.126  13.242   5.842
21948SOL     OW67740   9.532   4.241   1.795
21948SOL    HW167741   9.586   4.238   1.874
21948SOL    HW267742   9.587   4.284   1.730
21949SOL     OW67743   6.565   7.701   9.261
21949SOL    HW167744   6.520   7.785   9.269
21949SOL    HW267745   6.636   7.705   9.326
21950SOL     OW67746  12.690   8.468   8.427
21950SOL    HW167747  12.623   8.400   8.433
21950SOL    HW267748  12.765   8.431   8.474
21951SOL     OW67749   9.477   1.236   1.532
21951SOL    HW167750   9.399   1.207   1.579
21951SOL    HW267751   9.549   1.184   1.570
21952SOL     OW67752  10.258   5.239   2.316
21952SOL    HW167753  10.343   5.267   2.350
21952SOL    HW267754  10.199   5.247   2.391
21953SOL     OW67755  10.609  12.545   0.840
21953SOL    HW167756  10.598  12.450   0.834
21953SOL    HW267757  10.578  12.568   0.927
21954SOL     OW67758  12.458  13.176  10.174
21954SOL    HW167759  12.499  13.131  10.100
21954SOL    HW267760  12.365  13.156  10.166
21955SOL     OW67761   8.714   1.295   5.177
21955SOL    HW167762   8.659   1.224   5.141
21955SOL    HW267763   8.780   1.250   5.229
21956SOL     OW67764   8.461  11.407   4.646
21956SOL    HW167765   8.532  11.451   4.693
21956SOL    HW267766   8.505  11.350   4.583
21957SOL     OW67767  10.237   9.392  10.924
21957SOL    HW167768  10.319   9.441  10.921
21957SOL    HW267769  10.254   9.321  10.986
21958SOL     OW67770   8.418   8.327  10.992
21958SOL    HW167771   8.433   8.386  11.066
21958SOL    HW267772   8.329   8.295  11.004
21959SOL     OW67773  12.133   4.138   0.609
21959SOL    HW167774  12.147   4.227   0.575
21959SOL    HW267775  12.219   4.098   0.607
21960SOL     OW67776  13.956   2.411  13.893
21960SOL    HW167777  13.929   2.425  13.984
21960SOL    HW267778  13.920   2.325  13.871
21961SOL     OW67779   3.547   4.780  14.232
21961SOL    HW167780   3.535   4.862  14.280
21961SOL    HW267781   3.462   4.764  14.191
21962SOL     OW67782   7.709   0.698  14.176
21962SOL    HW167783   7.761   0.729  14.250
21962SOL    HW267784   7.744   0.612  14.156
21963SOL     OW67785  12.681   5.922   1.948
21963SOL    HW167786  12.667   5.997   2.006
21963SOL    HW267787  12.601   5.918   1.895
21964SOL     OW67788   6.699   2.491   9.393
21964SOL    HW167789   6.740   2.406   9.408
21964SOL    HW267790   6.735   2.521   9.309
21965SOL     OW67791   4.909   4.915  14.343
21965SOL    HW167792   4.955   4.910  14.427
21965SOL    HW267793   4.977   4.902  14.278
21966SOL     OW67794  12.928  12.935   5.206
21966SOL    HW167795  12.865  13.003   5.180
21966SOL    HW267796  13.010  12.982   5.219
21967SOL     OW67797   0.110   1.356   7.502
21967SOL    HW167798   0.141   1.428   7.557
21967SOL    HW267799   0.044   1.396   7.446
21968SOL     OW67800   7.712  10.454   6.947
21968SOL    HW167801   7.692  10.463   6.853
21968SOL    HW267802   7.719  10.544   6.978
21969SOL     OW67803   8.248   7.433   1.420
21969SOL    HW167804   8.214   7.386   1.496
21969SOL    HW267805   8.258   7.366   1.353
21970SOL     OW67806  12.368  13.171   0.609
21970SOL    HW167807  12.353  13.120   0.688
21970SOL    HW267808  12.281  13.201   0.582
21971SOL     OW67809  14.056   2.328   2.227
21971SOL    HW167810  14.106   2.361   2.301
21971SOL    HW267811  13.968   2.364   2.239
21972SOL     OW67812   5.014   6.904   0.472
21972SOL    HW167813   4.921   6.882   0.468
21972SOL    HW267814   5.023   6.980   0.415
21973SOL     OW67815  12.322   7.742  12.810
21973SOL    HW167816  12.228   7.751  12.825
21973SOL    HW267817  12.330   7.680  12.737
21974SOL     OW67818  13.192   8.507   1.807
21974SOL    HW167819  13.232   8.578   1.857
21974SOL    HW267820  13.239   8.429   1.835
21975SOL     OW67821  11.441   7.679   3.249
21975SOL    HW167822  11.360   7.694   3.297
21975SOL    HW267823  11.466   7.765   3.214
21976SOL     OW67824   4.073  14.292   0.508
21976SOL    HW167825   4.021  14.333   0.438
21976SOL    HW267826   4.099  14.207   0.472
21977SOL     OW67827   4.912  10.528  10.185
21977SOL    HW167828   5.003  10.498  10.195
21977SOL    HW267829   4.873  10.514  10.271
21978SOL     OW67830  10.262   5.934   9.537
21978SOL    HW167831  10.319   5.931   9.459
21978SOL    HW267832  10.252   5.842   9.562
21979SOL     OW67833   8.677  10.396   7.517
21979SOL    HW167834   8.698  10.310   7.481
21979SOL    HW267835   8.721  10.398   7.602
21980SOL     OW67836   5.841   5.087   4.358
21980SOL    HW167837   5.759   5.082   4.309
21980SOL    HW267838   5.907   5.053   4.298
21981SOL     OW67839  14.759   7.729   0.242
21981SOL    HW167840  14.670   7.728   0.207
21981SOL    HW267841  14.751   7.693   0.330
21982SOL     OW67842  13.493  13.752   5.675
21982SOL    HW167843  13.445  13.835   5.682
21982SOL    HW267844  13.567  13.771   5.618
21983SOL     OW67845  12.117  11.859   6.471
21983SOL    HW167846  12.125  11.938   6.524
21983SOL    HW267847  12.040  11.873   6.417
21984SOL     OW67848   8.454  12.463   5.683
21984SOL    HW167849   8.415  12.539   5.640
21984SOL    HW267850   8.474  12.492   5.772
21985SOL     OW67851  11.367   8.291  10.370
21985SOL    HW167852  11.303   8.224  10.394
21985SOL    HW267853  11.323   8.374  10.390
21986SOL     OW67854   9.180   0.076  13.766
21986SOL    HW167855   9.104   0.103  13.714
21986SOL    HW267856   9.147   0.011  13.828
21987SOL     OW67857  10.233  14.426   3.900
21987SOL    HW167858  10.238  14.449   3.992
21987SOL    HW267859  10.191  14.501   3.858
21988SOL     OW67860   0.400  14.181  14.518
21988SOL    HW167861   0.368  14.184  14.428
21988SOL    HW267862   0.325  14.148  14.568
21989SOL     OW67863  10.986   9.473   2.743
21989SOL    HW167864  10.892   9.491   2.731
21989SOL    HW267865  11.015   9.439   2.659
21990SOL     OW67866   7.113  12.899   9.379
21990SOL    HW167867   7.162  12.822   9.352
21990SOL    HW267868   7.028  12.864   9.408
21991SOL     OW67869  11.745   4.976  14.822
21991SOL    HW167870  11.764   5.036   0.007
21991SOL    HW267871  11.825   4.924  14.812
21992SOL     OW67872   6.930  10.504   1.969
21992SOL    HW167873   6.852  10.448   1.963
21992SOL    HW267874   6.924  10.543   2.056
21993SOL     OW67875   8.251  11.461   8.736
21993SOL    HW167876   8.157  11.477   8.728
21993SOL    HW267877   8.270  11.476   8.828
21994SOL     OW67878   6.638  11.079  13.642
21994SOL    HW167879   6.580  11.042  13.709
21994SOL    HW267880   6.708  11.122  13.692
21995SOL     OW67881   2.002  11.115   9.865
21995SOL    HW167882   2.022  11.021   9.867
21995SOL    HW267883   2.076  11.156   9.911
21996SOL     OW67884   5.715   8.046  13.420
21996SOL    HW167885   5.795   8.020  13.465
21996SOL    HW267886   5.695   8.133  13.456
21997SOL     OW67887   5.333  12.884  11.696
21997SOL    HW167888   5.278  12.936  11.638
21997SOL    HW267889   5.368  12.814  11.641
21998SOL     OW67890   6.997   1.139   1.619
21998SOL    HW167891   6.914   1.113   1.659
21998SOL    HW267892   7.027   1.060   1.573
21999SOL     OW67893  13.428   2.611   0.531
21999SOL    HW167894  13.453   2.535   0.583
21999SOL    HW267895  13.442   2.685   0.590
22000SOL     OW67896   0.919   2.774   2.787
22000SOL    HW167897   0.896   2.831   2.714
22000SOL    HW267898   0.959   2.697   2.746
22001SOL     OW67899   6.023   1.978  12.061
22001SOL    HW167900   6.014   1.936  12.146
22001SOL    HW267901   6.023   2.072  12.081
22002SOL     OW67902   5.271   3.947  11.671
22002SOL    HW167903   5.341   3.952  11.737
22002SOL    HW267904   5.281   4.028  11.620
22003SOL     OW67905   8.128   6.374   7.747
22003SOL    HW167906   8.039   6.400   7.770
22003SOL    HW267907   8.160   6.446   7.692
22004SOL     OW67908   6.626   9.645   1.952
22004SOL    HW167909   6.633   9.701   1.875
22004SOL    HW267910   6.648   9.557   1.920
22005SOL     OW67911  11.435  11.653  13.760
22005SOL    HW167912  11.508  11.593  13.775
22005SOL    HW267913  11.456  11.695  13.677
22006SOL     OW67914  13.447   0.420   1.760
22006SOL    HW167915  13.494   0.392   1.681
22006SOL    HW267916  13.426   0.339   1.806
22007SOL     OW67917  14.683   9.609  10.265
22007SOL    HW167918  14.725   9.618  10.351
22007SOL    HW267919  14.742   9.551  10.216
22008SOL     OW67920  10.412   4.811  11.897
22008SOL    HW167921  10.488   4.799  11.839
22008SOL    HW267922  10.419   4.740  11.961
22009SOL     OW67923   7.013   4.544   2.328
22009SOL    HW167924   6.972   4.476   2.275
22009SOL    HW267925   7.025   4.504   2.414
22010SOL     OW67926   9.077  10.764   1.245
22010SOL    HW167927   8.999  10.785   1.296
22010SOL    HW267928   9.103  10.677   1.273
22011SOL     OW67929  12.378  10.999  10.053
22011SOL    HW167930  12.295  11.027  10.091
22011SOL    HW267931  12.353  10.939   9.983
22012SOL     OW67932   8.134   1.949   2.111
22012SOL    HW167933   8.200   2.017   2.124
22012SOL    HW267934   8.051   1.990   2.134
22013SOL     OW67935   5.774   8.326  10.344
22013SOL    HW167936   5.854   8.362  10.380
22013SOL    HW267937   5.785   8.232  10.348
22014SOL     OW67938   1.504   4.881   9.406
22014SOL    HW167939   1.567   4.940   9.365
22014SOL    HW267940   1.478   4.925   9.486
22015SOL     OW67941  10.684   5.332  11.561
22015SOL    HW167942  10.747   5.400  11.586
22015SOL    HW267943  10.678   5.340  11.466
22016SOL     OW67944   1.787  12.364  12.442
22016SOL    HW167945   1.807  12.411  12.361
22016SOL    HW267946   1.696  12.387  12.462
22017SOL     OW67947   3.418  14.786   1.643
22017SOL    HW167948   3.512  14.782   1.624
22017SOL    HW267949   3.404  14.877   1.671
22018SOL     OW67950   0.845   0.325   6.179
22018SOL    HW167951   0.867   0.326   6.273
22018SOL    HW267952   0.750   0.322   6.177
22019SOL     OW67953   8.384  13.495   7.024
22019SOL    HW167954   8.405  13.411   6.984
22019SOL    HW267955   8.292  13.509   7.005
22020SOL     OW67956   4.146  12.863   9.702
22020SOL    HW167957   4.055  12.887   9.717
22020SOL    HW267958   4.164  12.890   9.612
22021SOL     OW67959  10.558   3.197   4.348
22021SOL    HW167960  10.512   3.272   4.386
22021SOL    HW267961  10.491   3.130   4.337
22022SOL     OW67962  11.641  13.112  10.818
22022SOL    HW167963  11.690  13.059  10.880
22022SOL    HW267964  11.644  13.062  10.736
22023SOL     OW67965   8.279  14.721   8.520
22023SOL    HW167966   8.350  14.777   8.488
22023SOL    HW267967   8.285  14.642   8.466
22024SOL     OW67968   3.270  14.345   5.201
22024SOL    HW167969   3.337  14.351   5.134
22024SOL    HW267970   3.205  14.410   5.177
22025SOL     OW67971  10.968  12.785   8.297
22025SOL    HW167972  11.063  12.786   8.306
22025SOL    HW267973  10.952  12.807   8.205
22026SOL     OW67974   3.967  12.513  13.217
22026SOL    HW167975   3.970  12.456  13.140
22026SOL    HW267976   3.914  12.465  13.280
22027SOL     OW67977   3.751   8.511   9.689
22027SOL    HW167978   3.728   8.433   9.639
22027SOL    HW267979   3.729   8.584   9.630
22028SOL     OW67980  10.477   2.761   9.791
22028SOL    HW167981  10.514   2.808   9.717
22028SOL    HW267982  10.390   2.800   9.803
22029SOL     OW67983   4.957   1.402  13.644
22029SOL    HW167984   4.952   1.345  13.721
22029SOL    HW267985   5.020   1.470  13.670
22030SOL     OW67986   7.086  10.293  13.456
22030SOL    HW167987   7.059  10.305  13.365
22030SOL    HW267988   7.158  10.231  13.451
22031SOL     OW67989   3.827   7.710   9.083
22031SOL    HW167990   3.822   7.617   9.060
22031SOL    HW267991   3.915   7.721   9.119
22032SOL     OW67992   4.927   9.860   6.754
22032SOL    HW167993   4.999   9.796   6.753
22032SOL    HW267994   4.854   9.815   6.713
22033SOL     OW67995   7.938   7.440  10.624
22033SOL    HW167996   7.934   7.447  10.529
22033SOL    HW267997   7.984   7.358  10.640
22034SOL     OW67998  13.864   5.486  14.111
22034SOL    HW167999  13.830   5.402  14.142
22034SOL    HW268000  13.886   5.471  14.020
22035SOL     OW68001  10.732   7.532   4.935
22035SOL    HW168002  10.801   7.541   4.870
22035SOL    HW268003  10.651   7.532   4.884
22036SOL     OW68004   6.117   2.234  14.361
22036SOL    HW168005   6.130   2.328  14.374
22036SOL    HW268006   6.199   2.204  14.320
22037SOL     OW68007   8.423   9.374  13.428
22037SOL    HW168008   8.435   9.357  13.335
22037SOL    HW268009   8.475   9.453  13.445
22038SOL     OW68010  10.400   5.875   1.619
22038SOL    HW168011  10.396   5.865   1.524
22038SOL    HW268012  10.358   5.959   1.636
22039SOL     OW68013   4.636   0.836  14.865
22039SOL    HW168014   4.595   0.750  14.865
22039SOL    HW268015   4.590   0.885   0.046
22040SOL     OW68016   6.001   9.837   4.836
22040SOL    HW168017   5.954   9.847   4.918
22040SOL    HW268018   5.935   9.852   4.768
22041SOL     OW68019   8.512  11.897  14.238
22041SOL    HW168020   8.459  11.820  14.258
22041SOL    HW268021   8.464  11.942  14.169
22042SOL     OW68022   2.133  13.029   0.581
22042SOL    HW168023   2.226  13.013   0.566
22042SOL    HW268024   2.101  13.066   0.499
22043SOL     OW68025  10.121   4.515   5.698
22043SOL    HW168026  10.032   4.542   5.722
22043SOL    HW268027  10.176   4.589   5.726
22044SOL     OW68028   6.043   3.928   9.913
22044SOL    HW168029   6.065   3.872   9.840
22044SOL    HW268030   6.116   3.990   9.919
22045SOL     OW68031   7.933   4.821  10.710
22045SOL    HW168032   7.964   4.750  10.766
22045SOL    HW268033   7.931   4.784  10.622
22046SOL     OW68034   6.843   0.919   4.948
22046SOL    HW168035   6.779   0.861   4.988
22046SOL    HW268036   6.857   0.988   5.013
22047SOL     OW68037   7.570  11.277   5.315
22047SOL    HW168038   7.605  11.235   5.237
22047SOL    HW268039   7.611  11.229   5.388
22048SOL     OW68040   2.761   0.551   4.441
22048SOL    HW168041   2.765   0.646   4.454
22048SOL    HW268042   2.685   0.539   4.383
22049SOL     OW68043   9.775   2.998   1.556
22049SOL    HW168044   9.802   2.912   1.526
22049SOL    HW268045   9.679   2.997   1.548
22050SOL     OW68046  14.786   5.601   8.150
22050SOL    HW168047  14.846   5.672   8.175
22050SOL    HW268048  14.719   5.644   8.096
22051SOL     OW68049  10.578   1.792   9.257
22051SOL    HW168050  10.666   1.822   9.281
22051SOL    HW268051  10.532   1.783   9.340
22052SOL     OW68052   4.577   7.069  12.747
22052SOL    HW168053   4.671   7.078  12.727
22052SOL    HW268054   4.553   7.153  12.787
22053SOL     OW68055   7.710   0.377   2.895
22053SOL    HW168056   7.782   0.439   2.884
22053SOL    HW268057   7.690   0.348   2.806
22054SOL     OW68058   6.907  10.660   8.120
22054SOL    HW168059   7.001  10.647   8.111
22054SOL    HW268060   6.891  10.749   8.089
22055SOL     OW68061   0.010   5.822  13.237
22055SOL    HW168062  14.850   5.847  13.317
22055SOL    HW268063   0.034   5.905  13.196
22056SOL     OW68064  12.171  14.886   9.889
22056SOL    HW168065  12.127   0.001   9.804
22056SOL    HW268066  12.234   0.071   9.886
22057SOL     OW68067   5.278   2.254   2.612
22057SOL    HW168068   5.273   2.159   2.601
22057SOL    HW268069   5.199   2.288   2.569
22058SOL     OW68070   0.042   2.816   4.265
22058SOL    HW168071   0.003   2.790   4.349
22058SOL    HW268072  14.877   2.770   4.199
22059SOL     OW68073   5.670   1.772   4.912
22059SOL    HW168074   5.681   1.826   4.991
22059SOL    HW268075   5.603   1.708   4.937
22060SOL     OW68076   4.046   5.959  11.622
22060SOL    HW168077   4.000   6.024  11.676
22060SOL    HW268078   3.976   5.904  11.586
22061SOL     OW68079   4.413  14.540  10.802
22061SOL    HW168080   4.407  14.506  10.712
22061SOL    HW268081   4.450  14.467  10.852
22062SOL     OW68082  13.008   0.759   0.477
22062SOL    HW168083  13.103   0.753   0.481
22062SOL    HW268084  12.987   0.829   0.540
22063SOL     OW68085  13.084   6.559   1.525
22063SOL    HW168086  13.174   6.536   1.501
22063SOL    HW268087  13.063   6.499   1.597
22064SOL     OW68088   0.866  10.965   1.033
22064SOL    HW168089   0.858  11.034   0.967
22064SOL    HW268090   0.888  11.011   1.113
22065SOL     OW68091  11.417  13.988  13.006
22065SOL    HW168092  11.429  13.967  12.913
22065SOL    HW268093  11.425  13.903  13.050
22066SOL     OW68094   3.144   9.036   0.976
22066SOL    HW168095   3.203   9.095   1.022
22066SOL    HW268096   3.089   8.998   1.045
22067SOL     OW68097  13.605  12.681  12.288
22067SOL    HW168098  13.547  12.641  12.353
22067SOL    HW268099  13.583  12.774  12.292
22068SOL     OW68100  11.864  14.057   0.939
22068SOL    HW168101  11.850  14.065   0.844
22068SOL    HW268102  11.931  14.123   0.959
22069SOL     OW68103   3.171  12.031   3.435
22069SOL    HW168104   3.112  12.106   3.435
22069SOL    HW268105   3.182  12.010   3.342
22070SOL     OW68106   8.668  11.482   3.638
22070SOL    HW168107   8.715  11.555   3.681
22070SOL    HW268108   8.578  11.491   3.669
22071SOL     OW68109  14.007   0.391   8.336
22071SOL    HW168110  13.927   0.371   8.383
22071SOL    HW268111  14.077   0.367   8.396
22072SOL     OW68112   2.491   8.299   7.046
22072SOL    HW168113   2.464   8.228   6.987
22072SOL    HW268114   2.570   8.267   7.089
22073SOL     OW68115   4.448   7.467   3.534
22073SOL    HW168116   4.429   7.379   3.567
22073SOL    HW268117   4.362   7.505   3.517
22074SOL     OW68118   8.199   0.406   5.744
22074SOL    HW168119   8.254   0.447   5.811
22074SOL    HW268120   8.235   0.437   5.661
22075SOL     OW68121   3.358   9.114   3.487
22075SOL    HW168122   3.342   9.092   3.395
22075SOL    HW268123   3.271   9.113   3.527
22076SOL     OW68124  12.542   9.215   1.617
22076SOL    HW168125  12.519   9.162   1.540
22076SOL    HW268126  12.511   9.303   1.595
22077SOL     OW68127   7.374   0.330   3.640
22077SOL    HW168128   7.393   0.239   3.615
22077SOL    HW268129   7.289   0.326   3.683
22078SOL     OW68130   4.102  11.207   9.518
22078SOL    HW168131   4.179  11.162   9.485
22078SOL    HW268132   4.043  11.212   9.443
22079SOL     OW68133   3.785   9.300   7.869
22079SOL    HW168134   3.809   9.217   7.909
22079SOL    HW268135   3.761   9.277   7.779
22080SOL     OW68136   4.819   3.381  11.412
22080SOL    HW168137   4.758   3.315  11.380
22080SOL    HW268138   4.854   3.422  11.333
22081SOL     OW68139   0.495   5.459   2.477
22081SOL    HW168140   0.428   5.506   2.527
22081SOL    HW268141   0.457   5.446   2.390
22082SOL     OW68142   4.490   7.392   8.739
22082SOL    HW168143   4.512   7.315   8.687
22082SOL    HW268144   4.574   7.421   8.775
22083SOL     OW68145  11.299   4.113   0.485
22083SOL    HW168146  11.234   4.048   0.511
22083SOL    HW268147  11.314   4.096   0.392
22084SOL     OW68148  10.802   8.604   2.867
22084SOL    HW168149  10.772   8.547   2.796
22084SOL    HW268150  10.863   8.664   2.825
22085SOL     OW68151  13.255   1.438   6.263
22085SOL    HW168152  13.333   1.458   6.210
22085SOL    HW268153  13.216   1.524   6.282
22086SOL     OW68154   1.237  11.494  13.064
22086SOL    HW168155   1.304  11.473  13.000
22086SOL    HW268156   1.177  11.419  13.061
22087SOL     OW68157   6.824   9.651  14.484
22087SOL    HW168158   6.749   9.654  14.544
22087SOL    HW268159   6.785   9.658  14.397
22088SOL     OW68160   0.670  12.412   6.298
22088SOL    HW168161   0.638  12.342   6.355
22088SOL    HW268162   0.599  12.427   6.235
22089SOL     OW68163   6.791   6.296   9.190
22089SOL    HW168164   6.759   6.382   9.163
22089SOL    HW268165   6.713   6.242   9.197
22090SOL     OW68166  13.094   5.462   1.662
22090SOL    HW168167  13.169   5.475   1.603
22090SOL    HW268168  13.132   5.453   1.749
22091SOL     OW68169  14.164  10.662   3.620
22091SOL    HW168170  14.149  10.649   3.527
22091SOL    HW268171  14.076  10.667   3.658
22092SOL     OW68172  12.548   0.423  14.737
22092SOL    HW168173  12.563   0.455  14.648
22092SOL    HW268174  12.528   0.501  14.788
22093SOL     OW68175  13.774  12.301   2.342
22093SOL    HW168176  13.842  12.251   2.388
22093SOL    HW268177  13.699  12.242   2.338
22094SOL     OW68178  12.932   1.565   6.229
22094SOL    HW168179  12.854   1.621   6.228
22094SOL    HW268180  12.916   1.500   6.161
22095SOL     OW68181  11.491   0.067  13.406
22095SOL    HW168182  11.395   0.065  13.408
22095SOL    HW268183  11.517  14.887  13.468
22096SOL     OW68184   5.880   3.369  10.174
22096SOL    HW168185   5.903   3.279  10.151
22096SOL    HW268186   5.878   3.415  10.089
22097SOL     OW68187  10.987   0.250   6.755
22097SOL    HW168188  10.953   0.285   6.672
22097SOL    HW268189  10.940   0.299   6.823
22098SOL     OW68190   4.749  11.310   4.407
22098SOL    HW168191   4.796  11.245   4.354
22098SOL    HW268192   4.746  11.272   4.494
22099SOL     OW68193  13.297  14.032   8.251
22099SOL    HW168194  13.303  14.095   8.323
22099SOL    HW268195  13.389  14.012   8.230
22100SOL     OW68196   4.874  10.903   5.425
22100SOL    HW168197   4.968  10.893   5.411
22100SOL    HW268198   4.851  10.982   5.375
22101SOL     OW68199   1.561  12.221   1.665
22101SOL    HW168200   1.573  12.278   1.741
22101SOL    HW268201   1.638  12.164   1.665
22102SOL     OW68202   6.217  14.359   3.480
22102SOL    HW168203   6.226  14.327   3.569
22102SOL    HW268204   6.274  14.303   3.428
22103SOL     OW68205   3.258   3.075   9.337
22103SOL    HW168206   3.262   3.142   9.269
22103SOL    HW268207   3.338   3.024   9.325
22104SOL     OW68208   1.955  14.846  13.425
22104SOL    HW168209   1.982   0.045  13.455
22104SOL    HW268210   1.868  14.860  13.386
22105SOL     OW68211  12.855   9.156   9.295
22105SOL    HW168212  12.936   9.205   9.307
22105SOL    HW268213  12.883   9.070   9.262
22106SOL     OW68214   6.563  13.662  14.181
22106SOL    HW168215   6.653  13.629  14.186
22106SOL    HW268216   6.514  13.607  14.242
22107SOL     OW68217  10.894   3.799   2.284
22107SOL    HW168218  10.867   3.711   2.310
22107SOL    HW268219  10.843   3.816   2.204
22108SOL     OW68220   7.118   0.386   0.922
22108SOL    HW168221   7.045   0.387   0.984
22108SOL    HW268222   7.141   0.293   0.914
22109SOL     OW68223   4.655   3.274   2.513
22109SOL    HW168224   4.693   3.288   2.426
22109SOL    HW268225   4.608   3.191   2.505
22110SOL     OW68226   5.170   0.952   1.411
22110SOL    HW168227   5.205   1.038   1.388
22110SOL    HW268228   5.094   0.941   1.354
22111SOL     OW68229  10.993   9.789   9.774
22111SOL    HW168230  11.047   9.734   9.717
22111SOL    HW268231  11.028   9.774   9.862
22112SOL     OW68232   2.496   2.337  11.753
22112SOL    HW168233   2.586   2.308  11.743
22112SOL    HW268234   2.445   2.274  11.702
22113SOL     OW68235   5.731   9.821   3.273
22113SOL    HW168236   5.716   9.870   3.354
22113SOL    HW268237   5.648   9.777   3.256
22114SOL     OW68238   8.326  11.791   8.203
22114SOL    HW168239   8.231  11.780   8.209
22114SOL    HW268240   8.362  11.718   8.252
22115SOL     OW68241  10.705  12.292  14.344
22115SOL    HW168242  10.650  12.217  14.368
22115SOL    HW268243  10.790  12.254  14.323
22116SOL     OW68244   7.440   2.790   5.662
22116SOL    HW168245   7.505   2.789   5.733
22116SOL    HW268246   7.356   2.781   5.707
22117SOL     OW68247  14.499  11.029   1.774
22117SOL    HW168248  14.557  11.001   1.704
22117SOL    HW268249  14.488  11.123   1.761
22118SOL     OW68250   2.550   7.728  10.908
22118SOL    HW168251   2.618   7.766  10.853
22118SOL    HW268252   2.582   7.739  10.997
22119SOL     OW68253  10.808  13.746  11.175
22119SOL    HW168254  10.807  13.810  11.104
22119SOL    HW268255  10.718  13.715  11.182
22120SOL     OW68256   5.862   9.000   2.268
22120SOL    HW168257   5.886   9.014   2.360
22120SOL    HW268258   5.893   9.078   2.223
22121SOL     OW68259  13.285   3.926   8.178
22121SOL    HW168260  13.318   3.978   8.251
22121SOL    HW268261  13.191   3.920   8.193
22122SOL     OW68262   4.056  10.626   7.997
22122SOL    HW168263   4.081  10.606   7.907
22122SOL    HW268264   4.134  10.607   8.048
22123SOL     OW68265   8.713   2.971  10.096
22123SOL    HW168266   8.721   2.944  10.188
22123SOL    HW268267   8.691   3.064  10.101
22124SOL     OW68268  10.640   1.504   0.722
22124SOL    HW168269  10.623   1.410   0.729
22124SOL    HW268270  10.559   1.540   0.686
22125SOL     OW68271   4.206   1.348  13.162
22125SOL    HW168272   4.274   1.410  13.191
22125SOL    HW268273   4.177   1.306  13.243
22126SOL     OW68274   7.849   2.243  13.573
22126SOL    HW168275   7.882   2.262  13.486
22126SOL    HW268276   7.911   2.178  13.608
22127SOL     OW68277  11.767   4.393   9.607
22127SOL    HW168278  11.793   4.353   9.690
22127SOL    HW268279  11.681   4.355   9.588
22128SOL     OW68280  13.620   2.667   7.819
22128SOL    HW168281  13.530   2.696   7.831
22128SOL    HW268282  13.622   2.578   7.853
22129SOL     OW68283   4.229   3.065   4.263
22129SOL    HW168284   4.161   3.126   4.235
22129SOL    HW268285   4.266   3.030   4.181
22130SOL     OW68286  11.283   7.584   8.027
22130SOL    HW168287  11.298   7.544   8.112
22130SOL    HW268288  11.213   7.532   7.987
22131SOL     OW68289  12.583   2.540   0.265
22131SOL    HW168290  12.650   2.608   0.259
22131SOL    HW268291  12.533   2.562   0.343
22132SOL     OW68292  11.795   9.457  11.898
22132SOL    HW168293  11.790   9.392  11.968
22132SOL    HW268294  11.726   9.431  11.837
22133SOL     OW68295   7.082   6.670   0.031
22133SOL    HW168296   7.150   6.603   0.022
22133SOL    HW268297   7.065   6.674   0.126
22134SOL     OW68298   3.784  10.584   1.371
22134SOL    HW168299   3.864  10.583   1.422
22134SOL    HW268300   3.724  10.640   1.420
22135SOL     OW68301  12.378   9.124   2.775
22135SOL    HW168302  12.395   9.065   2.848
22135SOL    HW268303  12.319   9.074   2.718
22136SOL     OW68304  10.021  10.071  10.750
22136SOL    HW168305  10.026  10.155  10.704
22136SOL    HW268306  10.045  10.006  10.684
22137SOL     OW68307   4.187  14.175   3.563
22137SOL    HW168308   4.271  14.220   3.561
22137SOL    HW268309   4.132  14.223   3.502
22138SOL     OW68310   6.184   7.491  12.538
22138SOL    HW168311   6.259   7.528  12.492
22138SOL    HW268312   6.200   7.397  12.539
22139SOL     OW68313   2.157   0.998   3.931
22139SOL    HW168314   2.065   1.026   3.927
22139SOL    HW268315   2.156   0.921   3.988
22140SOL     OW68316   0.853   7.663   2.122
22140SOL    HW168317   0.762   7.654   2.096
22140SOL    HW268318   0.862   7.756   2.143
22141SOL     OW68319   8.377  11.533  14.127
22141SOL    HW168320   8.408  11.558  14.040
22141SOL    HW268321   8.283  11.549  14.124
22142SOL     OW68322  14.500   4.740  13.778
22142SOL    HW168323  14.450   4.659  13.777
22142SOL    HW268324  14.457   4.795  13.843
22143SOL     OW68325   8.586   6.821   9.732
22143SOL    HW168326   8.491   6.811   9.726
22143SOL    HW268327   8.602   6.845   9.823
22144SOL     OW68328  10.853   1.188   6.215
22144SOL    HW168329  10.868   1.116   6.275
22144SOL    HW268330  10.941   1.212   6.183
22145SOL     OW68331   6.000   5.043   0.679
22145SOL    HW168332   6.047   5.000   0.750
22145SOL    HW268333   5.929   4.983   0.656
22146SOL     OW68334   9.726   5.351   2.936
22146SOL    HW168335   9.775   5.273   2.910
22146SOL    HW268336   9.677   5.324   3.013
22147SOL     OW68337  13.514   6.229   0.198
22147SOL    HW168338  13.473   6.230   0.112
22147SOL    HW268339  13.584   6.165   0.191
22148SOL     OW68340  11.866  14.820   8.692
22148SOL    HW168341  11.866   0.025   8.718
22148SOL    HW268342  11.864  14.822   8.596
22149SOL     OW68343  11.406  11.403  11.578
22149SOL    HW168344  11.391  11.498  11.578
22149SOL    HW268345  11.473  11.390  11.511
22150SOL     OW68346   5.732   8.080  11.675
22150SOL    HW168347   5.806   8.073  11.615
22150SOL    HW268348   5.754   8.155  11.731
22151SOL     OW68349   4.007   4.026   5.089
22151SOL    HW168350   3.988   3.939   5.053
22151SOL    HW268351   4.058   4.070   5.021
22152SOL     OW68352  11.716   4.201  12.766
22152SOL    HW168353  11.728   4.293  12.789
22152SOL    HW268354  11.797   4.177  12.721
22153SOL     OW68355   2.285   6.723   8.198
22153SOL    HW168356   2.310   6.651   8.141
22153SOL    HW268357   2.189   6.729   8.189
22154SOL     OW68358   0.873   5.288  14.698
22154SOL    HW168359   0.964   5.319  14.693
22154SOL    HW268360   0.822   5.368  14.712
22155SOL     OW68361   9.209   6.649   7.510
22155SOL    HW168362   9.192   6.707   7.436
22155SOL    HW268363   9.296   6.674   7.541
22156SOL     OW68364  10.266   3.951  11.048
22156SOL    HW168365  10.266   4.040  11.083
22156SOL    HW268366  10.358   3.926  11.047
22157SOL     OW68367   5.276  11.070  10.601
22157SOL    HW168368   5.362  11.079  10.641
22157SOL    HW268369   5.215  11.106  10.666
22158SOL     OW68370   7.089   4.355  14.581
22158SOL    HW168371   7.052   4.268  14.568
22158SOL    HW268372   7.030   4.414  14.534
22159SOL     OW68373   0.037  12.215   4.993
22159SOL    HW168374   0.108  12.202   5.056
22159SOL    HW268375  14.886  12.128   4.982
22160SOL     OW68376   5.219  14.732   9.324
22160SOL    HW168377   5.196  14.741   9.232
22160SOL    HW268378   5.308  14.697   9.324
22161SOL     OW68379  10.687   3.679  14.316
22161SOL    HW168380  10.754   3.737  14.353
22161SOL    HW268381  10.672   3.713  14.228
22162SOL     OW68382   1.003  13.183  13.259
22162SOL    HW168383   1.066  13.131  13.210
22162SOL    HW268384   1.056  13.249  13.305
22163SOL     OW68385   8.000  14.770  10.964
22163SOL    HW168386   7.955  14.690  10.937
22163SOL    HW268387   8.025  14.813  10.882
22164SOL     OW68388   1.920   1.271  10.542
22164SOL    HW168389   1.849   1.333  10.526
22164SOL    HW268390   1.939   1.279  10.635
22165SOL     OW68391   6.584   7.114   4.199
22165SOL    HW168392   6.550   7.134   4.286
22165SOL    HW268393   6.609   7.199   4.162
22166SOL     OW68394   4.760   9.368   5.803
22166SOL    HW168395   4.701   9.341   5.873
22166SOL    HW268396   4.841   9.392   5.847
22167SOL     OW68397   7.230  11.395   6.136
22167SOL    HW168398   7.200  11.455   6.204
22167SOL    HW268399   7.254  11.452   6.063
22168SOL     OW68400   8.228  12.386   2.804
22168SOL    HW168401   8.250  12.359   2.715
22168SOL    HW268402   8.310  12.418   2.841
22169SOL     OW68403  13.563  12.133   3.845
22169SOL    HW168404  13.544  12.045   3.812
22169SOL    HW268405  13.556  12.189   3.767
22170SOL     OW68406   9.690  13.660  12.820
22170SOL    HW168407   9.701  13.615  12.736
22170SOL    HW268408   9.618  13.614  12.863
22171SOL     OW68409   8.386   3.682  10.471
22171SOL    HW168410   8.348   3.595  10.459
22171SOL    HW268411   8.318   3.732  10.517
22172SOL     OW68412  12.790   9.898   4.892
22172SOL    HW168413  12.758   9.938   4.811
22172SOL    HW268414  12.884   9.887   4.878
22173SOL     OW68415   2.916   7.743   5.306
22173SOL    HW168416   2.896   7.665   5.358
22173SOL    HW268417   3.011   7.744   5.299
22174SOL     OW68418   0.141   1.679   2.198
22174SOL    HW168419   0.161   1.732   2.275
22174SOL    HW268420   0.171   1.732   2.124
22175SOL     OW68421   3.714  14.775   2.232
22175SOL    HW168422   3.676  14.687   2.231
22175SOL    HW268423   3.723  14.798   2.139
22176SOL     OW68424   6.470   4.471  14.349
22176SOL    HW168425   6.464   4.379  14.376
22176SOL    HW268426   6.475   4.467  14.253
22177SOL     OW68427  13.905   3.801   6.788
22177SOL    HW168428  13.870   3.857   6.718
22177SOL    HW268429  13.992   3.777   6.758
22178SOL     OW68430   2.252   2.523   4.561
22178SOL    HW168431   2.276   2.437   4.597
22178SOL    HW268432   2.307   2.533   4.483
22179SOL     OW68433   9.681  11.030   7.176
22179SOL    HW168434   9.770  11.051   7.203
22179SOL    HW268435   9.651  10.964   7.239
22180SOL     OW68436   9.674   1.643  12.658
22180SOL    HW168437   9.638   1.710  12.716
22180SOL    HW268438   9.649   1.671  12.571
22181SOL     OW68439   7.803   3.166  12.289
22181SOL    HW168440   7.738   3.106  12.253
22181SOL    HW268441   7.887   3.122  12.273
22182SOL     OW68442   9.540   4.773  13.315
22182SOL    HW168443   9.528   4.845  13.254
22182SOL    HW268444   9.454   4.731  13.320
22183SOL     OW68445   1.614  12.027   5.215
22183SOL    HW168446   1.698  12.066   5.240
22183SOL    HW268447   1.549  12.073   5.268
22184SOL     OW68448   3.070   4.869   3.353
22184SOL    HW168449   3.021   4.938   3.309
22184SOL    HW268450   3.020   4.852   3.434
22185SOL     OW68451   0.183   5.928   9.106
22185SOL    HW168452   0.099   5.958   9.139
22185SOL    HW268453   0.230   6.008   9.082
22186SOL     OW68454   2.586  13.425   8.257
22186SOL    HW168455   2.678  13.445   8.238
22186SOL    HW268456   2.570  13.464   8.343
22187SOL     OW68457   8.196   3.410  13.500
22187SOL    HW168458   8.149   3.346  13.447
22187SOL    HW268459   8.155   3.405  13.586
22188SOL     OW68460  10.796   5.614  11.592
22188SOL    HW168461  10.763   5.680  11.652
22188SOL    HW268462  10.889   5.634  11.583
22189SOL     OW68463  13.769   4.922   4.944
22189SOL    HW168464  13.842   4.950   4.999
22189SOL    HW268465  13.748   4.834   4.976
22190SOL     OW68466   9.384   3.597   4.083
22190SOL    HW168467   9.475   3.569   4.090
22190SOL    HW268468   9.377   3.672   4.142
22191SOL     OW68469  10.974   7.120  10.979
22191SOL    HW168470  10.941   7.063  11.048
22191SOL    HW268471  10.928   7.093  10.900
22192SOL     OW68472  13.497   5.282   9.743
22192SOL    HW168473  13.409   5.303   9.773
22192SOL    HW268474  13.513   5.342   9.670
22193SOL     OW68475   3.288   1.180   2.406
22193SOL    HW168476   3.238   1.106   2.438
22193SOL    HW268477   3.369   1.142   2.371
22194SOL     OW68478   8.607   6.263   3.240
22194SOL    HW168479   8.531   6.269   3.182
22194SOL    HW268480   8.612   6.349   3.282
22195SOL     OW68481   7.025   3.438   2.357
22195SOL    HW168482   7.024   3.402   2.445
22195SOL    HW268483   7.118   3.442   2.334
22196SOL     OW68484   9.755   2.215  14.044
22196SOL    HW168485   9.842   2.242  14.072
22196SOL    HW268486   9.722   2.289  13.993
22197SOL     OW68487   9.370   9.610   2.326
22197SOL    HW168488   9.341   9.621   2.416
22197SOL    HW268489   9.318   9.673   2.276
22198SOL     OW68490  11.067   9.246   7.367
22198SOL    HW168491  11.051   9.267   7.459
22198SOL    HW268492  11.088   9.153   7.366
22199SOL     OW68493   0.171   7.481   3.148
22199SOL    HW168494   0.257   7.495   3.107
22199SOL    HW268495   0.188   7.486   3.242
22200SOL     OW68496  11.022   5.174   6.786
22200SOL    HW168497  11.099   5.218   6.752
22200SOL    HW268498  11.037   5.081   6.767
22201SOL     OW68499   9.876   3.801   7.434
22201SOL    HW168500   9.922   3.876   7.473
22201SOL    HW268501   9.915   3.791   7.347
22202SOL     OW68502  13.526  11.448   2.233
22202SOL    HW168503  13.530  11.494   2.149
22202SOL    HW268504  13.614  11.413   2.246
22203SOL     OW68505  10.393  12.225   6.065
22203SOL    HW168506  10.468  12.171   6.037
22203SOL    HW268507  10.354  12.175   6.136
22204SOL     OW68508   8.440   4.724   8.168
22204SOL    HW168509   8.517   4.711   8.224
22204SOL    HW268510   8.449   4.814   8.136
22205SOL     OW68511   3.240   0.170   1.391
22205SOL    HW168512   3.328   0.145   1.362
22205SOL    HW268513   3.213   0.237   1.328
22206SOL     OW68514   7.092  10.258  14.519
22206SOL    HW168515   7.025  10.324  14.499
22206SOL    HW268516   7.043  10.185  14.556
22207SOL     OW68517   5.468   8.526  11.536
22207SOL    HW168518   5.521   8.449  11.556
22207SOL    HW268519   5.378   8.495  11.541
22208SOL     OW68520   7.467   0.745   3.353
22208SOL    HW168521   7.396   0.763   3.292
22208SOL    HW268522   7.451   0.655   3.383
22209SOL     OW68523  11.472   4.690   3.621
22209SOL    HW168524  11.467   4.625   3.692
22209SOL    HW268525  11.563   4.685   3.590
22210SOL     OW68526   1.338  12.564  14.656
22210SOL    HW168527   1.408  12.500  14.669
22210SOL    HW268528   1.332  12.610  14.740
22211SOL     OW68529   5.576  13.625   7.367
22211SOL    HW168530   5.616  13.548   7.327
22211SOL    HW268531   5.649  13.668   7.413
22212SOL     OW68532  13.276   0.981   6.952
22212SOL    HW168533  13.354   0.983   6.896
22212SOL    HW268534  13.243   0.892   6.943
22213SOL     OW68535  11.970  13.532   4.889
22213SOL    HW168536  12.035  13.463   4.907
22213SOL    HW268537  12.022  13.611   4.875
22214SOL     OW68538   9.699  14.068   5.849
22214SOL    HW168539   9.747  14.141   5.810
22214SOL    HW268540   9.623  14.056   5.792
22215SOL     OW68541   5.300   7.826   9.068
22215SOL    HW168542   5.365   7.856   9.133
22215SOL    HW268543   5.225   7.884   9.081
22216SOL     OW68544   3.884   2.345   2.938
22216SOL    HW168545   3.860   2.253   2.924
22216SOL    HW268546   3.845   2.367   3.022
22217SOL     OW68547  12.540   2.106  10.180
22217SOL    HW168548  12.492   2.173  10.229
22217SOL    HW268549  12.601   2.068  10.244
22218SOL     OW68550  13.409   1.075   9.287
22218SOL    HW168551  13.422   1.031   9.203
22218SOL    HW268552  13.396   1.167   9.264
22219SOL     OW68553  13.851   4.872  10.468
22219SOL    HW168554  13.895   4.829  10.542
22219SOL    HW268555  13.899   4.842  10.391
22220SOL     OW68556   6.070   4.679  12.880
22220SOL    HW168557   6.094   4.765  12.845
22220SOL    HW268558   6.106   4.617  12.816
22221SOL     OW68559   8.465   2.853   6.389
22221SOL    HW168560   8.400   2.786   6.411
22221SOL    HW268561   8.419   2.936   6.399
22222SOL     OW68562  11.110   0.564   2.264
22222SOL    HW168563  11.052   0.606   2.328
22222SOL    HW268564  11.057   0.494   2.227
22223SOL     OW68565  10.249   0.155  11.629
22223SOL    HW168566  10.243   0.241  11.588
22223SOL    HW268567  10.168   0.110  11.602
22224SOL     OW68568   3.715   9.673   8.743
22224SOL    HW168569   3.764   9.593   8.760
22224SOL    HW268570   3.778   9.731   8.701
22225SOL     OW68571   3.458   9.288  12.034
22225SOL    HW168572   3.439   9.302  12.127
22225SOL    HW268573   3.395   9.222  12.006
22226SOL     OW68574   5.545  12.603   2.600
22226SOL    HW168575   5.540  12.570   2.689
22226SOL    HW268576   5.524  12.527   2.545
22227SOL     OW68577   5.308   0.115   6.699
22227SOL    HW168578   5.336   0.051   6.633
22227SOL    HW268579   5.238   0.071   6.747
22228SOL     OW68580   3.926  14.450  12.380
22228SOL    HW168581   3.950  14.427  12.469
22228SOL    HW268582   4.008  14.477  12.339
22229SOL     OW68583   6.252  12.591   3.208
22229SOL    HW168584   6.333  12.635   3.181
22229SOL    HW268585   6.226  12.638   3.288
22230SOL     OW68586   7.482   3.166   0.310
22230SOL    HW168587   7.436   3.191   0.390
22230SOL    HW268588   7.509   3.076   0.325
22231SOL     OW68589  10.471  11.196   9.342
22231SOL    HW168590  10.414  11.257   9.389
22231SOL    HW268591  10.483  11.122   9.402
22232SOL     OW68592   5.315  12.463   7.933
22232SOL    HW168593   5.272  12.378   7.938
22232SOL    HW268594   5.406  12.443   7.912
22233SOL     OW68595   9.588   2.899  13.032
22233SOL    HW168596   9.553   2.877  12.946
22233SOL    HW268597   9.635   2.982  13.018
22234SOL     OW68598   5.006   5.027   1.564
22234SOL    HW168599   5.037   4.952   1.513
22234SOL    HW268600   5.085   5.073   1.591
22235SOL     OW68601   9.190   9.446   3.573
22235SOL    HW168602   9.141   9.501   3.635
22235SOL    HW268603   9.124   9.388   3.536
22236SOL     OW68604   0.770  12.227   0.077
22236SOL    HW168605   0.751  12.154   0.017
22236SOL    HW268606   0.696  12.227   0.138
22237SOL     OW68607   6.269  14.056  14.384
22237SOL    HW168608   6.236  14.045  14.295
22237SOL    HW268609   6.348  14.002  14.386
22238SOL     OW68610  12.690  11.178   4.379
22238SOL    HW168611  12.704  11.220   4.465
22238SOL    HW268612  12.628  11.236   4.334
22239SOL     OW68613   4.623   4.202   4.094
22239SOL    HW168614   4.593   4.163   4.176
22239SOL    HW268615   4.596   4.139   4.026
22240SOL     OW68616   6.374   5.111  14.135
22240SOL    HW168617   6.310   5.141  14.070
22240SOL    HW268618   6.439   5.181  14.139
22241SOL     OW68619   8.719   9.976   5.976
22241SOL    HW168620   8.634  10.021   5.975
22241SOL    HW268621   8.757  10.001   6.061
22242SOL     OW68622   2.847   0.118  12.629
22242SOL    HW168623   2.782   0.130  12.698
22242SOL    HW268624   2.927   0.159  12.663
22243SOL     OW68625  10.710   6.396  14.470
22243SOL    HW168626  10.768   6.327  14.441
22243SOL    HW268627  10.655   6.416  14.393
22244SOL     OW68628   6.908  14.160   6.046
22244SOL    HW168629   6.973  14.225   6.018
22244SOL    HW268630   6.824  14.206   6.040
22245SOL     OW68631  10.272   8.268   6.051
22245SOL    HW168632  10.235   8.227   6.128
22245SOL    HW268633  10.272   8.200   5.984
22246SOL     OW68634   3.264   6.948  13.087
22246SOL    HW168635   3.308   6.988  13.162
22246SOL    HW268636   3.294   6.999  13.012
22247SOL     OW68637  12.962  12.638   2.905
22247SOL    HW168638  12.953  12.733   2.906
22247SOL    HW268639  12.988  12.617   2.815
22248SOL     OW68640  13.874   0.481   4.383
22248SOL    HW168641  13.951   0.433   4.414
22248SOL    HW268642  13.841   0.429   4.310
22249SOL     OW68643  14.375   2.262  14.091
22249SOL    HW168644  14.375   2.355  14.115
22249SOL    HW268645  14.337   2.260  14.003
22250SOL     OW68646   0.782  11.774   8.048
22250SOL    HW168647   0.716  11.842   8.059
22250SOL    HW268648   0.777  11.751   7.955
22251SOL     OW68649  12.964   6.947   2.151
22251SOL    HW168650  13.019   6.872   2.128
22251SOL    HW268651  12.975   6.957   2.246
22252SOL     OW68652   4.740   5.261  13.223
22252SOL    HW168653   4.816   5.317  13.239
22252SOL    HW268654   4.776   5.173  13.218
22253SOL     OW68655   0.750   0.727   6.281
22253SOL    HW168656   0.752   0.821   6.265
22253SOL    HW268657   0.657   0.705   6.286
22254SOL     OW68658  12.152   4.862   9.062
22254SOL    HW168659  12.128   4.940   9.111
22254SOL    HW268660  12.160   4.891   8.971
22255SOL     OW68661   9.633   9.362   0.560
22255SOL    HW168662   9.600   9.433   0.616
22255SOL    HW268663   9.576   9.364   0.483
22256SOL     OW68664  14.795   1.473  12.156
22256SOL    HW168665  14.870   1.512  12.111
22256SOL    HW268666  14.797   1.512  12.244
22257SOL     OW68667  11.736   2.957  11.455
22257SOL    HW168668  11.663   2.939  11.515
22257SOL    HW268669  11.769   3.042  11.484
22258SOL     OW68670   0.903   9.168  13.023
22258SOL    HW168671   0.897   9.263  13.035
22258SOL    HW268672   0.913   9.155  12.929
22259SOL     OW68673   6.756  10.990  13.977
22259SOL    HW168674   6.772  11.038  13.895
22259SOL    HW268675   6.671  11.022  14.006
22260SOL     OW68676   0.255  10.785   8.508
22260SOL    HW168677   0.329  10.779   8.448
22260SOL    HW268678   0.184  10.820   8.454
22261SOL     OW68679  10.615   9.896  14.668
22261SOL    HW168680  10.637   9.898  14.575
22261SOL    HW268681  10.699   9.899  14.713
22262SOL     OW68682   4.040  13.635   2.232
22262SOL    HW168683   4.060  13.722   2.197
22262SOL    HW268684   4.044  13.646   2.327
22263SOL     OW68685   5.245   0.957   8.161
22263SOL    HW168686   5.179   0.995   8.103
22263SOL    HW268687   5.256   1.022   8.231
22264SOL     OW68688   4.711  12.964   4.168
22264SOL    HW168689   4.707  12.875   4.203
22264SOL    HW268690   4.724  12.952   4.074
22265SOL     OW68691  10.466  13.142   6.661
22265SOL    HW168692  10.415  13.188   6.595
22265SOL    HW268693  10.485  13.208   6.727
22266SOL     OW68694  14.198   2.668  12.523
22266SOL    HW168695  14.205   2.582  12.481
22266SOL    HW268696  14.123   2.708  12.481
22267SOL     OW68697  11.339   9.588   9.839
22267SOL    HW168698  11.260   9.535   9.852
22267SOL    HW268699  11.328   9.626   9.752
22268SOL     OW68700   1.247  13.969   1.077
22268SOL    HW168701   1.240  13.912   1.153
22268SOL    HW268702   1.263  13.910   1.004
22269SOL     OW68703   8.657   5.208  14.846
22269SOL    HW168704   8.601   5.131  14.848
22269SOL    HW268705   8.605   5.275  14.802
22270SOL     OW68706  13.216   7.423   7.146
22270SOL    HW168707  13.136   7.457   7.186
22270SOL    HW268708  13.212   7.329   7.162
22271SOL     OW68709   7.576   4.856  14.332
22271SOL    HW168710   7.503   4.796  14.347
22271SOL    HW268711   7.592   4.895  14.418
22272SOL     OW68712  10.436   3.674  11.689
22272SOL    HW168713  10.375   3.729  11.641
22272SOL    HW268714  10.513   3.668  11.632
22273SOL     OW68715  13.958  14.594  14.296
22273SOL    HW168716  13.865  14.613  14.310
22273SOL    HW268717  13.959  14.526  14.230
22274SOL     OW68718  10.164   6.309  13.176
22274SOL    HW168719  10.126   6.224  13.152
22274SOL    HW268720  10.123   6.371  13.117
22275SOL     OW68721   5.757  11.214  14.752
22275SOL    HW168722   5.706  11.287  14.787
22275SOL    HW268723   5.788  11.245  14.667
22276SOL     OW68724   6.041   3.826   2.239
22276SOL    HW168725   6.072   3.745   2.199
22276SOL    HW268726   5.955   3.841   2.199
22277SOL     OW68727   7.544   4.235   9.595
22277SOL    HW168728   7.523   4.319   9.554
22277SOL    HW268729   7.570   4.178   9.523
22278SOL     OW68730  14.481   3.631  12.316
22278SOL    HW168731  14.496   3.686  12.393
22278SOL    HW268732  14.559   3.576  12.310
22279SOL     OW68733   5.292   6.308  14.268
22279SOL    HW168734   5.216   6.335  14.319
22279SOL    HW268735   5.301   6.215  14.284
22280SOL     OW68736   5.074   3.378  11.775
22280SOL    HW168737   4.979   3.387  11.761
22280SOL    HW268738   5.102   3.316  11.707
22281SOL     OW68739  13.730  14.738  11.103
22281SOL    HW168740  13.640  14.761  11.124
22281SOL    HW268741  13.726  14.705  11.013
22282SOL     OW68742   1.558   0.742  13.863
22282SOL    HW168743   1.601   0.781  13.939
22282SOL    HW268744   1.466   0.768  13.871
22283SOL     OW68745  13.721  11.793  12.364
22283SOL    HW168746  13.640  11.747  12.342
22283SOL    HW268747  13.749  11.755  12.447
22284SOL     OW68748   4.947   5.994   2.689
22284SOL    HW168749   4.900   6.001   2.606
22284SOL    HW268750   4.879   5.986   2.755
22285SOL     OW68751   5.393   2.206   7.803
22285SOL    HW168752   5.439   2.290   7.797
22285SOL    HW268753   5.334   2.217   7.878
22286SOL     OW68754   0.378  10.015   6.369
22286SOL    HW168755   0.454  10.040   6.422
22286SOL    HW268756   0.393  10.055   6.284
22287SOL     OW68757   3.891   2.736  10.445
22287SOL    HW168758   3.914   2.672  10.378
22287SOL    HW268759   3.795   2.738  10.444
22288SOL     OW68760   5.840   1.469   9.772
22288SOL    HW168761   5.908   1.499   9.713
22288SOL    HW268762   5.884   1.407   9.831
22289SOL     OW68763  11.191  14.624   3.699
22289SOL    HW168764  11.180  14.637   3.605
22289SOL    HW268765  11.213  14.710   3.733
22290SOL     OW68766   0.084   9.124   7.389
22290SOL    HW168767   0.133   9.206   7.393
22290SOL    HW268768   0.088   9.089   7.478
22291SOL     OW68769   2.332   0.918   7.476
22291SOL    HW168770   2.305   1.001   7.516
22291SOL    HW268771   2.264   0.856   7.502
22292SOL     OW68772  10.296   7.570  10.705
22292SOL    HW168773  10.378   7.602  10.667
22292SOL    HW268774  10.245   7.540  10.630
22293SOL     OW68775  11.405  13.325  14.831
22293SOL    HW168776  11.371  13.254  14.776
22293SOL    HW268777  11.494  13.298  14.852
22294SOL     OW68778   4.747  12.340   9.832
22294SOL    HW168779   4.806  12.404   9.871
22294SOL    HW268780   4.687  12.392   9.778
22295SOL     OW68781  13.906   8.568   0.943
22295SOL    HW168782  13.932   8.477   0.929
22295SOL    HW268783  13.880   8.572   1.035
22296SOL     OW68784   9.923   0.845   9.446
22296SOL    HW168785   9.875   0.911   9.396
22296SOL    HW268786   9.981   0.804   9.381
22297SOL     OW68787  13.453   5.812   4.727
22297SOL    HW168788  13.439   5.718   4.723
22297SOL    HW268789  13.509   5.826   4.803
22298SOL     OW68790   4.658  10.756   4.044
22298SOL    HW168791   4.601  10.825   4.010
22298SOL    HW268792   4.598  10.685   4.067
22299SOL     OW68793  14.706  10.039   4.632
22299SOL    HW168794  14.800  10.041   4.652
22299SOL    HW268795  14.666  10.000   4.709
22300SOL     OW68796   4.940  12.867   5.069
22300SOL    HW168797   4.997  12.797   5.036
22300SOL    HW268798   4.925  12.923   4.992
22301SOL     OW68799  14.331   8.429   6.573
22301SOL    HW168800  14.243   8.468   6.569
22301SOL    HW268801  14.334   8.369   6.499
22302SOL     OW68802  10.083  11.144   6.683
22302SOL    HW168803  10.021  11.120   6.752
22302SOL    HW268804  10.103  11.061   6.640
22303SOL     OW68805   4.076  12.803   8.720
22303SOL    HW168806   4.036  12.810   8.807
22303SOL    HW268807   4.120  12.887   8.707
22304SOL     OW68808   7.242   3.346   4.075
22304SOL    HW168809   7.197   3.329   4.157
22304SOL    HW268810   7.215   3.273   4.018
22305SOL     OW68811   5.110  10.960   2.813
22305SOL    HW168812   5.043  10.948   2.881
22305SOL    HW268813   5.085  10.900   2.743
22306SOL     OW68814   8.998   6.824   3.182
22306SOL    HW168815   9.065   6.869   3.233
22306SOL    HW268816   8.917   6.836   3.232
22307SOL     OW68817  13.037  12.853   2.578
22307SOL    HW168818  12.943  12.867   2.588
22307SOL    HW268819  13.055  12.871   2.485
22308SOL     OW68820   3.989  13.360   3.448
22308SOL    HW168821   3.972  13.419   3.374
22308SOL    HW268822   3.922  13.381   3.512
22309SOL     OW68823   9.672  14.063  11.208
22309SOL    HW168824   9.675  14.015  11.125
22309SOL    HW268825   9.746  14.028  11.258
22310SOL     OW68826   9.259   1.092  10.872
22310SOL    HW168827   9.295   1.168  10.827
22310SOL    HW268828   9.276   1.019  10.814
22311SOL     OW68829  11.044   7.780  14.571
22311SOL    HW168830  11.051   7.874  14.558
22311SOL    HW268831  11.045   7.768  14.666
22312SOL     OW68832   0.932  10.781   2.422
22312SOL    HW168833   0.883  10.779   2.340
22312SOL    HW268834   0.866  10.771   2.490
22313SOL     OW68835  10.924   6.420   7.638
22313SOL    HW168836  10.906   6.357   7.709
22313SOL    HW268837  10.846   6.475   7.635
22314SOL     OW68838   8.220   7.176   5.271
22314SOL    HW168839   8.300   7.156   5.223
22314SOL    HW268840   8.167   7.227   5.209
22315SOL     OW68841  11.396   9.166   0.718
22315SOL    HW168842  11.386   9.254   0.681
22315SOL    HW268843  11.474   9.171   0.773
22316SOL     OW68844   7.728  14.859  11.942
22316SOL    HW168845   7.793   0.001  12.006
22316SOL    HW268846   7.747  14.766  11.930
22317SOL     OW68847   2.641  12.639  14.131
22317SOL    HW168848   2.608  12.725  14.104
22317SOL    HW268849   2.636  12.585  14.052
22318SOL     OW68850   0.740  12.284   4.415
22318SOL    HW168851   0.696  12.364   4.445
22318SOL    HW268852   0.747  12.295   4.320
22319SOL     OW68853   6.537  11.088   1.661
22319SOL    HW168854   6.546  11.143   1.739
22319SOL    HW268855   6.522  11.000   1.697
22320SOL     OW68856   6.795  10.983   8.077
22320SOL    HW168857   6.762  11.060   8.122
22320SOL    HW268858   6.891  10.993   8.079
22321SOL     OW68859   1.932  14.296   0.060
22321SOL    HW168860   1.912  14.361  14.880
22321SOL    HW268861   2.024  14.274   0.045
22322SOL     OW68862   6.069   7.522  10.245
22322SOL    HW168863   6.040   7.436  10.276
22322SOL    HW268864   6.029   7.531  10.158
22323SOL     OW68865   8.464  12.008  14.825
22323SOL    HW168866   8.437  11.985  14.736
22323SOL    HW268867   8.559  11.997  14.825
22324SOL     OW68868  13.976  12.383  10.032
22324SOL    HW168869  13.915  12.313  10.055
22324SOL    HW268870  13.922  12.462  10.032
22325SOL     OW68871   3.823   8.815   3.745
22325SOL    HW168872   3.794   8.900   3.712
22325SOL    HW268873   3.883   8.837   3.817
22326SOL     OW68874   1.346   1.278   6.899
22326SOL    HW168875   1.340   1.252   6.991
22326SOL    HW268876   1.423   1.335   6.895
22327SOL     OW68877   2.670   7.644   6.907
22327SOL    HW168878   2.761   7.673   6.894
22327SOL    HW268879   2.655   7.580   6.838
22328SOL     OW68880  10.835  14.102   9.410
22328SOL    HW168881  10.821  14.197   9.405
22328SOL    HW268882  10.765  14.071   9.468
22329SOL     OW68883   5.204   9.423   2.327
22329SOL    HW168884   5.134   9.359   2.341
22329SOL    HW268885   5.190   9.456   2.239
22330SOL     OW68886   4.036  13.996  10.037
22330SOL    HW168887   4.088  13.916  10.029
22330SOL    HW268888   3.948  13.966  10.062
22331SOL     OW68889   6.073   0.596   7.218
22331SOL    HW168890   6.155   0.546   7.213
22331SOL    HW268891   6.010   0.536   7.259
22332SOL     OW68892   3.429  11.460  14.354
22332SOL    HW168893   3.491  11.407  14.404
22332SOL    HW268894   3.343  11.432  14.384
22333SOL     OW68895   2.435  12.769   0.505
22333SOL    HW168896   2.354  12.726   0.480
22333SOL    HW268897   2.475  12.709   0.569
22334SOL     OW68898   0.761   3.216   2.579
22334SOL    HW168899   0.857   3.225   2.583
22334SOL    HW268900   0.735   3.278   2.510
22335SOL     OW68901   5.272   3.839   4.941
22335SOL    HW168902   5.243   3.785   4.867
22335SOL    HW268903   5.323   3.780   4.996
22336SOL     OW68904   2.592  13.720   4.874
22336SOL    HW168905   2.651  13.688   4.943
22336SOL    HW268906   2.561  13.641   4.831
22337SOL     OW68907   9.572   9.422   6.509
22337SOL    HW168908   9.585   9.353   6.574
22337SOL    HW268909   9.513   9.484   6.552
22338SOL     OW68910   0.196   1.078  11.594
22338SOL    HW168911   0.109   1.046  11.570
22338SOL    HW268912   0.249   1.068  11.515
22339SOL     OW68913   1.313   4.289  10.252
22339SOL    HW168914   1.370   4.212  10.245
22339SOL    HW268915   1.229   4.253  10.280
22340SOL     OW68916   0.159   0.141  10.265
22340SOL    HW168917   0.174   0.234  10.278
22340SOL    HW268918   0.204   0.098  10.338
22341SOL     OW68919   5.977   6.544   4.263
22341SOL    HW168920   5.993   6.575   4.173
22341SOL    HW268921   5.918   6.610   4.300
22342SOL     OW68922   4.354  11.596   3.145
22342SOL    HW168923   4.413  11.523   3.128
22342SOL    HW268924   4.401  11.673   3.113
22343SOL     OW68925   9.616  12.555   2.110
22343SOL    HW168926   9.555  12.591   2.175
22343SOL    HW268927   9.563  12.493   2.059
22344SOL     OW68928  12.653  14.478   8.605
22344SOL    HW168929  12.567  14.482   8.646
22344SOL    HW268930  12.643  14.417   8.532
22345SOL     OW68931   3.506   5.552   3.343
22345SOL    HW168932   3.511   5.548   3.248
22345SOL    HW268933   3.594   5.575   3.371
22346SOL     OW68934   7.452  14.835  12.923
22346SOL    HW168935   7.418  14.765  12.978
22346SOL    HW268936   7.462   0.022  12.983
22347SOL     OW68937   0.948   8.027  10.520
22347SOL    HW168938   1.004   8.011  10.444
22347SOL    HW268939   0.867   8.061  10.484
22348SOL     OW68940  14.757  10.008   6.966
22348SOL    HW168941  14.805   9.926   6.959
22348SOL    HW268942  14.689  10.001   6.899
22349SOL     OW68943   3.442   9.947   4.183
22349SOL    HW168944   3.515   9.943   4.120
22349SOL    HW268945   3.464   9.883   4.250
22350SOL     OW68946   9.655   7.116  10.247
22350SOL    HW168947   9.740   7.098  10.207
22350SOL    HW268948   9.625   7.031  10.279
22351SOL     OW68949  13.320   3.395  11.970
22351SOL    HW168950  13.406   3.435  11.954
22351SOL    HW268951  13.281   3.448  12.039
22352SOL     OW68952   9.526  14.189   0.831
22352SOL    HW168953   9.597  14.146   0.783
22352SOL    HW268954   9.473  14.231   0.763
22353SOL     OW68955  10.996  12.253  11.410
22353SOL    HW168956  10.948  12.175  11.439
22353SOL    HW268957  10.979  12.318  11.478
22354SOL     OW68958   2.605   6.921  12.956
22354SOL    HW168959   2.679   6.861  12.948
22354SOL    HW268960   2.554   6.906  12.876
22355SOL     OW68961   3.987   8.206  13.638
22355SOL    HW168962   4.048   8.273  13.608
22355SOL    HW268963   3.940   8.246  13.711
22356SOL     OW68964  12.363   4.909  13.301
22356SOL    HW168965  12.428   4.907  13.230
22356SOL    HW268966  12.318   4.992  13.289
22357SOL     OW68967  12.813   0.947   7.440
22357SOL    HW168968  12.842   0.941   7.349
22357SOL    HW268969  12.820   1.040   7.462
22358SOL     OW68970   4.040   5.183  12.566
22358SOL    HW168971   3.981   5.110  12.546
22358SOL    HW268972   4.127   5.144  12.561
22359SOL     OW68973  12.889  12.541   7.191
22359SOL    HW168974  12.822  12.482   7.158
22359SOL    HW268975  12.907  12.601   7.118
22360SOL     OW68976  11.282   0.663   6.705
22360SOL    HW168977  11.324   0.725   6.645
22360SOL    HW268978  11.232   0.605   6.648
22361SOL     OW68979   7.283  10.744   8.744
22361SOL    HW168980   7.233  10.809   8.794
22361SOL    HW268981   7.216  10.692   8.700
22362SOL     OW68982  14.012   6.936   5.518
22362SOL    HW168983  14.012   7.031   5.503
22362SOL    HW268984  13.989   6.926   5.610
22363SOL     OW68985   7.979   7.376  13.320
22363SOL    HW168986   7.980   7.450  13.259
22363SOL    HW268987   7.904   7.323  13.293
22364SOL     OW68988   7.781   2.423   3.187
22364SOL    HW168989   7.791   2.328   3.183
22364SOL    HW268990   7.871   2.456   3.193
22365SOL     OW68991   4.222  11.426   1.046
22365SOL    HW168992   4.168  11.484   1.099
22365SOL    HW268993   4.180  11.340   1.054
22366SOL     OW68994   1.845  11.874  13.842
22366SOL    HW168995   1.829  11.800  13.783
22366SOL    HW268996   1.915  11.844  13.900
22367SOL     OW68997   9.772  12.354  12.686
22367SOL    HW168998   9.728  12.269  12.681
22367SOL    HW268999   9.861  12.333  12.715
22368SOL     OW69000   8.905   7.250  10.901
22368SOL    HW169001   8.922   7.169  10.950
22368SOL    HW269002   8.814   7.240  10.871
22369SOL     OW69003   1.668   8.761  12.658
22369SOL    HW169004   1.705   8.849  12.667
22369SOL    HW269005   1.722   8.706  12.713
22370SOL     OW69006   9.382  11.854   5.825
22370SOL    HW169007   9.355  11.911   5.897
22370SOL    HW269008   9.300  11.822   5.787
22371SOL     OW69009  14.735   5.176   1.711
22371SOL    HW169010  14.648   5.193   1.676
22371SOL    HW269011  14.720   5.128   1.792
22372SOL     OW69012   3.781   0.391   1.248
22372SOL    HW169013   3.861   0.386   1.197
22372SOL    HW269014   3.808   0.373   1.338
22373SOL     OW69015   2.080   6.191  12.367
22373SOL    HW169016   2.161   6.142  12.383
22373SOL    HW269017   2.030   6.180  12.448
22374SOL     OW69018   1.875   6.731   1.491
22374SOL    HW169019   1.969   6.710   1.490
22374SOL    HW269020   1.832   6.647   1.508
22375SOL     OW69021  10.748  10.746   7.875
22375SOL    HW169022  10.698  10.731   7.795
22375SOL    HW269023  10.682  10.750   7.945
22376SOL     OW69024   7.790  12.628  12.514
22376SOL    HW169025   7.776  12.659  12.424
22376SOL    HW269026   7.885  12.624  12.524
22377SOL     OW69027   2.628   2.914   8.693
22377SOL    HW169028   2.542   2.945   8.667
22377SOL    HW269029   2.653   2.852   8.625
22378SOL     OW69030  11.553  11.451   6.564
22378SOL    HW169031  11.499  11.443   6.485
22378SOL    HW269032  11.627  11.505   6.537
22379SOL     OW69033  13.260   1.508  10.800
22379SOL    HW169034  13.167   1.509  10.775
22379SOL    HW269035  13.301   1.451  10.735
22380SOL     OW69036   7.646   0.438   9.155
22380SOL    HW169037   7.670   0.520   9.197
22380SOL    HW269038   7.560   0.456   9.116
22381SOL     OW69039   6.024  10.204  11.945
22381SOL    HW169040   6.053  10.121  11.907
22381SOL    HW269041   6.101  10.240  11.988
22382SOL     OW69042   1.394  14.707   6.644
22382SOL    HW169043   1.410  14.651   6.720
22382SOL    HW269044   1.300  14.724   6.646
22383SOL     OW69045   7.264  13.004  12.763
22383SOL    HW169046   7.216  13.085  12.749
22383SOL    HW269047   7.355  13.026  12.743
22384SOL     OW69048  13.943  14.317   8.563
22384SOL    HW169049  14.011  14.272   8.613
22384SOL    HW269050  13.943  14.406   8.598
22385SOL     OW69051   9.037   8.932  11.167
22385SOL    HW169052   9.094   9.005  11.141
22385SOL    HW269053   9.049   8.867  11.099
22386SOL     OW69054   4.594  11.811   1.035
22386SOL    HW169055   4.574  11.722   1.064
22386SOL    HW269056   4.560  11.816   0.945
22387SOL     OW69057   8.078   4.722  13.300
22387SOL    HW169058   7.992   4.686  13.321
22387SOL    HW269059   8.082   4.719  13.204
22388SOL     OW69060   6.975  12.871   4.864
22388SOL    HW169061   6.987  12.965   4.880
22388SOL    HW269062   7.057  12.831   4.892
22389SOL     OW69063   9.828   8.982   6.155
22389SOL    HW169064   9.771   9.050   6.119
22389SOL    HW269065   9.775   8.939   6.222
22390SOL     OW69066   3.099   0.133  12.058
22390SOL    HW169067   3.067   0.145  12.147
22390SOL    HW269068   3.083   0.217  12.015
22391SOL     OW69069  14.633   3.755   5.658
22391SOL    HW169070  14.676   3.840   5.646
22391SOL    HW269071  14.567   3.771   5.726
22392SOL     OW69072   1.298   5.669   7.851
22392SOL    HW169073   1.217   5.618   7.863
22392SOL    HW269074   1.267   5.754   7.819
22393SOL     OW69075   4.183   0.424   5.579
22393SOL    HW169076   4.233   0.345   5.562
22393SOL    HW269077   4.196   0.441   5.673
22394SOL     OW69078   4.078   9.706  11.470
22394SOL    HW169079   4.077   9.690  11.565
22394SOL    HW269080   4.118   9.793  11.461
22395SOL     OW69081   1.043   7.702   3.133
22395SOL    HW169082   1.037   7.792   3.101
22395SOL    HW269083   1.047   7.649   3.053
22396SOL     OW69084   2.723   8.713  12.748
22396SOL    HW169085   2.659   8.675  12.687
22396SOL    HW269086   2.699   8.805  12.753
22397SOL     OW69087   0.396  10.858   9.096
22397SOL    HW169088   0.447  10.785   9.130
22397SOL    HW269089   0.421  10.864   9.003
22398SOL     OW69090   6.541   5.786  11.828
22398SOL    HW169091   6.575   5.735  11.754
22398SOL    HW269092   6.605   5.856  11.840
22399SOL     OW69093   8.943  14.019  10.464
22399SOL    HW169094   9.029  14.059  10.473
22399SOL    HW269095   8.888  14.064  10.528
22400SOL     OW69096  11.067   3.000  13.772
22400SOL    HW169097  11.110   2.917  13.795
22400SOL    HW269098  10.985   2.974  13.732
22401SOL     OW69099  12.029  13.411   8.858
22401SOL    HW169100  12.114  13.388   8.896
22401SOL    HW269101  11.972  13.426   8.933
22402SOL     OW69102  10.293   8.732  11.945
22402SOL    HW169103  10.329   8.820  11.937
22402SOL    HW269104  10.299   8.695  11.857
22403SOL     OW69105   5.908  14.049   0.644
22403SOL    HW169106   5.857  14.109   0.590
22403SOL    HW269107   5.986  14.099   0.670
22404SOL     OW69108  11.935   8.256   8.880
22404SOL    HW169109  11.897   8.225   8.962
22404SOL    HW269110  11.887   8.336   8.860
22405SOL     OW69111  11.469   3.790  12.825
22405SOL    HW169112  11.521   3.858  12.868
22405SOL    HW269113  11.423   3.836  12.755
22406SOL     OW69114   4.948   7.760  12.267
22406SOL    HW169115   4.908   7.698  12.327
22406SOL    HW269116   4.874   7.800  12.221
22407SOL     OW69117   2.424   5.078   0.394
22407SOL    HW169118   2.342   5.057   0.350
22407SOL    HW269119   2.443   5.168   0.370
22408SOL     OW69120  11.967  12.372   6.032
22408SOL    HW169121  11.907  12.298   6.021
22408SOL    HW269122  11.935  12.438   5.971
22409SOL     OW69123   9.170   2.550   8.471
22409SOL    HW169124   9.194   2.547   8.379
22409SOL    HW269125   9.192   2.639   8.498
22410SOL     OW69126   3.542   8.935  13.903
22410SOL    HW169127   3.596   8.927  13.824
22410SOL    HW269128   3.602   8.919  13.975
22411SOL     OW69129  14.231   6.840   2.011
22411SOL    HW169130  14.156   6.800   2.056
22411SOL    HW269131  14.303   6.831   2.073
22412SOL     OW69132  12.197   2.598   8.802
22412SOL    HW169133  12.259   2.563   8.738
22412SOL    HW269134  12.117   2.549   8.787
22413SOL     OW69135   4.345   9.737   7.784
22413SOL    HW169136   4.253   9.731   7.761
22413SOL    HW269137   4.370   9.826   7.762
22414SOL     OW69138  13.993   7.536  13.564
22414SOL    HW169139  14.025   7.593  13.494
22414SOL    HW269140  13.967   7.595  13.634
22415SOL     OW69141   8.105   6.674  12.905
22415SOL    HW169142   8.188   6.695  12.947
22415SOL    HW269143   8.049   6.644  12.977
22416SOL     OW69144   8.491   3.044   8.530
22416SOL    HW169145   8.471   3.120   8.583
22416SOL    HW269146   8.436   3.054   8.452
22417SOL     OW69147   2.837  10.559   7.283
22417SOL    HW169148   2.857  10.539   7.192
22417SOL    HW269149   2.921  10.582   7.322
22418SOL     OW69150  12.001  12.802   9.560
22418SOL    HW169151  12.042  12.741   9.621
22418SOL    HW269152  11.914  12.766   9.544
22419SOL     OW69153   0.468   3.211  12.322
22419SOL    HW169154   0.530   3.273  12.283
22419SOL    HW269155   0.443   3.153  12.249
22420SOL     OW69156  13.812   3.047   7.625
22420SOL    HW169157  13.802   3.142   7.617
22420SOL    HW269158  13.823   3.032   7.719
22421SOL     OW69159   6.506  12.742   4.710
22421SOL    HW169160   6.601  12.739   4.703
22421SOL    HW269161   6.485  12.836   4.705
22422SOL     OW69162  13.648  13.888   6.873
22422SOL    HW169163  13.653  13.837   6.793
22422SOL    HW269164  13.569  13.856   6.917
22423SOL     OW69165  12.892   8.555   7.772
22423SOL    HW169166  12.941   8.541   7.853
22423SOL    HW269167  12.816   8.607   7.800
22424SOL     OW69168  13.506  13.835   0.100
22424SOL    HW169169  13.493  13.870   0.012
22424SOL    HW269170  13.516  13.912   0.156
22425SOL     OW69171  10.104   3.149   2.417
22425SOL    HW169172  10.051   3.139   2.338
22425SOL    HW269173  10.152   3.067   2.425
22426SOL     OW69174   1.806  11.787  11.508
22426SOL    HW169175   1.766  11.811  11.424
22426SOL    HW269176   1.845  11.868  11.540
22427SOL     OW69177  10.818  12.797   2.944
22427SOL    HW169178  10.865  12.713   2.941
22427SOL    HW269179  10.811  12.816   3.037
22428SOL     OW69180   3.690   4.085   8.805
22428SOL    HW169181   3.757   4.096   8.873
22428SOL    HW269182   3.691   4.167   8.756
22429SOL     OW69183   8.227   5.500   3.588
22429SOL    HW169184   8.174   5.575   3.562
22429SOL    HW269185   8.267   5.469   3.507
22430SOL     OW69186   4.643   9.487   4.814
22430SOL    HW169187   4.675   9.549   4.879
22430SOL    HW269188   4.559   9.523   4.785
22431SOL     OW69189  12.549   9.441   2.490
22431SOL    HW169190  12.515   9.484   2.412
22431SOL    HW269191  12.644   9.442   2.478
22432SOL     OW69192   2.830   7.900   8.768
22432SOL    HW169193   2.856   7.810   8.787
22432SOL    HW269194   2.796   7.897   8.679
22433SOL     OW69195   5.969  13.409   4.754
22433SOL    HW169196   5.945  13.491   4.796
22433SOL    HW269197   6.057  13.390   4.785
22434SOL     OW69198   5.146   7.828   5.567
22434SOL    HW169199   5.191   7.866   5.643
22434SOL    HW269200   5.141   7.734   5.586
22435SOL     OW69201   5.102   5.645   1.297
22435SOL    HW169202   5.167   5.672   1.232
22435SOL    HW269203   5.145   5.661   1.382
22436SOL     OW69204  13.635   3.165   2.287
22436SOL    HW169205  13.688   3.229   2.335
22436SOL    HW269206  13.690   3.088   2.282
22437SOL     OW69207  13.576   7.734   4.222
22437SOL    HW169208  13.642   7.782   4.271
22437SOL    HW269209  13.559   7.656   4.276
22438SOL     OW69210  11.067  11.098   3.811
22438SOL    HW169211  10.983  11.112   3.855
22438SOL    HW269212  11.108  11.185   3.810
22439SOL     OW69213   0.468  10.238   7.734
22439SOL    HW169214   0.437  10.158   7.777
22439SOL    HW269215   0.558  10.218   7.708
22440SOL     OW69216   9.576   5.623   9.452
22440SOL    HW169217   9.481   5.610   9.451
22440SOL    HW269218   9.599   5.632   9.360
22441SOL     OW69219   9.195   8.596  13.800
22441SOL    HW169220   9.275   8.569  13.756
22441SOL    HW269221   9.163   8.670  13.749
22442SOL     OW69222  14.484  10.615   4.772
22442SOL    HW169223  14.393  10.638   4.756
22442SOL    HW269224  14.521  10.602   4.684
22443SOL     OW69225   0.539   2.258   3.939
22443SOL    HW169226   0.444   2.267   3.947
22443SOL    HW269227   0.570   2.346   3.922
22444SOL     OW69228  11.254   7.742  13.775
22444SOL    HW169229  11.271   7.836  13.782
22444SOL    HW269230  11.163   7.732  13.802
22445SOL     OW69231  13.466   9.799   3.087
22445SOL    HW169232  13.495   9.729   3.146
22445SOL    HW269233  13.403   9.849   3.139
22446SOL     OW69234   5.344   6.530   3.591
22446SOL    HW169235   5.402   6.461   3.561
22446SOL    HW269236   5.293   6.555   3.514
22447SOL     OW69237   7.929   3.342   4.678
22447SOL    HW169238   7.861   3.288   4.638
22447SOL    HW269239   7.962   3.289   4.751
22448SOL     OW69240  14.712   6.383   4.433
22448SOL    HW169241  14.792   6.432   4.414
22448SOL    HW269242  14.665   6.437   4.497
22449SOL     OW69243   5.080   4.004   8.995
22449SOL    HW169244   5.129   3.996   9.076
22449SOL    HW269245   5.146   4.025   8.929
22450SOL     OW69246  14.751   9.086   1.991
22450SOL    HW169247  14.812   9.063   1.921
22450SOL    HW269248  14.674   9.122   1.946
22451SOL     OW69249   2.390   7.988  10.342
22451SOL    HW169250   2.298   7.964  10.357
22451SOL    HW269251   2.417   8.030  10.424
22452SOL     OW69252   5.695  10.825   5.983
22452SOL    HW169253   5.780  10.860   6.011
22452SOL    HW269254   5.678  10.868   5.899
22453SOL     OW69255  13.484   8.848   7.256
22453SOL    HW169256  13.468   8.884   7.343
22453SOL    HW269257  13.468   8.921   7.197
22454SOL     OW69258   5.606  10.946   0.933
22454SOL    HW169259   5.595  11.000   0.855
22454SOL    HW269260   5.647  11.004   0.997
22455SOL     OW69261   5.227   1.590  11.878
22455SOL    HW169262   5.279   1.630  11.808
22455SOL    HW269263   5.292   1.552  11.937
22456SOL     OW69264   2.984   9.714   3.777
22456SOL    HW169265   2.905   9.697   3.828
22456SOL    HW269266   3.055   9.717   3.842
22457SOL     OW69267   3.118   3.092  14.571
22457SOL    HW169268   3.067   3.172  14.582
22457SOL    HW269269   3.199   3.120  14.528
22458SOL     OW69270   5.885   4.058   6.706
22458SOL    HW169271   5.916   4.014   6.627
22458SOL    HW269272   5.899   3.994   6.776
22459SOL     OW69273   7.213   9.628   2.392
22459SOL    HW169274   7.125   9.633   2.428
22459SOL    HW269275   7.231   9.534   2.387
22460SOL     OW69276   8.507  11.445   5.968
22460SOL    HW169277   8.433  11.504   5.956
22460SOL    HW269278   8.550  11.443   5.883
22461SOL     OW69279   9.417   4.697   4.731
22461SOL    HW169280   9.353   4.754   4.774
22461SOL    HW269281   9.501   4.721   4.769
22462SOL     OW69282   3.508   2.050   6.312
22462SOL    HW169283   3.571   2.101   6.364
22462SOL    HW269284   3.557   1.972   6.285
22463SOL     OW69285  13.406   0.136   5.790
22463SOL    HW169286  13.328   0.182   5.760
22463SOL    HW269287  13.478   0.175   5.741
22464SOL     OW69288  13.399   9.658  13.391
22464SOL    HW169289  13.438   9.579  13.353
22464SOL    HW269290  13.453   9.730  13.358
22465SOL     OW69291  13.255   6.271  13.351
22465SOL    HW169292  13.237   6.316  13.269
22465SOL    HW269293  13.306   6.194  13.326
22466SOL     OW69294  10.668  14.851  10.211
22466SOL    HW169295  10.757  14.865  10.243
22466SOL    HW269296  10.679  14.842  10.116
22467SOL     OW69297   5.183   4.110   7.261
22467SOL    HW169298   5.235   4.080   7.336
22467SOL    HW269299   5.220   4.063   7.186
22468SOL     OW69300   2.838   1.519   7.566
22468SOL    HW169301   2.822   1.468   7.645
22468SOL    HW269302   2.932   1.534   7.565
22469SOL     OW69303   2.821   0.235  11.815
22469SOL    HW169304   2.900   0.251  11.867
22469SOL    HW269305   2.830   0.294  11.740
22470SOL     OW69306   1.309  11.131   6.868
22470SOL    HW169307   1.351  11.090   6.792
22470SOL    HW269308   1.246  11.066   6.898
22471SOL     OW69309  14.268   7.256  12.515
22471SOL    HW169310  14.240   7.327  12.573
22471SOL    HW269311  14.216   7.180  12.543
22472SOL     OW69312  11.121   7.530  10.797
22472SOL    HW169313  11.087   7.583  10.869
22472SOL    HW269314  11.162   7.594  10.738
22473SOL     OW69315   4.193   4.990   0.181
22473SOL    HW169316   4.274   4.952   0.215
22473SOL    HW269317   4.125   4.957   0.240
22474SOL     OW69318  11.889   0.082   3.002
22474SOL    HW169319  11.796   0.079   2.984
22474SOL    HW269320  11.930   0.038   2.927
22475SOL     OW69321  10.481  13.508  14.773
22475SOL    HW169322  10.499  13.580  14.834
22475SOL    HW269323  10.444  13.439  14.827
22476SOL     OW69324  10.842   1.506  12.784
22476SOL    HW169325  10.931   1.504  12.748
22476SOL    HW269326  10.785   1.515  12.708
22477SOL     OW69327  13.929   0.820   9.572
22477SOL    HW169328  14.004   0.766   9.546
22477SOL    HW269329  13.856   0.786   9.519
22478SOL     OW69330  10.725   6.261   3.305
22478SOL    HW169331  10.735   6.352   3.279
22478SOL    HW269332  10.661   6.263   3.377
22479SOL     OW69333   7.679   2.149   8.904
22479SOL    HW169334   7.606   2.119   8.958
22479SOL    HW269335   7.725   2.213   8.959
22480SOL     OW69336   8.674  14.606   8.536
22480SOL    HW169337   8.633  14.523   8.560
22480SOL    HW269338   8.648  14.619   8.445
22481SOL     OW69339  11.053   2.145   0.469
22481SOL    HW169340  11.048   2.162   0.375
22481SOL    HW269341  10.982   2.196   0.506
22482SOL     OW69342  10.156  13.985   1.130
22482SOL    HW169343  10.095  14.032   1.185
22482SOL    HW269344  10.240  13.992   1.175
22483SOL     OW69345   2.040  13.266  10.354
22483SOL    HW169346   2.110  13.209  10.385
22483SOL    HW269347   2.054  13.348  10.400
22484SOL     OW69348   3.929  11.179   5.236
22484SOL    HW169349   3.885  11.239   5.297
22484SOL    HW269350   3.861  11.155   5.173
22485SOL     OW69351   0.569  12.618   8.461
22485SOL    HW169352   0.563  12.676   8.537
22485SOL    HW269353   0.494  12.641   8.407
22486SOL     OW69354   4.779   2.969   3.809
22486SOL    HW169355   4.872   2.963   3.830
22486SOL    HW269356   4.773   3.043   3.748
22487SOL     OW69357   8.510   7.357  10.349
22487SOL    HW169358   8.493   7.380  10.441
22487SOL    HW269359   8.482   7.266  10.342
22488SOL     OW69360   8.080   2.028   2.450
22488SOL    HW169361   8.014   1.961   2.433
22488SOL    HW269362   8.066   2.093   2.382
22489SOL     OW69363   4.622   7.164   7.684
22489SOL    HW169364   4.606   7.091   7.744
22489SOL    HW269365   4.675   7.226   7.734
22490SOL     OW69366   2.883   5.781   9.191
22490SOL    HW169367   2.806   5.834   9.170
22490SOL    HW269368   2.912   5.745   9.108
22491SOL     OW69369   6.888   1.451   8.086
22491SOL    HW169370   6.853   1.388   8.022
22491SOL    HW269371   6.973   1.414   8.111
22492SOL     OW69372   8.205   9.117   1.139
22492SOL    HW169373   8.278   9.173   1.110
22492SOL    HW269374   8.199   9.049   1.072
22493SOL     OW69375   2.454   5.940   0.539
22493SOL    HW169376   2.446   6.001   0.466
22493SOL    HW269377   2.387   5.969   0.602
22494SOL     OW69378   7.650   3.026   7.742
22494SOL    HW169379   7.688   3.055   7.824
22494SOL    HW269380   7.677   2.934   7.733
22495SOL     OW69381   2.255  12.814   9.052
22495SOL    HW169382   2.275  12.720   9.051
22495SOL    HW269383   2.290  12.847   8.969
22496SOL     OW69384   5.983   1.050   6.626
22496SOL    HW169385   6.016   1.124   6.676
22496SOL    HW269386   5.940   1.090   6.550
22497SOL     OW69387  11.753   2.789  11.222
22497SOL    HW169388  11.670   2.805  11.175
22497SOL    HW269389  11.743   2.838  11.304
22498SOL     OW69390   2.512   8.211   4.499
22498SOL    HW169391   2.428   8.175   4.472
22498SOL    HW269392   2.565   8.212   4.419
22499SOL     OW69393   5.325   4.478   4.954
22499SOL    HW169394   5.311   4.424   5.031
22499SOL    HW269395   5.366   4.558   4.987
22500SOL     OW69396   7.750   3.175   4.522
22500SOL    HW169397   7.659   3.205   4.532
22500SOL    HW269398   7.744   3.080   4.522
22501SOL     OW69399   5.265   2.542  11.555
22501SOL    HW169400   5.328   2.471  11.560
22501SOL    HW269401   5.312   2.618  11.591
22502SOL     OW69402   5.201   7.922  12.215
22502SOL    HW169403   5.122   7.868  12.223
22502SOL    HW269404   5.270   7.867  12.252
22503SOL     OW69405   5.338   6.511   4.053
22503SOL    HW169406   5.404   6.544   3.992
22503SOL    HW269407   5.260   6.496   4.000
22504SOL     OW69408   0.030   2.279   1.901
22504SOL    HW169409   0.086   2.297   1.825
22504SOL    HW269410  14.835   2.323   1.881
22505SOL     OW69411   9.991  13.781   2.791
22505SOL    HW169412  10.078  13.793   2.830
22505SOL    HW269413   9.954  13.869   2.788
22506SOL     OW69414   3.494   5.647   9.439
22506SOL    HW169415   3.542   5.654   9.522
22506SOL    HW269416   3.405   5.623   9.464
22507SOL     OW69417  12.762   9.199  11.479
22507SOL    HW169418  12.719   9.234  11.556
22507SOL    HW269419  12.692   9.155  11.430
22508SOL     OW69420   3.034   2.816  11.302
22508SOL    HW169421   3.064   2.821  11.393
22508SOL    HW269422   2.945   2.780  11.309
22509SOL     OW69423   9.321   5.369   7.548
22509SOL    HW169424   9.259   5.328   7.607
22509SOL    HW269425   9.381   5.299   7.522
22510SOL     OW69426   3.394   5.494   5.745
22510SOL    HW169427   3.318   5.478   5.801
22510SOL    HW269428   3.469   5.485   5.804
22511SOL     OW69429   7.319  14.174   4.973
22511SOL    HW169430   7.367  14.092   4.987
22511SOL    HW269431   7.280  14.194   5.058
22512SOL     OW69432  10.116   3.456  11.704
22512SOL    HW169433  10.132   3.458  11.798
22512SOL    HW269434  10.053   3.527  11.689
22513SOL     OW69435   0.766   2.209  12.064
22513SOL    HW169436   0.823   2.156  12.119
22513SOL    HW269437   0.794   2.299  12.081
22514SOL     OW69438   5.999   6.933   6.492
22514SOL    HW169439   6.061   6.907   6.560
22514SOL    HW269440   6.021   7.024   6.473
22515SOL     OW69441   5.374   8.946  13.744
22515SOL    HW169442   5.453   8.941  13.799
22515SOL    HW269443   5.372   9.037  13.714
22516SOL     OW69444   6.981  11.189  10.086
22516SOL    HW169445   7.018  11.132  10.153
22516SOL    HW269446   7.021  11.274  10.101
22517SOL     OW69447   5.438   3.013  11.795
22517SOL    HW169448   5.399   3.083  11.743
22517SOL    HW269449   5.532   3.020  11.779
22518SOL     OW69450  13.049  12.932   2.016
22518SOL    HW169451  12.958  12.919   1.989
22518SOL    HW269452  13.079  13.005   1.963
22519SOL     OW69453   2.628  11.897   3.994
22519SOL    HW169454   2.708  11.910   4.045
22519SOL    HW269455   2.607  11.805   4.005
22520SOL     OW69456  11.758   3.453   5.453
22520SOL    HW169457  11.852   3.439   5.443
22520SOL    HW269458  11.742   3.441   5.547
22521SOL     OW69459   9.969   8.179  13.988
22521SOL    HW169460  10.042   8.222  14.031
22521SOL    HW269461  10.010   8.111  13.935
22522SOL     OW69462   5.965  12.465  13.085
22522SOL    HW169463   5.875  12.494  13.098
22522SOL    HW269464   6.005  12.534  13.032
22523SOL     OW69465   2.138  10.853   9.588
22523SOL    HW169466   2.083  10.875   9.513
22523SOL    HW269467   2.220  10.900   9.573
22524SOL     OW69468   1.641  11.024   8.087
22524SOL    HW169469   1.645  11.086   8.015
22524SOL    HW269470   1.732  11.000   8.103
22525SOL     OW69471   5.591  12.164   5.697
22525SOL    HW169472   5.659  12.223   5.731
22525SOL    HW269473   5.608  12.160   5.603
22526SOL     OW69474   8.713  11.782   1.273
22526SOL    HW169475   8.741  11.818   1.189
22526SOL    HW269476   8.640  11.724   1.252
22527SOL     OW69477   9.152   8.862   1.527
22527SOL    HW169478   9.059   8.879   1.514
22527SOL    HW269479   9.164   8.866   1.622
22528SOL     OW69480  14.006  14.651   3.737
22528SOL    HW169481  13.965  14.642   3.651
22528SOL    HW269482  14.010  14.561   3.771
22529SOL     OW69483   2.884   7.466   9.839
22529SOL    HW169484   2.908   7.433   9.753
22529SOL    HW269485   2.967   7.494   9.878
22530SOL     OW69486  10.559   8.984   8.259
22530SOL    HW169487  10.625   9.037   8.305
22530SOL    HW269488  10.482   8.989   8.315
22531SOL     OW69489   6.663   3.969   1.518
22531SOL    HW169490   6.748   3.934   1.492
22531SOL    HW269491   6.681   4.059   1.544
22532SOL     OW69492   4.624  12.877   8.630
22532SOL    HW169493   4.560  12.943   8.606
22532SOL    HW269494   4.707  12.924   8.632
22533SOL     OW69495   9.728  12.761   1.545
22533SOL    HW169496   9.689  12.841   1.509
22533SOL    HW269497   9.661  12.728   1.605
22534SOL     OW69498   4.817   8.555   4.025
22534SOL    HW169499   4.854   8.634   4.063
22534SOL    HW269500   4.854   8.483   4.076
22535SOL     OW69501   2.667   0.770   8.441
22535SOL    HW169502   2.589   0.824   8.442
22535SOL    HW269503   2.729   0.818   8.386
22536SOL     OW69504   8.423   3.381   3.455
22536SOL    HW169505   8.463   3.418   3.534
22536SOL    HW269506   8.462   3.430   3.383
22537SOL     OW69507  11.462   7.663   4.887
22537SOL    HW169508  11.445   7.733   4.950
22537SOL    HW269509  11.465   7.707   4.802
22538SOL     OW69510   0.589   0.717   9.584
22538SOL    HW169511   0.498   0.738   9.564
22538SOL    HW269512   0.640   0.785   9.540
22539SOL     OW69513  12.125  14.870   4.430
22539SOL    HW169514  12.119   0.078   4.427
22539SOL    HW269515  12.085  14.841   4.348
22540SOL     OW69516  11.848   1.604   7.868
22540SOL    HW169517  11.898   1.651   7.935
22540SOL    HW269518  11.885   1.516   7.867
22541SOL     OW69519   2.804  12.790  13.803
22541SOL    HW169520   2.804  12.886  13.808
22541SOL    HW269521   2.720  12.769  13.761
22542SOL     OW69522   4.926   2.251   2.882
22542SOL    HW169523   4.935   2.165   2.923
22542SOL    HW269524   5.011   2.292   2.893
22543SOL     OW69525  14.121  10.148   0.310
22543SOL    HW169526  14.124  10.243   0.311
22543SOL    HW269527  14.178  10.121   0.382
22544SOL     OW69528   3.567   8.098  12.331
22544SOL    HW169529   3.541   8.089  12.240
22544SOL    HW269530   3.567   8.192  12.347
22545SOL     OW69531  11.495  10.261  12.321
22545SOL    HW169532  11.538  10.175  12.328
22545SOL    HW269533  11.559  10.322  12.357
22546SOL     OW69534  12.171   6.785   6.440
22546SOL    HW169535  12.088   6.783   6.486
22546SOL    HW269536  12.227   6.725   6.489
22547SOL     OW69537   5.474   0.737   9.391
22547SOL    HW169538   5.486   0.727   9.485
22547SOL    HW269539   5.561   0.723   9.354
22548SOL     OW69540   6.567   0.009  11.736
22548SOL    HW169541   6.530  14.812  11.709
22548SOL    HW269542   6.655   0.010  11.698
22549SOL     OW69543   9.034   0.134   0.051
22549SOL    HW169544   8.957   0.102   0.099
22549SOL    HW269545   9.006   0.135  14.847
22550SOL     OW69546   0.987  13.991  12.849
22550SOL    HW169547   0.936  13.958  12.775
22550SOL    HW269548   0.955  14.081  12.862
22551SOL     OW69549   1.375  10.825  13.282
22551SOL    HW169550   1.431  10.822  13.205
22551SOL    HW269551   1.315  10.898  13.265
22552SOL     OW69552  10.865   5.166   7.881
22552SOL    HW169553  10.809   5.233   7.840
22552SOL    HW269554  10.934   5.150   7.817
22553SOL     OW69555   3.400   2.869  13.092
22553SOL    HW169556   3.483   2.847  13.052
22553SOL    HW269557   3.334   2.833  13.033
22554SOL     OW69558   6.776   8.079   8.456
22554SOL    HW169559   6.797   8.165   8.420
22554SOL    HW269560   6.740   8.030   8.382
22555SOL     OW69561  11.595   9.343  13.144
22555SOL    HW169562  11.512   9.301  13.119
22555SOL    HW269563  11.647   9.273  13.183
22556SOL     OW69564   0.150   6.622   5.428
22556SOL    HW169565   0.237   6.591   5.405
22556SOL    HW269566   0.154   6.717   5.419
22557SOL     OW69567   1.340  13.957   1.838
22557SOL    HW169568   1.340  14.043   1.879
22557SOL    HW269569   1.248  13.941   1.816
22558SOL     OW69570  14.190   6.111  14.686
22558SOL    HW169571  14.246   6.158  14.747
22558SOL    HW269572  14.228   6.127  14.600
22559SOL     OW69573  12.524  14.144   4.275
22559SOL    HW169574  12.490  14.228   4.307
22559SOL    HW269575  12.451  14.104   4.229
22560SOL     OW69576   5.449  10.019  10.228
22560SOL    HW169577   5.401   9.937  10.234
22560SOL    HW269578   5.513  10.004  10.158
22561SOL     OW69579   6.553  14.516   1.490
22561SOL    HW169580   6.627  14.486   1.542
22561SOL    HW269581   6.590  14.580   1.430
22562SOL     OW69582   7.860   9.574   9.205
22562SOL    HW169583   7.921   9.525   9.261
22562SOL    HW269584   7.910   9.591   9.125
22563SOL     OW69585   5.578   4.184   9.149
22563SOL    HW169586   5.652   4.125   9.134
22563SOL    HW269587   5.590   4.216   9.238
22564SOL     OW69588  14.175  13.741   9.894
22564SOL    HW169589  14.214  13.710   9.975
22564SOL    HW269590  14.147  13.662   9.848
22565SOL     OW69591   0.846   6.357   9.748
22565SOL    HW169592   0.874   6.422   9.813
22565SOL    HW269593   0.925   6.306   9.731
22566SOL     OW69594   3.851  13.318   7.931
22566SOL    HW169595   3.941  13.312   7.898
22566SOL    HW269596   3.845  13.250   7.998
22567SOL     OW69597   0.714   8.390  14.887
22567SOL    HW169598   0.658   8.461   0.033
22567SOL    HW269599   0.694   8.315   0.055
22568SOL     OW69600   6.276   3.541   9.221
22568SOL    HW169601   6.368   3.557   9.242
22568SOL    HW269602   6.276   3.527   9.126
22569SOL     OW69603  13.190   0.560   8.970
22569SOL    HW169604  13.172   0.549   9.063
22569SOL    HW269605  13.107   0.537   8.927
22570SOL     OW69606   6.271  10.854   6.502
22570SOL    HW169607   6.340  10.873   6.566
22570SOL    HW269608   6.201  10.815   6.554
22571SOL     OW69609   9.983   6.801   5.354
22571SOL    HW169610   9.927   6.873   5.383
22571SOL    HW269611  10.057   6.803   5.415
22572SOL     OW69612   7.350  14.653   8.661
22572SOL    HW169613   7.302  14.731   8.686
22572SOL    HW269614   7.339  14.647   8.566
22573SOL     OW69615   9.955   8.743   4.300
22573SOL    HW169616   9.962   8.837   4.317
22573SOL    HW269617  10.045   8.710   4.304
22574SOL     OW69618   7.607   7.789   1.599
22574SOL    HW169619   7.560   7.723   1.547
22574SOL    HW269620   7.679   7.817   1.543
22575SOL     OW69621   4.034   0.020  11.173
22575SOL    HW169622   4.009   0.052  11.260
22575SOL    HW269623   3.982  14.828  11.161
22576SOL     OW69624   7.208   4.781  10.531
22576SOL    HW169625   7.206   4.799  10.625
22576SOL    HW269626   7.122   4.810  10.499
22577SOL     OW69627   1.360   8.078  10.590
22577SOL    HW169628   1.451   8.084  10.619
22577SOL    HW269629   1.339   8.166  10.558
22578SOL     OW69630   3.287  14.139  10.623
22578SOL    HW169631   3.201  14.118  10.659
22578SOL    HW269632   3.302  14.071  10.557
22579SOL     OW69633   1.209   1.887  10.462
22579SOL    HW169634   1.269   1.822  10.423
22579SOL    HW269635   1.248   1.907  10.547
22580SOL     OW69636  10.626   3.413   8.524
22580SOL    HW169637  10.565   3.342   8.504
22580SOL    HW269638  10.581   3.492   8.494
22581SOL     OW69639   9.912   5.838  13.969
22581SOL    HW169640   9.955   5.923  13.976
22581SOL    HW269641   9.908   5.820  13.875
22582SOL     OW69642   2.721   8.556   2.237
22582SOL    HW169643   2.638   8.556   2.284
22582SOL    HW269644   2.705   8.611   2.160
22583SOL     OW69645   6.315   9.397   4.881
22583SOL    HW169646   6.288   9.480   4.919
22583SOL    HW269647   6.403   9.414   4.846
22584SOL     OW69648  13.588   1.629  12.538
22584SOL    HW169649  13.507   1.670  12.570
22584SOL    HW269650  13.559   1.546  12.500
22585SOL     OW69651  11.644   5.481   5.941
22585SOL    HW169652  11.605   5.547   5.884
22585SOL    HW269653  11.587   5.405   5.934
22586SOL     OW69654   5.133   8.108   8.419
22586SOL    HW169655   5.094   8.076   8.500
22586SOL    HW269656   5.208   8.160   8.448
22587SOL     OW69657   2.050   7.696  10.892
22587SOL    HW169658   2.139   7.722  10.870
22587SOL    HW269659   2.039   7.722  10.983
22588SOL     OW69660  13.568   6.883   7.123
22588SOL    HW169661  13.551   6.944   7.194
22588SOL    HW269662  13.567   6.936   7.043
22589SOL     OW69663   9.525   6.298  13.307
22589SOL    HW169664   9.460   6.267  13.243
22589SOL    HW269665   9.480   6.366  13.357
22590SOL     OW69666  11.027   1.580   3.698
22590SOL    HW169667  11.101   1.527   3.726
22590SOL    HW269668  10.970   1.583   3.775
22591SOL     OW69669   3.782   5.678   4.475
22591SOL    HW169670   3.732   5.758   4.456
22591SOL    HW269671   3.785   5.632   4.391
22592SOL     OW69672   2.297  11.948   1.414
22592SOL    HW169673   2.324  11.872   1.361
22592SOL    HW269674   2.330  11.929   1.502
22593SOL     OW69675   3.496  12.474   4.729
22593SOL    HW169676   3.486  12.414   4.803
22593SOL    HW269677   3.566  12.436   4.676
22594SOL     OW69678  11.394  12.162   1.092
22594SOL    HW169679  11.338  12.084   1.094
22594SOL    HW269680  11.369  12.211   1.170
22595SOL     OW69681   4.245   3.345  12.798
22595SOL    HW169682   4.317   3.403  12.771
22595SOL    HW269683   4.168   3.401  12.802
22596SOL     OW69684   7.827   6.613   0.730
22596SOL    HW169685   7.899   6.603   0.668
22596SOL    HW269686   7.785   6.527   0.732
22597SOL     OW69687   9.140   3.068   7.940
22597SOL    HW169688   9.080   2.996   7.960
22597SOL    HW269689   9.083   3.145   7.938
22598SOL     OW69690   0.121   7.850   4.826
22598SOL    HW169691   0.091   7.916   4.764
22598SOL    HW269692   0.175   7.898   4.889
22599SOL     OW69693   8.029   7.052  13.626
22599SOL    HW169694   7.935   7.069  13.612
22599SOL    HW269695   8.033   6.960  13.652
22600SOL     OW69696   4.176   2.016   1.092
22600SOL    HW169697   4.256   2.069   1.089
22600SOL    HW269698   4.198   1.941   1.146
22601SOL     OW69699   0.337  11.652  14.883
22601SOL    HW169700   0.356  11.682  14.794
22601SOL    HW269701   0.423  11.647   0.038
22602SOL     OW69702   1.951   1.703   0.880
22602SOL    HW169703   2.028   1.659   0.919
22602SOL    HW269704   1.909   1.635   0.829
22603SOL     OW69705   9.934  11.923   9.201
22603SOL    HW169706   9.917  11.948   9.111
22603SOL    HW269707   9.941  12.005   9.249
22604SOL     OW69708   5.404   4.147   4.378
22604SOL    HW169709   5.365   4.170   4.294
22604SOL    HW269710   5.363   4.205   4.441
22605SOL     OW69711  12.978  10.992   5.639
22605SOL    HW169712  13.067  10.958   5.632
22605SOL    HW269713  12.929  10.924   5.686
22606SOL     OW69714   7.472   0.762   0.565
22606SOL    HW169715   7.506   0.701   0.500
22606SOL    HW269716   7.518   0.739   0.646
22607SOL     OW69717   4.344   3.968   1.145
22607SOL    HW169718   4.370   3.958   1.054
22607SOL    HW269719   4.379   3.890   1.189
22608SOL     OW69720   3.097   0.585   1.798
22608SOL    HW169721   3.055   0.502   1.822
22608SOL    HW269722   3.050   0.651   1.848
22609SOL     OW69723   8.267  12.335  14.233
22609SOL    HW169724   8.333  12.306  14.170
22609SOL    HW269725   8.268  12.269  14.301
22610SOL     OW69726  13.344   1.039  12.647
22610SOL    HW169727  13.269   1.097  12.653
22610SOL    HW269728  13.330   0.974  12.716
22611SOL     OW69729  10.476   5.671   6.598
22611SOL    HW169730  10.526   5.740   6.643
22611SOL    HW269731  10.543   5.616   6.557
22612SOL     OW69732  13.109  12.588   0.010
22612SOL    HW169733  13.074  12.632  14.820
22612SOL    HW269734  13.203  12.580  14.880
22613SOL     OW69735  10.966   8.088   0.575
22613SOL    HW169736  10.884   8.137   0.576
22613SOL    HW269737  10.952   8.019   0.510
22614SOL     OW69738   1.525  14.706   7.873
22614SOL    HW169739   1.559  14.619   7.895
22614SOL    HW269740   1.545  14.759   7.950
22615SOL     OW69741  12.807   6.467  12.272
22615SOL    HW169742  12.726   6.511  12.245
22615SOL    HW269743  12.826   6.406  12.201
22616SOL     OW69744   2.240   3.734   0.806
22616SOL    HW169745   2.263   3.646   0.838
22616SOL    HW269746   2.214   3.782   0.885
22617SOL     OW69747   8.803   3.462   2.964
22617SOL    HW169748   8.758   3.541   2.994
22617SOL    HW269749   8.807   3.471   2.869
22618SOL     OW69750   7.090  13.203   7.681
22618SOL    HW169751   7.021  13.231   7.621
22618SOL    HW269752   7.084  13.108   7.682
22619SOL     OW69753  11.752   2.582   4.210
22619SOL    HW169754  11.686   2.599   4.143
22619SOL    HW269755  11.703   2.580   4.292
22620SOL     OW69756   1.581   5.737   1.594
22620SOL    HW169757   1.595   5.688   1.675
22620SOL    HW269758   1.669   5.767   1.568
22621SOL     OW69759   6.724   3.416   0.392
22621SOL    HW169760   6.676   3.339   0.422
22621SOL    HW269761   6.700   3.485   0.454
22622SOL     OW69762   3.880  11.022   6.078
22622SOL    HW169763   3.957  11.045   6.131
22622SOL    HW269764   3.914  11.018   5.989
22623SOL     OW69765   0.594  11.586   0.122
22623SOL    HW169766   0.606  11.582   0.217
22623SOL    HW269767   0.569  11.497   0.098
22624SOL     OW69768   3.361   0.244   8.256
22624SOL    HW169769   3.410   0.224   8.177
22624SOL    HW269770   3.291   0.302   8.227
22625SOL     OW69771   1.085   5.661   8.320
22625SOL    HW169772   1.166   5.627   8.358
22625SOL    HW269773   1.016   5.603   8.353
22626SOL     OW69774  12.899  14.624  10.066
22626SOL    HW169775  12.967  14.683  10.099
22626SOL    HW269776  12.935  14.588   9.985
22627SOL     OW69777  12.384  11.160   7.295
22627SOL    HW169778  12.401  11.086   7.237
22627SOL    HW269779  12.357  11.120   7.378
22628SOL     OW69780   2.371   2.063  13.205
22628SOL    HW169781   2.334   2.134  13.152
22628SOL    HW269782   2.465   2.080  13.205
22629SOL     OW69783   1.208   9.799  12.988
22629SOL    HW169784   1.202   9.736  12.917
22629SOL    HW269785   1.239   9.749  13.063
22630SOL     OW69786   6.055   4.843   2.046
22630SOL    HW169787   6.032   4.759   2.006
22630SOL    HW269788   6.069   4.823   2.138
22631SOL     OW69789   2.951  13.499   9.625
22631SOL    HW169790   2.985  13.431   9.566
22631SOL    HW269791   2.974  13.581   9.582
22632SOL     OW69792   5.961  11.286   7.759
22632SOL    HW169793   5.954  11.352   7.690
22632SOL    HW269794   5.882  11.232   7.748
22633SOL     OW69795   3.169  11.233   2.793
22633SOL    HW169796   3.237  11.289   2.756
22633SOL    HW269797   3.217  11.169   2.846
22634SOL     OW69798  13.347  12.161  14.137
22634SOL    HW169799  13.314  12.071  14.133
22634SOL    HW269800  13.270  12.214  14.155
22635SOL     OW69801   4.242  13.166  11.206
22635SOL    HW169802   4.243  13.194  11.114
22635SOL    HW269803   4.209  13.076  11.203
22636SOL     OW69804   6.688  14.725   3.375
22636SOL    HW169805   6.653  14.782   3.444
22636SOL    HW269806   6.686  14.779   3.296
22637SOL     OW69807  13.609   4.659   9.332
22637SOL    HW169808  13.700   4.676   9.307
22637SOL    HW269809  13.591   4.720   9.403
22638SOL     OW69810   5.120  11.587  10.678
22638SOL    HW169811   5.138  11.536  10.599
22638SOL    HW269812   5.129  11.678  10.649
22639SOL     OW69813   0.810   4.291   8.689
22639SOL    HW169814   0.775   4.277   8.776
22639SOL    HW269815   0.869   4.366   8.698
22640SOL     OW69816   4.418   7.442   4.519
22640SOL    HW169817   4.445   7.532   4.537
22640SOL    HW269818   4.402   7.404   4.605
22641SOL     OW69819   4.103  13.178   3.849
22641SOL    HW169820   4.180  13.233   3.836
22641SOL    HW269821   4.132  13.110   3.911
22642SOL     OW69822   1.135   2.410   0.725
22642SOL    HW169823   1.157   2.318   0.741
22642SOL    HW269824   1.041   2.409   0.710
22643SOL     OW69825  14.768   5.601  11.144
22643SOL    HW169826  14.704   5.574  11.079
22643SOL    HW269827  14.814   5.520  11.168
22644SOL     OW69828  11.982  12.271  14.402
22644SOL    HW169829  12.027  12.226  14.474
22644SOL    HW269830  11.901  12.303  14.441
22645SOL     OW69831   5.956  14.439   6.696
22645SOL    HW169832   5.966  14.527   6.658
22645SOL    HW269833   5.881  14.447   6.754
22646SOL     OW69834  10.571  10.976   0.326
22646SOL    HW169835  10.488  10.967   0.373
22646SOL    HW269836  10.594  10.887   0.299
22647SOL     OW69837   3.614  14.277   2.006
22647SOL    HW169838   3.538  14.296   2.061
22647SOL    HW269839   3.578  14.266   1.918
22648SOL     OW69840   2.103   5.671   6.059
22648SOL    HW169841   2.195   5.684   6.082
22648SOL    HW269842   2.099   5.686   5.964
22649SOL     OW69843  12.592  12.968  10.312
22649SOL    HW169844  12.517  12.999  10.364
22649SOL    HW269845  12.575  13.002  10.224
22650SOL     OW69846   6.155  10.898  10.013
22650SOL    HW169847   6.207  10.905   9.934
22650SOL    HW269848   6.147  10.988  10.045
22651SOL     OW69849  10.981  13.327  13.441
22651SOL    HW169850  11.036  13.327  13.363
22651SOL    HW269851  10.919  13.255  13.427
22652SOL     OW69852  13.719   4.552   8.740
22652SOL    HW169853  13.633   4.576   8.704
22652SOL    HW269854  13.705   4.551   8.835
22653SOL     OW69855   5.554   7.685   4.519
22653SOL    HW169856   5.555   7.633   4.600
22653SOL    HW269857   5.635   7.736   4.523
22654SOL     OW69858  10.301  12.910  10.713
22654SOL    HW169859  10.310  12.830  10.660
22654SOL    HW269860  10.325  12.883  10.802
22655SOL     OW69861   4.242   2.647  12.587
22655SOL    HW169862   4.229   2.740  12.602
22655SOL    HW269863   4.215   2.605  12.668
22656SOL     OW69864   5.772   1.023   7.023
22656SOL    HW169865   5.843   0.994   6.966
22656SOL    HW269866   5.815   1.075   7.091
22657SOL     OW69867   0.943  14.431  10.283
22657SOL    HW169868   0.907  14.380  10.211
22657SOL    HW269869   0.947  14.521  10.250
22658SOL     OW69870   5.586  13.873  11.102
22658SOL    HW169871   5.621  13.918  11.025
22658SOL    HW269872   5.655  13.882  11.168
22659SOL     OW69873  11.467   6.026   9.139
22659SOL    HW169874  11.397   5.986   9.190
22659SOL    HW269875  11.538   6.041   9.202
22660SOL     OW69876  12.631   8.476   5.151
22660SOL    HW169877  12.607   8.429   5.071
22660SOL    HW269878  12.622   8.569   5.128
22661SOL     OW69879  10.821   8.411   8.489
22661SOL    HW169880  10.895   8.370   8.443
22661SOL    HW269881  10.748   8.351   8.475
22662SOL     OW69882  13.931  11.953   9.782
22662SOL    HW169883  13.968  11.876   9.824
22662SOL    HW269884  14.001  12.018   9.786
22663SOL     OW69885   5.951   8.716   4.118
22663SOL    HW169886   5.861   8.725   4.150
22663SOL    HW269887   6.005   8.723   4.196
22664SOL     OW69888   4.646   7.303   5.704
22664SOL    HW169889   4.718   7.340   5.756
22664SOL    HW269890   4.613   7.231   5.758
22665SOL     OW69891  14.038  14.808   6.051
22665SOL    HW169892  14.002  14.724   6.022
22665SOL    HW269893  14.051  14.857   5.970
22666SOL     OW69894  11.956   0.734   0.873
22666SOL    HW169895  11.888   0.751   0.938
22666SOL    HW269896  12.038   0.740   0.921
22667SOL     OW69897   3.685   7.627   6.633
22667SOL    HW169898   3.729   7.708   6.608
22667SOL    HW269899   3.732   7.598   6.711
22668SOL     OW69900  13.488   2.034  12.516
22668SOL    HW169901  13.438   1.969  12.467
22668SOL    HW269902  13.481   2.006  12.607
22669SOL     OW69903   6.692   5.908  12.295
22669SOL    HW169904   6.743   5.900  12.214
22669SOL    HW269905   6.756   5.937  12.360
22670SOL     OW69906   1.508   8.221   8.518
22670SOL    HW169907   1.548   8.276   8.585
22670SOL    HW269908   1.582   8.192   8.464
22671SOL     OW69909  11.153   5.529  14.541
22671SOL    HW169910  11.148   5.537  14.446
22671SOL    HW269911  11.245   5.515  14.560
22672SOL     OW69912   1.218   3.421   0.002
22672SOL    HW169913   1.127   3.441  14.868
22672SOL    HW269914   1.214   3.340   0.052
22673SOL     OW69915   8.204  10.524  10.348
22673SOL    HW169916   8.283  10.487  10.386
22673SOL    HW269917   8.140  10.453  10.352
22674SOL     OW69918  14.662   2.565   3.418
22674SOL    HW169919  14.653   2.602   3.330
22674SOL    HW269920  14.598   2.494   3.420
22675SOL     OW69921  12.609   7.460   1.652
22675SOL    HW169922  12.584   7.546   1.618
22675SOL    HW269923  12.535   7.433   1.706
22676SOL     OW69924  12.573   6.082  14.051
22676SOL    HW169925  12.647   6.024  14.067
22676SOL    HW269926  12.599   6.133  13.974
22677SOL     OW69927   2.862   6.992   3.345
22677SOL    HW169928   2.798   7.062   3.360
22677SOL    HW269929   2.833   6.920   3.401
22678SOL     OW69930   8.542   3.241  12.509
22678SOL    HW169931   8.479   3.169  12.516
22678SOL    HW269932   8.511   3.306  12.571
22679SOL     OW69933   4.099  11.781   7.209
22679SOL    HW169934   4.147  11.861   7.186
22679SOL    HW269935   4.128  11.717   7.144
22680SOL     OW69936  11.540   0.081  14.167
22680SOL    HW169937  11.509   0.036  14.088
22680SOL    HW269938  11.573   0.165  14.135
22681SOL     OW69939  13.784   4.126  13.673
22681SOL    HW169940  13.741   4.181  13.738
22681SOL    HW269941  13.839   4.067  13.725
22682SOL     OW69942  12.175   7.908   5.218
22682SOL    HW169943  12.181   7.866   5.132
22682SOL    HW269944  12.249   7.872   5.267
22683SOL     OW69945  10.330  14.510  12.351
22683SOL    HW169946  10.281  14.442  12.303
22683SOL    HW269947  10.262  14.556  12.400
22684SOL     OW69948   4.379   5.205   0.954
22684SOL    HW169949   4.421   5.272   0.900
22684SOL    HW269950   4.394   5.233   1.044
22685SOL     OW69951   1.908   3.065   9.586
22685SOL    HW169952   2.000   3.055   9.613
22685SOL    HW269953   1.861   2.999   9.637
22686SOL     OW69954   9.051   7.245  12.632
22686SOL    HW169955   9.112   7.172  12.638
22686SOL    HW269956   9.095   7.308  12.574
22687SOL     OW69957  14.842   0.117   8.624
22687SOL    HW169958  14.837   0.022   8.631
22687SOL    HW269959  14.839   0.149   8.714
22688SOL     OW69960   5.795   4.466   8.881
22688SOL    HW169961   5.736   4.416   8.825
22688SOL    HW269962   5.779   4.557   8.857
22689SOL     OW69963   4.554  12.958  11.638
22689SOL    HW169964   4.466  12.968  11.673
22689SOL    HW269965   4.543  12.908  11.557
22690SOL     OW69966   0.985  13.027   1.224
22690SOL    HW169967   0.910  12.969   1.239
22690SOL    HW269968   0.983  13.088   1.298
22691SOL     OW69969  11.788  13.460  12.382
22691SOL    HW169970  11.858  13.526  12.377
22691SOL    HW269971  11.769  13.438  12.291
22692SOL     OW69972  14.454   4.209   5.414
22692SOL    HW169973  14.482   4.226   5.503
22692SOL    HW269974  14.365   4.245   5.409
22693SOL     OW69975   8.791  14.149   7.746
22693SOL    HW169976   8.880  14.179   7.730
22693SOL    HW269977   8.768  14.098   7.669
22694SOL     OW69978   1.850  14.249  11.667
22694SOL    HW169979   1.775  14.190  11.665
22694SOL    HW269980   1.923  14.195  11.635
22695SOL     OW69981   1.665   4.668   9.501
22695SOL    HW169982   1.596   4.726   9.469
22695SOL    HW269983   1.735   4.677   9.437
22696SOL     OW69984  13.242   5.469  14.192
22696SOL    HW169985  13.232   5.558  14.226
22696SOL    HW269986  13.224   5.477  14.098
22697SOL     OW69987   0.517   1.821   6.536
22697SOL    HW169988   0.501   1.773   6.454
22697SOL    HW269989   0.447   1.886   6.540
22698SOL     OW69990   4.438  14.806   4.068
22698SOL    HW169991   4.375  14.751   4.116
22698SOL    HW269992   4.445  14.885   4.121
22699SOL     OW69993   7.520  14.533   7.436
22699SOL    HW169994   7.479  14.453   7.470
22699SOL    HW269995   7.557  14.575   7.514
22700SOL     OW69996   6.213  10.530   3.622
22700SOL    HW169997   6.212  10.481   3.704
22700SOL    HW269998   6.158  10.607   3.640
22701SOL     OW69999   5.038   7.784   8.818
22701SOL    HW170000   5.017   7.782   8.724
22701SOL    HW270001   5.109   7.720   8.828
22702SOL     OW70002  14.604   7.022   0.716
22702SOL    HW170003  14.642   7.056   0.636
22702SOL    HW270004  14.622   7.089   0.782
22703SOL     OW70005   7.397   7.521   5.398
22703SOL    HW170006   7.442   7.437   5.411
22703SOL    HW270007   7.349   7.510   5.316
22704SOL     OW70008   9.102  13.008  13.862
22704SOL    HW170009   9.155  13.086  13.848
22704SOL    HW270010   9.126  12.978  13.950
22705SOL     OW70011   6.296  10.118   7.118
22705SOL    HW170012   6.378  10.075   7.141
22705SOL    HW270013   6.267  10.159   7.199
22706SOL     OW70014   6.383  13.281  13.285
22706SOL    HW170015   6.350  13.369  13.270
22706SOL    HW270016   6.476  13.292  13.305
22707SOL     OW70017   3.656   7.246   4.189
22707SOL    HW170018   3.747   7.224   4.207
22707SOL    HW270019   3.616   7.255   4.276
22708SOL     OW70020   5.071   1.649  13.713
22708SOL    HW170021   5.052   1.690  13.629
22708SOL    HW270022   5.130   1.710  13.757
22709SOL     OW70023  14.458   7.911   3.738
22709SOL    HW170024  14.517   7.946   3.672
22709SOL    HW270025  14.396   7.982   3.756
22710SOL     OW70026   4.860   8.397   1.062
22710SOL    HW170027   4.819   8.323   1.107
22710SOL    HW270028   4.918   8.357   0.998
22711SOL     OW70029   1.123   9.276   8.597
22711SOL    HW170030   1.097   9.364   8.627
22711SOL    HW270031   1.040   9.229   8.590
22712SOL     OW70032   9.869  12.624   3.153
22712SOL    HW170033   9.932  12.562   3.189
22712SOL    HW270034   9.919  12.703   3.136
22713SOL     OW70035  10.099   8.313   2.123
22713SOL    HW170036  10.016   8.344   2.087
22713SOL    HW270037  10.165   8.371   2.084
22714SOL     OW70038   6.451   5.714  10.560
22714SOL    HW170039   6.525   5.669  10.601
22714SOL    HW270040   6.466   5.807  10.578
22715SOL     OW70041   2.044   5.476   6.755
22715SOL    HW170042   2.063   5.386   6.727
22715SOL    HW270043   2.123   5.525   6.731
22716SOL     OW70044  10.395   3.470  12.881
22716SOL    HW170045  10.326   3.434  12.937
22716SOL    HW270046  10.436   3.394  12.841
22717SOL     OW70047  11.740   0.599   4.789
22717SOL    HW170048  11.732   0.694   4.780
22717SOL    HW270049  11.716   0.582   4.881
22718SOL     OW70050  14.332   0.622   5.438
22718SOL    HW170051  14.254   0.675   5.455
22718SOL    HW270052  14.336   0.561   5.513
22719SOL     OW70053   0.381  10.254   9.253
22719SOL    HW170054   0.407  10.286   9.167
22719SOL    HW270055   0.358  10.333   9.302
22720SOL     OW70056   1.119   6.714   0.153
22720SOL    HW170057   1.159   6.744   0.235
22720SOL    HW270058   1.092   6.794   0.109
22721SOL     OW70059   7.909   0.915  10.340
22721SOL    HW170060   7.884   0.983  10.403
22721SOL    HW270061   7.972   0.958  10.282
22722SOL     OW70062  12.213  14.809   3.043
22722SOL    HW170063  12.172  14.847   2.965
22722SOL    HW270064  12.163  14.729   3.059
22723SOL     OW70065  11.599  13.837  12.347
22723SOL    HW170066  11.670  13.897  12.325
22723SOL    HW270067  11.528  13.894  12.377
22724SOL     OW70068   5.734   0.482   2.350
22724SOL    HW170069   5.708   0.537   2.276
22724SOL    HW270070   5.669   0.411   2.351
22725SOL     OW70071   7.419   4.303   2.917
22725SOL    HW170072   7.434   4.304   3.011
22725SOL    HW270073   7.506   4.308   2.878
22726SOL     OW70074   5.400   6.902  13.247
22726SOL    HW170075   5.311   6.867  13.253
22726SOL    HW270076   5.446   6.862  13.321
22727SOL     OW70077   4.913   4.213  10.456
22727SOL    HW170078   4.987   4.225  10.397
22727SOL    HW270079   4.837   4.240  10.404
22728SOL     OW70080   6.044   1.483  11.362
22728SOL    HW170081   6.077   1.565  11.398
22728SOL    HW270082   6.108   1.458  11.296
22729SOL     OW70083   0.077   5.435   1.426
22729SOL    HW170084  14.879   5.391   1.422
22729SOL    HW270085   0.088   5.459   1.518
22730SOL     OW70086   0.944  11.907   0.627
22730SOL    HW170087   0.892  11.950   0.694
22730SOL    HW270088   1.032  11.944   0.637
22731SOL     OW70089   6.760   8.894   0.864
22731SOL    HW170090   6.677   8.847   0.867
22731SOL    HW270091   6.734   8.987   0.862
22732SOL     OW70092   1.128   2.924   9.777
22732SOL    HW170093   1.055   2.927   9.716
22732SOL    HW270094   1.189   2.861   9.738
22733SOL     OW70095  12.280  11.103  13.974
22733SOL    HW170096  12.362  11.081  13.930
22733SOL    HW270097  12.266  11.032  14.036
22734SOL     OW70098  10.474  13.094   5.051
22734SOL    HW170099  10.397  13.038   5.060
22734SOL    HW270100  10.477  13.145   5.131
22735SOL     OW70101   3.005  13.086   6.352
22735SOL    HW170102   2.921  13.102   6.394
22735SOL    HW270103   3.003  12.993   6.329
22736SOL     OW70104   8.325   6.906   3.489
22736SOL    HW170105   8.351   6.956   3.567
22736SOL    HW270106   8.311   6.972   3.422
22737SOL     OW70107   8.925  11.083   5.523
22737SOL    HW170108   8.956  11.026   5.452
22737SOL    HW270109   8.871  11.026   5.578
22738SOL     OW70110   1.156   8.789  12.789
22738SOL    HW170111   1.123   8.801  12.878
22738SOL    HW270112   1.251   8.780  12.800
22739SOL     OW70113   1.557   6.159   3.764
22739SOL    HW170114   1.622   6.204   3.818
22739SOL    HW270115   1.610   6.103   3.706
22740SOL     OW70116  13.463   8.740   8.051
22740SOL    HW170117  13.404   8.809   8.083
22740SOL    HW270118  13.411   8.692   7.987
22741SOL     OW70119  14.861  12.967  10.351
22741SOL    HW170120   0.013  12.914  10.282
22741SOL    HW270121  14.793  13.018  10.307
22742SOL     OW70122   5.237   2.301  12.285
22742SOL    HW170123   5.271   2.379  12.241
22742SOL    HW270124   5.153   2.284  12.243
22743SOL     OW70125  11.604   7.414  13.490
22743SOL    HW170126  11.595   7.499  13.447
22743SOL    HW270127  11.687   7.380  13.459
22744SOL     OW70128  11.718   7.949  12.101
22744SOL    HW170129  11.770   7.957  12.181
22744SOL    HW270130  11.781   7.927  12.033
22745SOL     OW70131   8.476   6.886   6.642
22745SOL    HW170132   8.540   6.900   6.712
22745SOL    HW270133   8.421   6.964   6.644
22746SOL     OW70134   7.278   3.613   4.047
22746SOL    HW170135   7.358   3.619   4.100
22746SOL    HW270136   7.275   3.521   4.021
22747SOL     OW70137   8.259   5.241  11.311
22747SOL    HW170138   8.304   5.191  11.379
22747SOL    HW270139   8.318   5.236  11.235
22748SOL     OW70140   7.236   5.259   2.664
22748SOL    HW170141   7.145   5.283   2.646
22748SOL    HW270142   7.266   5.323   2.729
22749SOL     OW70143   9.176   1.223   9.000
22749SOL    HW170144   9.237   1.287   9.036
22749SOL    HW270145   9.099   1.229   9.058
22750SOL     OW70146   4.024  14.068   8.635
22750SOL    HW170147   4.116  14.095   8.642
22750SOL    HW270148   4.007  14.018   8.714
22751SOL     OW70149   8.542   3.760  10.243
22751SOL    HW170150   8.615   3.821  10.258
22751SOL    HW270151   8.514   3.734  10.331
22752SOL     OW70152   4.574  10.103  11.201
22752SOL    HW170153   4.584  10.009  11.216
22752SOL    HW270154   4.528  10.135  11.279
22753SOL     OW70155  11.180   7.399  14.750
22753SOL    HW170156  11.086   7.382  14.754
22753SOL    HW270157  11.204   7.423  14.839
22754SOL     OW70158  13.255   7.132   5.778
22754SOL    HW170159  13.163   7.158   5.770
22754SOL    HW270160  13.280   7.104   5.691
22755SOL     OW70161   6.355  12.029   9.673
22755SOL    HW170162   6.306  12.020   9.592
22755SOL    HW270163   6.313  11.969   9.734
22756SOL     OW70164   3.724   9.273  13.926
22756SOL    HW170165   3.813   9.239  13.915
22756SOL    HW270166   3.682   9.259  13.841
22757SOL     OW70167   5.868   7.381   9.461
22757SOL    HW170168   5.904   7.442   9.397
22757SOL    HW270169   5.794   7.340   9.417
22758SOL     OW70170   9.501   6.524  10.320
22758SOL    HW170171   9.506   6.518  10.225
22758SOL    HW270172   9.563   6.593  10.344
22759SOL     OW70173  10.092   0.729  13.411
22759SOL    HW170174  10.062   0.655  13.464
22759SOL    HW270175  10.028   0.736  13.341
22760SOL     OW70176   3.407  11.609  11.311
22760SOL    HW170177   3.396  11.547  11.239
22760SOL    HW270178   3.461  11.562  11.375
22761SOL     OW70179  14.811   9.415  13.304
22761SOL    HW170180  14.877   9.361  13.262
22761SOL    HW270181  14.760   9.453  13.232
22762SOL     OW70182   4.334   0.694   9.863
22762SOL    HW170183   4.304   0.650   9.783
22762SOL    HW270184   4.403   0.636   9.897
22763SOL     OW70185  14.546   5.088  10.561
22763SOL    HW170186  14.464   5.098  10.513
22763SOL    HW270187  14.573   4.998  10.544
22764SOL     OW70188   4.785  11.013   5.656
22764SOL    HW170189   4.847  11.085   5.648
22764SOL    HW270190   4.809  10.952   5.586
22765SOL     OW70191  14.861  14.161  14.125
22765SOL    HW170192  14.792  14.110  14.081
22765SOL    HW270193   0.027  14.095  14.169
22766SOL     OW70194  14.680   7.393   1.187
22766SOL    HW170195  14.746   7.328   1.211
22766SOL    HW270196  14.660   7.439   1.268
22767SOL     OW70197   5.288   2.683   6.512
22767SOL    HW170198   5.331   2.766   6.488
22767SOL    HW270199   5.268   2.641   6.429
22768SOL     OW70200   1.520  14.328   3.798
22768SOL    HW170201   1.580  14.304   3.728
22768SOL    HW270202   1.540  14.420   3.817
22769SOL     OW70203  11.898   6.237  13.990
22769SOL    HW170204  11.850   6.318  13.974
22769SOL    HW270205  11.831   6.168  13.984
22770SOL     OW70206   0.712   2.763   3.877
22770SOL    HW170207   0.640   2.822   3.898
22770SOL    HW270208   0.791   2.814   3.895
22771SOL     OW70209   5.231   2.836   8.204
22771SOL    HW170210   5.305   2.893   8.225
22771SOL    HW270211   5.161   2.864   8.263
22772SOL     OW70212   6.446   8.161  10.607
22772SOL    HW170213   6.442   8.174  10.512
22772SOL    HW270214   6.518   8.099  10.619
22773SOL     OW70215   4.744  10.675   6.203
22773SOL    HW170216   4.787  10.625   6.134
22773SOL    HW270217   4.784  10.644   6.284
22774SOL     OW70218  13.055   1.858  12.075
22774SOL    HW170219  13.011   1.783  12.036
22774SOL    HW270220  13.143   1.858  12.036
22775SOL     OW70221  11.830   8.238   0.482
22775SOL    HW170222  11.797   8.212   0.396
22775SOL    HW270223  11.899   8.175   0.502
22776SOL     OW70224   5.576   7.400   3.559
22776SOL    HW170225   5.648   7.387   3.622
22776SOL    HW270226   5.530   7.316   3.558
22777SOL     OW70227  14.750   2.498  14.013
22777SOL    HW170228  14.797   2.420  13.984
22777SOL    HW270229  14.688   2.517  13.943
22778SOL     OW70230   8.120   2.786   5.423
22778SOL    HW170231   8.118   2.703   5.376
22778SOL    HW270232   8.091   2.764   5.512
22779SOL     OW70233   7.028  12.388   2.407
22779SOL    HW170234   7.066  12.474   2.389
22779SOL    HW270235   7.053  12.335   2.330
22780SOL     OW70236   8.961  14.403   6.399
22780SOL    HW170237   8.903  14.446   6.462
22780SOL    HW270238   8.925  14.314   6.390
22781SOL     OW70239  14.696  13.932   5.953
22781SOL    HW170240  14.721  13.850   5.995
22781SOL    HW270241  14.742  13.999   6.003
22782SOL     OW70242   8.529   0.823   8.678
22782SOL    HW170243   8.483   0.808   8.595
22782SOL    HW270244   8.566   0.911   8.669
22783SOL     OW70245   6.107   8.424   7.745
22783SOL    HW170246   6.052   8.429   7.667
22783SOL    HW270247   6.196   8.430   7.712
22784SOL     OW70248   5.837   0.376   9.589
22784SOL    HW170249   5.763   0.322   9.561
22784SOL    HW270250   5.799   0.462   9.605
22785SOL     OW70251   2.432  12.213  13.877
22785SOL    HW170252   2.340  12.193  13.859
22785SOL    HW270253   2.471  12.129  13.900
22786SOL     OW70254  11.127   7.870   0.724
22786SOL    HW170255  11.187   7.872   0.649
22786SOL    HW270256  11.089   7.958   0.726
22787SOL     OW70257   1.243   6.289  14.739
22787SOL    HW170258   1.316   6.236  14.770
22787SOL    HW270259   1.258   6.376  14.776
22788SOL     OW70260  12.844  11.704  13.795
22788SOL    HW170261  12.879  11.616  13.783
22788SOL    HW270262  12.897  11.741  13.866
22789SOL     OW70263   8.621  12.262  13.549
22789SOL    HW170264   8.607  12.350  13.516
22789SOL    HW270265   8.536  12.236  13.586
22790SOL     OW70266   6.677  10.659   1.700
22790SOL    HW170267   6.655  10.566   1.711
22790SOL    HW270268   6.724  10.682   1.779
22791SOL     OW70269   4.751  14.079   3.686
22791SOL    HW170270   4.833  14.056   3.730
22791SOL    HW270271   4.692  14.007   3.708
22792SOL     OW70272   4.831  11.912   7.820
22792SOL    HW170273   4.872  11.986   7.775
22792SOL    HW270274   4.874  11.909   7.905
22793SOL     OW70275  12.173   9.746   4.054
22793SOL    HW170276  12.171   9.825   4.109
22793SOL    HW270277  12.266   9.732   4.037
22794SOL     OW70278   7.203   2.456   8.127
22794SOL    HW170279   7.115   2.466   8.163
22794SOL    HW270280   7.256   2.426   8.201
22795SOL     OW70281  13.172  10.315   5.323
22795SOL    HW170282  13.224  10.254   5.374
22795SOL    HW270283  13.119  10.260   5.265
22796SOL     OW70284   4.984   4.684  12.192
22796SOL    HW170285   5.072   4.672  12.229
22796SOL    HW270286   4.973   4.611  12.132
22797SOL     OW70287   6.127  10.308  13.025
22797SOL    HW170288   6.048  10.332  13.074
22797SOL    HW270289   6.199  10.345  13.075
22798SOL     OW70290   2.092   7.789   0.787
22798SOL    HW170291   2.069   7.842   0.710
22798SOL    HW270292   2.015   7.735   0.803
22799SOL     OW70293  11.352   2.588   4.333
22799SOL    HW170294  11.303   2.509   4.356
22799SOL    HW270295  11.311   2.657   4.385
22800SOL     OW70296  14.807   3.769   6.145
22800SOL    HW170297  14.834   3.840   6.203
22800SOL    HW270298  14.806   3.809   6.058
22801SOL     OW70299  10.052   8.131  11.602
22801SOL    HW170300  10.146   8.148  11.609
22801SOL    HW270301  10.035   8.131  11.507
22802SOL     OW70302   0.741   0.488   0.372
22802SOL    HW170303   0.812   0.428   0.350
22802SOL    HW270304   0.666   0.432   0.392
22803SOL     OW70305  10.966   0.027   9.114
22803SOL    HW170306  10.944   0.067   9.030
22803SOL    HW270307  11.040   0.077   9.147
22804SOL     OW70308  12.849   0.010  11.520
22804SOL    HW170309  12.842  14.804  11.540
22804SOL    HW270310  12.809   0.019  11.434
22805SOL     OW70311   1.142  10.672   9.314
22805SOL    HW170312   1.088  10.674   9.235
22805SOL    HW270313   1.199  10.596   9.301
22806SOL     OW70314  10.635   2.338   9.160
22806SOL    HW170315  10.623   2.375   9.072
22806SOL    HW270316  10.690   2.402   9.205
22807SOL     OW70317  10.794   3.930  14.412
22807SOL    HW170318  10.710   3.975  14.404
22807SOL    HW270319  10.856   3.984  14.363
22808SOL     OW70320   7.692  14.779  11.134
22808SOL    HW170321   7.707  14.873  11.121
22808SOL    HW270322   7.777  14.744  11.159
22809SOL     OW70323   4.713  12.778   5.805
22809SOL    HW170324   4.667  12.805   5.725
22809SOL    HW270325   4.673  12.694   5.829
22810SOL     OW70326   3.065  12.415   5.826
22810SOL    HW170327   2.977  12.451   5.835
22810SOL    HW270328   3.052  12.327   5.789
22811SOL     OW70329   3.323   2.184  10.731
22811SOL    HW170330   3.385   2.247  10.768
22811SOL    HW270331   3.274   2.234  10.665
22812SOL     OW70332   9.350   1.019   5.746
22812SOL    HW170333   9.389   0.981   5.667
22812SOL    HW270334   9.294   1.090   5.713
22813SOL     OW70335   6.656   9.191   2.423
22813SOL    HW170336   6.612   9.117   2.464
22813SOL    HW270337   6.722   9.152   2.366
22814SOL     OW70338   9.960   0.348   3.916
22814SOL    HW170339   9.865   0.341   3.924
22814SOL    HW270340   9.983   0.426   3.966
22815SOL     OW70341  14.402  12.075   8.079
22815SOL    HW170342  14.458  12.073   8.002
22815SOL    HW270343  14.326  12.125   8.053
22816SOL     OW70344   1.039   8.216  11.781
22816SOL    HW170345   0.978   8.143  11.773
22816SOL    HW270346   1.012   8.262  11.861
22817SOL     OW70347   0.781  14.581   6.352
22817SOL    HW170348   0.777  14.676   6.364
22817SOL    HW270349   0.754  14.568   6.261
22818SOL     OW70350   8.474  10.025   2.307
22818SOL    HW170351   8.549   9.967   2.288
22818SOL    HW270352   8.406   9.995   2.247
22819SOL     OW70353   9.735  13.067   5.447
22819SOL    HW170354   9.776  13.131   5.389
22819SOL    HW270355   9.703  13.119   5.521
22820SOL     OW70356   5.553  13.159   3.346
22820SOL    HW170357   5.533  13.117   3.262
22820SOL    HW270358   5.618  13.226   3.325
22821SOL     OW70359   0.369   4.220   4.323
22821SOL    HW170360   0.451   4.207   4.276
22821SOL    HW270361   0.371   4.155   4.394
22822SOL     OW70362  11.789   3.019   0.200
22822SOL    HW170363  11.788   2.940   0.145
22822SOL    HW270364  11.697   3.037   0.217
22823SOL     OW70365   7.694   8.018  11.482
22823SOL    HW170366   7.784   8.041  11.504
22823SOL    HW270367   7.671   8.077  11.411
22824SOL     OW70368   8.911   4.483   8.081
22824SOL    HW170369   8.967   4.466   8.156
22824SOL    HW270370   8.892   4.396   8.045
22825SOL     OW70371   6.557  11.405   2.977
22825SOL    HW170372   6.494  11.333   2.987
22825SOL    HW270373   6.642  11.365   2.995
22826SOL     OW70374   5.655   2.979  14.229
22826SOL    HW170375   5.590   3.042  14.198
22826SOL    HW270376   5.713   3.031  14.285
22827SOL     OW70377  14.379  11.172   5.881
22827SOL    HW170378  14.310  11.166   5.947
22827SOL    HW270379  14.366  11.094   5.826
22828SOL     OW70380  12.442  13.828   8.174
22828SOL    HW170381  12.353  13.859   8.157
22828SOL    HW270382  12.440  13.736   8.149
22829SOL     OW70383  13.162   4.465   7.006
22829SOL    HW170384  13.174   4.418   6.923
22829SOL    HW270385  13.236   4.438   7.060
22830SOL     OW70386   5.239   1.937  13.459
22830SOL    HW170387   5.193   2.003  13.407
22830SOL    HW270388   5.324   1.927  13.415
22831SOL     OW70389   7.193   1.212  12.976
22831SOL    HW170390   7.252   1.231  12.903
22831SOL    HW270391   7.214   1.123  13.001
22832SOL     OW70392  11.713   4.214   0.420
22832SOL    HW170393  11.746   4.125   0.410
22832SOL    HW270394  11.673   4.216   0.507
22833SOL     OW70395   2.711  11.571   4.120
22833SOL    HW170396   2.681  11.628   4.192
22833SOL    HW270397   2.651  11.497   4.122
22834SOL     OW70398   0.972   1.446   8.729
22834SOL    HW170399   0.897   1.492   8.691
22834SOL    HW270400   1.031   1.432   8.655
22835SOL     OW70401  14.017   8.787   0.459
22835SOL    HW170402  14.088   8.821   0.514
22835SOL    HW270403  14.016   8.693   0.477
22836SOL     OW70404   8.480  12.965   7.624
22836SOL    HW170405   8.481  13.040   7.684
22836SOL    HW270406   8.419  12.990   7.555
22837SOL     OW70407   1.749  11.956   2.757
22837SOL    HW170408   1.794  11.892   2.702
22837SOL    HW270409   1.771  12.040   2.718
22838SOL     OW70410  10.800   3.825  11.752
22838SOL    HW170411  10.802   3.740  11.709
22838SOL    HW270412  10.836   3.886  11.687
22839SOL     OW70413  10.881  13.063   6.455
22839SOL    HW170414  10.796  13.031   6.426
22839SOL    HW270415  10.903  13.008   6.530
22840SOL     OW70416  11.379   6.412   8.027
22840SOL    HW170417  11.371   6.366   8.110
22840SOL    HW270418  11.360   6.503   8.048
22841SOL     OW70419   5.986   2.474  11.074
22841SOL    HW170420   5.945   2.402  11.027
22841SOL    HW270421   6.058   2.502  11.017
22842SOL     OW70422  10.142   0.889   7.510
22842SOL    HW170423  10.217   0.854   7.558
22842SOL    HW270424  10.152   0.856   7.421
22843SOL     OW70425  10.368   9.580   4.715
22843SOL    HW170426  10.325   9.597   4.799
22843SOL    HW270427  10.320   9.506   4.678
22844SOL     OW70428  10.013   4.464  12.287
22844SOL    HW170429   9.921   4.444  12.303
22844SOL    HW270430  10.012   4.548  12.242
22845SOL     OW70431   1.939  10.332  11.460
22845SOL    HW170432   1.964  10.302  11.372
22845SOL    HW270433   1.878  10.404  11.444
22846SOL     OW70434  11.313   2.782  11.025
22846SOL    HW170435  11.327   2.822  11.111
22846SOL    HW270436  11.286   2.693  11.045
22847SOL     OW70437  13.685  12.241   0.228
22847SOL    HW170438  13.724  12.300   0.165
22847SOL    HW270439  13.629  12.183   0.176
22848SOL     OW70440   2.521  11.420   5.236
22848SOL    HW170441   2.502  11.467   5.317
22848SOL    HW270442   2.593  11.361   5.259
22849SOL     OW70443   3.283   5.662   9.912
22849SOL    HW170444   3.285   5.735   9.849
22849SOL    HW270445   3.258   5.703   9.995
22850SOL     OW70446   4.609  10.491  14.794
22850SOL    HW170447   4.544  10.453  14.853
22850SOL    HW270448   4.647  10.564  14.843
22851SOL     OW70449  10.782   2.982  11.029
22851SOL    HW170450  10.764   3.075  11.016
22851SOL    HW270451  10.874   2.979  11.054
22852SOL     OW70452   2.127   6.332   6.052
22852SOL    HW170453   2.163   6.271   6.116
22852SOL    HW270454   2.193   6.401   6.044
22853SOL     OW70455  14.847  10.791   2.830
22853SOL    HW170456  14.766  10.793   2.779
22853SOL    HW270457   0.005  10.872   2.806
22854SOL     OW70458  12.861   7.528  11.982
22854SOL    HW170459  12.889   7.477  11.907
22854SOL    HW270460  12.926   7.598  11.990
22855SOL     OW70461   0.245   5.252   6.259
22855SOL    HW170462   0.151   5.233   6.267
22855SOL    HW270463   0.262   5.253   6.165
22856SOL     OW70464  11.793   1.876   0.506
22856SOL    HW170465  11.710   1.913   0.538
22856SOL    HW270466  11.801   1.793   0.552
22857SOL     OW70467   5.304   8.095   8.972
22857SOL    HW170468   5.375   8.052   8.924
22857SOL    HW270469   5.337   8.183   8.990
22858SOL     OW70470  13.562  11.456  11.652
22858SOL    HW170471  13.537  11.531  11.707
22858SOL    HW270472  13.514  11.382  11.689
22859SOL     OW70473   4.392   3.828   1.390
22859SOL    HW170474   4.309   3.780   1.390
22859SOL    HW270475   4.399   3.864   1.479
22860SOL     OW70476   6.328  11.033  14.569
22860SOL    HW170477   6.335  10.955  14.624
22860SOL    HW270478   6.263  11.087  14.613
22861SOL     OW70479  13.793  10.938   2.996
22861SOL    HW170480  13.813  10.951   3.089
22861SOL    HW270481  13.812  10.846   2.980
22862SOL     OW70482   5.241   9.402   6.087
22862SOL    HW170483   5.308   9.371   6.147
22862SOL    HW270484   5.228   9.494   6.110
22863SOL     OW70485   7.236  11.782   2.089
22863SOL    HW170486   7.275  11.704   2.129
22863SOL    HW270487   7.303  11.816   2.030
22864SOL     OW70488  14.264   1.647   8.157
22864SOL    HW170489  14.348   1.692   8.154
22864SOL    HW270490  14.286   1.554   8.168
22865SOL     OW70491  11.694   9.961   4.822
22865SOL    HW170492  11.743   9.927   4.897
22865SOL    HW270493  11.624  10.014   4.862
22866SOL     OW70494   8.163  12.243   1.041
22866SOL    HW170495   8.224  12.312   1.015
22866SOL    HW270496   8.180  12.229   1.134
22867SOL     OW70497   3.525  10.571   6.252
22867SOL    HW170498   3.573  10.624   6.315
22867SOL    HW270499   3.592  10.516   6.211
22868SOL     OW70500   2.538  12.358  14.069
22868SOL    HW170501   2.515  12.320  13.984
22868SOL    HW270502   2.464  12.335  14.126
22869SOL     OW70503  10.052  10.114   7.137
22869SOL    HW170504   9.964  10.091   7.166
22869SOL    HW270505  10.073  10.195   7.183
22870SOL     OW70506  13.282   2.716   7.786
22870SOL    HW170507  13.260   2.647   7.849
22870SOL    HW270508  13.212   2.712   7.721
22871SOL     OW70509  11.162   2.212   2.074
22871SOL    HW170510  11.192   2.162   2.151
22871SOL    HW270511  11.184   2.303   2.094
22872SOL     OW70512  11.804   5.652  12.035
22872SOL    HW170513  11.867   5.725  12.032
22872SOL    HW270514  11.741   5.672  11.966
22873SOL     OW70515   3.009   5.234   8.488
22873SOL    HW170516   3.061   5.154   8.482
22873SOL    HW270517   2.919   5.203   8.489
22874SOL     OW70518  10.195   2.825  10.267
22874SOL    HW170519  10.257   2.763  10.305
22874SOL    HW270520  10.135   2.845  10.339
22875SOL     OW70521   5.010   7.032  12.601
22875SOL    HW170522   5.078   6.985  12.551
22875SOL    HW270523   4.934   6.974  12.597
22876SOL     OW70524   3.346   0.116   1.072
22876SOL    HW170525   3.413   0.151   1.131
22876SOL    HW270526   3.393   0.099   0.990
22877SOL     OW70527   7.125  14.421  12.204
22877SOL    HW170528   7.058  14.488  12.190
22877SOL    HW270529   7.118  14.400  12.297
22878SOL     OW70530   3.922   1.129   5.810
22878SOL    HW170531   3.913   1.211   5.762
22878SOL    HW270532   3.835   1.112   5.846
22879SOL     OW70533  11.852   7.793   0.122
22879SOL    HW170534  11.905   7.816   0.045
22879SOL    HW270535  11.827   7.702   0.106
22880SOL     OW70536  12.050   5.409   9.053
22880SOL    HW170537  12.092   5.480   9.004
22880SOL    HW270538  12.028   5.448   9.138
22881SOL     OW70539   9.625   1.160   9.970
22881SOL    HW170540   9.603   1.106  10.045
22881SOL    HW270541   9.553   1.147   9.908
22882SOL     OW70542  13.749   8.515   0.721
22882SOL    HW170543  13.827   8.535   0.773
22882SOL    HW270544  13.775   8.443   0.664
22883SOL     OW70545   0.987   6.243  11.217
22883SOL    HW170546   0.998   6.328  11.260
22883SOL    HW270547   0.901   6.213  11.245
22884SOL     OW70548  14.437  12.264  13.673
22884SOL    HW170549  14.391  12.229  13.749
22884SOL    HW270550  14.417  12.358  13.674
22885SOL     OW70551   1.394   9.439   0.776
22885SOL    HW170552   1.383   9.534   0.774
22885SOL    HW270553   1.428   9.420   0.863
22886SOL     OW70554   3.588   8.668   9.564
22886SOL    HW170555   3.576   8.665   9.469
22886SOL    HW270556   3.548   8.587   9.595
22887SOL     OW70557   3.879  12.617  14.801
22887SOL    HW170558   3.885  12.551  14.732
22887SOL    HW270559   3.970  12.642  14.819
22888SOL     OW70560   2.428   9.171  13.114
22888SOL    HW170561   2.447   9.105  13.180
22888SOL    HW270562   2.394   9.245  13.163
22889SOL     OW70563  10.511   4.459   5.958
22889SOL    HW170564  10.530   4.381   6.010
22889SOL    HW270565  10.437   4.500   6.004
22890SOL     OW70566   9.435  14.093   8.839
22890SOL    HW170567   9.413  14.000   8.837
22890SOL    HW270568   9.530  14.095   8.826
22891SOL     OW70569   9.099   2.203  12.322
22891SOL    HW170570   9.058   2.144  12.385
22891SOL    HW270571   9.130   2.277  12.375
22892SOL     OW70572   7.927   4.120   5.154
22892SOL    HW170573   7.841   4.149   5.124
22892SOL    HW270574   7.940   4.035   5.112
22893SOL     OW70575   2.803  10.987  10.552
22893SOL    HW170576   2.821  11.066  10.501
22893SOL    HW270577   2.880  10.932  10.540
22894SOL     OW70578   6.117   9.027   4.823
22894SOL    HW170579   6.041   8.971   4.806
22894SOL    HW270580   6.119   9.036   4.918
22895SOL     OW70581   8.633  14.023  12.414
22895SOL    HW170582   8.659  13.949  12.359
22895SOL    HW270583   8.607  14.091  12.351
22896SOL     OW70584   0.423   4.979   7.869
22896SOL    HW170585   0.424   4.899   7.816
22896SOL    HW270586   0.449   4.949   7.957
22897SOL     OW70587   0.589   3.076   7.690
22897SOL    HW170588   0.499   3.074   7.656
22897SOL    HW270589   0.633   3.004   7.645
22898SOL     OW70590   2.286  12.264  14.222
22898SOL    HW170591   2.337  12.197  14.268
22898SOL    HW270592   2.195  12.248  14.250
22899SOL     OW70593  13.691   0.666  13.723
22899SOL    HW170594  13.743   0.597  13.680
22899SOL    HW270595  13.700   0.647  13.816
22900SOL     OW70596  11.082   4.355   0.903
22900SOL    HW170597  11.149   4.298   0.940
22900SOL    HW270598  11.110   4.370   0.812
22901SOL     OW70599   0.384  11.828   5.363
22901SOL    HW170600   0.366  11.921   5.352
22901SOL    HW270601   0.307  11.784   5.328
22902SOL     OW70602  10.476  12.475   3.501
22902SOL    HW170603  10.450  12.411   3.435
22902SOL    HW270604  10.395  12.496   3.547
22903SOL     OW70605   7.662   5.650  11.846
22903SOL    HW170606   7.714   5.650  11.927
22903SOL    HW270607   7.677   5.563  11.808
22904SOL     OW70608   3.900   4.828   1.662
22904SOL    HW170609   3.875   4.774   1.737
22904SOL    HW270610   3.973   4.781   1.622
22905SOL     OW70611  10.460   1.336  12.997
22905SOL    HW170612  10.381   1.295  13.033
22905SOL    HW270613  10.439   1.351  12.905
22906SOL     OW70614   9.147   6.838   0.988
22906SOL    HW170615   9.183   6.825   1.075
22906SOL    HW270616   9.139   6.933   0.979
22907SOL     OW70617   8.951   5.488  12.422
22907SOL    HW170618   8.964   5.403  12.380
22907SOL    HW270619   8.917   5.467  12.509
22908SOL     OW70620   7.372   4.028   2.901
22908SOL    HW170621   7.389   4.122   2.895
22908SOL    HW270622   7.315   4.019   2.977
22909SOL     OW70623   8.751   0.692   2.419
22909SOL    HW170624   8.732   0.786   2.410
22909SOL    HW270625   8.690   0.662   2.486
22910SOL     OW70626   0.216   9.399  12.793
22910SOL    HW170627   0.219   9.494  12.805
22910SOL    HW270628   0.294   9.367  12.837
22911SOL     OW70629  10.174   6.718  13.787
22911SOL    HW170630  10.119   6.670  13.725
22911SOL    HW270631  10.126   6.799  13.805
22912SOL     OW70632  13.174  13.460   5.900
22912SOL    HW170633  13.240  13.511   5.854
22912SOL    HW270634  13.224  13.400   5.955
22913SOL     OW70635  12.805   5.645  10.623
22913SOL    HW170636  12.818   5.573  10.685
22913SOL    HW270637  12.760   5.713  10.674
22914SOL     OW70638   1.279  10.838   9.946
22914SOL    HW170639   1.284  10.801  10.035
22914SOL    HW270640   1.187  10.863   9.936
22915SOL     OW70641  12.719  14.549   5.282
22915SOL    HW170642  12.771  14.497   5.220
22915SOL    HW270643  12.751  14.638   5.272
22916SOL     OW70644  12.779   4.417   0.462
22916SOL    HW170645  12.818   4.346   0.411
22916SOL    HW270646  12.794   4.392   0.553
22917SOL     OW70647   5.906   3.449   1.279
22917SOL    HW170648   5.973   3.458   1.347
22917SOL    HW270649   5.930   3.369   1.232
22918SOL     OW70650   0.193   0.482   2.240
22918SOL    HW170651   0.160   0.395   2.262
22918SOL    HW270652   0.215   0.522   2.324
22919SOL     OW70653   3.029   1.540  10.086
22919SOL    HW170654   3.112   1.499  10.108
22919SOL    HW270655   2.966   1.468  10.083
22920SOL     OW70656   6.229  13.471  14.385
22920SOL    HW170657   6.153  13.452  14.440
22920SOL    HW270658   6.304  13.456  14.442
22921SOL     OW70659  13.568   4.086   8.892
22921SOL    HW170660  13.507   4.149   8.853
22921SOL    HW270661  13.511   4.026   8.941
22922SOL     OW70662   9.550   2.261   0.287
22922SOL    HW170663   9.455   2.258   0.296
22922SOL    HW270664   9.565   2.297   0.200
22923SOL     OW70665  14.529  11.180  10.776
22923SOL    HW170666  14.571  11.100  10.808
22923SOL    HW270667  14.492  11.221  10.854
22924SOL     OW70668   4.695   2.223   6.210
22924SOL    HW170669   4.603   2.250   6.209
22924SOL    HW270670   4.734   2.270   6.136
22925SOL     OW70671   5.897   0.465   7.413
22925SOL    HW170672   5.803   0.483   7.418
22925SOL    HW270673   5.904   0.371   7.428
22926SOL     OW70674  13.053   8.649   5.449
22926SOL    HW170675  13.053   8.695   5.365
22926SOL    HW270676  12.976   8.683   5.495
22927SOL     OW70677   9.592   9.265  11.768
22927SOL    HW170678   9.599   9.321  11.691
22927SOL    HW270679   9.560   9.181  11.734
22928SOL     OW70680   2.697   8.417   2.874
22928SOL    HW170681   2.672   8.327   2.891
22928SOL    HW270682   2.615   8.463   2.861
22929SOL     OW70683   3.621   2.262   7.151
22929SOL    HW170684   3.633   2.357   7.149
22929SOL    HW270685   3.620   2.236   7.059
22930SOL     OW70686   5.841  13.441   6.387
22930SOL    HW170687   5.833  13.347   6.405
22930SOL    HW270688   5.769  13.480   6.436
22931SOL     OW70689   6.210   2.710   9.481
22931SOL    HW170690   6.169   2.627   9.459
22931SOL    HW270691   6.304   2.695   9.468
22932SOL     OW70692   8.851   4.852  12.505
22932SOL    HW170693   8.838   4.768  12.548
22932SOL    HW270694   8.763   4.879  12.478
22933SOL     OW70695   5.939   5.620   8.084
22933SOL    HW170696   5.884   5.696   8.068
22933SOL    HW270697   5.973   5.633   8.173
22934SOL     OW70698  12.440  13.262   3.018
22934SOL    HW170699  12.497  13.321   2.968
22934SOL    HW270700  12.420  13.311   3.098
22935SOL     OW70701  10.968   9.320   8.836
22935SOL    HW170702  10.979   9.233   8.876
22935SOL    HW270703  10.879   9.345   8.859
22936SOL     OW70704  13.121   3.184  12.818
22936SOL    HW170705  13.108   3.090  12.822
22936SOL    HW270706  13.215   3.196  12.804
22937SOL     OW70707   3.301   4.374   9.168
22937SOL    HW170708   3.299   4.279   9.171
22937SOL    HW270709   3.239   4.397   9.098
22938SOL     OW70710   7.503  10.976  12.057
22938SOL    HW170711   7.591  10.940  12.064
22938SOL    HW270712   7.513  11.068  12.079
22939SOL     OW70713   7.365  11.407   8.778
22939SOL    HW170714   7.441  11.365   8.738
22939SOL    HW270715   7.308  11.429   8.704
22940SOL     OW70716   5.134   3.363   4.276
22940SOL    HW170717   5.136   3.391   4.368
22940SOL    HW270718   5.165   3.439   4.228
22941SOL     OW70719   3.860   8.723   2.533
22941SOL    HW170720   3.774   8.754   2.562
22941SOL    HW270721   3.887   8.661   2.601
22942SOL     OW70722   0.227   1.399   5.154
22942SOL    HW170723   0.293   1.411   5.086
22942SOL    HW270724   0.148   1.440   5.118
22943SOL     OW70725   7.365   4.616   3.685
22943SOL    HW170726   7.421   4.589   3.757
22943SOL    HW270727   7.308   4.541   3.669
22944SOL     OW70728   5.393   6.525   0.257
22944SOL    HW170729   5.407   6.559   0.169
22944SOL    HW270730   5.433   6.438   0.256
22945SOL     OW70731  11.017   0.132   5.499
22945SOL    HW170732  11.034   0.149   5.592
22945SOL    HW270733  11.058   0.048   5.481
22946SOL     OW70734   9.963  10.956  13.344
22946SOL    HW170735   9.897  10.919  13.404
22946SOL    HW270736  10.027  10.998  13.402
22947SOL     OW70737  13.174   0.486  11.946
22947SOL    HW170738  13.199   0.431  11.872
22947SOL    HW270739  13.090   0.524  11.921
22948SOL     OW70740   5.408   9.330   2.054
22948SOL    HW170741   5.366   9.415   2.065
22948SOL    HW270742   5.472   9.343   1.984
22949SOL     OW70743   3.286   1.630   6.899
22949SOL    HW170744   3.269   1.560   6.837
22949SOL    HW270745   3.332   1.697   6.848
22950SOL     OW70746   6.954   5.142   5.141
22950SOL    HW170747   6.974   5.064   5.193
22950SOL    HW270748   7.005   5.131   5.061
22951SOL     OW70749   4.096  10.192   5.476
22951SOL    HW170750   4.013  10.146   5.464
22951SOL    HW270751   4.140  10.144   5.546
22952SOL     OW70752   9.933   9.072   0.888
22952SOL    HW170753   9.907   9.156   0.851
22952SOL    HW270754   9.948   9.090   0.981
22953SOL     OW70755   1.555   7.242   4.762
22953SOL    HW170756   1.645   7.225   4.734
22953SOL    HW270757   1.562   7.317   4.820
22954SOL     OW70758   0.547   4.599   2.699
22954SOL    HW170759   0.492   4.608   2.622
22954SOL    HW270760   0.532   4.509   2.729
22955SOL     OW70761   3.028   0.004   2.325
22955SOL    HW170762   2.946   0.050   2.306
22955SOL    HW270763   3.047  14.842   2.245
22956SOL     OW70764   1.719   0.213   9.964
22956SOL    HW170765   1.688   0.288   9.914
22956SOL    HW270766   1.732   0.247  10.053
22957SOL     OW70767  10.693   4.013   0.281
22957SOL    HW170768  10.716   4.037   0.371
22957SOL    HW270769  10.605   3.975   0.287
22958SOL     OW70770   9.134   8.679   6.713
22958SOL    HW170771   9.181   8.709   6.791
22958SOL    HW270772   9.065   8.622   6.746
22959SOL     OW70773   4.401   9.038   5.089
22959SOL    HW170774   4.458   9.113   5.075
22959SOL    HW270775   4.313   9.074   5.086
22960SOL     OW70776   7.862   4.257  13.930
22960SOL    HW170777   7.833   4.174  13.893
22960SOL    HW270778   7.814   4.323  13.878
22961SOL     OW70779  13.657   3.984   2.536
22961SOL    HW170780  13.666   3.942   2.622
22961SOL    HW270781  13.728   4.049   2.533
22962SOL     OW70782   6.680   4.255  14.392
22962SOL    HW170783   6.650   4.209  14.470
22962SOL    HW270784   6.729   4.189  14.343
22963SOL     OW70785   1.387   3.160   0.657
22963SOL    HW170786   1.395   3.072   0.619
22963SOL    HW270787   1.422   3.218   0.590
22964SOL     OW70788   2.445   7.611  12.232
22964SOL    HW170789   2.421   7.595  12.323
22964SOL    HW270790   2.378   7.565  12.181
22965SOL     OW70791   9.866  14.313   5.056
22965SOL    HW170792   9.798  14.319   5.123
22965SOL    HW270793   9.820  14.282   4.978
22966SOL     OW70794   5.787   2.042  13.670
22966SOL    HW170795   5.720   2.095  13.626
22966SOL    HW270796   5.867   2.057  13.619
22967SOL     OW70797   0.524  11.983  11.750
22967SOL    HW170798   0.519  12.072  11.716
22967SOL    HW270799   0.433  11.959  11.768
22968SOL     OW70800   1.473   1.982  14.611
22968SOL    HW170801   1.532   1.927  14.661
22968SOL    HW270802   1.391   1.980  14.660
22969SOL     OW70803   4.671   2.005  11.876
22969SOL    HW170804   4.670   2.099  11.861
22969SOL    HW270805   4.706   1.995  11.965
22970SOL     OW70806   3.957   6.234  12.072
22970SOL    HW170807   4.006   6.240  12.154
22970SOL    HW270808   3.998   6.162  12.025
22971SOL     OW70809   2.635   2.683  10.148
22971SOL    HW170810   2.648   2.589  10.166
22971SOL    HW270811   2.663   2.694  10.057
22972SOL     OW70812   8.172  13.521   9.617
22972SOL    HW170813   8.100  13.575   9.650
22972SOL    HW270814   8.207  13.478   9.695
22973SOL     OW70815   1.069  12.264   7.570
22973SOL    HW170816   1.074  12.274   7.665
22973SOL    HW270817   1.018  12.340   7.541
22974SOL     OW70818  10.548   0.947   8.404
22974SOL    HW170819  10.488   0.921   8.334
22974SOL    HW270820  10.528   1.039   8.421
22975SOL     OW70821   5.409   5.138   3.089
22975SOL    HW170822   5.376   5.098   3.009
22975SOL    HW270823   5.362   5.093   3.160
22976SOL     OW70824   9.222   8.887   4.111
22976SOL    HW170825   9.193   8.823   4.046
22976SOL    HW270826   9.148   8.896   4.171
22977SOL     OW70827   2.367   1.186   9.450
22977SOL    HW170828   2.318   1.215   9.373
22977SOL    HW270829   2.390   1.267   9.495
22978SOL     OW70830   7.405   2.586  13.396
22978SOL    HW170831   7.418   2.492  13.389
22978SOL    HW270832   7.478   2.624  13.346
22979SOL     OW70833   3.295  13.173  14.826
22979SOL    HW170834   3.357  13.136   0.001
22979SOL    HW270835   3.278  13.262  14.858
22980SOL     OW70836   9.592   7.793  12.620
22980SOL    HW170837   9.539   7.781  12.698
22980SOL    HW270838   9.532   7.776  12.547
22981SOL     OW70839   3.166   4.511   9.688
22981SOL    HW170840   3.220   4.519   9.767
22981SOL    HW270841   3.102   4.443   9.710
22982SOL     OW70842  12.334  14.351   6.855
22982SOL    HW170843  12.328  14.334   6.949
22982SOL    HW270844  12.257  14.404   6.835
22983SOL     OW70845   6.892   1.434  13.828
22983SOL    HW170846   6.837   1.364  13.862
22983SOL    HW270847   6.892   1.421  13.733
22984SOL     OW70848   9.833   4.238  12.497
22984SOL    HW170849   9.816   4.327  12.468
22984SOL    HW270850   9.909   4.210  12.446
22985SOL     OW70851   9.234  10.003  10.147
22985SOL    HW170852   9.297  10.059  10.102
22985SOL    HW270853   9.270   9.915  10.138
22986SOL     OW70854  12.780  11.371  12.182
22986SOL    HW170855  12.852  11.381  12.119
22986SOL    HW270856  12.702  11.363  12.127
22987SOL     OW70857   8.637   0.902   1.066
22987SOL    HW170858   8.589   0.925   0.986
22987SOL    HW270859   8.612   0.811   1.084
22988SOL     OW70860   8.265   6.976   7.488
22988SOL    HW170861   8.268   6.922   7.409
22988SOL    HW270862   8.256   7.065   7.456
22989SOL     OW70863  13.450   5.701   3.500
22989SOL    HW170864  13.519   5.765   3.518
22989SOL    HW270865  13.464   5.633   3.567
22990SOL     OW70866   4.414   0.054   9.370
22990SOL    HW170867   4.346   0.011   9.422
22990SOL    HW270868   4.466   0.101   9.435
22991SOL     OW70869   1.488  14.694   9.423
22991SOL    HW170870   1.484  14.598   9.419
22991SOL    HW270871   1.580  14.714   9.408
22992SOL     OW70872  13.591   4.917   2.962
22992SOL    HW170873  13.560   5.007   2.951
22992SOL    HW270874  13.686   4.926   2.967
22993SOL     OW70875  12.278  14.286   7.129
22993SOL    HW170876  12.189  14.297   7.096
22993SOL    HW270877  12.288  14.356   7.193
22994SOL     OW70878   1.057   1.378   4.196
22994SOL    HW170879   1.145   1.341   4.189
22994SOL    HW270880   1.070   1.472   4.183
22995SOL     OW70881   7.898   8.883  12.797
22995SOL    HW170882   7.807   8.855  12.806
22995SOL    HW270883   7.941   8.852  12.877
22996SOL     OW70884   6.263  11.794  14.037
22996SOL    HW170885   6.246  11.711  14.081
22996SOL    HW270886   6.209  11.857  14.084
22997SOL     OW70887  14.508   0.924   5.672
22997SOL    HW170888  14.478   0.953   5.585
22997SOL    HW270889  14.604   0.926   5.665
22998SOL     OW70890   5.270   1.554  10.368
22998SOL    HW170891   5.214   1.597  10.433
22998SOL    HW270892   5.312   1.483  10.415
22999SOL     OW70893   6.771  10.079   6.794
22999SOL    HW170894   6.851  10.028   6.808
22999SOL    HW270895   6.702  10.027   6.835
23000SOL     OW70896   8.266   5.436   6.133
23000SOL    HW170897   8.289   5.508   6.074
23000SOL    HW270898   8.350   5.401   6.161
23001SOL     OW70899   1.682   0.333   3.048
23001SOL    HW170900   1.743   0.361   3.116
23001SOL    HW270901   1.595   0.345   3.087
23002SOL     OW70902   3.804  11.887  10.176
23002SOL    HW170903   3.869  11.940  10.129
23002SOL    HW270904   3.781  11.939  10.253
23003SOL     OW70905  10.768  10.341   6.097
23003SOL    HW170906  10.753  10.340   6.191
23003SOL    HW270907  10.805  10.427   6.079
23004SOL     OW70908   7.493   4.608  11.187
23004SOL    HW170909   7.426   4.581  11.251
23004SOL    HW270910   7.519   4.527  11.144
23005SOL     OW70911   5.631   8.561  14.060
23005SOL    HW170912   5.688   8.583  14.134
23005SOL    HW270913   5.690   8.558  13.984
23006SOL     OW70914   8.515  13.378   2.473
23006SOL    HW170915   8.435  13.409   2.430
23006SOL    HW270916   8.501  13.393   2.566
23007SOL     OW70917   6.679   1.502  10.071
23007SOL    HW170918   6.595   1.537  10.041
23007SOL    HW270919   6.692   1.541  10.158
23008SOL     OW70920   2.322  14.185  11.103
23008SOL    HW170921   2.382  14.152  11.036
23008SOL    HW270922   2.357  14.150  11.185
23009SOL     OW70923   9.916   2.984   0.566
23009SOL    HW170924   9.980   3.000   0.635
23009SOL    HW270925   9.832   3.005   0.607
23010SOL     OW70926  11.172   1.078  12.569
23010SOL    HW170927  11.150   1.029  12.648
23010SOL    HW270928  11.213   1.014  12.511
23011SOL     OW70929   6.923   5.210   8.545
23011SOL    HW170930   6.986   5.139   8.529
23011SOL    HW270931   6.963   5.287   8.504
23012SOL     OW70932   4.831   4.664   6.662
23012SOL    HW170933   4.780   4.669   6.743
23012SOL    HW270934   4.919   4.638   6.690
23013SOL     OW70935   8.565   5.591   3.569
23013SOL    HW170936   8.548   5.671   3.619
23013SOL    HW270937   8.626   5.619   3.500
23014SOL     OW70938   2.272   2.205   7.816
23014SOL    HW170939   2.246   2.175   7.728
23014SOL    HW270940   2.242   2.296   7.819
23015SOL     OW70941   1.394   7.680   3.626
23015SOL    HW170942   1.338   7.668   3.549
23015SOL    HW270943   1.420   7.591   3.650
23016SOL     OW70944   7.549  12.445  13.843
23016SOL    HW170945   7.623  12.501  13.868
23016SOL    HW270946   7.502  12.496  13.777
23017SOL     OW70947   8.252   8.550   8.284
23017SOL    HW170948   8.195   8.550   8.207
23017SOL    HW270949   8.193   8.572   8.357
23018SOL     OW70950   2.030  14.290   3.131
23018SOL    HW170951   2.096  14.222   3.115
23018SOL    HW270952   1.959  14.268   3.071
23019SOL     OW70953   1.975  13.532   2.611
23019SOL    HW170954   1.956  13.501   2.522
23019SOL    HW270955   1.916  13.481   2.666
23020SOL     OW70956   5.898   1.867   4.827
23020SOL    HW170957   5.820   1.821   4.856
23020SOL    HW270958   5.917   1.830   4.741
23021SOL     OW70959  11.363  13.101  13.666
23021SOL    HW170960  11.443  13.150  13.685
23021SOL    HW270961  11.393  13.025  13.616
23022SOL     OW70962   4.781  10.888  14.041
23022SOL    HW170963   4.814  10.903  13.952
23022SOL    HW270964   4.686  10.884  14.030
23023SOL     OW70965   7.149  11.657   2.554
23023SOL    HW170966   7.142  11.585   2.491
23023SOL    HW270967   7.231  11.702   2.529
23024SOL     OW70968   0.320   3.891  13.381
23024SOL    HW170969   0.343   3.807  13.342
23024SOL    HW270970   0.290   3.944  13.307
23025SOL     OW70971   0.885   8.043   4.967
23025SOL    HW170972   0.840   8.118   4.927
23025SOL    HW270973   0.862   7.969   4.911
23026SOL     OW70974   4.700   9.010   0.499
23026SOL    HW170975   4.681   9.002   0.406
23026SOL    HW270976   4.615   8.997   0.542
23027SOL     OW70977  14.614  12.164  12.719
23027SOL    HW170978  14.534  12.213  12.700
23027SOL    HW270979  14.684  12.229  12.715
23028SOL     OW70980  12.674   5.919   9.585
23028SOL    HW170981  12.661   5.853   9.652
23028SOL    HW270982  12.663   5.871   9.502
23029SOL     OW70983   3.711   3.953   3.932
23029SOL    HW170984   3.643   3.913   3.877
23029SOL    HW270985   3.791   3.907   3.907
23030SOL     OW70986   9.702   4.672   4.849
23030SOL    HW170987   9.682   4.581   4.826
23030SOL    HW270988   9.690   4.677   4.943
23031SOL     OW70989  11.444  11.620   8.016
23031SOL    HW170990  11.439  11.666   8.099
23031SOL    HW270991  11.462  11.529   8.039
23032SOL     OW70992  11.316  13.729  12.894
23032SOL    HW170993  11.326  13.796  12.826
23032SOL    HW270994  11.403  13.720  12.932
23033SOL     OW70995   1.503   8.362  12.789
23033SOL    HW170996   1.425   8.418  12.783
23033SOL    HW270997   1.491   8.297  12.721
23034SOL     OW70998   1.590   8.500   6.717
23034SOL    HW170999   1.655   8.497   6.646
23034SOL    HW271000   1.529   8.429   6.697
23035SOL     OW71001   7.679   2.113  12.723
23035SOL    HW171002   7.720   2.176  12.782
23035SOL    HW271003   7.686   2.029  12.769
23036SOL     OW71004  12.241  14.714  14.310
23036SOL    HW171005  12.219  14.682  14.397
23036SOL    HW271006  12.204  14.648  14.251
23037SOL     OW71007   5.736   8.331   0.239
23037SOL    HW171008   5.774   8.283   0.166
23037SOL    HW271009   5.717   8.265   0.305
23038SOL     OW71010   0.283   8.523   8.184
23038SOL    HW171011   0.268   8.576   8.106
23038SOL    HW271012   0.358   8.565   8.227
23039SOL     OW71013  10.670   5.691  10.494
23039SOL    HW171014  10.658   5.778  10.532
23039SOL    HW271015  10.733   5.648  10.552
23040SOL     OW71016   0.255  12.652   6.334
23040SOL    HW171017   0.168  12.689   6.343
23040SOL    HW271018   0.248  12.592   6.260
23041SOL     OW71019   0.847  14.592   1.434
23041SOL    HW171020   0.865  14.674   1.479
23041SOL    HW271021   0.752  14.589   1.426
23042SOL     OW71022   5.373  13.141  14.185
23042SOL    HW171023   5.448  13.083  14.180
23042SOL    HW271024   5.378  13.178  14.273
23043SOL     OW71025   3.674   1.154   4.555
23043SOL    HW171026   3.659   1.059   4.560
23043SOL    HW271027   3.763   1.162   4.519
23044SOL     OW71028   4.667  12.169  12.467
23044SOL    HW171029   4.648  12.248  12.518
23044SOL    HW271030   4.654  12.097  12.529
23045SOL     OW71031  12.430  14.381  10.241
23045SOL    HW171032  12.363  14.420  10.184
23045SOL    HW271033  12.510  14.383  10.187
23046SOL     OW71034   1.000   2.248   4.595
23046SOL    HW171035   0.993   2.160   4.631
23046SOL    HW271036   0.918   2.262   4.548
23047SOL     OW71037   5.067  13.316   8.968
23047SOL    HW171038   5.024  13.361   8.895
23047SOL    HW271039   5.145  13.276   8.930
23048SOL     OW71040   1.609   1.514  10.738
23048SOL    HW171041   1.531   1.476  10.778
23048SOL    HW271042   1.585   1.605  10.719
23049SOL     OW71043  10.410   2.622  13.524
23049SOL    HW171044  10.326   2.616  13.569
23049SOL    HW271045  10.395   2.684  13.453
23050SOL     OW71046  13.816   0.579   4.722
23050SOL    HW171047  13.876   0.516   4.761
23050SOL    HW271048  13.863   0.663   4.726
23051SOL     OW71049   8.082   1.477  13.983
23051SOL    HW171050   8.173   1.449  13.988
23051SOL    HW271051   8.084   1.555  13.926
23052SOL     OW71052   5.911   0.317  12.768
23052SOL    HW171053   5.946   0.237  12.729
23052SOL    HW271054   5.987   0.372  12.782
23053SOL     OW71055   6.538   5.648  10.260
23053SOL    HW171056   6.574   5.717  10.205
23053SOL    HW271057   6.518   5.692  10.343
23054SOL     OW71058   3.225  11.392  11.653
23054SOL    HW171059   3.215  11.367  11.561
23054SOL    HW271060   3.274  11.474  11.650
23055SOL     OW71061   8.581   8.567   6.329
23055SOL    HW171062   8.487   8.580   6.320
23055SOL    HW271063   8.605   8.618   6.407
23056SOL     OW71064   0.202   6.460   2.281
23056SOL    HW171065   0.233   6.470   2.372
23056SOL    HW271066   0.282   6.445   2.230
23057SOL     OW71067   6.622  10.768   4.625
23057SOL    HW171068   6.681  10.692   4.623
23057SOL    HW271069   6.642  10.816   4.544
23058SOL     OW71070   1.325  11.238   3.654
23058SOL    HW171071   1.281  11.155   3.635
23058SOL    HW271072   1.281  11.301   3.596
23059SOL     OW71073  14.005  13.257  11.396
23059SOL    HW171074  14.048  13.335  11.361
23059SOL    HW271075  13.979  13.282  11.485
23060SOL     OW71076  11.971  11.013  10.802
23060SOL    HW171077  12.046  10.955  10.795
23060SOL    HW271078  12.008  11.101  10.807
23061SOL     OW71079  14.476   2.099   4.987
23061SOL    HW171080  14.410   2.136   4.929
23061SOL    HW271081  14.503   2.171   5.043
23062SOL     OW71082  13.923  11.454  13.301
23062SOL    HW171083  13.928  11.489  13.211
23062SOL    HW271084  13.911  11.532  13.355
23063SOL     OW71085   1.920  12.934   9.238
23063SOL    HW171086   1.881  12.953   9.152
23063SOL    HW271087   1.873  12.990   9.299
23064SOL     OW71088   0.072   8.557   4.604
23064SOL    HW171089  14.867   8.567   4.578
23064SOL    HW271090   0.119   8.613   4.542
23065SOL     OW71091   2.494  13.299   5.948
23065SOL    HW171092   2.544  13.237   6.001
23065SOL    HW271093   2.438  13.245   5.893
23066SOL     OW71094  14.670  11.685   4.767
23066SOL    HW171095  14.652  11.767   4.720
23066SOL    HW271096  14.664  11.617   4.700
23067SOL     OW71097   9.198   0.370  13.263
23067SOL    HW171098   9.136   0.318  13.315
23067SOL    HW271099   9.198   0.329  13.177
23068SOL     OW71100   7.648   2.131   1.611
23068SOL    HW171101   7.733   2.087   1.601
23068SOL    HW271102   7.664   2.220   1.581
23069SOL     OW71103   0.897   6.044   2.996
23069SOL    HW171104   0.907   6.010   2.907
23069SOL    HW271105   0.852   6.128   2.984
23070SOL     OW71106   2.802  13.967   4.839
23070SOL    HW171107   2.800  13.898   4.773
23070SOL    HW271108   2.789  13.921   4.922
23071SOL     OW71109  13.532  13.803  12.732
23071SOL    HW171110  13.515  13.897  12.742
23071SOL    HW271111  13.497  13.764  12.813
23072SOL     OW71112   2.068   7.736  11.462
23072SOL    HW171113   2.120   7.810  11.431
23072SOL    HW271114   2.125   7.660  11.449
23073SOL     OW71115   0.844   0.995  10.669
23073SOL    HW171116   0.807   1.081  10.687
23073SOL    HW271117   0.872   0.962  10.755
23074SOL     OW71118   4.050   3.197  14.576
23074SOL    HW171119   3.966   3.240  14.562
23074SOL    HW271120   4.076   3.165  14.489
23075SOL     OW71121  14.183   4.812   2.723
23075SOL    HW171122  14.179   4.846   2.812
23075SOL    HW271123  14.122   4.866   2.673
23076SOL     OW71124   8.291   4.889  14.540
23076SOL    HW171125   8.207   4.881  14.494
23076SOL    HW271126   8.316   4.799  14.562
23077SOL     OW71127   1.049   1.680   1.159
23077SOL    HW171128   1.052   1.584   1.165
23077SOL    HW271129   1.058   1.710   1.249
23078SOL     OW71130  13.572  12.465  10.206
23078SOL    HW171131  13.620  12.516  10.142
23078SOL    HW271132  13.634  12.399  10.237
23079SOL     OW71133   7.913   0.542   5.030
23079SOL    HW171134   7.982   0.557   5.095
23079SOL    HW271135   7.853   0.616   5.042
23080SOL     OW71136   6.337   2.158   2.675
23080SOL    HW171137   6.294   2.073   2.679
23080SOL    HW271138   6.331   2.192   2.765
23081SOL     OW71139  12.002   0.351   0.444
23081SOL    HW171140  12.043   0.411   0.381
23081SOL    HW271141  11.958   0.286   0.390
23082SOL     OW71142   6.766   6.553  14.054
23082SOL    HW171143   6.761   6.551  13.958
23082SOL    HW271144   6.820   6.477  14.077
23083SOL     OW71145   4.829   7.214  12.743
23083SOL    HW171146   4.868   7.280  12.800
23083SOL    HW271147   4.899   7.150  12.730
23084SOL     OW71148   8.639   9.738   6.633
23084SOL    HW171149   8.721   9.698   6.664
23084SOL    HW271150   8.570   9.687   6.676
23085SOL     OW71151   7.796   6.599   8.937
23085SOL    HW171152   7.721   6.593   8.878
23085SOL    HW271153   7.852   6.525   8.911
23086SOL     OW71154   8.950  10.022  12.395
23086SOL    HW171155   9.019  10.089  12.394
23086SOL    HW271156   8.984   9.953  12.337
23087SOL     OW71157  14.457  10.604   9.220
23087SOL    HW171158  14.471  10.648   9.304
23087SOL    HW271159  14.461  10.675   9.155
23088SOL     OW71160   9.619  11.079  14.153
23088SOL    HW171161   9.613  11.004  14.094
23088SOL    HW271162   9.680  11.051  14.221
23089SOL     OW71163   5.853   2.857   7.641
23089SOL    HW171164   5.906   2.812   7.575
23089SOL    HW271165   5.764   2.854   7.607
23090SOL     OW71166  14.338   4.429   3.532
23090SOL    HW171167  14.380   4.354   3.489
23090SOL    HW271168  14.393   4.447   3.607
23091SOL     OW71169   6.606   0.257   7.613
23091SOL    HW171170   6.660   0.219   7.544
23091SOL    HW271171   6.580   0.183   7.668
23092SOL     OW71172  13.604   7.357   7.683
23092SOL    HW171173  13.629   7.287   7.743
23092SOL    HW271174  13.640   7.331   7.598
23093SOL     OW71175   0.370   5.341   8.411
23093SOL    HW171176   0.365   5.421   8.360
23093SOL    HW271177   0.430   5.362   8.483
23094SOL     OW71178  14.391  14.576  12.910
23094SOL    HW171179  14.321  14.580  12.975
23094SOL    HW271180  14.362  14.635  12.840
23095SOL     OW71181   9.544   3.009   0.220
23095SOL    HW171182   9.608   2.998   0.150
23095SOL    HW271183   9.581   3.077   0.276
23096SOL     OW71184   0.058  11.909   6.058
23096SOL    HW171185   0.045  11.987   6.004
23096SOL    HW271186   0.014  11.839   6.010
23097SOL     OW71187  13.491   0.644   1.407
23097SOL    HW171188  13.409   0.599   1.386
23097SOL    HW271189  13.505   0.703   1.333
23098SOL     OW71190  11.920  11.004   7.807
23098SOL    HW171191  12.000  11.014   7.860
23098SOL    HW271192  11.893  10.913   7.822
23099SOL     OW71193   5.055  11.323   8.335
23099SOL    HW171194   5.008  11.252   8.379
23099SOL    HW271195   5.147  11.298   8.342
23100SOL     OW71196  12.255   8.341   3.454
23100SOL    HW171197  12.262   8.247   3.434
23100SOL    HW271198  12.334   8.361   3.504
23101SOL     OW71199   2.492  14.553  12.872
23101SOL    HW171200   2.562  14.531  12.933
23101SOL    HW271201   2.536  14.596  12.799
23102SOL     OW71202   1.214   3.190   7.617
23102SOL    HW171203   1.233   3.182   7.523
23102SOL    HW271204   1.286   3.142   7.659
23103SOL     OW71205   4.102  13.458  12.737
23103SOL    HW171206   4.114  13.533  12.679
23103SOL    HW271207   4.032  13.483  12.796
23104SOL     OW71208  10.450  10.681   3.279
23104SOL    HW171209  10.369  10.689   3.229
23104SOL    HW271210  10.423  10.642   3.362
23105SOL     OW71211  11.841   3.855  13.146
23105SOL    HW171212  11.931   3.884  13.132
23105SOL    HW271213  11.844   3.760  13.134
23106SOL     OW71214   2.829   3.798  12.477
23106SOL    HW171215   2.761   3.855  12.439
23106SOL    HW271216   2.878   3.855  12.535
23107SOL     OW71217   9.304   9.340   2.157
23107SOL    HW171218   9.252   9.417   2.182
23107SOL    HW271219   9.261   9.267   2.201
23108SOL     OW71220   7.985   0.386   1.013
23108SOL    HW171221   7.988   0.478   0.989
23108SOL    HW271222   7.915   0.349   0.958
23109SOL     OW71223   0.213   4.101  14.356
23109SOL    HW171224   0.155   4.141  14.291
23109SOL    HW271225   0.155   4.077  14.429
23110SOL     OW71226   0.084   6.038  11.840
23110SOL    HW171227   0.070   5.985  11.918
23110SOL    HW271228   0.016   6.105  11.844
23111SOL     OW71229   6.303   2.915  12.853
23111SOL    HW171230   6.245   2.953  12.787
23111SOL    HW271231   6.339   2.837  12.810
23112SOL     OW71232  10.210   4.644  13.064
23112SOL    HW171233  10.132   4.619  13.015
23112SOL    HW271234  10.215   4.740  13.054
23113SOL     OW71235   9.418   6.115   5.695
23113SOL    HW171236   9.416   6.159   5.610
23113SOL    HW271237   9.483   6.046   5.684
23114SOL     OW71238   6.169   0.491  11.949
23114SOL    HW171239   6.248   0.522  11.904
23114SOL    HW271240   6.138   0.567  11.999
23115SOL     OW71241  11.583   3.051   5.818
23115SOL    HW171242  11.524   3.006   5.878
23115SOL    HW271243  11.527   3.112   5.771
23116SOL     OW71244   7.870   8.098   8.589
23116SOL    HW171245   7.952   8.143   8.607
23116SOL    HW271246   7.868   8.088   8.494
23117SOL     OW71247   9.124  14.882   2.357
23117SOL    HW171248   9.071   0.021   2.282
23117SOL    HW271249   9.085  14.800   2.386
23118SOL     OW71250   8.473   1.037  11.992
23118SOL    HW171251   8.547   1.063  11.939
23118SOL    HW271252   8.431   0.967  11.942
23119SOL     OW71253   3.063   0.868  13.723
23119SOL    HW171254   3.120   0.845  13.797
23119SOL    HW271255   3.122   0.909  13.659
23120SOL     OW71256  12.612  13.173   6.337
23120SOL    HW171257  12.535  13.125   6.305
23120SOL    HW271258  12.686  13.119   6.311
23121SOL     OW71259   6.666  11.511  14.856
23121SOL    HW171260   6.602  11.581  14.842
23121SOL    HW271261   6.629  11.459   0.040
23122SOL     OW71262   1.615   5.920  10.762
23122SOL    HW171263   1.573   5.973  10.829
23122SOL    HW271264   1.579   5.832  10.774
23123SOL     OW71265   4.229  13.224   8.511
23123SOL    HW171266   4.231  13.221   8.416
23123SOL    HW271267   4.209  13.315   8.533
23124SOL     OW71268   4.307   6.906   7.735
23124SOL    HW171269   4.301   6.820   7.692
23124SOL    HW271270   4.247   6.962   7.686
23125SOL     OW71271   9.518   4.102   8.584
23125SOL    HW171272   9.536   4.195   8.570
23125SOL    HW271273   9.546   4.060   8.502
23126SOL     OW71274  13.376   2.394   0.977
23126SOL    HW171275  13.292   2.400   1.022
23126SOL    HW271276  13.433   2.346   1.038
23127SOL     OW71277   2.025  12.878   2.365
23127SOL    HW171278   1.930  12.890   2.366
23127SOL    HW271279   2.038  12.791   2.402
23128SOL     OW71280   3.223   8.254  13.481
23128SOL    HW171281   3.160   8.285  13.546
23128SOL    HW271282   3.219   8.320  13.411
23129SOL     OW71283  13.458   0.703  12.491
23129SOL    HW171284  13.527   0.650  12.451
23129SOL    HW271285  13.456   0.783  12.438
23130SOL     OW71286   2.579   6.638   4.862
23130SOL    HW171287   2.611   6.640   4.953
23130SOL    HW271288   2.655   6.608   4.811
23131SOL     OW71289   6.514  11.281   7.331
23131SOL    HW171290   6.565  11.354   7.366
23131SOL    HW271291   6.500  11.223   7.406
23132SOL     OW71292   1.662  12.059   0.346
23132SOL    HW171293   1.722  11.989   0.320
23132SOL    HW271294   1.720  12.132   0.370
23133SOL     OW71295   5.191   6.440  12.498
23133SOL    HW171296   5.264   6.500  12.511
23133SOL    HW271297   5.115   6.486  12.535
23134SOL     OW71298   6.388   3.541  13.583
23134SOL    HW171299   6.316   3.554  13.521
23134SOL    HW271300   6.425   3.456  13.559
23135SOL     OW71301   1.146   8.963   9.104
23135SOL    HW171302   1.196   9.035   9.142
23135SOL    HW271303   1.174   8.886   9.154
23136SOL     OW71304   6.105  11.880   3.205
23136SOL    HW171305   6.077  11.789   3.195
23136SOL    HW271306   6.086  11.921   3.120
23137SOL     OW71307   2.366  13.330   4.002
23137SOL    HW171308   2.290  13.352   4.057
23137SOL    HW271309   2.328  13.292   3.923
23138SOL     OW71310   5.333   2.354   4.873
23138SOL    HW171311   5.336   2.358   4.968
23138SOL    HW271312   5.389   2.280   4.850
23139SOL     OW71313   4.773   5.515  12.082
23139SOL    HW171314   4.791   5.571  12.157
23139SOL    HW271315   4.705   5.455  12.112
23140SOL     OW71316   2.891   6.022  10.424
23140SOL    HW171317   2.796   6.028  10.412
23140SOL    HW271318   2.921   6.113  10.424
23141SOL     OW71319  14.467   5.296   3.345
23141SOL    HW171320  14.562   5.311   3.351
23141SOL    HW271321  14.431   5.382   3.322
23142SOL     OW71322   6.423  14.486  12.871
23142SOL    HW171323   6.349  14.442  12.912
23142SOL    HW271324   6.469  14.418  12.823
23143SOL     OW71325  14.344  12.521  11.648
23143SOL    HW171326  14.353  12.606  11.691
23143SOL    HW271327  14.388  12.460  11.707
23144SOL     OW71328  14.387   4.266  13.508
23144SOL    HW171329  14.429   4.281  13.423
23144SOL    HW271330  14.302   4.310  13.501
23145SOL     OW71331  14.043   2.908   7.944
23145SOL    HW171332  13.959   2.924   7.901
23145SOL    HW271333  14.030   2.826   7.991
23146SOL     OW71334   7.015   1.303   7.355
23146SOL    HW171335   7.086   1.338   7.302
23146SOL    HW271336   6.935   1.335   7.312
23147SOL     OW71337  14.090  14.738   7.226
23147SOL    HW171338  14.092  14.644   7.207
23147SOL    HW271339  14.082  14.780   7.141
23148SOL     OW71340   2.656  13.458  14.768
23148SOL    HW171341   2.675  13.451  14.862
23148SOL    HW271342   2.570  13.417  14.758
23149SOL     OW71343   9.813   1.204   6.168
23149SOL    HW171344   9.806   1.298   6.152
23149SOL    HW271345   9.779   1.163   6.088
23150SOL     OW71346   8.190   4.169   5.195
23150SOL    HW171347   8.186   4.264   5.190
23150SOL    HW271348   8.100   4.140   5.177
23151SOL     OW71349   5.754   4.518  12.278
23151SOL    HW171350   5.780   4.589  12.336
23151SOL    HW271351   5.781   4.438  12.323
23152SOL     OW71352   7.972   4.609  11.584
23152SOL    HW171353   7.899   4.553  11.609
23152SOL    HW271354   8.031   4.551  11.536
23153SOL     OW71355   7.183  11.623  11.211
23153SOL    HW171356   7.137  11.573  11.144
23153SOL    HW271357   7.241  11.560  11.253
23154SOL     OW71358  10.358  11.001  13.161
23154SOL    HW171359  10.381  10.987  13.253
23154SOL    HW271360  10.418  10.945  13.112
23155SOL     OW71361   4.799  11.359  10.676
23155SOL    HW171362   4.715  11.358  10.630
23155SOL    HW271363   4.862  11.390  10.610
23156SOL     OW71364   5.186   0.297   4.992
23156SOL    HW171365   5.172   0.292   5.086
23156SOL    HW271366   5.250   0.368   4.981
23157SOL     OW71367  10.504  12.312  10.211
23157SOL    HW171368  10.599  12.314  10.200
23157SOL    HW271369  10.487  12.235  10.265
23158SOL     OW71370   0.187   6.952  14.331
23158SOL    HW171371   0.247   7.023  14.353
23158SOL    HW271372   0.243   6.884  14.293
23159SOL     OW71373  10.173  10.984   8.282
23159SOL    HW171374  10.136  10.916   8.226
23159SOL    HW271375  10.189  10.940   8.365
23160SOL     OW71376  13.230   2.715  14.176
23160SOL    HW171377  13.300   2.679  14.121
23160SOL    HW271378  13.245   2.810  14.175
23161SOL     OW71379   8.441   6.393   5.594
23161SOL    HW171380   8.419   6.349   5.511
23161SOL    HW271381   8.460   6.483   5.569
23162SOL     OW71382  12.041  13.362   5.843
23162SOL    HW171383  12.028  13.439   5.788
23162SOL    HW271384  12.050  13.289   5.781
23163SOL     OW71385   3.636   9.180   8.808
23163SOL    HW171386   3.569   9.213   8.868
23163SOL    HW271387   3.701   9.140   8.866
23164SOL     OW71388   6.836  10.496  10.338
23164SOL    HW171389   6.788  10.433  10.392
23164SOL    HW271390   6.794  10.491  10.252
23165SOL     OW71391   1.606  11.606   0.427
23165SOL    HW171392   1.635  11.692   0.457
23165SOL    HW271393   1.619  11.549   0.502
23166SOL     OW71394   1.366   7.828   9.389
23166SOL    HW171395   1.352   7.905   9.334
23166SOL    HW271396   1.296   7.831   9.453
23167SOL     OW71397   0.894   1.154   4.670
23167SOL    HW171398   0.888   1.083   4.733
23167SOL    HW271399   0.979   1.195   4.688
23168SOL     OW71400  10.990   5.950  12.917
23168SOL    HW171401  10.906   5.930  12.958
23168SOL    HW271402  10.986   5.905  12.832
23169SOL     OW71403   8.955   3.769   0.539
23169SOL    HW171404   8.981   3.708   0.607
23169SOL    HW271405   9.016   3.752   0.467
23170SOL     OW71406  10.930  11.632   2.461
23170SOL    HW171407  11.018  11.596   2.449
23170SOL    HW271408  10.875  11.555   2.479
23171SOL     OW71409  11.911   7.450   5.900
23171SOL    HW171410  11.910   7.539   5.865
23171SOL    HW271411  11.955   7.398   5.833
23172SOL     OW71412   9.358   8.438  12.704
23172SOL    HW171413   9.448   8.426  12.673
23172SOL    HW271414   9.342   8.532  12.692
23173SOL     OW71415   3.209   6.896   6.875
23173SOL    HW171416   3.285   6.918   6.930
23173SOL    HW271417   3.196   6.973   6.820
23174SOL     OW71418   7.306   1.358   3.743
23174SOL    HW171419   7.247   1.415   3.793
23174SOL    HW271420   7.392   1.373   3.782
23175SOL     OW71421   0.931  13.290   6.630
23175SOL    HW171422   0.975  13.244   6.701
23175SOL    HW271423   0.938  13.230   6.555
23176SOL     OW71424   3.497   2.475  13.659
23176SOL    HW171425   3.544   2.419  13.597
23176SOL    HW271426   3.484   2.421  13.736
23177SOL     OW71427   8.744   7.970  13.705
23177SOL    HW171428   8.726   7.971  13.611
23177SOL    HW271429   8.789   8.053  13.721
23178SOL     OW71430   4.233   7.225   2.510
23178SOL    HW171431   4.257   7.249   2.421
23178SOL    HW271432   4.173   7.151   2.499
23179SOL     OW71433  10.305   4.131   6.282
23179SOL    HW171434  10.276   4.121   6.373
23179SOL    HW271435  10.398   4.112   6.284
23180SOL     OW71436   9.738   0.658   2.976
23180SOL    HW171437   9.651   0.700   2.980
23180SOL    HW271438   9.797   0.729   2.952
23181SOL     OW71439   9.346   8.291   3.838
23181SOL    HW171440   9.403   8.312   3.764
23181SOL    HW271441   9.334   8.196   3.832
23182SOL     OW71442   2.838   7.201   3.673
23182SOL    HW171443   2.933   7.199   3.685
23182SOL    HW271444   2.812   7.289   3.701
23183SOL     OW71445   5.467   5.813   7.846
23183SOL    HW171446   5.458   5.734   7.793
23183SOL    HW271447   5.524   5.870   7.795
23184SOL     OW71448  13.057   3.498  13.914
23184SOL    HW171449  12.994   3.452  13.968
23184SOL    HW271450  13.069   3.583  13.957
23185SOL     OW71451  11.987   6.400   8.332
23185SOL    HW171452  11.929   6.349   8.275
23185SOL    HW271453  12.057   6.430   8.274
23186SOL     OW71454  13.098   1.946   6.972
23186SOL    HW171455  13.113   2.025   7.024
23186SOL    HW271456  13.169   1.887   6.998
23187SOL     OW71457   7.942   0.173   8.331
23187SOL    HW171458   7.893   0.221   8.398
23187SOL    HW271459   8.013   0.130   8.380
23188SOL     OW71460   7.792   7.586  10.121
23188SOL    HW171461   7.783   7.538  10.039
23188SOL    HW271462   7.844   7.663  10.098
23189SOL     OW71463  12.611   5.401  11.042
23189SOL    HW171464  12.527   5.446  11.054
23189SOL    HW271465  12.593   5.333  10.977
23190SOL     OW71466   5.082   8.228   0.441
23190SOL    HW171467   5.108   8.177   0.364
23190SOL    HW271468   5.065   8.162   0.508
23191SOL     OW71469   4.535  12.382   2.005
23191SOL    HW171470   4.558  12.468   2.040
23191SOL    HW271471   4.440  12.375   2.021
23192SOL     OW71472   9.805  14.886   7.206
23192SOL    HW171473   9.866   0.001   7.279
23192SOL    HW271474   9.743   0.069   7.224
23193SOL     OW71475  11.043  10.831  12.764
23193SOL    HW171476  11.105  10.760  12.748
23193SOL    HW271477  11.025  10.868  12.678
23194SOL     OW71478   5.901   4.729   7.875
23194SOL    HW171479   5.888   4.786   7.950
23194SOL    HW271480   5.963   4.775   7.819
23195SOL     OW71481  12.551  14.357   0.758
23195SOL    HW171482  12.599  14.327   0.680
23195SOL    HW271483  12.525  14.447   0.736
23196SOL     OW71484   3.799   3.776  10.792
23196SOL    HW171485   3.875   3.780  10.734
23196SOL    HW271486   3.728   3.816  10.742
23197SOL     OW71487  11.466   8.312  13.951
23197SOL    HW171488  11.382   8.358  13.953
23197SOL    HW271489  11.458   8.247  14.022
23198SOL     OW71490   6.841   4.465  13.665
23198SOL    HW171491   6.853   4.444  13.572
23198SOL    HW271492   6.855   4.383  13.711
23199SOL     OW71493  10.987  13.325   3.484
23199SOL    HW171494  11.003  13.349   3.575
23199SOL    HW271495  10.927  13.392   3.451
23200SOL     OW71496   3.940  13.472   9.219
23200SOL    HW171497   3.906  13.533   9.285
23200SOL    HW271498   3.867  13.415   9.197
23201SOL     OW71499   8.392  10.063   7.880
23201SOL    HW171500   8.317  10.035   7.827
23201SOL    HW271501   8.377  10.025   7.966
23202SOL     OW71502  10.431   5.520   8.427
23202SOL    HW171503  10.454   5.613   8.430
23202SOL    HW271504  10.513   5.475   8.408
23203SOL     OW71505   2.467   2.382   3.035
23203SOL    HW171506   2.418   2.317   2.985
23203SOL    HW271507   2.501   2.334   3.110
23204SOL     OW71508   1.618  14.141   7.520
23204SOL    HW171509   1.697  14.105   7.559
23204SOL    HW271510   1.584  14.070   7.465
23205SOL     OW71511   1.188  12.278   0.048
23205SOL    HW171512   1.282  12.277   0.028
23205SOL    HW271513   1.183  12.262   0.142
23206SOL     OW71514  13.811  10.910   9.045
23206SOL    HW171515  13.826  10.845   8.976
23206SOL    HW271516  13.807  10.859   9.126
23207SOL     OW71517   8.531   8.816   1.145
23207SOL    HW171518   8.493   8.798   1.231
23207SOL    HW271519   8.615   8.857   1.164
23208SOL     OW71520  11.700   8.395  10.760
23208SOL    HW171521  11.701   8.300  10.756
23208SOL    HW271522  11.616   8.420  10.721
23209SOL     OW71523   3.805   1.428   6.236
23209SOL    HW171524   3.763   1.470   6.160
23209SOL    HW271525   3.843   1.501   6.285
23210SOL     OW71526   7.146  14.466   6.158
23210SOL    HW171527   7.111  14.554   6.150
23210SOL    HW271528   7.121  14.422   6.077
23211SOL     OW71529  11.292   9.708   7.599
23211SOL    HW171530  11.253   9.669   7.678
23211SOL    HW271531  11.235   9.681   7.528
23212SOL     OW71532   3.182   6.390   1.674
23212SOL    HW171533   3.226   6.308   1.648
23212SOL    HW271534   3.089   6.372   1.661
23213SOL     OW71535   0.474  11.412   5.528
23213SOL    HW171536   0.569  11.407   5.517
23213SOL    HW271537   0.439  11.382   5.444
23214SOL     OW71538   7.863   3.200   2.307
23214SOL    HW171539   7.889   3.108   2.311
23214SOL    HW271540   7.945   3.248   2.298
23215SOL     OW71541  13.251  13.247  10.319
23215SOL    HW171542  13.211  13.161  10.310
23215SOL    HW271543  13.337  13.230  10.357
23216SOL     OW71544   3.191  14.252   3.544
23216SOL    HW171545   3.140  14.201   3.481
23216SOL    HW271546   3.175  14.210   3.629
23217SOL     OW71547   5.601  14.851  11.964
23217SOL    HW171548   5.571  14.854  12.055
23217SOL    HW271549   5.594   0.054  11.934
23218SOL     OW71550   3.089  10.179  13.487
23218SOL    HW171551   3.133  10.215  13.410
23218SOL    HW271552   3.099  10.085  13.479
23219SOL     OW71553   0.189   6.387   3.616
23219SOL    HW171554   0.106   6.413   3.656
23219SOL    HW271555   0.241   6.354   3.689
23220SOL     OW71556  10.628  13.841   0.947
23220SOL    HW171557  10.698  13.851   1.011
23220SOL    HW271558  10.598  13.930   0.930
23221SOL     OW71559   6.941  10.170  12.877
23221SOL    HW171560   6.997  10.220  12.818
23221SOL    HW271561   6.954  10.079  12.850
23222SOL     OW71562  14.799   8.399   5.606
23222SOL    HW171563  14.799   8.369   5.697
23222SOL    HW271564  14.885   8.438   5.594
23223SOL     OW71565  12.606  10.734   2.215
23223SOL    HW171566  12.628  10.773   2.131
23223SOL    HW271567  12.626  10.802   2.279
23224SOL     OW71568  10.834  14.804   0.621
23224SOL    HW171569  10.827  14.708   0.623
23224SOL    HW271570  10.894  14.825   0.692
23225SOL     OW71571   6.911  11.529   5.243
23225SOL    HW171572   6.980  11.493   5.298
23225SOL    HW271573   6.951  11.604   5.199
23226SOL     OW71574   1.301   7.374  11.012
23226SOL    HW171575   1.264   7.367  11.100
23226SOL    HW271576   1.312   7.468  10.997
23227SOL     OW71577   9.167   2.657   1.366
23227SOL    HW171578   9.197   2.572   1.398
23227SOL    HW271579   9.244   2.694   1.321
23228SOL     OW71580  13.389   4.576   1.183
23228SOL    HW171581  13.348   4.659   1.158
23228SOL    HW271582  13.363   4.564   1.275
23229SOL     OW71583   9.435  10.157   6.945
23229SOL    HW171584   9.497  10.126   6.879
23229SOL    HW271585   9.349  10.127   6.914
23230SOL     OW71586  11.462   9.795   0.267
23230SOL    HW171587  11.388   9.853   0.288
23230SOL    HW271588  11.466   9.796   0.171
23231SOL     OW71589  11.705  14.254   1.128
23231SOL    HW171590  11.699  14.161   1.106
23231SOL    HW271591  11.739  14.295   1.048
23232SOL     OW71592  12.158   9.455   8.703
23232SOL    HW171593  12.195   9.381   8.655
23232SOL    HW271594  12.114   9.507   8.636
23233SOL     OW71595   5.811   8.619  14.789
23233SOL    HW171596   5.752   8.648  14.859
23233SOL    HW271597   5.896   8.656  14.814
23234SOL     OW71598   3.298   7.823   9.163
23234SOL    HW171599   3.309   7.907   9.119
23234SOL    HW271600   3.228   7.839   9.227
23235SOL     OW71601   3.879   9.081   0.880
23235SOL    HW171602   3.880   9.061   0.787
23235SOL    HW271603   3.855   8.998   0.922
23236SOL     OW71604   9.008   4.755   2.197
23236SOL    HW171605   9.036   4.677   2.149
23236SOL    HW271606   8.932   4.726   2.247
23237SOL     OW71607   1.919  10.984   3.884
23237SOL    HW171608   1.885  10.990   3.972
23237SOL    HW271609   2.006  11.024   3.889
23238SOL     OW71610   4.991  14.657   9.875
23238SOL    HW171611   5.038  14.669   9.793
23238SOL    HW271612   5.038  14.712   9.938
23239SOL     OW71613   1.222   2.981  10.551
23239SOL    HW171614   1.276   3.009  10.625
23239SOL    HW271615   1.174   2.905  10.584
23240SOL     OW71616  10.825   6.473   0.239
23240SOL    HW171617  10.757   6.436   0.182
23240SOL    HW271618  10.906   6.435   0.207
23241SOL     OW71619  13.587   8.499  10.545
23241SOL    HW171620  13.598   8.445  10.624
23241SOL    HW271621  13.671   8.542  10.533
23242SOL     OW71622   2.340   3.219   0.296
23242SOL    HW171623   2.365   3.141   0.345
23242SOL    HW271624   2.246   3.210   0.284
23243SOL     OW71625  11.204   7.403   2.024
23243SOL    HW171626  11.293   7.438   2.022
23243SOL    HW271627  11.188   7.374   1.934
23244SOL     OW71628  11.653   0.748  10.985
23244SOL    HW171629  11.590   0.681  11.011
23244SOL    HW271630  11.600   0.828  10.976
23245SOL     OW71631   2.141   9.528   8.302
23245SOL    HW171632   2.204   9.599   8.286
23245SOL    HW271633   2.113   9.501   8.215
23246SOL     OW71634  11.709   0.707   3.304
23246SOL    HW171635  11.774   0.696   3.235
23246SOL    HW271636  11.756   0.685   3.385
23247SOL     OW71637  11.808   4.584   4.088
23247SOL    HW171638  11.834   4.639   4.014
23247SOL    HW271639  11.850   4.500   4.072
23248SOL     OW71640   3.093   5.795   0.290
23248SOL    HW171641   3.160   5.731   0.310
23248SOL    HW271642   3.062   5.826   0.376
23249SOL     OW71643  12.239   2.519   5.877
23249SOL    HW171644  12.169   2.581   5.896
23249SOL    HW271645  12.231   2.452   5.945
23250SOL     OW71646  12.733   1.757   3.339
23250SOL    HW171647  12.756   1.664   3.333
23250SOL    HW271648  12.814   1.803   3.318
23251SOL     OW71649   8.426   7.155   4.387
23251SOL    HW171650   8.384   7.239   4.373
23251SOL    HW271651   8.514   7.165   4.350
23252SOL     OW71652  11.042  14.655  12.071
23252SOL    HW171653  11.044  14.631  11.978
23252SOL    HW271654  11.125  14.622  12.106
23253SOL     OW71655  13.860  11.688  13.425
23253SOL    HW171656  13.808  11.767  13.418
23253SOL    HW271657  13.806  11.628  13.477
23254SOL     OW71658   8.002  11.446  12.519
23254SOL    HW171659   8.071  11.510  12.501
23254SOL    HW271660   8.029  11.367  12.473
23255SOL     OW71661   4.987   6.882   9.200
23255SOL    HW171662   5.061   6.942   9.209
23255SOL    HW271663   4.975   6.873   9.105
23256SOL     OW71664   7.451  11.075   7.902
23256SOL    HW171665   7.470  10.981   7.907
23256SOL    HW271666   7.500  11.104   7.825
23257SOL     OW71667   5.650   5.085   5.247
23257SOL    HW171668   5.642   5.000   5.204
23257SOL    HW271669   5.741   5.111   5.233
23258SOL     OW71670  14.126  11.715  12.542
23258SOL    HW171671  14.087  11.738  12.626
23258SOL    HW271672  14.092  11.780  12.481
23259SOL     OW71673   4.377  11.426  11.997
23259SOL    HW171674   4.298  11.466  12.034
23259SOL    HW271675   4.365  11.332  12.009
23260SOL     OW71676   6.760   3.792   6.264
23260SOL    HW171677   6.785   3.723   6.203
23260SOL    HW271678   6.780   3.873   6.217
23261SOL     OW71679   2.645   9.411   0.996
23261SOL    HW171680   2.619   9.329   0.955
23261SOL    HW271681   2.563   9.455   1.018
23262SOL     OW71682  12.735   8.023   4.879
23262SOL    HW171683  12.703   7.953   4.822
23262SOL    HW271684  12.689   8.010   4.962
23263SOL     OW71685   2.082   5.030   9.231
23263SOL    HW171686   2.070   4.947   9.278
23263SOL    HW271687   2.142   5.080   9.286
23264SOL     OW71688   5.758   6.073   1.911
23264SOL    HW171689   5.823   6.116   1.856
23264SOL    HW271690   5.692   6.040   1.850
23265SOL     OW71691   0.956   0.182   0.401
23265SOL    HW171692   0.910   0.175   0.485
23265SOL    HW271693   1.036   0.132   0.413
23266SOL     OW71694   0.893  10.254   8.420
23266SOL    HW171695   0.887  10.206   8.337
23266SOL    HW271696   0.836  10.205   8.479
23267SOL     OW71697   8.079  10.822   4.882
23267SOL    HW171698   8.158  10.785   4.922
23267SOL    HW271699   8.006  10.782   4.928
23268SOL     OW71700   1.595   2.693   7.499
23268SOL    HW171701   1.595   2.778   7.456
23268SOL    HW271702   1.514   2.692   7.551
23269SOL     OW71703   5.982   3.296   8.909
23269SOL    HW171704   6.021   3.270   8.825
23269SOL    HW271705   5.905   3.346   8.885
23270SOL     OW71706  12.904  10.834  14.318
23270SOL    HW171707  12.822  10.862  14.277
23270SOL    HW271708  12.881  10.825  14.411
23271SOL     OW71709  13.643   8.079   2.060
23271SOL    HW171710  13.668   8.010   2.121
23271SOL    HW271711  13.625   8.155   2.115
23272SOL     OW71712  12.214   3.454   5.187
23272SOL    HW171713  12.164   3.534   5.171
23272SOL    HW271714  12.257   3.470   5.272
23273SOL     OW71715  10.691   8.293   7.842
23273SOL    HW171716  10.601   8.288   7.809
23273SOL    HW271717  10.738   8.225   7.794
23274SOL     OW71718  14.471   3.758   8.179
23274SOL    HW171719  14.375   3.759   8.178
23274SOL    HW271720  14.496   3.851   8.178
23275SOL     OW71721   4.994   7.621  10.408
23275SOL    HW171722   5.006   7.701  10.356
23275SOL    HW271723   5.026   7.550  10.351
23276SOL     OW71724   8.262  10.759   9.948
23276SOL    HW171725   8.248  10.714   9.864
23276SOL    HW271726   8.174  10.768   9.984
23277SOL     OW71727   5.930   0.977   2.928
23277SOL    HW171728   6.001   1.034   2.956
23277SOL    HW271729   5.963   0.888   2.942
23278SOL     OW71730   6.274  11.980  11.596
23278SOL    HW171731   6.367  12.003  11.597
23278SOL    HW271732   6.248  11.982  11.688
23279SOL     OW71733  12.130   1.362   7.426
23279SOL    HW171734  12.095   1.443   7.464
23279SOL    HW271735  12.109   1.294   7.491
23280SOL     OW71736   7.042  11.815  10.292
23280SOL    HW171737   7.132  11.807  10.322
23280SOL    HW271738   7.012  11.899  10.327
23281SOL     OW71739  11.935  10.045  10.974
23281SOL    HW171740  11.947  10.025  11.067
23281SOL    HW271741  11.987  10.125  10.961
23282SOL     OW71742   3.458  13.196  13.473
23282SOL    HW171743   3.404  13.185  13.395
23282SOL    HW271744   3.525  13.259  13.448
23283SOL     OW71745  13.857   3.566   0.606
23283SOL    HW171746  13.911   3.517   0.544
23283SOL    HW271747  13.820   3.499   0.664
23284SOL     OW71748   3.451  11.814  13.746
23284SOL    HW171749   3.369  11.818  13.795
23284SOL    HW271750   3.451  11.728  13.705
23285SOL     OW71751   1.402  12.118   0.252
23285SOL    HW171752   1.339  12.074   0.309
23285SOL    HW271753   1.488  12.088   0.283
23286SOL     OW71754   8.769  12.590   9.861
23286SOL    HW171755   8.813  12.505   9.854
23286SOL    HW271756   8.785  12.632   9.776
23287SOL     OW71757   8.744   8.099   8.892
23287SOL    HW171758   8.795   8.045   8.953
23287SOL    HW271759   8.799   8.176   8.877
23288SOL     OW71760   6.591   5.640   1.939
23288SOL    HW171761   6.664   5.645   1.878
23288SOL    HW271762   6.629   5.660   2.025
23289SOL     OW71763   9.881   2.017   2.714
23289SOL    HW171764   9.928   1.969   2.645
23289SOL    HW271765   9.898   1.966   2.794
23290SOL     OW71766   8.017   2.922   7.481
23290SOL    HW171767   8.074   2.897   7.553
23290SOL    HW271768   7.984   2.838   7.447
23291SOL     OW71769  10.572   0.482   3.577
23291SOL    HW171770  10.550   0.575   3.576
23291SOL    HW271771  10.575   0.456   3.485
23292SOL     OW71772   1.998   8.795   4.631
23292SOL    HW171773   1.915   8.751   4.646
23292SOL    HW271774   2.002   8.865   4.696
23293SOL     OW71775   7.470   9.430   0.629
23293SOL    HW171776   7.529   9.360   0.656
23293SOL    HW271777   7.446   9.407   0.539
23294SOL     OW71778  12.168   0.819   6.499
23294SOL    HW171779  12.120   0.838   6.580
23294SOL    HW271780  12.226   0.747   6.522
23295SOL     OW71781   2.837   8.532   8.484
23295SOL    HW171782   2.864   8.466   8.548
23295SOL    HW271783   2.766   8.491   8.435
23296SOL     OW71784   9.602   9.262   1.851
23296SOL    HW171785   9.674   9.251   1.789
23296SOL    HW271786   9.570   9.351   1.834
23297SOL     OW71787  13.082   9.325   4.753
23297SOL    HW171788  13.089   9.289   4.841
23297SOL    HW271789  13.110   9.416   4.762
23298SOL     OW71790   6.146   2.672  12.484
23298SOL    HW171791   6.093   2.700  12.559
23298SOL    HW271792   6.235   2.668  12.517
23299SOL     OW71793   0.250  12.601   1.880
23299SOL    HW171794   0.159  12.613   1.909
23299SOL    HW271795   0.300  12.664   1.932
23300SOL     OW71796   5.169   4.800   4.648
23300SOL    HW171797   5.166   4.833   4.737
23300SOL    HW271798   5.193   4.708   4.656
23301SOL     OW71799   4.525  12.891  14.034
23301SOL    HW171800   4.594  12.865  14.094
23301SOL    HW271801   4.540  12.984  14.019
23302SOL     OW71802   4.468   1.191  11.267
23302SOL    HW171803   4.542   1.138  11.236
23302SOL    HW271804   4.413   1.129  11.315
23303SOL     OW71805   0.307  10.561   8.318
23303SOL    HW171806   0.377  10.603   8.369
23303SOL    HW271807   0.321  10.590   8.228
23304SOL     OW71808   4.084   0.549   6.579
23304SOL    HW171809   4.069   0.477   6.640
23304SOL    HW271810   4.048   0.518   6.496
23305SOL     OW71811   8.157   4.477  12.102
23305SOL    HW171812   8.087   4.413  12.088
23305SOL    HW271813   8.217   4.433  12.163
23306SOL     OW71814   2.261   3.795   9.961
23306SOL    HW171815   2.168   3.782   9.983
23306SOL    HW271816   2.260   3.830   9.872
23307SOL     OW71817  13.103   6.717  12.468
23307SOL    HW171818  13.024   6.757  12.433
23307SOL    HW271819  13.078   6.685  12.555
23308SOL     OW71820   4.950   6.159   7.035
23308SOL    HW171821   5.019   6.223   7.018
23308SOL    HW271822   4.881   6.210   7.078
23309SOL     OW71823   6.780   6.764   6.521
23309SOL    HW171824   6.737   6.679   6.532
23309SOL    HW271825   6.847   6.749   6.454
23310SOL     OW71826   5.486   2.172  12.711
23310SOL    HW171827   5.426   2.223  12.658
23310SOL    HW271828   5.564   2.163  12.656
23311SOL     OW71829  12.540   5.984   0.764
23311SOL    HW171830  12.616   5.929   0.745
23311SOL    HW271831  12.483   5.974   0.687
23312SOL     OW71832  12.540  10.795   7.879
23312SOL    HW171833  12.468  10.814   7.819
23312SOL    HW271834  12.618  10.827   7.834
23313SOL     OW71835   3.576   0.544   8.818
23313SOL    HW171836   3.524   0.493   8.881
23313SOL    HW271837   3.515   0.564   8.747
23314SOL     OW71838   2.209   6.383  12.667
23314SOL    HW171839   2.194   6.370  12.760
23314SOL    HW271840   2.123   6.370  12.627
23315SOL     OW71841  14.219  14.436  11.475
23315SOL    HW171842  14.155  14.507  11.472
23315SOL    HW271843  14.172  14.359  11.445
23316SOL     OW71844  13.052  10.788  10.542
23316SOL    HW171845  13.019  10.701  10.563
23316SOL    HW271846  13.000  10.816  10.466
23317SOL     OW71847  12.575  14.883   7.970
23317SOL    HW171848  12.494  14.858   8.015
23317SOL    HW271849  12.548   0.064   7.909
23318SOL     OW71850   8.072  13.226  11.007
23318SOL    HW171851   8.097  13.262  11.092
23318SOL    HW271852   7.979  13.206  11.016
23319SOL     OW71853  11.337  13.069  13.311
23319SOL    HW171854  11.343  12.999  13.246
23319SOL    HW271855  11.348  13.025  13.395
23320SOL     OW71856   1.484  14.619   3.425
23320SOL    HW171857   1.477  14.655   3.513
23320SOL    HW271858   1.575  14.590   3.418
23321SOL     OW71859  14.883   2.873   9.408
23321SOL    HW171860  14.806   2.910   9.450
23321SOL    HW271861   0.061   2.944   9.410
23322SOL     OW71862   5.739  14.842   4.819
23322SOL    HW171863   5.717  14.807   4.733
23322SOL    HW271864   5.774  14.767   4.868
23323SOL     OW71865   1.310  13.302  12.244
23323SOL    HW171866   1.286  13.390  12.272
23323SOL    HW271867   1.405  13.297  12.257
23324SOL     OW71868  13.771   8.083   0.939
23324SOL    HW171869  13.741   8.173   0.950
23324SOL    HW271870  13.742   8.039   1.019
23325SOL     OW71871  14.439   8.074   4.650
23325SOL    HW171872  14.412   8.035   4.567
23325SOL    HW271873  14.510   8.017   4.680
23326SOL     OW71874  12.634  10.407   8.076
23326SOL    HW171875  12.545  10.376   8.093
23326SOL    HW271876  12.644  10.397   7.981
23327SOL     OW71877   6.163   9.448  13.922
23327SOL    HW171878   6.147   9.393  13.846
23327SOL    HW271879   6.258   9.446  13.934
23328SOL     OW71880  14.589   5.806  11.214
23328SOL    HW171881  14.657   5.740  11.203
23328SOL    HW271882  14.560   5.795  11.305
23329SOL     OW71883  10.912   3.800  13.133
23329SOL    HW171884  10.890   3.749  13.055
23329SOL    HW271885  10.852   3.874  13.132
23330SOL     OW71886  10.519   4.512  12.581
23330SOL    HW171887  10.481   4.424  12.587
23330SOL    HW271888  10.509   4.537  12.489
23331SOL     OW71889   8.045   5.429  11.762
23331SOL    HW171890   8.120   5.431  11.703
23331SOL    HW271891   8.022   5.521  11.775
23332SOL     OW71892  12.459  13.113   7.073
23332SOL    HW171893  12.378  13.088   7.028
23332SOL    HW271894  12.528  13.064   7.028
23333SOL     OW71895   6.589   8.494   8.366
23333SOL    HW171896   6.560   8.469   8.278
23333SOL    HW271897   6.509   8.517   8.413
23334SOL     OW71898   7.754   6.622   9.232
23334SOL    HW171899   7.776   6.604   9.141
23334SOL    HW271900   7.664   6.655   9.230
23335SOL     OW71901  13.616  11.150   7.554
23335SOL    HW171902  13.689  11.095   7.525
23335SOL    HW271903  13.576  11.181   7.473
23336SOL     OW71904   8.789  13.843   0.220
23336SOL    HW171905   8.825  13.825   0.307
23336SOL    HW271906   8.694  13.831   0.231
23337SOL     OW71907   5.564   5.244   3.865
23337SOL    HW171908   5.589   5.161   3.825
23337SOL    HW271909   5.640   5.302   3.851
23338SOL     OW71910   6.894   3.717  12.911
23338SOL    HW171911   6.822   3.705  12.973
23338SOL    HW271912   6.889   3.640  12.854
23339SOL     OW71913   9.624   1.073  13.191
23339SOL    HW171914   9.667   1.033  13.116
23339SOL    HW271915   9.653   1.165  13.190
23340SOL     OW71916  14.266   1.377   7.192
23340SOL    HW171917  14.187   1.339   7.232
23340SOL    HW271918  14.320   1.301   7.169
23341SOL     OW71919  10.573  13.152   4.515
23341SOL    HW171920  10.575  13.102   4.433
23341SOL    HW271921  10.594  13.242   4.488
23342SOL     OW71922   8.389   9.020   7.336
23342SOL    HW171923   8.390   9.061   7.249
23342SOL    HW271924   8.428   9.085   7.394
23343SOL     OW71925   6.328   8.141  11.597
23343SOL    HW171926   6.276   8.152  11.518
23343SOL    HW271927   6.318   8.225  11.644
23344SOL     OW71928   2.124   9.033  11.422
23344SOL    HW171929   2.089   9.028  11.511
23344SOL    HW271930   2.127   9.127  11.403
23345SOL     OW71931  11.346   2.927   5.905
23345SOL    HW171932  11.282   2.875   5.857
23345SOL    HW271933  11.387   2.866   5.966
23346SOL     OW71934   7.540   1.209   3.420
23346SOL    HW171935   7.598   1.262   3.474
23346SOL    HW271936   7.572   1.120   3.430
23347SOL     OW71937  13.848  12.271   7.318
23347SOL    HW171938  13.864  12.232   7.404
23347SOL    HW271939  13.838  12.365   7.335
23348SOL     OW71940  10.640  14.029   4.585
23348SOL    HW171941  10.575  14.041   4.655
23348SOL    HW271942  10.595  14.057   4.506
23349SOL     OW71943   8.291   7.334   8.530
23349SOL    HW171944   8.246   7.381   8.460
23349SOL    HW271945   8.222   7.309   8.591
23350SOL     OW71946   2.942  10.611   9.036
23350SOL    HW171947   3.018  10.602   8.978
23350SOL    HW271948   2.960  10.550   9.108
23351SOL     OW71949  11.248   2.087   0.025
23351SOL    HW171950  11.203   2.112  14.832
23351SOL    HW271951  11.250   1.991   0.023
23352SOL     OW71952   8.290   8.099   5.388
23352SOL    HW171953   8.280   8.180   5.339
23352SOL    HW271954   8.349   8.121   5.461
23353SOL     OW71955  14.241  11.415  11.122
23353SOL    HW171956  14.277  11.498  11.091
23353SOL    HW271957  14.147  11.430  11.129
23354SOL     OW71958   4.770   0.290   0.021
23354SOL    HW171959   4.742   0.201   0.041
23354SOL    HW271960   4.822   0.282  14.829
23355SOL     OW71961  12.937   4.013   9.645
23355SOL    HW171962  12.977   4.034   9.560
23355SOL    HW271963  12.887   3.933   9.628
23356SOL     OW71964   7.814  14.216   1.239
23356SOL    HW171965   7.862  14.134   1.229
23356SOL    HW271966   7.755  14.219   1.165
23357SOL     OW71967  11.172   8.267   0.622
23357SOL    HW171968  11.107   8.247   0.554
23357SOL    HW271969  11.153   8.205   0.692
23358SOL     OW71970   7.546  14.110   1.871
23358SOL    HW171971   7.552  14.201   1.844
23358SOL    HW271972   7.489  14.069   1.806
23359SOL     OW71973   0.462   0.951   8.981
23359SOL    HW171974   0.544   0.978   8.939
23359SOL    HW271975   0.488   0.880   9.040
23360SOL     OW71976   9.358   6.768   4.828
23360SOL    HW171977   9.364   6.673   4.825
23360SOL    HW271978   9.380   6.791   4.918
23361SOL     OW71979   3.485  14.445   0.536
23361SOL    HW171980   3.531  14.374   0.491
23361SOL    HW271981   3.392  14.425   0.521
23362SOL     OW71982   3.459   5.860   0.214
23362SOL    HW171983   3.424   5.800   0.149
23362SOL    HW271984   3.454   5.946   0.174
23363SOL     OW71985   1.550   8.297  11.198
23363SOL    HW171986   1.470   8.275  11.150
23363SOL    HW271987   1.542   8.248  11.281
23364SOL     OW71988  14.477   7.572  12.512
23364SOL    HW171989  14.506   7.510  12.445
23364SOL    HW271990  14.394   7.606  12.479
23365SOL     OW71991  11.779   1.107   1.118
23365SOL    HW171992  11.775   1.144   1.030
23365SOL    HW271993  11.869   1.124   1.147
23366SOL     OW71994   6.973   5.208   7.576
23366SOL    HW171995   7.011   5.278   7.629
23366SOL    HW271996   7.037   5.137   7.583
23367SOL     OW71997   5.101  14.661   9.623
23367SOL    HW171998   5.027  14.606   9.596
23367SOL    HW271999   5.153  14.672   9.544
23368SOL     OW72000  10.800   2.405   7.704
23368SOL    HW172001  10.804   2.415   7.609
23368SOL    HW272002  10.877   2.354   7.727
23369SOL     OW72003   2.567   9.173  10.695
23369SOL    HW172004   2.588   9.235  10.625
23369SOL    HW272005   2.510   9.223  10.754
23370SOL     OW72006   5.090   1.703   7.113
23370SOL    HW172007   5.024   1.684   7.180
23370SOL    HW272008   5.170   1.723   7.163
23371SOL     OW72009   0.911   5.913   2.212
23371SOL    HW172010   0.984   5.861   2.245
23371SOL    HW272011   0.937   6.004   2.228
23372SOL     OW72012  13.227   9.596   1.877
23372SOL    HW172013  13.209   9.670   1.935
23372SOL    HW272014  13.165   9.607   1.805
23373SOL     OW72015   1.445   3.784   7.757
23373SOL    HW172016   1.406   3.821   7.836
23373SOL    HW272017   1.526   3.833   7.745
23374SOL     OW72018   1.179   7.415   7.308
23374SOL    HW172019   1.147   7.503   7.325
23374SOL    HW272020   1.273   7.421   7.321
23375SOL     OW72021   2.029   4.758   7.696
23375SOL    HW172022   2.078   4.697   7.751
23375SOL    HW272023   1.938   4.729   7.703
23376SOL     OW72024   9.885   6.926   0.311
23376SOL    HW172025   9.937   6.945   0.389
23376SOL    HW272026   9.820   6.996   0.308
23377SOL     OW72027  12.374   0.399   1.894
23377SOL    HW172028  12.393   0.316   1.851
23377SOL    HW272029  12.440   0.459   1.861
23378SOL     OW72030   5.881   1.185   0.397
23378SOL    HW172031   5.933   1.265   0.394
23378SOL    HW272032   5.939   1.116   0.364
23379SOL     OW72033  14.795   9.016  10.729
23379SOL    HW172034  14.860   9.086  10.736
23379SOL    HW272035  14.712   9.060  10.751
23380SOL     OW72036   0.554   4.584  11.973
23380SOL    HW172037   0.620   4.621  11.914
23380SOL    HW272038   0.521   4.659  12.023
23381SOL     OW72039   9.816  14.303   4.043
23381SOL    HW172040   9.830  14.352   4.123
23381SOL    HW272041   9.799  14.213   4.072
23382SOL     OW72042   7.733   5.391  11.458
23382SOL    HW172043   7.646   5.429  11.467
23382SOL    HW272044   7.781   5.454  11.404
23383SOL     OW72045   2.340   3.297   7.317
23383SOL    HW172046   2.278   3.366   7.293
23383SOL    HW272047   2.415   3.345   7.352
23384SOL     OW72048   5.688   5.532   9.381
23384SOL    HW172049   5.767   5.556   9.429
23384SOL    HW272050   5.720   5.497   9.298
23385SOL     OW72051  11.457   9.206   5.929
23385SOL    HW172052  11.381   9.238   5.977
23385SOL    HW272053  11.471   9.269   5.859
23386SOL     OW72054   5.960   5.509   5.050
23386SOL    HW172055   5.885   5.458   5.079
23386SOL    HW272056   5.924   5.593   5.022
23387SOL     OW72057  12.544   6.972   8.594
23387SOL    HW172058  12.451   6.963   8.617
23387SOL    HW272059  12.564   7.063   8.612
23388SOL     OW72060   2.594   4.818   9.861
23388SOL    HW172061   2.590   4.840   9.768
23388SOL    HW272062   2.625   4.899   9.903
23389SOL     OW72063   8.368   0.737   4.651
23389SOL    HW172064   8.400   0.819   4.688
23389SOL    HW272065   8.350   0.756   4.559
23390SOL     OW72066  13.848  12.692  12.444
23390SOL    HW172067  13.916  12.675  12.379
23390SOL    HW272068  13.770  12.713  12.393
23391SOL     OW72069   3.962  13.103   2.587
23391SOL    HW172070   4.041  13.072   2.631
23391SOL    HW272071   3.898  13.114   2.658
23392SOL     OW72072   5.903   6.754   7.991
23392SOL    HW172073   5.883   6.826   8.051
23392SOL    HW272074   5.893   6.791   7.904
23393SOL     OW72075  10.047   2.133   5.437
23393SOL    HW172076  10.114   2.123   5.369
23393SOL    HW272077  10.052   2.052   5.487
23394SOL     OW72078   0.070   8.947   3.826
23394SOL    HW172079   0.154   8.927   3.786
23394SOL    HW272080   0.092   8.989   3.909
23395SOL     OW72081   7.115  12.720  14.202
23395SOL    HW172082   7.202  12.687  14.224
23395SOL    HW272083   7.119  12.813  14.222
23396SOL     OW72084   8.035  11.381   7.904
23396SOL    HW172085   8.111  11.417   7.949
23396SOL    HW272086   8.032  11.289   7.933
23397SOL     OW72087  10.937   9.118   0.434
23397SOL    HW172088  11.027   9.113   0.467
23397SOL    HW272089  10.886   9.068   0.498
23398SOL     OW72090  14.120  13.004   8.625
23398SOL    HW172091  14.040  13.038   8.667
23398SOL    HW272092  14.166  13.083   8.594
23399SOL     OW72093  12.456   9.902   4.114
23399SOL    HW172094  12.539   9.917   4.161
23399SOL    HW272095  12.411   9.986   4.117
23400SOL     OW72096   5.950   4.486  12.477
23400SOL    HW172097   5.902   4.556  12.519
23400SOL    HW272098   5.927   4.407  12.526
23401SOL     OW72099  13.617   4.740   1.573
23401SOL    HW172100  13.582   4.777   1.654
23401SOL    HW272101  13.583   4.798   1.504
23402SOL     OW72102  14.023   4.581   2.797
23402SOL    HW172103  14.077   4.655   2.768
23402SOL    HW272104  13.981   4.612   2.877
23403SOL     OW72105   8.875  14.885   9.872
23403SOL    HW172106   8.824   0.051   9.812
23403SOL    HW272107   8.915  14.818   9.816
23404SOL     OW72108   8.641   6.184   1.584
23404SOL    HW172109   8.677   6.102   1.549
23404SOL    HW272110   8.548   6.165   1.598
23405SOL     OW72111   1.450  12.758   3.421
23405SOL    HW172112   1.436  12.757   3.516
23405SOL    HW272113   1.509  12.684   3.405
23406SOL     OW72114  14.281   4.562  13.037
23406SOL    HW172115  14.275   4.589  12.945
23406SOL    HW272116  14.285   4.644  13.086
23407SOL     OW72117   4.222  12.405  10.971
23407SOL    HW172118   4.157  12.416  11.041
23407SOL    HW272119   4.176  12.433  10.892
23408SOL     OW72120   8.049  11.143   9.219
23408SOL    HW172121   8.096  11.069   9.182
23408SOL    HW272122   8.023  11.114   9.307
23409SOL     OW72123  11.983  11.816   4.956
23409SOL    HW172124  12.040  11.888   4.982
23409SOL    HW272125  11.940  11.847   4.876
23410SOL     OW72126  12.227  11.295   9.959
23410SOL    HW172127  12.187  11.262   9.878
23410SOL    HW272128  12.316  11.319   9.934
23411SOL     OW72129   0.280  11.432   9.275
23411SOL    HW172130   0.305  11.492   9.204
23411SOL    HW272131   0.303  11.345   9.242
23412SOL     OW72132   5.701   9.166  12.673
23412SOL    HW172133   5.777   9.170  12.732
23412SOL    HW272134   5.626   9.180  12.730
23413SOL     OW72135  12.772  11.160   5.617
23413SOL    HW172136  12.849  11.105   5.605
23413SOL    HW272137  12.700  11.107   5.582
23414SOL     OW72138   8.154   2.651   6.753
23414SOL    HW172139   8.181   2.698   6.832
23414SOL    HW272140   8.181   2.561   6.769
23415SOL     OW72141   4.411   4.871   1.360
23415SOL    HW172142   4.355   4.852   1.285
23415SOL    HW272143   4.463   4.946   1.332
23416SOL     OW72144   1.893  12.230   0.308
23416SOL    HW172145   1.905  12.159   0.245
23416SOL    HW272146   1.938  12.305   0.268
23417SOL     OW72147   6.795  11.028   6.114
23417SOL    HW172148   6.745  11.090   6.167
23417SOL    HW272149   6.846  10.978   6.177
23418SOL     OW72150   2.129   1.737  13.274
23418SOL    HW172151   2.154   1.654  13.232
23418SOL    HW272152   2.036   1.725  13.296
23419SOL     OW72153   0.630   3.292   9.268
23419SOL    HW172154   0.632   3.368   9.326
23419SOL    HW272155   0.612   3.218   9.326
23420SOL     OW72156   5.059   1.474   1.243
23420SOL    HW172157   4.967   1.450   1.243
23420SOL    HW272158   5.080   1.493   1.152
23421SOL     OW72159   7.513  12.327   1.149
23421SOL    HW172160   7.540  12.269   1.220
23421SOL    HW272161   7.546  12.285   1.070
23422SOL     OW72162   1.492   3.952  12.944
23422SOL    HW172163   1.409   3.983  12.981
23422SOL    HW272164   1.528   3.894  13.011
23423SOL     OW72165   0.499   4.303   1.375
23423SOL    HW172166   0.453   4.383   1.400
23423SOL    HW272167   0.432   4.248   1.335
23424SOL     OW72168   1.405   6.971  11.227
23424SOL    HW172169   1.380   6.927  11.146
23424SOL    HW272170   1.460   7.044  11.199
23425SOL     OW72171  13.297   4.091  11.727
23425SOL    HW172172  13.353   4.020  11.695
23425SOL    HW272173  13.352   4.169  11.718
23426SOL     OW72174   7.080  14.183   2.597
23426SOL    HW172175   7.146  14.177   2.666
23426SOL    HW272176   7.041  14.096   2.594
23427SOL     OW72177   5.723  10.807   2.744
23427SOL    HW172178   5.780  10.801   2.821
23427SOL    HW272179   5.763  10.747   2.681
23428SOL     OW72180   6.277   5.138   1.081
23428SOL    HW172181   6.217   5.190   1.134
23428SOL    HW272182   6.221   5.075   1.035
23429SOL     OW72183   7.727   4.065   9.399
23429SOL    HW172184   7.779   4.058   9.479
23429SOL    HW272185   7.703   3.975   9.377
23430SOL     OW72186   1.174   1.635  12.775
23430SOL    HW172187   1.168   1.632  12.870
23430SOL    HW272188   1.262   1.666  12.757
23431SOL     OW72189   7.645   1.347  10.015
23431SOL    HW172190   7.565   1.318   9.971
23431SOL    HW272191   7.620   1.430  10.056
23432SOL     OW72192   6.332   0.090   1.660
23432SOL    HW172193   6.240   0.093   1.635
23432SOL    HW272194   6.340   0.154   1.731
23433SOL     OW72195   4.500   7.844   6.047
23433SOL    HW172196   4.491   7.900   5.970
23433SOL    HW272197   4.547   7.898   6.110
23434SOL     OW72198  12.454  10.898   0.875
23434SOL    HW172199  12.467  10.835   0.947
23434SOL    HW272200  12.380  10.864   0.826
23435SOL     OW72201  10.358   8.249  13.809
23435SOL    HW172202  10.381   8.197  13.887
23435SOL    HW272203  10.283   8.202  13.771
23436SOL     OW72204   0.199  13.303   2.378
23436SOL    HW172205   0.208  13.230   2.317
23436SOL    HW272206   0.126  13.278   2.435
23437SOL     OW72207   7.952   1.742   8.116
23437SOL    HW172208   7.950   1.790   8.033
23437SOL    HW272209   7.955   1.810   8.183
23438SOL     OW72210   2.517  11.592   3.648
23438SOL    HW172211   2.585  11.597   3.581
23438SOL    HW272212   2.560  11.548   3.722
23439SOL     OW72213  10.883   0.468   4.197
23439SOL    HW172214  10.858   0.381   4.229
23439SOL    HW272215  10.904   0.454   4.105
23440SOL     OW72216  11.552   8.317   1.580
23440SOL    HW172217  11.578   8.409   1.590
23440SOL    HW272218  11.502   8.315   1.498
23441SOL     OW72219  11.711   8.267   3.287
23441SOL    HW172220  11.795   8.291   3.328
23441SOL    HW272221  11.736   8.224   3.205
23442SOL     OW72222  14.156   5.707   8.429
23442SOL    HW172223  14.207   5.661   8.495
23442SOL    HW272224  14.162   5.799   8.453
23443SOL     OW72225  12.250   1.432  12.959
23443SOL    HW172226  12.156   1.447  12.956
23443SOL    HW272227  12.281   1.460  12.873
23444SOL     OW72228  12.454   4.442   7.295
23444SOL    HW172229  12.498   4.357   7.291
23444SOL    HW272230  12.500   4.497   7.232
23445SOL     OW72231   1.807   7.314  13.579
23445SOL    HW172232   1.746   7.272  13.519
23445SOL    HW272233   1.850   7.382  13.526
23446SOL     OW72234   7.762  11.143   2.592
23446SOL    HW172235   7.821  11.068   2.581
23446SOL    HW272236   7.816  11.212   2.628
23447SOL     OW72237  12.292   7.946   9.253
23447SOL    HW172238  12.256   7.865   9.291
23447SOL    HW272239  12.323   7.996   9.329
23448SOL     OW72240  13.091   3.676   0.942
23448SOL    HW172241  13.149   3.604   0.919
23448SOL    HW272242  13.054   3.705   0.858
23449SOL     OW72243   3.227  11.771  10.275
23449SOL    HW172244   3.138  11.806  10.277
23449SOL    HW272245   3.280  11.835  10.322
23450SOL     OW72246   6.719   8.943   5.980
23450SOL    HW172247   6.691   8.990   5.902
23450SOL    HW272248   6.747   9.012   6.040
23451SOL     OW72249   9.977   6.501   9.536
23451SOL    HW172250  10.070   6.486   9.517
23451SOL    HW272251   9.962   6.592   9.509
23452SOL     OW72252   0.601   2.610   4.276
23452SOL    HW172253   0.644   2.695   4.289
23452SOL    HW272254   0.672   2.551   4.248
23453SOL     OW72255  13.421   0.559  11.995
23453SOL    HW172256  13.335   0.536  11.962
23453SOL    HW272257  13.455   0.478  12.033
23454SOL     OW72258   1.100   4.950   2.373
23454SOL    HW172259   1.157   4.888   2.419
23454SOL    HW272260   1.043   4.894   2.320
23455SOL     OW72261  14.833  11.982   3.483
23455SOL    HW172262  14.829  12.064   3.435
23455SOL    HW272263  14.858  12.007   3.572
23456SOL     OW72264   2.682  11.746   2.575
23456SOL    HW172265   2.704  11.696   2.496
23456SOL    HW272266   2.729  11.829   2.565
23457SOL     OW72267   6.663   9.731   9.112
23457SOL    HW172268   6.738   9.672   9.118
23457SOL    HW272269   6.701   9.819   9.107
23458SOL     OW72270   3.701  12.478   9.795
23458SOL    HW172271   3.773  12.461   9.735
23458SOL    HW272272   3.623  12.453   9.746
23459SOL     OW72273  11.632   9.343   7.956
23459SOL    HW172274  11.672   9.264   7.994
23459SOL    HW272275  11.688   9.415   7.985
23460SOL     OW72276  12.304  11.700   6.682
23460SOL    HW172277  12.250  11.679   6.758
23460SOL    HW272278  12.243  11.698   6.608
23461SOL     OW72279  12.923   4.984   1.084
23461SOL    HW172280  12.837   5.023   1.101
23461SOL    HW272281  12.959   5.037   1.013
23462SOL     OW72282  11.333   2.450   8.603
23462SOL    HW172283  11.278   2.438   8.681
23462SOL    HW272284  11.339   2.362   8.564
23463SOL     OW72285   7.816   9.726   7.872
23463SOL    HW172286   7.803   9.656   7.935
23463SOL    HW272287   7.835   9.681   7.789
23464SOL     OW72288   0.729   9.525   9.468
23464SOL    HW172289   0.658   9.575   9.508
23464SOL    HW272290   0.716   9.537   9.373
23465SOL     OW72291   9.095   3.119   6.347
23465SOL    HW172292   9.157   3.117   6.420
23465SOL    HW272293   9.118   3.042   6.294
23466SOL     OW72294  13.397  13.312   6.060
23466SOL    HW172295  13.459  13.245   6.030
23466SOL    HW272296  13.451  13.390   6.072
23467SOL     OW72297  13.057   9.246   1.650
23467SOL    HW172298  13.102   9.217   1.571
23467SOL    HW272299  13.063   9.342   1.647
23468SOL     OW72300  12.521   1.590  14.482
23468SOL    HW172301  12.444   1.545  14.446
23468SOL    HW272302  12.546   1.651  14.413
23469SOL     OW72303  12.218   6.085  13.304
23469SOL    HW172304  12.224   6.159  13.363
23469SOL    HW272305  12.161   6.116  13.233
23470SOL     OW72306  10.462  12.033   0.962
23470SOL    HW172307  10.417  11.959   0.919
23470SOL    HW272308  10.544  11.996   0.992
23471SOL     OW72309  12.193   4.424   0.833
23471SOL    HW172310  12.180   4.476   0.912
23471SOL    HW272311  12.269   4.368   0.853
23472SOL     OW72312   5.755   9.357   4.015
23472SOL    HW172313   5.696   9.297   4.059
23472SOL    HW272314   5.788   9.308   3.940
23473SOL     OW72315   3.618  11.859   9.818
23473SOL    HW172316   3.619  11.785   9.758
23473SOL    HW272317   3.701  11.904   9.802
23474SOL     OW72318  12.998   1.314   1.225
23474SOL    HW172319  13.074   1.259   1.244
23474SOL    HW272320  12.956   1.273   1.150
23475SOL     OW72321   5.020  14.724  14.147
23475SOL    HW172322   4.957  14.762  14.086
23475SOL    HW272323   4.967  14.691  14.219
23476SOL     OW72324  13.699   5.637  11.182
23476SOL    HW172325  13.745   5.691  11.246
23476SOL    HW272326  13.677   5.556  11.229
23477SOL     OW72327   5.546  12.917   0.023
23477SOL    HW172328   5.471  12.859   0.039
23477SOL    HW272329   5.507  12.997  14.874
23478SOL     OW72330  13.375  12.463  13.081
23478SOL    HW172331  13.465  12.462  13.113
23478SOL    HW272332  13.339  12.546  13.113
23479SOL     OW72333  13.183   6.206   1.756
23479SOL    HW172334  13.228   6.122   1.741
23479SOL    HW272335  13.121   6.212   1.684
23480SOL     OW72336  14.446   5.212  13.346
23480SOL    HW172337  14.531   5.229  13.386
23480SOL    HW272338  14.463   5.144  13.281
23481SOL     OW72339  14.148  13.833   4.433
23481SOL    HW172340  14.127  13.865   4.521
23481SOL    HW272341  14.151  13.738   4.442
23482SOL     OW72342  11.054   9.407  13.984
23482SOL    HW172343  10.968   9.449  13.991
23482SOL    HW272344  11.108   9.455  14.046
23483SOL     OW72345   8.901   2.206   5.584
23483SOL    HW172346   8.979   2.166   5.622
23483SOL    HW272347   8.916   2.300   5.592
23484SOL     OW72348  12.242  14.165   6.641
23484SOL    HW172349  12.283  14.087   6.678
23484SOL    HW272350  12.290  14.238   6.678
23485SOL     OW72351   4.238   3.367   4.563
23485SOL    HW172352   4.311   3.399   4.616
23485SOL    HW272353   4.207   3.289   4.610
23486SOL     OW72354  12.879  11.168   4.609
23486SOL    HW172355  12.885  11.104   4.538
23486SOL    HW272356  12.937  11.134   4.677
23487SOL     OW72357   1.751   4.562   9.968
23487SOL    HW172358   1.726   4.504   9.895
23487SOL    HW272359   1.677   4.557  10.028
23488SOL     OW72360   5.124   8.061   1.939
23488SOL    HW172361   5.148   8.150   1.964
23488SOL    HW272362   5.153   8.053   1.848
23489SOL     OW72363   4.058   9.923   4.120
23489SOL    HW172364   3.998   9.993   4.093
23489SOL    HW272365   4.117   9.912   4.045
23490SOL     OW72366   2.829   0.365  13.058
23490SOL    HW172367   2.839   0.363  13.153
23490SOL    HW272368   2.917   0.385  13.026
23491SOL     OW72369   4.685   7.256  10.782
23491SOL    HW172370   4.663   7.227  10.870
23491SOL    HW272371   4.750   7.325  10.794
23492SOL     OW72372   7.435   4.648   2.680
23492SOL    HW172373   7.437   4.605   2.594
23492SOL    HW272374   7.504   4.714   2.675
23493SOL     OW72375   5.774  12.743   2.812
23493SOL    HW172376   5.843  12.805   2.837
23493SOL    HW272377   5.763  12.757   2.717
23494SOL     OW72378   8.116  12.851  11.131
23494SOL    HW172379   8.117  12.890  11.219
23494SOL    HW272380   8.138  12.759  11.146
23495SOL     OW72381   0.887   8.527   3.111
23495SOL    HW172382   0.928   8.612   3.129
23495SOL    HW272383   0.888   8.482   3.196
23496SOL     OW72384   5.390   3.815   9.149
23496SOL    HW172385   5.406   3.788   9.058
23496SOL    HW272386   5.470   3.788   9.196
23497SOL     OW72387  14.814  10.206  11.944
23497SOL    HW172388   0.016  10.235  11.960
23497SOL    HW272389  14.822  10.145  11.871
23498SOL     OW72390   9.384   4.962   9.027
23498SOL    HW172391   9.369   4.919   8.943
23498SOL    HW272392   9.307   5.017   9.040
23499SOL     OW72393   0.793   8.509   4.326
23499SOL    HW172394   0.814   8.539   4.237
23499SOL    HW272395   0.854   8.437   4.342
23500SOL     OW72396   6.457  13.601   3.441
23500SOL    HW172397   6.492  13.587   3.529
23500SOL    HW272398   6.362  13.592   3.452
23501SOL     OW72399   9.458  12.255   5.987
23501SOL    HW172400   9.467  12.341   6.028
23501SOL    HW272401   9.365  12.250   5.963
23502SOL     OW72402   9.208   5.212   7.755
23502SOL    HW172403   9.126   5.168   7.734
23502SOL    HW272404   9.269   5.142   7.776
23503SOL     OW72405   1.994   1.188   3.107
23503SOL    HW172406   1.905   1.212   3.134
23503SOL    HW272407   2.044   1.270   3.115
23504SOL     OW72408   4.488   7.043  14.153
23504SOL    HW172409   4.523   6.971  14.205
23504SOL    HW272410   4.430   7.002  14.090
23505SOL     OW72411   0.410  13.128   3.563
23505SOL    HW172412   0.477  13.190   3.591
23505SOL    HW272413   0.459  13.054   3.528
23506SOL     OW72414  14.332   4.834  13.971
23506SOL    HW172415  14.347   4.775  14.045
23506SOL    HW272416  14.247   4.809  13.937
23507SOL     OW72417  13.106   8.696   0.093
23507SOL    HW172418  13.094   8.625   0.156
23507SOL    HW272419  13.019   8.707   0.053
23508SOL     OW72420   5.235   2.539   8.970
23508SOL    HW172421   5.255   2.619   8.922
23508SOL    HW272422   5.160   2.501   8.923
23509SOL     OW72423  11.017   8.126   9.955
23509SOL    HW172424  11.111   8.135   9.969
23509SOL    HW272425  10.985   8.083  10.035
23510SOL     OW72426   3.499   0.542   9.858
23510SOL    HW172427   3.554   0.557   9.781
23510SOL    HW272428   3.435   0.614   9.856
23511SOL     OW72429  11.683   5.363  12.299
23511SOL    HW172430  11.603   5.326  12.262
23511SOL    HW272431  11.686   5.329  12.388
23512SOL     OW72432  13.979  11.737   3.109
23512SOL    HW172433  13.994  11.797   3.036
23512SOL    HW272434  14.042  11.666   3.095
23513SOL     OW72435   4.810   3.334   3.238
23513SOL    HW172436   4.823   3.377   3.153
23513SOL    HW272437   4.755   3.395   3.287
23514SOL     OW72438   7.185   5.653   7.830
23514SOL    HW172439   7.265   5.643   7.882
23514SOL    HW272440   7.137   5.572   7.844
23515SOL     OW72441  11.060   4.412  11.504
23515SOL    HW172442  11.131   4.370  11.554
23515SOL    HW272443  11.002   4.448  11.571
23516SOL     OW72444   4.159   1.602  11.576
23516SOL    HW172445   4.115   1.651  11.645
23516SOL    HW272446   4.230   1.659  11.547
23517SOL     OW72447   3.621   9.925   2.811
23517SOL    HW172448   3.530   9.899   2.828
23517SOL    HW272449   3.662   9.928   2.897
23518SOL     OW72450  13.826   5.417  11.380
23518SOL    HW172451  13.883   5.360  11.329
23518SOL    HW272452  13.738   5.398  11.348
23519SOL     OW72453  11.737   2.492  10.458
23519SOL    HW172454  11.693   2.553  10.399
23519SOL    HW272455  11.725   2.530  10.545
23520SOL     OW72456   8.671   1.991   2.124
23520SOL    HW172457   8.699   1.989   2.032
23520SOL    HW272458   8.590   1.940   2.126
23521SOL     OW72459  11.007  11.098   8.396
23521SOL    HW172460  10.919  11.059   8.401
23521SOL    HW272461  11.049  11.073   8.478
23522SOL     OW72462   8.608  10.143   4.371
23522SOL    HW172463   8.516  10.120   4.388
23522SOL    HW272464   8.616  10.234   4.399
23523SOL     OW72465   1.530  13.513  13.732
23523SOL    HW172466   1.456  13.452  13.725
23523SOL    HW272467   1.605  13.457  13.751
23524SOL     OW72468   7.001   8.805   6.070
23524SOL    HW172469   6.962   8.724   6.104
23524SOL    HW272470   6.930   8.869   6.073
23525SOL     OW72471   7.884   7.625  11.065
23525SOL    HW172472   7.837   7.682  11.126
23525SOL    HW272473   7.858   7.655  10.978
23526SOL     OW72474   5.488  13.790  10.702
23526SOL    HW172475   5.417  13.783  10.766
23526SOL    HW272476   5.444  13.821  10.623
23527SOL     OW72477   6.257  11.824   7.122
23527SOL    HW172478   6.213  11.741   7.143
23527SOL    HW272479   6.321  11.836   7.192
23528SOL     OW72480   3.380   9.961   2.269
23528SOL    HW172481   3.302   9.907   2.255
23528SOL    HW272482   3.447   9.899   2.297
23529SOL     OW72483  10.426   8.201  11.378
23529SOL    HW172484  10.356   8.168  11.322
23529SOL    HW272485  10.501   8.143  11.361
23530SOL     OW72486   8.555   5.498  11.336
23530SOL    HW172487   8.558   5.540  11.422
23530SOL    HW272488   8.544   5.570  11.275
23531SOL     OW72489  10.386   4.858  11.349
23531SOL    HW172490  10.326   4.930  11.368
23531SOL    HW272491  10.337   4.800  11.292
23532SOL     OW72492  10.780  10.831   1.510
23532SOL    HW172493  10.698  10.787   1.532
23532SOL    HW272494  10.845  10.793   1.568
23533SOL     OW72495  12.321   3.258   6.186
23533SOL    HW172496  12.399   3.275   6.238
23533SOL    HW272497  12.289   3.173   6.217
23534SOL     OW72498  14.820   3.773  12.511
23534SOL    HW172499  14.853   3.786  12.422
23534SOL    HW272500  14.885   3.817  12.567
23535SOL     OW72501   3.671  12.505  13.044
23535SOL    HW172502   3.639  12.492  13.133
23535SOL    HW272503   3.670  12.600  13.032
23536SOL     OW72504  13.776  12.113  11.046
23536SOL    HW172505  13.756  12.196  11.090
23536SOL    HW272506  13.872  12.111  11.043
23537SOL     OW72507   5.268   6.896   1.465
23537SOL    HW172508   5.240   6.845   1.542
23537SOL    HW272509   5.283   6.984   1.499
23538SOL     OW72510   4.167   0.611   4.993
23538SOL    HW172511   4.097   0.677   4.993
23538SOL    HW272512   4.240   0.654   5.039
23539SOL     OW72513   7.559   2.270   2.402
23539SOL    HW172514   7.620   2.209   2.443
23539SOL    HW272515   7.504   2.300   2.474
23540SOL     OW72516  14.638   3.249   5.644
23540SOL    HW172517  14.606   3.257   5.554
23540SOL    HW272518  14.560   3.232   5.696
23541SOL     OW72519   7.695   1.799   5.122
23541SOL    HW172520   7.704   1.731   5.190
23541SOL    HW272521   7.762   1.776   5.057
23542SOL     OW72522   8.078  14.792   9.226
23542SOL    HW172523   8.143  14.763   9.290
23542SOL    HW272524   8.100  14.884   9.210
23543SOL     OW72525   2.556  13.061  12.425
23543SOL    HW172526   2.548  13.141  12.477
23543SOL    HW272527   2.466  13.039  12.400
23544SOL     OW72528   1.466   5.729  10.283
23544SOL    HW172529   1.492   5.821  10.274
23544SOL    HW272530   1.379   5.733  10.323
23545SOL     OW72531  14.496   9.363  11.342
23545SOL    HW172532  14.451   9.306  11.405
23545SOL    HW272533  14.520   9.305  11.270
23546SOL     OW72534   5.358  10.565  11.676
23546SOL    HW172535   5.411  10.630  11.630
23546SOL    HW272536   5.419  10.495  11.698
23547SOL     OW72537   2.095  10.085   9.612
23547SOL    HW172538   2.073  10.055   9.523
23547SOL    HW272539   2.154  10.019   9.646
23548SOL     OW72540  11.237  10.121   3.826
23548SOL    HW172541  11.180  10.187   3.864
23548SOL    HW272542  11.250  10.057   3.897
23549SOL     OW72543  14.667  12.035  11.323
23549SOL    HW172544  14.728  11.962  11.330
23549SOL    HW272545  14.723  12.113  11.328
23550SOL     OW72546   0.728  12.628  14.212
23550SOL    HW172547   0.768  12.558  14.160
23550SOL    HW272548   0.801  12.668  14.259
23551SOL     OW72549   4.100   8.060   5.920
23551SOL    HW172550   4.097   7.977   5.968
23551SOL    HW272551   4.179   8.104   5.952
23552SOL     OW72552   4.010   5.551   2.509
23552SOL    HW172553   4.091   5.563   2.560
23552SOL    HW272554   3.943   5.598   2.559
23553SOL     OW72555  12.943   9.215   3.908
23553SOL    HW172556  13.001   9.145   3.879
23553SOL    HW272557  12.908   9.183   3.992
23554SOL     OW72558   6.727   3.706   2.787
23554SOL    HW172559   6.818   3.709   2.759
23554SOL    HW272560   6.717   3.620   2.827
23555SOL     OW72561   5.039  14.397   9.921
23555SOL    HW172562   4.983  14.362   9.851
23555SOL    HW272563   5.014  14.489   9.927
23556SOL     OW72564   8.105  10.171   6.475
23556SOL    HW172565   8.084  10.165   6.568
23556SOL    HW272566   8.020  10.170   6.431
23557SOL     OW72567   1.596   0.655   9.662
23557SOL    HW172568   1.675   0.695   9.625
23557SOL    HW272569   1.545   0.628   9.586
23558SOL     OW72570  12.029   5.485  11.697
23558SOL    HW172571  11.970   5.496  11.623
23558SOL    HW272572  12.099   5.429  11.664
23559SOL     OW72573   7.843   7.316   2.854
23559SOL    HW172574   7.903   7.390   2.856
23559SOL    HW272575   7.879   7.253   2.916
23560SOL     OW72576  11.941  12.658   8.336
23560SOL    HW172577  11.885  12.690   8.266
23560SOL    HW272578  12.011  12.722   8.343
23561SOL     OW72579   8.537   4.198   3.727
23561SOL    HW172580   8.587   4.130   3.683
23561SOL    HW272581   8.479   4.234   3.659
23562SOL     OW72582   3.638   5.451  14.087
23562SOL    HW172583   3.660   5.500  14.166
23562SOL    HW272584   3.545   5.471  14.071
23563SOL     OW72585  11.675   7.854   8.761
23563SOL    HW172586  11.742   7.914   8.793
23563SOL    HW272587  11.695   7.843   8.668
23564SOL     OW72588  12.463   6.992   9.352
23564SOL    HW172589  12.368   6.981   9.348
23564SOL    HW272590  12.476   7.072   9.403
23565SOL     OW72591   6.056   2.313   2.757
23565SOL    HW172592   6.137   2.345   2.796
23565SOL    HW272593   6.081   2.289   2.668
23566SOL     OW72594   0.298   0.040   0.479
23566SOL    HW172595   0.259   0.118   0.518
23566SOL    HW272596   0.224  14.877   0.445
23567SOL     OW72597   3.984   3.722   9.809
23567SOL    HW172598   3.998   3.697   9.718
23567SOL    HW272599   3.890   3.741   9.814
23568SOL     OW72600   0.321  10.982   5.863
23568SOL    HW172601   0.287  11.064   5.826
23568SOL    HW272602   0.304  10.916   5.795
23569SOL     OW72603   7.116   8.271   5.456
23569SOL    HW172604   7.029   8.284   5.417
23569SOL    HW272605   7.159   8.356   5.449
23570SOL     OW72606   5.792  12.349  11.697
23570SOL    HW172607   5.885  12.353  11.672
23570SOL    HW272608   5.770  12.440  11.720
23571SOL     OW72609   9.330   9.278  11.372
23571SOL    HW172610   9.294   9.366  11.370
23571SOL    HW272611   9.422   9.289  11.349
23572SOL     OW72612   7.069   3.992   3.879
23572SOL    HW172613   7.067   3.897   3.892
23572SOL    HW272614   7.155   4.019   3.914
23573SOL     OW72615   2.599   5.879  13.560
23573SOL    HW172616   2.568   5.800  13.518
23573SOL    HW272617   2.629   5.935  13.489
23574SOL     OW72618  13.641  13.002   3.845
23574SOL    HW172619  13.621  12.997   3.752
23574SOL    HW272620  13.732  12.973   3.851
23575SOL     OW72621  11.585   5.533   3.220
23575SOL    HW172622  11.535   5.453   3.235
23575SOL    HW272623  11.519   5.602   3.214
23576SOL     OW72624   4.746   6.656  14.266
23576SOL    HW172625   4.820   6.680  14.210
23576SOL    HW272626   4.786   6.626  14.347
23577SOL     OW72627   8.510   0.382   1.124
23577SOL    HW172628   8.419   0.355   1.113
23577SOL    HW272629   8.556   0.339   1.051
23578SOL     OW72630   2.555   7.932   2.623
23578SOL    HW172631   2.546   7.847   2.579
23578SOL    HW272632   2.480   7.982   2.593
23579SOL     OW72633  12.582   5.728   7.468
23579SOL    HW172634  12.613   5.794   7.406
23579SOL    HW272635  12.490   5.716   7.446
23580SOL     OW72636   4.976  10.859   8.309
23580SOL    HW172637   5.012  10.789   8.363
23580SOL    HW272638   4.948  10.816   8.229
23581SOL     OW72639   9.788   3.231   2.819
23581SOL    HW172640   9.741   3.224   2.736
23581SOL    HW272641   9.880   3.234   2.794
23582SOL     OW72642   0.591   8.576   7.881
23582SOL    HW172643   0.642   8.603   7.957
23582SOL    HW272644   0.587   8.653   7.825
23583SOL     OW72645  11.975   0.466   2.807
23583SOL    HW172646  12.054   0.413   2.820
23583SOL    HW272647  11.919   0.444   2.881
23584SOL     OW72648   5.764   8.865   5.767
23584SOL    HW172649   5.701   8.825   5.826
23584SOL    HW272650   5.837   8.803   5.765
23585SOL     OW72651   3.929   3.620   3.309
23585SOL    HW172652   3.946   3.672   3.230
23585SOL    HW272653   3.835   3.602   3.305
23586SOL     OW72654   2.566   7.989  12.512
23586SOL    HW172655   2.611   8.071  12.494
23586SOL    HW272656   2.578   7.937  12.433
23587SOL     OW72657  14.129   3.237  10.637
23587SOL    HW172658  14.048   3.287  10.640
23587SOL    HW272659  14.123   3.177  10.711
23588SOL     OW72660   0.082  12.179  13.085
23588SOL    HW172661   0.122  12.205  13.167
23588SOL    HW272662   0.005  12.235  13.076
23589SOL     OW72663  11.958   8.505  13.540
23589SOL    HW172664  11.964   8.414  13.514
23589SOL    HW272665  12.038   8.522  13.590
23590SOL     OW72666   2.029   8.299  12.332
23590SOL    HW172667   2.063   8.260  12.413
23590SOL    HW272668   2.017   8.392  12.353
23591SOL     OW72669   9.513   3.670   8.639
23591SOL    HW172670   9.520   3.577   8.616
23591SOL    HW272671   9.481   3.712   8.559
23592SOL     OW72672  14.530   8.955  13.393
23592SOL    HW172673  14.517   8.873  13.440
23592SOL    HW272674  14.458   8.959  13.330
23593SOL     OW72675   9.426   1.242   1.954
23593SOL    HW172676   9.519   1.226   1.970
23593SOL    HW272677   9.395   1.161   1.913
23594SOL     OW72678  10.411   2.239  10.237
23594SOL    HW172679  10.499   2.271  10.219
23594SOL    HW272680  10.425   2.155  10.281
23595SOL     OW72681   6.304   7.875   1.539
23595SOL    HW172682   6.266   7.942   1.596
23595SOL    HW272683   6.248   7.798   1.553
23596SOL     OW72684   2.502  11.727   5.135
23596SOL    HW172685   2.565  11.689   5.195
23596SOL    HW272686   2.527  11.694   5.049
23597SOL     OW72687   5.712   6.660   4.881
23597SOL    HW172688   5.804   6.672   4.902
23597SOL    HW272689   5.709   6.581   4.827
23598SOL     OW72690   1.771  12.750  11.987
23598SOL    HW172691   1.720  12.699  12.050
23598SOL    HW272692   1.730  12.733  11.902
23599SOL     OW72693  11.387  14.163   3.666
23599SOL    HW172694  11.391  14.108   3.744
23599SOL    HW272695  11.338  14.241   3.694
23600SOL     OW72696   5.728   2.180   9.718
23600SOL    HW172697   5.666   2.174   9.791
23600SOL    HW272698   5.721   2.096   9.673
23601SOL     OW72699   0.426   6.612   8.704
23601SOL    HW172700   0.447   6.705   8.692
23601SOL    HW272701   0.386   6.608   8.791
23602SOL     OW72702  13.057   8.976   1.977
23602SOL    HW172703  12.982   9.010   2.025
23602SOL    HW272704  13.107   8.925   2.041
23603SOL     OW72705  12.638   8.309   1.497
23603SOL    HW172706  12.630   8.390   1.549
23603SOL    HW272707  12.627   8.239   1.561
23604SOL     OW72708   7.884  14.500  13.178
23604SOL    HW172709   7.947  14.435  13.146
23604SOL    HW272710   7.938  14.569  13.218
23605SOL     OW72711  13.994   9.239  14.804
23605SOL    HW172712  13.943   9.270  14.730
23605SOL    HW272713  13.946   9.270  14.881
23606SOL     OW72714   6.955   5.983   7.723
23606SOL    HW172715   6.991   5.961   7.809
23606SOL    HW272716   7.012   6.053   7.690
23607SOL     OW72717  14.757   9.005   4.311
23607SOL    HW172718  14.712   8.968   4.236
23607SOL    HW272719  14.792   8.930   4.358
23608SOL     OW72720   1.587   2.185  11.459
23608SOL    HW172721   1.568   2.103  11.415
23608SOL    HW272722   1.513   2.242  11.437
23609SOL     OW72723   7.984   5.735  12.486
23609SOL    HW172724   7.987   5.655  12.539
23609SOL    HW272725   7.959   5.804  12.547
23610SOL     OW72726  14.700   3.476  12.384
23610SOL    HW172727  14.779   3.469  12.330
23610SOL    HW272728  14.728   3.525  12.462
23611SOL     OW72729  12.136   1.722  14.048
23611SOL    HW172730  12.058   1.768  14.080
23611SOL    HW272731  12.208   1.762  14.095
23612SOL     OW72732   0.469   8.985   0.291
23612SOL    HW172733   0.408   8.913   0.304
23612SOL    HW272734   0.550   8.956   0.333
23613SOL     OW72735  10.831  13.765   1.770
23613SOL    HW172736  10.843  13.741   1.678
23613SOL    HW272737  10.816  13.681   1.815
23614SOL     OW72738   6.414  13.928   0.313
23614SOL    HW172739   6.386  14.015   0.287
23614SOL    HW272740   6.339  13.872   0.293
23615SOL     OW72741   2.009   3.366  14.079
23615SOL    HW172742   1.929   3.416  14.094
23615SOL    HW272743   2.078   3.420  14.116
23616SOL     OW72744   5.557  14.588  10.293
23616SOL    HW172745   5.525  14.627  10.211
23616SOL    HW272746   5.515  14.502  10.296
23617SOL     OW72747  14.126   4.386   7.859
23617SOL    HW172748  14.128   4.311   7.799
23617SOL    HW272749  14.218   4.400   7.882
23618SOL     OW72750   7.127  10.974  12.959
23618SOL    HW172751   7.166  10.943  13.041
23618SOL    HW272752   7.125  10.896  12.903
23619SOL     OW72753   6.781   2.643  14.223
23619SOL    HW172754   6.726   2.663  14.299
23619SOL    HW272755   6.804   2.729  14.187
23620SOL     OW72756  13.268  11.585   5.082
23620SOL    HW172757  13.242  11.494   5.094
23620SOL    HW272758  13.224  11.613   5.002
23621SOL     OW72759   7.508   2.317   1.306
23621SOL    HW172760   7.584   2.290   1.356
23621SOL    HW272761   7.468   2.387   1.358
23622SOL     OW72762   3.157  11.968  10.658
23622SOL    HW172763   3.073  11.923  10.667
23622SOL    HW272764   3.205  11.948  10.738
23623SOL     OW72765   2.007   2.517   0.523
23623SOL    HW172766   1.937   2.466   0.483
23623SOL    HW272767   2.084   2.500   0.468
23624SOL     OW72768  11.866   5.826   6.927
23624SOL    HW172769  11.797   5.841   6.862
23624SOL    HW272770  11.947   5.822   6.875
23625SOL     OW72771  14.249  14.216   3.902
23625SOL    HW172772  14.219  14.126   3.912
23625SOL    HW272773  14.319  14.211   3.838
23626SOL     OW72774  14.495   0.148   7.875
23626SOL    HW172775  14.406   0.147   7.909
23626SOL    HW272776  14.520   0.055   7.871
23627SOL     OW72777   0.846  13.926   0.399
23627SOL    HW172778   0.916  13.873   0.437
23627SOL    HW272779   0.848  14.008   0.449
23628SOL     OW72780   0.264   5.520  10.500
23628SOL    HW172781   0.180   5.552  10.468
23628SOL    HW272782   0.291   5.584  10.566
23629SOL     OW72783   7.407   8.765   9.311
23629SOL    HW172784   7.447   8.847   9.340
23629SOL    HW272785   7.422   8.704   9.383
23630SOL     OW72786   2.299   0.919  10.006
23630SOL    HW172787   2.337   0.861  10.072
23630SOL    HW272788   2.262   0.992  10.056
23631SOL     OW72789   3.046  12.810   6.669
23631SOL    HW172790   3.062  12.870   6.741
23631SOL    HW272791   3.133  12.784   6.639
23632SOL     OW72792   1.402  11.470  14.648
23632SOL    HW172793   1.312  11.457  14.617
23632SOL    HW272794   1.421  11.562  14.629
23633SOL     OW72795   0.271   6.082   0.591
23633SOL    HW172796   0.221   6.083   0.673
23633SOL    HW272797   0.207   6.109   0.524
23634SOL     OW72798   9.823   6.642   7.340
23634SOL    HW172799   9.888   6.682   7.397
23634SOL    HW272800   9.830   6.690   7.258
23635SOL     OW72801  13.313   8.272   3.639
23635SOL    HW172802  13.404   8.244   3.652
23635SOL    HW272803  13.266   8.237   3.714
23636SOL     OW72804   4.688   4.110   7.391
23636SOL    HW172805   4.721   4.033   7.438
23636SOL    HW272806   4.594   4.097   7.387
23637SOL     OW72807   3.070   3.741  10.949
23637SOL    HW172808   3.128   3.727  10.875
23637SOL    HW272809   2.987   3.701  10.923
23638SOL     OW72810   6.038   5.791  11.144
23638SOL    HW172811   6.035   5.833  11.230
23638SOL    HW272812   6.065   5.701  11.162
23639SOL     OW72813  11.577  12.414   6.968
23639SOL    HW172814  11.552  12.505   6.979
23639SOL    HW272815  11.505  12.374   6.921
23640SOL     OW72816   0.833  12.200   1.502
23640SOL    HW172817   0.880  12.248   1.571
23640SOL    HW272818   0.772  12.144   1.550
23641SOL     OW72819   1.154   5.336   4.328
23641SOL    HW172820   1.214   5.410   4.318
23641SOL    HW272821   1.114   5.349   4.414
23642SOL     OW72822  13.390   0.147   9.746
23642SOL    HW172823  13.374   0.221   9.687
23642SOL    HW272824  13.467   0.172   9.796
23643SOL     OW72825   4.526   5.590   6.328
23643SOL    HW172826   4.461   5.637   6.381
23643SOL    HW272827   4.609   5.607   6.371
23644SOL     OW72828  11.616   9.530   0.222
23644SOL    HW172829  11.555   9.598   0.194
23644SOL    HW272830  11.702   9.573   0.220
23645SOL     OW72831  14.683   5.387   7.175
23645SOL    HW172832  14.743   5.352   7.241
23645SOL    HW272833  14.607   5.330   7.179
23646SOL     OW72834  13.152   5.893  14.132
23646SOL    HW172835  13.119   5.837  14.203
23646SOL    HW272836  13.247   5.890  14.142
23647SOL     OW72837  11.289   1.885   2.772
23647SOL    HW172838  11.271   1.903   2.865
23647SOL    HW272839  11.290   1.789   2.767
23648SOL     OW72840  14.846   9.469  10.546
23648SOL    HW172841  14.873   9.474  10.637
23648SOL    HW272842  14.827   9.560  10.522
23649SOL     OW72843  12.725   3.693  11.736
23649SOL    HW172844  12.683   3.681  11.822
23649SOL    HW272845  12.803   3.745  11.754
23650SOL     OW72846   5.025   5.319   9.544
23650SOL    HW172847   4.992   5.324   9.634
23650SOL    HW272848   5.092   5.387   9.539
23651SOL     OW72849   6.969   8.215  13.759
23651SOL    HW172850   6.983   8.267  13.839
23651SOL    HW272851   6.940   8.130  13.792
23652SOL     OW72852  12.846   7.164   3.073
23652SOL    HW172853  12.904   7.206   3.136
23652SOL    HW272854  12.896   7.160   2.992
23653SOL     OW72855  14.213   2.180   4.889
23653SOL    HW172856  14.126   2.161   4.855
23653SOL    HW272857  14.197   2.230   4.969
23654SOL     OW72858   5.686  11.504   7.136
23654SOL    HW172859   5.624  11.458   7.192
23654SOL    HW272860   5.681  11.459   7.051
23655SOL     OW72861  11.934   1.250   4.573
23655SOL    HW172862  12.000   1.198   4.527
23655SOL    HW272863  11.869   1.186   4.602
23656SOL     OW72864   7.058  11.255   4.251
23656SOL    HW172865   7.137  11.248   4.197
23656SOL    HW272866   7.081  11.212   4.333
23657SOL     OW72867  11.619  10.463   6.766
23657SOL    HW172868  11.699  10.510   6.787
23657SOL    HW272869  11.595  10.418   6.847
23658SOL     OW72870   3.287   4.034   0.702
23658SOL    HW172871   3.219   4.027   0.769
23658SOL    HW272872   3.248   4.089   0.634
23659SOL     OW72873  12.163  12.517   9.104
23659SOL    HW172874  12.093  12.583   9.103
23659SOL    HW272875  12.222  12.545   9.174
23660SOL     OW72876   0.239  12.277  10.056
23660SOL    HW172877   0.261  12.319  10.139
23660SOL    HW272878   0.252  12.184  10.071
23661SOL     OW72879   2.431   1.116   4.960
23661SOL    HW172880   2.345   1.130   5.000
23661SOL    HW272881   2.492   1.116   5.033
23662SOL     OW72882  11.671   3.107   6.511
23662SOL    HW172883  11.713   3.181   6.555
23662SOL    HW272884  11.584   3.140   6.486
23663SOL     OW72885  11.226   8.309   2.632
23663SOL    HW172886  11.246   8.387   2.580
23663SOL    HW272887  11.218   8.341   2.722
23664SOL     OW72888   5.825  11.009  10.193
23664SOL    HW172889   5.882  11.005  10.270
23664SOL    HW272890   5.866  10.950  10.130
23665SOL     OW72891  14.031   9.583   3.650
23665SOL    HW172892  14.032   9.489   3.665
23665SOL    HW272893  14.117   9.602   3.612
23666SOL     OW72894   5.659  13.655   1.711
23666SOL    HW172895   5.661  13.688   1.621
23666SOL    HW272896   5.742  13.684   1.749
23667SOL     OW72897   8.386   8.610   5.097
23667SOL    HW172898   8.407   8.626   5.005
23667SOL    HW272899   8.300   8.568   5.095
23668SOL     OW72900   8.457   2.238   8.696
23668SOL    HW172901   8.452   2.266   8.605
23668SOL    HW272902   8.444   2.318   8.747
23669SOL     OW72903  10.150   9.221   8.859
23669SOL    HW172904  10.208   9.165   8.911
23669SOL    HW272905  10.192   9.307   8.859
23670SOL     OW72906   5.584   3.374  14.501
23670SOL    HW172907   5.581   3.318  14.578
23670SOL    HW272908   5.650   3.334  14.445
23671SOL     OW72909   8.204   9.953  13.923
23671SOL    HW172910   8.157   9.964  13.840
23671SOL    HW272911   8.199   9.859  13.941
23672SOL     OW72912   4.924  13.495   0.008
23672SOL    HW172913   4.943  13.456  14.810
23672SOL    HW272914   4.898  13.421   0.063
23673SOL     OW72915  10.198   2.054  12.922
23673SOL    HW172916  10.261   2.084  12.988
23673SOL    HW272917  10.113   2.068  12.963
23674SOL     OW72918   8.572   0.036   6.554
23674SOL    HW172919   8.575  14.840   6.600
23674SOL    HW272920   8.663   0.067   6.556
23675SOL     OW72921   2.452   2.031  14.622
23675SOL    HW172922   2.466   2.073  14.538
23675SOL    HW272923   2.386   2.084  14.666
23676SOL     OW72924  12.555   2.684   4.794
23676SOL    HW172925  12.514   2.600   4.815
23676SOL    HW272926  12.587   2.673   4.704
23677SOL     OW72927   5.100   5.428  10.113
23677SOL    HW172928   5.157   5.352  10.122
23677SOL    HW272929   5.126   5.468  10.030
23678SOL     OW72930   8.562  13.451   7.661
23678SOL    HW172931   8.656  13.438   7.674
23678SOL    HW272932   8.524  13.447   7.748
23679SOL     OW72933   6.695   7.842   5.193
23679SOL    HW172934   6.635   7.885   5.133
23679SOL    HW272935   6.682   7.888   5.277
23680SOL     OW72936   4.644   8.536   5.085
23680SOL    HW172937   4.631   8.470   5.153
23680SOL    HW272938   4.581   8.605   5.105
23681SOL     OW72939   4.629  10.315   8.699
23681SOL    HW172940   4.697  10.257   8.732
23681SOL    HW272941   4.652  10.330   8.608
23682SOL     OW72942  13.765   4.964   8.374
23682SOL    HW172943  13.691   4.975   8.434
23682SOL    HW272944  13.747   5.027   8.304
23683SOL     OW72945   3.533   9.763  14.582
23683SOL    HW172946   3.601   9.722  14.528
23683SOL    HW272947   3.490   9.825  14.523
23684SOL     OW72948   8.934  14.520   9.013
23684SOL    HW172949   8.930  14.456   9.084
23684SOL    HW272950   8.940  14.468   8.933
23685SOL     OW72951   7.862   8.868   1.129
23685SOL    HW172952   7.785   8.817   1.105
23685SOL    HW272953   7.914   8.808   1.183
23686SOL     OW72954   3.621   1.491   5.548
23686SOL    HW172955   3.677   1.561   5.582
23686SOL    HW272956   3.669   1.411   5.570
23687SOL     OW72957  14.628   1.975  11.436
23687SOL    HW172958  14.608   2.016  11.520
23687SOL    HW272959  14.550   1.990  11.383
23688SOL     OW72960   3.488   3.739  12.670
23688SOL    HW172961   3.474   3.750  12.576
23688SOL    HW272962   3.583   3.726  12.679
23689SOL     OW72963   5.357   6.699   3.832
23689SOL    HW172964   5.445   6.736   3.823
23689SOL    HW272965   5.342   6.652   3.750
23690SOL     OW72966  13.275  11.802   6.688
23690SOL    HW172967  13.267  11.726   6.632
23690SOL    HW272968  13.232  11.873   6.640
23691SOL     OW72969  14.517   5.905  10.196
23691SOL    HW172970  14.478   5.833  10.247
23691SOL    HW272971  14.504   5.983  10.250
23692SOL     OW72972  12.378   7.236   4.132
23692SOL    HW172973  12.407   7.315   4.177
23692SOL    HW272974  12.350   7.177   4.202
23693SOL     OW72975   0.718   7.930   5.180
23693SOL    HW172976   0.755   8.014   5.153
23693SOL    HW272977   0.651   7.911   5.115
23694SOL     OW72978  14.317  12.128  11.563
23694SOL    HW172979  14.384  12.105  11.626
23694SOL    HW272980  14.364  12.145  11.482
23695SOL     OW72981  10.624   4.346  14.416
23695SOL    HW172982  10.715   4.325  14.438
23695SOL    HW272983  10.615   4.319  14.325
23696SOL     OW72984   1.663   3.634   8.286
23696SOL    HW172985   1.752   3.646   8.319
23696SOL    HW272986   1.641   3.717   8.244
23697SOL     OW72987   0.687  13.191   8.550
23697SOL    HW172988   0.665  13.125   8.484
23697SOL    HW272989   0.687  13.143   8.632
23698SOL     OW72990   1.331   2.372   9.548
23698SOL    HW172991   1.387   2.441   9.513
23698SOL    HW272992   1.242   2.399   9.525
23699SOL     OW72993  11.939   2.362   7.746
23699SOL    HW172994  11.972   2.371   7.656
23699SOL    HW272995  11.845   2.376   7.737
23700SOL     OW72996   9.659  11.372   1.871
23700SOL    HW172997   9.694  11.344   1.956
23700SOL    HW272998   9.659  11.467   1.875
23701SOL     OW72999   2.654  10.769   3.519
23701SOL    HW173000   2.614  10.700   3.465
23701SOL    HW273001   2.611  10.760   3.604
23702SOL     OW73002   3.945  12.076   2.482
23702SOL    HW173003   3.894  12.015   2.429
23702SOL    HW273004   4.005  12.116   2.420
23703SOL     OW73005  13.120   5.268   4.045
23703SOL    HW173006  13.102   5.211   4.120
23703SOL    HW273007  13.215   5.276   4.043
23704SOL     OW73008   3.876  10.694   9.393
23704SOL    HW173009   3.914  10.660   9.313
23704SOL    HW273010   3.950  10.728   9.443
23705SOL     OW73011   3.310   4.468  10.995
23705SOL    HW173012   3.306   4.545  11.052
23705SOL    HW273013   3.219   4.447  10.976
23706SOL     OW73014  13.919  10.748  11.814
23706SOL    HW173015  13.828  10.777  11.815
23706SOL    HW273016  13.969  10.829  11.829
23707SOL     OW73017   1.316  10.139   3.261
23707SOL    HW173018   1.254  10.184   3.202
23707SOL    HW273019   1.390  10.198   3.268
23708SOL     OW73020  12.947   1.475   7.611
23708SOL    HW173021  12.864   1.434   7.633
23708SOL    HW273022  12.923   1.557   7.567
23709SOL     OW73023   8.162   2.259   7.037
23709SOL    HW173024   8.165   2.199   7.111
23709SOL    HW273025   8.086   2.231   6.985
23710SOL     OW73026  12.371  11.547   5.761
23710SOL    HW173027  12.358  11.610   5.690
23710SOL    HW273028  12.460  11.564   5.791
23711SOL     OW73029   6.706  12.442  10.034
23711SOL    HW173030   6.716  12.445   9.939
23711SOL    HW273031   6.615  12.470  10.050
23712SOL     OW73032   1.336  13.259   6.178
23712SOL    HW173033   1.426  13.260   6.145
23712SOL    HW273034   1.319  13.350   6.202
23713SOL     OW73035   4.512  10.081   5.438
23713SOL    HW173036   4.479  10.134   5.510
23713SOL    HW273037   4.571  10.018   5.479
23714SOL     OW73038  11.093   7.264  10.755
23714SOL    HW173039  11.117   7.202  10.824
23714SOL    HW273040  11.099   7.350  10.797
23715SOL     OW73041   7.103   8.306   0.781
23715SOL    HW173042   7.098   8.215   0.752
23715SOL    HW273043   7.075   8.304   0.872
23716SOL     OW73044   4.057   1.059   1.324
23716SOL    HW173045   4.029   1.133   1.378
23716SOL    HW273046   4.114   1.008   1.382
23717SOL     OW73047   4.814  13.228  14.755
23717SOL    HW173048   4.813  13.157  14.819
23717SOL    HW273049   4.905  13.233  14.726
23718SOL     OW73050  13.569   2.174   5.798
23718SOL    HW173051  13.649   2.226   5.799
23718SOL    HW273052  13.511   2.217   5.860
23719SOL     OW73053  14.099   9.551  12.255
23719SOL    HW173054  14.039   9.551  12.329
23719SOL    HW273055  14.185   9.572  12.293
23720SOL     OW73056  14.380   3.180  11.718
23720SOL    HW173057  14.387   3.153  11.809
23720SOL    HW273058  14.289   3.210  11.708
23721SOL     OW73059   7.863   6.149   5.918
23721SOL    HW173060   7.861   6.244   5.928
23721SOL    HW273061   7.859   6.133   5.824
23722SOL     OW73062  12.515   0.634   7.437
23722SOL    HW173063  12.536   0.714   7.389
23722SOL    HW273064  12.444   0.593   7.386
23723SOL     OW73065   0.633   2.198   7.376
23723SOL    HW173066   0.643   2.124   7.315
23723SOL    HW273067   0.539   2.201   7.394
23724SOL     OW73068   8.627  12.929   6.717
23724SOL    HW173069   8.671  13.013   6.725
23724SOL    HW273070   8.639  12.904   6.625
23725SOL     OW73071   0.214   3.719  10.476
23725SOL    HW173072   0.262   3.725  10.558
23725SOL    HW273073   0.239   3.797  10.427
23726SOL     OW73074   9.018  14.784   9.104
23726SOL    HW173075   8.969  14.863   9.083
23726SOL    HW273076   8.953  14.714   9.104
23727SOL     OW73077   0.462   2.482   0.335
23727SOL    HW173078   0.497   2.451   0.252
23727SOL    HW273079   0.536   2.525   0.378
23728SOL     OW73080   0.842   8.127   9.363
23728SOL    HW173081   0.902   8.136   9.290
23728SOL    HW273082   0.820   8.034   9.365
23729SOL     OW73083   1.071   5.544  12.699
23729SOL    HW173084   1.005   5.502  12.643
23729SOL    HW273085   1.045   5.636  12.701
23730SOL     OW73086  14.117  14.027   1.589
23730SOL    HW173087  14.147  14.075   1.666
23730SOL    HW273088  14.078  13.947   1.624
23731SOL     OW73089  14.064  12.170  11.330
23731SOL    HW173090  14.055  12.152  11.237
23731SOL    HW273091  14.031  12.259  11.341
23732SOL     OW73092   8.327  11.895  12.505
23732SOL    HW173093   8.418  11.902  12.476
23732SOL    HW273094   8.333  11.871  12.598
23733SOL     OW73095   1.862   1.836   9.890
23733SOL    HW173096   1.923   1.907   9.874
23733SOL    HW273097   1.877   1.774   9.819
23734SOL     OW73098   3.313   9.489   0.026
23734SOL    HW173099   3.277   9.551   0.089
23734SOL    HW273100   3.237   9.439  14.883
23735SOL     OW73101   0.706   6.156  10.774
23735SOL    HW173102   0.681   6.100  10.700
23735SOL    HW273103   0.782   6.204  10.743
23736SOL     OW73104  13.751  12.296  10.617
23736SOL    HW173105  13.719  12.358  10.682
23736SOL    HW273106  13.801  12.231  10.668
23737SOL     OW73107   3.802  11.829   8.591
23737SOL    HW173108   3.835  11.917   8.612
23737SOL    HW273109   3.752  11.804   8.669
23738SOL     OW73110   0.279   7.753   4.576
23738SOL    HW173111   0.314   7.795   4.498
23738SOL    HW273112   0.353   7.753   4.638
23739SOL     OW73113   5.169   8.307   2.657
23739SOL    HW173114   5.119   8.226   2.672
23739SOL    HW273115   5.178   8.313   2.562
23740SOL     OW73116   0.516   4.452   8.348
23740SOL    HW173117   0.529   4.371   8.397
23740SOL    HW273118   0.589   4.509   8.374
23741SOL     OW73119  11.646   6.263  11.508
23741SOL    HW173120  11.679   6.352  11.522
23741SOL    HW273121  11.715   6.207  11.545
23742SOL     OW73122   5.544   1.846   3.376
23742SOL    HW173123   5.614   1.910   3.362
23742SOL    HW273124   5.516   1.860   3.466
23743SOL     OW73125   2.344  12.504   3.768
23743SOL    HW173126   2.278  12.566   3.799
23743SOL    HW273127   2.380  12.466   3.849
23744SOL     OW73128  14.655  12.847   0.552
23744SOL    HW173129  14.717  12.800   0.608
23744SOL    HW273130  14.634  12.785   0.482
23745SOL     OW73131  14.736  14.750  13.847
23745SOL    HW173132  14.684  14.830  13.849
23745SOL    HW273133  14.775  14.749  13.759
23746SOL     OW73134  13.611   2.970   4.495
23746SOL    HW173135  13.538   2.915   4.465
23746SOL    HW273136  13.569   3.040   4.545
23747SOL     OW73137  11.859   3.542  13.156
23747SOL    HW173138  11.770   3.512  13.138
23747SOL    HW273139  11.914   3.466  13.138
23748SOL     OW73140   1.168   7.351  11.254
23748SOL    HW173141   1.241   7.323  11.310
23748SOL    HW273142   1.105   7.391  11.315
23749SOL     OW73143   7.640   8.727   1.815
23749SOL    HW173144   7.631   8.649   1.871
23749SOL    HW273145   7.732   8.752   1.825
23750SOL     OW73146   3.951  11.458   1.172
23750SOL    HW173147   3.881  11.501   1.122
23750SOL    HW273148   3.906  11.414   1.244
23751SOL     OW73149  11.035   9.604  12.549
23751SOL    HW173150  10.950   9.627  12.586
23751SOL    HW273151  11.093   9.594  12.625
23752SOL     OW73152   9.860   5.571  14.024
23752SOL    HW173153   9.882   5.664  14.038
23752SOL    HW273154   9.771   5.573  13.990
23753SOL     OW73155   4.592  12.334   9.332
23753SOL    HW173156   4.500  12.334   9.307
23753SOL    HW273157   4.625  12.248   9.304
23754SOL     OW73158   3.558   9.072   4.089
23754SOL    HW173159   3.631   9.095   4.032
23754SOL    HW273160   3.591   9.000   4.142
23755SOL     OW73161   6.003  10.059   5.710
23755SOL    HW173162   6.009  10.033   5.802
23755SOL    HW273163   6.021   9.978   5.661
23756SOL     OW73164  13.296   9.448   5.440
23756SOL    HW173165  13.321   9.402   5.520
23756SOL    HW273166  13.204   9.473   5.454
23757SOL     OW73167   6.209   3.325  12.020
23757SOL    HW173168   6.249   3.244  11.988
23757SOL    HW273169   6.242   3.393  11.961
23758SOL     OW73170   6.942   7.962  13.914
23758SOL    HW173171   6.957   7.872  13.941
23758SOL    HW273172   7.017   8.010  13.950
23759SOL     OW73173   5.556   4.651   0.156
23759SOL    HW173174   5.580   4.742   0.138
23759SOL    HW273175   5.462   4.655   0.176
23760SOL     OW73176   7.641   4.741   1.081
23760SOL    HW173177   7.570   4.749   1.144
23760SOL    HW273178   7.603   4.771   0.998
23761SOL     OW73179  12.712   1.361   7.700
23761SOL    HW173180  12.698   1.335   7.609
23761SOL    HW273181  12.628   1.398   7.728
23762SOL     OW73182   6.156   8.715  13.714
23762SOL    HW173183   6.166   8.621  13.703
23762SOL    HW273184   6.172   8.752  13.627
23763SOL     OW73185   0.112  11.105   2.430
23763SOL    HW173186   0.033  11.148   2.397
23763SOL    HW273187   0.103  11.014   2.404
23764SOL     OW73188   9.384   9.332   5.142
23764SOL    HW173189   9.459   9.277   5.166
23764SOL    HW273190   9.412   9.378   5.063
23765SOL     OW73191  12.289   0.999   0.472
23765SOL    HW173192  12.219   1.064   0.478
23765SOL    HW273193  12.245   0.918   0.447
23766SOL     OW73194  12.561  13.997   6.249
23766SOL    HW173195  12.588  14.060   6.316
23766SOL    HW273196  12.574  13.912   6.290
23767SOL     OW73197   5.140   4.001  12.751
23767SOL    HW173198   5.221   3.977  12.796
23767SOL    HW273199   5.081   3.928  12.766
23768SOL     OW73200  11.456   2.146   6.144
23768SOL    HW173201  11.446   2.145   6.239
23768SOL    HW273202  11.398   2.215   6.114
23769SOL     OW73203   1.855   8.280   6.670
23769SOL    HW173204   1.762   8.269   6.688
23769SOL    HW273205   1.892   8.311   6.753
23770SOL     OW73206  10.745   6.204   9.039
23770SOL    HW173207  10.698   6.122   9.022
23770SOL    HW273208  10.677   6.271   9.042
23771SOL     OW73209   3.881   2.483  14.019
23771SOL    HW173210   3.968   2.457  13.991
23771SOL    HW273211   3.881   2.579  14.010
23772SOL     OW73212   1.319   6.843   4.072
23772SOL    HW173213   1.360   6.821   4.156
23772SOL    HW273214   1.287   6.759   4.039
23773SOL     OW73215   7.847   7.274   8.773
23773SOL    HW173216   7.790   7.316   8.708
23773SOL    HW273217   7.827   7.181   8.766
23774SOL     OW73218   2.346   1.323   5.478
23774SOL    HW173219   2.424   1.324   5.535
23774SOL    HW273220   2.275   1.350   5.536
23775SOL     OW73221   5.743   8.533  10.553
23775SOL    HW173222   5.736   8.508  10.645
23775SOL    HW273223   5.671   8.488  10.510
23776SOL     OW73224   2.821   4.876  13.808
23776SOL    HW173225   2.783   4.941  13.867
23776SOL    HW273226   2.783   4.895  13.723
23777SOL     OW73227   7.599   7.514  11.509
23777SOL    HW173228   7.589   7.515  11.604
23777SOL    HW273229   7.688   7.483  11.494
23778SOL     OW73230   8.848   7.075   7.706
23778SOL    HW173231   8.811   7.146   7.654
23778SOL    HW273232   8.793   7.072   7.785
23779SOL     OW73233   4.434  12.589  11.377
23779SOL    HW173234   4.431  12.501  11.338
23779SOL    HW273235   4.370  12.585  11.449
23780SOL     OW73236   7.199   3.620   0.245
23780SOL    HW173237   7.250   3.541   0.227
23780SOL    HW273238   7.187   3.661   0.159
23781SOL     OW73239   0.020   3.340  12.227
23781SOL    HW173240   0.064   3.370  12.306
23781SOL    HW273241   0.090   3.326  12.164
23782SOL     OW73242  10.358   2.956   3.394
23782SOL    HW173243  10.450   2.936   3.376
23782SOL    HW273244  10.310   2.896   3.338
23783SOL     OW73245  11.582  10.737  12.593
23783SOL    HW173246  11.508  10.798  12.590
23783SOL    HW273247  11.655  10.786  12.554
23784SOL     OW73248   3.590  13.376  14.007
23784SOL    HW173249   3.539  13.334  14.076
23784SOL    HW273250   3.639  13.305  13.965
23785SOL     OW73251  11.051  14.826  14.058
23785SOL    HW173252  11.036   0.031  14.073
23785SOL    HW273253  11.121  14.803  14.119
23786SOL     OW73254   5.641   5.513  11.894
23786SOL    HW173255   5.686   5.457  11.831
23786SOL    HW273256   5.548   5.496  11.879
23787SOL     OW73257   8.891   0.877   6.733
23787SOL    HW173258   8.919   0.788   6.711
23787SOL    HW273259   8.904   0.883   6.827
23788SOL     OW73260   2.047   9.112  13.911
23788SOL    HW173261   1.960   9.121  13.872
23788SOL    HW273262   2.063   9.018  13.914
23789SOL     OW73263   8.234   2.602   5.851
23789SOL    HW173264   8.238   2.516   5.809
23789SOL    HW273265   8.232   2.583   5.945
23790SOL     OW73266   3.180  14.356   4.633
23790SOL    HW173267   3.262  14.327   4.675
23790SOL    HW273268   3.115  14.351   4.703
23791SOL     OW73269  13.476   4.922   4.276
23791SOL    HW173270  13.541   4.863   4.314
23791SOL    HW273271  13.443   4.972   4.350
23792SOL     OW73272   6.586   0.988   0.729
23792SOL    HW173273   6.650   0.932   0.772
23792SOL    HW273274   6.632   1.027   0.655
23793SOL     OW73275   4.927   6.526   0.006
23793SOL    HW173276   4.844   6.538  14.848
23793SOL    HW273277   4.903   6.513   0.098
23794SOL     OW73278   6.759  13.647   4.917
23794SOL    HW173279   6.799  13.618   4.999
23794SOL    HW273280   6.749  13.741   4.927
23795SOL     OW73281  10.328   6.201   9.133
23795SOL    HW173282  10.326   6.296   9.131
23795SOL    HW273283  10.265   6.177   9.201
23796SOL     OW73284   4.551   5.209   5.710
23796SOL    HW173285   4.515   5.165   5.632
23796SOL    HW273286   4.496   5.287   5.720
23797SOL     OW73287   8.228   3.749   2.143
23797SOL    HW173288   8.147   3.749   2.195
23797SOL    HW273289   8.215   3.818   2.078
23798SOL     OW73290  11.161   7.759  12.131
23798SOL    HW173291  11.151   7.737  12.223
23798SOL    HW273292  11.090   7.712  12.087
23799SOL     OW73293   3.278  10.767   7.794
23799SOL    HW173294   3.242  10.681   7.814
23799SOL    HW273295   3.274  10.815   7.877
23800SOL     OW73296   8.769   6.217   6.150
23800SOL    HW173297   8.818   6.152   6.099
23800SOL    HW273298   8.738   6.280   6.086
23801SOL     OW73299   9.873  13.553  13.535
23801SOL    HW173300   9.871  13.646  13.514
23801SOL    HW273301   9.925  13.547  13.615
23802SOL     OW73302  14.204   0.731   9.098
23802SOL    HW173303  14.156   0.691   9.171
23802SOL    HW273304  14.143   0.728   9.024
23803SOL     OW73305   0.521   0.693   0.276
23803SOL    HW173306   0.591   0.643   0.319
23803SOL    HW273307   0.508   0.769   0.333
23804SOL     OW73308   1.694  13.039  11.437
23804SOL    HW173309   1.618  12.990  11.467
23804SOL    HW273310   1.671  13.068  11.349
23805SOL     OW73311  12.499   3.294  14.525
23805SOL    HW173312  12.570   3.230  14.527
23805SOL    HW273313  12.512   3.341  14.442
23806SOL     OW73314  13.864   4.890   2.883
23806SOL    HW173315  13.910   4.818   2.927
23806SOL    HW273316  13.886   4.879   2.791
23807SOL     OW73317   4.071   4.312  10.885
23807SOL    HW173318   4.031   4.390  10.848
23807SOL    HW273319   4.103   4.263  10.809
23808SOL     OW73320   6.719  14.529   5.180
23808SOL    HW173321   6.797  14.577   5.206
23808SOL    HW273322   6.712  14.544   5.085
23809SOL     OW73323   6.843   0.020   2.815
23809SOL    HW173324   6.894  14.841   2.768
23809SOL    HW273325   6.790   0.061   2.747
23810SOL     OW73326  11.337   0.543   2.441
23810SOL    HW173327  11.262   0.563   2.386
23810SOL    HW273328  11.412   0.542   2.381
23811SOL     OW73329   5.042   7.758   9.891
23811SOL    HW173330   5.003   7.765   9.804
23811SOL    HW273331   5.047   7.664   9.908
23812SOL     OW73332   3.932  11.175  12.790
23812SOL    HW173333   3.966  11.156  12.877
23812SOL    HW273334   3.898  11.091  12.758
23813SOL     OW73335  10.773  13.494  11.681
23813SOL    HW173336  10.851  13.528  11.723
23813SOL    HW273337  10.715  13.570  11.672
23814SOL     OW73338   5.966   5.865   8.274
23814SOL    HW173339   6.007   5.883   8.358
23814SOL    HW273340   5.872   5.867   8.291
23815SOL     OW73341   4.774   2.669  11.658
23815SOL    HW173342   4.744   2.760  11.654
23815SOL    HW273343   4.717   2.623  11.596
23816SOL     OW73344  11.349  13.000   1.485
23816SOL    HW173345  11.347  13.009   1.580
23816SOL    HW273346  11.315  13.084   1.452
23817SOL     OW73347   7.557   9.991   9.633
23817SOL    HW173348   7.506   9.974   9.712
23817SOL    HW273349   7.532  10.079   9.606
23818SOL     OW73350  13.381   4.144  14.250
23818SOL    HW173351  13.341   4.110  14.169
23818SOL    HW273352  13.404   4.065  14.299
23819SOL     OW73353   9.549   9.889  10.249
23819SOL    HW173354   9.588   9.900  10.162
23819SOL    HW273355   9.544   9.795  10.262
23820SOL     OW73356   1.514  12.203   4.473
23820SOL    HW173357   1.578  12.265   4.438
23820SOL    HW273358   1.555  12.117   4.461
23821SOL     OW73359   7.187   0.487   6.429
23821SOL    HW173360   7.092   0.492   6.440
23821SOL    HW273361   7.222   0.521   6.512
23822SOL     OW73362  11.476   0.946  14.283
23822SOL    HW173363  11.446   1.037  14.278
23822SOL    HW273364  11.435   0.911  14.362
23823SOL     OW73365   1.012  11.327   2.844
23823SOL    HW173366   1.086  11.323   2.903
23823SOL    HW273367   0.948  11.381   2.889
23824SOL     OW73368   7.994   4.452   7.479
23824SOL    HW173369   8.020   4.421   7.566
23824SOL    HW273370   8.007   4.547   7.483
23825SOL     OW73371   6.421  11.475   4.028
23825SOL    HW173372   6.488  11.506   3.967
23825SOL    HW273373   6.350  11.538   4.021
23826SOL     OW73374  14.075   5.537   1.063
23826SOL    HW173375  14.008   5.548   1.130
23826SOL    HW273376  14.041   5.584   0.987
23827SOL     OW73377   0.211   4.852   0.548
23827SOL    HW173378   0.272   4.778   0.549
23827SOL    HW273379   0.192   4.867   0.456
23828SOL     OW73380  13.400  11.831   5.673
23828SOL    HW173381  13.386  11.737   5.669
23828SOL    HW273382  13.318  11.869   5.642
23829SOL     OW73383   9.703   2.737   6.033
23829SOL    HW173384   9.758   2.660   6.016
23829SOL    HW273385   9.701   2.784   5.950
23830SOL     OW73386   5.361   3.382  10.094
23830SOL    HW173387   5.437   3.441  10.091
23830SOL    HW273388   5.360   3.340  10.008
23831SOL     OW73389   0.743   4.015   0.220
23831SOL    HW173390   0.758   3.941   0.162
23831SOL    HW273391   0.719   3.975   0.304
23832SOL     OW73392   2.929   9.588   6.759
23832SOL    HW173393   2.960   9.600   6.669
23832SOL    HW273394   2.977   9.512   6.791
23833SOL     OW73395  12.129  10.316   2.254
23833SOL    HW173396  12.183  10.283   2.326
23833SOL    HW273397  12.039  10.306   2.284
23834SOL     OW73398   6.008   6.271   1.855
23834SOL    HW173399   6.064   6.227   1.918
23834SOL    HW273400   5.972   6.346   1.903
23835SOL     OW73401   6.760   3.456   8.982
23835SOL    HW173402   6.674   3.496   8.993
23835SOL    HW273403   6.741   3.365   8.956
23836SOL     OW73404   0.887   2.863  13.718
23836SOL    HW173405   0.907   2.832  13.629
23836SOL    HW273406   0.970   2.856  13.765
23837SOL     OW73407   8.149   3.885   6.648
23837SOL    HW173408   8.122   3.977   6.648
23837SOL    HW273409   8.195   3.874   6.565
23838SOL     OW73410   3.527  14.093   9.585
23838SOL    HW173411   3.528  14.143   9.503
23838SOL    HW273412   3.585  14.143   9.644
23839SOL     OW73413  13.188   3.671  11.898
23839SOL    HW173414  13.109   3.691  11.947
23839SOL    HW273415  13.190   3.736  11.828
23840SOL     OW73416   0.245   8.406  10.296
23840SOL    HW173417   0.215   8.365  10.215
23840SOL    HW273418   0.190   8.366  10.364
23841SOL     OW73419  13.189  13.017   5.184
23841SOL    HW173420  13.249  13.091   5.193
23841SOL    HW273421  13.235  12.943   5.223
23842SOL     OW73422  13.426  14.479  11.861
23842SOL    HW173423  13.346  14.521  11.892
23842SOL    HW273424  13.428  14.499  11.767
23843SOL     OW73425   2.541   6.093   2.559
23843SOL    HW173426   2.517   6.009   2.599
23843SOL    HW273427   2.532   6.078   2.465
23844SOL     OW73428   2.103  14.016   1.420
23844SOL    HW173429   2.049  14.023   1.498
23844SOL    HW273430   2.124  14.106   1.396
23845SOL     OW73431   4.603   0.312   6.718
23845SOL    HW173432   4.663   0.256   6.767
23845SOL    HW273433   4.529   0.324   6.778
23846SOL     OW73434   2.420   3.441  10.662
23846SOL    HW173435   2.398   3.511  10.600
23846SOL    HW273436   2.388   3.361  10.619
23847SOL     OW73437  11.883   0.855   5.613
23847SOL    HW173438  11.972   0.819   5.612
23847SOL    HW273439  11.843   0.814   5.690
23848SOL     OW73440   6.324   3.252  11.415
23848SOL    HW173441   6.329   3.347  11.406
23848SOL    HW273442   6.255   3.238  11.480
23849SOL     OW73443  11.147   2.376   4.360
23849SOL    HW173444  11.214   2.307   4.353
23849SOL    HW273445  11.064   2.329   4.355
23850SOL     OW73446   2.560  12.121   8.249
23850SOL    HW173447   2.528  12.035   8.222
23850SOL    HW273448   2.630  12.142   8.187
23851SOL     OW73449   7.205   4.530   3.043
23851SOL    HW173450   7.182   4.494   2.958
23851SOL    HW273451   7.266   4.467   3.081
23852SOL     OW73452  10.793   8.826  10.313
23852SOL    HW173453  10.830   8.879  10.384
23852SOL    HW273454  10.868   8.779  10.276
23853SOL     OW73455   1.299   2.895  12.040
23853SOL    HW173456   1.293   2.976  12.089
23853SOL    HW273457   1.293   2.826  12.106
23854SOL     OW73458  10.560   0.599  11.507
23854SOL    HW173459  10.647   0.638  11.514
23854SOL    HW273460  10.501   0.666  11.541
23855SOL     OW73461   2.478   1.776   2.122
23855SOL    HW173462   2.571   1.757   2.116
23855SOL    HW273463   2.470   1.869   2.102
23856SOL     OW73464   1.801  12.427   1.239
23856SOL    HW173465   1.740  12.483   1.288
23856SOL    HW273466   1.758  12.341   1.237
23857SOL     OW73467  12.709  14.504   4.632
23857SOL    HW173468  12.617  14.519   4.653
23857SOL    HW273469  12.756  14.532   4.710
23858SOL     OW73470   9.817   7.491   1.063
23858SOL    HW173471   9.876   7.432   1.109
23858SOL    HW273472   9.870   7.569   1.046
23859SOL     OW73473   3.208   5.638  14.579
23859SOL    HW173474   3.294   5.679  14.588
23859SOL    HW273475   3.195   5.591  14.662
23860SOL     OW73476   9.506  10.529   3.909
23860SOL    HW173477   9.422  10.571   3.928
23860SOL    HW273478   9.552  10.591   3.853
23861SOL     OW73479   2.614   7.842   4.979
23861SOL    HW173480   2.667   7.921   4.970
23861SOL    HW273481   2.635   7.790   4.901
23862SOL     OW73482   7.160  11.455   2.380
23862SOL    HW173483   7.076  11.420   2.350
23862SOL    HW273484   7.215  11.377   2.393
23863SOL     OW73485  12.750   4.627   2.563
23863SOL    HW173486  12.720   4.663   2.646
23863SOL    HW273487  12.828   4.679   2.541
23864SOL     OW73488   1.412   1.176  12.558
23864SOL    HW173489   1.505   1.198  12.568
23864SOL    HW273490   1.367   1.239  12.614
23865SOL     OW73491   3.731   8.194   9.694
23865SOL    HW173492   3.650   8.142   9.691
23865SOL    HW273493   3.787   8.147   9.756
23866SOL     OW73494   1.288  12.878   7.988
23866SOL    HW173495   1.257  12.914   8.070
23866SOL    HW273496   1.331  12.951   7.944
23867SOL     OW73497  12.073   4.719   5.807
23867SOL    HW173498  11.978   4.715   5.815
23867SOL    HW273499  12.096   4.809   5.828
23868SOL     OW73500   4.015   1.156   5.164
23868SOL    HW173501   4.110   1.169   5.162
23868SOL    HW273502   3.997   1.133   5.255
23869SOL     OW73503   5.961   6.139  13.233
23869SOL    HW173504   5.933   6.229  13.214
23869SOL    HW273505   5.891   6.084  13.197
23870SOL     OW73506  10.551   1.448   6.848
23870SOL    HW173507  10.485   1.500   6.894
23870SOL    HW273508  10.629   1.503   6.847
23871SOL     OW73509   9.978   0.768  11.015
23871SOL    HW173510  10.017   0.705  11.076
23871SOL    HW273511  10.045   0.783  10.949
23872SOL     OW73512   6.615   3.616  13.857
23872SOL    HW173513   6.663   3.536  13.880
23872SOL    HW273514   6.615   3.618  13.762
23873SOL     OW73515  12.220   7.429   5.096
23873SOL    HW173516  12.205   7.498   5.032
23873SOL    HW273517  12.295   7.459   5.147
23874SOL     OW73518   3.370  12.635   7.587
23874SOL    HW173519   3.465  12.628   7.580
23874SOL    HW273520   3.356  12.708   7.648
23875SOL     OW73521   1.237   6.627   8.233
23875SOL    HW173522   1.197   6.597   8.151
23875SOL    HW273523   1.235   6.550   8.290
23876SOL     OW73524   4.225   5.141  10.819
23876SOL    HW173525   4.135   5.114  10.838
23876SOL    HW273526   4.241   5.108  10.731
23877SOL     OW73527  11.038   3.075  10.283
23877SOL    HW173528  11.120   3.042  10.247
23877SOL    HW273529  11.025   3.026  10.363
23878SOL     OW73530  12.992  11.905   6.831
23878SOL    HW173531  13.063  11.841   6.840
23878SOL    HW273532  12.936  11.889   6.907
23879SOL     OW73533   8.056   7.439  10.921
23879SOL    HW173534   8.035   7.421  10.830
23879SOL    HW273535   7.979   7.484  10.955
23880SOL     OW73536   0.514  13.293   4.433
23880SOL    HW173537   0.425  13.283   4.399
23880SOL    HW273538   0.505  13.280   4.528
23881SOL     OW73539  13.641   4.884  11.398
23881SOL    HW173540  13.624   4.971  11.361
23881SOL    HW273541  13.735   4.883  11.415
23882SOL     OW73542  12.177   4.522  13.324
23882SOL    HW173543  12.105   4.458  13.323
23882SOL    HW273544  12.247   4.479  13.276
23883SOL     OW73545   0.312   4.634   8.387
23883SOL    HW173546   0.375   4.607   8.319
23883SOL    HW273547   0.240   4.673   8.338
23884SOL     OW73548   0.681   7.078  10.640
23884SOL    HW173549   0.716   7.128  10.714
23884SOL    HW273550   0.586   7.080  10.654
23885SOL     OW73551   6.377  13.037  10.615
23885SOL    HW173552   6.350  13.058  10.704
23885SOL    HW273553   6.464  12.998  10.625
23886SOL     OW73554   2.109  11.009   6.238
23886SOL    HW173555   2.170  11.017   6.165
23886SOL    HW273556   2.062  11.092   6.239
23887SOL     OW73557  10.355  11.754   7.995
23887SOL    HW173558  10.357  11.733   8.088
23887SOL    HW273559  10.432  11.809   7.980
23888SOL     OW73560   9.645   5.489  13.839
23888SOL    HW173561   9.578   5.450  13.895
23888SOL    HW273562   9.600   5.507  13.757
23889SOL     OW73563   2.127  11.639   6.811
23889SOL    HW173564   2.117  11.549   6.844
23889SOL    HW273565   2.113  11.695   6.887
23890SOL     OW73566   3.081  10.618   6.870
23890SOL    HW173567   3.146  10.666   6.921
23890SOL    HW273568   3.017  10.683   6.844
23891SOL     OW73569   1.711  12.466  13.202
23891SOL    HW173570   1.781  12.507  13.152
23891SOL    HW273571   1.755  12.428  13.278
23892SOL     OW73572   5.166   7.945   7.283
23892SOL    HW173573   5.215   7.985   7.211
23892SOL    HW273574   5.081   7.989   7.282
23893SOL     OW73575   4.238  10.417   9.216
23893SOL    HW173576   4.321  10.463   9.228
23893SOL    HW273577   4.176  10.486   9.192
23894SOL     OW73578  13.619  12.307  13.565
23894SOL    HW173579  13.589  12.388  13.524
23894SOL    HW273580  13.695  12.333  13.617
23895SOL     OW73581  12.706   6.879   8.778
23895SOL    HW173582  12.649   6.905   8.705
23895SOL    HW273583  12.645   6.858   8.849
23896SOL     OW73584   1.254   2.616  14.206
23896SOL    HW173585   1.313   2.558  14.158
23896SOL    HW273586   1.274   2.599  14.298
23897SOL     OW73587   6.765   4.715  10.642
23897SOL    HW173588   6.716   4.648  10.594
23897SOL    HW273589   6.720   4.721  10.726
23898SOL     OW73590  10.677  13.868   8.773
23898SOL    HW173591  10.659  13.790   8.720
23898SOL    HW273592  10.769  13.859   8.797
23899SOL     OW73593  14.709   2.803   8.289
23899SOL    HW173594  14.797   2.837   8.276
23899SOL    HW273595  14.656   2.848   8.224
23900SOL     OW73596  13.459   6.548   6.515
23900SOL    HW173597  13.381   6.524   6.565
23900SOL    HW273598  13.436   6.631   6.473
23901SOL     OW73599  13.508  12.995   8.221
23901SOL    HW173600  13.459  13.009   8.302
23901SOL    HW273601  13.495  12.903   8.199
23902SOL     OW73602   1.016   7.302   3.866
23902SOL    HW173603   0.966   7.221   3.855
23902SOL    HW273604   0.975   7.364   3.805
23903SOL     OW73605   1.223   6.441   6.409
23903SOL    HW173606   1.205   6.430   6.316
23903SOL    HW273607   1.201   6.356   6.448
23904SOL     OW73608   8.424   7.641   1.017
23904SOL    HW173609   8.392   7.726   0.987
23904SOL    HW273610   8.344   7.591   1.036
23905SOL     OW73611  14.631   2.053  12.577
23905SOL    HW173612  14.593   2.140  12.587
23905SOL    HW273613  14.621   2.032  12.485
23906SOL     OW73614   2.894   7.417  10.650
23906SOL    HW173615   2.869   7.326  10.662
23906SOL    HW273616   2.864   7.440  10.562
23907SOL     OW73617   6.418  10.949   6.708
23907SOL    HW173618   6.342  10.940   6.765
23907SOL    HW273619   6.493  10.925   6.764
23908SOL     OW73620  14.775  11.397   2.545
23908SOL    HW173621  14.859  11.359   2.568
23908SOL    HW273622  14.744  11.438   2.627
23909SOL     OW73623   5.007  11.455   3.874
23909SOL    HW173624   5.018  11.456   3.969
23909SOL    HW273625   4.913  11.469   3.861
23910SOL     OW73626   9.203   9.445  13.577
23910SOL    HW173627   9.277   9.404  13.622
23910SOL    HW273628   9.175   9.380  13.512
23911SOL     OW73629   5.537  13.468  10.864
23911SOL    HW173630   5.523  13.527  10.938
23911SOL    HW273631   5.587  13.520  10.801
23912SOL     OW73632   2.899   7.658  11.791
23912SOL    HW173633   2.888   7.647  11.697
23912SOL    HW273634   2.850   7.585  11.829
23913SOL     OW73635   0.339   8.501   2.989
23913SOL    HW173636   0.248   8.471   2.983
23913SOL    HW273637   0.358   8.500   3.083
23914SOL     OW73638   1.657   7.865   2.533
23914SOL    HW173639   1.653   7.837   2.625
23914SOL    HW273640   1.595   7.808   2.488
23915SOL     OW73641   6.776   1.873   3.759
23915SOL    HW173642   6.708   1.935   3.733
23915SOL    HW273643   6.788   1.817   3.682
23916SOL     OW73644   6.398   2.695   3.787
23916SOL    HW173645   6.362   2.767   3.735
23916SOL    HW273646   6.380   2.721   3.878
23917SOL     OW73647   8.702  14.554   4.690
23917SOL    HW173648   8.726  14.476   4.640
23917SOL    HW273649   8.606  14.552   4.692
23918SOL     OW73650   5.759   1.776   2.180
23918SOL    HW173651   5.715   1.692   2.177
23918SOL    HW273652   5.761   1.800   2.272
23919SOL     OW73653   7.688   0.022   9.605
23919SOL    HW173654   7.756   0.008   9.539
23919SOL    HW273655   7.658  14.821   9.627
23920SOL     OW73656  12.925   8.246   3.584
23920SOL    HW173657  12.953   8.156   3.600
23920SOL    HW273658  12.977   8.274   3.508
23921SOL     OW73659   7.033  11.170   6.948
23921SOL    HW173660   7.012  11.263   6.946
23921SOL    HW273661   7.117  11.165   6.993
23922SOL     OW73662   8.278   9.001   8.163
23922SOL    HW173663   8.365   9.033   8.187
23922SOL    HW273664   8.247   9.062   8.096
23923SOL     OW73665   4.912  10.517  12.989
23923SOL    HW173666   4.924  10.589  12.926
23923SOL    HW273667   4.955  10.442  12.949
23924SOL     OW73668   8.682  10.235   7.980
23924SOL    HW173669   8.635  10.267   8.057
23924SOL    HW273670   8.684  10.311   7.921
23925SOL     OW73671   7.361  13.606   7.764
23925SOL    HW173672   7.284  13.602   7.708
23925SOL    HW273673   7.333  13.569   7.847
23926SOL     OW73674  13.256  11.110   8.444
23926SOL    HW173675  13.175  11.088   8.489
23926SOL    HW273676  13.314  11.142   8.514
23927SOL     OW73677   6.888   6.512   5.382
23927SOL    HW173678   6.839   6.544   5.457
23927SOL    HW273679   6.952   6.581   5.365
23928SOL     OW73680   2.090   0.760   4.550
23928SOL    HW173681   2.173   0.780   4.592
23928SOL    HW273682   2.029   0.744   4.622
23929SOL     OW73683   7.760   5.289  10.419
23929SOL    HW173684   7.758   5.260  10.328
23929SOL    HW273685   7.691   5.355  10.424
23930SOL     OW73686   4.538   4.225   1.505
23930SOL    HW173687   4.514   4.278   1.582
23930SOL    HW273688   4.488   4.144   1.515
23931SOL     OW73689   4.323  10.568   0.825
23931SOL    HW173690   4.262  10.640   0.842
23931SOL    HW273691   4.409  10.611   0.821
23932SOL     OW73692  12.652  11.896   6.299
23932SOL    HW173693  12.571  11.882   6.346
23932SOL    HW273694  12.717  11.916   6.367
23933SOL     OW73695  11.195   2.867   4.901
23933SOL    HW173696  11.237   2.862   4.814
23933SOL    HW273697  11.268   2.861   4.963
23934SOL     OW73698  13.193  13.767   2.974
23934SOL    HW173699  13.129  13.833   2.946
23934SOL    HW273700  13.246  13.750   2.896
23935SOL     OW73701  10.626   3.335   6.668
23935SOL    HW173702  10.645   3.250   6.627
23935SOL    HW273703  10.683   3.337   6.745
23936SOL     OW73704  12.716  13.317   4.690
23936SOL    HW173705  12.668  13.374   4.630
23936SOL    HW273706  12.797  13.364   4.708
23937SOL     OW73707   4.236   8.436   0.269
23937SOL    HW173708   4.204   8.395   0.188
23937SOL    HW273709   4.330   8.448   0.254
23938SOL     OW73710   6.931   6.014   3.188
23938SOL    HW173711   6.939   6.109   3.190
23938SOL    HW273712   6.976   5.988   3.108
23939SOL     OW73713   5.873  10.590   7.297
23939SOL    HW173714   5.944  10.599   7.234
23939SOL    HW273715   5.797  10.627   7.253
23940SOL     OW73716  12.152  12.785   5.383
23940SOL    HW173717  12.097  12.861   5.362
23940SOL    HW273718  12.220  12.820   5.441
23941SOL     OW73719  13.768   7.053   0.074
23941SOL    HW173720  13.787   7.095   0.159
23941SOL    HW273721  13.720   7.119   0.025
23942SOL     OW73722   3.797   1.212  10.498
23942SOL    HW173723   3.819   1.165  10.579
23942SOL    HW273724   3.846   1.167  10.430
23943SOL     OW73725   2.607  12.899   3.105
23943SOL    HW173726   2.621  12.976   3.160
23943SOL    HW273727   2.571  12.833   3.165
23944SOL     OW73728   1.933  14.039   3.695
23944SOL    HW173729   1.850  14.079   3.669
23944SOL    HW273730   1.916  14.006   3.784
23945SOL     OW73731   8.449   7.552   6.208
23945SOL    HW173732   8.416   7.642   6.203
23945SOL    HW273733   8.371   7.497   6.199
23946SOL     OW73734  13.658  12.323  13.919
23946SOL    HW173735  13.669  12.400  13.975
23946SOL    HW273736  13.735  12.323  13.862
23947SOL     OW73737   2.092  12.740  12.906
23947SOL    HW173738   2.008  12.782  12.892
23947SOL    HW273739   2.156  12.801  12.868
23948SOL     OW73740   7.832  10.362  13.186
23948SOL    HW173741   7.741  10.334  13.177
23948SOL    HW273742   7.837  10.442  13.134
23949SOL     OW73743   1.908   1.060   3.931
23949SOL    HW173744   1.869   1.114   3.999
23949SOL    HW273745   1.871   1.092   3.849
23950SOL     OW73746   3.951   6.153  11.021
23950SOL    HW173747   4.040   6.188  11.022
23950SOL    HW273748   3.902   6.209  11.080
23951SOL     OW73749  13.047  14.873  13.278
23951SOL    HW173750  12.974  14.818  13.309
23951SOL    HW273751  13.037  14.873  13.182
23952SOL     OW73752   1.984   3.301   1.786
23952SOL    HW173753   1.901   3.288   1.832
23952SOL    HW273754   1.982   3.238   1.714
23953SOL     OW73755  11.927   6.462  11.841
23953SOL    HW173756  11.943   6.555  11.857
23953SOL    HW273757  11.974   6.443  11.760
23954SOL     OW73758   9.051  11.450  11.750
23954SOL    HW173759   8.967  11.490  11.730
23954SOL    HW273760   9.075  11.403  11.670
23955SOL     OW73761   3.324   9.519   6.561
23955SOL    HW173762   3.318   9.449   6.495
23955SOL    HW273763   3.281   9.483   6.638
23956SOL     OW73764   2.135  11.319  11.254
23956SOL    HW173765   2.195  11.389  11.279
23956SOL    HW273766   2.181  11.239  11.275
23957SOL     OW73767   6.128  14.662   4.478
23957SOL    HW173768   6.048  14.652   4.427
23957SOL    HW273769   6.101  14.650   4.569
23958SOL     OW73770   8.564   5.073  10.221
23958SOL    HW173771   8.533   5.014  10.290
23958SOL    HW273772   8.651   5.101  10.251
23959SOL     OW73773   4.781  14.515   5.422
23959SOL    HW173774   4.840  14.523   5.347
23959SOL    HW273775   4.796  14.426   5.455
23960SOL     OW73776   3.146   9.503  11.804
23960SOL    HW173777   3.050   9.506  11.800
23960SOL    HW273778   3.164   9.432  11.866
23961SOL     OW73779   0.830   4.855   9.356
23961SOL    HW173780   0.872   4.941   9.355
23961SOL    HW273781   0.747   4.870   9.402
23962SOL     OW73782  11.838   7.395  10.133
23962SOL    HW173783  11.845   7.353  10.219
23962SOL    HW273784  11.786   7.334  10.081
23963SOL     OW73785   6.294   0.062   0.462
23963SOL    HW173786   6.250   0.146   0.449
23963SOL    HW273787   6.387   0.082   0.453
23964SOL     OW73788  14.790  10.842   0.801
23964SOL    HW173789  14.809  10.809   0.889
23964SOL    HW273790  14.706  10.802   0.778
23965SOL     OW73791   2.063   8.722  12.084
23965SOL    HW173792   2.126   8.659  12.120
23965SOL    HW273793   1.980   8.699  12.124
23966SOL     OW73794   3.543   4.743  10.912
23966SOL    HW173795   3.530   4.834  10.937
23966SOL    HW273796   3.467   4.697  10.948
23967SOL     OW73797   5.613  11.405  13.169
23967SOL    HW173798   5.615  11.438  13.259
23967SOL    HW273799   5.697  11.360  13.158
23968SOL     OW73800   9.586  10.446  13.079
23968SOL    HW173801   9.494  10.462  13.058
23968SOL    HW273802   9.604  10.357  13.048
23969SOL     OW73803   4.818   6.491   1.219
23969SOL    HW173804   4.761   6.416   1.236
23969SOL    HW273805   4.896   6.475   1.273
23970SOL     OW73806   7.593   6.077   2.871
23970SOL    HW173807   7.621   6.069   2.780
23970SOL    HW273808   7.537   6.154   2.871
23971SOL     OW73809   4.986  13.082   7.382
23971SOL    HW173810   4.948  13.057   7.466
23971SOL    HW273811   4.984  13.178   7.381
23972SOL     OW73812   3.591  11.575   6.163
23972SOL    HW173813   3.547  11.632   6.226
23972SOL    HW273814   3.544  11.590   6.081
23973SOL     OW73815   2.191   0.709   9.455
23973SOL    HW173816   2.167   0.801   9.461
23973SOL    HW273817   2.107   0.663   9.449
23974SOL     OW73818   4.938   0.854   8.076
23974SOL    HW173819   5.004   0.921   8.059
23974SOL    HW273820   4.872   0.868   8.008
23975SOL     OW73821  11.832   4.668   9.978
23975SOL    HW173822  11.918   4.650   9.940
23975SOL    HW273823  11.832   4.621  10.062
23976SOL     OW73824  14.776   1.521   1.906
23976SOL    HW173825  14.778   1.615   1.927
23976SOL    HW273826  14.721   1.516   1.827
23977SOL     OW73827   4.248   1.735  13.381
23977SOL    HW173828   4.192   1.804  13.348
23977SOL    HW273829   4.271   1.764  13.470
23978SOL     OW73830   1.201   8.487   9.165
23978SOL    HW173831   1.265   8.424   9.198
23978SOL    HW273832   1.244   8.529   9.090
23979SOL     OW73833  14.086  11.883  14.088
23979SOL    HW173834  14.152  11.869  14.156
23979SOL    HW273835  14.043  11.965  14.112
23980SOL     OW73836   9.528   5.164  12.018
23980SOL    HW173837   9.450   5.210  12.048
23980SOL    HW273838   9.563   5.218  11.947
23981SOL     OW73839   8.272   4.631  13.458
23981SOL    HW173840   8.207   4.645  13.389
23981SOL    HW273841   8.239   4.557  13.508
23982SOL     OW73842  10.702   8.590  12.564
23982SOL    HW173843  10.730   8.584  12.656
23982SOL    HW273844  10.631   8.655  12.565
23983SOL     OW73845   7.593  13.617   6.494
23983SOL    HW173846   7.631  13.703   6.511
23983SOL    HW273847   7.601  13.570   6.577
23984SOL     OW73848   5.918   1.662  14.194
23984SOL    HW173849   5.887   1.718  14.265
23984SOL    HW273850   5.932   1.577  14.236
23985SOL     OW73851  12.454  13.150   1.951
23985SOL    HW173852  12.435  13.174   1.860
23985SOL    HW273853  12.398  13.074   1.968
23986SOL     OW73854  10.368  12.459   8.304
23986SOL    HW173855  10.366  12.493   8.214
23986SOL    HW273856  10.298  12.395   8.307
23987SOL     OW73857  12.601  12.475  10.584
23987SOL    HW173858  12.508  12.460  10.601
23987SOL    HW273859  12.609  12.570  10.576
23988SOL     OW73860   7.339   6.968   3.162
23988SOL    HW173861   7.424   6.979   3.205
23988SOL    HW273862   7.328   7.048   3.111
23989SOL     OW73863  11.735   7.172   5.608
23989SOL    HW173864  11.815   7.135   5.571
23989SOL    HW273865  11.719   7.251   5.557
23990SOL     OW73866   7.598   8.048   4.908
23990SOL    HW173867   7.635   8.127   4.946
23990SOL    HW273868   7.639   7.976   4.955
23991SOL     OW73869  13.179  10.870   2.364
23991SOL    HW173870  13.261  10.919   2.377
23991SOL    HW273871  13.130  10.884   2.445
23992SOL     OW73872   3.339   6.771   0.946
23992SOL    HW173873   3.312   6.853   0.988
23992SOL    HW273874   3.426   6.790   0.911
23993SOL     OW73875  14.065   4.732  13.286
23993SOL    HW173876  14.152   4.695  13.299
23993SOL    HW273877  14.060   4.748  13.192
23994SOL     OW73878   9.376   0.997  13.349
23994SOL    HW173879   9.459   1.036  13.323
23994SOL    HW273880   9.347   1.050  13.423
23995SOL     OW73881  14.239   8.836  11.209
23995SOL    HW173882  14.264   8.793  11.290
23995SOL    HW273883  14.266   8.927  11.219
23996SOL     OW73884   3.809   3.248  14.509
23996SOL    HW173885   3.753   3.246  14.431
23996SOL    HW273886   3.792   3.335  14.547
23997SOL     OW73887   7.209  14.213  13.879
23997SOL    HW173888   7.116  14.193  13.881
23997SOL    HW273889   7.250  14.141  13.926
23998SOL     OW73890   3.662   7.219   2.237
23998SOL    HW173891   3.721   7.153   2.200
23998SOL    HW273892   3.720   7.280   2.283
23999SOL     OW73893   6.670  11.462   1.702
23999SOL    HW173894   6.698  11.549   1.673
23999SOL    HW273895   6.727  11.442   1.776
24000SOL     OW73896   2.900  12.807   3.981
24000SOL    HW173897   2.984  12.838   4.015
24000SOL    HW273898   2.872  12.876   3.921
24001SOL     OW73899   4.744  10.299   4.964
24001SOL    HW173900   4.688  10.372   4.938
24001SOL    HW273901   4.689  10.221   4.950
24002SOL     OW73902   0.737  10.576   3.037
24002SOL    HW173903   0.699  10.490   3.017
24002SOL    HW273904   0.698  10.634   2.971
24003SOL     OW73905   8.027   4.305   6.884
24003SOL    HW173906   7.968   4.380   6.891
24003SOL    HW273907   8.025   4.264   6.971
24004SOL     OW73908  10.396   8.509   7.844
24004SOL    HW173909  10.404   8.597   7.807
24004SOL    HW273910  10.414   8.451   7.770
24005SOL     OW73911  11.175   5.894   2.837
24005SOL    HW173912  11.116   5.893   2.912
24005SOL    HW273913  11.141   5.964   2.781
24006SOL     OW73914   1.910   5.566   9.185
24006SOL    HW173915   1.896   5.648   9.232
24006SOL    HW273916   1.844   5.566   9.116
24007SOL     OW73917   8.397  12.812  10.316
24007SOL    HW173918   8.390  12.747  10.386
24007SOL    HW273919   8.484  12.849  10.326
24008SOL     OW73920   1.811  12.934   6.582
24008SOL    HW173921   1.794  12.896   6.496
24008SOL    HW273922   1.892  12.985   6.571
24009SOL     OW73923  10.796   9.683  11.889
24009SOL    HW173924  10.839   9.642  11.814
24009SOL    HW273925  10.710   9.709  11.856
24010SOL     OW73926   3.870  13.757   5.616
24010SOL    HW173927   3.801  13.813   5.581
24010SOL    HW273928   3.951  13.806   5.602
24011SOL     OW73929   1.464  12.524   8.309
24011SOL    HW173930   1.484  12.544   8.400
24011SOL    HW273931   1.457  12.609   8.266
24012SOL     OW73932   0.122  11.596   5.426
24012SOL    HW173933   0.182  11.594   5.352
24012SOL    HW273934   0.165  11.653   5.490
24013SOL     OW73935   3.895   7.325   2.923
24013SOL    HW173936   3.843   7.276   2.986
24013SOL    HW273937   3.983   7.327   2.962
24014SOL     OW73938   5.008   8.560  11.015
24014SOL    HW173939   4.999   8.491  10.948
24014SOL    HW273940   5.011   8.641  10.965
24015SOL     OW73941  10.456   8.705   4.071
24015SOL    HW173942  10.392   8.636   4.050
24015SOL    HW273943  10.407   8.786   4.060
24016SOL     OW73944   2.449   1.191   1.123
24016SOL    HW173945   2.391   1.265   1.138
24016SOL    HW273946   2.391   1.116   1.114
24017SOL     OW73947  11.529   8.579   7.930
24017SOL    HW173948  11.619   8.564   7.957
24017SOL    HW273949  11.488   8.492   7.933
24018SOL     OW73950   7.875  13.928   8.918
24018SOL    HW173951   7.927  13.921   8.998
24018SOL    HW273952   7.816  14.001   8.935
24019SOL     OW73953   7.250   5.520   5.207
24019SOL    HW173954   7.258   5.565   5.291
24019SOL    HW273955   7.286   5.433   5.222
24020SOL     OW73956  11.982   8.119   3.874
24020SOL    HW173957  12.003   8.101   3.966
24020SOL    HW273958  11.915   8.054   3.852
24021SOL     OW73959   0.717   3.320  12.581
24021SOL    HW173960   0.640   3.342  12.634
24021SOL    HW273961   0.788   3.372  12.619
24022SOL     OW73962   2.332   0.148   3.825
24022SOL    HW173963   2.266   0.205   3.786
24022SOL    HW273964   2.339   0.074   3.764
24023SOL     OW73965  12.924   6.415   8.797
24023SOL    HW173966  13.007   6.392   8.838
24023SOL    HW273967  12.918   6.510   8.806
24024SOL     OW73968   0.984   2.280  10.774
24024SOL    HW173969   0.977   2.275  10.679
24024SOL    HW273970   0.905   2.234  10.806
24025SOL     OW73971   2.111  13.448   0.573
24025SOL    HW173972   2.135  13.382   0.508
24025SOL    HW273973   2.064  13.399   0.640
24026SOL     OW73974   5.104  11.812  12.719
24026SOL    HW173975   5.117  11.799  12.625
24026SOL    HW273976   5.107  11.724  12.757
24027SOL     OW73977   4.816   5.098   5.697
24027SOL    HW173978   4.837   5.038   5.768
24027SOL    HW273979   4.720   5.102   5.697
24028SOL     OW73980  10.651   5.880   9.681
24028SOL    HW173981  10.677   5.794   9.716
24028SOL    HW273982  10.697   5.887   9.598
24029SOL     OW73983   0.125   3.855   2.328
24029SOL    HW173984   0.078   3.781   2.290
24029SOL    HW273985   0.138   3.916   2.255
24030SOL     OW73986   0.054   3.463   5.077
24030SOL    HW173987   0.107   3.542   5.087
24030SOL    HW273988   0.044   3.430   5.167
24031SOL     OW73989  13.141  11.970   8.784
24031SOL    HW173990  13.219  11.976   8.728
24031SOL    HW273991  13.111  12.060   8.793
24032SOL     OW73992  10.400  11.825   7.621
24032SOL    HW173993  10.343  11.762   7.667
24032SOL    HW273994  10.342  11.899   7.601
24033SOL     OW73995  11.734  14.354   0.065
24033SOL    HW173996  11.750  14.266   0.031
24033SOL    HW273997  11.816  14.400   0.053
24034SOL     OW73998   6.179  12.047   1.317
24034SOL    HW173999   6.121  12.115   1.282
24034SOL    HW274000   6.196  12.074   1.407
24035SOL     OW74001   6.745  13.057  14.565
24035SOL    HW174002   6.799  13.021  14.495
24035SOL    HW274003   6.798  13.128  14.601
24036SOL     OW74004   6.162   9.656   2.816
24036SOL    HW174005   6.205   9.691   2.738
24036SOL    HW274006   6.184   9.563   2.817
24037SOL     OW74007  11.156   5.116   4.498
24037SOL    HW174008  11.171   5.021   4.497
24037SOL    HW274009  11.120   5.134   4.585
24038SOL     OW74010   6.903   1.303   0.322
24038SOL    HW174011   6.973   1.314   0.387
24038SOL    HW274012   6.824   1.335   0.366
24039SOL     OW74013   2.721  11.203   1.760
24039SOL    HW174014   2.710  11.223   1.853
24039SOL    HW274015   2.798  11.147   1.757
24040SOL     OW74016   2.058   5.718  12.232
24040SOL    HW174017   2.046   5.755  12.144
24040SOL    HW274018   1.995   5.765  12.287
24041SOL     OW74019   4.600  13.138  13.994
24041SOL    HW174020   4.673  13.177  13.947
24041SOL    HW274021   4.524  13.156  13.939
24042SOL     OW74022   1.803  14.603   3.221
24042SOL    HW174023   1.817  14.694   3.247
24042SOL    HW274024   1.790  14.607   3.126
24043SOL     OW74025  14.874  14.493   0.034
24043SOL    HW174026   0.039  14.426  14.877
24043SOL    HW274027  14.793  14.448   0.058
24044SOL     OW74028   1.798  12.770   2.494
24044SOL    HW174029   1.779  12.684   2.457
24044SOL    HW274030   1.716  12.819   2.482
24045SOL     OW74031   8.194   2.192   3.811
24045SOL    HW174032   8.160   2.113   3.852
24045SOL    HW274033   8.221   2.247   3.885
24046SOL     OW74034  11.088   7.858   8.111
24046SOL    HW174035  11.111   7.827   8.023
24046SOL    HW274036  11.063   7.778   8.157
24047SOL     OW74037   4.128   9.457   4.770
24047SOL    HW174038   4.123   9.386   4.707
24047SOL    HW274039   4.169   9.418   4.847
24048SOL     OW74040  10.404   5.785   3.200
24048SOL    HW174041  10.456   5.864   3.211
24048SOL    HW274042  10.361   5.772   3.285
24049SOL     OW74043  10.489   6.030   4.637
24049SOL    HW174044  10.395   6.047   4.634
24049SOL    HW274045  10.529   6.117   4.649
24050SOL     OW74046   5.517   5.438   1.891
24050SOL    HW174047   5.583   5.441   1.821
24050SOL    HW274048   5.564   5.407   1.968
24051SOL     OW74049   1.252  14.613   3.285
24051SOL    HW174050   1.338  14.622   3.325
24051SOL    HW274051   1.258  14.531   3.236
24052SOL     OW74052   7.488   6.324   9.109
24052SOL    HW174053   7.469   6.354   9.020
24052SOL    HW274054   7.468   6.230   9.107
24053SOL     OW74055   1.088   2.893   2.513
24053SOL    HW174056   1.078   2.798   2.498
24053SOL    HW274057   1.003   2.920   2.547
24054SOL     OW74058   4.778  12.313  10.142
24054SOL    HW174059   4.718  12.355  10.203
24054SOL    HW274060   4.730  12.310  10.059
24055SOL     OW74061   6.885  14.795   6.288
24055SOL    HW174062   6.818  14.864   6.291
24055SOL    HW274063   6.890  14.763   6.377
24056SOL     OW74064  12.712  13.228   7.132
24056SOL    HW174065  12.740  13.210   7.042
24056SOL    HW274066  12.630  13.180   7.142
24057SOL     OW74067  13.635   9.413  11.025
24057SOL    HW174068  13.587   9.435  11.105
24057SOL    HW274069  13.687   9.336  11.049
24058SOL     OW74070   7.499   4.244  13.475
24058SOL    HW174071   7.442   4.245  13.552
24058SOL    HW274072   7.441   4.262  13.401
24059SOL     OW74073   3.574   3.357   7.868
24059SOL    HW174074   3.636   3.426   7.845
24059SOL    HW274075   3.497   3.404   7.901
24060SOL     OW74076   7.105  13.520  10.556
24060SOL    HW174077   7.182  13.557  10.512
24060SOL    HW274078   7.039  13.589  10.550
24061SOL     OW74079   7.476   6.456   6.108
24061SOL    HW174080   7.564   6.493   6.108
24061SOL    HW274081   7.488   6.367   6.143
24062SOL     OW74082  10.408   5.744   8.736
24062SOL    HW174083  10.406   5.648   8.742
24062SOL    HW274084  10.376   5.763   8.648
24063SOL     OW74085   4.541  14.043   0.665
24063SOL    HW174086   4.448  14.030   0.645
24063SOL    HW274087   4.581  14.064   0.580
24064SOL     OW74088  13.227   4.872  11.797
24064SOL    HW174089  13.176   4.878  11.877
24064SOL    HW274090  13.278   4.953  11.794
24065SOL     OW74091   2.859   4.624   0.547
24065SOL    HW174092   2.807   4.597   0.472
24065SOL    HW274093   2.796   4.662   0.608
24066SOL     OW74094   3.831   7.545   0.203
24066SOL    HW174095   3.902   7.604   0.180
24066SOL    HW274096   3.872   7.476   0.254
24067SOL     OW74097   6.433  14.800   2.909
24067SOL    HW174098   6.386  14.729   2.952
24067SOL    HW274099   6.464  14.855   2.980
24068SOL     OW74100   7.436   7.592   0.068
24068SOL    HW174101   7.468   7.502   0.077
24068SOL    HW274102   7.455   7.633   0.153
24069SOL     OW74103   5.775   2.562   9.820
24069SOL    HW174104   5.688   2.557   9.860
24069SOL    HW274105   5.763   2.622   9.746
24070SOL     OW74106   4.055   2.014  14.734
24070SOL    HW174107   4.069   1.919  14.738
24070SOL    HW274108   4.143   2.051  14.742
24071SOL     OW74109   6.757   2.190   5.876
24071SOL    HW174110   6.836   2.210   5.825
24071SOL    HW274111   6.753   2.094   5.877
24072SOL     OW74112   2.841  13.214   5.505
24072SOL    HW174113   2.837  13.159   5.583
24072SOL    HW274114   2.934  13.233   5.493
24073SOL     OW74115  11.886  12.665   3.372
24073SOL    HW174116  11.894  12.582   3.325
24073SOL    HW274117  11.823  12.716   3.321
24074SOL     OW74118   7.344   2.148  14.635
24074SOL    HW174119   7.268   2.090  14.629
24074SOL    HW274120   7.337   2.188  14.722
24075SOL     OW74121   4.942  12.538   0.126
24075SOL    HW174122   5.014  12.478   0.147
24075SOL    HW274123   4.884  12.487   0.070
24076SOL     OW74124   0.788   9.597   6.429
24076SOL    HW174125   0.715   9.539   6.451
24076SOL    HW274126   0.837   9.549   6.362
24077SOL     OW74127  12.096   2.822  10.632
24077SOL    HW174128  12.191   2.816  10.641
24077SOL    HW274129  12.074   2.754  10.568
24078SOL     OW74130  10.282   4.729   3.521
24078SOL    HW174131  10.337   4.779   3.582
24078SOL    HW274132  10.226   4.676   3.578
24079SOL     OW74133   2.898   3.319  13.103
24079SOL    HW174134   2.860   3.405  13.086
24079SOL    HW274135   2.929   3.289  13.018
24080SOL     OW74136   7.953   9.618   3.189
24080SOL    HW174137   8.033   9.583   3.227
24080SOL    HW274138   7.970   9.618   3.094
24081SOL     OW74139   5.103  12.392   6.083
24081SOL    HW174140   5.076  12.457   6.018
24081SOL    HW274141   5.120  12.444   6.162
24082SOL     OW74142  12.044   2.288   1.603
24082SOL    HW174143  11.972   2.325   1.550
24082SOL    HW274144  12.001   2.229   1.665
24083SOL     OW74145   3.906   4.331   5.719
24083SOL    HW174146   3.824   4.374   5.745
24083SOL    HW274147   3.975   4.388   5.753
24084SOL     OW74148   8.246  10.252  13.135
24084SOL    HW174149   8.222  10.281  13.047
24084SOL    HW274150   8.312  10.185  13.121
24085SOL     OW74151  11.411   5.969   9.588
24085SOL    HW174152  11.372   5.995   9.672
24085SOL    HW274153  11.501   6.002   9.593
24086SOL     OW74154   1.843   0.126  13.003
24086SOL    HW174155   1.901   0.137  13.079
24086SOL    HW274156   1.903   0.116  12.929
24087SOL     OW74157   2.911   4.888  10.603
24087SOL    HW174158   2.821   4.871  10.572
24087SOL    HW274159   2.900   4.951  10.675
24088SOL     OW74160   5.538  13.560   9.722
24088SOL    HW174161   5.484  13.529   9.649
24088SOL    HW274162   5.593  13.485   9.744
24089SOL     OW74163  14.492   4.468   3.194
24089SOL    HW174164  14.482   4.390   3.140
24089SOL    HW274165  14.544   4.528   3.140
24090SOL     OW74166   1.325   7.081   1.796
24090SOL    HW174167   1.371   7.085   1.712
24090SOL    HW274168   1.395   7.079   1.862
24091SOL     OW74169   8.208   0.986  11.274
24091SOL    HW174170   8.113   0.972  11.273
24091SOL    HW274171   8.218   1.081  11.273
24092SOL     OW74172   4.627  12.502   3.211
24092SOL    HW174173   4.662  12.419   3.178
24092SOL    HW274174   4.695  12.533   3.271
24093SOL     OW74175  13.668   2.025   0.915
24093SOL    HW174176  13.710   1.967   0.852
24093SOL    HW274177  13.579   1.989   0.924
24094SOL     OW74178   2.258  10.346   3.532
24094SOL    HW174179   2.349  10.376   3.528
24094SOL    HW274180   2.265  10.253   3.555
24095SOL     OW74181  13.351   6.018  14.700
24095SOL    HW174182  13.391   6.102  14.675
24095SOL    HW274183  13.399   5.952  14.650
24096SOL     OW74184  12.744  10.646   4.126
24096SOL    HW174185  12.781  10.578   4.182
24096SOL    HW274186  12.795  10.641   4.045
24097SOL     OW74187   9.405   8.400  10.725
24097SOL    HW174188   9.432   8.342  10.796
24097SOL    HW274189   9.310   8.407  10.734
24098SOL     OW74190   7.630   2.068   6.455
24098SOL    HW174191   7.652   2.018   6.533
24098SOL    HW274192   7.705   2.124   6.439
24099SOL     OW74193   6.788  11.257   3.424
24099SOL    HW174194   6.860  11.214   3.378
24099SOL    HW274195   6.747  11.312   3.358
24100SOL     OW74196   4.347  10.571   8.132
24100SOL    HW174197   4.353  10.662   8.102
24100SOL    HW274198   4.435  10.536   8.119
24101SOL     OW74199   3.494   5.225   7.998
24101SOL    HW174200   3.518   5.292   7.934
24101SOL    HW274201   3.577   5.202   8.040
24102SOL     OW74202   3.164   0.932   7.442
24102SOL    HW174203   3.235   0.915   7.381
24102SOL    HW274204   3.086   0.898   7.397
24103SOL     OW74205   1.658   5.657  11.255
24103SOL    HW174206   1.736   5.683  11.305
24103SOL    HW274207   1.585   5.676  11.314
24104SOL     OW74208   3.996  10.609   0.001
24104SOL    HW174209   4.004  10.681  14.826
24104SOL    HW274210   4.054  10.633   0.073
24105SOL     OW74211   9.687  12.761   5.258
24105SOL    HW174212   9.727  12.703   5.192
24105SOL    HW274213   9.640  12.827   5.207
24106SOL     OW74214   0.455  13.343   2.317
24106SOL    HW174215   0.360  13.330   2.319
24106SOL    HW274216   0.473  13.400   2.393
24107SOL     OW74217   0.825   0.621   7.285
24107SOL    HW174218   0.907   0.651   7.322
24107SOL    HW274219   0.844   0.532   7.255
24108SOL     OW74220  13.715   7.945   7.924
24108SOL    HW174221  13.781   7.922   7.859
24108SOL    HW274222  13.661   7.867   7.933
24109SOL     OW74223   1.056   4.939   7.245
24109SOL    HW174224   1.017   4.995   7.312
24109SOL    HW274225   0.983   4.886   7.212
24110SOL     OW74226   7.869   4.968   3.241
24110SOL    HW174227   7.803   4.954   3.309
24110SOL    HW274228   7.938   4.904   3.260
24111SOL     OW74229  14.476   2.627  12.580
24111SOL    HW174230  14.395   2.605  12.534
24111SOL    HW274231  14.484   2.722  12.571
24112SOL     OW74232   1.571   6.484  10.493
24112SOL    HW174233   1.503   6.551  10.484
24112SOL    HW274234   1.547   6.416  10.430
24113SOL     OW74235   5.620   1.831   0.353
24113SOL    HW174236   5.708   1.795   0.344
24113SOL    HW274237   5.619   1.872   0.439
24114SOL     OW74238   8.270   2.972  11.041
24114SOL    HW174239   8.211   3.047  11.037
24114SOL    HW274240   8.348   3.006  11.087
24115SOL     OW74241   2.237  12.206   1.315
24115SOL    HW174242   2.316  12.232   1.268
24115SOL    HW274243   2.257  12.118   1.348
24116SOL     OW74244  14.776   9.249   3.950
24116SOL    HW174245  14.788   9.337   3.985
24116SOL    HW274246  14.695   9.217   3.991
24117SOL     OW74247   0.432   9.122   1.243
24117SOL    HW174248   0.457   9.188   1.178
24117SOL    HW274249   0.368   9.067   1.198
24118SOL     OW74250   0.084   9.766  10.153
24118SOL    HW174251   0.090   9.687  10.100
24118SOL    HW274252  14.885   9.802  10.135
24119SOL     OW74253  10.635   3.037   7.099
24119SOL    HW174254  10.608   2.948   7.077
24119SOL    HW274255  10.584   3.059   7.177
24120SOL     OW74256   7.267   5.861   9.519
24120SOL    HW174257   7.319   5.824   9.447
24120SOL    HW274258   7.279   5.956   9.509
24121SOL     OW74259  11.030  10.482  12.137
24121SOL    HW174260  10.964  10.546  12.165
24121SOL    HW274261  11.033  10.490  12.042
24122SOL     OW74262   5.848  11.495   0.421
24122SOL    HW174263   5.814  11.571   0.374
24122SOL    HW274264   5.942  11.496   0.403
24123SOL     OW74265  13.700   7.942   6.534
24123SOL    HW174266  13.768   7.954   6.600
24123SOL    HW274267  13.659   7.858   6.556
24124SOL     OW74268   7.148   1.934   7.965
24124SOL    HW174269   7.109   1.972   8.043
24124SOL    HW274270   7.084   1.869   7.935
24125SOL     OW74271   7.039  11.989  12.058
24125SOL    HW174272   7.046  12.068  12.111
24125SOL    HW274273   6.971  12.009  11.994
24126SOL     OW74274   7.439  12.988  14.648
24126SOL    HW174275   7.482  13.073  14.647
24126SOL    HW274276   7.345  13.009  14.652
24127SOL     OW74277   3.052  14.573   6.500
24127SOL    HW174278   2.996  14.564   6.423
24127SOL    HW274279   2.996  14.613   6.566
24128SOL     OW74280   1.246   6.679  11.709
24128SOL    HW174281   1.307   6.747  11.737
24128SOL    HW274282   1.301   6.603  11.693
24129SOL     OW74283   0.299   4.436   5.904
24129SOL    HW174284   0.299   4.397   5.991
24129SOL    HW274285   0.372   4.394   5.858
24130SOL     OW74286   0.080  13.056  13.234
24130SOL    HW174287   0.008  13.052  13.297
24130SOL    HW274288   0.039  13.085  13.153
24131SOL     OW74289   9.191   6.891   1.802
24131SOL    HW174290   9.281   6.863   1.783
24131SOL    HW274291   9.195   6.924   1.892
24132SOL     OW74292  12.116   8.103  14.555
24132SOL    HW174293  12.181   8.148  14.501
24132SOL    HW274294  12.074   8.041  14.496
24133SOL     OW74295  11.013   7.587   6.651
24133SOL    HW174296  10.953   7.543   6.591
24133SOL    HW274297  11.095   7.538   6.643
24134SOL     OW74298   6.209   0.079   9.480
24134SOL    HW174299   6.268   0.048   9.550
24134SOL    HW274300   6.204   0.173   9.494
24135SOL     OW74301   0.912   9.493  11.643
24135SOL    HW174302   0.874   9.516  11.728
24135SOL    HW274303   0.884   9.563  11.584
24136SOL     OW74304   0.268  14.402   2.788
24136SOL    HW174305   0.245  14.423   2.879
24136SOL    HW274306   0.358  14.371   2.792
24137SOL     OW74307  14.060   9.616   1.760
24137SOL    HW174308  14.148   9.654   1.757
24137SOL    HW274309  14.040   9.609   1.853
24138SOL     OW74310   7.559   9.876   0.028
24138SOL    HW174311   7.560   9.970   0.047
24138SOL    HW274312   7.650   9.849   0.038
24139SOL     OW74313  12.261  12.551   8.388
24139SOL    HW174314  12.277  12.645   8.384
24139SOL    HW274315  12.189  12.536   8.327
24140SOL     OW74316   6.744  11.576  11.888
24140SOL    HW174317   6.759  11.599  11.980
24140SOL    HW274318   6.664  11.524  11.889
24141SOL     OW74319   2.382   7.942   1.130
24141SOL    HW174320   2.370   7.915   1.039
24141SOL    HW274321   2.476   7.961   1.137
24142SOL     OW74322  11.913   0.981   0.116
24142SOL    HW174323  11.821   0.986   0.091
24142SOL    HW274324  11.934   1.070   0.144
24143SOL     OW74325  12.454   2.022  14.752
24143SOL    HW174326  12.409   2.000  14.834
24143SOL    HW274327  12.535   1.972  14.754
24144SOL     OW74328   8.813   3.366   7.445
24144SOL    HW174329   8.751   3.313   7.495
24144SOL    HW274330   8.899   3.331   7.469
24145SOL     OW74331   9.961   9.636   4.729
24145SOL    HW174332  10.027   9.585   4.682
24145SOL    HW274333   9.880   9.588   4.715
24146SOL     OW74334  11.467   1.705   0.640
24146SOL    HW174335  11.411   1.645   0.590
24146SOL    HW274336  11.410   1.739   0.709
24147SOL     OW74337   9.784  12.029  13.947
24147SOL    HW174338   9.857  11.974  13.977
24147SOL    HW274339   9.773  12.094  14.017
24148SOL     OW74340   4.330   4.526   0.450
24148SOL    HW174341   4.264   4.537   0.519
24148SOL    HW274342   4.364   4.438   0.462
24149SOL     OW74343  11.806  13.342   1.962
24149SOL    HW174344  11.721  13.331   2.006
24149SOL    HW274345  11.784  13.357   1.871
24150SOL     OW74346   7.666   9.469  10.370
24150SOL    HW174347   7.728   9.532  10.335
24150SOL    HW274348   7.703   9.384  10.347
24151SOL     OW74349   7.364  13.092  11.541
24151SOL    HW174350   7.314  13.174  11.544
24151SOL    HW274351   7.311  13.033  11.488
24152SOL     OW74352   9.764   8.110   6.586
24152SOL    HW174353   9.709   8.140   6.514
24152SOL    HW274354   9.703   8.095   6.658
24153SOL     OW74355   8.602   2.572  12.906
24153SOL    HW174356   8.644   2.486  12.915
24153SOL    HW274357   8.509   2.554  12.917
24154SOL     OW74358  10.823   6.587   6.914
24154SOL    HW174359  10.796   6.613   6.826
24154SOL    HW274360  10.785   6.654   6.971
24155SOL     OW74361   9.669   5.933   3.752
24155SOL    HW174362   9.602   5.903   3.813
24155SOL    HW274363   9.663   6.028   3.755
24156SOL     OW74364   7.409   5.978  11.337
24156SOL    HW174365   7.392   5.924  11.260
24156SOL    HW274366   7.372   5.929  11.410
24157SOL     OW74367   6.170  12.168   5.407
24157SOL    HW174368   6.184  12.076   5.386
24157SOL    HW274369   6.221  12.217   5.342
24158SOL     OW74370   2.418   3.045  12.290
24158SOL    HW174371   2.407   3.128  12.335
24158SOL    HW274372   2.428   2.981  12.360
24159SOL     OW74373   2.694  10.950  10.795
24159SOL    HW174374   2.613  10.912  10.762
24159SOL    HW274375   2.742  10.976  10.716
24160SOL     OW74376   7.916   0.520   4.534
24160SOL    HW174377   8.002   0.478   4.539
24160SOL    HW274378   7.866   0.481   4.606
24161SOL     OW74379   4.162   5.808   9.870
24161SOL    HW174380   4.157   5.898   9.902
24161SOL    HW274381   4.071   5.784   9.852
24162SOL     OW74382   3.115   1.971  11.097
24162SOL    HW174383   3.128   1.951  11.189
24162SOL    HW274384   3.174   1.911  11.051
24163SOL     OW74385  14.244  14.732   4.254
24163SOL    HW174386  14.235  14.678   4.332
24163SOL    HW274387  14.273  14.817   4.288
24164SOL     OW74388   3.425  12.059   3.165
24164SOL    HW174389   3.484  11.984   3.161
24164SOL    HW274390   3.337  12.021   3.166
24165SOL     OW74391  12.827   8.318   1.227
24165SOL    HW174392  12.920   8.341   1.237
24165SOL    HW274393  12.788   8.341   1.312
24166SOL     OW74394  11.583  10.213  14.648
24166SOL    HW174395  11.623  10.193  14.564
24166SOL    HW274396  11.656  10.222  14.709
24167SOL     OW74397   3.923  13.665   8.847
24167SOL    HW174398   3.827  13.671   8.852
24167SOL    HW274399   3.953  13.755   8.857
24168SOL     OW74400   5.859  12.975   7.700
24168SOL    HW174401   5.901  12.980   7.614
24168SOL    HW274402   5.775  12.933   7.683
24169SOL     OW74403   7.239   8.774  12.222
24169SOL    HW174404   7.162   8.821  12.252
24169SOL    HW274405   7.277   8.830  12.154
24170SOL     OW74406   0.494   1.824  12.548
24170SOL    HW174407   0.520   1.741  12.588
24170SOL    HW274408   0.411   1.805  12.505
24171SOL     OW74409   4.270   7.482  13.320
24171SOL    HW174410   4.253   7.398  13.364
24171SOL    HW274411   4.362   7.499  13.337
24172SOL     OW74412   8.594   2.467   3.652
24172SOL    HW174413   8.535   2.392   3.645
24172SOL    HW274414   8.676   2.437   3.613
24173SOL     OW74415   3.103   3.994  11.220
24173SOL    HW174416   3.184   4.038  11.248
24173SOL    HW274417   3.033   4.052  11.251
24174SOL     OW74418   0.261  13.076   2.160
24174SOL    HW174419   0.338  13.048   2.110
24174SOL    HW274420   0.263  13.021   2.238
24175SOL     OW74421   1.504   3.073   0.922
24175SOL    HW174422   1.475   3.135   0.854
24175SOL    HW274423   1.580   3.030   0.883
24176SOL     OW74424  13.064   2.205   7.080
24176SOL    HW174425  13.068   2.271   7.149
24176SOL    HW274426  12.975   2.210   7.047
24177SOL     OW74427   2.681  13.867   6.135
24177SOL    HW174428   2.612  13.821   6.087
24177SOL    HW274429   2.636  13.901   6.213
24178SOL     OW74430  10.272   0.886   3.075
24178SOL    HW174431  10.214   0.810   3.085
24178SOL    HW274432  10.275   0.901   2.981
24179SOL     OW74433   7.126  10.223   3.236
24179SOL    HW174434   7.094  10.256   3.152
24179SOL    HW274435   7.201  10.168   3.213
24180SOL     OW74436   2.836   1.058  10.210
24180SOL    HW174437   2.760   1.070  10.267
24180SOL    HW274438   2.801   1.014  10.132
24181SOL     OW74439   2.933  12.944  11.085
24181SOL    HW174440   2.943  12.849  11.077
24181SOL    HW274441   2.965  12.964  11.173
24182SOL     OW74442   4.792  13.835   5.976
24182SOL    HW174443   4.712  13.841   6.029
24182SOL    HW274444   4.764  13.790   5.896
24183SOL     OW74445   1.324   2.577   3.345
24183SOL    HW174446   1.317   2.590   3.251
24183SOL    HW274447   1.245   2.617   3.381
24184SOL     OW74448   0.712   2.534   5.032
24184SOL    HW174449   0.628   2.578   5.016
24184SOL    HW274450   0.730   2.487   4.950
24185SOL     OW74451   1.157   3.030  11.266
24185SOL    HW174452   1.121   2.942  11.272
24185SOL    HW274453   1.244   3.023  11.305
24186SOL     OW74454  14.057  11.648   0.207
24186SOL    HW174455  14.127  11.700   0.248
24186SOL    HW274456  14.077  11.650   0.114
24187SOL     OW74457  11.798  13.099   9.057
24187SOL    HW174458  11.863  13.139   9.115
24187SOL    HW274459  11.715  13.140   9.081
24188SOL     OW74460   9.297  14.781   0.392
24188SOL    HW174461   9.343  14.782   0.476
24188SOL    HW274462   9.326  14.862   0.349
24189SOL     OW74463  12.240   6.976  14.118
24189SOL    HW174464  12.288   7.058  14.105
24189SOL    HW274465  12.296   6.924  14.176
24190SOL     OW74466  12.510  14.763  10.718
24190SOL    HW174467  12.546  14.765  10.629
24190SOL    HW274468  12.420  14.794  10.708
24191SOL     OW74469   9.887   1.057  11.893
24191SOL    HW174470   9.886   1.091  11.982
24191SOL    HW274471   9.796   1.033  11.875
24192SOL     OW74472  12.147   1.687   2.078
24192SOL    HW174473  12.185   1.705   2.164
24192SOL    HW274474  12.155   1.769   2.030
24193SOL     OW74475   1.626   6.300  10.687
24193SOL    HW174476   1.631   6.356  10.610
24193SOL    HW274477   1.637   6.359  10.761
24194SOL     OW74478   1.737   2.995   6.011
24194SOL    HW174479   1.734   3.090   5.999
24194SOL    HW274480   1.675   2.978   6.082
24195SOL     OW74481  10.358  11.604   1.356
24195SOL    HW174482  10.372  11.512   1.333
24195SOL    HW274483  10.297  11.602   1.430
24196SOL     OW74484   0.342   2.629   3.166
24196SOL    HW174485   0.280   2.620   3.093
24196SOL    HW274486   0.331   2.549   3.217
24197SOL     OW74487   3.872   3.199   6.929
24197SOL    HW174488   3.906   3.153   6.852
24197SOL    HW274489   3.932   3.273   6.940
24198SOL     OW74490  10.454   0.863   5.795
24198SOL    HW174491  10.483   0.893   5.709
24198SOL    HW274492  10.503   0.918   5.857
24199SOL     OW74493   4.741   9.966   5.560
24199SOL    HW174494   4.808   9.900   5.542
24199SOL    HW274495   4.768  10.005   5.643
24200SOL     OW74496   8.563   7.517   5.856
24200SOL    HW174497   8.557   7.478   5.944
24200SOL    HW274498   8.498   7.470   5.804
24201SOL     OW74499  10.389   2.039   2.365
24201SOL    HW174500  10.297   2.050   2.390
24201SOL    HW274501  10.390   2.056   2.271
24202SOL     OW74502  11.661   9.618  12.799
24202SOL    HW174503  11.580   9.575  12.772
24202SOL    HW274504  11.718   9.611  12.723
24203SOL     OW74505  13.133  14.115   7.598
24203SOL    HW174506  13.065  14.111   7.664
24203SOL    HW274507  13.194  14.181   7.631
24204SOL     OW74508   8.182   2.946  10.007
24204SOL    HW174509   8.152   2.984   9.924
24204SOL    HW274510   8.276   2.930   9.993
24205SOL     OW74511   4.575   5.009   4.843
24205SOL    HW174512   4.670   5.004   4.855
24205SOL    HW274513   4.559   4.964   4.760
24206SOL     OW74514   1.448   8.651   7.877
24206SOL    HW174515   1.380   8.584   7.871
24206SOL    HW274516   1.424   8.703   7.954
24207SOL     OW74517  10.193   8.819   7.472
24207SOL    HW174518  10.133   8.791   7.542
24207SOL    HW274519  10.136   8.861   7.408
24208SOL     OW74520  13.220   6.170   0.653
24208SOL    HW174521  13.205   6.075   0.654
24208SOL    HW274522  13.288   6.183   0.588
24209SOL     OW74523   6.482  10.965  11.281
24209SOL    HW174524   6.511  10.929  11.196
24209SOL    HW274525   6.499  11.059  11.274
24210SOL     OW74526   6.633  13.726   0.263
24210SOL    HW174527   6.605  13.817   0.262
24210SOL    HW274528   6.720  13.727   0.223
24211SOL     OW74529   1.730  11.170   6.367
24211SOL    HW174530   1.643  11.168   6.328
24211SOL    HW274531   1.786  11.127   6.302
24212SOL     OW74532   3.537  12.144   5.259
24212SOL    HW174533   3.546  12.194   5.340
24212SOL    HW274534   3.535  12.053   5.286
24213SOL     OW74535   4.995   8.094  13.279
24213SOL    HW174536   4.925   8.117  13.218
24213SOL    HW274537   5.071   8.077  13.223
24214SOL     OW74538   2.010   0.839   4.819
24214SOL    HW174539   2.097   0.804   4.840
24214SOL    HW274540   1.964   0.841   4.903
24215SOL     OW74541  12.551  14.253  14.015
24215SOL    HW174542  12.601  14.323  13.973
24215SOL    HW274543  12.476  14.238  13.957
24216SOL     OW74544   0.189   6.780   7.259
24216SOL    HW174545   0.232   6.831   7.328
24216SOL    HW274546   0.128   6.723   7.306
24217SOL     OW74547   5.673   3.486   4.718
24217SOL    HW174548   5.622   3.545   4.662
24217SOL    HW274549   5.764   3.504   4.694
24218SOL     OW74550  13.409  10.742   2.628
24218SOL    HW174551  13.432  10.806   2.561
24218SOL    HW274552  13.345  10.788   2.683
24219SOL     OW74553   0.124   6.651  10.224
24219SOL    HW174554   0.163   6.567  10.251
24219SOL    HW274555   0.130   6.651  10.129
24220SOL     OW74556   3.071   2.196   9.797
24220SOL    HW174557   3.141   2.261   9.792
24220SOL    HW274558   3.028   2.201   9.712
24221SOL     OW74559   0.536  11.654   2.984
24221SOL    HW174560   0.608  11.710   2.951
24221SOL    HW274561   0.524  11.589   2.915
24222SOL     OW74562   5.575   3.801   8.617
24222SOL    HW174563   5.566   3.787   8.523
24222SOL    HW274564   5.626   3.727   8.648
24223SOL     OW74565  12.616  14.478   7.662
24223SOL    HW174566  12.687  14.429   7.704
24223SOL    HW274567  12.633  14.569   7.686
24224SOL     OW74568   5.014   6.046   0.329
24224SOL    HW174569   5.079   6.000   0.276
24224SOL    HW274570   4.983   5.980   0.391
24225SOL     OW74571  11.081   4.861  12.669
24225SOL    HW174572  11.067   4.833  12.578
24225SOL    HW274573  11.092   4.956  12.664
24226SOL     OW74574   0.690   1.888  14.322
24226SOL    HW174575   0.708   1.958  14.259
24226SOL    HW274576   0.677   1.811  14.268
24227SOL     OW74577   8.026   3.202   6.251
24227SOL    HW174578   8.023   3.150   6.331
24227SOL    HW274579   8.063   3.143   6.186
24228SOL     OW74580   8.129  12.767   1.784
24228SOL    HW174581   8.159  12.814   1.862
24228SOL    HW274582   8.183  12.688   1.782
24229SOL     OW74583  10.089  10.212  14.510
24229SOL    HW174584  10.003  10.178  14.535
24229SOL    HW274585  10.077  10.246  14.421
24230SOL     OW74586   0.082   7.177  13.759
24230SOL    HW174587   0.069   7.084  13.741
24230SOL    HW274588   0.040   7.191  13.844
24231SOL     OW74589  12.132   3.598  10.373
24231SOL    HW174590  12.107   3.531  10.310
24231SOL    HW274591  12.112   3.560  10.458
24232SOL     OW74592  11.752  13.860   6.025
24232SOL    HW174593  11.671  13.809   6.018
24232SOL    HW274594  11.822  13.797   6.007
24233SOL     OW74595   4.603   1.026   3.941
24233SOL    HW174596   4.537   1.085   3.906
24233SOL    HW274597   4.661   1.007   3.867
24234SOL     OW74598  13.914   7.995   7.179
24234SOL    HW174599  13.977   8.034   7.240
24234SOL    HW274600  13.959   7.920   7.143
24235SOL     OW74601  11.615   5.282   9.879
24235SOL    HW174602  11.526   5.312   9.860
24235SOL    HW274603  11.663   5.295   9.798
24236SOL     OW74604   8.507   8.266   2.577
24236SOL    HW174605   8.584   8.322   2.584
24236SOL    HW274606   8.498   8.226   2.664
24237SOL     OW74607   6.430  10.168  14.747
24237SOL    HW174608   6.523  10.185  14.763
24237SOL    HW274609   6.395  10.251  14.716
24238SOL     OW74610   6.605  10.218  11.510
24238SOL    HW174611   6.699  10.208  11.493
24238SOL    HW274612   6.594  10.311  11.529
24239SOL     OW74613  11.222   9.409   5.846
24239SOL    HW174614  11.191   9.489   5.804
24239SOL    HW274615  11.228   9.432   5.939
24240SOL     OW74616   6.620   1.304   9.492
24240SOL    HW174617   6.657   1.228   9.537
24240SOL    HW274618   6.608   1.369   9.561
24241SOL     OW74619  14.260  11.992  11.260
24241SOL    HW174620  14.197  12.056  11.293
24241SOL    HW274621  14.209  11.913  11.245
24242SOL     OW74622   0.938  14.419  12.483
24242SOL    HW174623   0.960  14.403  12.574
24242SOL    HW274624   0.876  14.492  12.486
24243SOL     OW74625  13.560   6.842   5.668
24243SOL    HW174626  13.617   6.767   5.686
24243SOL    HW274627  13.600   6.915   5.717
24244SOL     OW74628   1.344   5.150   2.683
24244SOL    HW174629   1.281   5.166   2.612
24244SOL    HW274630   1.328   5.221   2.745
24245SOL     OW74631  12.082  14.105  12.044
24245SOL    HW174632  12.010  14.107  11.980
24245SOL    HW274633  12.056  14.168  12.111
24246SOL     OW74634   1.708   2.385   9.414
24246SOL    HW174635   1.798   2.369   9.387
24246SOL    HW274636   1.716   2.424   9.501
24247SOL     OW74637  12.124  12.103  14.213
24247SOL    HW174638  12.045  12.151  14.237
24247SOL    HW274639  12.190  12.171  14.199
24248SOL     OW74640  12.721   7.827   7.326
24248SOL    HW174641  12.651   7.889   7.305
24248SOL    HW274642  12.789   7.882   7.365
24249SOL     OW74643   7.402   2.872   1.513
24249SOL    HW174644   7.472   2.813   1.540
24249SOL    HW274645   7.392   2.856   1.419
24250SOL     OW74646   0.278   2.307   3.961
24250SOL    HW174647   0.303   2.380   3.906
24250SOL    HW274648   0.189   2.329   3.992
24251SOL     OW74649   2.842  12.572   9.541
24251SOL    HW174650   2.872  12.588   9.631
24251SOL    HW274651   2.921  12.548   9.493
24252SOL     OW74652   5.678  10.089   2.770
24252SOL    HW174653   5.625  10.167   2.786
24252SOL    HW274654   5.767  10.122   2.759
24253SOL     OW74655   6.734  10.008   0.789
24253SOL    HW174656   6.694   9.937   0.738
24253SOL    HW274657   6.802   9.965   0.841
24254SOL     OW74658   1.204   5.147   2.141
24254SOL    HW174659   1.257   5.103   2.208
24254SOL    HW274660   1.268   5.183   2.080
24255SOL     OW74661   9.705   4.033   7.756
24255SOL    HW174662   9.668   4.105   7.704
24255SOL    HW274663   9.690   3.955   7.704
24256SOL     OW74664  14.667   9.705   7.447
24256SOL    HW174665  14.585   9.704   7.496
24256SOL    HW274666  14.649   9.652   7.369
24257SOL     OW74667   6.388   3.324   7.531
24257SOL    HW174668   6.449   3.367   7.471
24257SOL    HW274669   6.405   3.365   7.616
24258SOL     OW74670   3.627   9.977   0.990
24258SOL    HW174671   3.713   9.980   1.032
24258SOL    HW274672   3.622   9.889   0.954
24259SOL     OW74673  10.883  13.947  14.771
24259SOL    HW174674  10.862  13.936  14.864
24259SOL    HW274675  10.797  13.946  14.727
24260SOL     OW74676  12.669  11.910   8.614
24260SOL    HW174677  12.605  11.840   8.629
24260SOL    HW274678  12.752  11.873   8.643
24261SOL     OW74679   1.809   1.045   1.339
24261SOL    HW174680   1.771   1.132   1.349
24261SOL    HW274681   1.734   0.986   1.344
24262SOL     OW74682   0.071  12.751   5.242
24262SOL    HW174683   0.086  12.656   5.237
24262SOL    HW274684   0.048  12.776   5.152
24263SOL     OW74685   3.697   6.840  10.273
24263SOL    HW174686   3.610   6.816  10.306
24263SOL    HW274687   3.703   6.796  10.188
24264SOL     OW74688  10.886   1.494   5.522
24264SOL    HW174689  10.807   1.451   5.489
24264SOL    HW274690  10.904   1.563   5.458
24265SOL     OW74691   6.080   2.146  12.865
24265SOL    HW174692   6.108   2.223  12.815
24265SOL    HW274693   6.139   2.144  12.941
24266SOL     OW74694  11.844  12.579  13.778
24266SOL    HW174695  11.814  12.508  13.835
24266SOL    HW274696  11.877  12.646  13.838
24267SOL     OW74697  12.462  14.480   9.942
24267SOL    HW174698  12.437  14.540  10.012
24267SOL    HW274699  12.509  14.535   9.879
24268SOL     OW74700  12.001   5.668   2.355
24268SOL    HW174701  11.986   5.599   2.420
24268SOL    HW274702  12.070   5.634   2.299
24269SOL     OW74703  11.513  14.877  10.078
24269SOL    HW174704  11.557  14.806  10.125
24269SOL    HW274705  11.554  14.878   9.992
24270SOL     OW74706   9.732  11.818   1.348
24270SOL    HW174707   9.698  11.865   1.272
24270SOL    HW274708   9.825  11.839   1.350
24271SOL     OW74709   5.613  12.981  10.669
24271SOL    HW174710   5.604  13.076  10.676
24271SOL    HW274711   5.584  12.961  10.579
24272SOL     OW74712   6.822   9.587   8.764
24272SOL    HW174713   6.770   9.628   8.833
24272SOL    HW274714   6.889   9.537   8.811
24273SOL     OW74715  11.248  14.666   6.181
24273SOL    HW174716  11.258  14.615   6.262
24273SOL    HW274717  11.167  14.715   6.193
24274SOL     OW74718   7.693   1.835   8.466
24274SOL    HW174719   7.667   1.841   8.374
24274SOL    HW274720   7.689   1.742   8.487
24275SOL     OW74721   1.572   1.643   3.080
24275SOL    HW174722   1.568   1.724   3.131
24275SOL    HW274723   1.487   1.601   3.094
24276SOL     OW74724  14.567   5.024   8.462
24276SOL    HW174725  14.508   5.098   8.450
24276SOL    HW274726  14.519   4.965   8.521
24277SOL     OW74727  14.486   0.815   8.424
24277SOL    HW174728  14.467   0.811   8.517
24277SOL    HW274729  14.561   0.757   8.412
24278SOL     OW74730   6.251   5.771   3.398
24278SOL    HW174731   6.285   5.695   3.349
24278SOL    HW274732   6.200   5.820   3.333
24279SOL     OW74733   3.549  13.744   1.230
24279SOL    HW174734   3.637  13.769   1.260
24279SOL    HW274735   3.500  13.728   1.310
24280SOL     OW74736  14.833   9.449   0.074
24280SOL    HW174737   0.028   9.419   0.037
24280SOL    HW274738  14.779   9.472  14.886
24281SOL     OW74739   9.847  13.882   1.348
24281SOL    HW174740   9.866  13.795   1.383
24281SOL    HW274741   9.753  13.892   1.358
24282SOL     OW74742   3.328   3.371   7.086
24282SOL    HW174743   3.345   3.279   7.068
24282SOL    HW274744   3.386   3.393   7.159
24283SOL     OW74745  14.116  14.674   2.674
24283SOL    HW174746  14.148  14.612   2.608
24283SOL    HW274747  14.134  14.631   2.757
24284SOL     OW74748   8.888   1.547   0.926
24284SOL    HW174749   8.935   1.464   0.919
24284SOL    HW274750   8.872   1.573   0.835
24285SOL     OW74751  12.237   1.404  12.496
24285SOL    HW174752  12.153   1.361  12.513
24285SOL    HW274753  12.215   1.481  12.443
24286SOL     OW74754   3.087   5.217   3.545
24286SOL    HW174755   3.154   5.216   3.613
24286SOL    HW274756   3.136   5.233   3.464
24287SOL     OW74757  11.897   9.507   0.380
24287SOL    HW174758  11.950   9.560   0.320
24287SOL    HW274759  11.936   9.420   0.376
24288SOL     OW74760  10.196   0.928   0.439
24288SOL    HW174761  10.260   0.929   0.511
24288SOL    HW274762  10.132   0.861   0.465
24289SOL     OW74763  12.479  14.097   5.531
24289SOL    HW174764  12.536  14.171   5.553
24289SOL    HW274765  12.521  14.055   5.457
24290SOL     OW74766   2.983   6.202   8.981
24290SOL    HW174767   2.937   6.128   8.944
24290SOL    HW274768   3.043   6.231   8.912
24291SOL     OW74769  12.742  12.214  12.786
24291SOL    HW174770  12.755  12.125  12.818
24291SOL    HW274771  12.830  12.250  12.777
24292SOL     OW74772  13.896   8.474   1.455
24292SOL    HW174773  13.887   8.505   1.364
24292SOL    HW274774  13.827   8.408   1.464
24293SOL     OW74775  11.736  12.622   5.641
24293SOL    HW174776  11.765  12.703   5.600
24293SOL    HW274777  11.653  12.644   5.683
24294SOL     OW74778   4.901  12.346  12.959
24294SOL    HW174779   4.997  12.352  12.963
24294SOL    HW274780   4.881  12.342  12.865
24295SOL     OW74781   3.760   7.770   7.472
24295SOL    HW174782   3.686   7.759   7.531
24295SOL    HW274783   3.826   7.816   7.524
24296SOL     OW74784   1.407  11.096   0.212
24296SOL    HW174785   1.386  11.153   0.137
24296SOL    HW274786   1.462  11.027   0.175
24297SOL     OW74787  14.817   8.796   2.521
24297SOL    HW174788  14.877   8.820   2.450
24297SOL    HW274789  14.814   8.874   2.576
24298SOL     OW74790   2.716   1.144   1.493
24298SOL    HW174791   2.734   1.195   1.415
24298SOL    HW274792   2.623   1.122   1.487
24299SOL     OW74793   3.428   5.187  13.120
24299SOL    HW174794   3.482   5.131  13.176
24299SOL    HW274795   3.475   5.191  13.037
24300SOL     OW74796   7.150   9.023  11.349
24300SOL    HW174797   7.189   9.098  11.394
24300SOL    HW274798   7.064   9.055  11.319
24301SOL     OW74799   8.092   8.003  14.731
24301SOL    HW174800   8.170   8.000  14.675
24301SOL    HW274801   8.109   7.938  14.800
24302SOL     OW74802   2.564   1.313   5.636
24302SOL    HW174803   2.592   1.335   5.725
24302SOL    HW274804   2.644   1.318   5.584
24303SOL     OW74805   7.692   4.507  11.538
24303SOL    HW174806   7.648   4.427  11.509
24303SOL    HW274807   7.719   4.550  11.457
24304SOL     OW74808   5.994   1.294   7.417
24304SOL    HW174809   6.055   1.254   7.479
24304SOL    HW274810   5.928   1.337   7.472
24305SOL     OW74811   4.266   5.231   6.988
24305SOL    HW174812   4.296   5.220   6.898
24305SOL    HW274813   4.345   5.254   7.037
24306SOL     OW74814  10.689  14.285  13.966
24306SOL    HW174815  10.656  14.195  13.967
24306SOL    HW274816  10.652  14.324  14.045
24307SOL     OW74817   6.036   9.991   0.251
24307SOL    HW174818   6.004   9.965   0.165
24307SOL    HW274819   6.129  10.009   0.237
24308SOL     OW74820  12.607   5.355   3.134
24308SOL    HW174821  12.552   5.295   3.083
24308SOL    HW274822  12.671   5.388   3.071
24309SOL     OW74823   4.002  11.578   2.017
24309SOL    HW174824   4.046  11.565   1.933
24309SOL    HW274825   3.950  11.499   2.030
24310SOL     OW74826   3.061   3.660  10.318
24310SOL    HW174827   2.966   3.657  10.310
24310SOL    HW274828   3.090   3.572  10.297
24311SOL     OW74829   4.990   7.446  10.606
24311SOL    HW174830   5.069   7.459  10.660
24311SOL    HW274831   4.977   7.531  10.563
24312SOL     OW74832  11.796   1.320   4.072
24312SOL    HW174833  11.892   1.322   4.070
24312SOL    HW274834  11.774   1.281   4.156
24313SOL     OW74835   9.467  13.643   5.189
24313SOL    HW174836   9.480  13.735   5.168
24313SOL    HW274837   9.433  13.604   5.108
24314SOL     OW74838  14.694   3.853   7.629
24314SOL    HW174839  14.733   3.772   7.662
24314SOL    HW274840  14.603   3.850   7.657
24315SOL     OW74841  11.903  13.430   7.426
24315SOL    HW174842  11.872  13.359   7.369
24315SOL    HW274843  11.986  13.457   7.386
24316SOL     OW74844   6.165  11.220   2.819
24316SOL    HW174845   6.202  11.297   2.774
24316SOL    HW274846   6.130  11.166   2.748
24317SOL     OW74847   6.226   4.813  10.582
24317SOL    HW174848   6.161   4.819  10.512
24317SOL    HW274849   6.298   4.868  10.552
24318SOL     OW74850  14.461   9.628   1.527
24318SOL    HW174851  14.473   9.567   1.600
24318SOL    HW274852  14.544   9.674   1.520
24319SOL     OW74853  11.415   9.562   4.093
24319SOL    HW174854  11.387   9.503   4.164
24319SOL    HW274855  11.335   9.609   4.069
24320SOL     OW74856   6.337  12.197  14.141
24320SOL    HW174857   6.343  12.274  14.198
24320SOL    HW274858   6.374  12.226  14.058
24321SOL     OW74859  12.022   4.174  11.731
24321SOL    HW174860  11.981   4.241  11.786
24321SOL    HW274861  12.089   4.221  11.681
24322SOL     OW74862  12.142  10.225  14.776
24322SOL    HW174863  12.201  10.152  14.760
24322SOL    HW274864  12.138  10.272  14.693
24323SOL     OW74865   3.210  13.937   2.441
24323SOL    HW174866   3.161  13.970   2.516
24323SOL    HW274867   3.268  13.871   2.477
24324SOL     OW74868  10.845  12.944   4.691
24324SOL    HW174869  10.759  12.940   4.732
24324SOL    HW274870  10.826  12.957   4.598
24325SOL     OW74871  10.812   2.489  12.121
24325SOL    HW174872  10.775   2.404  12.144
24325SOL    HW274873  10.754   2.552  12.163
24326SOL     OW74874   6.383  13.158  12.712
24326SOL    HW174875   6.324  13.230  12.687
24326SOL    HW274876   6.443  13.197  12.775
24327SOL     OW74877  14.649   4.438   2.747
24327SOL    HW174878  14.645   4.436   2.651
24327SOL    HW274879  14.581   4.376   2.775
24328SOL     OW74880   0.512   6.702   6.109
24328SOL    HW174881   0.594   6.657   6.092
24328SOL    HW274882   0.458   6.636   6.154
24329SOL     OW74883   4.430  11.267   8.962
24329SOL    HW174884   4.397  11.195   9.015
24329SOL    HW274885   4.353  11.321   8.944
24330SOL     OW74886   9.241   8.255   7.095
24330SOL    HW174887   9.287   8.220   7.171
24330SOL    HW274888   9.251   8.350   7.102
24331SOL     OW74889  13.471   4.958   8.075
24331SOL    HW174890  13.381   4.977   8.046
24331SOL    HW274891  13.519   4.940   7.994
24332SOL     OW74892   0.472   5.740   0.065
24332SOL    HW174893   0.393   5.708   0.108
24332SOL    HW274894   0.527   5.771   0.136
24333SOL     OW74895  14.303   4.886   2.980
24333SOL    HW174896  14.330   4.812   2.925
24333SOL    HW274897  14.283   4.846   3.065
24334SOL     OW74898  13.789   9.376   8.632
24334SOL    HW174899  13.768   9.448   8.572
24334SOL    HW274900  13.715   9.374   8.693
24335SOL     OW74901   1.531   2.526   4.982
24335SOL    HW174902   1.526   2.466   4.907
24335SOL    HW274903   1.591   2.595   4.953
24336SOL     OW74904   3.631   7.983   2.614
24336SOL    HW174905   3.701   7.922   2.638
24336SOL    HW274906   3.677   8.061   2.583
24337SOL     OW74907  13.873   3.040   0.998
24337SOL    HW174908  13.929   3.064   0.924
24337SOL    HW274909  13.838   2.954   0.974
24338SOL     OW74910  10.652   2.137   8.652
24338SOL    HW174911  10.696   2.101   8.729
24338SOL    HW274912  10.637   2.062   8.595
24339SOL     OW74913   9.459  14.720  12.831
24339SOL    HW174914   9.433  14.635  12.795
24339SOL    HW274915   9.380  14.774  12.825
24340SOL     OW74916   1.968   1.741   6.913
24340SOL    HW174917   1.975   1.779   7.001
24340SOL    HW274918   2.044   1.682   6.907
24341SOL     OW74919   9.651  11.297   5.570
24341SOL    HW174920   9.729  11.320   5.621
24341SOL    HW274921   9.681  11.298   5.479
24342SOL     OW74922   3.307   2.004  10.212
24342SOL    HW174923   3.374   1.936  10.218
24342SOL    HW274924   3.356   2.086  10.220
24343SOL     OW74925   9.942  14.056  14.084
24343SOL    HW174926   9.882  13.984  14.103
24343SOL    HW274927   9.892  14.135  14.104
24344SOL     OW74928  11.228   4.935   2.836
24344SOL    HW174929  11.221   5.022   2.797
24344SOL    HW274930  11.297   4.943   2.902
24345SOL     OW74931  12.590  12.470   7.340
24345SOL    HW174932  12.542  12.531   7.283
24345SOL    HW274933  12.525  12.406   7.368
24346SOL     OW74934   6.481   3.083   7.594
24346SOL    HW174935   6.565   3.117   7.563
24346SOL    HW274936   6.417   3.149   7.569
24347SOL     OW74937  14.624   9.210   9.342
24347SOL    HW174938  14.604   9.158   9.265
24347SOL    HW274939  14.557   9.187   9.405
24348SOL     OW74940  12.694  14.018  11.245
24348SOL    HW174941  12.650  14.096  11.212
24348SOL    HW274942  12.727  14.043  11.331
24349SOL     OW74943   2.079   9.892  12.531
24349SOL    HW174944   2.163   9.865  12.568
24349SOL    HW274945   2.030   9.926  12.606
24350SOL     OW74946   1.526  12.029   2.543
24350SOL    HW174947   1.592  12.098   2.536
24350SOL    HW274948   1.553  11.978   2.619
24351SOL     OW74949   7.125  10.894  12.113
24351SOL    HW174950   7.150  10.985  12.102
24351SOL    HW274951   7.207  10.845  12.106
24352SOL     OW74952   2.633   8.312  11.382
24352SOL    HW174953   2.561   8.349  11.330
24352SOL    HW274954   2.648   8.378  11.450
24353SOL     OW74955   8.537  12.400   5.174
24353SOL    HW174956   8.484  12.338   5.124
24353SOL    HW274957   8.588  12.446   5.108
24354SOL     OW74958   4.858   9.835   7.031
24354SOL    HW174959   4.916   9.872   6.965
24354SOL    HW274960   4.850   9.743   7.008
24355SOL     OW74961   7.417   7.771  12.679
24355SOL    HW174962   7.437   7.737  12.766
24355SOL    HW274963   7.484   7.734  12.622
24356SOL     OW74964  13.210   6.998   5.035
24356SOL    HW174965  13.174   7.083   5.061
24356SOL    HW274966  13.168   6.978   4.952
24357SOL     OW74967   3.769   2.064  11.158
24357SOL    HW174968   3.861   2.073  11.186
24357SOL    HW274969   3.749   2.148  11.116
24358SOL     OW74970   1.115   7.517  14.300
24358SOL    HW174971   1.185   7.454  14.317
24358SOL    HW274972   1.141   7.562  14.220
24359SOL     OW74973   4.884   6.283   5.732
24359SOL    HW174974   4.964   6.333   5.723
24359SOL    HW274975   4.835   6.327   5.802
24360SOL     OW74976  12.871   9.762   1.392
24360SOL    HW174977  12.797   9.778   1.334
24360SOL    HW274978  12.880   9.842   1.444
24361SOL     OW74979   6.159   7.796   0.010
24361SOL    HW174980   6.223   7.736   0.047
24361SOL    HW274981   6.115   7.745  14.830
24362SOL     OW74982   4.377  10.004   3.311
24362SOL    HW174983   4.445  10.017   3.377
24362SOL    HW274984   4.409   9.931   3.258
24363SOL     OW74985   3.949  11.793   5.478
24363SOL    HW174986   3.925  11.864   5.538
24363SOL    HW274987   3.930  11.828   5.391
24364SOL     OW74988  12.931  13.662  11.236
24364SOL    HW174989  13.000  13.608  11.273
24364SOL    HW274990  12.860  13.658  11.300
24365SOL     OW74991   8.491   4.868  11.075
24365SOL    HW174992   8.497   4.938  11.141
24365SOL    HW274993   8.558   4.805  11.100
24366SOL     OW74994   5.682  11.682  10.496
24366SOL    HW174995   5.741  11.664  10.423
24366SOL    HW274996   5.720  11.634  10.570
24367SOL     OW74997  10.703   4.555  10.233
24367SOL    HW174998  10.797   4.567  10.223
24367SOL    HW274999  10.681   4.600  10.315
24368SOL     OW75000   2.758   9.926  12.182
24368SOL    HW175001   2.825   9.991  12.161
24368SOL    HW275002   2.781   9.894  12.269
24369SOL     OW75003   2.687   6.946   5.226
24369SOL    HW175004   2.618   7.006   5.199
24369SOL    HW275005   2.760   6.966   5.169
24370SOL     OW75006   4.566   0.753   6.882
24370SOL    HW175007   4.550   0.674   6.830
24370SOL    HW275008   4.595   0.720   6.967
24371SOL     OW75009   6.248  14.538   6.052
24371SOL    HW175010   6.334  14.581   6.048
24371SOL    HW275011   6.191  14.602   6.094
24372SOL     OW75012  12.036   2.348   0.561
24372SOL    HW175013  12.040   2.253   0.554
24372SOL    HW275014  11.975   2.364   0.633
24373SOL     OW75015   2.537   6.614   7.085
24373SOL    HW175016   2.466   6.596   7.147
24373SOL    HW275017   2.561   6.528   7.051
24374SOL     OW75018   7.762   8.150   6.747
24374SOL    HW175019   7.839   8.205   6.732
24374SOL    HW275020   7.719   8.191   6.823
24375SOL     OW75021   1.257   7.052  14.301
24375SOL    HW175022   1.299   7.053  14.214
24375SOL    HW275023   1.214   6.967  14.305
24376SOL     OW75024   9.632  12.681  11.070
24376SOL    HW175025   9.723  12.652  11.073
24376SOL    HW275026   9.616  12.701  10.978
24377SOL     OW75027   2.762   6.941  11.973
24377SOL    HW175028   2.790   6.874  11.911
24377SOL    HW275029   2.842   6.972  12.015
24378SOL     OW75030  14.721  11.202   9.922
24378SOL    HW175031  14.759  11.211   9.835
24378SOL    HW275032  14.643  11.257   9.920
24379SOL     OW75033   3.738   6.874   6.191
24379SOL    HW175034   3.800   6.937   6.154
24379SOL    HW275035   3.777   6.848   6.274
24380SOL     OW75036  14.379   3.103   6.605
24380SOL    HW175037  14.333   3.020   6.613
24380SOL    HW275038  14.356   3.151   6.685
24381SOL     OW75039  13.221   3.103  11.913
24381SOL    HW175040  13.221   3.198  11.913
24381SOL    HW275041  13.157   3.079  11.980
24382SOL     OW75042   9.085   8.081  10.633
24382SOL    HW175043   9.133   8.022  10.576
24382SOL    HW275044   9.143   8.157  10.643
24383SOL     OW75045   5.801   7.857   8.436
24383SOL    HW175046   5.882   7.871   8.388
24383SOL    HW275047   5.805   7.920   8.508
24384SOL     OW75048  11.255  13.455   5.371
24384SOL    HW175049  11.255  13.540   5.415
24384SOL    HW275050  11.194  13.466   5.298
24385SOL     OW75051   4.792   4.707   9.737
24385SOL    HW175052   4.707   4.740   9.764
24385SOL    HW275053   4.779   4.679   9.646
24386SOL     OW75054  13.219  10.153   6.204
24386SOL    HW175055  13.296  10.132   6.258
24386SOL    HW275056  13.155  10.086   6.228
24387SOL     OW75057   2.664   5.176   2.098
24387SOL    HW175058   2.704   5.231   2.165
24387SOL    HW275059   2.574   5.165   2.127
24388SOL     OW75060   0.037   7.966  13.250
24388SOL    HW175061  14.837   8.004  13.244
24388SOL    HW275062   0.053   7.926  13.165
24389SOL     OW75063   9.415  12.695   2.343
24389SOL    HW175064   9.479  12.759   2.374
24389SOL    HW275065   9.408  12.631   2.413
24390SOL     OW75066  12.189   4.747  13.148
24390SOL    HW175067  12.244   4.806  13.199
24390SOL    HW275068  12.197   4.662  13.192
24391SOL     OW75069   1.858  11.826  14.766
24391SOL    HW175070   1.824  11.758  14.708
24391SOL    HW275071   1.792  11.895  14.763
24392SOL     OW75072   4.111  10.756   9.515
24392SOL    HW175073   4.185  10.774   9.457
24392SOL    HW275074   4.135  10.676   9.561
24393SOL     OW75075   3.406   9.787  13.091
24393SOL    HW175076   3.397   9.807  12.998
24393SOL    HW275077   3.477   9.723  13.095
24394SOL     OW75078  14.675   1.724  14.816
24394SOL    HW175079  14.746   1.782  14.788
24394SOL    HW275080  14.720   1.647  14.851
24395SOL     OW75081   4.925   6.624   6.048
24395SOL    HW175082   4.898   6.606   5.958
24395SOL    HW275083   4.991   6.693   6.039
24396SOL     OW75084   6.584  10.144   2.582
24396SOL    HW175085   6.675  10.131   2.608
24396SOL    HW275086   6.543  10.188   2.656
24397SOL     OW75087   8.427   6.868   5.659
24397SOL    HW175088   8.344   6.884   5.614
24397SOL    HW275089   8.404   6.865   5.752
24398SOL     OW75090   2.942   3.691   7.111
24398SOL    HW175091   3.025   3.650   7.089
24398SOL    HW275092   2.898   3.627   7.168
24399SOL     OW75093  13.779   4.453  11.288
24399SOL    HW175094  13.716   4.520  11.261
24399SOL    HW275095  13.726   4.386  11.330
24400SOL     OW75096   2.372  10.150  10.023
24400SOL    HW175097   2.427  10.227  10.006
24400SOL    HW275098   2.283  10.181  10.007
24401SOL     OW75099  11.753  10.372  11.812
24401SOL    HW175100  11.661  10.388  11.833
24401SOL    HW275101  11.782  10.309  11.878
24402SOL     OW75102  13.444   8.068  12.228
24402SOL    HW175103  13.473   8.160  12.231
24402SOL    HW275104  13.351   8.072  12.248
24403SOL     OW75105   6.244   5.997   1.659
24403SOL    HW175106   6.277   5.964   1.576
24403SOL    HW275107   6.242   5.921   1.717
24404SOL     OW75108  14.164   9.014   0.824
24404SOL    HW175109  14.181   8.942   0.886
24404SOL    HW275110  14.074   8.999   0.794
24405SOL     OW75111   6.197  11.675  12.317
24405SOL    HW175112   6.271  11.734  12.331
24405SOL    HW275113   6.134  11.700  12.385
24406SOL     OW75114   8.684  10.530  12.834
24406SOL    HW175115   8.776  10.501  12.830
24406SOL    HW275116   8.636  10.455  12.867
24407SOL     OW75117  13.028   7.374   4.566
24407SOL    HW175118  12.937   7.402   4.556
24407SOL    HW275119  13.057   7.415   4.648
24408SOL     OW75120   1.383   8.355  13.370
24408SOL    HW175121   1.322   8.384  13.303
24408SOL    HW275122   1.456   8.417  13.365
24409SOL     OW75123   8.337   9.204  10.956
24409SOL    HW175124   8.346   9.224  11.049
24409SOL    HW275125   8.421   9.165  10.931
24410SOL     OW75126   4.864   3.439   6.092
24410SOL    HW175127   4.812   3.447   6.172
24410SOL    HW275128   4.835   3.512   6.037
24411SOL     OW75129   3.160   9.846  11.218
24411SOL    HW175130   3.160   9.904  11.295
24411SOL    HW275131   3.206   9.896  11.151
24412SOL     OW75132   2.361   6.090  13.188
24412SOL    HW175133   2.365   6.182  13.213
24412SOL    HW275134   2.292   6.053  13.242
24413SOL     OW75135   5.324  12.414   9.917
24413SOL    HW175136   5.392  12.381   9.976
24413SOL    HW275137   5.251  12.437   9.974
24414SOL     OW75138   5.177  13.790   6.462
24414SOL    HW175139   5.089  13.776   6.429
24414SOL    HW275140   5.174  13.759   6.553
24415SOL     OW75141   4.274  14.140   4.754
24415SOL    HW175142   4.221  14.143   4.674
24415SOL    HW275143   4.230  14.200   4.814
24416SOL     OW75144  10.958   8.089  12.416
24416SOL    HW175145  11.018   8.112  12.345
24416SOL    HW275146  10.919   8.173  12.441
24417SOL     OW75147  13.584   0.455   4.647
24417SOL    HW175148  13.535   0.519   4.698
24417SOL    HW275149  13.672   0.493   4.639
24418SOL     OW75150   6.572   1.615   7.793
24418SOL    HW175151   6.520   1.666   7.856
24418SOL    HW275152   6.559   1.524   7.819
24419SOL     OW75153   8.953   9.498  11.421
24419SOL    HW175154   8.878   9.438  11.423
24419SOL    HW275155   8.939   9.551  11.343
24420SOL     OW75156  11.711  10.646   0.314
24420SOL    HW175157  11.736  10.599   0.393
24420SOL    HW275158  11.620  10.622   0.299
24421SOL     OW75159   5.725  10.802   4.565
24421SOL    HW175160   5.669  10.731   4.597
24421SOL    HW275161   5.805  10.795   4.616
24422SOL     OW75162  13.060   4.324   4.515
24422SOL    HW175163  13.127   4.284   4.572
24422SOL    HW275164  13.085   4.298   4.427
24423SOL     OW75165   7.452   2.485  13.671
24423SOL    HW175166   7.546   2.474  13.686
24423SOL    HW275167   7.446   2.551  13.602
24424SOL     OW75168   7.062   0.304   9.021
24424SOL    HW175169   6.989   0.322   8.961
24424SOL    HW275170   7.043   0.359   9.098
24425SOL     OW75171   1.379  11.469   0.822
24425SOL    HW175172   1.368  11.559   0.791
24425SOL    HW275173   1.444  11.477   0.893
24426SOL     OW75174  13.726   8.852   8.481
24426SOL    HW175175  13.688   8.798   8.412
24426SOL    HW275176  13.670   8.930   8.484
24427SOL     OW75177   4.285   9.721  12.392
24427SOL    HW175178   4.281   9.757  12.480
24427SOL    HW275179   4.222   9.773  12.342
24428SOL     OW75180   8.292  11.484   5.752
24428SOL    HW175181   8.238  11.554   5.789
24428SOL    HW275182   8.294  11.501   5.658
24429SOL     OW75183  13.447   2.603  10.501
24429SOL    HW175184  13.418   2.690  10.475
24429SOL    HW275185  13.367   2.550  10.499
24430SOL     OW75186   3.661  11.363  11.211
24430SOL    HW175187   3.729  11.428  11.194
24430SOL    HW275188   3.586  11.394  11.161
24431SOL     OW75189   6.082  13.574   6.582
24431SOL    HW175190   6.139  13.552   6.508
24431SOL    HW275191   6.137  13.560   6.659
24432SOL     OW75192  12.184  13.741  14.356
24432SOL    HW175193  12.258  13.681  14.343
24432SOL    HW275194  12.215  13.804  14.421
24433SOL     OW75195   9.919   2.387  12.093
24433SOL    HW175196   9.938   2.475  12.125
24433SOL    HW275197   9.899   2.337  12.172
24434SOL     OW75198  14.037   8.483   7.795
24434SOL    HW175199  14.048   8.420   7.866
24434SOL    HW275200  13.998   8.433   7.723
24435SOL     OW75201   3.753  13.046  13.554
24435SOL    HW175202   3.670  13.026  13.510
24435SOL    HW275203   3.734  13.033  13.647
24436SOL     OW75204   7.495  12.124   6.676
24436SOL    HW175205   7.510  12.032   6.700
24436SOL    HW275206   7.400  12.132   6.671
24437SOL     OW75207   8.145   2.920  12.884
24437SOL    HW175208   8.229   2.874  12.885
24437SOL    HW275209   8.096   2.880  12.812
24438SOL     OW75210  10.149   8.465  11.420
24438SOL    HW175211  10.239   8.437  11.437
24438SOL    HW275212  10.102   8.384  11.401
24439SOL     OW75213   0.677   6.485   2.735
24439SOL    HW175214   0.616   6.491   2.809
24439SOL    HW275215   0.647   6.409   2.685
24440SOL     OW75216   5.559  14.039   4.441
24440SOL    HW175217   5.599  13.973   4.384
24440SOL    HW275218   5.603  14.028   4.525
24441SOL     OW75219   5.671   9.755   9.903
24441SOL    HW175220   5.733   9.804   9.850
24441SOL    HW275221   5.623   9.700   9.840
24442SOL     OW75222   3.818   1.180   2.062
24442SOL    HW175223   3.865   1.161   1.981
24442SOL    HW275224   3.852   1.265   2.090
24443SOL     OW75225   3.623  12.358  10.031
24443SOL    HW175226   3.692  12.337  10.095
24443SOL    HW275227   3.667  12.412   9.965
24444SOL     OW75228   5.892   9.203   5.684
24444SOL    HW175229   5.814   9.254   5.705
24444SOL    HW275230   5.927   9.245   5.605
24445SOL     OW75231   7.295   8.168   9.758
24445SOL    HW175232   7.303   8.220   9.678
24445SOL    HW275233   7.296   8.077   9.728
24446SOL     OW75234   0.862  10.192  12.783
24446SOL    HW175235   0.835  10.268  12.835
24446SOL    HW275236   0.809  10.198  12.704
24447SOL     OW75237   3.388   1.982   1.427
24447SOL    HW175238   3.313   1.924   1.439
24447SOL    HW275239   3.455   1.948   1.486
24448SOL     OW75240   0.341   3.123   8.539
24448SOL    HW175241   0.350   3.128   8.444
24448SOL    HW275242   0.431   3.120   8.571
24449SOL     OW75243   2.696   7.232   7.176
24449SOL    HW175244   2.621   7.274   7.216
24449SOL    HW275245   2.733   7.298   7.118
24450SOL     OW75246  13.707   6.222   4.231
24450SOL    HW175247  13.762   6.204   4.155
24450SOL    HW275248  13.618   6.202   4.200
24451SOL     OW75249   1.795  13.663  14.505
24451SOL    HW175250   1.838  13.610  14.439
24451SOL    HW275251   1.806  13.753  14.475
24452SOL     OW75252   0.141   8.803   2.027
24452SOL    HW175253   0.070   8.762   1.977
24452SOL    HW275254   0.195   8.847   1.961
24453SOL     OW75255  12.308   6.979   5.211
24453SOL    HW175256  12.397   6.974   5.244
24453SOL    HW275257  12.318   6.994   5.117
24454SOL     OW75258   0.801   2.806  12.436
24454SOL    HW175259   0.745   2.763  12.501
24454SOL    HW275260   0.784   2.899  12.448
24455SOL     OW75261   5.257   0.083  13.858
24455SOL    HW175262   5.338   0.106  13.904
24455SOL    HW275263   5.264  14.876  13.844
24456SOL     OW75264  12.440   3.472   0.414
24456SOL    HW175265  12.459   3.486   0.321
24456SOL    HW275266  12.418   3.379   0.421
24457SOL     OW75267   7.157  13.345  14.793
24457SOL    HW175268   7.153  13.440  14.787
24457SOL    HW275269   7.232  13.321  14.738
24458SOL     OW75270   1.147  12.202  12.550
24458SOL    HW175271   1.199  12.267  12.502
24458SOL    HW275272   1.073  12.183  12.492
24459SOL     OW75273   4.512  12.843   2.858
24459SOL    HW175274   4.570  12.815   2.928
24459SOL    HW275275   4.569  12.855   2.782
24460SOL     OW75276  12.823   6.821   8.045
24460SOL    HW175277  12.817   6.779   8.130
24460SOL    HW275278  12.900   6.877   8.050
24461SOL     OW75279   7.814   0.516  11.878
24461SOL    HW175280   7.721   0.505  11.861
24461SOL    HW275281   7.856   0.502  11.793
24462SOL     OW75282   8.669   1.803   4.582
24462SOL    HW175283   8.692   1.895   4.567
24462SOL    HW275284   8.634   1.801   4.671
24463SOL     OW75285   6.366   9.249   9.828
24463SOL    HW175286   6.339   9.328   9.876
24463SOL    HW275287   6.459   9.240   9.849
24464SOL     OW75288   6.072  12.495   0.751
24464SOL    HW175289   6.157  12.469   0.716
24464SOL    HW275290   6.091  12.568   0.809
24465SOL     OW75291   8.758   8.548   5.284
24465SOL    HW175292   8.776   8.636   5.249
24465SOL    HW275293   8.837   8.498   5.265
24466SOL     OW75294  12.511   0.156  14.198
24466SOL    HW175295  12.488   0.236  14.244
24466SOL    HW275296  12.597   0.132  14.233
24467SOL     OW75297  14.025   3.522   7.915
24467SOL    HW175298  14.030   3.607   7.871
24467SOL    HW275299  14.117   3.495   7.925
24468SOL     OW75300   2.721   2.500  11.485
24468SOL    HW175301   2.780   2.563  11.443
24468SOL    HW275302   2.661   2.472  11.415
24469SOL     OW75303   7.291   2.611   2.433
24469SOL    HW175304   7.378   2.648   2.452
24469SOL    HW275305   7.294   2.589   2.340
24470SOL     OW75306  10.449   7.263  11.825
24470SOL    HW175307  10.359   7.232  11.824
24470SOL    HW275308  10.485   7.236  11.740
24471SOL     OW75309   7.067   7.638  13.162
24471SOL    HW175310   7.074   7.733  13.159
24471SOL    HW275311   6.977   7.622  13.191
24472SOL     OW75312  10.105   0.129  10.224
24472SOL    HW175313  10.155   0.201  10.187
24472SOL    HW275314  10.144   0.050  10.186
24473SOL     OW75315   9.884   7.042  10.096
24473SOL    HW175316   9.960   7.066  10.043
24473SOL    HW275317   9.917   6.979  10.159
24474SOL     OW75318   4.727   4.916   7.062
24474SOL    HW175319   4.677   4.948   7.137
24474SOL    HW275320   4.796   4.862   7.101
24475SOL     OW75321   5.655   4.464  14.883
24475SOL    HW175322   5.620   4.536   0.049
24475SOL    HW275323   5.741   4.494  14.855
24476SOL     OW75324  13.205   2.763   1.154
24476SOL    HW175325  13.226   2.856   1.154
24476SOL    HW275326  13.192   2.741   1.062
24477SOL     OW75327  12.106  12.967   4.980
24477SOL    HW175328  12.069  12.944   5.065
24477SOL    HW275329  12.096  12.887   4.928
24478SOL     OW75330   2.319   3.932   0.638
24478SOL    HW175331   2.308   3.880   0.717
24478SOL    HW275332   2.306   3.870   0.566
24479SOL     OW75333   3.007   0.386   9.772
24479SOL    HW175334   2.981   0.454   9.834
24479SOL    HW275335   2.939   0.320   9.779
24480SOL     OW75336   9.017  13.790   7.095
24480SOL    HW175337   9.010  13.733   7.171
24480SOL    HW275338   9.063  13.867   7.127
24481SOL     OW75339   7.330   2.202  14.204
24481SOL    HW175340   7.258   2.235  14.258
24481SOL    HW275341   7.294   2.199  14.115
24482SOL     OW75342   7.316   7.294   0.061
24482SOL    HW175343   7.229   7.324   0.089
24482SOL    HW275344   7.377   7.342   0.117
24483SOL     OW75345  11.443   4.051  10.121
24483SOL    HW175346  11.367   3.993  10.131
24483SOL    HW275347  11.510   4.011  10.177
24484SOL     OW75348   4.040   8.455  11.788
24484SOL    HW175349   4.012   8.433  11.877
24484SOL    HW275350   3.966   8.503  11.751
24485SOL     OW75351   7.284  12.951  10.949
24485SOL    HW175352   7.237  12.874  10.918
24485SOL    HW275353   7.236  12.980  11.026
24486SOL     OW75354  13.162   8.713  13.216
24486SOL    HW175355  13.205   8.724  13.301
24486SOL    HW275356  13.071   8.690  13.238
24487SOL     OW75357  10.347  13.421   3.817
24487SOL    HW175358  10.407  13.356   3.780
24487SOL    HW275359  10.363  13.418   3.912
24488SOL     OW75360   5.571   4.293  14.466
24488SOL    HW175361   5.524   4.285  14.384
24488SOL    HW275362   5.581   4.203  14.497
24489SOL     OW75363   4.722   4.665  12.621
24489SOL    HW175364   4.804   4.633  12.585
24489SOL    HW275365   4.689   4.594  12.675
24490SOL     OW75366   2.024   0.101   8.558
24490SOL    HW175367   2.104   0.139   8.593
24490SOL    HW275368   2.037   0.006   8.567
24491SOL     OW75369   8.990  11.306   0.132
24491SOL    HW175370   8.901  11.317   0.098
24491SOL    HW275371   9.036  11.260   0.062
24492SOL     OW75372   6.442  10.085  12.330
24492SOL    HW175373   6.439  10.145  12.404
24492SOL    HW275374   6.350  10.061  12.314
24493SOL     OW75375   2.306  11.452   5.088
24493SOL    HW175376   2.382  11.439   5.146
24493SOL    HW275377   2.244  11.385   5.115
24494SOL     OW75378   0.246   9.488   5.597
24494SOL    HW175379   0.283   9.521   5.515
24494SOL    HW275380   0.185   9.419   5.571
24495SOL     OW75381  13.015  11.793  14.012
24495SOL    HW175382  13.063  11.712  13.993
24495SOL    HW275383  12.960  11.770  14.088
24496SOL     OW75384   8.410   5.204   8.636
24496SOL    HW175385   8.324   5.162   8.645
24496SOL    HW275386   8.438   5.184   8.547
24497SOL     OW75387   0.508   8.548   0.116
24497SOL    HW175388   0.522   8.613   0.047
24497SOL    HW275389   0.444   8.487   0.079
24498SOL     OW75390   4.130   0.578   4.521
24498SOL    HW175391   4.209   0.600   4.570
24498SOL    HW275392   4.082   0.517   4.578
24499SOL     OW75393  10.703   7.208  12.420
24499SOL    HW175394  10.770   7.276  12.403
24499SOL    HW275395  10.666   7.232  12.505
24500SOL     OW75396   2.786   6.723  12.948
24500SOL    HW175397   2.808   6.631  12.934
24500SOL    HW275398   2.869   6.764  12.973
24501SOL     OW75399   3.582   6.789   3.136
24501SOL    HW175400   3.638   6.721   3.098
24501SOL    HW275401   3.505   6.741   3.167
24502SOL     OW75402   7.132   3.502  11.711
24502SOL    HW175403   7.188   3.506  11.788
24502SOL    HW275404   7.169   3.566  11.651
24503SOL     OW75405  10.622   1.675   1.346
24503SOL    HW175406  10.529   1.669   1.366
24503SOL    HW275407  10.661   1.597   1.385
24504SOL     OW75408   5.885   3.185  10.572
24504SOL    HW175409   5.846   3.168  10.486
24504SOL    HW275410   5.939   3.263  10.558
24505SOL     OW75411   8.587  12.998   4.711
24505SOL    HW175412   8.522  12.933   4.685
24505SOL    HW275413   8.671  12.961   4.684
24506SOL     OW75414  12.319   8.389   2.888
24506SOL    HW175415  12.278   8.457   2.941
24506SOL    HW275416  12.331   8.316   2.950
24507SOL     OW75417  12.815  12.352   0.750
24507SOL    HW175418  12.825  12.279   0.811
24507SOL    HW275419  12.905  12.372   0.722
24508SOL     OW75420   1.161   3.569  12.831
24508SOL    HW175421   1.209   3.630  12.776
24508SOL    HW275422   1.115   3.624  12.895
24509SOL     OW75423   5.855   7.372   0.353
24509SOL    HW175424   5.916   7.341   0.286
24509SOL    HW275425   5.836   7.463   0.328
24510SOL     OW75426   5.586   7.566   1.487
24510SOL    HW175427   5.541   7.545   1.569
24510SOL    HW275428   5.516   7.595   1.428
24511SOL     OW75429   9.496   1.196  11.944
24511SOL    HW175430   9.557   1.227  12.011
24511SOL    HW275431   9.414   1.180  11.991
24512SOL     OW75432   3.413   6.171   4.434
24512SOL    HW175433   3.373   6.258   4.435
24512SOL    HW275434   3.446   6.157   4.523
24513SOL     OW75435   7.536   2.849   0.294
24513SOL    HW175436   7.580   2.809   0.369
24513SOL    HW275437   7.578   2.809   0.218
24514SOL     OW75438   9.317  13.252   6.249
24514SOL    HW175439   9.221  13.259   6.255
24514SOL    HW275440   9.344  13.334   6.209
24515SOL     OW75441  10.304  14.821   4.484
24515SOL    HW175442  10.303   0.010   4.426
24515SOL    HW275443  10.357  14.756   4.437
24516SOL     OW75444  13.293   8.977   9.687
24516SOL    HW175445  13.268   8.934   9.768
24516SOL    HW275446  13.389   8.973   9.686
24517SOL     OW75447  13.445   1.226  12.105
24517SOL    HW175448  13.424   1.252  12.015
24517SOL    HW275449  13.410   1.137  12.113
24518SOL     OW75450   7.450   0.353   8.866
24518SOL    HW175451   7.501   0.281   8.903
24518SOL    HW275452   7.426   0.407   8.941
24519SOL     OW75453   7.066   4.968  12.193
24519SOL    HW175454   7.052   5.058  12.163
24519SOL    HW275455   6.989   4.920  12.163
24520SOL     OW75456  10.196   4.054   2.765
24520SOL    HW175457  10.163   4.131   2.720
24520SOL    HW275458  10.223   3.995   2.694
24521SOL     OW75459   9.809   0.868   2.380
24521SOL    HW175460   9.850   0.787   2.408
24521SOL    HW275461   9.877   0.913   2.330
24522SOL     OW75462   4.422  14.843   1.537
24522SOL    HW175463   4.416  14.747   1.537
24522SOL    HW275464   4.389  14.869   1.451
24523SOL     OW75465  12.405   9.492  11.909
24523SOL    HW175466  12.327   9.542  11.883
24523SOL    HW275467  12.372   9.405  11.928
24524SOL     OW75468  10.839   2.782   3.243
24524SOL    HW175469  10.887   2.862   3.222
24524SOL    HW275470  10.880   2.715   3.188
24525SOL     OW75471   4.966   9.638   9.185
24525SOL    HW175472   4.938   9.658   9.095
24525SOL    HW275473   4.932   9.711   9.237
24526SOL     OW75474  11.906  13.801   1.443
24526SOL    HW175475  11.811  13.797   1.443
24526SOL    HW275476  11.933  13.710   1.429
24527SOL     OW75477   2.495   9.969  11.276
24527SOL    HW175478   2.522  10.060  11.290
24527SOL    HW275479   2.420   9.975  11.217
24528SOL     OW75480  11.321   3.081  13.387
24528SOL    HW175481  11.349   3.172  13.377
24528SOL    HW275482  11.226   3.086  13.396
24529SOL     OW75483  12.896  13.325   6.165
24529SOL    HW175484  12.859  13.343   6.078
24529SOL    HW275485  12.883  13.406   6.214
24530SOL     OW75486   1.194   4.524  11.254
24530SOL    HW175487   1.253   4.476  11.312
24530SOL    HW275488   1.141   4.455  11.212
24531SOL     OW75489   4.648   0.444   5.166
24531SOL    HW175490   4.649   0.514   5.231
24531SOL    HW275491   4.730   0.397   5.182
24532SOL     OW75492   5.203  13.742  11.207
24532SOL    HW175493   5.291  13.704  11.206
24532SOL    HW275494   5.182  13.753  11.300
24533SOL     OW75495  12.523   2.177   0.787
24533SOL    HW175496  12.493   2.095   0.828
24533SOL    HW275497  12.615   2.183   0.811
24534SOL     OW75498   2.486   9.269   3.387
24534SOL    HW175499   2.573   9.307   3.398
24534SOL    HW275500   2.477   9.207   3.460
24535SOL     OW75501   2.207   6.537  13.455
24535SOL    HW175502   2.260   6.613  13.479
24535SOL    HW275503   2.138   6.573  13.399
24536SOL     OW75504   5.987   8.202  12.064
24536SOL    HW175505   6.055   8.254  12.021
24536SOL    HW275506   6.024   8.181  12.150
24537SOL     OW75507   3.351   9.796  13.380
24537SOL    HW175508   3.361   9.786  13.286
24537SOL    HW275509   3.441   9.796  13.415
24538SOL     OW75510  13.512   6.762   5.161
24538SOL    HW175511  13.547   6.849   5.140
24538SOL    HW275512  13.590   6.708   5.175
24539SOL     OW75513   4.004  14.363   1.738
24539SOL    HW175514   4.008  14.268   1.742
24539SOL    HW275515   3.969  14.390   1.823
24540SOL     OW75516   0.925   9.519   0.774
24540SOL    HW175517   1.012   9.480   0.781
24540SOL    HW275518   0.876   9.457   0.720
24541SOL     OW75519   2.201  10.162   0.913
24541SOL    HW175520   2.258  10.137   0.841
24541SOL    HW275521   2.192  10.082   0.966
24542SOL     OW75522   4.967  13.628   6.073
24542SOL    HW175523   5.004  13.598   5.990
24542SOL    HW275524   4.921  13.709   6.052
24543SOL     OW75525  13.670   6.997   4.523
24543SOL    HW175526  13.582   7.033   4.513
24543SOL    HW275527  13.655   6.904   4.544
24544SOL     OW75528  13.525  14.249   6.629
24544SOL    HW175529  13.580  14.222   6.702
24544SOL    HW275530  13.568  14.211   6.552
24545SOL     OW75531  10.228  12.992  11.795
24545SOL    HW175532  10.169  12.985  11.870
24545SOL    HW275533  10.309  12.951  11.825
24546SOL     OW75534   3.962  11.366   6.237
24546SOL    HW175535   3.883  11.379   6.185
24546SOL    HW275536   4.033  11.364   6.172
24547SOL     OW75537  10.643   7.723  12.619
24547SOL    HW175538  10.564   7.669  12.612
24547SOL    HW275539  10.620   7.789  12.684
24548SOL     OW75540   6.570   0.272   2.209
24548SOL    HW175541   6.623   0.302   2.283
24548SOL    HW275542   6.617   0.196   2.175
24549SOL     OW75543   8.297   0.267   7.149
24549SOL    HW175544   8.229   0.324   7.184
24549SOL    HW275545   8.304   0.291   7.056
24550SOL     OW75546  13.860   2.995   4.315
24550SOL    HW175547  13.812   2.970   4.394
24550SOL    HW275548  13.792   3.013   4.250
24551SOL     OW75549   3.275   8.339   4.114
24551SOL    HW175550   3.268   8.246   4.132
24551SOL    HW275551   3.351   8.368   4.165
24552SOL     OW75552   4.671   5.340   6.482
24552SOL    HW175553   4.688   5.348   6.388
24552SOL    HW275554   4.673   5.430   6.514
24553SOL     OW75555  13.557  12.447   2.496
24553SOL    HW175556  13.534  12.363   2.455
24553SOL    HW275557  13.645  12.465   2.465
24554SOL     OW75558   5.058  10.782   0.955
24554SOL    HW175559   5.014  10.799   1.039
24554SOL    HW275560   5.147  10.758   0.979
24555SOL     OW75561   5.546  10.851  10.370
24555SOL    HW175562   5.598  10.778  10.403
24555SOL    HW275563   5.545  10.839  10.275
24556SOL     OW75564  13.396   6.401   3.922
24556SOL    HW175565  13.345   6.326   3.891
24556SOL    HW275566  13.360   6.476   3.874
24557SOL     OW75567   8.606   6.382  10.885
24557SOL    HW175568   8.682   6.397  10.829
24557SOL    HW275569   8.532   6.380  10.824
24558SOL     OW75570   9.151  14.476  11.443
24558SOL    HW175571   9.060  14.503  11.436
24558SOL    HW275572   9.148  14.380  11.440
24559SOL     OW75573   4.572   9.917  14.047
24559SOL    HW175574   4.588  10.011  14.052
24559SOL    HW275575   4.657   9.879  14.024
24560SOL     OW75576   0.664  12.576   9.734
24560SOL    HW175577   0.626  12.636   9.670
24560SOL    HW275578   0.747  12.616   9.759
24561SOL     OW75579   6.924   1.162   3.048
24561SOL    HW175580   6.931   1.183   3.142
24561SOL    HW275581   6.898   1.245   3.007
24562SOL     OW75582   3.014   0.360   2.342
24562SOL    HW175583   3.046   0.344   2.431
24562SOL    HW275584   2.924   0.330   2.343
24563SOL     OW75585   4.092   2.420  13.075
24563SOL    HW175586   4.145   2.362  13.130
24563SOL    HW275587   4.119   2.508  13.100
24564SOL     OW75588   8.232   7.626  13.062
24564SOL    HW175589   8.214   7.684  13.136
24564SOL    HW275590   8.214   7.679  12.984
24565SOL     OW75591   1.175  10.477   0.407
24565SOL    HW175592   1.127  10.398   0.431
24565SOL    HW275593   1.232  10.495   0.482
24566SOL     OW75594   1.082   1.643   0.154
24566SOL    HW175595   1.017   1.576   0.136
24566SOL    HW275596   1.081   1.652   0.249
24567SOL     OW75597   9.365   1.779   2.132
24567SOL    HW175598   9.417   1.699   2.122
24567SOL    HW275599   9.393   1.816   2.215
24568SOL     OW75600   3.923   5.753  14.801
24568SOL    HW175601   4.013   5.765  14.770
24568SOL    HW275602   3.913   5.659  14.809
24569SOL     OW75603   9.116   8.061   6.960
24569SOL    HW175604   9.095   8.101   6.876
24569SOL    HW275605   9.163   8.129   7.009
24570SOL     OW75606   3.011   4.105   7.227
24570SOL    HW175607   2.966   4.044   7.169
24570SOL    HW275608   2.949   4.176   7.241
24571SOL     OW75609   1.963   9.697   6.172
24571SOL    HW175610   1.999   9.643   6.241
24571SOL    HW275611   1.880   9.655   6.149
24572SOL     OW75612   7.212   9.111  13.248
24572SOL    HW175613   7.135   9.072  13.207
24572SOL    HW275614   7.219   9.198  13.208
24573SOL     OW75615   4.605  14.401   1.932
24573SOL    HW175616   4.645  14.482   1.965
24573SOL    HW275617   4.518  14.427   1.903
24574SOL     OW75618  10.922  12.861   8.031
24574SOL    HW175619  10.847  12.916   8.055
24574SOL    HW275620  10.888  12.804   7.962
24575SOL     OW75621  11.460   9.669   0.528
24575SOL    HW175622  11.475   9.698   0.438
24575SOL    HW275623  11.548   9.659   0.565
24576SOL     OW75624   0.511   9.607  10.277
24576SOL    HW175625   0.536   9.692  10.241
24576SOL    HW275626   0.534   9.544  10.209
24577SOL     OW75627  12.009   6.113  12.710
24577SOL    HW175628  12.041   6.055  12.779
24577SOL    HW275629  12.066   6.094  12.635
24578SOL     OW75630   6.521   1.577   9.402
24578SOL    HW175631   6.543   1.645   9.339
24578SOL    HW275632   6.597   1.519   9.402
24579SOL     OW75633   1.270   2.018  12.101
24579SOL    HW175634   1.264   2.091  12.039
24579SOL    HW275635   1.362   1.990  12.094
24580SOL     OW75636   4.085   3.099  10.574
24580SOL    HW175637   4.136   3.089  10.494
24580SOL    HW275638   4.120   3.179  10.614
24581SOL     OW75639   4.291   1.744   1.534
24581SOL    HW175640   4.226   1.809   1.507
24581SOL    HW275641   4.370   1.794   1.549
24582SOL     OW75642  12.521   5.202  10.889
24582SOL    HW175643  12.466   5.265  10.843
24582SOL    HW275644  12.538   5.133  10.824
24583SOL     OW75645   6.720   5.178   7.667
24583SOL    HW175646   6.716   5.214   7.756
24583SOL    HW275647   6.809   5.195   7.638
24584SOL     OW75648   9.261   2.390   7.963
24584SOL    HW175649   9.226   2.302   7.975
24584SOL    HW275650   9.280   2.421   8.052
24585SOL     OW75651  14.517   2.942  14.384
24585SOL    HW175652  14.433   2.954  14.428
24585SOL    HW275653  14.500   2.966  14.293
24586SOL     OW75654   6.875  10.840   0.335
24586SOL    HW175655   6.796  10.821   0.284
24586SOL    HW275656   6.931  10.763   0.322
24587SOL     OW75657   7.643  13.357   1.174
24587SOL    HW175658   7.670  13.324   1.260
24587SOL    HW275659   7.620  13.278   1.125
24588SOL     OW75660  11.379   0.714   8.263
24588SOL    HW175661  11.325   0.639   8.287
24588SOL    HW275662  11.357   0.732   8.171
24589SOL     OW75663  11.951   6.099   4.024
24589SOL    HW175664  11.903   6.047   4.088
24589SOL    HW275665  12.000   6.034   3.973
24590SOL     OW75666  11.381  13.276   3.024
24590SOL    HW175667  11.456  13.293   2.967
24590SOL    HW275668  11.397  13.189   3.060
24591SOL     OW75669  13.121   9.659   1.366
24591SOL    HW175670  13.026   9.671   1.364
24591SOL    HW275671  13.138   9.585   1.307
24592SOL     OW75672   9.958  13.133   0.722
24592SOL    HW175673   9.994  13.222   0.729
24592SOL    HW275674  10.035  13.076   0.722
24593SOL     OW75675   5.081  12.379  10.115
24593SOL    HW175676   5.028  12.445  10.071
24593SOL    HW275677   5.059  12.297  10.070
24594SOL     OW75678   5.087   6.012   5.068
24594SOL    HW175679   5.058   6.007   4.977
24594SOL    HW275680   5.176   5.975   5.067
24595SOL     OW75681  10.215  10.939  11.441
24595SOL    HW175682  10.141  10.899  11.487
24595SOL    HW275683  10.282  10.870  11.438
24596SOL     OW75684   5.641   5.623   8.439
24596SOL    HW175685   5.659   5.713   8.412
24596SOL    HW275686   5.727   5.582   8.446
24597SOL     OW75687  14.852   7.527  12.545
24597SOL    HW175688  14.808   7.493  12.467
24597SOL    HW275689   0.043   7.571  12.512
24598SOL     OW75690   9.767   2.290   5.872
24598SOL    HW175691   9.811   2.247   5.798
24598SOL    HW275692   9.776   2.228   5.944
24599SOL     OW75693   8.146   5.744   5.174
24599SOL    HW175694   8.147   5.807   5.246
24599SOL    HW275695   8.215   5.682   5.196
24600SOL     OW75696   7.451   8.150   9.325
24600SOL    HW175697   7.404   8.223   9.366
24600SOL    HW275698   7.478   8.095   9.399
24601SOL     OW75699  11.784  11.943   8.734
24601SOL    HW175700  11.813  11.970   8.646
24601SOL    HW275701  11.775  11.848   8.728
24602SOL     OW75702   9.783   1.161  11.410
24602SOL    HW175703   9.828   1.238  11.375
24602SOL    HW275704   9.696   1.164  11.371
24603SOL     OW75705  10.800  11.198  14.865
24603SOL    HW175706  10.725  11.153  14.826
24603SOL    HW275707  10.774  11.215   0.068
24604SOL     OW75708   7.152  13.187  13.984
24604SOL    HW175709   7.229  13.196  13.927
24604SOL    HW275710   7.085  13.151  13.927
24605SOL     OW75711   9.366   9.721  11.203
24605SOL    HW175712   9.305   9.747  11.135
24605SOL    HW275713   9.355   9.626  11.210
24606SOL     OW75714  14.389   2.436   7.620
24606SOL    HW175715  14.464   2.496   7.613
24606SOL    HW275716  14.353   2.434   7.532
24607SOL     OW75717   6.407   8.864   0.610
24607SOL    HW175718   6.331   8.914   0.580
24607SOL    HW275719   6.428   8.805   0.538
24608SOL     OW75720  12.740   7.880   5.490
24608SOL    HW175721  12.733   7.946   5.421
24608SOL    HW275722  12.682   7.912   5.559
24609SOL     OW75723   6.363   7.132   0.242
24609SOL    HW175724   6.415   7.211   0.254
24609SOL    HW275725   6.330   7.139   0.153
24610SOL     OW75726  11.430  10.549   3.087
24610SOL    HW175727  11.358  10.560   3.026
24610SOL    HW275728  11.419  10.619   3.151
24611SOL     OW75729   5.967   7.801   5.237
24611SOL    HW175730   5.894   7.857   5.264
24611SOL    HW275731   5.947   7.715   5.273
24612SOL     OW75732  14.666   1.670  12.671
24612SOL    HW175733  14.605   1.728  12.717
24612SOL    HW275734  14.748   1.678  12.719
24613SOL     OW75735   9.183  14.517   6.345
24613SOL    HW175736   9.096  14.475   6.349
24613SOL    HW275737   9.217  14.491   6.259
24614SOL     OW75738   3.878   1.213   8.558
24614SOL    HW175739   3.847   1.132   8.517
24614SOL    HW275740   3.834   1.283   8.510
24615SOL     OW75741   1.781  10.267   4.444
24615SOL    HW175742   1.815  10.241   4.358
24615SOL    HW275743   1.702  10.216   4.455
24616SOL     OW75744   6.580   2.723   4.827
24616SOL    HW175745   6.656   2.666   4.818
24616SOL    HW275746   6.616   2.808   4.852
24617SOL     OW75747  10.648  13.155   3.279
24617SOL    HW175748  10.582  13.086   3.291
24617SOL    HW275749  10.672  13.150   3.187
24618SOL     OW75750  14.086   3.259   8.630
24618SOL    HW175751  14.051   3.302   8.708
24618SOL    HW275752  14.021   3.192   8.609
24619SOL     OW75753   2.739   9.578   5.978
24619SOL    HW175754   2.662   9.528   6.002
24619SOL    HW275755   2.743   9.649   6.042
24620SOL     OW75756   9.405   9.310   9.820
24620SOL    HW175757   9.486   9.311   9.873
24620SOL    HW275758   9.338   9.277   9.880
24621SOL     OW75759   6.816   3.577  11.185
24621SOL    HW175760   6.900   3.622  11.198
24621SOL    HW275761   6.826   3.532  11.101
24622SOL     OW75762   4.458   7.943   9.300
24622SOL    HW175763   4.399   7.873   9.272
24622SOL    HW275764   4.525   7.946   9.232
24623SOL     OW75765  13.645   4.824   9.551
24623SOL    HW175766  13.587   4.889   9.591
24623SOL    HW275767  13.630   4.744   9.601
24624SOL     OW75768   8.788   6.580   3.096
24624SOL    HW175769   8.796   6.614   3.185
24624SOL    HW275770   8.867   6.610   3.051
24625SOL     OW75771   3.704  10.705   5.989
24625SOL    HW175772   3.794  10.680   6.008
24625SOL    HW275773   3.690  10.786   6.039
24626SOL     OW75774   7.966  10.432   2.952
24626SOL    HW175775   7.969  10.344   2.914
24626SOL    HW275776   8.038  10.479   2.911
24627SOL     OW75777  14.483  13.532  11.698
24627SOL    HW175778  14.536  13.573  11.630
24627SOL    HW275779  14.547  13.488  11.755
24628SOL     OW75780   1.920  13.812  12.552
24628SOL    HW175781   1.956  13.866  12.623
24628SOL    HW275782   1.836  13.783  12.585
24629SOL     OW75783   4.902   9.901   4.298
24629SOL    HW175784   4.941   9.973   4.348
24629SOL    HW275785   4.900   9.932   4.208
24630SOL     OW75786  10.328   6.345   4.500
24630SOL    HW175787  10.255   6.403   4.522
24630SOL    HW275788  10.297   6.258   4.527
24631SOL     OW75789   0.116   3.589   7.528
24631SOL    HW175790   0.072   3.584   7.613
24631SOL    HW275791   0.149   3.501   7.512
24632SOL     OW75792  10.495   5.359   2.380
24632SOL    HW175793  10.552   5.283   2.369
24632SOL    HW275794  10.541   5.431   2.338
24633SOL     OW75795  14.767   3.042   8.595
24633SOL    HW175796  14.710   3.091   8.535
24633SOL    HW275797  14.743   2.951   8.580
24634SOL     OW75798  13.629  14.544  14.037
24634SOL    HW175799  13.691  14.536  14.110
24634SOL    HW275800  13.575  14.466  14.042
24635SOL     OW75801   8.833   1.340   7.832
24635SOL    HW175802   8.866   1.393   7.905
24635SOL    HW275803   8.775   1.399   7.784
24636SOL     OW75804   0.916   9.190  10.008
24636SOL    HW175805   0.918   9.178  10.103
24636SOL    HW275806   0.857   9.122   9.976
24637SOL     OW75807   5.353  11.248   6.538
24637SOL    HW175808   5.284  11.183   6.549
24637SOL    HW275809   5.309  11.332   6.545
24638SOL     OW75810  11.624   5.968   4.617
24638SOL    HW175811  11.574   5.887   4.626
24638SOL    HW275812  11.697   5.957   4.678
24639SOL     OW75813  11.880   7.076  12.473
24639SOL    HW175814  11.866   7.063  12.567
24639SOL    HW275815  11.815   7.142  12.448
24640SOL     OW75816   3.258  12.229  12.365
24640SOL    HW175817   3.315  12.186  12.302
24640SOL    HW275818   3.241  12.315  12.327
24641SOL     OW75819   3.674   7.957  13.200
24641SOL    HW175820   3.648   8.021  13.133
24641SOL    HW275821   3.661   8.002  13.283
24642SOL     OW75822   0.973   5.395   4.509
24642SOL    HW175823   0.953   5.305   4.536
24642SOL    HW275824   0.932   5.404   4.423
24643SOL     OW75825  12.946   2.195  14.794
24643SOL    HW175826  12.959   2.114  14.844
24643SOL    HW275827  12.868   2.235  14.833
24644SOL     OW75828   6.507   6.608  10.566
24644SOL    HW175829   6.437   6.614  10.630
24644SOL    HW275830   6.580   6.567  10.614
24645SOL     OW75831  14.168   5.929   7.416
24645SOL    HW175832  14.220   6.001   7.382
24645SOL    HW275833  14.232   5.862   7.440
24646SOL     OW75834   5.808  14.221   0.394
24646SOL    HW175835   5.727  14.224   0.343
24646SOL    HW275836   5.876  14.203   0.330
24647SOL     OW75837   0.249   3.840  10.959
24647SOL    HW175838   0.319   3.859  11.021
24647SOL    HW275839   0.175   3.813  11.013
24648SOL     OW75840   2.282   9.750   8.245
24648SOL    HW175841   2.372   9.776   8.265
24648SOL    HW275842   2.239   9.831   8.218
24649SOL     OW75843   8.113  11.860   0.518
24649SOL    HW175844   8.132  11.891   0.429
24649SOL    HW275845   8.076  11.773   0.506
24650SOL     OW75846   4.914   2.108  14.827
24650SOL    HW175847   4.881   2.092   0.028
24650SOL    HW275848   4.981   2.042  14.814
24651SOL     OW75849   6.820   5.189  13.524
24651SOL    HW175850   6.778   5.186  13.438
24651SOL    HW275851   6.887   5.256  13.516
24652SOL     OW75852   5.749  13.816   8.859
24652SOL    HW175853   5.832  13.838   8.817
24652SOL    HW275854   5.708  13.752   8.800
24653SOL     OW75855   6.260  13.365   4.774
24653SOL    HW175856   6.335  13.319   4.812
24653SOL    HW275857   6.251  13.444   4.827
24654SOL     OW75858  14.095   4.797  13.856
24654SOL    HW175859  14.082   4.718  13.802
24654SOL    HW275860  14.014   4.805  13.906
24655SOL     OW75861   0.017   2.952   6.094
24655SOL    HW175862   0.001   2.993   6.009
24655SOL    HW275863  14.817   2.929   6.126
24656SOL     OW75864   9.728  12.256  13.792
24656SOL    HW175865   9.768  12.332  13.834
24656SOL    HW275866   9.736  12.185  13.856
24657SOL     OW75867   7.302  11.066   5.442
24657SOL    HW175868   7.221  11.100   5.479
24657SOL    HW275869   7.321  11.123   5.368
24658SOL     OW75870  13.489   7.205   2.054
24658SOL    HW175871  13.540   7.160   1.987
24658SOL    HW275872  13.409   7.152   2.064
24659SOL     OW75873   5.456   6.275   4.584
24659SOL    HW175874   5.447   6.343   4.518
24659SOL    HW275875   5.523   6.216   4.550
24660SOL     OW75876   4.279  12.029   3.358
24660SOL    HW175877   4.331  11.952   3.381
24660SOL    HW275878   4.334  12.103   3.385
24661SOL     OW75879  14.335   2.249  10.162
24661SOL    HW175880  14.420   2.269  10.125
24661SOL    HW275881  14.323   2.156  10.147
24662SOL     OW75882   4.107   2.236  10.353
24662SOL    HW175883   4.112   2.161  10.413
24662SOL    HW275884   4.196   2.272  10.354
24663SOL     OW75885   8.601   7.577  11.354
24663SOL    HW175886   8.693   7.555  11.339
24663SOL    HW275887   8.576   7.628  11.277
24664SOL     OW75888  10.678   0.819   1.966
24664SOL    HW175889  10.764   0.813   2.006
24664SOL    HW275890  10.665   0.735   1.922
24665SOL     OW75891  11.884   2.160   9.785
24665SOL    HW175892  11.941   2.170   9.861
24665SOL    HW275893  11.899   2.240   9.734
24666SOL     OW75894  14.215  14.791   3.802
24666SOL    HW175895  14.289  14.747   3.760
24666SOL    HW275896  14.138  14.741   3.775
24667SOL     OW75897   3.074  10.066   0.923
24667SOL    HW175898   3.061  10.009   0.998
24667SOL    HW275899   3.164  10.097   0.931
24668SOL     OW75900  11.285   4.464   4.403
24668SOL    HW175901  11.255   4.403   4.336
24668SOL    HW275902  11.214   4.465   4.467
24669SOL     OW75903   8.978   4.553   0.297
24669SOL    HW175904   8.940   4.467   0.309
24669SOL    HW275905   8.965   4.598   0.381
24670SOL     OW75906   6.821   7.696   9.942
24670SOL    HW175907   6.849   7.668  10.029
24670SOL    HW275908   6.790   7.615   9.900
24671SOL     OW75909   8.452   1.366   7.292
24671SOL    HW175910   8.359   1.349   7.311
24671SOL    HW275911   8.494   1.281   7.301
24672SOL     OW75912   9.957   0.684   8.468
24672SOL    HW175913   9.906   0.737   8.406
24672SOL    HW275914   9.891   0.629   8.511
24673SOL     OW75915  13.003   2.318  10.620
24673SOL    HW175916  12.931   2.256  10.632
24673SOL    HW275917  13.021   2.351  10.709
24674SOL     OW75918   9.541   6.189   5.129
24674SOL    HW175919   9.500   6.140   5.200
24674SOL    HW275920   9.604   6.128   5.091
24675SOL     OW75921  11.329   6.438   9.264
24675SOL    HW175922  11.307   6.356   9.220
24675SOL    HW275923  11.262   6.500   9.234
24676SOL     OW75924   8.659  12.146   0.225
24676SOL    HW175925   8.750  12.170   0.240
24676SOL    HW275926   8.636  12.090   0.299
24677SOL     OW75927   1.151   0.043   1.330
24677SOL    HW175928   1.182   0.130   1.355
24677SOL    HW275929   1.061   0.058   1.299
24678SOL     OW75930  13.470  13.618  12.287
24678SOL    HW175931  13.557  13.637  12.254
24678SOL    HW275932  13.454  13.684  12.354
24679SOL     OW75933  13.765  12.622  13.577
24679SOL    HW175934  13.802  12.544  13.618
24679SOL    HW275935  13.838  12.660  13.527
24680SOL     OW75936   8.092  12.846   7.179
24680SOL    HW175937   8.071  12.753   7.191
24680SOL    HW275938   8.067  12.888   7.261
24681SOL     OW75939   9.991   9.327   9.446
24681SOL    HW175940   9.981   9.298   9.355
24681SOL    HW275941  10.038   9.256   9.489
24682SOL     OW75942   9.183  11.474   5.648
24682SOL    HW175943   9.265  11.424   5.649
24682SOL    HW275944   9.180  11.516   5.734
24683SOL     OW75945   7.658  14.514  14.288
24683SOL    HW175946   7.576  14.543  14.328
24683SOL    HW275947   7.716  14.499  14.363
24684SOL     OW75948   5.113  10.531   1.616
24684SOL    HW175949   5.209  10.536   1.611
24684SOL    HW275950   5.083  10.615   1.580
24685SOL     OW75951  11.629   7.004  10.349
24685SOL    HW175952  11.690   6.939  10.315
24685SOL    HW275953  11.684   7.066  10.397
24686SOL     OW75954   6.318  10.564   3.151
24686SOL    HW175955   6.270  10.505   3.209
24686SOL    HW275956   6.331  10.643   3.202
24687SOL     OW75957   3.350  14.328   6.286
24687SOL    HW175958   3.299  14.354   6.363
24687SOL    HW275959   3.365  14.409   6.239
24688SOL     OW75960   5.955  12.738   5.858
24688SOL    HW175961   5.919  12.740   5.946
24688SOL    HW275962   6.036  12.788   5.863
24689SOL     OW75963  10.292   8.091   5.861
24689SOL    HW175964  10.254   8.031   5.796
24689SOL    HW275965  10.379   8.110   5.828
24690SOL     OW75966   6.788   4.927  13.277
24690SOL    HW175967   6.840   5.006  13.288
24690SOL    HW275968   6.698   4.958  13.272
24691SOL     OW75969  14.522   4.040  10.259
24691SOL    HW175970  14.590   4.059  10.322
24691SOL    HW275971  14.514   3.944  10.259
24692SOL     OW75972  11.077   9.456  10.257
24692SOL    HW175973  11.168   9.434  10.274
24692SOL    HW275974  11.079   9.515  10.181
24693SOL     OW75975   5.608   9.067   7.498
24693SOL    HW175976   5.546   9.006   7.538
24693SOL    HW275977   5.577   9.154   7.523
24694SOL     OW75978   0.603  11.688   5.440
24694SOL    HW175979   0.545  11.756   5.405
24694SOL    HW275980   0.594  11.615   5.378
24695SOL     OW75981   2.140  14.847   4.031
24695SOL    HW175982   2.160  14.757   4.006
24695SOL    HW275983   2.219   0.009   4.009
24696SOL     OW75984   3.064   2.726   8.360
24696SOL    HW175985   3.064   2.754   8.269
24696SOL    HW275986   3.090   2.634   8.358
24697SOL     OW75987   0.952   6.472   3.909
24697SOL    HW175988   0.893   6.413   3.956
24697SOL    HW275989   1.008   6.413   3.858
24698SOL     OW75990   2.783   3.956   0.936
24698SOL    HW175991   2.811   4.015   0.867
24698SOL    HW275992   2.813   3.870   0.908
24699SOL     OW75993   5.279   5.209   8.142
24699SOL    HW175994   5.198   5.190   8.188
24699SOL    HW275995   5.347   5.163   8.191
24700SOL     OW75996   5.612  11.233   0.992
24700SOL    HW175997   5.698  11.256   0.958
24700SOL    HW275998   5.551  11.281   0.936
24701SOL     OW75999   9.382  12.056   0.454
24701SOL    HW176000   9.446  11.998   0.497
24701SOL    HW276001   9.390  12.034   0.361
24702SOL     OW76002   7.185   5.136   9.031
24702SOL    HW176003   7.101   5.091   9.041
24702SOL    HW276004   7.241   5.071   8.989
24703SOL     OW76005  14.084   5.526  11.619
24703SOL    HW176006  14.168   5.506  11.662
24703SOL    HW276007  14.025   5.545  11.692
24704SOL     OW76008   9.917  10.179   6.625
24704SOL    HW176009   9.872  10.096   6.612
24704SOL    HW276010   9.860  10.244   6.584
24705SOL     OW76011   7.947   7.701   5.583
24705SOL    HW176012   7.977   7.759   5.514
24705SOL    HW276013   7.909   7.759   5.649
24706SOL     OW76014   8.056   0.986   5.187
24706SOL    HW176015   8.073   0.925   5.259
24706SOL    HW276016   8.080   0.937   5.108
24707SOL     OW76017   2.643   3.774  14.189
24707SOL    HW176018   2.621   3.687  14.156
24707SOL    HW276019   2.573   3.794  14.252
24708SOL     OW76020   6.173   4.390   5.657
24708SOL    HW176021   6.178   4.432   5.571
24708SOL    HW276022   6.143   4.301   5.639
24709SOL     OW76023  13.981  10.944  13.834
24709SOL    HW176024  14.044  11.009  13.863
24709SOL    HW276025  13.957  10.897  13.914
24710SOL     OW76026  11.828   7.094   0.350
24710SOL    HW176027  11.886   7.023   0.321
24710SOL    HW276028  11.747   7.050   0.374
24711SOL     OW76029   9.113  10.634   0.973
24711SOL    HW176030   9.062  10.552   0.974
24711SOL    HW276031   9.091  10.676   1.056
24712SOL     OW76032  12.413   1.893   5.131
24712SOL    HW176033  12.319   1.875   5.127
24712SOL    HW276034  12.449   1.820   5.181
24713SOL     OW76035   0.132   1.779   8.300
24713SOL    HW176036   0.148   1.808   8.210
24713SOL    HW276037   0.059   1.718   8.293
24714SOL     OW76038   0.737   0.340   8.972
24714SOL    HW176039   0.658   0.381   9.007
24714SOL    HW276040   0.714   0.314   8.883
24715SOL     OW76041   3.292   8.645   0.961
24715SOL    HW176042   3.238   8.594   1.022
24715SOL    HW276043   3.372   8.593   0.951
24716SOL     OW76044   1.276  14.070   9.356
24716SOL    HW176045   1.270  14.109   9.443
24716SOL    HW276046   1.344  14.120   9.312
24717SOL     OW76047  10.449   9.212   9.244
24717SOL    HW176048  10.456   9.124   9.206
24717SOL    HW276049  10.400   9.198   9.325
24718SOL     OW76050  10.624   9.170   6.061
24718SOL    HW176051  10.594   9.260   6.073
24718SOL    HW276052  10.717   9.173   6.082
24719SOL     OW76053  12.680   5.963   1.433
24719SOL    HW176054  12.766   5.993   1.460
24719SOL    HW276055  12.677   5.979   1.339
24720SOL     OW76056   7.634   3.605   6.573
24720SOL    HW176057   7.614   3.517   6.602
24720SOL    HW276058   7.668   3.594   6.484
24721SOL     OW76059   6.494   2.451   8.760
24721SOL    HW176060   6.407   2.419   8.737
24721SOL    HW276061   6.554   2.385   8.725
24722SOL     OW76062   8.299  11.510   1.053
24722SOL    HW176063   8.335  11.537   1.138
24722SOL    HW276064   8.323  11.581   0.994
24723SOL     OW76065  10.558   8.678  13.728
24723SOL    HW176066  10.651   8.683  13.750
24723SOL    HW276067  10.520   8.760  13.760
24724SOL     OW76068   2.299   9.094   8.462
24724SOL    HW176069   2.264   9.123   8.547
24724SOL    HW276070   2.293   9.171   8.406
24725SOL     OW76071   1.668   7.919  10.545
24725SOL    HW176072   1.614   7.982  10.593
24725SOL    HW276073   1.722   7.879  10.613
24726SOL     OW76074   1.219  13.800  14.086
24726SOL    HW176075   1.245  13.861  14.155
24726SOL    HW276076   1.160  13.738  14.130
24727SOL     OW76077   6.337   0.009   2.434
24727SOL    HW176078   6.245   0.030   2.415
24727SOL    HW276079   6.382   0.093   2.424
24728SOL     OW76080   1.886   8.792   8.565
24728SOL    HW176081   1.910   8.707   8.603
24728SOL    HW276082   1.969   8.830   8.535
24729SOL     OW76083   2.950   2.167   5.103
24729SOL    HW176084   2.942   2.160   5.008
24729SOL    HW276085   2.960   2.076   5.133
24730SOL     OW76086  11.542   6.701   1.340
24730SOL    HW176087  11.534   6.769   1.407
24730SOL    HW276088  11.526   6.619   1.387
24731SOL     OW76089  13.351  10.028   8.171
24731SOL    HW176090  13.327   9.938   8.195
24731SOL    HW276091  13.386  10.066   8.251
24732SOL     OW76092   0.735   8.425   5.399
24732SOL    HW176093   0.795   8.440   5.327
24732SOL    HW276094   0.784   8.451   5.477
24733SOL     OW76095   5.309  10.603  13.440
24733SOL    HW176096   5.330  10.671  13.505
24733SOL    HW276097   5.288  10.653  13.361
24734SOL     OW76098   7.014  10.258   5.617
24734SOL    HW176099   7.105  10.278   5.596
24734SOL    HW276100   6.968  10.264   5.533
24735SOL     OW76101   4.429  10.666   7.796
24735SOL    HW176102   4.426  10.621   7.711
24735SOL    HW276103   4.509  10.718   7.793
24736SOL     OW76104   2.798   1.067  11.510
24736SOL    HW176105   2.798   1.037  11.419
24736SOL    HW276106   2.827   0.991  11.560
24737SOL     OW76107   3.961   2.510  12.494
24737SOL    HW176108   3.884   2.502  12.438
24737SOL    HW276109   4.034   2.523  12.433
24738SOL     OW76110   4.791   0.941   5.804
24738SOL    HW176111   4.764   1.005   5.738
24738SOL    HW276112   4.885   0.932   5.792
24739SOL     OW76113  13.540   0.945  10.141
24739SOL    HW176114  13.533   1.018  10.080
24739SOL    HW276115  13.462   0.892  10.124
24740SOL     OW76116   8.843   4.648   2.935
24740SOL    HW176117   8.791   4.575   2.901
24740SOL    HW276118   8.905   4.607   2.995
24741SOL     OW76119  13.712   2.805   7.016
24741SOL    HW176120  13.780   2.822   7.081
24741SOL    HW276121  13.653   2.742   7.058
24742SOL     OW76122   9.658   0.925   1.022
24742SOL    HW176123   9.669   0.846   0.969
24742SOL    HW276124   9.671   0.895   1.112
24743SOL     OW76125   3.378  10.140   6.273
24743SOL    HW176126   3.400  10.171   6.185
24743SOL    HW276127   3.288  10.171   6.287
24744SOL     OW76128   8.340  10.841  14.386
24744SOL    HW176129   8.432  10.815  14.380
24744SOL    HW276130   8.296  10.792  14.317
24745SOL     OW76131  12.974   9.032  13.462
24745SOL    HW176132  13.027   9.008  13.386
24745SOL    HW276133  12.924   8.953  13.482
24746SOL     OW76134   2.336   0.337   4.278
24746SOL    HW176135   2.385   0.271   4.326
24746SOL    HW276136   2.287   0.385   4.345
24747SOL     OW76137   0.506   7.711   5.970
24747SOL    HW176138   0.517   7.772   6.043
24747SOL    HW276139   0.523   7.763   5.892
24748SOL     OW76140   6.118   7.097  12.971
24748SOL    HW176141   6.150   7.186  12.980
24748SOL    HW276142   6.022   7.105  12.972
24749SOL     OW76143   6.898   2.077   4.843
24749SOL    HW176144   6.880   2.075   4.749
24749SOL    HW276145   6.840   2.010   4.880
24750SOL     OW76146   0.445   5.156  11.401
24750SOL    HW176147   0.394   5.198  11.471
24750SOL    HW276148   0.535   5.187  11.416
24751SOL     OW76149  12.542   0.494   6.380
24751SOL    HW176150  12.488   0.463   6.307
24751SOL    HW276151  12.529   0.428   6.449
24752SOL     OW76152   5.094  14.801  10.091
24752SOL    HW176153   5.124  14.876  10.144
24752SOL    HW276154   5.043  14.748  10.152
24753SOL     OW76155  12.146   2.714   7.055
24753SOL    HW176156  12.085   2.662   7.106
24753SOL    HW276157  12.113   2.709   6.965
24754SOL     OW76158   5.626   6.610   4.495
24754SOL    HW176159   5.589   6.575   4.413
24754SOL    HW276160   5.553   6.656   4.536
24755SOL     OW76161   4.298   6.690   7.546
24755SOL    HW176162   4.288   6.725   7.458
24755SOL    HW276163   4.238   6.615   7.549
24756SOL     OW76164  11.343  14.689   1.124
24756SOL    HW176165  11.292  14.644   1.057
24756SOL    HW276166  11.388  14.619   1.171
24757SOL     OW76167   3.652  10.429   6.800
24757SOL    HW176168   3.595  10.458   6.729
24757SOL    HW276169   3.665  10.336   6.784
24758SOL     OW76170  12.236   3.592   0.619
24758SOL    HW176171  12.311   3.540   0.589
24758SOL    HW276172  12.274   3.657   0.678
24759SOL     OW76173  14.647   4.019   7.963
24759SOL    HW176174  14.706   4.016   7.887
24759SOL    HW276175  14.678   3.947   8.019
24760SOL     OW76176  11.474  11.962   2.258
24760SOL    HW176177  11.531  12.025   2.215
24760SOL    HW276178  11.405  11.944   2.194
24761SOL     OW76179   0.091  11.728   3.215
24761SOL    HW176180   0.149  11.794   3.179
24761SOL    HW276181   0.112  11.648   3.167
24762SOL     OW76182   5.098   0.914   3.540
24762SOL    HW176183   5.009   0.946   3.521
24762SOL    HW276184   5.091   0.819   3.538
24763SOL     OW76185   7.085   0.656   4.076
24763SOL    HW176186   7.146   0.634   4.006
24763SOL    HW276187   7.084   0.751   4.080
24764SOL     OW76188   7.527   8.036   3.120
24764SOL    HW176189   7.476   8.103   3.164
24764SOL    HW276190   7.618   8.062   3.134
24765SOL     OW76191   5.956   6.264  14.398
24765SOL    HW176192   6.036   6.223  14.367
24765SOL    HW276193   5.958   6.353  14.363
24766SOL     OW76194   2.257   6.702   8.481
24766SOL    HW176195   2.248   6.699   8.386
24766SOL    HW276196   2.288   6.614   8.504
24767SOL     OW76197   9.724  13.036   7.924
24767SOL    HW176198   9.667  12.983   7.980
24767SOL    HW276199   9.770  13.094   7.984
24768SOL     OW76200  14.153   6.325  14.237
24768SOL    HW176201  14.074   6.380  14.238
24768SOL    HW276202  14.182   6.322  14.328
24769SOL     OW76203   1.960   1.529   4.261
24769SOL    HW176204   1.981   1.554   4.351
24769SOL    HW276205   2.044   1.511   4.220
24770SOL     OW76206   1.278  14.451   0.254
24770SOL    HW176207   1.348  14.504   0.291
24770SOL    HW276208   1.201  14.472   0.307
24771SOL     OW76209   2.843   5.969   7.198
24771SOL    HW176210   2.874   6.060   7.200
24771SOL    HW276211   2.924   5.917   7.193
24772SOL     OW76212   5.807   0.310   9.282
24772SOL    HW176213   5.741   0.319   9.351
24772SOL    HW276214   5.775   0.237   9.229
24773SOL     OW76215   3.939  12.099  12.913
24773SOL    HW176216   4.024  12.065  12.941
24773SOL    HW276217   3.935  12.079  12.820
24774SOL     OW76218   1.514  12.277   0.050
24774SOL    HW176219   1.491  12.197   0.098
24774SOL    HW276220   1.515  12.345   0.117
24775SOL     OW76221   1.202  10.232   6.447
24775SOL    HW176222   1.199  10.263   6.356
24775SOL    HW276223   1.292  10.251   6.475
24776SOL     OW76224   5.551  11.641  12.510
24776SOL    HW176225   5.606  11.717  12.530
24776SOL    HW276226   5.522  11.609  12.596
24777SOL     OW76227   7.049   6.033   0.236
24777SOL    HW176228   7.063   6.127   0.223
24777SOL    HW276229   6.990   6.008   0.164
24778SOL     OW76230  12.916   0.841   4.303
24778SOL    HW176231  12.985   0.775   4.304
24778SOL    HW276232  12.835   0.791   4.310
24779SOL     OW76233  12.500   1.029   2.071
24779SOL    HW176234  12.592   1.004   2.072
24779SOL    HW276235  12.500   1.122   2.090
24780SOL     OW76236  12.237   8.012   1.249
24780SOL    HW176237  12.220   8.102   1.222
24780SOL    HW276238  12.329   7.998   1.229
24781SOL     OW76239  12.221  10.868  14.120
24781SOL    HW176240  12.138  10.860  14.168
24781SOL    HW276241  12.287  10.836  14.180
24782SOL     OW76242   5.199   4.786   0.432
24782SOL    HW176243   5.114   4.760   0.396
24782SOL    HW276244   5.255   4.796   0.355
24783SOL     OW76245  10.455   2.247   7.880
24783SOL    HW176246  10.503   2.270   7.959
24783SOL    HW276247  10.521   2.209   7.822
24784SOL     OW76248   2.613   5.641   2.529
24784SOL    HW176249   2.588   5.714   2.473
24784SOL    HW276250   2.689   5.674   2.578
24785SOL     OW76251  13.003   3.164   1.942
24785SOL    HW176252  13.024   3.239   1.998
24785SOL    HW276253  12.958   3.202   1.867
24786SOL     OW76254  14.105   2.586   1.517
24786SOL    HW176255  14.150   2.501   1.510
24786SOL    HW276256  14.040   2.573   1.586
24787SOL     OW76257  10.660  12.060  12.652
24787SOL    HW176258  10.573  12.086  12.681
24787SOL    HW276259  10.720  12.119  12.697
24788SOL     OW76260  12.557  10.024   0.643
24788SOL    HW176261  12.463  10.011   0.652
24788SOL    HW276262  12.594   9.993   0.726
24789SOL     OW76263   2.011   2.521  12.156
24789SOL    HW176264   2.065   2.513  12.078
24789SOL    HW276265   1.957   2.442  12.157
24790SOL     OW76266  11.090   9.925   0.545
24790SOL    HW176267  11.021   9.979   0.583
24790SOL    HW276268  11.063   9.835   0.564
24791SOL     OW76269   4.470   8.583  10.197
24791SOL    HW176270   4.547   8.541  10.160
24791SOL    HW276271   4.397   8.528  10.171
24792SOL     OW76272  13.872   6.364   0.098
24792SOL    HW176273  13.842   6.382   0.009
24792SOL    HW276274  13.861   6.269   0.108
24793SOL     OW76275  14.297   8.531   0.100
24793SOL    HW176276  14.301   8.620   0.064
24793SOL    HW276277  14.251   8.542   0.184
24794SOL     OW76278   8.839   0.280   5.011
24794SOL    HW176279   8.815   0.348   4.949
24794SOL    HW276280   8.851   0.326   5.094
24795SOL     OW76281   3.494  14.528  11.647
24795SOL    HW176282   3.432  14.492  11.711
24795SOL    HW276283   3.466  14.492  11.563
24796SOL     OW76284   3.929  11.347   8.537
24796SOL    HW176285   3.922  11.258   8.501
24796SOL    HW276286   3.998  11.340   8.603
24797SOL     OW76287   4.830  14.400   5.790
24797SOL    HW176288   4.891  14.339   5.831
24797SOL    HW276289   4.781  14.347   5.727
24798SOL     OW76290   7.341   1.837   9.182
24798SOL    HW176291   7.363   1.928   9.205
24798SOL    HW276292   7.247   1.830   9.199
24799SOL     OW76293   0.889  13.024   9.510
24799SOL    HW176294   0.961  13.049   9.451
24799SOL    HW276295   0.814  13.010   9.452
24800SOL     OW76296  12.638  10.763   8.769
24800SOL    HW176297  12.651  10.768   8.674
24800SOL    HW276298  12.632  10.670   8.788
24801SOL     OW76299   8.484  13.658   9.914
24801SOL    HW176300   8.547  13.661   9.986
24801SOL    HW276301   8.415  13.599   9.944
24802SOL     OW76302  14.683   9.843   9.266
24802SOL    HW176303  14.627   9.872   9.194
24802SOL    HW276304  14.716   9.758   9.239
24803SOL     OW76305   4.663   3.218   1.853
24803SOL    HW176306   4.578   3.221   1.895
24803SOL    HW276307   4.644   3.202   1.760
24804SOL     OW76308   6.441   7.233   6.086
24804SOL    HW176309   6.435   7.174   6.011
24804SOL    HW276310   6.453   7.320   6.048
24805SOL     OW76311  10.566  14.282   7.564
24805SOL    HW176312  10.515  14.286   7.645
24805SOL    HW276313  10.500  14.276   7.495
24806SOL     OW76314   0.240   1.032  10.240
24806SOL    HW176315   0.269   1.071  10.323
24806SOL    HW276316   0.154   0.995  10.259
24807SOL     OW76317   1.375   3.065  11.424
24807SOL    HW176318   1.396   3.009  11.499
24807SOL    HW276319   1.459   3.100  11.396
24808SOL     OW76320   2.485   1.461  11.100
24808SOL    HW176321   2.393   1.464  11.075
24808SOL    HW276322   2.504   1.549  11.132
24809SOL     OW76323  13.801  11.123  12.799
24809SOL    HW176324  13.719  11.165  12.823
24809SOL    HW276325  13.776  11.051  12.741
24810SOL     OW76326  13.738   9.416   4.028
24810SOL    HW176327  13.784   9.490   3.986
24810SOL    HW276328  13.646   9.440   4.023
24811SOL     OW76329  14.511   4.367   1.082
24811SOL    HW176330  14.587   4.370   1.141
24811SOL    HW276331  14.451   4.304   1.124
24812SOL     OW76332   7.880   7.247   6.674
24812SOL    HW176333   7.902   7.165   6.718
24812SOL    HW276334   7.806   7.282   6.723
24813SOL     OW76335   0.792  14.385   9.211
24813SOL    HW176336   0.800  14.479   9.221
24813SOL    HW276337   0.880  14.351   9.229
24814SOL     OW76338  10.292  12.726  10.488
24814SOL    HW176339  10.292  12.664  10.416
24814SOL    HW276340  10.385  12.744  10.505
24815SOL     OW76341   2.022   0.728   0.978
24815SOL    HW176342   1.935   0.765   0.996
24815SOL    HW276343   2.055   0.702   1.064
24816SOL     OW76344   9.703  12.743   9.578
24816SOL    HW176345   9.609  12.731   9.589
24816SOL    HW276346   9.722  12.825   9.624
24817SOL     OW76347   1.889   5.258   9.373
24817SOL    HW176348   1.882   5.346   9.410
24817SOL    HW276349   1.977   5.229   9.397
24818SOL     OW76350   2.415  12.076  11.891
24818SOL    HW176351   2.325  12.044  11.884
24818SOL    HW276352   2.467  12.014  11.840
24819SOL     OW76353  14.117   7.997  11.041
24819SOL    HW176354  14.034   7.998  10.994
24819SOL    HW276355  14.179   7.956  10.981
24820SOL     OW76356   5.066  13.933  10.690
24820SOL    HW176357   5.031  13.861  10.744
24820SOL    HW276358   5.073  13.895  10.603
24821SOL     OW76359  12.922   4.654   9.892
24821SOL    HW176360  12.859   4.619   9.830
24821SOL    HW276361  12.936   4.583   9.955
24822SOL     OW76362   9.635   1.489   2.774
24822SOL    HW176363   9.633   1.584   2.783
24822SOL    HW276364   9.667   1.474   2.685
24823SOL     OW76365   0.020   8.338  10.417
24823SOL    HW176366  14.838   8.363  10.356
24823SOL    HW276367   0.035   8.417  10.470
24824SOL     OW76368   2.130  11.330   9.509
24824SOL    HW176369   2.218  11.293   9.513
24824SOL    HW276370   2.103  11.321   9.418
24825SOL     OW76371  13.249   5.963   4.990
24825SOL    HW176372  13.274   5.924   5.074
24825SOL    HW276373  13.290   5.906   4.924
24826SOL     OW76374  13.280   5.072   3.543
24826SOL    HW176375  13.360   5.031   3.573
24826SOL    HW276376  13.210   5.012   3.569
24827SOL     OW76377  12.912   6.636  13.764
24827SOL    HW176378  12.891   6.555  13.718
24827SOL    HW276379  12.827   6.674  13.786
24828SOL     OW76380   3.954   6.226   4.282
24828SOL    HW176381   3.992   6.223   4.370
24828SOL    HW276382   3.959   6.135   4.251
24829SOL     OW76383  13.799  11.659  11.754
24829SOL    HW176384  13.877  11.606  11.736
24829SOL    HW276385  13.771  11.691  11.668
24830SOL     OW76386   5.177  13.565   0.976
24830SOL    HW176387   5.268  13.534   0.975
24830SOL    HW276388   5.173  13.629   0.905
24831SOL     OW76389   7.539   5.423  10.007
24831SOL    HW176390   7.608   5.437   9.942
24831SOL    HW276391   7.496   5.342   9.979
24832SOL     OW76392  12.324  13.289   8.900
24832SOL    HW176393  12.408  13.265   8.939
24832SOL    HW276394  12.319  13.236   8.820
24833SOL     OW76395   7.413   9.825   8.991
24833SOL    HW176396   7.362   9.754   8.950
24833SOL    HW276397   7.495   9.826   8.941
24834SOL     OW76398  11.179  10.905   2.590
24834SOL    HW176399  11.251  10.905   2.653
24834SOL    HW276400  11.127  10.829   2.613
24835SOL     OW76401   4.609   9.138  13.823
24835SOL    HW176402   4.688   9.105  13.780
24835SOL    HW276403   4.599   9.227  13.789
24836SOL     OW76404   0.472  14.729  11.522
24836SOL    HW176405   0.528  14.807  11.527
24836SOL    HW276406   0.421  14.742  11.442
24837SOL     OW76407  12.799   7.389   1.382
24837SOL    HW176408  12.858   7.313   1.383
24837SOL    HW276409  12.811   7.429   1.468
24838SOL     OW76410   0.341   1.375  14.147
24838SOL    HW176411   0.415   1.435  14.160
24838SOL    HW276412   0.266   1.433  14.137
24839SOL     OW76413   1.476  12.899   0.546
24839SOL    HW176414   1.497  12.926   0.635
24839SOL    HW276415   1.390  12.857   0.553
24840SOL     OW76416   5.978   4.373   7.213
24840SOL    HW176417   6.069   4.396   7.228
24840SOL    HW276418   5.932   4.457   7.212
24841SOL     OW76419   2.876  10.325   8.418
24841SOL    HW176420   2.842  10.242   8.453
24841SOL    HW276421   2.929  10.299   8.343
24842SOL     OW76422   4.221  14.766   6.648
24842SOL    HW176423   4.138  14.811   6.664
24842SOL    HW276424   4.201  14.702   6.580
24843SOL     OW76425  14.843   9.365   9.261
24843SOL    HW176426   0.036   9.321   9.232
24843SOL    HW276427  14.796   9.298   9.311
24844SOL     OW76428   3.093  12.611   8.284
24844SOL    HW176429   3.003  12.633   8.260
24844SOL    HW276430   3.093  12.608   8.380
24845SOL     OW76431  11.740  13.642   4.253
24845SOL    HW176432  11.751  13.673   4.164
24845SOL    HW276433  11.828  13.651   4.292
24846SOL     OW76434   1.513  10.451   4.426
24846SOL    HW176435   1.470  10.477   4.344
24846SOL    HW276436   1.526  10.357   4.417
24847SOL     OW76437   7.879  11.476   2.683
24847SOL    HW176438   7.934  11.411   2.639
24847SOL    HW276439   7.819  11.424   2.737
24848SOL     OW76440   8.245  12.850   5.911
24848SOL    HW176441   8.241  12.760   5.879
24848SOL    HW276442   8.276  12.842   6.002
24849SOL     OW76443   0.949   6.971   7.164
24849SOL    HW176444   0.957   6.985   7.070
24849SOL    HW276445   0.997   7.043   7.204
24850SOL     OW76446   0.487   4.955   9.500
24850SOL    HW176447   0.537   4.957   9.581
24850SOL    HW276448   0.465   5.047   9.483
24851SOL     OW76449  12.666   9.776  11.428
24851SOL    HW176450  12.689   9.696  11.379
24851SOL    HW276451  12.649   9.841  11.360
24852SOL     OW76452   3.793   2.314  12.771
24852SOL    HW176453   3.768   2.252  12.840
24852SOL    HW276454   3.714   2.325  12.718
24853SOL     OW76455   6.631   0.947   4.706
24853SOL    HW176456   6.650   1.023   4.761
24853SOL    HW276457   6.580   0.889   4.763
24854SOL     OW76458   1.031   6.245  10.160
24854SOL    HW176459   0.974   6.308  10.204
24854SOL    HW276460   1.079   6.202  10.231
24855SOL     OW76461  12.685  13.026  11.014
24855SOL    HW176462  12.714  13.054  10.927
24855SOL    HW276463  12.762  13.039  11.070
24856SOL     OW76464   0.091   3.247   0.888
24856SOL    HW176465   0.100   3.167   0.940
24856SOL    HW276466   0.177   3.259   0.847
24857SOL     OW76467   8.490  12.617   6.533
24857SOL    HW176468   8.485  12.713   6.531
24857SOL    HW276469   8.400  12.589   6.548
24858SOL     OW76470  10.763   4.198   2.477
24858SOL    HW176471  10.798   4.281   2.511
24858SOL    HW276472  10.841   4.142   2.467
24859SOL     OW76473   5.653  10.621   8.020
24859SOL    HW176474   5.564  10.627   8.055
24859SOL    HW276475   5.689  10.542   8.060
24860SOL     OW76476  13.116   9.154  10.076
24860SOL    HW176477  13.113   9.081  10.138
24860SOL    HW276478  13.193   9.204  10.102
24861SOL     OW76479   4.110   7.727  13.545
24861SOL    HW176480   4.176   7.761  13.484
24861SOL    HW276481   4.110   7.789  13.618
24862SOL     OW76482   4.460  14.802   5.422
24862SOL    HW176483   4.503  14.887   5.435
24862SOL    HW276484   4.409  14.814   5.342
24863SOL     OW76485   8.679  11.463   0.581
24863SOL    HW176486   8.747  11.528   0.566
24863SOL    HW276487   8.688  11.402   0.507
24864SOL     OW76488   3.037  14.718  14.044
24864SOL    HW176489   3.014  14.806  14.015
24864SOL    HW276490   3.084  14.680  13.970
24865SOL     OW76491   0.003  13.065   0.722
24865SOL    HW176492  14.841  13.078   0.641
24865SOL    HW276493  14.843  12.996   0.768
24866SOL     OW76494   4.910   8.856   6.321
24866SOL    HW176495   4.943   8.779   6.368
24866SOL    HW276496   4.815   8.841   6.316
24867SOL     OW76497  10.921   5.425   3.224
24867SOL    HW176498  10.919   5.494   3.291
24867SOL    HW276499  10.932   5.471   3.141
24868SOL     OW76500  12.985   3.510  11.244
24868SOL    HW176501  12.984   3.468  11.330
24868SOL    HW276502  13.015   3.599  11.262
24869SOL     OW76503   1.612   7.893   0.378
24869SOL    HW176504   1.565   7.833   0.318
24869SOL    HW276505   1.704   7.869   0.367
24870SOL     OW76506   3.239  11.121   0.984
24870SOL    HW176507   3.263  11.071   1.062
24870SOL    HW276508   3.314  11.113   0.926
24871SOL     OW76509  11.241  13.782   3.482
24871SOL    HW176510  11.263  13.699   3.440
24871SOL    HW276511  11.162  13.765   3.532
24872SOL     OW76512   8.377   7.523  12.027
24872SOL    HW176513   8.298   7.553  12.071
24872SOL    HW276514   8.449   7.555  12.082
24873SOL     OW76515  13.217   0.957   5.483
24873SOL    HW176516  13.248   0.939   5.394
24873SOL    HW276517  13.164   0.880   5.506
24874SOL     OW76518   4.634   2.865   8.332
24874SOL    HW176519   4.549   2.899   8.357
24874SOL    HW276520   4.687   2.942   8.316
24875SOL     OW76521  10.924   2.263   1.721
24875SOL    HW176522  10.954   2.242   1.809
24875SOL    HW276523  10.964   2.348   1.701
24876SOL     OW76524   0.633   7.810  12.028
24876SOL    HW176525   0.551   7.762  12.021
24876SOL    HW276526   0.661   7.823  11.938
24877SOL     OW76527  14.081   5.209   6.215
24877SOL    HW176528  14.057   5.152   6.142
24877SOL    HW276529  14.078   5.297   6.177
24878SOL     OW76530   0.456   6.759   5.513
24878SOL    HW176531   0.375   6.810   5.506
24878SOL    HW276532   0.440   6.681   5.460
24879SOL     OW76533  13.178   6.163   1.334
24879SOL    HW176534  13.115   6.235   1.342
24879SOL    HW276535  13.264   6.205   1.343
24880SOL     OW76536   0.382   5.383   4.074
24880SOL    HW176537   0.451   5.379   4.140
24880SOL    HW276538   0.418   5.441   4.006
24881SOL     OW76539  12.641   3.789   1.769
24881SOL    HW176540  12.580   3.721   1.740
24881SOL    HW276541  12.688   3.750   1.842
24882SOL     OW76542   4.276  13.142   7.544
24882SOL    HW176543   4.273  13.229   7.585
24882SOL    HW276544   4.339  13.093   7.597
24883SOL     OW76545   6.031   7.907   2.437
24883SOL    HW176546   6.069   7.981   2.391
24883SOL    HW276547   5.943   7.898   2.401
24884SOL     OW76548   5.400  13.722  12.223
24884SOL    HW176549   5.469  13.694  12.163
24884SOL    HW276550   5.430  13.693  12.310
24885SOL     OW76551   7.967  12.087   0.022
24885SOL    HW176552   7.964  12.145  14.834
24885SOL    HW276553   7.960  11.999  14.873
24886SOL     OW76554   1.482  10.062   7.374
24886SOL    HW176555   1.451  10.107   7.453
24886SOL    HW276556   1.575  10.085   7.369
24887SOL     OW76557   1.226   0.544  14.590
24887SOL    HW176558   1.281   0.493  14.650
24887SOL    HW276559   1.164   0.589  14.647
24888SOL     OW76560   7.104   7.516  11.347
24888SOL    HW176561   7.013   7.534  11.323
24888SOL    HW276562   7.151   7.596  11.323
24889SOL     OW76563   4.519   3.019  12.907
24889SOL    HW176564   4.585   3.025  12.976
24889SOL    HW276565   4.569   2.989  12.830
24890SOL     OW76566   1.113   1.771   6.554
24890SOL    HW176567   1.146   1.754   6.642
24890SOL    HW276568   1.110   1.866   6.547
24891SOL     OW76569   7.916   5.973  12.601
24891SOL    HW176570   7.960   6.040  12.653
24891SOL    HW276571   7.870   6.022  12.532
24892SOL     OW76572   3.598  10.348  12.695
24892SOL    HW176573   3.561  10.426  12.736
24892SOL    HW276574   3.690  10.349  12.720
24893SOL     OW76575   5.008   6.802  11.322
24893SOL    HW176576   4.919   6.797  11.287
24893SOL    HW276577   5.055   6.733  11.276
24894SOL     OW76578   9.869   7.396   6.895
24894SOL    HW176579   9.782   7.363   6.875
24894SOL    HW276580   9.926   7.356   6.829
24895SOL     OW76581   6.064   7.783  11.243
24895SOL    HW176582   6.020   7.821  11.167
24895SOL    HW276583   6.157   7.781  11.218
24896SOL     OW76584  13.334   4.258   6.508
24896SOL    HW176585  13.405   4.321   6.497
24896SOL    HW276586  13.369   4.176   6.472
24897SOL     OW76587  10.417   7.821  11.579
24897SOL    HW176588  10.385   7.731  11.569
24897SOL    HW276589  10.399   7.862  11.494
24898SOL     OW76590  12.681  12.472   8.891
24898SOL    HW176591  12.662  12.378   8.886
24898SOL    HW276592  12.629  12.503   8.965
24899SOL     OW76593  11.404  11.741   1.792
24899SOL    HW176594  11.448  11.754   1.708
24899SOL    HW276595  11.471  11.701   1.848
24900SOL     OW76596   5.097   8.434  11.236
24900SOL    HW176597   5.068   8.492  11.166
24900SOL    HW276598   5.068   8.347  11.208
24901SOL     OW76599   5.803   3.435  13.730
24901SOL    HW176600   5.888   3.407  13.764
24901SOL    HW276601   5.740   3.371  13.766
24902SOL     OW76602  10.450   5.420   4.807
24902SOL    HW176603  10.400   5.478   4.863
24902SOL    HW276604  10.417   5.332   4.827
24903SOL     OW76605  11.307   6.906   6.258
24903SOL    HW176606  11.365   6.908   6.182
24903SOL    HW276607  11.238   6.845   6.234
24904SOL     OW76608   8.280   3.191  13.680
24904SOL    HW176609   8.325   3.166  13.599
24904SOL    HW276610   8.267   3.108  13.726
24905SOL     OW76611  12.344  14.025   5.853
24905SOL    HW176612  12.374  14.106   5.894
24905SOL    HW276613  12.281  14.052   5.787
24906SOL     OW76614  12.825   6.698   4.921
24906SOL    HW176615  12.813   6.617   4.970
24906SOL    HW276616  12.769   6.689   4.844
24907SOL     OW76617   4.198  12.963   0.148
24907SOL    HW176618   4.258  12.937   0.218
24907SOL    HW276619   4.117  12.985   0.194
24908SOL     OW76620   8.237  13.455   5.690
24908SOL    HW176621   8.202  13.462   5.601
24908SOL    HW276622   8.274  13.366   5.694
24909SOL     OW76623   2.492   8.591  13.416
24909SOL    HW176624   2.411   8.619  13.458
24909SOL    HW276625   2.484   8.496  13.410
24910SOL     OW76626   4.677   9.857   8.345
24910SOL    HW176627   4.726   9.795   8.399
24910SOL    HW276628   4.670   9.816   8.260
24911SOL     OW76629   5.536   8.023  11.451
24911SOL    HW176630   5.604   8.014  11.383
24911SOL    HW276631   5.577   8.076  11.519
24912SOL     OW76632  10.009   1.605   1.927
24912SOL    HW176633  10.079   1.662   1.960
24912SOL    HW276634  10.053   1.551   1.860
24913SOL     OW76635   0.501   0.854   6.450
24913SOL    HW176636   0.478   0.921   6.386
24913SOL    HW276637   0.576   0.891   6.497
24914SOL     OW76638   8.780   0.173   5.414
24914SOL    HW176639   8.758   0.223   5.335
24914SOL    HW276640   8.866   0.207   5.441
24915SOL     OW76641  12.408  10.437   3.553
24915SOL    HW176642  12.416  10.413   3.645
24915SOL    HW276643  12.352  10.370   3.515
24916SOL     OW76644  10.657   0.731   2.483
24916SOL    HW176645  10.601   0.775   2.547
24916SOL    HW276646  10.601   0.662   2.446
24917SOL     OW76647  11.156  12.052   0.717
24917SOL    HW176648  11.127  12.005   0.795
24917SOL    HW276649  11.213  11.990   0.672
24918SOL     OW76650  12.971   5.061  14.668
24918SOL    HW176651  12.889   5.085  14.712
24918SOL    HW276652  13.035   5.123  14.703
24919SOL     OW76653  11.963   1.889   2.439
24919SOL    HW176654  12.052   1.877   2.472
24919SOL    HW276655  11.924   1.954   2.497
24920SOL     OW76656   6.651   1.058  14.141
24920SOL    HW176657   6.632   1.150  14.162
24920SOL    HW276658   6.568   1.023  14.109
24921SOL     OW76659   7.924  14.760  10.359
24921SOL    HW176660   7.904  14.810  10.438
24921SOL    HW276661   7.941  14.827  10.292
24922SOL     OW76662  11.098   9.306   9.404
24922SOL    HW176663  11.027   9.367   9.385
24922SOL    HW276664  11.067   9.222   9.370
24923SOL     OW76665  11.931   6.747   8.768
24923SOL    HW176666  11.924   6.665   8.719
24923SOL    HW276667  11.897   6.727   8.855
24924SOL     OW76668  13.863   0.766   7.112
24924SOL    HW176669  13.802   0.693   7.109
24924SOL    HW276670  13.831   0.822   7.182
24925SOL     OW76671   4.055  10.528  14.417
24925SOL    HW176672   4.141  10.500  14.386
24925SOL    HW276673   4.010  10.448  14.442
24926SOL     OW76674   0.852  13.257   8.078
24926SOL    HW176675   0.760  13.277   8.094
24926SOL    HW276676   0.879  13.321   8.012
24927SOL     OW76677  12.114   9.223  14.874
24927SOL    HW176678  12.136   9.218  14.781
24927SOL    HW276679  12.066   9.142   0.004
24928SOL     OW76680   3.444   4.826  12.909
24928SOL    HW176681   3.359   4.869  12.913
24928SOL    HW276682   3.508   4.898  12.916
24929SOL     OW76683   9.204  10.709   8.929
24929SOL    HW176684   9.129  10.759   8.896
24929SOL    HW276685   9.245  10.673   8.850
24930SOL     OW76686   9.376   0.050   8.520
24930SOL    HW176687   9.458   0.092   8.546
24930SOL    HW276688   9.376  14.854   8.566
24931SOL     OW76689   6.214   1.824  12.644
24931SOL    HW176690   6.134   1.832  12.696
24931SOL    HW276691   6.277   1.782  12.704
24932SOL     OW76692   4.994   8.022  13.935
24932SOL    HW176693   4.901   8.026  13.914
24932SOL    HW276694   5.017   7.930  13.921
24933SOL     OW76695  10.617  14.100   2.488
24933SOL    HW176696  10.687  14.130   2.546
24933SOL    HW276697  10.664  14.066   2.411
24934SOL     OW76698  11.998   0.225   2.422
24934SOL    HW176699  12.033   0.310   2.396
24934SOL    HW276700  11.906   0.241   2.443
24935SOL     OW76701  12.893   6.659   9.502
24935SOL    HW176702  12.829   6.727   9.482
24935SOL    HW276703  12.840   6.583   9.525
24936SOL     OW76704   4.094   0.717  14.633
24936SOL    HW176705   4.180   0.714  14.591
24936SOL    HW276706   4.039   0.769  14.574
24937SOL     OW76707   8.261  10.843   0.529
24937SOL    HW176708   8.306  10.790   0.594
24937SOL    HW276709   8.203  10.781   0.485
24938SOL     OW76710   0.751   5.728   9.024
24938SOL    HW176711   0.687   5.776   9.077
24938SOL    HW276712   0.814   5.694   9.087
24939SOL     OW76713   5.806  13.934   7.032
24939SOL    HW176714   5.746  13.917   6.959
24939SOL    HW276715   5.870  13.995   6.997
24940SOL     OW76716  12.029   8.999  10.216
24940SOL    HW176717  11.994   9.087  10.206
24940SOL    HW276718  12.051   8.992  10.309
24941SOL     OW76719   8.799   7.992  14.475
24941SOL    HW176720   8.835   8.077  14.500
24941SOL    HW276721   8.875   7.942  14.445
24942SOL     OW76722   0.978   9.372   3.249
24942SOL    HW176723   0.997   9.460   3.283
24942SOL    HW276724   0.885   9.373   3.229
24943SOL     OW76725   8.900   1.369   7.137
24943SOL    HW176726   8.991   1.380   7.108
24943SOL    HW276727   8.905   1.299   7.202
24944SOL     OW76728   6.064   9.584   7.710
24944SOL    HW176729   5.984   9.609   7.756
24944SOL    HW276730   6.131   9.643   7.744
24945SOL     OW76731   8.327   3.627   4.352
24945SOL    HW176732   8.385   3.613   4.427
24945SOL    HW276733   8.355   3.710   4.314
24946SOL     OW76734   8.525  12.129  11.336
24946SOL    HW176735   8.495  12.047  11.295
24946SOL    HW276736   8.446  12.182  11.343
24947SOL     OW76737   2.944   0.108  10.643
24947SOL    HW176738   2.996   0.171  10.692
24947SOL    HW276739   2.995   0.090  10.565
24948SOL     OW76740   0.846   9.679  12.865
24948SOL    HW176741   0.857   9.774  12.869
24948SOL    HW276742   0.831   9.652  12.956
24949SOL     OW76743  12.147   4.802   9.514
24949SOL    HW176744  12.165   4.751   9.436
24949SOL    HW276745  12.055   4.784   9.534
24950SOL     OW76746  12.272  11.384  12.060
24950SOL    HW176747  12.236  11.472  12.054
24950SOL    HW276748  12.218  11.331  12.001
24951SOL     OW76749   4.567   1.325   8.072
24951SOL    HW176750   4.485   1.276   8.061
24951SOL    HW276751   4.543   1.416   8.056
24952SOL     OW76752   8.712  12.141   9.011
24952SOL    HW176753   8.803  12.142   8.982
24952SOL    HW276754   8.714  12.172   9.101
24953SOL     OW76755  14.297   8.155   9.994
24953SOL    HW176756  14.313   8.158  10.089
24953SOL    HW276757  14.379   8.125   9.956
24954SOL     OW76758  13.926  10.652   6.166
24954SOL    HW176759  13.855  10.672   6.106
24954SOL    HW276760  13.976  10.582   6.123
24955SOL     OW76761   9.236   4.608   8.943
24955SOL    HW176762   9.238   4.623   9.037
24955SOL    HW276763   9.164   4.662   8.911
24956SOL     OW76764   2.621   3.783   1.265
24956SOL    HW176765   2.597   3.763   1.355
24956SOL    HW276766   2.663   3.703   1.233
24957SOL     OW76767  13.139  10.578   7.917
24957SOL    HW176768  13.110  10.668   7.902
24957SOL    HW276769  13.231  10.577   7.893
24958SOL     OW76770   9.941   9.854   9.145
24958SOL    HW176771   9.852   9.859   9.181
24958SOL    HW276772   9.940   9.775   9.092
24959SOL     OW76773   2.371  12.245  14.757
24959SOL    HW176774   2.283  12.259  14.723
24959SOL    HW276775   2.358  12.192  14.836
24960SOL     OW76776  11.205   2.980  11.496
24960SOL    HW176777  11.167   3.056  11.452
24960SOL    HW276778  11.130   2.921  11.511
24961SOL     OW76779  14.839  13.349   8.810
24961SOL    HW176780  14.818  13.438   8.782
24961SOL    HW276781  14.774  13.328   8.877
24962SOL     OW76782   0.159  13.443   5.980
24962SOL    HW176783   0.228  13.408   5.924
24962SOL    HW276784   0.200  13.453   6.066
24963SOL     OW76785  14.838  10.655   6.874
24963SOL    HW176786  14.831  10.672   6.968
24963SOL    HW276787  14.873  10.736   6.837
24964SOL     OW76788   2.806  12.688  12.816
24964SOL    HW176789   2.858  12.620  12.775
24964SOL    HW276790   2.790  12.656  12.905
24965SOL     OW76791  13.711  11.860   3.791
24965SOL    HW176792  13.683  11.835   3.879
24965SOL    HW276793  13.630  11.864   3.740
24966SOL     OW76794   3.213   6.411   9.902
24966SOL    HW176795   3.162   6.450   9.973
24966SOL    HW276796   3.302   6.405   9.937
24967SOL     OW76797   8.341   0.378   1.775
24967SOL    HW176798   8.396   0.387   1.698
24967SOL    HW276799   8.340   0.465   1.815
24968SOL     OW76800   2.573  14.550  14.655
24968SOL    HW176801   2.504  14.574  14.592
24968SOL    HW276802   2.620  14.479  14.612
24969SOL     OW76803   4.855   2.789   8.481
24969SOL    HW176804   4.815   2.787   8.568
24969SOL    HW276805   4.782   2.799   8.421
24970SOL     OW76806  12.055  12.433   6.763
24970SOL    HW176807  12.002  12.475   6.695
24970SOL    HW276808  12.144  12.460   6.743
24971SOL     OW76809  11.992   7.086   6.075
24971SOL    HW176810  12.053   7.159   6.067
24971SOL    HW276811  11.954   7.076   5.988
24972SOL     OW76812   9.465  10.020   9.763
24972SOL    HW176813   9.461   9.924   9.761
24972SOL    HW276814   9.511  10.044   9.683
24973SOL     OW76815  11.330   8.170  14.154
24973SOL    HW176816  11.319   8.265  14.167
24973SOL    HW276817  11.299   8.131  14.236
24974SOL     OW76818  12.927   8.091   5.273
24974SOL    HW176819  12.941   8.112   5.181
24974SOL    HW276820  12.831   8.093   5.283
24975SOL     OW76821   0.129   8.993   2.702
24975SOL    HW176822   0.169   8.916   2.743
24975SOL    HW276823   0.203   9.045   2.670
24976SOL     OW76824   7.413   8.260   5.853
24976SOL    HW176825   7.384   8.257   5.944
24976SOL    HW276826   7.500   8.219   5.853
24977SOL     OW76827   6.651  10.557   6.818
24977SOL    HW176828   6.615  10.561   6.907
24977SOL    HW276829   6.627  10.470   6.787
24978SOL     OW76830   8.381  12.143  12.796
24978SOL    HW176831   8.371  12.170  12.705
24978SOL    HW276832   8.431  12.214  12.836
24979SOL     OW76833  11.602  10.694   7.976
24979SOL    HW176834  11.522  10.719   7.931
24979SOL    HW276835  11.573  10.661   8.061
24980SOL     OW76836   0.552   5.814   7.591
24980SOL    HW176837   0.548   5.815   7.686
24980SOL    HW276838   0.486   5.750   7.565
24981SOL     OW76839  12.567  13.498   5.863
24981SOL    HW176840  12.537  13.487   5.953
24981SOL    HW276841  12.487  13.519   5.813
24982SOL     OW76842  12.761   8.180  11.431
24982SOL    HW176843  12.805   8.252  11.384
24982SOL    HW276844  12.777   8.103  11.377
24983SOL     OW76845   0.653   0.060  11.196
24983SOL    HW176846   0.637   0.118  11.121
24983SOL    HW276847   0.721   0.105  11.247
24984SOL     OW76848   1.131  14.279  13.861
24984SOL    HW176849   1.073  14.323  13.798
24984SOL    HW276850   1.121  14.330  13.942
24985SOL     OW76851   8.545  14.384  14.270
24985SOL    HW176852   8.567  14.441  14.197
24985SOL    HW276853   8.538  14.443  14.345
24986SOL     OW76854   1.993   1.941   6.097
24986SOL    HW176855   2.070   1.981   6.139
24986SOL    HW276856   1.988   1.854   6.135
24987SOL     OW76857   1.902  12.883   5.026
24987SOL    HW176858   1.904  12.788   5.026
24987SOL    HW276859   1.992  12.910   5.010
24988SOL     OW76860   2.509   4.153   3.138
24988SOL    HW176861   2.455   4.074   3.142
24988SOL    HW276862   2.464   4.215   3.196
24989SOL     OW76863  13.776   3.722   2.785
24989SOL    HW176864  13.719   3.798   2.781
24989SOL    HW276865  13.840   3.743   2.853
24990SOL     OW76866   5.206   9.408   8.927
24990SOL    HW176867   5.299   9.398   8.946
24990SOL    HW276868   5.163   9.394   9.012
24991SOL     OW76869   0.680   2.125   6.325
24991SOL    HW176870   0.720   2.055   6.377
24991SOL    HW276871   0.664   2.085   6.239
24992SOL     OW76872   5.082   3.076  14.135
24992SOL    HW176873   5.095   3.124  14.053
24992SOL    HW276874   5.085   3.143  14.203
24993SOL     OW76875  11.015   3.850   3.486
24993SOL    HW176876  10.931   3.890   3.507
24993SOL    HW276877  11.066   3.922   3.448
24994SOL     OW76878  12.688  10.787   1.600
24994SOL    HW176879  12.598  10.804   1.625
24994SOL    HW276880  12.736  10.782   1.683
24995SOL     OW76881   5.787  10.725   1.829
24995SOL    HW176882   5.876  10.694   1.816
24995SOL    HW276883   5.735  10.676   1.766
24996SOL     OW76884   2.952   6.811   9.787
24996SOL    HW176885   2.982   6.735   9.738
24996SOL    HW276886   2.952   6.883   9.723
24997SOL     OW76887   4.158  13.459  14.035
24997SOL    HW176888   4.211  13.384  14.008
24997SOL    HW276889   4.161  13.519  13.960
24998SOL     OW76890  10.927   4.646  13.756
24998SOL    HW176891  10.853   4.608  13.708
24998SOL    HW276892  10.937   4.589  13.833
24999SOL     OW76893   6.559  13.974   4.686
24999SOL    HW176894   6.623  14.036   4.653
24999SOL    HW276895   6.563  13.900   4.625
25000SOL     OW76896  10.045   5.194  10.236
25000SOL    HW176897   9.959   5.235  10.226
25000SOL    HW276898  10.084   5.199  10.149
25001SOL     OW76899   9.830   8.746   9.630
25001SOL    HW176900   9.768   8.771   9.562
25001SOL    HW276901   9.786   8.677   9.679
25002SOL     OW76902  14.752   9.364  12.324
25002SOL    HW176903  14.748   9.459  12.318
25002SOL    HW276904  14.802   9.337  12.247
25003SOL     OW76905   9.289   4.395   1.139
25003SOL    HW176906   9.197   4.401   1.163
25003SOL    HW276907   9.314   4.305   1.162
25004SOL     OW76908   0.417  12.157   4.314
25004SOL    HW176909   0.393  12.231   4.370
25004SOL    HW276910   0.339  12.101   4.314
25005SOL     OW76911   2.493   4.883   6.723
25005SOL    HW176912   2.504   4.929   6.640
25005SOL    HW276913   2.435   4.810   6.704
25006SOL     OW76914   7.238  12.617   0.430
25006SOL    HW176915   7.330  12.621   0.402
25006SOL    HW276916   7.202  12.542   0.384
25007SOL     OW76917   5.090   2.916  12.344
25007SOL    HW176918   5.174   2.869  12.344
25007SOL    HW276919   5.115   3.008  12.329
25008SOL     OW76920   9.638   6.648   7.620
25008SOL    HW176921   9.570   6.624   7.683
25008SOL    HW276922   9.597   6.635   7.534
25009SOL     OW76923   9.638   5.799   4.414
25009SOL    HW176924   9.635   5.895   4.417
25009SOL    HW276925   9.624   5.773   4.505
25010SOL     OW76926   2.594   9.571   2.030
25010SOL    HW176927   2.646   9.502   2.071
25010SOL    HW276928   2.509   9.566   2.074
25011SOL     OW76929   9.921   8.623   8.641
25011SOL    HW176930   9.968   8.540   8.631
25011SOL    HW276931   9.942   8.651   8.730
25012SOL     OW76932  12.348   7.313   9.751
25012SOL    HW176933  12.301   7.389   9.717
25012SOL    HW276934  12.419   7.350   9.804
25013SOL     OW76935   7.684   5.848  14.042
25013SOL    HW176936   7.694   5.848  14.138
25013SOL    HW276937   7.767   5.885  14.010
25014SOL     OW76938   5.965  10.935   1.433
25014SOL    HW176939   5.982  10.853   1.387
25014SOL    HW276940   5.985  11.003   1.368
25015SOL     OW76941   7.752   8.907   4.790
25015SOL    HW176942   7.807   8.939   4.718
25015SOL    HW276943   7.725   8.986   4.837
25016SOL     OW76944  11.390   6.611  10.895
25016SOL    HW176945  11.456   6.615  10.826
25016SOL    HW276946  11.382   6.517  10.914
25017SOL     OW76947   9.909   6.206   5.039
25017SOL    HW176948  10.003   6.194   5.051
25017SOL    HW276949   9.869   6.131   5.082
25018SOL     OW76950   8.584   2.737  13.297
25018SOL    HW176951   8.493   2.716  13.319
25018SOL    HW276952   8.610   2.801  13.363
25019SOL     OW76953  14.773   4.403   7.069
25019SOL    HW176954  14.814   4.422   6.984
25019SOL    HW276955  14.756   4.309   7.067
25020SOL     OW76956   1.140   1.728   2.338
25020SOL    HW176957   1.075   1.720   2.268
25020SOL    HW276958   1.195   1.802   2.311
25021SOL     OW76959  10.181   4.516   1.362
25021SOL    HW176960  10.175   4.538   1.270
25021SOL    HW276961  10.184   4.600   1.407
25022SOL     OW76962   1.701   7.110   2.604
25022SOL    HW176963   1.674   7.038   2.547
25022SOL    HW276964   1.796   7.114   2.595
25023SOL     OW76965   0.697   3.999   5.690
25023SOL    HW176966   0.697   3.935   5.761
25023SOL    HW276967   0.613   3.986   5.647
25024SOL     OW76968   1.039   2.209  10.491
25024SOL    HW176969   1.131   2.192  10.474
25024SOL    HW276970   0.992   2.149  10.434
25025SOL     OW76971   0.971   4.401  13.423
25025SOL    HW176972   0.941   4.319  13.461
25025SOL    HW276973   0.943   4.397  13.332
25026SOL     OW76974  14.247   7.571  10.595
25026SOL    HW176975  14.260   7.499  10.534
25026SOL    HW276976  14.173   7.544  10.650
25027SOL     OW76977   9.265   8.502   9.966
25027SOL    HW176978   9.175   8.470   9.971
25027SOL    HW276979   9.256   8.594   9.941
25028SOL     OW76980  11.611   1.563   5.341
25028SOL    HW176981  11.617   1.468   5.354
25028SOL    HW276982  11.666   1.600   5.410
25029SOL     OW76983   5.121   8.530  10.463
25029SOL    HW176984   5.164   8.612  10.438
25029SOL    HW276985   5.179   8.492  10.530
25030SOL     OW76986  10.193   8.954   0.818
25030SOL    HW176987  10.112   8.998   0.843
25030SOL    HW276988  10.246   8.953   0.898
25031SOL     OW76989  14.740  14.170  10.648
25031SOL    HW176990  14.647  14.190  10.652
25031SOL    HW276991  14.783  14.244  10.691
25032SOL     OW76992   5.515   6.204   7.907
25032SOL    HW176993   5.495   6.247   7.824
25032SOL    HW276994   5.492   6.112   7.892
25033SOL     OW76995  11.415   5.636   8.477
25033SOL    HW176996  11.396   5.553   8.519
25033SOL    HW276997  11.485   5.675   8.530
25034SOL     OW76998   1.038   8.283   3.553
25034SOL    HW176999   0.964   8.334   3.520
25034SOL    HW277000   1.109   8.299   3.490
25035SOL     OW77001   0.295  12.872  11.661
25035SOL    HW177002   0.201  12.875  11.641
25035SOL    HW277003   0.311  12.951  11.713
25036SOL     OW77004  10.808  13.114   6.015
25036SOL    HW177005  10.856  13.085   6.093
25036SOL    HW277006  10.830  13.049   5.948
25037SOL     OW77007   9.214   2.464   6.725
25037SOL    HW177008   9.235   2.397   6.659
25037SOL    HW277009   9.289   2.462   6.785
25038SOL     OW77010   2.291   2.758   0.186
25038SOL    HW177011   2.383   2.768   0.211
25038SOL    HW277012   2.282   2.811   0.107
25039SOL     OW77013   7.008   1.810  10.834
25039SOL    HW177014   6.995   1.855  10.751
25039SOL    HW277015   6.927   1.762  10.849
25040SOL     OW77016   2.667  10.801   4.462
25040SOL    HW177017   2.761  10.781   4.466
25040SOL    HW277018   2.648  10.841   4.547
25041SOL     OW77019  11.352   8.531  11.157
25041SOL    HW177020  11.442   8.512  11.131
25041SOL    HW277021  11.298   8.469  11.107
25042SOL     OW77022  13.329  13.065   8.410
25042SOL    HW177023  13.260  13.065   8.343
25042SOL    HW277024  13.298  13.002   8.476
25043SOL     OW77025   8.641   3.352   4.677
25043SOL    HW177026   8.681   3.416   4.736
25043SOL    HW277027   8.644   3.270   4.726
25044SOL     OW77028  11.675   6.325  11.217
25044SOL    HW177029  11.673   6.334  11.313
25044SOL    HW277030  11.689   6.231  11.203
25045SOL     OW77031   0.657   4.931  14.363
25045SOL    HW177032   0.579   4.943  14.417
25045SOL    HW277033   0.719   4.996  14.396
25046SOL     OW77034  10.365  12.401   3.914
25046SOL    HW177035  10.326  12.426   3.830
25046SOL    HW277036  10.368  12.305   3.912
25047SOL     OW77037   9.000   2.509  12.756
25047SOL    HW177038   8.952   2.562  12.820
25047SOL    HW277039   8.995   2.420  12.790
25048SOL     OW77040   6.381   0.379  10.950
25048SOL    HW177041   6.398   0.334  11.033
25048SOL    HW277042   6.365   0.470  10.975
25049SOL     OW77043  14.184  11.270  13.354
25049SOL    HW177044  14.128  11.231  13.287
25049SOL    HW277045  14.130  11.338  13.393
25050SOL     OW77046   9.723   9.369  12.505
25050SOL    HW177047   9.740   9.327  12.589
25050SOL    HW277048   9.807   9.364  12.459
25051SOL     OW77049  13.956   5.293   2.312
25051SOL    HW177050  13.996   5.351   2.377
25051SOL    HW277051  13.990   5.325   2.228
25052SOL     OW77052  11.385  10.134   3.361
25052SOL    HW177053  11.365  10.077   3.435
25052SOL    HW277054  11.468  10.099   3.326
25053SOL     OW77055   3.318   6.877   6.386
25053SOL    HW177056   3.361   6.948   6.433
25053SOL    HW277057   3.326   6.801   6.445
25054SOL     OW77058  12.902   7.276   2.377
25054SOL    HW177059  12.976   7.287   2.318
25054SOL    HW277060  12.870   7.187   2.358
25055SOL     OW77061   6.239  11.137   8.393
25055SOL    HW177062   6.180  11.176   8.457
25055SOL    HW277063   6.272  11.058   8.436
25056SOL     OW77064   6.089  10.760  14.621
25056SOL    HW177065   6.088  10.777  14.715
25056SOL    HW277066   6.062  10.843  14.581
25057SOL     OW77067   4.099   1.130   5.479
25057SOL    HW177068   4.096   1.211   5.531
25057SOL    HW277069   4.187   1.131   5.440
25058SOL     OW77070  12.417  10.391   3.238
25058SOL    HW177071  12.511  10.405   3.248
25058SOL    HW277072  12.389  10.459   3.177
25059SOL     OW77073   2.731   3.587  14.523
25059SOL    HW177074   2.802   3.645  14.496
25059SOL    HW277075   2.726   3.597  14.618
25060SOL     OW77076   3.967   2.054  10.905
25060SOL    HW177077   4.011   2.066  10.990
25060SOL    HW277078   3.936   2.142  10.882
25061SOL     OW77079   7.303   9.099   1.401
25061SOL    HW177080   7.317   9.191   1.377
25061SOL    HW277081   7.240   9.103   1.473
25062SOL     OW77082   9.732   2.629   7.976
25062SOL    HW177083   9.821   2.664   7.963
25062SOL    HW277084   9.729   2.553   7.918
25063SOL     OW77085   8.618   1.336   1.094
25063SOL    HW177086   8.677   1.261   1.106
25063SOL    HW277087   8.663   1.408   1.138
25064SOL     OW77088   8.271   4.694  10.359
25064SOL    HW177089   8.252   4.750  10.435
25064SOL    HW277090   8.186   4.654  10.338
25065SOL     OW77091   5.737  12.723  12.075
25065SOL    HW177092   5.820  12.716  12.122
25065SOL    HW277093   5.750  12.797  12.016
25066SOL     OW77094   7.470   8.661   9.585
25066SOL    HW177095   7.446   8.749   9.615
25066SOL    HW277096   7.414   8.602   9.635
25067SOL     OW77097  10.891   3.108  10.699
25067SOL    HW177098  10.904   3.167  10.625
25067SOL    HW277099  10.848   3.161  10.765
25068SOL     OW77100   3.962   5.876  12.433
25068SOL    HW177101   3.952   5.798  12.378
25068SOL    HW277102   3.911   5.943  12.389
25069SOL     OW77103  13.876   4.147   2.612
25069SOL    HW177104  13.880   4.187   2.525
25069SOL    HW277105  13.958   4.172   2.654
25070SOL     OW77106   4.285   6.209   1.015
25070SOL    HW177107   4.266   6.295   0.977
25070SOL    HW277108   4.339   6.165   0.950
25071SOL     OW77109   3.580  11.081   4.621
25071SOL    HW177110   3.519  11.048   4.555
25071SOL    HW277111   3.524  11.111   4.693
25072SOL     OW77112   5.363   3.289   0.011
25072SOL    HW177113   5.303   3.227   0.054
25072SOL    HW277114   5.326   3.375   0.033
25073SOL     OW77115   6.169   5.957   4.265
25073SOL    HW177116   6.147   5.882   4.320
25073SOL    HW277117   6.220   6.015   4.323
25074SOL     OW77118  10.200  14.538   7.871
25074SOL    HW177119  10.283  14.521   7.915
25074SOL    HW277120  10.182  14.458   7.823
25075SOL     OW77121   8.414  10.609   7.647
25075SOL    HW177122   8.418  10.520   7.682
25075SOL    HW277123   8.389  10.663   7.722
25076SOL     OW77124   9.331  12.701   7.022
25076SOL    HW177125   9.394  12.689   7.093
25076SOL    HW277126   9.289  12.616   7.013
25077SOL     OW77127   2.479  10.245  12.738
25077SOL    HW177128   2.442  10.254  12.650
25077SOL    HW277129   2.414  10.194  12.786
25078SOL     OW77130  10.779   9.643  13.747
25078SOL    HW177131  10.786   9.738  13.750
25078SOL    HW277132  10.686   9.626  13.729
25079SOL     OW77133   8.126   6.116   8.404
25079SOL    HW177134   8.094   6.197   8.445
25079SOL    HW277135   8.193   6.146   8.342
25080SOL     OW77136   1.873   3.421  13.081
25080SOL    HW177137   1.960   3.457  13.066
25080SOL    HW277138   1.888   3.339  13.128
25081SOL     OW77139   1.122  13.903   8.796
25081SOL    HW177140   1.056  13.972   8.783
25081SOL    HW277141   1.086  13.827   8.751
25082SOL     OW77142  14.572   9.413   9.123
25082SOL    HW177143  14.581   9.318   9.114
25082SOL    HW277144  14.595   9.431   9.214
25083SOL     OW77145   0.428  10.386  10.788
25083SOL    HW177146   0.506  10.331  10.802
25083SOL    HW277147   0.377  10.338  10.723
25084SOL     OW77148   8.774   5.848  13.766
25084SOL    HW177149   8.808   5.866  13.854
25084SOL    HW277150   8.851   5.827  13.714
25085SOL     OW77151   6.269  13.700   5.229
25085SOL    HW177152   6.343  13.758   5.214
25085SOL    HW277153   6.194  13.759   5.238
25086SOL     OW77154   4.614   8.761   4.561
25086SOL    HW177155   4.555   8.718   4.622
25086SOL    HW277156   4.599   8.716   4.477
25087SOL     OW77157   9.784  13.849   0.498
25087SOL    HW177158   9.870  13.819   0.469
25087SOL    HW277159   9.790  13.848   0.593
25088SOL     OW77160   6.371   8.244   5.622
25088SOL    HW177161   6.380   8.317   5.561
25088SOL    HW277162   6.382   8.166   5.568
25089SOL     OW77163   9.363   9.842  14.394
25089SOL    HW177164   9.325   9.883  14.316
25089SOL    HW277165   9.319   9.757  14.400
25090SOL     OW77166  14.763   3.164   2.584
25090SOL    HW177167  14.740   3.211   2.504
25090SOL    HW277168  14.785   3.233   2.647
25091SOL     OW77169  14.127   9.712  11.688
25091SOL    HW177170  14.106   9.718  11.594
25091SOL    HW277171  14.108   9.621  11.711
25092SOL     OW77172   3.070   8.856  14.601
25092SOL    HW177173   3.110   8.943  14.596
25092SOL    HW277174   3.021   8.847  14.520
25093SOL     OW77175  10.340  13.253   6.303
25093SOL    HW177176  10.398  13.328   6.292
25093SOL    HW277177  10.372  13.188   6.240
25094SOL     OW77178  11.295   9.333   7.252
25094SOL    HW177179  11.351   9.386   7.308
25094SOL    HW277180  11.210   9.334   7.296
25095SOL     OW77181   3.164   8.982   1.421
25095SOL    HW177182   3.098   8.983   1.490
25095SOL    HW277183   3.245   8.956   1.466
25096SOL     OW77184   3.846   0.377  11.838
25096SOL    HW177185   3.772   0.377  11.899
25096SOL    HW277186   3.819   0.317  11.769
25097SOL     OW77187  10.615   8.823  10.111
25097SOL    HW177188  10.578   8.910  10.093
25097SOL    HW277189  10.682   8.839  10.177
25098SOL     OW77190   2.775   5.193   6.347
25098SOL    HW177191   2.731   5.129   6.290
25098SOL    HW277192   2.737   5.178   6.433
25099SOL     OW77193  13.077   5.740   7.614
25099SOL    HW177194  13.038   5.714   7.531
25099SOL    HW277195  13.014   5.802   7.652
25100SOL     OW77196   1.396   6.709  14.797
25100SOL    HW177197   1.486   6.725  14.769
25100SOL    HW277198   1.390   6.751  14.883
25101SOL     OW77199  10.076   6.475   6.948
25101SOL    HW177200  10.106   6.391   6.913
25101SOL    HW277201  10.145   6.502   7.010
25102SOL     OW77202   2.208   7.140   5.150
25102SOL    HW177203   2.150   7.080   5.196
25102SOL    HW277204   2.187   7.226   5.186
25103SOL     OW77205   4.314   7.454  14.326
25103SOL    HW177206   4.381   7.427  14.263
25103SOL    HW277207   4.231   7.428  14.285
25104SOL     OW77208   7.202  11.981  13.063
25104SOL    HW177209   7.157  11.902  13.092
25104SOL    HW277210   7.133  12.037  13.028
25105SOL     OW77211   0.929  13.764   6.098
25105SOL    HW177212   0.932  13.762   6.194
25105SOL    HW277213   0.861  13.827   6.077
25106SOL     OW77214  14.625   8.771  12.305
25106SOL    HW177215  14.620   8.774  12.400
25106SOL    HW277216  14.639   8.679  12.283
25107SOL     OW77217   3.613  12.997   6.403
25107SOL    HW177218   3.646  13.012   6.314
25107SOL    HW277219   3.539  13.056   6.412
25108SOL     OW77220  13.024  13.155   0.906
25108SOL    HW177221  13.076  13.218   0.856
25108SOL    HW277222  13.034  13.073   0.859
25109SOL     OW77223   8.955   9.551   6.564
25109SOL    HW177224   8.964   9.470   6.512
25109SOL    HW277225   8.889   9.602   6.516
25110SOL     OW77226  12.491   8.941   7.646
25110SOL    HW177227  12.514   8.894   7.726
25110SOL    HW277228  12.399   8.919   7.631
25111SOL     OW77229  13.076   7.945   8.468
25111SOL    HW177230  13.047   7.864   8.428
25111SOL    HW277231  13.120   7.918   8.549
25112SOL     OW77232   0.807   7.297   0.696
25112SOL    HW177233   0.771   7.324   0.781
25112SOL    HW277234   0.866   7.225   0.717
25113SOL     OW77235   1.521  10.477   7.014
25113SOL    HW177236   1.606  10.509   6.983
25113SOL    HW277237   1.494  10.542   7.079
25114SOL     OW77238   0.431   2.617   7.683
25114SOL    HW177239   0.412   2.670   7.605
25114SOL    HW277240   0.390   2.532   7.664
25115SOL     OW77241   4.863   9.664   9.557
25115SOL    HW177242   4.860   9.589   9.616
25115SOL    HW277243   4.954   9.666   9.526
25116SOL     OW77244   0.378   9.385   4.591
25116SOL    HW177245   0.469   9.376   4.564
25116SOL    HW277246   0.354   9.298   4.625
25117SOL     OW77247   1.760  12.785   3.295
25117SOL    HW177248   1.805  12.786   3.380
25117SOL    HW277249   1.769  12.874   3.261
25118SOL     OW77250  12.354   8.842   6.795
25118SOL    HW177251  12.311   8.834   6.880
25118SOL    HW277252  12.397   8.927   6.798
25119SOL     OW77253   2.957   8.683   3.664
25119SOL    HW177254   2.927   8.706   3.575
25119SOL    HW277255   3.051   8.697   3.661
25120SOL     OW77256   0.185  12.605   4.243
25120SOL    HW177257   0.116  12.598   4.177
25120SOL    HW277258   0.146  12.656   4.313
25121SOL     OW77259   8.519   9.211   0.305
25121SOL    HW177260   8.439   9.186   0.258
25121SOL    HW277261   8.589   9.163   0.262
25122SOL     OW77262  10.419   9.903   5.183
25122SOL    HW177263  10.351   9.922   5.247
25122SOL    HW277264  10.463   9.825   5.218
25123SOL     OW77265  10.518  12.728   3.412
25123SOL    HW177266  10.611  12.747   3.423
25123SOL    HW277267  10.509  12.635   3.435
25124SOL     OW77268  12.752  13.463   8.693
25124SOL    HW177269  12.684  13.521   8.726
25124SOL    HW277270  12.784  13.505   8.613
25125SOL     OW77271  13.965   5.122  10.721
25125SOL    HW177272  13.872   5.148  10.719
25125SOL    HW277273  13.970   5.045  10.664
25126SOL     OW77274   6.756   0.651  10.749
25126SOL    HW177275   6.832   0.628  10.696
25126SOL    HW277276   6.747   0.746  10.738
25127SOL     OW77277  12.408   2.740  10.359
25127SOL    HW177278  12.419   2.816  10.301
25127SOL    HW277279  12.484   2.744  10.417
25128SOL     OW77280   6.734   7.208  11.889
25128SOL    HW177281   6.792   7.229  11.816
25128SOL    HW277282   6.658   7.264  11.876
25129SOL     OW77283  14.351  14.256  13.749
25129SOL    HW177284  14.297  14.304  13.812
25129SOL    HW277285  14.432  14.307  13.744
25130SOL     OW77286  11.725  10.142  13.259
25130SOL    HW177287  11.688  10.171  13.176
25130SOL    HW277288  11.734  10.222  13.311
25131SOL     OW77289  11.831  14.079  11.753
25131SOL    HW177290  11.750  14.044  11.716
25131SOL    HW277291  11.879  14.001  11.784
25132SOL     OW77292   2.937  10.247   0.628
25132SOL    HW177293   3.005  10.212   0.686
25132SOL    HW277294   2.948  10.341   0.631
25133SOL     OW77295   1.488   1.887   9.809
25133SOL    HW177296   1.461   1.810   9.760
25133SOL    HW277297   1.446   1.960   9.763
25134SOL     OW77298   6.617   9.367   6.759
25134SOL    HW177299   6.660   9.291   6.798
25134SOL    HW277300   6.523   9.348   6.767
25135SOL     OW77301  12.437   4.101   9.082
25135SOL    HW177302  12.344   4.082   9.070
25135SOL    HW277303  12.440   4.196   9.096
25136SOL     OW77304  14.519   1.742   0.838
25136SOL    HW177305  14.578   1.791   0.782
25136SOL    HW277306  14.459   1.808   0.873
25137SOL     OW77307  13.206   0.505   4.849
25137SOL    HW177308  13.143   0.505   4.778
25137SOL    HW277309  13.183   0.582   4.902
25138SOL     OW77310  10.098  10.815   8.525
25138SOL    HW177311  10.060  10.738   8.482
25138SOL    HW277312  10.172  10.780   8.574
25139SOL     OW77313  12.733   3.332  10.963
25139SOL    HW177314  12.827   3.336  10.982
25139SOL    HW277315  12.723   3.385  10.883
25140SOL     OW77316   3.201  12.976   3.843
25140SOL    HW177317   3.274  13.017   3.889
25140SOL    HW277318   3.125  12.993   3.899
25141SOL     OW77319  12.915  10.792   5.437
25141SOL    HW177320  12.946  10.723   5.495
25141SOL    HW277321  12.964  10.871   5.464
25142SOL     OW77322   7.880   4.759   6.743
25142SOL    HW177323   7.882   4.770   6.838
25142SOL    HW277324   7.839   4.673   6.730
25143SOL     OW77325  11.376   8.141  12.381
25143SOL    HW177326  11.471   8.140  12.396
25143SOL    HW277327  11.352   8.049  12.373
25144SOL     OW77328   6.456   8.162  10.336
25144SOL    HW177329   6.524   8.097  10.354
25144SOL    HW277330   6.490   8.211  10.260
25145SOL     OW77331   0.968   5.914   4.455
25145SOL    HW177332   0.897   5.883   4.399
25145SOL    HW277333   1.001   5.835   4.498
25146SOL     OW77334  12.637  13.537   1.533
25146SOL    HW177335  12.654  13.582   1.450
25146SOL    HW277336  12.562  13.481   1.515
25147SOL     OW77337   4.620   8.908  14.362
25147SOL    HW177338   4.576   8.984  14.322
25147SOL    HW277339   4.618   8.926  14.456
25148SOL     OW77340  10.881   9.562   0.766
25148SOL    HW177341  10.794   9.540   0.732
25148SOL    HW277342  10.918   9.620   0.699
25149SOL     OW77343   1.672   5.505  13.522
25149SOL    HW177344   1.608   5.573  13.505
25149SOL    HW277345   1.661   5.443  13.450
25150SOL     OW77346   1.988   4.977   6.003
25150SOL    HW177347   1.932   5.023   6.065
25150SOL    HW277348   2.026   4.905   6.054
25151SOL     OW77349   4.339   4.425   0.885
25151SOL    HW177350   4.319   4.372   0.808
25151SOL    HW277351   4.297   4.378   0.957
25152SOL     OW77352   8.961   9.512  14.143
25152SOL    HW177353   8.914   9.584  14.100
25152SOL    HW277354   8.893   9.446  14.161
25153SOL     OW77355   1.000  14.219   3.888
25153SOL    HW177356   1.087  14.259   3.892
25153SOL    HW277357   0.966  14.227   3.977
25154SOL     OW77358   2.265  12.934   5.329
25154SOL    HW177359   2.319  12.891   5.395
25154SOL    HW277360   2.212  12.864   5.292
25155SOL     OW77361  14.331   7.495   5.828
25155SOL    HW177362  14.314   7.558   5.757
25155SOL    HW277363  14.357   7.415   5.783
25156SOL     OW77364   8.640   7.809  14.023
25156SOL    HW177365   8.726   7.769  14.037
25156SOL    HW277366   8.606   7.822  14.111
25157SOL     OW77367   3.603  14.457   8.392
25157SOL    HW177368   3.565  14.370   8.401
25157SOL    HW277369   3.592  14.497   8.479
25158SOL     OW77370  14.421   7.524   7.548
25158SOL    HW177371  14.376   7.484   7.474
25158SOL    HW277372  14.362   7.512   7.622
25159SOL     OW77373  11.276   6.362  11.019
25159SOL    HW177374  11.279   6.312  11.100
25159SOL    HW277375  11.183   6.382  11.006
25160SOL     OW77376   8.377  13.751   7.499
25160SOL    HW177377   8.287  13.718   7.505
25160SOL    HW277378   8.408  13.752   7.590
25161SOL     OW77379   0.729  13.768   5.688
25161SOL    HW177380   0.672  13.697   5.720
25161SOL    HW277381   0.686  13.801   5.610
25162SOL     OW77382   9.278   1.309   5.404
25162SOL    HW177383   9.233   1.252   5.341
25162SOL    HW277384   9.357   1.337   5.358
25163SOL     OW77385   0.347   4.308   9.513
25163SOL    HW177386   0.392   4.225   9.529
25163SOL    HW277387   0.368   4.361   9.590
25164SOL     OW77388   5.084   2.361   7.312
25164SOL    HW177389   5.078   2.278   7.267
25164SOL    HW277390   5.007   2.364   7.368
25165SOL     OW77391  13.649  11.156  12.521
25165SOL    HW177392  13.654  11.064  12.545
25165SOL    HW277393  13.736  11.191  12.537
25166SOL     OW77394   5.060  10.048  12.271
25166SOL    HW177395   5.096   9.962  12.292
25166SOL    HW277396   4.965  10.033  12.267
25167SOL     OW77397   4.142   6.801   6.446
25167SOL    HW177398   4.173   6.716   6.478
25167SOL    HW277399   4.208   6.864   6.477
25168SOL     OW77400  12.643  11.042   4.145
25168SOL    HW177401  12.666  11.094   4.222
25168SOL    HW277402  12.654  11.102   4.071
25169SOL     OW77403   5.203   2.035   4.392
25169SOL    HW177404   5.163   2.112   4.432
25169SOL    HW277405   5.295   2.041   4.415
25170SOL     OW77406   1.767  10.990   2.116
25170SOL    HW177407   1.730  10.910   2.078
25170SOL    HW277408   1.701  11.018   2.180
25171SOL     OW77409   3.564   4.076   8.263
25171SOL    HW177410   3.522   4.158   8.234
25171SOL    HW277411   3.520   4.008   8.213
25172SOL     OW77412  10.619   7.523   1.742
25172SOL    HW177413  10.690   7.459   1.739
25172SOL    HW277414  10.596   7.530   1.834
25173SOL     OW77415   8.680  12.610   0.642
25173SOL    HW177416   8.725  12.650   0.716
25173SOL    HW277417   8.749  12.590   0.579
25174SOL     OW77418  11.286   2.328   6.029
25174SOL    HW177419  11.276   2.403   6.087
25174SOL    HW277420  11.226   2.345   5.956
25175SOL     OW77421  10.386  12.685   0.724
25175SOL    HW177422  10.340  12.724   0.799
25175SOL    HW277423  10.447  12.622   0.763
25176SOL     OW77424   9.602   3.622   6.868
25176SOL    HW177425   9.579   3.675   6.944
25176SOL    HW277426   9.635   3.540   6.905
25177SOL     OW77427  12.621   8.828   2.480
25177SOL    HW177428  12.538   8.875   2.480
25177SOL    HW277429  12.686   8.894   2.505
25178SOL     OW77430   5.214   3.937   1.355
25178SOL    HW177431   5.202   3.888   1.273
25178SOL    HW277432   5.140   3.998   1.357
25179SOL     OW77433  12.026   7.075   9.531
25179SOL    HW177434  12.095   7.076   9.597
25179SOL    HW277435  11.949   7.042   9.577
25180SOL     OW77436   5.776  10.409   2.701
25180SOL    HW177437   5.702  10.380   2.754
25180SOL    HW277438   5.850  10.358   2.732
25181SOL     OW77439   8.027  13.485  14.001
25181SOL    HW177440   8.090  13.413  14.000
25181SOL    HW277441   8.037  13.524  14.088
25182SOL     OW77442  10.070  10.718   2.022
25182SOL    HW177443  10.022  10.638   2.043
25182SOL    HW277444  10.033  10.785   2.080
25183SOL     OW77445   0.448   2.895   9.216
25183SOL    HW177446   0.402   2.935   9.143
25183SOL    HW277447   0.462   2.804   9.188
25184SOL     OW77448   9.058  14.486   2.149
25184SOL    HW177449   9.074  14.547   2.077
25184SOL    HW277450   8.979  14.439   2.123
25185SOL     OW77451   3.697   1.216   2.803
25185SOL    HW177452   3.691   1.177   2.890
25185SOL    HW277453   3.695   1.141   2.743
25186SOL     OW77454  10.633  14.876   2.958
25186SOL    HW177455  10.631  14.805   2.894
25186SOL    HW277456  10.687   0.056   2.918
25187SOL     OW77457   6.938  10.304   1.332
25187SOL    HW177458   7.015  10.253   1.356
25187SOL    HW277459   6.971  10.393   1.320
25188SOL     OW77460  13.366   8.385   9.620
25188SOL    HW177461  13.332   8.428   9.541
25188SOL    HW277462  13.351   8.448   9.690
25189SOL     OW77463   2.042   5.399  12.194
25189SOL    HW177464   2.043   5.484  12.237
25189SOL    HW277465   1.979   5.409  12.122
25190SOL     OW77466   6.362   5.568   1.374
25190SOL    HW177467   6.293   5.585   1.438
25190SOL    HW277468   6.419   5.504   1.417
25191SOL     OW77469  10.975   5.304   9.948
25191SOL    HW177470  10.905   5.363   9.924
25191SOL    HW277471  10.946   5.218   9.918
25192SOL     OW77472   1.225  13.730  10.438
25192SOL    HW177473   1.318  13.714  10.451
25192SOL    HW277474   1.207  13.698  10.349
25193SOL     OW77475   5.286   3.584   4.490
25193SOL    HW177476   5.260   3.596   4.581
25193SOL    HW277477   5.248   3.659   4.444
25194SOL     OW77478  11.484  11.033   9.420
25194SOL    HW177479  11.525  11.071   9.342
25194SOL    HW277480  11.393  11.020   9.396
25195SOL     OW77481  14.874  14.606   4.150
25195SOL    HW177482   0.082  14.610   4.156
25195SOL    HW277483  14.855  14.612   4.057
25196SOL     OW77484   9.791   9.217   2.112
25196SOL    HW177485   9.807   9.305   2.080
25196SOL    HW277486   9.696   9.213   2.124
25197SOL     OW77487  11.269  13.293   4.056
25197SOL    HW177488  11.217  13.368   4.026
25197SOL    HW277489  11.302  13.320   4.142
25198SOL     OW77490   4.393   8.279   6.258
25198SOL    HW177491   4.447   8.353   6.230
25198SOL    HW277492   4.395   8.282   6.353
25199SOL     OW77493   7.062   2.800   2.424
25199SOL    HW177494   7.141   2.760   2.461
25199SOL    HW277495   6.997   2.730   2.425
25200SOL     OW77496   4.652   6.497   7.345
25200SOL    HW177497   4.699   6.567   7.300
25200SOL    HW277498   4.612   6.540   7.421
25201SOL     OW77499   8.257   8.314   3.978
25201SOL    HW177500   8.201   8.391   3.974
25201SOL    HW277501   8.315   8.330   4.052
25202SOL     OW77502   0.486   4.621   4.818
25202SOL    HW177503   0.406   4.590   4.777
25202SOL    HW277504   0.553   4.611   4.751
25203SOL     OW77505   9.632   7.529   8.742
25203SOL    HW177506   9.633   7.437   8.769
25203SOL    HW277507   9.709   7.539   8.686
25204SOL     OW77508   5.142  13.834   1.486
25204SOL    HW177509   5.051  13.827   1.457
25204SOL    HW277510   5.176  13.744   1.481
25205SOL     OW77511   3.348   2.359   9.306
25205SOL    HW177512   3.345   2.417   9.230
25205SOL    HW277513   3.264   2.312   9.304
25206SOL     OW77514   1.770  11.244  10.483
25206SOL    HW177515   1.809  11.182  10.544
25206SOL    HW277516   1.746  11.319  10.537
25207SOL     OW77517   8.888  11.100   6.047
25207SOL    HW177518   8.967  11.139   6.008
25207SOL    HW277519   8.833  11.175   6.068
25208SOL     OW77520   8.861  11.508  10.836
25208SOL    HW177521   8.832  11.438  10.778
25208SOL    HW277522   8.956  11.512  10.823
25209SOL     OW77523   6.787  13.909   3.841
25209SOL    HW177524   6.752  13.973   3.904
25209SOL    HW277525   6.879  13.933   3.832
25210SOL     OW77526   1.231  13.167   8.720
25210SOL    HW177527   1.237  13.257   8.688
25210SOL    HW277528   1.304  13.121   8.678
25211SOL     OW77529   4.587   3.792  13.947
25211SOL    HW177530   4.511   3.827  13.902
25211SOL    HW277531   4.575   3.819  14.039
25212SOL     OW77532   2.966   6.890   0.908
25212SOL    HW177533   3.017   6.843   0.841
25212SOL    HW277534   2.876   6.887   0.876
25213SOL     OW77535   6.510  12.849   2.301
25213SOL    HW177536   6.519  12.777   2.239
25213SOL    HW277537   6.547  12.925   2.256
25214SOL     OW77538  11.937   2.437  10.999
25214SOL    HW177539  12.021   2.478  11.023
25214SOL    HW277540  11.872   2.507  11.012
25215SOL     OW77541   9.914   1.027   3.079
25215SOL    HW177542   9.916   0.992   2.990
25215SOL    HW277543   9.829   1.001   3.114
25216SOL     OW77544   5.503  14.008   6.661
25216SOL    HW177545   5.480  14.077   6.724
25216SOL    HW277546   5.420  13.969   6.637
25217SOL     OW77547   1.627   6.090  11.129
25217SOL    HW177548   1.580   6.092  11.046
25217SOL    HW277549   1.561   6.062  11.193
25218SOL     OW77550  12.192  10.621   0.194
25218SOL    HW177551  12.167  10.529   0.201
25218SOL    HW277552  12.123  10.660   0.140
25219SOL     OW77553   8.902  14.847   0.278
25219SOL    HW177554   8.897   0.008   0.360
25219SOL    HW277555   8.811  14.841   0.249
25220SOL     OW77556   6.730   9.491   3.431
25220SOL    HW177557   6.810   9.511   3.479
25220SOL    HW277558   6.758   9.432   3.361
25221SOL     OW77559  12.782  12.438  14.766
25221SOL    HW177560  12.756  12.359  14.814
25221SOL    HW277561  12.866  12.416  14.726
25222SOL     OW77562   2.575  12.719  13.655
25222SOL    HW177563   2.548  12.627  13.661
25222SOL    HW277564   2.540  12.748  13.571
25223SOL     OW77565  13.843  10.481   4.262
25223SOL    HW177566  13.764  10.526   4.291
25223SOL    HW277567  13.892  10.466   4.343
25224SOL     OW77568  11.153  11.606  13.799
25224SOL    HW177569  11.108  11.536  13.753
25224SOL    HW277570  11.209  11.646  13.732
25225SOL     OW77571  11.999   7.117   5.540
25225SOL    HW177572  12.057   7.119   5.463
25225SOL    HW277573  12.039   7.178   5.601
25226SOL     OW77574  13.974  11.729   7.028
25226SOL    HW177575  14.021  11.812   7.016
25226SOL    HW277576  13.904  11.732   6.963
25227SOL     OW77577  10.103  11.828  11.880
25227SOL    HW177578  10.133  11.851  11.968
25227SOL    HW277579  10.064  11.908  11.845
25228SOL     OW77580   9.305   0.930   6.282
25228SOL    HW177581   9.274   1.020   6.290
25228SOL    HW277582   9.311   0.915   6.188
25229SOL     OW77583  14.022   8.183  13.285
25229SOL    HW177584  13.957   8.113  13.291
25229SOL    HW277585  14.022   8.208  13.193
25230SOL     OW77586  14.181   9.364  11.439
25230SOL    HW177587  14.133   9.380  11.520
25230SOL    HW277588  14.227   9.447  11.422
25231SOL     OW77589   2.752   5.202  12.866
25231SOL    HW177590   2.803   5.274  12.905
25231SOL    HW277591   2.773   5.126  12.920
25232SOL     OW77592   6.255   4.536   1.574
25232SOL    HW177593   6.196   4.501   1.507
25232SOL    HW277594   6.279   4.459   1.626
25233SOL     OW77595  13.677   0.564   3.485
25233SOL    HW177596  13.641   0.562   3.396
25233SOL    HW277597  13.626   0.498   3.532
25234SOL     OW77598   2.582  13.726  11.099
25234SOL    HW177599   2.632  13.800  11.066
25234SOL    HW277600   2.589  13.731  11.194
25235SOL     OW77601  13.175   3.985   7.817
25235SOL    HW177602  13.260   3.984   7.862
25235SOL    HW277603  13.121   3.923   7.866
25236SOL     OW77604  13.320  10.305   4.479
25236SOL    HW177605  13.253  10.277   4.542
25236SOL    HW277606  13.382  10.357   4.531
25237SOL     OW77607  14.458  11.697   2.866
25237SOL    HW177608  14.441  11.775   2.920
25237SOL    HW277609  14.553  11.690   2.864
25238SOL     OW77610   9.751   5.658   9.036
25238SOL    HW177611   9.802   5.726   9.081
25238SOL    HW277612   9.817   5.596   9.006
25239SOL     OW77613  13.091   1.761  11.196
25239SOL    HW177614  13.105   1.670  11.222
25239SOL    HW277615  13.065   1.806  11.276
25240SOL     OW77616   5.085   3.957  10.313
25240SOL    HW177617   5.156   3.897  10.289
25240SOL    HW277618   5.032   3.907  10.376
25241SOL     OW77619   7.655  14.036   4.516
25241SOL    HW177620   7.593  14.100   4.480
25241SOL    HW277621   7.740  14.078   4.511
25242SOL     OW77622   5.163   0.763   0.323
25242SOL    HW177623   5.211   0.846   0.328
25242SOL    HW277624   5.178   0.732   0.234
25243SOL     OW77625  11.735   6.753   4.839
25243SOL    HW177626  11.680   6.762   4.917
25243SOL    HW277627  11.673   6.751   4.766
25244SOL     OW77628  13.224   0.212  14.334
25244SOL    HW177629  13.140   0.239  14.371
25244SOL    HW277630  13.258   0.291  14.293
25245SOL     OW77631   4.145  11.684   5.153
25245SOL    HW177632   4.227  11.685   5.104
25245SOL    HW277633   4.078  11.706   5.089
25246SOL     OW77634  11.673   8.576  12.970
25246SOL    HW177635  11.629   8.561  12.887
25246SOL    HW277636  11.674   8.491  13.013
25247SOL     OW77637   5.729  14.712   4.197
25247SOL    HW177638   5.634  14.721   4.204
25247SOL    HW277639   5.745  14.694   4.105
25248SOL     OW77640  14.874   8.987   1.762
25248SOL    HW177641  14.824   8.995   1.681
25248SOL    HW277642  14.853   8.900   1.795
25249SOL     OW77643   0.256   2.659  12.356
25249SOL    HW177644   0.278   2.571  12.326
25249SOL    HW277645   0.161   2.665  12.342
25250SOL     OW77646   3.026  13.481   7.000
25250SOL    HW177647   3.087  13.447   7.066
25250SOL    HW277648   3.081  13.498   6.924
25251SOL     OW77649  10.823  14.071  13.682
25251SOL    HW177650  10.819  14.044  13.774
25251SOL    HW277651  10.739  14.043  13.645
25252SOL     OW77652   4.871   2.167   0.565
25252SOL    HW177653   4.927   2.167   0.487
25252SOL    HW277654   4.933   2.170   0.639
25253SOL     OW77655  11.249   2.745   6.879
25253SOL    HW177656  11.230   2.821   6.934
25253SOL    HW277657  11.268   2.781   6.793
25254SOL     OW77658   3.954  11.211  12.300
25254SOL    HW177659   3.877  11.228  12.355
25254SOL    HW277660   3.970  11.117  12.309
25255SOL     OW77661   3.867   3.617  11.316
25255SOL    HW177662   3.839   3.637  11.227
25255SOL    HW277663   3.916   3.535  11.308
25256SOL     OW77664   0.763   7.730  13.691
25256SOL    HW177665   0.753   7.642  13.655
25256SOL    HW277666   0.842   7.764  13.648
25257SOL     OW77667   7.096   2.569   9.714
25257SOL    HW177668   7.096   2.494   9.655
25257SOL    HW277669   7.030   2.628   9.678
25258SOL     OW77670  13.258   7.771   2.690
25258SOL    HW177671  13.246   7.772   2.595
25258SOL    HW277672  13.332   7.830   2.706
25259SOL     OW77673  10.253  14.866  10.000
25259SOL    HW177674  10.335  14.854   9.951
25259SOL    HW277675  10.184  14.850   9.935
25260SOL     OW77676  10.512   0.481   6.041
25260SOL    HW177677  10.486   0.392   6.062
25260SOL    HW277678  10.453   0.508   5.970
25261SOL     OW77679   1.069  11.159  12.312
25261SOL    HW177680   1.105  11.243  12.283
25261SOL    HW277681   1.101  11.149  12.402
25262SOL     OW77682  12.699   5.435   8.325
25262SOL    HW177683  12.656   5.352   8.305
25262SOL    HW277684  12.636   5.483   8.379
25263SOL     OW77685  14.114   1.643   9.351
25263SOL    HW177686  14.044   1.590   9.391
25263SOL    HW277687  14.103   1.729   9.391
25264SOL     OW77688   9.926   5.456   8.908
25264SOL    HW177689   9.915   5.421   8.820
25264SOL    HW277690   9.950   5.380   8.962
25265SOL     OW77691   7.886   7.185  12.177
25265SOL    HW177692   7.899   7.245  12.250
25265SOL    HW277693   7.961   7.127  12.179
25266SOL     OW77694  14.722  12.854   2.768
25266SOL    HW177695  14.712  12.909   2.845
25266SOL    HW277696  14.815  12.830   2.767
25267SOL     OW77697   4.275   7.806   2.984
25267SOL    HW177698   4.346   7.867   2.965
25267SOL    HW277699   4.303   7.723   2.944
25268SOL     OW77700   7.528   0.675   4.355
25268SOL    HW177701   7.433   0.675   4.343
25268SOL    HW277702   7.563   0.646   4.271
25269SOL     OW77703   3.966   8.771   7.007
25269SOL    HW177704   3.929   8.682   7.003
25269SOL    HW277705   4.014   8.780   6.924
25270SOL     OW77706  13.328   8.330  13.825
25270SOL    HW177707  13.298   8.241  13.844
25270SOL    HW277708  13.325   8.336  13.729
25271SOL     OW77709   1.708   8.501  11.074
25271SOL    HW177710   1.730   8.548  11.155
25271SOL    HW277711   1.661   8.423  11.104
25272SOL     OW77712   7.459  10.159   4.866
25272SOL    HW177713   7.491  10.211   4.939
25272SOL    HW277714   7.527  10.093   4.851
25273SOL     OW77715   6.419  12.236   9.828
25273SOL    HW177716   6.364  12.217   9.903
25273SOL    HW277717   6.392  12.173   9.761
25274SOL     OW77718   1.017   9.986   7.439
25274SOL    HW177719   1.064   9.967   7.358
25274SOL    HW277720   0.941  10.038   7.412
25275SOL     OW77721   6.651  14.811   9.529
25275SOL    HW177722   6.695  14.762   9.459
25275SOL    HW277723   6.623   0.005   9.487
25276SOL     OW77724   6.482   7.465   8.784
25276SOL    HW177725   6.452   7.485   8.696
25276SOL    HW277726   6.402   7.460   8.837
25277SOL     OW77727   0.442   9.417   5.049
25277SOL    HW177728   0.488   9.355   4.992
25277SOL    HW277729   0.419   9.490   4.990
25278SOL     OW77730   0.853  11.492  13.632
25278SOL    HW177731   0.926  11.430  13.625
25278SOL    HW277732   0.782  11.440  13.669
25279SOL     OW77733   5.338   8.138   6.718
25279SOL    HW177734   5.394   8.110   6.646
25279SOL    HW277735   5.326   8.232   6.704
25280SOL     OW77736   9.694   3.620   9.119
25280SOL    HW177737   9.624   3.664   9.071
25280SOL    HW277738   9.669   3.528   9.122
25281SOL     OW77739  14.685   9.097   6.618
25281SOL    HW177740  14.650   9.063   6.535
25281SOL    HW277741  14.617   9.155   6.651
25282SOL     OW77742   9.490   4.377   8.008
25282SOL    HW177743   9.467   4.445   7.944
25282SOL    HW277744   9.447   4.298   7.974
25283SOL     OW77745   6.760  10.269   7.679
25283SOL    HW177746   6.806  10.194   7.718
25283SOL    HW277747   6.770  10.339   7.744
25284SOL     OW77748   1.008   0.966  14.840
25284SOL    HW177749   0.993   0.974   0.047
25284SOL    HW277750   0.949   1.030  14.801
25285SOL     OW77751   7.124  11.131  11.242
25285SOL    HW177752   7.052  11.074  11.216
25285SOL    HW277753   7.128  11.123  11.338
25286SOL     OW77754  13.084  10.392   6.104
25286SOL    HW177755  13.141  10.330   6.150
25286SOL    HW277756  13.068  10.351   6.019
25287SOL     OW77757  10.606   7.127  12.875
25287SOL    HW177758  10.664   7.117  12.951
25287SOL    HW277759  10.615   7.045  12.827
25288SOL     OW77760   7.566   6.929  10.346
25288SOL    HW177761   7.533   6.929  10.256
25288SOL    HW277762   7.611   6.846  10.355
25289SOL     OW77763  13.257   8.311   3.937
25289SOL    HW177764  13.243   8.346   4.025
25289SOL    HW277765  13.173   8.271   3.914
25290SOL     OW77766  14.705  12.768   0.866
25290SOL    HW177767  14.767  12.733   0.802
25290SOL    HW277768  14.726  12.722   0.947
25291SOL     OW77769  11.683   5.231   5.738
25291SOL    HW177770  11.610   5.181   5.702
25291SOL    HW277771  11.674   5.221   5.833
25292SOL     OW77772   6.294   6.324   1.072
25292SOL    HW177773   6.362   6.346   1.008
25292SOL    HW277774   6.283   6.404   1.124
25293SOL     OW77775   0.104   5.048   8.780
25293SOL    HW177776   0.079   4.991   8.707
25293SOL    HW277777   0.197   5.066   8.765
25294SOL     OW77778   9.416   1.055   7.855
25294SOL    HW177779   9.486   1.022   7.911
25294SOL    HW277780   9.392   0.980   7.800
25295SOL     OW77781   9.127   7.763  13.735
25295SOL    HW177782   9.093   7.695  13.793
25295SOL    HW277783   9.051   7.820  13.720
25296SOL     OW77784   2.284  10.616   4.659
25296SOL    HW177785   2.270  10.683   4.726
25296SOL    HW277786   2.213  10.631   4.596
25297SOL     OW77787   3.848  12.334   8.623
25297SOL    HW177788   3.917  12.291   8.572
25297SOL    HW277789   3.894  12.397   8.678
25298SOL     OW77790  11.502   6.065   1.903
25298SOL    HW177791  11.548   5.986   1.932
25298SOL    HW277792  11.515   6.067   1.808
25299SOL     OW77793  12.521   8.234   7.933
25299SOL    HW177794  12.485   8.309   7.981
25299SOL    HW277795  12.469   8.159   7.963
25300SOL     OW77796   6.857   0.294   7.868
25300SOL    HW177797   6.920   0.282   7.939
25300SOL    HW277798   6.809   0.373   7.892
25301SOL     OW77799   7.521  12.055  10.516
25301SOL    HW177800   7.561  11.971  10.537
25301SOL    HW277801   7.492  12.089  10.600
25302SOL     OW77802  14.011   1.060  14.533
25302SOL    HW177803  14.002   1.014  14.617
25302SOL    HW277804  14.051   0.995  14.474
25303SOL     OW77805  11.552  11.535   9.507
25303SOL    HW177806  11.534  11.606   9.568
25303SOL    HW277807  11.471  11.483   9.507
25304SOL     OW77808   1.611  14.707   0.197
25304SOL    HW177809   1.541  14.694   0.261
25304SOL    HW277810   1.629  14.620   0.163
25305SOL     OW77811   9.763   9.233  11.202
25305SOL    HW177812   9.718   9.165  11.252
25305SOL    HW277813   9.739   9.315  11.244
25306SOL     OW77814   6.331   9.645   8.078
25306SOL    HW177815   6.283   9.689   8.148
25306SOL    HW277816   6.408   9.607   8.121
25307SOL     OW77817   1.949   0.286   8.989
25307SOL    HW177818   2.010   0.322   8.924
25307SOL    HW277819   1.864   0.286   8.944
25308SOL     OW77820  11.417   5.973   2.424
25308SOL    HW177821  11.368   5.898   2.459
25308SOL    HW277822  11.424   6.033   2.498
25309SOL     OW77823   8.966  12.791   5.155
25309SOL    HW177824   9.037  12.837   5.199
25309SOL    HW277825   9.004  12.706   5.131
25310SOL     OW77826   9.881   4.526  14.870
25310SOL    HW177827   9.818   4.494  14.806
25310SOL    HW277828   9.933   4.590  14.823
25311SOL     OW77829   5.223   8.316   5.629
25311SOL    HW177830   5.286   8.357   5.570
25311SOL    HW277831   5.276   8.271   5.694
25312SOL     OW77832   2.057  10.860   6.466
25312SOL    HW177833   1.966  10.888   6.478
25312SOL    HW277834   2.081  10.897   6.381
25313SOL     OW77835   9.556   0.830   6.768
25313SOL    HW177836   9.531   0.776   6.843
25313SOL    HW277837   9.487   0.897   6.762
25314SOL     OW77838  10.370  13.044   0.736
25314SOL    HW177839  10.391  12.975   0.798
25314SOL    HW277840  10.447  13.100   0.734
25315SOL     OW77841  13.839  13.280  12.904
25315SOL    HW177842  13.829  13.241  12.818
25315SOL    HW277843  13.765  13.340  12.913
25316SOL     OW77844   2.622  14.409   0.408
25316SOL    HW177845   2.672  14.389   0.329
25316SOL    HW277846   2.530  14.403   0.381
25317SOL     OW77847   7.594   7.441  14.345
25317SOL    HW177848   7.598   7.466  14.437
25317SOL    HW277849   7.665   7.489  14.303
25318SOL     OW77850  12.928   9.009  11.037
25318SOL    HW177851  13.017   8.976  11.048
25318SOL    HW277852  12.873   8.945  11.082
25319SOL     OW77853   1.790  13.393   7.598
25319SOL    HW177854   1.791  13.303   7.631
25319SOL    HW277855   1.838  13.443   7.664
25320SOL     OW77856  11.605   8.395  10.431
25320SOL    HW177857  11.652   8.436  10.358
25320SOL    HW277858  11.517   8.380  10.397
25321SOL     OW77859   8.607  11.672  11.922
25321SOL    HW177860   8.636  11.744  11.866
25321SOL    HW277861   8.554  11.617  11.864
25322SOL     OW77862   9.104   9.765   6.305
25322SOL    HW177863   9.094   9.858   6.284
25322SOL    HW277864   9.014   9.732   6.314
25323SOL     OW77865  14.872   6.306  13.210
25323SOL    HW177866  14.784   6.341  13.226
25323SOL    HW277867   0.028   6.311  13.295
25324SOL     OW77868   2.340   8.218  12.399
25324SOL    HW177869   2.306   8.159  12.467
25324SOL    HW277870   2.362   8.159  12.326
25325SOL     OW77871   1.595   5.597  13.175
25325SOL    HW177872   1.549   5.516  13.153
25325SOL    HW277873   1.568   5.658  13.107
25326SOL     OW77874   8.652  12.183   0.934
25326SOL    HW177875   8.613  12.198   0.848
25326SOL    HW277876   8.605  12.243   0.992
25327SOL     OW77877   4.295   3.284   2.112
25327SOL    HW177878   4.265   3.373   2.130
25327SOL    HW277879   4.278   3.272   2.019
25328SOL     OW77880   0.220  11.903   1.725
25328SOL    HW177881   0.244  11.896   1.633
25328SOL    HW277882   0.278  11.971   1.760
25329SOL     OW77883  13.310   2.014  11.784
25329SOL    HW177884  13.345   2.036  11.870
25329SOL    HW277885  13.381   1.966  11.741
25330SOL     OW77886  14.609   1.984  12.317
25330SOL    HW177887  14.553   1.955  12.245
25330SOL    HW277888  14.689   2.014  12.275
25331SOL     OW77889  13.365   9.554   5.847
25331SOL    HW177890  13.391   9.521   5.933
25331SOL    HW277891  13.374   9.649   5.854
25332SOL     OW77892  12.723   9.704  13.668
25332SOL    HW177893  12.745   9.644  13.740
25332SOL    HW277894  12.780   9.676  13.596
25333SOL     OW77895   1.550   0.657   7.227
25333SOL    HW177896   1.601   0.737   7.212
25333SOL    HW277897   1.465   0.676   7.188
25334SOL     OW77898   0.562  13.112   6.240
25334SOL    HW177899   0.639  13.162   6.214
25334SOL    HW277900   0.539  13.147   6.327
25335SOL     OW77901   7.613  11.516   6.215
25335SOL    HW177902   7.654  11.433   6.191
25335SOL    HW277903   7.598  11.561   6.131
25336SOL     OW77904   7.548   1.582   8.442
25336SOL    HW177905   7.618   1.537   8.490
25336SOL    HW277906   7.579   1.582   8.351
25337SOL     OW77907   3.219  10.536   3.675
25337SOL    HW177908   3.276  10.613   3.666
25337SOL    HW277909   3.273  10.472   3.721
25338SOL     OW77910   4.751  10.531   0.573
25338SOL    HW177911   4.829  10.534   0.628
25338SOL    HW277912   4.687  10.481   0.624
25339SOL     OW77913   8.638  12.712  14.467
25339SOL    HW177914   8.559  12.758  14.497
25339SOL    HW277915   8.657  12.649  14.537
25340SOL     OW77916  14.674  14.234  13.446
25340SOL    HW177917  14.769  14.237  13.435
25340SOL    HW277918  14.639  14.263  13.361
25341SOL     OW77919   8.365   0.727  11.959
25341SOL    HW177920   8.291   0.766  11.914
25341SOL    HW277921   8.351   0.632  11.952
25342SOL     OW77922  13.494   6.395   7.713
25342SOL    HW177923  13.571   6.374   7.659
25342SOL    HW277924  13.520   6.371   7.802
25343SOL     OW77925  12.777   4.578   6.532
25343SOL    HW177926  12.793   4.524   6.454
25343SOL    HW277927  12.814   4.663   6.511
25344SOL     OW77928   2.601   8.764   3.124
25344SOL    HW177929   2.669   8.776   3.190
25344SOL    HW277930   2.561   8.850   3.114
25345SOL     OW77931  13.200   0.822   1.149
25345SOL    HW177932  13.141   0.856   1.081
25345SOL    HW277933  13.266   0.890   1.159
25346SOL     OW77934   9.903   3.126  10.607
25346SOL    HW177935   9.848   3.048  10.615
25346SOL    HW277936   9.871   3.170  10.529
25347SOL     OW77937   0.571  13.926   3.982
25347SOL    HW177938   0.513  13.892   3.914
25347SOL    HW277939   0.539  14.014   4.000
25348SOL     OW77940   6.354   6.286   0.362
25348SOL    HW177941   6.364   6.192   0.373
25348SOL    HW277942   6.349   6.299   0.267
25349SOL     OW77943  13.788  13.205  12.026
25349SOL    HW177944  13.709  13.257  12.011
25349SOL    HW277945  13.780  13.174  12.116
25350SOL     OW77946  10.847   7.391   3.050
25350SOL    HW177947  10.772   7.332   3.046
25350SOL    HW277948  10.815   7.474   3.014
25351SOL     OW77949   3.115   8.132   7.436
25351SOL    HW177950   3.055   8.206   7.439
25351SOL    HW277951   3.130   8.110   7.528
25352SOL     OW77952  12.056   3.160   6.618
25352SOL    HW177953  12.081   3.081   6.666
25352SOL    HW277954  12.015   3.127   6.538
25353SOL     OW77955   8.770  14.507  13.659
25353SOL    HW177956   8.706  14.440  13.683
25353SOL    HW277957   8.822  14.466  13.590
25354SOL     OW77958  10.220   7.317   1.981
25354SOL    HW177959  10.311   7.346   1.977
25354SOL    HW277960  10.211   7.256   1.908
25355SOL     OW77961  11.218   4.568   1.866
25355SOL    HW177962  11.179   4.488   1.831
25355SOL    HW277963  11.146   4.614   1.909
25356SOL     OW77964   3.201   2.942  11.719
25356SOL    HW177965   3.273   2.906  11.771
25356SOL    HW277966   3.154   2.866  11.686
25357SOL     OW77967  10.339  14.667   1.826
25357SOL    HW177968  10.304  14.579   1.813
25357SOL    HW277969  10.432  14.654   1.841
25358SOL     OW77970   6.621   7.569   1.230
25358SOL    HW177971   6.590   7.488   1.190
25358SOL    HW277972   6.544   7.607   1.271
25359SOL     OW77973   7.957  13.988   1.204
25359SOL    HW177974   8.052  13.991   1.192
25359SOL    HW277975   7.938  13.895   1.215
25360SOL     OW77976   3.475   0.239   5.090
25360SOL    HW177977   3.446   0.224   5.181
25360SOL    HW277978   3.565   0.271   5.099
25361SOL     OW77979   6.687  13.565  12.966
25361SOL    HW177980   6.757  13.623  12.994
25361SOL    HW277981   6.607  13.615  12.979
25362SOL     OW77982   9.732   0.793   1.839
25362SOL    HW177983   9.748   0.736   1.914
25362SOL    HW277984   9.819   0.809   1.802
25363SOL     OW77985   7.426  14.043   2.470
25363SOL    HW177986   7.479  14.044   2.549
25363SOL    HW277987   7.429  14.134   2.438
25364SOL     OW77988   5.841   8.195   3.460
25364SOL    HW177989   5.915   8.253   3.481
25364SOL    HW277990   5.810   8.166   3.546
25365SOL     OW77991  12.412   9.839   4.743
25365SOL    HW177992  12.453   9.777   4.803
25365SOL    HW277993  12.375   9.785   4.673
25366SOL     OW77994   3.425   0.069   8.449
25366SOL    HW177995   3.384  14.879   8.410
25366SOL    HW277996   3.409   0.139   8.386
25367SOL     OW77997   0.621   0.520   1.028
25367SOL    HW177998   0.577   0.589   1.078
25367SOL    HW277999   0.660   0.566   0.953
25368SOL     OW78000   5.068   7.001  14.144
25368SOL    HW178001   5.014   7.058  14.089
25368SOL    HW278002   5.049   6.912  14.113
25369SOL     OW78003   5.786   0.589   2.736
25369SOL    HW178004   5.720   0.655   2.753
25369SOL    HW278005   5.737   0.509   2.714
25370SOL     OW78006   0.640   9.810   6.135
25370SOL    HW178007   0.689   9.845   6.210
25370SOL    HW278008   0.555   9.785   6.172
25371SOL     OW78009   9.448  11.597   3.461
25371SOL    HW178010   9.379  11.649   3.420
25371SOL    HW278011   9.466  11.527   3.398
25372SOL     OW78012   0.917   2.170  12.440
25372SOL    HW178013   0.948   2.165  12.350
25372SOL    HW278014   0.855   2.243  12.440
25373SOL     OW78015  10.282   4.943   9.979
25373SOL    HW178016  10.376   4.926   9.984
25373SOL    HW278017  10.245   4.896  10.054
25374SOL     OW78018   4.838  11.004   1.825
25374SOL    HW178019   4.883  10.944   1.765
25374SOL    HW278020   4.831  10.955   1.907
25375SOL     OW78021   0.569   3.762   3.563
25375SOL    HW178022   0.609   3.754   3.476
25375SOL    HW278023   0.634   3.723   3.622
25376SOL     OW78024   7.270   5.901   2.716
25376SOL    HW178025   7.215   5.908   2.638
25376SOL    HW278026   7.354   5.867   2.683
25377SOL     OW78027  13.273  11.102  12.170
25377SOL    HW178028  13.357  11.079  12.130
25377SOL    HW278029  13.296  11.130  12.259
25378SOL     OW78030   8.937   3.826   8.808
25378SOL    HW178031   8.868   3.835   8.742
25378SOL    HW278032   8.894   3.785   8.882
25379SOL     OW78033   3.866  10.876   6.854
25379SOL    HW178034   3.926  10.921   6.795
25379SOL    HW278035   3.884  10.783   6.841
25380SOL     OW78036   4.142  11.089   2.591
25380SOL    HW178037   4.078  11.052   2.530
25380SOL    HW278038   4.224  11.044   2.571
25381SOL     OW78039  11.004   0.467  11.526
25381SOL    HW178040  10.955   0.385  11.531
25381SOL    HW278041  11.055   0.470  11.607
25382SOL     OW78042  10.788   8.445  10.710
25382SOL    HW178043  10.873   8.416  10.743
25382SOL    HW278044  10.750   8.494  10.783
25383SOL     OW78045   4.256   9.582  12.001
25383SOL    HW178046   4.306   9.545  12.072
25383SOL    HW278047   4.311   9.571  11.924
25384SOL     OW78048   3.920   2.924   4.079
25384SOL    HW178049   3.984   2.893   4.014
25384SOL    HW278050   3.835   2.897   4.045
25385SOL     OW78051   7.245   4.784   0.302
25385SOL    HW178052   7.253   4.798   0.396
25385SOL    HW278053   7.289   4.700   0.286
25386SOL     OW78054   8.123   4.203   7.380
25386SOL    HW178055   8.117   4.137   7.449
25386SOL    HW278056   8.064   4.273   7.409
25387SOL     OW78057  11.531   7.713  12.660
25387SOL    HW178058  11.548   7.671  12.575
25387SOL    HW278059  11.436   7.721  12.664
25388SOL     OW78060   5.853   3.129   6.840
25388SOL    HW178061   5.903   3.048   6.836
25388SOL    HW278062   5.764   3.103   6.814
25389SOL     OW78063  10.483   9.258   5.166
25389SOL    HW178064  10.449   9.214   5.088
25389SOL    HW278065  10.573   9.280   5.144
25390SOL     OW78066   7.380   4.027   3.303
25390SOL    HW178067   7.320   3.953   3.312
25390SOL    HW278068   7.383   4.066   3.390
25391SOL     OW78069  12.159  11.707   2.438
25391SOL    HW178070  12.177  11.676   2.527
25391SOL    HW278071  12.133  11.629   2.390
25392SOL     OW78072   5.834  12.528   7.762
25392SOL    HW178073   5.740  12.521   7.750
25392SOL    HW278074   5.868  12.444   7.729
25393SOL     OW78075  13.984  11.570   8.139
25393SOL    HW178076  13.895  11.603   8.122
25393SOL    HW278077  13.975  11.475   8.133
25394SOL     OW78078   6.092  10.563   1.082
25394SOL    HW178079   6.018  10.504   1.068
25394SOL    HW278080   6.166  10.518   1.041
25395SOL     OW78081   9.548   9.141   5.217
25395SOL    HW178082   9.509   9.079   5.278
25395SOL    HW278083   9.638   9.153   5.249
25396SOL     OW78084   4.309   1.108   9.631
25396SOL    HW178085   4.230   1.081   9.584
25396SOL    HW278086   4.284   1.189   9.675
25397SOL     OW78087   9.595   3.207  14.727
25397SOL    HW178088   9.519   3.181  14.778
25397SOL    HW278089   9.628   3.285  14.771
25398SOL     OW78090   7.411   7.665   1.872
25398SOL    HW178091   7.500   7.684   1.901
25398SOL    HW278092   7.359   7.738   1.905
25399SOL     OW78093   7.573   7.106   2.371
25399SOL    HW178094   7.590   7.195   2.341
25399SOL    HW278095   7.658   7.074   2.402
25400SOL     OW78096  11.974  10.802  14.519
25400SOL    HW178097  11.882  10.800  14.546
25400SOL    HW278098  12.007  10.885  14.554
25401SOL     OW78099  11.639   2.995  12.389
25401SOL    HW178100  11.639   3.051  12.312
25401SOL    HW278101  11.723   2.948  12.385
25402SOL     OW78102   9.932   2.339  14.690
25402SOL    HW178103  10.016   2.332  14.735
25402SOL    HW278104   9.911   2.433  14.693
25403SOL     OW78105   2.687   3.856  12.763
25403SOL    HW178106   2.748   3.802  12.812
25403SOL    HW278107   2.649   3.797  12.698
25404SOL     OW78108   2.668   3.430  10.056
25404SOL    HW178109   2.757   3.398  10.072
25404SOL    HW278110   2.619   3.353  10.030
25405SOL     OW78111  14.703   3.632  11.161
25405SOL    HW178112  14.697   3.656  11.253
25405SOL    HW278113  14.615   3.600  11.139
25406SOL     OW78114  13.995   6.918   2.818
25406SOL    HW178115  14.026   6.843   2.869
25406SOL    HW278116  14.067   6.981   2.821
25407SOL     OW78117   3.033  13.498   6.384
25407SOL    HW178118   3.020  13.577   6.436
25407SOL    HW278119   2.968  13.505   6.313
25408SOL     OW78120   4.890  12.824  14.684
25408SOL    HW178121   4.950  12.753  14.664
25408SOL    HW278122   4.938  12.880  14.745
25409SOL     OW78123   3.187   2.749   8.832
25409SOL    HW178124   3.194   2.816   8.900
25409SOL    HW278125   3.095   2.750   8.807
25410SOL     OW78126  10.876  14.608   2.004
25410SOL    HW178127  10.788  14.578   2.025
25410SOL    HW278128  10.908  14.544   1.941
25411SOL     OW78129   5.389   8.767   8.732
25411SOL    HW178130   5.362   8.757   8.824
25411SOL    HW278131   5.359   8.855   8.708
25412SOL     OW78132   1.143  13.572  12.874
25412SOL    HW178133   1.152  13.650  12.819
25412SOL    HW278134   1.142  13.605  12.963
25413SOL     OW78135   9.537   0.847  11.445
25413SOL    HW178136   9.469   0.883  11.388
25413SOL    HW278137   9.574   0.775  11.394
25414SOL     OW78138  14.352   6.761   0.005
25414SOL    HW178139  14.291   6.820   0.048
25414SOL    HW278140  14.373   6.696   0.073
25415SOL     OW78141  12.488  13.754   4.051
25415SOL    HW178142  12.394  13.742   4.058
25415SOL    HW278143  12.512  13.715   3.967
25416SOL     OW78144   0.797   1.468  12.101
25416SOL    HW178145   0.710   1.509  12.103
25416SOL    HW278146   0.830   1.477  12.191
25417SOL     OW78147  14.584   9.985  11.411
25417SOL    HW178148  14.639   9.932  11.469
25417SOL    HW278149  14.529  10.036  11.471
25418SOL     OW78150   8.909  13.829  13.845
25418SOL    HW178151   8.900  13.738  13.873
25418SOL    HW278152   8.819  13.859  13.831
25419SOL     OW78153  11.569   7.944   3.811
25419SOL    HW178154  11.545   7.957   3.719
25419SOL    HW278155  11.491   7.907   3.851
25420SOL     OW78156   9.694   7.337  13.017
25420SOL    HW178157   9.603   7.363  13.011
25420SOL    HW278158   9.696   7.269  13.084
25421SOL     OW78159  14.044   7.338   6.267
25421SOL    HW178160  14.084   7.254   6.243
25421SOL    HW278161  14.092   7.403   6.215
25422SOL     OW78162  13.447  12.461   1.836
25422SOL    HW178163  13.459  12.554   1.857
25422SOL    HW278164  13.356  12.454   1.808
25423SOL     OW78165  11.564   8.541   8.462
25423SOL    HW178166  11.575   8.635   8.445
25423SOL    HW278167  11.595   8.499   8.383
25424SOL     OW78168  12.480  12.087   9.793
25424SOL    HW178169  12.564  12.107   9.751
25424SOL    HW278170  12.490  11.997   9.825
25425SOL     OW78171   2.719   5.445  11.105
25425SOL    HW178172   2.717   5.459  11.199
25425SOL    HW278173   2.778   5.512  11.071
25426SOL     OW78174   3.873   4.149  12.525
25426SOL    HW178175   3.858   4.090  12.599
25426SOL    HW278176   3.797   4.134  12.468
25427SOL     OW78177  11.307  14.681  11.634
25427SOL    HW178178  11.271  14.592  11.642
25427SOL    HW278179  11.381  14.682  11.693
25428SOL     OW78180   3.450   2.524  10.430
25428SOL    HW178181   3.387   2.454  10.445
25428SOL    HW278182   3.396   2.599  10.405
25429SOL     OW78183  12.530   7.720  10.495
25429SOL    HW178184  12.462   7.714  10.428
25429SOL    HW278185  12.606   7.676  10.457
25430SOL     OW78186  11.261   7.396  13.614
25430SOL    HW178187  11.308   7.320  13.581
25430SOL    HW278188  11.230   7.370  13.701
25431SOL     OW78189   8.267  12.424   4.204
25431SOL    HW178190   8.243  12.515   4.220
25431SOL    HW278191   8.219  12.375   4.271
25432SOL     OW78192   4.446   7.833   8.757
25432SOL    HW178193   4.488   7.862   8.838
25432SOL    HW278194   4.500   7.761   8.725
25433SOL     OW78195   5.177  10.812   5.699
25433SOL    HW178196   5.170  10.807   5.604
25433SOL    HW278197   5.174  10.906   5.718
25434SOL     OW78198  14.466   1.577   2.804
25434SOL    HW178199  14.434   1.486   2.798
25434SOL    HW278200  14.392   1.625   2.842
25435SOL     OW78201  12.749  11.728   9.017
25435SOL    HW178202  12.747  11.635   8.993
25435SOL    HW278203  12.658  11.757   9.010
25436SOL     OW78204   9.269   7.177   5.705
25436SOL    HW178205   9.264   7.152   5.797
25436SOL    HW278206   9.247   7.270   5.704
25437SOL     OW78207   8.282  13.395   7.700
25437SOL    HW178208   8.230  13.396   7.781
25437SOL    HW278209   8.272  13.483   7.664
25438SOL     OW78210  14.860   5.107   8.515
25438SOL    HW178211  14.775   5.063   8.512
25438SOL    HW278212  14.886   5.116   8.423
25439SOL     OW78213   9.323   0.658  11.547
25439SOL    HW178214   9.243   0.612  11.572
25439SOL    HW278215   9.292   0.729  11.490
25440SOL     OW78216  14.394   6.808  14.362
25440SOL    HW178217  14.346   6.804  14.444
25440SOL    HW278218  14.486   6.814  14.388
25441SOL     OW78219   9.389   2.004   6.379
25441SOL    HW178220   9.450   2.057   6.430
25441SOL    HW278221   9.355   2.065   6.312
25442SOL     OW78222  10.342   4.098   4.181
25442SOL    HW178223  10.301   4.148   4.252
25442SOL    HW278224  10.358   4.162   4.112
25443SOL     OW78225   0.856   9.940   1.354
25443SOL    HW178226   0.864  10.018   1.300
25443SOL    HW278227   0.763   9.918   1.352
25444SOL     OW78228   9.668   2.490  10.102
25444SOL    HW178229   9.573   2.480  10.097
25444SOL    HW278230   9.682   2.584  10.095
25445SOL     OW78231  10.286  13.451  13.429
25445SOL    HW178232  10.234  13.377  13.461
25445SOL    HW278233  10.375  13.432  13.456
25446SOL     OW78234   4.093  13.257  12.344
25446SOL    HW178235   4.112  13.218  12.258
25446SOL    HW278236   4.042  13.191  12.390
25447SOL     OW78237   7.475   1.771   5.822
25447SOL    HW178238   7.419   1.766   5.745
25447SOL    HW278239   7.457   1.690   5.870
25448SOL     OW78240   0.682   4.447  11.317
25448SOL    HW178241   0.660   4.449  11.224
25448SOL    HW278242   0.707   4.536  11.338
25449SOL     OW78243  14.205  11.593   6.209
25449SOL    HW178244  14.272  11.608   6.142
25449SOL    HW278245  14.133  11.651   6.183
25450SOL     OW78246   2.329   3.405  13.893
25450SOL    HW178247   2.351   3.448  13.976
25450SOL    HW278248   2.245   3.442  13.868
25451SOL     OW78249  10.101  11.891   2.094
25451SOL    HW178250  10.065  11.969   2.135
25451SOL    HW278251  10.031  11.858   2.038
25452SOL     OW78252   0.236   4.011   3.761
25452SOL    HW178253   0.327   3.988   3.783
25452SOL    HW278254   0.238   4.106   3.750
25453SOL     OW78255   3.852   0.416   4.356
25453SOL    HW178256   3.938   0.454   4.337
25453SOL    HW278257   3.819   0.389   4.270
25454SOL     OW78258   2.049   5.112   1.263
25454SOL    HW178259   1.960   5.143   1.246
25454SOL    HW278260   2.079   5.165   1.338
25455SOL     OW78261   0.630   2.873   5.702
25455SOL    HW178262   0.592   2.811   5.640
25455SOL    HW278263   0.563   2.886   5.769
25456SOL     OW78264  10.132   9.520   8.165
25456SOL    HW178265  10.167   9.588   8.107
25456SOL    HW278266  10.063   9.565   8.214
25457SOL     OW78267   4.686  13.314   0.496
25457SOL    HW178268   4.781  13.320   0.491
25457SOL    HW278269   4.658  13.402   0.521
25458SOL     OW78270   6.648   0.394  11.728
25458SOL    HW178271   6.644   0.313  11.779
25458SOL    HW278272   6.721   0.443  11.767
25459SOL     OW78273   5.886  13.873   0.850
25459SOL    HW178274   5.899  13.932   0.776
25459SOL    HW278275   5.858  13.930   0.922
25460SOL     OW78276   8.258   9.220   4.237
25460SOL    HW178277   8.294   9.254   4.156
25460SOL    HW278278   8.180   9.273   4.254
25461SOL     OW78279   4.255   3.761   6.194
25461SOL    HW178280   4.197   3.836   6.204
25461SOL    HW278281   4.203   3.697   6.145
25462SOL     OW78282   0.843   3.800  10.952
25462SOL    HW178283   0.796   3.761  10.879
25462SOL    HW278284   0.923   3.835  10.913
25463SOL     OW78285  11.205  13.458  13.056
25463SOL    HW178286  11.209  13.364  13.074
25463SOL    HW278287  11.188  13.465  12.962
25464SOL     OW78288  11.244   8.166   2.038
25464SOL    HW178289  11.176   8.233   2.031
25464SOL    HW278290  11.198   8.084   2.022
25465SOL     OW78291  13.871  13.946   8.443
25465SOL    HW178292  13.938  13.881   8.465
25465SOL    HW278293  13.798  13.925   8.502
25466SOL     OW78294   7.421   3.618   7.423
25466SOL    HW178295   7.497   3.675   7.429
25466SOL    HW278296   7.428   3.560   7.498
25467SOL     OW78297   9.822  10.310  13.268
25467SOL    HW178298   9.729  10.317  13.249
25467SOL    HW278299   9.837  10.216  13.282
25468SOL     OW78300  11.744  11.047  11.083
25468SOL    HW178301  11.684  11.016  11.015
25468SOL    HW278302  11.795  11.116  11.040
25469SOL     OW78303   8.413   5.503   4.640
25469SOL    HW178304   8.347   5.522   4.573
25469SOL    HW278305   8.366   5.458   4.709
25470SOL     OW78306   7.609   8.538   1.998
25470SOL    HW178307   7.572   8.452   2.014
25470SOL    HW278308   7.591   8.588   2.078
25471SOL     OW78309   3.274   3.615  14.683
25471SOL    HW178310   3.241   3.606  14.593
25471SOL    HW278311   3.216   3.679  14.724
25472SOL     OW78312  11.792   7.123   4.390
25472SOL    HW178313  11.739   7.125   4.310
25472SOL    HW278314  11.861   7.060   4.371
25473SOL     OW78315   1.438   9.390   7.682
25473SOL    HW178316   1.395   9.307   7.662
25473SOL    HW278317   1.494   9.407   7.606
25474SOL     OW78318  10.659  14.775   3.227
25474SOL    HW178319  10.661  14.817   3.142
25474SOL    HW278320  10.738  14.805   3.272
25475SOL     OW78321   3.838   8.610  13.525
25475SOL    HW178322   3.849   8.673  13.455
25475SOL    HW278323   3.859   8.525  13.485
25476SOL     OW78324  12.205   3.072   9.385
25476SOL    HW178325  12.213   3.164   9.361
25476SOL    HW278326  12.119   3.046   9.352
25477SOL     OW78327   4.566   8.110   0.788
25477SOL    HW178328   4.656   8.084   0.770
25477SOL    HW278329   4.550   8.081   0.878
25478SOL     OW78330  11.277   5.744   7.527
25478SOL    HW178331  11.343   5.785   7.472
25478SOL    HW278332  11.200   5.800   7.518
25479SOL     OW78333   5.931   3.296   2.094
25479SOL    HW178334   5.965   3.334   2.174
25479SOL    HW278335   5.996   3.230   2.068
25480SOL     OW78336   3.953  10.690  12.953
25480SOL    HW178337   4.041  10.661  12.978
25480SOL    HW278338   3.949  10.673  12.859
25481SOL     OW78339   7.431  14.684   4.495
25481SOL    HW178340   7.414  14.617   4.561
25481SOL    HW278341   7.411  14.641   4.412
25482SOL     OW78342   6.862   4.811   0.154
25482SOL    HW178343   6.825   4.891   0.192
25482SOL    HW278344   6.879   4.754   0.229
25483SOL     OW78345   6.491   8.880  13.152
25483SOL    HW178346   6.396   8.866  13.154
25483SOL    HW278347   6.504   8.962  13.200
25484SOL     OW78348   2.581   1.740   9.961
25484SOL    HW178349   2.627   1.751  10.044
25484SOL    HW278350   2.571   1.829   9.927
25485SOL     OW78351   1.016   8.697   4.369
25485SOL    HW178352   1.014   8.789   4.394
25485SOL    HW278353   0.929   8.664   4.392
25486SOL     OW78354   1.251  11.519   6.573
25486SOL    HW178355   1.219  11.580   6.640
25486SOL    HW278356   1.285  11.576   6.504
25487SOL     OW78357   3.985   2.622  11.775
25487SOL    HW178358   3.913   2.580  11.823
25487SOL    HW278359   3.946   2.653  11.694
25488SOL     OW78360   6.372   6.638  14.645
25488SOL    HW178361   6.402   6.718  14.686
25488SOL    HW278362   6.417   6.636  14.560
25489SOL     OW78363   7.016   5.544  14.246
25489SOL    HW178364   7.019   5.551  14.151
25489SOL    HW278365   7.105   5.517  14.271
25490SOL     OW78366   9.599  13.791   7.103
25490SOL    HW178367   9.622  13.849   7.030
25490SOL    HW278368   9.522  13.743   7.073
25491SOL     OW78369   6.260   6.052   4.867
25491SOL    HW178370   6.207   6.034   4.944
25491SOL    HW278371   6.350   6.040   4.897
25492SOL     OW78372   0.319   1.088   2.965
25492SOL    HW178373   0.331   1.181   2.949
25492SOL    HW278374   0.402   1.048   2.938
25493SOL     OW78375  10.126   8.348   6.752
25493SOL    HW178376  10.110   8.373   6.843
25493SOL    HW278377  10.153   8.429   6.709
25494SOL     OW78378  13.703   2.147   3.225
25494SOL    HW178379  13.771   2.124   3.161
25494SOL    HW278380  13.626   2.098   3.197
25495SOL     OW78381  10.503  13.169   9.327
25495SOL    HW178382  10.507  13.235   9.396
25495SOL    HW278383  10.467  13.092   9.370
25496SOL     OW78384   4.261   4.437   8.664
25496SOL    HW178385   4.355   4.427   8.679
25496SOL    HW278386   4.222   4.435   8.752
25497SOL     OW78387   8.128   5.257   2.059
25497SOL    HW178388   8.217   5.252   2.094
25497SOL    HW278389   8.080   5.190   2.108
25498SOL     OW78390   6.318   9.800   6.111
25498SOL    HW178391   6.276   9.761   6.034
25498SOL    HW278392   6.412   9.797   6.090
25499SOL     OW78393   3.031   7.006   9.615
25499SOL    HW178394   3.057   7.093   9.644
25499SOL    HW278395   3.106   6.974   9.566
25500SOL     OW78396   6.150   7.006  14.114
25500SOL    HW178397   6.074   7.048  14.154
25500SOL    HW278398   6.180   6.942  14.179
25501SOL     OW78399   4.536   5.990  11.955
25501SOL    HW178400   4.593   6.032  11.891
25501SOL    HW278401   4.447   6.017  11.930
25502SOL     OW78402  13.481  12.996   4.867
25502SOL    HW178403  13.540  13.007   4.942
25502SOL    HW278404  13.416  12.933   4.897
25503SOL     OW78405  13.834   0.384   7.276
25503SOL    HW178406  13.761   0.412   7.222
25503SOL    HW278407  13.795   0.322   7.338
25504SOL     OW78408   5.466  11.784   3.794
25504SOL    HW178409   5.465  11.875   3.764
25504SOL    HW278410   5.380  11.771   3.834
25505SOL     OW78411   3.018   8.454   0.020
25505SOL    HW178412   2.985   8.383  14.852
25505SOL    HW278413   3.010   8.420   0.109
25506SOL     OW78414   1.549  12.613   7.288
25506SOL    HW178415   1.540  12.566   7.371
25506SOL    HW278416   1.550  12.706   7.313
25507SOL     OW78417  11.924  11.552   2.950
25507SOL    HW178418  11.880  11.584   2.872
25507SOL    HW278419  11.945  11.461   2.931
25508SOL     OW78420   2.523   7.390   5.327
25508SOL    HW178421   2.452   7.329   5.347
25508SOL    HW278422   2.597   7.334   5.301
25509SOL     OW78423   2.388   5.674   0.653
25509SOL    HW178424   2.447   5.750   0.651
25509SOL    HW278425   2.360   5.668   0.745
25510SOL     OW78426   7.018  11.496   3.248
25510SOL    HW178427   7.092  11.534   3.295
25510SOL    HW278428   7.015  11.405   3.278
25511SOL     OW78429   7.898  13.890   8.464
25511SOL    HW178430   7.816  13.845   8.486
25511SOL    HW278431   7.871  13.981   8.451
25512SOL     OW78432   8.917   4.028  12.223
25512SOL    HW178433   8.922   4.025  12.127
25512SOL    HW278434   8.915   3.936  12.249
25513SOL     OW78435  12.825   0.683  10.106
25513SOL    HW178436  12.771   0.740  10.162
25513SOL    HW278437  12.906   0.732  10.093
25514SOL     OW78438   9.558  11.917   9.326
25514SOL    HW178439   9.528  11.975   9.396
25514SOL    HW278440   9.651  11.903   9.345
25515SOL     OW78441  14.139   5.952   1.392
25515SOL    HW178442  14.226   5.983   1.367
25515SOL    HW278443  14.151   5.860   1.414
25516SOL     OW78444   0.819   9.417   4.378
25516SOL    HW178445   0.883   9.455   4.439
25516SOL    HW278446   0.838   9.461   4.295
25517SOL     OW78447   1.104  11.372   5.498
25517SOL    HW178448   1.070  11.305   5.558
25517SOL    HW278449   1.033  11.435   5.490
25518SOL     OW78450   4.129   2.584  13.646
25518SOL    HW178451   4.060   2.618  13.702
25518SOL    HW278452   4.199   2.560  13.706
25519SOL     OW78453   6.221  11.074  13.934
25519SOL    HW178454   6.226  11.122  14.017
25519SOL    HW278455   6.141  11.022  13.942
25520SOL     OW78456  10.677  10.241   5.202
25520SOL    HW178457  10.609  10.192   5.156
25520SOL    HW278458  10.718  10.296   5.135
25521SOL     OW78459   7.359   4.431   9.838
25521SOL    HW178460   7.303   4.353   9.830
25521SOL    HW278461   7.448   4.398   9.823
25522SOL     OW78462   2.102   8.786   4.187
25522SOL    HW178463   2.142   8.830   4.111
25522SOL    HW278464   2.164   8.802   4.258
25523SOL     OW78465   3.735   2.802   0.133
25523SOL    HW178466   3.712   2.792   0.040
25523SOL    HW278467   3.652   2.792   0.179
25524SOL     OW78468   8.378   2.715   0.826
25524SOL    HW178469   8.455   2.678   0.869
25524SOL    HW278470   8.351   2.788   0.882
25525SOL     OW78471   8.849   3.192   6.537
25525SOL    HW178472   8.883   3.275   6.569
25525SOL    HW278473   8.777   3.218   6.479
25526SOL     OW78474   7.082   2.538  13.244
25526SOL    HW178475   7.034   2.461  13.273
25526SOL    HW278476   7.121   2.573  13.324
25527SOL     OW78477   0.647   8.917  10.326
25527SOL    HW178478   0.598   8.873  10.396
25527SOL    HW278479   0.636   9.010  10.346
25528SOL     OW78480   0.830   1.078  10.383
25528SOL    HW178481   0.842   1.048  10.473
25528SOL    HW278482   0.852   1.001  10.329
25529SOL     OW78483  12.381   0.978   9.267
25529SOL    HW178484  12.312   0.927   9.223
25529SOL    HW278485  12.352   0.983   9.358
25530SOL     OW78486  11.804  12.761   5.314
25530SOL    HW178487  11.861  12.805   5.377
25530SOL    HW278488  11.852  12.766   5.231
25531SOL     OW78489   3.250   4.475  14.577
25531SOL    HW178490   3.332   4.457  14.530
25531SOL    HW278491   3.207   4.543  14.526
25532SOL     OW78492   0.643   2.629   1.079
25532SOL    HW178493   0.734   2.642   1.107
25532SOL    HW278494   0.648   2.620   0.984
25533SOL     OW78495  14.660  13.248   8.980
25533SOL    HW178496  14.575  13.229   9.021
25533SOL    HW278497  14.710  13.167   8.992
25534SOL     OW78498   3.000  11.760   7.283
25534SOL    HW178499   2.924  11.751   7.226
25534SOL    HW278500   2.990  11.691   7.348
25535SOL     OW78501  11.877   5.092  11.989
25535SOL    HW178502  11.971   5.098  11.971
25535SOL    HW278503  11.871   5.079  12.083
25536SOL     OW78504   9.370   4.624   6.191
25536SOL    HW178505   9.403   4.666   6.112
25536SOL    HW278506   9.295   4.678   6.217
25537SOL     OW78507  10.858   3.497  13.542
25537SOL    HW178508  10.783   3.440  13.558
25537SOL    HW278509  10.911   3.489  13.621
25538SOL     OW78510  13.901  10.487   7.406
25538SOL    HW178511  13.880  10.447   7.322
25538SOL    HW278512  13.950  10.419   7.453
25539SOL     OW78513  14.648   5.019  11.671
25539SOL    HW178514  14.634   5.085  11.739
25539SOL    HW278515  14.636   5.066  11.589
25540SOL     OW78516   1.130   6.329  10.781
25540SOL    HW178517   1.140   6.268  10.854
25540SOL    HW278518   1.042   6.311  10.747
25541SOL     OW78519   5.849  11.716   7.190
25541SOL    HW178520   5.935  11.674   7.180
25541SOL    HW278521   5.786  11.649   7.166
25542SOL     OW78522   6.083   5.339  11.386
25542SOL    HW178523   6.172   5.360  11.360
25542SOL    HW278524   6.090   5.253  11.429
25543SOL     OW78525   8.444   2.805   5.455
25543SOL    HW178526   8.442   2.766   5.542
25543SOL    HW278527   8.352   2.813   5.431
25544SOL     OW78528  13.813   4.061   4.261
25544SOL    HW178529  13.762   4.067   4.342
25544SOL    HW278530  13.801   4.147   4.220
25545SOL     OW78531  13.735   9.095   0.220
25545SOL    HW178532  13.826   9.068   0.231
25545SOL    HW278533  13.684   9.022   0.257
25546SOL     OW78534  12.872   5.953   8.403
25546SOL    HW178535  12.907   6.018   8.463
25546SOL    HW278536  12.876   5.994   8.317
25547SOL     OW78537  10.766   4.271   5.749
25547SOL    HW178538  10.847   4.252   5.795
25547SOL    HW278539  10.755   4.198   5.688
25548SOL     OW78540   3.124  13.722   8.757
25548SOL    HW178541   3.200  13.696   8.705
25548SOL    HW278542   3.050  13.710   8.698
25549SOL     OW78543   3.952   1.901   0.872
25549SOL    HW178544   4.023   1.964   0.872
25549SOL    HW278545   3.924   1.895   0.781
25550SOL     OW78546   5.807  10.691   1.551
25550SOL    HW178547   5.883  10.692   1.492
25550SOL    HW278548   5.756  10.767   1.525
25551SOL     OW78549  12.339   2.774   7.515
25551SOL    HW178550  12.331   2.861   7.476
25551SOL    HW278551  12.415   2.781   7.574
25552SOL     OW78552   3.800   2.492  11.921
25552SOL    HW178553   3.712   2.483  11.958
25552SOL    HW278554   3.859   2.479  11.995
25553SOL     OW78555  12.609  13.223   0.139
25553SOL    HW178556  12.553  13.173   0.198
25553SOL    HW278557  12.554  13.297   0.112
25554SOL     OW78558   5.669   8.324   5.581
25554SOL    HW178559   5.701   8.236   5.605
25554SOL    HW278560   5.718   8.345   5.501
25555SOL     OW78561   9.478  12.266   3.188
25555SOL    HW178562   9.515  12.179   3.199
25555SOL    HW278563   9.547  12.318   3.148
25556SOL     OW78564  13.579  13.745   1.569
25556SOL    HW178565  13.630  13.792   1.503
25556SOL    HW278566  13.563  13.810   1.637
25557SOL     OW78567  11.377   8.577  13.409
25557SOL    HW178568  11.284   8.594  13.424
25557SOL    HW278569  11.394   8.496  13.458
25558SOL     OW78570   1.345  13.577   5.013
25558SOL    HW178571   1.406  13.530   5.070
25558SOL    HW278572   1.279  13.612   5.074
25559SOL     OW78573   4.277  12.659   9.830
25559SOL    HW178574   4.226  12.578   9.827
25559SOL    HW278575   4.241  12.713   9.759
25560SOL     OW78576  10.075   4.839  12.440
25560SOL    HW178577  10.011   4.891  12.489
25560SOL    HW278578  10.148   4.828  12.501
25561SOL     OW78579   0.603   8.634   3.580
25561SOL    HW178580   0.688   8.660   3.614
25561SOL    HW278581   0.579   8.704   3.519
25562SOL     OW78582   5.242   4.547   4.693
25562SOL    HW178583   5.280   4.538   4.781
25562SOL    HW278584   5.239   4.457   4.659
25563SOL     OW78585  13.430  12.470  13.425
25563SOL    HW178586  13.352  12.416  13.433
25563SOL    HW278587  13.397  12.553  13.388
25564SOL     OW78588   4.195  13.130   2.749
25564SOL    HW178589   4.244  13.117   2.830
25564SOL    HW278590   4.156  13.217   2.758
25565SOL     OW78591  10.573   3.354  11.826
25565SOL    HW178592  10.625   3.415  11.879
25565SOL    HW278593  10.504   3.324  11.885
25566SOL     OW78594   5.284   2.187   6.556
25566SOL    HW178595   5.222   2.256   6.578
25566SOL    HW278596   5.253   2.154   6.471
25567SOL     OW78597   1.177  11.390  10.069
25567SOL    HW178598   1.188  11.298  10.044
25567SOL    HW278599   1.082  11.404  10.065
25568SOL     OW78600   4.321   9.492   4.413
25568SOL    HW178601   4.285   9.555   4.351
25568SOL    HW278602   4.403   9.463   4.373
25569SOL     OW78603   9.256  13.112   1.430
25569SOL    HW178604   9.284  13.082   1.344
25569SOL    HW278605   9.336  13.110   1.483
25570SOL     OW78606  13.076   6.367   2.614
25570SOL    HW178607  13.002   6.397   2.667
25570SOL    HW278608  13.110   6.291   2.660
25571SOL     OW78609   8.544   5.790   7.855
25571SOL    HW178610   8.603   5.849   7.809
25571SOL    HW278611   8.466   5.843   7.874
25572SOL     OW78612   0.936  11.829   5.165
25572SOL    HW178613   0.874  11.827   5.237
25572SOL    HW278614   1.012  11.779   5.197
25573SOL     OW78615   0.052   9.167  11.890
25573SOL    HW178616   0.052   9.246  11.835
25573SOL    HW278617   0.092   9.194  11.972
25574SOL     OW78618   2.731   5.780   8.712
25574SOL    HW178619   2.786   5.716   8.667
25574SOL    HW278620   2.659   5.729   8.748
25575SOL     OW78621   3.554   2.161   9.250
25575SOL    HW178622   3.567   2.246   9.291
25575SOL    HW278623   3.604   2.100   9.304
25576SOL     OW78624   9.539   7.429  11.445
25576SOL    HW178625   9.451   7.399  11.421
25576SOL    HW278626   9.524   7.495  11.513
25577SOL     OW78627  10.356   6.791  13.594
25577SOL    HW178628  10.316   6.779  13.680
25577SOL    HW278629  10.391   6.705  13.571
25578SOL     OW78630   9.165  13.321   5.567
25578SOL    HW178631   9.127  13.341   5.481
25578SOL    HW278632   9.190  13.229   5.561
25579SOL     OW78633   3.446   4.170  12.014
25579SOL    HW178634   3.509   4.119  11.963
25579SOL    HW278635   3.402   4.225  11.950
25580SOL     OW78636  13.320   8.715   1.952
25580SOL    HW178637  13.280   8.719   2.038
25580SOL    HW278638  13.388   8.783   1.953
25581SOL     OW78639   7.616   9.478   0.103
25581SOL    HW178640   7.580   9.471   0.015
25581SOL    HW278641   7.636   9.571   0.114
25582SOL     OW78642   4.919   4.750   8.481
25582SOL    HW178643   4.951   4.661   8.470
25582SOL    HW278644   4.870   4.748   8.564
25583SOL     OW78645   4.067  14.874   2.548
25583SOL    HW178646   4.161  14.885   2.561
25583SOL    HW278647   4.032  14.859   2.635
25584SOL     OW78648  14.204   5.536   6.774
25584SOL    HW178649  14.194   5.473   6.703
25584SOL    HW278650  14.116   5.543   6.812
25585SOL     OW78651   3.102  14.357   4.386
25585SOL    HW178652   3.181  14.398   4.353
25585SOL    HW278653   3.111  14.362   4.482
25586SOL     OW78654  14.870   6.026   3.304
25586SOL    HW178655  14.852   6.108   3.257
25586SOL    HW278656   0.044   5.979   3.248
25587SOL     OW78657   2.400   5.613  12.810
25587SOL    HW178658   2.340   5.622  12.736
25587SOL    HW278659   2.424   5.520  12.811
25588SOL     OW78660  13.010   8.260   4.858
25588SOL    HW178661  13.069   8.222   4.793
25588SOL    HW278662  13.054   8.245   4.942
25589SOL     OW78663   2.180   4.880   3.653
25589SOL    HW178664   2.174   4.786   3.637
25589SOL    HW278665   2.089   4.911   3.649
25590SOL     OW78666  13.682   3.755   7.320
25590SOL    HW178667  13.682   3.848   7.343
25590SOL    HW278668  13.708   3.753   7.227
25591SOL     OW78669   4.658   1.336   6.530
25591SOL    HW178670   4.673   1.304   6.441
25591SOL    HW278671   4.562   1.338   6.539
25592SOL     OW78672  12.999   3.079   8.830
25592SOL    HW178673  12.973   3.143   8.896
25592SOL    HW278674  12.938   3.093   8.758
25593SOL     OW78675   9.221   3.852   1.092
25593SOL    HW178676   9.188   3.801   1.166
25593SOL    HW278677   9.282   3.915   1.130
25594SOL     OW78678   3.120   1.999   3.459
25594SOL    HW178679   3.081   1.932   3.402
25594SOL    HW278680   3.192   2.035   3.407
25595SOL     OW78681   3.397  13.252   7.376
25595SOL    HW178682   3.369  13.263   7.467
25595SOL    HW278683   3.397  13.157   7.363
25596SOL     OW78684   7.051   8.396   1.941
25596SOL    HW178685   7.127   8.377   1.886
25596SOL    HW278686   7.080   8.469   1.997
25597SOL     OW78687  14.530   6.266   4.249
25597SOL    HW178688  14.543   6.246   4.156
25597SOL    HW278689  14.607   6.317   4.274
25598SOL     OW78690  10.072  12.361  13.949
25598SOL    HW178691  10.079  12.341  14.043
25598SOL    HW278692  10.145  12.313  13.910
25599SOL     OW78693   7.655   0.834  13.967
25599SOL    HW178694   7.681   0.790  14.048
25599SOL    HW278695   7.728   0.819  13.907
25600SOL     OW78696   5.126  13.822   3.875
25600SOL    HW178697   5.131  13.901   3.820
25600SOL    HW278698   5.209  13.777   3.858
25601SOL     OW78699   5.285  10.159  14.407
25601SOL    HW178700   5.354  10.113  14.359
25601SOL    HW278701   5.303  10.140  14.499
25602SOL     OW78702   8.785   0.071   1.331
25602SOL    HW178703   8.787   0.118   1.247
25602SOL    HW278704   8.701   0.096   1.370
25603SOL     OW78705   5.633  13.945   6.263
25603SOL    HW178706   5.613  14.005   6.334
25603SOL    HW278707   5.684  13.875   6.304
25604SOL     OW78708  14.154  11.956  13.702
25604SOL    HW178709  14.240  11.952  13.660
25604SOL    HW278710  14.172  11.947  13.795
25605SOL     OW78711   1.284   3.346  12.095
25605SOL    HW178712   1.295   3.441  12.096
25605SOL    HW278713   1.339   3.317  12.022
25606SOL     OW78714   4.736  11.297   8.172
25606SOL    HW178715   4.721  11.270   8.262
25606SOL    HW278716   4.816  11.250   8.146
25607SOL     OW78717   5.768   0.199   7.560
25607SOL    HW178718   5.846   0.239   7.598
25607SOL    HW278719   5.774   0.107   7.585
25608SOL     OW78720   4.313   2.329   8.594
25608SOL    HW178721   4.330   2.418   8.625
25608SOL    HW278722   4.237   2.339   8.536
25609SOL     OW78723   1.937  12.697   6.110
25609SOL    HW178724   1.954  12.772   6.167
25609SOL    HW278725   1.864  12.725   6.055
25610SOL     OW78726   5.012   1.441   8.697
25610SOL    HW178727   5.044   1.352   8.708
25610SOL    HW278728   4.925   1.431   8.659
25611SOL     OW78729  12.257   6.712   7.706
25611SOL    HW178730  12.244   6.624   7.744
25611SOL    HW278731  12.333   6.747   7.752
25612SOL     OW78732   9.860   2.273  10.556
25612SOL    HW178733   9.786   2.293  10.499
25612SOL    HW278734   9.934   2.266  10.497
25613SOL     OW78735   1.243   1.467  12.500
25613SOL    HW178736   1.295   1.546  12.514
25613SOL    HW278737   1.231   1.463  12.405
25614SOL     OW78738  11.547   6.831   7.342
25614SOL    HW178739  11.542   6.905   7.281
25614SOL    HW278740  11.633   6.793   7.325
25615SOL     OW78741   6.998   3.131  13.300
25615SOL    HW178742   6.906   3.155  13.291
25615SOL    HW278743   7.034   3.199  13.357
25616SOL     OW78744   5.968   0.912   9.282
25616SOL    HW178745   5.944   1.002   9.263
25616SOL    HW278746   5.913   0.859   9.224
25617SOL     OW78747   0.350  14.159  10.351
25617SOL    HW178748   0.287  14.145  10.422
25617SOL    HW278749   0.308  14.224  10.295
25618SOL     OW78750   8.406   5.453   3.328
25618SOL    HW178751   8.490   5.475   3.367
25618SOL    HW278752   8.391   5.361   3.353
25619SOL     OW78753   9.938   2.323   4.424
25619SOL    HW178754  10.013   2.332   4.482
25619SOL    HW278755   9.863   2.346   4.478
25620SOL     OW78756   6.296   2.825   7.723
25620SOL    HW178757   6.367   2.811   7.785
25620SOL    HW278758   6.234   2.754   7.742
25621SOL     OW78759  12.765  14.679  14.430
25621SOL    HW178760  12.768  14.653  14.523
25621SOL    HW278761  12.677  14.713  14.418
25622SOL     OW78762   0.812   9.128  11.452
25622SOL    HW178763   0.790   9.202  11.396
25622SOL    HW278764   0.905   9.111  11.434
25623SOL     OW78765  11.486  11.309  14.531
25623SOL    HW178766  11.533  11.294  14.613
25623SOL    HW278767  11.555  11.318  14.465
25624SOL     OW78768   9.311   5.978   8.222
25624SOL    HW178769   9.378   5.930   8.174
25624SOL    HW278770   9.246   5.911   8.246
25625SOL     OW78771   1.940   7.578  14.570
25625SOL    HW178772   2.004   7.588  14.641
25625SOL    HW278773   1.993   7.560  14.492
25626SOL     OW78774  11.211  13.622   8.329
25626SOL    HW178775  11.279  13.686   8.349
25626SOL    HW278776  11.251  13.564   8.265
25627SOL     OW78777   7.734   8.561   9.546
25627SOL    HW178778   7.816   8.599   9.577
25627SOL    HW278779   7.667   8.626   9.567
25628SOL     OW78780   2.444  11.886   8.226
25628SOL    HW178781   2.391  11.869   8.148
25628SOL    HW278782   2.419  11.816   8.287
25629SOL     OW78783   7.079   0.172  12.763
25629SOL    HW178784   7.152   0.197  12.820
25629SOL    HW278785   7.044   0.093  12.804
25630SOL     OW78786  14.756   1.881   9.610
25630SOL    HW178787  14.851   1.877   9.616
25630SOL    HW278788  14.738   1.954   9.551
25631SOL     OW78789  12.567  10.507  12.664
25631SOL    HW178790  12.598  10.446  12.731
25631SOL    HW278791  12.611  10.480  12.584
25632SOL     OW78792   7.030  10.563   1.332
25632SOL    HW178793   6.979  10.614   1.395
25632SOL    HW278794   7.104  10.530   1.383
25633SOL     OW78795  14.154  12.946   6.992
25633SOL    HW178796  14.118  12.894   7.064
25633SOL    HW278797  14.249  12.939   7.002
25634SOL     OW78798  11.309   3.278   3.281
25634SOL    HW178799  11.328   3.281   3.187
25634SOL    HW278800  11.214   3.276   3.286
25635SOL     OW78801   3.123   3.087   9.570
25635SOL    HW178802   3.161   3.078   9.482
25635SOL    HW278803   3.052   3.023   9.571
25636SOL     OW78804   4.664   6.442   3.282
25636SOL    HW178805   4.698   6.531   3.270
25636SOL    HW278806   4.693   6.417   3.369
25637SOL     OW78807   6.386   5.609   6.089
25637SOL    HW178808   6.337   5.662   6.027
25637SOL    HW278809   6.330   5.533   6.105
25638SOL     OW78810  10.321   1.151   4.846
25638SOL    HW178811  10.300   1.124   4.757
25638SOL    HW278812  10.246   1.203   4.874
25639SOL     OW78813  12.900  11.433   4.396
25639SOL    HW178814  12.925  11.341   4.409
25639SOL    HW278815  12.857  11.433   4.310
25640SOL     OW78816  11.458   3.603   1.365
25640SOL    HW178817  11.517   3.557   1.305
25640SOL    HW278818  11.373   3.601   1.321
25641SOL     OW78819   1.553   8.144   0.721
25641SOL    HW178820   1.506   8.091   0.656
25641SOL    HW278821   1.485   8.172   0.782
25642SOL     OW78822   4.547  13.292   3.108
25642SOL    HW178823   4.517  13.374   3.068
25642SOL    HW278824   4.500  13.287   3.191
25643SOL     OW78825   6.857  10.266   4.620
25643SOL    HW178826   6.870  10.229   4.533
25643SOL    HW278827   6.845  10.189   4.676
25644SOL     OW78828   4.236  14.583   0.437
25644SOL    HW178829   4.249  14.676   0.418
25644SOL    HW278830   4.252  14.539   0.353
25645SOL     OW78831   1.295  13.699  13.779
25645SOL    HW178832   1.249  13.687  13.696
25645SOL    HW278833   1.369  13.639  13.775
25646SOL     OW78834   0.746  10.108   8.595
25646SOL    HW178835   0.733  10.105   8.690
25646SOL    HW278836   0.758  10.016   8.569
25647SOL     OW78837  11.270   0.963   2.818
25647SOL    HW178838  11.310   1.036   2.771
25647SOL    HW278839  11.337   0.894   2.818
25648SOL     OW78840  12.963   1.042   6.273
25648SOL    HW178841  12.873   1.073   6.265
25648SOL    HW278842  13.015   1.106   6.225
25649SOL     OW78843  14.327  14.626   4.516
25649SOL    HW178844  14.369  14.554   4.468
25649SOL    HW278845  14.377  14.633   4.597
25650SOL     OW78846  14.392   2.403   4.165
25650SOL    HW178847  14.362   2.432   4.079
25650SOL    HW278848  14.391   2.307   4.159
25651SOL     OW78849   7.762   2.961  13.606
25651SOL    HW178850   7.851   2.983  13.578
25651SOL    HW278851   7.710   2.967  13.526
25652SOL     OW78852   0.556   0.427   5.690
25652SOL    HW178853   0.605   0.360   5.641
25652SOL    HW278854   0.546   0.389   5.778
25653SOL     OW78855  12.536   5.645   4.588
25653SOL    HW178856  12.513   5.572   4.530
25653SOL    HW278857  12.569   5.712   4.529
25654SOL     OW78858   0.472   6.551   9.348
25654SOL    HW178859   0.478   6.458   9.371
25654SOL    HW278860   0.561   6.583   9.354
25655SOL     OW78861  13.397   9.263  13.583
25655SOL    HW178862  13.326   9.204  13.609
25655SOL    HW278863  13.368   9.349  13.611
25656SOL     OW78864  13.717   1.550   1.772
25656SOL    HW178865  13.663   1.618   1.813
25656SOL    HW278866  13.807   1.574   1.793
25657SOL     OW78867   2.824   7.213  12.603
25657SOL    HW178868   2.848   7.172  12.520
25657SOL    HW278869   2.764   7.151  12.644
25658SOL     OW78870   4.462   0.010  13.623
25658SOL    HW178871   4.497   0.024  13.711
25658SOL    HW278872   4.497   0.083  13.572
25659SOL     OW78873   0.212   0.936  13.873
25659SOL    HW178874   0.272   0.935  13.798
25659SOL    HW278875   0.244   1.008  13.927
25660SOL     OW78876   5.660   0.648   3.319
25660SOL    HW178877   5.721   0.722   3.326
25660SOL    HW278878   5.618   0.659   3.233
25661SOL     OW78879   1.096   0.435  13.913
25661SOL    HW178880   1.172   0.487  13.940
25661SOL    HW278881   1.088   0.368  13.981
25662SOL     OW78882   2.347  11.982   1.095
25662SOL    HW178883   2.413  11.917   1.071
25662SOL    HW278884   2.391  12.066   1.084
25663SOL     OW78885   6.249   3.910   1.634
25663SOL    HW178886   6.201   3.832   1.661
25663SOL    HW278887   6.224   3.923   1.542
25664SOL     OW78888   6.970   7.650   2.322
25664SOL    HW178889   7.017   7.715   2.269
25664SOL    HW278890   7.005   7.566   2.293
25665SOL     OW78891   2.519   8.281   2.659
25665SOL    HW178892   2.503   8.367   2.698
25665SOL    HW278893   2.528   8.299   2.565
25666SOL     OW78894  14.760  14.613   3.620
25666SOL    HW178895  14.759  14.634   3.713
25666SOL    HW278896  14.801  14.527   3.615
25667SOL     OW78897   8.324   2.008  11.532
25667SOL    HW178898   8.308   1.970  11.445
25667SOL    HW278899   8.417   1.993  11.548
25668SOL     OW78900   5.062   3.912  13.281
25668SOL    HW178901   5.036   3.971  13.210
25668SOL    HW278902   5.134   3.860  13.244
25669SOL     OW78903  12.773  11.494  10.708
25669SOL    HW178904  12.800  11.418  10.759
25669SOL    HW278905  12.828  11.565  10.740
25670SOL     OW78906   7.946   4.383   8.286
25670SOL    HW178907   7.913   4.462   8.328
25670SOL    HW278908   7.909   4.311   8.337
25671SOL     OW78909  14.054   1.248   7.298
25671SOL    HW178910  13.977   1.192   7.301
25671SOL    HW278911  14.048   1.304   7.375
25672SOL     OW78912   1.068  13.805   8.296
25672SOL    HW178913   1.017  13.817   8.376
25672SOL    HW278914   1.122  13.728   8.313
25673SOL     OW78915   4.956  14.261   1.845
25673SOL    HW178916   4.967  14.177   1.890
25673SOL    HW278917   4.927  14.321   1.914
25674SOL     OW78918   0.812   5.807   4.239
25674SOL    HW178919   0.802   5.791   4.145
25674SOL    HW278920   0.726   5.836   4.268
25675SOL     OW78921   7.356   1.258   4.382
25675SOL    HW178922   7.439   1.297   4.411
25675SOL    HW278923   7.295   1.332   4.379
25676SOL     OW78924   0.164  14.597   9.280
25676SOL    HW178925   0.092  14.583   9.219
25676SOL    HW278926   0.243  14.581   9.227
25677SOL     OW78927   8.080   5.896   8.267
25677SOL    HW178928   8.008   5.852   8.312
25677SOL    HW278929   8.090   5.979   8.314
25678SOL     OW78930   6.655  10.498  11.017
25678SOL    HW178931   6.686  10.585  11.040
25678SOL    HW278932   6.618  10.463  11.097
25679SOL     OW78933  14.875   1.000  10.333
25679SOL    HW178934  14.817   0.929  10.360
25679SOL    HW278935  14.823   1.052  10.272
25680SOL     OW78936  13.842  10.185  11.416
25680SOL    HW178937  13.870  10.269  11.379
25680SOL    HW278938  13.923  10.143  11.445
25681SOL     OW78939   2.081   0.008   4.289
25681SOL    HW178940   2.112  14.864   4.204
25681SOL    HW278941   2.159   0.011   4.345
25682SOL     OW78942   2.318   3.951   1.333
25682SOL    HW178943   2.326   3.864   1.372
25682SOL    HW278944   2.301   4.009   1.407
25683SOL     OW78945   5.889  14.787   5.165
25683SOL    HW178946   5.925  14.698   5.165
25683SOL    HW278947   5.960  14.841   5.131
25684SOL     OW78948   8.675  14.130   1.375
25684SOL    HW178949   8.596  14.129   1.321
25684SOL    HW278950   8.665  14.056   1.434
25685SOL     OW78951   0.605   8.447   1.293
25685SOL    HW178952   0.645   8.532   1.313
25685SOL    HW278953   0.579   8.412   1.378
25686SOL     OW78954  11.653   9.271   7.481
25686SOL    HW178955  11.671   9.181   7.455
25686SOL    HW278956  11.596   9.263   7.558
25687SOL     OW78957   5.744   5.362   4.114
25687SOL    HW178958   5.699   5.370   4.198
25687SOL    HW278959   5.720   5.441   4.066
25688SOL     OW78960   3.900  12.507   9.336
25688SOL    HW178961   3.845  12.585   9.336
25688SOL    HW278962   3.921  12.491   9.244
25689SOL     OW78963   3.821  10.747   2.362
25689SOL    HW178964   3.729  10.722   2.354
25689SOL    HW278965   3.865  10.699   2.292
25690SOL     OW78966  10.541   2.197  12.459
25690SOL    HW178967  10.600   2.166  12.528
25690SOL    HW278968  10.467   2.235  12.507
25691SOL     OW78969  12.285  12.380   8.895
25691SOL    HW178970  12.233  12.412   8.968
25691SOL    HW278971  12.331  12.303   8.930
25692SOL     OW78972  12.513   6.940  10.546
25692SOL    HW178973  12.544   6.904  10.629
25692SOL    HW278974  12.590   6.940  10.489
25693SOL     OW78975   7.035  13.783  10.610
25693SOL    HW178976   7.123  13.812  10.633
25693SOL    HW278977   6.999  13.748  10.692
25694SOL     OW78978   5.216   4.722   8.485
25694SOL    HW178979   5.280   4.711   8.555
25694SOL    HW278980   5.140   4.671   8.513
25695SOL     OW78981   7.299  14.511  11.253
25695SOL    HW178982   7.371  14.495  11.314
25695SOL    HW278983   7.319  14.597  11.215
25696SOL     OW78984   0.752   1.644   9.693
25696SOL    HW178985   0.662   1.614   9.679
25696SOL    HW278986   0.763   1.643   9.788
25697SOL     OW78987   6.648  13.225   8.513
25697SOL    HW178988   6.685  13.162   8.451
25697SOL    HW278989   6.637  13.305   8.462
25698SOL     OW78990   8.348   9.449  10.792
25698SOL    HW178991   8.365   9.381  10.857
25698SOL    HW278992   8.269   9.419  10.746
25699SOL     OW78993   7.739  13.504   7.388
25699SOL    HW178994   7.684  13.521   7.464
25699SOL    HW278995   7.790  13.584   7.377
25700SOL     OW78996   1.509  13.013   6.445
25700SOL    HW178997   1.544  13.063   6.372
25700SOL    HW278998   1.565  12.935   6.448
25701SOL     OW78999   2.643  14.341  13.961
25701SOL    HW179000   2.549  14.357  13.970
25701SOL    HW279001   2.656  14.324  13.868
25702SOL     OW79002   7.932   4.341   7.758
25702SOL    HW179003   7.852   4.294   7.733
25702SOL    HW279004   7.904   4.433   7.765
25703SOL     OW79005   9.588   4.526   7.566
25703SOL    HW179006   9.581   4.601   7.625
25703SOL    HW279007   9.501   4.488   7.565
25704SOL     OW79008   5.484   2.071   4.386
25704SOL    HW179009   5.531   2.017   4.322
25704SOL    HW279010   5.528   2.053   4.470
25705SOL     OW79011   0.650  10.408   5.157
25705SOL    HW179012   0.596  10.345   5.205
25705SOL    HW279013   0.634  10.388   5.064
25706SOL     OW79014   3.484   9.921  10.530
25706SOL    HW179015   3.557   9.953  10.584
25706SOL    HW279016   3.477   9.828  10.552
25707SOL     OW79017   0.733   5.356   1.534
25707SOL    HW179018   0.774   5.272   1.515
25707SOL    HW279019   0.643   5.335   1.559
25708SOL     OW79020  13.608   2.100   9.694
25708SOL    HW179021  13.610   2.175   9.754
25708SOL    HW279022  13.614   2.139   9.607
25709SOL     OW79023   0.034   0.860   0.260
25709SOL    HW179024   0.051   0.809   0.180
25709SOL    HW279025   0.050   0.951   0.235
25710SOL     OW79026  14.695  13.951   7.282
25710SOL    HW179027  14.710  13.996   7.199
25710SOL    HW279028  14.640  14.012   7.333
25711SOL     OW79029  14.406  10.510   2.355
25711SOL    HW179030  14.469  10.574   2.388
25711SOL    HW279031  14.393  10.534   2.263
25712SOL     OW79032   4.575   1.119   0.174
25712SOL    HW179033   4.588   1.049   0.238
25712SOL    HW279034   4.643   1.184   0.196
25713SOL     OW79035  12.465  12.901  11.611
25713SOL    HW179036  12.378  12.878  11.644
25713SOL    HW279037  12.505  12.951  11.682
25714SOL     OW79038   2.559   9.597  13.303
25714SOL    HW179039   2.541   9.569  13.214
25714SOL    HW279040   2.548   9.692  13.302
25715SOL     OW79041  11.090   3.308   2.390
25715SOL    HW179042  11.070   3.216   2.406
25715SOL    HW279043  11.029   3.356   2.446
25716SOL     OW79044  12.963  13.854   9.711
25716SOL    HW179045  12.913  13.796   9.654
25716SOL    HW279046  13.047  13.809   9.723
25717SOL     OW79047  14.728  11.631   3.069
25717SOL    HW179048  14.651  11.595   3.114
25717SOL    HW279049  14.741  11.717   3.108
25718SOL     OW79050  11.124   0.915   5.390
25718SOL    HW179051  11.162   0.997   5.422
25718SOL    HW279052  11.081   0.938   5.308
25719SOL     OW79053   3.859   2.154  14.613
25719SOL    HW179054   3.933   2.104  14.647
25719SOL    HW279055   3.786   2.131  14.669
25720SOL     OW79056   2.678  13.231   0.981
25720SOL    HW179057   2.660  13.184   0.900
25720SOL    HW279058   2.663  13.166   1.050
25721SOL     OW79059   3.339   5.020   6.065
25721SOL    HW179060   3.420   4.980   6.096
25721SOL    HW279061   3.319   5.088   6.129
25722SOL     OW79062   9.765   1.588  10.611
25722SOL    HW179063   9.701   1.628  10.669
25722SOL    HW279064   9.732   1.607  10.523
25723SOL     OW79065   3.639   5.127   2.680
25723SOL    HW179066   3.638   5.114   2.775
25723SOL    HW279067   3.559   5.176   2.661
25724SOL     OW79068   8.840   0.563   4.587
25724SOL    HW179069   8.808   0.621   4.518
25724SOL    HW279070   8.935   0.577   4.587
25725SOL     OW79071   2.245   7.343   7.414
25725SOL    HW179072   2.279   7.287   7.484
25725SOL    HW279073   2.169   7.387   7.452
25726SOL     OW79074  12.460   7.168   1.567
25726SOL    HW179075  12.441   7.081   1.531
25726SOL    HW279076  12.462   7.155   1.661
25727SOL     OW79077   4.180   9.005  13.520
25727SOL    HW179078   4.169   8.969  13.432
25727SOL    HW279079   4.262   8.968  13.551
25728SOL     OW79080   6.090   5.808  12.640
25728SOL    HW179081   6.058   5.718  12.628
25728SOL    HW279082   6.174   5.810  12.594
25729SOL     OW79083  12.251   7.035   4.940
25729SOL    HW179084  12.204   7.111   4.976
25729SOL    HW279085  12.183   6.978   4.906
25730SOL     OW79086   1.543  13.137   1.315
25730SOL    HW179087   1.537  13.084   1.395
25730SOL    HW279088   1.463  13.117   1.267
25731SOL     OW79089  13.719  14.690   3.753
25731SOL    HW179090  13.714  14.608   3.802
25731SOL    HW279091  13.805  14.726   3.776
25732SOL     OW79092   1.506  12.946  14.155
25732SOL    HW179093   1.559  12.926  14.078
25732SOL    HW279094   1.438  12.878  14.156
25733SOL     OW79095  11.254   4.124  14.230
25733SOL    HW179096  11.308   4.197  14.199
25733SOL    HW279097  11.231   4.077  14.150
25734SOL     OW79098   1.435  13.373   5.174
25734SOL    HW179099   1.382  13.310   5.125
25734SOL    HW279100   1.524  13.362   5.140
25735SOL     OW79101   7.680   2.836   6.281
25735SOL    HW179102   7.698   2.900   6.213
25735SOL    HW279103   7.650   2.758   6.234
25736SOL     OW79104   1.784   3.065   5.555
25736SOL    HW179105   1.846   3.067   5.629
25736SOL    HW279106   1.826   3.007   5.491
25737SOL     OW79107  11.827  12.854  10.762
25737SOL    HW179108  11.834  12.806  10.680
25737SOL    HW279109  11.912  12.896  10.773
25738SOL     OW79110   6.132  12.104   6.978
25738SOL    HW179111   6.192  12.155   7.033
25738SOL    HW279112   6.061  12.165   6.957
25739SOL     OW79113   3.957   0.759  11.401
25739SOL    HW179114   3.968   0.775  11.307
25739SOL    HW279115   4.014   0.823  11.443
25740SOL     OW79116   7.453   2.744   7.779
25740SOL    HW179117   7.408   2.677   7.831
25740SOL    HW279118   7.542   2.711   7.769
25741SOL     OW79119   1.940  10.214  11.169
25741SOL    HW179120   1.965  10.302  11.144
25741SOL    HW279121   1.993  10.157  11.112
25742SOL     OW79122   2.529   5.055   5.213
25742SOL    HW179123   2.616   5.095   5.206
25742SOL    HW279124   2.500   5.045   5.122
25743SOL     OW79125  10.442   1.236   7.574
25743SOL    HW179126  10.486   1.319   7.556
25743SOL    HW279127  10.358   1.260   7.612
25744SOL     OW79128   7.062  13.366  13.065
25744SOL    HW179129   7.069  13.437  13.002
25744SOL    HW279130   6.968  13.349  13.072
25745SOL     OW79131   5.089   4.798  11.024
25745SOL    HW179132   5.083   4.820  11.117
25745SOL    HW279133   5.089   4.882  10.979
25746SOL     OW79134   0.896   9.598   7.784
25746SOL    HW179135   0.917   9.659   7.714
25746SOL    HW279136   0.974   9.600   7.841
25747SOL     OW79137  13.617  12.421   4.151
25747SOL    HW179138  13.670  12.402   4.229
25747SOL    HW279139  13.539  12.367   4.161
25748SOL     OW79140   8.057   2.540   8.649
25748SOL    HW179141   8.043   2.466   8.707
25748SOL    HW279142   8.138   2.519   8.602
25749SOL     OW79143   3.458   0.781   3.211
25749SOL    HW179144   3.379   0.835   3.211
25749SOL    HW279145   3.469   0.755   3.303
25750SOL     OW79146   9.032  10.516   6.008
25750SOL    HW179147   9.004  10.490   6.096
25750SOL    HW279148   9.095  10.587   6.022
25751SOL     OW79149   7.531  11.874  11.412
25751SOL    HW179150   7.552  11.859  11.319
25751SOL    HW279151   7.607  11.840  11.459
25752SOL     OW79152   9.674   1.703  13.406
25752SOL    HW179153   9.735   1.775  13.414
25752SOL    HW279154   9.629   1.700  13.491
25753SOL     OW79155   5.427  10.720   0.146
25753SOL    HW179156   5.354  10.659   0.150
25753SOL    HW279157   5.402  10.790   0.207
25754SOL     OW79158   7.446   5.979   5.322
25754SOL    HW179159   7.369   5.957   5.269
25754SOL    HW279160   7.517   5.927   5.284
25755SOL     OW79161  12.785  12.941  14.197
25755SOL    HW179162  12.821  12.926  14.285
25755SOL    HW279163  12.709  12.883  14.193
25756SOL     OW79164   7.395  10.689  10.087
25756SOL    HW179165   7.445  10.672  10.167
25756SOL    HW279166   7.449  10.653  10.017
25757SOL     OW79167   0.851   1.072   8.034
25757SOL    HW179168   0.771   1.027   8.007
25757SOL    HW279169   0.899   1.007   8.084
25758SOL     OW79170   0.673  13.199   6.643
25758SOL    HW179171   0.753  13.251   6.651
25758SOL    HW279172   0.699  13.110   6.669
25759SOL     OW79173   5.934  14.386   2.715
25759SOL    HW179174   5.972  14.451   2.656
25759SOL    HW279175   6.009  14.333   2.743
25760SOL     OW79176   4.678  13.119   1.447
25760SOL    HW179177   4.741  13.148   1.380
25760SOL    HW279178   4.618  13.062   1.399
25761SOL     OW79179  11.762   2.963   1.023
25761SOL    HW179180  11.850   2.977   1.056
25761SOL    HW279181  11.770   2.977   0.928
25762SOL     OW79182  10.034   4.709  11.094
25762SOL    HW179183  10.103   4.674  11.151
25762SOL    HW279184   9.953   4.671  11.128
25763SOL     OW79185   9.501   7.216   5.016
25763SOL    HW179186   9.579   7.262   4.985
25763SOL    HW279187   9.528   7.125   5.023
25764SOL     OW79188   3.043  10.739   8.509
25764SOL    HW179189   2.980  10.678   8.550
25764SOL    HW279190   3.124  10.688   8.504
25765SOL     OW79191  14.235  10.280   7.393
25765SOL    HW179192  14.314  10.226   7.388
25765SOL    HW279193  14.212  10.282   7.486
25766SOL     OW79194   5.456   7.247   2.258
25766SOL    HW179195   5.437   7.212   2.345
25766SOL    HW279196   5.514   7.322   2.275
25767SOL     OW79197  11.468   5.057   1.094
25767SOL    HW179198  11.538   5.097   1.043
25767SOL    HW279199  11.486   4.963   1.091
25768SOL     OW79200   3.225   8.797  11.173
25768SOL    HW179201   3.280   8.866  11.210
25768SOL    HW279202   3.205   8.827  11.084
25769SOL     OW79203   2.901  14.428  13.395
25769SOL    HW179204   2.945  14.408  13.312
25769SOL    HW279205   2.811  14.401  13.381
25770SOL     OW79206   3.647   6.528   2.813
25770SOL    HW179207   3.647   6.604   2.755
25770SOL    HW279208   3.573   6.475   2.782
25771SOL     OW79209  13.762  10.794  10.774
25771SOL    HW179210  13.768  10.703  10.805
25771SOL    HW279211  13.839  10.837  10.811
25772SOL     OW79212  13.908   2.202   5.510
25772SOL    HW179213  13.919   2.286   5.465
25772SOL    HW279214  13.814   2.185   5.507
25773SOL     OW79215   3.438   3.510   0.515
25773SOL    HW179216   3.441   3.597   0.554
25773SOL    HW279217   3.398   3.524   0.429
25774SOL     OW79218  11.428  14.131   2.613
25774SOL    HW179219  11.524  14.138   2.609
25774SOL    HW279220  11.404  14.079   2.536
25775SOL     OW79221  14.085   1.196  10.397
25775SOL    HW179222  14.105   1.132  10.464
25775SOL    HW279223  14.171   1.228  10.369
25776SOL     OW79224   5.810   4.080   9.573
25776SOL    HW179225   5.826   3.987   9.557
25776SOL    HW279226   5.755   4.082   9.651
25777SOL     OW79227   2.899   2.628   7.038
25777SOL    HW179228   2.957   2.689   7.083
25777SOL    HW279229   2.816   2.675   7.031
25778SOL     OW79230  12.278   4.784   4.263
25778SOL    HW179231  12.372   4.773   4.277
25778SOL    HW279232  12.238   4.762   4.348
25779SOL     OW79233  10.656   1.727   6.270
25779SOL    HW179234  10.642   1.697   6.180
25779SOL    HW279235  10.745   1.701   6.291
25780SOL     OW79236   1.490   1.137   7.139
25780SOL    HW179237   1.420   1.200   7.157
25780SOL    HW279238   1.571   1.189   7.145
25781SOL     OW79239   0.391   9.169  11.406
25781SOL    HW179240   0.321   9.133  11.461
25781SOL    HW279241   0.465   9.178  11.465
25782SOL     OW79242   2.860  10.427  11.811
25782SOL    HW179243   2.816  10.436  11.726
25782SOL    HW279244   2.908  10.509  11.822
25783SOL     OW79245   5.554   5.125   1.817
25783SOL    HW179246   5.619   5.135   1.886
25783SOL    HW279247   5.543   5.030   1.808
25784SOL     OW79248  12.288   7.122   9.112
25784SOL    HW179249  12.303   7.034   9.148
25784SOL    HW279250  12.375   7.158   9.101
25785SOL     OW79251   1.391   3.814   6.371
25785SOL    HW179252   1.442   3.734   6.364
25785SOL    HW279253   1.326   3.796   6.439
25786SOL     OW79254   8.352   8.398   2.962
25786SOL    HW179255   8.310   8.468   2.912
25786SOL    HW279256   8.431   8.440   2.999
25787SOL     OW79257   0.031  13.529   4.726
25787SOL    HW179258   0.054  13.539   4.634
25787SOL    HW279259   0.111  13.552   4.773
25788SOL     OW79260   9.590   4.823  12.262
25788SOL    HW179261   9.532   4.750  12.283
25788SOL    HW279262   9.549   4.899  12.302
25789SOL     OW79263  13.866   3.051   8.543
25789SOL    HW179264  13.825   2.991   8.481
25789SOL    HW279265  13.796   3.109   8.571
25790SOL     OW79266   3.875  11.539  11.220
25790SOL    HW179267   3.869  11.554  11.126
25790SOL    HW279268   3.828  11.613  11.259
25791SOL     OW79269   5.266   6.081   2.334
25791SOL    HW179270   5.289   6.165   2.296
25791SOL    HW279271   5.207   6.102   2.406
25792SOL     OW79272  12.607   5.120  14.103
25792SOL    HW179273  12.557   5.048  14.142
25792SOL    HW279274  12.601   5.105  14.008
25793SOL     OW79275   6.920  10.729   7.137
25793SOL    HW179276   6.886  10.777   7.062
25793SOL    HW279277   6.893  10.638   7.121
25794SOL     OW79278   2.225  14.319   2.101
25794SOL    HW179279   2.309  14.307   2.145
25794SOL    HW279280   2.214  14.241   2.048
25795SOL     OW79281   4.590   4.317  12.441
25795SOL    HW179282   4.654   4.379  12.406
25795SOL    HW279283   4.608   4.235  12.395
25796SOL     OW79284   5.884  11.774   8.809
25796SOL    HW179285   5.969  11.730   8.818
25796SOL    HW279286   5.840  11.726   8.738
25797SOL     OW79287  11.881   4.641   3.104
25797SOL    HW179288  11.920   4.572   3.157
25797SOL    HW279289  11.812   4.678   3.158
25798SOL     OW79290   9.388  13.392   3.933
25798SOL    HW179291   9.351  13.330   3.871
25798SOL    HW279292   9.473  13.416   3.896
25799SOL     OW79293   5.730  14.700  14.498
25799SOL    HW179294   5.696  14.725  14.584
25799SOL    HW279295   5.666  14.736  14.436
25800SOL     OW79296   3.265  10.665  12.104
25800SOL    HW179297   3.211  10.742  12.117
25800SOL    HW279298   3.291  10.669  12.011
25801SOL     OW79299   8.829  10.746   0.752
25801SOL    HW179300   8.763  10.682   0.726
25801SOL    HW279301   8.780  10.816   0.794
25802SOL     OW79302  10.373   2.290   9.291
25802SOL    HW179303  10.449   2.323   9.339
25802SOL    HW279304  10.394   2.304   9.199
25803SOL     OW79305   8.786   5.013   3.339
25803SOL    HW179306   8.752   5.095   3.374
25803SOL    HW279307   8.880   5.016   3.357
25804SOL     OW79308  10.463   0.900   1.829
25804SOL    HW179309  10.545   0.866   1.863
25804SOL    HW279310  10.426   0.827   1.779
25805SOL     OW79311   4.392  11.719   4.995
25805SOL    HW179312   4.460  11.734   5.062
25805SOL    HW279313   4.364  11.807   4.970
25806SOL     OW79314   0.713   7.112   4.681
25806SOL    HW179315   0.693   7.143   4.769
25806SOL    HW279316   0.649   7.043   4.664
25807SOL     OW79317  12.772  13.881   8.921
25807SOL    HW179318  12.723  13.804   8.947
25807SOL    HW279319  12.862  13.863   8.948
25808SOL     OW79320   9.823   6.866  13.174
25808SOL    HW179321   9.889   6.867  13.244
25808SOL    HW279322   9.742   6.843  13.219
25809SOL     OW79323  12.141  13.146   6.911
25809SOL    HW179324  12.143  13.051   6.914
25809SOL    HW279325  12.183  13.168   6.828
25810SOL     OW79326  11.342  14.803   3.869
25810SOL    HW179327  11.398  14.847   3.805
25810SOL    HW279328  11.390  14.724   3.893
25811SOL     OW79329   9.351   9.525  14.506
25811SOL    HW179330   9.301   9.503  14.428
25811SOL    HW279331   9.426   9.466  14.505
25812SOL     OW79332   4.183   4.274   6.824
25812SOL    HW179333   4.138   4.304   6.903
25812SOL    HW279334   4.114   4.236   6.770
25813SOL     OW79335   6.981   5.709   4.592
25813SOL    HW179336   6.901   5.710   4.644
25813SOL    HW279337   6.951   5.717   4.501
25814SOL     OW79338   8.711  11.568   6.300
25814SOL    HW179339   8.675  11.637   6.244
25814SOL    HW279340   8.712  11.606   6.388
25815SOL     OW79341  13.784   3.384   9.589
25815SOL    HW179342  13.707   3.401   9.535
25815SOL    HW279343  13.761   3.420   9.675
25816SOL     OW79344   3.829   0.244   7.112
25816SOL    HW179345   3.789   0.169   7.155
25816SOL    HW279346   3.843   0.308   7.182
25817SOL     OW79347   5.113   6.956   4.917
25817SOL    HW179348   5.098   6.995   5.003
25817SOL    HW279349   5.164   6.877   4.935
25818SOL     OW79350  14.164   8.794  10.944
25818SOL    HW179351  14.201   8.801  11.032
25818SOL    HW279352  14.150   8.700  10.931
25819SOL     OW79353  13.406   4.418  13.833
25819SOL    HW179354  13.470   4.367  13.884
25819SOL    HW279355  13.391   4.496  13.886
25820SOL     OW79356   1.592  13.807   6.877
25820SOL    HW179357   1.660  13.871   6.900
25820SOL    HW279358   1.641  13.727   6.858
25821SOL     OW79359   5.638   8.190   5.029
25821SOL    HW179360   5.718   8.139   5.024
25821SOL    HW279361   5.606   8.193   4.939
25822SOL     OW79362   4.343   2.832  14.260
25822SOL    HW179363   4.267   2.795  14.216
25822SOL    HW279364   4.308   2.896  14.322
25823SOL     OW79365   1.439   9.525   1.913
25823SOL    HW179366   1.377   9.574   1.968
25823SOL    HW279367   1.487   9.470   1.975
25824SOL     OW79368   3.541  10.128   7.494
25824SOL    HW179369   3.604  10.126   7.566
25824SOL    HW279370   3.551  10.043   7.451
25825SOL     OW79371   6.735   2.082   6.173
25825SOL    HW179372   6.767   2.090   6.084
25825SOL    HW279373   6.664   2.017   6.167
25826SOL     OW79374   3.811  12.784   5.114
25826SOL    HW179375   3.737  12.761   5.056
25826SOL    HW279376   3.879  12.815   5.054
25827SOL     OW79377  12.158   6.704   1.564
25827SOL    HW179378  12.082   6.716   1.622
25827SOL    HW279379  12.224   6.663   1.619
25828SOL     OW79380   5.013  14.071   2.801
25828SOL    HW179381   4.946  14.133   2.829
25828SOL    HW279382   5.087  14.126   2.776
25829SOL     OW79383   7.288   8.998   0.207
25829SOL    HW179384   7.336   9.055   0.268
25829SOL    HW279385   7.227   9.057   0.163
25830SOL     OW79386   2.002  10.200  13.172
25830SOL    HW179387   1.977  10.277  13.120
25830SOL    HW279388   1.928  10.186  13.231
25831SOL     OW79389   4.922  13.481  13.624
25831SOL    HW179390   4.874  13.514  13.700
25831SOL    HW279391   4.910  13.386  13.627
25832SOL     OW79392   9.947   8.610   3.733
25832SOL    HW179393   9.896   8.684   3.701
25832SOL    HW279394  10.031   8.648   3.759
25833SOL     OW79395   1.655  13.054   0.440
25833SOL    HW179396   1.595  12.993   0.484
25833SOL    HW279397   1.731  13.058   0.498
25834SOL     OW79398  14.613   2.460   0.761
25834SOL    HW179399  14.583   2.491   0.847
25834SOL    HW279400  14.532   2.439   0.714
25835SOL     OW79401  13.680  10.155   4.054
25835SOL    HW179402  13.675  10.060   4.065
25835SOL    HW279403  13.641  10.190   4.134
25836SOL     OW79404  10.385  13.687  10.317
25836SOL    HW179405  10.391  13.780  10.338
25836SOL    HW279406  10.460  13.670  10.260
25837SOL     OW79407  11.454  13.799   9.870
25837SOL    HW179408  11.531  13.769   9.918
25837SOL    HW279409  11.380  13.754   9.912
25838SOL     OW79410   2.441   1.903   5.990
25838SOL    HW179411   2.521   1.946   5.959
25838SOL    HW279412   2.404   1.964   6.053
25839SOL     OW79413   9.094  14.351  10.196
25839SOL    HW179414   9.155  14.278  10.207
25839SOL    HW279415   9.097  14.370  10.102
25840SOL     OW79416  14.421   5.707   4.833
25840SOL    HW179417  14.471   5.638   4.877
25840SOL    HW279418  14.482   5.780   4.826
25841SOL     OW79419  10.457   4.941  14.740
25841SOL    HW179420  10.442   4.863  14.793
25841SOL    HW279421  10.489   4.908  14.656
25842SOL     OW79422  10.636   4.175  14.200
25842SOL    HW179423  10.599   4.205  14.117
25842SOL    HW279424  10.563   4.130  14.244
25843SOL     OW79425   7.901  14.279   6.799
25843SOL    HW179426   7.931  14.189   6.815
25843SOL    HW279427   7.856  14.304   6.880
25844SOL     OW79428  13.741   0.136   4.614
25844SOL    HW179429  13.768   0.208   4.671
25844SOL    HW279430  13.656   0.163   4.580
25845SOL     OW79431   3.481   6.871   6.931
25845SOL    HW179432   3.506   6.793   6.881
25845SOL    HW279433   3.541   6.939   6.901
25846SOL     OW79434   4.820   1.038   5.270
25846SOL    HW179435   4.902   0.989   5.275
25846SOL    HW279436   4.821   1.076   5.182
25847SOL     OW79437   7.473   2.781  10.741
25847SOL    HW179438   7.492   2.695  10.778
25847SOL    HW279439   7.391   2.769  10.693
25848SOL     OW79440   2.645   3.327  10.497
25848SOL    HW179441   2.724   3.369  10.533
25848SOL    HW279442   2.631   3.370  10.413
25849SOL     OW79443  12.792   3.724   0.272
25849SOL    HW179444  12.827   3.676   0.346
25849SOL    HW279445  12.817   3.672   0.195
25850SOL     OW79446   2.588   1.667   4.103
25850SOL    HW179447   2.587   1.747   4.049
25850SOL    HW279448   2.653   1.685   4.170
25851SOL     OW79449   6.716   4.416   4.736
25851SOL    HW179450   6.772   4.480   4.780
25851SOL    HW279451   6.766   4.391   4.658
25852SOL     OW79452  13.475   2.511   3.014
25852SOL    HW179453  13.423   2.587   3.041
25852SOL    HW279454  13.461   2.447   3.083
25853SOL     OW79455   6.152  14.359   1.581
25853SOL    HW179456   6.123  14.269   1.575
25853SOL    HW279457   6.075  14.408   1.609
25854SOL     OW79458   4.327  12.172  12.671
25854SOL    HW179459   4.276  12.246  12.703
25854SOL    HW279460   4.406  12.171  12.725
25855SOL     OW79461   5.473   4.721   2.067
25855SOL    HW179462   5.495   4.697   2.157
25855SOL    HW279463   5.477   4.816   2.066
25856SOL     OW79464  12.612  10.832   6.908
25856SOL    HW179465  12.656  10.863   6.829
25856SOL    HW279466  12.682  10.798   6.963
25857SOL     OW79467  10.132  10.444   4.949
25857SOL    HW179468  10.107  10.470   5.037
25857SOL    HW279469  10.057  10.468   4.894
25858SOL     OW79470   9.727  12.170   6.055
25858SOL    HW179471   9.668  12.185   5.981
25858SOL    HW279472   9.805  12.222   6.034
25859SOL     OW79473   7.183   9.977   7.710
25859SOL    HW179474   7.218   9.975   7.799
25859SOL    HW279475   7.251   9.938   7.656
25860SOL     OW79476   2.025   9.463   9.066
25860SOL    HW179477   2.105   9.414   9.047
25860SOL    HW279478   2.016   9.460   9.161
25861SOL     OW79479   8.951   6.281   0.108
25861SOL    HW179480   8.994   6.288   0.023
25861SOL    HW279481   8.879   6.220   0.093
25862SOL     OW79482   3.932  13.212  10.134
25862SOL    HW179483   3.960  13.235  10.045
25862SOL    HW279484   3.940  13.293  10.183
25863SOL     OW79485   0.174   3.913   5.830
25863SOL    HW179486   0.210   3.887   5.915
25863SOL    HW279487   0.221   3.858   5.767
25864SOL     OW79488  10.710   9.193   4.510
25864SOL    HW179489  10.744   9.107   4.536
25864SOL    HW279490  10.736   9.251   4.582
25865SOL     OW79491  12.457  10.810  10.313
25865SOL    HW179492  12.387  10.764  10.267
25865SOL    HW279493  12.449  10.901  10.283
25866SOL     OW79494   1.343  12.041  12.386
25866SOL    HW179495   1.330  12.136  12.378
25866SOL    HW279496   1.276  12.013  12.449
25867SOL     OW79497   2.654   3.150  14.461
25867SOL    HW179498   2.691   3.140  14.549
25867SOL    HW279499   2.688   3.075  14.412
25868SOL     OW79500  12.974  12.259  11.303
25868SOL    HW179501  12.962  12.308  11.222
25868SOL    HW279502  13.068  12.241  11.306
25869SOL     OW79503  12.902   4.973   0.107
25869SOL    HW179504  12.989   4.960   0.144
25869SOL    HW279505  12.861   4.887   0.113
25870SOL     OW79506  11.584   9.436   7.058
25870SOL    HW179507  11.493   9.456   7.036
25870SOL    HW279508  11.581   9.346   7.090
25871SOL     OW79509   0.052  10.644   5.747
25871SOL    HW179510   0.041  10.709   5.679
25871SOL    HW279511   0.078  10.564   5.701
25872SOL     OW79512   2.445  11.191   1.716
25872SOL    HW179513   2.526  11.161   1.757
25872SOL    HW279514   2.385  11.118   1.725
25873SOL     OW79515  11.497   4.867   5.170
25873SOL    HW179516  11.573   4.902   5.217
25873SOL    HW279517  11.433   4.849   5.238
25874SOL     OW79518   5.211  12.033   6.342
25874SOL    HW179519   5.229  12.127   6.344
25874SOL    HW279520   5.296  11.992   6.326
25875SOL     OW79521  13.023   8.807   5.785
25875SOL    HW179522  13.107   8.818   5.741
25875SOL    HW279523  13.042   8.820   5.878
25876SOL     OW79524   5.696   7.155   6.415
25876SOL    HW179525   5.727   7.205   6.490
25876SOL    HW279526   5.671   7.070   6.452
25877SOL     OW79527   2.122   9.058  14.614
25877SOL    HW179528   2.053   9.098  14.561
25877SOL    HW279529   2.140   8.975  14.571
25878SOL     OW79530  10.715   8.548   7.644
25878SOL    HW179531  10.700   8.591   7.728
25878SOL    HW279532  10.759   8.465   7.666
25879SOL     OW79533  14.106   8.676   6.183
25879SOL    HW179534  14.099   8.720   6.268
25879SOL    HW279535  14.128   8.586   6.204
25880SOL     OW79536  12.042   0.817   7.234
25880SOL    HW179537  12.044   0.740   7.291
25880SOL    HW279538  11.961   0.807   7.184
25881SOL     OW79539   7.936   5.751   2.016
25881SOL    HW179540   7.891   5.672   1.985
25881SOL    HW279541   7.975   5.725   2.099
25882SOL     OW79542   9.857  10.110  14.636
25882SOL    HW179543   9.854  10.017  14.615
25882SOL    HW279544   9.815  10.153  14.561
25883SOL     OW79545   9.484  11.996  10.545
25883SOL    HW179546   9.549  11.940  10.589
25883SOL    HW279547   9.401  11.969  10.584
25884SOL     OW79548  10.924   0.655   0.209
25884SOL    HW179549  11.014   0.623   0.209
25884SOL    HW279550  10.932   0.749   0.190
25885SOL     OW79551   7.182   0.670   9.079
25885SOL    HW179552   7.106   0.653   9.023
25885SOL    HW279553   7.201   0.763   9.066
25886SOL     OW79554   6.329   1.120   1.698
25886SOL    HW179555   6.264   1.172   1.650
25886SOL    HW279556   6.413   1.149   1.664
25887SOL     OW79557   3.168   4.691  11.531
25887SOL    HW179558   3.257   4.666  11.555
25887SOL    HW279559   3.179   4.751  11.457
25888SOL     OW79560  13.244   3.483   3.018
25888SOL    HW179561  13.157   3.522   3.015
25888SOL    HW279562  13.240   3.407   2.961
25889SOL     OW79563   5.309  12.098   3.250
25889SOL    HW179564   5.368  12.030   3.217
25889SOL    HW279565   5.294  12.074   3.342
25890SOL     OW79566   2.812   2.609   7.886
25890SOL    HW179567   2.814   2.592   7.792
25890SOL    HW279568   2.794   2.523   7.925
25891SOL     OW79569   2.889   6.459   7.613
25891SOL    HW179570   2.894   6.544   7.570
25891SOL    HW279571   2.979   6.439   7.637
25892SOL     OW79572   5.568   5.922  14.029
25892SOL    HW179573   5.545   6.015  14.019
25892SOL    HW279574   5.578   5.890  13.940
25893SOL     OW79575  12.224   3.841   2.290
25893SOL    HW179576  12.175   3.759   2.301
25893SOL    HW279577  12.185   3.881   2.212
25894SOL     OW79578  11.161   5.300  12.182
25894SOL    HW179579  11.157   5.205  12.177
25894SOL    HW279580  11.189   5.318  12.272
25895SOL     OW79581   2.072   7.251   5.576
25895SOL    HW179582   2.023   7.179   5.537
25895SOL    HW279583   2.073   7.232   5.670
25896SOL     OW79584   6.734   2.858  10.012
25896SOL    HW179585   6.829   2.869  10.001
25896SOL    HW279586   6.717   2.887  10.102
25897SOL     OW79587  10.830   9.107   6.506
25897SOL    HW179588  10.908   9.104   6.561
25897SOL    HW279589  10.765   9.154   6.558
25898SOL     OW79590   3.158   3.033   2.654
25898SOL    HW179591   3.146   3.034   2.559
25898SOL    HW279592   3.212   3.109   2.673
25899SOL     OW79593   7.514   1.145   2.801
25899SOL    HW179594   7.523   1.160   2.895
25899SOL    HW279595   7.576   1.206   2.761
25900SOL     OW79596   8.359   8.316   8.897
25900SOL    HW179597   8.428   8.370   8.935
25900SOL    HW279598   8.352   8.346   8.806
25901SOL     OW79599  13.412  13.263  10.036
25901SOL    HW179600  13.441  13.219  10.116
25901SOL    HW279601  13.404  13.355  10.061
25902SOL     OW79602   0.735   2.317   4.557
25902SOL    HW179603   0.657   2.370   4.574
25902SOL    HW279604   0.716   2.271   4.475
25903SOL     OW79605  14.488  11.945  12.864
25903SOL    HW179606  14.521  12.013  12.806
25903SOL    HW279607  14.400  11.973  12.888
25904SOL     OW79608   7.223  14.218  10.493
25904SOL    HW179609   7.318  14.206  10.494
25904SOL    HW279610   7.188  14.130  10.502
25905SOL     OW79611   9.064   7.842  13.026
25905SOL    HW179612   9.100   7.916  12.977
25905SOL    HW279613   9.075   7.866  13.118
25906SOL     OW79614   5.947   1.580   0.834
25906SOL    HW179615   5.988   1.663   0.858
25906SOL    HW279616   5.866   1.605   0.790
25907SOL     OW79617   2.109  10.681   5.312
25907SOL    HW179618   2.024  10.692   5.269
25907SOL    HW279619   2.159  10.626   5.251
25908SOL     OW79620   0.201  14.031   4.837
25908SOL    HW179621   0.291  14.003   4.821
25908SOL    HW279622   0.188  14.020   4.932
25909SOL     OW79623   7.014   1.784   5.653
25909SOL    HW179624   7.086   1.847   5.655
25909SOL    HW279625   7.057   1.700   5.637
25910SOL     OW79626   4.798   7.214   9.953
25910SOL    HW179627   4.757   7.200   9.868
25910SOL    HW279628   4.820   7.126   9.984
25911SOL     OW79629  14.230  13.291   3.105
25911SOL    HW179630  14.234  13.260   3.015
25911SOL    HW279631  14.315  13.333   3.121
25912SOL     OW79632   4.478   7.709   6.977
25912SOL    HW179633   4.484   7.616   7.001
25912SOL    HW279634   4.551   7.750   7.025
25913SOL     OW79635   2.105   4.008   6.413
25913SOL    HW179636   2.128   4.098   6.433
25913SOL    HW279637   2.133   3.958   6.490
25914SOL     OW79638  12.620   2.760  13.598
25914SOL    HW179639  12.597   2.669  13.615
25914SOL    HW279640  12.714   2.760  13.586
25915SOL     OW79641  13.540   5.997   4.535
25915SOL    HW179642  13.626   6.014   4.574
25915SOL    HW279643  13.505   5.924   4.586
25916SOL     OW79644   6.455  11.855   7.954
25916SOL    HW179645   6.477  11.914   8.026
25916SOL    HW279646   6.438  11.771   7.996
25917SOL     OW79647   3.638  13.870   6.638
25917SOL    HW179648   3.568  13.921   6.597
25917SOL    HW279649   3.681  13.825   6.566
25918SOL     OW79650  14.748   9.332   4.621
25918SOL    HW179651  14.826   9.352   4.571
25918SOL    HW279652  14.680   9.390   4.586
25919SOL     OW79653   0.611   4.587   8.773
25919SOL    HW179654   0.618   4.538   8.855
25919SOL    HW279655   0.538   4.547   8.727
25920SOL     OW79656   6.892   4.441  12.433
25920SOL    HW179657   6.890   4.484  12.347
25920SOL    HW279658   6.850   4.356  12.417
25921SOL     OW79659   7.381   0.476   0.734
25921SOL    HW179660   7.325   0.538   0.782
25921SOL    HW279661   7.326   0.446   0.662
25922SOL     OW79662   0.106   0.631  11.674
25922SOL    HW179663   0.056   0.618  11.594
25922SOL    HW279664   0.056   0.694  11.725
25923SOL     OW79665   5.184  13.295  12.421
25923SOL    HW179666   5.122  13.312  12.350
25923SOL    HW279667   5.253  13.242  12.381
25924SOL     OW79668  13.958  11.821  13.043
25924SOL    HW179669  13.934  11.740  13.088
25924SOL    HW279670  13.874  11.861  13.021
25925SOL     OW79671  11.607   2.212  13.305
25925SOL    HW179672  11.669   2.284  13.288
25925SOL    HW279673  11.575   2.229  13.394
25926SOL     OW79674   7.491   0.769  11.913
25926SOL    HW179675   7.493   0.674  11.915
25926SOL    HW279676   7.398   0.791  11.904
25927SOL     OW79677   6.633   1.400  12.658
25927SOL    HW179678   6.634   1.338  12.586
25927SOL    HW279679   6.665   1.482  12.620
25928SOL     OW79680  12.964   1.811   8.881
25928SOL    HW179681  13.037   1.862   8.844
25928SOL    HW279682  12.983   1.721   8.857
25929SOL     OW79683   5.768   6.403   9.887
25929SOL    HW179684   5.762   6.491   9.850
25929SOL    HW279685   5.841   6.362   9.841
25930SOL     OW79686   5.996   4.396  13.513
25930SOL    HW179687   6.024   4.329  13.575
25930SOL    HW279688   5.906   4.371  13.491
25931SOL     OW79689   6.460   2.516  11.700
25931SOL    HW179690   6.478   2.589  11.640
25931SOL    HW279691   6.496   2.439  11.655
25932SOL     OW79692   7.851   1.948   1.669
25932SOL    HW179693   7.856   1.867   1.619
25932SOL    HW279694   7.926   1.945   1.728
25933SOL     OW79695   7.909  13.191   5.401
25933SOL    HW179696   7.866  13.271   5.371
25933SOL    HW279697   7.884  13.125   5.336
25934SOL     OW79698   7.264  11.596   9.778
25934SOL    HW179699   7.186  11.651   9.782
25934SOL    HW279700   7.334  11.656   9.752
25935SOL     OW79701   1.285   8.411   7.954
25935SOL    HW179702   1.205   8.406   7.902
25935SOL    HW279703   1.334   8.332   7.930
25936SOL     OW79704   0.401  11.545   0.680
25936SOL    HW179705   0.379  11.604   0.607
25936SOL    HW279706   0.477  11.585   0.721
25937SOL     OW79707   0.160   8.269  10.059
25937SOL    HW179708   0.078   8.220  10.068
25937SOL    HW279709   0.158   8.301   9.969
25938SOL     OW79710   1.446   5.328  13.438
25938SOL    HW179711   1.396   5.403  13.468
25938SOL    HW279712   1.388   5.253  13.450
25939SOL     OW79713  13.755   7.286   7.405
25939SOL    HW179714  13.786   7.373   7.430
25939SOL    HW279715  13.731   7.295   7.312
25940SOL     OW79716   1.219   6.519   2.396
25940SOL    HW179717   1.208   6.606   2.433
25940SOL    HW279718   1.304   6.522   2.351
25941SOL     OW79719  11.205   0.461   0.625
25941SOL    HW179720  11.298   0.482   0.609
25941SOL    HW279721  11.201   0.365   0.618
25942SOL     OW79722   3.176  10.788  12.473
25942SOL    HW179723   3.096  10.836  12.453
25942SOL    HW279724   3.246  10.851  12.460
25943SOL     OW79725   7.124   7.957  13.208
25943SOL    HW179726   7.120   7.944  13.302
25943SOL    HW279727   7.108   8.051  13.195
25944SOL     OW79728   8.345   7.802   6.259
25944SOL    HW179729   8.280   7.767   6.320
25944SOL    HW279730   8.381   7.879   6.305
25945SOL     OW79731   4.759   3.554  14.872
25945SOL    HW179732   4.780   3.605   0.063
25945SOL    HW279733   4.775   3.463   0.009
25946SOL     OW79734   3.574   0.904  13.524
25946SOL    HW179735   3.485   0.886  13.491
25946SOL    HW279736   3.623   0.825  13.502
25947SOL     OW79737  13.742  13.757  13.089
25947SOL    HW179738  13.653  13.768  13.055
25947SOL    HW279739  13.787  13.706  13.022
25948SOL     OW79740   2.567   7.020   4.890
25948SOL    HW179741   2.493   7.050   4.837
25948SOL    HW279742   2.558   6.924   4.891
25949SOL     OW79743   2.496   4.527  14.366
25949SOL    HW179744   2.508   4.586  14.440
25949SOL    HW279745   2.549   4.451  14.386
25950SOL     OW79746  13.776   4.706  14.718
25950SOL    HW179747  13.750   4.623  14.757
25950SOL    HW279748  13.825   4.751  14.787
25951SOL     OW79749   9.542   2.930   8.499
25951SOL    HW179750   9.553   3.021   8.526
25951SOL    HW279751   9.447   2.917   8.495
25952SOL     OW79752   0.045  14.397   3.516
25952SOL    HW179753   0.027  14.323   3.573
25952SOL    HW279754   0.140  14.409   3.521
25953SOL     OW79755   8.332  13.651  13.822
25953SOL    HW179756   8.241  13.673  13.802
25953SOL    HW279757   8.331  13.629  13.915
25954SOL     OW79758   1.117  12.290   3.154
25954SOL    HW179759   1.122  12.385   3.143
25954SOL    HW279760   1.165  12.255   3.079
25955SOL     OW79761   4.287   9.398  11.061
25955SOL    HW179762   4.290   9.476  11.116
25955SOL    HW279763   4.374   9.393  11.021
25956SOL     OW79764   6.869  11.152  12.698
25956SOL    HW179765   6.791  11.108  12.664
25956SOL    HW279766   6.935  11.141  12.630
25957SOL     OW79767   9.788   5.726   2.521
25957SOL    HW179768   9.765   5.660   2.585
25957SOL    HW279769   9.728   5.799   2.537
25958SOL     OW79770  11.631  14.865   8.091
25958SOL    HW179771  11.563   0.037   8.059
25958SOL    HW279772  11.688   0.034   8.144
25959SOL     OW79773   0.785   6.623   6.014
25959SOL    HW179774   0.845   6.695   6.031
25959SOL    HW279775   0.767   6.628   5.920
25960SOL     OW79776   6.371   9.752   6.398
25960SOL    HW179777   6.347   9.764   6.306
25960SOL    HW279778   6.326   9.822   6.444
25961SOL     OW79779  14.362   8.082   2.081
25961SOL    HW179780  14.302   8.156   2.074
25961SOL    HW279781  14.426   8.109   2.147
25962SOL     OW79782  12.477  11.677   2.488
25962SOL    HW179783  12.539  11.750   2.487
25962SOL    HW279784  12.438  11.677   2.400
25963SOL     OW79785   6.907  10.882   0.964
25963SOL    HW179786   6.869  10.811   1.015
25963SOL    HW279787   6.996  10.892   0.998
25964SOL     OW79788   8.839   9.589   7.250
25964SOL    HW179789   8.815   9.543   7.330
25964SOL    HW279790   8.911   9.538   7.214
25965SOL     OW79791   2.161   3.631   1.146
25965SOL    HW179792   2.193   3.709   1.102
25965SOL    HW279793   2.066   3.638   1.143
25966SOL     OW79794   9.289  11.552   4.663
25966SOL    HW179795   9.325  11.485   4.721
25966SOL    HW279796   9.195  11.533   4.658
25967SOL     OW79797   8.076  12.225  12.324
25967SOL    HW179798   7.988  12.249  12.293
25967SOL    HW279799   8.067  12.134  12.351
25968SOL     OW79800   5.303   7.975   5.759
25968SOL    HW179801   5.334   8.045   5.817
25968SOL    HW279802   5.320   8.008   5.671
25969SOL     OW79803  14.645   7.716  10.395
25969SOL    HW179804  14.680   7.654  10.331
25969SOL    HW279805  14.620   7.661  10.469
25970SOL     OW79806  10.742   4.081   8.024
25970SOL    HW179807  10.693   3.999   8.012
25970SOL    HW279808  10.833   4.056   8.006
25971SOL     OW79809   2.193   2.762  14.784
25971SOL    HW179810   2.197   2.807  14.700
25971SOL    HW279811   2.115   2.798  14.827
25972SOL     OW79812   5.751   3.586   8.346
25972SOL    HW179813   5.692   3.511   8.348
25972SOL    HW279814   5.694   3.661   8.363
25973SOL     OW79815  11.102   3.387   1.183
25973SOL    HW179816  11.016   3.371   1.223
25973SOL    HW279817  11.130   3.470   1.219
25974SOL     OW79818   1.777   1.243  11.131
25974SOL    HW179819   1.718   1.263  11.059
25974SOL    HW279820   1.830   1.170  11.099
25975SOL     OW79821   2.181  12.882  10.252
25975SOL    HW179822   2.090  12.861  10.231
25975SOL    HW279823   2.178  12.921  10.339
25976SOL     OW79824   1.660   5.348  11.191
25976SOL    HW179825   1.718   5.425  11.189
25976SOL    HW279826   1.710   5.282  11.241
25977SOL     OW79827   5.984   8.201  14.477
25977SOL    HW179828   6.027   8.281  14.445
25977SOL    HW279829   5.929   8.231  14.549
25978SOL     OW79830  11.950   0.431   3.426
25978SOL    HW179831  11.886   0.361   3.432
25978SOL    HW279832  11.914   0.502   3.479
25979SOL     OW79833  13.011  14.737  11.736
25979SOL    HW179834  12.917  14.722  11.732
25979SOL    HW279835  13.020  14.826  11.770
25980SOL     OW79836   8.006  14.050  11.810
25980SOL    HW179837   8.028  14.122  11.871
25980SOL    HW279838   8.071  13.982  11.830
25981SOL     OW79839  14.641   0.388   8.132
25981SOL    HW179840  14.642   0.353   8.221
25981SOL    HW279841  14.557   0.435   8.126
25982SOL     OW79842   1.364   9.883   4.220
25982SOL    HW179843   1.335   9.797   4.189
25982SOL    HW279844   1.339   9.885   4.313
25983SOL     OW79845   4.751   1.595   6.594
25983SOL    HW179846   4.753   1.604   6.690
25983SOL    HW279847   4.702   1.514   6.580
25984SOL     OW79848   0.402   6.564  13.017
25984SOL    HW179849   0.357   6.487  12.983
25984SOL    HW279850   0.355   6.586  13.098
25985SOL     OW79851   2.308   1.451   8.966
25985SOL    HW179852   2.279   1.407   8.886
25985SOL    HW279853   2.319   1.543   8.940
25986SOL     OW79854   1.447   2.598   2.361
25986SOL    HW179855   1.457   2.505   2.378
25986SOL    HW279856   1.409   2.634   2.441
25987SOL     OW79857  10.160   0.161   8.173
25987SOL    HW179858  10.116   0.195   8.250
25987SOL    HW279859  10.114   0.201   8.099
25988SOL     OW79860   1.138   3.815   3.994
25988SOL    HW179861   1.154   3.848   4.082
25988SOL    HW279862   1.225   3.793   3.960
25989SOL     OW79863   1.560   1.435   6.899
25989SOL    HW179864   1.610   1.390   6.830
25989SOL    HW279865   1.612   1.513   6.919
25990SOL     OW79866  12.571   2.656   8.119
25990SOL    HW179867  12.553   2.569   8.083
25990SOL    HW279868  12.602   2.639   8.208
25991SOL     OW79869   1.421  13.293  13.031
25991SOL    HW179870   1.446  13.218  12.976
25991SOL    HW279871   1.334  13.317  13.000
25992SOL     OW79872  11.498   3.370   2.380
25992SOL    HW179873  11.581   3.415   2.390
25992SOL    HW279874  11.521   3.277   2.381
25993SOL     OW79875   8.526   3.916   9.466
25993SOL    HW179876   8.452   3.937   9.522
25993SOL    HW279877   8.561   3.834   9.502
25994SOL     OW79878   0.501   0.403  10.405
25994SOL    HW179879   0.493   0.404  10.310
25994SOL    HW279880   0.510   0.495  10.430
25995SOL     OW79881   8.109   4.550   7.106
25995SOL    HW179882   8.030   4.537   7.054
25995SOL    HW279883   8.179   4.514   7.052
25996SOL     OW79884   1.349   2.766  13.955
25996SOL    HW179885   1.400   2.704  14.007
25996SOL    HW279886   1.405   2.843  13.949
25997SOL     OW79887   2.528   3.890  10.990
25997SOL    HW179888   2.449   3.872  10.940
25997SOL    HW279889   2.503   3.875  11.081
25998SOL     OW79890   0.940   3.860   0.835
25998SOL    HW179891   0.866   3.912   0.867
25998SOL    HW279892   0.930   3.862   0.739
25999SOL     OW79893   5.476  10.483   7.016
25999SOL    HW179894   5.409  10.479   7.084
25999SOL    HW279895   5.448  10.419   6.951
26000SOL     OW79896   6.282   8.153   8.864
26000SOL    HW179897   6.255   8.175   8.953
26000SOL    HW279898   6.247   8.065   8.849
26001SOL     OW79899  14.299   4.515   7.524
26001SOL    HW179900  14.207   4.498   7.507
26001SOL    HW279901  14.342   4.430   7.514
26002SOL     OW79902   3.278   9.592   5.121
26002SOL    HW179903   3.331   9.577   5.200
26002SOL    HW279904   3.200   9.539   5.134
26003SOL     OW79905  10.622   8.167   0.731
26003SOL    HW179906  10.565   8.212   0.792
26003SOL    HW279907  10.700   8.222   0.725
26004SOL     OW79908   9.214   6.706   8.120
26004SOL    HW179909   9.285   6.702   8.055
26004SOL    HW279910   9.173   6.791   8.105
26005SOL     OW79911   6.601  12.018  10.659
26005SOL    HW179912   6.667  12.052  10.719
26005SOL    HW279913   6.641  11.939  10.621
26006SOL     OW79914   2.348   0.752  11.818
26006SOL    HW179915   2.347   0.802  11.900
26006SOL    HW279916   2.306   0.810  11.754
26007SOL     OW79917   1.905   2.145   3.973
26007SOL    HW179918   1.886   2.052   3.969
26007SOL    HW279919   1.928   2.169   3.883
26008SOL     OW79920   4.908   6.657   8.247
26008SOL    HW179921   4.970   6.689   8.313
26008SOL    HW279922   4.928   6.563   8.240
26009SOL     OW79923   6.621   4.829   1.232
26009SOL    HW179924   6.628   4.904   1.291
26009SOL    HW279925   6.603   4.754   1.289
26010SOL     OW79926  14.535   5.234   3.023
26010SOL    HW179927  14.453   5.284   3.020
26010SOL    HW279928  14.530   5.184   3.104
26011SOL     OW79929  14.271   4.050   4.203
26011SOL    HW179930  14.358   4.014   4.190
26011SOL    HW279931  14.268   4.127   4.146
26012SOL     OW79932   8.714   7.638  12.726
26012SOL    HW179933   8.755   7.554  12.746
26012SOL    HW279934   8.644   7.647  12.790
26013SOL     OW79935  11.498   7.896   1.268
26013SOL    HW179936  11.440   7.889   1.192
26013SOL    HW279937  11.525   7.806   1.286
26014SOL     OW79938   6.579  11.939   3.047
26014SOL    HW179939   6.560  11.873   2.980
26014SOL    HW279940   6.516  12.009   3.029
26015SOL     OW79941  13.701   2.475   7.154
26015SOL    HW179942  13.717   2.382   7.143
26015SOL    HW279943  13.723   2.493   7.246
26016SOL     OW79944  12.124   9.121   3.138
26016SOL    HW179945  12.186   9.136   3.209
26016SOL    HW279946  12.094   9.031   3.152
26017SOL     OW79947   9.064   7.420  10.008
26017SOL    HW179948   9.110   7.501   9.988
26017SOL    HW279949   8.988   7.419   9.949
26018SOL     OW79950  13.828   4.230  10.720
26018SOL    HW179951  13.748   4.276  10.695
26018SOL    HW279952  13.818   4.142  10.683
26019SOL     OW79953   5.937   1.390   1.053
26019SOL    HW179954   5.882   1.433   1.118
26019SOL    HW279955   5.934   1.448   0.977
26020SOL     OW79956   4.894  13.804  12.160
26020SOL    HW179957   4.973  13.781  12.210
26020SOL    HW279958   4.826  13.816  12.227
26021SOL     OW79959   9.550   9.085   3.978
26021SOL    HW179960   9.624   9.145   3.968
26021SOL    HW279961   9.587   8.999   3.962
26022SOL     OW79962   0.692   5.825  14.606
26022SOL    HW179963   0.669   5.805  14.516
26022SOL    HW279964   0.608   5.827  14.653
26023SOL     OW79965   9.164   5.522   8.877
26023SOL    HW179966   9.143   5.554   8.790
26023SOL    HW279967   9.248   5.478   8.867
26024SOL     OW79968   9.236  12.059   0.030
26024SOL    HW179969   9.202  12.077   0.118
26024SOL    HW279970   9.161  12.073  14.859
26025SOL     OW79971  14.555  12.191   8.785
26025SOL    HW179972  14.646  12.164   8.776
26025SOL    HW279973  14.505  12.122   8.742
26026SOL     OW79974  13.620   5.595   8.879
26026SOL    HW179975  13.623   5.571   8.787
26026SOL    HW279976  13.548   5.545   8.916
26027SOL     OW79977   6.682  14.161   8.569
26027SOL    HW179978   6.760  14.173   8.624
26027SOL    HW279979   6.609  14.173   8.629
26028SOL     OW79980  11.205   8.155   8.621
26028SOL    HW179981  11.283   8.190   8.665
26028SOL    HW279982  11.181   8.078   8.673
26029SOL     OW79983   6.358   1.248   0.143
26029SOL    HW179984   6.410   1.238   0.223
26029SOL    HW279985   6.325   1.160   0.125
26030SOL     OW79986   5.318   1.917   5.882
26030SOL    HW179987   5.371   1.847   5.921
26030SOL    HW279988   5.373   1.995   5.888
26031SOL     OW79989  12.558  13.372   6.142
26031SOL    HW179990  12.570  13.300   6.080
26031SOL    HW279991  12.576  13.333   6.228
26032SOL     OW79992  11.347   4.516   2.125
26032SOL    HW179993  11.418   4.462   2.090
26032SOL    HW279994  11.280   4.515   2.057
26033SOL     OW79995  13.027   5.470  14.589
26033SOL    HW179996  12.989   5.384  14.610
26033SOL    HW279997  12.959   5.533  14.615
26034SOL     OW79998   3.315   3.820  13.262
26034SOL    HW179999   3.342   3.762  13.190
26034SOL    HW280000   3.220   3.828  13.251
26035SOL     OW80001   1.763   7.388  14.700
26035SOL    HW180002   1.847   7.432  14.688
26035SOL    HW280003   1.738   7.359  14.612
26036SOL     OW80004   5.201   4.014  10.734
26036SOL    HW180005   5.121   4.064  10.753
26036SOL    HW280006   5.272   4.068  10.767
26037SOL     OW80007  12.343   6.832   8.000
26037SOL    HW180008  12.253   6.799   8.004
26037SOL    HW280009  12.396   6.756   7.976
26038SOL     OW80010   8.965   0.748   6.267
26038SOL    HW180011   9.022   0.749   6.344
26038SOL    HW280012   8.980   0.832   6.224
26039SOL     OW80013  14.881  13.184   1.769
26039SOL    HW180014  14.798  13.144   1.796
26039SOL    HW280015   0.029  13.221   1.849
26040SOL     OW80016   0.102   2.323   2.991
26040SOL    HW180017   0.147   2.407   3.000
26040SOL    HW280018   0.171   2.257   2.992
26041SOL     OW80019   3.163  12.209  14.875
26041SOL    HW180020   3.229  12.263  14.831
26041SOL    HW280021   3.176  12.122  14.838
26042SOL     OW80022   0.839  12.728   5.627
26042SOL    HW180023   0.763  12.711   5.683
26042SOL    HW280024   0.812  12.801   5.572
26043SOL     OW80025   9.275  13.208  10.978
26043SOL    HW180026   9.288  13.299  10.954
26043SOL    HW280027   9.351  13.162  10.942
26044SOL     OW80028   6.963   5.024   0.455
26044SOL    HW180029   6.980   5.118   0.464
26044SOL    HW280030   6.885   5.019   0.400
26045SOL     OW80031   5.446   9.303   0.454
26045SOL    HW180032   5.351   9.306   0.447
26045SOL    HW280033   5.474   9.393   0.436
26046SOL     OW80034   8.705   6.769  13.769
26046SOL    HW180035   8.769   6.782  13.839
26046SOL    HW280036   8.639   6.711  13.807
26047SOL     OW80037  11.531  11.791   3.656
26047SOL    HW180038  11.446  11.774   3.615
26047SOL    HW280039  11.543  11.886   3.648
26048SOL     OW80040  13.036   6.268  12.779
26048SOL    HW180041  12.961   6.316  12.814
26048SOL    HW280042  13.054   6.201  12.845
26049SOL     OW80043   0.853   8.543   8.966
26049SOL    HW180044   0.879   8.590   8.887
26049SOL    HW280045   0.792   8.476   8.935
26050SOL     OW80046   9.494   6.102  12.820
26050SOL    HW180047   9.425   6.081  12.758
26050SOL    HW280048   9.520   6.192  12.797
26051SOL     OW80049   2.745   7.974   9.911
26051SOL    HW180050   2.682   7.935   9.850
26051SOL    HW280051   2.695   7.985   9.992
26052SOL     OW80052   2.861   8.357  11.755
26052SOL    HW180053   2.922   8.343  11.682
26052SOL    HW280054   2.775   8.342  11.718
26053SOL     OW80055   2.677  12.142   6.770
26053SOL    HW180056   2.620  12.136   6.847
26053SOL    HW280057   2.693  12.236   6.760
26054SOL     OW80058   9.559   5.633  11.036
26054SOL    HW180059   9.578   5.545  11.004
26054SOL    HW280060   9.491   5.620  11.103
26055SOL     OW80061  11.159   3.032  11.911
26055SOL    HW180062  11.116   3.117  11.898
26055SOL    HW280063  11.220   3.024  11.838
26056SOL     OW80064  10.778   1.969  14.395
26056SOL    HW180065  10.849   1.973  14.331
26056SOL    HW280066  10.809   1.910  14.463
26057SOL     OW80067   4.147   4.560   3.725
26057SOL    HW180068   4.189   4.478   3.749
26057SOL    HW280069   4.057   4.536   3.703
26058SOL     OW80070  14.721   1.631   4.072
26058SOL    HW180071  14.737   1.726   4.078
26058SOL    HW280072  14.802   1.591   4.103
26059SOL     OW80073   5.638  13.221   3.846
26059SOL    HW180074   5.595  13.165   3.910
26059SOL    HW280075   5.592  13.204   3.763
26060SOL     OW80076  13.683  14.638  14.296
26060SOL    HW180077  13.683  14.693  14.217
26060SOL    HW280078  13.613  14.674  14.350
26061SOL     OW80079   2.127   6.435  11.221
26061SOL    HW180080   2.097   6.505  11.162
26061SOL    HW280081   2.123   6.355  11.168
26062SOL     OW80082   4.421   8.727   1.599
26062SOL    HW180083   4.484   8.797   1.615
26062SOL    HW280084   4.407   8.687   1.685
26063SOL     OW80085  13.913   9.587   5.171
26063SOL    HW180086  13.908   9.548   5.083
26063SOL    HW280087  13.929   9.680   5.155
26064SOL     OW80088   7.446   4.953  14.852
26064SOL    HW180089   7.421   5.000   0.044
26064SOL    HW280090   7.384   4.879  14.848
26065SOL     OW80091   9.786  14.557   8.666
26065SOL    HW180092   9.734  14.601   8.599
26065SOL    HW280093   9.859  14.616   8.683
26066SOL     OW80094  10.458  10.062  11.552
26066SOL    HW180095  10.367  10.044  11.577
26066SOL    HW280096  10.455  10.149  11.511
26067SOL     OW80097  14.425   2.715   0.299
26067SOL    HW180098  14.403   2.738   0.390
26067SOL    HW280099  14.470   2.631   0.306
26068SOL     OW80100   1.063   6.599   8.696
26068SOL    HW180101   1.043   6.656   8.622
26068SOL    HW280102   0.987   6.607   8.753
26069SOL     OW80103   8.381  14.151   1.390
26069SOL    HW180104   8.359  14.075   1.444
26069SOL    HW280105   8.296  14.186   1.362
26070SOL     OW80106  12.085  14.284   4.016
26070SOL    HW180107  12.169  14.324   3.995
26070SOL    HW280108  12.049  14.258   3.932
26071SOL     OW80109   9.587   6.698   8.691
26071SOL    HW180110   9.606   6.632   8.758
26071SOL    HW280111   9.541   6.651   8.622
26072SOL     OW80112   0.702   8.722  13.121
26072SOL    HW180113   0.657   8.652  13.073
26072SOL    HW280114   0.738   8.779  13.054
26073SOL     OW80115  13.623   3.671   4.380
26073SOL    HW180116  13.685   3.629   4.320
26073SOL    HW280117  13.537   3.647   4.347
26074SOL     OW80118  11.222   9.495  11.536
26074SOL    HW180119  11.213   9.582  11.575
26074SOL    HW280120  11.315   9.488  11.516
26075SOL     OW80121   4.232  13.793   6.292
26075SOL    HW180122   4.165  13.737   6.330
26075SOL    HW280123   4.184  13.864   6.251
26076SOL     OW80124   7.779   1.164   2.361
26076SOL    HW180125   7.864   1.120   2.355
26076SOL    HW280126   7.763   1.197   2.273
26077SOL     OW80127   9.053   5.740   8.696
26077SOL    HW180128   9.021   5.684   8.625
26077SOL    HW280129   9.136   5.775   8.663
26078SOL     OW80130  11.534   0.736   4.152
26078SOL    HW180131  11.451   0.688   4.159
26078SOL    HW280132  11.558   0.727   4.060
26079SOL     OW80133  12.422   5.597  12.951
26079SOL    HW180134  12.400   5.503  12.948
26079SOL    HW280135  12.361   5.637  12.889
26080SOL     OW80136  10.943   8.061   9.676
26080SOL    HW180137  11.031   8.096   9.685
26080SOL    HW280138  10.916   8.039   9.766
26081SOL     OW80139   6.116  13.615  10.091
26081SOL    HW180140   6.039  13.611  10.034
26081SOL    HW280141   6.163  13.533  10.075
26082SOL     OW80142   6.884  14.652   8.268
26082SOL    HW180143   6.814  14.599   8.306
26082SOL    HW280144   6.897  14.724   8.330
26083SOL     OW80145   2.115   0.659  10.583
26083SOL    HW180146   2.082   0.736  10.536
26083SOL    HW280147   2.204   0.648  10.551
26084SOL     OW80148   0.865   9.418  13.134
26084SOL    HW180149   0.780   9.445  13.169
26084SOL    HW280150   0.928   9.467  13.186
26085SOL     OW80151  11.120  13.519   9.400
26085SOL    HW180152  11.197  13.558   9.442
26085SOL    HW280153  11.155  13.451   9.343
26086SOL     OW80154   9.272   4.278  11.221
26086SOL    HW180155   9.300   4.220  11.151
26086SOL    HW280156   9.338   4.346  11.224
26087SOL     OW80157  13.813   6.235   3.634
26087SOL    HW180158  13.871   6.311   3.631
26087SOL    HW280159  13.862   6.169   3.684
26088SOL     OW80160  12.671   8.834   3.550
26088SOL    HW180161  12.600   8.855   3.611
26088SOL    HW280162  12.643   8.873   3.468
26089SOL     OW80163  14.219  14.285   0.654
26089SOL    HW180164  14.173  14.208   0.619
26089SOL    HW280165  14.150  14.345   0.680
26090SOL     OW80166   0.185   6.543  14.220
26090SOL    HW180167   0.260   6.602  14.208
26090SOL    HW280168   0.220   6.469  14.269
26091SOL     OW80169   0.857   7.841  14.034
26091SOL    HW180170   0.832   7.900  13.963
26091SOL    HW280171   0.791   7.857  14.102
26092SOL     OW80172  12.215   9.500   6.654
26092SOL    HW180173  12.188   9.417   6.616
26092SOL    HW280174  12.270   9.541   6.587
26093SOL     OW80175   2.839   7.501   6.695
26093SOL    HW180176   2.805   7.521   6.608
26093SOL    HW280177   2.896   7.575   6.716
26094SOL     OW80178  11.260   8.933  11.875
26094SOL    HW180179  11.251   8.848  11.832
26094SOL    HW280180  11.193   8.987  11.835
26095SOL     OW80181   7.505   3.767   6.165
26095SOL    HW180182   7.479   3.722   6.085
26095SOL    HW280183   7.424   3.802   6.201
26096SOL     OW80184  14.420  10.719   3.296
26096SOL    HW180185  14.483  10.683   3.359
26096SOL    HW280186  14.466  10.793   3.256
26097SOL     OW80187   5.653   3.308   8.069
26097SOL    HW180188   5.587   3.371   8.041
26097SOL    HW280189   5.618   3.271   8.151
26098SOL     OW80190  14.425  12.966   3.440
26098SOL    HW180191  14.355  12.905   3.462
26098SOL    HW280192  14.480  12.970   3.518
26099SOL     OW80193   8.183   6.176  14.515
26099SOL    HW180194   8.169   6.146  14.604
26099SOL    HW280195   8.102   6.222  14.492
26100SOL     OW80196   5.836   7.918  11.026
26100SOL    HW180197   5.858   7.861  10.952
26100SOL    HW280198   5.841   8.007  10.990
26101SOL     OW80199  12.308  13.301  12.667
26101SOL    HW180200  12.355  13.218  12.667
26101SOL    HW280201  12.376  13.367  12.655
26102SOL     OW80202   0.196   9.686  10.502
26102SOL    HW180203   0.231   9.655  10.585
26102SOL    HW280204   0.227   9.621  10.438
26103SOL     OW80205   6.126  14.452  14.082
26103SOL    HW180206   6.085  14.366  14.073
26103SOL    HW280207   6.139  14.481  13.992
26104SOL     OW80208   7.569   7.096   4.218
26104SOL    HW180209   7.505   7.052   4.274
26104SOL    HW280210   7.519   7.162   4.171
26105SOL     OW80211   4.983   5.013   0.242
26105SOL    HW180212   4.913   5.075   0.260
26105SOL    HW280213   4.988   4.959   0.321
26106SOL     OW80214   6.062   8.790   6.837
26106SOL    HW180215   6.011   8.868   6.818
26106SOL    HW280216   5.998   8.718   6.834
26107SOL     OW80217  10.326  10.755  12.238
26107SOL    HW180218  10.313  10.842  12.276
26107SOL    HW280219  10.314  10.695  12.311
26108SOL     OW80220   2.499   1.416   2.605
26108SOL    HW180221   2.468   1.357   2.673
26108SOL    HW280222   2.427   1.477   2.591
26109SOL     OW80223   5.542   8.357   3.022
26109SOL    HW180224   5.584   8.352   3.108
26109SOL    HW280225   5.460   8.403   3.038
26110SOL     OW80226   7.244   4.852   7.921
26110SOL    HW180227   7.289   4.929   7.886
26110SOL    HW280228   7.313   4.787   7.934
26111SOL     OW80229   7.245   2.635  13.049
26111SOL    HW180230   7.308   2.704  13.070
26111SOL    HW280231   7.218   2.600  13.134
26112SOL     OW80232  10.233   1.378   2.688
26112SOL    HW180233  10.243   1.387   2.593
26112SOL    HW280234  10.157   1.321   2.698
26113SOL     OW80235   9.779   7.669   5.074
26113SOL    HW180236   9.691   7.669   5.038
26113SOL    HW280237   9.827   7.733   5.022
26114SOL     OW80238   3.558   5.929  13.037
26114SOL    HW180239   3.504   5.873  12.980
26114SOL    HW280240   3.511   5.929  13.120
26115SOL     OW80241  14.696   5.660   5.466
26115SOL    HW180242  14.667   5.646   5.556
26115SOL    HW280243  14.751   5.739   5.471
26116SOL     OW80244  13.502  10.268   5.088
26116SOL    HW180245  13.475  10.189   5.136
26116SOL    HW280246  13.597  10.272   5.099
26117SOL     OW80247   8.923   4.637   3.323
26117SOL    HW180248   8.846   4.675   3.281
26117SOL    HW280249   8.996   4.662   3.267
26118SOL     OW80250   3.018   7.172   0.920
26118SOL    HW180251   2.987   7.082   0.930
26118SOL    HW280252   3.100   7.174   0.970
26119SOL     OW80253   0.010   2.605   9.537
26119SOL    HW180254  14.835   2.588   9.608
26119SOL    HW280255  14.879   2.695   9.510
26120SOL     OW80256   4.409   1.368   4.466
26120SOL    HW180257   4.413   1.373   4.562
26120SOL    HW280258   4.491   1.407   4.437
26121SOL     OW80259  10.904   1.194   5.184
26121SOL    HW180260  10.920   1.237   5.100
26121SOL    HW280261  10.924   1.261   5.250
26122SOL     OW80262  13.713  13.615   0.110
26122SOL    HW180263  13.708  13.571   0.026
26122SOL    HW280264  13.671  13.700   0.096
26123SOL     OW80265   6.839   5.467  10.976
26123SOL    HW180266   6.774   5.508  10.918
26123SOL    HW280267   6.885   5.541  11.015
26124SOL     OW80268   9.865  12.849   0.983
26124SOL    HW180269   9.814  12.782   0.938
26124SOL    HW280270   9.846  12.835   1.076
26125SOL     OW80271   0.105  11.697  10.839
26125SOL    HW180272   0.081  11.692  10.747
26125SOL    HW280273   0.048  11.634  10.883
26126SOL     OW80274   5.753   0.806  14.553
26126SOL    HW180275   5.725   0.849  14.473
26126SOL    HW280276   5.672   0.786  14.600
26127SOL     OW80277   9.290   4.669   8.382
26127SOL    HW180278   9.281   4.721   8.303
26127SOL    HW280279   9.338   4.591   8.355
26128SOL     OW80280  14.461  10.710  12.906
26128SOL    HW180281  14.469  10.793  12.952
26128SOL    HW280282  14.479  10.644  12.972
26129SOL     OW80283  10.183   7.828  10.789
26129SOL    HW180284  10.226   7.750  10.754
26129SOL    HW280285  10.204   7.897  10.726
26130SOL     OW80286   8.952   8.079   5.668
26130SOL    HW180287   8.926   8.135   5.741
26130SOL    HW280288   8.872   8.070   5.616
26131SOL     OW80289   8.555  12.411   9.935
26131SOL    HW180290   8.628  12.438   9.991
26131SOL    HW280291   8.532  12.489   9.886
26132SOL     OW80292  14.794   0.992   3.688
26132SOL    HW180293  14.702   1.017   3.695
26132SOL    HW280294  14.794   0.920   3.625
26133SOL     OW80295  13.061   0.946   4.730
26133SOL    HW180296  12.965   0.938   4.738
26133SOL    HW280297  13.091   0.856   4.715
26134SOL     OW80298  13.290   1.401   2.784
26134SOL    HW180299  13.272   1.334   2.717
26134SOL    HW280300  13.238   1.476   2.757
26135SOL     OW80301  11.911  10.107  12.250
26135SOL    HW180302  12.002  10.117  12.279
26135SOL    HW280303  11.892  10.189  12.203
26136SOL     OW80304   7.705   6.226   8.388
26136SOL    HW180305   7.657   6.293   8.436
26136SOL    HW280306   7.638   6.183   8.334
26137SOL     OW80307  14.231   1.184   0.332
26137SOL    HW180308  14.220   1.158   0.424
26137SOL    HW280309  14.317   1.151   0.308
26138SOL     OW80310   2.597   8.018  14.356
26138SOL    HW180311   2.629   8.014  14.266
26138SOL    HW280312   2.546   7.938  14.368
26139SOL     OW80313   0.393   3.846   0.826
26139SOL    HW180314   0.343   3.859   0.745
26139SOL    HW280315   0.352   3.770   0.868
26140SOL     OW80316   7.519  13.160  13.350
26140SOL    HW180317   7.453  13.224  13.321
26140SOL    HW280318   7.603  13.199  13.327
26141SOL     OW80319   4.960  12.967   5.650
26141SOL    HW180320   5.033  12.905   5.642
26141SOL    HW280321   4.892  12.931   5.592
26142SOL     OW80322   3.332   1.859   1.696
26142SOL    HW180323   3.346   1.953   1.687
26142SOL    HW280324   3.277   1.836   1.621
26143SOL     OW80325   4.763   3.107   5.488
26143SOL    HW180326   4.810   3.190   5.479
26143SOL    HW280327   4.790   3.073   5.573
26144SOL     OW80328  14.627   4.633  13.005
26144SOL    HW180329  14.674   4.687  13.069
26144SOL    HW280330  14.576   4.572  13.058
26145SOL     OW80331   1.350  11.854   1.662
26145SOL    HW180332   1.280  11.816   1.714
26145SOL    HW280333   1.354  11.799   1.584
26146SOL     OW80334   8.797   0.180  11.307
26146SOL    HW180335   8.738   0.105  11.316
26146SOL    HW280336   8.847   0.181  11.389
26147SOL     OW80337   5.208  13.726   3.529
26147SOL    HW180338   5.282  13.744   3.588
26147SOL    HW280339   5.242  13.744   3.442
26148SOL     OW80340   3.567  14.512   1.276
26148SOL    HW180341   3.630  14.456   1.230
26148SOL    HW280342   3.506  14.540   1.208
26149SOL     OW80343   4.999   9.844   8.513
26149SOL    HW180344   4.962   9.928   8.538
26149SOL    HW280345   4.923   9.786   8.503
26150SOL     OW80346  10.208   1.085   1.402
26150SOL    HW180347  10.278   1.075   1.337
26150SOL    HW280348  10.127   1.071   1.353
26151SOL     OW80349   7.559  14.789  13.197
26151SOL    HW180350   7.613  14.783  13.275
26151SOL    HW280351   7.469  14.783  13.229
26152SOL     OW80352  14.281  13.518   0.165
26152SOL    HW180353  14.247  13.442   0.213
26152SOL    HW280354  14.208  13.548   0.111
26153SOL     OW80355  10.269  10.950   0.097
26153SOL    HW180356  10.322  10.883   0.053
26153SOL    HW280357  10.246  10.911   0.181
26154SOL     OW80358   3.051   3.879   5.694
26154SOL    HW180359   3.097   3.960   5.714
26154SOL    HW280360   2.982   3.905   5.633
26155SOL     OW80361   6.894  13.838   0.503
26155SOL    HW180362   6.815  13.799   0.542
26155SOL    HW280363   6.951  13.857   0.577
26156SOL     OW80364  14.571   2.478   5.431
26156SOL    HW180365  14.539   2.485   5.521
26156SOL    HW280366  14.623   2.398   5.431
26157SOL     OW80367  11.090  10.318   5.124
26157SOL    HW180368  11.044  10.287   5.202
26157SOL    HW280369  11.029  10.381   5.084
26158SOL     OW80370   5.485   0.924   1.003
26158SOL    HW180371   5.506   0.980   0.929
26158SOL    HW280372   5.392   0.941   1.020
26159SOL     OW80373  11.926   0.147  10.084
26159SOL    HW180374  11.876   0.128  10.004
26159SOL    HW280375  11.977   0.067  10.099
26160SOL     OW80376  12.944  14.413  14.008
26160SOL    HW180377  12.870  14.424  14.068
26160SOL    HW280378  12.903  14.407  13.921
26161SOL     OW80379  11.703   7.992  10.305
26161SOL    HW180380  11.732   8.075  10.343
26161SOL    HW280381  11.754   7.925  10.350
26162SOL     OW80382   1.625   0.187   8.256
26162SOL    HW180383   1.544   0.160   8.299
26162SOL    HW280384   1.597   0.221   8.171
26163SOL     OW80385   2.700   6.964   4.212
26163SOL    HW180386   2.619   6.915   4.197
26163SOL    HW280387   2.680   7.053   4.181
26164SOL     OW80388   4.408   5.825   7.873
26164SOL    HW180389   4.494   5.848   7.838
26164SOL    HW280390   4.350   5.827   7.797
26165SOL     OW80391  10.803   6.951   1.874
26165SOL    HW180392  10.857   6.916   1.944
26165SOL    HW280393  10.717   6.910   1.886
26166SOL     OW80394   7.440  11.904   3.541
26166SOL    HW180395   7.499  11.892   3.467
26166SOL    HW280396   7.371  11.961   3.508
26167SOL     OW80397   7.003  14.700   8.035
26167SOL    HW180398   6.949  14.693   8.113
26167SOL    HW280399   7.070  14.632   8.045
26168SOL     OW80400   8.845   3.880   0.820
26168SOL    HW180401   8.887   3.916   0.742
26168SOL    HW280402   8.755   3.861   0.793
26169SOL     OW80403  10.573  10.886  12.077
26169SOL    HW180404  10.519  10.894  12.155
26169SOL    HW280405  10.570  10.793  12.054
26170SOL     OW80406   7.092   2.469   4.382
26170SOL    HW180407   7.088   2.547   4.327
26170SOL    HW280408   7.003   2.435   4.382
26171SOL     OW80409   0.680   2.383   9.133
26171SOL    HW180410   0.607   2.392   9.072
26171SOL    HW280411   0.648   2.323   9.200
26172SOL     OW80412   7.601   0.750  14.594
26172SOL    HW180413   7.610   0.767  14.688
26172SOL    HW280414   7.566   0.832  14.558
26173SOL     OW80415   8.197   9.744   2.402
26173SOL    HW180416   8.219   9.794   2.324
26173SOL    HW280417   8.121   9.789   2.438
26174SOL     OW80418   4.884   5.296  11.578
26174SOL    HW180419   4.911   5.238  11.649
26174SOL    HW280420   4.912   5.383  11.607
26175SOL     OW80421  12.598  12.748  12.762
26175SOL    HW180422  12.666  12.694  12.803
26175SOL    HW280423  12.589  12.712  12.673
26176SOL     OW80424   8.805   3.750   7.615
26176SOL    HW180425   8.780   3.758   7.523
26176SOL    HW280426   8.844   3.834   7.637
26177SOL     OW80427   7.730  12.937   3.319
26177SOL    HW180428   7.811  12.886   3.323
26177SOL    HW280429   7.673  12.897   3.383
26178SOL     OW80430   6.336   6.914   3.922
26178SOL    HW180431   6.318   6.951   3.836
26178SOL    HW280432   6.277   6.960   3.981
26179SOL     OW80433   5.919   1.687  14.511
26179SOL    HW180434   5.830   1.668  14.481
26179SOL    HW280435   5.915   1.674  14.606
26180SOL     OW80436  12.889  10.570   8.506
26180SOL    HW180437  12.912  10.477   8.512
26180SOL    HW280438  12.794  10.572   8.503
26181SOL     OW80439   8.201  13.116  13.044
26181SOL    HW180440   8.161  13.082  12.964
26181SOL    HW280441   8.128  13.129  13.104
26182SOL     OW80442   4.658  12.185   4.008
26182SOL    HW180443   4.703  12.205   4.090
26182SOL    HW280444   4.679  12.093   3.991
26183SOL     OW80445   6.175  10.396  11.560
26183SOL    HW180446   6.228  10.475  11.550
26183SOL    HW280447   6.141  10.401  11.650
26184SOL     OW80448   2.774   3.966  14.734
26184SOL    HW180449   2.683   3.938  14.719
26184SOL    HW280450   2.823   3.924  14.664
26185SOL     OW80451  12.647   6.571   7.464
26185SOL    HW180452  12.601   6.487   7.466
26185SOL    HW280453  12.737   6.547   7.442
26186SOL     OW80454  10.812  11.760   4.259
26186SOL    HW180455  10.782  11.795   4.176
26186SOL    HW280456  10.810  11.834   4.319
26187SOL     OW80457   1.293   8.496   6.147
26187SOL    HW180458   1.314   8.563   6.213
26187SOL    HW280459   1.328   8.532   6.066
26188SOL     OW80460   3.712  14.763  13.170
26188SOL    HW180461   3.765  14.843  13.170
26188SOL    HW280462   3.749  14.710  13.241
26189SOL     OW80463   9.900  11.139  12.575
26189SOL    HW180464   9.928  11.221  12.536
26189SOL    HW280465   9.937  11.140  12.663
26190SOL     OW80466  14.828   7.639  11.000
26190SOL    HW180467  14.755   7.661  11.057
26190SOL    HW280468   0.015   7.626  11.059
26191SOL     OW80469   0.682   3.242  14.697
26191SOL    HW180470   0.636   3.325  14.701
26191SOL    HW280471   0.721   3.240  14.609
26192SOL     OW80472   4.829   8.798   3.053
26192SOL    HW180473   4.883   8.719   3.050
26192SOL    HW280474   4.879   8.859   3.106
26193SOL     OW80475   2.362  12.761   6.821
26193SOL    HW180476   2.441  12.795   6.864
26193SOL    HW280477   2.309  12.725   6.892
26194SOL     OW80478  14.068  10.440   3.801
26194SOL    HW180479  14.074  10.397   3.716
26194SOL    HW280480  13.978  10.426   3.829
26195SOL     OW80481   8.133  10.656  12.082
26195SOL    HW180482   8.201  10.721  12.098
26195SOL    HW280483   8.180  10.582  12.044
26196SOL     OW80484   4.700  13.564   4.796
26196SOL    HW180485   4.739  13.498   4.853
26196SOL    HW280486   4.665  13.630   4.856
26197SOL     OW80487  13.719  11.722   5.132
26197SOL    HW180488  13.656  11.791   5.108
26197SOL    HW280489  13.786  11.725   5.064
26198SOL     OW80490  14.215   7.233  11.649
26198SOL    HW180491  14.272   7.156  11.660
26198SOL    HW280492  14.187   7.255  11.738
26199SOL     OW80493  11.617   6.794  12.311
26199SOL    HW180494  11.712   6.798  12.314
26199SOL    HW280495  11.588   6.835  12.393
26200SOL     OW80496   0.075   1.550   2.865
26200SOL    HW180497   0.129   1.519   2.938
26200SOL    HW280498  14.875   1.518   2.885
26201SOL     OW80499  10.423   8.207   8.619
26201SOL    HW180500  10.415   8.135   8.556
26201SOL    HW280501  10.421   8.286   8.565
26202SOL     OW80502   0.163   9.371   3.208
26202SOL    HW180503   0.106   9.294   3.196
26202SOL    HW280504   0.107   9.445   3.187
26203SOL     OW80505   3.329   4.661   5.238
26203SOL    HW180506   3.282   4.712   5.172
26203SOL    HW280507   3.336   4.573   5.201
26204SOL     OW80508   0.498   2.765   2.025
26204SOL    HW180509   0.589   2.792   2.018
26204SOL    HW280510   0.501   2.674   2.055
26205SOL     OW80511   7.598   9.361   1.216
26205SOL    HW180512   7.670   9.424   1.209
26205SOL    HW280513   7.634   9.279   1.185
26206SOL     OW80514  10.272   9.593  10.399
26206SOL    HW180515  10.180   9.570  10.414
26206SOL    HW280516  10.320   9.511  10.415
26207SOL     OW80517  14.497  10.814   6.897
26207SOL    HW180518  14.525  10.731   6.860
26207SOL    HW280519  14.467  10.865   6.821
26208SOL     OW80520   9.967   8.855   1.166
26208SOL    HW180521   9.917   8.852   1.247
26208SOL    HW280522   9.968   8.948   1.141
26209SOL     OW80523  10.333   6.741   9.659
26209SOL    HW180524  10.325   6.646   9.650
26209SOL    HW280525  10.245   6.771   9.682
26210SOL     OW80526   4.972   2.096  11.044
26210SOL    HW180527   5.061   2.097  11.010
26210SOL    HW280528   4.919   2.131  10.972
26211SOL     OW80529   0.350  10.735  10.575
26211SOL    HW180530   0.362  10.799  10.645
26211SOL    HW280531   0.366  10.784  10.494
26212SOL     OW80532   4.212   1.877   5.995
26212SOL    HW180533   4.258   1.958   6.018
26212SOL    HW280534   4.205   1.880   5.900
26213SOL     OW80535   6.876   7.333   3.621
26213SOL    HW180536   6.839   7.311   3.706
26213SOL    HW280537   6.862   7.255   3.568
26214SOL     OW80538   8.043   5.889   0.364
26214SOL    HW180539   7.967   5.894   0.423
26214SOL    HW280540   8.015   5.938   0.287
26215SOL     OW80541   1.846   5.150  12.258
26215SOL    HW180542   1.916   5.178  12.316
26215SOL    HW280543   1.802   5.080  12.307
26216SOL     OW80544  11.977   7.183  14.356
26216SOL    HW180545  12.022   7.099  14.366
26216SOL    HW280546  11.905   7.178  14.419
26217SOL     OW80547   2.425   3.302   4.057
26217SOL    HW180548   2.447   3.336   4.144
26217SOL    HW280549   2.507   3.307   4.008
26218SOL     OW80550   2.662   8.207   0.039
26218SOL    HW180551   2.648   8.294   0.078
26218SOL    HW280552   2.616   8.210  14.843
26219SOL     OW80553   0.375   9.184   1.496
26219SOL    HW180554   0.460   9.192   1.539
26219SOL    HW280555   0.396   9.170   1.404
26220SOL     OW80556  13.097   9.938   6.304
26220SOL    HW180557  13.131   9.850   6.286
26220SOL    HW280558  13.022   9.923   6.362
26221SOL     OW80559   6.563  11.095  12.702
26221SOL    HW180560   6.492  11.036  12.677
26221SOL    HW280561   6.519  11.173  12.735
26222SOL     OW80562   5.073  10.996   7.101
26222SOL    HW180563   5.043  10.907   7.118
26222SOL    HW280564   5.005  11.052   7.139
26223SOL     OW80565  14.655   0.759   8.020
26223SOL    HW180566  14.690   0.674   7.995
26223SOL    HW280567  14.709   0.822   7.971
26224SOL     OW80568   0.071   9.821   8.739
26224SOL    HW180569  14.887   9.875   8.706
26224SOL    HW280570   0.028   9.756   8.795
26225SOL     OW80571  12.040  12.116   8.183
26225SOL    HW180572  11.964  12.158   8.224
26225SOL    HW280573  12.053  12.162   8.101
26226SOL     OW80574   9.038   2.868   8.361
26226SOL    HW180575   9.042   2.822   8.278
26226SOL    HW280576   8.997   2.952   8.340
26227SOL     OW80577  11.909  11.200   6.777
26227SOL    HW180578  11.875  11.285   6.804
26227SOL    HW280579  11.857  11.177   6.699
26228SOL     OW80580   2.054  10.577   2.080
26228SOL    HW180581   2.096  10.540   2.157
26228SOL    HW280582   2.025  10.501   2.030
26229SOL     OW80583   0.297  14.208  13.853
26229SOL    HW180584   0.225  14.146  13.856
26229SOL    HW280585   0.268  14.276  13.792
26230SOL     OW80586  10.467  11.162   6.378
26230SOL    HW180587  10.382  11.125   6.352
26230SOL    HW280588  10.445  11.231   6.441
26231SOL     OW80589   9.436  12.413  10.076
26231SOL    HW180590   9.503  12.357  10.115
26231SOL    HW280591   9.362  12.355  10.061
26232SOL     OW80592  10.159  10.115  11.004
26232SOL    HW180593  10.123  10.076  10.924
26232SOL    HW280594  10.087  10.167  11.039
26233SOL     OW80595   7.175  10.637   2.772
26233SOL    HW180596   7.222  10.702   2.719
26233SOL    HW280597   7.094  10.681   2.797
26234SOL     OW80598   6.772   7.741  11.829
26234SOL    HW180599   6.738   7.753  11.740
26234SOL    HW280600   6.695   7.726  11.883
26235SOL     OW80601   1.824   4.928  11.823
26235SOL    HW180602   1.819   4.834  11.809
26235SOL    HW280603   1.882   4.939  11.898
26236SOL     OW80604   8.268  13.685   0.040
26236SOL    HW180605   8.256  13.651  14.838
26236SOL    HW280606   8.327  13.759   0.029
26237SOL     OW80607  11.601  12.240   2.491
26237SOL    HW180608  11.597  12.147   2.466
26237SOL    HW280609  11.510  12.270   2.481
26238SOL     OW80610   3.779  10.000  13.145
26238SOL    HW180611   3.751   9.922  13.194
26238SOL    HW280612   3.729   9.996  13.064
26239SOL     OW80613   2.014   5.238  12.454
26239SOL    HW180614   2.072   5.260  12.526
26239SOL    HW280615   2.041   5.295  12.382
26240SOL     OW80616  14.351  12.977   8.215
26240SOL    HW180617  14.416  13.042   8.239
26240SOL    HW280618  14.368  12.959   8.122
26241SOL     OW80619   3.126   8.517  12.362
26241SOL    HW180620   3.221   8.528  12.359
26241SOL    HW280621   3.113   8.436  12.410
26242SOL     OW80622   9.517   5.694   7.867
26242SOL    HW180623   9.568   5.629   7.915
26242SOL    HW280624   9.503   5.654   7.781
26243SOL     OW80625   8.762  13.190   0.870
26243SOL    HW180626   8.770  13.272   0.820
26243SOL    HW280627   8.695  13.209   0.936
26244SOL     OW80628   9.905  10.207   4.420
26244SOL    HW180629   9.932  10.177   4.333
26244SOL    HW280630   9.828  10.154   4.441
26245SOL     OW80631   1.758  14.882   1.612
26245SOL    HW180632   1.822  14.818   1.579
26245SOL    HW280633   1.774   0.073   1.560
26246SOL     OW80634   0.202   7.952   0.122
26246SOL    HW180635   0.113   7.986   0.132
26246SOL    HW280636   0.194   7.858   0.135
26247SOL     OW80637  13.229  10.857   7.759
26247SOL    HW180638  13.254  10.949   7.752
26247SOL    HW280639  13.308  10.808   7.738
26248SOL     OW80640   3.296  11.405   2.165
26248SOL    HW180641   3.316  11.482   2.112
26248SOL    HW280642   3.379  11.383   2.208
26249SOL     OW80643  12.069   7.676  14.651
26249SOL    HW180644  12.036   7.587  14.663
26249SOL    HW280645  12.039   7.724  14.728
26250SOL     OW80646   5.579   3.305   0.935
26250SOL    HW180647   5.586   3.385   0.987
26250SOL    HW280648   5.498   3.316   0.885
26251SOL     OW80649  13.051   6.198   6.700
26251SOL    HW180650  13.075   6.288   6.722
26251SOL    HW280651  13.123   6.145   6.735
26252SOL     OW80652   0.617   8.097   5.953
26252SOL    HW180653   0.603   8.116   6.046
26252SOL    HW280654   0.650   8.007   5.952
26253SOL     OW80655   4.629   3.679  11.169
26253SOL    HW180656   4.590   3.701  11.254
26253SOL    HW280657   4.554   3.665  11.112
26254SOL     OW80658  12.048  13.901  12.942
26254SOL    HW180659  12.112  13.829  12.937
26254SOL    HW280660  11.988  13.884  12.869
26255SOL     OW80661   2.715   6.201  13.514
26255SOL    HW180662   2.667   6.263  13.568
26255SOL    HW280663   2.720   6.243  13.428
26256SOL     OW80664   0.763   5.086  13.916
26256SOL    HW180665   0.753   5.006  13.864
26256SOL    HW280666   0.692   5.143  13.885
26257SOL     OW80667   6.643   5.926   5.200
26257SOL    HW180668   6.623   6.017   5.178
26257SOL    HW280669   6.738   5.920   5.192
26258SOL     OW80670  13.168   4.637   8.545
26258SOL    HW180671  13.098   4.652   8.609
26258SOL    HW280672  13.245   4.676   8.585
26259SOL     OW80673   7.413   7.765   1.364
26259SOL    HW180674   7.326   7.726   1.375
26259SOL    HW280675   7.440   7.739   1.276
26260SOL     OW80676  10.501   6.135   9.653
26260SOL    HW180677  10.544   6.052   9.631
26260SOL    HW280678  10.524   6.149   9.745
26261SOL     OW80679   1.664   3.374   2.966
26261SOL    HW180680   1.663   3.300   3.027
26261SOL    HW280681   1.652   3.335   2.880
26262SOL     OW80682   6.223   5.053   3.041
26262SOL    HW180683   6.176   5.001   2.976
26262SOL    HW280684   6.161   5.063   3.114
26263SOL     OW80685  10.645   0.679  13.487
26263SOL    HW180686  10.587   0.605  13.504
26263SOL    HW280687  10.614   0.715  13.404
26264SOL     OW80688   6.564   9.286  14.624
26264SOL    HW180689   6.573   9.380  14.639
26264SOL    HW280690   6.471   9.269  14.641
26265SOL     OW80691   2.432   6.925   1.090
26265SOL    HW180692   2.414   7.017   1.070
26265SOL    HW280693   2.469   6.926   1.178
26266SOL     OW80694   8.500  11.642   6.913
26266SOL    HW180695   8.543  11.667   6.994
26266SOL    HW280696   8.534  11.555   6.894
26267SOL     OW80697   7.319   7.350  11.463
26267SOL    HW180698   7.405   7.388  11.478
26267SOL    HW280699   7.288   7.391  11.382
26268SOL     OW80700   8.619   3.829  14.265
26268SOL    HW180701   8.608   3.735  14.250
26268SOL    HW280702   8.712   3.845  14.251
26269SOL     OW80703   3.095  14.767   9.110
26269SOL    HW180704   3.063  14.725   9.190
26269SOL    HW280705   3.062  14.856   9.116
26270SOL     OW80706   7.279   0.185  14.776
26270SOL    HW180707   7.236   0.242  14.712
26270SOL    HW280708   7.241   0.210  14.860
26271SOL     OW80709   3.068   2.969  11.072
26271SOL    HW180710   3.146   2.945  11.023
26271SOL    HW280711   3.060   2.901  11.139
26272SOL     OW80712   1.718  10.025  14.818
26272SOL    HW180713   1.654  10.007  14.749
26272SOL    HW280714   1.676  10.091  14.873
26273SOL     OW80715   2.416  14.598  14.216
26273SOL    HW180716   2.441  14.629  14.129
26273SOL    HW280717   2.321  14.609  14.219
26274SOL     OW80718   4.865  12.631  13.852
26274SOL    HW180719   4.894  12.707  13.903
26274SOL    HW280720   4.939  12.612  13.794
26275SOL     OW80721  10.741  14.534  14.645
26275SOL    HW180722  10.739  14.569  14.556
26275SOL    HW280723  10.751  14.439  14.633
26276SOL     OW80724   3.742   1.138  13.220
26276SOL    HW180725   3.816   1.188  13.187
26276SOL    HW280726   3.757   1.130  13.314
26277SOL     OW80727  11.381   4.220   7.155
26277SOL    HW180728  11.348   4.189   7.239
26277SOL    HW280729  11.338   4.305   7.142
26278SOL     OW80730   8.143   8.515  11.797
26278SOL    HW180731   8.106   8.516  11.709
26278SOL    HW280732   8.103   8.440  11.840
26279SOL     OW80733   4.202   3.958   3.039
26279SOL    HW180734   4.265   4.012   2.992
26279SOL    HW280735   4.117   4.000   3.023
26280SOL     OW80736   5.194  11.050  14.781
26280SOL    HW180737   5.169  10.963  14.749
26280SOL    HW280738   5.167  11.110  14.711
26281SOL     OW80739  11.482  11.145   6.112
26281SOL    HW180740  11.414  11.123   6.049
26281SOL    HW280741  11.468  11.239   6.130
26282SOL     OW80742   7.863   2.393   4.267
26282SOL    HW180743   7.778   2.348   4.264
26282SOL    HW280744   7.875   2.426   4.177
26283SOL     OW80745  10.441   2.118   6.179
26283SOL    HW180746  10.500   2.079   6.244
26283SOL    HW280747  10.447   2.212   6.195
26284SOL     OW80748   0.296   0.400   4.888
26284SOL    HW180749   0.221   0.374   4.943
26284SOL    HW280750   0.364   0.424   4.950
26285SOL     OW80751   0.800   1.056   1.252
26285SOL    HW180752   0.768   0.969   1.274
26285SOL    HW280753   0.728   1.115   1.275
26286SOL     OW80754   8.054   3.282  12.091
26286SOL    HW180755   8.143   3.296  12.059
26286SOL    HW280756   8.064   3.259  12.184
26287SOL     OW80757  13.545   0.934   1.805
26287SOL    HW180758  13.557   0.933   1.900
26287SOL    HW280759  13.510   0.847   1.784
26288SOL     OW80760  12.862   4.288   0.176
26288SOL    HW180761  12.879   4.198   0.207
26288SOL    HW280762  12.949   4.328   0.170
26289SOL     OW80763   7.448  13.114  11.788
26289SOL    HW180764   7.496  13.197  11.790
26289SOL    HW280765   7.418  13.106  11.698
26290SOL     OW80766  11.435  12.757   3.282
26290SOL    HW180767  11.348  12.725   3.260
26290SOL    HW280768  11.494  12.708   3.224
26291SOL     OW80769  13.002  13.539  10.769
26291SOL    HW180770  12.936  13.606  10.753
26291SOL    HW280771  13.014  13.540  10.864
26292SOL     OW80772  13.740  12.353   0.469
26292SOL    HW180773  13.720  12.311   0.553
26292SOL    HW280774  13.699  12.296   0.404
26293SOL     OW80775  13.118   7.486   9.370
26293SOL    HW180776  13.191   7.425   9.382
26293SOL    HW280777  13.145   7.541   9.297
26294SOL     OW80778  12.769   0.682   4.088
26294SOL    HW180779  12.754   0.588   4.072
26294SOL    HW280780  12.840   0.705   4.029
26295SOL     OW80781  12.545   4.357   2.336
26295SOL    HW180782  12.610   4.297   2.371
26295SOL    HW280783  12.462   4.309   2.343
26296SOL     OW80784   5.397  12.034   8.233
26296SOL    HW180785   5.362  12.002   8.150
26296SOL    HW280786   5.458  11.966   8.261
26297SOL     OW80787   4.007   7.185   2.205
26297SOL    HW180788   4.103   7.192   2.209
26297SOL    HW280789   3.984   7.228   2.122
26298SOL     OW80790  13.004  11.774   0.691
26298SOL    HW180791  12.962  11.821   0.619
26298SOL    HW280792  13.009  11.683   0.661
26299SOL     OW80793  11.236  13.782   6.501
26299SOL    HW180794  11.167  13.751   6.559
26299SOL    HW280795  11.310  13.724   6.517
26300SOL     OW80796   5.926   6.118   0.670
26300SOL    HW180797   5.893   6.138   0.583
26300SOL    HW280798   6.020   6.133   0.664
26301SOL     OW80799   7.753   5.236   9.459
26301SOL    HW180800   7.800   5.232   9.542
26301SOL    HW280801   7.716   5.324   9.456
26302SOL     OW80802   6.717   0.141  12.884
26302SOL    HW180803   6.680   0.217  12.839
26302SOL    HW280804   6.728   0.170  12.975
26303SOL     OW80805   2.183  12.747  12.145
26303SOL    HW180806   2.264  12.704  12.117
26303SOL    HW280807   2.202  12.775  12.235
26304SOL     OW80808  11.770   9.465  13.001
26304SOL    HW180809  11.714   9.516  12.943
26304SOL    HW280810  11.712   9.439  13.073
26305SOL     OW80811   2.115  11.279   2.470
26305SOL    HW180812   2.025  11.257   2.497
26305SOL    HW280813   2.153  11.323   2.546
26306SOL     OW80814   7.770   5.168   4.292
26306SOL    HW180815   7.727   5.136   4.371
26306SOL    HW280816   7.757   5.263   4.296
26307SOL     OW80817  12.770  11.406   4.697
26307SOL    HW180818  12.701  11.368   4.643
26307SOL    HW280819  12.845  11.347   4.685
26308SOL     OW80820   8.772   8.231   9.592
26308SOL    HW180821   8.799   8.139   9.601
26308SOL    HW280822   8.709   8.245   9.662
26309SOL     OW80823   7.197   1.733   1.136
26309SOL    HW180824   7.220   1.674   1.208
26309SOL    HW280825   7.247   1.700   1.061
26310SOL     OW80826   9.226   6.024   9.322
26310SOL    HW180827   9.225   6.016   9.227
26310SOL    HW280828   9.223   6.118   9.338
26311SOL     OW80829  14.022   2.068  10.783
26311SOL    HW180830  14.050   2.078  10.692
26311SOL    HW280831  14.101   2.083  10.835
26312SOL     OW80832   8.907  11.698   6.805
26312SOL    HW180833   8.843  11.678   6.737
26312SOL    HW280834   8.858  11.748   6.870
26313SOL     OW80835   5.011   0.420   2.222
26313SOL    HW180836   5.101   0.452   2.211
26313SOL    HW280837   4.984   0.453   2.308
26314SOL     OW80838   7.587   9.881   3.909
26314SOL    HW180839   7.627   9.890   3.996
26314SOL    HW280840   7.523   9.953   3.905
26315SOL     OW80841   0.324  10.152   1.529
26315SOL    HW180842   0.257  10.199   1.480
26315SOL    HW280843   0.406  10.195   1.505
26316SOL     OW80844   6.706   6.834   0.087
26316SOL    HW180845   6.771   6.817   0.156
26316SOL    HW280846   6.654   6.754   0.083
26317SOL     OW80847   8.618   7.955   1.900
26317SOL    HW180848   8.691   7.982   1.956
26317SOL    HW280849   8.561   8.032   1.895
26318SOL     OW80850   3.126  13.625   4.691
26318SOL    HW180851   3.186  13.694   4.663
26318SOL    HW280852   3.093  13.654   4.776
26319SOL     OW80853   9.644   3.282   4.932
26319SOL    HW180854   9.709   3.215   4.911
26319SOL    HW280855   9.564   3.233   4.953
26320SOL     OW80856  10.384   9.300  10.506
26320SOL    HW180857  10.299   9.272  10.472
26320SOL    HW280858  10.376   9.292  10.601
26321SOL     OW80859   5.240  11.719  13.751
26321SOL    HW180860   5.178  11.662  13.706
26321SOL    HW280861   5.187  11.760  13.820
26322SOL     OW80862   7.287   6.370   3.320
26322SOL    HW180863   7.332   6.292   3.287
26322SOL    HW280864   7.231   6.397   3.247
26323SOL     OW80865   0.535   4.167   9.205
26323SOL    HW180866   0.608   4.207   9.253
26323SOL    HW280867   0.472   4.239   9.194
26324SOL     OW80868   9.074   2.131   6.884
26324SOL    HW180869   9.151   2.117   6.830
26324SOL    HW280870   9.072   2.055   6.943
26325SOL     OW80871   2.072  10.389   2.616
26325SOL    HW180872   2.151  10.437   2.590
26325SOL    HW280873   1.999  10.445   2.588
26326SOL     OW80874  13.500   9.138  11.177
26326SOL    HW180875  13.594   9.128  11.163
26326SOL    HW280876  13.492   9.173  11.266
26327SOL     OW80877  14.520  11.944   0.810
26327SOL    HW180878  14.536  12.014   0.874
26327SOL    HW280879  14.458  11.983   0.748
26328SOL     OW80880   8.906  12.071  11.930
26328SOL    HW180881   8.836  12.083  11.866
26328SOL    HW280882   8.874  12.114  12.010
26329SOL     OW80883   9.662   8.906   2.720
26329SOL    HW180884   9.621   8.823   2.695
26329SOL    HW280885   9.753   8.897   2.691
26330SOL     OW80886   6.815   2.547   9.623
26330SOL    HW180887   6.783   2.637   9.620
26330SOL    HW280888   6.773   2.505   9.548
26331SOL     OW80889   9.988   7.765   9.944
26331SOL    HW180890   9.926   7.837   9.953
26331SOL    HW280891   9.936   7.686   9.961
26332SOL     OW80892   0.877  10.855  12.297
26332SOL    HW180893   0.909  10.944  12.305
26332SOL    HW280894   0.788  10.864  12.264
26333SOL     OW80895   1.629   5.268   3.245
26333SOL    HW180896   1.563   5.301   3.182
26333SOL    HW280897   1.691   5.219   3.191
26334SOL     OW80898  10.226   6.300   8.492
26334SOL    HW180899  10.200   6.337   8.577
26334SOL    HW280900  10.303   6.247   8.512
26335SOL     OW80901   4.458   1.347   0.483
26335SOL    HW180902   4.534   1.385   0.439
26335SOL    HW280903   4.425   1.281   0.422
26336SOL     OW80904   6.143  11.996   2.961
26336SOL    HW180905   6.238  12.007   2.962
26336SOL    HW280906   6.108  12.085   2.959
26337SOL     OW80907  10.338   1.117   0.035
26337SOL    HW180908  10.258   1.116  14.870
26337SOL    HW280909  10.384   1.037   0.010
26338SOL     OW80910   5.695  11.873  12.592
26338SOL    HW180911   5.711  11.850  12.683
26338SOL    HW280912   5.619  11.932  12.595
26339SOL     OW80913   7.982   0.281  14.508
26339SOL    HW180914   7.941   0.205  14.467
26339SOL    HW280915   7.937   0.356  14.469
26340SOL     OW80916   6.582   6.582   4.012
26340SOL    HW180917   6.597   6.675   3.994
26340SOL    HW280918   6.545   6.581   4.100
26341SOL     OW80919  13.245  11.788  12.158
26341SOL    HW180920  13.235  11.866  12.213
26341SOL    HW280921  13.338  11.767  12.163
26342SOL     OW80922   5.102  14.375   0.860
26342SOL    HW180923   5.042  14.417   0.921
26342SOL    HW280924   5.134  14.298   0.906
26343SOL     OW80925   3.894   6.636  10.905
26343SOL    HW180926   3.970   6.620  10.962
26343SOL    HW280927   3.869   6.549  10.873
26344SOL     OW80928  12.805  11.242   2.832
26344SOL    HW180929  12.763  11.219   2.915
26344SOL    HW280930  12.766  11.326   2.808
26345SOL     OW80931  12.579   9.580   1.951
26345SOL    HW180932  12.494   9.593   1.910
26345SOL    HW280933  12.627   9.524   1.889
26346SOL     OW80934  10.950   3.176  12.837
26346SOL    HW180935  10.923   3.263  12.865
26346SOL    HW280936  10.872   3.138  12.796
26347SOL     OW80937  12.793   8.771   8.970
26347SOL    HW180938  12.803   8.695   8.912
26347SOL    HW280939  12.813   8.738   9.057
26348SOL     OW80940  12.888   5.957   7.775
26348SOL    HW180941  12.844   5.889   7.724
26348SOL    HW280942  12.836   5.963   7.856
26349SOL     OW80943  13.001  12.275  10.050
26349SOL    HW180944  12.984  12.339   9.981
26349SOL    HW280945  13.084  12.234  10.025
26350SOL     OW80946   8.948   2.602  10.951
26350SOL    HW180947   8.873   2.591  10.893
26350SOL    HW280948   8.979   2.691  10.933
26351SOL     OW80949  10.683   7.898   0.807
26351SOL    HW180950  10.776   7.908   0.826
26351SOL    HW280951  10.660   7.976   0.757
26352SOL     OW80952  13.476   8.534  12.857
26352SOL    HW180953  13.501   8.469  12.923
26352SOL    HW280954  13.386   8.559  12.880
26353SOL     OW80955   3.691  11.116  10.447
26353SOL    HW180956   3.748  11.073  10.384
26353SOL    HW280957   3.751  11.162  10.507
26354SOL     OW80958   9.908  13.453   4.248
26354SOL    HW180959   9.945  13.520   4.190
26354SOL    HW280960   9.817  13.480   4.260
26355SOL     OW80961  12.285   1.465   2.041
26355SOL    HW180962  12.252   1.555   2.048
26355SOL    HW280963  12.380   1.474   2.051
26356SOL     OW80964   3.355   0.462   8.624
26356SOL    HW180965   3.383   0.521   8.554
26356SOL    HW280966   3.421   0.393   8.626
26357SOL     OW80967   0.342   1.170   0.148
26357SOL    HW180968   0.356   1.128   0.063
26357SOL    HW280969   0.388   1.253   0.141
26358SOL     OW80970   0.971  12.648  12.047
26358SOL    HW180971   0.876  12.657  12.035
26358SOL    HW280972   0.992  12.564  12.006
26359SOL     OW80973   1.924  11.556   1.172
26359SOL    HW180974   1.940  11.573   1.079
26359SOL    HW280975   1.999  11.597   1.217
26360SOL     OW80976  14.476   1.175   3.547
26360SOL    HW180977  14.503   1.086   3.525
26360SOL    HW280978  14.491   1.182   3.642
26361SOL     OW80979  12.161  11.985   6.861
26361SOL    HW180980  12.119  11.958   6.779
26361SOL    HW280981  12.111  12.061   6.890
26362SOL     OW80982   8.385   7.138  13.710
26362SOL    HW180983   8.465   7.189  13.723
26362SOL    HW280984   8.314   7.201  13.720
26363SOL     OW80985   0.468   1.659   2.007
26363SOL    HW180986   0.504   1.641   1.920
26363SOL    HW280987   0.395   1.719   1.990
26364SOL     OW80988   7.387   2.349   6.430
26364SOL    HW180989   7.423   2.402   6.501
26364SOL    HW280990   7.454   2.283   6.413
26365SOL     OW80991   4.192   2.151   5.572
26365SOL    HW180992   4.227   2.172   5.486
26365SOL    HW280993   4.265   2.169   5.632
26366SOL     OW80994  13.035   8.313  12.141
26366SOL    HW180995  13.098   8.344  12.076
26366SOL    HW280996  13.040   8.378  12.211
26367SOL     OW80997  10.302  11.055   0.508
26367SOL    HW180998  10.326  11.044   0.600
26367SOL    HW280999  10.208  11.036   0.505
26368SOL     OW81000   6.926   3.538   1.119
26368SOL    HW181001   6.990   3.491   1.065
26368SOL    HW281002   6.945   3.509   1.208
26369SOL     OW81003  10.843  14.558   2.310
26369SOL    HW181004  10.918  14.532   2.256
26369SOL    HW281005  10.788  14.480   2.315
26370SOL     OW81006   1.553   7.047  13.102
26370SOL    HW181007   1.468   7.021  13.137
26370SOL    HW281008   1.560   7.002  13.018
26371SOL     OW81009   7.795   8.042  12.329
26371SOL    HW181010   7.741   7.965  12.313
26371SOL    HW281011   7.880   8.020  12.291
26372SOL     OW81012  10.862   6.480   4.700
26372SOL    HW181013  10.933   6.426   4.736
26372SOL    HW281014  10.867   6.465   4.606
26373SOL     OW81015  10.715  14.005   2.243
26373SOL    HW181016  10.776  14.064   2.199
26373SOL    HW281017  10.646  13.989   2.179
26374SOL     OW81018   6.200   2.470  11.855
26374SOL    HW181019   6.279   2.486  11.804
26374SOL    HW281020   6.129   2.473  11.790
26375SOL     OW81021  12.403  10.850  12.643
26375SOL    HW181022  12.431  10.814  12.558
26375SOL    HW281023  12.348  10.925  12.620
26376SOL     OW81024   7.526   4.858   2.413
26376SOL    HW181025   7.592   4.813   2.466
26376SOL    HW281026   7.520   4.946   2.451
26377SOL     OW81027  10.501   8.538   4.490
26377SOL    HW181028  10.428   8.488   4.456
26377SOL    HW281029  10.479   8.629   4.472
26378SOL     OW81030   5.093  13.916  11.901
26378SOL    HW181031   5.141  13.997  11.917
26378SOL    HW281032   5.001  13.942  11.904
26379SOL     OW81033   2.941   0.660  13.594
26379SOL    HW181034   2.847   0.669  13.612
26379SOL    HW281035   2.982   0.730  13.645
26380SOL     OW81036   1.233  12.263  10.150
26380SOL    HW181037   1.225  12.353  10.118
26380SOL    HW281038   1.143  12.232  10.158
26381SOL     OW81039   4.042   2.863  10.172
26381SOL    HW181040   4.059   2.791  10.232
26381SOL    HW281041   4.051   2.942  10.225
26382SOL     OW81042   4.040   3.774  11.410
26382SOL    HW181043   3.959   3.824  11.405
26382SOL    HW281044   4.022   3.693  11.361
26383SOL     OW81045   3.028   7.253   3.897
26383SOL    HW181046   3.074   7.198   3.834
26383SOL    HW281047   2.983   7.191   3.954
26384SOL     OW81048   6.104   4.063  10.963
26384SOL    HW181049   6.116   3.970  10.979
26384SOL    HW281050   6.009   4.074  10.954
26385SOL     OW81051   5.364   6.028   6.252
26385SOL    HW181052   5.387   6.018   6.344
26385SOL    HW281053   5.416   6.103   6.222
26386SOL     OW81054   3.025   7.094   2.411
26386SOL    HW181055   3.005   7.188   2.419
26386SOL    HW281056   3.069   7.072   2.493
26387SOL     OW81057   4.591   9.991  13.678
26387SOL    HW181058   4.665   9.968  13.622
26387SOL    HW281059   4.629  10.045  13.747
26388SOL     OW81060  11.283   8.138  11.498
26388SOL    HW181061  11.196   8.126  11.460
26388SOL    HW281062  11.271   8.122  11.592
26389SOL     OW81063   7.044   5.869  14.283
26389SOL    HW181064   7.115   5.836  14.339
26389SOL    HW281065   6.990   5.922  14.341
26390SOL     OW81066  10.070   9.935  12.588
26390SOL    HW181067   9.978   9.911  12.586
26390SOL    HW281068  10.117   9.852  12.588
26391SOL     OW81069   8.051   4.889  13.676
26391SOL    HW181070   8.029   4.802  13.710
26391SOL    HW281071   7.973   4.942  13.692
26392SOL     OW81072  13.568  14.256   8.338
26392SOL    HW181073  13.553  14.162   8.348
26392SOL    HW281074  13.663  14.266   8.332
26393SOL     OW81075   5.133   4.680   7.953
26393SOL    HW181076   5.041   4.655   7.947
26393SOL    HW281077   5.133   4.764   7.997
26394SOL     OW81078  12.207   2.312   6.049
26394SOL    HW181079  12.276   2.264   6.094
26394SOL    HW281080  12.126   2.267   6.074
26395SOL     OW81081   9.928   4.065   7.444
26395SOL    HW181082   9.860   4.117   7.401
26395SOL    HW281083  10.001   4.126   7.456
26396SOL     OW81084  11.323   7.090  11.593
26396SOL    HW181085  11.255   7.023  11.597
26396SOL    HW281086  11.303   7.149  11.666
26397SOL     OW81087   1.829   3.016  10.032
26397SOL    HW181088   1.840   3.082   9.963
26397SOL    HW281089   1.815   2.934   9.984
26398SOL     OW81090   1.243   8.124   5.781
26398SOL    HW181091   1.158   8.100   5.744
26398SOL    HW281092   1.261   8.056   5.846
26399SOL     OW81093  13.738  12.051   4.046
26399SOL    HW181094  13.775  11.967   4.018
26399SOL    HW281095  13.683  12.079   3.974
26400SOL     OW81096   3.842   4.442   3.755
26400SOL    HW181097   3.767   4.487   3.717
26400SOL    HW281098   3.806   4.363   3.794
26401SOL     OW81099   0.942   6.564   9.952
26401SOL    HW181100   0.878   6.630   9.979
26401SOL    HW281101   0.972   6.524  10.034
26402SOL     OW81102   5.932   6.510   1.407
26402SOL    HW181103   5.896   6.454   1.338
26402SOL    HW281104   5.957   6.449   1.476
26403SOL     OW81105  10.299   0.156  14.837
26403SOL    HW181106  10.224   0.100  14.817
26403SOL    HW281107  10.375   0.100  14.821
26404SOL     OW81108   8.581   2.746   3.274
26404SOL    HW181109   8.673   2.722   3.278
26404SOL    HW281110   8.581   2.841   3.263
26405SOL     OW81111  12.660   5.293   2.769
26405SOL    HW181112  12.702   5.353   2.831
26405SOL    HW281113  12.732   5.252   2.722
26406SOL     OW81114  14.765  11.480  10.833
26406SOL    HW181115  14.779  11.490  10.928
26406SOL    HW281116  14.681  11.523  10.817
26407SOL     OW81117   4.759   7.461   8.816
26407SOL    HW181118   4.773   7.376   8.858
26407SOL    HW281119   4.847   7.490   8.790
26408SOL     OW81120  13.800  13.784  10.449
26408SOL    HW181121  13.757  13.807  10.531
26408SOL    HW281122  13.871  13.847  10.440
26409SOL     OW81123   6.800   5.578  12.292
26409SOL    HW181124   6.878   5.558  12.241
26409SOL    HW281125   6.746   5.633  12.235
26410SOL     OW81126   3.304   4.991   0.409
26410SOL    HW181127   3.213   4.968   0.390
26410SOL    HW281128   3.321   5.067   0.352
26411SOL     OW81129   6.117   4.697   1.729
26411SOL    HW181130   6.154   4.784   1.747
26411SOL    HW281131   6.187   4.649   1.686
26412SOL     OW81132   6.431  14.513  10.324
26412SOL    HW181133   6.522  14.540  10.311
26412SOL    HW281134   6.404  14.556  10.405
26413SOL     OW81135  11.508   0.038   3.695
26413SOL    HW181136  11.595   0.044   3.655
26413SOL    HW281137  11.449   0.018   3.622
26414SOL     OW81138   4.856   7.167  11.652
26414SOL    HW181139   4.929   7.107  11.640
26414SOL    HW281140   4.883   7.248  11.609
26415SOL     OW81141  11.770  13.448   5.964
26415SOL    HW181142  11.695  13.399   5.998
26415SOL    HW281143  11.834  13.380   5.941
26416SOL     OW81144   7.981   1.944   6.172
26416SOL    HW181145   7.888   1.928   6.188
26416SOL    HW281146   7.998   1.903   6.087
26417SOL     OW81147  13.909   4.751  12.123
26417SOL    HW181148  13.863   4.830  12.093
26417SOL    HW281149  13.994   4.756  12.080
26418SOL     OW81150  14.263   6.483  13.754
26418SOL    HW181151  14.260   6.471  13.849
26418SOL    HW281152  14.246   6.576  13.740
26419SOL     OW81153   8.356  12.449   0.990
26419SOL    HW181154   8.345  12.453   0.895
26419SOL    HW281155   8.346  12.540   1.018
26420SOL     OW81156   1.261   8.729   6.348
26420SOL    HW181157   1.290   8.795   6.285
26420SOL    HW281158   1.320   8.739   6.422
26421SOL     OW81159   0.604   4.708   7.943
26421SOL    HW181160   0.660   4.748   8.009
26421SOL    HW281161   0.576   4.625   7.982
26422SOL     OW81162   4.487   0.566  12.454
26422SOL    HW181163   4.533   0.626  12.395
26422SOL    HW281164   4.407   0.613  12.479
26423SOL     OW81165  14.068   5.894  14.113
26423SOL    HW181166  14.011   5.971  14.107
26423SOL    HW281167  14.049   5.858  14.199
26424SOL     OW81168   9.304  10.212  11.757
26424SOL    HW181169   9.355  10.167  11.824
26424SOL    HW281170   9.245  10.269  11.805
26425SOL     OW81171  13.434   6.006  13.372
26425SOL    HW181172  13.346   5.976  13.349
26425SOL    HW281173  13.479   6.015  13.288
26426SOL     OW81174   9.960  14.835   2.866
26426SOL    HW181175   9.941  14.804   2.955
26426SOL    HW281176   9.898  14.787   2.811
26427SOL     OW81177  12.495   7.834  13.745
26427SOL    HW181178  12.473   7.808  13.834
26427SOL    HW281179  12.469   7.926  13.740
26428SOL     OW81180   3.191   1.902   7.415
26428SOL    HW181181   3.142   1.831   7.456
26428SOL    HW281182   3.185   1.885   7.321
26429SOL     OW81183   5.327   6.194  12.113
26429SOL    HW181184   5.248   6.177  12.164
26429SOL    HW281185   5.337   6.117  12.058
26430SOL     OW81186   8.647   9.844   0.821
26430SOL    HW181187   8.554   9.861   0.805
26430SOL    HW281188   8.660   9.867   0.913
26431SOL     OW81189   6.829   2.687   3.546
26431SOL    HW181190   6.824   2.684   3.451
26431SOL    HW281191   6.738   2.679   3.575
26432SOL     OW81192   0.861   6.873   9.364
26432SOL    HW181193   0.779   6.922   9.371
26432SOL    HW281194   0.909   6.893   9.445
26433SOL     OW81195   7.412   6.015  14.728
26433SOL    HW181196   7.378   6.013  14.817
26433SOL    HW281197   7.379   6.097  14.691
26434SOL     OW81198   5.822   6.777   1.409
26434SOL    HW181199   5.875   6.701   1.429
26434SOL    HW281200   5.777   6.754   1.327
26435SOL     OW81201  13.136   7.279   9.726
26435SOL    HW181202  13.052   7.323   9.732
26435SOL    HW281203  13.139   7.220   9.801
26436SOL     OW81204   2.789   7.014   1.502
26436SOL    HW181205   2.723   6.949   1.528
26436SOL    HW281206   2.814   6.988   1.413
26437SOL     OW81207  12.691  11.804   4.813
26437SOL    HW181208  12.601  11.833   4.822
26437SOL    HW281209  12.709  11.753   4.891
26438SOL     OW81210   4.647  12.485   6.439
26438SOL    HW181211   4.674  12.558   6.493
26438SOL    HW281212   4.552  12.491   6.435
26439SOL     OW81213  12.602  10.194  13.860
26439SOL    HW181214  12.532  10.183  13.795
26439SOL    HW281215  12.672  10.135  13.831
26440SOL     OW81216   0.007  13.626   3.114
26440SOL    HW181217   0.019  13.599   3.023
26440SOL    HW281218   0.080  13.586   3.161
26441SOL     OW81219   6.949   8.354   8.210
26441SOL    HW181220   6.903   8.412   8.271
26441SOL    HW281221   7.021   8.407   8.175
26442SOL     OW81222   9.396   5.480  13.103
26442SOL    HW181223   9.467   5.544  13.110
26442SOL    HW281224   9.390   5.461  13.009
26443SOL     OW81225   9.204   0.470   1.753
26443SOL    HW181226   9.240   0.547   1.708
26443SOL    HW281227   9.273   0.442   1.812
26444SOL     OW81228   7.424   4.385  11.804
26444SOL    HW181229   7.417   4.480  11.805
26444SOL    HW281230   7.347   4.354  11.852
26445SOL     OW81231   2.947  11.398  10.212
26445SOL    HW181232   3.017  11.418  10.150
26445SOL    HW281233   2.900  11.481  10.222
26446SOL     OW81234  12.155   7.182   5.306
26446SOL    HW181235  12.100   7.221   5.239
26446SOL    HW281236  12.189   7.102   5.267
26447SOL     OW81237   0.256   6.039   9.510
26447SOL    HW181238   0.255   6.124   9.555
26447SOL    HW281239   0.164   6.015   9.501
26448SOL     OW81240   1.812   2.221   9.148
26448SOL    HW181241   1.805   2.139   9.100
26448SOL    HW281242   1.765   2.285   9.095
26449SOL     OW81243   7.811   9.231   3.161
26449SOL    HW181244   7.885   9.275   3.120
26449SOL    HW281245   7.850   9.155   3.205
26450SOL     OW81246  12.379   6.829  14.307
26450SOL    HW181247  12.402   6.759  14.245
26450SOL    HW281248  12.458   6.840  14.360
26451SOL     OW81249  14.742  12.562   2.160
26451SOL    HW181250  14.687  12.639   2.173
26451SOL    HW281251  14.776  12.570   2.071
26452SOL     OW81252  12.187   6.654   2.525
26452SOL    HW181253  12.234   6.724   2.570
26452SOL    HW281254  12.101   6.691   2.507
26453SOL     OW81255   3.749  11.153  11.394
26453SOL    HW181256   3.680  11.154  11.460
26453SOL    HW281257   3.722  11.220  11.330
26454SOL     OW81258   7.425   9.121   7.875
26454SOL    HW181259   7.360   9.091   7.812
26454SOL    HW281260   7.476   9.042   7.897
26455SOL     OW81261   6.641  10.743   8.490
26455SOL    HW181262   6.667  10.835   8.481
26455SOL    HW281263   6.647  10.725   8.584
26456SOL     OW81264  14.412   0.079   0.996
26456SOL    HW181265  14.473   0.089   1.070
26456SOL    HW281266  14.433  14.880   0.960
26457SOL     OW81267   4.405   1.514   1.718
26457SOL    HW181268   4.423   1.564   1.798
26457SOL    HW281269   4.357   1.576   1.662
26458SOL     OW81270  11.199   6.799   5.638
26458SOL    HW181271  11.212   6.707   5.661
26458SOL    HW281272  11.105   6.813   5.650
26459SOL     OW81273   0.617  12.750   6.680
26459SOL    HW181274   0.698  12.701   6.691
26459SOL    HW281275   0.605  12.797   6.763
26460SOL     OW81276   4.245  12.868   4.387
26460SOL    HW181277   4.241  12.870   4.291
26460SOL    HW281278   4.159  12.836   4.414
26461SOL     OW81279  11.904   9.890  10.715
26461SOL    HW181280  11.950   9.839  10.781
26461SOL    HW281281  11.972   9.942  10.672
26462SOL     OW81282   4.586  12.372  12.640
26462SOL    HW181283   4.523  12.431  12.599
26462SOL    HW281284   4.557  12.366  12.731
26463SOL     OW81285   1.582  14.266   2.457
26463SOL    HW181286   1.578  14.197   2.390
26463SOL    HW281287   1.603  14.220   2.538
26464SOL     OW81288   7.893   6.365  10.828
26464SOL    HW181289   7.957   6.436  10.828
26464SOL    HW281290   7.808   6.409  10.834
26465SOL     OW81291   1.793   6.569  14.522
26465SOL    HW181292   1.888   6.560  14.514
26465SOL    HW281293   1.778   6.663  14.537
26466SOL     OW81294   4.703  14.871   5.677
26466SOL    HW181295   4.612  14.854   5.698
26466SOL    HW281296   4.751  14.800   5.718
26467SOL     OW81297  14.554   1.141   4.498
26467SOL    HW181298  14.588   1.054   4.477
26467SOL    HW281299  14.595   1.164   4.581
26468SOL     OW81300   1.824   8.116   0.829
26468SOL    HW181301   1.760   8.156   0.771
26468SOL    HW281302   1.836   8.027   0.796
26469SOL     OW81303   3.721  13.759  10.005
26469SOL    HW181304   3.641  13.744  10.054
26469SOL    HW281305   3.784  13.696  10.040
26470SOL     OW81306   6.109   8.503   8.284
26470SOL    HW181307   6.104   8.498   8.380
26470SOL    HW281308   6.033   8.454   8.253
26471SOL     OW81309   5.695   6.033   5.178
26471SOL    HW181310   5.670   5.944   5.203
26471SOL    HW281311   5.731   6.025   5.090
26472SOL     OW81312   3.091  11.097   4.677
26472SOL    HW181313   3.004  11.117   4.712
26472SOL    HW281314   3.133  11.182   4.665
26473SOL     OW81315   3.802   6.399  13.985
26473SOL    HW181316   3.755   6.477  14.016
26473SOL    HW281317   3.735   6.332  13.976
26474SOL     OW81318   6.169   3.920   8.571
26474SOL    HW181319   6.242   3.898   8.629
26474SOL    HW281320   6.210   3.950   8.490
26475SOL     OW81321  11.309  11.430   6.369
26475SOL    HW181322  11.263  11.513   6.382
26475SOL    HW281323  11.271  11.371   6.434
26476SOL     OW81324  12.461   8.247   7.509
26476SOL    HW181325  12.470   8.333   7.466
26476SOL    HW281326  12.368   8.242   7.531
26477SOL     OW81327  13.223  11.804   9.965
26477SOL    HW181328  13.296  11.825   9.907
26477SOL    HW281329  13.265  11.783  10.049
26478SOL     OW81330  13.429   1.705   8.547
26478SOL    HW181331  13.411   1.730   8.456
26478SOL    HW281332  13.478   1.623   8.540
26479SOL     OW81333   1.316  11.274  13.807
26479SOL    HW181334   1.250  11.300  13.871
26479SOL    HW281335   1.292  11.185  13.782
26480SOL     OW81336  10.398   9.106   7.230
26480SOL    HW181337  10.447   9.028   7.204
26480SOL    HW281338  10.446   9.140   7.306
26481SOL     OW81339   5.955   6.907   4.724
26481SOL    HW181340   5.978   6.996   4.697
26481SOL    HW281341   6.037   6.858   4.715
26482SOL     OW81342   4.872  12.148  10.726
26482SOL    HW181343   4.918  12.067  10.746
26482SOL    HW281344   4.941  12.216  10.727
26483SOL     OW81345   8.025  12.443   9.448
26483SOL    HW181346   8.039  12.359   9.491
26483SOL    HW281347   8.036  12.508   9.517
26484SOL     OW81348  10.547   1.128   3.993
26484SOL    HW181349  10.586   1.078   4.064
26484SOL    HW281350  10.498   1.198   4.037
26485SOL     OW81351   5.272  12.053   3.854
26485SOL    HW181352   5.347  12.107   3.828
26485SOL    HW281353   5.213  12.114   3.898
26486SOL     OW81354   9.778  13.353  12.635
26486SOL    HW181355   9.774  13.259  12.616
26486SOL    HW281356   9.821  13.391  12.559
26487SOL     OW81357   5.743   1.954  11.393
26487SOL    HW181358   5.760   1.861  11.404
26487SOL    HW281359   5.648   1.961  11.380
26488SOL     OW81360  11.686   4.784  11.405
26488SOL    HW181361  11.667   4.843  11.477
26488SOL    HW281362  11.621   4.713  11.414
26489SOL     OW81363   6.191  14.749   7.075
26489SOL    HW181364   6.121  14.720   7.134
26489SOL    HW281365   6.145  14.799   7.007
26490SOL     OW81366   4.568   8.894   3.814
26490SOL    HW181367   4.492   8.880   3.758
26490SOL    HW281368   4.541   8.963   3.875
26491SOL     OW81369   9.852  11.183   8.739
26491SOL    HW181370   9.815  11.095   8.742
26491SOL    HW281371   9.785  11.238   8.779
26492SOL     OW81372   6.883   8.197   5.624
26492SOL    HW181373   6.978   8.189   5.618
26492SOL    HW281374   6.861   8.158   5.709
26493SOL     OW81375  12.219  11.565   9.066
26493SOL    HW181376  12.196  11.477   9.095
26493SOL    HW281377  12.135  11.610   9.056
26494SOL     OW81378   8.379   8.808   5.688
26494SOL    HW181379   8.392   8.742   5.619
26494SOL    HW281380   8.447   8.788   5.753
26495SOL     OW81381   6.761   8.490  10.997
26495SOL    HW181382   6.699   8.547  11.043
26495SOL    HW281383   6.735   8.498  10.905
26496SOL     OW81384   7.761   5.740  10.561
26496SOL    HW181385   7.811   5.690  10.625
26496SOL    HW281386   7.828   5.776  10.503
26497SOL     OW81387   1.096  14.132   4.823
26497SOL    HW181388   1.089  14.224   4.851
26497SOL    HW281389   1.154  14.092   4.887
26498SOL     OW81390   8.072   5.776   7.400
26498SOL    HW181391   8.117   5.827   7.468
26498SOL    HW281392   7.995   5.739   7.444
26499SOL     OW81393  12.506   1.770   3.568
26499SOL    HW181394  12.579   1.831   3.563
26499SOL    HW281395  12.542   1.693   3.613
26500SOL     OW81396   0.980   4.103  12.101
26500SOL    HW181397   1.063   4.069  12.069
26500SOL    HW281398   0.990   4.198  12.098
26501SOL     OW81399   9.759  14.000  10.518
26501SOL    HW181400   9.804  13.942  10.579
26501SOL    HW281401   9.810  13.996  10.438
26502SOL     OW81402   3.031  11.361  10.804
26502SOL    HW181403   3.032  11.444  10.851
26502SOL    HW281404   3.094  11.373  10.733
26503SOL     OW81405   5.558   7.469  12.493
26503SOL    HW181406   5.567   7.557  12.456
26503SOL    HW281407   5.572   7.410  12.420
26504SOL     OW81408   5.912  11.871   0.619
26504SOL    HW181409   5.839  11.926   0.589
26504SOL    HW281410   5.875  11.818   0.689
26505SOL     OW81411   9.823   0.822   8.279
26505SOL    HW181412   9.802   0.754   8.214
26505SOL    HW281413   9.748   0.881   8.277
26506SOL     OW81414   3.979   8.203   0.314
26506SOL    HW181415   3.953   8.295   0.314
26506SOL    HW281416   3.914   8.160   0.259
26507SOL     OW81417   2.108   4.630   2.898
26507SOL    HW181418   2.187   4.577   2.884
26507SOL    HW281419   2.056   4.580   2.960
26508SOL     OW81420  13.430  12.505   0.775
26508SOL    HW181421  13.508  12.461   0.808
26508SOL    HW281422  13.369  12.435   0.754
26509SOL     OW81423   9.050   4.456  13.194
26509SOL    HW181424   8.979   4.440  13.256
26509SOL    HW281425   9.016   4.427  13.110
26510SOL     OW81426   5.136  14.080   9.684
26510SOL    HW181427   5.210  14.137   9.664
26510SOL    HW281428   5.166  13.992   9.661
26511SOL     OW81429   4.182   2.424   6.447
26511SOL    HW181430   4.089   2.407   6.431
26511SOL    HW281431   4.223   2.337   6.445
26512SOL     OW81432   1.906   9.757  10.519
26512SOL    HW181433   1.817   9.766  10.551
26512SOL    HW281434   1.927   9.843  10.482
26513SOL     OW81435   8.608  11.874   6.737
26513SOL    HW181436   8.577  11.814   6.804
26513SOL    HW281437   8.528  11.909   6.697
26514SOL     OW81438   7.679  10.698  11.620
26514SOL    HW181439   7.685  10.689  11.524
26514SOL    HW281440   7.590  10.669  11.641
26515SOL     OW81441  11.132   9.868   0.090
26515SOL    HW181442  11.162   9.942   0.038
26515SOL    HW281443  11.154   9.791   0.037
26516SOL     OW81444   7.221   0.009  11.352
26516SOL    HW181445   7.284  14.886  11.281
26516SOL    HW281446   7.224   0.102  11.374
26517SOL     OW81447  14.233   3.070   3.172
26517SOL    HW181448  14.306   3.027   3.215
26517SOL    HW281449  14.157   3.016   3.193
26518SOL     OW81450  14.887   3.375   3.900
26518SOL    HW181451  14.884   3.400   3.992
26518SOL    HW281452   0.002   3.458   3.853
26519SOL     OW81453   5.046   8.393   0.838
26519SOL    HW181454   5.007   8.480   0.840
26519SOL    HW281455   5.108   8.396   0.765
26520SOL     OW81456  10.131   0.590   0.049
26520SOL    HW181457  10.068   0.531   0.007
26520SOL    HW281458  10.129   0.566   0.141
26521SOL     OW81459   5.385   5.346   5.581
26521SOL    HW181460   5.477   5.349   5.609
26521SOL    HW281461   5.362   5.438   5.567
26522SOL     OW81462   2.468   6.566  11.990
26522SOL    HW181463   2.485   6.653  12.025
26522SOL    HW281464   2.373   6.557  11.992
26523SOL     OW81465   8.050   4.612   4.056
26523SOL    HW181466   8.001   4.676   4.108
26523SOL    HW281467   8.114   4.665   4.008
26524SOL     OW81468   2.409   2.795  13.203
26524SOL    HW181469   2.502   2.815  13.214
26524SOL    HW281470   2.388   2.737  13.275
26525SOL     OW81471  11.779   7.941   7.780
26525SOL    HW181472  11.797   7.940   7.686
26525SOL    HW281473  11.747   7.853   7.800
26526SOL     OW81474   7.509  10.180   0.898
26526SOL    HW181475   7.507  10.198   0.804
26526SOL    HW281476   7.446  10.109   0.911
26527SOL     OW81477   2.310   2.632  12.997
26527SOL    HW181478   2.327   2.698  13.063
26527SOL    HW281479   2.389   2.579  12.995
26528SOL     OW81480   7.529   9.570  10.596
26528SOL    HW181481   7.533   9.665  10.602
26528SOL    HW281482   7.589   9.548  10.525
26529SOL     OW81483  12.822   3.176   5.793
26529SOL    HW181484  12.788   3.242   5.732
26529SOL    HW281485  12.874   3.117   5.738
26530SOL     OW81486   1.795   8.987   1.576
26530SOL    HW181487   1.749   9.066   1.545
26530SOL    HW281488   1.883   8.996   1.540
26531SOL     OW81489   5.195   2.233   0.185
26531SOL    HW181490   5.186   2.310   0.240
26531SOL    HW281491   5.235   2.266   0.104
26532SOL     OW81492   5.929  10.532  14.713
26532SOL    HW181493   5.971  10.539  14.799
26532SOL    HW281494   6.000  10.543  14.650
26533SOL     OW81495   4.431   1.741   1.035
26533SOL    HW181496   4.482   1.680   1.088
26533SOL    HW281497   4.344   1.740   1.074
26534SOL     OW81498   8.419  11.117   4.939
26534SOL    HW181499   8.340  11.119   4.884
26534SOL    HW281500   8.393  11.165   5.018
26535SOL     OW81501   0.034   1.118   5.503
26535SOL    HW181502  14.881   1.163   5.429
26535SOL    HW281503   0.118   1.087   5.470
26536SOL     OW81504  13.469  12.968  11.524
26536SOL    HW181505  13.381  12.963  11.562
26536SOL    HW281506  13.455  12.997  11.434
26537SOL     OW81507   9.099   5.718   5.922
26537SOL    HW181508   9.056   5.652   5.868
26537SOL    HW281509   9.055   5.800   5.899
26538SOL     OW81510   7.754   3.831   3.882
26538SOL    HW181511   7.816   3.773   3.927
26538SOL    HW281512   7.801   3.914   3.873
26539SOL     OW81513   1.820   1.124  11.476
26539SOL    HW181514   1.835   1.107  11.383
26539SOL    HW281515   1.724   1.121  11.485
26540SOL     OW81516  12.016   0.834  12.100
26540SOL    HW181517  12.082   0.774  12.065
26540SOL    HW281518  12.050   0.862  12.185
26541SOL     OW81519  14.756  14.066  12.502
26541SOL    HW181520  14.754  13.987  12.449
26541SOL    HW281521  14.848  14.075  12.528
26542SOL     OW81522   3.725  11.563  10.882
26542SOL    HW181523   3.774  11.490  10.920
26542SOL    HW281524   3.787  11.605  10.823
26543SOL     OW81525   7.846  12.829   8.316
26543SOL    HW181526   7.879  12.919   8.321
26543SOL    HW281527   7.920  12.775   8.346
26544SOL     OW81528   2.554   3.200   5.436
26544SOL    HW181529   2.635   3.180   5.389
26544SOL    HW281530   2.560   3.294   5.454
26545SOL     OW81531   1.952  14.198   5.520
26545SOL    HW181532   1.914  14.229   5.602
26545SOL    HW281533   2.047  14.201   5.535
26546SOL     OW81534   3.419   6.423   3.092
26546SOL    HW181535   3.497   6.470   3.061
26546SOL    HW281536   3.346   6.464   3.046
26547SOL     OW81537  13.673   6.698   0.273
26547SOL    HW181538  13.709   6.693   0.185
26547SOL    HW281539  13.586   6.736   0.262
26548SOL     OW81540  10.241   5.778  13.178
26548SOL    HW181541  10.165   5.724  13.200
26548SOL    HW281542  10.203   5.860  13.146
26549SOL     OW81543  10.329  11.317  10.114
26549SOL    HW181544  10.361  11.285  10.030
26549SOL    HW281545  10.271  11.390  10.092
26550SOL     OW81546   2.562   4.717  10.526
26550SOL    HW181547   2.467   4.709  10.529
26550SOL    HW281548   2.585   4.759  10.609
26551SOL     OW81549   5.090   4.873   1.371
26551SOL    HW181550   5.079   4.780   1.392
26551SOL    HW281551   5.133   4.874   1.285
26552SOL     OW81552   5.860   7.580  13.406
26552SOL    HW181553   5.852   7.550  13.315
26552SOL    HW281554   5.950   7.560  13.430
26553SOL     OW81555   3.659   8.941  13.373
26553SOL    HW181556   3.726   8.945  13.305
26553SOL    HW281557   3.580   8.915  13.327
26554SOL     OW81558   2.045   0.864   6.497
26554SOL    HW181559   2.108   0.832   6.562
26554SOL    HW281560   2.001   0.937   6.541
26555SOL     OW81561   9.750  12.118   3.614
26555SOL    HW181562   9.661  12.105   3.647
26555SOL    HW281563   9.749  12.077   3.528
26556SOL     OW81564   4.927  11.159   3.496
26556SOL    HW181565   4.964  11.136   3.581
26556SOL    HW281566   4.864  11.228   3.515
26557SOL     OW81567  10.265  10.468  13.699
26557SOL    HW181568  10.257  10.554  13.658
26557SOL    HW281569  10.355  10.441  13.680
26558SOL     OW81570   5.078   1.785   9.081
26558SOL    HW181571   5.163   1.817   9.112
26558SOL    HW281572   5.099   1.717   9.018
26559SOL     OW81573   6.432   4.935   4.589
26559SOL    HW181574   6.475   4.990   4.654
26559SOL    HW281575   6.349   4.979   4.571
26560SOL     OW81576   1.769   6.059   2.665
26560SOL    HW181577   1.800   6.147   2.643
26560SOL    HW281578   1.753   6.061   2.759
26561SOL     OW81579   9.743  10.995   6.483
26561SOL    HW181580   9.792  10.953   6.554
26561SOL    HW281581   9.758  10.938   6.407
26562SOL     OW81582   3.023   7.498   0.113
26562SOL    HW181583   3.094   7.505   0.049
26562SOL    HW281584   2.982   7.585   0.111
26563SOL     OW81585   6.468   4.186  10.135
26563SOL    HW181586   6.514   4.128  10.074
26563SOL    HW281587   6.535   4.248  10.164
26564SOL     OW81588   1.942   1.955   3.416
26564SOL    HW181589   1.997   1.897   3.468
26564SOL    HW281590   1.864   1.968   3.470
26565SOL     OW81591   8.194  12.707  12.791
26565SOL    HW181592   8.122  12.766  12.811
26565SOL    HW281593   8.251  12.759  12.734
26566SOL     OW81594   1.870   8.283   6.189
26566SOL    HW181595   1.857   8.247   6.276
26566SOL    HW281596   1.921   8.362   6.202
26567SOL     OW81597  11.710  10.554   6.390
26567SOL    HW181598  11.691  10.636   6.435
26567SOL    HW281599  11.798  10.566   6.353
26568SOL     OW81600   7.340  14.747   7.625
26568SOL    HW181601   7.435  14.741   7.637
26568SOL    HW281602   7.314  14.819   7.682
26569SOL     OW81603  14.218   5.400   5.207
26569SOL    HW181604  14.133   5.398   5.251
26569SOL    HW281605  14.211   5.472   5.144
26570SOL     OW81606   8.955   5.330   8.621
26570SOL    HW181607   8.901   5.281   8.683
26570SOL    HW281608   9.038   5.283   8.619
26571SOL     OW81609   5.367  10.722   8.652
26571SOL    HW181610   5.366  10.656   8.582
26571SOL    HW281611   5.303  10.787   8.624
26572SOL     OW81612   4.920  12.288  11.220
26572SOL    HW181613   4.835  12.312  11.182
26572SOL    HW281614   4.910  12.304  11.314
26573SOL     OW81615  11.618   9.117  14.645
26573SOL    HW181616  11.525   9.100  14.660
26573SOL    HW281617  11.638   9.192  14.701
26574SOL     OW81618  14.741  13.356   5.261
26574SOL    HW181619  14.728  13.439   5.306
26574SOL    HW281620  14.764  13.380   5.171
26575SOL     OW81621   5.515   3.929  11.845
26575SOL    HW181622   5.575   3.893  11.780
26575SOL    HW281623   5.553   4.014  11.867
26576SOL     OW81624  13.409  10.340   6.682
26576SOL    HW181625  13.422  10.347   6.587
26576SOL    HW281626  13.462  10.412   6.718
26577SOL     OW81627   9.700  14.009   4.071
26577SOL    HW181628   9.713  13.963   4.154
26577SOL    HW281629   9.614  13.979   4.041
26578SOL     OW81630  10.498   7.863  10.930
26578SOL    HW181631  10.439   7.802  10.974
26578SOL    HW281632  10.584   7.844  10.968
26579SOL     OW81633   0.908  12.954   4.053
26579SOL    HW181634   0.923  13.026   3.991
26579SOL    HW281635   0.821  12.972   4.090
26580SOL     OW81636   5.137   0.354   1.500
26580SOL    HW181637   5.152   0.360   1.406
26580SOL    HW281638   5.085   0.274   1.511
26581SOL     OW81639  14.074  10.722  13.481
26581SOL    HW181640  14.000  10.780  13.500
26581SOL    HW281641  14.038  10.657  13.421
26582SOL     OW81642  11.314   8.961   5.904
26582SOL    HW181643  11.241   8.958   5.842
26582SOL    HW281644  11.333   9.054   5.914
26583SOL     OW81645   2.141   5.935  13.303
26583SOL    HW181646   2.113   5.859  13.252
26583SOL    HW281647   2.108   5.917  13.392
26584SOL     OW81648   0.599   0.672  10.406
26584SOL    HW181649   0.588   0.703  10.316
26584SOL    HW281650   0.681   0.712  10.435
26585SOL     OW81651   9.313  13.700   7.627
26585SOL    HW181652   9.255  13.628   7.606
26585SOL    HW281653   9.263  13.756   7.687
26586SOL     OW81654  12.184   2.241   8.121
26586SOL    HW181655  12.161   2.319   8.070
26586SOL    HW281656  12.179   2.269   8.212
26587SOL     OW81657   2.943   3.429   5.226
26587SOL    HW181658   3.018   3.377   5.198
26587SOL    HW281659   2.874   3.409   5.163
26588SOL     OW81660  11.377   9.937  12.628
26588SOL    HW181661  11.356   9.893  12.546
26588SOL    HW281662  11.376  10.031  12.606
26589SOL     OW81663   9.658   3.890  14.706
26589SOL    HW181664   9.717   3.828  14.748
26589SOL    HW281665   9.663   3.868  14.612
26590SOL     OW81666  14.734   6.442   8.474
26590SOL    HW181667  14.696   6.413   8.557
26590SOL    HW281668  14.827   6.416   8.480
26591SOL     OW81669   7.384   6.294   2.418
26591SOL    HW181670   7.330   6.351   2.363
26591SOL    HW281671   7.378   6.331   2.505
26592SOL     OW81672  11.197   1.494  10.210
26592SOL    HW181673  11.138   1.545  10.154
26592SOL    HW281674  11.264   1.460  10.151
26593SOL     OW81675   8.791  12.726   9.607
26593SOL    HW181676   8.828  12.709   9.521
26593SOL    HW281677   8.796  12.821   9.618
26594SOL     OW81678  12.741   4.811   5.927
26594SOL    HW181679  12.747   4.843   6.016
26594SOL    HW281680  12.805   4.862   5.878
26595SOL     OW81681   9.750   6.873  11.192
26595SOL    HW181682   9.658   6.874  11.167
26595SOL    HW281683   9.772   6.780  11.199
26596SOL     OW81684  10.115   5.818  10.809
26596SOL    HW181685  10.070   5.827  10.893
26596SOL    HW281686  10.062   5.867  10.747
26597SOL     OW81687   8.746   5.289  11.698
26597SOL    HW181688   8.736   5.373  11.743
26597SOL    HW281689   8.747   5.224  11.768
26598SOL     OW81690   1.775  13.721  11.611
26598SOL    HW181691   1.825  13.746  11.688
26598SOL    HW281692   1.707  13.662  11.645
26599SOL     OW81693   1.628   3.123   8.690
26599SOL    HW181694   1.609   3.075   8.771
26599SOL    HW281695   1.670   3.058   8.633
26600SOL     OW81696   7.026   1.440   5.061
26600SOL    HW181697   7.035   1.515   5.120
26600SOL    HW281698   6.941   1.402   5.085
26601SOL     OW81699   8.601   2.957   5.274
26601SOL    HW181700   8.592   3.048   5.302
26601SOL    HW281701   8.540   2.909   5.329
26602SOL     OW81702   6.465  11.369  14.176
26602SOL    HW181703   6.428  11.410  14.255
26602SOL    HW281704   6.557  11.394  14.178
26603SOL     OW81705  11.137  10.562  12.693
26603SOL    HW181706  11.073  10.492  12.680
26603SOL    HW281707  11.196  10.555  12.618
26604SOL     OW81708  12.051   5.821   6.695
26604SOL    HW181709  12.083   5.864   6.615
26604SOL    HW281710  12.020   5.736   6.666
26605SOL     OW81711   8.798  12.938   0.480
26605SOL    HW181712   8.830  13.020   0.443
26605SOL    HW281713   8.833  12.936   0.569
26606SOL     OW81714  11.979   5.407   0.579
26606SOL    HW181715  12.029   5.487   0.587
26606SOL    HW281716  11.916   5.425   0.509
26607SOL     OW81717  10.181   1.463   0.448
26607SOL    HW181718  10.120   1.390   0.458
26607SOL    HW281719  10.147   1.532   0.504
26608SOL     OW81720   9.569   4.797  10.141
26608SOL    HW181721   9.628   4.816  10.068
26608SOL    HW281722   9.538   4.708  10.125
26609SOL     OW81723  10.866  11.438   8.413
26609SOL    HW181724  10.856  11.479   8.499
26609SOL    HW281725  10.797  11.371   8.410
26610SOL     OW81726   8.811   1.802   2.347
26610SOL    HW181727   8.745   1.775   2.284
26610SOL    HW281728   8.858   1.873   2.304
26611SOL     OW81729   6.107   0.952   8.308
26611SOL    HW181730   6.057   0.929   8.386
26611SOL    HW281731   6.153   0.871   8.285
26612SOL     OW81732   2.712   8.306   9.250
26612SOL    HW181733   2.742   8.217   9.266
26612SOL    HW281734   2.753   8.331   9.168
26613SOL     OW81735  14.843   3.547  12.639
26613SOL    HW181736  14.778   3.529  12.707
26613SOL    HW281737  14.819   3.634  12.606
26614SOL     OW81738   5.286  14.115  14.537
26614SOL    HW181739   5.358  14.174  14.514
26614SOL    HW281740   5.238  14.103  14.455
26615SOL     OW81741   0.211   0.833   2.110
26615SOL    HW181742   0.279   0.778   2.148
26615SOL    HW281743   0.217   0.817   2.015
26616SOL     OW81744   4.559  10.363  13.911
26616SOL    HW181745   4.484  10.314  13.944
26616SOL    HW281746   4.624  10.357  13.980
26617SOL     OW81747   6.995  14.565   9.461
26617SOL    HW181748   7.086  14.592   9.473
26617SOL    HW281749   6.951  14.595   9.540
26618SOL     OW81750   8.222  13.886  12.384
26618SOL    HW181751   8.247  13.958  12.326
26618SOL    HW281752   8.301  13.867  12.436
26619SOL     OW81753   6.398   4.702   0.775
26619SOL    HW181754   6.322   4.699   0.718
26619SOL    HW281755   6.471   4.676   0.719
26620SOL     OW81756   6.372   4.050   0.183
26620SOL    HW181757   6.427   4.024   0.257
26620SOL    HW281758   6.296   3.993   0.189
26621SOL     OW81759  11.548   9.932   8.596
26621SOL    HW181760  11.531   9.954   8.688
26621SOL    HW281761  11.620   9.989   8.570
26622SOL     OW81762   6.589   9.273   6.080
26622SOL    HW181763   6.582   9.209   6.150
26622SOL    HW281764   6.672   9.318   6.097
26623SOL     OW81765  13.589  11.018   4.535
26623SOL    HW181766  13.516  10.956   4.524
26623SOL    HW281767  13.550  11.092   4.580
26624SOL     OW81768   4.582   1.436   1.168
26624SOL    HW181769   4.526   1.361   1.151
26624SOL    HW281770   4.528   1.495   1.219
26625SOL     OW81771   6.492   3.163   1.950
26625SOL    HW181772   6.568   3.123   1.907
26625SOL    HW281773   6.507   3.257   1.943
26626SOL     OW81774   2.239   8.697   4.578
26626SOL    HW181775   2.225   8.602   4.576
26626SOL    HW281776   2.151   8.734   4.593
26627SOL     OW81777   1.028  11.706   2.932
26627SOL    HW181778   0.970  11.646   2.979
26627SOL    HW281779   1.047  11.775   2.996
26628SOL     OW81780   1.454  11.912   0.497
26628SOL    HW181781   1.514  11.977   0.460
26628SOL    HW281782   1.444  11.846   0.429
26629SOL     OW81783   0.051   4.080  11.595
26629SOL    HW181784   0.002   4.101  11.516
26629SOL    HW281785   0.093   4.163  11.620
26630SOL     OW81786   6.913  10.407   5.807
26630SOL    HW181787   6.945  10.351   5.878
26630SOL    HW281788   6.945  10.364   5.727
26631SOL     OW81789   9.382   7.623   9.819
26631SOL    HW181790   9.467   7.606   9.779
26631SOL    HW281791   9.321   7.628   9.746
26632SOL     OW81792  10.298   8.017  14.767
26632SOL    HW181793  10.273   8.041  14.677
26632SOL    HW281794  10.382   7.973  14.757
26633SOL     OW81795   5.212   1.967   8.022
26633SOL    HW181796   5.169   2.050   8.004
26633SOL    HW281797   5.301   1.978   7.987
26634SOL     OW81798   6.679   8.797  10.835
26634SOL    HW181799   6.675   8.716  10.784
26634SOL    HW281800   6.602   8.847  10.808
26635SOL     OW81801  12.533  14.076   6.959
26635SOL    HW181802  12.443  14.097   6.936
26635SOL    HW281803  12.565  14.025   6.886
26636SOL     OW81804   9.250   3.936   5.351
26636SOL    HW181805   9.223   4.013   5.401
26636SOL    HW281806   9.170   3.886   5.338
26637SOL     OW81807   0.905  11.367   6.969
26637SOL    HW181808   0.901  11.272   6.973
26637SOL    HW281809   0.947  11.386   6.886
26638SOL     OW81810  10.831  10.941   3.188
26638SOL    HW181811  10.763  10.926   3.254
26638SOL    HW281812  10.783  10.962   3.108
26639SOL     OW81813  14.070   2.395   1.969
26639SOL    HW181814  14.091   2.487   1.979
26639SOL    HW281815  14.071   2.360   2.059
26640SOL     OW81816   9.740  11.526   8.437
26640SOL    HW181817   9.826  11.569   8.438
26640SOL    HW281818   9.693  11.570   8.366
26641SOL     OW81819   6.316  14.771   3.301
26641SOL    HW181820   6.261  14.797   3.375
26641SOL    HW281821   6.343  14.681   3.323
26642SOL     OW81822   1.116   9.394  10.330
26642SOL    HW181823   1.076   9.460  10.385
26642SOL    HW281824   1.145   9.442  10.252
26643SOL     OW81825  13.190   5.553  13.946
26643SOL    HW181826  13.108   5.596  13.970
26643SOL    HW281827  13.240   5.620  13.899
26644SOL     OW81828   2.071  13.881  10.044
26644SOL    HW181829   2.048  13.817  10.111
26644SOL    HW281830   2.153  13.920  10.075
26645SOL     OW81831  12.305   3.341  14.050
26645SOL    HW181832  12.384   3.289  14.034
26645SOL    HW281833  12.247   3.283  14.098
26646SOL     OW81834   5.645   3.763   6.107
26646SOL    HW181835   5.611   3.851   6.098
26646SOL    HW281836   5.674   3.757   6.198
26647SOL     OW81837   7.477   4.212   8.171
26647SOL    HW181838   7.512   4.285   8.222
26647SOL    HW281839   7.519   4.219   8.086
26648SOL     OW81840  12.159   7.195   6.909
26648SOL    HW181841  12.215   7.270   6.931
26648SOL    HW281842  12.216   7.137   6.859
26649SOL     OW81843   5.889  11.517   7.586
26649SOL    HW181844   5.972  11.527   7.540
26649SOL    HW281845   5.823  11.547   7.523
26650SOL     OW81846   6.805   3.744   7.728
26650SOL    HW181847   6.745   3.785   7.791
26650SOL    HW281848   6.761   3.664   7.702
26651SOL     OW81849   4.145  14.740   7.033
26651SOL    HW181850   4.091  14.798   7.087
26651SOL    HW281851   4.232  14.780   7.034
26652SOL     OW81852  12.297   4.917  12.461
26652SOL    HW181853  12.383   4.878  12.447
26652SOL    HW281854  12.304   5.004  12.421
26653SOL     OW81855   0.670   1.934   1.003
26653SOL    HW181856   0.620   1.880   1.065
26653SOL    HW281857   0.605   1.992   0.964
26654SOL     OW81858   2.645  10.649  11.285
26654SOL    HW181859   2.561  10.669  11.327
26654SOL    HW281860   2.680  10.734  11.258
26655SOL     OW81861   8.985   8.420   9.029
26655SOL    HW181862   9.057   8.449   8.973
26655SOL    HW281863   9.003   8.460   9.114
26656SOL     OW81864   2.116   7.191   9.126
26656SOL    HW181865   2.199   7.238   9.135
26656SOL    HW281866   2.066   7.217   9.203
26657SOL     OW81867   4.743   5.322   3.724
26657SOL    HW181868   4.833   5.308   3.751
26657SOL    HW281869   4.731   5.417   3.727
26658SOL     OW81870  14.365   7.858   2.799
26658SOL    HW181871  14.371   7.925   2.867
26658SOL    HW281872  14.447   7.865   2.751
26659SOL     OW81873   7.497  11.592   4.826
26659SOL    HW181874   7.474  11.524   4.889
26659SOL    HW281875   7.536  11.545   4.753
26660SOL     OW81876   6.768  14.505   7.407
26660SOL    HW181877   6.860  14.492   7.428
26660SOL    HW281878   6.723  14.430   7.445
26661SOL     OW81879   9.168   4.963   5.334
26661SOL    HW181880   9.196   5.052   5.316
26661SOL    HW281881   9.074   4.969   5.346
26662SOL     OW81882  11.108  13.022   5.876
26662SOL    HW181883  11.201  13.026   5.853
26662SOL    HW281884  11.085  12.930   5.867
26663SOL     OW81885   5.113   9.658   6.770
26663SOL    HW181886   5.050   9.589   6.786
26663SOL    HW281887   5.188   9.637   6.827
26664SOL     OW81888   7.730  10.878   6.792
26664SOL    HW181889   7.772  10.911   6.713
26664SOL    HW281890   7.747  10.945   6.858
26665SOL     OW81891   3.836   5.447   6.199
26665SOL    HW181892   3.841   5.540   6.180
26665SOL    HW281893   3.745   5.431   6.223
26666SOL     OW81894  13.515   9.263  13.963
26666SOL    HW181895  13.468   9.335  14.006
26666SOL    HW281896  13.534   9.296  13.875
26667SOL     OW81897   3.909   7.313   1.971
26667SOL    HW181898   3.898   7.241   1.909
26667SOL    HW281899   3.855   7.384   1.936
26668SOL     OW81900  13.507   2.136  11.535
26668SOL    HW181901  13.590   2.157  11.578
26668SOL    HW281902  13.440   2.177  11.589
26669SOL     OW81903   7.826  13.430   0.714
26669SOL    HW181904   7.883  13.363   0.750
26669SOL    HW281905   7.737  13.401   0.735
26670SOL     OW81906   2.196   5.110   4.297
26670SOL    HW181907   2.259   5.118   4.368
26670SOL    HW281908   2.124   5.168   4.322
26671SOL     OW81909   9.335  11.129   6.224
26671SOL    HW181910   9.404  11.168   6.170
26671SOL    HW281911   9.287  11.204   6.260
26672SOL     OW81912  12.253   0.728  11.398
26672SOL    HW181913  12.246   0.772  11.314
26672SOL    HW281914  12.279   0.638  11.376
26673SOL     OW81915   3.234   1.425  12.480
26673SOL    HW181916   3.234   1.372  12.401
26673SOL    HW281917   3.144   1.458  12.488
26674SOL     OW81918   4.076   2.543   9.977
26674SOL    HW181919   4.136   2.586   9.916
26674SOL    HW281920   3.996   2.528   9.926
26675SOL     OW81921   3.202   1.246   3.029
26675SOL    HW181922   3.270   1.259   2.964
26675SOL    HW281923   3.144   1.323   3.020
26676SOL     OW81924   4.737  11.989   5.515
26676SOL    HW181925   4.762  12.081   5.522
26676SOL    HW281926   4.756  11.952   5.602
26677SOL     OW81927  14.159   7.693   2.870
26677SOL    HW181928  14.227   7.760   2.867
26677SOL    HW281929  14.107   7.708   2.790
26678SOL     OW81930  14.062   3.743   2.994
26678SOL    HW181931  14.074   3.659   3.039
26678SOL    HW281932  14.031   3.803   3.062
26679SOL     OW81933   6.571  14.328  12.693
26679SOL    HW181934   6.587  14.271  12.617
26679SOL    HW281935   6.653  14.325  12.742
26680SOL     OW81936   6.148  13.664   0.658
26680SOL    HW181937   6.232  13.700   0.686
26680SOL    HW281938   6.170  13.579   0.619
26681SOL     OW81939  14.016   3.337   0.157
26681SOL    HW181940  13.959   3.281   0.210
26681SOL    HW281941  13.997   3.314   0.067
26682SOL     OW81942   9.947   2.946   8.832
26682SOL    HW181943   9.906   2.889   8.767
26682SOL    HW281944  10.003   2.888   8.883
26683SOL     OW81945  13.301  10.022  10.882
26683SOL    HW181946  13.311   9.986  10.971
26683SOL    HW281947  13.370  10.087  10.875
26684SOL     OW81948  11.479   8.010   8.012
26684SOL    HW181949  11.561   7.989   8.056
26684SOL    HW281950  11.467   7.938   7.950
26685SOL     OW81951   8.905   1.700  12.042
26685SOL    HW181952   8.826   1.649  12.060
26685SOL    HW281953   8.909   1.764  12.112
26686SOL     OW81954   1.276  12.095   9.803
26686SOL    HW181955   1.190  12.131   9.823
26686SOL    HW281956   1.269  12.002   9.828
26687SOL     OW81957   1.886  13.211   4.140
26687SOL    HW181958   1.851  13.213   4.229
26687SOL    HW281959   1.846  13.134   4.100
26688SOL     OW81960   7.713   8.041   1.448
26688SOL    HW181961   7.740   7.985   1.375
26688SOL    HW281962   7.790   8.095   1.467
26689SOL     OW81963   9.842   9.528   6.960
26689SOL    HW181964   9.866   9.435   6.953
26689SOL    HW281965   9.765   9.537   6.904
26690SOL     OW81966   2.572   6.028   7.200
26690SOL    HW181967   2.660   5.989   7.200
26690SOL    HW281968   2.559   6.057   7.290
26691SOL     OW81969   6.649   6.234   1.063
26691SOL    HW181970   6.627   6.186   0.983
26691SOL    HW281971   6.644   6.326   1.038
26692SOL     OW81972   3.119   5.918  14.741
26692SOL    HW181973   3.074   5.844  14.702
26692SOL    HW281974   3.207   5.916  14.703
26693SOL     OW81975  13.457  11.559   5.813
26693SOL    HW181976  13.363  11.563   5.794
26693SOL    HW281977  13.487  11.479   5.770
26694SOL     OW81978  12.533   7.361   1.379
26694SOL    HW181979  12.519   7.300   1.451
26694SOL    HW281980  12.625   7.387   1.387
26695SOL     OW81981  13.517  10.055   1.024
26695SOL    HW181982  13.582  10.053   1.094
26695SOL    HW281983  13.440  10.014   1.063
26696SOL     OW81984   3.871   7.074  10.590
26696SOL    HW181985   3.903   7.153  10.547
26696SOL    HW281986   3.947   7.017  10.596
26697SOL     OW81987  14.553   5.840  14.375
26697SOL    HW181988  14.476   5.834  14.320
26697SOL    HW281989  14.627   5.827  14.316
26698SOL     OW81990  12.458   8.934   4.388
26698SOL    HW181991  12.372   8.927   4.429
26698SOL    HW281992  12.440   8.945   4.295
26699SOL     OW81993  10.719  13.978  11.599
26699SOL    HW181994  10.728  14.073  11.610
26699SOL    HW281995  10.766  13.959  11.518
26700SOL     OW81996   3.156   7.176   4.215
26700SOL    HW181997   3.082   7.148   4.161
26700SOL    HW281998   3.233   7.149   4.165
26701SOL     OW81999   7.160   4.402  11.879
26701SOL    HW182000   7.076   4.367  11.849
26701SOL    HW282001   7.171   4.366  11.967
26702SOL     OW82002  12.887   9.853   7.245
26702SOL    HW182003  12.796   9.873   7.266
26702SOL    HW282004  12.933   9.936   7.262
26703SOL     OW82005  10.197   1.333  14.545
26703SOL    HW182006  10.158   1.250  14.574
26703SOL    HW282007  10.201   1.386  14.624
26704SOL     OW82008  12.561  10.138   7.298
26704SOL    HW182009  12.520  10.139   7.212
26704SOL    HW282010  12.654  10.152   7.282
26705SOL     OW82011   6.730   8.235   4.120
26705SOL    HW182012   6.710   8.188   4.039
26705SOL    HW282013   6.743   8.326   4.092
26706SOL     OW82014   3.226  12.293   9.418
26706SOL    HW182015   3.275  12.314   9.497
26706SOL    HW282016   3.286  12.315   9.346
26707SOL     OW82017   7.503  11.512   7.432
26707SOL    HW182018   7.410  11.493   7.419
26707SOL    HW282019   7.514  11.601   7.400
26708SOL     OW82020   8.250   5.584   3.840
26708SOL    HW182021   8.245   5.558   3.748
26708SOL    HW282022   8.166   5.557   3.877
26709SOL     OW82023  12.504  14.265   5.842
26709SOL    HW182024  12.567  14.195   5.824
26709SOL    HW282025  12.551  14.346   5.825
26710SOL     OW82026   8.895  13.456   3.351
26710SOL    HW182027   8.882  13.410   3.434
26710SOL    HW282028   8.950  13.398   3.299
26711SOL     OW82029   4.419   6.199   8.035
26711SOL    HW182030   4.485   6.158   8.090
26711SOL    HW282031   4.464   6.216   7.952
26712SOL     OW82032  13.697   9.803  14.824
26712SOL    HW182033  13.785   9.774  14.850
26712SOL    HW282034  13.684   9.764  14.738
26713SOL     OW82035   9.666   9.401   8.734
26713SOL    HW182036   9.617   9.328   8.697
26713SOL    HW282037   9.627   9.414   8.821
26714SOL     OW82038   9.604   7.441   2.984
26714SOL    HW182039   9.662   7.508   3.021
26714SOL    HW282040   9.548   7.414   3.057
26715SOL     OW82041   0.163  13.911  14.192
26715SOL    HW182042   0.142  13.929  14.284
26715SOL    HW282043   0.254  13.941  14.183
26716SOL     OW82044   5.159  11.393   8.923
26716SOL    HW182045   5.099  11.329   8.885
26716SOL    HW282046   5.107  11.472   8.933
26717SOL     OW82047   1.012   1.868   5.679
26717SOL    HW182048   1.103   1.892   5.661
26717SOL    HW282049   1.020   1.795   5.741
26718SOL     OW82050  14.848  13.045   7.928
26718SOL    HW182051  14.874  13.116   7.869
26718SOL    HW282052  14.785  12.993   7.879
26719SOL     OW82053   9.598  11.674   8.239
26719SOL    HW182054   9.508  11.696   8.212
26719SOL    HW282055   9.639  11.759   8.257
26720SOL     OW82056   9.873  13.118   8.278
26720SOL    HW182057   9.792  13.165   8.298
26720SOL    HW282058   9.942  13.182   8.291
26721SOL     OW82059  13.523  13.172  11.282
26721SOL    HW182060  13.566  13.110  11.223
26721SOL    HW282061  13.430  13.152  11.275
26722SOL     OW82062  10.133   0.546   6.315
26722SOL    HW182063  10.097   0.608   6.378
26722SOL    HW282064  10.227   0.546   6.332
26723SOL     OW82065   0.728   3.569   3.702
26723SOL    HW182066   0.802   3.521   3.739
26723SOL    HW282067   0.652   3.540   3.753
26724SOL     OW82068  14.605   8.103   5.670
26724SOL    HW182069  14.695   8.072   5.674
26724SOL    HW282070  14.605   8.171   5.604
26725SOL     OW82071   2.387   1.345  13.008
26725SOL    HW182072   2.432   1.426  13.032
26725SOL    HW282073   2.334   1.368  12.933
26726SOL     OW82074   7.301   1.715  13.276
26726SOL    HW182075   7.356   1.671  13.340
26726SOL    HW282076   7.306   1.660  13.198
26727SOL     OW82077  12.487   5.181  14.586
26727SOL    HW182078  12.562   5.136  14.546
26727SOL    HW282079  12.512   5.274  14.585
26728SOL     OW82080  14.690   0.066   5.444
26728SOL    HW182081  14.671  14.878   5.388
26728SOL    HW282082  14.777   0.096   5.416
26729SOL     OW82083   3.110   7.651   7.369
26729SOL    HW182084   3.024   7.611   7.363
26729SOL    HW282085   3.094   7.738   7.406
26730SOL     OW82086   9.526   0.785  10.567
26730SOL    HW182087   9.562   0.773  10.479
26730SOL    HW282088   9.563   0.713  10.618
26731SOL     OW82089  12.538   6.782   7.652
26731SOL    HW182090  12.567   6.801   7.563
26731SOL    HW282091  12.590   6.705   7.678
26732SOL     OW82092  10.747  13.307   7.686
26732SOL    HW182093  10.731  13.213   7.687
26732SOL    HW282094  10.842  13.315   7.688
26733SOL     OW82095   0.547   2.272   8.505
26733SOL    HW182096   0.511   2.184   8.503
26733SOL    HW282097   0.601   2.275   8.583
26734SOL     OW82098   4.167  11.335   1.750
26734SOL    HW182099   4.223  11.336   1.827
26734SOL    HW282100   4.227  11.317   1.677
26735SOL     OW82101   9.651   9.466   4.415
26735SOL    HW182102   9.708   9.449   4.341
26735SOL    HW282103   9.584   9.398   4.410
26736SOL     OW82104   0.716   5.059   3.161
26736SOL    HW182105   0.628   5.096   3.158
26736SOL    HW282106   0.743   5.055   3.069
26737SOL     OW82107   7.294  10.570   1.054
26737SOL    HW182108   7.214  10.522   1.030
26737SOL    HW282109   7.347  10.506   1.101
26738SOL     OW82110   4.153   7.385   1.085
26738SOL    HW182111   4.172   7.474   1.114
26738SOL    HW282112   4.165   7.388   0.990
26739SOL     OW82113  10.532   6.026   9.046
26739SOL    HW182114  10.459   6.084   9.067
26739SOL    HW282115  10.528   5.956   9.111
26740SOL     OW82116  11.406   3.568  11.445
26740SOL    HW182117  11.467   3.626  11.401
26740SOL    HW282118  11.458   3.492  11.470
26741SOL     OW82119   2.992  10.738  11.228
26741SOL    HW182120   2.920  10.768  11.284
26741SOL    HW282121   2.954  10.735  11.140
26742SOL     OW82122   1.300   5.617   1.382
26742SOL    HW182123   1.305   5.682   1.453
26742SOL    HW282124   1.358   5.546   1.411
26743SOL     OW82125   6.938   9.393   2.464
26743SOL    HW182126   6.977   9.458   2.522
26743SOL    HW282127   6.935   9.313   2.517
26744SOL     OW82128   8.021   8.839   7.372
26744SOL    HW182129   8.022   8.764   7.312
26744SOL    HW282130   8.091   8.822   7.434
26745SOL     OW82131  10.142   3.852   8.997
26745SOL    HW182132  10.129   3.769   8.950
26745SOL    HW282133  10.070   3.908   8.966
26746SOL     OW82134   1.041  10.632   1.457
26746SOL    HW182135   1.109  10.592   1.402
26746SOL    HW282136   0.977  10.666   1.395
26747SOL     OW82137   9.023   5.660   5.005
26747SOL    HW182138   9.030   5.753   4.985
26747SOL    HW282139   8.954   5.628   4.947
26748SOL     OW82140   6.653   7.453  11.072
26748SOL    HW182141   6.731   7.418  11.029
26748SOL    HW282142   6.637   7.392  11.145
26749SOL     OW82143   0.722  13.742   9.016
26749SOL    HW182144   0.808  13.766   9.050
26749SOL    HW282145   0.704  13.656   9.056
26750SOL     OW82146  14.873  11.957   7.832
26750SOL    HW182147   0.025  11.876   7.863
26750SOL    HW282148  14.882  12.018   7.905
26751SOL     OW82149   1.795  12.460   8.315
26751SOL    HW182150   1.799  12.459   8.411
26751SOL    HW282151   1.713  12.415   8.294
26752SOL     OW82152   9.750  13.736   8.015
26752SOL    HW182153   9.670  13.689   8.037
26752SOL    HW282154   9.758  13.804   8.082
26753SOL     OW82155   3.395   1.693   0.872
26753SOL    HW182156   3.410   1.662   0.961
26753SOL    HW282157   3.479   1.731   0.845
26754SOL     OW82158   9.641  10.053  12.628
26754SOL    HW182159   9.679   9.999  12.697
26754SOL    HW282160   9.651  10.001  12.549
26755SOL     OW82161   7.837   0.428   2.374
26755SOL    HW182162   7.757   0.404   2.421
26755SOL    HW282163   7.889   0.348   2.373
26756SOL     OW82164   3.099  13.418  13.143
26756SOL    HW182165   3.046  13.394  13.218
26756SOL    HW282166   3.054  13.494  13.105
26757SOL     OW82167   7.979   2.507  14.504
26757SOL    HW182168   7.899   2.455  14.516
26757SOL    HW282169   7.969   2.545  14.416
26758SOL     OW82170  13.020  11.860   4.735
26758SOL    HW182171  13.056  11.780   4.773
26758SOL    HW282172  12.937  11.832   4.696
26759SOL     OW82173   9.386  12.420   6.347
26759SOL    HW182174   9.469  12.378   6.323
26759SOL    HW282175   9.412  12.498   6.396
26760SOL     OW82176   1.674  10.173   7.225
26760SOL    HW182177   1.621  10.245   7.260
26760SOL    HW282178   1.647  10.166   7.134
26761SOL     OW82179  13.951   6.787   9.417
26761SOL    HW182180  13.918   6.698   9.430
26761SOL    HW282181  13.896   6.842   9.473
26762SOL     OW82182   6.512   2.209   8.012
26762SOL    HW182183   6.539   2.163   7.932
26762SOL    HW282184   6.594   2.221   8.061
26763SOL     OW82185   8.337  12.275   1.473
26763SOL    HW182186   8.384  12.192   1.470
26763SOL    HW282187   8.318  12.289   1.566
26764SOL     OW82188   9.097  13.382   7.167
26764SOL    HW182189   9.061  13.387   7.078
26764SOL    HW282190   9.103  13.288   7.185
26765SOL     OW82191   4.908   7.083   8.265
26765SOL    HW182192   4.982   7.036   8.302
26765SOL    HW282193   4.869   7.128   8.340
26766SOL     OW82194   9.476   9.069  12.139
26766SOL    HW182195   9.443   9.132  12.074
26766SOL    HW282196   9.464   8.983  12.097
26767SOL     OW82197   3.618  11.662   5.481
26767SOL    HW182198   3.624  11.697   5.570
26767SOL    HW282199   3.628  11.568   5.491
26768SOL     OW82200   9.631  12.103   7.387
26768SOL    HW182201   9.591  12.021   7.359
26768SOL    HW282202   9.642  12.153   7.307
26769SOL     OW82203   1.284   8.333  11.927
26769SOL    HW182204   1.223   8.305  11.995
26769SOL    HW282205   1.302   8.253  11.876
26770SOL     OW82206  12.468   6.242   9.802
26770SOL    HW182207  12.509   6.327   9.823
26770SOL    HW282208  12.471   6.194   9.885
26771SOL     OW82209   9.380   4.582   3.773
26771SOL    HW182210   9.346   4.505   3.819
26771SOL    HW282211   9.327   4.655   3.807
26772SOL     OW82212  10.786   2.570  13.117
26772SOL    HW182213  10.714   2.599  13.173
26772SOL    HW282214  10.862   2.564  13.176
26773SOL     OW82215   4.873   9.831   7.327
26773SOL    HW182216   4.949   9.877   7.292
26773SOL    HW282217   4.826   9.799   7.250
26774SOL     OW82218  10.364  11.015   6.699
26774SOL    HW182219  10.285  10.962   6.686
26774SOL    HW282220  10.331  11.105   6.703
26775SOL     OW82221   4.693  13.582  12.469
26775SOL    HW182222   4.788  13.578  12.461
26775SOL    HW282223   4.667  13.495  12.498
26776SOL     OW82224   8.819   3.266   3.185
26776SOL    HW182225   8.806   3.294   3.095
26776SOL    HW282226   8.805   3.346   3.237
26777SOL     OW82227  12.065   8.205   4.137
26777SOL    HW182228  12.002   8.213   4.208
26777SOL    HW282229  12.142   8.163   4.176
26778SOL     OW82230  10.054   7.161   1.307
26778SOL    HW182231  10.013   7.231   1.256
26778SOL    HW282232  10.029   7.180   1.397
26779SOL     OW82233   1.402   4.595   8.469
26779SOL    HW182234   1.323   4.557   8.507
26779SOL    HW282235   1.456   4.520   8.444
26780SOL     OW82236   0.757  12.848   8.550
26780SOL    HW182237   0.846  12.868   8.519
26780SOL    HW282238   0.771  12.786   8.622
26781SOL     OW82239   3.332   3.794   0.095
26781SOL    HW182240   3.302   3.841   0.017
26781SOL    HW282241   3.427   3.807   0.095
26782SOL     OW82242   6.333  13.256   9.188
26782SOL    HW182243   6.357  13.168   9.215
26782SOL    HW282244   6.384  13.272   9.109
26783SOL     OW82245  12.821  10.728   7.392
26783SOL    HW182246  12.912  10.712   7.419
26783SOL    HW282247  12.828  10.790   7.319
26784SOL     OW82248   3.881   4.768   5.486
26784SOL    HW182249   3.808   4.785   5.545
26784SOL    HW282250   3.945   4.721   5.539
26785SOL     OW82251   3.698   0.129   1.832
26785SOL    HW182252   3.629   0.194   1.844
26785SOL    HW282253   3.767   0.155   1.893
26786SOL     OW82254  12.633   7.052   7.826
26786SOL    HW182255  12.649   6.959   7.810
26786SOL    HW282256  12.548   7.069   7.786
26787SOL     OW82257   6.434  10.356  13.089
26787SOL    HW182258   6.467  10.445  13.090
26787SOL    HW282259   6.452  10.325  13.000
26788SOL     OW82260  10.373  12.856   6.842
26788SOL    HW182261  10.464  12.837   6.819
26788SOL    HW282262  10.347  12.927   6.784
26789SOL     OW82263  14.102  14.622   3.309
26789SOL    HW182264  14.107  14.715   3.289
26789SOL    HW282265  14.136  14.614   3.398
26790SOL     OW82266   3.160   7.947  11.128
26790SOL    HW182267   3.124   8.034  11.115
26790SOL    HW282268   3.217   7.933  11.052
26791SOL     OW82269  12.238  13.993   6.856
26791SOL    HW182270  12.199  13.940   6.926
26791SOL    HW282271  12.174  14.063   6.841
26792SOL     OW82272  11.634   4.043   5.280
26792SOL    HW182273  11.700   4.078   5.340
26792SOL    HW282274  11.665   4.068   5.193
26793SOL     OW82275   1.442  14.642   4.885
26793SOL    HW182276   1.521  14.647   4.831
26793SOL    HW282277   1.442  14.552   4.919
26794SOL     OW82278   7.822   9.031   2.329
26794SOL    HW182279   7.854   9.078   2.252
26794SOL    HW282280   7.828   8.938   2.305
26795SOL     OW82281   0.317  14.824   6.952
26795SOL    HW182282   0.392  14.853   6.900
26795SOL    HW282283   0.319  14.878   7.030
26796SOL     OW82284   4.553   6.585  10.152
26796SOL    HW182285   4.646   6.586  10.172
26796SOL    HW282286   4.522   6.499  10.182
26797SOL     OW82287   7.347   2.413   7.399
26797SOL    HW182288   7.289   2.449   7.465
26797SOL    HW282289   7.435   2.437   7.428
26798SOL     OW82290   1.102   7.164   7.254
26798SOL    HW182291   1.190   7.128   7.239
26798SOL    HW282292   1.118   7.255   7.281
26799SOL     OW82293   0.143   5.641  11.751
26799SOL    HW182294   0.141   5.730  11.718
26799SOL    HW282295   0.134   5.651  11.846
26800SOL     OW82296  13.402   7.505   4.969
26800SOL    HW182297  13.455   7.431   4.939
26800SOL    HW282298  13.434   7.523   5.058
26801SOL     OW82299   9.809  14.408   9.816
26801SOL    HW182300   9.727  14.443   9.783
26801SOL    HW282301   9.852  14.482   9.858
26802SOL     OW82302   8.570  13.938   8.579
26802SOL    HW182303   8.485  13.895   8.588
26802SOL    HW282304   8.555  14.007   8.515
26803SOL     OW82305  13.575   6.217   5.238
26803SOL    HW182306  13.518   6.178   5.304
26803SOL    HW282307  13.533   6.197   5.155
26804SOL     OW82308   0.167   2.615   2.943
26804SOL    HW182309   0.073   2.625   2.928
26804SOL    HW282310   0.206   2.691   2.902
26805SOL     OW82311   0.265   5.292  14.019
26805SOL    HW182312   0.301   5.217  14.067
26805SOL    HW282313   0.170   5.282  14.026
26806SOL     OW82314  12.750   7.190   7.557
26806SOL    HW182315  12.774   7.152   7.641
26806SOL    HW282316  12.654   7.190   7.557
26807SOL     OW82317   4.974   6.425   4.898
26807SOL    HW182318   5.054   6.385   4.934
26807SOL    HW282319   4.918   6.351   4.878
26808SOL     OW82320   3.098   1.407   7.797
26808SOL    HW182321   3.115   1.416   7.891
26808SOL    HW282322   3.029   1.470   7.779
26809SOL     OW82323   1.427   2.898   6.664
26809SOL    HW182324   1.389   2.963   6.605
26809SOL    HW282325   1.465   2.832   6.607
26810SOL     OW82326  10.913   2.101   8.201
26810SOL    HW182327  10.918   2.173   8.138
26810SOL    HW282328  10.838   2.122   8.256
26811SOL     OW82329   8.776   0.921  13.360
26811SOL    HW182330   8.723   0.917  13.439
26811SOL    HW282331   8.713   0.911  13.288
26812SOL     OW82332   8.590   2.043  12.759
26812SOL    HW182333   8.668   1.997  12.792
26812SOL    HW282334   8.605   2.134  12.782
26813SOL     OW82335  13.653   3.568   8.587
26813SOL    HW182336  13.663   3.514   8.665
26813SOL    HW282337  13.633   3.655   8.619
26814SOL     OW82338  14.517   4.197   3.124
26814SOL    HW182339  14.483   4.108   3.114
26814SOL    HW282340  14.602   4.196   3.080
26815SOL     OW82341  13.111   2.848   0.554
26815SOL    HW182342  13.030   2.830   0.506
26815SOL    HW282343  13.176   2.790   0.514
26816SOL     OW82344   1.438  10.559  11.908
26816SOL    HW182345   1.499  10.547  11.981
26816SOL    HW282346   1.493  10.565  11.830
26817SOL     OW82347   1.187  13.541   9.949
26817SOL    HW182348   1.271  13.495   9.940
26817SOL    HW282349   1.133  13.504   9.880
26818SOL     OW82350   5.341   3.853   5.924
26818SOL    HW182351   5.360   3.938   5.964
26818SOL    HW282352   5.276   3.872   5.856
26819SOL     OW82353   4.431  14.283  11.549
26819SOL    HW182354   4.516  14.280  11.594
26819SOL    HW282355   4.403  14.374  11.557
26820SOL     OW82356   7.304   7.198   9.595
26820SOL    HW182357   7.248   7.139   9.545
26820SOL    HW282358   7.254   7.216   9.675
26821SOL     OW82359   2.947   3.249   4.157
26821SOL    HW182360   2.896   3.327   4.135
26821SOL    HW282361   2.961   3.255   4.252
26822SOL     OW82362  10.203  10.797   5.169
26822SOL    HW182363  10.121  10.838   5.142
26822SOL    HW282364  10.189  10.774   5.261
26823SOL     OW82365  10.387  14.589  11.211
26823SOL    HW182366  10.307  14.579  11.262
26823SOL    HW282367  10.420  14.675  11.236
26824SOL     OW82368  12.440   0.717   5.860
26824SOL    HW182369  12.450   0.713   5.955
26824SOL    HW282370  12.381   0.791   5.845
26825SOL     OW82371   8.866   1.667   3.979
26825SOL    HW182372   8.865   1.739   3.916
26825SOL    HW282373   8.799   1.691   4.044
26826SOL     OW82374  12.296  10.052   8.132
26826SOL    HW182375  12.296  10.147   8.143
26826SOL    HW282376  12.384  10.032   8.098
26827SOL     OW82377   6.150  10.160   9.774
26827SOL    HW182378   6.069  10.203   9.803
26827SOL    HW282379   6.200  10.230   9.733
26828SOL     OW82380   1.024   3.647  13.122
26828SOL    HW182381   0.999   3.691  13.204
26828SOL    HW282382   1.113   3.676  13.106
26829SOL     OW82383   2.748  13.066  13.450
26829SOL    HW182384   2.833  13.058  13.493
26829SOL    HW282385   2.714  13.151  13.479
26830SOL     OW82386  13.631   4.944   8.830
26830SOL    HW182387  13.717   4.904   8.821
26830SOL    HW282388  13.648   5.031   8.866
26831SOL     OW82389  13.644   4.024   4.862
26831SOL    HW182390  13.729   3.987   4.888
26831SOL    HW282391  13.663   4.070   4.780
26832SOL     OW82392   5.427   4.904   1.055
26832SOL    HW182393   5.481   4.981   1.073
26832SOL    HW282394   5.467   4.864   0.978
26833SOL     OW82395   4.618   6.443   4.446
26833SOL    HW182396   4.544   6.400   4.489
26833SOL    HW282397   4.692   6.425   4.504
26834SOL     OW82398   9.547   0.210   3.444
26834SOL    HW182399   9.635   0.227   3.480
26834SOL    HW282400   9.494   0.283   3.474
26835SOL     OW82401   9.846   2.772   8.633
26835SOL    HW182402   9.912   2.717   8.592
26835SOL    HW282403   9.784   2.794   8.563
26836SOL     OW82404   5.504  12.574  13.601
26836SOL    HW182405   5.450  12.607  13.673
26836SOL    HW282406   5.502  12.644  13.536
26837SOL     OW82407   0.870   9.149  11.026
26837SOL    HW182408   0.897   9.083  10.963
26837SOL    HW282409   0.827   9.100  11.096
26838SOL     OW82410  14.008  12.771   1.984
26838SOL    HW182411  14.085  12.828   1.985
26838SOL    HW282412  14.006  12.734   1.895
26839SOL     OW82413   5.897   0.560  11.196
26839SOL    HW182414   5.801   0.561  11.194
26839SOL    HW282415   5.919   0.546  11.288
26840SOL     OW82416   7.432   9.062   1.776
26840SOL    HW182417   7.465   9.065   1.865
26840SOL    HW282418   7.425   9.153   1.750
26841SOL     OW82419   8.783   9.293  10.092
26841SOL    HW182420   8.788   9.359  10.023
26841SOL    HW282421   8.813   9.339  10.171
26842SOL     OW82422  14.436  14.534   9.232
26842SOL    HW182423  14.383  14.596   9.182
26842SOL    HW282424  14.504  14.506   9.171
26843SOL     OW82425  10.347   9.995  10.617
26843SOL    HW182426  10.391  10.079  10.629
26843SOL    HW282427  10.415   9.930  10.632
26844SOL     OW82428   2.248   7.316   4.492
26844SOL    HW182429   2.322   7.261   4.466
26844SOL    HW282430   2.275   7.405   4.471
26845SOL     OW82431  14.782   5.913  13.473
26845SOL    HW182432  14.697   5.927  13.515
26845SOL    HW282433  14.835   5.987  13.503
26846SOL     OW82434   9.184  10.842   5.695
26846SOL    HW182435   9.163  10.933   5.713
26846SOL    HW282436   9.196  10.802   5.782
26847SOL     OW82437   6.371   6.824   5.759
26847SOL    HW182438   6.288   6.796   5.722
26847SOL    HW282439   6.363   6.809   5.853
26848SOL     OW82440  13.593  13.523   6.050
26848SOL    HW182441  13.583  13.604   6.100
26848SOL    HW282442  13.666  13.541   5.990
26849SOL     OW82443   0.815  12.391  12.265
26849SOL    HW182444   0.818  12.386  12.169
26849SOL    HW282445   0.874  12.462  12.287
26850SOL     OW82446   5.077   6.394   2.878
26850SOL    HW182447   5.072   6.490   2.872
26850SOL    HW282448   5.010   6.363   2.817
26851SOL     OW82449  13.657   7.697   8.887
26851SOL    HW182450  13.582   7.756   8.880
26851SOL    HW282451  13.733   7.752   8.868
26852SOL     OW82452   9.213   6.898  13.749
26852SOL    HW182453   9.184   6.982  13.786
26852SOL    HW282454   9.294   6.878  13.796
26853SOL     OW82455   3.559   3.225   8.345
26853SOL    HW182456   3.541   3.153   8.284
26853SOL    HW282457   3.648   3.251   8.324
26854SOL     OW82458   8.791   5.068   9.378
26854SOL    HW182459   8.762   5.145   9.426
26854SOL    HW282460   8.712   5.034   9.337
26855SOL     OW82461   3.806  11.313   0.256
26855SOL    HW182462   3.735  11.257   0.226
26855SOL    HW282463   3.765  11.398   0.272
26856SOL     OW82464  10.812   9.330  11.651
26856SOL    HW182465  10.827   9.329  11.746
26856SOL    HW282466  10.900   9.337  11.613
26857SOL     OW82467   4.714  10.199   7.828
26857SOL    HW182468   4.713  10.154   7.913
26857SOL    HW282469   4.804  10.187   7.796
26858SOL     OW82470  11.556   0.565   1.769
26858SOL    HW182471  11.607   0.622   1.713
26858SOL    HW282472  11.465   0.577   1.740
26859SOL     OW82473  12.684   3.091   8.067
26859SOL    HW182474  12.610   3.077   8.009
26859SOL    HW282475  12.728   3.169   8.032
26860SOL     OW82476   9.892   9.739  11.407
26860SOL    HW182477   9.927   9.783  11.330
26860SOL    HW282478   9.943   9.774  11.480
26861SOL     OW82479  13.132   5.736  11.724
26861SOL    HW182480  13.223   5.763  11.741
26861SOL    HW282481  13.092   5.731  11.810
26862SOL     OW82482   3.512  14.059  11.890
26862SOL    HW182483   3.555  14.099  11.814
26862SOL    HW282484   3.533  14.118  11.963
26863SOL     OW82485   5.227   8.762  10.418
26863SOL    HW182486   5.250   8.797  10.332
26863SOL    HW282487   5.309   8.761  10.466
26864SOL     OW82488   7.987  10.491  12.412
26864SOL    HW182489   7.967  10.455  12.499
26864SOL    HW282490   7.949  10.579  12.414
26865SOL     OW82491  14.831   1.277   5.913
26865SOL    HW182492  14.822   1.182   5.923
26865SOL    HW282493  14.857   1.308   6.000
26866SOL     OW82494  12.208  10.293   0.788
26866SOL    HW182495  12.129  10.313   0.837
26866SOL    HW282496  12.250  10.378   0.773
26867SOL     OW82497   0.548  13.566   9.266
26867SOL    HW182498   0.468  13.555   9.316
26867SOL    HW282499   0.580  13.653   9.289
26868SOL     OW82500  12.370   9.878  10.058
26868SOL    HW182501  12.404   9.840  10.139
26868SOL    HW282502  12.447   9.886  10.001
26869SOL     OW82503   6.665  13.128  13.768
26869SOL    HW182504   6.664  13.205  13.825
26869SOL    HW282505   6.575  13.096  13.768
26870SOL     OW82506   8.145   1.028  10.810
26870SOL    HW182507   8.169   1.035  10.718
26870SOL    HW282508   8.050   1.020  10.810
26871SOL     OW82509  14.653  13.949   6.827
26871SOL    HW182510  14.564  13.927   6.801
26871SOL    HW282511  14.700  13.865   6.824
26872SOL     OW82512  10.698   1.336   4.229
26872SOL    HW182513  10.681   1.381   4.312
26872SOL    HW282514  10.613   1.333   4.186
26873SOL     OW82515  12.158   0.179   8.750
26873SOL    HW182516  12.203   0.101   8.782
26873SOL    HW282517  12.066   0.153   8.745
26874SOL     OW82518   3.101   1.150   5.064
26874SOL    HW182519   3.027   1.183   5.116
26874SOL    HW282520   3.157   1.106   5.128
26875SOL     OW82521   7.934   6.157   5.666
26875SOL    HW182522   7.998   6.227   5.655
26875SOL    HW282523   7.986   6.076   5.658
26876SOL     OW82524   1.405   5.031   4.637
26876SOL    HW182525   1.388   4.954   4.582
26876SOL    HW282526   1.409   4.997   4.726
26877SOL     OW82527   6.776   3.634   4.952
26877SOL    HW182528   6.780   3.539   4.957
26877SOL    HW282529   6.778   3.653   4.858
26878SOL     OW82530  13.452   1.037   7.816
26878SOL    HW182531  13.493   1.073   7.738
26878SOL    HW282532  13.359   1.061   7.808
26879SOL     OW82533   6.388   7.866   2.848
26879SOL    HW182534   6.325   7.884   2.778
26879SOL    HW282535   6.459   7.818   2.805
26880SOL     OW82536   1.147   4.567   7.390
26880SOL    HW182537   1.168   4.529   7.475
26880SOL    HW282538   1.182   4.506   7.326
26881SOL     OW82539   6.153   0.058   8.298
26881SOL    HW182540   6.195  14.882   8.239
26881SOL    HW282541   6.224   0.115   8.327
26882SOL     OW82542   7.815  14.870   2.510
26882SOL    HW182543   7.770   0.012   2.431
26882SOL    HW282544   7.907  14.859   2.483
26883SOL     OW82545   7.693  10.030  10.703
26883SOL    HW182546   7.646  10.034  10.787
26883SOL    HW282547   7.742  10.112  10.699
26884SOL     OW82548   4.392   8.457   9.694
26884SOL    HW182549   4.429   8.394   9.632
26884SOL    HW282550   4.329   8.508   9.643
26885SOL     OW82551  11.826   1.190   0.835
26885SOL    HW182552  11.921   1.175   0.838
26885SOL    HW282553  11.816   1.284   0.849
26886SOL     OW82554   2.174   2.886   3.335
26886SOL    HW182555   2.148   2.817   3.396
26886SOL    HW282556   2.236   2.940   3.384
26887SOL     OW82557   4.698   4.018   7.712
26887SOL    HW182558   4.697   4.036   7.806
26887SOL    HW282559   4.628   3.954   7.699
26888SOL     OW82560   4.943   3.226  13.663
26888SOL    HW182561   4.878   3.162  13.691
26888SOL    HW282562   4.975   3.193  13.579
26889SOL     OW82563   3.133   2.862   3.324
26889SOL    HW182564   3.137   2.849   3.229
26889SOL    HW282565   3.090   2.946   3.335
26890SOL     OW82566   5.810   7.359  12.654
26890SOL    HW182567   5.851   7.325  12.574
26890SOL    HW282568   5.733   7.406  12.623
26891SOL     OW82569   0.484   3.798   2.037
26891SOL    HW182570   0.460   3.833   2.123
26891SOL    HW282571   0.447   3.860   1.975
26892SOL     OW82572   8.920   2.009   3.415
26892SOL    HW182573   8.996   1.976   3.464
26892SOL    HW282574   8.952   2.089   3.372
26893SOL     OW82575  14.883   9.785  14.761
26893SOL    HW182576   0.069   9.842  14.782
26893SOL    HW282577  14.820   9.798  14.833
26894SOL     OW82578   6.586  14.091   7.022
26894SOL    HW182579   6.648  14.066   7.092
26894SOL    HW282580   6.503  14.052   7.049
26895SOL     OW82581   7.911   4.057   3.843
26895SOL    HW182582   7.896   4.132   3.900
26895SOL    HW282583   7.868   4.080   3.761
26896SOL     OW82584   9.743   9.379   1.082
26896SOL    HW182585   9.751   9.341   1.169
26896SOL    HW282586   9.692   9.315   1.032
26897SOL     OW82587   7.286  12.390   7.599
26897SOL    HW182588   7.306  12.479   7.569
26897SOL    HW282589   7.195  12.394   7.627
26898SOL     OW82590   5.560  12.394   3.286
26898SOL    HW182591   5.501  12.362   3.217
26898SOL    HW282592   5.502  12.432   3.351
26899SOL     OW82593   4.568   5.651  11.151
26899SOL    HW182594   4.584   5.745  11.143
26899SOL    HW282595   4.651   5.610  11.128
26900SOL     OW82596  11.178   6.113   5.343
26900SOL    HW182597  11.103   6.126   5.284
26900SOL    HW282598  11.172   6.186   5.405
26901SOL     OW82599   6.493   1.277   9.241
26901SOL    HW182600   6.568   1.285   9.183
26901SOL    HW282601   6.531   1.274   9.329
26902SOL     OW82602   4.145   4.878   9.109
26902SOL    HW182603   4.169   4.945   9.045
26902SOL    HW282604   4.189   4.905   9.189
26903SOL     OW82605   4.579  12.679   1.140
26903SOL    HW182606   4.625  12.595   1.145
26903SOL    HW282607   4.489  12.656   1.117
26904SOL     OW82608   7.309  13.743  14.147
26904SOL    HW182609   7.260  13.758  14.228
26904SOL    HW282610   7.381  13.686  14.172
26905SOL     OW82611   2.290  10.756   3.177
26905SOL    HW182612   2.346  10.833   3.175
26905SOL    HW282613   2.218  10.781   3.236
26906SOL     OW82614  10.119   3.712  13.446
26906SOL    HW182615  10.055   3.652  13.409
26906SOL    HW282616  10.152   3.666  13.524
26907SOL     OW82617  12.354  11.093   3.149
26907SOL    HW182618  12.431  11.054   3.191
26907SOL    HW282619  12.304  11.017   3.117
26908SOL     OW82620   8.159  11.495  12.000
26908SOL    HW182621   8.171  11.406  12.033
26908SOL    HW282622   8.070  11.518  12.025
26909SOL     OW82623   7.067  12.026   6.155
26909SOL    HW182624   7.127  12.021   6.229
26909SOL    HW282625   7.119  11.999   6.079
26910SOL     OW82626   4.717   1.938   5.315
26910SOL    HW182627   4.687   2.024   5.284
26910SOL    HW282628   4.693   1.937   5.408
26911SOL     OW82629   1.731   9.396  10.366
26911SOL    HW182630   1.655   9.453  10.349
26911SOL    HW282631   1.694   9.323  10.416
26912SOL     OW82632   2.494  11.145   2.859
26912SOL    HW182633   2.489  11.211   2.928
26912SOL    HW282634   2.405  11.139   2.824
26913SOL     OW82635   1.936   3.593   3.317
26913SOL    HW182636   1.890   3.621   3.396
26913SOL    HW282637   1.976   3.673   3.283
26914SOL     OW82638  14.490  10.902   2.319
26914SOL    HW182639  14.404  10.863   2.334
26914SOL    HW282640  14.481  10.993   2.350
26915SOL     OW82641  13.241   9.911   8.473
26915SOL    HW182642  13.216   9.985   8.417
26915SOL    HW282643  13.337   9.908   8.466
26916SOL     OW82644   5.603   5.080   1.339
26916SOL    HW182645   5.564   5.014   1.396
26916SOL    HW282646   5.529   5.125   1.299
26917SOL     OW82647  12.083  12.281  10.642
26917SOL    HW182648  12.082  12.271  10.737
26917SOL    HW282649  12.035  12.363  10.626
26918SOL     OW82650   0.483   0.686   1.224
26918SOL    HW182651   0.511   0.657   1.311
26918SOL    HW282652   0.475   0.781   1.231
26919SOL     OW82653   7.583   0.993  11.637
26919SOL    HW182654   7.678   0.986  11.634
26919SOL    HW282655   7.567   1.081  11.673
26920SOL     OW82656   1.297   6.398   5.712
26920SOL    HW182657   1.334   6.331   5.769
26920SOL    HW282658   1.352   6.475   5.726
26921SOL     OW82659   7.379   9.828   1.543
26921SOL    HW182660   7.447   9.795   1.485
26921SOL    HW282661   7.427   9.857   1.621
26922SOL     OW82662   9.534   1.426   6.333
26922SOL    HW182663   9.592   1.466   6.268
26922SOL    HW282664   9.471   1.377   6.281
26923SOL     OW82665   8.044   5.115  12.739
26923SOL    HW182666   8.139   5.105  12.737
26923SOL    HW282667   8.011   5.047  12.680
26924SOL     OW82668   7.187   0.007   3.261
26924SOL    HW182669   7.194   0.102   3.256
26924SOL    HW282670   7.107  14.874   3.212
26925SOL     OW82671   1.151   1.264   3.195
26925SOL    HW182672   1.071   1.316   3.192
26925SOL    HW282673   1.207   1.308   3.259
26926SOL     OW82674   3.691   1.580   1.607
26926SOL    HW182675   3.687   1.509   1.671
26926SOL    HW282676   3.784   1.586   1.584
26927SOL     OW82677   5.202   4.945   1.929
26927SOL    HW182678   5.165   4.937   2.017
26927SOL    HW282679   5.282   4.996   1.941
26928SOL     OW82680  12.693   9.921  14.627
26928SOL    HW182681  12.629   9.911  14.557
26928SOL    HW282682  12.717  10.013  14.624
26929SOL     OW82683   9.483  10.138   6.514
26929SOL    HW182684   9.410  10.077   6.523
26929SOL    HW282685   9.542  10.117   6.586
26930SOL     OW82686   2.161  11.182  10.410
26930SOL    HW182687   2.157  11.261  10.463
26930SOL    HW282688   2.127  11.209  10.324
26931SOL     OW82689  14.886   6.381  10.209
26931SOL    HW182690  14.837   6.461  10.189
26931SOL    HW282691  14.849   6.349  10.292
26932SOL     OW82692   4.407   9.750  14.602
26932SOL    HW182693   4.382   9.752  14.694
26932SOL    HW282694   4.356   9.679  14.564
26933SOL     OW82695  10.406   6.283  11.065
26933SOL    HW182696  10.409   6.317  11.154
26933SOL    HW282697  10.441   6.354  11.011
26934SOL     OW82698   4.238  13.849  11.507
26934SOL    HW182699   4.225  13.944  11.514
26934SOL    HW282700   4.334  13.839  11.504
26935SOL     OW82701   6.826   5.450   2.528
26935SOL    HW182702   6.896   5.510   2.555
26935SOL    HW282703   6.847   5.367   2.571
26936SOL     OW82704  14.223   1.901   5.710
26936SOL    HW182705  14.302   1.901   5.656
26936SOL    HW282706  14.192   1.992   5.705
26937SOL     OW82707  10.258   8.328  12.855
26937SOL    HW182708  10.269   8.310  12.762
26937SOL    HW282709  10.314   8.263  12.899
26938SOL     OW82710   4.373   0.158   6.206
26938SOL    HW182711   4.467   0.170   6.197
26938SOL    HW282712   4.356   0.175   6.299
26939SOL     OW82713   0.630  10.479   8.162
26939SOL    HW182714   0.540  10.512   8.154
26939SOL    HW282715   0.684  10.550   8.127
26940SOL     OW82716  12.866   3.994  12.683
26940SOL    HW182717  12.783   3.976  12.727
26940SOL    HW282718  12.932   3.952  12.736
26941SOL     OW82719   0.978   2.755   6.159
26941SOL    HW182720   0.986   2.673   6.110
26941SOL    HW282721   0.959   2.821   6.093
26942SOL     OW82722   6.094   3.855  11.405
26942SOL    HW182723   6.055   3.776  11.444
26942SOL    HW282724   6.029   3.885  11.342
26943SOL     OW82725   3.329   8.357  10.284
26943SOL    HW182726   3.360   8.402  10.363
26943SOL    HW282727   3.409   8.342  10.233
26944SOL     OW82728   9.394   2.169  10.112
26944SOL    HW182729   9.474   2.205  10.073
26944SOL    HW282730   9.324   2.193  10.051
26945SOL     OW82731  14.134  13.367  11.819
26945SOL    HW182732  14.225  13.352  11.790
26945SOL    HW282733  14.142  13.435  11.885
26946SOL     OW82734   6.892   5.784   1.595
26946SOL    HW182735   6.818   5.828   1.553
26946SOL    HW282736   6.856   5.744   1.674
26947SOL     OW82737   6.752   1.695  10.258
26947SOL    HW182738   6.775   1.771  10.204
26947SOL    HW282739   6.813   1.699  10.331
26948SOL     OW82740   8.226   5.396  12.809
26948SOL    HW182741   8.240   5.357  12.895
26948SOL    HW282742   8.253   5.328  12.747
26949SOL     OW82743   0.288   6.205   6.457
26949SOL    HW182744   0.270   6.299   6.460
26949SOL    HW282745   0.326   6.190   6.370
26950SOL     OW82746   1.558   9.248   0.245
26950SOL    HW182747   1.486   9.248   0.182
26950SOL    HW282748   1.629   9.200   0.202
26951SOL     OW82749  14.535  12.443  10.860
26951SOL    HW182750  14.582  12.361  10.877
26951SOL    HW282751  14.469  12.447  10.928
26952SOL     OW82752  14.650   7.535   1.824
26952SOL    HW182753  14.582   7.586   1.781
26952SOL    HW282754  14.715   7.600   1.852
26953SOL     OW82755  13.386  11.945   1.202
26953SOL    HW182756  13.424  11.858   1.190
26953SOL    HW282757  13.445  12.003   1.155
26954SOL     OW82758  10.686  10.549   3.245
26954SOL    HW182759  10.704  10.560   3.152
26954SOL    HW282760  10.597  10.584   3.257
26955SOL     OW82761   4.269   9.670   9.125
26955SOL    HW182762   4.339   9.652   9.188
26955SOL    HW282763   4.197   9.615   9.154
26956SOL     OW82764   2.863   0.891   3.650
26956SOL    HW182765   2.840   0.820   3.709
26956SOL    HW282766   2.942   0.861   3.605
26957SOL     OW82767  13.218  11.253   2.356
26957SOL    HW182768  13.241  11.210   2.273
26957SOL    HW282769  13.245  11.344   2.344
26958SOL     OW82770   0.811   4.802  10.587
26958SOL    HW182771   0.762   4.878  10.557
26958SOL    HW282772   0.810   4.808  10.682
26959SOL     OW82773   1.517  13.570   3.623
26959SOL    HW182774   1.447  13.624   3.661
26959SOL    HW282775   1.597  13.607   3.660
26960SOL     OW82776   4.554   2.727   2.400
26960SOL    HW182777   4.624   2.669   2.429
26960SOL    HW282778   4.477   2.671   2.391
26961SOL     OW82779   2.249   2.524  10.126
26961SOL    HW182780   2.204   2.536  10.210
26961SOL    HW282781   2.341   2.511  10.149
26962SOL     OW82782  11.374   1.810  14.184
26962SOL    HW182783  11.310   1.761  14.132
26962SOL    HW282784  11.372   1.898  14.146
26963SOL     OW82785   3.045   3.873  12.255
26963SOL    HW182786   3.008   3.902  12.339
26963SOL    HW282787   3.101   3.946  12.228
26964SOL     OW82788  12.971   7.397   0.328
26964SOL    HW182789  12.936   7.356   0.407
26964SOL    HW282790  12.932   7.485   0.327
26965SOL     OW82791  13.458  13.867  10.088
26965SOL    HW182792  13.413  13.782  10.080
26965SOL    HW282793  13.538  13.856  10.037
26966SOL     OW82794   7.330  12.139   4.744
26966SOL    HW182795   7.240  12.150   4.714
26966SOL    HW282796   7.326  12.064   4.803
26967SOL     OW82797   9.204   4.814   5.093
26967SOL    HW182798   9.298   4.797   5.083
26967SOL    HW282799   9.199   4.890   5.151
26968SOL     OW82800  14.552   9.416   6.396
26968SOL    HW182801  14.515   9.471   6.465
26968SOL    HW282802  14.491   9.343   6.387
26969SOL     OW82803  12.105  12.816   2.714
26969SOL    HW182804  12.111  12.741   2.654
26969SOL    HW282805  12.039  12.790   2.778
26970SOL     OW82806   8.706   1.112   8.124
26970SOL    HW182807   8.638   1.062   8.077
26970SOL    HW282808   8.788   1.081   8.085
26971SOL     OW82809  14.518   6.899   9.800
26971SOL    HW182810  14.531   6.898   9.705
26971SOL    HW282811  14.494   6.809   9.822
26972SOL     OW82812   0.151   7.567  11.183
26972SOL    HW182813   0.240   7.568  11.220
26972SOL    HW282814   0.119   7.478  11.200
26973SOL     OW82815   3.928  10.981   1.985
26973SOL    HW182816   3.991  10.909   1.978
26973SOL    HW282817   3.846  10.944   1.952
26974SOL     OW82818   7.416   9.934   7.411
26974SOL    HW182819   7.335   9.972   7.377
26974SOL    HW282820   7.398   9.839   7.414
26975SOL     OW82821  10.408   2.968   3.953
26975SOL    HW182822  10.440   2.937   3.868
26975SOL    HW282823  10.469   2.932   4.016
26976SOL     OW82824  12.722   8.055  13.317
26976SOL    HW182825  12.703   8.094  13.403
26976SOL    HW282826  12.781   8.116  13.275
26977SOL     OW82827   6.852   6.425   7.780
26977SOL    HW182828   6.776   6.391   7.826
26977SOL    HW282829   6.923   6.364   7.800
26978SOL     OW82830   3.562   6.154   9.038
26978SOL    HW182831   3.468   6.170   9.029
26978SOL    HW282832   3.591   6.216   9.104
26979SOL     OW82833  14.790   8.502  12.323
26979SOL    HW182834  14.855   8.454  12.273
26979SOL    HW282835  14.841   8.564  12.376
26980SOL     OW82836  13.381  13.920  14.143
26980SOL    HW182837  13.454  13.866  14.172
26980SOL    HW282838  13.329  13.862  14.086
26981SOL     OW82839   3.324   7.619  11.740
26981SOL    HW182840   3.346   7.529  11.714
26981SOL    HW282841   3.266   7.650  11.670
26982SOL     OW82842  10.273   1.000   6.368
26982SOL    HW182843  10.280   0.964   6.280
26982SOL    HW282844  10.359   1.040   6.384
26983SOL     OW82845   2.304  14.665   0.747
26983SOL    HW182846   2.265  14.751   0.767
26983SOL    HW282847   2.351  14.680   0.665
26984SOL     OW82848   5.220   5.646   9.910
26984SOL    HW182849   5.229   5.605   9.824
26984SOL    HW282850   5.307   5.681   9.930
26985SOL     OW82851   2.279   6.411   8.532
26985SOL    HW182852   2.298   6.331   8.482
26985SOL    HW282853   2.365   6.441   8.562
26986SOL     OW82854   1.845   7.238  13.952
26986SOL    HW182855   1.758   7.242  13.912
26986SOL    HW282856   1.905   7.220  13.880
26987SOL     OW82857  13.734  10.593   2.519
26987SOL    HW182858  13.703  10.658   2.456
26987SOL    HW282859  13.703  10.509   2.483
26988SOL     OW82860   5.057   4.092   4.635
26988SOL    HW182861   5.057   4.055   4.724
26988SOL    HW282862   4.966   4.082   4.606
26989SOL     OW82863   2.249   9.974   7.237
26989SOL    HW182864   2.265   9.908   7.304
26989SOL    HW282865   2.226   9.923   7.159
26990SOL     OW82866  14.174  12.532   1.073
26990SOL    HW182867  14.097  12.562   1.122
26990SOL    HW282868  14.159  12.562   0.984
26991SOL     OW82869  11.412   7.166  13.551
26991SOL    HW182870  11.408   7.107  13.476
26991SOL    HW282871  11.492   7.217  13.538
26992SOL     OW82872   4.420   7.465   5.589
26992SOL    HW182873   4.427   7.560   5.588
26992SOL    HW282874   4.508   7.435   5.611
26993SOL     OW82875   0.920   0.898   6.837
26993SOL    HW182876   0.912   0.817   6.887
26993SOL    HW282877   0.989   0.947   6.881
26994SOL     OW82878   5.387  12.840   2.523
26994SOL    HW182879   5.308  12.823   2.575
26994SOL    HW282880   5.445  12.767   2.543
26995SOL     OW82881   2.623   3.754   0.322
26995SOL    HW182882   2.625   3.725   0.231
26995SOL    HW282883   2.659   3.843   0.319
26996SOL     OW82884   9.589   0.522   2.347
26996SOL    HW182885   9.680   0.497   2.366
26996SOL    HW282886   9.573   0.485   2.260
26997SOL     OW82887   5.745  12.555   8.414
26997SOL    HW182888   5.841  12.549   8.411
26997SOL    HW282889   5.727  12.642   8.447
26998SOL     OW82890  10.190   8.128   6.297
26998SOL    HW182891  10.099   8.109   6.316
26998SOL    HW282892  10.208   8.209   6.344
26999SOL     OW82893   5.526   9.528  12.677
26999SOL    HW182894   5.605   9.565  12.717
26999SOL    HW282895   5.544   9.530  12.583
27000SOL     OW82896   4.337  12.821   7.553
27000SOL    HW182897   4.277  12.767   7.501
27000SOL    HW282898   4.363  12.765   7.626
27001SOL     OW82899   7.812   5.456   4.253
27001SOL    HW182900   7.842   5.504   4.331
27001SOL    HW282901   7.830   5.516   4.181
27002SOL     OW82902   7.017   0.278   6.057
27002SOL    HW182903   7.058   0.248   5.976
27002SOL    HW282904   7.077   0.344   6.092
27003SOL     OW82905   0.758   3.653   0.837
27003SOL    HW182906   0.853   3.667   0.838
27003SOL    HW282907   0.721   3.741   0.841
27004SOL     OW82908   9.406   4.437   4.644
27004SOL    HW182909   9.424   4.442   4.551
27004SOL    HW282910   9.400   4.529   4.672
27005SOL     OW82911   5.533  13.230   7.907
27005SOL    HW182912   5.467  13.230   7.838
27005SOL    HW282913   5.562  13.139   7.912
27006SOL     OW82914   9.229   4.037   9.607
27006SOL    HW182915   9.242   4.053   9.513
27006SOL    HW282916   9.258   4.118   9.648
27007SOL     OW82917   5.127  13.002   9.629
27007SOL    HW182918   5.041  13.037   9.606
27007SOL    HW282919   5.179  13.014   9.550
27008SOL     OW82920   9.100   7.232  14.549
27008SOL    HW182921   9.184   7.215  14.592
27008SOL    HW282922   9.036   7.231  14.620
27009SOL     OW82923   3.066   3.625   2.567
27009SOL    HW182924   3.045   3.532   2.567
27009SOL    HW282925   2.987   3.668   2.534
27010SOL     OW82926   0.706   4.061   3.232
27010SOL    HW182927   0.761   3.983   3.227
27010SOL    HW282928   0.660   4.053   3.315
27011SOL     OW82929   0.877   5.127   2.903
27011SOL    HW182930   0.952   5.136   2.962
27011SOL    HW282931   0.915   5.121   2.815
27012SOL     OW82932   9.673   9.120  12.330
27012SOL    HW182933   9.674   9.099  12.237
27012SOL    HW282934   9.678   9.216  12.333
27013SOL     OW82935   3.790   2.759   8.511
27013SOL    HW182936   3.738   2.815   8.454
27013SOL    HW282937   3.768   2.788   8.600
27014SOL     OW82938   5.726  13.392   9.755
27014SOL    HW182939   5.766  13.411   9.670
27014SOL    HW282940   5.784  13.327   9.795
27015SOL     OW82941   1.886   4.807   3.916
27015SOL    HW182942   1.857   4.887   3.872
27015SOL    HW282943   1.904   4.746   3.845
27016SOL     OW82944   9.330   4.144   2.217
27016SOL    HW182945   9.413   4.097   2.207
27016SOL    HW282946   9.327   4.169   2.309
27017SOL     OW82947   2.874   7.976   7.570
27017SOL    HW182948   2.832   8.002   7.488
27017SOL    HW282949   2.967   7.976   7.551
27018SOL     OW82950   5.547  11.232   6.360
27018SOL    HW182951   5.491  11.249   6.436
27018SOL    HW282952   5.499  11.270   6.286
27019SOL     OW82953   0.088  11.755   0.091
27019SOL    HW182954   0.066  11.835   0.044
27019SOL    HW282955   0.170  11.726   0.051
27020SOL     OW82956   0.895  10.025   8.177
27020SOL    HW182957   0.848   9.945   8.152
27020SOL    HW282958   0.842  10.096   8.142
27021SOL     OW82959  12.956   5.453   8.025
27021SOL    HW182960  12.974   5.530   7.971
27021SOL    HW282961  13.026   5.392   8.004
27022SOL     OW82962  14.402   5.230   6.645
27022SOL    HW182963  14.400   5.292   6.572
27022SOL    HW282964  14.381   5.146   6.605
27023SOL     OW82965   0.026  12.676   0.249
27023SOL    HW182966   0.121  12.662   0.239
27023SOL    HW282967   0.015  12.770   0.239
27024SOL     OW82968  10.778  11.819   1.402
27024SOL    HW182969  10.796  11.744   1.344
27024SOL    HW282970  10.718  11.784   1.468
27025SOL     OW82971   4.690   9.265   3.411
27025SOL    HW182972   4.747   9.253   3.336
27025SOL    HW282973   4.676   9.176   3.445
27026SOL     OW82974  12.545   1.665   2.430
27026SOL    HW182975  12.555   1.734   2.496
27026SOL    HW282976  12.487   1.601   2.470
27027SOL     OW82977   3.353   9.198  11.761
27027SOL    HW182978   3.312   9.113  11.744
27027SOL    HW282979   3.339   9.248  11.681
27028SOL     OW82980   3.213  12.979   3.284
27028SOL    HW182981   3.225  12.990   3.378
27028SOL    HW282982   3.122  13.003   3.268
27029SOL     OW82983  12.519   3.875   6.191
27029SOL    HW182984  12.435   3.919   6.206
27029SOL    HW282985  12.585   3.942   6.208
27030SOL     OW82986   1.861   7.002   2.999
27030SOL    HW182987   1.855   6.919   2.952
27030SOL    HW282988   1.779   7.006   3.050
27031SOL     OW82989   5.911   2.707  13.822
27031SOL    HW182990   5.981   2.731  13.883
27031SOL    HW282991   5.872   2.628  13.861
27032SOL     OW82992  10.065   2.377   5.975
27032SOL    HW182993  10.013   2.442   5.927
27032SOL    HW282994  10.080   2.307   5.912
27033SOL     OW82995   9.349   6.785   2.831
27033SOL    HW182996   9.295   6.773   2.909
27033SOL    HW282997   9.295   6.752   2.759
27034SOL     OW82998   8.994   5.577  13.622
27034SOL    HW182999   8.911   5.548  13.660
27034SOL    HW283000   8.974   5.663  13.584
27035SOL     OW83001  11.119   4.959   6.698
27035SOL    HW183002  11.111   4.877   6.746
27035SOL    HW283003  11.085   4.940   6.611
27036SOL     OW83004   9.633  13.878   7.788
27036SOL    HW183005   9.710  13.934   7.790
27036SOL    HW283006   9.650  13.810   7.852
27037SOL     OW83007  13.710   7.118   7.781
27037SOL    HW183008  13.805   7.108   7.773
27037SOL    HW283009  13.674   7.063   7.711
27038SOL     OW83010   4.488   4.780   0.517
27038SOL    HW183011   4.464   4.703   0.570
27038SOL    HW283012   4.565   4.816   0.561
27039SOL     OW83013  10.984  12.002   5.543
27039SOL    HW183014  11.015  11.920   5.507
27039SOL    HW283015  11.019  12.069   5.485
27040SOL     OW83016   4.331  13.816  10.359
27040SOL    HW183017   4.279  13.891  10.388
27040SOL    HW283018   4.364  13.777  10.440
27041SOL     OW83019  12.090   6.244   3.657
27041SOL    HW183020  12.086   6.327   3.703
27041SOL    HW283021  12.072   6.265   3.566
27042SOL     OW83022   2.296  12.710  10.460
27042SOL    HW183023   2.303  12.780  10.395
27042SOL    HW283024   2.308  12.755  10.544
27043SOL     OW83025  13.712   6.979   6.174
27043SOL    HW183026  13.666   6.925   6.238
27043SOL    HW283027  13.774   6.919   6.133
27044SOL     OW83028   6.786   5.413   1.518
27044SOL    HW183029   6.839   5.464   1.458
27044SOL    HW283030   6.846   5.348   1.554
27045SOL     OW83031   9.412   3.156   3.138
27045SOL    HW183032   9.474   3.214   3.094
27045SOL    HW283033   9.447   3.146   3.227
27046SOL     OW83034   8.508   1.730   5.095
27046SOL    HW183035   8.538   1.821   5.096
27046SOL    HW283036   8.432   1.729   5.154
27047SOL     OW83037   6.449   5.021  10.693
27047SOL    HW183038   6.397   4.971  10.757
27047SOL    HW283039   6.408   5.107  10.690
27048SOL     OW83040   1.009  11.231  11.573
27048SOL    HW183041   1.078  11.295  11.595
27048SOL    HW283042   1.052  11.146  11.582
27049SOL     OW83043  12.718   0.755   5.852
27049SOL    HW183044  12.740   0.802   5.933
27049SOL    HW283045  12.623   0.739   5.859
27050SOL     OW83046   1.668   5.964  12.854
27050SOL    HW183047   1.720   5.884  12.862
27050SOL    HW283048   1.588   5.945  12.904
27051SOL     OW83049   5.002   2.663  12.030
27051SOL    HW183050   5.095   2.685  12.032
27051SOL    HW283051   4.990   2.602  12.103
27052SOL     OW83052   1.455  10.103   7.944
27052SOL    HW183053   1.389  10.168   7.922
27052SOL    HW283054   1.536  10.136   7.906
27053SOL     OW83055   5.409  12.927   0.526
27053SOL    HW183056   5.357  12.928   0.607
27053SOL    HW283057   5.450  12.840   0.525
27054SOL     OW83058   5.363  14.062   4.796
27054SOL    HW183059   5.327  14.100   4.717
27054SOL    HW283060   5.327  13.973   4.799
27055SOL     OW83061   0.322   8.678   9.279
27055SOL    HW183062   0.415   8.696   9.262
27055SOL    HW283063   0.284   8.665   9.192
27056SOL     OW83064   8.806   5.580   7.269
27056SOL    HW183065   8.783   5.662   7.312
27056SOL    HW283066   8.798   5.599   7.175
27057SOL     OW83067   6.376   5.868   6.220
27057SOL    HW183068   6.377   5.907   6.307
27057SOL    HW283069   6.391   5.775   6.235
27058SOL     OW83070  13.128   0.660   8.393
27058SOL    HW183071  13.041   0.655   8.354
27058SOL    HW283072  13.187   0.675   8.318
27059SOL     OW83073   6.899   0.857  13.002
27059SOL    HW183074   6.887   0.938  12.953
27059SOL    HW283075   6.986   0.826  12.976
27060SOL     OW83076   7.356   0.182   4.293
27060SOL    HW183077   7.333   0.267   4.256
27060SOL    HW283078   7.292   0.121   4.255
27061SOL     OW83079   7.008   0.207   1.715
27061SOL    HW183080   7.055   0.229   1.796
27061SOL    HW283081   6.994   0.291   1.672
27062SOL     OW83082   9.961   7.673   1.711
27062SOL    HW183083   9.910   7.595   1.734
27062SOL    HW283084  10.029   7.679   1.777
27063SOL     OW83085   3.518   3.922   0.842
27063SOL    HW183086   3.601   3.968   0.827
27063SOL    HW283087   3.453   3.977   0.799
27064SOL     OW83088   3.360   7.153  13.431
27064SOL    HW183089   3.293   7.084  13.427
27064SOL    HW283090   3.419   7.126  13.501
27065SOL     OW83091   0.915  12.609  12.399
27065SOL    HW183092   0.967  12.683  12.368
27065SOL    HW283093   0.835  12.649  12.434
27066SOL     OW83094  12.513  12.820  14.659
27066SOL    HW183095  12.422  12.843  14.642
27066SOL    HW283096  12.513  12.725  14.663
27067SOL     OW83097   9.933   8.017  10.681
27067SOL    HW183098  10.028   8.011  10.668
27067SOL    HW283099   9.920   7.998  10.774
27068SOL     OW83100  14.821   7.283   4.776
27068SOL    HW183101  14.842   7.204   4.726
27068SOL    HW283102  14.734   7.266   4.811
27069SOL     OW83103  13.719  12.767   5.751
27069SOL    HW183104  13.784  12.720   5.803
27069SOL    HW283105  13.670  12.819   5.815
27070SOL     OW83106   5.005   6.878   0.742
27070SOL    HW183107   4.997   6.887   0.647
27070SOL    HW283108   5.089   6.834   0.755
27071SOL     OW83109  11.425  13.581  14.759
27071SOL    HW183110  11.518  13.604  14.758
27071SOL    HW283111  11.423  13.494  14.799
27072SOL     OW83112   9.268   3.909  11.449
27072SOL    HW183113   9.273   3.852  11.373
27072SOL    HW283114   9.355   3.951  11.454
27073SOL     OW83115  13.480   1.891  12.059
27073SOL    HW183116  13.571   1.863  12.047
27073SOL    HW283117  13.433   1.812  12.083
27074SOL     OW83118   2.291   5.476   9.449
27074SOL    HW183119   2.197   5.474   9.468
27074SOL    HW283120   2.320   5.562   9.481
27075SOL     OW83121   1.616   7.059   6.799
27075SOL    HW183122   1.619   7.057   6.894
27075SOL    HW283123   1.707   7.071   6.772
27076SOL     OW83124  14.610  11.249   7.037
27076SOL    HW183125  14.571  11.300   7.108
27076SOL    HW283126  14.647  11.315   6.978
27077SOL     OW83127   8.661   3.983   9.857
27077SOL    HW183128   8.659   4.023   9.944
27077SOL    HW283129   8.595   3.914   9.861
27078SOL     OW83130  13.697  13.018   7.392
27078SOL    HW183131  13.656  13.090   7.345
27078SOL    HW283132  13.750  12.973   7.326
27079SOL     OW83133  14.862   1.725  12.876
27079SOL    HW183134  14.858   1.820  12.882
27079SOL    HW283135  14.828   1.693  12.959
27080SOL     OW83136  10.833   2.718   2.146
27080SOL    HW183137  10.836   2.779   2.072
27080SOL    HW283138  10.863   2.634   2.109
27081SOL     OW83139  11.659   7.011   4.591
27081SOL    HW183140  11.605   6.949   4.543
27081SOL    HW283141  11.704   7.061   4.522
27082SOL     OW83142   3.965   3.406  13.044
27082SOL    HW183143   3.930   3.494  13.035
27082SOL    HW283144   3.890   3.352  13.068
27083SOL     OW83145   9.088  14.379   9.258
27083SOL    HW183146   8.994  14.399   9.261
27083SOL    HW283147   9.093  14.284   9.255
27084SOL     OW83148   5.375   9.396   9.755
27084SOL    HW183149   5.405   9.305   9.747
27084SOL    HW283150   5.282   9.393   9.734
27085SOL     OW83151  11.501   4.245   6.703
27085SOL    HW183152  11.442   4.281   6.637
27085SOL    HW283153  11.562   4.190   6.654
27086SOL     OW83154   0.784   8.879   8.591
27086SOL    HW183155   0.720   8.825   8.637
27086SOL    HW283156   0.869   8.839   8.612
27087SOL     OW83157  13.565   7.458   8.788
27087SOL    HW183158  13.479   7.486   8.757
27087SOL    HW283159  13.618   7.538   8.789
27088SOL     OW83160   8.207  13.145  12.558
27088SOL    HW183161   8.162  13.182  12.634
27088SOL    HW283162   8.203  13.215  12.492
27089SOL     OW83163   4.669  11.482   4.084
27089SOL    HW183164   4.631  11.395   4.081
27089SOL    HW283165   4.762  11.468   4.070
27090SOL     OW83166  11.039  14.308   6.709
27090SOL    HW183167  10.957  14.276   6.746
27090SOL    HW283168  11.026  14.301   6.614
27091SOL     OW83169   5.235   9.572  12.232
27091SOL    HW183170   5.197   9.535  12.153
27091SOL    HW283171   5.289   9.501  12.268
27092SOL     OW83172   7.659   2.764  11.366
27092SOL    HW183173   7.682   2.783  11.275
27092SOL    HW283174   7.619   2.677  11.363
27093SOL     OW83175  11.316   5.913   5.698
27093SOL    HW183176  11.337   6.005   5.685
27093SOL    HW283177  11.356   5.891   5.782
27094SOL     OW83178  13.444   0.908   3.308
27094SOL    HW183179  13.377   0.855   3.352
27094SOL    HW283180  13.395   0.976   3.263
27095SOL     OW83181  11.513   9.806   1.949
27095SOL    HW183182  11.543   9.889   1.910
27095SOL    HW283183  11.469   9.761   1.877
27096SOL     OW83184   4.173   0.643  14.381
27096SOL    HW183185   4.118   0.566  14.398
27096SOL    HW283186   4.262   0.608  14.374
27097SOL     OW83187   5.339   3.620   8.180
27097SOL    HW183188   5.297   3.535   8.169
27097SOL    HW283189   5.404   3.624   8.110
27098SOL     OW83190   4.615   9.153   8.220
27098SOL    HW183191   4.655   9.067   8.228
27098SOL    HW283192   4.647   9.202   8.295
27099SOL     OW83193  12.891   9.209  10.555
27099SOL    HW183194  12.979   9.234  10.526
27099SOL    HW283195  12.858   9.152  10.486
27100SOL     OW83196   1.646   3.870   2.134
27100SOL    HW183197   1.610   3.795   2.180
27100SOL    HW283198   1.731   3.885   2.177
27101SOL     OW83199  12.567   2.209  14.164
27101SOL    HW183200  12.581   2.274  14.233
27101SOL    HW283201  12.473   2.213  14.147
27102SOL     OW83202   0.480   7.650  14.280
27102SOL    HW183203   0.414   7.711  14.314
27102SOL    HW283204   0.432   7.598  14.215
27103SOL     OW83205   1.262   8.332   2.480
27103SOL    HW183206   1.347   8.372   2.458
27103SOL    HW283207   1.239   8.281   2.403
27104SOL     OW83208  10.093   9.463  14.851
27104SOL    HW183209  10.108   9.530  14.784
27104SOL    HW283210  10.002   9.475  14.877
27105SOL     OW83211   1.594   2.820   7.141
27105SOL    HW183212   1.655   2.749   7.157
27105SOL    HW283213   1.605   2.841   7.049
27106SOL     OW83214   7.137   2.348   2.769
27106SOL    HW183215   7.113   2.436   2.796
27106SOL    HW283216   7.055   2.300   2.769
27107SOL     OW83217   1.542  12.833   4.001
27107SOL    HW183218   1.560  12.744   4.031
27107SOL    HW283219   1.455  12.853   4.035
27108SOL     OW83220   2.139   0.769   7.594
27108SOL    HW183221   2.139   0.774   7.689
27108SOL    HW283222   2.100   0.851   7.565
27109SOL     OW83223   4.997   1.278   7.383
27109SOL    HW183224   4.974   1.288   7.475
27109SOL    HW283225   5.069   1.339   7.369
27110SOL     OW83226  13.017  14.506   7.251
27110SOL    HW183227  13.009  14.456   7.170
27110SOL    HW283228  12.932  14.495   7.294
27111SOL     OW83229   6.356  13.958   1.256
27111SOL    HW183230   6.429  13.976   1.315
27111SOL    HW283231   6.294  13.907   1.309
27112SOL     OW83232   6.232   8.125  13.795
27112SOL    HW183233   6.159   8.072  13.825
27112SOL    HW283234   6.205   8.159  13.710
27113SOL     OW83235   2.527  11.863   3.091
27113SOL    HW183236   2.548  11.786   3.143
27113SOL    HW283237   2.570  11.848   3.007
27114SOL     OW83238   5.450   7.349  14.398
27114SOL    HW183239   5.461   7.286  14.468
27114SOL    HW283240   5.519   7.328  14.335
27115SOL     OW83241   0.131   5.476   7.538
27115SOL    HW183242   0.086   5.543   7.486
27115SOL    HW283243   0.193   5.436   7.476
27116SOL     OW83244   0.101   5.644   5.463
27116SOL    HW183245   0.091   5.636   5.368
27116SOL    HW283246   0.087   5.736   5.482
27117SOL     OW83247  11.894   0.764   8.040
27117SOL    HW183248  11.959   0.717   8.092
27117SOL    HW283249  11.852   0.824   8.101
27118SOL     OW83250   4.642   4.922  12.722
27118SOL    HW183251   4.737   4.934  12.720
27118SOL    HW283252   4.629   4.831  12.693
27119SOL     OW83253  11.116   5.589  12.868
27119SOL    HW183254  11.140   5.680  12.848
27119SOL    HW283255  11.105   5.548  12.783
27120SOL     OW83256   7.914   0.047  12.556
27120SOL    HW183257   7.985   0.081  12.502
27120SOL    HW283258   7.941  14.845  12.577
27121SOL     OW83259   9.535   2.318   1.868
27121SOL    HW183260   9.544   2.354   1.780
27121SOL    HW283261   9.598   2.246   1.871
27122SOL     OW83262   3.695  13.019  14.693
27122SOL    HW183263   3.779  12.977  14.712
27122SOL    HW283264   3.666  12.978  14.612
27123SOL     OW83265  10.052   8.945   5.871
27123SOL    HW183266   9.965   8.983   5.871
27123SOL    HW283267  10.110   9.018   5.850
27124SOL     OW83268  11.080   1.851   9.809
27124SOL    HW183269  11.115   1.913   9.874
27124SOL    HW283270  11.115   1.882   9.726
27125SOL     OW83271   4.975   7.030   6.629
27125SOL    HW183272   5.070   7.022   6.636
27125SOL    HW283273   4.942   6.950   6.669
27126SOL     OW83274   0.994   4.833  11.270
27126SOL    HW183275   1.077   4.832  11.222
27126SOL    HW283276   0.975   4.926  11.282
27127SOL     OW83277   1.386   2.499  13.802
27127SOL    HW183278   1.371   2.593  13.813
27127SOL    HW283279   1.421   2.470  13.886
27128SOL     OW83280  11.259   7.868   5.221
27128SOL    HW183281  11.261   7.853   5.126
27128SOL    HW283282  11.248   7.962   5.230
27129SOL     OW83283   9.279   3.137  14.034
27129SOL    HW183284   9.207   3.200  14.029
27129SOL    HW283285   9.315   3.149  14.122
27130SOL     OW83286  12.501   3.714   9.891
27130SOL    HW183287  12.543   3.640   9.848
27130SOL    HW283288  12.419   3.680   9.924
27131SOL     OW83289   7.756   1.371   4.209
27131SOL    HW183290   7.745   1.466   4.198
27131SOL    HW283291   7.767   1.338   4.120
27132SOL     OW83292   8.978   4.900   0.489
27132SOL    HW183293   9.029   4.970   0.449
27132SOL    HW283294   8.905   4.885   0.429
27133SOL     OW83295  11.359   7.927  13.108
27133SOL    HW183296  11.418   7.958  13.177
27133SOL    HW283297  11.273   7.960  13.133
27134SOL     OW83298  12.696   6.319   0.105
27134SOL    HW183299  12.690   6.233   0.062
27134SOL    HW283300  12.698   6.382   0.033
27135SOL     OW83301   1.101   8.830   7.260
27135SOL    HW183302   1.175   8.779   7.227
27135SOL    HW283303   1.046   8.766   7.305
27136SOL     OW83304   8.716   5.491   6.689
27136SOL    HW183305   8.734   5.532   6.604
27136SOL    HW283306   8.777   5.417   6.693
27137SOL     OW83307   6.121   3.665   2.666
27137SOL    HW183308   6.109   3.734   2.731
27137SOL    HW283309   6.067   3.691   2.592
27138SOL     OW83310  14.826   9.614  12.693
27138SOL    HW183311  14.763   9.636  12.624
27138SOL    HW283312   0.019   9.591  12.645
27139SOL     OW83313   8.152  12.446   0.029
27139SOL    HW183314   8.170  12.493   0.111
27139SOL    HW283315   8.184  12.504  14.848
27140SOL     OW83316  10.692  11.835   8.791
27140SOL    HW183317  10.717  11.774   8.721
27140SOL    HW283318  10.617  11.883   8.754
27141SOL     OW83319   4.183  10.632   1.336
27141SOL    HW183320   4.165  10.695   1.265
27141SOL    HW283321   4.255  10.671   1.385
27142SOL     OW83322   9.378   0.911   9.029
27142SOL    HW183323   9.429   0.986   9.058
27142SOL    HW283324   9.371   0.922   8.934
27143SOL     OW83325   7.835   0.139   3.718
27143SOL    HW183326   7.757   0.173   3.762
27143SOL    HW283327   7.802   0.099   3.638
27144SOL     OW83328  14.805   9.022   9.079
27144SOL    HW183329  14.879   9.079   9.057
27144SOL    HW283330  14.825   8.939   9.036
27145SOL     OW83331  11.763   2.253   2.261
27145SOL    HW183332  11.785   2.209   2.343
27145SOL    HW283333  11.687   2.307   2.282
27146SOL     OW83334  11.999   2.487  11.566
27146SOL    HW183335  11.973   2.508  11.477
27146SOL    HW283336  12.005   2.391  11.567
27147SOL     OW83337   6.359   7.728  13.936
27147SOL    HW183338   6.352   7.786  14.011
27147SOL    HW283339   6.440   7.679  13.951
27148SOL     OW83340   9.639   7.268   6.768
27148SOL    HW183341   9.591   7.339   6.724
27148SOL    HW283342   9.624   7.191   6.713
27149SOL     OW83343  14.361   5.634   0.560
27149SOL    HW183344  14.423   5.704   0.539
27149SOL    HW283345  14.368   5.573   0.486
27150SOL     OW83346   6.680   6.552  10.210
27150SOL    HW183347   6.664   6.598  10.127
27150SOL    HW283348   6.594   6.545  10.251
27151SOL     OW83349  12.696   2.907   8.730
27151SOL    HW183350  12.754   2.974   8.693
27151SOL    HW283351  12.748   2.866   8.799
27152SOL     OW83352   0.222  13.124   4.832
27152SOL    HW183353   0.175  13.063   4.774
27152SOL    HW283354   0.240  13.200   4.777
27153SOL     OW83355   6.951   4.276   2.255
27153SOL    HW183356   7.045   4.280   2.268
27153SOL    HW283357   6.917   4.242   2.338
27154SOL     OW83358   4.516   4.695   7.497
27154SOL    HW183359   4.456   4.707   7.571
27154SOL    HW283360   4.479   4.748   7.427
27155SOL     OW83361   5.247  11.784   4.023
27155SOL    HW183362   5.227  11.737   4.103
27155SOL    HW283363   5.276  11.871   4.052
27156SOL     OW83364   8.058   5.701  11.805
27156SOL    HW183365   8.087   5.784  11.768
27156SOL    HW283366   7.987   5.724  11.865
27157SOL     OW83367   1.841   8.892   5.204
27157SOL    HW183368   1.910   8.831   5.177
27157SOL    HW283369   1.813   8.861   5.290
27158SOL     OW83370   9.204   8.977   1.016
27158SOL    HW183371   9.124   8.927   1.033
27158SOL    HW283372   9.268   8.910   0.991
27159SOL     OW83373   6.915   3.612  13.612
27159SOL    HW183374   6.823   3.615  13.588
27159SOL    HW283375   6.962   3.641  13.534
27160SOL     OW83376   4.317   8.045  14.841
27160SOL    HW183377   4.356   8.108  14.782
27160SOL    HW283378   4.313   8.090   0.038
27161SOL     OW83379  11.581  10.665   2.818
27161SOL    HW183380  11.519  10.600   2.785
27161SOL    HW283381  11.599  10.638   2.908
27162SOL     OW83382   2.666   0.725  14.199
27162SOL    HW183383   2.642   0.659  14.264
27162SOL    HW283384   2.692   0.675  14.122
27163SOL     OW83385  12.209   0.430  10.340
27163SOL    HW183386  12.185   0.387  10.258
27163SOL    HW283387  12.131   0.481  10.364
27164SOL     OW83388  11.279   9.975   7.991
27164SOL    HW183389  11.210   9.981   8.057
27164SOL    HW283390  11.317  10.063   7.988
27165SOL     OW83391   7.494   7.243   5.732
27165SOL    HW183392   7.463   7.331   5.754
27165SOL    HW283393   7.438   7.215   5.659
27166SOL     OW83394   6.358  14.708  14.063
27166SOL    HW183395   6.319  14.634  14.017
27166SOL    HW283396   6.398  14.761  13.993
27167SOL     OW83397   4.405  14.818   2.262
27167SOL    HW183398   4.379  14.863   2.182
27167SOL    HW283399   4.336  14.754   2.277
27168SOL     OW83400  13.091   7.471   7.606
27168SOL    HW183401  13.110   7.537   7.540
27168SOL    HW283402  13.022   7.509   7.659
27169SOL     OW83403   7.780  11.376   7.414
27169SOL    HW183404   7.863  11.411   7.444
27169SOL    HW283405   7.723  11.453   7.407
27170SOL     OW83406   7.082  13.723   6.782
27170SOL    HW183407   7.146  13.792   6.800
27170SOL    HW283408   7.071  13.724   6.687
27171SOL     OW83409   9.961  14.764   3.144
27171SOL    HW183410   9.924  14.681   3.173
27171SOL    HW283411   9.930  14.827   3.209
27172SOL     OW83412   1.816   0.677  11.393
27172SOL    HW183413   1.842   0.681  11.486
27172SOL    HW283414   1.816   0.583  11.373
27173SOL     OW83415   3.037  12.941   0.111
27173SOL    HW183416   2.971  12.955   0.043
27173SOL    HW283417   3.078  12.858   0.088
27174SOL     OW83418   2.931  14.581   7.126
27174SOL    HW183419   3.018  14.558   7.160
27174SOL    HW283420   2.870  14.534   7.182
27175SOL     OW83421  12.980   6.161   0.191
27175SOL    HW183422  12.899   6.111   0.187
27175SOL    HW283423  13.007   6.156   0.282
27176SOL     OW83424  11.567   0.371   6.783
27176SOL    HW183425  11.591   0.302   6.845
27176SOL    HW283426  11.499   0.421   6.828
27177SOL     OW83427   5.850   3.259   3.964
27177SOL    HW183428   5.872   3.197   4.034
27177SOL    HW283429   5.860   3.345   4.003
27178SOL     OW83430   8.391   2.962   0.982
27178SOL    HW183431   8.355   3.051   0.978
27178SOL    HW283432   8.467   2.969   1.040
27179SOL     OW83433   0.719  13.111  13.233
27179SOL    HW183434   0.814  13.121  13.242
27179SOL    HW283435   0.708  13.065  13.150
27180SOL     OW83436   9.474   3.237  13.371
27180SOL    HW183437   9.482   3.289  13.451
27180SOL    HW283438   9.472   3.147  13.401
27181SOL     OW83439  13.847   9.720   2.467
27181SOL    HW183440  13.892   9.749   2.546
27181SOL    HW283441  13.814   9.801   2.427
27182SOL     OW83442   5.324  14.424   5.284
27182SOL    HW183443   5.345  14.426   5.191
27182SOL    HW283444   5.354  14.338   5.314
27183SOL     OW83445   2.327   7.777  10.735
27183SOL    HW183446   2.328   7.732  10.651
27183SOL    HW283447   2.393   7.731  10.787
27184SOL     OW83448   0.223   1.271  10.744
27184SOL    HW183449   0.299   1.320  10.712
27184SOL    HW283450   0.181   1.238  10.664
27185SOL     OW83451  10.666   8.110   8.764
27185SOL    HW183452  10.657   8.015   8.773
27185SOL    HW283453  10.577   8.141   8.748
27186SOL     OW83454  10.918   9.455   9.228
27186SOL    HW183455  10.827   9.425   9.224
27186SOL    HW283456  10.930   9.506   9.148
27187SOL     OW83457  12.560   1.909   9.993
27187SOL    HW183458  12.472   1.892   9.958
27187SOL    HW283459  12.545   1.961  10.072
27188SOL     OW83460   2.593   9.056  14.476
27188SOL    HW183461   2.601   8.984  14.540
27188SOL    HW283462   2.523   9.112  14.511
27189SOL     OW83463   9.679   8.104   3.041
27189SOL    HW183464   9.608   8.059   2.994
27189SOL    HW283465   9.718   8.161   2.976
27190SOL     OW83466  11.503   5.979  11.459
27190SOL    HW183467  11.407   5.980  11.465
27190SOL    HW283468  11.532   6.038  11.529
27191SOL     OW83469   9.523   4.171  11.994
27191SOL    HW183470   9.593   4.193  12.056
27191SOL    HW283471   9.511   4.250  11.941
27192SOL     OW83472  13.219   6.357   4.614
27192SOL    HW183473  13.201   6.349   4.520
27192SOL    HW283474  13.306   6.318   4.625
27193SOL     OW83475  10.968  10.538  14.351
27193SOL    HW183476  10.980  10.507  14.441
27193SOL    HW283477  10.978  10.459  14.298
27194SOL     OW83478   8.317   9.058   2.238
27194SOL    HW183479   8.262   9.107   2.299
27194SOL    HW283480   8.255   9.008   2.185
27195SOL     OW83481   0.210   7.516   8.973
27195SOL    HW183482   0.143   7.565   8.925
27195SOL    HW283483   0.292   7.538   8.929
27196SOL     OW83484   8.565   2.473   7.331
27196SOL    HW183485   8.502   2.545   7.341
27196SOL    HW283486   8.512   2.394   7.324
27197SOL     OW83487   3.983   4.227  11.823
27197SOL    HW183488   3.911   4.232  11.759
27197SOL    HW283489   4.057   4.268  11.779
27198SOL     OW83490   7.795  14.282   2.641
27198SOL    HW183491   7.800  14.198   2.595
27198SOL    HW283492   7.857  14.274   2.713
27199SOL     OW83493   3.745   1.812   6.025
27199SOL    HW183494   3.823   1.759   6.045
27199SOL    HW283495   3.722   1.853   6.108
27200SOL     OW83496   0.331  12.119   5.633
27200SOL    HW183497   0.246  12.079   5.654
27200SOL    HW283498   0.316  12.213   5.645
27201SOL     OW83499  13.828   6.122   8.705
27201SOL    HW183500  13.818   6.209   8.744
27201SOL    HW283501  13.809   6.134   8.612
27202SOL     OW83502   7.825   0.963   2.101
27202SOL    HW183503   7.769   1.026   2.055
27202SOL    HW283504   7.907   1.010   2.116
27203SOL     OW83505   7.407   3.293  12.387
27203SOL    HW183506   7.456   3.229  12.336
27203SOL    HW283507   7.380   3.247  12.466
27204SOL     OW83508  10.415   4.366   9.541
27204SOL    HW183509  10.327   4.329   9.531
27204SOL    HW283510  10.438   4.397   9.453
27205SOL     OW83511   1.387   3.594   0.788
27205SOL    HW183512   1.338   3.648   0.850
27205SOL    HW283513   1.424   3.524   0.842
27206SOL     OW83514  14.081   6.039   6.260
27206SOL    HW183515  14.162   5.991   6.280
27206SOL    HW283516  14.102   6.130   6.280
27207SOL     OW83517  12.895   3.942  10.312
27207SOL    HW183518  12.864   4.011  10.254
27207SOL    HW283519  12.821   3.882  10.320
27208SOL     OW83520   2.374   0.346  13.437
27208SOL    HW183521   2.451   0.399  13.420
27208SOL    HW283522   2.326   0.347  13.354
27209SOL     OW83523   9.376   9.519  11.587
27209SOL    HW183524   9.456   9.467  11.576
27209SOL    HW283525   9.400   9.586  11.651
27210SOL     OW83526   1.362  14.408  11.264
27210SOL    HW183527   1.300  14.406  11.191
27210SOL    HW283528   1.307  14.410  11.342
27211SOL     OW83529   7.679   7.562   5.582
27211SOL    HW183530   7.632   7.639   5.548
27211SOL    HW283531   7.771   7.589   5.580
27212SOL     OW83532   8.821   0.548   7.584
27212SOL    HW183533   8.769   0.545   7.504
27212SOL    HW283534   8.868   0.464   7.585
27213SOL     OW83535   8.443  11.162  13.705
27213SOL    HW183536   8.479  11.187  13.620
27213SOL    HW283537   8.381  11.232  13.727
27214SOL     OW83538   0.708  11.012   7.443
27214SOL    HW183539   0.677  11.057   7.365
27214SOL    HW283540   0.751  10.933   7.411
27215SOL     OW83541   9.152   9.029   7.038
27215SOL    HW183542   9.081   9.069   6.988
27215SOL    HW283543   9.231   9.072   7.007
27216SOL     OW83544   3.492  10.603   1.712
27216SOL    HW183545   3.495  10.694   1.683
27216SOL    HW283546   3.561  10.595   1.778
27217SOL     OW83547   1.780  13.561  14.773
27217SOL    HW183548   1.810  13.544  14.684
27217SOL    HW283549   1.685  13.550  14.769
27218SOL     OW83550  10.417  10.798  14.808
27218SOL    HW183551  10.492  10.855  14.792
27218SOL    HW283552  10.446  10.711  14.780
27219SOL     OW83553   9.541   7.142  11.629
27219SOL    HW183554   9.515   7.107  11.544
27219SOL    HW283555   9.636   7.137  11.629
27220SOL     OW83556   9.198   1.952   6.001
27220SOL    HW183557   9.251   1.891   5.951
27220SOL    HW283558   9.119   1.964   5.948
27221SOL     OW83559   9.397  12.812  11.962
27221SOL    HW183560   9.452  12.742  11.998
27221SOL    HW283561   9.374  12.782  11.875
27222SOL     OW83562  11.671  11.993  14.277
27222SOL    HW183563  11.581  12.025  14.275
27222SOL    HW283564  11.666  11.904  14.242
27223SOL     OW83565   2.314   3.249  14.518
27223SOL    HW183566   2.287   3.285  14.602
27223SOL    HW283567   2.378   3.312  14.484
27224SOL     OW83568   7.399  10.265  11.688
27224SOL    HW183569   7.458  10.207  11.640
27224SOL    HW283570   7.377  10.217  11.767
27225SOL     OW83571   6.356  14.192  12.780
27225SOL    HW183572   6.267  14.204  12.749
27225SOL    HW283573   6.409  14.248  12.723
27226SOL     OW83574   1.402  13.397   6.943
27226SOL    HW183575   1.313  13.429   6.928
27226SOL    HW283576   1.428  13.437   7.025
27227SOL     OW83577   3.383  13.362  12.614
27227SOL    HW183578   3.416  13.304  12.684
27227SOL    HW283579   3.452  13.428  12.603
27228SOL     OW83580   2.350  11.350   7.937
27228SOL    HW183581   2.325  11.258   7.951
27228SOL    HW283582   2.278  11.386   7.885
27229SOL     OW83583   6.300   9.679   1.474
27229SOL    HW183584   6.259   9.702   1.390
27229SOL    HW283585   6.250   9.728   1.539
27230SOL     OW83586   0.540   6.969   8.402
27230SOL    HW183587   0.611   6.964   8.339
27230SOL    HW283588   0.460   6.964   8.349
27231SOL     OW83589   5.479  12.522  14.564
27231SOL    HW183590   5.435  12.599  14.600
27231SOL    HW283591   5.560  12.514  14.615
27232SOL     OW83592  13.736   9.850   6.099
27232SOL    HW183593  13.784   9.774   6.131
27232SOL    HW283594  13.693   9.885   6.177
27233SOL     OW83595   9.801  12.464   1.505
27233SOL    HW183596   9.896  12.476   1.498
27233SOL    HW283597   9.765  12.552   1.493
27234SOL     OW83598  12.771   6.959  12.803
27234SOL    HW183599  12.849   7.012  12.788
27234SOL    HW283600  12.716   6.975  12.726
27235SOL     OW83601   1.418   8.764   9.811
27235SOL    HW183602   1.347   8.754   9.874
27235SOL    HW283603   1.389   8.716   9.734
27236SOL     OW83604  13.430  10.467   4.662
27236SOL    HW183605  13.436  10.465   4.758
27236SOL    HW283606  13.452  10.557   4.639
27237SOL     OW83607  10.462   8.251   4.692
27237SOL    HW183608  10.469   8.214   4.780
27237SOL    HW283609  10.379   8.297   4.691
27238SOL     OW83610  14.504   7.225  13.855
27238SOL    HW183611  14.547   7.284  13.793
27238SOL    HW283612  14.430   7.275  13.889
27239SOL     OW83613   9.526   7.494   6.646
27239SOL    HW183614   9.546   7.570   6.700
27239SOL    HW283615   9.431   7.487   6.648
27240SOL     OW83616   4.534   4.645   3.762
27240SOL    HW183617   4.625   4.623   3.783
27240SOL    HW283618   4.542   4.715   3.696
27241SOL     OW83619   9.731   7.309   9.399
27241SOL    HW183620   9.663   7.323   9.465
27241SOL    HW283621   9.786   7.387   9.403
27242SOL     OW83622   1.333   0.039   3.276
27242SOL    HW183623   1.320   0.045   3.181
27242SOL    HW283624   1.427   0.024   3.286
27243SOL     OW83625  10.095  14.594   0.460
27243SOL    HW183626  10.006  14.612   0.430
27243SOL    HW283627  10.150  14.622   0.387
27244SOL     OW83628  13.340   9.251   6.915
27244SOL    HW183629  13.263   9.268   6.861
27244SOL    HW283630  13.334   9.159   6.937
27245SOL     OW83631  14.522  14.360   7.542
27245SOL    HW183632  14.452  14.358   7.608
27245SOL    HW283633  14.601  14.384   7.591
27246SOL     OW83634  11.862  11.217   4.499
27246SOL    HW183635  11.791  11.257   4.448
27246SOL    HW283636  11.900  11.152   4.440
27247SOL     OW83637  10.456  12.791   0.494
27247SOL    HW183638  10.444  12.729   0.566
27247SOL    HW283639  10.540  12.833   0.512
27248SOL     OW83640  14.199  12.805   1.427
27248SOL    HW183641  14.108  12.817   1.455
27248SOL    HW283642  14.214  12.876   1.365
27249SOL     OW83643   2.330  12.108   8.572
27249SOL    HW183644   2.320  12.077   8.482
27249SOL    HW283645   2.308  12.201   8.567
27250SOL     OW83646   9.942  14.483  13.601
27250SOL    HW183647   9.871  14.485  13.536
27250SOL    HW283648  10.021  14.506  13.551
27251SOL     OW83649   6.971   6.550  12.399
27251SOL    HW183650   7.052   6.549  12.349
27251SOL    HW283651   6.965   6.639  12.434
27252SOL     OW83652   3.438  11.113   7.827
27252SOL    HW183653   3.435  11.195   7.877
27252SOL    HW283654   3.418  11.045   7.891
27253SOL     OW83655   0.295   2.739  12.943
27253SOL    HW183656   0.248   2.742  12.860
27253SOL    HW283657   0.382   2.708  12.920
27254SOL     OW83658   4.638  13.543   8.789
27254SOL    HW183659   4.642  13.518   8.881
27254SOL    HW283660   4.617  13.636   8.790
27255SOL     OW83661   9.269  14.787  14.371
27255SOL    HW183662   9.185  14.750  14.342
27255SOL    HW283663   9.273  14.873  14.328
27256SOL     OW83664  10.291  10.059   6.040
27256SOL    HW183665  10.304  10.151   6.017
27256SOL    HW283666  10.341  10.010   5.975
27257SOL     OW83667   6.570  10.695  13.642
27257SOL    HW183668   6.522  10.710  13.724
27257SOL    HW283669   6.544  10.608  13.614
27258SOL     OW83670  13.723   8.918   2.538
27258SOL    HW183671  13.714   8.950   2.448
27258SOL    HW283672  13.653   8.961   2.586
27259SOL     OW83673   6.649  14.761  10.847
27259SOL    HW183674   6.740  14.749  10.818
27259SOL    HW283675   6.602  14.786  10.768
27260SOL     OW83676  13.677   2.513  13.969
27260SOL    HW183677  13.724   2.535  14.050
27260SOL    HW283678  13.699   2.583  13.909
27261SOL     OW83679   2.686  11.303   7.857
27261SOL    HW183680   2.599  11.285   7.820
27261SOL    HW283681   2.673  11.381   7.910
27262SOL     OW83682   4.269  12.751  12.817
27262SOL    HW183683   4.180  12.723  12.840
27262SOL    HW283684   4.256  12.813  12.745
27263SOL     OW83685  14.665   2.348   1.849
27263SOL    HW183686  14.657   2.354   1.944
27263SOL    HW283687  14.650   2.438   1.819
27264SOL     OW83688   3.153   9.997   5.155
27264SOL    HW183689   3.106  10.068   5.111
27264SOL    HW283690   3.094   9.970   5.225
27265SOL     OW83691   8.329   4.130   2.334
27265SOL    HW183692   8.357   4.079   2.410
27265SOL    HW283693   8.299   4.213   2.369
27266SOL     OW83694   9.584  10.264  12.472
27266SOL    HW183695   9.596  10.199  12.541
27266SOL    HW283696   9.512  10.319  12.503
27267SOL     OW83697   5.621   5.045   7.474
27267SOL    HW183698   5.550   4.990   7.507
27267SOL    HW283699   5.689   4.982   7.448
27268SOL     OW83700   4.502   3.491  12.298
27268SOL    HW183701   4.492   3.568  12.241
27268SOL    HW283702   4.420   3.488  12.348
27269SOL     OW83703  12.564  10.599   2.835
27269SOL    HW183704  12.572  10.557   2.749
27269SOL    HW283705  12.624  10.551   2.891
27270SOL     OW83706   4.307   8.382  10.658
27270SOL    HW183707   4.252   8.365  10.582
27270SOL    HW283708   4.387   8.420  10.622
27271SOL     OW83709  11.559   8.103   5.122
27271SOL    HW183710  11.628   8.070   5.179
27271SOL    HW283711  11.538   8.029   5.065
27272SOL     OW83712   2.222   4.957  14.719
27272SOL    HW183713   2.257   4.946  14.807
27272SOL    HW283714   2.159   5.029  14.727
27273SOL     OW83715  14.394  10.998   2.051
27273SOL    HW183716  14.422  11.014   1.961
27273SOL    HW283717  14.475  10.975   2.098
27274SOL     OW83718  13.015   3.965   2.413
27274SOL    HW183719  12.969   3.885   2.388
27274SOL    HW283720  13.105   3.952   2.384
27275SOL     OW83721   8.000   6.832   1.375
27275SOL    HW183722   7.980   6.919   1.340
27275SOL    HW283723   7.929   6.776   1.342
27276SOL     OW83724   7.007  13.218   8.550
27276SOL    HW183725   7.055  13.283   8.499
27276SOL    HW283726   6.937  13.267   8.591
27277SOL     OW83727  13.021  11.224   4.040
27277SOL    HW183728  13.037  11.143   3.993
27277SOL    HW283729  12.949  11.266   3.993
27278SOL     OW83730   1.957   4.611  10.785
27278SOL    HW183731   1.889   4.589  10.850
27278SOL    HW283732   1.923   4.577  10.702
27279SOL     OW83733   1.027   3.944   9.435
27279SOL    HW183734   1.049   3.949   9.342
27279SOL    HW283735   1.033   4.034   9.466
27280SOL     OW83736   8.575   5.790   6.919
27280SOL    HW183737   8.579   5.859   6.852
27280SOL    HW283738   8.572   5.838   7.002
27281SOL     OW83739   6.459   1.203  12.305
27281SOL    HW183740   6.497   1.290  12.317
27281SOL    HW283741   6.519   1.144  12.350
27282SOL     OW83742   6.844   6.403   1.723
27282SOL    HW183743   6.766   6.348   1.733
27282SOL    HW283744   6.877   6.414   1.813
27283SOL     OW83745  12.189  13.706  10.668
27283SOL    HW183746  12.266  13.719  10.723
27283SOL    HW283747  12.195  13.775  10.602
27284SOL     OW83748   3.267   7.411   5.138
27284SOL    HW183749   3.202   7.385   5.203
27284SOL    HW283750   3.253   7.352   5.065
27285SOL     OW83751  12.711   6.926  13.672
27285SOL    HW183752  12.751   7.007  13.640
27285SOL    HW283753  12.632   6.915  13.619
27286SOL     OW83754   4.046   1.689  10.916
27286SOL    HW183755   4.009   1.608  10.951
27286SOL    HW283756   4.077   1.665  10.828
27287SOL     OW83757   5.296   8.914   3.390
27287SOL    HW183758   5.321   8.967   3.314
27287SOL    HW283759   5.355   8.943   3.460
27288SOL     OW83760   4.990   8.953   0.120
27288SOL    HW183761   4.998   8.862   0.150
27288SOL    HW283762   5.071   8.994   0.147
27289SOL     OW83763   3.522   7.459  13.448
27289SOL    HW183764   3.449   7.415  13.492
27289SOL    HW283765   3.598   7.441  13.504
27290SOL     OW83766   3.407  11.715   1.188
27290SOL    HW183767   3.469  11.781   1.156
27290SOL    HW283768   3.393  11.657   1.113
27291SOL     OW83769   9.984   3.894   3.190
27291SOL    HW183770   9.980   3.868   3.282
27291SOL    HW283771   9.996   3.812   3.142
27292SOL     OW83772  11.089  12.445   6.090
27292SOL    HW183773  11.134  12.401   6.161
27292SOL    HW283774  11.093  12.383   6.017
27293SOL     OW83775   8.692   5.634   6.420
27293SOL    HW183776   8.697   5.721   6.461
27293SOL    HW283777   8.599   5.610   6.427
27294SOL     OW83778   4.575   6.509   0.366
27294SOL    HW183779   4.583   6.535   0.458
27294SOL    HW283780   4.482   6.524   0.345
27295SOL     OW83781  14.203  10.852  14.116
27295SOL    HW183782  14.210  10.817  14.205
27295SOL    HW283783  14.126  10.810  14.080
27296SOL     OW83784  14.595  13.834  10.130
27296SOL    HW183785  14.677  13.880  10.110
27296SOL    HW283786  14.597  13.821  10.225
27297SOL     OW83787   2.241   9.691   7.414
27297SOL    HW183788   2.201   9.629   7.353
27297SOL    HW283789   2.314   9.642   7.454
27298SOL     OW83790   3.321   9.401   7.966
27298SOL    HW183791   3.280   9.484   7.991
27298SOL    HW283792   3.363   9.369   8.046
27299SOL     OW83793   7.397  11.775   2.350
27299SOL    HW183794   7.439  11.805   2.430
27299SOL    HW283795   7.466  11.728   2.303
27300SOL     OW83796  13.354   0.248  10.659
27300SOL    HW183797  13.368   0.333  10.700
27300SOL    HW283798  13.273   0.215  10.697
27301SOL     OW83799   6.092   1.324  10.430
27301SOL    HW183800   6.076   1.266  10.504
27301SOL    HW283801   6.158   1.385  10.462
27302SOL     OW83802  14.604  11.659   9.383
27302SOL    HW183803  14.555  11.630   9.305
27302SOL    HW283804  14.694  11.670   9.352
27303SOL     OW83805   2.620  14.505   1.816
27303SOL    HW183806   2.585  14.495   1.904
27303SOL    HW283807   2.546  14.538   1.764
27304SOL     OW83808   4.235  10.477  11.048
27304SOL    HW183809   4.321  10.516  11.031
27304SOL    HW283810   4.237  10.394  11.002
27305SOL     OW83811   9.427   9.235   9.438
27305SOL    HW183812   9.430   9.142   9.416
27305SOL    HW283813   9.395   9.278   9.359
27306SOL     OW83814   7.642   8.087   3.459
27306SOL    HW183815   7.695   8.096   3.379
27306SOL    HW283816   7.617   8.177   3.481
27307SOL     OW83817   9.877   6.455  11.840
27307SOL    HW183818   9.959   6.408  11.838
27307SOL    HW283819   9.848   6.450  11.932
27308SOL     OW83820   3.335   0.885   4.912
27308SOL    HW183821   3.405   0.903   4.974
27308SOL    HW283822   3.356   0.799   4.876
27309SOL     OW83823   7.215   2.032   1.307
27309SOL    HW183824   7.154   2.085   1.255
27309SOL    HW283825   7.252   2.092   1.371
27310SOL     OW83826  13.489   0.526   0.550
27310SOL    HW183827  13.559   0.556   0.608
27310SOL    HW283828  13.508   0.434   0.536
27311SOL     OW83829   5.541   9.612   0.614
27311SOL    HW183830   5.508   9.702   0.621
27311SOL    HW283831   5.611   9.608   0.679
27312SOL     OW83832   0.067   2.756  14.050
27312SOL    HW183833   0.061   2.784  13.958
27312SOL    HW283834  14.864   2.757  14.082
27313SOL     OW83835  10.236  13.656   0.405
27313SOL    HW183836  10.285  13.733   0.375
27313SOL    HW283837  10.164  13.648   0.342
27314SOL     OW83838  10.222   9.144   8.543
27314SOL    HW183839  10.293   9.102   8.591
27314SOL    HW283840  10.166   9.182   8.610
27315SOL     OW83841  11.576   0.054   6.919
27315SOL    HW183842  11.610   0.092   7.000
27315SOL    HW283843  11.593  14.848   6.927
27316SOL     OW83844   3.989  14.442   6.248
27316SOL    HW183845   3.966  14.368   6.192
27316SOL    HW283846   3.934  14.432   6.325
27317SOL     OW83847   7.396   4.430   9.083
27317SOL    HW183848   7.437   4.416   9.168
27317SOL    HW283849   7.305   4.449   9.102
27318SOL     OW83850   0.132  14.512   8.045
27318SOL    HW183851   0.119  14.437   8.104
27318SOL    HW283852   0.047  14.556   8.044
27319SOL     OW83853  12.579   8.120   6.341
27319SOL    HW183854  12.506   8.181   6.341
27319SOL    HW283855  12.566   8.066   6.262
27320SOL     OW83856  11.008  12.684   5.811
27320SOL    HW183857  11.078  12.648   5.757
27320SOL    HW283858  10.957  12.608   5.839
27321SOL     OW83859   9.751   5.715  12.215
27321SOL    HW183860   9.840   5.702  12.246
27321SOL    HW283861   9.707   5.763  12.285
27322SOL     OW83862   7.684  13.017   4.438
27322SOL    HW183863   7.634  13.063   4.371
27322SOL    HW283864   7.776  13.038   4.418
27323SOL     OW83865   1.099  14.101   1.732
27323SOL    HW183866   1.113  14.044   1.656
27323SOL    HW283867   1.080  14.187   1.695
27324SOL     OW83868   4.902  11.261  12.943
27324SOL    HW183869   4.853  11.257  13.025
27324SOL    HW283870   4.993  11.247  12.969
27325SOL     OW83871   9.277   7.041   7.338
27325SOL    HW183872   9.361   7.053   7.382
27325SOL    HW283873   9.227   7.120   7.360
27326SOL     OW83874  10.158  12.012   0.464
27326SOL    HW183875  10.090  12.067   0.425
27326SOL    HW283876  10.137  11.924   0.434
27327SOL     OW83877  10.817   1.776   6.539
27327SOL    HW183878  10.860   1.691   6.550
27327SOL    HW283879  10.726   1.754   6.521
27328SOL     OW83880  12.419  12.864   8.765
27328SOL    HW183881  12.389  12.853   8.856
27328SOL    HW283882  12.463  12.949   8.766
27329SOL     OW83883   3.453   5.186   3.488
27329SOL    HW183884   3.442   5.274   3.524
27329SOL    HW283885   3.369   5.167   3.445
27330SOL     OW83886   3.928   5.787   5.503
27330SOL    HW183887   3.992   5.758   5.438
27330SOL    HW283888   3.883   5.860   5.461
27331SOL     OW83889   5.162   5.414  12.161
27331SOL    HW183890   5.096   5.347  12.146
27331SOL    HW283891   5.116   5.483  12.209
27332SOL     OW83892   7.509   8.464  11.958
27332SOL    HW183893   7.537   8.498  11.873
27332SOL    HW283894   7.576   8.496  12.019
27333SOL     OW83895  12.159   2.939  10.036
27333SOL    HW183896  12.234   2.883  10.057
27333SOL    HW283897  12.187   2.989   9.958
27334SOL     OW83898  11.828   6.358   5.614
27334SOL    HW183899  11.908   6.337   5.566
27334SOL    HW283900  11.829   6.454   5.620
27335SOL     OW83901   4.138  12.300  12.811
27335SOL    HW183902   4.083  12.339  12.880
27335SOL    HW283903   4.153  12.211  12.840
27336SOL     OW83904   7.450   8.443   0.207
27336SOL    HW183905   7.486   8.355   0.221
27336SOL    HW283906   7.370   8.429   0.157
27337SOL     OW83907   2.572  13.566  11.546
27337SOL    HW183908   2.548  13.571  11.639
27337SOL    HW283909   2.601  13.475  11.534
27338SOL     OW83910  12.837  12.892   1.869
27338SOL    HW183911  12.868  12.873   1.780
27338SOL    HW283912  12.742  12.882   1.863
27339SOL     OW83913   1.799   9.989   8.021
27339SOL    HW183914   1.707  10.016   8.029
27339SOL    HW283915   1.822   9.959   8.109
27340SOL     OW83916   7.565  10.714  13.880
27340SOL    HW183917   7.505  10.784  13.906
27340SOL    HW283918   7.580  10.664  13.960
27341SOL     OW83919   2.708   2.358   9.363
27341SOL    HW183920   2.730   2.266   9.349
27341SOL    HW283921   2.692   2.392   9.274
27342SOL     OW83922  14.674   8.507   9.112
27342SOL    HW183923  14.732   8.519   9.187
27342SOL    HW283924  14.594   8.468   9.149
27343SOL     OW83925   7.281  13.108  12.482
27343SOL    HW183926   7.323  13.189  12.453
27343SOL    HW283927   7.353  13.045  12.492
27344SOL     OW83928   6.356   5.115   9.666
27344SOL    HW183929   6.376   5.191   9.721
27344SOL    HW283930   6.336   5.152   9.580
27345SOL     OW83931  13.906   9.140  10.072
27345SOL    HW183932  13.921   9.100  10.158
27345SOL    HW283933  13.992   9.174  10.046
27346SOL     OW83934   6.288   6.891   9.527
27346SOL    HW183935   6.359   6.915   9.468
27346SOL    HW283936   6.245   6.974   9.548
27347SOL     OW83937  14.328   8.843   4.063
27347SOL    HW183938  14.274   8.783   4.116
27347SOL    HW283939  14.266   8.903   4.023
27348SOL     OW83940   2.100  10.669   2.976
27348SOL    HW183941   2.141  10.713   3.051
27348SOL    HW283942   2.068  10.586   3.011
27349SOL     OW83943   1.296   6.634  11.409
27349SOL    HW183944   1.325   6.593  11.490
27349SOL    HW283945   1.220   6.686  11.434
27350SOL     OW83946  13.566  14.019   0.277
27350SOL    HW183947  13.661  14.029   0.280
27350SOL    HW283948  13.533  14.097   0.321
27351SOL     OW83949   2.753   4.651   2.127
27351SOL    HW183950   2.676   4.610   2.166
27351SOL    HW283951   2.763   4.608   2.042
27352SOL     OW83952  10.594   1.786   5.442
27352SOL    HW183953  10.674   1.829   5.471
27352SOL    HW283954  10.527   1.855   5.444
27353SOL     OW83955   2.648   2.320   2.116
27353SOL    HW183956   2.736   2.357   2.124
27353SOL    HW283957   2.599   2.361   2.187
27354SOL     OW83958   9.618   9.041   7.073
27354SOL    HW183959   9.677   9.107   7.036
27354SOL    HW283960   9.542   9.042   7.015
27355SOL     OW83961   1.258   7.277  12.886
27355SOL    HW183962   1.323   7.327  12.837
27355SOL    HW283963   1.297   7.190  12.895
27356SOL     OW83964   0.330  13.125  13.419
27356SOL    HW183965   0.296  13.211  13.397
27356SOL    HW283966   0.262  13.064  13.391
27357SOL     OW83967   5.979   5.700  12.047
27357SOL    HW183968   6.019   5.772  12.096
27357SOL    HW283969   6.021   5.703  11.961
27358SOL     OW83970   9.205  14.303   9.911
27358SOL    HW183971   9.133  14.244   9.933
27358SOL    HW283972   9.282  14.247   9.907
27359SOL     OW83973   4.119   1.365   3.937
27359SOL    HW183974   4.212   1.342   3.935
27359SOL    HW283975   4.078   1.300   3.880
27360SOL     OW83976   3.953  14.539  13.262
27360SOL    HW183977   4.023  14.603  13.274
27360SOL    HW283978   3.917  14.526  13.350
27361SOL     OW83979   5.629   3.188  14.040
27361SOL    HW183980   5.645   3.130  13.965
27361SOL    HW283981   5.716   3.205  14.076
27362SOL     OW83982   0.281   2.986  11.706
27362SOL    HW183983   0.356   2.959  11.759
27362SOL    HW283984   0.205   2.952  11.752
27363SOL     OW83985   3.205   7.461  10.832
27363SOL    HW183986   3.201   7.411  10.750
27363SOL    HW283987   3.121   7.507  10.835
27364SOL     OW83988  13.984   7.607   5.908
27364SOL    HW183989  14.011   7.698   5.921
27364SOL    HW283990  14.005   7.588   5.817
27365SOL     OW83991   2.167   6.410  13.177
27365SOL    HW183992   2.101   6.374  13.237
27365SOL    HW283993   2.149   6.366  13.094
27366SOL     OW83994  10.962   1.279  13.953
27366SOL    HW183995  10.931   1.215  13.889
27366SOL    HW283996  10.952   1.363  13.910
27367SOL     OW83997   0.021   4.648  13.612
27367SOL    HW183998  14.857   4.619  13.687
27367SOL    HW283999   0.024   4.744  13.620
27368SOL     OW84000  14.274   4.223   0.364
27368SOL    HW184001  14.203   4.279   0.332
27368SOL    HW284002  14.303   4.266   0.445
27369SOL     OW84003   3.570  11.508   6.829
27369SOL    HW184004   3.561  11.598   6.798
27369SOL    HW284005   3.534  11.509   6.918
27370SOL     OW84006   8.054   1.433   4.295
27370SOL    HW184007   8.089   1.348   4.322
27370SOL    HW284008   7.959   1.420   4.293
27371SOL     OW84009  11.389  13.821   8.372
27371SOL    HW184010  11.375  13.889   8.438
27371SOL    HW284011  11.464  13.853   8.321
27372SOL     OW84012   7.441   5.781  12.186
27372SOL    HW184013   7.469   5.710  12.128
27372SOL    HW284014   7.411   5.737  12.266
27373SOL     OW84015   8.503  11.185   7.970
27373SOL    HW184016   8.595  11.165   7.984
27373SOL    HW284017   8.496  11.279   7.985
27374SOL     OW84018   8.184   7.214   2.832
27374SOL    HW184019   8.103   7.188   2.875
27374SOL    HW284020   8.248   7.148   2.860
27375SOL     OW84021   3.399  13.007  12.673
27375SOL    HW184022   3.455  12.962  12.610
27375SOL    HW284023   3.395  12.947  12.748
27376SOL     OW84024  12.948   1.909   7.343
27376SOL    HW184025  13.039   1.897   7.318
27376SOL    HW284026  12.904   1.938   7.263
27377SOL     OW84027   3.527  14.117   6.273
27377SOL    HW184028   3.474  14.182   6.319
27377SOL    HW284029   3.564  14.163   6.199
27378SOL     OW84030  12.215  11.284   9.074
27378SOL    HW184031  12.226  11.191   9.094
27378SOL    HW284032  12.164  11.285   8.992
27379SOL     OW84033  11.933   8.244   2.694
27379SOL    HW184034  11.925   8.219   2.602
27379SOL    HW284035  11.898   8.333   2.698
27380SOL     OW84036  13.910  10.486  14.559
27380SOL    HW184037  13.836  10.428  14.539
27380SOL    HW284038  13.935  10.523  14.475
27381SOL     OW84039   8.933  11.345  13.196
27381SOL    HW184040   8.861  11.390  13.241
27381SOL    HW284041   8.923  11.370  13.104
27382SOL     OW84042   2.738  10.169  13.917
27382SOL    HW184043   2.670  10.122  13.871
27382SOL    HW284044   2.787  10.215  13.849
27383SOL     OW84045   2.421   1.290  11.317
27383SOL    HW184046   2.429   1.338  11.399
27383SOL    HW284047   2.478   1.336  11.256
27384SOL     OW84048   7.739   4.107  13.521
27384SOL    HW184049   7.653   4.147  13.509
27384SOL    HW284050   7.753   4.058  13.440
27385SOL     OW84051  10.201   0.803   7.263
27385SOL    HW184052  10.255   0.872   7.224
27385SOL    HW284053  10.169   0.753   7.188
27386SOL     OW84054  10.945  12.216   0.768
27386SOL    HW184055  11.013  12.164   0.726
27386SOL    HW284056  10.908  12.269   0.698
27387SOL     OW84057  12.364   1.251   5.082
27387SOL    HW184058  12.343   1.238   5.175
27387SOL    HW284059  12.456   1.276   5.081
27388SOL     OW84060   1.276  10.371  13.223
27388SOL    HW184061   1.252  10.457  13.257
27388SOL    HW284062   1.200  10.344  13.170
27389SOL     OW84063   1.642   0.711  11.010
27389SOL    HW184064   1.698   0.774  10.965
27389SOL    HW284065   1.702   0.640  11.035
27390SOL     OW84066   9.918   8.377  12.124
27390SOL    HW184067   9.919   8.368  12.029
27390SOL    HW284068   9.839   8.427  12.143
27391SOL     OW84069  10.681  10.805   2.263
27391SOL    HW184070  10.598  10.797   2.215
27391SOL    HW284071  10.668  10.754   2.343
27392SOL     OW84072   6.979   0.654   8.485
27392SOL    HW184073   6.995   0.745   8.460
27392SOL    HW284074   6.886   0.652   8.509
27393SOL     OW84075  10.620   4.681   4.327
27393SOL    HW184076  10.656   4.609   4.379
27393SOL    HW284077  10.692   4.711   4.273
27394SOL     OW84078   4.854   2.676   4.220
27394SOL    HW184079   4.816   2.691   4.133
27394SOL    HW284080   4.897   2.758   4.242
27395SOL     OW84081  10.020   3.607   4.493
27395SOL    HW184082  10.029   3.662   4.570
27395SOL    HW284083  10.094   3.546   4.498
27396SOL     OW84084   9.880   7.612   8.600
27396SOL    HW184085   9.874   7.698   8.558
27396SOL    HW284086   9.973   7.599   8.616
27397SOL     OW84087   8.953   4.483   5.613
27397SOL    HW184088   8.934   4.407   5.668
27397SOL    HW284089   8.869   4.529   5.607
27398SOL     OW84090   7.901  10.765   7.006
27398SOL    HW184091   7.978  10.816   6.983
27398SOL    HW284092   7.863  10.810   7.081
27399SOL     OW84093   5.288   1.703  12.635
27399SOL    HW184094   5.323   1.625  12.679
27399SOL    HW284095   5.237   1.748  12.703
27400SOL     OW84096  14.564   6.174   3.126
27400SOL    HW184097  14.531   6.184   3.215
27400SOL    HW284098  14.658   6.190   3.134
27401SOL     OW84099   7.687  11.046   3.477
27401SOL    HW184100   7.702  10.951   3.473
27401SOL    HW284101   7.774  11.084   3.484
27402SOL     OW84102   3.731   1.078   7.167
27402SOL    HW184103   3.784   1.039   7.237
27402SOL    HW284104   3.782   1.154   7.138
27403SOL     OW84105   8.049   4.282  12.885
27403SOL    HW184106   8.049   4.245  12.974
27403SOL    HW284107   8.005   4.367  12.895
27404SOL     OW84108  11.945   4.202   4.248
27404SOL    HW184109  11.977   4.292   4.246
27404SOL    HW284110  11.859   4.208   4.288
27405SOL     OW84111   3.544   8.914  11.573
27405SOL    HW184112   3.582   8.863  11.644
27405SOL    HW284113   3.450   8.908  11.587
27406SOL     OW84114   1.324   0.957   2.341
27406SOL    HW184115   1.362   0.888   2.394
27406SOL    HW284116   1.259   0.998   2.399
27407SOL     OW84117   2.792  10.424  13.281
27407SOL    HW184118   2.724  10.447  13.345
27407SOL    HW284119   2.744  10.382  13.210
27408SOL     OW84120   5.922   6.339   3.360
27408SOL    HW184121   5.970   6.334   3.442
27408SOL    HW284122   5.839   6.381   3.383
27409SOL     OW84123   5.779  11.955   6.310
27409SOL    HW184124   5.790  12.041   6.350
27409SOL    HW284125   5.829  11.896   6.366
27410SOL     OW84126   6.853   0.262   5.260
27410SOL    HW184127   6.849   0.209   5.340
27410SOL    HW284128   6.946   0.277   5.246
27411SOL     OW84129   4.849   8.324  10.587
27411SOL    HW184130   4.906   8.260  10.629
27411SOL    HW284131   4.893   8.344  10.504
27412SOL     OW84132   6.236   4.873  12.768
27412SOL    HW184133   6.281   4.866  12.852
27412SOL    HW284134   6.240   4.966  12.746
27413SOL     OW84135   8.149   1.122   5.517
27413SOL    HW184136   8.198   1.162   5.445
27413SOL    HW284137   8.173   1.174   5.594
27414SOL     OW84138   1.337   2.879   9.215
27414SOL    HW184139   1.329   2.923   9.300
27414SOL    HW284140   1.281   2.929   9.156
27415SOL     OW84141   2.408  11.763   4.755
27415SOL    HW184142   2.372  11.680   4.785
27415SOL    HW284143   2.345  11.829   4.785
27416SOL     OW84144   8.692   8.714   0.919
27416SOL    HW184145   8.701   8.797   0.965
27416SOL    HW284146   8.712   8.647   0.985
27417SOL     OW84147   5.398   1.918   7.371
27417SOL    HW184148   5.375   1.953   7.458
27417SOL    HW284149   5.464   1.979   7.338
27418SOL     OW84150   3.994  12.207   9.632
27418SOL    HW184151   4.028  12.233   9.718
27418SOL    HW284152   3.923  12.268   9.615
27419SOL     OW84153   9.884   7.823  14.209
27419SOL    HW184154   9.797   7.861  14.204
27419SOL    HW284155   9.929   7.872  14.277
27420SOL     OW84156   4.812   7.622   1.382
27420SOL    HW184157   4.755   7.654   1.312
27420SOL    HW284158   4.878   7.690   1.392
27421SOL     OW84159  11.499  11.677  14.385
27421SOL    HW184160  11.516  11.721  14.302
27421SOL    HW284161  11.408  11.699  14.405
27422SOL     OW84162   0.147  14.121   7.034
27422SOL    HW184163   0.054  14.117   7.012
27422SOL    HW284164   0.152  14.093   7.125
27423SOL     OW84165  11.295   3.303  12.586
27423SOL    HW184166  11.382   3.298  12.624
27423SOL    HW284167  11.309   3.303  12.492
27424SOL     OW84168   1.221   3.841   5.525
27424SOL    HW184169   1.204   3.863   5.433
27424SOL    HW284170   1.296   3.781   5.521
27425SOL     OW84171  12.563  12.271  14.427
27425SOL    HW184172  12.523  12.196  14.471
27425SOL    HW284173  12.503  12.294  14.357
27426SOL     OW84174   8.164  11.076  13.978
27426SOL    HW184175   8.101  11.039  13.916
27426SOL    HW284176   8.136  11.044  14.063
27427SOL     OW84177   1.188   9.240   9.999
27427SOL    HW184178   1.095   9.230  10.019
27427SOL    HW284179   1.199   9.334   9.983
27428SOL     OW84180  10.606   7.144   2.458
27428SOL    HW184181  10.585   7.173   2.547
27428SOL    HW284182  10.537   7.081   2.437
27429SOL     OW84183  12.395   4.739   3.383
27429SOL    HW184184  12.446   4.676   3.435
27429SOL    HW284185  12.458   4.774   3.320
27430SOL     OW84186   3.972  12.372  13.835
27430SOL    HW184187   3.925  12.454  13.819
27430SOL    HW284188   4.059  12.387  13.797
27431SOL     OW84189  10.049  12.492   7.846
27431SOL    HW184190  10.063  12.586   7.834
27431SOL    HW284191   9.970  12.474   7.796
27432SOL     OW84192  12.799   5.580   6.895
27432SOL    HW184193  12.782   5.489   6.922
27432SOL    HW284194  12.820   5.573   6.802
27433SOL     OW84195  12.844  14.667  13.676
27433SOL    HW184196  12.764  14.715  13.654
27433SOL    HW284197  12.847  14.669  13.772
27434SOL     OW84198  13.049   9.296   9.844
27434SOL    HW184199  13.068   9.240   9.919
27434SOL    HW284200  12.971   9.257   9.804
27435SOL     OW84201  14.087   1.218   9.270
27435SOL    HW184202  14.026   1.147   9.250
27435SOL    HW284203  14.030   1.293   9.291
27436SOL     OW84204   5.759  10.026   6.034
27436SOL    HW184205   5.709  10.086   6.090
27436SOL    HW284206   5.815   9.978   6.095
27437SOL     OW84207   8.995   2.476   1.126
27437SOL    HW184208   8.953   2.410   1.181
27437SOL    HW284209   9.080   2.491   1.168
27438SOL     OW84210   8.552   6.165   0.186
27438SOL    HW184211   8.482   6.147   0.249
27438SOL    HW284212   8.532   6.108   0.111
27439SOL     OW84213   8.550   1.555   3.557
27439SOL    HW184214   8.512   1.643   3.561
27439SOL    HW284215   8.538   1.527   3.467
27440SOL     OW84216   1.640  14.842  10.539
27440SOL    HW184217   1.654  14.804  10.626
27440SOL    HW284218   1.561   0.009  10.550
27441SOL     OW84219   5.305   7.114   7.166
27441SOL    HW184220   5.221   7.082   7.132
27441SOL    HW284221   5.289   7.206   7.187
27442SOL     OW84222   4.483  11.570   9.080
27442SOL    HW184223   4.562  11.581   9.133
27442SOL    HW284224   4.464  11.657   9.047
27443SOL     OW84225   2.589   9.901  13.374
27443SOL    HW184226   2.493   9.902  13.378
27443SOL    HW284227   2.617   9.911  13.465
27444SOL     OW84228  11.231  11.324   7.678
27444SOL    HW184229  11.271  11.253   7.729
27444SOL    HW284230  11.144  11.291   7.655
27445SOL     OW84231   7.672   2.652  13.288
27445SOL    HW184232   7.687   2.745  13.270
27445SOL    HW284233   7.742   2.628  13.349
27446SOL     OW84234   9.427  12.788  10.389
27446SOL    HW184235   9.388  12.712  10.346
27446SOL    HW284236   9.359  12.820  10.447
27447SOL     OW84237   2.936  10.424   3.393
27447SOL    HW184238   2.858  10.372   3.370
27447SOL    HW284239   3.005  10.358   3.405
27448SOL     OW84240   4.354  14.246  13.777
27448SOL    HW184241   4.385  14.310  13.712
27448SOL    HW284242   4.290  14.194  13.729
27449SOL     OW84243   8.788  11.034   0.943
27449SOL    HW184244   8.822  11.099   0.882
27449SOL    HW284245   8.862  11.015   1.001
27450SOL     OW84246  10.950  11.047  14.489
27450SOL    HW184247  10.961  10.967  14.539
27450SOL    HW284248  11.034  11.092  14.498
27451SOL     OW84249  14.382   9.645   9.654
27451SOL    HW184250  14.434   9.700   9.711
27451SOL    HW284251  14.330   9.706   9.601
27452SOL     OW84252   6.552   1.294   3.814
27452SOL    HW184253   6.542   1.386   3.788
27452SOL    HW284254   6.635   1.267   3.775
27453SOL     OW84255  10.382   0.786   9.153
27453SOL    HW184256  10.415   0.864   9.198
27453SOL    HW284257  10.325   0.744   9.218
27454SOL     OW84258   7.219   8.192   1.445
27454SOL    HW184259   7.276   8.269   1.438
27454SOL    HW284260   7.271   8.120   1.411
27455SOL     OW84261   9.315   8.171   2.655
27455SOL    HW184262   9.303   8.090   2.606
27455SOL    HW284263   9.227   8.203   2.672
27456SOL     OW84264   7.825   6.127  11.980
27456SOL    HW184265   7.819   6.060  11.912
27456SOL    HW284266   7.793   6.084  12.059
27457SOL     OW84267  14.301   9.984  12.427
27457SOL    HW184268  14.312  10.078  12.409
27457SOL    HW284269  14.273   9.947  12.343
27458SOL     OW84270   7.439  13.351   3.859
27458SOL    HW184271   7.389  13.269   3.859
27458SOL    HW284272   7.496  13.344   3.782
27459SOL     OW84273   6.980  11.324   8.711
27459SOL    HW184274   7.050  11.259   8.707
27459SOL    HW284275   7.007  11.384   8.781
27460SOL     OW84276   7.116   6.759   3.257
27460SOL    HW184277   7.152   6.848   3.255
27460SOL    HW284278   7.166   6.712   3.191
27461SOL     OW84279  11.643   1.802   1.639
27461SOL    HW184280  11.603   1.844   1.716
27461SOL    HW284281  11.718   1.754   1.674
27462SOL     OW84282   5.337   0.396   9.006
27462SOL    HW184283   5.357   0.329   9.072
27462SOL    HW284284   5.377   0.363   8.925
27463SOL     OW84285  11.339   2.877   6.639
27463SOL    HW184286  11.415   2.845   6.590
27463SOL    HW284287  11.307   2.951   6.588
27464SOL     OW84288   1.636  11.646   2.281
27464SOL    HW184289   1.666  11.736   2.264
27464SOL    HW284290   1.710  11.604   2.325
27465SOL     OW84291   0.916   7.834   3.825
27465SOL    HW184292   0.841   7.823   3.767
27465SOL    HW284293   0.953   7.919   3.801
27466SOL     OW84294   5.497   4.715   6.165
27466SOL    HW184295   5.458   4.781   6.108
27466SOL    HW284296   5.480   4.746   6.254
27467SOL     OW84297  12.583  12.569  13.930
27467SOL    HW184298  12.641  12.578  14.006
27467SOL    HW284299  12.642  12.546  13.858
27468SOL     OW84300   8.155  10.020  10.373
27468SOL    HW184301   8.086   9.954  10.367
27468SOL    HW284302   8.219   9.995  10.306
27469SOL     OW84303   8.992  14.790  12.094
27469SOL    HW184304   8.923  14.724  12.102
27469SOL    HW284305   8.948  14.872  12.115
27470SOL     OW84306  11.187   4.704  11.128
27470SOL    HW184307  11.199   4.757  11.206
27470SOL    HW284308  11.175   4.615  11.160
27471SOL     OW84309  14.244  14.482   3.550
27471SOL    HW184310  14.325  14.495   3.501
27471SOL    HW284311  14.267  14.503   3.641
27472SOL     OW84312  10.280   0.293   9.342
27472SOL    HW184313  10.316   0.337   9.419
27472SOL    HW284314  10.186   0.287   9.360
27473SOL     OW84315   8.202  14.810   1.684
27473SOL    HW184316   8.199  14.761   1.766
27473SOL    HW284317   8.210   0.014   1.710
27474SOL     OW84318  10.025   0.519  10.655
27474SOL    HW184319  10.050   0.438  10.610
27474SOL    HW284320  10.013   0.493  10.747
27475SOL     OW84321   3.689  13.578   7.922
27475SOL    HW184322   3.764  13.629   7.892
27475SOL    HW284323   3.726  13.495   7.951
27476SOL     OW84324   3.418   0.470  12.491
27476SOL    HW184325   3.510   0.474  12.466
27476SOL    HW284326   3.388   0.560  12.485
27477SOL     OW84327   2.903  10.646   3.602
27477SOL    HW184328   2.910  10.576   3.538
27477SOL    HW284329   2.825  10.695   3.576
27478SOL     OW84330   8.046   5.065   8.429
27478SOL    HW184331   8.075   5.123   8.360
27478SOL    HW284332   8.087   5.099   8.509
27479SOL     OW84333  13.893  12.947   5.603
27479SOL    HW184334  13.872  12.977   5.515
27479SOL    HW284335  13.830  12.877   5.620
27480SOL     OW84336  10.434   5.601   9.802
27480SOL    HW184337  10.384   5.551   9.867
27480SOL    HW284338  10.444   5.688   9.841
27481SOL     OW84339   7.272  14.171   7.189
27481SOL    HW184340   7.338  14.104   7.205
27481SOL    HW284341   7.267  14.179   7.094
27482SOL     OW84342  13.506   9.056   8.493
27482SOL    HW184343  13.582   9.104   8.460
27482SOL    HW284344  13.438   9.123   8.503
27483SOL     OW84345   5.709   6.234  12.040
27483SOL    HW184346   5.706   6.146  12.077
27483SOL    HW284347   5.688   6.291  12.114
27484SOL     OW84348   5.208   6.342   3.139
27484SOL    HW184349   5.179   6.251   3.136
27484SOL    HW284350   5.132   6.392   3.110
27485SOL     OW84351   0.110   4.159   5.707
27485SOL    HW184352   0.129   4.075   5.748
27485SOL    HW284353   0.038   4.195   5.759
27486SOL     OW84354   4.040   8.339   9.711
27486SOL    HW184355   3.961   8.285   9.706
27486SOL    HW284356   4.046   8.382   9.625
27487SOL     OW84357  11.481  10.528   8.154
27487SOL    HW184358  11.408  10.476   8.122
27487SOL    HW284359  11.464  10.537   8.248
27488SOL     OW84360   5.515   7.656   6.981
27488SOL    HW184361   5.513   7.731   6.922
27488SOL    HW284362   5.569   7.684   7.055
27489SOL     OW84363   5.868  14.477   9.916
27489SOL    HW184364   5.786  14.527   9.917
27489SOL    HW284365   5.900  14.486   9.827
27490SOL     OW84366   0.914   8.231   1.992
27490SOL    HW184367   0.856   8.307   1.986
27490SOL    HW284368   0.857   8.160   2.023
27491SOL     OW84369  13.731  12.964   5.365
27491SOL    HW184370  13.718  12.887   5.310
27491SOL    HW284371  13.643  12.985   5.397
27492SOL     OW84372   7.102   1.702   3.367
27492SOL    HW184373   7.099   1.739   3.279
27492SOL    HW284374   7.012   1.674   3.384
27493SOL     OW84375   2.280   8.461   3.672
27493SOL    HW184376   2.267   8.366   3.671
27493SOL    HW284377   2.227   8.493   3.598
27494SOL     OW84378   4.130  13.143  13.746
27494SOL    HW184379   4.120  13.049  13.734
27494SOL    HW284380   4.224  13.159  13.734
27495SOL     OW84381   6.127   5.508  10.645
27495SOL    HW184382   6.128   5.420  10.609
27495SOL    HW284383   6.070   5.558  10.586
27496SOL     OW84384  12.166   6.021   0.867
27496SOL    HW184385  12.096   6.079   0.898
27496SOL    HW284386  12.197   5.977   0.946
27497SOL     OW84387   6.171  14.822  10.281
27497SOL    HW184388   6.087  14.819  10.235
27497SOL    HW284389   6.235  14.789  10.218
27498SOL     OW84390   4.940   4.587   9.971
27498SOL    HW184391   5.004   4.653   9.997
27498SOL    HW284392   4.891   4.628   9.900
27499SOL     OW84393   4.546  11.990   6.229
27499SOL    HW184394   4.617  11.944   6.274
27499SOL    HW284395   4.589  12.063   6.185
27500SOL     OW84396  14.228  12.890   0.503
27500SOL    HW184397  14.187  12.867   0.587
27500SOL    HW284398  14.155  12.920   0.448
27501SOL     OW84399   2.032   2.329   6.248
27501SOL    HW184400   1.951   2.280   6.239
27501SOL    HW284401   2.005   2.416   6.279
27502SOL     OW84402   1.576   4.811   5.229
27502SOL    HW184403   1.602   4.811   5.321
27502SOL    HW284404   1.652   4.845   5.182
27503SOL     OW84405   3.764  11.513   7.082
27503SOL    HW184406   3.708  11.530   7.006
27503SOL    HW284407   3.706  11.469   7.144
27504SOL     OW84408   2.937  13.764   7.490
27504SOL    HW184409   2.929  13.682   7.540
27504SOL    HW284410   2.980  13.737   7.409
27505SOL     OW84411   6.575   1.754   0.065
27505SOL    HW184412   6.643   1.721   0.006
27505SOL    HW284413   6.493   1.732   0.023
27506SOL     OW84414   9.949   0.700   4.282
27506SOL    HW184415   9.907   0.661   4.206
27506SOL    HW284416  10.033   0.654   4.290
27507SOL     OW84417  13.520   1.696   7.575
27507SOL    HW184418  13.554   1.709   7.663
27507SOL    HW284419  13.595   1.662   7.526
27508SOL     OW84420  14.027   7.516   4.228
27508SOL    HW184421  13.946   7.528   4.179
27508SOL    HW284422  14.017   7.573   4.305
27509SOL     OW84423  13.485  14.544   2.570
27509SOL    HW184424  13.554  14.603   2.540
27509SOL    HW284425  13.531  14.466   2.600
27510SOL     OW84426   8.896   6.134   2.317
27510SOL    HW184427   8.869   6.060   2.263
27510SOL    HW284428   8.949   6.189   2.258
27511SOL     OW84429  13.695  12.416   1.292
27511SOL    HW184430  13.753  12.340   1.302
27511SOL    HW284431  13.694  12.457   1.378
27512SOL     OW84432   2.036  13.937   4.750
27512SOL    HW184433   2.126  13.953   4.779
27512SOL    HW284434   2.041  13.852   4.705
27513SOL     OW84435  11.712   5.041   0.513
27513SOL    HW184436  11.683   5.129   0.540
27513SOL    HW284437  11.754   5.005   0.591
27514SOL     OW84438   2.365   1.057  13.297
27514SOL    HW184439   2.291   1.090  13.247
27514SOL    HW284440   2.350   1.090  13.386
27515SOL     OW84441  10.391  13.829   3.567
27515SOL    HW184442  10.389  13.917   3.528
27515SOL    HW284443  10.315  13.828   3.626
27516SOL     OW84444   0.660   9.951  13.491
27516SOL    HW184445   0.594   9.936  13.424
27516SOL    HW284446   0.744   9.938  13.446
27517SOL     OW84447  13.020   1.591   4.624
27517SOL    HW184448  12.949   1.531   4.647
27517SOL    HW284449  13.100   1.547   4.652
27518SOL     OW84450  10.445   9.667   1.088
27518SOL    HW184451  10.382   9.739   1.093
27518SOL    HW284452  10.504   9.681   1.161
27519SOL     OW84453  12.478   8.740   0.945
27519SOL    HW184454  12.426   8.671   0.903
27519SOL    HW284455  12.413   8.803   0.977
27520SOL     OW84456   3.843  12.595   8.094
27520SOL    HW184457   3.804  12.668   8.141
27520SOL    HW284458   3.837  12.521   8.154
27521SOL     OW84459   0.667   7.121   8.205
27521SOL    HW184460   0.658   7.068   8.126
27521SOL    HW284461   0.714   7.199   8.175
27522SOL     OW84462  10.078   4.601   4.364
27522SOL    HW184463   9.998   4.620   4.412
27522SOL    HW284464  10.049   4.582   4.275
27523SOL     OW84465  13.595   7.798   3.965
27523SOL    HW184466  13.568   7.887   3.988
27523SOL    HW284467  13.598   7.751   4.048
27524SOL     OW84468   5.434   6.692   0.038
27524SOL    HW184469   5.481   6.775   0.038
27524SOL    HW284470   5.493   6.631  14.881
27525SOL     OW84471   0.568   2.641  12.936
27525SOL    HW184472   0.626   2.688  12.876
27525SOL    HW284473   0.575   2.549  12.908
27526SOL     OW84474   6.414  12.186   4.327
27526SOL    HW184475   6.438  12.164   4.237
27526SOL    HW284476   6.483  12.147   4.381
27527SOL     OW84477   8.733   2.774   8.111
27527SOL    HW184478   8.722   2.734   8.025
27527SOL    HW284479   8.723   2.868   8.095
27528SOL     OW84480   2.129   0.744   8.824
27528SOL    HW184481   2.090   0.681   8.885
27528SOL    HW284482   2.164   0.813   8.881
27529SOL     OW84483  14.162  11.193   6.081
27529SOL    HW184484  14.148  11.224   6.171
27529SOL    HW284485  14.073  11.181   6.046
27530SOL     OW84486   1.514  10.752  12.726
27530SOL    HW184487   1.453  10.687  12.761
27530SOL    HW284488   1.479  10.836  12.753
27531SOL     OW84489   8.900   6.755   3.949
27531SOL    HW184490   8.862   6.707   3.876
27531SOL    HW284491   8.825   6.778   4.005
27532SOL     OW84492  14.238  13.039   1.324
27532SOL    HW184493  14.295  13.028   1.248
27532SOL    HW284494  14.177  13.109   1.298
27533SOL     OW84495   2.367  11.442   2.169
27533SOL    HW184496   2.303  11.376   2.141
27533SOL    HW284497   2.425  11.452   2.093
27534SOL     OW84498   9.959   7.116   3.856
27534SOL    HW184499   9.902   7.053   3.901
27534SOL    HW284500   9.986   7.176   3.925
27535SOL     OW84501   0.029   7.852   6.513
27535SOL    HW184502  14.874   7.774   6.476
27535SOL    HW284503   0.022   7.918   6.444
27536SOL     OW84504  13.371   7.088   6.940
27536SOL    HW184505  13.410   7.168   6.976
27536SOL    HW284506  13.279   7.092   6.967
27537SOL     OW84507   1.481   5.707   4.917
27537SOL    HW184508   1.567   5.707   4.960
27537SOL    HW284509   1.473   5.619   4.879
27538SOL     OW84510   4.431   1.870  11.254
27538SOL    HW184511   4.353   1.885  11.200
27538SOL    HW284512   4.441   1.950  11.305
27539SOL     OW84513   1.274   1.510   0.306
27539SOL    HW184514   1.294   1.592   0.261
27539SOL    HW284515   1.323   1.443   0.259
27540SOL     OW84516   8.023  14.714   9.666
27540SOL    HW184517   7.980  14.650   9.724
27540SOL    HW284518   8.055  14.661   9.593
27541SOL     OW84519   4.084  13.935   0.883
27541SOL    HW184520   4.088  13.972   0.971
27541SOL    HW284521   4.000  13.966   0.848
27542SOL     OW84522   7.869   9.267   0.980
27542SOL    HW184523   7.835   9.355   0.962
27542SOL    HW284524   7.807   9.228   1.041
27543SOL     OW84525   6.557   4.329   1.893
27543SOL    HW184526   6.619   4.262   1.925
27543SOL    HW284527   6.485   4.326   1.955
27544SOL     OW84528  14.847   0.937  11.549
27544SOL    HW184529   0.009   0.878  11.607
27544SOL    HW284530  14.804   0.880  11.487
27545SOL     OW84531   2.687   6.461   2.227
27545SOL    HW184532   2.782   6.469   2.217
27545SOL    HW284533   2.659   6.550   2.251
27546SOL     OW84534   8.740   5.501   3.925
27546SOL    HW184535   8.647   5.527   3.927
27546SOL    HW284536   8.755   5.459   4.009
27547SOL     OW84537   5.004   2.083   7.483
27547SOL    HW184538   5.023   2.096   7.390
27547SOL    HW284539   5.066   2.140   7.528
27548SOL     OW84540   0.028   4.276   4.509
27548SOL    HW184541   0.120   4.302   4.497
27548SOL    HW284542  14.866   4.338   4.456
27549SOL     OW84543  13.227  13.664  12.666
27549SOL    HW184544  13.216  13.574  12.695
27549SOL    HW284545  13.313  13.665  12.624
27550SOL     OW84546   0.934   1.764   6.102
27550SOL    HW184547   0.861   1.738   6.046
27550SOL    HW284548   0.996   1.691   6.097
27551SOL     OW84549   4.044   9.255   6.598
27551SOL    HW184550   3.980   9.186   6.581
27551SOL    HW284551   4.004   9.334   6.561
27552SOL     OW84552   1.440   8.257   7.793
27552SOL    HW184553   1.507   8.211   7.742
27552SOL    HW284554   1.489   8.306   7.858
27553SOL     OW84555   4.157   1.779   7.219
27553SOL    HW184556   4.071   1.810   7.192
27553SOL    HW284557   4.151   1.771   7.314
27554SOL     OW84558  12.482   1.580   3.321
27554SOL    HW184559  12.397   1.592   3.279
27554SOL    HW284560  12.508   1.668   3.349
27555SOL     OW84561  12.318  12.852   0.447
27555SOL    HW184562  12.304  12.761   0.422
27555SOL    HW284563  12.385  12.884   0.386
27556SOL     OW84564   4.550   4.793   3.567
27556SOL    HW184565   4.484   4.837   3.513
27556SOL    HW284566   4.634   4.821   3.529
27557SOL     OW84567  14.596   0.384  10.409
27557SOL    HW184568  14.671   0.408  10.464
27557SOL    HW284569  14.634   0.334  10.337
27558SOL     OW84570  12.348   1.998  10.903
27558SOL    HW184571  12.315   2.087  10.893
27558SOL    HW284572  12.275   1.942  10.877
27559SOL     OW84573  12.104   3.130  12.492
27559SOL    HW184574  12.104   3.081  12.574
27559SOL    HW284575  12.166   3.202  12.506
27560SOL     OW84576   1.793   4.576  10.985
27560SOL    HW184577   1.828   4.591  11.073
27560SOL    HW284578   1.721   4.638  10.977
27561SOL     OW84579   4.474   1.675   9.390
27561SOL    HW184580   4.464   1.631   9.305
27561SOL    HW284581   4.473   1.604   9.454
27562SOL     OW84582   9.314   8.225  14.723
27562SOL    HW184583   9.352   8.277  14.793
27562SOL    HW284584   9.249   8.283  14.683
27563SOL     OW84585   7.478   2.092   2.820
27563SOL    HW184586   7.495   2.185   2.838
27563SOL    HW284587   7.558   2.047   2.848
27564SOL     OW84588   2.421   3.901  14.318
27564SOL    HW184589   2.360   3.969  14.349
27564SOL    HW284590   2.396   3.886  14.227
27565SOL     OW84591   2.572  10.898   4.701
27565SOL    HW184592   2.514  10.871   4.772
27565SOL    HW284593   2.561  10.993   4.696
27566SOL     OW84594  11.611   4.111   9.335
27566SOL    HW184595  11.653   4.026   9.325
27566SOL    HW284596  11.647   4.164   9.264
27567SOL     OW84597  12.436   4.460  11.111
27567SOL    HW184598  12.451   4.504  11.027
27567SOL    HW284599  12.457   4.368  11.094
27568SOL     OW84600  10.517  13.375   1.453
27568SOL    HW184601  10.492  13.321   1.379
27568SOL    HW284602  10.437  13.383   1.506
27569SOL     OW84603   3.054   2.504   5.604
27569SOL    HW184604   3.010   2.542   5.681
27569SOL    HW284605   2.983   2.480   5.545
27570SOL     OW84606   4.989   1.907  13.900
27570SOL    HW184607   4.966   1.957  13.979
27570SOL    HW284608   5.025   1.972  13.840
27571SOL     OW84609   9.231   7.365   8.675
27571SOL    HW184610   9.294   7.312   8.626
27571SOL    HW284611   9.148   7.319   8.664
27572SOL     OW84612  10.671   7.247   1.350
27572SOL    HW184613  10.737   7.184   1.377
27572SOL    HW284614  10.689   7.325   1.402
27573SOL     OW84615   8.264   7.392   7.003
27573SOL    HW184616   8.168   7.388   7.001
27573SOL    HW284617   8.288   7.435   6.921
27574SOL     OW84618   8.437  11.557   3.762
27574SOL    HW184619   8.367  11.508   3.805
27574SOL    HW284620   8.439  11.641   3.807
27575SOL     OW84621   6.919   0.793   6.245
27575SOL    HW184622   6.836   0.840   6.238
27575SOL    HW284623   6.927   0.773   6.339
27576SOL     OW84624  12.465   7.221   3.583
27576SOL    HW184625  12.467   7.275   3.662
27576SOL    HW284626  12.479   7.132   3.615
27577SOL     OW84627  14.523   1.498   0.966
27577SOL    HW184628  14.530   1.561   0.894
27577SOL    HW284629  14.435   1.512   1.001
27578SOL     OW84630   2.703   5.664   7.163
27578SOL    HW184631   2.631   5.600   7.158
27578SOL    HW284632   2.701   5.695   7.253
27579SOL     OW84633   0.517  11.922   3.706
27579SOL    HW184634   0.501  11.839   3.661
27579SOL    HW284635   0.570  11.973   3.644
27580SOL     OW84636   5.439   3.704   5.115
27580SOL    HW184637   5.517   3.724   5.063
27580SOL    HW284638   5.459   3.740   5.202
27581SOL     OW84639   9.867   7.802   4.073
27581SOL    HW184640   9.853   7.791   4.167
27581SOL    HW284641   9.780   7.814   4.037
27582SOL     OW84642   6.790   7.677  10.870
27582SOL    HW184643   6.722   7.668  10.803
27582SOL    HW284644   6.742   7.692  10.951
27583SOL     OW84645   4.951  11.982   7.145
27583SOL    HW184646   4.897  11.911   7.177
27583SOL    HW284647   4.956  11.968   7.050
27584SOL     OW84648  12.904   7.784   7.114
27584SOL    HW184649  12.935   7.837   7.041
27584SOL    HW284650  12.810   7.799   7.118
27585SOL     OW84651   0.840  10.030  10.706
27585SOL    HW184652   0.927  10.011  10.743
27585SOL    HW284653   0.856  10.040  10.612
27586SOL     OW84654   4.294  14.180   4.115
27586SOL    HW184655   4.267  14.110   4.174
27586SOL    HW284656   4.368  14.221   4.159
27587SOL     OW84657   1.395   7.667  10.333
27587SOL    HW184658   1.396   7.631  10.244
27587SOL    HW284659   1.476   7.636  10.373
27588SOL     OW84660   4.619   7.766   0.877
27588SOL    HW184661   4.551   7.753   0.811
27588SOL    HW284662   4.690   7.810   0.831
27589SOL     OW84663   2.635   4.409   9.019
27589SOL    HW184664   2.725   4.387   8.998
27589SOL    HW284665   2.639   4.448   9.106
27590SOL     OW84666  12.063   4.594   0.360
27590SOL    HW184667  11.975   4.558   0.370
27590SOL    HW284668  12.073   4.607   0.265
27591SOL     OW84669  11.952   5.660   3.656
27591SOL    HW184670  11.959   5.565   3.660
27591SOL    HW284671  11.946   5.687   3.748
27592SOL     OW84672  10.584   4.926   5.079
27592SOL    HW184673  10.570   4.840   5.119
27592SOL    HW284674  10.628   4.977   5.148
27593SOL     OW84675   1.600  14.544   2.524
27593SOL    HW184676   1.608  14.451   2.505
27593SOL    HW284677   1.646  14.587   2.451
27594SOL     OW84678   1.853   2.240  11.377
27594SOL    HW184679   1.773   2.202  11.412
27594SOL    HW284680   1.859   2.208  11.288
27595SOL     OW84681   8.571   0.879   4.106
27595SOL    HW184682   8.599   0.818   4.038
27595SOL    HW284683   8.538   0.955   4.059
27596SOL     OW84684  10.055   8.896   9.736
27596SOL    HW184685   9.984   8.860   9.682
27596SOL    HW284686  10.059   8.838   9.812
27597SOL     OW84687   9.346   3.558  10.675
27597SOL    HW184688   9.372   3.492  10.740
27597SOL    HW284689   9.303   3.509  10.606
27598SOL     OW84690   7.392   1.945   5.193
27598SOL    HW184691   7.437   2.017   5.238
27598SOL    HW284692   7.342   1.902   5.263
27599SOL     OW84693  11.874   6.649   7.687
27599SOL    HW184694  11.940   6.584   7.714
27599SOL    HW284695  11.798   6.597   7.662
27600SOL     OW84696   4.980  13.187   6.305
27600SOL    HW184697   5.003  13.266   6.256
27600SOL    HW284698   5.008  13.115   6.249
27601SOL     OW84699   3.588   3.529  12.364
27601SOL    HW184700   3.508   3.495  12.324
27601SOL    HW284701   3.646   3.547  12.290
27602SOL     OW84702   9.186  11.486  14.108
27602SOL    HW184703   9.230  11.493  14.024
27602SOL    HW284704   9.165  11.393  14.116
27603SOL     OW84705   4.704   3.658  14.384
27603SOL    HW184706   4.621   3.642  14.429
27603SOL    HW284707   4.727   3.748  14.407
27604SOL     OW84708  10.380  14.450  14.408
27604SOL    HW184709  10.288  14.459  14.431
27604SOL    HW284710  10.422  14.530  14.440
27605SOL     OW84711  12.047   8.161   7.218
27605SOL    HW184712  12.139   8.136   7.224
27605SOL    HW284713  12.040   8.241   7.270
27606SOL     OW84714   1.001  13.176   0.965
27606SOL    HW184715   0.956  13.178   1.050
27606SOL    HW284716   0.998  13.085   0.938
27607SOL     OW84717   7.695   4.281  12.900
27607SOL    HW184718   7.610   4.285  12.943
27607SOL    HW284719   7.731   4.370  12.909
27608SOL     OW84720   7.532   9.121   2.900
27608SOL    HW184721   7.520   9.215   2.919
27608SOL    HW284722   7.624   9.113   2.878
27609SOL     OW84723   1.263  14.321   3.945
27609SOL    HW184724   1.352  14.294   3.923
27609SOL    HW284725   1.274  14.396   4.004
27610SOL     OW84726   8.121   9.095   8.482
27610SOL    HW184727   8.079   9.037   8.418
27610SOL    HW284728   8.085   9.067   8.566
27611SOL     OW84729  14.382   0.229   1.511
27611SOL    HW184730  14.357   0.315   1.478
27611SOL    HW284731  14.299   0.183   1.524
27612SOL     OW84732   6.517   4.885  12.627
27612SOL    HW184733   6.455   4.940  12.580
27612SOL    HW284734   6.580   4.857  12.560
27613SOL     OW84735  11.269   4.929   6.387
27613SOL    HW184736  11.273   5.017   6.349
27613SOL    HW284737  11.175   4.913   6.399
27614SOL     OW84738  11.218   2.271   6.953
27614SOL    HW184739  11.281   2.209   6.989
27614SOL    HW284740  11.208   2.245   6.862
27615SOL     OW84741   2.420   8.315  13.252
27615SOL    HW184742   2.383   8.242  13.202
27615SOL    HW284743   2.494   8.344  13.199
27616SOL     OW84744  10.380   1.289   5.817
27616SOL    HW184745  10.421   1.374   5.832
27616SOL    HW284746  10.423   1.230   5.879
27617SOL     OW84747   2.554   5.680  12.397
27617SOL    HW184748   2.460   5.686  12.381
27617SOL    HW284749   2.586   5.623  12.326
27618SOL     OW84750  11.744   1.086  10.931
27618SOL    HW184751  11.737   1.142  10.853
27618SOL    HW284752  11.691   1.009  10.911
27619SOL     OW84753   2.830   9.317   5.255
27619SOL    HW184754   2.784   9.401   5.254
27619SOL    HW284755   2.763   9.253   5.232
27620SOL     OW84756  14.674   0.079   6.969
27620SOL    HW184757  14.729   0.157   6.966
27620SOL    HW284758  14.728   0.011   6.928
27621SOL     OW84759   4.863   3.886   8.438
27621SOL    HW184760   4.958   3.878   8.441
27621SOL    HW284761   4.838   3.837   8.359
27622SOL     OW84762  11.437   3.905  10.705
27622SOL    HW184763  11.408   3.896  10.615
27622SOL    HW284764  11.448   3.815  10.736
27623SOL     OW84765   5.462   3.748   8.893
27623SOL    HW184766   5.394   3.709   8.839
27623SOL    HW284767   5.537   3.758   8.834
27624SOL     OW84768   8.968   2.524  13.846
27624SOL    HW184769   8.984   2.473  13.767
27624SOL    HW284770   8.873   2.534  13.850
27625SOL     OW84771   7.600  14.115   3.281
27625SOL    HW184772   7.553  14.188   3.319
27625SOL    HW284773   7.540  14.078   3.216
27626SOL     OW84774   8.575  14.022   3.385
27626SOL    HW184775   8.577  13.942   3.438
27626SOL    HW284776   8.505  14.006   3.321
27627SOL     OW84777   5.207   6.695  13.051
27627SOL    HW184778   5.167   6.624  13.102
27627SOL    HW284779   5.267   6.651  12.991
27628SOL     OW84780  10.038   1.947   8.289
27628SOL    HW184781   9.955   1.924   8.331
27628SOL    HW284782  10.095   1.975   8.360
27629SOL     OW84783   4.174   5.691  14.614
27629SOL    HW184784   4.239   5.684  14.683
27629SOL    HW284785   4.162   5.601  14.583
27630SOL     OW84786   9.757   6.762   3.311
27630SOL    HW184787   9.696   6.701   3.353
27630SOL    HW284788   9.742   6.846   3.356
27631SOL     OW84789  10.965   1.099  11.031
27631SOL    HW184790  11.019   1.115  10.954
27631SOL    HW284791  10.878   1.079  10.995
27632SOL     OW84792  13.963   7.792   8.398
27632SOL    HW184793  13.950   7.729   8.469
27632SOL    HW284794  14.055   7.820   8.407
27633SOL     OW84795   9.222   5.470   6.906
27633SOL    HW184796   9.167   5.404   6.947
27633SOL    HW284797   9.295   5.421   6.869
27634SOL     OW84798   3.694   6.911   5.435
27634SOL    HW184799   3.647   6.829   5.452
27634SOL    HW284800   3.703   6.952   5.522
27635SOL     OW84801  11.704  10.217   8.873
27635SOL    HW184802  11.690  10.201   8.966
27635SOL    HW284803  11.710  10.312   8.866
27636SOL     OW84804   8.931  14.695  14.866
27636SOL    HW184805   9.025  14.703  14.878
27636SOL    HW284806   8.915  14.601  14.859
27637SOL     OW84807   8.361  14.142  14.203
27637SOL    HW184808   8.380  14.048  14.206
27637SOL    HW284809   8.416  14.180  14.271
27638SOL     OW84810  13.205  14.118   4.625
27638SOL    HW184811  13.169  14.097   4.711
27638SOL    HW284812  13.132  14.157   4.578
27639SOL     OW84813  14.157  14.816   0.264
27639SOL    HW184814  14.154  14.853   0.176
27639SOL    HW284815  14.204  14.882   0.316
27640SOL     OW84816  13.469   9.310   9.543
27640SOL    HW184817  13.418   9.313   9.624
27640SOL    HW284818  13.404   9.306   9.473
27641SOL     OW84819   3.370  14.327   8.857
27641SOL    HW184820   3.282  14.288   8.856
27641SOL    HW284821   3.366  14.395   8.924
27642SOL     OW84822   9.163   6.172   4.143
27642SOL    HW184823   9.208   6.092   4.170
27642SOL    HW284824   9.074   6.144   4.123
27643SOL     OW84825   0.988   8.356  12.434
27643SOL    HW184826   1.006   8.262  12.437
27643SOL    HW284827   0.904   8.365  12.479
27644SOL     OW84828   2.392   7.027  14.501
27644SOL    HW184829   2.466   7.054  14.555
27644SOL    HW284830   2.430   6.970  14.434
27645SOL     OW84831   4.333   3.276   7.532
27645SOL    HW184832   4.329   3.185   7.501
27645SOL    HW284833   4.363   3.326   7.456
27646SOL     OW84834   4.093   7.190  12.169
27646SOL    HW184835   4.096   7.248  12.245
27646SOL    HW284836   4.020   7.130  12.188
27647SOL     OW84837   7.381   4.410   4.056
27647SOL    HW184838   7.327   4.399   4.134
27647SOL    HW284839   7.320   4.433   3.986
27648SOL     OW84840   1.601  12.802  14.629
27648SOL    HW184841   1.579  12.800  14.722
27648SOL    HW284842   1.575  12.716  14.596
27649SOL     OW84843   6.440  11.680   6.689
27649SOL    HW184844   6.376  11.727   6.743
27649SOL    HW284845   6.434  11.721   6.603
27650SOL     OW84846   0.124   3.076  12.854
27650SOL    HW184847   0.036   3.099  12.824
27650SOL    HW284848   0.113   2.993  12.900
27651SOL     OW84849  11.225  14.342   2.652
27651SOL    HW184850  11.269  14.423   2.677
27651SOL    HW284851  11.293  14.276   2.653
27652SOL     OW84852  11.567   9.292   1.967
27652SOL    HW184853  11.534   9.375   2.002
27652SOL    HW284854  11.585   9.310   1.875
27653SOL     OW84855  14.825   1.406   3.879
27653SOL    HW184856  14.848   1.498   3.862
27653SOL    HW284857  14.763   1.411   3.952
27654SOL     OW84858  10.788   9.180   7.458
27654SOL    HW184859  10.816   9.090   7.446
27654SOL    HW284860  10.857   9.219   7.512
27655SOL     OW84861   2.786  11.501  10.936
27655SOL    HW184862   2.808  11.431  10.874
27655SOL    HW284863   2.745  11.568  10.882
27656SOL     OW84864   9.806  12.381   9.632
27656SOL    HW184865   9.893  12.346   9.652
27656SOL    HW284866   9.823  12.448   9.566
27657SOL     OW84867   8.186   4.414  14.769
27657SOL    HW184868   8.225   4.336  14.808
27657SOL    HW284869   8.131   4.451  14.838
27658SOL     OW84870  11.361   9.129  13.070
27658SOL    HW184871  11.285   9.075  13.091
27658SOL    HW284872  11.334   9.179  12.993
27659SOL     OW84873   6.963   4.768   3.831
27659SOL    HW184874   7.001   4.771   3.743
27659SOL    HW284875   6.968   4.858   3.862
27660SOL     OW84876   1.651  13.913   5.887
27660SOL    HW184877   1.609  13.864   5.957
27660SOL    HW284878   1.587  13.982   5.865
27661SOL     OW84879  12.594   8.010  10.481
27661SOL    HW184880  12.651   8.035  10.408
27661SOL    HW284881  12.573   7.918  10.465
27662SOL     OW84882  13.558  11.232   8.413
27662SOL    HW184883  13.518  11.312   8.379
27662SOL    HW284884  13.538  11.233   8.507
27663SOL     OW84885   2.238   2.882  12.174
27663SOL    HW184886   2.202   2.920  12.094
27663SOL    HW284887   2.307   2.942  12.201
27664SOL     OW84888   5.014  10.601   7.102
27664SOL    HW184889   4.946  10.659   7.135
27664SOL    HW284890   5.027  10.537   7.172
27665SOL     OW84891   3.747   4.378   2.274
27665SOL    HW184892   3.792   4.295   2.292
27665SOL    HW284893   3.670   4.375   2.330
27666SOL     OW84894  12.932   4.230   3.571
27666SOL    HW184895  12.907   4.149   3.526
27666SOL    HW284896  12.850   4.277   3.583
27667SOL     OW84897   0.003   7.251   2.476
27667SOL    HW184898  14.855   7.315   2.537
27667SOL    HW284899  14.841   7.171   2.495
27668SOL     OW84900   4.426   4.691  14.522
27668SOL    HW184901   4.475   4.701  14.440
27668SOL    HW284902   4.491   4.658  14.585
27669SOL     OW84903   3.002   4.874   0.789
27669SOL    HW184904   2.913   4.883   0.755
27669SOL    HW284905   3.009   4.782   0.814
27670SOL     OW84906   4.483   0.971   9.780
27670SOL    HW184907   4.436   1.020   9.712
27670SOL    HW284908   4.426   0.896   9.798
27671SOL     OW84909   2.993   6.216   7.257
27671SOL    HW184910   3.045   6.297   7.261
27671SOL    HW284911   3.009   6.173   7.340
27672SOL     OW84912   8.756  11.319   5.527
27672SOL    HW184913   8.830  11.274   5.486
27672SOL    HW284914   8.760  11.408   5.492
27673SOL     OW84915   1.831   2.376   5.850
27673SOL    HW184916   1.760   2.401   5.910
27673SOL    HW284917   1.831   2.446   5.785
27674SOL     OW84918  12.661   7.804  11.214
27674SOL    HW184919  12.584   7.859  11.207
27674SOL    HW284920  12.700   7.805  11.127
27675SOL     OW84921   7.363   8.984  12.085
27675SOL    HW184922   7.309   8.948  12.014
27675SOL    HW284923   7.432   9.032  12.040
27676SOL     OW84924   8.647  14.171  11.048
27676SOL    HW184925   8.731  14.134  11.020
27676SOL    HW284926   8.582  14.104  11.026
27677SOL     OW84927  12.501   2.218  11.027
27677SOL    HW184928  12.522   2.126  11.007
27677SOL    HW284929  12.538   2.232  11.114
27678SOL     OW84930   5.412   4.167   1.600
27678SOL    HW184931   5.402   4.259   1.577
27678SOL    HW284932   5.382   4.120   1.522
27679SOL     OW84933   9.140  10.077   2.646
27679SOL    HW184934   9.052  10.043   2.630
27679SOL    HW284935   9.181  10.011   2.703
27680SOL     OW84936  13.060   1.911  10.981
27680SOL    HW184937  13.145   1.898  10.938
27680SOL    HW284938  13.064   1.856  11.060
27681SOL     OW84939  10.773   9.391   0.213
27681SOL    HW184940  10.734   9.351   0.291
27681SOL    HW284941  10.729   9.348   0.139
27682SOL     OW84942  10.722   4.597   7.804
27682SOL    HW184943  10.751   4.682   7.836
27682SOL    HW284944  10.628   4.605   7.794
27683SOL     OW84945   7.877   7.197   7.000
27683SOL    HW184946   7.874   7.286   6.963
27683SOL    HW284947   7.910   7.143   6.928
27684SOL     OW84948   1.927   7.632   0.593
27684SOL    HW184949   1.857   7.696   0.606
27684SOL    HW284950   1.946   7.635   0.500
27685SOL     OW84951   8.772   5.777   5.565
27685SOL    HW184952   8.734   5.703   5.611
27685SOL    HW284953   8.763   5.850   5.626
27686SOL     OW84954  10.034   3.491  14.338
27686SOL    HW184955  10.111   3.530  14.379
27686SOL    HW284956  10.063   3.467  14.250
27687SOL     OW84957   4.071   7.907   9.696
27687SOL    HW184958   4.112   7.939   9.776
27687SOL    HW284959   4.138   7.920   9.628
27688SOL     OW84960  12.230   3.833  12.682
27688SOL    HW184961  12.208   3.741  12.668
27688SOL    HW284962  12.208   3.876  12.600
27689SOL     OW84963   8.609   5.309  10.076
27689SOL    HW184964   8.591   5.223  10.113
27689SOL    HW284965   8.524   5.342  10.048
27690SOL     OW84966  13.575   4.848   2.679
27690SOL    HW184967  13.484   4.825   2.693
27690SOL    HW284968  13.616   4.835   2.764
27691SOL     OW84969   1.699   4.896  14.079
27691SOL    HW184970   1.749   4.861  14.153
27691SOL    HW284971   1.661   4.818  14.038
27692SOL     OW84972  10.180  13.079   2.254
27692SOL    HW184973  10.127  13.002   2.231
27692SOL    HW284974  10.125  13.128   2.314
27693SOL     OW84975   3.280  11.484   0.088
27693SOL    HW184976   3.194  11.526   0.082
27693SOL    HW284977   3.275  11.431   0.168
27694SOL     OW84978   6.336   1.464   9.576
27694SOL    HW184979   6.252   1.453   9.533
27694SOL    HW284980   6.391   1.505   9.509
27695SOL     OW84981  13.234   4.247   2.950
27695SOL    HW184982  13.291   4.190   3.003
27695SOL    HW284983  13.169   4.280   3.012
27696SOL     OW84984  13.093   6.817   9.402
27696SOL    HW184985  13.109   6.898   9.451
27696SOL    HW284986  13.041   6.763   9.462
27697SOL     OW84987   4.466   3.628   8.611
27697SOL    HW184988   4.500   3.658   8.527
27697SOL    HW284989   4.375   3.605   8.593
27698SOL     OW84990  11.002  12.008  13.726
27698SOL    HW184991  11.030  11.967  13.644
27698SOL    HW284992  10.985  11.935  13.786
27699SOL     OW84993  11.437   9.252   6.867
27699SOL    HW184994  11.378   9.326   6.877
27699SOL    HW284995  11.506   9.268   6.932
27700SOL     OW84996  10.154   7.776   8.598
27700SOL    HW184997  10.074   7.794   8.548
27700SOL    HW284998  10.184   7.691   8.567
27701SOL     OW84999   0.583   2.715  14.305
27701SOL    HW185000   0.599   2.643  14.366
27701SOL    HW285001   0.520   2.771  14.351
27702SOL     OW85002  10.120  10.830  12.019
27702SOL    HW185003  10.123  10.924  12.035
27702SOL    HW285004  10.194  10.795  12.069
27703SOL     OW85005   9.860   4.893  14.505
27703SOL    HW185006   9.834   4.911  14.595
27703SOL    HW285007   9.840   4.974  14.458
27704SOL     OW85008   2.786  11.513  10.523
27704SOL    HW185009   2.734  11.516  10.443
27704SOL    HW285010   2.868  11.556  10.501
27705SOL     OW85011  12.158   9.173  14.262
27705SOL    HW185012  12.202   9.241  14.313
27705SOL    HW285013  12.224   9.104  14.252
27706SOL     OW85014   9.185  12.249  12.661
27706SOL    HW185015   9.143  12.294  12.588
27706SOL    HW285016   9.147  12.289  12.739
27707SOL     OW85017   5.497   4.462  12.752
27707SOL    HW185018   5.468   4.397  12.688
27707SOL    HW285019   5.508   4.542  12.701
27708SOL     OW85020   4.544   7.649   9.836
27708SOL    HW185021   4.617   7.682   9.784
27708SOL    HW285022   4.496   7.591   9.776
27709SOL     OW85023  14.018   3.553   7.031
27709SOL    HW185024  14.021   3.524   6.940
27709SOL    HW285025  14.021   3.472   7.082
27710SOL     OW85026   0.904   6.383   1.017
27710SOL    HW185027   0.935   6.319   1.080
27710SOL    HW285028   0.813   6.399   1.042
27711SOL     OW85029   6.396  14.315   5.904
27711SOL    HW185030   6.343  14.360   5.970
27711SOL    HW285031   6.365  14.350   5.821
27712SOL     OW85032  10.997   0.066   1.112
27712SOL    HW185033  11.054  14.880   1.132
27712SOL    HW285034  10.969   0.099   1.198
27713SOL     OW85035   2.915   9.724   9.556
27713SOL    HW185036   3.001   9.765   9.562
27713SOL    HW285037   2.892   9.729   9.463
27714SOL     OW85038   1.640  14.387   5.600
27714SOL    HW185039   1.721  14.337   5.595
27714SOL    HW285040   1.650  14.442   5.678
27715SOL     OW85041  12.695  12.505   5.996
27715SOL    HW185042  12.610  12.492   6.038
27715SOL    HW285043  12.697  12.441   5.925
27716SOL     OW85044   8.170   7.975   2.490
27716SOL    HW185045   8.188   8.067   2.512
27716SOL    HW285046   8.230   7.925   2.545
27717SOL     OW85047   3.164   6.222   8.477
27717SOL    HW185048   3.105   6.250   8.407
27717SOL    HW285049   3.116   6.154   8.523
27718SOL     OW85050   3.113   2.389  12.761
27718SOL    HW185051   3.133   2.383  12.855
27718SOL    HW285052   3.177   2.450  12.726
27719SOL     OW85053  12.685  11.107  13.872
27719SOL    HW185054  12.779  11.093  13.864
27719SOL    HW285055  12.675  11.202  13.873
27720SOL     OW85056   1.962  12.312  12.974
27720SOL    HW185057   1.972  12.403  12.947
27720SOL    HW285058   1.869  12.293  12.961
27721SOL     OW85059   6.249   1.614   1.417
27721SOL    HW185060   6.211   1.619   1.329
27721SOL    HW285061   6.307   1.539   1.413
27722SOL     OW85062   3.125  11.547   5.461
27722SOL    HW185063   3.095  11.630   5.425
27722SOL    HW285064   3.134  11.564   5.555
27723SOL     OW85065   7.060   9.039   5.797
27723SOL    HW185066   7.081   8.946   5.803
27723SOL    HW285067   7.119   9.073   5.731
27724SOL     OW85068   7.803  11.978  14.698
27724SOL    HW185069   7.761  12.045  14.644
27724SOL    HW285070   7.749  11.974  14.777
27725SOL     OW85071  10.635   4.406   8.446
27725SOL    HW185072  10.641   4.463   8.369
27725SOL    HW285073  10.649   4.318   8.412
27726SOL     OW85074   3.034  13.465  14.569
27726SOL    HW185075   2.988  13.384  14.594
27726SOL    HW285076   3.059  13.505  14.652
27727SOL     OW85077  12.503   1.492   9.217
27727SOL    HW185078  12.537   1.421   9.163
27727SOL    HW285079  12.409   1.475   9.222
27728SOL     OW85080   0.059   9.972  10.333
27728SOL    HW185081   0.125  10.039  10.350
27728SOL    HW285082   0.098   9.915  10.267
27729SOL     OW85083   0.297   0.641   8.277
27729SOL    HW185084   0.209   0.603   8.270
27729SOL    HW285085   0.295   0.691   8.358
27730SOL     OW85086  12.760   0.312   5.602
27730SOL    HW185087  12.820   0.382   5.627
27730SOL    HW285088  12.807   0.231   5.624
27731SOL     OW85089  12.816  13.050   5.508
27731SOL    HW185090  12.781  13.004   5.432
27731SOL    HW285091  12.898  13.005   5.528
27732SOL     OW85092   7.708  11.154   9.279
27732SOL    HW185093   7.718  11.182   9.370
27732SOL    HW285094   7.730  11.061   9.279
27733SOL     OW85095  13.703   0.261   7.476
27733SOL    HW185096  13.635   0.220   7.422
27733SOL    HW285097  13.723   0.195   7.543
27734SOL     OW85098   1.251   0.506   6.655
27734SOL    HW185099   1.308   0.430   6.660
27734SOL    HW285100   1.268   0.554   6.736
27735SOL     OW85101   4.146  13.186   7.216
27735SOL    HW185102   4.217  13.208   7.277
27735SOL    HW285103   4.188  13.184   7.130
27736SOL     OW85104  10.049   5.923   4.366
27736SOL    HW185105  10.023   5.994   4.307
27736SOL    HW285106   9.978   5.859   4.361
27737SOL     OW85107   7.621   5.753   1.900
27737SOL    HW185108   7.709   5.722   1.923
27737SOL    HW285109   7.572   5.748   1.982
27738SOL     OW85110   4.446  12.589   6.707
27738SOL    HW185111   4.501  12.655   6.665
27738SOL    HW285112   4.401  12.545   6.634
27739SOL     OW85113  13.910  13.586   9.468
27739SOL    HW185114  13.879  13.501   9.500
27739SOL    HW285115  13.914  13.641   9.547
27740SOL     OW85116  13.837   9.815   8.598
27740SOL    HW185117  13.861   9.828   8.690
27740SOL    HW285118  13.879   9.732   8.574
27741SOL     OW85119  14.787   4.223   2.405
27741SOL    HW185120  14.881   4.234   2.416
27741SOL    HW285121  14.765   4.145   2.456
27742SOL     OW85122  13.710   3.974   7.455
27742SOL    HW185123  13.704   3.930   7.540
27742SOL    HW285124  13.637   4.036   7.456
27743SOL     OW85125   3.628  10.004  12.927
27743SOL    HW185126   3.671  10.021  12.844
27743SOL    HW285127   3.549   9.955  12.904
27744SOL     OW85128   4.438  13.037   7.241
27744SOL    HW185129   4.376  12.968   7.217
27744SOL    HW285130   4.491  12.998   7.310
27745SOL     OW85131   4.545   2.075   2.815
27745SOL    HW185132   4.578   2.132   2.745
27745SOL    HW285133   4.623   2.047   2.861
27746SOL     OW85134   9.584  14.782   2.485
27746SOL    HW185135   9.562  14.845   2.555
27746SOL    HW285136   9.524  14.805   2.414
27747SOL     OW85137   0.321   5.064   8.340
27747SOL    HW185138   0.345   5.015   8.418
27747SOL    HW285139   0.352   5.153   8.357
27748SOL     OW85140  14.482   4.993   8.748
27748SOL    HW185141  14.407   5.054   8.747
27748SOL    HW285142  14.558   5.049   8.730
27749SOL     OW85143   2.863  10.039  11.157
27749SOL    HW185144   2.787  10.082  11.119
27749SOL    HW285145   2.937  10.095  11.134
27750SOL     OW85146   4.245   4.785   6.230
27750SOL    HW185147   4.264   4.859   6.172
27750SOL    HW285148   4.267   4.817   6.318
27751SOL     OW85149   3.742   1.704   1.061
27751SOL    HW185150   3.701   1.729   0.978
27751SOL    HW285151   3.725   1.779   1.118
27752SOL     OW85152  11.619   5.485   7.451
27752SOL    HW185153  11.656   5.403   7.419
27752SOL    HW285154  11.620   5.543   7.375
27753SOL     OW85155   8.932   6.728  10.901
27753SOL    HW185156   8.846   6.756  10.869
27753SOL    HW285157   8.949   6.646  10.855
27754SOL     OW85158   0.232  12.349   9.305
27754SOL    HW185159   0.144  12.327   9.275
27754SOL    HW285160   0.266  12.407   9.237
27755SOL     OW85161   6.616   3.197   1.397
27755SOL    HW185162   6.578   3.143   1.466
27755SOL    HW285163   6.578   3.163   1.316
27756SOL     OW85164   5.512   0.106  13.924
27756SOL    HW185165   5.560   0.042  13.872
27756SOL    HW285166   5.554   0.189  13.906
27757SOL     OW85167   4.518   1.811   2.146
27757SOL    HW185168   4.519   1.880   2.212
27757SOL    HW285169   4.594   1.757   2.167
27758SOL     OW85170   1.932  14.757   3.884
27758SOL    HW185171   1.984  14.693   3.834
27758SOL    HW285172   1.996  14.805   3.936
27759SOL     OW85173   1.373  14.872   7.124
27759SOL    HW185174   1.453  14.886   7.072
27759SOL    HW285175   1.383  14.784   7.159
27760SOL     OW85176   4.055   8.313   6.429
27760SOL    HW185177   4.057   8.218   6.445
27760SOL    HW285178   4.060   8.320   6.333
27761SOL     OW85179   8.824  12.994   9.633
27761SOL    HW185180   8.770  13.063   9.671
27761SOL    HW285181   8.859  13.032   9.553
27762SOL     OW85182   4.222   6.227   0.212
27762SOL    HW185183   4.226   6.220   0.117
27762SOL    HW285184   4.128   6.227   0.232
27763SOL     OW85185  12.608   0.972   2.574
27763SOL    HW185186  12.519   1.001   2.553
27763SOL    HW285187  12.607   0.957   2.668
27764SOL     OW85188   4.101   4.631   8.530
27764SOL    HW185189   4.133   4.575   8.601
27764SOL    HW285190   4.179   4.674   8.497
27765SOL     OW85191   9.055   1.567  12.396
27765SOL    HW185192   8.976   1.518  12.419
27765SOL    HW285193   9.048   1.648  12.447
27766SOL     OW85194   8.577   8.535   3.083
27766SOL    HW185195   8.531   8.564   3.162
27766SOL    HW285196   8.643   8.603   3.068
27767SOL     OW85197   3.660   2.927   0.939
27767SOL    HW185198   3.652   3.018   0.911
27767SOL    HW285199   3.575   2.887   0.916
27768SOL     OW85200  11.617   0.901   4.936
27768SOL    HW185201  11.661   0.966   4.990
27768SOL    HW285202  11.615   0.822   4.989
27769SOL     OW85203   3.271  11.776   7.605
27769SOL    HW185204   3.213  11.710   7.642
27769SOL    HW285205   3.316  11.813   7.681
27770SOL     OW85206  10.603  10.365  10.312
27770SOL    HW185207  10.519  10.381  10.357
27770SOL    HW285208  10.669  10.396  10.374
27771SOL     OW85209  14.295   9.169  11.569
27771SOL    HW185210  14.251   9.241  11.525
27771SOL    HW285211  14.330   9.207  11.649
27772SOL     OW85212  12.600  13.174   1.644
27772SOL    HW185213  12.634  13.264   1.647
27772SOL    HW285214  12.541  13.173   1.569
27773SOL     OW85215  14.513  12.374   0.129
27773SOL    HW185216  14.527  12.329   0.213
27773SOL    HW285217  14.505  12.304   0.065
27774SOL     OW85218   1.957   0.075  11.348
27774SOL    HW185219   2.051   0.085  11.361
27774SOL    HW285220   1.944  14.868  11.343
27775SOL     OW85221  11.550   5.970  10.630
27775SOL    HW185222  11.634   6.002  10.663
27775SOL    HW285223  11.485   6.028  10.669
27776SOL     OW85224   4.044  12.411   6.826
27776SOL    HW185225   3.996  12.441   6.749
27776SOL    HW285226   3.984  12.350   6.870
27777SOL     OW85227   4.605   1.387  11.158
27777SOL    HW185228   4.535   1.332  11.191
27777SOL    HW285229   4.572   1.477  11.169
27778SOL     OW85230  13.189   4.106   5.733
27778SOL    HW185231  13.250   4.033   5.729
27778SOL    HW285232  13.204   4.155   5.652
27779SOL     OW85233   3.129  13.258   6.790
27779SOL    HW185234   3.130  13.353   6.785
27779SOL    HW285235   3.194  13.229   6.726
27780SOL     OW85236  11.107   5.151   5.517
27780SOL    HW185237  11.192   5.153   5.474
27780SOL    HW285238  11.079   5.060   5.512
27781SOL     OW85239   1.219  11.283  10.377
27781SOL    HW185240   1.279  11.238  10.436
27781SOL    HW285241   1.273  11.310  10.303
27782SOL     OW85242   6.669  11.589   2.041
27782SOL    HW185243   6.720  11.510   2.055
27782SOL    HW285244   6.585  11.558   2.007
27783SOL     OW85245   6.362  11.358   7.991
27783SOL    HW185246   6.274  11.323   7.975
27783SOL    HW285247   6.396  11.305   8.063
27784SOL     OW85248   4.963   5.538  11.686
27784SOL    HW185249   4.983   5.592  11.610
27784SOL    HW285250   5.004   5.583  11.759
27785SOL     OW85251  10.268   3.702   7.596
27785SOL    HW185252  10.311   3.784   7.619
27785SOL    HW285253  10.252   3.708   7.502
27786SOL     OW85254   9.113  11.949   8.728
27786SOL    HW185255   9.112  11.906   8.642
27786SOL    HW285256   9.196  11.996   8.730
27787SOL     OW85257   2.828  13.323   3.508
27787SOL    HW185258   2.806  13.356   3.595
27787SOL    HW285259   2.798  13.232   3.508
27788SOL     OW85260   8.386   2.445   8.865
27788SOL    HW185261   8.326   2.426   8.938
27788SOL    HW285262   8.447   2.510   8.900
27789SOL     OW85263   4.124   6.770   6.073
27789SOL    HW185264   4.211   6.801   6.098
27789SOL    HW285265   4.068   6.847   6.080
27790SOL     OW85266   9.371  12.037   8.760
27790SOL    HW185267   9.424  11.998   8.829
27790SOL    HW285268   9.429  12.037   8.683
27791SOL     OW85269   2.375   2.604   8.312
27791SOL    HW185270   2.359   2.580   8.403
27791SOL    HW285271   2.359   2.698   8.309
27792SOL     OW85272  10.384   8.982   7.603
27792SOL    HW185273  10.470   9.005   7.568
27792SOL    HW285274  10.347   8.922   7.539
27793SOL     OW85275  10.426   4.960   4.878
27793SOL    HW185276  10.483   4.947   4.954
27793SOL    HW285277  10.393   4.873   4.857
27794SOL     OW85278  12.378   2.098  11.894
27794SOL    HW185279  12.428   2.139  11.824
27794SOL    HW285280  12.302   2.155  11.906
27795SOL     OW85281  10.916   4.809   6.885
27795SOL    HW185282  10.984   4.742   6.883
27795SOL    HW285283  10.885   4.814   6.795
27796SOL     OW85284   7.250  11.481   6.735
27796SOL    HW185285   7.288  11.416   6.677
27796SOL    HW285286   7.297  11.470   6.817
27797SOL     OW85287   6.557  10.901   7.629
27797SOL    HW185288   6.500  10.854   7.690
27797SOL    HW285289   6.637  10.916   7.678
27798SOL     OW85290  12.178  14.657  14.559
27798SOL    HW185291  12.160  14.721  14.628
27798SOL    HW285292  12.183  14.573  14.606
27799SOL     OW85293   6.762  12.504   8.615
27799SOL    HW185294   6.692  12.440   8.626
27799SOL    HW285295   6.760  12.525   8.521
27800SOL     OW85296   5.272   3.274   8.853
27800SOL    HW185297   5.339   3.286   8.920
27800SOL    HW285298   5.189   3.274   8.901
27801SOL     OW85299   9.384   7.345   3.104
27801SOL    HW185300   9.295   7.310   3.098
27801SOL    HW285301   9.434   7.278   3.151
27802SOL     OW85302   5.879   9.246  12.497
27802SOL    HW185303   5.799   9.212  12.536
27802SOL    HW285304   5.918   9.301  12.565
27803SOL     OW85305   3.526   7.217  12.573
27803SOL    HW185306   3.440   7.206  12.533
27803SOL    HW285307   3.562   7.296  12.533
27804SOL     OW85308  13.480   1.403  12.407
27804SOL    HW185309  13.392   1.367  12.411
27804SOL    HW285310  13.521   1.358  12.333
27805SOL     OW85311   4.530   7.777   5.061
27805SOL    HW185312   4.511   7.827   4.982
27805SOL    HW285313   4.611   7.730   5.041
27806SOL     OW85314   9.018  14.276   1.951
27806SOL    HW185315   8.962  14.288   1.874
27806SOL    HW285316   9.102  14.247   1.916
27807SOL     OW85317   9.073   1.311   7.716
27807SOL    HW185318   8.993   1.302   7.767
27807SOL    HW285319   9.046   1.355   7.635
27808SOL     OW85320   5.910  10.660   2.569
27808SOL    HW185321   5.850  10.587   2.556
27808SOL    HW285322   5.931  10.658   2.662
27809SOL     OW85323  14.056   3.502  10.883
27809SOL    HW185324  14.070   3.443  10.958
27809SOL    HW285325  13.987   3.460  10.832
27810SOL     OW85326   4.432  10.453   7.597
27810SOL    HW185327   4.395  10.453   7.508
27810SOL    HW285328   4.524  10.427   7.585
27811SOL     OW85329   6.271  13.615   9.818
27811SOL    HW185330   6.231  13.683   9.872
27811SOL    HW285331   6.199  13.579   9.767
27812SOL     OW85332   9.310   1.161  11.710
27812SOL    HW185333   9.285   1.219  11.781
27812SOL    HW285334   9.406   1.156  11.715
27813SOL     OW85335   0.795  10.477  14.764
27813SOL    HW185336   0.741  10.522  14.698
27813SOL    HW285337   0.742  10.481  14.844
27814SOL     OW85338  10.245   2.850  14.528
27814SOL    HW185339  10.340   2.860  14.532
27814SOL    HW285340  10.211   2.935  14.556
27815SOL     OW85341   7.739  11.869  13.057
27815SOL    HW185342   7.709  11.783  13.089
27815SOL    HW285343   7.749  11.857  12.963
27816SOL     OW85344   1.984   9.104  10.449
27816SOL    HW185345   2.039   9.165  10.400
27816SOL    HW285346   2.026   9.098  10.535
27817SOL     OW85347   9.063   5.724   3.703
27817SOL    HW185348   9.070   5.721   3.608
27817SOL    HW285349   9.055   5.817   3.724
27818SOL     OW85350   7.372  14.641  10.883
27818SOL    HW185351   7.458  14.639  10.842
27818SOL    HW285352   7.353  14.549  10.902
27819SOL     OW85353   9.115   6.044  11.054
27819SOL    HW185354   9.065   6.041  10.972
27819SOL    HW285355   9.133   5.953  11.075
27820SOL     OW85356  14.316   2.485  10.786
27820SOL    HW185357  14.229   2.476  10.748
27820SOL    HW285358  14.373   2.505  10.711
27821SOL     OW85359   3.394   1.720  14.700
27821SOL    HW185360   3.347   1.774  14.636
27821SOL    HW285361   3.326   1.665  14.739
27822SOL     OW85362   5.006   9.744   7.546
27822SOL    HW185363   5.013   9.651   7.525
27822SOL    HW285364   4.964   9.782   7.469
27823SOL     OW85365   0.693   4.907   9.697
27823SOL    HW185366   0.767   4.847   9.713
27823SOL    HW285367   0.618   4.862   9.735
27824SOL     OW85368   4.490   6.443   5.053
27824SOL    HW185369   4.465   6.532   5.032
27824SOL    HW285370   4.409   6.401   5.083
27825SOL     OW85371   5.469   9.486  14.873
27825SOL    HW185372   5.463   9.574   0.021
27825SOL    HW285373   5.386   9.472  14.827
27826SOL     OW85374   8.952   4.554   7.200
27826SOL    HW185375   9.035   4.594   7.227
27826SOL    HW285376   8.894   4.629   7.183
27827SOL     OW85377   5.497   4.048   1.831
27827SOL    HW185378   5.481   4.061   1.737
27827SOL    HW285379   5.492   4.136   1.868
27828SOL     OW85380   5.621   6.239  14.057
27828SOL    HW185381   5.623   6.314  14.118
27828SOL    HW285382   5.712   6.228  14.031
27829SOL     OW85383  10.314  11.849   0.768
27829SOL    HW185384  10.223  11.839   0.738
27829SOL    HW285385  10.342  11.760   0.790
27830SOL     OW85386   3.327  11.870  11.748
27830SOL    HW185387   3.296  11.874  11.839
27830SOL    HW285388   3.359  11.959  11.730
27831SOL     OW85389  12.247  12.297  13.453
27831SOL    HW185390  12.162  12.300  13.499
27831SOL    HW285391  12.307  12.261  13.518
27832SOL     OW85392   0.345  11.698  11.242
27832SOL    HW185393   0.256  11.730  11.247
27832SOL    HW285394   0.398  11.776  11.224
27833SOL     OW85395  10.681   9.446   0.635
27833SOL    HW185396  10.623   9.385   0.681
27833SOL    HW285397  10.665   9.429   0.543
27834SOL     OW85398  11.827  10.268   3.958
27834SOL    HW185399  11.740  10.298   3.985
27834SOL    HW285400  11.815  10.237   3.868
27835SOL     OW85401  14.562   8.337   8.164
27835SOL    HW185402  14.654   8.349   8.140
27835SOL    HW285403  14.531   8.425   8.185
27836SOL     OW85404  12.149   2.516   2.653
27836SOL    HW185405  12.175   2.608   2.662
27836SOL    HW285406  12.089   2.500   2.725
27837SOL     OW85407   2.084   9.337  11.427
27837SOL    HW185408   2.078   9.379  11.512
27837SOL    HW285409   2.147   9.390  11.378
27838SOL     OW85410  10.188   9.324   2.370
27838SOL    HW185411  10.274   9.357   2.345
27838SOL    HW285412  10.127   9.366   2.310
27839SOL     OW85413   9.499  10.836   4.004
27839SOL    HW185414   9.406  10.833   4.026
27839SOL    HW285415   9.538  10.890   4.073
27840SOL     OW85416   2.338   3.702   0.085
27840SOL    HW185417   2.304   3.791   0.084
27840SOL    HW285418   2.261   3.646   0.076
27841SOL     OW85419  10.245   4.386  13.000
27841SOL    HW185420  10.288   4.467  13.026
27841SOL    HW285421  10.316   4.323  12.990
27842SOL     OW85422  14.844   2.256  13.908
27842SOL    HW185423  14.783   2.185  13.931
27842SOL    HW285424   0.037   2.235  13.955
27843SOL     OW85425   2.589   8.576   1.758
27843SOL    HW185426   2.606   8.512   1.690
27843SOL    HW285427   2.499   8.558   1.787
27844SOL     OW85428   7.422   1.658   5.137
27844SOL    HW185429   7.457   1.737   5.177
27844SOL    HW285430   7.357   1.690   5.073
27845SOL     OW85431   7.413  11.012   8.649
27845SOL    HW185432   7.424  10.922   8.677
27845SOL    HW285433   7.320  11.020   8.630
27846SOL     OW85434   2.800   9.415   1.799
27846SOL    HW185435   2.711   9.443   1.817
27846SOL    HW285436   2.803   9.324   1.828
27847SOL     OW85437   5.226   5.072   3.626
27847SOL    HW185438   5.271   5.156   3.620
27847SOL    HW285439   5.183   5.061   3.541
27848SOL     OW85440  13.341   5.764   8.002
27848SOL    HW185441  13.324   5.738   8.092
27848SOL    HW285442  13.294   5.700   7.949
27849SOL     OW85443  14.248  10.303   9.652
27849SOL    HW185444  14.242  10.214   9.620
27849SOL    HW285445  14.307  10.347   9.591
27850SOL     OW85446   1.692   2.111   9.835
27850SOL    HW185447   1.650   2.195   9.857
27850SOL    HW285448   1.620   2.050   9.826
27851SOL     OW85449   0.072   5.167   5.761
27851SOL    HW185450   0.142   5.190   5.699
27851SOL    HW285451  14.879   5.175   5.710
27852SOL     OW85452  13.523  11.230   0.825
27852SOL    HW185453  13.545  11.305   0.770
27852SOL    HW285454  13.522  11.266   0.914
27853SOL     OW85455   7.855   1.577  13.612
27853SOL    HW185456   7.905   1.503  13.579
27853SOL    HW285457   7.860   1.569  13.708
27854SOL     OW85458   9.636   5.051   6.612
27854SOL    HW185459   9.691   4.978   6.640
27854SOL    HW285460   9.617   5.032   6.520
27855SOL     OW85461   3.985  13.748   5.173
27855SOL    HW185462   3.970  13.841   5.191
27855SOL    HW285463   3.919  13.703   5.225
27856SOL     OW85464   5.582   8.898   5.296
27856SOL    HW185465   5.530   8.913   5.375
27856SOL    HW285466   5.662   8.947   5.310
27857SOL     OW85467   9.491  12.870   0.721
27857SOL    HW185468   9.526  12.882   0.633
27857SOL    HW285469   9.560  12.903   0.779
27858SOL     OW85470  13.555   5.236   1.102
27858SOL    HW185471  13.603   5.316   1.121
27858SOL    HW285472  13.531   5.243   1.010
27859SOL     OW85473   0.729  11.744  10.960
27859SOL    HW185474   0.637  11.722  10.977
27859SOL    HW285475   0.777  11.706  11.033
27860SOL     OW85476   9.220   2.513   3.346
27860SOL    HW185477   9.181   2.471   3.268
27860SOL    HW285478   9.223   2.606   3.323
27861SOL     OW85479  11.813   1.857   0.791
27861SOL    HW185480  11.848   1.802   0.860
27861SOL    HW285481  11.720   1.866   0.812
27862SOL     OW85482  10.984   8.065   6.217
27862SOL    HW185483  10.954   8.048   6.128
27862SOL    HW285484  11.066   8.113   6.206
27863SOL     OW85485   1.304   5.641  10.964
27863SOL    HW185486   1.263   5.707  11.020
27863SOL    HW285487   1.363   5.691  10.907
27864SOL     OW85488   5.644  10.692   7.204
27864SOL    HW185489   5.564  10.642   7.222
27864SOL    HW285490   5.620  10.782   7.225
27865SOL     OW85491   0.627  11.428  13.078
27865SOL    HW185492   0.683  11.502  13.055
27865SOL    HW285493   0.678  11.350  13.052
27866SOL     OW85494   4.869  12.587   2.206
27866SOL    HW185495   4.861  12.664   2.151
27866SOL    HW285496   4.873  12.514   2.144
27867SOL     OW85497   0.250   9.215   4.285
27867SOL    HW185498   0.246   9.165   4.203
27867SOL    HW285499   0.163   9.253   4.295
27868SOL     OW85500   3.469  11.020   6.978
27868SOL    HW185501   3.508  11.000   6.893
27868SOL    HW285502   3.475  10.937   7.026
27869SOL     OW85503   3.982   8.106  11.568
27869SOL    HW185504   3.975   8.200  11.582
27869SOL    HW285505   3.938   8.067  11.643
27870SOL     OW85506  11.310   0.141   9.883
27870SOL    HW185507  11.229   0.150   9.933
27870SOL    HW285508  11.365   0.085   9.936
27871SOL     OW85509   9.696  11.681  12.185
27871SOL    HW185510   9.615  11.633  12.171
27871SOL    HW285511   9.669  11.769  12.210
27872SOL     OW85512   6.174  10.810  13.634
27872SOL    HW185513   6.253  10.852  13.668
27872SOL    HW285514   6.120  10.882  13.601
27873SOL     OW85515   2.453   5.910   8.267
27873SOL    HW185516   2.451   5.849   8.193
27873SOL    HW285517   2.526   5.879   8.321
27874SOL     OW85518  10.097   9.917  13.739
27874SOL    HW185519  10.181   9.960  13.720
27874SOL    HW285520  10.122   9.830  13.768
27875SOL     OW85521  14.868   8.910   3.260
27875SOL    HW185522  14.791   8.892   3.206
27875SOL    HW285523  14.833   8.940   3.344
27876SOL     OW85524   1.657  13.065   9.988
27876SOL    HW185525   1.698  13.138  10.033
27876SOL    HW285526   1.571  13.057  10.029
27877SOL     OW85527   4.074  12.378   6.338
27877SOL    HW185528   4.015  12.453   6.344
27877SOL    HW285529   4.107  12.380   6.248
27878SOL     OW85530   5.748   8.124   3.018
27878SOL    HW185531   5.777   8.210   3.049
27878SOL    HW285532   5.812   8.100   2.951
27879SOL     OW85533  13.272  13.828   9.423
27879SOL    HW185534  13.320  13.745   9.423
27879SOL    HW285535  13.212  13.821   9.349
27880SOL     OW85536   9.258   0.218   9.719
27880SOL    HW185537   9.257   0.232   9.814
27880SOL    HW285538   9.177   0.169   9.701
27881SOL     OW85539   5.374   9.853   1.485
27881SOL    HW185540   5.354   9.804   1.565
27881SOL    HW285541   5.390   9.786   1.419
27882SOL     OW85542   7.798   9.395   9.588
27882SOL    HW185543   7.812   9.449   9.666
27882SOL    HW285544   7.839   9.311   9.610
27883SOL     OW85545   5.617   9.733  12.990
27883SOL    HW185546   5.676   9.715  12.916
27883SOL    HW285547   5.620   9.653  13.043
27884SOL     OW85548   3.312   1.835   8.312
27884SOL    HW185549   3.367   1.757   8.320
27884SOL    HW285550   3.224   1.806   8.334
27885SOL     OW85551   7.087  10.744   6.189
27885SOL    HW185552   7.147  10.700   6.249
27885SOL    HW285553   7.104  10.703   6.104
27886SOL     OW85554  11.762   2.466  13.257
27886SOL    HW185555  11.836   2.496  13.309
27886SOL    HW285556  11.793   2.470  13.167
27887SOL     OW85557   2.083  14.882   9.829
27887SOL    HW185558   2.064  14.818   9.897
27887SOL    HW285559   2.163   0.038   9.858
27888SOL     OW85560   1.076   3.584   3.609
27888SOL    HW185561   1.084   3.675   3.639
27888SOL    HW285562   1.062   3.592   3.514
27889SOL     OW85563   6.375   3.046  14.266
27889SOL    HW185564   6.359   2.958  14.300
27889SOL    HW285565   6.467   3.044  14.237
27890SOL     OW85566   1.061   0.433   0.390
27890SOL    HW185567   1.024   0.349   0.418
27890SOL    HW285568   1.055   0.430   0.295
27891SOL     OW85569  13.997   2.784   2.267
27891SOL    HW185570  13.979   2.725   2.194
27891SOL    HW285571  13.917   2.837   2.275
27892SOL     OW85572   2.686  10.131   9.021
27892SOL    HW185573   2.752  10.127   9.090
27892SOL    HW285574   2.664  10.040   9.002
27893SOL     OW85575   1.446  14.678  12.230
27893SOL    HW185576   1.353  14.683  12.251
27893SOL    HW285577   1.449  14.651  12.138
27894SOL     OW85578   6.384   5.455  11.616
27894SOL    HW185579   6.381   5.432  11.523
27894SOL    HW285580   6.471   5.494  11.628
27895SOL     OW85581   4.634   2.345   3.353
27895SOL    HW185582   4.696   2.414   3.328
27895SOL    HW285583   4.594   2.318   3.271
27896SOL     OW85584   0.980   1.594  14.012
27896SOL    HW185585   0.953   1.645  13.936
27896SOL    HW285586   0.917   1.522  14.016
27897SOL     OW85587   3.591   8.007   1.470
27897SOL    HW185588   3.638   7.952   1.532
27897SOL    HW285589   3.623   7.980   1.384
27898SOL     OW85590   5.598  11.264   9.753
27898SOL    HW185591   5.627  11.247   9.664
27898SOL    HW285592   5.669  11.231   9.808
27899SOL     OW85593  10.011   5.989   5.616
27899SOL    HW185594   9.981   6.031   5.536
27899SOL    HW285595  10.059   6.057   5.663
27900SOL     OW85596   4.922  10.859   1.196
27900SOL    HW185597   4.992  10.883   1.257
27900SOL    HW285598   4.858  10.814   1.250
27901SOL     OW85599  12.424   9.473   5.079
27901SOL    HW185600  12.516   9.456   5.103
27901SOL    HW285601  12.425   9.560   5.040
27902SOL     OW85602   0.508   1.080   9.641
27902SOL    HW185603   0.529   1.036   9.559
27902SOL    HW285604   0.506   1.173   9.619
27903SOL     OW85605  11.072  13.185   4.228
27903SOL    HW185606  11.160  13.201   4.196
27903SOL    HW285607  11.067  13.234   4.310
27904SOL     OW85608   1.110  11.845   2.139
27904SOL    HW185609   1.132  11.911   2.204
27904SOL    HW285610   1.024  11.813   2.165
27905SOL     OW85611   6.332  12.070  14.395
27905SOL    HW185612   6.414  12.097  14.437
27905SOL    HW285613   6.326  12.124  14.317
27906SOL     OW85614  12.963   0.297   4.360
27906SOL    HW185615  12.910   0.223   4.390
27906SOL    HW285616  13.026   0.258   4.299
27907SOL     OW85617  14.563   1.752  14.411
27907SOL    HW185618  14.511   1.725  14.335
27907SOL    HW285619  14.621   1.820  14.376
27908SOL     OW85620  11.675   8.338   5.158
27908SOL    HW185621  11.767   8.337   5.131
27908SOL    HW285622  11.643   8.250   5.137
27909SOL     OW85623  13.748  14.036   1.550
27909SOL    HW185624  13.748  14.039   1.454
27909SOL    HW285625  13.682  14.100   1.576
27910SOL     OW85626   1.283   4.259   7.373
27910SOL    HW185627   1.291   4.167   7.348
27910SOL    HW285628   1.326   4.306   7.301
27911SOL     OW85629  11.375   6.003  12.702
27911SOL    HW185630  11.379   6.042  12.615
27911SOL    HW285631  11.464   6.009  12.736
27912SOL     OW85632  13.257   8.818   5.631
27912SOL    HW185633  13.204   8.770   5.567
27912SOL    HW285634  13.345   8.817   5.594
27913SOL     OW85635   5.463   6.206  14.812
27913SOL    HW185636   5.464   6.240  14.723
27913SOL    HW285637   5.411   6.270  14.861
27914SOL     OW85638   5.770   9.088   3.830
27914SOL    HW185639   5.737   9.086   3.741
27914SOL    HW285640   5.866   9.090   3.820
27915SOL     OW85641   9.511   3.529   7.302
27915SOL    HW185642   9.458   3.501   7.227
27915SOL    HW285643   9.594   3.484   7.292
27916SOL     OW85644   5.954   1.650   8.334
27916SOL    HW185645   5.893   1.713   8.296
27916SOL    HW285646   6.035   1.663   8.286
27917SOL     OW85647   9.058   7.422  13.441
27917SOL    HW185648   9.051   7.517  13.435
27917SOL    HW285649   9.091   7.406  13.529
27918SOL     OW85650   3.004  12.487  12.634
27918SOL    HW185651   2.930  12.446  12.589
27918SOL    HW285652   3.031  12.559  12.577
27919SOL     OW85653   6.863   0.389   2.037
27919SOL    HW185654   6.957   0.372   2.032
27919SOL    HW285655   6.842   0.380   2.130
27920SOL     OW85656   8.964  12.148   8.910
27920SOL    HW185657   9.018  12.102   8.845
27920SOL    HW285658   9.020  12.156   8.987
27921SOL     OW85659   9.561   6.967   2.120
27921SOL    HW185660   9.512   6.990   2.199
27921SOL    HW285661   9.521   6.886   2.090
27922SOL     OW85662   7.929   8.189  14.485
27922SOL    HW185663   7.917   8.113  14.427
27922SOL    HW285664   8.016   8.222  14.464
27923SOL     OW85665   6.589   3.940   3.221
27923SOL    HW185666   6.517   3.880   3.239
27923SOL    HW285667   6.650   3.929   3.294
27924SOL     OW85668  14.541   4.216  10.951
27924SOL    HW185669  14.581   4.136  10.917
27924SOL    HW285670  14.513   4.263  10.872
27925SOL     OW85671   7.926  12.015   5.235
27925SOL    HW185672   7.895  12.106   5.234
27925SOL    HW285673   7.870  11.970   5.171
27926SOL     OW85674   0.375  10.417   8.824
27926SOL    HW185675   0.332  10.332   8.839
27926SOL    HW285676   0.390  10.452   8.911
27927SOL     OW85677   2.699   4.175  14.258
27927SOL    HW185678   2.651   4.139  14.333
27927SOL    HW285679   2.726   4.098  14.208
27928SOL     OW85680   0.855   0.479   5.333
27928SOL    HW185681   0.814   0.515   5.412
27928SOL    HW285682   0.891   0.395   5.361
27929SOL     OW85683   2.577   7.172  11.532
27929SOL    HW185684   2.539   7.092  11.569
27929SOL    HW285685   2.502   7.227  11.513
27930SOL     OW85686  10.660   2.853   5.293
27930SOL    HW185687  10.606   2.797   5.237
27930SOL    HW285688  10.749   2.839   5.263
27931SOL     OW85689   6.813   8.176  14.604
27931SOL    HW185690   6.860   8.116  14.546
27931SOL    HW285691   6.733   8.129  14.627
27932SOL     OW85692   4.919  10.677   9.177
27932SOL    HW185693   4.911  10.773   9.172
27932SOL    HW285694   4.839  10.644   9.136
27933SOL     OW85695   0.379   0.782  10.545
27933SOL    HW185696   0.441   0.731  10.493
27933SOL    HW285697   0.432   0.822  10.614
27934SOL     OW85698   0.761   3.159   5.269
27934SOL    HW185699   0.670   3.128   5.268
27934SOL    HW285700   0.763   3.229   5.333
27935SOL     OW85701  10.804  12.746  11.555
27935SOL    HW185702  10.800  12.735  11.650
27935SOL    HW285703  10.833  12.836  11.543
27936SOL     OW85704   4.752   1.904   4.566
27936SOL    HW185705   4.731   1.997   4.567
27936SOL    HW285706   4.688   1.864   4.624
27937SOL     OW85707   3.996  10.997  13.313
27937SOL    HW185708   4.006  10.903  13.324
27937SOL    HW285709   4.062  11.035  13.372
27938SOL     OW85710   3.319   2.387   7.144
27938SOL    HW185711   3.333   2.372   7.238
27938SOL    HW285712   3.344   2.304   7.103
27939SOL     OW85713   9.814   0.619   4.544
27939SOL    HW185714   9.850   0.686   4.602
27939SOL    HW285715   9.884   0.601   4.482
27940SOL     OW85716  14.551  14.574   0.192
27940SOL    HW185717  14.456  14.578   0.189
27940SOL    HW285718  14.571  14.481   0.178
27941SOL     OW85719   1.157   0.155  11.120
27941SOL    HW185720   1.129   0.231  11.069
27941SOL    HW285721   1.191   0.094  11.055
27942SOL     OW85722   2.449   9.124   9.186
27942SOL    HW185723   2.512   9.128   9.257
27942SOL    HW285724   2.413   9.036   9.191
27943SOL     OW85725   8.251   1.956   4.673
27943SOL    HW185726   8.334   1.984   4.712
27943SOL    HW285727   8.271   1.947   4.579
27944SOL     OW85728   9.198   6.607   2.622
27944SOL    HW185729   9.236   6.534   2.672
27944SOL    HW285730   9.116   6.572   2.588
27945SOL     OW85731  13.145  14.811  14.886
27945SOL    HW185732  13.104  14.835   0.082
27945SOL    HW285733  13.114  14.722  14.870
27946SOL     OW85734   6.112  12.180   8.073
27946SOL    HW185735   6.092  12.166   7.980
27946SOL    HW285736   6.179  12.248   8.074
27947SOL     OW85737  10.630   2.667  12.227
27947SOL    HW185738  10.676   2.749  12.213
27947SOL    HW285739  10.554   2.672  12.170
27948SOL     OW85740  10.922  10.279   6.399
27948SOL    HW185741  10.830  10.299   6.378
27948SOL    HW285742  10.918  10.224   6.477
27949SOL     OW85743  14.518   9.317   6.768
27949SOL    HW185744  14.435   9.341   6.727
27949SOL    HW285745  14.493   9.284   6.854
27950SOL     OW85746  13.299  10.994   6.633
27950SOL    HW185747  13.229  11.003   6.568
27950SOL    HW285748  13.277  10.914   6.681
27951SOL     OW85749   8.831   7.508   5.785
27951SOL    HW185750   8.740   7.503   5.814
27951SOL    HW285751   8.840   7.596   5.750
27952SOL     OW85752   3.584   6.743   2.624
27952SOL    HW185753   3.578   6.655   2.588
27952SOL    HW285754   3.508   6.789   2.588
27953SOL     OW85755   5.007   6.473   9.713
27953SOL    HW185756   5.103   6.477   9.705
27953SOL    HW285757   4.990   6.390   9.758
27954SOL     OW85758   3.277   6.133   9.272
27954SOL    HW185759   3.342   6.062   9.274
27954SOL    HW285760   3.293   6.178   9.189
27955SOL     OW85761   2.500   1.896  12.257
27955SOL    HW185762   2.577   1.876  12.204
27955SOL    HW285763   2.468   1.980  12.223
27956SOL     OW85764   7.361   2.951   7.937
27956SOL    HW185765   7.405   2.885   7.884
27956SOL    HW285766   7.325   2.902   8.011
27957SOL     OW85767  13.205  11.090   2.979
27957SOL    HW185768  13.209  11.180   2.947
27957SOL    HW285769  13.237  11.037   2.906
27958SOL     OW85770   4.742   0.103  12.077
27958SOL    HW185771   4.727   0.162  12.151
27958SOL    HW285772   4.694   0.143  12.005
27959SOL     OW85773   4.051  14.745  13.780
27959SOL    HW185774   4.041  14.821  13.838
27959SOL    HW285775   3.966  14.701  13.784
27960SOL     OW85776   2.031  10.337   9.768
27960SOL    HW185777   2.043  10.408   9.705
27960SOL    HW285778   2.038  10.257   9.717
27961SOL     OW85779   2.578   4.538   0.080
27961SOL    HW185780   2.584   4.575   0.168
27961SOL    HW285781   2.614   4.604   0.022
27962SOL     OW85782  14.571   7.464   0.748
27962SOL    HW185783  14.570   7.374   0.781
27962SOL    HW285784  14.612   7.514   0.818
27963SOL     OW85785  11.042  13.153   4.600
27963SOL    HW185786  10.975  13.093   4.629
27963SOL    HW285787  11.120  13.099   4.589
27964SOL     OW85788   1.437   1.205  12.143
27964SOL    HW185789   1.417   1.155  12.063
27964SOL    HW285790   1.391   1.288  12.131
27965SOL     OW85791   8.106   5.536   4.988
27965SOL    HW185792   8.114   5.619   5.036
27965SOL    HW285793   8.194   5.500   4.989
27966SOL     OW85794  10.310   8.602   2.249
27966SOL    HW185795  10.263   8.677   2.213
27966SOL    HW285796  10.251   8.528   2.233
27967SOL     OW85797  12.675   7.604  10.307
27967SOL    HW185798  12.588   7.601  10.268
27967SOL    HW285799  12.726   7.542  10.257
27968SOL     OW85800   7.327   0.678  12.350
27968SOL    HW185801   7.310   0.588  12.376
27968SOL    HW285802   7.400   0.671  12.289
27969SOL     OW85803   0.190   2.337   9.180
27969SOL    HW185804   0.228   2.274   9.120
27969SOL    HW285805   0.141   2.398   9.124
27970SOL     OW85806   8.537   7.803  10.781
27970SOL    HW185807   8.624   7.764  10.774
27970SOL    HW285808   8.497   7.788  10.695
27971SOL     OW85809   6.069  10.602   0.389
27971SOL    HW185810   6.165  10.606   0.395
27971SOL    HW285811   6.040  10.599   0.480
27972SOL     OW85812   5.175  13.337  12.071
27972SOL    HW185813   5.155  13.430  12.080
27972SOL    HW285814   5.171  13.322  11.976
27973SOL     OW85815   3.284   1.336  14.662
27973SOL    HW185816   3.236   1.302  14.737
27973SOL    HW285817   3.225   1.400  14.623
27974SOL     OW85818   4.431  12.811   9.123
27974SOL    HW185819   4.504  12.750   9.134
27974SOL    HW285820   4.446  12.850   9.037
27975SOL     OW85821   5.553   3.297   6.090
27975SOL    HW185822   5.505   3.358   6.035
27975SOL    HW285823   5.510   3.302   6.175
27976SOL     OW85824  14.320   2.110  12.417
27976SOL    HW185825  14.292   2.081  12.504
27976SOL    HW285826  14.377   2.040  12.385
27977SOL     OW85827   3.454   1.197   6.687
27977SOL    HW185828   3.524   1.141   6.654
27977SOL    HW285829   3.431   1.160   6.772
27978SOL     OW85830   5.713  10.185   9.612
27978SOL    HW185831   5.689  10.199   9.520
27978SOL    HW285832   5.632  10.156   9.654
27979SOL     OW85833   7.647   5.024   1.596
27979SOL    HW185834   7.742   5.023   1.608
27979SOL    HW285835   7.625   4.936   1.565
27980SOL     OW85836   2.167  14.704   9.102
27980SOL    HW185837   2.091  14.722   9.047
27980SOL    HW285838   2.145  14.623   9.148
27981SOL     OW85839   9.320   8.915   0.458
27981SOL    HW185840   9.350   8.922   0.548
27981SOL    HW285841   9.294   9.003   0.434
27982SOL     OW85842   0.960   1.827   2.836
27982SOL    HW185843   1.047   1.817   2.797
27982SOL    HW285844   0.958   1.918   2.867
27983SOL     OW85845   0.535   4.068   6.741
27983SOL    HW185846   0.496   4.143   6.785
27983SOL    HW285847   0.629   4.087   6.740
27984SOL     OW85848   5.720  10.225  12.634
27984SOL    HW185849   5.645  10.171  12.612
27984SOL    HW285850   5.728  10.218  12.729
27985SOL     OW85851   2.856   0.742  11.170
27985SOL    HW185852   2.844   0.834  11.195
27985SOL    HW285853   2.799   0.693  11.229
27986SOL     OW85854   9.979   3.440   3.647
27986SOL    HW185855   9.894   3.483   3.647
27986SOL    HW285856   9.977   3.381   3.571
27987SOL     OW85857  11.107  11.367   8.517
27987SOL    HW185858  11.025  11.388   8.473
27987SOL    HW285859  11.082  11.311   8.591
27988SOL     OW85860   3.760   6.732  13.181
27988SOL    HW185861   3.737   6.713  13.090
27988SOL    HW285862   3.855   6.724  13.184
27989SOL     OW85863   4.734   3.640   2.725
27989SOL    HW185864   4.826   3.654   2.705
27989SOL    HW285865   4.715   3.703   2.795
27990SOL     OW85866  13.266   4.718  10.972
27990SOL    HW185867  13.195   4.768  10.931
27990SOL    HW285868  13.284   4.764  11.054
27991SOL     OW85869  12.430   3.580  10.350
27991SOL    HW185870  12.339   3.610  10.352
27991SOL    HW285871  12.478   3.647  10.399
27992SOL     OW85872   9.782  14.202  13.068
27992SOL    HW185873   9.837  14.277  13.090
27992SOL    HW285874   9.693  14.230  13.091
27993SOL     OW85875  10.112   8.370   8.551
27993SOL    HW185876  10.170   8.423   8.496
27993SOL    HW285877  10.166   8.347   8.627
27994SOL     OW85878   8.985   0.685   7.880
27994SOL    HW185879   8.891   0.668   7.875
27994SOL    HW285880   9.002   0.748   7.811
27995SOL     OW85881   7.678   0.815  12.881
27995SOL    HW185882   7.654   0.877  12.812
27995SOL    HW285883   7.736   0.752  12.838
27996SOL     OW85884  14.017   8.256  13.632
27996SOL    HW185885  14.105   8.227  13.658
27996SOL    HW285886  14.024   8.351  13.626
27997SOL     OW85887  12.817  12.427  12.503
27997SOL    HW185888  12.905  12.458  12.482
27997SOL    HW285889  12.808  12.347  12.451
27998SOL     OW85890   7.269   7.436   6.226
27998SOL    HW185891   7.219   7.369   6.272
27998SOL    HW285892   7.247   7.517   6.270
27999SOL     OW85893  11.106  10.026   9.465
27999SOL    HW185894  11.023   9.978   9.468
27999SOL    HW285895  11.169   9.967   9.507
28000SOL     OW85896   4.628  11.563   6.686
28000SOL    HW185897   4.580  11.489   6.648
28000SOL    HW285898   4.638  11.624   6.613
28001SOL     OW85899   6.662  13.732   8.523
28001SOL    HW185900   6.660  13.796   8.452
28001SOL    HW285901   6.618  13.775   8.596
28002SOL     OW85902   0.960  12.434   0.057
28002SOL    HW185903   1.046  12.392   0.063
28002SOL    HW285904   0.898  12.365   0.078
28003SOL     OW85905  12.492  13.783  13.112
28003SOL    HW185906  12.465  13.753  13.025
28003SOL    HW285907  12.485  13.879  13.107
28004SOL     OW85908   9.522  12.289   7.113
28004SOL    HW185909   9.601  12.255   7.071
28004SOL    HW285910   9.487  12.352   7.050
28005SOL     OW85911  11.907  12.643  14.773
28005SOL    HW185912  11.966  12.647  14.848
28005SOL    HW285913  11.847  12.717  14.786
28006SOL     OW85914   9.809   2.433   6.709
28006SOL    HW185915   9.836   2.431   6.801
28006SOL    HW285916   9.724   2.477   6.711
28007SOL     OW85917   3.905   7.727  14.285
28007SOL    HW185918   3.846   7.654  14.306
28007SOL    HW285919   3.916   7.773  14.368
28008SOL     OW85920  14.132  14.405   4.870
28008SOL    HW185921  14.156  14.455   4.947
28008SOL    HW285922  14.051  14.443   4.839
28009SOL     OW85923  14.185   8.253  13.996
28009SOL    HW185924  14.227   8.222  13.915
28009SOL    HW285925  14.257   8.264  14.058
28010SOL     OW85926  13.638  12.898   0.089
28010SOL    HW185927  13.730  12.873   0.086
28010SOL    HW285928  13.617  12.900   0.183
28011SOL     OW85929   4.040  10.831   3.261
28011SOL    HW185930   4.092  10.773   3.316
28011SOL    HW285931   3.993  10.773   3.202
28012SOL     OW85932   0.203  12.656   7.484
28012SOL    HW185933   0.255  12.587   7.526
28012SOL    HW285934   0.135  12.608   7.436
28013SOL     OW85935   5.267   3.748   2.948
28013SOL    HW185936   5.278   3.816   3.014
28013SOL    HW285937   5.353   3.705   2.942
28014SOL     OW85938   4.167  11.560   7.964
28014SOL    HW185939   4.186  11.468   7.982
28014SOL    HW285940   4.140  11.597   8.048
28015SOL     OW85941   8.356   2.270   2.110
28015SOL    HW185942   8.438   2.228   2.138
28015SOL    HW285943   8.384   2.349   2.065
28016SOL     OW85944   4.824  11.458   3.274
28016SOL    HW185945   4.821  11.460   3.370
28016SOL    HW285946   4.757  11.521   3.248
28017SOL     OW85947   6.926   6.686   4.558
28017SOL    HW185948   6.958   6.599   4.584
28017SOL    HW285949   6.901   6.728   4.641
28018SOL     OW85950  11.217   8.198   6.132
28018SOL    HW185951  11.297   8.222   6.084
28018SOL    HW285952  11.173   8.282   6.146
28019SOL     OW85953   7.891  10.710   7.464
28019SOL    HW185954   7.822  10.654   7.498
28019SOL    HW285955   7.962  10.651   7.441
28020SOL     OW85956   0.544  13.102   4.079
28020SOL    HW185957   0.484  13.173   4.056
28020SOL    HW285958   0.539  13.097   4.175
28021SOL     OW85959   8.810   0.535   0.138
28021SOL    HW185960   8.868   0.472   0.182
28021SOL    HW285961   8.835   0.530   0.046
28022SOL     OW85962   8.001   0.762   6.513
28022SOL    HW185963   7.941   0.801   6.576
28022SOL    HW285964   8.086   0.801   6.532
28023SOL     OW85965  12.930   2.270   6.000
28023SOL    HW185966  12.942   2.306   5.912
28023SOL    HW285967  12.960   2.340   6.059
28024SOL     OW85968   4.623  14.069   5.020
28024SOL    HW185969   4.674  13.997   5.056
28024SOL    HW285970   4.536  14.032   5.004
28025SOL     OW85971  12.432   5.968   0.374
28025SOL    HW185972  12.377   5.891   0.393
28025SOL    HW285973  12.393   6.006   0.295
28026SOL     OW85974   1.282   4.670   3.222
28026SOL    HW185975   1.355   4.626   3.179
28026SOL    HW285976   1.286   4.760   3.190
28027SOL     OW85977  10.329  14.010   2.516
28027SOL    HW185978  10.369  14.087   2.555
28027SOL    HW285979  10.392  13.939   2.530
28028SOL     OW85980   7.184   4.743   4.200
28028SOL    HW185981   7.138   4.817   4.239
28028SOL    HW285982   7.225   4.698   4.274
28029SOL     OW85983   8.413  10.370  12.720
28029SOL    HW185984   8.435  10.356  12.812
28029SOL    HW285985   8.493  10.348  12.673
28030SOL     OW85986  11.011   3.088  14.581
28030SOL    HW185987  10.992   3.004  14.539
28030SOL    HW285988  11.088   3.121  14.534
28031SOL     OW85989  10.577   0.113  10.817
28031SOL    HW185990  10.542   0.057  10.748
28031SOL    HW285991  10.505   0.173  10.838
28032SOL     OW85992   5.551   3.792   8.329
28032SOL    HW185993   5.529   3.877   8.291
28032SOL    HW285994   5.481   3.733   8.300
28033SOL     OW85995  10.747   1.889   1.261
28033SOL    HW185996  10.697   1.809   1.279
28033SOL    HW285997  10.684   1.960   1.275
28034SOL     OW85998  12.105   0.606   0.653
28034SOL    HW185999  12.098   0.511   0.662
28034SOL    HW286000  12.044   0.641   0.718
28035SOL     OW86001   9.507  12.728   4.620
28035SOL    HW186002   9.516  12.633   4.621
28035SOL    HW286003   9.487  12.750   4.529
28036SOL     OW86004  11.606   3.001   4.082
28036SOL    HW186005  11.565   3.050   4.152
28036SOL    HW286006  11.659   2.934   4.126
28037SOL     OW86007  14.320   9.164   1.697
28037SOL    HW186008  14.300   9.088   1.643
28037SOL    HW286009  14.237   9.213   1.701
28038SOL     OW86010   4.826   9.017   3.513
28038SOL    HW186011   4.913   9.023   3.472
28038SOL    HW286012   4.845   9.002   3.606
28039SOL     OW86013   2.605   1.102  12.759
28039SOL    HW186014   2.591   1.106  12.854
28039SOL    HW286015   2.519   1.084  12.722
28040SOL     OW86016   1.416   7.488   6.014
28040SOL    HW186017   1.387   7.418   6.073
28040SOL    HW286018   1.464   7.443   5.945
28041SOL     OW86019  14.829   4.959  11.109
28041SOL    HW186020   0.015   5.001  11.065
28041SOL    HW286021  14.866   4.926  11.191
28042SOL     OW86022  11.589   6.803  11.699
28042SOL    HW186023  11.556   6.865  11.764
28042SOL    HW286024  11.627   6.732  11.751
28043SOL     OW86025   9.495  10.932   5.335
28043SOL    HW186026   9.445  10.882   5.271
28043SOL    HW286027   9.564  10.975   5.284
28044SOL     OW86028   8.539   4.911   6.694
28044SOL    HW186029   8.486   4.912   6.614
28044SOL    HW286030   8.601   4.983   6.683
28045SOL     OW86031   5.837   7.896   2.708
28045SOL    HW186032   5.900   7.958   2.746
28045SOL    HW286033   5.864   7.886   2.617
28046SOL     OW86034  13.738  14.041  11.488
28046SOL    HW186035  13.731  14.080  11.401
28046SOL    HW286036  13.721  13.948  11.475
28047SOL     OW86037  12.265  11.668   9.718
28047SOL    HW186038  12.266  11.581   9.678
28047SOL    HW286039  12.355  11.683   9.746
28048SOL     OW86040  10.130   1.688  10.867
28048SOL    HW186041  10.105   1.691  10.960
28048SOL    HW286042  10.081   1.614  10.831
28049SOL     OW86043   9.724   9.467   5.033
28049SOL    HW186044   9.800   9.470   5.092
28049SOL    HW286045   9.760   9.493   4.947
28050SOL     OW86046   9.617   2.034   3.388
28050SOL    HW186047   9.688   1.976   3.360
28050SOL    HW286048   9.628   2.043   3.482
28051SOL     OW86049   8.209  13.031   7.543
28051SOL    HW186050   8.192  12.972   7.617
28051SOL    HW286051   8.126  13.038   7.498
28052SOL     OW86052  11.287   0.991  12.130
28052SOL    HW186053  11.292   1.064  12.068
28052SOL    HW286054  11.207   1.008  12.180
28053SOL     OW86055   1.403  14.031   7.792
28053SOL    HW186056   1.311  14.053   7.802
28053SOL    HW286057   1.433  14.087   7.720
28054SOL     OW86058   1.555  13.172   4.273
28054SOL    HW186059   1.528  13.255   4.233
28054SOL    HW286060   1.581  13.117   4.200
28055SOL     OW86061   5.504   0.867   8.101
28055SOL    HW186062   5.513   0.800   8.169
28055SOL    HW286063   5.419   0.908   8.118
28056SOL     OW86064  11.021   1.890   6.153
28056SOL    HW186065  11.056   1.848   6.232
28056SOL    HW286066  11.090   1.950   6.126
28057SOL     OW86067   8.323  13.350  12.079
28057SOL    HW186068   8.287  13.295  12.148
28057SOL    HW286069   8.248  13.375  12.026
28058SOL     OW86070  13.481  10.664  10.596
28058SOL    HW186071  13.419  10.624  10.536
28058SOL    HW286072  13.567  10.636  10.564
28059SOL     OW86073   4.073   3.570   2.979
28059SOL    HW186074   4.104   3.496   3.031
28059SOL    HW286075   4.059   3.640   3.043
28060SOL     OW86076   2.532   5.626  11.026
28060SOL    HW186077   2.531   5.535  11.054
28060SOL    HW286078   2.623   5.644  11.002
28061SOL     OW86079   4.285   4.881   6.515
28061SOL    HW186080   4.209   4.910   6.565
28061SOL    HW286081   4.337   4.830   6.578
28062SOL     OW86082   7.050  12.761  12.361
28062SOL    HW186083   7.117  12.807  12.311
28062SOL    HW286084   7.073  12.778  12.453
28063SOL     OW86085   8.679   1.047   8.705
28063SOL    HW186086   8.709   1.137   8.720
28063SOL    HW286087   8.687   1.005   8.791
28064SOL     OW86088   3.988   5.303  13.422
28064SOL    HW186089   4.017   5.259  13.341
28064SOL    HW286090   3.933   5.375  13.391
28065SOL     OW86091   5.923  14.798  10.178
28065SOL    HW186092   5.911  14.872  10.119
28065SOL    HW286093   5.838  14.789  10.222
28066SOL     OW86094   6.303   7.798   9.872
28066SOL    HW186095   6.393   7.789   9.903
28066SOL    HW286096   6.264   7.863   9.930
28067SOL     OW86097   0.210  10.689   5.954
28067SOL    HW186098   0.168  10.663   5.872
28067SOL    HW286099   0.149  10.751   5.994
28068SOL     OW86100  11.458   9.760   5.947
28068SOL    HW186101  11.507   9.740   5.866
28068SOL    HW286102  11.429   9.675   5.978
28069SOL     OW86103   0.459  10.865   1.575
28069SOL    HW186104   0.370  10.870   1.540
28069SOL    HW286105   0.448  10.884   1.668
28070SOL     OW86106   4.241  10.715  13.279
28070SOL    HW186107   4.199  10.659  13.213
28070SOL    HW286108   4.199  10.690  13.361
28071SOL     OW86109   3.446   8.470  10.513
28071SOL    HW186110   3.365   8.474  10.563
28071SOL    HW286111   3.507   8.421  10.569
28072SOL     OW86112  13.654   1.742  11.770
28072SOL    HW186113  13.738   1.721  11.730
28072SOL    HW286114  13.676   1.790  11.850
28073SOL     OW86115   3.819   5.140  11.072
28073SOL    HW186116   3.796   5.165  10.982
28073SOL    HW286117   3.911   5.116  11.067
28074SOL     OW86118   2.332   2.166  11.653
28074SOL    HW186119   2.287   2.181  11.736
28074SOL    HW286120   2.348   2.072  11.651
28075SOL     OW86121   7.799   6.144  12.429
28075SOL    HW186122   7.831   6.197  12.357
28075SOL    HW286123   7.703   6.150  12.424
28076SOL     OW86124   9.180  10.459   1.722
28076SOL    HW186125   9.246  10.394   1.746
28076SOL    HW286126   9.210  10.540   1.764
28077SOL     OW86127   6.745   7.877   5.749
28077SOL    HW186128   6.787   7.955   5.785
28077SOL    HW286129   6.669   7.862   5.806
28078SOL     OW86130   5.322   3.029   4.375
28078SOL    HW186131   5.361   2.992   4.296
28078SOL    HW286132   5.350   3.121   4.374
28079SOL     OW86133   7.650   4.653   9.226
28079SOL    HW186134   7.555   4.644   9.236
28079SOL    HW286135   7.661   4.737   9.181
28080SOL     OW86136   2.905   2.845   6.818
28080SOL    HW186137   2.885   2.816   6.908
28080SOL    HW286138   2.952   2.771   6.779
28081SOL     OW86139  11.416  13.061   6.477
28081SOL    HW186140  11.329  13.033   6.450
28081SOL    HW286141  11.435  13.137   6.422
28082SOL     OW86142  10.923   5.165   4.724
28082SOL    HW186143  10.907   5.077   4.757
28082SOL    HW286144  10.885   5.166   4.636
28083SOL     OW86145  11.784   2.599  11.711
28083SOL    HW186146  11.869   2.600  11.666
28083SOL    HW286147  11.723   2.564  11.645
28084SOL     OW86148   9.415  12.692   8.973
28084SOL    HW186149   9.510  12.686   8.969
28084SOL    HW286150   9.383  12.631   8.906
28085SOL     OW86151  13.782  14.752  13.432
28085SOL    HW186152  13.775  14.821  13.498
28085SOL    HW286153  13.820  14.678  13.479
28086SOL     OW86154   9.817   0.853  14.200
28086SOL    HW186155   9.794   0.945  14.188
28086SOL    HW286156   9.817   0.817  14.111
28087SOL     OW86157   7.293   0.541   8.720
28087SOL    HW186158   7.343   0.548   8.639
28087SOL    HW286159   7.339   0.474   8.771
28088SOL     OW86160   6.267   3.770  11.780
28088SOL    HW186161   6.328   3.790  11.851
28088SOL    HW286162   6.292   3.682  11.751
28089SOL     OW86163  11.368   8.924  12.707
28089SOL    HW186164  11.283   8.896  12.740
28089SOL    HW286165  11.429   8.905  12.778
28090SOL     OW86166   3.190  11.416   6.297
28090SOL    HW186167   3.231  11.365   6.367
28090SOL    HW286168   3.140  11.484   6.343
28091SOL     OW86169   3.572   8.534  13.992
28091SOL    HW186170   3.657   8.574  14.009
28091SOL    HW286171   3.555   8.551  13.900
28092SOL     OW86172   8.267   8.128   4.399
28092SOL    HW186173   8.286   8.180   4.321
28092SOL    HW286174   8.326   8.162   4.466
28093SOL     OW86175  12.615   3.520   7.598
28093SOL    HW186176  12.537   3.574   7.610
28093SOL    HW286177  12.679   3.556   7.659
28094SOL     OW86178   1.549  13.376  14.746
28094SOL    HW186179   1.611  13.347  14.679
28094SOL    HW286180   1.553  13.308  14.813
28095SOL     OW86181   5.198   8.693  11.297
28095SOL    HW186182   5.123   8.750  11.284
28095SOL    HW286183   5.172   8.610  11.257
28096SOL     OW86184   6.142  13.310  10.373
28096SOL    HW186185   6.211  13.370  10.401
28096SOL    HW286186   6.074  13.319  10.440
28097SOL     OW86187   8.514  13.496   8.172
28097SOL    HW186188   8.520  13.586   8.141
28097SOL    HW286189   8.601  13.477   8.208
28098SOL     OW86190  10.686   5.385   7.761
28098SOL    HW186191  10.760   5.443   7.779
28098SOL    HW286192  10.620   5.443   7.722
28099SOL     OW86193   5.142   6.067  13.206
28099SOL    HW186194   5.228   6.036  13.233
28099SOL    HW286195   5.154   6.095  13.116
28100SOL     OW86196   0.920   2.529   1.466
28100SOL    HW186197   0.863   2.454   1.447
28100SOL    HW286198   1.009   2.495   1.452
28101SOL     OW86199   2.362  12.114   2.571
28101SOL    HW186200   2.419  12.043   2.540
28101SOL    HW286201   2.313  12.075   2.644
28102SOL     OW86202   4.767   2.948   0.387
28102SOL    HW186203   4.755   2.941   0.292
28102SOL    HW286204   4.768   2.857   0.417
28103SOL     OW86205  12.877   8.228   3.220
28103SOL    HW186206  12.887   8.244   3.126
28103SOL    HW286207  12.964   8.243   3.257
28104SOL     OW86208  13.426   4.276   3.455
28104SOL    HW186209  13.354   4.254   3.514
28104SOL    HW286210  13.399   4.359   3.415
28105SOL     OW86211  12.286   2.277   7.618
28105SOL    HW186212  12.313   2.367   7.637
28105SOL    HW286213  12.349   2.223   7.665
28106SOL     OW86214   3.834  12.359   0.044
28106SOL    HW186215   3.818  12.448   0.011
28106SOL    HW286216   3.784  12.303  14.872
28107SOL     OW86217  11.122  10.258   3.345
28107SOL    HW186218  11.100  10.241   3.436
28107SOL    HW286219  11.196  10.201   3.327
28108SOL     OW86220   1.217   3.144   1.450
28108SOL    HW186221   1.254   3.069   1.496
28108SOL    HW286222   1.191   3.111   1.364
28109SOL     OW86223   7.389  12.597  12.470
28109SOL    HW186224   7.437  12.678  12.454
28109SOL    HW286225   7.317  12.623  12.528
28110SOL     OW86226   0.572  11.841  10.559
28110SOL    HW186227   0.496  11.782  10.562
28110SOL    HW286228   0.631  11.801  10.496
28111SOL     OW86229   9.268   5.939  13.889
28111SOL    HW186230   9.234   5.914  13.975
28111SOL    HW286231   9.211   5.896  13.826
28112SOL     OW86232   6.902   7.997   5.108
28112SOL    HW186233   6.902   7.993   5.013
28112SOL    HW286234   6.822   7.951   5.134
28113SOL     OW86235   3.090  14.135   5.982
28113SOL    HW186236   3.015  14.083   6.011
28113SOL    HW286237   3.162  14.106   6.037
28114SOL     OW86238   7.015   4.490   8.352
28114SOL    HW186239   6.929   4.531   8.342
28114SOL    HW286240   7.003   4.402   8.317
28115SOL     OW86241   6.007   7.410   3.857
28115SOL    HW186242   5.997   7.458   3.939
28115SOL    HW286243   6.101   7.392   3.851
28116SOL     OW86244   4.039   7.421  11.513
28116SOL    HW186245   4.101   7.375  11.571
28116SOL    HW286246   3.959   7.369  11.517
28117SOL     OW86247   6.750  14.369   2.039
28117SOL    HW186248   6.815  14.428   2.077
28117SOL    HW286249   6.706  14.421   1.973
28118SOL     OW86250   3.087  14.365   5.797
28118SOL    HW186251   3.166  14.322   5.766
28118SOL    HW286252   3.049  14.304   5.860
28119SOL     OW86253  12.839  14.018   5.034
28119SOL    HW186254  12.763  14.025   5.092
28119SOL    HW286255  12.834  14.097   4.980
28120SOL     OW86256  12.907   1.066   0.360
28120SOL    HW186257  12.954   1.016   0.294
28120SOL    HW286258  12.828   1.015   0.378
28121SOL     OW86259   6.248  10.211   3.288
28121SOL    HW186260   6.217  10.300   3.306
28121SOL    HW286261   6.262  10.209   3.193
28122SOL     OW86262   9.181   6.757   0.481
28122SOL    HW186263   9.230   6.722   0.407
28122SOL    HW286264   9.204   6.850   0.483
28123SOL     OW86265  13.897   9.971  13.852
28123SOL    HW186266  13.952  10.047  13.868
28123SOL    HW286267  13.816  10.007  13.817
28124SOL     OW86268  12.797   5.745  10.030
28124SOL    HW186269  12.777   5.824  10.081
28124SOL    HW286270  12.870   5.704  10.077
28125SOL     OW86271  10.135   9.193  12.879
28125SOL    HW186272  10.177   9.270  12.840
28125SOL    HW286273  10.203   9.152  12.932
28126SOL     OW86274   4.377   4.456   3.954
28126SOL    HW186275   4.343   4.420   3.873
28126SOL    HW286276   4.445   4.518   3.926
28127SOL     OW86277   9.314  12.149  14.522
28127SOL    HW186278   9.363  12.130  14.602
28127SOL    HW286279   9.225  12.119  14.541
28128SOL     OW86280  12.999   9.477  14.770
28128SOL    HW186281  12.954   9.507  14.691
28128SOL    HW286282  12.994   9.382  14.766
28129SOL     OW86283  12.222   6.918   3.672
28129SOL    HW186284  12.263   6.844   3.628
28129SOL    HW286285  12.294   6.979   3.689
28130SOL     OW86286   9.879   9.934   7.692
28130SOL    HW186287   9.877   9.962   7.784
28130SOL    HW286288   9.958   9.881   7.685
28131SOL     OW86289   2.766   0.950  10.556
28131SOL    HW186290   2.853   0.962  10.595
28131SOL    HW286291   2.756   1.025  10.498
28132SOL     OW86292   0.854  11.973   4.624
28132SOL    HW186293   0.927  11.947   4.567
28132SOL    HW286294   0.870  11.925   4.705
28133SOL     OW86295   1.551  10.237   4.020
28133SOL    HW186296   1.608  10.282   4.083
28133SOL    HW286297   1.612  10.197   3.958
28134SOL     OW86298  13.298  14.399   5.838
28134SOL    HW186299  13.230  14.449   5.884
28134SOL    HW286300  13.276  14.410   5.746
28135SOL     OW86301   0.966   7.860  11.990
28135SOL    HW186302   1.042   7.861  11.932
28135SOL    HW286303   0.907   7.925  11.954
28136SOL     OW86304   5.871   0.387   7.900
28136SOL    HW186305   5.944   0.361   7.844
28136SOL    HW286306   5.831   0.461   7.854
28137SOL     OW86307   8.502   0.507   2.929
28137SOL    HW186308   8.596   0.488   2.938
28137SOL    HW286309   8.464   0.424   2.900
28138SOL     OW86310   3.570  12.612   7.069
28138SOL    HW186311   3.476  12.628   7.075
28138SOL    HW286312   3.597  12.593   7.159
28139SOL     OW86313   3.050   0.731   5.787
28139SOL    HW186314   3.024   0.737   5.695
28139SOL    HW286315   3.073   0.820   5.812
28140SOL     OW86316   4.487   9.195   9.264
28140SOL    HW186317   4.448   9.282   9.272
28140SOL    HW286318   4.433   9.139   9.319
28141SOL     OW86319  11.915  11.876   0.877
28141SOL    HW186320  11.916  11.943   0.946
28141SOL    HW286321  11.831  11.831   0.889
28142SOL     OW86322   4.503   3.371   3.665
28142SOL    HW186323   4.488   3.462   3.639
28142SOL    HW286324   4.442   3.321   3.612
28143SOL     OW86325   5.362  10.435   5.034
28143SOL    HW186326   5.339  10.448   4.942
28143SOL    HW286327   5.293  10.378   5.068
28144SOL     OW86328  12.491   6.495   5.278
28144SOL    HW186329  12.491   6.491   5.182
28144SOL    HW286330  12.445   6.416   5.306
28145SOL     OW86331   8.953  13.591   7.268
28145SOL    HW186332   9.023  13.530   7.248
28145SOL    HW286333   8.876  13.535   7.281
28146SOL     OW86334  11.016   1.805   4.931
28146SOL    HW186335  11.002   1.738   4.998
28146SOL    HW286336  10.980   1.885   4.968
28147SOL     OW86337  13.110   1.823  10.228
28147SOL    HW186338  13.093   1.781  10.144
28147SOL    HW286339  13.033   1.877  10.244
28148SOL     OW86340  12.381   0.548   8.270
28148SOL    HW186341  12.416   0.595   8.346
28148SOL    HW286342  12.454   0.493   8.241
28149SOL     OW86343  10.944  12.229  13.419
28149SOL    HW186344  10.977  12.258  13.334
28149SOL    HW286345  10.876  12.165  13.398
28150SOL     OW86346   0.608  12.208  10.862
28150SOL    HW186347   0.654  12.143  10.916
28150SOL    HW286348   0.608  12.171  10.774
28151SOL     OW86349   8.900  10.314   1.336
28151SOL    HW186350   8.845  10.322   1.258
28151SOL    HW286351   8.895  10.399   1.378
28152SOL     OW86352   9.761  13.108   1.506
28152SOL    HW186353   9.811  13.177   1.548
28152SOL    HW286354   9.755  13.135   1.414
28153SOL     OW86355   9.154   0.006   8.084
28153SOL    HW186356   9.182   0.049   8.003
28153SOL    HW286357   9.203   0.050   8.153
28154SOL     OW86358  12.348  10.682   6.687
28154SOL    HW186359  12.419  10.696   6.624
28154SOL    HW286360  12.269  10.681   6.633
28155SOL     OW86361   7.756  12.638   5.648
28155SOL    HW186362   7.792  12.707   5.704
28155SOL    HW286363   7.795  12.656   5.562
28156SOL     OW86364  10.205   4.287   5.894
28156SOL    HW186365  10.167   4.309   5.809
28156SOL    HW286366  10.217   4.371   5.937
28157SOL     OW86367   8.756   7.705  13.510
28157SOL    HW186368   8.796   7.785  13.543
28157SOL    HW286369   8.699   7.734  13.439
28158SOL     OW86370   3.079   2.775   3.034
28158SOL    HW186371   3.062   2.834   2.960
28158SOL    HW286372   3.004   2.716   3.036
28159SOL     OW86373  10.072   7.922   6.047
28159SOL    HW186374  10.050   7.840   6.003
28159SOL    HW286375  10.166   7.932   6.035
28160SOL     OW86376  10.617   4.408  11.534
28160SOL    HW186377  10.567   4.470  11.481
28160SOL    HW286378  10.655   4.348  11.470
28161SOL     OW86379   3.583   2.819   2.395
28161SOL    HW186380   3.618   2.780   2.315
28161SOL    HW286381   3.507   2.764   2.417
28162SOL     OW86382   4.096  13.685  13.476
28162SOL    HW186383   4.132  13.616  13.421
28162SOL    HW286384   4.172  13.733  13.509
28163SOL     OW86385  10.338   7.774   5.067
28163SOL    HW186386  10.368   7.827   4.993
28163SOL    HW286387  10.408   7.711   5.082
28164SOL     OW86388   3.213  12.235  13.300
28164SOL    HW186389   3.264  12.232  13.219
28164SOL    HW286390   3.278  12.238  13.370
28165SOL     OW86391   0.578   5.346  10.360
28165SOL    HW186392   0.606   5.308  10.276
28165SOL    HW286393   0.488   5.317  10.370
28166SOL     OW86394   6.393  10.786  14.699
28166SOL    HW186395   6.392  10.719  14.631
28166SOL    HW286396   6.478  10.829  14.689
28167SOL     OW86397  10.467   1.796   0.177
28167SOL    HW186398  10.421   1.808   0.094
28167SOL    HW286399  10.544   1.744   0.154
28168SOL     OW86400   0.637   6.408   1.534
28168SOL    HW186401   0.643   6.491   1.487
28168SOL    HW286402   0.659   6.342   1.469
28169SOL     OW86403   4.958  14.614  10.246
28169SOL    HW186404   4.863  14.609  10.255
28169SOL    HW286405   4.990  14.635  10.333
28170SOL     OW86406  13.871   1.041   4.603
28170SOL    HW186407  13.861   0.951   4.572
28170SOL    HW286408  13.791   1.060   4.651
28171SOL     OW86409  13.214  13.761  13.748
28171SOL    HW186410  13.154  13.777  13.820
28171SOL    HW286411  13.157  13.732  13.676
28172SOL     OW86412   6.590   5.480   4.759
28172SOL    HW186413   6.590   5.385   4.775
28172SOL    HW286414   6.681   5.507   4.776
28173SOL     OW86415   6.540   8.935  10.201
28173SOL    HW186416   6.566   8.847  10.229
28173SOL    HW286417   6.618   8.989  10.217
28174SOL     OW86418  11.848   5.617   5.019
28174SOL    HW186419  11.838   5.651   4.930
28174SOL    HW286420  11.821   5.689   5.075
28175SOL     OW86421   5.219   9.746   0.260
28175SOL    HW186422   5.175   9.670   0.220
28175SOL    HW286423   5.205   9.736   0.354
28176SOL     OW86424   3.872   6.709   6.425
28176SOL    HW186425   3.960   6.745   6.425
28176SOL    HW286426   3.851   6.695   6.517
28177SOL     OW86427   4.729   2.066  13.908
28177SOL    HW186428   4.663   2.040  13.972
28177SOL    HW286429   4.807   2.084  13.960
28178SOL     OW86430   4.970  13.160   5.067
28178SOL    HW186431   4.911  13.088   5.046
28178SOL    HW286432   5.051  13.140   5.019
28179SOL     OW86433  10.883   7.332   1.615
28179SOL    HW186434  10.843   7.304   1.698
28179SOL    HW286435  10.854   7.267   1.552
28180SOL     OW86436   1.414   1.433  11.805
28180SOL    HW186437   1.363   1.389  11.873
28180SOL    HW286438   1.350   1.488  11.759
28181SOL     OW86439   4.494   8.961   1.144
28181SOL    HW186440   4.496   8.943   1.238
28181SOL    HW286441   4.488   8.874   1.103
28182SOL     OW86442   4.675  10.861   3.035
28182SOL    HW186443   4.740  10.930   3.023
28182SOL    HW286444   4.711  10.806   3.105
28183SOL     OW86445   4.289   9.987  14.506
28183SOL    HW186446   4.356   9.931  14.543
28183SOL    HW286447   4.334  10.068  14.483
28184SOL     OW86448   6.164   3.741   8.077
28184SOL    HW186449   6.227   3.693   8.131
28184SOL    HW286450   6.082   3.738   8.126
28185SOL     OW86451  14.551  12.114  12.317
28185SOL    HW186452  14.507  12.193  12.348
28185SOL    HW286453  14.565  12.131  12.223
28186SOL     OW86454   5.916   4.743   3.626
28186SOL    HW186455   5.974   4.721   3.553
28186SOL    HW286456   5.971   4.789   3.688
28187SOL     OW86457  14.494   0.273   0.261
28187SOL    HW186458  14.470   0.300   0.349
28187SOL    HW286459  14.547   0.344   0.227
28188SOL     OW86460   3.927   8.323  14.504
28188SOL    HW186461   3.898   8.300  14.416
28188SOL    HW286462   3.909   8.417  14.512
28189SOL     OW86463   3.903  14.772  11.885
28189SOL    HW186464   3.907  14.703  11.952
28189SOL    HW286465   3.991  14.775  11.848
28190SOL     OW86466  11.190   4.009   6.551
28190SOL    HW186467  11.130   4.022   6.477
28190SOL    HW286468  11.142   4.043   6.626
28191SOL     OW86469   5.766   1.451   6.284
28191SOL    HW186470   5.799   1.517   6.224
28191SOL    HW286471   5.678   1.480   6.306
28192SOL     OW86472   6.654   5.078  12.205
28192SOL    HW186473   6.675   5.121  12.288
28192SOL    HW286474   6.600   5.142  12.158
28193SOL     OW86475   7.823  12.247   5.163
28193SOL    HW186476   7.742  12.227   5.115
28193SOL    HW286477   7.867  12.313   5.109
28194SOL     OW86478   1.947   4.102  11.933
28194SOL    HW186479   2.003   4.065  12.001
28194SOL    HW286480   2.002   4.169  11.891
28195SOL     OW86481   8.729   3.937  10.339
28195SOL    HW186482   8.739   4.024  10.377
28195SOL    HW286483   8.795   3.932  10.270
28196SOL     OW86484   4.079   7.787   9.152
28196SOL    HW186485   4.050   7.826   9.234
28196SOL    HW286486   4.141   7.719   9.178
28197SOL     OW86487   7.103   0.181   3.706
28197SOL    HW186488   7.135   0.158   3.793
28197SOL    HW286489   7.029   0.122   3.691
28198SOL     OW86490  10.976  11.311   0.220
28198SOL    HW186491  10.883  11.292   0.231
28198SOL    HW286492  10.999  11.273   0.135
28199SOL     OW86493   2.918   0.710   2.705
28199SOL    HW186494   2.908   0.739   2.614
28199SOL    HW286495   2.892   0.618   2.704
28200SOL     OW86496  10.333  10.681   2.934
28200SOL    HW186497  10.244  10.714   2.941
28200SOL    HW286498  10.343  10.623   3.009
28201SOL     OW86499   3.199   7.801   0.999
28201SOL    HW186500   3.220   7.708   0.993
28201SOL    HW286501   3.106   7.803   1.024
28202SOL     OW86502   2.198   7.108  10.719
28202SOL    HW186503   2.178   7.052  10.794
28202SOL    HW286504   2.153   7.067  10.646
28203SOL     OW86505   9.712   5.117  14.383
28203SOL    HW186506   9.699   5.100  14.290
28203SOL    HW286507   9.715   5.213  14.389
28204SOL     OW86508   2.948  13.194   9.169
28204SOL    HW186509   2.887  13.141   9.220
28204SOL    HW286510   3.001  13.131   9.120
28205SOL     OW86511  11.171   5.195   9.360
28205SOL    HW186512  11.129   5.202   9.446
28205SOL    HW286513  11.153   5.279   9.318
28206SOL     OW86514   9.872  13.584   4.828
28206SOL    HW186515   9.853  13.676   4.845
28206SOL    HW286516   9.786  13.543   4.820
28207SOL     OW86517  13.190   7.042  11.434
28207SOL    HW186518  13.249   7.030  11.360
28207SOL    HW286519  13.123   6.973  11.424
28208SOL     OW86520  14.182   8.534   5.610
28208SOL    HW186521  14.223   8.477   5.545
28208SOL    HW286522  14.166   8.478   5.685
28209SOL     OW86523   4.066  13.295   1.917
28209SOL    HW186524   3.987  13.349   1.911
28209SOL    HW286525   4.130  13.351   1.960
28210SOL     OW86526   2.010   8.676  11.130
28210SOL    HW186527   2.043   8.691  11.218
28210SOL    HW286528   2.008   8.580  11.121
28211SOL     OW86529   3.029  12.688  13.649
28211SOL    HW186530   3.003  12.747  13.720
28211SOL    HW286531   2.954  12.631  13.636
28212SOL     OW86532  13.533  12.736  14.371
28212SOL    HW186533  13.626  12.741  14.349
28212SOL    HW286534  13.493  12.810  14.325
28213SOL     OW86535   0.703   2.986   9.280
28213SOL    HW186536   0.610   2.984   9.256
28213SOL    HW286537   0.750   2.957   9.202
28214SOL     OW86538   4.098  11.250   5.629
28214SOL    HW186539   4.018  11.282   5.586
28214SOL    HW286540   4.159  11.324   5.625
28215SOL     OW86541  13.481   6.962   1.726
28215SOL    HW186542  13.519   7.035   1.777
28215SOL    HW286543  13.557   6.910   1.700
28216SOL     OW86544  12.351   9.393  10.874
28216SOL    HW186545  12.407   9.467  10.851
28216SOL    HW286546  12.404   9.316  10.855
28217SOL     OW86547   0.087   6.711   1.803
28217SOL    HW186548   0.160   6.715   1.865
28217SOL    HW286549   0.129   6.691   1.719
28218SOL     OW86550   3.167  10.917   0.355
28218SOL    HW186551   3.142  11.008   0.372
28218SOL    HW286552   3.258  10.912   0.383
28219SOL     OW86553   1.576   9.790   8.257
28219SOL    HW186554   1.596   9.697   8.245
28219SOL    HW286555   1.483   9.797   8.234
28220SOL     OW86556  11.566  13.860   6.887
28220SOL    HW186557  11.641  13.811   6.852
28220SOL    HW286558  11.538  13.916   6.814
28221SOL     OW86559  13.922   4.542   4.531
28221SOL    HW186560  13.855   4.574   4.470
28221SOL    HW286561  13.995   4.602   4.521
28222SOL     OW86562   7.422   6.038   9.906
28222SOL    HW186563   7.332   6.062   9.884
28222SOL    HW286564   7.413   5.960   9.961
28223SOL     OW86565   2.527   4.373   4.525
28223SOL    HW186566   2.493   4.390   4.613
28223SOL    HW286567   2.609   4.327   4.540
28224SOL     OW86568  10.025  12.999   4.275
28224SOL    HW186569  10.000  13.059   4.345
28224SOL    HW286570  10.007  12.912   4.311
28225SOL     OW86571  13.068   2.437  13.421
28225SOL    HW186572  13.085   2.416  13.512
28225SOL    HW286573  12.975   2.457  13.417
28226SOL     OW86574  14.021  12.733   7.722
28226SOL    HW186575  14.020  12.779   7.638
28226SOL    HW286576  14.051  12.798   7.785
28227SOL     OW86577   3.599  11.076  11.900
28227SOL    HW186578   3.632  11.144  11.958
28227SOL    HW286579   3.507  11.065  11.925
28228SOL     OW86580  12.540   2.002   9.130
28228SOL    HW186581  12.568   2.050   9.207
28228SOL    HW286582  12.561   1.911   9.150
28229SOL     OW86583  14.215  10.288   8.140
28229SOL    HW186584  14.295  10.301   8.090
28229SOL    HW286585  14.239  10.222   8.206
28230SOL     OW86586   0.776   9.525   9.199
28230SOL    HW186587   0.763   9.620   9.192
28230SOL    HW286588   0.871   9.516   9.212
28231SOL     OW86589   0.027  12.971   6.965
28231SOL    HW186590  14.877  12.905   7.024
28231SOL    HW286591  14.879  13.054   6.995
28232SOL     OW86592  11.189  10.145   3.037
28232SOL    HW186593  11.266  10.125   3.089
28232SOL    HW286594  11.122  10.084   3.068
28233SOL     OW86595  14.627   9.578  13.471
28233SOL    HW186596  14.710   9.621  13.494
28233SOL    HW286597  14.654   9.502  13.419
28234SOL     OW86598  12.816  13.044  12.838
28234SOL    HW186599  12.744  12.982  12.832
28234SOL    HW286600  12.895  12.990  12.833
28235SOL     OW86601  10.952  14.421   4.895
28235SOL    HW186602  10.898  14.497   4.874
28235SOL    HW286603  11.041  14.456   4.901
28236SOL     OW86604  10.472   9.931   8.305
28236SOL    HW186605  10.519   9.848   8.315
28236SOL    HW286606  10.469   9.967   8.393
28237SOL     OW86607  10.646  13.738  11.718
28237SOL    HW186608  10.569  13.698  11.678
28237SOL    HW286609  10.657  13.821  11.671
28238SOL     OW86610   6.170  14.009   7.439
28238SOL    HW186611   6.260  14.022   7.411
28238SOL    HW286612   6.126  13.972   7.363
28239SOL     OW86613   2.679  14.794   5.960
28239SOL    HW186614   2.706  14.806   6.051
28239SOL    HW286615   2.619  14.720   5.963
28240SOL     OW86616  11.454   9.890   6.515
28240SOL    HW186617  11.544   9.918   6.530
28240SOL    HW286618  11.409   9.910   6.597
28241SOL     OW86619  13.260  10.861  11.817
28241SOL    HW186620  13.313  10.788  11.785
28241SOL    HW286621  13.305  10.891  11.896
28242SOL     OW86622  11.623  10.098   0.310
28242SOL    HW186623  11.628  10.010   0.347
28242SOL    HW286624  11.678  10.094   0.231
28243SOL     OW86625   5.676   8.173  12.091
28243SOL    HW186626   5.744   8.114  12.058
28243SOL    HW286627   5.612   8.115  12.133
28244SOL     OW86628  11.899   3.054  14.440
28244SOL    HW186629  11.907   3.122  14.373
28244SOL    HW286630  11.814   3.070  14.481
28245SOL     OW86631  11.080   4.487  14.335
28245SOL    HW186632  11.151   4.450  14.387
28245SOL    HW286633  11.109   4.476  14.244
28246SOL     OW86634   9.414   8.989   3.306
28246SOL    HW186635   9.488   8.944   3.346
28246SOL    HW286636   9.397   9.064   3.363
28247SOL     OW86637  10.740  14.457   9.899
28247SOL    HW186638  10.720  14.397   9.971
28247SOL    HW286639  10.667  14.447   9.838
28248SOL     OW86640  12.326   0.188   6.850
28248SOL    HW186641  12.395   0.250   6.871
28248SOL    HW286642  12.324   0.127   6.925
28249SOL     OW86643   4.314   5.514   4.975
28249SOL    HW186644   4.234   5.565   4.959
28249SOL    HW286645   4.344   5.488   4.888
28250SOL     OW86646   8.679   2.688   2.370
28250SOL    HW186647   8.676   2.662   2.462
28250SOL    HW286648   8.600   2.741   2.357
28251SOL     OW86649  10.671  11.507   9.969
28251SOL    HW186650  10.589  11.546  10.001
28251SOL    HW286651  10.645  11.450   9.897
28252SOL     OW86652   6.436  11.795   4.352
28252SOL    HW186653   6.416  11.703   4.336
28252SOL    HW286654   6.522  11.808   4.312
28253SOL     OW86655  13.500   2.840   8.035
28253SOL    HW186656  13.424   2.793   8.069
28253SOL    HW286657  13.464   2.920   7.996
28254SOL     OW86658  14.121  13.535   7.336
28254SOL    HW186659  14.199  13.555   7.389
28254SOL    HW286660  14.074  13.469   7.387
28255SOL     OW86661   9.872   9.952   2.564
28255SOL    HW186662   9.794  10.002   2.588
28255SOL    HW286663   9.841   9.891   2.497
28256SOL     OW86664   7.341   0.725   6.872
28256SOL    HW186665   7.420   0.685   6.909
28256SOL    HW286666   7.297   0.765   6.947
28257SOL     OW86667   7.184   1.489   6.144
28257SOL    HW186668   7.196   1.559   6.208
28257SOL    HW286669   7.188   1.408   6.195
28258SOL     OW86670   5.280   3.778   0.405
28258SOL    HW186671   5.223   3.761   0.480
28258SOL    HW286672   5.244   3.724   0.335
28259SOL     OW86673   5.445   1.902  11.204
28259SOL    HW186674   5.451   1.850  11.284
28259SOL    HW286675   5.426   1.837  11.136
28260SOL     OW86676   0.727   6.125   9.947
28260SOL    HW186677   0.683   6.210   9.945
28260SOL    HW286678   0.749   6.107   9.856
28261SOL     OW86679   4.160  13.491  10.552
28261SOL    HW186680   4.162  13.434  10.629
28261SOL    HW286681   4.113  13.569  10.580
28262SOL     OW86682   7.678   3.229   0.624
28262SOL    HW186683   7.655   3.273   0.706
28262SOL    HW286684   7.769   3.254   0.609
28263SOL     OW86685   3.441  12.170   8.287
28263SOL    HW186686   3.450  12.261   8.316
28263SOL    HW286687   3.370  12.172   8.223
28264SOL     OW86688   5.480  14.568   3.592
28264SOL    HW186689   5.400  14.584   3.542
28264SOL    HW286690   5.470  14.480   3.627
28265SOL     OW86691  13.748   2.590   0.006
28265SOL    HW186692  13.815   2.658  14.884
28265SOL    HW286693  13.769   2.527  14.824
28266SOL     OW86694  11.822  12.331  11.180
28266SOL    HW186695  11.795  12.255  11.128
28266SOL    HW286696  11.852  12.294  11.263
28267SOL     OW86697  12.139  11.259   6.970
28267SOL    HW186698  12.211  11.272   6.908
28267SOL    HW286699  12.061  11.248   6.916
28268SOL     OW86700  13.181  11.856   3.327
28268SOL    HW186701  13.106  11.797   3.333
28268SOL    HW286702  13.257  11.800   3.344
28269SOL     OW86703   3.366  13.569   5.337
28269SOL    HW186704   3.421  13.586   5.261
28269SOL    HW286705   3.293  13.631   5.328
28270SOL     OW86706  10.021   2.455  14.441
28270SOL    HW186707   9.973   2.536  14.460
28270SOL    HW286708   9.988   2.392  14.506
28271SOL     OW86709  11.023  11.914   1.505
28271SOL    HW186710  10.949  11.861   1.476
28271SOL    HW286711  11.090  11.850   1.529
28272SOL     OW86712   2.621  12.684  10.698
28272SOL    HW186713   2.558  12.709  10.766
28272SOL    HW286714   2.601  12.742  10.625
28273SOL     OW86715   5.093   5.350  11.254
28273SOL    HW186716   5.125   5.265  11.224
28273SOL    HW286717   5.120   5.411  11.185
28274SOL     OW86718  10.302   7.556   7.412
28274SOL    HW186719  10.272   7.481   7.463
28274SOL    HW286720  10.227   7.577   7.355
28275SOL     OW86721  11.199   1.402  13.635
28275SOL    HW186722  11.131   1.448  13.684
28275SOL    HW286723  11.190   1.435  13.546
28276SOL     OW86724  11.545   1.419   1.926
28276SOL    HW186725  11.584   1.332   1.919
28276SOL    HW286726  11.451   1.403   1.933
28277SOL     OW86727   1.565   7.776  14.725
28277SOL    HW186728   1.565   7.733  14.640
28277SOL    HW286729   1.582   7.869  14.706
28278SOL     OW86730   6.856   9.110   5.417
28278SOL    HW186731   6.942   9.099   5.376
28278SOL    HW286732   6.810   9.029   5.399
28279SOL     OW86733  12.370   9.001   2.444
28279SOL    HW186734  12.326   9.016   2.360
28279SOL    HW286735  12.299   8.992   2.507
28280SOL     OW86736   5.943   6.487   8.004
28280SOL    HW186737   5.932   6.580   7.981
28280SOL    HW286738   6.035   6.479   8.029
28281SOL     OW86739   7.475   0.938   9.768
28281SOL    HW186740   7.437   1.023   9.749
28281SOL    HW286741   7.567   0.956   9.787
28282SOL     OW86742   6.378   6.519   9.894
28282SOL    HW186743   6.389   6.592   9.833
28282SOL    HW286744   6.366   6.442   9.838
28283SOL     OW86745  10.767   9.623   6.077
28283SOL    HW186746  10.749   9.683   6.149
28283SOL    HW286747  10.683   9.581   6.059
28284SOL     OW86748   9.074   8.403  14.721
28284SOL    HW186749   8.999   8.343  14.715
28284SOL    HW286750   9.053   8.460  14.795
28285SOL     OW86751   3.257   3.283   2.719
28285SOL    HW186752   3.271   3.377   2.729
28285SOL    HW286753   3.335   3.253   2.671
28286SOL     OW86754   4.199  14.120  11.532
28286SOL    HW186755   4.283  14.162  11.547
28286SOL    HW286756   4.137  14.193  11.523
28287SOL     OW86757   9.576  12.212   4.296
28287SOL    HW186758   9.533  12.130   4.322
28287SOL    HW286759   9.507  12.265   4.258
28288SOL     OW86760  11.252   9.339   3.301
28288SOL    HW186761  11.265   9.322   3.208
28288SOL    HW286762  11.182   9.405   3.303
28289SOL     OW86763   3.710   6.064   2.476
28289SOL    HW186764   3.731   6.158   2.476
28289SOL    HW286765   3.788   6.022   2.440
28290SOL     OW86766  14.129   1.406  11.044
28290SOL    HW186767  14.182   1.408  10.964
28290SOL    HW286768  14.071   1.482  11.036
28291SOL     OW86769  10.001   7.682   7.790
28291SOL    HW186770  10.055   7.680   7.870
28291SOL    HW286771   9.932   7.745   7.809
28292SOL     OW86772   2.477   2.531  11.072
28292SOL    HW186773   2.384   2.545  11.087
28292SOL    HW286774   2.491   2.558  10.981
28293SOL     OW86775   4.777  10.639   3.812
28293SOL    HW186776   4.834  10.715   3.799
28293SOL    HW286777   4.738  10.653   3.898
28294SOL     OW86778  11.312  11.464  13.048
28294SOL    HW186779  11.259  11.483  12.971
28294SOL    HW286780  11.268  11.390  13.091
28295SOL     OW86781   6.976  12.038  10.437
28295SOL    HW186782   6.933  12.060  10.520
28295SOL    HW286783   7.038  12.109  10.422
28296SOL     OW86784  12.638   0.901  14.342
28296SOL    HW186785  12.563   0.885  14.284
28296SOL    HW286786  12.646   0.996  14.344
28297SOL     OW86787   7.543  14.267   3.011
28297SOL    HW186788   7.478  14.331   3.038
28297SOL    HW286789   7.620  14.287   3.064
28298SOL     OW86790   1.857   0.700   9.218
28298SOL    HW186791   1.910   0.706   9.139
28298SOL    HW286792   1.773   0.666   9.187
28299SOL     OW86793  14.148   0.105   9.913
28299SOL    HW186794  14.243   0.104   9.928
28299SOL    HW286795  14.127   0.196   9.895
28300SOL     OW86796  13.243   6.170   6.094
28300SOL    HW186797  13.297   6.248   6.083
28300SOL    HW286798  13.193   6.187   6.173
28301SOL     OW86799  11.756   8.449   3.756
28301SOL    HW186800  11.833   8.463   3.811
28301SOL    HW286801  11.715   8.535   3.749
28302SOL     OW86802   3.218  14.738   6.779
28302SOL    HW186803   3.254  14.811   6.730
28302SOL    HW286804   3.129  14.727   6.745
28303SOL     OW86805   5.942   5.629   2.691
28303SOL    HW186806   5.852   5.657   2.707
28303SOL    HW286807   5.949   5.545   2.736
28304SOL     OW86808   8.104   9.027  14.671
28304SOL    HW186809   8.196   9.007  14.653
28304SOL    HW286810   8.058   8.945  14.655
28305SOL     OW86811   4.153  13.514  12.312
28305SOL    HW186812   4.145  13.420  12.324
28305SOL    HW286813   4.229  13.539  12.365
28306SOL     OW86814   2.166  10.500   2.334
28306SOL    HW186815   2.260  10.494   2.354
28306SOL    HW286816   2.130  10.556   2.403
28307SOL     OW86817  10.109   8.900   3.506
28307SOL    HW186818  10.176   8.838   3.534
28307SOL    HW286819  10.083   8.946   3.585
28308SOL     OW86820  11.680  11.130   7.788
28308SOL    HW186821  11.766  11.090   7.773
28308SOL    HW286822  11.635  11.070   7.847
28309SOL     OW86823   5.263   5.626   4.903
28309SOL    HW186824   5.242   5.594   4.991
28309SOL    HW286825   5.358   5.620   4.898
28310SOL     OW86826  11.204   8.057   6.968
28310SOL    HW186827  11.159   8.140   6.955
28310SOL    HW286828  11.219   8.024   6.880
28311SOL     OW86829  12.800  10.338  10.735
28311SOL    HW186830  12.772  10.310  10.649
28311SOL    HW286831  12.816  10.257  10.783
28312SOL     OW86832  14.684   2.207   6.324
28312SOL    HW186833  14.653   2.133   6.376
28312SOL    HW286834  14.733   2.166   6.252
28313SOL     OW86835  13.711   5.880  10.781
28313SOL    HW186836  13.634   5.881  10.838
28313SOL    HW286837  13.689   5.941  10.711
28314SOL     OW86838   9.329   7.389  14.678
28314SOL    HW186839   9.345   7.298  14.703
28314SOL    HW286840   9.341   7.438  14.759
28315SOL     OW86841   6.802  11.677   8.484
28315SOL    HW186842   6.736  11.631   8.535
28315SOL    HW286843   6.866  11.610   8.460
28316SOL     OW86844  10.770   9.857   3.148
28316SOL    HW186845  10.771   9.895   3.235
28316SOL    HW286846  10.806   9.769   3.160
28317SOL     OW86847   6.917   9.480   9.436
28317SOL    HW186848   6.970   9.533   9.377
28317SOL    HW286849   6.882   9.542   9.499
28318SOL     OW86850   5.042   0.737   5.928
28318SOL    HW186851   5.002   0.781   6.003
28318SOL    HW286852   5.007   0.648   5.932
28319SOL     OW86853   2.195   0.527  11.859
28319SOL    HW186854   2.246   0.592  11.811
28319SOL    HW286855   2.220   0.443  11.819
28320SOL     OW86856   1.718   0.395   5.312
28320SOL    HW186857   1.750   0.305   5.308
28320SOL    HW286858   1.628   0.386   5.344
28321SOL     OW86859  13.824  12.383   6.406
28321SOL    HW186860  13.818  12.315   6.339
28321SOL    HW286861  13.734  12.412   6.420
28322SOL     OW86862   3.652  10.162   9.213
28322SOL    HW186863   3.683  10.184   9.301
28322SOL    HW286864   3.669  10.068   9.205
28323SOL     OW86865   4.722   5.883  12.679
28323SOL    HW186866   4.710   5.788  12.683
28323SOL    HW286867   4.658   5.918  12.741
28324SOL     OW86868   2.935   0.520  10.710
28324SOL    HW186869   2.908   0.512  10.802
28324SOL    HW286870   3.029   0.502  10.711
28325SOL     OW86871   8.038   6.805   8.314
28325SOL    HW186872   8.077   6.725   8.279
28325SOL    HW286873   8.111   6.851   8.355
28326SOL     OW86874   0.476  14.880   3.422
28326SOL    HW186875   0.381  14.881   3.406
28326SOL    HW286876   0.490  14.800   3.472
28327SOL     OW86877  13.504  14.310  14.046
28327SOL    HW186878  13.554  14.230  14.030
28327SOL    HW286879  13.423  14.279  14.088
28328SOL     OW86880   3.028   5.182  10.303
28328SOL    HW186881   2.981   5.099  10.310
28328SOL    HW286882   2.983   5.229  10.233
28329SOL     OW86883  11.010  12.145  10.901
28329SOL    HW186884  10.921  12.179  10.901
28329SOL    HW286885  11.003  12.059  10.942
28330SOL     OW86886  10.474   1.295  13.991
28330SOL    HW186887  10.532   1.366  13.964
28330SOL    HW286888  10.523   1.248  14.058
28331SOL     OW86889   4.449  14.754   7.324
28331SOL    HW186890   4.484  14.777   7.238
28331SOL    HW286891   4.374  14.698   7.305
28332SOL     OW86892   5.173   9.319   5.105
28332SOL    HW186893   5.107   9.250   5.115
28332SOL    HW286894   5.257   9.272   5.106
28333SOL     OW86895  14.607   3.545   0.925
28333SOL    HW186896  14.545   3.486   0.967
28333SOL    HW286897  14.634   3.500   0.846
28334SOL     OW86898   7.064   9.742  13.574
28334SOL    HW186899   7.092   9.800  13.644
28334SOL    HW286900   7.143   9.696  13.546
28335SOL     OW86901   0.904   9.417  12.733
28335SOL    HW186902   0.994   9.384  12.733
28335SOL    HW286903   0.905   9.490  12.794
28336SOL     OW86904   1.597   2.692  14.114
28336SOL    HW186905   1.676   2.676  14.165
28336SOL    HW286906   1.553   2.764  14.160
28337SOL     OW86907   4.685   3.049  13.151
28337SOL    HW186908   4.658   2.972  13.200
28337SOL    HW286909   4.678   3.122  13.213
28338SOL     OW86910   4.932   8.799   4.149
28338SOL    HW186911   4.843   8.823   4.174
28338SOL    HW286912   4.985   8.818   4.226
28339SOL     OW86913   3.198  10.758   0.955
28339SOL    HW186914   3.142  10.688   0.988
28339SOL    HW286915   3.286  10.733   0.980
28340SOL     OW86916  11.134   5.066   1.805
28340SOL    HW186917  11.120   5.160   1.814
28340SOL    HW286918  11.119   5.031   1.893
28341SOL     OW86919   9.215  10.921   9.958
28341SOL    HW186920   9.288  10.905   9.899
28341SOL    HW286921   9.178  11.004   9.929
28342SOL     OW86922   0.386   3.123   0.424
28342SOL    HW186923   0.297   3.091   0.411
28342SOL    HW286924   0.384   3.169   0.507
28343SOL     OW86925   5.680   2.508  14.342
28343SOL    HW186926   5.608   2.557  14.382
28343SOL    HW286927   5.726   2.468  14.416
28344SOL     OW86928   0.490   9.516  11.133
28344SOL    HW186929   0.448   9.601  11.125
28344SOL    HW286930   0.459   9.481  11.217
28345SOL     OW86931  12.893   7.896   9.544
28345SOL    HW186932  12.937   7.812   9.528
28345SOL    HW286933  12.803   7.881   9.515
28346SOL     OW86934  14.801   2.671   1.961
28346SOL    HW186935  14.877   2.723   1.986
28346SOL    HW286936  14.757   2.651   2.043
28347SOL     OW86937  12.357   9.197   0.451
28347SOL    HW186938  12.301   9.205   0.373
28347SOL    HW286939  12.445   9.187   0.416
28348SOL     OW86940   0.069   6.510  12.994
28348SOL    HW186941   0.019   6.440  13.037
28348SOL    HW286942   0.114   6.555  13.066
28349SOL     OW86943   5.315   9.741   2.257
28349SOL    HW186944   5.249   9.745   2.326
28349SOL    HW286945   5.299   9.820   2.205
28350SOL     OW86946   6.165   3.756   9.733
28350SOL    HW186947   6.209   3.673   9.714
28350SOL    HW286948   6.159   3.800   9.648
28351SOL     OW86949   5.986   2.021   3.659
28351SOL    HW186950   6.066   2.074   3.661
28351SOL    HW286951   5.916   2.084   3.643
28352SOL     OW86952   7.403   8.308   0.710
28352SOL    HW186953   7.333   8.245   0.726
28352SOL    HW286954   7.357   8.391   0.692
28353SOL     OW86955   2.728   1.285  13.455
28353SOL    HW186956   2.683   1.268  13.537
28353SOL    HW286957   2.720   1.203  13.406
28354SOL     OW86958  12.920  14.604   3.827
28354SOL    HW186959  12.874  14.683   3.856
28354SOL    HW286960  12.911  14.604   3.732
28355SOL     OW86961  10.177   4.009   3.883
28355SOL    HW186962  10.181   4.007   3.787
28355SOL    HW286963  10.212   3.924   3.910
28356SOL     OW86964   9.299   1.793   6.994
28356SOL    HW186965   9.216   1.821   7.033
28356SOL    HW286966   9.292   1.816   6.902
28357SOL     OW86967   6.911  11.687   3.868
28357SOL    HW186968   6.926  11.676   3.774
28357SOL    HW286969   6.997  11.675   3.908
28358SOL     OW86970  12.255   7.061  14.573
28358SOL    HW186971  12.328   7.079  14.514
28358SOL    HW286972  12.189   7.019  14.518
28359SOL     OW86973   0.116   5.104   4.974
28359SOL    HW186974   0.200   5.150   4.984
28359SOL    HW286975   0.090   5.084   5.064
28360SOL     OW86976   1.589   8.278   9.593
28360SOL    HW186977   1.546   8.363   9.595
28360SOL    HW286978   1.622   8.270   9.504
28361SOL     OW86979   0.469  10.872   3.120
28361SOL    HW186980   0.544  10.926   3.144
28361SOL    HW286981   0.508  10.793   3.082
28362SOL     OW86982   1.020  10.393  11.180
28362SOL    HW186983   1.069  10.455  11.126
28362SOL    HW286984   1.014  10.314  11.127
28363SOL     OW86985  13.250   4.672   9.286
28363SOL    HW186986  13.201   4.590   9.290
28363SOL    HW286987  13.302   4.665   9.206
28364SOL     OW86988  14.686   1.398  13.256
28364SOL    HW186989  14.673   1.348  13.175
28364SOL    HW286990  14.777   1.382  13.279
28365SOL     OW86991  10.349   9.718   7.069
28365SOL    HW186992  10.435   9.713   7.111
28365SOL    HW286993  10.315   9.803   7.096
28366SOL     OW86994  12.094  13.332  11.517
28366SOL    HW186995  12.023  13.373  11.565
28366SOL    HW286996  12.052  13.286  11.445
28367SOL     OW86997   1.897   0.068  14.016
28367SOL    HW186998   1.851   0.143  13.977
28367SOL    HW286999   1.857  14.879  13.975
28368SOL     OW87000   9.410  14.068   7.084
28368SOL    HW187001   9.431  13.975   7.081
28368SOL    HW287002   9.314  14.070   7.092
28369SOL     OW87003   8.106  13.671   8.074
28369SOL    HW187004   8.072  13.718   8.150
28369SOL    HW287005   8.061  13.711   8.000
28370SOL     OW87006  11.399   7.400   0.378
28370SOL    HW187007  11.411   7.399   0.473
28370SOL    HW287008  11.311   7.435   0.365
28371SOL     OW87009   8.861   1.126   0.260
28371SOL    HW187010   8.775   1.130   0.301
28371SOL    HW287011   8.917   1.085   0.326
28372SOL     OW87012   1.775   9.339   3.489
28372SOL    HW187013   1.683   9.314   3.486
28372SOL    HW287014   1.788   9.390   3.408
28373SOL     OW87015   4.317  10.182   7.514
28373SOL    HW187016   4.252  10.128   7.470
28373SOL    HW287017   4.294  10.272   7.491
28374SOL     OW87018   2.458  10.086  13.618
28374SOL    HW187019   2.394  10.042  13.562
28374SOL    HW287020   2.510  10.140  13.558
28375SOL     OW87021   4.985  14.251   5.986
28375SOL    HW187022   5.016  14.321   6.043
28375SOL    HW287023   4.903  14.221   6.027
28376SOL     OW87024   8.739  14.691  13.039
28376SOL    HW187025   8.798  14.693  12.964
28376SOL    HW287026   8.657  14.656  13.005
28377SOL     OW87027   3.350  10.606   9.521
28377SOL    HW187028   3.292  10.585   9.594
28377SOL    HW287029   3.392  10.523   9.499
28378SOL     OW87030   8.866   5.884   5.328
28378SOL    HW187031   8.787   5.933   5.353
28378SOL    HW287032   8.873   5.814   5.393
28379SOL     OW87033   2.933   6.986   8.524
28379SOL    HW187034   2.890   7.036   8.593
28379SOL    HW287035   2.952   7.051   8.456
28380SOL     OW87036   3.100   4.307  13.233
28380SOL    HW187037   3.071   4.221  13.202
28380SOL    HW287038   3.022   4.345  13.275
28381SOL     OW87039   6.986   8.971  13.153
28381SOL    HW187040   6.927   8.911  13.199
28381SOL    HW287041   6.936   9.053  13.146
28382SOL     OW87042   7.656  14.672   9.709
28382SOL    HW187043   7.748  14.653   9.730
28382SOL    HW287044   7.608  14.654   9.790
28383SOL     OW87045   0.074   9.924   7.168
28383SOL    HW187046   0.114   9.854   7.118
28383SOL    HW287047   0.107  10.005   7.128
28384SOL     OW87048  12.292   5.579   7.806
28384SOL    HW187049  12.294   5.503   7.864
28384SOL    HW287050  12.363   5.635   7.838
28385SOL     OW87051  13.591   5.447  13.422
28385SOL    HW187052  13.625   5.359  13.403
28385SOL    HW287053  13.570   5.445  13.515
28386SOL     OW87054  13.103  12.559   5.491
28386SOL    HW187055  13.153  12.484   5.522
28386SOL    HW287056  13.155  12.635   5.517
28387SOL     OW87057   9.888   9.654  12.782
28387SOL    HW187058   9.951   9.662  12.853
28387SOL    HW287059   9.895   9.563  12.753
28388SOL     OW87060   4.819   7.219   6.507
28388SOL    HW187061   4.851   7.283   6.572
28388SOL    HW287062   4.868   7.139   6.527
28389SOL     OW87063   4.716   1.093  13.296
28389SOL    HW187064   4.666   1.094  13.378
28389SOL    HW287065   4.796   1.141  13.316
28390SOL     OW87066   8.711   0.770   0.446
28390SOL    HW187067   8.752   0.848   0.483
28390SOL    HW287068   8.720   0.781   0.351
28391SOL     OW87069   0.783  12.553   8.072
28391SOL    HW187070   0.791  12.460   8.092
28391SOL    HW287071   0.831  12.564   7.989
28392SOL     OW87072   1.019   5.867  12.105
28392SOL    HW187073   0.945   5.829  12.058
28392SOL    HW287074   0.981   5.901  12.186
28393SOL     OW87075   7.069   9.273   1.991
28393SOL    HW187076   7.005   9.322   2.042
28393SOL    HW287077   7.111   9.215   2.054
28394SOL     OW87078   5.647  14.469   3.383
28394SOL    HW187079   5.684  14.431   3.463
28394SOL    HW287080   5.700  14.546   3.366
28395SOL     OW87081  10.925   0.416   3.944
28395SOL    HW187082  10.932   0.327   3.908
28395SOL    HW287083  10.883   0.467   3.875
28396SOL     OW87084  14.182  13.843   3.320
28396SOL    HW187085  14.223  13.913   3.371
28396SOL    HW287086  14.094  13.836   3.356
28397SOL     OW87087   3.607  10.878  14.078
28397SOL    HW187088   3.514  10.885  14.053
28397SOL    HW287089   3.605  10.843  14.167
28398SOL     OW87090   8.574   9.297   9.542
28398SOL    HW187091   8.607   9.387   9.548
28398SOL    HW287092   8.653   9.243   9.552
28399SOL     OW87093   3.053   3.343  10.827
28399SOL    HW187094   2.997   3.388  10.890
28399SOL    HW287095   2.993   3.289  10.775
28400SOL     OW87096   4.886   2.009   9.509
28400SOL    HW187097   4.861   2.068   9.438
28400SOL    HW287098   4.938   1.941   9.466
28401SOL     OW87099   9.153   7.502  14.491
28401SOL    HW187100   9.220   7.480  14.556
28401SOL    HW287101   9.100   7.423  14.485
28402SOL     OW87102   9.619  11.996  14.360
28402SOL    HW187103   9.559  11.925  14.337
28402SOL    HW287104   9.701  11.952  14.384
28403SOL     OW87105   5.848  13.778   9.121
28403SOL    HW187106   5.908  13.851   9.135
28403SOL    HW287107   5.810  13.794   9.035
28404SOL     OW87108  10.722   0.337  13.515
28404SOL    HW187109  10.627   0.353  13.510
28404SOL    HW287110  10.729   0.242  13.529
28405SOL     OW87111   9.696   6.933   8.885
28405SOL    HW187112   9.656   6.871   8.824
28405SOL    HW287113   9.642   6.926   8.964
28406SOL     OW87114   1.583   3.443   1.280
28406SOL    HW187115   1.658   3.457   1.338
28406SOL    HW287116   1.575   3.348   1.273
28407SOL     OW87117   1.789   1.055   5.740
28407SOL    HW187118   1.792   0.971   5.693
28407SOL    HW287119   1.723   1.041   5.808
28408SOL     OW87120   3.545   6.699   7.758
28408SOL    HW187121   3.565   6.609   7.783
28408SOL    HW287122   3.622   6.750   7.785
28409SOL     OW87123  12.793   9.818   9.272
28409SOL    HW187124  12.697   9.811   9.275
28409SOL    HW287125  12.817   9.856   9.356
28410SOL     OW87126   3.423   1.986   7.515
28410SOL    HW187127   3.476   1.920   7.560
28410SOL    HW287128   3.342   1.940   7.491
28411SOL     OW87129  14.660  14.356  12.838
28411SOL    HW187130  14.684  14.366  12.746
28411SOL    HW287131  14.634  14.444  12.866
28412SOL     OW87132   7.365   2.905   2.249
28412SOL    HW187133   7.425   2.863   2.310
28412SOL    HW287134   7.278   2.879   2.278
28413SOL     OW87135   6.029   1.225   1.261
28413SOL    HW187136   6.080   1.155   1.221
28413SOL    HW287137   6.013   1.287   1.190
28414SOL     OW87138  13.312   1.994  10.274
28414SOL    HW187139  13.273   2.078  10.248
28414SOL    HW287140  13.240   1.931  10.264
28415SOL     OW87141  14.440   0.563  11.359
28415SOL    HW187142  14.470   0.493  11.418
28415SOL    HW287143  14.448   0.643  11.412
28416SOL     OW87144   5.976  14.166   0.137
28416SOL    HW187145   5.984  14.254   0.100
28416SOL    HW287146   5.999  14.107   0.065
28417SOL     OW87147   6.178  11.310   9.000
28417SOL    HW187148   6.133  11.366   9.063
28417SOL    HW287149   6.150  11.221   9.023
28418SOL     OW87150   5.435   9.472   7.360
28418SOL    HW187151   5.497   9.414   7.404
28418SOL    HW287152   5.486   9.548   7.333
28419SOL     OW87153   1.951   1.483   7.699
28419SOL    HW187154   1.890   1.555   7.682
28419SOL    HW287155   1.896   1.406   7.706
28420SOL     OW87156  10.256  10.575   5.377
28420SOL    HW187157  10.337  10.617   5.348
28420SOL    HW287158  10.279  10.534   5.461
28421SOL     OW87159   3.843  14.559   3.133
28421SOL    HW187160   3.927  14.549   3.177
28421SOL    HW287161   3.865  14.566   3.040
28422SOL     OW87162   4.719  10.314  12.374
28422SOL    HW187163   4.709  10.291  12.282
28422SOL    HW287164   4.656  10.259  12.420
28423SOL     OW87165  14.646   3.967  14.725
28423SOL    HW187166  14.582   3.957  14.654
28423SOL    HW287167  14.623   4.050  14.767
28424SOL     OW87168  11.238  10.072  14.508
28424SOL    HW187169  11.275  10.106  14.426
28424SOL    HW287170  11.170  10.011  14.479
28425SOL     OW87171   0.497  14.578  14.624
28425SOL    HW187172   0.426  14.533  14.579
28425SOL    HW287173   0.577  14.533  14.593
28426SOL     OW87174   6.656   8.687   1.980
28426SOL    HW187175   6.619   8.604   2.011
28426SOL    HW287176   6.601   8.754   2.021
28427SOL     OW87177   8.024  12.630   8.472
28427SOL    HW187178   8.066  12.669   8.549
28427SOL    HW287179   8.097  12.597   8.420
28428SOL     OW87180  11.507   7.739   4.617
28428SOL    HW187181  11.552   7.781   4.544
28428SOL    HW287182  11.434   7.692   4.576
28429SOL     OW87183  12.794   9.427   3.879
28429SOL    HW187184  12.721   9.402   3.935
28429SOL    HW287185  12.835   9.344   3.855
28430SOL     OW87186   8.778   1.220   8.393
28430SOL    HW187187   8.808   1.145   8.445
28430SOL    HW287188   8.719   1.181   8.328
28431SOL     OW87189   7.443   3.546   1.306
28431SOL    HW187190   7.500   3.609   1.350
28431SOL    HW287191   7.356   3.588   1.306
28432SOL     OW87192  14.566  11.936   8.546
28432SOL    HW187193  14.553  11.935   8.451
28432SOL    HW287194  14.483  11.968   8.581
28433SOL     OW87195   8.206   0.427   3.630
28433SOL    HW187196   8.284   0.389   3.589
28433SOL    HW287197   8.183   0.364   3.699
28434SOL     OW87198  10.155   3.130  12.333
28434SOL    HW187199  10.113   3.214  12.348
28434SOL    HW287200  10.143   3.082  12.415
28435SOL     OW87201   1.794  12.076   5.549
28435SOL    HW187202   1.846  12.088   5.470
28435SOL    HW287203   1.717  12.029   5.520
28436SOL     OW87204   5.740  13.470  11.579
28436SOL    HW187205   5.811  13.494  11.518
28436SOL    HW287206   5.763  13.381  11.607
28437SOL     OW87207   9.897  11.278   4.981
28437SOL    HW187208   9.941  11.315   4.904
28437SOL    HW287209   9.874  11.189   4.954
28438SOL     OW87210  10.000  14.341   1.684
28438SOL    HW187211   9.993  14.253   1.722
28438SOL    HW287212  10.005  14.326   1.590
28439SOL     OW87213   0.537   7.057  10.265
28439SOL    HW187214   0.454   7.033  10.224
28439SOL    HW287215   0.571   7.128  10.211
28440SOL     OW87216  13.589  10.760  13.543
28440SOL    HW187217  13.537  10.717  13.474
28440SOL    HW287218  13.602  10.849  13.512
28441SOL     OW87219   1.565   7.236  10.637
28441SOL    HW187220   1.607   7.165  10.588
28441SOL    HW287221   1.580   7.214  10.729
28442SOL     OW87222   1.320   0.932   0.716
28442SOL    HW187223   1.249   0.938   0.780
28442SOL    HW287224   1.312   0.844   0.679
28443SOL     OW87225  13.493  10.486  11.512
28443SOL    HW187226  13.537  10.455  11.432
28443SOL    HW287227  13.527  10.429  11.581
28444SOL     OW87228   8.589   5.529   5.616
28444SOL    HW187229   8.571   5.501   5.706
28444SOL    HW287230   8.663   5.475   5.589
28445SOL     OW87231   0.992   0.994   3.743
28445SOL    HW187232   0.987   0.905   3.780
28445SOL    HW287233   0.911   1.036   3.772
28446SOL     OW87234   4.616   1.097  12.117
28446SOL    HW187235   4.521   1.099  12.123
28446SOL    HW287236   4.643   1.188  12.122
28447SOL     OW87237   3.749   2.350   1.215
28447SOL    HW187238   3.835   2.316   1.238
28447SOL    HW287239   3.697   2.340   1.295
28448SOL     OW87240   1.611   3.433   5.714
28448SOL    HW187241   1.578   3.508   5.764
28448SOL    HW287242   1.704   3.452   5.699
28449SOL     OW87243   5.960  13.768   2.619
28449SOL    HW187244   5.873  13.782   2.657
28449SOL    HW287245   5.976  13.674   2.630
28450SOL     OW87246   5.565   5.279   7.628
28450SOL    HW187247   5.475   5.248   7.616
28450SOL    HW287248   5.612   5.245   7.552
28451SOL     OW87249  12.885   1.839   1.558
28451SOL    HW187250  12.817   1.775   1.581
28451SOL    HW287251  12.907   1.882   1.640
28452SOL     OW87252   1.393   2.492  10.887
28452SOL    HW187253   1.466   2.499  10.826
28452SOL    HW287254   1.421   2.425  10.950
28453SOL     OW87255   6.536  10.323   6.373
28453SOL    HW187256   6.451  10.284   6.392
28453SOL    HW287257   6.535  10.407   6.419
28454SOL     OW87258  12.686   6.937   2.008
28454SOL    HW187259  12.731   6.855   2.027
28454SOL    HW287260  12.751   7.005   2.028
28455SOL     OW87261   8.833   4.920   0.069
28455SOL    HW187262   8.740   4.930   0.089
28455SOL    HW287263   8.851   4.986   0.003
28456SOL     OW87264  10.329   7.833   6.374
28456SOL    HW187265  10.342   7.921   6.409
28456SOL    HW287266  10.234   7.823   6.370
28457SOL     OW87267   1.485   7.314   5.813
28457SOL    HW187268   1.565   7.280   5.853
28457SOL    HW287269   1.462   7.248   5.747
28458SOL     OW87270  12.322  12.549   9.349
28458SOL    HW187271  12.292  12.476   9.404
28458SOL    HW287272  12.283  12.627   9.389
28459SOL     OW87273   1.120  12.867   1.542
28459SOL    HW187274   1.092  12.956   1.518
28459SOL    HW287275   1.050  12.811   1.511
28460SOL     OW87276   2.119  14.665   8.246
28460SOL    HW187277   2.207  14.703   8.241
28460SOL    HW287278   2.125  14.585   8.193
28461SOL     OW87279   0.260   8.854  10.453
28461SOL    HW187280   0.335   8.821  10.503
28461SOL    HW287281   0.193   8.787  10.463
28462SOL     OW87282  11.007   9.996  13.338
28462SOL    HW187283  11.085  10.050  13.324
28462SOL    HW287284  10.955  10.009  13.258
28463SOL     OW87285   0.439   2.303  11.609
28463SOL    HW187286   0.408   2.232  11.553
28463SOL    HW287287   0.491   2.260  11.677
28464SOL     OW87288  10.801   0.265   5.073
28464SOL    HW187289  10.749   0.185   5.080
28464SOL    HW287290  10.739   0.336   5.090
28465SOL     OW87291   1.529   7.050   3.068
28465SOL    HW187292   1.460   6.984   3.081
28465SOL    HW287293   1.550   7.081   3.156
28466SOL     OW87294   4.551   2.565  12.774
28466SOL    HW187295   4.572   2.472  12.777
28466SOL    HW287296   4.456   2.569  12.788
28467SOL     OW87297  10.952   5.100  10.712
28467SOL    HW187298  10.877   5.129  10.765
28467SOL    HW287299  10.988   5.180  10.676
28468SOL     OW87300   0.504  12.997   5.124
28468SOL    HW187301   0.507  13.015   5.030
28468SOL    HW287302   0.460  12.912   5.131
28469SOL     OW87303  14.836   3.877  10.730
28469SOL    HW187304   0.028   3.930  10.725
28469SOL    HW287305  14.859   3.802  10.784
28470SOL     OW87306  11.247  14.181  12.515
28470SOL    HW187307  11.269  14.231  12.437
28470SOL    HW287308  11.171  14.128  12.489
28471SOL     OW87309  13.187   5.517  14.843
28471SOL    HW187310  13.124   5.575  14.801
28471SOL    HW287311  13.273   5.555  14.823
28472SOL     OW87312   6.613   7.078  12.632
28472SOL    HW187313   6.576   7.097  12.718
28472SOL    HW287314   6.566   6.999  12.603
28473SOL     OW87315  13.656   9.970   8.017
28473SOL    HW187316  13.632   9.910   7.947
28473SOL    HW287317  13.720  10.029   7.978
28474SOL     OW87318   6.965   5.270  10.273
28474SOL    HW187319   7.002   5.268  10.361
28474SOL    HW287320   6.889   5.327  10.280
28475SOL     OW87321   7.083   9.118  12.078
28475SOL    HW187322   7.015   9.063  12.039
28475SOL    HW287323   7.157   9.059  12.093
28476SOL     OW87324  12.901   7.937  11.360
28476SOL    HW187325  12.965   7.921  11.290
28476SOL    HW287326  12.827   7.881  11.337
28477SOL     OW87327   4.750   5.621   6.509
28477SOL    HW187328   4.834   5.593   6.545
28477SOL    HW287329   4.770   5.703   6.463
28478SOL     OW87330  10.205  13.738   4.574
28478SOL    HW187331  10.297  13.711   4.568
28478SOL    HW287332  10.170  13.689   4.648
28479SOL     OW87333   6.857  11.474   6.086
28479SOL    HW187334   6.774  11.506   6.051
28479SOL    HW287335   6.865  11.385   6.050
28480SOL     OW87336   3.612   0.253   0.519
28480SOL    HW187337   3.520   0.248   0.543
28480SOL    HW287338   3.654   0.295   0.594
28481SOL     OW87339   9.164   2.529   5.329
28481SOL    HW187340   9.171   2.613   5.376
28481SOL    HW287341   9.130   2.553   5.243
28482SOL     OW87342  13.810  10.978   0.257
28482SOL    HW187343  13.779  10.912   0.194
28482SOL    HW287344  13.730  11.022   0.286
28483SOL     OW87345   6.277   3.530   9.594
28483SOL    HW187346   6.344   3.477   9.551
28483SOL    HW287347   6.234   3.469   9.654
28484SOL     OW87348   9.218   0.117   3.713
28484SOL    HW187349   9.263   0.125   3.630
28484SOL    HW287350   9.249   0.191   3.765
28485SOL     OW87351  11.537  14.015  14.093
28485SOL    HW187352  11.515  13.922  14.083
28485SOL    HW287353  11.453  14.058  14.110
28486SOL     OW87354   6.830   2.018   1.126
28486SOL    HW187355   6.754   2.052   1.174
28486SOL    HW287356   6.903   2.073   1.154
28487SOL     OW87357   6.252   2.663   4.758
28487SOL    HW187358   6.247   2.570   4.780
28487SOL    HW287359   6.346   2.684   4.762
28488SOL     OW87360   5.565  11.223   8.567
28488SOL    HW187361   5.539  11.291   8.504
28488SOL    HW287362   5.551  11.141   8.521
28489SOL     OW87363  11.885   1.253   6.344
28489SOL    HW187364  11.851   1.167   6.320
28489SOL    HW287365  11.931   1.239   6.427
28490SOL     OW87366  14.095   6.555   8.492
28490SOL    HW187367  14.168   6.537   8.551
28490SOL    HW287368  14.101   6.648   8.473
28491SOL     OW87369  11.693  11.484   9.273
28491SOL    HW187370  11.640  11.426   9.219
28491SOL    HW287371  11.633  11.516   9.341
28492SOL     OW87372   8.871   8.108  12.713
28492SOL    HW187373   8.861   8.063  12.629
28492SOL    HW287374   8.935   8.177  12.696
28493SOL     OW87375   2.214  12.738   5.855
28493SOL    HW187376   2.299  12.698   5.840
28493SOL    HW287377   2.200  12.795   5.780
28494SOL     OW87378  11.187   5.115   2.612
28494SOL    HW187379  11.162   5.164   2.533
28494SOL    HW287380  11.250   5.049   2.580
28495SOL     OW87381   2.672  11.562   9.908
28495SOL    HW187382   2.668  11.576   9.813
28495SOL    HW287383   2.747  11.614   9.937
28496SOL     OW87384   1.526   3.234   9.377
28496SOL    HW187385   1.533   3.195   9.289
28496SOL    HW287386   1.458   3.300   9.369
28497SOL     OW87387   1.673   9.755   4.232
28497SOL    HW187388   1.583   9.764   4.203
28497SOL    HW287389   1.724   9.811   4.174
28498SOL     OW87390  10.219  11.582   6.822
28498SOL    HW187391  10.164  11.625   6.757
28498SOL    HW287392  10.289  11.541   6.772
28499SOL     OW87393   7.368   0.912  14.824
28499SOL    HW187394   7.284   0.953  14.803
28499SOL    HW287395   7.433   0.974  14.792
28500SOL     OW87396  13.739  13.452   6.839
28500SOL    HW187397  13.772  13.437   6.927
28500SOL    HW287398  13.811  13.424   6.782
28501SOL     OW87399   6.839   1.459   8.361
28501SOL    HW187400   6.746   1.480   8.372
28501SOL    HW287401   6.856   1.473   8.267
28502SOL     OW87402  10.149  11.388   5.417
28502SOL    HW187403  10.164  11.295   5.434
28502SOL    HW287404  10.152  11.396   5.322
28503SOL     OW87405  14.567   3.202   6.817
28503SOL    HW187406  14.556   3.158   6.733
28503SOL    HW287407  14.526   3.144   6.881
28504SOL     OW87408  12.080  14.502   6.671
28504SOL    HW187409  12.037  14.439   6.613
28504SOL    HW287410  12.060  14.470   6.759
28505SOL     OW87411   0.275   5.340  14.700
28505SOL    HW187412   0.300   5.250  14.721
28505SOL    HW287413   0.224   5.333  14.619
28506SOL     OW87414  14.815  12.122   8.850
28506SOL    HW187415  14.794  12.068   8.926
28506SOL    HW287416  14.852  12.061   8.787
28507SOL     OW87417   5.461   6.752   0.886
28507SOL    HW187418   5.509   6.692   0.830
28507SOL    HW287419   5.375   6.760   0.846
28508SOL     OW87420   8.814   7.614   0.066
28508SOL    HW187421   8.903   7.588   0.090
28508SOL    HW287422   8.758   7.574   0.133
28509SOL     OW87423   5.110  12.838  10.136
28509SOL    HW187424   5.095  12.863  10.045
28509SOL    HW287425   5.204  12.848  10.148
28510SOL     OW87426   7.344   3.403   0.184
28510SOL    HW187427   7.378   3.330   0.132
28510SOL    HW287428   7.376   3.387   0.272
28511SOL     OW87429   4.023   0.030  12.139
28511SOL    HW187430   4.065   0.027  12.053
28511SOL    HW287431   4.030   0.121  12.166
28512SOL     OW87432   0.250   2.847   0.161
28512SOL    HW187433   0.249   2.754   0.139
28512SOL    HW287434   0.336   2.862   0.199
28513SOL     OW87435   4.395   3.203   9.792
28513SOL    HW187436   4.358   3.132   9.845
28513SOL    HW287437   4.392   3.171   9.702
28514SOL     OW87438   3.212   9.056  12.699
28514SOL    HW187439   3.271   9.098  12.637
28514SOL    HW287440   3.223   9.106  12.781
28515SOL     OW87441   4.703  10.518   5.860
28515SOL    HW187442   4.609  10.532   5.862
28515SOL    HW287443   4.738  10.598   5.818
28516SOL     OW87444   4.052   2.780   1.506
28516SOL    HW187445   4.008   2.865   1.509
28516SOL    HW287446   4.140   2.800   1.474
28517SOL     OW87447   7.985   6.904   7.583
28517SOL    HW187448   7.995   6.984   7.532
28517SOL    HW287449   8.066   6.896   7.633
28518SOL     OW87450   5.213   8.838  13.924
28518SOL    HW187451   5.289   8.804  13.972
28518SOL    HW287452   5.248   8.864  13.839
28519SOL     OW87453  11.717  12.091   3.857
28519SOL    HW187454  11.775  12.109   3.931
28519SOL    HW287455  11.629  12.110   3.891
28520SOL     OW87456   4.338   9.723  13.999
28520SOL    HW187457   4.403   9.787  14.027
28520SOL    HW287458   4.367   9.641  14.038
28521SOL     OW87459   4.408   8.040  12.600
28521SOL    HW187460   4.385   8.040  12.693
28521SOL    HW287461   4.375   7.956  12.567
28522SOL     OW87462   8.509  11.757   1.953
28522SOL    HW187463   8.592  11.793   1.985
28522SOL    HW287464   8.531  11.719   1.868
28523SOL     OW87465   9.190  12.453   7.075
28523SOL    HW187466   9.119  12.390   7.066
28523SOL    HW287467   9.261  12.404   7.116
28524SOL     OW87468  11.781   9.886   9.948
28524SOL    HW187469  11.833   9.879  10.028
28524SOL    HW287470  11.706   9.940   9.974
28525SOL     OW87471  12.638   3.148  12.728
28525SOL    HW187472  12.695   3.224  12.737
28525SOL    HW287473  12.647   3.102  12.811
28526SOL     OW87474  10.696   3.578   9.140
28526SOL    HW187475  10.615   3.615   9.176
28526SOL    HW287476  10.692   3.485   9.163
28527SOL     OW87477  13.368   7.313   0.372
28527SOL    HW187478  13.408   7.228   0.353
28527SOL    HW287479  13.292   7.293   0.426
28528SOL     OW87480   4.295   1.208   6.736
28528SOL    HW187481   4.359   1.151   6.779
28528SOL    HW287482   4.272   1.273   6.802
28529SOL     OW87483  13.720   1.001   9.755
28529SOL    HW187484  13.779   1.076   9.753
28529SOL    HW287485  13.735   0.955   9.672
28530SOL     OW87486  14.203  11.118  11.240
28530SOL    HW187487  14.252  11.058  11.296
28530SOL    HW287488  14.267  11.154  11.180
28531SOL     OW87489  11.964   7.466   3.949
28531SOL    HW187490  11.977   7.501   4.038
28531SOL    HW287491  11.994   7.375   3.955
28532SOL     OW87492   8.246   1.136   4.195
28532SOL    HW187493   8.281   1.211   4.146
28532SOL    HW287494   8.203   1.082   4.128
28533SOL     OW87495  14.648   8.533  12.731
28533SOL    HW187496  14.644   8.479  12.652
28533SOL    HW287497  14.646   8.623  12.699
28534SOL     OW87498   4.528   1.723   5.272
28534SOL    HW187499   4.574   1.805   5.257
28534SOL    HW287500   4.436   1.743   5.254
28535SOL     OW87501   2.699   4.622   3.381
28535SOL    HW187502   2.609   4.612   3.412
28535SOL    HW287503   2.716   4.716   3.387
28536SOL     OW87504  10.256   5.330   8.976
28536SOL    HW187505  10.340   5.284   8.988
28536SOL    HW287506  10.232   5.312   8.886
28537SOL     OW87507   0.650   7.189   8.543
28537SOL    HW187508   0.612   7.119   8.491
28537SOL    HW287509   0.586   7.205   8.612
28538SOL     OW87510  14.507   5.134   6.349
28538SOL    HW187511  14.514   5.229   6.339
28538SOL    HW287512  14.418   5.120   6.379
28539SOL     OW87513  10.224   1.826   5.126
28539SOL    HW187514  10.252   1.741   5.160
28539SOL    HW287515  10.142   1.844   5.173
28540SOL     OW87516  14.443   0.058   1.848
28540SOL    HW187517  14.479   0.068   1.936
28540SOL    HW287518  14.355   0.095   1.853
28541SOL     OW87519   3.920   2.069   4.178
28541SOL    HW187520   3.906   2.149   4.229
28541SOL    HW287521   3.842   2.016   4.195
28542SOL     OW87522   7.637   3.670  11.641
28542SOL    HW187523   7.670   3.614  11.571
28542SOL    HW287524   7.588   3.610  11.698
28543SOL     OW87525   8.862   2.559   5.516
28543SOL    HW187526   8.878   2.653   5.511
28543SOL    HW287527   8.857   2.531   5.425
28544SOL     OW87528  12.927   5.653   1.135
28544SOL    HW187529  12.939   5.612   1.221
28544SOL    HW287530  12.846   5.615   1.102
28545SOL     OW87531   5.159  14.110   2.456
28545SOL    HW187532   5.250  14.113   2.486
28545SOL    HW287533   5.153  14.181   2.392
28546SOL     OW87534   3.791   3.605   1.173
28546SOL    HW187535   3.788   3.510   1.183
28546SOL    HW287536   3.702   3.634   1.191
28547SOL     OW87537   1.975   9.030   6.717
28547SOL    HW187538   1.897   9.072   6.752
28547SOL    HW287539   2.035   9.025   6.793
28548SOL     OW87540  13.621  10.082  11.567
28548SOL    HW187541  13.670  10.145  11.514
28548SOL    HW287542  13.607  10.008  11.509
28549SOL     OW87543  11.136   9.913   7.544
28549SOL    HW187544  11.150   9.921   7.449
28549SOL    HW287545  11.189   9.838   7.570
28550SOL     OW87546   3.062  14.286   4.930
28550SOL    HW187547   2.979  14.332   4.916
28550SOL    HW287548   3.071  14.281   5.025
28551SOL     OW87549   2.044   7.344  11.637
28551SOL    HW187550   1.988   7.371  11.710
28551SOL    HW287551   2.132   7.342  11.674
28552SOL     OW87552   7.024   4.170   5.030
28552SOL    HW187553   6.957   4.102   5.029
28552SOL    HW287554   7.076   4.155   4.951
28553SOL     OW87555  13.216  11.043   5.422
28553SOL    HW187556  13.197  11.028   5.515
28553SOL    HW287557  13.184  11.131   5.404
28554SOL     OW87558   5.729   0.004   1.599
28554SOL    HW187559   5.744   0.047   1.515
28554SOL    HW287560   5.725  14.798   1.578
28555SOL     OW87561   5.431  11.292   6.108
28555SOL    HW187562   5.349  11.325   6.073
28555SOL    HW287563   5.499  11.336   6.056
28556SOL     OW87564   3.508  10.882   0.824
28556SOL    HW187565   3.510  10.821   0.897
28556SOL    HW287566   3.482  10.965   0.863
28557SOL     OW87567   9.673  13.243  10.981
28557SOL    HW187568   9.601  13.207  11.033
28557SOL    HW287569   9.630  13.301  10.918
28558SOL     OW87570   9.839   5.946  11.685
28558SOL    HW187571   9.877   6.024  11.727
28558SOL    HW287572   9.809   5.892  11.757
28559SOL     OW87573   4.836   0.163   1.253
28559SOL    HW187574   4.774   0.182   1.183
28559SOL    HW287575   4.782   0.126   1.323
28560SOL     OW87576   6.617  13.473   5.726
28560SOL    HW187577   6.598  13.462   5.632
28560SOL    HW287578   6.573  13.555   5.748
28561SOL     OW87579   1.725  14.871   6.510
28561SOL    HW187580   1.733   0.077   6.495
28561SOL    HW287581   1.635  14.850   6.486
28562SOL     OW87582  13.290  14.786   0.452
28562SOL    HW187583  13.327  14.842   0.520
28562SOL    HW287584  13.367  14.752   0.405
28563SOL     OW87585   1.913   3.843   8.628
28563SOL    HW187586   1.947   3.786   8.696
28563SOL    HW287587   1.845   3.895   8.671
28564SOL     OW87588   6.523   1.329   2.548
28564SOL    HW187589   6.458   1.399   2.545
28564SOL    HW287590   6.561   1.327   2.461
28565SOL     OW87591   3.599   7.650   4.547
28565SOL    HW187592   3.655   7.721   4.514
28565SOL    HW287593   3.518   7.658   4.496
28566SOL     OW87594   3.901   1.077  11.499
28566SOL    HW187595   3.839   1.073  11.573
28566SOL    HW287596   3.935   0.988  11.491
28567SOL     OW87597  13.576   8.691   0.937
28567SOL    HW187598  13.575   8.667   0.845
28567SOL    HW287599  13.650   8.750   0.946
28568SOL     OW87600   9.255  14.862  12.044
28568SOL    HW187601   9.162  14.837  12.047
28568SOL    HW287602   9.270   0.022  12.126
28569SOL     OW87603  14.670  12.632   0.112
28569SOL    HW187604  14.614  12.567   0.156
28569SOL    HW287605  14.752  12.630   0.162
28570SOL     OW87606   6.458  10.428  11.203
28570SOL    HW187607   6.365  10.439  11.223
28570SOL    HW287608   6.471  10.333  11.201
28571SOL     OW87609   5.351  14.519   6.007
28571SOL    HW187610   5.389  14.482   6.087
28571SOL    HW287611   5.335  14.444   5.951
28572SOL     OW87612   6.543   4.937   3.517
28572SOL    HW187613   6.611   4.896   3.463
28572SOL    HW287614   6.534   4.879   3.592
28573SOL     OW87615   5.587   2.584   3.458
28573SOL    HW187616   5.534   2.616   3.386
28573SOL    HW287617   5.564   2.491   3.466
28574SOL     OW87618  10.219   7.845  14.387
28574SOL    HW187619  10.195   7.776  14.449
28574SOL    HW287620  10.141   7.898  14.378
28575SOL     OW87621  13.136  12.814   7.334
28575SOL    HW187622  13.212  12.814   7.392
28575SOL    HW287623  13.151  12.741   7.274
28576SOL     OW87624   0.783  10.564   9.740
28576SOL    HW187625   0.848  10.498   9.765
28576SOL    HW287626   0.830  10.647   9.744
28577SOL     OW87627  11.882   9.731   8.252
28577SOL    HW187628  11.807   9.791   8.251
28577SOL    HW287629  11.950   9.776   8.203
28578SOL     OW87630   0.065   8.769  12.391
28578SOL    HW187631   0.060   8.863  12.371
28578SOL    HW287632   0.152   8.742  12.361
28579SOL     OW87633  14.233   2.895   7.617
28579SOL    HW187634  14.226   2.851   7.533
28579SOL    HW287635  14.239   2.824   7.681
28580SOL     OW87636   5.839   0.442   0.230
28580SOL    HW187637   5.807   0.529   0.253
28580SOL    HW287638   5.864   0.403   0.314
28581SOL     OW87639   7.790   2.495  11.063
28581SOL    HW187640   7.797   2.406  11.030
28581SOL    HW287641   7.861   2.543  11.021
28582SOL     OW87642  14.292   5.255   2.652
28582SOL    HW187643  14.265   5.218   2.736
28582SOL    HW287644  14.354   5.191   2.616
28583SOL     OW87645   1.058  13.791   1.940
28583SOL    HW187646   0.984  13.734   1.964
28583SOL    HW287647   1.101  13.810   2.024
28584SOL     OW87648   0.181  14.274   3.884
28584SOL    HW187649   0.136  14.223   3.816
28584SOL    HW287650   0.117  14.279   3.955
28585SOL     OW87651   9.954   6.931  10.797
28585SOL    HW187652   9.877   6.940  10.741
28585SOL    HW287653   9.928   6.974  10.879
28586SOL     OW87654   9.742   9.666   2.211
28586SOL    HW187655   9.743   9.761   2.198
28586SOL    HW287656   9.819   9.648   2.264
28587SOL     OW87657  11.945  13.552   8.381
28587SOL    HW187658  12.010  13.597   8.327
28587SOL    HW287659  11.995  13.489   8.433
28588SOL     OW87660   6.017  14.112   4.277
28588SOL    HW187661   6.034  14.121   4.371
28588SOL    HW287662   5.951  14.043   4.270
28589SOL     OW87663  13.894   6.839  12.053
28589SOL    HW187664  13.833   6.884  11.995
28589SOL    HW287665  13.840   6.807  12.125
28590SOL     OW87666  10.484   8.294   9.440
28590SOL    HW187667  10.415   8.251   9.390
28590SOL    HW287668  10.564   8.276   9.390
28591SOL     OW87669  10.752  10.320   7.375
28591SOL    HW187670  10.798  10.264   7.437
28591SOL    HW287671  10.811  10.395   7.362
28592SOL     OW87672   1.669   6.962   7.103
28592SOL    HW187673   1.661   6.883   7.051
28592SOL    HW287674   1.595   6.958   7.164
28593SOL     OW87675  13.851   6.194   2.653
28593SOL    HW187676  13.788   6.240   2.598
28593SOL    HW287677  13.914   6.260   2.679
28594SOL     OW87678  13.316   2.816  11.548
28594SOL    HW187679  13.386   2.833  11.611
28594SOL    HW287680  13.237   2.806  11.602
28595SOL     OW87681   0.995  14.660   7.142
28595SOL    HW187682   1.029  14.734   7.192
28595SOL    HW287683   0.902  14.678   7.132
28596SOL     OW87684   5.592   2.391  10.607
28596SOL    HW187685   5.514   2.371  10.658
28596SOL    HW287686   5.637   2.459  10.658
28597SOL     OW87687   1.418   9.366   8.163
28597SOL    HW187688   1.492   9.370   8.224
28597SOL    HW287689   1.413   9.453   8.125
28598SOL     OW87690   0.662  11.307  14.326
28598SOL    HW187691   0.742  11.277  14.368
28598SOL    HW287692   0.663  11.266  14.239
28599SOL     OW87693   2.271  11.008   6.011
28599SOL    HW187694   2.251  11.095   5.976
28599SOL    HW287695   2.349  10.980   5.963
28600SOL     OW87696   0.105   8.829   5.764
28600SOL    HW187697   0.074   8.910   5.805
28600SOL    HW287698   0.199   8.828   5.782
28601SOL     OW87699   8.980  14.447   2.844
28601SOL    HW187700   9.042  14.519   2.847
28601SOL    HW287701   8.941  14.444   2.931
28602SOL     OW87702  10.964  10.697   4.888
28602SOL    HW187703  10.984  10.790   4.890
28602SOL    HW287704  10.918  10.681   4.971
28603SOL     OW87705   1.271   2.553   5.781
28603SOL    HW187706   1.358   2.526   5.754
28603SOL    HW287707   1.230   2.585   5.700
28604SOL     OW87708   5.200   1.693   1.410
28604SOL    HW187709   5.259   1.644   1.468
28604SOL    HW287710   5.164   1.627   1.351
28605SOL     OW87711   7.132  10.385   6.708
28605SOL    HW187712   7.154  10.411   6.618
28605SOL    HW287713   7.039  10.363   6.705
28606SOL     OW87714  12.377  12.365   2.790
28606SOL    HW187715  12.398  12.282   2.833
28606SOL    HW287716  12.282  12.365   2.783
28607SOL     OW87717   8.438   7.323   8.805
28607SOL    HW187718   8.415   7.234   8.779
28607SOL    HW287719   8.381   7.379   8.752
28608SOL     OW87720   7.906  14.464  12.889
28608SOL    HW187721   7.897  14.516  12.969
28608SOL    HW287722   7.867  14.518  12.821
28609SOL     OW87723   6.805  12.320   6.638
28609SOL    HW187724   6.880  12.367   6.675
28609SOL    HW287725   6.763  12.383   6.581
28610SOL     OW87726   2.875   0.889   1.173
28610SOL    HW187727   2.790   0.902   1.131
28610SOL    HW287728   2.886   0.794   1.175
28611SOL     OW87729   8.173   8.452   4.947
28611SOL    HW187730   8.144   8.509   4.876
28611SOL    HW287731   8.092   8.417   4.985
28612SOL     OW87732   1.424  13.406   9.941
28612SOL    HW187733   1.460  13.467   9.877
28612SOL    HW287734   1.501  13.370   9.985
28613SOL     OW87735  10.325   0.935   2.196
28613SOL    HW187736  10.386   0.948   2.268
28613SOL    HW287737  10.343   1.008   2.137
28614SOL     OW87738   0.438  12.438  13.389
28614SOL    HW187739   0.408  12.388  13.465
28614SOL    HW287740   0.416  12.529  13.410
28615SOL     OW87741   8.036   7.575  13.695
28615SOL    HW187742   8.003   7.581  13.785
28615SOL    HW287743   8.053   7.482  13.682
28616SOL     OW87744   9.920   3.040   4.993
28616SOL    HW187745   9.838   3.032   4.944
28616SOL    HW287746   9.985   3.065   4.928
28617SOL     OW87747   4.166  11.506   6.410
28617SOL    HW187748   4.108  11.523   6.336
28617SOL    HW287749   4.191  11.593   6.442
28618SOL     OW87750  11.044  12.546   8.838
28618SOL    HW187751  11.068  12.625   8.886
28618SOL    HW287752  11.029  12.576   8.749
28619SOL     OW87753   0.196   3.486   2.523
28619SOL    HW187754   0.166   3.400   2.551
28619SOL    HW287755   0.184   3.487   2.428
28620SOL     OW87756  11.035  13.801  10.107
28620SOL    HW187757  11.099  13.792  10.036
28620SOL    HW287758  11.081  13.768  10.184
28621SOL     OW87759   6.505   0.092  11.425
28621SOL    HW187760   6.591   0.057  11.449
28621SOL    HW287761   6.457   0.097  11.508
28622SOL     OW87762   6.122   6.672   9.982
28622SOL    HW187763   6.191   6.607   9.970
28622SOL    HW287764   6.101   6.701   9.894
28623SOL     OW87765   5.899   8.254  11.158
28623SOL    HW187766   5.844   8.237  11.082
28623SOL    HW287767   5.890   8.347  11.175
28624SOL     OW87768  12.594   4.762   4.322
28624SOL    HW187769  12.657   4.714   4.269
28624SOL    HW287770  12.611   4.733   4.412
28625SOL     OW87771   4.553   6.949   7.876
28625SOL    HW187772   4.581   6.878   7.933
28625SOL    HW287773   4.464   6.927   7.852
28626SOL     OW87774   5.647   2.748  13.354
28626SOL    HW187775   5.705   2.687  13.400
28626SOL    HW287776   5.693   2.832  13.358
28627SOL     OW87777  12.331   8.878   3.431
28627SOL    HW187778  12.368   8.799   3.391
28627SOL    HW287779  12.351   8.869   3.525
28628SOL     OW87780   5.403  10.646   8.107
28628SOL    HW187781   5.329  10.612   8.057
28628SOL    HW287782   5.364  10.682   8.187
28629SOL     OW87783   8.524   1.407   4.469
28629SOL    HW187784   8.518   1.427   4.375
28629SOL    HW287785   8.435   1.417   4.501
28630SOL     OW87786   6.174   0.968   2.003
28630SOL    HW187787   6.241   1.036   1.995
28630SOL    HW287788   6.156   0.963   2.097
28631SOL     OW87789   7.355  12.218   3.511
28631SOL    HW187790   7.261  12.231   3.523
28631SOL    HW287791   7.389  12.207   3.600
28632SOL     OW87792   3.142   4.468   2.359
28632SOL    HW187793   3.158   4.554   2.320
28632SOL    HW287794   3.115   4.413   2.286
28633SOL     OW87795   9.075  10.624  13.304
28633SOL    HW187796   9.060  10.716  13.282
28633SOL    HW287797   8.988  10.584  13.303
28634SOL     OW87798  13.360  10.126   9.410
28634SOL    HW187799  13.353  10.127   9.314
28634SOL    HW287800  13.420  10.199   9.429
28635SOL     OW87801   5.127   1.591   5.715
28635SOL    HW187802   5.137   1.678   5.675
28635SOL    HW287803   5.158   1.530   5.648
28636SOL     OW87804  14.444   8.012   4.092
28636SOL    HW187805  14.521   8.034   4.040
28636SOL    HW287806  14.370   8.051   4.046
28637SOL     OW87807   4.921   2.403   0.906
28637SOL    HW187808   4.972   2.395   0.986
28637SOL    HW287809   4.974   2.458   0.848
28638SOL     OW87810   9.408   5.833   6.008
28638SOL    HW187811   9.338   5.840   5.943
28638SOL    HW287812   9.370   5.869   6.088
28639SOL     OW87813  13.756   1.734   0.195
28639SOL    HW187814  13.796   1.674   0.258
28639SOL    HW287815  13.827   1.793   0.170
28640SOL     OW87816   3.467   3.042   3.287
28640SOL    HW187817   3.546   3.001   3.251
28640SOL    HW287818   3.431   3.092   3.214
28641SOL     OW87819  11.502  13.698   9.161
28641SOL    HW187820  11.415  13.736   9.178
28641SOL    HW287821  11.563  13.764   9.194
28642SOL     OW87822   2.685   1.646   9.706
28642SOL    HW187823   2.770   1.607   9.727
28642SOL    HW287824   2.653   1.680   9.790
28643SOL     OW87825   0.092   5.943   8.478
28643SOL    HW187826   0.123   5.880   8.544
28643SOL    HW287827   0.035   6.002   8.527
28644SOL     OW87828  14.393  11.149   9.162
28644SOL    HW187829  14.476  11.196   9.174
28644SOL    HW287830  14.405  11.066   9.209
28645SOL     OW87831   0.920  13.027   9.955
28645SOL    HW187832   0.883  13.103  10.000
28645SOL    HW287833   1.001  13.007  10.003
28646SOL     OW87834  11.469   7.291  14.454
28646SOL    HW187835  11.502   7.228  14.391
28646SOL    HW287836  11.512   7.373  14.430
28647SOL     OW87837   7.036   9.947   6.820
28647SOL    HW187838   7.076   9.861   6.804
28647SOL    HW287839   7.072  10.003   6.752
28648SOL     OW87840   8.718  13.348   9.471
28648SOL    HW187841   8.784  13.283   9.448
28648SOL    HW287842   8.671  13.311   9.546
28649SOL     OW87843   7.928   2.426   2.363
28649SOL    HW187844   7.864   2.406   2.295
28649SOL    HW287845   7.915   2.518   2.383
28650SOL     OW87846   8.695   2.647  11.443
28650SOL    HW187847   8.693   2.603  11.358
28650SOL    HW287848   8.786   2.674  11.454
28651SOL     OW87849  12.569  10.268   0.839
28651SOL    HW187850  12.572  10.360   0.812
28651SOL    HW287851  12.612  10.221   0.767
28652SOL     OW87852  14.825  12.406   0.266
28652SOL    HW187853  14.831  12.486   0.319
28652SOL    HW287854  14.751  12.358   0.304
28653SOL     OW87855   6.690  12.555   6.495
28653SOL    HW187856   6.616  12.611   6.472
28653SOL    HW287857   6.759  12.616   6.521
28654SOL     OW87858   1.177   9.671   1.059
28654SOL    HW187859   1.101   9.680   1.002
28654SOL    HW287860   1.229   9.602   1.019
28655SOL     OW87861   9.658   6.294   0.853
28655SOL    HW187862   9.693   6.315   0.767
28655SOL    HW287863   9.730   6.252   0.900
28656SOL     OW87864   0.096  10.554  10.199
28656SOL    HW187865   0.097  10.647  10.178
28656SOL    HW287866   0.008  10.525  10.175
28657SOL     OW87867   7.126  10.183   2.572
28657SOL    HW187868   7.145  10.262   2.522
28657SOL    HW287869   7.171  10.113   2.525
28658SOL     OW87870   9.371  11.546   8.608
28658SOL    HW187871   9.397  11.537   8.699
28658SOL    HW287872   9.434  11.493   8.559
28659SOL     OW87873  12.226   8.163   8.517
28659SOL    HW187874  12.132   8.158   8.498
28659SOL    HW287875  12.231   8.192   8.608
28660SOL     OW87876   2.335   7.216  10.978
28660SOL    HW187877   2.424   7.227  10.945
28660SOL    HW287878   2.329   7.124  11.003
28661SOL     OW87879   2.166  10.406   5.878
28661SOL    HW187880   2.234  10.433   5.817
28661SOL    HW287881   2.135  10.322   5.844
28662SOL     OW87882   9.465  10.777  10.298
28662SOL    HW187883   9.447  10.847  10.361
28662SOL    HW287884   9.380  10.734  10.285
28663SOL     OW87885   3.458   1.015   1.321
28663SOL    HW187886   3.464   1.107   1.346
28663SOL    HW287887   3.537   0.998   1.271
28664SOL     OW87888   1.576  11.582   1.967
28664SOL    HW187889   1.578  11.576   2.062
28664SOL    HW287890   1.514  11.653   1.949
28665SOL     OW87891   2.213   1.360   0.981
28665SOL    HW187892   2.158   1.361   1.060
28665SOL    HW287893   2.156   1.324   0.913
28666SOL     OW87894   6.683   3.592   3.329
28666SOL    HW187895   6.622   3.550   3.268
28666SOL    HW287896   6.627   3.631   3.396
28667SOL     OW87897   4.916   3.575  12.918
28667SOL    HW187898   4.988   3.535  12.968
28667SOL    HW287899   4.954   3.591  12.832
28668SOL     OW87900   4.499   1.099   6.468
28668SOL    HW187901   4.442   1.136   6.534
28668SOL    HW287902   4.534   1.174   6.420
28669SOL     OW87903  14.715  11.647   0.030
28669SOL    HW187904  14.776  11.719   0.042
28669SOL    HW287905  14.769  11.574  14.886
28670SOL     OW87906   2.269   5.377  14.755
28670SOL    HW187907   2.252   5.437  14.683
28670SOL    HW287908   2.311   5.430  14.822
28671SOL     OW87909   8.041   6.308   9.021
28671SOL    HW187910   7.947   6.294   9.020
28671SOL    HW287911   8.072   6.255   9.095
28672SOL     OW87912   9.844   8.345   2.636
28672SOL    HW187913   9.901   8.385   2.570
28672SOL    HW287914   9.768   8.403   2.641
28673SOL     OW87915  13.262   0.075   3.496
28673SOL    HW187916  13.293   0.159   3.462
28673SOL    HW287917  13.329   0.012   3.470
28674SOL     OW87918   8.573   9.143  12.602
28674SOL    HW187919   8.582   9.121  12.509
28674SOL    HW287920   8.663   9.151  12.634
28675SOL     OW87921  13.594  14.208   9.045
28675SOL    HW187922  13.603  14.258   8.964
28675SOL    HW287923  13.677  14.222   9.091
28676SOL     OW87924  14.453   9.235  12.392
28676SOL    HW187925  14.496   9.221  12.307
28676SOL    HW287926  14.525   9.242  12.454
28677SOL     OW87927   5.522   4.329   1.954
28677SOL    HW187928   5.536   4.422   1.937
28677SOL    HW287929   5.428   4.317   1.942
28678SOL     OW87930   2.550   2.185  14.121
28678SOL    HW187931   2.506   2.208  14.040
28678SOL    HW287932   2.626   2.133  14.093
28679SOL     OW87933  13.749   1.006  12.396
28679SOL    HW187934  13.690   0.949  12.347
28679SOL    HW287935  13.711   1.011  12.484
28680SOL     OW87936   3.755   5.572   4.226
28680SOL    HW187937   3.671   5.613   4.202
28680SOL    HW287938   3.811   5.587   4.150
28681SOL     OW87939  13.737   2.422   3.141
28681SOL    HW187940  13.650   2.458   3.126
28681SOL    HW287941  13.721   2.338   3.185
28682SOL     OW87942   2.497   0.551  11.701
28682SOL    HW187943   2.456   0.632  11.732
28682SOL    HW287944   2.540   0.515  11.778
28683SOL     OW87945   2.226   4.653  10.786
28683SOL    HW187946   2.134   4.627  10.784
28683SOL    HW287947   2.233   4.711  10.862
28684SOL     OW87948  13.769  14.486   3.921
28684SOL    HW187949  13.782  14.392   3.913
28684SOL    HW287950  13.824  14.513   3.994
28685SOL     OW87951   4.383  10.688   3.856
28685SOL    HW187952   4.451  10.637   3.901
28685SOL    HW287953   4.397  10.778   3.886
28686SOL     OW87954   1.274  11.326   4.388
28686SOL    HW187955   1.248  11.341   4.297
28686SOL    HW287956   1.225  11.391   4.438
28687SOL     OW87957   5.941   2.753  13.567
28687SOL    HW187958   5.943   2.750  13.663
28687SOL    HW287959   5.891   2.676  13.542
28688SOL     OW87960   2.867  12.145  13.546
28688SOL    HW187961   2.815  12.173  13.621
28688SOL    HW287962   2.898  12.227  13.506
28689SOL     OW87963   9.815   2.478   1.777
28689SOL    HW187964   9.765   2.521   1.847
28689SOL    HW287965   9.834   2.391   1.810
28690SOL     OW87966  10.003   0.196   9.790
28690SOL    HW187967  10.005   0.101   9.776
28690SOL    HW287968   9.913   0.221   9.769
28691SOL     OW87969   7.187   7.140  11.621
28691SOL    HW187970   7.240   7.210  11.582
28691SOL    HW287971   7.180   7.074  11.552
28692SOL     OW87972   9.368   6.471   9.031
28692SOL    HW187973   9.449   6.516   9.054
28692SOL    HW287974   9.369   6.465   8.936
28693SOL     OW87975  11.731   9.790  14.384
28693SOL    HW187976  11.769   9.785  14.472
28693SOL    HW287977  11.649   9.837  14.396
28694SOL     OW87978   4.435  13.902   7.557
28694SOL    HW187979   4.475  13.981   7.595
28694SOL    HW287980   4.483  13.830   7.597
28695SOL     OW87981  12.033  10.723   0.538
28695SOL    HW187982  12.044  10.802   0.591
28695SOL    HW287983  12.122  10.702   0.508
28696SOL     OW87984   3.803  13.693   4.307
28696SOL    HW187985   3.724  13.746   4.295
28696SOL    HW287986   3.875  13.756   4.306
28697SOL     OW87987  13.173   3.905   7.545
28697SOL    HW187988  13.078   3.891   7.552
28697SOL    HW287989  13.200   3.932   7.632
28698SOL     OW87990   3.309  11.975  11.178
28698SOL    HW187991   3.286  11.899  11.124
28698SOL    HW287992   3.275  12.050  11.130
28699SOL     OW87993   3.572  12.708   3.918
28699SOL    HW187994   3.614  12.622   3.914
28699SOL    HW287995   3.604  12.746   4.000
28700SOL     OW87996  12.850  11.131  12.873
28700SOL    HW187997  12.773  11.108  12.821
28700SOL    HW287998  12.827  11.106  12.962
28701SOL     OW87999  11.305   0.379  12.983
28701SOL    HW188000  11.331   0.470  12.978
28701SOL    HW288001  11.362   0.342  13.051
28702SOL     OW88002  14.182   7.006  11.922
28702SOL    HW188003  14.100   7.043  11.889
28702SOL    HW288004  14.190   6.922  11.877
28703SOL     OW88005   8.269   2.743   2.942
28703SOL    HW188006   8.193   2.709   2.990
28703SOL    HW288007   8.304   2.666   2.896
28704SOL     OW88008   1.891   8.279   7.256
28704SOL    HW188009   1.831   8.237   7.194
28704SOL    HW288010   1.865   8.371   7.255
28705SOL     OW88011  11.187  12.972   4.347
28705SOL    HW188012  11.139  13.035   4.293
28705SOL    HW288013  11.124  12.902   4.364
28706SOL     OW88014   3.512   6.298   5.257
28706SOL    HW188015   3.580   6.329   5.317
28706SOL    HW288016   3.454   6.245   5.311
28707SOL     OW88017   6.364  10.478   4.945
28707SOL    HW188018   6.417  10.557   4.958
28707SOL    HW288019   6.424  10.415   4.904
28708SOL     OW88020   3.218   1.550  14.876
28708SOL    HW188021   3.289   1.495   0.023
28708SOL    HW288022   3.141   1.523   0.037
28709SOL     OW88023  14.053   9.412   0.204
28709SOL    HW188024  13.960   9.394   0.191
28709SOL    HW288025  14.093   9.326   0.214
28710SOL     OW88026   9.000  11.782   7.204
28710SOL    HW188027   8.917  11.819   7.174
28710SOL    HW288028   9.053  11.773   7.125
28711SOL     OW88029   9.096   4.366   5.373
28711SOL    HW188030   9.164   4.313   5.414
28711SOL    HW288031   9.063   4.421   5.444
28712SOL     OW88032  13.336   8.035   2.574
28712SOL    HW188033  13.244   8.016   2.554
28712SOL    HW288034  13.333   8.092   2.650
28713SOL     OW88035  11.398   2.397  10.167
28713SOL    HW188036  11.419   2.424  10.077
28713SOL    HW288037  11.313   2.436  10.185
28714SOL     OW88038   8.728  10.424  12.218
28714SOL    HW188039   8.745  10.356  12.153
28714SOL    HW288040   8.644  10.461  12.192
28715SOL     OW88041  10.733   4.881   9.285
28715SOL    HW188042  10.699   4.880   9.374
28715SOL    HW288043  10.818   4.926   9.292
28716SOL     OW88044   9.728   2.530  11.044
28716SOL    HW188045   9.634   2.543  11.053
28716SOL    HW288046   9.740   2.494  10.957
28717SOL     OW88047  11.503  11.057  13.704
28717SOL    HW188048  11.454  11.140  13.697
28717SOL    HW288049  11.595  11.084  13.701
28718SOL     OW88050   4.903   2.070   8.234
28718SOL    HW188051   4.884   2.038   8.146
28718SOL    HW288052   4.819   2.063   8.281
28719SOL     OW88053  11.019  13.115   3.936
28719SOL    HW188054  11.093  13.164   3.972
28719SOL    HW288055  10.965  13.095   4.012
28720SOL     OW88056   6.884   6.700   5.088
28720SOL    HW188057   6.974   6.731   5.098
28720SOL    HW288058   6.834   6.754   5.149
28721SOL     OW88059   3.718   6.706  10.044
28721SOL    HW188060   3.737   6.784   9.992
28721SOL    HW288061   3.803   6.668  10.062
28722SOL     OW88062   2.735   6.229  14.686
28722SOL    HW188063   2.741   6.231  14.781
28722SOL    HW288064   2.722   6.137  14.664
28723SOL     OW88065  14.133   2.087   8.511
28723SOL    HW188066  14.074   2.162   8.520
28723SOL    HW288067  14.093   2.019   8.566
28724SOL     OW88068   3.597   3.953   5.322
28724SOL    HW188069   3.655   3.981   5.393
28724SOL    HW288070   3.528   4.020   5.319
28725SOL     OW88071  10.837  10.427   1.192
28725SOL    HW188072  10.871  10.349   1.234
28725SOL    HW288073  10.765  10.397   1.137
28726SOL     OW88074  11.698  12.654   6.599
28726SOL    HW188075  11.662  12.701   6.524
28726SOL    HW288076  11.691  12.562   6.575
28727SOL     OW88077   9.423   8.462  12.288
28727SOL    HW188078   9.445   8.374  12.317
28727SOL    HW288079   9.477   8.477  12.210
28728SOL     OW88080  13.005   4.940   1.528
28728SOL    HW188081  13.045   5.010   1.477
28728SOL    HW288082  13.073   4.872   1.533
28729SOL     OW88083   8.596  10.237   0.340
28729SOL    HW188084   8.592  10.317   0.288
28729SOL    HW288085   8.564  10.262   0.426
28730SOL     OW88086   6.109   7.093   4.018
28730SOL    HW188087   6.028   7.111   3.970
28730SOL    HW288088   6.086   7.106   4.110
28731SOL     OW88089   0.814  11.359   4.031
28731SOL    HW188090   0.830  11.342   3.938
28731SOL    HW288091   0.753  11.290   4.057
28732SOL     OW88092   1.195  13.707  11.158
28732SOL    HW188093   1.190  13.749  11.244
28732SOL    HW288094   1.146  13.625  11.169
28733SOL     OW88095   1.939  12.984  12.095
28733SOL    HW188096   2.034  12.987  12.098
28733SOL    HW288097   1.917  12.893  12.076
28734SOL     OW88098  10.877  11.237   3.319
28734SOL    HW188099  10.800  11.201   3.274
28734SOL    HW288100  10.948  11.227   3.255
28735SOL     OW88101   8.277   3.291  10.695
28735SOL    HW188102   8.209   3.344  10.654
28735SOL    HW288103   8.233   3.209  10.717
28736SOL     OW88104   6.716   3.770   0.692
28736SOL    HW188105   6.793   3.717   0.713
28736SOL    HW288106   6.721   3.781   0.597
28737SOL     OW88107   0.394   5.856   2.512
28737SOL    HW188108   0.389   5.874   2.419
28737SOL    HW288109   0.371   5.763   2.520
28738SOL     OW88110   5.861   5.863   0.062
28738SOL    HW188111   5.798   5.905   0.004
28738SOL    HW288112   5.937   5.920   0.060
28739SOL     OW88113   4.054   3.495   0.884
28739SOL    HW188114   4.013   3.414   0.913
28739SOL    HW288115   4.148   3.481   0.897
28740SOL     OW88116   6.925   2.750  10.357
28740SOL    HW188117   6.952   2.661  10.335
28740SOL    HW288118   7.004   2.803  10.346
28741SOL     OW88119   1.916   3.327   3.379
28741SOL    HW188120   1.875   3.300   3.461
28741SOL    HW288121   1.916   3.423   3.383
28742SOL     OW88122  10.161  14.026   8.547
28742SOL    HW188123  10.154  13.933   8.524
28742SOL    HW288124  10.090  14.068   8.499
28743SOL     OW88125   7.616   6.008  11.501
28743SOL    HW188126   7.545   6.012  11.437
28743SOL    HW288127   7.591   5.937  11.561
28744SOL     OW88128  10.628  12.239   3.147
28744SOL    HW188129  10.682  12.253   3.069
28744SOL    HW288130  10.691  12.233   3.219
28745SOL     OW88131   9.874  14.448   4.294
28745SOL    HW188132   9.944  14.402   4.340
28745SOL    HW288133   9.809  14.466   4.362
28746SOL     OW88134  10.102   6.859   4.668
28746SOL    HW188135  10.151   6.918   4.610
28746SOL    HW288136  10.015   6.899   4.673
28747SOL     OW88137  11.752  11.075   5.672
28747SOL    HW188138  11.821  11.016   5.703
28747SOL    HW288139  11.703  11.098   5.752
28748SOL     OW88140  14.140   7.900  14.654
28748SOL    HW188141  14.096   7.964  14.710
28748SOL    HW288142  14.142   7.941  14.568
28749SOL     OW88143   6.155  14.699   2.329
28749SOL    HW188144   6.237  14.744   2.352
28749SOL    HW288145   6.174  14.658   2.245
28750SOL     OW88146   8.480   0.161  11.442
28750SOL    HW188147   8.396   0.116  11.453
28750SOL    HW288148   8.476   0.233  11.505
28751SOL     OW88149   1.067   0.361   6.938
28751SOL    HW188150   1.126   0.306   6.990
28751SOL    HW288151   1.105   0.448   6.941
28752SOL     OW88152   6.238   4.034   8.243
28752SOL    HW188153   6.224   3.945   8.211
28752SOL    HW288154   6.167   4.085   8.204
28753SOL     OW88155  14.706   4.373  14.093
28753SOL    HW188156  14.615   4.400  14.103
28753SOL    HW288157  14.754   4.421  14.160
28754SOL     OW88158   2.094   1.210  13.660
28754SOL    HW188159   2.027   1.143  13.674
28754SOL    HW288160   2.078   1.275  13.729
28755SOL     OW88161   8.152   0.109   2.692
28755SOL    HW188162   8.109   0.040   2.641
28755SOL    HW288163   8.098   0.119   2.770
28756SOL     OW88164  12.099  11.679   1.668
28756SOL    HW188165  12.116  11.607   1.607
28756SOL    HW288166  12.185  11.713   1.691
28757SOL     OW88167   4.095   7.329  12.433
28757SOL    HW188168   4.060   7.343  12.521
28757SOL    HW288169   4.088   7.414  12.391
28758SOL     OW88170   2.380   7.149   9.792
28758SOL    HW188171   2.457   7.170   9.845
28758SOL    HW288172   2.354   7.062   9.821
28759SOL     OW88173   9.872   3.789   4.898
28759SOL    HW188174   9.934   3.764   4.829
28759SOL    HW288175   9.820   3.710   4.913
28760SOL     OW88176   1.031  13.004   5.023
28760SOL    HW188177   1.020  12.957   4.941
28760SOL    HW288178   0.945  12.998   5.066
28761SOL     OW88179   9.609   2.637   2.358
28761SOL    HW188180   9.541   2.598   2.414
28761SOL    HW288181   9.628   2.569   2.293
28762SOL     OW88182  12.513   4.765  12.794
28762SOL    HW188183  12.441   4.785  12.733
28762SOL    HW288184  12.502   4.673  12.815
28763SOL     OW88185   3.254   9.897   5.692
28763SOL    HW188186   3.271   9.819   5.744
28763SOL    HW288187   3.267   9.870   5.602
28764SOL     OW88188  10.952  10.538   8.629
28764SOL    HW188189  10.875  10.482   8.633
28764SOL    HW288190  11.011  10.493   8.570
28765SOL     OW88191   9.472   2.183  11.715
28765SOL    HW188192   9.509   2.095  11.711
28765SOL    HW288193   9.427   2.193  11.631
28766SOL     OW88194   3.411   3.550  11.882
28766SOL    HW188195   3.454   3.585  11.804
28766SOL    HW288196   3.458   3.590  11.955
28767SOL     OW88197   1.688  12.364  12.901
28767SOL    HW188198   1.712  12.457  12.901
28767SOL    HW288199   1.638  12.352  12.982
28768SOL     OW88200   1.472  12.586  10.572
28768SOL    HW188201   1.386  12.563  10.608
28768SOL    HW288202   1.472  12.548  10.484
28769SOL     OW88203   5.133  14.392   1.212
28769SOL    HW188204   5.194  14.428   1.276
28769SOL    HW288205   5.070  14.343   1.265
28770SOL     OW88206  14.468   8.202  14.851
28770SOL    HW188207  14.436   8.114  14.831
28770SOL    HW288208  14.534   8.219  14.784
28771SOL     OW88209  10.108  13.964   4.685
28771SOL    HW188210  10.139  13.879   4.655
28771SOL    HW288211  10.110  14.019   4.606
28772SOL     OW88212   5.897  13.029   5.149
28772SOL    HW188213   5.912  13.066   5.062
28772SOL    HW288214   5.804  13.006   5.149
28773SOL     OW88215  13.288   8.108  10.662
28773SOL    HW188216  13.319   8.162  10.735
28773SOL    HW288217  13.367   8.078  10.618
28774SOL     OW88218   4.633   9.400   7.292
28774SOL    HW188219   4.658   9.365   7.377
28774SOL    HW288220   4.547   9.439   7.306
28775SOL     OW88221   8.605  11.277   9.313
28775SOL    HW188222   8.596  11.182   9.322
28775SOL    HW288223   8.523  11.305   9.272
28776SOL     OW88224   1.500   7.658  11.049
28776SOL    HW188225   1.460   7.723  11.107
28776SOL    HW288226   1.457   7.672  10.965
28777SOL     OW88227   8.464   1.654   8.869
28777SOL    HW188228   8.504   1.649   8.956
28777SOL    HW288229   8.533   1.629   8.808
28778SOL     OW88230   2.096   1.699   4.948
28778SOL    HW188231   2.115   1.793   4.951
28778SOL    HW288232   2.051   1.681   5.031
28779SOL     OW88233   4.870   0.510   6.788
28779SOL    HW188234   4.882   0.416   6.801
28779SOL    HW288235   4.799   0.517   6.725
28780SOL     OW88236   1.042   0.928   6.543
28780SOL    HW188237   0.962   0.947   6.593
28780SOL    HW288238   1.020   0.849   6.493
28781SOL     OW88239   9.726  11.315   2.124
28781SOL    HW188240   9.787  11.331   2.197
28781SOL    HW288241   9.748  11.227   2.095
28782SOL     OW88242  11.769   8.263   9.461
28782SOL    HW188243  11.690   8.243   9.412
28782SOL    HW288244  11.813   8.179   9.471
28783SOL     OW88245  14.240   6.942  11.191
28783SOL    HW188246  14.194   6.864  11.159
28783SOL    HW288247  14.219   6.946  11.285
28784SOL     OW88248   5.242   2.002   0.369
28784SOL    HW188249   5.286   2.041   0.444
28784SOL    HW288250   5.272   2.053   0.293
28785SOL     OW88251   0.539  13.496  14.692
28785SOL    HW188252   0.532  13.489  14.596
28785SOL    HW288253   0.545  13.591  14.708
28786SOL     OW88254   4.954   3.160   8.435
28786SOL    HW188255   5.018   3.089   8.432
28786SOL    HW288256   4.882   3.130   8.380
28787SOL     OW88257   4.490  10.184  12.851
28787SOL    HW188258   4.578  10.209  12.880
28787SOL    HW288259   4.435  10.195  12.928
28788SOL     OW88260  13.028  11.620   2.364
28788SOL    HW188261  13.047  11.687   2.430
28788SOL    HW288262  13.113  11.581   2.343
28789SOL     OW88263   9.704  10.769   9.117
28789SOL    HW188264   9.639  10.839   9.117
28789SOL    HW288265   9.698  10.731   9.204
28790SOL     OW88266  10.647  14.649   3.981
28790SOL    HW188267  10.730  14.619   3.944
28790SOL    HW288268  10.589  14.659   3.906
28791SOL     OW88269   9.903   5.129   3.118
28791SOL    HW188270   9.881   5.092   3.032
28791SOL    HW288271   9.854   5.075   3.180
28792SOL     OW88272   9.152   6.231  14.801
28792SOL    HW188273   9.148   6.232  14.706
28792SOL    HW288274   9.244   6.250  14.822
28793SOL     OW88275   9.505  11.662   5.433
28793SOL    HW188276   9.465  11.703   5.509
28793SOL    HW288277   9.492  11.724   5.361
28794SOL     OW88278   1.994   7.215   0.743
28794SOL    HW188279   1.924   7.163   0.783
28794SOL    HW288280   2.037   7.154   0.683
28795SOL     OW88281   2.456   8.748   1.363
28795SOL    HW188282   2.479   8.657   1.346
28795SOL    HW288283   2.507   8.773   1.440
28796SOL     OW88284  12.223   8.174  11.245
28796SOL    HW188285  12.251   8.218  11.325
28796SOL    HW288286  12.145   8.126  11.271
28797SOL     OW88287   5.260   7.658  12.346
28797SOL    HW188288   5.191   7.594  12.362
28797SOL    HW288289   5.284   7.645  12.254
28798SOL     OW88290  10.968  11.696   7.969
28798SOL    HW188291  10.956  11.787   7.943
28798SOL    HW288292  11.019  11.657   7.898
28799SOL     OW88293   2.212   9.879  10.571
28799SOL    HW188294   2.283   9.895  10.509
28799SOL    HW288295   2.144   9.942  10.547
28800SOL     OW88296   0.964  13.503   3.718
28800SOL    HW188297   0.897  13.571   3.728
28800SOL    HW288298   1.014  13.506   3.800
28801SOL     OW88299  12.662   4.139   5.810
28801SOL    HW188300  12.571   4.115   5.826
28801SOL    HW288301  12.711   4.095   5.880
28802SOL     OW88302   0.861  10.991   1.680
28802SOL    HW188303   0.798  11.024   1.615
28802SOL    HW288304   0.821  10.909   1.712
28803SOL     OW88305   2.551   6.975  13.972
28803SOL    HW188306   2.457   6.994  13.967
28803SOL    HW288307   2.578   6.962  13.881
28804SOL     OW88308   7.743   9.501   1.552
28804SOL    HW188309   7.819   9.448   1.530
28804SOL    HW288310   7.776   9.591   1.558
28805SOL     OW88311   7.679   6.656   3.007
28805SOL    HW188312   7.618   6.642   3.079
28805SOL    HW288313   7.765   6.632   3.044
28806SOL     OW88314   0.871   4.550   6.183
28806SOL    HW188315   0.931   4.621   6.160
28806SOL    HW288316   0.810   4.589   6.245
28807SOL     OW88317  14.108   3.165   7.647
28807SOL    HW188318  14.073   3.153   7.735
28807SOL    HW288319  14.143   3.079   7.623
28808SOL     OW88320   8.910   1.671   1.492
28808SOL    HW188321   8.920   1.596   1.435
28808SOL    HW288322   8.885   1.743   1.434
28809SOL     OW88323  14.576   0.365   8.445
28809SOL    HW188324  14.539   0.376   8.532
28809SOL    HW288325  14.511   0.314   8.397
28810SOL     OW88326  12.974   3.700   3.200
28810SOL    HW188327  13.048   3.656   3.241
28810SOL    HW288328  12.912   3.630   3.181
28811SOL     OW88329   2.361  14.573   5.320
28811SOL    HW188330   2.391  14.487   5.351
28811SOL    HW288331   2.266  14.568   5.326
28812SOL     OW88332   0.221   5.578   0.958
28812SOL    HW188333   0.226   5.554   0.865
28812SOL    HW288334   0.128   5.592   0.974
28813SOL     OW88335  12.182   1.805   3.125
28813SOL    HW188336  12.114   1.790   3.059
28813SOL    HW288337  12.258   1.757   3.092
28814SOL     OW88338   8.844  13.744   7.643
28814SOL    HW188339   8.899  13.678   7.600
28814SOL    HW288340   8.857  13.823   7.592
28815SOL     OW88341   0.729   5.502  11.272
28815SOL    HW188342   0.681   5.509  11.189
28815SOL    HW288343   0.820   5.520  11.249
28816SOL     OW88344   5.064   2.162   4.623
28816SOL    HW188345   5.043   2.234   4.683
28816SOL    HW288346   4.979   2.137   4.586
28817SOL     OW88347   6.035   1.653   3.950
28817SOL    HW188348   5.963   1.625   4.006
28817SOL    HW288349   6.095   1.701   4.008
28818SOL     OW88350   4.614   5.370   5.976
28818SOL    HW188351   4.525   5.358   5.943
28818SOL    HW288352   4.666   5.386   5.897
28819SOL     OW88353  11.111   0.835  14.698
28819SOL    HW188354  11.044   0.768  14.680
28819SOL    HW288355  11.076   0.915  14.658
28820SOL     OW88356   6.304   3.025  10.721
28820SOL    HW188357   6.256   3.024  10.638
28820SOL    HW288358   6.390   2.991  10.699
28821SOL     OW88359   4.800   8.760  14.865
28821SOL    HW188360   4.806   8.730   0.068
28821SOL    HW288361   4.797   8.856  14.871
28822SOL     OW88362  14.786   1.234   1.269
28822SOL    HW188363  14.790   1.279   1.353
28822SOL    HW288364  14.875   1.204   1.253
28823SOL     OW88365   9.034   7.366   2.878
28823SOL    HW188366   9.011   7.314   2.801
28823SOL    HW288367   9.046   7.455   2.844
28824SOL     OW88368  14.473  13.116   6.294
28824SOL    HW188369  14.479  13.023   6.316
28824SOL    HW288370  14.562  13.150   6.304
28825SOL     OW88371  11.739  12.423  13.950
28825SOL    HW188372  11.813  12.366  13.971
28825SOL    HW288373  11.708  12.454  14.034
28826SOL     OW88374   0.859   4.891   1.098
28826SOL    HW188375   0.801   4.885   1.023
28826SOL    HW288376   0.800   4.901   1.173
28827SOL     OW88377   4.339  13.445   1.143
28827SOL    HW188378   4.366  13.534   1.122
28827SOL    HW288379   4.273  13.456   1.212
28828SOL     OW88380   4.094   5.480  13.919
28828SOL    HW188381   4.014   5.428  13.913
28828SOL    HW288382   4.144   5.455  13.841
28829SOL     OW88383   3.143  12.507   2.884
28829SOL    HW188384   3.129  12.600   2.867
28829SOL    HW288385   3.213  12.505   2.949
28830SOL     OW88386  12.209   9.643  11.782
28830SOL    HW188387  12.116   9.629  11.764
28830SOL    HW288388  12.233   9.717  11.726
28831SOL     OW88389  14.836  13.216   7.039
28831SOL    HW188390  14.749  13.255   7.050
28831SOL    HW288391  14.869  13.255   6.958
28832SOL     OW88392   5.442  10.223  12.538
28832SOL    HW188393   5.348  10.235  12.531
28832SOL    HW288394   5.476  10.310  12.555
28833SOL     OW88395   8.179   0.520  13.028
28833SOL    HW188396   8.195   0.435  13.069
28833SOL    HW288397   8.240   0.523  12.954
28834SOL     OW88398  12.469   8.822   7.880
28834SOL    HW188399  12.421   8.801   7.960
28834SOL    HW288400  12.545   8.764   7.882
28835SOL     OW88401   4.445   7.148   4.192
28835SOL    HW188402   4.539   7.131   4.185
28835SOL    HW288403   4.406   7.063   4.211
28836SOL     OW88404   5.357   6.041   8.156
28836SOL    HW188405   5.431   6.069   8.211
28836SOL    HW288406   5.367   5.946   8.151
28837SOL     OW88407   1.758   5.489   7.115
28837SOL    HW188408   1.684   5.536   7.076
28837SOL    HW288409   1.767   5.527   7.202
28838SOL     OW88410   9.727  11.962   5.060
28838SOL    HW188411   9.676  12.007   4.993
28838SOL    HW288412   9.732  12.025   5.132
28839SOL     OW88413   6.286   9.136   0.407
28839SOL    HW188414   6.225   9.146   0.334
28839SOL    HW288415   6.230   9.134   0.485
28840SOL     OW88416   8.194  11.335   6.941
28840SOL    HW188417   8.223  11.245   6.927
28840SOL    HW288418   8.214  11.380   6.859
28841SOL     OW88419  10.102   6.134   6.404
28841SOL    HW188420  10.064   6.110   6.319
28841SOL    HW288421  10.030   6.177   6.451
28842SOL     OW88422   5.406   4.211  11.140
28842SOL    HW188423   5.500   4.217  11.156
28842SOL    HW288424   5.380   4.129  11.181
28843SOL     OW88425   6.476   4.963   9.908
28843SOL    HW188426   6.406   5.025   9.885
28843SOL    HW288427   6.534   4.963   9.832
28844SOL     OW88428   4.312   0.363  10.748
28844SOL    HW188429   4.403   0.342  10.771
28844SOL    HW288430   4.259   0.305  10.803
28845SOL     OW88431  14.038  10.629   5.254
28845SOL    HW188432  14.107  10.563   5.245
28845SOL    HW288433  13.990  10.627   5.171
28846SOL     OW88434   6.451   4.836   9.599
28846SOL    HW188435   6.432   4.927   9.623
28846SOL    HW288436   6.369   4.804   9.561
28847SOL     OW88437  11.700   8.055   2.397
28847SOL    HW188438  11.607   8.048   2.379
28847SOL    HW288439  11.725   7.969   2.432
28848SOL     OW88440  14.202   7.873   8.395
28848SOL    HW188441  14.265   7.874   8.323
28848SOL    HW288442  14.255   7.858   8.473
28849SOL     OW88443   7.484  12.425   5.131
28849SOL    HW188444   7.492  12.430   5.227
28849SOL    HW288445   7.445  12.510   5.107
28850SOL     OW88446   6.180   6.329   1.457
28850SOL    HW188447   6.132   6.273   1.396
28850SOL    HW288448   6.187   6.276   1.537
28851SOL     OW88449   8.765   7.525  13.869
28851SOL    HW188450   8.820   7.603  13.874
28851SOL    HW288451   8.697   7.538  13.935
28852SOL     OW88452   4.850   7.168  13.098
28852SOL    HW188453   4.938   7.191  13.127
28852SOL    HW288454   4.806   7.135  13.176
28853SOL     OW88455   3.813   5.030   4.416
28853SOL    HW188456   3.836   4.990   4.500
28853SOL    HW288457   3.750   4.971   4.377
28854SOL     OW88458   5.189  13.114   3.979
28854SOL    HW188459   5.209  13.054   4.051
28854SOL    HW288460   5.210  13.065   3.900
28855SOL     OW88461  14.614   6.537   8.252
28855SOL    HW188462  14.534   6.485   8.241
28855SOL    HW288463  14.661   6.492   8.322
28856SOL     OW88464   0.155  10.124   8.041
28856SOL    HW188465   0.212  10.072   8.097
28856SOL    HW288466   0.097  10.170   8.101
28857SOL     OW88467  12.540   8.070   7.710
28857SOL    HW188468  12.552   8.139   7.775
28857SOL    HW288469  12.514   8.117   7.630
28858SOL     OW88470   3.486   9.785  12.499
28858SOL    HW188471   3.395   9.811  12.487
28858SOL    HW288472   3.527   9.802  12.414
28859SOL     OW88473   6.218  11.003   4.054
28859SOL    HW188474   6.231  11.096   4.039
28859SOL    HW288475   6.231  10.962   3.969
28860SOL     OW88476   4.282  12.134  13.576
28860SOL    HW188477   4.370  12.114  13.544
28860SOL    HW288478   4.223  12.095  13.512
28861SOL     OW88479   1.118   1.137  14.418
28861SOL    HW188480   1.186   1.076  14.389
28861SOL    HW288481   1.039   1.108  14.372
28862SOL     OW88482   3.996   1.401  10.726
28862SOL    HW188483   4.066   1.337  10.712
28862SOL    HW288484   3.939   1.360  10.791
28863SOL     OW88485   8.294  11.373   7.607
28863SOL    HW188486   8.356  11.361   7.535
28863SOL    HW288487   8.295  11.467   7.624
28864SOL     OW88488   0.543   8.794   3.338
28864SOL    HW188489   0.477   8.830   3.279
28864SOL    HW288490   0.625   8.836   3.311
28865SOL     OW88491  10.327   0.374   9.081
28865SOL    HW188492  10.323   0.297   9.024
28865SOL    HW288493  10.342   0.338   9.169
28866SOL     OW88494  12.332   3.911   7.860
28866SOL    HW188495  12.327   3.994   7.909
28866SOL    HW288496  12.336   3.937   7.768
28867SOL     OW88497   4.205  14.547  12.378
28867SOL    HW188498   4.203  14.638  12.405
28867SOL    HW288499   4.239  14.500  12.454
28868SOL     OW88500  12.024   9.264   8.456
28868SOL    HW188501  12.094   9.248   8.519
28868SOL    HW288502  11.945   9.269   8.509
28869SOL     OW88503   5.686  12.847  13.913
28869SOL    HW188504   5.754  12.862  13.847
28869SOL    HW288505   5.669  12.933  13.950
28870SOL     OW88506  14.593   6.332   9.874
28870SOL    HW188507  14.576   6.238   9.875
28870SOL    HW288508  14.514   6.370   9.836
28871SOL     OW88509   3.566   5.684   5.956
28871SOL    HW188510   3.657   5.700   5.981
28871SOL    HW288511   3.569   5.605   5.902
28872SOL     OW88512   9.991  14.610   6.822
28872SOL    HW188513   9.935  14.684   6.847
28872SOL    HW288514   9.983  14.606   6.726
28873SOL     OW88515  11.392   9.263   9.562
28873SOL    HW188516  11.427   9.321   9.494
28873SOL    HW288517  11.369   9.183   9.515
28874SOL     OW88518   7.360   6.136  11.631
28874SOL    HW188519   7.394   6.175  11.551
28874SOL    HW288520   7.362   6.042  11.615
28875SOL     OW88521  14.746  11.787   0.651
28875SOL    HW188522  14.659  11.806   0.686
28875SOL    HW288523  14.788  11.873   0.642
28876SOL     OW88524   0.510   6.654   3.594
28876SOL    HW188525   0.598   6.690   3.587
28876SOL    HW288526   0.455   6.716   3.546
28877SOL     OW88527  14.069  13.791  13.342
28877SOL    HW188528  14.083  13.754  13.255
28877SOL    HW288529  14.155  13.786  13.384
28878SOL     OW88530   0.527  12.474  10.105
28878SOL    HW188531   0.592  12.502  10.169
28878SOL    HW288532   0.551  12.383  10.084
28879SOL     OW88533   0.134   6.803   3.145
28879SOL    HW188534   0.197   6.871   3.120
28879SOL    HW288535   0.167   6.724   3.103
28880SOL     OW88536  14.753   1.402   6.976
28880SOL    HW188537  14.787   1.331   6.922
28880SOL    HW288538  14.784   1.482   6.933
28881SOL     OW88539  11.894  11.352  10.241
28881SOL    HW188540  11.842  11.298  10.182
28881SOL    HW288541  11.961  11.391  10.184
28882SOL     OW88542   4.977   9.922   5.329
28882SOL    HW188543   5.064   9.882   5.326
28882SOL    HW288544   4.993  10.016   5.317
28883SOL     OW88545   4.100   4.228  13.791
28883SOL    HW188546   4.192   4.216  13.772
28883SOL    HW288547   4.095   4.228  13.887
28884SOL     OW88548   7.546  10.305   9.852
28884SOL    HW188549   7.613  10.349   9.799
28884SOL    HW288550   7.593  10.275   9.929
28885SOL     OW88551   8.058  10.505   3.201
28885SOL    HW188552   8.017  10.591   3.209
28885SOL    HW288553   8.012  10.463   3.128
28886SOL     OW88554   2.295   6.394   3.709
28886SOL    HW188555   2.211   6.431   3.735
28886SOL    HW288556   2.339   6.374   3.792
28887SOL     OW88557   9.979   1.859  10.182
28887SOL    HW188558  10.024   1.880  10.264
28887SOL    HW288559   9.908   1.923  10.177
28888SOL     OW88560   2.957  14.471  13.869
28888SOL    HW188561   2.889  14.416  13.907
28888SOL    HW288562   2.908  14.536  13.818
28889SOL     OW88563  10.624   0.898   6.214
28889SOL    HW188564  10.682   0.888   6.138
28889SOL    HW288565  10.539   0.920   6.176
28890SOL     OW88566   4.236   2.275   6.721
28890SOL    HW188567   4.324   2.284   6.686
28890SOL    HW288568   4.226   2.181   6.739
28891SOL     OW88569   5.672   6.913   6.150
28891SOL    HW188570   5.586   6.956   6.149
28891SOL    HW288571   5.665   6.849   6.221
28892SOL     OW88572  13.033   7.907   6.381
28892SOL    HW188573  13.014   7.986   6.330
28892SOL    HW288574  12.957   7.851   6.367
28893SOL     OW88575   6.140   6.824  10.228
28893SOL    HW188576   6.159   6.752  10.168
28893SOL    HW288577   6.221   6.875  10.230
28894SOL     OW88578  13.270   4.884  12.662
28894SOL    HW188579  13.197   4.850  12.713
28894SOL    HW288580  13.229   4.948  12.602
28895SOL     OW88581   1.645   4.701   0.672
28895SOL    HW188582   1.636   4.788   0.712
28895SOL    HW288583   1.697   4.716   0.593
28896SOL     OW88584   4.730  14.742  14.711
28896SOL    HW188585   4.669  14.752  14.638
28896SOL    HW288586   4.812  14.714  14.671
28897SOL     OW88587   5.000  10.581   5.054
28897SOL    HW188588   5.003  10.637   5.132
28897SOL    HW288589   4.957  10.500   5.084
28898SOL     OW88590   8.512   7.270   1.663
28898SOL    HW188591   8.556   7.354   1.676
28898SOL    HW288592   8.419   7.289   1.672
28899SOL     OW88593   5.771  11.903   0.114
28899SOL    HW188594   5.765  11.969   0.183
28899SOL    HW288595   5.743  11.950   0.035
28900SOL     OW88596  10.480   3.776   3.949
28900SOL    HW188597  10.414   3.764   4.017
28900SOL    HW288598  10.469   3.701   3.891
28901SOL     OW88599  10.079   1.194  14.808
28901SOL    HW188600   9.989   1.203  14.838
28901SOL    HW288601  10.117   1.281  14.817
28902SOL     OW88602   9.714   7.613   8.010
28902SOL    HW188603   9.804   7.587   8.029
28902SOL    HW288604   9.684   7.551   7.944
28903SOL     OW88605   5.117   1.124   4.930
28903SOL    HW188606   5.148   1.159   5.013
28903SOL    HW288607   5.187   1.145   4.868
28904SOL     OW88608  12.843  10.889   9.784
28904SOL    HW188609  12.903  10.961   9.763
28904SOL    HW288610  12.900  10.812   9.790
28905SOL     OW88611  12.128   0.625  13.701
28905SOL    HW188612  12.141   0.603  13.609
28905SOL    HW288613  12.213   0.613  13.742
28906SOL     OW88614   0.892  12.852   6.286
28906SOL    HW188615   0.837  12.798   6.343
28906SOL    HW288616   0.977  12.808   6.286
28907SOL     OW88617   9.713   8.677   1.239
28907SOL    HW188618   9.718   8.611   1.308
28907SOL    HW288619   9.751   8.633   1.162
28908SOL     OW88620   1.449   8.441  10.199
28908SOL    HW188621   1.508   8.459  10.125
28908SOL    HW288622   1.363   8.432  10.160
28909SOL     OW88623   4.424   3.614  11.973
28909SOL    HW188624   4.442   3.701  11.937
28909SOL    HW288625   4.345   3.585  11.929
28910SOL     OW88626   6.376   7.028  13.779
28910SOL    HW188627   6.381   6.956  13.716
28910SOL    HW288628   6.373   7.107  13.725
28911SOL     OW88629  14.802   6.262  10.723
28911SOL    HW188630  14.805   6.181  10.774
28911SOL    HW288631  14.722   6.306  10.752
28912SOL     OW88632  13.629   7.270   8.049
28912SOL    HW188633  13.620   7.176   8.034
28912SOL    HW288634  13.694   7.298   7.984
28913SOL     OW88635   1.458   0.762  12.320
28913SOL    HW188636   1.444   0.759  12.225
28913SOL    HW288637   1.397   0.830  12.351
28914SOL     OW88638   7.338   7.172  12.093
28914SOL    HW188639   7.380   7.086  12.098
28914SOL    HW288640   7.303   7.176  12.005
28915SOL     OW88641  13.378  13.457   2.107
28915SOL    HW188642  13.308  13.453   2.041
28915SOL    HW288643  13.424  13.373   2.098
28916SOL     OW88644   7.504  12.435   7.350
28916SOL    HW188645   7.484  12.343   7.333
28916SOL    HW288646   7.419  12.479   7.351
28917SOL     OW88647   2.946   4.486   3.421
28917SOL    HW188648   3.003   4.500   3.345
28917SOL    HW288649   2.873   4.547   3.408
28918SOL     OW88650   8.364  13.021  13.272
28918SOL    HW188651   8.452  13.047  13.244
28918SOL    HW288652   8.308  13.048  13.199
28919SOL     OW88653   3.796   6.659   7.949
28919SOL    HW188654   3.757   6.736   7.990
28919SOL    HW288655   3.758   6.585   7.997
28920SOL     OW88656   1.743   6.816   6.285
28920SOL    HW188657   1.743   6.900   6.240
28920SOL    HW288658   1.829   6.810   6.326
28921SOL     OW88659  13.516  12.931   8.560
28921SOL    HW188660  13.495  13.018   8.527
28921SOL    HW288661  13.439  12.905   8.610
28922SOL     OW88662   3.872  10.484   2.566
28922SOL    HW188663   3.927  10.419   2.522
28922SOL    HW288664   3.920  10.566   2.556
28923SOL     OW88665   5.447   2.526   1.587
28923SOL    HW188666   5.541   2.516   1.576
28923SOL    HW288667   5.413   2.534   1.497
28924SOL     OW88668   6.317   0.087  14.212
28924SOL    HW188669   6.224   0.103  14.202
28924SOL    HW288670   6.341   0.032  14.137
28925SOL     OW88671  13.176   8.941   0.210
28925SOL    HW188672  13.154   8.853   0.181
28925SOL    HW288673  13.174   8.994   0.130
28926SOL     OW88674  11.332   2.934  11.234
28926SOL    HW188675  11.407   2.993  11.240
28926SOL    HW288676  11.297   2.932  11.323
28927SOL     OW88677  13.965   3.084   3.955
28927SOL    HW188678  13.999   2.999   3.983
28927SOL    HW288679  14.037   3.124   3.907
28928SOL     OW88680   0.221   5.437   2.029
28928SOL    HW188681   0.137   5.424   1.985
28928SOL    HW288682   0.280   5.375   1.987
28929SOL     OW88683   8.049   4.704   3.680
28929SOL    HW188684   8.117   4.637   3.673
28929SOL    HW288685   8.078   4.760   3.752
28930SOL     OW88686   3.777   8.679   3.516
28930SOL    HW188687   3.824   8.731   3.451
28930SOL    HW288688   3.795   8.722   3.599
28931SOL     OW88689  11.426   3.734   2.637
28931SOL    HW188690  11.498   3.712   2.696
28931SOL    HW288691  11.364   3.663   2.649
28932SOL     OW88692  12.947   2.159   3.339
28932SOL    HW188693  12.860   2.152   3.379
28932SOL    HW288694  13.007   2.144   3.412
28933SOL     OW88695   9.418   1.632   8.868
28933SOL    HW188696   9.416   1.620   8.773
28933SOL    HW288697   9.478   1.706   8.881
28934SOL     OW88698   4.441   7.403  10.696
28934SOL    HW188699   4.454   7.431  10.786
28934SOL    HW288700   4.530   7.391  10.662
28935SOL     OW88701  13.442  14.705   6.291
28935SOL    HW188702  13.460  14.653   6.212
28935SOL    HW288703  13.513  14.681   6.351
28936SOL     OW88704   0.946  14.804   9.588
28936SOL    HW188705   0.866  14.795   9.641
28936SOL    HW288706   0.934  14.884   9.538
28937SOL     OW88707   5.759  14.172   7.201
28937SOL    HW188708   5.808  14.186   7.282
28937SOL    HW288709   5.705  14.095   7.218
28938SOL     OW88710   1.637   5.248   4.600
28938SOL    HW188711   1.576   5.201   4.543
28938SOL    HW288712   1.637   5.198   4.681
28939SOL     OW88713  10.748   2.342  11.270
28939SOL    HW188714  10.828   2.338  11.217
28939SOL    HW288715  10.727   2.436  11.275
28940SOL     OW88716  13.776   1.114   2.292
28940SOL    HW188717  13.696   1.080   2.331
28940SOL    HW288718  13.771   1.209   2.307
28941SOL     OW88719   7.819  12.902  14.322
28941SOL    HW188720   7.798  12.970  14.386
28941SOL    HW288721   7.743  12.844  14.323
28942SOL     OW88722  12.814   4.191   6.673
28942SOL    HW188723  12.799   4.193   6.578
28942SOL    HW288724  12.854   4.106   6.688
28943SOL     OW88725   9.116  11.186   7.602
28943SOL    HW188726   9.049  11.244   7.567
28943SOL    HW288727   9.116  11.111   7.543
28944SOL     OW88728   6.351  10.763   4.710
28944SOL    HW188729   6.445  10.779   4.709
28944SOL    HW288730   6.316  10.831   4.767
28945SOL     OW88731   4.496   8.894   6.469
28945SOL    HW188732   4.425   8.956   6.481
28945SOL    HW288733   4.558   8.914   6.538
28946SOL     OW88734   2.334  10.700   6.007
28946SOL    HW188735   2.417  10.702   6.056
28946SOL    HW288736   2.302  10.790   6.011
28947SOL     OW88737   6.540   1.189   6.043
28947SOL    HW188738   6.458   1.176   6.091
28947SOL    HW288739   6.583   1.103   6.046
28948SOL     OW88740   2.012   0.202   0.267
28948SOL    HW188741   2.013   0.159   0.181
28948SOL    HW288742   2.049   0.289   0.251
28949SOL     OW88743   8.048  12.570  10.842
28949SOL    HW188744   7.958  12.538  10.854
28949SOL    HW288745   8.037  12.650  10.790
28950SOL     OW88746  12.369   0.472  10.669
28950SOL    HW188747  12.337   0.425  10.746
28950SOL    HW288748  12.380   0.405  10.602
28951SOL     OW88749   1.543   4.825   5.859
28951SOL    HW188750   1.487   4.761   5.904
28951SOL    HW288751   1.521   4.815   5.766
28952SOL     OW88752  10.710  12.903   3.861
28952SOL    HW188753  10.655  12.827   3.841
28952SOL    HW288754  10.667  12.976   3.816
28953SOL     OW88755  11.200  11.258   6.583
28953SOL    HW188756  11.143  11.267   6.659
28953SOL    HW288757  11.270  11.200   6.612
28954SOL     OW88758  14.208   6.903   1.169
28954SOL    HW188759  14.235   6.864   1.252
28954SOL    HW288760  14.289   6.912   1.119
28955SOL     OW88761  14.850   3.701  10.500
28955SOL    HW188762   0.046   3.708  10.455
28955SOL    HW288763  14.851   3.773  10.564
28956SOL     OW88764  13.077  14.223  14.873
28956SOL    HW188765  13.135  14.285   0.028
28956SOL    HW288766  13.063  14.259  14.785
28957SOL     OW88767   2.179   2.851   1.574
28957SOL    HW188768   2.251   2.800   1.537
28957SOL    HW288769   2.100   2.802   1.551
28958SOL     OW88770   1.516   2.552  12.542
28958SOL    HW188771   1.514   2.640  12.580
28958SOL    HW288772   1.520   2.567  12.448
28959SOL     OW88773   7.759  12.191   6.691
28959SOL    HW188774   7.665  12.173   6.685
28959SOL    HW288775   7.770  12.228   6.778
28960SOL     OW88776  12.126  12.673   4.441
28960SOL    HW188777  12.215  12.683   4.408
28960SOL    HW288778  12.078  12.746   4.403
28961SOL     OW88779   6.816   6.627  14.360
28961SOL    HW188780   6.793   6.599  14.271
28961SOL    HW288781   6.911   6.613  14.364
28962SOL     OW88782   6.001  13.010  13.997
28962SOL    HW188783   5.973  13.000  13.906
28962SOL    HW288784   5.982  12.926  14.037
28963SOL     OW88785   7.776  10.839  10.304
28963SOL    HW188786   7.688  10.805  10.289
28963SOL    HW288787   7.801  10.879  10.221
28964SOL     OW88788   4.834  11.562   8.023
28964SOL    HW188789   4.753  11.600   7.990
28964SOL    HW288790   4.825  11.468   8.004
28965SOL     OW88791   5.960   0.425   2.827
28965SOL    HW188792   5.959   0.407   2.921
28965SOL    HW288793   5.889   0.487   2.813
28966SOL     OW88794   9.645   8.240  10.404
28966SOL    HW188795   9.695   8.271  10.328
28966SOL    HW288796   9.577   8.185  10.366
28967SOL     OW88797   1.260   8.918  12.246
28967SOL    HW188798   1.183   8.894  12.195
28967SOL    HW288799   1.243   9.009  12.273
28968SOL     OW88800   1.413   4.680   1.152
28968SOL    HW188801   1.492   4.716   1.195
28968SOL    HW288802   1.345   4.744   1.171
28969SOL     OW88803  13.241  11.955   6.061
28969SOL    HW188804  13.300  11.931   5.989
28969SOL    HW288805  13.178  11.883   6.065
28970SOL     OW88806   8.632  11.550   8.761
28970SOL    HW188807   8.562  11.599   8.717
28970SOL    HW288808   8.612  11.458   8.741
28971SOL     OW88809   1.006   4.191   7.437
28971SOL    HW188810   1.096   4.223   7.441
28971SOL    HW288811   0.991   4.151   7.523
28972SOL     OW88812  13.761   6.706   1.352
28972SOL    HW188813  13.693   6.675   1.292
28972SOL    HW288814  13.716   6.766   1.410
28973SOL     OW88815   7.643  12.856   5.123
28973SOL    HW188816   7.716  12.845   5.184
28973SOL    HW288817   7.685  12.881   5.040
28974SOL     OW88818  10.371   2.834  10.585
28974SOL    HW188819  10.391   2.875  10.669
28974SOL    HW288820  10.296   2.884  10.552
28975SOL     OW88821  12.921   8.391   2.425
28975SOL    HW188822  12.886   8.476   2.397
28975SOL    HW288823  12.856   8.327   2.394
28976SOL     OW88824   1.615   7.167  11.486
28976SOL    HW188825   1.691   7.126  11.527
28976SOL    HW288826   1.642   7.183  11.396
28977SOL     OW88827   9.638  14.271  13.433
28977SOL    HW188828   9.565  14.329  13.457
28977SOL    HW288829   9.702  14.329  13.390
28978SOL     OW88830   5.551   8.643   2.518
28978SOL    HW188831   5.601   8.705   2.464
28978SOL    HW288832   5.587   8.557   2.496
28979SOL     OW88833   4.271   3.891  14.879
28979SOL    HW188834   4.257   3.909   0.084
28979SOL    HW288835   4.329   3.815  14.877
28980SOL     OW88836   2.908  13.765   8.565
28980SOL    HW188837   2.831  13.713   8.590
28980SOL    HW288838   2.876  13.855   8.561
28981SOL     OW88839  10.199  12.353  11.305
28981SOL    HW188840  10.254  12.423  11.340
28981SOL    HW288841  10.173  12.385  11.218
28982SOL     OW88842   7.041  10.630   8.696
28982SOL    HW188843   7.026  10.561   8.631
28982SOL    HW288844   6.984  10.607   8.769
28983SOL     OW88845   4.434   2.509  13.531
28983SOL    HW188846   4.412   2.477  13.618
28983SOL    HW288847   4.526   2.536  13.538
28984SOL     OW88848  10.764  11.695   9.813
28984SOL    HW188849  10.726  11.637   9.879
28984SOL    HW288850  10.767  11.781   9.856
28985SOL     OW88851   7.187  13.477   7.033
28985SOL    HW188852   7.170  13.569   7.014
28985SOL    HW288853   7.104  13.433   7.016
28986SOL     OW88854   9.358   3.164   2.411
28986SOL    HW188855   9.415   3.088   2.409
28986SOL    HW288856   9.411   3.236   2.376
28987SOL     OW88857   0.280   3.005  10.313
28987SOL    HW188858   0.251   3.095  10.305
28987SOL    HW288859   0.360   3.000  10.262
28988SOL     OW88860  11.950   4.616  10.488
28988SOL    HW188861  12.037   4.609  10.527
28988SOL    HW288862  11.954   4.696  10.436
28989SOL     OW88863  12.576   5.850   1.010
28989SOL    HW188864  12.555   5.881   0.922
28989SOL    HW288865  12.538   5.917   1.068
28990SOL     OW88866   9.228  14.656   4.442
28990SOL    HW188867   9.169  14.604   4.388
28990SOL    HW288868   9.204  14.747   4.423
28991SOL     OW88869  10.417   5.907   8.098
28991SOL    HW188870  10.362   5.931   8.173
28991SOL    HW288871  10.444   5.990   8.060
28992SOL     OW88872  11.617   1.380  14.522
28992SOL    HW188873  11.680   1.363  14.451
28992SOL    HW288874  11.617   1.475  14.531
28993SOL     OW88875   4.685   8.132   8.680
28993SOL    HW188876   4.743   8.096   8.613
28993SOL    HW288877   4.598   8.099   8.658
28994SOL     OW88878   6.291  13.127   2.752
28994SOL    HW188879   6.243  13.050   2.784
28994SOL    HW288880   6.376  13.122   2.795
28995SOL     OW88881  14.243   1.953   2.902
28995SOL    HW188882  14.280   1.928   2.987
28995SOL    HW288883  14.313   2.003   2.860
28996SOL     OW88884   7.022  13.170  12.529
28996SOL    HW188885   6.976  13.140  12.451
28996SOL    HW288886   7.113  13.144  12.514
28997SOL     OW88887   8.503  14.444  13.402
28997SOL    HW188888   8.576  14.462  13.343
28997SOL    HW288889   8.463  14.364  13.367
28998SOL     OW88890   6.160   6.476   3.777
28998SOL    HW188891   6.255   6.472   3.767
28998SOL    HW288892   6.147   6.515   3.864
28999SOL     OW88893   1.500   1.155   3.752
28999SOL    HW188894   1.410   1.120   3.751
28999SOL    HW288895   1.540   1.119   3.672
29000SOL     OW88896   5.053   9.221  10.568
29000SOL    HW188897   5.020   9.247  10.482
29000SOL    HW288898   5.085   9.132  10.555
29001SOL     OW88899   3.668   6.781   4.288
29001SOL    HW188900   3.692   6.766   4.197
29001SOL    HW288901   3.712   6.863   4.311
29002SOL     OW88902   7.196   7.629   6.394
29002SOL    HW188903   7.106   7.655   6.370
29002SOL    HW288904   7.251   7.697   6.355
29003SOL     OW88905   0.637  12.961   2.655
29003SOL    HW188906   0.569  12.913   2.702
29003SOL    HW288907   0.633  12.928   2.565
29004SOL     OW88908   5.901   2.290   4.275
29004SOL    HW188909   5.939   2.378   4.273
29004SOL    HW288910   5.815   2.302   4.315
29005SOL     OW88911   3.139  12.263   8.624
29005SOL    HW188912   3.053  12.303   8.628
29005SOL    HW288913   3.138  12.211   8.543
29006SOL     OW88914  13.433  11.618   8.539
29006SOL    HW188915  13.483  11.660   8.610
29006SOL    HW288916  13.500  11.592   8.475
29007SOL     OW88917   3.802  10.959   9.463
29007SOL    HW188918   3.774  10.964   9.554
29007SOL    HW288919   3.819  10.866   9.448
29008SOL     OW88920  11.991  12.290   5.681
29008SOL    HW188921  12.025  12.379   5.667
29008SOL    HW288922  11.897  12.302   5.691
29009SOL     OW88923   5.118   9.267   3.045
29009SOL    HW188924   5.184   9.320   3.089
29009SOL    HW288925   5.168   9.200   2.999
29010SOL     OW88926   5.885   7.435  14.170
29010SOL    HW188927   5.930   7.446  14.254
29010SOL    HW288928   5.905   7.345  14.144
29011SOL     OW88929   6.076   5.733   3.616
29011SOL    HW188930   6.163   5.719   3.577
29011SOL    HW288931   6.020   5.750   3.541
29012SOL     OW88932  13.098   1.165  11.958
29012SOL    HW188933  13.043   1.218  12.016
29012SOL    HW288934  13.094   1.210  11.874
29013SOL     OW88935  12.043  10.621   9.428
29013SOL    HW188936  11.956  10.653   9.454
29013SOL    HW288937  12.082  10.695   9.382
29014SOL     OW88938  12.547   6.048  14.335
29014SOL    HW188939  12.638   6.023  14.346
29014SOL    HW288940  12.533   6.048  14.240
29015SOL     OW88941   4.427   7.071  11.825
29015SOL    HW188942   4.442   7.016  11.748
29015SOL    HW288943   4.511   7.117  11.838
29016SOL     OW88944   5.673  13.402   7.153
29016SOL    HW188945   5.670  13.457   7.074
29016SOL    HW288946   5.758  13.358   7.147
29017SOL     OW88947   2.114   5.622   0.782
29017SOL    HW188948   2.029   5.594   0.748
29017SOL    HW288949   2.147   5.545   0.829
29018SOL     OW88950   2.837   9.468   9.664
29018SOL    HW188951   2.877   9.550   9.634
29018SOL    HW288952   2.781   9.493   9.737
29019SOL     OW88953  12.975  14.164  11.173
29019SOL    HW188954  13.054  14.182  11.124
29019SOL    HW288955  12.969  14.068  11.174
29020SOL     OW88956   6.660   7.609  14.755
29020SOL    HW188957   6.730   7.669  14.782
29020SOL    HW288958   6.658   7.617  14.659
29021SOL     OW88959   2.226   6.391   0.807
29021SOL    HW188960   2.141   6.379   0.765
29021SOL    HW288961   2.236   6.313   0.863
29022SOL     OW88962  11.189  14.072  13.145
29022SOL    HW188963  11.150  14.136  13.085
29022SOL    HW288964  11.281  14.068  13.118
29023SOL     OW88965   5.896   7.004  10.253
29023SOL    HW188966   5.848   6.959  10.184
29023SOL    HW288967   5.985   7.012  10.219
29024SOL     OW88968   7.368   5.927   8.853
29024SOL    HW188969   7.354   5.834   8.834
29024SOL    HW288970   7.347   5.971   8.771
29025SOL     OW88971   9.078   1.033   3.601
29025SOL    HW188972   9.133   0.976   3.656
29025SOL    HW288973   9.029   1.087   3.664
29026SOL     OW88974   1.960   6.503   7.792
29026SOL    HW188975   2.047   6.464   7.792
29026SOL    HW288976   1.902   6.433   7.763
29027SOL     OW88977   1.507   5.791   0.099
29027SOL    HW188978   1.427   5.752   0.134
29027SOL    HW288979   1.482   5.881   0.076
29028SOL     OW88980   9.588   9.002   2.293
29028SOL    HW188981   9.639   8.924   2.318
29028SOL    HW288982   9.580   8.995   2.198
29029SOL     OW88983  10.673   4.634   4.774
29029SOL    HW188984  10.624   4.689   4.713
29029SOL    HW288985  10.607   4.603   4.836
29030SOL     OW88986  12.790   5.747   7.629
29030SOL    HW188987  12.833   5.661   7.634
29030SOL    HW288988  12.699   5.727   7.609
29031SOL     OW88989   7.871  13.535  12.615
29031SOL    HW188990   7.842  13.568  12.530
29031SOL    HW288991   7.793  13.494  12.653
29032SOL     OW88992   5.451   6.461   7.511
29032SOL    HW188993   5.533   6.472   7.558
29032SOL    HW288994   5.390   6.519   7.556
29033SOL     OW88995   3.596  11.867   0.073
29033SOL    HW188996   3.543  11.933   0.027
29033SOL    HW288997   3.661  11.839   0.008
29034SOL     OW88998   0.700   8.293   1.041
29034SOL    HW188999   0.783   8.319   1.001
29034SOL    HW289000   0.707   8.323   1.132
29035SOL     OW89001  11.172   8.923   9.697
29035SOL    HW189002  11.083   8.898   9.724
29035SOL    HW289003  11.224   8.844   9.708
29036SOL     OW89004  10.521   0.452   2.051
29036SOL    HW189005  10.470   0.371   2.058
29036SOL    HW289006  10.465   0.518   2.092
29037SOL     OW89007   5.441   7.676  11.118
29037SOL    HW189008   5.519   7.627  11.091
29037SOL    HW289009   5.397   7.619  11.181
29038SOL     OW89010   2.619   0.298   2.932
29038SOL    HW189011   2.707   0.275   2.904
29038SOL    HW289012   2.630   0.323   3.024
29039SOL     OW89013   4.353  13.151   3.316
29039SOL    HW189014   4.415  13.082   3.292
29039SOL    HW289015   4.285  13.107   3.366
29040SOL     OW89016   5.907   3.343   2.594
29040SOL    HW189017   5.963   3.379   2.525
29040SOL    HW289018   5.927   3.396   2.671
29041SOL     OW89019   6.061  12.917  13.274
29041SOL    HW189020   5.984  12.880  13.231
29041SOL    HW289021   6.119  12.842  13.289
29042SOL     OW89022  14.772  10.840  10.403
29042SOL    HW189023  14.697  10.840  10.343
29042SOL    HW289024  14.757  10.764  10.459
29043SOL     OW89025   3.427  14.229   3.715
29043SOL    HW189026   3.441  14.323   3.714
29043SOL    HW289027   3.414  14.205   3.623
29044SOL     OW89028   4.359  10.689  12.793
29044SOL    HW189029   4.446  10.652  12.804
29044SOL    HW289030   4.309  10.658  12.869
29045SOL     OW89031   2.137   0.301   3.736
29045SOL    HW189032   2.102   0.389   3.718
29045SOL    HW289033   2.060   0.249   3.759
29046SOL     OW89034   1.970   9.429   4.665
29046SOL    HW189035   2.034   9.448   4.596
29046SOL    HW289036   1.922   9.353   4.631
29047SOL     OW89037  13.346   7.718   7.477
29047SOL    HW189038  13.307   7.784   7.419
29047SOL    HW289039  13.368   7.646   7.419
29048SOL     OW89040   7.380   3.082  14.597
29048SOL    HW189041   7.407   2.999  14.557
29048SOL    HW289042   7.457   3.110  14.646
29049SOL     OW89043   3.450   1.496   0.188
29049SOL    HW189044   3.515   1.473   0.254
29049SOL    HW289045   3.382   1.543   0.237
29050SOL     OW89046  13.637  11.379   5.668
29050SOL    HW189047  13.663  11.300   5.621
29050SOL    HW289048  13.614  11.348   5.756
29051SOL     OW89049   3.564   7.122   7.910
29051SOL    HW189050   3.594   7.115   8.000
29051SOL    HW289051   3.637   7.087   7.858
29052SOL     OW89052   0.554   3.314   8.028
29052SOL    HW189053   0.589   3.330   7.941
29052SOL    HW289054   0.523   3.399   8.058
29053SOL     OW89055   0.845  14.663   4.626
29053SOL    HW189056   0.805  14.732   4.679
29053SOL    HW289057   0.895  14.610   4.688
29054SOL     OW89058  12.399   7.597   8.012
29054SOL    HW189059  12.424   7.684   8.043
29054SOL    HW289060  12.405   7.603   7.916
29055SOL     OW89061   5.148  11.838   2.359
29055SOL    HW189062   5.166  11.777   2.287
29055SOL    HW289063   5.231  11.883   2.374
29056SOL     OW89064   8.507   1.332   0.048
29056SOL    HW189065   8.475   1.419   0.075
29056SOL    HW289066   8.602   1.338   0.058
29057SOL     OW89067  14.510   4.273   8.783
29057SOL    HW189068  14.453   4.325   8.840
29057SOL    HW289069  14.599   4.290   8.816
29058SOL     OW89070  14.505  11.152   3.865
29058SOL    HW189071  14.440  11.082   3.858
29058SOL    HW289072  14.454  11.233   3.862
29059SOL     OW89073   3.780   0.495   3.929
29059SOL    HW189074   3.792   0.588   3.947
29059SOL    HW289075   3.816   0.484   3.841
29060SOL     OW89076   1.137   5.122  10.402
29060SOL    HW189077   1.110   5.128  10.493
29060SOL    HW289078   1.098   5.040  10.371
29061SOL     OW89079   4.642  10.517   8.143
29061SOL    HW189080   4.673  10.474   8.222
29061SOL    HW289081   4.679  10.465   8.071
29062SOL     OW89082  11.746  12.131   3.037
29062SOL    HW189083  11.739  12.190   3.113
29062SOL    HW289084  11.750  12.189   2.962
29063SOL     OW89085   9.973   2.077  12.690
29063SOL    HW189086  10.055   2.048  12.729
29063SOL    HW289087   9.987   2.069  12.596
29064SOL     OW89088   1.211   6.632   1.595
29064SOL    HW189089   1.278   6.585   1.546
29064SOL    HW289090   1.146   6.566   1.617
29065SOL     OW89091  12.920   4.820   6.538
29065SOL    HW189092  13.007   4.837   6.574
29065SOL    HW289093  12.859   4.855   6.604
29066SOL     OW89094  12.946   6.564   2.791
29066SOL    HW189095  12.873   6.576   2.852
29066SOL    HW289096  13.025   6.571   2.845
29067SOL     OW89097   5.613  10.815  12.982
29067SOL    HW189098   5.576  10.754  13.045
29067SOL    HW289099   5.698  10.777  12.960
29068SOL     OW89100   5.924   4.227   3.600
29068SOL    HW189101   5.971   4.192   3.675
29068SOL    HW289102   5.834   4.239   3.630
29069SOL     OW89103   9.851  10.954   9.891
29069SOL    HW189104   9.882  10.902   9.818
29069SOL    HW289105   9.930  10.994   9.927
29070SOL     OW89106   6.873   0.712   7.701
29070SOL    HW189107   6.818   0.643   7.663
29070SOL    HW289108   6.849   0.791   7.653
29071SOL     OW89109   6.194   6.841  14.319
29071SOL    HW189110   6.248   6.762  14.311
29071SOL    HW289111   6.222   6.880  14.402
29072SOL     OW89112  13.231   7.528  12.951
29072SOL    HW189113  13.137   7.548  12.945
29072SOL    HW289114  13.257   7.563  13.037
29073SOL     OW89115  10.336  10.958   6.974
29073SOL    HW189116  10.329  10.952   6.879
29073SOL    HW289117  10.316  11.049   6.994
29074SOL     OW89118   4.324   1.233   8.976
29074SOL    HW189119   4.335   1.147   8.934
29074SOL    HW289120   4.331   1.214   9.070
29075SOL     OW89121  14.152  14.044   9.428
29075SOL    HW189122  14.079  13.982   9.421
29075SOL    HW289123  14.230  13.990   9.413
29076SOL     OW89124   5.401   8.823   8.094
29076SOL    HW189125   5.348   8.862   8.024
29076SOL    HW289126   5.339   8.812   8.167
29077SOL     OW89127  13.041  11.973   9.696
29077SOL    HW189128  13.135  11.951   9.699
29077SOL    HW289129  13.001  11.901   9.647
29078SOL     OW89130   1.556  14.464   8.689
29078SOL    HW189131   1.557  14.531   8.758
29078SOL    HW289132   1.514  14.507   8.614
29079SOL     OW89133   4.696  11.641   9.238
29079SOL    HW189134   4.673  11.619   9.328
29079SOL    HW289135   4.789  11.621   9.231
29080SOL     OW89136   3.278   9.811  10.132
29080SOL    HW189137   3.269   9.868  10.208
29080SOL    HW289138   3.197   9.822  10.083
29081SOL     OW89139   3.861   1.067   6.414
29081SOL    HW189140   3.931   1.009   6.444
29081SOL    HW289141   3.892   1.101   6.330
29082SOL     OW89142  10.123  12.008  10.481
29082SOL    HW189143  10.084  12.044  10.560
29082SOL    HW289144  10.084  12.058  10.409
29083SOL     OW89145  12.661   8.282   9.629
29083SOL    HW189146  12.650   8.200   9.581
29083SOL    HW289147  12.671   8.256   9.720
29084SOL     OW89148  14.626  10.683   2.402
29084SOL    HW189149  14.565  10.755   2.385
29084SOL    HW289150  14.693  10.722   2.458
29085SOL     OW89151  10.822   2.204   5.949
29085SOL    HW189152  10.803   2.229   6.039
29085SOL    HW289153  10.843   2.111   5.954
29086SOL     OW89154   9.672   1.867  11.304
29086SOL    HW189155   9.682   1.773  11.292
29086SOL    HW289156   9.653   1.876  11.398
29087SOL     OW89157  13.251  14.770   9.832
29087SOL    HW189158  13.223  14.849   9.785
29087SOL    HW289159  13.170  14.725   9.854
29088SOL     OW89160   9.894   1.496  10.828
29088SOL    HW189161   9.850   1.538  10.754
29088SOL    HW289162   9.869   1.548  10.904
29089SOL     OW89163  11.215   1.472   6.979
29089SOL    HW189164  11.151   1.446   7.046
29089SOL    HW289165  11.297   1.430   7.007
29090SOL     OW89166   6.740   1.057   0.514
29090SOL    HW189167   6.818   1.021   0.556
29090SOL    HW289168   6.733   1.007   0.432
29091SOL     OW89169   7.107   3.875  13.127
29091SOL    HW189170   7.024   3.868  13.080
29091SOL    HW289171   7.173   3.876  13.057
29092SOL     OW89172   2.281  10.386  14.670
29092SOL    HW189173   2.229  10.464  14.690
29092SOL    HW289174   2.362  10.421  14.634
29093SOL     OW89175   2.937   3.847   8.466
29093SOL    HW189176   2.855   3.888   8.494
29093SOL    HW289177   2.987   3.917   8.425
29094SOL     OW89178   1.758   5.506   4.953
29094SOL    HW189179   1.822   5.556   5.004
29094SOL    HW289180   1.758   5.419   4.993
29095SOL     OW89181  12.682   2.441   3.083
29095SOL    HW189182  12.746   2.505   3.052
29095SOL    HW289183  12.649   2.399   3.004
29096SOL     OW89184   7.871   6.842  11.676
29096SOL    HW189185   7.839   6.807  11.759
29096SOL    HW289186   7.955   6.882  11.698
29097SOL     OW89187   3.179   6.666   3.500
29097SOL    HW189188   3.205   6.595   3.559
29097SOL    HW289189   3.145   6.622   3.422
29098SOL     OW89190   4.109  10.933  10.998
29098SOL    HW189191   4.089  10.982  10.919
29098SOL    HW289192   4.094  10.841  10.974
29099SOL     OW89193   0.839   6.406  11.667
29099SOL    HW189194   0.813   6.340  11.603
29099SOL    HW289195   0.894   6.359  11.729
29100SOL     OW89196   6.899   3.923   5.847
29100SOL    HW189197   6.855   4.004   5.822
29100SOL    HW289198   6.939   3.892   5.766
29101SOL     OW89199   8.805   1.591   8.453
29101SOL    HW189200   8.736   1.612   8.390
29101SOL    HW289201   8.764   1.603   8.539
29102SOL     OW89202   8.714   8.639   5.735
29102SOL    HW189203   8.702   8.654   5.641
29102SOL    HW289204   8.673   8.715   5.777
29103SOL     OW89205   4.744   8.491  10.129
29103SOL    HW189206   4.790   8.524  10.207
29103SOL    HW289207   4.806   8.503  10.058
29104SOL     OW89208  11.297  10.907  14.777
29104SOL    HW189209  11.294  10.813  14.759
29104SOL    HW289210  11.278  10.949  14.693
29105SOL     OW89211  12.886   8.403  11.327
29105SOL    HW189212  12.890   8.481  11.383
29105SOL    HW289213  12.885   8.438  11.238
29106SOL     OW89214   7.919   5.585   4.798
29106SOL    HW189215   7.987   5.546   4.853
29106SOL    HW289216   7.929   5.679   4.809
29107SOL     OW89217   2.196   9.725  13.831
29107SOL    HW189218   2.193   9.749  13.739
29107SOL    HW289219   2.231   9.802  13.876
29108SOL     OW89220  11.217   6.998   4.706
29108SOL    HW189221  11.188   7.041   4.787
29108SOL    HW289222  11.151   7.023   4.641
29109SOL     OW89223  11.129  14.708   8.904
29109SOL    HW189224  11.098  14.660   8.980
29109SOL    HW289225  11.053  14.761   8.877
29110SOL     OW89226   8.232  13.812   6.775
29110SOL    HW189227   8.152  13.764   6.752
29110SOL    HW289228   8.293  13.743   6.804
29111SOL     OW89229   1.551  10.936  12.134
29111SOL    HW189230   1.547  10.841  12.147
29111SOL    HW289231   1.460  10.965  12.137
29112SOL     OW89232   9.650   4.975  12.686
29112SOL    HW189233   9.578   5.035  12.707
29112SOL    HW289234   9.610   4.888  12.693
29113SOL     OW89235   4.001  14.834   4.745
29113SOL    HW189236   3.959  14.749   4.734
29113SOL    HW289237   3.971  14.886   4.671
29114SOL     OW89238   5.008   0.419   2.598
29114SOL    HW189239   4.940   0.355   2.618
29114SOL    HW289240   5.059   0.379   2.527
29115SOL     OW89241   6.855   2.982   4.219
29115SOL    HW189242   6.856   3.053   4.284
29115SOL    HW289243   6.940   2.939   4.230
29116SOL     OW89244   6.215   2.812   5.051
29116SOL    HW189245   6.237   2.852   5.135
29116SOL    HW289246   6.278   2.740   5.042
29117SOL     OW89247  13.633  12.957   9.973
29117SOL    HW189248  13.601  12.969  10.062
29117SOL    HW289249  13.592  12.875   9.944
29118SOL     OW89250   3.854   6.305   9.532
29118SOL    HW189251   3.781   6.361   9.559
29118SOL    HW289252   3.872   6.332   9.441
29119SOL     OW89253   5.401   3.920   6.629
29119SOL    HW189254   5.350   3.882   6.701
29119SOL    HW289255   5.480   3.866   6.624
29120SOL     OW89256   4.541  13.224   5.034
29120SOL    HW189257   4.502  13.209   4.948
29120SOL    HW289258   4.473  13.270   5.084
29121SOL     OW89259  13.782   7.396   4.116
29121SOL    HW189260  13.700   7.417   4.071
29121SOL    HW289261  13.833   7.346   4.052
29122SOL     OW89262  13.095  11.693  13.224
29122SOL    HW189263  13.086  11.627  13.293
29122SOL    HW289264  13.135  11.646  13.151
29123SOL     OW89265   9.034   3.947  14.684
29123SOL    HW189266   8.995   3.893  14.616
29123SOL    HW289267   9.010   4.037  14.660
29124SOL     OW89268  11.418   3.538  12.723
29124SOL    HW189269  11.374   3.481  12.786
29124SOL    HW289270  11.419   3.624  12.764
29125SOL     OW89271  10.630   4.211   7.725
29125SOL    HW189272  10.643   4.120   7.752
29125SOL    HW289273  10.552   4.239   7.772
29126SOL     OW89274   8.171   5.113  12.117
29126SOL    HW189275   8.078   5.132  12.127
29126SOL    HW289276   8.191   5.140  12.027
29127SOL     OW89277   6.494   4.753   9.156
29127SOL    HW189278   6.420   4.701   9.123
29127SOL    HW289279   6.559   4.688   9.182
29128SOL     OW89280  14.020   1.512  13.444
29128SOL    HW189281  14.100   1.527  13.493
29128SOL    HW289282  13.990   1.599  13.419
29129SOL     OW89283  14.018   7.632  14.201
29129SOL    HW189284  14.109   7.659  14.199
29129SOL    HW289285  13.979   7.671  14.123
29130SOL     OW89286   0.920  10.566  13.811
29130SOL    HW189287   0.912  10.517  13.893
29130SOL    HW289288   0.976  10.512  13.756
29131SOL     OW89289   7.282  14.298   3.674
29131SOL    HW189290   7.358  14.345   3.710
29131SOL    HW289291   7.321  14.226   3.624
29132SOL     OW89292   5.907   0.065  10.455
29132SOL    HW189293   5.830   0.038  10.405
29132SOL    HW289294   5.937  14.873  10.499
29133SOL     OW89295   0.020  14.673  11.281
29133SOL    HW189296  14.861  14.745  11.325
29133SOL    HW289297  14.860  14.594  11.309
29134SOL     OW89298   9.551  13.125  11.239
29134SOL    HW189299   9.622  13.061  11.234
29134SOL    HW289300   9.480  13.079  11.283
29135SOL     OW89301  11.540   1.712  13.946
29135SOL    HW189302  11.558   1.696  14.039
29135SOL    HW289303  11.494   1.633  13.917
29136SOL     OW89304   2.817   0.910  13.854
29136SOL    HW189305   2.902   0.887  13.816
29136SOL    HW289306   2.762   0.931  13.779
29137SOL     OW89307   6.472  12.671   8.629
29137SOL    HW189308   6.493  12.583   8.597
29137SOL    HW289309   6.388  12.692   8.588
29138SOL     OW89310   1.711   9.843   1.670
29138SOL    HW189311   1.658   9.843   1.750
29138SOL    HW289312   1.795   9.806   1.698
29139SOL     OW89313   7.817   6.739   4.027
29139SOL    HW189314   7.736   6.702   4.062
29139SOL    HW289315   7.859   6.782   4.102
29140SOL     OW89316   6.969   6.785  14.116
29140SOL    HW189317   7.014   6.863  14.146
29140SOL    HW289318   6.932   6.810  14.031
29141SOL     OW89319  12.607   2.940   1.755
29141SOL    HW189320  12.558   2.869   1.797
29141SOL    HW289321  12.553   2.965   1.680
29142SOL     OW89322   3.441   0.670   4.718
29142SOL    HW189323   3.500   0.625   4.779
29142SOL    HW289324   3.369   0.608   4.704
29143SOL     OW89325   6.349   2.157   8.646
29143SOL    HW189326   6.257   2.135   8.657
29143SOL    HW289327   6.351   2.211   8.566
29144SOL     OW89328   1.576   4.221  13.986
29144SOL    HW189329   1.650   4.233  13.927
29144SOL    HW289330   1.505   4.272  13.946
29145SOL     OW89331  11.575   4.641  12.987
29145SOL    HW189332  11.526   4.722  13.003
29145SOL    HW289333  11.523   4.596  12.920
29146SOL     OW89334  14.303  12.922   9.156
29146SOL    HW189335  14.382  12.900   9.108
29146SOL    HW289336  14.300  12.859   9.228
29147SOL     OW89337  10.576   8.892   7.195
29147SOL    HW189338  10.532   8.818   7.237
29147SOL    HW289339  10.621   8.853   7.120
29148SOL     OW89340   7.183   1.074   4.981
29148SOL    HW189341   7.103   1.101   4.937
29148SOL    HW289342   7.200   0.986   4.947
29149SOL     OW89343   0.415  14.041  14.088
29149SOL    HW189344   0.489  14.046  14.148
29149SOL    HW289345   0.439  13.971  14.027
29150SOL     OW89346   2.119   7.229  13.839
29150SOL    HW189347   2.135   7.246  13.931
29150SOL    HW289348   2.084   7.312  13.805
29151SOL     OW89349  12.763   9.740  10.706
29151SOL    HW189350  12.816   9.693  10.641
29151SOL    HW289351  12.674   9.707  10.693
29152SOL     OW89352  11.738   4.104  11.850
29152SOL    HW189353  11.785   4.181  11.818
29152SOL    HW289354  11.803   4.056  11.901
29153SOL     OW89355   5.992   5.567  10.864
29153SOL    HW189356   5.999   5.663  10.869
29153SOL    HW289357   6.052   5.542  10.793
29154SOL     OW89358  10.908   5.116   2.688
29154SOL    HW189359  10.867   5.051   2.630
29154SOL    HW289360  11.001   5.113   2.666
29155SOL     OW89361  12.600   5.984   4.161
29155SOL    HW189362  12.639   5.897   4.157
29155SOL    HW289363  12.513   5.974   4.123
29156SOL     OW89364   8.381   8.888   6.741
29156SOL    HW189365   8.297   8.884   6.695
29156SOL    HW289366   8.436   8.942   6.685
29157SOL     OW89367   7.107   2.495  11.273
29157SOL    HW189368   7.149   2.576  11.245
29157SOL    HW289369   7.023   2.522  11.310
29158SOL     OW89370   9.367  13.313   9.288
29158SOL    HW189371   9.363  13.357   9.373
29158SOL    HW289372   9.295  13.250   9.290
29159SOL     OW89373  14.675  12.915   4.793
29159SOL    HW189374  14.606  12.851   4.811
29159SOL    HW289375  14.630  12.984   4.743
29160SOL     OW89376   2.697   9.614  10.960
29160SOL    HW189377   2.757   9.680  10.995
29160SOL    HW289378   2.621   9.618  11.018
29161SOL     OW89379   2.624   4.700   6.230
29161SOL    HW189380   2.643   4.794   6.236
29161SOL    HW289381   2.543   4.695   6.179
29162SOL     OW89382  12.958   9.156   3.396
29162SOL    HW189383  13.046   9.118   3.391
29162SOL    HW289384  12.928   9.158   3.305
29163SOL     OW89385   5.726   2.595   8.140
29163SOL    HW189386   5.702   2.682   8.109
29163SOL    HW289387   5.661   2.537   8.101
29164SOL     OW89388  12.459   8.473  10.708
29164SOL    HW189389  12.493   8.552  10.667
29164SOL    HW289390  12.406   8.431  10.640
29165SOL     OW89391  10.457   7.460   8.836
29165SOL    HW189392  10.543   7.478   8.874
29165SOL    HW289393  10.449   7.364   8.837
29166SOL     OW89394   6.566   3.001   1.623
29166SOL    HW189395   6.511   2.944   1.677
29166SOL    HW289396   6.643   3.017   1.677
29167SOL     OW89397   1.697   7.167  11.850
29167SOL    HW189398   1.671   7.086  11.894
29167SOL    HW289399   1.761   7.139  11.785
29168SOL     OW89400   0.050   1.103   0.637
29168SOL    HW189401  14.854   1.139   0.664
29168SOL    HW289402   0.101   1.097   0.718
29169SOL     OW89403   5.029   6.934   1.901
29169SOL    HW189404   5.089   6.869   1.863
29169SOL    HW289405   5.072   7.018   1.885
29170SOL     OW89406  13.259   7.435  12.307
29170SOL    HW189407  13.266   7.345  12.274
29170SOL    HW289408  13.346   7.473  12.295
29171SOL     OW89409   2.773  13.933  13.320
29171SOL    HW189410   2.844  13.869  13.322
29171SOL    HW289411   2.694  13.880  13.305
29172SOL     OW89412   8.800   4.235   0.026
29172SOL    HW189413   8.890   4.219   0.055
29172SOL    HW289414   8.809   4.305  14.848
29173SOL     OW89415  13.768   6.635   5.147
29173SOL    HW189416  13.796   6.723   5.120
29173SOL    HW289417  13.799   6.577   5.078
29174SOL     OW89418   3.074  13.573   0.222
29174SOL    HW189419   2.985  13.560   0.255
29174SOL    HW289420   3.124  13.604   0.298
29175SOL     OW89421   9.520   0.128  10.549
29175SOL    HW189422   9.594   0.176  10.587
29175SOL    HW289423   9.528   0.040  10.586
29176SOL     OW89424   2.335   9.503   2.178
29176SOL    HW189425   2.295   9.487   2.093
29176SOL    HW289426   2.325   9.421   2.226
29177SOL     OW89427   2.105  11.295  12.417
29177SOL    HW189428   2.057  11.367  12.377
29177SOL    HW289429   2.185  11.334  12.451
29178SOL     OW89430   2.072   7.569   5.037
29178SOL    HW189431   2.000   7.514   5.068
29178SOL    HW289432   2.133   7.573   5.111
29179SOL     OW89433  13.937   9.380   9.363
29179SOL    HW189434  13.900   9.340   9.284
29179SOL    HW289435  13.904   9.327   9.435
29180SOL     OW89436  10.102  13.696  10.234
29180SOL    HW189437  10.196  13.715  10.230
29180SOL    HW289438  10.093  13.610  10.192
29181SOL     OW89439   7.319   2.330   2.533
29181SOL    HW189440   7.285   2.399   2.477
29181SOL    HW289441   7.270   2.339   2.615
29182SOL     OW89442  12.479  10.875   5.716
29182SOL    HW189443  12.416  10.844   5.651
29182SOL    HW289444  12.517  10.796   5.753
29183SOL     OW89445   1.841  13.100  10.997
29183SOL    HW189446   1.849  13.020  10.946
29183SOL    HW289447   1.912  13.095  11.061
29184SOL     OW89448   1.223   3.968  12.021
29184SOL    HW189449   1.238   3.879  11.990
29184SOL    HW289450   1.305   3.994  12.062
29185SOL     OW89451   8.039   0.099   6.160
29185SOL    HW189452   8.032   0.018   6.110
29185SOL    HW289453   7.949   0.122   6.183
29186SOL     OW89454   5.054   0.632  11.638
29186SOL    HW189455   5.134   0.673  11.605
29186SOL    HW289456   5.022   0.581  11.564
29187SOL     OW89457   1.817   4.745   6.573
29187SOL    HW189458   1.883   4.685   6.537
29187SOL    HW289459   1.868   4.809   6.622
29188SOL     OW89460   1.887  10.574   7.610
29188SOL    HW189461   1.809  10.560   7.664
29188SOL    HW289462   1.960  10.555   7.669
29189SOL     OW89463  11.242  12.495   0.697
29189SOL    HW189464  11.266  12.426   0.758
29189SOL    HW289465  11.183  12.452   0.634
29190SOL     OW89466   5.281  12.328  11.007
29190SOL    HW189467   5.248  12.342  10.919
29190SOL    HW289468   5.337  12.404  11.025
29191SOL     OW89469   0.797   9.543   9.886
29191SOL    HW189470   0.710   9.576   9.906
29191SOL    HW289471   0.786   9.495   9.804
29192SOL     OW89472   2.527   1.616   9.276
29192SOL    HW189473   2.462   1.598   9.207
29192SOL    HW289474   2.474   1.628   9.355
29193SOL     OW89475  13.313   8.071   5.503
29193SOL    HW189476  13.384   8.094   5.563
29193SOL    HW289477  13.233   8.088   5.552
29194SOL     OW89478  10.890   7.453   5.162
29194SOL    HW189479  10.842   7.506   5.099
29194SOL    HW289480  10.891   7.365   5.125
29195SOL     OW89481  14.020  14.876   5.788
29195SOL    HW189482  13.929   0.014   5.774
29195SOL    HW289483  14.047  14.834   5.707
29196SOL     OW89484  13.967  12.573  13.868
29196SOL    HW189485  14.057  12.603  13.855
29196SOL    HW289486  13.933  12.631  13.936
29197SOL     OW89487  11.429   1.724  11.110
29197SOL    HW189488  11.383   1.790  11.057
29197SOL    HW289489  11.490   1.683  11.049
29198SOL     OW89490   3.847   1.297   7.051
29198SOL    HW189491   3.894   1.229   7.003
29198SOL    HW289492   3.820   1.360   6.984
29199SOL     OW89493   2.547   8.603   9.246
29199SOL    HW189494   2.472   8.588   9.304
29199SOL    HW289495   2.559   8.519   9.201
29200SOL     OW89496   5.504   3.198  10.347
29200SOL    HW189497   5.457   3.164  10.271
29200SOL    HW289498   5.455   3.165  10.422
29201SOL     OW89499   5.393   4.519  13.455
29201SOL    HW189500   5.472   4.517  13.509
29201SOL    HW289501   5.321   4.529  13.518
29202SOL     OW89502   2.282  14.057   7.374
29202SOL    HW189503   2.206  14.067   7.432
29202SOL    HW289504   2.269  13.972   7.332
29203SOL     OW89505   3.764  13.053  11.861
29203SOL    HW189506   3.692  13.011  11.907
29203SOL    HW289507   3.750  13.147  11.875
29204SOL     OW89508  11.519   3.474   6.304
29204SOL    HW189509  11.555   3.533   6.238
29204SOL    HW289510  11.595   3.428   6.339
29205SOL     OW89511   9.707   9.514  10.693
29205SOL    HW189512   9.755   9.459  10.755
29205SOL    HW289513   9.615   9.490  10.707
29206SOL     OW89514   6.621   6.555  12.942
29206SOL    HW189515   6.565   6.620  12.987
29206SOL    HW289516   6.651   6.601  12.864
29207SOL     OW89517   1.985   3.408   4.089
29207SOL    HW189518   1.896   3.445   4.087
29207SOL    HW289519   2.042   3.485   4.093
29208SOL     OW89520   3.674  12.507   8.815
29208SOL    HW189521   3.747  12.519   8.875
29208SOL    HW289522   3.653  12.414   8.820
29209SOL     OW89523   9.140   4.724   6.550
29209SOL    HW189524   9.160   4.634   6.522
29209SOL    HW289525   9.134   4.774   6.469
29210SOL     OW89526   4.834   2.044   6.755
29210SOL    HW189527   4.867   2.127   6.789
29210SOL    HW289528   4.804   2.066   6.666
29211SOL     OW89529   2.135   1.191   4.338
29211SOL    HW189530   2.085   1.225   4.413
29211SOL    HW289531   2.120   1.256   4.269
29212SOL     OW89532   4.395  10.471  13.138
29212SOL    HW189533   4.426  10.492  13.226
29212SOL    HW289534   4.471  10.485  13.082
29213SOL     OW89535   0.113  12.800   1.161
29213SOL    HW189536   0.158  12.731   1.112
29213SOL    HW289537   0.021  12.791   1.135
29214SOL     OW89538  12.653  13.138   0.612
29214SOL    HW189539  12.607  13.060   0.643
29214SOL    HW289540  12.590  13.181   0.554
29215SOL     OW89541  10.637   2.041   7.759
29215SOL    HW189542  10.712   2.065   7.813
29215SOL    HW289543  10.605   1.959   7.796
29216SOL     OW89544  11.513   7.679  11.757
29216SOL    HW189545  11.608   7.675  11.768
29216SOL    HW289546  11.478   7.643  11.839
29217SOL     OW89547  12.211  10.597   9.646
29217SOL    HW189548  12.248  10.679   9.680
29217SOL    HW289549  12.153  10.625   9.575
29218SOL     OW89550   2.885   9.049   2.874
29218SOL    HW189551   2.972   9.010   2.859
29218SOL    HW289552   2.826   8.997   2.819
29219SOL     OW89553  11.274  10.140  10.507
29219SOL    HW189554  11.355  10.147  10.558
29219SOL    HW289555  11.205  10.148  10.572
29220SOL     OW89556   9.656  10.057  14.115
29220SOL    HW189557   9.633  10.029  14.204
29220SOL    HW289558   9.587  10.117  14.090
29221SOL     OW89559   7.556  13.400   3.340
29221SOL    HW189560   7.638  13.446   3.323
29221SOL    HW289561   7.530  13.367   3.254
29222SOL     OW89562   2.568  11.596  10.160
29222SOL    HW189563   2.648  11.622  10.207
29222SOL    HW289564   2.599  11.572  10.072
29223SOL     OW89565  13.844  12.865   4.830
29223SOL    HW189566  13.849  12.842   4.923
29223SOL    HW289567  13.811  12.955   4.829
29224SOL     OW89568  10.583   4.973   2.719
29224SOL    HW189569  10.585   4.888   2.674
29224SOL    HW289570  10.516   5.023   2.672
29225SOL     OW89571   1.976  11.918  13.209
29225SOL    HW189572   2.048  11.971  13.176
29225SOL    HW289573   1.911  11.917  13.138
29226SOL     OW89574  11.684  13.840   3.758
29226SOL    HW189575  11.723  13.892   3.687
29226SOL    HW289576  11.602  13.808   3.721
29227SOL     OW89577   2.565   0.027   3.035
29227SOL    HW189578   2.620   0.061   3.106
29227SOL    HW289579   2.565   0.097   2.969
29228SOL     OW89580  12.611   9.174   5.824
29228SOL    HW189581  12.666   9.202   5.751
29228SOL    HW289582  12.524   9.206   5.803
29229SOL     OW89583   2.625   8.584   5.825
29229SOL    HW189584   2.714   8.615   5.842
29229SOL    HW289585   2.636   8.513   5.761
29230SOL     OW89586   7.273  10.453   1.462
29230SOL    HW189587   7.295  10.426   1.551
29230SOL    HW289588   7.351  10.498   1.430
29231SOL     OW89589   1.897   9.822  13.675
29231SOL    HW189590   1.899   9.883  13.748
29231SOL    HW289591   1.805   9.801  13.664
29232SOL     OW89592   2.327   7.090   0.737
29232SOL    HW189593   2.325   6.994   0.734
29232SOL    HW289594   2.306   7.111   0.828
29233SOL     OW89595   3.155   4.836  13.212
29233SOL    HW189596   3.241   4.828  13.252
29233SOL    HW289597   3.137   4.749  13.177
29234SOL     OW89598   7.724   4.753   2.594
29234SOL    HW189599   7.788   4.720   2.531
29234SOL    HW289600   7.757   4.725   2.679
29235SOL     OW89601   6.419   0.873   1.636
29235SOL    HW189602   6.372   0.952   1.665
29235SOL    HW289603   6.431   0.822   1.716
29236SOL     OW89604   9.338   0.409   0.280
29236SOL    HW189605   9.381   0.422   0.196
29236SOL    HW289606   9.325   0.497   0.315
29237SOL     OW89607  11.363  14.617   7.844
29237SOL    HW189608  11.402  14.632   7.930
29237SOL    HW289609  11.422  14.556   7.800
29238SOL     OW89610   7.271   3.536   0.684
29238SOL    HW189611   7.282   3.606   0.620
29238SOL    HW289612   7.265   3.456   0.632
29239SOL     OW89613   9.949   4.726   9.945
29239SOL    HW189614   9.934   4.762  10.032
29239SOL    HW289615   9.933   4.798   9.884
29240SOL     OW89616   8.294   9.545  11.249
29240SOL    HW189617   8.260   9.632  11.229
29240SOL    HW289618   8.389   9.552  11.235
29241SOL     OW89619   6.328   1.149  14.173
29241SOL    HW189620   6.314   1.229  14.223
29241SOL    HW289621   6.365   1.087  14.236
29242SOL     OW89622  13.892   8.925   9.858
29242SOL    HW189623  13.883   8.956   9.768
29242SOL    HW289624  13.892   9.004   9.911
29243SOL     OW89625   5.635  10.702   3.073
29243SOL    HW189626   5.598  10.662   3.151
29243SOL    HW289627   5.561  10.714   3.014
29244SOL     OW89628  12.819  13.661   9.580
29244SOL    HW189629  12.746  13.613   9.621
29244SOL    HW289630  12.860  13.596   9.522
29245SOL     OW89631   2.993  13.700   0.975
29245SOL    HW189632   3.051  13.648   1.032
29245SOL    HW289633   2.979  13.645   0.898
29246SOL     OW89634   8.640  11.253   4.946
29246SOL    HW189635   8.564  11.197   4.928
29246SOL    HW289636   8.714  11.207   4.906
29247SOL     OW89637  14.065  11.445   3.638
29247SOL    HW189638  13.974  11.474   3.632
29247SOL    HW289639  14.114  11.506   3.583
29248SOL     OW89640   2.882  10.114   3.534
29248SOL    HW189641   2.816  10.149   3.474
29248SOL    HW289642   2.864  10.159   3.617
29249SOL     OW89643   3.681   0.626   4.467
29249SOL    HW189644   3.669   0.621   4.562
29249SOL    HW289645   3.735   0.550   4.446
29250SOL     OW89646   6.932  12.397   9.166
29250SOL    HW189647   6.846  12.356   9.159
29250SOL    HW289648   6.975  12.375   9.083
29251SOL     OW89649  11.541   1.376   2.574
29251SOL    HW189650  11.516   1.460   2.536
29251SOL    HW289651  11.515   1.311   2.508
29252SOL     OW89652  13.281   6.489  12.929
29252SOL    HW189653  13.306   6.442  12.849
29252SOL    HW289654  13.234   6.423  12.981
29253SOL     OW89655  11.652   6.953   6.553
29253SOL    HW189656  11.584   6.895   6.517
29253SOL    HW289657  11.705   6.977   6.477
29254SOL     OW89658  11.892   0.636   7.798
29254SOL    HW189659  11.912   0.695   7.871
29254SOL    HW289660  11.831   0.572   7.835
29255SOL     OW89661   7.481   8.067   4.636
29255SOL    HW189662   7.495   8.043   4.728
29255SOL    HW289663   7.423   8.000   4.602
29256SOL     OW89664   1.620   4.548   8.925
29256SOL    HW189665   1.587   4.552   8.836
29256SOL    HW289666   1.610   4.457   8.951
29257SOL     OW89667   3.733  12.382   5.662
29257SOL    HW189668   3.727  12.393   5.757
29257SOL    HW289669   3.645  12.354   5.636
29258SOL     OW89670  11.956   9.943   9.754
29258SOL    HW189671  12.043   9.949   9.794
29258SOL    HW289672  11.900   9.908   9.823
29259SOL     OW89673   3.492  12.234   4.567
29259SOL    HW189674   3.444  12.314   4.547
29259SOL    HW289675   3.584  12.259   4.565
29260SOL     OW89676   3.163   9.874   1.198
29260SOL    HW189677   3.121   9.828   1.125
29260SOL    HW289678   3.256   9.857   1.186
29261SOL     OW89679  13.931   5.626   8.342
29261SOL    HW189680  14.018   5.662   8.359
29261SOL    HW289681  13.923   5.626   8.246
29262SOL     OW89682   1.544   0.346   4.285
29262SOL    HW189683   1.468   0.297   4.253
29262SOL    HW289684   1.509   0.431   4.310
29263SOL     OW89685   8.875   2.572   4.806
29263SOL    HW189686   8.936   2.645   4.818
29263SOL    HW289687   8.931   2.494   4.810
29264SOL     OW89688   2.568  12.376   9.043
29264SOL    HW189689   2.599  12.300   8.994
29264SOL    HW289690   2.544  12.341   9.129
29265SOL     OW89691  11.936  11.917   9.139
29265SOL    HW189692  11.920  11.827   9.169
29265SOL    HW289693  11.862  11.967   9.173
29266SOL     OW89694   2.003   3.102   1.599
29266SOL    HW189695   2.001   3.086   1.505
29266SOL    HW289696   2.086   3.065   1.628
29267SOL     OW89697   9.007   0.181  11.094
29267SOL    HW189698   9.031   0.094  11.062
29267SOL    HW289699   8.936   0.166  11.156
29268SOL     OW89700   9.776   2.800   7.075
29268SOL    HW189701   9.695   2.750   7.073
29268SOL    HW289702   9.814   2.782   7.161
29269SOL     OW89703   1.048  11.718   6.292
29269SOL    HW189704   1.003  11.637   6.269
29269SOL    HW289705   1.141  11.699   6.275
29270SOL     OW89706   9.443   2.863  14.855
29270SOL    HW189707   9.373   2.814   0.010
29270SOL    HW289708   9.450   2.823  14.768
29271SOL     OW89709   8.796   6.623  11.638
29271SOL    HW189710   8.755   6.585  11.716
29271SOL    HW289711   8.747   6.703  11.621
29272SOL     OW89712   4.224   5.777  12.378
29272SOL    HW189713   4.285   5.759  12.306
29272SOL    HW289714   4.141   5.798  12.333
29273SOL     OW89715   3.193   8.703  10.078
29273SOL    HW189716   3.110   8.661  10.054
29273SOL    HW289717   3.175   8.743  10.163
29274SOL     OW89718  13.017  10.204   1.695
29274SOL    HW189719  12.928  10.168   1.701
29274SOL    HW289720  13.046  10.211   1.786
29275SOL     OW89721   5.376  10.448   1.063
29275SOL    HW189722   5.441  10.391   1.106
29275SOL    HW289723   5.310  10.463   1.130
29276SOL     OW89724  14.820  11.440  13.122
29276SOL    HW189725  14.876  11.503  13.169
29276SOL    HW289726  14.842  11.355  13.160
29277SOL     OW89727   3.525  12.778   3.196
29277SOL    HW189728   3.527  12.854   3.138
29277SOL    HW289729   3.617  12.758   3.213
29278SOL     OW89730   6.547  14.791   4.675
29278SOL    HW189731   6.501  14.718   4.633
29278SOL    HW289732   6.519  14.868   4.626
29279SOL     OW89733   7.857  13.334   1.659
29279SOL    HW189734   7.772  13.324   1.702
29279SOL    HW289735   7.920  13.297   1.721
29280SOL     OW89736  10.428  10.858   7.870
29280SOL    HW189737  10.397  10.922   7.933
29280SOL    HW289738  10.493  10.905   7.818
29281SOL     OW89739   5.448  13.695   6.355
29281SOL    HW189740   5.361  13.725   6.383
29281SOL    HW289741   5.458  13.732   6.267
29282SOL     OW89742   0.842   4.746   4.540
29282SOL    HW189743   0.919   4.795   4.569
29282SOL    HW289744   0.845   4.664   4.590
29283SOL     OW89745  13.799  11.301   4.281
29283SOL    HW189746  13.878  11.352   4.265
29283SOL    HW289747  13.810  11.223   4.227
29284SOL     OW89748   6.233  11.414  11.343
29284SOL    HW189749   6.216  11.325  11.375
29284SOL    HW289750   6.269  11.460  11.418
29285SOL     OW89751  12.132   6.300   4.127
29285SOL    HW189752  12.182   6.220   4.142
29285SOL    HW289753  12.043   6.278   4.154
29286SOL     OW89754   2.834   3.459  11.199
29286SOL    HW189755   2.825   3.365  11.182
29286SOL    HW289756   2.928   3.476  11.189
29287SOL     OW89757   4.055  12.505  11.262
29287SOL    HW189758   4.103  12.549  11.333
29287SOL    HW289759   4.006  12.436  11.306
29288SOL     OW89760   8.270   4.877   8.822
29288SOL    HW189761   8.308   4.857   8.736
29288SOL    HW289762   8.187   4.830   8.823
29289SOL     OW89763  12.841   6.112   2.959
29289SOL    HW189764  12.821   6.031   2.913
29289SOL    HW289765  12.926   6.096   3.000
29290SOL     OW89766  14.379   1.181  10.989
29290SOL    HW189767  14.288   1.154  10.973
29290SOL    HW289768  14.374   1.229  11.072
29291SOL     OW89769   1.296  11.864   4.532
29291SOL    HW189770   1.281  11.773   4.557
29291SOL    HW289771   1.391  11.875   4.536
29292SOL     OW89772   7.272   9.881   6.441
29292SOL    HW189773   7.286   9.786   6.437
29292SOL    HW289774   7.273   9.909   6.350
29293SOL     OW89775   0.043   1.478   4.207
29293SOL    HW189776   0.136   1.502   4.213
29293SOL    HW289777   0.030   1.416   4.279
29294SOL     OW89778   3.567   2.748   9.089
29294SOL    HW189779   3.479   2.744   9.128
29294SOL    HW289780   3.566   2.680   9.022
29295SOL     OW89781   1.506  12.268  13.304
29295SOL    HW189782   1.451  12.301  13.374
29295SOL    HW289783   1.588  12.315  13.313
29296SOL     OW89784   1.392   7.349  11.449
29296SOL    HW189785   1.429   7.436  11.434
29296SOL    HW289786   1.468   7.291  11.452
29297SOL     OW89787   9.119   8.039   9.227
29297SOL    HW189788   9.086   7.973   9.288
29297SOL    HW289789   9.041   8.087   9.200
29298SOL     OW89790   9.324   1.445   2.395
29298SOL    HW189791   9.265   1.519   2.383
29298SOL    HW289792   9.396   1.480   2.448
29299SOL     OW89793  11.663   6.141   5.640
29299SOL    HW189794  11.571   6.162   5.627
29299SOL    HW289795  11.710   6.221   5.619
29300SOL     OW89796  12.360   4.236  12.900
29300SOL    HW189797  12.348   4.314  12.846
29300SOL    HW289798  12.373   4.165  12.836
29301SOL     OW89799   7.716   2.289   7.321
29301SOL    HW189800   7.672   2.349   7.381
29301SOL    HW289801   7.688   2.202   7.349
29302SOL     OW89802   9.975   7.196   3.064
29302SOL    HW189803  10.005   7.110   3.093
29302SOL    HW289804   9.924   7.178   2.985
29303SOL     OW89805  13.057   3.800  10.968
29303SOL    HW189806  13.126   3.865  10.976
29303SOL    HW289807  13.104   3.717  10.954
29304SOL     OW89808  12.155   5.701   4.249
29304SOL    HW189809  12.189   5.787   4.272
29304SOL    HW289810  12.171   5.694   4.155
29305SOL     OW89811   8.742   3.515   0.759
29305SOL    HW189812   8.748   3.544   0.851
29305SOL    HW289813   8.690   3.584   0.716
29306SOL     OW89814   6.805   5.304   6.769
29306SOL    HW189815   6.753   5.374   6.808
29306SOL    HW289816   6.783   5.306   6.676
29307SOL     OW89817   1.136  13.519  13.569
29307SOL    HW189818   1.155  13.539  13.477
29307SOL    HW289819   1.043  13.540  13.578
29308SOL     OW89820   7.974  11.189   5.643
29308SOL    HW189821   8.068  11.204   5.640
29308SOL    HW289822   7.944  11.239   5.719
29309SOL     OW89823   2.242  10.862   2.103
29309SOL    HW189824   2.236  10.817   2.019
29309SOL    HW289825   2.183  10.813   2.160
29310SOL     OW89826   4.030   0.911  10.096
29310SOL    HW189827   3.937   0.929  10.112
29310SOL    HW289828   4.070   0.910  10.183
29311SOL     OW89829   7.822  14.788   1.575
29311SOL    HW189830   7.902  14.777   1.524
29311SOL    HW289831   7.802  14.700   1.607
29312SOL     OW89832   6.087   0.780   2.644
29312SOL    HW189833   6.054   0.716   2.581
29312SOL    HW289834   6.167   0.814   2.604
29313SOL     OW89835  14.672   3.298   6.317
29313SOL    HW189836  14.664   3.392   6.303
29313SOL    HW289837  14.605   3.278   6.382
29314SOL     OW89838  13.367   7.754   9.082
29314SOL    HW189839  13.446   7.722   9.127
29314SOL    HW289840  13.400   7.799   9.004
29315SOL     OW89841  10.657  14.100   7.289
29315SOL    HW189842  10.622  14.055   7.213
29315SOL    HW289843  10.595  14.171   7.306
29316SOL     OW89844  12.957   6.736  11.737
29316SOL    HW189845  12.985   6.769  11.652
29316SOL    HW289846  12.868   6.770  11.748
29317SOL     OW89847   5.914   6.443   7.363
29317SOL    HW189848   5.962   6.525   7.377
29317SOL    HW289849   5.823   6.469   7.353
29318SOL     OW89850   8.762   5.369  12.609
29318SOL    HW189851   8.731   5.331  12.527
29318SOL    HW289852   8.684   5.373  12.664
29319SOL     OW89853   5.698   0.842  10.582
29319SOL    HW189854   5.726   0.752  10.563
29319SOL    HW289855   5.758   0.897  10.530
29320SOL     OW89856  13.202  14.124   5.922
29320SOL    HW189857  13.203  14.218   5.904
29320SOL    HW289858  13.127  14.091   5.871
29321SOL     OW89859   7.645  11.622  12.093
29321SOL    HW189860   7.619  11.640  12.184
29321SOL    HW289861   7.739  11.639  12.091
29322SOL     OW89862   2.224  10.210   6.494
29322SOL    HW189863   2.131  10.229   6.485
29322SOL    HW289864   2.244  10.155   6.418
29323SOL     OW89865   3.360   7.887  10.915
29323SOL    HW189866   3.346   7.793  10.926
29323SOL    HW289867   3.451   7.894  10.884
29324SOL     OW89868   4.537   1.935   1.581
29324SOL    HW189869   4.563   2.021   1.548
29324SOL    HW289870   4.563   1.936   1.673
29325SOL     OW89871   9.293   5.086  11.584
29325SOL    HW189872   9.385   5.111  11.574
29325SOL    HW289873   9.250   5.163  11.620
29326SOL     OW89874   3.347   1.110   8.276
29326SOL    HW189875   3.367   1.023   8.242
29326SOL    HW289876   3.257   1.102   8.309
29327SOL     OW89877   5.677   9.838   4.413
29327SOL    HW189878   5.675   9.746   4.439
29327SOL    HW289879   5.618   9.844   4.338
29328SOL     OW89880   3.551   9.726   5.307
29328SOL    HW189881   3.631   9.674   5.313
29328SOL    HW289882   3.569   9.791   5.239
29329SOL     OW89883   5.795   8.236  12.337
29329SOL    HW189884   5.767   8.160  12.389
29329SOL    HW289885   5.767   8.216  12.248
29330SOL     OW89886   2.102  10.227   2.271
29330SOL    HW189887   2.170  10.231   2.338
29330SOL    HW289888   2.147  10.255   2.191
29331SOL     OW89889   5.946   2.964  13.010
29331SOL    HW189890   5.989   2.879  13.010
29331SOL    HW289891   5.970   3.002  13.095
29332SOL     OW89892   8.993   0.028   5.186
29332SOL    HW189893   9.017   0.091   5.117
29332SOL    HW289894   8.923   0.072   5.235
29333SOL     OW89895  13.337   6.566  13.820
29333SOL    HW189896  13.269   6.630  13.840
29333SOL    HW289897  13.419   6.615  13.827
29334SOL     OW89898   5.464   1.637   9.708
29334SOL    HW189899   5.440   1.548   9.685
29334SOL    HW289900   5.403   1.692   9.658
29335SOL     OW89901   4.831  10.252  10.435
29335SOL    HW189902   4.926  10.244  10.429
29335SOL    HW289903   4.816  10.339  10.471
29336SOL     OW89904  10.572   3.107   5.277
29336SOL    HW189905  10.630   3.182   5.287
29336SOL    HW289906  10.630   3.031   5.275
29337SOL     OW89907  10.569   8.692   7.460
29337SOL    HW189908  10.500   8.636   7.424
29337SOL    HW289909  10.566   8.674   7.554
29338SOL     OW89910   8.924   3.332  12.255
29338SOL    HW189911   8.834   3.364  12.266
29338SOL    HW289912   8.935   3.326  12.160
29339SOL     OW89913  12.213  10.191  12.816
29339SOL    HW189914  12.202  10.239  12.734
29339SOL    HW289915  12.127  10.155  12.835
29340SOL     OW89916  12.036   9.416  10.865
29340SOL    HW189917  12.126   9.390  10.845
29340SOL    HW289918  11.982   9.364  10.805
29341SOL     OW89919   3.871  12.785   5.524
29341SOL    HW189920   3.897  12.734   5.448
29341SOL    HW289921   3.953  12.819   5.559
29342SOL     OW89922   5.313  14.324   4.993
29342SOL    HW189923   5.254  14.366   4.931
29342SOL    HW289924   5.286  14.232   4.995
29343SOL     OW89925   3.970   1.431  14.872
29343SOL    HW189926   3.945   1.516   0.023
29343SOL    HW289927   3.970   1.371   0.059
29344SOL     OW89928   8.197   7.751  14.198
29344SOL    HW189929   8.105   7.779  14.197
29344SOL    HW289930   8.239   7.809  14.261
29345SOL     OW89931   0.933   7.737  14.409
29345SOL    HW189932   0.983   7.661  14.381
29345SOL    HW289933   0.961   7.807  14.349
29346SOL     OW89934   3.808   4.401   9.900
29346SOL    HW189935   3.816   4.482   9.849
29346SOL    HW289936   3.898   4.376   9.919
29347SOL     OW89937  10.487   1.615   3.386
29347SOL    HW189938  10.460   1.560   3.313
29347SOL    HW289939  10.542   1.682   3.347
29348SOL     OW89940   0.730   7.936   2.651
29348SOL    HW189941   0.774   7.959   2.569
29348SOL    HW289942   0.668   7.867   2.627
29349SOL     OW89943   9.935  13.756   7.473
29349SOL    HW189944   9.858  13.792   7.429
29349SOL    HW289945   9.905  13.737   7.562
29350SOL     OW89946  13.763   3.417   5.422
29350SOL    HW189947  13.748   3.461   5.505
29350SOL    HW289948  13.748   3.324   5.440
29351SOL     OW89949   9.860  11.569   7.362
29351SOL    HW189950   9.895  11.631   7.299
29351SOL    HW289951   9.769  11.598   7.376
29352SOL     OW89952   5.903   8.238  13.024
29352SOL    HW189953   5.884   8.214  12.934
29352SOL    HW289954   5.893   8.157  13.074
29353SOL     OW89955   1.986   0.736   8.153
29353SOL    HW189956   2.067   0.685   8.153
29353SOL    HW289957   1.927   0.688   8.212
29354SOL     OW89958   8.969   3.118   7.116
29354SOL    HW189959   9.048   3.159   7.151
29354SOL    HW289960   8.973   3.027   7.146
29355SOL     OW89961  11.973   1.546   1.909
29355SOL    HW189962  11.909   1.515   1.973
29355SOL    HW289963  12.046   1.578   1.963
29356SOL     OW89964   3.134   7.930   2.134
29356SOL    HW189965   3.063   7.899   2.078
29356SOL    HW289966   3.095   7.939   2.220
29357SOL     OW89967  12.669   3.020   7.368
29357SOL    HW189968  12.585   2.997   7.327
29357SOL    HW289969  12.671   3.116   7.366
29358SOL     OW89970  12.599  10.382  13.593
29358SOL    HW189971  12.566  10.428  13.670
29358SOL    HW289972  12.565  10.293  13.601
29359SOL     OW89973   4.461  11.858  10.293
29359SOL    HW189974   4.491  11.843  10.383
29359SOL    HW289975   4.368  11.879  10.303
29360SOL     OW89976   3.723  11.587  10.346
29360SOL    HW189977   3.707  11.668  10.297
29360SOL    HW289978   3.800  11.549  10.305
29361SOL     OW89979  10.830   1.114   0.081
29361SOL    HW189980  10.825   1.087   0.172
29361SOL    HW289981  10.894   1.186   0.080
29362SOL     OW89982   5.708   4.451   7.001
29362SOL    HW189983   5.743   4.505   7.071
29362SOL    HW289984   5.771   4.461   6.929
29363SOL     OW89985   1.905   0.451   7.694
29363SOL    HW189986   2.000   0.442   7.679
29363SOL    HW289987   1.882   0.373   7.744
29364SOL     OW89988   2.037  14.084  10.483
29364SOL    HW189989   2.101  14.148  10.452
29364SOL    HW289990   2.084  14.001  10.485
29365SOL     OW89991  11.074  11.872   6.560
29365SOL    HW189992  11.002  11.925   6.595
29365SOL    HW289993  11.076  11.894   6.467
29366SOL     OW89994   6.585   3.711  10.940
29366SOL    HW189995   6.657   3.750  10.891
29366SOL    HW289996   6.571   3.626  10.897
29367SOL     OW89997  11.888   6.295   5.919
29367SOL    HW189998  11.826   6.236   5.963
29367SOL    HW289999  11.897   6.258   5.831
29368SOL     OW90000  12.947   3.858   8.763
29368SOL    HW190001  12.873   3.918   8.751
29368SOL    HW290002  12.926   3.812   8.845
29369SOL     OW90003   0.938   7.216   1.840
29369SOL    HW190004   1.020   7.246   1.880
29369SOL    HW290005   0.882   7.194   1.914
29370SOL     OW90006   5.741  13.637   3.183
29370SOL    HW190007   5.776  13.725   3.171
29370SOL    HW290008   5.813  13.579   3.156
29371SOL     OW90009  14.344   0.673  13.480
29371SOL    HW190010  14.341   0.685  13.575
29371SOL    HW290011  14.436   0.684  13.458
29372SOL     OW90012   3.067  11.115   5.241
29372SOL    HW190013   3.097  11.026   5.259
29372SOL    HW290014   2.972  11.106   5.230
29373SOL     OW90015   2.300   6.168   1.170
29373SOL    HW190016   2.388   6.154   1.135
29373SOL    HW290017   2.313   6.227   1.244
29374SOL     OW90018   9.644  11.347   9.115
29374SOL    HW190019   9.596  11.265   9.126
29374SOL    HW290020   9.736  11.322   9.120
29375SOL     OW90021   8.750   0.897   8.908
29375SOL    HW190022   8.710   0.813   8.930
29375SOL    HW290023   8.780   0.932   8.992
29376SOL     OW90024  14.247  14.597  12.137
29376SOL    HW190025  14.272  14.519  12.187
29376SOL    HW290026  14.151  14.591  12.132
29377SOL     OW90027   4.641   9.423  13.734
29377SOL    HW190028   4.715   9.477  13.706
29377SOL    HW290029   4.563   9.473  13.708
29378SOL     OW90030   7.030   9.947   9.287
29378SOL    HW190031   7.112   9.918   9.327
29378SOL    HW290032   6.970   9.959   9.360
29379SOL     OW90033   9.818  11.832  11.344
29379SOL    HW190034   9.878  11.757  11.341
29379SOL    HW290035   9.861  11.895  11.401
29380SOL     OW90036  13.703   3.847  11.979
29380SOL    HW190037  13.766   3.783  12.012
29380SOL    HW290038  13.645   3.797  11.921
29381SOL     OW90039   8.094   2.472   9.655
29381SOL    HW190040   8.039   2.459   9.733
29381SOL    HW290041   8.097   2.386   9.612
29382SOL     OW90042   8.819  13.445   0.735
29382SOL    HW190043   8.883  13.459   0.665
29382SOL    HW290044   8.735  13.471   0.697
29383SOL     OW90045   3.253   3.918   3.162
29383SOL    HW190046   3.172   3.914   3.112
29383SOL    HW290047   3.238   3.987   3.227
29384SOL     OW90048  10.050  12.848   2.239
29384SOL    HW190049   9.975  12.847   2.299
29384SOL    HW290050  10.081  12.757   2.238
29385SOL     OW90051   4.638   2.176   6.487
29385SOL    HW190052   4.666   2.240   6.421
29385SOL    HW290053   4.693   2.100   6.470
29386SOL     OW90054   1.387   6.124   3.065
29386SOL    HW190055   1.358   6.213   3.085
29386SOL    HW290056   1.330   6.068   3.119
29387SOL     OW90057   5.174   3.857   7.771
29387SOL    HW190058   5.084   3.840   7.799
29387SOL    HW290059   5.203   3.774   7.734
29388SOL     OW90060  13.253   8.668   3.825
29388SOL    HW190061  13.244   8.583   3.782
29388SOL    HW290062  13.165   8.690   3.854
29389SOL     OW90063   3.163   3.221   4.664
29389SOL    HW190064   3.219   3.155   4.706
29389SOL    HW290065   3.129   3.273   4.737
29390SOL     OW90066  13.700   6.836   1.616
29390SOL    HW190067  13.779   6.889   1.629
29390SOL    HW290068  13.721   6.751   1.655
29391SOL     OW90069  12.623   0.398  12.125
29391SOL    HW190070  12.590   0.353  12.202
29391SOL    HW290071  12.586   0.350  12.051
29392SOL     OW90072   8.991  12.925   2.717
29392SOL    HW190073   8.987  12.848   2.773
29392SOL    HW290074   8.901  12.959   2.717
29393SOL     OW90075   4.492   1.613   3.191
29393SOL    HW190076   4.462   1.528   3.157
29393SOL    HW290077   4.434   1.631   3.265
29394SOL     OW90078  12.974   4.192   8.751
29394SOL    HW190079  12.899   4.137   8.727
29394SOL    HW290080  12.994   4.241   8.671
29395SOL     OW90081  11.703  12.066   4.285
29395SOL    HW190082  11.614  12.095   4.266
29395SOL    HW290083  11.752  12.084   4.205
29396SOL     OW90084   1.290   3.883   5.794
29396SOL    HW190085   1.239   3.870   5.714
29396SOL    HW290086   1.227   3.867   5.865
29397SOL     OW90087   4.534   3.023   2.961
29397SOL    HW190088   4.572   2.943   2.924
29397SOL    HW290089   4.448   3.029   2.921
29398SOL     OW90090   6.559   7.286   6.692
29398SOL    HW190091   6.580   7.359   6.633
29398SOL    HW290092   6.543   7.212   6.635
29399SOL     OW90093  14.459   4.451  11.750
29399SOL    HW190094  14.385   4.445  11.690
29399SOL    HW290095  14.441   4.386  11.818
29400SOL     OW90096  13.894  10.776   2.645
29400SOL    HW190097  13.888  10.693   2.597
29400SOL    HW290098  13.978  10.813   2.618
29401SOL     OW90099   4.761   0.452   7.249
29401SOL    HW190100   4.821   0.435   7.321
29401SOL    HW290101   4.710   0.371   7.241
29402SOL     OW90102   5.206   7.193   3.941
29402SOL    HW190103   5.272   7.156   4.000
29402SOL    HW290104   5.144   7.238   3.999
29403SOL     OW90105   4.411   1.619   9.720
29403SOL    HW190106   4.385   1.631   9.812
29403SOL    HW290107   4.419   1.709   9.686
29404SOL     OW90108  13.786   6.430   6.261
29404SOL    HW190109  13.730   6.505   6.241
29404SOL    HW290110  13.766   6.408   6.351
29405SOL     OW90111  10.242   7.183   9.599
29405SOL    HW190112  10.160   7.160   9.641
29405SOL    HW290113  10.224   7.178   9.505
29406SOL     OW90114   9.087  13.901   7.396
29406SOL    HW190115   9.013  13.945   7.438
29406SOL    HW290116   9.142  13.872   7.469
29407SOL     OW90117   7.018   1.821   6.715
29407SOL    HW190118   7.074   1.840   6.639
29407SOL    HW290119   6.942   1.777   6.679
29408SOL     OW90120   0.414   8.622  13.997
29408SOL    HW190121   0.506   8.638  14.019
29408SOL    HW290122   0.403   8.528  14.012
29409SOL     OW90123  11.256  10.523  13.291
29409SOL    HW190124  11.275  10.493  13.380
29409SOL    HW290125  11.220  10.445  13.247
29410SOL     OW90126  13.025  13.945   0.952
29410SOL    HW190127  13.028  13.850   0.950
29410SOL    HW290128  12.974  13.966   1.030
29411SOL     OW90129  13.167  13.714   6.984
29411SOL    HW190130  13.241  13.673   6.939
29411SOL    HW290131  13.160  13.666   7.066
29412SOL     OW90132   2.825   3.359   0.070
29412SOL    HW190133   2.860   3.447   0.056
29412SOL    HW290134   2.762   3.369   0.142
29413SOL     OW90135  10.800   0.302  13.244
29413SOL    HW190136  10.714   0.318  13.205
29413SOL    HW290137  10.795   0.344  13.330
29414SOL     OW90138   2.815   0.282   4.147
29414SOL    HW190139   2.791   0.207   4.201
29414SOL    HW290140   2.858   0.342   4.206
29415SOL     OW90141   3.197   1.215   0.367
29415SOL    HW190142   3.188   1.155   0.441
29415SOL    HW290143   3.180   1.302   0.404
29416SOL     OW90144  14.646   0.195  11.698
29416SOL    HW190145  14.558   0.229  11.680
29416SOL    HW290146  14.691   0.198  11.614
29417SOL     OW90147   3.275   8.981  13.139
29417SOL    HW190148   3.306   9.042  13.072
29417SOL    HW290149   3.352   8.928  13.159
29418SOL     OW90150   8.857   9.825   1.938
29418SOL    HW190151   8.916   9.871   1.997
29418SOL    HW290152   8.914   9.784   1.874
29419SOL     OW90153  12.865   0.974   7.184
29419SOL    HW190154  12.840   0.881   7.179
29419SOL    HW290155  12.927   0.985   7.112
29420SOL     OW90156  12.720  12.276  11.984
29420SOL    HW190157  12.706  12.224  11.905
29420SOL    HW290158  12.814  12.269  12.002
29421SOL     OW90159  14.451  11.498  10.264
29421SOL    HW190160  14.474  11.487  10.172
29421SOL    HW290161  14.434  11.409  10.295
29422SOL     OW90162   4.530  10.691   3.596
29422SOL    HW190163   4.568  10.776   3.617
29422SOL    HW290164   4.538  10.639   3.676
29423SOL     OW90165   1.304   1.300   7.444
29423SOL    HW190166   1.223   1.348   7.426
29423SOL    HW290167   1.367   1.335   7.381
29424SOL     OW90168  10.690   0.309   7.647
29424SOL    HW190169  10.674   0.224   7.689
29424SOL    HW290170  10.773   0.299   7.602
29425SOL     OW90171   1.932  14.373  12.289
29425SOL    HW190172   1.866  14.319  12.246
29425SOL    HW290173   1.890  14.458  12.301
29426SOL     OW90174  12.595  11.163   8.760
29426SOL    HW190175  12.671  11.113   8.731
29426SOL    HW290176  12.584  11.231   8.693
29427SOL     OW90177  10.381   1.299   5.454
29427SOL    HW190178  10.458   1.242   5.450
29427SOL    HW290179  10.316   1.249   5.502
29428SOL     OW90180   1.143   7.678   5.306
29428SOL    HW190181   1.089   7.621   5.362
29428SOL    HW290182   1.082   7.712   5.240
29429SOL     OW90183   7.806   7.233  10.833
29429SOL    HW190184   7.755   7.194  10.904
29429SOL    HW290185   7.742   7.262  10.769
29430SOL     OW90186   3.375   5.798   2.998
29430SOL    HW190187   3.464   5.793   3.033
29430SOL    HW290188   3.336   5.872   3.044
29431SOL     OW90189  10.256  10.472   0.598
29431SOL    HW190190  10.319  10.537   0.630
29431SOL    HW290191  10.269  10.396   0.655
29432SOL     OW90192   3.757   2.842   3.620
29432SOL    HW190193   3.827   2.899   3.652
29432SOL    HW290194   3.798   2.791   3.549
29433SOL     OW90195  11.459   2.859  11.783
29433SOL    HW190196  11.553   2.844  11.798
29433SOL    HW290197  11.416   2.794  11.839
29434SOL     OW90198   8.854   0.166  12.133
29434SOL    HW190199   8.918   0.204  12.072
29434SOL    HW290200   8.770   0.205  12.107
29435SOL     OW90201  14.536  12.846   0.049
29435SOL    HW190202  14.555  12.753   0.040
29435SOL    HW290203  14.482  12.853   0.127
29436SOL     OW90204   9.449   9.943  13.732
29436SOL    HW190205   9.526   9.948  13.789
29436SOL    HW290206   9.476   9.888  13.659
29437SOL     OW90207   0.748  13.726   1.112
29437SOL    HW190208   0.829  13.690   1.149
29437SOL    HW290209   0.678  13.676   1.155
29438SOL     OW90210  10.630   7.613   6.006
29438SOL    HW190211  10.675   7.529   6.004
29438SOL    HW290212  10.578   7.614   5.926
29439SOL     OW90213   7.011  14.500   6.415
29439SOL    HW190214   6.984  14.583   6.456
29439SOL    HW290215   6.938  14.477   6.357
29440SOL     OW90216   9.523   6.431  12.519
29440SOL    HW190217   9.432   6.457  12.529
29440SOL    HW290218   9.571   6.514  12.516
29441SOL     OW90219   3.943   8.446   1.375
29441SOL    HW190220   3.852   8.462   1.397
29441SOL    HW290221   3.974   8.528   1.336
29442SOL     OW90222  12.787   1.306   8.255
29442SOL    HW190223  12.812   1.214   8.253
29442SOL    HW290224  12.798   1.336   8.164
29443SOL     OW90225   3.921   1.490  11.116
29443SOL    HW190226   3.925   1.555  11.186
29443SOL    HW290227   3.845   1.515  11.063
29444SOL     OW90228   9.077  13.243   3.873
29444SOL    HW190229   9.104  13.303   3.942
29444SOL    HW290230   8.981  13.240   3.880
29445SOL     OW90231  10.625   4.068   4.294
29445SOL    HW190232  10.529   4.060   4.297
29445SOL    HW290233  10.651   4.018   4.216
29446SOL     OW90234   8.793  13.982   7.484
29446SOL    HW190235   8.815  14.064   7.440
29446SOL    HW290236   8.728  13.941   7.427
29447SOL     OW90237  12.310   2.594  10.573
29447SOL    HW190238  12.242   2.543  10.529
29447SOL    HW290239  12.357   2.638  10.502
29448SOL     OW90240   4.698   1.460  11.789
29448SOL    HW190241   4.647   1.476  11.709
29448SOL    HW290242   4.735   1.545  11.811
29449SOL     OW90243   7.432   2.101   1.147
29449SOL    HW190244   7.356   2.051   1.177
29449SOL    HW290245   7.447   2.166   1.216
29450SOL     OW90246  13.853   7.766  10.462
29450SOL    HW190247  13.869   7.672  10.451
29450SOL    HW290248  13.794   7.772  10.537
29451SOL     OW90249   1.675   9.615   7.902
29451SOL    HW190250   1.750   9.604   7.961
29451SOL    HW290251   1.638   9.527   7.893
29452SOL     OW90252   2.236  11.786   2.764
29452SOL    HW190253   2.321  11.801   2.721
29452SOL    HW290254   2.209  11.873   2.794
29453SOL     OW90255  14.027   6.988  14.408
29453SOL    HW190256  14.029   6.927  14.482
29453SOL    HW290257  13.987   7.067  14.444
29454SOL     OW90258   6.161  14.101   3.891
29454SOL    HW190259   6.243  14.082   3.845
29454SOL    HW290260   6.093  14.070   3.831
29455SOL     OW90261  13.011   6.856  14.700
29455SOL    HW190262  13.045   6.812  14.622
29455SOL    HW290263  12.933   6.903  14.668
29456SOL     OW90264   1.274   3.075   6.494
29456SOL    HW190265   1.237   3.042   6.413
29456SOL    HW290266   1.199   3.111   6.542
29457SOL     OW90267   8.273  10.465   9.469
29457SOL    HW190268   8.230  10.432   9.390
29457SOL    HW290269   8.349  10.409   9.480
29458SOL     OW90270   9.662  10.549   3.290
29458SOL    HW190271   9.600  10.586   3.227
29458SOL    HW290272   9.713  10.486   3.241
29459SOL     OW90273   5.369   7.159  13.433
29459SOL    HW190274   5.369   7.065  13.413
29459SOL    HW290275   5.306   7.168  13.504
29460SOL     OW90276  12.343   3.450   4.034
29460SOL    HW190277  12.323   3.535   3.994
29460SOL    HW290278  12.295   3.450   4.117
29461SOL     OW90279   9.187   5.434  13.829
29461SOL    HW190280   9.256   5.460  13.768
29461SOL    HW290281   9.107   5.434  13.775
29462SOL     OW90282   4.451  13.073   8.554
29462SOL    HW190283   4.467  13.081   8.460
29462SOL    HW290284   4.397  13.148   8.576
29463SOL     OW90285   6.915   1.362  13.276
29463SOL    HW190286   7.010   1.350  13.277
29463SOL    HW290287   6.882   1.295  13.216
29464SOL     OW90288   1.010   0.765  14.341
29464SOL    HW190289   0.964   0.825  14.282
29464SOL    HW290290   0.989   0.798  14.429
29465SOL     OW90291  12.103   6.254   3.379
29465SOL    HW190292  12.142   6.290   3.299
29465SOL    HW290293  12.096   6.160   3.362
29466SOL     OW90294   6.826   0.046  11.616
29466SOL    HW190295   6.881  14.868  11.572
29466SOL    HW290296   6.888   0.106  11.657
29467SOL     OW90297   6.245  12.528   0.322
29467SOL    HW190298   6.282  12.616   0.319
29467SOL    HW290299   6.270  12.488   0.239
29468SOL     OW90300   5.423  13.144   3.681
29468SOL    HW190301   5.329  13.129   3.688
29468SOL    HW290302   5.432  13.212   3.615
29469SOL     OW90303   6.175   7.114  14.465
29469SOL    HW190304   6.082   7.118  14.440
29469SOL    HW290305   6.202   7.205  14.471
29470SOL     OW90306   0.993   3.533   7.635
29470SOL    HW190307   0.968   3.534   7.542
29470SOL    HW290308   1.054   3.607   7.644
29471SOL     OW90309  14.132  10.140   8.737
29471SOL    HW190310  14.145  10.096   8.653
29471SOL    HW290311  14.055  10.196   8.723
29472SOL     OW90312   1.312  11.990   5.023
29472SOL    HW190313   1.350  12.077   5.013
29472SOL    HW290314   1.218  12.003   5.010
29473SOL     OW90315   1.757   2.549   7.190
29473SOL    HW190316   1.752   2.484   7.120
29473SOL    HW290317   1.773   2.497   7.269
29474SOL     OW90318  12.535   0.940   0.636
29474SOL    HW190319  12.496   0.893   0.709
29474SOL    HW290320  12.462   0.964   0.579
29475SOL     OW90321  11.595   7.034  14.679
29475SOL    HW190322  11.622   7.023  14.770
29475SOL    HW290323  11.560   6.949  14.654
29476SOL     OW90324  13.744   6.804   3.401
29476SOL    HW190325  13.803   6.859   3.453
29476SOL    HW290326  13.666   6.859   3.387
29477SOL     OW90327   0.075   8.154  11.337
29477SOL    HW190328  14.872   8.186  11.337
29477SOL    HW290329   0.128   8.233  11.322
29478SOL     OW90330  14.411  10.645   5.361
29478SOL    HW190331  14.507  10.651   5.364
29478SOL    HW290332  14.382  10.690   5.440
29479SOL     OW90333   7.959   4.452   3.228
29479SOL    HW190334   7.953   4.425   3.137
29479SOL    HW290335   7.883   4.509   3.242
29480SOL     OW90336  12.131   2.915   2.783
29480SOL    HW190337  12.107   2.843   2.842
29480SOL    HW290338  12.165   2.873   2.705
29481SOL     OW90339   1.415   9.379   9.277
29481SOL    HW190340   1.382   9.439   9.210
29481SOL    HW290341   1.502   9.355   9.247
29482SOL     OW90342   1.091   5.009   1.185
29482SOL    HW190343   1.011   4.959   1.167
29482SOL    HW290344   1.150   4.986   1.113
29483SOL     OW90345   3.759   6.980   4.475
29483SOL    HW190346   3.668   6.997   4.501
29483SOL    HW290347   3.808   6.983   4.557
29484SOL     OW90348   5.453   1.372  10.680
29484SOL    HW190349   5.492   1.289  10.706
29484SOL    HW290350   5.527   1.426  10.651
29485SOL     OW90351   7.927  14.810   8.261
29485SOL    HW190352   7.861  14.793   8.328
29485SOL    HW290353   7.923   0.017   8.246
29486SOL     OW90354   7.807   5.030  13.729
29486SOL    HW190355   7.736   5.020  13.665
29486SOL    HW290356   7.773   4.993  13.810
29487SOL     OW90357  10.749   2.071   5.332
29487SOL    HW190358  10.707   2.020   5.263
29487SOL    HW290359  10.751   2.161   5.298
29488SOL     OW90360   9.355   6.290   5.900
29488SOL    HW190361   9.370   6.242   5.819
29488SOL    HW290362   9.297   6.361   5.875
29489SOL     OW90363  13.096  12.694   3.180
29489SOL    HW190364  13.085  12.769   3.239
29489SOL    HW290365  13.032  12.710   3.110
29490SOL     OW90366   6.365   5.956   2.047
29490SOL    HW190367   6.392   5.923   1.962
29490SOL    HW290368   6.301   6.024   2.027
29491SOL     OW90369   5.252   0.473   7.807
29491SOL    HW190370   5.278   0.561   7.834
29491SOL    HW290371   5.167   0.460   7.848
29492SOL     OW90372  11.305  12.503   6.576
29492SOL    HW190373  11.343  12.588   6.596
29492SOL    HW290374  11.357  12.440   6.626
29493SOL     OW90375   9.705  11.998   1.801
29493SOL    HW190376   9.628  12.053   1.815
29493SOL    HW290377   9.772  12.037   1.857
29494SOL     OW90378  14.355  10.324   4.393
29494SOL    HW190379  14.358  10.414   4.359
29494SOL    HW290380  14.446  10.303   4.412
29495SOL     OW90381   4.746   1.244   9.158
29495SOL    HW190382   4.781   1.243   9.069
29495SOL    HW290383   4.691   1.166   9.162
29496SOL     OW90384   8.556   0.727  10.499
29496SOL    HW190385   8.646   0.707  10.475
29496SOL    HW290386   8.508   0.646  10.481
29497SOL     OW90387   3.581  11.998   2.526
29497SOL    HW190388   3.508  12.055   2.553
29497SOL    HW290389   3.659  12.053   2.536
29498SOL     OW90390  11.507   3.785   4.285
29498SOL    HW190391  11.538   3.701   4.251
29498SOL    HW290392  11.415   3.789   4.258
29499SOL     OW90393   9.057   0.247   5.888
29499SOL    HW190394   8.996   0.187   5.844
29499SOL    HW290395   9.138   0.241   5.837
29500SOL     OW90396  14.145   0.671   5.857
29500SOL    HW190397  14.199   0.749   5.869
29500SOL    HW290398  14.063   0.691   5.903
29501SOL     OW90399  12.815  10.098   1.370
29501SOL    HW190400  12.793  10.056   1.453
29501SOL    HW290401  12.741  10.156   1.352
29502SOL     OW90402  11.008  14.287  12.918
29502SOL    HW190403  11.081  14.239  12.879
29502SOL    HW290404  10.961  14.221  12.969
29503SOL     OW90405  12.270  10.694   0.460
29503SOL    HW190406  12.325  10.771   0.449
29503SOL    HW290407  12.252  10.665   0.370
29504SOL     OW90408   0.045  11.088  14.200
29504SOL    HW190409   0.050  11.037  14.280
29504SOL    HW290410   0.067  11.027  14.130
29505SOL     OW90411   4.395  14.636   4.418
29505SOL    HW190412   4.341  14.649   4.340
29505SOL    HW290413   4.385  14.544   4.439
29506SOL     OW90414  12.807  14.803  10.769
29506SOL    HW190415  12.781   0.006  10.752
29506SOL    HW290416  12.724  14.756  10.780
29507SOL     OW90417  12.375  12.543   1.341
29507SOL    HW190418  12.389  12.481   1.413
29507SOL    HW290419  12.437  12.516   1.274
29508SOL     OW90420  14.368   4.004  12.913
29508SOL    HW190421  14.371   4.093  12.879
29508SOL    HW290422  14.459   3.977  12.916
29509SOL     OW90423   7.887   6.766   5.706
29509SOL    HW190424   7.873   6.822   5.629
29509SOL    HW290425   7.980   6.742   5.701
29510SOL     OW90426   7.716   0.526   5.716
29510SOL    HW190427   7.786   0.571   5.763
29510SOL    HW290428   7.639   0.582   5.728
29511SOL     OW90429  11.469   5.377   9.513
29511SOL    HW190430  11.393   5.319   9.522
29511SOL    HW290431  11.472   5.398   9.419
29512SOL     OW90432  14.424   2.552   8.097
29512SOL    HW190433  14.511   2.578   8.127
29512SOL    HW290434  14.405   2.611   8.023
29513SOL     OW90435   8.592   0.199   8.586
29513SOL    HW190436   8.660   0.183   8.520
29513SOL    HW290437   8.584   0.116   8.633
29514SOL     OW90438   0.665   6.143  13.818
29514SOL    HW190439   0.659   6.122  13.911
29514SOL    HW290440   0.688   6.236  13.816
29515SOL     OW90441   9.013   0.499   5.583
29515SOL    HW190442   9.050   0.584   5.605
29515SOL    HW290443   8.929   0.519   5.542
29516SOL     OW90444   9.887   1.362   5.637
29516SOL    HW190445   9.800   1.323   5.624
29516SOL    HW290446   9.911   1.396   5.551
29517SOL     OW90447   4.455   0.570  14.275
29517SOL    HW190448   4.497   0.655  14.286
29517SOL    HW290449   4.521   0.507  14.304
29518SOL     OW90450   4.237  13.479   8.706
29518SOL    HW190451   4.208  13.563   8.669
29518SOL    HW290452   4.264  13.501   8.795
29519SOL     OW90453   6.930  13.485   8.420
29519SOL    HW190454   6.850  13.439   8.442
29519SOL    HW290455   6.915  13.520   8.332
29520SOL     OW90456   2.397  10.702  11.387
29520SOL    HW190457   2.350  10.652  11.455
29520SOL    HW290458   2.366  10.792  11.399
29521SOL     OW90459   3.479  11.494   2.401
29521SOL    HW190460   3.571  11.513   2.383
29521SOL    HW290461   3.432  11.571   2.369
29522SOL     OW90462  10.179   0.751  13.816
29522SOL    HW190463  10.109   0.811  13.789
29522SOL    HW290464  10.133   0.683  13.865
29523SOL     OW90465   0.068   6.559   1.253
29523SOL    HW190466   0.089   6.466   1.248
29523SOL    HW290467   0.096   6.595   1.168
29524SOL     OW90468   5.695  13.969  12.689
29524SOL    HW190469   5.714  13.931  12.604
29524SOL    HW290470   5.622  14.028  12.673
29525SOL     OW90471   0.854   1.241   4.337
29525SOL    HW190472   0.805   1.306   4.389
29525SOL    HW290473   0.892   1.292   4.266
29526SOL     OW90474  10.896   2.437   9.512
29526SOL    HW190475  10.817   2.399   9.552
29526SOL    HW290476  10.932   2.493   9.581
29527SOL     OW90477   0.639   4.858   4.009
29527SOL    HW190478   0.731   4.840   3.990
29527SOL    HW290479   0.641   4.933   4.068
29528SOL     OW90480  10.795   1.275  14.263
29528SOL    HW190481  10.844   1.294  14.343
29528SOL    HW290482  10.762   1.186  14.275
29529SOL     OW90483   6.083   2.910   3.485
29529SOL    HW190484   6.070   2.973   3.555
29529SOL    HW290485   6.100   2.963   3.407
29530SOL     OW90486  14.118   8.946   7.762
29530SOL    HW190487  14.050   8.982   7.819
29530SOL    HW290488  14.088   8.858   7.740
29531SOL     OW90489   3.082  13.634  10.735
29531SOL    HW190490   3.037  13.572  10.678
29531SOL    HW290491   3.040  13.623  10.820
29532SOL     OW90492   9.573   3.802  13.989
29532SOL    HW190493   9.543   3.783  13.900
29532SOL    HW290494   9.607   3.718  14.021
29533SOL     OW90495   1.706  11.536   4.512
29533SOL    HW190496   1.797  11.562   4.494
29533SOL    HW290497   1.699  11.448   4.474
29534SOL     OW90498  13.103   3.426   8.576
29534SOL    HW190499  13.154   3.503   8.552
29534SOL    HW290500  13.100   3.428   8.672
29535SOL     OW90501  13.120  10.038   2.606
29535SOL    HW190502  13.082  10.027   2.518
29535SOL    HW290503  13.209  10.003   2.598
29536SOL     OW90504  11.742   2.676   6.147
29536SOL    HW190505  11.753   2.604   6.084
29536SOL    HW290506  11.773   2.753   6.101
29537SOL     OW90507  13.473   2.433  10.789
29537SOL    HW190508  13.514   2.389  10.715
29537SOL    HW290509  13.498   2.525  10.780
29538SOL     OW90510   6.118   1.529   4.327
29538SOL    HW190511   6.174   1.599   4.361
29538SOL    HW290512   6.039   1.574   4.297
29539SOL     OW90513   3.405   0.199  14.805
29539SOL    HW190514   3.318   0.230  14.832
29539SOL    HW290515   3.402   0.199  14.710
29540SOL     OW90516   5.998   4.532   0.987
29540SOL    HW190517   6.033   4.473   1.054
29540SOL    HW290518   6.059   4.523   0.914
29541SOL     OW90519   3.441  10.715   1.062
29541SOL    HW190520   3.459  10.789   1.121
29541SOL    HW290521   3.500  10.646   1.092
29542SOL     OW90522  12.575   8.530   4.458
29542SOL    HW190523  12.593   8.522   4.365
29542SOL    HW290524  12.605   8.617   4.482
29543SOL     OW90525   6.785  12.450   6.240
29543SOL    HW190526   6.739  12.454   6.323
29543SOL    HW290527   6.878  12.443   6.264
29544SOL     OW90528   7.973  11.296   0.178
29544SOL    HW190529   7.892  11.285   0.130
29544SOL    HW290530   8.021  11.214   0.165
29545SOL     OW90531   2.358  12.443  12.812
29545SOL    HW190532   2.397  12.522  12.775
29545SOL    HW290533   2.423  12.374  12.798
29546SOL     OW90534  12.971  12.185   1.845
29546SOL    HW190535  12.988  12.092   1.834
29546SOL    HW290536  12.969  12.220   1.756
29547SOL     OW90537   0.805   4.006  10.549
29547SOL    HW190538   0.884   4.043  10.508
29547SOL    HW290539   0.759   3.964  10.477
29548SOL     OW90540   1.228   1.240   8.212
29548SOL    HW190541   1.266   1.285   8.137
29548SOL    HW290542   1.134   1.251   8.202
29549SOL     OW90543   3.743   7.204   6.046
29549SOL    HW190544   3.656   7.172   6.023
29549SOL    HW290545   3.729   7.298   6.063
29550SOL     OW90546   2.723   9.585  14.378
29550SOL    HW190547   2.711   9.656  14.315
29550SOL    HW290548   2.642   9.535  14.374
29551SOL     OW90549   3.660   2.864   3.968
29551SOL    HW190550   3.575   2.896   3.940
29551SOL    HW290551   3.652   2.769   3.964
29552SOL     OW90552  13.572  12.261   8.429
29552SOL    HW190553  13.512  12.189   8.412
29552SOL    HW290554  13.526  12.317   8.492
29553SOL     OW90555   9.972   2.258   1.258
29553SOL    HW190556   9.892   2.207   1.243
29553SOL    HW290557   9.941   2.344   1.287
29554SOL     OW90558   4.210   8.516   2.702
29554SOL    HW190559   4.236   8.424   2.693
29554SOL    HW290560   4.275   8.564   2.652
29555SOL     OW90561   2.403   3.770   8.286
29555SOL    HW190562   2.465   3.837   8.257
29555SOL    HW290563   2.320   3.817   8.294
29556SOL     OW90564   7.675  11.103  10.638
29556SOL    HW190565   7.587  11.086  10.605
29556SOL    HW290566   7.713  11.163  10.574
29557SOL     OW90567   9.075   5.992   0.916
29557SOL    HW190568   9.050   6.049   0.844
29557SOL    HW290569   9.171   5.995   0.918
29558SOL     OW90570   0.191   7.864   5.933
29558SOL    HW190571   0.281   7.832   5.928
29558SOL    HW290572   0.137   7.790   5.905
29559SOL     OW90573  10.899  13.887  10.659
29559SOL    HW190574  10.951  13.807  10.649
29559SOL    HW290575  10.950  13.942  10.719
29560SOL     OW90576  13.423   4.382  14.134
29560SOL    HW190577  13.395   4.444  14.201
29560SOL    HW290578  13.403   4.296  14.170
29561SOL     OW90579   3.663  13.589  14.405
29561SOL    HW190580   3.581  13.543  14.390
29561SOL    HW290581   3.689  13.564  14.494
29562SOL     OW90582   6.147   4.931   9.788
29562SOL    HW190583   6.196   4.988   9.847
29562SOL    HW290584   6.140   4.981   9.707
29563SOL     OW90585   8.773   4.597  12.620
29563SOL    HW190586   8.816   4.513  12.604
29563SOL    HW290587   8.766   4.603  12.716
29564SOL     OW90588   7.913   1.905   9.922
29564SOL    HW190589   7.930   1.850   9.846
29564SOL    HW290590   7.986   1.887   9.981
29565SOL     OW90591  11.124   2.432   8.766
29565SOL    HW190592  11.044   2.465   8.808
29565SOL    HW290593  11.103   2.342   8.742
29566SOL     OW90594   8.661  13.377   5.037
29566SOL    HW190595   8.607  13.310   4.994
29566SOL    HW290596   8.649  13.360   5.131
29567SOL     OW90597   5.523   8.401  10.381
29567SOL    HW190598   5.520   8.494  10.360
29567SOL    HW290599   5.615   8.377  10.369
29568SOL     OW90600   6.805   3.425   2.195
29568SOL    HW190601   6.885   3.407   2.246
29568SOL    HW290602   6.761   3.495   2.244
29569SOL     OW90603  11.136   5.639   3.967
29569SOL    HW190604  11.120   5.554   4.009
29569SOL    HW290605  11.116   5.703   4.034
29570SOL     OW90606  11.031   8.697   6.402
29570SOL    HW190607  11.071   8.779   6.371
29570SOL    HW290608  10.937   8.713   6.395
29571SOL     OW90609   9.768   5.458   6.802
29571SOL    HW190610   9.829   5.501   6.742
29571SOL    HW290611   9.787   5.365   6.792
29572SOL     OW90612   8.284   8.372   1.761
29572SOL    HW190613   8.341   8.424   1.818
29572SOL    HW290614   8.207   8.428   1.746
29573SOL     OW90615   7.158   2.652   4.149
29573SOL    HW190616   7.243   2.608   4.154
29573SOL    HW290617   7.161   2.700   4.066
29574SOL     OW90618  14.045  11.745   0.822
29574SOL    HW190619  13.984  11.673   0.842
29574SOL    HW290620  14.121  11.728   0.878
29575SOL     OW90621   3.848   8.362   2.029
29575SOL    HW190622   3.857   8.335   1.938
29575SOL    HW290623   3.898   8.297   2.078
29576SOL     OW90624   3.983   7.152  11.117
29576SOL    HW190625   4.034   7.082  11.075
29576SOL    HW290626   3.928   7.187  11.047
29577SOL     OW90627   6.532  12.770   7.585
29577SOL    HW190628   6.511  12.859   7.613
29577SOL    HW290629   6.628  12.765   7.594
29578SOL     OW90630   2.784  10.299   6.471
29578SOL    HW190631   2.805  10.206   6.464
29578SOL    HW290632   2.749  10.309   6.560
29579SOL     OW90633   6.497   1.400   1.175
29579SOL    HW190634   6.430   1.340   1.142
29579SOL    HW290635   6.482   1.405   1.269
29580SOL     OW90636   0.664   6.410   5.693
29580SOL    HW190637   0.662   6.361   5.775
29580SOL    HW290638   0.648   6.501   5.718
29581SOL     OW90639   8.324   8.406   0.943
29581SOL    HW190640   8.338   8.500   0.934
29581SOL    HW290641   8.295   8.377   0.856
29582SOL     OW90642  14.395   0.497   8.079
29582SOL    HW190643  14.394   0.590   8.103
29582SOL    HW290644  14.309   0.465   8.103
29583SOL     OW90645   8.104  14.433  11.537
29583SOL    HW190646   8.126  14.353  11.586
29583SOL    HW290647   8.083  14.402  11.449
29584SOL     OW90648  12.889   2.361   9.362
29584SOL    HW190649  12.867   2.453   9.374
29584SOL    HW290650  12.916   2.332   9.450
29585SOL     OW90651   4.724   3.391   2.084
29585SOL    HW190652   4.653   3.341   2.123
29585SOL    HW290653   4.734   3.354   1.996
29586SOL     OW90654   5.379   4.009  11.371
29586SOL    HW190655   5.285   4.021  11.353
29586SOL    HW290656   5.386   3.917  11.396
29587SOL     OW90657   3.744   3.688   0.342
29587SOL    HW190658   3.810   3.622   0.363
29587SOL    HW290659   3.665   3.658   0.387
29588SOL     OW90660   7.424   6.346   9.366
29588SOL    HW190661   7.451   6.350   9.274
29588SOL    HW290662   7.371   6.425   9.378
29589SOL     OW90663  10.639  14.380   3.102
29589SOL    HW190664  10.597  14.387   3.016
29589SOL    HW290665  10.618  14.291   3.131
29590SOL     OW90666   3.446   6.793  10.350
29590SOL    HW190667   3.420   6.847  10.424
29590SOL    HW290668   3.390   6.822  10.277
29591SOL     OW90669  12.993   4.300   4.820
29591SOL    HW190670  13.073   4.258   4.787
29591SOL    HW290671  12.990   4.274   4.912
29592SOL     OW90672   4.205  12.869   9.404
29592SOL    HW190673   4.118  12.855   9.440
29592SOL    HW290674   4.248  12.784   9.412
29593SOL     OW90675   6.580  14.395  13.811
29593SOL    HW190676   6.583  14.476  13.862
29593SOL    HW290677   6.650  14.405  13.747
29594SOL     OW90678   5.410   6.961   0.277
29594SOL    HW190679   5.390   7.035   0.334
29594SOL    HW290680   5.360   6.978   0.197
29595SOL     OW90681  13.939  12.175  10.769
29595SOL    HW190682  14.003  12.242  10.744
29595SOL    HW290683  13.980  12.092  10.745
29596SOL     OW90684   1.348   5.348   1.468
29596SOL    HW190685   1.360   5.254   1.473
29596SOL    HW290686   1.257   5.360   1.441
29597SOL     OW90687  13.196   7.679   4.972
29597SOL    HW190688  13.177   7.695   5.064
29597SOL    HW290689  13.282   7.638   4.971
29598SOL     OW90690   6.506  10.752   5.585
29598SOL    HW190691   6.587  10.704   5.601
29598SOL    HW290692   6.438  10.699   5.627
29599SOL     OW90693   9.195  14.109  10.501
29599SOL    HW190694   9.271  14.076  10.548
29599SOL    HW290695   9.231  14.146  10.420
29600SOL     OW90696  14.008  11.553  13.884
29600SOL    HW190697  13.937  11.592  13.934
29600SOL    HW290698  13.968  11.479  13.839
29601SOL     OW90699   9.697   6.468   4.646
29601SOL    HW190700   9.624   6.508   4.693
29601SOL    HW290701   9.768   6.530   4.655
29602SOL     OW90702   3.089   0.133   1.934
29602SOL    HW190703   3.166   0.081   1.913
29602SOL    HW290704   3.024   0.069   1.964
29603SOL     OW90705  11.720  11.122  10.139
29603SOL    HW190706  11.663  11.132  10.063
29603SOL    HW290707  11.795  11.072  10.107
29604SOL     OW90708  10.179  13.281  12.982
29604SOL    HW190709  10.095  13.322  12.963
29604SOL    HW290710  10.243  13.335  12.935
29605SOL     OW90711   9.865  10.774  12.082
29605SOL    HW190712   9.949  10.793  12.042
29605SOL    HW290713   9.887  10.728  12.163
29606SOL     OW90714  12.495  11.868   5.628
29606SOL    HW190715  12.470  11.956   5.658
29606SOL    HW290716  12.588  11.861   5.649
29607SOL     OW90717   5.355   7.369   4.586
29607SOL    HW190718   5.392   7.424   4.655
29607SOL    HW290719   5.422   7.367   4.518
29608SOL     OW90720  12.621   8.816  11.667
29608SOL    HW190721  12.539   8.785  11.706
29608SOL    HW290722  12.636   8.901  11.708
29609SOL     OW90723   2.150   4.862   7.477
29609SOL    HW190724   2.111   4.822   7.555
29609SOL    HW290725   2.138   4.797   7.408
29610SOL     OW90726   6.500   3.400   6.310
29610SOL    HW190727   6.465   3.487   6.328
29610SOL    HW290728   6.476   3.348   6.386
29611SOL     OW90729   7.742   4.822   4.164
29611SOL    HW190730   7.680   4.769   4.213
29611SOL    HW290731   7.693   4.854   4.088
29612SOL     OW90732   4.667  14.469   3.624
29612SOL    HW190733   4.684  14.548   3.573
29612SOL    HW290734   4.620  14.499   3.701
29613SOL     OW90735   3.207   3.667   2.341
29613SOL    HW190736   3.283   3.691   2.393
29613SOL    HW290737   3.140   3.642   2.405
29614SOL     OW90738   5.763   2.223   0.456
29614SOL    HW190739   5.836   2.282   0.435
29614SOL    HW290740   5.804   2.150   0.503
29615SOL     OW90741   9.879   3.976  11.447
29615SOL    HW190742   9.828   3.924  11.510
29615SOL    HW290743   9.929   3.910  11.397
29616SOL     OW90744  13.994   2.410   9.737
29616SOL    HW190745  14.075   2.363   9.757
29616SOL    HW290746  14.013   2.501   9.759
29617SOL     OW90747   1.256   2.885   5.937
29617SOL    HW190748   1.269   2.967   5.985
29617SOL    HW290749   1.299   2.819   5.991
29618SOL     OW90750   1.541   8.539   8.455
29618SOL    HW190751   1.586   8.526   8.371
29618SOL    HW290752   1.568   8.463   8.507
29619SOL     OW90753   6.648  14.310   0.227
29619SOL    HW190754   6.672  14.362   0.304
29619SOL    HW290755   6.711  14.238   0.226
29620SOL     OW90756  14.404   4.881  11.772
29620SOL    HW190757  14.486   4.920  11.739
29620SOL    HW290758  14.360   4.953  11.817
29621SOL     OW90759   3.910   0.713  10.799
29621SOL    HW190760   3.891   0.619  10.811
29621SOL    HW290761   3.827   0.751  10.773
29622SOL     OW90762  12.605   0.409   3.953
29622SOL    HW190763  12.512   0.389   3.958
29622SOL    HW290764  12.647   0.346   4.010
29623SOL     OW90765   0.895   6.357   8.272
29623SOL    HW190766   0.917   6.268   8.302
29623SOL    HW290767   0.844   6.343   8.192
29624SOL     OW90768  11.719  12.456   7.229
29624SOL    HW190769  11.707  12.375   7.279
29624SOL    HW290770  11.694  12.432   7.139
29625SOL     OW90771   4.639   8.335   2.511
29625SOL    HW190772   4.565   8.277   2.494
29625SOL    HW290773   4.604   8.423   2.494
29626SOL     OW90774   9.719  10.446   7.376
29626SOL    HW190775   9.812  10.428   7.390
29626SOL    HW290776   9.700  10.518   7.437
29627SOL     OW90777   8.032   4.601   5.428
29627SOL    HW190778   7.964   4.668   5.432
29627SOL    HW290779   7.997   4.528   5.478
29628SOL     OW90780   4.971   8.340   6.318
29628SOL    HW190781   4.904   8.341   6.250
29628SOL    HW290782   5.008   8.252   6.313
29629SOL     OW90783  10.226   4.676   0.242
29629SOL    HW190784  10.177   4.607   0.198
29629SOL    HW290785  10.186   4.682   0.328
29630SOL     OW90786  12.846   6.145   6.134
29630SOL    HW190787  12.919   6.204   6.154
29630SOL    HW290788  12.786   6.197   6.081
29631SOL     OW90789   5.471   4.920   3.382
29631SOL    HW190790   5.518   4.895   3.461
29631SOL    HW290791   5.453   5.013   3.393
29632SOL     OW90792  11.970   6.720  11.541
29632SOL    HW190793  12.038   6.770  11.495
29632SOL    HW290794  11.961   6.763  11.626
29633SOL     OW90795  14.626   1.212   1.041
29633SOL    HW190796  14.558   1.280   1.044
29633SOL    HW290797  14.678   1.227   1.120
29634SOL     OW90798   8.746   0.752   4.411
29634SOL    HW190799   8.712   0.670   4.375
29634SOL    HW290800   8.796   0.791   4.340
29635SOL     OW90801   7.162   4.377   7.458
29635SOL    HW190802   7.164   4.318   7.533
29635SOL    HW290803   7.241   4.431   7.468
29636SOL     OW90804   0.346   2.925  14.059
29636SOL    HW190805   0.352   2.921  13.964
29636SOL    HW290806   0.302   2.843  14.083
29637SOL     OW90807   0.517   1.775   9.441
29637SOL    HW190808   0.611   1.787   9.437
29637SOL    HW290809   0.482   1.831   9.372
29638SOL     OW90810   2.285   2.677  13.767
29638SOL    HW190811   2.203   2.629  13.778
29638SOL    HW290812   2.259   2.764  13.737
29639SOL     OW90813  12.678  10.423   3.308
29639SOL    HW190814  12.766  10.459   3.303
29639SOL    HW290815  12.679  10.369   3.387
29640SOL     OW90816  12.499   8.139   6.867
29640SOL    HW190817  12.583   8.182   6.854
29640SOL    HW290818  12.468   8.121   6.778
29641SOL     OW90819  11.238   5.817   6.526
29641SOL    HW190820  11.312   5.827   6.585
29641SOL    HW290821  11.170   5.875   6.561
29642SOL     OW90822   8.331   4.412  11.380
29642SOL    HW190823   8.341   4.447  11.469
29642SOL    HW290824   8.392   4.339  11.376
29643SOL     OW90825  14.269  11.717  13.441
29643SOL    HW190826  14.269  11.656  13.514
29643SOL    HW290827  14.301  11.666  13.366
29644SOL     OW90828   4.448  10.553   7.252
29644SOL    HW190829   4.439  10.564   7.157
29644SOL    HW290830   4.533  10.591   7.272
29645SOL     OW90831  12.958   5.010   7.575
29645SOL    HW190832  12.873   5.021   7.618
29645SOL    HW290833  13.010   4.959   7.638
29646SOL     OW90834   2.145   8.557   3.160
29646SOL    HW190835   2.145   8.599   3.074
29646SOL    HW290836   2.054   8.566   3.191
29647SOL     OW90837   9.849  14.097   9.146
29647SOL    HW190838   9.855  14.177   9.198
29647SOL    HW290839   9.936  14.089   9.105
29648SOL     OW90840  14.008   0.910  11.715
29648SOL    HW190841  13.986   0.875  11.801
29648SOL    HW290842  13.979   0.843  11.653
29649SOL     OW90843   3.296  10.807   7.307
29649SOL    HW190844   3.262  10.897   7.310
29649SOL    HW290845   3.365  10.805   7.373
29650SOL     OW90846   3.204   6.171   5.834
29650SOL    HW190847   3.174   6.181   5.744
29650SOL    HW290848   3.176   6.083   5.859
29651SOL     OW90849   1.624   1.302   5.140
29651SOL    HW190850   1.543   1.261   5.108
29651SOL    HW290851   1.621   1.289   5.235
29652SOL     OW90852  11.925   6.807  12.733
29652SOL    HW190853  11.860   6.771  12.672
29652SOL    HW290854  11.925   6.747  12.807
29653SOL     OW90855  14.475   0.568  11.819
29653SOL    HW190856  14.402   0.597  11.875
29653SOL    HW290857  14.503   0.648  11.774
29654SOL     OW90858   0.441   5.913  12.361
29654SOL    HW190859   0.392   5.831  12.350
29654SOL    HW290860   0.397   5.975  12.303
29655SOL     OW90861   6.747  14.739   3.027
29655SOL    HW190862   6.707  14.824   3.047
29655SOL    HW290863   6.793  14.754   2.944
29656SOL     OW90864   3.239  11.285   4.553
29656SOL    HW190865   3.296  11.293   4.477
29656SOL    HW290866   3.201  11.373   4.563
29657SOL     OW90867   9.222   7.660  13.234
29657SOL    HW190868   9.151   7.660  13.298
29657SOL    HW290869   9.255   7.750  13.234
29658SOL     OW90870  12.075   6.970   3.902
29658SOL    HW190871  12.129   7.045   3.926
29658SOL    HW290872  12.094   6.955   3.810
29659SOL     OW90873   1.767   5.724  11.025
29659SOL    HW190874   1.712   5.697  11.098
29659SOL    HW290875   1.782   5.818  11.040
29660SOL     OW90876  12.622   9.458   6.380
29660SOL    HW190877  12.700   9.413   6.411
29660SOL    HW290878  12.625   9.448   6.285
29661SOL     OW90879   4.885   6.046   4.158
29661SOL    HW190880   4.945   6.113   4.124
29661SOL    HW290881   4.840   6.088   4.231
29662SOL     OW90882  13.773  14.492   7.764
29662SOL    HW190883  13.790  14.489   7.858
29662SOL    HW290884  13.683  14.459   7.755
29663SOL     OW90885   1.786   6.679   3.533
29663SOL    HW190886   1.746   6.687   3.619
29663SOL    HW290887   1.878   6.702   3.546
29664SOL     OW90888   6.683   8.765   8.282
29664SOL    HW190889   6.635   8.700   8.332
29664SOL    HW290890   6.681   8.732   8.192
29665SOL     OW90891   8.213   3.265   1.281
29665SOL    HW190892   8.133   3.279   1.231
29665SOL    HW290893   8.215   3.336   1.345
29666SOL     OW90894   6.036  10.773   6.654
29666SOL    HW190895   5.950  10.812   6.643
29666SOL    HW290896   6.019  10.679   6.663
29667SOL     OW90897  12.886   3.912   3.553
29667SOL    HW190898  12.917   3.898   3.642
29667SOL    HW290899  12.957   3.881   3.497
29668SOL     OW90900  12.178   3.042   4.349
29668SOL    HW190901  12.127   3.121   4.331
29668SOL    HW290902  12.233   3.065   4.423
29669SOL     OW90903   7.181   4.460   5.346
29669SOL    HW190904   7.129   4.380   5.346
29669SOL    HW290905   7.215   4.468   5.257
29670SOL     OW90906   0.287   5.066   2.964
29670SOL    HW190907   0.342   5.111   2.901
29670SOL    HW290908   0.307   4.973   2.952
29671SOL     OW90909   9.684   9.915   3.568
29671SOL    HW190910   9.591   9.896   3.582
29671SOL    HW290911   9.712   9.852   3.502
29672SOL     OW90912  14.847  14.741  12.202
29672SOL    HW190913   0.039  14.716  12.155
29672SOL    HW290914  14.775  14.716  12.144
29673SOL     OW90915  12.805   6.540  12.743
29673SOL    HW190916  12.807   6.467  12.682
29673SOL    HW290917  12.717   6.575  12.737
29674SOL     OW90918   6.128   5.825   7.518
29674SOL    HW190919   6.051   5.801   7.569
29674SOL    HW290920   6.191   5.858   7.582
29675SOL     OW90921   1.075  12.608  14.537
29675SOL    HW190922   1.008  12.627  14.603
29675SOL    HW290923   1.146  12.566  14.586
29676SOL     OW90924  11.517   6.015   7.560
29676SOL    HW190925  11.588   6.011   7.495
29676SOL    HW290926  11.475   6.099   7.543
29677SOL     OW90927   4.164  12.732   5.257
29677SOL    HW190928   4.171  12.819   5.219
29677SOL    HW290929   4.253  12.710   5.286
29678SOL     OW90930   5.287  14.557   1.375
29678SOL    HW190931   5.367  14.600   1.345
29678SOL    HW290932   5.263  14.604   1.455
29679SOL     OW90933   1.807   4.151   7.295
29679SOL    HW190934   1.833   4.192   7.212
29679SOL    HW290935   1.821   4.058   7.282
29680SOL     OW90936   4.084   6.625  14.192
29680SOL    HW190937   4.025   6.550  14.198
29680SOL    HW290938   4.170   6.587  14.174
29681SOL     OW90939   7.026   6.921   5.872
29681SOL    HW190940   7.037   7.003   5.921
29681SOL    HW290941   7.116   6.891   5.857
29682SOL     OW90942  14.166  12.406  13.225
29682SOL    HW190943  14.155  12.485  13.174
29682SOL    HW290944  14.095  12.348  13.196
29683SOL     OW90945   0.298  11.557  12.111
29683SOL    HW190946   0.360  11.553  12.183
29683SOL    HW290947   0.256  11.642  12.121
29684SOL     OW90948  13.561   8.931  13.454
29684SOL    HW190949  13.556   8.842  13.418
29684SOL    HW290950  13.557   8.919  13.549
29685SOL     OW90951   3.153   5.183  13.494
29685SOL    HW190952   3.060   5.186  13.474
29685SOL    HW290953   3.193   5.245  13.433
29686SOL     OW90954   0.227  13.830  14.454
29686SOL    HW190955   0.195  13.743  14.429
29686SOL    HW290956   0.322  13.820  14.459
29687SOL     OW90957   2.839  13.151   1.369
29687SOL    HW190958   2.861  13.243   1.387
29687SOL    HW290959   2.921  13.113   1.338
29688SOL     OW90960  10.111   5.331  13.204
29688SOL    HW190961  10.119   5.269  13.276
29688SOL    HW290962  10.040   5.390  13.231
29689SOL     OW90963   0.349   7.188   0.832
29689SOL    HW190964   0.431   7.149   0.864
29689SOL    HW290965   0.286   7.116   0.835
29690SOL     OW90966  11.112   6.634   3.054
29690SOL    HW190967  11.180   6.662   3.115
29690SOL    HW290968  11.114   6.539   3.057
29691SOL     OW90969  12.284   1.799   4.623
29691SOL    HW190970  12.192   1.827   4.620
29691SOL    HW290971  12.323   1.833   4.543
29692SOL     OW90972  10.710   3.215   7.450
29692SOL    HW190973  10.696   3.240   7.541
29692SOL    HW290974  10.668   3.130   7.441
29693SOL     OW90975  13.903   7.879  12.168
29693SOL    HW190976  13.969   7.898  12.101
29693SOL    HW290977  13.833   7.834  12.120
29694SOL     OW90978   9.124   1.471   2.958
29694SOL    HW190979   9.076   1.533   2.903
29694SOL    HW290980   9.070   1.391   2.957
29695SOL     OW90981   3.902   5.334   8.688
29695SOL    HW190982   3.920   5.413   8.636
29695SOL    HW290983   3.905   5.364   8.779
29696SOL     OW90984  12.109  14.652   8.727
29696SOL    HW190985  12.032  14.708   8.735
29696SOL    HW290986  12.177  14.699   8.775
29697SOL     OW90987   3.822   3.812  12.377
29697SOL    HW190988   3.897   3.863  12.350
29697SOL    HW290989   3.828   3.731  12.327
29698SOL     OW90990  12.123   0.469   0.219
29698SOL    HW190991  12.117   0.563   0.197
29698SOL    HW290992  12.205   0.441   0.178
29699SOL     OW90993   4.862  11.096   4.606
29699SOL    HW190994   4.777  11.106   4.648
29699SOL    HW290995   4.894  11.011   4.636
29700SOL     OW90996  13.902  13.147   5.824
29700SOL    HW190997  13.991  13.175   5.845
29700SOL    HW290998  13.914  13.077   5.760
29701SOL     OW90999   8.178   2.882   7.697
29701SOL    HW191000   8.228   2.914   7.772
29701SOL    HW291001   8.219   2.799   7.674
29702SOL     OW91002  12.445   6.379   0.263
29702SOL    HW191003  12.497   6.360   0.185
29702SOL    HW291004  12.469   6.310   0.325
29703SOL     OW91005   2.044  14.577  10.775
29703SOL    HW191006   2.081  14.656  10.736
29703SOL    HW291007   2.113  14.511  10.764
29704SOL     OW91008   1.939   9.041  11.634
29704SOL    HW191009   1.974   9.119  11.676
29704SOL    HW291010   1.886   8.999  11.702
29705SOL     OW91011   0.017   5.392   6.116
29705SOL    HW191012  14.882   5.464   6.174
29705SOL    HW291013   0.082   5.429   6.056
29706SOL     OW91014  13.527   8.041  10.362
29706SOL    HW191015  13.468   7.998  10.300
29706SOL    HW291016  13.613   8.035  10.322
29707SOL     OW91017   5.699   4.228   9.402
29707SOL    HW191018   5.714   4.320   9.424
29707SOL    HW291019   5.745   4.179   9.470
29708SOL     OW91020   2.520  13.240  10.137
29708SOL    HW191021   2.493  13.197  10.056
29708SOL    HW291022   2.614  13.256  10.126
29709SOL     OW91023   0.415   9.936   7.806
29709SOL    HW191024   0.396   9.916   7.714
29709SOL    HW291025   0.508   9.915   7.816
29710SOL     OW91026  13.743   1.093   3.033
29710SOL    HW191027  13.821   1.141   3.062
29710SOL    HW291028  13.726   1.030   3.102
29711SOL     OW91029  13.198   1.060   7.809
29711SOL    HW191030  13.141   1.135   7.824
29711SOL    HW291031  13.139   0.989   7.786
29712SOL     OW91032  11.188   9.453   4.841
29712SOL    HW191033  11.265   9.503   4.868
29712SOL    HW291034  11.132   9.517   4.799
29713SOL     OW91035  12.296  14.017   6.110
29713SOL    HW191036  12.281  14.010   6.016
29713SOL    HW291037  12.392  14.018   6.119
29714SOL     OW91038   9.092  11.746  12.146
29714SOL    HW191039   9.122  11.750  12.055
29714SOL    HW291040   9.006  11.704  12.141
29715SOL     OW91041   9.734   0.995  12.926
29715SOL    HW191042   9.707   0.918  12.976
29715SOL    HW291043   9.830   0.991  12.925
29716SOL     OW91044  13.820   6.641  12.861
29716SOL    HW191045  13.900   6.690  12.841
29716SOL    HW291046  13.749   6.705  12.848
29717SOL     OW91047  11.464   0.446   9.554
29717SOL    HW191048  11.415   0.370   9.587
29717SOL    HW291049  11.465   0.434   9.459
29718SOL     OW91050  11.983   6.553   0.973
29718SOL    HW191051  12.028   6.636   0.987
29718SOL    HW291052  12.053   6.488   0.966
29719SOL     OW91053   3.185   3.088  10.127
29719SOL    HW191054   3.142   3.147  10.065
29719SOL    HW291055   3.242   3.145  10.178
29720SOL     OW91056  10.808   9.000  11.582
29720SOL    HW191057  10.815   9.086  11.539
29720SOL    HW291058  10.785   9.021  11.673
29721SOL     OW91059   5.496  12.379  10.115
29721SOL    HW191060   5.508  12.468  10.148
29721SOL    HW291061   5.581  12.355  10.079
29722SOL     OW91062   3.072  10.757   6.058
29722SOL    HW191063   3.155  10.742   6.104
29722SOL    HW291064   3.075  10.700   5.982
29723SOL     OW91065   7.940  13.669  10.499
29723SOL    HW191066   8.001  13.614  10.548
29723SOL    HW291067   7.995  13.711  10.432
29724SOL     OW91068  12.637   4.380   7.759
29724SOL    HW191069  12.568   4.436   7.725
29724SOL    HW291070  12.672   4.335   7.682
29725SOL     OW91071   5.391   4.230   7.902
29725SOL    HW191072   5.303   4.266   7.910
29725SOL    HW291073   5.410   4.233   7.808
29726SOL     OW91074   0.209  12.419   0.159
29726SOL    HW191075   0.120  12.406   0.192
29726SOL    HW291076   0.217  12.513   0.147
29727SOL     OW91077  13.072   4.418   0.428
29727SOL    HW191078  13.001   4.476   0.457
29727SOL    HW291079  13.092   4.447   0.339
29728SOL     OW91080   4.171  10.105   3.907
29728SOL    HW191081   4.248  10.050   3.892
29728SOL    HW291082   4.159  10.152   3.824
29729SOL     OW91083   4.332   4.354   7.306
29729SOL    HW191084   4.273   4.429   7.308
29729SOL    HW291085   4.412   4.384   7.349
29730SOL     OW91086   2.036   7.517   1.184
29730SOL    HW191087   2.043   7.429   1.145
29730SOL    HW291088   2.126   7.538   1.210
29731SOL     OW91089   9.839   1.948   1.656
29731SOL    HW191090   9.899   1.928   1.728
29731SOL    HW291091   9.765   1.888   1.669
29732SOL     OW91092  11.884  11.028  14.798
29732SOL    HW191093  11.807  10.993  14.753
29732SOL    HW291094  11.933  11.073  14.729
29733SOL     OW91095   8.575   1.414   8.241
29733SOL    HW191096   8.608   1.339   8.192
29733SOL    HW291097   8.546   1.475   8.173
29734SOL     OW91098   8.047   0.725   0.956
29734SOL    HW191099   8.049   0.778   0.876
29734SOL    HW291100   7.975   0.762   1.007
29735SOL     OW91101  12.340   3.838  13.643
29735SOL    HW191102  12.287   3.850  13.722
29735SOL    HW291103  12.317   3.750  13.612
29736SOL     OW91104   9.834   3.103   3.820
29736SOL    HW191105   9.875   3.018   3.840
29736SOL    HW291106   9.894   3.168   3.855
29737SOL     OW91107  10.239   4.241   2.409
29737SOL    HW191108  10.201   4.253   2.496
29737SOL    HW291109  10.319   4.190   2.424
29738SOL     OW91110  14.834   9.469   1.428
29738SOL    HW191111   0.024   9.445   1.480
29738SOL    HW291112  14.837   9.564   1.424
29739SOL     OW91113  10.573   7.945  10.451
29739SOL    HW191114  10.567   7.854  10.421
29739SOL    HW291115  10.554   7.941  10.544
29740SOL     OW91116   4.913   6.959  10.428
29740SOL    HW191117   4.852   6.885  10.426
29740SOL    HW291118   4.860   7.034  10.453
29741SOL     OW91119  14.457   2.702  10.247
29741SOL    HW191120  14.392   2.767  10.271
29741SOL    HW291121  14.512   2.693  10.326
29742SOL     OW91122   8.958   8.027   1.136
29742SOL    HW191123   8.916   8.027   1.050
29742SOL    HW291124   9.049   8.000   1.118
29743SOL     OW91125   0.235   2.413  10.929
29743SOL    HW191126   0.319   2.422  10.973
29743SOL    HW291127   0.197   2.501  10.932
29744SOL     OW91128   1.605  10.093  13.560
29744SOL    HW191129   1.529  10.142  13.529
29744SOL    HW291130   1.662  10.086  13.483
29745SOL     OW91131  14.414   6.256   4.495
29745SOL    HW191132  14.487   6.261   4.432
29745SOL    HW291133  14.339   6.290   4.446
29746SOL     OW91134  13.695  12.815  13.068
29746SOL    HW191135  13.745  12.873  13.126
29746SOL    HW291136  13.699  12.729  13.111
29747SOL     OW91137   6.995  13.390  10.223
29747SOL    HW191138   7.011  13.307  10.266
29747SOL    HW291139   6.908  13.417  10.253
29748SOL     OW91140   7.590   1.774   0.875
29748SOL    HW191141   7.653   1.783   0.804
29748SOL    HW291142   7.523   1.840   0.857
29749SOL     OW91143  14.068  12.685   6.226
29749SOL    HW191144  14.090  12.632   6.150
29749SOL    HW291145  14.065  12.623   6.299
29750SOL     OW91146   7.801  12.351   0.187
29750SOL    HW191147   7.843  12.407   0.253
29750SOL    HW291148   7.827  12.262   0.210
29751SOL     OW91149  12.250   2.711  11.948
29751SOL    HW191150  12.243   2.717  11.853
29751SOL    HW291151  12.256   2.802  11.978
29752SOL     OW91152   9.388   0.357   7.720
29752SOL    HW191153   9.482   0.368   7.708
29752SOL    HW291154   9.362   0.296   7.651
29753SOL     OW91155   4.433   8.904  10.492
29753SOL    HW191156   4.427   8.946  10.578
29753SOL    HW291157   4.342   8.895  10.463
29754SOL     OW91158  14.162   4.399   0.193
29754SOL    HW191159  14.139   4.427   0.104
29754SOL    HW291160  14.258   4.401   0.194
29755SOL     OW91161   9.015  10.864   7.814
29755SOL    HW191162   9.015  10.807   7.891
29755SOL    HW291163   9.041  10.950   7.847
29756SOL     OW91164   6.124   2.606   7.733
29756SOL    HW191165   6.125   2.540   7.664
29756SOL    HW291166   6.037   2.600   7.772
29757SOL     OW91167   1.262  12.520  11.601
29757SOL    HW191168   1.351  12.510  11.565
29757SOL    HW291169   1.256  12.613  11.623
29758SOL     OW91170   7.797  14.546   8.685
29758SOL    HW191171   7.880  14.583   8.657
29758SOL    HW291172   7.736  14.620   8.684
29759SOL     OW91173   8.948  12.487  14.449
29759SOL    HW191174   9.022  12.538  14.481
29759SOL    HW291175   8.879  12.503  14.513
29760SOL     OW91176  14.747   6.599  14.736
29760SOL    HW191177  14.804   6.554  14.799
29760SOL    HW291178  14.746   6.690  14.765
29761SOL     OW91179  10.595  12.128   4.129
29761SOL    HW191180  10.595  12.036   4.155
29761SOL    HW291181  10.527  12.133   4.062
29762SOL     OW91182  12.876   8.781   8.356
29762SOL    HW191183  12.970   8.769   8.374
29762SOL    HW291184  12.868   8.761   8.262
29763SOL     OW91185   4.032   7.464  13.909
29763SOL    HW191186   4.013   7.548  13.952
29763SOL    HW291187   4.020   7.399  13.978
29764SOL     OW91188   5.736  12.212   5.444
29764SOL    HW191189   5.747  12.288   5.386
29764SOL    HW291190   5.823  12.195   5.479
29765SOL     OW91191  13.668   1.394   8.009
29765SOL    HW191192  13.699   1.304   8.002
29765SOL    HW291193  13.603   1.392   8.080
29766SOL     OW91194  11.016   0.057   0.827
29766SOL    HW191195  11.107   0.029   0.837
29766SOL    HW291196  10.978   0.046   0.915
29767SOL     OW91197   1.477   1.369   0.195
29767SOL    HW191198   1.547   1.417   0.239
29767SOL    HW291199   1.493   1.277   0.218
29768SOL     OW91200  11.481   6.836   8.319
29768SOL    HW191201  11.465   6.804   8.230
29768SOL    HW291202  11.438   6.771   8.375
29769SOL     OW91203  11.505  14.388   2.831
29769SOL    HW191204  11.459  14.315   2.873
29769SOL    HW291205  11.543  14.350   2.752
29770SOL     OW91206   2.635   3.276  10.884
29770SOL    HW191207   2.598   3.352  10.839
29770SOL    HW291208   2.729   3.279  10.863
29771SOL     OW91209  11.439   7.249  10.110
29771SOL    HW191210  11.375   7.270  10.042
29771SOL    HW291211  11.428   7.156  10.127
29772SOL     OW91212  11.473   1.376   8.757
29772SOL    HW191213  11.480   1.316   8.683
29772SOL    HW291214  11.456   1.319   8.832
29773SOL     OW91215   7.746   5.292   7.331
29773SOL    HW191216   7.741   5.331   7.243
29773SOL    HW291217   7.657   5.263   7.350
29774SOL     OW91218  13.999   9.479  12.494
29774SOL    HW191219  13.983   9.520  12.579
29774SOL    HW291220  14.054   9.403  12.513
29775SOL     OW91221  12.563   2.298   9.424
29775SOL    HW191222  12.507   2.318   9.349
29775SOL    HW291223  12.632   2.241   9.388
29776SOL     OW91224   2.403   5.865   7.669
29776SOL    HW191225   2.347   5.809   7.723
29776SOL    HW291226   2.457   5.913   7.731
29777SOL     OW91227   4.352   5.352  14.766
29777SOL    HW191228   4.324   5.322  14.680
29777SOL    HW291229   4.404   5.280  14.800
29778SOL     OW91230   7.991  12.509   5.055
29778SOL    HW191231   8.079  12.542   5.073
29778SOL    HW291232   8.005  12.440   4.989
29779SOL     OW91233   4.307  13.100   9.492
29779SOL    HW191234   4.372  13.072   9.556
29779SOL    HW291235   4.295  13.024   9.435
29780SOL     OW91236  14.087   9.173  14.437
29780SOL    HW191237  14.042   9.091  14.456
29780SOL    HW291238  14.100   9.172  14.342
29781SOL     OW91239  14.079  12.652   4.483
29781SOL    HW191240  14.003  12.682   4.533
29781SOL    HW291241  14.045  12.582   4.427
29782SOL     OW91242   9.008   7.323   2.584
29782SOL    HW191243   8.952   7.374   2.525
29782SOL    HW291244   9.082   7.296   2.530
29783SOL     OW91245   7.047   7.844   8.007
29783SOL    HW191246   7.051   7.879   8.096
29783SOL    HW291247   6.956   7.857   7.979
29784SOL     OW91248  13.333  13.566   3.935
29784SOL    HW191249  13.336  13.650   3.888
29784SOL    HW291250  13.352  13.588   4.026
29785SOL     OW91251   8.912  11.359   7.502
29785SOL    HW191252   8.867  11.443   7.510
29785SOL    HW291253   8.972  11.370   7.428
29786SOL     OW91254   3.468  13.835   9.211
29786SOL    HW191255   3.414  13.846   9.133
29786SOL    HW291256   3.471  13.923   9.251
29787SOL     OW91257  12.287  10.770   1.326
29787SOL    HW191258  12.314  10.693   1.276
29787SOL    HW291259  12.263  10.834   1.258
29788SOL     OW91260   5.073   1.804   6.501
29788SOL    HW191261   5.032   1.750   6.433
29788SOL    HW291262   5.007   1.869   6.523
29789SOL     OW91263   4.201   1.522   9.035
29789SOL    HW191264   4.222   1.477   9.117
29789SOL    HW291265   4.282   1.567   9.011
29790SOL     OW91266   8.853  13.185  14.815
29790SOL    HW191267   8.823  13.261  14.766
29790SOL    HW291268   8.948  13.185  14.804
29791SOL     OW91269  11.101  11.628   1.004
29791SOL    HW191270  11.163  11.561   0.975
29791SOL    HW291271  11.095  11.616   1.098
29792SOL     OW91272  11.565   0.230   8.664
29792SOL    HW191273  11.633   0.261   8.604
29792SOL    HW291274  11.485   0.274   8.634
29793SOL     OW91275  14.734   7.055  14.312
29793SOL    HW191276  14.740   6.961  14.331
29793SOL    HW291277  14.802   7.070  14.246
29794SOL     OW91278   7.705   0.773   8.068
29794SOL    HW191279   7.774   0.741   8.010
29794SOL    HW291280   7.680   0.858   8.031
29795SOL     OW91281  13.312   3.496  12.383
29795SOL    HW191282  13.245   3.532  12.325
29795SOL    HW291283  13.394   3.531  12.350
29796SOL     OW91284   9.171  13.348   8.523
29796SOL    HW191285   9.200  13.261   8.497
29796SOL    HW291286   9.191  13.354   8.617
29797SOL     OW91287   7.489   6.033  13.958
29797SOL    HW191288   7.546   5.975  14.009
29797SOL    HW291289   7.401   5.997  13.972
29798SOL     OW91290  10.420   9.304   8.981
29798SOL    HW191291  10.458   9.391   8.989
29798SOL    HW291292  10.422   9.269   9.070
29799SOL     OW91293   8.243  14.560   7.135
29799SOL    HW191294   8.304  14.556   7.208
29799SOL    HW291295   8.198  14.475   7.136
29800SOL     OW91296   0.614  11.713  14.777
29800SOL    HW191297   0.620  11.733  14.871
29800SOL    HW291298   0.704  11.718  14.745
29801SOL     OW91299   8.919   4.095   1.349
29801SOL    HW191300   8.859   4.166   1.374
29801SOL    HW291301   8.878   4.055   1.273
29802SOL     OW91302   4.833   6.598   2.973
29802SOL    HW191303   4.824   6.503   2.975
29802SOL    HW291304   4.919   6.614   2.936
29803SOL     OW91305   5.230   1.530   2.859
29803SOL    HW191306   5.180   1.558   2.783
29803SOL    HW291307   5.320   1.521   2.828
29804SOL     OW91308  10.348   2.677   5.923
29804SOL    HW191309  10.265   2.632   5.940
29804SOL    HW291310  10.344   2.701   5.831
29805SOL     OW91311   4.680   6.747   1.069
29805SOL    HW191312   4.596   6.710   1.097
29805SOL    HW291313   4.721   6.677   1.018
29806SOL     OW91314   1.707   0.479   1.606
29806SOL    HW191315   1.802   0.491   1.615
29806SOL    HW291316   1.680   0.435   1.686
29807SOL     OW91317   0.315   9.927   2.974
29807SOL    HW191318   0.325   9.833   2.988
29807SOL    HW291319   0.312   9.965   3.062
29808SOL     OW91320   4.619   4.967  10.229
29808SOL    HW191321   4.634   4.964  10.134
29808SOL    HW291322   4.594   5.057  10.246
29809SOL     OW91323   8.924   1.208   9.134
29809SOL    HW191324   8.855   1.266   9.103
29809SOL    HW291325   8.887   1.120   9.127
29810SOL     OW91326   5.929   8.523   6.863
29810SOL    HW191327   6.008   8.491   6.820
29810SOL    HW291328   5.924   8.472   6.944
29811SOL     OW91329  12.445  10.295   2.935
29811SOL    HW191330  12.475  10.286   3.025
29811SOL    HW291331  12.482  10.219   2.890
29812SOL     OW91332   8.307   4.396   2.419
29812SOL    HW191333   8.339   4.396   2.509
29812SOL    HW291334   8.368   4.452   2.372
29813SOL     OW91335   6.879  13.478   1.439
29813SOL    HW191336   6.927  13.411   1.489
29813SOL    HW291337   6.872  13.552   1.498
29814SOL     OW91338  13.376   7.288   4.465
29814SOL    HW191339  13.330   7.213   4.427
29814SOL    HW291340  13.452   7.301   4.407
29815SOL     OW91341   6.048   4.706  11.912
29815SOL    HW191342   5.961   4.704  11.952
29815SOL    HW291343   6.074   4.798  11.915
29816SOL     OW91344  11.993  11.186   1.048
29816SOL    HW191345  11.961  11.196   1.138
29816SOL    HW291346  11.920  11.148   1.000
29817SOL     OW91347   1.751   8.523   9.295
29817SOL    HW191348   1.700   8.452   9.258
29817SOL    HW291349   1.709   8.542   9.379
29818SOL     OW91350   4.699   1.869   4.171
29818SOL    HW191351   4.781   1.912   4.147
29818SOL    HW291352   4.641   1.941   4.199
29819SOL     OW91353  14.225  13.609  10.652
29819SOL    HW191354  14.309  13.582  10.688
29819SOL    HW291355  14.184  13.659  10.722
29820SOL     OW91356   0.820  13.736   2.996
29820SOL    HW191357   0.806  13.760   2.905
29820SOL    HW291358   0.914  13.746   3.010
29821SOL     OW91359   2.211   0.395   1.479
29821SOL    HW191360   2.239   0.313   1.438
29821SOL    HW291361   2.228   0.382   1.572
29822SOL     OW91362   3.705  11.247  12.376
29822SOL    HW191363   3.677  11.338  12.368
29822SOL    HW291364   3.628  11.201  12.410
29823SOL     OW91365   6.204  13.932   1.777
29823SOL    HW191366   6.168  13.984   1.705
29823SOL    HW291367   6.211  13.994   1.849
29824SOL     OW91368   8.831   3.410   1.300
29824SOL    HW191369   8.788   3.331   1.333
29824SOL    HW291370   8.871   3.450   1.378
29825SOL     OW91371   8.476   1.474   5.518
29825SOL    HW191372   8.479   1.417   5.441
29825SOL    HW291373   8.544   1.539   5.502
29826SOL     OW91374  14.401   5.407   4.917
29826SOL    HW191375  14.375   5.355   4.993
29826SOL    HW291376  14.337   5.478   4.914
29827SOL     OW91377  10.212  13.939  12.060
29827SOL    HW191378  10.290  13.909  12.106
29827SOL    HW291379  10.211  13.889  11.978
29828SOL     OW91380   6.899   4.131   0.232
29828SOL    HW191381   6.944   4.138   0.148
29828SOL    HW291382   6.953   4.069   0.282
29829SOL     OW91383   9.404   6.326   6.930
29829SOL    HW191384   9.466   6.266   6.973
29829SOL    HW291385   9.456   6.405   6.912
29830SOL     OW91386  12.023   9.195  11.336
29830SOL    HW191387  12.036   9.243  11.254
29830SOL    HW291388  12.107   9.202  11.381
29831SOL     OW91389   4.450   3.660   5.460
29831SOL    HW191390   4.412   3.747   5.448
29831SOL    HW291391   4.532   3.676   5.507
29832SOL     OW91392   2.459   1.829   0.966
29832SOL    HW191393   2.390   1.895   0.959
29832SOL    HW291394   2.412   1.746   0.972
29833SOL     OW91395   5.995   5.340   1.917
29833SOL    HW191396   5.963   5.398   1.987
29833SOL    HW291397   5.947   5.368   1.839
29834SOL     OW91398   2.634   7.560   9.558
29834SOL    HW191399   2.587   7.602   9.486
29834SOL    HW291400   2.584   7.584   9.636
29835SOL     OW91401   9.889  13.727   1.749
29835SOL    HW191402   9.924  13.816   1.755
29835SOL    HW291403   9.861  13.707   1.838
29836SOL     OW91404  10.933  13.272   0.099
29836SOL    HW191405  10.945  13.328   0.022
29836SOL    HW291406  10.854  13.222   0.079
29837SOL     OW91407   1.051   3.038   4.405
29837SOL    HW191408   1.138   3.017   4.441
29837SOL    HW291409   1.028   2.961   4.353
29838SOL     OW91410  14.039   9.202   5.841
29838SOL    HW191411  13.990   9.126   5.873
29838SOL    HW291412  14.025   9.202   5.746
29839SOL     OW91413   9.166   3.192   1.092
29839SOL    HW191414   9.161   3.250   1.016
29839SOL    HW291415   9.194   3.108   1.055
29840SOL     OW91416   9.181   6.676   8.937
29840SOL    HW191417   9.125   6.601   8.915
29840SOL    HW291418   9.256   6.637   8.982
29841SOL     OW91419   9.320  10.785  14.016
29841SOL    HW191420   9.307  10.848  13.945
29841SOL    HW291421   9.375  10.716  13.978
29842SOL     OW91422  12.055  12.776   5.703
29842SOL    HW191423  11.995  12.834   5.655
29842SOL    HW291424  12.123  12.834   5.737
29843SOL     OW91425   9.123   5.427   2.027
29843SOL    HW191426   9.184   5.434   1.954
29843SOL    HW291427   9.122   5.514   2.066
29844SOL     OW91428   8.958   6.535   8.015
29844SOL    HW191429   9.046   6.566   7.993
29844SOL    HW291430   8.940   6.465   7.953
29845SOL     OW91431   0.105  10.760   3.524
29845SOL    HW191432   0.197  10.770   3.499
29845SOL    HW291433   0.096  10.666   3.541
29846SOL     OW91434  11.818  14.580   5.403
29846SOL    HW191435  11.728  14.609   5.388
29846SOL    HW291436  11.814  14.525   5.481
29847SOL     OW91437   6.379   4.337   2.396
29847SOL    HW191438   6.446   4.392   2.435
29847SOL    HW291439   6.410   4.319   2.307
29848SOL     OW91440   0.460   5.116  12.857
29848SOL    HW191441   0.397   5.054  12.895
29848SOL    HW291442   0.448   5.196  12.907
29849SOL     OW91443   2.270  10.493  14.018
29849SOL    HW191444   2.211  10.559  14.054
29849SOL    HW291445   2.212  10.427  13.980
29850SOL     OW91446   1.901   1.131  14.652
29850SOL    HW191447   1.816   1.176  14.656
29850SOL    HW291448   1.934   1.134  14.742
29851SOL     OW91449   9.890  11.650  11.606
29851SOL    HW191450   9.942  11.707  11.549
29851SOL    HW291451   9.919  11.562  11.583
29852SOL     OW91452   3.344   0.774   7.614
29852SOL    HW191453   3.293   0.706   7.660
29852SOL    HW291454   3.278   0.828   7.571
29853SOL     OW91455  10.819   6.693  12.607
29853SOL    HW191456  10.813   6.706  12.701
29853SOL    HW291457  10.823   6.781  12.570
29854SOL     OW91458  10.204   8.672   4.319
29854SOL    HW191459  10.214   8.580   4.344
29854SOL    HW291460  10.284   8.714   4.352
29855SOL     OW91461   6.485   8.429   9.530
29855SOL    HW191462   6.399   8.451   9.565
29855SOL    HW291463   6.523   8.513   9.504
29856SOL     OW91464   1.476  13.800   6.097
29856SOL    HW191465   1.445  13.856   6.168
29856SOL    HW291466   1.396  13.777   6.048
29857SOL     OW91467   0.478   2.485   5.696
29857SOL    HW191468   0.477   2.564   5.642
29857SOL    HW291469   0.567   2.482   5.732
29858SOL     OW91470  11.614   1.230   7.267
29858SOL    HW191471  11.631   1.141   7.299
29858SOL    HW291472  11.572   1.275   7.341
29859SOL     OW91473   3.310   2.884  10.944
29859SOL    HW191474   3.300   2.821  10.873
29859SOL    HW291475   3.397   2.865  10.980
29860SOL     OW91476   0.708   1.611   3.248
29860SOL    HW191477   0.692   1.679   3.182
29860SOL    HW291478   0.766   1.549   3.206
29861SOL     OW91479   7.360   7.069   1.510
29861SOL    HW191480   7.359   6.978   1.540
29861SOL    HW291481   7.447   7.081   1.474
29862SOL     OW91482   5.986  14.678  13.554
29862SOL    HW191483   6.002  14.601  13.499
29862SOL    HW291484   5.894  14.699  13.538
29863SOL     OW91485   7.588   2.535  11.589
29863SOL    HW191486   7.575   2.441  11.590
29863SOL    HW291487   7.511   2.570  11.543
29864SOL     OW91488  11.660   1.177  13.947
29864SOL    HW191489  11.714   1.098  13.950
29864SOL    HW291490  11.570   1.145  13.939
29865SOL     OW91491   9.458   2.182  13.285
29865SOL    HW191492   9.455   2.122  13.360
29865SOL    HW291493   9.368   2.185  13.253
29866SOL     OW91494   4.434  13.737   0.579
29866SOL    HW191495   4.506  13.721   0.640
29866SOL    HW291496   4.477  13.764   0.498
29867SOL     OW91497   7.992  14.862   7.284
29867SOL    HW191498   7.914  14.808   7.272
29867SOL    HW291499   8.044  14.847   7.205
29868SOL     OW91500  12.917  11.861   7.126
29868SOL    HW191501  12.912  11.951   7.159
29868SOL    HW291502  12.844  11.816   7.169
29869SOL     OW91503   4.892  14.090  13.726
29869SOL    HW191504   4.932  14.029  13.787
29869SOL    HW291505   4.799  14.068  13.728
29870SOL     OW91506   0.457  12.856   1.698
29870SOL    HW191507   0.390  12.797   1.661
29870SOL    HW291508   0.451  12.934   1.643
29871SOL     OW91509   8.366   6.166   2.676
29871SOL    HW191510   8.316   6.246   2.695
29871SOL    HW291511   8.372   6.121   2.760
29872SOL     OW91512  13.995  13.418   8.698
29872SOL    HW191513  13.986  13.445   8.789
29872SOL    HW291514  13.906  13.396   8.671
29873SOL     OW91515   6.483  12.916   8.435
29873SOL    HW191516   6.515  12.892   8.348
29873SOL    HW291517   6.513  12.846   8.492
29874SOL     OW91518   1.680   6.442  10.922
29874SOL    HW191519   1.768   6.419  10.954
29874SOL    HW291520   1.691   6.529  10.884
29875SOL     OW91521   7.528   1.997   5.475
29875SOL    HW191522   7.456   2.000   5.537
29875SOL    HW291523   7.599   1.953   5.522
29876SOL     OW91524   7.924   6.639  10.515
29876SOL    HW191525   7.836   6.660  10.485
29876SOL    HW291526   7.973   6.721  10.506
29877SOL     OW91527   0.270   1.628   7.977
29877SOL    HW191528   0.349   1.643   8.029
29877SOL    HW291529   0.218   1.708   7.989
29878SOL     OW91530   5.923  12.556   2.645
29878SOL    HW191531   5.908  12.605   2.564
29878SOL    HW291532   5.904  12.618   2.715
29879SOL     OW91533  10.615  14.609   8.728
29879SOL    HW191534  10.629  14.514   8.723
29879SOL    HW291535  10.566  14.631   8.649
29880SOL     OW91536   8.163   8.864   1.751
29880SOL    HW191537   8.154   8.959   1.759
29880SOL    HW291538   8.257   8.848   1.761
29881SOL     OW91539   1.750   2.804   6.845
29881SOL    HW191540   1.804   2.759   6.910
29881SOL    HW291541   1.679   2.743   6.825
29882SOL     OW91542   7.355   4.249   1.631
29882SOL    HW191543   7.397   4.325   1.670
29882SOL    HW291544   7.370   4.178   1.692
29883SOL     OW91545   4.747   8.573   3.589
29883SOL    HW191546   4.821   8.514   3.599
29883SOL    HW291547   4.769   8.649   3.642
29884SOL     OW91548  11.622   0.178  11.609
29884SOL    HW191549  11.618   0.150  11.518
29884SOL    HW291550  11.560   0.122  11.654
29885SOL     OW91551  13.084   1.259   6.144
29885SOL    HW191552  13.100   1.299   6.058
29885SOL    HW291553  13.119   1.322   6.206
29886SOL     OW91554   1.286   0.799   9.959
29886SOL    HW191555   1.364   0.794   9.904
29886SOL    HW291556   1.214   0.776   9.901
29887SOL     OW91557   9.412   0.404   5.982
29887SOL    HW191558   9.445   0.404   6.072
29887SOL    HW291559   9.480   0.360   5.931
29888SOL     OW91560   5.386  13.895  10.280
29888SOL    HW191561   5.327  13.969  10.299
29888SOL    HW291562   5.429  13.919  10.198
29889SOL     OW91563  12.555   1.854   0.519
29889SOL    HW191564  12.611   1.929   0.543
29889SOL    HW291565  12.548   1.803   0.600
29890SOL     OW91566  13.406   2.817   5.673
29890SOL    HW191567  13.331   2.873   5.692
29890SOL    HW291568  13.432   2.782   5.758
29891SOL     OW91569   6.608  13.355   6.895
29891SOL    HW191570   6.530  13.300   6.892
29891SOL    HW291571   6.681  13.293   6.905
29892SOL     OW91572   3.998   9.584  13.059
29892SOL    HW191573   3.921   9.638  13.040
29892SOL    HW291574   4.043   9.576  12.974
29893SOL     OW91575   0.867   2.738   4.914
29893SOL    HW191576   0.865   2.717   4.820
29893SOL    HW291577   0.836   2.659   4.957
29894SOL     OW91578  10.300   8.735   6.968
29894SOL    HW191579  10.379   8.695   6.932
29894SOL    HW291580  10.228   8.688   6.926
29895SOL     OW91581   4.601   4.828  11.993
29895SOL    HW191582   4.607   4.850  11.900
29895SOL    HW291583   4.675   4.873  12.033
29896SOL     OW91584   7.784   0.159   6.223
29896SOL    HW191585   7.748   0.087   6.275
29896SOL    HW291586   7.717   0.227   6.227
29897SOL     OW91587  12.512  14.734  14.353
29897SOL    HW191588  12.488  14.650  14.391
29897SOL    HW291589  12.428  14.771  14.324
29898SOL     OW91590  13.760   5.598   4.971
29898SOL    HW191591  13.708   5.519   4.951
29898SOL    HW291592  13.746   5.612   5.065
29899SOL     OW91593   2.335   3.555   8.725
29899SOL    HW191594   2.290   3.574   8.643
29899SOL    HW291595   2.398   3.626   8.736
29900SOL     OW91596   2.467  13.111   9.914
29900SOL    HW191597   2.445  13.153   9.831
29900SOL    HW291598   2.514  13.032   9.889
29901SOL     OW91599   7.443   7.272   4.888
29901SOL    HW191600   7.474   7.230   4.808
29901SOL    HW291601   7.353   7.296   4.869
29902SOL     OW91602  11.618   8.997  12.133
29902SOL    HW191603  11.600   9.043  12.052
29902SOL    HW291604  11.711   9.012  12.149
29903SOL     OW91605  14.033  13.103   4.650
29903SOL    HW191606  14.019  13.190   4.689
29903SOL    HW291607  14.118  13.109   4.608
29904SOL     OW91608   2.712   2.722   8.516
29904SOL    HW191609   2.719   2.635   8.476
29904SOL    HW291610   2.738   2.782   8.446
29905SOL     OW91611   4.175  13.620   0.534
29905SOL    HW191612   4.256  13.669   0.522
29905SOL    HW291613   4.203  13.529   0.543
29906SOL     OW91614  11.632  14.483   9.373
29906SOL    HW191615  11.722  14.454   9.354
29906SOL    HW291616  11.576  14.424   9.322
29907SOL     OW91617  12.365   6.679   3.564
29907SOL    HW191618  12.323   6.653   3.482
29907SOL    HW291619  12.457   6.692   3.541
29908SOL     OW91620   7.826  14.885  12.814
29908SOL    HW191621   7.878   0.062  12.862
29908SOL    HW291622   7.833   0.024  12.722
29909SOL     OW91623   7.917  11.621   8.037
29909SOL    HW191624   7.830  11.632   8.076
29909SOL    HW291625   7.917  11.531   8.005
29910SOL     OW91626  13.866   1.885   6.465
29910SOL    HW191627  13.838   1.804   6.423
29910SOL    HW291628  13.945   1.861   6.514
29911SOL     OW91629   0.042   0.520  12.492
29911SOL    HW191630   0.101   0.446  12.506
29911SOL    HW291631   0.100   0.591  12.464
29912SOL     OW91632  13.621   8.383   6.198
29912SOL    HW191633  13.706   8.361   6.162
29912SOL    HW291634  13.641   8.428   6.280
29913SOL     OW91635  13.439   0.865   4.243
29913SOL    HW191636  13.425   0.948   4.288
29913SOL    HW291637  13.446   0.889   4.150
29914SOL     OW91638   2.905   9.084  14.828
29914SOL    HW191639   2.860   9.050   0.018
29914SOL    HW291640   2.868   9.034  14.756
29915SOL     OW91641   8.039   2.044   8.700
29915SOL    HW191642   8.064   2.057   8.608
29915SOL    HW291643   8.117   2.007   8.741
29916SOL     OW91644   1.466   9.419  10.860
29916SOL    HW191645   1.373   9.404  10.877
29916SOL    HW291646   1.510   9.344  10.897
29917SOL     OW91647   4.221  14.722  12.908
29917SOL    HW191648   4.215  14.814  12.882
29917SOL    HW291649   4.274  14.724  12.988
29918SOL     OW91650  12.851   6.180   6.980
29918SOL    HW191651  12.809   6.117   6.921
29918SOL    HW291652  12.857   6.134   7.063
29919SOL     OW91653   0.356   4.912  14.436
29919SOL    HW191654   0.288   4.972  14.406
29919SOL    HW291655   0.334   4.828  14.396
29920SOL     OW91656  12.125   5.549   5.770
29920SOL    HW191657  12.068   5.513   5.838
29920SOL    HW291658  12.213   5.523   5.796
29921SOL     OW91659   3.635   3.115   2.134
29921SOL    HW191660   3.647   3.204   2.166
29921SOL    HW291661   3.662   3.059   2.207
29922SOL     OW91662  14.607   8.678   4.965
29922SOL    HW191663  14.545   8.740   4.927
29922SOL    HW291664  14.571   8.592   4.944
29923SOL     OW91665   7.138   1.199  10.248
29923SOL    HW191666   7.187   1.198  10.330
29923SOL    HW291667   7.159   1.116  10.206
29924SOL     OW91668   8.452  13.821  12.039
29924SOL    HW191669   8.420  13.827  11.949
29924SOL    HW291670   8.534  13.772  12.031
29925SOL     OW91671   8.777   1.560   4.484
29925SOL    HW191672   8.747   1.640   4.528
29925SOL    HW291673   8.703   1.500   4.491
29926SOL     OW91674  13.422   1.039  11.130
29926SOL    HW191675  13.436   0.955  11.173
29926SOL    HW291676  13.501   1.090  11.150
29927SOL     OW91677   1.834   4.474  12.568
29927SOL    HW191678   1.861   4.555  12.524
29927SOL    HW291679   1.916   4.438  12.603
29928SOL     OW91680   7.408   5.560  14.121
29928SOL    HW191681   7.440   5.590  14.036
29928SOL    HW291682   7.418   5.635  14.179
29929SOL     OW91683   5.479   9.200  13.633
29929SOL    HW191684   5.574   9.188  13.628
29929SOL    HW291685   5.452   9.217  13.543
29930SOL     OW91686   3.218   0.230   9.893
29930SOL    HW191687   3.157   0.281   9.839
29930SOL    HW291688   3.279   0.191   9.830
29931SOL     OW91689   0.295   2.218  13.308
29931SOL    HW191690   0.306   2.305  13.269
29931SOL    HW291691   0.228   2.176  13.254
29932SOL     OW91692   8.505   1.029   0.841
29932SOL    HW191693   8.572   1.097   0.843
29932SOL    HW291694   8.444   1.054   0.911
29933SOL     OW91695   8.191   9.934   3.747
29933SOL    HW191696   8.249   9.922   3.672
29933SOL    HW291697   8.134   9.857   3.747
29934SOL     OW91698   0.426   9.483   3.697
29934SOL    HW191699   0.358   9.420   3.673
29934SOL    HW291700   0.412   9.498   3.790
29935SOL     OW91701   2.694  10.077  14.474
29935SOL    HW191702   2.610  10.048  14.509
29935SOL    HW291703   2.673  10.147  14.414
29936SOL     OW91704   4.482   2.459   2.913
29936SOL    HW191705   4.417   2.518   2.951
29936SOL    HW291706   4.477   2.380   2.966
29937SOL     OW91707   6.335  12.874  14.317
29937SOL    HW191708   6.363  12.825  14.240
29937SOL    HW291709   6.415  12.912  14.353
29938SOL     OW91710   0.769   1.285  10.693
29938SOL    HW191711   0.842   1.326  10.647
29938SOL    HW291712   0.694   1.343  10.677
29939SOL     OW91713   4.012   5.941   5.934
29939SOL    HW191714   4.002   6.027   5.976
29939SOL    HW291715   3.929   5.927   5.889
29940SOL     OW91716  10.987   4.166  12.668
29940SOL    HW191717  11.070   4.207  12.692
29940SOL    HW291718  10.954   4.127  12.750
29941SOL     OW91719   6.966   3.124   8.548
29941SOL    HW191720   6.889   3.160   8.594
29941SOL    HW291721   7.013   3.202   8.517
29942SOL     OW91722   1.063   2.308   9.002
29942SOL    HW191723   1.074   2.265   9.087
29942SOL    HW291724   1.041   2.398   9.024
29943SOL     OW91725  11.416  14.215   0.973
29943SOL    HW191726  11.491  14.248   1.022
29943SOL    HW291727  11.436  14.237   0.882
29944SOL     OW91728   5.535   7.805   6.594
29944SOL    HW191729   5.599   7.821   6.663
29944SOL    HW291730   5.538   7.711   6.579
29945SOL     OW91731  14.634  13.256   7.435
29945SOL    HW191732  14.572  13.314   7.390
29945SOL    HW291733  14.587  13.228   7.514
29946SOL     OW91734  10.241   1.214  13.414
29946SOL    HW191735  10.290   1.157  13.473
29946SOL    HW291736  10.164   1.240  13.464
29947SOL     OW91737   8.969  12.480  11.791
29947SOL    HW191738   8.936  12.457  11.878
29947SOL    HW291739   8.910  12.436  11.731
29948SOL     OW91740  12.590   2.763  12.846
29948SOL    HW191741  12.572   2.773  12.752
29948SOL    HW291742  12.684   2.750  12.851
29949SOL     OW91743  11.134   0.184   4.821
29949SOL    HW191744  11.204   0.227   4.870
29949SOL    HW291745  11.124   0.098   4.863
29950SOL     OW91746  12.178  12.408   9.572
29950SOL    HW191747  12.230  12.328   9.586
29950SOL    HW291748  12.132  12.421   9.655
29951SOL     OW91749  12.141   7.470  12.949
29951SOL    HW191750  12.121   7.560  12.920
29951SOL    HW291751  12.056   7.434  12.974
29952SOL     OW91752   2.325   4.878   0.064
29952SOL    HW191753   2.264   4.929   0.117
29952SOL    HW291754   2.343   4.800   0.116
29953SOL     OW91755   0.553   2.787   8.215
29953SOL    HW191756   0.504   2.843   8.275
29953SOL    HW291757   0.529   2.818   8.128
29954SOL     OW91758  13.726   1.467  14.312
29954SOL    HW191759  13.797   1.404  14.328
29954SOL    HW291760  13.709   1.506  14.397
29955SOL     OW91761   6.197   9.595   3.618
29955SOL    HW191762   6.285   9.581   3.583
29955SOL    HW291763   6.147   9.628   3.543
29956SOL     OW91764   4.239   6.029   2.353
29956SOL    HW191765   4.308   5.975   2.312
29956SOL    HW291766   4.269   6.042   2.442
29957SOL     OW91767   4.717  11.230   0.982
29957SOL    HW191768   4.695  11.292   0.913
29957SOL    HW291769   4.808  11.248   1.004
29958SOL     OW91770   1.854  11.172   8.898
29958SOL    HW191771   1.885  11.237   8.960
29958SOL    HW291772   1.827  11.223   8.821
29959SOL     OW91773   9.388   7.238   8.509
29959SOL    HW191774   9.368   7.276   8.424
29959SOL    HW291775   9.396   7.144   8.492
29960SOL     OW91776   0.884   5.507   3.961
29960SOL    HW191777   0.829   5.533   3.886
29960SOL    HW291778   0.860   5.416   3.976
29961SOL     OW91779  10.304   7.279  13.398
29961SOL    HW191780  10.210   7.263  13.392
29961SOL    HW291781  10.331   7.298  13.307
29962SOL     OW91782  13.391   3.199   7.005
29962SOL    HW191783  13.472   3.244   6.984
29962SOL    HW291784  13.416   3.108   7.019
29963SOL     OW91785   9.717   4.474   6.920
29963SOL    HW191786   9.667   4.551   6.893
29963SOL    HW291787   9.808   4.502   6.917
29964SOL     OW91788   6.589   9.449   2.564
29964SOL    HW191789   6.631   9.485   2.642
29964SOL    HW291790   6.628   9.363   2.553
29965SOL     OW91791   7.943   3.977   0.448
29965SOL    HW191792   8.030   3.964   0.412
29965SOL    HW291793   7.892   4.012   0.375
29966SOL     OW91794   1.609  11.164   7.420
29966SOL    HW191795   1.589  11.158   7.514
29966SOL    HW291796   1.663  11.087   7.402
29967SOL     OW91797  12.753  11.882  11.551
29967SOL    HW191798  12.817  11.922  11.492
29967SOL    HW291799  12.673  11.877  11.499
29968SOL     OW91800   2.330  13.596   2.018
29968SOL    HW191801   2.422  13.597   1.993
29968SOL    HW291802   2.287  13.548   1.947
29969SOL     OW91803  13.029   9.374   4.212
29969SOL    HW191804  13.062   9.300   4.263
29969SOL    HW291805  13.085   9.377   4.135
29970SOL     OW91806   3.469   6.384   1.759
29970SOL    HW191807   3.485   6.291   1.773
29970SOL    HW291808   3.376   6.389   1.734
29971SOL     OW91809  10.638   5.624  11.349
29971SOL    HW191810  10.564   5.625  11.410
29971SOL    HW291811  10.715   5.631  11.404
29972SOL     OW91812   8.030   5.978  12.997
29972SOL    HW191813   8.000   6.017  12.915
29972SOL    HW291814   8.032   6.051  13.058
29973SOL     OW91815   6.729  14.666   2.683
29973SOL    HW191816   6.751  14.646   2.592
29973SOL    HW291817   6.802  14.629   2.733
29974SOL     OW91818   4.905  12.685  10.234
29974SOL    HW191819   4.990  12.728  10.232
29974SOL    HW291820   4.920  12.606  10.287
29975SOL     OW91821   8.325   6.675  13.998
29975SOL    HW191822   8.343   6.655  13.906
29975SOL    HW291823   8.396   6.734  14.025
29976SOL     OW91824   0.381  13.004   6.052
29976SOL    HW191825   0.424  13.048   6.125
29976SOL    HW291826   0.398  13.061   5.977
29977SOL     OW91827   7.373   4.458  14.276
29977SOL    HW191828   7.362   4.404  14.198
29977SOL    HW291829   7.460   4.435  14.309
29978SOL     OW91830  12.456   0.128   1.798
29978SOL    HW191831  12.428   0.039   1.777
29978SOL    HW291832  12.543   0.136   1.759
29979SOL     OW91833  12.102   0.922  14.368
29979SOL    HW191834  12.033   0.983  14.394
29979SOL    HW291835  12.184   0.970  14.383
29980SOL     OW91836   6.523  14.098   2.450
29980SOL    HW191837   6.566  14.165   2.396
29980SOL    HW291838   6.530  14.018   2.399
29981SOL     OW91839  12.550  12.648   5.802
29981SOL    HW191840  12.610  12.620   5.871
29981SOL    HW291841  12.540  12.571   5.747
29982SOL     OW91842   8.128   5.217   7.348
29982SOL    HW191843   8.207   5.228   7.401
29982SOL    HW291844   8.123   5.297   7.296
29983SOL     OW91845  11.226   5.036  12.148
29983SOL    HW191846  11.140   5.012  12.113
29983SOL    HW291847  11.270   4.952  12.161
29984SOL     OW91848  10.510   3.573  12.305
29984SOL    HW191849  10.589   3.585  12.358
29984SOL    HW291850  10.477   3.662  12.291
29985SOL     OW91851   2.892   5.048   0.953
29985SOL    HW191852   2.885   4.998   1.034
29985SOL    HW291853   2.956   4.999   0.900
29986SOL     OW91854   9.788   8.702   4.821
29986SOL    HW191855   9.791   8.682   4.914
29986SOL    HW291856   9.723   8.772   4.813
29987SOL     OW91857   1.697  11.582  10.268
29987SOL    HW191858   1.630  11.599  10.202
29987SOL    HW291859   1.735  11.498  10.244
29988SOL     OW91860   2.698   1.912   9.581
29988SOL    HW191861   2.614   1.936   9.539
29988SOL    HW291862   2.736   1.848   9.522
29989SOL     OW91863  14.010   5.002   3.383
29989SOL    HW191864  14.089   5.032   3.338
29989SOL    HW291865  13.938   5.036   3.331
29990SOL     OW91866   3.637  13.509   0.079
29990SOL    HW191867   3.662  13.580   0.138
29990SOL    HW291868   3.719  13.464   0.059
29991SOL     OW91869  13.393  14.857   7.434
29991SOL    HW191870  13.317  14.799   7.422
29991SOL    HW291871  13.460  14.800   7.470
29992SOL     OW91872  11.667   0.533   0.419
29992SOL    HW191873  11.636   0.443   0.424
29992SOL    HW291874  11.702   0.542   0.330
29993SOL     OW91875   3.694   7.645   9.445
29993SOL    HW191876   3.697   7.651   9.350
29993SOL    HW291877   3.600   7.642   9.466
29994SOL     OW91878   0.115   4.719  14.384
29994SOL    HW191879   0.072   4.788  14.435
29994SOL    HW291880   0.110   4.749  14.293
29995SOL     OW91881  11.684   7.199  10.008
29995SOL    HW191882  11.603   7.235  10.045
29995SOL    HW291883  11.658   7.117   9.967
29996SOL     OW91884  13.737   7.809   3.363
29996SOL    HW191885  13.787   7.735   3.328
29996SOL    HW291886  13.673   7.768   3.421
29997SOL     OW91887   7.487   6.692  14.508
29997SOL    HW191888   7.554   6.760  14.512
29997SOL    HW291889   7.407   6.737  14.484
29998SOL     OW91890   6.002   1.625  13.626
29998SOL    HW191891   6.097   1.641  13.629
29998SOL    HW291892   5.971   1.647  13.714
29999SOL     OW91893   0.777   5.446   0.685
29999SOL    HW191894   0.711   5.502   0.726
29999SOL    HW291895   0.726   5.385   0.631
30000SOL     OW91896  14.479   2.076  14.790
30000SOL    HW191897  14.450   2.165  14.772
30000SOL    HW291898  14.517   2.079  14.878
30001SOL     OW91899   8.202   9.645   9.601
30001SOL    HW191900   8.245   9.574   9.553
30001SOL    HW291901   8.119   9.657   9.555
30002SOL     OW91902   8.065   1.486   2.233
30002SOL    HW191903   8.098   1.547   2.168
30002SOL    HW291904   8.121   1.409   2.224
30003SOL     OW91905   3.813   3.990   9.580
30003SOL    HW191906   3.874   4.054   9.544
30003SOL    HW291907   3.797   4.020   9.669
30004SOL     OW91908   8.365   0.193  10.772
30004SOL    HW191909   8.422   0.151  10.707
30004SOL    HW291910   8.405   0.172  10.856
30005SOL     OW91911   6.479   4.227   9.399
30005SOL    HW191912   6.393   4.266   9.388
30005SOL    HW291913   6.533   4.264   9.329
30006SOL     OW91914   1.668  14.839   5.823
30006SOL    HW191915   1.595   0.002   5.788
30006SOL    HW291916   1.637  14.809   5.909
30007SOL     OW91917   8.477   3.365  13.475
30007SOL    HW191918   8.382   3.369  13.487
30007SOL    HW291919   8.498   3.441  13.421
30008SOL     OW91920   9.078   4.505   3.031
30008SOL    HW191921   9.068   4.452   2.952
30008SOL    HW291922   9.162   4.478   3.068
30009SOL     OW91923   1.022   9.860   0.292
30009SOL    HW191924   0.956   9.808   0.338
30009SOL    HW291925   0.989   9.868   0.202
30010SOL     OW91926   5.111   1.433   1.874
30010SOL    HW191927   5.026   1.429   1.831
30010SOL    HW291928   5.147   1.345   1.865
30011SOL     OW91929  13.739   1.126   1.687
30011SOL    HW191930  13.830   1.096   1.676
30011SOL    HW291931  13.694   1.051   1.726
30012SOL     OW91932  11.862   4.916   7.545
30012SOL    HW191933  11.804   4.991   7.555
30012SOL    HW291934  11.868   4.878   7.633
30013SOL     OW91935  10.562   0.156   1.598
30013SOL    HW191936  10.635   0.207   1.563
30013SOL    HW291937  10.596   0.116   1.678
30014SOL     OW91938   3.416  11.118   7.243
30014SOL    HW191939   3.454  11.070   7.169
30014SOL    HW291940   3.488  11.130   7.304
30015SOL     OW91941  11.836   3.651   5.105
30015SOL    HW191942  11.813   3.563   5.077
30015SOL    HW291943  11.773   3.708   5.061
30016SOL     OW91944  12.795   8.240   7.981
30016SOL    HW191945  12.798   8.317   8.038
30016SOL    HW291946  12.711   8.248   7.935
30017SOL     OW91947  13.682   0.125   5.057
30017SOL    HW191948  13.676   0.037   5.020
30017SOL    HW291949  13.636   0.181   4.994
30018SOL     OW91950  14.856  11.175   3.637
30018SOL    HW191951  14.851  11.160   3.543
30018SOL    HW291952  14.801  11.252   3.652
30019SOL     OW91953   2.912   3.414   5.481
30019SOL    HW191954   2.929   3.422   5.387
30019SOL    HW291955   2.873   3.498   5.506
30020SOL     OW91956   4.923   7.216   7.755
30020SOL    HW191957   4.916   7.311   7.763
30020SOL    HW291958   4.931   7.185   7.845
30021SOL     OW91959  10.792   5.872   9.456
30021SOL    HW191960  10.870   5.927   9.457
30021SOL    HW291961  10.799   5.823   9.374
30022SOL     OW91962   6.335   5.844  13.335
30022SOL    HW191963   6.412   5.888  13.372
30022SOL    HW291964   6.353   5.840  13.241
30023SOL     OW91965   4.319   7.961   9.547
30023SOL    HW191966   4.366   7.942   9.466
30023SOL    HW291967   4.382   8.009   9.601
30024SOL     OW91968   7.659   2.906   7.186
30024SOL    HW191969   7.676   3.000   7.180
30024SOL    HW291970   7.721   2.867   7.124
30025SOL     OW91971  14.437  10.383  13.386
30025SOL    HW191972  14.398  10.406  13.470
30025SOL    HW291973  14.374  10.325  13.344
30026SOL     OW91974  12.797   3.254   3.092
30026SOL    HW191975  12.722   3.299   3.132
30026SOL    HW291976  12.849   3.325   3.055
30027SOL     OW91977   0.365   9.804  14.621
30027SOL    HW191978   0.425   9.791  14.695
30027SOL    HW291979   0.317   9.722  14.615
30028SOL     OW91980  12.953  13.452  12.195
30028SOL    HW191981  12.973  13.359  12.210
30028SOL    HW291982  13.038  13.496  12.197
30029SOL     OW91983   4.733   9.954  10.474
30029SOL    HW191984   4.750   9.915  10.559
30029SOL    HW291985   4.790  10.031  10.471
30030SOL     OW91986  13.905  10.972  10.907
30030SOL    HW191987  13.909  10.991  11.000
30030SOL    HW291988  13.997  10.966  10.880
30031SOL     OW91989   6.812   1.426  12.056
30031SOL    HW191990   6.769   1.431  11.970
30031SOL    HW291991   6.870   1.501  12.058
30032SOL     OW91992  11.702  11.499  11.486
30032SOL    HW191993  11.624  11.527  11.437
30032SOL    HW291994  11.756  11.577  11.492
30033SOL     OW91995   9.170   9.830   2.403
30033SOL    HW191996   9.153   9.920   2.376
30033SOL    HW291997   9.085   9.787   2.398
30034SOL     OW91998  10.744   2.382   8.613
30034SOL    HW191999  10.797   2.398   8.691
30034SOL    HW292000  10.715   2.291   8.622
30035SOL     OW92001   6.757   1.767   9.037
30035SOL    HW192002   6.744   1.776   8.942
30035SOL    HW292003   6.822   1.697   9.045
30036SOL     OW92004   5.495   7.931   4.282
30036SOL    HW192005   5.559   7.985   4.328
30036SOL    HW292006   5.532   7.843   4.284
30037SOL     OW92007   4.621  14.214  12.284
30037SOL    HW192008   4.633  14.303  12.319
30037SOL    HW292009   4.582  14.228  12.198
30038SOL     OW92010   0.518   4.171   2.542
30038SOL    HW192011   0.478   4.095   2.587
30038SOL    HW292012   0.600   4.137   2.507
30039SOL     OW92013   4.821   4.698   0.777
30039SOL    HW192014   4.790   4.775   0.729
30039SOL    HW292015   4.747   4.638   0.775
30040SOL     OW92016   4.367   1.854   9.563
30040SOL    HW192017   4.436   1.919   9.552
30040SOL    HW292018   4.383   1.789   9.494
30041SOL     OW92019   9.798   0.688   7.269
30041SOL    HW192020   9.824   0.712   7.180
30041SOL    HW292021   9.780   0.772   7.312
30042SOL     OW92022   8.844  12.056  11.276
30042SOL    HW192023   8.794  11.994  11.223
30042SOL    HW292024   8.817  12.142  11.245
30043SOL     OW92025   5.180  10.925   1.282
30043SOL    HW192026   5.213  10.932   1.193
30043SOL    HW292027   5.258  10.932   1.337
30044SOL     OW92028   1.442  14.348   0.874
30044SOL    HW192029   1.429  14.256   0.893
30044SOL    HW292030   1.489  14.349   0.791
30045SOL     OW92031   2.730   5.775   9.629
30045SOL    HW192032   2.691   5.855   9.664
30045SOL    HW292033   2.822   5.778   9.657
30046SOL     OW92034   4.650  12.971   0.711
30046SOL    HW192035   4.721  12.916   0.678
30046SOL    HW292036   4.586  12.909   0.745
30047SOL     OW92037   7.602  10.181  10.288
30047SOL    HW192038   7.631  10.092  10.306
30047SOL    HW292039   7.550  10.206  10.365
30048SOL     OW92040   8.895   8.045  10.392
30048SOL    HW192041   8.976   8.075  10.433
30048SOL    HW292042   8.894   8.087  10.306
30049SOL     OW92043  11.033   9.945  10.634
30049SOL    HW192044  11.049   9.878  10.568
30049SOL    HW292045  11.106   9.936  10.696
30050SOL     OW92046  14.425   9.369  14.322
30050SOL    HW192047  14.458   9.409  14.242
30050SOL    HW292048  14.425   9.275  14.305
30051SOL     OW92049   6.037  12.525   2.130
30051SOL    HW192050   6.097  12.599   2.125
30051SOL    HW292051   6.080  12.457   2.078
30052SOL     OW92052   1.024  14.271   9.308
30052SOL    HW192053   1.044  14.210   9.237
30052SOL    HW292054   1.108  14.313   9.327
30053SOL     OW92055   2.472   9.772  13.637
30053SOL    HW192056   2.517   9.735  13.714
30053SOL    HW292057   2.433   9.696  13.594
30054SOL     OW92058   4.144   8.348   0.030
30054SOL    HW192059   4.116   8.265  14.879
30054SOL    HW292060   4.157   8.406  14.842
30055SOL     OW92061   5.460  10.067   5.173
30055SOL    HW192062   5.415  10.093   5.253
30055SOL    HW292063   5.542  10.117   5.174
30056SOL     OW92064   2.186  11.107   7.963
30056SOL    HW192065   2.210  11.107   7.870
30056SOL    HW292066   2.092  11.125   7.963
30057SOL     OW92067   9.033   4.709  10.742
30057SOL    HW192068   8.995   4.772  10.681
30057SOL    HW292069   9.056   4.634  10.688
30058SOL     OW92070   2.443   1.465  12.108
30058SOL    HW192071   2.387   1.513  12.168
30058SOL    HW292072   2.516   1.434  12.162
30059SOL     OW92073   8.437   8.969  11.716
30059SOL    HW192074   8.454   9.030  11.645
30059SOL    HW292075   8.472   8.885  11.684
30060SOL     OW92076   7.940   8.853   8.826
30060SOL    HW192077   7.918   8.760   8.833
30060SOL    HW292078   7.869   8.890   8.773
30061SOL     OW92079   4.565   0.758  10.837
30061SOL    HW192080   4.550   0.698  10.910
30061SOL    HW292081   4.595   0.839  10.878
30062SOL     OW92082   6.917  13.540   7.901
30062SOL    HW192083   6.898  13.630   7.873
30062SOL    HW292084   6.934  13.548   7.995
30063SOL     OW92085  14.097  14.114  12.632
30063SOL    HW192086  14.168  14.175  12.612
30063SOL    HW292087  14.070  14.138  12.720
30064SOL     OW92088   1.796   5.281   2.053
30064SOL    HW192089   1.884   5.269   2.090
30064SOL    HW292090   1.743   5.215   2.097
30065SOL     OW92091   6.329   0.727   7.436
30065SOL    HW192092   6.315   0.783   7.359
30065SOL    HW292093   6.417   0.691   7.423
30066SOL     OW92094   5.676  10.435  10.780
30066SOL    HW192095   5.617  10.464  10.850
30066SOL    HW292096   5.748  10.497  10.782
30067SOL     OW92097   4.132   5.735  11.178
30067SOL    HW192098   4.097   5.777  11.099
30067SOL    HW292099   4.147   5.807  11.239
30068SOL     OW92100   8.597  14.538   0.255
30068SOL    HW192101   8.586  14.451   0.292
30068SOL    HW292102   8.596  14.597   0.331
30069SOL     OW92103   9.170   6.383   7.117
30069SOL    HW192104   9.232   6.335   7.062
30069SOL    HW292105   9.205   6.374   7.206
30070SOL     OW92106   2.306   7.458   6.112
30070SOL    HW192107   2.257   7.532   6.077
30070SOL    HW292108   2.247   7.383   6.105
30071SOL     OW92109   5.162   7.025  10.987
30071SOL    HW192110   5.228   6.966  11.022
30071SOL    HW292111   5.094   6.968  10.952
30072SOL     OW92112  10.529   7.493   0.509
30072SOL    HW192113  10.492   7.434   0.574
30072SOL    HW292114  10.593   7.546   0.557
30073SOL     OW92115   6.132   5.428  11.070
30073SOL    HW192116   6.164   5.488  11.137
30073SOL    HW292117   6.112   5.483  10.995
30074SOL     OW92118   3.030   2.315  12.066
30074SOL    HW192119   3.005   2.333  12.156
30074SOL    HW292120   2.947   2.303  12.019
30075SOL     OW92121   2.101  12.352  11.977
30075SOL    HW192122   2.043  12.428  11.971
30075SOL    HW292123   2.145  12.362  12.062
30076SOL     OW92124   6.677  12.898   2.547
30076SOL    HW192125   6.621  12.899   2.470
30076SOL    HW292126   6.766  12.896   2.512
30077SOL     OW92127   0.789  10.326   3.284
30077SOL    HW192128   0.857  10.307   3.349
30077SOL    HW292129   0.736  10.395   3.324
30078SOL     OW92130  14.304   2.788   3.294
30078SOL    HW192131  14.251   2.732   3.237
30078SOL    HW292132  14.312   2.738   3.376
30079SOL     OW92133   3.470   9.630  10.106
30079SOL    HW192134   3.531   9.687  10.154
30079SOL    HW292135   3.391   9.684  10.095
30080SOL     OW92136   2.600  12.537   1.391
30080SOL    HW192137   2.530  12.602   1.396
30080SOL    HW292138   2.586  12.480   1.466
30081SOL     OW92139   2.173  10.774  10.098
30081SOL    HW192140   2.128  10.790  10.015
30081SOL    HW292141   2.233  10.848  10.108
30082SOL     OW92142  11.681   8.178   7.891
30082SOL    HW192143  11.710   8.090   7.867
30082SOL    HW292144  11.631   8.208   7.815
30083SOL     OW92145  13.762   7.106   6.459
30083SOL    HW192146  13.711   7.038   6.503
30083SOL    HW292147  13.698   7.155   6.408
30084SOL     OW92148   9.313   9.665   2.595
30084SOL    HW192149   9.370   9.733   2.631
30084SOL    HW292150   9.225   9.703   2.600
30085SOL     OW92151   6.190   9.223   6.831
30085SOL    HW192152   6.257   9.262   6.887
30085SOL    HW292153   6.224   9.233   6.743
30086SOL     OW92154   8.782   8.890   3.552
30086SOL    HW192155   8.744   8.978   3.550
30086SOL    HW292156   8.838   8.890   3.629
30087SOL     OW92157  13.565  12.395  12.793
30087SOL    HW192158  13.493  12.357  12.844
30087SOL    HW292159  13.636  12.331  12.801
30088SOL     OW92160  12.180   3.195   9.752
30088SOL    HW192161  12.241   3.122   9.769
30088SOL    HW292162  12.227   3.273   9.782
30089SOL     OW92163   2.543   9.044   8.580
30089SOL    HW192164   2.597   9.114   8.616
30089SOL    HW292165   2.482   9.089   8.522
30090SOL     OW92166   9.100  10.541   2.372
30090SOL    HW192167   9.133  10.470   2.427
30090SOL    HW292168   9.143  10.529   2.287
30091SOL     OW92169   8.980   8.346   5.291
30091SOL    HW192170   9.050   8.378   5.348
30091SOL    HW292171   8.958   8.260   5.325
30092SOL     OW92172   9.218   9.241   5.351
30092SOL    HW192173   9.224   9.145   5.354
30092SOL    HW292174   9.264   9.265   5.271
30093SOL     OW92175   7.942  12.117   1.842
30093SOL    HW192176   7.944  12.028   1.878
30093SOL    HW292177   7.918  12.172   1.916
30094SOL     OW92178   2.059   0.126   6.942
30094SOL    HW192179   2.036   0.132   6.849
30094SOL    HW292180   2.144   0.083   6.944
30095SOL     OW92181  14.621  11.559   9.998
30095SOL    HW192182  14.712  11.582   9.978
30095SOL    HW292183  14.570  11.630   9.960
30096SOL     OW92184   1.137   1.767   3.502
30096SOL    HW192185   1.049   1.733   3.517
30096SOL    HW292186   1.195   1.693   3.518
30097SOL     OW92187   6.329   2.589   7.326
30097SOL    HW192188   6.401   2.525   7.329
30097SOL    HW292189   6.349   2.651   7.396
30098SOL     OW92190  11.185   3.137   6.206
30098SOL    HW192191  11.104   3.188   6.206
30098SOL    HW292192  11.231   3.165   6.127
30099SOL     OW92193  11.664   3.175   6.867
30099SOL    HW192194  11.620   3.100   6.827
30099SOL    HW292195  11.728   3.203   6.801
30100SOL     OW92196  13.728  10.478  13.429
30100SOL    HW192197  13.646  10.429  13.425
30100SOL    HW292198  13.718  10.546  13.362
30101SOL     OW92199  13.617  13.872   2.784
30101SOL    HW192200  13.556  13.920   2.840
30101SOL    HW292201  13.702  13.883   2.826
30102SOL     OW92202   7.057   9.847   5.513
30102SOL    HW192203   7.010   9.763   5.513
30102SOL    HW292204   7.059   9.872   5.421
30103SOL     OW92205  12.514   3.085   1.214
30103SOL    HW192206  12.463   3.024   1.162
30103SOL    HW292207  12.602   3.048   1.216
30104SOL     OW92208   4.514   2.983   8.064
30104SOL    HW192209   4.426   2.982   8.027
30104SOL    HW292210   4.521   2.900   8.112
30105SOL     OW92211  12.731   6.242   3.251
30105SOL    HW192212  12.774   6.215   3.170
30105SOL    HW292213  12.783   6.202   3.320
30106SOL     OW92214   3.401   4.154   9.826
30106SOL    HW192215   3.488   4.181   9.797
30106SOL    HW292216   3.374   4.086   9.764
30107SOL     OW92217   3.486  14.656   9.685
30107SOL    HW192218   3.438  14.701   9.756
30107SOL    HW292219   3.431  14.581   9.663
30108SOL     OW92220   2.483  14.238   7.498
30108SOL    HW192221   2.575  14.211   7.501
30108SOL    HW292222   2.444  14.180   7.433
30109SOL     OW92223   8.914  14.276   6.946
30109SOL    HW192224   8.845  14.336   6.917
30109SOL    HW292225   8.901  14.197   6.892
30110SOL     OW92226   1.976   6.925   7.012
30110SOL    HW192227   1.987   6.973   6.930
30110SOL    HW292228   1.901   6.967   7.054
30111SOL     OW92229   2.059   1.499   8.639
30111SOL    HW192230   2.012   1.490   8.556
30111SOL    HW292231   2.001   1.459   8.704
30112SOL     OW92232   1.335   7.318   6.196
30112SOL    HW192233   1.265   7.269   6.153
30112SOL    HW292234   1.406   7.255   6.205
30113SOL     OW92235  10.013   2.316   2.038
30113SOL    HW192236   9.956   2.389   2.014
30113SOL    HW292237  10.008   2.256   1.963
30114SOL     OW92238   3.918   9.660  14.607
30114SOL    HW192239   3.969   9.727  14.561
30114SOL    HW292240   3.847   9.639  14.548
30115SOL     OW92241   3.237   7.324   6.232
30115SOL    HW192242   3.178   7.381   6.282
30115SOL    HW292243   3.324   7.355   6.254
30116SOL     OW92244   9.720   8.006   2.529
30116SOL    HW192245   9.759   8.089   2.503
30116SOL    HW292246   9.785   7.965   2.586
30117SOL     OW92247  12.309   6.488  13.773
30117SOL    HW192248  12.397   6.469  13.741
30117SOL    HW292249  12.306   6.448  13.859
30118SOL     OW92250   4.051  14.839   9.260
30118SOL    HW192251   3.999  14.856   9.182
30118SOL    HW292252   4.106  14.764   9.237
30119SOL     OW92253  10.982  11.637  12.715
30119SOL    HW192254  10.975  11.706  12.780
30119SOL    HW292255  10.913  11.575  12.737
30120SOL     OW92256  14.613   3.343   0.158
30120SOL    HW192257  14.704   3.374   0.149
30120SOL    HW292258  14.560   3.421   0.145
30121SOL     OW92259   2.558   9.353   7.910
30121SOL    HW192260   2.626   9.291   7.882
30121SOL    HW292261   2.582   9.376   7.999
30122SOL     OW92262   6.538   6.095   7.225
30122SOL    HW192263   6.494   6.041   7.290
30122SOL    HW292264   6.577   6.033   7.163
30123SOL     OW92265   2.550   4.835  12.983
30123SOL    HW192266   2.630   4.871  13.021
30123SOL    HW292267   2.555   4.859  12.890
30124SOL     OW92268   3.638   1.071   7.957
30124SOL    HW192269   3.576   1.044   7.890
30124SOL    HW292270   3.636   1.000   8.021
30125SOL     OW92271   2.719   8.723  13.272
30125SOL    HW192272   2.639   8.721  13.324
30125SOL    HW292273   2.692   8.693  13.185
30126SOL     OW92274  12.001   2.099   6.905
30126SOL    HW192275  11.993   2.194   6.913
30126SOL    HW292276  12.079   2.085   6.852
30127SOL     OW92277   4.698   1.671   2.792
30127SOL    HW192278   4.622   1.649   2.739
30127SOL    HW292279   4.769   1.617   2.757
30128SOL     OW92280  12.688   5.339  10.641
30128SOL    HW192281  12.620   5.385  10.691
30128SOL    HW292282  12.646   5.258  10.611
30129SOL     OW92283   6.081   6.066   6.807
30129SOL    HW192284   6.042   5.980   6.793
30129SOL    HW292285   6.010   6.128   6.792
30130SOL     OW92286   0.851   9.066  10.540
30130SOL    HW192287   0.904   9.129  10.491
30130SOL    HW292288   0.761   9.096  10.529
30131SOL     OW92289  10.021   2.184   6.391
30131SOL    HW192290  10.077   2.246   6.344
30131SOL    HW292291  10.022   2.214   6.482
30132SOL     OW92292   3.349   4.567   4.809
30132SOL    HW192293   3.368   4.649   4.855
30132SOL    HW292294   3.257   4.574   4.784
30133SOL     OW92295   5.428   8.883  13.228
30133SOL    HW192296   5.400   8.970  13.255
30133SOL    HW292297   5.349   8.829  13.237
30134SOL     OW92298   4.029   3.978   0.979
30134SOL    HW192299   4.112   4.019   0.957
30134SOL    HW292300   4.053   3.893   1.016
30135SOL     OW92301   3.755   6.229   8.140
30135SOL    HW192302   3.765   6.149   8.191
30135SOL    HW292303   3.727   6.295   8.204
30136SOL     OW92304   7.113  11.692  12.511
30136SOL    HW192305   7.084  11.695  12.420
30136SOL    HW292306   7.062  11.622  12.550
30137SOL     OW92307   7.815   7.735   7.994
30137SOL    HW192308   7.845   7.646   8.011
30137SOL    HW292309   7.893   7.789   8.007
30138SOL     OW92310  14.116  12.917   6.091
30138SOL    HW192311  14.096  12.840   6.144
30138SOL    HW292312  14.075  12.990   6.138
30139SOL     OW92313   9.632  14.401   5.209
30139SOL    HW192314   9.565  14.449   5.161
30139SOL    HW292315   9.651  14.455   5.285
30140SOL     OW92316  11.542   1.340  11.729
30140SOL    HW192317  11.536   1.276  11.659
30140SOL    HW292318  11.475   1.405  11.708
30141SOL     OW92319   3.779   4.398   9.480
30141SOL    HW192320   3.865   4.357   9.487
30141SOL    HW292321   3.769   4.417   9.387
30142SOL     OW92322  10.190  10.959   0.922
30142SOL    HW192323  10.148  11.032   0.968
30142SOL    HW292324  10.261  11.000   0.873
30143SOL     OW92325   8.372   1.001   3.396
30143SOL    HW192326   8.413   0.983   3.311
30143SOL    HW292327   8.328   0.920   3.419
30144SOL     OW92328  13.535   3.420   9.441
30144SOL    HW192329  13.572   3.458   9.361
30144SOL    HW292330  13.511   3.331   9.416
30145SOL     OW92331   9.937   4.398  14.585
30145SOL    HW192332   9.976   4.349  14.513
30145SOL    HW292333   9.844   4.378  14.580
30146SOL     OW92334   7.789   2.403   8.965
30146SOL    HW192335   7.792   2.452   9.047
30146SOL    HW292336   7.879   2.409   8.931
30147SOL     OW92337  12.455  12.720   7.499
30147SOL    HW192338  12.537  12.671   7.506
30147SOL    HW292339  12.386  12.653   7.504
30148SOL     OW92340   1.547   4.025   9.121
30148SOL    HW192341   1.478   3.998   9.181
30148SOL    HW292342   1.628   3.997   9.163
30149SOL     OW92343   1.873  10.357  12.331
30149SOL    HW192344   1.857  10.391  12.419
30149SOL    HW292345   1.894  10.264  12.345
30150SOL     OW92346   3.170   1.019  11.574
30150SOL    HW192347   3.201   0.980  11.492
30150SOL    HW292348   3.167   1.113  11.556
30151SOL     OW92349   5.059   1.088   9.481
30151SOL    HW192350   5.033   1.179   9.483
30151SOL    HW292351   4.991   1.044   9.430
30152SOL     OW92352   7.260   3.112   8.323
30152SOL    HW192353   7.224   3.174   8.259
30152SOL    HW292354   7.305   3.167   8.387
30153SOL     OW92355   9.091   8.507  13.281
30153SOL    HW192356   9.166   8.470  13.328
30153SOL    HW292357   9.053   8.570  13.342
30154SOL     OW92358  12.074  12.964   7.647
30154SOL    HW192359  12.108  12.987   7.733
30154SOL    HW292360  12.066  12.868   7.648
30155SOL     OW92361  10.779  12.116  12.044
30155SOL    HW192362  10.826  12.147  12.121
30155SOL    HW292363  10.784  12.020  12.051
30156SOL     OW92364   6.008  13.004  11.179
30156SOL    HW192365   6.056  12.989  11.098
30156SOL    HW292366   5.916  12.987  11.155
30157SOL     OW92367   9.203   2.073   4.408
30157SOL    HW192368   9.113   2.059   4.438
30157SOL    HW292369   9.193   2.100   4.316
30158SOL     OW92370   0.366   9.578   1.873
30158SOL    HW192371   0.280   9.586   1.913
30158SOL    HW292372   0.384   9.484   1.871
30159SOL     OW92373   7.206  14.676   1.170
30159SOL    HW192374   7.163  14.590   1.173
30159SOL    HW292375   7.171  14.717   1.091
30160SOL     OW92376   2.686   8.144   0.292
30160SOL    HW192377   2.662   8.051   0.287
30160SOL    HW292378   2.680   8.175   0.201
30161SOL     OW92379  14.302   7.854   4.883
30161SOL    HW192380  14.366   7.864   4.953
30161SOL    HW292381  14.241   7.927   4.896
30162SOL     OW92382   6.458   6.163   3.161
30162SOL    HW192383   6.373   6.165   3.204
30162SOL    HW292384   6.520   6.187   3.230
30163SOL     OW92385  11.519   2.070   1.508
30163SOL    HW192386  11.582   2.044   1.440
30163SOL    HW292387  11.559   2.040   1.589
30164SOL     OW92388   8.090   7.219  11.094
30164SOL    HW192389   8.082   7.291  11.031
30164SOL    HW292390   8.018   7.234  11.156
30165SOL     OW92391   4.577  13.516  10.837
30165SOL    HW192392   4.541  13.601  10.865
30165SOL    HW292393   4.644  13.496  10.902
30166SOL     OW92394   9.767  12.193  10.554
30166SOL    HW192395   9.822  12.145  10.615
30166SOL    HW292396   9.752  12.278  10.597
30167SOL     OW92397   8.802   8.331   7.584
30167SOL    HW192398   8.745   8.312   7.659
30167SOL    HW292399   8.827   8.245   7.551
30168SOL     OW92400   9.089  14.103  13.162
30168SOL    HW192401   9.022  14.043  13.128
30168SOL    HW292402   9.047  14.188  13.162
30169SOL     OW92403   9.693   9.434   9.030
30169SOL    HW192404   9.751   9.364   8.998
30169SOL    HW292405   9.751   9.493   9.078
30170SOL     OW92406  14.435   9.633  13.797
30170SOL    HW192407  14.444   9.703  13.862
30170SOL    HW292408  14.513   9.640  13.743
30171SOL     OW92409   2.421   4.070  10.521
30171SOL    HW192410   2.334   4.105  10.540
30171SOL    HW292411   2.450   4.119  10.444
30172SOL     OW92412  14.657   4.665  11.106
30172SOL    HW192413  14.727   4.702  11.053
30172SOL    HW292414  14.644   4.729  11.176
30173SOL     OW92415   3.664  13.585   3.704
30173SOL    HW192416   3.676  13.518   3.637
30173SOL    HW292417   3.749  13.630   3.709
30174SOL     OW92418   4.231  12.655   6.883
30174SOL    HW192419   4.216  12.564   6.908
30174SOL    HW292420   4.294  12.650   6.811
30175SOL     OW92421  13.407   9.396   1.925
30175SOL    HW192422  13.376   9.306   1.932
30175SOL    HW292423  13.328   9.448   1.912
30176SOL     OW92424   0.986  10.118   6.587
30176SOL    HW192425   1.063  10.150   6.540
30176SOL    HW292426   0.918  10.181   6.566
30177SOL     OW92427  10.006   6.131   7.253
30177SOL    HW192428  10.016   6.224   7.274
30177SOL    HW292429   9.951   6.097   7.324
30178SOL     OW92430  12.989   3.065   5.601
30178SOL    HW192431  13.049   3.117   5.548
30178SOL    HW292432  12.952   3.002   5.540
30179SOL     OW92433   1.947   1.416   3.770
30179SOL    HW192434   2.007   1.395   3.699
30179SOL    HW292435   1.871   1.359   3.755
30180SOL     OW92436  14.583   6.513  11.119
30180SOL    HW192437  14.567   6.605  11.098
30180SOL    HW292438  14.641   6.515  11.195
30181SOL     OW92439  10.234  12.292   0.304
30181SOL    HW192440  10.227  12.381   0.269
30181SOL    HW292441  10.144  12.259   0.301
30182SOL     OW92442  14.084   7.396  10.926
30182SOL    HW192443  14.164   7.442  10.952
30182SOL    HW292444  14.086   7.314  10.975
30183SOL     OW92445   7.523   9.496   3.599
30183SOL    HW192446   7.495   9.537   3.681
30183SOL    HW292447   7.514   9.566   3.533
30184SOL     OW92448   6.986   0.891   3.684
30184SOL    HW192449   7.070   0.858   3.651
30184SOL    HW292450   6.920   0.848   3.630
30185SOL     OW92451  13.126  11.297   7.089
30185SOL    HW192452  13.198  11.350   7.122
30185SOL    HW292453  13.049  11.355   7.096
30186SOL     OW92454   2.254  11.051   5.295
30186SOL    HW192455   2.253  10.992   5.371
30186SOL    HW292456   2.344  11.049   5.264
30187SOL     OW92457  10.019  14.714  14.214
30187SOL    HW192458   9.926  14.725  14.235
30187SOL    HW292459  10.038  14.623  14.237
30188SOL     OW92460   9.758  12.210   4.481
30188SOL    HW192461   9.832  12.161   4.447
30188SOL    HW292462   9.706  12.233   4.404
30189SOL     OW92463  13.773   7.442   2.848
30189SOL    HW192464  13.787   7.409   2.759
30189SOL    HW292465  13.783   7.537   2.840
30190SOL     OW92466   8.291  10.154  11.623
30190SOL    HW192467   8.231  10.186  11.556
30190SOL    HW292468   8.309  10.063  11.599
30191SOL     OW92469   3.969   3.151   3.399
30191SOL    HW192470   3.998   3.241   3.417
30191SOL    HW292471   4.008   3.099   3.468
30192SOL     OW92472  13.093   1.094   4.499
30192SOL    HW192473  13.015   1.081   4.444
30192SOL    HW292474  13.083   1.031   4.570
30193SOL     OW92475  10.299   9.401  12.764
30193SOL    HW192476  10.388   9.388  12.796
30193SOL    HW292477  10.310   9.448  12.681
30194SOL     OW92478  12.112   8.230   0.191
30194SOL    HW192479  12.092   8.151   0.141
30194SOL    HW292480  12.032   8.282   0.187
30195SOL     OW92481   1.393   5.945   6.750
30195SOL    HW192482   1.413   5.916   6.839
30195SOL    HW292483   1.330   5.880   6.717
30196SOL     OW92484   3.742   8.242   6.546
30196SOL    HW192485   3.658   8.214   6.582
30196SOL    HW292486   3.795   8.263   6.623
30197SOL     OW92487   1.496   7.133   1.565
30197SOL    HW192488   1.454   7.102   1.485
30197SOL    HW292489   1.562   7.067   1.585
30198SOL     OW92490   9.200   8.423   2.838
30198SOL    HW192491   9.139   8.360   2.799
30198SOL    HW292492   9.158   8.508   2.826
30199SOL     OW92493   4.930  14.017   0.270
30199SOL    HW192494   5.004  13.986   0.218
30199SOL    HW292495   4.852  13.986   0.223
30200SOL     OW92496  11.388   7.597   2.743
30200SOL    HW192497  11.350   7.571   2.827
30200SOL    HW292498  11.404   7.515   2.697
30201SOL     OW92499   4.453  14.427  10.528
30201SOL    HW192500   4.494  14.483  10.462
30201SOL    HW292501   4.484  14.339  10.508
30202SOL     OW92502   6.480   7.376  11.470
30202SOL    HW192503   6.425   7.300  11.447
30202SOL    HW292504   6.419   7.449  11.473
30203SOL     OW92505   5.655   7.577  12.035
30203SOL    HW192506   5.728   7.627  12.072
30203SOL    HW292507   5.598   7.642  11.995
30204SOL     OW92508  11.210   7.498   3.818
30204SOL    HW192509  11.123   7.460   3.808
30204SOL    HW292510  11.224   7.503   3.912
30205SOL     OW92511  10.484   6.476   7.670
30205SOL    HW192512  10.457   6.388   7.699
30205SOL    HW292513  10.417   6.534   7.705
30206SOL     OW92514  13.306   0.449   6.651
30206SOL    HW192515  13.344   0.370   6.691
30206SOL    HW292516  13.361   0.520   6.683
30207SOL     OW92517  10.023   7.367  11.443
30207SOL    HW192518  10.110   7.334  11.463
30207SOL    HW292519   9.967   7.290  11.445
30208SOL     OW92520   9.028   1.034   5.558
30208SOL    HW192521   9.085   1.103   5.593
30208SOL    HW292522   9.072   1.006   5.478
30209SOL     OW92523  12.084   0.317  14.764
30209SOL    HW192524  12.008   0.343  14.816
30209SOL    HW292525  12.147   0.283  14.828
30210SOL     OW92526  14.528   6.104   6.456
30210SOL    HW192527  14.523   6.060   6.540
30210SOL    HW292528  14.500   6.194   6.474
30211SOL     OW92529   0.454   6.093   1.230
30211SOL    HW192530   0.408   6.166   1.189
30211SOL    HW292531   0.540   6.092   1.187
30212SOL     OW92532   9.358   4.545   7.183
30212SOL    HW192533   9.440   4.575   7.144
30212SOL    HW292534   9.329   4.618   7.237
30213SOL     OW92535   1.782  14.874  11.676
30213SOL    HW192536   1.764  14.782  11.695
30213SOL    HW292537   1.731   0.005  11.596
30214SOL     OW92538  10.938  10.066   7.102
30214SOL    HW192539  11.007  10.059   7.036
30214SOL    HW292540  10.968  10.136   7.160
30215SOL     OW92541  14.786   5.678   1.312
30215SOL    HW192542  14.785   5.584   1.328
30215SOL    HW292543  14.801   5.717   1.398
30216SOL     OW92544   9.412   8.775  12.071
30216SOL    HW192545   9.503   8.744  12.073
30216SOL    HW292546   9.369   8.718  12.007
30217SOL     OW92547   5.456   3.614  14.484
30217SOL    HW192548   5.513   3.538  14.497
30217SOL    HW292549   5.377   3.577  14.443
30218SOL     OW92550   9.228   5.956   4.335
30218SOL    HW192551   9.249   5.955   4.428
30218SOL    HW292552   9.195   5.868   4.316
30219SOL     OW92553   5.083  10.489  14.488
30219SOL    HW192554   5.012  10.435  14.525
30219SOL    HW292555   5.156  10.477  14.549
30220SOL     OW92556   9.111  11.725  11.863
30220SOL    HW192557   9.132  11.635  11.841
30220SOL    HW292558   9.110  11.771  11.779
30221SOL     OW92559  14.483  13.492   3.380
30221SOL    HW192560  14.487  13.408   3.426
30221SOL    HW292561  14.574  13.521   3.376
30222SOL     OW92562   9.319   7.994   9.748
30222SOL    HW192563   9.354   7.939   9.678
30222SOL    HW292564   9.312   7.935   9.823
30223SOL     OW92565   8.968   9.717  11.920
30223SOL    HW192566   8.970   9.679  11.832
30223SOL    HW292567   8.888   9.683  11.959
30224SOL     OW92568  13.986  11.499   4.186
30224SOL    HW192569  14.050  11.429   4.175
30224SOL    HW292570  13.958  11.520   4.097
30225SOL     OW92571   2.468  13.381   5.280
30225SOL    HW192572   2.408  13.347   5.346
30225SOL    HW292573   2.448  13.474   5.274
30226SOL     OW92574  13.726   3.385   7.156
30226SOL    HW192575  13.816   3.356   7.143
30226SOL    HW292576  13.691   3.392   7.067
30227SOL     OW92577   4.696   5.944  10.613
30227SOL    HW192578   4.663   6.008  10.550
30227SOL    HW292579   4.791   5.947  10.603
30228SOL     OW92580  12.522   6.556   9.827
30228SOL    HW192581  12.504   6.574   9.735
30228SOL    HW292582  12.484   6.631   9.874
30229SOL     OW92583   2.739  10.674  13.621
30229SOL    HW192584   2.800  10.604  13.645
30229SOL    HW292585   2.729  10.725  13.702
30230SOL     OW92586   8.121  12.806   1.281
30230SOL    HW192587   8.114  12.716   1.249
30230SOL    HW292588   8.126  12.798   1.376
30231SOL     OW92589  10.475  11.652  10.067
30231SOL    HW192590  10.485  11.719  10.135
30231SOL    HW292591  10.382  11.627  10.072
30232SOL     OW92592   4.608   0.925  10.222
30232SOL    HW192593   4.678   0.887  10.169
30232SOL    HW292594   4.619   0.886  10.309
30233SOL     OW92595   8.396   2.571  13.756
30233SOL    HW192596   8.403   2.586  13.850
30233SOL    HW292597   8.459   2.631  13.717
30234SOL     OW92598  13.233   3.321   6.810
30234SOL    HW192599  13.177   3.244   6.820
30234SOL    HW292600  13.298   3.312   6.880
30235SOL     OW92601  14.028   5.282  10.498
30235SOL    HW192602  13.989   5.254  10.581
30235SOL    HW292603  14.021   5.378  10.499
30236SOL     OW92604  14.437  13.606  11.149
30236SOL    HW192605  14.383  13.542  11.102
30236SOL    HW292606  14.522  13.600  11.108
30237SOL     OW92607   2.766   4.891  14.263
30237SOL    HW192608   2.687   4.925  14.306
30237SOL    HW292609   2.735   4.817  14.211
30238SOL     OW92610   0.371   5.966   1.489
30238SOL    HW192611   0.421   5.998   1.414
30238SOL    HW292612   0.385   5.871   1.487
30239SOL     OW92613   0.233   3.454   6.864
30239SOL    HW192614   0.160   3.402   6.830
30239SOL    HW292615   0.309   3.397   6.857
30240SOL     OW92616   1.455  12.882  13.154
30240SOL    HW192617   1.439  12.809  13.214
30240SOL    HW292618   1.378  12.939  13.165
30241SOL     OW92619   0.842  12.586   6.638
30241SOL    HW192620   0.780  12.608   6.568
30241SOL    HW292621   0.923  12.565   6.592
30242SOL     OW92622  12.245   4.493   1.306
30242SOL    HW192623  12.217   4.567   1.252
30242SOL    HW292624  12.340   4.490   1.294
30243SOL     OW92625  10.530  10.432   0.153
30243SOL    HW192626  10.463  10.392   0.208
30243SOL    HW292627  10.483  10.464   0.077
30244SOL     OW92628   7.962   7.656  11.715
30244SOL    HW192629   8.003   7.700  11.790
30244SOL    HW292630   7.967   7.563  11.737
30245SOL     OW92631  10.114   9.505  11.852
30245SOL    HW192632  10.049   9.474  11.790
30245SOL    HW292633  10.100   9.451  11.930
30246SOL     OW92634   9.980  12.782   1.400
30246SOL    HW192635  10.031  12.704   1.420
30246SOL    HW292636   9.929  12.798   1.479
30247SOL     OW92637   5.371   1.218   5.429
30247SOL    HW192638   5.397   1.223   5.522
30247SOL    HW292639   5.286   1.174   5.430
30248SOL     OW92640   8.457   5.865  11.496
30248SOL    HW192641   8.545   5.834  11.473
30248SOL    HW292642   8.443   5.832  11.585
30249SOL     OW92643  13.523   5.444   8.215
30249SOL    HW192644  13.452   5.381   8.225
30249SOL    HW292645  13.554   5.431   8.125
30250SOL     OW92646   9.457   8.423   2.589
30250SOL    HW192647   9.412   8.344   2.617
30250SOL    HW292648   9.389   8.491   2.588
30251SOL     OW92649   0.353   4.636   6.766
30251SOL    HW192650   0.314   4.582   6.834
30251SOL    HW292651   0.436   4.665   6.803
30252SOL     OW92652   1.183  10.186   4.813
30252SOL    HW192653   1.209  10.135   4.736
30252SOL    HW292654   1.088  10.174   4.819
30253SOL     OW92655   2.162   0.033   5.275
30253SOL    HW192656   2.220   0.070   5.341
30253SOL    HW292657   2.113   0.107   5.241
30254SOL     OW92658   8.489   8.592  10.183
30254SOL    HW192659   8.498   8.607  10.089
30254SOL    HW292660   8.451   8.505  10.191
30255SOL     OW92661   5.214   9.940  12.659
30255SOL    HW192662   5.291   9.948  12.715
30255SOL    HW292663   5.203  10.027  12.621
30256SOL     OW92664   9.409  13.140   0.203
30256SOL    HW192665   9.498  13.174   0.197
30256SOL    HW292666   9.406  13.094   0.287
30257SOL     OW92667   1.020  11.906  11.169
30257SOL    HW192668   1.095  11.938  11.118
30257SOL    HW292669   1.042  11.815  11.189
30258SOL     OW92670  11.804   6.730  14.088
30258SOL    HW192671  11.758   6.730  14.172
30258SOL    HW292672  11.840   6.819  14.081
30259SOL     OW92673  14.452   6.497   1.507
30259SOL    HW192674  14.468   6.536   1.593
30259SOL    HW292675  14.369   6.452   1.516
30260SOL     OW92676   0.023   1.714  10.841
30260SOL    HW192677  14.877   1.758  10.919
30260SOL    HW292678   0.107   1.677  10.867
30261SOL     OW92679  14.789   1.667   5.466
30261SOL    HW192680  14.725   1.602   5.496
30261SOL    HW292681  14.838   1.622   5.397
30262SOL     OW92682   5.098  12.211   1.988
30262SOL    HW192683   5.184  12.172   1.982
30262SOL    HW292684   5.056  12.167   2.062
30263SOL     OW92685  11.313  14.618   3.192
30263SOL    HW192686  11.399  14.656   3.174
30263SOL    HW292687  11.331  14.527   3.214
30264SOL     OW92688   6.623   9.850  13.975
30264SOL    HW192689   6.558   9.916  13.950
30264SOL    HW292690   6.678   9.841  13.897
30265SOL     OW92691  13.541  14.490   6.504
30265SOL    HW192692  13.608  14.492   6.435
30265SOL    HW292693  13.540  14.399   6.534
30266SOL     OW92694   5.782   8.463   4.850
30266SOL    HW192695   5.835   8.520   4.795
30266SOL    HW292696   5.843   8.423   4.911
30267SOL     OW92697   5.679   2.993   8.196
30267SOL    HW192698   5.613   2.999   8.265
30267SOL    HW292699   5.667   2.906   8.158
30268SOL     OW92700   9.871   8.780   7.767
30268SOL    HW192701   9.888   8.719   7.695
30268SOL    HW292702   9.949   8.775   7.821
30269SOL     OW92703   2.202   8.520   9.673
30269SOL    HW192704   2.145   8.567   9.733
30269SOL    HW292705   2.289   8.558   9.686
30270SOL     OW92706  13.308  12.807   5.285
30270SOL    HW192707  13.388  12.755   5.291
30270SOL    HW292708  13.242  12.748   5.249
30271SOL     OW92709   5.506   1.622   5.628
30271SOL    HW192710   5.533   1.657   5.713
30271SOL    HW292711   5.425   1.668   5.607
30272SOL     OW92712  10.974   7.888  14.804
30272SOL    HW192713  10.994   7.974  14.842
30272SOL    HW292714  10.882   7.894  14.779
30273SOL     OW92715   8.317   0.004  12.383
30273SOL    HW192716   8.402   0.021  12.423
30273SOL    HW292717   8.300  14.799  12.402
30274SOL     OW92718  10.922   6.775   0.816
30274SOL    HW192719  10.837   6.731   0.816
30274SOL    HW292720  10.935   6.801   0.907
30275SOL     OW92721  13.108  11.940   1.318
30275SOL    HW192722  13.192  11.982   1.298
30275SOL    HW292723  13.107  11.862   1.263
30276SOL     OW92724  12.638   1.580   2.903
30276SOL    HW192725  12.724   1.548   2.878
30276SOL    HW292726  12.647   1.608   2.994
30277SOL     OW92727  12.214   8.056   5.499
30277SOL    HW192728  12.134   8.086   5.458
30277SOL    HW292729  12.275   8.041   5.426
30278SOL     OW92730   9.489   9.570   3.300
30278SOL    HW192731   9.508   9.622   3.378
30278SOL    HW292732   9.431   9.625   3.248
30279SOL     OW92733   7.171   8.366  12.121
30279SOL    HW192734   7.254   8.324  12.097
30279SOL    HW292735   7.105   8.319  12.070
30280SOL     OW92736   4.590  11.928   0.139
30280SOL    HW192737   4.639  11.891   0.212
30280SOL    HW292738   4.507  11.958   0.178
30281SOL     OW92739   5.473   4.844   4.864
30281SOL    HW192740   5.500   4.768   4.812
30281SOL    HW292741   5.383   4.824   4.891
30282SOL     OW92742   3.043   3.162   5.470
30282SOL    HW192743   2.996   3.240   5.499
30282SOL    HW292744   3.114   3.195   5.415
30283SOL     OW92745   4.188   2.586  14.642
30283SOL    HW192746   4.194   2.495  14.671
30283SOL    HW292747   4.279   2.617  14.642
30284SOL     OW92748   1.109   2.529   3.592
30284SOL    HW192749   1.047   2.544   3.521
30284SOL    HW292750   1.132   2.616   3.623
30285SOL     OW92751   8.997   4.340   3.749
30285SOL    HW192752   9.056   4.410   3.720
30285SOL    HW292753   9.053   4.263   3.755
30286SOL     OW92754   8.591  14.596   8.256
30286SOL    HW192755   8.574  14.690   8.254
30286SOL    HW292756   8.586  14.568   8.165
30287SOL     OW92757   5.200   6.251  10.157
30287SOL    HW192758   5.182   6.308  10.083
30287SOL    HW292759   5.252   6.179  10.120
30288SOL     OW92760  14.360   7.167  10.224
30288SOL    HW192761  14.405   7.140  10.144
30288SOL    HW292762  14.335   7.084  10.266
30289SOL     OW92763   2.273   7.264   0.240
30289SOL    HW192764   2.251   7.300   0.326
30289SOL    HW292765   2.280   7.169   0.255
30290SOL     OW92766  11.676   2.527   7.036
30290SOL    HW192767  11.636   2.526   7.123
30290SOL    HW292768  11.612   2.483   6.980
30291SOL     OW92769   9.844   4.162   2.844
30291SOL    HW192770   9.925   4.151   2.894
30291SOL    HW292771   9.780   4.192   2.909
30292SOL     OW92772  10.173   7.546   9.547
30292SOL    HW192773  10.212   7.467   9.584
30292SOL    HW292774  10.155   7.602   9.623
30293SOL     OW92775   5.898   6.046   9.972
30293SOL    HW192776   5.805   6.061   9.955
30293SOL    HW292777   5.941   6.068   9.889
30294SOL     OW92778  10.341   8.577   2.578
30294SOL    HW192779  10.409   8.638   2.605
30294SOL    HW292780  10.328   8.595   2.485
30295SOL     OW92781  14.616  10.818   4.915
30295SOL    HW192782  14.656  10.832   5.000
30295SOL    HW292783  14.580  10.729   4.919
30296SOL     OW92784   0.240   6.217   1.074
30296SOL    HW192785   0.172   6.273   1.110
30296SOL    HW292786   0.227   6.132   1.116
30297SOL     OW92787   5.688  13.854   6.776
30297SOL    HW192788   5.727  13.808   6.701
30297SOL    HW292789   5.650  13.933   6.738
30298SOL     OW92790  13.512   8.172   0.714
30298SOL    HW192791  13.534   8.149   0.624
30298SOL    HW292792  13.505   8.088   0.760
30299SOL     OW92793   9.885   6.131   6.753
30299SOL    HW192794   9.924   6.053   6.713
30299SOL    HW292795   9.895   6.117   6.847
30300SOL     OW92796   6.938   7.293   3.085
30300SOL    HW192797   6.854   7.283   3.129
30300SOL    HW292798   6.995   7.227   3.126
30301SOL     OW92799  11.147   3.871   2.017
30301SOL    HW192800  11.178   3.783   1.997
30301SOL    HW292801  11.208   3.904   2.083
30302SOL     OW92802  14.679   4.094   9.914
30302SOL    HW192803  14.768   4.075   9.944
30302SOL    HW292804  14.647   4.161   9.975
30303SOL     OW92805   6.939   4.775   2.211
30303SOL    HW192806   6.974   4.757   2.124
30303SOL    HW292807   6.951   4.693   2.259
30304SOL     OW92808   1.133   0.206   2.499
30304SOL    HW192809   1.047   0.181   2.466
30304SOL    HW292810   1.125   0.298   2.524
30305SOL     OW92811   2.229  11.601   3.625
30305SOL    HW192812   2.322  11.619   3.636
30305SOL    HW292813   2.193  11.683   3.591
30306SOL     OW92814  10.684   3.673   4.135
30306SOL    HW192815  10.597   3.646   4.166
30306SOL    HW292816  10.699   3.621   4.057
30307SOL     OW92817   1.938   6.143   6.521
30307SOL    HW192818   1.982   6.172   6.601
30307SOL    HW292819   1.936   6.221   6.465
30308SOL     OW92820   5.937   5.588   4.396
30308SOL    HW192821   6.026   5.616   4.378
30308SOL    HW292822   5.946   5.502   4.437
30309SOL     OW92823   2.818   9.220  11.237
30309SOL    HW192824   2.872   9.292  11.269
30309SOL    HW292825   2.772   9.256  11.160
30310SOL     OW92826  14.564   8.960   9.948
30310SOL    HW192827  14.555   9.016   9.871
30310SOL    HW292828  14.656   8.968   9.973
30311SOL     OW92829   8.114  10.174  13.513
30311SOL    HW192830   8.100  10.193  13.421
30311SOL    HW292831   8.129  10.259  13.554
30312SOL     OW92832  12.382   2.537   7.673
30312SOL    HW192833  12.326   2.576   7.740
30312SOL    HW292834  12.378   2.599   7.600
30313SOL     OW92835   7.399   8.006  11.027
30313SOL    HW192836   7.318   8.058  11.020
30313SOL    HW292837   7.382   7.929  10.973
30314SOL     OW92838  13.195   2.569  14.493
30314SOL    HW192839  13.118   2.570  14.436
30314SOL    HW292840  13.183   2.645  14.551
30315SOL     OW92841  10.841   3.473   3.668
30315SOL    HW192842  10.847   3.534   3.594
30315SOL    HW292843  10.758   3.427   3.654
30316SOL     OW92844  10.196   1.454   4.746
30316SOL    HW192845  10.105   1.458   4.718
30316SOL    HW292846  10.191   1.444   4.841
30317SOL     OW92847   9.134  10.922  11.145
30317SOL    HW192848   9.203  10.973  11.187
30317SOL    HW292849   9.165  10.831  11.149
30318SOL     OW92850   1.031   7.630   9.293
30318SOL    HW192851   0.983   7.548   9.288
30318SOL    HW292852   1.109   7.616   9.238
30319SOL     OW92853  11.947   1.115  12.257
30319SOL    HW192854  11.883   1.185  12.272
30319SOL    HW292855  11.971   1.085  12.344
30320SOL     OW92856   4.881   3.943  14.163
30320SOL    HW192857   4.861   4.020  14.215
30320SOL    HW292858   4.933   3.887  14.220
30321SOL     OW92859   1.653   1.771   5.227
30321SOL    HW192860   1.643   1.708   5.298
30321SOL    HW292861   1.568   1.813   5.219
30322SOL     OW92862   4.488   8.751   0.208
30322SOL    HW192863   4.447   8.770   0.124
30322SOL    HW292864   4.521   8.836   0.238
30323SOL     OW92865   0.183   8.214   0.928
30323SOL    HW192866   0.225   8.142   0.881
30323SOL    HW292867   0.248   8.242   0.992
30324SOL     OW92868   9.707   8.413   0.068
30324SOL    HW192869   9.665   8.477   0.011
30324SOL    HW292870   9.651   8.335   0.064
30325SOL     OW92871   9.546  10.781   4.985
30325SOL    HW192872   9.511  10.725   4.916
30325SOL    HW292873   9.474  10.793   5.046
30326SOL     OW92874   1.360   1.327   4.182
30326SOL    HW192875   1.398   1.247   4.217
30326SOL    HW292876   1.400   1.397   4.232
30327SOL     OW92877  13.674   4.910   6.785
30327SOL    HW192878  13.605   4.916   6.851
30327SOL    HW292879  13.741   4.972   6.815
30328SOL     OW92880   0.157   0.078   7.519
30328SOL    HW192881   0.209   0.158   7.512
30328SOL    HW292882   0.100   0.080   7.442
30329SOL     OW92883   6.287   3.655   2.330
30329SOL    HW192884   6.245   3.740   2.321
30329SOL    HW292885   6.344   3.648   2.254
30330SOL     OW92886   0.234   4.565   7.768
30330SOL    HW192887   0.237   4.478   7.728
30330SOL    HW292888   0.325   4.592   7.774
30331SOL     OW92889  11.802   5.643   7.142
30331SOL    HW192890  11.715   5.619   7.174
30331SOL    HW292891  11.785   5.714   7.080
30332SOL     OW92892   1.874   7.184   2.244
30332SOL    HW192893   1.937   7.220   2.307
30332SOL    HW292894   1.873   7.247   2.172
30333SOL     OW92895  14.203   2.991  12.570
30333SOL    HW192896  14.284   2.953  12.604
30333SOL    HW292897  14.187   2.943  12.488
30334SOL     OW92898   8.589  12.005   9.329
30334SOL    HW192899   8.642  12.084   9.320
30334SOL    HW292900   8.640  11.937   9.287
30335SOL     OW92901   6.517   8.929   8.792
30335SOL    HW192902   6.428   8.904   8.816
30335SOL    HW292903   6.514   9.025   8.787
30336SOL     OW92904   4.732   4.653   1.936
30336SOL    HW192905   4.660   4.707   1.903
30336SOL    HW292906   4.709   4.634   2.027
30337SOL     OW92907   1.075  12.143   8.383
30337SOL    HW192908   1.095  12.087   8.458
30337SOL    HW292909   1.114  12.227   8.405
30338SOL     OW92910   1.263  10.896  12.337
30338SOL    HW192911   1.310  10.843  12.401
30338SOL    HW292912   1.203  10.950  12.389
30339SOL     OW92913  14.702  13.546  11.071
30339SOL    HW192914  14.700  13.457  11.036
30339SOL    HW292915  14.744  13.598  11.003
30340SOL     OW92916   1.036   9.473   5.181
30340SOL    HW192917   1.057   9.461   5.088
30340SOL    HW292918   0.940   9.473   5.184
30341SOL     OW92919   3.763   6.727  13.434
30341SOL    HW192920   3.846   6.773  13.442
30341SOL    HW292921   3.748   6.719  13.340
30342SOL     OW92922   3.249   2.394  14.814
30342SOL    HW192923   3.165   2.406  14.771
30342SOL    HW292924   3.299   2.473  14.792
30343SOL     OW92925  11.556   3.106  11.178
30343SOL    HW192926  11.624   3.064  11.127
30343SOL    HW292927  11.503   3.154  11.114
30344SOL     OW92928   7.856  12.743   6.478
30344SOL    HW192929   7.778  12.694   6.450
30344SOL    HW292930   7.871  12.714   6.568
30345SOL     OW92931  12.469  12.869   2.814
30345SOL    HW192932  12.404  12.934   2.840
30345SOL    HW292933  12.531  12.867   2.887
30346SOL     OW92934   3.651   8.706   6.944
30346SOL    HW192935   3.570   8.754   6.929
30346SOL    HW292936   3.707   8.730   6.871
30347SOL     OW92937  13.078   7.515   8.673
30347SOL    HW192938  13.110   7.439   8.624
30347SOL    HW292939  13.099   7.494   8.765
30348SOL     OW92940   1.355  10.005  11.330
30348SOL    HW192941   1.407  10.050  11.397
30348SOL    HW292942   1.292  10.071  11.301
30349SOL     OW92943   6.857   5.220  10.841
30349SOL    HW192944   6.788   5.177  10.891
30349SOL    HW292945   6.879   5.298  10.892
30350SOL     OW92946  10.546   2.664   9.351
30350SOL    HW192947  10.627   2.622   9.323
30350SOL    HW292948  10.510   2.703   9.272
30351SOL     OW92949   0.264  10.204  11.187
30351SOL    HW192950   0.341  10.260  11.185
30351SOL    HW292951   0.249  10.181  11.095
30352SOL     OW92952   3.868   1.643   0.108
30352SOL    HW192953   3.814   1.661   0.185
30352SOL    HW292954   3.810   1.660   0.033
30353SOL     OW92955   7.056  11.191   4.922
30353SOL    HW192956   7.003  11.126   4.967
30353SOL    HW292957   6.994  11.239   4.867
30354SOL     OW92958  14.302   6.165  12.824
30354SOL    HW192959  14.220   6.212  12.812
30354SOL    HW292960  14.345   6.208  12.898
30355SOL     OW92961  10.708   3.849   2.088
30355SOL    HW192962  10.649   3.774   2.090
30355SOL    HW292963  10.654   3.923   2.116
30356SOL     OW92964   2.505   9.421  11.760
30356SOL    HW192965   2.440   9.484  11.727
30356SOL    HW292966   2.454   9.359  11.812
30357SOL     OW92967   0.943   2.624   8.374
30357SOL    HW192968   0.914   2.713   8.353
30357SOL    HW292969   0.862   2.575   8.386
30358SOL     OW92970   5.607  13.492   2.004
30358SOL    HW192971   5.611  13.454   2.092
30358SOL    HW292972   5.661  13.571   2.010
30359SOL     OW92973  14.549  10.285   2.207
30359SOL    HW192974  14.519  10.363   2.253
30359SOL    HW292975  14.569  10.316   2.119
30360SOL     OW92976  12.434   8.441   5.561
30360SOL    HW192977  12.456   8.453   5.653
30360SOL    HW292978  12.518   8.443   5.516
30361SOL     OW92979   8.871  11.219  11.510
30361SOL    HW192980   8.966  11.223  11.497
30361SOL    HW292981   8.843  11.140  11.464
30362SOL     OW92982   2.075  13.145   2.398
30362SOL    HW192983   2.089  13.052   2.415
30362SOL    HW292984   2.150  13.171   2.345
30363SOL     OW92985   2.144   6.697  10.016
30363SOL    HW192986   2.125   6.703   9.922
30363SOL    HW292987   2.150   6.603  10.033
30364SOL     OW92988  13.956   3.596   6.364
30364SOL    HW192989  13.900   3.668   6.335
30364SOL    HW292990  13.898   3.540   6.416
30365SOL     OW92991   5.286  14.183   6.821
30365SOL    HW192992   5.216  14.227   6.869
30365SOL    HW292993   5.241  14.113   6.773
30366SOL     OW92994   5.069   4.592   1.110
30366SOL    HW192995   5.143   4.538   1.083
30366SOL    HW292996   5.058   4.655   1.038
30367SOL     OW92997   5.911  13.218   2.793
30367SOL    HW192998   5.901  13.218   2.888
30367SOL    HW292999   5.926  13.126   2.770
30368SOL     OW93000   3.586   4.954   8.166
30368SOL    HW193001   3.673   4.960   8.206
30368SOL    HW293002   3.588   4.871   8.118
30369SOL     OW93003   2.138  11.444  14.660
30369SOL    HW193004   2.165  11.456  14.751
30369SOL    HW293005   2.044  11.427  14.666
30370SOL     OW93006   4.877   1.292   4.623
30370SOL    HW193007   4.841   1.350   4.556
30370SOL    HW293008   4.904   1.350   4.693
30371SOL     OW93009   9.565  10.808  12.900
30371SOL    HW193010   9.645  10.838  12.857
30371SOL    HW293011   9.559  10.715  12.879
30372SOL     OW93012   2.424   4.067   8.554
30372SOL    HW193013   2.421   4.152   8.598
30372SOL    HW293014   2.339   4.027   8.573
30373SOL     OW93015  14.261  12.418   9.111
30373SOL    HW193016  14.308  12.418   9.028
30373SOL    HW293017  14.313  12.362   9.168
30374SOL     OW93018   7.123   6.423   3.508
30374SOL    HW193019   7.054   6.357   3.499
30374SOL    HW293020   7.189   6.398   3.443
30375SOL     OW93021   0.862   5.713   0.967
30375SOL    HW193022   0.900   5.654   0.902
30375SOL    HW293023   0.902   5.798   0.948
30376SOL     OW93024   7.983  12.836   0.941
30376SOL    HW193025   8.010  12.771   1.006
30376SOL    HW293026   8.052  12.832   0.874
30377SOL     OW93027  13.584   9.557  14.262
30377SOL    HW193028  13.587   9.652  14.248
30377SOL    HW293029  13.650   9.523  14.202
30378SOL     OW93030  11.039   7.629   0.198
30378SOL    HW193031  10.981   7.636   0.122
30378SOL    HW293032  11.119   7.589   0.164
30379SOL     OW93033   6.086   4.658   6.061
30379SOL    HW193034   6.092   4.611   6.144
30379SOL    HW293035   5.993   4.681   6.053
30380SOL     OW93036   0.562   2.497   1.317
30380SOL    HW193037   0.580   2.563   1.385
30380SOL    HW293038   0.588   2.540   1.236
30381SOL     OW93039   7.582   2.659   8.844
30381SOL    HW193040   7.654   2.600   8.865
30381SOL    HW293041   7.611   2.705   8.765
30382SOL     OW93042  11.611   0.890   1.124
30382SOL    HW193043  11.660   0.970   1.107
30382SOL    HW293044  11.519   0.915   1.111
30383SOL     OW93045   8.801  12.201  11.011
30383SOL    HW193046   8.880  12.188  10.959
30383SOL    HW293047   8.783  12.115  11.049
30384SOL     OW93048   4.264   9.261   9.590
30384SOL    HW193049   4.341   9.264   9.647
30384SOL    HW293050   4.283   9.325   9.521
30385SOL     OW93051  11.788   4.484   0.873
30385SOL    HW193052  11.820   4.399   0.904
30385SOL    HW293053  11.858   4.517   0.817
30386SOL     OW93054  13.685  12.522  10.801
30386SOL    HW193055  13.775  12.540  10.830
30386SOL    HW293056  13.657  12.602  10.757
30387SOL     OW93057   9.554   0.404  11.707
30387SOL    HW193058   9.596   0.490  11.696
30387SOL    HW293059   9.551   0.368  11.618
30388SOL     OW93060   8.210   6.720   2.330
30388SOL    HW193061   8.192   6.655   2.262
30388SOL    HW293062   8.173   6.801   2.295
30389SOL     OW93063   6.067   7.429  10.937
30389SOL    HW193064   5.973   7.417  10.921
30389SOL    HW293065   6.105   7.343  10.920
30390SOL     OW93066   4.316   5.711  13.800
30390SOL    HW193067   4.267   5.713  13.882
30390SOL    HW293068   4.291   5.792  13.755
30391SOL     OW93069   7.432  14.131   8.256
30391SOL    HW193070   7.393  14.056   8.209
30391SOL    HW293071   7.357  14.173   8.298
30392SOL     OW93072   9.132  14.288   0.230
30392SOL    HW193073   9.205  14.325   0.280
30392SOL    HW293074   9.069  14.360   0.222
30393SOL     OW93075   0.952  12.104   3.493
30393SOL    HW193076   0.999  12.187   3.486
30393SOL    HW293077   0.995  12.058   3.565
30394SOL     OW93078   8.853  10.234   9.885
30394SOL    HW193079   8.767  10.262   9.856
30394SOL    HW293080   8.836  10.173   9.956
30395SOL     OW93081  11.339   2.900  12.978
30395SOL    HW193082  11.355   2.836  12.910
30395SOL    HW293083  11.390   2.977  12.952
30396SOL     OW93084  13.233  11.050   8.915
30396SOL    HW193085  13.177  10.976   8.941
30396SOL    HW293086  13.282  11.017   8.840
30397SOL     OW93087   9.708   9.043   8.736
30397SOL    HW193088   9.640   8.992   8.780
30397SOL    HW293089   9.666   9.075   8.656
30398SOL     OW93090   7.418  12.022   4.512
30398SOL    HW193091   7.388  12.064   4.592
30398SOL    HW293092   7.481  11.956   4.541
30399SOL     OW93093   4.964   3.537   8.057
30399SOL    HW193094   4.990   3.628   8.076
30399SOL    HW293095   4.885   3.546   8.004
30400SOL     OW93096   1.478   9.033   3.458
30400SOL    HW193097   1.485   9.117   3.412
30400SOL    HW293098   1.410   9.047   3.524
30401SOL     OW93099   0.903   0.135   4.102
30401SOL    HW193100   0.808   0.130   4.112
30401SOL    HW293101   0.925   0.065   4.040
30402SOL     OW93102   7.835   4.829   1.381
30402SOL    HW193103   7.747   4.862   1.362
30402SOL    HW293104   7.877   4.821   1.296
30403SOL     OW93105  14.028  11.140   7.391
30403SOL    HW193106  14.044  11.196   7.467
30403SOL    HW293107  14.096  11.164   7.328
30404SOL     OW93108  10.029   7.052  14.388
30404SOL    HW193109   9.975   6.974  14.399
30404SOL    HW293110  10.094   7.047  14.458
30405SOL     OW93111  10.377   2.856   2.875
30405SOL    HW193112  10.307   2.878   2.937
30405SOL    HW293113  10.343   2.783   2.825
30406SOL     OW93114  14.331   7.150   8.869
30406SOL    HW193115  14.361   7.228   8.822
30406SOL    HW293116  14.411   7.100   8.885
30407SOL     OW93117  10.603   0.050   2.487
30407SOL    HW193118  10.667   0.044   2.557
30407SOL    HW293119  10.636  14.879   2.419
30408SOL     OW93120   6.038   6.682   9.047
30408SOL    HW193121   5.977   6.626   8.999
30408SOL    HW293122   6.068   6.746   8.982
30409SOL     OW93123   5.034   5.512   2.948
30409SOL    HW193124   4.971   5.574   2.983
30409SOL    HW293125   5.117   5.535   2.990
30410SOL     OW93126   4.212   5.875   2.690
30410SOL    HW193127   4.265   5.953   2.673
30410SOL    HW293128   4.133   5.908   2.731
30411SOL     OW93129  10.738   7.569   7.441
30411SOL    HW193130  10.760   7.662   7.428
30411SOL    HW293131  10.676   7.550   7.370
30412SOL     OW93132   4.413  12.536  12.473
30412SOL    HW193133   4.326  12.540  12.514
30412SOL    HW293134   4.395  12.541  12.379
30413SOL     OW93135   2.054   4.603   4.889
30413SOL    HW193136   1.959   4.589   4.891
30413SOL    HW293137   2.073   4.652   4.969
30414SOL     OW93138  10.713   6.051  11.984
30414SOL    HW193139  10.673   6.065  12.070
30414SOL    HW293140  10.684   5.963  11.959
30415SOL     OW93141  13.640  12.230   4.644
30415SOL    HW193142  13.561  12.235   4.697
30415SOL    HW293143  13.656  12.320   4.615
30416SOL     OW93144  11.227   9.429   8.899
30416SOL    HW193145  11.140   9.398   8.874
30416SOL    HW293146  11.238   9.403   8.990
30417SOL     OW93147   0.197   3.953   6.575
30417SOL    HW193148   0.284   3.931   6.609
30417SOL    HW293149   0.171   3.876   6.525
30418SOL     OW93150  12.925   8.444   5.017
30418SOL    HW193151  12.831   8.424   5.011
30418SOL    HW293152  12.961   8.409   4.935
30419SOL     OW93153   8.876  13.260  13.240
30419SOL    HW193154   8.925  13.296  13.166
30419SOL    HW293155   8.942  13.219  13.295
30420SOL     OW93156   2.976   9.537   4.648
30420SOL    HW193157   3.028   9.519   4.727
30420SOL    HW293158   2.901   9.478   4.656
30421SOL     OW93159   0.129   3.647  14.146
30421SOL    HW193160   0.161   3.567  14.186
30421SOL    HW293161   0.128   3.711  14.217
30422SOL     OW93162  10.413   5.186  14.137
30422SOL    HW193163  10.336   5.206  14.189
30422SOL    HW293164  10.481   5.167  14.202
30423SOL     OW93165   5.896   3.747  14.266
30423SOL    HW193166   5.977   3.798  14.268
30423SOL    HW293167   5.827   3.813  14.254
30424SOL     OW93168   4.086   7.477   9.014
30424SOL    HW193169   3.991   7.481   9.011
30424SOL    HW293170   4.115   7.550   8.960
30425SOL     OW93171   0.299   1.078  13.160
30425SOL    HW193172   0.320   0.995  13.118
30425SOL    HW293173   0.384   1.119  13.176
30426SOL     OW93174   4.796   4.947  10.424
30426SOL    HW193175   4.795   4.853  10.441
30426SOL    HW293176   4.724   4.962  10.363
30427SOL     OW93177   6.865   3.184   4.393
30427SOL    HW193178   6.774   3.168   4.418
30427SOL    HW293179   6.884   3.271   4.426
30428SOL     OW93180   3.624  12.520   1.697
30428SOL    HW193181   3.530  12.500   1.706
30428SOL    HW293182   3.661  12.444   1.653
30429SOL     OW93183  11.195  11.336   1.667
30429SOL    HW193184  11.282  11.376   1.662
30429SOL    HW293185  11.168  11.327   1.576
30430SOL     OW93186   2.883   1.378   6.034
30430SOL    HW193187   2.846   1.290   6.031
30430SOL    HW293188   2.914   1.394   5.945
30431SOL     OW93189   8.782   9.943  12.628
30431SOL    HW193190   8.832  10.019  12.660
30431SOL    HW293191   8.840   9.902  12.564
30432SOL     OW93192  11.026  12.912   1.063
30432SOL    HW193193  10.940  12.870   1.060
30432SOL    HW293194  11.075  12.860   1.126
30433SOL     OW93195   2.763  11.360   5.568
30433SOL    HW193196   2.762  11.272   5.605
30433SOL    HW293197   2.767  11.346   5.473
30434SOL     OW93198   5.036  12.461   8.908
30434SOL    HW193199   5.115  12.493   8.865
30434SOL    HW293200   4.964  12.495   8.854
30435SOL     OW93201   1.736   1.019  12.675
30435SOL    HW193202   1.725   1.077  12.750
30435SOL    HW293203   1.788   1.069  12.613
30436SOL     OW93204   6.348   9.026   3.763
30436SOL    HW193205   6.321   8.934   3.763
30436SOL    HW293206   6.429   9.027   3.814
30437SOL     OW93207   4.318   7.532   2.891
30437SOL    HW193208   4.262   7.507   2.817
30437SOL    HW293209   4.288   7.476   2.962
30438SOL     OW93210  11.142   3.270  12.289
30438SOL    HW193211  11.189   3.198  12.332
30438SOL    HW293212  11.209   3.314  12.236
30439SOL     OW93213  12.182  14.606   1.574
30439SOL    HW193214  12.277  14.591   1.569
30439SOL    HW293215  12.172  14.700   1.559
30440SOL     OW93216   2.244   1.628  14.425
30440SOL    HW193217   2.304   1.578  14.481
30440SOL    HW293218   2.191   1.679  14.487
30441SOL     OW93219  12.289   8.226  13.288
30441SOL    HW193220  12.341   8.254  13.363
30441SOL    HW293221  12.314   8.285  13.217
30442SOL     OW93222   2.968   6.504  11.974
30442SOL    HW193223   2.884   6.511  11.928
30442SOL    HW293224   3.023   6.453  11.916
30443SOL     OW93225   5.001   9.510   6.279
30443SOL    HW193226   4.995   9.421   6.312
30443SOL    HW293227   5.058   9.555   6.341
30444SOL     OW93228   5.590   5.037   8.069
30444SOL    HW193229   5.593   5.118   8.019
30444SOL    HW293230   5.565   4.970   8.005
30445SOL     OW93231   3.262   7.935  12.274
30445SOL    HW193232   3.218   8.019  12.290
30445SOL    HW293233   3.219   7.874  12.334
30446SOL     OW93234   1.915  12.582   2.115
30446SOL    HW193235   1.904  12.487   2.104
30446SOL    HW293236   1.833  12.612   2.153
30447SOL     OW93237  13.858  14.045   0.276
30447SOL    HW193238  13.874  13.953   0.298
30447SOL    HW293239  13.882  14.053   0.184
30448SOL     OW93240   7.407   6.837   1.622
30448SOL    HW193241   7.448   6.894   1.687
30448SOL    HW293242   7.457   6.756   1.626
30449SOL     OW93243   0.501  13.491   9.829
30449SOL    HW193244   0.561  13.511   9.901
30449SOL    HW293245   0.452  13.414   9.859
30450SOL     OW93246   5.148   8.462   0.287
30450SOL    HW193247   5.094   8.401   0.338
30450SOL    HW293248   5.232   8.418   0.276
30451SOL     OW93249   9.807  13.352  11.399
30451SOL    HW193250   9.788  13.316  11.312
30451SOL    HW293251   9.727  13.337  11.449
30452SOL     OW93252   6.824   6.950   9.342
30452SOL    HW193253   6.835   7.019   9.406
30452SOL    HW293254   6.839   6.992   9.257
30453SOL     OW93255   8.255  13.649  11.915
30453SOL    HW193256   8.225  13.567  11.876
30453SOL    HW293257   8.330  13.624  11.969
30454SOL     OW93258   7.525   5.775   7.761
30454SOL    HW193259   7.488   5.800   7.845
30454SOL    HW293260   7.595   5.714   7.782
30455SOL     OW93261   2.183  12.793   7.404
30455SOL    HW193262   2.224  12.878   7.388
30455SOL    HW293263   2.156  12.763   7.317
30456SOL     OW93264   0.162   8.132   6.932
30456SOL    HW193265   0.129   8.063   6.874
30456SOL    HW293266   0.196   8.086   7.008
30457SOL     OW93267   4.664  10.464   4.315
30457SOL    HW193268   4.719  10.533   4.352
30457SOL    HW293269   4.725  10.393   4.294
30458SOL     OW93270   0.100   9.134   8.279
30458SOL    HW193271   0.164   9.101   8.216
30458SOL    HW293272   0.025   9.161   8.226
30459SOL     OW93273   2.410   5.373   5.418
30459SOL    HW193274   2.338   5.437   5.413
30459SOL    HW293275   2.412   5.333   5.331
30460SOL     OW93276   1.896   5.878   2.507
30460SOL    HW193277   1.838   5.918   2.571
30460SOL    HW293278   1.884   5.931   2.428
30461SOL     OW93279  14.527  10.582   2.079
30461SOL    HW193280  14.597  10.521   2.056
30461SOL    HW293281  14.563  10.668   2.059
30462SOL     OW93282   4.102   8.561   7.240
30462SOL    HW193283   4.111   8.610   7.157
30462SOL    HW293284   4.070   8.626   7.302
30463SOL     OW93285  10.484   9.454  11.090
30463SOL    HW193286  10.412   9.501  11.132
30463SOL    HW293287  10.467   9.362  11.108
30464SOL     OW93288   1.705  11.390  10.916
30464SOL    HW193289   1.741  11.395  10.828
30464SOL    HW293290   1.781  11.389  10.974
30465SOL     OW93291   8.662  11.658   9.679
30465SOL    HW193292   8.693  11.568   9.691
30465SOL    HW293293   8.738  11.705   9.643
30466SOL     OW93294   2.746   5.529   4.883
30466SOL    HW193295   2.705   5.509   4.798
30466SOL    HW293296   2.723   5.454   4.938
30467SOL     OW93297  12.769  14.146  14.577
30467SOL    HW193298  12.761  14.239  14.599
30467SOL    HW293299  12.760  14.100  14.660
30468SOL     OW93300   1.386   0.035   6.228
30468SOL    HW193301   1.425  14.880   6.304
30468SOL    HW293302   1.422  14.876   6.153
30469SOL     OW93303   9.727   2.179   4.958
30469SOL    HW193304   9.691   2.254   4.912
30469SOL    HW293305   9.731   2.207   5.050
30470SOL     OW93306  11.279   9.431  13.741
30470SOL    HW193307  11.187   9.449  13.760
30470SOL    HW293308  11.283   9.428  13.645
30471SOL     OW93309   1.819   2.730  11.451
30471SOL    HW193310   1.899   2.703  11.496
30471SOL    HW293311   1.810   2.823  11.470
30472SOL     OW93312   5.819   9.694   2.437
30472SOL    HW193313   5.762   9.642   2.380
30472SOL    HW293314   5.771   9.698   2.520
30473SOL     OW93315   7.201   4.002  13.576
30473SOL    HW193316   7.212   3.950  13.497
30473SOL    HW293317   7.159   3.942  13.638
30474SOL     OW93318  14.097   7.568  11.175
30474SOL    HW193319  14.164   7.575  11.107
30474SOL    HW293320  14.096   7.475  11.198
30475SOL     OW93321   0.864   8.750   0.141
30475SOL    HW193322   0.852   8.696   0.063
30475SOL    HW293323   0.863   8.688   0.213
30476SOL     OW93324  14.205  13.058   9.617
30476SOL    HW193325  14.256  13.103   9.550
30476SOL    HW293326  14.171  13.129   9.672
30477SOL     OW93327  10.165   3.947  14.357
30477SOL    HW193328  10.137   3.901  14.436
30477SOL    HW293329  10.102   3.921  14.290
30478SOL     OW93330   8.985  13.757   7.931
30478SOL    HW193331   8.896  13.763   7.964
30478SOL    HW293332   8.978  13.705   7.851
30479SOL     OW93333   8.684   8.504  12.184
30479SOL    HW193334   8.732   8.540  12.109
30479SOL    HW293335   8.740   8.435  12.218
30480SOL     OW93336   1.261  14.200   9.593
30480SOL    HW193337   1.166  14.203   9.586
30480SOL    HW293338   1.289  14.292   9.588
30481SOL     OW93339  12.633   1.629   4.583
30481SOL    HW193340  12.671   1.636   4.495
30481SOL    HW293341  12.609   1.537   4.591
30482SOL     OW93342   1.851   2.155   6.930
30482SOL    HW193343   1.757   2.140   6.933
30482SOL    HW293344   1.885   2.081   6.879
30483SOL     OW93345   5.922  10.849   2.352
30483SOL    HW193346   5.905  10.800   2.433
30483SOL    HW293347   6.017  10.861   2.351
30484SOL     OW93348   9.473   0.754   7.047
30484SOL    HW193349   9.388   0.736   7.087
30484SOL    HW293350   9.523   0.673   7.063
30485SOL     OW93351   0.013  13.900   7.484
30485SOL    HW193352  14.874  13.970   7.543
30485SOL    HW293353  14.819  13.864   7.450
30486SOL     OW93354  14.186   5.831   4.100
30486SOL    HW193355  14.097   5.804   4.125
30486SOL    HW293356  14.229   5.851   4.183
30487SOL     OW93357   2.714   4.388   5.054
30487SOL    HW193358   2.741   4.471   5.092
30487SOL    HW293359   2.796   4.341   5.039
30488SOL     OW93360   9.894   6.475   4.940
30488SOL    HW193361   9.844   6.523   5.006
30488SOL    HW293362   9.906   6.388   4.978
30489SOL     OW93363  13.476  10.742   7.652
30489SOL    HW193364  13.533  10.690   7.595
30489SOL    HW293365  13.531  10.814   7.681
30490SOL     OW93366   2.689  10.230   9.291
30490SOL    HW193367   2.620  10.211   9.228
30490SOL    HW293368   2.646  10.284   9.357
30491SOL     OW93369   8.026   2.639   6.343
30491SOL    HW193370   7.948   2.587   6.358
30491SOL    HW293371   7.994   2.726   6.321
30492SOL     OW93372  10.182  13.548   0.037
30492SOL    HW193373  10.110  13.487   0.019
30492SOL    HW293374  10.260  13.492   0.041
30493SOL     OW93375   2.179   3.929   8.612
30493SOL    HW193376   2.194   3.940   8.706
30493SOL    HW293377   2.090   3.894   8.606
30494SOL     OW93378   9.478   9.390   6.910
30494SOL    HW193379   9.468   9.470   6.859
30494SOL    HW293380   9.434   9.408   6.993
30495SOL     OW93381   3.460   0.739   9.411
30495SOL    HW193382   3.520   0.708   9.480
30495SOL    HW293383   3.506   0.722   9.329
30496SOL     OW93384  10.376  11.961   7.317
30496SOL    HW193385  10.281  11.953   7.323
30496SOL    HW293386  10.392  12.055   7.327
30497SOL     OW93387   9.619  11.712  11.674
30497SOL    HW193388   9.698  11.663  11.698
30497SOL    HW293389   9.575  11.656  11.610
30498SOL     OW93390  13.783   5.869  10.040
30498SOL    HW193391  13.739   5.805   9.983
30498SOL    HW293392  13.726   5.874  10.117
30499SOL     OW93393   0.130   9.532  12.287
30499SOL    HW193394   0.172   9.583  12.218
30499SOL    HW293395   0.133   9.589  12.364
30500SOL     OW93396  12.762  13.093  14.802
30500SOL    HW193397  12.735  13.127  14.716
30500SOL    HW293398  12.693  13.123  14.861
30501SOL     OW93399   7.880   3.822  10.633
30501SOL    HW193400   7.966   3.851  10.662
30501SOL    HW293401   7.878   3.728  10.653
30502SOL     OW93402  12.845   7.402   2.726
30502SOL    HW193403  12.900   7.335   2.767
30502SOL    HW293404  12.906   7.458   2.678
30503SOL     OW93405  10.366  12.821  13.917
30503SOL    HW193406  10.327  12.877  13.983
30503SOL    HW293407  10.316  12.739  13.922
30504SOL     OW93408   7.989   1.045   4.802
30504SOL    HW193409   7.968   1.010   4.716
30504SOL    HW293410   7.914   1.100   4.825
30505SOL     OW93411   9.295   5.567   5.348
30505SOL    HW193412   9.311   5.636   5.283
30505SOL    HW293413   9.371   5.570   5.406
30506SOL     OW93414   7.488  14.769   2.915
30506SOL    HW193415   7.510  14.686   2.872
30506SOL    HW293416   7.566  14.823   2.903
30507SOL     OW93417   5.326  10.872   7.865
30507SOL    HW193418   5.364  10.930   7.799
30507SOL    HW293419   5.333  10.784   7.826
30508SOL     OW93420  12.997   1.382   3.541
30508SOL    HW193421  12.941   1.364   3.465
30508SOL    HW293422  13.058   1.449   3.510
30509SOL     OW93423  13.044   3.252   0.410
30509SOL    HW193424  13.088   3.251   0.325
30509SOL    HW293425  12.958   3.214   0.392
30510SOL     OW93426   6.390   5.726   9.330
30510SOL    HW193427   6.408   5.634   9.350
30510SOL    HW293428   6.472   5.771   9.350
30511SOL     OW93429  10.116   3.104   7.472
30511SOL    HW193430  10.193   3.073   7.424
30511SOL    HW293431  10.064   3.026   7.489
30512SOL     OW93432   3.891   1.747   0.500
30512SOL    HW193433   3.938   1.828   0.479
30512SOL    HW293434   3.814   1.748   0.442
30513SOL     OW93435   1.990   0.004   5.777
30513SOL    HW193436   1.924  14.839   5.822
30513SOL    HW293437   1.961   0.006   5.686
30514SOL     OW93438   2.734   4.666  12.492
30514SOL    HW193439   2.764   4.754  12.468
30514SOL    HW293440   2.703   4.675  12.582
30515SOL     OW93441   6.182   5.396  12.512
30515SOL    HW193442   6.129   5.319  12.532
30515SOL    HW293443   6.258   5.361  12.465
30516SOL     OW93444   9.039   0.696  11.440
30516SOL    HW193445   9.109   0.721  11.379
30516SOL    HW293446   8.994   0.624  11.396
30517SOL     OW93447  10.773  13.973  12.347
30517SOL    HW193448  10.703  14.019  12.302
30517SOL    HW293449  10.729  13.924  12.417
30518SOL     OW93450   3.394  11.194   4.768
30518SOL    HW193451   3.359  11.250   4.698
30518SOL    HW293452   3.351  11.226   4.847
30519SOL     OW93453   6.121  10.177   2.569
30519SOL    HW193454   6.206  10.211   2.542
30519SOL    HW293455   6.141  10.089   2.603
30520SOL     OW93456  12.763   4.154   8.311
30520SOL    HW193457  12.737   4.066   8.341
30520SOL    HW293458  12.705   4.213   8.358
30521SOL     OW93459   1.438   1.120  14.023
30521SOL    HW193460   1.489   1.188  13.978
30521SOL    HW293461   1.355   1.163  14.046
30522SOL     OW93462   2.926   1.213   0.837
30522SOL    HW193463   3.000   1.230   0.894
30522SOL    HW293464   2.849   1.240   0.888
30523SOL     OW93465   0.874   3.309  10.569
30523SOL    HW193466   0.849   3.254  10.643
30523SOL    HW293467   0.809   3.379  10.568
30524SOL     OW93468   2.387   2.847  10.634
30524SOL    HW193469   2.439   2.925  10.652
30524SOL    HW293470   2.428   2.808  10.557
30525SOL     OW93471  10.137   8.374   1.264
30525SOL    HW193472  10.064   8.394   1.205
30525SOL    HW293473  10.097   8.332   1.339
30526SOL     OW93474   1.105   7.375   8.866
30526SOL    HW193475   1.190   7.345   8.835
30526SOL    HW293476   1.042   7.327   8.813
30527SOL     OW93477  11.544   8.518   1.060
30527SOL    HW193478  11.574   8.532   1.150
30527SOL    HW293479  11.618   8.475   1.017
30528SOL     OW93480   6.667   7.676   4.121
30528SOL    HW193481   6.622   7.656   4.039
30528SOL    HW293482   6.760   7.663   4.102
30529SOL     OW93483   1.395   0.142   7.405
30529SOL    HW193484   1.339   0.127   7.482
30529SOL    HW293485   1.333   0.154   7.333
30530SOL     OW93486   9.272  11.881   2.876
30530SOL    HW193487   9.193  11.932   2.895
30530SOL    HW293488   9.332  11.942   2.835
30531SOL     OW93489  12.907  14.047   9.293
30531SOL    HW193490  12.918  14.100   9.214
30531SOL    HW293491  12.901  13.957   9.260
30532SOL     OW93492  13.370  11.260   9.014
30532SOL    HW193493  13.337  11.180   8.973
30532SOL    HW293494  13.414  11.230   9.093
30533SOL     OW93495   8.638   0.791   9.614
30533SOL    HW193496   8.654   0.710   9.664
30533SOL    HW293497   8.684   0.776   9.531
30534SOL     OW93498  14.401   4.034   8.014
30534SOL    HW193499  14.400   4.077   8.100
30534SOL    HW293500  14.493   4.037   7.987
30535SOL     OW93501  11.621  14.613   0.071
30535SOL    HW193502  11.543  14.599   0.018
30535SOL    HW293503  11.671  14.532   0.062
30536SOL     OW93504   2.912   3.972   1.456
30536SOL    HW193505   2.867   4.034   1.398
30536SOL    HW293506   2.901   3.887   1.413
30537SOL     OW93507   4.339  13.826   7.005
30537SOL    HW193508   4.257  13.841   7.051
30537SOL    HW293509   4.406  13.859   7.066
30538SOL     OW93510   5.003  12.741  11.341
30538SOL    HW193511   4.909  12.731  11.358
30538SOL    HW293512   5.044  12.671  11.392
30539SOL     OW93513   0.075   7.987   8.586
30539SOL    HW193514   0.129   7.993   8.508
30539SOL    HW293515   0.026   7.906   8.576
30540SOL     OW93516   2.696   4.535  11.232
30540SOL    HW193517   2.627   4.469  11.224
30540SOL    HW293518   2.776   4.485  11.242
30541SOL     OW93519  11.438   2.350   4.094
30541SOL    HW193520  11.466   2.441   4.082
30541SOL    HW293521  11.519   2.303   4.113
30542SOL     OW93522   3.448  14.837  13.197
30542SOL    HW193523   3.538  14.828  13.166
30542SOL    HW293524   3.427  14.751  13.233
30543SOL     OW93525  13.556   7.953   7.111
30543SOL    HW193526  13.573   8.033   7.061
30543SOL    HW293527  13.503   7.899   7.052
30544SOL     OW93528   6.926  11.284   2.408
30544SOL    HW193529   6.899  11.342   2.480
30544SOL    HW293530   6.903  11.196   2.439
30545SOL     OW93531   4.668   8.260  12.768
30545SOL    HW193532   4.638   8.299  12.686
30545SOL    HW293533   4.685   8.335  12.825
30546SOL     OW93534  10.668   9.674  13.192
30546SOL    HW193535  10.590   9.638  13.235
30546SOL    HW293536  10.739   9.661  13.255
30547SOL     OW93537   8.624  14.627   7.276
30547SOL    HW193538   8.567  14.690   7.231
30547SOL    HW293539   8.617  14.650   7.368
30548SOL     OW93540  14.390  12.655   2.017
30548SOL    HW193541  14.341  12.665   2.098
30548SOL    HW293542  14.393  12.560   2.002
30549SOL     OW93543   3.508  12.509  12.800
30549SOL    HW193544   3.570  12.450  12.842
30549SOL    HW293545   3.444  12.451  12.758
30550SOL     OW93546  13.179  12.020   6.539
30550SOL    HW193547  13.150  12.050   6.452
30550SOL    HW293548  13.119  12.063   6.600
30551SOL     OW93549  13.699   9.733   7.280
30551SOL    HW193550  13.721   9.668   7.213
30551SOL    HW293551  13.640   9.688   7.340
30552SOL     OW93552   8.144  10.806  12.385
30552SOL    HW193553   8.162  10.826  12.477
30552SOL    HW293554   8.051  10.783  12.383
30553SOL     OW93555   4.260  10.308   3.702
30553SOL    HW193556   4.290  10.340   3.617
30553SOL    HW293557   4.196  10.374   3.731
30554SOL     OW93558   0.702   3.333   8.594
30554SOL    HW193559   0.708   3.420   8.554
30554SOL    HW293560   0.659   3.349   8.678
30555SOL     OW93561   7.525   9.208  10.930
30555SOL    HW193562   7.451   9.190  10.989
30555SOL    HW293563   7.490   9.272  10.868
30556SOL     OW93564  11.580   2.102   0.890
30556SOL    HW193565  11.547   2.039   0.954
30556SOL    HW293566  11.568   2.059   0.805
30557SOL     OW93567   3.065  10.694  14.086
30557SOL    HW193568   3.123  10.618  14.078
30557SOL    HW293569   3.118  10.760  14.131
30558SOL     OW93570   6.361   7.752   0.666
30558SOL    HW193571   6.378   7.670   0.619
30558SOL    HW293572   6.447   7.783   0.693
30559SOL     OW93573  12.491   1.820   6.491
30559SOL    HW193574  12.491   1.855   6.580
30559SOL    HW293575  12.443   1.738   6.498
30560SOL     OW93576  14.837   5.724  13.840
30560SOL    HW193577  14.866   5.687  13.756
30560SOL    HW293578  14.791   5.804  13.816
30561SOL     OW93579   3.297  12.823   7.778
30561SOL    HW193580   3.204  12.836   7.760
30561SOL    HW293581   3.302  12.814   7.874
30562SOL     OW93582   9.991   6.722   6.383
30562SOL    HW193583  10.077   6.725   6.341
30562SOL    HW293584  10.002   6.662   6.457
30563SOL     OW93585   9.864   5.457  11.191
30563SOL    HW193586   9.817   5.514  11.252
30563SOL    HW293587   9.797   5.401  11.154
30564SOL     OW93588  11.130   6.421   5.166
30564SOL    HW193589  11.108   6.408   5.258
30564SOL    HW293590  11.200   6.486   5.167
30565SOL     OW93591  14.669   5.068   4.507
30565SOL    HW193592  14.692   4.995   4.563
30565SOL    HW293593  14.663   5.143   4.566
30566SOL     OW93594   2.012   3.026   2.772
30566SOL    HW193595   1.967   2.968   2.833
30566SOL    HW293596   2.101   3.035   2.807
30567SOL     OW93597   5.387  10.220   6.581
30567SOL    HW193598   5.415  10.131   6.602
30567SOL    HW293599   5.358  10.215   6.490
30568SOL     OW93600   0.966   8.628  14.492
30568SOL    HW193601   0.876   8.634  14.523
30568SOL    HW293602   0.968   8.548  14.439
30569SOL     OW93603   6.777   9.363   9.141
30569SOL    HW193604   6.850   9.301   9.145
30569SOL    HW293605   6.818   9.449   9.144
30570SOL     OW93606   6.947  10.088  14.684
30570SOL    HW193607   6.987  10.113  14.767
30570SOL    HW293608   6.949   9.992  14.684
30571SOL     OW93609  11.695  10.732   6.980
30571SOL    HW193610  11.704  10.778   7.064
30571SOL    HW293611  11.784  10.702   6.959
30572SOL     OW93612   1.827   2.081   7.857
30572SOL    HW193613   1.850   2.171   7.835
30572SOL    HW293614   1.878   2.061   7.935
30573SOL     OW93615   7.221   7.394   4.714
30573SOL    HW193616   7.190   7.419   4.801
30573SOL    HW293617   7.147   7.349   4.674
30574SOL     OW93618  11.429  14.704  10.420
30574SOL    HW193619  11.489  14.726  10.349
30574SOL    HW293620  11.403  14.789  10.457
30575SOL     OW93621   0.901  10.186   9.265
30575SOL    HW193622   0.832  10.246   9.238
30575SOL    HW293623   0.911  10.201   9.359
30576SOL     OW93624   2.873  12.031  11.203
30576SOL    HW193625   2.816  12.044  11.128
30576SOL    HW293626   2.951  12.084  11.183
30577SOL     OW93627  14.316   7.931   8.663
30577SOL    HW193628  14.386   7.980   8.621
30577SOL    HW293629  14.361   7.860   8.709
30578SOL     OW93630   1.874   7.145  13.081
30578SOL    HW193631   1.926   7.084  13.133
30578SOL    HW293632   1.785   7.111  13.087
30579SOL     OW93633   8.615   9.656   1.193
30579SOL    HW193634   8.628   9.729   1.254
30579SOL    HW293635   8.536   9.679   1.144
30580SOL     OW93636   3.756  12.825   8.254
30580SOL    HW193637   3.765  12.766   8.329
30580SOL    HW293638   3.679  12.878   8.273
30581SOL     OW93639  14.400   1.077   3.068
30581SOL    HW193640  14.434   1.003   3.119
30581SOL    HW293641  14.401   1.150   3.129
30582SOL     OW93642   6.237   3.374   2.063
30582SOL    HW193643   6.274   3.325   1.990
30582SOL    HW293644   6.291   3.350   2.138
30583SOL     OW93645   5.953  13.779  14.177
30583SOL    HW193646   5.896  13.822  14.240
30583SOL    HW293647   6.035  13.764  14.225
30584SOL     OW93648   5.954   6.725  14.825
30584SOL    HW193649   5.940   6.719  14.731
30584SOL    HW293650   6.032   6.781  14.833
30585SOL     OW93651   6.486   1.397  11.609
30585SOL    HW193652   6.461   1.447  11.687
30585SOL    HW293653   6.475   1.459  11.537
30586SOL     OW93654   7.482  13.105   2.705
30586SOL    HW193655   7.406  13.162   2.697
30586SOL    HW293656   7.513  13.094   2.615
30587SOL     OW93657   1.932  14.669  11.400
30587SOL    HW193658   2.002  14.617  11.440
30587SOL    HW293659   1.862  14.606  11.382
30588SOL     OW93660   9.399  10.316   6.352
30588SOL    HW193661   9.389  10.385   6.418
30588SOL    HW293662   9.438  10.243   6.399
30589SOL     OW93663   7.893   3.565   3.880
30589SOL    HW193664   7.950   3.544   3.806
30589SOL    HW293665   7.864   3.480   3.913
30590SOL     OW93666   0.225   7.526  13.502
30590SOL    HW193667   0.247   7.473  13.426
30590SOL    HW293668   0.290   7.597  13.501
30591SOL     OW93669   4.122   4.664  11.918
30591SOL    HW193670   4.170   4.611  11.983
30591SOL    HW293671   4.180   4.738  11.902
30592SOL     OW93672   7.611   7.561   0.668
30592SOL    HW193673   7.578   7.542   0.580
30592SOL    HW293674   7.689   7.615   0.652
30593SOL     OW93675  13.366  13.304   3.610
30593SOL    HW193676  13.293  13.317   3.671
30593SOL    HW293677  13.425  13.244   3.656
30594SOL     OW93678  13.426   1.987   4.969
30594SOL    HW193679  13.377   1.912   4.935
30594SOL    HW293680  13.497   2.000   4.906
30595SOL     OW93681   0.428  12.750  14.774
30595SOL    HW193682   0.341  12.729  14.810
30595SOL    HW293683   0.423  12.843  14.753
30596SOL     OW93684   7.025   0.374   3.061
30596SOL    HW193685   7.113   0.364   3.097
30596SOL    HW293686   7.020   0.466   3.036
30597SOL     OW93687   5.387   0.617   4.754
30597SOL    HW193688   5.344   0.561   4.819
30597SOL    HW293689   5.410   0.557   4.683
30598SOL     OW93690   7.809   6.136   1.914
30598SOL    HW193691   7.838   6.167   1.829
30598SOL    HW293692   7.886   6.095   1.953
30599SOL     OW93693   4.353   8.583   6.249
30599SOL    HW193694   4.434   8.562   6.201
30599SOL    HW293695   4.375   8.566   6.341
30600SOL     OW93696  12.566   6.693   2.475
30600SOL    HW193697  12.490   6.732   2.433
30600SOL    HW293698  12.538   6.605   2.501
30601SOL     OW93699   0.520  14.480   0.806
30601SOL    HW193700   0.534  14.496   0.900
30601SOL    HW293701   0.433  14.516   0.789
30602SOL     OW93702   8.462   5.070   8.405
30602SOL    HW193703   8.553   5.054   8.431
30602SOL    HW293704   8.460   5.050   8.311
30603SOL     OW93705  12.024  14.882   0.464
30603SOL    HW193706  12.106   0.039   0.485
30603SOL    HW293707  11.985   0.046   0.394
30604SOL     OW93708  13.949  11.953  14.853
30604SOL    HW193709  13.888  11.930   0.037
30604SOL    HW293710  14.006  12.019   0.004
30605SOL     OW93711   0.744   5.991   7.317
30605SOL    HW193712   0.783   6.071   7.281
30605SOL    HW293713   0.691   5.956   7.245
30606SOL     OW93714   1.518   3.375  13.148
30606SOL    HW193715   1.497   3.286  13.177
30606SOL    HW293716   1.438   3.405  13.103
30607SOL     OW93717   8.295   1.372   1.947
30607SOL    HW193718   8.287   1.381   1.852
30607SOL    HW293719   8.376   1.417   1.969
30608SOL     OW93720   4.342   7.678  12.142
30608SOL    HW193721   4.406   7.665  12.211
30608SOL    HW293722   4.343   7.773  12.126
30609SOL     OW93723  12.468  10.592   4.166
30609SOL    HW193724  12.562  10.607   4.157
30609SOL    HW293725  12.462  10.517   4.225
30610SOL     OW93726   6.057  11.547   7.100
30610SOL    HW193727   6.027  11.459   7.124
30610SOL    HW293728   6.145  11.533   7.064
30611SOL     OW93729  12.764   6.593   3.934
30611SOL    HW193730  12.673   6.608   3.910
30611SOL    HW293731  12.805   6.680   3.932
30612SOL     OW93732  14.592   6.818  11.718
30612SOL    HW193733  14.680   6.781  11.707
30612SOL    HW293734  14.557   6.773  11.794
30613SOL     OW93735   8.327  14.453  14.702
30613SOL    HW193736   8.404  14.427  14.753
30613SOL    HW293737   8.253  14.426  14.755
30614SOL     OW93738  12.697   0.955   4.083
30614SOL    HW193739  12.742   0.873   4.101
30614SOL    HW293740  12.680   0.993   4.169
30615SOL     OW93741  12.536  10.855  13.148
30615SOL    HW193742  12.551  10.804  13.068
30615SOL    HW293743  12.480  10.927  13.119
30616SOL     OW93744   3.300   0.659  10.907
30616SOL    HW193745   3.264   0.636  10.992
30616SOL    HW293746   3.273   0.588  10.849
30617SOL     OW93747  11.752  12.496   4.882
30617SOL    HW193748  11.680  12.537   4.930
30617SOL    HW293749  11.824  12.493   4.945
30618SOL     OW93750   9.419  11.013  13.021
30618SOL    HW193751   9.330  10.978  13.014
30618SOL    HW293752   9.473  10.948  12.976
30619SOL     OW93753   3.193   1.875   4.688
30619SOL    HW193754   3.238   1.791   4.698
30619SOL    HW293755   3.104   1.858   4.719
30620SOL     OW93756   7.571   0.480   5.212
30620SOL    HW193757   7.569   0.530   5.130
30620SOL    HW293758   7.548   0.544   5.279
30621SOL     OW93759  14.662   4.909   7.005
30621SOL    HW193760  14.631   4.837   6.950
30621SOL    HW293761  14.703   4.866   7.080
30622SOL     OW93762   7.434   1.180   2.419
30622SOL    HW193763   7.375   1.126   2.472
30622SOL    HW293764   7.498   1.118   2.383
30623SOL     OW93765   6.873   6.770  12.467
30623SOL    HW193766   6.871   6.862  12.492
30623SOL    HW293767   6.870   6.771  12.371
30624SOL     OW93768   7.900   4.323   4.842
30624SOL    HW193769   7.852   4.253   4.885
30624SOL    HW293770   7.917   4.387   4.912
30625SOL     OW93771   4.144   9.244   0.945
30625SOL    HW193772   4.061   9.200   0.958
30625SOL    HW293773   4.149   9.258   0.850
30626SOL     OW93774  13.919  11.196   9.105
30626SOL    HW193775  13.879  11.118   9.145
30626SOL    HW293776  13.999  11.163   9.065
30627SOL     OW93777  10.107  10.484   6.750
30627SOL    HW193778  10.132  10.412   6.692
30627SOL    HW293779  10.183  10.542   6.750
30628SOL     OW93780   5.597   8.561   8.889
30628SOL    HW193781   5.666   8.626   8.904
30628SOL    HW293782   5.519   8.612   8.868
30629SOL     OW93783   5.866   7.155   3.915
30629SOL    HW193784   5.879   7.244   3.883
30629SOL    HW293785   5.787   7.125   3.871
30630SOL     OW93786   9.165   7.829   6.768
30630SOL    HW193787   9.207   7.829   6.682
30630SOL    HW293788   9.092   7.890   6.759
30631SOL     OW93789   8.032   9.402   9.345
30631SOL    HW193790   8.001   9.323   9.303
30631SOL    HW293791   8.076   9.372   9.425
30632SOL     OW93792  10.159   7.624  14.545
30632SOL    HW193793  10.096   7.556  14.524
30632SOL    HW293794  10.151   7.636  14.640
30633SOL     OW93795   0.980   0.226   6.450
30633SOL    HW193796   1.029   0.156   6.407
30633SOL    HW293797   0.927   0.182   6.516
30634SOL     OW93798   8.512   5.616   1.168
30634SOL    HW193799   8.521   5.521   1.158
30634SOL    HW293800   8.439   5.627   1.229
30635SOL     OW93801   4.203   5.157   7.865
30635SOL    HW193802   4.215   5.062   7.864
30635SOL    HW293803   4.200   5.179   7.958
30636SOL     OW93804   3.496  13.479   5.650
30636SOL    HW193805   3.411  13.435   5.643
30636SOL    HW293806   3.476  13.572   5.642
30637SOL     OW93807   8.797   7.861  12.485
30637SOL    HW193808   8.784   7.772  12.518
30637SOL    HW293809   8.877   7.855  12.433
30638SOL     OW93810   2.322   7.809  14.276
30638SOL    HW193811   2.350   7.818  14.367
30638SOL    HW293812   2.399   7.774  14.231
30639SOL     OW93813  12.696   5.220  11.680
30639SOL    HW193814  12.737   5.135  11.668
30639SOL    HW293815  12.769   5.281  11.687
30640SOL     OW93816   6.914   5.969   0.010
30640SOL    HW193817   6.904   5.898  14.834
30640SOL    HW293818   6.838   6.025  14.883
30641SOL     OW93819  13.382   0.182   1.888
30641SOL    HW193820  13.298   0.146   1.858
30641SOL    HW293821  13.431   0.107   1.920
30642SOL     OW93822  11.053  10.280  10.375
30642SOL    HW193823  11.034  10.371  10.351
30642SOL    HW293824  11.127  10.286  10.435
30643SOL     OW93825   3.723   6.525  12.370
30643SOL    HW193826   3.666   6.539  12.445
30643SOL    HW293827   3.780   6.453  12.396
30644SOL     OW93828   7.396  12.767   3.178
30644SOL    HW193829   7.438  12.693   3.223
30644SOL    HW293830   7.468  12.812   3.133
30645SOL     OW93831   2.424  13.960  11.271
30645SOL    HW193832   2.489  13.896  11.299
30645SOL    HW293833   2.387  13.922  11.191
30646SOL     OW93834   0.847   8.541   7.651
30646SOL    HW193835   0.908   8.612   7.630
30646SOL    HW293836   0.775   8.584   7.698
30647SOL     OW93837  12.340  12.665  11.004
30647SOL    HW193838  12.380  12.598  10.948
30647SOL    HW293839  12.367  12.748  10.966
30648SOL     OW93840   8.935   8.338   4.625
30648SOL    HW193841   8.944   8.423   4.581
30648SOL    HW293842   8.853   8.346   4.674
30649SOL     OW93843   2.062  12.347   9.194
30649SOL    HW193844   2.114  12.398   9.256
30649SOL    HW293845   2.108  12.356   9.111
30650SOL     OW93846  11.009  11.436  13.648
30650SOL    HW193847  10.955  11.418  13.725
30650SOL    HW293848  10.974  11.379  13.580
30651SOL     OW93849   9.161   2.909   2.566
30651SOL    HW193850   9.096   2.976   2.548
30651SOL    HW293851   9.190   2.879   2.480
30652SOL     OW93852  10.982  10.055   5.050
30652SOL    HW193853  11.006  10.129   5.107
30652SOL    HW293854  10.965   9.984   5.111
30653SOL     OW93855   7.240  10.473   5.708
30653SOL    HW193856   7.248  10.434   5.795
30653SOL    HW293857   7.279  10.408   5.649
30654SOL     OW93858  13.428  11.840  13.605
30654SOL    HW193859  13.344  11.797  13.621
30654SOL    HW293860  13.406  11.932  13.589
30655SOL     OW93861   4.778   4.351   9.338
30655SOL    HW193862   4.859   4.304   9.357
30655SOL    HW293863   4.708   4.290   9.362
30656SOL     OW93864   4.849   5.678  10.228
30656SOL    HW193865   4.931   5.648  10.266
30656SOL    HW293866   4.822   5.750  10.285
30657SOL     OW93867  12.057  11.005  10.397
30657SOL    HW193868  12.042  10.910  10.393
30657SOL    HW293869  12.053  11.026  10.490
30658SOL     OW93870   0.914   6.595  13.858
30658SOL    HW193871   0.886   6.686  13.870
30658SOL    HW293872   0.998   6.590  13.904
30659SOL     OW93873   9.772   9.143   9.023
30659SOL    HW193874   9.766   9.118   8.931
30659SOL    HW293875   9.681   9.159   9.049
30660SOL     OW93876   3.728   5.956   8.606
30660SOL    HW193877   3.686   6.030   8.563
30660SOL    HW293878   3.716   5.883   8.546
30661SOL     OW93879   4.340   3.446   6.127
30661SOL    HW193880   4.257   3.399   6.117
30661SOL    HW293881   4.346   3.463   6.221
30662SOL     OW93882  12.895  11.986  10.820
30662SOL    HW193883  12.865  11.919  10.757
30662SOL    HW293884  12.896  12.067  10.770
30663SOL     OW93885   8.952   2.069   2.818
30663SOL    HW193886   8.893   2.008   2.774
30663SOL    HW293887   9.005   2.014   2.875
30664SOL     OW93888   0.046   6.182   3.882
30664SOL    HW193889   0.067   6.180   3.976
30664SOL    HW293890   0.130   6.163   3.839
30665SOL     OW93891   0.664   2.533  14.525
30665SOL    HW193892   0.667   2.551  14.619
30665SOL    HW293893   0.750   2.497  14.504
30666SOL     OW93894   1.811   8.871  11.838
30666SOL    HW193895   1.864   8.791  11.834
30666SOL    HW293896   1.741   8.851  11.900
30667SOL     OW93897   0.497  14.865  14.606
30667SOL    HW193898   0.402  14.868  14.609
30667SOL    HW293899   0.518  14.771  14.605
30668SOL     OW93900   9.942   5.882   9.622
30668SOL    HW193901   9.990   5.942   9.680
30668SOL    HW293902  10.001   5.869   9.547
30669SOL     OW93903  13.598   0.900   6.006
30669SOL    HW193904  13.563   0.985   5.982
30669SOL    HW293905  13.564   0.885   6.095
30670SOL     OW93906   5.385   1.248  10.236
30670SOL    HW193907   5.353   1.262  10.325
30670SOL    HW293908   5.412   1.335  10.206
30671SOL     OW93909   6.193   9.998  13.295
30671SOL    HW193910   6.100  10.007  13.313
30671SOL    HW293911   6.221  10.086  13.268
30672SOL     OW93912   1.267  10.119  11.689
30672SOL    HW193913   1.349  10.092  11.647
30672SOL    HW293914   1.293  10.153  11.774
30673SOL     OW93915   2.081   8.048   9.515
30673SOL    HW193916   2.088   8.024   9.422
30673SOL    HW293917   2.038   7.972   9.556
30674SOL     OW93918   8.063   6.471   0.138
30674SOL    HW193919   8.066   6.504   0.048
30674SOL    HW293920   8.153   6.476   0.168
30675SOL     OW93921  10.389   6.544   3.421
30675SOL    HW193922  10.295   6.527   3.418
30675SOL    HW293923  10.411   6.547   3.514
30676SOL     OW93924   3.131   8.286  12.056
30676SOL    HW193925   3.190   8.308  11.984
30676SOL    HW293926   3.070   8.222  12.018
30677SOL     OW93927  14.117   3.816   7.101
30677SOL    HW193928  14.067   3.747   7.144
30677SOL    HW293929  14.176   3.769   7.042
30678SOL     OW93930   9.040   6.104  14.114
30678SOL    HW193931   9.089   6.021  14.113
30678SOL    HW293932   9.074   6.153  14.040
30679SOL     OW93933   9.411   9.270  11.966
30679SOL    HW193934   9.474   9.281  11.895
30679SOL    HW293935   9.325   9.275  11.924
30680SOL     OW93936   5.621   2.782   6.614
30680SOL    HW193937   5.585   2.734   6.689
30680SOL    HW293938   5.675   2.719   6.568
30681SOL     OW93939   0.067   9.740   0.694
30681SOL    HW193940   0.014   9.709   0.620
30681SOL    HW293941   0.139   9.677   0.699
30682SOL     OW93942   1.593  13.352  10.391
30682SOL    HW193943   1.619  13.443  10.399
30682SOL    HW293944   1.671  13.308  10.357
30683SOL     OW93945   3.093   3.130  11.917
30683SOL    HW193946   3.053   3.047  11.893
30683SOL    HW293947   3.183   3.123  11.885
30684SOL     OW93948   8.073   9.668   8.025
30684SOL    HW193949   7.990   9.620   8.027
30684SOL    HW293950   8.049   9.758   8.004
30685SOL     OW93951  12.102   5.133   6.416
30685SOL    HW193952  12.138   5.201   6.360
30685SOL    HW293953  12.116   5.052   6.368
30686SOL     OW93954   4.469  10.800   7.410
30686SOL    HW193955   4.553  10.754   7.413
30686SOL    HW293956   4.406  10.736   7.444
30687SOL     OW93957   3.297   9.109  14.647
30687SOL    HW193958   3.291   9.036  14.708
30687SOL    HW293959   3.211   9.151  14.651
30688SOL     OW93960   4.275  11.337   2.893
30688SOL    HW193961   4.224  11.418   2.898
30688SOL    HW293962   4.222  11.273   2.941
30689SOL     OW93963   2.575   8.782   0.140
30689SOL    HW193964   2.533   8.759   0.223
30689SOL    HW293965   2.662   8.743   0.145
30690SOL     OW93966  12.918  14.738   4.742
30690SOL    HW193967  12.833  14.738   4.699
30690SOL    HW293968  12.923  14.822   4.787
30691SOL     OW93969   5.804   0.900  12.443
30691SOL    HW193970   5.891   0.870  12.472
30691SOL    HW293971   5.794   0.862  12.356
30692SOL     OW93972   6.654   1.066   7.005
30692SOL    HW193973   6.636   1.151   6.965
30692SOL    HW293974   6.745   1.047   6.983
30693SOL     OW93975   6.400   4.676  14.505
30693SOL    HW193976   6.409   4.625  14.585
30693SOL    HW293977   6.431   4.618  14.435
30694SOL     OW93978   2.933   8.437   9.844
30694SOL    HW193979   2.966   8.367   9.901
30694SOL    HW293980   2.918   8.510   9.904
30695SOL     OW93981   4.411   9.357  11.317
30695SOL    HW193982   4.316   9.357  11.303
30695SOL    HW293983   4.422   9.374  11.410
30696SOL     OW93984   4.412   7.774   6.701
30696SOL    HW193985   4.423   7.861   6.662
30696SOL    HW293986   4.443   7.784   6.791
30697SOL     OW93987  13.866  11.521  10.212
30697SOL    HW193988  13.815  11.583  10.160
30697SOL    HW293989  13.802  11.484  10.273
30698SOL     OW93990   5.934  14.439   7.901
30698SOL    HW193991   5.963  14.428   7.992
30698SOL    HW293992   5.870  14.511   7.906
30699SOL     OW93993  14.040  13.517  13.518
30699SOL    HW193994  14.092  13.586  13.559
30699SOL    HW293995  14.096  13.440  13.520
30700SOL     OW93996   3.099  10.104   9.422
30700SOL    HW193997   3.179  10.134   9.465
30700SOL    HW293998   3.029  10.133   9.481
30701SOL     OW93999   2.309   3.682  14.525
30701SOL    HW194000   2.322   3.757  14.467
30701SOL    HW294001   2.222   3.695  14.563
30702SOL     OW94002  11.850  10.811  11.950
30702SOL    HW194003  11.871  10.720  11.970
30702SOL    HW294004  11.873  10.858  12.031
30703SOL     OW94005   7.340   1.118   6.922
30703SOL    HW194006   7.314   1.116   6.830
30703SOL    HW294007   7.426   1.076   6.923
30704SOL     OW94008   8.323   5.876  12.625
30704SOL    HW194009   8.409   5.841  12.602
30704SOL    HW294010   8.273   5.800  12.654
30705SOL     OW94011   4.215  12.054  10.770
30705SOL    HW194012   4.272  12.081  10.842
30705SOL    HW294013   4.237  12.113  10.698
30706SOL     OW94014   7.914   5.200  12.108
30706SOL    HW194015   7.847   5.134  12.125
30706SOL    HW294016   7.887   5.243  12.028
30707SOL     OW94017  14.036   5.820  10.454
30707SOL    HW194018  14.088   5.820  10.535
30707SOL    HW294019  13.987   5.902  10.457
30708SOL     OW94020   7.082   2.223  13.362
30708SOL    HW194021   7.091   2.128  13.360
30708SOL    HW294022   7.158   2.254  13.411
30709SOL     OW94023   4.700   0.588  12.643
30709SOL    HW194024   4.620   0.606  12.594
30709SOL    HW294025   4.704   0.657  12.709
30710SOL     OW94026   0.521   6.572   4.421
30710SOL    HW194027   0.572   6.491   4.431
30710SOL    HW294028   0.583   6.641   4.444
30711SOL     OW94029   5.729  13.734   2.737
30711SOL    HW194030   5.648  13.740   2.686
30711SOL    HW294031   5.701  13.738   2.828
30712SOL     OW94032  11.896   8.379   5.498
30712SOL    HW194033  11.861   8.439   5.432
30712SOL    HW294034  11.939   8.310   5.447
30713SOL     OW94035   2.760   0.250   9.857
30713SOL    HW194036   2.687   0.251   9.919
30713SOL    HW294037   2.738   0.181   9.795
30714SOL     OW94038  14.611   5.115   5.806
30714SOL    HW194039  14.675   5.087   5.872
30714SOL    HW294040  14.664   5.141   5.731
30715SOL     OW94041   1.609  14.866  12.950
30715SOL    HW194042   1.572   0.015  12.870
30715SOL    HW294043   1.689   0.029  12.965
30716SOL     OW94044   4.340   2.221   4.291
30716SOL    HW194045   4.309   2.305   4.258
30716SOL    HW294046   4.261   2.166   4.297
30717SOL     OW94047   7.063   1.046   7.005
30717SOL    HW194048   7.036   1.137   7.017
30717SOL    HW294049   7.157   1.051   6.989
30718SOL     OW94050  13.731   2.265   9.074
30718SOL    HW194051  13.689   2.343   9.038
30718SOL    HW294052  13.666   2.195   9.064
30719SOL     OW94053  10.412  14.468  10.006
30719SOL    HW194054  10.371  14.394   9.962
30719SOL    HW294055  10.394  14.454  10.099
30720SOL     OW94056   8.896  12.642   7.845
30720SOL    HW194057   8.892  12.564   7.900
30720SOL    HW294058   8.815  12.639   7.793
30721SOL     OW94059  12.375   4.171  11.996
30721SOL    HW194060  12.399   4.262  11.979
30721SOL    HW294061  12.413   4.122  11.923
30722SOL     OW94062   8.063  13.474  10.631
30722SOL    HW194063   8.093  13.471  10.722
30722SOL    HW294064   7.988  13.415  10.628
30723SOL     OW94065   4.970  14.524   1.572
30723SOL    HW194066   4.971  14.569   1.657
30723SOL    HW294067   4.978  14.595   1.508
30724SOL     OW94068  11.772   4.406  11.301
30724SOL    HW194069  11.703   4.459  11.261
30724SOL    HW294070  11.769   4.429  11.394
30725SOL     OW94071   0.043   6.468   6.672
30725SOL    HW194072   0.068   6.376   6.684
30725SOL    HW294073  14.849   6.476   6.720
30726SOL     OW94074   8.812   0.786   2.792
30726SOL    HW194075   8.810   0.763   2.884
30726SOL    HW294076   8.776   0.875   2.788
30727SOL     OW94077  14.445   8.129   2.942
30727SOL    HW194078  14.534   8.157   2.924
30727SOL    HW294079  14.434   8.143   3.037
30728SOL     OW94080   2.916   2.398   0.493
30728SOL    HW194081   3.010   2.389   0.508
30728SOL    HW294082   2.898   2.490   0.511
30729SOL     OW94083  12.947   3.637   2.581
30729SOL    HW194084  13.013   3.692   2.622
30729SOL    HW294085  12.992   3.554   2.565
30730SOL     OW94086   8.581  12.695   8.360
30730SOL    HW194087   8.493  12.678   8.325
30730SOL    HW294088   8.611  12.609   8.389
30731SOL     OW94089   2.060  10.279   2.862
30731SOL    HW194090   2.059  10.333   2.783
30731SOL    HW294091   2.041  10.340   2.933
30732SOL     OW94092   5.515  11.381   9.994
30732SOL    HW194093   5.585  11.317  10.013
30732SOL    HW294094   5.484  11.356   9.906
30733SOL     OW94095   0.067  12.231   7.403
30733SOL    HW194096   0.042  12.160   7.344
30733SOL    HW294097   0.025  12.309   7.367
30734SOL     OW94098  13.624   1.415   4.730
30734SOL    HW194099  13.714   1.386   4.716
30734SOL    HW294100  13.592   1.359   4.801
30735SOL     OW94101   2.745   2.882   0.315
30735SOL    HW194102   2.790   2.865   0.233
30735SOL    HW294103   2.750   2.977   0.326
30736SOL     OW94104   9.033  10.001   2.086
30736SOL    HW194105   9.053  10.070   2.023
30736SOL    HW294106   9.053  10.040   2.171
30737SOL     OW94107   8.342  13.662   4.498
30737SOL    HW194108   8.385  13.649   4.413
30737SOL    HW294109   8.383  13.598   4.556
30738SOL     OW94110   9.412   2.099  11.428
30738SOL    HW194111   9.325   2.083  11.391
30738SOL    HW294112   9.453   2.160  11.367
30739SOL     OW94113  14.829   5.880   7.889
30739SOL    HW194114   0.027   5.838   7.878
30739SOL    HW294115  14.771   5.809   7.918
30740SOL     OW94116   3.470   2.182  11.522
30740SOL    HW194117   3.442   2.208  11.434
30740SOL    HW294118   3.537   2.115  11.507
30741SOL     OW94119   8.111   8.544   2.636
30741SOL    HW194120   8.061   8.463   2.633
30741SOL    HW294121   8.185   8.529   2.577
30742SOL     OW94122   7.901   3.899  10.338
30742SOL    HW194123   7.872   3.861  10.422
30742SOL    HW294124   7.983   3.944  10.360
30743SOL     OW94125  13.172   3.375   4.828
30743SOL    HW194126  13.113   3.393   4.902
30743SOL    HW294127  13.147   3.440   4.762
30744SOL     OW94128   0.991   5.761   5.282
30744SOL    HW194129   0.911   5.793   5.324
30744SOL    HW294130   0.966   5.746   5.191
30745SOL     OW94131   4.975   2.146   7.200
30745SOL    HW194132   5.027   2.081   7.152
30745SOL    HW294133   4.895   2.156   7.148
30746SOL     OW94134   0.384   9.707  14.211
30746SOL    HW194135   0.294   9.718  14.244
30746SOL    HW294136   0.433   9.777  14.253
30747SOL     OW94137   6.223  13.328   2.122
30747SOL    HW194138   6.204  13.410   2.168
30747SOL    HW294139   6.244  13.265   2.191
30748SOL     OW94140   3.769   4.625  12.020
30748SOL    HW194141   3.789   4.611  11.927
30748SOL    HW294142   3.773   4.537  12.058
30749SOL     OW94143  10.566   4.740   6.083
30749SOL    HW194144  10.520   4.764   6.163
30749SOL    HW294145  10.508   4.768   6.013
30750SOL     OW94146  12.042   5.192   9.209
30750SOL    HW194147  12.126   5.186   9.255
30750SOL    HW294148  12.061   5.243   9.130
30751SOL     OW94149   9.895  12.577  14.422
30751SOL    HW194150   9.921  12.556  14.333
30751SOL    HW294151   9.800  12.580  14.420
30752SOL     OW94152  11.839   8.000   3.547
30752SOL    HW194153  11.864   8.075   3.492
30752SOL    HW294154  11.847   7.924   3.489
30753SOL     OW94155  10.043   0.872   3.948
30753SOL    HW194156  10.110   0.886   4.015
30753SOL    HW294157   9.988   0.951   3.953
30754SOL     OW94158   2.704   7.555   4.223
30754SOL    HW194159   2.650   7.613   4.170
30754SOL    HW294160   2.781   7.537   4.169
30755SOL     OW94161   0.773   7.614   0.046
30755SOL    HW194162   0.852   7.634  14.883
30755SOL    HW294163   0.805   7.601   0.136
30756SOL     OW94164   4.909   1.195  11.636
30756SOL    HW194165   4.864   1.111  11.638
30756SOL    HW294166   4.854   1.250  11.579
30757SOL     OW94167   0.291   7.013   2.409
30757SOL    HW194168   0.206   6.975   2.431
30757SOL    HW294169   0.286   7.031   2.315
30758SOL     OW94170   7.347   4.260   3.179
30758SOL    HW194171   7.255   4.278   3.200
30758SOL    HW294172   7.366   4.178   3.224
30759SOL     OW94173   9.054  14.697   1.970
30759SOL    HW194174   9.013  14.761   2.029
30759SOL    HW294175   9.037  14.730   1.882
30760SOL     OW94176  10.440   0.202  13.377
30760SOL    HW194177  10.352   0.196  13.338
30760SOL    HW294178  10.493   0.243  13.308
30761SOL     OW94179   0.540   7.844   7.064
30761SOL    HW194180   0.456   7.891   7.071
30761SOL    HW294181   0.516   7.756   7.034
30762SOL     OW94182   6.787   7.009   6.943
30762SOL    HW194183   6.785   7.012   6.847
30762SOL    HW294184   6.713   6.954   6.967
30763SOL     OW94185   4.256   2.336   5.363
30763SOL    HW194186   4.196   2.279   5.316
30763SOL    HW294187   4.199   2.397   5.410
30764SOL     OW94188   0.360   7.208   3.929
30764SOL    HW194189   0.340   7.123   3.968
30764SOL    HW294190   0.451   7.201   3.900
30765SOL     OW94191  11.734  12.865   2.043
30765SOL    HW194192  11.783  12.806   1.986
30765SOL    HW294193  11.789  12.875   2.121
30766SOL     OW94194  12.025   6.454   6.121
30766SOL    HW194195  11.976   6.409   6.052
30766SOL    HW294196  12.072   6.524   6.075
30767SOL     OW94197   6.725   7.486  13.333
30767SOL    HW194198   6.771   7.533  13.402
30767SOL    HW294199   6.735   7.394  13.356
30768SOL     OW94200  12.360  13.020   8.466
30768SOL    HW194201  12.434  12.961   8.484
30768SOL    HW294202  12.400  13.094   8.419
30769SOL     OW94203  12.100  10.402   5.019
30769SOL    HW194204  12.155  10.472   5.055
30769SOL    HW294205  12.011  10.437   5.021
30770SOL     OW94206   6.399   0.661  13.611
30770SOL    HW194207   6.491   0.682  13.630
30770SOL    HW294208   6.382   0.583  13.664
30771SOL     OW94209   7.232  12.591  13.939
30771SOL    HW194210   7.198  12.552  13.859
30771SOL    HW294211   7.236  12.685  13.922
30772SOL     OW94212   9.741  10.654  13.204
30772SOL    HW194213   9.836  10.659  13.199
30772SOL    HW294214   9.720  10.565  13.173
30773SOL     OW94215   3.520   3.607   5.748
30773SOL    HW194216   3.595   3.579   5.694
30773SOL    HW294217   3.446   3.556   5.714
30774SOL     OW94218  11.505   3.659  10.086
30774SOL    HW194219  11.461   3.584  10.047
30774SOL    HW294220  11.502   3.727  10.019
30775SOL     OW94221  13.493   6.741   7.684
30775SOL    HW194222  13.429   6.809   7.702
30775SOL    HW294223  13.444   6.671   7.642
30776SOL     OW94224   3.495   1.586   4.195
30776SOL    HW194225   3.410   1.573   4.238
30776SOL    HW294226   3.555   1.606   4.267
30777SOL     OW94227   7.715   2.445  13.752
30777SOL    HW194228   7.794   2.487  13.785
30777SOL    HW294229   7.746   2.385  13.684
30778SOL     OW94230  14.178  10.813  11.415
30778SOL    HW194231  14.173  10.754  11.340
30778SOL    HW294232  14.088  10.840  11.430
30779SOL     OW94233   5.408   9.912  13.623
30779SOL    HW194234   5.312   9.908  13.622
30779SOL    HW294235   5.430   9.943  13.711
30780SOL     OW94236   9.581   7.744   6.771
30780SOL    HW194237   9.524   7.802   6.821
30780SOL    HW294238   9.670   7.773   6.794
30781SOL     OW94239   2.212   9.422  14.696
30781SOL    HW194240   2.158   9.428  14.774
30781SOL    HW294241   2.292   9.470  14.719
30782SOL     OW94242   8.636  11.619   1.004
30782SOL    HW194243   8.645  11.713   0.985
30782SOL    HW294244   8.558  11.613   1.060
30783SOL     OW94245   7.873   5.062   8.748
30783SOL    HW194246   7.816   5.123   8.796
30783SOL    HW294247   7.816   5.022   8.683
30784SOL     OW94248   1.023   3.170   3.660
30784SOL    HW194249   0.968   3.215   3.595
30784SOL    HW294250   1.071   3.241   3.703
30785SOL     OW94251   7.239   7.305  12.481
30785SOL    HW194252   7.306   7.352  12.532
30785SOL    HW294253   7.200   7.244  12.543
30786SOL     OW94254   4.640   3.516   6.571
30786SOL    HW194255   4.574   3.478   6.512
30786SOL    HW294256   4.670   3.442   6.624
30787SOL     OW94257   2.876  13.710   2.140
30787SOL    HW194258   2.782  13.722   2.157
30787SOL    HW294259   2.918  13.736   2.222
30788SOL     OW94260   9.191  10.169   5.847
30788SOL    HW194261   9.129  10.232   5.809
30788SOL    HW294262   9.136  10.110   5.898
30789SOL     OW94263   8.008   5.442   6.166
30789SOL    HW194264   7.961   5.442   6.083
30789SOL    HW294265   8.100   5.432   6.141
30790SOL     OW94266  10.407   0.307   3.272
30790SOL    HW194267  10.378   0.391   3.236
30790SOL    HW294268  10.387   0.244   3.203
30791SOL     OW94269  10.158   0.054   5.722
30791SOL    HW194270  10.106   0.099   5.655
30791SOL    HW294271  10.247   0.083   5.706
30792SOL     OW94272   2.688   7.388   0.424
30792SOL    HW194273   2.765   7.332   0.440
30792SOL    HW294274   2.631   7.335   0.368
30793SOL     OW94275  12.525   4.232  10.488
30793SOL    HW194276  12.477   4.149  10.492
30793SOL    HW294277  12.461   4.297  10.517
30794SOL     OW94278   5.790   2.786   9.382
30794SOL    HW194279   5.768   2.728   9.309
30794SOL    HW294280   5.783   2.874   9.345
30795SOL     OW94281   3.923   8.032  12.341
30795SOL    HW194282   3.955   7.984  12.264
30795SOL    HW294283   3.835   8.059  12.316
30796SOL     OW94284  13.298  14.042   0.020
30796SOL    HW194285  13.237  14.112  14.882
30796SOL    HW294286  13.267  14.015   0.106
30797SOL     OW94287   7.057   1.052   7.826
30797SOL    HW194288   7.153   1.047   7.825
30797SOL    HW294289   7.036   1.113   7.756
30798SOL     OW94290  14.400  14.569   8.391
30798SOL    HW194291  14.393  14.619   8.310
30798SOL    HW294292  14.431  14.633   8.455
30799SOL     OW94293  14.844  14.659   9.486
30799SOL    HW194294   0.017  14.626   9.420
30799SOL    HW294295  14.758  14.656   9.443
30800SOL     OW94296  13.601   2.094   3.748
30800SOL    HW194297  13.563   2.008   3.729
30800SOL    HW294298  13.601   2.139   3.663
30801SOL     OW94299   8.939   4.371  13.464
30801SOL    HW194300   8.998   4.432  13.507
30801SOL    HW294301   8.996   4.307  13.422
30802SOL     OW94302  11.989   2.482   5.580
30802SOL    HW194303  11.970   2.426   5.505
30802SOL    HW294304  12.032   2.424   5.643
30803SOL     OW94305  14.609   3.915   9.269
30803SOL    HW194306  14.613   3.955   9.356
30803SOL    HW294307  14.565   3.980   9.214
30804SOL     OW94308   1.040   2.603   9.030
30804SOL    HW194309   1.058   2.685   8.984
30804SOL    HW294310   0.993   2.630   9.109
30805SOL     OW94311   7.155   8.130  13.531
30805SOL    HW194312   7.093   8.103  13.464
30805SOL    HW294313   7.102   8.173  13.598
30806SOL     OW94314   8.438   6.991  13.953
30806SOL    HW194315   8.349   6.996  13.986
30806SOL    HW294316   8.432   7.027  13.864
30807SOL     OW94317   6.544   4.993   5.442
30807SOL    HW194318   6.564   4.900   5.457
30807SOL    HW294319   6.600   5.018   5.369
30808SOL     OW94320  14.566  12.139   7.846
30808SOL    HW194321  14.592  12.167   7.758
30808SOL    HW294322  14.570  12.044   7.843
30809SOL     OW94323  11.845   9.636  14.183
30809SOL    HW194324  11.785   9.682  14.241
30809SOL    HW294325  11.880   9.565  14.236
30810SOL     OW94326   9.704   5.594   2.289
30810SOL    HW194327   9.748   5.632   2.366
30810SOL    HW294328   9.610   5.607   2.307
30811SOL     OW94329   9.725   7.476  12.750
30811SOL    HW194330   9.629   7.481  12.746
30811SOL    HW294331   9.743   7.427  12.830
30812SOL     OW94332   9.941  12.768   1.930
30812SOL    HW194333   9.967  12.745   2.019
30812SOL    HW294334   9.880  12.842   1.941
30813SOL     OW94335   8.479  14.148   4.430
30813SOL    HW194336   8.494  14.058   4.403
30813SOL    HW294337   8.504  14.201   4.354
30814SOL     OW94338   3.681  10.383   5.279
30814SOL    HW194339   3.594  10.423   5.271
30814SOL    HW294340   3.726  10.435   5.345
30815SOL     OW94341  10.814   1.550   6.837
30815SOL    HW194342  10.849   1.549   6.748
30815SOL    HW294343  10.855   1.475   6.880
30816SOL     OW94344   5.722   4.879   9.277
30816SOL    HW194345   5.762   4.812   9.220
30816SOL    HW294346   5.653   4.917   9.223
30817SOL     OW94347  11.179  11.380   9.053
30817SOL    HW194348  11.148  11.458   9.007
30817SOL    HW294349  11.155  11.394   9.144
30818SOL     OW94350   1.351  13.952  14.600
30818SOL    HW194351   1.298  13.929  14.676
30818SOL    HW294352   1.396  13.870  14.576
30819SOL     OW94353  10.894  14.597   3.821
30819SOL    HW194354  10.862  14.561   3.739
30819SOL    HW294355  10.983  14.625   3.803
30820SOL     OW94356   2.962   5.177   3.774
30820SOL    HW194357   3.012   5.206   3.698
30820SOL    HW294358   2.962   5.082   3.768
30821SOL     OW94359   9.457  11.628   0.491
30821SOL    HW194360   9.415  11.643   0.406
30821SOL    HW294361   9.545  11.597   0.470
30822SOL     OW94362  10.052   7.465   6.314
30822SOL    HW194363  10.062   7.527   6.386
30822SOL    HW294364   9.969   7.421   6.331
30823SOL     OW94365   8.371  11.496   5.457
30823SOL    HW194366   8.438  11.560   5.432
30823SOL    HW294367   8.416  11.412   5.458
30824SOL     OW94368  14.564   5.484  14.235
30824SOL    HW194369  14.556   5.389  14.232
30824SOL    HW294370  14.482   5.517  14.198
30825SOL     OW94371   0.474   8.168  11.250
30825SOL    HW194372   0.453   8.262  11.254
30825SOL    HW294373   0.568   8.165  11.235
30826SOL     OW94374  12.271   7.505   5.866
30826SOL    HW194375  12.350   7.526   5.817
30826SOL    HW294376  12.303   7.466   5.947
30827SOL     OW94377  13.506   3.322   4.199
30827SOL    HW194378  13.530   3.346   4.109
30827SOL    HW294379  13.419   3.283   4.190
30828SOL     OW94380   8.426   4.968  10.426
30828SOL    HW194381   8.342   4.951  10.469
30828SOL    HW294382   8.491   4.929  10.484
30829SOL     OW94383  13.373   4.304  10.127
30829SOL    HW194384  13.336   4.217  10.139
30829SOL    HW294385  13.298   4.363  10.122
30830SOL     OW94386   1.252  14.876  14.818
30830SOL    HW194387   1.187  14.816  14.856
30830SOL    HW294388   1.216   0.076  14.836
30831SOL     OW94389  12.653   8.433  12.277
30831SOL    HW194390  12.704   8.366  12.232
30831SOL    HW294391  12.568   8.394  12.291
30832SOL     OW94392   2.261   0.071  10.384
30832SOL    HW194393   2.290   0.157  10.353
30832SOL    HW294394   2.177   0.088  10.426
30833SOL     OW94395   9.673  11.593   2.438
30833SOL    HW194396   9.614  11.518   2.437
30833SOL    HW294397   9.618  11.667   2.461
30834SOL     OW94398   6.829   1.604  14.428
30834SOL    HW194399   6.809   1.522  14.473
30834SOL    HW294400   6.864   1.576  14.343
30835SOL     OW94401  14.583   9.101   1.335
30835SOL    HW194402  14.523   9.175   1.332
30835SOL    HW294403  14.532   9.027   1.304
30836SOL     OW94404  12.343   9.466  13.721
30836SOL    HW194405  12.390   9.541  13.685
30836SOL    HW294406  12.310   9.495  13.805
30837SOL     OW94407   8.277   0.782  14.868
30837SOL    HW194408   8.335   0.857  14.860
30837SOL    HW294409   8.330   0.707  14.841
30838SOL     OW94410   3.760   2.945   9.033
30838SOL    HW194411   3.695   2.875   9.032
30838SOL    HW294412   3.834   2.911   8.982
30839SOL     OW94413   9.105   6.738   5.009
30839SOL    HW194414   9.201   6.741   5.012
30839SOL    HW294415   9.084   6.646   5.022
30840SOL     OW94416   2.731   8.494   3.389
30840SOL    HW194417   2.785   8.548   3.332
30840SOL    HW294418   2.685   8.435   3.329
30841SOL     OW94419   1.898   2.523   7.745
30841SOL    HW194420   1.835   2.498   7.813
30841SOL    HW294421   1.848   2.518   7.663
30842SOL     OW94422   4.906   2.554   9.218
30842SOL    HW194423   4.989   2.510   9.200
30842SOL    HW294424   4.921   2.645   9.192
30843SOL     OW94425   9.377  11.001   1.384
30843SOL    HW194426   9.390  10.915   1.345
30843SOL    HW294427   9.434  11.059   1.334
30844SOL     OW94428   3.277   3.189  12.969
30844SOL    HW194429   3.357   3.224  12.932
30844SOL    HW294430   3.306   3.139  13.045
30845SOL     OW94431  13.956   7.531   6.708
30845SOL    HW194432  14.019   7.601   6.694
30845SOL    HW294433  13.914   7.519   6.622
30846SOL     OW94434  11.982   7.121  10.992
30846SOL    HW194435  11.962   7.182  11.062
30846SOL    HW294436  11.970   7.034  11.031
30847SOL     OW94437   6.998   2.690   7.209
30847SOL    HW194438   6.992   2.752   7.281
30847SOL    HW294439   7.090   2.663   7.208
30848SOL     OW94440  13.718   1.226   8.368
30848SOL    HW194441  13.783   1.198   8.303
30848SOL    HW294442  13.658   1.281   8.318
30849SOL     OW94443  11.511   2.544  13.405
30849SOL    HW194444  11.547   2.609  13.465
30849SOL    HW294445  11.587   2.494  13.375
30850SOL     OW94446   2.020   7.222  14.500
30850SOL    HW194447   1.979   7.177  14.574
30850SOL    HW294448   2.004   7.164  14.425
30851SOL     OW94449  13.872   8.005   5.839
30851SOL    HW194450  13.887   7.937   5.904
30851SOL    HW294451  13.959   8.033   5.812
30852SOL     OW94452   7.147   3.339   8.941
30852SOL    HW194453   7.225   3.395   8.943
30852SOL    HW294454   7.094   3.374   8.869
30853SOL     OW94455   6.125  14.106   9.785
30853SOL    HW194456   6.217  14.094   9.761
30853SOL    HW294457   6.100  14.024   9.826
30854SOL     OW94458   3.165  12.967  10.070
30854SOL    HW194459   3.142  12.925  10.153
30854SOL    HW294460   3.185  12.894  10.011
30855SOL     OW94461  11.044   2.585   1.244
30855SOL    HW194462  11.123   2.624   1.207
30855SOL    HW294463  10.973   2.616   1.188
30856SOL     OW94464   9.604   9.879  13.178
30856SOL    HW194465   9.547   9.878  13.101
30856SOL    HW294466   9.577   9.802  13.228
30857SOL     OW94467   7.214  13.701   1.439
30857SOL    HW194468   7.220  13.719   1.345
30857SOL    HW294469   7.151  13.766   1.471
30858SOL     OW94470  11.729   1.500   7.575
30858SOL    HW194471  11.738   1.537   7.487
30858SOL    HW294472  11.808   1.527   7.621
30859SOL     OW94473  10.889  12.584   1.334
30859SOL    HW194474  10.946  12.659   1.318
30859SOL    HW294475  10.886  12.577   1.430
30860SOL     OW94476   1.915  13.960  10.290
30860SOL    HW194477   1.945  14.015  10.217
30860SOL    HW294478   1.943  14.007  10.368
30861SOL     OW94479   6.433   1.786   2.687
30861SOL    HW194480   6.404   1.839   2.613
30861SOL    HW294481   6.424   1.843   2.763
30862SOL     OW94482   4.774  14.135   0.736
30862SOL    HW194483   4.826  14.126   0.656
30862SOL    HW294484   4.686  14.106   0.710
30863SOL     OW94485   4.618   2.236   9.792
30863SOL    HW194486   4.555   2.308   9.789
30863SOL    HW294487   4.669   2.251   9.871
30864SOL     OW94488   1.189   2.760   8.075
30864SOL    HW194489   1.220   2.674   8.046
30864SOL    HW294490   1.220   2.820   8.008
30865SOL     OW94491   4.160   0.145   4.897
30865SOL    HW194492   4.169   0.083   4.825
30865SOL    HW294493   4.157   0.090   4.976
30866SOL     OW94494   0.960  11.276   8.591
30866SOL    HW194495   1.008  11.221   8.653
30866SOL    HW294496   1.023  11.343   8.564
30867SOL     OW94497   1.412   2.139   9.703
30867SOL    HW194498   1.359   2.151   9.782
30867SOL    HW294499   1.419   2.227   9.665
30868SOL     OW94500  13.618   3.894   5.194
30868SOL    HW194501  13.551   3.944   5.146
30868SOL    HW294502  13.690   3.886   5.132
30869SOL     OW94503   4.784   4.449   6.984
30869SOL    HW194504   4.827   4.528   7.016
30869SOL    HW294505   4.769   4.396   7.062
30870SOL     OW94506   5.677   4.925  13.180
30870SOL    HW194507   5.647   4.834  13.185
30870SOL    HW294508   5.599   4.975  13.157
30871SOL     OW94509   1.149   9.888   7.231
30871SOL    HW194510   1.149   9.807   7.180
30871SOL    HW294511   1.219   9.941   7.192
30872SOL     OW94512   8.599  14.351   7.904
30872SOL    HW194513   8.636  14.345   7.992
30872SOL    HW294514   8.651  14.419   7.861
30873SOL     OW94515  13.282  10.346   7.770
30873SOL    HW194516  13.333  10.416   7.812
30873SOL    HW294517  13.342  10.271   7.768
30874SOL     OW94518   2.579   1.775   4.392
30874SOL    HW194519   2.519   1.718   4.440
30874SOL    HW294520   2.665   1.736   4.406
30875SOL     OW94521   9.429   4.473  13.460
30875SOL    HW194522   9.411   4.383  13.435
30875SOL    HW294523   9.488   4.506  13.393
30876SOL     OW94524   0.525   3.480   3.862
30876SOL    HW194525   0.575   3.400   3.848
30876SOL    HW294526   0.466   3.458   3.934
30877SOL     OW94527   5.012  14.403  14.164
30877SOL    HW194528   4.962  14.466  14.111
30877SOL    HW294529   4.946  14.360  14.218
30878SOL     OW94530  14.732   4.293  10.287
30878SOL    HW194531  14.700   4.215  10.332
30878SOL    HW294532  14.654   4.332  10.248
30879SOL     OW94533  10.304   8.872   1.537
30879SOL    HW194534  10.370   8.939   1.552
30879SOL    HW294535  10.220   8.916   1.549
30880SOL     OW94536   9.606   3.031  11.407
30880SOL    HW194537   9.669   3.092  11.368
30880SOL    HW294538   9.610   3.050  11.501
30881SOL     OW94539  11.787   6.297  10.076
30881SOL    HW194540  11.745   6.227  10.026
30881SOL    HW294541  11.847   6.251  10.135
30882SOL     OW94542   0.910  12.601  10.657
30882SOL    HW194543   0.870  12.578  10.740
30882SOL    HW294544   0.883  12.531  10.597
30883SOL     OW94545   4.948   3.074  14.560
30883SOL    HW194546   5.001   3.002  14.593
30883SOL    HW294547   4.858   3.040  14.559
30884SOL     OW94548  12.260   6.611   5.012
30884SOL    HW194549  12.225   6.658   5.088
30884SOL    HW294550  12.210   6.645   4.938
30885SOL     OW94551   1.169   5.030   9.347
30885SOL    HW194552   1.073   5.034   9.350
30885SOL    HW294553   1.195   5.027   9.439
30886SOL     OW94554   9.861   9.316   6.508
30886SOL    HW194555   9.837   9.325   6.600
30886SOL    HW294556   9.783   9.281   6.466
30887SOL     OW94557   1.542   1.898   8.419
30887SOL    HW194558   1.619   1.862   8.465
30887SOL    HW294559   1.498   1.951   8.486
30888SOL     OW94560   9.896   3.079   3.177
30888SOL    HW194561   9.847   3.040   3.250
30888SOL    HW294562   9.843   3.060   3.100
30889SOL     OW94563  13.923  10.794   8.808
30889SOL    HW194564  13.910  10.751   8.723
30889SOL    HW294565  13.975  10.872   8.788
30890SOL     OW94566   8.514  14.119  13.571
30890SOL    HW194567   8.454  14.069  13.626
30890SOL    HW294568   8.520  14.205  13.613
30891SOL     OW94569   2.955   8.226  12.869
30891SOL    HW194570   2.994   8.162  12.811
30891SOL    HW294571   2.871   8.248  12.829
30892SOL     OW94572   3.506   1.728   7.206
30892SOL    HW194573   3.516   1.713   7.112
30892SOL    HW294574   3.464   1.649   7.239
30893SOL     OW94575   0.162   0.568  12.207
30893SOL    HW194576   0.143   0.485  12.164
30893SOL    HW294577   0.230   0.547  12.271
30894SOL     OW94578  11.280   1.869   3.589
30894SOL    HW194579  11.252   1.856   3.680
30894SOL    HW294580  11.375   1.859   3.592
30895SOL     OW94581   7.545   9.276   3.428
30895SOL    HW194582   7.618   9.236   3.474
30895SOL    HW294583   7.515   9.345   3.486
30896SOL     OW94584   3.584   9.566  13.748
30896SOL    HW194585   3.599   9.476  13.720
30896SOL    HW294586   3.652   9.617  13.703
30897SOL     OW94587  13.016   4.232   5.094
30897SOL    HW194588  12.980   4.145   5.110
30897SOL    HW294589  12.954   4.292   5.136
30898SOL     OW94590  13.828  13.021   8.673
30898SOL    HW194591  13.823  13.048   8.581
30898SOL    HW294592  13.778  13.088   8.720
30899SOL     OW94593   1.215  11.602  12.343
30899SOL    HW194594   1.240  11.667  12.278
30899SOL    HW294595   1.135  11.562  12.308
30900SOL     OW94596  10.838   1.657   4.279
30900SOL    HW194597  10.770   1.614   4.332
30900SOL    HW294598  10.833   1.749   4.304
30901SOL     OW94599   2.638  12.868  12.251
30901SOL    HW194600   2.709  12.825  12.297
30901SOL    HW294601   2.614  12.942  12.307
30902SOL     OW94602   9.359  10.796   8.600
30902SOL    HW194603   9.316  10.729   8.547
30902SOL    HW294604   9.441  10.814   8.553
30903SOL     OW94605   2.636   0.764   2.761
30903SOL    HW194606   2.592   0.848   2.746
30903SOL    HW294607   2.723   0.775   2.724
30904SOL     OW94608  13.395  12.252   4.736
30904SOL    HW194609  13.336  12.293   4.799
30904SOL    HW294610  13.376  12.296   4.653
30905SOL     OW94611   3.984  12.385  14.134
30905SOL    HW194612   3.949  12.384  14.045
30905SOL    HW294613   4.079  12.395  14.123
30906SOL     OW94614   2.143   3.856   4.045
30906SOL    HW194615   2.165   3.861   3.952
30906SOL    HW294616   2.212   3.906   4.089
30907SOL     OW94617   1.319   9.134  11.254
30907SOL    HW194618   1.273   9.055  11.225
30907SOL    HW294619   1.249   9.199  11.265
30908SOL     OW94620   2.402   7.509  12.486
30908SOL    HW194621   2.435   7.525  12.574
30908SOL    HW294622   2.450   7.433  12.455
30909SOL     OW94623   3.258   5.645   9.150
30909SOL    HW194624   3.321   5.692   9.205
30909SOL    HW294625   3.299   5.642   9.064
30910SOL     OW94626   4.567   6.230   8.496
30910SOL    HW194627   4.603   6.183   8.571
30910SOL    HW294628   4.634   6.295   8.474
30911SOL     OW94629   2.302   4.301   5.835
30911SOL    HW194630   2.254   4.267   5.759
30911SOL    HW294631   2.329   4.390   5.809
30912SOL     OW94632  11.477   3.721   7.619
30912SOL    HW194633  11.384   3.697   7.615
30912SOL    HW294634  11.503   3.697   7.708
30913SOL     OW94635   0.191   1.018  11.858
30913SOL    HW194636   0.149   0.933  11.852
30913SOL    HW294637   0.194   1.050  11.767
30914SOL     OW94638   8.600  11.914  12.417
30914SOL    HW194639   8.611  11.823  12.389
30914SOL    HW294640   8.611  11.966  12.337
30915SOL     OW94641   8.472  12.155  12.132
30915SOL    HW194642   8.489  12.079  12.077
30915SOL    HW294643   8.405  12.126  12.193
30916SOL     OW94644   9.874   9.432  10.042
30916SOL    HW194645   9.799   9.485  10.016
30916SOL    HW294646   9.855   9.407  10.133
30917SOL     OW94647   3.941  13.965  13.901
30917SOL    HW194648   4.018  14.000  13.858
30917SOL    HW294649   3.907  13.898  13.841
30918SOL     OW94650   1.375   8.684   3.610
30918SOL    HW194651   1.397   8.737   3.533
30918SOL    HW294652   1.425   8.603   3.598
30919SOL     OW94653  13.555  11.301   7.772
30919SOL    HW194654  13.598  11.262   7.696
30919SOL    HW294655  13.610  11.276   7.847
30920SOL     OW94656   8.304   5.280   3.038
30920SOL    HW194657   8.246   5.208   3.064
30920SOL    HW294658   8.386   5.263   3.084
30921SOL     OW94659   3.781  12.363   9.551
30921SOL    HW194660   3.705  12.312   9.522
30921SOL    HW294661   3.815  12.402   9.471
30922SOL     OW94662   5.394  10.774   2.563
30922SOL    HW194663   5.366  10.761   2.472
30922SOL    HW294664   5.486  10.802   2.556
30923SOL     OW94665  14.336   4.441   8.005
30923SOL    HW194666  14.408   4.378   8.011
30923SOL    HW294667  14.350   4.502   8.077
30924SOL     OW94668   8.167  14.402   9.955
30924SOL    HW194669   8.205  14.484   9.923
30924SOL    HW294670   8.072  14.417   9.954
30925SOL     OW94671  13.028  14.823  11.114
30925SOL    HW194672  13.063  14.819  11.025
30925SOL    HW294673  13.050  14.739  11.153
30926SOL     OW94674   6.573   2.931  10.619
30926SOL    HW194675   6.643   2.865  10.619
30926SOL    HW294676   6.615   3.010  10.585
30927SOL     OW94677   4.978   2.359  13.830
30927SOL    HW194678   4.922   2.363  13.752
30927SOL    HW294679   4.917   2.360  13.904
30928SOL     OW94680   2.772   4.022  11.666
30928SOL    HW194681   2.773   4.102  11.613
30928SOL    HW294682   2.807   3.954  11.608
30929SOL     OW94683   3.002   4.028   6.815
30929SOL    HW194684   3.083   3.986   6.843
30929SOL    HW294685   2.933   3.967   6.841
30930SOL     OW94686   3.525   2.260   2.836
30930SOL    HW194687   3.459   2.300   2.893
30930SOL    HW294688   3.552   2.181   2.882
30931SOL     OW94689   5.864  10.519   3.437
30931SOL    HW194690   5.861  10.435   3.484
30931SOL    HW294691   5.779  10.559   3.453
30932SOL     OW94692   1.912   1.326   6.959
30932SOL    HW194693   1.971   1.396   6.986
30932SOL    HW294694   1.969   1.252   6.940
30933SOL     OW94695   3.450   4.219  14.339
30933SOL    HW194696   3.433   4.184  14.252
30933SOL    HW294697   3.470   4.312  14.324
30934SOL     OW94698  10.177  14.328   5.967
30934SOL    HW194699  10.269  14.305   5.959
30934SOL    HW294700  10.167  14.357   6.057
30935SOL     OW94701   8.956  11.175   6.876
30935SOL    HW194702   8.946  11.080   6.880
30935SOL    HW294703   9.051  11.189   6.882
30936SOL     OW94704   0.287   5.701   9.214
30936SOL    HW194705   0.250   5.784   9.185
30936SOL    HW294706   0.260   5.638   9.147
30937SOL     OW94707   7.406  13.681   7.432
30937SOL    HW194708   7.439  13.711   7.347
30937SOL    HW294709   7.319  13.720   7.438
30938SOL     OW94710   9.593   6.920   9.142
30938SOL    HW194711   9.651   6.862   9.192
30938SOL    HW294712   9.505   6.889   9.162
30939SOL     OW94713   8.685   8.877  14.148
30939SOL    HW194714   8.752   8.945  14.142
30939SOL    HW294715   8.623   8.898  14.078
30940SOL     OW94716   8.195   7.225  14.257
30940SOL    HW194717   8.168   7.135  14.275
30940SOL    HW294718   8.288   7.227  14.280
30941SOL     OW94719   4.906  11.467   1.376
30941SOL    HW194720   4.914  11.387   1.428
30941SOL    HW294721   4.995  11.482   1.342
30942SOL     OW94722   6.465   5.117  13.684
30942SOL    HW194723   6.536   5.056  13.668
30942SOL    HW294724   6.507   5.202  13.694
30943SOL     OW94725   2.371  10.110  11.868
30943SOL    HW194726   2.452  10.108  11.918
30943SOL    HW294727   2.396  10.148  11.783
30944SOL     OW94728   4.986   5.883  13.570
30944SOL    HW194729   4.946   5.836  13.497
30944SOL    HW294730   4.926   5.870  13.643
30945SOL     OW94731   2.736   4.673   5.146
30945SOL    HW194732   2.799   4.694   5.215
30945SOL    HW294733   2.763   4.727   5.072
30946SOL     OW94734  14.886  12.395   8.874
30946SOL    HW194735  14.831  12.318   8.890
30946SOL    HW294736   0.087  12.360   8.868
30947SOL     OW94737   1.151   0.032  12.503
30947SOL    HW194738   1.144  14.826  12.521
30947SOL    HW294739   1.195   0.069  12.579
30948SOL     OW94740   5.677  11.503   2.858
30948SOL    HW194741   5.645  11.420   2.894
30948SOL    HW294742   5.638  11.570   2.913
30949SOL     OW94743  13.401   1.894   3.491
30949SOL    HW194744  13.359   1.898   3.405
30949SOL    HW294745  13.492   1.919   3.474
30950SOL     OW94746  14.699   7.047   2.297
30950SOL    HW194747  14.640   7.118   2.271
30950SOL    HW294748  14.669   7.022   2.385
30951SOL     OW94749   5.770  13.561  12.560
30951SOL    HW194750   5.761  13.472  12.593
30951SOL    HW294751   5.839  13.600  12.613
30952SOL     OW94752   0.334   7.603   0.269
30952SOL    HW194753   0.319   7.519   0.313
30952SOL    HW294754   0.252   7.622   0.223
30953SOL     OW94755  12.999   8.475   5.970
30953SOL    HW194756  12.940   8.483   5.895
30953SOL    HW294757  12.947   8.434   6.038
30954SOL     OW94758   0.854   9.645  11.868
30954SOL    HW194759   0.906   9.723  11.849
30954SOL    HW294760   0.763   9.672  11.856
30955SOL     OW94761  12.844  10.919  10.390
30955SOL    HW194762  12.784  10.993  10.380
30955SOL    HW294763  12.787  10.845  10.412
30956SOL     OW94764  14.835  10.438   3.351
30956SOL    HW194765  14.814  10.525   3.317
30956SOL    HW294766   0.043  10.437   3.355
30957SOL     OW94767   0.745   8.598   6.738
30957SOL    HW194768   0.733   8.649   6.818
30957SOL    HW294769   0.687   8.523   6.748
30958SOL     OW94770  12.691   4.965   2.930
30958SOL    HW194771  12.766   5.015   2.962
30958SOL    HW294772  12.729   4.898   2.873
30959SOL     OW94773   9.163  13.552  11.455
30959SOL    HW194774   9.185  13.464  11.427
30959SOL    HW294775   9.069  13.550  11.471
30960SOL     OW94776   6.363  11.267  12.809
30960SOL    HW194777   6.407  11.268  12.894
30960SOL    HW294778   6.329  11.355  12.798
30961SOL     OW94779   5.651   6.685   1.160
30961SOL    HW194780   5.594   6.693   1.237
30961SOL    HW294781   5.662   6.591   1.148
30962SOL     OW94782  12.561  10.966  10.590
30962SOL    HW194783  12.498  10.912  10.543
30962SOL    HW294784  12.616  10.903  10.637
30963SOL     OW94785   6.879   5.748  10.879
30963SOL    HW194786   6.802   5.743  10.937
30963SOL    HW294787   6.952   5.722  10.934
30964SOL     OW94788   9.433  10.915   7.771
30964SOL    HW194789   9.424  10.914   7.867
30964SOL    HW294790   9.524  10.939   7.755
30965SOL     OW94791   4.399   0.499   3.688
30965SOL    HW194792   4.478   0.475   3.639
30965SOL    HW294793   4.429   0.505   3.779
30966SOL     OW94794  13.413   8.613  11.826
30966SOL    HW194795  13.424   8.584  11.736
30966SOL    HW294796  13.389   8.706  11.818
30967SOL     OW94797   9.337   4.497   7.521
30967SOL    HW194798   9.264   4.449   7.482
30967SOL    HW294799   9.369   4.554   7.450
30968SOL     OW94800   0.750   7.361  14.499
30968SOL    HW194801   0.820   7.381  14.561
30968SOL    HW294802   0.673   7.344  14.553
30969SOL     OW94803   2.867   7.912   3.362
30969SOL    HW194804   2.909   7.975   3.303
30969SOL    HW294805   2.849   7.963   3.441
30970SOL     OW94806  11.399  13.468   5.766
30970SOL    HW194807  11.309  13.457   5.795
30970SOL    HW294808  11.410  13.562   5.758
30971SOL     OW94809  10.888   3.123   7.164
30971SOL    HW194810  10.878   3.165   7.250
30971SOL    HW294811  10.803   3.081   7.148
30972SOL     OW94812   7.921  11.759  14.033
30972SOL    HW194813   7.904  11.848  14.061
30972SOL    HW294814   7.845  11.734  13.981
30973SOL     OW94815   4.763  12.247   4.268
30973SOL    HW194816   4.826  12.177   4.286
30973SOL    HW294817   4.681  12.201   4.249
30974SOL     OW94818   0.951   0.357   3.454
30974SOL    HW194819   0.930   0.272   3.495
30974SOL    HW294820   0.890   0.363   3.381
30975SOL     OW94821   8.330  14.117   8.814
30975SOL    HW194822   8.267  14.047   8.798
30975SOL    HW294823   8.379  14.124   8.732
30976SOL     OW94824  10.124   4.827   2.139
30976SOL    HW194825  10.152   4.763   2.073
30976SOL    HW294826  10.194   4.893   2.139
30977SOL     OW94827  12.978   2.907   2.624
30977SOL    HW194828  13.024   2.844   2.679
30977SOL    HW294829  12.943   2.856   2.551
30978SOL     OW94830   2.441  12.723   9.511
30978SOL    HW194831   2.487  12.668   9.448
30978SOL    HW294832   2.388  12.663   9.562
30979SOL     OW94833   4.398   4.872  13.715
30979SOL    HW194834   4.453   4.918  13.778
30979SOL    HW294835   4.423   4.907  13.630
30980SOL     OW94836   1.583   0.801   0.352
30980SOL    HW194837   1.593   0.808   0.447
30980SOL    HW294838   1.664   0.759   0.323
30981SOL     OW94839   2.165   2.277   9.051
30981SOL    HW194840   2.209   2.275   8.966
30981SOL    HW294841   2.072   2.284   9.030
30982SOL     OW94842  12.196   0.832   7.935
30982SOL    HW194843  12.185   0.749   7.982
30982SOL    HW294844  12.289   0.853   7.946
30983SOL     OW94845   1.787   5.810   4.660
30983SOL    HW194846   1.759   5.870   4.729
30983SOL    HW294847   1.768   5.723   4.694
30984SOL     OW94848  11.600   6.827  11.224
30984SOL    HW194849  11.612   6.738  11.255
30984SOL    HW294850  11.566   6.875  11.299
30985SOL     OW94851   6.817   1.534   2.311
30985SOL    HW194852   6.863   1.617   2.323
30985SOL    HW294853   6.878   1.480   2.260
30986SOL     OW94854   1.494   3.216   3.301
30986SOL    HW194855   1.553   3.151   3.340
30986SOL    HW294856   1.419   3.219   3.361
30987SOL     OW94857   3.561   8.708   1.248
30987SOL    HW194858   3.491   8.772   1.232
30987SOL    HW294859   3.606   8.741   1.326
30988SOL     OW94860   9.205   5.156   2.528
30988SOL    HW194861   9.233   5.079   2.577
30988SOL    HW294862   9.204   5.226   2.594
30989SOL     OW94863   7.413   1.730  11.834
30989SOL    HW194864   7.422   1.728  11.929
30989SOL    HW294865   7.330   1.686  11.816
30990SOL     OW94866   1.522  10.732   3.993
30990SOL    HW194867   1.548  10.824   3.986
30990SOL    HW294868   1.461  10.719   3.921
30991SOL     OW94869  12.345   5.447   6.120
30991SOL    HW194870  12.414   5.381   6.118
30991SOL    HW294871  12.338   5.478   6.030
30992SOL     OW94872  14.028  14.046   7.154
30992SOL    HW194873  14.070  14.060   7.070
30992SOL    HW294874  13.940  14.015   7.132
30993SOL     OW94875  13.961  12.223   6.695
30993SOL    HW194876  13.966  12.206   6.601
30993SOL    HW294877  13.945  12.138   6.734
30994SOL     OW94878   3.943   1.664   4.604
30994SOL    HW194879   3.968   1.617   4.524
30994SOL    HW294880   3.961   1.756   4.585
30995SOL     OW94881   6.987   1.864  11.552
30995SOL    HW194882   6.968   1.958  11.548
30995SOL    HW294883   6.922   1.824  11.494
30996SOL     OW94884   4.008   6.767  14.404
30996SOL    HW194885   4.053   6.745  14.486
30996SOL    HW294886   4.043   6.706  14.340
30997SOL     OW94887  13.043  12.288   2.682
30997SOL    HW194888  12.966  12.344   2.684
30997SOL    HW294889  13.011  12.201   2.708
30998SOL     OW94890   1.261   0.210   7.050
30998SOL    HW194891   1.291   0.122   7.074
30998SOL    HW294892   1.257   0.257   7.133
30999SOL     OW94893   7.206   0.644  11.926
30999SOL    HW194894   7.173   0.641  11.836
30999SOL    HW294895   7.239   0.556  11.944
31000SOL     OW94896   8.976   7.821  12.693
31000SOL    HW194897   8.914   7.750  12.714
31000SOL    HW294898   8.921   7.898  12.682
31001SOL     OW94899  14.829   9.676   4.500
31001SOL    HW194900  14.872   9.738   4.442
31001SOL    HW294901   0.002   9.601   4.504
31002SOL     OW94902  11.559  10.231  13.050
31002SOL    HW194903  11.540  10.151  13.000
31002SOL    HW294904  11.475  10.258  13.086
31003SOL     OW94905  12.617   2.217   6.740
31003SOL    HW194906  12.574   2.131   6.748
31003SOL    HW294907  12.621   2.250   6.830
31004SOL     OW94908   1.893  12.595   4.973
31004SOL    HW194909   1.830  12.522   4.971
31004SOL    HW294910   1.926  12.599   4.883
31005SOL     OW94911  10.521  13.436   4.063
31005SOL    HW194912  10.573  13.436   4.143
31005SOL    HW294913  10.477  13.350   4.062
31006SOL     OW94914   1.638   9.866  14.548
31006SOL    HW194915   1.689   9.880  14.468
31006SOL    HW294916   1.588   9.947  14.559
31007SOL     OW94917   4.201   4.138   7.844
31007SOL    HW194918   4.187   4.192   7.766
31007SOL    HW294919   4.281   4.089   7.825
31008SOL     OW94920   3.381   2.162  11.894
31008SOL    HW194921   3.335   2.131  11.973
31008SOL    HW294922   3.474   2.155  11.916
31009SOL     OW94923   4.346   5.403   6.232
31009SOL    HW194924   4.315   5.427   6.144
31009SOL    HW294925   4.419   5.463   6.249
31010SOL     OW94926  12.971  12.534  13.228
31010SOL    HW194927  12.973  12.623  13.264
31010SOL    HW294928  13.059  12.500  13.241
31011SOL     OW94929  11.548   7.017   3.525
31011SOL    HW194930  11.470   7.010   3.581
31011SOL    HW294931  11.591   6.932   3.534
31012SOL     OW94932  12.712  10.069   8.324
31012SOL    HW194933  12.774  10.133   8.290
31012SOL    HW294934  12.645  10.061   8.255
31013SOL     OW94935   4.706   4.193   4.629
31013SOL    HW194936   4.757   4.228   4.702
31013SOL    HW294937   4.731   4.246   4.553
31014SOL     OW94938   2.587   1.378   5.900
31014SOL    HW194939   2.565   1.388   5.993
31014SOL    HW294940   2.519   1.427   5.854
31015SOL     OW94941  14.233  11.110  14.345
31015SOL    HW194942  14.253  11.104  14.438
31015SOL    HW294943  14.318  11.128  14.304
31016SOL     OW94944   4.572  13.785   3.067
31016SOL    HW194945   4.492  13.817   3.107
31016SOL    HW294946   4.619  13.864   3.041
31017SOL     OW94947  12.196  11.249   8.233
31017SOL    HW194948  12.286  11.227   8.257
31017SOL    HW294949  12.190  11.225   8.141
31018SOL     OW94950  10.480   2.425   3.111
31018SOL    HW194951  10.523   2.466   3.186
31018SOL    HW294952  10.406   2.483   3.091
31019SOL     OW94953   7.221   2.386  11.995
31019SOL    HW194954   7.180   2.302  12.014
31019SOL    HW294955   7.300   2.365  11.946
31020SOL     OW94956   9.845   9.450  10.345
31020SOL    HW194957   9.775   9.393  10.375
31020SOL    HW294958   9.916   9.437  10.408
31021SOL     OW94959   7.951   9.802  12.559
31021SOL    HW194960   7.909   9.883  12.586
31021SOL    HW294961   7.889   9.733  12.584
31022SOL     OW94962  14.041  10.294  12.816
31022SOL    HW194963  13.978  10.224  12.826
31022SOL    HW294964  14.017  10.358  12.884
31023SOL     OW94965   1.238   8.518   3.159
31023SOL    HW194966   1.241   8.613   3.172
31023SOL    HW294967   1.214   8.507   3.067
31024SOL     OW94968  13.183   4.380   3.778
31024SOL    HW194969  13.125   4.344   3.845
31024SOL    HW294970  13.193   4.308   3.715
31025SOL     OW94971   9.434  11.917   4.305
31025SOL    HW194972   9.397  11.833   4.334
31025SOL    HW294973   9.523  11.896   4.279
31026SOL     OW94974  12.442  13.455   0.088
31026SOL    HW194975  12.372  13.516   0.112
31026SOL    HW294976  12.445  13.458  14.880
31027SOL     OW94977   1.784   9.426   1.791
31027SOL    HW194978   1.869   9.393   1.762
31027SOL    HW294979   1.800   9.460   1.879
31028SOL     OW94980   4.116   2.676   0.759
31028SOL    HW194981   4.034   2.662   0.710
31028SOL    HW294982   4.106   2.764   0.796
31029SOL     OW94983   5.876   7.534   5.330
31029SOL    HW194984   5.919   7.508   5.411
31029SOL    HW294985   5.782   7.536   5.352
31030SOL     OW94986   6.243   3.613   7.567
31030SOL    HW194987   6.289   3.556   7.506
31030SOL    HW294988   6.158   3.629   7.527
31031SOL     OW94989   6.520   7.360   1.647
31031SOL    HW194990   6.442   7.311   1.674
31031SOL    HW294991   6.484   7.442   1.613
31032SOL     OW94992   2.626   0.183   6.454
31032SOL    HW194993   2.552   0.147   6.503
31032SOL    HW294994   2.592   0.263   6.415
31033SOL     OW94995   7.919  13.701   1.254
31033SOL    HW194996   7.857  13.657   1.196
31033SOL    HW294997   7.865  13.732   1.327
31034SOL     OW94998   8.560  13.156   5.469
31034SOL    HW194999   8.650  13.185   5.453
31034SOL    HW295000   8.532  13.119   5.386
31035SOL     OW95001   0.995   8.326   4.324
31035SOL    HW195002   1.078   8.338   4.277
31035SOL    HW295003   0.988   8.231   4.336
31036SOL     OW95004  10.996   1.580   1.820
31036SOL    HW195005  10.914   1.629   1.815
31036SOL    HW295006  11.011   1.548   1.731
31037SOL     OW95007   4.254   0.731  12.560
31037SOL    HW195008   4.265   0.794  12.632
31037SOL    HW295009   4.180   0.677  12.588
31038SOL     OW95010   6.127   0.298   3.987
31038SOL    HW195011   6.209   0.335   3.953
31038SOL    HW295012   6.144   0.203   3.992
31039SOL     OW95013  13.248  10.685   1.893
31039SOL    HW195014  13.232  10.615   1.830
31039SOL    HW295015  13.277  10.759   1.839
31040SOL     OW95016   0.241   6.229   3.247
31040SOL    HW195017   0.310   6.281   3.203
31040SOL    HW295018   0.181   6.294   3.282
31041SOL     OW95019   7.087  11.096   1.276
31041SOL    HW195020   7.090  11.191   1.260
31041SOL    HW295021   7.169  11.077   1.322
31042SOL     OW95022  13.558   6.999  12.123
31042SOL    HW195023  13.475   7.046  12.130
31042SOL    HW295024  13.535   6.915  12.083
31043SOL     OW95025   0.483   7.069   7.687
31043SOL    HW195026   0.418   7.122   7.640
31043SOL    HW295027   0.442   6.983   7.696
31044SOL     OW95028   2.629   0.681   9.609
31044SOL    HW195029   2.606   0.772   9.587
31044SOL    HW295030   2.570   0.628   9.554
31045SOL     OW95031  10.266  14.317   0.150
31045SOL    HW195032  10.282  14.224   0.164
31045SOL    HW295033  10.178  14.332   0.183
31046SOL     OW95034  11.305   4.177  13.794
31046SOL    HW195035  11.377   4.114  13.795
31046SOL    HW295036  11.240   4.141  13.855
31047SOL     OW95037  11.618   3.640   2.042
31047SOL    HW195038  11.575   3.693   1.974
31047SOL    HW295039  11.546   3.599   2.090
31048SOL     OW95040  12.960   8.599   9.830
31048SOL    HW195041  12.867   8.620   9.838
31048SOL    HW295042  12.966   8.508   9.860
31049SOL     OW95043   2.565   9.967  13.840
31049SOL    HW195044   2.637   9.914  13.805
31049SOL    HW295045   2.512   9.988  13.763
31050SOL     OW95046   6.101   9.141   7.234
31050SOL    HW195047   6.023   9.131   7.287
31050SOL    HW295048   6.152   9.209   7.279
31051SOL     OW95049   3.164   4.870  14.648
31051SOL    HW195050   3.187   4.933  14.716
31051SOL    HW295051   3.076   4.842  14.670
31052SOL     OW95052  10.709   8.669   3.460
31052SOL    HW195053  10.689   8.576   3.454
31052SOL    HW295054  10.639   8.712   3.411
31053SOL     OW95055   9.491   2.110   0.905
31053SOL    HW195056   9.466   2.018   0.901
31053SOL    HW295057   9.538   2.118   0.989
31054SOL     OW95058   0.708  10.082  12.485
31054SOL    HW195059   0.712  10.074  12.390
31054SOL    HW295060   0.765  10.012  12.517
31055SOL     OW95061   2.981  12.356  13.405
31055SOL    HW195062   3.044  12.310  13.349
31055SOL    HW295063   2.999  12.449  13.390
31056SOL     OW95064   4.587   5.726  13.860
31056SOL    HW195065   4.580   5.712  13.955
31056SOL    HW295066   4.498   5.710  13.827
31057SOL     OW95067   5.424   7.646   8.899
31057SOL    HW195068   5.365   7.694   8.957
31057SOL    HW295069   5.511   7.667   8.931
31058SOL     OW95070  13.782  13.554   4.510
31058SOL    HW195071  13.695  13.592   4.503
31058SOL    HW295072  13.776  13.472   4.460
31059SOL     OW95073   7.101   1.517   5.457
31059SOL    HW195074   7.011   1.551   5.461
31059SOL    HW295075   7.092   1.423   5.473
31060SOL     OW95076   5.872  12.676  11.207
31060SOL    HW195077   5.804  12.738  11.234
31060SOL    HW295078   5.876  12.613  11.279
31061SOL     OW95079   9.399  11.793  14.616
31061SOL    HW195080   9.448  11.725  14.569
31061SOL    HW295081   9.464  11.859  14.638
31062SOL     OW95082   3.153   6.418   7.627
31062SOL    HW195083   3.210   6.483   7.668
31062SOL    HW295084   3.185   6.411   7.537
31063SOL     OW95085  13.974  14.145  13.502
31063SOL    HW195086  14.060  14.164  13.465
31063SOL    HW295087  13.912  14.193  13.447
31064SOL     OW95088   8.819   5.523   4.398
31064SOL    HW195089   8.904   5.567   4.393
31064SOL    HW295090   8.756   5.594   4.407
31065SOL     OW95091   2.943  11.517   0.959
31065SOL    HW195092   2.977  11.606   0.951
31065SOL    HW295093   3.022  11.462   0.963
31066SOL     OW95094  10.957   4.990   8.889
31066SOL    HW195095  11.048   4.961   8.881
31066SOL    HW295096  10.929   4.956   8.974
31067SOL     OW95097   7.788   7.143   8.435
31067SOL    HW195098   7.712   7.140   8.377
31067SOL    HW295099   7.863   7.145   8.376
31068SOL     OW95100   9.470  11.063   6.827
31068SOL    HW195101   9.506  10.976   6.841
31068SOL    HW295102   9.477  11.077   6.732
31069SOL     OW95103  14.569   1.064   1.873
31069SOL    HW195104  14.664   1.076   1.869
31069SOL    HW295105  14.556   0.970   1.856
31070SOL     OW95106   6.274   7.757   6.938
31070SOL    HW195107   6.329   7.679   6.931
31070SOL    HW295108   6.308   7.803   7.015
31071SOL     OW95109   0.484   9.860   9.479
31071SOL    HW195110   0.577   9.860   9.458
31071SOL    HW295111   0.440   9.871   9.395
31072SOL     OW95112  10.688   4.231   1.142
31072SOL    HW195113  10.704   4.312   1.093
31072SOL    HW295114  10.727   4.162   1.089
31073SOL     OW95115  10.992   0.928   8.449
31073SOL    HW195116  11.000   0.896   8.359
31073SOL    HW295117  10.979   1.023   8.439
31074SOL     OW95118   6.189  14.066  10.172
31074SOL    HW195119   6.119  14.049  10.236
31074SOL    HW295120   6.257  14.002  10.194
31075SOL     OW95121  14.136  13.433   6.399
31075SOL    HW195122  14.151  13.347   6.359
31075SOL    HW295123  14.063  13.470   6.349
31076SOL     OW95124   1.706  13.630   6.221
31076SOL    HW195125   1.731  13.575   6.147
31076SOL    HW295126   1.654  13.700   6.181
31077SOL     OW95127  10.278   1.332   9.987
31077SOL    HW195128  10.322   1.252  10.015
31077SOL    HW295129  10.250   1.313   9.897
31078SOL     OW95130  13.977  13.172  13.140
31078SOL    HW195131  13.940  13.172  13.051
31078SOL    HW295132  13.992  13.264  13.159
31079SOL     OW95133   8.186  13.380  11.863
31079SOL    HW195134   8.111  13.356  11.809
31079SOL    HW295135   8.259  13.329  11.828
31080SOL     OW95136  13.703   2.826  12.380
31080SOL    HW195137  13.699   2.743  12.427
31080SOL    HW295138  13.758   2.882  12.435
31081SOL     OW95139   7.855  12.968   7.716
31081SOL    HW195140   7.831  13.018   7.638
31081SOL    HW295141   7.943  12.936   7.698
31082SOL     OW95142  13.202   5.608   4.500
31082SOL    HW195143  13.126   5.602   4.559
31082SOL    HW295144  13.272   5.564   4.548
31083SOL     OW95145   7.698   0.199  12.202
31083SOL    HW195146   7.678   0.237  12.117
31083SOL    HW295147   7.617   0.156  12.229
31084SOL     OW95148   8.126  11.642   3.425
31084SOL    HW195149   8.168  11.556   3.434
31084SOL    HW295150   8.191  11.704   3.460
31085SOL     OW95151  10.516   0.831  13.658
31085SOL    HW195152  10.598   0.794  13.625
31085SOL    HW295153  10.448   0.771  13.626
31086SOL     OW95154  12.770   6.287   2.751
31086SOL    HW195155  12.839   6.263   2.812
31086SOL    HW295156  12.694   6.235   2.778
31087SOL     OW95157   3.091   6.628  10.793
31087SOL    HW195158   3.166   6.676  10.760
31087SOL    HW295159   3.118   6.597  10.879
31088SOL     OW95160   2.702  13.256  11.262
31088SOL    HW195161   2.705  13.160  11.264
31088SOL    HW295162   2.692  13.282  11.354
31089SOL     OW95163  11.096   1.222  10.788
31089SOL    HW195164  11.053   1.232  10.703
31089SOL    HW295165  11.085   1.307  10.831
31090SOL     OW95166  14.197  11.420   7.647
31090SOL    HW195167  14.225  11.502   7.686
31090SOL    HW295168  14.218  11.429   7.554
31091SOL     OW95169   3.092   2.429   1.158
31091SOL    HW195170   3.153   2.497   1.189
31091SOL    HW295171   3.044   2.470   1.087
31092SOL     OW95172   5.855   7.659   6.973
31092SOL    HW195173   5.784   7.670   7.037
31092SOL    HW295174   5.908   7.588   7.009
31093SOL     OW95175   6.150   3.493  14.580
31093SOL    HW195176   6.106   3.410  14.562
31093SOL    HW295177   6.080   3.554  14.601
31094SOL     OW95178   6.433   2.445  14.867
31094SOL    HW195179   6.463   2.533   0.003
31094SOL    HW295180   6.473   2.427  14.782
31095SOL     OW95181   5.528   1.959  10.189
31095SOL    HW195182   5.618   1.927  10.192
31095SOL    HW295183   5.490   1.919  10.110
31096SOL     OW95184   8.624   1.374  13.511
31096SOL    HW195185   8.691   1.414  13.455
31096SOL    HW295186   8.674   1.321  13.573
31097SOL     OW95187  12.451   4.096   3.966
31097SOL    HW195188  12.426   4.069   3.878
31097SOL    HW295189  12.424   4.024   4.023
31098SOL     OW95190  12.696   4.933   6.164
31098SOL    HW195191  12.673   4.848   6.201
31098SOL    HW295192  12.624   4.990   6.190
31099SOL     OW95193  11.876   9.254   2.663
31099SOL    HW195194  11.909   9.190   2.600
31099SOL    HW295195  11.934   9.246   2.738
31100SOL     OW95196   7.414  13.991  12.681
31100SOL    HW195197   7.488  13.992  12.742
31100SOL    HW295198   7.382  14.081  12.681
31101SOL     OW95199   9.091   0.754   2.440
31101SOL    HW195200   9.144   0.693   2.388
31101SOL    HW295201   9.155   0.816   2.476
31102SOL     OW95202  12.367  13.240   2.478
31102SOL    HW195203  12.332  13.175   2.416
31102SOL    HW295204  12.456  13.256   2.447
31103SOL     OW95205   9.394   2.054   2.253
31103SOL    HW195206   9.380   2.061   2.158
31103SOL    HW295207   9.376   2.142   2.286
31104SOL     OW95208  13.553  12.230   1.093
31104SOL    HW195209  13.589  12.302   1.145
31104SOL    HW295210  13.458  12.246   1.093
31105SOL     OW95211   1.151   8.552  14.687
31105SOL    HW195212   1.104   8.501  14.754
31105SOL    HW295213   1.084   8.573  14.622
31106SOL     OW95214  11.935  12.535   6.240
31106SOL    HW195215  11.982  12.504   6.317
31106SOL    HW295216  11.974  12.487   6.167
31107SOL     OW95217   9.432  11.447   0.782
31107SOL    HW195218   9.389  11.380   0.727
31107SOL    HW295219   9.363  11.476   0.842
31108SOL     OW95220  11.641   8.642   2.061
31108SOL    HW195221  11.735   8.660   2.059
31108SOL    HW295222  11.621   8.629   2.153
31109SOL     OW95223   1.507   1.672   7.734
31109SOL    HW195224   1.523   1.757   7.694
31109SOL    HW295225   1.417   1.651   7.709
31110SOL     OW95226   8.694  13.471   1.602
31110SOL    HW195227   8.604  13.492   1.578
31110SOL    HW295228   8.746  13.507   1.530
31111SOL     OW95229  12.649   7.026   6.532
31111SOL    HW195230  12.737   7.006   6.562
31111SOL    HW295231  12.657   7.036   6.438
31112SOL     OW95232   4.160  11.690   7.734
31112SOL    HW195233   4.086  11.746   7.756
31112SOL    HW295234   4.176  11.640   7.814
31113SOL     OW95235   8.978  14.157   8.138
31113SOL    HW195236   8.979  14.127   8.228
31113SOL    HW295237   8.998  14.079   8.086
31114SOL     OW95238   3.543  12.136   6.521
31114SOL    HW195239   3.609  12.189   6.476
31114SOL    HW295240   3.481  12.200   6.555
31115SOL     OW95241   0.943   1.370  11.712
31115SOL    HW195242   0.912   1.296  11.765
31115SOL    HW295243   0.918   1.448  11.762
31116SOL     OW95244   3.505  14.253   5.783
31116SOL    HW195245   3.536  14.328   5.834
31116SOL    HW295246   3.432  14.287   5.731
31117SOL     OW95247   1.730   9.078   0.112
31117SOL    HW195248   1.824   9.059   0.116
31117SOL    HW295249   1.689   9.008   0.163
31118SOL     OW95250  14.429   2.392  13.577
31118SOL    HW195251  14.418   2.323  13.512
31118SOL    HW295252  14.473   2.463  13.529
31119SOL     OW95253   8.837  12.802   0.870
31119SOL    HW195254   8.903  12.737   0.891
31119SOL    HW295255   8.831  12.856   0.950
31120SOL     OW95256   9.160   7.770   0.648
31120SOL    HW195257   9.115   7.849   0.619
31120SOL    HW295258   9.095   7.700   0.640
31121SOL     OW95259   6.374   8.665   6.633
31121SOL    HW195260   6.459   8.659   6.589
31121SOL    HW295261   6.396   8.681   6.725
31122SOL     OW95262  14.886   6.496   9.748
31122SOL    HW195263  14.877   6.401   9.737
31122SOL    HW295264  14.802   6.531   9.719
31123SOL     OW95265  13.438   6.378   8.644
31123SOL    HW195266  13.501   6.374   8.716
31123SOL    HW295267  13.479   6.436   8.579
31124SOL     OW95268   3.189   8.172   8.029
31124SOL    HW195269   3.256   8.192   8.095
31124SOL    HW295270   3.128   8.246   8.035
31125SOL     OW95271  10.561  10.802   7.041
31125SOL    HW195272  10.486  10.857   7.017
31125SOL    HW295273  10.633  10.834   6.987
31126SOL     OW95274   5.203  12.058   0.989
31126SOL    HW195275   5.173  12.047   0.899
31126SOL    HW295276   5.198  12.152   1.005
31127SOL     OW95277   8.370   6.048   2.931
31127SOL    HW195278   8.322   5.973   2.968
31127SOL    HW295279   8.368   6.114   3.000
31128SOL     OW95280  13.687  13.316   4.384
31128SOL    HW195281  13.682  13.235   4.435
31128SOL    HW295282  13.599  13.352   4.387
31129SOL     OW95283  10.758   7.426   5.797
31129SOL    HW195284  10.794   7.513   5.782
31129SOL    HW295285  10.678   7.423   5.744
31130SOL     OW95286  11.380   5.018   4.762
31130SOL    HW195287  11.447   4.970   4.811
31130SOL    HW295288  11.420   5.035   4.677
31131SOL     OW95289   9.059   1.244   1.523
31131SOL    HW195290   8.977   1.245   1.572
31131SOL    HW295291   9.033   1.258   1.432
31132SOL     OW95292   0.290   8.047  13.019
31132SOL    HW195293   0.207   8.001  13.001
31132SOL    HW295294   0.289   8.122  12.960
31133SOL     OW95295  12.208   5.397   6.943
31133SOL    HW195296  12.231   5.364   7.030
31133SOL    HW295297  12.287   5.441   6.912
31134SOL     OW95298   1.317   0.755   1.245
31134SOL    HW195299   1.344   0.738   1.335
31134SOL    HW295300   1.394   0.734   1.192
31135SOL     OW95301   3.881  13.287   3.723
31135SOL    HW195302   3.956  13.242   3.763
31135SOL    HW295303   3.855  13.352   3.788
31136SOL     OW95304  14.006   7.862  11.599
31136SOL    HW195305  14.096   7.894  11.600
31136SOL    HW295306  14.001   7.807  11.520
31137SOL     OW95307   4.658  11.283  11.237
31137SOL    HW195308   4.613  11.248  11.160
31137SOL    HW295309   4.609  11.362  11.260
31138SOL     OW95310   8.570   4.171  14.687
31138SOL    HW195311   8.569   4.240  14.753
31138SOL    HW295312   8.611   4.212  14.611
31139SOL     OW95313   8.934   2.745   2.683
31139SOL    HW195314   8.973   2.678   2.739
31139SOL    HW295315   9.008   2.792   2.644
31140SOL     OW95316   0.786   7.006   6.098
31140SOL    HW195317   0.812   7.030   6.009
31140SOL    HW295318   0.838   6.928   6.117
31141SOL     OW95319   8.052   2.316   5.079
31141SOL    HW195320   7.966   2.290   5.047
31141SOL    HW295321   8.087   2.373   5.011
31142SOL     OW95322   7.637   0.282   8.273
31142SOL    HW195323   7.707   0.302   8.211
31142SOL    HW295324   7.679   0.291   8.359
31143SOL     OW95325   9.974   6.477  13.060
31143SOL    HW195326   9.901   6.483  13.121
31143SOL    HW295327   9.972   6.559  13.011
31144SOL     OW95328   4.704  13.049   0.329
31144SOL    HW195329   4.728  12.994   0.404
31144SOL    HW295330   4.716  13.139   0.360
31145SOL     OW95331   2.257   4.639  12.623
31145SOL    HW195332   2.215   4.670  12.703
31145SOL    HW295333   2.201   4.669  12.552
31146SOL     OW95334   9.518   8.809   3.867
31146SOL    HW195335   9.544   8.717   3.871
31146SOL    HW295336   9.499   8.824   3.775
31147SOL     OW95337   9.112   0.995   5.307
31147SOL    HW195338   9.076   0.929   5.247
31147SOL    HW295339   9.097   1.078   5.262
31148SOL     OW95340  13.802   1.713   0.725
31148SOL    HW195341  13.744   1.654   0.677
31148SOL    HW295342  13.774   1.704   0.816
31149SOL     OW95343   4.353  14.693   6.218
31149SOL    HW195344   4.343  14.785   6.244
31149SOL    HW295345   4.345  14.694   6.123
31150SOL     OW95346  10.068  14.148  12.205
31150SOL    HW195347  10.130  14.191  12.264
31150SOL    HW295348  10.114  14.069  12.176
31151SOL     OW95349   5.240   1.736   8.163
31151SOL    HW195350   5.245   1.774   8.251
31151SOL    HW295351   5.236   1.812   8.104
31152SOL     OW95352  12.624   8.030  14.383
31152SOL    HW195353  12.623   7.935  14.369
31152SOL    HW295354  12.554   8.046  14.446
31153SOL     OW95355   6.558  14.068   5.572
31153SOL    HW195356   6.496  14.073   5.645
31153SOL    HW295357   6.641  14.098   5.610
31154SOL     OW95358   9.414   7.089   0.760
31154SOL    HW195359   9.415   7.054   0.849
31154SOL    HW295360   9.363   7.170   0.766
31155SOL     OW95361   7.713  14.540   0.347
31155SOL    HW195362   7.729  14.612   0.408
31155SOL    HW295363   7.619  14.546   0.327
31156SOL     OW95364   7.299   5.485  11.150
31156SOL    HW195365   7.377   5.487  11.095
31156SOL    HW295366   7.284   5.392  11.167
31157SOL     OW95367   4.534   1.748   3.977
31157SOL    HW195368   4.607   1.754   3.916
31157SOL    HW295369   4.574   1.729   4.062
31158SOL     OW95370  14.399  14.075   7.113
31158SOL    HW195371  14.386  14.054   7.205
31158SOL    HW295372  14.354  14.159   7.100
31159SOL     OW95373  13.525  14.187  11.709
31159SOL    HW195374  13.597  14.140  11.750
31159SOL    HW295375  13.532  14.276  11.743
31160SOL     OW95376   5.309  11.766   0.115
31160SOL    HW195377   5.240  11.700   0.120
31160SOL    HW295378   5.390  11.717   0.129
31161SOL     OW95379   0.597   2.029   3.457
31161SOL    HW195380   0.651   2.009   3.380
31161SOL    HW295381   0.638   2.106   3.496
31162SOL     OW95382  13.600   4.203  13.089
31162SOL    HW195383  13.589   4.271  13.023
31162SOL    HW295384  13.655   4.244  13.156
31163SOL     OW95385  13.988  13.968   1.333
31163SOL    HW195386  13.983  14.045   1.389
31163SOL    HW295387  14.058  13.915   1.371
31164SOL     OW95388  12.332   4.897   6.117
31164SOL    HW195389  12.255   4.839   6.119
31164SOL    HW295390  12.387   4.866   6.189
31165SOL     OW95391   1.329   7.895   3.814
31165SOL    HW195392   1.265   7.850   3.870
31165SOL    HW295393   1.363   7.826   3.757
31166SOL     OW95394   3.985   3.947   4.162
31166SOL    HW195395   4.010   3.968   4.252
31166SOL    HW295396   3.903   3.897   4.171
31167SOL     OW95397  11.209  10.404   4.584
31167SOL    HW195398  11.209  10.376   4.675
31167SOL    HW295399  11.171  10.329   4.536
31168SOL     OW95400   4.710   3.871  13.316
31168SOL    HW195401   4.628   3.856  13.363
31168SOL    HW295402   4.769   3.906  13.382
31169SOL     OW95403   7.314   8.762   6.396
31169SOL    HW195404   7.397   8.786   6.438
31169SOL    HW295405   7.248   8.810   6.446
31170SOL     OW95406  11.515   2.293   4.851
31170SOL    HW195407  11.495   2.199   4.854
31170SOL    HW295408  11.539   2.309   4.760
31171SOL     OW95409   8.415   1.703   4.369
31171SOL    HW195410   8.502   1.741   4.369
31171SOL    HW295411   8.392   1.697   4.462
31172SOL     OW95412  10.855   9.858   2.882
31172SOL    HW195413  10.797   9.785   2.858
31172SOL    HW295414  10.848   9.863   2.977
31173SOL     OW95415   8.681  10.935   1.195
31173SOL    HW195416   8.642  10.997   1.256
31173SOL    HW295417   8.673  10.976   1.110
31174SOL     OW95418   0.517   2.706   5.529
31174SOL    HW195419   0.444   2.709   5.467
31174SOL    HW295420   0.594   2.693   5.474
31175SOL     OW95421  13.582   5.148   5.146
31175SOL    HW195422  13.609   5.067   5.189
31175SOL    HW295423  13.552   5.121   5.060
31176SOL     OW95424  11.197   2.917   8.138
31176SOL    HW195425  11.274   2.918   8.195
31176SOL    HW295426  11.207   2.837   8.087
31177SOL     OW95427  12.988  14.062  13.766
31177SOL    HW195428  12.954  13.993  13.823
31177SOL    HW295429  12.914  14.085  13.710
31178SOL     OW95430   7.609  11.300   1.569
31178SOL    HW195431   7.666  11.335   1.637
31178SOL    HW295432   7.562  11.227   1.611
31179SOL     OW95433   7.065   2.913   8.682
31179SOL    HW195434   7.030   2.994   8.644
31179SOL    HW295435   7.023   2.844   8.631
31180SOL     OW95436   2.136   1.413   3.129
31180SOL    HW195437   2.086   1.493   3.136
31180SOL    HW295438   2.221   1.441   3.095
31181SOL     OW95439   5.675  11.206   5.980
31181SOL    HW195440   5.715  11.248   5.903
31181SOL    HW295441   5.740  11.216   6.049
31182SOL     OW95442   3.526   0.776   4.079
31182SOL    HW195443   3.489   0.864   4.068
31182SOL    HW295444   3.608   0.790   4.126
31183SOL     OW95445   3.862   6.365   7.899
31183SOL    HW195446   3.938   6.387   7.954
31183SOL    HW295447   3.812   6.303   7.953
31184SOL     OW95448   3.322   0.776   6.845
31184SOL    HW195449   3.298   0.690   6.878
31184SOL    HW295450   3.244   0.806   6.798
31185SOL     OW95451   6.081   7.847  10.857
31185SOL    HW195452   6.136   7.914  10.899
31185SOL    HW295453   6.143   7.782  10.824
31186SOL     OW95454   2.639   8.234   6.627
31186SOL    HW195455   2.556   8.266   6.663
31186SOL    HW295456   2.657   8.154   6.677
31187SOL     OW95457   1.937  12.752   0.831
31187SOL    HW195458   1.911  12.836   0.869
31187SOL    HW295459   1.917  12.687   0.899
31188SOL     OW95460  12.657  13.201  12.659
31188SOL    HW195461  12.682  13.144  12.732
31188SOL    HW295462  12.740  13.221  12.615
31189SOL     OW95463   4.598   0.324  14.336
31189SOL    HW195464   4.612   0.267  14.261
31189SOL    HW295465   4.525   0.284  14.384
31190SOL     OW95466   5.173   3.349   5.343
31190SOL    HW195467   5.221   3.271   5.315
31190SOL    HW295468   5.194   3.415   5.276
31191SOL     OW95469   1.252   4.614  12.079
31191SOL    HW195470   1.259   4.518  12.078
31191SOL    HW295471   1.163   4.632  12.049
31192SOL     OW95472   6.780  14.634  14.197
31192SOL    HW195473   6.829  14.561  14.235
31192SOL    HW295474   6.708  14.649  14.258
31193SOL     OW95475   4.160   4.391  12.069
31193SOL    HW195476   4.209   4.337  12.131
31193SOL    HW295477   4.208   4.382  11.986
31194SOL     OW95478   5.854   2.189   3.109
31194SOL    HW195479   5.762   2.218   3.107
31194SOL    HW295480   5.904   2.269   3.094
31195SOL     OW95481   3.760   0.851   6.784
31195SOL    HW195482   3.774   0.757   6.775
31195SOL    HW295483   3.682   0.858   6.839
31196SOL     OW95484  14.444  10.562   4.303
31196SOL    HW195485  14.401  10.610   4.232
31196SOL    HW295486  14.533  10.546   4.271
31197SOL     OW95487   5.547   1.850  10.823
31197SOL    HW195488   5.538   1.822  10.732
31197SOL    HW295489   5.482   1.799  10.871
31198SOL     OW95490  13.586   8.736   5.909
31198SOL    HW195491  13.563   8.656   5.860
31198SOL    HW295492  13.621   8.795   5.843
31199SOL     OW95493  12.090   9.926   4.699
31199SOL    HW195494  12.178   9.953   4.725
31199SOL    HW295495  12.101   9.837   4.665
31200SOL     OW95496   7.574   0.262   4.120
31200SOL    HW195497   7.489   0.307   4.122
31200SOL    HW295498   7.606   0.267   4.210
31201SOL     OW95499  13.001  10.534   5.264
31201SOL    HW195500  13.060  10.459   5.261
31201SOL    HW295501  13.051  10.602   5.310
31202SOL     OW95502   5.623   9.534   4.980
31202SOL    HW195503   5.642   9.548   4.887
31202SOL    HW295504   5.707   9.550   5.024
31203SOL     OW95505   9.395  10.896  10.648
31203SOL    HW195506   9.390  10.960  10.578
31203SOL    HW295507   9.489  10.878  10.657
31204SOL     OW95508   9.463   6.317   3.169
31204SOL    HW195509   9.457   6.225   3.195
31204SOL    HW295510   9.406   6.325   3.093
31205SOL     OW95511   7.990   7.028   6.789
31205SOL    HW195512   8.019   7.025   6.698
31205SOL    HW295513   8.063   6.991   6.838
31206SOL     OW95514   9.406  13.762   0.054
31206SOL    HW195515   9.455  13.777   0.135
31206SOL    HW295516   9.340  13.698   0.078
31207SOL     OW95517  11.551  13.298   1.786
31207SOL    HW195518  11.628  13.245   1.806
31207SOL    HW295519  11.484  13.234   1.762
31208SOL     OW95520   5.676   3.965   3.192
31208SOL    HW195521   5.763   3.933   3.168
31208SOL    HW295522   5.624   3.953   3.113
31209SOL     OW95523   6.716  12.991   0.831
31209SOL    HW195524   6.703  13.077   0.871
31209SOL    HW295525   6.693  12.929   0.899
31210SOL     OW95526  13.549  13.855  11.349
31210SOL    HW195527  13.618  13.789  11.351
31210SOL    HW295528  13.478  13.814  11.298
31211SOL     OW95529   5.506  14.818  10.050
31211SOL    HW195530   5.476  14.878  10.118
31211SOL    HW295531   5.443  14.828   9.979
31212SOL     OW95532   5.613   2.914  12.389
31212SOL    HW195533   5.706   2.900  12.406
31212SOL    HW295534   5.571   2.902  12.474
31213SOL     OW95535  11.513   6.646   9.451
31213SOL    HW195536  11.501   6.553   9.434
31213SOL    HW295537  11.448   6.667   9.518
31214SOL     OW95538   1.517   8.482   3.419
31214SOL    HW195539   1.517   8.574   3.394
31214SOL    HW295540   1.578   8.476   3.493
31215SOL     OW95541   4.088  11.036  14.150
31215SOL    HW195542   4.136  10.970  14.201
31215SOL    HW295543   4.156  11.098  14.121
31216SOL     OW95544  11.541  14.370   1.453
31216SOL    HW195545  11.606  14.433   1.485
31216SOL    HW295546  11.591  14.288   1.443
31217SOL     OW95547  10.537  11.143   3.334
31217SOL    HW195548  10.587  11.158   3.415
31217SOL    HW295549  10.454  11.107   3.364
31218SOL     OW95550   5.463   2.151  13.757
31218SOL    HW195551   5.402   2.223  13.775
31218SOL    HW295552   5.455   2.093  13.833
31219SOL     OW95553  13.337  10.679   4.369
31219SOL    HW195554  13.314  10.694   4.461
31219SOL    HW295555  13.303  10.591   4.350
31220SOL     OW95556   6.774   6.982   6.676
31220SOL    HW195557   6.782   6.897   6.633
31220SOL    HW295558   6.839   7.037   6.632
31221SOL     OW95559   0.864  11.611   8.859
31221SOL    HW195560   0.925  11.614   8.785
31221SOL    HW295561   0.904  11.548   8.920
31222SOL     OW95562   3.127   6.962   1.395
31222SOL    HW195563   3.135   6.941   1.302
31222SOL    HW295564   3.075   7.042   1.398
31223SOL     OW95565   1.519   5.354   7.591
31223SOL    HW195566   1.521   5.424   7.656
31223SOL    HW295567   1.556   5.394   7.512
31224SOL     OW95568  14.475  10.492  11.468
31224SOL    HW195569  14.391  10.519  11.504
31224SOL    HW295570  14.507  10.426  11.529
31225SOL     OW95571   0.035   3.306   2.046
31225SOL    HW195572  14.876   3.323   1.964
31225SOL    HW295573  14.855   3.270   2.104
31226SOL     OW95574   8.454   7.996   3.305
31226SOL    HW195575   8.446   8.043   3.387
31226SOL    HW295576   8.530   8.036   3.262
31227SOL     OW95577   4.189   4.469  14.516
31227SOL    HW195578   4.133   4.491  14.590
31227SOL    HW295579   4.260   4.533  14.520
31228SOL     OW95580   9.527   7.751   8.902
31228SOL    HW195581   9.446   7.702   8.915
31228SOL    HW295582   9.583   7.691   8.853
31229SOL     OW95583   2.172  11.565  11.542
31229SOL    HW195584   2.263  11.593  11.532
31229SOL    HW295585   2.133  11.582  11.456
31230SOL     OW95586  12.389   0.510   2.322
31230SOL    HW195587  12.431   0.425   2.306
31230SOL    HW295588  12.441   0.572   2.271
31231SOL     OW95589   6.881  13.748   8.831
31231SOL    HW195590   6.965  13.725   8.872
31231SOL    HW295591   6.886  13.710   8.744
31232SOL     OW95592   4.225   1.039   3.998
31232SOL    HW195593   4.284   1.105   3.960
31232SOL    HW295594   4.160   1.023   3.929
31233SOL     OW95595   9.714   5.258   3.390
31233SOL    HW195596   9.620   5.247   3.404
31233SOL    HW295597   9.723   5.347   3.356
31234SOL     OW95598   7.652   4.129   9.159
31234SOL    HW195599   7.679   4.119   9.250
31234SOL    HW295600   7.571   4.078   9.153
31235SOL     OW95601  12.855   6.245   8.575
31235SOL    HW195602  12.877   6.309   8.642
31235SOL    HW295603  12.938   6.221   8.536
31236SOL     OW95604   9.265  11.315   0.364
31236SOL    HW195605   9.306  11.339   0.447
31236SOL    HW295606   9.179  11.357   0.367
31237SOL     OW95607  14.312  11.489   1.539
31237SOL    HW195608  14.227  11.533   1.538
31237SOL    HW295609  14.374  11.555   1.509
31238SOL     OW95610   3.715   1.089   8.906
31238SOL    HW195611   3.689   1.177   8.935
31238SOL    HW295612   3.806   1.099   8.879
31239SOL     OW95613   5.558  13.229  12.448
31239SOL    HW195614   5.489  13.277  12.495
31239SOL    HW295615   5.512  13.179  12.382
31240SOL     OW95616   3.936   0.754   3.989
31240SOL    HW195617   3.905   0.832   4.034
31240SOL    HW295618   4.031   0.756   4.000
31241SOL     OW95619   6.988  11.144   9.814
31241SOL    HW195620   6.912  11.086   9.809
31241SOL    HW295621   6.984  11.183   9.901
31242SOL     OW95622   4.598   2.522  12.478
31242SOL    HW195623   4.570   2.515  12.569
31242SOL    HW295624   4.550   2.452  12.433
31243SOL     OW95625   6.066   8.819  12.355
31243SOL    HW195626   6.148   8.858  12.385
31243SOL    HW295627   6.050   8.859  12.270
31244SOL     OW95628   3.943   9.798   4.949
31244SOL    HW195629   3.860   9.769   4.910
31244SOL    HW295630   3.969   9.873   4.896
31245SOL     OW95631   9.316  11.421   6.769
31245SOL    HW195632   9.276  11.356   6.827
31245SOL    HW295633   9.405  11.389   6.754
31246SOL     OW95634   1.960   1.977   8.048
31246SOL    HW195635   1.959   1.979   8.144
31246SOL    HW295636   1.886   1.921   8.024
31247SOL     OW95637  12.413  14.397   1.332
31247SOL    HW195638  12.415  14.403   1.237
31247SOL    HW295639  12.410  14.304   1.351
31248SOL     OW95640   9.559   9.094   4.940
31248SOL    HW195641   9.581   9.105   5.032
31248SOL    HW295642   9.464   9.100   4.937
31249SOL     OW95643   8.952   5.326  13.003
31249SOL    HW195644   8.999   5.309  13.084
31249SOL    HW295645   8.884   5.390  13.028
31250SOL     OW95646  11.255  13.890   4.101
31250SOL    HW195647  11.184  13.862   4.158
31250SOL    HW295648  11.271  13.814   4.044
31251SOL     OW95649   5.182   5.342   0.378
31251SOL    HW195650   5.169   5.292   0.297
31251SOL    HW295651   5.102   5.395   0.387
31252SOL     OW95652  12.057   7.461   8.039
31252SOL    HW195653  12.025   7.386   7.989
31252SOL    HW295654  12.026   7.537   7.990
31253SOL     OW95655   8.028   7.425   0.004
31253SOL    HW195656   8.113   7.424   0.046
31253SOL    HW295657   8.047   7.437  14.798
31254SOL     OW95658   3.525  10.444   4.319
31254SOL    HW195659   3.588  10.409   4.381
31254SOL    HW295660   3.441  10.440   4.365
31255SOL     OW95661   2.631   5.800  14.451
31255SOL    HW195662   2.541   5.816  14.480
31255SOL    HW295663   2.624   5.723  14.394
31256SOL     OW95664   0.618   4.220  14.432
31256SOL    HW195665   0.678   4.269  14.489
31256SOL    HW295666   0.675   4.158  14.386
31257SOL     OW95667  10.604   9.701   8.342
31257SOL    HW195668  10.622   9.607   8.333
31257SOL    HW295669  10.665   9.743   8.281
31258SOL     OW95670   6.781   1.096   2.439
31258SOL    HW195671   6.752   1.019   2.391
31258SOL    HW295672   6.705   1.155   2.439
31259SOL     OW95673   4.572  14.113   4.447
31259SOL    HW195674   4.597  14.174   4.516
31259SOL    HW295675   4.624  14.034   4.465
31260SOL     OW95676   3.212   3.051   6.570
31260SOL    HW195677   3.134   3.080   6.522
31260SOL    HW295678   3.192   2.961   6.597
31261SOL     OW95679   9.997   8.347  10.501
31261SOL    HW195680   9.987   8.442  10.506
31261SOL    HW295681   9.910   8.312  10.519
31262SOL     OW95682   8.747  13.611  11.308
31262SOL    HW195683   8.784  13.695  11.279
31262SOL    HW295684   8.775  13.548  11.242
31263SOL     OW95685   8.237   2.138   8.896
31263SOL    HW195686   8.280   2.205   8.842
31263SOL    HW295687   8.309   2.092   8.940
31264SOL     OW95688   3.021   1.133  12.403
31264SOL    HW195689   2.991   1.218  12.370
31264SOL    HW295690   2.941   1.082  12.414
31265SOL     OW95691  13.846   0.007   1.249
31265SOL    HW195692  13.820   0.099   1.246
31265SOL    HW295693  13.932   0.008   1.291
31266SOL     OW95694   1.772  10.721   3.802
31266SOL    HW195695   1.813  10.806   3.813
31266SOL    HW295696   1.678  10.737   3.818
31267SOL     OW95697   1.601   8.011   3.913
31267SOL    HW195698   1.629   7.954   3.841
31267SOL    HW295699   1.511   7.985   3.931
31268SOL     OW95700   4.851  10.280  12.646
31268SOL    HW195701   4.915  10.337  12.689
31268SOL    HW295702   4.845  10.315  12.556
31269SOL     OW95703  10.443   2.094   5.041
31269SOL    HW195704  10.383   2.062   4.973
31269SOL    HW295705  10.482   2.173   5.003
31270SOL     OW95706   5.782   3.754  12.389
31270SOL    HW195707   5.863   3.702  12.387
31270SOL    HW295708   5.724   3.710  12.327
31271SOL     OW95709  10.437   2.735   9.127
31271SOL    HW195710  10.385   2.815   9.132
31271SOL    HW295711  10.479   2.739   9.041
31272SOL     OW95712   2.507   4.321  11.193
31272SOL    HW195713   2.517   4.231  11.225
31272SOL    HW295714   2.462   4.312  11.109
31273SOL     OW95715  13.125  13.496  10.316
31273SOL    HW195716  13.179  13.424  10.348
31273SOL    HW295717  13.148  13.503  10.223
31274SOL     OW95718   6.534   1.587   5.008
31274SOL    HW195719   6.518   1.508   4.957
31274SOL    HW295720   6.448   1.628   5.015
31275SOL     OW95721  14.655   3.257   8.118
31275SOL    HW195722  14.637   3.336   8.169
31275SOL    HW295723  14.587   3.195   8.146
31276SOL     OW95724   3.648  14.197  12.393
31276SOL    HW195725   3.670  14.263  12.458
31276SOL    HW295726   3.708  14.124  12.411
31277SOL     OW95727   5.473   8.890   4.511
31277SOL    HW195728   5.507   8.832   4.580
31277SOL    HW295729   5.539   8.959   4.504
31278SOL     OW95730  11.051   1.088   0.800
31278SOL    HW195731  11.035   1.012   0.856
31278SOL    HW295732  11.078   1.157   0.860
31279SOL     OW95733   2.253   2.895   6.657
31279SOL    HW195734   2.162   2.909   6.629
31279SOL    HW295735   2.248   2.820   6.716
31280SOL     OW95736  11.922   1.139  11.295
31280SOL    HW195737  11.881   1.145  11.381
31280SOL    HW295738  11.966   1.054  11.295
31281SOL     OW95739   5.453  11.135  13.284
31281SOL    HW195740   5.411  11.112  13.201
31281SOL    HW295741   5.538  11.171  13.258
31282SOL     OW95742  14.102   6.219  10.883
31282SOL    HW195743  14.053   6.138  10.866
31282SOL    HW295744  14.091   6.271  10.803
31283SOL     OW95745   3.767   9.296   8.156
31283SOL    HW195746   3.786   9.332   8.070
31283SOL    HW295747   3.814   9.354   8.217
31284SOL     OW95748  13.679   3.172   9.178
31284SOL    HW195749  13.716   3.132   9.257
31284SOL    HW295750  13.587   3.186   9.200
31285SOL     OW95751   4.675  12.499  12.363
31285SOL    HW195752   4.627  12.470  12.441
31285SOL    HW295753   4.673  12.424  12.304
31286SOL     OW95754  13.722   3.562  12.387
31286SOL    HW195755  13.691   3.504  12.317
31286SOL    HW295756  13.662   3.636  12.385
31287SOL     OW95757   9.169   1.921   2.377
31287SOL    HW195758   9.133   1.971   2.451
31287SOL    HW295759   9.253   1.962   2.359
31288SOL     OW95760  12.608   1.089   7.127
31288SOL    HW195761  12.587   1.182   7.120
31288SOL    HW295762  12.695   1.086   7.165
31289SOL     OW95763   9.927   8.542   0.535
31289SOL    HW195764   9.892   8.630   0.548
31289SOL    HW295765  10.020   8.556   0.516
31290SOL     OW95766   1.104   5.369  10.901
31290SOL    HW195767   1.129   5.452  10.942
31290SOL    HW295768   1.046   5.395  10.829
31291SOL     OW95769   4.062  10.025   9.843
31291SOL    HW195770   4.148  10.047   9.806
31291SOL    HW295771   4.010  10.104   9.827
31292SOL     OW95772   4.475   3.433   1.795
31292SOL    HW195773   4.465   3.527   1.782
31292SOL    HW295774   4.569   3.419   1.802
31293SOL     OW95775   4.849   4.023   9.329
31293SOL    HW195776   4.845   4.010   9.424
31293SOL    HW295777   4.836   3.935   9.292
31294SOL     OW95778   0.798   9.590  13.680
31294SOL    HW195779   0.871   9.528  13.686
31294SOL    HW295780   0.758   9.589  13.767
31295SOL     OW95781   4.199   2.964   8.138
31295SOL    HW195782   4.267   2.939   8.201
31295SOL    HW295783   4.117   2.941   8.180
31296SOL     OW95784   0.126  12.691   8.751
31296SOL    HW195785   0.116  12.707   8.844
31296SOL    HW295786   0.041  12.654   8.724
31297SOL     OW95787  13.146  12.174   8.055
31297SOL    HW195788  13.178  12.120   8.127
31297SOL    HW295789  13.206  12.249   8.054
31298SOL     OW95790   9.099   6.009   3.282
31298SOL    HW195791   9.070   6.100   3.268
31298SOL    HW295792   9.184   6.018   3.325
31299SOL     OW95793   8.082   5.279  13.464
31299SOL    HW195794   8.057   5.268  13.555
31299SOL    HW295795   8.141   5.206  13.446
31300SOL     OW95796   1.785   3.232  12.599
31300SOL    HW195797   1.757   3.312  12.643
31300SOL    HW295798   1.781   3.252  12.506
31301SOL     OW95799   9.562  11.313   8.438
31301SOL    HW195800   9.533  11.309   8.348
31301SOL    HW295801   9.634  11.376   8.437
31302SOL     OW95802   7.224   5.729  13.067
31302SOL    HW195803   7.137   5.750  13.033
31302SOL    HW295804   7.251   5.808  13.113
31303SOL     OW95805   2.976   2.505  11.335
31303SOL    HW195806   3.001   2.414  11.323
31303SOL    HW295807   2.926   2.527  11.257
31304SOL     OW95808  12.781   3.159  13.836
31304SOL    HW195809  12.855   3.207  13.799
31304SOL    HW295810  12.717   3.226  13.858
31305SOL     OW95811  13.210   0.612   9.271
31305SOL    HW195812  13.228   0.658   9.353
31305SOL    HW295813  13.286   0.555   9.258
31306SOL     OW95814   5.313  11.973  11.160
31306SOL    HW195815   5.233  12.026  11.163
31306SOL    HW295816   5.323  11.940  11.249
31307SOL     OW95817  11.751  13.771  13.378
31307SOL    HW195818  11.720  13.699  13.323
31307SOL    HW295819  11.820  13.732  13.432
31308SOL     OW95820   4.862   2.225  12.853
31308SOL    HW195821   4.879   2.292  12.919
31308SOL    HW295822   4.782   2.254  12.808
31309SOL     OW95823   9.135   0.408   0.556
31309SOL    HW195824   9.136   0.325   0.604
31309SOL    HW295825   9.160   0.384   0.466
31310SOL     OW95826  14.683  12.459   4.296
31310SOL    HW195827  14.712  12.393   4.232
31310SOL    HW295828  14.587  12.451   4.296
31311SOL     OW95829   0.111   0.457   7.709
31311SOL    HW195830   0.027   0.422   7.680
31311SOL    HW295831   0.170   0.444   7.635
31312SOL     OW95832   9.115   6.192   5.039
31312SOL    HW195833   9.112   6.166   5.131
31312SOL    HW295834   9.074   6.119   4.992
31313SOL     OW95835   7.617  12.638   6.432
31313SOL    HW195836   7.583  12.554   6.399
31313SOL    HW295837   7.601  12.699   6.360
31314SOL     OW95838   4.568   0.805  12.321
31314SOL    HW195839   4.599   0.845  12.240
31314SOL    HW295840   4.608   0.857  12.391
31315SOL     OW95841   3.558   1.325   1.041
31315SOL    HW195842   3.569   1.317   0.947
31315SOL    HW295843   3.614   1.257   1.078
31316SOL     OW95844   0.214   7.949   9.385
31316SOL    HW195845   0.210   7.870   9.440
31316SOL    HW295846   0.167   8.016   9.435
31317SOL     OW95847   5.467  11.356   5.483
31317SOL    HW195848   5.483  11.262   5.476
31317SOL    HW295849   5.555  11.394   5.491
31318SOL     OW95850   3.578   0.907   6.993
31318SOL    HW195851   3.514   0.956   6.942
31318SOL    HW295852   3.639   0.973   7.026
31319SOL     OW95853   9.970   5.737   7.736
31319SOL    HW195854  10.003   5.687   7.811
31319SOL    HW295855   9.880   5.707   7.726
31320SOL     OW95856   5.942  13.358   6.636
31320SOL    HW195857   5.993  13.437   6.618
31320SOL    HW295858   5.945  13.308   6.554
31321SOL     OW95859   4.661  10.433  14.537
31321SOL    HW195860   4.626  10.468  14.618
31321SOL    HW295861   4.745  10.395  14.561
31322SOL     OW95862   4.804   9.996  12.211
31322SOL    HW195863   4.740   9.941  12.166
31322SOL    HW295864   4.795  10.082  12.170
31323SOL     OW95865   1.470   2.760   2.150
31323SOL    HW195866   1.521   2.713   2.084
31323SOL    HW295867   1.455   2.696   2.220
31324SOL     OW95868   2.236  14.754  10.616
31324SOL    HW195869   2.318  14.714  10.644
31324SOL    HW295870   2.257  14.799  10.534
31325SOL     OW95871   6.991   4.541  13.267
31325SOL    HW195872   7.056   4.591  13.218
31325SOL    HW295873   6.907   4.580  13.242
31326SOL     OW95874  12.191   9.803   8.194
31326SOL    HW195875  12.160   9.795   8.103
31326SOL    HW295876  12.219   9.894   8.201
31327SOL     OW95877   9.028   5.890   8.931
31327SOL    HW195878   8.956   5.953   8.927
31327SOL    HW295879   9.016   5.835   8.854
31328SOL     OW95880   0.103  11.298   1.989
31328SOL    HW195881   0.034  11.355   2.022
31328SOL    HW295882   0.112  11.321   1.896
31329SOL     OW95883  11.804   4.442   0.348
31329SOL    HW195884  11.754   4.479   0.275
31329SOL    HW295885  11.766   4.355   0.362
31330SOL     OW95886  10.210   5.090  11.611
31330SOL    HW195887  10.204   5.078  11.706
31330SOL    HW295888  10.304   5.098  11.594
31331SOL     OW95889   7.352   2.785   7.525
31331SOL    HW195890   7.393   2.809   7.608
31331SOL    HW295891   7.420   2.736   7.477
31332SOL     OW95892  11.347   8.611  13.743
31332SOL    HW195893  11.392   8.531  13.716
31332SOL    HW295894  11.257   8.599  13.713
31333SOL     OW95895  14.785   8.758   8.707
31333SOL    HW195896  14.763   8.800   8.623
31333SOL    HW295897  14.723   8.686   8.715
31334SOL     OW95898  11.334   0.728   4.975
31334SOL    HW195899  11.413   0.699   5.021
31334SOL    HW295900  11.269   0.660   4.991
31335SOL     OW95901  14.268   5.608  12.346
31335SOL    HW195902  14.319   5.529  12.362
31335SOL    HW295903  14.292   5.667  12.418
31336SOL     OW95904  14.875   9.276   4.322
31336SOL    HW195905  14.802   9.339   4.318
31336SOL    HW295906  14.833   9.191   4.313
31337SOL     OW95907   8.198   7.995   9.019
31337SOL    HW195908   8.283   8.038   9.033
31337SOL    HW295909   8.148   8.016   9.098
31338SOL     OW95910   6.986   4.417   4.607
31338SOL    HW195911   6.924   4.347   4.585
31338SOL    HW295912   7.031   4.436   4.525
31339SOL     OW95913  13.298   7.177   8.326
31339SOL    HW195914  13.288   7.214   8.239
31339SOL    HW295915  13.308   7.083   8.311
31340SOL     OW95916   2.627  11.078  10.143
31340SOL    HW195917   2.575  11.014  10.094
31340SOL    HW295918   2.617  11.159  10.094
31341SOL     OW95919  12.655  14.444   2.420
31341SOL    HW195920  12.680  14.351   2.426
31341SOL    HW295921  12.693  14.484   2.499
31342SOL     OW95922   6.744   1.171  13.137
31342SOL    HW195923   6.805   1.178  13.063
31342SOL    HW295924   6.784   1.106  13.194
31343SOL     OW95925   7.564   8.907   7.981
31343SOL    HW195926   7.613   8.958   8.046
31343SOL    HW295927   7.609   8.823   7.979
31344SOL     OW95928   2.459  11.468   0.098
31344SOL    HW195929   2.492  11.492   0.185
31344SOL    HW295930   2.407  11.389   0.113
31345SOL     OW95931  10.776  13.263   3.733
31345SOL    HW195932  10.821  13.240   3.652
31345SOL    HW295933  10.698  13.208   3.733
31346SOL     OW95934   7.616   3.454   9.706
31346SOL    HW195935   7.708   3.443   9.682
31346SOL    HW295936   7.572   3.475   9.624
31347SOL     OW95937   3.933   6.392   0.612
31347SOL    HW195938   3.946   6.385   0.706
31347SOL    HW295939   3.841   6.414   0.601
31348SOL     OW95940   0.356   9.287  13.592
31348SOL    HW195941   0.307   9.225  13.647
31348SOL    HW295942   0.301   9.365  13.590
31349SOL     OW95943  14.377  11.050   3.154
31349SOL    HW195944  14.298  10.999   3.172
31349SOL    HW295945  14.353  11.108   3.082
31350SOL     OW95946   7.771  12.889   4.879
31350SOL    HW195947   7.859  12.922   4.859
31350SOL    HW295948   7.782  12.794   4.888
31351SOL     OW95949   8.159   3.293   2.576
31351SOL    HW195950   8.136   3.381   2.548
31351SOL    HW295951   8.146   3.238   2.499
31352SOL     OW95952   3.690  11.108   0.675
31352SOL    HW195953   3.597  11.097   0.697
31352SOL    HW295954   3.695  11.195   0.636
31353SOL     OW95955   2.287   8.059  14.218
31353SOL    HW195956   2.250   8.021  14.139
31353SOL    HW295957   2.296   7.986  14.278
31354SOL     OW95958   4.848   9.795  14.286
31354SOL    HW195959   4.845   9.732  14.358
31354SOL    HW295960   4.916   9.857  14.310
31355SOL     OW95961   0.823   7.384   4.049
31355SOL    HW195962   0.896   7.339   4.006
31355SOL    HW295963   0.751   7.321   4.046
31356SOL     OW95964  14.618   6.494   1.012
31356SOL    HW195965  14.525   6.512   1.022
31356SOL    HW295966  14.623   6.400   0.997
31357SOL     OW95967  13.724   0.206  12.404
31357SOL    HW195968  13.700   0.174  12.490
31357SOL    HW295969  13.818   0.187  12.396
31358SOL     OW95970   8.377   3.888   5.921
31358SOL    HW195971   8.359   3.800   5.887
31358SOL    HW295972   8.381   3.943   5.842
31359SOL     OW95973   9.623  11.151   1.316
31359SOL    HW195974   9.660  11.094   1.384
31359SOL    HW295975   9.617  11.237   1.357
31360SOL     OW95976   9.989   5.805   1.521
31360SOL    HW195977   9.950   5.720   1.539
31360SOL    HW295978   9.915   5.860   1.493
31361SOL     OW95979   5.721  12.502   5.324
31361SOL    HW195980   5.734  12.483   5.232
31361SOL    HW295981   5.650  12.565   5.327
31362SOL     OW95982   7.849   4.886   0.933
31362SOL    HW195983   7.815   4.836   0.859
31362SOL    HW295984   7.805   4.848   1.009
31363SOL     OW95985   4.958   7.246  11.043
31363SOL    HW195986   4.885   7.184  11.053
31363SOL    HW295987   5.035   7.191  11.029
31364SOL     OW95988  11.686   3.679  12.031
31364SOL    HW195989  11.660   3.731  11.955
31364SOL    HW295990  11.636   3.598  12.023
31365SOL     OW95991   5.784   1.422   2.069
31365SOL    HW195992   5.735   1.465   1.999
31365SOL    HW295993   5.742   1.453   2.149
31366SOL     OW95994   1.357  13.945  12.510
31366SOL    HW195995   1.318  13.905  12.432
31366SOL    HW295996   1.437  13.985  12.478
31367SOL     OW95997  10.507   3.011   9.285
31367SOL    HW195998  10.418   3.000   9.250
31367SOL    HW295999  10.564   2.996   9.210
31368SOL     OW96000   4.521   7.663   4.318
31368SOL    HW196001   4.602   7.710   4.339
31368SOL    HW296002   4.541   7.572   4.339
31369SOL     OW96003   7.676   7.075   8.089
31369SOL    HW196004   7.724   6.996   8.113
31369SOL    HW296005   7.618   7.048   8.019
31370SOL     OW96006   8.128  12.703  13.727
31370SOL    HW196007   8.054  12.744  13.770
31370SOL    HW296008   8.098  12.614  13.707
31371SOL     OW96009  13.872  14.410   1.195
31371SOL    HW196010  13.883  14.320   1.166
31371SOL    HW296011  13.956  14.452   1.175
31372SOL     OW96012  11.297   2.269  12.325
31372SOL    HW196013  11.271   2.213  12.398
31372SOL    HW296014  11.236   2.342  12.328
31373SOL     OW96015  12.593  12.276   1.853
31373SOL    HW196016  12.498  12.284   1.845
31373SOL    HW296017  12.617  12.206   1.793
31374SOL     OW96018   1.837   0.564  12.183
31374SOL    HW196019   1.823   0.604  12.268
31374SOL    HW296020   1.749   0.550  12.148
31375SOL     OW96021   7.693   6.396   5.838
31375SOL    HW196022   7.699   6.486   5.869
31375SOL    HW296023   7.718   6.400   5.745
31376SOL     OW96024   3.148   8.191  12.320
31376SOL    HW196025   3.121   8.227  12.235
31376SOL    HW296026   3.229   8.236  12.340
31377SOL     OW96027  10.974   1.856  13.620
31377SOL    HW196028  10.893   1.806  13.608
31377SOL    HW296029  10.964   1.898  13.705
31378SOL     OW96030   5.147   8.494  12.547
31378SOL    HW196031   5.069   8.525  12.593
31378SOL    HW296032   5.198   8.449  12.614
31379SOL     OW96033  12.725  13.722  11.559
31379SOL    HW196034  12.630  13.711  11.555
31379SOL    HW296035  12.739  13.816  11.552
31380SOL     OW96036   3.605   5.280   1.806
31380SOL    HW196037   3.581   5.336   1.880
31380SOL    HW296038   3.695   5.305   1.785
31381SOL     OW96039   1.784  12.327   5.180
31381SOL    HW196040   1.829  12.377   5.248
31381SOL    HW296041   1.696  12.365   5.176
31382SOL     OW96042  11.513   6.928   6.803
31382SOL    HW196043  11.564   6.922   6.722
31382SOL    HW296044  11.434   6.977   6.779
31383SOL     OW96045   2.297   3.715   6.346
31383SOL    HW196046   2.220   3.737   6.400
31383SOL    HW296047   2.367   3.769   6.383
31384SOL     OW96048  11.525   9.070   0.471
31384SOL    HW196049  11.463   9.017   0.422
31384SOL    HW296050  11.476   9.103   0.546
31385SOL     OW96051   4.254   2.336  10.645
31385SOL    HW196052   4.334   2.289  10.669
31385SOL    HW296053   4.260   2.347  10.550
31386SOL     OW96054  13.171   5.407   4.293
31386SOL    HW196055  13.175   5.454   4.376
31386SOL    HW296056  13.088   5.360   4.296
31387SOL     OW96057   1.523   6.451   0.094
31387SOL    HW196058   1.539   6.541   0.067
31387SOL    HW296059   1.604   6.423   0.136
31388SOL     OW96060  10.709   3.680  12.501
31388SOL    HW196061  10.803   3.695  12.507
31388SOL    HW296062  10.671   3.738  12.567
31389SOL     OW96063  11.026  10.749  13.512
31389SOL    HW196064  11.079  10.678  13.546
31389SOL    HW296065  10.983  10.787  13.589
31390SOL     OW96066   0.437  13.256   7.283
31390SOL    HW196067   0.370  13.316   7.316
31390SOL    HW296068   0.449  13.194   7.355
31391SOL     OW96069   9.624  14.239   1.392
31391SOL    HW196070   9.614  14.252   1.298
31391SOL    HW296071   9.590  14.320   1.431
31392SOL     OW96072   6.826  11.701   1.745
31392SOL    HW196073   6.895  11.733   1.687
31392SOL    HW296074   6.872  11.652   1.813
31393SOL     OW96075   5.413  13.388  14.094
31393SOL    HW196076   5.350  13.422  14.157
31393SOL    HW296077   5.405  13.293  14.101
31394SOL     OW96078  11.950  12.925   0.461
31394SOL    HW196079  11.960  12.941   0.554
31394SOL    HW296080  11.943  12.829   0.454
31395SOL     OW96081   4.137  11.089  13.549
31395SOL    HW196082   4.114  11.019  13.610
31395SOL    HW296083   4.093  11.167  13.584
31396SOL     OW96084   6.718  11.241  10.022
31396SOL    HW196085   6.809  11.221  10.043
31396SOL    HW296086   6.716  11.336  10.015
31397SOL     OW96087   8.705   9.621   1.825
31397SOL    HW196088   8.640   9.655   1.764
31397SOL    HW296089   8.753   9.698   1.855
31398SOL     OW96090  11.458  14.598   8.370
31398SOL    HW196091  11.480  14.663   8.436
31398SOL    HW296092  11.362  14.600   8.365
31399SOL     OW96093   7.482   4.611  13.337
31399SOL    HW196094   7.452   4.679  13.278
31399SOL    HW296095   7.408   4.551  13.346
31400SOL     OW96096  10.512   0.386   5.691
31400SOL    HW196097  10.420   0.407   5.708
31400SOL    HW296098  10.533   0.317   5.754
31401SOL     OW96099   8.370   5.303   7.506
31401SOL    HW196100   8.339   5.367   7.571
31401SOL    HW296101   8.449   5.343   7.469
31402SOL     OW96102   0.096   7.350   8.229
31402SOL    HW196103   0.066   7.303   8.152
31402SOL    HW296104   0.143   7.285   8.281
31403SOL     OW96105   7.382  11.811   9.299
31403SOL    HW196106   7.432  11.729   9.305
31403SOL    HW296107   7.323  11.797   9.225
31404SOL     OW96108   1.938   8.969  12.303
31404SOL    HW196109   1.935   8.876  12.277
31404SOL    HW296110   1.872   9.011  12.248
31405SOL     OW96111   2.125   7.350   5.261
31405SOL    HW196112   2.153   7.414   5.326
31405SOL    HW296113   2.031   7.341   5.275
31406SOL     OW96114   8.846   4.109  11.658
31406SOL    HW196115   8.784   4.082  11.590
31406SOL    HW296116   8.885   4.190  11.624
31407SOL     OW96117   6.311   6.246   4.234
31407SOL    HW196118   6.241   6.216   4.175
31407SOL    HW296119   6.276   6.232   4.321
31408SOL     OW96120   7.038  10.161   0.593
31408SOL    HW196121   7.119  10.199   0.559
31408SOL    HW296122   7.008  10.103   0.524
31409SOL     OW96123  13.273  10.898  14.557
31409SOL    HW196124  13.274  10.978  14.608
31409SOL    HW296125  13.363  10.887  14.527
31410SOL     OW96126   3.185  14.769  14.437
31410SOL    HW196127   3.112  14.739  14.384
31410SOL    HW296128   3.195  14.702  14.504
31411SOL     OW96129   4.950   3.085  13.058
31411SOL    HW196130   4.861   3.089  13.095
31411SOL    HW296131   4.972   2.992  13.059
31412SOL     OW96132   0.690   3.872   0.492
31412SOL    HW196133   0.660   3.953   0.534
31412SOL    HW296134   0.765   3.844   0.545
31413SOL     OW96135   7.117   5.097  14.517
31413SOL    HW196136   7.146   5.036  14.449
31413SOL    HW296137   7.075   5.042  14.583
31414SOL     OW96138  12.641  10.361   9.118
31414SOL    HW196139  12.611  10.353   9.027
31414SOL    HW296140  12.714  10.300   9.124
31415SOL     OW96141   7.215   4.959   0.519
31415SOL    HW196142   7.255   5.046   0.510
31415SOL    HW296143   7.121   4.976   0.519
31416SOL     OW96144   8.383  12.170   4.341
31416SOL    HW196145   8.369  12.103   4.273
31416SOL    HW296146   8.464  12.214   4.314
31417SOL     OW96147  14.289   0.667  10.170
31417SOL    HW196148  14.225   0.610  10.212
31417SOL    HW296149  14.374   0.626  10.191
31418SOL     OW96150  14.264   4.032  11.892
31418SOL    HW196151  14.218   4.050  11.974
31418SOL    HW296152  14.320   3.957  11.911
31419SOL     OW96153   2.724  13.858   9.668
31419SOL    HW196154   2.723  13.804   9.589
31419SOL    HW296155   2.728  13.795   9.740
31420SOL     OW96156   3.595   3.341   1.663
31420SOL    HW196157   3.565   3.422   1.703
31420SOL    HW296158   3.691   3.348   1.662
31421SOL     OW96159   5.431   8.262   8.027
31421SOL    HW196160   5.470   8.312   8.099
31421SOL    HW296161   5.498   8.263   7.958
31422SOL     OW96162   2.450   3.986   9.024
31422SOL    HW196163   2.453   4.010   9.117
31422SOL    HW296164   2.523   4.034   8.985
31423SOL     OW96165   6.048  11.711  12.763
31423SOL    HW196166   6.032  11.731  12.670
31423SOL    HW296167   6.142  11.696  12.768
31424SOL     OW96168   2.599   4.834   2.938
31424SOL    HW196169   2.566   4.802   2.854
31424SOL    HW296170   2.647   4.914   2.916
31425SOL     OW96171   5.485   1.707   0.044
31425SOL    HW196172   5.561   1.675   0.092
31425SOL    HW296173   5.424   1.633   0.043
31426SOL     OW96174   1.552   8.337   8.047
31426SOL    HW196175   1.631   8.381   8.078
31426SOL    HW296176   1.480   8.380   8.093
31427SOL     OW96177   9.848   7.553   3.071
31427SOL    HW196178   9.920   7.557   3.009
31427SOL    HW296179   9.869   7.619   3.137
31428SOL     OW96180   3.287   5.033   3.815
31428SOL    HW196181   3.257   4.951   3.856
31428SOL    HW296182   3.325   5.083   3.887
31429SOL     OW96183   0.876  11.563   8.553
31429SOL    HW196184   0.967  11.572   8.580
31429SOL    HW296185   0.881  11.534   8.462
31430SOL     OW96186  11.576  12.808  13.767
31430SOL    HW196187  11.590  12.852  13.851
31430SOL    HW296188  11.592  12.716  13.785
31431SOL     OW96189  13.319   5.804   9.195
31431SOL    HW196190  13.375   5.845   9.262
31431SOL    HW296191  13.315   5.712   9.220
31432SOL     OW96192   4.183  10.875   5.721
31432SOL    HW196193   4.265  10.855   5.765
31432SOL    HW296194   4.130  10.918   5.788
31433SOL     OW96195   6.577   9.502   8.153
31433SOL    HW196196   6.638   9.517   8.226
31433SOL    HW296197   6.517   9.435   8.186
31434SOL     OW96198  14.499   0.303   3.955
31434SOL    HW196199  14.410   0.283   3.985
31434SOL    HW296200  14.509   0.252   3.874
31435SOL     OW96201   1.007   3.753   5.686
31435SOL    HW196202   1.067   3.801   5.628
31435SOL    HW296203   0.929   3.738   5.632
31436SOL     OW96204  10.482   1.441  13.249
31436SOL    HW196205  10.468   1.406  13.161
31436SOL    HW296206  10.527   1.370  13.296
31437SOL     OW96207   8.227   7.740   1.632
31437SOL    HW196208   8.239   7.669   1.694
31437SOL    HW296209   8.155   7.792   1.668
31438SOL     OW96210   4.797   3.221  11.922
31438SOL    HW196211   4.792   3.252  11.832
31438SOL    HW296212   4.716   3.174  11.937
31439SOL     OW96213  10.416  14.144   8.406
31439SOL    HW196214  10.487  14.090   8.440
31439SOL    HW296215  10.372  14.177   8.484
31440SOL     OW96216   3.787   3.083  10.586
31440SOL    HW196217   3.758   2.999  10.621
31440SOL    HW296218   3.881   3.073  10.574
31441SOL     OW96219   9.331  10.843  12.692
31441SOL    HW196220   9.313  10.787  12.617
31441SOL    HW296221   9.423  10.827  12.712
31442SOL     OW96222   0.403   6.414   2.100
31442SOL    HW196223   0.399   6.342   2.036
31442SOL    HW296224   0.448   6.485   2.054
31443SOL     OW96225   3.675   6.887   0.429
31443SOL    HW196226   3.648   6.943   0.502
31443SOL    HW296227   3.594   6.843   0.402
31444SOL     OW96228   8.689   1.343   4.741
31444SOL    HW196229   8.776   1.331   4.703
31444SOL    HW296230   8.637   1.271   4.705
31445SOL     OW96231  14.219   0.682   4.586
31445SOL    HW196232  14.246   0.596   4.619
31445SOL    HW296233  14.150   0.710   4.647
31446SOL     OW96234  11.113   7.633   7.187
31446SOL    HW196235  11.074   7.619   7.101
31446SOL    HW296236  11.091   7.554   7.237
31447SOL     OW96237   8.768  12.002   3.650
31447SOL    HW196238   8.694  12.037   3.600
31447SOL    HW296239   8.759  12.043   3.736
31448SOL     OW96240   7.034   7.310  13.875
31448SOL    HW196241   7.053   7.352  13.959
31448SOL    HW296242   7.109   7.253  13.858
31449SOL     OW96243   5.412  13.285   0.111
31449SOL    HW196244   5.471  13.232   0.165
31449SOL    HW296245   5.349  13.323   0.173
31450SOL     OW96246   2.442   4.148   7.643
31450SOL    HW196247   2.430   4.053   7.650
31450SOL    HW296248   2.356   4.184   7.661
31451SOL     OW96249   8.956   2.950   2.951
31451SOL    HW196250   8.971   2.999   3.032
31451SOL    HW296251   8.897   2.879   2.977
31452SOL     OW96252   3.052  10.484   1.335
31452SOL    HW196253   2.963  10.494   1.367
31452SOL    HW296254   3.078  10.396   1.364
31453SOL     OW96255   3.621   5.445  11.914
31453SOL    HW196256   3.625   5.359  11.871
31453SOL    HW296257   3.583   5.503  11.848
31454SOL     OW96258   6.511  13.583  13.243
31454SOL    HW196259   6.448  13.556  13.175
31454SOL    HW296260   6.484  13.672  13.267
31455SOL     OW96261   1.923  10.889  11.611
31455SOL    HW196262   1.876  10.806  11.603
31455SOL    HW296263   2.006  10.875  11.564
31456SOL     OW96264  14.443  10.757  12.435
31456SOL    HW196265  14.436  10.674  12.389
31456SOL    HW296266  14.364  10.762  12.489
31457SOL     OW96267   8.673   6.949   8.238
31457SOL    HW196268   8.737   6.879   8.235
31457SOL    HW296269   8.680   6.992   8.153
31458SOL     OW96270   3.285  12.180   2.829
31458SOL    HW196271   3.297  12.233   2.751
31458SOL    HW296272   3.198  12.205   2.862
31459SOL     OW96273   9.611   2.270  12.960
31459SOL    HW196274   9.674   2.243  12.893
31459SOL    HW296275   9.541   2.205  12.955
31460SOL     OW96276   4.094   5.750   3.166
31460SOL    HW196277   4.078   5.844   3.172
31460SOL    HW296278   4.148   5.730   3.243
31461SOL     OW96279  10.187   1.041   9.015
31461SOL    HW196280  10.223   0.959   9.048
31461SOL    HW296281  10.139   1.016   8.936
31462SOL     OW96282   0.731   7.756  14.571
31462SOL    HW196283   0.769   7.822  14.629
31462SOL    HW296284   0.796   7.743  14.503
31463SOL     OW96285   1.209  11.137  11.943
31463SOL    HW196286   1.203  11.047  11.911
31463SOL    HW296287   1.270  11.132  12.017
31464SOL     OW96288   4.923   4.378  11.358
31464SOL    HW196289   4.994   4.417  11.410
31464SOL    HW296290   4.932   4.419  11.272
31465SOL     OW96291  12.970   3.996  14.351
31465SOL    HW196292  13.030   3.942  14.401
31465SOL    HW296293  12.896   3.938  14.332
31466SOL     OW96294  12.567  11.784   0.479
31466SOL    HW196295  12.649  11.743   0.451
31466SOL    HW296296  12.499  11.725   0.448
31467SOL     OW96297  14.755   7.743   1.971
31467SOL    HW196298  14.753   7.822   1.917
31467SOL    HW296299  14.846   7.734   1.998
31468SOL     OW96300   8.935   7.005   9.324
31468SOL    HW196301   8.848   6.964   9.328
31468SOL    HW296302   8.982   6.955   9.258
31469SOL     OW96303   1.107  11.989   3.691
31469SOL    HW196304   1.154  12.019   3.769
31469SOL    HW296305   1.176  11.977   3.626
31470SOL     OW96306   4.719  14.629   6.157
31470SOL    HW196307   4.732  14.694   6.226
31470SOL    HW296308   4.751  14.672   6.078
31471SOL     OW96309  10.179   7.948   3.662
31471SOL    HW196310  10.164   8.007   3.588
31471SOL    HW296311  10.091   7.928   3.694
31472SOL     OW96312   6.733   0.104  10.650
31472SOL    HW196313   6.723   0.172  10.584
31472SOL    HW296314   6.698   0.025  10.610
31473SOL     OW96315   6.840   6.606   0.592
31473SOL    HW196316   6.935   6.591   0.597
31473SOL    HW296317   6.829   6.696   0.622
31474SOL     OW96318   6.132  12.121  13.461
31474SOL    HW196319   6.146  12.144  13.370
31474SOL    HW296320   6.218  12.131  13.502
31475SOL     OW96321   1.480   5.274   6.661
31475SOL    HW196322   1.437   5.325   6.730
31475SOL    HW296323   1.573   5.282   6.680
31476SOL     OW96324   8.732   0.604   8.580
31476SOL    HW196325   8.688   0.677   8.625
31476SOL    HW296326   8.691   0.602   8.494
31477SOL     OW96327   4.944   9.894   2.158
31477SOL    HW196328   4.877   9.898   2.090
31477SOL    HW296329   4.934   9.976   2.207
31478SOL     OW96330  11.883   0.914   4.491
31478SOL    HW196331  11.963   0.892   4.443
31478SOL    HW296332  11.813   0.904   4.427
31479SOL     OW96333   5.024   6.801  12.335
31479SOL    HW196334   4.942   6.787  12.382
31479SOL    HW296335   5.035   6.722  12.282
31480SOL     OW96336   0.973   9.038  12.738
31480SOL    HW196337   1.026   8.959  12.743
31480SOL    HW296338   0.982   9.067  12.647
31481SOL     OW96339   7.833   8.686   3.030
31481SOL    HW196340   7.832   8.591   3.028
31481SOL    HW296341   7.761   8.710   3.088
31482SOL     OW96342   6.748   9.764  14.775
31482SOL    HW196343   6.794   9.754  14.858
31482SOL    HW296344   6.679   9.829  14.793
31483SOL     OW96345   4.626   8.584   3.349
31483SOL    HW196346   4.658   8.580   3.439
31483SOL    HW296347   4.690   8.534   3.299
31484SOL     OW96348  12.822  14.415  14.630
31484SOL    HW196349  12.898  14.407  14.572
31484SOL    HW296350  12.818  14.508  14.651
31485SOL     OW96351   6.264   9.512   7.300
31485SOL    HW196352   6.296   9.423   7.287
31485SOL    HW296353   6.237   9.541   7.213
31486SOL     OW96354   3.443  13.242   0.673
31486SOL    HW196355   3.413  13.165   0.624
31486SOL    HW296356   3.390  13.241   0.753
31487SOL     OW96357   3.671  10.313   3.890
31487SOL    HW196358   3.641  10.379   3.827
31487SOL    HW296359   3.611  10.322   3.964
31488SOL     OW96360   1.566  13.072  12.057
31488SOL    HW196361   1.587  13.089  11.965
31488SOL    HW296362   1.644  13.098  12.105
31489SOL     OW96363   8.470  12.557  13.749
31489SOL    HW196364   8.405  12.584  13.815
31489SOL    HW296365   8.548  12.534  13.800
31490SOL     OW96366  10.117   9.826  10.569
31490SOL    HW196367  10.122   9.817  10.474
31490SOL    HW296368  10.207   9.840  10.597
31491SOL     OW96369  13.038   9.789  14.027
31491SOL    HW196370  13.047   9.882  14.005
31491SOL    HW296371  13.090   9.744  13.961
31492SOL     OW96372   7.140   7.395   5.994
31492SOL    HW196373   7.184   7.459   5.938
31492SOL    HW296374   7.171   7.416   6.082
31493SOL     OW96375   1.336   5.980   5.566
31493SOL    HW196376   1.372   5.936   5.642
31493SOL    HW296377   1.256   6.022   5.597
31494SOL     OW96378   8.174   8.227  11.151
31494SOL    HW196379   8.173   8.141  11.109
31494SOL    HW296380   8.086   8.237  11.187
31495SOL     OW96381   3.048  11.258   6.564
31495SOL    HW196382   3.013  11.346   6.549
31495SOL    HW296383   3.078  11.260   6.655
31496SOL     OW96384  11.745   2.095   2.029
31496SOL    HW196385  11.650   2.099   2.039
31496SOL    HW296386  11.780   2.140   2.107
31497SOL     OW96387  11.169   7.429   9.362
31497SOL    HW196388  11.248   7.392   9.321
31497SOL    HW296389  11.119   7.352   9.389
31498SOL     OW96390   7.520  11.062   5.620
31498SOL    HW196391   7.579  11.008   5.568
31498SOL    HW296392   7.440  11.069   5.567
31499SOL     OW96393   9.494   2.572   1.180
31499SOL    HW196394   9.528   2.495   1.225
31499SOL    HW296395   9.554   2.586   1.107
31500SOL     OW96396   3.610   7.312   4.649
31500SOL    HW196397   3.689   7.359   4.624
31500SOL    HW296398   3.631   7.272   4.734
31501SOL     OW96399   0.214  11.993   2.440
31501SOL    HW196400   0.227  11.952   2.525
31501SOL    HW296401   0.235  11.925   2.376
31502SOL     OW96402   4.568  13.288   1.192
31502SOL    HW196403   4.593  13.336   1.270
31502SOL    HW296404   4.498  13.340   1.152
31503SOL     OW96405   8.917   9.248   5.173
31503SOL    HW196406   8.926   9.155   5.149
31503SOL    HW296407   8.956   9.253   5.260
31504SOL     OW96408   8.917   6.344   9.449
31504SOL    HW196409   8.886   6.416   9.393
31504SOL    HW296410   8.890   6.265   9.403
31505SOL     OW96411   4.032   4.519   0.874
31505SOL    HW196412   4.026   4.497   0.967
31505SOL    HW296413   4.117   4.485   0.847
31506SOL     OW96414   6.545   8.065   9.930
31506SOL    HW196415   6.588   8.140   9.970
31506SOL    HW296416   6.473   8.103   9.879
31507SOL     OW96417   2.111   0.539   8.427
31507SOL    HW196418   2.025   0.552   8.387
31507SOL    HW296419   2.134   0.626   8.462
31508SOL     OW96420  10.943  10.580  10.548
31508SOL    HW196421  10.972  10.624  10.468
31508SOL    HW296422  10.976  10.634  10.619
31509SOL     OW96423  11.748  13.591   1.196
31509SOL    HW196424  11.663  13.550   1.212
31509SOL    HW296425  11.730  13.657   1.129
31510SOL     OW96426  12.539   6.251   7.987
31510SOL    HW196427  12.631   6.234   7.966
31510SOL    HW296428  12.521   6.194   8.062
31511SOL     OW96429  14.201   0.809   7.984
31511SOL    HW196430  14.271   0.808   8.050
31511SOL    HW296431  14.244   0.838   7.904
31512SOL     OW96432  14.789   0.206   1.141
31512SOL    HW196433  14.772   0.297   1.118
31512SOL    HW296434  14.846   0.174   1.071
31513SOL     OW96435  11.259  14.058   6.587
31513SOL    HW196436  11.348  14.048   6.622
31513SOL    HW296437  11.228  13.969   6.574
31514SOL     OW96438   6.936  14.234   7.536
31514SOL    HW196439   6.983  14.265   7.613
31514SOL    HW296440   6.994  14.254   7.462
31515SOL     OW96441   0.490  10.949   3.929
31515SOL    HW196442   0.572  10.937   3.880
31515SOL    HW296443   0.426  10.897   3.881
31516SOL     OW96444   0.536   9.940   5.012
31516SOL    HW196445   0.578   9.950   4.927
31516SOL    HW296446   0.609   9.931   5.074
31517SOL     OW96447   1.757   1.468   9.625
31517SOL    HW196448   1.808   1.543   9.656
31517SOL    HW296449   1.793   1.393   9.671
31518SOL     OW96450   9.839   7.203   0.268
31518SOL    HW196451   9.770   7.222   0.204
31518SOL    HW296452   9.791   7.183   0.349
31519SOL     OW96453   0.661   2.930   5.022
31519SOL    HW196454   0.732   2.881   4.980
31519SOL    HW296455   0.654   2.892   5.109
31520SOL     OW96456   5.455   6.702   9.778
31520SOL    HW196457   5.439   6.616   9.739
31520SOL    HW296458   5.371   6.726   9.818
31521SOL     OW96459   9.770  14.712   2.703
31521SOL    HW196460   9.833  14.662   2.651
31521SOL    HW296461   9.689  14.707   2.653
31522SOL     OW96462   0.899  11.620   4.419
31522SOL    HW196463   0.804  11.618   4.427
31522SOL    HW296464   0.929  11.545   4.469
31523SOL     OW96465  14.786  13.833  14.073
31523SOL    HW196466  14.868  13.857  14.116
31523SOL    HW296467  14.753  13.759  14.124
31524SOL     OW96468  14.275   6.600   6.300
31524SOL    HW196469  14.216   6.670   6.331
31524SOL    HW296470  14.325   6.642   6.230
31525SOL     OW96471  14.078   0.017   3.201
31525SOL    HW196472  13.987   0.026   3.174
31525SOL    HW296473  14.087   0.080   3.273
31526SOL     OW96474   9.991   7.320   4.028
31526SOL    HW196475  10.048   7.394   4.009
31526SOL    HW296476  10.011   7.298   4.119
31527SOL     OW96477  11.681   6.304   0.430
31527SOL    HW196478  11.665   6.336   0.341
31527SOL    HW296479  11.598   6.315   0.475
31528SOL     OW96480   7.215  12.296   9.639
31528SOL    HW196481   7.232  12.268   9.549
31528SOL    HW296482   7.223  12.216   9.691
31529SOL     OW96483   5.734   6.431   1.120
31529SOL    HW196484   5.668   6.376   1.077
31529SOL    HW296485   5.806   6.435   1.058
31530SOL     OW96486   4.523  12.972   5.929
31530SOL    HW196487   4.527  13.059   5.889
31530SOL    HW296488   4.474  12.919   5.865
31531SOL     OW96489   1.122  14.729  12.869
31531SOL    HW196490   1.050  14.772  12.916
31531SOL    HW296491   1.100  14.741  12.777
31532SOL     OW96492   2.618   1.580   3.191
31532SOL    HW196493   2.678   1.522   3.143
31532SOL    HW296494   2.564   1.520   3.242
31533SOL     OW96495   7.035   9.851   4.992
31533SOL    HW196496   7.094   9.776   4.992
31533SOL    HW296497   7.032   9.879   4.901
31534SOL     OW96498   7.135   2.609   1.687
31534SOL    HW196499   7.080   2.568   1.754
31534SOL    HW296500   7.104   2.700   1.683
31535SOL     OW96501   6.061  10.788  10.488
31535SOL    HW196502   6.031  10.700  10.510
31535SOL    HW296503   6.156  10.783  10.493
31536SOL     OW96504   3.597   7.408  10.778
31536SOL    HW196505   3.553   7.358  10.709
31536SOL    HW296506   3.573   7.499  10.760
31537SOL     OW96507   3.029   5.863   4.847
31537SOL    HW196508   3.102   5.826   4.897
31537SOL    HW296509   2.951   5.834   4.894
31538SOL     OW96510   1.426   2.649   3.966
31538SOL    HW196511   1.415   2.555   3.953
31538SOL    HW296512   1.472   2.678   3.887
31539SOL     OW96513   2.293  11.855  10.422
31539SOL    HW196514   2.242  11.898  10.490
31539SOL    HW296515   2.232  11.849  10.348
31540SOL     OW96516   7.444   7.991   1.755
31540SOL    HW196517   7.476   7.929   1.690
31540SOL    HW296518   7.463   8.077   1.717
31541SOL     OW96519   5.682  14.032  10.314
31541SOL    HW196520   5.664  13.992  10.229
31541SOL    HW296521   5.728  14.113  10.293
31542SOL     OW96522  12.181   2.020   7.861
31542SOL    HW196523  12.095   2.052   7.832
31542SOL    HW296524  12.171   2.005   7.955
31543SOL     OW96525   1.056   4.319  11.515
31543SOL    HW196526   1.044   4.293  11.424
31543SOL    HW296527   1.132   4.377  11.513
31544SOL     OW96528  10.020   3.860  10.941
31544SOL    HW196529  10.082   3.889  11.007
31544SOL    HW296530   9.934   3.867  10.983
31545SOL     OW96531   3.350   6.818   7.159
31545SOL    HW196532   3.389   6.829   7.072
31545SOL    HW296533   3.399   6.747   7.199
31546SOL     OW96534  12.245  11.196   0.664
31546SOL    HW196535  12.162  11.230   0.697
31546SOL    HW296536  12.221  11.125   0.605
31547SOL     OW96537  10.040   9.781   0.375
31547SOL    HW196538  10.075   9.824   0.453
31547SOL    HW296539  10.109   9.719   0.350
31548SOL     OW96540   4.920   6.611   7.187
31548SOL    HW196541   5.011   6.596   7.161
31548SOL    HW296542   4.888   6.678   7.126
31549SOL     OW96543   0.269  10.266   4.271
31549SOL    HW196544   0.298  10.280   4.361
31549SOL    HW296545   0.271  10.172   4.259
31550SOL     OW96546   5.018  12.221   0.430
31550SOL    HW196547   5.071  12.147   0.402
31550SOL    HW296548   4.935  12.210   0.383
31551SOL     OW96549   9.333   4.991  13.352
31551SOL    HW196550   9.295   5.065  13.399
31551SOL    HW296551   9.266   4.923  13.355
31552SOL     OW96552   5.863   1.056  11.099
31552SOL    HW196553   5.889   1.148  11.097
31552SOL    HW296554   5.857   1.031  11.006
31553SOL     OW96555   7.573  14.517   0.722
31553SOL    HW196556   7.478  14.527   0.724
31553SOL    HW296557   7.588  14.444   0.662
31554SOL     OW96558   1.811   5.046   6.218
31554SOL    HW196559   1.870   4.987   6.266
31554SOL    HW296560   1.757   4.987   6.165
31555SOL     OW96561   9.184   7.527  12.625
31555SOL    HW196562   9.244   7.453  12.626
31555SOL    HW296563   9.147   7.530  12.713
31556SOL     OW96564   7.819   3.890   5.800
31556SOL    HW196565   7.818   3.851   5.887
31556SOL    HW296566   7.746   3.848   5.754
31557SOL     OW96567   4.407   5.855   3.261
31557SOL    HW196568   4.367   5.773   3.232
31557SOL    HW296569   4.388   5.859   3.355
31558SOL     OW96570   4.292   9.361   6.609
31558SOL    HW196571   4.261   9.448   6.586
31558SOL    HW296572   4.216   9.304   6.597
31559SOL     OW96573   4.864   4.618   5.331
31559SOL    HW196574   4.776   4.588   5.308
31559SOL    HW296575   4.874   4.595   5.423
31560SOL     OW96576   0.777   3.316   2.282
31560SOL    HW196577   0.842   3.326   2.212
31560SOL    HW296578   0.723   3.242   2.253
31561SOL     OW96579   1.997   8.836   0.456
31561SOL    HW196580   2.004   8.930   0.472
31561SOL    HW296581   1.933   8.806   0.521
31562SOL     OW96582  10.420  13.353   0.653
31562SOL    HW196583  10.332  13.364   0.689
31562SOL    HW296584  10.418  13.397   0.569
31563SOL     OW96585   3.948  12.605   5.298
31563SOL    HW196586   3.885  12.625   5.229
31563SOL    HW296587   4.024  12.659   5.277
31564SOL     OW96588  14.764   9.222   6.324
31564SOL    HW196589  14.697   9.286   6.348
31564SOL    HW296590  14.822   9.218   6.400
31565SOL     OW96591   0.947  12.113   1.928
31565SOL    HW196592   1.000  12.034   1.918
31565SOL    HW296593   0.968  12.167   1.852
31566SOL     OW96594   5.416   4.033   9.945
31566SOL    HW196595   5.378   4.071  10.024
31566SOL    HW296596   5.373   4.080   9.873
31567SOL     OW96597  14.538   0.015  14.170
31567SOL    HW196598  14.592   0.088  14.142
31567SOL    HW296599  14.598  14.843  14.214
31568SOL     OW96600   6.074  14.238   5.821
31568SOL    HW196601   6.129  14.178   5.872
31568SOL    HW296602   5.985  14.217   5.846
31569SOL     OW96603   9.603  13.323   1.779
31569SOL    HW196604   9.527  13.272   1.751
31569SOL    HW296605   9.588  13.410   1.742
31570SOL     OW96606   5.788  11.637   9.805
31570SOL    HW196607   5.759  11.624   9.896
31570SOL    HW296608   5.858  11.574   9.793
31571SOL     OW96609  10.029   7.934   5.563
31571SOL    HW196610  10.043   7.864   5.627
31571SOL    HW296611   9.934   7.935   5.550
31572SOL     OW96612   2.642   0.311   0.460
31572SOL    HW196613   2.552   0.342   0.457
31572SOL    HW296614   2.641   0.231   0.407
31573SOL     OW96615   0.092   7.562   1.413
31573SOL    HW196616   0.085   7.638   1.471
31573SOL    HW296617   0.097   7.600   1.325
31574SOL     OW96618  14.002   8.942  13.436
31574SOL    HW196619  14.069   8.999  13.397
31574SOL    HW296620  13.926   8.952  13.379
31575SOL     OW96621   8.975   0.564   4.076
31575SOL    HW196622   9.010   0.651   4.056
31575SOL    HW296623   8.919   0.544   4.002
31576SOL     OW96624   8.116   0.863  13.672
31576SOL    HW196625   8.186   0.927  13.658
31576SOL    HW296626   8.104   0.822  13.586
31577SOL     OW96627  12.107   7.979  12.781
31577SOL    HW196628  12.131   8.035  12.707
31577SOL    HW296629  12.082   8.040  12.851
31578SOL     OW96630  13.508   1.924  10.449
31578SOL    HW196631  13.441   1.935  10.382
31578SOL    HW296632  13.478   1.849  10.500
31579SOL     OW96633   4.431  10.884  13.485
31579SOL    HW196634   4.392  10.818  13.428
31579SOL    HW296635   4.355  10.933  13.519
31580SOL     OW96636  11.550   6.120   2.732
31580SOL    HW196637  11.468   6.136   2.684
31580SOL    HW296638  11.585   6.207   2.750
31581SOL     OW96639   5.655   7.428   8.803
31581SOL    HW196640   5.640   7.334   8.795
31581SOL    HW296641   5.570   7.469   8.784
31582SOL     OW96642   7.159   8.894   6.545
31582SOL    HW196643   7.133   8.971   6.595
31582SOL    HW296644   7.077   8.852   6.521
31583SOL     OW96645   0.703   3.844   8.189
31583SOL    HW196646   0.660   3.795   8.258
31583SOL    HW296647   0.773   3.892   8.233
31584SOL     OW96648   9.433   2.475   6.376
31584SOL    HW196649   9.434   2.571   6.375
31584SOL    HW296650   9.524   2.451   6.391
31585SOL     OW96651   5.885   0.228   2.661
31585SOL    HW196652   5.937   0.149   2.677
31585SOL    HW296653   5.909   0.287   2.733
31586SOL     OW96654  10.145   3.696   5.769
31586SOL    HW196655  10.109   3.760   5.708
31586SOL    HW296656  10.151   3.743   5.852
31587SOL     OW96657   6.205  14.453   4.062
31587SOL    HW196658   6.273  14.512   4.095
31587SOL    HW296659   6.179  14.492   3.979
31588SOL     OW96660   2.542   8.953  12.465
31588SOL    HW196661   2.623   8.956  12.415
31588SOL    HW296662   2.553   9.018  12.534
31589SOL     OW96663   2.089   5.356  13.284
31589SOL    HW196664   2.157   5.422  13.271
31589SOL    HW296665   2.008   5.399  13.257
31590SOL     OW96666  14.144  13.573   1.887
31590SOL    HW196667  14.214  13.508   1.890
31590SOL    HW296668  14.185  13.651   1.851
31591SOL     OW96669  10.925   5.517   8.839
31591SOL    HW196670  10.956   5.429   8.858
31591SOL    HW296671  11.001   5.561   8.800
31592SOL     OW96672   3.863   1.593  14.151
31592SOL    HW196673   3.877   1.579  14.057
31592SOL    HW296674   3.949   1.575  14.190
31593SOL     OW96675   2.863   6.124   5.823
31593SOL    HW196676   2.885   6.208   5.864
31593SOL    HW296677   2.806   6.081   5.886
31594SOL     OW96678  10.282  10.196   7.514
31594SOL    HW196679  10.313  10.226   7.429
31594SOL    HW296680  10.189  10.175   7.500
31595SOL     OW96681   3.579  10.261  11.884
31595SOL    HW196682   3.632  10.190  11.848
31595SOL    HW296683   3.571  10.239  11.977
31596SOL     OW96684  13.545  10.622  10.219
31596SOL    HW196685  13.538  10.544  10.164
31596SOL    HW296686  13.492  10.601  10.296
31597SOL     OW96687   8.340  13.878  13.367
31597SOL    HW196688   8.283  13.836  13.431
31597SOL    HW296689   8.397  13.807  13.336
31598SOL     OW96690  10.308  10.392   0.322
31598SOL    HW196691  10.308  10.410   0.416
31598SOL    HW296692  10.235  10.331   0.309
31599SOL     OW96693   3.848  13.817   9.116
31599SOL    HW196694   3.894  13.780   9.191
31599SOL    HW296695   3.790  13.747   9.087
31600SOL     OW96696  11.572  14.262   0.716
31600SOL    HW196697  11.528  14.346   0.722
31600SOL    HW296698  11.534  14.220   0.638
31601SOL     OW96699   9.455  14.295   7.749
31601SOL    HW196700   9.384  14.340   7.795
31601SOL    HW296701   9.414  14.216   7.713
31602SOL     OW96702   5.815   5.382  13.620
31602SOL    HW196703   5.825   5.477  13.623
31602SOL    HW296704   5.810   5.355  13.712
31603SOL     OW96705   8.269   0.709   9.504
31603SOL    HW196706   8.315   0.769   9.444
31603SOL    HW296707   8.338   0.655   9.541
31604SOL     OW96708  11.731   1.844   4.940
31604SOL    HW196709  11.755   1.765   4.987
31604SOL    HW296710  11.794   1.850   4.868
31605SOL     OW96711   7.111  13.555  11.456
31605SOL    HW196712   7.073  13.492  11.395
31605SOL    HW296713   7.205  13.540  11.451
31606SOL     OW96714   0.777   4.105   7.961
31606SOL    HW196715   0.738   4.019   7.947
31606SOL    HW296716   0.729   4.141   8.036
31607SOL     OW96717   7.521   6.667   3.251
31607SOL    HW196718   7.511   6.702   3.340
31607SOL    HW296719   7.440   6.690   3.207
31608SOL     OW96720  10.297   1.435   7.966
31608SOL    HW196721  10.208   1.464   7.986
31608SOL    HW296722  10.343   1.438   8.050
31609SOL     OW96723   1.389   7.665   8.321
31609SOL    HW196724   1.454   7.708   8.377
31609SOL    HW296725   1.438   7.636   8.245
31610SOL     OW96726  14.357  11.615   1.937
31610SOL    HW196727  14.363  11.709   1.916
31610SOL    HW296728  14.303  11.579   1.867
31611SOL     OW96729   7.953   4.793   2.423
31611SOL    HW196730   8.029   4.847   2.402
31611SOL    HW296731   7.983   4.703   2.407
31612SOL     OW96732   5.093   5.715  10.581
31612SOL    HW196733   5.110   5.692  10.490
31612SOL    HW296734   5.149   5.791  10.598
31613SOL     OW96735   7.127   7.165  14.104
31613SOL    HW196736   7.140   7.119  14.021
31613SOL    HW296737   7.171   7.110  14.169
31614SOL     OW96738  10.053   1.916   2.938
31614SOL    HW196739  10.053   1.831   2.983
31614SOL    HW296740  10.073   1.894   2.847
31615SOL     OW96741   5.686  12.031   2.847
31615SOL    HW196742   5.685  12.087   2.769
31615SOL    HW296743   5.715  11.946   2.815
31616SOL     OW96744   1.990   8.211  10.182
31616SOL    HW196745   2.027   8.132  10.142
31616SOL    HW296746   1.913   8.231  10.130
31617SOL     OW96747   6.148   9.239   8.602
31617SOL    HW196748   6.214   9.176   8.574
31617SOL    HW296749   6.102   9.264   8.522
31618SOL     OW96750   3.917   3.514   4.734
31618SOL    HW196751   3.999   3.501   4.687
31618SOL    HW296752   3.856   3.548   4.668
31619SOL     OW96753  13.463  10.664   8.886
31619SOL    HW196754  13.395  10.602   8.861
31619SOL    HW296755  13.425  10.750   8.866
31620SOL     OW96756  12.586   5.030  12.537
31620SOL    HW196757  12.660   5.082  12.507
31620SOL    HW296758  12.515   5.051  12.476
31621SOL     OW96759  11.846  10.212  10.170
31621SOL    HW196760  11.842  10.249  10.082
31621SOL    HW296761  11.838  10.117  10.157
31622SOL     OW96762   9.352   1.912   9.183
31622SOL    HW196763   9.335   1.823   9.215
31622SOL    HW296764   9.434   1.905   9.135
31623SOL     OW96765  10.150   9.541   3.305
31623SOL    HW196766  10.125   9.473   3.243
31623SOL    HW296767  10.208   9.599   3.256
31624SOL     OW96768   1.626   7.571   4.045
31624SOL    HW196769   1.622   7.488   3.998
31624SOL    HW296770   1.571   7.557   4.122
31625SOL     OW96771  14.645   7.109   9.488
31625SOL    HW196772  14.738   7.093   9.504
31625SOL    HW296773  14.616   7.160   9.565
31626SOL     OW96774  11.938  14.190  12.805
31626SOL    HW196775  11.896  14.104  12.802
31626SOL    HW296776  11.906  14.229  12.887
31627SOL     OW96777  13.373  14.450   8.268
31627SOL    HW196778  13.375  14.458   8.173
31627SOL    HW296779  13.441  14.387   8.288
31628SOL     OW96780   8.953   1.417   1.818
31628SOL    HW196781   8.925   1.329   1.792
31628SOL    HW296782   8.962   1.464   1.735
31629SOL     OW96783  11.650   8.996   9.735
31629SOL    HW196784  11.585   9.066   9.741
31629SOL    HW296785  11.607   8.927   9.684
31630SOL     OW96786   6.309   5.512   3.249
31630SOL    HW196787   6.240   5.478   3.306
31630SOL    HW296788   6.328   5.440   3.189
31631SOL     OW96789  14.577   9.865   6.381
31631SOL    HW196790  14.579   9.845   6.287
31631SOL    HW296791  14.649   9.813   6.418
31632SOL     OW96792   2.258   2.205   8.413
31632SOL    HW196793   2.234   2.270   8.346
31632SOL    HW296794   2.353   2.200   8.409
31633SOL     OW96795   9.928  13.284  11.827
31633SOL    HW196796   9.953  13.264  11.736
31633SOL    HW296797   9.929  13.199  11.871
31634SOL     OW96798  12.867   5.446   2.426
31634SOL    HW196799  12.947   5.396   2.408
31634SOL    HW296800  12.796   5.389   2.399
31635SOL     OW96801   5.950   3.928   1.365
31635SOL    HW196802   5.963   3.867   1.293
31635SOL    HW296803   5.882   3.988   1.333
31636SOL     OW96804   5.011   5.225   6.147
31636SOL    HW196805   5.025   5.271   6.065
31636SOL    HW296806   4.929   5.261   6.181
31637SOL     OW96807   1.915   3.424   7.141
31637SOL    HW196808   1.965   3.344   7.127
31637SOL    HW296809   1.971   3.477   7.198
31638SOL     OW96810  13.992   2.825   3.548
31638SOL    HW196811  13.920   2.867   3.595
31638SOL    HW296812  13.949   2.765   3.487
31639SOL     OW96813   3.137   3.830  10.554
31639SOL    HW196814   3.094   3.788  10.479
31639SOL    HW296815   3.073   3.894  10.585
31640SOL     OW96816   0.145   7.656   6.247
31640SOL    HW196817   0.203   7.686   6.318
31640SOL    HW296818   0.195   7.589   6.202
31641SOL     OW96819   5.671   0.298   1.474
31641SOL    HW196820   5.671   0.394   1.470
31641SOL    HW296821   5.626   0.277   1.556
31642SOL     OW96822  12.183   3.676   7.918
31642SOL    HW196823  12.226   3.759   7.938
31642SOL    HW296824  12.105   3.701   7.870
31643SOL     OW96825   9.207   9.176   8.301
31643SOL    HW196826   9.164   9.110   8.247
31643SOL    HW296827   9.168   9.259   8.272
31644SOL     OW96828  10.142   0.503  14.125
31644SOL    HW196829  10.113   0.438  14.189
31644SOL    HW296830  10.220   0.543  14.164
31645SOL     OW96831   2.759  11.539  14.501
31645SOL    HW196832   2.698  11.613  14.502
31645SOL    HW296833   2.704  11.462  14.486
31646SOL     OW96834   7.689   3.473   2.223
31646SOL    HW196835   7.700   3.445   2.314
31646SOL    HW296836   7.672   3.392   2.175
31647SOL     OW96837   1.649  11.953   9.365
31647SOL    HW196838   1.638  11.894   9.290
31647SOL    HW296839   1.564  11.954   9.407
31648SOL     OW96840   1.638   0.592   4.607
31648SOL    HW196841   1.708   0.595   4.672
31648SOL    HW296842   1.654   0.510   4.559
31649SOL     OW96843  10.593  13.098   4.235
31649SOL    HW196844  10.674  13.148   4.236
31649SOL    HW296845  10.615  13.017   4.190
31650SOL     OW96846   3.027  14.025   6.649
31650SOL    HW196847   3.090  13.954   6.658
31650SOL    HW296848   2.942  13.983   6.656
31651SOL     OW96849   4.372   8.454  14.307
31651SOL    HW196850   4.452   8.425  14.264
31651SOL    HW296851   4.348   8.535  14.261
31652SOL     OW96852   3.133   0.159  13.134
31652SOL    HW196853   3.121   0.066  13.154
31652SOL    HW296854   3.184   0.160  13.054
31653SOL     OW96855   9.155  11.413   8.600
31653SOL    HW196856   9.235  11.464   8.612
31653SOL    HW296857   9.125  11.435   8.512
31654SOL     OW96858  13.648   8.368  10.073
31654SOL    HW196859  13.565   8.366  10.120
31654SOL    HW296860  13.623   8.353   9.982
31655SOL     OW96861   6.768   2.730  12.049
31655SOL    HW196862   6.729   2.677  12.118
31655SOL    HW296863   6.845   2.680  12.022
31656SOL     OW96864   2.978   7.242   7.310
31656SOL    HW196865   2.901   7.272   7.262
31656SOL    HW296866   3.031   7.197   7.245
31657SOL     OW96867  14.717   3.834   3.014
31657SOL    HW196868  14.642   3.871   2.968
31657SOL    HW296869  14.770   3.792   2.946
31658SOL     OW96870   5.401  14.247   1.563
31658SOL    HW196871   5.312  14.257   1.596
31658SOL    HW296872   5.409  14.154   1.544
31659SOL     OW96873   7.363  14.238   5.849
31659SOL    HW196874   7.316  14.188   5.782
31659SOL    HW296875   7.411  14.173   5.900
31660SOL     OW96876   1.173   9.508  12.520
31660SOL    HW196877   1.135   9.581  12.471
31660SOL    HW296878   1.173   9.538  12.611
31661SOL     OW96879   2.692   6.290   5.058
31661SOL    HW196880   2.762   6.256   5.113
31661SOL    HW296881   2.692   6.384   5.074
31662SOL     OW96882  14.722  13.723   0.250
31662SOL    HW196883  14.663  13.791   0.280
31662SOL    HW296884  14.672  13.642   0.258
31663SOL     OW96885  11.346   6.414   9.661
31663SOL    HW196886  11.431   6.409   9.705
31663SOL    HW296887  11.283   6.411   9.733
31664SOL     OW96888  11.383   5.407  10.087
31664SOL    HW196889  11.459   5.349  10.095
31664SOL    HW296890  11.345   5.409  10.175
31665SOL     OW96891  13.798   7.526   8.335
31665SOL    HW196892  13.780   7.452   8.392
31665SOL    HW296893  13.892   7.541   8.344
31666SOL     OW96894   2.215  13.309   1.815
31666SOL    HW196895   2.290  13.281   1.867
31666SOL    HW296896   2.247  13.311   1.725
31667SOL     OW96897   4.224   1.879  11.117
31667SOL    HW196898   4.155   1.815  11.107
31667SOL    HW296899   4.179   1.963  11.124
31668SOL     OW96900   2.482   5.089   2.531
31668SOL    HW196901   2.449   5.010   2.573
31668SOL    HW296902   2.407   5.124   2.483
31669SOL     OW96903   0.738   7.630   9.806
31669SOL    HW196904   0.714   7.723   9.813
31669SOL    HW296905   0.762   7.605   9.895
31670SOL     OW96906   7.780  13.537  12.360
31670SOL    HW196907   7.789  13.585  12.278
31670SOL    HW296908   7.804  13.447  12.339
31671SOL     OW96909   6.851   8.773   4.089
31671SOL    HW196910   6.857   8.866   4.065
31671SOL    HW296911   6.932   8.755   4.137
31672SOL     OW96912   4.413   6.085   2.602
31672SOL    HW196913   4.428   6.179   2.594
31672SOL    HW296914   4.499   6.045   2.590
31673SOL     OW96915  13.920  13.961   4.813
31673SOL    HW196916  13.972  14.016   4.872
31673SOL    HW296917  13.831  13.964   4.849
31674SOL     OW96918  13.224   5.142   2.646
31674SOL    HW196919  13.316   5.159   2.623
31674SOL    HW296920  13.200   5.065   2.594
31675SOL     OW96921  10.699  10.355  14.709
31675SOL    HW196922  10.725  10.280  14.762
31675SOL    HW296923  10.761  10.356  14.636
31676SOL     OW96924  11.054   2.030  12.336
31676SOL    HW196925  11.022   1.968  12.402
31676SOL    HW296926  10.977   2.053  12.285
31677SOL     OW96927  14.066   3.064  14.071
31677SOL    HW196928  14.039   2.976  14.097
31677SOL    HW296929  14.105   3.053  13.984
31678SOL     OW96930  13.858   8.294  12.048
31678SOL    HW196931  13.822   8.240  11.978
31678SOL    HW296932  13.946   8.259  12.063
31679SOL     OW96933  10.388  12.080   0.257
31679SOL    HW196934  10.350  12.163   0.285
31679SOL    HW296935  10.350  12.015   0.316
31680SOL     OW96936   5.311   2.535   4.660
31680SOL    HW196937   5.295   2.476   4.734
31680SOL    HW296938   5.398   2.511   4.628
31681SOL     OW96939   9.786   2.360   0.465
31681SOL    HW196940   9.716   2.323   0.410
31681SOL    HW296941   9.806   2.444   0.425
31682SOL     OW96942   3.957  14.508   1.991
31682SOL    HW196943   4.035  14.483   2.039
31682SOL    HW296944   3.888  14.511   2.057
31683SOL     OW96945  13.719   2.136  13.627
31683SOL    HW196946  13.706   2.045  13.651
31683SOL    HW296947  13.714   2.184  13.710
31684SOL     OW96948   7.887  10.796   0.719
31684SOL    HW196949   7.938  10.856   0.663
31684SOL    HW296950   7.802  10.791   0.676
31685SOL     OW96951   2.617  11.751   1.858
31685SOL    HW196952   2.611  11.704   1.940
31685SOL    HW296953   2.711  11.763   1.843
31686SOL     OW96954   2.878  14.614   0.546
31686SOL    HW196955   2.793  14.582   0.575
31686SOL    HW296956   2.894  14.693   0.597
31687SOL     OW96957   6.869   4.689   5.896
31687SOL    HW196958   6.891   4.722   5.983
31687SOL    HW296959   6.821   4.608   5.912
31688SOL     OW96960  10.824   0.554   2.677
31688SOL    HW196961  10.855   0.519   2.593
31688SOL    HW296962  10.733   0.524   2.683
31689SOL     OW96963   2.743   3.158   2.025
31689SOL    HW196964   2.658   3.115   2.018
31689SOL    HW296965   2.802   3.091   2.059
31690SOL     OW96966   5.701   1.865  14.744
31690SOL    HW196967   5.681   1.934  14.807
31690SOL    HW296968   5.680   1.903  14.659
31691SOL     OW96969  11.406   9.424   5.445
31691SOL    HW196970  11.346   9.365   5.399
31691SOL    HW296971  11.491   9.411   5.402
31692SOL     OW96972   0.640  12.442  14.852
31692SOL    HW196973   0.662  12.359   0.006
31692SOL    HW296974   0.655  12.427  14.759
31693SOL     OW96975   6.516   2.894   7.202
31693SOL    HW196976   6.548   2.816   7.156
31693SOL    HW296977   6.521   2.870   7.295
31694SOL     OW96978   9.644   4.547   2.911
31694SOL    HW196979   9.637   4.580   3.000
31694SOL    HW296980   9.559   4.506   2.894
31695SOL     OW96981   7.474   2.659   9.706
31695SOL    HW196982   7.415   2.725   9.669
31695SOL    HW296983   7.454   2.579   9.659
31696SOL     OW96984  12.622  13.887   2.413
31696SOL    HW196985  12.670  13.885   2.330
31696SOL    HW296986  12.656  13.813   2.463
31697SOL     OW96987   1.776   6.350   0.197
31697SOL    HW196988   1.842   6.305   0.249
31697SOL    HW296989   1.796   6.326   0.107
31698SOL     OW96990  12.641   8.825  11.998
31698SOL    HW196991  12.643   8.788  12.087
31698SOL    HW296992  12.623   8.918  12.011
31699SOL     OW96993   8.073  14.574  11.877
31699SOL    HW196994   7.983  14.577  11.909
31699SOL    HW296995   8.072  14.626  11.797
31700SOL     OW96996   0.800   8.405  12.804
31700SOL    HW196997   0.724   8.366  12.847
31700SOL    HW296998   0.872   8.345  12.823
31701SOL     OW96999  13.624  11.569  12.887
31701SOL    HW197000  13.557  11.617  12.838
31701SOL    HW297001  13.619  11.480  12.853
31702SOL     OW97002  13.737   3.827  13.635
31702SOL    HW197003  13.794   3.792  13.704
31702SOL    HW297004  13.725   3.919  13.659
31703SOL     OW97005   4.877   1.738  10.440
31703SOL    HW197006   4.917   1.651  10.449
31703SOL    HW297007   4.786   1.725  10.464
31704SOL     OW97008   0.640   3.363   4.988
31704SOL    HW197009   0.554   3.323   4.996
31704SOL    HW297010   0.651   3.415   5.068
31705SOL     OW97011   2.216   1.199  11.538
31705SOL    HW197012   2.288   1.247  11.580
31705SOL    HW297013   2.139   1.221  11.591
31706SOL     OW97014   2.348   4.795   5.133
31706SOL    HW197015   2.414   4.816   5.199
31706SOL    HW297016   2.382   4.835   5.053
31707SOL     OW97017   1.589   2.345   6.609
31707SOL    HW197018   1.665   2.402   6.593
31707SOL    HW297019   1.625   2.257   6.615
31708SOL     OW97020   2.145   9.779  13.556
31708SOL    HW197021   2.062   9.783  13.604
31708SOL    HW297022   2.137   9.700  13.502
31709SOL     OW97023  12.208   5.141  13.857
31709SOL    HW197024  12.221   5.082  13.783
31709SOL    HW297025  12.201   5.083  13.933
31710SOL     OW97026  14.799   3.516   0.442
31710SOL    HW197027  14.874   3.475   0.486
31710SOL    HW297028  14.831   3.538   0.355
31711SOL     OW97029  13.315   6.614   2.400
31711SOL    HW197030  13.233   6.636   2.443
31711SOL    HW297031  13.352   6.699   2.375
31712SOL     OW97032   6.488  11.947   0.172
31712SOL    HW197033   6.420  11.880   0.172
31712SOL    HW297034   6.442  12.029   0.153
31713SOL     OW97035  13.949   9.120  10.559
31713SOL    HW197036  13.908   9.193  10.605
31713SOL    HW297037  13.908   9.042  10.597
31714SOL     OW97038  12.294   8.758   4.968
31714SOL    HW197039  12.321   8.808   5.045
31714SOL    HW297040  12.211   8.718   4.992
31715SOL     OW97041   7.831   8.578   3.866
31715SOL    HW197042   7.838   8.483   3.873
31715SOL    HW297043   7.884   8.611   3.938
31716SOL     OW97044  12.746  11.458   7.022
31716SOL    HW197045  12.712  11.438   7.109
31716SOL    HW297046  12.699  11.536   6.995
31717SOL     OW97047   4.548   8.876   8.579
31717SOL    HW197048   4.621   8.921   8.621
31717SOL    HW297049   4.578   8.786   8.571
31718SOL     OW97050   8.266  10.859  11.708
31718SOL    HW197051   8.174  10.839  11.690
31718SOL    HW297052   8.287  10.930  11.647
31719SOL     OW97053   5.269  10.507  11.988
31719SOL    HW197054   5.242  10.419  11.964
31719SOL    HW297055   5.343  10.494  12.048
31720SOL     OW97056   5.609   4.584   1.862
31720SOL    HW197057   5.662   4.656   1.827
31720SOL    HW297058   5.544   4.626   1.918
31721SOL     OW97059   7.772  12.041  12.283
31721SOL    HW197060   7.769  11.960  12.334
31721SOL    HW297061   7.686  12.046  12.241
31722SOL     OW97062   2.669   0.323   4.809
31722SOL    HW197063   2.731   0.267   4.763
31722SOL    HW297064   2.688   0.411   4.779
31723SOL     OW97065   9.244   0.364   5.668
31723SOL    HW197066   9.306   0.433   5.693
31723SOL    HW297067   9.164   0.411   5.646
31724SOL     OW97068  14.516   4.022   5.212
31724SOL    HW197069  14.599   4.012   5.259
31724SOL    HW297070  14.473   4.096   5.255
31725SOL     OW97071   8.546   1.578   8.040
31725SOL    HW197072   8.461   1.602   8.002
31725SOL    HW297073   8.610   1.621   7.984
31726SOL     OW97074  13.656   3.374   3.005
31726SOL    HW197075  13.650   3.378   2.909
31726SOL    HW297076  13.748   3.357   3.023
31727SOL     OW97077   1.743   4.406   5.651
31727SOL    HW197078   1.683   4.433   5.582
31727SOL    HW297079   1.699   4.332   5.693
31728SOL     OW97080   0.784   5.227   2.638
31728SOL    HW197081   0.734   5.231   2.720
31728SOL    HW297082   0.875   5.221   2.666
31729SOL     OW97083   6.143   9.896   8.770
31729SOL    HW197084   6.076   9.955   8.805
31729SOL    HW297085   6.137   9.818   8.825
31730SOL     OW97086   6.160   0.232  10.863
31730SOL    HW197087   6.187   0.140  10.855
31730SOL    HW297088   6.241   0.278  10.885
31731SOL     OW97089  13.147   5.147  10.049
31731SOL    HW197090  13.070   5.091  10.040
31731SOL    HW297091  13.154   5.193   9.966
31732SOL     OW97092  11.099  11.825   6.857
31732SOL    HW197093  11.107  11.730   6.858
31732SOL    HW297094  11.093  11.847   6.764
31733SOL     OW97095   5.367   9.949   4.506
31733SOL    HW197096   5.398   9.893   4.434
31733SOL    HW297097   5.332   9.888   4.571
31734SOL     OW97098   4.420  12.505   3.715
31734SOL    HW197099   4.410  12.538   3.626
31734SOL    HW297100   4.463  12.577   3.762
31735SOL     OW97101   8.653   8.973   8.485
31735SOL    HW197102   8.679   9.012   8.568
31735SOL    HW297103   8.557   8.976   8.486
31736SOL     OW97104   3.066   1.528   7.361
31736SOL    HW197105   3.108   1.515   7.276
31736SOL    HW297106   3.007   1.602   7.349
31737SOL     OW97107   4.716   3.967  12.000
31737SOL    HW197108   4.626   3.933  12.002
31737SOL    HW297109   4.770   3.889  11.986
31738SOL     OW97110  12.738   3.628   5.125
31738SOL    HW197111  12.671   3.672   5.073
31738SOL    HW297112  12.689   3.583   5.194
31739SOL     OW97113   1.880   6.484   4.307
31739SOL    HW197114   1.873   6.428   4.384
31739SOL    HW297115   1.789   6.500   4.281
31740SOL     OW97116   4.934  10.188   2.240
31740SOL    HW197117   4.936  10.231   2.155
31740SOL    HW297118   4.934  10.260   2.304
31741SOL     OW97119   9.127   3.094   4.926
31741SOL    HW197120   9.055   3.102   4.863
31741SOL    HW297121   9.087   3.112   5.011
31742SOL     OW97122   3.146   1.719  12.487
31742SOL    HW197123   3.149   1.714  12.583
31742SOL    HW297124   3.073   1.663  12.462
31743SOL     OW97125  11.606   2.857   7.768
31743SOL    HW197126  11.691   2.894   7.792
31743SOL    HW297127  11.627   2.787   7.706
31744SOL     OW97128   9.413  11.662   7.919
31744SOL    HW197129   9.389  11.570   7.905
31744SOL    HW297130   9.507  11.665   7.905
31745SOL     OW97131   6.130   5.270   7.118
31745SOL    HW197132   6.142   5.350   7.067
31745SOL    HW297133   6.055   5.288   7.174
31746SOL     OW97134  14.872   9.703   6.421
31746SOL    HW197135   0.047   9.632   6.405
31746SOL    HW297136   0.038   9.782   6.423
31747SOL     OW97137  10.559   4.881   7.665
31747SOL    HW197138  10.535   4.873   7.758
31747SOL    HW297139  10.477   4.901   7.621
31748SOL     OW97140   1.359   3.932   8.888
31748SOL    HW197141   1.357   3.848   8.934
31748SOL    HW297142   1.371   3.997   8.957
31749SOL     OW97143   5.298   5.062   9.179
31749SOL    HW197144   5.268   5.069   9.088
31749SOL    HW297145   5.218   5.074   9.231
31750SOL     OW97146   4.190   0.437  14.703
31750SOL    HW197147   4.113   0.478  14.743
31750SOL    HW297148   4.256   0.436  14.772
31751SOL     OW97149  13.520   9.572   7.667
31751SOL    HW197150  13.551   9.598   7.753
31751SOL    HW297151  13.596   9.582   7.609
31752SOL     OW97152   2.716  14.152   9.523
31752SOL    HW197153   2.798  14.129   9.481
31752SOL    HW297154   2.693  14.075   9.575
31753SOL     OW97155  12.588   5.631  11.591
31753SOL    HW197156  12.577   5.659  11.681
31753SOL    HW297157  12.560   5.539  11.590
31754SOL     OW97158   2.591  11.824   3.382
31754SOL    HW197159   2.497  11.839   3.390
31754SOL    HW297160   2.600  11.729   3.386
31755SOL     OW97161  11.875   0.219   7.786
31755SOL    HW197162  11.789   0.180   7.805
31755SOL    HW297163  11.900   0.263   7.867
31756SOL     OW97164   1.098   4.569   9.870
31756SOL    HW197165   1.170   4.549   9.931
31756SOL    HW297166   1.046   4.489   9.867
31757SOL     OW97167   4.448   0.805  14.542
31757SOL    HW197168   4.428   0.898  14.540
31757SOL    HW297169   4.488   0.791  14.628
31758SOL     OW97170   9.198   1.013   2.286
31758SOL    HW197171   9.142   0.938   2.305
31758SOL    HW297172   9.139   1.076   2.244
31759SOL     OW97173   7.967   5.084   1.126
31759SOL    HW197174   7.933   5.041   1.047
31759SOL    HW297175   7.962   5.177   1.106
31760SOL     OW97176  12.452   0.592   4.525
31760SOL    HW197177  12.374   0.616   4.474
31760SOL    HW297178  12.418   0.539   4.597
31761SOL     OW97179   8.916   9.700   4.879
31761SOL    HW197180   8.939   9.781   4.925
31761SOL    HW297181   8.898   9.637   4.948
31762SOL     OW97182   6.427   6.264  10.488
31762SOL    HW197183   6.482   6.303  10.556
31762SOL    HW297184   6.357   6.328  10.474
31763SOL     OW97185   1.901  10.271  14.029
31763SOL    HW197186   1.850  10.254  14.109
31763SOL    HW297187   1.931  10.185  14.002
31764SOL     OW97188  10.740  11.829  12.091
31764SOL    HW197189  10.760  11.817  12.184
31764SOL    HW297190  10.671  11.765  12.073
31765SOL     OW97191   1.146   1.325   0.034
31765SOL    HW197192   1.131   1.404  14.870
31765SOL    HW297193   1.078   1.326   0.102
31766SOL     OW97194   8.741   6.214  14.803
31766SOL    HW197195   8.788   6.133  14.822
31766SOL    HW297196   8.651   6.186  14.785
31767SOL     OW97197  10.086   6.769   0.828
31767SOL    HW197198  10.149   6.762   0.756
31767SOL    HW297199  10.137   6.750   0.906
31768SOL     OW97200   8.341  14.044  10.239
31768SOL    HW197201   8.285  14.062  10.314
31768SOL    HW297202   8.403  14.118  10.237
31769SOL     OW97203   0.776  14.275   2.930
31769SOL    HW197204   0.783  14.221   2.852
31769SOL    HW297205   0.778  14.213   3.003
31770SOL     OW97206   6.810  14.069   4.564
31770SOL    HW197207   6.816  13.993   4.506
31770SOL    HW297208   6.880  14.056   4.628
31771SOL     OW97209   2.318  10.685  13.062
31771SOL    HW197210   2.339  10.651  12.975
31771SOL    HW297211   2.356  10.621  13.122
31772SOL     OW97212  10.908   9.960  12.359
31772SOL    HW197213  10.888   9.911  12.279
31772SOL    HW297214  10.937  10.046  12.328
31773SOL     OW97215   8.348  14.722   4.822
31773SOL    HW197216   8.428  14.769   4.797
31773SOL    HW297217   8.348  14.644   4.767
31774SOL     OW97218  10.502   6.314   2.137
31774SOL    HW197219  10.541   6.384   2.084
31774SOL    HW297220  10.409   6.336   2.140
31775SOL     OW97221   6.160   2.053   6.676
31775SOL    HW197222   6.235   2.049   6.734
31775SOL    HW297223   6.121   1.966   6.679
31776SOL     OW97224   6.278   5.243  10.980
31776SOL    HW197225   6.246   5.332  10.993
31776SOL    HW297226   6.280   5.231  10.885
31777SOL     OW97227  11.789  10.739  12.962
31777SOL    HW197228  11.778  10.737  13.057
31777SOL    HW297229  11.711  10.784  12.930
31778SOL     OW97230   4.928   5.172   7.933
31778SOL    HW197231   5.014   5.145   7.965
31778SOL    HW297232   4.885   5.090   7.907
31779SOL     OW97233   4.366   4.336   1.695
31779SOL    HW197234   4.391   4.376   1.779
31779SOL    HW297235   4.271   4.349   1.690
31780SOL     OW97236   4.219  11.573  11.323
31780SOL    HW197237   4.161  11.646  11.342
31780SOL    HW297238   4.167  11.495  11.340
31781SOL     OW97239   1.573   6.787  10.135
31781SOL    HW197240   1.497   6.767  10.079
31781SOL    HW297241   1.608   6.701  10.159
31782SOL     OW97242  10.664   8.884   6.437
31782SOL    HW197243  10.723   8.903   6.510
31782SOL    HW297244  10.666   8.963   6.383
31783SOL     OW97245  11.211   8.777   6.072
31783SOL    HW197246  11.172   8.704   6.024
31783SOL    HW297247  11.237   8.840   6.005
31784SOL     OW97248   1.913   2.728   8.250
31784SOL    HW197249   1.965   2.665   8.200
31784SOL    HW297250   1.977   2.788   8.287
31785SOL     OW97251   4.875   4.921  12.207
31785SOL    HW197252   4.803   4.926  12.269
31785SOL    HW297253   4.917   4.837  12.226
31786SOL     OW97254   9.259  10.291  14.837
31786SOL    HW197255   9.289  10.298   0.041
31786SOL    HW297256   9.205  10.369  14.824
31787SOL     OW97257  11.555   7.534   0.007
31787SOL    HW197258  11.622   7.518   0.074
31787SOL    HW297259  11.561   7.458  14.836
31788SOL     OW97260   7.890   4.797   7.010
31788SOL    HW197261   7.934   4.776   7.092
31788SOL    HW297262   7.867   4.889   7.018
31789SOL     OW97263   8.711  13.708   3.299
31789SOL    HW197264   8.757  13.630   3.331
31789SOL    HW297265   8.656  13.734   3.373
31790SOL     OW97266   4.492  10.582   0.371
31790SOL    HW197267   4.406  10.598   0.411
31790SOL    HW297268   4.479  10.603   0.279
31791SOL     OW97269   6.143   8.564  11.061
31791SOL    HW197270   6.147   8.655  11.090
31791SOL    HW297271   6.149   8.568  10.965
31792SOL     OW97272   6.525  12.280   9.064
31792SOL    HW197273   6.546  12.364   9.104
31792SOL    HW297274   6.537  12.294   8.970
31793SOL     OW97275  14.072   6.408  14.728
31793SOL    HW197276  14.133   6.459  14.674
31793SOL    HW297277  14.111   6.410  14.815
31794SOL     OW97278   7.334   4.346   1.216
31794SOL    HW197279   7.400   4.322   1.280
31794SOL    HW297280   7.253   4.354   1.267
31795SOL     OW97281   0.287  13.617   0.391
31795SOL    HW197282   0.359  13.555   0.376
31795SOL    HW297283   0.331  13.697   0.422
31796SOL     OW97284   0.824  10.867  11.609
31796SOL    HW197285   0.822  10.819  11.692
31796SOL    HW297286   0.908  10.912  11.609
31797SOL     OW97287  14.103   7.860   5.919
31797SOL    HW197288  14.132   7.914   5.992
31797SOL    HW297289  14.184   7.833   5.876
31798SOL     OW97290   2.733   6.818  10.119
31798SOL    HW197291   2.750   6.724  10.117
31798SOL    HW297292   2.645   6.827  10.082
31799SOL     OW97293   3.571   4.088  12.669
31799SOL    HW197294   3.495   4.032  12.656
31799SOL    HW297295   3.617   4.087  12.585
31800SOL     OW97296   4.643   5.234   2.275
31800SOL    HW197297   4.569   5.208   2.330
31800SOL    HW297298   4.608   5.304   2.220
31801SOL     OW97299   3.903  12.411   3.263
31801SOL    HW197300   3.810  12.394   3.277
31801SOL    HW297301   3.942  12.324   3.248
31802SOL     OW97302  14.780   0.749   5.301
31802SOL    HW197303  14.805   0.703   5.381
31802SOL    HW297304  14.712   0.810   5.330
31803SOL     OW97305  11.804   7.515   0.155
31803SOL    HW197306  11.788   7.426   0.123
31803SOL    HW297307  11.898   7.518   0.173
31804SOL     OW97308   2.269   6.143  12.120
31804SOL    HW197309   2.184   6.180  12.145
31804SOL    HW297310   2.254   6.104  12.034
31805SOL     OW97311  11.784   0.068   9.633
31805SOL    HW197312  11.717   0.096   9.571
31805SOL    HW297313  11.822  14.877   9.594
31806SOL     OW97314   8.383  10.400  14.095
31806SOL    HW197315   8.349  10.331  14.153
31806SOL    HW297316   8.325  10.475  14.111
31807SOL     OW97317   4.170  11.148   7.328
31807SOL    HW197318   4.213  11.191   7.254
31807SOL    HW297319   4.078  11.142   7.302
31808SOL     OW97320   6.719   0.990  14.485
31808SOL    HW197321   6.715   1.072  14.435
31808SOL    HW297322   6.809   0.961  14.477
31809SOL     OW97323  12.053  11.472  10.055
31809SOL    HW197324  12.103  11.393  10.037
31809SOL    HW297325  12.109  11.524  10.113
31810SOL     OW97326   7.665  12.879   0.617
31810SOL    HW197327   7.628  12.871   0.705
31810SOL    HW297328   7.589  12.896   0.561
31811SOL     OW97329   1.130   4.846   2.700
31811SOL    HW197330   1.201   4.875   2.758
31811SOL    HW297331   1.174   4.798   2.630
31812SOL     OW97332   0.811   0.995   6.264
31812SOL    HW197333   0.816   1.041   6.347
31812SOL    HW297334   0.882   1.032   6.211
31813SOL     OW97335   6.129   5.853  10.903
31813SOL    HW197336   6.187   5.777  10.898
31813SOL    HW297337   6.088   5.846  10.989
31814SOL     OW97338  12.596   1.748   4.816
31814SOL    HW197339  12.618   1.713   4.730
31814SOL    HW297340  12.607   1.843   4.808
31815SOL     OW97341   4.946   7.491  12.676
31815SOL    HW197342   4.925   7.543  12.753
31815SOL    HW297343   5.005   7.423  12.709
31816SOL     OW97344   8.714   0.626  11.467
31816SOL    HW197345   8.785   0.591  11.413
31816SOL    HW297346   8.750   0.628  11.556
31817SOL     OW97347  11.699   1.971   8.961
31817SOL    HW197348  11.779   1.923   8.984
31817SOL    HW297349  11.730   2.056   8.930
31818SOL     OW97350   2.986   8.190   7.119
31818SOL    HW197351   3.024   8.124   7.178
31818SOL    HW297352   3.025   8.272   7.147
31819SOL     OW97353   4.086   3.890   0.225
31819SOL    HW197354   4.055   3.969   0.181
31819SOL    HW297355   4.039   3.819   0.181
31820SOL     OW97356  13.211  14.856   2.071
31820SOL    HW197357  13.188   0.014   1.990
31820SOL    HW297358  13.165   0.018   2.139
31821SOL     OW97359  12.380   8.389  12.245
31821SOL    HW197360  12.288   8.381  12.270
31821SOL    HW297361  12.397   8.314  12.189
31822SOL     OW97362   1.919   6.652  11.593
31822SOL    HW197363   1.844   6.675  11.538
31822SOL    HW297364   1.982   6.614  11.532
31823SOL     OW97365  12.229   1.560   1.774
31823SOL    HW197366  12.244   1.507   1.852
31823SOL    HW297367  12.301   1.623   1.773
31824SOL     OW97368   6.794   0.201   0.610
31824SOL    HW197369   6.797   0.122   0.664
31824SOL    HW297370   6.885   0.232   0.609
31825SOL     OW97371   1.419  12.302   7.804
31825SOL    HW197372   1.392  12.365   7.871
31825SOL    HW297373   1.368  12.224   7.822
31826SOL     OW97374   3.288  13.201  13.921
31826SOL    HW197375   3.239  13.135  13.871
31826SOL    HW297376   3.275  13.282  13.872
31827SOL     OW97377   1.603   8.712  10.270
31827SOL    HW197378   1.557   8.751  10.345
31827SOL    HW297379   1.541   8.648  10.235
31828SOL     OW97380   5.368  12.418   2.038
31828SOL    HW197381   5.331  12.343   2.084
31828SOL    HW297382   5.305  12.488   2.053
31829SOL     OW97383  11.399   6.948   4.510
31829SOL    HW197384  11.338   6.973   4.441
31829SOL    HW297385  11.368   6.995   4.588
31830SOL     OW97386  11.529   1.560  11.912
31830SOL    HW197387  11.509   1.633  11.970
31830SOL    HW297388  11.445   1.537  11.872
31831SOL     OW97389   5.911   1.452   8.023
31831SOL    HW197390   5.988   1.484   7.976
31831SOL    HW297391   5.944   1.383   8.080
31832SOL     OW97392   9.450  14.392  10.153
31832SOL    HW197393   9.392  14.454  10.198
31832SOL    HW297394   9.537  14.411  10.187
31833SOL     OW97395  11.228   9.277  14.516
31833SOL    HW197396  11.141   9.290  14.554
31833SOL    HW297397  11.210   9.244  14.428
31834SOL     OW97398  14.010  12.748   8.588
31834SOL    HW197399  13.926  12.767   8.547
31834SOL    HW297400  14.049  12.834   8.606
31835SOL     OW97401  12.078   0.361  13.375
31835SOL    HW197402  12.077   0.392  13.284
31835SOL    HW297403  12.009   0.295  13.379
31836SOL     OW97404   7.547   1.369   6.834
31836SOL    HW197405   7.574   1.283   6.803
31836SOL    HW297406   7.513   1.413   6.755
31837SOL     OW97407   7.927   9.893   7.151
31837SOL    HW197408   7.929   9.916   7.244
31837SOL    HW297409   7.927   9.798   7.150
31838SOL     OW97410   2.224   2.673  11.845
31838SOL    HW197411   2.150   2.712  11.891
31838SOL    HW297412   2.269   2.748  11.804
31839SOL     OW97413  14.838   0.551   4.240
31839SOL    HW197414  14.757   0.548   4.291
31839SOL    HW297415  14.882   0.631   4.270
31840SOL     OW97416   5.330   8.747   0.042
31840SOL    HW197417   5.417   8.715   0.064
31840SOL    HW297418   5.270   8.686   0.084
31841SOL     OW97419  13.567   1.246   4.446
31841SOL    HW197420  13.571   1.340   4.430
31841SOL    HW297421  13.534   1.238   4.536
31842SOL     OW97422   7.405   3.840   1.443
31842SOL    HW197423   7.372   3.929   1.431
31842SOL    HW297424   7.431   3.837   1.535
31843SOL     OW97425   5.046   1.341   0.220
31843SOL    HW197426   5.039   1.433   0.196
31843SOL    HW297427   5.082   1.299   0.142
31844SOL     OW97428  13.159   1.384   5.081
31844SOL    HW197429  13.230   1.328   5.113
31844SOL    HW297430  13.203   1.454   5.032
31845SOL     OW97431   1.490  12.311   4.002
31845SOL    HW197432   1.421  12.292   4.066
31845SOL    HW297433   1.486  12.406   3.989
31846SOL     OW97434   5.090   9.943  10.216
31846SOL    HW197435   5.048   9.883  10.277
31846SOL    HW297436   5.171   9.899  10.191
31847SOL     OW97437   3.666   9.834  14.108
31847SOL    HW197438   3.629   9.746  14.105
31847SOL    HW297439   3.641   9.867  14.194
31848SOL     OW97440  12.218  10.116  12.140
31848SOL    HW197441  12.166  10.068  12.205
31848SOL    HW297442  12.178  10.093  12.056
31849SOL     OW97443   2.600  14.681   9.644
31849SOL    HW197444   2.622  14.754   9.701
31849SOL    HW297445   2.656  14.610   9.672
31850SOL     OW97446   3.260   8.624   2.746
31850SOL    HW197447   3.203   8.611   2.671
31850SOL    HW297448   3.305   8.540   2.757
31851SOL     OW97449  13.828   4.669   8.066
31851SOL    HW197450  13.909   4.701   8.028
31851SOL    HW297451  13.833   4.573   8.056
31852SOL     OW97452   2.956  14.249   7.490
31852SOL    HW197453   2.923  14.166   7.456
31852SOL    HW297454   2.890  14.277   7.553
31853SOL     OW97455   6.548  14.206  12.185
31853SOL    HW197456   6.503  14.176  12.264
31853SOL    HW297457   6.522  14.298  12.176
31854SOL     OW97458  12.426  13.362   6.507
31854SOL    HW197459  12.404  13.455   6.515
31854SOL    HW297460  12.443  13.349   6.414
31855SOL     OW97461   6.996  12.439   6.778
31855SOL    HW197462   7.030  12.375   6.840
31855SOL    HW297463   7.049  12.518   6.793
31856SOL     OW97464   6.390  10.612   8.887
31856SOL    HW197465   6.458  10.610   8.820
31856SOL    HW297466   6.407  10.535   8.942
31857SOL     OW97467   2.899   8.330   7.548
31857SOL    HW197468   2.934   8.418   7.563
31857SOL    HW297469   2.810   8.346   7.516
31858SOL     OW97470   8.944   5.025   5.980
31858SOL    HW197471   8.865   4.997   6.026
31858SOL    HW297472   8.931   5.119   5.966
31859SOL     OW97473   9.938  13.882   0.222
31859SOL    HW197474   9.941  13.933   0.302
31859SOL    HW297475   9.950  13.791   0.251
31860SOL     OW97476  10.289   8.324  12.595
31860SOL    HW197477  10.233   8.249  12.577
31860SOL    HW297478  10.255   8.394  12.540
31861SOL     OW97479   1.401   5.839   7.433
31861SOL    HW197480   1.441   5.787   7.503
31861SOL    HW297481   1.323   5.790   7.408
31862SOL     OW97482   1.229  11.440   1.590
31862SOL    HW197483   1.321  11.459   1.571
31862SOL    HW297484   1.184  11.451   1.506
31863SOL     OW97485   9.247  10.583  13.099
31863SOL    HW197486   9.174  10.524  13.082
31863SOL    HW297487   9.233  10.613  13.189
31864SOL     OW97488   3.546   3.575   2.781
31864SOL    HW197489   3.572   3.522   2.857
31864SOL    HW297490   3.597   3.656   2.790
31865SOL     OW97491   0.192  14.381   8.835
31865SOL    HW197492   0.152  14.310   8.784
31865SOL    HW297493   0.159  14.461   8.795
31866SOL     OW97494   7.732   4.118  13.123
31866SOL    HW197495   7.742   4.193  13.064
31866SOL    HW297496   7.648   4.080  13.099
31867SOL     OW97497  12.565   9.907  12.572
31867SOL    HW197498  12.660   9.897  12.575
31867SOL    HW297499  12.551  10.000  12.551
31868SOL     OW97500   9.891   1.939  14.587
31868SOL    HW197501   9.917   1.974  14.673
31868SOL    HW297502   9.972   1.913  14.546
31869SOL     OW97503   4.488  11.020   0.831
31869SOL    HW197504   4.460  10.942   0.782
31869SOL    HW297505   4.569  10.993   0.874
31870SOL     OW97506   1.883   1.045  10.193
31870SOL    HW197507   1.817   0.978  10.175
31870SOL    HW297508   1.833   1.127  10.192
31871SOL     OW97509   7.777   8.775  11.546
31871SOL    HW197510   7.841   8.802  11.612
31871SOL    HW297511   7.702   8.745  11.597
31872SOL     OW97512   4.333  14.512  12.134
31872SOL    HW197513   4.298  14.518  12.223
31872SOL    HW297514   4.325  14.420  12.111
31873SOL     OW97515   6.486   7.456  12.924
31873SOL    HW197516   6.547   7.382  12.924
31873SOL    HW297517   6.404   7.420  12.890
31874SOL     OW97518   5.480  11.636   1.397
31874SOL    HW197519   5.573  11.655   1.404
31874SOL    HW297520   5.476  11.547   1.362
31875SOL     OW97521   1.197   4.259  12.782
31875SOL    HW197522   1.112   4.295  12.807
31875SOL    HW297523   1.260   4.326  12.809
31876SOL     OW97524   7.831  13.337   0.434
31876SOL    HW197525   7.838  13.384   0.517
31876SOL    HW297526   7.904  13.371   0.381
31877SOL     OW97527   2.153   9.309  14.034
31877SOL    HW197528   2.079   9.370  14.026
31877SOL    HW297529   2.128   9.234  13.981
31878SOL     OW97530   6.390   1.859   5.892
31878SOL    HW197531   6.425   1.812   5.968
31878SOL    HW297532   6.431   1.818   5.816
31879SOL     OW97533   9.786  10.021   4.154
31879SOL    HW197534   9.695  10.036   4.179
31879SOL    HW297535   9.796  10.071   4.073
31880SOL     OW97536   7.865   1.829  13.021
31880SOL    HW197537   7.792   1.879  13.058
31880SOL    HW297538   7.833   1.739  13.017
31881SOL     OW97539   7.394   3.378  11.081
31881SOL    HW197540   7.396   3.284  11.066
31881SOL    HW297541   7.322   3.410  11.026
31882SOL     OW97542  13.895  14.885  13.224
31882SOL    HW197543  13.858  14.845  13.303
31882SOL    HW297544  13.853   0.083  13.219
31883SOL     OW97545   6.064   8.829   2.570
31883SOL    HW197546   6.149   8.865   2.543
31883SOL    HW297547   6.087   8.757   2.629
31884SOL     OW97548  10.350  11.612   4.804
31884SOL    HW197549  10.421  11.616   4.739
31884SOL    HW297550  10.299  11.535   4.778
31885SOL     OW97551  14.592  14.729   1.785
31885SOL    HW197552  14.533  14.800   1.808
31885SOL    HW297553  14.668  14.741   1.841
31886SOL     OW97554   2.233  14.562   1.392
31886SOL    HW197555   2.263  14.614   1.466
31886SOL    HW297556   2.243  14.620   1.316
31887SOL     OW97557  10.102  10.956  13.089
31887SOL    HW197558  10.197  10.953  13.095
31887SOL    HW297559  10.072  10.951  13.180
31888SOL     OW97560  10.500  11.426   8.187
31888SOL    HW197561  10.533  11.511   8.218
31888SOL    HW297562  10.564  11.398   8.121
31889SOL     OW97563   8.317   5.606   1.354
31889SOL    HW197564   8.313   5.665   1.429
31889SOL    HW297565   8.319   5.518   1.392
31890SOL     OW97566   9.104   4.437   9.436
31890SOL    HW197567   9.093   4.342   9.429
31890SOL    HW297568   9.056   4.461   9.515
31891SOL     OW97569   9.740  12.670   0.796
31891SOL    HW197570   9.688  12.591   0.809
31891SOL    HW297571   9.753  12.675   0.701
31892SOL     OW97572  12.599  10.628   3.579
31892SOL    HW197573  12.562  10.717   3.580
31892SOL    HW297574  12.522  10.571   3.571
31893SOL     OW97575  10.410   6.748  12.320
31893SOL    HW197576  10.445   6.808  12.385
31893SOL    HW297577  10.345   6.695  12.367
31894SOL     OW97578   5.007   4.305  13.644
31894SOL    HW197579   5.016   4.275  13.735
31894SOL    HW297580   4.914   4.294  13.625
31895SOL     OW97581   5.681   0.394   3.191
31895SOL    HW197582   5.603   0.344   3.216
31895SOL    HW297583   5.662   0.483   3.220
31896SOL     OW97584   2.462   4.936  14.088
31896SOL    HW197585   2.427   4.847  14.082
31896SOL    HW297586   2.470   4.953  14.182
31897SOL     OW97587   2.244  13.754   3.329
31897SOL    HW197588   2.292  13.790   3.403
31897SOL    HW297589   2.180  13.694   3.368
31898SOL     OW97590   5.877   4.329   5.393
31898SOL    HW197591   5.820   4.300   5.464
31898SOL    HW297592   5.830   4.400   5.351
31899SOL     OW97593   8.264   1.172   4.817
31899SOL    HW197594   8.229   1.219   4.893
31899SOL    HW297595   8.208   1.095   4.810
31900SOL     OW97596   9.804   5.336  10.215
31900SOL    HW197597   9.727   5.323  10.160
31900SOL    HW297598   9.781   5.296  10.299
31901SOL     OW97599  10.772  11.117   9.608
31901SOL    HW197600  10.788  11.208   9.581
31901SOL    HW297601  10.811  11.111   9.695
31902SOL     OW97602  12.474   0.187   7.822
31902SOL    HW197603  12.469   0.280   7.842
31902SOL    HW297604  12.429   0.177   7.738
31903SOL     OW97605  12.951  14.487   1.341
31903SOL    HW197606  12.894  14.558   1.371
31903SOL    HW297607  12.989  14.451   1.420
31904SOL     OW97608   5.528   4.554   4.790
31904SOL    HW197609   5.617   4.518   4.796
31904SOL    HW297610   5.474   4.493   4.840
31905SOL     OW97611  10.862  10.744  11.620
31905SOL    HW197612  10.949  10.754  11.581
31905SOL    HW297613  10.851  10.650  11.630
31906SOL     OW97614  12.053   2.878   7.254
31906SOL    HW197615  12.105   2.824   7.195
31906SOL    HW297616  12.037   2.959   7.205
31907SOL     OW97617   0.262  11.500  14.256
31907SOL    HW197618   0.175  11.490  14.295
31907SOL    HW297619   0.323  11.487  14.329
31908SOL     OW97620   6.161   7.418   3.142
31908SOL    HW197621   6.137   7.421   3.234
31908SOL    HW297622   6.215   7.496   3.128
31909SOL     OW97623   1.345  11.099  12.166
31909SOL    HW197624   1.324  11.034  12.234
31909SOL    HW297625   1.368  11.178  12.215
31910SOL     OW97626   5.267   8.333   3.273
31910SOL    HW197627   5.297   8.411   3.227
31910SOL    HW297628   5.299   8.343   3.363
31911SOL     OW97629   8.840  10.638   2.461
31911SOL    HW197630   8.932  10.622   2.442
31911SOL    HW297631   8.840  10.716   2.516
31912SOL     OW97632   2.150  12.899   4.932
31912SOL    HW197633   2.149  12.947   4.850
31912SOL    HW297634   2.175  12.810   4.908
31913SOL     OW97635  14.259   3.656  11.123
31913SOL    HW197636  14.268   3.560  11.124
31913SOL    HW297637  14.271   3.680  11.031
31914SOL     OW97638   7.966  12.610   6.704
31914SOL    HW197639   8.052  12.595   6.744
31914SOL    HW297640   7.904  12.589   6.774
31915SOL     OW97641   3.058   9.615   2.721
31915SOL    HW197642   3.091   9.624   2.810
31915SOL    HW297643   2.963   9.608   2.731
31916SOL     OW97644  14.295   4.629   3.943
31916SOL    HW197645  14.375   4.599   3.900
31916SOL    HW297646  14.231   4.634   3.872
31917SOL     OW97647  11.022   0.550   6.222
31917SOL    HW197648  10.928   0.545   6.206
31917SOL    HW297649  11.034   0.507   6.307
31918SOL     OW97650   5.197   9.407  12.639
31918SOL    HW197651   5.266   9.383  12.702
31918SOL    HW297652   5.200   9.502  12.636
31919SOL     OW97653   6.075   5.134  12.468
31919SOL    HW197654   5.998   5.182  12.438
31919SOL    HW297655   6.107   5.089  12.390
31920SOL     OW97656   1.458  12.475  10.113
31920SOL    HW197657   1.467  12.405  10.048
31920SOL    HW297658   1.487  12.554  10.068
31921SOL     OW97659   8.912   2.309   2.987
31921SOL    HW197660   8.854   2.326   3.061
31921SOL    HW297661   8.911   2.214   2.976
31922SOL     OW97662   8.059  13.771   6.440
31922SOL    HW197663   8.079  13.719   6.518
31922SOL    HW297664   7.993  13.720   6.394
31923SOL     OW97665   5.899  12.484   1.887
31923SOL    HW197666   5.895  12.428   1.964
31923SOL    HW297667   5.837  12.554   1.904
31924SOL     OW97668   7.451  10.589  13.659
31924SOL    HW197669   7.472  10.641  13.737
31924SOL    HW297670   7.374  10.631  13.623
31925SOL     OW97671  13.039  10.357   8.716
31925SOL    HW197672  13.106  10.369   8.650
31925SOL    HW297673  12.962  10.328   8.667
31926SOL     OW97674  10.829   1.325   8.923
31926SOL    HW197675  10.838   1.239   8.883
31926SOL    HW297676  10.738   1.350   8.905
31927SOL     OW97677   7.504   1.027  10.506
31927SOL    HW197678   7.501   0.936  10.534
31927SOL    HW297679   7.597   1.046  10.494
31928SOL     OW97680   3.760   2.804  14.045
31928SOL    HW197681   3.808   2.862  13.986
31928SOL    HW297682   3.725   2.735  13.988
31929SOL     OW97683  10.069   6.246   3.980
31929SOL    HW197684  10.008   6.316   3.955
31929SOL    HW297685  10.024   6.165   3.955
31930SOL     OW97686   8.490   2.134   5.321
31930SOL    HW197687   8.436   2.212   5.318
31930SOL    HW297688   8.554   2.152   5.390
31931SOL     OW97689   0.231   3.285  12.070
31931SOL    HW197690   0.303   3.240  12.026
31931SOL    HW297691   0.260   3.376  12.076
31932SOL     OW97692   2.308  12.297   0.839
31932SOL    HW197693   2.319  12.382   0.883
31932SOL    HW297694   2.397  12.262   0.834
31933SOL     OW97695  11.491   2.214   9.519
31933SOL    HW197696  11.429   2.220   9.592
31933SOL    HW297697  11.529   2.302   9.512
31934SOL     OW97698   3.578   6.315   0.038
31934SOL    HW197699   3.648   6.369   0.075
31934SOL    HW297700   3.532   6.373  14.865
31935SOL     OW97701   3.303   5.814  10.777
31935SOL    HW197702   3.302   5.824  10.872
31935SOL    HW297703   3.297   5.903  10.743
31936SOL     OW97704   1.923   3.245  14.415
31936SOL    HW197705   1.969   3.161  14.403
31936SOL    HW297706   1.991   3.304  14.449
31937SOL     OW97707   5.096   1.763  14.419
31937SOL    HW197708   5.088   1.723  14.506
31937SOL    HW297709   5.107   1.690  14.359
31938SOL     OW97710   0.981   7.218  12.201
31938SOL    HW197711   1.007   7.278  12.132
31938SOL    HW297712   0.913   7.163  12.162
31939SOL     OW97713   2.771   3.728   4.345
31939SOL    HW197714   2.795   3.802   4.402
31939SOL    HW297715   2.767   3.653   4.404
31940SOL     OW97716   1.939   8.952   0.745
31940SOL    HW197717   1.907   8.872   0.704
31940SOL    HW297718   1.895   8.955   0.830
31941SOL     OW97719   5.112   4.673   0.838
31941SOL    HW197720   5.027   4.701   0.804
31941SOL    HW297721   5.176   4.721   0.785
31942SOL     OW97722   1.967   9.303   3.145
31942SOL    HW197723   1.922   9.314   3.061
31942SOL    HW297724   1.943   9.382   3.194
31943SOL     OW97725   6.488   6.226  11.226
31943SOL    HW197726   6.479   6.222  11.131
31943SOL    HW297727   6.423   6.163  11.258
31944SOL     OW97728  13.676  14.563   8.501
31944SOL    HW197729  13.609  14.499   8.526
31944SOL    HW297730  13.664  14.636   8.561
31945SOL     OW97731   8.980   2.651  14.084
31945SOL    HW197732   8.979   2.616  13.995
31945SOL    HW297733   9.025   2.735  14.076
31946SOL     OW97734   2.104   1.131   6.941
31946SOL    HW197735   2.167   1.202   6.950
31946SOL    HW297736   2.134   1.065   7.003
31947SOL     OW97737  11.040   5.810   0.702
31947SOL    HW197738  10.989   5.775   0.629
31947SOL    HW297739  10.988   5.882   0.736
31948SOL     OW97740  14.740   5.127   1.129
31948SOL    HW197741  14.818   5.072   1.131
31948SOL    HW297742  14.771   5.215   1.150
31949SOL     OW97743   5.025   0.945   9.706
31949SOL    HW197744   5.028   1.004   9.631
31949SOL    HW297745   4.937   0.909   9.705
31950SOL     OW97746   9.690  14.136   6.481
31950SOL    HW197747   9.649  14.133   6.395
31950SOL    HW297748   9.640  14.202   6.529
31951SOL     OW97749  10.276   5.241   3.295
31951SOL    HW197750  10.260   5.167   3.354
31951SOL    HW297751  10.209   5.234   3.228
31952SOL     OW97752   3.743   9.030  11.341
31952SOL    HW197753   3.774   8.941  11.330
31952SOL    HW297754   3.674   9.023  11.408
31953SOL     OW97755  11.841   7.628  11.804
31953SOL    HW197756  11.845   7.587  11.718
31953SOL    HW297757  11.877   7.562  11.864
31954SOL     OW97758  14.663   9.243   9.839
31954SOL    HW197759  14.575   9.264   9.808
31954SOL    HW297760  14.710   9.216   9.761
31955SOL     OW97761   4.290   9.294  10.672
31955SOL    HW197762   4.288   9.347  10.752
31955SOL    HW297763   4.319   9.208  10.701
31956SOL     OW97764   4.598   1.408   7.451
31956SOL    HW197765   4.664   1.463   7.493
31956SOL    HW297766   4.542   1.379   7.523
31957SOL     OW97767   4.702   3.441  12.735
31957SOL    HW197768   4.769   3.446  12.804
31957SOL    HW297769   4.736   3.497  12.665
31958SOL     OW97770  11.518   5.899  10.353
31958SOL    HW197771  11.506   5.873  10.444
31958SOL    HW297772  11.454   5.970  10.340
31959SOL     OW97773   1.217   8.444  12.739
31959SOL    HW197774   1.159   8.369  12.724
31959SOL    HW297775   1.190   8.507  12.672
31960SOL     OW97776   9.087   3.939   7.968
31960SOL    HW197777   9.159   3.876   7.972
31960SOL    HW297778   9.008   3.887   7.974
31961SOL     OW97779   3.183   7.553   8.754
31961SOL    HW197780   3.217   7.572   8.666
31961SOL    HW297781   3.126   7.477   8.741
31962SOL     OW97782   0.320   0.477   1.960
31962SOL    HW197783   0.414   0.472   1.943
31962SOL    HW297784   0.313   0.474   2.055
31963SOL     OW97785  13.547  14.588   4.068
31963SOL    HW197786  13.625  14.581   4.012
31963SOL    HW297787  13.545  14.681   4.093
31964SOL     OW97788   0.383  12.181   1.067
31964SOL    HW197789   0.360  12.136   1.148
31964SOL    HW297790   0.468  12.221   1.084
31965SOL     OW97791   8.065  14.083  10.961
31965SOL    HW197792   8.104  14.167  10.986
31965SOL    HW297793   8.010  14.059  11.035
31966SOL     OW97794   1.146  11.965   7.573
31966SOL    HW197795   1.110  12.043   7.614
31966SOL    HW297796   1.221  11.941   7.628
31967SOL     OW97797  11.169   6.982   4.362
31967SOL    HW197798  11.112   7.005   4.288
31967SOL    HW297799  11.113   6.935   4.423
31968SOL     OW97800  12.054   8.187  12.085
31968SOL    HW197801  12.074   8.272  12.046
31968SOL    HW297802  11.963   8.196  12.115
31969SOL     OW97803   0.087   7.841   2.086
31969SOL    HW197804   0.075   7.936   2.082
31969SOL    HW297805   0.056   7.816   2.173
31970SOL     OW97806   2.694  13.680   9.889
31970SOL    HW197807   2.704  13.590   9.858
31970SOL    HW297808   2.623  13.676   9.953
31971SOL     OW97809   9.180   1.701   4.849
31971SOL    HW197810   9.148   1.768   4.790
31971SOL    HW297811   9.272   1.689   4.824
31972SOL     OW97812  14.122  11.975  10.721
31972SOL    HW197813  14.172  11.903  10.759
31972SOL    HW297814  14.105  11.947  10.630
31973SOL     OW97815   0.392   4.151  14.099
31973SOL    HW197816   0.419   4.064  14.129
31973SOL    HW297817   0.329   4.181  14.164
31974SOL     OW97818  12.203   4.738  12.732
31974SOL    HW197819  12.131   4.729  12.795
31974SOL    HW297820  12.227   4.648  12.710
31975SOL     OW97821   7.416   6.973   5.346
31975SOL    HW197822   7.448   7.016   5.266
31975SOL    HW297823   7.336   7.020   5.369
31976SOL     OW97824   8.465   8.427  13.255
31976SOL    HW197825   8.445   8.487  13.184
31976SOL    HW297826   8.526   8.475  13.311
31977SOL     OW97827   6.559   6.700   1.046
31977SOL    HW197828   6.543   6.699   1.140
31977SOL    HW297829   6.629   6.636   1.033
31978SOL     OW97830  12.976  10.652   9.249
31978SOL    HW197831  12.941  10.645   9.338
31978SOL    HW297832  13.015  10.567   9.231
31979SOL     OW97833  12.099  11.735   7.702
31979SOL    HW197834  12.019  11.783   7.724
31979SOL    HW297835  12.139  11.716   7.787
31980SOL     OW97836  10.403   3.331  14.307
31980SOL    HW197837  10.431   3.304  14.220
31980SOL    HW297838  10.341   3.403  14.291
31981SOL     OW97839  10.276   8.510   6.235
31981SOL    HW197840  10.257   8.465   6.153
31981SOL    HW297841  10.203   8.570   6.247
31982SOL     OW97842  13.745   8.436   7.377
31982SOL    HW197843  13.725   8.347   7.347
31982SOL    HW297844  13.676   8.490   7.339
31983SOL     OW97845  13.688  14.819  11.464
31983SOL    HW197846  13.663  14.867  11.543
31983SOL    HW297847  13.628  14.744  11.462
31984SOL     OW97848  13.787  10.369   3.889
31984SOL    HW197849  13.769  10.311   3.963
31984SOL    HW297850  13.709  10.424   3.882
31985SOL     OW97851  14.770  10.093   1.593
31985SOL    HW197852  14.843  10.130   1.643
31985SOL    HW297853  14.806  10.082   1.505
31986SOL     OW97854   2.957   8.882   5.478
31986SOL    HW197855   2.889   8.837   5.529
31986SOL    HW297856   3.015   8.812   5.450
31987SOL     OW97857  13.242   9.792   9.708
31987SOL    HW197858  13.206   9.852   9.644
31987SOL    HW297859  13.194   9.710   9.695
31988SOL     OW97860   1.108   8.016   5.295
31988SOL    HW197861   1.104   7.933   5.248
31988SOL    HW297862   1.031   8.015   5.352
31989SOL     OW97863  10.241  10.286   3.111
31989SOL    HW197864  10.175  10.334   3.161
31989SOL    HW297865  10.202  10.275   3.025
31990SOL     OW97866  12.584   5.305   1.559
31990SOL    HW197867  12.521   5.376   1.541
31990SOL    HW297868  12.598   5.309   1.653
31991SOL     OW97869   8.721  12.949   4.414
31991SOL    HW197870   8.807  12.913   4.390
31991SOL    HW297871   8.719  13.034   4.371
31992SOL     OW97872  11.616   4.410   1.588
31992SOL    HW197873  11.551   4.452   1.644
31992SOL    HW297874  11.589   4.318   1.585
31993SOL     OW97875  12.420  12.957   9.636
31993SOL    HW197876  12.362  12.971   9.711
31993SOL    HW297877  12.377  12.887   9.586
31994SOL     OW97878   2.017   9.383  12.031
31994SOL    HW197879   2.019   9.351  12.121
31994SOL    HW297880   2.047   9.309  11.978
31995SOL     OW97881   4.265  13.357  11.614
31995SOL    HW197882   4.224  13.389  11.533
31995SOL    HW297883   4.278  13.435  11.667
31996SOL     OW97884  12.733  12.919  13.300
31996SOL    HW197885  12.787  12.946  13.226
31996SOL    HW297886  12.665  12.863  13.262
31997SOL     OW97887  10.170   6.713   0.051
31997SOL    HW197888  10.240   6.668   0.004
31997SOL    HW297889  10.139   6.649   0.114
31998SOL     OW97890   8.128   1.974   1.740
31998SOL    HW197891   8.166   1.987   1.653
31998SOL    HW297892   8.130   2.061   1.780
31999SOL     OW97893   2.605   8.302   4.765
31999SOL    HW197894   2.562   8.272   4.685
31999SOL    HW297895   2.534   8.334   4.821
32000SOL     OW97896   3.561   0.534   1.108
32000SOL    HW197897   3.622   0.512   1.178
32000SOL    HW297898   3.592   0.484   1.032
32001SOL     OW97899  12.553   3.450   2.531
32001SOL    HW197900  12.497   3.457   2.454
32001SOL    HW297901  12.492   3.450   2.605
32002SOL     OW97902   8.688   2.401   8.422
32002SOL    HW197903   8.747   2.426   8.351
32002SOL    HW297904   8.720   2.451   8.498
32003SOL     OW97905  12.153   9.534   2.329
32003SOL    HW197906  12.124   9.611   2.377
32003SOL    HW297907  12.200   9.481   2.394
32004SOL     OW97908   7.250   8.243  10.626
32004SOL    HW197909   7.300   8.164  10.608
32004SOL    HW297910   7.315   8.307  10.653
32005SOL     OW97911   1.553   1.616  10.201
32005SOL    HW197912   1.627   1.563  10.230
32005SOL    HW297913   1.591   1.683  10.146
32006SOL     OW97914   2.056   3.398   2.681
32006SOL    HW197915   2.017   3.321   2.723
32006SOL    HW297916   2.082   3.367   2.595
32007SOL     OW97917   2.226  12.211   5.597
32007SOL    HW197918   2.286  12.192   5.670
32007SOL    HW297919   2.139  12.206   5.636
32008SOL     OW97920  11.857   0.236   6.441
32008SOL    HW197921  11.786   0.256   6.380
32008SOL    HW297922  11.872   0.317   6.489
32009SOL     OW97923  14.873  14.588   7.458
32009SOL    HW197924  14.845  14.637   7.381
32009SOL    HW297925   0.076  14.615   7.472
32010SOL     OW97926   6.752  10.668  10.595
32010SOL    HW197927   6.688  10.737  10.577
32010SOL    HW297928   6.700  10.598  10.635
32011SOL     OW97929   7.689   9.870  13.199
32011SOL    HW197930   7.626   9.933  13.233
32011SOL    HW297931   7.649   9.837  13.119
32012SOL     OW97932   6.777   1.445   0.949
32012SOL    HW197933   6.867   1.465   0.977
32012SOL    HW297934   6.770   1.350   0.959
32013SOL     OW97935   7.506   5.892   2.096
32013SOL    HW197936   7.556   5.931   2.168
32013SOL    HW297937   7.510   5.956   2.025
32014SOL     OW97938   4.084   6.316  10.064
32014SOL    HW197939   4.039   6.260  10.128
32014SOL    HW297940   4.168   6.337  10.104
32015SOL     OW97941   6.120  13.003   4.793
32015SOL    HW197942   6.134  12.909   4.780
32015SOL    HW297943   6.200  13.033   4.836
32016SOL     OW97944   8.265   1.070  13.915
32016SOL    HW197945   8.275   1.040  14.005
32016SOL    HW297946   8.173   1.055  13.895
32017SOL     OW97947   6.209   4.708   9.606
32017SOL    HW197948   6.118   4.678   9.599
32017SOL    HW297949   6.213   4.752   9.691
32018SOL     OW97950   6.889   3.473   1.430
32018SOL    HW197951   6.806   3.496   1.390
32018SOL    HW297952   6.866   3.421   1.507
32019SOL     OW97953   0.865   9.827   2.492
32019SOL    HW197954   0.778   9.843   2.527
32019SOL    HW297955   0.863   9.736   2.462
32020SOL     OW97956  10.722   4.368  10.525
32020SOL    HW197957  10.749   4.292  10.576
32020SOL    HW297958  10.704   4.333  10.438
32021SOL     OW97959  11.456  10.423  10.834
32021SOL    HW197960  11.369  10.415  10.794
32021SOL    HW297961  11.508  10.470  10.768
32022SOL     OW97962   5.599   2.948   7.531
32022SOL    HW197963   5.555   2.971   7.450
32022SOL    HW297964   5.582   3.022   7.590
32023SOL     OW97965   3.640  12.835   6.707
32023SOL    HW197966   3.618  12.925   6.681
32023SOL    HW297967   3.709  12.844   6.772
32024SOL     OW97968  10.126  13.864   3.681
32024SOL    HW197969  10.056  13.827   3.626
32024SOL    HW297970  10.086  13.874   3.767
32025SOL     OW97971   7.879   9.347   2.615
32025SOL    HW197972   7.879   9.259   2.652
32025SOL    HW297973   7.842   9.337   2.528
32026SOL     OW97974   4.318   0.824   7.914
32026SOL    HW197975   4.271   0.886   7.970
32026SOL    HW297976   4.301   0.854   7.825
32027SOL     OW97977   3.873  12.793   9.761
32027SOL    HW197978   3.866  12.887   9.748
32027SOL    HW297979   3.876  12.781   9.856
32028SOL     OW97980  11.157   8.632   5.286
32028SOL    HW197981  11.139   8.563   5.350
32028SOL    HW297982  11.198   8.702   5.336
32029SOL     OW97983   2.101   6.064  11.827
32029SOL    HW197984   2.088   6.020  11.743
32029SOL    HW297985   2.041   6.138  11.825
32030SOL     OW97986   8.868   5.380   8.040
32030SOL    HW197987   8.915   5.427   8.109
32030SOL    HW297988   8.873   5.438   7.964
32031SOL     OW97989  12.238   3.740  13.160
32031SOL    HW197990  12.182   3.816  13.142
32031SOL    HW297991  12.205   3.672  13.101
32032SOL     OW97992   0.926   2.724   9.242
32032SOL    HW197993   0.864   2.764   9.181
32032SOL    HW297994   0.878   2.720   9.325
32033SOL     OW97995  11.505   5.619   4.101
32033SOL    HW197996  11.571   5.618   4.170
32033SOL    HW297997  11.439   5.556   4.129
32034SOL     OW97998   9.880  13.294   1.735
32034SOL    HW197999   9.918  13.360   1.792
32034SOL    HW298000   9.786  13.302   1.749
32035SOL     OW98001  12.110  14.044  12.354
32035SOL    HW198002  12.178  14.010  12.297
32035SOL    HW298003  12.154  14.110  12.407
32036SOL     OW98004  12.354   7.319  13.067
32036SOL    HW198005  12.287   7.384  13.047
32036SOL    HW298006  12.393   7.349  13.149
32037SOL     OW98007   1.755   3.494   3.552
32037SOL    HW198008   1.739   3.521   3.642
32037SOL    HW298009   1.734   3.401   3.550
32038SOL     OW98010   4.959   4.340  10.066
32038SOL    HW198011   5.032   4.359  10.126
32038SOL    HW298012   4.952   4.418  10.011
32039SOL     OW98013  10.348   3.633  13.148
32039SOL    HW198014  10.272   3.611  13.094
32039SOL    HW298015  10.422   3.632  13.087
32040SOL     OW98016   5.895   7.961   9.159
32040SOL    HW198017   5.868   7.945   9.069
32040SOL    HW298018   5.965   7.898   9.175
32041SOL     OW98019   6.715   1.684   6.217
32041SOL    HW198020   6.685   1.593   6.217
32041SOL    HW298021   6.798   1.682   6.170
32042SOL     OW98022   6.925   4.406  11.700
32042SOL    HW198023   6.897   4.410  11.791
32042SOL    HW298024   6.859   4.353  11.657
32043SOL     OW98025   5.009   4.063   0.786
32043SOL    HW198026   5.067   4.133   0.817
32043SOL    HW298027   4.989   4.013   0.865
32044SOL     OW98028   2.720   4.169   5.788
32044SOL    HW198029   2.656   4.123   5.842
32044SOL    HW298030   2.791   4.192   5.848
32045SOL     OW98031   0.902   0.747   9.267
32045SOL    HW198032   0.886   0.670   9.321
32045SOL    HW298033   0.875   0.721   9.179
32046SOL     OW98034   6.801  10.977   4.427
32046SOL    HW198035   6.884  10.930   4.420
32046SOL    HW298036   6.800  11.011   4.516
32047SOL     OW98037   6.947  12.503  14.328
32047SOL    HW198038   6.977  12.493  14.238
32047SOL    HW298039   7.026  12.529  14.376
32048SOL     OW98040  12.033   2.878  11.473
32048SOL    HW198041  12.081   2.959  11.453
32048SOL    HW298042  11.944   2.907  11.490
32049SOL     OW98043   4.329  10.876   1.197
32049SOL    HW198044   4.401  10.924   1.156
32049SOL    HW298045   4.372  10.808   1.249
32050SOL     OW98046  11.215   6.947   2.191
32050SOL    HW198047  11.146   6.887   2.220
32050SOL    HW298048  11.195   7.030   2.234
32051SOL     OW98049  12.541  11.176  12.286
32051SOL    HW198050  12.457  11.212  12.313
32051SOL    HW298051  12.603  11.210  12.350
32052SOL     OW98052  11.470   6.967   7.632
32052SOL    HW198053  11.453   6.877   7.603
32052SOL    HW298054  11.557   6.965   7.670
32053SOL     OW98055   1.435   8.736  12.812
32053SOL    HW198056   1.491   8.811  12.794
32053SOL    HW298057   1.449   8.678  12.737
32054SOL     OW98058   4.817   8.086   8.430
32054SOL    HW198059   4.822   7.994   8.403
32054SOL    HW298060   4.774   8.130   8.357
32055SOL     OW98061  11.408   3.082   7.842
32055SOL    HW198062  11.460   3.006   7.814
32055SOL    HW298063  11.420   3.146   7.772
32056SOL     OW98064   1.106   0.838   5.871
32056SOL    HW198065   1.043   0.768   5.852
32056SOL    HW298066   1.076   0.874   5.955
32057SOL     OW98067   1.747  11.698   4.978
32057SOL    HW198068   1.818  11.754   5.009
32057SOL    HW298069   1.669  11.754   4.982
32058SOL     OW98070   2.880   4.591   5.733
32058SOL    HW198071   2.829   4.672   5.739
32058SOL    HW298072   2.943   4.597   5.805
32059SOL     OW98073  13.927   3.997  12.154
32059SOL    HW198074  13.906   3.938  12.082
32059SOL    HW298075  13.995   3.952  12.203
32060SOL     OW98076   8.916   5.627  10.330
32060SOL    HW198077   8.946   5.701  10.277
32060SOL    HW298078   8.914   5.553  10.270
32061SOL     OW98079   2.952   7.854   7.830
32061SOL    HW198080   2.940   7.877   7.737
32061SOL    HW298081   2.870   7.882   7.872
32062SOL     OW98082   6.537   0.165   9.423
32062SOL    HW198083   6.570   0.229   9.359
32062SOL    HW298084   6.442   0.179   9.424
32063SOL     OW98085   5.297  11.074   4.500
32063SOL    HW198086   5.327  10.984   4.488
32063SOL    HW298087   5.375  11.127   4.488
32064SOL     OW98088   8.779   1.704   7.900
32064SOL    HW198089   8.801   1.673   7.813
32064SOL    HW298090   8.832   1.651   7.959
32065SOL     OW98091  11.302  11.668  11.563
32065SOL    HW198092  11.343  11.721  11.494
32065SOL    HW298093  11.245  11.729  11.609
32066SOL     OW98094   9.323   2.366  14.534
32066SOL    HW198095   9.233   2.375  14.566
32066SOL    HW298096   9.321   2.287  14.480
32067SOL     OW98097   5.576  10.274   7.960
32067SOL    HW198098   5.649  10.278   8.022
32067SOL    HW298099   5.530  10.193   7.983
32068SOL     OW98100   6.222   5.187  10.731
32068SOL    HW198101   6.159   5.128  10.773
32068SOL    HW298102   6.180   5.211  10.648
32069SOL     OW98103  14.656  10.259   7.744
32069SOL    HW198104  14.730  10.221   7.697
32069SOL    HW298105  14.587  10.193   7.737
32070SOL     OW98106  11.721   5.218  10.939
32070SOL    HW198107  11.665   5.200  10.863
32070SOL    HW298108  11.717   5.137  10.991
32071SOL     OW98109   6.908  12.120  10.698
32071SOL    HW198110   6.909  12.026  10.714
32071SOL    HW298111   6.854  12.155  10.769
32072SOL     OW98112  12.175  10.561   6.866
32072SOL    HW198113  12.229  10.604   6.800
32072SOL    HW298114  12.125  10.632   6.907
32073SOL     OW98115   1.630   7.159  12.685
32073SOL    HW198116   1.560   7.103  12.719
32073SOL    HW298117   1.587   7.243  12.669
32074SOL     OW98118   2.423   2.078  14.325
32074SOL    HW198119   2.400   1.987  14.305
32074SOL    HW298120   2.455   2.114  14.243
32075SOL     OW98121   7.903   1.306   1.889
32075SOL    HW198122   7.899   1.277   1.980
32075SOL    HW298123   7.822   1.275   1.849
32076SOL     OW98124  12.023   2.593  10.067
32076SOL    HW198125  12.030   2.684  10.093
32076SOL    HW298126  12.070   2.587   9.983
32077SOL     OW98127   3.036   6.542   1.304
32077SOL    HW198128   3.035   6.619   1.362
32077SOL    HW298129   3.115   6.553   1.252
32078SOL     OW98130   4.222   4.531  13.556
32078SOL    HW198131   4.273   4.575  13.488
32078SOL    HW298132   4.131   4.545  13.530
32079SOL     OW98133   1.854   0.269  11.698
32079SOL    HW198134   1.845   0.181  11.661
32079SOL    HW298135   1.900   0.255  11.781
32080SOL     OW98136  13.205   5.964   4.111
32080SOL    HW198137  13.116   5.929   4.113
32080SOL    HW298138  13.227   5.979   4.203
32081SOL     OW98139   6.652   9.037   0.469
32081SOL    HW198140   6.676   9.123   0.434
32081SOL    HW298141   6.582   9.054   0.531
32082SOL     OW98142   0.797   6.259   5.132
32082SOL    HW198143   0.881   6.233   5.095
32082SOL    HW298144   0.811   6.257   5.227
32083SOL     OW98145   7.241   5.293   0.237
32083SOL    HW198146   7.277   5.205   0.234
32083SOL    HW298147   7.185   5.299   0.159
32084SOL     OW98148   2.719   8.776   9.511
32084SOL    HW198149   2.715   8.753   9.604
32084SOL    HW298150   2.750   8.697   9.468
32085SOL     OW98151   9.401   5.431   8.802
32085SOL    HW198152   9.428   5.358   8.857
32085SOL    HW298153   9.482   5.483   8.791
32086SOL     OW98154  10.343   5.756  11.151
32086SOL    HW198155  10.258   5.716  11.128
32086SOL    HW298156  10.350   5.832  11.093
32087SOL     OW98157   6.738  14.731   5.458
32087SOL    HW198158   6.652  14.717   5.419
32087SOL    HW298159   6.749  14.658   5.519
32088SOL     OW98160  10.498   7.855   3.670
32088SOL    HW198161  10.464   7.883   3.755
32088SOL    HW298162  10.471   7.924   3.609
32089SOL     OW98163   1.582   0.896   1.390
32089SOL    HW198164   1.552   0.938   1.470
32089SOL    HW298165   1.574   0.802   1.408
32090SOL     OW98166   3.403  12.996  13.050
32090SOL    HW198167   3.374  13.069  12.996
32090SOL    HW298168   3.385  12.918  12.997
32091SOL     OW98169  10.157   7.450   6.919
32091SOL    HW198170  10.065   7.471   6.900
32091SOL    HW298171  10.204   7.472   6.838
32092SOL     OW98172  10.206   5.351  14.491
32092SOL    HW198173  10.138   5.410  14.523
32092SOL    HW298174  10.174   5.322  14.405
32093SOL     OW98175  11.320  14.038  13.573
32093SOL    HW198176  11.394  13.991  13.610
32093SOL    HW298177  11.243  13.998  13.613
32094SOL     OW98178   8.529   2.437  14.082
32094SOL    HW198179   8.509   2.367  14.145
32094SOL    HW298180   8.585   2.396  14.017
32095SOL     OW98181   8.320  10.416  11.426
32095SOL    HW198182   8.374  10.461  11.360
32095SOL    HW298183   8.267  10.486  11.464
32096SOL     OW98184  10.809  11.005   2.419
32096SOL    HW198185  10.865  11.049   2.354
32096SOL    HW298186  10.756  10.944   2.367
32097SOL     OW98187   4.818   5.822   0.143
32097SOL    HW198188   4.832   5.914   0.123
32097SOL    HW298189   4.899   5.778   0.116
32098SOL     OW98190   3.732  11.585   3.509
32098SOL    HW198191   3.816  11.623   3.485
32098SOL    HW298192   3.709  11.529   3.434
32099SOL     OW98193   4.183   1.984   4.277
32099SOL    HW198194   4.106   1.990   4.219
32099SOL    HW298195   4.231   1.909   4.244
32100SOL     OW98196   8.425   3.265   5.708
32100SOL    HW198197   8.408   3.352   5.672
32100SOL    HW298198   8.430   3.278   5.802
32101SOL     OW98199   8.000  11.198   9.757
32101SOL    HW198200   7.970  11.122   9.707
32101SOL    HW298201   8.093  11.205   9.738
32102SOL     OW98202  10.508   0.369   6.473
32102SOL    HW198203  10.491   0.357   6.567
32102SOL    HW298204  10.590   0.323   6.457
32103SOL     OW98205  11.494  13.262   3.443
32103SOL    HW198206  11.469  13.253   3.535
32103SOL    HW298207  11.505  13.172   3.412
32104SOL     OW98208  10.920   9.148  12.277
32104SOL    HW198209  10.952   9.229  12.315
32104SOL    HW298210  10.993   9.116  12.224
32105SOL     OW98211   6.254  13.203  13.855
32105SOL    HW198212   6.166  13.223  13.885
32105SOL    HW298213   6.311  13.259  13.908
32106SOL     OW98214  11.516  10.335   4.612
32106SOL    HW198215  11.545  10.248   4.585
32106SOL    HW298216  11.438  10.351   4.559
32107SOL     OW98217   0.625   3.345   7.754
32107SOL    HW198218   0.629   3.257   7.714
32107SOL    HW298219   0.533   3.371   7.743
32108SOL     OW98220   0.154  12.209   1.480
32108SOL    HW198221   0.147  12.276   1.548
32108SOL    HW298222   0.077  12.153   1.494
32109SOL     OW98223   3.530   9.232   4.648
32109SOL    HW198224   3.485   9.301   4.598
32109SOL    HW298225   3.489   9.236   4.735
32110SOL     OW98226   5.702   8.056   4.398
32110SOL    HW198227   5.647   8.039   4.474
32110SOL    HW298228   5.789   8.077   4.434
32111SOL     OW98229  11.704  10.549  14.739
32111SOL    HW198230  11.775  10.484  14.739
32111SOL    HW298231  11.624  10.497  14.749
32112SOL     OW98232   7.374   8.243   3.230
32112SOL    HW198233   7.289   8.265   3.192
32112SOL    HW298234   7.364   8.263   3.323
32113SOL     OW98235  14.442   0.948  10.052
32113SOL    HW198236  14.437   0.960  10.147
32113SOL    HW298237  14.536   0.945  10.034
32114SOL     OW98238   4.556  10.864   8.913
32114SOL    HW198239   4.611  10.939   8.892
32114SOL    HW298240   4.543  10.869   9.007
32115SOL     OW98241  13.400  11.315   6.371
32115SOL    HW198242  13.313  11.276   6.368
32115SOL    HW298243  13.401  11.376   6.297
32116SOL     OW98244   4.527  10.184   4.414
32116SOL    HW198245   4.497  10.262   4.367
32116SOL    HW298246   4.545  10.215   4.503
32117SOL     OW98247   6.298   7.454   6.317
32117SOL    HW198248   6.331   7.543   6.327
32117SOL    HW298249   6.205   7.465   6.298
32118SOL     OW98250   6.036   8.751  14.832
32118SOL    HW198251   6.058   8.844  14.845
32118SOL    HW298252   6.119   8.709  14.811
32119SOL     OW98253  11.958  14.227   5.628
32119SOL    HW198254  11.999  14.201   5.710
32119SOL    HW298255  11.909  14.307   5.651
32120SOL     OW98256   5.967  13.218   1.579
32120SOL    HW198257   5.900  13.286   1.576
32120SOL    HW298258   5.920  13.136   1.567
32121SOL     OW98259   5.620  10.077  10.743
32121SOL    HW198260   5.679  10.002  10.742
32121SOL    HW298261   5.543  10.045  10.791
32122SOL     OW98262   7.391  11.416  13.762
32122SOL    HW198263   7.415  11.446  13.675
32122SOL    HW298264   7.460  11.451  13.819
32123SOL     OW98265   0.162   2.377   6.103
32123SOL    HW198266   0.222   2.394   6.031
32123SOL    HW298267   0.111   2.458   6.112
32124SOL     OW98268  13.932   3.615   9.390
32124SOL    HW198269  13.871   3.556   9.434
32124SOL    HW298270  14.009   3.617   9.447
32125SOL     OW98271  11.981   2.738   0.194
32125SOL    HW198272  11.928   2.774   0.123
32125SOL    HW298273  12.050   2.689   0.151
32126SOL     OW98274   3.980   0.088   4.516
32126SOL    HW198275   3.928   0.055   4.442
32126SOL    HW298276   4.071   0.083   4.485
32127SOL     OW98277   6.832  12.180   3.527
32127SOL    HW198278   6.752  12.232   3.535
32127SOL    HW298279   6.811  12.097   3.569
32128SOL     OW98280   0.818   5.779   1.750
32128SOL    HW198281   0.844   5.692   1.783
32128SOL    HW298282   0.737   5.764   1.703
32129SOL     OW98283  10.190   6.270   6.787
32129SOL    HW198284  10.145   6.185   6.791
32129SOL    HW298285  10.279   6.251   6.817
32130SOL     OW98286  11.076   8.695   2.563
32130SOL    HW198287  10.981   8.695   2.555
32130SOL    HW298288  11.092   8.717   2.655
32131SOL     OW98289   9.780   8.886   5.726
32131SOL    HW198290   9.722   8.959   5.747
32131SOL    HW298291   9.760   8.819   5.791
32132SOL     OW98292   0.079   4.197   6.396
32132SOL    HW198293   0.126   4.232   6.321
32132SOL    HW298294   0.049   4.110   6.368
32133SOL     OW98295  10.261  12.193   4.151
32133SOL    HW198296  10.293  12.171   4.063
32133SOL    HW298297  10.178  12.144   4.158
32134SOL     OW98298  10.719   0.504   7.213
32134SOL    HW198299  10.756   0.551   7.288
32134SOL    HW298300  10.656   0.566   7.175
32135SOL     OW98301   6.531  10.292  12.505
32135SOL    HW198302   6.623  10.271  12.518
32135SOL    HW298303   6.502  10.327  12.590
32136SOL     OW98304  12.096   5.976   3.766
32136SOL    HW198305  12.191   5.965   3.761
32136SOL    HW298306  12.081   6.068   3.742
32137SOL     OW98307   6.631  13.791  11.536
32137SOL    HW198308   6.539  13.789  11.563
32137SOL    HW298309   6.664  13.703  11.554
32138SOL     OW98310   3.797   1.737   3.528
32138SOL    HW198311   3.709   1.725   3.493
32138SOL    HW298312   3.836   1.804   3.472
32139SOL     OW98313   5.837   5.813   4.059
32139SOL    HW198314   5.790   5.867   3.995
32139SOL    HW298315   5.822   5.856   4.143
32140SOL     OW98316   3.612  10.187   2.761
32140SOL    HW198317   3.617  10.092   2.765
32140SOL    HW298318   3.611  10.207   2.668
32141SOL     OW98319   5.431   5.677   1.362
32141SOL    HW198320   5.450   5.588   1.391
32141SOL    HW298321   5.403   5.668   1.271
32142SOL     OW98322   0.024  13.519  14.004
32142SOL    HW198323  14.862  13.533  14.085
32142SOL    HW298324   0.060  13.606  13.983
32143SOL     OW98325   1.657   9.501   3.700
32143SOL    HW198326   1.716   9.528   3.770
32143SOL    HW298327   1.707   9.438   3.648
32144SOL     OW98328   8.765   0.964   5.114
32144SOL    HW198329   8.675   0.934   5.124
32144SOL    HW298330   8.789   0.999   5.200
32145SOL     OW98331   5.919   5.837   6.860
32145SOL    HW198332   5.856   5.850   6.931
32145SOL    HW298333   5.865   5.827   6.782
32146SOL     OW98334  10.172   2.582   2.082
32146SOL    HW198335  10.120   2.570   2.162
32146SOL    HW298336  10.263   2.577   2.112
32147SOL     OW98337  13.821  10.152   7.944
32147SOL    HW198338  13.798  10.235   7.986
32147SOL    HW298339  13.911  10.164   7.915
32148SOL     OW98340  10.895   1.493   9.616
32148SOL    HW198341  10.967   1.530   9.566
32148SOL    HW298342  10.817   1.534   9.580
32149SOL     OW98343   7.357   5.181   4.606
32149SOL    HW198344   7.324   5.225   4.528
32149SOL    HW298345   7.355   5.088   4.584
32150SOL     OW98346  13.866   3.988   9.905
32150SOL    HW198347  13.868   3.894   9.890
32150SOL    HW298348  13.926   4.003   9.978
32151SOL     OW98349   8.535   3.246   4.987
32151SOL    HW198350   8.506   3.167   4.942
32151SOL    HW298351   8.454   3.292   5.011
32152SOL     OW98352   6.967   0.519   1.761
32152SOL    HW198353   6.897   0.510   1.825
32152SOL    HW298354   7.047   0.499   1.810
32153SOL     OW98355   5.425   8.842  11.299
32153SOL    HW198356   5.393   8.932  11.296
32153SOL    HW298357   5.350   8.789  11.274
32154SOL     OW98358   9.226   5.396  12.554
32154SOL    HW198359   9.210   5.478  12.508
32154SOL    HW298360   9.188   5.328  12.498
32155SOL     OW98361  14.805   8.107   6.631
32155SOL    HW198362  14.855   8.050   6.689
32155SOL    HW298363  14.830   8.080   6.543
32156SOL     OW98364   1.041   9.306   6.622
32156SOL    HW198365   0.962   9.356   6.643
32156SOL    HW298366   1.012   9.215   6.620
32157SOL     OW98367  12.403  12.058  13.315
32157SOL    HW198368  12.444  12.115  13.250
32157SOL    HW298369  12.391  11.975  13.270
32158SOL     OW98370   2.422   0.504   3.258
32158SOL    HW198371   2.375   0.482   3.178
32158SOL    HW298372   2.399   0.434   3.319
32159SOL     OW98373   4.638   0.183  11.442
32159SOL    HW198374   4.708   0.120  11.425
32159SOL    HW298375   4.595   0.151  11.521
32160SOL     OW98376   8.837   9.187   2.073
32160SOL    HW198377   8.765   9.231   2.027
32160SOL    HW298378   8.852   9.107   2.023
32161SOL     OW98379   7.240   6.038   1.543
32161SOL    HW198380   7.198   6.096   1.607
32161SOL    HW298381   7.333   6.046   1.561
32162SOL     OW98382   2.539   0.404   7.728
32162SOL    HW198383   2.533   0.421   7.634
32162SOL    HW298384   2.449   0.412   7.759
32163SOL     OW98385   2.730   3.523  11.462
32163SOL    HW198386   2.731   3.527  11.366
32163SOL    HW298387   2.820   3.500  11.486
32164SOL     OW98388   3.745   8.292   2.816
32164SOL    HW198389   3.678   8.229   2.843
32164SOL    HW298390   3.805   8.297   2.890
32165SOL     OW98391   8.083   5.362   1.377
32165SOL    HW198392   8.018   5.384   1.444
32165SOL    HW298393   8.077   5.433   1.313
32166SOL     OW98394  11.811   2.722  14.305
32166SOL    HW198395  11.799   2.814  14.327
32166SOL    HW298396  11.845   2.722  14.216
32167SOL     OW98397  10.335   8.733  12.838
32167SOL    HW198398  10.326   8.797  12.768
32167SOL    HW298399  10.246   8.701  12.853
32168SOL     OW98400   5.230  12.134  12.530
32168SOL    HW198401   5.204  12.226  12.524
32168SOL    HW298402   5.192  12.104  12.612
32169SOL     OW98403   3.976   8.846  11.984
32169SOL    HW198404   4.023   8.920  12.022
32169SOL    HW298405   3.976   8.779  12.053
32170SOL     OW98406  12.026  12.972   3.183
32170SOL    HW198407  12.057  13.058   3.210
32170SOL    HW298408  12.104  12.927   3.152
32171SOL     OW98409   3.092   4.554   5.992
32171SOL    HW198410   3.114   4.637   5.950
32171SOL    HW298411   3.021   4.576   6.053
32172SOL     OW98412   2.184   6.293  12.921
32172SOL    HW198413   2.275   6.321  12.915
32172SOL    HW298414   2.187   6.198  12.909
32173SOL     OW98415   6.119   5.395   3.595
32173SOL    HW198416   6.066   5.318   3.616
32173SOL    HW298417   6.091   5.461   3.658
32174SOL     OW98418   0.316   2.309   9.764
32174SOL    HW198419   0.396   2.261   9.788
32174SOL    HW298420   0.343   2.365   9.691
32175SOL     OW98421   8.672  14.085   2.871
32175SOL    HW198422   8.602  14.143   2.901
32175SOL    HW298423   8.710  14.050   2.951
32176SOL     OW98424  14.811   3.542   1.333
32176SOL    HW198425  14.719   3.539   1.307
32176SOL    HW298426  14.857   3.496   1.263
32177SOL     OW98427  10.474  13.822   7.996
32177SOL    HW198428  10.494  13.892   8.058
32177SOL    HW298429  10.496  13.859   7.911
32178SOL     OW98430   9.287   9.923   8.506
32178SOL    HW198431   9.203   9.965   8.488
32178SOL    HW298432   9.268   9.861   8.577
32179SOL     OW98433   3.568   0.424   5.483
32179SOL    HW198434   3.638   0.443   5.422
32179SOL    HW298435   3.543   0.333   5.463
32180SOL     OW98436  10.419   7.764   4.614
32180SOL    HW198437  10.399   7.714   4.534
32180SOL    HW298438  10.484   7.828   4.586
32181SOL     OW98439  13.473   1.468   6.096
32181SOL    HW198440  13.455   1.476   6.002
32181SOL    HW298441  13.533   1.394   6.103
32182SOL     OW98442   2.090   4.683   9.139
32182SOL    HW198443   2.145   4.675   9.217
32182SOL    HW298444   2.100   4.598   9.095
32183SOL     OW98445   1.847   6.646  13.940
32183SOL    HW198446   1.904   6.626  13.866
32183SOL    HW298447   1.906   6.679  14.008
32184SOL     OW98448   3.787   4.657   2.845
32184SOL    HW198449   3.843   4.648   2.768
32184SOL    HW298450   3.846   4.681   2.916
32185SOL     OW98451   2.314   4.665   0.231
32185SOL    HW198452   2.241   4.629   0.281
32185SOL    HW298453   2.379   4.688   0.297
32186SOL     OW98454  13.659   4.572  12.483
32186SOL    HW198455  13.615   4.489  12.461
32186SOL    HW298456  13.665   4.570  12.579
32187SOL     OW98457  10.922   2.250   4.956
32187SOL    HW198458  10.994   2.310   4.938
32187SOL    HW298459  10.905   2.206   4.873
32188SOL     OW98460   4.754  13.785   9.301
32188SOL    HW198461   4.835  13.789   9.352
32188SOL    HW298462   4.770  13.843   9.226
32189SOL     OW98463  10.448  14.628   4.326
32189SOL    HW198464  10.523  14.574   4.301
32189SOL    HW298465  10.381  14.607   4.261
32190SOL     OW98466   2.552  13.875   0.891
32190SOL    HW198467   2.628  13.932   0.879
32190SOL    HW298468   2.477  13.930   0.868
32191SOL     OW98469   1.031   0.126   6.795
32191SOL    HW198470   0.968   0.081   6.852
32191SOL    HW298471   1.035   0.215   6.830
32192SOL     OW98472  12.295   8.952  13.277
32192SOL    HW198473  12.343   8.914  13.204
32192SOL    HW298474  12.231   9.010  13.236
32193SOL     OW98475   8.048   4.239  12.186
32193SOL    HW198476   7.978   4.256  12.249
32193SOL    HW298477   8.004   4.238  12.100
32194SOL     OW98478   0.405  10.489  14.299
32194SOL    HW198479   0.317  10.509  14.331
32194SOL    HW298480   0.402  10.511  14.206
32195SOL     OW98481   1.795   8.183   1.909
32195SOL    HW198482   1.842   8.221   1.983
32195SOL    HW298483   1.839   8.218   1.832
32196SOL     OW98484   4.526   5.384  14.484
32196SOL    HW198485   4.544   5.292  14.465
32196SOL    HW298486   4.455   5.408  14.424
32197SOL     OW98487   0.550  11.837  12.532
32197SOL    HW198488   0.465  11.863  12.498
32197SOL    HW298489   0.576  11.908  12.591
32198SOL     OW98490  11.565   6.637   0.897
32198SOL    HW198491  11.622   6.672   0.965
32198SOL    HW298492  11.544   6.548   0.926
32199SOL     OW98493  12.700   1.213   2.721
32199SOL    HW198494  12.665   1.126   2.735
32199SOL    HW298495  12.631   1.272   2.753
32200SOL     OW98496  10.482   8.118   7.505
32200SOL    HW198497  10.429   8.176   7.451
32200SOL    HW298498  10.442   8.031   7.494
32201SOL     OW98499  12.215  11.868   3.133
32201SOL    HW198500  12.186  11.810   3.062
32201SOL    HW298501  12.215  11.955   3.094
32202SOL     OW98502   3.459   0.901   6.395
32202SOL    HW198503   3.493   0.956   6.466
32202SOL    HW298504   3.375   0.941   6.373
32203SOL     OW98505   6.121   3.283  11.633
32203SOL    HW198506   6.089   3.199  11.600
32203SOL    HW298507   6.069   3.299  11.712
32204SOL     OW98508  11.400   1.909   2.165
32204SOL    HW198509  11.429   1.825   2.128
32204SOL    HW298510  11.461   1.927   2.236
32205SOL     OW98511  12.962  12.496   9.700
32205SOL    HW198512  13.001  12.507   9.786
32205SOL    HW298513  12.902  12.422   9.710
32206SOL     OW98514   8.855   1.357  10.572
32206SOL    HW198515   8.899   1.386  10.652
32206SOL    HW298516   8.874   1.425  10.507
32207SOL     OW98517   0.624   4.665  11.157
32207SOL    HW198518   0.543   4.615  11.153
32207SOL    HW298519   0.605   4.736  11.219
32208SOL     OW98520  13.698  12.626   0.305
32208SOL    HW198521  13.712  12.533   0.325
32208SOL    HW298522  13.670  12.665   0.389
32209SOL     OW98523   2.726  13.988   6.471
32209SOL    HW198524   2.795  14.036   6.424
32209SOL    HW298525   2.645  14.030   6.443
32210SOL     OW98526  11.514   1.025   9.105
32210SOL    HW198527  11.431   0.989   9.134
32210SOL    HW298528  11.508   1.119   9.121
32211SOL     OW98529   1.521   4.339   1.669
32211SOL    HW198530   1.597   4.319   1.615
32211SOL    HW298531   1.468   4.398   1.615
32212SOL     OW98532   1.328  14.832  11.346
32212SOL    HW198533   1.279  14.820  11.265
32212SOL    HW298534   1.412  14.791  11.331
32213SOL     OW98535   2.057   8.242   2.499
32213SOL    HW198536   2.112   8.189   2.557
32213SOL    HW298537   2.116   8.311   2.468
32214SOL     OW98538  12.743   7.018  14.622
32214SOL    HW198539  12.683   7.092  14.632
32214SOL    HW298540  12.688   6.941  14.640
32215SOL     OW98541   1.597  14.778  14.359
32215SOL    HW198542   1.624  14.863  14.324
32215SOL    HW298543   1.502  14.778  14.353
32216SOL     OW98544   8.385   3.070  10.313
32216SOL    HW198545   8.398   2.991  10.261
32216SOL    HW298546   8.299   3.059  10.354
32217SOL     OW98547   2.173   1.128   1.833
32217SOL    HW198548   2.101   1.191   1.827
32217SOL    HW298549   2.248   1.180   1.861
32218SOL     OW98550   4.135   5.281   2.304
32218SOL    HW198551   4.105   5.226   2.376
32218SOL    HW298552   4.186   5.222   2.248
32219SOL     OW98553   2.111  11.521   8.910
32219SOL    HW198554   2.109  11.495   8.817
32219SOL    HW298555   2.096  11.615   8.909
32220SOL     OW98556   2.526   3.009   2.797
32220SOL    HW198557   2.482   2.955   2.862
32220SOL    HW298558   2.582   3.068   2.848
32221SOL     OW98559   0.462   6.242  11.354
32221SOL    HW198560   0.385   6.222  11.302
32221SOL    HW298561   0.500   6.319  11.312
32222SOL     OW98562  14.504   2.725   9.584
32222SOL    HW198563  14.413   2.755   9.589
32222SOL    HW298564  14.501   2.636   9.620
32223SOL     OW98565   5.133   9.910   2.782
32223SOL    HW198566   5.079   9.977   2.741
32223SOL    HW298567   5.093   9.827   2.754
32224SOL     OW98568  14.429  13.441  13.180
32224SOL    HW198569  14.471  13.386  13.115
32224SOL    HW298570  14.360  13.386  13.218
32225SOL     OW98571  13.393  10.364   8.894
32225SOL    HW198572  13.440  10.281   8.905
32225SOL    HW298573  13.301  10.338   8.887
32226SOL     OW98574   4.940  12.892   8.465
32226SOL    HW198575   4.927  12.849   8.549
32226SOL    HW298576   4.992  12.970   8.485
32227SOL     OW98577  12.921  11.899  12.405
32227SOL    HW198578  12.933  11.870  12.495
32227SOL    HW298579  12.923  11.818  12.353
32228SOL     OW98580   1.363   4.521   5.322
32228SOL    HW198581   1.304   4.476   5.383
32228SOL    HW298582   1.343   4.614   5.333
32229SOL     OW98583   7.435   4.748   4.479
32229SOL    HW198584   7.466   4.826   4.432
32229SOL    HW298585   7.514   4.713   4.521
32230SOL     OW98586  14.040  11.853  10.116
32230SOL    HW198587  13.977  11.924  10.128
32230SOL    HW298588  13.998  11.793  10.055
32231SOL     OW98589   3.636   3.857   0.127
32231SOL    HW198590   3.663   3.803   0.201
32231SOL    HW298591   3.705   3.845   0.061
32232SOL     OW98592   0.653   9.029   2.223
32232SOL    HW198593   0.626   9.091   2.290
32232SOL    HW298594   0.733   8.989   2.258
32233SOL     OW98595   6.278   2.376   4.447
32233SOL    HW198596   6.304   2.285   4.428
32233SOL    HW298597   6.348   2.429   4.409
32234SOL     OW98598   1.839   2.162   2.885
32234SOL    HW198599   1.826   2.069   2.868
32234SOL    HW298600   1.780   2.182   2.958
32235SOL     OW98601  13.023  10.510  11.781
32235SOL    HW198602  13.048  10.418  11.786
32235SOL    HW298603  13.098  10.553  11.741
32236SOL     OW98604   1.054   0.836   4.524
32236SOL    HW198605   0.980   0.877   4.479
32236SOL    HW298606   1.046   0.865   4.615
32237SOL     OW98607   1.516   3.092   9.961
32237SOL    HW198608   1.571   3.097   9.883
32237SOL    HW298609   1.431   3.061   9.928
32238SOL     OW98610   7.896   3.864   2.923
32238SOL    HW198611   7.945   3.802   2.977
32238SOL    HW298612   7.963   3.917   2.880
32239SOL     OW98613   9.237  10.252  13.862
32239SOL    HW198614   9.224  10.160  13.884
32239SOL    HW298615   9.211  10.300  13.940
32240SOL     OW98616  10.839   5.753  11.973
32240SOL    HW198617  10.892   5.830  11.991
32240SOL    HW298618  10.901   5.687  11.941
32241SOL     OW98619   4.398   3.637   3.613
32241SOL    HW198620   4.352   3.720   3.604
32241SOL    HW298621   4.384   3.592   3.530
32242SOL     OW98622   3.600  14.108   3.888
32242SOL    HW198623   3.534  14.156   3.838
32242SOL    HW298624   3.610  14.159   3.969
32243SOL     OW98625  12.627   4.795  14.554
32243SOL    HW198626  12.643   4.793  14.648
32243SOL    HW298627  12.556   4.732  14.540
32244SOL     OW98628  12.167   1.232  14.003
32244SOL    HW198629  12.171   1.170  13.931
32244SOL    HW298630  12.205   1.313  13.968
32245SOL     OW98631   9.194   7.644   8.666
32245SOL    HW198632   9.217   7.559   8.701
32245SOL    HW298633   9.128   7.678   8.727
32246SOL     OW98634   0.063   2.866  13.785
32246SOL    HW198635   0.003   2.807  13.740
32246SOL    HW298636   0.146   2.856  13.737
32247SOL     OW98637   7.750   5.490   8.087
32247SOL    HW198638   7.656   5.504   8.098
32247SOL    HW298639   7.758   5.397   8.064
32248SOL     OW98640  13.607  14.008   4.509
32248SOL    HW198641  13.582  14.044   4.423
32248SOL    HW298642  13.618  13.915   4.493
32249SOL     OW98643   9.124  12.536   1.795
32249SOL    HW198644   9.043  12.487   1.808
32249SOL    HW298645   9.187  12.494   1.853
32250SOL     OW98646  12.465   2.240   3.187
32250SOL    HW198647  12.446   2.332   3.207
32250SOL    HW298648  12.480   2.239   3.092
32251SOL     OW98649   8.811   0.122   1.614
32251SOL    HW198650   8.827   0.053   1.550
32251SOL    HW298651   8.760   0.187   1.566
32252SOL     OW98652  10.786   3.344   1.281
32252SOL    HW198653  10.842   3.386   1.347
32252SOL    HW298654  10.701   3.334   1.324
32253SOL     OW98655   2.318   7.228   1.771
32253SOL    HW198656   2.375   7.175   1.826
32253SOL    HW298657   2.247   7.169   1.745
32254SOL     OW98658   5.984   4.295  11.430
32254SOL    HW198659   6.069   4.259  11.456
32254SOL    HW298660   6.004   4.358  11.362
32255SOL     OW98661   7.084   2.312  14.485
32255SOL    HW198662   7.090   2.303  14.580
32255SOL    HW298663   7.064   2.404  14.470
32256SOL     OW98664  14.740   7.969   9.335
32256SOL    HW198665  14.734   7.886   9.381
32256SOL    HW298666  14.741   7.946   9.243
32257SOL     OW98667   8.040   6.004   2.011
32257SOL    HW198668   8.071   6.018   1.921
32257SOL    HW298669   8.006   5.915   2.011
32258SOL     OW98670   5.725  12.466   9.912
32258SOL    HW198671   5.806  12.435   9.873
32258SOL    HW298672   5.656  12.421   9.864
32259SOL     OW98673   3.438   0.628   2.756
32259SOL    HW198674   3.472   0.624   2.845
32259SOL    HW298675   3.347   0.599   2.764
32260SOL     OW98676   0.669  10.793   4.850
32260SOL    HW198677   0.751  10.791   4.901
32260SOL    HW298678   0.676  10.718   4.791
32261SOL     OW98679  12.349   6.366   5.910
32261SOL    HW198680  12.331   6.376   6.003
32261SOL    HW298681  12.263   6.356   5.870
32262SOL     OW98682   0.537  14.523   1.057
32262SOL    HW198683   0.471  14.464   1.093
32262SOL    HW298684   0.620  14.488   1.090
32263SOL     OW98685   5.589   4.312  14.134
32263SOL    HW198686   5.502   4.345  14.156
32263SOL    HW298687   5.630   4.382  14.083
32264SOL     OW98688   6.121  12.670  14.188
32264SOL    HW198689   6.162  12.729  14.124
32264SOL    HW298690   6.028  12.672  14.166
32265SOL     OW98691   0.076   8.534   8.964
32265SOL    HW198692   0.137   8.481   9.014
32265SOL    HW298693  14.877   8.499   8.986
32266SOL     OW98694   5.014   8.532  14.474
32266SOL    HW198695   4.957   8.573  14.407
32266SOL    HW298696   4.988   8.574  14.556
32267SOL     OW98697  13.977   1.230   8.269
32267SOL    HW198698  14.067   1.253   8.290
32267SOL    HW298699  13.977   1.219   8.174
32268SOL     OW98700   8.461   2.063   2.391
32268SOL    HW198701   8.369   2.047   2.411
32268SOL    HW298702   8.478   2.152   2.421
32269SOL     OW98703   5.810   2.977   4.330
32269SOL    HW198704   5.728   2.995   4.285
32269SOL    HW298705   5.821   3.051   4.390
32270SOL     OW98706   3.136   0.846   2.159
32270SOL    HW198707   3.119   0.893   2.077
32270SOL    HW298708   3.224   0.811   2.147
32271SOL     OW98709  10.990  13.378  14.312
32271SOL    HW198710  11.005  13.355  14.404
32271SOL    HW298711  10.912  13.328  14.287
32272SOL     OW98712   3.594   5.834  11.575
32272SOL    HW198713   3.575   5.926  11.593
32272SOL    HW298714   3.683   5.835  11.539
32273SOL     OW98715   0.323   8.540  12.021
32273SOL    HW198716   0.350   8.591  12.097
32273SOL    HW298717   0.270   8.600  11.969
32274SOL     OW98718   8.545  10.131   3.182
32274SOL    HW198719   8.629  10.111   3.139
32274SOL    HW298720   8.497  10.182   3.118
32275SOL     OW98721   1.841   5.856   4.400
32275SOL    HW198722   1.916   5.799   4.388
32275SOL    HW298723   1.803   5.830   4.484
32276SOL     OW98724   5.663   0.578  11.485
32276SOL    HW198725   5.700   0.667  11.484
32276SOL    HW298726   5.644   0.558  11.394
32277SOL     OW98727   5.762   2.291   3.848
32277SOL    HW198728   5.825   2.321   3.782
32277SOL    HW298729   5.784   2.342   3.927
32278SOL     OW98730   5.856  13.291   9.405
32278SOL    HW198731   5.797  13.363   9.428
32278SOL    HW298732   5.906  13.274   9.485
32279SOL     OW98733  10.000  14.324   0.219
32279SOL    HW198734   9.919  14.291   0.180
32279SOL    HW298735   9.996  14.295   0.310
32280SOL     OW98736   4.490  12.359   6.869
32280SOL    HW198737   4.462  12.448   6.845
32280SOL    HW298738   4.419  12.303   6.836
32281SOL     OW98739   6.598  13.555   3.717
32281SOL    HW198740   6.642  13.478   3.682
32281SOL    HW298741   6.590  13.537   3.811
32282SOL     OW98742   7.469   5.296  11.343
32282SOL    HW198743   7.490   5.250  11.424
32282SOL    HW298744   7.412   5.236  11.294
32283SOL     OW98745   6.215   4.244  11.182
32283SOL    HW198746   6.230   4.187  11.257
32283SOL    HW298747   6.161   4.191  11.123
32284SOL     OW98748   8.898   1.248  13.055
32284SOL    HW198749   8.889   1.239  12.960
32284SOL    HW298750   8.913   1.158  13.086
32285SOL     OW98751   8.195  14.005   6.578
32285SOL    HW198752   8.125  13.976   6.521
32285SOL    HW298753   8.223  13.926   6.625
32286SOL     OW98754  12.317  10.138  14.262
32286SOL    HW198755  12.317  10.125  14.167
32286SOL    HW298756  12.236  10.096  14.291
32287SOL     OW98757   9.028  12.252   1.619
32287SOL    HW198758   8.966  12.259   1.547
32287SOL    HW298759   9.073  12.169   1.605
32288SOL     OW98760   7.561   7.594   8.228
32288SOL    HW198761   7.489   7.531   8.230
32288SOL    HW298762   7.635   7.545   8.264
32289SOL     OW98763  14.864   3.263  11.825
32289SOL    HW198764   0.047   3.326  11.812
32289SOL    HW298765   0.004   3.212  11.902
32290SOL     OW98766  10.516  12.389   1.215
32290SOL    HW198767  10.595  12.403   1.164
32290SOL    HW298768  10.529  12.441   1.295
32291SOL     OW98769  12.133   6.660  14.098
32291SOL    HW198770  12.130   6.625  14.187
32291SOL    HW298771  12.088   6.744  14.105
32292SOL     OW98772  14.136   0.925   3.178
32292SOL    HW198773  14.212   0.885   3.137
32292SOL    HW298774  14.172   0.972   3.254
32293SOL     OW98775   4.270  14.509   1.152
32293SOL    HW198776   4.351  14.458   1.146
32293SOL    HW298777   4.223  14.490   1.071
32294SOL     OW98778   8.485  11.721   0.421
32294SOL    HW198779   8.403  11.720   0.373
32294SOL    HW298780   8.482  11.643   0.476
32295SOL     OW98781  12.872   3.837  14.756
32295SOL    HW198782  12.855   3.928  14.778
32295SOL    HW298783  12.939   3.809  14.818
32296SOL     OW98784   7.848   1.368   7.039
32296SOL    HW198785   7.816   1.309   7.107
32296SOL    HW298786   7.876   1.311   6.968
32297SOL     OW98787  10.632   6.399   7.004
32297SOL    HW198788  10.657   6.407   7.097
32297SOL    HW298789  10.651   6.485   6.967
32298SOL     OW98790   2.609   0.086  13.574
32298SOL    HW198791   2.577   0.006  13.531
32298SOL    HW298792   2.532   0.121  13.619
32299SOL     OW98793   7.191   4.535  10.052
32299SOL    HW198794   7.150   4.616  10.083
32299SOL    HW298795   7.142   4.512   9.973
32300SOL     OW98796  13.652   4.633   9.743
32300SOL    HW198797  13.583   4.578   9.782
32300SOL    HW298798  13.704   4.572   9.691
32301SOL     OW98799   2.651   0.015   9.777
32301SOL    HW198800   2.633  14.880   9.868
32301SOL    HW298801   2.566   0.039   9.741
32302SOL     OW98802  12.952  14.493  12.056
32302SOL    HW198803  12.981  14.488  12.148
32302SOL    HW298804  12.903  14.574  12.051
32303SOL     OW98805  12.880  14.197   6.353
32303SOL    HW198806  12.912  14.287   6.352
32303SOL    HW298807  12.799  14.201   6.404
32304SOL     OW98808   6.154   6.617   2.667
32304SOL    HW198809   6.132   6.598   2.576
32304SOL    HW298810   6.223   6.554   2.688
32305SOL     OW98811  13.002   0.138   1.552
32305SOL    HW198812  13.017   0.170   1.463
32305SOL    HW298813  12.937   0.069   1.542
32306SOL     OW98814   9.689   9.736   4.491
32306SOL    HW198815   9.621   9.780   4.440
32306SOL    HW298816   9.703   9.652   4.447
32307SOL     OW98817   3.768   7.039   8.950
32307SOL    HW198818   3.833   7.036   9.021
32307SOL    HW298819   3.753   7.133   8.936
32308SOL     OW98820   9.069   6.034  13.481
32308SOL    HW198821   9.030   6.115  13.449
32308SOL    HW298822   9.125   6.060  13.554
32309SOL     OW98823   1.791   0.875  13.125
32309SOL    HW198824   1.709   0.907  13.162
32309SOL    HW298825   1.852   0.871  13.199
32310SOL     OW98826   5.989   4.520   9.614
32310SOL    HW198827   5.934   4.541   9.539
32310SOL    HW298828   6.015   4.429   9.600
32311SOL     OW98829  12.285  10.018   5.202
32311SOL    HW198830  12.340   9.965   5.145
32311SOL    HW298831  12.226  10.064   5.143
32312SOL     OW98832   3.212   8.997   5.446
32312SOL    HW198833   3.237   8.963   5.360
32312SOL    HW298834   3.125   8.960   5.462
32313SOL     OW98835   6.213   0.784   6.838
32313SOL    HW198836   6.224   0.697   6.877
32313SOL    HW298837   6.266   0.781   6.758
32314SOL     OW98838   8.778  11.126  12.042
32314SOL    HW198839   8.781  11.112  11.948
32314SOL    HW298840   8.732  11.209  12.053
32315SOL     OW98841   9.851  10.878   4.050
32315SOL    HW198842   9.782  10.931   4.091
32315SOL    HW298843   9.806  10.828   3.982
32316SOL     OW98844  11.560   0.236  14.594
32316SOL    HW198845  11.489   0.196  14.544
32316SOL    HW298846  11.624   0.262  14.528
32317SOL     OW98847   3.430   2.262   5.271
32317SOL    HW198848   3.348   2.273   5.223
32317SOL    HW298849   3.460   2.175   5.247
32318SOL     OW98850   7.203   5.652   4.064
32318SOL    HW198851   7.228   5.742   4.043
32318SOL    HW298852   7.108   5.654   4.075
32319SOL     OW98853  12.070   0.011   6.002
32319SOL    HW198854  11.988  14.866   5.965
32319SOL    HW298855  12.095  14.832   6.066
32320SOL     OW98856   9.503  13.254   4.128
32320SOL    HW198857   9.440  13.293   4.067
32320SOL    HW298858   9.522  13.323   4.191
32321SOL     OW98859  14.412   2.365   6.561
32321SOL    HW198860  14.474   2.425   6.601
32321SOL    HW298861  14.383   2.309   6.633
32322SOL     OW98862   3.892   9.715   8.368
32322SOL    HW198863   3.804   9.733   8.400
32322SOL    HW298864   3.919   9.795   8.324
32323SOL     OW98865   8.270   4.195   0.015
32323SOL    HW198866   8.361   4.178   0.040
32323SOL    HW298867   8.228   4.110   0.016
32324SOL     OW98868   5.827   0.681   3.975
32324SOL    HW198869   5.845   0.602   3.925
32324SOL    HW298870   5.784   0.650   4.054
32325SOL     OW98871   6.832   5.213  12.399
32325SOL    HW198872   6.800   5.230  12.488
32325SOL    HW298873   6.863   5.122  12.403
32326SOL     OW98874  12.131   6.539   8.148
32326SOL    HW198875  12.110   6.623   8.108
32326SOL    HW298876  12.201   6.558   8.210
32327SOL     OW98877   1.253   3.282  11.560
32327SOL    HW198878   1.294   3.200  11.532
32327SOL    HW298879   1.327   3.336  11.590
32328SOL     OW98880   7.911   5.709  11.003
32328SOL    HW198881   7.984   5.653  11.028
32328SOL    HW298882   7.945   5.798  11.012
32329SOL     OW98883   6.573   5.294  12.018
32329SOL    HW198884   6.539   5.365  12.073
32329SOL    HW298885   6.632   5.338  11.956
32330SOL     OW98886  10.779  14.485   6.686
32330SOL    HW198887  10.700  14.533   6.661
32330SOL    HW298888  10.746  14.401   6.717
32331SOL     OW98889   5.796   4.622   8.594
32331SOL    HW198890   5.709   4.586   8.578
32331SOL    HW298891   5.852   4.579   8.530
32332SOL     OW98892  10.083   7.684   3.256
32332SOL    HW198893  10.038   7.702   3.339
32332SOL    HW298894  10.085   7.589   3.250
32333SOL     OW98895   8.722   5.046  12.856
32333SOL    HW198896   8.703   5.038  12.950
32333SOL    HW298897   8.810   5.081  12.852
32334SOL     OW98898   7.866  12.778  11.448
32334SOL    HW198899   7.827  12.696  11.418
32334SOL    HW298900   7.889  12.824  11.368
32335SOL     OW98901   9.761  14.377   6.918
32335SOL    HW198902   9.766  14.454   6.975
32335SOL    HW298903   9.722  14.309   6.972
32336SOL     OW98904   5.280   7.071  14.283
32336SOL    HW198905   5.217   7.036  14.220
32336SOL    HW298906   5.233   7.072  14.366
32337SOL     OW98907  14.707  13.048   3.002
32337SOL    HW198908  14.642  12.979   3.018
32337SOL    HW298909  14.744  13.066   3.089
32338SOL     OW98910   7.635   7.629   6.437
32338SOL    HW198911   7.573   7.630   6.510
32338SOL    HW298912   7.640   7.720   6.408
32339SOL     OW98913   2.016  11.889   2.140
32339SOL    HW198914   2.048  11.945   2.210
32339SOL    HW298915   2.012  11.945   2.063
32340SOL     OW98916   5.932  11.187  12.246
32340SOL    HW198917   6.012  11.233  12.271
32340SOL    HW298918   5.866  11.217  12.309
32341SOL     OW98919  13.920  11.115   0.034
32341SOL    HW198920  13.892  11.075   0.117
32341SOL    HW298921  13.845  11.105  14.863
32342SOL     OW98922  11.155   5.721   8.232
32342SOL    HW198923  11.197   5.636   8.230
32342SOL    HW298924  11.148   5.747   8.140
32343SOL     OW98925   6.817  13.740  10.136
32343SOL    HW198926   6.824  13.747  10.231
32343SOL    HW298927   6.897  13.783  10.103
32344SOL     OW98928  14.139   7.155   1.435
32344SOL    HW198929  14.232   7.136   1.440
32344SOL    HW298930  14.118   7.150   1.342
32345SOL     OW98931   6.816   5.669   8.355
32345SOL    HW198932   6.851   5.721   8.282
32345SOL    HW298933   6.721   5.680   8.349
32346SOL     OW98934  10.753  10.091  14.300
32346SOL    HW198935  10.687  10.106  14.232
32346SOL    HW298936  10.719  10.136  14.377
32347SOL     OW98937   1.464   6.501   6.139
32347SOL    HW198938   1.489   6.558   6.211
32347SOL    HW298939   1.387   6.454   6.171
32348SOL     OW98940  13.105  14.286   0.916
32348SOL    HW198941  13.070  14.305   1.003
32348SOL    HW298942  13.038  14.233   0.874
32349SOL     OW98943   6.107   6.813   9.744
32349SOL    HW198944   6.109   6.725   9.706
32349SOL    HW298945   6.063   6.866   9.678
32350SOL     OW98946   0.609   0.203   0.661
32350SOL    HW198947   0.578   0.289   0.632
32350SOL    HW298948   0.530   0.148   0.661
32351SOL     OW98949   8.852   7.796   7.595
32351SOL    HW198950   8.886   7.706   7.596
32351SOL    HW298951   8.763   7.788   7.629
32352SOL     OW98952  14.258   2.539   0.457
32352SOL    HW198953  14.165   2.554   0.475
32352SOL    HW298954  14.303   2.612   0.499
32353SOL     OW98955  14.660  13.374   0.128
32353SOL    HW198956  14.685  13.293   0.171
32353SOL    HW298957  14.583  13.405   0.176
32354SOL     OW98958  14.530   7.244   2.324
32354SOL    HW198959  14.519   7.176   2.390
32354SOL    HW298960  14.547   7.324   2.374
32355SOL     OW98961   2.555   5.010   8.940
32355SOL    HW198962   2.463   5.007   8.963
32355SOL    HW298963   2.566   5.091   8.891
32356SOL     OW98964   6.427   7.904   7.152
32356SOL    HW198965   6.469   7.914   7.238
32356SOL    HW298966   6.494   7.932   7.090
32357SOL     OW98967  13.974   7.625   8.952
32357SOL    HW198968  13.921   7.546   8.941
32357SOL    HW298969  13.911   7.697   8.955
32358SOL     OW98970   7.933   8.736   8.085
32358SOL    HW198971   7.938   8.808   8.022
32358SOL    HW298972   7.853   8.689   8.060
32359SOL     OW98973  10.180   9.501   1.030
32359SOL    HW198974  10.159   9.550   1.110
32359SOL    HW298975  10.096   9.492   0.985
32360SOL     OW98976   3.088   1.834  12.919
32360SOL    HW198977   3.066   1.769  12.986
32360SOL    HW298978   3.029   1.814  12.846
32361SOL     OW98979   7.304   4.381   7.037
32361SOL    HW198980   7.381   4.330   7.009
32361SOL    HW298981   7.257   4.322   7.095
32362SOL     OW98982   7.428   6.494   1.922
32362SOL    HW198983   7.466   6.575   1.886
32362SOL    HW298984   7.353   6.524   1.973
32363SOL     OW98985   5.684   5.069  12.526
32363SOL    HW198986   5.673   5.000  12.461
32363SOL    HW298987   5.644   5.147  12.487
32364SOL     OW98988   6.873  11.553   1.269
32364SOL    HW198989   6.914  11.474   1.304
32364SOL    HW298990   6.944  11.616   1.261
32365SOL     OW98991   7.800   8.048   3.227
32365SOL    HW198992   7.869   8.064   3.291
32365SOL    HW298993   7.845   8.010   3.152
32366SOL     OW98994  14.667   0.283   6.284
32366SOL    HW198995  14.673   0.292   6.379
32366SOL    HW298996  14.596   0.342   6.259
32367SOL     OW98997   0.342   7.549  13.872
32367SOL    HW198998   0.335   7.483  13.804
32367SOL    HW298999   0.427   7.591  13.857
32368SOL     OW99000  10.943  13.735  13.458
32368SOL    HW199001  10.998  13.760  13.532
32368SOL    HW299002  11.002  13.735  13.383
32369SOL     OW99003  12.309   5.801  12.467
32369SOL    HW199004  12.254   5.835  12.398
32369SOL    HW299005  12.340   5.716  12.434
32370SOL     OW99006  14.577   9.098  10.266
32370SOL    HW199007  14.645   9.157  10.235
32370SOL    HW299008  14.608   9.011  10.241
32371SOL     OW99009   6.270   9.858   9.309
32371SOL    HW199010   6.293   9.809   9.230
32371SOL    HW299011   6.198   9.915   9.282
32372SOL     OW99012  14.820   5.144  12.929
32372SOL    HW199013  14.796   5.219  12.983
32372SOL    HW299014  14.747   5.083  12.938
32373SOL     OW99015  11.497   5.248   6.905
32373SOL    HW199016  11.570   5.299   6.869
32373SOL    HW299017  11.479   5.288   6.990
32374SOL     OW99018   7.478   2.295  12.568
32374SOL    HW199019   7.480   2.351  12.646
32374SOL    HW299020   7.560   2.246  12.572
32375SOL     OW99021  14.734  12.644   1.107
32375SOL    HW199022  14.652  12.684   1.135
32375SOL    HW299023  14.730  12.555   1.142
32376SOL     OW99024  11.671   5.305   7.812
32376SOL    HW199025  11.718   5.380   7.777
32376SOL    HW299026  11.716   5.284   7.894
32377SOL     OW99027  13.557   1.836   3.175
32377SOL    HW199028  13.565   1.779   3.099
32377SOL    HW299029  13.638   1.824   3.224
32378SOL     OW99030   0.338   1.607  13.343
32378SOL    HW199031   0.359   1.667  13.415
32378SOL    HW299032   0.257   1.641  13.306
32379SOL     OW99033   3.810   8.942   0.659
32379SOL    HW199034   3.827   8.916   0.568
32379SOL    HW299035   3.717   8.963   0.661
32380SOL     OW99036  14.282   5.106   4.260
32380SOL    HW199037  14.268   5.201   4.259
32380SOL    HW299038  14.316   5.088   4.348
32381SOL     OW99039  11.064  13.444   9.979
32381SOL    HW199040  10.981  13.416  10.016
32381SOL    HW299041  11.043  13.526   9.934
32382SOL     OW99042   3.099   9.789  12.873
32382SOL    HW199043   3.092   9.860  12.936
32382SOL    HW299044   3.009   9.772  12.846
32383SOL     OW99045   7.083   6.014   5.997
32383SOL    HW199046   7.107   6.089   6.052
32383SOL    HW299047   6.988   6.012   6.000
32384SOL     OW99048  11.702  14.530  12.496
32384SOL    HW199049  11.778  14.580  12.525
32384SOL    HW299050  11.627  14.583  12.521
32385SOL     OW99051  10.930  12.312  14.173
32385SOL    HW199052  10.864  12.380  14.153
32385SOL    HW299053  10.935  12.260  14.093
32386SOL     OW99054  13.534   5.461   2.939
32386SOL    HW199055  13.530   5.545   2.985
32386SOL    HW299056  13.587   5.478   2.861
32387SOL     OW99057  12.731  10.891  14.775
32387SOL    HW199058  12.665  10.950  14.738
32387SOL    HW299059  12.685  10.808  14.786
32388SOL     OW99060   3.715   7.827  13.760
32388SOL    HW199061   3.671   7.772  13.696
32388SOL    HW299062   3.645   7.861  13.816
32389SOL     OW99063  10.675   3.854   8.731
32389SOL    HW199064  10.636   3.861   8.819
32389SOL    HW299065  10.624   3.915   8.678
32390SOL     OW99066  11.644   2.269  11.755
32390SOL    HW199067  11.636   2.317  11.838
32390SOL    HW299068  11.554   2.265  11.721
32391SOL     OW99069   7.765   6.684   8.013
32391SOL    HW199070   7.681   6.682   7.967
32391SOL    HW299071   7.825   6.639   7.954
32392SOL     OW99072   0.330   3.181  13.699
32392SOL    HW199073   0.331   3.262  13.648
32392SOL    HW299074   0.415   3.179  13.742
32393SOL     OW99075   4.210   3.929   1.766
32393SOL    HW199076   4.165   3.931   1.851
32393SOL    HW299077   4.140   3.939   1.702
32394SOL     OW99078   2.941   1.876   4.451
32394SOL    HW199079   3.035   1.860   4.453
32394SOL    HW299080   2.902   1.789   4.444
32395SOL     OW99081   3.176  12.335  13.691
32395SOL    HW199082   3.214  12.420  13.669
32395SOL    HW299083   3.082  12.348  13.687
32396SOL     OW99084   6.484   9.540  10.430
32396SOL    HW199085   6.462   9.454  10.465
32396SOL    HW299086   6.401   9.588  10.432
32397SOL     OW99087  13.360   7.678   2.375
32397SOL    HW199088  13.453   7.690   2.356
32397SOL    HW299089  13.355   7.594   2.419
32398SOL     OW99090  10.886  11.436   3.520
32398SOL    HW199091  10.888  11.359   3.462
32398SOL    HW299092  10.962  11.425   3.577
32399SOL     OW99093   5.430   5.418   4.066
32399SOL    HW199094   5.481   5.489   4.028
32399SOL    HW299095   5.470   5.338   4.033
32400SOL     OW99096   2.034  12.234  12.703
32400SOL    HW199097   1.942  12.220  12.727
32400SOL    HW299098   2.053  12.323  12.732
32401SOL     OW99099  14.819  10.844   2.498
32401SOL    HW199100  14.780  10.911   2.554
32401SOL    HW299101  14.794  10.870   2.409
32402SOL     OW99102   9.369   3.565  11.728
32402SOL    HW199103   9.291   3.615  11.752
32402SOL    HW299104   9.380   3.581  11.634
32403SOL     OW99105  11.393   2.681   3.466
32403SOL    HW199106  11.447   2.606   3.491
32403SOL    HW299107  11.456   2.747   3.437
32404SOL     OW99108  10.942   8.208   8.843
32404SOL    HW199109  10.911   8.252   8.922
32404SOL    HW299110  10.863   8.183   8.796
32405SOL     OW99111   7.204  14.831  12.039
32405SOL    HW199112   7.298  14.816  12.034
32405SOL    HW299113   7.195   0.033  12.072
32406SOL     OW99114  11.469   4.503   4.082
32406SOL    HW199115  11.544   4.456   4.118
32406SOL    HW299116  11.493   4.596   4.089
32407SOL     OW99117   3.693   0.691   2.581
32407SOL    HW199118   3.685   0.721   2.672
32407SOL    HW299119   3.607   0.653   2.561
32408SOL     OW99120   8.220   1.370  13.050
32408SOL    HW199121   8.164   1.303  13.012
32408SOL    HW299122   8.194   1.374  13.142
32409SOL     OW99123   3.187  13.518   9.810
32409SOL    HW199124   3.143  13.593   9.849
32409SOL    HW299125   3.139  13.500   9.730
32410SOL     OW99126   4.244   3.860   3.697
32410SOL    HW199127   4.217   3.823   3.781
32410SOL    HW299128   4.164   3.859   3.644
32411SOL     OW99129   8.732   1.084   5.952
32411SOL    HW199130   8.784   1.044   5.882
32411SOL    HW299131   8.797   1.112   6.016
32412SOL     OW99132   4.173   7.290  11.723
32412SOL    HW199133   4.096   7.286  11.779
32412SOL    HW299134   4.240   7.240  11.771
32413SOL     OW99135   3.210   0.550   5.279
32413SOL    HW199136   3.143   0.492   5.244
32413SOL    HW299137   3.280   0.550   5.213
32414SOL     OW99138   9.160   6.225  14.535
32414SOL    HW199139   9.157   6.131  14.517
32414SOL    HW299140   9.069   6.254  14.529
32415SOL     OW99141  10.791   6.871   1.621
32415SOL    HW199142  10.848   6.795   1.606
32415SOL    HW299143  10.810   6.898   1.711
32416SOL     OW99144   4.145   7.667   8.785
32416SOL    HW199145   4.152   7.742   8.726
32416SOL    HW299146   4.105   7.598   8.733
32417SOL     OW99147   6.388   7.305  10.677
32417SOL    HW199148   6.375   7.377  10.615
32417SOL    HW299149   6.480   7.281  10.666
32418SOL     OW99150  11.334   9.196  10.495
32418SOL    HW199151  11.277   9.241  10.432
32418SOL    HW299152  11.275   9.153  10.556
32419SOL     OW99153   6.508   7.520   1.988
32419SOL    HW199154   6.574   7.485   1.928
32419SOL    HW299155   6.498   7.611   1.962
32420SOL     OW99156   5.341   1.507  11.426
32420SOL    HW199157   5.402   1.486  11.496
32420SOL    HW299158   5.384   1.476  11.346
32421SOL     OW99159  12.025   2.217  14.292
32421SOL    HW199160  11.938   2.240  14.258
32421SOL    HW299161  12.076   2.297  14.283
32422SOL     OW99162   7.868  12.989  11.620
32422SOL    HW199163   7.804  12.965  11.688
32422SOL    HW299164   7.854  12.924  11.551
32423SOL     OW99165   3.883   7.218   4.328
32423SOL    HW199166   3.837   7.137   4.353
32423SOL    HW299167   3.845   7.286   4.384
32424SOL     OW99168   2.689  13.304  14.520
32424SOL    HW199169   2.737  13.292  14.601
32424SOL    HW299170   2.600  13.274  14.540
32425SOL     OW99171   2.956   9.042   1.583
32425SOL    HW199172   2.928   8.985   1.655
32425SOL    HW299173   2.875   9.076   1.545
32426SOL     OW99174   1.890   2.309  13.983
32426SOL    HW199175   1.973   2.355  13.973
32426SOL    HW299176   1.825   2.365  13.939
32427SOL     OW99177   3.194   8.551   7.063
32427SOL    HW199178   3.264   8.487   7.074
32427SOL    HW299179   3.129   8.527   7.129
32428SOL     OW99180  11.031   3.762  14.615
32428SOL    HW199181  10.982   3.809  14.548
32428SOL    HW299182  11.049   3.829  14.682
32429SOL     OW99183   9.709   7.882   0.413
32429SOL    HW199184   9.668   7.795   0.413
32429SOL    HW299185   9.756   7.886   0.496
32430SOL     OW99186   6.893  14.073   3.363
32430SOL    HW199187   6.930  14.143   3.309
32430SOL    HW299188   6.836  14.024   3.304
32431SOL     OW99189   1.626  14.227   8.279
32431SOL    HW199190   1.643  14.320   8.293
32431SOL    HW299191   1.709  14.184   8.300
32432SOL     OW99192   2.086  13.740   1.955
32432SOL    HW199193   2.091  13.766   2.047
32432SOL    HW299194   2.089  13.644   1.958
32433SOL     OW99195   7.746   7.080   3.597
32433SOL    HW199196   7.812   7.014   3.576
32433SOL    HW299197   7.785   7.163   3.569
32434SOL     OW99198   6.195  11.291   5.766
32434SOL    HW199199   6.143  11.371   5.774
32434SOL    HW299200   6.184  11.246   5.849
32435SOL     OW99201   3.645  11.840   5.257
32435SOL    HW199202   3.636  11.766   5.317
32435SOL    HW299203   3.702  11.901   5.303
32436SOL     OW99204  12.960  10.767   8.169
32436SOL    HW199205  12.880  10.713   8.162
32436SOL    HW299206  13.028  10.704   8.193
32437SOL     OW99207  10.569   5.195  10.541
32437SOL    HW199208  10.582   5.289  10.527
32437SOL    HW299209  10.533   5.189  10.629
32438SOL     OW99210   4.946   4.261  11.726
32438SOL    HW199211   4.966   4.350  11.697
32438SOL    HW299212   4.883   4.272  11.797
32439SOL     OW99213   4.565   9.724   8.664
32439SOL    HW199214   4.525   9.714   8.578
32439SOL    HW299215   4.502   9.774   8.714
32440SOL     OW99216   9.825   7.506  14.757
32440SOL    HW199217   9.902   7.450  14.748
32440SOL    HW299218   9.753   7.454  14.722
32441SOL     OW99219   2.937  11.767  14.462
32441SOL    HW199220   2.975  11.710  14.529
32441SOL    HW299221   2.933  11.713  14.384
32442SOL     OW99222   0.393   2.329  13.006
32442SOL    HW199223   0.358   2.383  13.077
32442SOL    HW299224   0.475   2.294  13.042
32443SOL     OW99225   0.172  14.673   6.272
32443SOL    HW199226   0.250  14.627   6.302
32443SOL    HW299227   0.141  14.721   6.349
32444SOL     OW99228   2.318   5.680  11.198
32444SOL    HW199229   2.250   5.648  11.139
32444SOL    HW299230   2.401   5.661  11.152
32445SOL     OW99231   6.631   4.481  13.416
32445SOL    HW199232   6.536   4.486  13.402
32445SOL    HW299233   6.646   4.532  13.496
32446SOL     OW99234  13.589   4.555   4.616
32446SOL    HW199235  13.560   4.537   4.706
32446SOL    HW299236  13.677   4.518   4.611
32447SOL     OW99237  10.348  10.303   5.249
32447SOL    HW199238  10.311  10.283   5.162
32447SOL    HW299239  10.272  10.328   5.302
32448SOL     OW99240   6.968   8.437   2.450
32448SOL    HW199241   7.032   8.431   2.521
32448SOL    HW299242   6.898   8.378   2.477
32449SOL     OW99243   6.712   4.778   3.387
32449SOL    HW199244   6.690   4.715   3.318
32449SOL    HW299245   6.803   4.757   3.410
32450SOL     OW99246   1.237   2.247   5.844
32450SOL    HW199247   1.244   2.285   5.756
32450SOL    HW299248   1.325   2.213   5.862
32451SOL     OW99249  10.126   5.231   6.746
32451SOL    HW199250  10.157   5.269   6.828
32451SOL    HW299251  10.161   5.290   6.679
32452SOL     OW99252   4.529  13.099  13.188
32452SOL    HW199253   4.476  13.162  13.237
32452SOL    HW299254   4.468  13.059  13.126
32453SOL     OW99255   5.273   7.607  10.347
32453SOL    HW199256   5.208   7.675  10.364
32453SOL    HW299257   5.327   7.605  10.426
32454SOL     OW99258   5.423  10.991   6.260
32454SOL    HW199259   5.424  11.023   6.170
32454SOL    HW299260   5.423  11.071   6.313
32455SOL     OW99261   8.950   5.979   8.543
32455SOL    HW199262   8.876   6.035   8.520
32455SOL    HW299263   8.922   5.935   8.624
32456SOL     OW99264   7.247   4.461  13.496
32456SOL    HW199265   7.186   4.528  13.526
32456SOL    HW299266   7.207   4.379  13.522
32457SOL     OW99267   5.005  14.460   8.663
32457SOL    HW199268   5.087  14.413   8.648
32457SOL    HW299269   4.937  14.404   8.625
32458SOL     OW99270  11.556   5.945   1.534
32458SOL    HW199271  11.496   5.879   1.500
32458SOL    HW299272  11.643   5.916   1.504
32459SOL     OW99273   3.271   6.548  14.459
32459SOL    HW199274   3.323   6.540  14.539
32459SOL    HW299275   3.184   6.574  14.490
32460SOL     OW99276   3.774  10.292   5.546
32460SOL    HW199277   3.804  10.271   5.458
32460SOL    HW299278   3.818  10.373   5.569
32461SOL     OW99279   8.753  14.408   7.470
32461SOL    HW199280   8.835  14.439   7.509
32461SOL    HW299281   8.695  14.484   7.472
32462SOL     OW99282   7.120  12.678   3.207
32462SOL    HW199283   7.207  12.719   3.205
32462SOL    HW299284   7.136  12.587   3.184
32463SOL     OW99285  13.026   7.295   3.236
32463SOL    HW199286  13.083   7.272   3.162
32463SOL    HW299287  13.058   7.381   3.264
32464SOL     OW99288  14.414  12.981   7.070
32464SOL    HW199289  14.454  12.940   7.147
32464SOL    HW299290  14.461  12.942   6.996
32465SOL     OW99291   9.783  14.135  11.525
32465SOL    HW199292   9.738  14.058  11.490
32465SOL    HW299293   9.826  14.175  11.450
32466SOL     OW99294   3.129  12.234   5.407
32466SOL    HW199295   3.177  12.316   5.406
32466SOL    HW299296   3.109  12.218   5.500
32467SOL     OW99297  11.231  14.540   6.720
32467SOL    HW199298  11.219  14.590   6.800
32467SOL    HW299299  11.189  14.456   6.738
32468SOL     OW99300   2.834  11.322   8.255
32468SOL    HW199301   2.756  11.289   8.210
32468SOL    HW299302   2.819  11.416   8.264
32469SOL     OW99303   9.155  14.153  11.438
32469SOL    HW199304   9.179  14.178  11.527
32469SOL    HW299305   9.227  14.097  11.409
32470SOL     OW99306   6.165   0.209   3.016
32470SOL    HW199307   6.236   0.270   2.994
32470SOL    HW299308   6.096   0.265   3.050
32471SOL     OW99309   8.738   6.460   4.850
32471SOL    HW199310   8.645   6.444   4.867
32471SOL    HW299311   8.744   6.554   4.833
32472SOL     OW99312   8.731   5.918   3.259
32472SOL    HW199313   8.653   5.959   3.297
32472SOL    HW299314   8.792   5.990   3.244
32473SOL     OW99315  11.412   0.057   2.083
32473SOL    HW199316  11.481   0.020   2.027
32473SOL    HW299317  11.371  14.868   2.124
32474SOL     OW99318   4.288  14.453   8.347
32474SOL    HW199319   4.257  14.541   8.326
32474SOL    HW299320   4.378  14.450   8.315
32475SOL     OW99321  11.722  13.136   4.687
32475SOL    HW199322  11.634  13.104   4.707
32475SOL    HW299323  11.716  13.231   4.698
32476SOL     OW99324   0.822   9.822   9.198
32476SOL    HW199325   0.792   9.887   9.262
32476SOL    HW299326   0.770   9.840   9.120
32477SOL     OW99327  11.503   7.449   5.303
32477SOL    HW199328  11.458   7.422   5.383
32477SOL    HW299329  11.476   7.541   5.291
32478SOL     OW99330   2.765   6.749   7.026
32478SOL    HW199331   2.689   6.698   7.054
32478SOL    HW299332   2.747   6.771   6.935
32479SOL     OW99333   0.595   5.010  12.579
32479SOL    HW199334   0.547   5.056  12.647
32479SOL    HW299335   0.537   4.939  12.552
32480SOL     OW99336  14.531  13.373   2.845
32480SOL    HW199337  14.504  13.282   2.835
32480SOL    HW299338  14.529  13.388   2.940
32481SOL     OW99339  10.989  10.487   7.297
32481SOL    HW199340  11.036  10.564   7.328
32481SOL    HW299341  10.986  10.498   7.202
32482SOL     OW99342   9.139  10.283   7.415
32482SOL    HW199343   9.200  10.211   7.429
32482SOL    HW299344   9.054  10.241   7.403
32483SOL     OW99345   1.693  12.543   9.420
32483SOL    HW199346   1.743  12.518   9.342
32483SOL    HW299347   1.759  12.574   9.482
32484SOL     OW99348   8.302  12.378   2.125
32484SOL    HW199349   8.226  12.424   2.089
32484SOL    HW299350   8.265  12.303   2.171
32485SOL     OW99351   3.209  11.361  13.124
32485SOL    HW199352   3.234  11.402  13.041
32485SOL    HW299353   3.166  11.432  13.173
32486SOL     OW99354  13.263  12.617   7.179
32486SOL    HW199355  13.319  12.689   7.150
32486SOL    HW299356  13.229  12.578   7.098
32487SOL     OW99357   4.161   8.822  14.234
32487SOL    HW199358   4.147   8.917  14.229
32487SOL    HW299359   4.182   8.806  14.326
32488SOL     OW99360   7.494   2.253   0.674
32488SOL    HW199361   7.503   2.313   0.600
32488SOL    HW299362   7.514   2.306   0.751
32489SOL     OW99363   1.197  12.833   6.263
32489SOL    HW199364   1.208  12.908   6.322
32489SOL    HW299365   1.247  12.763   6.305
32490SOL     OW99366  11.318   8.645   3.021
32490SOL    HW199367  11.374   8.584   3.069
32490SOL    HW299368  11.242   8.658   3.078
32491SOL     OW99369   7.571  12.167   9.584
32491SOL    HW199370   7.613  12.220   9.651
32491SOL    HW299371   7.506  12.225   9.544
32492SOL     OW99372   4.126   3.366  10.798
32492SOL    HW199373   4.175   3.433  10.751
32492SOL    HW299374   4.038   3.370  10.762
32493SOL     OW99375  11.815   6.507  10.383
32493SOL    HW199376  11.771   6.422  10.377
32493SOL    HW299377  11.901   6.486  10.421
32494SOL     OW99378   3.512  10.491   5.471
32494SOL    HW199379   3.572  10.528   5.535
32494SOL    HW299380   3.446  10.559   5.457
32495SOL     OW99381   2.780   7.566   2.554
32495SOL    HW199382   2.693   7.602   2.534
32495SOL    HW299383   2.838   7.642   2.551
32496SOL     OW99384  12.605   0.789  13.617
32496SOL    HW199385  12.621   0.871  13.571
32496SOL    HW299386  12.527   0.752  13.576
32497SOL     OW99387   3.173  14.144   7.765
32497SOL    HW199388   3.162  14.081   7.695
32497SOL    HW299389   3.108  14.119   7.831
32498SOL     OW99390   3.225  11.340   3.853
32498SOL    HW199391   3.258  11.255   3.822
32498SOL    HW299392   3.140  11.349   3.810
32499SOL     OW99393  12.494   5.233   6.026
32499SOL    HW199394  12.439   5.183   5.966
32499SOL    HW299395  12.582   5.224   5.990
32500SOL     OW99396  14.350  10.950   4.554
32500SOL    HW199397  14.403  10.981   4.629
32500SOL    HW299398  14.412  10.948   4.481
32501SOL     OW99399  13.073   7.391   8.247
32501SOL    HW199400  13.114   7.357   8.167
32501SOL    HW299401  12.997   7.335   8.260
32502SOL     OW99402   2.276   5.580  11.601
32502SOL    HW199403   2.308   5.590  11.691
32502SOL    HW299404   2.314   5.653  11.553
32503SOL     OW99405  11.342   3.868   7.920
32503SOL    HW199406  11.346   3.964   7.911
32503SOL    HW299407  11.271   3.853   7.982
32504SOL     OW99408   8.482  13.459   4.625
32504SOL    HW199409   8.410  13.448   4.688
32504SOL    HW299410   8.493  13.373   4.585
32505SOL     OW99411  11.253   9.157   0.154
32505SOL    HW199412  11.163   9.155   0.185
32505SOL    HW299413  11.296   9.222   0.209
32506SOL     OW99414   2.386   8.512   6.768
32506SOL    HW199415   2.382   8.417   6.759
32506SOL    HW299416   2.376   8.545   6.679
32507SOL     OW99417  10.754   3.289   6.938
32507SOL    HW199418  10.727   3.322   7.023
32507SOL    HW299419  10.809   3.214   6.958
32508SOL     OW99420   6.765  12.406  11.075
32508SOL    HW199421   6.690  12.449  11.034
32508SOL    HW299422   6.747  12.412  11.169
32509SOL     OW99423   2.909   9.379  14.245
32509SOL    HW199424   2.866   9.455  14.284
32509SOL    HW299425   2.873   9.304  14.292
32510SOL     OW99426   3.679  13.408   5.444
32510SOL    HW199427   3.744  13.383   5.510
32510SOL    HW299428   3.611  13.454   5.494
32511SOL     OW99429  14.648   9.587   3.292
32511SOL    HW199430  14.673   9.516   3.234
32511SOL    HW299431  14.604   9.651   3.235
32512SOL     OW99432  14.262   6.839   8.326
32512SOL    HW199433  14.186   6.859   8.271
32512SOL    HW299434  14.226   6.829   8.414
32513SOL     OW99435   0.409   6.928   7.055
32513SOL    HW199436   0.330   6.973   7.085
32513SOL    HW299437   0.445   6.984   6.987
32514SOL     OW99438   6.567  10.473  13.478
32514SOL    HW199439   6.545  10.429  13.560
32514SOL    HW299440   6.659  10.449  13.462
32515SOL     OW99441   7.205   5.240   4.379
32515SOL    HW199442   7.230   5.249   4.287
32515SOL    HW299443   7.176   5.328   4.404
32516SOL     OW99444   4.436   5.108  10.592
32516SOL    HW199445   4.454   5.170  10.521
32516SOL    HW299446   4.498   5.133  10.661
32517SOL     OW99447   0.943   0.893  13.821
32517SOL    HW199448   1.010   0.848  13.770
32517SOL    HW299449   0.923   0.833  13.893
32518SOL     OW99450   9.480   9.328  10.752
32518SOL    HW199451   9.393   9.309  10.717
32518SOL    HW299452   9.481   9.285  10.837
32519SOL     OW99453   3.893   7.963   0.850
32519SOL    HW199454   3.975   7.954   0.898
32519SOL    HW299455   3.885   8.056   0.832
32520SOL     OW99456   2.978   4.166   1.200
32520SOL    HW199457   2.986   4.218   1.280
32520SOL    HW299458   2.884   4.150   1.191
32521SOL     OW99459   2.294   4.351   6.229
32521SOL    HW199460   2.231   4.279   6.223
32521SOL    HW299461   2.379   4.309   6.223
32522SOL     OW99462   9.737  10.735  11.016
32522SOL    HW199463   9.700  10.800  10.956
32522SOL    HW299464   9.726  10.651  10.970
32523SOL     OW99465   0.108   5.583   8.713
32523SOL    HW199466   0.014   5.596   8.724
32523SOL    HW299467   0.116   5.496   8.673
32524SOL     OW99468   9.701  14.609   7.097
32524SOL    HW199469   9.698  14.545   7.169
32524SOL    HW299470   9.681  14.693   7.139
32525SOL     OW99471  14.666   8.981   7.359
32525SOL    HW199472  14.710   8.966   7.276
32525SOL    HW299473  14.731   8.960   7.425
32526SOL     OW99474   4.579  13.650   1.122
32526SOL    HW199475   4.665  13.693   1.126
32526SOL    HW299476   4.524  13.709   1.071
32527SOL     OW99477   4.043  14.863   0.461
32527SOL    HW199478   4.004  14.778   0.481
32527SOL    HW299479   4.017  14.880   0.370
32528SOL     OW99480  12.122   5.598   9.810
32528SOL    HW199481  12.204   5.549   9.805
32528SOL    HW299482  12.068   5.560   9.741
32529SOL     OW99483   8.140   1.421   8.556
32529SOL    HW199484   8.181   1.481   8.618
32529SOL    HW299485   8.197   1.423   8.479
32530SOL     OW99486  10.736   7.831  11.058
32530SOL    HW199487  10.757   7.870  11.143
32530SOL    HW299488  10.818   7.791  11.029
32531SOL     OW99489   1.759   2.360   4.552
32531SOL    HW199490   1.689   2.335   4.491
32531SOL    HW299491   1.835   2.378   4.496
32532SOL     OW99492   3.174   6.294   9.475
32532SOL    HW199493   3.121   6.215   9.487
32532SOL    HW299494   3.224   6.277   9.395
32533SOL     OW99495   1.970   6.960  10.889
32533SOL    HW199496   1.921   6.986  10.811
32533SOL    HW299497   1.910   6.904  10.938
32534SOL     OW99498   7.746   1.337   4.940
32534SOL    HW199499   7.677   1.404   4.932
32534SOL    HW299500   7.704   1.256   4.911
32535SOL     OW99501  13.170  13.455   5.134
32535SOL    HW199502  13.158  13.550   5.137
32535SOL    HW299503  13.094  13.420   5.180
32536SOL     OW99504   0.843   8.296   2.399
32536SOL    HW199505   0.790   8.363   2.355
32536SOL    HW299506   0.927   8.297   2.354
32537SOL     OW99507  11.186  10.681   0.400
32537SOL    HW199508  11.105  10.724   0.429
32537SOL    HW299509  11.170  10.588   0.416
32538SOL     OW99510  14.342  13.603   6.374
32538SOL    HW199511  14.270  13.547   6.401
32538SOL    HW299512  14.309  13.692   6.388
32539SOL     OW99513   1.505   8.748   3.359
32539SOL    HW199514   1.525   8.745   3.266
32539SOL    HW299515   1.462   8.832   3.373
32540SOL     OW99516   6.553   1.813  12.729
32540SOL    HW199517   6.624   1.768  12.682
32540SOL    HW299518   6.488   1.745  12.746
32541SOL     OW99519   3.503   9.482   8.650
32541SOL    HW199520   3.454   9.412   8.696
32541SOL    HW299521   3.554   9.524   8.719
32542SOL     OW99522  13.456   7.912   1.615
32542SOL    HW199523  13.365   7.891   1.634
32542SOL    HW299524  13.496   7.827   1.594
32543SOL     OW99525   1.091   2.074   2.302
32543SOL    HW199526   1.094   2.154   2.249
32543SOL    HW299527   1.174   2.072   2.348
32544SOL     OW99528   0.241   4.510   7.060
32544SOL    HW199529   0.227   4.417   7.043
32544SOL    HW299530   0.191   4.528   7.140
32545SOL     OW99531   8.549  12.989  12.204
32545SOL    HW199532   8.483  13.022  12.143
32545SOL    HW299533   8.503  12.922  12.255
32546SOL     OW99534   8.172   7.707   6.477
32546SOL    HW199535   8.095   7.734   6.428
32546SOL    HW299536   8.154   7.733   6.567
32547SOL     OW99537  14.548  10.538  12.608
32547SOL    HW199538  14.464  10.512  12.646
32547SOL    HW299539  14.541  10.632  12.595
32548SOL     OW99540   5.824  14.596   1.139
32548SOL    HW199541   5.842  14.592   1.045
32548SOL    HW299542   5.736  14.558   1.148
32549SOL     OW99543   2.950   8.991   5.220
32549SOL    HW199544   3.039   8.972   5.193
32549SOL    HW299545   2.950   8.979   5.315
32550SOL     OW99546   3.442  12.090   9.733
32550SOL    HW199547   3.496  12.021   9.772
32550SOL    HW299548   3.361  12.046   9.707
32551SOL     OW99549  12.839   6.360  12.960
32551SOL    HW199550  12.790   6.283  12.989
32551SOL    HW299551  12.773   6.427  12.945
32552SOL     OW99552   5.710  12.636   6.442
32552SOL    HW199553   5.777  12.577   6.477
32552SOL    HW299554   5.629  12.606   6.483
32553SOL     OW99555   8.408   4.292  13.507
32553SOL    HW199556   8.320   4.328  13.504
32553SOL    HW299557   8.398   4.201  13.477
32554SOL     OW99558  10.158   0.691   6.988
32554SOL    HW199559  10.242   0.647   7.002
32554SOL    HW299560  10.136   0.672   6.897
32555SOL     OW99561   8.390   3.455  12.695
32555SOL    HW199562   8.427   3.543  12.688
32555SOL    HW299563   8.367   3.446  12.788
32556SOL     OW99564   6.677   0.373  10.791
32556SOL    HW199565   6.707   0.464  10.783
32556SOL    HW299566   6.695   0.350  10.882
32557SOL     OW99567   6.744  14.547   0.457
32557SOL    HW199568   6.661  14.517   0.494
32557SOL    HW299569   6.809  14.485   0.489
32558SOL     OW99570   6.969   4.723  10.819
32558SOL    HW199571   6.929   4.753  10.738
32558SOL    HW299572   7.056   4.764  10.819
32559SOL     OW99573   5.371   7.547   9.232
32559SOL    HW199574   5.377   7.487   9.306
32559SOL    HW299575   5.450   7.600   9.238
32560SOL     OW99576   5.399   7.770  13.941
32560SOL    HW199577   5.323   7.747  13.994
32560SOL    HW299578   5.455   7.820  13.999
32561SOL     OW99579   6.283  12.559  13.040
32561SOL    HW199580   6.261  12.501  13.113
32561SOL    HW299581   6.318  12.638  13.081
32562SOL     OW99582  12.065   0.931  13.152
32562SOL    HW199583  12.100   0.947  13.240
32562SOL    HW299584  11.983   0.885  13.167
32563SOL     OW99585   6.150   2.164   7.080
32563SOL    HW199586   6.108   2.151   6.995
32563SOL    HW299587   6.083   2.204   7.135
32564SOL     OW99588   6.160  10.791   0.855
32564SOL    HW199589   6.127  10.723   0.913
32564SOL    HW299590   6.254  10.773   0.846
32565SOL     OW99591  12.083   4.317   5.775
32565SOL    HW199592  12.017   4.337   5.841
32565SOL    HW299593  12.063   4.227   5.749
32566SOL     OW99594   4.062  11.155   9.883
32566SOL    HW199595   4.043  11.092   9.814
32566SOL    HW299596   4.083  11.236   9.836
32567SOL     OW99597  10.147   8.184  10.334
32567SOL    HW199598  10.242   8.196  10.339
32567SOL    HW299599  10.113   8.239  10.405
32568SOL     OW99600   9.134   9.995   7.921
32568SOL    HW199601   9.149   9.923   7.983
32568SOL    HW299602   9.062  10.045   7.960
32569SOL     OW99603  10.020  10.154   9.096
32569SOL    HW199604  10.107  10.125   9.122
32569SOL    HW299605   9.964  10.078   9.112
32570SOL     OW99606  12.439   7.942  12.215
32570SOL    HW199607  12.400   7.973  12.297
32570SOL    HW299608  12.375   7.965  12.148
32571SOL     OW99609  11.146   1.998  14.429
32571SOL    HW199610  11.106   2.009  14.343
32571SOL    HW299611  11.206   2.072  14.437
32572SOL     OW99612   9.929   2.422  12.936
32572SOL    HW199613   9.889   2.407  12.851
32572SOL    HW299614   9.881   2.497  12.972
32573SOL     OW99615   5.517  11.841   2.652
32573SOL    HW199616   5.495  11.912   2.592
32573SOL    HW299617   5.432  11.806   2.681
32574SOL     OW99618   3.306  11.972  12.868
32574SOL    HW199619   3.297  11.904  12.934
32574SOL    HW299620   3.398  11.971  12.844
32575SOL     OW99621  13.247  10.549   6.437
32575SOL    HW199622  13.302  10.615   6.394
32575SOL    HW299623  13.288  10.466   6.415
32576SOL     OW99624   1.109   1.300   4.823
32576SOL    HW199625   1.162   1.286   4.744
32576SOL    HW299626   1.158   1.365   4.873
32577SOL     OW99627   5.334   3.315   3.762
32577SOL    HW199628   5.272   3.258   3.808
32577SOL    HW299629   5.350   3.387   3.824
32578SOL     OW99630   8.649   4.671   6.739
32578SOL    HW199631   8.669   4.657   6.647
32578SOL    HW299632   8.620   4.762   6.744
32579SOL     OW99633   8.653   9.217   0.540
32579SOL    HW199634   8.599   9.227   0.462
32579SOL    HW299635   8.620   9.283   0.601
32580SOL     OW99636   7.048   5.032   3.829
32580SOL    HW199637   6.969   5.080   3.804
32580SOL    HW299638   7.116   5.064   3.770
32581SOL     OW99639  13.616   7.292  10.697
32581SOL    HW199640  13.586   7.373  10.737
32581SOL    HW299641  13.711   7.292  10.713
32582SOL     OW99642  13.625   3.649   3.981
32582SOL    HW199643  13.553   3.677   4.037
32582SOL    HW299644  13.703   3.690   4.018
32583SOL     OW99645   5.960  10.157   5.275
32583SOL    HW199646   6.026  10.094   5.246
32583SOL    HW299647   5.938  10.130   5.364
32584SOL     OW99648  12.814   2.864   6.787
32584SOL    HW199649  12.798   2.904   6.701
32584SOL    HW299650  12.767   2.780   6.783
32585SOL     OW99651  14.347   7.938   3.333
32585SOL    HW199652  14.308   7.961   3.417
32585SOL    HW299653  14.285   7.875   3.295
32586SOL     OW99654  10.692   2.683  11.174
32586SOL    HW199655  10.775   2.728  11.188
32586SOL    HW299656  10.657   2.670  11.262
32587SOL     OW99657   6.879  13.645   6.977
32587SOL    HW199658   6.895  13.685   7.062
32587SOL    HW299659   6.966  13.637   6.937
32588SOL     OW99660  12.341   7.201   6.173
32588SOL    HW199661  12.322   7.133   6.237
32588SOL    HW299662  12.434   7.191   6.154
32589SOL     OW99663  10.369   9.766   6.074
32589SOL    HW199664  10.309   9.769   6.000
32589SOL    HW299665  10.324   9.714   6.140
32590SOL     OW99666  10.082  14.246   6.731
32590SOL    HW199667  10.133  14.279   6.806
32590SOL    HW299668  10.141  14.186   6.686
32591SOL     OW99669   1.738   9.109   6.808
32591SOL    HW199670   1.686   9.084   6.884
32591SOL    HW299671   1.706   9.053   6.737
32592SOL     OW99672   3.505  12.425  12.439
32592SOL    HW199673   3.506  12.375  12.358
32592SOL    HW299674   3.591  12.468  12.442
32593SOL     OW99675  13.308  11.932   9.607
32593SOL    HW199676  13.327  12.022   9.631
32593SOL    HW299677  13.385  11.882   9.637
32594SOL     OW99678  12.860   0.501  12.229
32594SOL    HW199679  12.781   0.485  12.177
32594SOL    HW299680  12.828   0.510  12.319
32595SOL     OW99681   9.599  10.509   8.489
32595SOL    HW199682   9.643  10.477   8.410
32595SOL    HW299683   9.516  10.461   8.491
32596SOL     OW99684   1.708   4.923   8.749
32596SOL    HW199685   1.706   4.839   8.702
32596SOL    HW299686   1.682   4.901   8.838
32597SOL     OW99687  12.523  12.220   1.125
32597SOL    HW199688  12.541  12.140   1.174
32597SOL    HW299689  12.593  12.280   1.149
32598SOL     OW99690   4.429  13.249   5.369
32598SOL    HW199691   4.515  13.218   5.343
32598SOL    HW299692   4.445  13.305   5.445
32599SOL     OW99693   1.447  13.896   8.948
32599SOL    HW199694   1.468  13.964   8.883
32599SOL    HW299695   1.472  13.814   8.906
32600SOL     OW99696  13.942   6.642   4.329
32600SOL    HW199697  13.950   6.618   4.422
32600SOL    HW299698  13.847   6.644   4.313
32601SOL     OW99699   7.084  12.250  11.301
32601SOL    HW199700   7.049  12.163  11.321
32601SOL    HW299701   7.153  12.235  11.237
32602SOL     OW99702  11.245   7.420  12.927
32602SOL    HW199703  11.207   7.395  13.011
32602SOL    HW299704  11.285   7.339  12.894
32603SOL     OW99705   6.215  13.889   3.525
32603SOL    HW199706   6.152  13.858   3.460
32603SOL    HW299707   6.298  13.897   3.477
32604SOL     OW99708  10.988   2.551  13.298
32604SOL    HW199709  10.972   2.469  13.344
32604SOL    HW299710  11.083   2.557  13.291
32605SOL     OW99711   9.373   6.235  11.874
32605SOL    HW199712   9.397   6.269  11.788
32605SOL    HW299713   9.281   6.260  11.884
32606SOL     OW99714   4.362   6.935  12.647
32606SOL    HW199715   4.326   6.995  12.581
32606SOL    HW299716   4.436   6.982  12.684
32607SOL     OW99717  13.280   5.228   1.209
32607SOL    HW199718  13.228   5.250   1.132
32607SOL    HW299719  13.364   5.197   1.174
32608SOL     OW99720   5.479  11.551  13.778
32608SOL    HW199721   5.409  11.616  13.771
32608SOL    HW299722   5.509  11.558  13.868
32609SOL     OW99723   4.997  13.811   1.876
32609SOL    HW199724   5.089  13.819   1.853
32609SOL    HW299725   4.974  13.721   1.853
32610SOL     OW99726   9.205  14.465  13.567
32610SOL    HW199727   9.184  14.384  13.614
32610SOL    HW299728   9.177  14.535  13.627
32611SOL     OW99729  14.811   0.414   0.555
32611SOL    HW199730  14.854   0.474   0.494
32611SOL    HW299731  14.744   0.467   0.598
32612SOL     OW99732   0.928   6.392   6.024
32612SOL    HW199733   0.874   6.464   6.058
32612SOL    HW299734   0.889   6.313   6.062
32613SOL     OW99735   8.530   8.139  13.171
32613SOL    HW199736   8.603   8.186  13.132
32613SOL    HW299737   8.496   8.198  13.238
32614SOL     OW99738   8.773   0.292  10.380
32614SOL    HW199739   8.814   0.293  10.294
32614SOL    HW299740   8.784   0.202  10.411
32615SOL     OW99741  13.412   1.563   6.482
32615SOL    HW199742  13.360   1.524   6.412
32615SOL    HW299743  13.400   1.657   6.471
32616SOL     OW99744   9.857   7.624  13.528
32616SOL    HW199745   9.889   7.549  13.577
32616SOL    HW299746   9.821   7.683  13.594
32617SOL     OW99747   8.437  13.020   4.316
32617SOL    HW199748   8.420  12.926   4.310
32617SOL    HW299749   8.532  13.028   4.304
32618SOL     OW99750  14.667   5.826  14.089
32618SOL    HW199751  14.622   5.910  14.085
32618SOL    HW299752  14.694   5.808  13.999
32619SOL     OW99753   8.843  11.218   0.733
32619SOL    HW199754   8.787  11.283   0.775
32619SOL    HW299755   8.788  11.179   0.665
32620SOL     OW99756   5.465   7.654   3.632
32620SOL    HW199757   5.469   7.640   3.727
32620SOL    HW299758   5.499   7.573   3.594
32621SOL     OW99759   0.562   3.147  11.769
32621SOL    HW199760   0.642   3.192  11.795
32621SOL    HW299761   0.569   3.138  11.674
32622SOL     OW99762  13.686   3.387   8.810
32622SOL    HW199763  13.675   3.296   8.836
32622SOL    HW299764  13.778   3.406   8.829
32623SOL     OW99765   9.753  10.035   8.257
32623SOL    HW199766   9.777   9.952   8.297
32623SOL    HW299767   9.792  10.033   8.170
32624SOL     OW99768   2.716   5.189   8.532
32624SOL    HW199769   2.654   5.221   8.467
32624SOL    HW299770   2.674   5.209   8.616
32625SOL     OW99771   3.078  14.401   6.158
32625SOL    HW199772   3.124  14.354   6.089
32625SOL    HW299773   3.114  14.365   6.239
32626SOL     OW99774   4.428  11.772   0.769
32626SOL    HW199775   4.347  11.818   0.790
32626SOL    HW299776   4.404  11.679   0.769
32627SOL     OW99777  10.189   2.652  11.455
32627SOL    HW199778  10.131   2.724  11.431
32627SOL    HW299779  10.233   2.628  11.374
32628SOL     OW99780   9.112   6.947   8.835
32628SOL    HW199781   9.154   6.862   8.829
32628SOL    HW299782   9.027   6.929   8.875
32629SOL     OW99783   4.820  12.535  14.426
32629SOL    HW199784   4.838  12.594  14.353
32629SOL    HW299785   4.726  12.544  14.442
32630SOL     OW99786   0.108   1.381   3.584
32630SOL    HW199787   0.081   1.358   3.495
32630SOL    HW299788   0.076   1.308   3.638
32631SOL     OW99789   8.326   4.951   2.418
32631SOL    HW199790   8.248   5.007   2.419
32631SOL    HW299791   8.395   5.008   2.383
32632SOL     OW99792   1.478   5.851   9.274
32632SOL    HW199793   1.460   5.855   9.368
32632SOL    HW299794   1.429   5.775   9.244
32633SOL     OW99795   7.738   8.202  11.214
32633SOL    HW199796   7.765   8.250  11.135
32633SOL    HW299797   7.805   8.135  11.225
32634SOL     OW99798   0.198   6.422   6.929
32634SOL    HW199799   0.219   6.503   6.976
32634SOL    HW299800   0.157   6.452   6.848
32635SOL     OW99801  12.281   5.814   2.092
32635SOL    HW199802  12.263   5.723   2.112
32635SOL    HW299803  12.367   5.831   2.131
32636SOL     OW99804  10.629  12.796   6.761
32636SOL    HW199805  10.711  12.842   6.742
32636SOL    HW299806  10.656  12.708   6.786
32637SOL     OW99807   9.076   1.244   2.207
32637SOL    HW199808   9.074   1.339   2.215
32637SOL    HW299809   9.002   1.223   2.150
32638SOL     OW99810   7.278   4.409   2.729
32638SOL    HW199811   7.317   4.497   2.729
32638SOL    HW299812   7.317   4.366   2.805
32639SOL     OW99813   7.177  12.260   9.373
32639SOL    HW199814   7.119  12.335   9.360
32639SOL    HW299815   7.139  12.191   9.319
32640SOL     OW99816   7.595   0.174   2.068
32640SOL    HW199817   7.604   0.184   1.973
32640SOL    HW299818   7.557   0.257   2.097
32641SOL     OW99819   0.606   4.248  12.452
32641SOL    HW199820   0.540   4.308  12.487
32641SOL    HW299821   0.637   4.201  12.529
32642SOL     OW99822   9.071   1.215   9.380
32642SOL    HW199823   8.986   1.173   9.391
32642SOL    HW299824   9.086   1.213   9.285
32643SOL     OW99825  13.006   2.071   2.206
32643SOL    HW199826  13.052   2.012   2.145
32643SOL    HW299827  13.026   2.159   2.174
32644SOL     OW99828   6.843  11.868   9.849
32644SOL    HW199829   6.757  11.890   9.814
32644SOL    HW299830   6.825  11.829   9.935
32645SOL     OW99831  11.106  13.364  11.697
32645SOL    HW199832  11.088  13.457  11.708
32645SOL    HW299833  11.124  13.353  11.604
32646SOL     OW99834  11.443   8.497  11.490
32646SOL    HW199835  11.366   8.494  11.434
32646SOL    HW299836  11.409   8.481  11.578
32647SOL     OW99837   8.698   8.862   7.559
32647SOL    HW199838   8.764   8.869   7.491
32647SOL    HW299839   8.747   8.874   7.641
32648SOL     OW99840   6.153   1.109   7.906
32648SOL    HW199841   6.222   1.042   7.907
32648SOL    HW299842   6.072   1.060   7.896
32649SOL     OW99843  13.749   2.296  11.126
32649SOL    HW199844  13.798   2.225  11.167
32649SOL    HW299845  13.718   2.260  11.043
32650SOL     OW99846   5.119   8.586   1.221
32650SOL    HW199847   5.051   8.547   1.166
32650SOL    HW299848   5.076   8.660   1.262
32651SOL     OW99849   5.929   4.303   9.952
32651SOL    HW199850   5.909   4.285  10.044
32651SOL    HW299851   5.848   4.283   9.906
32652SOL     OW99852   2.086   3.486  14.431
32652SOL    HW199853   2.007   3.521  14.390
32652SOL    HW299854   2.076   3.508  14.524
32653SOL     OW99855   8.654   7.594   9.453
32653SOL    HW199856   8.726   7.540   9.421
32653SOL    HW299857   8.651   7.668   9.393
32654SOL     OW99858   0.405   6.230   7.608
32654SOL    HW199859   0.391   6.157   7.548
32654SOL    HW299860   0.364   6.305   7.564
32655SOL     OW99861   8.596  13.691  12.997
32655SOL    HW199862   8.626  13.743  13.072
32655SOL    HW299863   8.582  13.604  13.032
32656SOL     OW99864   4.715   1.434   0.399
32656SOL    HW199865   4.770   1.505   0.430
32656SOL    HW299866   4.742   1.358   0.450
32657SOL     OW99867   4.714  12.938  10.236
32657SOL    HW199868   4.762  12.857  10.220
32657SOL    HW299869   4.665  12.922  10.316
32658SOL     OW99870  10.953  12.173  12.731
32658SOL    HW199871  10.947  12.264  12.703
32658SOL    HW299872  11.006  12.176  12.811
32659SOL     OW99873  10.943  12.496   2.926
32659SOL    HW199874  10.946  12.529   2.836
32659SOL    HW299875  10.916  12.405   2.917
32660SOL     OW99876  11.822   4.095   3.712
32660SOL    HW199877  11.904   4.142   3.726
32660SOL    HW299878  11.846   4.003   3.716
32661SOL     OW99879   0.008  11.243   8.022
32661SOL    HW199880  14.865  11.212   8.107
32661SOL    HW299881   0.068  11.315   8.043
32662SOL     OW99882   8.619   7.504   0.348
32662SOL    HW199883   8.670   7.500   0.429
32662SOL    HW299884   8.564   7.425   0.350
32663SOL     OW99885  10.832   6.345  11.460
32663SOL    HW199886  10.860   6.432  11.488
32663SOL    HW299887  10.847   6.345  11.365
32664SOL     OW99888   5.708   4.790  10.197
32664SOL    HW199889   5.625   4.762  10.235
32664SOL    HW299890   5.757   4.826  10.271
32665SOL     OW99891   3.920   5.412   2.852
32665SOL    HW199892   3.988   5.445   2.911
32665SOL    HW299893   3.876   5.343   2.903
32666SOL     OW99894  11.562   3.882  11.845
32666SOL    HW199895  11.616   3.960  11.854
32666SOL    HW299896  11.476   3.908  11.878
32667SOL     OW99897  11.403  12.975  12.891
32667SOL    HW199898  11.413  12.932  12.807
32667SOL    HW299899  11.332  13.038  12.878
32668SOL     OW99900   9.220  12.814   2.558
32668SOL    HW199901   9.247  12.726   2.583
32668SOL    HW299902   9.159  12.841   2.626
32669SOL     OW99903  12.131   9.417   3.118
32669SOL    HW199904  12.144   9.423   3.023
32669SOL    HW299905  12.098   9.329   3.132
32670SOL     OW99906   8.593  12.609  10.166
32670SOL    HW199907   8.678  12.628  10.124
32670SOL    HW299908   8.564  12.693  10.200
32671SOL     OW99909   1.189   8.858   2.002
32671SOL    HW199910   1.218   8.838   1.913
32671SOL    HW299911   1.159   8.775   2.037
32672SOL     OW99912  11.081   9.817  10.058
32672SOL    HW199913  11.150   9.753  10.075
32672SOL    HW299914  11.096   9.886  10.123
32673SOL     OW99915   7.267   8.859  11.025
32673SOL    HW199916   7.264   8.790  11.092
32673SOL    HW299917   7.175   8.874  11.002
32674SOL     OW99918  13.301  11.958  10.466
32674SOL    HW199919  13.392  11.974  10.490
32674SOL    HW299920  13.298  11.974  10.372
32675SOL     OW99921  13.385  13.594   8.145
32675SOL    HW199922  13.329  13.519   8.169
32675SOL    HW299923  13.326  13.654   8.099
32676SOL     OW99924   4.524  13.133   8.300
32676SOL    HW199925   4.587  13.149   8.229
32676SOL    HW299926   4.513  13.219   8.341
32677SOL     OW99927   4.896   0.105   5.557
32677SOL    HW199928   4.821   0.057   5.592
32677SOL    HW299929   4.872   0.197   5.567
32678SOL     OW99930   2.573   7.316   0.754
32678SOL    HW199931   2.488   7.272   0.747
32678SOL    HW299932   2.561   7.400   0.709
32679SOL     OW99933  11.954  10.388  13.270
32679SOL    HW199934  11.929  10.447  13.199
32679SOL    HW299935  12.006  10.320  13.227
32680SOL     OW99936   1.031   8.079   9.931
32680SOL    HW199937   0.950   8.129   9.916
32680SOL    HW299938   1.037   8.019   9.857
32681SOL     OW99939   6.051  11.705   1.361
32681SOL    HW199940   6.095  11.653   1.294
32681SOL    HW299941   6.115  11.771   1.386
32682SOL     OW99942   1.946   0.214  14.496
32682SOL    HW199943   1.906   0.132  14.469
32682SOL    HW299944   1.938   0.215  14.592
32683SOL     OW99945   7.524  14.075   6.051
32683SOL    HW199946   7.602  14.116   6.014
32683SOL    HW299947   7.551  14.043   6.137
32684SOL     OW99948   2.677  11.286   9.358
32684SOL    HW199949   2.738  11.212   9.367
32684SOL    HW299950   2.597  11.247   9.324
32685SOL     OW99951  12.982   7.934   4.937
32685SOL    HW199952  12.992   7.864   4.873
32685SOL    HW299953  12.898   7.975   4.915
32686SOL     OW99954  10.804   0.494   8.917
32686SOL    HW199955  10.733   0.435   8.944
32686SOL    HW299956  10.884   0.446   8.939
32687SOL     OW99957  10.602  12.118   5.088
32687SOL    HW199958  10.629  12.203   5.123
32687SOL    HW299959  10.657  12.106   5.011
32688SOL     OW99960   4.979   6.020  11.257
32688SOL    HW199961   4.981   5.980  11.170
32688SOL    HW299962   4.914   5.971  11.306
32689SOL     OW99963   5.446  10.848  14.348
32689SOL    HW199964   5.381  10.788  14.385
32689SOL    HW299965   5.513  10.856  14.417
32690SOL     OW99966   0.963   4.838   3.515
32690SOL    HW199967   0.879   4.819   3.557
32690SOL    HW299968   0.983   4.928   3.539
32691SOL     OW99969   6.648   5.028   5.980
32691SOL    HW199970   6.642   4.982   5.897
32691SOL    HW299971   6.729   5.078   5.975
32692SOL     OW99972   9.580   1.542   4.032
32692SOL    HW199973   9.583   1.481   3.959
32692SOL    HW299974   9.526   1.614   4.001
32693SOL     OW99975  13.151   0.187   4.146
32693SOL    HW199976  13.215   0.118   4.130
32693SOL    HW299977  13.066   0.143   4.132
32694SOL     OW99978   7.343   4.544  12.568
32694SOL    HW199979   7.267   4.499  12.531
32694SOL    HW299980   7.393   4.475  12.611
32695SOL     OW99981   4.466   9.913   7.169
32695SOL    HW199982   4.545   9.967   7.176
32695SOL    HW299983   4.499   9.825   7.152
32696SOL     OW99984  13.015  11.701   1.095
32696SOL    HW199985  13.068  11.753   1.035
32696SOL    HW299986  12.933  11.687   1.049
32697SOL     OW99987   8.795   7.820   0.967
32697SOL    HW199988   8.749   7.876   0.905
32697SOL    HW299989   8.758   7.844   1.052
32698SOL     OW99990   7.389   3.117  13.729
32698SOL    HW199991   7.476   3.155  13.719
32698SOL    HW299992   7.399   3.048  13.795
32699SOL     OW99993   0.248   6.923  11.918
32699SOL    HW199994   0.285   6.925  12.007
32699SOL    HW299995   0.318   6.888  11.863
32700SOL     OW99996   6.012  12.304  14.322
32700SOL    HW199997   5.990  12.288  14.231
32700SOL    HW299998   6.096  12.351  14.319
32701SOL     OW99999  11.992   9.252   4.724
32701SOL    HW1    0  11.967   9.273   4.814
32701SOL    HW2    1  11.987   9.336   4.677
32702SOL     OW    2   7.326  14.260   1.107
32702SOL    HW1    3   7.421  14.261   1.124
32702SOL    HW2    4   7.314  14.192   1.042
32703SOL     OW    5  14.033   6.144   7.423
32703SOL    HW1    6  14.084   6.201   7.367
32703SOL    HW2    7  14.080   6.061   7.422
32704SOL     OW    8  14.425   8.250   3.193
32704SOL    HW1    9  14.413   8.191   3.267
32704SOL    HW2   10  14.370   8.325   3.213
32705SOL     OW   11  10.355  11.904  11.454
32705SOL    HW1   12  10.322  11.960  11.383
32705SOL    HW2   13  10.326  11.816  11.430
32706SOL     OW   14   2.470   1.116   8.271
32706SOL    HW1   15   2.539   1.101   8.335
32706SOL    HW2   16   2.434   1.030   8.252
32707SOL     OW   17   3.882   3.720   0.739
32707SOL    HW1   18   3.867   3.764   0.655
32707SOL    HW2   19   3.977   3.723   0.751
32708SOL     OW   20   9.517   9.840   4.310
32708SOL    HW1   21   9.421   9.834   4.312
32708SOL    HW2   22   9.537   9.855   4.218
32709SOL     OW   23   4.137   0.013   1.709
32709SOL    HW1   24   4.217  14.868   1.669
32709SOL    HW2   25   4.085   0.045   1.635
32710SOL     OW   26   1.451   4.554  12.357
32710SOL    HW1   27   1.404   4.486  12.309
32710SOL    HW2   28   1.382   4.607  12.397
32711SOL     OW   29  13.692   9.877   3.983
32711SOL    HW1   30  13.777   9.836   3.967
32711SOL    HW2   31  13.696   9.906   4.074
32712SOL     OW   32   5.998   1.319   4.686
32712SOL    HW1   33   5.927   1.281   4.633
32712SOL    HW2   34   6.068   1.336   4.623
32713SOL     OW   35   8.838  13.732   5.316
32713SOL    HW1   36   8.871  13.801   5.374
32713SOL    HW2   37   8.917  13.686   5.288
32714SOL     OW   38   5.925  14.886  12.749
32714SOL    HW1   39   5.989  14.887  12.820
32714SOL    HW2   40   5.847  14.845  12.788
32715SOL     OW   41  14.017   4.427  14.832
32715SOL    HW1   42  13.956   4.497  14.808
32715SOL    HW2   43  14.092   4.441  14.774
32716SOL     OW   44  14.860   1.563   6.400
32716SOL    HW1   45   0.054   1.552   6.449
32716SOL    HW2   46  14.863   1.495   6.332
32717SOL     OW   47  11.235   6.269   4.701
32717SOL    HW1   48  11.192   6.328   4.762
32717SOL    HW2   49  11.318   6.310   4.680
32718SOL     OW   50   1.099   9.038  11.447
32718SOL    HW1   51   1.063   8.970  11.504
32718SOL    HW2   52   1.145   9.097  11.506
32719SOL     OW   53   4.557   4.867   3.134
32719SOL    HW1   54   4.575   4.961   3.136
32719SOL    HW2   55   4.468   4.859   3.167
32720SOL     OW   56   9.019  12.049   9.863
32720SOL    HW1   57   9.094  12.106   9.880
32720SOL    HW2   58   9.001  12.006   9.947
32721SOL     OW   59   2.679  12.467   0.898
32721SOL    HW1   60   2.585  12.463   0.918
32721SOL    HW2   61   2.722  12.458   0.983
32722SOL     OW   62   0.575  10.649  11.116
32722SOL    HW1   63   0.563  10.725  11.058
32722SOL    HW2   64   0.670  10.641  11.125
32723SOL     OW   65   7.483   5.656   2.891
32723SOL    HW1   66   7.498   5.561   2.887
32723SOL    HW2   67   7.410   5.666   2.952
32724SOL     OW   68   1.403  10.507   9.966
32724SOL    HW1   69   1.409  10.572   9.896
32724SOL    HW2   70   1.350  10.436   9.928
32725SOL     OW   71  14.218   6.789  14.572
32725SOL    HW1   72  14.177   6.704  14.557
32725SOL    HW2   73  14.223   6.797  14.667
32726SOL     OW   74  12.749   4.897   7.352
32726SOL    HW1   75  12.795   4.835   7.408
32726SOL    HW2   76  12.675   4.848   7.318
32727SOL     OW   77  11.207  12.463  10.671
32727SOL    HW1   78  11.145  12.455  10.744
32727SOL    HW2   79  11.259  12.383  10.675
32728SOL     OW   80   7.565   7.943  10.159
32728SOL    HW1   81   7.519   8.021  10.191
32728SOL    HW2   82   7.533   7.933  10.069
32729SOL     OW   83  12.452   9.399  11.444
32729SOL    HW1   84  12.505   9.406  11.364
32729SOL    HW2   85  12.477   9.476  11.496
32730SOL     OW   86   4.947   5.319   9.846
32730SOL    HW1   87   4.930   5.235   9.888
32730SOL    HW2   88   5.042   5.332   9.857
32731SOL     OW   89   6.293   7.485   0.557
32731SOL    HW1   90   6.237   7.448   0.625
32731SOL    HW2   91   6.346   7.411   0.527
32732SOL     OW   92  12.679  10.713  10.402
32732SOL    HW1   93  12.601  10.755  10.364
32732SOL    HW2   94  12.660  10.619  10.398
32733SOL     OW   95  14.618  13.083   0.186
32733SOL    HW1   96  14.611  12.991   0.160
32733SOL    HW2   97  14.531  13.120   0.169
32734SOL     OW   98   0.743  11.387   5.541
32734SOL    HW1   99   0.805  11.320   5.570
32734SOL    HW2  100   0.793  11.441   5.480
32735SOL     OW  101  10.247   7.331  12.088
32735SOL    HW1  102  10.229   7.420  12.058
32735SOL    HW2  103  10.342   7.322  12.084
32736SOL     OW  104   3.599  12.031   3.383
32736SOL    HW1  105   3.681  12.006   3.342
32736SOL    HW2  106   3.567  12.104   3.330
32737SOL     OW  107   6.909   9.903   4.428
32737SOL    HW1  108   6.842   9.939   4.370
32737SOL    HW2  109   6.879   9.814   4.447
32738SOL     OW  110  14.787  13.617  11.594
32738SOL    HW1  111  14.786  13.654  11.505
32738SOL    HW2  112  14.859  13.661  11.638
32739SOL     OW  113  11.588  10.322   6.114
32739SOL    HW1  114  11.522  10.261   6.147
32739SOL    HW2  115  11.670  10.290   6.150
32740SOL     OW  116   1.749   9.995   8.954
32740SOL    HW1  117   1.823   9.934   8.953
32740SOL    HW2  118   1.778  10.066   9.011
32741SOL     OW  119  10.018  10.322  12.366
32741SOL    HW1  120   9.932  10.353  12.336
32741SOL    HW2  121  10.000  10.280  12.450
32742SOL     OW  122   9.516   2.460   4.059
32742SOL    HW1  123   9.586   2.431   3.999
32742SOL    HW2  124   9.438   2.415   4.028
32743SOL     OW  125  12.179   3.943   6.799
32743SOL    HW1  126  12.190   4.020   6.856
32743SOL    HW2  127  12.138   3.877   6.855
32744SOL     OW  128  12.559  10.055   6.715
32744SOL    HW1  129  12.483  10.003   6.741
32744SOL    HW2  130  12.631  10.022   6.768
32745SOL     OW  131  14.442  12.527   3.476
32745SOL    HW1  132  14.469  12.441   3.443
32745SOL    HW2  133  14.437  12.583   3.398
32746SOL     OW  134   8.805  13.186   5.358
32746SOL    HW1  135   8.887  13.148   5.389
32746SOL    HW2  136   8.768  13.120   5.301
32747SOL     OW  137   6.176   3.210   0.604
32747SOL    HW1  138   6.184   3.234   0.697
32747SOL    HW2  139   6.132   3.125   0.605
32748SOL     OW  140   3.089   0.259   3.436
32748SOL    HW1  141   3.071   0.206   3.359
32748SOL    HW2  142   3.074   0.350   3.408
32749SOL     OW  143   0.858   8.344   3.340
32749SOL    HW1  144   0.768   8.346   3.374
32749SOL    HW2  145   0.880   8.251   3.335
32750SOL     OW  146   8.494  13.490   7.398
32750SOL    HW1  147   8.555  13.422   7.368
32750SOL    HW2  148   8.519  13.507   7.489
32751SOL     OW  149   1.773   7.707  11.042
32751SOL    HW1  150   1.791   7.614  11.053
32751SOL    HW2  151   1.678   7.714  11.045
32752SOL     OW  152   9.968   2.126   7.793
32752SOL    HW1  153   9.987   2.065   7.865
32752SOL    HW2  154  10.054   2.145   7.755
32753SOL     OW  155   3.443   3.247   0.632
32753SOL    HW1  156   3.463   3.337   0.608
32753SOL    HW2  157   3.446   3.199   0.550
32754SOL     OW  158   1.850   3.092  12.986
32754SOL    HW1  159   1.843   3.162  13.052
32754SOL    HW2  160   1.902   3.131  12.916
32755SOL     OW  161   1.780   2.787   3.590
32755SOL    HW1  162   1.736   2.798   3.506
32755SOL    HW2  163   1.873   2.784   3.569
32756SOL     OW  164   3.065  10.218  11.052
32756SOL    HW1  165   3.123  10.249  11.121
32756SOL    HW2  166   3.060  10.290  10.990
32757SOL     OW  167   2.393  10.138   7.766
32757SOL    HW1  168   2.426  10.061   7.812
32757SOL    HW2  169   2.455  10.152   7.695
32758SOL     OW  170   5.342  10.349   5.768
32758SOL    HW1  171   5.271  10.371   5.828
32758SOL    HW2  172   5.371  10.261   5.795
32759SOL     OW  173  12.824  11.358   8.229
32759SOL    HW1  174  12.789  11.442   8.261
32759SOL    HW2  175  12.775  11.340   8.149
32760SOL     OW  176  14.503   3.603   0.200
32760SOL    HW1  177  14.528   3.694   0.185
32760SOL    HW2  178  14.534   3.584   0.289
32761SOL     OW  179  11.961  11.642   6.080
32761SOL    HW1  180  11.938  11.631   5.987
32761SOL    HW2  181  11.998  11.558   6.106
32762SOL     OW  182   8.393   6.082   9.587
32762SOL    HW1  183   8.322   6.127   9.539
32762SOL    HW2  184   8.473   6.115   9.546
32763SOL     OW  185   1.600   9.123  14.044
32763SOL    HW1  186   1.528   9.186  14.047
32763SOL    HW2  187   1.674   9.173  14.009
32764SOL     OW  188   4.052  11.932   1.040
32764SOL    HW1  189   4.129  11.948   0.985
32764SOL    HW2  190   4.087  11.892   1.119
32765SOL     OW  191  11.991   0.875  11.803
32765SOL    HW1  192  11.960   0.962  11.829
32765SOL    HW2  193  12.046   0.846  11.875
32766SOL     OW  194   3.394   8.489   1.724
32766SOL    HW1  195   3.320   8.431   1.742
32766SOL    HW2  196   3.450   8.438   1.664
32767SOL     OW  197  12.582   6.110   4.646
32767SOL    HW1  198  12.603   6.186   4.592
32767SOL    HW2  199  12.666   6.065   4.658
32768SOL     OW  200  13.723   0.259  13.206
32768SOL    HW1  201  13.652   0.239  13.267
32768SOL    HW2  202  13.784   0.313  13.257
32769SOL     OW  203  12.663   1.213  13.922
32769SOL    HW1  204  12.680   1.258  13.839
32769SOL    HW2  205  12.746   1.173  13.946
32770SOL     OW  206   6.310  11.201  12.147
32770SOL    HW1  207   6.291  11.148  12.225
32770SOL    HW2  208   6.370  11.268  12.177
32771SOL     OW  209   4.928  11.085   8.095
32771SOL    HW1  210   4.889  11.046   8.016
32771SOL    HW2  211   4.948  11.010   8.150
32772SOL     OW  212   5.143   6.953   2.910
32772SOL    HW1  213   5.166   7.042   2.883
32772SOL    HW2  214   5.077   6.964   2.977
32773SOL     OW  215   5.556  13.831   8.389
32773SOL    HW1  216   5.613  13.766   8.349
32773SOL    HW2  217   5.467  13.800   8.371
32774SOL     OW  218  11.402   8.015  12.688
32774SOL    HW1  219  11.408   7.932  12.641
32774SOL    HW2  220  11.309   8.039  12.682
32775SOL     OW  221  11.671  12.980   4.088
32775SOL    HW1  222  11.719  13.014   4.164
32775SOL    HW2  223  11.582  12.965   4.120
32776SOL     OW  224   4.524   8.092   3.342
32776SOL    HW1  225   4.605   8.043   3.357
32776SOL    HW2  226   4.534   8.171   3.394
32777SOL     OW  227  12.990   4.563   4.097
32777SOL    HW1  228  13.036   4.616   4.162
32777SOL    HW2  229  12.898   4.566   4.123
32778SOL     OW  230   4.116   6.938   4.326
32778SOL    HW1  231   4.148   7.025   4.303
32778SOL    HW2  232   4.057   6.953   4.400
32779SOL     OW  233   2.684   5.870   1.422
32779SOL    HW1  234   2.606   5.855   1.476
32779SOL    HW2  235   2.653   5.860   1.332
32780SOL     OW  236   7.482   9.573   4.295
32780SOL    HW1  237   7.471   9.665   4.318
32780SOL    HW2  238   7.558   9.571   4.237
32781SOL     OW  239   4.281   1.956  13.065
32781SOL    HW1  240   4.364   1.988  13.100
32781SOL    HW2  241   4.229   2.035  13.050
32782SOL     OW  242  11.081   2.331   2.819
32782SOL    HW1  243  11.001   2.380   2.836
32782SOL    HW2  244  11.143   2.361   2.885
32783SOL     OW  245   2.855   9.149   1.937
32783SOL    HW1  246   2.856   9.061   1.899
32783SOL    HW2  247   2.871   9.135   2.030
32784SOL     OW  248  14.362   7.264   8.194
32784SOL    HW1  249  14.340   7.354   8.219
32784SOL    HW2  250  14.367   7.266   8.098
32785SOL     OW  251  13.737   8.659   9.474
32785SOL    HW1  252  13.642   8.662   9.466
32785SOL    HW2  253  13.754   8.652   9.568
32786SOL     OW  254   3.886   3.252   1.901
32786SOL    HW1  255   3.799   3.289   1.917
32786SOL    HW2  256   3.939   3.326   1.873
32787SOL     OW  257   1.515   5.674   8.528
32787SOL    HW1  258   1.598   5.694   8.572
32787SOL    HW2  259   1.459   5.749   8.550
32788SOL     OW  260   3.289  14.735   8.361
32788SOL    HW1  261   3.210  14.700   8.319
32788SOL    HW2  262   3.284  14.702   8.451
32789SOL     OW  263  14.465   2.764   1.454
32789SOL    HW1  264  14.517   2.767   1.374
32789SOL    HW2  265  14.379   2.798   1.429
32790SOL     OW  266  11.986   7.856   6.517
32790SOL    HW1  267  11.998   7.800   6.594
32790SOL    HW2  268  11.941   7.800   6.454
32791SOL     OW  269  10.394   8.407  10.177
32791SOL    HW1  270  10.306   8.384  10.150
32791SOL    HW2  271  10.424   8.333  10.230
32792SOL     OW  272   3.337  11.443   4.087
32792SOL    HW1  273   3.259  11.419   4.038
32792SOL    HW2  274   3.335  11.539   4.091
32793SOL     OW  275  14.055  12.535   5.363
32793SOL    HW1  276  14.044  12.629   5.347
32793SOL    HW2  277  13.970  12.507   5.397
32794SOL     OW  278   0.205   4.900   3.310
32794SOL    HW1  279   0.144   4.967   3.343
32794SOL    HW2  280   0.164   4.868   3.230
32795SOL     OW  281  14.088   7.749   0.088
32795SOL    HW1  282  14.025   7.741   0.159
32795SOL    HW2  283  14.071   7.836   0.051
32796SOL     OW  284   9.705   5.860  11.257
32796SOL    HW1  285   9.680   5.952  11.252
32796SOL    HW2  286   9.787   5.860  11.306
32797SOL     OW  287   9.550   9.149  13.491
32797SOL    HW1  288   9.641   9.155  13.519
32797SOL    HW2  289   9.546   9.200  13.411
32798SOL     OW  290  13.644   5.267  13.019
32798SOL    HW1  291  13.595   5.349  13.032
32798SOL    HW2  292  13.727   5.281  13.065
32799SOL     OW  293   9.418  11.841  12.513
32799SOL    HW1  294   9.342  11.865  12.460
32799SOL    HW2  295   9.429  11.914  12.573
32800SOL     OW  296  13.957   7.760   5.520
32800SOL    HW1  297  13.973   7.726   5.432
32800SOL    HW2  298  14.001   7.845   5.522
32801SOL     OW  299   4.361   4.561   3.526
32801SOL    HW1  300   4.268   4.579   3.537
32801SOL    HW2  301   4.398   4.572   3.614
32802SOL     OW  302   6.450  11.675  14.826
32802SOL    HW1  303   6.439  11.769  14.815
32802SOL    HW2  304   6.405  11.654   0.020
32803SOL     OW  305  11.824  10.352   5.360
32803SOL    HW1  306  11.737  10.312   5.355
32803SOL    HW2  307  11.819  10.409   5.436
32804SOL     OW  308   6.516  13.457   2.638
32804SOL    HW1  309   6.458  13.421   2.705
32804SOL    HW2  310   6.576  13.513   2.687
32805SOL     OW  311   6.793  12.637   0.848
32805SOL    HW1  312   6.809  12.609   0.938
32805SOL    HW2  313   6.702  12.665   0.847
32806SOL     OW  314   2.934  12.393   0.011
32806SOL    HW1  315   3.004  12.343  14.856
32806SOL    HW2  316   2.979  12.458   0.064
32807SOL     OW  317   2.977  10.971   4.198
32807SOL    HW1  318   2.889  11.008   4.193
32807SOL    HW2  319   3.000  10.975   4.291
32808SOL     OW  320  13.872   9.480  10.067
32808SOL    HW1  321  13.792   9.437  10.097
32808SOL    HW2  322  13.844   9.568  10.042
32809SOL     OW  323   3.950   5.019  10.118
32809SOL    HW1  324   3.936   4.926  10.135
32809SOL    HW2  325   3.865   5.051  10.089
32810SOL     OW  326   4.330   6.064   0.771
32810SOL    HW1  327   4.414   6.087   0.731
32810SOL    HW2  328   4.265   6.107   0.716
32811SOL     OW  329  10.199  13.614   7.146
32811SOL    HW1  330  10.179  13.521   7.145
32811SOL    HW2  331  10.113  13.657   7.147
32812SOL     OW  332   4.041   0.135   6.476
32812SOL    HW1  333   3.993   0.218   6.473
32812SOL    HW2  334   4.133   0.162   6.474
32813SOL     OW  335   3.716   0.957  13.983
32813SOL    HW1  336   3.808   0.930  13.983
32813SOL    HW2  337   3.712   1.028  14.047
32814SOL     OW  338   5.878  10.968   2.936
32814SOL    HW1  339   5.839  10.990   3.020
32814SOL    HW2  340   5.847  11.036   2.876
32815SOL     OW  341  12.390   9.009   8.760
32815SOL    HW1  342  12.337   8.955   8.701
32815SOL    HW2  343  12.390   8.962   8.843
32816SOL     OW  344   3.652   1.749  13.398
32816SOL    HW1  345   3.586   1.794  13.346
32816SOL    HW2  346   3.734   1.795  13.380
32817SOL     OW  347   2.805  11.646   5.259
32817SOL    HW1  348   2.837  11.556   5.257
32817SOL    HW2  349   2.884  11.700   5.260
32818SOL     OW  350  11.294   1.417   3.707
32818SOL    HW1  351  11.245   1.402   3.788
32818SOL    HW2  352  11.382   1.384   3.726
32819SOL     OW  353  14.283  10.093   3.413
32819SOL    HW1  354  14.279  10.152   3.338
32819SOL    HW2  355  14.265  10.006   3.377
32820SOL     OW  356  10.417   4.149   5.389
32820SOL    HW1  357  10.389   4.197   5.467
32820SOL    HW2  358  10.427   4.059   5.418
32821SOL     OW  359   7.891   6.264  11.581
32821SOL    HW1  360   7.976   6.237  11.615
32821SOL    HW2  361   7.884   6.220  11.496
32822SOL     OW  362  12.128   5.864   9.896
32822SOL    HW1  363  12.179   5.904   9.826
32822SOL    HW2  364  12.117   5.773   9.868
32823SOL     OW  365   1.754   8.782   5.432
32823SOL    HW1  366   1.662   8.772   5.408
32823SOL    HW2  367   1.753   8.786   5.528
32824SOL     OW  368   4.384   3.762   7.613
32824SOL    HW1  369   4.445   3.690   7.626
32824SOL    HW2  370   4.354   3.753   7.523
32825SOL     OW  371   4.198  12.520  11.525
32825SOL    HW1  372   4.174  12.545  11.614
32825SOL    HW2  373   4.214  12.426  11.530
32826SOL     OW  374   4.642  13.516   9.977
32826SOL    HW1  375   4.570  13.484  10.030
32826SOL    HW2  376   4.606  13.523   9.888
32827SOL     OW  377  13.343  12.496   1.471
32827SOL    HW1  378  13.357  12.586   1.501
32827SOL    HW2  379  13.365  12.498   1.378
32828SOL     OW  380  11.290   1.009   6.997
32828SOL    HW1  381  11.376   0.972   7.016
32828SOL    HW2  382  11.300   1.049   6.910
32829SOL     OW  383  12.883  13.890  11.094
32829SOL    HW1  384  12.920  13.825  11.155
32829SOL    HW2  385  12.815  13.934  11.146
32830SOL     OW  386  11.994   7.335   0.515
32830SOL    HW1  387  11.967   7.322   0.606
32830SOL    HW2  388  11.950   7.265   0.466
32831SOL     OW  389   5.394   9.732  10.475
32831SOL    HW1  390   5.348   9.658  10.435
32831SOL    HW2  391   5.482   9.728  10.437
32832SOL     OW  392   0.937  13.183   6.983
32832SOL    HW1  393   0.855  13.166   7.030
32832SOL    HW2  394   0.936  13.122   6.909
32833SOL     OW  395   6.468  13.411   1.994
32833SOL    HW1  396   6.534  13.352   2.031
32833SOL    HW2  397   6.387  13.388   2.040
32834SOL     OW  398  13.287  13.839   3.592
32834SOL    HW1  399  13.370  13.851   3.638
32834SOL    HW2  400  13.313  13.815   3.503
32835SOL     OW  401  11.772  12.160  10.988
32835SOL    HW1  402  11.820  12.131  10.910
32835SOL    HW2  403  11.723  12.236  10.959
32836SOL     OW  404   4.266  10.763   4.650
32836SOL    HW1  405   4.270  10.857   4.664
32836SOL    HW2  406   4.233  10.728   4.733
32837SOL     OW  407   1.817   4.485   4.956
32837SOL    HW1  408   1.754   4.519   5.020
32837SOL    HW2  409   1.864   4.416   5.002
32838SOL     OW  410   2.898  12.590   7.686
32838SOL    HW1  411   2.940  12.651   7.747
32838SOL    HW2  412   2.805  12.597   7.705
32839SOL     OW  413   1.434   3.244   5.686
32839SOL    HW1  414   1.356   3.267   5.737
32839SOL    HW2  415   1.491   3.320   5.694
32840SOL     OW  416   1.337   7.109   4.556
32840SOL    HW1  417   1.260   7.149   4.515
32840SOL    HW2  418   1.334   7.018   4.529
32841SOL     OW  419   2.721  11.898  14.295
32841SOL    HW1  420   2.686  11.848  14.369
32841SOL    HW2  421   2.684  11.986  14.305
32842SOL     OW  422   5.876   6.210  11.672
32842SOL    HW1  423   5.901   6.123  11.643
32842SOL    HW2  424   5.894   6.267  11.596
32843SOL     OW  425   1.777   8.168   7.032
32843SOL    HW1  426   1.690   8.207   7.020
32843SOL    HW2  427   1.836   8.226   6.985
32844SOL     OW  428   9.681   5.206  12.228
32844SOL    HW1  429   9.656   5.298  12.239
32844SOL    HW2  430   9.621   5.173  12.161
32845SOL     OW  431   2.356   5.174  12.943
32845SOL    HW1  432   2.414   5.098  12.948
32845SOL    HW2  433   2.412   5.245  12.911
32846SOL     OW  434   0.344   8.004  14.780
32846SOL    HW1  435   0.292   7.964  14.850
32846SOL    HW2  436   0.365   7.932  14.721
32847SOL     OW  437   6.926   2.846  12.582
32847SOL    HW1  438   6.952   2.813  12.668
32847SOL    HW2  439   7.008   2.876  12.542
32848SOL     OW  440  13.133   7.688   0.541
32848SOL    HW1  441  13.220   7.691   0.502
32848SOL    HW2  442  13.141   7.737   0.623
32849SOL     OW  443   2.031  14.507   9.613
32849SOL    HW1  444   2.029  14.585   9.558
32849SOL    HW2  445   1.971  14.527   9.685
32850SOL     OW  446   5.607   0.982  11.201
32850SOL    HW1  447   5.687   1.005  11.153
32850SOL    HW2  448   5.557   0.928  11.140
32851SOL     OW  449   1.084   6.927   4.860
32851SOL    HW1  450   1.015   6.927   4.794
32851SOL    HW2  451   1.159   6.968   4.816
32852SOL     OW  452   3.294   6.088   2.279
32852SOL    HW1  453   3.266   5.998   2.261
32852SOL    HW2  454   3.267   6.136   2.200
32853SOL     OW  455   4.955   7.768   0.131
32853SOL    HW1  456   4.892   7.773   0.059
32853SOL    HW2  457   5.034   7.808   0.095
32854SOL     OW  458   3.879   2.221   5.866
32854SOL    HW1  459   3.850   2.138   5.830
32854SOL    HW2  460   3.799   2.266   5.893
32855SOL     OW  461   8.395   0.909  12.915
32855SOL    HW1  462   8.324   0.951  12.965
32855SOL    HW2  463   8.466   0.973  12.916
32856SOL     OW  464   8.307   9.382   0.111
32856SOL    HW1  465   8.351   9.310   0.067
32856SOL    HW2  466   8.333   9.460   0.061
32857SOL     OW  467   3.040   7.175  14.282
32857SOL    HW1  468   3.098   7.249  14.261
32857SOL    HW2  469   3.036   7.124  14.202
32858SOL     OW  470   4.518  13.142   2.075
32858SOL    HW1  471   4.488  13.130   2.165
32858SOL    HW2  472   4.503  13.234   2.056
32859SOL     OW  473   4.485  13.378  13.822
32859SOL    HW1  474   4.427  13.381  13.898
32859SOL    HW2  475   4.453  13.303  13.771
32860SOL     OW  476   1.328  10.692   2.849
32860SOL    HW1  477   1.365  10.779   2.861
32860SOL    HW2  478   1.259  10.704   2.784
32861SOL     OW  479   9.457   9.589  10.204
32861SOL    HW1  480   9.385   9.530  10.183
32861SOL    HW2  481   9.464   9.587  10.299
32862SOL     OW  482   3.393   9.762   3.252
32862SOL    HW1  483   3.334   9.791   3.322
32862SOL    HW2  484   3.361   9.675   3.228
32863SOL     OW  485  12.293   1.204   0.004
32863SOL    HW1  486  12.206   1.166  14.879
32863SOL    HW2  487  12.339   1.184  14.810
32864SOL     OW  488   0.139   0.842   2.387
32864SOL    HW1  489   0.146   0.818   2.295
32864SOL    HW2  490   0.062   0.794   2.418
32865SOL     OW  491   8.854   9.874  14.080
32865SOL    HW1  492   8.926   9.835  14.129
32865SOL    HW2  493   8.879   9.966  14.068
32866SOL     OW  494  13.717  13.754   3.557
32866SOL    HW1  495  13.662  13.678   3.539
32866SOL    HW2  496  13.655  13.828   3.557
32867SOL     OW  497  13.399   2.191  14.260
32867SOL    HW1  498  13.306   2.187  14.282
32867SOL    HW2  499  13.403   2.167  14.167
32868SOL     OW  500   9.117   1.236   5.194
32868SOL    HW1  501   9.081   1.321   5.221
32868SOL    HW2  502   9.142   1.248   5.103
32869SOL     OW  503   9.242  12.097   5.558
32869SOL    HW1  504   9.214  12.132   5.474
32869SOL    HW2  505   9.337  12.094   5.553
32870SOL     OW  506   7.858  13.353  10.004
32870SOL    HW1  507   7.783  13.412   9.994
32870SOL    HW2  508   7.823  13.266   9.982
32871SOL     OW  509   5.396   4.123   6.130
32871SOL    HW1  510   5.318   4.171   6.104
32871SOL    HW2  511   5.424   4.163   6.212
32872SOL     OW  512  10.681   7.042   2.841
32872SOL    HW1  513  10.707   6.953   2.818
32872SOL    HW2  514  10.603   7.059   2.789
32873SOL     OW  515  13.017   3.845   1.438
32873SOL    HW1  516  12.996   3.754   1.456
32873SOL    HW2  517  13.061   3.876   1.517
32874SOL     OW  518   4.786  11.301   3.006
32874SOL    HW1  519   4.693  11.322   2.996
32874SOL    HW2  520   4.802  11.304   3.100
32875SOL     OW  521   6.638   6.385   0.703
32875SOL    HW1  522   6.728   6.393   0.736
32875SOL    HW2  523   6.636   6.440   0.625
32876SOL     OW  524   4.717  10.147  11.530
32876SOL    HW1  525   4.733  10.159  11.623
32876SOL    HW2  526   4.777  10.208  11.487
32877SOL     OW  527  10.459   7.964  14.376
32877SOL    HW1  528  10.382   7.908  14.384
32877SOL    HW2  529  10.532   7.907  14.399
32878SOL     OW  530   7.586   1.048   8.715
32878SOL    HW1  531   7.620   1.013   8.798
32878SOL    HW2  532   7.503   1.002   8.702
32879SOL     OW  533  14.773   3.865  11.950
32879SOL    HW1  534  14.859   3.826  11.968
32879SOL    HW2  535  14.712   3.792  11.956
32880SOL     OW  536   8.764   1.798   5.381
32880SOL    HW1  537   8.728   1.882   5.353
32880SOL    HW2  538   8.730   1.785   5.469
32881SOL     OW  539  10.637  10.461   8.495
32881SOL    HW1  540  10.550  10.479   8.458
32881SOL    HW2  541  10.619  10.406   8.571
32882SOL     OW  542   3.208  14.307   3.940
32882SOL    HW1  543   3.206  14.233   3.878
32882SOL    HW2  544   3.270  14.369   3.900
32883SOL     OW  545   6.189   1.958   0.046
32883SOL    HW1  546   6.241   1.894   0.094
32883SOL    HW2  547   6.250   2.028   0.025
32884SOL     OW  548   3.361   1.630   2.536
32884SOL    HW1  549   3.289   1.693   2.544
32884SOL    HW2  550   3.430   1.678   2.491
32885SOL     OW  551   3.976   1.490  14.397
32885SOL    HW1  552   4.033   1.417  14.421
32885SOL    HW2  553   3.942   1.523  14.481
32886SOL     OW  554   3.922   8.999   2.084
32886SOL    HW1  555   3.953   8.941   2.154
32886SOL    HW2  556   3.830   8.975   2.074
32887SOL     OW  557  11.299   9.248   5.630
32887SOL    HW1  558  11.280   9.303   5.706
32887SOL    HW2  559  11.357   9.301   5.576
32888SOL     OW  560  12.656  10.962  12.183
32888SOL    HW1  561  12.604  11.032  12.224
32888SOL    HW2  562  12.687  11.001  12.101
32889SOL     OW  563   9.482   3.537  13.321
32889SOL    HW1  564   9.424   3.612  13.329
32889SOL    HW2  565   9.434   3.474  13.268
32890SOL     OW  566   9.468   1.366  11.035
32890SOL    HW1  567   9.394   1.307  11.023
32890SOL    HW2  568   9.436   1.452  11.008
32891SOL     OW  569   3.387   2.344   3.109
32891SOL    HW1  570   3.363   2.422   3.059
32891SOL    HW2  571   3.455   2.374   3.170
32892SOL     OW  572  13.978   2.464   6.050
32892SOL    HW1  573  13.973   2.462   6.146
32892SOL    HW2  574  13.991   2.557   6.029
32893SOL     OW  575  14.650   4.916   8.196
32893SOL    HW1  576  14.562   4.912   8.158
32893SOL    HW2  577  14.638   4.958   8.281
32894SOL     OW  578   9.435   7.066   8.146
32894SOL    HW1  579   9.472   7.050   8.232
32894SOL    HW2  580   9.502   7.035   8.085
32895SOL     OW  581   1.249   5.946  12.965
32895SOL    HW1  582   1.226   5.972  12.876
32895SOL    HW2  583   1.195   6.002  13.021
32896SOL     OW  584   2.577  13.853  10.278
32896SOL    HW1  585   2.520  13.897  10.342
32896SOL    HW2  586   2.660  13.900  10.285
32897SOL     OW  587  10.567   1.530   5.558
32897SOL    HW1  588  10.628   1.490   5.496
32897SOL    HW2  589  10.550   1.617   5.523
32898SOL     OW  590   3.620  13.716   8.892
32898SOL    HW1  591   3.592  13.680   8.976
32898SOL    HW2  592   3.596  13.649   8.828
32899SOL     OW  593   0.908   0.013  10.771
32899SOL    HW1  594   0.818   0.025  10.742
32899SOL    HW2  595   0.961   0.024  10.692
32900SOL     OW  596   5.932   5.429  12.099
32900SOL    HW1  597   5.942   5.522  12.114
32900SOL    HW2  598   5.928   5.420  12.004
32901SOL     OW  599   1.545   0.998  10.722
32901SOL    HW1  600   1.555   1.014  10.628
32901SOL    HW2  601   1.470   0.939  10.729
32902SOL     OW  602   6.765  11.400   9.113
32902SOL    HW1  603   6.847  11.448   9.125
32902SOL    HW2  604   6.755  11.390   9.018
32903SOL     OW  605   3.970   8.024   7.201
32903SOL    HW1  606   3.982   8.040   7.294
32903SOL    HW2  607   3.947   8.110   7.165
32904SOL     OW  608  14.273   3.645   5.631
32904SOL    HW1  609  14.220   3.567   5.648
32904SOL    HW2  610  14.214   3.718   5.649
32905SOL     OW  611  13.399   3.729   8.942
32905SOL    HW1  612  13.348   3.716   8.862
32905SOL    HW2  613  13.345   3.786   8.996
32906SOL     OW  614   0.076  11.430  10.636
32906SOL    HW1  615   0.021  11.449  10.711
32906SOL    HW2  616   0.106  11.340  10.650
32907SOL     OW  617   3.284   4.142   2.940
32907SOL    HW1  618   3.205   4.167   2.988
32907SOL    HW2  619   3.312   4.061   2.982
32908SOL     OW  620   7.549  14.857   6.716
32908SOL    HW1  621   7.580  14.851   6.806
32908SOL    HW2  622   7.495  14.779   6.704
32909SOL     OW  623   8.184   3.966  11.365
32909SOL    HW1  624   8.135   3.901  11.415
32909SOL    HW2  625   8.243   4.006  11.429
32910SOL     OW  626   8.477   5.861   4.737
32910SOL    HW1  627   8.469   5.957   4.740
32910SOL    HW2  628   8.387   5.830   4.723
32911SOL     OW  629   7.932   6.947  10.054
32911SOL    HW1  630   7.898   6.890  10.123
32911SOL    HW2  631   7.995   7.003  10.099
32912SOL     OW  632   0.641   2.112   8.172
32912SOL    HW1  633   0.653   2.206   8.185
32912SOL    HW2  634   0.679   2.072   8.250
32913SOL     OW  635   9.674   6.344   6.241
32913SOL    HW1  636   9.617   6.348   6.318
32913SOL    HW2  637   9.617   6.316   6.170
32914SOL     OW  638   8.188   7.912   3.710
32914SOL    HW1  639   8.167   7.958   3.791
32914SOL    HW2  640   8.103   7.884   3.676
32915SOL     OW  641  10.095  14.346  10.203
32915SOL    HW1  642  10.071  14.294  10.279
32915SOL    HW2  643  10.083  14.287  10.128
32916SOL     OW  644  10.912  12.100   2.576
32916SOL    HW1  645  10.846  12.151   2.528
32916SOL    HW2  646  10.903  12.011   2.542
32917SOL     OW  647   3.495  12.423  14.596
32917SOL    HW1  648   3.556  12.477  14.545
32917SOL    HW2  649   3.458  12.362  14.533
32918SOL     OW  650   2.145   9.832   2.733
32918SOL    HW1  651   2.223   9.778   2.726
32918SOL    HW2  652   2.076   9.772   2.762
32919SOL     OW  653   0.565   7.203   5.658
32919SOL    HW1  654   0.584   7.258   5.581
32919SOL    HW2  655   0.506   7.256   5.711
32920SOL     OW  656   0.159   4.239   7.608
32920SOL    HW1  657   0.252   4.223   7.590
32920SOL    HW2  658   0.119   4.152   7.605
32921SOL     OW  659  13.214   5.317  11.730
32921SOL    HW1  660  13.261   5.237  11.755
32921SOL    HW2  661  13.179   5.351  11.812
32922SOL     OW  662  14.075   2.450  11.413
32922SOL    HW1  663  14.080   2.541  11.441
32922SOL    HW2  664  14.025   2.406  11.483
32923SOL     OW  665  13.307   3.940  11.111
32923SOL    HW1  666  13.346   3.887  11.042
32923SOL    HW2  667  13.331   4.030  11.089
32924SOL     OW  668   3.435   5.588   7.299
32924SOL    HW1  669   3.517   5.624   7.333
32924SOL    HW2  670   3.459   5.552   7.213
32925SOL     OW  671   7.191   2.075  10.985
32925SOL    HW1  672   7.179   2.168  11.004
32925SOL    HW2  673   7.174   2.068  10.891
32926SOL     OW  674  13.305   4.627   4.534
32926SOL    HW1  675  13.246   4.615   4.608
32926SOL    HW2  676  13.392   4.612   4.571
32927SOL     OW  677  10.425   5.403   1.674
32927SOL    HW1  678  10.454   5.376   1.760
32927SOL    HW2  679  10.363   5.473   1.690
32928SOL     OW  680  14.711   0.310   2.971
32928SOL    HW1  681  14.742   0.219   2.970
32928SOL    HW2  682  14.780   0.358   3.016
32929SOL     OW  683   5.078   8.595   4.876
32929SOL    HW1  684   5.065   8.537   4.951
32929SOL    HW2  685   4.990   8.617   4.846
32930SOL     OW  686  14.752  10.371   8.473
32930SOL    HW1  687  14.817  10.420   8.423
32930SOL    HW2  688  14.747  10.416   8.558
32931SOL     OW  689   2.029   2.460   4.118
32931SOL    HW1  690   1.955   2.438   4.062
32931SOL    HW2  691   2.004   2.544   4.158
32932SOL     OW  692   9.102   3.369   3.385
32932SOL    HW1  693   9.117   3.419   3.305
32932SOL    HW2  694   9.008   3.378   3.402
32933SOL     OW  695   5.574   8.611   7.050
32933SOL    HW1  696   5.561   8.639   7.140
32933SOL    HW2  697   5.638   8.673   7.014
32934SOL     OW  698   4.759   5.228  14.689
32934SOL    HW1  699   4.851   5.213  14.666
32934SOL    HW2  700   4.717   5.250  14.605
32935SOL     OW  701   8.673   6.743   2.000
32935SOL    HW1  702   8.736   6.786   1.942
32935SOL    HW2  703   8.711   6.658   2.018
32936SOL     OW  704  13.252   1.885   9.618
32936SOL    HW1  705  13.179   1.823   9.610
32936SOL    HW2  706  13.303   1.873   9.537
32937SOL     OW  707   7.102   9.643  10.013
32937SOL    HW1  708   7.179   9.660  10.067
32937SOL    HW2  709   7.029   9.644  10.076
32938SOL     OW  710   8.361   8.418   1.210
32938SOL    HW1  711   8.371   8.414   1.115
32938SOL    HW2  712   8.432   8.475   1.239
32939SOL     OW  713   2.745   1.280   5.010
32939SOL    HW1  714   2.677   1.341   5.035
32939SOL    HW2  715   2.763   1.230   5.089
32940SOL     OW  716   6.233   4.266   9.041
32940SOL    HW1  717   6.199   4.315   9.116
32940SOL    HW2  718   6.170   4.284   8.971
32941SOL     OW  719   5.681  12.416  11.428
32941SOL    HW1  720   5.774  12.422  11.407
32941SOL    HW2  721   5.677  12.433  11.522
32942SOL     OW  722   6.445   1.270  13.423
32942SOL    HW1  723   6.438   1.191  13.369
32942SOL    HW2  724   6.501   1.329  13.373
32943SOL     OW  725   3.650   2.692   2.978
32943SOL    HW1  726   3.555   2.676   2.984
32943SOL    HW2  727   3.676   2.649   2.897
32944SOL     OW  728   5.562  13.222   4.798
32944SOL    HW1  729   5.543  13.312   4.770
32944SOL    HW2  730   5.531  13.218   4.888
32945SOL     OW  731  10.161   7.026   8.897
32945SOL    HW1  732  10.097   7.076   8.948
32945SOL    HW2  733  10.189   6.956   8.956
32946SOL     OW  734   6.686   2.993  12.424
32946SOL    HW1  735   6.731   2.959  12.502
32946SOL    HW2  736   6.613   3.044  12.460
32947SOL     OW  737  10.255   1.642   2.078
32947SOL    HW1  738  10.283   1.715   2.023
32947SOL    HW2  739  10.302   1.566   2.043
32948SOL     OW  740   3.484   9.125  13.533
32948SOL    HW1  741   3.529   9.043  13.513
32948SOL    HW2  742   3.399   9.116  13.491
32949SOL     OW  743  10.061   9.894   5.059
32949SOL    HW1  744   9.993   9.960   5.045
32949SOL    HW2  745  10.106   9.922   5.138
32950SOL     OW  746   5.010   9.943   3.586
32950SOL    HW1  747   5.051   9.876   3.640
32950SOL    HW2  748   4.931   9.901   3.552
32951SOL     OW  749   5.732   9.440   2.207
32951SOL    HW1  750   5.675   9.490   2.265
32951SOL    HW2  751   5.715   9.477   2.120
32952SOL     OW  752   0.756  12.641   2.117
32952SOL    HW1  753   0.764  12.708   2.185
32952SOL    HW2  754   0.664  12.643   2.092
32953SOL     OW  755   3.116  14.024  13.234
32953SOL    HW1  756   3.117  14.074  13.315
32953SOL    HW2  757   3.154  14.082  13.168
32954SOL     OW  758  12.354  14.480   8.093
32954SOL    HW1  759  12.368  14.565   8.051
32954SOL    HW2  760  12.368  14.497   8.187
32955SOL     OW  761   4.020   6.707  13.154
32955SOL    HW1  762   4.084   6.659  13.101
32955SOL    HW2  763   4.073   6.760  13.214
32956SOL     OW  764   1.424   9.235   2.048
32956SOL    HW1  765   1.399   9.150   2.084
32956SOL    HW2  766   1.397   9.298   2.114
32957SOL     OW  767   7.889   5.370  11.061
32957SOL    HW1  768   7.969   5.423  11.065
32957SOL    HW2  769   7.920   5.281  11.045
32958SOL     OW  770  14.064   8.756  11.579
32958SOL    HW1  771  14.093   8.811  11.652
32958SOL    HW2  772  14.030   8.677  11.620
32959SOL     OW  773  14.366   7.606  11.424
32959SOL    HW1  774  14.332   7.652  11.347
32959SOL    HW2  775  14.418   7.534  11.388
32960SOL     OW  776   3.635   8.526   8.783
32960SOL    HW1  777   3.555   8.569   8.814
32960SOL    HW2  778   3.603   8.452   8.732
32961SOL     OW  779  12.175   8.480   7.147
32961SOL    HW1  780  12.133   8.509   7.227
32961SOL    HW2  781  12.108   8.492   7.079
32962SOL     OW  782  10.907   2.049   7.896
32962SOL    HW1  783  10.902   1.970   7.949
32962SOL    HW2  784  10.888   2.120   7.958
32963SOL     OW  785   6.227  14.095  14.106
32963SOL    HW1  786   6.268  14.148  14.038
32963SOL    HW2  787   6.264  14.008  14.094
32964SOL     OW  788   8.072  10.819   7.659
32964SOL    HW1  789   8.000  10.771   7.618
32964SOL    HW2  790   8.134  10.834   7.588
32965SOL     OW  791   3.069   8.564  10.407
32965SOL    HW1  792   3.027   8.548  10.492
32965SOL    HW2  793   3.032   8.647  10.377
32966SOL     OW  794   7.921   7.942   2.968
32966SOL    HW1  795   8.003   7.902   2.940
32966SOL    HW2  796   7.854   7.879   2.944
32967SOL     OW  797   8.769   0.543   6.452
32967SOL    HW1  798   8.830   0.507   6.388
32967SOL    HW2  799   8.776   0.484   6.527
32968SOL     OW  800   1.118   1.765  10.793
32968SOL    HW1  801   1.163   1.846  10.770
32968SOL    HW2  802   1.180   1.717  10.847
32969SOL     OW  803   9.029   4.137  10.625
32969SOL    HW1  804   9.046   4.110  10.715
32969SOL    HW2  805   9.104   4.106  10.576
32970SOL     OW  806   8.046  14.731  14.710
32970SOL    HW1  807   8.109  14.715  14.780
32970SOL    HW2  808   8.099  14.736  14.631
32971SOL     OW  809  11.312   1.223  11.964
32971SOL    HW1  810  11.260   1.210  11.885
32971SOL    HW2  811  11.288   1.310  11.995
32972SOL     OW  812   9.050  13.288   1.137
32972SOL    HW1  813   8.968  13.334   1.118
32972SOL    HW2  814   9.079  13.322   1.221
32973SOL     OW  815   0.254   7.523   2.466
32973SOL    HW1  816   0.261   7.610   2.429
32973SOL    HW2  817   0.232   7.537   2.558
32974SOL     OW  818   1.260   9.022   9.634
32974SOL    HW1  819   1.169   9.049   9.645
32974SOL    HW2  820   1.306   9.064   9.706
32975SOL     OW  821   0.175  14.474   7.763
32975SOL    HW1  822   0.240  14.529   7.718
32975SOL    HW2  823   0.184  14.497   7.856
32976SOL     OW  824   0.931   3.751   2.141
32976SOL    HW1  825   0.865   3.683   2.158
32976SOL    HW2  826   0.894   3.830   2.181
32977SOL     OW  827   4.325   0.152   8.904
32977SOL    HW1  828   4.400   0.110   8.947
32977SOL    HW2  829   4.313   0.234   8.952
32978SOL     OW  830  11.659   9.571  14.555
32978SOL    HW1  831  11.668   9.595  14.462
32978SOL    HW2  832  11.565   9.569  14.570
32979SOL     OW  833   4.915   5.249   2.191
32979SOL    HW1  834   4.842   5.242   2.253
32979SOL    HW2  835   4.955   5.334   2.210
32980SOL     OW  836  11.578  13.930  11.661
32980SOL    HW1  837  11.504  13.965  11.611
32980SOL    HW2  838  11.627  13.877  11.599
32981SOL     OW  839   7.032   0.814  12.000
32981SOL    HW1  840   6.964   0.823  11.933
32981SOL    HW2  841   7.071   0.729  11.984
32982SOL     OW  842   2.360   4.912   1.269
32982SOL    HW1  843   2.295   4.904   1.199
32982SOL    HW2  844   2.310   4.898   1.350
32983SOL     OW  845   8.334  11.849   5.042
32983SOL    HW1  846   8.389  11.885   4.972
32983SOL    HW2  847   8.267  11.798   4.996
32984SOL     OW  848  11.624   9.898   3.451
32984SOL    HW1  849  11.688   9.954   3.407
32984SOL    HW2  850  11.589   9.843   3.380
32985SOL     OW  851  11.563  10.696  11.919
32985SOL    HW1  852  11.609  10.722  11.839
32985SOL    HW2  853  11.558  10.600  11.914
32986SOL     OW  854  10.917   6.171   2.183
32986SOL    HW1  855  10.910   6.260   2.217
32986SOL    HW2  856  10.995   6.135   2.225
32987SOL     OW  857  11.240   1.236   1.271
32987SOL    HW1  858  11.202   1.198   1.350
32987SOL    HW2  859  11.326   1.266   1.297
32988SOL     OW  860   1.983  11.953   0.828
32988SOL    HW1  861   2.009  11.979   0.916
32988SOL    HW2  862   1.991  12.032   0.775
32989SOL     OW  863   0.467  12.015   7.874
32989SOL    HW1  864   0.399  12.024   7.940
32989SOL    HW2  865   0.544  12.056   7.914
32990SOL     OW  866   6.741   2.745   4.289
32990SOL    HW1  867   6.788   2.827   4.280
32990SOL    HW2  868   6.763   2.714   4.377
32991SOL     OW  869   7.240   2.199  11.694
32991SOL    HW1  870   7.266   2.185  11.603
32991SOL    HW2  871   7.289   2.133  11.744
32992SOL     OW  872  13.603   5.542   7.078
32992SOL    HW1  873  13.642   5.591   7.151
32992SOL    HW2  874  13.678   5.520   7.022
32993SOL     OW  875  11.899   5.007   8.361
32993SOL    HW1  876  11.873   5.098   8.352
32993SOL    HW2  877  11.828   4.967   8.411
32994SOL     OW  878  13.943  10.435  11.338
32994SOL    HW1  879  13.866  10.464  11.290
32994SOL    HW2  880  14.017  10.470  11.288
32995SOL     OW  881   4.011   2.355   7.466
32995SOL    HW1  882   4.051   2.430   7.423
32995SOL    HW2  883   4.055   2.351   7.551
32996SOL     OW  884   9.030  13.018   4.490
32996SOL    HW1  885   8.980  13.073   4.429
32996SOL    HW2  886   9.099  13.075   4.524
32997SOL     OW  887   2.652  10.816   0.288
32997SOL    HW1  888   2.684  10.748   0.347
32997SOL    HW2  889   2.723  10.880   0.286
32998SOL     OW  890   7.065  10.050   1.364
32998SOL    HW1  891   7.158  10.052   1.387
32998SOL    HW2  892   7.065  10.042   1.268
32999SOL     OW  893  14.625  14.279  13.097
32999SOL    HW1  894  14.530  14.267  13.108
32999SOL    HW2  895  14.638  14.278  13.002
33000SOL     OW  896   3.068   2.148  13.699
33000SOL    HW1  897   3.125   2.103  13.760
33000SOL    HW2  898   3.058   2.236  13.736
33001SOL     OW  899   8.146  10.938  10.238
33001SOL    HW1  900   8.102  10.888  10.307
33001SOL    HW2  901   8.098  11.021  10.235
33002SOL     OW  902  11.902   6.582   2.164
33002SOL    HW1  903  11.951   6.541   2.093
33002SOL    HW2  904  11.811   6.555   2.149
33003SOL     OW  905   1.919   0.285   7.922
33003SOL    HW1  906   1.903   0.324   8.008
33003SOL    HW2  907   1.924   0.191   7.939
33004SOL     OW  908   3.120   1.473   0.473
33004SOL    HW1  909   3.068   1.548   0.444
33004SOL    HW2  910   3.081   1.448   0.557
33005SOL     OW  911   9.387  10.032  12.770
33005SOL    HW1  912   9.445  10.107  12.758
33005SOL    HW2  913   9.378   9.994  12.683
33006SOL     OW  914  13.939   3.983   3.102
33006SOL    HW1  915  13.939   4.024   3.189
33006SOL    HW2  916  13.846   3.971   3.081
33007SOL     OW  917   5.108   4.714  10.377
33007SOL    HW1  918   5.099   4.771  10.300
33007SOL    HW2  919   5.021   4.717  10.418
33008SOL     OW  920   3.930  11.560   0.436
33008SOL    HW1  921   3.956  11.579   0.346
33008SOL    HW2  922   3.936  11.645   0.481
33009SOL     OW  923  12.599   7.423   5.195
33009SOL    HW1  924  12.647   7.446   5.275
33009SOL    HW2  925  12.532   7.361   5.225
33010SOL     OW  926  11.829  11.418   6.895
33010SOL    HW1  927  11.860  11.471   6.968
33010SOL    HW2  928  11.733  11.422   6.901
33011SOL     OW  929   6.686   3.378   1.030
33011SOL    HW1  930   6.721   3.309   0.973
33011SOL    HW2  931   6.763   3.415   1.073
33012SOL     OW  932  13.882   0.878   5.589
33012SOL    HW1  933  13.852   0.908   5.503
33012SOL    HW2  934  13.865   0.953   5.647
33013SOL     OW  935   1.930  12.765  11.195
33013SOL    HW1  936   1.984  12.691  11.223
33013SOL    HW2  937   1.841  12.740  11.219
33014SOL     OW  938   0.211   2.950  13.510
33014SOL    HW1  939   0.150   3.012  13.550
33014SOL    HW2  940   0.293   2.999  13.501
33015SOL     OW  941  13.915  12.426  14.622
33015SOL    HW1  942  13.980  12.407  14.690
33015SOL    HW2  943  13.959  12.486  14.562
33016SOL     OW  944  13.835   0.207  11.096
33016SOL    HW1  945  13.806   0.200  11.187
33016SOL    HW2  946  13.757   0.191  11.044
33017SOL     OW  947  14.392   3.895  10.697
33017SOL    HW1  948  14.326   3.839  10.739
33017SOL    HW2  949  14.432   3.839  10.630
33018SOL     OW  950  12.435   6.417  10.928
33018SOL    HW1  951  12.515   6.406  10.979
33018SOL    HW2  952  12.403   6.328  10.913
33019SOL     OW  953   7.701   7.378   4.568
33019SOL    HW1  954   7.708   7.473   4.571
33019SOL    HW2  955   7.748   7.354   4.488
33020SOL     OW  956   2.380   6.504   9.292
33020SOL    HW1  957   2.455   6.477   9.239
33020SOL    HW2  958   2.320   6.430   9.289
33021SOL     OW  959   0.633  12.972  11.713
33021SOL    HW1  960   0.628  12.995  11.620
33021SOL    HW2  961   0.636  12.876  11.713
33022SOL     OW  962   6.156  14.780   6.157
33022SOL    HW1  963   6.126  14.809   6.244
33022SOL    HW2  964   6.222  14.845   6.132
33023SOL     OW  965  12.384   5.555   4.392
33023SOL    HW1  966  12.340   5.516   4.468
33023SOL    HW2  967  12.368   5.494   4.320
33024SOL     OW  968   4.824  14.033   0.991
33024SOL    HW1  969   4.910  14.062   1.020
33024SOL    HW2  970   4.801  14.093   0.920
33025SOL     OW  971   3.144  12.678   0.128
33025SOL    HW1  972   3.170  12.588   0.148
33025SOL    HW2  973   3.184  12.697   0.044
33026SOL     OW  974   5.668  11.015   7.986
33026SOL    HW1  975   5.721  10.944   8.023
33026SOL    HW2  976   5.578  10.991   8.010
33027SOL     OW  977  11.637  10.174   5.813
33027SOL    HW1  978  11.650  10.248   5.873
33027SOL    HW2  979  11.566  10.203   5.755
33028SOL     OW  980  12.526  10.397   4.343
33028SOL    HW1  981  12.621  10.404   4.333
33028SOL    HW2  982  12.513  10.361   4.430
33029SOL     OW  983  11.129  14.003   8.386
33029SOL    HW1  984  11.208  13.981   8.436
33029SOL    HW2  985  11.144  14.093   8.357
33030SOL     OW  986   6.233   5.607  11.763
33030SOL    HW1  987   6.305   5.556  11.725
33030SOL    HW2  988   6.248   5.601  11.857
33031SOL     OW  989  12.731  11.129   7.079
33031SOL    HW1  990  12.766  11.211   7.113
33031SOL    HW2  991  12.746  11.134   6.984
33032SOL     OW  992   1.267   6.988  13.973
33032SOL    HW1  993   1.262   6.893  13.983
33032SOL    HW2  994   1.352   7.011  14.009
33033SOL     OW  995   2.249  14.780  13.592
33033SOL    HW1  996   2.185  14.742  13.652
33033SOL    HW2  997   2.264  14.868  13.626
33034SOL     OW  998   3.651  11.872   8.907
33034SOL    HW1  999   3.588  11.940   8.881
33034SOL    HW2 1000   3.696  11.910   8.983
33035SOL     OW 1001   5.450  11.880  13.679
33035SOL    HW1 1002   5.372  11.825  13.686
33035SOL    HW2 1003   5.499  11.861  13.760
33036SOL     OW 1004   8.726  13.550   1.997
33036SOL    HW1 1005   8.653  13.505   2.038
33036SOL    HW2 1006   8.686  13.620   1.946
33037SOL     OW 1007  10.500  13.521   1.098
33037SOL    HW1 1008  10.416  13.493   1.062
33037SOL    HW2 1009  10.550  13.550   1.022
33038SOL     OW 1010   6.880   2.008   3.350
33038SOL    HW1 1011   6.828   2.073   3.397
33038SOL    HW2 1012   6.968   2.018   3.384
33039SOL     OW 1013   7.601  14.887   3.654
33039SOL    HW1 1014   7.509   0.026   3.656
33039SOL    HW2 1015   7.602  14.806   3.602
33040SOL     OW 1016   7.542   1.717   2.075
33040SOL    HW1 1017   7.548   1.809   2.101
33040SOL    HW2 1018   7.455   1.709   2.036
33041SOL     OW 1019  11.169  10.939   7.561
33041SOL    HW1 1020  11.140  10.994   7.488
33041SOL    HW2 1021  11.251  10.900   7.531
33042SOL     OW 1022   4.345   2.477  13.792
33042SOL    HW1 1023   4.271   2.416  13.787
33042SOL    HW2 1024   4.414   2.426  13.836
33043SOL     OW 1025   5.207   8.971   2.157
33043SOL    HW1 1026   5.299   8.999   2.161
33043SOL    HW2 1027   5.209   8.881   2.190
33044SOL     OW 1028   1.126   9.925   9.356
33044SOL    HW1 1029   1.091   9.859   9.415
33044SOL    HW2 1030   1.107  10.008   9.399
33045SOL     OW 1031   6.864  11.293   2.893
33045SOL    HW1 1032   6.867  11.220   2.955
33045SOL    HW2 1033   6.890  11.369   2.945
33046SOL     OW 1034   7.951   0.002   9.893
33046SOL    HW1 1035   7.966  14.853   9.805
33046SOL    HW2 1036   7.879  14.837   9.928
33047SOL     OW 1037   3.257   7.778   0.106
33047SOL    HW1 1038   3.291   7.861   0.141
33047SOL    HW2 1039   3.294   7.711   0.164
33048SOL     OW 1040  14.545   3.932   4.184
33048SOL    HW1 1041  14.562   4.010   4.131
33048SOL    HW2 1042  14.615   3.871   4.160
33049SOL     OW 1043   2.219   4.997  12.137
33049SOL    HW1 1044   2.246   5.009  12.228
33049SOL    HW2 1045   2.275   4.927  12.105
33050SOL     OW 1046   3.843   9.782   6.907
33050SOL    HW1 1047   3.836   9.874   6.882
33050SOL    HW2 1048   3.884   9.739   6.832
33051SOL     OW 1049  11.775   4.414  11.580
33051SOL    HW1 1050  11.750   4.453  11.664
33051SOL    HW2 1051  11.870   4.428  11.575
33052SOL     OW 1052   2.551   9.200   6.130
33052SOL    HW1 1053   2.594   9.144   6.194
33052SOL    HW2 1054   2.579   9.165   6.045
33053SOL     OW 1055  14.850   0.958   9.433
33053SOL    HW1 1056  14.814   1.015   9.366
33053SOL    HW2 1057  14.776   0.937   9.490
33054SOL     OW 1058   4.798   7.640   4.392
33054SOL    HW1 1059   4.820   7.672   4.305
33054SOL    HW2 1060   4.841   7.702   4.452
33055SOL     OW 1061   3.700  12.454  13.638
33055SOL    HW1 1062   3.785  12.427  13.605
33055SOL    HW2 1063   3.669  12.519  13.574
33056SOL     OW 1064   1.196   9.495   0.072
33056SOL    HW1 1065   1.228   9.535   0.152
33056SOL    HW2 1066   1.101   9.503   0.078
33057SOL     OW 1067   3.262  11.441   0.686
33057SOL    HW1 1068   3.182  11.389   0.694
33057SOL    HW2 1069   3.238  11.512   0.627
33058SOL     OW 1070   9.151  11.835  11.611
33058SOL    HW1 1071   9.186  11.751  11.584
33058SOL    HW2 1072   9.146  11.887  11.531
33059SOL     OW 1073  10.268   3.267   3.902
33059SOL    HW1 1074  10.291   3.291   3.812
33059SOL    HW2 1075  10.327   3.195   3.924
33060SOL     OW 1076   8.315   6.269   1.504
33060SOL    HW1 1077   8.358   6.231   1.581
33060SOL    HW2 1078   8.295   6.359   1.530
33061SOL     OW 1079   9.137   8.848   6.442
33061SOL    HW1 1080   9.150   8.803   6.526
33061SOL    HW2 1081   9.136   8.941   6.465
33062SOL     OW 1082  12.211   0.146  11.697
33062SOL    HW1 1083  12.275   0.075  11.705
33062SOL    HW2 1084  12.126   0.100  11.695
33063SOL     OW 1085  12.016   8.068  11.447
33063SOL    HW1 1086  11.929   8.100  11.422
33063SOL    HW2 1087  11.999   8.007  11.519
33064SOL     OW 1088  11.885   5.146   4.544
33064SOL    HW1 1089  11.941   5.107   4.611
33064SOL    HW2 1090  11.904   5.097   4.464
33065SOL     OW 1091   0.569   4.020   3.472
33065SOL    HW1 1092   0.512   4.094   3.492
33065SOL    HW2 1093   0.527   3.945   3.516
33066SOL     OW 1094   0.939   4.322   1.697
33066SOL    HW1 1095   0.871   4.328   1.629
33066SOL    HW2 1096   0.908   4.253   1.755
33067SOL     OW 1097   2.969  11.312   2.143
33067SOL    HW1 1098   3.026  11.325   2.219
33067SOL    HW2 1099   3.004  11.233   2.101
33068SOL     OW 1100   8.685   4.679  11.131
33068SOL    HW1 1101   8.746   4.671  11.057
33068SOL    HW2 1102   8.741   4.699  11.206
33069SOL     OW 1103  13.569  10.051  12.206
33069SOL    HW1 1104  13.559  10.070  12.113
33069SOL    HW2 1105  13.550   9.957  12.213
33070SOL     OW 1106  11.334   9.492   4.349
33070SOL    HW1 1107  11.239   9.480   4.352
33070SOL    HW2 1108  11.351   9.555   4.420
33071SOL     OW 1109  12.923   7.828  10.058
33071SOL    HW1 1110  12.942   7.772   9.983
33071SOL    HW2 1111  12.997   7.816  10.118
33072SOL     OW 1112   0.000   2.455  12.806
33072SOL    HW1 1113  14.821   2.506  12.760
33072SOL    HW2 1114   0.014   2.378  12.750
33073SOL     OW 1115   5.155  13.395   4.060
33073SOL    HW1 1116   5.190  13.471   4.013
33073SOL    HW2 1117   5.165  13.323   3.999
33074SOL     OW 1118  14.102   7.511  13.180
33074SOL    HW1 1119  14.018   7.491  13.221
33074SOL    HW2 1120  14.145   7.426  13.172
33075SOL     OW 1121  12.624   2.209   2.515
33075SOL    HW1 1122  12.567   2.281   2.487
33075SOL    HW2 1123  12.563   2.137   2.533
33076SOL     OW 1124   2.462   8.671   0.763
33076SOL    HW1 1125   2.539   8.713   0.726
33076SOL    HW2 1126   2.411   8.742   0.801
33077SOL     OW 1127  12.545  10.143   1.634
33077SOL    HW1 1128  12.522  10.194   1.556
33077SOL    HW2 1129  12.556  10.209   1.703
33078SOL     OW 1130   2.339   4.997  11.169
33078SOL    HW1 1131   2.417   5.048  11.149
33078SOL    HW2 1132   2.282   5.057  11.217
33079SOL     OW 1133  10.022  13.975  10.304
33079SOL    HW1 1134  10.057  13.902  10.356
33079SOL    HW2 1135  10.035  14.052  10.359
33080SOL     OW 1136   8.061   4.617   2.741
33080SOL    HW1 1137   7.985   4.671   2.760
33080SOL    HW2 1138   8.130   4.678   2.717
33081SOL     OW 1139   6.502   7.248  14.514
33081SOL    HW1 1140   6.573   7.252  14.578
33081SOL    HW2 1141   6.526   7.175  14.456
33082SOL     OW 1142  14.682  14.553  10.170
33082SOL    HW1 1143  14.714  14.470  10.135
33082SOL    HW2 1144  14.673  14.538  10.264
33083SOL     OW 1145  12.737   7.169  13.276
33083SOL    HW1 1146  12.668   7.171  13.209
33083SOL    HW2 1147  12.702   7.111  13.344
33084SOL     OW 1148   6.421   2.080   5.064
33084SOL    HW1 1149   6.505   2.066   5.108
33084SOL    HW2 1150   6.358   2.028   5.113
33085SOL     OW 1151  14.067   8.026   8.717
33085SOL    HW1 1152  14.109   8.110   8.732
33085SOL    HW2 1153  14.139   7.967   8.694
33086SOL     OW 1154   1.712   6.336   6.025
33086SOL    HW1 1155   1.647   6.393   6.065
33086SOL    HW2 1156   1.689   6.249   6.057
33087SOL     OW 1157   7.785  12.126  12.850
33087SOL    HW1 1158   7.786  12.163  12.762
33087SOL    HW2 1159   7.874  12.094  12.864
33088SOL     OW 1160  13.500   4.396   6.185
33088SOL    HW1 1161  13.439   4.468   6.200
33088SOL    HW2 1162  13.559   4.428   6.116
33089SOL     OW 1163   1.432   8.961   5.412
33089SOL    HW1 1164   1.346   8.966   5.370
33089SOL    HW2 1165   1.463   8.873   5.393
33090SOL     OW 1166   2.333  13.469   9.981
33090SOL    HW1 1167   2.250  13.445  10.022
33090SOL    HW2 1168   2.391  13.489  10.054
33091SOL     OW 1169   9.381   6.864   1.442
33091SOL    HW1 1170   9.351   6.948   1.478
33091SOL    HW2 1171   9.453   6.838   1.500
33092SOL     OW 1172  14.607   7.378  10.431
33092SOL    HW1 1173  14.631   7.288  10.455
33092SOL    HW2 1174  14.587   7.420  10.515
33093SOL     OW 1175   0.159   2.458  14.172
33093SOL    HW1 1176   0.098   2.505  14.115
33093SOL    HW2 1177   0.116   2.374  14.189
33094SOL     OW 1178   8.211   5.958  11.919
33094SOL    HW1 1179   8.276   5.963  11.990
33094SOL    HW2 1180   8.139   5.907  11.956
33095SOL     OW 1181   3.639   6.261   6.185
33095SOL    HW1 1182   3.575   6.300   6.244
33095SOL    HW2 1183   3.696   6.333   6.159
33096SOL     OW 1184   3.275   8.117   2.014
33096SOL    HW1 1185   3.304   8.184   2.075
33096SOL    HW2 1186   3.213   8.063   2.064
33097SOL     OW 1187  11.388  11.070   1.402
33097SOL    HW1 1188  11.456  11.005   1.417
33097SOL    HW2 1189  11.374  11.110   1.488
33098SOL     OW 1190   7.678   9.785  10.590
33098SOL    HW1 1191   7.770   9.759  10.590
33098SOL    HW2 1192   7.678   9.870  10.635
33099SOL     OW 1193   8.250  11.205   2.866
33099SOL    HW1 1194   8.278  11.295   2.850
33099SOL    HW2 1195   8.231  11.171   2.778
33100SOL     OW 1196   4.124   6.216   9.189
33100SOL    HW1 1197   4.157   6.259   9.268
33100SOL    HW2 1198   4.091   6.131   9.219
33101SOL     OW 1199   3.901   3.625   2.481
33101SOL    HW1 1200   3.924   3.590   2.394
33101SOL    HW2 1201   3.924   3.717   2.476
33102SOL     OW 1202   5.318   7.056   8.507
33102SOL    HW1 1203   5.280   7.126   8.560
33102SOL    HW2 1204   5.412   7.068   8.516
33103SOL     OW 1205  12.794  10.852  11.125
33103SOL    HW1 1206  12.847  10.870  11.202
33103SOL    HW2 1207  12.752  10.768  11.143
33104SOL     OW 1208   5.892   5.101   4.019
33104SOL    HW1 1209   5.982   5.134   4.026
33104SOL    HW2 1210   5.838   5.173   4.049
33105SOL     OW 1211  14.356  13.071  11.770
33105SOL    HW1 1212  14.353  13.115  11.685
33105SOL    HW2 1213  14.265  13.069  11.799
33106SOL     OW 1214   9.279  13.189   4.534
33106SOL    HW1 1215   9.278  13.281   4.562
33106SOL    HW2 1216   9.290  13.140   4.615
33107SOL     OW 1217   1.458  13.150  10.811
33107SOL    HW1 1218   1.418  13.209  10.748
33107SOL    HW2 1219   1.517  13.206  10.862
33108SOL     OW 1220  12.729   6.048  11.718
33108SOL    HW1 1221  12.723   6.098  11.636
33108SOL    HW2 1222  12.802   5.988  11.703
33109SOL     OW 1223   1.560   3.481   3.308
33109SOL    HW1 1224   1.555   3.385   3.312
33109SOL    HW2 1225   1.623   3.504   3.376
33110SOL     OW 1226   0.503   0.008  12.627
33110SOL    HW1 1227   0.477   0.089  12.583
33110SOL    HW2 1228   0.421  14.859  12.659
33111SOL     OW 1229  12.166   1.490   4.635
33111SOL    HW1 1230  12.195   1.451   4.553
33111SOL    HW2 1231  12.208   1.576   4.637
33112SOL     OW 1232   3.712   6.858   8.328
33112SOL    HW1 1233   3.664   6.783   8.364
33112SOL    HW2 1234   3.783   6.873   8.390
33113SOL     OW 1235  13.650  12.169   0.683
33113SOL    HW1 1236  13.567  12.202   0.647
33113SOL    HW2 1237  13.655  12.207   0.770
33114SOL     OW 1238   7.823  10.075   2.498
33114SOL    HW1 1239   7.896  10.012   2.497
33114SOL    HW2 1240   7.749  10.026   2.461
33115SOL     OW 1241   7.566   3.266   2.055
33115SOL    HW1 1242   7.492   3.318   2.023
33115SOL    HW2 1243   7.531   3.177   2.063
33116SOL     OW 1244   8.986   6.989   2.492
33116SOL    HW1 1245   8.997   7.044   2.415
33116SOL    HW2 1246   8.939   7.045   2.554
33117SOL     OW 1247   4.134  13.552   6.371
33117SOL    HW1 1248   4.052  13.517   6.404
33117SOL    HW2 1249   4.201  13.492   6.404
33118SOL     OW 1250  14.467   2.372   1.290
33118SOL    HW1 1251  14.423   2.288   1.276
33118SOL    HW2 1252  14.436   2.402   1.376
33119SOL     OW 1253   0.303   4.155   5.508
33119SOL    HW1 1254   0.251   4.185   5.583
33119SOL    HW2 1255   0.340   4.235   5.470
33120SOL     OW 1256   9.093   8.504  11.268
33120SOL    HW1 1257   9.012   8.543  11.301
33120SOL    HW2 1258   9.086   8.412  11.293
33121SOL     OW 1259   1.844   1.983   5.407
33121SOL    HW1 1260   1.918   2.039   5.389
33121SOL    HW2 1261   1.840   1.922   5.333
33122SOL     OW 1262   1.251   5.732   0.171
33122SOL    HW1 1263   1.192   5.658   0.160
33122SOL    HW2 1264   1.217   5.799   0.112
33123SOL     OW 1265   5.321   0.320  10.745
33123SOL    HW1 1266   5.265   0.255  10.702
33123SOL    HW2 1267   5.409   0.298  10.716
33124SOL     OW 1268   3.838  11.371  13.275
33124SOL    HW1 1269   3.788  11.421  13.211
33124SOL    HW2 1270   3.811  11.405  13.360
33125SOL     OW 1271   2.365  14.191   4.219
33125SOL    HW1 1272   2.274  14.214   4.204
33125SOL    HW2 1273   2.409  14.213   4.137
33126SOL     OW 1274   9.361   7.943   8.626
33126SOL    HW1 1275   9.420   7.999   8.576
33126SOL    HW2 1276   9.392   7.854   8.611
33127SOL     OW 1277  14.801   7.822   6.143
33127SOL    HW1 1278  14.784   7.740   6.097
33127SOL    HW2 1279   0.001   7.810   6.181
33128SOL     OW 1280   5.455   9.153   8.010
33128SOL    HW1 1281   5.363   9.131   7.998
33128SOL    HW2 1282   5.455   9.247   8.030
33129SOL     OW 1283   9.116   7.576   3.557
33129SOL    HW1 1284   9.070   7.658   3.574
33129SOL    HW2 1285   9.085   7.548   3.471
33130SOL     OW 1286   8.482   7.536   4.355
33130SOL    HW1 1287   8.468   7.511   4.446
33130SOL    HW2 1288   8.577   7.539   4.345
33131SOL     OW 1289   1.930   6.090  13.092
33131SOL    HW1 1290   1.942   6.155  13.161
33131SOL    HW2 1291   1.970   6.010  13.126
33132SOL     OW 1292   3.214   6.239   2.068
33132SOL    HW1 1293   3.297   6.275   2.038
33132SOL    HW2 1294   3.197   6.165   2.010
33133SOL     OW 1295   4.921   3.547  10.081
33133SOL    HW1 1296   4.855   3.491  10.122
33133SOL    HW2 1297   4.918   3.629  10.131
33134SOL     OW 1298   5.108   4.520  11.507
33134SOL    HW1 1299   5.165   4.537  11.582
33134SOL    HW2 1300   5.167   4.504  11.434
33135SOL     OW 1301   5.738   8.022   2.386
33135SOL    HW1 1302   5.744   8.095   2.447
33135SOL    HW2 1303   5.647   7.992   2.392
33136SOL     OW 1304   2.850  10.775  12.827
33136SOL    HW1 1305   2.794  10.697  12.830
33136SOL    HW2 1306   2.846  10.804  12.736
33137SOL     OW 1307   5.411   2.363   3.858
33137SOL    HW1 1308   5.446   2.432   3.802
33137SOL    HW2 1309   5.334   2.331   3.812
33138SOL     OW 1310  11.928   8.669  12.008
33138SOL    HW1 1311  11.904   8.708  11.924
33138SOL    HW2 1312  11.977   8.738  12.054
33139SOL     OW 1313  11.861   3.687  14.175
33139SOL    HW1 1314  11.941   3.728  14.208
33139SOL    HW2 1315  11.867   3.698  14.080
33140SOL     OW 1316   0.820   1.761  11.602
33140SOL    HW1 1317   0.817   1.687  11.663
33140SOL    HW2 1318   0.853   1.834  11.655
33141SOL     OW 1319  11.033   1.006  12.251
33141SOL    HW1 1320  11.046   0.963  12.336
33141SOL    HW2 1321  10.952   1.057  12.263
33142SOL     OW 1322  12.004   3.860  12.363
33142SOL    HW1 1323  11.997   3.773  12.403
33142SOL    HW2 1324  11.934   3.911  12.405
33143SOL     OW 1325  14.506   5.435  14.508
33143SOL    HW1 1326  14.522   5.520  14.551
33143SOL    HW2 1327  14.521   5.453  14.415
33144SOL     OW 1328  14.607  12.352   9.507
33144SOL    HW1 1329  14.611  12.261   9.535
33144SOL    HW2 1330  14.689  12.391   9.538
33145SOL     OW 1331  13.836   2.888   0.597
33145SOL    HW1 1332  13.831   2.983   0.588
33145SOL    HW2 1333  13.837   2.856   0.507
33146SOL     OW 1334   1.533  10.263  12.409
33146SOL    HW1 1335   1.544  10.348  12.452
33146SOL    HW2 1336   1.485  10.210  12.472
33147SOL     OW 1337   5.651   4.443  11.895
33147SOL    HW1 1338   5.574   4.449  11.838
33147SOL    HW2 1339   5.722   4.477  11.842
33148SOL     OW 1340  13.951  11.877   6.710
33148SOL    HW1 1341  13.995  11.826   6.642
33148SOL    HW2 1342  13.860  11.847   6.707
33149SOL     OW 1343  13.043   8.506   0.281
33149SOL    HW1 1344  13.124   8.490   0.328
33149SOL    HW2 1345  12.988   8.429   0.301
33150SOL     OW 1346   2.156  12.261   1.606
33150SOL    HW1 1347   2.173  12.237   1.515
33150SOL    HW2 1348   2.172  12.181   1.656
33151SOL     OW 1349   0.414   7.782   3.067
33151SOL    HW1 1350   0.338   7.814   3.018
33151SOL    HW2 1351   0.486   7.838   3.039
33152SOL     OW 1352   4.544   2.320  11.516
33152SOL    HW1 1353   4.630   2.319  11.559
33152SOL    HW2 1354   4.481   2.317  11.589
33153SOL     OW 1355   8.402  13.901  10.956
33153SOL    HW1 1356   8.390  13.812  10.990
33153SOL    HW2 1357   8.325  13.949  10.984
33154SOL     OW 1358   9.988   2.030   3.817
33154SOL    HW1 1359  10.012   1.938   3.806
33154SOL    HW2 1360   9.936   2.032   3.897
33155SOL     OW 1361  14.851   7.327   9.588
33155SOL    HW1 1362  14.765   7.332   9.631
33155SOL    HW2 1363  14.830   7.315   9.495
33156SOL     OW 1364   0.537  10.446   2.297
33156SOL    HW1 1365   0.576  10.397   2.224
33156SOL    HW2 1366   0.520  10.380   2.363
33157SOL     OW 1367  14.425  10.822  13.752
33157SOL    HW1 1368  14.442  10.913  13.729
33157SOL    HW2 1369  14.330  10.813  13.746
33158SOL     OW 1370   2.370  11.393   9.328
33158SOL    HW1 1371   2.316  11.331   9.279
33158SOL    HW2 1372   2.353  11.478   9.287
33159SOL     OW 1373   4.821   1.749   3.950
33159SOL    HW1 1374   4.857   1.706   3.873
33159SOL    HW2 1375   4.848   1.840   3.941
33160SOL     OW 1376  10.533   1.712  13.237
33160SOL    HW1 1377  10.501   1.755  13.158
33160SOL    HW2 1378  10.499   1.623  13.232
33161SOL     OW 1379   7.710  14.496   1.059
33161SOL    HW1 1380   7.620  14.519   1.082
33161SOL    HW2 1381   7.700  14.422   0.999
33162SOL     OW 1382   5.622   5.561  12.711
33162SOL    HW1 1383   5.657   5.526  12.629
33162SOL    HW2 1384   5.535   5.523  12.718
33163SOL     OW 1385   6.205  12.991   1.690
33163SOL    HW1 1386   6.144  12.978   1.617
33163SOL    HW2 1387   6.153  13.031   1.759
33164SOL     OW 1388   5.292   8.667   3.914
33164SOL    HW1 1389   5.285   8.762   3.918
33164SOL    HW2 1390   5.255   8.636   3.996
33165SOL     OW 1391   0.122   9.732   5.667
33165SOL    HW1 1392   0.101   9.639   5.668
33165SOL    HW2 1393   0.115   9.758   5.575
33166SOL     OW 1394  10.757   1.534   8.331
33166SOL    HW1 1395  10.776   1.475   8.258
33166SOL    HW2 1396  10.832   1.593   8.333
33167SOL     OW 1397   6.233   9.455   1.310
33167SOL    HW1 1398   6.326   9.466   1.291
33167SOL    HW2 1399   6.219   9.503   1.391
33168SOL     OW 1400   0.697   7.713   2.909
33168SOL    HW1 1401   0.761   7.668   2.854
33168SOL    HW2 1402   0.718   7.684   2.998
33169SOL     OW 1403  14.658  14.160   1.549
33169SOL    HW1 1404  14.749  14.133   1.538
33169SOL    HW2 1405  14.616  14.137   1.466
33170SOL     OW 1406  10.786   1.911   5.966
33170SOL    HW1 1407  10.837   1.898   5.886
33170SOL    HW2 1408  10.850   1.905   6.036
33171SOL     OW 1409  10.396  12.328   3.279
33171SOL    HW1 1410  10.476  12.276   3.267
33171SOL    HW2 1411  10.386  12.375   3.196
33172SOL     OW 1412   9.074   5.934  14.787
33172SOL    HW1 1413   9.106   5.939  14.697
33172SOL    HW2 1414   9.128   5.866  14.828
33173SOL     OW 1415   7.837  14.597   2.267
33173SOL    HW1 1416   7.864  14.551   2.346
33173SOL    HW2 1417   7.743  14.581   2.261
33174SOL     OW 1418  10.935   5.562  13.064
33174SOL    HW1 1419  10.872   5.627  13.033
33174SOL    HW2 1420  11.008   5.569  13.003
33175SOL     OW 1421   3.761   1.971   2.324
33175SOL    HW1 1422   3.828   1.965   2.256
33175SOL    HW2 1423   3.807   1.956   2.406
33176SOL     OW 1424  13.757  10.259   0.260
33176SOL    HW1 1425  13.748  10.238   0.353
33176SOL    HW2 1426  13.741  10.353   0.255
33177SOL     OW 1427  12.965   3.786   0.732
33177SOL    HW1 1428  12.935   3.826   0.650
33177SOL    HW2 1429  12.925   3.839   0.801
33178SOL     OW 1430  13.269   7.509   6.433
33178SOL    HW1 1431  13.346   7.461   6.401
33178SOL    HW2 1432  13.275   7.502   6.529
33179SOL     OW 1433   7.761   8.850   4.116
33179SOL    HW1 1434   7.812   8.931   4.116
33179SOL    HW2 1435   7.729   8.841   4.205
33180SOL     OW 1436   4.111  11.807  11.344
33180SOL    HW1 1437   4.047  11.865  11.302
33180SOL    HW2 1438   4.196  11.838  11.313
33181SOL     OW 1439   7.643   1.459   9.582
33181SOL    HW1 1440   7.624   1.490   9.493
33181SOL    HW2 1441   7.563   1.477   9.631
33182SOL     OW 1442   8.837   5.730  11.712
33182SOL    HW1 1443   8.845   5.798  11.780
33182SOL    HW2 1444   8.847   5.777  11.630
33183SOL     OW 1445   8.734   5.925   6.380
33183SOL    HW1 1446   8.762   6.012   6.352
33183SOL    HW2 1447   8.799   5.898   6.444
33184SOL     OW 1448   6.569  11.648  10.825
33184SOL    HW1 1449   6.518  11.583  10.874
33184SOL    HW2 1450   6.568  11.726  10.881
33185SOL     OW 1451   2.045   9.644  14.286
33185SOL    HW1 1452   2.104   9.627  14.212
33185SOL    HW2 1453   2.103   9.648  14.362
33186SOL     OW 1454   4.019   5.913  14.541
33186SOL    HW1 1455   4.053   5.824  14.535
33186SOL    HW2 1456   3.924   5.903  14.547
33187SOL     OW 1457   3.965  11.388   6.585
33187SOL    HW1 1458   3.931  11.302   6.560
33187SOL    HW2 1459   4.036  11.405   6.524
33188SOL     OW 1460   5.461   4.605   7.402
33188SOL    HW1 1461   5.404   4.532   7.376
33188SOL    HW2 1462   5.532   4.564   7.450
33189SOL     OW 1463  13.811   3.474  13.765
33189SOL    HW1 1464  13.873   3.543  13.739
33189SOL    HW2 1465  13.731   3.495  13.717
33190SOL     OW 1466   0.561  12.470  10.471
33190SOL    HW1 1467   0.632  12.416  10.505
33190SOL    HW2 1468   0.605  12.535  10.416
33191SOL     OW 1469   1.664   2.884   2.362
33191SOL    HW1 1470   1.709   2.900   2.445
33191SOL    HW2 1471   1.628   2.796   2.371
33192SOL     OW 1472  10.710   5.175   8.282
33192SOL    HW1 1473  10.745   5.085   8.278
33192SOL    HW2 1474  10.616   5.164   8.290
33193SOL     OW 1475   5.657   1.103   7.662
33193SOL    HW1 1476   5.688   1.124   7.751
33193SOL    HW2 1477   5.611   1.020   7.672
33194SOL     OW 1478  13.900   1.888   5.505
33194SOL    HW1 1479  13.837   1.944   5.459
33194SOL    HW2 1480  13.885   1.907   5.598
33195SOL     OW 1481   0.907   8.603   4.777
33195SOL    HW1 1482   0.848   8.648   4.837
33195SOL    HW2 1483   0.979   8.664   4.764
33196SOL     OW 1484   8.539  13.530   3.882
33196SOL    HW1 1485   8.618  13.580   3.905
33196SOL    HW2 1486   8.472  13.597   3.871
33197SOL     OW 1487   8.783   7.302   1.470
33197SOL    HW1 1488   8.701   7.338   1.437
33197SOL    HW2 1489   8.816   7.247   1.398
33198SOL     OW 1490   6.661  13.782   1.869
33198SOL    HW1 1491   6.694  13.782   1.959
33198SOL    HW2 1492   6.596  13.711   1.868
33199SOL     OW 1493   6.184  13.894  10.861
33199SOL    HW1 1494   6.148  13.977  10.832
33199SOL    HW2 1495   6.234  13.915  10.940
33200SOL     OW 1496   2.763   4.200   4.682
33200SOL    HW1 1497   2.827   4.174   4.749
33200SOL    HW2 1498   2.808   4.183   4.599
33201SOL     OW 1499   5.567   9.958   1.671
33201SOL    HW1 1500   5.616   9.880   1.697
33201SOL    HW2 1501   5.487   9.924   1.631
33202SOL     OW 1502   6.199   9.948   2.683
33202SOL    HW1 1503   6.166   9.958   2.772
33202SOL    HW2 1504   6.292   9.928   2.694
33203SOL     OW 1505   7.540   6.551   0.103
33203SOL    HW1 1506   7.512   6.623   0.159
33203SOL    HW2 1507   7.619   6.584   0.060
33204SOL     OW 1508  14.830   5.828   5.888
33204SOL    HW1 1509  14.814   5.903   5.945
33204SOL    HW2 1510  14.873   5.764   5.944
33205SOL     OW 1511  10.970   8.371  12.728
33205SOL    HW1 1512  10.908   8.423  12.780
33205SOL    HW2 1513  10.916   8.336  12.657
33206SOL     OW 1514  11.339  11.854  10.991
33206SOL    HW1 1515  11.413  11.913  10.978
33206SOL    HW2 1516  11.379  11.769  11.011
33207SOL     OW 1517  14.745   6.731   1.170
33207SOL    HW1 1518  14.824   6.702   1.216
33207SOL    HW2 1519  14.707   6.651   1.134
33208SOL     OW 1520  14.027   1.303   7.565
33208SOL    HW1 1521  14.007   1.383   7.614
33208SOL    HW2 1522  13.977   1.234   7.611
33209SOL     OW 1523   8.694  14.507  13.970
33209SOL    HW1 1524   8.684  14.602  13.974
33209SOL    HW2 1525   8.786  14.493  13.948
33210SOL     OW 1526  12.330   5.241   9.262
33210SOL    HW1 1527  12.388   5.232   9.187
33210SOL    HW2 1528  12.361   5.176   9.325
33211SOL     OW 1529  12.098   8.643   9.758
33211SOL    HW1 1530  12.041   8.706   9.713
33211SOL    HW2 1531  12.046   8.612   9.833
33212SOL     OW 1532   5.346   2.611   4.189
33212SOL    HW1 1533   5.281   2.623   4.258
33212SOL    HW2 1534   5.315   2.535   4.140
33213SOL     OW 1535  11.102   8.591  13.383
33213SOL    HW1 1536  11.119   8.573  13.290
33213SOL    HW2 1537  11.007   8.597  13.389
33214SOL     OW 1538  10.102   0.668  11.612
33214SOL    HW1 1539  10.017   0.624  11.621
33214SOL    HW2 1540  10.096   0.744  11.670
33215SOL     OW 1541   7.017   5.280  13.771
33215SOL    HW1 1542   6.942   5.220  13.765
33215SOL    HW2 1543   7.079   5.234  13.828
33216SOL     OW 1544   1.772   0.154   0.387
33216SOL    HW1 1545   1.854   0.167   0.340
33216SOL    HW2 1546   1.795   0.164   0.479
33217SOL     OW 1547  13.324   5.000   8.910
33217SOL    HW1 1548  13.290   4.998   9.000
33217SOL    HW2 1549  13.416   4.975   8.919
33218SOL     OW 1550  11.626   5.038   4.156
33218SOL    HW1 1551  11.567   5.032   4.231
33218SOL    HW2 1552  11.612   5.126   4.121
33219SOL     OW 1553  11.831   7.396  10.963
33219SOL    HW1 1554  11.772   7.330  11.000
33219SOL    HW2 1555  11.861   7.358  10.880
33220SOL     OW 1556   6.872   3.150   4.727
33220SOL    HW1 1557   6.951   3.199   4.706
33220SOL    HW2 1558   6.864   3.085   4.658
33221SOL     OW 1559  14.570   2.262   2.508
33221SOL    HW1 1560  14.543   2.172   2.491
33221SOL    HW2 1561  14.544   2.278   2.599
33222SOL     OW 1562   2.042   4.283  11.739
33222SOL    HW1 1563   1.994   4.351  11.691
33222SOL    HW2 1564   2.101   4.245  11.674
33223SOL     OW 1565   4.693  10.656   8.472
33223SOL    HW1 1566   4.667  10.727   8.531
33223SOL    HW2 1567   4.631  10.661   8.399
33224SOL     OW 1568   2.107   3.121   4.459
33224SOL    HW1 1569   2.023   3.100   4.419
33224SOL    HW2 1570   2.142   3.192   4.405
33225SOL     OW 1571  11.482   2.811   6.281
33225SOL    HW1 1572  11.547   2.772   6.221
33225SOL    HW2 1573  11.515   2.791   6.368
33226SOL     OW 1574   7.114  11.758   0.900
33226SOL    HW1 1575   7.048  11.816   0.863
33226SOL    HW2 1576   7.066  11.678   0.923
33227SOL     OW 1577   5.953  12.372   9.821
33227SOL    HW1 1578   5.948  12.308   9.750
33227SOL    HW2 1579   6.033  12.422   9.802
33228SOL     OW 1580   3.435  11.954   4.193
33228SOL    HW1 1581   3.519  11.926   4.229
33228SOL    HW2 1582   3.435  12.049   4.203
33229SOL     OW 1583   0.070   6.414  11.776
33229SOL    HW1 1584   0.144   6.442  11.828
33229SOL    HW2 1585   0.002   6.392  11.839
33230SOL     OW 1586  10.364   2.679  10.923
33230SOL    HW1 1587  10.299   2.740  10.958
33230SOL    HW2 1588  10.448   2.720  10.941
33231SOL     OW 1589  10.340   2.510   6.674
33231SOL    HW1 1590  10.252   2.498   6.637
33231SOL    HW2 1591  10.399   2.490   6.601
33232SOL     OW 1592   6.699   4.409   6.691
33232SOL    HW1 1593   6.622   4.413   6.746
33232SOL    HW2 1594   6.734   4.498   6.691
33233SOL     OW 1595   6.555   4.706   3.715
33233SOL    HW1 1596   6.624   4.645   3.690
33233SOL    HW2 1597   6.474   4.657   3.700
33234SOL     OW 1598  13.605   8.269   2.959
33234SOL    HW1 1599  13.655   8.335   2.911
33234SOL    HW2 1600  13.564   8.317   3.031
33235SOL     OW 1601   1.368  13.947   4.419
33235SOL    HW1 1602   1.393  13.988   4.336
33235SOL    HW2 1603   1.323  14.016   4.467
33236SOL     OW 1604   2.088  13.484   4.665
33236SOL    HW1 1605   2.158  13.428   4.630
33236SOL    HW2 1606   2.008  13.432   4.655
33237SOL     OW 1607   2.440  12.309  12.519
33237SOL    HW1 1608   2.515  12.252  12.502
33237SOL    HW2 1609   2.378  12.253  12.565
33238SOL     OW 1610   8.459   2.037   0.066
33238SOL    HW1 1611   8.466   2.042  14.858
33238SOL    HW2 1612   8.510   2.112   0.098
33239SOL     OW 1613  12.019  14.712  12.334
33239SOL    HW1 1614  12.086  14.680  12.274
33239SOL    HW2 1615  12.054  14.695  12.421
33240SOL     OW 1616   2.418  13.183   9.641
33240SOL    HW1 1617   2.472  13.262   9.637
33240SOL    HW2 1618   2.452  13.127   9.572
33241SOL     OW 1619   4.682   1.048  11.156
33241SOL    HW1 1620   4.698   1.011  11.069
33241SOL    HW2 1621   4.768   1.074  11.188
33242SOL     OW 1622   3.222   7.506   9.562
33242SOL    HW1 1623   3.161   7.579   9.556
33242SOL    HW2 1624   3.268   7.519   9.645
33243SOL     OW 1625   6.695   4.297  11.574
33243SOL    HW1 1626   6.653   4.289  11.488
33243SOL    HW2 1627   6.632   4.259  11.635
33244SOL     OW 1628  10.727  12.119  13.669
33244SOL    HW1 1629  10.809  12.071  13.678
33244SOL    HW2 1630  10.750  12.210  13.689
33245SOL     OW 1631   6.732   0.912   2.242
33245SOL    HW1 1632   6.652   0.951   2.209
33245SOL    HW2 1633   6.705   0.826   2.274
33246SOL     OW 1634   2.701   1.609  11.657
33246SOL    HW1 1635   2.646   1.568  11.591
33246SOL    HW2 1636   2.693   1.552  11.734
33247SOL     OW 1637   0.849   8.002  11.735
33247SOL    HW1 1638   0.899   7.940  11.682
33247SOL    HW2 1639   0.759   7.968  11.733
33248SOL     OW 1640   1.910   8.292   9.445
33248SOL    HW1 1641   1.964   8.348   9.389
33248SOL    HW2 1642   1.966   8.217   9.465
33249SOL     OW 1643   2.975  13.214   7.338
33249SOL    HW1 1644   2.997  13.278   7.405
33249SOL    HW2 1645   3.034  13.140   7.354
33250SOL     OW 1646   8.833   9.316  14.303
33250SOL    HW1 1647   8.910   9.326  14.358
33250SOL    HW2 1648   8.760   9.345  14.358
33251SOL     OW 1649  14.024   9.717   1.042
33251SOL    HW1 1650  13.989   9.641   0.996
33251SOL    HW2 1651  14.001   9.703   1.134
33252SOL     OW 1652  13.520   7.477   2.698
33252SOL    HW1 1653  13.518   7.481   2.793
33252SOL    HW2 1654  13.576   7.402   2.678
33253SOL     OW 1655  11.875   5.041   3.522
33253SOL    HW1 1656  11.784   5.044   3.553
33253SOL    HW2 1657  11.896   5.132   3.503
33254SOL     OW 1658   5.121   7.693   0.540
33254SOL    HW1 1659   5.207   7.655   0.523
33254SOL    HW2 1660   5.104   7.675   0.632
33255SOL     OW 1661   6.849   8.159  12.883
33255SOL    HW1 1662   6.825   8.068  12.865
33255SOL    HW2 1663   6.802   8.180  12.964
33256SOL     OW 1664  11.379  11.188   4.329
33256SOL    HW1 1665  11.325  11.173   4.407
33256SOL    HW2 1666  11.401  11.281   4.333
33257SOL     OW 1667   3.918  10.569   5.551
33257SOL    HW1 1668   4.005  10.540   5.524
33257SOL    HW2 1669   3.909  10.656   5.513
33258SOL     OW 1670  12.995  14.245   3.050
33258SOL    HW1 1671  13.067  14.266   2.990
33258SOL    HW2 1672  12.935  14.192   2.997
33259SOL     OW 1673  12.618  14.357  11.903
33259SOL    HW1 1674  12.529  14.347  11.937
33259SOL    HW2 1675  12.637  14.450  11.911
33260SOL     OW 1676   6.028   3.062   9.101
33260SOL    HW1 1677   5.982   3.138   9.065
33260SOL    HW2 1678   6.042   3.084   9.193
33261SOL     OW 1679   1.161   3.763   1.611
33261SOL    HW1 1680   1.126   3.813   1.537
33261SOL    HW2 1681   1.253   3.790   1.616
33262SOL     OW 1682  12.843  12.097   4.610
33262SOL    HW1 1683  12.930  12.099   4.570
33262SOL    HW2 1684  12.822  12.189   4.626
33263SOL     OW 1685  13.014   7.707   3.757
33263SOL    HW1 1686  13.089   7.759   3.788
33263SOL    HW2 1687  12.981   7.756   3.681
33264SOL     OW 1688   9.209   0.802   3.454
33264SOL    HW1 1689   9.279   0.854   3.414
33264SOL    HW2 1690   9.198   0.839   3.541
33265SOL     OW 1691   9.846   7.772   4.663
33265SOL    HW1 1692   9.835   7.861   4.698
33265SOL    HW2 1693   9.906   7.730   4.725
33266SOL     OW 1694  10.164   1.505   2.375
33266SOL    HW1 1695  10.209   1.466   2.300
33266SOL    HW2 1696  10.078   1.530   2.342
33267SOL     OW 1697  11.793   2.979  13.824
33267SOL    HW1 1698  11.761   2.917  13.890
33267SOL    HW2 1699  11.811   2.926  13.747
33268SOL     OW 1700   8.219   1.916  10.588
33268SOL    HW1 1701   8.191   1.981  10.653
33268SOL    HW2 1702   8.190   1.952  10.504
33269SOL     OW 1703   4.631   0.532  13.926
33269SOL    HW1 1704   4.539   0.539  13.951
33269SOL    HW2 1705   4.679   0.534  14.008
33270SOL     OW 1706   3.628  14.803   4.314
33270SOL    HW1 1707   3.624  14.761   4.400
33270SOL    HW2 1708   3.537  14.826   4.295
33271SOL     OW 1709   7.271  13.982   6.538
33271SOL    HW1 1710   7.319  14.053   6.582
33271SOL    HW2 1711   7.203  14.027   6.488
33272SOL     OW 1712   6.582  13.322   4.310
33272SOL    HW1 1713   6.520  13.317   4.382
33272SOL    HW2 1714   6.666  13.299   4.349
33273SOL     OW 1715   6.622   2.153   2.932
33273SOL    HW1 1716   6.692   2.113   2.983
33273SOL    HW2 1717   6.544   2.143   2.986
33274SOL     OW 1718   7.228   6.402  13.948
33274SOL    HW1 1719   7.203   6.339  14.016
33274SOL    HW2 1720   7.313   6.371  13.916
33275SOL     OW 1721  11.670   8.458   0.347
33275SOL    HW1 1722  11.591   8.464   0.401
33275SOL    HW2 1723  11.673   8.367   0.318
33276SOL     OW 1724   8.161   0.066   1.259
33276SOL    HW1 1725   8.087   0.125   1.265
33276SOL    HW2 1726   8.237   0.120   1.281
33277SOL     OW 1727  11.031  11.478   8.160
33277SOL    HW1 1728  10.953  11.463   8.214
33277SOL    HW2 1729  11.020  11.566   8.125
33278SOL     OW 1730  11.702   9.486  10.912
33278SOL    HW1 1731  11.612   9.504  10.887
33278SOL    HW2 1732  11.736   9.432  10.840
33279SOL     OW 1733   4.296   5.174   4.769
33279SOL    HW1 1734   4.352   5.192   4.845
33279SOL    HW2 1735   4.356   5.137   4.704
33280SOL     OW 1736   8.429  11.364   6.286
33280SOL    HW1 1737   8.520  11.367   6.256
33280SOL    HW2 1738   8.387  11.438   6.241
33281SOL     OW 1739   4.819  13.443  10.986
33281SOL    HW1 1740   4.856  13.356  11.006
33281SOL    HW2 1741   4.896  13.499  10.975
33282SOL     OW 1742   5.653  11.635   8.611
33282SOL    HW1 1743   5.663  11.636   8.706
33282SOL    HW2 1744   5.564  11.603   8.597
33283SOL     OW 1745  11.201  13.162  12.942
33283SOL    HW1 1746  11.171  13.161  13.032
33283SOL    HW2 1747  11.129  13.202  12.893
33284SOL     OW 1748  12.172   1.713  12.035
33284SOL    HW1 1749  12.158   1.775  12.106
33284SOL    HW2 1750  12.174   1.768  11.956
33285SOL     OW 1751   9.987   4.309  13.615
33285SOL    HW1 1752  10.053   4.240  13.615
33285SOL    HW2 1753  10.010   4.365  13.690
33286SOL     OW 1754  12.758   7.953   8.796
33286SOL    HW1 1755  12.718   7.960   8.709
33286SOL    HW2 1756  12.686   7.928   8.854
33287SOL     OW 1757   2.420  12.112   2.902
33287SOL    HW1 1758   2.515  12.114   2.886
33287SOL    HW2 1759   2.410  12.056   2.979
33288SOL     OW 1760   7.591   5.508  10.514
33288SOL    HW1 1761   7.637   5.590  10.530
33288SOL    HW2 1762   7.590   5.500  10.418
33289SOL     OW 1763  14.520   4.770  10.819
33289SOL    HW1 1764  14.462   4.723  10.879
33289SOL    HW2 1765  14.549   4.846  10.870
33290SOL     OW 1766   5.167   9.245   4.325
33290SOL    HW1 1767   5.079   9.248   4.362
33290SOL    HW2 1768   5.189   9.337   4.308
33291SOL     OW 1769   2.894   7.015   6.370
33291SOL    HW1 1770   2.905   7.110   6.368
33291SOL    HW2 1771   2.857   6.996   6.456
33292SOL     OW 1772  12.683  14.619  10.211
33292SOL    HW1 1773  12.757  14.651  10.159
33292SOL    HW2 1774  12.653  14.541  10.165
33293SOL     OW 1775   4.768   0.145   8.414
33293SOL    HW1 1776   4.780   0.235   8.444
33293SOL    HW2 1777   4.772   0.151   8.318
33294SOL     OW 1778   7.466   1.001  14.039
33294SOL    HW1 1779   7.549   0.952  14.031
33294SOL    HW2 1780   7.406   0.938  14.080
33295SOL     OW 1781   5.779   2.707   3.768
33295SOL    HW1 1782   5.776   2.796   3.802
33295SOL    HW2 1783   5.872   2.690   3.753
33296SOL     OW 1784   0.517   5.031   3.818
33296SOL    HW1 1785   0.588   4.998   3.873
33296SOL    HW2 1786   0.536   5.124   3.807
33297SOL     OW 1787  14.712  13.563   4.298
33297SOL    HW1 1788  14.684  13.631   4.360
33297SOL    HW2 1789  14.684  13.595   4.213
33298SOL     OW 1790  14.865  12.174   9.461
33298SOL    HW1 1791  14.856  12.266   9.487
33298SOL    HW2 1792  14.792  12.160   9.400
33299SOL     OW 1793  14.230  13.732   6.023
33299SOL    HW1 1794  14.316  13.753   5.986
33299SOL    HW2 1795  14.215  13.799   6.089
33300SOL     OW 1796   5.195   3.711   9.719
33300SOL    HW1 1797   5.218   3.739   9.808
33300SOL    HW2 1798   5.123   3.650   9.731
33301SOL     OW 1799  11.648   1.497   4.291
33301SOL    HW1 1800  11.591   1.434   4.337
33301SOL    HW2 1801  11.737   1.465   4.309
33302SOL     OW 1802   2.261  12.765  12.428
33302SOL    HW1 1803   2.179  12.730  12.464
33302SOL    HW2 1804   2.325  12.694  12.441
33303SOL     OW 1805   8.097   4.068  11.882
33303SOL    HW1 1806   8.029   4.135  11.892
33303SOL    HW2 1807   8.068   3.996  11.937
33304SOL     OW 1808   2.528   1.279   4.469
33304SOL    HW1 1809   2.524   1.366   4.431
33304SOL    HW2 1810   2.528   1.293   4.564
33305SOL     OW 1811  13.930   1.879  10.950
33305SOL    HW1 1812  13.864   1.921  11.005
33305SOL    HW2 1813  13.954   1.946  10.886
33306SOL     OW 1814   0.622  11.620   0.385
33306SOL    HW1 1815   0.659  11.704   0.358
33306SOL    HW2 1816   0.652  11.608   0.475
33307SOL     OW 1817  13.814  10.712   9.725
33307SOL    HW1 1818  13.860  10.766   9.661
33307SOL    HW2 1819  13.819  10.623   9.690
33308SOL     OW 1820   9.432  14.651   5.630
33308SOL    HW1 1821   9.520  14.679   5.658
33308SOL    HW2 1822   9.379  14.656   5.709
33309SOL     OW 1823  11.601  12.040   1.526
33309SOL    HW1 1824  11.630  12.071   1.440
33309SOL    HW2 1825  11.667  12.073   1.587
33310SOL     OW 1826   0.110   7.755   1.148
33310SOL    HW1 1827   0.109   7.677   1.093
33310SOL    HW2 1828   0.181   7.810   1.113
33311SOL     OW 1829   2.693  13.787   0.140
33311SOL    HW1 1830   2.698  13.816   0.048
33311SOL    HW2 1831   2.633  13.713   0.138
33312SOL     OW 1832   6.339   8.423   3.397
33312SOL    HW1 1833   6.249   8.423   3.430
33312SOL    HW2 1834   6.352   8.335   3.363
33313SOL     OW 1835   9.574   2.906   3.896
33313SOL    HW1 1836   9.504   2.855   3.857
33313SOL    HW2 1837   9.654   2.862   3.868
33314SOL     OW 1838   4.013   0.600  11.898
33314SOL    HW1 1839   3.976   0.682  11.866
33314SOL    HW2 1840   3.949   0.533  11.873
33315SOL     OW 1841   3.790   8.811   7.311
33315SOL    HW1 1842   3.881   8.836   7.299
33315SOL    HW2 1843   3.773   8.747   7.241
33316SOL     OW 1844   0.933   1.441   5.640
33316SOL    HW1 1845   0.902   1.350   5.641
33316SOL    HW2 1846   0.982   1.449   5.558
33317SOL     OW 1847   4.661   4.710   8.076
33317SOL    HW1 1848   4.623   4.646   8.136
33317SOL    HW2 1849   4.704   4.774   8.132
33318SOL     OW 1850   7.116  11.244   7.425
33318SOL    HW1 1851   7.044  11.251   7.487
33318SOL    HW2 1852   7.086  11.180   7.361
33319SOL     OW 1853   0.101  11.585   3.439
33319SOL    HW1 1854   0.133  11.657   3.492
33319SOL    HW2 1855   0.083  11.624   3.354
33320SOL     OW 1856   1.245   3.115  12.196
33320SOL    HW1 1857   1.267   3.202  12.164
33320SOL    HW2 1858   1.191   3.131  12.274
33321SOL     OW 1859   9.398   6.388  11.575
33321SOL    HW1 1860   9.490   6.396  11.601
33321SOL    HW2 1861   9.364   6.477  11.579
33322SOL     OW 1862   7.589   2.736   7.407
33322SOL    HW1 1863   7.610   2.797   7.336
33322SOL    HW2 1864   7.665   2.740   7.466
33323SOL     OW 1865   4.581   1.755  10.397
33323SOL    HW1 1866   4.529   1.814  10.450
33323SOL    HW2 1867   4.586   1.674  10.449
33324SOL     OW 1868   4.482   7.417  11.744
33324SOL    HW1 1869   4.525   7.344  11.789
33324SOL    HW2 1870   4.416   7.449  11.806
33325SOL     OW 1871  14.163   8.730   3.618
33325SOL    HW1 1872  14.211   8.812   3.632
33325SOL    HW2 1873  14.146   8.698   3.707
33326SOL     OW 1874   1.409   7.509   7.446
33326SOL    HW1 1875   1.470   7.581   7.428
33326SOL    HW2 1876   1.390   7.517   7.539
33327SOL     OW 1877  13.587   1.876   1.708
33327SOL    HW1 1878  13.537   1.921   1.640
33327SOL    HW2 1879  13.552   1.787   1.708
33328SOL     OW 1880  13.128  11.204   4.283
33328SOL    HW1 1881  13.077  11.237   4.209
33328SOL    HW2 1882  13.086  11.121   4.306
33329SOL     OW 1883   6.464   0.141   4.917
33329SOL    HW1 1884   6.523   0.174   4.985
33329SOL    HW2 1885   6.485   0.048   4.910
33330SOL     OW 1886   9.131   8.254  12.749
33330SOL    HW1 1887   9.088   8.309  12.815
33330SOL    HW2 1888   9.223   8.277  12.755
33331SOL     OW 1889   3.512   1.532   7.716
33331SOL    HW1 1890   3.545   1.538   7.805
33331SOL    HW2 1891   3.418   1.552   7.723
33332SOL     OW 1892  11.448   7.543   0.855
33332SOL    HW1 1893  11.507   7.595   0.909
33332SOL    HW2 1894  11.366   7.593   0.855
33333SOL     OW 1895   9.009   8.514   9.299
33333SOL    HW1 1896   8.982   8.589   9.351
33333SOL    HW2 1897   9.027   8.445   9.363
33334SOL     OW 1898  10.199   8.886  11.502
33334SOL    HW1 1899  10.285   8.845  11.505
33334SOL    HW2 1900  10.195   8.940  11.582
33335SOL     OW 1901  11.465   0.350  12.665
33335SOL    HW1 1902  11.526   0.420  12.643
33335SOL    HW2 1903  11.511   0.296  12.728
33336SOL     OW 1904   7.503   3.269   7.290
33336SOL    HW1 1905   7.496   3.189   7.342
33336SOL    HW2 1906   7.595   3.294   7.295
33337SOL     OW 1907  11.075  10.847  10.624
33337SOL    HW1 1908  11.096  10.940  10.624
33337SOL    HW2 1909  10.988  10.842  10.663
33338SOL     OW 1910   4.446  12.109  13.815
33338SOL    HW1 1911   4.519  12.148  13.767
33338SOL    HW2 1912   4.386  12.077  13.747
33339SOL     OW 1913   9.600  14.011   9.276
33339SOL    HW1 1914   9.661  13.973   9.213
33339SOL    HW2 1915   9.596  13.948   9.347
33340SOL     OW 1916   8.642  12.607  10.871
33340SOL    HW1 1917   8.722  12.585  10.918
33340SOL    HW2 1918   8.625  12.699  10.894
33341SOL     OW 1919   3.650   5.650   8.229
33341SOL    HW1 1920   3.631   5.744   8.227
33341SOL    HW2 1921   3.570   5.609   8.196
33342SOL     OW 1922   3.365   4.383  13.286
33342SOL    HW1 1923   3.361   4.469  13.327
33342SOL    HW2 1924   3.275   4.363  13.262
33343SOL     OW 1925  10.551   9.413  12.593
33343SOL    HW1 1926  10.590   9.435  12.677
33343SOL    HW2 1927  10.590   9.474  12.531
33344SOL     OW 1928  12.452  14.562   8.344
33344SOL    HW1 1929  12.386  14.575   8.412
33344SOL    HW2 1930  12.499  14.645   8.340
33345SOL     OW 1931   9.797   6.798   5.982
33345SOL    HW1 1932   9.726   6.779   5.921
33345SOL    HW2 1933   9.766   6.872   6.033
33346SOL     OW 1934   8.301   4.831   6.210
33346SOL    HW1 1935   8.348   4.850   6.291
33346SOL    HW2 1936   8.230   4.894   6.207
33347SOL     OW 1937   3.084  11.785   9.602
33347SOL    HW1 1938   2.991  11.785   9.581
33347SOL    HW2 1939   3.125  11.736   9.530
33348SOL     OW 1940   1.734   2.921   8.505
33348SOL    HW1 1941   1.794   2.858   8.544
33348SOL    HW2 1942   1.720   2.889   8.416
33349SOL     OW 1943   1.275  10.294  14.692
33349SOL    HW1 1944   1.188  10.322  14.664
33349SOL    HW2 1945   1.320  10.376  14.713
33350SOL     OW 1946   0.419  10.676   7.110
33350SOL    HW1 1947   0.450  10.593   7.145
33350SOL    HW2 1948   0.329  10.684   7.142
33351SOL     OW 1949   7.013   3.832   7.117
33351SOL    HW1 1950   7.096   3.784   7.118
33351SOL    HW2 1951   6.959   3.789   7.184
33352SOL     OW 1952   4.761   1.090   7.821
33352SOL    HW1 1953   4.771   1.148   7.897
33352SOL    HW2 1954   4.670   1.102   7.794
33353SOL     OW 1955   2.297   5.562   7.686
33353SOL    HW1 1956   2.265   5.476   7.656
33353SOL    HW2 1957   2.350   5.594   7.613
33354SOL     OW 1958   7.452  11.299   2.549
33354SOL    HW1 1959   7.361  11.270   2.542
33354SOL    HW2 1960   7.494  11.266   2.469
33355SOL     OW 1961   3.769   1.984   5.817
33355SOL    HW1 1962   3.767   1.923   5.890
33355SOL    HW2 1963   3.829   1.945   5.754
33356SOL     OW 1964   9.476   0.782  12.059
33356SOL    HW1 1965   9.450   0.745  11.975
33356SOL    HW2 1966   9.453   0.713  12.123
33357SOL     OW 1967   3.500  12.367  13.769
33357SOL    HW1 1968   3.433  12.427  13.735
33357SOL    HW2 1969   3.577  12.386  13.715
33358SOL     OW 1970   5.603  10.875  12.456
33358SOL    HW1 1971   5.508  10.882  12.468
33358SOL    HW2 1972   5.622  10.933  12.382
33359SOL     OW 1973   6.818  10.365  13.512
33359SOL    HW1 1974   6.774  10.295  13.559
33359SOL    HW2 1975   6.910  10.337  13.507
33360SOL     OW 1976   9.725   0.758  10.336
33360SOL    HW1 1977   9.785   0.709  10.280
33360SOL    HW2 1978   9.770   0.762  10.421
33361SOL     OW 1979   7.565  14.457  12.785
33361SOL    HW1 1980   7.554  14.535  12.731
33361SOL    HW2 1981   7.611  14.488  12.864
33362SOL     OW 1982   4.230   5.483  11.114
33362SOL    HW1 1983   4.297   5.485  11.183
33362SOL    HW2 1984   4.182   5.565  11.125
33363SOL     OW 1985   8.449   2.133   6.589
33363SOL    HW1 1986   8.435   2.089   6.505
33363SOL    HW2 1987   8.498   2.212   6.566
33364SOL     OW 1988   6.453  12.049   1.742
33364SOL    HW1 1989   6.491  11.962   1.757
33364SOL    HW2 1990   6.368  12.031   1.703
33365SOL     OW 1991  10.549   3.095   6.115
33365SOL    HW1 1992  10.472   3.117   6.063
33365SOL    HW2 1993  10.545   2.999   6.125
33366SOL     OW 1994  12.423   3.156   3.950
33366SOL    HW1 1995  12.379   3.228   3.994
33366SOL    HW2 1996  12.369   3.138   3.873
33367SOL     OW 1997   4.508   5.566   5.387
33367SOL    HW1 1998   4.572   5.505   5.350
33367SOL    HW2 1999   4.431   5.512   5.404
33368SOL     OW 2000  10.287  12.124   6.317
33368SOL    HW1 2001  10.288  12.030   6.337
33368SOL    HW2 2002  10.227  12.161   6.382
33369SOL     OW 2003   7.952   1.772   2.390
33369SOL    HW1 2004   8.040   1.762   2.356
33369SOL    HW2 2005   7.936   1.692   2.440
33370SOL     OW 2006   5.434   1.262   0.128
33370SOL    HW1 2007   5.473   1.197   0.186
33370SOL    HW2 2008   5.494   1.267   0.054
33371SOL     OW 2009   9.638   3.353   9.170
33371SOL    HW1 2010   9.650   3.259   9.162
33371SOL    HW2 2011   9.544   3.365   9.184
33372SOL     OW 2012  12.508   3.728   5.355
33372SOL    HW1 2013  12.426   3.778   5.358
33372SOL    HW2 2014  12.576   3.795   5.341
33373SOL     OW 2015   6.162   5.945   5.418
33373SOL    HW1 2016   6.111   6.021   5.446
33373SOL    HW2 2017   6.121   5.918   5.336
33374SOL     OW 2018   2.630   8.694  11.757
33374SOL    HW1 2019   2.559   8.741  11.801
33374SOL    HW2 2020   2.694   8.678  11.826
33375SOL     OW 2021   1.467   2.926   2.810
33375SOL    HW1 2022   1.440   2.985   2.880
33375SOL    HW2 2023   1.530   2.977   2.759
33376SOL     OW 2024  12.743  13.138   8.322
33376SOL    HW1 2025  12.660  13.186   8.324
33376SOL    HW2 2026  12.762  13.119   8.414
33377SOL     OW 2027   6.446  13.038  14.521
33377SOL    HW1 2028   6.429  13.089  14.441
33377SOL    HW2 2029   6.535  13.061  14.546
33378SOL     OW 2030  10.878  10.686   3.416
33378SOL    HW1 2031  10.843  10.773   3.436
33378SOL    HW2 2032  10.821  10.652   3.348
33379SOL     OW 2033   4.112  14.597   7.825
33379SOL    HW1 2034   4.147  14.561   7.744
33379SOL    HW2 2035   4.184  14.590   7.888
33380SOL     OW 2036   0.343  10.852  13.320
33380SOL    HW1 2037   0.351  10.783  13.254
33380SOL    HW2 2038   0.391  10.818  13.395
33381SOL     OW 2039   3.684   4.211  10.106
33381SOL    HW1 2040   3.698   4.188  10.014
33381SOL    HW2 2041   3.748   4.280  10.124
33382SOL     OW 2042   2.242  14.069   1.970
33382SOL    HW1 2043   2.270  14.090   1.881
33382SOL    HW2 2044   2.321  14.038   2.013
33383SOL     OW 2045   6.810   8.988   9.888
33383SOL    HW1 2046   6.784   8.903   9.925
33383SOL    HW2 2047   6.732   9.018   9.841
33384SOL     OW 2048   5.701   7.489   3.926
33384SOL    HW1 2049   5.741   7.576   3.926
33384SOL    HW2 2050   5.724   7.451   3.842
33385SOL     OW 2051  13.603   1.442  11.674
33385SOL    HW1 2052  13.571   1.424  11.586
33385SOL    HW2 2053  13.548   1.513  11.707
33386SOL     OW 2054   6.553  12.480  12.537
33386SOL    HW1 2055   6.547  12.415  12.468
33386SOL    HW2 2056   6.637  12.464  12.579
33387SOL     OW 2057  11.359   8.256  14.485
33387SOL    HW1 2058  11.449   8.288  14.477
33387SOL    HW2 2059  11.310   8.331  14.518
33388SOL     OW 2060  10.138   2.312   7.214
33388SOL    HW1 2061  10.066   2.253   7.193
33388SOL    HW2 2062  10.217   2.263   7.191
33389SOL     OW 2063  11.039   1.414   7.183
33389SOL    HW1 2064  10.969   1.351   7.203
33389SOL    HW2 2065  11.023   1.486   7.243
33390SOL     OW 2066   5.716  10.208  14.103
33390SOL    HW1 2067   5.800  10.201  14.148
33390SOL    HW2 2068   5.737  10.248  14.019
33391SOL     OW 2069   6.484   3.550   9.039
33391SOL    HW1 2070   6.443   3.619   8.987
33391SOL    HW2 2071   6.534   3.597   9.106
33392SOL     OW 2072   4.252  14.239   5.753
33392SOL    HW1 2073   4.324  14.230   5.691
33392SOL    HW2 2074   4.291  14.284   5.829
33393SOL     OW 2075  12.044   7.156  12.255
33393SOL    HW1 2076  12.019   7.135  12.345
33393SOL    HW2 2077  12.100   7.234  12.264
33394SOL     OW 2078   5.445  12.239   6.605
33394SOL    HW1 2079   5.387  12.247   6.529
33394SOL    HW2 2080   5.396  12.183   6.666
33395SOL     OW 2081   0.171   5.815  10.165
33395SOL    HW1 2082   0.096   5.779  10.211
33395SOL    HW2 2083   0.237   5.745  10.169
33396SOL     OW 2084   1.770  12.624   7.752
33396SOL    HW1 2085   1.769  12.660   7.841
33396SOL    HW2 2086   1.680  12.635   7.721
33397SOL     OW 2087   5.708  13.923  12.429
33397SOL    HW1 2088   5.613  13.911  12.426
33397SOL    HW2 2089   5.722  14.014  12.405
33398SOL     OW 2090   5.276   5.763  13.372
33398SOL    HW1 2091   5.184   5.736  13.373
33398SOL    HW2 2092   5.318   5.704  13.309
33399SOL     OW 2093   2.007  10.202   1.451
33399SOL    HW1 2094   1.946  10.248   1.509
33399SOL    HW2 2095   2.018  10.116   1.492
33400SOL     OW 2096   8.621   2.861   2.978
33400SOL    HW1 2097   8.695   2.801   2.982
33400SOL    HW2 2098   8.632   2.918   3.055
33401SOL     OW 2099   7.407  10.779   1.440
33401SOL    HW1 2100   7.334  10.761   1.499
33401SOL    HW2 2101   7.472  10.712   1.459
33402SOL     OW 2102   5.979   2.886   6.714
33402SOL    HW1 2103   5.923   2.831   6.768
33402SOL    HW2 2104   6.026   2.825   6.658
33403SOL     OW 2105   4.779   9.693  13.739
33403SOL    HW1 2106   4.791   9.700  13.834
33403SOL    HW2 2107   4.740   9.777  13.713
33404SOL     OW 2108   1.681   6.620   3.158
33404SOL    HW1 2109   1.689   6.692   3.221
33404SOL    HW2 2110   1.755   6.562   3.179
33405SOL     OW 2111   0.651   4.965   4.547
33405SOL    HW1 2112   0.609   4.902   4.488
33405SOL    HW2 2113   0.735   4.925   4.570
33406SOL     OW 2114   1.095   8.547   2.159
33406SOL    HW1 2115   1.189   8.543   2.175
33406SOL    HW2 2116   1.062   8.463   2.191
33407SOL     OW 2117  12.939   7.581  14.835
33407SOL    HW1 2118  13.032   7.579  14.812
33407SOL    HW2 2119  12.906   7.661  14.794
33408SOL     OW 2120  10.730  10.426  10.565
33408SOL    HW1 2121  10.710  10.440  10.657
33408SOL    HW2 2122  10.799  10.490  10.545
33409SOL     OW 2123   7.636   1.292  13.855
33409SOL    HW1 2124   7.579   1.241  13.797
33409SOL    HW2 2125   7.717   1.304  13.804
33410SOL     OW 2126  12.224   0.752  12.330
33410SOL    HW1 2127  12.141   0.716  12.361
33410SOL    HW2 2128  12.282   0.677  12.321
33411SOL     OW 2129   9.939   4.576   4.124
33411SOL    HW1 2130   9.909   4.657   4.082
33411SOL    HW2 2131   9.870   4.554   4.186
33412SOL     OW 2132  10.501   6.950   1.095
33412SOL    HW1 2133  10.422   6.994   1.127
33412SOL    HW2 2134  10.468   6.881   1.037
33413SOL     OW 2135  10.564   5.392  10.090
33413SOL    HW1 2136  10.518   5.312  10.115
33413SOL    HW2 2137  10.542   5.454  10.159
33414SOL     OW 2138  11.810   5.943   3.603
33414SOL    HW1 2139  11.733   5.891   3.626
33414SOL    HW2 2140  11.884   5.884   3.618
33415SOL     OW 2141  13.120   8.580  14.544
33415SOL    HW1 2142  13.043   8.540  14.584
33415SOL    HW2 2143  13.139   8.655  14.599
33416SOL     OW 2144   1.213  11.398   9.282
33416SOL    HW1 2145   1.235  11.309   9.256
33416SOL    HW2 2146   1.290  11.430   9.329
33417SOL     OW 2147   6.848   9.504   0.192
33417SOL    HW1 2148   6.769   9.527   0.144
33417SOL    HW2 2149   6.907   9.469   0.126
33418SOL     OW 2150   2.486  11.279   8.954
33418SOL    HW1 2151   2.568  11.313   8.917
33418SOL    HW2 2152   2.498  11.185   8.958
33419SOL     OW 2153   1.994  10.972  13.543
33419SOL    HW1 2154   2.049  10.894  13.551
33419SOL    HW2 2155   1.982  11.002  13.633
33420SOL     OW 2156   5.007   8.054   2.559
33420SOL    HW1 2157   5.015   7.958   2.561
33420SOL    HW2 2158   4.921   8.070   2.522
33421SOL     OW 2159   3.940   9.969   7.587
33421SOL    HW1 2160   3.999  10.012   7.525
33421SOL    HW2 2161   3.912   9.890   7.541
33422SOL     OW 2162  13.408   8.957  12.582
33422SOL    HW1 2163  13.338   8.989  12.639
33422SOL    HW2 2164  13.366   8.889  12.529
33423SOL     OW 2165   7.660   3.587   5.184
33423SOL    HW1 2166   7.663   3.508   5.238
33423SOL    HW2 2167   7.705   3.563   5.103
33424SOL     OW 2168  12.337   7.183   0.816
33424SOL    HW1 2169  12.397   7.244   0.857
33424SOL    HW2 2170  12.332   7.211   0.724
33425SOL     OW 2171   7.535   7.830  10.650
33425SOL    HW1 2172   7.554   7.760  10.713
33425SOL    HW2 2173   7.561   7.910  10.695
33426SOL     OW 2174   3.453   0.580   4.306
33426SOL    HW1 2175   3.405   0.652   4.346
33426SOL    HW2 2176   3.535   0.574   4.356
33427SOL     OW 2177   6.395   8.717   8.328
33427SOL    HW1 2178   6.405   8.808   8.357
33427SOL    HW2 2179   6.405   8.666   8.409
33428SOL     OW 2180  14.595  10.434   5.652
33428SOL    HW1 2181  14.627  10.487   5.579
33428SOL    HW2 2182  14.670  10.424   5.710
33429SOL     OW 2183   9.981   6.826   8.780
33429SOL    HW1 2184  10.044   6.898   8.788
33429SOL    HW2 2185  10.021   6.754   8.829
33430SOL     OW 2186   3.885   6.360   8.473
33430SOL    HW1 2187   3.975   6.350   8.441
33430SOL    HW2 2188   3.895   6.392   8.563
33431SOL     OW 2189   5.338   9.654   4.052
33431SOL    HW1 2190   5.257   9.616   4.085
33431SOL    HW2 2191   5.333   9.644   3.957
33432SOL     OW 2192   2.390  10.894   8.381
33432SOL    HW1 2193   2.384  10.935   8.295
33432SOL    HW2 2194   2.483  10.883   8.397
33433SOL     OW 2195   5.133   8.163   3.772
33433SOL    HW1 2196   5.147   8.178   3.865
33433SOL    HW2 2197   5.222   8.157   3.735
33434SOL     OW 2198   7.788   8.657  12.449
33434SOL    HW1 2199   7.824   8.595  12.512
33434SOL    HW2 2200   7.718   8.609  12.405
33435SOL     OW 2201   0.192   9.517   6.385
33435SOL    HW1 2202   0.242   9.485   6.311
33435SOL    HW2 2203   0.258   9.546   6.448
33436SOL     OW 2204   5.807   2.192  10.834
33436SOL    HW1 2205   5.801   2.109  10.881
33436SOL    HW2 2206   5.719   2.208  10.801
33437SOL     OW 2207   8.531   2.882  11.689
33437SOL    HW1 2208   8.438   2.860  11.680
33437SOL    HW2 2209   8.575   2.798  11.699
33438SOL     OW 2210   5.106   7.979  10.909
33438SOL    HW1 2211   5.148   7.905  10.952
33438SOL    HW2 2212   5.116   8.052  10.971
33439SOL     OW 2213   7.132   3.162   1.813
33439SOL    HW1 2214   7.215   3.201   1.787
33439SOL    HW2 2215   7.142   3.146   1.907
33440SOL     OW 2216   4.866   4.899   4.052
33440SOL    HW1 2217   4.891   4.815   4.090
33440SOL    HW2 2218   4.939   4.957   4.074
33441SOL     OW 2219   2.515   7.937   4.665
33441SOL    HW1 2220   2.574   7.928   4.740
33441SOL    HW2 2221   2.452   7.865   4.676
33442SOL     OW 2222   8.881  13.457   1.009
33442SOL    HW1 2223   8.894  13.411   0.927
33442SOL    HW2 2224   8.873  13.549   0.984
33443SOL     OW 2225   3.129   3.450  11.198
33443SOL    HW1 2226   3.153   3.426  11.288
33443SOL    HW2 2227   3.206   3.496  11.164
33444SOL     OW 2228  11.208   1.345   8.457
33444SOL    HW1 2229  11.198   1.439   8.470
33444SOL    HW2 2230  11.294   1.335   8.415
33445SOL     OW 2231  10.899  13.817   9.063
33445SOL    HW1 2232  10.983  13.798   9.105
33445SOL    HW2 2233  10.837  13.761   9.108
33446SOL     OW 2234   8.884   9.614  10.407
33446SOL    HW1 2235   8.924   9.616  10.321
33446SOL    HW2 2236   8.898   9.525  10.439
33447SOL     OW 2237   4.825   6.352   4.601
33447SOL    HW1 2238   4.903   6.316   4.643
33447SOL    HW2 2239   4.781   6.401   4.670
33448SOL     OW 2240   4.579   9.492   4.037
33448SOL    HW1 2241   4.513   9.430   4.007
33448SOL    HW2 2242   4.650   9.437   4.070
33449SOL     OW 2243  10.130  12.309   5.016
33449SOL    HW1 2244  10.145  12.214   5.014
33449SOL    HW2 2245  10.036  12.319   5.033
33450SOL     OW 2246  14.487   7.815  13.878
33450SOL    HW1 2247  14.522   7.895  13.839
33450SOL    HW2 2248  14.562   7.777  13.925
33451SOL     OW 2249  11.173  12.960   7.032
33451SOL    HW1 2250  11.097  12.910   7.001
33451SOL    HW2 2251  11.220  12.899   7.088
33452SOL     OW 2252   3.922   7.960   2.171
33452SOL    HW1 2253   3.842   7.998   2.208
33452SOL    HW2 2254   3.990   8.024   2.193
33453SOL     OW 2255  14.265   6.464   0.369
33453SOL    HW1 2256  14.283   6.407   0.443
33453SOL    HW2 2257  14.191   6.518   0.399
33454SOL     OW 2258   2.477  10.928   5.853
33454SOL    HW1 2259   2.539  10.956   5.921
33454SOL    HW2 2260   2.528  10.931   5.772
33455SOL     OW 2261   4.472   5.143   3.867
33455SOL    HW1 2262   4.385   5.103   3.857
33455SOL    HW2 2263   4.507   5.104   3.947
33456SOL     OW 2264  10.599  11.125   2.184
33456SOL    HW1 2265  10.609  11.030   2.180
33456SOL    HW2 2266  10.623  11.149   2.273
33457SOL     OW 2267   7.406  11.177  14.847
33457SOL    HW1 2268   7.347  11.252  14.854
33457SOL    HW2 2269   7.399  11.134   0.045
33458SOL     OW 2270   0.188  10.378   6.901
33458SOL    HW1 2271   0.150  10.442   6.840
33458SOL    HW2 2272   0.263  10.423   6.939
33459SOL     OW 2273   8.516  13.879   9.420
33459SOL    HW1 2274   8.572  13.815   9.464
33459SOL    HW2 2275   8.544  13.876   9.329
33460SOL     OW 2276   6.032   6.094  12.595
33460SOL    HW1 2277   6.087   6.016  12.593
33460SOL    HW2 2278   5.948   6.064  12.631
33461SOL     OW 2279  14.277   7.656  13.823
33461SOL    HW1 2280  14.359   7.692  13.855
33461SOL    HW2 2281  14.301   7.606  13.745
33462SOL     OW 2282  14.387   3.996   0.786
33462SOL    HW1 2283  14.411   4.088   0.777
33462SOL    HW2 2284  14.470   3.950   0.794
33463SOL     OW 2285   6.691   2.811   0.794
33463SOL    HW1 2286   6.751   2.839   0.726
33463SOL    HW2 2287   6.747   2.795   0.870
33464SOL     OW 2288  12.644  11.470  11.011
33464SOL    HW1 2289  12.703  11.395  11.003
33464SOL    HW2 2290  12.654  11.518  10.929
33465SOL     OW 2291   2.326   1.037   5.629
33465SOL    HW1 2292   2.279   1.101   5.575
33465SOL    HW2 2293   2.258   1.002   5.687
33466SOL     OW 2294   8.679   7.254   0.897
33466SOL    HW1 2295   8.616   7.298   0.840
33466SOL    HW2 2296   8.632   7.178   0.931
33467SOL     OW 2297  13.246  12.500   4.514
33467SOL    HW1 2298  13.170  12.555   4.493
33467SOL    HW2 2299  13.300  12.503   4.436
33468SOL     OW 2300   6.573   2.218   2.313
33468SOL    HW1 2301   6.645   2.179   2.363
33468SOL    HW2 2302   6.513   2.146   2.296
33469SOL     OW 2303  13.743   5.804   0.329
33469SOL    HW1 2304  13.671   5.746   0.353
33469SOL    HW2 2305  13.702   5.873   0.276
33470SOL     OW 2306   7.585   0.818   8.901
33470SOL    HW1 2307   7.583   0.814   8.997
33470SOL    HW2 2308   7.495   0.803   8.874
33471SOL     OW 2309  13.572   5.851   5.993
33471SOL    HW1 2310  13.591   5.918   5.927
33471SOL    HW2 2311  13.509   5.892   6.052
33472SOL     OW 2312   5.041   9.063   6.327
33472SOL    HW1 2313   5.133   9.038   6.313
33472SOL    HW2 2314   4.992   8.981   6.322
33473SOL     OW 2315  11.539   7.847  12.926
33473SOL    HW1 2316  11.495   7.827  12.843
33473SOL    HW2 2317  11.468   7.861  12.989
33474SOL     OW 2318   1.557   9.202   2.968
33474SOL    HW1 2319   1.485   9.264   2.979
33474SOL    HW2 2320   1.517   9.125   2.927
33475SOL     OW 2321   6.904  13.680   0.999
33475SOL    HW1 2322   6.919  13.653   0.909
33475SOL    HW2 2323   6.884  13.599   1.046
33476SOL     OW 2324  13.415   4.665  13.589
33476SOL    HW1 2325  13.420   4.582  13.637
33476SOL    HW2 2326  13.505   4.681  13.560
33477SOL     OW 2327  14.831  11.227  10.907
33477SOL    HW1 2328  14.845  11.207  10.815
33477SOL    HW2 2329  14.792  11.315  10.907
33478SOL     OW 2330   4.573   4.143  14.597
33478SOL    HW1 2331   4.615   4.223  14.566
33478SOL    HW2 2332   4.481   4.154  14.575
33479SOL     OW 2333   8.642   7.294  11.081
33479SOL    HW1 2334   8.638   7.273  10.987
33479SOL    HW2 2335   8.662   7.210  11.123
33480SOL     OW 2336  10.829   7.433   0.377
33480SOL    HW1 2337  10.799   7.369   0.441
33480SOL    HW2 2338  10.761   7.434   0.310
33481SOL     OW 2339   6.321   8.024  14.802
33481SOL    HW1 2340   6.297   8.018  14.709
33481SOL    HW2 2341   6.275   7.951  14.843
33482SOL     OW 2342  11.659   7.943   2.096
33482SOL    HW1 2343  11.713   8.006   2.049
33482SOL    HW2 2344  11.588   7.996   2.133
33483SOL     OW 2345  14.159  11.367   9.148
33483SOL    HW1 2346  14.155  11.278   9.183
33483SOL    HW2 2347  14.070  11.400   9.158
33484SOL     OW 2348   2.574   7.803  12.716
33484SOL    HW1 2349   2.503   7.815  12.779
33484SOL    HW2 2350   2.562   7.873  12.652
33485SOL     OW 2351  11.740   2.206   5.778
33485SOL    HW1 2352  11.665   2.192   5.721
33485SOL    HW2 2353  11.793   2.272   5.732
33486SOL     OW 2354   7.583   9.483   8.620
33486SOL    HW1 2355   7.530   9.405   8.602
33486SOL    HW2 2356   7.615   9.510   8.534
33487SOL     OW 2357   5.287  10.088   8.316
33487SOL    HW1 2358   5.255  10.093   8.406
33487SOL    HW2 2359   5.326  10.001   8.309
33488SOL     OW 2360   2.215  11.696   5.198
33488SOL    HW1 2361   2.179  11.649   5.123
33488SOL    HW2 2362   2.307  11.709   5.177
33489SOL     OW 2363  14.189  13.742  10.892
33489SOL    HW1 2364  14.264  13.801  10.891
33489SOL    HW2 2365  14.124  13.785  10.948
33490SOL     OW 2366   3.252  11.480  12.866
33490SOL    HW1 2367   3.225  11.556  12.815
33490SOL    HW2 2368   3.300  11.425  12.804
33491SOL     OW 2369   4.125   3.774   2.190
33491SOL    HW1 2370   4.218   3.794   2.176
33491SOL    HW2 2371   4.080   3.823   2.122
33492SOL     OW 2372   5.683   5.678   7.454
33492SOL    HW1 2373   5.734   5.730   7.517
33492SOL    HW2 2374   5.634   5.617   7.508
33493SOL     OW 2375  13.363   7.782  11.740
33493SOL    HW1 2376  13.370   7.849  11.808
33493SOL    HW2 2377  13.391   7.701  11.782
33494SOL     OW 2378   0.487   3.027   4.806
33494SOL    HW1 2379   0.527   3.060   4.886
33494SOL    HW2 2380   0.505   3.095   4.741
33495SOL     OW 2381  13.601   3.522   9.114
33495SOL    HW1 2382  13.566   3.576   9.043
33495SOL    HW2 2383  13.647   3.451   9.070
33496SOL     OW 2384   9.005   1.907   9.630
33496SOL    HW1 2385   9.052   1.921   9.547
33496SOL    HW2 2386   9.016   1.813   9.648
33497SOL     OW 2387   0.566   5.051   2.358
33497SOL    HW1 2388   0.649   5.021   2.395
33497SOL    HW2 2389   0.543   4.984   2.294
33498SOL     OW 2390   9.383   8.868   8.677
33498SOL    HW1 2391   9.294   8.836   8.693
33498SOL    HW2 2392   9.426   8.862   8.762
33499SOL     OW 2393  12.920   6.006   1.830
33499SOL    HW1 2394  12.961   6.083   1.869
33499SOL    HW2 2395  12.834   6.000   1.873
33500SOL     OW 2396   1.795   2.301   5.216
33500SOL    HW1 2397   1.864   2.356   5.254
33500SOL    HW2 2398   1.782   2.337   5.128
33501SOL     OW 2399   3.130   6.299   6.843
33501SOL    HW1 2400   3.062   6.355   6.879
33501SOL    HW2 2401   3.094   6.211   6.847
33502SOL     OW 2402   3.800   0.054   4.165
33502SOL    HW1 2403   3.731   0.024   4.225
33502SOL    HW2 2404   3.774   0.142   4.140
33503SOL     OW 2405   6.002   6.949   1.529
33503SOL    HW1 2406   5.926   6.896   1.506
33503SOL    HW2 2407   5.967   7.017   1.587
33504SOL     OW 2408   8.096   5.552  14.465
33504SOL    HW1 2409   8.057   5.608  14.531
33504SOL    HW2 2410   8.175   5.599  14.436
33505SOL     OW 2411  12.181   1.839  14.381
33505SOL    HW1 2412  12.145   1.880  14.303
33505SOL    HW2 2413  12.233   1.765  14.348
33506SOL     OW 2414   2.752   0.070  13.882
33506SOL    HW1 2415   2.732   0.122  13.960
33506SOL    HW2 2416   2.743   0.133  13.810
33507SOL     OW 2417   6.516   2.585   0.751
33507SOL    HW1 2418   6.567   2.544   0.682
33507SOL    HW2 2419   6.547   2.675   0.754
33508SOL     OW 2420   9.173  11.490  12.270
33508SOL    HW1 2421   9.120  11.570  12.268
33508SOL    HW2 2422   9.108  11.419  12.261
33509SOL     OW 2423  12.971   9.663   3.415
33509SOL    HW1 2424  12.999   9.656   3.324
33509SOL    HW2 2425  12.915   9.586   3.429
33510SOL     OW 2426  12.413   0.953   8.288
33510SOL    HW1 2427  12.452   1.036   8.262
33510SOL    HW2 2428  12.326   0.953   8.248
33511SOL     OW 2429   6.841   9.957   9.084
33511SOL    HW1 2430   6.869  10.005   9.006
33511SOL    HW2 2431   6.903   9.984   9.152
33512SOL     OW 2432  12.538  14.562  13.526
33512SOL    HW1 2433  12.462  14.516  13.490
33512SOL    HW2 2434  12.596  14.574  13.451
33513SOL     OW 2435  10.775   7.708   6.829
33513SOL    HW1 2436  10.692   7.681   6.789
33513SOL    HW2 2437  10.820   7.757   6.760
33514SOL     OW 2438   0.151  14.038   5.534
33514SOL    HW1 2439   0.088  14.021   5.604
33514SOL    HW2 2440   0.187  14.125   5.555
33515SOL     OW 2441   6.616   4.352   6.423
33515SOL    HW1 2442   6.655   4.353   6.510
33515SOL    HW2 2443   6.689   4.333   6.364
33516SOL     OW 2444   4.897  13.728  11.426
33516SOL    HW1 2445   4.856  13.658  11.477
33516SOL    HW2 2446   4.990  13.705  11.423
33517SOL     OW 2447  13.255   4.966   0.860
33517SOL    HW1 2448  13.333   4.967   0.804
33517SOL    HW2 2449  13.182   4.962   0.799
33518SOL     OW 2450   1.370  13.978  11.973
33518SOL    HW1 2451   1.379  13.952  11.881
33518SOL    HW2 2452   1.325  14.063  11.969
33519SOL     OW 2453   5.781   3.225  14.337
33519SOL    HW1 2454   5.851   3.227  14.403
33519SOL    HW2 2455   5.796   3.302  14.284
33520SOL     OW 2456   8.819   1.249   3.434
33520SOL    HW1 2457   8.831   1.323   3.376
33520SOL    HW2 2458   8.834   1.172   3.379
33521SOL     OW 2459   7.567   2.013  14.184
33521SOL    HW1 2460   7.524   2.085  14.230
33521SOL    HW2 2461   7.533   2.016  14.095
33522SOL     OW 2462   0.569   9.075  12.157
33522SOL    HW1 2463   0.649   9.025  12.145
33522SOL    HW2 2464   0.531   9.082  12.069
33523SOL     OW 2465  10.793   2.327   2.583
33523SOL    HW1 2466  10.755   2.267   2.520
33523SOL    HW2 2467  10.887   2.314   2.575
33524SOL     OW 2468  13.842  12.659   7.052
33524SOL    HW1 2469  13.825  12.692   6.964
33524SOL    HW2 2470  13.920  12.604   7.043
33525SOL     OW 2471   3.248  14.343  11.743
33525SOL    HW1 2472   3.297  14.380  11.817
33525SOL    HW2 2473   3.209  14.419  11.700
33526SOL     OW 2474  10.933   9.235   8.565
33526SOL    HW1 2475  10.995   9.296   8.525
33526SOL    HW2 2476  10.959   9.231   8.657
33527SOL     OW 2477  12.141   0.417  12.131
33527SOL    HW1 2478  12.061   0.466  12.112
33527SOL    HW2 2479  12.168   0.380  12.047
33528SOL     OW 2480   0.845   9.073   8.946
33528SOL    HW1 2481   0.759   9.035   8.928
33528SOL    HW2 2482   0.891   9.007   8.998
33529SOL     OW 2483   6.029  10.774   7.710
33529SOL    HW1 2484   6.006  10.859   7.748
33529SOL    HW2 2485   6.116  10.754   7.746
33530SOL     OW 2486   2.105  13.116   6.840
33530SOL    HW1 2487   2.011  13.123   6.824
33530SOL    HW2 2488   2.139  13.068   6.764
33531SOL     OW 2489   8.317   2.298   4.623
33531SOL    HW1 2490   8.361   2.266   4.701
33531SOL    HW2 2491   8.226   2.270   4.633
33532SOL     OW 2492   8.699   2.647   0.109
33532SOL    HW1 2493   8.701   2.731   0.154
33532SOL    HW2 2494   8.783   2.641   0.064
33533SOL     OW 2495  10.858   3.327   1.722
33533SOL    HW1 2496  10.842   3.346   1.629
33533SOL    HW2 2497  10.872   3.413   1.762
33534SOL     OW 2498   3.268   8.041   2.881
33534SOL    HW1 2499   3.307   7.977   2.939
33534SOL    HW2 2500   3.215   7.989   2.820
33535SOL     OW 2501   2.983   8.925   1.199
33535SOL    HW1 2502   3.027   8.934   1.283
33535SOL    HW2 2503   2.925   9.001   1.193
33536SOL     OW 2504   6.819  11.538   7.949
33536SOL    HW1 2505   6.821  11.578   8.036
33536SOL    HW2 2506   6.794  11.609   7.890
33537SOL     OW 2507   0.237  13.225   4.422
33537SOL    HW1 2508   0.288  13.159   4.374
33537SOL    HW2 2509   0.147  13.215   4.388
33538SOL     OW 2510   1.934  11.373   9.077
33538SOL    HW1 2511   1.987  11.404   9.003
33538SOL    HW2 2512   1.949  11.438   9.145
33539SOL     OW 2513   1.270   6.378   0.224
33539SOL    HW1 2514   1.359   6.366   0.256
33539SOL    HW2 2515   1.279   6.435   0.147
33540SOL     OW 2516   1.216   8.002  12.121
33540SOL    HW1 2517   1.282   7.953  12.071
33540SOL    HW2 2518   1.237   7.983  12.212
33541SOL     OW 2519  11.739  14.105  13.763
33541SOL    HW1 2520  11.791  14.092  13.842
33541SOL    HW2 2521  11.762  14.192  13.732
33542SOL     OW 2522   0.958   3.469   7.073
33542SOL    HW1 2523   0.883   3.502   7.122
33542SOL    HW2 2524   1.026   3.535   7.086
33543SOL     OW 2525   2.068   4.031   3.330
33543SOL    HW1 2526   2.076   3.985   3.414
33543SOL    HW2 2527   2.105   3.971   3.266
33544SOL     OW 2528   8.509   3.349  13.826
33544SOL    HW1 2529   8.549   3.312  13.905
33544SOL    HW2 2530   8.571   3.416  13.798
33545SOL     OW 2531  12.568   7.638  13.258
33545SOL    HW1 2532  12.543   7.658  13.167
33545SOL    HW2 2533  12.648   7.689  13.272
33546SOL     OW 2534  13.602   6.500   9.071
33546SOL    HW1 2535  13.558   6.416   9.083
33546SOL    HW2 2536  13.531   6.564   9.070
33547SOL     OW 2537  10.577   8.174   3.903
33547SOL    HW1 2538  10.496   8.162   3.854
33547SOL    HW2 2539  10.644   8.189   3.835
33548SOL     OW 2540   8.701   7.451  11.737
33548SOL    HW1 2541   8.625   7.479  11.686
33548SOL    HW2 2542   8.756   7.529  11.743
33549SOL     OW 2543   3.128  13.207   8.542
33549SOL    HW1 2544   3.164  13.275   8.599
33549SOL    HW2 2545   3.037  13.231   8.529
33550SOL     OW 2546  13.399   7.463  13.349
33550SOL    HW1 2547  13.413   7.519  13.425
33550SOL    HW2 2548  13.487   7.451  13.312
33551SOL     OW 2549  11.756  10.996   1.221
33551SOL    HW1 2550  11.758  11.088   1.193
33551SOL    HW2 2551  11.730  10.948   1.142
33552SOL     OW 2552   2.765   4.859   5.694
33552SOL    HW1 2553   2.746   4.947   5.728
33552SOL    HW2 2554   2.840   4.872   5.636
33553SOL     OW 2555   5.310   0.418   6.059
33553SOL    HW1 2556   5.221   0.394   6.035
33553SOL    HW2 2557   5.359   0.335   6.057
33554SOL     OW 2558   6.915   6.530  10.390
33554SOL    HW1 2559   6.843   6.546  10.329
33554SOL    HW2 2560   6.993   6.528  10.334
33555SOL     OW 2561   7.219  13.371   1.259
33555SOL    HW1 2562   7.177  13.339   1.338
33555SOL    HW2 2563   7.209  13.466   1.263
33556SOL     OW 2564   9.856   1.377   1.632
33556SOL    HW1 2565   9.803   1.457   1.635
33556SOL    HW2 2566   9.858   1.353   1.540
33557SOL     OW 2567  13.206   1.881   6.574
33557SOL    HW1 2568  13.197   1.964   6.621
33557SOL    HW2 2569  13.291   1.846   6.602
33558SOL     OW 2570   8.265  11.136   9.728
33558SOL    HW1 2571   8.293  11.170   9.643
33558SOL    HW2 2572   8.319  11.057   9.741
33559SOL     OW 2573   6.213   0.345  10.619
33559SOL    HW1 2574   6.184   0.309  10.535
33559SOL    HW2 2575   6.168   0.292  10.685
33560SOL     OW 2576   8.450   6.733  13.491
33560SOL    HW1 2577   8.424   6.641  13.483
33560SOL    HW2 2578   8.381   6.773  13.544
33561SOL     OW 2579  13.699   2.590  12.552
33561SOL    HW1 2580  13.650   2.533  12.612
33561SOL    HW2 2581  13.778   2.613  12.601
33562SOL     OW 2582   4.615  10.005   0.883
33562SOL    HW1 2583   4.585  10.031   0.796
33562SOL    HW2 2584   4.711  10.009   0.878
33563SOL     OW 2585  11.630  12.411   9.737
33563SOL    HW1 2586  11.711  12.371   9.704
33563SOL    HW2 2587  11.563  12.346   9.717
33564SOL     OW 2588   5.405  11.757  10.042
33564SOL    HW1 2589   5.428  11.826  10.103
33564SOL    HW2 2590   5.326  11.790   9.997
33565SOL     OW 2591   5.756  14.490   0.428
33565SOL    HW1 2592   5.832  14.541   0.398
33565SOL    HW2 2593   5.785  14.399   0.424
33566SOL     OW 2594   9.526  12.506  10.582
33566SOL    HW1 2595   9.497  12.430  10.532
33566SOL    HW2 2596   9.446  12.552  10.605
33567SOL     OW 2597   6.305  14.595   5.284
33567SOL    HW1 2598   6.213  14.588   5.311
33567SOL    HW2 2599   6.301  14.621   5.192
33568SOL     OW 2600   8.020   1.660   9.797
33568SOL    HW1 2601   8.097   1.627   9.845
33568SOL    HW2 2602   8.057   1.713   9.726
33569SOL     OW 2603   4.182  10.694   2.733
33569SOL    HW1 2604   4.105  10.727   2.779
33569SOL    HW2 2605   4.148  10.664   2.649
33570SOL     OW 2606  10.455   7.146   9.107
33570SOL    HW1 2607  10.456   7.149   9.012
33570SOL    HW2 2608  10.399   7.071   9.128
33571SOL     OW 2609   2.490   2.907   7.157
33571SOL    HW1 2610   2.513   2.981   7.213
33571SOL    HW2 2611   2.415   2.938   7.106
33572SOL     OW 2612  11.188   2.871   1.940
33572SOL    HW1 2613  11.176   2.898   1.850
33572SOL    HW2 2614  11.159   2.780   1.942
33573SOL     OW 2615   5.902   9.025  10.833
33573SOL    HW1 2616   5.895   8.930  10.839
33573SOL    HW2 2617   5.852   9.057  10.908
33574SOL     OW 2618  11.915   9.302  12.757
33574SOL    HW1 2619  11.957   9.326  12.840
33574SOL    HW2 2620  11.852   9.234  12.781
33575SOL     OW 2621   2.792  13.424   8.987
33575SOL    HW1 2622   2.792  13.399   9.080
33575SOL    HW2 2623   2.862  13.488   8.979
33576SOL     OW 2624   3.867  11.995   0.767
33576SOL    HW1 2625   3.950  11.949   0.773
33576SOL    HW2 2626   3.884  12.081   0.805
33577SOL     OW 2627   8.507  10.037   3.792
33577SOL    HW1 2628   8.541  10.064   3.706
33577SOL    HW2 2629   8.586  10.026   3.846
33578SOL     OW 2630  10.656   4.787  10.442
33578SOL    HW1 2631  10.595   4.860  10.425
33578SOL    HW2 2632  10.631   4.754  10.528
33579SOL     OW 2633  11.475   7.180   5.737
33579SOL    HW1 2634  11.434   7.098   5.709
33579SOL    HW2 2635  11.567   7.171   5.714
33580SOL     OW 2636  12.131  10.361   4.717
33580SOL    HW1 2637  12.152  10.348   4.809
33580SOL    HW2 2638  12.062  10.298   4.699
33581SOL     OW 2639   6.944  11.587   3.614
33581SOL    HW1 2640   7.019  11.528   3.613
33581SOL    HW2 2641   6.965  11.654   3.550
33582SOL     OW 2642   7.988  13.347   4.700
33582SOL    HW1 2643   7.915  13.297   4.663
33582SOL    HW2 2644   7.976  13.436   4.666
33583SOL     OW 2645  12.341   7.151  13.844
33583SOL    HW1 2646  12.339   7.177  13.936
33583SOL    HW2 2647  12.429   7.176  13.814
33584SOL     OW 2648   9.553  12.730  11.601
33584SOL    HW1 2649   9.575  12.734  11.508
33584SOL    HW2 2650   9.629  12.767  11.646
33585SOL     OW 2651   7.847  12.641   4.140
33585SOL    HW1 2652   7.772  12.698   4.157
33585SOL    HW2 2653   7.820  12.556   4.173
33586SOL     OW 2654  12.908   5.132  14.140
33586SOL    HW1 2655  12.815   5.121  14.122
33586SOL    HW2 2656  12.943   5.043  14.143
33587SOL     OW 2657   1.867  10.674   5.158
33587SOL    HW1 2658   1.826  10.622   5.227
33587SOL    HW2 2659   1.793  10.709   5.108
33588SOL     OW 2660  14.426   6.100   1.820
33588SOL    HW1 2661  14.491   6.169   1.834
33588SOL    HW2 2662  14.450   6.031   1.882
33589SOL     OW 2663  13.822   1.474   4.329
33589SOL    HW1 2664  13.833   1.383   4.355
33589SOL    HW2 2665  13.728   1.485   4.319
33590SOL     OW 2666   9.752   0.061   9.583
33590SOL    HW1 2667   9.754   0.059   9.488
33590SOL    HW2 2668   9.660   0.074   9.605
33591SOL     OW 2669  10.718   4.386   8.000
33591SOL    HW1 2670  10.717   4.459   7.938
33591SOL    HW2 2671  10.769   4.318   7.957
33592SOL     OW 2672  14.445  13.580   7.766
33592SOL    HW1 2673  14.508  13.509   7.778
33592SOL    HW2 2674  14.404  13.591   7.852
33593SOL     OW 2675  11.028   9.356  13.418
33593SOL    HW1 2676  11.114   9.315  13.420
33593SOL    HW2 2677  11.002   9.363  13.510
33594SOL     OW 2678   0.122  11.825   4.561
33594SOL    HW1 2679   0.054  11.764   4.530
33594SOL    HW2 2680   0.139  11.797   4.651
33595SOL     OW 2681   6.450  13.976   7.365
33595SOL    HW1 2682   6.456  13.902   7.425
33595SOL    HW2 2683   6.468  13.939   7.279
33596SOL     OW 2684   8.297   8.117   7.167
33596SOL    HW1 2685   8.301   8.083   7.256
33596SOL    HW2 2686   8.347   8.199   7.169
33597SOL     OW 2687   3.098   0.237  12.693
33597SOL    HW1 2688   3.093   0.331  12.675
33597SOL    HW2 2689   3.177   0.227  12.746
33598SOL     OW 2690   5.967   7.889   1.413
33598SOL    HW1 2691   5.905   7.845   1.355
33598SOL    HW2 2692   6.013   7.818   1.458
33599SOL     OW 2693   3.947  14.078   5.344
33599SOL    HW1 2694   4.005  14.109   5.414
33599SOL    HW2 2695   3.858  14.093   5.378
33600SOL     OW 2696  13.490   8.079   6.360
33600SOL    HW1 2697  13.546   8.066   6.284
33600SOL    HW2 2698  13.531   8.026   6.429
33601SOL     OW 2699  13.992   1.123   9.872
33601SOL    HW1 2700  14.070   1.139   9.924
33601SOL    HW2 2701  13.920   1.131   9.933
33602SOL     OW 2702  13.839   6.036   6.636
33602SOL    HW1 2703  13.865   6.047   6.545
33602SOL    HW2 2704  13.766   5.974   6.634
33603SOL     OW 2705   8.970   3.773  12.315
33603SOL    HW1 2706   9.053   3.742  12.353
33603SOL    HW2 2707   8.907   3.705  12.337
33604SOL     OW 2708   0.052   4.198  10.494
33604SOL    HW1 2709   0.021   4.282  10.461
33604SOL    HW2 2710  14.883   4.179  10.569
33605SOL     OW 2711   3.599  13.415   8.820
33605SOL    HW1 2712   3.649  13.365   8.885
33605SOL    HW2 2713   3.644  13.399   8.737
33606SOL     OW 2714   0.322   9.946  13.762
33606SOL    HW1 2715   0.405   9.984  13.733
33606SOL    HW2 2716   0.257  10.016  13.748
33607SOL     OW 2717   3.113  13.011   6.866
33607SOL    HW1 2718   3.038  13.013   6.926
33607SOL    HW2 2719   3.117  13.099   6.830
33608SOL     OW 2720   1.874  14.103   5.938
33608SOL    HW1 2721   1.854  14.152   6.018
33608SOL    HW2 2722   1.803  14.039   5.931
33609SOL     OW 2723   3.032  11.139   3.323
33609SOL    HW1 2724   3.094  11.069   3.344
33609SOL    HW2 2725   3.039  11.199   3.398
33610SOL     OW 2726  11.225   7.979   2.396
33610SOL    HW1 2727  11.227   7.943   2.484
33610SOL    HW2 2728  11.231   7.903   2.338
33611SOL     OW 2729  10.881   3.572  10.793
33611SOL    HW1 2730  10.969   3.535  10.796
33611SOL    HW2 2731  10.865   3.588  10.700
33612SOL     OW 2732  12.351  11.506   0.104
33612SOL    HW1 2733  12.422  11.507   0.040
33612SOL    HW2 2734  12.306  11.422   0.088
33613SOL     OW 2735   2.153   3.719  10.614
33613SOL    HW1 2736   2.177   3.626  10.614
33613SOL    HW2 2737   2.142   3.741  10.522
33614SOL     OW 2738   2.784   7.202   8.170
33614SOL    HW1 2739   2.872   7.225   8.139
33614SOL    HW2 2740   2.798   7.169   8.259
33615SOL     OW 2741   2.846   6.916   7.216
33615SOL    HW1 2742   2.833   6.844   7.154
33615SOL    HW2 2743   2.821   6.994   7.167
33616SOL     OW 2744   8.329   0.225   5.165
33616SOL    HW1 2745   8.421   0.232   5.140
33616SOL    HW2 2746   8.300   0.316   5.174
33617SOL     OW 2747   2.163   8.059  13.952
33617SOL    HW1 2748   2.191   7.967  13.946
33617SOL    HW2 2749   2.225   8.107  13.898
33618SOL     OW 2750   9.031   4.037   0.418
33618SOL    HW1 2751   9.106   3.987   0.388
33618SOL    HW2 2752   9.031   4.026   0.513
33619SOL     OW 2753  11.545   1.123   9.589
33619SOL    HW1 2754  11.461   1.147   9.550
33619SOL    HW2 2755  11.524   1.103   9.681
33620SOL     OW 2756   7.623   9.690   9.303
33620SOL    HW1 2757   7.562   9.752   9.263
33620SOL    HW2 2758   7.701   9.694   9.248
33621SOL     OW 2759   9.123   9.876   9.399
33621SOL    HW1 2760   9.217   9.896   9.407
33621SOL    HW2 2761   9.103   9.894   9.308
33622SOL     OW 2762   3.985   9.273   2.113
33622SOL    HW1 2763   3.956   9.186   2.140
33622SOL    HW2 2764   3.942   9.288   2.029
33623SOL     OW 2765  12.807   3.726   4.463
33623SOL    HW1 2766  12.714   3.709   4.449
33623SOL    HW2 2767  12.849   3.699   4.382
33624SOL     OW 2768   9.191  10.844   1.546
33624SOL    HW1 2769   9.170  10.847   1.639
33624SOL    HW2 2770   9.248  10.920   1.532
33625SOL     OW 2771  14.400   2.073   6.649
33625SOL    HW1 2772  14.314   2.038   6.672
33625SOL    HW2 2773  14.432   2.113   6.730
33626SOL     OW 2774  14.271   6.245   3.173
33626SOL    HW1 2775  14.336   6.201   3.228
33626SOL    HW2 2776  14.317   6.319   3.134
33627SOL     OW 2777   6.455  14.418  11.410
33627SOL    HW1 2778   6.541  14.377  11.418
33627SOL    HW2 2779   6.458  14.464  11.326
33628SOL     OW 2780   2.233   8.371   6.154
33628SOL    HW1 2781   2.279   8.428   6.092
33628SOL    HW2 2782   2.193   8.432   6.216
33629SOL     OW 2783  13.427   2.677  13.230
33629SOL    HW1 2784  13.519   2.699  13.212
33629SOL    HW2 2785  13.391   2.653  13.146
33630SOL     OW 2786  11.690   8.994   2.793
33630SOL    HW1 2787  11.613   8.995   2.850
33630SOL    HW2 2788  11.758   9.035   2.846
33631SOL     OW 2789   6.632  14.657  13.924
33631SOL    HW1 2790   6.672  14.623  14.004
33631SOL    HW2 2791   6.595  14.742  13.949
33632SOL     OW 2792  13.801   2.375   1.875
33632SOL    HW1 2793  13.889   2.385   1.840
33632SOL    HW2 2794  13.806   2.299   1.932
33633SOL     OW 2795   3.586   9.988  14.349
33633SOL    HW1 2796   3.494   9.962  14.349
33633SOL    HW2 2797   3.584  10.083  14.338
33634SOL     OW 2798   6.714   3.125   0.654
33634SOL    HW1 2799   6.627   3.091   0.633
33634SOL    HW2 2800   6.701   3.219   0.667
33635SOL     OW 2801   3.921  14.820   3.553
33635SOL    HW1 2802   3.853  14.857   3.609
33635SOL    HW2 2803   4.003  14.832   3.602
33636SOL     OW 2804   1.733  11.686   6.614
33636SOL    HW1 2805   1.817  11.643   6.595
33636SOL    HW2 2806   1.735  11.700   6.709
33637SOL     OW 2807  13.030   8.159   9.130
33637SOL    HW1 2808  12.967   8.087   9.127
33637SOL    HW2 2809  13.016   8.207   9.049
33638SOL     OW 2810   3.545   6.203  12.878
33638SOL    HW1 2811   3.570   6.142  12.948
33638SOL    HW2 2812   3.476   6.256  12.917
33639SOL     OW 2813   8.495   7.713  14.713
33639SOL    HW1 2814   8.478   7.668  14.796
33639SOL    HW2 2815   8.571   7.768  14.730
33640SOL     OW 2816  11.618  14.617   2.522
33640SOL    HW1 2817  11.641  14.592   2.611
33640SOL    HW2 2818  11.700  14.615   2.474
33641SOL     OW 2819   6.864   2.701   5.139
33641SOL    HW1 2820   6.950   2.722   5.176
33641SOL    HW2 2821   6.819   2.784   5.135
33642SOL     OW 2822   8.322   1.511   4.222
33642SOL    HW1 2823   8.347   1.593   4.266
33642SOL    HW2 2824   8.231   1.497   4.247
33643SOL     OW 2825  14.188   3.150  11.016
33643SOL    HW1 2826  14.184   3.054  11.018
33643SOL    HW2 2827  14.096   3.177  11.012
33644SOL     OW 2828   9.445  10.907   6.438
33644SOL    HW1 2829   9.446  10.991   6.484
33644SOL    HW2 2830   9.529  10.903   6.393
33645SOL     OW 2831   8.305   6.995   1.793
33645SOL    HW1 2832   8.231   7.049   1.821
33645SOL    HW2 2833   8.364   7.056   1.749
33646SOL     OW 2834   5.701   1.208   4.925
33646SOL    HW1 2835   5.748   1.167   4.852
33646SOL    HW2 2836   5.746   1.291   4.940
33647SOL     OW 2837   5.057   0.118  11.659
33647SOL    HW1 2838   5.109   0.178  11.714
33647SOL    HW2 2839   4.993   0.080  11.719
33648SOL     OW 2840   7.604   1.743   8.817
33648SOL    HW1 2841   7.525   1.787   8.849
33648SOL    HW2 2842   7.672   1.810   8.821
33649SOL     OW 2843   0.247   5.315  13.290
33649SOL    HW1 2844   0.285   5.290  13.375
33649SOL    HW2 2845   0.318   5.360  13.244
33650SOL     OW 2846  13.801   3.097   8.135
33650SOL    HW1 2847  13.747   3.176   8.129
33650SOL    HW2 2848  13.751   3.038   8.192
33651SOL     OW 2849   8.666   7.397   9.970
33651SOL    HW1 2850   8.666   7.365  10.060
33651SOL    HW2 2851   8.730   7.342   9.925
33652SOL     OW 2852   8.786   9.647   1.449
33652SOL    HW1 2853   8.739   9.691   1.520
33652SOL    HW2 2854   8.737   9.566   1.435
33653SOL     OW 2855   0.924   9.738   0.948
33653SOL    HW1 2856   0.915   9.817   0.896
33653SOL    HW2 2857   0.930   9.667   0.883
33654SOL     OW 2858   9.911  11.142   1.766
33654SOL    HW1 2859   9.883  11.104   1.849
33654SOL    HW2 2860   9.868  11.227   1.762
33655SOL     OW 2861  10.788  12.087  13.250
33655SOL    HW1 2862  10.773  12.126  13.164
33655SOL    HW2 2863  10.799  11.993  13.231
33656SOL     OW 2864   4.868  10.283   8.980
33656SOL    HW1 2865   4.957  10.266   9.010
33656SOL    HW2 2866   4.853  10.219   8.911
33657SOL     OW 2867   0.338   0.988   7.450
33657SOL    HW1 2868   0.267   0.955   7.395
33657SOL    HW2 2869   0.349   0.922   7.518
33658SOL     OW 2870   0.509   5.639   9.676
33658SOL    HW1 2871   0.440   5.705   9.685
33658SOL    HW2 2872   0.468   5.557   9.706
33659SOL     OW 2873  14.476   9.172   8.524
33659SOL    HW1 2874  14.562   9.201   8.554
33659SOL    HW2 2875  14.435   9.251   8.489
33660SOL     OW 2876   2.033   0.284   4.133
33660SOL    HW1 2877   2.083   0.366   4.132
33660SOL    HW2 2878   2.093   0.220   4.173
33661SOL     OW 2879   5.329   6.545  14.581
33661SOL    HW1 2880   5.277   6.569  14.657
33661SOL    HW2 2881   5.330   6.449  14.582
33662SOL     OW 2882   0.203   8.070   9.076
33662SOL    HW1 2883   0.155   8.138   9.028
33662SOL    HW2 2884   0.227   8.113   9.159
33663SOL     OW 2885   4.386  13.186   4.804
33663SOL    HW1 2886   4.411  13.271   4.769
33663SOL    HW2 2887   4.388  13.127   4.728
33664SOL     OW 2888  14.333   8.911  14.611
33664SOL    HW1 2889  14.407   8.894  14.670
33664SOL    HW2 2890  14.293   8.991  14.645
33665SOL     OW 2891   2.326   3.472   1.343
33665SOL    HW1 2892   2.305   3.549   1.289
33665SOL    HW2 2893   2.294   3.398   1.292
33666SOL     OW 2894  13.873   3.204   6.613
33666SOL    HW1 2895  13.920   3.249   6.683
33666SOL    HW2 2896  13.817   3.141   6.658
33667SOL     OW 2897   2.177   5.298  12.669
33667SOL    HW1 2898   2.242   5.239  12.707
33667SOL    HW2 2899   2.108   5.303  12.735
33668SOL     OW 2900  12.808   1.662   2.284
33668SOL    HW1 2901  12.807   1.569   2.307
33668SOL    HW2 2902  12.736   1.700   2.335
33669SOL     OW 2903   1.896   0.441  14.355
33669SOL    HW1 2904   1.978   0.465  14.312
33669SOL    HW2 2905   1.919   0.363  14.407
33670SOL     OW 2906   2.321   7.009   2.528
33670SOL    HW1 2907   2.410   6.982   2.551
33670SOL    HW2 2908   2.267   6.979   2.600
33671SOL     OW 2909  12.661  10.863   1.992
33671SOL    HW1 2910  12.666  10.814   1.910
33671SOL    HW2 2911  12.642  10.953   1.965
33672SOL     OW 2912  13.442  13.874   7.118
33672SOL    HW1 2913  13.384  13.876   7.194
33672SOL    HW2 2914  13.405  13.938   7.058
33673SOL     OW 2915   3.917   4.880   5.847
33673SOL    HW1 2916   4.000   4.840   5.820
33673SOL    HW2 2917   3.936   4.974   5.849
33674SOL     OW 2918  11.256  11.449  13.996
33674SOL    HW1 2919  11.171  11.449  14.039
33674SOL    HW2 2920  11.246  11.513  13.925
33675SOL     OW 2921   0.392   8.150   6.600
33675SOL    HW1 2922   0.330   8.220   6.579
33675SOL    HW2 2923   0.476   8.195   6.611
33676SOL     OW 2924   9.010   8.068  12.102
33676SOL    HW1 2925   9.103   8.088  12.107
33676SOL    HW2 2926   9.007   7.979  12.067
33677SOL     OW 2927  14.570   0.674   0.143
33677SOL    HW1 2928  14.647   0.643   0.191
33677SOL    HW2 2929  14.603   0.739   0.082
33678SOL     OW 2930   6.458   0.992   6.213
33678SOL    HW1 2931   6.443   0.906   6.252
33678SOL    HW2 2932   6.384   1.045   6.242
33679SOL     OW 2933   5.874   5.028   6.324
33679SOL    HW1 2934   5.954   4.979   6.340
33679SOL    HW2 2935   5.904   5.112   6.289
33680SOL     OW 2936   6.172   6.029   7.068
33680SOL    HW1 2937   6.141   6.051   6.980
33680SOL    HW2 2938   6.154   6.107   7.120
33681SOL     OW 2939   5.984  13.340  13.846
33681SOL    HW1 2940   5.965  13.433  13.859
33681SOL    HW2 2941   6.006  13.308  13.933
33682SOL     OW 2942   9.888  14.091   4.293
33682SOL    HW1 2943   9.866  14.092   4.386
33682SOL    HW2 2944   9.947  14.165   4.281
33683SOL     OW 2945  11.299   6.999   3.653
33683SOL    HW1 2946  11.303   6.991   3.749
33683SOL    HW2 2947  11.216   7.044   3.637
33684SOL     OW 2948   4.345   2.623  10.872
33684SOL    HW1 2949   4.311   2.594  10.787
33684SOL    HW2 2950   4.431   2.582  10.878
33685SOL     OW 2951  10.411   2.484   7.170
33685SOL    HW1 2952  10.447   2.413   7.223
33685SOL    HW2 2953  10.367   2.440   7.098
33686SOL     OW 2954   7.467  13.965   5.005
33686SOL    HW1 2955   7.455  13.912   5.084
33686SOL    HW2 2956   7.545  14.017   5.023
33687SOL     OW 2957   8.790  13.031   2.259
33687SOL    HW1 2958   8.841  13.100   2.216
33687SOL    HW2 2959   8.855  12.978   2.304
33688SOL     OW 2960   1.791   5.432  12.509
33688SOL    HW1 2961   1.746   5.414  12.592
33688SOL    HW2 2962   1.856   5.363  12.502
33689SOL     OW 2963  11.380   4.613   8.030
33689SOL    HW1 2964  11.415   4.620   7.942
33689SOL    HW2 2965  11.292   4.650   8.024
33690SOL     OW 2966   8.005   4.809   9.284
33690SOL    HW1 2967   8.083   4.846   9.327
33690SOL    HW2 2968   7.980   4.736   9.341
33691SOL     OW 2969   7.467   4.025   6.523
33691SOL    HW1 2970   7.385   4.060   6.557
33691SOL    HW2 2971   7.524   4.019   6.599
33692SOL     OW 2972  13.875   8.180   9.032
33692SOL    HW1 2973  13.815   8.172   8.958
33692SOL    HW2 2974  13.822   8.155   9.108
33693SOL     OW 2975   6.981  12.132   6.556
33693SOL    HW1 2976   6.943  12.119   6.469
33693SOL    HW2 2977   6.924  12.198   6.597
33694SOL     OW 2978   0.844   9.253  11.841
33694SOL    HW1 2979   0.896   9.275  11.765
33694SOL    HW2 2980   0.906   9.249  11.913
33695SOL     OW 2981   4.625  11.873   1.306
33695SOL    HW1 2982   4.629  11.853   1.213
33695SOL    HW2 2983   4.700  11.827   1.344
33696SOL     OW 2984  12.946   5.264  10.315
33696SOL    HW1 2985  12.993   5.299  10.240
33696SOL    HW2 2986  12.966   5.171  10.315
33697SOL     OW 2987   3.294   4.057  13.000
33697SOL    HW1 2988   3.361   4.121  13.024
33697SOL    HW2 2989   3.342   3.976  12.987
33698SOL     OW 2990   5.615   1.833   6.799
33698SOL    HW1 2991   5.525   1.866   6.790
33698SOL    HW2 2992   5.664   1.909   6.830
33699SOL     OW 2993  12.321   9.451   7.078
33699SOL    HW1 2994  12.338   9.396   7.154
33699SOL    HW2 2995  12.232   9.485   7.091
33700SOL     OW 2996   0.340   5.770  13.732
33700SOL    HW1 2997   0.369   5.682  13.707
33700SOL    HW2 2998   0.281   5.755  13.806
33701SOL     OW 2999   7.599  12.560   8.130
33701SOL    HW1 3000   7.531  12.613   8.088
33701SOL    HW2 3001   7.552  12.487   8.169
33702SOL     OW 3002   7.814  12.997   9.975
33702SOL    HW1 3003   7.814  12.953  10.060
33702SOL    HW2 3004   7.727  12.981   9.939
33703SOL     OW 3005  10.941   0.243   7.286
33703SOL    HW1 3006  10.849   0.230   7.263
33703SOL    HW2 3007  10.941   0.325   7.335
33704SOL     OW 3008   3.507   3.432   7.302
33704SOL    HW1 3009   3.595   3.463   7.320
33704SOL    HW2 3010   3.470   3.413   7.389
33705SOL     OW 3011   0.957   8.528  11.307
33705SOL    HW1 3012   0.897   8.595  11.339
33705SOL    HW2 3013   1.042   8.573  11.300
33706SOL     OW 3014   3.822  10.360   3.022
33706SOL    HW1 3015   3.913  10.350   2.997
33706SOL    HW2 3016   3.781  10.405   2.948
33707SOL     OW 3017   7.938   5.383   7.489
33707SOL    HW1 3018   7.996   5.410   7.417
33707SOL    HW2 3019   7.868   5.334   7.446
33708SOL     OW 3020   2.283   7.573  11.429
33708SOL    HW1 3021   2.371   7.597  11.459
33708SOL    HW2 3022   2.292   7.565  11.334
33709SOL     OW 3023   0.569   8.187   3.132
33709SOL    HW1 3024   0.558   8.102   3.089
33709SOL    HW2 3025   0.650   8.222   3.094
33710SOL     OW 3026   4.505   3.900   3.723
33710SOL    HW1 3027   4.410   3.897   3.708
33710SOL    HW2 3028   4.542   3.923   3.638
33711SOL     OW 3029   2.534  13.536   5.835
33711SOL    HW1 3030   2.512  13.456   5.883
33711SOL    HW2 3031   2.490  13.606   5.884
33712SOL     OW 3032  12.189  10.404  13.978
33712SOL    HW1 3033  12.162  10.315  14.000
33712SOL    HW2 3034  12.278  10.412  14.013
33713SOL     OW 3035   5.857   8.533   7.862
33713SOL    HW1 3036   5.909   8.458   7.892
33713SOL    HW2 3037   5.915   8.608   7.873
33714SOL     OW 3038   7.002   8.564   0.166
33714SOL    HW1 3039   7.090   8.533   0.141
33714SOL    HW2 3040   7.019   8.631   0.232
33715SOL     OW 3041   8.804   7.000   7.181
33715SOL    HW1 3042   8.882   6.963   7.223
33715SOL    HW2 3043   8.836   7.078   7.135
33716SOL     OW 3044  10.968  11.583  11.337
33716SOL    HW1 3045  11.046  11.534  11.312
33716SOL    HW2 3046  10.910  11.518  11.377
33717SOL     OW 3047  13.263   3.866   6.562
33717SOL    HW1 3048  13.350   3.894   6.535
33717SOL    HW2 3049  13.207   3.886   6.486
33718SOL     OW 3050   4.285   1.169   2.888
33718SOL    HW1 3051   4.265   1.148   2.797
33718SOL    HW2 3052   4.343   1.098   2.916
33719SOL     OW 3053  12.939   6.373   3.976
33719SOL    HW1 3054  12.894   6.452   3.946
33719SOL    HW2 3055  12.878   6.302   3.960
33720SOL     OW 3056  10.264   5.787  14.018
33720SOL    HW1 3057  10.253   5.812  14.110
33720SOL    HW2 3058  10.262   5.691  14.020
33721SOL     OW 3059  11.319   4.397   3.366
33721SOL    HW1 3060  11.230   4.425   3.386
33721SOL    HW2 3061  11.346   4.346   3.443
33722SOL     OW 3062  12.533  14.034  14.773
33722SOL    HW1 3063  12.447  14.027  14.734
33722SOL    HW2 3064  12.534  14.121  14.813
33723SOL     OW 3065   5.586   5.873   9.650
33723SOL    HW1 3066   5.563   5.955   9.695
33723SOL    HW2 3067   5.677   5.885   9.622
33724SOL     OW 3068   0.622  12.497   3.612
33724SOL    HW1 3069   0.552  12.521   3.552
33724SOL    HW2 3070   0.630  12.572   3.671
33725SOL     OW 3071   0.194  12.071   0.045
33725SOL    HW1 3072   0.236  12.151   0.013
33725SOL    HW2 3073   0.135  12.045  14.861
33726SOL     OW 3074   2.492   8.267   2.378
33726SOL    HW1 3075   2.577   8.223   2.385
33726SOL    HW2 3076   2.476   8.272   2.283
33727SOL     OW 3077  10.528   2.338   8.154
33727SOL    HW1 3078  10.536   2.430   8.179
33727SOL    HW2 3079  10.579   2.291   8.220
33728SOL     OW 3080  13.059  10.537   1.500
33728SOL    HW1 3081  12.980  10.487   1.476
33728SOL    HW2 3082  13.035  10.628   1.485
33729SOL     OW 3083   1.902   6.004   3.122
33729SOL    HW1 3084   1.940   6.086   3.154
33729SOL    HW2 3085   1.937   5.936   3.180
33730SOL     OW 3086  14.727   2.699   0.273
33730SOL    HW1 3087  14.662   2.635   0.300
33730SOL    HW2 3088  14.733   2.690   0.178
33731SOL     OW 3089  10.244  12.972   8.391
33731SOL    HW1 3090  10.251  12.877   8.400
33731SOL    HW2 3091  10.188  13.000   8.464
33732SOL     OW 3092   4.018   2.955   0.473
33732SOL    HW1 3093   3.976   2.944   0.558
33732SOL    HW2 3094   3.985   2.883   0.420
33733SOL     OW 3095   5.906  13.749   2.349
33733SOL    HW1 3096   5.811  13.749   2.351
33733SOL    HW2 3097   5.932  13.762   2.440
33734SOL     OW 3098  10.214   4.526  13.318
33734SOL    HW1 3099  10.254   4.558  13.237
33734SOL    HW2 3100  10.125   4.502  13.293
33735SOL     OW 3101  12.013   5.437  11.142
33735SOL    HW1 3102  12.053   5.524  11.144
33735SOL    HW2 3103  11.985   5.422  11.233
33736SOL     OW 3104   2.279  13.035   7.313
33736SOL    HW1 3105   2.363  12.993   7.294
33736SOL    HW2 3106   2.301  13.126   7.333
33737SOL     OW 3107   6.632   6.009   6.749
33737SOL    HW1 3108   6.546   6.050   6.740
33737SOL    HW2 3109   6.623   5.923   6.708
33738SOL     OW 3110   2.419   7.838  11.760
33738SOL    HW1 3111   2.456   7.830  11.848
33738SOL    HW2 3112   2.377   7.924  11.759
33739SOL     OW 3113   4.986   3.052  11.468
33739SOL    HW1 3114   4.978   3.036  11.374
33739SOL    HW2 3115   5.026   2.973  11.503
33740SOL     OW 3116   7.309  11.583   9.002
33740SOL    HW1 3117   7.260  11.521   8.948
33740SOL    HW2 3118   7.401  11.565   8.981
33741SOL     OW 3119  14.376   1.922  12.150
33741SOL    HW1 3120  14.359   1.936  12.057
33741SOL    HW2 3121  14.295   1.886  12.184
33742SOL     OW 3122   6.079   7.886   4.645
33742SOL    HW1 3123   6.098   7.960   4.588
33742SOL    HW2 3124   6.024   7.922   4.714
33743SOL     OW 3125  11.548   2.617   4.020
33743SOL    HW1 3126  11.619   2.632   3.957
33743SOL    HW2 3127  11.469   2.645   3.974
33744SOL     OW 3128  10.738  12.149   4.796
33744SOL    HW1 3129  10.826  12.184   4.812
33744SOL    HW2 3130  10.689  12.223   4.760
33745SOL     OW 3131   6.116  11.097   5.601
33745SOL    HW1 3132   6.191  11.044   5.575
33745SOL    HW2 3133   6.153  11.166   5.656
33746SOL     OW 3134   0.012  14.629  12.650
33746SOL    HW1 3135  14.872  14.695  12.586
33746SOL    HW2 3136   0.022  14.676  12.732
33747SOL     OW 3137   2.338   4.028   6.754
33747SOL    HW1 3138   2.334   4.117   6.788
33747SOL    HW2 3139   2.411   3.988   6.802
33748SOL     OW 3140  14.079   4.932   5.733
33748SOL    HW1 3141  14.140   4.961   5.666
33748SOL    HW2 3142  14.041   4.851   5.698
33749SOL     OW 3143   1.093   4.023   3.262
33749SOL    HW1 3144   1.064   4.055   3.348
33749SOL    HW2 3145   1.119   3.932   3.277
33750SOL     OW 3146   4.427   2.941   0.774
33750SOL    HW1 3147   4.373   3.013   0.806
33750SOL    HW2 3148   4.410   2.938   0.680
33751SOL     OW 3149   5.696   5.164   2.025
33751SOL    HW1 3150   5.680   5.135   2.115
33751SOL    HW2 3151   5.791   5.163   2.016
33752SOL     OW 3152   5.606   6.107   0.399
33752SOL    HW1 3153   5.628   6.029   0.450
33752SOL    HW2 3154   5.684   6.162   0.405
33753SOL     OW 3155   2.135  14.685  14.752
33753SOL    HW1 3156   2.045  14.660  14.769
33753SOL    HW2 3157   2.129  14.771  14.710
33754SOL     OW 3158   6.550   2.167  10.874
33754SOL    HW1 3159   6.530   2.139  10.785
33754SOL    HW2 3160   6.465   2.170  10.919
33755SOL     OW 3161   9.536  14.837   7.753
33755SOL    HW1 3162   9.534  14.774   7.680
33755SOL    HW2 3163   9.573  14.788   7.826
33756SOL     OW 3164   9.858   6.783   1.290
33756SOL    HW1 3165   9.909   6.778   1.209
33756SOL    HW2 3166   9.922   6.804   1.357
33757SOL     OW 3167   0.943   1.345   9.240
33757SOL    HW1 3168   0.983   1.420   9.285
33757SOL    HW2 3169   0.975   1.351   9.150
33758SOL     OW 3170  10.089   1.401   3.188
33758SOL    HW1 3171  10.128   1.355   3.114
33758SOL    HW2 3172   9.999   1.369   3.191
33759SOL     OW 3173   1.567   2.717   3.751
33759SOL    HW1 3174   1.648   2.757   3.719
33759SOL    HW2 3175   1.540   2.658   3.681
33760SOL     OW 3176  12.018   2.344   5.817
33760SOL    HW1 3177  12.021   2.280   5.888
33760SOL    HW2 3178  12.099   2.395   5.826
33761SOL     OW 3179   6.987  13.898   5.610
33761SOL    HW1 3180   6.946  13.836   5.671
33761SOL    HW2 3181   6.915  13.932   5.558
33762SOL     OW 3182  10.112  10.290  10.596
33762SOL    HW1 3183  10.201  10.306  10.627
33762SOL    HW2 3184  10.122  10.224  10.527
33763SOL     OW 3185   5.463   7.439   9.926
33763SOL    HW1 3186   5.441   7.491  10.003
33763SOL    HW2 3187   5.431   7.351   9.947
33764SOL     OW 3188   7.413   8.566   3.278
33764SOL    HW1 3189   7.453   8.482   3.300
33764SOL    HW2 3190   7.337   8.572   3.336
33765SOL     OW 3191  11.035   6.409   1.756
33765SOL    HW1 3192  11.095   6.365   1.696
33765SOL    HW2 3193  11.022   6.345   1.826
33766SOL     OW 3194   0.817   3.877   8.723
33766SOL    HW1 3195   0.723   3.877   8.706
33766SOL    HW2 3196   0.851   3.947   8.668
33767SOL     OW 3197   1.166   8.540   9.981
33767SOL    HW1 3198   1.129   8.477  10.043
33767SOL    HW2 3199   1.125   8.623  10.005
33768SOL     OW 3200  13.857  14.116  11.820
33768SOL    HW1 3201  13.787  14.057  11.849
33768SOL    HW2 3202  13.916  14.121  11.895
33769SOL     OW 3203   9.023   1.411  12.699
33769SOL    HW1 3204   8.985   1.333  12.739
33769SOL    HW2 3205   9.021   1.394  12.605
33770SOL     OW 3206  11.237   8.879   5.437
33770SOL    HW1 3207  11.326   8.894   5.468
33770SOL    HW2 3208  11.184   8.946   5.479
33771SOL     OW 3209   8.585   5.987   9.099
33771SOL    HW1 3210   8.586   5.893   9.083
33771SOL    HW2 3211   8.649   6.023   9.038
33772SOL     OW 3212   2.509   6.360   0.969
33772SOL    HW1 3213   2.581   6.419   0.946
33772SOL    HW2 3214   2.476   6.393   1.053
33773SOL     OW 3215   4.915  13.299  11.326
33773SOL    HW1 3216   4.889  13.207  11.336
33773SOL    HW2 3217   4.873  13.344  11.399
33774SOL     OW 3218  11.658  13.714  14.741
33774SOL    HW1 3219  11.712  13.636  14.726
33774SOL    HW2 3220  11.713  13.771  14.795
33775SOL     OW 3221   6.721   2.064   2.476
33775SOL    HW1 3222   6.785   1.994   2.466
33775SOL    HW2 3223   6.771   2.138   2.510
33776SOL     OW 3224  14.168   0.655  12.272
33776SOL    HW1 3225  14.227   0.697  12.335
33776SOL    HW2 3226  14.080   0.680  12.301
33777SOL     OW 3227   4.844   9.019   7.810
33777SOL    HW1 3228   4.847   8.985   7.721
33777SOL    HW2 3229   4.798   8.951   7.860
33778SOL     OW 3230   0.906  13.774   6.858
33778SOL    HW1 3231   0.848  13.737   6.791
33778SOL    HW2 3232   0.848  13.793   6.932
33779SOL     OW 3233   0.088  10.352   6.284
33779SOL    HW1 3234   0.165  10.388   6.239
33779SOL    HW2 3235   0.059  10.423   6.341
33780SOL     OW 3236   1.976   8.884   2.757
33780SOL    HW1 3237   1.983   8.927   2.672
33780SOL    HW2 3238   1.915   8.938   2.807
33781SOL     OW 3239   0.914   6.356   4.291
33781SOL    HW1 3240   0.951   6.445   4.284
33781SOL    HW2 3241   0.978   6.307   4.343
33782SOL     OW 3242   0.766   2.699  11.724
33782SOL    HW1 3243   0.690   2.643  11.708
33782SOL    HW2 3244   0.823   2.682  11.649
33783SOL     OW 3245   5.807  13.660   6.607
33783SOL    HW1 3246   5.901  13.643   6.613
33783SOL    HW2 3247   5.767  13.575   6.627
33784SOL     OW 3248   6.668  12.910   4.950
33784SOL    HW1 3249   6.760  12.886   4.938
33784SOL    HW2 3250   6.663  12.939   5.041
33785SOL     OW 3251  11.373   2.279  11.724
33785SOL    HW1 3252  11.373   2.302  11.631
33785SOL    HW2 3253  11.320   2.199  11.729
33786SOL     OW 3254   1.903   8.028  11.407
33786SOL    HW1 3255   1.982   7.992  11.446
33786SOL    HW2 3256   1.930   8.059  11.321
33787SOL     OW 3257  13.558   4.542   7.835
33787SOL    HW1 3258  13.516   4.475   7.889
33787SOL    HW2 3259  13.596   4.603   7.898
33788SOL     OW 3260  12.806  10.588  13.620
33788SOL    HW1 3261  12.722  10.628  13.600
33788SOL    HW2 3262  12.802  10.501  13.579
33789SOL     OW 3263   9.996   0.603   4.017
33789SOL    HW1 3264  10.091   0.599   4.009
33789SOL    HW2 3265   9.974   0.695   4.003
33790SOL     OW 3266   9.370   2.151   6.941
33790SOL    HW1 3267   9.386   2.244   6.925
33790SOL    HW2 3268   9.361   2.113   6.854
33791SOL     OW 3269  13.159   4.756   5.608
33791SOL    HW1 3270  13.113   4.676   5.584
33791SOL    HW2 3271  13.201   4.735   5.691
33792SOL     OW 3272   3.587  11.065  13.578
33792SOL    HW1 3273   3.505  11.110  13.558
33792SOL    HW2 3274   3.623  11.040  13.493
33793SOL     OW 3275  10.492   1.170   0.257
33793SOL    HW1 3276  10.517   1.078   0.255
33793SOL    HW2 3277  10.437   1.182   0.179
33794SOL     OW 3278   6.131  10.454  11.825
33794SOL    HW1 3279   6.051  10.409  11.852
33794SOL    HW2 3280   6.187  10.451  11.903
33795SOL     OW 3281   7.864   9.282  12.861
33795SOL    HW1 3282   7.770   9.268  12.845
33795SOL    HW2 3283   7.907   9.250  12.781
33796SOL     OW 3284   0.370  13.768  11.293
33796SOL    HW1 3285   0.301  13.721  11.339
33796SOL    HW2 3286   0.377  13.723  11.209
33797SOL     OW 3287   8.811   3.546  11.714
33797SOL    HW1 3288   8.872   3.515  11.647
33797SOL    HW2 3289   8.817   3.641  11.711
33798SOL     OW 3290   3.565  10.715  14.672
33798SOL    HW1 3291   3.525  10.647  14.725
33798SOL    HW2 3292   3.630  10.670  14.619
33799SOL     OW 3293   2.904   4.499  14.658
33799SOL    HW1 3294   2.973   4.508  14.724
33799SOL    HW2 3295   2.891   4.405  14.649
33800SOL     OW 3296   4.926   5.381   9.032
33800SOL    HW1 3297   4.997   5.403   9.092
33800SOL    HW2 3298   4.866   5.456   9.035
33801SOL     OW 3299   6.166  12.911   3.860
33801SOL    HW1 3300   6.127  12.848   3.920
33801SOL    HW2 3301   6.241  12.865   3.823
33802SOL     OW 3302  10.715   1.044   5.834
33802SOL    HW1 3303  10.761   1.120   5.799
33802SOL    HW2 3304  10.780   0.999   5.888
33803SOL     OW 3305   0.146  12.351   4.052
33803SOL    HW1 3306   0.060  12.375   4.018
33803SOL    HW2 3307   0.155  12.401   4.133
33804SOL     OW 3308   9.279   0.126   0.185
33804SOL    HW1 3309   9.296   0.217   0.208
33804SOL    HW2 3310   9.208   0.130   0.121
33805SOL     OW 3311  10.962   9.985  11.931
33805SOL    HW1 3312  10.934   9.939  12.010
33805SOL    HW2 3313  10.895   9.965  11.866
33806SOL     OW 3314   4.114   4.814   6.738
33806SOL    HW1 3315   4.152   4.830   6.824
33806SOL    HW2 3316   4.061   4.735   6.749
33807SOL     OW 3317   2.829   4.245  14.694
33807SOL    HW1 3318   2.833   4.155  14.727
33807SOL    HW2 3319   2.751   4.283  14.733
33808SOL     OW 3320   3.776  12.926  10.349
33808SOL    HW1 3321   3.865  12.957  10.333
33808SOL    HW2 3322   3.739  12.990  10.410
33809SOL     OW 3323  12.238   6.655   0.867
33809SOL    HW1 3324  12.235   6.708   0.788
33809SOL    HW2 3325  12.317   6.602   0.857
33810SOL     OW 3326  14.722   9.282  10.093
33810SOL    HW1 3327  14.817   9.273  10.100
33810SOL    HW2 3328  14.704   9.270  10.000
33811SOL     OW 3329   3.828   0.610   3.052
33811SOL    HW1 3330   3.917   0.639   3.031
33811SOL    HW2 3331   3.836   0.573   3.140
33812SOL     OW 3332   7.668   4.437  10.202
33812SOL    HW1 3333   7.626   4.461  10.119
33812SOL    HW2 3334   7.649   4.511  10.261
33813SOL     OW 3335  12.125   9.173   9.259
33813SOL    HW1 3336  12.094   9.151   9.172
33813SOL    HW2 3337  12.047   9.166   9.315
33814SOL     OW 3338  12.897   6.022   5.807
33814SOL    HW1 3339  12.881   6.098   5.863
33814SOL    HW2 3340  12.952   5.964   5.860
33815SOL     OW 3341   0.030   2.147   5.094
33815SOL    HW1 3342  14.848   2.083   5.089
33815SOL    HW2 3343   0.041   2.178   5.004
33816SOL     OW 3344  10.747   4.585   1.823
33816SOL    HW1 3345  10.830   4.616   1.787
33816SOL    HW2 3346  10.730   4.503   1.778
33817SOL     OW 3347   8.591   3.736   5.632
33817SOL    HW1 3348   8.589   3.712   5.539
33817SOL    HW2 3349   8.500   3.753   5.654
33818SOL     OW 3350  13.773   7.580   7.346
33818SOL    HW1 3351  13.779   7.675   7.352
33818SOL    HW2 3352  13.685   7.564   7.311
33819SOL     OW 3353   7.843  11.737   6.666
33819SOL    HW1 3354   7.885  11.802   6.610
33819SOL    HW2 3355   7.785  11.689   6.607
33820SOL     OW 3356   6.627   3.951   2.678
33820SOL    HW1 3357   6.643   3.868   2.722
33820SOL    HW2 3358   6.565   3.997   2.734
33821SOL     OW 3359  14.371  14.581   1.697
33821SOL    HW1 3360  14.451  14.619   1.733
33821SOL    HW2 3361  14.399  14.497   1.660
33822SOL     OW 3362   1.716  10.462   9.110
33822SOL    HW1 3363   1.629  10.464   9.071
33822SOL    HW2 3364   1.771  10.420   9.045
33823SOL     OW 3365   5.864   4.113   7.210
33823SOL    HW1 3366   5.910   4.044   7.163
33823SOL    HW2 3367   5.928   4.185   7.215
33824SOL     OW 3368   6.162  11.973   6.048
33824SOL    HW1 3369   6.119  11.888   6.063
33824SOL    HW2 3370   6.091  12.032   6.023
33825SOL     OW 3371   8.038   1.388  14.439
33825SOL    HW1 3372   8.134   1.388  14.435
33825SOL    HW2 3373   8.018   1.398  14.532
33826SOL     OW 3374   3.362   3.356   3.172
33826SOL    HW1 3375   3.423   3.393   3.108
33826SOL    HW2 3376   3.339   3.270   3.137
33827SOL     OW 3377   7.761  10.482   3.843
33827SOL    HW1 3378   7.702  10.464   3.917
33827SOL    HW2 3379   7.716  10.551   3.794
33828SOL     OW 3380   4.259   5.147   2.109
33828SOL    HW1 3381   4.235   5.057   2.085
33828SOL    HW2 3382   4.332   5.168   2.051
33829SOL     OW 3383  12.552   9.686   8.714
33829SOL    HW1 3384  12.621   9.633   8.674
33829SOL    HW2 3385  12.560   9.670   8.808
33830SOL     OW 3386   0.099  11.197   6.793
33830SOL    HW1 3387   0.104  11.104   6.771
33830SOL    HW2 3388   0.141  11.204   6.879
33831SOL     OW 3389   9.339   5.929   0.924
33831SOL    HW1 3390   9.353   5.852   0.868
33831SOL    HW2 3391   9.383   5.908   1.006
33832SOL     OW 3392  11.130   5.312   8.029
33832SOL    HW1 3393  11.054   5.311   7.969
33832SOL    HW2 3394  11.092   5.328   8.115
33833SOL     OW 3395   9.349   3.382  12.826
33833SOL    HW1 3396   9.392   3.297  12.818
33833SOL    HW2 3397   9.289   3.386  12.750
33834SOL     OW 3398  13.315   5.277   5.695
33834SOL    HW1 3399  13.280   5.253   5.781
33834SOL    HW2 3400  13.345   5.367   5.706
33835SOL     OW 3401  14.326  11.761  10.115
33835SOL    HW1 3402  14.263  11.713  10.170
33835SOL    HW2 3403  14.358  11.831  10.172
33836SOL     OW 3404   9.275  10.646   6.875
33836SOL    HW1 3405   9.286  10.698   6.796
33836SOL    HW2 3406   9.334  10.571   6.863
33837SOL     OW 3407  14.681   8.384   4.799
33837SOL    HW1 3408  14.741   8.455   4.775
33837SOL    HW2 3409  14.649   8.350   4.715
33838SOL     OW 3410  14.241   5.838  10.640
33838SOL    HW1 3411  14.306   5.896  10.600
33838SOL    HW2 3412  14.290   5.787  10.704
33839SOL     OW 3413   0.463  13.997  10.177
33839SOL    HW1 3414   0.545  14.044  10.161
33839SOL    HW2 3415   0.424  14.043  10.252
33840SOL     OW 3416   7.928  13.281   2.335
33840SOL    HW1 3417   7.973  13.366   2.341
33840SOL    HW2 3418   7.849  13.300   2.283
33841SOL     OW 3419   9.985   4.969   1.549
33841SOL    HW1 3420   9.898   4.929   1.547
33841SOL    HW2 3421  10.001   4.986   1.642
33842SOL     OW 3422   3.759   6.183   8.860
33842SOL    HW1 3423   3.673   6.166   8.899
33842SOL    HW2 3424   3.743   6.255   8.798
33843SOL     OW 3425  12.301  14.799   1.733
33843SOL    HW1 3426  12.335  14.709   1.734
33843SOL    HW2 3427  12.241  14.803   1.808
33844SOL     OW 3428   9.732   8.117   9.007
33844SOL    HW1 3429   9.733   8.085   9.097
33844SOL    HW2 3430   9.648   8.087   8.972
33845SOL     OW 3431  12.894  14.058  12.186
33845SOL    HW1 3432  12.837  14.083  12.113
33845SOL    HW2 3433  12.874  13.966  12.202
33846SOL     OW 3434   7.802  14.314  10.839
33846SOL    HW1 3435   7.765  14.402  10.832
33846SOL    HW2 3436   7.757  14.274  10.913
33847SOL     OW 3437  12.418   3.423   9.174
33847SOL    HW1 3438  12.457   3.357   9.116
33847SOL    HW2 3439  12.350   3.376   9.222
33848SOL     OW 3440   2.917   6.064   9.677
33848SOL    HW1 3441   2.959   6.077   9.592
33848SOL    HW2 3442   2.973   6.110   9.740
33849SOL     OW 3443   2.993   6.863  10.251
33849SOL    HW1 3444   2.999   6.939  10.309
33849SOL    HW2 3445   2.951   6.795  10.305
33850SOL     OW 3446  12.806   9.513   3.151
33850SOL    HW1 3447  12.752   9.505   3.072
33850SOL    HW2 3448  12.847   9.599   3.144
33851SOL     OW 3449  11.364   9.961  11.171
33851SOL    HW1 3450  11.375  10.046  11.215
33851SOL    HW2 3451  11.286   9.924  11.212
33852SOL     OW 3452   0.563   6.772  14.545
33852SOL    HW1 3453   0.567   6.764  14.449
33852SOL    HW2 3454   0.648   6.806  14.570
33853SOL     OW 3455   6.391   7.466   4.825
33853SOL    HW1 3456   6.297   7.477   4.809
33853SOL    HW2 3457   6.409   7.524   4.900
33854SOL     OW 3458   3.024   6.005   2.896
33854SOL    HW1 3459   3.028   6.100   2.880
33854SOL    HW2 3460   3.024   5.997   2.991
33855SOL     OW 3461   9.690   3.568  14.089
33855SOL    HW1 3462   9.748   3.589  14.162
33855SOL    HW2 3463   9.621   3.514  14.127
33856SOL     OW 3464   2.595  11.069  14.039
33856SOL    HW1 3465   2.590  11.051  14.132
33856SOL    HW2 3466   2.504  11.069  14.009
33857SOL     OW 3467   9.564  10.923  14.442
33857SOL    HW1 3468   9.504  10.863  14.397
33857SOL    HW2 3469   9.524  11.010  14.429
33858SOL     OW 3470   0.804   2.429   3.926
33858SOL    HW1 3471   0.738   2.497   3.910
33858SOL    HW2 3472   0.814   2.426   4.021
33859SOL     OW 3473   2.103   8.161  10.836
33859SOL    HW1 3474   2.107   8.106  10.759
33859SOL    HW2 3475   2.059   8.241  10.807
33860SOL     OW 3476   0.991  11.874   8.752
33860SOL    HW1 3477   0.954  11.928   8.822
33860SOL    HW2 3478   1.042  11.807   8.797
33861SOL     OW 3479   7.727  14.506   3.514
33861SOL    HW1 3480   7.816  14.530   3.489
33861SOL    HW2 3481   7.674  14.581   3.487
33862SOL     OW 3482  12.961   5.926  11.654
33862SOL    HW1 3483  13.017   5.958  11.584
33862SOL    HW2 3484  13.010   5.853  11.693
33863SOL     OW 3485  10.608   2.920  10.493
33863SOL    HW1 3486  10.522   2.908  10.533
33863SOL    HW2 3487  10.600   2.880  10.407
33864SOL     OW 3488  13.349   5.488  11.111
33864SOL    HW1 3489  13.311   5.425  11.049
33864SOL    HW2 3490  13.275   5.540  11.141
33865SOL     OW 3491  12.531   9.237   1.236
33865SOL    HW1 3492  12.542   9.191   1.153
33865SOL    HW2 3493  12.472   9.181   1.286
33866SOL     OW 3494  11.602   8.919   0.947
33866SOL    HW1 3495  11.621   8.876   0.864
33866SOL    HW2 3496  11.618   9.012   0.930
33867SOL     OW 3497  10.595   1.198  14.527
33867SOL    HW1 3498  10.650   1.127  14.493
33867SOL    HW2 3499  10.606   1.194  14.622
33868SOL     OW 3500   0.751   8.730   4.943
33868SOL    HW1 3501   0.707   8.683   5.014
33868SOL    HW2 3502   0.694   8.804   4.924
33869SOL     OW 3503   4.732   0.412  10.888
33869SOL    HW1 3504   4.666   0.343  10.880
33869SOL    HW2 3505   4.702   0.465  10.962
33870SOL     OW 3506  13.087   0.361  12.196
33870SOL    HW1 3507  13.141   0.386  12.120
33870SOL    HW2 3508  13.014   0.423  12.195
33871SOL     OW 3509  11.479   9.923  14.600
33871SOL    HW1 3510  11.409   9.988  14.601
33871SOL    HW2 3511  11.448   9.854  14.541
33872SOL     OW 3512   7.970  11.464   3.949
33872SOL    HW1 3513   7.922  11.468   3.866
33872SOL    HW2 3514   7.916  11.410   4.006
33873SOL     OW 3515   6.342   1.491   3.066
33873SOL    HW1 3516   6.379   1.513   3.151
33873SOL    HW2 3517   6.400   1.422   3.032
33874SOL     OW 3518   4.074   2.559  14.288
33874SOL    HW1 3519   4.076   2.501  14.212
33874SOL    HW2 3520   4.089   2.646  14.252
33875SOL     OW 3521   5.794   6.313   8.241
33875SOL    HW1 3522   5.835   6.387   8.198
33875SOL    HW2 3523   5.815   6.324   8.334
33876SOL     OW 3524   9.131   3.307   2.542
33876SOL    HW1 3525   9.086   3.235   2.586
33876SOL    HW2 3526   9.220   3.275   2.527
33877SOL     OW 3527   8.698  12.952  14.761
33877SOL    HW1 3528   8.740  13.036  14.780
33877SOL    HW2 3529   8.768  12.887  14.771
33878SOL     OW 3530  10.548   3.318  10.497
33878SOL    HW1 3531  10.607   3.263  10.446
33878SOL    HW2 3532  10.562   3.292  10.588
33879SOL     OW 3533  11.402  13.598   0.544
33879SOL    HW1 3534  11.377  13.669   0.604
33879SOL    HW2 3535  11.495  13.615   0.525
33880SOL     OW 3536   4.546   6.484   2.217
33880SOL    HW1 3537   4.555   6.389   2.209
33880SOL    HW2 3538   4.569   6.517   2.130
33881SOL     OW 3539   6.971   8.737   5.220
33881SOL    HW1 3540   6.910   8.719   5.148
33881SOL    HW2 3541   7.034   8.799   5.183
33882SOL     OW 3542  10.534   0.384   4.007
33882SOL    HW1 3543  10.587   0.307   3.988
33882SOL    HW2 3544  10.475   0.392   3.932
33883SOL     OW 3545   1.885   3.299  10.468
33883SOL    HW1 3546   1.825   3.372  10.454
33883SOL    HW2 3547   1.958   3.316  10.408
33884SOL     OW 3548  12.129   3.382   8.758
33884SOL    HW1 3549  12.118   3.398   8.852
33884SOL    HW2 3550  12.131   3.470   8.719
33885SOL     OW 3551   3.886   2.678  11.040
33885SOL    HW1 3552   3.931   2.761  11.056
33885SOL    HW2 3553   3.943   2.632  10.978
33886SOL     OW 3554  11.900   6.359   0.162
33886SOL    HW1 3555  11.849   6.433   0.194
33886SOL    HW2 3556  11.925   6.384   0.073
33887SOL     OW 3557  10.349  13.015   4.709
33887SOL    HW1 3558  10.326  13.032   4.618
33887SOL    HW2 3559  10.304  12.933   4.730
33888SOL     OW 3560   6.627   3.895   5.517
33888SOL    HW1 3561   6.622   3.989   5.531
33888SOL    HW2 3562   6.566   3.878   5.445
33889SOL     OW 3563   0.986  14.664  11.386
33889SOL    HW1 3564   0.904  14.675  11.434
33889SOL    HW2 3565   0.962  14.677  11.294
33890SOL     OW 3566   2.638   4.389   6.718
33890SOL    HW1 3567   2.658   4.433   6.635
33890SOL    HW2 3568   2.667   4.299   6.704
33891SOL     OW 3569   0.454  12.146   0.545
33891SOL    HW1 3570   0.384  12.087   0.516
33891SOL    HW2 3571   0.501  12.097   0.612
33892SOL     OW 3572   7.908   2.785   1.715
33892SOL    HW1 3573   7.929   2.723   1.645
33892SOL    HW2 3574   7.815   2.804   1.704
33893SOL     OW 3575  10.701  12.006  12.995
33893SOL    HW1 3576  10.684  11.959  12.913
33893SOL    HW2 3577  10.698  12.098  12.971
33894SOL     OW 3578   4.134   7.785   8.155
33894SOL    HW1 3579   4.055   7.834   8.132
33894SOL    HW2 3580   4.114   7.747   8.240
33895SOL     OW 3581  13.624  10.646   2.772
33895SOL    HW1 3582  13.553  10.696   2.732
33895SOL    HW2 3583  13.694  10.649   2.708
33896SOL     OW 3584   8.388   3.595   2.336
33896SOL    HW1 3585   8.440   3.528   2.292
33896SOL    HW2 3586   8.329   3.629   2.269
33897SOL     OW 3587  14.444  12.386   6.638
33897SOL    HW1 3588  14.368  12.381   6.695
33897SOL    HW2 3589  14.413  12.430   6.559
33898SOL     OW 3590  13.965   3.306   4.474
33898SOL    HW1 3591  13.937   3.391   4.441
33898SOL    HW2 3592  13.936   3.244   4.408
33899SOL     OW 3593  12.277   1.473  13.935
33899SOL    HW1 3594  12.361   1.499  13.973
33899SOL    HW2 3595  12.224   1.552  13.939
33900SOL     OW 3596   9.104  14.206   4.166
33900SOL    HW1 3597   9.057  14.200   4.083
33900SOL    HW2 3598   9.172  14.271   4.150
33901SOL     OW 3599   9.199   5.679   3.923
33901SOL    HW1 3600   9.149   5.682   3.841
33901SOL    HW2 3601   9.224   5.587   3.932
33902SOL     OW 3602   0.031   1.341   8.369
33902SOL    HW1 3603  14.862   1.309   8.298
33902SOL    HW2 3604   0.118   1.308   8.346
33903SOL     OW 3605   2.887   5.110  14.636
33903SOL    HW1 3606   2.797   5.092  14.608
33903SOL    HW2 3607   2.882   5.196  14.677
33904SOL     OW 3608   4.367   7.246   5.365
33904SOL    HW1 3609   4.350   7.251   5.460
33904SOL    HW2 3610   4.280   7.239   5.326
33905SOL     OW 3611  13.008   3.499  14.549
33905SOL    HW1 3612  12.960   3.499  14.631
33905SOL    HW2 3613  13.019   3.407  14.527
33906SOL     OW 3614  11.343  14.875   3.496
33906SOL    HW1 3615  11.311   0.062   3.444
33906SOL    HW2 3616  11.279  14.806   3.482
33907SOL     OW 3617   0.042   2.644   6.125
33907SOL    HW1 3618   0.099   2.720   6.114
33907SOL    HW2 3619  14.843   2.676   6.099
33908SOL     OW 3620  12.474   4.877  10.420
33908SOL    HW1 3621  12.564   4.904  10.407
33908SOL    HW2 3622  12.454   4.823  10.343
33909SOL     OW 3623   3.475   0.931   9.660
33909SOL    HW1 3624   3.471   0.992   9.586
33909SOL    HW2 3625   3.566   0.900   9.659
33910SOL     OW 3626   1.024  13.353   2.631
33910SOL    HW1 3627   1.114  13.383   2.616
33910SOL    HW2 3628   1.031  13.295   2.707
33911SOL     OW 3629   0.921  14.389  10.558
33911SOL    HW1 3630   0.938  14.376  10.464
33911SOL    HW2 3631   0.886  14.305  10.587
33912SOL     OW 3632   3.194  14.810  12.903
33912SOL    HW1 3633   3.248  14.872  12.854
33912SOL    HW2 3634   3.244  14.793  12.982
33913SOL     OW 3635   7.231  12.298   7.149
33913SOL    HW1 3636   7.209  12.389   7.169
33913SOL    HW2 3637   7.279  12.303   7.066
33914SOL     OW 3638   9.360  12.777   3.796
33914SOL    HW1 3639   9.286  12.838   3.804
33914SOL    HW2 3640   9.398  12.796   3.711
33915SOL     OW 3641   6.661  13.484  13.490
33915SOL    HW1 3642   6.643  13.513  13.401
33915SOL    HW2 3643   6.597  13.531  13.544
33916SOL     OW 3644  11.246   5.997   1.939
33916SOL    HW1 3645  11.267   5.931   1.872
33916SOL    HW2 3646  11.327   6.045   1.952
33917SOL     OW 3647  13.119  11.328   1.063
33917SOL    HW1 3648  13.027  11.303   1.074
33917SOL    HW2 3649  13.166  11.246   1.050
33918SOL     OW 3650   1.253  10.207   0.853
33918SOL    HW1 3651   1.261  10.132   0.794
33918SOL    HW2 3652   1.272  10.283   0.797
33919SOL     OW 3653  12.288   4.389  14.373
33919SOL    HW1 3654  12.268   4.324  14.306
33919SOL    HW2 3655  12.342   4.343  14.437
33920SOL     OW 3656   4.451   1.604   6.930
33920SOL    HW1 3657   4.491   1.529   6.974
33920SOL    HW2 3658   4.520   1.641   6.876
33921SOL     OW 3659  14.614  11.773  13.042
33921SOL    HW1 3660  14.704  11.782  13.010
33921SOL    HW2 3661  14.560  11.814  12.974
33922SOL     OW 3662   6.145  12.730   0.897
33922SOL    HW1 3663   6.167  12.819   0.922
33922SOL    HW2 3664   6.125  12.686   0.979
33923SOL     OW 3665   6.297  14.758  10.525
33923SOL    HW1 3666   6.261  14.775  10.438
33923SOL    HW2 3667   6.244  14.686  10.559
33924SOL     OW 3668   4.890  13.670   3.892
33924SOL    HW1 3669   4.969  13.725   3.895
33924SOL    HW2 3670   4.872  13.651   3.984
33925SOL     OW 3671  12.369  10.377   2.659
33925SOL    HW1 3672  12.451  10.411   2.621
33925SOL    HW2 3673  12.395  10.345   2.746
33926SOL     OW 3674   7.043  11.861   4.477
33926SOL    HW1 3675   6.977  11.809   4.431
33926SOL    HW2 3676   7.005  11.876   4.564
33927SOL     OW 3677   0.335   3.474   2.217
33927SOL    HW1 3678   0.392   3.490   2.142
33927SOL    HW2 3679   0.368   3.533   2.285
33928SOL     OW 3680   5.218   1.390   9.845
33928SOL    HW1 3681   5.185   1.476   9.821
33928SOL    HW2 3682   5.262   1.359   9.765
33929SOL     OW 3683   3.558   4.579   9.575
33929SOL    HW1 3684   3.645   4.557   9.542
33929SOL    HW2 3685   3.505   4.501   9.559
33930SOL     OW 3686   1.215   2.152   9.917
33930SOL    HW1 3687   1.169   2.075   9.951
33930SOL    HW2 3688   1.197   2.221   9.981
33931SOL     OW 3689   3.970   5.015  10.824
33931SOL    HW1 3690   3.974   4.975  10.736
33931SOL    HW2 3691   3.936   4.945  10.880
33932SOL     OW 3692   6.300   8.507  13.295
33932SOL    HW1 3693   6.214   8.536  13.264
33932SOL    HW2 3694   6.354   8.586  13.293
33933SOL     OW 3695  11.243   1.847   3.293
33933SOL    HW1 3696  11.185   1.791   3.343
33933SOL    HW2 3697  11.285   1.903   3.358
33934SOL     OW 3698  13.468  14.284   1.342
33934SOL    HW1 3699  13.405  14.236   1.288
33934SOL    HW2 3700  13.516  14.338   1.280
33935SOL     OW 3701   4.274   6.506   1.397
33935SOL    HW1 3702   4.268   6.451   1.475
33935SOL    HW2 3703   4.231   6.455   1.329
33936SOL     OW 3704  13.900  14.401  10.827
33936SOL    HW1 3705  13.916  14.375  10.918
33936SOL    HW2 3706  13.838  14.336  10.794
33937SOL     OW 3707  12.288   8.128   2.551
33937SOL    HW1 3708  12.256   8.206   2.596
33937SOL    HW2 3709  12.262   8.139   2.460
33938SOL     OW 3710  10.205  11.704   5.768
33938SOL    HW1 3711  10.227  11.636   5.831
33938SOL    HW2 3712  10.136  11.667   5.714
33939SOL     OW 3713  10.294   2.328   5.748
33939SOL    HW1 3714  10.251   2.243   5.756
33939SOL    HW2 3715  10.225   2.388   5.720
33940SOL     OW 3716   1.176   2.194  14.765
33940SOL    HW1 3717   1.185   2.100  14.756
33940SOL    HW2 3718   1.247   2.219  14.825
33941SOL     OW 3719  12.002   0.481  14.110
33941SOL    HW1 3720  12.033   0.571  14.120
33941SOL    HW2 3721  12.057   0.429  14.169
33942SOL     OW 3722   7.487   1.966  13.924
33942SOL    HW1 3723   7.480   2.035  13.857
33942SOL    HW2 3724   7.565   1.916  13.900
33943SOL     OW 3725   4.537   9.143  10.371
33943SOL    HW1 3726   4.531   9.222  10.425
33943SOL    HW2 3727   4.526   9.071  10.433
33944SOL     OW 3728  13.682   3.158   0.530
33944SOL    HW1 3729  13.711   3.212   0.603
33944SOL    HW2 3730  13.604   3.112   0.563
33945SOL     OW 3731  11.295   1.525   0.544
33945SOL    HW1 3732  11.353   1.465   0.497
33945SOL    HW2 3733  11.237   1.468   0.594
33946SOL     OW 3734   1.134   7.370   1.946
33946SOL    HW1 3735   1.066   7.404   2.004
33946SOL    HW2 3736   1.216   7.385   1.995
33947SOL     OW 3737   4.473   7.940   4.185
33947SOL    HW1 3738   4.434   8.020   4.151
33947SOL    HW2 3739   4.564   7.942   4.153
33948SOL     OW 3740   4.714   0.811   4.276
33948SOL    HW1 3741   4.794   0.852   4.311
33948SOL    HW2 3742   4.672   0.772   4.352
33949SOL     OW 3743   2.343   1.333   6.900
33949SOL    HW1 3744   2.388   1.263   6.853
33949SOL    HW2 3745   2.413   1.382   6.943
33950SOL     OW 3746   7.579   0.372   4.835
33950SOL    HW1 3747   7.524   0.309   4.789
33950SOL    HW2 3748   7.551   0.457   4.801
33951SOL     OW 3749   3.394  10.309   5.005
33951SOL    HW1 3750   3.470  10.257   4.982
33951SOL    HW2 3751   3.429  10.393   5.032
33952SOL     OW 3752   1.680   7.302   6.029
33952SOL    HW1 3753   1.635   7.315   6.112
33952SOL    HW2 3754   1.746   7.372   6.027
33953SOL     OW 3755   7.704   1.797  13.612
33953SOL    HW1 3756   7.748   1.713  13.597
33953SOL    HW2 3757   7.686   1.797  13.706
33954SOL     OW 3758   6.089   7.012   0.172
33954SOL    HW1 3759   6.165   7.032   0.118
33954SOL    HW2 3760   6.123   6.956   0.241
33955SOL     OW 3761   2.842  11.187   1.208
33955SOL    HW1 3762   2.907  11.154   1.146
33955SOL    HW2 3763   2.767  11.128   1.199
33956SOL     OW 3764   7.254  12.511  10.321
33956SOL    HW1 3765   7.174  12.499  10.372
33956SOL    HW2 3766   7.227  12.501  10.230
33957SOL     OW 3767   0.670  10.688   7.610
33957SOL    HW1 3768   0.579  10.692   7.578
33957SOL    HW2 3769   0.723  10.697   7.531
33958SOL     OW 3770   1.541  12.020   1.353
33958SOL    HW1 3771   1.612  12.019   1.289
33958SOL    HW2 3772   1.492  11.940   1.336
33959SOL     OW 3773   3.137   2.968   1.273
33959SOL    HW1 3774   3.108   3.059   1.279
33959SOL    HW2 3775   3.157   2.943   1.363
33960SOL     OW 3776   1.939   2.859   4.859
33960SOL    HW1 3777   1.993   2.861   4.938
33960SOL    HW2 3778   1.964   2.778   4.815
33961SOL     OW 3779   1.916  11.172  14.420
33961SOL    HW1 3780   1.968  11.248  14.397
33961SOL    HW2 3781   1.843  11.173  14.358
33962SOL     OW 3782   7.185  10.391   8.561
33962SOL    HW1 3783   7.155  10.303   8.582
33962SOL    HW2 3784   7.132  10.416   8.485
33963SOL     OW 3785   3.648   3.607   8.567
33963SOL    HW1 3786   3.665   3.522   8.608
33963SOL    HW2 3787   3.717   3.615   8.501
33964SOL     OW 3788   7.165  13.687   8.841
33964SOL    HW1 3789   7.137  13.616   8.783
33964SOL    HW2 3790   7.254  13.663   8.866
33965SOL     OW 3791  11.483  13.401   6.053
33965SOL    HW1 3792  11.457  13.413   5.962
33965SOL    HW2 3793  11.470  13.486   6.094
33966SOL     OW 3794   7.842   5.152  11.425
33966SOL    HW1 3795   7.794   5.235  11.430
33966SOL    HW2 3796   7.914   5.162  11.487
33967SOL     OW 3797   4.996   6.022   4.820
33967SOL    HW1 3798   5.043   5.955   4.769
33967SOL    HW2 3799   5.001   6.101   4.766
33968SOL     OW 3800   3.377  14.527  14.265
33968SOL    HW1 3801   3.462  14.557  14.298
33968SOL    HW2 3802   3.336  14.483  14.339
33969SOL     OW 3803   7.400   2.106   8.062
33969SOL    HW1 3804   7.305   2.099   8.066
33969SOL    HW2 3805   7.431   2.071   8.146
33970SOL     OW 3806   3.863   8.651   8.684
33970SOL    HW1 3807   3.829   8.740   8.688
33970SOL    HW2 3808   3.791   8.597   8.717
33971SOL     OW 3809   4.933  10.692   5.756
33971SOL    HW1 3810   4.933  10.598   5.739
33971SOL    HW2 3811   5.021  10.721   5.733
33972SOL     OW 3812   0.141   6.670   1.529
33972SOL    HW1 3813   0.227   6.638   1.499
33972SOL    HW2 3814   0.079   6.632   1.466
33973SOL     OW 3815   2.394   6.347   3.422
33973SOL    HW1 3816   2.379   6.388   3.507
33973SOL    HW2 3817   2.378   6.417   3.359
33974SOL     OW 3818   2.509   9.193  10.344
33974SOL    HW1 3819   2.567   9.126  10.307
33974SOL    HW2 3820   2.425   9.178  10.302
33975SOL     OW 3821   8.897  14.767   4.325
33975SOL    HW1 3822   8.943  14.684   4.336
33975SOL    HW2 3823   8.821  14.761   4.383
33976SOL     OW 3824   5.727  12.595   1.173
33976SOL    HW1 3825   5.646  12.544   1.169
33976SOL    HW2 3826   5.712  12.669   1.114
33977SOL     OW 3827   7.882   2.522   5.976
33977SOL    HW1 3828   7.832   2.514   6.058
33977SOL    HW2 3829   7.932   2.441   5.970
33978SOL     OW 3830   9.674   7.922   8.667
33978SOL    HW1 3831   9.626   7.984   8.612
33978SOL    HW2 3832   9.621   7.916   8.747
33979SOL     OW 3833   3.494   7.741  13.497
33979SOL    HW1 3834   3.475   7.650  13.476
33979SOL    HW2 3835   3.443   7.791  13.433
33980SOL     OW 3836   2.260  13.484  14.272
33980SOL    HW1 3837   2.313  13.494  14.352
33980SOL    HW2 3838   2.248  13.574  14.241
33981SOL     OW 3839  13.972   7.977   1.884
33981SOL    HW1 3840  13.986   7.954   1.792
33981SOL    HW2 3841  13.908   8.048   1.882
33982SOL     OW 3842  14.015   3.560   4.279
33982SOL    HW1 3843  13.934   3.540   4.233
33982SOL    HW2 3844  14.020   3.655   4.278
33983SOL     OW 3845   5.004  12.271   0.898
33983SOL    HW1 3846   4.955  12.295   0.819
33983SOL    HW2 3847   4.959  12.194   0.932
33984SOL     OW 3848   7.015   5.346  13.385
33984SOL    HW1 3849   7.081   5.361  13.453
33984SOL    HW2 3850   7.042   5.400  13.311
33985SOL     OW 3851   9.556  10.111   5.716
33985SOL    HW1 3852   9.498  10.171   5.669
33985SOL    HW2 3853   9.497  10.041   5.746
33986SOL     OW 3854  12.015   5.418   4.162
33986SOL    HW1 3855  12.065   5.410   4.243
33986SOL    HW2 3856  12.027   5.510   4.136
33987SOL     OW 3857   5.289   4.485   6.331
33987SOL    HW1 3858   5.203   4.451   6.355
33987SOL    HW2 3859   5.271   4.542   6.256
33988SOL     OW 3860  11.715   4.848  14.581
33988SOL    HW1 3861  11.703   4.889  14.667
33988SOL    HW2 3862  11.668   4.905  14.521
33989SOL     OW 3863   1.101  10.441   2.630
33989SOL    HW1 3864   1.053  10.398   2.560
33989SOL    HW2 3865   1.172  10.381   2.651
33990SOL     OW 3866  11.986   8.702   4.102
33990SOL    HW1 3867  11.961   8.654   4.181
33990SOL    HW2 3868  11.988   8.794   4.129
33991SOL     OW 3869   2.114  13.938   0.799
33991SOL    HW1 3870   2.054  14.008   0.773
33991SOL    HW2 3871   2.201  13.977   0.794
33992SOL     OW 3872  14.313  11.092  13.510
33992SOL    HW1 3873  14.242  11.041  13.549
33992SOL    HW2 3874  14.269  11.155  13.453
33993SOL     OW 3875   1.065   1.632   5.842
33993SOL    HW1 3876   1.112   1.581   5.908
33993SOL    HW2 3877   0.992   1.575   5.817
33994SOL     OW 3878   3.713   0.919   9.481
33994SOL    HW1 3879   3.750   0.982   9.418
33994SOL    HW2 3880   3.675   0.850   9.427
33995SOL     OW 3881  13.809   3.623  11.678
33995SOL    HW1 3882  13.853   3.708  11.677
33995SOL    HW2 3883  13.875   3.562  11.711
33996SOL     OW 3884   3.318   8.057   1.524
33996SOL    HW1 3885   3.408   8.070   1.494
33996SOL    HW2 3886   3.310   7.963   1.536
33997SOL     OW 3887   9.442   5.180   3.054
33997SOL    HW1 3888   9.370   5.235   3.025
33997SOL    HW2 3889   9.461   5.124   2.978
33998SOL     OW 3890  14.396   4.980   3.474
33998SOL    HW1 3891  14.403   5.057   3.530
33998SOL    HW2 3892  14.454   4.999   3.400
33999SOL     OW 3893   5.172  13.357   9.201
33999SOL    HW1 3894   5.119  13.352   9.121
33999SOL    HW2 3895   5.256  13.317   9.176
34000SOL     OW 3896   7.147   9.199   8.950
34000SOL    HW1 3897   7.240   9.217   8.959
34000SOL    HW2 3898   7.137   9.168   8.860
34001SOL     OW 3899   4.297  10.776   9.337
34001SOL    HW1 3900   4.238  10.797   9.265
34001SOL    HW2 3901   4.365  10.723   9.298
34002SOL     OW 3902   9.181   2.494   4.317
34002SOL    HW1 3903   9.153   2.474   4.407
34002SOL    HW2 3904   9.213   2.584   4.321
34003SOL     OW 3905   4.085   1.879   7.800
34003SOL    HW1 3906   4.166   1.905   7.757
34003SOL    HW2 3907   4.113   1.820   7.871
34004SOL     OW 3908   8.366   9.374   3.203
34004SOL    HW1 3909   8.449   9.422   3.197
34004SOL    HW2 3910   8.340   9.360   3.111
34005SOL     OW 3911   4.026   0.377  10.423
34005SOL    HW1 3912   4.046   0.398  10.514
34005SOL    HW2 3913   4.005   0.461  10.383
34006SOL     OW 3914  12.900   8.934  14.308
34006SOL    HW1 3915  12.858   8.878  14.373
34006SOL    HW2 3916  12.928   9.011  14.359
34007SOL     OW 3917   9.441   8.007  14.539
34007SOL    HW1 3918   9.388   8.079  14.572
34007SOL    HW2 3919   9.511   8.050  14.489
34008SOL     OW 3920  12.791  13.167   5.126
34008SOL    HW1 3921  12.822  13.239   5.071
34008SOL    HW2 3922  12.725  13.124   5.072
34009SOL     OW 3923  10.579  13.379   5.482
34009SOL    HW1 3924  10.595  13.361   5.575
34009SOL    HW2 3925  10.633  13.455   5.462
34010SOL     OW 3926   8.856  11.581   9.274
34010SOL    HW1 3927   8.788  11.590   9.207
34010SOL    HW2 3928   8.903  11.501   9.251
34011SOL     OW 3929   8.874   0.879   4.209
34011SOL    HW1 3930   8.919   0.884   4.125
34011SOL    HW2 3931   8.845   0.968   4.226
34012SOL     OW 3932   6.854   8.013  13.424
34012SOL    HW1 3933   6.821   7.941  13.371
34012SOL    HW2 3934   6.798   8.013  13.502
34013SOL     OW 3935   4.246   0.978   1.480
34013SOL    HW1 3936   4.273   1.027   1.558
34013SOL    HW2 3937   4.323   0.925   1.458
34014SOL     OW 3938  12.729  12.486  13.706
34014SOL    HW1 3939  12.698  12.432  13.633
34014SOL    HW2 3940  12.811  12.445  13.733
34015SOL     OW 3941   6.637  10.467  11.609
34015SOL    HW1 3942   6.728  10.460  11.638
34015SOL    HW2 3943   6.630  10.554  11.570
34016SOL     OW 3944   6.652  11.696   1.302
34016SOL    HW1 3945   6.742  11.663   1.302
34016SOL    HW2 3946   6.661  11.790   1.287
34017SOL     OW 3947   4.678   4.554  11.176
34017SOL    HW1 3948   4.583   4.548  11.178
34017SOL    HW2 3949   4.697   4.644  11.203
34018SOL     OW 3950   3.464   9.301   6.017
34018SOL    HW1 3951   3.406   9.324   5.944
34018SOL    HW2 3952   3.412   9.319   6.095
34019SOL     OW 3953   0.988   7.000   1.260
34019SOL    HW1 3954   1.053   6.938   1.294
34019SOL    HW2 3955   0.904   6.964   1.286
34020SOL     OW 3956  14.380   1.697   8.494
34020SOL    HW1 3957  14.404   1.754   8.567
34020SOL    HW2 3958  14.306   1.645   8.527
34021SOL     OW 3959   9.307   1.741   0.328
34021SOL    HW1 3960   9.297   1.716   0.236
34021SOL    HW2 3961   9.357   1.670   0.367
34022SOL     OW 3962  14.354   2.410  14.439
34022SOL    HW1 3963  14.373   2.504  14.431
34022SOL    HW2 3964  14.292   2.392  14.368
34023SOL     OW 3965   6.563   1.401   7.223
34023SOL    HW1 3966   6.494   1.451   7.267
34023SOL    HW2 3967   6.610   1.358   7.294
34024SOL     OW 3968   9.231   9.721  10.039
34024SOL    HW1 3969   9.276   9.643  10.071
34024SOL    HW2 3970   9.141   9.710  10.069
34025SOL     OW 3971   1.933   1.806   5.184
34025SOL    HW1 3972   1.919   1.890   5.140
34025SOL    HW2 3973   1.844   1.771   5.196
34026SOL     OW 3974  13.661  14.002   9.775
34026SOL    HW1 3975  13.632  14.034   9.690
34026SOL    HW2 3976  13.747  14.040   9.788
34027SOL     OW 3977   6.380   0.175  11.655
34027SOL    HW1 3978   6.324   0.196  11.730
34027SOL    HW2 3979   6.450   0.122  11.692
34028SOL     OW 3980   0.604  11.413   9.850
34028SOL    HW1 3981   0.566  11.434   9.935
34028SOL    HW2 3982   0.529  11.386   9.797
34029SOL     OW 3983  11.041   7.523   2.596
34029SOL    HW1 3984  11.078   7.473   2.669
34029SOL    HW2 3985  10.947   7.519   2.609
34030SOL     OW 3986   3.576  12.585   0.607
34030SOL    HW1 3987   3.538  12.575   0.519
34030SOL    HW2 3988   3.597  12.495   0.633
34031SOL     OW 3989  10.538   7.997  10.707
34031SOL    HW1 3990  10.582   8.072  10.747
34031SOL    HW2 3991  10.525   7.936  10.779
34032SOL     OW 3992  12.218  10.938   2.861
34032SOL    HW1 3993  12.201  10.887   2.940
34032SOL    HW2 3994  12.288  10.890   2.816
34033SOL     OW 3995   7.875  11.154   0.878
34033SOL    HW1 3996   7.926  11.095   0.823
34033SOL    HW2 3997   7.861  11.105   0.959
34034SOL     OW 3998  12.377   8.573   8.724
34034SOL    HW1 3999  12.411   8.534   8.643
34034SOL    HW2 4000  12.453   8.618   8.762
34035SOL     OW 4001   1.451   4.296   2.312
34035SOL    HW1 4002   1.360   4.281   2.335
34035SOL    HW2 4003   1.460   4.260   2.224
34036SOL     OW 4004   9.130   4.750   8.594
34036SOL    HW1 4005   9.166   4.725   8.509
34036SOL    HW2 4006   9.098   4.668   8.631
34037SOL     OW 4007   3.884   6.019   9.609
34037SOL    HW1 4008   3.849   6.061   9.531
34037SOL    HW2 4009   3.936   5.945   9.575
34038SOL     OW 4010   3.635   4.521   3.292
34038SOL    HW1 4011   3.701   4.496   3.357
34038SOL    HW2 4012   3.553   4.484   3.326
34039SOL     OW 4013   0.788   3.859   7.471
34039SOL    HW1 4014   0.850   3.922   7.508
34039SOL    HW2 4015   0.836   3.776   7.469
34040SOL     OW 4016  12.022  14.233   0.247
34040SOL    HW1 4017  12.040  14.286   0.169
34040SOL    HW2 4018  12.065  14.149   0.230
34041SOL     OW 4019   0.157  12.291   7.690
34041SOL    HW1 4020   0.141  12.357   7.757
34041SOL    HW2 4021   0.071  12.256   7.669
34042SOL     OW 4022   9.227   0.721   0.907
34042SOL    HW1 4023   9.206   0.797   0.962
34042SOL    HW2 4024   9.180   0.648   0.948
34043SOL     OW 4025   9.837   3.128   6.605
34043SOL    HW1 4026   9.855   3.207   6.657
34043SOL    HW2 4027   9.772   3.156   6.541
34044SOL     OW 4028  14.206   5.224   2.180
34044SOL    HW1 4029  14.128   5.175   2.157
34044SOL    HW2 4030  14.181   5.316   2.168
34045SOL     OW 4031  12.086   3.850   9.648
34045SOL    HW1 4032  12.132   3.913   9.702
34045SOL    HW2 4033  12.142   3.839   9.571
34046SOL     OW 4034   2.093   9.192   1.760
34046SOL    HW1 4035   2.165   9.160   1.706
34046SOL    HW2 4036   2.041   9.114   1.779
34047SOL     OW 4037   7.741  14.778   0.884
34047SOL    HW1 4038   7.833  14.804   0.891
34047SOL    HW2 4039   7.741  14.684   0.901
34048SOL     OW 4040   4.382   8.155  10.216
34048SOL    HW1 4041   4.476   8.172  10.223
34048SOL    HW2 4042   4.346   8.233  10.173
34049SOL     OW 4043   8.197   7.537   5.807
34049SOL    HW1 4044   8.187   7.588   5.888
34049SOL    HW2 4045   8.268   7.476   5.826
34050SOL     OW 4046   2.946   9.271  10.811
34050SOL    HW1 4047   2.900   9.187  10.814
34050SOL    HW2 4048   2.945   9.296  10.719
34051SOL     OW 4049  12.351  11.434  11.394
34051SOL    HW1 4050  12.415  11.495  11.432
34051SOL    HW2 4051  12.404  11.374  11.341
34052SOL     OW 4052  10.783  13.856   0.180
34052SOL    HW1 4053  10.815  13.923   0.239
34052SOL    HW2 4054  10.778  13.777   0.233
34053SOL     OW 4055  14.020   1.485   5.089
34053SOL    HW1 4056  13.981   1.468   5.175
34053SOL    HW2 4057  14.081   1.556   5.104
34054SOL     OW 4058  11.560   0.031  11.372
34054SOL    HW1 4059  11.477   0.024  11.419
34054SOL    HW2 4060  11.541  14.887  11.284
34055SOL     OW 4061   9.149  12.346   7.492
34055SOL    HW1 4062   9.191  12.392   7.419
34055SOL    HW2 4063   9.074  12.400   7.514
34056SOL     OW 4064  12.380   2.589  12.459
34056SOL    HW1 4065  12.406   2.502  12.490
34056SOL    HW2 4066  12.438   2.607  12.386
34057SOL     OW 4067   2.076   7.524   9.779
34057SOL    HW1 4068   2.135   7.547   9.708
34057SOL    HW2 4069   2.100   7.435   9.803
34058SOL     OW 4070   0.311   2.479   0.907
34058SOL    HW1 4071   0.401   2.497   0.880
34058SOL    HW2 4072   0.313   2.388   0.937
34059SOL     OW 4073   1.756   5.467   5.821
34059SOL    HW1 4074   1.757   5.502   5.910
34059SOL    HW2 4075   1.683   5.512   5.779
34060SOL     OW 4076  14.354  12.633   3.223
34060SOL    HW1 4077  14.439  12.675   3.207
34060SOL    HW2 4078  14.314  12.626   3.136
34061SOL     OW 4079  14.238   8.131   3.971
34061SOL    HW1 4080  14.239   8.104   3.879
34061SOL    HW2 4081  14.222   8.226   3.968
34062SOL     OW 4082   4.779   8.856  14.075
34062SOL    HW1 4083   4.777   8.868  14.170
34062SOL    HW2 4084   4.848   8.915  14.045
34063SOL     OW 4085   2.228  12.712   7.642
34063SOL    HW1 4086   2.214  12.730   7.549
34063SOL    HW2 4087   2.305  12.765   7.665
34064SOL     OW 4088   8.637  12.679   1.232
34064SOL    HW1 4089   8.630  12.768   1.265
34064SOL    HW2 4090   8.671  12.628   1.306
34065SOL     OW 4091   7.723  14.500  13.792
34065SOL    HW1 4092   7.747  14.577  13.844
34065SOL    HW2 4093   7.691  14.437  13.857
34066SOL     OW 4094   1.382   7.403   9.413
34066SOL    HW1 4095   1.384   7.308   9.422
34066SOL    HW2 4096   1.315   7.420   9.347
34067SOL     OW 4097   0.520   7.872   8.009
34067SOL    HW1 4098   0.477   7.932   8.070
34067SOL    HW2 4099   0.518   7.917   7.925
34068SOL     OW 4100   1.983  13.229  14.678
34068SOL    HW1 4101   2.011  13.143  14.647
34068SOL    HW2 4102   1.988  13.286  14.601
34069SOL     OW 4103  10.935   0.752   1.302
34069SOL    HW1 4104  11.022   0.713   1.314
34069SOL    HW2 4105  10.910   0.729   1.213
34070SOL     OW 4106   1.282  13.588   0.555
34070SOL    HW1 4107   1.328  13.619   0.633
34070SOL    HW2 4108   1.334  13.513   0.524
34071SOL     OW 4109   1.707  10.775  10.041
34071SOL    HW1 4110   1.718  10.804   9.951
34071SOL    HW2 4111   1.758  10.838  10.093
34072SOL     OW 4112   8.439  12.527   8.835
34072SOL    HW1 4113   8.445  12.594   8.767
34072SOL    HW2 4114   8.431  12.445   8.787
34073SOL     OW 4115  12.735  11.818  13.312
34073SOL    HW1 4116  12.785  11.899  13.313
34073SOL    HW2 4117  12.666  11.833  13.247
34074SOL     OW 4118   8.577  14.629   9.701
34074SOL    HW1 4119   8.518  14.554   9.689
34074SOL    HW2 4120   8.630  14.605   9.778
34075SOL     OW 4121   4.588  13.893   8.431
34075SOL    HW1 4122   4.545  13.826   8.377
34075SOL    HW2 4123   4.527  13.967   8.431
34076SOL     OW 4124   8.130   2.527   7.153
34076SOL    HW1 4125   8.134   2.443   7.106
34076SOL    HW2 4126   8.047   2.524   7.200
34077SOL     OW 4127   5.883   2.332  11.858
34077SOL    HW1 4128   5.826   2.405  11.883
34077SOL    HW2 4129   5.929   2.363  11.780
34078SOL     OW 4130  10.783   1.025  10.574
34078SOL    HW1 4131  10.688   1.030  10.586
34078SOL    HW2 4132  10.817   0.993  10.657
34079SOL     OW 4133   8.927   7.862   9.344
34079SOL    HW1 4134   8.912   7.913   9.423
34079SOL    HW2 4135   8.840   7.846   9.307
34080SOL     OW 4136   0.163   4.066  10.773
34080SOL    HW1 4137   0.155   4.025  10.859
34080SOL    HW2 4138   0.254   4.054  10.748
34081SOL     OW 4139   4.766  10.248   9.782
34081SOL    HW1 4140   4.833  10.243   9.714
34081SOL    HW2 4141   4.721  10.330   9.765
34082SOL     OW 4142   3.328   9.010   9.696
34082SOL    HW1 4143   3.299   8.962   9.618
34082SOL    HW2 4144   3.250   9.012   9.753
34083SOL     OW 4145   4.941   0.360   7.419
34083SOL    HW1 4146   4.978   0.275   7.396
34083SOL    HW2 4147   5.015   0.421   7.411
34084SOL     OW 4148  13.110  12.372   6.184
34084SOL    HW1 4149  13.126  12.442   6.121
34084SOL    HW2 4150  13.084  12.418   6.264
34085SOL     OW 4151   8.890   9.635  11.187
34085SOL    HW1 4152   8.919   9.726  11.193
34085SOL    HW2 4153   8.822   9.636  11.120
34086SOL     OW 4154   6.846   0.130   2.518
34086SOL    HW1 4155   6.926   0.171   2.485
34086SOL    HW2 4156   6.872   0.040   2.538
34087SOL     OW 4157   2.842   6.220  14.251
34087SOL    HW1 4158   2.860   6.298  14.303
34087SOL    HW2 4159   2.908   6.156  14.279
34088SOL     OW 4160  12.162  14.310  14.499
34088SOL    HW1 4161  12.099  14.240  14.485
34088SOL    HW2 4162  12.213  14.314  14.418
34089SOL     OW 4163   9.239   5.356   0.711
34089SOL    HW1 4164   9.291   5.284   0.675
34089SOL    HW2 4165   9.202   5.321   0.792
34090SOL     OW 4166  14.770   1.266  14.598
34090SOL    HW1 4167  14.770   1.261  14.693
34090SOL    HW2 4168  14.723   1.347  14.578
34091SOL     OW 4169   2.745   5.769  10.453
34091SOL    HW1 4170   2.791   5.699  10.500
34091SOL    HW2 4171   2.802   5.845  10.460
34092SOL     OW 4172   1.467   6.999  10.308
34092SOL    HW1 4173   1.511   6.925  10.266
34092SOL    HW2 4174   1.535   7.066  10.314
34093SOL     OW 4175  14.301  10.061   1.964
34093SOL    HW1 4176  14.394  10.058   1.943
34093SOL    HW2 4177  14.293  10.130   2.029
34094SOL     OW 4178   5.288   4.749  13.729
34094SOL    HW1 4179   5.242   4.820  13.684
34094SOL    HW2 4180   5.345   4.793  13.791
34095SOL     OW 4181   2.377  12.202  10.874
34095SOL    HW1 4182   2.290  12.200  10.913
34095SOL    HW2 4183   2.391  12.295  10.853
34096SOL     OW 4184   8.165  12.577  11.101
34096SOL    HW1 4185   8.088  12.536  11.142
34096SOL    HW2 4186   8.140  12.587  11.009
34097SOL     OW 4187   5.892  12.261   7.067
34097SOL    HW1 4188   5.867  12.337   7.014
34097SOL    HW2 4189   5.819  12.201   7.058
34098SOL     OW 4190   4.969   1.205   2.426
34098SOL    HW1 4191   4.958   1.203   2.521
34098SOL    HW2 4192   4.920   1.129   2.395
34099SOL     OW 4193   1.401  10.254  13.499
34099SOL    HW1 4194   1.348  10.315  13.551
34099SOL    HW2 4195   1.381  10.276  13.408
34100SOL     OW 4196   4.988  12.706   7.393
34100SOL    HW1 4197   5.078  12.685   7.420
34100SOL    HW2 4198   4.961  12.630   7.342
34101SOL     OW 4199   1.453   4.075  14.451
34101SOL    HW1 4200   1.411   4.146  14.402
34101SOL    HW2 4201   1.517   4.120  14.507
34102SOL     OW 4202  12.210  14.261  13.122
34102SOL    HW1 4203  12.212  14.283  13.215
34102SOL    HW2 4204  12.146  14.190  13.116
34103SOL     OW 4205   5.377   9.641   4.532
34103SOL    HW1 4206   5.467   9.616   4.550
34103SOL    HW2 4207   5.332   9.629   4.615
34104SOL     OW 4208   9.671   3.842  14.424
34104SOL    HW1 4209   9.728   3.808  14.354
34104SOL    HW2 4210   9.689   3.937  14.424
34105SOL     OW 4211  12.751   8.445   3.702
34105SOL    HW1 4212  12.801   8.389   3.642
34105SOL    HW2 4213  12.788   8.532   3.688
34106SOL     OW 4214   3.323   8.754   5.047
34106SOL    HW1 4215   3.364   8.740   4.962
34106SOL    HW2 4216   3.323   8.668   5.088
34107SOL     OW 4217   9.085   6.294   3.234
34107SOL    HW1 4218   9.157   6.302   3.172
34107SOL    HW2 4219   9.085   6.377   3.282
34108SOL     OW 4220  14.411   0.847   1.282
34108SOL    HW1 4221  14.483   0.801   1.326
34108SOL    HW2 4222  14.422   0.938   1.308
34109SOL     OW 4223   5.043   0.358   0.300
34109SOL    HW1 4224   5.084   0.397   0.223
34109SOL    HW2 4225   4.994   0.283   0.266
34110SOL     OW 4226   4.852  13.601   4.578
34110SOL    HW1 4227   4.816  13.594   4.666
34110SOL    HW2 4228   4.890  13.514   4.561
34111SOL     OW 4229   9.032  10.682   0.360
34111SOL    HW1 4230   9.108  10.651   0.409
34111SOL    HW2 4231   8.972  10.608   0.359
34112SOL     OW 4232  13.617   3.949   2.802
34112SOL    HW1 4233  13.647   3.954   2.893
34112SOL    HW2 4234  13.521   3.943   2.809
34113SOL     OW 4235   8.783   9.008  14.510
34113SOL    HW1 4236   8.814   8.932  14.462
34113SOL    HW2 4237   8.857   9.069  14.509
34114SOL     OW 4238   5.586   4.054   0.711
34114SOL    HW1 4239   5.545   3.969   0.726
34114SOL    HW2 4240   5.649   4.039   0.640
34115SOL     OW 4241  14.534   0.258   5.339
34115SOL    HW1 4242  14.575   0.205   5.408
34115SOL    HW2 4243  14.483   0.195   5.289
34116SOL     OW 4244  11.857   6.235   1.630
34116SOL    HW1 4245  11.909   6.199   1.701
34116SOL    HW2 4246  11.860   6.168   1.561
34117SOL     OW 4247  14.594  11.857   5.565
34117SOL    HW1 4248  14.611  11.787   5.501
34117SOL    HW2 4249  14.515  11.901   5.533
34118SOL     OW 4250   8.493   0.374  12.639
34118SOL    HW1 4251   8.407   0.333  12.633
34118SOL    HW2 4252   8.519   0.363  12.730
34119SOL     OW 4253   8.042   1.210   3.468
34119SOL    HW1 4254   7.958   1.174   3.439
34119SOL    HW2 4255   8.108   1.163   3.416
34120SOL     OW 4256   2.778  11.829  14.711
34120SOL    HW1 4257   2.796  11.921  14.731
34120SOL    HW2 4258   2.822  11.814  14.627
34121SOL     OW 4259   9.066   5.834   6.336
34121SOL    HW1 4260   9.098   5.743   6.333
34121SOL    HW2 4261   9.090   5.864   6.424
34122SOL     OW 4262   2.559   0.270   2.187
34122SOL    HW1 4263   2.624   0.301   2.124
34122SOL    HW2 4264   2.534   0.347   2.237
34123SOL     OW 4265   7.048   6.629   4.290
34123SOL    HW1 4266   7.004   6.621   4.375
34123SOL    HW2 4267   6.980   6.662   4.232
34124SOL     OW 4268  13.425  14.743  12.562
34124SOL    HW1 4269  13.508  14.708  12.594
34124SOL    HW2 4270  13.412  14.824  12.611
34125SOL     OW 4271   5.332   8.266   4.189
34125SOL    HW1 4272   5.338   8.223   4.103
34125SOL    HW2 4273   5.340   8.359   4.169
34126SOL     OW 4274   9.717   8.185   3.528
34126SOL    HW1 4275   9.697   8.194   3.622
34126SOL    HW2 4276   9.718   8.275   3.496
34127SOL     OW 4277  11.795   8.881  10.837
34127SOL    HW1 4278  11.798   8.885  10.741
34127SOL    HW2 4279  11.705   8.906  10.858
34128SOL     OW 4280  14.075  12.150   5.679
34128SOL    HW1 4281  14.084  12.071   5.732
34128SOL    HW2 4282  14.058  12.118   5.591
34129SOL     OW 4283   8.069   5.831   7.883
34129SOL    HW1 4284   8.032   5.764   7.826
34129SOL    HW2 4285   8.031   5.812   7.969
34130SOL     OW 4286  14.635   5.232  10.783
34130SOL    HW1 4287  14.594   5.186  10.856
34130SOL    HW2 4288  14.625   5.173  10.709
34131SOL     OW 4289  10.821   4.712   6.637
34131SOL    HW1 4290  10.772   4.762   6.572
34131SOL    HW2 4291  10.871   4.649   6.585
34132SOL     OW 4292   1.130   8.067   1.347
34132SOL    HW1 4293   1.122   8.018   1.429
34132SOL    HW2 4294   1.056   8.127   1.347
34133SOL     OW 4295  14.006   7.505   7.205
34133SOL    HW1 4296  13.972   7.482   7.119
34133SOL    HW2 4297  13.934   7.552   7.247
34134SOL     OW 4298  10.258   5.190  12.602
34134SOL    HW1 4299  10.237   5.183  12.509
34134SOL    HW2 4300  10.243   5.282  12.623
34135SOL     OW 4301  13.105   3.577   7.612
34135SOL    HW1 4302  13.022   3.592   7.565
34135SOL    HW2 4303  13.089   3.611   7.700
34136SOL     OW 4304  10.361   4.632   2.278
34136SOL    HW1 4305  10.272   4.604   2.300
34136SOL    HW2 4306  10.417   4.587   2.341
34137SOL     OW 4307   3.399  12.085   1.163
34137SOL    HW1 4308   3.429  12.089   1.072
34137SOL    HW2 4309   3.320  12.031   1.160
34138SOL     OW 4310   9.447   4.906   7.986
34138SOL    HW1 4311   9.395   4.924   7.908
34138SOL    HW2 4312   9.422   4.975   8.048
34139SOL     OW 4313   3.991   4.494   1.936
34139SOL    HW1 4314   3.908   4.529   1.904
34139SOL    HW2 4315   4.040   4.570   1.965
34140SOL     OW 4316  10.240  13.171   6.896
34140SOL    HW1 4317  10.290  13.204   6.821
34140SOL    HW2 4318  10.183  13.103   6.860
34141SOL     OW 4319   3.616   6.888  11.249
34141SOL    HW1 4320   3.524   6.915  11.249
34141SOL    HW2 4321   3.640   6.886  11.341
34142SOL     OW 4322   5.658  13.486   9.428
34142SOL    HW1 4323   5.652  13.485   9.332
34142SOL    HW2 4324   5.569  13.467   9.457
34143SOL     OW 4325   1.368  10.528  14.741
34143SOL    HW1 4326   1.457  10.556  14.720
34143SOL    HW2 4327   1.358  10.550  14.834
34144SOL     OW 4328   1.556   8.629   9.492
34144SOL    HW1 4329   1.581   8.721   9.494
34144SOL    HW2 4330   1.487   8.621   9.557
34145SOL     OW 4331  10.665   1.963   5.070
34145SOL    HW1 4332  10.709   1.988   4.989
34145SOL    HW2 4333  10.575   1.994   5.060
34146SOL     OW 4334   1.296   7.408   1.214
34146SOL    HW1 4335   1.248   7.481   1.174
34146SOL    HW2 4336   1.228   7.352   1.250
34147SOL     OW 4337   3.770  11.035   0.425
34147SOL    HW1 4338   3.767  11.116   0.374
34147SOL    HW2 4339   3.748  11.062   0.514
34148SOL     OW 4340   8.487  13.283  11.497
34148SOL    HW1 4341   8.484  13.214  11.563
34148SOL    HW2 4342   8.564  13.263  11.444
34149SOL     OW 4343   7.690  10.489   9.720
34149SOL    HW1 4344   7.672  10.567   9.773
34149SOL    HW2 4345   7.677  10.518   9.630
34150SOL     OW 4346   3.927   4.461   4.405
34150SOL    HW1 4347   3.992   4.467   4.335
34150SOL    HW2 4348   3.966   4.511   4.477
34151SOL     OW 4349  12.693   8.257   5.920
34151SOL    HW1 4350  12.701   8.352   5.921
34151SOL    HW2 4351  12.601   8.240   5.940
34152SOL     OW 4352  14.415  10.233  14.682
34152SOL    HW1 4353  14.451  10.178  14.612
34152SOL    HW2 4354  14.439  10.187  14.763
34153SOL     OW 4355   6.779   0.249  12.161
34153SOL    HW1 4356   6.863   0.273  12.199
34153SOL    HW2 4357   6.720   0.239  12.236
34154SOL     OW 4358   3.052   6.316  11.412
34154SOL    HW1 4359   3.109   6.302  11.337
34154SOL    HW2 4360   2.984   6.250  11.403
34155SOL     OW 4361   3.512  14.585   2.595
34155SOL    HW1 4362   3.543  14.560   2.682
34155SOL    HW2 4363   3.584  14.637   2.558
34156SOL     OW 4364   0.631  14.243   2.338
34156SOL    HW1 4365   0.703  14.211   2.284
34156SOL    HW2 4366   0.555  14.192   2.309
34157SOL     OW 4367   0.802  10.743   2.170
34157SOL    HW1 4368   0.858  10.722   2.096
34157SOL    HW2 4369   0.753  10.663   2.187
34158SOL     OW 4370   4.611   1.318   8.376
34158SOL    HW1 4371   4.538   1.256   8.375
34158SOL    HW2 4372   4.648   1.314   8.288
34159SOL     OW 4373  14.128   4.262   1.467
34159SOL    HW1 4374  14.183   4.216   1.531
34159SOL    HW2 4375  14.057   4.300   1.519
34160SOL     OW 4376   2.639   8.456   0.140
34160SOL    HW1 4377   2.689   8.537   0.132
34160SOL    HW2 4378   2.577   8.472   0.211
34161SOL     OW 4379   3.361  14.192   4.729
34161SOL    HW1 4380   3.362  14.144   4.645
34161SOL    HW2 4381   3.375  14.124   4.795
34162SOL     OW 4382   2.324   2.226   8.134
34162SOL    HW1 4383   2.255   2.285   8.164
34162SOL    HW2 4384   2.287   2.182   8.057
34163SOL     OW 4385   2.705   3.122   9.903
34163SOL    HW1 4386   2.666   3.039   9.875
34163SOL    HW2 4387   2.799   3.111   9.885
34164SOL     OW 4388   4.609   0.497   9.414
34164SOL    HW1 4389   4.581   0.471   9.502
34164SOL    HW2 4390   4.689   0.448   9.398
34165SOL     OW 4391   0.772  11.637  11.254
34165SOL    HW1 4392   0.762  11.558  11.307
34165SOL    HW2 4393   0.860  11.631  11.219
34166SOL     OW 4394   1.294   3.028   9.471
34166SOL    HW1 4395   1.365   3.072   9.517
34166SOL    HW2 4396   1.228   3.011   9.538
34167SOL     OW 4397   4.608  11.315  13.472
34167SOL    HW1 4398   4.514  11.308  13.459
34167SOL    HW2 4399   4.637  11.225  13.488
34168SOL     OW 4400   9.665   8.115   0.091
34168SOL    HW1 4401   9.690   8.039   0.144
34168SOL    HW2 4402   9.653   8.079   0.003
34169SOL     OW 4403   5.852   7.652   0.356
34169SOL    HW1 4404   5.909   7.679   0.429
34169SOL    HW2 4405   5.860   7.723   0.292
34170SOL     OW 4406   8.608   6.130   2.838
34170SOL    HW1 4407   8.532   6.088   2.877
34170SOL    HW2 4408   8.587   6.135   2.744
34171SOL     OW 4409  12.617   5.420   1.258
34171SOL    HW1 4410  12.614   5.486   1.328
34171SOL    HW2 4411  12.554   5.451   1.193
34172SOL     OW 4412   8.865  14.195  12.381
34172SOL    HW1 4413   8.821  14.143  12.449
34172SOL    HW2 4414   8.872  14.135  12.307
34173SOL     OW 4415   4.726  13.140   3.611
34173SOL    HW1 4416   4.782  13.083   3.559
34173SOL    HW2 4417   4.699  13.086   3.685
34174SOL     OW 4418   8.968  10.319  10.832
34174SOL    HW1 4419   8.889  10.331  10.885
34174SOL    HW2 4420   8.945  10.355  10.746
34175SOL     OW 4421  11.673  11.924  13.162
34175SOL    HW1 4422  11.703  11.852  13.217
34175SOL    HW2 4423  11.580  11.906  13.147
34176SOL     OW 4424   1.734   6.557   7.575
34176SOL    HW1 4425   1.646   6.519   7.570
34176SOL    HW2 4426   1.720   6.647   7.603
34177SOL     OW 4427   9.860   0.129  10.332
34177SOL    HW1 4428   9.859   0.217  10.368
34177SOL    HW2 4429   9.944   0.123  10.286
34178SOL     OW 4430   0.961  14.279  11.163
34178SOL    HW1 4431   0.866  14.283  11.154
34178SOL    HW2 4432   0.982  14.186  11.158
34179SOL     OW 4433  11.346  12.666  11.652
34179SOL    HW1 4434  11.339  12.575  11.624
34179SOL    HW2 4435  11.438  12.678  11.674
34180SOL     OW 4436   6.430   2.662   9.832
34180SOL    HW1 4437   6.495   2.601   9.795
34180SOL    HW2 4438   6.456   2.673   9.923
34181SOL     OW 4439  11.795  11.287  10.860
34181SOL    HW1 4440  11.886  11.313  10.875
34181SOL    HW2 4441  11.796  11.245  10.774
34182SOL     OW 4442   6.983  12.972   1.702
34182SOL    HW1 4443   6.908  13.000   1.649
34182SOL    HW2 4444   6.969  13.012   1.787
34183SOL     OW 4445   1.963   5.709  11.409
34183SOL    HW1 4446   1.978   5.689  11.317
34183SOL    HW2 4447   1.992   5.629  11.455
34184SOL     OW 4448   2.582   6.177   1.157
34184SOL    HW1 4449   2.639   6.224   1.218
34184SOL    HW2 4450   2.554   6.244   1.094
34185SOL     OW 4451   2.296  14.460   6.109
34185SOL    HW1 4452   2.270  14.552   6.110
34185SOL    HW2 4453   2.304  14.437   6.202
34186SOL     OW 4454   9.467   6.804   1.778
34186SOL    HW1 4455   9.554   6.766   1.790
34186SOL    HW2 4456   9.408   6.746   1.826
34187SOL     OW 4457  14.157  12.538   8.556
34187SOL    HW1 4458  14.143  12.520   8.463
34187SOL    HW2 4459  14.101  12.614   8.574
34188SOL     OW 4460   2.682   7.272   5.679
34188SOL    HW1 4461   2.668   7.304   5.590
34188SOL    HW2 4462   2.690   7.177   5.669
34189SOL     OW 4463  13.599   3.792   6.469
34189SOL    HW1 4464  13.667   3.753   6.415
34189SOL    HW2 4465  13.638   3.871   6.506
34190SOL     OW 4466   9.909   8.576  10.972
34190SOL    HW1 4467  10.001   8.571  10.949
34190SOL    HW2 4468   9.863   8.544  10.894
34191SOL     OW 4469  12.538   5.364  12.254
34191SOL    HW1 4470  12.565   5.455  12.270
34191SOL    HW2 4471  12.583   5.313  12.321
34192SOL     OW 4472   4.562   7.416   5.244
34192SOL    HW1 4473   4.628   7.443   5.308
34192SOL    HW2 4474   4.502   7.360   5.295
34193SOL     OW 4475   2.161  13.857  13.779
34193SOL    HW1 4476   2.172  13.906  13.697
34193SOL    HW2 4477   2.248  13.821  13.797
34194SOL     OW 4478   7.908   2.395   4.660
34194SOL    HW1 4479   7.973   2.325   4.665
34194SOL    HW2 4480   7.824   2.351   4.676
34195SOL     OW 4481   5.935  11.301  13.809
34195SOL    HW1 4482   5.969  11.381  13.849
34195SOL    HW2 4483   5.843  11.320  13.791
34196SOL     OW 4484   8.245   9.916  11.475
34196SOL    HW1 4485   8.243   9.823  11.497
34196SOL    HW2 4486   8.303   9.921  11.399
34197SOL     OW 4487   2.300   6.074   0.721
34197SOL    HW1 4488   2.244   6.004   0.756
34197SOL    HW2 4489   2.371   6.082   0.785
34198SOL     OW 4490   9.821   2.556   2.069
34198SOL    HW1 4491   9.805   2.646   2.096
34198SOL    HW2 4492   9.847   2.511   2.149
34199SOL     OW 4493   9.546   0.303  13.833
34199SOL    HW1 4494   9.637   0.289  13.858
34199SOL    HW2 4495   9.549   0.375  13.771
34200SOL     OW 4496  12.748   6.596   6.378
34200SOL    HW1 4497  12.693   6.537   6.326
34200SOL    HW2 4498  12.686   6.655   6.420
34201SOL     OW 4499   2.041  11.688   9.550
34201SOL    HW1 4500   2.075  11.612   9.597
34201SOL    HW2 4501   1.948  11.691   9.572
34202SOL     OW 4502   3.095   0.528   3.302
34202SOL    HW1 4503   3.016   0.582   3.303
34202SOL    HW2 4504   3.135   0.542   3.388
34203SOL     OW 4505   4.984  10.905   3.724
34203SOL    HW1 4506   5.042  10.876   3.795
34203SOL    HW2 4507   4.986  11.000   3.730
34204SOL     OW 4508   3.409  13.063  10.792
34204SOL    HW1 4509   3.441  13.036  10.706
34204SOL    HW2 4510   3.333  13.008  10.808
34205SOL     OW 4511  11.029  13.380   2.543
34205SOL    HW1 4512  10.961  13.369   2.609
34205SOL    HW2 4513  11.107  13.403   2.593
34206SOL     OW 4514   7.404   9.514  14.560
34206SOL    HW1 4515   7.407   9.587  14.622
34206SOL    HW2 4516   7.320   9.522  14.517
34207SOL     OW 4517   3.377   8.999  11.283
34207SOL    HW1 4518   3.442   8.938  11.318
34207SOL    HW2 4519   3.428   9.065  11.237
34208SOL     OW 4520  11.036   4.755   5.118
34208SOL    HW1 4521  10.987   4.809   5.056
34208SOL    HW2 4522  10.972   4.693   5.153
34209SOL     OW 4523   8.063  13.606   6.081
34209SOL    HW1 4524   8.078  13.687   6.032
34209SOL    HW2 4525   8.051  13.539   6.013
34210SOL     OW 4526  11.679   6.261  10.390
34210SOL    HW1 4527  11.701   6.170  10.373
34210SOL    HW2 4528  11.646   6.262  10.480
34211SOL     OW 4529   5.815  12.442  12.025
34211SOL    HW1 4530   5.875  12.429  12.099
34211SOL    HW2 4531   5.779  12.530  12.039
34212SOL     OW 4532  10.806   0.294   5.447
34212SOL    HW1 4533  10.842   0.380   5.423
34212SOL    HW2 4534  10.883   0.239   5.463
34213SOL     OW 4535  14.192  12.678   3.812
34213SOL    HW1 4536  14.134  12.715   3.879
34213SOL    HW2 4537  14.177  12.732   3.735
34214SOL     OW 4538  11.756   0.830   6.015
34214SOL    HW1 4539  11.668   0.867   6.021
34214SOL    HW2 4540  11.758   0.761   6.081
34215SOL     OW 4541   2.689   4.218  13.112
34215SOL    HW1 4542   2.595   4.200  13.119
34215SOL    HW2 4543   2.718   4.234  13.201
34216SOL     OW 4544  10.731   2.833   2.715
34216SOL    HW1 4545  10.698   2.754   2.757
34216SOL    HW2 4546  10.763   2.887   2.787
34217SOL     OW 4547   0.559  11.487   7.405
34217SOL    HW1 4548   0.535  11.551   7.338
34217SOL    HW2 4549   0.492  11.419   7.399
34218SOL     OW 4550  12.833   2.725  12.412
34218SOL    HW1 4551  12.916   2.686  12.439
34218SOL    HW2 4552  12.855   2.781  12.338
34219SOL     OW 4553  14.432  13.371   4.069
34219SOL    HW1 4554  14.365  13.339   4.129
34219SOL    HW2 4555  14.422  13.318   3.990
34220SOL     OW 4556  10.372  11.799   1.686
34220SOL    HW1 4557  10.356  11.772   1.777
34220SOL    HW2 4558  10.305  11.753   1.635
34221SOL     OW 4559   3.533   6.120  14.302
34221SOL    HW1 4560   3.573   6.206  14.307
34221SOL    HW2 4561   3.569   6.081  14.222
34222SOL     OW 4562  10.683  11.015   4.978
34222SOL    HW1 4563  10.666  11.050   5.066
34222SOL    HW2 4564  10.778  11.026   4.967
34223SOL     OW 4565  12.821  11.915   9.874
34223SOL    HW1 4566  12.867  11.949   9.951
34223SOL    HW2 4567  12.873  11.946   9.799
34224SOL     OW 4568   5.608   8.021   7.316
34224SOL    HW1 4569   5.689   8.069   7.304
34224SOL    HW2 4570   5.603   8.005   7.410
34225SOL     OW 4571   4.513   0.333  12.346
34225SOL    HW1 4572   4.511   0.399  12.415
34225SOL    HW2 4573   4.605   0.305  12.342
34226SOL     OW 4574   3.160  10.828   9.748
34226SOL    HW1 4575   3.203  10.830   9.834
34226SOL    HW2 4576   3.118  10.742   9.745
34227SOL     OW 4577  14.375   3.417   6.951
34227SOL    HW1 4578  14.333   3.335   6.926
34227SOL    HW2 4579  14.469   3.400   6.941
34228SOL     OW 4580   2.595   2.421   1.421
34228SOL    HW1 4581   2.670   2.476   1.444
34228SOL    HW2 4582   2.630   2.332   1.422
34229SOL     OW 4583   5.165  13.418   2.747
34229SOL    HW1 4584   5.118  13.421   2.664
34229SOL    HW2 4585   5.257  13.415   2.722
34230SOL     OW 4586  12.208   6.409   7.181
34230SOL    HW1 4587  12.224   6.441   7.092
34230SOL    HW2 4588  12.274   6.453   7.234
34231SOL     OW 4589   8.243   1.706   5.225
34231SOL    HW1 4590   8.201   1.653   5.157
34231SOL    HW2 4591   8.171   1.739   5.277
34232SOL     OW 4592   8.642  12.482   8.091
34232SOL    HW1 4593   8.733  12.465   8.065
34232SOL    HW2 4594   8.638  12.458   8.183
34233SOL     OW 4595   6.861   7.826   9.702
34233SOL    HW1 4596   6.952   7.795   9.695
34233SOL    HW2 4597   6.827   7.781   9.779
34234SOL     OW 4598  12.716  12.499   1.008
34234SOL    HW1 4599  12.736  12.423   0.953
34234SOL    HW2 4600  12.796  12.513   1.059
34235SOL     OW 4601   6.215   0.427   5.825
34235SOL    HW1 4602   6.278   0.499   5.813
34235SOL    HW2 4603   6.150   0.441   5.757
34236SOL     OW 4604  14.499   3.388   2.960
34236SOL    HW1 4605  14.581   3.342   2.978
34236SOL    HW2 4606  14.480   3.369   2.868
34237SOL     OW 4607   0.395  13.717   6.340
34237SOL    HW1 4608   0.385  13.782   6.409
34237SOL    HW2 4609   0.408  13.768   6.260
34238SOL     OW 4610   8.476   2.498  10.998
34238SOL    HW1 4611   8.518   2.445  11.065
34238SOL    HW2 4612   8.426   2.436  10.946
34239SOL     OW 4613   0.914  10.985   5.402
34239SOL    HW1 4614   0.868  11.025   5.475
34239SOL    HW2 4615   0.938  11.058   5.345
34240SOL     OW 4616   3.945   8.954   5.119
34240SOL    HW1 4617   3.958   9.047   5.136
34240SOL    HW2 4618   3.855   8.949   5.086
34241SOL     OW 4619   7.319   1.591   7.496
34241SOL    HW1 4620   7.300   1.497   7.492
34241SOL    HW2 4621   7.275   1.628   7.420
34242SOL     OW 4622  13.635   5.572  12.751
34242SOL    HW1 4623  13.726   5.591  12.773
34242SOL    HW2 4624  13.584   5.608  12.824
34243SOL     OW 4625  12.849  12.999   5.903
34243SOL    HW1 4626  12.779  12.982   5.839
34243SOL    HW2 4627  12.924  13.022   5.849
34244SOL     OW 4628   1.703   1.926   4.727
34244SOL    HW1 4629   1.709   1.947   4.633
34244SOL    HW2 4630   1.779   1.871   4.744
34245SOL     OW 4631   7.283  11.204   4.726
34245SOL    HW1 4632   7.259  11.125   4.774
34245SOL    HW2 4633   7.277  11.274   4.791
34246SOL     OW 4634   2.598   5.229   6.091
34246SOL    HW1 4635   2.552   5.272   6.019
34246SOL    HW2 4636   2.689   5.256   6.080
34247SOL     OW 4637  10.510   8.873  13.280
34247SOL    HW1 4638  10.463   8.939  13.330
34247SOL    HW2 4639  10.498   8.792  13.330
34248SOL     OW 4640   1.139  14.073   7.891
34248SOL    HW1 4641   1.149  13.992   7.941
34248SOL    HW2 4642   1.095  14.133   7.951
34249SOL     OW 4643   1.842  10.875   7.848
34249SOL    HW1 4644   1.936  10.864   7.840
34249SOL    HW2 4645   1.830  10.942   7.915
34250SOL     OW 4646  11.783  14.530   5.131
34250SOL    HW1 4647  11.812  14.575   5.210
34250SOL    HW2 4648  11.782  14.437   5.155
34251SOL     OW 4649  14.205  11.974   4.803
34251SOL    HW1 4650  14.250  12.059   4.795
34251SOL    HW2 4651  14.143  11.986   4.875
34252SOL     OW 4652  12.049  13.322   1.000
34252SOL    HW1 4653  12.074  13.231   0.988
34252SOL    HW2 4654  12.006  13.325   1.085
34253SOL     OW 4655  14.679   9.026   5.912
34253SOL    HW1 4656  14.773   9.015   5.931
34253SOL    HW2 4657  14.676   9.104   5.856
34254SOL     OW 4658   3.381   9.202   6.488
34254SOL    HW1 4659   3.473   9.180   6.472
34254SOL    HW2 4660   3.371   9.192   6.583
34255SOL     OW 4661   4.949  11.775   7.441
34255SOL    HW1 4662   4.896  11.788   7.519
34255SOL    HW2 4663   4.886  11.778   7.369
34256SOL     OW 4664   2.578   8.226   3.882
34256SOL    HW1 4665   2.591   8.211   3.788
34256SOL    HW2 4666   2.629   8.305   3.901
34257SOL     OW 4667   2.370   0.794   6.131
34257SOL    HW1 4668   2.461   0.821   6.147
34257SOL    HW2 4669   2.321   0.876   6.128
34258SOL     OW 4670  14.674   3.313  13.340
34258SOL    HW1 4671  14.654   3.331  13.432
34258SOL    HW2 4672  14.620   3.237  13.318
34259SOL     OW 4673   2.078  12.590   2.433
34259SOL    HW1 4674   1.990  12.557   2.418
34259SOL    HW2 4675   2.125  12.515   2.471
34260SOL     OW 4676   3.524   5.629   4.965
34260SOL    HW1 4677   3.539   5.641   4.872
34260SOL    HW2 4678   3.571   5.702   5.007
34261SOL     OW 4679   2.095   5.165  13.084
34261SOL    HW1 4680   2.072   5.224  13.157
34261SOL    HW2 4681   2.179   5.199  13.053
34262SOL     OW 4682   8.084  10.079   8.215
34262SOL    HW1 4683   8.027  10.086   8.138
34262SOL    HW2 4684   8.050  10.003   8.263
34263SOL     OW 4685  11.684   1.894  10.409
34263SOL    HW1 4686  11.742   1.822  10.431
34263SOL    HW2 4687  11.614   1.854  10.357
34264SOL     OW 4688   1.107   8.743  12.062
34264SOL    HW1 4689   1.054   8.681  12.112
34264SOL    HW2 4690   1.195   8.704  12.062
34265SOL     OW 4691  12.369   8.610   5.346
34265SOL    HW1 4692  12.393   8.546   5.413
34265SOL    HW2 4693  12.450   8.658   5.328
34266SOL     OW 4694  12.266  10.181   0.391
34266SOL    HW1 4695  12.220  10.245   0.336
34266SOL    HW2 4696  12.250  10.097   0.348
34267SOL     OW 4697   6.358   8.547  10.557
34267SOL    HW1 4698   6.370   8.491  10.634
34267SOL    HW2 4699   6.411   8.506  10.489
34268SOL     OW 4700   9.545   6.990   8.454
34268SOL    HW1 4701   9.640   6.997   8.464
34268SOL    HW2 4702   9.532   6.913   8.399
34269SOL     OW 4703   4.200   6.685   2.181
34269SOL    HW1 4704   4.193   6.754   2.247
34269SOL    HW2 4705   4.251   6.724   2.110
34270SOL     OW 4706   9.145  14.636   1.288
34270SOL    HW1 4707   9.096  14.679   1.358
34270SOL    HW2 4708   9.233  14.671   1.294
34271SOL     OW 4709  12.204  12.661   7.946
34271SOL    HW1 4710  12.275  12.695   8.001
34271SOL    HW2 4711  12.152  12.607   8.005
34272SOL     OW 4712   7.526   0.695   6.678
34272SOL    HW1 4713   7.547   0.604   6.658
34272SOL    HW2 4714   7.446   0.692   6.730
34273SOL     OW 4715   6.042   7.606  14.712
34273SOL    HW1 4716   5.976   7.676  14.707
34273SOL    HW2 4717   6.000   7.538  14.765
34274SOL     OW 4718   6.527   4.597   3.262
34274SOL    HW1 4719   6.460   4.538   3.295
34274SOL    HW2 4720   6.484   4.644   3.191
34275SOL     OW 4721   2.538   5.547   9.171
34275SOL    HW1 4722   2.467   5.493   9.205
34275SOL    HW2 4723   2.570   5.596   9.247
34276SOL     OW 4724   1.128  14.358  10.750
34276SOL    HW1 4725   1.199  14.401  10.702
34276SOL    HW2 4726   1.050  14.373  10.697
34277SOL     OW 4727   3.456   9.827   1.185
34277SOL    HW1 4728   3.471   9.778   1.104
34277SOL    HW2 4729   3.540   9.868   1.205
34278SOL     OW 4730   4.329  10.865  14.536
34278SOL    HW1 4731   4.328  10.783  14.585
34278SOL    HW2 4732   4.305  10.932  14.600
34279SOL     OW 4733   4.572  10.239   1.653
34279SOL    HW1 4734   4.545  10.147   1.659
34279SOL    HW2 4735   4.496  10.284   1.616
34280SOL     OW 4736   1.541  10.575   2.992
34280SOL    HW1 4737   1.602  10.638   3.029
34280SOL    HW2 4738   1.478  10.628   2.943
34281SOL     OW 4739   5.089  11.048   9.724
34281SOL    HW1 4740   5.061  11.091   9.805
34281SOL    HW2 4741   5.137  11.115   9.677
34282SOL     OW 4742   4.734  11.062   6.575
34282SOL    HW1 4743   4.679  10.985   6.561
34282SOL    HW2 4744   4.788  11.038   6.650
34283SOL     OW 4745   1.775  13.749   9.909
34283SOL    HW1 4746   1.747  13.659   9.888
34283SOL    HW2 4747   1.737  13.766   9.995
34284SOL     OW 4748   3.598   0.443  14.119
34284SOL    HW1 4749   3.659   0.489  14.177
34284SOL    HW2 4750   3.636   0.454  14.032
34285SOL     OW 4751   7.940  10.124  14.509
34285SOL    HW1 4752   8.010  10.080  14.557
34285SOL    HW2 4753   7.892  10.173  14.576
34286SOL     OW 4754   5.227   9.067   0.231
34286SOL    HW1 4755   5.192   9.145   0.276
34286SOL    HW2 4756   5.318   9.089   0.213
34287SOL     OW 4757  14.054   7.158   8.933
34287SOL    HW1 4758  14.139   7.149   8.889
34287SOL    HW2 4759  13.992   7.174   8.862
34288SOL     OW 4760  14.303   7.447   5.209
34288SOL    HW1 4761  14.363   7.476   5.141
34288SOL    HW2 4762  14.237   7.396   5.163
34289SOL     OW 4763   1.184   0.839   7.946
34289SOL    HW1 4764   1.277   0.851   7.961
34289SOL    HW2 4765   1.142   0.908   7.998
34290SOL     OW 4766   1.512   8.501  14.476
34290SOL    HW1 4767   1.510   8.549  14.394
34290SOL    HW2 4768   1.533   8.566  14.542
34291SOL     OW 4769   8.088  11.376   8.310
34291SOL    HW1 4770   8.014  11.369   8.371
34291SOL    HW2 4771   8.134  11.455   8.337
34292SOL     OW 4772  10.608  13.956   3.870
34292SOL    HW1 4773  10.541  14.023   3.859
34292SOL    HW2 4774  10.562  13.873   3.855
34293SOL     OW 4775   4.834   8.933   7.567
34293SOL    HW1 4776   4.749   8.923   7.524
34293SOL    HW2 4777   4.896   8.944   7.495
34294SOL     OW 4778  13.299   3.385  13.760
34294SOL    HW1 4779  13.237   3.447  13.799
34294SOL    HW2 4780  13.346   3.437  13.694
34295SOL     OW 4781   5.050   2.500   7.989
34295SOL    HW1 4782   5.070   2.592   7.976
34295SOL    HW2 4783   4.955   2.494   7.981
34296SOL     OW 4784  10.534  10.132   5.399
34296SOL    HW1 4785  10.601  10.185   5.356
34296SOL    HW2 4786  10.454  10.184   5.393
34297SOL     OW 4787   2.092   7.029   4.072
34297SOL    HW1 4788   2.169   6.981   4.040
34297SOL    HW2 4789   2.065   6.981   4.150
34298SOL     OW 4790  11.681   5.782   0.844
34298SOL    HW1 4791  11.663   5.828   0.926
34298SOL    HW2 4792  11.624   5.825   0.780
34299SOL     OW 4793   0.031   9.979   4.946
34299SOL    HW1 4794   0.001  10.057   4.993
34299SOL    HW2 4795   0.007   9.906   5.004
34300SOL     OW 4796   0.718  11.859   5.863
34300SOL    HW1 4797   0.737  11.908   5.782
34300SOL    HW2 4798   0.669  11.782   5.834
34301SOL     OW 4799   0.878   1.759   0.943
34301SOL    HW1 4800   0.834   1.838   0.975
34301SOL    HW2 4801   0.938   1.735   1.014
34302SOL     OW 4802   9.042  11.212  10.180
34302SOL    HW1 4803   9.104  11.150  10.217
34302SOL    HW2 4804   8.989  11.160  10.119
34303SOL     OW 4805  14.534   1.791   7.201
34303SOL    HW1 4806  14.524   1.727   7.272
34303SOL    HW2 4807  14.623   1.824   7.211
34304SOL     OW 4808   8.147   7.622   5.096
34304SOL    HW1 4809   8.149   7.697   5.155
34304SOL    HW2 4810   8.185   7.655   5.014
34305SOL     OW 4811   6.544   8.956  11.692
34305SOL    HW1 4812   6.597   8.967  11.771
34305SOL    HW2 4813   6.461   8.999  11.712
34306SOL     OW 4814  12.896   4.105   3.944
34306SOL    HW1 4815  12.816   4.156   3.957
34306SOL    HW2 4816  12.965   4.156   3.986
34307SOL     OW 4817   6.312  12.410   0.618
34307SOL    HW1 4818   6.383  12.346   0.617
34307SOL    HW2 4819   6.298  12.433   0.526
34308SOL     OW 4820   6.357   1.497  13.871
34308SOL    HW1 4821   6.443   1.537  13.873
34308SOL    HW2 4822   6.366   1.422  13.812
34309SOL     OW 4823  11.291   5.823  13.965
34309SOL    HW1 4824  11.347   5.900  13.974
34309SOL    HW2 4825  11.223   5.850  13.903
34310SOL     OW 4826  13.141   7.475   4.139
34310SOL    HW1 4827  13.099   7.389   4.140
34310SOL    HW2 4828  13.165   7.491   4.230
34311SOL     OW 4829   8.136  13.074   1.388
34311SOL    HW1 4830   8.135  12.990   1.343
34311SOL    HW2 4831   8.198  13.061   1.461
34312SOL     OW 4832  14.189   6.294   3.732
34312SOL    HW1 4833  14.211   6.298   3.825
34312SOL    HW2 4834  14.167   6.385   3.709
34313SOL     OW 4835  12.337  13.712   8.842
34313SOL    HW1 4836  12.381  13.792   8.871
34313SOL    HW2 4837  12.321  13.725   8.749
34314SOL     OW 4838   4.866   1.894  14.296
34314SOL    HW1 4839   4.810   1.828  14.256
34314SOL    HW2 4840   4.931   1.845  14.346
34315SOL     OW 4841   7.540  11.887   3.038
34315SOL    HW1 4842   7.624  11.847   3.017
34315SOL    HW2 4843   7.480  11.851   2.973
34316SOL     OW 4844   5.871   3.770   2.820
34316SOL    HW1 4845   5.843   3.682   2.794
34316SOL    HW2 4846   5.850   3.825   2.745
34317SOL     OW 4847   3.302   6.201  14.070
34317SOL    HW1 4848   3.287   6.277  14.128
34317SOL    HW2 4849   3.395   6.206  14.049
34318SOL     OW 4850   5.416  12.691   9.082
34318SOL    HW1 4851   5.427  12.625   9.014
34318SOL    HW2 4852   5.358  12.650   9.146
34319SOL     OW 4853   6.102   0.869  10.712
34319SOL    HW1 4854   6.086   0.794  10.654
34319SOL    HW2 4855   6.129   0.829  10.794
34320SOL     OW 4856  11.336   0.785   3.361
34320SOL    HW1 4857  11.345   0.715   3.426
34320SOL    HW2 4858  11.269   0.843   3.397
34321SOL     OW 4859  14.562   8.779   1.782
34321SOL    HW1 4860  14.583   8.860   1.736
34321SOL    HW2 4861  14.569   8.711   1.715
34322SOL     OW 4862   0.041  13.398   7.457
34322SOL    HW1 4863   0.129  13.435   7.452
34322SOL    HW2 4864  14.881  13.437   7.384
34323SOL     OW 4865  14.782  12.138  13.361
34323SOL    HW1 4866  14.780  12.102  13.272
34323SOL    HW2 4867  14.693  12.125  13.394
34324SOL     OW 4868  11.818   9.110   7.067
34324SOL    HW1 4869  11.799   9.150   6.982
34324SOL    HW2 4870  11.862   9.179   7.117
34325SOL     OW 4871  11.402   0.097  14.409
34325SOL    HW1 4872  11.462   0.097  14.334
34325SOL    HW2 4873  11.353   0.016  14.400
34326SOL     OW 4874  13.166   3.149   9.595
34326SOL    HW1 4875  13.230   3.220   9.596
34326SOL    HW2 4876  13.160   3.121   9.686
34327SOL     OW 4877   3.933  12.381  11.000
34327SOL    HW1 4878   3.841  12.394  11.021
34327SOL    HW2 4879   3.980  12.415  11.076
34328SOL     OW 4880   0.339  10.304   4.556
34328SOL    HW1 4881   0.285  10.288   4.634
34328SOL    HW2 4882   0.377  10.218   4.535
34329SOL     OW 4883  10.575  12.401   0.025
34329SOL    HW1 4884  10.662  12.434   0.048
34329SOL    HW2 4885  10.591  12.338  14.843
34330SOL     OW 4886  12.955  11.793  11.911
34330SOL    HW1 4887  12.899  11.766  11.838
34330SOL    HW2 4888  12.989  11.879  11.884
34331SOL     OW 4889  12.875  10.489   2.500
34331SOL    HW1 4890  12.903  10.553   2.435
34331SOL    HW2 4891  12.919  10.408   2.474
34332SOL     OW 4892  12.155   0.439   8.396
34332SOL    HW1 4893  12.220   0.407   8.459
34332SOL    HW2 4894  12.202   0.504   8.345
34333SOL     OW 4895   2.631   2.662  12.660
34333SOL    HW1 4896   2.661   2.605  12.588
34333SOL    HW2 4897   2.545   2.692  12.632
34334SOL     OW 4898  14.437   9.343   3.051
34334SOL    HW1 4899  14.475   9.271   3.001
34334SOL    HW2 4900  14.370   9.302   3.105
34335SOL     OW 4901   8.699  13.700   2.969
34335SOL    HW1 4902   8.629  13.649   3.009
34335SOL    HW2 4903   8.717  13.770   3.032
34336SOL     OW 4904   6.358   7.360   3.482
34336SOL    HW1 4905   6.346   7.377   3.388
34336SOL    HW2 4906   6.447   7.326   3.488
34337SOL     OW 4907  10.848   8.236  11.876
34337SOL    HW1 4908  10.762   8.200  11.899
34337SOL    HW2 4909  10.905   8.206  11.947
34338SOL     OW 4910   4.150  13.215   5.593
34338SOL    HW1 4911   4.162  13.303   5.627
34338SOL    HW2 4912   4.091  13.225   5.519
34339SOL     OW 4913  13.338   8.552   7.907
34339SOL    HW1 4914  13.292   8.526   7.827
34339SOL    HW2 4915  13.397   8.479   7.926
34340SOL     OW 4916   7.612  13.535  13.616
34340SOL    HW1 4917   7.569  13.452  13.598
34340SOL    HW2 4918   7.689  13.512  13.668
34341SOL     OW 4919   4.786  13.883   5.086
34341SOL    HW1 4920   4.847  13.834   5.031
34341SOL    HW2 4921   4.793  13.843   5.173
34342SOL     OW 4922  11.800  10.044   3.322
34342SOL    HW1 4923  11.848  10.113   3.368
34342SOL    HW2 4924  11.751  10.090   3.254
34343SOL     OW 4925   2.548   7.449  13.901
34343SOL    HW1 4926   2.639   7.444  13.930
34343SOL    HW2 4927   2.517   7.533  13.935
34344SOL     OW 4928   4.759   8.819  12.071
34344SOL    HW1 4929   4.775   8.787  11.983
34344SOL    HW2 4930   4.774   8.744  12.128
34345SOL     OW 4931   4.998   0.909  13.130
34345SOL    HW1 4932   5.022   0.909  13.037
34345SOL    HW2 4933   4.925   0.847  13.136
34346SOL     OW 4934  12.235   5.162   1.598
34346SOL    HW1 4935  12.300   5.142   1.665
34346SOL    HW2 4936  12.159   5.110   1.623
34347SOL     OW 4937   7.947   4.839  14.875
34347SOL    HW1 4938   8.026   4.786  14.887
34347SOL    HW2 4939   7.980   4.922  14.839
34348SOL     OW 4940   8.381   7.817   0.161
34348SOL    HW1 4941   8.330   7.892   0.132
34348SOL    HW2 4942   8.472   7.842   0.146
34349SOL     OW 4943   7.689   3.965  11.650
34349SOL    HW1 4944   7.607   4.010  11.631
34349SOL    HW2 4945   7.671   3.873  11.630
34350SOL     OW 4946  10.289   6.171  12.530
34350SOL    HW1 4947  10.380   6.149  12.513
34350SOL    HW2 4948  10.239   6.119  12.467
34351SOL     OW 4949   4.884   7.422   6.152
34351SOL    HW1 4950   4.883   7.369   6.071
34351SOL    HW2 4951   4.902   7.511   6.122
34352SOL     OW 4952   8.277   8.686  11.511
34352SOL    HW1 4953   8.292   8.689  11.605
34352SOL    HW2 4954   8.365   8.694  11.473
34353SOL     OW 4955   5.608   9.848   5.234
34353SOL    HW1 4956   5.533   9.907   5.239
34353SOL    HW2 4957   5.639   9.842   5.325
34354SOL     OW 4958   9.978  12.168   0.282
34354SOL    HW1 4959   9.932  12.236   0.233
34354SOL    HW2 4960   9.912  12.134   0.343
34355SOL     OW 4961   6.064   4.700   5.227
34355SOL    HW1 4962   6.112   4.782   5.213
34355SOL    HW2 4963   5.981   4.728   5.266
34356SOL     OW 4964   4.466   2.987  14.759
34356SOL    HW1 4965   4.414   3.067  14.747
34356SOL    HW2 4966   4.471   2.976  14.854
34357SOL     OW 4967   4.548   6.173   3.443
34357SOL    HW1 4968   4.575   6.262   3.463
34357SOL    HW2 4969   4.605   6.118   3.497
34358SOL     OW 4970   8.084  13.592   9.189
34358SOL    HW1 4971   8.121  13.670   9.230
34358SOL    HW2 4972   7.999  13.580   9.231
34359SOL     OW 4973  11.047   8.132   0.006
34359SOL    HW1 4974  11.085   8.209   0.049
34359SOL    HW2 4975  11.074   8.139  14.802
34360SOL     OW 4976   9.505  13.379  12.731
34360SOL    HW1 4977   9.591  13.353  12.697
34360SOL    HW2 4978   9.489  13.320  12.804
34361SOL     OW 4979  13.695   4.285   5.887
34361SOL    HW1 4980  13.711   4.371   5.847
34361SOL    HW2 4981  13.608   4.260   5.856
34362SOL     OW 4982  12.754  12.865   2.499
34362SOL    HW1 4983  12.767  12.953   2.535
34362SOL    HW2 4984  12.659  12.852   2.503
34363SOL     OW 4985   8.051   8.823   2.609
34363SOL    HW1 4986   8.053   8.730   2.631
34363SOL    HW2 4987   8.091   8.828   2.523
34364SOL     OW 4988   0.404   8.204   5.669
34364SOL    HW1 4989   0.476   8.255   5.706
34364SOL    HW2 4990   0.337   8.204   5.738
34365SOL     OW 4991   5.184   1.386   1.480
34365SOL    HW1 4992   5.138   1.305   1.502
34365SOL    HW2 4993   5.143   1.416   1.400
34366SOL     OW 4994   0.159  12.487  13.178
34366SOL    HW1 4995   0.227  12.553  13.162
34366SOL    HW2 4996   0.149  12.487  13.273
34367SOL     OW 4997   3.572   7.464   3.360
34367SOL    HW1 4998   3.577   7.376   3.395
34367SOL    HW2 4999   3.527   7.515   3.427
34368SOL     OW 5000   1.381  12.366  13.536
34368SOL    HW1 5001   1.285  12.367  13.545
34368SOL    HW2 5002   1.414  12.372  13.626
34369SOL     OW 5003   2.513   9.246   0.216
34369SOL    HW1 5004   2.426   9.212   0.194
34369SOL    HW2 5005   2.573   9.197   0.161
34370SOL     OW 5006   5.893   3.601  11.972
34370SOL    HW1 5007   5.877   3.558  12.056
34370SOL    HW2 5008   5.899   3.528  11.909
34371SOL     OW 5009  13.467   6.368   5.753
34371SOL    HW1 5010  13.525   6.319   5.695
34371SOL    HW2 5011  13.412   6.420   5.694
34372SOL     OW 5012  11.579   7.801  14.785
34372SOL    HW1 5013  11.547   7.717  14.819
34372SOL    HW2 5014  11.671   7.804  14.813
34373SOL     OW 5015  12.883   5.879  11.215
34373SOL    HW1 5016  12.979   5.880  11.210
34373SOL    HW2 5017  12.861   5.787  11.230
34374SOL     OW 5018   9.524   4.663   8.955
34374SOL    HW1 5019   9.574   4.689   8.878
34374SOL    HW2 5020   9.434   4.687   8.935
34375SOL     OW 5021  12.682   9.427   5.089
34375SOL    HW1 5022  12.770   9.441   5.122
34375SOL    HW2 5023  12.689   9.442   4.995
34376SOL     OW 5024   2.382   3.910   3.088
34376SOL    HW1 5025   2.414   3.846   3.152
34376SOL    HW2 5026   2.326   3.858   3.029
34377SOL     OW 5027   3.890  14.124   6.319
34377SOL    HW1 5028   3.869  14.192   6.383
34377SOL    HW2 5029   3.809  14.076   6.306
34378SOL     OW 5030  13.865  14.554  11.910
34378SOL    HW1 5031  13.913  14.568  11.991
34378SOL    HW2 5032  13.779  14.593  11.926
34379SOL     OW 5033  14.073   6.565  13.191
34379SOL    HW1 5034  14.018   6.522  13.125
34379SOL    HW2 5035  14.061   6.513  13.270
34380SOL     OW 5036   6.389   9.759   9.039
34380SOL    HW1 5037   6.479   9.738   9.062
34380SOL    HW2 5038   6.368   9.700   8.967
34381SOL     OW 5039   2.606  13.831   1.138
34381SOL    HW1 5040   2.536  13.769   1.160
34381SOL    HW2 5041   2.596  13.845   1.044
34382SOL     OW 5042  11.169   4.246   6.288
34382SOL    HW1 5043  11.204   4.216   6.204
34382SOL    HW2 5044  11.090   4.193   6.301
34383SOL     OW 5045  13.584   8.077   8.130
34383SOL    HW1 5046  13.673   8.106   8.150
34383SOL    HW2 5047  13.585   8.060   8.036
34384SOL     OW 5048   7.048   9.766  12.416
34384SOL    HW1 5049   7.130   9.759  12.464
34384SOL    HW2 5050   7.052   9.698  12.349
34385SOL     OW 5051  13.990   1.525   0.803
34385SOL    HW1 5052  14.084   1.514   0.787
34385SOL    HW2 5053  13.979   1.620   0.812
34386SOL     OW 5054   8.877  14.307  12.731
34386SOL    HW1 5055   8.837  14.221  12.714
34386SOL    HW2 5056   8.841  14.333  12.816
34387SOL     OW 5057   6.634  11.534  12.945
34387SOL    HW1 5058   6.720  11.522  12.986
34387SOL    HW2 5059   6.650  11.520  12.851
34388SOL     OW 5060   5.168   9.411   2.694
34388SOL    HW1 5061   5.179   9.478   2.626
34388SOL    HW2 5062   5.254   9.370   2.702
34389SOL     OW 5063  11.813   6.086  12.967
34389SOL    HW1 5064  11.816   6.117  12.877
34389SOL    HW2 5065  11.720   6.071  12.984
34390SOL     OW 5066   2.949  11.220   7.572
34390SOL    HW1 5067   2.890  11.152   7.605
34390SOL    HW2 5068   3.037  11.186   7.587
34391SOL     OW 5069   2.712  13.444   4.010
34391SOL    HW1 5070   2.671  13.359   4.000
34391SOL    HW2 5071   2.640  13.506   4.015
34392SOL     OW 5072  11.429   3.990   2.092
34392SOL    HW1 5073  11.417   4.084   2.103
34392SOL    HW2 5074  11.412   3.953   2.179
34393SOL     OW 5075   9.742  13.344   5.903
34393SOL    HW1 5076   9.797  13.400   5.847
34393SOL    HW2 5077   9.728  13.396   5.982
34394SOL     OW 5078  12.908   9.588  12.042
34394SOL    HW1 5079  12.912   9.668  12.094
34394SOL    HW2 5080  12.906   9.517  12.106
34395SOL     OW 5081   1.222   8.513  13.190
34395SOL    HW1 5082   1.136   8.554  13.185
34395SOL    HW2 5083   1.283   8.586  13.197
34396SOL     OW 5084   7.609  11.921   0.001
34396SOL    HW1 5085   7.565  12.003  14.865
34396SOL    HW2 5086   7.629  11.930   0.094
34397SOL     OW 5087  10.055  11.675   9.138
34397SOL    HW1 5088  10.037  11.764   9.168
34397SOL    HW2 5089  10.035  11.619   9.213
34398SOL     OW 5090   6.294  12.309  10.696
34398SOL    HW1 5091   6.337  12.250  10.758
34398SOL    HW2 5092   6.300  12.395  10.737
34399SOL     OW 5093   2.803   1.467   7.103
34399SOL    HW1 5094   2.773   1.437   7.188
34399SOL    HW2 5095   2.898   1.473   7.112
34400SOL     OW 5096  11.146   1.220  10.350
34400SOL    HW1 5097  11.121   1.171  10.271
34400SOL    HW2 5098  11.176   1.305  10.316
34401SOL     OW 5099   2.380  11.231   0.210
34401SOL    HW1 5100   2.387  11.272   0.296
34401SOL    HW2 5101   2.462  11.183   0.199
34402SOL     OW 5102   8.213   6.259  13.492
34402SOL    HW1 5103   8.157   6.336  13.501
34402SOL    HW2 5104   8.180   6.199  13.559
34403SOL     OW 5105   1.993   3.835   7.065
34403SOL    HW1 5106   1.920   3.846   7.004
34403SOL    HW2 5107   2.045   3.763   7.028
34404SOL     OW 5108   6.378  14.070   4.883
34404SOL    HW1 5109   6.454  14.045   4.829
34404SOL    HW2 5110   6.412  14.070   4.972
34405SOL     OW 5111   9.246  12.014   5.260
34405SOL    HW1 5112   9.178  11.949   5.278
34405SOL    HW2 5113   9.202  12.079   5.205
34406SOL     OW 5114  10.712   2.350   4.312
34406SOL    HW1 5115  10.775   2.421   4.300
34406SOL    HW2 5116  10.766   2.273   4.329
34407SOL     OW 5117   9.811   5.313   0.263
34407SOL    HW1 5118   9.746   5.303   0.333
34407SOL    HW2 5119   9.848   5.400   0.277
34408SOL     OW 5120   8.218   4.805  14.239
34408SOL    HW1 5121   8.236   4.898  14.233
34408SOL    HW2 5122   8.134   4.799  14.285
34409SOL     OW 5123  14.153  13.141   2.444
34409SOL    HW1 5124  14.176  13.232   2.425
34409SOL    HW2 5125  14.067  13.146   2.485
34410SOL     OW 5126   1.302   8.628   9.609
34410SOL    HW1 5127   1.259   8.543   9.598
34410SOL    HW2 5128   1.231   8.692   9.610
34411SOL     OW 5129   1.794   7.992   7.605
34411SOL    HW1 5130   1.743   8.069   7.582
34411SOL    HW2 5131   1.879   8.005   7.563
34412SOL     OW 5132   6.991   2.461   1.900
34412SOL    HW1 5133   6.939   2.382   1.887
34412SOL    HW2 5134   7.026   2.453   1.989
34413SOL     OW 5135   8.344  10.653  13.089
34413SOL    HW1 5136   8.425  10.689  13.053
34413SOL    HW2 5137   8.371  10.572  13.132
34414SOL     OW 5138   5.072  14.838   3.018
34414SOL    HW1 5139   5.019  14.764   3.048
34414SOL    HW2 5140   5.089   0.001   3.097
34415SOL     OW 5141   7.382   2.210   4.033
34415SOL    HW1 5142   7.301   2.191   3.987
34415SOL    HW2 5143   7.448   2.154   3.991
34416SOL     OW 5144  13.476   5.801   8.391
34416SOL    HW1 5145  13.559   5.771   8.428
34416SOL    HW2 5146  13.431   5.720   8.366
34417SOL     OW 5147   0.059  10.895  12.781
34417SOL    HW1 5148   0.107  10.829  12.830
34417SOL    HW2 5149  14.854  10.877  12.799
34418SOL     OW 5150  11.053  12.885   0.197
34418SOL    HW1 5151  11.055  12.794   0.227
34418SOL    HW2 5152  11.132  12.924   0.235
34419SOL     OW 5153  10.623   2.941   7.393
34419SOL    HW1 5154  10.709   2.912   7.363
34419SOL    HW2 5155  10.584   2.864   7.433
34420SOL     OW 5156  14.685  10.219  10.761
34420SOL    HW1 5157  14.604  10.168  10.766
34420SOL    HW2 5158  14.677  10.284  10.830
34421SOL     OW 5159   6.700   7.443  12.595
34421SOL    HW1 5160   6.672   7.416  12.682
34421SOL    HW2 5161   6.623   7.433  12.539
34422SOL     OW 5162   6.961  12.457   0.729
34422SOL    HW1 5163   7.035  12.493   0.778
34422SOL    HW2 5164   6.886  12.509   0.758
34423SOL     OW 5165  13.571  11.706   1.732
34423SOL    HW1 5166  13.634  11.635   1.722
34423SOL    HW2 5167  13.602  11.776   1.674
34424SOL     OW 5168  10.026  10.482   9.396
34424SOL    HW1 5169  10.065  10.510   9.313
34424SOL    HW2 5170  10.077  10.406   9.422
34425SOL     OW 5171  12.636  14.185  10.941
34425SOL    HW1 5172  12.545  14.186  10.914
34425SOL    HW2 5173  12.636  14.225  11.028
34426SOL     OW 5174   4.111   5.139   0.884
34426SOL    HW1 5175   4.075   5.225   0.905
34426SOL    HW2 5176   4.201   5.142   0.917
34427SOL     OW 5177   6.092   2.548  12.784
34427SOL    HW1 5178   6.159   2.482  12.802
34427SOL    HW2 5179   6.101   2.612  12.854
34428SOL     OW 5180  11.030   2.591   5.913
34428SOL    HW1 5181  11.060   2.636   5.834
34428SOL    HW2 5182  10.959   2.645   5.946
34429SOL     OW 5183   0.343   0.516   2.730
34429SOL    HW1 5184   0.317   0.425   2.722
34429SOL    HW2 5185   0.285   0.551   2.798
34430SOL     OW 5186   0.230  13.155   2.894
34430SOL    HW1 5187   0.237  13.212   2.818
34430SOL    HW2 5188   0.315  13.161   2.937
34431SOL     OW 5189   1.259   8.249  11.598
34431SOL    HW1 5190   1.179   8.231  11.647
34431SOL    HW2 5191   1.229   8.262  11.508
34432SOL     OW 5192   9.847   3.676  14.294
34432SOL    HW1 5193   9.901   3.718  14.228
34432SOL    HW2 5194   9.903   3.607  14.330
34433SOL     OW 5195   5.463   3.881   7.588
34433SOL    HW1 5196   5.471   3.786   7.577
34433SOL    HW2 5197   5.553   3.911   7.602
34434SOL     OW 5198   5.874   9.824  13.916
34434SOL    HW1 5199   5.877   9.873  13.834
34434SOL    HW2 5200   5.801   9.862  13.965
34435SOL     OW 5201   7.009   8.794  11.162
34435SOL    HW1 5202   6.937   8.845  11.198
34435SOL    HW2 5203   7.011   8.713  11.213
34436SOL     OW 5204   9.448   2.538  13.699
34436SOL    HW1 5205   9.388   2.523  13.626
34436SOL    HW2 5206   9.391   2.553  13.774
34437SOL     OW 5207  11.695  10.643   9.414
34437SOL    HW1 5208  11.601  10.661   9.418
34437SOL    HW2 5209  11.704  10.575   9.348
34438SOL     OW 5210   3.884   5.150  12.814
34438SOL    HW1 5211   3.974   5.122  12.826
34438SOL    HW2 5212   3.878   5.177  12.722
34439SOL     OW 5213  11.973   9.253   3.406
34439SOL    HW1 5214  11.898   9.273   3.351
34439SOL    HW2 5215  11.973   9.157   3.412
34440SOL     OW 5216   5.175  14.007   6.661
34440SOL    HW1 5217   5.173  13.911   6.669
34440SOL    HW2 5218   5.085  14.031   6.638
34441SOL     OW 5219   3.262  11.340   0.332
34441SOL    HW1 5220   3.339  11.300   0.372
34441SOL    HW2 5221   3.230  11.402   0.397
34442SOL     OW 5222   1.557   6.309   4.749
34442SOL    HW1 5223   1.570   6.251   4.673
34442SOL    HW2 5224   1.466   6.337   4.742
34443SOL     OW 5225   3.314  10.232   2.623
34443SOL    HW1 5226   3.283  10.308   2.673
34443SOL    HW2 5227   3.345  10.171   2.689
34444SOL     OW 5228   5.579  10.572  13.789
34444SOL    HW1 5229   5.553  10.655  13.828
34444SOL    HW2 5230   5.500  10.518  13.793
34445SOL     OW 5231   7.421   1.218   6.045
34445SOL    HW1 5232   7.482   1.153   6.080
34445SOL    HW2 5233   7.435   1.216   5.951
34446SOL     OW 5234   0.968   5.637  14.541
34446SOL    HW1 5235   0.970   5.691  14.462
34446SOL    HW2 5236   1.058   5.639  14.573
34447SOL     OW 5237   5.576   8.613  12.980
34447SOL    HW1 5238   5.598   8.705  12.967
34447SOL    HW2 5239   5.562   8.580  12.891
34448SOL     OW 5240   1.180   3.034   3.266
34448SOL    HW1 5241   1.236   2.958   3.253
34448SOL    HW2 5242   1.135   3.045   3.182
34449SOL     OW 5243  12.933   1.188   5.417
34449SOL    HW1 5244  12.861   1.233   5.373
34449SOL    HW2 5245  12.892   1.113   5.460
34450SOL     OW 5246   8.394   3.800  14.423
34450SOL    HW1 5247   8.470   3.819  14.368
34450SOL    HW2 5248   8.324   3.781  14.361
34451SOL     OW 5249   7.225   1.418   7.238
34451SOL    HW1 5250   7.286   1.368   7.183
34451SOL    HW2 5251   7.250   1.509   7.226
34452SOL     OW 5252   1.404   9.469   6.608
34452SOL    HW1 5253   1.435   9.552   6.572
34452SOL    HW2 5254   1.327   9.447   6.554
34453SOL     OW 5255   0.095   9.279   5.555
34453SOL    HW1 5256   0.083   9.231   5.473
34453SOL    HW2 5257   0.044   9.229   5.619
34454SOL     OW 5258  10.721  13.155   2.952
34454SOL    HW1 5259  10.811  13.187   2.948
34454SOL    HW2 5260  10.720  13.080   2.893
34455SOL     OW 5261  12.218   1.520   8.329
34455SOL    HW1 5262  12.136   1.515   8.379
34455SOL    HW2 5263  12.198   1.478   8.245
34456SOL     OW 5264   0.688   6.341   0.668
34456SOL    HW1 5265   0.621   6.274   0.654
34456SOL    HW2 5266   0.671   6.374   0.757
34457SOL     OW 5267   9.047  12.948  14.508
34457SOL    HW1 5268   9.066  13.042  14.498
34457SOL    HW2 5269   9.093  12.907  14.435
34458SOL     OW 5270   5.044  11.106   5.685
34458SOL    HW1 5271   5.010  11.143   5.766
34458SOL    HW2 5272   5.103  11.173   5.650
34459SOL     OW 5273  13.089  10.804  12.453
34459SOL    HW1 5274  13.028  10.862  12.406
34459SOL    HW2 5275  13.055  10.716  12.437
34460SOL     OW 5276   4.846   1.711   7.770
34460SOL    HW1 5277   4.849   1.798   7.730
34460SOL    HW2 5278   4.927   1.704   7.820
34461SOL     OW 5279   8.337   9.967  13.448
34461SOL    HW1 5280   8.373  10.051  13.420
34461SOL    HW2 5281   8.279   9.989  13.522
34462SOL     OW 5282   0.265  14.473  14.476
34462SOL    HW1 5283   0.182  14.440  14.440
34462SOL    HW2 5284   0.239  14.542  14.536
34463SOL     OW 5285   8.323   9.933   3.515
34463SOL    HW1 5286   8.345   9.911   3.425
34463SOL    HW2 5287   8.345  10.026   3.523
34464SOL     OW 5288  13.074   3.106   6.841
34464SOL    HW1 5289  13.088   3.086   6.934
34464SOL    HW2 5290  13.097   3.026   6.795
34465SOL     OW 5291   3.378   3.229  13.302
34465SOL    HW1 5292   3.472   3.248  13.312
34465SOL    HW2 5293   3.335   3.312  13.318
34466SOL     OW 5294   6.827   5.144   8.182
34466SOL    HW1 5295   6.813   5.066   8.236
34466SOL    HW2 5296   6.836   5.215   8.245
34467SOL     OW 5297  10.210   2.482   6.174
34467SOL    HW1 5298  10.170   2.409   6.126
34467SOL    HW2 5299  10.156   2.558   6.151
34468SOL     OW 5300   6.942   8.316   9.375
34468SOL    HW1 5301   6.994   8.241   9.403
34468SOL    HW2 5302   6.861   8.310   9.425
34469SOL     OW 5303   2.133  11.660   1.365
34469SOL    HW1 5304   2.139  11.626   1.454
34469SOL    HW2 5305   2.220  11.697   1.348
34470SOL     OW 5306   3.437  11.151   0.457
34470SOL    HW1 5307   3.508  11.211   0.482
34470SOL    HW2 5308   3.475  11.095   0.390
34471SOL     OW 5309   4.687   3.797   3.212
34471SOL    HW1 5310   4.717   3.888   3.224
34471SOL    HW2 5311   4.710   3.753   3.294
34472SOL     OW 5312  14.672   0.182   5.051
34472SOL    HW1 5313  14.669   0.246   5.122
34472SOL    HW2 5314  14.586   0.190   5.008
34473SOL     OW 5315   8.096   8.960   5.367
34473SOL    HW1 5316   8.094   9.020   5.292
34473SOL    HW2 5317   8.006   8.959   5.399
34474SOL     OW 5318   1.458  13.799   6.634
34474SOL    HW1 5319   1.540  13.824   6.591
34474SOL    HW2 5320   1.483  13.783   6.725
34475SOL     OW 5321  14.468  11.165   1.452
34475SOL    HW1 5322  14.412  11.177   1.375
34475SOL    HW2 5323  14.557  11.179   1.421
34476SOL     OW 5324   5.122   2.917   3.332
34476SOL    HW1 5325   5.201   2.934   3.384
34476SOL    HW2 5326   5.095   3.004   3.301
34477SOL     OW 5327   8.977   5.096  13.761
34477SOL    HW1 5328   8.887   5.116  13.736
34477SOL    HW2 5329   9.005   5.028  13.701
34478SOL     OW 5330   5.777   2.859   0.253
34478SOL    HW1 5331   5.756   2.934   0.309
34478SOL    HW2 5332   5.836   2.895   0.186
34479SOL     OW 5333   6.120   5.816   6.456
34479SOL    HW1 5334   6.180   5.747   6.484
34479SOL    HW2 5335   6.164   5.897   6.481
34480SOL     OW 5336  10.928   8.804  12.576
34480SOL    HW1 5337  10.920   8.899  12.587
34480SOL    HW2 5338  10.874   8.785  12.499
34481SOL     OW 5339   7.181   0.603   0.532
34481SOL    HW1 5340   7.170   0.653   0.613
34481SOL    HW2 5341   7.253   0.648   0.487
34482SOL     OW 5342   7.070  13.282   3.270
34482SOL    HW1 5343   7.117  13.303   3.351
34482SOL    HW2 5344   7.072  13.363   3.219
34483SOL     OW 5345   6.105   7.640   5.549
34483SOL    HW1 5346   6.169   7.705   5.520
34483SOL    HW2 5347   6.123   7.630   5.643
34484SOL     OW 5348   9.479   9.156   8.302
34484SOL    HW1 5349   9.484   9.100   8.225
34484SOL    HW2 5350   9.385   9.173   8.313
34485SOL     OW 5351  10.359   2.124  12.721
34485SOL    HW1 5352  10.307   2.076  12.785
34485SOL    HW2 5353  10.352   2.073  12.641
34486SOL     OW 5354   1.156   8.852   7.839
34486SOL    HW1 5355   1.228   8.826   7.781
34486SOL    HW2 5356   1.190   8.928   7.886
34487SOL     OW 5357  10.828   0.787  13.973
34487SOL    HW1 5358  10.798   0.877  13.985
34487SOL    HW2 5359  10.792   0.739  14.047
34488SOL     OW 5360   0.833   2.399  13.107
34488SOL    HW1 5361   0.811   2.492  13.110
34488SOL    HW2 5362   0.762   2.356  13.154
34489SOL     OW 5363  13.849   8.223   6.889
34489SOL    HW1 5364  13.787   8.181   6.949
34489SOL    HW2 5365  13.802   8.227   6.805
34490SOL     OW 5366   0.852   9.218   0.235
34490SOL    HW1 5367   0.886   9.137   0.273
34490SOL    HW2 5368   0.768   9.192   0.195
34491SOL     OW 5369  10.708   4.619   3.788
34491SOL    HW1 5370  10.683   4.629   3.696
34491SOL    HW2 5371  10.629   4.644   3.837
34492SOL     OW 5372   3.852   5.695   1.316
34492SOL    HW1 5373   3.938   5.735   1.300
34492SOL    HW2 5374   3.790   5.767   1.304
34493SOL     OW 5375   9.937  10.424   8.689
34493SOL    HW1 5376   9.871  10.490   8.711
34493SOL    HW2 5377   9.887  10.346   8.666
34494SOL     OW 5378   8.753   8.884  14.855
34494SOL    HW1 5379   8.829   8.831  14.829
34494SOL    HW2 5380   8.719   8.920  14.773
34495SOL     OW 5381   1.558   5.832   1.280
34495SOL    HW1 5382   1.583   5.747   1.243
34495SOL    HW2 5383   1.632   5.857   1.335
34496SOL     OW 5384   0.114   0.242  13.179
34496SOL    HW1 5385   0.090   0.151  13.199
34496SOL    HW2 5386   0.191   0.234  13.123
34497SOL     OW 5387   2.949   8.999   0.286
34497SOL    HW1 5388   3.025   8.945   0.269
34497SOL    HW2 5389   2.954   9.018   0.380
34498SOL     OW 5390   9.237  14.055  13.418
34498SOL    HW1 5391   9.180  14.075  13.343
34498SOL    HW2 5392   9.177  14.032  13.489
34499SOL     OW 5393   6.618  13.207   5.123
34499SOL    HW1 5394   6.555  13.137   5.141
34499SOL    HW2 5395   6.581  13.284   5.167
34500SOL     OW 5396  10.894  10.704  12.948
34500SOL    HW1 5397  10.879  10.768  13.018
34500SOL    HW2 5398  10.954  10.748  12.888
34501SOL     OW 5399   2.151   8.850   4.956
34501SOL    HW1 5400   2.149   8.824   5.048
34501SOL    HW2 5401   2.213   8.789   4.915
34502SOL     OW 5402   9.035   0.272  13.977
34502SOL    HW1 5403   9.121   0.312  13.961
34502SOL    HW2 5404   9.039   0.242  14.068
34503SOL     OW 5405   6.074   9.861   1.626
34503SOL    HW1 5406   6.002   9.824   1.575
34503SOL    HW2 5407   6.052   9.841   1.717
34504SOL     OW 5408  13.075   6.645   4.581
34504SOL    HW1 5409  13.126   6.570   4.551
34504SOL    HW2 5410  13.087   6.645   4.676
34505SOL     OW 5411  12.298  13.284   6.240
34505SOL    HW1 5412  12.238  13.231   6.187
34505SOL    HW2 5413  12.363  13.317   6.179
34506SOL     OW 5414  12.463  10.304   5.751
34506SOL    HW1 5415  12.386  10.294   5.807
34506SOL    HW2 5416  12.537  10.305   5.812
34507SOL     OW 5417  10.630   5.497   0.446
34507SOL    HW1 5418  10.649   5.410   0.410
34507SOL    HW2 5419  10.643   5.487   0.540
34508SOL     OW 5420  12.442  12.445   3.881
34508SOL    HW1 5421  12.524  12.455   3.929
34508SOL    HW2 5422  12.375  12.477   3.941
34509SOL     OW 5423   7.523   6.376   2.998
34509SOL    HW1 5424   7.428   6.377   3.013
34509SOL    HW2 5425   7.561   6.392   3.084
34510SOL     OW 5426   4.203   4.180  14.149
34510SOL    HW1 5427   4.220   4.087  14.167
34510SOL    HW2 5428   4.115   4.182  14.112
34511SOL     OW 5429   3.892   6.632  11.440
34511SOL    HW1 5430   3.852   6.553  11.404
34511SOL    HW2 5431   3.952   6.661  11.371
34512SOL     OW 5432   5.100   1.814   0.197
34512SOL    HW1 5433   5.085   1.862   0.116
34512SOL    HW2 5434   5.156   1.872   0.249
34513SOL     OW 5435   3.448  11.810  12.498
34513SOL    HW1 5436   3.540  11.834  12.510
34513SOL    HW2 5437   3.436  11.812  12.403
34514SOL     OW 5438   8.918  13.869   5.870
34514SOL    HW1 5439   8.876  13.799   5.820
34514SOL    HW2 5440   8.884  13.859   5.959
34515SOL     OW 5441  10.463   5.433   3.364
34515SOL    HW1 5442  10.538   5.406   3.311
34515SOL    HW2 5443  10.391   5.378   3.332
34516SOL     OW 5444   2.552   3.472  13.013
34516SOL    HW1 5445   2.486   3.461  13.082
34516SOL    HW2 5446   2.630   3.501  13.060
34517SOL     OW 5447   2.861  10.003   2.950
34517SOL    HW1 5448   2.849   9.937   2.882
34517SOL    HW2 5449   2.956  10.002   2.967
34518SOL     OW 5450   8.615   1.933   1.835
34518SOL    HW1 5451   8.566   1.854   1.858
34518SOL    HW2 5452   8.691   1.901   1.785
34519SOL     OW 5453   2.822   5.463  14.538
34519SOL    HW1 5454   2.771   5.408  14.478
34519SOL    HW2 5455   2.849   5.404  14.608
34520SOL     OW 5456  11.751   1.948  13.236
34520SOL    HW1 5457  11.807   1.952  13.313
34520SOL    HW2 5458  11.718   2.038  13.226
34521SOL     OW 5459   8.756  12.002   4.171
34521SOL    HW1 5460   8.850  12.020   4.165
34521SOL    HW2 5461   8.744  11.920   4.123
34522SOL     OW 5462   4.586   0.024   0.482
34522SOL    HW1 5463   4.582  14.837   0.422
34522SOL    HW2 5464   4.494   0.051   0.493
34523SOL     OW 5465   5.268  11.865   2.901
34523SOL    HW1 5466   5.257  11.809   2.824
34523SOL    HW2 5467   5.192  11.846   2.956
34524SOL     OW 5468   5.146   8.055   1.663
34524SOL    HW1 5469   5.212   8.095   1.607
34524SOL    HW2 5470   5.078   8.122   1.672
34525SOL     OW 5471   5.778   2.903   6.233
34525SOL    HW1 5472   5.776   2.933   6.324
34525SOL    HW2 5473   5.750   2.812   6.238
34526SOL     OW 5474   5.146   2.118  10.162
34526SOL    HW1 5475   5.123   2.036  10.205
34526SOL    HW2 5476   5.112   2.108  10.072
34527SOL     OW 5477  14.815   3.071  11.083
34527SOL    HW1 5478  14.788   3.129  11.154
34527SOL    HW2 5479  14.824   3.129  11.007
34528SOL     OW 5480   7.618   2.850   8.658
34528SOL    HW1 5481   7.581   2.923   8.609
34528SOL    HW2 5482   7.677   2.891   8.721
34529SOL     OW 5483  10.987   9.468   1.676
34529SOL    HW1 5484  10.986   9.419   1.594
34529SOL    HW2 5485  10.986   9.400   1.744
34530SOL     OW 5486   9.447  13.118  13.167
34530SOL    HW1 5487   9.481  13.111  13.256
34530SOL    HW2 5488   9.404  13.034  13.152
34531SOL     OW 5489   3.517   4.370   2.950
34531SOL    HW1 5490   3.435   4.329   2.924
34531SOL    HW2 5491   3.491   4.447   3.002
34532SOL     OW 5492   8.753   6.636   3.729
34532SOL    HW1 5493   8.699   6.683   3.666
34532SOL    HW2 5494   8.702   6.558   3.752
34533SOL     OW 5495  13.249   1.840   3.134
34533SOL    HW1 5496  13.211   1.765   3.088
34533SOL    HW2 5497  13.341   1.841   3.106
34534SOL     OW 5498   6.757   8.594   2.561
34534SOL    HW1 5499   6.841   8.577   2.603
34534SOL    HW2 5500   6.775   8.590   2.467
34535SOL     OW 5501   0.604  11.118   9.347
34535SOL    HW1 5502   0.607  11.197   9.293
34535SOL    HW2 5503   0.646  11.051   9.294
34536SOL     OW 5504  11.230   0.246   8.880
34536SOL    HW1 5505  11.162   0.204   8.827
34536SOL    HW2 5506  11.266   0.176   8.933
34537SOL     OW 5507   5.377   3.265   6.293
34537SOL    HW1 5508   5.286   3.289   6.276
34537SOL    HW2 5509   5.372   3.207   6.369
34538SOL     OW 5510   2.198  10.821  11.548
34538SOL    HW1 5511   2.267  10.837  11.613
34538SOL    HW2 5512   2.185  10.726  11.550
34539SOL     OW 5513   7.870   5.262   0.769
34539SOL    HW1 5514   7.819   5.331   0.727
34539SOL    HW2 5515   7.904   5.303   0.849
34540SOL     OW 5516   6.917   0.016   0.150
34540SOL    HW1 5517   6.869  14.822   0.133
34540SOL    HW2 5518   6.900   0.070   0.073
34541SOL     OW 5519   3.424   9.774   6.829
34541SOL    HW1 5520   3.451   9.841   6.766
34541SOL    HW2 5521   3.336   9.749   6.800
34542SOL     OW 5522   1.041  10.540   9.065
34542SOL    HW1 5523   0.947  10.529   9.083
34542SOL    HW2 5524   1.053  10.502   8.978
34543SOL     OW 5525   0.382  12.136   1.344
34543SOL    HW1 5526   0.443  12.196   1.387
34543SOL    HW2 5527   0.297  12.157   1.382
34544SOL     OW 5528   0.853   7.504  12.377
34544SOL    HW1 5529   0.886   7.539  12.294
34544SOL    HW2 5530   0.785   7.442  12.352
34545SOL     OW 5531   6.552   8.680   9.479
34545SOL    HW1 5532   6.632   8.707   9.433
34545SOL    HW2 5533   6.498   8.759   9.483
34546SOL     OW 5534  12.410   7.558  11.311
34546SOL    HW1 5535  12.370   7.477  11.281
34546SOL    HW2 5536  12.400   7.618  11.237
34547SOL     OW 5537   6.265   8.996  12.441
34547SOL    HW1 5538   6.360   8.983  12.441
34547SOL    HW2 5539   6.253   9.087  12.469
34548SOL     OW 5540   4.831   0.995   3.525
34548SOL    HW1 5541   4.816   1.090   3.526
34548SOL    HW2 5542   4.781   0.965   3.449
34549SOL     OW 5543  11.180  13.957   8.767
34549SOL    HW1 5544  11.123  13.881   8.756
34549SOL    HW2 5545  11.122  14.024   8.804
34550SOL     OW 5546  11.922   5.245   5.058
34550SOL    HW1 5547  11.904   5.206   5.144
34550SOL    HW2 5548  11.853   5.311   5.047
34551SOL     OW 5549   5.825   1.258  10.010
34551SOL    HW1 5550   5.736   1.293  10.006
34551SOL    HW2 5551   5.850   1.269  10.102
34552SOL     OW 5552  13.250   8.387  11.914
34552SOL    HW1 5553  13.173   8.410  11.861
34552SOL    HW2 5554  13.316   8.452  11.889
34553SOL     OW 5555  14.157   0.294   9.380
34553SOL    HW1 5556  14.222   0.274   9.448
34553SOL    HW2 5557  14.096   0.354   9.423
34554SOL     OW 5558   0.281  13.507   3.772
34554SOL    HW1 5559   0.261  13.593   3.810
34554SOL    HW2 5560   0.365  13.482   3.811
34555SOL     OW 5561   6.148   8.257  10.349
34555SOL    HW1 5562   6.235   8.289  10.325
34555SOL    HW2 5563   6.090   8.332  10.334
34556SOL     OW 5564   8.021  14.066   6.211
34556SOL    HW1 5565   7.931  14.094   6.229
34556SOL    HW2 5566   8.053  14.127   6.145
34557SOL     OW 5567   5.695   5.322   6.709
34557SOL    HW1 5568   5.603   5.336   6.689
34557SOL    HW2 5569   5.698   5.321   6.805
34558SOL     OW 5570  13.607   9.074  10.734
34558SOL    HW1 5571  13.699   9.062  10.756
34558SOL    HW2 5572  13.592   9.014  10.661
34559SOL     OW 5573   3.067  14.125   3.791
34559SOL    HW1 5574   3.042  14.080   3.871
34559SOL    HW2 5575   2.999  14.190   3.777
34560SOL     OW 5576   2.370   5.333  12.360
34560SOL    HW1 5577   2.360   5.240  12.378
34560SOL    HW2 5578   2.330   5.345  12.274
34561SOL     OW 5579   6.124  11.310  10.755
34561SOL    HW1 5580   6.168  11.383  10.713
34561SOL    HW2 5581   6.038  11.344  10.779
34562SOL     OW 5582   0.109   4.295  12.027
34562SOL    HW1 5583   0.041   4.357  12.052
34562SOL    HW2 5584   0.183   4.350  12.001
34563SOL     OW 5585   8.726   7.447  14.647
34563SOL    HW1 5586   8.815   7.448  14.683
34563SOL    HW2 5587   8.734   7.490  14.562
34564SOL     OW 5588   4.632   6.184  11.456
34564SOL    HW1 5589   4.542   6.155  11.444
34564SOL    HW2 5590   4.634   6.272  11.417
34565SOL     OW 5591   1.940   1.739   2.589
34565SOL    HW1 5592   2.001   1.726   2.517
34565SOL    HW2 5593   1.957   1.665   2.648
34566SOL     OW 5594   0.451   4.434   8.072
34566SOL    HW1 5595   0.387   4.505   8.077
34566SOL    HW2 5596   0.486   4.426   8.160
34567SOL     OW 5597   9.471   1.646  11.423
34567SOL    HW1 5598   9.514   1.596  11.355
34567SOL    HW2 5599   9.534   1.650  11.495
34568SOL     OW 5600  12.589   2.816   9.315
34568SOL    HW1 5601  12.527   2.744   9.319
34568SOL    HW2 5602  12.613   2.832   9.407
34569SOL     OW 5603   3.761   1.676  10.136
34569SOL    HW1 5604   3.846   1.717  10.119
34569SOL    HW2 5605   3.775   1.623  10.214
34570SOL     OW 5606  14.486   1.506  13.850
34570SOL    HW1 5607  14.518   1.567  13.783
34570SOL    HW2 5608  14.480   1.422  13.803
34571SOL     OW 5609  10.400   4.093  12.028
34571SOL    HW1 5610  10.404   4.026  11.960
34571SOL    HW2 5611  10.316   4.078  12.071
34572SOL     OW 5612  11.260   2.202   3.151
34572SOL    HW1 5613  11.240   2.288   3.114
34572SOL    HW2 5614  11.302   2.220   3.235
34573SOL     OW 5615  11.929   4.591   6.982
34573SOL    HW1 5616  11.861   4.536   7.021
34573SOL    HW2 5617  11.882   4.669   6.952
34574SOL     OW 5618  12.015   6.098  11.658
34574SOL    HW1 5619  11.921   6.115  11.670
34574SOL    HW2 5620  12.056   6.136  11.735
34575SOL     OW 5621  10.423  11.397   7.138
34575SOL    HW1 5622  10.516  11.377   7.147
34575SOL    HW2 5623  10.400  11.441   7.220
34576SOL     OW 5624   2.098   4.056  12.481
34576SOL    HW1 5625   2.144   4.049  12.565
34576SOL    HW2 5626   2.152   4.115  12.429
34577SOL     OW 5627   5.124   2.590   9.711
34577SOL    HW1 5628   5.211   2.552   9.699
34577SOL    HW2 5629   5.073   2.520   9.751
34578SOL     OW 5630   8.587   6.375  11.300
34578SOL    HW1 5631   8.676   6.397  11.327
34578SOL    HW2 5632   8.575   6.420  11.217
34579SOL     OW 5633  13.280   1.886   9.971
34579SOL    HW1 5634  13.337   1.963   9.976
34579SOL    HW2 5635  13.317   1.833   9.900
34580SOL     OW 5636   0.382  12.851   2.781
34580SOL    HW1 5637   0.382  12.839   2.876
34580SOL    HW2 5638   0.403  12.765   2.746
34581SOL     OW 5639   8.479   3.008  11.933
34581SOL    HW1 5640   8.563   3.038  11.968
34581SOL    HW2 5641   8.495   2.996  11.839
34582SOL     OW 5642  13.924  14.002  10.723
34582SOL    HW1 5643  13.887  14.007  10.635
34582SOL    HW2 5644  14.001  14.059  10.721
34583SOL     OW 5645   0.395  13.497  12.969
34583SOL    HW1 5646   0.455  13.571  12.959
34583SOL    HW2 5647   0.451  13.423  12.992
34584SOL     OW 5648   2.094   7.133  10.089
34584SOL    HW1 5649   2.037   7.061  10.061
34584SOL    HW2 5650   2.056   7.164  10.171
34585SOL     OW 5651   7.927  12.246  11.711
34585SOL    HW1 5652   7.894  12.333  11.686
34585SOL    HW2 5653   7.851  12.201  11.748
34586SOL     OW 5654   2.008   0.837  12.500
34586SOL    HW1 5655   2.014   0.895  12.424
34586SOL    HW2 5656   2.067   0.765  12.480
34587SOL     OW 5657   3.337   1.334   4.298
34587SOL    HW1 5658   3.375   1.271   4.360
34587SOL    HW2 5659   3.324   1.284   4.218
34588SOL     OW 5660  14.676   2.044  11.039
34588SOL    HW1 5661  14.602   1.987  11.018
34588SOL    HW2 5662  14.734   2.038  10.963
34589SOL     OW 5663   2.279  13.750   2.433
34589SOL    HW1 5664   2.235  13.804   2.500
34589SOL    HW2 5665   2.372  13.755   2.457
34590SOL     OW 5666   3.681   9.283   3.564
34590SOL    HW1 5667   3.603   9.336   3.580
34590SOL    HW2 5668   3.707   9.306   3.475
34591SOL     OW 5669   7.142   1.030   3.412
34591SOL    HW1 5670   7.164   1.013   3.504
34591SOL    HW2 5671   7.203   1.098   3.385
34592SOL     OW 5672   2.120   2.602  10.764
34592SOL    HW1 5673   2.081   2.655  10.833
34592SOL    HW2 5674   2.103   2.650  10.683
34593SOL     OW 5675   7.439  11.269   6.684
34593SOL    HW1 5676   7.436  11.191   6.739
34593SOL    HW2 5677   7.495  11.331   6.732
34594SOL     OW 5678  11.608   3.428  10.743
34594SOL    HW1 5679  11.558   3.382  10.675
34594SOL    HW2 5680  11.691   3.450  10.700
34595SOL     OW 5681   8.764  11.728   3.721
34595SOL    HW1 5682   8.812  11.746   3.801
34595SOL    HW2 5683   8.709  11.805   3.708
34596SOL     OW 5684   8.581   8.594  13.444
34596SOL    HW1 5685   8.546   8.632  13.525
34596SOL    HW2 5686   8.660   8.547  13.472
34597SOL     OW 5687   6.365   5.992   0.923
34597SOL    HW1 5688   6.419   5.917   0.897
34597SOL    HW2 5689   6.414   6.069   0.895
34598SOL     OW 5690   3.178   4.497  11.806
34598SOL    HW1 5691   3.242   4.552  11.853
34598SOL    HW2 5692   3.103   4.554  11.793
34599SOL     OW 5693   4.011   8.722   5.699
34599SOL    HW1 5694   4.031   8.639   5.743
34599SOL    HW2 5695   4.055   8.715   5.614
34600SOL     OW 5696   4.869   6.001   2.046
34600SOL    HW1 5697   4.885   6.095   2.053
34600SOL    HW2 5698   4.953   5.961   2.069
34601SOL     OW 5699   0.952  12.136  12.963
34601SOL    HW1 5700   1.029  12.085  12.990
34601SOL    HW2 5701   0.984  12.192  12.893
34602SOL     OW 5702   4.946  11.877  12.089
34602SOL    HW1 5703   4.890  11.841  12.157
34602SOL    HW2 5704   5.035  11.863  12.121
34603SOL     OW 5705  10.612   7.120   2.171
34603SOL    HW1 5706  10.702   7.100   2.193
34603SOL    HW2 5707  10.565   7.118   2.254
34604SOL     OW 5708   2.004   4.144   2.762
34604SOL    HW1 5709   2.032   4.052   2.754
34604SOL    HW2 5710   1.946   4.157   2.687
34605SOL     OW 5711   7.494   6.137   0.137
34605SOL    HW1 5712   7.551   6.174   0.070
34605SOL    HW2 5713   7.554   6.095   0.200
34606SOL     OW 5714  11.231   0.428   9.122
34606SOL    HW1 5715  11.289   0.437   9.046
34606SOL    HW2 5716  11.165   0.496   9.110
34607SOL     OW 5717  14.218   7.122   7.007
34607SOL    HW1 5718  14.133   7.162   7.024
34607SOL    HW2 5719  14.239   7.075   7.088
34608SOL     OW 5720  11.057   1.022   6.571
34608SOL    HW1 5721  11.014   1.011   6.656
34608SOL    HW2 5722  11.001   0.976   6.509
34609SOL     OW 5723   8.629  12.965   0.778
34609SOL    HW1 5724   8.655  13.048   0.817
34609SOL    HW2 5725   8.700  12.904   0.799
34610SOL     OW 5726   1.607  10.235   2.609
34610SOL    HW1 5727   1.696  10.217   2.579
34610SOL    HW2 5728   1.614  10.315   2.661
34611SOL     OW 5729   8.627  13.860  13.853
34611SOL    HW1 5730   8.598  13.873  13.762
34611SOL    HW2 5731   8.564  13.797  13.889
34612SOL     OW 5732  14.771   1.255   8.578
34612SOL    HW1 5733  14.819   1.278   8.499
34612SOL    HW2 5734  14.803   1.316   8.644
34613SOL     OW 5735   1.204   9.407   6.426
34613SOL    HW1 5736   1.176   9.361   6.347
34613SOL    HW2 5737   1.145   9.376   6.494
34614SOL     OW 5738   8.074   7.198   9.309
34614SOL    HW1 5739   8.092   7.283   9.350
34614SOL    HW2 5740   8.013   7.218   9.238
34615SOL     OW 5741   9.593  10.172  14.831
34615SOL    HW1 5742   9.571  10.179   0.037
34615SOL    HW2 5743   9.663  10.107  14.828
34616SOL     OW 5744   4.022   3.251   6.492
34616SOL    HW1 5745   3.974   3.333   6.484
34616SOL    HW2 5746   3.990   3.197   6.420
34617SOL     OW 5747   2.395  13.440   1.300
34617SOL    HW1 5748   2.404  13.419   1.207
34617SOL    HW2 5749   2.485  13.450   1.331
34618SOL     OW 5750   5.797   0.398   5.590
34618SOL    HW1 5751   5.752   0.351   5.519
34618SOL    HW2 5752   5.735   0.395   5.663
34619SOL     OW 5753  10.780  12.505   5.280
34619SOL    HW1 5754  10.752  12.462   5.361
34619SOL    HW2 5755  10.714  12.573   5.266
34620SOL     OW 5756  13.427  12.399  11.308
34620SOL    HW1 5757  13.485  12.323  11.312
34620SOL    HW2 5758  13.478  12.470  11.348
34621SOL     OW 5759   4.782  13.363   4.976
34621SOL    HW1 5760   4.848  13.294   4.981
34621SOL    HW2 5761   4.698  13.317   4.985
34622SOL     OW 5762  12.931  14.665   8.430
34622SOL    HW1 5763  12.973  14.739   8.387
34622SOL    HW2 5764  12.982  14.651   8.509
34623SOL     OW 5765  10.103   1.101   0.796
34623SOL    HW1 5766  10.183   1.049   0.783
34623SOL    HW2 5767  10.050   1.083   0.719
34624SOL     OW 5768   7.909   0.284   5.052
34624SOL    HW1 5769   7.889   0.300   5.145
34624SOL    HW2 5770   7.935   0.370   5.019
34625SOL     OW 5771   8.507   2.525   3.004
34625SOL    HW1 5772   8.436   2.529   3.068
34625SOL    HW2 5773   8.524   2.616   2.981
34626SOL     OW 5774   3.368   4.659   3.072
34626SOL    HW1 5775   3.371   4.721   3.146
34626SOL    HW2 5776   3.280   4.621   3.077
34627SOL     OW 5777  10.356   6.212   3.365
34627SOL    HW1 5778  10.424   6.189   3.428
34627SOL    HW2 5779  10.292   6.261   3.416
34628SOL     OW 5780  12.960   0.536   0.889
34628SOL    HW1 5781  13.000   0.504   0.808
34628SOL    HW2 5782  12.889   0.593   0.860
34629SOL     OW 5783  12.998   0.067   9.124
34629SOL    HW1 5784  12.966   0.087   9.036
34629SOL    HW2 5785  12.928   0.017   9.166
34630SOL     OW 5786   5.855   0.532   4.987
34630SOL    HW1 5787   5.934   0.507   5.035
34630SOL    HW2 5788   5.797   0.456   4.992
34631SOL     OW 5789   8.376   7.500   9.288
34631SOL    HW1 5790   8.470   7.491   9.301
34631SOL    HW2 5791   8.365   7.511   9.194
34632SOL     OW 5792   3.066  11.529   1.728
34632SOL    HW1 5793   2.986  11.548   1.679
34632SOL    HW2 5794   3.038  11.526   1.819
34633SOL     OW 5795  11.039  14.186   2.830
34633SOL    HW1 5796  11.126  14.206   2.865
34633SOL    HW2 5797  11.004  14.271   2.804
34634SOL     OW 5798   3.496   5.048   7.805
34634SOL    HW1 5799   3.484   5.071   7.897
34634SOL    HW2 5800   3.521   5.129   7.762
34635SOL     OW 5801   6.480   5.683   2.318
34635SOL    HW1 5802   6.532   5.611   2.354
34635SOL    HW2 5803   6.440   5.724   2.395
34636SOL     OW 5804   6.349  14.366   0.701
34636SOL    HW1 5805   6.310  14.393   0.784
34636SOL    HW2 5806   6.362  14.272   0.710
34637SOL     OW 5807   1.066   3.411   1.282
34637SOL    HW1 5808   0.985   3.442   1.321
34637SOL    HW2 5809   1.132   3.422   1.350
34638SOL     OW 5810  12.683  12.225   3.913
34638SOL    HW1 5811  12.664  12.160   3.980
34638SOL    HW2 5812  12.601  12.234   3.865
34639SOL     OW 5813   4.127   5.058  12.106
34639SOL    HW1 5814   4.041   5.023  12.081
34639SOL    HW2 5815   4.173   5.070  12.023
34640SOL     OW 5816  10.374   8.688  12.197
34640SOL    HW1 5817  10.316   8.614  12.217
34640SOL    HW2 5818  10.350   8.712  12.107
34641SOL     OW 5819   3.663  10.405   3.252
34641SOL    HW1 5820   3.607  10.479   3.230
34641SOL    HW2 5821   3.695  10.373   3.168
34642SOL     OW 5822   5.581   5.691   3.594
34642SOL    HW1 5823   5.666   5.700   3.637
34642SOL    HW2 5824   5.592   5.737   3.510
34643SOL     OW 5825  13.260   2.299  14.537
34643SOL    HW1 5826  13.229   2.254  14.458
34643SOL    HW2 5827  13.238   2.391  14.522
34644SOL     OW 5828   8.609   2.020   8.741
34644SOL    HW1 5829   8.634   1.980   8.658
34644SOL    HW2 5830   8.563   2.100   8.717
34645SOL     OW 5831   3.298   9.324  11.518
34645SOL    HW1 5832   3.291   9.273  11.437
34645SOL    HW2 5833   3.259   9.408  11.497
34646SOL     OW 5834  11.727   8.849   7.724
34646SOL    HW1 5835  11.664   8.783   7.692
34646SOL    HW2 5836  11.791   8.857   7.653
34647SOL     OW 5837  13.474  14.474   6.141
34647SOL    HW1 5838  13.520  14.418   6.204
34647SOL    HW2 5839  13.382  14.467   6.166
34648SOL     OW 5840  10.954   7.463  11.683
34648SOL    HW1 5841  11.039   7.508  11.685
34648SOL    HW2 5842  10.976   7.371  11.671
34649SOL     OW 5843   3.668  14.861   6.083
34649SOL    HW1 5844   3.663  14.770   6.052
34649SOL    HW2 5845   3.742   0.011   6.034
34650SOL     OW 5846   3.668   5.705   7.436
34650SOL    HW1 5847   3.656   5.800   7.440
34650SOL    HW2 5848   3.761   5.693   7.420
34651SOL     OW 5849   9.454  10.668   6.245
34651SOL    HW1 5850   9.444  10.629   6.158
34651SOL    HW2 5851   9.540  10.709   6.244
34652SOL     OW 5852   3.819   1.392   6.527
34652SOL    HW1 5853   3.811   1.299   6.506
34652SOL    HW2 5854   3.909   1.414   6.502
34653SOL     OW 5855   3.385   3.803   5.461
34653SOL    HW1 5856   3.404   3.794   5.554
34653SOL    HW2 5857   3.459   3.853   5.426
34654SOL     OW 5858   8.445   0.161   5.580
34654SOL    HW1 5859   8.351   0.180   5.583
34654SOL    HW2 5860   8.485   0.230   5.632
34655SOL     OW 5861   8.913   7.427   9.626
34655SOL    HW1 5862   8.876   7.484   9.693
34655SOL    HW2 5863   8.924   7.343   9.669
34656SOL     OW 5864   6.098   3.246   5.778
34656SOL    HW1 5865   6.067   3.303   5.707
34656SOL    HW2 5866   6.091   3.301   5.857
34657SOL     OW 5867   3.579   7.299   6.616
34657SOL    HW1 5868   3.648   7.349   6.572
34657SOL    HW2 5869   3.617   7.272   6.699
34658SOL     OW 5870  13.705   7.716  12.431
34658SOL    HW1 5871  13.689   7.808  12.408
34658SOL    HW2 5872  13.661   7.704  12.515
34659SOL     OW 5873   7.069   2.775  14.167
34659SOL    HW1 5874   7.160   2.758  14.187
34659SOL    HW2 5875   7.042   2.701  14.112
34660SOL     OW 5876   3.904  14.652   1.495
34660SOL    HW1 5877   3.998  14.666   1.479
34660SOL    HW2 5878   3.866  14.647   1.407
34661SOL     OW 5879   7.546  12.862   8.350
34661SOL    HW1 5880   7.641  12.852   8.342
34661SOL    HW2 5881   7.533  12.884   8.443
34662SOL     OW 5882   6.901   2.913   0.632
34662SOL    HW1 5883   6.863   2.999   0.616
34662SOL    HW2 5884   6.996   2.929   0.633
34663SOL     OW 5885   6.920  11.039   2.995
34663SOL    HW1 5886   6.939  10.962   2.940
34663SOL    HW2 5887   6.879  11.002   3.073
34664SOL     OW 5888   8.526   7.283   6.337
34664SOL    HW1 5889   8.530   7.282   6.242
34664SOL    HW2 5890   8.507   7.374   6.359
34665SOL     OW 5891   4.201   9.052   7.086
34665SOL    HW1 5892   4.125   9.046   7.144
34665SOL    HW2 5893   4.245   8.967   7.095
34666SOL     OW 5894   7.244  11.579   1.127
34666SOL    HW1 5895   7.232  11.484   1.129
34666SOL    HW2 5896   7.164  11.612   1.086
34667SOL     OW 5897   3.580   4.009   1.126
34667SOL    HW1 5898   3.539   3.941   1.072
34667SOL    HW2 5899   3.556   4.091   1.083
34668SOL     OW 5900   9.074   4.778   6.028
34668SOL    HW1 5901   8.993   4.744   6.066
34668SOL    HW2 5902   9.048   4.861   5.988
34669SOL     OW 5903  13.176  11.962  12.822
34669SOL    HW1 5904  13.235  11.956  12.898
34669SOL    HW2 5905  13.164  11.871  12.794
34670SOL     OW 5906   8.339   2.414  11.637
34670SOL    HW1 5907   8.419   2.466  11.634
34670SOL    HW2 5908   8.287   2.448  11.564
34671SOL     OW 5909   4.276   4.659  13.808
34671SOL    HW1 5910   4.254   4.597  13.738
34671SOL    HW2 5911   4.313   4.735  13.762
34672SOL     OW 5912  12.719  11.547   0.577
34672SOL    HW1 5913  12.695  11.463   0.538
34672SOL    HW2 5914  12.809  11.535   0.605
34673SOL     OW 5915   4.156   9.951  11.287
34673SOL    HW1 5916   4.131   9.996  11.206
34673SOL    HW2 5917   4.242   9.987  11.309
34674SOL     OW 5918   3.589   3.437   1.383
34674SOL    HW1 5919   3.627   3.458   1.468
34674SOL    HW2 5920   3.581   3.522   1.338
34675SOL     OW 5921   5.842   4.345   9.119
34675SOL    HW1 5922   5.767   4.385   9.163
34675SOL    HW2 5923   5.841   4.382   9.031
34676SOL     OW 5924  10.271   6.809   0.642
34676SOL    HW1 5925  10.264   6.776   0.552
34676SOL    HW2 5926  10.353   6.859   0.643
34677SOL     OW 5927   0.469   4.941   8.150
34677SOL    HW1 5928   0.537   5.007   8.135
34677SOL    HW2 5929   0.415   4.979   8.219
34678SOL     OW 5930   0.669   1.486  14.192
34678SOL    HW1 5931   0.687   1.579  14.177
34678SOL    HW2 5932   0.703   1.442  14.114
34679SOL     OW 5933  14.171   3.207   3.834
34679SOL    HW1 5934  14.191   3.288   3.880
34679SOL    HW2 5935  14.254   3.180   3.795
34680SOL     OW 5936   9.022   7.058   3.485
34680SOL    HW1 5937   9.041   7.150   3.504
34680SOL    HW2 5938   9.087   7.033   3.420
34681SOL     OW 5939  14.041   9.485   4.527
34681SOL    HW1 5940  13.998   9.484   4.442
34681SOL    HW2 5941  14.131   9.458   4.509
34682SOL     OW 5942   2.995   2.871  12.756
34682SOL    HW1 5943   2.953   2.825  12.683
34682SOL    HW2 5944   3.050   2.937  12.714
34683SOL     OW 5945   3.970  14.416  14.836
34683SOL    HW1 5946   3.957  14.363   0.027
34683SOL    HW2 5947   3.893  14.399  14.782
34684SOL     OW 5948   3.360   2.695   3.313
34684SOL    HW1 5949   3.317   2.775   3.344
34684SOL    HW2 5950   3.301   2.624   3.341
34685SOL     OW 5951  13.256   4.285   4.770
34685SOL    HW1 5952  13.340   4.273   4.725
34685SOL    HW2 5953  13.274   4.264   4.862
34686SOL     OW 5954   2.482  12.207  14.516
34686SOL    HW1 5955   2.453  12.234  14.603
34686SOL    HW2 5956   2.546  12.273  14.491
34687SOL     OW 5957   7.546   5.287  14.629
34687SOL    HW1 5958   7.545   5.370  14.582
34687SOL    HW2 5959   7.484   5.300  14.701
34688SOL     OW 5960   2.031   6.564   2.188
34688SOL    HW1 5961   2.015   6.473   2.164
34688SOL    HW2 5962   1.970   6.614   2.134
34689SOL     OW 5963   5.872   9.027   9.029
34689SOL    HW1 5964   5.872   9.100   8.967
34689SOL    HW2 5965   5.899   9.067   9.112
34690SOL     OW 5966  14.029   4.322  10.548
34690SOL    HW1 5967  13.970   4.287  10.614
34690SOL    HW2 5968  14.117   4.301  10.581
34691SOL     OW 5969   3.604   7.186   1.562
34691SOL    HW1 5970   3.637   7.138   1.637
34691SOL    HW2 5971   3.566   7.119   1.505
34692SOL     OW 5972   3.206   9.706   8.583
34692SOL    HW1 5973   3.143   9.639   8.610
34692SOL    HW2 5974   3.255   9.666   8.511
34693SOL     OW 5975   4.956   1.930   8.871
34693SOL    HW1 5976   5.031   1.960   8.819
34693SOL    HW2 5977   4.995   1.890   8.948
34694SOL     OW 5978   3.738   5.221   1.208
34694SOL    HW1 5979   3.734   5.302   1.259
34694SOL    HW2 5980   3.647   5.191   1.203
34695SOL     OW 5981   3.920  12.533   1.257
34695SOL    HW1 5982   3.868  12.586   1.197
34695SOL    HW2 5983   3.894  12.563   1.344
34696SOL     OW 5984   3.732  13.741  13.073
34696SOL    HW1 5985   3.654  13.686  13.070
34696SOL    HW2 5986   3.714  13.804  13.143
34697SOL     OW 5987  14.074   7.181   8.328
34697SOL    HW1 5988  14.048   7.205   8.239
34697SOL    HW2 5989  14.165   7.211   8.335
34698SOL     OW 5990  13.358   3.416   2.543
34698SOL    HW1 5991  13.428   3.479   2.560
34698SOL    HW2 5992  13.394   3.332   2.571
34699SOL     OW 5993   6.035   2.490  10.531
34699SOL    HW1 5994   6.005   2.408  10.570
34699SOL    HW2 5995   6.120   2.470  10.492
34700SOL     OW 5996   4.994   7.145   3.264
34700SOL    HW1 5997   4.900   7.143   3.285
34700SOL    HW2 5998   5.000   7.204   3.189
34701SOL     OW 5999   0.028  12.837   9.812
34701SOL    HW1 6000   0.113  12.816   9.849
34701SOL    HW2 6001  14.853  12.788   9.866
34702SOL     OW 6002   5.717   1.063   3.077
34702SOL    HW1 6003   5.790   1.014   3.040
34702SOL    HW2 6004   5.753   1.104   3.156
34703SOL     OW 6005   8.315  14.089   0.095
34703SOL    HW1 6006   8.370  14.015   0.068
34703SOL    HW2 6007   8.337  14.104   0.186
34704SOL     OW 6008  12.236   6.604  10.219
34704SOL    HW1 6009  12.147   6.637  10.214
34704SOL    HW2 6010  12.231   6.514  10.187
34705SOL     OW 6011  14.176  10.898  13.660
34705SOL    HW1 6012  14.100  10.897  13.719
34705SOL    HW2 6013  14.157  10.830  13.595
34706SOL     OW 6014   5.850   8.803  10.123
34706SOL    HW1 6015   5.781   8.838  10.180
34706SOL    HW2 6016   5.930   8.844  10.154
34707SOL     OW 6017   7.031   5.735   5.453
34707SOL    HW1 6018   7.042   5.827   5.428
34707SOL    HW2 6019   7.120   5.699   5.449
34708SOL     OW 6020   3.071  14.002  12.781
34708SOL    HW1 6021   3.160  14.036  12.792
34708SOL    HW2 6022   3.014  14.077  12.798
34709SOL     OW 6023   9.258  10.532   0.521
34709SOL    HW1 6024   9.285  10.460   0.577
34709SOL    HW2 6025   9.182  10.570   0.565
34710SOL     OW 6026   0.292   6.058  10.180
34710SOL    HW1 6027   0.384   6.032  10.188
34710SOL    HW2 6028   0.243   5.977  10.189
34711SOL     OW 6029   5.347   8.670   6.581
34711SOL    HW1 6030   5.354   8.744   6.642
34711SOL    HW2 6031   5.434   8.664   6.541
34712SOL     OW 6032  14.525   2.329   2.908
34712SOL    HW1 6033  14.502   2.407   2.958
34712SOL    HW2 6034  14.616   2.345   2.880
34713SOL     OW 6035   0.594   7.175  12.622
34713SOL    HW1 6036   0.550   7.093  12.601
34713SOL    HW2 6037   0.625   7.208  12.538
34714SOL     OW 6038   8.091   4.292  11.625
34714SOL    HW1 6039   8.136   4.210  11.647
34714SOL    HW2 6040   8.004   4.265  11.595
34715SOL     OW 6041  10.844   6.594   2.912
34715SOL    HW1 6042  10.917   6.636   2.958
34715SOL    HW2 6043  10.885   6.526   2.858
34716SOL     OW 6044   2.913  12.234  14.541
34716SOL    HW1 6045   2.953  12.154  14.506
34716SOL    HW2 6046   2.979  12.302  14.529
34717SOL     OW 6047   8.184   1.919   8.046
34717SOL    HW1 6048   8.098   1.920   8.006
34717SOL    HW2 6049   8.185   1.996   8.103
34718SOL     OW 6050  13.216   5.868   2.640
34718SOL    HW1 6051  13.274   5.870   2.716
34718SOL    HW2 6052  13.182   5.779   2.637
34719SOL     OW 6053   3.857  12.141   0.192
34719SOL    HW1 6054   3.945  12.148   0.228
34719SOL    HW2 6055   3.844  12.223   0.144
34720SOL     OW 6056   9.973   2.085  11.652
34720SOL    HW1 6057   9.954   2.165  11.604
34720SOL    HW2 6058  10.000   2.114  11.739
34721SOL     OW 6059   9.415   6.964   6.226
34721SOL    HW1 6060   9.338   6.987   6.277
34721SOL    HW2 6061   9.477   7.036   6.242
34722SOL     OW 6062   6.393   6.128   6.795
34722SOL    HW1 6063   6.407   6.216   6.832
34722SOL    HW2 6064   6.306   6.103   6.826
34723SOL     OW 6065  14.332   5.153   1.669
34723SOL    HW1 6066  14.314   5.123   1.758
34723SOL    HW2 6067  14.310   5.078   1.614
34724SOL     OW 6068   7.085  10.815  10.946
34724SOL    HW1 6069   7.044  10.858  10.871
34724SOL    HW2 6070   7.075  10.721  10.927
34725SOL     OW 6071   1.794   3.866   0.438
34725SOL    HW1 6072   1.725   3.832   0.495
34725SOL    HW2 6073   1.870   3.875   0.496
34726SOL     OW 6074   5.070   4.675   5.609
34726SOL    HW1 6075   5.161   4.657   5.634
34726SOL    HW2 6076   5.030   4.588   5.600
34727SOL     OW 6077   3.623  11.192   9.991
34727SOL    HW1 6078   3.715  11.193  10.019
34727SOL    HW2 6079   3.574  11.229  10.064
34728SOL     OW 6080   8.478  11.683   2.861
34728SOL    HW1 6081   8.562  11.728   2.874
34728SOL    HW2 6082   8.427  11.744   2.808
34729SOL     OW 6083   2.718  10.921   2.075
34729SOL    HW1 6084   2.625  10.942   2.080
34729SOL    HW2 6085   2.757  10.965   2.151
34730SOL     OW 6086  13.126   0.730   7.878
34730SOL    HW1 6087  13.218   0.757   7.879
34730SOL    HW2 6088  13.122   0.657   7.940
34731SOL     OW 6089  11.559  12.602  14.514
34731SOL    HW1 6090  11.535  12.694  14.502
34731SOL    HW2 6091  11.512  12.576  14.594
34732SOL     OW 6092   3.565   2.980   8.621
34732SOL    HW1 6093   3.481   3.022   8.639
34732SOL    HW2 6094   3.576   2.987   8.526
34733SOL     OW 6095   8.898   1.334   6.017
34733SOL    HW1 6096   8.875   1.382   6.096
34733SOL    HW2 6097   8.926   1.247   6.048
34734SOL     OW 6098  13.638   7.485  11.275
34734SOL    HW1 6099  13.700   7.504  11.345
34734SOL    HW2 6100  13.676   7.525  11.197
34735SOL     OW 6101   7.320  13.871   4.275
34735SOL    HW1 6102   7.376  13.858   4.198
34735SOL    HW2 6103   7.237  13.829   4.251
34736SOL     OW 6104   9.070  13.059  12.984
34736SOL    HW1 6105   9.130  13.026  13.052
34736SOL    HW2 6106   9.005  12.989  12.975
34737SOL     OW 6107   5.075  14.427   7.417
34737SOL    HW1 6108   5.024  14.398   7.342
34737SOL    HW2 6109   5.147  14.364   7.422
34738SOL     OW 6110  10.371   5.094   5.677
34738SOL    HW1 6111  10.288   5.094   5.628
34738SOL    HW2 6112  10.381   5.185   5.705
34739SOL     OW 6113   7.720  13.923  14.195
34739SOL    HW1 6114   7.756  14.010  14.211
34739SOL    HW2 6115   7.678  13.898  14.277
34740SOL     OW 6116  11.517  13.130  14.194
34740SOL    HW1 6117  11.440  13.145  14.139
34740SOL    HW2 6118  11.496  13.051  14.243
34741SOL     OW 6119  14.430   9.883   7.627
34741SOL    HW1 6120  14.407   9.791   7.623
34741SOL    HW2 6121  14.486   9.891   7.705
34742SOL     OW 6122   8.688   4.687   7.168
34742SOL    HW1 6123   8.647   4.735   7.239
34742SOL    HW2 6124   8.657   4.597   7.178
34743SOL     OW 6125   4.391  10.223   5.653
34743SOL    HW1 6126   4.330  10.255   5.719
34743SOL    HW2 6127   4.465  10.283   5.659
34744SOL     OW 6128   9.521   7.234  10.686
34744SOL    HW1 6129   9.535   7.280  10.603
34744SOL    HW2 6130   9.426   7.237  10.699
34745SOL     OW 6131   0.991  10.463   8.550
34745SOL    HW1 6132   0.982  10.367   8.547
34745SOL    HW2 6133   1.045  10.484   8.474
34746SOL     OW 6134   0.254   3.191   1.849
34746SOL    HW1 6135   0.228   3.198   1.941
34746SOL    HW2 6136   0.270   3.282   1.822
34747SOL     OW 6137   1.567   7.123   3.319
34747SOL    HW1 6138   1.620   7.093   3.393
34747SOL    HW2 6139   1.554   7.217   3.334
34748SOL     OW 6140   8.592  11.852   1.619
34748SOL    HW1 6141   8.543  11.782   1.662
34748SOL    HW2 6142   8.678  11.814   1.602
34749SOL     OW 6143   9.489   7.551  11.700
34749SOL    HW1 6144   9.529   7.609  11.766
34749SOL    HW2 6145   9.495   7.464  11.739
34750SOL     OW 6146   8.526   9.202   7.777
34750SOL    HW1 6147   8.568   9.285   7.799
34750SOL    HW2 6148   8.510   9.207   7.683
34751SOL     OW 6149   3.294  13.300   8.353
34751SOL    HW1 6150   3.214  13.264   8.390
34751SOL    HW2 6151   3.340  13.340   8.428
34752SOL     OW 6152   7.252   5.304  13.509
34752SOL    HW1 6153   7.315   5.288  13.580
34752SOL    HW2 6154   7.302   5.291  13.429
34753SOL     OW 6155  10.272   5.946   2.525
34753SOL    HW1 6156  10.249   5.903   2.608
34753SOL    HW2 6157  10.188   5.973   2.488
34754SOL     OW 6158   7.068   6.726   2.193
34754SOL    HW1 6159   7.116   6.771   2.263
34754SOL    HW2 6160   7.025   6.796   2.144
34755SOL     OW 6161   7.895   7.301   1.909
34755SOL    HW1 6162   7.816   7.270   1.865
34755SOL    HW2 6163   7.873   7.390   1.937
34756SOL     OW 6164   8.000   0.207   5.681
34756SOL    HW1 6165   8.050   0.137   5.638
34756SOL    HW2 6166   8.066   0.268   5.712
34757SOL     OW 6167   0.970  13.085  12.901
34757SOL    HW1 6168   0.881  13.051  12.908
34757SOL    HW2 6169   0.959  13.180  12.898
34758SOL     OW 6170   9.004   7.801   5.186
34758SOL    HW1 6171   9.006   7.870   5.121
34758SOL    HW2 6172   8.989   7.721   5.136
34759SOL     OW 6173   0.726   7.819   7.249
34759SOL    HW1 6174   0.651   7.825   7.189
34759SOL    HW2 6175   0.772   7.740   7.223
34760SOL     OW 6176   6.347   7.065  12.776
34760SOL    HW1 6177   6.272   7.039  12.830
34760SOL    HW2 6178   6.362   7.156  12.799
34761SOL     OW 6179   6.329  12.717  14.808
34761SOL    HW1 6180   6.398  12.783  14.802
34761SOL    HW2 6181   6.256  12.755  14.760
34762SOL     OW 6182  12.841   6.098   0.558
34762SOL    HW1 6183  12.765   6.124   0.505
34762SOL    HW2 6184  12.853   6.005   0.539
34763SOL     OW 6185   2.902   5.649   0.109
34763SOL    HW1 6186   2.950   5.680   0.186
34763SOL    HW2 6187   2.970   5.610   0.054
34764SOL     OW 6188  11.125  14.159   4.376
34764SOL    HW1 6189  11.111  14.204   4.292
34764SOL    HW2 6190  11.054  14.191   4.432
34765SOL     OW 6191  14.354   8.312  14.189
34765SOL    HW1 6192  14.439   8.270  14.205
34765SOL    HW2 6193  14.350   8.383  14.253
34766SOL     OW 6194  14.012  10.055   4.534
34766SOL    HW1 6195  14.067  10.133   4.542
34766SOL    HW2 6196  13.943  10.081   4.473
34767SOL     OW 6197  11.203  13.986   0.124
34767SOL    HW1 6198  11.180  14.048   0.193
34767SOL    HW2 6199  11.298  13.980   0.129
34768SOL     OW 6200   6.210   8.231   8.598
34768SOL    HW1 6201   6.295   8.190   8.583
34768SOL    HW2 6202   6.187   8.207   8.687
34769SOL     OW 6203   1.265  13.255   9.384
34769SOL    HW1 6204   1.260  13.263   9.479
34769SOL    HW2 6205   1.175  13.266   9.354
34770SOL     OW 6206  12.784   1.878   7.145
34770SOL    HW1 6207  12.822   1.810   7.090
34770SOL    HW2 6208  12.707   1.836   7.184
34771SOL     OW 6209   6.779   9.952  13.133
34771SOL    HW1 6210   6.798   9.873  13.081
34771SOL    HW2 6211   6.686   9.968  13.117
34772SOL     OW 6212   3.160   6.671  12.330
34772SOL    HW1 6213   3.221   6.628  12.269
34772SOL    HW2 6214   3.086   6.696  12.275
34773SOL     OW 6215   3.019  10.418  14.322
34773SOL    HW1 6216   2.926  10.413  14.301
34773SOL    HW2 6217   3.057  10.466  14.248
34774SOL     OW 6218   2.899   9.374   6.010
34774SOL    HW1 6219   2.859   9.356   6.095
34774SOL    HW2 6220   2.842   9.440   5.970
34775SOL     OW 6221  10.791   4.715   5.447
34775SOL    HW1 6222  10.858   4.658   5.483
34775SOL    HW2 6223  10.785   4.690   5.354
34776SOL     OW 6224   5.614   5.816  12.860
34776SOL    HW1 6225   5.563   5.884  12.815
34776SOL    HW2 6226   5.608   5.740  12.802
34777SOL     OW 6227   2.064   7.327   6.067
34777SOL    HW1 6228   2.065   7.296   6.157
34777SOL    HW2 6229   2.007   7.404   6.069
34778SOL     OW 6230   4.410  11.152  14.875
34778SOL    HW1 6231   4.505  11.142  14.875
34778SOL    HW2 6232   4.393  11.221   0.053
34779SOL     OW 6233   7.295   8.639  11.217
34779SOL    HW1 6234   7.310   8.709  11.281
34779SOL    HW2 6235   7.274   8.563  11.271
34780SOL     OW 6236   7.534  11.176   0.820
34780SOL    HW1 6237   7.558  11.268   0.830
34780SOL    HW2 6238   7.539  11.160   0.726
34781SOL     OW 6239   7.913  14.663  14.422
34781SOL    HW1 6240   7.904  14.758  14.427
34781SOL    HW2 6241   8.008  14.648  14.424
34782SOL     OW 6242   2.896   4.916  13.320
34782SOL    HW1 6243   2.980   4.902  13.276
34782SOL    HW2 6244   2.895   5.010  13.339
34783SOL     OW 6245   1.774   2.607   1.723
34783SOL    HW1 6246   1.696   2.576   1.677
34783SOL    HW2 6247   1.741   2.675   1.782
34784SOL     OW 6248   6.973   6.048   3.609
34784SOL    HW1 6249   6.967   6.115   3.541
34784SOL    HW2 6250   6.883   6.039   3.641
34785SOL     OW 6251   4.085   7.084   1.389
34785SOL    HW1 6252   4.040   7.138   1.455
34785SOL    HW2 6253   4.171   7.068   1.427
34786SOL     OW 6254   2.543   8.776  11.187
34786SOL    HW1 6255   2.501   8.825  11.116
34786SOL    HW2 6256   2.488   8.793  11.264
34787SOL     OW 6257  12.002  12.503   0.168
34787SOL    HW1 6258  12.071  12.484   0.104
34787SOL    HW2 6259  12.050  12.527   0.248
34788SOL     OW 6260  14.860   2.768   3.855
34788SOL    HW1 6261  14.813   2.710   3.795
34788SOL    HW2 6262  14.804   2.773   3.933
34789SOL     OW 6263  11.750  12.207  12.410
34789SOL    HW1 6264  11.815  12.170  12.350
34789SOL    HW2 6265  11.721  12.134  12.464
34790SOL     OW 6266   2.253   8.636  13.522
34790SOL    HW1 6267   2.207   8.702  13.574
34790SOL    HW2 6268   2.185   8.573  13.496
34791SOL     OW 6269  12.914  12.682  11.559
34791SOL    HW1 6270  12.943  12.681  11.468
34791SOL    HW2 6271  12.830  12.729  11.557
34792SOL     OW 6272   8.929   3.488   1.559
34792SOL    HW1 6273   8.911   3.409   1.610
34792SOL    HW2 6274   9.025   3.493   1.557
34793SOL     OW 6275  12.170   9.402   8.977
34793SOL    HW1 6276  12.193   9.309   8.970
34793SOL    HW2 6277  12.168   9.433   8.886
34794SOL     OW 6278   9.787   1.255  14.039
34794SOL    HW1 6279   9.746   1.318  14.097
34794SOL    HW2 6280   9.877   1.249  14.069
34795SOL     OW 6281   7.582  14.513   2.180
34795SOL    HW1 6282   7.505  14.458   2.173
34795SOL    HW2 6283   7.563  14.589   2.125
34796SOL     OW 6284  13.461   4.202   5.314
34796SOL    HW1 6285  13.525   4.186   5.246
34796SOL    HW2 6286  13.386   4.147   5.291
34797SOL     OW 6287   4.438   1.076  10.791
34797SOL    HW1 6288   4.501   1.135  10.834
34797SOL    HW2 6289   4.401   1.025  10.863
34798SOL     OW 6290   5.161   5.696   1.570
34798SOL    HW1 6291   5.244   5.672   1.612
34798SOL    HW2 6292   5.108   5.617   1.573
34799SOL     OW 6293   2.486   5.020   4.955
34799SOL    HW1 6294   2.418   5.077   4.919
34799SOL    HW2 6295   2.541   4.998   4.880
34800SOL     OW 6296   1.553   8.580   7.130
34800SOL    HW1 6297   1.629   8.619   7.087
34800SOL    HW2 6298   1.556   8.487   7.105
34801SOL     OW 6299   3.125  13.203   2.750
34801SOL    HW1 6300   3.184  13.199   2.675
34801SOL    HW2 6301   3.136  13.117   2.793
34802SOL     OW 6302   8.964  11.973  10.934
34802SOL    HW1 6303   8.912  11.893  10.923
34802SOL    HW2 6304   9.042  11.944  10.983
34803SOL     OW 6305  12.528   4.612   8.980
34803SOL    HW1 6306  12.619   4.613   9.010
34803SOL    HW2 6307  12.480   4.663   9.046
34804SOL     OW 6308   1.676   0.309   4.532
34804SOL    HW1 6309   1.603   0.320   4.471
34804SOL    HW2 6310   1.740   0.258   4.483
34805SOL     OW 6311  11.848   9.877  12.115
34805SOL    HW1 6312  11.871   9.958  12.159
34805SOL    HW2 6313  11.885   9.808  12.170
34806SOL     OW 6314  10.002   8.160   1.478
34806SOL    HW1 6315  10.092   8.128   1.473
34806SOL    HW2 6316   9.976   8.145   1.568
34807SOL     OW 6317   5.584  10.042  13.814
34807SOL    HW1 6318   5.662  10.047  13.760
34807SOL    HW2 6319   5.610   9.988  13.889
34808SOL     OW 6320   5.653   5.353  11.673
34808SOL    HW1 6321   5.722   5.286  11.672
34808SOL    HW2 6322   5.572   5.304  11.660
34809SOL     OW 6323   0.495  11.012  12.498
34809SOL    HW1 6324   0.420  10.959  12.470
34809SOL    HW2 6325   0.561  10.997  12.431
34810SOL     OW 6326  13.391   5.144  11.799
34810SOL    HW1 6327  13.395   5.113  11.890
34810SOL    HW2 6328  13.460   5.096  11.754
34811SOL     OW 6329  13.604   7.059   4.807
34811SOL    HW1 6330  13.522   7.065   4.758
34811SOL    HW2 6331  13.576   7.033   4.895
34812SOL     OW 6332   4.870   9.294  14.511
34812SOL    HW1 6333   4.823   9.284  14.428
34812SOL    HW2 6334   4.926   9.370  14.499
34813SOL     OW 6335  10.499   1.122   5.980
34813SOL    HW1 6336  10.594   1.118   5.978
34813SOL    HW2 6337  10.478   1.136   6.073
34814SOL     OW 6338   2.203  11.474  11.919
34814SOL    HW1 6339   2.122  11.436  11.953
34814SOL    HW2 6340   2.175  11.558  11.881
34815SOL     OW 6341   3.515   2.073   5.800
34815SOL    HW1 6342   3.482   2.057   5.888
34815SOL    HW2 6343   3.602   2.032   5.799
34816SOL     OW 6344   4.195  13.538   3.195
34816SOL    HW1 6345   4.164  13.559   3.282
34816SOL    HW2 6346   4.168  13.447   3.181
34817SOL     OW 6347   4.192   6.509   6.960
34817SOL    HW1 6348   4.100   6.529   6.979
34817SOL    HW2 6349   4.229   6.483   7.044
34818SOL     OW 6350   9.851   3.521   6.265
34818SOL    HW1 6351   9.814   3.537   6.352
34818SOL    HW2 6352   9.800   3.448   6.230
34819SOL     OW 6353   0.129   2.739   8.773
34819SOL    HW1 6354   0.100   2.708   8.687
34819SOL    HW2 6355   0.163   2.827   8.757
34820SOL     OW 6356   1.751   7.819   0.697
34820SOL    HW1 6357   1.696   7.798   0.773
34820SOL    HW2 6358   1.691   7.857   0.633
34821SOL     OW 6359  11.133  11.631   6.445
34821SOL    HW1 6360  11.115  11.701   6.508
34821SOL    HW2 6361  11.088  11.554   6.480
34822SOL     OW 6362  12.364  12.148   6.903
34822SOL    HW1 6363  12.278  12.108   6.892
34822SOL    HW2 6364  12.383  12.188   6.818
34823SOL     OW 6365  14.290  13.775  12.978
34823SOL    HW1 6366  14.222  13.711  13.000
34823SOL    HW2 6367  14.249  13.860  12.995
34824SOL     OW 6368   5.701  12.964   3.960
34824SOL    HW1 6369   5.753  12.909   3.902
34824SOL    HW2 6370   5.611  12.937   3.944
34825SOL     OW 6371   9.633   5.915  12.345
34825SOL    HW1 6372   9.708   5.975  12.351
34825SOL    HW2 6373   9.592   5.918  12.431
34826SOL     OW 6374  10.382   1.819  11.066
34826SOL    HW1 6375  10.430   1.893  11.029
34826SOL    HW2 6376  10.291   1.850  11.072
34827SOL     OW 6377  10.838   3.599   8.371
34827SOL    HW1 6378  10.750   3.618   8.404
34827SOL    HW2 6379  10.843   3.503   8.372
34828SOL     OW 6380   6.251  13.917   7.973
34828SOL    HW1 6381   6.242  13.952   7.884
34828SOL    HW2 6382   6.277  13.993   8.025
34829SOL     OW 6383   3.176  13.660  12.803
34829SOL    HW1 6384   3.228  13.685  12.879
34829SOL    HW2 6385   3.220  13.700  12.729
34830SOL     OW 6386  14.730   6.654  12.160
34830SOL    HW1 6387  14.770   6.719  12.103
34830SOL    HW2 6388  14.694   6.704  12.232
34831SOL     OW 6389   1.628   0.524  12.010
34831SOL    HW1 6390   1.641   0.440  11.965
34831SOL    HW2 6391   1.618   0.588  11.939
34832SOL     OW 6392   3.714   1.724   2.980
34832SOL    HW1 6393   3.779   1.712   3.050
34832SOL    HW2 6394   3.661   1.644   2.982
34833SOL     OW 6395  10.236  12.202   5.458
34833SOL    HW1 6396  10.146  12.228   5.478
34833SOL    HW2 6397  10.231  12.108   5.441
34834SOL     OW 6398   6.572   7.067   1.000
34834SOL    HW1 6399   6.514   6.991   0.997
34834SOL    HW2 6400   6.651   7.040   0.953
34835SOL     OW 6401  12.440   4.215   2.636
34835SOL    HW1 6402  12.504   4.286   2.642
34835SOL    HW2 6403  12.492   4.135   2.631
34836SOL     OW 6404   8.606   9.135   3.261
34836SOL    HW1 6405   8.618   9.041   3.251
34836SOL    HW2 6406   8.538   9.158   3.198
34837SOL     OW 6407   8.178  14.111  13.407
34837SOL    HW1 6408   8.192  14.161  13.327
34837SOL    HW2 6409   8.243  14.041  13.402
34838SOL     OW 6410   7.570  12.064   4.162
34838SOL    HW1 6411   7.657  12.025   4.170
34838SOL    HW2 6412   7.513  11.991   4.138
34839SOL     OW 6413   0.556  13.428   3.190
34839SOL    HW1 6414   0.646  13.408   3.216
34839SOL    HW2 6415   0.503  13.361   3.232
34840SOL     OW 6416  13.492   6.357   1.886
34840SOL    HW1 6417  13.401   6.335   1.909
34840SOL    HW2 6418  13.536   6.272   1.883
34841SOL     OW 6419   0.052   4.581   0.280
34841SOL    HW1 6420   0.069   4.495   0.319
34841SOL    HW2 6421   0.051   4.565   0.186
34842SOL     OW 6422  10.073  10.582  12.746
34842SOL    HW1 6423  10.033  10.496  12.731
34842SOL    HW2 6424  10.032  10.613  12.827
34843SOL     OW 6425   5.541   5.789   1.575
34843SOL    HW1 6426   5.499   5.740   1.504
34843SOL    HW2 6427   5.635   5.783   1.556
34844SOL     OW 6428   1.382  13.729   2.881
34844SOL    HW1 6429   1.378  13.650   2.936
34844SOL    HW2 6430   1.435  13.791   2.931
34845SOL     OW 6431   3.932  12.676   2.216
34845SOL    HW1 6432   3.950  12.621   2.292
34845SOL    HW2 6433   3.842  12.653   2.191
34846SOL     OW 6434   5.677   1.910   9.584
34846SOL    HW1 6435   5.759   1.878   9.621
34846SOL    HW2 6436   5.640   1.835   9.537
34847SOL     OW 6437   0.684  10.875  14.105
34847SOL    HW1 6438   0.664  10.968  14.113
34847SOL    HW2 6439   0.766  10.863  14.153
34848SOL     OW 6440   2.079  14.216   4.214
34848SOL    HW1 6441   2.081  14.134   4.263
34848SOL    HW2 6442   2.004  14.264   4.250
34849SOL     OW 6443   1.784  12.957  14.485
34849SOL    HW1 6444   1.811  12.913  14.566
34849SOL    HW2 6445   1.699  12.918  14.465
34850SOL     OW 6446   9.514   9.320  13.290
34850SOL    HW1 6447   9.482   9.408  13.309
34850SOL    HW2 6448   9.454   9.286  13.224
34851SOL     OW 6449  11.056  12.192   2.781
34851SOL    HW1 6450  11.133  12.138   2.764
34851SOL    HW2 6451  10.991  12.164   2.717
34852SOL     OW 6452   3.260  12.193  11.005
34852SOL    HW1 6453   3.304  12.270  11.041
34852SOL    HW2 6454   3.286  12.191  10.913
34853SOL     OW 6455  11.472   4.657   6.702
34853SOL    HW1 6456  11.436   4.740   6.670
34853SOL    HW2 6457  11.435   4.648   6.790
34854SOL     OW 6458  14.115   3.128   1.651
34854SOL    HW1 6459  14.172   3.114   1.575
34854SOL    HW2 6460  14.145   3.063   1.716
34855SOL     OW 6461  13.568   9.893  13.445
34855SOL    HW1 6462  13.646   9.885  13.500
34855SOL    HW2 6463  13.497   9.858  13.499
34856SOL     OW 6464  10.383  10.805   2.228
34856SOL    HW1 6465  10.307  10.833   2.279
34856SOL    HW2 6466  10.356  10.814   2.137
34857SOL     OW 6467  12.449   2.752  11.326
34857SOL    HW1 6468  12.435   2.780  11.417
34857SOL    HW2 6469  12.363   2.721  11.297
34858SOL     OW 6470  11.061   3.380   3.432
34858SOL    HW1 6471  10.997   3.448   3.454
34858SOL    HW2 6472  11.018   3.298   3.455
34859SOL     OW 6473  11.533   8.763  14.672
34859SOL    HW1 6474  11.564   8.833  14.729
34859SOL    HW2 6475  11.591   8.768  14.595
34860SOL     OW 6476  10.601   7.792   0.130
34860SOL    HW1 6477  10.628   7.853   0.062
34860SOL    HW2 6478  10.664   7.720   0.124
34861SOL     OW 6479   6.392   4.517   6.366
34861SOL    HW1 6480   6.464   4.546   6.310
34861SOL    HW2 6481   6.424   4.436   6.405
34862SOL     OW 6482   2.673  10.559  12.789
34862SOL    HW1 6483   2.679  10.516  12.704
34862SOL    HW2 6484   2.582  10.588  12.794
34863SOL     OW 6485  12.210  10.642   0.911
34863SOL    HW1 6486  12.206  10.722   0.859
34863SOL    HW2 6487  12.230  10.573   0.848
34864SOL     OW 6488   3.933  14.753  12.348
34864SOL    HW1 6489   3.950  14.812  12.275
34864SOL    HW2 6490   3.844  14.775  12.376
34865SOL     OW 6491   3.378  12.701  10.247
34865SOL    HW1 6492   3.393  12.796  10.251
34865SOL    HW2 6493   3.452  12.667  10.198
34866SOL     OW 6494  11.641   4.963  14.133
34866SOL    HW1 6495  11.734   4.976  14.117
34866SOL    HW2 6496  11.630   4.980  14.227
34867SOL     OW 6497   4.475  11.217   4.319
34867SOL    HW1 6498   4.387  11.252   4.316
34867SOL    HW2 6499   4.531  11.292   4.339
34868SOL     OW 6500  14.482  14.081  10.026
34868SOL    HW1 6501  14.469  14.147  10.094
34868SOL    HW2 6502  14.502  14.001  10.074
34869SOL     OW 6503  14.016   1.300   5.361
34869SOL    HW1 6504  14.061   1.279   5.279
34869SOL    HW2 6505  14.060   1.378   5.393
34870SOL     OW 6506   6.157  11.531   0.274
34870SOL    HW1 6507   6.173  11.457   0.332
34870SOL    HW2 6508   6.075  11.509   0.228
34871SOL     OW 6509   9.715   3.044   0.755
34871SOL    HW1 6510   9.664   3.004   0.825
34871SOL    HW2 6511   9.752   3.123   0.795
34872SOL     OW 6512   2.558   8.229   8.119
34872SOL    HW1 6513   2.588   8.261   8.204
34872SOL    HW2 6514   2.469   8.197   8.135
34873SOL     OW 6515  14.610   5.801  12.731
34873SOL    HW1 6516  14.514   5.799  12.732
34873SOL    HW2 6517  14.634   5.833  12.818
34874SOL     OW 6518   4.322   4.131  10.950
34874SOL    HW1 6519   4.401   4.082  10.975
34874SOL    HW2 6520   4.298   4.095  10.865
34875SOL     OW 6521   8.388   8.615  11.089
34875SOL    HW1 6522   8.325   8.561  11.137
34875SOL    HW2 6523   8.339   8.693  11.062
34876SOL     OW 6524  14.411  11.168  14.147
34876SOL    HW1 6525  14.424  11.091  14.091
34876SOL    HW2 6526  14.454  11.239  14.100
34877SOL     OW 6527   5.469   5.909   7.133
34877SOL    HW1 6528   5.419   5.988   7.154
34877SOL    HW2 6529   5.408   5.853   7.086
34878SOL     OW 6530  11.916   5.811  13.559
34878SOL    HW1 6531  11.858   5.869  13.511
34878SOL    HW2 6532  12.004   5.840  13.536
34879SOL     OW 6533  11.913  13.803   8.481
34879SOL    HW1 6534  11.833  13.819   8.532
34879SOL    HW2 6535  11.905  13.711   8.453
34880SOL     OW 6536  12.854  12.619   1.273
34880SOL    HW1 6537  12.861  12.681   1.346
34880SOL    HW2 6538  12.934  12.632   1.222
34881SOL     OW 6539   2.198  11.516   4.337
34881SOL    HW1 6540   2.260  11.491   4.406
34881SOL    HW2 6541   2.119  11.544   4.385
34882SOL     OW 6542  14.068   8.912   6.404
34882SOL    HW1 6543  14.149   8.963   6.414
34882SOL    HW2 6544  13.998   8.974   6.421
34883SOL     OW 6545   0.825  12.834   5.999
34883SOL    HW1 6546   0.847  12.872   6.084
34883SOL    HW2 6547   0.859  12.744   6.003
34884SOL     OW 6548   3.495   6.601   4.171
34884SOL    HW1 6549   3.420   6.576   4.225
34884SOL    HW2 6550   3.543   6.664   4.224
34885SOL     OW 6551   9.926  10.007   1.318
34885SOL    HW1 6552   9.885  10.090   1.343
34885SOL    HW2 6553   9.857   9.941   1.331
34886SOL     OW 6554  12.139  10.668  13.842
34886SOL    HW1 6555  12.137  10.578  13.876
34886SOL    HW2 6556  12.066  10.712  13.885
34887SOL     OW 6557   2.747   9.898  13.160
34887SOL    HW1 6558   2.801   9.825  13.188
34887SOL    HW2 6559   2.693   9.919  13.236
34888SOL     OW 6560   0.819  14.596   6.664
34888SOL    HW1 6561   0.860  14.602   6.578
34888SOL    HW2 6562   0.860  14.520   6.705
34889SOL     OW 6563   5.286  11.715   2.682
34889SOL    HW1 6564   5.208  11.695   2.630
34889SOL    HW2 6565   5.308  11.632   2.725
34890SOL     OW 6566  13.889   9.968  11.131
34890SOL    HW1 6567  13.930  10.051  11.154
34890SOL    HW2 6568  13.958   9.919  11.086
34891SOL     OW 6569   4.479   9.420   0.872
34891SOL    HW1 6570   4.574   9.420   0.860
34891SOL    HW2 6571   4.460   9.337   0.916
34892SOL     OW 6572   3.908   9.669   1.059
34892SOL    HW1 6573   3.838   9.650   0.996
34892SOL    HW2 6574   3.982   9.695   1.004
34893SOL     OW 6575   3.012   5.959  14.351
34893SOL    HW1 6576   3.032   5.869  14.379
34893SOL    HW2 6577   3.092   6.008  14.367
34894SOL     OW 6578  12.737   6.380  12.533
34894SOL    HW1 6579  12.651   6.362  12.496
34894SOL    HW2 6580  12.794   6.389  12.456
34895SOL     OW 6581   0.147  12.738  11.284
34895SOL    HW1 6582   0.235  12.768  11.310
34895SOL    HW2 6583   0.125  12.792  11.208
34896SOL     OW 6584   7.433   8.436   2.648
34896SOL    HW1 6585   7.421   8.497   2.575
34896SOL    HW2 6586   7.511   8.385   2.624
34897SOL     OW 6587   7.152   4.441   3.665
34897SOL    HW1 6588   7.112   4.385   3.599
34897SOL    HW2 6589   7.091   4.436   3.739
34898SOL     OW 6590  13.711  10.537   9.289
34898SOL    HW1 6591  13.623  10.551   9.324
34898SOL    HW2 6592  13.701  10.543   9.194
34899SOL     OW 6593   4.999  12.771  13.148
34899SOL    HW1 6594   5.085  12.752  13.110
34899SOL    HW2 6595   4.950  12.813  13.077
34900SOL     OW 6596   2.251  11.941  11.611
34900SOL    HW1 6597   2.245  11.936  11.706
34900SOL    HW2 6598   2.276  11.852  11.584
34901SOL     OW 6599  12.989  13.093   4.048
34901SOL    HW1 6600  13.001  13.185   4.022
34901SOL    HW2 6601  13.077  13.058   4.054
34902SOL     OW 6602   5.014  13.541   4.992
34902SOL    HW1 6603   4.941  13.480   4.984
34902SOL    HW2 6604   5.084  13.502   4.940
34903SOL     OW 6605  13.182  13.523   1.570
34903SOL    HW1 6606  13.140  13.466   1.505
34903SOL    HW2 6607  13.262  13.554   1.527
34904SOL     OW 6608  14.419   0.341   8.976
34904SOL    HW1 6609  14.365   0.276   9.021
34904SOL    HW2 6610  14.422   0.415   9.036
34905SOL     OW 6611   2.345  12.093   4.601
34905SOL    HW1 6612   2.381  12.080   4.513
34905SOL    HW2 6613   2.399  12.162   4.639
34906SOL     OW 6614   3.497  13.193   9.127
34906SOL    HW1 6615   3.462  13.214   9.213
34906SOL    HW2 6616   3.587  13.223   9.130
34907SOL     OW 6617   7.767   6.791   8.284
34907SOL    HW1 6618   7.750   6.772   8.192
34907SOL    HW2 6619   7.860   6.813   8.287
34908SOL     OW 6620  13.988   6.087   3.787
34908SOL    HW1 6621  14.027   6.006   3.818
34908SOL    HW2 6622  14.057   6.130   3.737
34909SOL     OW 6623   6.372   5.815   6.966
34909SOL    HW1 6624   6.332   5.873   7.030
34909SOL    HW2 6625   6.300   5.791   6.907
34910SOL     OW 6626  12.142  12.880   6.890
34910SOL    HW1 6627  12.074  12.843   6.834
34910SOL    HW2 6628  12.223  12.843   6.857
34911SOL     OW 6629   9.424   3.515  11.474
34911SOL    HW1 6630   9.363   3.513  11.400
34911SOL    HW2 6631   9.404   3.436  11.525
34912SOL     OW 6632   2.674  14.842   8.603
34912SOL    HW1 6633   2.636  14.756   8.623
34912SOL    HW2 6634   2.749  14.849   8.662
34913SOL     OW 6635  11.024   7.557   6.947
34913SOL    HW1 6636  10.999   7.469   6.918
34913SOL    HW2 6637  11.032   7.608   6.867
34914SOL     OW 6638  10.708   7.218   1.807
34914SOL    HW1 6639  10.624   7.251   1.840
34914SOL    HW2 6640  10.717   7.132   1.846
34915SOL     OW 6641   5.708  14.317   5.648
34915SOL    HW1 6642   5.665  14.402   5.656
34915SOL    HW2 6643   5.741  14.316   5.558
34916SOL     OW 6644   6.182   2.359   0.599
34916SOL    HW1 6645   6.094   2.373   0.567
34916SOL    HW2 6646   6.239   2.384   0.526
34917SOL     OW 6647   9.353   7.128   1.532
34917SOL    HW1 6648   9.298   7.149   1.457
34917SOL    HW2 6649   9.323   7.187   1.601
34918SOL     OW 6650   3.519  12.960  11.954
34918SOL    HW1 6651   3.496  13.049  11.926
34918SOL    HW2 6652   3.436  12.922  11.984
34919SOL     OW 6653  10.071  12.414  11.071
34919SOL    HW1 6654  10.112  12.478  11.013
34919SOL    HW2 6655  10.007  12.465  11.120
34920SOL     OW 6656   9.242   4.737  12.265
34920SOL    HW1 6657   9.295   4.658  12.261
34920SOL    HW2 6658   9.168   4.720  12.207
34921SOL     OW 6659   5.889   5.682   9.854
34921SOL    HW1 6660   5.944   5.609   9.824
34921SOL    HW2 6661   5.943   5.729   9.916
34922SOL     OW 6662   6.067   0.098   1.585
34922SOL    HW1 6663   6.023   0.170   1.629
34922SOL    HW2 6664   6.017   0.085   1.504
34923SOL     OW 6665   6.833   9.230   1.153
34923SOL    HW1 6666   6.864   9.141   1.169
34923SOL    HW2 6667   6.913   9.281   1.139
34924SOL     OW 6668   2.578   3.684   2.042
34924SOL    HW1 6669   2.654   3.702   1.987
34924SOL    HW2 6670   2.524   3.625   1.990
34925SOL     OW 6671  12.866  14.068   1.148
34925SOL    HW1 6672  12.893  14.156   1.122
34925SOL    HW2 6673  12.792  14.082   1.207
34926SOL     OW 6674  10.685   1.057   7.506
34926SOL    HW1 6675  10.600   1.099   7.518
34926SOL    HW2 6676  10.664   0.966   7.487
34927SOL     OW 6677  13.116   1.302  11.003
34927SOL    HW1 6678  13.055   1.369  10.971
34927SOL    HW2 6679  13.140   1.253  10.924
34928SOL     OW 6680   1.332   0.985  11.629
34928SOL    HW1 6681   1.304   0.912  11.684
34928SOL    HW2 6682   1.265   1.052  11.642
34929SOL     OW 6683  11.861   1.394  12.352
34929SOL    HW1 6684  11.838   1.347  12.432
34929SOL    HW2 6685  11.932   1.453  12.379
34930SOL     OW 6686   3.575   0.645   2.991
34930SOL    HW1 6687   3.662   0.611   3.009
34930SOL    HW2 6688   3.545   0.680   3.075
34931SOL     OW 6689   6.153   0.160   9.007
34931SOL    HW1 6690   6.230   0.137   8.955
34931SOL    HW2 6691   6.132   0.079   9.055
34932SOL     OW 6692  12.700   8.768   9.697
34932SOL    HW1 6693  12.625   8.788   9.641
34932SOL    HW2 6694  12.773   8.759   9.637
34933SOL     OW 6695   8.755   3.558   4.822
34933SOL    HW1 6696   8.781   3.649   4.806
34933SOL    HW2 6697   8.830   3.519   4.866
34934SOL     OW 6698  10.920   8.279  12.157
34934SOL    HW1 6699  10.930   8.353  12.217
34934SOL    HW2 6700  11.009   8.245  12.146
34935SOL     OW 6701  13.602   1.475  13.017
34935SOL    HW1 6702  13.675   1.416  12.997
34935SOL    HW2 6703  13.644   1.555  13.048
34936SOL     OW 6704   7.709   6.708   1.839
34936SOL    HW1 6705   7.654   6.771   1.886
34936SOL    HW2 6706   7.650   6.670   1.774
34937SOL     OW 6707   6.595   2.629   5.986
34937SOL    HW1 6708   6.650   2.690   5.938
34937SOL    HW2 6709   6.513   2.627   5.936
34938SOL     OW 6710  12.239   0.970   1.988
34938SOL    HW1 6711  12.199   1.054   1.969
34938SOL    HW2 6712  12.330   0.990   2.010
34939SOL     OW 6713  12.832   7.297  12.158
34939SOL    HW1 6714  12.743   7.333  12.163
34939SOL    HW2 6715  12.836   7.254  12.073
34940SOL     OW 6716  13.473   3.583  13.905
34940SOL    HW1 6717  13.500   3.492  13.893
34940SOL    HW2 6718  13.420   3.603  13.828
34941SOL     OW 6719   5.484  11.591  13.452
34941SOL    HW1 6720   5.539  11.600  13.530
34941SOL    HW2 6721   5.468  11.497  13.443
34942SOL     OW 6722  14.541   4.791   9.099
34942SOL    HW1 6723  14.569   4.821   9.013
34942SOL    HW2 6724  14.622   4.770   9.145
34943SOL     OW 6725   6.001  13.478   2.717
34943SOL    HW1 6726   5.959  13.394   2.735
34943SOL    HW2 6727   6.095  13.458   2.715
34944SOL     OW 6728   4.228   0.695   0.587
34944SOL    HW1 6729   4.233   0.722   0.678
34944SOL    HW2 6730   4.151   0.740   0.552
34945SOL     OW 6731   8.027   2.632   3.053
34945SOL    HW1 6732   7.986   2.709   3.014
34945SOL    HW2 6733   8.005   2.638   3.146
34946SOL     OW 6734  13.403   4.436  14.772
34946SOL    HW1 6735  13.317   4.395  14.786
34946SOL    HW2 6736  13.385   4.514  14.720
34947SOL     OW 6737   5.354   3.995  14.208
34947SOL    HW1 6738   5.351   4.040  14.292
34947SOL    HW2 6739   5.377   3.905  14.229
34948SOL     OW 6740   9.522   5.871   8.081
34948SOL    HW1 6741   9.600   5.821   8.106
34948SOL    HW2 6742   9.499   5.837   7.994
34949SOL     OW 6743   9.759   0.791  13.926
34949SOL    HW1 6744   9.808   0.776  13.845
34949SOL    HW2 6745   9.678   0.831  13.897
34950SOL     OW 6746   5.773  14.323  11.090
34950SOL    HW1 6747   5.712  14.353  11.157
34950SOL    HW2 6748   5.721  14.319  11.010
34951SOL     OW 6749   5.202   1.105   5.219
34951SOL    HW1 6750   5.292   1.124   5.246
34951SOL    HW2 6751   5.148   1.143   5.289
34952SOL     OW 6752   1.270   7.801   0.157
34952SOL    HW1 6753   1.334   7.739   0.122
34952SOL    HW2 6754   1.255   7.772   0.247
34953SOL     OW 6755   8.051  13.032   4.900
34953SOL    HW1 6756   8.079  13.122   4.919
34953SOL    HW2 6757   8.068  13.022   4.806
34954SOL     OW 6758  10.055   9.555   1.713
34954SOL    HW1 6759  10.110   9.626   1.746
34954SOL    HW2 6760   9.982   9.600   1.669
34955SOL     OW 6761   9.318   4.051   0.365
34955SOL    HW1 6762   9.356   3.987   0.426
34955SOL    HW2 6763   9.383   4.058   0.295
34956SOL     OW 6764  12.060  12.957  11.033
34956SOL    HW1 6765  12.044  12.896  11.104
34956SOL    HW2 6766  12.102  13.032  11.074
34957SOL     OW 6767   8.808   2.359   3.571
34957SOL    HW1 6768   8.871   2.431   3.574
34957SOL    HW2 6769   8.815   2.324   3.482
34958SOL     OW 6770  13.300  12.639  14.039
34958SOL    HW1 6771  13.243  12.629  14.115
34958SOL    HW2 6772  13.278  12.565  13.983
34959SOL     OW 6773   3.858   7.001   0.122
34959SOL    HW1 6774   3.865   7.096   0.126
34959SOL    HW2 6775   3.887   6.978   0.034
34960SOL     OW 6776   1.037   3.068  14.002
34960SOL    HW1 6777   1.076   3.030  14.080
34960SOL    HW2 6778   1.082   3.025  13.929
34961SOL     OW 6779   3.672   0.193   0.862
34961SOL    HW1 6780   3.708   0.138   0.792
34961SOL    HW2 6781   3.580   0.204   0.838
34962SOL     OW 6782   4.451   8.496  10.967
34962SOL    HW1 6783   4.412   8.409  10.960
34962SOL    HW2 6784   4.542   8.484  10.939
34963SOL     OW 6785   0.926   9.398   0.499
34963SOL    HW1 6786   1.014   9.369   0.524
34963SOL    HW2 6787   0.912   9.361   0.412
34964SOL     OW 6788   0.795  13.581   2.595
34964SOL    HW1 6789   0.783  13.647   2.663
34964SOL    HW2 6790   0.860  13.521   2.630
34965SOL     OW 6791  10.896   9.174  13.036
34965SOL    HW1 6792  10.881   9.140  13.124
34965SOL    HW2 6793  10.869   9.102  12.978
34966SOL     OW 6794   7.157   3.434  12.923
34966SOL    HW1 6795   7.231   3.440  12.863
34966SOL    HW2 6796   7.151   3.341  12.946
34967SOL     OW 6797   4.693   3.260   2.953
34967SOL    HW1 6798   4.648   3.178   2.935
34967SOL    HW2 6799   4.739   3.280   2.872
34968SOL     OW 6800   4.585  10.426   9.636
34968SOL    HW1 6801   4.511  10.383   9.593
34968SOL    HW2 6802   4.610  10.497   9.577
34969SOL     OW 6803   7.440   2.169  11.916
34969SOL    HW1 6804   7.524   2.131  11.891
34969SOL    HW2 6805   7.461   2.257  11.948
34970SOL     OW 6806   1.866  11.515   0.161
34970SOL    HW1 6807   1.934  11.496   0.226
34970SOL    HW2 6808   1.859  11.611   0.161
34971SOL     OW 6809   1.301   2.509  13.363
34971SOL    HW1 6810   1.286   2.448  13.435
34971SOL    HW2 6811   1.232   2.489  13.300
34972SOL     OW 6812  10.129  12.673   9.080
34972SOL    HW1 6813  10.149  12.615   9.007
34972SOL    HW2 6814  10.040  12.648   9.106
34973SOL     OW 6815   2.878   1.483  10.347
34973SOL    HW1 6816   2.829   1.462  10.267
34973SOL    HW2 6817   2.826   1.550  10.390
34974SOL     OW 6818   0.144   4.834   0.269
34974SOL    HW1 6819   0.064   4.882   0.249
34974SOL    HW2 6820   0.119   4.742   0.266
34975SOL     OW 6821   2.902   3.375   6.988
34975SOL    HW1 6822   2.956   3.356   7.065
34975SOL    HW2 6823   2.854   3.294   6.971
34976SOL     OW 6824   2.950  13.991   0.984
34976SOL    HW1 6825   2.942  13.896   0.983
34976SOL    HW2 6826   2.958  14.015   0.892
34977SOL     OW 6827   7.539   4.798   1.972
34977SOL    HW1 6828   7.585   4.881   1.984
34977SOL    HW2 6829   7.608   4.733   1.962
34978SOL     OW 6830   3.995   9.416  14.414
34978SOL    HW1 6831   3.938   9.450  14.482
34978SOL    HW2 6832   3.976   9.322  14.412
34979SOL     OW 6833   3.012   4.701   3.958
34979SOL    HW1 6834   2.933   4.651   3.977
34979SOL    HW2 6835   3.024   4.692   3.863
34980SOL     OW 6836  13.600   8.601  14.304
34980SOL    HW1 6837  13.672   8.631  14.359
34980SOL    HW2 6838  13.521   8.627  14.350
34981SOL     OW 6839   1.205   6.521   9.863
34981SOL    HW1 6840   1.183   6.429   9.846
34981SOL    HW2 6841   1.124   6.559   9.896
34982SOL     OW 6842   8.267   9.666  11.624
34982SOL    HW1 6843   8.244   9.639  11.713
34982SOL    HW2 6844   8.361   9.684  11.628
34983SOL     OW 6845   8.203  12.811   0.774
34983SOL    HW1 6846   8.275  12.761   0.737
34983SOL    HW2 6847   8.175  12.869   0.703
34984SOL     OW 6848   5.417   2.243   2.278
34984SOL    HW1 6849   5.397   2.191   2.199
34984SOL    HW2 6850   5.358   2.318   2.272
34985SOL     OW 6851  11.109   4.015  13.999
34985SOL    HW1 6852  11.109   3.926  13.964
34985SOL    HW2 6853  11.017   4.041  14.000
34986SOL     OW 6854   1.116   7.078   3.506
34986SOL    HW1 6855   1.064   7.019   3.560
34986SOL    HW2 6856   1.202   7.036   3.500
34987SOL     OW 6857   0.566  11.940   6.077
34987SOL    HW1 6858   0.638  11.926   6.016
34987SOL    HW2 6859   0.487  11.930   6.024
34988SOL     OW 6860   7.315   0.567  13.961
34988SOL    HW1 6861   7.347   0.495  13.907
34988SOL    HW2 6862   7.298   0.528  14.047
34989SOL     OW 6863   9.729  14.376   6.076
34989SOL    HW1 6864   9.680  14.453   6.049
34989SOL    HW2 6865   9.678  14.338   6.148
34990SOL     OW 6866   0.004  14.492  13.888
34990SOL    HW1 6867   0.004  14.527  13.799
34990SOL    HW2 6868   0.000  14.397  13.876
34991SOL     OW 6869   6.379   6.951  12.226
34991SOL    HW1 6870   6.316   6.956  12.297
34991SOL    HW2 6871   6.388   6.857  12.209
34992SOL     OW 6872  11.345   0.882  14.532
34992SOL    HW1 6873  11.276   0.856  14.594
34992SOL    HW2 6874  11.425   0.846  14.569
34993SOL     OW 6875   3.862   2.758   6.018
34993SOL    HW1 6876   3.822   2.823   6.076
34993SOL    HW2 6877   3.874   2.803   5.935
34994SOL     OW 6878   7.048   1.685   0.424
34994SOL    HW1 6879   6.982   1.640   0.478
34994SOL    HW2 6880   7.016   1.676   0.335
34995SOL     OW 6881   4.514   2.348   7.322
34995SOL    HW1 6882   4.539   2.436   7.293
34995SOL    HW2 6883   4.422   2.340   7.298
34996SOL     OW 6884  11.819  10.459   8.466
34996SOL    HW1 6885  11.811  10.439   8.373
34996SOL    HW2 6886  11.909  10.435   8.488
34997SOL     OW 6887  12.466  12.769   1.471
34997SOL    HW1 6888  12.559  12.762   1.492
34997SOL    HW2 6889  12.451  12.702   1.404
34998SOL     OW 6890  11.387  10.995   5.670
34998SOL    HW1 6891  11.374  11.016   5.762
34998SOL    HW2 6892  11.349  10.907   5.660
34999SOL     OW 6893   6.199   7.871   9.484
34999SOL    HW1 6894   6.277   7.851   9.537
34999SOL    HW2 6895   6.193   7.966   9.485
35000SOL     OW 6896   0.719  11.362   9.611
35000SOL    HW1 6897   0.657  11.378   9.682
35000SOL    HW2 6898   0.674  11.394   9.533
35001SOL     OW 6899   9.383   1.101   6.513
35001SOL    HW1 6900   9.478   1.088   6.513
35001SOL    HW2 6901   9.354   1.061   6.595
35002SOL     OW 6902   9.932  12.436   0.593
35002SOL    HW1 6903  10.001  12.500   0.609
35002SOL    HW2 6904   9.851  12.484   0.609
35003SOL     OW 6905   3.623   2.771  10.432
35003SOL    HW1 6906   3.630   2.832  10.359
35003SOL    HW2 6907   3.557   2.708  10.404
35004SOL     OW 6908   4.310  12.193   1.893
35004SOL    HW1 6909   4.343  12.104   1.884
35004SOL    HW2 6910   4.222  12.190   1.856
35005SOL     OW 6911   6.139   4.070   2.267
35005SOL    HW1 6912   6.228   4.069   2.304
35005SOL    HW2 6913   6.111   3.979   2.271
35006SOL     OW 6914   9.572   7.082   7.393
35006SOL    HW1 6915   9.623   7.152   7.353
35006SOL    HW2 6916   9.631   7.007   7.394
35007SOL     OW 6917   3.414  14.489   2.352
35007SOL    HW1 6918   3.488  14.431   2.367
35007SOL    HW2 6919   3.418  14.553   2.422
35008SOL     OW 6920   0.703   0.282   5.549
35008SOL    HW1 6921   0.644   0.211   5.527
35008SOL    HW2 6922   0.778   0.270   5.491
35009SOL     OW 6923  14.292  11.599  12.885
35009SOL    HW1 6924  14.207  11.584  12.843
35009SOL    HW2 6925  14.301  11.528  12.948
35010SOL     OW 6926   7.778   2.928   0.683
35010SOL    HW1 6927   7.857   2.981   0.676
35010SOL    HW2 6928   7.707   2.987   0.656
35011SOL     OW 6929   0.390  12.649   8.285
35011SOL    HW1 6930   0.328  12.583   8.254
35011SOL    HW2 6931   0.397  12.711   8.213
35012SOL     OW 6932   2.195   3.559   6.635
35012SOL    HW1 6933   2.263   3.522   6.692
35012SOL    HW2 6934   2.205   3.511   6.552
35013SOL     OW 6935   3.695   3.543  13.154
35013SOL    HW1 6936   3.770   3.600  13.140
35013SOL    HW2 6937   3.662   3.569  13.241
35014SOL     OW 6938   2.820   6.295   4.413
35014SOL    HW1 6939   2.886   6.227   4.425
35014SOL    HW2 6940   2.869   6.377   4.417
35015SOL     OW 6941  13.281   2.224   9.245
35015SOL    HW1 6942  13.283   2.293   9.311
35015SOL    HW2 6943  13.192   2.227   9.210
35016SOL     OW 6944   2.546   8.581   8.782
35016SOL    HW1 6945   2.555   8.636   8.705
35016SOL    HW2 6946   2.598   8.626   8.849
35017SOL     OW 6947   1.227   3.161  12.581
35017SOL    HW1 6948   1.146   3.113  12.568
35017SOL    HW2 6949   1.214   3.244  12.534
35018SOL     OW 6950   1.347  13.742   4.783
35018SOL    HW1 6951   1.342  13.837   4.796
35018SOL    HW2 6952   1.364  13.707   4.871
35019SOL     OW 6953   7.038  12.936   7.645
35019SOL    HW1 6954   6.977  12.864   7.658
35019SOL    HW2 6955   7.077  12.919   7.559
35020SOL     OW 6956  10.119   7.593  13.853
35020SOL    HW1 6957  10.150   7.665  13.799
35020SOL    HW2 6958  10.194   7.533  13.860
35021SOL     OW 6959   2.717  12.806   4.535
35021SOL    HW1 6960   2.791  12.781   4.481
35021SOL    HW2 6961   2.728  12.757   4.617
35022SOL     OW 6962   1.447   1.726  14.258
35022SOL    HW1 6963   1.367   1.674  14.261
35022SOL    HW2 6964   1.516   1.663  14.239
35023SOL     OW 6965  12.192   2.245  12.531
35023SOL    HW1 6966  12.108   2.231  12.487
35023SOL    HW2 6967  12.175   2.223  12.623
35024SOL     OW 6968  12.894  12.120   1.235
35024SOL    HW1 6969  12.845  12.065   1.174
35024SOL    HW2 6970  12.961  12.062   1.272
35025SOL     OW 6971   6.101  13.627   7.982
35025SOL    HW1 6972   6.115  13.720   8.000
35025SOL    HW2 6973   6.095  13.587   8.069
35026SOL     OW 6974   9.212   0.666   7.144
35026SOL    HW1 6975   9.169   0.724   7.206
35026SOL    HW2 6976   9.169   0.582   7.156
35027SOL     OW 6977   4.221   0.768   4.004
35027SOL    HW1 6978   4.247   0.857   4.028
35027SOL    HW2 6979   4.237   0.763   3.910
35028SOL     OW 6980   3.233  13.653   9.167
35028SOL    HW1 6981   3.242  13.722   9.101
35028SOL    HW2 6982   3.316  13.655   9.215
35029SOL     OW 6983   8.183   3.719   3.973
35029SOL    HW1 6984   8.152   3.750   3.888
35029SOL    HW2 6985   8.244   3.786   4.002
35030SOL     OW 6986   0.978   0.469  13.168
35030SOL    HW1 6987   0.913   0.431  13.108
35030SOL    HW2 6988   1.056   0.482  13.114
35031SOL     OW 6989  14.320   5.121  11.858
35031SOL    HW1 6990  14.320   5.187  11.789
35031SOL    HW2 6991  14.307   5.170  11.939
35032SOL     OW 6992   9.700  11.828  12.500
35032SOL    HW1 6993   9.744  11.743  12.499
35032SOL    HW2 6994   9.607  11.807  12.488
35033SOL     OW 6995   2.351   5.775   5.119
35033SOL    HW1 6996   2.285   5.706   5.124
35033SOL    HW2 6997   2.378   5.789   5.209
35034SOL     OW 6998   7.735   4.822   9.027
35034SOL    HW1 6999   7.717   4.906   9.070
35034SOL    HW2 7000   7.822   4.798   9.059
35035SOL     OW 7001   9.959  14.593   5.461
35035SOL    HW1 7002   9.980  14.648   5.385
35035SOL    HW2 7003   9.867  14.568   5.447
35036SOL     OW 7004  13.540   6.596   1.002
35036SOL    HW1 7005  13.616   6.649   0.981
35036SOL    HW2 7006  13.469   6.632   0.950
35037SOL     OW 7007  11.832   7.021   3.151
35037SOL    HW1 7008  11.883   7.084   3.100
35037SOL    HW2 7009  11.885   7.006   3.229
35038SOL     OW 7010   3.881  10.920   9.051
35038SOL    HW1 7011   3.865  10.826   9.049
35038SOL    HW2 7012   3.866  10.949   8.961
35039SOL     OW 7013  14.094   5.507   5.692
35039SOL    HW1 7014  14.150   5.535   5.765
35039SOL    HW2 7015  14.005   5.513   5.728
35040SOL     OW 7016   8.263   9.203   7.921
35040SOL    HW1 7017   8.336   9.225   7.864
35040SOL    HW2 7018   8.226   9.124   7.882
35041SOL     OW 7019   3.860   7.604   1.490
35041SOL    HW1 7020   3.781   7.572   1.532
35041SOL    HW2 7021   3.838   7.609   1.397
35042SOL     OW 7022   6.900   5.817  14.062
35042SOL    HW1 7023   6.951   5.834  14.141
35042SOL    HW2 7024   6.898   5.901  14.016
35043SOL     OW 7025  12.093   2.786   5.101
35043SOL    HW1 7026  12.142   2.800   5.020
35043SOL    HW2 7027  12.086   2.691   5.109
35044SOL     OW 7028  13.804   7.718   2.732
35044SOL    HW1 7029  13.812   7.784   2.801
35044SOL    HW2 7030  13.889   7.716   2.690
35045SOL     OW 7031   0.944   4.157  11.305
35045SOL    HW1 7032   0.901   4.186  11.225
35045SOL    HW2 7033   1.028   4.121  11.277
35046SOL     OW 7034   7.884   5.737   6.557
35046SOL    HW1 7035   7.840   5.816   6.524
35046SOL    HW2 7036   7.858   5.668   6.496
35047SOL     OW 7037   5.387   2.028   4.095
35047SOL    HW1 7038   5.378   2.049   4.188
35047SOL    HW2 7039   5.330   2.090   4.050
35048SOL     OW 7040  12.707   9.131  12.060
35048SOL    HW1 7041  12.623   9.119  12.106
35048SOL    HW2 7042  12.691   9.205  12.001
35049SOL     OW 7043  10.714   5.791   5.943
35049SOL    HW1 7044  10.718   5.706   5.988
35049SOL    HW2 7045  10.723   5.769   5.851
35050SOL     OW 7046   3.326   7.560  12.263
35050SOL    HW1 7047   3.376   7.638  12.242
35050SOL    HW2 7048   3.343   7.544  12.356
35051SOL     OW 7049   5.315   3.934   8.685
35051SOL    HW1 7050   5.404   3.909   8.660
35051SOL    HW2 7051   5.308   4.026   8.659
35052SOL     OW 7052   0.641  12.986  12.980
35052SOL    HW1 7053   0.636  12.893  13.004
35052SOL    HW2 7054   0.576  12.996  12.911
35053SOL     OW 7055  10.073   8.943  11.146
35053SOL    HW1 7056  10.091   9.006  11.216
35053SOL    HW2 7057  10.040   8.865  11.192
35054SOL     OW 7058   8.722  13.765   0.724
35054SOL    HW1 7059   8.679  13.827   0.783
35054SOL    HW2 7060   8.809  13.753   0.760
35055SOL     OW 7061   9.971  13.369   1.999
35055SOL    HW1 7062  10.014  13.394   2.081
35055SOL    HW2 7063   9.905  13.305   2.025
35056SOL     OW 7064   3.304   5.682   2.130
35056SOL    HW1 7065   3.278   5.660   2.040
35056SOL    HW2 7066   3.335   5.599   2.167
35057SOL     OW 7067   9.030  12.146  14.549
35057SOL    HW1 7068   8.973  12.081  14.590
35057SOL    HW2 7069   8.992  12.160  14.462
35058SOL     OW 7070   6.153   1.531   6.824
35058SOL    HW1 7071   6.200   1.531   6.908
35058SOL    HW2 7072   6.065   1.561   6.847
35059SOL     OW 7073  11.058   8.310   8.032
35059SOL    HW1 7074  11.111   8.252   8.086
35059SOL    HW2 7075  11.000   8.354   8.094
35060SOL     OW 7076   4.437   7.011   4.968
35060SOL    HW1 7077   4.523   6.989   4.932
35060SOL    HW2 7078   4.447   6.999   5.062
35061SOL     OW 7079   3.679   7.843   8.907
35061SOL    HW1 7080   3.598   7.792   8.913
35061SOL    HW2 7081   3.741   7.796   8.962
35062SOL     OW 7082   1.644   3.170  14.440
35062SOL    HW1 7083   1.630   3.086  14.482
35062SOL    HW2 7084   1.739   3.181  14.439
35063SOL     OW 7085  12.683   1.990   7.792
35063SOL    HW1 7086  12.659   2.003   7.701
35063SOL    HW2 7087  12.738   1.912   7.792
35064SOL     OW 7088   9.002   0.747  10.860
35064SOL    HW1 7089   8.970   0.815  10.800
35064SOL    HW2 7090   9.071   0.703  10.811
35065SOL     OW 7091   2.071   1.068   1.348
35065SOL    HW1 7092   1.977   1.068   1.370
35065SOL    HW2 7093   2.114   1.033   1.426
35066SOL     OW 7094  13.001   2.363   6.813
35066SOL    HW1 7095  12.966   2.416   6.885
35066SOL    HW2 7096  12.947   2.285   6.812
35067SOL     OW 7097   7.129   9.833   8.951
35067SOL    HW1 7098   7.066   9.858   9.018
35067SOL    HW2 7099   7.201   9.792   9.000
35068SOL     OW 7100  10.637   9.302  14.883
35068SOL    HW1 7101  10.568   9.361  14.852
35068SOL    HW2 7102  10.684   9.277  14.803
35069SOL     OW 7103  13.741  11.412   1.068
35069SOL    HW1 7104  13.691  11.348   1.118
35069SOL    HW2 7105  13.718  11.496   1.106
35070SOL     OW 7106   5.200   0.976   4.486
35070SOL    HW1 7107   5.240   1.031   4.419
35070SOL    HW2 7108   5.138   1.034   4.531
35071SOL     OW 7109   5.127   6.913   3.552
35071SOL    HW1 7110   5.053   6.935   3.609
35071SOL    HW2 7111   5.091   6.850   3.490
35072SOL     OW 7112  13.117   2.745   5.436
35072SOL    HW1 7113  13.152   2.682   5.372
35072SOL    HW2 7114  13.169   2.824   5.423
35073SOL     OW 7115  14.668  11.773  11.037
35073SOL    HW1 7116  14.616  11.758  11.115
35073SOL    HW2 7117  14.750  11.811  11.069
35074SOL     OW 7118  14.860  12.910  10.696
35074SOL    HW1 7119   0.002  12.832  10.648
35074SOL    HW2 7120  14.765  12.900  10.699
35075SOL     OW 7121  14.586   5.813   1.597
35075SOL    HW1 7122  14.546   5.792   1.681
35075SOL    HW2 7123  14.681   5.809   1.613
35076SOL     OW 7124   9.199   4.467   6.490
35076SOL    HW1 7125   9.182   4.397   6.427
35076SOL    HW2 7126   9.287   4.450   6.522
35077SOL     OW 7127   6.804  12.055   1.811
35077SOL    HW1 7128   6.748  12.011   1.875
35077SOL    HW2 7129   6.804  11.996   1.735
35078SOL     OW 7130   5.332   1.432   7.288
35078SOL    HW1 7131   5.373   1.518   7.273
35078SOL    HW2 7132   5.350   1.383   7.207
35079SOL     OW 7133   1.966   7.434   0.289
35079SOL    HW1 7134   1.996   7.453   0.200
35079SOL    HW2 7135   2.008   7.501   0.343
35080SOL     OW 7136  12.840   0.622   1.355
35080SOL    HW1 7137  12.859   0.553   1.291
35080SOL    HW2 7138  12.897   0.602   1.429
35081SOL     OW 7139   9.129  10.347   4.930
35081SOL    HW1 7140   9.203  10.359   4.870
35081SOL    HW2 7141   9.112  10.253   4.930
35082SOL     OW 7142   7.174   9.174  12.948
35082SOL    HW1 7143   7.239   9.218  13.002
35082SOL    HW2 7144   7.209   9.086  12.934
35083SOL     OW 7145   8.858   6.443  13.044
35083SOL    HW1 7146   8.808   6.422  13.123
35083SOL    HW2 7147   8.805   6.406  12.972
35084SOL     OW 7148   3.501   7.351   2.643
35084SOL    HW1 7149   3.462   7.376   2.728
35084SOL    HW2 7150   3.572   7.414   2.631
35085SOL     OW 7151   5.589   3.579  12.236
35085SOL    HW1 7152   5.502   3.566  12.197
35085SOL    HW2 7153   5.644   3.514  12.193
35086SOL     OW 7154   3.839  13.518   5.021
35086SOL    HW1 7155   3.928  13.527   5.056
35086SOL    HW2 7156   3.824  13.600   4.974
35087SOL     OW 7157   7.310   5.612   2.522
35087SOL    HW1 7158   7.358   5.695   2.528
35087SOL    HW2 7159   7.273   5.600   2.609
35088SOL     OW 7160   6.923  11.252   1.031
35088SOL    HW1 7161   6.970  11.190   1.085
35088SOL    HW2 7162   6.846  11.204   1.000
35089SOL     OW 7163   5.848   5.101   7.776
35089SOL    HW1 7164   5.791   5.168   7.811
35089SOL    HW2 7165   5.788   5.033   7.743
35090SOL     OW 7166   3.356  10.028   4.827
35090SOL    HW1 7167   3.380   9.970   4.899
35090SOL    HW2 7168   3.424  10.095   4.826
35091SOL     OW 7169  10.075   6.825   9.696
35091SOL    HW1 7170  10.005   6.849   9.757
35091SOL    HW2 7171  10.077   6.896   9.632
35092SOL     OW 7172   5.361  14.803  10.407
35092SOL    HW1 7173   5.408  14.831  10.485
35092SOL    HW2 7174   5.338  14.711  10.425
35093SOL     OW 7175   3.706   3.712   9.816
35093SOL    HW1 7176   3.664   3.763   9.884
35093SOL    HW2 7177   3.667   3.743   9.734
35094SOL     OW 7178   9.456   7.513   2.120
35094SOL    HW1 7179   9.542   7.484   2.088
35094SOL    HW2 7180   9.469   7.523   2.214
35095SOL     OW 7181   1.299  13.667   1.302
35095SOL    HW1 7182   1.298  13.674   1.397
35095SOL    HW2 7183   1.345  13.585   1.284
35096SOL     OW 7184   3.206   7.640  12.730
35096SOL    HW1 7185   3.254   7.606  12.805
35096SOL    HW2 7186   3.170   7.724  12.760
35097SOL     OW 7187   3.167   3.434   1.562
35097SOL    HW1 7188   3.085   3.384   1.559
35097SOL    HW2 7189   3.139   3.525   1.556
35098SOL     OW 7190   6.107   9.637  13.401
35098SOL    HW1 7191   6.135   9.548  13.418
35098SOL    HW2 7192   6.012   9.634  13.404
35099SOL     OW 7193  10.452  10.232  10.666
35099SOL    HW1 7194  10.531  10.285  10.651
35099SOL    HW2 7195  10.436  10.240  10.760
35100SOL     OW 7196   9.424   2.772   4.765
35100SOL    HW1 7197   9.431   2.859   4.726
35100SOL    HW2 7198   9.474   2.715   4.706
35101SOL     OW 7199   2.343   6.081   9.880
35101SOL    HW1 7200   2.273   6.106   9.820
35101SOL    HW2 7201   2.422   6.081   9.826
35102SOL     OW 7202  14.188   1.013   4.796
35102SOL    HW1 7203  14.123   1.081   4.812
35102SOL    HW2 7204  14.248   1.018   4.870
35103SOL     OW 7205  14.039   8.018   0.945
35103SOL    HW1 7206  14.051   7.972   1.028
35103SOL    HW2 7207  13.946   8.044   0.946
35104SOL     OW 7208   7.104   9.386   9.930
35104SOL    HW1 7209   7.095   9.477   9.959
35104SOL    HW2 7210   7.069   9.386   9.841
35105SOL     OW 7211  10.482  12.453   4.190
35105SOL    HW1 7212  10.475  12.442   4.095
35105SOL    HW2 7213  10.483  12.364   4.224
35106SOL     OW 7214  13.844   6.886  11.191
35106SOL    HW1 7215  13.859   6.973  11.227
35106SOL    HW2 7216  13.901   6.828  11.242
35107SOL     OW 7217   8.339   9.537  14.756
35107SOL    HW1 7218   8.407   9.548  14.689
35107SOL    HW2 7219   8.292   9.458  14.729
35108SOL     OW 7220   9.813   6.137   6.352
35108SOL    HW1 7221   9.756   6.206   6.321
35108SOL    HW2 7222   9.758   6.085   6.412
35109SOL     OW 7223   3.144   5.094  11.920
35109SOL    HW1 7224   3.129   5.021  11.859
35109SOL    HW2 7225   3.079   5.080  11.989
35110SOL     OW 7226   5.458  12.940   4.630
35110SOL    HW1 7227   5.496  12.882   4.564
35110SOL    HW2 7228   5.532  12.963   4.687
35111SOL     OW 7229   3.882   1.396  13.193
35111SOL    HW1 7230   3.940   1.445  13.251
35111SOL    HW2 7231   3.798   1.393  13.240
35112SOL     OW 7232   6.523  12.203   5.146
35112SOL    HW1 7233   6.508  12.255   5.224
35112SOL    HW2 7234   6.600  12.151   5.166
35113SOL     OW 7235   6.691   0.439   7.197
35113SOL    HW1 7236   6.693   0.494   7.118
35113SOL    HW2 7237   6.713   0.351   7.166
35114SOL     OW 7238  11.135   4.875  11.796
35114SOL    HW1 7239  11.145   4.785  11.826
35114SOL    HW2 7240  11.084   4.918  11.865
35115SOL     OW 7241   8.612   7.766  11.933
35115SOL    HW1 7242   8.601   7.757  12.028
35115SOL    HW2 7243   8.634   7.858  11.921
35116SOL     OW 7244  13.154   4.547   4.774
35116SOL    HW1 7245  13.146   4.452   4.782
35116SOL    HW2 7246  13.067   4.580   4.796
35117SOL     OW 7247   7.636   0.081   0.346
35117SOL    HW1 7248   7.671  14.880   0.348
35117SOL    HW2 7249   7.688   0.126   0.279
35118SOL     OW 7250   0.687   1.573  14.464
35118SOL    HW1 7251   0.673   1.542  14.375
35118SOL    HW2 7252   0.599   1.585  14.500
35119SOL     OW 7253  12.637   1.965  11.043
35119SOL    HW1 7254  12.662   1.872  11.043
35119SOL    HW2 7255  12.713   2.010  11.007
35120SOL     OW 7256  11.382   3.845  13.559
35120SOL    HW1 7257  11.323   3.794  13.503
35120SOL    HW2 7258  11.354   3.936  13.548
35121SOL     OW 7259  12.481  13.014  12.547
35121SOL    HW1 7260  12.387  13.033  12.546
35121SOL    HW2 7261  12.522  13.093  12.580
35122SOL     OW 7262  10.322   4.759  11.060
35122SOL    HW1 7263  10.284   4.735  10.975
35122SOL    HW2 7264  10.345   4.674  11.100
35123SOL     OW 7265   0.943   0.931   4.096
35123SOL    HW1 7266   0.853   0.958   4.114
35123SOL    HW2 7267   0.943   0.836   4.106
35124SOL     OW 7268  11.491   7.308   6.803
35124SOL    HW1 7269  11.574   7.286   6.846
35124SOL    HW2 7270  11.445   7.225   6.795
35125SOL     OW 7271   7.608  12.826   3.516
35125SOL    HW1 7272   7.691  12.843   3.561
35125SOL    HW2 7273   7.562  12.764   3.573
35126SOL     OW 7274  10.406   4.481   4.502
35126SOL    HW1 7275  10.328   4.457   4.551
35126SOL    HW2 7276  10.411   4.577   4.511
35127SOL     OW 7277   7.105   7.123  13.004
35127SOL    HW1 7278   7.028   7.081  13.041
35127SOL    HW2 7279   7.098   7.215  13.031
35128SOL     OW 7280   2.992   4.463   8.299
35128SOL    HW1 7281   2.934   4.498   8.231
35128SOL    HW2 7282   2.969   4.371   8.305
35129SOL     OW 7283   9.458  11.837   5.200
35129SOL    HW1 7284   9.485  11.878   5.118
35129SOL    HW2 7285   9.417  11.908   5.250
35130SOL     OW 7286   1.514   7.483   6.445
35130SOL    HW1 7287   1.419   7.470   6.448
35130SOL    HW2 7288   1.526   7.550   6.378
35131SOL     OW 7289  14.272   8.913  13.782
35131SOL    HW1 7290  14.285   8.836  13.836
35131SOL    HW2 7291  14.177   8.921  13.773
35132SOL     OW 7292   8.467   2.671  12.615
35132SOL    HW1 7293   8.524   2.711  12.549
35132SOL    HW2 7294   8.497   2.708  12.698
35133SOL     OW 7295   4.203   0.376   3.501
35133SOL    HW1 7296   4.161   0.430   3.434
35133SOL    HW2 7297   4.264   0.436   3.545
35134SOL     OW 7298  10.823  11.645   0.131
35134SOL    HW1 7299  10.819  11.622   0.224
35134SOL    HW2 7300  10.914  11.630   0.107
35135SOL     OW 7301   5.233   6.969  12.888
35135SOL    HW1 7302   5.269   7.002  12.970
35135SOL    HW2 7303   5.208   6.878  12.907
35136SOL     OW 7304   7.008   4.143   4.272
35136SOL    HW1 7305   6.948   4.149   4.198
35136SOL    HW2 7306   7.024   4.234   4.297
35137SOL     OW 7307  10.982   9.296   7.659
35137SOL    HW1 7308  10.916   9.351   7.700
35137SOL    HW2 7309  11.056   9.355   7.645
35138SOL     OW 7310   9.552   8.861   4.843
35138SOL    HW1 7311   9.553   8.948   4.882
35138SOL    HW2 7312   9.523   8.875   4.753
35139SOL     OW 7313   0.393   4.939   7.226
35139SOL    HW1 7314   0.350   4.981   7.300
35139SOL    HW2 7315   0.321   4.906   7.172
35140SOL     OW 7316   3.837  11.902   3.338
35140SOL    HW1 7317   3.897  11.857   3.399
35140SOL    HW2 7318   3.801  11.831   3.284
35141SOL     OW 7319  13.916   2.433  10.277
35141SOL    HW1 7320  13.994   2.378  10.278
35141SOL    HW2 7321  13.939   2.505  10.218
35142SOL     OW 7322   1.636   6.705  13.156
35142SOL    HW1 7323   1.655   6.779  13.098
35142SOL    HW2 7324   1.574   6.651  13.106
35143SOL     OW 7325   3.331   0.755   9.842
35143SOL    HW1 7326   3.298   0.820   9.904
35143SOL    HW2 7327   3.353   0.806   9.764
35144SOL     OW 7328  12.818   9.591   1.144
35144SOL    HW1 7329  12.724   9.608   1.140
35144SOL    HW2 7330  12.826   9.505   1.184
35145SOL     OW 7331  14.711   2.417  11.471
35145SOL    HW1 7332  14.721   2.512  11.475
35145SOL    HW2 7333  14.616   2.403  11.476
35146SOL     OW 7334  11.455   9.488   6.128
35146SOL    HW1 7335  11.493   9.402   6.144
35146SOL    HW2 7336  11.495   9.544   6.195
35147SOL     OW 7337   7.575  13.080  12.685
35147SOL    HW1 7338   7.615  13.097  12.600
35147SOL    HW2 7339   7.523  13.159  12.703
35148SOL     OW 7340  13.584   8.704   2.141
35148SOL    HW1 7341  13.651   8.675   2.203
35148SOL    HW2 7342  13.577   8.632   2.079
35149SOL     OW 7343   5.103   1.671   9.951
35149SOL    HW1 7344   5.097   1.584   9.989
35149SOL    HW2 7345   5.056   1.727  10.013
35150SOL     OW 7346   2.103  10.562   6.856
35150SOL    HW1 7347   2.037  10.619   6.815
35150SOL    HW2 7348   2.132  10.504   6.785
35151SOL     OW 7349   5.039   2.982   1.640
35151SOL    HW1 7350   4.961   2.931   1.620
35151SOL    HW2 7351   5.016   3.032   1.718
35152SOL     OW 7352   7.307   7.763   4.883
35152SOL    HW1 7353   7.306   7.858   4.893
35152SOL    HW2 7354   7.351   7.748   4.799
35153SOL     OW 7355  10.485   7.901   8.667
35153SOL    HW1 7356  10.435   7.858   8.737
35153SOL    HW2 7357  10.575   7.873   8.682
35154SOL     OW 7358   6.927   3.243   6.042
35154SOL    HW1 7359   6.945   3.247   6.136
35154SOL    HW2 7360   6.971   3.321   6.006
35155SOL     OW 7361  13.767   8.876   0.921
35155SOL    HW1 7362  13.803   8.941   0.982
35155SOL    HW2 7363  13.828   8.875   0.848
35156SOL     OW 7364   5.048  14.700  13.735
35156SOL    HW1 7365   5.127  14.682  13.786
35156SOL    HW2 7366   5.077  14.759  13.666
35157SOL     OW 7367  10.581   2.335   2.796
35157SOL    HW1 7368  10.657   2.310   2.743
35157SOL    HW2 7369  10.515   2.268   2.777
35158SOL     OW 7370   9.427   6.251   0.033
35158SOL    HW1 7371   9.521   6.237   0.040
35158SOL    HW2 7372   9.388   6.184   0.090
35159SOL     OW 7373  13.086   6.459   5.895
35159SOL    HW1 7374  13.114   6.399   5.826
35159SOL    HW2 7375  13.149   6.531   5.891
35160SOL     OW 7376   4.731   0.278  13.336
35160SOL    HW1 7377   4.806   0.237  13.379
35160SOL    HW2 7378   4.770   0.338  13.273
35161SOL     OW 7379   0.498   4.423   4.008
35161SOL    HW1 7380   0.411   4.388   4.023
35161SOL    HW2 7381   0.522   4.392   3.920
35162SOL     OW 7382   8.792  12.945   4.040
35162SOL    HW1 7383   8.709  12.897   4.044
35162SOL    HW2 7384   8.856  12.880   4.013
35163SOL     OW 7385  10.508   1.872   0.851
35163SOL    HW1 7386  10.541   1.960   0.829
35163SOL    HW2 7387  10.580   1.831   0.898
35164SOL     OW 7388  13.683  12.867   3.413
35164SOL    HW1 7389  13.651  12.909   3.334
35164SOL    HW2 7390  13.658  12.775   3.403
35165SOL     OW 7391  10.051  12.335  14.224
35165SOL    HW1 7392  10.003  12.291  14.294
35165SOL    HW2 7393  10.041  12.428  14.244
35166SOL     OW 7394   1.396   7.314  12.058
35166SOL    HW1 7395   1.444   7.245  12.104
35166SOL    HW2 7396   1.464   7.376  12.031
35167SOL     OW 7397   7.872   4.624   8.383
35167SOL    HW1 7398   7.953   4.674   8.379
35167SOL    HW2 7399   7.808   4.679   8.337
35168SOL     OW 7400   7.460  14.867   0.795
35168SOL    HW1 7401   7.495   0.062   0.760
35168SOL    HW2 7402   7.536  14.822   0.831
35169SOL     OW 7403   0.235   1.060   5.310
35169SOL    HW1 7404   0.328   1.066   5.289
35169SOL    HW2 7405   0.191   1.067   5.225
35170SOL     OW 7406  13.547   9.707   2.273
35170SOL    HW1 7407  13.546   9.691   2.367
35170SOL    HW2 7408  13.598   9.787   2.262
35171SOL     OW 7409   1.189   2.607  12.947
35171SOL    HW1 7410   1.162   2.683  12.895
35171SOL    HW2 7411   1.133   2.610  13.025
35172SOL     OW 7412   8.375  10.834   8.601
35172SOL    HW1 7413   8.293  10.869   8.566
35172SOL    HW2 7414   8.438  10.845   8.529
35173SOL     OW 7415  12.503   5.903  11.145
35173SOL    HW1 7416  12.532   5.843  11.214
35173SOL    HW2 7417  12.501   5.989  11.187
35174SOL     OW 7418  11.540   7.452   9.855
35174SOL    HW1 7419  11.591   7.401   9.792
35174SOL    HW2 7420  11.459   7.401   9.867
35175SOL     OW 7421   0.842   9.890  10.175
35175SOL    HW1 7422   0.873   9.919  10.089
35175SOL    HW2 7423   0.751   9.866  10.161
35176SOL     OW 7424   4.391   6.597  13.567
35176SOL    HW1 7425   4.296   6.594  13.583
35176SOL    HW2 7426   4.413   6.508  13.537
35177SOL     OW 7427   7.134   2.552   0.374
35177SOL    HW1 7428   7.176   2.487   0.431
35177SOL    HW2 7429   7.190   2.556   0.297
35178SOL     OW 7430   5.157  13.865   5.748
35178SOL    HW1 7431   5.138  13.903   5.833
35178SOL    HW2 7432   5.250  13.881   5.734
35179SOL     OW 7433   7.844   0.101   4.113
35179SOL    HW1 7434   7.779   0.171   4.107
35179SOL    HW2 7435   7.817   0.048   4.188
35180SOL     OW 7436   4.644   5.581   2.181
35180SOL    HW1 7437   4.667   5.639   2.109
35180SOL    HW2 7438   4.595   5.509   2.139
35181SOL     OW 7439  13.192  12.520   1.993
35181SOL    HW1 7440  13.110  12.529   2.042
35181SOL    HW2 7441  13.164  12.517   1.901
35182SOL     OW 7442  10.656   3.662  11.520
35182SOL    HW1 7443  10.704   3.678  11.439
35182SOL    HW2 7444  10.644   3.567  11.523
35183SOL     OW 7445   6.623  12.427   3.747
35183SOL    HW1 7446   6.612  12.375   3.667
35183SOL    HW2 7447   6.586  12.512   3.726
35184SOL     OW 7448   7.107   2.241   5.278
35184SOL    HW1 7449   7.098   2.336   5.285
35184SOL    HW2 7450   7.119   2.225   5.184
35185SOL     OW 7451  13.616  10.020  14.341
35185SOL    HW1 7452  13.641   9.930  14.319
35185SOL    HW2 7453  13.695  10.071  14.327
35186SOL     OW 7454   3.919  14.136   3.257
35186SOL    HW1 7455   3.949  14.064   3.312
35186SOL    HW2 7456   3.933  14.214   3.311
35187SOL     OW 7457  14.860   0.059   5.887
35187SOL    HW1 7458   0.023  14.872   5.920
35187SOL    HW2 7459  14.857   0.121   5.960
35188SOL     OW 7460  10.053   3.876   5.597
35188SOL    HW1 7461  10.055   3.972   5.605
35188SOL    HW2 7462  10.039   3.860   5.504
35189SOL     OW 7463  13.564  12.395   2.785
35189SOL    HW1 7464  13.588  12.467   2.844
35189SOL    HW2 7465  13.526  12.439   2.709
35190SOL     OW 7466   7.008   8.472   9.671
35190SOL    HW1 7467   6.979   8.397   9.723
35190SOL    HW2 7468   6.929   8.525   9.659
35191SOL     OW 7469  14.120  10.406  13.243
35191SOL    HW1 7470  14.132  10.500  13.255
35191SOL    HW2 7471  14.068  10.378  13.318
35192SOL     OW 7472  13.419   8.745   4.049
35192SOL    HW1 7473  13.472   8.822   4.028
35192SOL    HW2 7474  13.370   8.727   3.969
35193SOL     OW 7475  14.276   6.788   7.190
35193SOL    HW1 7476  14.336   6.785   7.264
35193SOL    HW2 7477  14.223   6.866   7.204
35194SOL     OW 7478  13.723   6.657  10.306
35194SOL    HW1 7479  13.773   6.627  10.382
35194SOL    HW2 7480  13.633   6.634  10.327
35195SOL     OW 7481   2.121  14.637   5.558
35195SOL    HW1 7482   2.161  14.694   5.623
35195SOL    HW2 7483   2.099  14.557   5.605
35196SOL     OW 7484  10.254  14.238   7.129
35196SOL    HW1 7485  10.178  14.279   7.088
35196SOL    HW2 7486  10.305  14.203   7.056
35197SOL     OW 7487  11.610  10.461  14.177
35197SOL    HW1 7488  11.532  10.509  14.149
35197SOL    HW2 7489  11.643  10.421  14.096
35198SOL     OW 7490   4.003   3.923   1.970
35198SOL    HW1 7491   4.014   4.015   1.946
35198SOL    HW2 7492   3.953   3.885   1.899
35199SOL     OW 7493   5.764  12.358   5.737
35199SOL    HW1 7494   5.740  12.437   5.689
35199SOL    HW2 7495   5.857  12.345   5.718
35200SOL     OW 7496   4.051   2.626   6.984
35200SOL    HW1 7497   3.993   2.641   7.059
35200SOL    HW2 7498   4.067   2.713   6.948
35201SOL     OW 7499  13.419   1.729  11.651
35201SOL    HW1 7500  13.489   1.750  11.714
35201SOL    HW2 7501  13.466   1.702  11.572
35202SOL     OW 7502   2.237   8.862   0.272
35202SOL    HW1 7503   2.269   8.918   0.201
35202SOL    HW2 7504   2.166   8.914   0.313
35203SOL     OW 7505   1.510  13.151   1.812
35203SOL    HW1 7506   1.562  13.232   1.807
35203SOL    HW2 7507   1.573  13.081   1.793
35204SOL     OW 7508  13.869   9.784   3.535
35204SOL    HW1 7509  13.885   9.696   3.568
35204SOL    HW2 7510  13.933   9.839   3.581
35205SOL     OW 7511  14.775   8.086   5.923
35205SOL    HW1 7512  14.682   8.068   5.933
35205SOL    HW2 7513  14.816   8.049   6.001
35206SOL     OW 7514  12.399   4.172   2.944
35206SOL    HW1 7515  12.315   4.196   2.981
35206SOL    HW2 7516  12.407   4.224   2.864
35207SOL     OW 7517   3.510   2.886   5.927
35207SOL    HW1 7518   3.483   2.859   5.839
35207SOL    HW2 7519   3.492   2.810   5.982
35208SOL     OW 7520  12.236   7.009  10.492
35208SOL    HW1 7521  12.234   6.981  10.401
35208SOL    HW2 7522  12.324   6.986  10.523
35209SOL     OW 7523   0.103   3.622   2.192
35209SOL    HW1 7524   0.020   3.591   2.155
35209SOL    HW2 7525   0.163   3.549   2.182
35210SOL     OW 7526   3.303   1.518   2.831
35210SOL    HW1 7527   3.339   1.430   2.825
35210SOL    HW2 7528   3.330   1.561   2.750
35211SOL     OW 7529  12.694  10.922   6.382
35211SOL    HW1 7530  12.776  10.902   6.338
35211SOL    HW2 7531  12.633  10.942   6.312
35212SOL     OW 7532  12.253  11.439   5.993
35212SOL    HW1 7533  12.281  11.474   5.909
35212SOL    HW2 7534  12.283  11.503   6.057
35213SOL     OW 7535   4.427   5.667   9.273
35213SOL    HW1 7536   4.374   5.676   9.193
35213SOL    HW2 7537   4.487   5.594   9.253
35214SOL     OW 7538   1.733   2.407  12.710
35214SOL    HW1 7539   1.662   2.469  12.693
35214SOL    HW2 7540   1.752   2.368  12.625
35215SOL     OW 7541  11.813  13.556   0.147
35215SOL    HW1 7542  11.870  13.590   0.079
35215SOL    HW2 7543  11.775  13.635   0.187
35216SOL     OW 7544   9.372   6.787   5.099
35216SOL    HW1 7545   9.456   6.833   5.091
35216SOL    HW2 7546   9.356   6.781   5.193
35217SOL     OW 7547   5.522   3.148   2.657
35217SOL    HW1 7548   5.613   3.121   2.653
35217SOL    HW2 7549   5.508   3.199   2.578
35218SOL     OW 7550   4.007  13.061  10.352
35218SOL    HW1 7551   4.090  13.101  10.376
35218SOL    HW2 7552   3.964  13.126  10.296
35219SOL     OW 7553   5.544  14.165   6.450
35219SOL    HW1 7554   5.561  14.120   6.534
35219SOL    HW2 7555   5.456  14.138   6.426
35220SOL     OW 7556  13.575   3.678  13.081
35220SOL    HW1 7557  13.666   3.697  13.103
35220SOL    HW2 7558  13.542   3.760  13.042
35221SOL     OW 7559   9.814   1.606   7.832
35221SOL    HW1 7560   9.724   1.575   7.837
35221SOL    HW2 7561   9.807   1.702   7.832
35222SOL     OW 7562   0.779  14.395  11.344
35222SOL    HW1 7563   0.796  14.488  11.358
35222SOL    HW2 7564   0.715  14.393  11.273
35223SOL     OW 7565   2.307   4.497  14.877
35223SOL    HW1 7566   2.398   4.498   0.020
35223SOL    HW2 7567   2.259   4.543   0.058
35224SOL     OW 7568   7.027   8.279   5.093
35224SOL    HW1 7569   7.026   8.184   5.098
35224SOL    HW2 7570   7.120   8.302   5.096
35225SOL     OW 7571  14.459   3.236  13.952
35225SOL    HW1 7572  14.479   3.264  13.863
35225SOL    HW2 7573  14.364   3.248  13.961
35226SOL     OW 7574   1.820   7.739   4.022
35226SOL    HW1 7575   1.895   7.682   4.007
35226SOL    HW2 7576   1.744   7.680   4.025
35227SOL     OW 7577   5.940   8.195   4.462
35227SOL    HW1 7578   6.022   8.148   4.477
35227SOL    HW2 7579   5.922   8.238   4.545
35228SOL     OW 7580  10.762  14.768  12.497
35228SOL    HW1 7581  10.689  14.711  12.474
35228SOL    HW2 7582  10.779  14.749  12.590
35229SOL     OW 7583   5.630   5.595  11.351
35229SOL    HW1 7584   5.598   5.621  11.265
35229SOL    HW2 7585   5.681   5.516  11.335
35230SOL     OW 7586   8.456   9.686   2.943
35230SOL    HW1 7587   8.518   9.616   2.926
35230SOL    HW2 7588   8.501   9.766   2.915
35231SOL     OW 7589  10.829  13.587  12.991
35231SOL    HW1 7590  10.771  13.623  13.058
35231SOL    HW2 7591  10.772  13.573  12.915
35232SOL     OW 7592  13.132   1.689   1.538
35232SOL    HW1 7593  13.044   1.719   1.514
35232SOL    HW2 7594  13.122   1.648   1.624
35233SOL     OW 7595  10.033  13.218   7.782
35233SOL    HW1 7596  10.013  13.135   7.737
35233SOL    HW2 7597  10.128  13.226   7.777
35234SOL     OW 7598   3.024   4.248   3.012
35234SOL    HW1 7599   2.948   4.210   3.056
35234SOL    HW2 7600   3.015   4.220   2.921
35235SOL     OW 7601   8.115   6.150   9.223
35235SOL    HW1 7602   8.055   6.103   9.282
35235SOL    HW2 7603   8.201   6.114   9.244
35236SOL     OW 7604  10.128   9.087   6.174
35236SOL    HW1 7605  10.185   9.015   6.148
35236SOL    HW2 7606  10.040   9.059   6.149
35237SOL     OW 7607   6.452   1.651   2.054
35237SOL    HW1 7608   6.375   1.646   1.997
35237SOL    HW2 7609   6.417   1.636   2.142
35238SOL     OW 7610   2.648  12.183   8.526
35238SOL    HW1 7611   2.574  12.153   8.579
35238SOL    HW2 7612   2.617  12.177   8.436
35239SOL     OW 7613  13.594  14.062  14.022
35239SOL    HW1 7614  13.579  14.040  13.929
35239SOL    HW2 7615  13.529  14.010  14.069
35240SOL     OW 7616  13.830   6.592  11.047
35240SOL    HW1 7617  13.819   6.535  10.971
35240SOL    HW2 7618  13.794   6.542  11.120
35241SOL     OW 7619   2.163   8.422   5.839
35241SOL    HW1 7620   2.172   8.331   5.812
35241SOL    HW2 7621   2.245   8.463   5.811
35242SOL     OW 7622  13.318   2.950   5.336
35242SOL    HW1 7623  13.360   2.963   5.251
35242SOL    HW2 7624  13.319   3.036   5.377
35243SOL     OW 7625   1.354   9.665   9.726
35243SOL    HW1 7626   1.402   9.629   9.651
35243SOL    HW2 7627   1.423   9.702   9.782
35244SOL     OW 7628  13.090   1.563   1.138
35244SOL    HW1 7629  13.181   1.533   1.129
35244SOL    HW2 7630  13.044   1.487   1.173
35245SOL     OW 7631   8.866  12.174   7.917
35245SOL    HW1 7632   8.942  12.148   7.970
35245SOL    HW2 7633   8.837  12.093   7.876
35246SOL     OW 7634   8.226  12.004   2.666
35246SOL    HW1 7635   8.232  12.057   2.586
35246SOL    HW2 7636   8.252  11.916   2.638
35247SOL     OW 7637  10.535   5.101   0.799
35247SOL    HW1 7638  10.495   5.143   0.723
35247SOL    HW2 7639  10.552   5.011   0.770
35248SOL     OW 7640   5.043  12.120   6.105
35248SOL    HW1 7641   5.079  12.208   6.090
35248SOL    HW2 7642   5.086  12.090   6.185
35249SOL     OW 7643  11.287  14.016  10.409
35249SOL    HW1 7644  11.381  14.010  10.394
35249SOL    HW2 7645  11.279  14.049  10.498
35250SOL     OW 7646   2.591   9.322   2.649
35250SOL    HW1 7647   2.682   9.343   2.628
35250SOL    HW2 7648   2.586   9.332   2.744
35251SOL     OW 7649  14.300   0.626   3.153
35251SOL    HW1 7650  14.210   0.609   3.182
35251SOL    HW2 7651  14.349   0.549   3.181
35252SOL     OW 7652  13.377   1.612   9.918
35252SOL    HW1 7653  13.466   1.614   9.882
35252SOL    HW2 7654  13.387   1.641  10.009
35253SOL     OW 7655   7.765   9.421  13.216
35253SOL    HW1 7656   7.838   9.375  13.256
35253SOL    HW2 7657   7.726   9.471  13.288
35254SOL     OW 7658  13.199   8.944   4.924
35254SOL    HW1 7659  13.257   8.948   4.848
35254SOL    HW2 7660  13.131   8.881   4.899
35255SOL     OW 7661   5.245   3.480   0.613
35255SOL    HW1 7662   5.274   3.494   0.523
35255SOL    HW2 7663   5.150   3.465   0.605
35256SOL     OW 7664  10.467   6.006   5.000
35256SOL    HW1 7665  10.531   6.077   5.008
35256SOL    HW2 7666  10.514   5.938   4.952
35257SOL     OW 7667   4.118   8.835   3.812
35257SOL    HW1 7668   4.190   8.778   3.785
35257SOL    HW2 7669   4.152   8.924   3.799
35258SOL     OW 7670   8.559   2.004  14.162
35258SOL    HW1 7671   8.464   2.006  14.145
35258SOL    HW2 7672   8.585   2.096  14.163
35259SOL     OW 7673   6.178   3.458   8.975
35259SOL    HW1 7674   6.104   3.398   8.963
35259SOL    HW2 7675   6.159   3.530   8.915
35260SOL     OW 7676   1.400   3.369  14.086
35260SOL    HW1 7677   1.329   3.432  14.089
35260SOL    HW2 7678   1.434   3.375  13.997
35261SOL     OW 7679  10.224  11.225   4.332
35261SOL    HW1 7680  10.130  11.220   4.351
35261SOL    HW2 7681  10.264  11.170   4.399
35262SOL     OW 7682   5.595   8.651   2.114
35262SOL    HW1 7683   5.546   8.661   2.196
35262SOL    HW2 7684   5.527   8.634   2.048
35263SOL     OW 7685   9.667   8.272   7.845
35263SOL    HW1 7686   9.637   8.211   7.912
35263SOL    HW2 7687   9.745   8.230   7.808
35264SOL     OW 7688   6.312   3.480  12.558
35264SOL    HW1 7689   6.400   3.445  12.566
35264SOL    HW2 7690   6.287   3.461  12.468
35265SOL     OW 7691   2.452  11.679   8.430
35265SOL    HW1 7692   2.452  11.600   8.375
35265SOL    HW2 7693   2.435  11.646   8.518
35266SOL     OW 7694   6.736  11.516  10.006
35266SOL    HW1 7695   6.760  11.577  10.075
35266SOL    HW2 7696   6.812  11.514   9.948
35267SOL     OW 7697   1.268  11.104  14.445
35267SOL    HW1 7698   1.210  11.030  14.463
35267SOL    HW2 7699   1.217  11.160  14.386
35268SOL     OW 7700  10.137   0.763  11.357
35268SOL    HW1 7701  10.073   0.833  11.348
35268SOL    HW2 7702  10.138   0.743  11.451
35269SOL     OW 7703  10.555  12.735   8.084
35269SOL    HW1 7704  10.569  12.825   8.113
35269SOL    HW2 7705  10.617  12.723   8.012
35270SOL     OW 7706   7.963  12.187   6.172
35270SOL    HW1 7707   8.010  12.269   6.159
35270SOL    HW2 7708   7.974  12.167   6.265
35271SOL     OW 7709  14.499  13.533   8.894
35271SOL    HW1 7710  14.429  13.597   8.889
35271SOL    HW2 7711  14.575  13.577   8.856
35272SOL     OW 7712   6.699   6.447  10.889
35272SOL    HW1 7713   6.760   6.432  10.961
35272SOL    HW2 7714   6.756   6.460  10.813
35273SOL     OW 7715   5.763   6.147   7.155
35273SOL    HW1 7716   5.701   6.190   7.213
35273SOL    HW2 7717   5.820   6.097   7.214
35274SOL     OW 7718   4.583  10.510  12.934
35274SOL    HW1 7719   4.640  10.566  12.882
35274SOL    HW2 7720   4.640  10.441  12.966
35275SOL     OW 7721   2.717   4.078   1.280
35275SOL    HW1 7722   2.679   4.155   1.237
35275SOL    HW2 7723   2.663   4.005   1.250
35276SOL     OW 7724   1.202   2.545   2.085
35276SOL    HW1 7725   1.131   2.562   2.147
35276SOL    HW2 7726   1.257   2.623   2.090
35277SOL     OW 7727   9.019  14.415  11.702
35277SOL    HW1 7728   8.957  14.369  11.758
35277SOL    HW2 7729   8.978  14.415  11.616
35278SOL     OW 7730   4.188   7.012   8.261
35278SOL    HW1 7731   4.199   7.063   8.180
35278SOL    HW2 7732   4.157   6.927   8.231
35279SOL     OW 7733   8.730   6.927  12.350
35279SOL    HW1 7734   8.797   6.960  12.290
35279SOL    HW2 7735   8.766   6.943  12.437
35280SOL     OW 7736   4.852  10.602   9.561
35280SOL    HW1 7737   4.901  10.577   9.639
35280SOL    HW2 7738   4.896  10.558   9.489
35281SOL     OW 7739   7.918   9.142  14.841
35281SOL    HW1 7740   7.843   9.097  14.800
35281SOL    HW2 7741   7.995   9.105  14.797
35282SOL     OW 7742   6.187   4.206  14.124
35282SOL    HW1 7743   6.226   4.125  14.155
35282SOL    HW2 7744   6.110   4.219  14.180
35283SOL     OW 7745   9.945  13.417   3.402
35283SOL    HW1 7746  10.037  13.394   3.385
35283SOL    HW2 7747   9.921  13.364   3.478
35284SOL     OW 7748  14.523   1.960   8.562
35284SOL    HW1 7749  14.457   1.974   8.630
35284SOL    HW2 7750  14.472   1.936   8.484
35285SOL     OW 7751   3.091  10.239   9.033
35285SOL    HW1 7752   2.996  10.251   9.033
35285SOL    HW2 7753   3.118  10.257   9.123
35286SOL     OW 7754   6.103  11.835  11.859
35286SOL    HW1 7755   6.105  11.742  11.835
35286SOL    HW2 7756   6.043  11.875  11.796
35287SOL     OW 7757  14.481  12.432   6.003
35287SOL    HW1 7758  14.511  12.508   5.954
35287SOL    HW2 7759  14.483  12.360   5.939
35288SOL     OW 7760   6.547  13.537   3.997
35288SOL    HW1 7761   6.629  13.543   4.046
35288SOL    HW2 7762   6.518  13.447   4.011
35289SOL     OW 7763   6.386  13.735   6.398
35289SOL    HW1 7764   6.448  13.800   6.431
35289SOL    HW2 7765   6.388  13.664   6.462
35290SOL     OW 7766   9.041   1.631   2.743
35290SOL    HW1 7767   8.997   1.710   2.777
35290SOL    HW2 7768   8.999   1.615   2.659
35291SOL     OW 7769   2.259   3.065   2.888
35291SOL    HW1 7770   2.259   2.990   2.947
35291SOL    HW2 7771   2.241   3.141   2.944
35292SOL     OW 7772  13.584  14.762   3.032
35292SOL    HW1 7773  13.539  14.782   2.949
35292SOL    HW2 7774  13.570  14.668   3.044
35293SOL     OW 7775   3.455   4.344  12.278
35293SOL    HW1 7776   3.434   4.288  12.203
35293SOL    HW2 7777   3.550   4.349  12.278
35294SOL     OW 7778  12.667  10.371   6.832
35294SOL    HW1 7779  12.617  10.448   6.858
35294SOL    HW2 7780  12.626  10.342   6.750
35295SOL     OW 7781  13.235   1.433   4.693
35295SOL    HW1 7782  13.280   1.488   4.757
35295SOL    HW2 7783  13.213   1.354   4.740
35296SOL     OW 7784   8.117   8.612   5.277
35296SOL    HW1 7785   8.057   8.548   5.241
35296SOL    HW2 7786   8.112   8.687   5.217
35297SOL     OW 7787  12.399   8.860   2.056
35297SOL    HW1 7788  12.488   8.886   2.033
35297SOL    HW2 7789  12.408   8.771   2.090
35298SOL     OW 7790   9.230   7.310  14.019
35298SOL    HW1 7791   9.182   7.375  14.070
35298SOL    HW2 7792   9.275   7.256  14.084
35299SOL     OW 7793  12.051   7.781  13.625
35299SOL    HW1 7794  12.075   7.787  13.718
35299SOL    HW2 7795  12.134   7.763  13.580
35300SOL     OW 7796   1.832   1.116   9.466
35300SOL    HW1 7797   1.737   1.122   9.477
35300SOL    HW2 7798   1.859   1.205   9.446
35301SOL     OW 7799   1.706  11.998  11.277
35301SOL    HW1 7800   1.667  12.086  11.269
35301SOL    HW2 7801   1.783  12.000  11.220
35302SOL     OW 7802  10.970   1.530   8.802
35302SOL    HW1 7803  10.906   1.460   8.812
35302SOL    HW2 7804  11.055   1.486   8.811
35303SOL     OW 7805   3.892   7.395   3.793
35303SOL    HW1 7806   3.850   7.421   3.710
35303SOL    HW2 7807   3.906   7.478   3.839
35304SOL     OW 7808   7.883  10.209   7.254
35304SOL    HW1 7809   7.794  10.230   7.282
35304SOL    HW2 7810   7.907  10.133   7.307
35305SOL     OW 7811   9.966   7.397   2.026
35305SOL    HW1 7812  10.058   7.373   2.010
35305SOL    HW2 7813   9.946   7.462   1.959
35306SOL     OW 7814   3.087   2.277   9.270
35306SOL    HW1 7815   3.071   2.187   9.242
35306SOL    HW2 7816   3.027   2.329   9.217
35307SOL     OW 7817  12.195   5.322  14.678
35307SOL    HW1 7818  12.192   5.319  14.774
35307SOL    HW2 7819  12.132   5.391  14.655
35308SOL     OW 7820   0.365  10.920   3.582
35308SOL    HW1 7821   0.356  10.873   3.664
35308SOL    HW2 7822   0.441  10.878   3.539
35309SOL     OW 7823   2.322  11.032  13.951
35309SOL    HW1 7824   2.339  11.061  13.861
35309SOL    HW2 7825   2.308  10.938  13.944
35310SOL     OW 7826  13.726   9.704   9.982
35310SOL    HW1 7827  13.665   9.726  10.053
35310SOL    HW2 7828  13.672   9.656   9.918
35311SOL     OW 7829   2.864   9.673   3.480
35311SOL    HW1 7830   2.821   9.753   3.510
35311SOL    HW2 7831   2.913   9.642   3.556
35312SOL     OW 7832   3.400   2.956   3.532
35312SOL    HW1 7833   3.317   2.930   3.573
35312SOL    HW2 7834   3.380   2.966   3.439
35313SOL     OW 7835  13.874   3.908  13.891
35313SOL    HW1 7836  13.818   3.843  13.932
35313SOL    HW2 7837  13.885   3.976  13.957
35314SOL     OW 7838  12.819  10.954   2.180
35314SOL    HW1 7839  12.878  11.021   2.145
35314SOL    HW2 7840  12.756  10.938   2.110
35315SOL     OW 7841  13.182   3.891   1.178
35315SOL    HW1 7842  13.178   3.948   1.255
35315SOL    HW2 7843  13.110   3.829   1.191
35316SOL     OW 7844   6.080   4.651  13.532
35316SOL    HW1 7845   6.000   4.702  13.521
35316SOL    HW2 7846   6.050   4.561  13.541
35317SOL     OW 7847   4.626  11.159  14.550
35317SOL    HW1 7848   4.568  11.179  14.476
35317SOL    HW2 7849   4.641  11.065  14.544
35318SOL     OW 7850   0.205  10.099   6.996
35318SOL    HW1 7851   0.160  10.183   6.997
35318SOL    HW2 7852   0.253  10.098   6.913
35319SOL     OW 7853  10.768   9.303   3.863
35319SOL    HW1 7854  10.839   9.357   3.828
35319SOL    HW2 7855  10.795   9.213   3.844
35320SOL     OW 7856   8.640  10.197   0.811
35320SOL    HW1 7857   8.674  10.285   0.830
35320SOL    HW2 7858   8.546  10.209   0.806
35321SOL     OW 7859  13.342   8.271   3.146
35321SOL    HW1 7860  13.343   8.245   3.053
35321SOL    HW2 7861  13.284   8.207   3.188
35322SOL     OW 7862   9.189   2.600   7.731
35322SOL    HW1 7863   9.162   2.681   7.688
35322SOL    HW2 7864   9.227   2.629   7.814
35323SOL     OW 7865   3.303  14.032   2.189
35323SOL    HW1 7866   3.230  14.039   2.250
35323SOL    HW2 7867   3.375  13.996   2.241
35324SOL     OW 7868   9.455   0.305   1.331
35324SOL    HW1 7869   9.428   0.240   1.396
35324SOL    HW2 7870   9.516   0.258   1.274
35325SOL     OW 7871   9.457   3.655   1.574
35325SOL    HW1 7872   9.471   3.703   1.493
35325SOL    HW2 7873   9.539   3.609   1.589
35326SOL     OW 7874   0.625   1.439   9.102
35326SOL    HW1 7875   0.685   1.504   9.065
35326SOL    HW2 7876   0.560   1.491   9.150
35327SOL     OW 7877   5.321   6.035  14.338
35327SOL    HW1 7878   5.291   6.023  14.428
35327SOL    HW2 7879   5.306   5.950  14.297
35328SOL     OW 7880   6.274  13.415   2.793
35328SOL    HW1 7881   6.302  13.423   2.885
35328SOL    HW2 7882   6.240  13.325   2.787
35329SOL     OW 7883   8.088   4.370   3.754
35329SOL    HW1 7884   8.131   4.285   3.747
35329SOL    HW2 7885   8.068   4.394   3.664
35330SOL     OW 7886   7.065   3.237   0.350
35330SOL    HW1 7887   7.035   3.153   0.314
35330SOL    HW2 7888   7.016   3.303   0.301
35331SOL     OW 7889   6.234   8.295   2.131
35331SOL    HW1 7890   6.286   8.255   2.062
35331SOL    HW2 7891   6.190   8.368   2.088
35332SOL     OW 7892  10.703   4.254  10.280
35332SOL    HW1 7893  10.664   4.251  10.192
35332SOL    HW2 7894  10.794   4.277  10.265
35333SOL     OW 7895   5.927   7.822   6.526
35333SOL    HW1 7896   5.930   7.815   6.622
35333SOL    HW2 7897   6.002   7.772   6.496
35334SOL     OW 7898   5.457   3.762  10.006
35334SOL    HW1 7899   5.541   3.805  10.022
35334SOL    HW2 7900   5.404   3.829   9.964
35335SOL     OW 7901  11.183   6.182  11.668
35335SOL    HW1 7902  11.107   6.206  11.616
35335SOL    HW2 7903  11.170   6.225  11.752
35336SOL     OW 7904   5.464   1.845   6.511
35336SOL    HW1 7905   5.404   1.812   6.578
35336SOL    HW2 7906   5.426   1.815   6.428
35337SOL     OW 7907   0.672   0.023  14.160
35337SOL    HW1 7908   0.612  14.876  14.227
35337SOL    HW2 7909   0.697  14.833  14.109
35338SOL     OW 7910   3.315   6.150   1.651
35338SOL    HW1 7911   3.261   6.070   1.648
35338SOL    HW2 7912   3.389   6.126   1.707
35339SOL     OW 7913   1.809   2.570   1.134
35339SOL    HW1 7914   1.780   2.609   1.052
35339SOL    HW2 7915   1.780   2.631   1.202
35340SOL     OW 7916  13.639   9.252   6.862
35340SOL    HW1 7917  13.579   9.327   6.861
35340SOL    HW2 7918  13.722   9.288   6.891
35341SOL     OW 7919   6.902   0.842   5.263
35341SOL    HW1 7920   6.858   0.912   5.215
35341SOL    HW2 7921   6.930   0.780   5.196
35342SOL     OW 7922   8.222  11.322  13.029
35342SOL    HW1 7923   8.156  11.340  12.963
35342SOL    HW2 7924   8.250  11.232  13.012
35343SOL     OW 7925   4.548   8.610  12.316
35343SOL    HW1 7926   4.640   8.585  12.304
35343SOL    HW2 7927   4.511   8.540  12.369
35344SOL     OW 7928   3.702  10.708  12.228
35344SOL    HW1 7929   3.740  10.681  12.144
35344SOL    HW2 7930   3.776  10.742  12.277
35345SOL     OW 7931   8.441  14.390  12.226
35345SOL    HW1 7932   8.378  14.338  12.277
35345SOL    HW2 7933   8.390  14.426  12.154
35346SOL     OW 7934   6.313   4.977  11.075
35346SOL    HW1 7935   6.280   5.059  11.040
35346SOL    HW2 7936   6.242   4.915  11.061
35347SOL     OW 7937   8.977   9.318   1.456
35347SOL    HW1 7938   9.031   9.251   1.498
35347SOL    HW2 7939   9.034   9.355   1.388
35348SOL     OW 7940  11.269  12.079   6.882
35348SOL    HW1 7941  11.270  12.150   6.945
35348SOL    HW2 7942  11.311  12.006   6.928
35349SOL     OW 7943   5.949   5.967   7.273
35349SOL    HW1 7944   5.984   6.017   7.347
35349SOL    HW2 7945   6.025   5.946   7.220
35350SOL     OW 7946   6.463  14.801   7.144
35350SOL    HW1 7947   6.451  14.767   7.233
35350SOL    HW2 7948   6.380  14.785   7.100
35351SOL     OW 7949   2.982   8.177   4.215
35351SOL    HW1 7950   2.987   8.175   4.310
35351SOL    HW2 7951   3.013   8.264   4.191
35352SOL     OW 7952   7.013  11.859   2.930
35352SOL    HW1 7953   6.990  11.927   2.867
35352SOL    HW2 7954   6.949  11.870   3.001
35353SOL     OW 7955   1.403   3.110   6.898
35353SOL    HW1 7956   1.443   3.075   6.819
35353SOL    HW2 7957   1.329   3.051   6.916
35354SOL     OW 7958  11.527   4.800  12.549
35354SOL    HW1 7959  11.613   4.799  12.591
35354SOL    HW2 7960  11.539   4.752  12.467
35355SOL     OW 7961  14.599  12.881   1.358
35355SOL    HW1 7962  14.589  12.896   1.452
35355SOL    HW2 7963  14.544  12.805   1.340
35356SOL     OW 7964   8.687   2.629  10.867
35356SOL    HW1 7965   8.632   2.597  10.939
35356SOL    HW2 7966   8.647   2.590  10.789
35357SOL     OW 7967  11.518  13.267   7.869
35357SOL    HW1 7968  11.588  13.286   7.932
35357SOL    HW2 7969  11.561  13.264   7.784
35358SOL     OW 7970   5.148  12.320   1.298
35358SOL    HW1 7971   5.100  12.274   1.367
35358SOL    HW2 7972   5.080  12.368   1.251
35359SOL     OW 7973   5.839   5.266   3.372
35359SOL    HW1 7974   5.899   5.239   3.442
35359SOL    HW2 7975   5.757   5.220   3.392
35360SOL     OW 7976  11.118   3.465  10.419
35360SOL    HW1 7977  11.205   3.453  10.457
35360SOL    HW2 7978  11.111   3.560  10.406
35361SOL     OW 7979   9.392   3.914  12.405
35361SOL    HW1 7980   9.447   3.974  12.456
35361SOL    HW2 7981   9.378   3.959  12.322
35362SOL     OW 7982   4.676   1.775   3.416
35362SOL    HW1 7983   4.717   1.775   3.329
35362SOL    HW2 7984   4.599   1.719   3.406
35363SOL     OW 7985   6.150   9.953  10.651
35363SOL    HW1 7986   6.150   9.947  10.746
35363SOL    HW2 7987   6.106  10.036  10.631
35364SOL     OW 7988   6.290   6.213  14.121
35364SOL    HW1 7989   6.363   6.275  14.126
35364SOL    HW2 7990   6.331   6.130  14.096
35365SOL     OW 7991   0.035   4.976   9.094
35365SOL    HW1 7992   0.090   4.926   9.034
35365SOL    HW2 7993  14.869   4.910   9.138
35366SOL     OW 7994  10.168   3.414   9.322
35366SOL    HW1 7995  10.095   3.461   9.281
35366SOL    HW2 7996  10.244   3.438   9.269
35367SOL     OW 7997   5.815   8.413   2.801
35367SOL    HW1 7998   5.735   8.371   2.770
35367SOL    HW2 7999   5.856   8.448   2.722
35368SOL     OW 8000  13.441   4.183   4.569
35368SOL    HW1 8001  13.427   4.205   4.477
35368SOL    HW2 8002  13.534   4.201   4.583
35369SOL     OW 8003   1.560   1.007  11.464
35369SOL    HW1 8004   1.499   0.999  11.537
35369SOL    HW2 8005   1.570   0.918  11.432
35370SOL     OW 8006  14.352   4.255   9.847
35370SOL    HW1 8007  14.324   4.346   9.837
35370SOL    HW2 8008  14.376   4.248   9.939
35371SOL     OW 8009  12.046  14.674   0.206
35371SOL    HW1 8010  11.973  14.680   0.268
35371SOL    HW2 8011  12.057  14.762   0.172
35372SOL     OW 8012  12.103   8.790  14.754
35372SOL    HW1 8013  12.047   8.803  14.678
35372SOL    HW2 8014  12.082   8.862  14.813
35373SOL     OW 8015   2.206  14.295   5.446
35373SOL    HW1 8016   2.229  14.202   5.437
35373SOL    HW2 8017   2.156  14.315   5.367
35374SOL     OW 8018   8.800  11.808   4.590
35374SOL    HW1 8019   8.737  11.791   4.520
35374SOL    HW2 8020   8.884  11.815   4.546
35375SOL     OW 8021  14.029   4.397   9.953
35375SOL    HW1 8022  14.094   4.401  10.023
35375SOL    HW2 8023  14.041   4.479   9.905
35376SOL     OW 8024   4.525   6.803   6.450
35376SOL    HW1 8025   4.513   6.727   6.507
35376SOL    HW2 8026   4.602   6.781   6.397
35377SOL     OW 8027  14.067  12.954  14.384
35377SOL    HW1 8028  14.155  12.986  14.364
35377SOL    HW2 8029  14.081  12.869  14.426
35378SOL     OW 8030   0.896   4.070   1.812
35378SOL    HW1 8031   0.850   3.998   1.768
35378SOL    HW2 8032   0.986   4.039   1.821
35379SOL     OW 8033  11.864   3.419   1.746
35379SOL    HW1 8034  11.892   3.460   1.827
35379SOL    HW2 8035  11.793   3.474   1.714
35380SOL     OW 8036   5.953   0.197  13.652
35380SOL    HW1 8037   5.932   0.266  13.589
35380SOL    HW2 8038   5.870   0.149  13.662
35381SOL     OW 8039   5.091  14.718   7.278
35381SOL    HW1 8040   5.117  14.628   7.259
35381SOL    HW2 8041   5.143  14.741   7.356
35382SOL     OW 8042  11.321  10.518  11.307
35382SOL    HW1 8043  11.344  10.591  11.365
35382SOL    HW2 8044  11.398  10.507  11.251
35383SOL     OW 8045   2.237   1.574  12.269
35383SOL    HW1 8046   2.194   1.646  12.314
35383SOL    HW2 8047   2.168   1.532  12.218
35384SOL     OW 8048   1.369   0.685   0.254
35384SOL    HW1 8049   1.388   0.591   0.251
35384SOL    HW2 8050   1.446   0.724   0.294
35385SOL     OW 8051  13.908  13.259   2.106
35385SOL    HW1 8052  13.830  13.262   2.160
35385SOL    HW2 8053  13.876  13.238   2.018
35386SOL     OW 8054   1.396   6.083   5.038
35386SOL    HW1 8055   1.331   6.124   4.981
35386SOL    HW2 8056   1.384   5.989   5.023
35387SOL     OW 8057   6.208   4.235   4.464
35387SOL    HW1 8058   6.150   4.306   4.436
35387SOL    HW2 8059   6.160   4.192   4.535
35388SOL     OW 8060  12.792   0.568   8.370
35388SOL    HW1 8061  12.727   0.626   8.331
35388SOL    HW2 8062  12.757   0.548   8.457
35389SOL     OW 8063   8.426   8.498  14.766
35389SOL    HW1 8064   8.490   8.447  14.716
35389SOL    HW2 8065   8.342   8.456  14.746
35390SOL     OW 8066   8.280  12.871  13.883
35390SOL    HW1 8067   8.259  12.953  13.839
35390SOL    HW2 8068   8.245  12.803  13.826
35391SOL     OW 8069  13.275   4.688  14.656
35391SOL    HW1 8070  13.303   4.780  14.650
35391SOL    HW2 8071  13.180   4.694  14.668
35392SOL     OW 8072  11.795   2.488   5.270
35392SOL    HW1 8073  11.750   2.472   5.187
35392SOL    HW2 8074  11.727   2.479   5.336
35393SOL     OW 8075   3.776  11.770   6.801
35393SOL    HW1 8076   3.716  11.719   6.747
35393SOL    HW2 8077   3.741  11.859   6.797
35394SOL     OW 8078   9.268  12.214   7.689
35394SOL    HW1 8079   9.203  12.144   7.698
35394SOL    HW2 8080   9.234  12.269   7.619
35395SOL     OW 8081   7.401   7.691   1.096
35395SOL    HW1 8082   7.401   7.690   1.000
35395SOL    HW2 8083   7.313   7.659   1.120
35396SOL     OW 8084   5.119   7.116   5.569
35396SOL    HW1 8085   5.214   7.119   5.581
35396SOL    HW2 8086   5.107   7.125   5.474
35397SOL     OW 8087  10.686   6.449  14.813
35397SOL    HW1 8088  10.709   6.364  14.775
35397SOL    HW2 8089  10.672   6.431   0.018
35398SOL     OW 8090   1.155  12.036  13.346
35398SOL    HW1 8091   1.066  12.002  13.334
35398SOL    HW2 8092   1.167  12.099  13.275
35399SOL     OW 8093   5.919  12.751   3.596
35399SOL    HW1 8094   5.928  12.683   3.663
35399SOL    HW2 8095   5.825  12.761   3.584
35400SOL     OW 8096   7.289   6.038  14.398
35400SOL    HW1 8097   7.246   5.977  14.459
35400SOL    HW2 8098   7.251   6.123  14.420
35401SOL     OW 8099   9.413   7.790   1.707
35401SOL    HW1 8100   9.331   7.751   1.738
35401SOL    HW2 8101   9.440   7.735   1.634
35402SOL     OW 8102  13.702   0.052   9.568
35402SOL    HW1 8103  13.660   0.137   9.554
35402SOL    HW2 8104  13.629  14.879   9.579
35403SOL     OW 8105   6.802   3.448  11.975
35403SOL    HW1 8106   6.888   3.414  11.998
35403SOL    HW2 8107   6.741   3.377  11.997
35404SOL     OW 8108  12.252   6.027  11.549
35404SOL    HW1 8109  12.254   6.104  11.492
35404SOL    HW2 8110  12.162   6.021  11.579
35405SOL     OW 8111   4.801   3.522   4.613
35405SOL    HW1 8112   4.777   3.612   4.588
35405SOL    HW2 8113   4.780   3.469   4.536
35406SOL     OW 8114  11.112   9.046  12.110
35406SOL    HW1 8115  11.132   8.994  12.033
35406SOL    HW2 8116  11.164   9.007  12.180
35407SOL     OW 8117  14.696   4.804   3.795
35407SOL    HW1 8118  14.780   4.821   3.751
35407SOL    HW2 8119  14.713   4.825   3.887
35408SOL     OW 8120   4.769   3.286  10.717
35408SOL    HW1 8121   4.681   3.289  10.755
35408SOL    HW2 8122   4.825   3.251  10.786
35409SOL     OW 8123  12.250  14.033   0.958
35409SOL    HW1 8124  12.325  14.083   0.925
35409SOL    HW2 8125  12.183  14.099   0.976
35410SOL     OW 8126   8.488   4.941  11.657
35410SOL    HW1 8127   8.565   4.885  11.670
35410SOL    HW2 8128   8.414   4.880  11.655
35411SOL     OW 8129  14.051  12.410   9.296
35411SOL    HW1 8130  14.079  12.498   9.322
35411SOL    HW2 8131  14.113  12.385   9.228
35412SOL     OW 8132   3.715   3.485  14.606
35412SOL    HW1 8133   3.671   3.520  14.683
35412SOL    HW2 8134   3.729   3.561  14.550
35413SOL     OW 8135   1.179   4.500   7.653
35413SOL    HW1 8136   1.097   4.480   7.698
35413SOL    HW2 8137   1.204   4.586   7.687
35414SOL     OW 8138   9.812  12.921   3.193
35414SOL    HW1 8139   9.799  12.944   3.285
35414SOL    HW2 8140   9.727  12.888   3.164
35415SOL     OW 8141  10.997   1.883   5.769
35415SOL    HW1 8142  10.995   1.940   5.692
35415SOL    HW2 8143  11.019   1.797   5.735
35416SOL     OW 8144   5.399  12.991  12.910
35416SOL    HW1 8145   5.458  13.040  12.854
35416SOL    HW2 8146   5.330  12.960  12.851
35417SOL     OW 8147   3.339  12.309   7.842
35417SOL    HW1 8148   3.282  12.375   7.804
35417SOL    HW2 8149   3.392  12.356   7.907
35418SOL     OW 8150  11.451  13.556   1.271
35418SOL    HW1 8151  11.420  13.643   1.299
35418SOL    HW2 8152  11.373  13.512   1.240
35419SOL     OW 8153   0.376  10.502   5.562
35419SOL    HW1 8154   0.387  10.443   5.487
35419SOL    HW2 8155   0.308  10.461   5.615
35420SOL     OW 8156   8.988  12.953   3.284
35420SOL    HW1 8157   9.000  12.881   3.346
35420SOL    HW2 8158   9.028  12.921   3.203
35421SOL     OW 8159   0.573   0.942   2.975
35421SOL    HW1 8160   0.528   0.884   3.036
35421SOL    HW2 8161   0.633   0.993   3.030
35422SOL     OW 8162   4.528   4.125   9.015
35422SOL    HW1 8163   4.597   4.151   8.954
35422SOL    HW2 8164   4.548   4.034   9.037
35423SOL     OW 8165  11.142  12.642   6.421
35423SOL    HW1 8166  11.185  12.565   6.458
35423SOL    HW2 8167  11.159  12.711   6.485
35424SOL     OW 8168   3.984  14.338   3.455
35424SOL    HW1 8169   3.990  14.433   3.456
35424SOL    HW2 8170   3.918  14.317   3.521
35425SOL     OW 8171   5.736  14.119   7.640
35425SOL    HW1 8172   5.719  14.171   7.719
35425SOL    HW2 8173   5.673  14.047   7.645
35426SOL     OW 8174   9.848   9.483   2.001
35426SOL    HW1 8175   9.814   9.546   2.064
35426SOL    HW2 8176   9.811   9.510   1.917
35427SOL     OW 8177   8.938   1.919   6.174
35427SOL    HW1 8178   8.908   1.828   6.177
35427SOL    HW2 8179   9.034   1.912   6.166
35428SOL     OW 8180   1.540   5.368   9.061
35428SOL    HW1 8181   1.492   5.290   9.034
35428SOL    HW2 8182   1.585   5.342   9.141
35429SOL     OW 8183   0.867   2.041  14.834
35429SOL    HW1 8184   0.930   2.003  14.772
35429SOL    HW2 8185   0.858   1.976   0.015
35430SOL     OW 8186   8.836   3.390   3.452
35430SOL    HW1 8187   8.767   3.328   3.429
35430SOL    HW2 8188   8.844   3.383   3.547
35431SOL     OW 8189  12.135  12.065   5.614
35431SOL    HW1 8190  12.078  11.993   5.590
35431SOL    HW2 8191  12.078  12.125   5.662
35432SOL     OW 8192   5.957  10.257   8.421
35432SOL    HW1 8193   5.976  10.332   8.477
35432SOL    HW2 8194   5.861  10.253   8.419
35433SOL     OW 8195  10.410   2.148  13.404
35433SOL    HW1 8196  10.331   2.136  13.457
35433SOL    HW2 8197  10.426   2.243  13.406
35434SOL     OW 8198  13.048  10.015  14.704
35434SOL    HW1 8199  13.081   9.948  14.644
35434SOL    HW2 8200  13.037   9.969  14.788
35435SOL     OW 8201   8.333   2.465   2.429
35435SOL    HW1 8202   8.309   2.526   2.359
35435SOL    HW2 8203   8.415   2.426   2.399
35436SOL     OW 8204  14.017   3.987  10.636
35436SOL    HW1 8205  13.985   3.931  10.707
35436SOL    HW2 8206  14.087   4.039  10.676
35437SOL     OW 8207   4.722  10.934   0.941
35437SOL    HW1 8208   4.787  10.939   0.871
35437SOL    HW2 8209   4.734  11.014   0.991
35438SOL     OW 8210  14.118   8.211  12.761
35438SOL    HW1 8211  14.070   8.187  12.682
35438SOL    HW2 8212  14.153   8.298  12.743
35439SOL     OW 8213   3.613   3.739   9.565
35439SOL    HW1 8214   3.523   3.760   9.540
35439SOL    HW2 8215   3.667   3.796   9.510
35440SOL     OW 8216   7.894  12.857  13.835
35440SOL    HW1 8217   7.930  12.914  13.904
35440SOL    HW2 8218   7.870  12.917  13.764
35441SOL     OW 8219   3.519   0.186  10.941
35441SOL    HW1 8220   3.447   0.213  10.999
35441SOL    HW2 8221   3.498   0.096  10.918
35442SOL     OW 8222  12.186  11.873  11.766
35442SOL    HW1 8223  12.235  11.820  11.704
35442SOL    HW2 8224  12.222  11.961  11.757
35443SOL     OW 8225  11.753   9.883   4.033
35443SOL    HW1 8226  11.788   9.796   4.052
35443SOL    HW2 8227  11.825   9.929   3.990
35444SOL     OW 8228   5.957   6.743   9.312
35444SOL    HW1 8229   5.966   6.736   9.217
35444SOL    HW2 8230   6.045   6.723   9.345
35445SOL     OW 8231   4.544   5.895   2.800
35445SOL    HW1 8232   4.563   5.887   2.706
35445SOL    HW2 8233   4.448   5.896   2.804
35446SOL     OW 8234  12.149  11.053  10.163
35446SOL    HW1 8235  12.133  11.050  10.257
35446SOL    HW2 8236  12.071  11.011  10.125
35447SOL     OW 8237   4.151   1.018  12.293
35447SOL    HW1 8238   4.057   1.007  12.305
35447SOL    HW2 8239   4.188   1.007  12.381
35448SOL     OW 8240  12.913   3.180   9.670
35448SOL    HW1 8241  12.992   3.151   9.625
35448SOL    HW2 8242  12.847   3.188   9.601
35449SOL     OW 8243  11.607  11.083   9.166
35449SOL    HW1 8244  11.665  11.152   9.134
35449SOL    HW2 8245  11.544  11.069   9.095
35450SOL     OW 8246   3.484  13.612   9.573
35450SOL    HW1 8247   3.568  13.659   9.570
35450SOL    HW2 8248   3.429  13.666   9.631
35451SOL     OW 8249   7.693  13.014   9.207
35451SOL    HW1 8250   7.625  13.055   9.261
35451SOL    HW2 8251   7.773  13.022   9.259
35452SOL     OW 8252   9.316   3.802  13.335
35452SOL    HW1 8253   9.372   3.876  13.356
35452SOL    HW2 8254   9.325   3.790  13.240
35453SOL     OW 8255  13.051   3.226   8.407
35453SOL    HW1 8256  13.082   3.292   8.345
35453SOL    HW2 8257  13.042   3.274   8.490
35454SOL     OW 8258   3.540  14.050   2.325
35454SOL    HW1 8259   3.589  14.132   2.317
35454SOL    HW2 8260   3.514  14.046   2.417
35455SOL     OW 8261   5.892  13.974   9.956
35455SOL    HW1 8262   5.942  14.055   9.972
35455SOL    HW2 8263   5.957  13.904   9.963
35456SOL     OW 8264   3.407   8.736  14.109
35456SOL    HW1 8265   3.352   8.683  14.167
35456SOL    HW2 8266   3.451   8.672  14.054
35457SOL     OW 8267   0.289   0.069   9.347
35457SOL    HW1 8268   0.371   0.072   9.397
35457SOL    HW2 8269   0.316   0.043   9.258
35458SOL     OW 8270   7.825   7.328   4.303
35458SOL    HW1 8271   7.884   7.403   4.303
35458SOL    HW2 8272   7.882   7.252   4.296
35459SOL     OW 8273   6.290   3.422   4.101
35459SOL    HW1 8274   6.385   3.428   4.109
35459SOL    HW2 8275   6.256   3.472   4.175
35460SOL     OW 8276  12.015   4.604   5.544
35460SOL    HW1 8277  12.003   4.694   5.513
35460SOL    HW2 8278  12.044   4.614   5.635
35461SOL     OW 8279  14.851  11.613   6.205
35461SOL    HW1 8280  14.772  11.636   6.254
35461SOL    HW2 8281  14.873  11.525   6.236
35462SOL     OW 8282   2.627  13.843   8.466
35462SOL    HW1 8283   2.572  13.766   8.452
35462SOL    HW2 8284   2.638  13.882   8.379
35463SOL     OW 8285  12.987  10.663   4.344
35463SOL    HW1 8286  13.042  10.605   4.291
35463SOL    HW2 8287  12.969  10.737   4.286
35464SOL     OW 8288   5.030   4.972   6.301
35464SOL    HW1 8289   4.961   5.024   6.260
35464SOL    HW2 8290   5.013   4.980   6.395
35465SOL     OW 8291  13.286   5.979  11.434
35465SOL    HW1 8292  13.217   5.930  11.390
35465SOL    HW2 8293  13.249   6.002  11.519
35466SOL     OW 8294   3.889   3.497   3.680
35466SOL    HW1 8295   3.827   3.462   3.744
35466SOL    HW2 8296   3.969   3.446   3.695
35467SOL     OW 8297  10.597   2.265   7.423
35467SOL    HW1 8298  10.541   2.207   7.474
35467SOL    HW2 8299  10.677   2.215   7.409
35468SOL     OW 8300   3.672  14.256  14.413
35468SOL    HW1 8301   3.630  14.338  14.440
35468SOL    HW2 8302   3.660  14.197  14.487
35469SOL     OW 8303   1.826  11.917   7.805
35469SOL    HW1 8304   1.822  11.975   7.881
35469SOL    HW2 8305   1.877  11.965   7.740
35470SOL     OW 8306   4.165   0.405   2.309
35470SOL    HW1 8307   4.086   0.426   2.259
35470SOL    HW2 8308   4.132   0.369   2.391
35471SOL     OW 8309   5.306   5.714   6.633
35471SOL    HW1 8310   5.359   5.793   6.622
35471SOL    HW2 8311   5.256   5.707   6.551
35472SOL     OW 8312   6.800   4.041  14.249
35472SOL    HW1 8313   6.843   3.995  14.321
35472SOL    HW2 8314   6.864   4.040  14.178
35473SOL     OW 8315   2.472  13.800   5.453
35473SOL    HW1 8316   2.563  13.828   5.441
35473SOL    HW2 8317   2.477  13.706   5.467
35474SOL     OW 8318  14.656   2.669  10.911
35474SOL    HW1 8319  14.562   2.685  10.911
35474SOL    HW2 8320  14.673   2.623  10.992
35475SOL     OW 8321  12.273   1.096  10.935
35475SOL    HW1 8322  12.194   1.056  10.898
35475SOL    HW2 8323  12.245   1.131  11.020
35476SOL     OW 8324   6.953   6.916   2.404
35476SOL    HW1 8325   6.871   6.872   2.382
35476SOL    HW2 8326   6.949   6.927   2.499
35477SOL     OW 8327   3.751   7.283  12.271
35477SOL    HW1 8328   3.752   7.331  12.353
35477SOL    HW2 8329   3.808   7.207  12.286
35478SOL     OW 8330   2.543   0.302   9.534
35478SOL    HW1 8331   2.493   0.384   9.527
35478SOL    HW2 8332   2.634   0.330   9.522
35479SOL     OW 8333   3.045   7.459   2.231
35479SOL    HW1 8334   3.113   7.404   2.191
35479SOL    HW2 8335   3.024   7.415   2.313
35480SOL     OW 8336  13.416   0.791   8.730
35480SOL    HW1 8337  13.446   0.851   8.798
35480SOL    HW2 8338  13.323   0.779   8.747
35481SOL     OW 8339  14.073   1.921   9.415
35481SOL    HW1 8340  14.136   1.970   9.467
35481SOL    HW2 8341  13.990   1.932   9.461
35482SOL     OW 8342  12.761  13.862  12.446
35482SOL    HW1 8343  12.847  13.821  12.441
35482SOL    HW2 8344  12.718  13.818  12.520
35483SOL     OW 8345  12.818  13.141   2.186
35483SOL    HW1 8346  12.830  13.053   2.149
35483SOL    HW2 8347  12.798  13.126   2.278
35484SOL     OW 8348  12.205   6.402   3.140
35484SOL    HW1 8349  12.282   6.347   3.150
35484SOL    HW2 8350  12.149   6.354   3.078
35485SOL     OW 8351   2.454   8.816   7.463
35485SOL    HW1 8352   2.478   8.734   7.504
35485SOL    HW2 8353   2.478   8.805   7.371
35486SOL     OW 8354  12.398   4.813   0.292
35486SOL    HW1 8355  12.435   4.734   0.332
35486SOL    HW2 8356  12.329   4.840   0.352
35487SOL     OW 8357   2.662   5.161  14.426
35487SOL    HW1 8358   2.727   5.179  14.358
35487SOL    HW2 8359   2.610   5.089  14.390
35488SOL     OW 8360   2.093   8.641   2.590
35488SOL    HW1 8361   2.090   8.713   2.653
35488SOL    HW2 8362   2.168   8.587   2.618
35489SOL     OW 8363   9.463   1.028   9.451
35489SOL    HW1 8364   9.446   0.949   9.399
35489SOL    HW2 8365   9.520   1.081   9.397
35490SOL     OW 8366  10.137  14.791  14.538
35490SOL    HW1 8367  10.047  14.808  14.567
35490SOL    HW2 8368  10.145  14.696  14.540
35491SOL     OW 8369   8.023  10.504   1.369
35491SOL    HW1 8370   8.060  10.425   1.407
35491SOL    HW2 8371   8.010  10.483   1.277
35492SOL     OW 8372   1.501   1.185   2.332
35492SOL    HW1 8373   1.466   1.097   2.350
35492SOL    HW2 8374   1.441   1.222   2.267
35493SOL     OW 8375   1.828   9.833   7.769
35493SOL    HW1 8376   1.840   9.909   7.825
35493SOL    HW2 8377   1.763   9.780   7.815
35494SOL     OW 8378  13.463   2.305   0.432
35494SOL    HW1 8379  13.474   2.226   0.484
35494SOL    HW2 8380  13.550   2.321   0.394
35495SOL     OW 8381   1.691  10.238   7.841
35495SOL    HW1 8382   1.663  10.210   7.755
35495SOL    HW2 8383   1.773  10.285   7.825
35496SOL     OW 8384   5.765  14.160   3.812
35496SOL    HW1 8385   5.755  14.091   3.747
35496SOL    HW2 8386   5.706  14.135   3.883
35497SOL     OW 8387   0.778  10.783   8.449
35497SOL    HW1 8388   0.846  10.770   8.383
35497SOL    HW2 8389   0.819  10.757   8.532
35498SOL     OW 8390   7.704   6.804  12.436
35498SOL    HW1 8391   7.632   6.743  12.422
35498SOL    HW2 8392   7.670   6.888  12.407
35499SOL     OW 8393   7.371   3.897   5.557
35499SOL    HW1 8394   7.381   3.942   5.641
35499SOL    HW2 8395   7.444   3.835   5.554
35500SOL     OW 8396   2.844   0.001  10.061
35500SOL    HW1 8397   2.761   0.038  10.033
35500SOL    HW2 8398   2.824  14.842  10.142
35501SOL     OW 8399   5.476   1.298  13.163
35501SOL    HW1 8400   5.503   1.305  13.072
35501SOL    HW2 8401   5.389   1.338  13.165
35502SOL     OW 8402  11.883   2.872  13.515
35502SOL    HW1 8403  11.902   2.964  13.499
35502SOL    HW2 8404  11.968   2.828  13.508
35503SOL     OW 8405   5.391  12.765   5.480
35503SOL    HW1 8406   5.385  12.846   5.429
35503SOL    HW2 8407   5.421  12.699   5.418
35504SOL     OW 8408   6.117  12.350   8.580
35504SOL    HW1 8409   6.072  12.342   8.496
35504SOL    HW2 8410   6.081  12.431   8.618
35505SOL     OW 8411   3.421   4.236   1.072
35505SOL    HW1 8412   3.413   4.234   0.977
35505SOL    HW2 8413   3.454   4.323   1.092
35506SOL     OW 8414   5.201   0.826   4.743
35506SOL    HW1 8415   5.262   0.753   4.729
35506SOL    HW2 8416   5.207   0.878   4.663
35507SOL     OW 8417   8.021   2.149  12.114
35507SOL    HW1 8418   8.056   2.204  12.044
35507SOL    HW2 8419   8.091   2.086  12.133
35508SOL     OW 8420   2.419  12.619   0.751
35508SOL    HW1 8421   2.396  12.566   0.675
35508SOL    HW2 8422   2.335  12.651   0.785
35509SOL     OW 8423   8.060   6.573   1.071
35509SOL    HW1 8424   7.971   6.594   1.041
35509SOL    HW2 8425   8.048   6.500   1.131
35510SOL     OW 8426   6.051  13.265  14.096
35510SOL    HW1 8427   6.006  13.182  14.079
35510SOL    HW2 8428   6.026  13.287  14.186
35511SOL     OW 8429  12.430   7.204   0.538
35511SOL    HW1 8430  12.493   7.133   0.544
35511SOL    HW2 8431  12.443   7.241   0.451
35512SOL     OW 8432  10.657   9.347  14.330
35512SOL    HW1 8433  10.566   9.334  14.359
35512SOL    HW2 8434  10.683   9.262  14.296
35513SOL     OW 8435  11.147   8.090   3.894
35513SOL    HW1 8436  11.184   8.092   3.982
35513SOL    HW2 8437  11.216   8.126   3.838
35514SOL     OW 8438   1.813   9.323   8.383
35514SOL    HW1 8439   1.882   9.319   8.317
35514SOL    HW2 8440   1.822   9.240   8.431
35515SOL     OW 8441   4.247   9.555   1.476
35515SOL    HW1 8442   4.200   9.601   1.406
35515SOL    HW2 8443   4.336   9.545   1.442
35516SOL     OW 8444   9.469   7.265   6.202
35516SOL    HW1 8445   9.411   7.333   6.237
35516SOL    HW2 8446   9.522   7.237   6.276
35517SOL     OW 8447  12.093  13.845   5.565
35517SOL    HW1 8448  12.188  13.859   5.558
35517SOL    HW2 8449  12.055  13.914   5.511
35518SOL     OW 8450   2.052  13.989  11.234
35518SOL    HW1 8451   2.080  14.073  11.270
35518SOL    HW2 8452   1.961  14.003  11.208
35519SOL     OW 8453  13.308   9.431   3.415
35519SOL    HW1 8454  13.375   9.394   3.358
35519SOL    HW2 8455  13.271   9.503   3.363
35520SOL     OW 8456  14.209   6.333   6.262
35520SOL    HW1 8457  14.240   6.420   6.285
35520SOL    HW2 8458  14.191   6.338   6.168
35521SOL     OW 8459   8.419   4.820   5.750
35521SOL    HW1 8460   8.325   4.837   5.738
35521SOL    HW2 8461   8.433   4.834   5.844
35522SOL     OW 8462   7.877   1.035  10.858
35522SOL    HW1 8463   7.795   0.987  10.853
35522SOL    HW2 8464   7.893   1.045  10.952
35523SOL     OW 8465   3.519   2.458   8.989
35523SOL    HW1 8466   3.581   2.459   9.062
35523SOL    HW2 8467   3.557   2.398   8.925
35524SOL     OW 8468  12.552  10.044   8.066
35524SOL    HW1 8469  12.557  10.114   8.001
35524SOL    HW2 8470  12.595   9.970   8.025
35525SOL     OW 8471   1.935   4.571   5.350
35525SOL    HW1 8472   2.007   4.633   5.357
35525SOL    HW2 8473   1.867   4.606   5.408
35526SOL     OW 8474   7.102   6.909   6.765
35526SOL    HW1 8475   7.057   6.916   6.681
35526SOL    HW2 8476   7.142   6.994   6.779
35527SOL     OW 8477   8.067  12.229   3.084
35527SOL    HW1 8478   8.070  12.166   3.013
35527SOL    HW2 8479   8.011  12.300   3.051
35528SOL     OW 8480   2.973   4.144   4.518
35528SOL    HW1 8481   3.027   4.123   4.595
35528SOL    HW2 8482   3.036   4.157   4.448
35529SOL     OW 8483  13.066   4.938   2.540
35529SOL    HW1 8484  12.979   4.938   2.580
35529SOL    HW2 8485  13.070   4.856   2.491
35530SOL     OW 8486   7.744   2.807   8.394
35530SOL    HW1 8487   7.669   2.811   8.453
35530SOL    HW2 8488   7.791   2.890   8.409
35531SOL     OW 8489  10.238  11.080   9.055
35531SOL    HW1 8490  10.260  10.987   9.048
35531SOL    HW2 8491  10.166  11.092   8.993
35532SOL     OW 8492   6.009   6.280   2.287
35532SOL    HW1 8493   6.081   6.306   2.344
35532SOL    HW2 8494   5.951   6.356   2.284
35533SOL     OW 8495   6.060   4.389  10.904
35533SOL    HW1 8496   6.122   4.317  10.902
35533SOL    HW2 8497   6.056   4.420  10.813
35534SOL     OW 8498   7.059   7.278   9.696
35534SOL    HW1 8499   6.979   7.258   9.744
35534SOL    HW2 8500   7.034   7.276   9.604
35535SOL     OW 8501   6.219   3.752  13.045
35535SOL    HW1 8502   6.183   3.840  13.051
35535SOL    HW2 8503   6.142   3.696  13.031
35536SOL     OW 8504  11.915   2.590   0.763
35536SOL    HW1 8505  11.834   2.581   0.713
35536SOL    HW2 8506  11.916   2.514   0.821
35537SOL     OW 8507  10.634  13.501   0.213
35537SOL    HW1 8508  10.699  13.524   0.280
35537SOL    HW2 8509  10.560  13.467   0.262
35538SOL     OW 8510   3.102   4.783   5.089
35538SOL    HW1 8511   3.159   4.855   5.061
35538SOL    HW2 8512   3.018   4.801   5.048
35539SOL     OW 8513  11.889   3.865   9.847
35539SOL    HW1 8514  11.945   3.865   9.769
35539SOL    HW2 8515  11.811   3.816   9.820
35540SOL     OW 8516  11.267  12.761   8.377
35540SOL    HW1 8517  11.275  12.853   8.352
35540SOL    HW2 8518  11.311  12.713   8.307
35541SOL     OW 8519   1.588   1.912   9.170
35541SOL    HW1 8520   1.561   2.001   9.148
35541SOL    HW2 8521   1.513   1.857   9.145
35542SOL     OW 8522   1.121   5.607   4.040
35542SOL    HW1 8523   1.155   5.527   4.079
35542SOL    HW2 8524   1.027   5.595   4.037
35543SOL     OW 8525  10.710  14.423   2.604
35543SOL    HW1 8526  10.662  14.434   2.522
35543SOL    HW2 8527  10.726  14.329   2.610
35544SOL     OW 8528  11.192   6.317   2.187
35544SOL    HW1 8529  11.224   6.331   2.098
35544SOL    HW2 8530  11.186   6.222   2.196
35545SOL     OW 8531   1.012  13.978  14.467
35545SOL    HW1 8532   1.024  13.933  14.383
35545SOL    HW2 8533   1.052  13.920  14.531
35546SOL     OW 8534   6.525   0.436  11.488
35546SOL    HW1 8535   6.556   0.441  11.578
35546SOL    HW2 8536   6.533   0.343  11.464
35547SOL     OW 8537   9.686   8.707   1.815
35547SOL    HW1 8538   9.688   8.662   1.899
35547SOL    HW2 8539   9.674   8.638   1.750
35548SOL     OW 8540   1.083   6.162  12.147
35548SOL    HW1 8541   1.107   6.103  12.076
35548SOL    HW2 8542   1.136   6.240  12.133
35549SOL     OW 8543   7.718   5.824   5.538
35549SOL    HW1 8544   7.770   5.885   5.591
35549SOL    HW2 8545   7.781   5.760   5.506
35550SOL     OW 8546  12.405   7.594  12.590
35550SOL    HW1 8547  12.488   7.548  12.597
35550SOL    HW2 8548  12.411   7.644  12.509
35551SOL     OW 8549   7.795  13.953   0.434
35551SOL    HW1 8550   7.700  13.947   0.439
35551SOL    HW2 8551   7.825  13.862   0.429
35552SOL     OW 8552   7.704   8.103   6.211
35552SOL    HW1 8553   7.758   8.094   6.133
35552SOL    HW2 8554   7.750   8.166   6.266
35553SOL     OW 8555   3.214   1.791   7.152
35553SOL    HW1 8556   3.175   1.704   7.139
35553SOL    HW2 8557   3.228   1.824   7.063
35554SOL     OW 8558   7.235   3.693   3.698
35554SOL    HW1 8559   7.306   3.757   3.705
35554SOL    HW2 8560   7.170   3.735   3.643
35555SOL     OW 8561   9.403  14.777   7.137
35555SOL    HW1 8562   9.395  14.761   7.231
35555SOL    HW2 8563   9.383  14.870   7.126
35556SOL     OW 8564  12.188  10.750  10.226
35556SOL    HW1 8565  12.163  10.775  10.137
35556SOL    HW2 8566  12.139  10.669  10.242
35557SOL     OW 8567   2.864  14.663   4.274
35557SOL    HW1 8568   2.778  14.625   4.256
35557SOL    HW2 8569   2.865  14.674   4.369
35558SOL     OW 8570   3.658   8.451   5.718
35558SOL    HW1 8571   3.642   8.470   5.810
35558SOL    HW2 8572   3.737   8.396   5.718
35559SOL     OW 8573   6.781   8.570   3.577
35559SOL    HW1 8574   6.755   8.601   3.491
35559SOL    HW2 8575   6.712   8.602   3.636
35560SOL     OW 8576   1.938   4.449  13.880
35560SOL    HW1 8577   1.983   4.465  13.963
35560SOL    HW2 8578   1.868   4.514  13.879
35561SOL     OW 8579   7.895   9.815   6.288
35561SOL    HW1 8580   7.810   9.848   6.257
35561SOL    HW2 8581   7.883   9.721   6.294
35562SOL     OW 8582   8.006   7.942   2.012
35562SOL    HW1 8583   8.074   8.009   2.016
35562SOL    HW2 8584   7.944   7.966   2.081
35563SOL     OW 8585   2.751   0.384   8.913
35563SOL    HW1 8586   2.718   0.473   8.924
35563SOL    HW2 8587   2.812   0.390   8.840
35564SOL     OW 8588  12.362   4.986   9.454
35564SOL    HW1 8589  12.449   4.946   9.457
35564SOL    HW2 8590  12.301   4.914   9.468
35565SOL     OW 8591   2.656  10.198  11.047
35565SOL    HW1 8592   2.673  10.293  11.047
35565SOL    HW2 8593   2.570  10.190  11.088
35566SOL     OW 8594   9.180   9.296  10.016
35566SOL    HW1 8595   9.129   9.358   9.963
35566SOL    HW2 8596   9.122   9.221  10.026
35567SOL     OW 8597   2.390   2.879   8.245
35567SOL    HW1 8598   2.365   2.960   8.199
35567SOL    HW2 8599   2.443   2.910   8.319
35568SOL     OW 8600  11.662   1.782   2.620
35568SOL    HW1 8601  11.699   1.841   2.686
35568SOL    HW2 8602  11.576   1.819   2.599
35569SOL     OW 8603   4.991   3.756  11.015
35569SOL    HW1 8604   4.992   3.683  11.078
35569SOL    HW2 8605   4.953   3.829  11.063
35570SOL     OW 8606  14.140   7.127  14.806
35570SOL    HW1 8607  14.109   7.196  14.865
35570SOL    HW2 8608  14.067   7.065  14.803
35571SOL     OW 8609   5.458   4.366  14.744
35571SOL    HW1 8610   5.485   4.340  14.656
35571SOL    HW2 8611   5.539   4.398  14.785
35572SOL     OW 8612  14.556  10.077   9.479
35572SOL    HW1 8613  14.501  10.019   9.426
35572SOL    HW2 8614  14.616  10.117   9.415
35573SOL     OW 8615  12.677   8.084   3.507
35573SOL    HW1 8616  12.740   8.041   3.450
35573SOL    HW2 8617  12.720   8.166   3.533
35574SOL     OW 8618   1.555   8.241   6.622
35574SOL    HW1 8619   1.499   8.182   6.672
35574SOL    HW2 8620   1.503   8.262   6.543
35575SOL     OW 8621   8.912   1.030  13.923
35575SOL    HW1 8622   8.973   0.970  13.966
35575SOL    HW2 8623   8.862   1.068  13.995
35576SOL     OW 8624   6.151   7.489   8.800
35576SOL    HW1 8625   6.185   7.462   8.885
35576SOL    HW2 8626   6.058   7.466   8.804
35577SOL     OW 8627  14.614   7.687   5.658
35577SOL    HW1 8628  14.633   7.623   5.726
35577SOL    HW2 8629  14.628   7.772   5.700
35578SOL     OW 8630   8.811  12.282   3.198
35578SOL    HW1 8631   8.760  12.210   3.160
35578SOL    HW2 8632   8.836  12.251   3.285
35579SOL     OW 8633   2.450   6.637  13.932
35579SOL    HW1 8634   2.416   6.551  13.957
35579SOL    HW2 8635   2.377   6.680  13.887
35580SOL     OW 8636   6.220   3.090  13.574
35580SOL    HW1 8637   6.146   3.044  13.534
35580SOL    HW2 8638   6.256   3.028  13.638
35581SOL     OW 8639   1.772  12.042   8.488
35581SOL    HW1 8640   1.828  11.985   8.541
35581SOL    HW2 8641   1.759  12.120   8.541
35582SOL     OW 8642   7.691  11.434  12.500
35582SOL    HW1 8643   7.724  11.495  12.434
35582SOL    HW2 8644   7.765  11.375  12.517
35583SOL     OW 8645   8.239   3.729   2.819
35583SOL    HW1 8646   8.251   3.684   2.735
35583SOL    HW2 8647   8.174   3.677   2.865
35584SOL     OW 8648   4.996   2.646  12.703
35584SOL    HW1 8649   4.995   2.662  12.797
35584SOL    HW2 8650   4.907   2.664  12.674
35585SOL     OW 8651   4.250   4.276   4.134
35585SOL    HW1 8652   4.251   4.199   4.078
35585SOL    HW2 8653   4.286   4.347   4.080
35586SOL     OW 8654  11.564   2.765   0.070
35586SOL    HW1 8655  11.596   2.736   0.156
35586SOL    HW2 8656  11.640   2.801   0.026
35587SOL     OW 8657  10.538  11.853   2.770
35587SOL    HW1 8658  10.629  11.867   2.795
35587SOL    HW2 8659  10.490  11.854   2.852
35588SOL     OW 8660   7.637   2.299   4.397
35588SOL    HW1 8661   7.552   2.340   4.412
35588SOL    HW2 8662   7.669   2.278   4.485
35589SOL     OW 8663  12.155   2.562   1.584
35589SOL    HW1 8664  12.110   2.557   1.668
35589SOL    HW2 8665  12.121   2.487   1.534
35590SOL     OW 8666   7.079  11.676   7.522
35590SOL    HW1 8667   7.014  11.664   7.452
35590SOL    HW2 8668   7.160  11.640   7.486
35591SOL     OW 8669  11.926   8.660   2.050
35591SOL    HW1 8670  11.936   8.636   1.958
35591SOL    HW2 8671  12.007   8.632   2.091
35592SOL     OW 8672   7.820   5.447   3.767
35592SOL    HW1 8673   7.727   5.425   3.764
35592SOL    HW2 8674   7.860   5.386   3.705
35593SOL     OW 8675  14.157   6.120  12.403
35593SOL    HW1 8676  14.211   6.195  12.426
35593SOL    HW2 8677  14.074   6.133  12.449
35594SOL     OW 8678  12.029  14.713   5.546
35594SOL    HW1 8679  11.991  14.661   5.475
35594SOL    HW2 8680  12.030  14.803   5.512
35595SOL     OW 8681   0.208   0.994  12.702
35595SOL    HW1 8682   0.214   0.933  12.775
35595SOL    HW2 8683   0.295   0.992  12.662
35596SOL     OW 8684  14.455  11.010   9.781
35596SOL    HW1 8685  14.385  11.018   9.717
35596SOL    HW2 8686  14.460  11.095   9.824
35597SOL     OW 8687   4.269   8.021   2.299
35597SOL    HW1 8688   4.322   7.942   2.309
35597SOL    HW2 8689   4.188   7.991   2.257
35598SOL     OW 8690   8.939   4.269   5.777
35598SOL    HW1 8691   8.954   4.289   5.869
35598SOL    HW2 8692   8.972   4.180   5.766
35599SOL     OW 8693  10.934   0.947   1.667
35599SOL    HW1 8694  10.843   0.933   1.642
35599SOL    HW2 8695  10.983   0.932   1.587
35600SOL     OW 8696  11.265   9.317  12.584
35600SOL    HW1 8697  11.172   9.299  12.575
35600SOL    HW2 8698  11.301   9.300  12.497
35601SOL     OW 8699   6.931   6.332  14.156
35601SOL    HW1 8700   7.007   6.282  14.126
35601SOL    HW2 8701   6.876   6.267  14.201
35602SOL     OW 8702  12.996   0.472  11.175
35602SOL    HW1 8703  13.056   0.415  11.128
35602SOL    HW2 8704  13.033   0.479  11.263
35603SOL     OW 8705   7.431   9.409   6.835
35603SOL    HW1 8706   7.408   9.410   6.928
35603SOL    HW2 8707   7.347   9.411   6.789
35604SOL     OW 8708   0.609   9.397   6.472
35604SOL    HW1 8709   0.639   9.333   6.407
35604SOL    HW2 8710   0.584   9.343   6.547
35605SOL     OW 8711  10.916   0.059  13.207
35605SOL    HW1 8712  10.873   0.144  13.200
35605SOL    HW2 8713  10.977   0.068  13.280
35606SOL     OW 8714   8.195  11.602  12.438
35606SOL    HW1 8715   8.220  11.694  12.447
35606SOL    HW2 8716   8.278  11.557  12.420
35607SOL     OW 8717   1.295   7.115  11.899
35607SOL    HW1 8718   1.302   7.159  11.984
35607SOL    HW2 8719   1.278   7.186  11.837
35608SOL     OW 8720   1.915   9.918  13.408
35608SOL    HW1 8721   1.916   9.882  13.497
35608SOL    HW2 8722   1.877  10.006  13.419
35609SOL     OW 8723   6.087  13.093   8.141
35609SOL    HW1 8724   6.073  13.185   8.164
35609SOL    HW2 8725   6.045  13.083   8.056
35610SOL     OW 8726  14.334   3.913   6.582
35610SOL    HW1 8727  14.366   4.003   6.597
35610SOL    HW2 8728  14.290   3.890   6.664
35611SOL     OW 8729   1.897  11.322  14.724
35611SOL    HW1 8730   1.876  11.237  14.762
35611SOL    HW2 8731   1.813  11.360  14.700
35612SOL     OW 8732   9.081  10.182   0.400
35612SOL    HW1 8733   9.002  10.136   0.427
35612SOL    HW2 8734   9.113  10.131   0.325
35613SOL     OW 8735   4.253   8.873   7.834
35613SOL    HW1 8736   4.265   8.850   7.926
35613SOL    HW2 8737   4.259   8.790   7.787
35614SOL     OW 8738   5.241   4.019   9.217
35614SOL    HW1 8739   5.305   3.957   9.181
35614SOL    HW2 8740   5.211   3.978   9.298
35615SOL     OW 8741   6.696   8.067   9.358
35615SOL    HW1 8742   6.786   8.044   9.382
35615SOL    HW2 8743   6.654   8.088   9.441
35616SOL     OW 8744   6.217   9.499   0.610
35616SOL    HW1 8745   6.240   9.587   0.579
35616SOL    HW2 8746   6.162   9.515   0.687
35617SOL     OW 8747  12.195   5.846   1.116
35617SOL    HW1 8748  12.118   5.789   1.113
35617SOL    HW2 8749  12.243   5.816   1.193
35618SOL     OW 8750   7.120   1.664   3.748
35618SOL    HW1 8751   7.137   1.730   3.681
35618SOL    HW2 8752   7.026   1.649   3.745
35619SOL     OW 8753   0.056   8.929  13.887
35619SOL    HW1 8754  14.862   8.961  13.925
35619SOL    HW2 8755   0.034   8.903  13.798
35620SOL     OW 8756   7.638  14.083  13.013
35620SOL    HW1 8757   7.714  14.115  13.060
35620SOL    HW2 8758   7.564  14.130  13.051
35621SOL     OW 8759   3.000   3.398  11.970
35621SOL    HW1 8760   3.061   3.326  11.960
35621SOL    HW2 8761   2.913   3.358  11.966
35622SOL     OW 8762  13.872   2.741   0.805
35622SOL    HW1 8763  13.877   2.798   0.729
35622SOL    HW2 8764  13.797   2.683   0.787
35623SOL     OW 8765   1.557  12.985   8.795
35623SOL    HW1 8766   1.599  12.899   8.793
35623SOL    HW2 8767   1.539  13.001   8.888
35624SOL     OW 8768   5.658   1.161   5.247
35624SOL    HW1 8769   5.745   1.173   5.284
35624SOL    HW2 8770   5.674   1.140   5.155
35625SOL     OW 8771   1.366   8.925  14.333
35625SOL    HW1 8772   1.412   8.875  14.266
35625SOL    HW2 8773   1.434   8.945  14.398
35626SOL     OW 8774  14.530  12.332   2.413
35626SOL    HW1 8775  14.503  12.421   2.436
35626SOL    HW2 8776  14.451  12.293   2.375
35627SOL     OW 8777   3.922   7.752  10.262
35627SOL    HW1 8778   3.928   7.696  10.184
35627SOL    HW2 8779   3.935   7.692  10.335
35628SOL     OW 8780  10.009   7.614  10.842
35628SOL    HW1 8781   9.918   7.645  10.841
35628SOL    HW2 8782  10.060   7.691  10.867
35629SOL     OW 8783   0.120  14.014  13.627
35629SOL    HW1 8784   0.025  14.022  13.618
35629SOL    HW2 8785   0.133  13.979  13.715
35630SOL     OW 8786  14.348  12.856  14.129
35630SOL    HW1 8787  14.430  12.906  14.131
35630SOL    HW2 8788  14.311  12.867  14.217
35631SOL     OW 8789   4.161  13.448  13.734
35631SOL    HW1 8790   4.188  13.429  13.645
35631SOL    HW2 8791   4.089  13.387  13.751
35632SOL     OW 8792   7.362  14.669   4.781
35632SOL    HW1 8793   7.283  14.619   4.802
35632SOL    HW2 8794   7.434  14.608   4.797
35633SOL     OW 8795   1.564  11.813   6.066
35633SOL    HW1 8796   1.513  11.807   5.985
35633SOL    HW2 8797   1.559  11.725   6.104
35634SOL     OW 8798   3.007   1.708  11.594
35634SOL    HW1 8799   2.921   1.684  11.629
35634SOL    HW2 8800   3.015   1.656  11.513
35635SOL     OW 8801   6.912  11.297   6.538
35635SOL    HW1 8802   6.966  11.298   6.460
35635SOL    HW2 8803   6.949  11.228   6.593
35636SOL     OW 8804   9.996   4.364   7.313
35636SOL    HW1 8805  10.063   4.316   7.361
35636SOL    HW2 8806   9.939   4.400   7.381
35637SOL     OW 8807  13.141   6.132   5.557
35637SOL    HW1 8808  13.149   6.186   5.636
35637SOL    HW2 8809  13.077   6.065   5.580
35638SOL     OW 8810  11.360   3.812   9.882
35638SOL    HW1 8811  11.280   3.762   9.896
35638SOL    HW2 8812  11.334   3.904   9.893
35639SOL     OW 8813   7.990  11.070   6.387
35639SOL    HW1 8814   8.016  11.002   6.324
35639SOL    HW2 8815   8.071  11.120   6.402
35640SOL     OW 8816   9.004   8.710  13.439
35640SOL    HW1 8817   8.983   8.757  13.358
35640SOL    HW2 8818   8.940   8.742  13.503
35641SOL     OW 8819  12.312   9.712  14.156
35641SOL    HW1 8820  12.310   9.639  14.094
35641SOL    HW2 8821  12.402   9.711  14.190
35642SOL     OW 8822  13.942  14.109   3.815
35642SOL    HW1 8823  13.973  14.200   3.808
35642SOL    HW2 8824  14.022  14.057   3.824
35643SOL     OW 8825   2.450  14.217   6.068
35643SOL    HW1 8826   2.463  14.312   6.068
35643SOL    HW2 8827   2.508  14.186   6.138
35644SOL     OW 8828   9.662  13.174  14.228
35644SOL    HW1 8829   9.672  13.254  14.280
35644SOL    HW2 8830   9.574  13.181  14.190
35645SOL     OW 8831   7.158   4.602   7.084
35645SOL    HW1 8832   7.233   4.542   7.087
35645SOL    HW2 8833   7.195   4.685   7.054
35646SOL     OW 8834  13.200   2.085   8.672
35646SOL    HW1 8835  13.190   2.042   8.757
35646SOL    HW2 8836  13.130   2.151   8.671
35647SOL     OW 8837  10.832   2.315   6.841
35647SOL    HW1 8838  10.797   2.280   6.758
35647SOL    HW2 8839  10.853   2.237   6.892
35648SOL     OW 8840  10.575  13.998  11.925
35648SOL    HW1 8841  10.533  13.912  11.914
35648SOL    HW2 8842  10.547  14.048  11.848
35649SOL     OW 8843   6.167   5.835   2.445
35649SOL    HW1 8844   6.192   5.851   2.536
35649SOL    HW2 8845   6.173   5.740   2.435
35650SOL     OW 8846  10.871  14.629   0.299
35650SOL    HW1 8847  10.858  14.541   0.263
35650SOL    HW2 8848  10.880  14.615   0.393
35651SOL     OW 8849   0.549  13.489   6.428
35651SOL    HW1 8850   0.591  13.530   6.504
35651SOL    HW2 8851   0.494  13.558   6.391
35652SOL     OW 8852   5.785  14.811   0.189
35652SOL    HW1 8853   5.701  14.770   0.169
35652SOL    HW2 8854   5.826  14.824   0.104
35653SOL     OW 8855   6.447   2.973   6.283
35653SOL    HW1 8856   6.509   3.043   6.259
35653SOL    HW2 8857   6.404   2.949   6.201
35654SOL     OW 8858   6.344   5.373   6.441
35654SOL    HW1 8859   6.340   5.302   6.505
35654SOL    HW2 8860   6.391   5.336   6.367
35655SOL     OW 8861   0.254   8.792   4.715
35655SOL    HW1 8862   0.324   8.739   4.752
35655SOL    HW2 8863   0.251   8.768   4.623
35656SOL     OW 8864  14.020   9.479  10.894
35656SOL    HW1 8865  14.100   9.477  10.841
35656SOL    HW2 8866  14.044   9.434  10.975
35657SOL     OW 8867   7.784   9.115  13.430
35657SOL    HW1 8868   7.800   9.061  13.354
35657SOL    HW2 8869   7.856   9.179  13.431
35658SOL     OW 8870   5.988   6.090  10.629
35658SOL    HW1 8871   5.967   6.016  10.571
35658SOL    HW2 8872   5.954   6.166  10.584
35659SOL     OW 8873   7.721  13.121  11.215
35659SOL    HW1 8874   7.750  13.077  11.135
35659SOL    HW2 8875   7.666  13.057  11.260
35660SOL     OW 8876  10.639  13.509  10.597
35660SOL    HW1 8877  10.570  13.448  10.621
35660SOL    HW2 8878  10.617  13.591  10.642
35661SOL     OW 8879   7.371  12.284  11.552
35661SOL    HW1 8880   7.420  12.319  11.478
35661SOL    HW2 8881   7.357  12.360  11.609
35662SOL     OW 8882  11.649  10.074   3.642
35662SOL    HW1 8883  11.744  10.091   3.642
35662SOL    HW2 8884  11.636  10.010   3.571
35663SOL     OW 8885   4.697   1.364   2.094
35663SOL    HW1 8886   4.639   1.343   2.168
35663SOL    HW2 8887   4.780   1.387   2.136
35664SOL     OW 8888   8.599   9.388   1.721
35664SOL    HW1 8889   8.659   9.455   1.756
35664SOL    HW2 8890   8.637   9.363   1.637
35665SOL     OW 8891   2.791   1.514   4.670
35665SOL    HW1 8892   2.836   1.430   4.675
35665SOL    HW2 8893   2.759   1.530   4.759
35666SOL     OW 8894   5.667   5.258   7.307
35666SOL    HW1 8895   5.664   5.171   7.346
35666SOL    HW2 8896   5.576   5.280   7.289
35667SOL     OW 8897  13.040   9.177   6.101
35667SOL    HW1 8898  13.041   9.171   6.005
35667SOL    HW2 8899  13.056   9.087   6.130
35668SOL     OW 8900   4.994  11.108  14.528
35668SOL    HW1 8901   5.058  11.091  14.459
35668SOL    HW2 8902   4.931  11.036  14.520
35669SOL     OW 8903   3.274   4.818   1.969
35669SOL    HW1 8904   3.204   4.861   1.920
35669SOL    HW2 8905   3.331   4.889   1.998
35670SOL     OW 8906  10.521   3.886   2.665
35670SOL    HW1 8907  10.579   3.831   2.718
35670SOL    HW2 8908  10.488   3.828   2.597
35671SOL     OW 8909   1.057  12.636   1.825
35671SOL    HW1 8910   1.151  12.653   1.830
35671SOL    HW2 8911   1.017  12.710   1.872
35672SOL     OW 8912   0.658   5.443   8.159
35672SOL    HW1 8913   0.609   5.472   8.082
35672SOL    HW2 8914   0.714   5.373   8.126
35673SOL     OW 8915   2.907   5.747   3.081
35673SOL    HW1 8916   2.957   5.754   3.000
35673SOL    HW2 8917   2.896   5.653   3.094
35674SOL     OW 8918  14.727   3.724   5.229
35674SOL    HW1 8919  14.738   3.814   5.258
35674SOL    HW2 8920  14.674   3.730   5.150
35675SOL     OW 8921   4.728   9.822   0.286
35675SOL    HW1 8922   4.704   9.853   0.373
35675SOL    HW2 8923   4.702   9.730   0.285
35676SOL     OW 8924   8.690  12.694   3.144
35676SOL    HW1 8925   8.634  12.616   3.140
35676SOL    HW2 8926   8.778  12.660   3.158
35677SOL     OW 8927   0.821   7.634  10.859
35677SOL    HW1 8928   0.881   7.707  10.845
35677SOL    HW2 8929   0.770   7.629  10.778
35678SOL     OW 8930  13.850  13.668   9.217
35678SOL    HW1 8931  13.761  13.699   9.232
35678SOL    HW2 8932  13.879  13.634   9.302
35679SOL     OW 8933   3.189  11.919  12.006
35679SOL    HW1 8934   3.184  11.868  12.087
35679SOL    HW2 8935   3.100  11.918  11.971
35680SOL     OW 8936  11.874   4.480  14.674
35680SOL    HW1 8937  11.821   4.402  14.655
35680SOL    HW2 8938  11.954   4.467  14.623
35681SOL     OW 8939  13.364   7.161  11.124
35681SOL    HW1 8940  13.294   7.219  11.152
35681SOL    HW2 8941  13.321   7.076  11.112
35682SOL     OW 8942   6.173  10.945   2.409
35682SOL    HW1 8943   6.222  10.944   2.491
35682SOL    HW2 8944   6.201  11.025   2.365
35683SOL     OW 8945   4.277   7.741   2.078
35683SOL    HW1 8946   4.304   7.673   2.017
35683SOL    HW2 8947   4.280   7.822   2.028
35684SOL     OW 8948   2.862   5.311   0.888
35684SOL    HW1 8949   2.880   5.219   0.904
35684SOL    HW2 8950   2.945   5.346   0.857
35685SOL     OW 8951   8.386   9.160   1.985
35685SOL    HW1 8952   8.366   9.135   2.075
35685SOL    HW2 8953   8.307   9.137   1.936
35686SOL     OW 8954   9.309   1.824  11.277
35686SOL    HW1 8955   9.230   1.840  11.329
35686SOL    HW2 8956   9.366   1.772  11.334
35687SOL     OW 8957   9.089   5.188   3.643
35687SOL    HW1 8958   9.001   5.224   3.635
35687SOL    HW2 8959   9.146   5.255   3.605
35688SOL     OW 8960   2.048  13.225   0.365
35688SOL    HW1 8961   1.980  13.289   0.384
35688SOL    HW2 8962   2.044  13.214   0.270
35689SOL     OW 8963  11.069   3.669   0.713
35689SOL    HW1 8964  11.147   3.717   0.688
35689SOL    HW2 8965  11.014   3.669   0.635
35690SOL     OW 8966  13.574  14.108  14.391
35690SOL    HW1 8967  13.578  14.170  14.464
35690SOL    HW2 8968  13.661  14.114  14.350
35691SOL     OW 8969   3.748   0.897   4.513
35691SOL    HW1 8970   3.815   0.956   4.480
35691SOL    HW2 8971   3.755   0.818   4.460
35692SOL     OW 8972   5.948  12.206  10.070
35692SOL    HW1 8973   5.927  12.287  10.024
35692SOL    HW2 8974   5.894  12.140  10.029
35693SOL     OW 8975   4.708   4.123   6.827
35693SOL    HW1 8976   4.723   4.089   6.916
35693SOL    HW2 8977   4.615   4.110   6.812
35694SOL     OW 8978   0.630  10.348   8.438
35694SOL    HW1 8979   0.724  10.332   8.446
35694SOL    HW2 8980   0.617  10.373   8.347
35695SOL     OW 8981  14.049  14.882   1.970
35695SOL    HW1 8982  14.112   0.025   1.904
35695SOL    HW2 8983  13.982  14.837   1.920
35696SOL     OW 8984   9.854   0.895   6.802
35696SOL    HW1 8985   9.765   0.887   6.766
35696SOL    HW2 8986   9.911   0.893   6.726
35697SOL     OW 8987   1.525   2.065   7.860
35697SOL    HW1 8988   1.496   1.986   7.814
35697SOL    HW2 8989   1.618   2.051   7.877
35698SOL     OW 8990   4.813   0.707  13.815
35698SOL    HW1 8991   4.762   0.644  13.765
35698SOL    HW2 8992   4.894   0.662  13.836
35699SOL     OW 8993  13.524  12.284  10.903
35699SOL    HW1 8994  13.477  12.267  10.985
35699SOL    HW2 8995  13.557  12.374  10.913
35700SOL     OW 8996   2.109  10.860   4.683
35700SOL    HW1 8997   2.073  10.806   4.753
35700SOL    HW2 8998   2.048  10.846   4.609
35701SOL     OW 8999  13.074   1.028   9.846
35701SOL    HW1 9000  12.991   1.051   9.886
35701SOL    HW2 9001  13.139   1.078   9.895
35702SOL     OW 9002  14.432   6.815   0.623
35702SOL    HW1 9003  14.426   6.741   0.682
35702SOL    HW2 9004  14.490   6.877   0.667
35703SOL     OW 9005   4.882   0.222  10.255
35703SOL    HW1 9006   4.909   0.145  10.303
35703SOL    HW2 9007   4.849   0.188  10.172
35704SOL     OW 9008   9.712   7.543   2.713
35704SOL    HW1 9009   9.693   7.617   2.770
35704SOL    HW2 9010   9.713   7.467   2.771
35705SOL     OW 9011  12.271   4.196  12.551
35705SOL    HW1 9012  12.339   4.156  12.604
35705SOL    HW2 9013  12.312   4.209  12.465
35706SOL     OW 9014   5.154  13.665  13.540
35706SOL    HW1 9015   5.211  13.709  13.478
35706SOL    HW2 9016   5.071  13.653  13.494
35707SOL     OW 9017   2.644  14.587   4.849
35707SOL    HW1 9018   2.552  14.614   4.847
35707SOL    HW2 9019   2.643  14.496   4.819
35708SOL     OW 9020   4.823   6.027   2.378
35708SOL    HW1 9021   4.801   6.120   2.374
35708SOL    HW2 9022   4.863   6.008   2.294
35709SOL     OW 9023   5.940   9.103   6.773
35709SOL    HW1 9024   5.888   9.108   6.854
35709SOL    HW2 9025   6.020   9.152   6.793
35710SOL     OW 9026  12.747   2.719  14.745
35710SOL    HW1 9027  12.787   2.805  14.757
35710SOL    HW2 9028  12.728   2.713  14.651
35711SOL     OW 9029   2.388   4.385   4.785
35711SOL    HW1 9030   2.418   4.296   4.805
35711SOL    HW2 9031   2.347   4.415   4.866
35712SOL     OW 9032   4.599   1.620  13.565
35712SOL    HW1 9033   4.631   1.699  13.521
35712SOL    HW2 9034   4.675   1.563  13.571
35713SOL     OW 9035  10.946  14.682   8.494
35713SOL    HW1 9036  10.950  14.632   8.576
35713SOL    HW2 9037  10.950  14.615   8.426
35714SOL     OW 9038   3.639   2.146  11.999
35714SOL    HW1 9039   3.637   2.051  12.014
35714SOL    HW2 9040   3.726   2.163  11.964
35715SOL     OW 9041   5.263   8.695   1.695
35715SOL    HW1 9042   5.273   8.779   1.741
35715SOL    HW2 9043   5.308   8.707   1.612
35716SOL     OW 9044  13.444   8.095   3.930
35716SOL    HW1 9045  13.395   8.174   3.909
35716SOL    HW2 9046  13.454   8.097   4.025
35717SOL     OW 9047   4.243   5.969   9.337
35717SOL    HW1 9048   4.154   5.942   9.316
35717SOL    HW2 9049   4.272   5.906   9.402
35718SOL     OW 9050   6.103  10.114   1.727
35718SOL    HW1 9051   6.141  10.108   1.815
35718SOL    HW2 9052   6.076  10.024   1.706
35719SOL     OW 9053   0.778  11.593   9.237
35719SOL    HW1 9054   0.703  11.601   9.297
35719SOL    HW2 9055   0.819  11.510   9.261
35720SOL     OW 9056   4.102   8.744   0.875
35720SOL    HW1 9057   4.088   8.802   0.949
35720SOL    HW2 9058   4.197   8.744   0.862
35721SOL     OW 9059  12.497  13.248   8.392
35721SOL    HW1 9060  12.508  13.301   8.313
35721SOL    HW2 9061  12.491  13.311   8.463
35722SOL     OW 9062  13.132   5.523   6.750
35722SOL    HW1 9063  13.045   5.531   6.710
35722SOL    HW2 9064  13.189   5.500   6.677
35723SOL     OW 9065   5.434   0.959   5.888
35723SOL    HW1 9066   5.530   0.962   5.882
35723SOL    HW2 9067   5.415   0.871   5.921
35724SOL     OW 9068   3.017   5.748   8.171
35724SOL    HW1 9069   3.095   5.694   8.181
35724SOL    HW2 9070   3.051   5.836   8.151
35725SOL     OW 9071   7.521   1.530  14.748
35725SOL    HW1 9072   7.459   1.471  14.705
35725SOL    HW2 9073   7.576   1.473  14.802
35726SOL     OW 9074   5.164   5.761   1.898
35726SOL    HW1 9075   5.153   5.686   1.958
35726SOL    HW2 9076   5.219   5.727   1.828
35727SOL     OW 9077   9.650  14.142   3.161
35727SOL    HW1 9078   9.726  14.191   3.129
35727SOL    HW2 9079   9.681  14.094   3.237
35728SOL     OW 9080   7.889  13.190  13.909
35728SOL    HW1 9081   7.856  13.158  13.993
35728SOL    HW2 9082   7.978  13.219  13.927
35729SOL     OW 9083   2.822   3.484   6.034
35729SOL    HW1 9084   2.877   3.466   5.958
35729SOL    HW2 9085   2.855   3.426   6.103
35730SOL     OW 9086  11.834   8.036   3.056
35730SOL    HW1 9087  11.843   7.941   3.052
35730SOL    HW2 9088  11.912   8.070   3.012
35731SOL     OW 9089   2.124   0.502   9.215
35731SOL    HW1 9090   2.173   0.454   9.148
35731SOL    HW2 9091   2.123   0.593   9.184
35732SOL     OW 9092   6.934   4.592   5.247
35732SOL    HW1 9093   7.016   4.558   5.281
35732SOL    HW2 9094   6.914   4.536   5.172
35733SOL     OW 9095  10.600   1.989   6.337
35733SOL    HW1 9096  10.611   1.894   6.340
35733SOL    HW2 9097  10.687   2.023   6.318
35734SOL     OW 9098  11.409   1.610   9.479
35734SOL    HW1 9099  11.475   1.679   9.489
35734SOL    HW2 9100  11.419   1.555   9.556
35735SOL     OW 9101   8.575   2.302   4.490
35735SOL    HW1 9102   8.567   2.340   4.403
35735SOL    HW2 9103   8.491   2.323   4.532
35736SOL     OW 9104   1.053   5.267   1.241
35736SOL    HW1 9105   1.066   5.338   1.178
35736SOL    HW2 9106   1.098   5.192   1.201
35737SOL     OW 9107   7.774   7.800  10.497
35737SOL    HW1 9108   7.762   7.884  10.452
35737SOL    HW2 9109   7.721   7.808  10.577
35738SOL     OW 9110  13.985   5.204  12.645
35738SOL    HW1 9111  13.907   5.234  12.691
35738SOL    HW2 9112  13.958   5.121  12.605
35739SOL     OW 9113  11.442  11.630   9.119
35739SOL    HW1 9114  11.478  11.541   9.118
35739SOL    HW2 9115  11.417  11.647   9.029
35740SOL     OW 9116  10.274  12.707   8.451
35740SOL    HW1 9117  10.189  12.666   8.464
35740SOL    HW2 9118  10.312  12.660   8.376
35741SOL     OW 9119   9.789   8.739   9.138
35741SOL    HW1 9120   9.744   8.667   9.182
35741SOL    HW2 9121   9.733   8.759   9.062
35742SOL     OW 9122   4.438   0.316   6.915
35742SOL    HW1 9123   4.376   0.257   6.873
35742SOL    HW2 9124   4.391   0.399   6.922
35743SOL     OW 9125  11.929  10.020   9.144
35743SOL    HW1 9126  11.905  10.021   9.237
35743SOL    HW2 9127  11.884   9.944   9.108
35744SOL     OW 9128   3.844   7.585   2.944
35744SOL    HW1 9129   3.922   7.617   2.989
35744SOL    HW2 9130   3.862   7.493   2.925
35745SOL     OW 9131   5.348  11.616   9.115
35745SOL    HW1 9132   5.272  11.623   9.173
35745SOL    HW2 9133   5.311  11.613   9.027
35746SOL     OW 9134  11.921   0.061   7.324
35746SOL    HW1 9135  11.867   0.140   7.332
35746SOL    HW2 9136  11.870   0.003   7.268
35747SOL     OW 9137  13.573   3.955   3.975
35747SOL    HW1 9138  13.628   4.033   3.988
35747SOL    HW2 9139  13.550   3.926   4.063
35748SOL     OW 9140   0.547   1.280  14.573
35748SOL    HW1 9141   0.495   1.312  14.499
35748SOL    HW2 9142   0.482   1.239  14.631
35749SOL     OW 9143   5.305   0.435  10.278
35749SOL    HW1 9144   5.213   0.420  10.255
35749SOL    HW2 9145   5.329   0.360  10.332
35750SOL     OW 9146   7.241  11.306  12.753
35750SOL    HW1 9147   7.260  11.213  12.752
35750SOL    HW2 9148   7.180  11.319  12.680
35751SOL     OW 9149   2.506   4.936   1.046
35751SOL    HW1 9150   2.488   4.960   1.137
35751SOL    HW2 9151   2.595   4.901   1.048
35752SOL     OW 9152   0.600   8.088   0.926
35752SOL    HW1 9153   0.620   8.104   0.834
35752SOL    HW2 9154   0.622   8.171   0.970
35753SOL     OW 9155  11.883   9.684  12.341
35753SOL    HW1 9156  11.844   9.726  12.417
35753SOL    HW2 9157  11.868   9.590  12.354
35754SOL     OW 9158  12.280   7.526  10.096
35754SOL    HW1 9159  12.322   7.441  10.083
35754SOL    HW2 9160  12.339   7.574  10.154
35755SOL     OW 9161   3.014   4.919   3.036
35755SOL    HW1 9162   3.052   4.875   2.960
35755SOL    HW2 9163   2.986   5.004   3.003
35756SOL     OW 9164   2.722   3.297  11.970
35756SOL    HW1 9165   2.643   3.311  12.022
35756SOL    HW2 9166   2.701   3.221  11.915
35757SOL     OW 9167   4.481   1.269   3.667
35757SOL    HW1 9168   4.441   1.184   3.653
35757SOL    HW2 9169   4.570   1.259   3.632
35758SOL     OW 9170  14.451  11.110  13.735
35758SOL    HW1 9171  14.406  11.089  13.653
35758SOL    HW2 9172  14.462  11.205  13.733
35759SOL     OW 9173   0.730   7.941  12.285
35759SOL    HW1 9174   0.696   7.879  12.350
35759SOL    HW2 9175   0.725   7.894  12.202
35760SOL     OW 9176   4.393   9.196  12.697
35760SOL    HW1 9177   4.467   9.179  12.755
35760SOL    HW2 9178   4.341   9.263  12.742
35761SOL     OW 9179  10.627   9.616   2.872
35761SOL    HW1 9180  10.535   9.638   2.886
35761SOL    HW2 9181  10.627   9.555   2.798
35762SOL     OW 9182   9.226   9.618   8.241
35762SOL    HW1 9183   9.316   9.639   8.216
35762SOL    HW2 9184   9.235   9.567   8.322
35763SOL     OW 9185   6.310   7.586  12.061
35763SOL    HW1 9186   6.247   7.655  12.081
35763SOL    HW2 9187   6.257   7.516  12.022
35764SOL     OW 9188   8.787   2.627   7.385
35764SOL    HW1 9189   8.840   2.612   7.463
35764SOL    HW2 9190   8.736   2.546   7.374
35765SOL     OW 9191   5.273  14.521  12.917
35765SOL    HW1 9192   5.242  14.567  12.839
35765SOL    HW2 9193   5.240  14.432  12.907
35766SOL     OW 9194  10.042   9.432  14.470
35766SOL    HW1 9195  10.090   9.360  14.430
35766SOL    HW2 9196  10.013   9.398  14.555
35767SOL     OW 9197   8.941   1.233   3.710
35767SOL    HW1 9198   8.885   1.225   3.633
35767SOL    HW2 9199   8.935   1.325   3.735
35768SOL     OW 9200   5.344   1.125   6.115
35768SOL    HW1 9201   5.414   1.102   6.177
35768SOL    HW2 9202   5.283   1.052   6.119
35769SOL     OW 9203  14.015   1.407  13.920
35769SOL    HW1 9204  14.028   1.334  13.860
35769SOL    HW2 9205  13.929   1.443  13.898
35770SOL     OW 9206   6.460   1.402  12.014
35770SOL    HW1 9207   6.463   1.317  11.971
35770SOL    HW2 9208   6.503   1.462  11.952
35771SOL     OW 9209  13.879  13.174   2.529
35771SOL    HW1 9210  13.871  13.247   2.467
35771SOL    HW2 9211  13.886  13.215   2.615
35772SOL     OW 9212  13.018   4.632   5.929
35772SOL    HW1 9213  12.930   4.630   5.968
35772SOL    HW2 9214  13.060   4.708   5.969
35773SOL     OW 9215  10.146  13.778   4.300
35773SOL    HW1 9216  10.175  13.781   4.391
35773SOL    HW2 9217  10.221  13.741   4.252
35774SOL     OW 9218  13.843   6.042  10.440
35774SOL    HW1 9219  13.834   6.102  10.366
35774SOL    HW2 9220  13.865   6.098  10.514
35775SOL     OW 9221  11.431   9.522   2.062
35775SOL    HW1 9222  11.483   9.602   2.051
35775SOL    HW2 9223  11.435   9.503   2.155
35776SOL     OW 9224   1.320   6.125  10.352
35776SOL    HW1 9225   1.392   6.077  10.392
35776SOL    HW2 9226   1.349   6.216  10.354
35777SOL     OW 9227  10.173  11.648   8.205
35777SOL    HW1 9228  10.107  11.623   8.140
35777SOL    HW2 9229  10.190  11.568   8.255
35778SOL     OW 9230   0.197   9.648   1.523
35778SOL    HW1 9231   0.145   9.715   1.478
35778SOL    HW2 9232   0.288   9.672   1.505
35779SOL     OW 9233   6.566   8.209   8.188
35779SOL    HW1 9234   6.508   8.228   8.262
35779SOL    HW2 9235   6.522   8.247   8.112
35780SOL     OW 9236   3.197   1.375   4.615
35780SOL    HW1 9237   3.256   1.330   4.555
35780SOL    HW2 9238   3.236   1.364   4.701
35781SOL     OW 9239   8.245   2.632   4.467
35781SOL    HW1 9240   8.264   2.648   4.560
35781SOL    HW2 9241   8.187   2.556   4.467
35782SOL     OW 9242  10.485   0.909   3.830
35782SOL    HW1 9243  10.537   0.841   3.873
35782SOL    HW2 9244  10.504   0.989   3.881
35783SOL     OW 9245   9.320  12.776   1.415
35783SOL    HW1 9246   9.292  12.809   1.330
35783SOL    HW2 9247   9.363  12.850   1.457
35784SOL     OW 9248   1.247  14.370   3.190
35784SOL    HW1 9249   1.254  14.283   3.227
35784SOL    HW2 9250   1.250  14.356   3.095
35785SOL     OW 9251   6.671   2.594   8.474
35785SOL    HW1 9252   6.720   2.622   8.551
35785SOL    HW2 9253   6.599   2.657   8.468
35786SOL     OW 9254  10.143   3.233   8.213
35786SOL    HW1 9255  10.130   3.309   8.269
35786SOL    HW2 9256  10.088   3.249   8.136
35787SOL     OW 9257  11.750   8.730   9.463
35787SOL    HW1 9258  11.687   8.720   9.391
35787SOL    HW2 9259  11.833   8.748   9.420
35788SOL     OW 9260   1.438   6.834   0.157
35788SOL    HW1 9261   1.529   6.814   0.176
35788SOL    HW2 9262   1.388   6.779   0.217
35789SOL     OW 9263   8.748   0.302  14.282
35789SOL    HW1 9264   8.691   0.379  14.285
35789SOL    HW2 9265   8.714   0.244  14.350
35790SOL     OW 9266   0.690  11.363   5.963
35790SOL    HW1 9267   0.693  11.456   5.984
35790SOL    HW2 9268   0.731  11.320   6.038
35791SOL     OW 9269  14.020   1.542   1.387
35791SOL    HW1 9270  13.981   1.472   1.335
35791SOL    HW2 9271  14.021   1.617   1.327
35792SOL     OW 9272   2.878  14.362   3.778
35792SOL    HW1 9273   2.798  14.335   3.733
35792SOL    HW2 9274   2.910  14.437   3.728
35793SOL     OW 9275   4.552   1.081  14.752
35793SOL    HW1 9276   4.562   0.988  14.773
35793SOL    HW2 9277   4.502   1.117  14.825
35794SOL     OW 9278   8.816   9.923  10.772
35794SOL    HW1 9279   8.885   9.975  10.813
35794SOL    HW2 9280   8.785   9.979  10.700
35795SOL     OW 9281   6.363   6.676   6.887
35795SOL    HW1 9282   6.288   6.657   6.943
35795SOL    HW2 9283   6.356   6.769   6.867
35796SOL     OW 9284   2.925   4.843  14.827
35796SOL    HW1 9285   2.896   4.931  14.850
35796SOL    HW2 9286   2.891   4.828  14.739
35797SOL     OW 9287   9.212   8.819  12.878
35797SOL    HW1 9288   9.259   8.775  12.807
35797SOL    HW2 9289   9.225   8.763  12.954
35798SOL     OW 9290  14.273   9.754   5.218
35798SOL    HW1 9291  14.347   9.752   5.279
35798SOL    HW2 9292  14.196   9.739   5.272
35799SOL     OW 9293  13.098   4.845  12.065
35799SOL    HW1 9294  13.129   4.769  12.114
35799SOL    HW2 9295  13.008   4.822  12.040
35800SOL     OW 9296   7.923  14.177  12.810
35800SOL    HW1 9297   7.872  14.253  12.838
35800SOL    HW2 9298   7.861  14.126  12.757
35801SOL     OW 9299   5.620  14.677   2.157
35801SOL    HW1 9300   5.617  14.612   2.227
35801SOL    HW2 9301   5.654  14.756   2.200
35802SOL     OW 9302   7.939  12.302   9.176
35802SOL    HW1 9303   7.953  12.367   9.245
35802SOL    HW2 9304   7.958  12.218   9.218
35803SOL     OW 9305  13.751  13.714  14.100
35803SOL    HW1 9306  13.696  13.728  14.176
35803SOL    HW2 9307  13.785  13.802  14.079
35804SOL     OW 9308   5.137   3.246  13.918
35804SOL    HW1 9309   5.066   3.234  13.855
35804SOL    HW2 9310   5.113   3.325  13.966
35805SOL     OW 9311  14.641  13.337  14.243
35805SOL    HW1 9312  14.624  13.356  14.336
35805SOL    HW2 9313  14.721  13.285  14.244
35806SOL     OW 9314   7.370  11.550  12.781
35806SOL    HW1 9315   7.347  11.457  12.770
35806SOL    HW2 9316   7.296  11.589  12.826
35807SOL     OW 9317  13.472  12.304   1.618
35807SOL    HW1 9318  13.483  12.350   1.702
35807SOL    HW2 9319  13.441  12.372   1.558
35808SOL     OW 9320  11.383   4.513   6.047
35808SOL    HW1 9321  11.403   4.604   6.067
35808SOL    HW2 9322  11.443   4.462   6.102
35809SOL     OW 9323   2.333   3.006   1.761
35809SOL    HW1 9324   2.270   3.014   1.833
35809SOL    HW2 9325   2.286   2.958   1.693
35810SOL     OW 9326   3.131   3.193  13.603
35810SOL    HW1 9327   3.187   3.250  13.656
35810SOL    HW2 9328   3.193   3.135  13.558
35811SOL     OW 9329   7.517  14.375   3.365
35811SOL    HW1 9330   7.559  14.445   3.415
35811SOL    HW2 9331   7.470  14.420   3.295
35812SOL     OW 9332  14.339   7.509  12.064
35812SOL    HW1 9333  14.334   7.430  12.117
35812SOL    HW2 9334  14.254   7.551  12.076
35813SOL     OW 9335   6.090   2.253   5.240
35813SOL    HW1 9336   6.153   2.249   5.168
35813SOL    HW2 9337   6.141   2.281   5.316
35814SOL     OW 9338  12.978   5.925  10.505
35814SOL    HW1 9339  12.886   5.911  10.528
35814SOL    HW2 9340  12.975   5.991  10.435
35815SOL     OW 9341   8.409   1.138  14.307
35815SOL    HW1 9342   8.353   1.188  14.366
35815SOL    HW2 9343   8.469   1.090  14.365
35816SOL     OW 9344   1.866   5.541  10.542
35816SOL    HW1 9345   1.928   5.468  10.539
35816SOL    HW2 9346   1.855   5.560  10.635
35817SOL     OW 9347  13.246   7.968   2.936
35817SOL    HW1 9348  13.162   7.949   2.895
35817SOL    HW2 9349  13.268   8.056   2.907
35818SOL     OW 9350   0.816   5.545   7.188
35818SOL    HW1 9351   0.898   5.495   7.191
35818SOL    HW2 9352   0.825   5.609   7.258
35819SOL     OW 9353  14.418  11.319  14.749
35819SOL    HW1 9354  14.423  11.414  14.757
35819SOL    HW2 9355  14.509  11.289  14.753
35820SOL     OW 9356   2.804   5.360   3.909
35820SOL    HW1 9357   2.725   5.308   3.908
35820SOL    HW2 9358   2.869   5.307   3.862
35821SOL     OW 9359  10.935   6.704  11.446
35821SOL    HW1 9360  10.971   6.650  11.375
35821SOL    HW2 9361  10.944   6.794  11.414
35822SOL     OW 9362   8.206  13.310   0.167
35822SOL    HW1 9363   8.200  13.289   0.073
35822SOL    HW2 9364   8.294  13.284   0.192
35823SOL     OW 9365   9.365  10.213   1.956
35823SOL    HW1 9366   9.355  10.120   1.977
35823SOL    HW2 9367   9.445  10.239   2.002
35824SOL     OW 9368  13.618  11.977   2.672
35824SOL    HW1 9369  13.597  11.888   2.643
35824SOL    HW2 9370  13.540  12.028   2.650
35825SOL     OW 9371   7.576   9.310   2.108
35825SOL    HW1 9372   7.503   9.362   2.076
35825SOL    HW2 9373   7.644   9.318   2.041
35826SOL     OW 9374  12.838  10.962   8.800
35826SOL    HW1 9375  12.786  10.883   8.817
35826SOL    HW2 9376  12.882  10.979   8.883
35827SOL     OW 9377  11.629  12.070   1.011
35827SOL    HW1 9378  11.678  12.145   0.979
35827SOL    HW2 9379  11.541  12.105   1.030
35828SOL     OW 9380   2.075   4.730   6.465
35828SOL    HW1 9381   2.150   4.670   6.467
35828SOL    HW2 9382   2.101   4.803   6.522
35829SOL     OW 9383   2.677   5.287   0.696
35829SOL    HW1 9384   2.729   5.307   0.619
35829SOL    HW2 9385   2.737   5.299   0.770
35830SOL     OW 9386   5.009  12.773   9.079
35830SOL    HW1 9387   4.945  12.830   9.037
35830SOL    HW2 9388   5.094  12.809   9.051
35831SOL     OW 9389  14.753   8.290  14.001
35831SOL    HW1 9390  14.752   8.378  13.962
35831SOL    HW2 9391  14.799   8.236  13.937
35832SOL     OW 9392   4.605  12.172   7.278
35832SOL    HW1 9393   4.566  12.100   7.228
35832SOL    HW2 9394   4.556  12.250   7.250
35833SOL     OW 9395  10.097  12.863   2.556
35833SOL    HW1 9396  10.178  12.891   2.515
35833SOL    HW2 9397  10.083  12.923   2.628
35834SOL     OW 9398  10.954   7.682   8.815
35834SOL    HW1 9399  11.032   7.710   8.863
35834SOL    HW2 9400  10.909   7.622   8.875
35835SOL     OW 9401  12.278  10.540  12.711
35835SOL    HW1 9402  12.370  10.519  12.693
35835SOL    HW2 9403  12.233  10.455  12.704
35836SOL     OW 9404   6.045   0.464   9.210
35836SOL    HW1 9405   6.063   0.417   9.129
35836SOL    HW2 9406   5.956   0.436   9.234
35837SOL     OW 9407   9.922   6.234  13.319
35837SOL    HW1 9408   9.865   6.311  13.313
35837SOL    HW2 9409   9.935   6.207  13.229
35838SOL     OW 9410  14.014   9.042   8.458
35838SOL    HW1 9411  14.097   9.018   8.498
35838SOL    HW2 9412  13.963   8.960   8.458
35839SOL     OW 9413  14.558  14.427  10.421
35839SOL    HW1 9414  14.548  14.519  10.443
35839SOL    HW2 9415  14.540  14.380  10.502
35840SOL     OW 9416   4.061   7.310   9.728
35840SOL    HW1 9417   4.040   7.363   9.805
35840SOL    HW2 9418   4.035   7.364   9.653
35841SOL     OW 9419   7.002  12.386   0.480
35841SOL    HW1 9420   6.976  12.402   0.571
35841SOL    HW2 9421   6.924  12.349   0.439
35842SOL     OW 9422   7.686   1.250   5.453
35842SOL    HW1 9423   7.771   1.227   5.416
35842SOL    HW2 9424   7.626   1.248   5.379
35843SOL     OW 9425   9.759  11.555   3.762
35843SOL    HW1 9426   9.754  11.473   3.811
35843SOL    HW2 9427   9.824  11.607   3.809
35844SOL     OW 9428  14.517  14.327   5.446
35844SOL    HW1 9429  14.438  14.291   5.407
35844SOL    HW2 9430  14.527  14.414   5.407
35845SOL     OW 9431  14.436   7.349  11.322
35845SOL    HW1 9432  14.506   7.297  11.363
35845SOL    HW2 9433  14.408   7.296  11.248
35846SOL     OW 9434   8.616   6.875   3.316
35846SOL    HW1 9435   8.629   6.951   3.260
35846SOL    HW2 9436   8.614   6.910   3.405
35847SOL     OW 9437   6.296  11.670   7.365
35847SOL    HW1 9438   6.380  11.642   7.401
35847SOL    HW2 9439   6.231  11.633   7.425
35848SOL     OW 9440   8.524   9.753  13.640
35848SOL    HW1 9441   8.467   9.819  13.678
35848SOL    HW2 9442   8.491   9.742  13.551
35849SOL     OW 9443  12.629   1.209   4.331
35849SOL    HW1 9444  12.675   1.293   4.337
35849SOL    HW2 9445  12.549   1.230   4.283
35850SOL     OW 9446  12.563  14.258   1.687
35850SOL    HW1 9447  12.607  14.340   1.661
35850SOL    HW2 9448  12.471  14.282   1.696
35851SOL     OW 9449  10.067  10.326   1.378
35851SOL    HW1 9450  10.123  10.348   1.304
35851SOL    HW2 9451  10.111  10.366   1.454
35852SOL     OW 9452  14.320   4.467   6.536
35852SOL    HW1 9453  14.405   4.444   6.573
35852SOL    HW2 9454  14.303   4.555   6.568
35853SOL     OW 9455   2.017   6.660   0.667
35853SOL    HW1 9456   1.957   6.640   0.740
35853SOL    HW2 9457   1.987   6.604   0.596
35854SOL     OW 9458  13.461   6.278  11.980
35854SOL    HW1 9459  13.444   6.302  11.889
35854SOL    HW2 9460  13.509   6.195  11.974
35855SOL     OW 9461   5.282  10.187   0.935
35855SOL    HW1 9462   5.322  10.257   0.985
35855SOL    HW2 9463   5.191  10.185   0.965
35856SOL     OW 9464   8.342   2.180  12.687
35856SOL    HW1 9465   8.405   2.249  12.668
35856SOL    HW2 9466   8.387   2.122  12.749
35857SOL     OW 9467   8.360   4.889  12.130
35857SOL    HW1 9468   8.427   4.925  12.072
35857SOL    HW2 9469   8.281   4.939  12.111
35858SOL     OW 9470   8.594   7.564   2.869
35858SOL    HW1 9471   8.643   7.554   2.788
35858SOL    HW2 9472   8.505   7.537   2.847
35859SOL     OW 9473  11.564  14.661   6.305
35859SOL    HW1 9474  11.558  14.741   6.356
35859SOL    HW2 9475  11.498  14.672   6.237
35860SOL     OW 9476  12.655   7.006   7.295
35860SOL    HW1 9477  12.690   7.064   7.227
35860SOL    HW2 9478  12.675   6.918   7.263
35861SOL     OW 9479   8.574   8.805   5.880
35861SOL    HW1 9480   8.601   8.797   5.972
35861SOL    HW2 9481   8.533   8.891   5.875
35862SOL     OW 9482   4.508   5.630   7.050
35862SOL    HW1 9483   4.566   5.664   6.981
35862SOL    HW2 9484   4.501   5.702   7.113
35863SOL     OW 9485   8.525   6.641   8.043
35863SOL    HW1 9486   8.595   6.673   8.100
35863SOL    HW2 9487   8.558   6.656   7.954
35864SOL     OW 9488   4.858   6.468   4.167
35864SOL    HW1 9489   4.770   6.484   4.201
35864SOL    HW2 9490   4.915   6.518   4.225
35865SOL     OW 9491   4.969   1.655  12.026
35865SOL    HW1 9492   4.914   1.645  11.949
35865SOL    HW2 9493   5.038   1.715  11.999
35866SOL     OW 9494   0.432  13.114  10.695
35866SOL    HW1 9495   0.353  13.163  10.719
35866SOL    HW2 9496   0.481  13.107  10.777
35867SOL     OW 9497  10.205  14.752  12.739
35867SOL    HW1 9498  10.227  14.659  12.747
35867SOL    HW2 9499  10.198  14.782  12.830
35868SOL     OW 9500   4.510   2.015  14.362
35868SOL    HW1 9501   4.449   2.066  14.416
35868SOL    HW2 9502   4.591   2.011  14.413
35869SOL     OW 9503  12.339  14.323   3.293
35869SOL    HW1 9504  12.353  14.373   3.373
35869SOL    HW2 9505  12.343  14.388   3.223
35870SOL     OW 9506   7.337  13.777  14.821
35870SOL    HW1 9507   7.319  13.791   0.026
35870SOL    HW2 9508   7.270  13.715  14.793
35871SOL     OW 9509   0.112   0.701   0.794
35871SOL    HW1 9510   0.031   0.650   0.805
35871SOL    HW2 9511   0.103   0.742   0.707
35872SOL     OW 9512  13.545   3.823  14.662
35872SOL    HW1 9513  13.523   3.802  14.752
35872SOL    HW2 9514  13.590   3.744  14.630
35873SOL     OW 9515   6.759   1.100   3.832
35873SOL    HW1 9516   6.736   1.096   3.925
35873SOL    HW2 9517   6.831   1.163   3.828
35874SOL     OW 9518   5.845   2.636   7.806
35874SOL    HW1 9519   5.849   2.717   7.755
35874SOL    HW2 9520   5.843   2.666   7.897
35875SOL     OW 9521   7.631   5.499  10.254
35875SOL    HW1 9522   7.696   5.558  10.216
35875SOL    HW2 9523   7.588   5.459  10.178
35876SOL     OW 9524   0.573  14.803  11.861
35876SOL    HW1 9525   0.576  14.851  11.778
35876SOL    HW2 9526   0.655  14.752  11.862
35877SOL     OW 9527  14.546   8.141  11.073
35877SOL    HW1 9528  14.487   8.095  11.013
35877SOL    HW2 9529  14.627   8.153  11.023
35878SOL     OW 9530   0.738  13.556  11.093
35878SOL    HW1 9531   0.735  13.637  11.043
35878SOL    HW2 9532   0.727  13.583  11.184
35879SOL     OW 9533  12.161  11.687  10.687
35879SOL    HW1 9534  12.180  11.594  10.677
35879SOL    HW2 9535  12.238  11.722  10.732
35880SOL     OW 9536   5.718  13.267   8.378
35880SOL    HW1 9537   5.770  13.186   8.378
35880SOL    HW2 9538   5.648  13.251   8.315
35881SOL     OW 9539  10.842  11.262   1.044
35881SOL    HW1 9540  10.849  11.346   0.999
35881SOL    HW2 9541  10.796  11.283   1.126
35882SOL     OW 9542   7.634   4.998  11.487
35882SOL    HW1 9543   7.719   5.009  11.444
35882SOL    HW2 9544   7.648   5.032  11.576
35883SOL     OW 9545  12.306  12.505  13.272
35883SOL    HW1 9546  12.320  12.437  13.338
35883SOL    HW2 9547  12.394  12.525  13.239
35884SOL     OW 9548   2.019   5.687   5.404
35884SOL    HW1 9549   2.097   5.660   5.453
35884SOL    HW2 9550   1.963   5.729   5.469
35885SOL     OW 9551   5.754   3.575  11.001
35885SOL    HW1 9552   5.764   3.586  11.095
35885SOL    HW2 9553   5.834   3.530  10.974
35886SOL     OW 9554   3.493   8.074  12.072
35886SOL    HW1 9555   3.514   8.029  11.991
35886SOL    HW2 9556   3.397   8.068  12.079
35887SOL     OW 9557   2.165  13.130   9.645
35887SOL    HW1 9558   2.251  13.168   9.664
35887SOL    HW2 9559   2.174  13.037   9.665
35888SOL     OW 9560   4.419  10.054  10.981
35888SOL    HW1 9561   4.479  10.048  11.056
35888SOL    HW2 9562   4.430   9.971  10.934
35889SOL     OW 9563   1.538   7.634   2.370
35889SOL    HW1 9564   1.604   7.565   2.379
35889SOL    HW2 9565   1.534   7.652   2.276
35890SOL     OW 9566  12.665   2.706   8.371
35890SOL    HW1 9567  12.752   2.747   8.372
35890SOL    HW2 9568  12.631   2.719   8.459
35891SOL     OW 9569   6.870   2.054   4.300
35891SOL    HW1 9570   6.911   1.994   4.237
35891SOL    HW2 9571   6.889   2.141   4.267
35892SOL     OW 9572  10.491   0.863   0.939
35892SOL    HW1 9573  10.508   0.775   0.903
35892SOL    HW2 9574  10.578   0.897   0.960
35893SOL     OW 9575   8.358   6.562   0.563
35893SOL    HW1 9576   8.303   6.488   0.585
35893SOL    HW2 9577   8.447   6.534   0.584
35894SOL     OW 9578  12.599  14.154   1.170
35894SOL    HW1 9579  12.541  14.145   1.245
35894SOL    HW2 9580  12.541  14.162   1.095
35895SOL     OW 9581   5.092  14.240  13.630
35895SOL    HW1 9582   5.116  14.300  13.701
35895SOL    HW2 9583   5.020  14.188  13.666
35896SOL     OW 9584   9.560  11.909   3.972
35896SOL    HW1 9585   9.510  11.836   4.008
35896SOL    HW2 9586   9.496  11.959   3.921
35897SOL     OW 9587  13.929  11.225   6.454
35897SOL    HW1 9588  13.858  11.220   6.389
35897SOL    HW2 9589  13.997  11.277   6.411
35898SOL     OW 9590  11.227  12.764   0.744
35898SOL    HW1 9591  11.216  12.741   0.836
35898SOL    HW2 9592  11.254  12.683   0.701
35899SOL     OW 9593  10.233   1.034  11.653
35899SOL    HW1 9594  10.262   1.095  11.721
35899SOL    HW2 9595  10.147   1.067  11.626
35900SOL     OW 9596  12.993   0.523  14.069
35900SOL    HW1 9597  12.923   0.518  14.003
35900SOL    HW2 9598  13.063   0.470  14.034
35901SOL     OW 9599   9.525   1.943   0.214
35901SOL    HW1 9600   9.521   2.012   0.281
35901SOL    HW2 9601   9.461   1.878   0.244
35902SOL     OW 9602   3.848   6.696  14.723
35902SOL    HW1 9603   3.827   6.605  14.702
35902SOL    HW2 9604   3.773   6.746  14.690
35903SOL     OW 9605  11.229   9.571   1.286
35903SOL    HW1 9606  11.177   9.622   1.349
35903SOL    HW2 9607  11.168   9.553   1.214
35904SOL     OW 9608   3.898   6.058   7.264
35904SOL    HW1 9609   3.920   6.042   7.172
35904SOL    HW2 9610   3.976   6.100   7.300
35905SOL     OW 9611  13.539   6.608   7.388
35905SOL    HW1 9612  13.625   6.649   7.397
35905SOL    HW2 9613  13.518   6.615   7.295
35906SOL     OW 9614  10.209   0.176   5.984
35906SOL    HW1 9615  10.284   0.183   6.043
35906SOL    HW2 9616  10.238   0.118   5.914
35907SOL     OW 9617   6.792   9.841   6.466
35907SOL    HW1 9618   6.731   9.873   6.533
35907SOL    HW2 9619   6.789   9.907   6.397
35908SOL     OW 9620   4.570   9.105   9.024
35908SOL    HW1 9621   4.611   9.019   9.018
35908SOL    HW2 9622   4.551   9.117   9.117
35909SOL     OW 9623   4.161  13.051  12.132
35909SOL    HW1 9624   4.253  13.027  12.121
35909SOL    HW2 9625   4.142  13.106  12.055
35910SOL     OW 9626   7.899  13.659  13.842
35910SOL    HW1 9627   7.957  13.598  13.887
35910SOL    HW2 9628   7.957  13.724  13.804
35911SOL     OW 9629   3.808  13.970  12.482
35911SOL    HW1 9630   3.768  13.898  12.434
35911SOL    HW2 9631   3.740  14.000  12.543
35912SOL     OW 9632   9.860   3.132   9.811
35912SOL    HW1 9633   9.798   3.163   9.878
35912SOL    HW2 9634   9.897   3.052   9.848
35913SOL     OW 9635  14.305   4.614  13.356
35913SOL    HW1 9636  14.363   4.554  13.310
35913SOL    HW2 9637  14.351   4.634  13.437
35914SOL     OW 9638   4.827  12.660   0.641
35914SOL    HW1 9639   4.773  12.582   0.654
35914SOL    HW2 9640   4.836  12.698   0.729
35915SOL     OW 9641   7.018   4.840   5.187
35915SOL    HW1 9642   7.059   4.879   5.265
35915SOL    HW2 9643   6.974   4.762   5.220
35916SOL     OW 9644  11.472   6.747  14.846
35916SOL    HW1 9645  11.394   6.702  14.878
35916SOL    HW2 9646  11.473   6.830   0.006
35917SOL     OW 9647   6.522  14.618   7.374
35917SOL    HW1 9648   6.617  14.609   7.370
35917SOL    HW2 9649   6.489  14.537   7.335
35918SOL     OW 9650  11.654   8.238   2.982
35918SOL    HW1 9651  11.691   8.324   2.961
35918SOL    HW2 9652  11.730   8.185   3.009
35919SOL     OW 9653   9.900   9.462   4.299
35919SOL    HW1 9654   9.915   9.458   4.205
35919SOL    HW2 9655   9.927   9.550   4.324
35920SOL     OW 9656  12.851  12.617   7.919
35920SOL    HW1 9657  12.791  12.575   7.981
35920SOL    HW2 9658  12.796  12.641   7.845
35921SOL     OW 9659   3.461   2.755   0.187
35921SOL    HW1 9660   3.484   2.699   0.260
35921SOL    HW2 9661   3.380   2.798   0.213
35922SOL     OW 9662   9.322   7.508  11.162
35922SOL    HW1 9663   9.280   7.589  11.132
35922SOL    HW2 9664   9.293   7.497  11.252
35923SOL     OW 9665   0.555   4.471   4.317
35923SOL    HW1 9666   0.536   4.398   4.376
35923SOL    HW2 9667   0.499   4.455   4.240
35924SOL     OW 9668   7.303  11.969   6.014
35924SOL    HW1 9669   7.324  12.007   5.929
35924SOL    HW2 9670   7.388  11.954   6.056
35925SOL     OW 9671   0.540   8.399  12.306
35925SOL    HW1 9672   0.600   8.389  12.380
35925SOL    HW2 9673   0.537   8.493  12.290
35926SOL     OW 9674   8.987   0.772   8.819
35926SOL    HW1 9675   8.978   0.769   8.724
35926SOL    HW2 9676   8.898   0.789   8.852
35927SOL     OW 9677   0.322   8.126   4.848
35927SOL    HW1 9678   0.246   8.160   4.894
35927SOL    HW2 9679   0.392   8.127   4.913
35928SOL     OW 9680  12.775  11.607   7.396
35928SOL    HW1 9681  12.707  11.582   7.458
35928SOL    HW2 9682  12.731  11.668   7.336
35929SOL     OW 9683   9.951  12.918  11.139
35929SOL    HW1 9684   9.949  12.889  11.230
35929SOL    HW2 9685   9.931  13.011  11.143
35930SOL     OW 9686   0.679   0.136   9.175
35930SOL    HW1 9687   0.735   0.209   9.147
35930SOL    HW2 9688   0.652   0.095   9.093
35931SOL     OW 9689   6.765   0.600   5.934
35931SOL    HW1 9690   6.853   0.620   5.968
35931SOL    HW2 9691   6.740   0.679   5.886
35932SOL     OW 9692   3.652   4.575  14.850
35932SOL    HW1 9693   3.598   4.523   0.021
35932SOL    HW2 9694   3.608   4.660  14.845
35933SOL     OW 9695   8.550   7.250   0.420
35933SOL    HW1 9696   8.636   7.233   0.459
35933SOL    HW2 9697   8.536   7.177   0.359
35934SOL     OW 9698   9.523   2.205   8.140
35934SOL    HW1 9699   9.577   2.185   8.064
35934SOL    HW2 9700   9.570   2.276   8.184
35935SOL     OW 9701  13.721   3.865  11.417
35935SOL    HW1 9702  13.813   3.850  11.398
35935SOL    HW2 9703  13.692   3.928  11.351
35936SOL     OW 9704   4.702   7.679  10.926
35936SOL    HW1 9705   4.761   7.622  10.878
35936SOL    HW2 9706   4.617   7.636  10.920
35937SOL     OW 9707   6.173   4.933  13.399
35937SOL    HW1 9708   6.202   4.879  13.471
35937SOL    HW2 9709   6.207   5.020  13.419
35938SOL     OW 9710   9.964   2.424   3.694
35938SOL    HW1 9711  10.005   2.340   3.676
35938SOL    HW2 9712  10.009   2.457   3.772
35939SOL     OW 9713   1.093   5.458   1.049
35939SOL    HW1 9714   1.103   5.479   0.956
35939SOL    HW2 9715   1.177   5.482   1.088
35940SOL     OW 9716   1.806   4.250   0.087
35940SOL    HW1 9717   1.864   4.175   0.096
35940SOL    HW2 9718   1.832   4.291   0.004
35941SOL     OW 9719   6.892   3.815   9.514
35941SOL    HW1 9720   6.799   3.807   9.534
35941SOL    HW2 9721   6.931   3.733   9.544
35942SOL     OW 9722  12.295   3.938   0.414
35942SOL    HW1 9723  12.383   3.920   0.380
35942SOL    HW2 9724  12.309   3.967   0.504
35943SOL     OW 9725  13.015   7.954   3.592
35943SOL    HW1 9726  13.107   7.979   3.594
35943SOL    HW2 9727  12.983   7.987   3.508
35944SOL     OW 9728  12.713   9.000  14.857
35944SOL    HW1 9729  12.628   9.029   0.004
35944SOL    HW2 9730  12.694   8.971  14.768
35945SOL     OW 9731   8.358   8.382   3.328
35945SOL    HW1 9732   8.296   8.328   3.279
35945SOL    HW2 9733   8.373   8.333   3.409
35946SOL     OW 9734   9.999  11.820   3.615
35946SOL    HW1 9735  10.015  11.798   3.706
35946SOL    HW2 9736   9.904  11.811   3.604
35947SOL     OW 9737  11.394   3.543   9.474
35947SOL    HW1 9738  11.333   3.592   9.528
35947SOL    HW2 9739  11.359   3.550   9.385
35948SOL     OW 9740   0.348  10.073  14.641
35948SOL    HW1 9741   0.334   9.979  14.632
35948SOL    HW2 9742   0.336  10.107  14.552
35949SOL     OW 9743   9.972   5.985   6.187
35949SOL    HW1 9744   9.954   5.973   6.093
35949SOL    HW2 9745   9.887   6.008   6.224
35950SOL     OW 9746  12.388  14.706   7.531
35950SOL    HW1 9747  12.372  14.619   7.495
35950SOL    HW2 9748  12.316  14.760   7.498
35951SOL     OW 9749   7.573  10.947   7.562
35951SOL    HW1 9750   7.602  10.925   7.650
35951SOL    HW2 9751   7.648  10.989   7.521
35952SOL     OW 9752   4.988   6.783   7.407
35952SOL    HW1 9753   4.937   6.715   7.363
35952SOL    HW2 9754   4.964   6.776   7.499
35953SOL     OW 9755   8.337   2.677   8.714
35953SOL    HW1 9756   8.392   2.695   8.638
35953SOL    HW2 9757   8.349   2.583   8.730
35954SOL     OW 9758   8.052   1.566   7.165
35954SOL    HW1 9759   8.018   1.478   7.150
35954SOL    HW2 9760   7.974   1.621   7.173
35955SOL     OW 9761  12.656   7.469   5.471
35955SOL    HW1 9762  12.606   7.388   5.460
35955SOL    HW2 9763  12.602   7.521   5.532
35956SOL     OW 9764  10.469  10.164   1.879
35956SOL    HW1 9765  10.386  10.193   1.916
35956SOL    HW2 9766  10.463  10.069   1.875
35957SOL     OW 9767   3.361   9.486   1.098
35957SOL    HW1 9768   3.296   9.512   1.163
35957SOL    HW2 9769   3.445   9.488   1.145
35958SOL     OW 9770   8.600   5.048   2.231
35958SOL    HW1 9771   8.661   4.995   2.181
35958SOL    HW2 9772   8.516   5.039   2.186
35959SOL     OW 9773   1.637  11.420   8.168
35959SOL    HW1 9774   1.719  11.465   8.189
35959SOL    HW2 9775   1.570  11.487   8.178
35960SOL     OW 9776   5.415   2.388   0.081
35960SOL    HW1 9777   5.413   2.460   0.144
35960SOL    HW2 9778   5.426   2.309   0.134
35961SOL     OW 9779   9.316  14.119   5.370
35961SOL    HW1 9780   9.299  14.069   5.290
35961SOL    HW2 9781   9.267  14.072   5.438
35962SOL     OW 9782  10.784  12.586   8.671
35962SOL    HW1 9783  10.774  12.677   8.697
35962SOL    HW2 9784  10.719  12.539   8.723
35963SOL     OW 9785   1.518   6.414   5.180
35963SOL    HW1 9786   1.549   6.358   5.108
35963SOL    HW2 9787   1.509   6.354   5.254
35964SOL     OW 9788   9.468  13.212   0.973
35964SOL    HW1 9789   9.383  13.237   0.936
35964SOL    HW2 9790   9.456  13.120   0.999
35965SOL     OW 9791   2.703  11.264   3.451
35965SOL    HW1 9792   2.643  11.199   3.414
35965SOL    HW2 9793   2.754  11.215   3.516
35966SOL     OW 9794   2.940   3.145  11.448
35966SOL    HW1 9795   2.863   3.162  11.502
35966SOL    HW2 9796   2.978   3.064  11.484
35967SOL     OW 9797   8.422  12.220   1.936
35967SOL    HW1 9798   8.375  12.271   2.001
35967SOL    HW2 9799   8.479  12.162   1.986
35968SOL     OW 9800   0.731  14.826   7.820
35968SOL    HW1 9801   0.797  14.781   7.768
35968SOL    HW2 9802   0.694  14.758   7.877
35969SOL     OW 9803   7.539   0.542   1.334
35969SOL    HW1 9804   7.476   0.578   1.397
35969SOL    HW2 9805   7.562   0.457   1.370
35970SOL     OW 9806  14.646  10.712  13.597
35970SOL    HW1 9807  14.577  10.719  13.663
35970SOL    HW2 9808  14.598  10.706  13.514
35971SOL     OW 9809  14.006  10.671   8.188
35971SOL    HW1 9810  14.090  10.701   8.223
35971SOL    HW2 9811  14.002  10.578   8.211
35972SOL     OW 9812   6.754   2.772   4.593
35972SOL    HW1 9813   6.741   2.759   4.687
35972SOL    HW2 9814   6.846   2.800   4.586
35973SOL     OW 9815   0.536   0.798  11.302
35973SOL    HW1 9816   0.528   0.893  11.317
35973SOL    HW2 9817   0.540   0.789  11.207
35974SOL     OW 9818   4.011   9.270  14.793
35974SOL    HW1 9819   3.928   9.292  14.836
35974SOL    HW2 9820   3.986   9.241  14.706
35975SOL     OW 9821  13.704   1.707  12.774
35975SOL    HW1 9822  13.762   1.632  12.783
35975SOL    HW2 9823  13.635   1.677  12.713
35976SOL     OW 9824   0.407   6.570   5.334
35976SOL    HW1 9825   0.422   6.491   5.385
35976SOL    HW2 9826   0.472   6.567   5.264
35977SOL     OW 9827   4.384  14.403  13.999
35977SOL    HW1 9828   4.369  14.356  13.917
35977SOL    HW2 9829   4.365  14.494  13.979
35978SOL     OW 9830   2.152  11.204   9.258
35978SOL    HW1 9831   2.155  11.109   9.268
35978SOL    HW2 9832   2.153  11.218   9.163
35979SOL     OW 9833  14.102   2.028  13.216
35979SOL    HW1 9834  14.142   2.024  13.129
35979SOL    HW2 9835  14.025   2.084  13.205
35980SOL     OW 9836   3.603   1.031   9.950
35980SOL    HW1 9837   3.608   1.104   9.887
35980SOL    HW2 9838   3.630   0.954   9.900
35981SOL     OW 9839   5.698   2.600   4.554
35981SOL    HW1 9840   5.685   2.513   4.517
35981SOL    HW2 9841   5.732   2.652   4.481
35982SOL     OW 9842   3.026  14.358  11.202
35982SOL    HW1 9843   2.999  14.408  11.125
35982SOL    HW2 9844   3.102  14.406  11.236
35983SOL     OW 9845   5.593   3.483   2.572
35983SOL    HW1 9846   5.602   3.411   2.510
35983SOL    HW2 9847   5.510   3.524   2.549
35984SOL     OW 9848   5.899   3.366   7.903
35984SOL    HW1 9849   5.829   3.356   7.968
35984SOL    HW2 9850   5.938   3.451   7.923
35985SOL     OW 9851  14.244   8.109  14.508
35985SOL    HW1 9852  14.309   8.066  14.451
35985SOL    HW2 9853  14.293   8.132  14.587
35986SOL     OW 9854   0.406   3.833  12.995
35986SOL    HW1 9855   0.451   3.810  12.913
35986SOL    HW2 9856   0.325   3.783  12.993
35987SOL     OW 9857  14.152   7.142  14.242
35987SOL    HW1 9858  14.059   7.135  14.221
35987SOL    HW2 9859  14.166   7.079  14.312
35988SOL     OW 9860  13.594   3.662  11.506
35988SOL    HW1 9861  13.657   3.642  11.574
35988SOL    HW2 9862  13.638   3.726  11.450
35989SOL     OW 9863   4.698   2.074  12.350
35989SOL    HW1 9864   4.749   2.006  12.308
35989SOL    HW2 9865   4.690   2.143  12.284
35990SOL     OW 9866   1.422   0.810   9.163
35990SOL    HW1 9867   1.391   0.900   9.149
35990SOL    HW2 9868   1.422   0.771   9.076
35991SOL     OW 9869  12.316  12.160   3.280
35991SOL    HW1 9870  12.281  12.130   3.364
35991SOL    HW2 9871  12.252  12.130   3.215
35992SOL     OW 9872   6.589   3.346  12.247
35992SOL    HW1 9873   6.499   3.380  12.249
35992SOL    HW2 9874   6.579   3.254  12.221
35993SOL     OW 9875  12.227   5.634   0.060
35993SOL    HW1 9876  12.240   5.707  14.887
35993SOL    HW2 9877  12.205   5.560   0.004
35994SOL     OW 9878   8.648   7.987   3.005
35994SOL    HW1 9879   8.582   7.926   2.971
35994SOL    HW2 9880   8.654   7.966   3.098
35995SOL     OW 9881   5.185  13.113  12.662
35995SOL    HW1 9882   5.249  13.047  12.636
35995SOL    HW2 9883   5.164  13.159  12.581
35996SOL     OW 9884  14.032  12.890   7.514
35996SOL    HW1 9885  14.061  12.971   7.471
35996SOL    HW2 9886  14.046  12.822   7.448
35997SOL     OW 9887   6.867   5.179  10.571
35997SOL    HW1 9888   6.794   5.227  10.531
35997SOL    HW2 9889   6.864   5.203  10.664
35998SOL     OW 9890  11.453  10.675   6.843
35998SOL    HW1 9891  11.465  10.586   6.808
35998SOL    HW2 9892  11.537  10.697   6.882
35999SOL     OW 9893   3.194  11.709  14.203
35999SOL    HW1 9894   3.244  11.753  14.272
35999SOL    HW2 9895   3.258  11.652  14.159
36000SOL     OW 9896  10.158   1.699   8.369
36000SOL    HW1 9897  10.079   1.671   8.414
36000SOL    HW2 9898  10.128   1.767   8.308
36001SOL     OW 9899   9.987  14.627   6.042
36001SOL    HW1 9900   9.979  14.650   5.949
36001SOL    HW2 9901   9.934  14.548   6.051
36002SOL     OW 9902   7.633   3.608   7.149
36002SOL    HW1 9903   7.728   3.621   7.150
36002SOL    HW2 9904   7.608   3.605   7.241
36003SOL     OW 9905   7.476   9.556  11.232
36003SOL    HW1 9906   7.401   9.582  11.179
36003SOL    HW2 9907   7.456   9.466  11.259
36004SOL     OW 9908  11.932  10.924   9.784
36004SOL    HW1 9909  11.883  10.862   9.730
36004SOL    HW2 9910  12.013  10.940   9.736
36005SOL     OW 9911   7.562   6.255   9.586
36005SOL    HW1 9912   7.479   6.284   9.546
36005SOL    HW2 9913   7.630   6.291   9.529
36006SOL     OW 9914  11.911   3.144   9.855
36006SOL    HW1 9915  11.867   3.132   9.771
36006SOL    HW2 9916  12.004   3.156   9.832
36007SOL     OW 9917   1.317  13.821   4.074
36007SOL    HW1 9918   1.248  13.835   4.139
36007SOL    HW2 9919   1.397  13.811   4.126
36008SOL     OW 9920   4.547  10.536  11.309
36008SOL    HW1 9921   4.572  10.628  11.298
36008SOL    HW2 9922   4.629  10.487  11.299
36009SOL     OW 9923  11.346   4.371   7.525
36009SOL    HW1 9924  11.294   4.412   7.456
36009SOL    HW2 9925  11.289   4.303   7.560
36010SOL     OW 9926   6.408  14.191   1.659
36010SOL    HW1 9927   6.343  14.186   1.729
36010SOL    HW2 9928   6.492  14.179   1.703
36011SOL     OW 9929   1.149   4.738  13.439
36011SOL    HW1 9930   1.159   4.658  13.386
36011SOL    HW2 9931   1.108   4.801  13.379
36012SOL     OW 9932   6.341   1.991  11.177
36012SOL    HW1 9933   6.348   2.038  11.095
36012SOL    HW2 9934   6.430   1.992  11.214
36013SOL     OW 9935   1.683   7.485  10.679
36013SOL    HW1 9936   1.678   7.480  10.775
36013SOL    HW2 9937   1.630   7.412  10.648
36014SOL     OW 9938  12.329   7.195   8.335
36014SOL    HW1 9939  12.361   7.261   8.273
36014SOL    HW2 9940  12.377   7.116   8.313
36015SOL     OW 9941  14.339   7.266   6.308
36015SOL    HW1 9942  14.287   7.195   6.272
36015SOL    HW2 9943  14.386   7.303   6.233
36016SOL     OW 9944   0.337   6.776   1.307
36016SOL    HW1 9945   0.346   6.704   1.369
36016SOL    HW2 9946   0.380   6.850   1.351
36017SOL     OW 9947   5.738   0.148   1.037
36017SOL    HW1 9948   5.710   0.239   1.052
36017SOL    HW2 9949   5.702   0.126   0.952
36018SOL     OW 9950   1.330  11.650   6.328
36018SOL    HW1 9951   1.366  11.601   6.255
36018SOL    HW2 9952   1.385  11.728   6.335
36019SOL     OW 9953  11.386   8.599   7.327
36019SOL    HW1 9954  11.339   8.549   7.393
36019SOL    HW2 9955  11.318   8.648   7.281
36020SOL     OW 9956   4.239  14.496   9.454
36020SOL    HW1 9957   4.190  14.555   9.510
36020SOL    HW2 9958   4.189  14.492   9.373
36021SOL     OW 9959   3.458   7.129   6.449
36021SOL    HW1 9960   3.434   7.199   6.388
36021SOL    HW2 9961   3.488   7.175   6.527
36022SOL     OW 9962   6.256   4.109  14.748
36022SOL    HW1 9963   6.270   4.066  14.664
36022SOL    HW2 9964   6.242   4.038  14.810
36023SOL     OW 9965   8.441   1.625   1.047
36023SOL    HW1 9966   8.360   1.600   1.003
36023SOL    HW2 9967   8.477   1.544   1.082
36024SOL     OW 9968  10.772   3.732   0.068
36024SOL    HW1 9969  10.739   3.758  14.869
36024SOL    HW2 9970  10.694   3.731   0.124
36025SOL     OW 9971   4.268   8.124   0.278
36025SOL    HW1 9972   4.266   8.218   0.292
36025SOL    HW2 9973   4.176   8.098   0.274
36026SOL     OW 9974   4.036   2.925  11.098
36026SOL    HW1 9975   4.034   2.982  11.021
36026SOL    HW2 9976   3.991   2.975  11.166
36027SOL     OW 9977   1.953  12.683   4.642
36027SOL    HW1 9978   2.031  12.637   4.610
36027SOL    HW2 9979   1.883  12.654   4.583
36028SOL     OW 9980   3.856   3.804   1.753
36028SOL    HW1 9981   3.765   3.827   1.774
36028SOL    HW2 9982   3.848   3.733   1.689
36029SOL     OW 9983   9.969   1.236  10.931
36029SOL    HW1 9984   9.985   1.320  10.888
36029SOL    HW2 9985   9.874   1.232  10.944
36030SOL     OW 9986   8.028   7.811  10.804
36030SOL    HW1 9987   7.940   7.773  10.808
36030SOL    HW2 9988   8.045   7.841  10.893
36031SOL     OW 9989   7.790   6.252   5.413
36031SOL    HW1 9990   7.822   6.319   5.473
36031SOL    HW2 9991   7.728   6.201   5.465
36032SOL     OW 9992  13.496   8.379   4.420
36032SOL    HW1 9993  13.505   8.289   4.452
36032SOL    HW2 9994  13.513   8.372   4.326
36033SOL     OW 9995   6.039   2.734   3.673
36033SOL    HW1 9996   6.037   2.797   3.602
36033SOL    HW2 9997   6.074   2.783   3.748
36034SOL     OW 9998   0.551   5.549  13.870
36034SOL    HW1 9999   0.627   5.554  13.929
36034SOL    HW210000   0.560   5.625  13.813
36035SOL     OW10001   9.489  12.792   4.356
36035SOL    HW110002   9.455  12.820   4.271
36035SOL    HW210003   9.559  12.855   4.375
36036SOL     OW10004  11.992   0.774  11.481
36036SOL    HW110005  12.077   0.731  11.474
36036SOL    HW210006  11.998   0.827  11.560
36037SOL     OW10007   2.191  12.184  11.453
36037SOL    HW110008   2.214  12.098  11.488
36037SOL    HW210009   2.190  12.241  11.530
36038SOL     OW10010   6.164   8.864   5.350
36038SOL    HW110011   6.245   8.846   5.398
36038SOL    HW210012   6.126   8.778   5.334
36039SOL     OW10013   6.508   0.446   9.100
36039SOL    HW110014   6.486   0.460   9.008
36039SOL    HW210015   6.443   0.496   9.149
36040SOL     OW10016   1.303   7.135  13.226
36040SOL    HW110017   1.305   7.062  13.288
36040SOL    HW210018   1.211   7.142  13.201
36041SOL     OW10019   7.553   4.943   9.313
36041SOL    HW110020   7.496   4.875   9.278
36041SOL    HW210021   7.593   4.984   9.236
36042SOL     OW10022   2.436   0.191   8.952
36042SOL    HW110023   2.474   0.178   8.865
36042SOL    HW210024   2.500   0.244   8.999
36043SOL     OW10025   5.913   6.080  11.268
36043SOL    HW110026   5.861   6.158  11.248
36043SOL    HW210027   5.849   6.015  11.295
36044SOL     OW10028   0.963   4.596  14.055
36044SOL    HW110029   0.902   4.564  14.122
36044SOL    HW210030   1.036   4.632  14.105
36045SOL     OW10031   3.381   9.321  10.685
36045SOL    HW110032   3.429   9.294  10.764
36045SOL    HW210033   3.363   9.414  10.699
36046SOL     OW10034   3.175   3.655   4.843
36046SOL    HW110035   3.149   3.694   4.760
36046SOL    HW210036   3.271   3.658   4.842
36047SOL     OW10037   2.508  13.749   3.675
36047SOL    HW110038   2.520  13.817   3.741
36047SOL    HW210039   2.473  13.674   3.724
36048SOL     OW10040  12.500   5.474   6.901
36048SOL    HW110041  12.501   5.381   6.878
36048SOL    HW210042  12.510   5.519   6.818
36049SOL     OW10043   3.276   4.696   7.722
36049SOL    HW110044   3.248   4.661   7.638
36049SOL    HW210045   3.278   4.791   7.709
36050SOL     OW10046   7.787  10.842  14.833
36050SOL    HW110047   7.801  10.908  14.766
36050SOL    HW210048   7.775  10.892   0.027
36051SOL     OW10049   8.846   6.159   3.186
36051SOL    HW110050   8.910   6.213   3.232
36051SOL    HW210051   8.762   6.204   3.199
36052SOL     OW10052   6.138  11.493  13.650
36052SOL    HW110053   6.202  11.424  13.669
36052SOL    HW210054   6.102  11.516  13.736
36053SOL     OW10055  14.123  14.343   9.431
36053SOL    HW110056  14.211  14.359   9.395
36053SOL    HW210057  14.103  14.253   9.406
36054SOL     OW10058   6.594   2.674   2.357
36054SOL    HW110059   6.569   2.640   2.271
36054SOL    HW210060   6.521   2.729   2.384
36055SOL     OW10061   8.186   2.522  10.131
36055SOL    HW110062   8.274   2.515  10.170
36055SOL    HW210063   8.127   2.519  10.206
36056SOL     OW10064   8.450  12.076   3.978
36056SOL    HW110065   8.450  12.153   4.035
36056SOL    HW210066   8.404  12.009   4.028
36057SOL     OW10067   8.273  13.898   8.300
36057SOL    HW110068   8.203  13.843   8.335
36057SOL    HW210069   8.235  13.985   8.294
36058SOL     OW10070   1.545   1.855   8.892
36058SOL    HW110071   1.602   1.931   8.896
36058SOL    HW210072   1.604   1.783   8.867
36059SOL     OW10073   3.763   5.296   8.106
36059SOL    HW110074   3.755   5.390   8.123
36059SOL    HW210075   3.809   5.262   8.183
36060SOL     OW10076   3.445  12.373   5.578
36060SOL    HW110077   3.436  12.320   5.658
36060SOL    HW210078   3.364  12.424   5.574
36061SOL     OW10079   9.391   5.589  12.176
36061SOL    HW110080   9.326   5.545  12.122
36061SOL    HW210081   9.408   5.672  12.131
36062SOL     OW10082  12.556   9.313   4.004
36062SOL    HW110083  12.544   9.356   4.089
36062SOL    HW210084  12.468   9.285   3.979
36063SOL     OW10085  14.676   1.573   2.600
36063SOL    HW110086  14.593   1.566   2.647
36063SOL    HW210087  14.663   1.645   2.538
36064SOL     OW10088   2.180   5.886   2.526
36064SOL    HW110089   2.084   5.877   2.530
36064SOL    HW210090   2.200   5.882   2.433
36065SOL     OW10091   8.341   6.559   3.780
36065SOL    HW110092   8.294   6.624   3.833
36065SOL    HW210093   8.342   6.481   3.835
36066SOL     OW10094   7.267   2.837   0.280
36066SOL    HW110095   7.238   2.762   0.332
36066SOL    HW210096   7.363   2.833   0.285
36067SOL     OW10097   1.448   1.737  10.665
36067SOL    HW110098   1.389   1.676  10.622
36067SOL    HW210099   1.463   1.806  10.600
36068SOL     OW10100  13.063   1.206   9.346
36068SOL    HW110101  13.124   1.201   9.273
36068SOL    HW210102  12.986   1.250   9.310
36069SOL     OW10103   6.376   9.471   4.440
36069SOL    HW110104   6.323   9.528   4.384
36069SOL    HW210105   6.460   9.516   4.447
36070SOL     OW10106  13.897   5.800  13.106
36070SOL    HW110107  13.987   5.768  13.107
36070SOL    HW210108  13.846   5.728  13.146
36071SOL     OW10109  13.810   9.283   7.236
36071SOL    HW110110  13.820   9.191   7.261
36071SOL    HW210111  13.884   9.328   7.277
36072SOL     OW10112   4.036   7.498   4.192
36072SOL    HW110113   4.070   7.415   4.225
36072SOL    HW210114   4.087   7.565   4.238
36073SOL     OW10115  11.169   1.667   1.999
36073SOL    HW110116  11.241   1.676   1.938
36073SOL    HW210117  11.090   1.670   1.945
36074SOL     OW10118   0.901   3.354   4.426
36074SOL    HW110119   0.985   3.354   4.474
36074SOL    HW210120   0.859   3.272   4.453
36075SOL     OW10121   8.299   6.828   7.254
36075SOL    HW110122   8.371   6.766   7.264
36075SOL    HW210123   8.294   6.843   7.160
36076SOL     OW10124   4.726  13.535   5.281
36076SOL    HW110125   4.717  13.591   5.204
36076SOL    HW210126   4.640  13.538   5.323
36077SOL     OW10127   7.596   6.928   6.920
36077SOL    HW110128   7.537   6.878   6.977
36077SOL    HW210129   7.666   6.866   6.899
36078SOL     OW10130   6.065   1.017   0.841
36078SOL    HW110131   6.015   0.979   0.769
36078SOL    HW210132   6.140   1.059   0.799
36079SOL     OW10133  11.769   5.588   1.047
36079SOL    HW110134  11.763   5.493   1.056
36079SOL    HW210135  11.715   5.609   0.971
36080SOL     OW10136   6.626   3.050  14.171
36080SOL    HW110137   6.655   3.124  14.118
36080SOL    HW210138   6.706   2.999  14.186
36081SOL     OW10139   1.603   2.295  12.271
36081SOL    HW110140   1.514   2.272  12.297
36081SOL    HW210141   1.610   2.389  12.288
36082SOL     OW10142   6.128   9.676   7.463
36082SOL    HW110143   6.188   9.611   7.427
36082SOL    HW210144   6.085   9.632   7.536
36083SOL     OW10145   1.584   8.929  14.520
36083SOL    HW110146   1.639   8.858  14.552
36083SOL    HW210147   1.594   8.998  14.585
36084SOL     OW10148  14.064  11.898   2.881
36084SOL    HW110149  14.013  11.906   2.801
36084SOL    HW210150  14.117  11.819   2.868
36085SOL     OW10151   5.697   3.769   7.418
36085SOL    HW110152   5.738   3.731   7.341
36085SOL    HW210153   5.638   3.701   7.451
36086SOL     OW10154  12.775   9.110  10.801
36086SOL    HW110155  12.827   9.039  10.839
36086SOL    HW210156  12.834   9.152  10.739
36087SOL     OW10157   4.433  12.689   1.768
36087SOL    HW110158   4.454  12.729   1.852
36087SOL    HW210159   4.337  12.694   1.762
36088SOL     OW10160   8.533   9.517   8.411
36088SOL    HW110161   8.458   9.458   8.401
36088SOL    HW210162   8.594   9.490   8.342
36089SOL     OW10163   8.840   9.908   8.623
36089SOL    HW110164   8.908   9.843   8.604
36089SOL    HW210165   8.765   9.881   8.570
36090SOL     OW10166   7.748  12.461   6.077
36090SOL    HW110167   7.830  12.464   6.028
36090SOL    HW210168   7.719  12.370   6.069
36091SOL     OW10169  13.558   6.094   6.153
36091SOL    HW110170  13.537   6.016   6.205
36091SOL    HW210171  13.477   6.145   6.151
36092SOL     OW10172   3.515   8.593   0.109
36092SOL    HW110173   3.444   8.651   0.138
36092SOL    HW210174   3.564   8.644   0.046
36093SOL     OW10175   0.157   4.241   2.548
36093SOL    HW110176   0.243   4.200   2.548
36093SOL    HW210177   0.173   4.332   2.526
36094SOL     OW10178   4.486   4.960   0.305
36094SOL    HW110179   4.470   5.021   0.378
36094SOL    HW210180   4.483   4.874   0.346
36095SOL     OW10181   4.104  12.544   8.785
36095SOL    HW110182   4.105  12.632   8.746
36095SOL    HW210183   4.191  12.533   8.822
36096SOL     OW10184   0.675   9.227   2.917
36096SOL    HW110185   0.657   9.170   2.842
36096SOL    HW210186   0.589   9.264   2.940
36097SOL     OW10187   8.387   1.970   4.406
36097SOL    HW110188   8.383   1.885   4.363
36097SOL    HW210189   8.480   1.984   4.423
36098SOL     OW10190   3.353   6.042   8.760
36098SOL    HW110191   3.423   5.977   8.756
36098SOL    HW210192   3.273   5.991   8.775
36099SOL     OW10193   5.055   9.692  11.548
36099SOL    HW110194   5.000   9.768  11.565
36099SOL    HW210195   5.014   9.621  11.596
36100SOL     OW10196  10.376   2.961   5.426
36100SOL    HW110197  10.304   2.927   5.373
36100SOL    HW210198  10.443   2.984   5.362
36101SOL     OW10199   6.063   0.001   6.379
36101SOL    HW110200   5.986   0.049   6.409
36101SOL    HW210201   6.133   0.030   6.437
36102SOL     OW10202  11.088  12.389   4.324
36102SOL    HW110203  11.008  12.339   4.343
36102SOL    HW210204  11.065  12.442   4.247
36103SOL     OW10205   9.828   6.833   0.037
36103SOL    HW110206   9.847   6.819   0.130
36103SOL    HW210207   9.745   6.789   0.022
36104SOL     OW10208   4.631   8.376   8.811
36104SOL    HW110209   4.567   8.426   8.759
36104SOL    HW210210   4.664   8.309   8.751
36105SOL     OW10211   8.297   9.039  11.367
36105SOL    HW110212   8.378   9.060  11.320
36105SOL    HW210213   8.253   9.122  11.378
36106SOL     OW10214   1.550  14.207   5.820
36106SOL    HW110215   1.522  14.293   5.789
36106SOL    HW210216   1.543  14.150   5.744
36107SOL     OW10217  11.614   9.865   7.704
36107SOL    HW110218  11.699   9.909   7.708
36107SOL    HW210219  11.566   9.913   7.637
36108SOL     OW10220   2.531  13.319   0.601
36108SOL    HW110221   2.598  13.260   0.636
36108SOL    HW210222   2.451  13.295   0.647
36109SOL     OW10223   2.538   4.547  12.209
36109SOL    HW110224   2.473   4.592  12.156
36109SOL    HW210225   2.492   4.528  12.291
36110SOL     OW10226  13.340   0.841  12.834
36110SOL    HW110227  13.285   0.764  12.850
36110SOL    HW210228  13.421   0.823  12.883
36111SOL     OW10229   4.737   4.513  10.241
36111SOL    HW110230   4.816   4.562  10.219
36111SOL    HW210231   4.665   4.570  10.212
36112SOL     OW10232  10.769   5.471   4.642
36112SOL    HW110233  10.714   5.420   4.583
36112SOL    HW210234  10.750   5.562   4.620
36113SOL     OW10235  13.043   4.239   2.486
36113SOL    HW110236  13.062   4.159   2.437
36113SOL    HW210237  13.021   4.209   2.574
36114SOL     OW10238   7.537   4.356   7.609
36114SOL    HW110239   7.492   4.371   7.693
36114SOL    HW210240   7.559   4.444   7.578
36115SOL     OW10241   9.389  13.612   4.113
36115SOL    HW110242   9.311  13.653   4.152
36115SOL    HW210243   9.355  13.536   4.066
36116SOL     OW10244  12.212   8.406   8.890
36116SOL    HW110245  12.217   8.313   8.869
36116SOL    HW210246  12.285   8.445   8.842
36117SOL     OW10247   2.710   4.592  12.789
36117SOL    HW110248   2.733   4.542  12.866
36117SOL    HW210249   2.635   4.547  12.751
36118SOL     OW10250   1.044  13.116   1.506
36118SOL    HW110251   1.103  13.192   1.511
36118SOL    HW210252   1.006  13.110   1.594
36119SOL     OW10253  12.232   3.896  13.895
36119SOL    HW110254  12.314   3.936  13.925
36119SOL    HW210255  12.176   3.970  13.873
36120SOL     OW10256   3.871   0.201   2.001
36120SOL    HW110257   3.866   0.283   2.049
36120SOL    HW210258   3.900   0.137   2.067
36121SOL     OW10259  14.870  10.188   9.652
36121SOL    HW110260  14.775  10.188   9.666
36121SOL    HW210261  14.880  10.180   9.557
36122SOL     OW10262  13.677   5.153   0.437
36122SOL    HW110263  13.698   5.129   0.346
36122SOL    HW210264  13.724   5.235   0.452
36123SOL     OW10265   2.648   8.318  13.560
36123SOL    HW110266   2.672   8.403  13.597
36123SOL    HW210267   2.728   8.287  13.518
36124SOL     OW10268   6.164   6.838  11.030
36124SOL    HW110269   6.085   6.893  11.023
36124SOL    HW210270   6.221   6.886  11.089
36125SOL     OW10271   7.133   9.637  12.107
36125SOL    HW110272   7.159   9.579  12.036
36125SOL    HW210273   7.211   9.689  12.126
36126SOL     OW10274   9.017   1.820   7.481
36126SOL    HW110275   9.007   1.897   7.538
36126SOL    HW210276   9.106   1.828   7.447
36127SOL     OW10277   9.979   2.205   6.673
36127SOL    HW110278   9.918   2.275   6.694
36127SOL    HW210279  10.008   2.172   6.758
36128SOL     OW10280   4.008   0.344  12.884
36128SOL    HW110281   4.024   0.260  12.927
36128SOL    HW210282   3.916   0.342  12.860
36129SOL     OW10283   8.249   6.572   4.208
36129SOL    HW110284   8.194   6.517   4.152
36129SOL    HW210285   8.326   6.592   4.155
36130SOL     OW10286  13.078   9.293   1.925
36130SOL    HW110287  13.148   9.237   1.959
36130SOL    HW210288  13.054   9.254   1.841
36131SOL     OW10289   1.044   4.068  13.626
36131SOL    HW110290   0.999   4.001  13.677
36131SOL    HW210291   0.978   4.137  13.613
36132SOL     OW10292   2.707   9.725   1.351
36132SOL    HW110293   2.718   9.632   1.335
36132SOL    HW210294   2.792   9.754   1.384
36133SOL     OW10295   1.190   7.972   1.092
36133SOL    HW110296   1.103   7.938   1.070
36133SOL    HW210297   1.178   8.011   1.179
36134SOL     OW10298   3.481  11.653   4.838
36134SOL    HW110299   3.537  11.730   4.837
36134SOL    HW210300   3.419  11.666   4.767
36135SOL     OW10301  14.758   4.777  10.646
36135SOL    HW110302  14.818   4.827  10.701
36135SOL    HW210303  14.679   4.768  10.699
36136SOL     OW10304   7.957  10.489  12.895
36136SOL    HW110305   7.878  10.446  12.864
36136SOL    HW210306   8.028  10.428  12.872
36137SOL     OW10307   2.686  14.035   2.767
36137SOL    HW110308   2.734  14.047   2.849
36137SOL    HW210309   2.680  13.940   2.756
36138SOL     OW10310   1.104  11.915   1.886
36138SOL    HW110311   1.093  11.900   1.980
36138SOL    HW210312   1.112  11.827   1.849
36139SOL     OW10313   2.643   2.196  13.759
36139SOL    HW110314   2.643   2.100  13.766
36139SOL    HW210315   2.728   2.217  13.721
36140SOL     OW10316   3.529  12.970   7.649
36140SOL    HW110317   3.490  12.914   7.716
36140SOL    HW210318   3.560  13.046   7.697
36141SOL     OW10319  14.001   0.309  10.114
36141SOL    HW110320  13.939   0.296  10.185
36141SOL    HW210321  14.055   0.382  10.142
36142SOL     OW10322  11.313   7.189   2.428
36142SOL    HW110323  11.257   7.149   2.495
36142SOL    HW210324  11.264   7.177   2.346
36143SOL     OW10325   3.456  14.390  12.217
36143SOL    HW110326   3.384  14.398  12.279
36143SOL    HW210327   3.522  14.453  12.248
36144SOL     OW10328  12.414  13.573   0.740
36144SOL    HW110329  12.402  13.656   0.786
36144SOL    HW210330  12.493  13.535   0.778
36145SOL     OW10331  13.372   7.410   9.324
36145SOL    HW110332  13.387   7.443   9.235
36145SOL    HW210333  13.449   7.439   9.373
36146SOL     OW10334   8.591   9.828  14.115
36146SOL    HW110335   8.684   9.848  14.106
36146SOL    HW210336   8.548   9.914  14.119
36147SOL     OW10337   8.930   4.315   7.314
36147SOL    HW110338   8.853   4.264   7.287
36147SOL    HW210339   8.924   4.396   7.263
36148SOL     OW10340  11.776   8.484  13.936
36148SOL    HW110341  11.840   8.531  13.989
36148SOL    HW210342  11.695   8.487  13.987
36149SOL     OW10343   8.557   0.489   7.098
36149SOL    HW110344   8.495   0.431   7.053
36149SOL    HW210345   8.534   0.577   7.068
36150SOL     OW10346   6.309   4.162   7.925
36150SOL    HW110347   6.404   4.153   7.930
36150SOL    HW210348   6.277   4.072   7.917
36151SOL     OW10349   1.419   8.641  11.787
36151SOL    HW110350   1.376   8.592  11.857
36151SOL    HW210351   1.349   8.663  11.726
36152SOL     OW10352  10.866   1.815   8.026
36152SOL    HW110353  10.822   1.765   8.095
36152SOL    HW210354  10.847   1.766   7.946
36153SOL     OW10355  10.829  11.986   0.214
36153SOL    HW110356  10.743  12.017   0.186
36153SOL    HW210357  10.885  11.998   0.137
36154SOL     OW10358   1.820  11.615  13.174
36154SOL    HW110359   1.832  11.687  13.113
36154SOL    HW210360   1.746  11.565  13.139
36155SOL     OW10361   5.970   7.943  13.477
36155SOL    HW110362   6.047   7.900  13.440
36155SOL    HW210363   5.954   7.897  13.559
36156SOL     OW10364   9.311  11.275  11.615
36156SOL    HW110365   9.375  11.250  11.681
36156SOL    HW210366   9.265  11.194  11.594
36157SOL     OW10367   4.348  10.933  12.324
36157SOL    HW110368   4.338  10.949  12.417
36157SOL    HW210369   4.387  10.846  12.318
36158SOL     OW10370   6.862  14.875   2.001
36158SOL    HW110371   6.794   0.055   1.994
36158SOL    HW210372   6.854  14.843   2.091
36159SOL     OW10373   5.417  12.308   1.306
36159SOL    HW110374   5.440  12.364   1.231
36159SOL    HW210375   5.322  12.304   1.305
36160SOL     OW10376   2.363   9.724   6.850
36160SOL    HW110377   2.357   9.714   6.755
36160SOL    HW210378   2.340   9.816   6.865
36161SOL     OW10379   9.375   2.063   0.025
36161SOL    HW110380   9.401   1.997   0.089
36161SOL    HW210381   9.279   2.060   0.026
36162SOL     OW10382   7.131   8.463   9.264
36162SOL    HW110383   7.172   8.387   9.221
36162SOL    HW210384   7.052   8.428   9.304
36163SOL     OW10385   4.476   0.018   6.606
36163SOL    HW110386   4.540  14.880   6.671
36163SOL    HW210387   4.400  14.850   6.623
36164SOL     OW10388   1.747   7.585  14.375
36164SOL    HW110389   1.817   7.581  14.440
36164SOL    HW210390   1.783   7.542  14.297
36165SOL     OW10391   7.855   7.238  14.093
36165SOL    HW110392   7.936   7.283  14.117
36165SOL    HW210393   7.814   7.217  14.177
36166SOL     OW10394   1.074   1.392   7.455
36166SOL    HW110395   1.003   1.411   7.394
36166SOL    HW210396   1.032   1.349   7.529
36167SOL     OW10397   9.213   6.743   1.233
36167SOL    HW110398   9.130   6.708   1.264
36167SOL    HW210399   9.235   6.813   1.294
36168SOL     OW10400  11.112   1.544   7.741
36168SOL    HW110401  11.077   1.543   7.830
36168SOL    HW210402  11.074   1.467   7.700
36169SOL     OW10403   8.276   9.122  11.916
36169SOL    HW110404   8.199   9.074  11.946
36169SOL    HW210405   8.309   9.070  11.843
36170SOL     OW10406  14.422   6.025  14.107
36170SOL    HW110407  14.427   6.121  14.109
36170SOL    HW210408  14.355   6.002  14.170
36171SOL     OW10409   5.032  11.827   8.635
36171SOL    HW110410   5.015  11.799   8.544
36171SOL    HW210411   5.121  11.860   8.634
36172SOL     OW10412   7.567   4.755   8.631
36172SOL    HW110413   7.594   4.847   8.625
36172SOL    HW210414   7.555   4.739   8.724
36173SOL     OW10415   3.025   0.878   4.142
36173SOL    HW110416   3.060   0.837   4.062
36173SOL    HW210417   3.011   0.969   4.118
36174SOL     OW10418   9.812  13.724   4.021
36174SOL    HW110419   9.892  13.673   4.029
36174SOL    HW210420   9.824  13.796   4.083
36175SOL     OW10421  10.742  14.757  13.879
36175SOL    HW110422  10.665  14.721  13.835
36175SOL    HW210423  10.811  14.692  13.864
36176SOL     OW10424   2.687  14.188  12.640
36176SOL    HW110425   2.737  14.166  12.561
36176SOL    HW210426   2.629  14.259  12.612
36177SOL     OW10427   1.516  13.886  11.302
36177SOL    HW110428   1.489  13.950  11.237
36177SOL    HW210429   1.610  13.901  11.314
36178SOL     OW10430  14.207  14.125   2.883
36178SOL    HW110431  14.204  14.032   2.903
36178SOL    HW210432  14.146  14.165   2.944
36179SOL     OW10433  10.074  10.409  14.713
36179SOL    HW110434  10.111  10.343  14.655
36179SOL    HW210435   9.987  10.376  14.734
36180SOL     OW10436   3.858   2.969   7.392
36180SOL    HW110437   3.829   3.030   7.324
36180SOL    HW210438   3.838   2.882   7.356
36181SOL     OW10439   8.444   4.408   8.465
36181SOL    HW110440   8.394   4.486   8.442
36181SOL    HW210441   8.415   4.342   8.403
36182SOL     OW10442   3.218   8.929  11.860
36182SOL    HW110443   3.127   8.904  11.845
36182SOL    HW210444   3.233   8.910  11.953
36183SOL     OW10445  12.547   9.794   1.134
36183SOL    HW110446  12.542   9.698   1.130
36183SOL    HW210447  12.541   9.814   1.227
36184SOL     OW10448  14.347  11.447  14.443
36184SOL    HW110449  14.287  11.388  14.489
36184SOL    HW210450  14.337  11.425  14.350
36185SOL     OW10451   8.721   8.344   4.284
36185SOL    HW110452   8.762   8.264   4.316
36185SOL    HW210453   8.776   8.414   4.320
36186SOL     OW10454  13.310   2.921   0.060
36186SOL    HW110455  13.365   2.846   0.036
36186SOL    HW210456  13.284   2.959  14.864
36187SOL     OW10457   2.986   4.693   0.169
36187SOL    HW110458   2.922   4.623   0.161
36187SOL    HW210459   2.962   4.755   0.100
36188SOL     OW10460   4.683   2.546   9.383
36188SOL    HW110461   4.758   2.549   9.323
36188SOL    HW210462   4.716   2.582   9.465
36189SOL     OW10463  13.606  10.265   2.116
36189SOL    HW110464  13.525  10.304   2.147
36189SOL    HW210465  13.626  10.311   2.035
36190SOL     OW10466   6.747  14.754   7.540
36190SOL    HW110467   6.800  14.747   7.620
36190SOL    HW210468   6.785  14.691   7.480
36191SOL     OW10469   3.035  11.583  13.207
36191SOL    HW110470   2.958  11.530  13.231
36191SOL    HW210471   3.009  11.627  13.126
36192SOL     OW10472   8.455  11.832   4.653
36192SOL    HW110473   8.510  11.858   4.579
36192SOL    HW210474   8.394  11.769   4.616
36193SOL     OW10475   5.663   7.557   6.563
36193SOL    HW110476   5.740   7.595   6.520
36193SOL    HW210477   5.634   7.488   6.503
36194SOL     OW10478  11.985   4.388   2.093
36194SOL    HW110479  11.968   4.398   1.999
36194SOL    HW210480  12.079   4.402   2.102
36195SOL     OW10481  12.886   3.719  10.773
36195SOL    HW110482  12.894   3.809  10.743
36195SOL    HW210483  12.945   3.713  10.848
36196SOL     OW10484  12.265   3.789   4.275
36196SOL    HW110485  12.221   3.745   4.347
36196SOL    HW210486  12.207   3.779   4.200
36197SOL     OW10487   0.288  14.317   6.896
36197SOL    HW110488   0.270  14.339   6.804
36197SOL    HW210489   0.234  14.241   6.913
36198SOL     OW10490   1.508   1.980  10.461
36198SOL    HW110491   1.460   1.934  10.392
36198SOL    HW210492   1.476   2.070  10.456
36199SOL     OW10493   5.866   1.939   9.183
36199SOL    HW110494   5.870   2.011   9.121
36199SOL    HW210495   5.886   1.979   9.268
36200SOL     OW10496   5.127  14.121  14.269
36200SOL    HW110497   5.054  14.177  14.242
36200SOL    HW210498   5.201  14.150  14.215
36201SOL     OW10499   3.595   2.137  12.838
36201SOL    HW110500   3.620   2.113  12.749
36201SOL    HW210501   3.503   2.162  12.831
36202SOL     OW10502   3.447  10.936   3.938
36202SOL    HW110503   3.520  10.996   3.923
36202SOL    HW210504   3.382  10.988   3.985
36203SOL     OW10505   7.885   0.995  12.587
36203SOL    HW110506   7.910   0.967  12.499
36203SOL    HW210507   7.802   0.951  12.604
36204SOL     OW10508  12.268   4.983   6.700
36204SOL    HW110509  12.219   4.901   6.696
36204SOL    HW210510  12.201   5.051   6.702
36205SOL     OW10511  11.577   8.128  10.097
36205SOL    HW110512  11.639   8.056  10.085
36205SOL    HW210513  11.493   8.085  10.112
36206SOL     OW10514  10.137   5.058   2.882
36206SOL    HW110515  10.169   5.139   2.922
36206SOL    HW210516  10.044   5.057   2.901
36207SOL     OW10517  10.333  13.787  10.649
36207SOL    HW110518  10.396  13.718  10.628
36207SOL    HW210519  10.371  13.832  10.724
36208SOL     OW10520   0.653   1.611   3.760
36208SOL    HW110521   0.573   1.567   3.789
36208SOL    HW210522   0.661   1.588   3.667
36209SOL     OW10523   8.283   4.689   5.276
36209SOL    HW110524   8.279   4.764   5.218
36209SOL    HW210525   8.196   4.684   5.316
36210SOL     OW10526   8.294   6.025   2.310
36210SOL    HW110527   8.321   5.983   2.392
36210SOL    HW210528   8.205   5.992   2.294
36211SOL     OW10529   8.525   3.726  12.319
36211SOL    HW110530   8.465   3.668  12.272
36211SOL    HW210531   8.473   3.805  12.337
36212SOL     OW10532  12.924  14.219  13.138
36212SOL    HW110533  12.948  14.139  13.185
36212SOL    HW210534  12.960  14.290  13.192
36213SOL     OW10535  13.522   2.967   6.906
36213SOL    HW110536  13.453   2.911   6.872
36213SOL    HW210537  13.590   2.907   6.935
36214SOL     OW10538   5.855   5.135   9.143
36214SOL    HW110539   5.900   5.072   9.087
36214SOL    HW210540   5.768   5.097   9.156
36215SOL     OW10541   3.664   4.343   7.514
36215SOL    HW110542   3.751   4.361   7.549
36215SOL    HW210543   3.657   4.399   7.436
36216SOL     OW10544   3.352   7.386   8.151
36216SOL    HW110545   3.328   7.305   8.195
36216SOL    HW210546   3.306   7.455   8.200
36217SOL     OW10547   5.322   5.566   6.865
36217SOL    HW110548   5.321   5.613   6.782
36217SOL    HW210549   5.303   5.633   6.931
36218SOL     OW10550   4.031   1.455   2.911
36218SOL    HW110551   3.994   1.367   2.917
36218SOL    HW210552   3.998   1.500   2.989
36219SOL     OW10553   5.827  13.324   9.004
36219SOL    HW110554   5.769  13.266   9.052
36219SOL    HW210555   5.914  13.286   9.014
36220SOL     OW10556   9.954   5.112   5.538
36220SOL    HW110557   9.888   5.077   5.597
36220SOL    HW210558   9.931   5.076   5.452
36221SOL     OW10559   4.424   3.591  13.118
36221SOL    HW110560   4.444   3.504  13.082
36221SOL    HW210561   4.508   3.637  13.116
36222SOL     OW10562   2.290   6.773   1.864
36222SOL    HW110563   2.348   6.714   1.913
36222SOL    HW210564   2.329   6.860   1.875
36223SOL     OW10565   6.058  12.637   1.490
36223SOL    HW110566   6.045  12.647   1.584
36223SOL    HW210567   5.993  12.696   1.450
36224SOL     OW10568   4.624  13.667   5.052
36224SOL    HW110569   4.616  13.761   5.068
36224SOL    HW210570   4.537  13.641   5.022
36225SOL     OW10571   6.755  10.057   4.798
36225SOL    HW110572   6.841  10.021   4.776
36225SOL    HW210573   6.738  10.025   4.887
36226SOL     OW10574   7.358   8.399  13.613
36226SOL    HW110575   7.352   8.331  13.680
36226SOL    HW210576   7.451   8.414  13.602
36227SOL     OW10577  12.576   5.527   2.120
36227SOL    HW110578  12.664   5.498   2.095
36227SOL    HW210579  12.552   5.469   2.193
36228SOL     OW10580   6.372  13.853  14.039
36228SOL    HW110581   6.423  13.790  13.988
36228SOL    HW210582   6.348  13.806  14.119
36229SOL     OW10583   9.076   9.121  14.295
36229SOL    HW110584   9.044   9.139  14.206
36229SOL    HW210585   9.139   9.051  14.284
36230SOL     OW10586   3.309   2.264   8.665
36230SOL    HW110587   3.290   2.174   8.638
36230SOL    HW210588   3.245   2.282   8.734
36231SOL     OW10589   3.449   2.456   3.837
36231SOL    HW110590   3.489   2.521   3.780
36231SOL    HW210591   3.367   2.434   3.793
36232SOL     OW10592   5.225   4.956   2.648
36232SOL    HW110593   5.155   4.956   2.583
36232SOL    HW210594   5.236   4.864   2.672
36233SOL     OW10595   9.951   1.339   3.856
36233SOL    HW110596   9.988   1.390   3.928
36233SOL    HW210597   9.869   1.303   3.891
36234SOL     OW10598  13.027   5.565   0.628
36234SOL    HW110599  12.998   5.628   0.695
36234SOL    HW210600  12.955   5.503   0.622
36235SOL     OW10601   7.251   9.852   1.189
36235SOL    HW110602   7.260   9.816   1.101
36235SOL    HW210603   7.340   9.875   1.215
36236SOL     OW10604   8.121   8.788   3.251
36236SOL    HW110605   8.157   8.775   3.339
36236SOL    HW210606   8.069   8.710   3.235
36237SOL     OW10607   2.147   0.029   6.304
36237SOL    HW110608   2.107   0.067   6.225
36237SOL    HW210609   2.241   0.030   6.286
36238SOL     OW10610  12.836   2.026   3.744
36238SOL    HW110611  12.781   2.047   3.819
36238SOL    HW210612  12.776   1.989   3.679
36239SOL     OW10613   2.797   0.299   1.334
36239SOL    HW110614   2.856   0.304   1.258
36239SOL    HW210615   2.809   0.210   1.367
36240SOL     OW10616   8.716   7.006  13.675
36240SOL    HW110617   8.728   6.913  13.694
36240SOL    HW210618   8.708   7.047  13.760
36241SOL     OW10619  13.448   0.967   8.289
36241SOL    HW110620  13.464   1.033   8.220
36241SOL    HW210621  13.500   0.997   8.363
36242SOL     OW10622   4.862  11.298   9.160
36242SOL    HW110623   4.791  11.254   9.206
36242SOL    HW210624   4.819  11.354   9.095
36243SOL     OW10625   0.808   8.787  12.427
36243SOL    HW110626   0.886   8.839  12.409
36243SOL    HW210627   0.760   8.837  12.494
36244SOL     OW10628  14.322  13.016   3.146
36244SOL    HW110629  14.325  13.111   3.133
36244SOL    HW210630  14.398  12.983   3.098
36245SOL     OW10631   3.644  13.088  12.264
36245SOL    HW110632   3.737  13.064  12.261
36245SOL    HW210633   3.600  13.021  12.212
36246SOL     OW10634   9.039   2.767   4.193
36246SOL    HW110635   8.949   2.761   4.225
36246SOL    HW210636   9.091   2.790   4.270
36247SOL     OW10637  12.619   3.317  11.763
36247SOL    HW110638  12.705   3.279  11.782
36247SOL    HW210639  12.627   3.409  11.789
36248SOL     OW10640   1.912   1.828   3.987
36248SOL    HW110641   1.987   1.769   3.985
36248SOL    HW210642   1.870   1.810   4.072
36249SOL     OW10643   4.820   0.060   7.475
36249SOL    HW110644   4.781   0.023   7.554
36249SOL    HW210645   4.745   0.078   7.418
36250SOL     OW10646  11.589   8.797   4.510
36250SOL    HW110647  11.579   8.726   4.573
36250SOL    HW210648  11.620   8.871   4.563
36251SOL     OW10649   1.891   4.953   2.055
36251SOL    HW110650   1.860   4.870   2.018
36251SOL    HW210651   1.811   5.004   2.068
36252SOL     OW10652   0.870   6.505   7.069
36252SOL    HW110653   0.855   6.573   7.136
36252SOL    HW210654   0.929   6.547   7.006
36253SOL     OW10655   1.973  13.735  14.885
36253SOL    HW110656   2.018  13.763  14.806
36253SOL    HW210657   1.911  13.668  14.855
36254SOL     OW10658  13.839   3.753   8.068
36254SOL    HW110659  13.918   3.765   8.015
36254SOL    HW210660  13.856   3.674   8.119
36255SOL     OW10661   2.159   7.925  13.639
36255SOL    HW110662   2.134   7.839  13.674
36255SOL    HW210663   2.254   7.921  13.633
36256SOL     OW10664  12.919   6.765   5.912
36256SOL    HW110665  12.896   6.765   5.819
36256SOL    HW210666  12.858   6.702   5.951
36257SOL     OW10667   2.183   3.069   9.667
36257SOL    HW110668   2.209   3.028   9.749
36257SOL    HW210669   2.250   3.041   9.604
36258SOL     OW10670   1.071   7.718  10.077
36258SOL    HW110671   1.098   7.632  10.044
36258SOL    HW210672   1.075   7.775  10.000
36259SOL     OW10673   3.366   0.327   4.656
36259SOL    HW110674   3.426   0.274   4.710
36259SOL    HW210675   3.394   0.311   4.566
36260SOL     OW10676   6.584   6.129   0.801
36260SOL    HW110677   6.584   6.213   0.757
36260SOL    HW210678   6.668   6.089   0.777
36261SOL     OW10679   6.088   5.925  11.412
36261SOL    HW110680   6.075   5.927  11.507
36261SOL    HW210681   6.028   5.992  11.378
36262SOL     OW10682   4.603  14.605   0.029
36262SOL    HW110683   4.625  14.656  14.838
36262SOL    HW210684   4.629  14.516   0.007
36263SOL     OW10685   3.382  11.824  14.336
36263SOL    HW110686   3.445  11.776  14.391
36263SOL    HW210687   3.436  11.882  14.283
36264SOL     OW10688   5.898   1.896  11.837
36264SOL    HW110689   5.919   1.918  11.927
36264SOL    HW210690   5.903   1.800  11.833
36265SOL     OW10691   0.231  12.425   6.476
36265SOL    HW110692   0.249  12.509   6.433
36265SOL    HW210693   0.300  12.416   6.542
36266SOL     OW10694   7.584   7.834  12.335
36266SOL    HW110695   7.494   7.858  12.312
36266SOL    HW210696   7.580   7.740  12.353
36267SOL     OW10697   1.325  10.644   8.875
36267SOL    HW110698   1.243  10.597   8.862
36267SOL    HW210699   1.359  10.658   8.787
36268SOL     OW10700   9.276   7.551   7.667
36268SOL    HW110701   9.321   7.578   7.587
36268SOL    HW210702   9.189   7.522   7.637
36269SOL     OW10703  14.679  11.043   5.416
36269SOL    HW110704  14.640  10.984   5.480
36269SOL    HW210705  14.765  11.066   5.453
36270SOL     OW10706   0.039   4.706  10.312
36270SOL    HW110707  14.854   4.769  10.317
36270SOL    HW210708   0.113   4.753  10.351
36271SOL     OW10709  11.560   4.263   7.431
36271SOL    HW110710  11.486   4.314   7.463
36271SOL    HW210711  11.637   4.304   7.472
36272SOL     OW10712  11.302   3.286  11.696
36272SOL    HW110713  11.242   3.320  11.630
36272SOL    HW210714  11.373   3.246  11.646
36273SOL     OW10715   4.073   9.071  14.189
36273SOL    HW110716   4.119   9.130  14.129
36273SOL    HW210717   3.984   9.106  14.193
36274SOL     OW10718  13.087  12.254   9.347
36274SOL    HW110719  13.028  12.296   9.284
36274SOL    HW210720  13.089  12.162   9.319
36275SOL     OW10721   6.300   8.667   4.139
36275SOL    HW110722   6.290   8.704   4.051
36275SOL    HW210723   6.210   8.661   4.173
36276SOL     OW10724   2.773   2.024   4.611
36276SOL    HW110725   2.740   2.103   4.568
36276SOL    HW210726   2.826   1.981   4.543
36277SOL     OW10727   8.218   1.712   2.673
36277SOL    HW110728   8.187   1.705   2.764
36277SOL    HW210729   8.229   1.806   2.660
36278SOL     OW10730   6.394   6.931  11.131
36278SOL    HW110731   6.431   6.919  11.043
36278SOL    HW210732   6.418   6.851  11.177
36279SOL     OW10733  11.505   9.528  11.504
36279SOL    HW110734  11.576   9.489  11.452
36279SOL    HW210735  11.512   9.622  11.488
36280SOL     OW10736   2.662  11.306  10.004
36280SOL    HW110737   2.741  11.260  10.031
36280SOL    HW210738   2.693  11.391   9.973
36281SOL     OW10739   1.569   3.198  10.248
36281SOL    HW110740   1.623   3.120  10.235
36281SOL    HW210741   1.486   3.178  10.205
36282SOL     OW10742  11.062   0.667   0.538
36282SOL    HW110743  11.126   0.602   0.567
36282SOL    HW210744  10.995   0.616   0.494
36283SOL     OW10745  10.365   6.019  10.258
36283SOL    HW110746  10.414   6.089  10.301
36283SOL    HW210747  10.382   6.031  10.165
36284SOL     OW10748  14.385  12.350  14.295
36284SOL    HW110749  14.404  12.270  14.246
36284SOL    HW210750  14.310  12.388  14.251
36285SOL     OW10751  14.063   4.427  12.015
36285SOL    HW110752  14.096   4.516  12.006
36285SOL    HW210753  13.995   4.433  12.082
36286SOL     OW10754  13.566   9.741   8.140
36286SOL    HW110755  13.608   9.826   8.126
36286SOL    HW210756  13.473   9.762   8.148
36287SOL     OW10757  13.069  11.280   0.087
36287SOL    HW110758  13.145  11.282   0.146
36287SOL    HW210759  13.027  11.196   0.106
36288SOL     OW10760   3.825  14.006   2.688
36288SOL    HW110761   3.752  14.067   2.687
36288SOL    HW210762   3.899  14.057   2.720
36289SOL     OW10763  13.000   0.488   0.312
36289SOL    HW110764  12.978   0.573   0.351
36289SOL    HW210765  12.943   0.480   0.236
36290SOL     OW10766  10.939  10.102   2.768
36290SOL    HW110767  10.897  10.135   2.847
36290SOL    HW210768  10.942  10.007   2.780
36291SOL     OW10769   4.637  10.413   2.491
36291SOL    HW110770   4.607  10.481   2.551
36291SOL    HW210771   4.557  10.374   2.456
36292SOL     OW10772   8.725   7.103   3.182
36292SOL    HW110773   8.800   7.124   3.126
36292SOL    HW210774   8.750   7.136   3.269
36293SOL     OW10775   7.444  11.950   5.253
36293SOL    HW110776   7.457  11.855   5.242
36293SOL    HW210777   7.451  11.985   5.164
36294SOL     OW10778   8.524  10.319  11.670
36294SOL    HW110779   8.455  10.256  11.652
36294SOL    HW210780   8.478  10.393  11.711
36295SOL     OW10781  13.192   8.835   2.185
36295SOL    HW110782  13.246   8.787   2.247
36295SOL    HW210783  13.123   8.875   2.238
36296SOL     OW10784  12.653   9.970   6.379
36296SOL    HW110785  12.595  10.015   6.439
36296SOL    HW210786  12.696  10.040   6.330
36297SOL     OW10787   3.953   3.537   4.118
36297SOL    HW110788   4.041   3.559   4.089
36297SOL    HW210789   3.938   3.593   4.194
36298SOL     OW10790   8.197   9.704  13.243
36298SOL    HW110791   8.175   9.615  13.215
36298SOL    HW210792   8.115   9.740  13.276
36299SOL     OW10793   2.975   9.713  10.333
36299SOL    HW110794   2.949   9.748  10.418
36299SOL    HW210795   3.068   9.692  10.343
36300SOL     OW10796   8.934  14.636   8.580
36300SOL    HW110797   8.845  14.602   8.576
36300SOL    HW210798   8.924  14.730   8.594
36301SOL     OW10799   7.616   5.141   8.855
36301SOL    HW110800   7.605   5.216   8.796
36301SOL    HW210801   7.527   5.109   8.870
36302SOL     OW10802   7.737   4.273   2.425
36302SOL    HW110803   7.809   4.317   2.469
36302SOL    HW210804   7.777   4.233   2.348
36303SOL     OW10805   0.983  10.290  13.997
36303SOL    HW110806   0.904  10.266  13.948
36303SOL    HW210807   1.051  10.298  13.930
36304SOL     OW10808  10.933   2.864   3.710
36304SOL    HW110809  10.990   2.894   3.781
36304SOL    HW210810  10.939   2.768   3.714
36305SOL     OW10811  13.909   9.362  14.496
36305SOL    HW110812  13.971   9.294  14.470
36305SOL    HW210813  13.956   9.445  14.481
36306SOL     OW10814   4.225   3.616   4.098
36306SOL    HW110815   4.286   3.601   4.026
36306SOL    HW210816   4.274   3.593   4.177
36307SOL     OW10817  10.609  11.834  14.776
36307SOL    HW110818  10.551  11.760  14.754
36307SOL    HW210819  10.558  11.912  14.754
36308SOL     OW10820   2.280   2.601   6.025
36308SOL    HW110821   2.262   2.638   6.111
36308SOL    HW210822   2.211   2.537   6.011
36309SOL     OW10823   1.455   2.323   2.358
36309SOL    HW110824   1.493   2.237   2.377
36309SOL    HW210825   1.412   2.312   2.273
36310SOL     OW10826  12.467  10.783  12.046
36310SOL    HW110827  12.524  10.814  11.975
36310SOL    HW210828  12.496  10.831  12.123
36311SOL     OW10829   6.054   9.993   5.981
36311SOL    HW110830   6.103  10.067   6.018
36311SOL    HW210831   6.044   9.933   6.055
36312SOL     OW10832   0.645   8.948   1.378
36312SOL    HW110833   0.556   8.983   1.385
36312SOL    HW210834   0.687   9.000   1.310
36313SOL     OW10835  14.073   4.779   6.879
36313SOL    HW110836  14.079   4.858   6.933
36313SOL    HW210837  14.116   4.711   6.931
36314SOL     OW10838   5.819   4.095   0.318
36314SOL    HW110839   5.729   4.068   0.333
36314SOL    HW210840   5.864   4.077   0.400
36315SOL     OW10841   7.534   7.795   7.558
36315SOL    HW110842   7.583   7.868   7.519
36315SOL    HW210843   7.450   7.834   7.582
36316SOL     OW10844  10.468   0.177   1.205
36316SOL    HW110845  10.485   0.212   1.117
36316SOL    HW210846  10.437   0.253   1.255
36317SOL     OW10847   1.210   4.749   7.794
36317SOL    HW110848   1.276   4.818   7.796
36317SOL    HW210849   1.233   4.692   7.868
36318SOL     OW10850   2.205  12.577   1.130
36318SOL    HW110851   2.149  12.552   1.204
36318SOL    HW210852   2.227  12.668   1.147
36319SOL     OW10853   2.620   2.683   3.200
36319SOL    HW110854   2.573   2.625   3.260
36319SOL    HW210855   2.602   2.771   3.232
36320SOL     OW10856   1.599  14.247  14.705
36320SOL    HW110857   1.597  14.171  14.647
36320SOL    HW210858   1.543  14.222  14.778
36321SOL     OW10859   0.897   0.017  11.543
36321SOL    HW110860   0.829   0.081  11.522
36321SOL    HW210861   0.849  14.825  11.566
36322SOL     OW10862  14.482   5.537   9.091
36322SOL    HW110863  14.555   5.570   9.039
36322SOL    HW210864  14.499   5.569   9.179
36323SOL     OW10865   4.356   4.893   4.973
36323SOL    HW110866   4.371   4.799   4.987
36323SOL    HW210867   4.433   4.923   4.925
36324SOL     OW10868   3.723   8.462  13.148
36324SOL    HW110869   3.771   8.526  13.200
36324SOL    HW210870   3.681   8.514  13.079
36325SOL     OW10871   5.864   8.836   4.659
36325SOL    HW110872   5.777   8.798   4.677
36325SOL    HW210873   5.848   8.904   4.594
36326SOL     OW10874   4.236   7.803   7.062
36326SOL    HW110875   4.312   7.765   7.017
36326SOL    HW210876   4.247   7.898   7.052
36327SOL     OW10877   3.943   1.397   8.196
36327SOL    HW110878   3.855   1.389   8.232
36327SOL    HW210879   3.931   1.445   8.114
36328SOL     OW10880   3.922   1.898   7.158
36328SOL    HW110881   3.942   1.985   7.123
36328SOL    HW210882   3.848   1.868   7.105
36329SOL     OW10883   3.662   9.857   1.882
36329SOL    HW110884   3.652   9.775   1.931
36329SOL    HW210885   3.616   9.922   1.934
36330SOL     OW10886  12.516  12.253   3.120
36330SOL    HW110887  12.440  12.271   3.176
36330SOL    HW210888  12.480  12.201   3.048
36331SOL     OW10889  10.658  11.109  13.272
36331SOL    HW110890  10.608  11.038  13.313
36331SOL    HW210891  10.618  11.120  13.186
36332SOL     OW10892   7.061   0.125   7.126
36332SOL    HW110893   7.105   0.139   7.210
36332SOL    HW210894   7.029   0.035   7.131
36333SOL     OW10895   3.198   2.254   2.678
36333SOL    HW110896   3.211   2.344   2.709
36333SOL    HW210897   3.172   2.264   2.586
36334SOL     OW10898   3.889   4.153   0.208
36334SOL    HW110899   3.857   4.188   0.125
36334SOL    HW210900   3.812   4.115   0.250
36335SOL     OW10901  13.278   3.232  14.005
36335SOL    HW110902  13.294   3.284  13.927
36335SOL    HW210903  13.333   3.272  14.073
36336SOL     OW10904  14.368   9.669   4.681
36336SOL    HW110905  14.273   9.663   4.674
36336SOL    HW210906  14.383   9.705   4.768
36337SOL     OW10907   8.699   7.478   0.612
36337SOL    HW110908   8.706   7.390   0.649
36337SOL    HW210909   8.650   7.528   0.678
36338SOL     OW10910   0.531   5.867   1.987
36338SOL    HW110911   0.551   5.787   2.036
36338SOL    HW210912   0.451   5.846   1.938
36339SOL     OW10913   3.436   5.380   5.094
36339SOL    HW110914   3.505   5.441   5.068
36339SOL    HW210915   3.386   5.364   5.014
36340SOL     OW10916  14.100   0.383  13.046
36340SOL    HW110917  14.115   0.431  12.964
36340SOL    HW210918  14.125   0.293  13.025
36341SOL     OW10919  11.225   8.005   4.562
36341SOL    HW110920  11.281   8.006   4.639
36341SOL    HW210921  11.229   8.095   4.528
36342SOL     OW10922  10.509   1.777  11.677
36342SOL    HW110923  10.478   1.689  11.656
36342SOL    HW210924  10.586   1.790  11.621
36343SOL     OW10925   5.049   2.540   7.109
36343SOL    HW110926   5.078   2.471   7.167
36343SOL    HW210927   4.958   2.557   7.135
36344SOL     OW10928   9.382   5.198   0.430
36344SOL    HW110929   9.355   5.157   0.513
36344SOL    HW210930   9.344   5.141   0.363
36345SOL     OW10931   5.114  12.019  13.074
36345SOL    HW110932   5.193  11.967  13.093
36345SOL    HW210933   5.117  12.090  13.138
36346SOL     OW10934   2.414  12.384   5.456
36346SOL    HW110935   2.347  12.325   5.493
36346SOL    HW210936   2.497  12.343   5.479
36347SOL     OW10937   2.771   9.554   8.955
36347SOL    HW110938   2.825   9.623   8.995
36347SOL    HW210939   2.717   9.522   9.027
36348SOL     OW10940  11.032  13.264  12.062
36348SOL    HW110941  11.007  13.345  12.017
36348SOL    HW210942  11.009  13.279  12.153
36349SOL     OW10943   9.270   0.075   1.782
36349SOL    HW110944   9.311   0.152   1.822
36349SOL    HW210945   9.181   0.103   1.762
36350SOL     OW10946   6.678   0.461   1.840
36350SOL    HW110947   6.733   0.461   1.918
36350SOL    HW210948   6.602   0.514   1.863
36351SOL     OW10949   3.248  10.500   3.389
36351SOL    HW110950   3.304  10.424   3.402
36351SOL    HW210951   3.207  10.514   3.475
36352SOL     OW10952   9.005   0.120   7.186
36352SOL    HW110953   9.014   0.071   7.104
36352SOL    HW210954   8.987   0.052   7.252
36353SOL     OW10955  10.598   2.884   8.162
36353SOL    HW110956  10.558   2.877   8.249
36353SOL    HW210957  10.634   2.797   8.146
36354SOL     OW10958  12.910   7.454   7.103
36354SOL    HW110959  12.909   7.548   7.123
36354SOL    HW210960  12.981   7.444   7.040
36355SOL     OW10961  12.845  12.864   6.647
36355SOL    HW110962  12.930  12.834   6.681
36355SOL    HW210963  12.850  12.847   6.553
36356SOL     OW10964  11.292   9.096  11.252
36356SOL    HW110965  11.342   9.169  11.214
36356SOL    HW210966  11.358   9.028  11.267
36357SOL     OW10967   7.948   4.210   9.312
36357SOL    HW110968   7.933   4.304   9.318
36357SOL    HW210969   7.867   4.171   9.345
36358SOL     OW10970  12.987   6.920  14.214
36358SOL    HW110971  13.066   6.901  14.163
36358SOL    HW210972  12.920   6.864  14.176
36359SOL     OW10973  14.369   2.617   6.241
36359SOL    HW110974  14.429   2.691   6.241
36359SOL    HW210975  14.423   2.542   6.218
36360SOL     OW10976   8.200   5.674   0.435
36360SOL    HW110977   8.254   5.708   0.507
36360SOL    HW210978   8.156   5.750   0.399
36361SOL     OW10979   8.827  11.604   7.516
36361SOL    HW110980   8.742  11.647   7.505
36361SOL    HW210981   8.886  11.675   7.541
36362SOL     OW10982  13.740   0.836   2.547
36362SOL    HW110983  13.775   0.889   2.619
36362SOL    HW210984  13.690   0.767   2.591
36363SOL     OW10985  10.288  14.321  11.725
36363SOL    HW110986  10.286  14.403  11.775
36363SOL    HW210987  10.238  14.259  11.778
36364SOL     OW10988  10.733   9.995   2.263
36364SOL    HW110989  10.750  10.014   2.355
36364SOL    HW210990  10.646  10.031   2.247
36365SOL     OW10991  10.045  11.136  13.753
36365SOL    HW110992   9.961  11.096  13.728
36365SOL    HW210993  10.030  11.170  13.841
36366SOL     OW10994  10.492   0.372   0.575
36366SOL    HW110995  10.583   0.360   0.603
36366SOL    HW210996  10.499   0.415   0.490
36367SOL     OW10997  13.938   1.009   9.288
36367SOL    HW110998  13.861   1.027   9.343
36367SOL    HW210999  13.920   0.923   9.249
36368SOL     OW11000  13.353  13.525   6.901
36368SOL    HW111001  13.297  13.452   6.875
36368SOL    HW211002  13.375  13.508   6.992
36369SOL     OW11003   6.246   6.544  10.720
36369SOL    HW111004   6.172   6.554  10.780
36369SOL    HW211005   6.214   6.579  10.637
36370SOL     OW11006   2.371   3.224   5.067
36370SOL    HW111007   2.347   3.149   5.012
36370SOL    HW211008   2.295   3.282   5.061
36371SOL     OW11009  11.256   1.549   4.860
36371SOL    HW111010  11.257   1.641   4.883
36371SOL    HW211011  11.342   1.516   4.885
36372SOL     OW11012   8.999   9.558   7.590
36372SOL    HW111013   9.017   9.626   7.526
36372SOL    HW211014   8.948   9.603   7.658
36373SOL     OW11015  11.635   3.895  12.224
36373SOL    HW111016  11.585   3.841  12.285
36373SOL    HW211017  11.648   3.839  12.148
36374SOL     OW11018   1.091   7.953  12.818
36374SOL    HW111019   1.007   7.909  12.804
36374SOL    HW211020   1.149   7.885  12.851
36375SOL     OW11021   3.841   0.851  10.509
36375SOL    HW111022   3.936   0.843  10.518
36375SOL    HW211023   3.818   0.785  10.443
36376SOL     OW11024  14.459   7.137   5.591
36376SOL    HW111025  14.380   7.156   5.642
36376SOL    HW211026  14.432   7.150   5.500
36377SOL     OW11027   5.222   7.223   2.901
36377SOL    HW111028   5.274   7.238   2.822
36377SOL    HW211029   5.277   7.253   2.973
36378SOL     OW11030   3.388   4.432  10.633
36378SOL    HW111031   3.370   4.516  10.674
36378SOL    HW211032   3.312   4.378  10.655
36379SOL     OW11033   1.641   8.812  13.163
36379SOL    HW111034   1.701   8.846  13.096
36379SOL    HW211035   1.699   8.768  13.226
36380SOL     OW11036  13.143   5.141   1.403
36380SOL    HW111037  13.202   5.176   1.336
36380SOL    HW211038  13.056   5.163   1.371
36381SOL     OW11039   4.684   6.116   5.687
36381SOL    HW111040   4.671   6.124   5.593
36381SOL    HW211041   4.757   6.175   5.706
36382SOL     OW11042  14.590   8.745  10.720
36382SOL    HW111043  14.629   8.791  10.794
36382SOL    HW211044  14.595   8.807  10.647
36383SOL     OW11045   1.388   7.858   6.271
36383SOL    HW111046   1.307   7.829   6.228
36383SOL    HW211047   1.372   7.951   6.290
36384SOL     OW11048  11.822  12.900   1.309
36384SOL    HW111049  11.865  12.824   1.349
36384SOL    HW211050  11.732  12.872   1.293
36385SOL     OW11051   4.111  14.425   4.151
36385SOL    HW111052   4.071  14.408   4.236
36385SOL    HW211053   4.051  14.386   4.088
36386SOL     OW11054   2.001  14.873  10.724
36386SOL    HW111055   1.933   0.013  10.663
36386SOL    HW211056   2.076  14.852  10.669
36387SOL     OW11057  11.317   8.464   8.530
36387SOL    HW111058  11.403   8.508   8.528
36387SOL    HW211059  11.309   8.425   8.443
36388SOL     OW11060  13.297   6.286   9.063
36388SOL    HW111061  13.247   6.205   9.075
36388SOL    HW211062  13.388   6.261   9.081
36389SOL     OW11063   1.427  13.374   4.572
36389SOL    HW111064   1.415  13.404   4.662
36389SOL    HW211065   1.463  13.286   4.581
36390SOL     OW11066   3.117   9.038  12.310
36390SOL    HW111067   3.188   9.002  12.257
36390SOL    HW211068   3.037   9.001  12.271
36391SOL     OW11069   3.638   3.532  11.679
36391SOL    HW111070   3.623   3.607  11.621
36391SOL    HW211071   3.734   3.526  11.684
36392SOL     OW11072   3.099   4.982   7.410
36392SOL    HW111073   3.191   4.969   7.434
36392SOL    HW211074   3.052   4.978   7.493
36393SOL     OW11075   1.187  11.932   2.801
36393SOL    HW111076   1.221  11.942   2.712
36393SOL    HW211077   1.120  11.863   2.793
36394SOL     OW11078   8.794  14.730  12.479
36394SOL    HW111079   8.769  14.651  12.432
36394SOL    HW211080   8.888  14.738  12.464
36395SOL     OW11081   2.526  14.357   8.665
36395SOL    HW111082   2.522  14.272   8.709
36395SOL    HW211083   2.442  14.365   8.621
36396SOL     OW11084   7.175   0.084   2.596
36396SOL    HW111085   7.203   0.124   2.679
36396SOL    HW211086   7.239   0.116   2.532
36397SOL     OW11087  12.033   1.707   6.513
36397SOL    HW111088  11.974   1.777   6.540
36397SOL    HW211089  11.984   1.627   6.527
36398SOL     OW11090   5.348  12.722   3.705
36398SOL    HW111091   5.256  12.750   3.704
36398SOL    HW211092   5.354  12.664   3.781
36399SOL     OW11093  13.308   5.398   0.245
36399SOL    HW111094  13.233   5.350   0.209
36399SOL    HW211095  13.271   5.480   0.276
36400SOL     OW11096  11.432  10.968  12.025
36400SOL    HW111097  11.496  11.009  11.967
36400SOL    HW211098  11.481  10.901  12.071
36401SOL     OW11099  12.180   1.617  10.100
36401SOL    HW111100  12.086   1.597  10.097
36401SOL    HW211101  12.209   1.581  10.184
36402SOL     OW11102   0.820  12.009  10.945
36402SOL    HW111103   0.889  12.021  10.880
36402SOL    HW211104   0.803  11.915  10.945
36403SOL     OW11105   4.867  14.614   2.798
36403SOL    HW111106   4.853  14.582   2.887
36403SOL    HW211107   4.915  14.543   2.755
36404SOL     OW11108  14.742  11.608  12.589
36404SOL    HW111109  14.660  11.615  12.638
36404SOL    HW211110  14.798  11.677  12.626
36405SOL     OW11111   2.663   0.686  11.372
36405SOL    HW111112   2.723   0.752  11.405
36405SOL    HW211113   2.577   0.724  11.381
36406SOL     OW11114   4.043  12.952   7.299
36406SOL    HW111115   4.101  13.014   7.255
36406SOL    HW211116   4.003  13.002   7.369
36407SOL     OW11117   2.493   3.626   4.566
36407SOL    HW111118   2.491   3.712   4.607
36407SOL    HW211119   2.402   3.596   4.568
36408SOL     OW11120  11.555   5.257   2.076
36408SOL    HW111121  11.506   5.227   2.153
36408SOL    HW211122  11.538   5.351   2.073
36409SOL     OW11123   8.013   5.741  12.840
36409SOL    HW111124   7.920   5.726  12.824
36409SOL    HW211125   8.020   5.835  12.853
36410SOL     OW11126   0.800   8.058   6.701
36410SOL    HW111127   0.857   7.981   6.698
36410SOL    HW211128   0.713   8.023   6.721
36411SOL     OW11129   7.975   4.976   4.463
36411SOL    HW111130   8.012   4.965   4.375
36411SOL    HW211131   7.882   4.994   4.449
36412SOL     OW11132   9.304   0.808   0.657
36412SOL    HW111133   9.244   0.792   0.730
36412SOL    HW211134   9.374   0.861   0.694
36413SOL     OW11135  10.913  11.956  14.303
36413SOL    HW111136  10.819  11.948  14.286
36413SOL    HW211137  10.930  11.892  14.372
36414SOL     OW11138  14.008   0.205  10.746
36414SOL    HW111139  13.962   0.232  10.666
36414SOL    HW211140  14.034   0.115  10.730
36415SOL     OW11141  12.079   4.709   6.762
36415SOL    HW111142  12.061   4.684   6.852
36415SOL    HW211143  12.168   4.677   6.746
36416SOL     OW11144  10.207   2.415  13.587
36416SOL    HW111145  10.192   2.321  13.598
36416SOL    HW211146  10.231   2.425  13.495
36417SOL     OW11147   1.445   1.700  12.773
36417SOL    HW111148   1.517   1.637  12.781
36417SOL    HW211149   1.489   1.785  12.771
36418SOL     OW11150   9.916   1.820   9.356
36418SOL    HW111151   9.910   1.870   9.437
36418SOL    HW211152   9.985   1.756   9.372
36419SOL     OW11153  11.383  12.074  11.516
36419SOL    HW111154  11.429  12.080  11.600
36419SOL    HW211155  11.450  12.050  11.453
36420SOL     OW11156   1.898  14.789   1.223
36420SOL    HW111157   1.868  14.702   1.249
36420SOL    HW211158   1.835  14.817   1.156
36421SOL     OW11159  10.389   8.434  13.624
36421SOL    HW111160  10.473   8.478  13.635
36421SOL    HW211161  10.375   8.388  13.706
36422SOL     OW11162  14.323  12.568   0.242
36422SOL    HW111163  14.361  12.486   0.212
36422SOL    HW211164  14.285  12.547   0.327
36423SOL     OW11165  14.089   3.235   3.374
36423SOL    HW111166  13.995   3.240   3.390
36423SOL    HW211167  14.098   3.170   3.305
36424SOL     OW11168   9.138   6.598  13.689
36424SOL    HW111169   9.225   6.600  13.650
36424SOL    HW211170   9.118   6.690  13.709
36425SOL     OW11171  13.701  13.614   2.477
36425SOL    HW111172  13.750  13.697   2.481
36425SOL    HW211173  13.625  13.628   2.533
36426SOL     OW11174   4.848  14.062  10.094
36426SOL    HW111175   4.837  14.149  10.132
36426SOL    HW211176   4.765  14.045  10.049
36427SOL     OW11177   4.825   6.254   2.133
36427SOL    HW111178   4.905   6.306   2.135
36427SOL    HW211179   4.789   6.261   2.221
36428SOL     OW11180   8.610   6.543  13.913
36428SOL    HW111181   8.699   6.535  13.947
36428SOL    HW211182   8.554   6.508  13.982
36429SOL     OW11183  11.818   0.602   4.134
36429SOL    HW111184  11.748   0.579   4.074
36429SOL    HW211185  11.781   0.671   4.189
36430SOL     OW11186  10.792   8.854   8.425
36430SOL    HW111187  10.776   8.905   8.346
36430SOL    HW211188  10.877   8.812   8.411
36431SOL     OW11189   4.914   9.256   0.878
36431SOL    HW111190   4.845   9.237   0.815
36431SOL    HW211191   4.871   9.305   0.948
36432SOL     OW11192   1.510   7.353  12.887
36432SOL    HW111193   1.483   7.312  12.970
36432SOL    HW211194   1.603   7.372  12.899
36433SOL     OW11195   4.516  12.322  12.903
36433SOL    HW111196   4.476  12.393  12.953
36433SOL    HW211197   4.587  12.290  12.958
36434SOL     OW11198   6.536   7.024   3.266
36434SOL    HW111199   6.473   7.019   3.194
36434SOL    HW211200   6.586   6.942   3.259
36435SOL     OW11201   5.369   9.006  14.745
36435SOL    HW111202   5.307   8.948  14.789
36435SOL    HW211203   5.402   8.955  14.671
36436SOL     OW11204   9.543   4.769   5.453
36436SOL    HW111205   9.481   4.710   5.411
36436SOL    HW211206   9.502   4.793   5.536
36437SOL     OW11207  10.148  12.894   0.174
36437SOL    HW111208  10.106  12.839   0.240
36437SOL    HW211209  10.242  12.875   0.184
36438SOL     OW11210   0.644   5.947  12.974
36438SOL    HW111211   0.665   6.018  13.035
36438SOL    HW211212   0.557   5.971  12.940
36439SOL     OW11213  11.636   3.117   7.220
36439SOL    HW111214  11.632   3.022   7.229
36439SOL    HW211215  11.599   3.135   7.134
36440SOL     OW11216  14.807   5.246   8.755
36440SOL    HW111217  14.868   5.173   8.759
36440SOL    HW211218  14.826   5.289   8.672
36441SOL     OW11219  11.203   5.823   6.159
36441SOL    HW111220  11.128   5.860   6.113
36441SOL    HW211221  11.240   5.897   6.208
36442SOL     OW11222  10.144   4.016   1.470
36442SOL    HW111223  10.178   4.047   1.386
36442SOL    HW211224  10.054   4.048   1.472
36443SOL     OW11225   9.906   8.413   5.100
36443SOL    HW111226   9.865   8.352   5.039
36443SOL    HW211227   9.919   8.362   5.179
36444SOL     OW11228   1.364   8.222   1.068
36444SOL    HW111229   1.296   8.155   1.076
36444SOL    HW211230   1.336   8.276   0.994
36445SOL     OW11231   6.949   8.102   6.121
36445SOL    HW111232   7.027   8.047   6.124
36445SOL    HW211233   6.957   8.160   6.197
36446SOL     OW11234   2.877   0.036   1.274
36446SOL    HW111235   2.847   0.037   1.183
36446SOL    HW211236   2.970   0.013   1.268
36447SOL     OW11237   0.931   7.344   9.342
36447SOL    HW111238   0.969   7.266   9.384
36447SOL    HW211239   0.854   7.365   9.395
36448SOL     OW11240   2.097  10.365   9.092
36448SOL    HW111241   2.054  10.318   9.021
36448SOL    HW211242   2.141  10.297   9.143
36449SOL     OW11243   3.848  13.427   0.545
36449SOL    HW111244   3.818  13.389   0.627
36449SOL    HW211245   3.773  13.419   0.486
36450SOL     OW11246   3.282   7.976   3.208
36450SOL    HW111247   3.330   7.918   3.150
36450SOL    HW211248   3.339   7.986   3.285
36451SOL     OW11249  13.253   0.924  14.194
36451SOL    HW111250  13.273   0.890  14.107
36451SOL    HW211251  13.213   1.009  14.177
36452SOL     OW11252   6.647   5.140  10.067
36452SOL    HW111253   6.597   5.214  10.102
36452SOL    HW211254   6.583   5.092  10.013
36453SOL     OW11255  11.037   5.770  10.908
36453SOL    HW111256  11.038   5.780  10.813
36453SOL    HW211257  11.129   5.759  10.932
36454SOL     OW11258  11.795  10.364  12.185
36454SOL    HW111259  11.752  10.429  12.241
36454SOL    HW211260  11.847  10.416  12.124
36455SOL     OW11261  12.639  11.761   7.743
36455SOL    HW111262  12.725  11.782   7.781
36455SOL    HW211263  12.607  11.845   7.710
36456SOL     OW11264   9.986   1.643   6.082
36456SOL    HW111265   9.975   1.725   6.034
36456SOL    HW211266  10.072   1.611   6.055
36457SOL     OW11267   6.048  11.465  14.736
36457SOL    HW111268   6.016  11.543  14.781
36457SOL    HW211269   6.126  11.495  14.689
36458SOL     OW11270  13.125  13.331   7.303
36458SOL    HW111271  13.197  13.356   7.245
36458SOL    HW211272  13.072  13.270   7.252
36459SOL     OW11273   3.318   2.410   5.714
36459SOL    HW111274   3.334   2.318   5.696
36459SOL    HW211275   3.231   2.427   5.676
36460SOL     OW11276   9.990   4.327   3.606
36460SOL    HW111277   9.991   4.232   3.618
36460SOL    HW211278   9.923   4.342   3.539
36461SOL     OW11279  10.695  12.822   8.391
36461SOL    HW111280  10.671  12.729   8.393
36461SOL    HW211281  10.786  12.823   8.419
36462SOL     OW11282   3.993   3.582   9.550
36462SOL    HW111283   3.949   3.514   9.499
36462SOL    HW211284   4.017   3.649   9.486
36463SOL     OW11285   4.563   0.274   3.624
36463SOL    HW111286   4.550   0.234   3.538
36463SOL    HW211287   4.659   0.280   3.633
36464SOL     OW11288  12.974   1.541   1.802
36464SOL    HW111289  12.911   1.472   1.824
36464SOL    HW211290  12.921   1.613   1.771
36465SOL     OW11291  10.010  12.008   8.953
36465SOL    HW111292  10.028  12.028   8.861
36465SOL    HW211293  10.095  11.981   8.989
36466SOL     OW11294  14.788  10.272   7.057
36466SOL    HW111295  14.798  10.289   6.963
36466SOL    HW211296  14.753  10.183   7.062
36467SOL     OW11297  10.695   3.681  10.936
36467SOL    HW111298  10.643   3.722  10.867
36467SOL    HW211299  10.772   3.646  10.892
36468SOL     OW11300  12.905   2.468  12.908
36468SOL    HW111301  12.851   2.401  12.866
36468SOL    HW211302  12.844   2.538  12.930
36469SOL     OW11303   1.852   6.667   8.209
36469SOL    HW111304   1.892   6.588   8.173
36469SOL    HW211305   1.904   6.739   8.173
36470SOL     OW11306   1.154  13.551  14.263
36470SOL    HW111307   1.244  13.546  14.297
36470SOL    HW211308   1.149  13.481  14.199
36471SOL     OW11309   2.176  14.395   4.031
36471SOL    HW111310   2.112  14.350   4.085
36471SOL    HW211311   2.199  14.331   3.963
36472SOL     OW11312   3.549  10.776   8.908
36472SOL    HW111313   3.464  10.733   8.901
36472SOL    HW211314   3.544  10.848   8.845
36473SOL     OW11315   1.818  10.521   9.614
36473SOL    HW111316   1.792  10.611   9.632
36473SOL    HW211317   1.737  10.470   9.624
36474SOL     OW11318  12.240  13.356  10.683
36474SOL    HW111319  12.213  13.385  10.596
36474SOL    HW211320  12.185  13.406  10.743
36475SOL     OW11321   3.068   4.055   7.948
36475SOL    HW111322   2.978   4.029   7.929
36475SOL    HW211323   3.117   4.031   7.870
36476SOL     OW11324   7.029  13.251   0.582
36476SOL    HW111325   6.988  13.177   0.627
36476SOL    HW211326   7.089  13.288   0.647
36477SOL     OW11327   3.130   2.637   0.696
36477SOL    HW111328   3.035   2.649   0.700
36477SOL    HW211329   3.163   2.681   0.774
36478SOL     OW11330   7.350   6.819   8.859
36478SOL    HW111331   7.440   6.791   8.871
36478SOL    HW211332   7.347   6.853   8.769
36479SOL     OW11333   5.403   3.899   7.927
36479SOL    HW111334   5.333   3.908   7.863
36479SOL    HW211335   5.360   3.869   8.007
36480SOL     OW11336  10.017   9.127  10.925
36480SOL    HW111337  10.035   9.204  10.979
36480SOL    HW211338  10.033   9.053  10.983
36481SOL     OW11339   1.619  12.801  10.050
36481SOL    HW111340   1.673  12.877  10.025
36481SOL    HW211341   1.593  12.819  10.140
36482SOL     OW11342   7.966  14.102   3.066
36482SOL    HW111343   8.043  14.045   3.060
36482SOL    HW211344   7.980  14.168   2.998
36483SOL     OW11345   3.777  12.278   6.410
36483SOL    HW111346   3.823  12.219   6.350
36483SOL    HW211347   3.826  12.360   6.406
36484SOL     OW11348   0.313  12.817   4.871
36484SOL    HW111349   0.368  12.757   4.922
36484SOL    HW211350   0.368  12.894   4.857
36485SOL     OW11351   0.239  14.061  14.717
36485SOL    HW111352   0.174  14.003  14.678
36485SOL    HW211353   0.254  14.026  14.805
36486SOL     OW11354  14.647   2.960   6.593
36486SOL    HW111355  14.697   2.885   6.560
36486SOL    HW211356  14.558   2.945   6.560
36487SOL     OW11357  12.423   7.340  11.886
36487SOL    HW111358  12.415   7.323  11.792
36487SOL    HW211359  12.489   7.409  11.892
36488SOL     OW11360   5.784   4.386   2.546
36488SOL    HW111361   5.792   4.440   2.467
36488SOL    HW211362   5.709   4.421   2.592
36489SOL     OW11363  13.813   3.391  13.412
36489SOL    HW111364  13.822   3.365  13.503
36489SOL    HW211365  13.846   3.481  13.409
36490SOL     OW11366   6.754   4.679  12.934
36490SOL    HW111367   6.779   4.755  12.881
36490SOL    HW211368   6.785   4.700  13.022
36491SOL     OW11369   2.006  12.750   1.924
36491SOL    HW111370   2.000  12.686   1.995
36491SOL    HW211371   2.012  12.698   1.845
36492SOL     OW11372   3.068   1.125   4.044
36492SOL    HW111373   3.060   1.203   3.989
36492SOL    HW211374   3.159   1.126   4.074
36493SOL     OW11375   3.463   1.158   8.711
36493SOL    HW111376   3.407   1.094   8.754
36493SOL    HW211377   3.549   1.147   8.752
36494SOL     OW11378   4.022   9.457   0.595
36494SOL    HW111379   4.066   9.376   0.623
36494SOL    HW211380   3.948   9.427   0.542
36495SOL     OW11381  10.782   9.045  12.576
36495SOL    HW111382  10.720   8.982  12.539
36495SOL    HW211383  10.738   9.129  12.567
36496SOL     OW11384  10.431   1.314   4.146
36496SOL    HW111385  10.411   1.400   4.109
36496SOL    HW211386  10.378   1.309   4.225
36497SOL     OW11387   4.326   1.149   2.043
36497SOL    HW111388   4.416   1.120   2.029
36497SOL    HW211389   4.312   1.217   1.976
36498SOL     OW11390  13.831   2.659  11.570
36498SOL    HW111391  13.915   2.703  11.563
36498SOL    HW211392  13.837   2.606  11.650
36499SOL     OW11393   3.476   3.396   9.199
36499SOL    HW111394   3.503   3.305   9.183
36499SOL    HW211395   3.481   3.407   9.294
36500SOL     OW11396   0.485   5.629   2.803
36500SOL    HW111397   0.554   5.654   2.742
36500SOL    HW211398   0.498   5.686   2.878
36501SOL     OW11399   5.216   6.710  10.533
36501SOL    HW111400   5.211   6.677  10.443
36501SOL    HW211401   5.174   6.641  10.585
36502SOL     OW11402   9.630   6.453   9.522
36502SOL    HW111403   9.574   6.375   9.526
36502SOL    HW211404   9.719   6.418   9.523
36503SOL     OW11405  12.275   8.159  10.850
36503SOL    HW111406  12.248   8.124  10.765
36503SOL    HW211407  12.371   8.165  10.844
36504SOL     OW11408   7.696   6.260   4.966
36504SOL    HW111409   7.755   6.312   5.021
36504SOL    HW211410   7.629   6.230   5.027
36505SOL     OW11411   7.432  12.881   0.456
36505SOL    HW111412   7.433  12.787   0.437
36505SOL    HW211413   7.444  12.923   0.370
36506SOL     OW11414  14.846  13.871  14.660
36506SOL    HW111415  14.811  13.949  14.705
36506SOL    HW211416   0.026  13.838  14.719
36507SOL     OW11417  14.598  10.779   8.773
36507SOL    HW111418  14.599  10.809   8.682
36507SOL    HW211419  14.591  10.684   8.767
36508SOL     OW11420   3.331   0.641   0.994
36508SOL    HW111421   3.403   0.584   1.020
36508SOL    HW211422   3.319   0.700   1.069
36509SOL     OW11423   8.710  12.484   5.593
36509SOL    HW111424   8.622  12.508   5.621
36509SOL    HW211425   8.697  12.405   5.540
36510SOL     OW11426   5.473   4.275   6.366
36510SOL    HW111427   5.422   4.355   6.350
36510SOL    HW211428   5.538   4.301   6.431
36511SOL     OW11429  10.734  12.256   0.570
36511SOL    HW111430  10.659  12.305   0.537
36511SOL    HW211431  10.696  12.185   0.621
36512SOL     OW11432   9.442   2.260   9.659
36512SOL    HW111433   9.473   2.264   9.568
36512SOL    HW211434   9.445   2.351   9.689
36513SOL     OW11435   6.661  14.647   4.933
36513SOL    HW111436   6.714  14.708   4.984
36513SOL    HW211437   6.690  14.660   4.843
36514SOL     OW11438   0.965   4.753   7.690
36514SOL    HW111439   0.972   4.786   7.600
36514SOL    HW211440   1.053   4.766   7.726
36515SOL     OW11441  13.192  11.267  13.790
36515SOL    HW111442  13.177  11.186  13.740
36515SOL    HW211443  13.185  11.337  13.725
36516SOL     OW11444   6.421   6.382   1.368
36516SOL    HW111445   6.419   6.472   1.336
36516SOL    HW211446   6.329   6.358   1.381
36517SOL     OW11447   1.038   8.624   3.647
36517SOL    HW111448   1.097   8.555   3.679
36517SOL    HW211449   1.097   8.697   3.627
36518SOL     OW11450   1.144   4.265   4.925
36518SOL    HW111451   1.229   4.279   4.968
36518SOL    HW211452   1.080   4.275   4.994
36519SOL     OW11453   2.264  13.635  13.499
36519SOL    HW111454   2.191  13.642  13.560
36519SOL    HW211455   2.342  13.633  13.554
36520SOL     OW11456   9.453   5.692  10.782
36520SOL    HW111457   9.520   5.742  10.735
36520SOL    HW211458   9.491   5.678  10.869
36521SOL     OW11459   0.309   1.803   1.489
36521SOL    HW111460   0.374   1.733   1.479
36521SOL    HW211461   0.238   1.778   1.431
36522SOL     OW11462  13.211   9.387   3.655
36522SOL    HW111463  13.237   9.409   3.566
36522SOL    HW211464  13.290   9.400   3.707
36523SOL     OW11465   2.900   2.448  10.270
36523SOL    HW111466   2.935   2.470  10.356
36523SOL    HW211467   2.938   2.362  10.249
36524SOL     OW11468  11.191   2.089  13.926
36524SOL    HW111469  11.111   2.094  13.873
36524SOL    HW211470  11.218   2.181  13.937
36525SOL     OW11471   1.013   8.902  11.228
36525SOL    HW111472   0.924   8.937  11.223
36525SOL    HW211473   1.057   8.957  11.293
36526SOL     OW11474   0.614  11.138   1.051
36526SOL    HW111475   0.697  11.128   1.099
36526SOL    HW211476   0.547  11.133   1.119
36527SOL     OW11477  10.086  12.307   7.204
36527SOL    HW111478  10.071  12.271   7.291
36527SOL    HW211479  10.079  12.402   7.216
36528SOL     OW11480   6.767   8.217   3.844
36528SOL    HW111481   6.811   8.299   3.822
36528SOL    HW211482   6.690   8.214   3.787
36529SOL     OW11483  12.951  13.866   3.265
36529SOL    HW111484  12.913  13.827   3.186
36529SOL    HW211485  12.879  13.869   3.327
36530SOL     OW11486   5.390   4.336  13.122
36530SOL    HW111487   5.392   4.241  13.113
36530SOL    HW211488   5.480   4.361  13.142
36531SOL     OW11489   2.545   2.743   7.383
36531SOL    HW111490   2.477   2.793   7.428
36531SOL    HW211491   2.532   2.763   7.290
36532SOL     OW11492  12.241   8.676   6.156
36532SOL    HW111493  12.233   8.604   6.094
36532SOL    HW211494  12.314   8.729   6.122
36533SOL     OW11495   3.908   2.936   4.351
36533SOL    HW111496   3.900   2.930   4.256
36533SOL    HW211497   4.000   2.957   4.366
36534SOL     OW11498  11.934   9.672  11.754
36534SOL    HW111499  11.891   9.755  11.771
36534SOL    HW211500  11.884   9.608  11.805
36535SOL     OW11501  12.919  12.592   9.449
36535SOL    HW111502  12.910  12.685   9.470
36535SOL    HW211503  12.928  12.549   9.534
36536SOL     OW11504  12.423  11.812   8.661
36536SOL    HW111505  12.345  11.756   8.668
36536SOL    HW211506  12.410  11.878   8.729
36537SOL     OW11507   9.336   2.989  12.727
36537SOL    HW111508   9.418   2.945  12.748
36537SOL    HW211509   9.338   2.999  12.631
36538SOL     OW11510  13.461   2.572   5.885
36538SOL    HW111511  13.456   2.482   5.917
36538SOL    HW211512  13.483   2.563   5.792
36539SOL     OW11513  12.961   2.089   9.527
36539SOL    HW111514  12.907   2.014   9.501
36539SOL    HW211515  12.932   2.110   9.616
36540SOL     OW11516  10.822   0.660  11.219
36540SOL    HW111517  10.850   0.600  11.150
36540SOL    HW211518  10.742   0.701  11.185
36541SOL     OW11519  10.850  10.102   0.621
36541SOL    HW111520  10.785  10.049   0.576
36541SOL    HW211521  10.839  10.190   0.584
36542SOL     OW11522   6.878   4.822   0.656
36542SOL    HW111523   6.870   4.897   0.597
36542SOL    HW211524   6.806   4.833   0.719
36543SOL     OW11525   2.394   4.957  10.202
36543SOL    HW111526   2.477   4.959  10.251
36543SOL    HW211527   2.340   4.894  10.249
36544SOL     OW11528   2.171  10.774  11.920
36544SOL    HW111529   2.222  10.840  11.967
36544SOL    HW211530   2.097  10.755  11.976
36545SOL     OW11531   1.617   1.823   2.418
36545SOL    HW111532   1.592   1.790   2.331
36545SOL    HW211533   1.605   1.748   2.476
36546SOL     OW11534   9.496  14.433   4.811
36546SOL    HW111535   9.465  14.513   4.768
36546SOL    HW211536   9.529  14.463   4.896
36547SOL     OW11537   8.905   0.686  13.576
36547SOL    HW111538   8.971   0.695  13.644
36547SOL    HW211539   8.822   0.677  13.623
36548SOL     OW11540   7.614   1.617  12.725
36548SOL    HW111541   7.572   1.669  12.794
36548SOL    HW211542   7.706   1.615  12.750
36549SOL     OW11543   9.164   1.598  10.395
36549SOL    HW111544   9.073   1.581  10.419
36549SOL    HW211545   9.209   1.610  10.479
36550SOL     OW11546   3.757   2.957   6.254
36550SOL    HW111547   3.836   2.990   6.296
36550SOL    HW211548   3.737   2.876   6.301
36551SOL     OW11549   0.528  14.597  12.720
36551SOL    HW111550   0.490  14.636  12.641
36551SOL    HW211551   0.564  14.671  12.769
36552SOL     OW11552   3.414   9.652   9.248
36552SOL    HW111553   3.367   9.670   9.166
36552SOL    HW211554   3.499   9.693   9.236
36553SOL     OW11555   5.140  10.042  11.977
36553SOL    HW111556   5.128  10.034  12.071
36553SOL    HW211557   5.131   9.952  11.944
36554SOL     OW11558   1.347   8.023   4.801
36554SOL    HW111559   1.274   8.056   4.853
36554SOL    HW211560   1.404   7.980   4.865
36555SOL     OW11561   8.672   5.457   5.877
36555SOL    HW111562   8.606   5.422   5.938
36555SOL    HW211563   8.691   5.544   5.910
36556SOL     OW11564   1.798  13.211   5.505
36556SOL    HW111565   1.721  13.257   5.539
36556SOL    HW211566   1.872  13.253   5.549
36557SOL     OW11567   3.077  11.288  10.460
36557SOL    HW111568   3.042  11.375  10.481
36557SOL    HW211569   3.009  11.247  10.408
36558SOL     OW11570   0.554   5.930  12.654
36558SOL    HW111571   0.624   5.865  12.665
36558SOL    HW211572   0.531   5.925  12.561
36559SOL     OW11573   2.871  10.608  14.588
36559SOL    HW111574   2.840  10.631  14.500
36559SOL    HW211575   2.813  10.538  14.616
36560SOL     OW11576   7.444  11.848   1.908
36560SOL    HW111577   7.525  11.891   1.935
36560SOL    HW211578   7.471  11.784   1.843
36561SOL     OW11579  10.884   6.871   3.399
36561SOL    HW111580  10.923   6.902   3.317
36561SOL    HW211581  10.816   6.936   3.419
36562SOL     OW11582   1.086   5.459   2.337
36562SOL    HW111583   1.001   5.437   2.373
36562SOL    HW211584   1.073   5.459   2.242
36563SOL     OW11585   1.002   0.137   8.080
36563SOL    HW111586   0.919   0.168   8.114
36563SOL    HW211587   1.044   0.214   8.041
36564SOL     OW11588   9.966  11.577  11.849
36564SOL    HW111589  10.008  11.663  11.842
36564SOL    HW211590   9.887  11.584  11.796
36565SOL     OW11591  14.625   9.587   5.885
36565SOL    HW111592  14.635   9.577   5.980
36565SOL    HW211593  14.533   9.612   5.874
36566SOL     OW11594  13.906   6.133   5.053
36566SOL    HW111595  13.959   6.143   5.132
36566SOL    HW211596  13.961   6.082   4.994
36567SOL     OW11597   4.146   1.282  14.189
36567SOL    HW111598   4.151   1.278  14.284
36567SOL    HW211599   4.053   1.295  14.170
36568SOL     OW11600   7.990   7.269   7.692
36568SOL    HW111601   8.025   7.186   7.723
36568SOL    HW211602   8.045   7.336   7.732
36569SOL     OW11603   2.863   8.349   4.849
36569SOL    HW111604   2.772   8.328   4.827
36569SOL    HW211605   2.857   8.425   4.907
36570SOL     OW11606   3.053   8.254  10.427
36570SOL    HW111607   3.095   8.324  10.377
36570SOL    HW211608   3.002   8.205  10.362
36571SOL     OW11609   1.522   7.716   2.066
36571SOL    HW111610   1.505   7.715   1.971
36571SOL    HW211611   1.567   7.800   2.081
36572SOL     OW11612  10.865  12.823   1.926
36572SOL    HW111613  10.937  12.760   1.915
36572SOL    HW211614  10.787  12.773   1.903
36573SOL     OW11615   2.634   1.298  11.813
36573SOL    HW111616   2.588   1.316  11.895
36573SOL    HW211617   2.704   1.237  11.838
36574SOL     OW11618   6.709   3.011   3.033
36574SOL    HW111619   6.775   3.036   2.968
36574SOL    HW211620   6.627   3.044   2.997
36575SOL     OW11621   4.907   2.063  11.410
36575SOL    HW111622   4.843   2.065  11.339
36575SOL    HW211623   4.942   2.153  11.413
36576SOL     OW11624   9.323   2.929   8.079
36576SOL    HW111625   9.388   2.947   8.012
36576SOL    HW211626   9.244   2.975   8.049
36577SOL     OW11627   8.827  10.691  11.188
36577SOL    HW111628   8.800  10.724  11.274
36577SOL    HW211629   8.773  10.739  11.126
36578SOL     OW11630  10.713   1.170   7.017
36578SOL    HW111631  10.709   1.075   7.027
36578SOL    HW211632  10.624   1.195   6.992
36579SOL     OW11633   4.599  13.509   1.346
36579SOL    HW111634   4.574  13.553   1.264
36579SOL    HW211635   4.615  13.580   1.408
36580SOL     OW11636   9.507  13.833   6.270
36580SOL    HW111637   9.560  13.856   6.193
36580SOL    HW211638   9.569  13.797   6.332
36581SOL     OW11639   3.388   9.738   0.500
36581SOL    HW111640   3.340   9.668   0.457
36581SOL    HW211641   3.470   9.697   0.528
36582SOL     OW11642   7.004  13.973   1.955
36582SOL    HW111643   6.953  14.015   2.024
36582SOL    HW211644   7.085  13.944   1.998
36583SOL     OW11645   1.281   7.305  14.367
36583SOL    HW111646   1.370   7.324  14.339
36583SOL    HW211647   1.274   7.209  14.362
36584SOL     OW11648   4.923   3.869   1.458
36584SOL    HW111649   4.845   3.856   1.405
36584SOL    HW211650   4.952   3.959   1.438
36585SOL     OW11651  14.700   6.081   7.774
36585SOL    HW111652  14.613   6.042   7.781
36585SOL    HW211653  14.760   6.013   7.801
36586SOL     OW11654  11.093   7.233   1.003
36586SOL    HW111655  11.061   7.218   0.914
36586SOL    HW211656  11.187   7.251   0.992
36587SOL     OW11657  12.803   0.737  13.149
36587SOL    HW111658  12.858   0.761  13.224
36587SOL    HW211659  12.859   0.753  13.073
36588SOL     OW11660  13.039  10.119  12.149
36588SOL    HW111661  13.057  10.199  12.198
36588SOL    HW211662  13.080  10.049  12.200
36589SOL     OW11663   6.414  11.466   1.154
36589SOL    HW111664   6.387  11.533   1.216
36589SOL    HW211665   6.493  11.427   1.192
36590SOL     OW11666   8.659   6.915   9.997
36590SOL    HW111667   8.631   6.999  10.032
36590SOL    HW211668   8.749   6.929   9.969
36591SOL     OW11669   8.042   8.786  12.992
36591SOL    HW111670   8.084   8.704  12.966
36591SOL    HW211671   8.099   8.821  13.060
36592SOL     OW11672   4.883  10.760   8.855
36592SOL    HW111673   4.788  10.751   8.846
36592SOL    HW211674   4.893  10.824   8.927
36593SOL     OW11675   6.248   9.350  11.642
36593SOL    HW111676   6.339   9.323  11.629
36593SOL    HW211677   6.228   9.324  11.732
36594SOL     OW11678  10.215   1.750  12.928
36594SOL    HW111679  10.189   1.773  13.018
36594SOL    HW211680  10.229   1.835  12.885
36595SOL     OW11681  10.569  14.439   2.369
36595SOL    HW111682  10.516  14.511   2.335
36595SOL    HW211683  10.515  14.361   2.356
36596SOL     OW11684  10.450   2.280   0.895
36596SOL    HW111685  10.383   2.303   0.831
36596SOL    HW211686  10.450   2.354   0.956
36597SOL     OW11687   4.191  11.532  10.969
36597SOL    HW111688   4.218  11.589  11.041
36597SOL    HW211689   4.151  11.591  10.906
36598SOL     OW11690  11.492   8.046   3.099
36598SOL    HW111691  11.542   8.121   3.067
36598SOL    HW211692  11.491   8.056   3.194
36599SOL     OW11693   2.250   6.060   6.493
36599SOL    HW111694   2.163   6.090   6.520
36599SOL    HW211695   2.308   6.086   6.565
36600SOL     OW11696   8.555   8.220   1.484
36600SOL    HW111697   8.571   8.231   1.578
36600SOL    HW211698   8.470   8.176   1.479
36601SOL     OW11699  13.767   3.443   6.497
36601SOL    HW111700  13.775   3.465   6.590
36601SOL    HW211701  13.793   3.351   6.492
36602SOL     OW11702   9.585  13.609   3.906
36602SOL    HW111703   9.528  13.615   3.983
36602SOL    HW211704   9.672  13.635   3.937
36603SOL     OW11705   8.844   2.734   3.044
36603SOL    HW111706   8.849   2.690   3.129
36603SOL    HW211707   8.911   2.692   2.991
36604SOL     OW11708   2.609  10.182   7.572
36604SOL    HW111709   2.612  10.274   7.601
36604SOL    HW211710   2.637  10.185   7.481
36605SOL     OW11711   4.205   6.862  14.091
36605SOL    HW111712   4.213   6.940  14.147
36605SOL    HW211713   4.135   6.811  14.132
36606SOL     OW11714   9.904   5.857   0.572
36606SOL    HW111715   9.912   5.776   0.622
36606SOL    HW211716   9.849   5.834   0.497
36607SOL     OW11717  12.757   1.346   8.614
36607SOL    HW111718  12.673   1.313   8.648
36607SOL    HW211719  12.746   1.440   8.609
36608SOL     OW11720   7.460   9.698   7.110
36608SOL    HW111721   7.423   9.641   7.043
36608SOL    HW211722   7.384   9.736   7.154
36609SOL     OW11723   4.136   7.819  10.900
36609SOL    HW111724   4.190   7.814  10.821
36609SOL    HW211725   4.104   7.729  10.913
36610SOL     OW11726  13.967   1.275   3.087
36610SOL    HW111727  14.054   1.313   3.075
36610SOL    HW211728  13.959   1.265   3.182
36611SOL     OW11729   6.209  10.879   5.194
36611SOL    HW111730   6.266  10.925   5.132
36611SOL    HW211731   6.224  10.787   5.175
36612SOL     OW11732  10.345   1.488  14.147
36612SOL    HW111733  10.366   1.400  14.115
36612SOL    HW211734  10.408   1.504  14.218
36613SOL     OW11735   2.603   5.010   3.171
36613SOL    HW111736   2.589   4.931   3.118
36613SOL    HW211737   2.651   5.068   3.113
36614SOL     OW11738   8.244   8.285  12.534
36614SOL    HW111739   8.221   8.213  12.593
36614SOL    HW211740   8.308   8.337  12.583
36615SOL     OW11741  13.088   0.774  13.251
36615SOL    HW111742  13.118   0.738  13.335
36615SOL    HW211743  13.162   0.826  13.219
36616SOL     OW11744  11.723  12.454  11.676
36616SOL    HW111745  11.807  12.408  11.674
36616SOL    HW211746  11.678  12.419  11.753
36617SOL     OW11747   0.766   8.495   2.610
36617SOL    HW111748   0.799   8.429   2.671
36617SOL    HW211749   0.671   8.480   2.608
36618SOL     OW11750   7.626   9.961   7.581
36618SOL    HW111751   7.554  10.023   7.568
36618SOL    HW211752   7.583   9.875   7.586
36619SOL     OW11753   1.642   9.664   6.996
36619SOL    HW111754   1.663   9.698   7.083
36619SOL    HW211755   1.646   9.569   7.005
36620SOL     OW11756  13.637   9.217   5.799
36620SOL    HW111757  13.622   9.254   5.886
36620SOL    HW211758  13.679   9.287   5.750
36621SOL     OW11759  10.493   9.999  14.201
36621SOL    HW111760  10.478   9.914  14.159
36621SOL    HW211761  10.430  10.002  14.273
36622SOL     OW11762   2.656   6.412   7.249
36622SOL    HW111763   2.728   6.466   7.281
36622SOL    HW211764   2.577   6.458   7.279
36623SOL     OW11765   4.339   6.944  14.480
36623SOL    HW111766   4.429   6.962  14.504
36623SOL    HW211767   4.344   6.866  14.424
36624SOL     OW11768  10.395  10.924  11.770
36624SOL    HW111769  10.406  11.000  11.827
36624SOL    HW211770  10.311  10.940  11.726
36625SOL     OW11771  13.481   4.507   9.915
36625SOL    HW111772  13.446   4.427   9.953
36625SOL    HW211773  13.467   4.574   9.981
36626SOL     OW11774   4.860   0.665  10.435
36626SOL    HW111775   4.807   0.643  10.512
36626SOL    HW211776   4.920   0.591  10.425
36627SOL     OW11777  10.840   3.812   9.637
36627SOL    HW111778  10.800   3.898   9.623
36627SOL    HW211779  10.809   3.759   9.563
36628SOL     OW11780   8.645   1.788   5.615
36628SOL    HW111781   8.668   1.829   5.699
36628SOL    HW211782   8.553   1.763   5.625
36629SOL     OW11783  10.024  14.801   9.861
36629SOL    HW111784  10.000  14.779   9.771
36629SOL    HW211785  10.032  14.717   9.905
36630SOL     OW11786   0.605   7.641   2.263
36630SOL    HW111787   0.643   7.729   2.255
36630SOL    HW211788   0.640   7.607   2.345
36631SOL     OW11789   7.307   1.775   5.598
36631SOL    HW111790   7.310   1.867   5.623
36631SOL    HW211791   7.295   1.776   5.503
36632SOL     OW11792   7.522   3.256   4.177
36632SOL    HW111793   7.501   3.232   4.087
36632SOL    HW211794   7.459   3.324   4.200
36633SOL     OW11795  11.109  11.858  10.660
36633SOL    HW111796  11.083  11.851  10.752
36633SOL    HW211797  11.196  11.817  10.656
36634SOL     OW11798  12.370  14.062   4.067
36634SOL    HW111799  12.360  14.051   3.972
36634SOL    HW211800  12.281  14.052   4.101
36635SOL     OW11801   7.298   9.779  13.802
36635SOL    HW111802   7.271   9.723  13.875
36635SOL    HW211803   7.289   9.722  13.725
36636SOL     OW11804  10.429   2.603   2.125
36636SOL    HW111805  10.448   2.510   2.133
36636SOL    HW211806  10.452   2.625   2.035
36637SOL     OW11807  12.660  10.800  12.403
36637SOL    HW111808  12.731  10.826  12.461
36637SOL    HW211809  12.670  10.856  12.326
36638SOL     OW11810   3.181   9.465   0.665
36638SOL    HW111811   3.143   9.553   0.673
36638SOL    HW211812   3.122   9.409   0.715
36639SOL     OW11813   4.938   5.922   3.699
36639SOL    HW111814   4.967   5.850   3.755
36639SOL    HW211815   5.002   5.924   3.628
36640SOL     OW11816   1.735   5.160   7.879
36640SOL    HW111817   1.802   5.104   7.839
36640SOL    HW211818   1.759   5.249   7.851
36641SOL     OW11819   6.139   7.216  12.121
36641SOL    HW111820   6.060   7.231  12.069
36641SOL    HW211821   6.143   7.289  12.182
36642SOL     OW11822   4.468  14.281  11.219
36642SOL    HW111823   4.436  14.279  11.310
36642SOL    HW211824   4.524  14.204  11.212
36643SOL     OW11825  14.581  10.245   2.831
36643SOL    HW111826  14.563  10.250   2.737
36643SOL    HW211827  14.626  10.327   2.851
36644SOL     OW11828   3.564   7.313   5.143
36644SOL    HW111829   3.621   7.388   5.160
36644SOL    HW211830   3.477   7.352   5.131
36645SOL     OW11831   9.471   4.978  12.426
36645SOL    HW111832   9.412   5.053  12.437
36645SOL    HW211833   9.528   4.980  12.503
36646SOL     OW11834   7.584   1.326  11.680
36646SOL    HW111835   7.500   1.291  11.650
36646SOL    HW211836   7.606   1.392  11.615
36647SOL     OW11837   5.576   4.126  11.538
36647SOL    HW111838   5.512   4.070  11.495
36647SOL    HW211839   5.637   4.150  11.469
36648SOL     OW11840   6.607  12.036  11.152
36648SOL    HW111841   6.640  12.112  11.199
36648SOL    HW211842   6.604  11.966  11.217
36649SOL     OW11843  14.412   6.041   8.706
36649SOL    HW111844  14.393   5.950   8.684
36649SOL    HW211845  14.346   6.091   8.657
36650SOL     OW11846   1.260  14.170   5.108
36650SOL    HW111847   1.343  14.136   5.143
36650SOL    HW211848   1.203  14.094   5.101
36651SOL     OW11849   8.424  13.757   8.888
36651SOL    HW111850   8.423  13.740   8.794
36651SOL    HW211851   8.332  13.757   8.914
36652SOL     OW11852   1.921   1.736  11.051
36652SOL    HW111853   1.911   1.817  10.999
36652SOL    HW211854   1.954   1.672  10.988
36653SOL     OW11855   9.715   3.857   5.198
36653SOL    HW111856   9.632   3.875   5.155
36653SOL    HW211857   9.695   3.858   5.291
36654SOL     OW11858  13.197  10.918   5.970
36654SOL    HW111859  13.211  10.833   6.011
36654SOL    HW211860  13.104  10.937   5.985
36655SOL     OW11861   2.796   0.623   0.636
36655SOL    HW111862   2.836   0.555   0.691
36655SOL    HW211863   2.751   0.680   0.697
36656SOL     OW11864  10.305   0.218   8.840
36656SOL    HW111865  10.373   0.178   8.785
36656SOL    HW211866  10.245   0.146   8.860
36657SOL     OW11867   5.976   3.759   7.416
36657SOL    HW111868   5.930   3.814   7.353
36657SOL    HW211869   5.907   3.718   7.468
36658SOL     OW11870   9.757   5.468   5.594
36658SOL    HW111871   9.842   5.479   5.551
36658SOL    HW211872   9.777   5.466   5.687
36659SOL     OW11873   9.746   5.586   2.843
36659SOL    HW111874   9.785   5.656   2.896
36659SOL    HW211875   9.739   5.512   2.903
36660SOL     OW11876   9.915   6.018   9.271
36660SOL    HW111877   9.862   6.088   9.310
36660SOL    HW211878  10.005   6.048   9.281
36661SOL     OW11879  13.695  14.456  10.172
36661SOL    HW111880  13.616  14.449  10.224
36661SOL    HW211881  13.670  14.509  10.096
36662SOL     OW11882   1.832   2.707  13.796
36662SOL    HW111883   1.838   2.680  13.704
36662SOL    HW211884   1.775   2.784  13.795
36663SOL     OW11885   2.338   1.531   2.986
36663SOL    HW111886   2.357   1.624   2.976
36663SOL    HW211887   2.286   1.509   2.909
36664SOL     OW11888   1.343  10.833   4.688
36664SOL    HW111889   1.329  10.865   4.599
36664SOL    HW211890   1.257  10.799   4.715
36665SOL     OW11891  10.483  10.402   7.623
36665SOL    HW111892  10.436  10.319   7.617
36665SOL    HW211893  10.575  10.377   7.633
36666SOL     OW11894   9.490  11.576   3.727
36666SOL    HW111895   9.473  11.610   3.639
36666SOL    HW211896   9.581  11.599   3.744
36667SOL     OW11897   4.123   5.540   2.967
36667SOL    HW111898   4.105   5.616   3.022
36667SOL    HW211899   4.218   5.529   2.971
36668SOL     OW11900  13.107   5.567  11.217
36668SOL    HW111901  13.082   5.499  11.280
36668SOL    HW211902  13.024   5.596  11.180
36669SOL     OW11903   7.476   9.596   9.803
36669SOL    HW111904   7.459   9.563   9.891
36669SOL    HW211905   7.446   9.687   9.805
36670SOL     OW11906   1.279   2.287   1.042
36670SOL    HW111907   1.276   2.257   1.133
36670SOL    HW211908   1.273   2.207   0.990
36671SOL     OW11909   6.100  10.417   8.818
36671SOL    HW111910   6.016  10.419   8.863
36671SOL    HW211911   6.162  10.384   8.883
36672SOL     OW11912   9.579   8.777   5.483
36672SOL    HW111913   9.612   8.867   5.477
36672SOL    HW211914   9.649   8.729   5.527
36673SOL     OW11915   3.188   9.410   3.839
36673SOL    HW111916   3.107   9.365   3.815
36673SOL    HW211917   3.162   9.502   3.848
36674SOL     OW11918   7.360  11.661  10.684
36674SOL    HW111919   7.392  11.726  10.746
36674SOL    HW211920   7.438  11.610  10.661
36675SOL     OW11921  14.294   6.660  11.462
36675SOL    HW111922  14.231   6.728  11.485
36675SOL    HW211923  14.271   6.586  11.519
36676SOL     OW11924   1.751  11.685  13.653
36676SOL    HW111925   1.761  11.735  13.571
36676SOL    HW211926   1.657  11.667  13.658
36677SOL     OW11927  10.765  10.825   6.223
36677SOL    HW111928  10.845  10.872   6.247
36677SOL    HW211929  10.703  10.893   6.198
36678SOL     OW11930   2.800  13.026   9.330
36678SOL    HW111931   2.742  12.993   9.261
36678SOL    HW211932   2.845  12.948   9.362
36679SOL     OW11933  14.278   8.289   8.926
36679SOL    HW111934  14.193   8.260   8.961
36679SOL    HW211935  14.266   8.285   8.831
36680SOL     OW11936  12.113   3.290  13.581
36680SOL    HW111937  12.056   3.268  13.655
36680SOL    HW211938  12.188   3.231  13.590
36681SOL     OW11939   2.046  12.203   8.730
36681SOL    HW111940   2.094  12.216   8.647
36681SOL    HW211941   2.032  12.109   8.735
36682SOL     OW11942  11.821  10.942   3.329
36682SOL    HW111943  11.796  11.025   3.289
36682SOL    HW211944  11.794  10.951   3.421
36683SOL     OW11945  10.525   2.423   5.573
36683SOL    HW111946  10.611   2.437   5.612
36683SOL    HW211947  10.478   2.370   5.638
36684SOL     OW11948   1.836   0.918  11.240
36684SOL    HW111949   1.794   0.906  11.155
36684SOL    HW211950   1.817   0.837  11.287
36685SOL     OW11951   0.224  11.741   4.160
36685SOL    HW111952   0.235  11.817   4.104
36685SOL    HW211953   0.309  11.728   4.202
36686SOL     OW11954   9.416  11.572  12.335
36686SOL    HW111955   9.338  11.518  12.323
36686SOL    HW211956   9.393  11.631  12.406
36687SOL     OW11957   5.097   5.819   7.806
36687SOL    HW111958   5.115   5.763   7.730
36687SOL    HW211959   5.102   5.760   7.881
36688SOL     OW11960  10.257  14.329   1.194
36688SOL    HW111961  10.320  14.257   1.187
36688SOL    HW211962  10.241  14.338   1.288
36689SOL     OW11963   7.198  12.450   3.128
36689SOL    HW111964   7.150  12.378   3.087
36689SOL    HW211965   7.265  12.407   3.180
36690SOL     OW11966   6.648   4.628   4.349
36690SOL    HW111967   6.705   4.692   4.392
36690SOL    HW211968   6.585   4.603   4.417
36691SOL     OW11969   7.269   1.530   1.544
36691SOL    HW111970   7.210   1.459   1.519
36691SOL    HW211971   7.349   1.513   1.495
36692SOL     OW11972   3.986   8.760  11.720
36692SOL    HW111973   3.996   8.764  11.815
36692SOL    HW211974   3.976   8.851  11.693
36693SOL     OW11975   3.416   4.811  13.345
36693SOL    HW111976   3.511   4.825  13.347
36693SOL    HW211977   3.404   4.727  13.387
36694SOL     OW11978  12.602   9.757   1.670
36694SOL    HW111979  12.669   9.783   1.734
36694SOL    HW211980  12.521   9.797   1.702
36695SOL     OW11981   1.097  10.462   8.805
36695SOL    HW111982   1.063  10.489   8.720
36695SOL    HW211983   1.143  10.380   8.787
36696SOL     OW11984   7.275  13.616   9.970
36696SOL    HW111985   7.312  13.603  10.057
36696SOL    HW211986   7.302  13.539   9.920
36697SOL     OW11987   9.116   0.778   9.110
36697SOL    HW111988   9.075   0.756   9.026
36697SOL    HW211989   9.191   0.833   9.086
36698SOL     OW11990   4.469   9.863   8.025
36698SOL    HW111991   4.436   9.947   7.992
36698SOL    HW211992   4.443   9.800   7.958
36699SOL     OW11993  10.380   7.299  12.856
36699SOL    HW111994  10.425   7.215  12.860
36699SOL    HW211995  10.449   7.363  12.877
36700SOL     OW11996   9.893   7.879   2.729
36700SOL    HW111997   9.957   7.929   2.780
36700SOL    HW211998   9.832   7.846   2.795
36701SOL     OW11999   3.840   5.295  14.253
36701SOL    HW112000   3.839   5.219  14.195
36701SOL    HW212001   3.748   5.317  14.266
36702SOL     OW12002   5.586   3.274  10.640
36702SOL    HW112003   5.505   3.237  10.606
36702SOL    HW212004   5.637   3.298  10.563
36703SOL     OW12005   3.121  14.219   8.916
36703SOL    HW112006   3.141  14.191   9.005
36703SOL    HW212007   3.034  14.260   8.923
36704SOL     OW12008   8.762   6.405   5.557
36704SOL    HW112009   8.714   6.440   5.632
36704SOL    HW212010   8.713   6.437   5.481
36705SOL     OW12011   3.249  10.533   6.291
36705SOL    HW112012   3.340  10.509   6.277
36705SOL    HW212013   3.249  10.628   6.298
36706SOL     OW12014   6.889   6.095   6.692
36706SOL    HW112015   6.805   6.068   6.729
36706SOL    HW212016   6.936   6.134   6.766
36707SOL     OW12017   5.645   9.553   4.454
36707SOL    HW112018   5.612   9.552   4.364
36707SOL    HW212019   5.738   9.532   4.445
36708SOL     OW12020   7.841   6.322   6.592
36708SOL    HW112021   7.872   6.346   6.679
36708SOL    HW212022   7.754   6.362   6.586
36709SOL     OW12023   4.009   5.415   8.372
36709SOL    HW112024   3.971   5.464   8.445
36709SOL    HW212025   4.015   5.478   8.301
36710SOL     OW12026   6.886  13.209   9.970
36710SOL    HW112027   6.940  13.133   9.992
36710SOL    HW212028   6.941  13.284   9.992
36711SOL     OW12029   4.989   3.141   9.876
36711SOL    HW112030   4.926   3.210   9.857
36711SOL    HW212031   4.963   3.107   9.961
36712SOL     OW12032  13.752   7.996  11.610
36712SOL    HW112033  13.838   7.956  11.616
36712SOL    HW212034  13.702   7.939  11.553
36713SOL     OW12035   5.283   3.787  12.192
36713SOL    HW112036   5.353   3.835  12.236
36713SOL    HW212037   5.229   3.753  12.264
36714SOL     OW12038  13.012   1.862  13.158
36714SOL    HW112039  13.041   1.852  13.249
36714SOL    HW212040  13.019   1.775  13.121
36715SOL     OW12041  14.267  11.869  14.289
36715SOL    HW112042  14.342  11.822  14.325
36715SOL    HW212043  14.246  11.935  14.355
36716SOL     OW12044  14.649   5.414   0.723
36716SOL    HW112045  14.670   5.489   0.780
36716SOL    HW212046  14.561   5.388   0.748
36717SOL     OW12047   5.820   4.052   5.149
36717SOL    HW112048   5.783   4.108   5.217
36717SOL    HW212049   5.759   4.060   5.075
36718SOL     OW12050   9.409   4.029   1.194
36718SOL    HW112051   9.457   4.100   1.237
36718SOL    HW212052   9.445   4.027   1.105
36719SOL     OW12053  12.493  13.551  13.793
36719SOL    HW112054  12.490  13.455  13.799
36719SOL    HW212055  12.402  13.577  13.779
36720SOL     OW12056   2.299  10.173   2.475
36720SOL    HW112057   2.362  10.182   2.547
36720SOL    HW212058   2.225  10.125   2.513
36721SOL     OW12059  14.582   3.736   1.343
36721SOL    HW112060  14.548   3.657   1.386
36721SOL    HW212061  14.628   3.782   1.413
36722SOL     OW12062   5.289  10.585   7.241
36722SOL    HW112063   5.228  10.534   7.188
36722SOL    HW212064   5.236  10.617   7.314
36723SOL     OW12065   4.043   2.436  12.063
36723SOL    HW112066   4.121   2.440  12.009
36723SOL    HW212067   4.055   2.504  12.129
36724SOL     OW12068   9.720  13.839   7.343
36724SOL    HW112069   9.684  13.805   7.261
36724SOL    HW212070   9.662  13.804   7.410
36725SOL     OW12071   3.600   8.038   4.234
36725SOL    HW112072   3.647   7.974   4.182
36725SOL    HW212073   3.601   8.003   4.323
36726SOL     OW12074   2.715   2.458   5.896
36726SOL    HW112075   2.802   2.420   5.908
36726SOL    HW212076   2.699   2.450   5.802
36727SOL     OW12077   6.018   3.831  12.048
36727SOL    HW112078   5.934   3.875  12.041
36727SOL    HW212079   6.006   3.749  12.001
36728SOL     OW12080  13.416   4.247   8.697
36728SOL    HW112081  13.477   4.250   8.624
36728SOL    HW212082  13.401   4.338   8.721
36729SOL     OW12083   0.125  10.200   8.687
36729SOL    HW112084   0.154  10.254   8.613
36729SOL    HW212085   0.047  10.245   8.719
36730SOL     OW12086  10.483   5.627   5.448
36730SOL    HW112087  10.444   5.647   5.363
36730SOL    HW212088  10.553   5.691   5.459
36731SOL     OW12089  12.407   8.107   2.947
36731SOL    HW112090  12.412   8.039   2.880
36731SOL    HW212091  12.484   8.162   2.932
36732SOL     OW12092  14.274  11.654   4.831
36732SOL    HW112093  14.197  11.608   4.799
36732SOL    HW212094  14.337  11.648   4.759
36733SOL     OW12095   9.452  13.708   0.606
36733SOL    HW112096   9.502  13.638   0.564
36733SOL    HW212097   9.361  13.679   0.600
36734SOL     OW12098  13.592  12.022   7.621
36734SOL    HW112099  13.610  12.108   7.660
36734SOL    HW212100  13.612  12.034   7.528
36735SOL     OW12101  10.624   9.035   3.176
36735SOL    HW112102  10.547   8.982   3.158
36735SOL    HW212103  10.591   9.113   3.221
36736SOL     OW12104   1.385   2.858   5.034
36736SOL    HW112105   1.451   2.802   5.074
36736SOL    HW212106   1.313   2.861   5.097
36737SOL     OW12107   1.793   6.005  11.834
36737SOL    HW112108   1.822   5.995  11.743
36737SOL    HW212109   1.819   6.094  11.858
36738SOL     OW12110  12.524   0.882  11.498
36738SOL    HW112111  12.463   0.936  11.448
36738SOL    HW212112  12.511   0.908  11.589
36739SOL     OW12113   0.109   6.214  10.035
36739SOL    HW112114   0.192   6.180  10.069
36739SOL    HW212115   0.064   6.250  10.112
36740SOL     OW12116  11.392   8.146   0.216
36740SOL    HW112117  11.379   8.235   0.246
36740SOL    HW212118  11.331   8.093   0.268
36741SOL     OW12119  13.784   7.318   2.594
36741SOL    HW112120  13.783   7.377   2.519
36741SOL    HW212121  13.862   7.264   2.583
36742SOL     OW12122   1.724  14.590  11.672
36742SOL    HW112123   1.732  14.543  11.755
36742SOL    HW212124   1.753  14.527  11.606
36743SOL     OW12125   0.852   6.229   7.124
36743SOL    HW112126   0.866   6.319   7.094
36743SOL    HW212127   0.924   6.212   7.184
36744SOL     OW12128   5.214  11.845   7.250
36744SOL    HW112129   5.133  11.846   7.301
36744SOL    HW212130   5.220  11.933   7.213
36745SOL     OW12131  13.003  11.343  10.514
36745SOL    HW112132  12.922  11.291  10.522
36745SOL    HW212133  13.070  11.279  10.491
36746SOL     OW12134   7.945   3.098   3.237
36746SOL    HW112135   7.989   3.017   3.209
36746SOL    HW212136   7.941   3.090   3.332
36747SOL     OW12137   1.170   8.691  14.321
36747SOL    HW112138   1.124   8.710  14.402
36747SOL    HW212139   1.221   8.770  14.303
36748SOL     OW12140  10.112   5.227   4.704
36748SOL    HW112141  10.127   5.137   4.678
36748SOL    HW212142  10.170   5.241   4.779
36749SOL     OW12143   6.041   4.289   0.219
36749SOL    HW112144   5.979   4.218   0.239
36749SOL    HW212145   6.114   4.275   0.279
36750SOL     OW12146   3.372  13.508  12.103
36750SOL    HW112147   3.278  13.525  12.097
36750SOL    HW212148   3.378  13.417  12.132
36751SOL     OW12149  12.724   2.044   4.660
36751SOL    HW112150  12.785   2.039   4.586
36751SOL    HW212151  12.780   2.049   4.737
36752SOL     OW12152   6.781  10.498   7.872
36752SOL    HW112153   6.846  10.566   7.854
36752SOL    HW212154   6.764  10.507   7.966
36753SOL     OW12155   0.665   3.815  12.147
36753SOL    HW112156   0.674   3.860  12.063
36753SOL    HW212157   0.719   3.865  12.207
36754SOL     OW12158   5.312  11.226  14.148
36754SOL    HW112159   5.255  11.298  14.122
36754SOL    HW212160   5.394  11.269  14.173
36755SOL     OW12161   8.162   8.970  12.768
36755SOL    HW112162   8.071   8.962  12.796
36755SOL    HW212163   8.183   8.885  12.730
36756SOL     OW12164   0.321   8.744   0.335
36756SOL    HW112165   0.290   8.698   0.258
36756SOL    HW212166   0.262   8.716   0.405
36757SOL     OW12167  11.004  11.279   6.796
36757SOL    HW112168  10.920  11.277   6.750
36757SOL    HW212169  11.001  11.203   6.853
36758SOL     OW12170   0.556   3.707   8.369
36758SOL    HW112171   0.631   3.649   8.383
36758SOL    HW212172   0.544   3.751   8.453
36759SOL     OW12173   2.534   2.513   8.106
36759SOL    HW112174   2.475   2.549   8.171
36759SOL    HW212175   2.496   2.538   8.022
36760SOL     OW12176   7.162  14.368   7.992
36760SOL    HW112177   7.206  14.283   7.990
36760SOL    HW212178   7.150  14.388   8.085
36761SOL     OW12179   8.100  10.263   9.695
36761SOL    HW112180   8.080  10.211   9.773
36761SOL    HW212181   8.191  10.241   9.674
36762SOL     OW12182   1.669   4.896   7.095
36762SOL    HW112183   1.595   4.867   7.043
36762SOL    HW212184   1.689   4.984   7.063
36763SOL     OW12185   5.878   1.717   0.334
36763SOL    HW112186   5.864   1.788   0.271
36763SOL    HW212187   5.964   1.736   0.372
36764SOL     OW12188   8.218   7.396   6.102
36764SOL    HW112189   8.182   7.362   6.183
36764SOL    HW212190   8.154   7.371   6.035
36765SOL     OW12191  11.099   2.399   7.912
36765SOL    HW112192  11.108   2.430   8.002
36765SOL    HW212193  11.184   2.417   7.871
36766SOL     OW12194  13.319   6.067  14.344
36766SOL    HW112195  13.374   6.010  14.290
36766SOL    HW212196  13.381   6.112  14.402
36767SOL     OW12197   4.898   0.166  12.861
36767SOL    HW112198   4.813   0.201  12.833
36767SOL    HW212199   4.951   0.167  12.781
36768SOL     OW12200   7.095   0.636  11.683
36768SOL    HW112201   7.131   0.703  11.625
36768SOL    HW212202   7.082   0.559  11.627
36769SOL     OW12203   0.037   1.208   2.920
36769SOL    HW112204   0.125   1.176   2.940
36769SOL    HW212205   0.040   1.230   2.827
36770SOL     OW12206  11.070  11.330   3.056
36770SOL    HW112207  10.986  11.374   3.041
36770SOL    HW212208  11.120  11.344   2.976
36771SOL     OW12209   0.620   9.647   5.682
36771SOL    HW112210   0.714   9.642   5.701
36771SOL    HW212211   0.577   9.622   5.764
36772SOL     OW12212  10.185   6.656  11.705
36772SOL    HW112213  10.276   6.674  11.682
36772SOL    HW212214  10.155   6.594  11.638
36773SOL     OW12215   2.717   0.057   7.113
36773SOL    HW112216   2.650   0.004   7.155
36773SOL    HW212217   2.753   0.110   7.184
36774SOL     OW12218   5.621  11.840  11.756
36774SOL    HW112219   5.618  11.873  11.846
36774SOL    HW212220   5.713  11.818  11.741
36775SOL     OW12221   5.100  12.216   4.137
36775SOL    HW112222   5.050  12.143   4.102
36775SOL    HW212223   5.125  12.267   4.060
36776SOL     OW12224  11.861   6.944   1.875
36776SOL    HW112225  11.819   6.863   1.848
36776SOL    HW212226  11.942   6.916   1.917
36777SOL     OW12227   4.616   7.629   8.462
36777SOL    HW112228   4.538   7.577   8.481
36777SOL    HW212229   4.682   7.565   8.436
36778SOL     OW12230   2.097   7.978  12.372
36778SOL    HW112231   2.055   7.893  12.387
36778SOL    HW212232   2.083   8.026  12.454
36779SOL     OW12233  12.712  11.789   1.418
36779SOL    HW112234  12.801  11.819   1.437
36779SOL    HW212235  12.690  11.728   1.488
36780SOL     OW12236  14.823   8.608  14.585
36780SOL    HW112237   0.013   8.662  14.602
36780SOL    HW212238  14.774   8.657  14.518
36781SOL     OW12239   0.138   1.457  14.885
36781SOL    HW112240   0.176   1.429  14.802
36781SOL    HW212241   0.127   1.552  14.876
36782SOL     OW12242  14.840   1.958   7.096
36782SOL    HW112243   0.036   1.948   7.051
36782SOL    HW212244  14.844   1.896   7.169
36783SOL     OW12245   2.878   3.631   8.713
36783SOL    HW112246   2.850   3.595   8.629
36783SOL    HW212247   2.965   3.666   8.697
36784SOL     OW12248   1.185   6.528  12.616
36784SOL    HW112249   1.112   6.532  12.553
36784SOL    HW212250   1.151   6.572  12.694
36785SOL     OW12251  10.600  13.290   7.190
36785SOL    HW112252  10.587  13.367   7.246
36785SOL    HW212253  10.515  13.246   7.190
36786SOL     OW12254   4.571   8.212  12.443
36786SOL    HW112255   4.520   8.291  12.423
36786SOL    HW212256   4.513   8.160  12.498
36787SOL     OW12257  10.807   3.488   3.950
36787SOL    HW112258  10.859   3.430   4.005
36787SOL    HW212259  10.730   3.437   3.927
36788SOL     OW12260   3.230  13.538   6.826
36788SOL    HW112261   3.314  13.524   6.869
36788SOL    HW212262   3.252  13.581   6.743
36789SOL     OW12263  12.721   7.441   4.162
36789SOL    HW112264  12.644   7.497   4.153
36789SOL    HW212265  12.705   7.391   4.242
36790SOL     OW12266   0.910  10.145   4.849
36790SOL    HW112267   0.861  10.179   4.774
36790SOL    HW212268   0.847  10.143   4.920
36791SOL     OW12269   2.920  10.920   0.585
36791SOL    HW112270   3.008  10.943   0.616
36791SOL    HW212271   2.916  10.955   0.496
36792SOL     OW12272   0.150   2.029   1.677
36792SOL    HW112273   0.134   2.113   1.720
36792SOL    HW212274   0.243   2.031   1.654
36793SOL     OW12275   7.417  12.788   5.402
36793SOL    HW112276   7.336  12.838   5.410
36793SOL    HW212277   7.411  12.722   5.472
36794SOL     OW12278   4.591  13.182   6.224
36794SOL    HW112279   4.587  13.110   6.162
36794SOL    HW212280   4.634  13.253   6.176
36795SOL     OW12281   3.636   4.845   4.340
36795SOL    HW112282   3.667   4.754   4.339
36795SOL    HW212283   3.547   4.839   4.375
36796SOL     OW12284  10.487  10.298  11.275
36796SOL    HW112285  10.410  10.255  11.315
36796SOL    HW212286  10.545  10.225  11.254
36797SOL     OW12287   9.279  14.321   0.958
36797SOL    HW112288   9.241  14.235   0.937
36797SOL    HW212289   9.241  14.343   1.042
36798SOL     OW12290   5.198  10.022   7.020
36798SOL    HW112291   5.288   9.994   7.038
36798SOL    HW212292   5.182   9.994   6.930
36799SOL     OW12293   9.781  11.560   8.707
36799SOL    HW112294   9.758  11.650   8.731
36799SOL    HW212295   9.754  11.552   8.615
36800SOL     OW12296   0.282   4.559  14.543
36800SOL    HW112297   0.224   4.609  14.485
36800SOL    HW212298   0.281   4.471  14.505
36801SOL     OW12299  14.402  13.103   0.442
36801SOL    HW112300  14.386  13.011   0.463
36801SOL    HW212301  14.394  13.107   0.346
36802SOL     OW12302   2.265  10.203  11.429
36802SOL    HW112303   2.336  10.267  11.430
36802SOL    HW212304   2.261  10.173  11.338
36803SOL     OW12305   2.553  11.428  10.375
36803SOL    HW112306   2.475  11.374  10.364
36803SOL    HW212307   2.573  11.460  10.287
36804SOL     OW12308   0.145  14.299   8.221
36804SOL    HW112309   0.214  14.349   8.264
36804SOL    HW212310   0.165  14.208   8.242
36805SOL     OW12311   0.206   2.092   6.102
36805SOL    HW112312   0.271   2.093   6.032
36805SOL    HW212313   0.184   2.184   6.116
36806SOL     OW12314   2.033   5.701  13.160
36806SOL    HW112315   2.033   5.631  13.094
36806SOL    HW212316   1.944   5.734  13.161
36807SOL     OW12317   0.022   5.225   0.906
36807SOL    HW112318   0.067   5.157   0.856
36807SOL    HW212319  14.825   5.235   0.861
36808SOL     OW12320   8.949  13.876   3.596
36808SOL    HW112321   8.984  13.860   3.683
36808SOL    HW212322   8.998  13.817   3.539
36809SOL     OW12323   5.397   8.295  12.997
36809SOL    HW112324   5.453   8.257  13.064
36809SOL    HW212325   5.338   8.223  12.972
36810SOL     OW12326   7.577   4.513   6.897
36810SOL    HW112327   7.499   4.475   6.856
36810SOL    HW212328   7.606   4.581   6.836
36811SOL     OW12329  12.737   5.939   3.521
36811SOL    HW112330  12.749   6.024   3.563
36811SOL    HW212331  12.789   5.878   3.573
36812SOL     OW12332   3.904  13.228  11.409
36812SOL    HW112333   3.954  13.171  11.468
36812SOL    HW212334   3.920  13.316  11.441
36813SOL     OW12335  11.818   6.050  10.790
36813SOL    HW112336  11.775   6.020  10.870
36813SOL    HW212337  11.866   6.128  10.816
36814SOL     OW12338   4.190  10.555  12.979
36814SOL    HW112339   4.258  10.529  13.041
36814SOL    HW212340   4.193  10.489  12.910
36815SOL     OW12341   3.369   4.601  10.328
36815SOL    HW112342   3.462   4.592  10.306
36815SOL    HW212343   3.358   4.545  10.405
36816SOL     OW12344   0.541   4.968   1.682
36816SOL    HW112345   0.618   5.022   1.699
36816SOL    HW212346   0.470   5.013   1.728
36817SOL     OW12347  12.113   5.011   3.823
36817SOL    HW112348  12.193   5.029   3.873
36817SOL    HW212349  12.048   5.072   3.859
36818SOL     OW12350   4.529   9.467  10.916
36818SOL    HW112351   4.567   9.494  10.832
36818SOL    HW212352   4.515   9.549  10.964
36819SOL     OW12353  12.308   9.733   5.981
36819SOL    HW112354  12.271   9.819   6.001
36819SOL    HW212355  12.236   9.684   5.941
36820SOL     OW12356   6.906   0.776   9.260
36820SOL    HW112357   6.827   0.726   9.241
36820SOL    HW212358   6.976   0.711   9.262
36821SOL     OW12359   2.753   8.494   4.188
36821SOL    HW112360   2.714   8.493   4.100
36821SOL    HW212361   2.833   8.442   4.179
36822SOL     OW12362  13.971  13.356   0.119
36822SOL    HW112363  13.910  13.284   0.100
36822SOL    HW212364  14.045  13.314   0.162
36823SOL     OW12365   5.748  11.259   3.861
36823SOL    HW112366   5.706  11.173   3.850
36823SOL    HW212367   5.822  11.242   3.918
36824SOL     OW12368   1.832   8.662  12.231
36824SOL    HW112369   1.768   8.696  12.293
36824SOL    HW212370   1.784   8.651  12.149
36825SOL     OW12371  12.310   8.985  11.700
36825SOL    HW112372  12.248   9.055  11.717
36825SOL    HW212373  12.341   9.001  11.610
36826SOL     OW12374   8.124   8.973  13.201
36826SOL    HW112375   8.177   8.942  13.275
36826SOL    HW212376   8.186   9.018  13.145
36827SOL     OW12377   5.100   7.652   9.497
36827SOL    HW112378   5.086   7.645   9.403
36827SOL    HW212379   5.165   7.585   9.517
36828SOL     OW12380   8.299   5.637   7.616
36828SOL    HW112381   8.358   5.692   7.667
36828SOL    HW212382   8.220   5.631   7.671
36829SOL     OW12383   0.191   9.785   4.618
36829SOL    HW112384   0.172   9.790   4.524
36829SOL    HW212385   0.163   9.870   4.652
36830SOL     OW12386  13.588   5.869  11.023
36830SOL    HW112387  13.534   5.887  11.101
36830SOL    HW212388  13.644   5.796  11.050
36831SOL     OW12389  10.593   2.435   8.918
36831SOL    HW112390  10.620   2.525   8.902
36831SOL    HW212391  10.505   2.429   8.879
36832SOL     OW12392   3.423  11.436  11.089
36832SOL    HW112393   3.456  11.414  11.001
36832SOL    HW212394   3.377  11.357  11.118
36833SOL     OW12395  13.631   4.891  14.533
36833SOL    HW112396  13.568   4.887  14.605
36833SOL    HW212397  13.708   4.844  14.565
36834SOL     OW12398  11.798  10.825   4.136
36834SOL    HW112399  11.879  10.774   4.125
36834SOL    HW212400  11.819  10.891   4.201
36835SOL     OW12401   2.539   1.809   6.920
36835SOL    HW112402   2.458   1.856   6.939
36835SOL    HW212403   2.604   1.850   6.977
36836SOL     OW12404   1.932  14.695   4.846
36836SOL    HW112405   1.955  14.769   4.790
36836SOL    HW212406   2.009  14.681   4.900
36837SOL     OW12407   4.913   4.490   3.276
36837SOL    HW112408   4.899   4.520   3.366
36837SOL    HW212409   5.004   4.512   3.257
36838SOL     OW12410   8.110  13.719   8.420
36838SOL    HW112411   8.119  13.642   8.476
36838SOL    HW212412   8.040  13.771   8.461
36839SOL     OW12413   0.354   5.125  13.820
36839SOL    HW112414   0.432   5.180  13.828
36839SOL    HW212415   0.292   5.162  13.883
36840SOL     OW12416  10.878   4.449   4.747
36840SOL    HW112417  10.804   4.393   4.769
36840SOL    HW212418  10.846   4.538   4.757
36841SOL     OW12419   4.042   6.225   3.919
36841SOL    HW112420   3.974   6.292   3.910
36841SOL    HW212421   4.004   6.147   3.879
36842SOL     OW12422   7.915  12.398  14.823
36842SOL    HW112423   7.857  12.373   0.008
36842SOL    HW212424   8.003  12.395  14.860
36843SOL     OW12425   1.463  14.643   3.019
36843SOL    HW112426   1.396  14.595   2.972
36843SOL    HW212427   1.418  14.678   3.096
36844SOL     OW12428   3.655  10.835  11.281
36844SOL    HW112429   3.745  10.823  11.312
36844SOL    HW212430   3.640  10.929  11.287
36845SOL     OW12431   8.638  13.530   5.300
36845SOL    HW112432   8.714  13.585   5.281
36845SOL    HW212433   8.614  13.552   5.390
36846SOL     OW12434  10.538   3.449   4.057
36846SOL    HW112435  10.473   3.459   4.126
36846SOL    HW212436  10.487   3.423   3.980
36847SOL     OW12437   6.661   2.215   0.019
36847SOL    HW112438   6.686   2.161  14.831
36847SOL    HW212439   6.682   2.305  14.880
36848SOL     OW12440   2.692  10.907   2.501
36848SOL    HW112441   2.724  10.847   2.433
36848SOL    HW212442   2.713  10.994   2.467
36849SOL     OW12443   8.142  12.170   1.318
36849SOL    HW112444   8.208  12.198   1.382
36849SOL    HW212445   8.064  12.221   1.340
36850SOL     OW12446   6.035   0.623  10.135
36850SOL    HW112447   6.096   0.561  10.095
36850SOL    HW212448   5.992   0.665  10.061
36851SOL     OW12449   2.328   9.680   7.798
36851SOL    HW112450   2.294   9.604   7.845
36851SOL    HW212451   2.255   9.709   7.743
36852SOL     OW12452   1.217   4.166  10.775
36852SOL    HW112453   1.225   4.257  10.804
36852SOL    HW212454   1.307   4.134  10.767
36853SOL     OW12455   5.196   8.553  13.308
36853SOL    HW112456   5.280   8.543  13.262
36853SOL    HW212457   5.184   8.470  13.354
36854SOL     OW12458   2.973   6.879  13.097
36854SOL    HW112459   2.941   6.934  13.025
36854SOL    HW212460   3.066   6.900  13.104
36855SOL     OW12461   2.993   5.494   0.533
36855SOL    HW112462   2.915   5.461   0.487
36855SOL    HW212463   2.959   5.526   0.616
36856SOL     OW12464  11.606  10.641   0.715
36856SOL    HW112465  11.690  10.624   0.674
36856SOL    HW212466  11.545  10.583   0.669
36857SOL     OW12467  11.508  11.626   3.368
36857SOL    HW112468  11.481  11.560   3.432
36857SOL    HW212469  11.449  11.700   3.383
36858SOL     OW12470  11.860   0.536  11.820
36858SOL    HW112471  11.813   0.619  11.808
36858SOL    HW212472  11.797   0.469  11.796
36859SOL     OW12473   9.863  14.078   2.165
36859SOL    HW112474   9.914  14.128   2.102
36859SOL    HW212475   9.895  14.107   2.251
36860SOL     OW12476  13.879   7.992  10.669
36860SOL    HW112477  13.881   8.084  10.641
36860SOL    HW212478  13.836   7.946  10.598
36861SOL     OW12479  11.454   4.951   3.933
36861SOL    HW112480  11.477   5.014   4.001
36861SOL    HW212481  11.373   4.911   3.965
36862SOL     OW12482  12.601   0.158   8.888
36862SOL    HW112483  12.509   0.185   8.897
36862SOL    HW212484  12.596   0.065   8.866
36863SOL     OW12485   7.734  13.417   7.093
36863SOL    HW112486   7.738  13.501   7.138
36863SOL    HW212487   7.641  13.404   7.074
36864SOL     OW12488   6.833  13.979   7.478
36864SOL    HW112489   6.811  14.050   7.538
36864SOL    HW212490   6.906  14.014   7.427
36865SOL     OW12491  10.910   8.533  12.363
36865SOL    HW112492  10.840   8.594  12.389
36865SOL    HW212493  10.990   8.586  12.368
36866SOL     OW12494   7.885   0.054  14.735
36866SOL    HW112495   7.948  14.871  14.721
36866SOL    HW212496   7.936   0.134  14.722
36867SOL     OW12497   0.175   5.540   2.899
36867SOL    HW112498   0.175   5.636   2.903
36867SOL    HW212499   0.211   5.513   2.984
36868SOL     OW12500   2.869  14.439  12.733
36868SOL    HW112501   2.815  14.384  12.788
36868SOL    HW212502   2.954  14.441  12.777
36869SOL     OW12503  13.752  11.719  10.745
36869SOL    HW112504  13.719  11.736  10.657
36869SOL    HW212505  13.679  11.742  10.803
36870SOL     OW12506   5.937   1.418  12.003
36870SOL    HW112507   6.027   1.399  12.028
36870SOL    HW212508   5.891   1.429  12.087
36871SOL     OW12509   9.850  12.687   3.499
36871SOL    HW112510   9.817  12.631   3.569
36871SOL    HW212511   9.853  12.775   3.537
36872SOL     OW12512  12.952   5.009  12.804
36872SOL    HW112513  12.905   5.034  12.884
36872SOL    HW212514  12.918   5.069  12.737
36873SOL     OW12515  12.701  11.957   9.247
36873SOL    HW112516  12.760  11.907   9.189
36873SOL    HW212517  12.631  11.988   9.189
36874SOL     OW12518   4.666   3.701   4.459
36874SOL    HW112519   4.572   3.710   4.448
36874SOL    HW212520   4.699   3.791   4.459
36875SOL     OW12521  12.195  10.924   1.765
36875SOL    HW112522  12.199  10.891   1.855
36875SOL    HW212523  12.186  10.846   1.711
36876SOL     OW12524   3.130   8.807  12.745
36876SOL    HW112525   3.162   8.895  12.726
36876SOL    HW212526   3.206   8.761  12.780
36877SOL     OW12527  14.689   5.400   1.405
36877SOL    HW112528  14.657   5.310   1.417
36877SOL    HW212529  14.614   5.455   1.426
36878SOL     OW12530  11.419   5.938   6.747
36878SOL    HW112531  11.385   6.026   6.729
36878SOL    HW212532  11.365   5.905   6.818
36879SOL     OW12533   1.887   5.961   8.557
36879SOL    HW112534   1.923   6.044   8.590
36879SOL    HW212535   1.940   5.941   8.480
36880SOL     OW12536  14.006  10.899   0.751
36880SOL    HW112537  14.036  10.840   0.821
36880SOL    HW212538  13.932  10.853   0.712
36881SOL     OW12539  11.631  10.005  12.346
36881SOL    HW112540  11.631   9.967  12.433
36881SOL    HW212541  11.720  10.039  12.335
36882SOL     OW12542  11.396   0.218   4.367
36882SOL    HW112543  11.452   0.206   4.290
36882SOL    HW212544  11.313   0.248   4.332
36883SOL     OW12545   9.276   0.359   4.399
36883SOL    HW112546   9.264   0.271   4.363
36883SOL    HW212547   9.256   0.349   4.492
36884SOL     OW12548  12.336  14.619  11.029
36884SOL    HW112549  12.341  14.542  11.085
36884SOL    HW212550  12.307  14.584  10.944
36885SOL     OW12551  11.958   3.182   9.108
36885SOL    HW112552  11.869   3.203   9.079
36885SOL    HW212553  12.006   3.162   9.028
36886SOL     OW12554  12.013  14.459  12.817
36886SOL    HW112555  12.009  14.370  12.781
36886SOL    HW212556  11.924  14.492  12.809
36887SOL     OW12557  13.083  10.154  10.280
36887SOL    HW112558  13.175  10.179  10.275
36887SOL    HW212559  13.052  10.195  10.361
36888SOL     OW12560  11.207  10.141   4.436
36888SOL    HW112561  11.302  10.156   4.437
36888SOL    HW212562  11.198  10.046   4.431
36889SOL     OW12563   8.762   1.136  14.126
36889SOL    HW112564   8.801   1.219  14.155
36889SOL    HW212565   8.771   1.078  14.201
36890SOL     OW12566   0.605   4.584  14.365
36890SOL    HW112567   0.587   4.646  14.435
36890SOL    HW212568   0.522   4.578  14.317
36891SOL     OW12569   7.193  13.966  11.885
36891SOL    HW112570   7.151  14.026  11.947
36891SOL    HW212571   7.132  13.892  11.878
36892SOL     OW12572   5.081   6.455   5.690
36892SOL    HW112573   5.151   6.437   5.753
36892SOL    HW212574   5.107   6.537   5.649
36893SOL     OW12575  11.542  11.912  11.770
36893SOL    HW112576  11.611  11.892  11.833
36893SOL    HW212577  11.588  11.931  11.688
36894SOL     OW12578   0.865   8.085   3.256
36894SOL    HW112579   0.949   8.046   3.280
36894SOL    HW212580   0.802   8.012   3.261
36895SOL     OW12581   0.151  12.708   8.010
36895SOL    HW112582   0.167  12.773   7.942
36895SOL    HW212583   0.082  12.746   8.065
36896SOL     OW12584   8.969   0.531   8.332
36896SOL    HW112585   9.040   0.595   8.338
36896SOL    HW212586   8.999   0.456   8.384
36897SOL     OW12587   0.461   2.258  10.058
36897SOL    HW112588   0.485   2.349  10.039
36897SOL    HW212589   0.434   2.259  10.149
36898SOL     OW12590   5.427   0.654   8.298
36898SOL    HW112591   5.520   0.644   8.316
36898SOL    HW212592   5.404   0.577   8.246
36899SOL     OW12593   2.467   0.913   3.984
36899SOL    HW112594   2.383   0.869   3.974
36899SOL    HW212595   2.510   0.868   4.056
36900SOL     OW12596   1.645   6.677   9.693
36900SOL    HW112597   1.684   6.671   9.606
36900SOL    HW212598   1.552   6.664   9.678
36901SOL     OW12599  13.924   8.800   1.248
36901SOL    HW112600  13.973   8.719   1.257
36901SOL    HW212601  13.841   8.774   1.208
36902SOL     OW12602   0.000   3.203   6.501
36902SOL    HW112603  14.854   3.234   6.417
36902SOL    HW212604  14.840   3.121   6.518
36903SOL     OW12605   6.014   3.012   0.810
36903SOL    HW112606   5.985   2.928   0.845
36903SOL    HW212607   5.978   3.077   0.871
36904SOL     OW12608   7.786   6.748   3.270
36904SOL    HW112609   7.816   6.708   3.352
36904SOL    HW212610   7.695   6.721   3.262
36905SOL     OW12611   2.486   0.539   1.757
36905SOL    HW112612   2.511   0.508   1.670
36905SOL    HW212613   2.568   0.543   1.806
36906SOL     OW12614  14.160   0.085  11.304
36906SOL    HW112615  14.220   0.012  11.312
36906SOL    HW212616  14.093   0.055  11.242
36907SOL     OW12617   1.753   0.059   7.971
36907SOL    HW112618   1.830   0.038   7.918
36907SOL    HW212619   1.776   0.028   8.059
36908SOL     OW12620   6.035   2.430   6.797
36908SOL    HW112621   5.990   2.347   6.814
36908SOL    HW212622   5.966   2.496   6.803
36909SOL     OW12623   6.794  13.358  13.152
36909SOL    HW112624   6.743  13.314  13.220
36909SOL    HW212625   6.738  13.429  13.122
36910SOL     OW12626   8.153   3.169   7.866
36910SOL    HW112627   8.199   3.085   7.858
36910SOL    HW212628   8.067   3.152   7.829
36911SOL     OW12629   5.147  11.022   6.473
36911SOL    HW112630   5.161  10.965   6.397
36911SOL    HW212631   5.068  11.071   6.451
36912SOL     OW12632  13.540   4.393   9.273
36912SOL    HW112633  13.571   4.484   9.282
36912SOL    HW212634  13.540   4.359   9.362
36913SOL     OW12635  10.134  13.683   8.812
36913SOL    HW112636  10.204  13.656   8.752
36913SOL    HW212637  10.123  13.609   8.871
36914SOL     OW12638  10.503   9.092   1.125
36914SOL    HW112639  10.567   9.075   1.055
36914SOL    HW212640  10.430   9.033   1.106
36915SOL     OW12641   8.685  12.733  11.193
36915SOL    HW112642   8.679  12.751  11.099
36915SOL    HW212643   8.595  12.736  11.224
36916SOL     OW12644   5.810   0.819  11.513
36916SOL    HW112645   5.897   0.826  11.474
36916SOL    HW212646   5.821   0.764  11.590
36917SOL     OW12647   5.379   8.725   5.515
36917SOL    HW112648   5.297   8.772   5.527
36917SOL    HW212649   5.425   8.735   5.599
36918SOL     OW12650   9.890   5.044   3.440
36918SOL    HW112651   9.838   5.120   3.415
36918SOL    HW212652   9.891   5.045   3.536
36919SOL     OW12653   7.786   5.900   1.473
36919SOL    HW112654   7.814   5.812   1.499
36919SOL    HW212655   7.801   5.903   1.378
36920SOL     OW12656  11.539   5.335   0.943
36920SOL    HW112657  11.503   5.266   0.886
36920SOL    HW212658  11.609   5.292   0.991
36921SOL     OW12659   1.098  11.438   8.065
36921SOL    HW112660   1.098  11.384   7.986
36921SOL    HW212661   1.144  11.517   8.040
36922SOL     OW12662   7.056   4.560  14.244
36922SOL    HW112663   7.147   4.570  14.271
36922SOL    HW212664   7.014   4.642  14.272
36923SOL     OW12665  13.505   9.669  10.415
36923SOL    HW112666  13.542   9.645  10.500
36923SOL    HW212667  13.548   9.751  10.392
36924SOL     OW12668   1.896   3.341  13.809
36924SOL    HW112669   1.907   3.404  13.738
36924SOL    HW212670   1.946   3.377  13.882
36925SOL     OW12671  12.955  13.784  13.661
36925SOL    HW112672  12.923  13.839  13.732
36925SOL    HW212673  12.917  13.698  13.679
36926SOL     OW12674   5.334   1.291   0.996
36926SOL    HW112675   5.347   1.309   0.903
36926SOL    HW212676   5.334   1.195   1.002
36927SOL     OW12677  10.797  13.557   8.772
36927SOL    HW112678  10.777  13.464   8.757
36927SOL    HW212679  10.714  13.602   8.757
36928SOL     OW12680   1.050   3.132   1.840
36928SOL    HW112681   1.011   3.172   1.762
36928SOL    HW212682   1.096   3.055   1.807
36929SOL     OW12683   4.622   5.091  12.489
36929SOL    HW112684   4.620   5.054  12.577
36929SOL    HW212685   4.653   5.020  12.433
36930SOL     OW12686  12.166  13.255   7.181
36930SOL    HW112687  12.116  13.193   7.234
36930SOL    HW212688  12.147  13.231   7.091
36931SOL     OW12689  13.031  11.712   4.383
36931SOL    HW112690  12.977  11.692   4.460
36931SOL    HW212691  13.002  11.649   4.317
36932SOL     OW12692   6.820  10.574  12.203
36932SOL    HW112693   6.760  10.508  12.168
36932SOL    HW212694   6.871  10.602  12.127
36933SOL     OW12695  13.866   4.722   0.352
36933SOL    HW112696  13.847   4.628   0.345
36933SOL    HW212697  13.947   4.726   0.403
36934SOL     OW12698  11.172   8.849   8.710
36934SOL    HW112699  11.208   8.937   8.720
36934SOL    HW212700  11.078   8.859   8.723
36935SOL     OW12701   8.711  12.972   5.216
36935SOL    HW112702   8.624  13.000   5.189
36935SOL    HW212703   8.755  12.947   5.135
36936SOL     OW12704   3.924  10.034  13.827
36936SOL    HW112705   3.897  10.007  13.739
36936SOL    HW212706   3.939   9.951  13.873
36937SOL     OW12707   9.047   8.941   3.634
36937SOL    HW112708   9.045   8.912   3.543
36937SOL    HW212709   9.139   8.960   3.651
36938SOL     OW12710   0.396   7.132  14.477
36938SOL    HW112711   0.369   7.223  14.486
36938SOL    HW212712   0.478   7.136  14.428
36939SOL     OW12713   3.078   7.926   4.842
36939SOL    HW112714   3.151   7.877   4.806
36939SOL    HW212715   3.018   7.938   4.768
36940SOL     OW12716   9.336   5.689   5.717
36940SOL    HW112717   9.247   5.692   5.753
36940SOL    HW212718   9.339   5.763   5.656
36941SOL     OW12719   1.498  13.892   1.326
36941SOL    HW112720   1.464  13.809   1.291
36941SOL    HW212721   1.593  13.884   1.319
36942SOL     OW12722  14.758   9.043   8.482
36942SOL    HW112723  14.848   9.048   8.450
36942SOL    HW212724  14.760   9.089   8.566
36943SOL     OW12725  13.882   7.479  10.478
36943SOL    HW112726  13.894   7.424  10.401
36943SOL    HW212727  13.871   7.416  10.550
36944SOL     OW12728   0.433  14.644  12.215
36944SOL    HW112729   0.473  14.700  12.148
36944SOL    HW212730   0.455  14.687  12.298
36945SOL     OW12731   9.356   5.002  10.167
36945SOL    HW112732   9.408   4.925  10.187
36945SOL    HW212733   9.298   5.012  10.243
36946SOL     OW12734   3.126   0.377   8.132
36946SOL    HW112735   3.058   0.337   8.078
36946SOL    HW212736   3.077   0.433   8.193
36947SOL     OW12737  10.046  10.260   8.145
36947SOL    HW112738   9.963  10.251   8.192
36947SOL    HW212739  10.112  10.231   8.207
36948SOL     OW12740   5.192   5.337   9.792
36948SOL    HW112741   5.205   5.249   9.756
36948SOL    HW212742   5.234   5.395   9.728
36949SOL     OW12743   9.776   4.650  13.690
36949SOL    HW112744   9.723   4.588  13.638
36949SOL    HW212745   9.778   4.612  13.777
36950SOL     OW12746   8.470  10.144   1.390
36950SOL    HW112747   8.561  10.117   1.377
36950SOL    HW212748   8.446  10.109   1.476
36951SOL     OW12749   5.065  13.213   5.582
36951SOL    HW112750   5.099  13.152   5.516
36951SOL    HW212751   5.086  13.171   5.665
36952SOL     OW12752   1.599   2.922   4.142
36952SOL    HW112753   1.569   2.833   4.125
36952SOL    HW212754   1.602   2.928   4.237
36953SOL     OW12755  14.012   4.892   5.092
36953SOL    HW112756  14.067   4.922   5.164
36953SOL    HW212757  14.000   4.799   5.107
36954SOL     OW12758   6.960   7.894  12.382
36954SOL    HW112759   7.025   7.879  12.451
36954SOL    HW212760   7.012   7.920  12.306
36955SOL     OW12761  13.296   5.909   9.794
36955SOL    HW112762  13.288   5.814   9.781
36955SOL    HW212763  13.380   5.920   9.837
36956SOL     OW12764  12.595   2.240   5.729
36956SOL    HW112765  12.618   2.160   5.776
36956SOL    HW212766  12.675   2.266   5.685
36957SOL     OW12767  11.499   2.095   2.993
36957SOL    HW112768  11.413   2.119   3.029
36957SOL    HW212769  11.554   2.079   3.069
36958SOL     OW12770  10.857   5.599  12.452
36958SOL    HW112771  10.861   5.674  12.392
36958SOL    HW212772  10.837   5.524  12.395
36959SOL     OW12773   8.590   5.473   9.285
36959SOL    HW112774   8.678   5.504   9.302
36959SOL    HW212775   8.540   5.552   9.264
36960SOL     OW12776   5.006  10.053   1.861
36960SOL    HW112777   5.049  10.026   1.779
36960SOL    HW212778   5.024  10.146   1.868
36961SOL     OW12779  13.791  11.031   1.500
36961SOL    HW112780  13.830  11.118   1.510
36961SOL    HW212781  13.699  11.049   1.480
36962SOL     OW12782  12.981   9.775   2.659
36962SOL    HW112783  13.054   9.811   2.710
36962SOL    HW212784  12.915   9.845   2.659
36963SOL     OW12785   8.234   1.855  11.924
36963SOL    HW112786   8.184   1.905  11.859
36963SOL    HW212787   8.301   1.916  11.955
36964SOL     OW12788   6.915   3.373   3.030
36964SOL    HW112789   6.961   3.454   3.053
36964SOL    HW212790   6.830   3.402   2.997
36965SOL     OW12791   8.796   0.575  14.699
36965SOL    HW112792   8.728   0.510  14.682
36965SOL    HW212793   8.782   0.643  14.632
36966SOL     OW12794   3.578   8.026  10.043
36966SOL    HW112795   3.589   8.094   9.976
36966SOL    HW212796   3.644   7.960  10.022
36967SOL     OW12797  12.196   0.899   5.280
36967SOL    HW112798  12.270   0.844   5.255
36967SOL    HW212799  12.161   0.931   5.196
36968SOL     OW12800   2.323   7.735   4.718
36968SOL    HW112801   2.232   7.718   4.741
36968SOL    HW212802   2.359   7.649   4.695
36969SOL     OW12803   1.354  12.770  14.458
36969SOL    HW112804   1.346  12.736  14.369
36969SOL    HW212805   1.357  12.691  14.513
36970SOL     OW12806   8.690   4.600   6.456
36970SOL    HW112807   8.774   4.556   6.463
36970SOL    HW212808   8.627   4.529   6.443
36971SOL     OW12809  13.504   7.857   2.745
36971SOL    HW112810  13.538   7.931   2.795
36971SOL    HW212811  13.560   7.783   2.770
36972SOL     OW12812   4.516   8.327   7.348
36972SOL    HW112813   4.509   8.237   7.381
36972SOL    HW212814   4.594   8.326   7.293
36973SOL     OW12815   0.337   2.387  12.316
36973SOL    HW112816   0.281   2.328  12.267
36973SOL    HW212817   0.312   2.376  12.407
36974SOL     OW12818   0.420   9.145   8.935
36974SOL    HW112819   0.366   9.208   8.887
36974SOL    HW212820   0.498   9.195   8.960
36975SOL     OW12821   0.316   4.413  12.387
36975SOL    HW112822   0.225   4.411  12.418
36975SOL    HW212823   0.339   4.321  12.375
36976SOL     OW12824   1.965   2.977   7.008
36976SOL    HW112825   1.909   2.909   6.971
36976SOL    HW212826   1.920   3.005   7.088
36977SOL     OW12827   8.050   5.014   8.966
36977SOL    HW112828   8.069   5.105   8.992
36977SOL    HW212829   7.971   5.021   8.913
36978SOL     OW12830  10.736  11.287  12.048
36978SOL    HW112831  10.672  11.256  11.983
36978SOL    HW212832  10.714  11.380  12.060
36979SOL     OW12833   9.108  11.875  13.361
36979SOL    HW112834   9.128  11.834  13.276
36979SOL    HW212835   9.025  11.836  13.387
36980SOL     OW12836  11.936   3.107   5.540
36980SOL    HW112837  11.988   3.146   5.611
36980SOL    HW212838  11.997   3.102   5.466
36981SOL     OW12839   4.082  12.698   1.004
36981SOL    HW112840   4.078  12.672   1.095
36981SOL    HW212841   4.133  12.779   1.005
36982SOL     OW12842   7.091  13.343   6.056
36982SOL    HW112843   7.078  13.249   6.049
36982SOL    HW212844   7.181  13.353   6.085
36983SOL     OW12845  14.777   1.575  10.018
36983SOL    HW112846  14.860   1.557   9.973
36983SOL    HW212847  14.710   1.551   9.953
36984SOL     OW12848  11.197   0.549  14.414
36984SOL    HW112849  11.292   0.533  14.412
36984SOL    HW212850  11.173   0.563  14.322
36985SOL     OW12851   0.762   4.264   5.739
36985SOL    HW112852   0.827   4.285   5.673
36985SOL    HW212853   0.750   4.169   5.732
36986SOL     OW12854   4.829   8.316  12.500
36986SOL    HW112855   4.843   8.367  12.420
36986SOL    HW212856   4.752   8.262  12.480
36987SOL     OW12857  13.701  11.940   4.291
36987SOL    HW112858  13.697  11.968   4.199
36987SOL    HW212859  13.739  11.852   4.287
36988SOL     OW12860  10.541   9.659  12.089
36988SOL    HW112861  10.481   9.588  12.066
36988SOL    HW212862  10.535   9.720  12.016
36989SOL     OW12863  12.362  12.931   6.068
36989SOL    HW112864  12.393  12.939   6.158
36989SOL    HW212865  12.364  12.837   6.050
36990SOL     OW12866   4.802   3.689  14.655
36990SOL    HW112867   4.887   3.656  14.627
36990SOL    HW212868   4.780   3.637  14.732
36991SOL     OW12869   9.170   7.112  11.424
36991SOL    HW112870   9.185   7.064  11.505
36991SOL    HW212871   9.087   7.159  11.438
36992SOL     OW12872   2.068   4.757  12.794
36992SOL    HW112873   2.085   4.788  12.883
36992SOL    HW212874   2.002   4.689  12.805
36993SOL     OW12875   4.502   4.774   7.865
36993SOL    HW112876   4.554   4.731   7.933
36993SOL    HW212877   4.508   4.867   7.885
36994SOL     OW12878   8.626   9.535  10.504
36994SOL    HW112879   8.714   9.564  10.485
36994SOL    HW212880   8.613   9.460  10.446
36995SOL     OW12881   5.033  11.373   0.355
36995SOL    HW112882   4.992  11.311   0.415
36995SOL    HW212883   4.980  11.369   0.276
36996SOL     OW12884   0.946  10.804   8.117
36996SOL    HW112885   0.859  10.780   8.085
36996SOL    HW212886   0.940  10.898   8.134
36997SOL     OW12887   7.007  14.225   3.853
36997SOL    HW112888   6.989  14.167   3.778
36997SOL    HW212889   6.951  14.191   3.923
36998SOL     OW12890   8.661  12.752   2.283
36998SOL    HW112891   8.607  12.813   2.232
36998SOL    HW212892   8.607  12.673   2.290
36999SOL     OW12893   9.566  10.210   7.174
36999SOL    HW112894   9.511  10.175   7.104
36999SOL    HW212895   9.623  10.274   7.131
37000SOL     OW12896   5.788   7.557   1.763
37000SOL    HW112897   5.843   7.540   1.840
37000SOL    HW212898   5.706   7.590   1.799
37001SOL     OW12899  12.567  12.106  12.165
37001SOL    HW112900  12.506  12.049  12.116
37001SOL    HW212901  12.592  12.173  12.101
37002SOL     OW12902  12.327   6.591   1.732
37002SOL    HW112903  12.400   6.533   1.711
37002SOL    HW212904  12.355   6.638   1.811
37003SOL     OW12905  10.764   3.952  10.850
37003SOL    HW112906  10.828   3.912  10.791
37003SOL    HW212907  10.766   3.897  10.929
37004SOL     OW12908  11.649  12.115  13.352
37004SOL    HW112909  11.565  12.155  13.327
37004SOL    HW212910  11.674  12.062  13.277
37005SOL     OW12911   6.007  11.697  11.542
37005SOL    HW112912   5.995  11.651  11.626
37005SOL    HW212913   6.102  11.700  11.530
37006SOL     OW12914  11.443   3.681   6.497
37006SOL    HW112915  11.490   3.616   6.549
37006SOL    HW212916  11.476   3.670   6.408
37007SOL     OW12917   6.339  10.758  13.296
37007SOL    HW112918   6.357  10.804  13.214
37007SOL    HW212919   6.254  10.793  13.324
37008SOL     OW12920   7.078   0.785  12.277
37008SOL    HW112921   7.069   0.820  12.189
37008SOL    HW212922   7.171   0.763  12.285
37009SOL     OW12923  10.954   1.637   7.327
37009SOL    HW112924  10.947   1.715   7.381
37009SOL    HW212925  10.888   1.648   7.259
37010SOL     OW12926   4.916   2.489  10.895
37010SOL    HW112927   4.909   2.468  10.988
37010SOL    HW212928   4.839   2.542  10.876
37011SOL     OW12929   0.927   2.992   3.832
37011SOL    HW112930   0.963   3.067   3.785
37011SOL    HW212931   0.852   2.964   3.779
37012SOL     OW12932   1.631   4.436   1.245
37012SOL    HW112933   1.597   4.348   1.263
37012SOL    HW212934   1.682   4.427   1.165
37013SOL     OW12935   3.385   3.150  11.603
37013SOL    HW112936   3.341   3.080  11.651
37013SOL    HW212937   3.467   3.111  11.574
37014SOL     OW12938   5.165  10.789   3.891
37014SOL    HW112939   5.259  10.797   3.909
37014SOL    HW212940   5.128  10.758   3.973
37015SOL     OW12941  11.178   9.632   2.936
37015SOL    HW112942  11.115   9.656   2.868
37015SOL    HW212943  11.217   9.551   2.905
37016SOL     OW12944   8.769   5.133  13.405
37016SOL    HW112945   8.763   5.094  13.491
37016SOL    HW212946   8.689   5.186  13.396
37017SOL     OW12947   1.082  13.378   2.902
37017SOL    HW112948   1.175  13.369   2.925
37017SOL    HW212949   1.066  13.473   2.906
37018SOL     OW12950  13.919   9.680  13.822
37018SOL    HW112951  13.912   9.775  13.823
37018SOL    HW212952  14.009   9.663  13.796
37019SOL     OW12953  12.863  11.966   6.458
37019SOL    HW112954  12.879  11.874   6.478
37019SOL    HW212955  12.933  11.990   6.398
37020SOL     OW12956   8.268  13.229   6.072
37020SOL    HW112957   8.346  13.173   6.067
37020SOL    HW212958   8.298  13.309   6.114
37021SOL     OW12959   7.638   1.836   8.181
37021SOL    HW112960   7.658   1.867   8.092
37021SOL    HW212961   7.581   1.761   8.167
37022SOL     OW12962  13.399   2.327  11.701
37022SOL    HW112963  13.367   2.283  11.779
37022SOL    HW212964  13.468   2.385  11.732
37023SOL     OW12965   1.104   0.185   5.182
37023SOL    HW112966   1.092   0.238   5.102
37023SOL    HW212967   1.158   0.112   5.154
37024SOL     OW12968  11.141   7.254   7.118
37024SOL    HW112969  11.129   7.245   7.024
37024SOL    HW212970  11.234   7.275   7.129
37025SOL     OW12971   4.438  12.449  13.886
37025SOL    HW112972   4.494  12.371  13.878
37025SOL    HW212973   4.493  12.521  13.856
37026SOL     OW12974   0.591   8.762  11.859
37026SOL    HW112975   0.595   8.723  11.947
37026SOL    HW212976   0.660   8.828  11.859
37027SOL     OW12977  11.154  10.469   5.351
37027SOL    HW112978  11.067  10.508   5.348
37027SOL    HW212979  11.179  10.458   5.259
37028SOL     OW12980   4.659  10.937   6.136
37028SOL    HW112981   4.693  10.941   6.047
37028SOL    HW212982   4.692  10.854   6.171
37029SOL     OW12983  12.464  10.153  10.831
37029SOL    HW112984  12.501  10.206  10.761
37029SOL    HW212985  12.528  10.083  10.846
37030SOL     OW12986  13.030   5.729  14.761
37030SOL    HW112987  13.056   5.804  14.814
37030SOL    HW212988  12.978   5.767  14.690
37031SOL     OW12989   4.726   6.089  12.980
37031SOL    HW112990   4.820   6.084  12.960
37031SOL    HW212991   4.723   6.113  13.073
37032SOL     OW12992   0.212   2.508   1.229
37032SOL    HW112993   0.291   2.550   1.265
37032SOL    HW212994   0.244   2.457   1.155
37033SOL     OW12995  11.290  14.796  13.029
37033SOL    HW112996  11.199  14.816  13.004
37033SOL    HW212997  11.340  14.814  12.950
37034SOL     OW12998   6.375  12.898   4.924
37034SOL    HW112999   6.338  12.867   5.008
37034SOL    HW213000   6.466  12.867   4.926
37035SOL     OW13001  10.588  11.103  11.900
37035SOL    HW113002  10.629  11.058  11.827
37035SOL    HW213003  10.594  11.041  11.973
37036SOL     OW13004   3.559   4.716   6.359
37036SOL    HW113005   3.579   4.632   6.318
37036SOL    HW213006   3.630   4.731   6.421
37037SOL     OW13007  11.198   7.328   4.478
37037SOL    HW113008  11.258   7.378   4.424
37037SOL    HW213009  11.152   7.394   4.530
37038SOL     OW13010   4.307  13.396   7.585
37038SOL    HW113011   4.364  13.434   7.652
37038SOL    HW213012   4.299  13.464   7.518
37039SOL     OW13013   4.254  11.306   8.058
37039SOL    HW113014   4.289  11.224   8.023
37039SOL    HW213015   4.332  11.362   8.068
37040SOL     OW13016  11.205   9.713   7.109
37040SOL    HW113017  11.228   9.652   7.039
37040SOL    HW213018  11.119   9.747   7.083
37041SOL     OW13019   3.307   7.024   2.183
37041SOL    HW113020   3.213   7.008   2.173
37041SOL    HW213021   3.344   7.001   2.097
37042SOL     OW13022   6.370  11.012   4.844
37042SOL    HW113023   6.438  11.045   4.903
37042SOL    HW213024   6.369  11.075   4.772
37043SOL     OW13025   7.939   4.573  13.688
37043SOL    HW113026   7.872   4.509  13.712
37043SOL    HW213027   8.012   4.555  13.747
37044SOL     OW13028   0.890   9.721   2.926
37044SOL    HW113029   0.927   9.785   2.987
37044SOL    HW213030   0.961   9.705   2.864
37045SOL     OW13031   0.336   0.632   0.675
37045SOL    HW113032   0.255   0.657   0.717
37045SOL    HW213033   0.405   0.662   0.734
37046SOL     OW13034  12.477  10.027   3.290
37046SOL    HW113035  12.558   9.980   3.311
37046SOL    HW213036  12.409   9.980   3.338
37047SOL     OW13037   9.369   8.873   6.277
37047SOL    HW113038   9.347   8.840   6.190
37047SOL    HW213039   9.287   8.872   6.325
37048SOL     OW13040   5.668   3.791   9.266
37048SOL    HW113041   5.750   3.759   9.304
37048SOL    HW213042   5.694   3.870   9.218
37049SOL     OW13043   8.633   0.292  12.022
37049SOL    HW113044   8.622   0.384  12.046
37049SOL    HW213045   8.547   0.266  11.987
37050SOL     OW13046   4.457   4.290   7.064
37050SOL    HW113047   4.543   4.313   7.098
37050SOL    HW213048   4.395   4.329   7.127
37051SOL     OW13049  13.312   3.197   3.876
37051SOL    HW113050  13.399   3.237   3.869
37051SOL    HW213051  13.252   3.271   3.878
37052SOL     OW13052   0.609  12.396   7.522
37052SOL    HW113053   0.534  12.337   7.523
37052SOL    HW213054   0.627  12.410   7.429
37053SOL     OW13055  14.646   0.582  12.567
37053SOL    HW113056  14.731   0.542  12.548
37053SOL    HW213057  14.604   0.589  12.481
37054SOL     OW13058   5.397   8.049   0.743
37054SOL    HW113059   5.319   8.035   0.688
37054SOL    HW213060   5.431   8.134   0.715
37055SOL     OW13061  10.213  12.056   7.775
37055SOL    HW113062  10.192  12.117   7.845
37055SOL    HW213063  10.148  11.986   7.784
37056SOL     OW13064   6.928  10.249   3.008
37056SOL    HW113065   6.990  10.318   2.985
37056SOL    HW213066   6.848  10.271   2.961
37057SOL     OW13067  13.762  13.572   1.683
37057SOL    HW113068  13.685  13.612   1.643
37057SOL    HW213069  13.731  13.490   1.720
37058SOL     OW13070  11.382  12.333  11.060
37058SOL    HW113071  11.299  12.332  11.106
37058SOL    HW213072  11.444  12.294  11.122
37059SOL     OW13073   2.883  13.034   8.753
37059SOL    HW113074   2.904  13.005   8.842
37059SOL    HW213075   2.883  13.129   8.757
37060SOL     OW13076  13.445   2.376   3.241
37060SOL    HW113077  13.416   2.443   3.303
37060SOL    HW213078  13.374   2.311   3.242
37061SOL     OW13079  10.732  11.474   1.478
37061SOL    HW113080  10.749  11.415   1.552
37061SOL    HW213081  10.680  11.545   1.515
37062SOL     OW13082   0.955  11.076   4.366
37062SOL    HW113083   1.047  11.097   4.377
37062SOL    HW213084   0.935  11.016   4.437
37063SOL     OW13085  10.877  13.581   3.406
37063SOL    HW113086  10.895  13.545   3.319
37063SOL    HW213087  10.783  13.594   3.408
37064SOL     OW13088   7.020  10.271   2.097
37064SOL    HW113089   6.996  10.326   2.022
37064SOL    HW213090   7.035  10.334   2.168
37065SOL     OW13091   3.900  12.601   6.653
37065SOL    HW113092   3.940  12.655   6.585
37065SOL    HW213093   3.898  12.658   6.730
37066SOL     OW13094   2.291  14.283  13.698
37066SOL    HW113095   2.332  14.283  13.611
37066SOL    HW213096   2.198  14.270  13.680
37067SOL     OW13097   7.134   0.986   5.386
37067SOL    HW113098   7.039   0.983   5.393
37067SOL    HW213099   7.154   0.940   5.304
37068SOL     OW13100   5.869   4.665   4.461
37068SOL    HW113101   5.932   4.689   4.393
37068SOL    HW213102   5.835   4.749   4.492
37069SOL     OW13103   3.078  11.148   5.514
37069SOL    HW113104   3.052  11.122   5.426
37069SOL    HW213105   3.018  11.101   5.572
37070SOL     OW13106  14.202   5.291  13.470
37070SOL    HW113107  14.229   5.273  13.560
37070SOL    HW213108  14.281   5.275  13.418
37071SOL     OW13109   9.308   2.445   5.031
37071SOL    HW113110   9.374   2.376   5.019
37071SOL    HW213111   9.298   2.452   5.126
37072SOL     OW13112   4.053  12.770   2.514
37072SOL    HW113113   4.116  12.710   2.474
37072SOL    HW213114   4.096  12.856   2.512
37073SOL     OW13115   0.122   6.314  13.498
37073SOL    HW113116   0.043   6.270  13.531
37073SOL    HW213117   0.139   6.383  13.563
37074SOL     OW13118   4.041  14.062   6.870
37074SOL    HW113119   3.999  14.148   6.866
37074SOL    HW213120   3.972  14.000   6.851
37075SOL     OW13121   2.416   1.762   7.986
37075SOL    HW113122   2.330   1.761   8.029
37075SOL    HW213123   2.475   1.798   8.052
37076SOL     OW13124  12.942   8.356   0.014
37076SOL    HW113125  13.002   8.405   0.070
37076SOL    HW213126  12.957   8.264   0.038
37077SOL     OW13127  11.817  14.687   2.691
37077SOL    HW113128  11.836  14.668   2.599
37077SOL    HW213129  11.878  14.758   2.713
37078SOL     OW13130   0.096  11.021  12.186
37078SOL    HW113131   0.020  11.069  12.219
37078SOL    HW213132   0.161  11.090  12.168
37079SOL     OW13133  11.841   5.188   2.348
37079SOL    HW113134  11.767   5.227   2.394
37079SOL    HW213135  11.800   5.132   2.281
37080SOL     OW13136  10.820   1.701  10.683
37080SOL    HW113137  10.829   1.789  10.719
37080SOL    HW213138  10.726   1.686  10.678
37081SOL     OW13139  11.938   8.835   0.866
37081SOL    HW113140  12.003   8.766   0.854
37081SOL    HW213141  11.871   8.795   0.922
37082SOL     OW13142   7.420   8.350   2.098
37082SOL    HW113143   7.355   8.324   2.163
37082SOL    HW213144   7.369   8.364   2.018
37083SOL     OW13145   3.315  14.360  10.988
37083SOL    HW113146   3.263  14.426  10.944
37083SOL    HW213147   3.322  14.391  11.078
37084SOL     OW13148   8.655  10.119  12.443
37084SOL    HW113149   8.695  10.202  12.466
37084SOL    HW213150   8.694  10.056  12.504
37085SOL     OW13151  10.180   4.082   4.789
37085SOL    HW113152  10.201   4.043   4.874
37085SOL    HW213153  10.093   4.120   4.801
37086SOL     OW13154   3.472   6.635   3.425
37086SOL    HW113155   3.466   6.582   3.505
37086SOL    HW213156   3.443   6.577   3.355
37087SOL     OW13157   7.305   5.386   1.030
37087SOL    HW113158   7.281   5.478   1.041
37087SOL    HW213159   7.316   5.376   0.935
37088SOL     OW13160   9.349  11.036   8.459
37088SOL    HW113161   9.398  11.079   8.530
37088SOL    HW213162   9.288  10.977   8.504
37089SOL     OW13163   2.054   4.371   3.739
37089SOL    HW113164   2.044   4.395   3.831
37089SOL    HW213165   1.967   4.386   3.701
37090SOL     OW13166   4.538  12.312   0.342
37090SOL    HW113167   4.454  12.353   0.320
37090SOL    HW213168   4.566  12.271   0.261
37091SOL     OW13169   8.649   8.694  11.175
37091SOL    HW113170   8.567   8.644  11.165
37091SOL    HW213171   8.718   8.628  11.165
37092SOL     OW13172   6.439   0.320  14.271
37092SOL    HW113173   6.413   0.331  14.363
37092SOL    HW213174   6.409   0.232  14.249
37093SOL     OW13175   1.033   6.969  10.152
37093SOL    HW113176   1.101   7.000  10.211
37093SOL    HW213177   0.977   7.045  10.139
37094SOL     OW13178   6.291   1.747   1.643
37094SOL    HW113179   6.276   1.686   1.570
37094SOL    HW213180   6.282   1.833   1.603
37095SOL     OW13181  10.786   7.156  11.983
37095SOL    HW113182  10.777   7.250  12.000
37095SOL    HW213183  10.830   7.122  12.061
37096SOL     OW13184   6.194   1.380   7.237
37096SOL    HW113185   6.216   1.288   7.224
37096SOL    HW213186   6.099   1.380   7.253
37097SOL     OW13187  13.465  13.993   2.981
37097SOL    HW113188  13.482  14.066   2.922
37097SOL    HW213189  13.369  13.987   2.984
37098SOL     OW13190   6.349  12.449   4.451
37098SOL    HW113191   6.395  12.526   4.418
37098SOL    HW213192   6.406  12.376   4.428
37099SOL     OW13193  11.282   1.047  13.721
37099SOL    HW113194  11.266   1.020  13.811
37099SOL    HW213195  11.224   0.991  13.669
37100SOL     OW13196  14.425   1.983   1.040
37100SOL    HW113197  14.439   2.067   0.996
37100SOL    HW213198  14.362   1.937   0.985
37101SOL     OW13199  13.649   4.872   0.288
37101SOL    HW113200  13.685   4.955   0.256
37101SOL    HW213201  13.726   4.825   0.321
37102SOL     OW13202   4.413   7.322   0.267
37102SOL    HW113203   4.501   7.357   0.279
37102SOL    HW213204   4.425   7.227   0.265
37103SOL     OW13205   7.024  12.566   5.732
37103SOL    HW113206   6.962  12.594   5.665
37103SOL    HW213207   7.057  12.482   5.701
37104SOL     OW13208   3.899   5.148  14.588
37104SOL    HW113209   3.865   5.098  14.514
37104SOL    HW213210   3.910   5.084  14.658
37105SOL     OW13211  14.761   1.617  13.114
37105SOL    HW113212  14.711   1.673  13.174
37105SOL    HW213213  14.754   1.530  13.152
37106SOL     OW13214   6.855   6.073  13.902
37106SOL    HW113215   6.776   6.106  13.945
37106SOL    HW213216   6.869   6.132  13.828
37107SOL     OW13217   1.443   3.492  11.654
37107SOL    HW113218   1.524   3.497  11.603
37107SOL    HW213219   1.436   3.577  11.697
37108SOL     OW13220  10.778   4.349   0.686
37108SOL    HW113221  10.817   4.437   0.692
37108SOL    HW213222  10.760   4.337   0.593
37109SOL     OW13223   9.548  10.150  13.082
37109SOL    HW113224   9.495  10.173  13.159
37109SOL    HW213225   9.551  10.055  13.082
37110SOL     OW13226   4.032   3.085   9.634
37110SOL    HW113227   3.950   3.036   9.631
37110SOL    HW213228   4.016   3.153   9.700
37111SOL     OW13229   6.319   8.972   9.163
37111SOL    HW113230   6.242   9.029   9.153
37111SOL    HW213231   6.393   9.029   9.143
37112SOL     OW13232  11.771   1.820   7.411
37112SOL    HW113233  11.814   1.905   7.398
37112SOL    HW213234  11.783   1.800   7.503
37113SOL     OW13235   3.720  13.813  13.834
37113SOL    HW113236   3.676  13.784  13.913
37113SOL    HW213237   3.706  13.908  13.831
37114SOL     OW13238  12.714  12.920   3.615
37114SOL    HW113239  12.645  12.875   3.664
37114SOL    HW213240  12.785  12.931   3.678
37115SOL     OW13241   4.506   3.736   8.345
37115SOL    HW113242   4.472   3.769   8.262
37115SOL    HW213243   4.601   3.737   8.333
37116SOL     OW13244   1.728  11.586   5.340
37116SOL    HW113245   1.696  11.626   5.420
37116SOL    HW213246   1.810  11.631   5.321
37117SOL     OW13247   8.968   2.872   4.547
37117SOL    HW113248   8.876   2.858   4.569
37117SOL    HW213249   8.970   2.960   4.509
37118SOL     OW13250   6.506   0.624  14.388
37118SOL    HW113251   6.572   0.623  14.319
37118SOL    HW213252   6.454   0.545  14.374
37119SOL     OW13253   5.323   1.109  10.915
37119SOL    HW113254   5.414   1.105  10.887
37119SOL    HW213255   5.327   1.115  11.010
37120SOL     OW13256   3.538  13.628   2.813
37120SOL    HW113257   3.499  13.693   2.754
37120SOL    HW213258   3.475  13.620   2.885
37121SOL     OW13259   7.312  11.300  10.098
37121SOL    HW113260   7.379  11.332  10.038
37121SOL    HW213261   7.294  11.210  10.068
37122SOL     OW13262   7.549   3.542  12.359
37122SOL    HW113263   7.502   3.460  12.376
37122SOL    HW213264   7.625   3.516  12.307
37123SOL     OW13265  10.658  14.755   2.288
37123SOL    HW113266  10.587  14.706   2.329
37123SOL    HW213267  10.722  14.688   2.261
37124SOL     OW13268  12.015   3.138   0.701
37124SOL    HW113269  11.982   3.223   0.674
37124SOL    HW213270  11.939   3.094   0.739
37125SOL     OW13271  11.805   5.710   9.125
37125SOL    HW113272  11.816   5.801   9.097
37125SOL    HW213273  11.865   5.700   9.199
37126SOL     OW13274   0.121   1.433   2.291
37126SOL    HW113275   0.095   1.453   2.382
37126SOL    HW213276   0.137   1.519   2.252
37127SOL     OW13277  13.200   7.607  14.764
37127SOL    HW113278  13.266   7.619  14.695
37127SOL    HW213279  13.235   7.654  14.839
37128SOL     OW13280  12.305   3.405   4.487
37128SOL    HW113281  12.330   3.313   4.495
37128SOL    HW213282  12.270   3.412   4.398
37129SOL     OW13283   3.343   1.732   9.818
37129SOL    HW113284   3.333   1.827   9.829
37129SOL    HW213285   3.395   1.705   9.894
37130SOL     OW13286   6.791  11.651   6.915
37130SOL    HW113287   6.853  11.720   6.939
37130SOL    HW213288   6.721  11.658   6.980
37131SOL     OW13289   7.129   2.089   1.951
37131SOL    HW113290   7.200   2.075   1.888
37131SOL    HW213291   7.059   2.032   1.921
37132SOL     OW13292  10.491   6.577   8.150
37132SOL    HW113293  10.436   6.541   8.219
37132SOL    HW213294  10.434   6.580   8.073
37133SOL     OW13295   1.628   9.172   3.231
37133SOL    HW113296   1.604   9.138   3.145
37133SOL    HW213297   1.700   9.116   3.259
37134SOL     OW13298   2.978   0.155  12.315
37134SOL    HW113299   2.884   0.164  12.304
37134SOL    HW213300   2.998   0.204  12.395
37135SOL     OW13301  13.541   8.421   3.243
37135SOL    HW113302  13.467   8.375   3.204
37135SOL    HW213303  13.506   8.460   3.323
37136SOL     OW13304   5.967   2.970  14.217
37136SOL    HW113305   5.965   2.885  14.259
37136SOL    HW213306   5.937   2.954  14.128
37137SOL     OW13307   9.963   4.003  12.016
37137SOL    HW113308   9.901   4.033  12.083
37137SOL    HW213309  10.049   4.010  12.058
37138SOL     OW13310   5.898  10.096  10.410
37138SOL    HW113311   5.931  10.132  10.493
37138SOL    HW213312   5.834  10.031  10.437
37139SOL     OW13313   1.859   5.999   9.407
37139SOL    HW113314   1.814   6.043   9.479
37139SOL    HW213315   1.866   6.066   9.339
37140SOL     OW13316   4.281   2.428   4.786
37140SOL    HW113317   4.331   2.368   4.843
37140SOL    HW213318   4.260   2.502   4.843
37141SOL     OW13319   3.093   9.482   4.885
37141SOL    HW113320   3.040   9.522   4.954
37141SOL    HW213321   3.102   9.391   4.911
37142SOL     OW13322   0.789  10.258  13.770
37142SOL    HW113323   0.823  10.300  13.691
37142SOL    HW213324   0.711  10.211  13.741
37143SOL     OW13325  12.234   3.380   6.711
37143SOL    HW113326  12.175   3.336   6.649
37143SOL    HW213327  12.301   3.314   6.730
37144SOL     OW13328   8.054   1.851  12.458
37144SOL    HW113329   8.137   1.898  12.452
37144SOL    HW213330   8.019   1.854  12.369
37145SOL     OW13331   9.792   4.653  12.746
37145SOL    HW113332   9.697   4.645  12.735
37145SOL    HW213333   9.828   4.636  12.659
37146SOL     OW13334   7.426   9.245  12.263
37146SOL    HW113335   7.389   9.173  12.314
37146SOL    HW213336   7.507   9.209  12.228
37147SOL     OW13337   8.456   5.140  12.229
37147SOL    HW113338   8.361   5.139  12.224
37147SOL    HW213339   8.485   5.155  12.139
37148SOL     OW13340   9.697   6.001   2.565
37148SOL    HW113341   9.717   6.071   2.628
37148SOL    HW213342   9.627   6.038   2.511
37149SOL     OW13343  11.650   4.619  11.766
37149SOL    HW113344  11.561   4.654  11.767
37149SOL    HW213345  11.686   4.643  11.852
37150SOL     OW13346  10.177  13.118  11.293
37150SOL    HW113347  10.210  13.048  11.349
37150SOL    HW213348  10.170  13.078  11.206
37151SOL     OW13349   7.304  14.371  10.908
37151SOL    HW113350   7.371  14.306  10.888
37151SOL    HW213351   7.245  14.368  10.832
37152SOL     OW13352  12.974   1.508   0.256
37152SOL    HW113353  12.908   1.445   0.227
37152SOL    HW213354  13.003   1.475   0.341
37153SOL     OW13355   8.845   0.291   0.701
37153SOL    HW113356   8.809   0.380   0.690
37153SOL    HW213357   8.921   0.303   0.758
37154SOL     OW13358   1.023   3.041   7.848
37154SOL    HW113359   0.987   3.034   7.760
37154SOL    HW213360   1.010   3.132   7.872
37155SOL     OW13361   5.977   5.646   8.652
37155SOL    HW113362   5.906   5.606   8.702
37155SOL    HW213363   5.982   5.736   8.684
37156SOL     OW13364   1.561   7.588  14.030
37156SOL    HW113365   1.591   7.670  14.071
37156SOL    HW213366   1.530   7.535  14.103
37157SOL     OW13367   4.686   3.644   5.057
37157SOL    HW113368   4.771   3.661   5.098
37157SOL    HW213369   4.635   3.600   5.125
37158SOL     OW13370   9.947   0.346   6.419
37158SOL    HW113371   9.888   0.397   6.474
37158SOL    HW213372  10.011   0.409   6.387
37159SOL     OW13373   2.407   6.970   8.792
37159SOL    HW113374   2.456   6.923   8.860
37159SOL    HW213375   2.315   6.953   8.812
37160SOL     OW13376   6.202  10.736   8.193
37160SOL    HW113377   6.286  10.691   8.201
37160SOL    HW213378   6.215  10.800   8.124
37161SOL     OW13379   1.151   9.369   3.510
37161SOL    HW113380   1.105   9.342   3.431
37161SOL    HW213381   1.233   9.407   3.479
37162SOL     OW13382   3.190  13.949   5.093
37162SOL    HW113383   3.141  13.974   5.015
37162SOL    HW213384   3.136  13.976   5.166
37163SOL     OW13385  13.464   3.733  11.013
37163SOL    HW113386  13.423   3.675  10.949
37163SOL    HW213387  13.468   3.680  11.093
37164SOL     OW13388  10.517   3.198   5.016
37164SOL    HW113389  10.490   3.158   5.098
37164SOL    HW213390  10.516   3.292   5.033
37165SOL     OW13391  10.714  11.167  12.839
37165SOL    HW113392  10.735  11.089  12.891
37165SOL    HW213393  10.649  11.214  12.891
37166SOL     OW13394   4.214   0.641   8.606
37166SOL    HW113395   4.155   0.701   8.560
37166SOL    HW213396   4.200   0.557   8.562
37167SOL     OW13397   8.962  13.128  11.739
37167SOL    HW113398   8.932  13.083  11.660
37167SOL    HW213399   8.898  13.105  11.806
37168SOL     OW13400   6.058   8.909   2.075
37168SOL    HW113401   6.006   8.946   2.146
37168SOL    HW213402   6.069   8.817   2.098
37169SOL     OW13403   0.466  13.758  14.697
37169SOL    HW113404   0.480  13.793  14.609
37169SOL    HW213405   0.372  13.765  14.711
37170SOL     OW13406   9.520   0.105   3.784
37170SOL    HW113407   9.501   0.062   3.701
37170SOL    HW213408   9.450   0.169   3.795
37171SOL     OW13409   3.189   9.729   2.523
37171SOL    HW113410   3.162   9.821   2.517
37171SOL    HW213411   3.135   9.693   2.594
37172SOL     OW13412   2.589   2.550  13.214
37172SOL    HW113413   2.672   2.502  13.215
37172SOL    HW213414   2.612   2.637  13.182
37173SOL     OW13415  12.297  12.737  12.423
37173SOL    HW113416  12.324  12.825  12.449
37173SOL    HW213417  12.314  12.734  12.328
37174SOL     OW13418  14.613  14.424   9.028
37174SOL    HW113419  14.574  14.338   9.010
37174SOL    HW213420  14.632  14.460   8.942
37175SOL     OW13421  11.813   2.813  14.876
37175SOL    HW113422  11.814   2.718  14.869
37175SOL    HW213423  11.881   2.842  14.815
37176SOL     OW13424   4.223  13.360   2.486
37176SOL    HW113425   4.309  13.322   2.464
37176SOL    HW213426   4.244  13.437   2.539
37177SOL     OW13427  10.643   3.338  12.540
37177SOL    HW113428  10.622   3.322  12.632
37177SOL    HW213429  10.680   3.427  12.539
37178SOL     OW13430  13.526   6.743  14.132
37178SOL    HW113431  13.508   6.748  14.038
37178SOL    HW213432  13.555   6.832  14.155
37179SOL     OW13433  14.865   8.040   6.332
37179SOL    HW113434  14.775   8.046   6.301
37179SOL    HW213435   0.027   8.096   6.273
37180SOL     OW13436  12.011   8.194   9.661
37180SOL    HW113437  12.105   8.206   9.658
37180SOL    HW213438  11.975   8.272   9.619
37181SOL     OW13439   5.334   8.700   7.762
37181SOL    HW113440   5.420   8.672   7.793
37181SOL    HW213441   5.292   8.620   7.731
37182SOL     OW13442   7.800  11.729   7.496
37182SOL    HW113443   7.853  11.808   7.492
37182SOL    HW213444   7.822  11.690   7.581
37183SOL     OW13445   7.761  14.312   2.112
37183SOL    HW113446   7.730  14.233   2.155
37183SOL    HW213447   7.701  14.381   2.143
37184SOL     OW13448  14.116   1.529   7.810
37184SOL    HW113449  14.182   1.506   7.745
37184SOL    HW213450  14.074   1.608   7.776
37185SOL     OW13451  12.016   6.779  10.886
37185SOL    HW113452  11.981   6.780  10.797
37185SOL    HW213453  12.111   6.775  10.874
37186SOL     OW13454  13.766  11.383   6.019
37186SOL    HW113455  13.695  11.430   6.064
37186SOL    HW213456  13.797  11.444   5.952
37187SOL     OW13457   8.680  11.784  12.978
37187SOL    HW113458   8.724  11.853  13.029
37187SOL    HW213459   8.616  11.747  13.038
37188SOL     OW13460   1.755   7.042   5.980
37188SOL    HW113461   1.808   7.037   6.059
37188SOL    HW213462   1.699   7.118   5.993
37189SOL     OW13463  14.672  11.934   9.965
37189SOL    HW113464  14.612  11.872   9.925
37189SOL    HW213465  14.616  11.994  10.015
37190SOL     OW13466   1.526   8.266   3.922
37190SOL    HW113467   1.561   8.181   3.949
37190SOL    HW213468   1.585   8.330   3.961
37191SOL     OW13469  10.812   7.957  10.115
37191SOL    HW113470  10.817   7.867  10.146
37191SOL    HW213471  10.759   7.952  10.035
37192SOL     OW13472  10.552  12.069  13.436
37192SOL    HW113473  10.643  12.082  13.462
37192SOL    HW213474  10.506  12.053  13.519
37193SOL     OW13475   5.961   0.120   7.052
37193SOL    HW113476   6.010   0.102   6.972
37193SOL    HW213477   5.898   0.188   7.027
37194SOL     OW13478   6.793   5.590   1.749
37194SOL    HW113479   6.784   5.532   1.673
37194SOL    HW213480   6.871   5.558   1.794
37195SOL     OW13481   0.255   9.263   2.907
37195SOL    HW113482   0.332   9.306   2.869
37195SOL    HW213483   0.291   9.190   2.958
37196SOL     OW13484   2.090  11.303  11.567
37196SOL    HW113485   2.030  11.317  11.494
37196SOL    HW213486   2.134  11.387  11.579
37197SOL     OW13487   1.913   4.296   8.941
37197SOL    HW113488   1.996   4.344   8.950
37197SOL    HW213489   1.864   4.346   8.877
37198SOL     OW13490   5.251   3.818   3.797
37198SOL    HW113491   5.313   3.747   3.776
37198SOL    HW213492   5.298   3.872   3.861
37199SOL     OW13493  12.387  13.125   0.290
37199SOL    HW113494  12.392  13.120   0.386
37199SOL    HW213495  12.295  13.108   0.270
37200SOL     OW13496   6.042   2.157  13.579
37200SOL    HW113497   6.116   2.216  13.589
37200SOL    HW213498   6.076   2.082  13.531
37201SOL     OW13499  13.295   4.256   5.029
37201SOL    HW113500  13.206   4.259   5.064
37201SOL    HW213501  13.324   4.166   5.045
37202SOL     OW13502  12.902   9.665  10.430
37202SOL    HW113503  12.971   9.699  10.373
37202SOL    HW213504  12.821   9.693  10.388
37203SOL     OW13505   3.397   0.478   1.670
37203SOL    HW113506   3.303   0.490   1.667
37203SOL    HW213507   3.422   0.460   1.579
37204SOL     OW13508  13.689   6.182   9.731
37204SOL    HW113509  13.724   6.182   9.642
37204SOL    HW213510  13.635   6.103   9.736
37205SOL     OW13511  11.267  11.561   8.278
37205SOL    HW113512  11.340  11.499   8.275
37205SOL    HW213513  11.191  11.509   8.251
37206SOL     OW13514   6.097   9.569   6.195
37206SOL    HW113515   6.096   9.574   6.100
37206SOL    HW213516   6.179   9.523   6.216
37207SOL     OW13517  13.005   7.092  12.721
37207SOL    HW113518  13.028   7.171  12.671
37207SOL    HW213519  13.050   7.021  12.675
37208SOL     OW13520   9.305   5.683   8.588
37208SOL    HW113521   9.348   5.602   8.561
37208SOL    HW213522   9.370   5.727   8.644
37209SOL     OW13523   7.820  13.921   0.849
37209SOL    HW113524   7.812  13.903   0.943
37209SOL    HW213525   7.852  13.839   0.812
37210SOL     OW13526  13.922  13.666   7.522
37210SOL    HW113527  14.011  13.698   7.506
37210SOL    HW213528  13.931  13.571   7.524
37211SOL     OW13529  10.300   5.405   5.421
37211SOL    HW113530  10.371   5.465   5.443
37211SOL    HW213531  10.336   5.350   5.351
37212SOL     OW13532   3.631  11.933   0.609
37212SOL    HW113533   3.642  11.958   0.517
37212SOL    HW213534   3.718  11.944   0.647
37213SOL     OW13535   9.435   6.444   1.504
37213SOL    HW113536   9.500   6.511   1.483
37213SOL    HW213537   9.453   6.421   1.596
37214SOL     OW13538   2.146  11.638  14.477
37214SOL    HW113539   2.126  11.572  14.544
37214SOL    HW213540   2.195  11.591  14.410
37215SOL     OW13541  12.921   4.639  10.390
37215SOL    HW113542  12.935   4.708  10.326
37215SOL    HW213543  13.005   4.592  10.392
37216SOL     OW13544  10.228   7.166   0.352
37216SOL    HW113545  10.236   7.071   0.347
37216SOL    HW213546  10.160   7.181   0.418
37217SOL     OW13547  10.444  12.853   9.637
37217SOL    HW113548  10.536  12.876   9.619
37217SOL    HW213549  10.439  12.760   9.619
37218SOL     OW13550   3.837  10.992  12.102
37218SOL    HW113551   3.890  11.061  12.063
37218SOL    HW213552   3.814  10.934  12.029
37219SOL     OW13553  11.609  12.432  13.028
37219SOL    HW113554  11.700  12.425  13.057
37219SOL    HW213555  11.570  12.348  13.050
37220SOL     OW13556   4.321   4.251  14.865
37220SOL    HW113557   4.242   4.219  14.821
37220SOL    HW213558   4.376   4.174  14.875
37221SOL     OW13559   8.638  10.771   2.227
37221SOL    HW113560   8.627  10.681   2.257
37221SOL    HW213561   8.733  10.786   2.230
37222SOL     OW13562   4.806   4.431   9.063
37222SOL    HW113563   4.796   4.425   9.158
37222SOL    HW213564   4.776   4.346   9.030
37223SOL     OW13565  14.466   0.505   3.476
37223SOL    HW113566  14.534   0.541   3.533
37223SOL    HW213567  14.445   0.420   3.514
37224SOL     OW13568  14.582   6.298   1.329
37224SOL    HW113569  14.615   6.290   1.418
37224SOL    HW213570  14.530   6.378   1.329
37225SOL     OW13571  12.573   3.618   3.245
37225SOL    HW113572  12.623   3.673   3.186
37225SOL    HW213573  12.526   3.679   3.302
37226SOL     OW13574   8.074  12.915  12.180
37226SOL    HW113575   7.978  12.907  12.182
37226SOL    HW213576   8.105  12.844  12.236
37227SOL     OW13577   5.688   5.302  10.871
37227SOL    HW113578   5.759   5.268  10.926
37227SOL    HW213579   5.733   5.354  10.804
37228SOL     OW13580   9.574  11.953   9.677
37228SOL    HW113581   9.509  11.883   9.670
37228SOL    HW213582   9.635  11.923   9.744
37229SOL     OW13583  10.231   3.799   8.058
37229SOL    HW113584  10.307   3.762   8.013
37229SOL    HW213585  10.181   3.842   7.988
37230SOL     OW13586   2.410  11.023   3.174
37230SOL    HW113587   2.453  11.073   3.105
37230SOL    HW213588   2.468  11.030   3.249
37231SOL     OW13589   5.711  14.617   8.049
37231SOL    HW113590   5.689  14.661   7.967
37231SOL    HW213591   5.800  14.645   8.068
37232SOL     OW13592   2.636  11.735   2.841
37232SOL    HW113593   2.683  11.814   2.816
37232SOL    HW213594   2.632  11.683   2.761
37233SOL     OW13595  14.431  14.394   4.404
37233SOL    HW113596  14.517  14.414   4.440
37233SOL    HW213597  14.440  14.408   4.310
37234SOL     OW13598   4.005  10.430  11.394
37234SOL    HW113599   4.084  10.454  11.347
37234SOL    HW213600   3.935  10.477  11.348
37235SOL     OW13601  11.197   5.407   5.101
37235SOL    HW113602  11.268   5.416   5.165
37235SOL    HW213603  11.222   5.329   5.050
37236SOL     OW13604  11.133   1.833   2.226
37236SOL    HW113605  11.217   1.877   2.240
37236SOL    HW213606  11.145   1.785   2.144
37237SOL     OW13607  11.742  13.627   2.462
37237SOL    HW113608  11.799  13.648   2.388
37237SOL    HW213609  11.732  13.710   2.509
37238SOL     OW13610   3.509   3.799   3.791
37238SOL    HW113611   3.527   3.811   3.697
37238SOL    HW213612   3.511   3.704   3.803
37239SOL     OW13613   2.909   5.951   3.456
37239SOL    HW113614   2.828   6.001   3.464
37239SOL    HW213615   2.950   5.958   3.542
37240SOL     OW13616   4.068   4.837   2.671
37240SOL    HW113617   4.017   4.759   2.653
37240SOL    HW213618   4.019   4.883   2.739
37241SOL     OW13619   4.853   6.311   6.133
37241SOL    HW113620   4.835   6.383   6.072
37241SOL    HW213621   4.788   6.245   6.112
37242SOL     OW13622  13.552   1.489   4.338
37242SOL    HW113623  13.567   1.524   4.250
37242SOL    HW213624  13.471   1.530   4.366
37243SOL     OW13625  14.004   2.125  13.747
37243SOL    HW113626  14.029   2.037  13.774
37243SOL    HW213627  13.909   2.121  13.735
37244SOL     OW13628   7.973   5.991  14.691
37244SOL    HW113629   7.972   5.913  14.746
37244SOL    HW213630   7.983   5.958  14.602
37245SOL     OW13631   3.884  13.740   3.772
37245SOL    HW113632   3.979  13.727   3.769
37245SOL    HW213633   3.870  13.799   3.845
37246SOL     OW13634  12.195   5.328   2.661
37246SOL    HW113635  12.259   5.307   2.593
37246SOL    HW213636  12.231   5.405   2.705
37247SOL     OW13637   3.308   5.877   8.147
37247SOL    HW113638   3.314   5.948   8.211
37247SOL    HW213639   3.299   5.798   8.200
37248SOL     OW13640  13.550   5.504   3.693
37248SOL    HW113641  13.483   5.500   3.762
37248SOL    HW213642  13.530   5.431   3.635
37249SOL     OW13643   1.878   2.199   0.139
37249SOL    HW113644   1.801   2.145   0.152
37249SOL    HW213645   1.875   2.224   0.047
37250SOL     OW13646   1.589   3.145   2.688
37250SOL    HW113647   1.585   3.233   2.650
37250SOL    HW213648   1.664   3.104   2.645
37251SOL     OW13649   0.959   6.365  14.360
37251SOL    HW113650   0.888   6.304  14.340
37251SOL    HW213651   1.018   6.315  14.417
37252SOL     OW13652  12.513  14.823   0.745
37252SOL    HW113653  12.437  14.881   0.758
37252SOL    HW213654  12.589  14.881   0.750
37253SOL     OW13655   4.181   5.217   8.148
37253SOL    HW113656   4.098   5.260   8.165
37253SOL    HW213657   4.180   5.140   8.205
37254SOL     OW13658   9.800   8.274  12.741
37254SOL    HW113659   9.774   8.233  12.823
37254SOL    HW213660   9.821   8.202  12.683
37255SOL     OW13661   8.590   8.594   2.271
37255SOL    HW113662   8.674   8.583   2.315
37255SOL    HW213663   8.525   8.587   2.341
37256SOL     OW13664  11.554   5.250  12.544
37256SOL    HW113665  11.473   5.199  12.545
37256SOL    HW213666  11.623   5.185  12.532
37257SOL     OW13667  10.635   8.866   5.908
37257SOL    HW113668  10.604   8.798   5.848
37257SOL    HW213669  10.567   8.872   5.975
37258SOL     OW13670   1.748  12.127  12.772
37258SOL    HW113671   1.664  12.098  12.737
37258SOL    HW213672   1.726  12.202  12.828
37259SOL     OW13673   1.655   1.709   3.817
37259SOL    HW113674   1.746   1.733   3.799
37259SOL    HW213675   1.637   1.744   3.904
37260SOL     OW13676  12.004   3.079   1.309
37260SOL    HW113677  12.083   3.104   1.358
37260SOL    HW213678  12.007   3.132   1.229
37261SOL     OW13679  10.543  14.793   0.640
37261SOL    HW113680  10.510  14.726   0.579
37261SOL    HW213681  10.633  14.808   0.612
37262SOL     OW13682  12.684   0.468   1.976
37262SOL    HW113683  12.769   0.512   1.990
37262SOL    HW213684  12.641   0.521   1.909
37263SOL     OW13685  11.224   1.881   5.972
37263SOL    HW113686  11.142   1.909   5.930
37263SOL    HW213687  11.212   1.788   5.989
37264SOL     OW13688  14.396  10.207   9.046
37264SOL    HW113689  14.351  10.282   9.007
37264SOL    HW213690  14.423  10.154   8.971
37265SOL     OW13691   3.384   9.089   5.664
37265SOL    HW113692   3.332   9.041   5.599
37265SOL    HW213693   3.470   9.099   5.623
37266SOL     OW13694   7.906   7.462   5.235
37266SOL    HW113695   7.843   7.534   5.236
37266SOL    HW213696   7.977   7.494   5.179
37267SOL     OW13697   8.189  10.226   1.033
37267SOL    HW113698   8.123  10.293   1.014
37267SOL    HW213699   8.247  10.267   1.097
37268SOL     OW13700   3.662   9.229   0.359
37268SOL    HW113701   3.608   9.295   0.314
37268SOL    HW213702   3.599   9.179   0.411
37269SOL     OW13703  12.700  10.228  10.008
37269SOL    HW113704  12.640  10.191   9.944
37269SOL    HW213705  12.763  10.158  10.026
37270SOL     OW13706  12.304   0.593   8.854
37270SOL    HW113707  12.351   0.621   8.932
37270SOL    HW213708  12.214   0.579   8.884
37271SOL     OW13709   9.434   8.077   3.567
37271SOL    HW113710   9.489   8.102   3.493
37271SOL    HW213711   9.355   8.130   3.557
37272SOL     OW13712   9.007   3.803  11.567
37272SOL    HW113713   8.965   3.819  11.651
37272SOL    HW213714   9.094   3.842  11.575
37273SOL     OW13715   3.681   7.580  12.193
37273SOL    HW113716   3.620   7.654  12.201
37273SOL    HW213717   3.640   7.510  12.243
37274SOL     OW13718   2.662   3.737   9.148
37274SOL    HW113719   2.684   3.755   9.239
37274SOL    HW213720   2.570   3.760   9.140
37275SOL     OW13721   3.046   6.050   8.660
37275SOL    HW113722   3.083   5.962   8.652
37275SOL    HW213723   2.968   6.039   8.713
37276SOL     OW13724   8.818   0.031   4.845
37276SOL    HW113725   8.842   0.124   4.853
37276SOL    HW213726   8.752   0.018   4.913
37277SOL     OW13727   7.724  13.662   9.019
37277SOL    HW113728   7.743  13.636   9.109
37277SOL    HW213729   7.810  13.673   8.979
37278SOL     OW13730   9.210  11.669   0.653
37278SOL    HW113731   9.213  11.652   0.747
37278SOL    HW213732   9.287  11.624   0.618
37279SOL     OW13733   6.751   0.113   5.462
37279SOL    HW113734   6.663   0.135   5.431
37279SOL    HW213735   6.742   0.025   5.499
37280SOL     OW13736   5.178  10.671   7.473
37280SOL    HW113737   5.176  10.766   7.477
37280SOL    HW213738   5.254  10.646   7.525
37281SOL     OW13739   9.982  11.516   8.048
37281SOL    HW113740   9.928  11.454   8.098
37281SOL    HW213741  10.015  11.465   7.974
37282SOL     OW13742   1.883   9.665   1.403
37282SOL    HW113743   1.969   9.704   1.386
37282SOL    HW213744   1.822   9.738   1.389
37283SOL     OW13745   7.467  12.449   0.696
37283SOL    HW113746   7.559  12.465   0.716
37283SOL    HW213747   7.456  12.354   0.708
37284SOL     OW13748  10.024  13.357  10.393
37284SOL    HW113749  10.043  13.313  10.310
37284SOL    HW213750  10.012  13.286  10.456
37285SOL     OW13751   6.440  10.617   1.335
37285SOL    HW113752   6.533  10.604   1.354
37285SOL    HW213753   6.436  10.620   1.239
37286SOL     OW13754   0.727  10.154   8.899
37286SOL    HW113755   0.806  10.110   8.931
37286SOL    HW213756   0.665  10.083   8.882
37287SOL     OW13757  12.803  10.170  14.647
37287SOL    HW113758  12.826  10.253  14.690
37287SOL    HW213759  12.885  10.120  14.648
37288SOL     OW13760  13.063  11.099   1.501
37288SOL    HW113761  12.973  11.122   1.477
37288SOL    HW213762  13.054  11.036   1.572
37289SOL     OW13763  10.457   1.805  10.252
37289SOL    HW113764  10.367   1.829  10.228
37289SOL    HW213765  10.511   1.841  10.181
37290SOL     OW13766   6.567   6.796  12.015
37290SOL    HW113767   6.553   6.749  12.097
37290SOL    HW213768   6.595   6.884  12.042
37291SOL     OW13769  11.118   0.556  11.125
37291SOL    HW113770  11.067   0.629  11.089
37291SOL    HW213771  11.065   0.479  11.108
37292SOL     OW13772   4.142  13.623   4.992
37292SOL    HW113773   4.130  13.697   4.932
37292SOL    HW213774   4.092  13.647   5.070
37293SOL     OW13775   8.716   9.330   1.479
37293SOL    HW113776   8.705   9.241   1.446
37293SOL    HW213777   8.811   9.341   1.485
37294SOL     OW13778   6.984   5.980  13.141
37294SOL    HW113779   6.964   6.074  13.140
37294SOL    HW213780   6.906   5.939  13.178
37295SOL     OW13781   0.327   7.609   3.389
37295SOL    HW113782   0.240   7.618   3.427
37295SOL    HW213783   0.360   7.699   3.382
37296SOL     OW13784   2.733  10.891   3.815
37296SOL    HW113785   2.802  10.855   3.870
37296SOL    HW213786   2.684  10.815   3.784
37297SOL     OW13787   9.880  12.512   4.093
37297SOL    HW113788   9.965  12.471   4.076
37297SOL    HW213789   9.898  12.606   4.091
37298SOL     OW13790  13.504   2.103   9.093
37298SOL    HW113791  13.424   2.135   9.135
37298SOL    HW213792  13.490   2.009   9.082
37299SOL     OW13793   4.404   9.667   4.194
37299SOL    HW113794   4.432   9.755   4.221
37299SOL    HW213795   4.459   9.646   4.119
37300SOL     OW13796   9.158  10.990  10.867
37300SOL    HW113797   9.095  10.947  10.810
37300SOL    HW213798   9.149  10.945  10.951
37301SOL     OW13799   7.991   4.901   6.112
37301SOL    HW113800   7.963   4.860   6.193
37301SOL    HW213801   7.972   4.836   6.044
37302SOL     OW13802   0.627   6.460   4.779
37302SOL    HW113803   0.536   6.462   4.811
37302SOL    HW213804   0.632   6.380   4.728
37303SOL     OW13805   6.983  12.073   5.681
37303SOL    HW113806   6.934  12.073   5.763
37303SOL    HW213807   7.011  11.982   5.670
37304SOL     OW13808  12.830   9.062   8.931
37304SOL    HW113809  12.799   9.085   8.843
37304SOL    HW213810  12.799   8.972   8.945
37305SOL     OW13811  14.580  13.088   1.600
37305SOL    HW113812  14.600  13.102   1.693
37305SOL    HW213813  14.651  13.132   1.553
37306SOL     OW13814   4.359   0.750  10.213
37306SOL    HW113815   4.360   0.826  10.154
37306SOL    HW213816   4.450   0.720  10.216
37307SOL     OW13817  10.566   3.915  10.309
37307SOL    HW113818  10.530   3.872  10.387
37307SOL    HW213819  10.490   3.955  10.267
37308SOL     OW13820   4.609  14.761  11.344
37308SOL    HW113821   4.595  14.670  11.319
37308SOL    HW213822   4.673  14.758  11.414
37309SOL     OW13823  13.257   7.042  10.542
37309SOL    HW113824  13.252   6.951  10.570
37309SOL    HW213825  13.345   7.051  10.506
37310SOL     OW13826   4.303  12.910   1.001
37310SOL    HW113827   4.309  12.958   1.084
37310SOL    HW213828   4.309  12.977   0.934
37311SOL     OW13829  14.019  14.548   2.174
37311SOL    HW113830  14.093  14.517   2.226
37311SOL    HW213831  14.004  14.478   2.110
37312SOL     OW13832   7.971   5.949   8.640
37312SOL    HW113833   7.928   6.034   8.647
37312SOL    HW213834   7.899   5.886   8.640
37313SOL     OW13835  13.431   1.954  13.766
37313SOL    HW113836  13.521   1.931  13.789
37313SOL    HW213837  13.428   1.947  13.671
37314SOL     OW13838   6.178  14.817  11.615
37314SOL    HW113839   6.154  14.804  11.707
37314SOL    HW213840   6.146   0.017  11.593
37315SOL     OW13841  11.432   8.314   7.983
37315SOL    HW113842  11.373   8.296   8.056
37315SOL    HW213843  11.507   8.255   7.998
37316SOL     OW13844   2.103   7.044   1.958
37316SOL    HW113845   2.032   7.103   1.983
37316SOL    HW213846   2.147   7.023   2.040
37317SOL     OW13847   4.791  10.912  11.503
37317SOL    HW113848   4.769  10.941  11.592
37317SOL    HW213849   4.886  10.902  11.504
37318SOL     OW13850  12.126   1.696  13.029
37318SOL    HW113851  12.090   1.758  13.092
37318SOL    HW213852  12.094   1.610  13.058
37319SOL     OW13853   2.903   6.617   2.485
37319SOL    HW113854   2.821   6.616   2.534
37319SOL    HW213855   2.919   6.525   2.463
37320SOL     OW13856   4.757   2.325  14.034
37320SOL    HW113857   4.671   2.308  14.074
37320SOL    HW213858   4.818   2.273  14.087
37321SOL     OW13859   6.306  11.803  14.514
37321SOL    HW113860   6.350  11.877  14.472
37321SOL    HW213861   6.234  11.842  14.562
37322SOL     OW13862   0.212   1.809  12.742
37322SOL    HW113863   0.267   1.737  12.771
37322SOL    HW213864   0.122   1.777  12.754
37323SOL     OW13865  12.101   2.288   2.500
37323SOL    HW113866  12.121   2.221   2.566
37323SOL    HW213867  12.092   2.369   2.549
37324SOL     OW13868  13.534  13.092   7.957
37324SOL    HW113869  13.629  13.091   7.943
37324SOL    HW213870  13.525  13.098   8.052
37325SOL     OW13871   0.048   4.539   0.010
37325SOL    HW113872   0.086   4.601  14.835
37325SOL    HW213873   0.043   4.456  14.850
37326SOL     OW13874   4.266   6.475   2.782
37326SOL    HW113875   4.358   6.461   2.805
37326SOL    HW213876   4.234   6.535   2.850
37327SOL     OW13877   1.943   0.751   2.015
37327SOL    HW113878   2.028   0.785   1.988
37327SOL    HW213879   1.961   0.662   2.046
37328SOL     OW13880  10.160  11.015   2.915
37328SOL    HW113881  10.116  10.931   2.930
37328SOL    HW213882  10.106  11.059   2.849
37329SOL     OW13883   1.406   1.669  12.435
37329SOL    HW113884   1.439   1.712  12.356
37329SOL    HW213885   1.377   1.740  12.491
37330SOL     OW13886   1.382   8.301   8.291
37330SOL    HW113887   1.351   8.214   8.262
37330SOL    HW213888   1.425   8.284   8.375
37331SOL     OW13889   7.064  11.431  10.095
37331SOL    HW113890   7.157  11.411  10.104
37331SOL    HW213891   7.056  11.472  10.010
37332SOL     OW13892   9.398  12.039  12.981
37332SOL    HW113893   9.467  12.095  13.018
37332SOL    HW213894   9.383  11.973  13.048
37333SOL     OW13895  14.195   7.691   0.817
37333SOL    HW113896  14.183   7.774   0.772
37333SOL    HW213897  14.160   7.706   0.905
37334SOL     OW13898   6.853   4.133   4.045
37334SOL    HW113899   6.914   4.089   3.986
37334SOL    HW213900   6.881   4.225   4.043
37335SOL     OW13901  12.258   3.426   8.221
37335SOL    HW113902  12.313   3.419   8.300
37335SOL    HW213903  12.172   3.394   8.249
37336SOL     OW13904   7.667  11.710  14.472
37336SOL    HW113905   7.638  11.684  14.559
37336SOL    HW213906   7.626  11.796  14.458
37337SOL     OW13907   5.273   6.701  14.372
37337SOL    HW113908   5.283   6.611  14.403
37337SOL    HW213909   5.335   6.707  14.299
37338SOL     OW13910  14.197   6.630   3.647
37338SOL    HW113911  14.137   6.702   3.666
37338SOL    HW213912  14.216   6.638   3.553
37339SOL     OW13913   3.261  10.062  14.714
37339SOL    HW113914   3.299  10.024  14.793
37339SOL    HW213915   3.284  10.155  14.719
37340SOL     OW13916   3.296   1.353   2.176
37340SOL    HW113917   3.386   1.386   2.182
37340SOL    HW213918   3.285   1.300   2.254
37341SOL     OW13919  13.985   5.902  12.874
37341SOL    HW113920  14.071   5.858  12.870
37341SOL    HW213921  13.953   5.883  12.962
37342SOL     OW13922   7.156   7.652   5.816
37342SOL    HW113923   7.083   7.690   5.767
37342SOL    HW213924   7.144   7.686   5.905
37343SOL     OW13925   0.471   8.376  10.937
37343SOL    HW113926   0.420   8.300  10.965
37343SOL    HW213927   0.421   8.451  10.969
37344SOL     OW13928  12.672  13.683   3.114
37344SOL    HW113929  12.668  13.771   3.077
37344SOL    HW213930  12.749  13.643   3.074
37345SOL     OW13931   4.239   5.818   0.844
37345SOL    HW113932   4.291   5.895   0.822
37345SOL    HW213933   4.217   5.829   0.937
37346SOL     OW13934   8.745   7.796   1.720
37346SOL    HW113935   8.669   7.847   1.746
37346SOL    HW213936   8.726   7.767   1.631
37347SOL     OW13937  13.527  10.248   4.272
37347SOL    HW113938  13.484  10.166   4.298
37347SOL    HW213939  13.565  10.281   4.353
37348SOL     OW13940  11.492   9.418   3.415
37348SOL    HW113941  11.408   9.404   3.372
37348SOL    HW213942  11.528   9.496   3.373
37349SOL     OW13943   0.823   1.565  11.851
37349SOL    HW113944   0.737   1.533  11.825
37349SOL    HW213945   0.833   1.535  11.942
37350SOL     OW13946  10.911  13.191   9.402
37350SOL    HW113947  10.865  13.141   9.334
37350SOL    HW213948  10.928  13.127   9.471
37351SOL     OW13949  13.882   0.060  10.309
37351SOL    HW113950  13.904   0.153  10.315
37351SOL    HW213951  13.941   0.026  10.242
37352SOL     OW13952   8.213   5.477  13.638
37352SOL    HW113953   8.117   5.480  13.645
37352SOL    HW213954   8.229   5.467  13.544
37353SOL     OW13955   0.707   3.899  10.303
37353SOL    HW113956   0.678   3.807  10.304
37353SOL    HW213957   0.780   3.900  10.240
37354SOL     OW13958  13.466   0.780  11.254
37354SOL    HW113959  13.389   0.724  11.263
37354SOL    HW213960  13.497   0.793  11.344
37355SOL     OW13961   3.669   6.062  11.395
37355SOL    HW113962   3.604   6.091  11.458
37355SOL    HW213963   3.618   6.029  11.321
37356SOL     OW13964   1.904   4.424   0.280
37356SOL    HW113965   1.877   4.367   0.208
37356SOL    HW213966   1.845   4.499   0.274
37357SOL     OW13967   0.425  14.400   4.533
37357SOL    HW113968   0.429  14.328   4.596
37357SOL    HW213969   0.393  14.475   4.583
37358SOL     OW13970   0.639   8.852   5.972
37358SOL    HW113971   0.711   8.820   5.918
37358SOL    HW213972   0.661   8.944   5.989
37359SOL     OW13973   3.126   8.758   1.897
37359SOL    HW113974   3.179   8.753   1.977
37359SOL    HW213975   3.140   8.846   1.864
37360SOL     OW13976  11.580   3.110   2.416
37360SOL    HW113977  11.538   3.051   2.478
37360SOL    HW213978  11.642   3.161   2.468
37361SOL     OW13979   3.229   2.741   0.924
37361SOL    HW113980   3.286   2.676   0.964
37361SOL    HW213981   3.245   2.821   0.974
37362SOL     OW13982   7.291   9.076   5.660
37362SOL    HW113983   7.301   9.024   5.580
37362SOL    HW213984   7.328   9.161   5.638
37363SOL     OW13985  13.592   8.587   7.643
37363SOL    HW113986  13.676   8.542   7.654
37363SOL    HW213987  13.533   8.519   7.611
37364SOL     OW13988  12.903   3.184   7.583
37364SOL    HW113989  12.968   3.226   7.526
37364SOL    HW213990  12.819   3.211   7.547
37365SOL     OW13991  12.809   3.706   2.963
37365SOL    HW113992  12.836   3.789   3.002
37365SOL    HW213993  12.750   3.732   2.892
37366SOL     OW13994   3.764   2.588   8.214
37366SOL    HW113995   3.730   2.538   8.289
37366SOL    HW213996   3.685   2.617   8.167
37367SOL     OW13997  10.387  10.286  13.309
37367SOL    HW113998  10.358  10.198  13.287
37367SOL    HW213999  10.455  10.273  13.375
37368SOL     OW14000   3.369   6.243   1.311
37368SOL    HW114001   3.381   6.335   1.288
37368SOL    HW214002   3.428   6.229   1.385
37369SOL     OW14003  14.279   8.164  13.135
37369SOL    HW114004  14.282   8.172  13.230
37369SOL    HW214005  14.186   8.153  13.115
37370SOL     OW14006   3.333   5.985   6.603
37370SOL    HW114007   3.352   5.967   6.695
37370SOL    HW214008   3.415   5.966   6.557
37371SOL     OW14009   4.659   3.748   2.110
37371SOL    HW114010   4.728   3.683   2.094
37371SOL    HW214011   4.705   3.831   2.116
37372SOL     OW14012  12.777  12.505  14.116
37372SOL    HW114013  12.776  12.409  14.110
37372SOL    HW214014  12.784  12.523  14.210
37373SOL     OW14015  11.202   4.364  13.467
37373SOL    HW114016  11.183   4.433  13.404
37373SOL    HW214017  11.279   4.394  13.514
37374SOL     OW14018   1.803  10.241   5.883
37374SOL    HW114019   1.799  10.240   5.787
37374SOL    HW214020   1.724  10.288   5.910
37375SOL     OW14021   2.847  11.641   9.006
37375SOL    HW114022   2.908  11.712   9.028
37375SOL    HW214023   2.842  11.588   9.085
37376SOL     OW14024  14.814  11.871   9.651
37376SOL    HW114025  14.854  11.847   9.735
37376SOL    HW214026  14.831  11.796   9.594
37377SOL     OW14027   7.179  11.398   5.762
37377SOL    HW114028   7.197  11.491   5.754
37377SOL    HW214029   7.185  11.380   5.856
37378SOL     OW14030  11.312  11.993   4.133
37378SOL    HW114031  11.321  11.907   4.091
37378SOL    HW214032  11.236  12.032   4.090
37379SOL     OW14033   6.900   9.806   2.375
37379SOL    HW114034   6.959   9.858   2.319
37379SOL    HW214035   6.840   9.764   2.314
37380SOL     OW14036   5.300   6.855   5.765
37380SOL    HW114037   5.334   6.940   5.736
37380SOL    HW214038   5.356   6.832   5.840
37381SOL     OW14039   7.691  13.578   6.042
37381SOL    HW114040   7.743  13.510   5.998
37381SOL    HW214041   7.622  13.600   5.980
37382SOL     OW14042   6.166  14.306   0.318
37382SOL    HW114043   6.241  14.272   0.269
37382SOL    HW214044   6.093  14.303   0.256
37383SOL     OW14045  11.304   0.817   1.893
37383SOL    HW114046  11.358   0.896   1.888
37383SOL    HW214047  11.307   0.791   1.985
37384SOL     OW14048  14.771   7.358   9.989
37384SOL    HW114049  14.817   7.326  10.066
37384SOL    HW214050  14.737   7.444  10.016
37385SOL     OW14051   9.404   0.900  14.128
37385SOL    HW114052   9.439   0.988  14.144
37385SOL    HW214053   9.468   0.860  14.068
37386SOL     OW14054   4.673   6.446   9.051
37386SOL    HW114055   4.633   6.383   9.110
37386SOL    HW214056   4.763   6.457   9.084
37387SOL     OW14057  14.844  13.399  13.601
37387SOL    HW114058  14.807  13.322  13.558
37387SOL    HW214059   0.051  13.389  13.589
37388SOL     OW14060   5.022   1.984   7.003
37388SOL    HW114061   5.022   2.026   6.917
37388SOL    HW214062   5.078   1.907   6.992
37389SOL     OW14063  13.263   2.279   1.910
37389SOL    HW114064  13.240   2.347   1.846
37389SOL    HW214065  13.345   2.242   1.877
37390SOL     OW14066   8.041  10.106  11.298
37390SOL    HW114067   8.080  10.020  11.314
37390SOL    HW214068   8.049  10.119  11.203
37391SOL     OW14069   1.466  10.081   5.032
37391SOL    HW114070   1.516  10.083   4.951
37391SOL    HW214071   1.493  10.160   5.079
37392SOL     OW14072   1.427  11.251  12.423
37392SOL    HW114073   1.494  11.221  12.485
37392SOL    HW214074   1.415  11.344  12.443
37393SOL     OW14075  12.074   7.529  12.294
37393SOL    HW114076  12.063   7.623  12.305
37393SOL    HW214077  12.098   7.518  12.202
37394SOL     OW14078   6.045   4.342   4.153
37394SOL    HW114079   6.069   4.429   4.185
37394SOL    HW214080   6.117   4.317   4.095
37395SOL     OW14081   5.052  11.169  10.780
37395SOL    HW114082   5.021  11.139  10.865
37395SOL    HW214083   5.057  11.264  10.788
37396SOL     OW14084   7.923   0.704   7.916
37396SOL    HW114085   7.988   0.644   7.952
37396SOL    HW214086   7.971   0.785   7.900
37397SOL     OW14087   6.143  10.937   0.587
37397SOL    HW114088   6.168  10.907   0.674
37397SOL    HW214089   6.204  10.893   0.527
37398SOL     OW14090   7.581  10.020   3.415
37398SOL    HW114091   7.508  10.016   3.476
37398SOL    HW214092   7.659  10.001   3.468
37399SOL     OW14093   2.753   0.093   0.997
37399SOL    HW114094   2.713   0.015   1.036
37399SOL    HW214095   2.679   0.143   0.963
37400SOL     OW14096   1.071   8.966  14.559
37400SOL    HW114097   1.001   8.936  14.501
37400SOL    HW214098   1.087   9.056  14.531
37401SOL     OW14099  10.751   4.442  12.283
37401SOL    HW114100  10.770   4.400  12.367
37401SOL    HW214101  10.832   4.432  12.233
37402SOL     OW14102   1.499   9.314   6.808
37402SOL    HW114103   1.461   9.379   6.749
37402SOL    HW214104   1.577   9.284   6.762
37403SOL     OW14105   8.919   3.388  14.584
37403SOL    HW114106   8.952   3.428  14.504
37403SOL    HW214107   8.833   3.353  14.561
37404SOL     OW14108   1.744   7.986  11.621
37404SOL    HW114109   1.679   8.054  11.608
37404SOL    HW214110   1.808   8.000  11.552
37405SOL     OW14111   6.664   4.227   7.786
37405SOL    HW114112   6.693   4.304   7.836
37405SOL    HW214113   6.742   4.199   7.739
37406SOL     OW14114   9.557   7.391   1.636
37406SOL    HW114115   9.539   7.458   1.570
37406SOL    HW214116   9.528   7.430   1.719
37407SOL     OW14117   5.711  12.424   5.991
37407SOL    HW114118   5.730  12.390   5.904
37407SOL    HW214119   5.740  12.515   5.988
37408SOL     OW14120   9.441  11.371   7.381
37408SOL    HW114121   9.387  11.357   7.304
37408SOL    HW214122   9.385  11.343   7.454
37409SOL     OW14123   8.465  10.801   6.948
37409SOL    HW114124   8.391  10.781   7.005
37409SOL    HW214125   8.426  10.842   6.871
37410SOL     OW14126   4.201   4.240   2.673
37410SOL    HW114127   4.116   4.222   2.712
37410SOL    HW214128   4.214   4.334   2.685
37411SOL     OW14129   7.329   3.385  10.660
37411SOL    HW114130   7.304   3.305  10.706
37411SOL    HW214131   7.381   3.354  10.585
37412SOL     OW14132   6.859  12.748   7.707
37412SOL    HW114133   6.799  12.814   7.740
37412SOL    HW214134   6.906  12.717   7.785
37413SOL     OW14135   9.259   4.902   8.782
37413SOL    HW114136   9.249   4.990   8.748
37413SOL    HW214137   9.226   4.845   8.713
37414SOL     OW14138   9.419  14.671   8.664
37414SOL    HW114139   9.430  14.694   8.756
37414SOL    HW214140   9.364  14.592   8.665
37415SOL     OW14141   9.453  13.546   2.923
37415SOL    HW114142   9.467  13.456   2.896
37415SOL    HW214143   9.379  13.542   2.984
37416SOL     OW14144   0.667   3.285   4.090
37416SOL    HW114145   0.592   3.345   4.091
37416SOL    HW214146   0.726   3.322   4.025
37417SOL     OW14147   3.153   4.059   1.553
37417SOL    HW114148   3.073   4.014   1.526
37417SOL    HW214149   3.183   4.103   1.474
37418SOL     OW14150   4.772   9.419  10.003
37418SOL    HW114151   4.782   9.504  10.046
37418SOL    HW214152   4.737   9.362  10.071
37419SOL     OW14153   9.002   7.871  11.325
37419SOL    HW114154   9.022   7.887  11.417
37419SOL    HW214155   8.930   7.931  11.305
37420SOL     OW14156   0.367   5.562   8.275
37420SOL    HW114157   0.427   5.561   8.201
37420SOL    HW214158   0.388   5.643   8.322
37421SOL     OW14159   9.541   4.106  10.356
37421SOL    HW114160   9.462   4.067  10.393
37421SOL    HW214161   9.552   4.063  10.271
37422SOL     OW14162  12.193  13.407   8.061
37422SOL    HW114163  12.132  13.352   8.109
37422SOL    HW214164  12.143  13.439   7.986
37423SOL     OW14165   9.926   5.877  11.415
37423SOL    HW114166   9.900   5.900  11.504
37423SOL    HW214167   9.988   5.805  11.425
37424SOL     OW14168   3.391   7.796   3.040
37424SOL    HW114169   3.465   7.738   3.021
37424SOL    HW214170   3.314   7.741   3.025
37425SOL     OW14171  14.282   8.375   9.698
37425SOL    HW114172  14.323   8.450   9.742
37425SOL    HW214173  14.201   8.410   9.662
37426SOL     OW14174  10.389  10.411  11.037
37426SOL    HW114175  10.376  10.376  11.126
37426SOL    HW214176  10.303  10.447  11.013
37427SOL     OW14177  14.061  10.966  11.815
37427SOL    HW114178  14.034  11.015  11.737
37427SOL    HW214179  14.108  11.030  11.868
37428SOL     OW14180   6.951   1.648   2.927
37428SOL    HW114181   6.875   1.610   2.971
37428SOL    HW214182   7.019   1.581   2.934
37429SOL     OW14183   7.775  12.256   5.427
37429SOL    HW114184   7.811  12.260   5.339
37429SOL    HW214185   7.769  12.163   5.447
37430SOL     OW14186  11.585   4.310   7.865
37430SOL    HW114187  11.637   4.285   7.789
37430SOL    HW214188  11.636   4.280   7.940
37431SOL     OW14189   0.124   8.045   7.953
37431SOL    HW114190   0.106   8.023   8.044
37431SOL    HW214191   0.184   8.120   7.958
37432SOL     OW14192   0.416   2.002   9.299
37432SOL    HW114193   0.400   2.036   9.211
37432SOL    HW214194   0.341   2.033   9.350
37433SOL     OW14195  11.995   4.366   2.898
37433SOL    HW114196  12.067   4.335   2.844
37433SOL    HW214197  11.920   4.313   2.870
37434SOL     OW14198   0.538  12.308   6.513
37434SOL    HW114199   0.537  12.398   6.546
37434SOL    HW214200   0.503  12.256   6.585
37435SOL     OW14201   1.976   6.303  14.056
37435SOL    HW114202   1.886   6.306  14.090
37435SOL    HW214203   2.011   6.391  14.072
37436SOL     OW14204   0.081   3.216  11.372
37436SOL    HW114205   0.130   3.297  11.356
37436SOL    HW214206   0.003   3.224  11.318
37437SOL     OW14207  14.560   8.988  11.346
37437SOL    HW114208  14.565   8.897  11.316
37437SOL    HW214209  14.542   8.982  11.440
37438SOL     OW14210  13.134   9.687  14.571
37438SOL    HW114211  13.152   9.762  14.514
37438SOL    HW214212  13.190   9.702  14.648
37439SOL     OW14213   7.811   4.165  12.656
37439SOL    HW114214   7.860   4.084  12.669
37439SOL    HW214215   7.748   4.166  12.728
37440SOL     OW14216  12.094   0.635  13.421
37440SOL    HW114217  12.097   0.540  13.429
37440SOL    HW214218  12.159   0.655  13.353
37441SOL     OW14219   5.604   2.437  13.175
37441SOL    HW114220   5.615   2.414  13.083
37441SOL    HW214221   5.513   2.412  13.195
37442SOL     OW14222   3.296  11.826   0.159
37442SOL    HW114223   3.260  11.741   0.136
37442SOL    HW214224   3.389  11.809   0.174
37443SOL     OW14225   7.334   5.357   9.011
37443SOL    HW114226   7.287   5.273   9.011
37443SOL    HW214227   7.364   5.367   8.921
37444SOL     OW14228   5.341   7.786   7.678
37444SOL    HW114229   5.342   7.703   7.725
37444SOL    HW214230   5.428   7.823   7.692
37445SOL     OW14231   9.683  10.125  10.448
37445SOL    HW114232   9.678  10.141  10.353
37445SOL    HW214233   9.653  10.035  10.459
37446SOL     OW14234   6.382   4.350   5.865
37446SOL    HW114235   6.336   4.348   5.781
37446SOL    HW214236   6.436   4.428   5.861
37447SOL     OW14237   7.513  14.425  11.430
37447SOL    HW114238   7.443  14.441  11.494
37447SOL    HW214239   7.504  14.332  11.408
37448SOL     OW14240   8.691   9.114  10.555
37448SOL    HW114241   8.608   9.092  10.512
37448SOL    HW214242   8.725   9.030  10.587
37449SOL     OW14243  11.527   5.687   8.214
37449SOL    HW114244  11.471   5.700   8.291
37449SOL    HW214245  11.608   5.649   8.248
37450SOL     OW14246  10.895   8.086  11.569
37450SOL    HW114247  10.916   8.077  11.662
37450SOL    HW214248  10.948   8.160  11.540
37451SOL     OW14249  12.321  13.441  14.129
37451SOL    HW114250  12.356  13.352  14.134
37451SOL    HW214251  12.229  13.429  14.105
37452SOL     OW14252   2.785  14.287   9.070
37452SOL    HW114253   2.858  14.341   9.041
37452SOL    HW214254   2.754  14.329   9.150
37453SOL     OW14255   5.413   2.479  10.382
37453SOL    HW114256   5.440   2.404  10.328
37453SOL    HW214257   5.413   2.445  10.471
37454SOL     OW14258   9.893  14.578   9.024
37454SOL    HW114259   9.888  14.587   8.929
37454SOL    HW214260   9.803  14.593   9.055
37455SOL     OW14261   0.295   9.938  10.032
37455SOL    HW114262   0.245   9.884  10.092
37455SOL    HW214263   0.233   9.963   9.964
37456SOL     OW14264   5.620   8.683  11.359
37456SOL    HW114265   5.560   8.748  11.323
37456SOL    HW214266   5.567   8.633  11.422
37457SOL     OW14267   2.459   3.918   6.439
37457SOL    HW114268   2.550   3.919   6.412
37457SOL    HW214269   2.461   3.935   6.533
37458SOL     OW14270   3.770  10.129  10.192
37458SOL    HW114271   3.764  10.169  10.105
37458SOL    HW214272   3.679  10.109  10.215
37459SOL     OW14273   2.105  12.534   5.586
37459SOL    HW114274   2.197  12.562   5.586
37459SOL    HW214275   2.104  12.456   5.642
37460SOL     OW14276   0.665   6.566  12.978
37460SOL    HW114277   0.579   6.578  13.018
37460SOL    HW214278   0.683   6.649  12.934
37461SOL     OW14279  10.584   6.416   8.522
37461SOL    HW114280  10.658   6.475   8.533
37461SOL    HW214281  10.581   6.366   8.603
37462SOL     OW14282   6.214   6.031   9.926
37462SOL    HW114283   6.178   6.086   9.856
37462SOL    HW214284   6.148   6.035   9.995
37463SOL     OW14285   2.908   5.761   5.448
37463SOL    HW114286   2.970   5.728   5.514
37463SOL    HW214287   2.911   5.696   5.378
37464SOL     OW14288   8.134   1.957  10.334
37464SOL    HW114289   8.060   1.896  10.330
37464SOL    HW214290   8.158   1.972  10.242
37465SOL     OW14291   2.017  14.029   9.502
37465SOL    HW114292   2.035  14.112   9.458
37465SOL    HW214293   2.100  14.005   9.543
37466SOL     OW14294  11.107  12.935  14.823
37466SOL    HW114295  11.045  12.866  14.801
37466SOL    HW214296  11.099  12.947   0.030
37467SOL     OW14297   1.782  10.375   1.170
37467SOL    HW114298   1.703  10.394   1.221
37467SOL    HW214299   1.749  10.345   1.085
37468SOL     OW14300   6.788   1.345   6.057
37468SOL    HW114301   6.819   1.398   5.984
37468SOL    HW214302   6.734   1.277   6.015
37469SOL     OW14303   0.235   5.168   4.092
37469SOL    HW114304   0.300   5.234   4.068
37469SOL    HW214305   0.151   5.206   4.067
37470SOL     OW14306  14.282   5.784   3.681
37470SOL    HW114307  14.192   5.774   3.710
37470SOL    HW214308  14.334   5.737   3.746
37471SOL     OW14309   1.159   8.919   3.683
37471SOL    HW114310   1.183   8.855   3.751
37471SOL    HW214311   1.214   8.995   3.701
37472SOL     OW14312  10.429  14.468   5.114
37472SOL    HW114313  10.401  14.422   5.035
37472SOL    HW214314  10.393  14.417   5.186
37473SOL     OW14315  11.979   3.181   7.129
37473SOL    HW114316  11.907   3.179   7.066
37473SOL    HW214317  12.016   3.269   7.120
37474SOL     OW14318   4.120   2.300   4.130
37474SOL    HW114319   4.129   2.275   4.222
37474SOL    HW214320   4.039   2.352   4.127
37475SOL     OW14321  11.654   3.868   4.992
37475SOL    HW114322  11.622   3.958   4.987
37475SOL    HW214323  11.583   3.819   5.033
37476SOL     OW14324  11.384  12.865   0.296
37476SOL    HW114325  11.336  12.903   0.369
37476SOL    HW214326  11.412  12.779   0.329
37477SOL     OW14327   9.383   7.559   3.503
37477SOL    HW114328   9.295   7.523   3.488
37477SOL    HW214329   9.422   7.501   3.569
37478SOL     OW14330   7.775   3.271   4.261
37478SOL    HW114331   7.682   3.255   4.247
37478SOL    HW214332   7.793   3.235   4.348
37479SOL     OW14333   0.288   5.544  13.875
37479SOL    HW114334   0.287   5.456  13.913
37479SOL    HW214335   0.380   5.570  13.876
37480SOL     OW14336   9.867   3.866  12.497
37480SOL    HW114337   9.942   3.812  12.472
37480SOL    HW214338   9.824   3.816  12.567
37481SOL     OW14339   8.259   9.219  14.358
37481SOL    HW114340   8.275   9.306  14.321
37481SOL    HW214341   8.340   9.199  14.406
37482SOL     OW14342   3.566   1.952   8.028
37482SOL    HW114343   3.634   1.990   7.973
37482SOL    HW214344   3.601   1.867   8.054
37483SOL     OW14345  14.826   8.141  12.041
37483SOL    HW114346  14.798   8.071  12.101
37483SOL    HW214347  14.845   8.096  11.959
37484SOL     OW14348  12.050   6.859   2.086
37484SOL    HW114349  12.088   6.921   2.148
37484SOL    HW214350  11.998   6.799   2.140
37485SOL     OW14351   7.208   5.311   3.332
37485SOL    HW114352   7.184   5.338   3.243
37485SOL    HW214353   7.193   5.388   3.386
37486SOL     OW14354   5.250   7.897   6.482
37486SOL    HW114355   5.328   7.891   6.537
37486SOL    HW214356   5.198   7.820   6.505
37487SOL     OW14357  13.874   5.003  13.007
37487SOL    HW114358  13.824   5.017  12.926
37487SOL    HW214359  13.908   5.090  13.029
37488SOL     OW14360  12.992   4.915   8.167
37488SOL    HW114361  13.019   4.838   8.217
37488SOL    HW214362  12.916   4.949   8.216
37489SOL     OW14363  10.658   7.328  14.045
37489SOL    HW114364  10.676   7.338  13.951
37489SOL    HW214365  10.718   7.258  14.073
37490SOL     OW14366   3.477  12.651   4.506
37490SOL    HW114367   3.458  12.612   4.591
37490SOL    HW214368   3.527  12.730   4.525
37491SOL     OW14369   5.261  14.761   0.073
37491SOL    HW114370   5.213  14.689   0.114
37491SOL    HW214371   5.195  14.811   0.026
37492SOL     OW14372  11.525   1.112  10.311
37492SOL    HW114373  11.456   1.104  10.377
37492SOL    HW214374  11.552   1.022  10.295
37493SOL     OW14375  12.580  13.967  11.822
37493SOL    HW114376  12.488  13.979  11.845
37493SOL    HW214377  12.622  14.048  11.850
37494SOL     OW14378  14.693   6.828   4.258
37494SOL    HW114379  14.612   6.878   4.271
37494SOL    HW214380  14.665   6.737   4.267
37495SOL     OW14381   5.374  11.311  10.972
37495SOL    HW114382   5.288  11.342  10.943
37495SOL    HW214383   5.364  11.217  10.982
37496SOL     OW14384   3.702   9.069   7.399
37496SOL    HW114385   3.727   8.998   7.340
37496SOL    HW214386   3.685   9.027   7.483
37497SOL     OW14387   7.353  11.969   8.167
37497SOL    HW114388   7.381  12.030   8.098
37497SOL    HW214389   7.321  11.892   8.119
37498SOL     OW14390   8.572  11.408   5.195
37498SOL    HW114391   8.556  11.360   5.114
37498SOL    HW214392   8.528  11.357   5.263
37499SOL     OW14393   6.784   1.734  13.550
37499SOL    HW114394   6.818   1.746  13.639
37499SOL    HW214395   6.855   1.691  13.503
37500SOL     OW14396   9.446   3.986   4.495
37500SOL    HW114397   9.409   4.040   4.565
37500SOL    HW214398   9.489   4.048   4.437
37501SOL     OW14399   4.032  10.103   3.224
37501SOL    HW114400   3.941  10.094   3.194
37501SOL    HW214401   4.070  10.016   3.209
37502SOL     OW14402  14.375   1.363  12.191
37502SOL    HW114403  14.428   1.331  12.118
37502SOL    HW214404  14.359   1.285  12.245
37503SOL     OW14405  10.735  11.557  10.947
37503SOL    HW114406  10.740  11.465  10.973
37503SOL    HW214407  10.798  11.565  10.876
37504SOL     OW14408   0.945  14.074  11.862
37504SOL    HW114409   1.034  14.106  11.873
37504SOL    HW214410   0.933  14.069  11.767
37505SOL     OW14411   6.134   8.944   0.620
37505SOL    HW114412   6.102   9.034   0.631
37505SOL    HW214413   6.067   8.902   0.565
37506SOL     OW14414   1.620  10.840   1.380
37506SOL    HW114415   1.602  10.832   1.286
37506SOL    HW214416   1.544  10.888   1.415
37507SOL     OW14417   6.848  14.448   8.741
37507SOL    HW114418   6.886  14.360   8.752
37507SOL    HW214419   6.785  14.455   8.814
37508SOL     OW14420   1.340   5.800  14.212
37508SOL    HW114421   1.348   5.849  14.130
37508SOL    HW214422   1.272   5.846  14.261
37509SOL     OW14423   7.004  10.754   8.439
37509SOL    HW114424   7.042  10.770   8.525
37509SOL    HW214425   6.939  10.824   8.428
37510SOL     OW14426   1.274   8.265   9.871
37510SOL    HW114427   1.353   8.229   9.913
37510SOL    HW214428   1.264   8.352   9.911
37511SOL     OW14429   3.142   7.491   3.959
37511SOL    HW114430   3.231   7.459   3.944
37511SOL    HW214431   3.086   7.419   3.928
37512SOL     OW14432   1.643   3.639   6.002
37512SOL    HW114433   1.731   3.677   5.997
37512SOL    HW214434   1.625   3.632   6.095
37513SOL     OW14435  13.744   0.619   1.845
37513SOL    HW114436  13.656   0.612   1.883
37513SOL    HW214437  13.773   0.707   1.868
37514SOL     OW14438   3.404   5.558  13.099
37514SOL    HW114439   3.362   5.587  13.180
37514SOL    HW214440   3.349   5.594  13.030
37515SOL     OW14441   8.404   1.737   8.543
37515SOL    HW114442   8.350   1.737   8.622
37515SOL    HW214443   8.397   1.648   8.509
37516SOL     OW14444   8.234   1.897   0.137
37516SOL    HW114445   8.163   1.961   0.136
37516SOL    HW214446   8.314   1.948   0.125
37517SOL     OW14447   7.776   4.653   1.948
37517SOL    HW114448   7.853   4.704   1.923
37517SOL    HW214449   7.809   4.565   1.964
37518SOL     OW14450  10.132   6.778   1.189
37518SOL    HW114451  10.178   6.712   1.138
37518SOL    HW214452  10.172   6.775   1.276
37519SOL     OW14453   3.840  14.339   0.367
37519SOL    HW114454   3.777  14.282   0.412
37519SOL    HW214455   3.804  14.350   0.279
37520SOL     OW14456   5.008   0.706   7.785
37520SOL    HW114457   4.982   0.638   7.848
37520SOL    HW214458   5.094   0.735   7.815
37521SOL     OW14459   6.558  10.254   6.960
37521SOL    HW114460   6.484  10.281   7.015
37521SOL    HW214461   6.634  10.263   7.017
37522SOL     OW14462   9.605  13.855  13.462
37522SOL    HW114463   9.615  13.876  13.369
37522SOL    HW214464   9.572  13.936  13.501
37523SOL     OW14465   8.546  11.394  10.960
37523SOL    HW114466   8.638  11.400  10.933
37523SOL    HW214467   8.533  11.468  11.019
37524SOL     OW14468   2.091   6.283  14.617
37524SOL    HW114469   2.084   6.199  14.662
37524SOL    HW214470   2.179   6.282  14.578
37525SOL     OW14471   5.946   3.047   7.855
37525SOL    HW114472   6.037   3.046   7.823
37525SOL    HW214473   5.908   2.967   7.819
37526SOL     OW14474   5.137   9.487  11.059
37526SOL    HW114475   5.142   9.397  11.025
37526SOL    HW214476   5.050   9.517  11.033
37527SOL     OW14477   9.516   1.270   0.086
37527SOL    HW114478   9.567   1.202   0.130
37527SOL    HW214479   9.464   1.223   0.021
37528SOL     OW14480   1.797   7.163   9.408
37528SOL    HW114481   1.888   7.183   9.385
37528SOL    HW214482   1.790   7.068   9.399
37529SOL     OW14483   2.855  12.600   2.039
37529SOL    HW114484   2.789  12.542   2.001
37529SOL    HW214485   2.892  12.646   1.964
37530SOL     OW14486   9.367  12.493   8.393
37530SOL    HW114487   9.396  12.408   8.359
37530SOL    HW214488   9.350  12.546   8.314
37531SOL     OW14489   2.291   6.566   5.739
37531SOL    HW114490   2.293   6.525   5.825
37531SOL    HW214491   2.352   6.515   5.686
37532SOL     OW14492   2.986   8.246  13.176
37532SOL    HW114493   2.897   8.274  13.200
37532SOL    HW214494   2.977   8.210  13.088
37533SOL     OW14495   0.984   8.363   0.295
37533SOL    HW114496   0.909   8.422   0.290
37533SOL    HW214497   1.059   8.417   0.268
37534SOL     OW14498   1.420   1.470   5.549
37534SOL    HW114499   1.372   1.404   5.499
37534SOL    HW214500   1.466   1.421   5.616
37535SOL     OW14501   5.237   4.751   1.693
37535SOL    HW114502   5.208   4.805   1.767
37535SOL    HW214503   5.162   4.751   1.633
37536SOL     OW14504   9.561   0.599   3.474
37536SOL    HW114505   9.521   0.609   3.560
37536SOL    HW214506   9.639   0.546   3.490
37537SOL     OW14507   2.172  14.079   1.050
37537SOL    HW114508   2.160  13.993   1.090
37537SOL    HW214509   2.088  14.123   1.063
37538SOL     OW14510   3.183   8.415   6.059
37538SOL    HW114511   3.148   8.504   6.051
37538SOL    HW214512   3.111   8.364   6.096
37539SOL     OW14513  12.067   0.872   9.601
37539SOL    HW114514  11.978   0.898   9.623
37539SOL    HW214515  12.058   0.783   9.565
37540SOL     OW14516  12.358   8.862  12.214
37540SOL    HW114517  12.447   8.828  12.218
37540SOL    HW214518  12.306   8.788  12.181
37541SOL     OW14519  12.334   5.705  11.740
37541SOL    HW114520  12.379   5.789  11.743
37541SOL    HW214521  12.364   5.658  11.818
37542SOL     OW14522  10.550   8.176   5.649
37542SOL    HW114523  10.545   8.173   5.553
37542SOL    HW214524  10.537   8.268   5.671
37543SOL     OW14525   3.190   7.956  13.090
37543SOL    HW114526   3.183   8.045  13.055
37543SOL    HW214527   3.215   7.903  13.014
37544SOL     OW14528   6.502  13.149   2.998
37544SOL    HW114529   6.554  13.106   3.066
37544SOL    HW214530   6.552  13.134   2.917
37545SOL     OW14531   5.387   0.142   0.175
37545SOL    HW114532   5.361   0.086   0.248
37545SOL    HW214533   5.319   0.130   0.109
37546SOL     OW14534   0.013   4.009   7.547
37546SOL    HW114535   0.071   3.949   7.500
37546SOL    HW214536  14.842   3.953   7.597
37547SOL     OW14537   8.608  10.627  10.786
37547SOL    HW114538   8.652  10.711  10.776
37547SOL    HW214539   8.551  10.620  10.709
37548SOL     OW14540   4.695   5.326   2.820
37548SOL    HW114541   4.727   5.344   2.909
37548SOL    HW214542   4.614   5.277   2.833
37549SOL     OW14543   0.885   3.728  14.717
37549SOL    HW114544   0.974   3.747  14.687
37549SOL    HW214545   0.845   3.680  14.645
37550SOL     OW14546   6.810  14.389  11.858
37550SOL    HW114547   6.827  14.461  11.798
37550SOL    HW214548   6.763  14.428  11.931
37551SOL     OW14549   6.208  12.676   6.949
37551SOL    HW114550   6.273  12.643   7.010
37551SOL    HW214551   6.258  12.724   6.883
37552SOL     OW14552   9.165  11.394  14.539
37552SOL    HW114553   9.209  11.436  14.613
37552SOL    HW214554   9.203  11.306  14.536
37553SOL     OW14555   2.595   4.590   0.374
37553SOL    HW114556   2.587   4.679   0.408
37553SOL    HW214557   2.521   4.543   0.412
37554SOL     OW14558   6.241   2.662   6.275
37554SOL    HW114559   6.291   2.719   6.216
37554SOL    HW214560   6.277   2.574   6.260
37555SOL     OW14561   6.744   5.809   7.590
37555SOL    HW114562   6.669   5.850   7.634
37555SOL    HW214563   6.820   5.850   7.630
37556SOL     OW14564   1.641   2.587   2.608
37556SOL    HW114565   1.552   2.554   2.619
37556SOL    HW214566   1.681   2.579   2.694
37557SOL     OW14567   7.102   7.608   0.268
37557SOL    HW114568   7.032   7.546   0.290
37557SOL    HW214569   7.103   7.670   0.340
37558SOL     OW14570  10.178   1.959  14.481
37558SOL    HW114571  10.224   1.884  14.443
37558SOL    HW214572  10.135   2.001  14.406
37559SOL     OW14573   0.177  13.078   1.564
37559SOL    HW114574   0.122  13.018   1.513
37559SOL    HW214575   0.122  13.107   1.636
37560SOL     OW14576   6.114   3.465  14.202
37560SOL    HW114577   6.138   3.378  14.236
37560SOL    HW214578   6.020   3.460  14.186
37561SOL     OW14579  12.490   9.274   4.858
37561SOL    HW114580  12.463   9.306   4.945
37561SOL    HW214581  12.574   9.232   4.874
37562SOL     OW14582   6.657  10.293   9.400
37562SOL    HW114583   6.739  10.341   9.399
37562SOL    HW214584   6.662  10.238   9.479
37563SOL     OW14585   8.751   1.191   7.531
37563SOL    HW114586   8.682   1.155   7.476
37563SOL    HW214587   8.710   1.263   7.578
37564SOL     OW14588   7.509   4.781   9.575
37564SOL    HW114589   7.576   4.849   9.582
37564SOL    HW214590   7.466   4.799   9.491
37565SOL     OW14591   2.443  12.099   5.735
37565SOL    HW114592   2.501  12.070   5.664
37565SOL    HW214593   2.434  12.022   5.791
37566SOL     OW14594   9.873   5.512   3.830
37566SOL    HW114595   9.808   5.445   3.808
37566SOL    HW214596   9.953   5.463   3.848
37567SOL     OW14597  12.591   4.506   9.974
37567SOL    HW114598  12.612   4.517   9.881
37567SOL    HW214599  12.630   4.583  10.016
37568SOL     OW14600   2.417  12.739   4.478
37568SOL    HW114601   2.439  12.755   4.387
37568SOL    HW214602   2.502  12.731   4.522
37569SOL     OW14603   3.179  10.846   7.057
37569SOL    HW114604   3.203  10.833   7.149
37569SOL    HW214605   3.251  10.896   7.020
37570SOL     OW14606  11.973  14.126   2.081
37570SOL    HW114607  11.885  14.111   2.047
37570SOL    HW214608  11.978  14.221   2.094
37571SOL     OW14609   8.313  13.020   1.583
37571SOL    HW114610   8.366  12.943   1.564
37571SOL    HW214611   8.354  13.059   1.660
37572SOL     OW14612  11.233   8.523  10.392
37572SOL    HW114613  11.273   8.575  10.322
37572SOL    HW214614  11.175   8.584  10.437
37573SOL     OW14615  12.306   0.294   5.502
37573SOL    HW114616  12.354   0.218   5.534
37573SOL    HW214617  12.246   0.315   5.574
37574SOL     OW14618  10.125   3.743   4.711
37574SOL    HW114619  10.186   3.707   4.776
37574SOL    HW214620  10.164   3.827   4.685
37575SOL     OW14621  14.164   7.546   9.145
37575SOL    HW114622  14.106   7.570   9.072
37575SOL    HW214623  14.246   7.591   9.125
37576SOL     OW14624  13.344   1.477   1.128
37576SOL    HW114625  13.343   1.494   1.222
37576SOL    HW214626  13.413   1.413   1.115
37577SOL     OW14627   8.557   0.910   3.203
37577SOL    HW114628   8.638   0.955   3.228
37577SOL    HW214629   8.583   0.819   3.191
37578SOL     OW14630   7.097   6.384   8.196
37578SOL    HW114631   7.135   6.449   8.138
37578SOL    HW214632   7.011   6.420   8.219
37579SOL     OW14633   7.779   9.977   8.265
37579SOL    HW114634   7.727   9.927   8.202
37579SOL    HW214635   7.830   9.910   8.311
37580SOL     OW14636  12.774  10.614   4.885
37580SOL    HW114637  12.758  10.614   4.790
37580SOL    HW214638  12.781  10.706   4.908
37581SOL     OW14639   0.663   5.337   6.413
37581SOL    HW114640   0.696   5.421   6.379
37581SOL    HW214641   0.567   5.347   6.411
37582SOL     OW14642   5.786  12.152   0.922
37582SOL    HW114643   5.765  12.169   1.013
37582SOL    HW214644   5.856  12.086   0.925
37583SOL     OW14645   0.905  11.316   3.774
37583SOL    HW114646   0.928  11.230   3.739
37583SOL    HW214647   0.860  11.359   3.702
37584SOL     OW14648  13.274   3.398  14.350
37584SOL    HW114649  13.296   3.490  14.366
37584SOL    HW214650  13.354   3.361  14.311
37585SOL     OW14651   9.585   6.522   6.878
37585SOL    HW114652   9.617   6.507   6.967
37585SOL    HW214653   9.657   6.495   6.821
37586SOL     OW14654  13.090  13.992   1.355
37586SOL    HW114655  13.121  14.065   1.407
37586SOL    HW214656  13.064  14.031   1.272
37587SOL     OW14657   2.678   5.855   8.453
37587SOL    HW114658   2.701   5.778   8.401
37587SOL    HW214659   2.684   5.825   8.544
37588SOL     OW14660  11.442   0.482   2.043
37588SOL    HW114661  11.501   0.469   1.969
37588SOL    HW214662  11.365   0.430   2.021
37589SOL     OW14663   9.240   3.103   9.776
37589SOL    HW114664   9.153   3.145   9.778
37589SOL    HW214665   9.301   3.176   9.786
37590SOL     OW14666   2.959   1.781   4.162
37590SOL    HW114667   2.946   1.688   4.178
37590SOL    HW214668   3.027   1.807   4.224
37591SOL     OW14669   9.489  11.405   5.844
37591SOL    HW114670   9.537  11.362   5.774
37591SOL    HW214671   9.528  11.492   5.850
37592SOL     OW14672  14.212  11.811  14.592
37592SOL    HW114673  14.131  11.835  14.547
37592SOL    HW214674  14.184  11.763  14.669
37593SOL     OW14675   5.421  13.245   2.762
37593SOL    HW114676   5.448  13.161   2.799
37593SOL    HW214677   5.429  13.234   2.667
37594SOL     OW14678   4.865   1.283   1.766
37594SOL    HW114679   4.774   1.307   1.750
37594SOL    HW214680   4.885   1.322   1.851
37595SOL     OW14681  11.865  13.174   2.212
37595SOL    HW114682  11.797  13.238   2.235
37595SOL    HW214683  11.946  13.212   2.246
37596SOL     OW14684   8.297  12.779   2.801
37596SOL    HW114685   8.235  12.722   2.847
37596SOL    HW214686   8.246  12.855   2.774
37597SOL     OW14687   5.817   2.118   4.078
37597SOL    HW114688   5.862   2.165   4.148
37597SOL    HW214689   5.782   2.187   4.022
37598SOL     OW14690  12.425  14.349   8.775
37598SOL    HW114691  12.460  14.260   8.783
37598SOL    HW214692  12.349  14.340   8.717
37599SOL     OW14693   3.166  11.295   2.374
37599SOL    HW114694   3.211  11.345   2.306
37599SOL    HW214695   3.219  11.307   2.453
37600SOL     OW14696   2.368   6.282   8.151
37600SOL    HW114697   2.412   6.285   8.236
37600SOL    HW214698   2.410   6.350   8.099
37601SOL     OW14699   2.351  13.514   8.663
37601SOL    HW114700   2.276  13.454   8.665
37601SOL    HW214701   2.340  13.567   8.742
37602SOL     OW14702  11.414  10.552   9.122
37602SOL    HW114703  11.374  10.614   9.061
37602SOL    HW214704  11.508  10.559   9.104
37603SOL     OW14705   0.450  12.224   4.771
37603SOL    HW114706   0.471  12.271   4.851
37603SOL    HW214707   0.533  12.218   4.724
37604SOL     OW14708   4.386   2.369  12.080
37604SOL    HW114709   4.473   2.370  12.039
37604SOL    HW214710   4.378   2.456  12.120
37605SOL     OW14711  13.433   5.812  11.758
37605SOL    HW114712  13.501   5.856  11.707
37605SOL    HW214713  13.475   5.791  11.841
37606SOL     OW14714   2.554   5.039  12.067
37606SOL    HW114715   2.591   4.981  12.134
37606SOL    HW214716   2.515   4.980  12.003
37607SOL     OW14717  10.325   6.605   8.807
37607SOL    HW114718  10.330   6.673   8.740
37607SOL    HW214719  10.398   6.623   8.866
37608SOL     OW14720   7.006   7.036  12.447
37608SOL    HW114721   7.057   6.961  12.416
37608SOL    HW214722   7.037   7.050  12.536
37609SOL     OW14723   2.697   1.033  13.355
37609SOL    HW114724   2.734   1.020  13.268
37609SOL    HW214725   2.612   0.988  13.351
37610SOL     OW14726   7.206  10.554   7.248
37610SOL    HW114727   7.261  10.568   7.171
37610SOL    HW214728   7.199  10.640   7.289
37611SOL     OW14729   9.793   6.031  10.981
37611SOL    HW114730   9.747   6.115  10.978
37611SOL    HW214731   9.861   6.042  11.048
37612SOL     OW14732  11.610   3.568   0.802
37612SOL    HW114733  11.661   3.639   0.840
37612SOL    HW214734  11.556   3.536   0.874
37613SOL     OW14735   8.459   7.816   7.169
37613SOL    HW114736   8.506   7.892   7.135
37613SOL    HW214737   8.386   7.804   7.108
37614SOL     OW14738  11.533   5.129  13.276
37614SOL    HW114739  11.475   5.117  13.200
37614SOL    HW214740  11.595   5.196  13.249
37615SOL     OW14741   5.466   5.524  14.324
37615SOL    HW114742   5.498   5.587  14.258
37615SOL    HW214743   5.383   5.492  14.288
37616SOL     OW14744  13.834  10.560  10.086
37616SOL    HW114745  13.872  10.622  10.149
37616SOL    HW214746  13.909  10.510  10.054
37617SOL     OW14747   3.752   9.810   5.690
37617SOL    HW114748   3.709   9.889   5.657
37617SOL    HW214749   3.744   9.747   5.619
37618SOL     OW14750  12.729   3.023  11.136
37618SOL    HW114751  12.738   2.976  11.053
37618SOL    HW214752  12.736   2.954  11.203
37619SOL     OW14753   2.445   9.406  10.799
37619SOL    HW114754   2.356   9.412  10.766
37619SOL    HW214755   2.456   9.485  10.853
37620SOL     OW14756  13.632   8.087  14.739
37620SOL    HW114757  13.707   8.059  14.687
37620SOL    HW214758  13.635   8.183  14.735
37621SOL     OW14759   5.971  10.471  10.566
37621SOL    HW114760   5.931  10.534  10.626
37621SOL    HW214761   5.907  10.399  10.560
37622SOL     OW14762   7.292   0.846  11.582
37622SOL    HW114763   7.226   0.861  11.514
37622SOL    HW214764   7.374   0.838  11.534
37623SOL     OW14765   2.860   2.207  14.609
37623SOL    HW114766   2.838   2.213  14.516
37623SOL    HW214767   2.840   2.116  14.633
37624SOL     OW14768  13.414   5.906  10.423
37624SOL    HW114769  13.402   5.867  10.510
37624SOL    HW214770  13.367   5.989  10.428
37625SOL     OW14771   7.881   9.925   0.803
37625SOL    HW114772   7.898   9.908   0.710
37625SOL    HW214773   7.902  10.017   0.815
37626SOL     OW14774   1.954   1.998   9.418
37626SOL    HW114775   1.865   2.027   9.401
37626SOL    HW214776   1.967   2.015   9.512
37627SOL     OW14777  14.378   5.830  12.098
37627SOL    HW114778  14.304   5.889  12.116
37627SOL    HW214779  14.382   5.826  12.002
37628SOL     OW14780   4.852   3.457   4.297
37628SOL    HW114781   4.926   3.397   4.294
37628SOL    HW214782   4.883   3.532   4.348
37629SOL     OW14783   8.915   1.697  12.818
37629SOL    HW114784   8.957   1.611  12.825
37629SOL    HW214785   8.822   1.679  12.829
37630SOL     OW14786   1.969   9.188   1.239
37630SOL    HW114787   1.991   9.157   1.327
37630SOL    HW214788   1.876   9.166   1.229
37631SOL     OW14789  10.121   9.723  11.011
37631SOL    HW114790  10.190   9.764  10.959
37631SOL    HW214791  10.095   9.646  10.960
37632SOL     OW14792  10.089   3.814   2.877
37632SOL    HW114793  10.100   3.883   2.812
37632SOL    HW214794   9.994   3.802   2.883
37633SOL     OW14795  11.635   6.642   4.210
37633SOL    HW114796  11.653   6.685   4.127
37633SOL    HW214797  11.711   6.662   4.265
37634SOL     OW14798  12.017   8.656   5.056
37634SOL    HW114799  11.991   8.583   4.999
37634SOL    HW214800  11.950   8.723   5.040
37635SOL     OW14801   1.861   7.477   8.775
37635SOL    HW114802   1.880   7.396   8.823
37635SOL    HW214803   1.883   7.457   8.684
37636SOL     OW14804  10.598  14.750   7.134
37636SOL    HW114805  10.581  14.821   7.073
37636SOL    HW214806  10.533  14.762   7.204
37637SOL     OW14807  13.583  14.612   0.626
37637SOL    HW114808  13.624  14.677   0.684
37637SOL    HW214809  13.553  14.662   0.551
37638SOL     OW14810  10.414  12.520  11.015
37638SOL    HW114811  10.344  12.542  10.955
37638SOL    HW214812  10.487  12.575  10.988
37639SOL     OW14813   9.519   8.328  13.615
37639SOL    HW114814   9.577   8.252  13.609
37639SOL    HW214815   9.437   8.292  13.648
37640SOL     OW14816   6.307   2.339   6.745
37640SOL    HW114817   6.327   2.432   6.740
37640SOL    HW214818   6.211   2.336   6.753
37641SOL     OW14819  10.490  12.256  11.138
37641SOL    HW114820  10.432  12.321  11.100
37641SOL    HW214821  10.505  12.193  11.068
37642SOL     OW14822   8.531   4.100  14.262
37642SOL    HW114823   8.552   4.007  14.252
37642SOL    HW214824   8.442   4.108  14.227
37643SOL     OW14825   4.058   3.200  12.575
37643SOL    HW114826   4.049   3.264  12.645
37643SOL    HW214827   4.152   3.183  12.569
37644SOL     OW14828   4.926  12.270  11.740
37644SOL    HW114829   4.884  12.184  11.731
37644SOL    HW214830   4.999  12.255  11.801
37645SOL     OW14831   6.484   1.522   3.320
37645SOL    HW114832   6.543   1.452   3.292
37645SOL    HW214833   6.401   1.477   3.339
37646SOL     OW14834  11.064  11.881  12.853
37646SOL    HW114835  11.154  11.855  12.874
37646SOL    HW214836  11.054  11.968  12.893
37647SOL     OW14837  10.232   8.365  11.824
37647SOL    HW114838  10.160   8.409  11.778
37647SOL    HW214839  10.247   8.285  11.774
37648SOL     OW14840   6.092   0.107  11.335
37648SOL    HW114841   6.070   0.179  11.276
37648SOL    HW214842   6.088   0.144  11.422
37649SOL     OW14843   7.205   3.659   4.788
37649SOL    HW114844   7.225   3.696   4.874
37649SOL    HW214845   7.269   3.700   4.729
37650SOL     OW14846   3.978  10.235   5.943
37650SOL    HW114847   4.034  10.229   6.020
37650SOL    HW214848   3.893  10.264   5.977
37651SOL     OW14849   5.705   8.387   2.114
37651SOL    HW114850   5.683   8.375   2.207
37651SOL    HW214851   5.680   8.478   2.095
37652SOL     OW14852   9.637  14.796   3.979
37652SOL    HW114853   9.577  14.861   3.944
37652SOL    HW214854   9.657  14.739   3.904
37653SOL     OW14855   6.795   3.769  14.005
37653SOL    HW114856   6.816   3.680  14.034
37653SOL    HW214857   6.713   3.760  13.956
37654SOL     OW14858   0.321   0.349  14.341
37654SOL    HW114859   0.311   0.265  14.387
37654SOL    HW214860   0.348   0.325  14.253
37655SOL     OW14861   9.667   4.338   1.103
37655SOL    HW114862   9.611   4.302   1.172
37655SOL    HW214863   9.729   4.267   1.083
37656SOL     OW14864  14.865   0.836   1.820
37656SOL    HW114865   0.025   0.913   1.850
37656SOL    HW214866   0.031   0.800   1.750
37657SOL     OW14867   0.817   3.064  14.291
37657SOL    HW114868   0.740   3.028  14.247
37657SOL    HW214869   0.881   2.993  14.291
37658SOL     OW14870  10.454   3.008  11.770
37658SOL    HW114871  10.489   3.034  11.855
37658SOL    HW214872  10.383   2.947  11.791
37659SOL     OW14873   9.517  11.941   5.598
37659SOL    HW114874   9.445  11.903   5.648
37659SOL    HW214875   9.556  12.006   5.657
37660SOL     OW14876  10.583   8.886  13.028
37660SOL    HW114877  10.537   8.968  13.014
37660SOL    HW214878  10.567   8.864  13.119
37661SOL     OW14879  10.198   7.083   6.192
37661SOL    HW114880  10.278   7.110   6.237
37661SOL    HW214881  10.229   7.035   6.115
37662SOL     OW14882  13.588   0.499   6.519
37662SOL    HW114883  13.586   0.415   6.473
37662SOL    HW214884  13.526   0.554   6.471
37663SOL     OW14885   1.324   3.401   1.455
37663SOL    HW114886   1.292   3.311   1.462
37663SOL    HW214887   1.387   3.398   1.382
37664SOL     OW14888  13.040   4.095  11.670
37664SOL    HW114889  13.004   4.165  11.725
37664SOL    HW214890  13.133   4.095  11.689
37665SOL     OW14891  11.456   8.050   2.250
37665SOL    HW114892  11.419   8.099   2.177
37665SOL    HW214893  11.380   8.026   2.303
37666SOL     OW14894   7.296  10.402  10.928
37666SOL    HW114895   7.237  10.327  10.923
37666SOL    HW214896   7.269  10.448  11.008
37667SOL     OW14897   7.244  13.443  12.005
37667SOL    HW114898   7.162  13.419  11.961
37667SOL    HW214899   7.220  13.518  12.060
37668SOL     OW14900  10.531   5.835   9.259
37668SOL    HW114901  10.562   5.758   9.211
37668SOL    HW214902  10.567   5.825   9.347
37669SOL     OW14903  14.470   0.024   0.662
37669SOL    HW114904  14.481  14.845   0.730
37669SOL    HW214905  14.557   0.063   0.653
37670SOL     OW14906   0.119   6.696  10.500
37670SOL    HW114907   0.104   6.609  10.537
37670SOL    HW214908   0.140   6.679  10.408
37671SOL     OW14909   8.914   0.590   1.008
37671SOL    HW114910   8.923   0.495   1.007
37671SOL    HW214911   8.906   0.612   1.101
37672SOL     OW14912  10.266   7.326  14.456
37672SOL    HW114913  10.254   7.370  14.372
37672SOL    HW214914  10.182   7.337  14.501
37673SOL     OW14915   8.777   1.289  14.703
37673SOL    HW114916   8.868   1.276  14.674
37673SOL    HW214917   8.784   1.305  14.797
37674SOL     OW14918   6.679   9.336   0.613
37674SOL    HW114919   6.599   9.375   0.577
37674SOL    HW214920   6.738   9.327   0.539
37675SOL     OW14921   6.593  12.111  14.675
37675SOL    HW114922   6.687  12.107  14.692
37675SOL    HW214923   6.586  12.141  14.584
37676SOL     OW14924  11.711   9.350  13.825
37676SOL    HW114925  11.798   9.314  13.807
37676SOL    HW214926  11.653   9.307  13.762
37677SOL     OW14927   7.980   3.303   1.141
37677SOL    HW114928   7.972   3.252   1.060
37677SOL    HW214929   7.911   3.368   1.135
37678SOL     OW14930  14.453  10.283   4.774
37678SOL    HW114931  14.420  10.196   4.751
37678SOL    HW214932  14.378  10.341   4.765
37679SOL     OW14933   8.965   3.813  12.030
37679SOL    HW114934   9.036   3.860  11.988
37679SOL    HW214935   8.995   3.800  12.120
37680SOL     OW14936   2.224   5.959  11.167
37680SOL    HW114937   2.154   5.912  11.120
37680SOL    HW214938   2.300   5.902  11.158
37681SOL     OW14939  10.389   7.259   0.172
37681SOL    HW114940  10.313   7.231   0.222
37681SOL    HW214941  10.354   7.317   0.105
37682SOL     OW14942  12.430   5.480  14.522
37682SOL    HW114943  12.519   5.498  14.492
37682SOL    HW214944  12.387   5.440  14.447
37683SOL     OW14945  13.431   2.003   4.545
37683SOL    HW114946  13.354   1.987   4.600
37683SOL    HW214947  13.411   1.960   4.462
37684SOL     OW14948  13.431   3.350   9.963
37684SOL    HW114949  13.351   3.378  10.009
37684SOL    HW214950  13.453   3.266  10.004
37685SOL     OW14951   3.489  14.600  10.721
37685SOL    HW114952   3.452  14.633  10.640
37685SOL    HW214953   3.455  14.510  10.728
37686SOL     OW14954   8.693  13.740   8.286
37686SOL    HW114955   8.719  13.687   8.211
37686SOL    HW214956   8.657  13.677   8.349
37687SOL     OW14957   2.728   7.538   6.453
37687SOL    HW114958   2.724   7.630   6.425
37687SOL    HW214959   2.657   7.495   6.406
37688SOL     OW14960  12.521   0.885   4.660
37688SOL    HW114961  12.464   0.889   4.737
37688SOL    HW214962  12.463   0.905   4.586
37689SOL     OW14963   5.251   7.175   7.574
37689SOL    HW114964   5.181   7.149   7.634
37689SOL    HW214965   5.257   7.104   7.511
37690SOL     OW14966   0.897  12.994   2.740
37690SOL    HW114967   0.811  12.972   2.704
37690SOL    HW214968   0.878  13.053   2.813
37691SOL     OW14969  10.904   1.820  11.077
37691SOL    HW114970  10.946   1.906  11.084
37691SOL    HW214971  10.834   1.832  11.012
37692SOL     OW14972   4.110   7.210   0.644
37692SOL    HW114973   4.056   7.160   0.584
37692SOL    HW214974   4.158   7.271   0.587
37693SOL     OW14975   6.804   8.376  12.541
37693SOL    HW114976   6.780   8.287  12.518
37693SOL    HW214977   6.848   8.368  12.626
37694SOL     OW14978   7.482   1.508   4.149
37694SOL    HW114979   7.488   1.430   4.094
37694SOL    HW214980   7.400   1.549   4.123
37695SOL     OW14981  14.705   3.677   3.239
37695SOL    HW114982  14.654   3.717   3.309
37695SOL    HW214983  14.711   3.746   3.172
37696SOL     OW14984  13.513   8.089   1.411
37696SOL    HW114985  13.479   8.015   1.461
37696SOL    HW214986  13.448   8.159   1.423
37697SOL     OW14987  14.592   0.541   9.378
37697SOL    HW114988  14.670   0.592   9.355
37697SOL    HW214989  14.625   0.472   9.436
37698SOL     OW14990   2.893  14.476   2.789
37698SOL    HW114991   2.915  14.420   2.863
37698SOL    HW214992   2.874  14.416   2.717
37699SOL     OW14993  14.049   5.280  12.262
37699SOL    HW114994  14.094   5.317  12.338
37699SOL    HW214995  13.959   5.268  12.292
37700SOL     OW14996   5.972  14.317   3.857
37700SOL    HW114997   6.047  14.258   3.866
37700SOL    HW214998   5.897  14.259   3.845
37701SOL     OW14999  11.950  13.676   7.596
37701SOL    HW115000  11.928  13.748   7.537
37701SOL    HW215001  11.953  13.599   7.539
37702SOL     OW15002  10.270  10.049   8.846
37702SOL    HW115003  10.281   9.955   8.831
37702SOL    HW215004  10.253  10.057   8.940
37703SOL     OW15005   2.461  10.616  10.956
37703SOL    HW115006   2.414  10.676  10.898
37703SOL    HW215007   2.411  10.617  11.037
37704SOL     OW15008  13.864   7.413   5.440
37704SOL    HW115009  13.857   7.441   5.348
37704SOL    HW215010  13.917   7.334   5.436
37705SOL     OW15011   6.680   1.165   1.038
37705SOL    HW115012   6.614   1.227   1.067
37705SOL    HW215013   6.683   1.099   1.108
37706SOL     OW15014   8.439  13.367   6.254
37706SOL    HW115015   8.506  13.434   6.243
37706SOL    HW215016   8.361  13.416   6.279
37707SOL     OW15017  13.927   2.898  12.572
37707SOL    HW115018  14.011   2.939  12.593
37707SOL    HW215019  13.868   2.972  12.555
37708SOL     OW15020   7.641   9.356   1.780
37708SOL    HW115021   7.552   9.377   1.753
37708SOL    HW215022   7.694   9.430   1.749
37709SOL     OW15023   4.791  12.506   2.640
37709SOL    HW115024   4.703  12.524   2.673
37709SOL    HW215025   4.809  12.577   2.579
37710SOL     OW15026  12.371  13.659   9.770
37710SOL    HW115027  12.416  13.667   9.854
37710SOL    HW215028  12.363  13.565   9.756
37711SOL     OW15029   6.460   9.319   6.402
37711SOL    HW115030   6.519   9.389   6.428
37711SOL    HW215031   6.411   9.354   6.328
37712SOL     OW15032   3.836  11.553   4.465
37712SOL    HW115033   3.829  11.639   4.423
37712SOL    HW215034   3.769  11.500   4.420
37713SOL     OW15035   0.276   5.221   5.556
37713SOL    HW115036   0.233   5.160   5.496
37713SOL    HW215037   0.349   5.258   5.506
37714SOL     OW15038  11.899   8.651   0.360
37714SOL    HW115039  11.911   8.593   0.435
37714SOL    HW215040  11.870   8.593   0.290
37715SOL     OW15041   2.255  10.995   1.352
37715SOL    HW115042   2.232  10.941   1.276
37715SOL    HW215043   2.180  10.986   1.411
37716SOL     OW15044  11.655   7.148  11.417
37716SOL    HW115045  11.615   7.061  11.415
37716SOL    HW215046  11.723   7.141  11.484
37717SOL     OW15047  13.001   9.899   0.064
37717SOL    HW115048  12.911   9.874   0.042
37717SOL    HW215049  13.026   9.840   0.134
37718SOL     OW15050   0.270  11.394  14.865
37718SOL    HW115051   0.334  11.383  14.794
37718SOL    HW215052   0.276  11.487   0.000
37719SOL     OW15053   5.212  14.496   0.263
37719SOL    HW115054   5.214  14.411   0.306
37719SOL    HW215055   5.144  14.487   0.195
37720SOL     OW15056   6.161  14.375   4.684
37720SOL    HW115057   6.148  14.441   4.753
37720SOL    HW215058   6.256  14.365   4.678
37721SOL     OW15059   9.212  14.044   4.350
37721SOL    HW115060   9.167  14.113   4.302
37721SOL    HW215061   9.290  14.087   4.385
37722SOL     OW15062   4.724   0.548   2.080
37722SOL    HW115063   4.676   0.488   2.137
37722SOL    HW215064   4.765   0.611   2.140
37723SOL     OW15065   4.593   0.267  11.896
37723SOL    HW115066   4.516   0.278  11.953
37723SOL    HW215067   4.642   0.348  11.905
37724SOL     OW15068   3.840  12.665   6.927
37724SOL    HW115069   3.756  12.658   6.971
37724SOL    HW215070   3.863  12.758   6.932
37725SOL     OW15071   4.770   2.371   0.008
37725SOL    HW115072   4.810   2.291  14.862
37725SOL    HW215073   4.738   2.348   0.095
37726SOL     OW15074   8.853   6.373  11.278
37726SOL    HW115075   8.859   6.458  11.234
37726SOL    HW215076   8.942   6.338  11.275
37727SOL     OW15077  13.748   9.830   5.637
37727SOL    HW115078  13.712   9.798   5.719
37727SOL    HW215079  13.807   9.761   5.608
37728SOL     OW15080   1.036   4.690   5.488
37728SOL    HW115081   0.953   4.728   5.461
37728SOL    HW215082   1.011   4.613   5.541
37729SOL     OW15083   7.987   2.891   3.811
37729SOL    HW115084   7.922   2.833   3.771
37729SOL    HW215085   7.950   2.914   3.896
37730SOL     OW15086   5.464   1.249  12.114
37730SOL    HW115087   5.371   1.267  12.096
37730SOL    HW215088   5.484   1.305  12.189
37731SOL     OW15089  13.576   9.453   2.149
37731SOL    HW115090  13.549   9.541   2.177
37731SOL    HW215091  13.546   9.447   2.058
37732SOL     OW15092  12.761   9.283   0.948
37732SOL    HW115093  12.721   9.351   1.002
37732SOL    HW215094  12.688   9.229   0.917
37733SOL     OW15095   1.241   2.165   5.251
37733SOL    HW115096   1.277   2.248   5.221
37733SOL    HW215097   1.177   2.189   5.318
37734SOL     OW15098  12.454   3.457   7.861
37734SOL    HW115099  12.549   3.469   7.856
37734SOL    HW215100  12.417   3.536   7.821
37735SOL     OW15101   3.612   5.768   0.431
37735SOL    HW115102   3.562   5.802   0.357
37735SOL    HW215103   3.668   5.841   0.458
37736SOL     OW15104   3.266  13.127  14.190
37736SOL    HW115105   3.192  13.164  14.238
37736SOL    HW215106   3.264  13.172  14.105
37737SOL     OW15107   0.412  14.200   9.857
37737SOL    HW115108   0.392  14.214   9.950
37737SOL    HW215109   0.507  14.214   9.851
37738SOL     OW15110  14.611   1.373   7.963
37738SOL    HW115111  14.549   1.435   7.924
37738SOL    HW215112  14.686   1.373   7.905
37739SOL     OW15113   7.874   1.017   2.812
37739SOL    HW115114   7.935   1.053   2.876
37739SOL    HW215115   7.924   1.013   2.730
37740SOL     OW15116  12.067   0.383   4.141
37740SOL    HW115117  12.128   0.456   4.146
37740SOL    HW215118  12.122   0.305   4.149
37741SOL     OW15119   7.155  14.331  13.336
37741SOL    HW115120   7.076  14.276  13.340
37741SOL    HW215121   7.185  14.336  13.426
37742SOL     OW15122  11.787  14.260   5.272
37742SOL    HW115123  11.740  14.178   5.289
37742SOL    HW215124  11.760  14.319   5.342
37743SOL     OW15125   0.378   3.268   4.985
37743SOL    HW115126   0.306   3.234   5.038
37743SOL    HW215127   0.349   3.257   4.894
37744SOL     OW15128  12.872   5.732   3.646
37744SOL    HW115129  12.840   5.653   3.602
37744SOL    HW215130  12.965   5.734   3.627
37745SOL     OW15131   5.997  10.972  11.551
37745SOL    HW115132   5.926  11.028  11.521
37745SOL    HW215133   5.972  10.884  11.522
37746SOL     OW15134  13.905  12.864   6.390
37746SOL    HW115135  13.832  12.824   6.342
37746SOL    HW215136  13.981  12.810   6.368
37747SOL     OW15137   5.396  13.935   7.247
37747SOL    HW115138   5.434  13.988   7.176
37747SOL    HW215139   5.431  13.974   7.327
37748SOL     OW15140  13.954   9.902   3.307
37748SOL    HW115141  13.925   9.839   3.241
37748SOL    HW215142  13.924   9.865   3.390
37749SOL     OW15143  13.016  10.294   9.485
37749SOL    HW115144  12.981  10.383   9.492
37749SOL    HW215145  12.973  10.257   9.409
37750SOL     OW15146   9.377   1.217   7.173
37750SOL    HW115147   9.434   1.293   7.180
37750SOL    HW215148   9.433   1.142   7.196
37751SOL     OW15149   7.434   9.472   0.341
37751SOL    HW115150   7.502   9.483   0.275
37751SOL    HW215151   7.412   9.561   0.368
37752SOL     OW15152   6.668   9.566   2.788
37752SOL    HW115153   6.627   9.579   2.873
37752SOL    HW215154   6.705   9.652   2.766
37753SOL     OW15155   3.091   8.452   3.123
37753SOL    HW115156   3.155   8.394   3.082
37753SOL    HW215157   3.094   8.532   3.071
37754SOL     OW15158   4.595  13.404  14.844
37754SOL    HW115159   4.652  13.332  14.819
37754SOL    HW215160   4.507  13.373  14.822
37755SOL     OW15161  14.860   0.943   5.981
37755SOL    HW115162  14.813   0.872   6.024
37755SOL    HW215163  14.829   0.941   5.891
37756SOL     OW15164   3.079  10.556   4.107
37756SOL    HW115165   3.049  10.549   4.016
37756SOL    HW215166   3.062  10.470   4.144
37757SOL     OW15167   1.939   7.839   5.825
37757SOL    HW115168   1.911   7.908   5.884
37757SOL    HW215169   2.013   7.876   5.778
37758SOL     OW15170   8.552  13.251   3.889
37758SOL    HW115171   8.483  13.228   3.951
37758SOL    HW215172   8.524  13.334   3.850
37759SOL     OW15173   4.276   5.753   4.732
37759SOL    HW115174   4.323   5.681   4.690
37759SOL    HW215175   4.326   5.770   4.812
37760SOL     OW15176   5.460   2.885  10.922
37760SOL    HW115177   5.481   2.961  10.977
37760SOL    HW215178   5.424   2.922  10.842
37761SOL     OW15179   1.395  11.491   2.304
37761SOL    HW115180   1.418  11.408   2.262
37761SOL    HW215181   1.469  11.548   2.283
37762SOL     OW15182  10.706   6.032  13.081
37762SOL    HW115183  10.764   5.997  13.149
37762SOL    HW215184  10.619   5.998  13.103
37763SOL     OW15185  11.461   1.545  10.564
37763SOL    HW115186  11.451   1.453  10.591
37763SOL    HW215187  11.533   1.578  10.617
37764SOL     OW15188  14.831  10.216   5.066
37764SOL    HW115189  14.754  10.226   5.122
37764SOL    HW215190  14.835  10.297   5.016
37765SOL     OW15191  12.018   6.372  13.558
37765SOL    HW115192  12.032   6.335  13.645
37765SOL    HW215193  11.988   6.298  13.505
37766SOL     OW15194   5.387   0.707   4.185
37766SOL    HW115195   5.384   0.702   4.281
37766SOL    HW215196   5.316   0.651   4.156
37767SOL     OW15197  10.617  14.063   0.089
37767SOL    HW115198  10.659  13.981   0.114
37767SOL    HW215199  10.687  14.129   0.093
37768SOL     OW15200  14.258   8.558   1.017
37768SOL    HW115201  14.299   8.636   1.053
37768SOL    HW215202  14.198   8.591   0.950
37769SOL     OW15203   5.225   3.102   7.051
37769SOL    HW115204   5.185   3.100   7.138
37769SOL    HW215205   5.296   3.166   7.059
37770SOL     OW15206   9.704  13.507   6.160
37770SOL    HW115207   9.626  13.562   6.165
37770SOL    HW215208   9.775  13.567   6.138
37771SOL     OW15209   4.381  10.350   1.472
37771SOL    HW115210   4.311  10.332   1.410
37771SOL    HW215211   4.388  10.445   1.474
37772SOL     OW15212   9.752   8.238   4.941
37772SOL    HW115213   9.667   8.250   4.900
37772SOL    HW215214   9.733   8.197   5.025
37773SOL     OW15215   7.161   6.647  11.074
37773SOL    HW115216   7.134   6.598  10.996
37773SOL    HW215217   7.215   6.718  11.040
37774SOL     OW15218  10.926   5.030  12.270
37774SOL    HW115219  10.942   5.099  12.333
37774SOL    HW215220  10.922   4.950  12.322
37775SOL     OW15221  14.257   3.641   8.847
37775SOL    HW115222  14.300   3.726   8.851
37775SOL    HW215223  14.327   3.579   8.825
37776SOL     OW15224   6.389  11.322  10.422
37776SOL    HW115225   6.317  11.295  10.364
37776SOL    HW215226   6.453  11.361  10.362
37777SOL     OW15227   4.969   0.676  10.724
37777SOL    HW115228   4.929   0.729  10.655
37777SOL    HW215229   5.058   0.710  10.731
37778SOL     OW15230  13.864   2.254   7.139
37778SOL    HW115231  13.805   2.204   7.196
37778SOL    HW215232  13.897   2.190   7.076
37779SOL     OW15233  14.618  14.858   9.169
37779SOL    HW115234  14.596  14.839   9.260
37779SOL    HW215235  14.534  14.858   9.123
37780SOL     OW15236   9.983   6.270  12.878
37780SOL    HW115237  10.058   6.292  12.821
37780SOL    HW215238   9.969   6.349  12.930
37781SOL     OW15239   1.404   2.759   8.847
37781SOL    HW115240   1.445   2.819   8.909
37781SOL    HW215241   1.449   2.776   8.764
37782SOL     OW15242  11.958   6.192   6.329
37782SOL    HW115243  12.002   6.265   6.285
37782SOL    HW215244  11.910   6.148   6.259
37783SOL     OW15245  14.201  13.264   8.620
37783SOL    HW115246  14.261  13.337   8.607
37783SOL    HW215247  14.124  13.303   8.661
37784SOL     OW15248  10.339   9.884  12.114
37784SOL    HW115249  10.282   9.834  12.056
37784SOL    HW215250  10.394   9.936  12.055
37785SOL     OW15251   3.538  12.280   9.397
37785SOL    HW115252   3.576  12.242   9.318
37785SOL    HW215253   3.503  12.365   9.368
37786SOL     OW15254   0.698   5.284  11.458
37786SOL    HW115255   0.718   5.343  11.385
37786SOL    HW215256   0.666   5.341  11.527
37787SOL     OW15257   8.540  12.165   5.673
37787SOL    HW115258   8.560  12.197   5.585
37787SOL    HW215259   8.491  12.236   5.713
37788SOL     OW15260   8.915   6.824  14.294
37788SOL    HW115261   8.880   6.796  14.209
37788SOL    HW215262   8.838   6.842  14.348
37789SOL     OW15263   3.262   2.571   6.770
37789SOL    HW115264   3.172   2.538   6.767
37789SOL    HW215265   3.278   2.585   6.863
37790SOL     OW15266   4.877   3.635   5.499
37790SOL    HW115267   4.829   3.574   5.556
37790SOL    HW215268   4.940   3.677   5.556
37791SOL     OW15269  13.113   7.769  10.229
37791SOL    HW115270  13.120   7.682  10.268
37791SOL    HW215271  13.203   7.803  10.231
37792SOL     OW15272  10.644  12.354   2.133
37792SOL    HW115273  10.603  12.313   2.209
37792SOL    HW215274  10.694  12.284   2.091
37793SOL     OW15275   3.435  14.289   9.885
37793SOL    HW115276   3.521  14.292   9.928
37793SOL    HW215277   3.405  14.199   9.899
37794SOL     OW15278   5.383   9.367  13.360
37794SOL    HW115279   5.345   9.446  13.399
37794SOL    HW215280   5.447   9.399  13.297
37795SOL     OW15281   0.455   2.714  10.535
37795SOL    HW115282   0.434   2.662  10.612
37795SOL    HW215283   0.401   2.793  10.543
37796SOL     OW15284   8.333   6.886   6.207
37796SOL    HW115285   8.411   6.940   6.207
37796SOL    HW215286   8.260   6.947   6.196
37797SOL     OW15287   3.279   3.515  13.306
37797SOL    HW115288   3.267   3.512  13.211
37797SOL    HW215289   3.208   3.571  13.337
37798SOL     OW15290   1.850   7.518   6.336
37798SOL    HW115291   1.844   7.539   6.429
37798SOL    HW215292   1.812   7.431   6.328
37799SOL     OW15293   9.490   0.068  10.239
37799SOL    HW115294   9.576   0.108  10.248
37799SOL    HW215295   9.457   0.061  10.329
37800SOL     OW15296   6.870  11.389   1.862
37800SOL    HW115297   6.941  11.333   1.830
37800SOL    HW215298   6.914  11.456   1.914
37801SOL     OW15299   8.540  14.151   7.324
37801SOL    HW115300   8.535  14.171   7.418
37801SOL    HW215301   8.556  14.057   7.320
37802SOL     OW15302   7.753  10.718  13.213
37802SOL    HW115303   7.713  10.663  13.280
37802SOL    HW215304   7.805  10.782  13.262
37803SOL     OW15305   2.901   6.636   3.856
37803SOL    HW115306   2.825   6.580   3.871
37803SOL    HW215307   2.891   6.667   3.766
37804SOL     OW15308   4.769  12.999  14.167
37804SOL    HW115309   4.732  12.996  14.255
37804SOL    HW215310   4.703  13.043  14.114
37805SOL     OW15311   7.465   1.450   6.584
37805SOL    HW115312   7.491   1.525   6.530
37805SOL    HW215313   7.379   1.425   6.550
37806SOL     OW15314   2.563   1.071   0.518
37806SOL    HW115315   2.651   1.050   0.489
37806SOL    HW215316   2.572   1.155   0.564
37807SOL     OW15317   0.015  12.092   4.313
37807SOL    HW115318   0.098  12.055   4.342
37807SOL    HW215319  14.882  12.160   4.378
37808SOL     OW15320   4.220  10.366   3.426
37808SOL    HW115321   4.254  10.322   3.347
37808SOL    HW215322   4.125  10.364   3.415
37809SOL     OW15323   4.002   4.172   3.954
37809SOL    HW115324   3.932   4.235   3.970
37809SOL    HW215325   3.985   4.101   4.016
37810SOL     OW15326  14.333   9.369  13.909
37810SOL    HW115327  14.312   9.425  13.834
37810SOL    HW215328  14.419   9.399  13.938
37811SOL     OW15329   2.690   0.769   0.828
37811SOL    HW115330   2.615   0.828   0.833
37811SOL    HW215331   2.715   0.753   0.919
37812SOL     OW15332   3.546  12.231   7.282
37812SOL    HW115333   3.573  12.323   7.287
37812SOL    HW215334   3.625  12.182   7.305
37813SOL     OW15335   6.247  11.173  14.194
37813SOL    HW115336   6.189  11.247  14.212
37813SOL    HW215337   6.323  11.188  14.249
37814SOL     OW15338   0.352   1.725   3.076
37814SOL    HW115339   0.369   1.797   3.137
37814SOL    HW215340   0.312   1.767   3.000
37815SOL     OW15341   5.774   2.619   6.185
37815SOL    HW115342   5.712   2.561   6.230
37815SOL    HW215343   5.858   2.574   6.191
37816SOL     OW15344   0.506   0.718  14.224
37816SOL    HW115345   0.597   0.693  14.242
37816SOL    HW215346   0.512   0.804  14.183
37817SOL     OW15347   9.644   0.800  14.621
37817SOL    HW115348   9.683   0.888  14.619
37817SOL    HW215349   9.593   0.799  14.702
37818SOL     OW15350  10.917   7.735  12.554
37818SOL    HW115351  10.960   7.772  12.631
37818SOL    HW215352  10.824   7.736  12.576
37819SOL     OW15353  10.747  12.868   4.127
37819SOL    HW115354  10.732  12.879   4.033
37819SOL    HW215355  10.754  12.773   4.139
37820SOL     OW15356   6.993   2.015   1.517
37820SOL    HW115357   7.041   2.007   1.435
37820SOL    HW215358   7.061   2.030   1.583
37821SOL     OW15359   1.352   9.030   1.558
37821SOL    HW115360   1.431   9.083   1.550
37821SOL    HW215361   1.285   9.092   1.589
37822SOL     OW15362   0.378   2.695   6.475
37822SOL    HW115363   0.365   2.617   6.530
37822SOL    HW215364   0.461   2.679   6.431
37823SOL     OW15365  12.466  14.602   9.308
37823SOL    HW115366  12.559  14.579   9.308
37823SOL    HW215367  12.452  14.646   9.392
37824SOL     OW15368   0.617   8.244   5.028
37824SOL    HW115369   0.667   8.226   4.949
37824SOL    HW215370   0.558   8.315   5.004
37825SOL     OW15371   9.330   8.414  13.400
37825SOL    HW115372   9.373   8.370  13.326
37825SOL    HW215373   9.389   8.398  13.474
37826SOL     OW15374   7.943   3.403   6.047
37826SOL    HW115375   8.000   3.478   6.062
37826SOL    HW215376   7.980   3.332   6.099
37827SOL     OW15377   7.126  13.454  10.810
37827SOL    HW115378   7.117  13.484  10.719
37827SOL    HW215379   7.076  13.373  10.813
37828SOL     OW15380   6.762   3.370   6.686
37828SOL    HW115381   6.834   3.307   6.677
37828SOL    HW215382   6.798   3.452   6.650
37829SOL     OW15383  10.120   5.222   1.897
37829SOL    HW115384  10.065   5.143   1.890
37829SOL    HW215385  10.099   5.258   1.983
37830SOL     OW15386   6.544  12.342  10.325
37830SOL    HW115387   6.515  12.265  10.374
37830SOL    HW215388   6.485  12.346  10.250
37831SOL     OW15389   7.662   3.532   9.202
37831SOL    HW115390   7.617   3.581   9.133
37831SOL    HW215391   7.754   3.532   9.176
37832SOL     OW15392  13.375   3.691   7.597
37832SOL    HW115393  13.400   3.686   7.505
37832SOL    HW215394  13.279   3.688   7.597
37833SOL     OW15395   2.920   2.022   8.467
37833SOL    HW115396   2.980   1.989   8.400
37833SOL    HW215397   2.977   2.069   8.528
37834SOL     OW15398   0.238  14.195   0.876
37834SOL    HW115399   0.201  14.107   0.867
37834SOL    HW215400   0.212  14.240   0.796
37835SOL     OW15401   4.149  12.937   9.141
37835SOL    HW115402   4.153  12.967   9.232
37835SOL    HW215403   4.235  12.898   9.125
37836SOL     OW15404   3.359   2.292   4.674
37836SOL    HW115405   3.357   2.353   4.600
37836SOL    HW215406   3.302   2.219   4.647
37837SOL     OW15407   0.796  10.996   4.173
37837SOL    HW115408   0.776  10.913   4.217
37837SOL    HW215409   0.861  11.038   4.230
37838SOL     OW15410   3.839   9.447  13.526
37838SOL    HW115411   3.844   9.501  13.605
37838SOL    HW215412   3.912   9.386  13.534
37839SOL     OW15413  13.246   6.229   5.798
37839SOL    HW115414  13.324   6.282   5.783
37839SOL    HW215415  13.241   6.220   5.893
37840SOL     OW15416  12.454   7.747   3.155
37840SOL    HW115417  12.467   7.665   3.106
37840SOL    HW215418  12.408   7.720   3.235
37841SOL     OW15419   6.439   7.549   7.006
37841SOL    HW115420   6.474   7.489   7.071
37841SOL    HW215421   6.517   7.589   6.966
37842SOL     OW15422  13.971   3.989   7.359
37842SOL    HW115423  13.892   3.975   7.411
37842SOL    HW215424  13.977   3.911   7.304
37843SOL     OW15425  12.990   9.584  11.118
37843SOL    HW115426  13.034   9.635  11.050
37843SOL    HW215427  13.027   9.496  11.110
37844SOL     OW15428  11.135   4.305  11.978
37844SOL    HW115429  11.170   4.283  11.892
37844SOL    HW215430  11.169   4.392  11.997
37845SOL     OW15431  11.664   1.605  10.726
37845SOL    HW115432  11.663   1.512  10.750
37845SOL    HW215433  11.650   1.651  10.809
37846SOL     OW15434  10.254   3.425   7.981
37846SOL    HW115435  10.329   3.393   7.931
37846SOL    HW215436  10.205   3.480   7.920
37847SOL     OW15437   1.112   5.661  11.786
37847SOL    HW115438   1.105   5.566  11.793
37847SOL    HW215439   1.205   5.680  11.803
37848SOL     OW15440   7.201   2.321   2.059
37848SOL    HW115441   7.184   2.245   2.003
37848SOL    HW215442   7.220   2.284   2.145
37849SOL     OW15443  10.599   9.166  13.611
37849SOL    HW115444  10.690   9.141  13.624
37849SOL    HW215445  10.601   9.258  13.587
37850SOL     OW15446  11.366   6.998   9.718
37850SOL    HW115447  11.430   6.987   9.788
37850SOL    HW215448  11.413   7.042   9.648
37851SOL     OW15449   7.693  11.872   6.368
37851SOL    HW115450   7.610  11.878   6.414
37851SOL    HW215451   7.717  11.779   6.372
37852SOL     OW15452  10.446   0.955   8.114
37852SOL    HW115453  10.433   0.912   8.029
37852SOL    HW215454  10.379   1.023   8.116
37853SOL     OW15455   2.009   6.685   7.378
37853SOL    HW115456   1.929   6.665   7.426
37853SOL    HW215457   2.052   6.600   7.367
37854SOL     OW15458   9.651  10.592  14.661
37854SOL    HW115459   9.675  10.683  14.677
37854SOL    HW215460   9.709  10.542  14.718
37855SOL     OW15461  13.762   4.843   1.980
37855SOL    HW115462  13.811   4.797   1.911
37855SOL    HW215463  13.809   4.820   2.061
37856SOL     OW15464   0.692  10.996  12.794
37856SOL    HW115465   0.650  10.976  12.710
37856SOL    HW215466   0.620  10.998  12.857
37857SOL     OW15467  11.275   6.896  12.020
37857SOL    HW115468  11.213   6.959  11.984
37857SOL    HW215469  11.296   6.930  12.107
37858SOL     OW15470   8.598   9.449   0.168
37858SOL    HW115471   8.549   9.377   0.208
37858SOL    HW215472   8.671   9.407   0.123
37859SOL     OW15473   8.463   3.107   3.316
37859SOL    HW115474   8.399   3.156   3.368
37859SOL    HW215475   8.412   3.064   3.248
37860SOL     OW15476   9.004   7.048   6.052
37860SOL    HW115477   8.955   7.000   6.119
37860SOL    HW215478   8.989   7.140   6.072
37861SOL     OW15479   0.989  14.393   6.361
37861SOL    HW115480   0.932  14.469   6.366
37861SOL    HW215481   0.975  14.358   6.273
37862SOL     OW15482  12.120   8.663  11.466
37862SOL    HW115483  12.030   8.634  11.451
37862SOL    HW215484  12.130   8.738  11.408
37863SOL     OW15485   5.704  11.243   2.235
37863SOL    HW115486   5.668  11.265   2.149
37863SOL    HW215487   5.628  11.239   2.293
37864SOL     OW15488   7.463   7.092   6.543
37864SOL    HW115489   7.371   7.112   6.561
37864SOL    HW215490   7.510   7.129   6.618
37865SOL     OW15491   5.562  11.486  10.851
37865SOL    HW115492   5.536  11.509  10.761
37865SOL    HW215493   5.492  11.430  10.883
37866SOL     OW15494   9.552   1.453   8.497
37866SOL    HW115495   9.477   1.513   8.492
37866SOL    HW215496   9.561   1.419   8.408
37867SOL     OW15497  12.924   0.682   3.319
37867SOL    HW115498  12.843   0.731   3.299
37867SOL    HW215499  12.983   0.748   3.357
37868SOL     OW15500   1.316   6.257   3.604
37868SOL    HW115501   1.385   6.317   3.575
37868SOL    HW215502   1.354   6.213   3.680
37869SOL     OW15503   3.372  12.639   2.466
37869SOL    HW115504   3.401  12.664   2.554
37869SOL    HW215505   3.443  12.585   2.432
37870SOL     OW15506   8.453   2.566   1.227
37870SOL    HW115507   8.450   2.640   1.288
37870SOL    HW215508   8.442   2.489   1.283
37871SOL     OW15509  13.306  12.395   7.836
37871SOL    HW115510  13.214  12.415   7.817
37871SOL    HW215511  13.317  12.422   7.927
37872SOL     OW15512   7.325   7.874   3.459
37872SOL    HW115513   7.269   7.946   3.488
37872SOL    HW215514   7.367   7.842   3.539
37873SOL     OW15515  14.088   6.674   1.682
37873SOL    HW115516  14.065   6.613   1.752
37873SOL    HW215517  14.182   6.687   1.691
37874SOL     OW15518  13.645   0.568   7.512
37874SOL    HW115519  13.657   0.497   7.448
37874SOL    HW215520  13.710   0.633   7.487
37875SOL     OW15521   3.677   5.947   7.913
37875SOL    HW115522   3.608   5.981   7.856
37875SOL    HW215523   3.710   5.869   7.868
37876SOL     OW15524  11.382   6.176   3.659
37876SOL    HW115525  11.287   6.166   3.665
37876SOL    HW215526  11.417   6.115   3.723
37877SOL     OW15527   2.701   9.267  11.619
37877SOL    HW115528   2.675   9.283  11.528
37877SOL    HW215529   2.645   9.325  11.670
37878SOL     OW15530   2.770   4.844   8.261
37878SOL    HW115531   2.856   4.826   8.223
37878SOL    HW215532   2.728   4.903   8.199
37879SOL     OW15533  11.900   7.446   3.531
37879SOL    HW115534  11.818   7.397   3.535
37879SOL    HW215535  11.962   7.394   3.582
37880SOL     OW15536   8.982   0.094   4.104
37880SOL    HW115537   8.916   0.122   4.168
37880SOL    HW215538   8.934   0.041   4.040
37881SOL     OW15539   4.527   9.268  13.452
37881SOL    HW115540   4.507   9.214  13.528
37881SOL    HW215541   4.503   9.357  13.479
37882SOL     OW15542  10.585  12.963   7.275
37882SOL    HW115543  10.595  12.891   7.338
37882SOL    HW215544  10.491  12.968   7.260
37883SOL     OW15545   6.510  11.647   2.268
37883SOL    HW115546   6.519  11.574   2.329
37883SOL    HW215547   6.578  11.632   2.202
37884SOL     OW15548  12.518   0.926   5.591
37884SOL    HW115549  12.597   0.934   5.538
37884SOL    HW215550  12.514   0.834   5.616
37885SOL     OW15551  11.095   5.405   5.679
37885SOL    HW115552  11.136   5.334   5.629
37885SOL    HW215553  11.168   5.456   5.714
37886SOL     OW15554  10.703  13.670   9.187
37886SOL    HW115555  10.743  13.585   9.204
37886SOL    HW215556  10.609  13.654   9.196
37887SOL     OW15557  13.705  14.828  10.056
37887SOL    HW115558  13.649  14.848  10.131
37887SOL    HW215559  13.793  14.849  10.085
37888SOL     OW15560   8.575   4.088   2.224
37888SOL    HW115561   8.486   4.112   2.250
37888SOL    HW215562   8.590   4.005   2.268
37889SOL     OW15563  14.095  14.102   4.424
37889SOL    HW115564  14.014  14.097   4.475
37889SOL    HW215565  14.113  14.012   4.397
37890SOL     OW15566   0.788  13.715   1.685
37890SOL    HW115567   0.712  13.721   1.627
37890SOL    HW215568   0.760  13.657   1.756
37891SOL     OW15569   8.638   9.775   5.360
37891SOL    HW115570   8.662   9.865   5.340
37891SOL    HW215571   8.606   9.777   5.449
37892SOL     OW15572  11.136  13.489  13.884
37892SOL    HW115573  11.153  13.434  13.807
37892SOL    HW215574  11.058  13.450  13.924
37893SOL     OW15575  10.104   2.359   9.266
37893SOL    HW115576  10.073   2.376   9.355
37893SOL    HW215577  10.198   2.341   9.276
37894SOL     OW15578   1.343   3.990   7.164
37894SOL    HW115579   1.280   4.014   7.096
37894SOL    HW215580   1.426   4.026   7.133
37895SOL     OW15581  14.093  14.165   8.750
37895SOL    HW115582  14.116  14.213   8.829
37895SOL    HW215583  14.034  14.095   8.780
37896SOL     OW15584  10.736  12.662   7.889
37896SOL    HW115585  10.829  12.670   7.868
37896SOL    HW215586  10.696  12.632   7.808
37897SOL     OW15587   5.495  10.448   0.158
37897SOL    HW115588   5.511  10.506   0.084
37897SOL    HW215589   5.580  10.443   0.203
37898SOL     OW15590   9.139   3.564  14.376
37898SOL    HW115591   9.229   3.589  14.355
37898SOL    HW215592   9.106   3.636  14.430
37899SOL     OW15593  13.357   0.721   8.208
37899SOL    HW115594  13.442   0.677   8.207
37899SOL    HW215595  13.379   0.815   8.210
37900SOL     OW15596   5.085  12.500   5.779
37900SOL    HW115597   5.009  12.501   5.837
37900SOL    HW215598   5.081  12.415   5.735
37901SOL     OW15599  13.395  14.209  10.699
37901SOL    HW115600  13.464  14.168  10.647
37901SOL    HW215601  13.435  14.225  10.784
37902SOL     OW15602   2.632  13.664  13.219
37902SOL    HW115603   2.694  13.651  13.147
37902SOL    HW215604   2.547  13.671  13.175
37903SOL     OW15605   8.456  10.968   0.417
37903SOL    HW115606   8.490  10.902   0.357
37903SOL    HW215607   8.379  10.927   0.456
37904SOL     OW15608   9.046  12.683  10.733
37904SOL    HW115609   8.967  12.696  10.680
37904SOL    HW215610   9.029  12.601  10.780
37905SOL     OW15611  14.528   2.301   5.833
37905SOL    HW115612  14.451   2.314   5.777
37905SOL    HW215613  14.492   2.276   5.918
37906SOL     OW15614   0.984  10.409   2.200
37906SOL    HW115615   1.042  10.486   2.200
37906SOL    HW215616   0.984  10.379   2.109
37907SOL     OW15617   5.564   5.229   2.714
37907SOL    HW115618   5.584   5.293   2.645
37907SOL    HW215619   5.639   5.169   2.713
37908SOL     OW15620   8.226   3.631   9.323
37908SOL    HW115621   8.199   3.701   9.382
37908SOL    HW215622   8.311   3.602   9.356
37909SOL     OW15623   6.824  13.513  13.714
37909SOL    HW115624   6.800  13.496  13.623
37909SOL    HW215625   6.880  13.591  13.710
37910SOL     OW15626  11.822   7.330   1.249
37910SOL    HW115627  11.850   7.294   1.166
37910SOL    HW215628  11.883   7.295   1.313
37911SOL     OW15629   8.051   2.487  10.406
37911SOL    HW115630   7.992   2.522  10.339
37911SOL    HW215631   8.048   2.392  10.392
37912SOL     OW15632  11.418   0.621  12.978
37912SOL    HW115633  11.393   0.710  13.003
37912SOL    HW215634  11.493   0.600  13.034
37913SOL     OW15635   6.262   5.101  12.100
37913SOL    HW115636   6.177   5.144  12.088
37913SOL    HW215637   6.272   5.046  12.022
37914SOL     OW15638  14.786   2.773  10.718
37914SOL    HW115639  14.752   2.731  10.798
37914SOL    HW215640  14.874   2.801  10.741
37915SOL     OW15641  12.286   4.712   9.736
37915SOL    HW115642  12.249   4.748   9.655
37915SOL    HW215643  12.380   4.723   9.726
37916SOL     OW15644   8.222  12.511   3.659
37916SOL    HW115645   8.253  12.452   3.728
37916SOL    HW215646   8.131  12.529   3.682
37917SOL     OW15647   8.388  13.745  14.160
37917SOL    HW115648   8.434  13.812  14.211
37917SOL    HW215649   8.448  13.670  14.160
37918SOL     OW15650  14.821   3.635   7.305
37918SOL    HW115651  14.779   3.562   7.351
37918SOL    HW215652   0.014   3.652   7.354
37919SOL     OW15653  14.752  14.737   4.341
37919SOL    HW115654  14.782  14.674   4.275
37919SOL    HW215655  14.818  14.806   4.341
37920SOL     OW15656  13.995   3.024   1.240
37920SOL    HW115657  13.959   3.060   1.159
37920SOL    HW215658  14.024   2.936   1.217
37921SOL     OW15659   4.050   5.142  13.210
37921SOL    HW115660   4.098   5.146  13.127
37921SOL    HW215661   3.970   5.095  13.189
37922SOL     OW15662   9.626   8.894   2.012
37922SOL    HW115663   9.663   8.860   1.931
37922SOL    HW215664   9.577   8.972   1.986
37923SOL     OW15665   0.342   4.864  12.559
37923SOL    HW115666   0.323   4.782  12.514
37923SOL    HW215667   0.272   4.873  12.624
37924SOL     OW15668  12.007  14.423  11.595
37924SOL    HW115669  11.989  14.516  11.603
37924SOL    HW215670  11.942  14.391  11.531
37925SOL     OW15671  14.563  14.429   9.894
37925SOL    HW115672  14.640  14.372   9.894
37925SOL    HW215673  14.490  14.370   9.875
37926SOL     OW15674   8.294  13.764  10.230
37926SOL    HW115675   8.332  13.852  10.226
37926SOL    HW215676   8.368  13.707  10.248
37927SOL     OW15677   6.258  12.624  11.594
37927SOL    HW115678   6.241  12.596  11.504
37927SOL    HW215679   6.297  12.548  11.637
37928SOL     OW15680  14.541   5.750  12.316
37928SOL    HW115681  14.477   5.756  12.245
37928SOL    HW215682  14.502   5.801  12.387
37929SOL     OW15683  14.527   1.545   7.790
37929SOL    HW115684  14.599   1.604   7.770
37929SOL    HW215685  14.537   1.472   7.729
37930SOL     OW15686   4.421   2.156   0.500
37930SOL    HW115687   4.384   2.079   0.458
37930SOL    HW215688   4.415   2.137   0.594
37931SOL     OW15689   4.376   0.148   3.787
37931SOL    HW115690   4.419   0.147   3.873
37931SOL    HW215691   4.444   0.179   3.727
37932SOL     OW15692   0.376  14.589   9.673
37932SOL    HW115693   0.307  14.653   9.655
37932SOL    HW215694   0.369  14.526   9.601
37933SOL     OW15695  12.254   1.077   3.309
37933SOL    HW115696  12.319   1.138   3.276
37933SOL    HW215697  12.176   1.094   3.255
37934SOL     OW15698  12.947  12.359  10.506
37934SOL    HW115699  12.884  12.319  10.446
37934SOL    HW215700  13.021  12.384  10.450
37935SOL     OW15701  13.115   1.629   9.997
37935SOL    HW115702  13.070   1.552   9.962
37935SOL    HW215703  13.187   1.645   9.937
37936SOL     OW15704   8.187   6.110  14.786
37936SOL    HW115705   8.185   6.120  14.881
37936SOL    HW215706   8.106   6.065  14.765
37937SOL     OW15707   2.355  11.239   3.903
37937SOL    HW115708   2.394  11.317   3.864
37937SOL    HW215709   2.261  11.249   3.888
37938SOL     OW15710  13.404   1.796  14.018
37938SOL    HW115711  13.452   1.847  13.954
37938SOL    HW215712  13.446   1.815  14.102
37939SOL     OW15713   1.997  10.673   8.307
37939SOL    HW115714   2.039  10.636   8.230
37939SOL    HW215715   1.921  10.617   8.323
37940SOL     OW15716   0.178  10.596   2.942
37940SOL    HW115717   0.136  10.639   2.868
37940SOL    HW215718   0.106  10.572   3.001
37941SOL     OW15719  12.352  11.145   3.871
37941SOL    HW115720  12.311  11.131   3.785
37941SOL    HW215721  12.399  11.063   3.889
37942SOL     OW15722   9.022   5.380   2.383
37942SOL    HW115723   9.108   5.341   2.365
37942SOL    HW215724   8.989   5.406   2.297
37943SOL     OW15725   9.860  14.190   5.402
37943SOL    HW115726   9.889  14.116   5.350
37943SOL    HW215727   9.766  14.176   5.414
37944SOL     OW15728   3.673   0.773   5.907
37944SOL    HW115729   3.767   0.756   5.915
37944SOL    HW215730   3.662   0.864   5.935
37945SOL     OW15731  12.399   4.733   0.964
37945SOL    HW115732  12.429   4.642   0.967
37945SOL    HW215733  12.386   4.756   1.056
37946SOL     OW15734  13.094  13.416  13.016
37946SOL    HW115735  13.122  13.338  13.065
37946SOL    HW215736  12.998  13.411  13.017
37947SOL     OW15737   2.984   4.906   1.601
37947SOL    HW115738   2.978   4.990   1.557
37947SOL    HW215739   2.911   4.906   1.663
37948SOL     OW15740   5.368  11.135   5.678
37948SOL    HW115741   5.434  11.187   5.725
37948SOL    HW215742   5.318  11.092   5.747
37949SOL     OW15743   5.278   7.993   2.640
37949SOL    HW115744   5.307   7.902   2.652
37949SOL    HW215745   5.197   7.986   2.590
37950SOL     OW15746  13.655   0.845  13.533
37950SOL    HW115747  13.613   0.781  13.475
37950SOL    HW215748  13.689   0.793  13.606
37951SOL     OW15749  11.888  13.495  10.386
37951SOL    HW115750  11.883  13.504  10.291
37951SOL    HW215751  11.798  13.508  10.416
37952SOL     OW15752  13.494   6.878  10.468
37952SOL    HW115753  13.559   6.937  10.506
37952SOL    HW215754  13.501   6.893  10.373
37953SOL     OW15755   6.926   4.271   6.278
37953SOL    HW115756   7.004   4.216   6.278
37953SOL    HW215757   6.855   4.213   6.249
37954SOL     OW15758   2.675   8.549  13.699
37954SOL    HW115759   2.647   8.635  13.731
37954SOL    HW215760   2.753   8.567  13.647
37955SOL     OW15761   2.156   1.435  13.854
37955SOL    HW115762   2.245   1.408  13.876
37955SOL    HW215763   2.157   1.444  13.758
37956SOL     OW15764   9.099   5.798   2.430
37956SOL    HW115765   9.156   5.875   2.432
37956SOL    HW215766   9.053   5.800   2.513
37957SOL     OW15767   8.903   1.674   3.030
37957SOL    HW115768   8.876   1.589   2.996
37957SOL    HW215769   8.911   1.660   3.125
37958SOL     OW15770  12.029  10.257   9.930
37958SOL    HW115771  12.016  10.262   9.835
37958SOL    HW215772  12.084  10.333   9.950
37959SOL     OW15773   8.703  10.985   7.076
37959SOL    HW115774   8.717  10.913   7.014
37959SOL    HW215775   8.683  10.942   7.159
37960SOL     OW15776   0.158   3.734   6.435
37960SOL    HW115777   0.140   3.671   6.505
37960SOL    HW215778   0.253   3.731   6.423
37961SOL     OW15779   6.137   0.620   3.721
37961SOL    HW115780   6.070   0.686   3.702
37961SOL    HW215781   6.209   0.669   3.759
37962SOL     OW15782   7.171  10.143  10.933
37962SOL    HW115783   7.171  10.075  10.865
37962SOL    HW215784   7.151  10.095  11.014
37963SOL     OW15785  10.610   8.461   5.125
37963SOL    HW115786  10.646   8.381   5.088
37963SOL    HW215787  10.667   8.480   5.200
37964SOL     OW15788  14.302  10.927   4.198
37964SOL    HW115789  14.212  10.938   4.169
37964SOL    HW215790  14.331  10.846   4.157
37965SOL     OW15791  10.404   9.358  10.224
37965SOL    HW115792  10.372   9.430  10.169
37965SOL    HW215793  10.489   9.388  10.255
37966SOL     OW15794  14.263   3.699  10.851
37966SOL    HW115795  14.337   3.645  10.824
37966SOL    HW215796  14.186   3.647  10.831
37967SOL     OW15797   3.753  11.393   1.395
37967SOL    HW115798   3.726  11.485   1.401
37967SOL    HW215799   3.742  11.359   1.484
37968SOL     OW15800   5.834   3.824  10.980
37968SOL    HW115801   5.925   3.824  10.951
37968SOL    HW215802   5.797   3.744  10.942
37969SOL     OW15803   8.982   5.262   4.091
37969SOL    HW115804   8.930   5.232   4.016
37969SOL    HW215805   8.919   5.272   4.162
37970SOL     OW15806   6.727   5.753  11.393
37970SOL    HW115807   6.760   5.829  11.344
37970SOL    HW215808   6.785   5.681  11.367
37971SOL     OW15809  11.398  14.077   8.514
37971SOL    HW115810  11.475  14.063   8.569
37971SOL    HW215811  11.421  14.151   8.458
37972SOL     OW15812   7.049   1.790   7.538
37972SOL    HW115813   6.979   1.742   7.495
37972SOL    HW215814   7.088   1.728   7.599
37973SOL     OW15815   9.994  10.442   7.466
37973SOL    HW115816  10.001  10.538   7.461
37973SOL    HW215817  10.055  10.417   7.535
37974SOL     OW15818   0.550  13.557  14.323
37974SOL    HW115819   0.629  13.578  14.272
37974SOL    HW215820   0.512  13.481  14.278
37975SOL     OW15821   7.752  10.898   5.018
37975SOL    HW115822   7.806  10.827   4.984
37975SOL    HW215823   7.710  10.862   5.096
37976SOL     OW15824   2.432   7.043   8.541
37976SOL    HW115825   2.435   7.028   8.636
37976SOL    HW215826   2.445   6.957   8.502
37977SOL     OW15827   6.023   2.978   1.228
37977SOL    HW115828   6.078   3.038   1.277
37977SOL    HW215829   5.967   3.034   1.174
37978SOL     OW15830   7.796  11.133   5.416
37978SOL    HW115831   7.842  11.137   5.500
37978SOL    HW215832   7.755  11.047   5.415
37979SOL     OW15833   6.701   7.317   2.499
37979SOL    HW115834   6.703   7.279   2.412
37979SOL    HW215835   6.687   7.411   2.484
37980SOL     OW15836   8.556  13.036   9.904
37980SOL    HW115837   8.506  13.018   9.825
37980SOL    HW215838   8.622  12.967   9.907
37981SOL     OW15839  13.009   5.117   4.758
37981SOL    HW115840  13.042   5.028   4.770
37981SOL    HW215841  13.050   5.147   4.677
37982SOL     OW15842   2.721   2.328   7.569
37982SOL    HW115843   2.738   2.278   7.649
37982SOL    HW215844   2.740   2.418   7.593
37983SOL     OW15845  11.852  13.434   2.583
37983SOL    HW115846  11.802  13.501   2.536
37983SOL    HW215847  11.894  13.383   2.513
37984SOL     OW15848   8.636   4.356   4.867
37984SOL    HW115849   8.652   4.274   4.915
37984SOL    HW215850   8.660   4.425   4.929
37985SOL     OW15851   0.542   0.979   9.239
37985SOL    HW115852   0.596   1.023   9.174
37985SOL    HW215853   0.601   0.917   9.281
37986SOL     OW15854  14.725   9.177  13.428
37986SOL    HW115855  14.652   9.135  13.384
37986SOL    HW215856  14.738   9.259  13.380
37987SOL     OW15857   1.751   9.469   9.902
37987SOL    HW115858   1.687   9.535   9.931
37987SOL    HW215859   1.698   9.403   9.857
37988SOL     OW15860   7.893   9.318   6.168
37988SOL    HW115861   7.897   9.331   6.073
37988SOL    HW215862   7.961   9.253   6.186
37989SOL     OW15863  13.829   2.086   1.899
37989SOL    HW115864  13.754   2.070   1.956
37989SOL    HW215865  13.901   2.040   1.941
37990SOL     OW15866  10.630  13.875   5.369
37990SOL    HW115867  10.619  13.970   5.373
37990SOL    HW215868  10.542  13.839   5.382
37991SOL     OW15869   4.531  14.477   6.648
37991SOL    HW115870   4.474  14.485   6.725
37991SOL    HW215871   4.611  14.436   6.682
37992SOL     OW15872   9.243   4.944   2.726
37992SOL    HW115873   9.160   4.981   2.755
37992SOL    HW215874   9.220   4.858   2.691
37993SOL     OW15875   2.321   0.699  14.289
37993SOL    HW115876   2.331   0.611  14.326
37993SOL    HW215877   2.244   0.734  14.333
37994SOL     OW15878   6.416  11.951  13.530
37994SOL    HW115879   6.380  11.886  13.469
37994SOL    HW215880   6.394  11.916  13.617
37995SOL     OW15881  10.050   1.674  13.163
37995SOL    HW115882  10.096   1.597  13.132
37995SOL    HW215883   9.965   1.642  13.192
37996SOL     OW15884   6.766   4.963  11.533
37996SOL    HW115885   6.823   4.887  11.526
37996SOL    HW215886   6.716   4.948  11.613
37997SOL     OW15887   5.518   2.985  12.922
37997SOL    HW115888   5.548   3.068  12.958
37997SOL    HW215889   5.554   2.919  12.980
37998SOL     OW15890   7.611   0.359   1.577
37998SOL    HW115891   7.570   0.304   1.510
37998SOL    HW215892   7.627   0.299   1.650
37999SOL     OW15893  14.096  13.485  11.294
37999SOL    HW115894  14.108  13.580  11.302
37999SOL    HW215895  14.053  13.473  11.209
38000SOL     OW15896   6.326   3.251   1.580
38000SOL    HW115897   6.306   3.176   1.523
38000SOL    HW215898   6.334   3.213   1.667
38001SOL     OW15899   3.661   5.203  13.523
38001SOL    HW115900   3.697   5.169  13.441
38001SOL    HW215901   3.578   5.156  13.534
38002SOL     OW15902   1.812   2.621  10.467
38002SOL    HW115903   1.721   2.598  10.482
38002SOL    HW215904   1.862   2.550  10.506
38003SOL     OW15905   1.626   3.519   2.380
38003SOL    HW115906   1.674   3.602   2.380
38003SOL    HW215907   1.634   3.487   2.290
38004SOL     OW15908   6.522  10.591  13.024
38004SOL    HW115909   6.469  10.670  13.014
38004SOL    HW215910   6.609  10.622  13.046
38005SOL     OW15911  13.841  12.464   1.808
38005SOL    HW115912  13.798  12.502   1.885
38005SOL    HW215913  13.901  12.533   1.778
38006SOL     OW15914   0.409   4.130   7.587
38006SOL    HW115915   0.424   4.047   7.543
38006SOL    HW215916   0.454   4.122   7.671
38007SOL     OW15917  10.155   8.110   8.343
38007SOL    HW115918  10.202   8.044   8.395
38007SOL    HW215919  10.219   8.140   8.279
38008SOL     OW15920   8.147   8.008  12.818
38008SOL    HW115921   8.137   7.915  12.837
38008SOL    HW215922   8.163   8.012  12.724
38009SOL     OW15923  12.653   3.328   0.626
38009SOL    HW115924  12.662   3.314   0.532
38009SOL    HW215925  12.652   3.423   0.636
38010SOL     OW15926   7.378   4.117   3.800
38010SOL    HW115927   7.446   4.050   3.792
38010SOL    HW215928   7.363   4.124   3.895
38011SOL     OW15929  10.178   3.319   7.666
38011SOL    HW115930  10.129   3.250   7.621
38011SOL    HW215931  10.269   3.289   7.664
38012SOL     OW15932   1.845   0.519   5.649
38012SOL    HW115933   1.867   0.557   5.564
38012SOL    HW215934   1.752   0.497   5.643
38013SOL     OW15935  12.492   9.114   7.081
38013SOL    HW115936  12.559   9.179   7.102
38013SOL    HW215937  12.440   9.155   7.011
38014SOL     OW15938   8.429   7.360   5.099
38014SOL    HW115939   8.388   7.378   5.184
38014SOL    HW215940   8.433   7.445   5.056
38015SOL     OW15941   8.825   9.733  13.543
38015SOL    HW115942   8.770   9.739  13.621
38015SOL    HW215943   8.912   9.710  13.577
38016SOL     OW15944  13.215  12.406   0.392
38016SOL    HW115945  13.188  12.392   0.301
38016SOL    HW215946  13.136  12.441   0.435
38017SOL     OW15947   5.665  10.229   7.430
38017SOL    HW115948   5.685  10.193   7.344
38017SOL    HW215949   5.619  10.311   7.411
38018SOL     OW15950  10.742   6.515   8.072
38018SOL    HW115951  10.764   6.588   8.015
38018SOL    HW215952  10.649   6.528   8.093
38019SOL     OW15953  13.695   0.294   2.864
38019SOL    HW115954  13.777   0.245   2.874
38019SOL    HW215955  13.638   0.234   2.816
38020SOL     OW15956   5.037   0.104   9.894
38020SOL    HW115957   5.056   0.034   9.957
38020SOL    HW215958   5.098   0.089   9.822
38021SOL     OW15959  13.992  10.904   5.394
38021SOL    HW115960  13.968  10.961   5.320
38021SOL    HW215961  14.016  10.821   5.353
38022SOL     OW15962  11.026   1.020   8.935
38022SOL    HW115963  10.946   1.043   8.887
38022SOL    HW215964  11.085   0.985   8.868
38023SOL     OW15965   8.430  13.562  10.742
38023SOL    HW115966   8.355  13.516  10.779
38023SOL    HW215967   8.400  13.592  10.656
38024SOL     OW15968   1.545   3.304   5.207
38024SOL    HW115969   1.458   3.333   5.234
38024SOL    HW215970   1.598   3.311   5.287
38025SOL     OW15971  12.230   1.441   9.209
38025SOL    HW115972  12.221   1.350   9.182
38025SOL    HW215973  12.146   1.464   9.247
38026SOL     OW15974   0.630  10.032  13.738
38026SOL    HW115975   0.698   9.986  13.788
38026SOL    HW215976   0.631   9.990  13.652
38027SOL     OW15977   8.499   0.205   9.228
38027SOL    HW115978   8.460   0.210   9.315
38027SOL    HW215979   8.462   0.126   9.189
38028SOL     OW15980   3.621  11.101   9.044
38028SOL    HW115981   3.601  11.112   9.137
38028SOL    HW215982   3.695  11.040   9.042
38029SOL     OW15983   2.208   8.208   1.962
38029SOL    HW115984   2.169   8.130   1.924
38029SOL    HW215985   2.192   8.277   1.899
38030SOL     OW15986   9.763   8.662   5.118
38030SOL    HW115987   9.793   8.571   5.118
38030SOL    HW215988   9.837   8.712   5.153
38031SOL     OW15989   2.324   8.516   8.140
38031SOL    HW115990   2.305   8.605   8.111
38031SOL    HW215991   2.282   8.460   8.075
38032SOL     OW15992   3.122  10.525  11.128
38032SOL    HW115993   3.079  10.601  11.167
38032SOL    HW215994   3.185  10.563  11.067
38033SOL     OW15995   3.689   1.317   0.122
38033SOL    HW115996   3.682   1.411   0.107
38033SOL    HW215997   3.601   1.284   0.105
38034SOL     OW15998   2.480   0.509   5.428
38034SOL    HW115999   2.536   0.535   5.501
38034SOL    HW216000   2.494   0.414   5.420
38035SOL     OW16001  13.628   6.030  12.524
38035SOL    HW116002  13.626   5.934  12.528
38035SOL    HW216003  13.677   6.055  12.602
38036SOL     OW16004   0.177  13.790   8.336
38036SOL    HW116005   0.226  13.730   8.280
38036SOL    HW216006   0.159  13.866   8.281
38037SOL     OW16007   9.497  13.084  12.418
38037SOL    HW116008   9.488  13.175  12.390
38037SOL    HW216009   9.507  13.089  12.514
38038SOL     OW16010   0.421   5.842  10.364
38038SOL    HW116011   0.422   5.747  10.355
38038SOL    HW216012   0.461   5.874  10.284
38039SOL     OW16013  10.451  10.023   8.547
38039SOL    HW116014  10.483   9.948   8.597
38039SOL    HW216015  10.447  10.094   8.611
38040SOL     OW16016  10.040   7.995   2.916
38040SOL    HW116017  10.107   7.928   2.902
38040SOL    HW216018   9.998   7.970   2.998
38041SOL     OW16019  11.806  10.853   7.227
38041SOL    HW116020  11.770  10.942   7.227
38041SOL    HW216021  11.895  10.863   7.194
38042SOL     OW16022  10.584   8.815  12.737
38042SOL    HW116023  10.533   8.805  12.817
38042SOL    HW216024  10.531   8.772  12.669
38043SOL     OW16025   4.650   3.560   2.369
38043SOL    HW116026   4.568   3.531   2.408
38043SOL    HW216027   4.624   3.620   2.299
38044SOL     OW16028  14.490  14.272  10.672
38044SOL    HW116029  14.401  14.301  10.651
38044SOL    HW216030  14.495  14.277  10.768
38045SOL     OW16031   2.348  12.886   8.004
38045SOL    HW116032   2.425  12.861   7.953
38045SOL    HW216033   2.284  12.912   7.937
38046SOL     OW16034   4.833   8.591   0.783
38046SOL    HW116035   4.773   8.630   0.847
38046SOL    HW216036   4.886   8.665   0.752
38047SOL     OW16037   3.564   5.501   5.422
38047SOL    HW116038   3.559   5.560   5.497
38047SOL    HW216039   3.496   5.436   5.439
38048SOL     OW16040   4.630   1.646  13.237
38048SOL    HW116041   4.598   1.736  13.230
38048SOL    HW216042   4.557   1.598  13.274
38049SOL     OW16043   4.155   8.780   3.211
38049SOL    HW116044   4.184   8.706   3.264
38049SOL    HW216045   4.213   8.778   3.135
38050SOL     OW16046   2.982   7.031  12.123
38050SOL    HW116047   3.039   6.963  12.158
38050SOL    HW216048   3.041   7.091  12.077
38051SOL     OW16049   1.354   7.087   7.850
38051SOL    HW116050   1.385   7.042   7.771
38051SOL    HW216051   1.312   7.018   7.902
38052SOL     OW16052  14.392   5.807  11.023
38052SOL    HW116053  14.468   5.812  11.081
38052SOL    HW216054  14.329   5.752  11.070
38053SOL     OW16055   3.733   1.369  12.313
38053SOL    HW116056   3.792   1.301  12.282
38053SOL    HW216057   3.710   1.419  12.234
38054SOL     OW16058   5.261  13.865   9.972
38054SOL    HW116059   5.353  13.840   9.971
38054SOL    HW216060   5.257  13.948   9.924
38055SOL     OW16061   1.500  13.739  14.266
38055SOL    HW116062   1.457  13.659  14.296
38055SOL    HW216063   1.563  13.709  14.200
38056SOL     OW16064   8.385   8.280   8.405
38056SOL    HW116065   8.476   8.302   8.386
38056SOL    HW216066   8.335   8.328   8.339
38057SOL     OW16067  10.444  12.325   1.663
38057SOL    HW116068  10.429  12.284   1.748
38057SOL    HW216069  10.471  12.252   1.606
38058SOL     OW16070   2.337   6.250   7.637
38058SOL    HW116071   2.382   6.167   7.653
38058SOL    HW216072   2.301   6.241   7.548
38059SOL     OW16073  10.776  12.247   5.720
38059SOL    HW116074  10.863  12.250   5.760
38059SOL    HW216075  10.754  12.154   5.719
38060SOL     OW16076   6.183   4.405   9.267
38060SOL    HW116077   6.097   4.447   9.271
38060SOL    HW216078   6.217   4.412   9.356
38061SOL     OW16079   7.239   6.927   3.543
38061SOL    HW116080   7.170   6.951   3.605
38061SOL    HW216081   7.251   7.006   3.490
38062SOL     OW16082   2.963  12.976   2.215
38062SOL    HW116083   2.978  12.942   2.126
38062SOL    HW216084   2.869  12.993   2.218
38063SOL     OW16085   9.789   3.371  11.589
38063SOL    HW116086   9.806   3.345  11.499
38063SOL    HW216087   9.740   3.454  11.582
38064SOL     OW16088  12.172   2.272   5.187
38064SOL    HW116089  12.245   2.275   5.248
38064SOL    HW216090  12.199   2.209   5.120
38065SOL     OW16091   5.091   5.418   6.866
38065SOL    HW116092   5.175   5.463   6.857
38065SOL    HW216093   5.032   5.484   6.903
38066SOL     OW16094   8.463   0.502   4.581
38066SOL    HW116095   8.411   0.582   4.586
38066SOL    HW216096   8.528   0.519   4.513
38067SOL     OW16097   2.274   3.493   4.615
38067SOL    HW116098   2.192   3.512   4.661
38067SOL    HW216099   2.251   3.423   4.553
38068SOL     OW16100   9.555   3.167  11.773
38068SOL    HW116101   9.488   3.233  11.792
38068SOL    HW216102   9.631   3.197  11.823
38069SOL     OW16103   7.051   0.689   4.494
38069SOL    HW116104   6.995   0.655   4.425
38069SOL    HW216105   6.995   0.750   4.543
38070SOL     OW16106   2.666   7.163  11.829
38070SOL    HW116107   2.697   7.096  11.889
38070SOL    HW216108   2.576   7.137  11.809
38071SOL     OW16109   7.073  11.561   4.068
38071SOL    HW116110   7.024  11.480   4.084
38071SOL    HW216111   7.158  11.547   4.110
38072SOL     OW16112   2.035   4.816   2.443
38072SOL    HW116113   2.003   4.890   2.494
38072SOL    HW216114   2.033   4.742   2.503
38073SOL     OW16115   4.986  14.626  12.281
38073SOL    HW116116   4.943  14.618  12.367
38073SOL    HW216117   5.079  14.621  12.302
38074SOL     OW16118   8.189   2.091  14.701
38074SOL    HW116119   8.220   2.182  14.702
38074SOL    HW216120   8.257   2.044  14.651
38075SOL     OW16121  14.010  13.783   6.330
38075SOL    HW116122  13.984  13.734   6.252
38075SOL    HW216123  13.931  13.830   6.357
38076SOL     OW16124   2.615   7.172  10.812
38076SOL    HW116125   2.622   7.247  10.871
38076SOL    HW216126   2.690   7.180  10.754
38077SOL     OW16127   8.823   3.148   0.170
38077SOL    HW116128   8.808   3.239   0.145
38077SOL    HW216129   8.875   3.112   0.098
38078SOL     OW16130  13.285  11.792  10.844
38078SOL    HW116131  13.276  11.773  10.938
38078SOL    HW216132  13.280  11.888  10.839
38079SOL     OW16133   6.082   3.686  10.067
38079SOL    HW116134   6.053   3.604  10.029
38079SOL    HW216135   6.021   3.752  10.033
38080SOL     OW16136   8.532   0.641   8.333
38080SOL    HW116137   8.469   0.713   8.341
38080SOL    HW216138   8.526   0.613   8.242
38081SOL     OW16139  12.641   1.049   9.155
38081SOL    HW116140  12.689   0.968   9.174
38081SOL    HW216141  12.557   1.038   9.199
38082SOL     OW16142  13.215  12.636   8.149
38082SOL    HW116143  13.158  12.704   8.113
38082SOL    HW216144  13.155  12.572   8.186
38083SOL     OW16145   6.785   0.577   9.730
38083SOL    HW116146   6.865   0.539   9.692
38083SOL    HW216147   6.745   0.505   9.778
38084SOL     OW16148   0.211   1.319   8.899
38084SOL    HW116149   0.240   1.246   8.955
38084SOL    HW216150   0.118   1.327   8.916
38085SOL     OW16151  12.293   4.937   1.346
38085SOL    HW116152  12.245   4.922   1.264
38085SOL    HW216153  12.304   5.032   1.349
38086SOL     OW16154  10.349  11.664  12.870
38086SOL    HW116155  10.402  11.742  12.852
38086SOL    HW216156  10.259  11.692  12.856
38087SOL     OW16157  14.170  11.072   9.020
38087SOL    HW116158  14.242  11.134   9.026
38087SOL    HW216159  14.195  11.000   9.078
38088SOL     OW16160   6.905   1.198   3.340
38088SOL    HW116161   6.844   1.155   3.400
38088SOL    HW216162   6.988   1.200   3.387
38089SOL     OW16163   2.155  14.556   2.890
38089SOL    HW116164   2.184  14.482   2.837
38089SOL    HW216165   2.235  14.606   2.906
38090SOL     OW16166  14.174   0.228   8.745
38090SOL    HW116167  14.192   0.223   8.651
38090SOL    HW216168  14.132   0.145   8.766
38091SOL     OW16169  13.139  10.266   1.983
38091SOL    HW116170  13.150  10.219   2.065
38091SOL    HW216171  13.226  10.303   1.966
38092SOL     OW16172  12.212   5.076   0.887
38092SOL    HW116173  12.143   5.122   0.839
38092SOL    HW216174  12.278   5.056   0.820
38093SOL     OW16175  13.568   1.705  11.415
38093SOL    HW116176  13.497   1.761  11.385
38093SOL    HW216177  13.607   1.669  11.335
38094SOL     OW16178   5.421   5.749   3.975
38094SOL    HW116179   5.442   5.830   4.021
38094SOL    HW216180   5.506   5.708   3.959
38095SOL     OW16181   1.731  11.272   5.555
38095SOL    HW116182   1.742  11.201   5.618
38095SOL    HW216183   1.636  11.276   5.540
38096SOL     OW16184   4.838   3.848  12.885
38096SOL    HW116185   4.875   3.760  12.894
38096SOL    HW216186   4.863   3.875  12.796
38097SOL     OW16187   7.585  11.964   6.089
38097SOL    HW116188   7.639  11.952   6.167
38097SOL    HW216189   7.614  12.047   6.052
38098SOL     OW16190   0.581  14.184   8.461
38098SOL    HW116191   0.604  14.273   8.488
38098SOL    HW216192   0.614  14.128   8.531
38099SOL     OW16193   6.089   9.862   2.089
38099SOL    HW116194   6.107   9.775   2.124
38099SOL    HW216195   6.097   9.921   2.164
38100SOL     OW16196   7.357   3.034   1.173
38100SOL    HW116197   7.359   3.017   1.079
38100SOL    HW216198   7.398   3.120   1.183
38101SOL     OW16199  13.770  11.736   3.460
38101SOL    HW116200  13.864  11.754   3.465
38101SOL    HW216201  13.728  11.821   3.474
38102SOL     OW16202   4.515   7.796   8.291
38102SOL    HW116203   4.533   7.731   8.359
38102SOL    HW216204   4.600   7.836   8.272
38103SOL     OW16205   5.231  11.594  14.322
38103SOL    HW116206   5.151  11.581  14.272
38103SOL    HW216207   5.240  11.514  14.374
38104SOL     OW16208   5.146  14.702   9.060
38104SOL    HW116209   5.105  14.625   9.020
38104SOL    HW216210   5.219  14.723   9.003
38105SOL     OW16211   3.470   1.793  10.274
38105SOL    HW116212   3.543   1.802  10.334
38105SOL    HW216213   3.428   1.711  10.299
38106SOL     OW16214   9.760  13.872   1.049
38106SOL    HW116215   9.804  13.788   1.042
38106SOL    HW216216   9.799  13.914   1.126
38107SOL     OW16217  11.496  12.964   2.629
38107SOL    HW116218  11.485  13.057   2.608
38107SOL    HW216219  11.458  12.954   2.716
38108SOL     OW16220   2.226  12.506   0.576
38108SOL    HW116221   2.160  12.437   0.567
38108SOL    HW216222   2.176  12.587   0.581
38109SOL     OW16223  10.243   9.256  13.733
38109SOL    HW116224  10.226   9.316  13.660
38109SOL    HW216225  10.157   9.242  13.773
38110SOL     OW16226   8.187  11.158   3.448
38110SOL    HW116227   8.179  11.171   3.353
38110SOL    HW216228   8.252  11.088   3.457
38111SOL     OW16229   9.239   3.326  10.569
38111SOL    HW116230   9.162   3.351  10.518
38111SOL    HW216231   9.203   3.282  10.646
38112SOL     OW16232  11.009   2.172  10.816
38112SOL    HW116233  11.064   2.156  10.740
38112SOL    HW216234  10.995   2.267  10.816
38113SOL     OW16235   7.007  10.195  11.775
38113SOL    HW116236   7.065  10.121  11.756
38113SOL    HW216237   6.988  10.187  11.869
38114SOL     OW16238  12.294  12.209  13.891
38114SOL    HW116239  12.325  12.296  13.918
38114SOL    HW216240  12.337  12.194  13.807
38115SOL     OW16241   2.007   4.412   6.506
38115SOL    HW116242   2.061   4.478   6.549
38115SOL    HW216243   1.979   4.354   6.577
38116SOL     OW16244   1.244  12.308   8.959
38116SOL    HW116245   1.209  12.349   9.038
38116SOL    HW216246   1.333  12.282   8.982
38117SOL     OW16247   1.067   4.986   6.684
38117SOL    HW116248   1.016   5.031   6.750
38117SOL    HW216249   1.157   4.991   6.716
38118SOL     OW16250   9.914  14.188   0.854
38118SOL    HW116251  10.006  14.171   0.872
38118SOL    HW216252   9.893  14.266   0.905
38119SOL     OW16253   2.933   7.297   6.075
38119SOL    HW116254   2.946   7.296   6.170
38119SOL    HW216255   2.840   7.276   6.064
38120SOL     OW16256   0.404  10.586   1.136
38120SOL    HW116257   0.409  10.626   1.049
38120SOL    HW216258   0.318  10.543   1.138
38121SOL     OW16259   5.064  11.194   3.774
38121SOL    HW116260   5.071  11.288   3.792
38121SOL    HW216261   4.995  11.163   3.833
38122SOL     OW16262  11.685  10.288   7.450
38122SOL    HW116263  11.599  10.267   7.487
38122SOL    HW216264  11.746  10.229   7.495
38123SOL     OW16265   5.912   7.323   7.633
38123SOL    HW116266   5.897   7.363   7.547
38123SOL    HW216267   5.936   7.395   7.690
38124SOL     OW16268  10.398   6.107  10.003
38124SOL    HW116269  10.430   6.184  10.050
38124SOL    HW216270  10.313   6.134   9.967
38125SOL     OW16271   4.477   5.881  14.563
38125SOL    HW116272   4.450   5.868  14.654
38125SOL    HW216273   4.570   5.860  14.563
38126SOL     OW16274  10.151   4.504   2.402
38126SOL    HW116275  10.176   4.411   2.403
38126SOL    HW216276  10.140   4.526   2.494
38127SOL     OW16277  13.912  14.862   4.769
38127SOL    HW116278  13.993  14.873   4.718
38127SOL    HW216279  13.843   0.004   4.710
38128SOL     OW16280  13.254   3.534  10.449
38128SOL    HW116281  13.176   3.498  10.491
38128SOL    HW216282  13.224   3.613  10.406
38129SOL     OW16283   0.188   7.718  14.001
38129SOL    HW116284   0.225   7.673  13.926
38129SOL    HW216285   0.262   7.765  14.040
38130SOL     OW16286  11.765   6.572   0.271
38130SOL    HW116287  11.778   6.579   0.365
38130SOL    HW216288  11.756   6.662   0.240
38131SOL     OW16289  10.595   0.062   5.122
38131SOL    HW116290  10.546  14.868   5.136
38131SOL    HW216291  10.535   0.131   5.150
38132SOL     OW16292   8.335   7.700  14.473
38132SOL    HW116293   8.370   7.715  14.561
38132SOL    HW216294   8.294   7.783  14.449
38133SOL     OW16295  10.039   4.935   4.664
38133SOL    HW116296  10.088   4.878   4.606
38133SOL    HW216297   9.982   4.986   4.606
38134SOL     OW16298  13.648   7.494  11.648
38134SOL    HW116299  13.729   7.546  11.648
38134SOL    HW216300  13.591   7.538  11.586
38135SOL     OW16301   3.331  13.611   3.750
38135SOL    HW116302   3.341  13.701   3.782
38135SOL    HW216303   3.407  13.597   3.694
38136SOL     OW16304   9.161   9.692   3.333
38136SOL    HW116305   9.193   9.704   3.422
38136SOL    HW216306   9.067   9.709   3.339
38137SOL     OW16307  12.225   4.134   2.071
38137SOL    HW116308  12.199   4.224   2.050
38137SOL    HW216309  12.146   4.083   2.055
38138SOL     OW16310   9.894   8.739   6.757
38138SOL    HW116311   9.903   8.805   6.687
38138SOL    HW216312   9.810   8.759   6.798
38139SOL     OW16313   1.882   9.994   7.243
38139SOL    HW116314   1.949   9.986   7.312
38139SOL    HW216315   1.830  10.070   7.268
38140SOL     OW16316  12.313   6.025  13.892
38140SOL    HW116317  12.401   6.064  13.894
38140SOL    HW216318  12.256   6.095  13.860
38141SOL     OW16319   7.597  14.196  14.719
38141SOL    HW116320   7.535  14.224  14.652
38141SOL    HW216321   7.609  14.273  14.774
38142SOL     OW16322   3.937  14.423  14.201
38142SOL    HW116323   3.848  14.399  14.179
38142SOL    HW216324   3.991  14.380  14.135
38143SOL     OW16325   2.869   4.513   9.242
38143SOL    HW116326   2.933   4.579   9.217
38143SOL    HW216327   2.814   4.502   9.164
38144SOL     OW16328   4.189   1.496   9.639
38144SOL    HW116329   4.162   1.447   9.716
38144SOL    HW216330   4.277   1.528   9.659
38145SOL     OW16331   6.836  11.717  12.439
38145SOL    HW116332   6.755  11.754  12.473
38145SOL    HW216333   6.882  11.683  12.516
38146SOL     OW16334   3.341  11.609  10.465
38146SOL    HW116335   3.299  11.678  10.413
38146SOL    HW216336   3.433  11.634  10.468
38147SOL     OW16337   1.263   3.853  10.061
38147SOL    HW116338   1.241   3.792   9.990
38147SOL    HW216339   1.226   3.813  10.139
38148SOL     OW16340  14.618   6.960   8.681
38148SOL    HW116341  14.600   6.963   8.774
38148SOL    HW216342  14.540   6.997   8.639
38149SOL     OW16343   1.605  13.255  14.275
38149SOL    HW116344   1.619  13.346  14.250
38149SOL    HW216345   1.680  13.208  14.239
38150SOL     OW16346   0.031   1.419   2.602
38150SOL    HW116347   0.063   1.471   2.676
38150SOL    HW216348  14.830   1.453   2.585
38151SOL     OW16349   5.561   1.100   0.807
38151SOL    HW116350   5.579   1.058   0.723
38151SOL    HW216351   5.646   1.134   0.836
38152SOL     OW16352   3.421  13.624   3.347
38152SOL    HW116353   3.414  13.581   3.432
38152SOL    HW216354   3.402  13.716   3.365
38153SOL     OW16355  14.609  12.880  10.589
38153SOL    HW116356  14.685  12.904  10.536
38153SOL    HW216357  14.535  12.919  10.543
38154SOL     OW16358   2.570   0.481   3.981
38154SOL    HW116359   2.498   0.483   3.918
38154SOL    HW216360   2.608   0.394   3.970
38155SOL     OW16361   7.908   6.176  14.300
38155SOL    HW116362   7.922   6.221  14.216
38155SOL    HW216363   7.887   6.246  14.362
38156SOL     OW16364   6.845   0.596  10.323
38156SOL    HW116365   6.757   0.633  10.328
38156SOL    HW216366   6.863   0.589  10.230
38157SOL     OW16367   8.157   1.247  11.259
38157SOL    HW116368   8.217   1.300  11.207
38157SOL    HW216369   8.088   1.307  11.285
38158SOL     OW16370  11.337   9.144   8.331
38158SOL    HW116371  11.328   9.049   8.328
38158SOL    HW216372  11.430   9.160   8.315
38159SOL     OW16373  12.402   0.427   6.160
38159SOL    HW116374  12.487   0.391   6.136
38159SOL    HW216375  12.341   0.355   6.147
38160SOL     OW16376   2.259  10.082   1.673
38160SOL    HW116377   2.206  10.030   1.734
38160SOL    HW216378   2.240  10.173   1.697
38161SOL     OW16379   6.489  12.016   7.732
38161SOL    HW116380   6.558  12.073   7.767
38161SOL    HW216381   6.469  11.957   7.804
38162SOL     OW16382   1.157  11.027   0.429
38162SOL    HW116383   1.176  11.049   0.338
38162SOL    HW216384   1.121  11.107   0.466
38163SOL     OW16385   6.069   0.857   3.980
38163SOL    HW116386   6.031   0.943   3.962
38163SOL    HW216387   5.994   0.798   3.987
38164SOL     OW16388  12.698  13.294  13.641
38164SOL    HW116389  12.678  13.237  13.567
38164SOL    HW216390  12.627  13.278  13.704
38165SOL     OW16391   5.843  11.407  14.570
38165SOL    HW116392   5.845  11.487  14.517
38165SOL    HW216393   5.899  11.426  14.645
38166SOL     OW16394   4.431   1.505   3.515
38166SOL    HW116395   4.367   1.471   3.452
38166SOL    HW216396   4.453   1.430   3.569
38167SOL     OW16397   9.186  13.261  13.959
38167SOL    HW116398   9.118  13.302  13.905
38167SOL    HW216399   9.147  13.256  14.046
38168SOL     OW16400   5.555   3.137   1.414
38168SOL    HW116401   5.531   3.072   1.480
38168SOL    HW216402   5.568   3.086   1.334
38169SOL     OW16403   7.494   9.195  10.560
38169SOL    HW116404   7.409   9.235  10.581
38169SOL    HW216405   7.473   9.104  10.540
38170SOL     OW16406  11.071   0.556   7.348
38170SOL    HW116407  11.132   0.526   7.281
38170SOL    HW216408  11.116   0.541   7.431
38171SOL     OW16409  11.117   8.868   5.707
38171SOL    HW116410  11.056   8.920   5.759
38171SOL    HW216411  11.070   8.852   5.625
38172SOL     OW16412   9.142   8.685   4.959
38172SOL    HW116413   9.069   8.668   5.019
38172SOL    HW216414   9.132   8.777   4.935
38173SOL     OW16415  12.790  14.314  13.794
38173SOL    HW116416  12.699  14.344  13.790
38173SOL    HW216417  12.784  14.219  13.803
38174SOL     OW16418   8.614   6.438  13.495
38174SOL    HW116419   8.668   6.513  13.520
38174SOL    HW216420   8.571   6.411  13.576
38175SOL     OW16421  13.804  11.558   7.576
38175SOL    HW116422  13.763  11.642   7.595
38175SOL    HW216423  13.790  11.545   7.482
38176SOL     OW16424   2.610  11.268   0.965
38176SOL    HW116425   2.593  11.176   0.984
38176SOL    HW216426   2.651  11.301   1.044
38177SOL     OW16427   1.666  10.440  13.455
38177SOL    HW116428   1.618  10.508  13.503
38177SOL    HW216429   1.609  10.419  13.381
38178SOL     OW16430   8.195   7.044   3.748
38178SOL    HW116431   8.117   7.039   3.803
38178SOL    HW216432   8.261   7.086   3.802
38179SOL     OW16433   7.339   5.392  10.704
38179SOL    HW116434   7.368   5.303  10.682
38179SOL    HW216435   7.406   5.449  10.666
38180SOL     OW16436  11.463   8.414   5.365
38180SOL    HW116437  11.528   8.393   5.298
38180SOL    HW216438  11.396   8.465   5.318
38181SOL     OW16439  11.506   8.744   3.446
38181SOL    HW116440  11.449   8.802   3.497
38181SOL    HW216441  11.539   8.681   3.509
38182SOL     OW16442  12.261  13.979  14.169
38182SOL    HW116443  12.246  13.983  14.264
38182SOL    HW216444  12.292  13.890  14.153
38183SOL     OW16445   5.336   5.901   5.133
38183SOL    HW116446   5.363   5.896   5.224
38183SOL    HW216447   5.380   5.826   5.091
38184SOL     OW16448  13.170   5.042  13.014
38184SOL    HW116449  13.092   5.012  12.969
38184SOL    HW216450  13.164   5.003  13.101
38185SOL     OW16451   9.294   5.215   4.859
38185SOL    HW116452   9.345   5.238   4.937
38185SOL    HW216453   9.340   5.257   4.787
38186SOL     OW16454  10.422   2.355  11.136
38186SOL    HW116455  10.472   2.344  11.054
38186SOL    HW216456  10.489   2.363  11.204
38187SOL     OW16457  10.750   7.099   8.539
38187SOL    HW116458  10.826   7.078   8.485
38187SOL    HW216459  10.702   7.164   8.488
38188SOL     OW16460   6.314  10.551   0.466
38188SOL    HW116461   6.372  10.564   0.391
38188SOL    HW216462   6.311  10.456   0.478
38189SOL     OW16463  10.504   8.775   4.362
38189SOL    HW116464  10.526   8.858   4.320
38189SOL    HW216465  10.529   8.708   4.298
38190SOL     OW16466  13.531   9.381  14.825
38190SOL    HW116467  13.581   9.394  14.745
38190SOL    HW216468  13.441   9.402  14.801
38191SOL     OW16469  12.568   4.817   3.185
38191SOL    HW116470  12.655   4.783   3.208
38191SOL    HW216471  12.586   4.900   3.140
38192SOL     OW16472   6.229   8.651  10.245
38192SOL    HW116473   6.324   8.650  10.233
38192SOL    HW216474   6.200   8.730  10.198
38193SOL     OW16475  12.188   0.876   3.775
38193SOL    HW116476  12.125   0.809   3.802
38193SOL    HW216477  12.135   0.950   3.747
38194SOL     OW16478  14.399   9.895   4.251
38194SOL    HW116479  14.460   9.881   4.323
38194SOL    HW216480  14.312   9.892   4.292
38195SOL     OW16481   7.469   1.883   2.386
38195SOL    HW116482   7.561   1.907   2.376
38195SOL    HW216483   7.453   1.888   2.481
38196SOL     OW16484   4.623   2.501   8.638
38196SOL    HW116485   4.708   2.539   8.661
38196SOL    HW216486   4.640   2.407   8.633
38197SOL     OW16487  12.015   7.850  10.227
38197SOL    HW116488  12.045   7.760  10.242
38197SOL    HW216489  11.984   7.879  10.313
38198SOL     OW16490   1.804  10.832  10.619
38198SOL    HW116491   1.806  10.920  10.581
38198SOL    HW216492   1.856  10.839  10.699
38199SOL     OW16493  13.884   6.897  13.388
38199SOL    HW116494  13.899   6.901  13.294
38199SOL    HW216495  13.816   6.962  13.404
38200SOL     OW16496   3.007   6.476   8.353
38200SOL    HW116497   2.989   6.468   8.259
38200SOL    HW216498   2.970   6.561   8.377
38201SOL     OW16499  13.627   0.967  12.678
38201SOL    HW116500  13.544   0.992  12.638
38201SOL    HW216501  13.633   1.020  12.757
38202SOL     OW16502   8.140   1.449  11.730
38202SOL    HW116503   8.233   1.459  11.714
38202SOL    HW216504   8.104   1.422  11.646
38203SOL     OW16505  13.225   4.336   6.777
38203SOL    HW116506  13.232   4.293   6.692
38203SOL    HW216507  13.316   4.350   6.805
38204SOL     OW16508  10.175   7.489   9.911
38204SOL    HW116509  10.091   7.456   9.878
38204SOL    HW216510  10.234   7.486   9.835
38205SOL     OW16511   6.283   1.979   2.916
38205SOL    HW116512   6.323   2.003   3.000
38205SOL    HW216513   6.189   1.988   2.930
38206SOL     OW16514   0.761   4.064   5.134
38206SOL    HW116515   0.743   4.088   5.043
38206SOL    HW216516   0.764   4.148   5.181
38207SOL     OW16517   8.896  12.384   1.387
38207SOL    HW116518   8.849  12.461   1.418
38207SOL    HW216519   8.988  12.404   1.405
38208SOL     OW16520   3.650   5.469  13.525
38208SOL    HW116521   3.633   5.377  13.548
38208SOL    HW216522   3.718   5.465  13.459
38209SOL     OW16523   6.221  12.870   9.454
38209SOL    HW116524   6.238  12.933   9.525
38209SOL    HW216525   6.126  12.864   9.450
38210SOL     OW16526   2.759   6.817   8.814
38210SOL    HW116527   2.681   6.827   8.870
38210SOL    HW216528   2.772   6.904   8.777
38211SOL     OW16529  12.579   0.317   2.395
38211SOL    HW116530  12.604   0.350   2.482
38211SOL    HW216531  12.659   0.327   2.342
38212SOL     OW16532   7.865   0.088   0.191
38212SOL    HW116533   7.858   0.142   0.113
38212SOL    HW216534   7.867  14.886   0.158
38213SOL     OW16535   5.932   2.661  10.168
38213SOL    HW116536   5.954   2.569  10.152
38213SOL    HW216537   5.946   2.704  10.084
38214SOL     OW16538   1.862   5.923   3.879
38214SOL    HW116539   1.873   5.828   3.881
38214SOL    HW216540   1.821   5.944   3.963
38215SOL     OW16541   1.897   0.990   1.629
38215SOL    HW116542   1.880   0.910   1.581
38215SOL    HW216543   1.823   0.998   1.689
38216SOL     OW16544   6.741  11.023   4.682
38216SOL    HW116545   6.678  10.951   4.693
38216SOL    HW216546   6.733  11.075   4.761
38217SOL     OW16547  12.319  11.584   0.840
38217SOL    HW116548  12.258  11.603   0.911
38217SOL    HW216549  12.268  11.530   0.779
38218SOL     OW16550   5.064   2.713   7.759
38218SOL    HW116551   4.997   2.752   7.702
38218SOL    HW216552   5.143   2.762   7.739
38219SOL     OW16553   6.725   3.944   3.727
38219SOL    HW116554   6.760   4.021   3.772
38219SOL    HW216555   6.672   3.900   3.793
38220SOL     OW16556   8.115   2.855   5.091
38220SOL    HW116557   8.118   2.843   5.186
38220SOL    HW216558   8.030   2.896   5.074
38221SOL     OW16559   0.014   8.586   2.729
38221SOL    HW116560  14.887   8.665   2.676
38221SOL    HW216561   0.005   8.617   2.819
38222SOL     OW16562  14.367   8.661   3.863
38222SOL    HW116563  14.434   8.614   3.912
38222SOL    HW216564  14.337   8.730   3.922
38223SOL     OW16565  13.425   7.950  13.738
38223SOL    HW116566  13.404   7.928  13.829
38223SOL    HW216567  13.355   8.010  13.711
38224SOL     OW16568   0.955   0.523  12.015
38224SOL    HW116569   1.029   0.511  11.956
38224SOL    HW216570   0.878   0.508  11.960
38225SOL     OW16571  10.784   8.272   1.850
38225SOL    HW116572  10.837   8.299   1.925
38225SOL    HW216573  10.695   8.267   1.885
38226SOL     OW16574   7.912  12.513   0.399
38226SOL    HW116575   7.963  12.580   0.444
38226SOL    HW216576   7.907  12.440   0.461
38227SOL     OW16577   8.449   4.573   4.810
38227SOL    HW116578   8.517   4.507   4.823
38227SOL    HW216579   8.380   4.527   4.763
38228SOL     OW16580   1.207   2.782  13.394
38228SOL    HW116581   1.231   2.690  13.382
38228SOL    HW216582   1.282   2.821  13.438
38229SOL     OW16583   2.036   7.414   2.144
38229SOL    HW116584   1.961   7.465   2.114
38229SOL    HW216585   2.113   7.463   2.115
38230SOL     OW16586   2.678   7.243  11.281
38230SOL    HW116587   2.635   7.328  11.275
38230SOL    HW216588   2.636   7.199  11.355
38231SOL     OW16589   9.192   9.762   2.083
38231SOL    HW116590   9.138   9.841   2.089
38231SOL    HW216591   9.280   9.795   2.061
38232SOL     OW16592   8.169   6.149   1.333
38232SOL    HW116593   8.116   6.117   1.406
38232SOL    HW216594   8.240   6.199   1.375
38233SOL     OW16595   1.313   8.041   2.256
38233SOL    HW116596   1.319   8.079   2.168
38233SOL    HW216597   1.371   8.097   2.309
38234SOL     OW16598   0.636   8.151   0.672
38234SOL    HW116599   0.673   8.109   0.594
38234SOL    HW216600   0.561   8.200   0.639
38235SOL     OW16601  10.813  12.589   2.148
38235SOL    HW116602  10.749  12.656   2.171
38235SOL    HW216603  10.762  12.508   2.143
38236SOL     OW16604  11.161   0.031  10.118
38236SOL    HW116605  11.234   0.053  10.176
38236SOL    HW216606  11.187  14.835  10.079
38237SOL     OW16607   5.971   4.605   2.003
38237SOL    HW116608   6.000   4.573   2.088
38237SOL    HW216609   5.904   4.543   1.975
38238SOL     OW16610   9.879  12.793   4.552
38238SOL    HW116611   9.855  12.700   4.556
38238SOL    HW216612   9.967  12.793   4.514
38239SOL     OW16613   2.875  14.085   0.042
38239SOL    HW116614   2.951  14.031   0.018
38239SOL    HW216615   2.913  14.170   0.066
38240SOL     OW16616   7.401   4.906   5.812
38240SOL    HW116617   7.377   4.824   5.856
38240SOL    HW216618   7.386   4.974   5.878
38241SOL     OW16619  10.074  12.587   0.943
38241SOL    HW116620  10.093  12.516   1.003
38241SOL    HW216621   9.985  12.614   0.964
38242SOL     OW16622  12.635  12.692   4.624
38242SOL    HW116623  12.673  12.713   4.539
38242SOL    HW216624  12.664  12.763   4.681
38243SOL     OW16625  14.063   1.243   4.456
38243SOL    HW116626  13.982   1.191   4.457
38243SOL    HW216627  14.132   1.179   4.475
38244SOL     OW16628   5.298  11.793   9.456
38244SOL    HW116629   5.240  11.787   9.380
38244SOL    HW216630   5.266  11.869   9.505
38245SOL     OW16631  14.779   9.906   6.102
38245SOL    HW116632  14.820   9.958   6.171
38245SOL    HW216633  14.851   9.860   6.061
38246SOL     OW16634  13.628  10.201   7.399
38246SOL    HW116635  13.670  10.141   7.459
38246SOL    HW216636  13.689  10.209   7.326
38247SOL     OW16637  13.758   6.522  12.448
38247SOL    HW116638  13.714   6.439  12.430
38247SOL    HW216639  13.812   6.537  12.370
38248SOL     OW16640   1.384  10.725   7.886
38248SOL    HW116641   1.374  10.700   7.794
38248SOL    HW216642   1.305  10.776   7.906
38249SOL     OW16643   3.484   5.680   7.686
38249SOL    HW116644   3.555   5.676   7.622
38249SOL    HW216645   3.506   5.756   7.741
38250SOL     OW16646  14.816  14.679   4.647
38250SOL    HW116647  14.833  14.769   4.618
38250SOL    HW216648   0.002  14.629   4.611
38251SOL     OW16649  13.944   9.720  14.758
38251SOL    HW116650  13.998   9.794  14.731
38251SOL    HW216651  13.979   9.695  14.843
38252SOL     OW16652  13.611   1.989   4.752
38252SOL    HW116653  13.688   1.935   4.734
38252SOL    HW216654  13.566   1.996   4.668
38253SOL     OW16655   4.686  13.984   1.596
38253SOL    HW116656   4.665  14.078   1.599
38253SOL    HW216657   4.696  13.959   1.688
38254SOL     OW16658   6.601  11.443   0.929
38254SOL    HW116659   6.657  11.518   0.946
38254SOL    HW216660   6.529  11.452   0.992
38255SOL     OW16661   6.113  14.562   0.625
38255SOL    HW116662   6.192  14.508   0.621
38255SOL    HW216663   6.078  14.560   0.536
38256SOL     OW16664   7.890   5.315   8.939
38256SOL    HW116665   7.968   5.310   8.994
38256SOL    HW216666   7.818   5.335   9.000
38257SOL     OW16667   6.819  13.823   9.578
38257SOL    HW116668   6.891  13.779   9.623
38257SOL    HW216669   6.861  13.886   9.520
38258SOL     OW16670   6.972   2.289  13.787
38258SOL    HW116671   6.958   2.231  13.712
38258SOL    HW216672   6.997   2.373  13.748
38259SOL     OW16673   4.374   7.848  10.220
38259SOL    HW116674   4.457   7.821  10.181
38259SOL    HW216675   4.376   7.944  10.213
38260SOL     OW16676  13.540   9.303   3.288
38260SOL    HW116677  13.619   9.274   3.242
38260SOL    HW216678  13.542   9.256   3.371
38261SOL     OW16679   5.948  12.569  11.458
38261SOL    HW116680   5.922  12.625  11.531
38261SOL    HW216681   5.995  12.497  11.499
38262SOL     OW16682   6.426   1.380   5.880
38262SOL    HW116683   6.466   1.314   5.937
38262SOL    HW216684   6.384   1.329   5.811
38263SOL     OW16685  10.007   9.353   5.949
38263SOL    HW116686   9.986   9.444   5.927
38263SOL    HW216687   9.946   9.330   6.019
38264SOL     OW16688   6.669   6.322   9.667
38264SOL    HW116689   6.622   6.325   9.750
38264SOL    HW216690   6.646   6.237   9.629
38265SOL     OW16691  14.669  10.133  11.190
38265SOL    HW116692  14.727  10.182  11.248
38265SOL    HW216693  14.616  10.079  11.249
38266SOL     OW16694   3.902   2.464   0.013
38266SOL    HW116695   3.807   2.476   0.017
38266SOL    HW216696   3.923   2.467  14.807
38267SOL     OW16697   0.399   2.051   1.504
38267SOL    HW116698   0.361   2.112   1.440
38267SOL    HW216699   0.366   1.965   1.477
38268SOL     OW16700  14.533   2.276  13.005
38268SOL    HW116701  14.627   2.264  13.012
38268SOL    HW216702  14.522   2.355  12.953
38269SOL     OW16703   1.126  13.922  14.770
38269SOL    HW116704   1.040  13.888  14.745
38269SOL    HW216705   1.119  13.939  14.864
38270SOL     OW16706  12.508   1.780   9.549
38270SOL    HW116707  12.523   1.860   9.600
38270SOL    HW216708  12.508   1.710   9.615
38271SOL     OW16709   4.034  12.014  10.402
38271SOL    HW116710   3.975  12.079  10.364
38271SOL    HW216711   4.116  12.023  10.352
38272SOL     OW16712  14.014   1.802  13.367
38272SOL    HW116713  14.049   1.891  13.375
38272SOL    HW216714  13.933   1.804  13.417
38273SOL     OW16715   9.899   7.621   6.587
38273SOL    HW116716   9.926   7.712   6.575
38273SOL    HW216717   9.833   7.606   6.519
38274SOL     OW16718   3.692   9.391  12.145
38274SOL    HW116719   3.713   9.323  12.209
38274SOL    HW216720   3.620   9.355  12.094
38275SOL     OW16721   7.143  14.498   3.337
38275SOL    HW116722   7.102  14.452   3.410
38275SOL    HW216723   7.072  14.507   3.273
38276SOL     OW16724   0.393  12.974  14.612
38276SOL    HW116725   0.415  12.910  14.544
38276SOL    HW216726   0.473  13.025  14.624
38277SOL     OW16727   8.815   0.440   5.887
38277SOL    HW116728   8.882   0.372   5.896
38277SOL    HW216729   8.796   0.466   5.978
38278SOL     OW16730  10.705   7.496   8.993
38278SOL    HW116731  10.676   7.432   9.058
38278SOL    HW216732  10.797   7.511   9.014
38279SOL     OW16733   7.338  13.218  10.370
38279SOL    HW116734   7.337  13.124  10.387
38279SOL    HW216735   7.246  13.240  10.355
38280SOL     OW16736   1.087   0.215  14.119
38280SOL    HW116737   1.010   0.214  14.176
38280SOL    HW216738   1.058   0.175  14.037
38281SOL     OW16739  13.516   5.336  14.826
38281SOL    HW116740  13.484   5.411  14.776
38281SOL    HW216741  13.611   5.348  14.828
38282SOL     OW16742   8.056  10.373   2.375
38282SOL    HW116743   8.029  10.375   2.467
38282SOL    HW216744   8.137  10.424   2.373
38283SOL     OW16745  14.263   5.785   9.198
38283SOL    HW116746  14.232   5.869   9.165
38283SOL    HW216747  14.351   5.803   9.232
38284SOL     OW16748   7.505  13.903   6.324
38284SOL    HW116749   7.415  13.925   6.345
38284SOL    HW216750   7.541  13.867   6.405
38285SOL     OW16751   7.050  14.627   0.329
38285SOL    HW116752   7.058  14.722   0.318
38285SOL    HW216753   6.956  14.610   0.334
38286SOL     OW16754   6.939   1.794   1.061
38286SOL    HW116755   7.031   1.813   1.076
38286SOL    HW216756   6.894   1.875   1.085
38287SOL     OW16757   1.325  13.571   5.398
38287SOL    HW116758   1.375  13.489   5.396
38287SOL    HW216759   1.380  13.634   5.353
38288SOL     OW16760   3.430  12.816  12.248
38288SOL    HW116761   3.423  12.756  12.173
38288SOL    HW216762   3.422  12.758  12.324
38289SOL     OW16763   4.256  13.206   6.990
38289SOL    HW116764   4.190  13.224   6.923
38289SOL    HW216765   4.302  13.129   6.958
38290SOL     OW16766   6.490   1.184   9.993
38290SOL    HW116767   6.471   1.253   9.930
38290SOL    HW216768   6.412   1.178  10.048
38291SOL     OW16769   4.816   1.063  12.880
38291SOL    HW116770   4.831   1.114  12.800
38291SOL    HW216771   4.896   1.011  12.890
38292SOL     OW16772   0.691  10.054   1.697
38292SOL    HW116773   0.617  10.022   1.749
38292SOL    HW216774   0.723   9.976   1.652
38293SOL     OW16775   8.562   0.907   1.384
38293SOL    HW116776   8.644   0.907   1.335
38293SOL    HW216777   8.517   0.827   1.357
38294SOL     OW16778  12.700   3.861   7.842
38294SOL    HW116779  12.681   3.952   7.867
38294SOL    HW216780  12.696   3.813   7.925
38295SOL     OW16781  10.924   9.325   1.429
38295SOL    HW116782  10.943   9.268   1.355
38295SOL    HW216783  10.901   9.266   1.500
38296SOL     OW16784  14.712   1.870   7.596
38296SOL    HW116785  14.731   1.810   7.669
38296SOL    HW216786  14.626   1.906   7.617
38297SOL     OW16787   6.429   6.873   7.106
38297SOL    HW116788   6.408   6.927   7.029
38297SOL    HW216789   6.347   6.827   7.126
38298SOL     OW16790  12.389  14.672  10.154
38298SOL    HW116791  12.392  14.768  10.148
38298SOL    HW216792  12.376  14.655  10.248
38299SOL     OW16793   8.369  10.186   0.833
38299SOL    HW116794   8.308  10.198   0.906
38299SOL    HW216795   8.368  10.092   0.816
38300SOL     OW16796   6.253   4.556   8.789
38300SOL    HW116797   6.193   4.482   8.802
38300SOL    HW216798   6.203   4.618   8.737
38301SOL     OW16799  12.118   0.659  10.887
38301SOL    HW116800  12.041   0.715  10.901
38301SOL    HW216801  12.129   0.657  10.792
38302SOL     OW16802  12.724   0.494   7.573
38302SOL    HW116803  12.803   0.543   7.548
38302SOL    HW216804  12.655   0.530   7.517
38303SOL     OW16805   0.922   7.751   5.156
38303SOL    HW116806   0.938   7.749   5.062
38303SOL    HW216807   0.853   7.816   5.167
38304SOL     OW16808   9.855  11.383   1.323
38304SOL    HW116809   9.936  11.418   1.360
38304SOL    HW216810   9.862  11.288   1.336
38305SOL     OW16811   5.761  13.317   3.268
38305SOL    HW116812   5.803  13.318   3.353
38305SOL    HW216813   5.834  13.311   3.205
38306SOL     OW16814   4.307  10.888  12.617
38306SOL    HW116815   4.227  10.866  12.569
38306SOL    HW216816   4.319  10.817  12.680
38307SOL     OW16817  13.752   4.952   3.812
38307SOL    HW116818  13.714   4.958   3.900
38307SOL    HW216819  13.809   4.876   3.816
38308SOL     OW16820  12.083   6.127   0.429
38308SOL    HW116821  12.146   6.086   0.489
38308SOL    HW216822  12.128   6.129   0.345
38309SOL     OW16823   8.885  12.395   5.908
38309SOL    HW116824   8.884  12.361   5.818
38309SOL    HW216825   8.799  12.435   5.919
38310SOL     OW16826   6.774  11.311  12.272
38310SOL    HW116827   6.835  11.248  12.233
38310SOL    HW216828   6.746  11.269  12.353
38311SOL     OW16829   5.819   5.969   5.571
38311SOL    HW116830   5.851   5.886   5.606
38311SOL    HW216831   5.726   5.971   5.597
38312SOL     OW16832   0.776   3.749  14.238
38312SOL    HW116833   0.719   3.683  14.276
38312SOL    HW216834   0.864   3.713  14.248
38313SOL     OW16835   9.089   6.762   5.645
38313SOL    HW116836   9.155   6.790   5.582
38313SOL    HW216837   9.067   6.841   5.694
38314SOL     OW16838   4.033   4.747   7.724
38314SOL    HW116839   3.943   4.731   7.695
38314SOL    HW216840   4.046   4.686   7.796
38315SOL     OW16841   4.033   1.954   8.690
38315SOL    HW116842   4.093   2.023   8.718
38315SOL    HW216843   3.963   1.956   8.755
38316SOL     OW16844  10.911  10.910  13.692
38316SOL    HW116845  10.888  11.003  13.688
38316SOL    HW216846  10.952  10.899  13.778
38317SOL     OW16847  13.447  12.780   1.580
38317SOL    HW116848  13.400  12.811   1.502
38317SOL    HW216849  13.394  12.810   1.654
38318SOL     OW16850  11.971  14.608   1.980
38318SOL    HW116851  11.926  14.611   1.896
38318SOL    HW216852  11.996  14.698   1.998
38319SOL     OW16853   7.695   2.055   5.027
38319SOL    HW116854   7.676   1.965   5.050
38319SOL    HW216855   7.643   2.108   5.087
38320SOL     OW16856   6.618   7.495   6.168
38320SOL    HW116857   6.699   7.489   6.117
38320SOL    HW216858   6.630   7.570   6.225
38321SOL     OW16859  11.268  10.067   2.703
38321SOL    HW116860  11.231  10.007   2.639
38321SOL    HW216861  11.193  10.096   2.755
38322SOL     OW16862   4.453  11.174   5.659
38322SOL    HW116863   4.462  11.149   5.567
38322SOL    HW216864   4.503  11.108   5.707
38323SOL     OW16865   9.618  14.847   7.445
38323SOL    HW116866   9.631   0.051   7.472
38323SOL    HW216867   9.530  14.845   7.408
38324SOL     OW16868  13.397  10.145   3.794
38324SOL    HW116869  13.368  10.070   3.846
38324SOL    HW216870  13.319  10.173   3.746
38325SOL     OW16871   2.084  11.752   5.883
38325SOL    HW116872   2.060  11.840   5.911
38325SOL    HW216873   2.127  11.713   5.960
38326SOL     OW16874   1.487  10.990   8.895
38326SOL    HW116875   1.518  10.907   8.858
38326SOL    HW216876   1.539  11.002   8.974
38327SOL     OW16877   4.857  13.254   2.190
38327SOL    HW116878   4.824  13.181   2.243
38327SOL    HW216879   4.907  13.308   2.252
38328SOL     OW16880  14.524   6.646   5.183
38328SOL    HW116881  14.549   6.589   5.256
38328SOL    HW216882  14.607   6.676   5.146
38329SOL     OW16883   5.114  14.085   7.302
38329SOL    HW116884   5.127  14.013   7.364
38329SOL    HW216885   5.195  14.136   7.307
38330SOL     OW16886   6.179   8.349   3.075
38330SOL    HW116887   6.193   8.320   3.165
38330SOL    HW216888   6.236   8.426   3.066
38331SOL     OW16889   0.778  13.638  14.054
38331SOL    HW116890   0.865  13.631  14.016
38331SOL    HW216891   0.763  13.552  14.095
38332SOL     OW16892   8.429   0.883   9.364
38332SOL    HW116893   8.514   0.902   9.404
38332SOL    HW216894   8.446   0.887   9.270
38333SOL     OW16895  14.413   7.369   9.439
38333SOL    HW116896  14.418   7.384   9.344
38333SOL    HW216897  14.325   7.334   9.453
38334SOL     OW16898  14.039  13.448   5.060
38334SOL    HW116899  14.058  13.498   4.980
38334SOL    HW216900  14.124  13.434   5.101
38335SOL     OW16901  13.073  10.084   5.210
38335SOL    HW116902  13.103   9.994   5.222
38335SOL    HW216903  13.051  10.090   5.117
38336SOL     OW16904   4.670   1.230  12.649
38336SOL    HW116905   4.723   1.309  12.655
38336SOL    HW216906   4.586   1.254  12.687
38337SOL     OW16907   3.993   0.472   6.326
38337SOL    HW116908   3.938   0.396   6.307
38337SOL    HW216909   3.955   0.543   6.275
38338SOL     OW16910   6.756   9.703  13.020
38338SOL    HW116911   6.729   9.619  13.056
38338SOL    HW216912   6.735   9.697  12.927
38339SOL     OW16913   7.448   4.976   9.851
38339SOL    HW116914   7.520   4.919   9.877
38339SOL    HW216915   7.412   4.935   9.773
38340SOL     OW16916   2.678   2.554  10.462
38340SOL    HW116917   2.703   2.613  10.533
38340SOL    HW216918   2.739   2.574  10.392
38341SOL     OW16919   2.568   2.500   7.295
38341SOL    HW116920   2.592   2.584   7.333
38341SOL    HW216921   2.651   2.454   7.286
38342SOL     OW16922   8.587   6.586   4.385
38342SOL    HW116923   8.671   6.627   4.407
38342SOL    HW216924   8.583   6.591   4.289
38343SOL     OW16925   3.282   5.268  14.348
38343SOL    HW116926   3.283   5.296  14.257
38343SOL    HW216927   3.224   5.191  14.349
38344SOL     OW16928   7.432   5.760  14.296
38344SOL    HW116929   7.452   5.784  14.386
38344SOL    HW216930   7.427   5.844  14.249
38345SOL     OW16931  12.901   5.385  14.262
38345SOL    HW116932  12.914   5.305  14.211
38345SOL    HW216933  12.990   5.416  14.280
38346SOL     OW16934  13.739  10.311   5.322
38346SOL    HW116935  13.659  10.355   5.349
38346SOL    HW216936  13.741  10.231   5.375
38347SOL     OW16937   5.547   5.101  10.736
38347SOL    HW116938   5.488   5.160  10.688
38347SOL    HW216939   5.594   5.158  10.797
38348SOL     OW16940   0.878   5.914   6.152
38348SOL    HW116941   0.941   5.914   6.225
38348SOL    HW216942   0.808   5.855   6.180
38349SOL     OW16943   7.000   9.489  13.742
38349SOL    HW116944   6.942   9.413  13.752
38349SOL    HW216945   7.006   9.502  13.647
38350SOL     OW16946   8.710   2.969  13.422
38350SOL    HW116947   8.725   3.038  13.358
38350SOL    HW216948   8.798   2.934  13.441
38351SOL     OW16949  11.430   4.810   0.095
38351SOL    HW116950  11.365   4.746   0.125
38351SOL    HW216951  11.452   4.860   0.174
38352SOL     OW16952   9.820   5.309   7.616
38352SOL    HW116953   9.792   5.240   7.555
38352SOL    HW216954   9.907   5.281   7.645
38353SOL     OW16955   7.320   7.018   0.700
38353SOL    HW116956   7.350   7.047   0.614
38353SOL    HW216957   7.386   7.053   0.761
38354SOL     OW16958   4.187   2.200   9.014
38354SOL    HW116959   4.095   2.192   9.039
38354SOL    HW216960   4.224   2.264   9.075
38355SOL     OW16961  10.108   6.312   3.034
38355SOL    HW116962  10.108   6.375   2.962
38355SOL    HW216963  10.191   6.325   3.079
38356SOL     OW16964   6.796   8.668  14.161
38356SOL    HW116965   6.891   8.679  14.169
38356SOL    HW216966   6.771   8.720  14.084
38357SOL     OW16967   2.887   8.483   6.378
38357SOL    HW116968   2.905   8.417   6.312
38357SOL    HW216969   2.965   8.539   6.379
38358SOL     OW16970  14.501   6.395   6.226
38358SOL    HW116971  14.501   6.403   6.321
38358SOL    HW216972  14.418   6.351   6.206
38359SOL     OW16973   7.286  11.861   1.073
38359SOL    HW116974   7.366  11.897   1.035
38359SOL    HW216975   7.234  11.834   0.997
38360SOL     OW16976   8.869   3.821  13.273
38360SOL    HW116977   8.936   3.858  13.216
38360SOL    HW216978   8.915   3.752  13.322
38361SOL     OW16979   5.872   6.462   6.010
38361SOL    HW116980   5.777   6.473   6.018
38361SOL    HW216981   5.888   6.374   6.045
38362SOL     OW16982   6.262   4.329   0.896
38362SOL    HW116983   6.337   4.283   0.860
38362SOL    HW216984   6.203   4.343   0.822
38363SOL     OW16985   8.393   6.557   6.619
38363SOL    HW116986   8.432   6.638   6.587
38363SOL    HW216987   8.300   6.576   6.625
38364SOL     OW16988   4.106   3.868   5.681
38364SOL    HW116989   4.072   3.865   5.591
38364SOL    HW216990   4.153   3.952   5.685
38365SOL     OW16991   3.454  10.501   9.029
38365SOL    HW116992   3.382  10.515   8.968
38365SOL    HW216993   3.413  10.506   9.116
38366SOL     OW16994   3.622   8.988   4.556
38366SOL    HW116995   3.615   9.038   4.474
38366SOL    HW216996   3.615   9.054   4.624
38367SOL     OW16997  12.480   1.860   4.415
38367SOL    HW116998  12.522   1.843   4.500
38367SOL    HW216999  12.544   1.830   4.351
38368SOL     OW17000   6.032   1.672   8.580
38368SOL    HW117001   5.995   1.692   8.493
38368SOL    HW217002   6.116   1.631   8.561
38369SOL     OW17003   8.793   9.070   1.656
38369SOL    HW117004   8.866   9.098   1.712
38369SOL    HW217005   8.715   9.087   1.709
38370SOL     OW17006   1.888   6.230  11.526
38370SOL    HW117007   1.977   6.265  11.526
38370SOL    HW217008   1.856   6.246  11.437
38371SOL     OW17009  14.556   1.331   7.630
38371SOL    HW117010  14.475   1.284   7.611
38371SOL    HW217011  14.618   1.299   7.564
38372SOL     OW17012   2.297   8.897   2.369
38372SOL    HW117013   2.224   8.940   2.325
38372SOL    HW217014   2.258   8.855   2.445
38373SOL     OW17015   7.405   2.561   8.637
38373SOL    HW117016   7.453   2.577   8.718
38373SOL    HW217017   7.452   2.612   8.571
38374SOL     OW17018   5.517  11.848   3.026
38374SOL    HW117019   5.561  11.916   2.974
38374SOL    HW217020   5.424  11.867   3.014
38375SOL     OW17021   4.344  14.149  14.358
38375SOL    HW117022   4.270  14.088  14.366
38375SOL    HW217023   4.389  14.144  14.442
38376SOL     OW17024  10.805   3.859   0.681
38376SOL    HW117025  10.831   3.809   0.759
38376SOL    HW217026  10.769   3.794   0.621
38377SOL     OW17027   1.841  13.398   9.884
38377SOL    HW117028   1.880  13.462   9.825
38377SOL    HW217029   1.859  13.313   9.843
38378SOL     OW17030   1.817   1.877   1.792
38378SOL    HW117031   1.863   1.872   1.708
38378SOL    HW217032   1.836   1.965   1.825
38379SOL     OW17033   5.653  13.191   2.314
38379SOL    HW117034   5.706  13.116   2.289
38379SOL    HW217035   5.714  13.249   2.359
38380SOL     OW17036  12.556  10.762  12.851
38380SOL    HW117037  12.552  10.680  12.802
38380SOL    HW217038  12.505  10.824  12.798
38381SOL     OW17039   0.532  12.756   6.958
38381SOL    HW117040   0.444  12.786   6.979
38381SOL    HW217041   0.552  12.691   7.025
38382SOL     OW17042   8.767   0.739   7.297
38382SOL    HW117043   8.755   0.645   7.308
38382SOL    HW217044   8.711   0.778   7.365
38383SOL     OW17045  14.139   5.615  13.514
38383SOL    HW117046  14.207   5.584  13.454
38383SOL    HW217047  14.057   5.593  13.471
38384SOL     OW17048   0.989   4.049   2.662
38384SOL    HW117049   1.033   3.969   2.632
38384SOL    HW217050   0.995   4.045   2.758
38385SOL     OW17051   3.392   0.742   0.280
38385SOL    HW117052   3.299   0.767   0.284
38385SOL    HW217053   3.400   0.671   0.343
38386SOL     OW17054  10.068   8.220   1.804
38386SOL    HW117055  10.137   8.269   1.760
38386SOL    HW217056  10.064   8.256   1.892
38387SOL     OW17057   6.218   4.002   1.380
38387SOL    HW117058   6.212   4.098   1.383
38387SOL    HW217059   6.127   3.972   1.378
38388SOL     OW17060   0.856   1.013   0.941
38388SOL    HW117061   0.810   1.072   1.001
38388SOL    HW217062   0.941   1.054   0.926
38389SOL     OW17063   8.218   7.974   3.186
38389SOL    HW117064   8.168   7.930   3.254
38389SOL    HW217065   8.304   7.988   3.224
38390SOL     OW17066   0.465   2.927  10.930
38390SOL    HW117067   0.547   2.974  10.941
38390SOL    HW217068   0.454   2.878  11.011
38391SOL     OW17069  10.009   1.118   8.282
38391SOL    HW117070  10.096   1.122   8.243
38391SOL    HW217071   9.976   1.031   8.261
38392SOL     OW17072   7.902   3.697   7.064
38392SOL    HW117073   7.951   3.652   6.996
38392SOL    HW217074   7.951   3.680   7.145
38393SOL     OW17075   6.689  12.080   4.198
38393SOL    HW117076   6.695  11.998   4.150
38393SOL    HW217077   6.752  12.073   4.269
38394SOL     OW17078   0.120  11.400   0.490
38394SOL    HW117079   0.134  11.482   0.442
38394SOL    HW217080   0.029  11.377   0.470
38395SOL     OW17081  13.032  11.731   5.144
38395SOL    HW117082  13.051  11.656   5.088
38395SOL    HW217083  12.943  11.716   5.175
38396SOL     OW17084  12.394  14.192   7.998
38396SOL    HW117085  12.483  14.171   8.027
38396SOL    HW217086  12.386  14.286   8.012
38397SOL     OW17087   6.354   9.575  12.343
38397SOL    HW117088   6.315   9.585  12.256
38397SOL    HW217089   6.416   9.648  12.350
38398SOL     OW17090   2.434   8.489   2.836
38398SOL    HW117091   2.382   8.566   2.861
38398SOL    HW217092   2.381   8.415   2.864
38399SOL     OW17093   7.964   3.060   0.278
38399SOL    HW117094   8.022   3.134   0.292
38399SOL    HW217095   7.879   3.099   0.257
38400SOL     OW17096  11.586  10.523  12.408
38400SOL    HW117097  11.589  10.582  12.483
38400SOL    HW217098  11.593  10.580  12.332
38401SOL     OW17099   7.583  10.727   3.300
38401SOL    HW117100   7.556  10.652   3.247
38401SOL    HW217101   7.501  10.766   3.330
38402SOL     OW17102  12.577   3.350  10.202
38402SOL    HW117103  12.530   3.430  10.227
38402SOL    HW217104  12.588   3.302  10.284
38403SOL     OW17105   5.870  10.410   1.022
38403SOL    HW117106   5.803  10.463   1.067
38403SOL    HW217107   5.820  10.338   0.982
38404SOL     OW17108  13.267  13.872   4.167
38404SOL    HW117109  13.188  13.835   4.127
38404SOL    HW217110  13.297  13.937   4.104
38405SOL     OW17111   2.312   4.839   5.803
38405SOL    HW117112   2.261   4.915   5.778
38405SOL    HW217113   2.380   4.832   5.735
38406SOL     OW17114   5.895   2.703  10.416
38406SOL    HW117115   5.943   2.627  10.450
38406SOL    HW217116   5.897   2.692  10.321
38407SOL     OW17117  12.188   2.703  11.306
38407SOL    HW117118  12.132   2.686  11.231
38407SOL    HW217119  12.137   2.760  11.362
38408SOL     OW17120   9.445   5.889  11.096
38408SOL    HW117121   9.528   5.843  11.083
38408SOL    HW217122   9.451   5.925  11.185
38409SOL     OW17123   5.579   6.132   8.295
38409SOL    HW117124   5.658   6.179   8.269
38409SOL    HW217125   5.545   6.181   8.370
38410SOL     OW17126  12.975  13.647   3.079
38410SOL    HW117127  13.060  13.665   3.040
38410SOL    HW217128  12.994  13.632   3.172
38411SOL     OW17129   0.346   2.765   4.511
38411SOL    HW117130   0.285   2.690   4.509
38411SOL    HW217131   0.384   2.762   4.599
38412SOL     OW17132  14.082   9.331   3.720
38412SOL    HW117133  14.037   9.265   3.773
38412SOL    HW217134  14.157   9.286   3.683
38413SOL     OW17135   2.769   9.789   6.124
38413SOL    HW117136   2.864   9.804   6.125
38413SOL    HW217137   2.731   9.875   6.139
38414SOL     OW17138  10.295   5.545   2.173
38414SOL    HW117139  10.267   5.454   2.183
38414SOL    HW217140  10.322   5.552   2.081
38415SOL     OW17141   7.416   7.460   1.706
38415SOL    HW117142   7.511   7.452   1.698
38415SOL    HW217143   7.402   7.545   1.747
38416SOL     OW17144   2.137  14.727   1.884
38416SOL    HW117145   2.152  14.681   1.966
38416SOL    HW217146   2.043  14.718   1.868
38417SOL     OW17147  11.458  14.169   0.069
38417SOL    HW117148  11.551  14.149   0.086
38417SOL    HW217149  11.425  14.094   0.020
38418SOL     OW17150  10.601   0.223   3.677
38418SOL    HW117151  10.592   0.314   3.648
38418SOL    HW217152  10.687   0.220   3.720
38419SOL     OW17153   8.738   0.755   2.088
38419SOL    HW117154   8.688   0.757   2.170
38419SOL    HW217155   8.673   0.729   2.022
38420SOL     OW17156   4.372   9.615   4.744
38420SOL    HW117157   4.314   9.588   4.672
38420SOL    HW217158   4.333   9.577   4.822
38421SOL     OW17159  10.174   8.624   5.117
38421SOL    HW117160  10.137   8.540   5.091
38421SOL    HW217161  10.099   8.673   5.152
38422SOL     OW17162   4.743   8.077   4.801
38422SOL    HW117163   4.745   8.078   4.705
38422SOL    HW217164   4.753   7.985   4.824
38423SOL     OW17165   6.732  14.779  12.781
38423SOL    HW117166   6.740  14.872  12.802
38423SOL    HW217167   6.799  14.763  12.715
38424SOL     OW17168   6.711   3.996   0.077
38424SOL    HW117169   6.779   4.039   0.129
38424SOL    HW217170   6.666   4.067   0.032
38425SOL     OW17171   7.672   4.308   2.799
38425SOL    HW117172   7.747   4.358   2.767
38425SOL    HW217173   7.709   4.248   2.864
38426SOL     OW17174  11.676   7.892   9.061
38426SOL    HW117175  11.591   7.850   9.077
38426SOL    HW217176  11.739   7.820   9.061
38427SOL     OW17177   5.757   2.433   2.773
38427SOL    HW117178   5.809   2.374   2.719
38427SOL    HW217179   5.674   2.442   2.726
38428SOL     OW17180   8.381   2.578  13.093
38428SOL    HW117181   8.449   2.553  13.155
38428SOL    HW217182   8.356   2.497  13.050
38429SOL     OW17183   1.501  11.064  14.263
38429SOL    HW117184   1.437  11.096  14.327
38429SOL    HW217185   1.526  10.977  14.296
38430SOL     OW17186   1.798   4.987  12.896
38430SOL    HW117187   1.777   4.897  12.874
38430SOL    HW217188   1.786   4.993  12.991
38431SOL     OW17189  11.749   6.214   3.650
38431SOL    HW117190  11.677   6.161   3.617
38431SOL    HW217191  11.824   6.155   3.653
38432SOL     OW17192   4.855   8.384   2.359
38432SOL    HW117193   4.773   8.367   2.405
38432SOL    HW217194   4.857   8.319   2.288
38433SOL     OW17195   8.940  13.559  13.965
38433SOL    HW117196   8.996  13.519  13.899
38433SOL    HW217197   8.854  13.517  13.953
38434SOL     OW17198   5.583   8.016   2.671
38434SOL    HW117199   5.535   7.949   2.721
38434SOL    HW217200   5.675   7.996   2.687
38435SOL     OW17201   9.548   8.011   3.817
38435SOL    HW117202   9.494   7.961   3.878
38435SOL    HW217203   9.493   8.023   3.739
38436SOL     OW17204   7.690   4.138   6.370
38436SOL    HW117205   7.669   4.203   6.304
38436SOL    HW217206   7.605   4.114   6.408
38437SOL     OW17207   6.962   7.642   8.901
38437SOL    HW117208   7.002   7.577   8.958
38437SOL    HW217209   6.868   7.630   8.912
38438SOL     OW17210  11.661   2.081  12.174
38438SOL    HW117211  11.755   2.096  12.168
38438SOL    HW217212  11.645   2.063  12.267
38439SOL     OW17213   1.598   1.389   2.492
38439SOL    HW117214   1.548   1.308   2.478
38439SOL    HW217215   1.588   1.407   2.586
38440SOL     OW17216   4.519   7.813   2.786
38440SOL    HW117217   4.555   7.794   2.700
38440SOL    HW217218   4.430   7.845   2.769
38441SOL     OW17219  14.729   8.761   1.057
38441SOL    HW117220  14.650   8.806   1.027
38441SOL    HW217221  14.770   8.823   1.118
38442SOL     OW17222   1.720  14.861  12.596
38442SOL    HW117223   1.751   0.051  12.642
38442SOL    HW217224   1.787  14.795  12.613
38443SOL     OW17225  14.032   7.815  11.242
38443SOL    HW117226  14.067   7.861  11.166
38443SOL    HW217227  14.053   7.723  11.227
38444SOL     OW17228   0.285   7.083   3.462
38444SOL    HW117229   0.274   7.177   3.472
38444SOL    HW217230   0.198   7.046   3.481
38445SOL     OW17231   3.956   8.402  12.344
38445SOL    HW117232   4.039   8.354  12.334
38445SOL    HW217233   3.929   8.386  12.434
38446SOL     OW17234   8.790   7.221   0.522
38446SOL    HW117235   8.806   7.155   0.589
38446SOL    HW217236   8.877   7.242   0.488
38447SOL     OW17237   3.878   4.619   3.982
38447SOL    HW117238   3.961   4.665   3.993
38447SOL    HW217239   3.896   4.553   3.915
38448SOL     OW17240  10.144   6.937  10.412
38448SOL    HW117241  10.102   6.908  10.331
38448SOL    HW217242  10.073   6.973  10.464
38449SOL     OW17243   0.797  13.806  10.944
38449SOL    HW117244   0.805  13.874  11.011
38449SOL    HW217245   0.881  13.805  10.900
38450SOL     OW17246   0.616   9.736   7.588
38450SOL    HW117247   0.680   9.752   7.657
38450SOL    HW217248   0.620   9.815   7.534
38451SOL     OW17249   6.306  10.049   0.157
38451SOL    HW117250   6.296  10.038   0.062
38451SOL    HW217251   6.387  10.098   0.167
38452SOL     OW17252  13.810   5.597   3.833
38452SOL    HW117253  13.736   5.578   3.775
38452SOL    HW217254  13.865   5.519   3.829
38453SOL     OW17255  10.250   8.968  14.532
38453SOL    HW117256  10.325   8.955  14.590
38453SOL    HW217257  10.174   8.944  14.585
38454SOL     OW17258   5.647  12.752   0.728
38454SOL    HW117259   5.727  12.728   0.683
38454SOL    HW217260   5.580  12.753   0.660
38455SOL     OW17261   6.798   9.227   7.528
38455SOL    HW117262   6.884   9.233   7.488
38455SOL    HW217263   6.805   9.154   7.590
38456SOL     OW17264   4.613   7.782  13.840
38456SOL    HW117265   4.616   7.728  13.919
38456SOL    HW217266   4.679   7.743  13.782
38457SOL     OW17267   7.840   5.299   6.357
38457SOL    HW117268   7.851   5.204   6.356
38457SOL    HW217269   7.880   5.329   6.275
38458SOL     OW17270  13.989  12.501   8.297
38458SOL    HW117271  14.038  12.473   8.220
38458SOL    HW217272  13.914  12.442   8.301
38459SOL     OW17273   0.751   6.370  13.959
38459SOL    HW117274   0.792   6.451  13.927
38459SOL    HW217275   0.694   6.399  14.029
38460SOL     OW17276  11.556   8.154  11.901
38460SOL    HW117277  11.607   8.122  11.975
38460SOL    HW217278  11.573   8.091  11.831
38461SOL     OW17279   1.317   9.110   6.688
38461SOL    HW117280   1.340   9.200   6.711
38461SOL    HW217281   1.263   9.119   6.609
38462SOL     OW17282  10.730   6.746   0.172
38462SOL    HW117283  10.655   6.771   0.226
38462SOL    HW217284  10.760   6.664   0.210
38463SOL     OW17285   6.460  14.553  13.554
38463SOL    HW117286   6.427  14.482  13.608
38463SOL    HW217287   6.555  14.552  13.567
38464SOL     OW17288   2.929   5.564   2.164
38464SOL    HW117289   2.965   5.476   2.157
38464SOL    HW217290   2.950   5.606   2.080
38465SOL     OW17291   8.166  12.598  13.394
38465SOL    HW117292   8.203  12.543  13.463
38465SOL    HW217293   8.132  12.536  13.330
38466SOL     OW17294   6.646   9.957   2.307
38466SOL    HW117295   6.648   9.861   2.298
38466SOL    HW217296   6.738   9.983   2.308
38467SOL     OW17297   5.410   1.228   4.867
38467SOL    HW117298   5.434   1.135   4.864
38467SOL    HW217299   5.442   1.258   4.952
38468SOL     OW17300  13.296   4.403  11.632
38468SOL    HW117301  13.212   4.434  11.599
38468SOL    HW217302  13.314   4.458  11.708
38469SOL     OW17303   5.117   0.302  13.966
38469SOL    HW117304   5.041   0.286  13.910
38469SOL    HW217305   5.181   0.235  13.941
38470SOL     OW17306   8.635   5.663   4.665
38470SOL    HW117307   8.588   5.745   4.682
38470SOL    HW217308   8.567   5.601   4.640
38471SOL     OW17309   0.535   2.654  11.189
38471SOL    HW117310   0.485   2.708  11.249
38471SOL    HW217311   0.625   2.657  11.222
38472SOL     OW17312   9.712   8.944   1.321
38472SOL    HW117313   9.653   8.957   1.246
38472SOL    HW217314   9.711   8.850   1.335
38473SOL     OW17315   8.818   9.315  11.753
38473SOL    HW117316   8.855   9.233  11.788
38473SOL    HW217317   8.732   9.322  11.794
38474SOL     OW17318   2.307   3.212  10.548
38474SOL    HW117319   2.253   3.136  10.527
38474SOL    HW217320   2.355   3.230  10.467
38475SOL     OW17321   9.800   9.412   5.460
38475SOL    HW117322   9.784   9.371   5.546
38475SOL    HW217323   9.809   9.505   5.479
38476SOL     OW17324  11.888   6.830  12.365
38476SOL    HW117325  11.885   6.914  12.411
38476SOL    HW217326  11.866   6.765  12.431
38477SOL     OW17327  12.224   0.479   6.655
38477SOL    HW117328  12.274   0.398   6.661
38477SOL    HW217329  12.290   0.549   6.660
38478SOL     OW17330  13.745  12.283   8.701
38478SOL    HW117331  13.723  12.190   8.692
38478SOL    HW217332  13.693  12.326   8.633
38479SOL     OW17333   6.248  12.539   8.843
38479SOL    HW117334   6.218  12.528   8.933
38479SOL    HW217335   6.253  12.634   8.831
38480SOL     OW17336  11.778   0.979   8.732
38480SOL    HW117337  11.855   0.960   8.785
38480SOL    HW217338  11.778   0.911   8.665
38481SOL     OW17339   5.806   3.654   6.434
38481SOL    HW117340   5.741   3.585   6.421
38481SOL    HW217341   5.891   3.610   6.424
38482SOL     OW17342   4.474   8.191  11.049
38482SOL    HW117343   4.420   8.195  10.971
38482SOL    HW217344   4.437   8.120  11.101
38483SOL     OW17345   7.197  10.065   6.643
38483SOL    HW117346   7.272  10.123   6.657
38483SOL    HW217347   7.226  10.005   6.575
38484SOL     OW17348   3.370  11.919  10.468
38484SOL    HW117349   3.336  11.965  10.544
38484SOL    HW217350   3.451  11.878  10.498
38485SOL     OW17351   7.161   1.511  11.495
38485SOL    HW117352   7.171   1.594  11.448
38485SOL    HW217353   7.077   1.520  11.541
38486SOL     OW17354   8.419   6.012  14.425
38486SOL    HW117355   8.358   6.077  14.460
38486SOL    HW217356   8.485   6.003  14.494
38487SOL     OW17357  13.108   9.184   5.712
38487SOL    HW117358  13.094   9.115   5.647
38487SOL    HW217359  13.168   9.145   5.775
38488SOL     OW17360   3.882  11.656  13.148
38488SOL    HW117361   3.789  11.634  13.140
38488SOL    HW217362   3.912  11.668  13.058
38489SOL     OW17363   7.315  14.758   1.979
38489SOL    HW117364   7.332  14.824   1.911
38489SOL    HW217365   7.392  14.760   2.034
38490SOL     OW17366  10.170   1.505   7.439
38490SOL    HW117367  10.191   1.455   7.518
38490SOL    HW217368  10.083   1.475   7.414
38491SOL     OW17369   7.218   1.577  12.060
38491SOL    HW117370   7.235   1.483  12.070
38491SOL    HW217371   7.176   1.585  11.975
38492SOL     OW17372   4.351  10.926   2.197
38492SOL    HW117373   4.429  10.920   2.142
38492SOL    HW217374   4.335  11.020   2.206
38493SOL     OW17375   5.196   8.671   0.587
38493SOL    HW117376   5.117   8.709   0.550
38493SOL    HW217377   5.184   8.676   0.682
38494SOL     OW17378   9.823   0.632  14.450
38494SOL    HW117379   9.898   0.692  14.455
38494SOL    HW217380   9.747   0.687  14.469
38495SOL     OW17381   0.040  13.442   0.071
38495SOL    HW117382   0.065  13.519   0.123
38495SOL    HW217383  14.837  13.424   0.097
38496SOL     OW17384   5.514   2.175   1.847
38496SOL    HW117385   5.480   2.255   1.887
38496SOL    HW217386   5.608   2.190   1.839
38497SOL     OW17387   7.882  11.342   8.487
38497SOL    HW117388   7.852  11.321   8.575
38497SOL    HW217389   7.851  11.431   8.471
38498SOL     OW17390   1.749   2.411  10.971
38498SOL    HW117391   1.673   2.372  11.014
38498SOL    HW217392   1.795   2.457  11.042
38499SOL     OW17393   4.054   3.109   9.166
38499SOL    HW117394   3.974   3.100   9.217
38499SOL    HW217395   4.105   3.176   9.212
38500SOL     OW17396  12.695  11.030   9.955
38500SOL    HW117397  12.639  10.973  10.009
38500SOL    HW217398  12.750  10.969   9.906
38501SOL     OW17399   6.677   4.621   5.109
38501SOL    HW117400   6.605   4.581   5.157
38501SOL    HW217401   6.754   4.569   5.133
38502SOL     OW17402   0.227   9.438  14.853
38502SOL    HW117403   0.237   9.464  14.762
38502SOL    HW217404   0.245   9.344  14.854
38503SOL     OW17405   2.725  11.265   5.250
38503SOL    HW117406   2.747  11.189   5.195
38503SOL    HW217407   2.807  11.314   5.257
38504SOL     OW17408  11.952   2.780   3.659
38504SOL    HW117409  11.936   2.832   3.580
38504SOL    HW217410  11.956   2.845   3.730
38505SOL     OW17411   2.163   5.887  11.602
38505SOL    HW117412   2.077   5.878  11.560
38505SOL    HW217413   2.226   5.868  11.533
38506SOL     OW17414   3.010   8.815  10.299
38506SOL    HW117415   3.027   8.838  10.390
38506SOL    HW217416   2.975   8.896  10.260
38507SOL     OW17417  10.687  10.655   2.958
38507SOL    HW117418  10.661  10.725   2.898
38507SOL    HW217419  10.604  10.619   2.991
38508SOL     OW17420   5.482   9.669   7.682
38508SOL    HW117421   5.560   9.654   7.629
38508SOL    HW217422   5.488   9.762   7.707
38509SOL     OW17423   4.915   5.530   5.189
38509SOL    HW117424   4.899   5.624   5.181
38509SOL    HW217425   4.883   5.508   5.276
38510SOL     OW17426   3.262  10.531  14.440
38510SOL    HW117427   3.220  10.594  14.498
38510SOL    HW217428   3.191  10.495  14.387
38511SOL     OW17429  14.340  13.302  11.599
38511SOL    HW117430  14.331  13.329  11.507
38511SOL    HW217431  14.382  13.377  11.642
38512SOL     OW17432   1.299  10.296   2.356
38512SOL    HW117433   1.325  10.372   2.304
38512SOL    HW217434   1.345  10.223   2.317
38513SOL     OW17435   0.405  11.168   1.225
38513SOL    HW117436   0.309  11.166   1.225
38513SOL    HW217437   0.427  11.208   1.309
38514SOL     OW17438   7.023   5.363   8.971
38514SOL    HW117439   7.085   5.293   8.992
38514SOL    HW217440   6.979   5.382   9.054
38515SOL     OW17441  13.607   8.149   8.848
38515SOL    HW117442  13.599   8.244   8.850
38515SOL    HW217443  13.653   8.130   8.766
38516SOL     OW17444   2.047   1.661  14.048
38516SOL    HW117445   2.131   1.644  14.091
38516SOL    HW217446   2.062   1.639  13.956
38517SOL     OW17447  14.578  12.329   5.661
38517SOL    HW117448  14.567  12.415   5.622
38517SOL    HW217449  14.497  12.315   5.711
38518SOL     OW17450  10.328  14.121   2.927
38518SOL    HW117451  10.272  14.086   2.858
38518SOL    HW217452  10.371  14.044   2.963
38519SOL     OW17453  13.445   4.198   1.140
38519SOL    HW117454  13.505   4.253   1.191
38519SOL    HW217455  13.399   4.259   1.083
38520SOL     OW17456   2.908   5.909   2.039
38520SOL    HW117457   2.849   5.972   2.080
38520SOL    HW217458   2.966   5.880   2.109
38521SOL     OW17459   5.054  12.899  13.613
38521SOL    HW117460   5.049  12.805  13.600
38521SOL    HW217461   5.064  12.935  13.525
38522SOL     OW17462   1.307   3.182   7.361
38522SOL    HW117463   1.393   3.149   7.334
38522SOL    HW217464   1.250   3.166   7.287
38523SOL     OW17465   0.994   6.795   8.520
38523SOL    HW117466   0.938   6.744   8.462
38523SOL    HW217467   0.939   6.869   8.547
38524SOL     OW17468  11.526  14.852  12.885
38524SOL    HW117469  11.593  14.830  12.950
38524SOL    HW217470  11.547   0.055  12.860
38525SOL     OW17471  13.733   9.902  10.639
38525SOL    HW117472  13.684   9.825  10.669
38525SOL    HW217473  13.691   9.927  10.556
38526SOL     OW17474   0.900   9.841   3.407
38526SOL    HW117475   0.943   9.921   3.376
38526SOL    HW217476   0.843   9.871   3.478
38527SOL     OW17477   5.012   4.104   2.822
38527SOL    HW117478   5.098   4.096   2.863
38527SOL    HW217479   4.987   4.196   2.836
38528SOL     OW17480   0.238   2.469   4.970
38528SOL    HW117481   0.293   2.394   4.992
38528SOL    HW217482   0.172   2.472   5.039
38529SOL     OW17483   3.187   9.519  12.940
38529SOL    HW117484   3.156   9.606  12.919
38529SOL    HW217485   3.198   9.520  13.035
38530SOL     OW17486  12.822  10.428  10.157
38530SOL    HW117487  12.793  10.343  10.124
38530SOL    HW217488  12.763  10.446  10.231
38531SOL     OW17489  11.905   6.163  13.378
38531SOL    HW117490  11.887   6.070  13.361
38531SOL    HW217491  11.823   6.207  13.357
38532SOL     OW17492   9.540   0.545   8.397
38532SOL    HW117493   9.585   0.462   8.382
38532SOL    HW217494   9.588   0.585   8.470
38533SOL     OW17495  14.237   7.154   3.574
38533SOL    HW117496  14.226   7.209   3.652
38533SOL    HW217497  14.182   7.078   3.591
38534SOL     OW17498   8.833   3.664   5.419
38534SOL    HW117499   8.836   3.631   5.509
38534SOL    HW217500   8.745   3.644   5.388
38535SOL     OW17501   0.468   3.460   0.242
38535SOL    HW117502   0.497   3.369   0.240
38535SOL    HW217503   0.549   3.511   0.248
38536SOL     OW17504  10.005  10.094   8.776
38536SOL    HW117505  10.000  10.169   8.835
38536SOL    HW217506  10.093  10.060   8.788
38537SOL     OW17507   8.934  14.433   3.744
38537SOL    HW117508   8.957  14.388   3.663
38537SOL    HW217509   8.845  14.404   3.764
38538SOL     OW17510   9.671  11.841  10.659
38538SOL    HW117511   9.650  11.766  10.714
38538SOL    HW217512   9.696  11.910  10.720
38539SOL     OW17513   9.077   2.921  10.550
38539SOL    HW117514   8.995   2.905  10.595
38539SOL    HW217515   9.066   2.879  10.465
38540SOL     OW17516  13.117   8.436   8.307
38540SOL    HW117517  13.129   8.389   8.389
38540SOL    HW217518  13.122   8.529   8.332
38541SOL     OW17519  13.783   4.227   0.996
38541SOL    HW117520  13.801   4.157   1.058
38541SOL    HW217521  13.722   4.189   0.934
38542SOL     OW17522   9.893   5.557  11.782
38542SOL    HW117523   9.970   5.607  11.756
38542SOL    HW217524   9.863   5.516  11.701
38543SOL     OW17525   5.026   4.236   2.352
38543SOL    HW117526   5.100   4.217   2.294
38543SOL    HW217527   5.065   4.281   2.427
38544SOL     OW17528   0.747   7.237   4.423
38544SOL    HW117529   0.706   7.183   4.491
38544SOL    HW217530   0.734   7.326   4.453
38545SOL     OW17531   9.435   9.373   6.170
38545SOL    HW117532   9.409   9.286   6.200
38545SOL    HW217533   9.378   9.433   6.218
38546SOL     OW17534   2.256   1.009   3.096
38546SOL    HW117535   2.284   0.949   3.165
38546SOL    HW217536   2.204   1.076   3.142
38547SOL     OW17537   7.114   7.358  11.943
38547SOL    HW117538   7.036   7.353  11.888
38547SOL    HW217539   7.089   7.316  12.025
38548SOL     OW17540  11.179   4.896   0.301
38548SOL    HW117541  11.219   4.980   0.279
38548SOL    HW217542  11.119   4.916   0.373
38549SOL     OW17543   9.135   4.234  13.780
38549SOL    HW117544   9.098   4.322  13.788
38549SOL    HW217545   9.135   4.216  13.686
38550SOL     OW17546   4.329  11.911   1.979
38550SOL    HW117547   4.301  11.827   2.017
38550SOL    HW217548   4.413  11.930   2.021
38551SOL     OW17549   4.372   1.566   7.881
38551SOL    HW117550   4.339   1.646   7.839
38551SOL    HW217551   4.465   1.583   7.896
38552SOL     OW17552  11.453   2.650   7.534
38552SOL    HW117553  11.397   2.668   7.459
38552SOL    HW217554  11.534   2.698   7.514
38553SOL     OW17555   2.623   3.110   9.581
38553SOL    HW117556   2.678   3.035   9.605
38553SOL    HW217557   2.560   3.117   9.653
38554SOL     OW17558   1.684  11.196  12.095
38554SOL    HW117559   1.623  11.122  12.102
38554SOL    HW217560   1.770  11.156  12.108
38555SOL     OW17561  14.339   2.587   1.868
38555SOL    HW117562  14.295   2.668   1.841
38555SOL    HW217563  14.426   2.594   1.830
38556SOL     OW17564   7.406   9.704  14.738
38556SOL    HW117565   7.456   9.751  14.805
38556SOL    HW217566   7.315   9.721  14.759
38557SOL     OW17567   6.556   0.806   6.896
38557SOL    HW117568   6.556   0.896   6.930
38557SOL    HW217569   6.498   0.809   6.820
38558SOL     OW17570   7.859  10.204   7.989
38558SOL    HW117571   7.782  10.228   8.040
38558SOL    HW217572   7.888  10.287   7.949
38559SOL     OW17573   3.217   1.084   5.286
38559SOL    HW117574   3.296   1.031   5.295
38559SOL    HW217575   3.237   1.165   5.333
38560SOL     OW17576  13.971   7.144  11.796
38560SOL    HW117577  13.894   7.107  11.838
38560SOL    HW217578  13.982   7.230  11.836
38561SOL     OW17579   5.491  10.244   3.942
38561SOL    HW117580   5.563  10.184   3.925
38561SOL    HW217581   5.454  10.261   3.855
38562SOL     OW17582  10.484   8.918   0.851
38562SOL    HW117583  10.422   8.847   0.831
38562SOL    HW217584  10.567   8.874   0.865
38563SOL     OW17585  13.047  11.153  11.589
38563SOL    HW117586  13.083  11.188  11.670
38563SOL    HW217587  13.121  11.113  11.544
38564SOL     OW17588  14.856  13.763  13.300
38564SOL    HW117589  14.789  13.706  13.261
38564SOL    HW217590  14.839  13.758  13.394
38565SOL     OW17591  12.792   8.189   4.691
38565SOL    HW117592  12.774   8.108   4.737
38565SOL    HW217593  12.875   8.219   4.727
38566SOL     OW17594   4.680   6.911  10.204
38566SOL    HW117595   4.757   6.960  10.175
38566SOL    HW217596   4.714   6.852  10.272
38567SOL     OW17597   2.930   3.973  10.638
38567SOL    HW117598   2.861   3.992  10.573
38567SOL    HW217599   2.885   3.973  10.722
38568SOL     OW17600   1.131   5.497   1.769
38568SOL    HW117601   1.108   5.501   1.862
38568SOL    HW217602   1.214   5.544   1.763
38569SOL     OW17603  11.589   5.182  13.989
38569SOL    HW117604  11.623   5.100  14.024
38569SOL    HW217605  11.640   5.197  13.909
38570SOL     OW17606  11.583   3.096  14.857
38570SOL    HW117607  11.572   3.104   0.064
38570SOL    HW217608  11.676   3.114  14.842
38571SOL     OW17609   7.235  11.720  11.852
38571SOL    HW117610   7.198  11.794  11.804
38571SOL    HW217611   7.196  11.643  11.811
38572SOL     OW17612   9.899  14.487   2.177
38572SOL    HW117613   9.993  14.497   2.192
38572SOL    HW217614   9.857  14.535   2.249
38573SOL     OW17615  14.164   3.664   3.431
38573SOL    HW117616  14.196   3.665   3.521
38573SOL    HW217617  14.172   3.754   3.402
38574SOL     OW17618   6.247   6.533   5.720
38574SOL    HW117619   6.208   6.533   5.633
38574SOL    HW217620   6.341   6.544   5.704
38575SOL     OW17621   8.673   3.048   0.357
38575SOL    HW117622   8.722   3.072   0.278
38575SOL    HW217623   8.675   3.126   0.411
38576SOL     OW17624  13.151   5.316   0.989
38576SOL    HW117625  13.135   5.278   0.902
38576SOL    HW217626  13.064   5.334   1.024
38577SOL     OW17627   1.831   2.521   0.012
38577SOL    HW117628   1.912   2.502   0.059
38577SOL    HW217629   1.795   2.598   0.056
38578SOL     OW17630  13.664  12.516   4.518
38578SOL    HW117631  13.710  12.576   4.577
38578SOL    HW217632  13.603  12.572   4.469
38579SOL     OW17633   6.187  13.450   2.371
38579SOL    HW117634   6.175  13.380   2.436
38579SOL    HW217635   6.221  13.524   2.422
38580SOL     OW17636   0.219  10.557  14.613
38580SOL    HW117637   0.263  10.640  14.595
38580SOL    HW217638   0.159  10.546  14.539
38581SOL     OW17639   0.299  10.594   6.493
38581SOL    HW117640   0.355  10.600   6.416
38581SOL    HW217641   0.272  10.685   6.510
38582SOL     OW17642   9.959  11.625  12.123
38582SOL    HW117643   9.869  11.643  12.148
38582SOL    HW217644   9.954  11.605  12.030
38583SOL     OW17645   2.945   7.793  14.305
38583SOL    HW117646   2.898   7.743  14.238
38583SOL    HW217647   2.924   7.748  14.387
38584SOL     OW17648   2.499  11.154  11.140
38584SOL    HW117649   2.583  11.115  11.118
38584SOL    HW217650   2.520  11.245  11.163
38585SOL     OW17651   6.525   0.005   7.680
38585SOL    HW117652   6.594  14.828   7.664
38585SOL    HW217653   6.458  14.872   7.615
38586SOL     OW17654  13.113   6.970  10.180
38586SOL    HW117655  13.158   7.053  10.197
38586SOL    HW217656  13.022   6.986  10.205
38587SOL     OW17657   6.391   3.634   4.668
38587SOL    HW117658   6.452   3.708   4.672
38587SOL    HW217659   6.431   3.567   4.723
38588SOL     OW17660   0.603  10.340   4.849
38588SOL    HW117661   0.608  10.247   4.824
38588SOL    HW217662   0.596  10.387   4.766
38589SOL     OW17663   5.210   4.867   5.474
38589SOL    HW117664   5.207   4.920   5.554
38589SOL    HW217665   5.163   4.787   5.496
38590SOL     OW17666   8.432   8.270  11.741
38590SOL    HW117667   8.467   8.315  11.817
38590SOL    HW217668   8.417   8.180  11.770
38591SOL     OW17669   8.187   8.262   1.315
38591SOL    HW117670   8.254   8.327   1.293
38591SOL    HW217671   8.148   8.239   1.231
38592SOL     OW17672   2.432  12.185  10.335
38592SOL    HW117673   2.363  12.119  10.328
38592SOL    HW217674   2.486  12.157  10.409
38593SOL     OW17675   8.173   2.969   8.498
38593SOL    HW117676   8.156   2.998   8.587
38593SOL    HW217677   8.118   2.892   8.486
38594SOL     OW17678  12.992   0.449   3.187
38594SOL    HW117679  12.956   0.523   3.236
38594SOL    HW217680  13.080   0.478   3.162
38595SOL     OW17681   9.843   8.584  10.580
38595SOL    HW117682   9.767   8.642  10.567
38595SOL    HW217683   9.816   8.525  10.649
38596SOL     OW17684  14.076  11.809  12.127
38596SOL    HW117685  14.100  11.728  12.172
38596SOL    HW217686  13.981  11.806  12.121
38597SOL     OW17687   4.934  10.901   3.003
38597SOL    HW117688   4.932  10.888   3.098
38597SOL    HW217689   4.945  10.813   2.966
38598SOL     OW17690  10.082   3.524   7.146
38598SOL    HW117691  10.125   3.439   7.149
38598SOL    HW217692   9.989   3.504   7.159
38599SOL     OW17693   9.643   2.645   6.735
38599SOL    HW117694   9.722   2.699   6.736
38599SOL    HW217695   9.577   2.699   6.778
38600SOL     OW17696   6.528  14.808   1.821
38600SOL    HW117697   6.544  14.876   1.887
38600SOL    HW217698   6.464  14.848   1.761
38601SOL     OW17699   1.598   0.635   2.159
38601SOL    HW117700   1.509   0.610   2.137
38601SOL    HW217701   1.639   0.553   2.188
38602SOL     OW17702   4.243  10.216   7.769
38602SOL    HW117703   4.286  10.184   7.690
38602SOL    HW217704   4.307  10.274   7.810
38603SOL     OW17705  12.852   2.824   3.819
38603SOL    HW117706  12.757   2.808   3.825
38603SOL    HW217707  12.872   2.877   3.896
38604SOL     OW17708   1.643  10.150  10.226
38604SOL    HW117709   1.588  10.225  10.201
38604SOL    HW217710   1.590  10.073  10.204
38605SOL     OW17711  10.433  11.634   8.870
38605SOL    HW117712  10.514  11.633   8.819
38605SOL    HW217713  10.376  11.570   8.827
38606SOL     OW17714   4.675   4.981   1.921
38606SOL    HW117715   4.626   4.918   1.868
38606SOL    HW217716   4.764   4.977   1.888
38607SOL     OW17717   9.052  14.568  14.126
38607SOL    HW117718   9.142  14.539  14.139
38607SOL    HW217719   9.051  14.660  14.153
38608SOL     OW17720   0.995   0.438   2.760
38608SOL    HW117721   1.049   0.516   2.770
38608SOL    HW217722   0.972   0.437   2.667
38609SOL     OW17723   5.952  12.897   1.845
38609SOL    HW117724   5.987  12.985   1.858
38609SOL    HW217725   5.870  12.896   1.893
38610SOL     OW17726   1.264   0.119  12.270
38610SOL    HW117727   1.348   0.076  12.253
38610SOL    HW217728   1.244   0.099  12.361
38611SOL     OW17729   6.221  10.344   9.340
38611SOL    HW117730   6.133  10.379   9.349
38611SOL    HW217731   6.209  10.258   9.300
38612SOL     OW17732   1.730  14.176  12.145
38612SOL    HW117733   1.642  14.195  12.178
38612SOL    HW217734   1.747  14.086  12.172
38613SOL     OW17735   1.884  10.954  12.865
38613SOL    HW117736   1.878  10.963  12.770
38613SOL    HW217737   1.872  10.860  12.881
38614SOL     OW17738  11.654   7.448   1.742
38614SOL    HW117739  11.693   7.376   1.793
38614SOL    HW217740  11.709   7.455   1.664
38615SOL     OW17741   8.116   6.516   2.085
38615SOL    HW117742   8.201   6.514   2.040
38615SOL    HW217743   8.052   6.497   2.017
38616SOL     OW17744   8.016  11.874   7.427
38616SOL    HW117745   8.084  11.940   7.415
38616SOL    HW217746   8.012  11.829   7.343
38617SOL     OW17747   4.755  14.539  10.471
38617SOL    HW117748   4.791  14.453  10.450
38617SOL    HW217749   4.724  14.531  10.561
38618SOL     OW17750   8.240   8.349  12.085
38618SOL    HW117751   8.262   8.436  12.052
38618SOL    HW217752   8.313   8.326  12.142
38619SOL     OW17753   6.818  10.420   9.592
38619SOL    HW117754   6.867  10.462   9.661
38619SOL    HW217755   6.726  10.440   9.611
38620SOL     OW17756   8.596   9.905   2.882
38620SOL    HW117757   8.658   9.954   2.936
38620SOL    HW217758   8.529   9.969   2.859
38621SOL     OW17759  13.411   9.242  10.382
38621SOL    HW117760  13.479   9.277  10.439
38621SOL    HW217761  13.415   9.147  10.395
38622SOL     OW17762   1.895   8.507  14.688
38622SOL    HW117763   1.812   8.517  14.642
38622SOL    HW217764   1.884   8.556  14.769
38623SOL     OW17765  11.169  14.583  10.569
38623SOL    HW117766  11.249  14.579  10.516
38623SOL    HW217767  11.186  14.650  10.635
38624SOL     OW17768   0.999   1.759  13.800
38624SOL    HW117769   1.086   1.798  13.802
38624SOL    HW217770   0.951   1.809  13.735
38625SOL     OW17771   5.767  14.210   5.328
38625SOL    HW117772   5.797  14.254   5.249
38625SOL    HW217773   5.846  14.169   5.364
38626SOL     OW17774  12.894   1.441   1.451
38626SOL    HW117775  12.926   1.423   1.362
38626SOL    HW217776  12.937   1.375   1.505
38627SOL     OW17777   0.319   1.767   8.831
38627SOL    HW117778   0.296   1.783   8.739
38627SOL    HW217779   0.356   1.679   8.832
38628SOL     OW17780   2.236   7.270   0.523
38628SOL    HW117781   2.273   7.210   0.588
38628SOL    HW217782   2.225   7.353   0.570
38629SOL     OW17783  14.035   8.900  14.036
38629SOL    HW117784  14.042   8.805  14.044
38629SOL    HW217785  13.948   8.914  13.997
38630SOL     OW17786  14.248   0.910   3.659
38630SOL    HW117787  14.275   0.837   3.603
38630SOL    HW217788  14.228   0.870   3.743
38631SOL     OW17789   3.819   5.917  11.774
38631SOL    HW117790   3.818   5.823  11.757
38631SOL    HW217791   3.727   5.944  11.768
38632SOL     OW17792  10.217  13.606   6.359
38632SOL    HW117793  10.166  13.681   6.330
38632SOL    HW217794  10.273  13.641   6.428
38633SOL     OW17795   7.255  14.330   9.481
38633SOL    HW117796   7.248  14.420   9.450
38633SOL    HW217797   7.347  14.319   9.504
38634SOL     OW17798  14.255   5.189  12.134
38634SOL    HW117799  14.185   5.250  12.153
38634SOL    HW217800  14.239   5.115  12.192
38635SOL     OW17801   6.452  12.633  13.952
38635SOL    HW117802   6.537  12.657  13.987
38635SOL    HW217803   6.396  12.709  13.970
38636SOL     OW17804   5.104  11.386   3.184
38636SOL    HW117805   5.135  11.371   3.273
38636SOL    HW217806   5.010  11.402   3.194
38637SOL     OW17807  10.606   3.279   2.645
38637SOL    HW117808  10.613   3.277   2.550
38637SOL    HW217809  10.578   3.191   2.669
38638SOL     OW17810  11.230   3.671   8.523
38638SOL    HW117811  11.319   3.706   8.514
38638SOL    HW217812  11.188   3.730   8.585
38639SOL     OW17813  12.898   4.244   3.007
38639SOL    HW117814  12.886   4.288   3.090
38639SOL    HW217815  12.864   4.155   3.020
38640SOL     OW17816   4.048   8.183   9.258
38640SOL    HW117817   4.099   8.238   9.199
38640SOL    HW217818   4.101   8.103   9.267
38641SOL     OW17819  11.329  13.077   7.954
38641SOL    HW117820  11.382  13.145   7.912
38641SOL    HW217821  11.267  13.050   7.886
38642SOL     OW17822   4.208  14.685  11.127
38642SOL    HW117823   4.199  14.777  11.102
38642SOL    HW217824   4.147  14.639  11.069
38643SOL     OW17825   6.097   3.854   5.513
38643SOL    HW117826   6.178   3.805   5.521
38643SOL    HW217827   6.047   3.806   5.447
38644SOL     OW17828   5.860   4.637  11.697
38644SOL    HW117829   5.910   4.711  11.732
38644SOL    HW217830   5.872   4.643  11.602
38645SOL     OW17831   4.404  12.593   0.519
38645SOL    HW117832   4.368  12.538   0.450
38645SOL    HW217833   4.331  12.650   0.545
38646SOL     OW17834   5.944   2.731   8.062
38646SOL    HW117835   5.895   2.664   8.108
38646SOL    HW217836   6.026   2.739   8.110
38647SOL     OW17837   2.937   8.600   0.763
38647SOL    HW117838   2.978   8.660   0.826
38647SOL    HW217839   2.866   8.559   0.812
38648SOL     OW17840  11.618  12.706  11.682
38648SOL    HW117841  11.660  12.627  11.647
38648SOL    HW217842  11.691  12.761  11.713
38649SOL     OW17843   9.850   1.442  11.318
38649SOL    HW117844   9.886   1.477  11.399
38649SOL    HW217845   9.924   1.444  11.257
38650SOL     OW17846   9.454   8.040   5.774
38650SOL    HW117847   9.419   8.124   5.804
38650SOL    HW217848   9.547   8.056   5.763
38651SOL     OW17849  10.178  12.269   8.255
38651SOL    HW117850  10.107  12.322   8.217
38651SOL    HW217851  10.136  12.223   8.328
38652SOL     OW17852  13.652   1.210   5.878
38652SOL    HW117853  13.664   1.304   5.868
38652SOL    HW217854  13.593   1.185   5.807
38653SOL     OW17855  12.890  10.782   5.815
38653SOL    HW117856  12.951  10.724   5.770
38653SOL    HW217857  12.809  10.731   5.822
38654SOL     OW17858  12.356   6.604   3.010
38654SOL    HW117859  12.299   6.530   3.032
38654SOL    HW217860  12.377   6.591   2.918
38655SOL     OW17861   1.966  11.058   1.828
38655SOL    HW117862   2.044  11.083   1.877
38655SOL    HW217863   1.925  11.141   1.805
38656SOL     OW17864   1.042  11.961   6.186
38656SOL    HW117865   1.014  11.872   6.210
38656SOL    HW217866   1.121  11.976   6.237
38657SOL     OW17867  13.698   9.078  14.390
38657SOL    HW117868  13.711   9.161  14.343
38657SOL    HW217869  13.676   9.015  14.321
38658SOL     OW17870   9.650   9.716   3.823
38658SOL    HW117871   9.640   9.721   3.728
38658SOL    HW217872   9.731   9.666   3.836
38659SOL     OW17873   3.219   9.511   9.902
38659SOL    HW117874   3.212   9.607   9.901
38659SOL    HW217875   3.221   9.486   9.810
38660SOL     OW17876  11.720   1.573  11.102
38660SOL    HW117877  11.639   1.543  11.060
38660SOL    HW217878  11.773   1.495  11.110
38661SOL     OW17879   1.465   9.448  12.577
38661SOL    HW117880   1.374   9.446  12.549
38661SOL    HW217881   1.497   9.359  12.564
38662SOL     OW17882   2.837  13.739   1.854
38662SOL    HW117883   2.905  13.771   1.794
38662SOL    HW217884   2.858  13.780   1.938
38663SOL     OW17885   4.295   4.807  12.975
38663SOL    HW117886   4.373   4.814  13.030
38663SOL    HW217887   4.328   4.775  12.891
38664SOL     OW17888   1.732  14.078   1.127
38664SOL    HW117889   1.794  14.138   1.085
38664SOL    HW217890   1.656  14.077   1.069
38665SOL     OW17891  11.695   6.416  14.591
38665SOL    HW117892  11.712   6.484  14.656
38665SOL    HW217893  11.611   6.379  14.616
38666SOL     OW17894   7.951   9.471  14.567
38666SOL    HW117895   7.907   9.419  14.500
38666SOL    HW217896   7.903   9.451  14.648
38667SOL     OW17897   4.139   6.573   3.458
38667SOL    HW117898   4.149   6.515   3.533
38667SOL    HW217899   4.227   6.580   3.421
38668SOL     OW17900  12.304   1.163   1.264
38668SOL    HW117901  12.381   1.182   1.211
38668SOL    HW217902  12.282   1.247   1.305
38669SOL     OW17903  11.783   6.018   7.095
38669SOL    HW117904  11.787   6.100   7.047
38669SOL    HW217905  11.825   5.953   7.038
38670SOL     OW17906  11.564   6.519   7.415
38670SOL    HW117907  11.555   6.614   7.405
38670SOL    HW217908  11.590   6.488   7.327
38671SOL     OW17909   8.838   8.533  10.186
38671SOL    HW117910   8.863   8.593  10.116
38671SOL    HW217911   8.783   8.586  10.244
38672SOL     OW17912   9.592   8.230   6.423
38672SOL    HW117913   9.566   8.318   6.394
38672SOL    HW217914   9.554   8.172   6.357
38673SOL     OW17915  13.425  13.538   2.609
38673SOL    HW117916  13.449  13.449   2.634
38673SOL    HW217917  13.412  13.534   2.515
38674SOL     OW17918   9.461  13.801   4.488
38674SOL    HW117919   9.418  13.755   4.560
38674SOL    HW217920   9.442  13.894   4.504
38675SOL     OW17921  13.562  14.584   8.010
38675SOL    HW117922  13.555  14.677   8.030
38675SOL    HW217923  13.471  14.554   8.003
38676SOL     OW17924   2.618   8.829  10.808
38676SOL    HW117925   2.571   8.745  10.807
38676SOL    HW217926   2.601   8.867  10.722
38677SOL     OW17927   8.975   3.470   5.229
38677SOL    HW117928   8.930   3.528   5.290
38677SOL    HW217929   9.027   3.412   5.284
38678SOL     OW17930  13.803   9.316  12.104
38678SOL    HW117931  13.723   9.268  12.082
38678SOL    HW217932  13.843   9.265  12.174
38679SOL     OW17933   2.187   8.851   9.976
38679SOL    HW117934   2.273   8.807   9.976
38679SOL    HW217935   2.144   8.818  10.055
38680SOL     OW17936  10.804   5.989  12.378
38680SOL    HW117937  10.758   6.072  12.389
38680SOL    HW217938  10.891   6.014  12.349
38681SOL     OW17939   5.290   4.407   5.941
38681SOL    HW117940   5.234   4.485   5.945
38681SOL    HW217941   5.247   4.343   5.997
38682SOL     OW17942   3.082   0.495   0.330
38682SOL    HW117943   3.092   0.524   0.420
38682SOL    HW217944   2.992   0.463   0.325
38683SOL     OW17945  11.960   9.658  13.108
38683SOL    HW117946  11.893   9.595  13.083
38683SOL    HW217947  11.952   9.729  13.044
38684SOL     OW17948   7.312   6.530   7.149
38684SOL    HW117949   7.342   6.621   7.143
38684SOL    HW217950   7.354   6.495   7.228
38685SOL     OW17951   0.148   6.250   1.819
38685SOL    HW117952   0.233   6.228   1.857
38685SOL    HW217953   0.123   6.173   1.769
38686SOL     OW17954   3.423   7.354  11.656
38686SOL    HW117955   3.514   7.365  11.685
38686SOL    HW217956   3.389   7.283  11.710
38687SOL     OW17957   6.251  12.022  12.261
38687SOL    HW117958   6.172  12.003  12.209
38687SOL    HW217959   6.235  12.109  12.296
38688SOL     OW17960   0.489   6.690  12.295
38688SOL    HW117961   0.510   6.660  12.206
38688SOL    HW217962   0.516   6.618  12.351
38689SOL     OW17963  14.334   2.148   3.411
38689SOL    HW117964  14.326   2.065   3.456
38689SOL    HW217965  14.250   2.159   3.365
38690SOL     OW17966  11.688   7.676   9.784
38690SOL    HW117967  11.625   7.608   9.806
38690SOL    HW217968  11.668   7.747   9.845
38691SOL     OW17969   5.577  13.182   5.887
38691SOL    HW117970   5.588  13.232   5.806
38691SOL    HW217971   5.620  13.235   5.953
38692SOL     OW17972   3.954  10.791   2.864
38692SOL    HW117973   3.934  10.743   2.945
38692SOL    HW217974   3.896  10.753   2.799
38693SOL     OW17975  14.711   6.580   3.969
38693SOL    HW117976  14.708   6.671   3.938
38693SOL    HW217977  14.705   6.586   4.064
38694SOL     OW17978   9.450   6.523   7.793
38694SOL    HW117979   9.361   6.492   7.777
38694SOL    HW217980   9.505   6.447   7.776
38695SOL     OW17981   9.406  14.469   7.492
38695SOL    HW117982   9.405  14.412   7.416
38695SOL    HW217983   9.488  14.447   7.537
38696SOL     OW17984   4.457   8.744   5.112
38696SOL    HW117985   4.380   8.689   5.105
38696SOL    HW217986   4.427   8.831   5.087
38697SOL     OW17987  12.941  11.924   3.520
38697SOL    HW117988  12.907  11.856   3.462
38697SOL    HW217989  12.881  11.923   3.595
38698SOL     OW17990  13.880   2.092   3.539
38698SOL    HW117991  13.926   2.085   3.456
38698SOL    HW217992  13.895   2.008   3.583
38699SOL     OW17993  14.495   9.457  10.089
38699SOL    HW117994  14.574   9.403  10.095
38699SOL    HW217995  14.486   9.497  10.175
38700SOL     OW17996  11.471  13.978   4.551
38700SOL    HW117997  11.510  14.059   4.519
38700SOL    HW217998  11.491  13.913   4.484
38701SOL     OW17999   1.158  13.142  10.845
38701SOL    HW118000   1.106  13.062  10.854
38701SOL    HW218001   1.169  13.154  10.750
38702SOL     OW18002  11.992  14.102   7.915
38702SOL    HW118003  12.037  14.186   7.930
38702SOL    HW218004  11.914  14.106   7.970
38703SOL     OW18005  13.830   8.891   4.193
38703SOL    HW118006  13.813   8.981   4.221
38703SOL    HW218007  13.845   8.843   4.274
38704SOL     OW18008  11.260  14.124  14.095
38704SOL    HW118009  11.271  14.099  14.187
38704SOL    HW218010  11.249  14.220  14.098
38705SOL     OW18011   0.257  12.156   2.857
38705SOL    HW118012   0.229  12.082   2.803
38705SOL    HW218013   0.314  12.207   2.800
38706SOL     OW18014  11.808   3.003  12.657
38706SOL    HW118015  11.839   3.036  12.741
38706SOL    HW218016  11.813   3.079  12.599
38707SOL     OW18017  10.627   8.011   4.106
38707SOL    HW118018  10.600   8.084   4.052
38707SOL    HW218019  10.660   7.945   4.045
38708SOL     OW18020   4.159   1.969  10.472
38708SOL    HW118021   4.168   1.901  10.540
38708SOL    HW218022   4.098   1.932  10.409
38709SOL     OW18023   4.690   0.503  13.103
38709SOL    HW118024   4.654   0.552  13.029
38709SOL    HW218025   4.683   0.562  13.177
38710SOL     OW18026   8.883   6.261   6.376
38710SOL    HW118027   8.844   6.244   6.290
38710SOL    HW218028   8.967   6.304   6.356
38711SOL     OW18029   2.445   2.080  12.493
38711SOL    HW118030   2.376   2.147  12.494
38711SOL    HW218031   2.502   2.106  12.420
38712SOL     OW18032  12.701   4.109   4.867
38712SOL    HW118033  12.625   4.163   4.886
38712SOL    HW218034  12.706   4.107   4.772
38713SOL     OW18035   5.089  10.286   5.922
38713SOL    HW118036   5.040  10.346   5.978
38713SOL    HW218037   5.152  10.244   5.981
38714SOL     OW18038   4.260  12.007   0.836
38714SOL    HW118039   4.226  12.028   0.749
38714SOL    HW218040   4.281  12.092   0.874
38715SOL     OW18041  13.367   3.569   2.277
38715SOL    HW118042  13.335   3.541   2.363
38715SOL    HW218043  13.458   3.594   2.292
38716SOL     OW18044   6.035  14.174   2.359
38716SOL    HW118045   5.955  14.153   2.407
38716SOL    HW218046   6.099  14.192   2.427
38717SOL     OW18047   6.734   8.326  10.551
38717SOL    HW118048   6.757   8.234  10.538
38717SOL    HW218049   6.815   8.367  10.580
38718SOL     OW18050   9.123   1.510   2.023
38718SOL    HW118051   9.054   1.514   2.090
38718SOL    HW218052   9.082   1.464   1.949
38719SOL     OW18053   3.054  12.403   6.944
38719SOL    HW118054   3.062  12.442   6.856
38719SOL    HW218055   3.091  12.315   6.935
38720SOL     OW18056   3.140   1.002  12.218
38720SOL    HW118057   3.109   1.071  12.276
38720SOL    HW218058   3.154   0.927  12.276
38721SOL     OW18059   3.294   2.824  13.362
38721SOL    HW118060   3.202   2.831  13.336
38721SOL    HW218061   3.342   2.850  13.284
38722SOL     OW18062   9.319   1.091  11.142
38722SOL    HW118063   9.295   1.090  11.049
38722SOL    HW218064   9.264   1.159  11.180
38723SOL     OW18065   3.599   1.776  12.964
38723SOL    HW118066   3.587   1.757  13.057
38723SOL    HW218067   3.511   1.777  12.929
38724SOL     OW18068  14.459  14.209   0.799
38724SOL    HW118069  14.400  14.136   0.815
38724SOL    HW218070  14.407  14.271   0.746
38725SOL     OW18071   5.417   9.624   6.506
38725SOL    HW118072   5.451   9.694   6.450
38725SOL    HW218073   5.475   9.550   6.488
38726SOL     OW18074  13.624   8.673   4.758
38726SOL    HW118075  13.688   8.704   4.823
38726SOL    HW218076  13.650   8.583   4.740
38727SOL     OW18077  12.477   9.240   3.441
38727SOL    HW118078  12.501   9.311   3.382
38727SOL    HW218079  12.541   9.245   3.512
38728SOL     OW18080  11.087  10.279   0.121
38728SOL    HW118081  11.079  10.224   0.042
38728SOL    HW218082  11.046  10.227   0.190
38729SOL     OW18083  10.203  10.053   2.245
38729SOL    HW118084  10.171  10.141   2.262
38729SOL    HW218085  10.184  10.004   2.326
38730SOL     OW18086   5.365   4.034   5.653
38730SOL    HW118087   5.402   4.084   5.580
38730SOL    HW218088   5.277   4.010   5.625
38731SOL     OW18089   5.170   1.984   2.251
38731SOL    HW118090   5.239   1.997   2.186
38731SOL    HW218091   5.216   1.977   2.334
38732SOL     OW18092   5.373   4.570   8.932
38732SOL    HW118093   5.404   4.565   8.842
38732SOL    HW218094   5.369   4.479   8.961
38733SOL     OW18095   2.840  13.166  12.389
38733SOL    HW118096   2.826  13.209  12.474
38733SOL    HW218097   2.758  13.120  12.371
38734SOL     OW18098   1.447  14.219   8.529
38734SOL    HW118099   1.511  14.235   8.460
38734SOL    HW218100   1.418  14.306   8.555
38735SOL     OW18101   9.699  14.140   8.895
38735SOL    HW118102   9.736  14.138   8.983
38735SOL    HW218103   9.747  14.210   8.851
38736SOL     OW18104   3.632   1.064  12.976
38736SOL    HW118105   3.683   1.089  13.053
38736SOL    HW218106   3.677   1.106  12.902
38737SOL     OW18107  11.989   1.410   2.609
38737SOL    HW118108  11.924   1.480   2.615
38737SOL    HW218109  11.941   1.335   2.573
38738SOL     OW18110   5.836   6.895  13.951
38738SOL    HW118111   5.752   6.939  13.939
38738SOL    HW218112   5.826   6.847  14.033
38739SOL     OW18113  12.900  14.734   5.079
38739SOL    HW118114  12.976  14.786   5.107
38739SOL    HW218115  12.826  14.793   5.089
38740SOL     OW18116   3.256   8.849   7.906
38740SOL    HW118117   3.333   8.885   7.950
38740SOL    HW218118   3.248   8.900   7.825
38741SOL     OW18119  14.535   7.388   8.788
38741SOL    HW118120  14.630   7.379   8.794
38741SOL    HW218121  14.512   7.448   8.860
38742SOL     OW18122   7.909   7.475   9.648
38742SOL    HW118123   7.925   7.511   9.561
38742SOL    HW218124   7.994   7.443   9.676
38743SOL     OW18125  13.437   5.847   8.933
38743SOL    HW118126  13.414   5.826   9.023
38743SOL    HW218127  13.517   5.798   8.916
38744SOL     OW18128  12.317   5.687  12.095
38744SOL    HW118129  12.318   5.660  12.187
38744SOL    HW218130  12.281   5.775  12.096
38745SOL     OW18131   6.038   2.731   6.462
38745SOL    HW118132   6.041   2.781   6.380
38745SOL    HW218133   6.099   2.658   6.447
38746SOL     OW18134  11.415   6.716   1.847
38746SOL    HW118135  11.321   6.729   1.861
38746SOL    HW218136  11.424   6.623   1.827
38747SOL     OW18137   0.809   1.980  10.592
38747SOL    HW118138   0.857   1.983  10.675
38747SOL    HW218139   0.765   2.064  10.587
38748SOL     OW18140  12.411   7.463   0.885
38748SOL    HW118141  12.331   7.514   0.895
38748SOL    HW218142  12.440   7.445   0.975
38749SOL     OW18143   0.703   2.864   0.818
38749SOL    HW118144   0.767   2.900   0.757
38749SOL    HW218145   0.689   2.933   0.882
38750SOL     OW18146   7.625  13.602  10.778
38750SOL    HW118147   7.682  13.677  10.761
38750SOL    HW218148   7.541  13.641  10.803
38751SOL     OW18149   4.572   0.781  11.864
38751SOL    HW118150   4.645   0.747  11.813
38751SOL    HW218151   4.496   0.730  11.834
38752SOL     OW18152   7.874   1.729   4.904
38752SOL    HW118153   7.886   1.634   4.898
38752SOL    HW218154   7.963   1.764   4.899
38753SOL     OW18155   5.586   3.858   2.022
38753SOL    HW118156   5.521   3.792   2.047
38753SOL    HW218157   5.540   3.915   1.960
38754SOL     OW18158   6.417   2.731  13.135
38754SOL    HW118159   6.355   2.804  13.141
38754SOL    HW218160   6.492   2.768  13.087
38755SOL     OW18161  13.603  14.369  12.575
38755SOL    HW118162  13.686  14.405  12.607
38755SOL    HW218163  13.605  14.386  12.481
38756SOL     OW18164   6.606   0.782  14.608
38756SOL    HW118165   6.636   0.853  14.551
38756SOL    HW218166   6.626   0.702  14.560
38757SOL     OW18167  11.022   8.381  14.323
38757SOL    HW118168  10.965   8.457  14.335
38757SOL    HW218169  11.100   8.401  14.374
38758SOL     OW18170  11.527   5.633  10.007
38758SOL    HW118171  11.553   5.620   9.916
38758SOL    HW218172  11.471   5.558  10.027
38759SOL     OW18173   2.415  11.351   0.777
38759SOL    HW118174   2.474  11.376   0.848
38759SOL    HW218175   2.334  11.399   0.794
38760SOL     OW18176   5.568   1.182  13.634
38760SOL    HW118177   5.592   1.251  13.695
38760SOL    HW218178   5.519   1.226  13.564
38761SOL     OW18179   7.013   4.077   0.626
38761SOL    HW118180   7.030   4.132   0.702
38761SOL    HW218181   7.061   3.996   0.643
38762SOL     OW18182   2.007  10.172   7.555
38762SOL    HW118183   2.024  10.103   7.491
38762SOL    HW218184   1.920  10.205   7.533
38763SOL     OW18185   8.459   9.735   9.584
38763SOL    HW118186   8.365   9.718   9.580
38763SOL    HW218187   8.472   9.780   9.667
38764SOL     OW18188   5.374  12.745   1.199
38764SOL    HW118189   5.432  12.735   1.275
38764SOL    HW218190   5.288  12.716   1.230
38765SOL     OW18191   3.271   4.356   1.484
38765SOL    HW118192   3.284   4.280   1.428
38765SOL    HW218193   3.354   4.403   1.481
38766SOL     OW18194  14.154   5.407   9.758
38766SOL    HW118195  14.176   5.449   9.841
38766SOL    HW218196  14.227   5.347   9.742
38767SOL     OW18197   9.032  13.703   0.501
38767SOL    HW118198   9.075  13.771   0.448
38767SOL    HW218199   9.098  13.635   0.510
38768SOL     OW18200   4.986   8.998  14.543
38768SOL    HW118201   5.038   8.983  14.621
38768SOL    HW218202   4.945   9.084  14.557
38769SOL     OW18203   9.219   7.976   2.002
38769SOL    HW118204   9.217   7.895   2.053
38769SOL    HW218205   9.190   8.044   2.063
38770SOL     OW18206  12.590   3.436   4.885
38770SOL    HW118207  12.591   3.402   4.796
38770SOL    HW218208  12.504   3.476   4.895
38771SOL     OW18209   9.392   3.949   7.626
38771SOL    HW118210   9.389   3.913   7.537
38771SOL    HW218211   9.444   3.885   7.675
38772SOL     OW18212   1.827  11.823  12.435
38772SOL    HW118213   1.752  11.792  12.384
38772SOL    HW218214   1.826  11.918  12.425
38773SOL     OW18215   8.178   6.376  10.855
38773SOL    HW118216   8.129   6.349  10.933
38773SOL    HW218217   8.179   6.472  10.860
38774SOL     OW18218  12.134   1.982   7.116
38774SOL    HW118219  12.082   2.006   7.039
38774SOL    HW218220  12.207   2.045   7.116
38775SOL     OW18221  11.126  14.509   9.099
38775SOL    HW118222  11.090  14.470   9.179
38775SOL    HW218223  11.159  14.434   9.048
38776SOL     OW18224  13.154  12.182  10.618
38776SOL    HW118225  13.190  12.169  10.531
38776SOL    HW218226  13.070  12.225  10.603
38777SOL     OW18227   9.245   8.381   1.893
38777SOL    HW118228   9.332   8.402   1.861
38777SOL    HW218229   9.197   8.464   1.887
38778SOL     OW18230  14.333   1.452   4.035
38778SOL    HW118231  14.281   1.447   4.115
38778SOL    HW218232  14.293   1.388   3.976
38779SOL     OW18233   2.322  13.240   0.737
38779SOL    HW118234   2.304  13.238   0.831
38779SOL    HW218235   2.238  13.224   0.695
38780SOL     OW18236   6.017   0.244   6.652
38780SOL    HW118237   5.987   0.204   6.570
38780SOL    HW218238   5.940   0.244   6.708
38781SOL     OW18239   7.915   8.182   5.129
38781SOL    HW118240   7.945   8.266   5.163
38781SOL    HW218241   7.839   8.160   5.184
38782SOL     OW18242   2.398   2.176   6.013
38782SOL    HW118243   2.368   2.219   5.933
38782SOL    HW218244   2.491   2.200   6.019
38783SOL     OW18245   7.259   1.265  11.818
38783SOL    HW118246   7.252   1.295  11.909
38783SOL    HW218247   7.254   1.170  11.824
38784SOL     OW18248   9.633   0.944   2.635
38784SOL    HW118249   9.548   0.922   2.599
38784SOL    HW218250   9.691   0.950   2.559
38785SOL     OW18251   4.759   6.964   8.988
38785SOL    HW118252   4.845   6.928   8.965
38785SOL    HW218253   4.762   6.974   9.083
38786SOL     OW18254   3.738  10.084  13.617
38786SOL    HW118255   3.821  10.101  13.573
38786SOL    HW218256   3.686  10.037  13.551
38787SOL     OW18257   0.298   4.928   2.617
38787SOL    HW118258   0.298   4.859   2.683
38787SOL    HW218259   0.344   5.001   2.658
38788SOL     OW18260   9.488   7.778   7.876
38788SOL    HW118261   9.502   7.782   7.970
38788SOL    HW218262   9.555   7.716   7.845
38789SOL     OW18263  12.750  13.061  13.928
38789SOL    HW118264  12.835  13.085  13.892
38789SOL    HW218265  12.766  13.050  14.022
38790SOL     OW18266   4.857   7.212   5.955
38790SOL    HW118267   4.774   7.175   5.925
38790SOL    HW218268   4.856   7.302   5.922
38791SOL     OW18269   3.282   3.309  14.464
38791SOL    HW118270   3.222   3.356  14.406
38791SOL    HW218271   3.360   3.364  14.467
38792SOL     OW18272  12.082   6.437   3.874
38792SOL    HW118273  12.059   6.527   3.898
38792SOL    HW218274  12.069   6.387   3.954
38793SOL     OW18275   7.936   6.782   6.276
38793SOL    HW118276   7.986   6.777   6.357
38793SOL    HW218277   7.942   6.874   6.250
38794SOL     OW18278  11.976   3.591   7.424
38794SOL    HW118279  11.917   3.577   7.349
38794SOL    HW218280  11.920   3.581   7.500
38795SOL     OW18281   8.720   0.478   1.928
38795SOL    HW118282   8.791   0.435   1.881
38795SOL    HW218283   8.736   0.458   2.020
38796SOL     OW18284   9.840   3.725   1.044
38796SOL    HW118285   9.809   3.684   0.963
38796SOL    HW218286   9.873   3.653   1.097
38797SOL     OW18287   6.967  12.505  14.760
38797SOL    HW118288   6.933  12.525  14.848
38797SOL    HW218289   6.930  12.573  14.704
38798SOL     OW18290   6.257  13.076   0.876
38798SOL    HW118291   6.284  13.115   0.793
38798SOL    HW218292   6.323  13.010   0.895
38799SOL     OW18293   7.254   2.938   0.919
38799SOL    HW118294   7.298   2.857   0.946
38799SOL    HW218295   7.180   2.948   0.979
38800SOL     OW18296   5.213   3.557  14.825
38800SOL    HW118297   5.281   3.613  14.787
38800SOL    HW218298   5.148   3.548  14.755
38801SOL     OW18299  11.985  11.589  13.338
38801SOL    HW118300  11.900  11.549  13.318
38801SOL    HW218301  11.963  11.675  13.374
38802SOL     OW18302  14.777  11.400   3.451
38802SOL    HW118303  14.853  11.458   3.443
38802SOL    HW218304  14.748  11.411   3.541
38803SOL     OW18305   7.924   2.855   2.929
38803SOL    HW118306   7.894   2.799   2.857
38803SOL    HW218307   7.997   2.904   2.891
38804SOL     OW18308   0.983   1.872   8.628
38804SOL    HW118309   0.914   1.937   8.617
38804SOL    HW218310   1.064   1.921   8.617
38805SOL     OW18311   7.363   5.960  12.456
38805SOL    HW118312   7.274   5.936  12.483
38805SOL    HW218313   7.351   6.025  12.387
38806SOL     OW18314   8.305   8.722  12.149
38806SOL    HW118315   8.275   8.692  12.235
38806SOL    HW218316   8.383   8.773  12.167
38807SOL     OW18317  14.873  10.993   5.847
38807SOL    HW118318   0.033  11.012   5.928
38807SOL    HW218319  14.802  10.935   5.874
38808SOL     OW18320   9.441  10.527  11.036
38808SOL    HW118321   9.357  10.487  11.012
38808SOL    HW218322   9.461  10.586  10.963
38809SOL     OW18323  13.596   9.782   9.550
38809SOL    HW118324  13.609   9.692   9.581
38809SOL    HW218325  13.601   9.836   9.630
38810SOL     OW18326   0.549   6.063   9.046
38810SOL    HW118327   0.557   6.141   9.100
38810SOL    HW218328   0.565   5.990   9.106
38811SOL     OW18329   3.057   5.239   5.127
38811SOL    HW118330   3.078   5.324   5.088
38811SOL    HW218331   3.131   5.183   5.102
38812SOL     OW18332  14.796   7.218  12.622
38812SOL    HW118333  14.736   7.259  12.559
38812SOL    HW218334  14.836   7.292  12.668
38813SOL     OW18335   7.617   9.032  12.599
38813SOL    HW118336   7.609   8.956  12.657
38813SOL    HW218337   7.617   8.995  12.510
38814SOL     OW18338   2.996   0.608   9.325
38814SOL    HW118339   2.935   0.641   9.390
38814SOL    HW218340   3.081   0.641   9.352
38815SOL     OW18341   3.901  13.288  12.890
38815SOL    HW118342   3.909  13.301  12.984
38815SOL    HW218343   3.843  13.359  12.861
38816SOL     OW18344   5.047   8.906   1.851
38816SOL    HW118345   5.112   8.971   1.824
38816SOL    HW218346   5.093   8.849   1.912
38817SOL     OW18347   6.627   7.347   9.244
38817SOL    HW118348   6.674   7.339   9.161
38817SOL    HW218349   6.534   7.346   9.219
38818SOL     OW18350   5.916  12.983  12.569
38818SOL    HW118351   5.954  13.009  12.653
38818SOL    HW218352   5.864  13.059  12.542
38819SOL     OW18353   5.478   3.856   4.306
38819SOL    HW118354   5.387   3.883   4.322
38819SOL    HW218355   5.524   3.937   4.287
38820SOL     OW18356   0.283  13.523   4.409
38820SOL    HW118357   0.207  13.465   4.416
38820SOL    HW218358   0.256  13.605   4.450
38821SOL     OW18359   1.208  11.082  12.533
38821SOL    HW118360   1.199  11.145  12.604
38821SOL    HW218361   1.290  11.105  12.491
38822SOL     OW18362  14.172   8.272  11.106
38822SOL    HW118363  14.146   8.273  11.198
38822SOL    HW218364  14.154   8.183  11.076
38823SOL     OW18365  12.001   9.398   6.909
38823SOL    HW118366  11.997   9.376   7.002
38823SOL    HW218367  12.023   9.491   6.908
38824SOL     OW18368   9.717   4.791   8.785
38824SOL    HW118369   9.792   4.731   8.792
38824SOL    HW218370   9.680   4.772   8.699
38825SOL     OW18371   1.945   1.905   8.538
38825SOL    HW118372   1.911   1.960   8.468
38825SOL    HW218373   2.040   1.904   8.523
38826SOL     OW18374  11.379   9.923   3.567
38826SOL    HW118375  11.464   9.883   3.549
38826SOL    HW218376  11.357   9.892   3.655
38827SOL     OW18377   5.521   3.734   2.369
38827SOL    HW118378   5.480   3.751   2.284
38827SOL    HW218379   5.464   3.669   2.410
38828SOL     OW18380  13.565   8.277   3.709
38828SOL    HW118381  13.597   8.343   3.771
38828SOL    HW218382  13.634   8.270   3.643
38829SOL     OW18383   6.076  11.775  10.149
38829SOL    HW118384   6.076  11.680  10.157
38829SOL    HW218385   6.096  11.807  10.237
38830SOL     OW18386  10.372   9.139   6.403
38830SOL    HW118387  10.284   9.108   6.426
38830SOL    HW218388  10.375   9.229   6.436
38831SOL     OW18389   6.553   0.969   7.851
38831SOL    HW118390   6.624   1.017   7.893
38831SOL    HW218391   6.502   0.933   7.924
38832SOL     OW18392  12.805   3.286   7.900
38832SOL    HW118393  12.766   3.328   7.823
38832SOL    HW218394  12.860   3.216   7.864
38833SOL     OW18395   3.727  13.062  12.861
38833SOL    HW118396   3.641  13.102  12.848
38833SOL    HW218397   3.786  13.136  12.872
38834SOL     OW18398   4.914  11.862   4.654
38834SOL    HW118399   4.970  11.883   4.579
38834SOL    HW218400   4.838  11.819   4.616
38835SOL     OW18401  13.424   4.356  10.834
38835SOL    HW118402  13.469   4.338  10.751
38835SOL    HW218403  13.378   4.438  10.819
38836SOL     OW18404   4.876   2.112   4.192
38836SOL    HW118405   4.858   2.205   4.177
38836SOL    HW218406   4.894   2.106   4.286
38837SOL     OW18407  13.073   2.766  14.648
38837SOL    HW118408  12.990   2.720  14.634
38837SOL    HW218409  13.052   2.837  14.708
38838SOL     OW18410  14.435   9.843   9.920
38838SOL    HW118411  14.454   9.921   9.868
38838SOL    HW218412  14.504   9.840   9.985
38839SOL     OW18413  11.367  10.610   4.541
38839SOL    HW118414  11.348  10.640   4.453
38839SOL    HW218415  11.311  10.533   4.554
38840SOL     OW18416   6.323   5.269   6.823
38840SOL    HW118417   6.417   5.262   6.840
38840SOL    HW218418   6.284   5.269   6.911
38841SOL     OW18419   0.731  10.553   3.439
38841SOL    HW118420   0.695  10.628   3.391
38841SOL    HW218421   0.662  10.528   3.500
38842SOL     OW18422  12.069   2.766  14.671
38842SOL    HW118423  12.083   2.814  14.590
38842SOL    HW218424  12.068   2.674  14.646
38843SOL     OW18425   4.987   4.595  13.145
38843SOL    HW118426   5.054   4.551  13.197
38843SOL    HW218427   4.987   4.549  13.061
38844SOL     OW18428  11.361  13.434  14.035
38844SOL    HW118429  11.291  13.470  13.980
38844SOL    HW218430  11.357  13.339  14.020
38845SOL     OW18431  11.303  12.132   7.659
38845SOL    HW118432  11.252  12.074   7.717
38845SOL    HW218433  11.249  12.211   7.651
38846SOL     OW18434  11.464  10.553  11.532
38846SOL    HW118435  11.522  10.582  11.602
38846SOL    HW218436  11.516  10.491  11.481
38847SOL     OW18437   8.156   6.080  13.688
38847SOL    HW118438   8.118   6.016  13.628
38847SOL    HW218439   8.088   6.096  13.753
38848SOL     OW18440  14.731  11.985   7.390
38848SOL    HW118441  14.677  11.950   7.461
38848SOL    HW218442  14.812  11.935   7.394
38849SOL     OW18443  10.863   9.963  14.760
38849SOL    HW118444  10.955   9.980  14.777
38849SOL    HW218445  10.817  10.037  14.801
38850SOL     OW18446  11.570   0.834   9.440
38850SOL    HW118447  11.586   0.908   9.382
38850SOL    HW218448  11.555   0.873   9.526
38851SOL     OW18449   8.628   4.209   6.268
38851SOL    HW118450   8.676   4.163   6.337
38851SOL    HW218451   8.578   4.276   6.314
38852SOL     OW18452  13.866   8.337   8.770
38852SOL    HW118453  13.918   8.324   8.850
38852SOL    HW218454  13.824   8.422   8.782
38853SOL     OW18455   9.958  12.075  10.178
38853SOL    HW118456   9.869  12.048  10.198
38853SOL    HW218457   9.982  12.134  10.249
38854SOL     OW18458   7.916   0.657  10.456
38854SOL    HW118459   7.931   0.671  10.550
38854SOL    HW218460   7.890   0.743  10.423
38855SOL     OW18461   1.107   9.297   4.047
38855SOL    HW118462   1.125   9.319   4.139
38855SOL    HW218463   1.045   9.225   4.052
38856SOL     OW18464   9.503   8.025   8.919
38856SOL    HW118465   9.464   8.036   8.832
38856SOL    HW218466   9.508   7.930   8.932
38857SOL     OW18467   9.645   7.150   1.912
38857SOL    HW118468   9.608   7.102   1.986
38857SOL    HW218469   9.623   7.097   1.835
38858SOL     OW18470   6.753  10.664   0.827
38858SOL    HW118471   6.707  10.619   0.756
38858SOL    HW218472   6.844  10.668   0.797
38859SOL     OW18473   5.483  12.164  13.211
38859SOL    HW118474   5.452  12.110  13.284
38859SOL    HW218475   5.495  12.251  13.248
38860SOL     OW18476   4.347   9.059   1.798
38860SOL    HW118477   4.401   9.001   1.851
38860SOL    HW218478   4.285   9.097   1.860
38861SOL     OW18479   7.094   6.955   5.154
38861SOL    HW118480   7.051   6.990   5.076
38861SOL    HW218481   7.102   7.030   5.213
38862SOL     OW18482   7.988   8.234  11.338
38862SOL    HW118483   7.979   8.148  11.378
38862SOL    HW218484   7.899   8.265  11.327
38863SOL     OW18485   9.620   3.085   9.173
38863SOL    HW118486   9.664   3.019   9.120
38863SOL    HW218487   9.664   3.080   9.258
38864SOL     OW18488  10.268   4.303  14.773
38864SOL    HW118489  10.299   4.280  14.685
38864SOL    HW218490  10.279   4.222  14.824
38865SOL     OW18491   5.769   8.278   7.623
38865SOL    HW118492   5.799   8.193   7.590
38865SOL    HW218493   5.808   8.342   7.564
38866SOL     OW18494  10.941   4.074   9.168
38866SOL    HW118495  10.947   4.129   9.246
38866SOL    HW218496  10.849   4.048   9.164
38867SOL     OW18497   9.973   3.230   7.265
38867SOL    HW118498   9.958   3.142   7.229
38867SOL    HW218499  10.027   3.216   7.342
38868SOL     OW18500  11.561  10.335  10.506
38868SOL    HW118501  11.543  10.265  10.569
38868SOL    HW218502  11.643  10.308  10.463
38869SOL     OW18503   0.633  12.114  12.644
38869SOL    HW118504   0.691  12.168  12.592
38869SOL    HW218505   0.545  12.145  12.622
38870SOL     OW18506  11.495  11.424  14.197
38870SOL    HW118507  11.425  11.424  14.131
38870SOL    HW218508  11.464  11.484  14.265
38871SOL     OW18509   4.433  12.734  10.770
38871SOL    HW118510   4.460  12.811  10.821
38871SOL    HW218511   4.364  12.767  10.713
38872SOL     OW18512   1.875   3.581   8.759
38872SOL    HW118513   1.780   3.583   8.750
38872SOL    HW218514   1.899   3.492   8.733
38873SOL     OW18515  13.987  10.779   7.520
38873SOL    HW118516  13.923  10.751   7.585
38873SOL    HW218517  13.974  10.720   7.446
38874SOL     OW18518  12.369   3.716   7.065
38874SOL    HW118519  12.287   3.764   7.078
38874SOL    HW218520  12.357   3.669   6.983
38875SOL     OW18521   0.280   2.508   1.866
38875SOL    HW118522   0.243   2.595   1.850
38875SOL    HW218523   0.238   2.452   1.800
38876SOL     OW18524   1.535   0.375   2.798
38876SOL    HW118525   1.566   0.333   2.878
38876SOL    HW218526   1.584   0.457   2.793
38877SOL     OW18527   4.038  14.151   2.818
38877SOL    HW118528   3.976  14.139   2.890
38877SOL    HW218529   4.124  14.144   2.859
38878SOL     OW18530   3.261  14.601   4.515
38878SOL    HW118531   3.224  14.527   4.562
38878SOL    HW218532   3.230  14.678   4.563
38879SOL     OW18533  14.598   6.524   5.446
38879SOL    HW118534  14.664   6.508   5.513
38879SOL    HW218535  14.522   6.555   5.494
38880SOL     OW18536  12.980  11.508   0.639
38880SOL    HW118537  12.978  11.416   0.665
38880SOL    HW218538  13.066  11.519   0.598
38881SOL     OW18539   4.146   1.442   1.362
38881SOL    HW118540   4.069   1.403   1.404
38881SOL    HW218541   4.120   1.452   1.270
38882SOL     OW18542   5.419  12.588   3.951
38882SOL    HW118543   5.505  12.576   3.910
38882SOL    HW218544   5.437  12.587   4.045
38883SOL     OW18545   6.971  14.586   2.828
38883SOL    HW118546   7.037  14.646   2.862
38883SOL    HW218547   7.016  14.535   2.761
38884SOL     OW18548   2.646   9.838   0.279
38884SOL    HW118549   2.560   9.848   0.239
38884SOL    HW218550   2.653   9.744   0.297
38885SOL     OW18551   5.228   2.875   5.912
38885SOL    HW118552   5.285   2.952   5.914
38885SOL    HW218553   5.177   2.880   5.993
38886SOL     OW18554  12.682   4.088   6.242
38886SOL    HW118555  12.734   4.114   6.318
38886SOL    HW218556  12.602   4.140   6.248
38887SOL     OW18557   3.652  10.862   2.635
38887SOL    HW118558   3.711  10.825   2.570
38887SOL    HW218559   3.574  10.805   2.632
38888SOL     OW18560   1.099   6.844   5.623
38888SOL    HW118561   1.080   6.827   5.715
38888SOL    HW218562   1.193   6.829   5.614
38889SOL     OW18563   0.050   7.310   6.359
38889SOL    HW118564   0.065   7.305   6.264
38889SOL    HW218565   0.014   7.225   6.382
38890SOL     OW18566   7.227  11.054   9.981
38890SOL    HW118567   7.241  10.988   9.913
38890SOL    HW218568   7.181  11.125   9.936
38891SOL     OW18569   5.975   0.158  14.577
38891SOL    HW118570   6.020   0.153  14.661
38891SOL    HW218571   5.957   0.067  14.554
38892SOL     OW18572   8.235   1.632   9.997
38892SOL    HW118573   8.277   1.563  10.048
38892SOL    HW218574   8.298   1.654   9.928
38893SOL     OW18575   7.507   4.774   8.027
38893SOL    HW118576   7.520   4.682   8.047
38893SOL    HW218577   7.538   4.820   8.105
38894SOL     OW18578   9.252   9.989  13.916
38894SOL    HW118579   9.163   9.976  13.884
38894SOL    HW218580   9.307   9.943  13.853
38895SOL     OW18581   2.225  12.745  13.155
38895SOL    HW118582   2.161  12.711  13.093
38895SOL    HW218583   2.303  12.764  13.102
38896SOL     OW18584   3.662  12.546   7.661
38896SOL    HW118585   3.675  12.540   7.756
38896SOL    HW218586   3.697  12.463   7.627
38897SOL     OW18587   9.217   1.773  10.664
38897SOL    HW118588   9.252   1.839  10.604
38897SOL    HW218589   9.157   1.822  10.721
38898SOL     OW18590   8.461  10.192  11.331
38898SOL    HW118591   8.509  10.141  11.397
38898SOL    HW218592   8.413  10.257  11.382
38899SOL     OW18593   3.179   5.448  11.186
38899SOL    HW118594   3.130   5.529  11.198
38899SOL    HW218595   3.209   5.450  11.095
38900SOL     OW18596  14.860   8.046  10.189
38900SOL    HW118597  14.861   8.084  10.277
38900SOL    HW218598  14.786   7.986  10.190
38901SOL     OW18599   0.004   7.279  10.251
38901SOL    HW118600  14.852   7.349  10.303
38901SOL    HW218601  14.841   7.201  10.273
38902SOL     OW18602   7.765   2.778   3.753
38902SOL    HW118603   7.697   2.814   3.811
38902SOL    HW218604   7.717   2.750   3.675
38903SOL     OW18605   3.758   1.420   7.673
38903SOL    HW118606   3.666   1.432   7.650
38903SOL    HW218607   3.803   1.494   7.631
38904SOL     OW18608  14.635   7.581   6.095
38904SOL    HW118609  14.600   7.640   6.161
38904SOL    HW218610  14.567   7.514   6.084
38905SOL     OW18611   2.042   7.925   8.428
38905SOL    HW118612   2.026   7.940   8.335
38905SOL    HW218613   2.065   7.832   8.433
38906SOL     OW18614   8.583   1.139   3.808
38906SOL    HW118615   8.624   1.225   3.806
38906SOL    HW218616   8.495   1.152   3.774
38907SOL     OW18617  10.000   5.243  11.889
38907SOL    HW118618   9.952   5.304  11.945
38907SOL    HW218619  10.045   5.299  11.825
38908SOL     OW18620   3.308   9.076   0.402
38908SOL    HW118621   3.388   9.036   0.369
38908SOL    HW218622   3.251   9.002   0.422
38909SOL     OW18623  13.567   2.869  12.141
38909SOL    HW118624  13.611   2.841  12.222
38909SOL    HW218625  13.570   2.964  12.144
38910SOL     OW18626  12.182   1.204   0.708
38910SOL    HW118627  12.131   1.126   0.729
38910SOL    HW218628  12.225   1.228   0.790
38911SOL     OW18629   9.187  10.391  13.398
38911SOL    HW118630   9.165  10.385  13.492
38911SOL    HW218631   9.169  10.482  13.375
38912SOL     OW18632   8.590   0.501   3.564
38912SOL    HW118633   8.576   0.479   3.656
38912SOL    HW218634   8.601   0.596   3.564
38913SOL     OW18635   0.232   5.158   5.990
38913SOL    HW118636   0.167   5.156   5.920
38913SOL    HW218637   0.203   5.092   6.052
38914SOL     OW18638  14.032   8.596   2.050
38914SOL    HW118639  13.986   8.552   1.978
38914SOL    HW218640  13.994   8.684   2.052
38915SOL     OW18641   9.905   4.710   3.739
38915SOL    HW118642   9.907   4.742   3.649
38915SOL    HW218643   9.832   4.647   3.741
38916SOL     OW18644   1.520   2.431   5.720
38916SOL    HW118645   1.516   2.375   5.643
38916SOL    HW218646   1.594   2.489   5.704
38917SOL     OW18647   9.779  12.980   1.908
38917SOL    HW118648   9.711  12.921   1.942
38917SOL    HW218649   9.737  13.023   1.834
38918SOL     OW18650   1.147   0.794  13.677
38918SOL    HW118651   1.214   0.794  13.745
38918SOL    HW218652   1.151   0.707  13.639
38919SOL     OW18653  14.245   7.909  14.042
38919SOL    HW118654  14.261   7.900  13.948
38919SOL    HW218655  14.283   7.829  14.080
38920SOL     OW18656  13.248  11.598   6.522
38920SOL    HW118657  13.198  11.544   6.583
38920SOL    HW218658  13.227  11.563   6.436
38921SOL     OW18659   1.160   6.609  14.010
38921SOL    HW118660   1.223   6.660  14.060
38921SOL    HW218661   1.207   6.528  13.989
38922SOL     OW18662   8.510   1.963   9.765
38922SOL    HW118663   8.574   1.892   9.755
38922SOL    HW218664   8.524   2.019   9.689
38923SOL     OW18665   0.716   7.730   6.854
38923SOL    HW118666   0.629   7.721   6.893
38923SOL    HW218667   0.758   7.801   6.903
38924SOL     OW18668   2.605   0.803   3.511
38924SOL    HW118669   2.664   0.864   3.553
38924SOL    HW218670   2.638   0.794   3.421
38925SOL     OW18671   2.193   1.114  11.969
38925SOL    HW118672   2.259   1.145  11.907
38925SOL    HW218673   2.111   1.150  11.935
38926SOL     OW18674   4.507   1.331   6.250
38926SOL    HW118675   4.434   1.392   6.250
38926SOL    HW218676   4.574   1.375   6.198
38927SOL     OW18677  14.267  13.115   3.846
38927SOL    HW118678  14.176  13.137   3.826
38927SOL    HW218679  14.261  13.038   3.902
38928SOL     OW18680   8.023   2.722   8.455
38928SOL    HW118681   8.022   2.650   8.518
38928SOL    HW218682   7.932   2.735   8.432
38929SOL     OW18683   6.763  14.145   4.960
38929SOL    HW118684   6.857  14.158   4.970
38929SOL    HW218685   6.726  14.233   4.969
38930SOL     OW18686   9.579   2.998   6.757
38930SOL    HW118687   9.669   2.968   6.743
38930SOL    HW218688   9.544   3.011   6.670
38931SOL     OW18689  13.858   9.084   6.501
38931SOL    HW118690  13.807   9.072   6.581
38931SOL    HW218691  13.813   9.154   6.453
38932SOL     OW18692   2.062   8.682   7.914
38932SOL    HW118693   2.012   8.764   7.907
38932SOL    HW218694   2.090   8.664   7.824
38933SOL     OW18695   6.065   2.564   2.140
38933SOL    HW118696   6.136   2.510   2.174
38933SOL    HW218697   6.070   2.646   2.190
38934SOL     OW18698   2.911   6.481   6.830
38934SOL    HW118699   2.898   6.556   6.772
38934SOL    HW218700   2.823   6.452   6.853
38935SOL     OW18701   4.173   8.264   6.928
38935SOL    HW118702   4.224   8.201   6.979
38935SOL    HW218703   4.103   8.291   6.987
38936SOL     OW18704   0.387   7.047   6.796
38936SOL    HW118705   0.299   7.071   6.768
38936SOL    HW218706   0.439   7.126   6.781
38937SOL     OW18707   4.990   9.079  11.956
38937SOL    HW118708   4.987   9.148  11.889
38937SOL    HW218709   4.994   8.997  11.906
38938SOL     OW18710   0.636   8.283   6.700
38938SOL    HW118711   0.602   8.307   6.786
38938SOL    HW218712   0.697   8.211   6.717
38939SOL     OW18713  14.711  13.445  10.383
38939SOL    HW118714  14.803  13.437  10.410
38939SOL    HW218715  14.716  13.468  10.290
38940SOL     OW18716   6.204   0.185   4.441
38940SOL    HW118717   6.250   0.190   4.525
38940SOL    HW218718   6.236   0.104   4.402
38941SOL     OW18719   1.524  12.834   9.404
38941SOL    HW118720   1.599  12.778   9.383
38941SOL    HW218721   1.559  12.923   9.402
38942SOL     OW18722   2.609   5.883   6.378
38942SOL    HW118723   2.688   5.857   6.426
38942SOL    HW218724   2.544   5.817   6.402
38943SOL     OW18725   5.061  12.576   9.639
38943SOL    HW118726   4.993  12.606   9.579
38943SOL    HW218727   5.082  12.487   9.610
38944SOL     OW18728  13.467   0.618  10.684
38944SOL    HW118729  13.528   0.676  10.729
38944SOL    HW218730  13.398   0.602  10.748
38945SOL     OW18731   5.845  11.433  10.874
38945SOL    HW118732   5.750  11.442  10.865
38945SOL    HW218733   5.867  11.493  10.946
38946SOL     OW18734  13.078   0.496   1.147
38946SOL    HW118735  13.038   0.485   1.061
38946SOL    HW218736  13.087   0.591   1.157
38947SOL     OW18737   4.671  12.242  13.094
38947SOL    HW118738   4.758  12.245  13.054
38947SOL    HW218739   4.688  12.229  13.187
38948SOL     OW18740   8.173   4.270  14.517
38948SOL    HW118741   8.129   4.295  14.598
38948SOL    HW218742   8.222   4.190  14.540
38949SOL     OW18743   8.625   4.932  12.371
38949SOL    HW118744   8.577   4.949  12.452
38949SOL    HW218745   8.579   4.982  12.304
38950SOL     OW18746   7.281   1.634  12.691
38950SOL    HW118747   7.349   1.580  12.649
38950SOL    HW218748   7.308   1.724  12.674
38951SOL     OW18749   2.007  11.345   8.180
38951SOL    HW118750   2.013  11.426   8.230
38951SOL    HW218751   2.044  11.366   8.095
38952SOL     OW18752  10.994  12.701  13.804
38952SOL    HW118753  11.056  12.656  13.747
38952SOL    HW218754  10.914  12.706  13.753
38953SOL     OW18755  11.211  14.301  14.766
38953SOL    HW118756  11.122  14.293  14.802
38953SOL    HW218757  11.247  14.213  14.773
38954SOL     OW18758   0.330  12.525  11.902
38954SOL    HW118759   0.299  12.552  11.988
38954SOL    HW218760   0.251  12.512  11.850
38955SOL     OW18761   4.838  14.292  10.451
38955SOL    HW118762   4.842  14.272  10.357
38955SOL    HW218763   4.916  14.250  10.487
38956SOL     OW18764   9.370  14.151   3.394
38956SOL    HW118765   9.284  14.116   3.368
38956SOL    HW218766   9.432  14.082   3.371
38957SOL     OW18767   4.627  13.719   1.526
38957SOL    HW118768   4.640  13.685   1.614
38957SOL    HW218769   4.624  13.814   1.536
38958SOL     OW18770   0.350  11.720  14.601
38958SOL    HW118771   0.411  11.794  14.602
38958SOL    HW218772   0.389  11.658  14.539
38959SOL     OW18773  12.055   8.136   9.272
38959SOL    HW118774  12.064   8.223   9.310
38959SOL    HW218775  12.118   8.134   9.200
38960SOL     OW18776  12.646   4.987   9.869
38960SOL    HW118777  12.624   5.079   9.878
38960SOL    HW218778  12.717   4.985   9.805
38961SOL     OW18779  11.146  10.796  11.618
38961SOL    HW118780  11.192  10.796  11.702
38961SOL    HW218781  11.174  10.877  11.575
38962SOL     OW18782  13.108   0.123   1.835
38962SOL    HW118783  13.036   0.173   1.873
38962SOL    HW218784  13.083   0.111   1.744
38963SOL     OW18785   1.338   2.707  12.289
38963SOL    HW118786   1.306   2.768  12.355
38963SOL    HW218787   1.278   2.632  12.295
38964SOL     OW18788   5.299   9.477   3.137
38964SOL    HW118789   5.303   9.538   3.063
38964SOL    HW218790   5.271   9.531   3.211
38965SOL     OW18791  14.054   1.870   8.666
38965SOL    HW118792  14.082   1.788   8.705
38965SOL    HW218793  13.978   1.847   8.613
38966SOL     OW18794   8.549   4.456   7.206
38966SOL    HW118795   8.525   4.435   7.116
38966SOL    HW218796   8.469   4.442   7.257
38967SOL     OW18797   2.784   0.898  13.137
38967SOL    HW118798   2.723   0.827  13.120
38967SOL    HW218799   2.850   0.889  13.068
38968SOL     OW18800   8.996  12.929   2.403
38968SOL    HW118801   8.950  12.849   2.429
38968SOL    HW218802   9.016  12.973   2.486
38969SOL     OW18803   4.866   8.280   3.350
38969SOL    HW118804   4.840   8.190   3.369
38969SOL    HW218805   4.826   8.300   3.266
38970SOL     OW18806   7.847   9.441  11.418
38970SOL    HW118807   7.934   9.466  11.450
38970SOL    HW218808   7.859   9.432  11.323
38971SOL     OW18809   8.598  11.418   6.797
38971SOL    HW118810   8.691  11.404   6.817
38971SOL    HW218811   8.583  11.371   6.715
38972SOL     OW18812   9.371   4.197   0.712
38972SOL    HW118813   9.424   4.273   0.736
38972SOL    HW218814   9.409   4.166   0.630
38973SOL     OW18815   3.688  13.608   1.550
38973SOL    HW118816   3.653  13.561   1.625
38973SOL    HW218817   3.727  13.539   1.495
38974SOL     OW18818   1.933  12.678   8.799
38974SOL    HW118819   1.979  12.757   8.771
38974SOL    HW218820   1.965  12.662   8.888
38975SOL     OW18821   1.872  11.060   0.266
38975SOL    HW118822   1.955  11.081   0.308
38975SOL    HW218823   1.837  11.145   0.238
38976SOL     OW18824  10.256   6.089   7.167
38976SOL    HW118825  10.278   5.997   7.184
38976SOL    HW218826  10.170   6.101   7.206
38977SOL     OW18827   5.971  13.291   1.250
38977SOL    HW118828   5.952  13.229   1.321
38977SOL    HW218829   5.986  13.236   1.173
38978SOL     OW18830   3.583   1.659  12.201
38978SOL    HW118831   3.541   1.576  12.178
38978SOL    HW218832   3.511   1.716  12.226
38979SOL     OW18833  13.241  12.286  13.461
38979SOL    HW118834  13.310  12.224  13.484
38979SOL    HW218835  13.163  12.251  13.503
38980SOL     OW18836   5.188   2.258   7.590
38980SOL    HW118837   5.267   2.220   7.627
38980SOL    HW218838   5.180   2.344   7.632
38981SOL     OW18839  13.559   3.286  10.865
38981SOL    HW118840  13.496   3.266  10.934
38981SOL    HW218841  13.521   3.362  10.819
38982SOL     OW18842  10.561  13.086   1.999
38982SOL    HW118843  10.540  13.026   2.071
38982SOL    HW218844  10.487  13.146   1.997
38983SOL     OW18845   9.686  10.161  11.323
38983SOL    HW118846   9.703  10.117  11.239
38983SOL    HW218847   9.679  10.253  11.300
38984SOL     OW18848   2.335  12.337   3.393
38984SOL    HW118849   2.345  12.314   3.301
38984SOL    HW218850   2.404  12.288   3.438
38985SOL     OW18851   0.117   4.638   5.988
38985SOL    HW118852   0.191   4.588   5.953
38985SOL    HW218853   0.108   4.711   5.927
38986SOL     OW18854   8.568   3.473   2.197
38986SOL    HW118855   8.659   3.466   2.225
38986SOL    HW218856   8.565   3.421   2.116
38987SOL     OW18857   6.773   2.397  12.598
38987SOL    HW118858   6.701   2.343  12.567
38987SOL    HW218859   6.847   2.374  12.542
38988SOL     OW18860  11.182  12.465  12.419
38988SOL    HW118861  11.139  12.492  12.338
38988SOL    HW218862  11.253  12.529  12.430
38989SOL     OW18863   3.100  13.656   1.492
38989SOL    HW118864   3.175  13.596   1.491
38989SOL    HW218865   3.115  13.714   1.417
38990SOL     OW18866   7.639  11.616  13.123
38990SOL    HW118867   7.716  11.571  13.158
38990SOL    HW218868   7.582  11.545  13.093
38991SOL     OW18869   9.945   4.891   9.742
38991SOL    HW118870   9.910   4.959   9.683
38991SOL    HW218871  10.035   4.878   9.713
38992SOL     OW18872  11.941  11.929   3.085
38992SOL    HW118873  11.874  11.986   3.121
38992SOL    HW218874  11.906  11.840   3.096
38993SOL     OW18875   3.719  11.590  14.018
38993SOL    HW118876   3.643  11.600  14.075
38993SOL    HW218877   3.696  11.517  13.960
38994SOL     OW18878  11.652   8.094   6.738
38994SOL    HW118879  11.647   8.055   6.825
38994SOL    HW218880  11.647   8.019   6.678
38995SOL     OW18881  14.674  14.445   3.913
38995SOL    HW118882  14.610  14.490   3.967
38995SOL    HW218883  14.737  14.512   3.887
38996SOL     OW18884   3.959  13.620   0.395
38996SOL    HW118885   4.039  13.632   0.447
38996SOL    HW218886   3.915  13.545   0.437
38997SOL     OW18887  11.636   6.534   8.054
38997SOL    HW118888  11.583   6.484   7.991
38997SOL    HW218889  11.662   6.470   8.119
38998SOL     OW18890   1.497   7.550   8.062
38998SOL    HW118891   1.453   7.547   7.977
38998SOL    HW218892   1.483   7.464   8.100
38999SOL     OW18893   4.856  10.073   8.118
38999SOL    HW118894   4.848   9.987   8.078
38999SOL    HW218895   4.950  10.091   8.120
39000SOL     OW18896   6.211  10.489   4.698
39000SOL    HW118897   6.244  10.579   4.690
39000SOL    HW218898   6.219  10.470   4.792
39001SOL     OW18899  14.748   2.445   5.079
39001SOL    HW118900  14.779   2.410   4.996
39001SOL    HW218901  14.827   2.458   5.131
39002SOL     OW18902  10.274   8.215  13.518
39002SOL    HW118903  10.336   8.286  13.536
39002SOL    HW218904  10.190   8.259  13.503
39003SOL     OW18905   2.417   5.167   0.951
39003SOL    HW118906   2.486   5.230   0.972
39003SOL    HW218907   2.449   5.084   0.985
39004SOL     OW18908   2.339   0.506   3.842
39004SOL    HW118909   2.261   0.457   3.814
39004SOL    HW218910   2.303   0.582   3.890
39005SOL     OW18911   7.672   5.056   0.672
39005SOL    HW118912   7.746   5.099   0.716
39005SOL    HW218913   7.672   4.967   0.707
39006SOL     OW18914   7.658   6.105   9.805
39006SOL    HW118915   7.572   6.069   9.827
39006SOL    HW218916   7.640   6.166   9.734
39007SOL     OW18917   7.570   7.597  13.177
39007SOL    HW118918   7.511   7.646  13.235
39007SOL    HW218919   7.644   7.573  13.233
39008SOL     OW18920  10.519   3.699   9.290
39008SOL    HW118921  10.448   3.712   9.227
39008SOL    HW218922  10.474   3.672   9.371
39009SOL     OW18923   5.568   6.700  14.560
39009SOL    HW118924   5.616   6.674  14.482
39009SOL    HW218925   5.481   6.660  14.549
39010SOL     OW18926   0.109  13.356  10.417
39010SOL    HW118927   0.192  13.368  10.370
39010SOL    HW218928   0.111  13.264  10.445
39011SOL     OW18929   3.425   2.385   7.839
39011SOL    HW118930   3.495   2.339   7.885
39011SOL    HW218931   3.458   2.399   7.751
39012SOL     OW18932   3.424  11.437   2.830
39012SOL    HW118933   3.473  11.372   2.780
39012SOL    HW218934   3.384  11.494   2.763
39013SOL     OW18935   1.389  12.738   6.842
39013SOL    HW118936   1.471  12.784   6.826
39013SOL    HW218937   1.403  12.693   6.926
39014SOL     OW18938   8.074   4.013   1.073
39014SOL    HW118939   8.043   3.944   1.015
39014SOL    HW218940   8.010   4.083   1.064
39015SOL     OW18941   0.608   2.113   4.151
39015SOL    HW118942   0.598   2.179   4.082
39015SOL    HW218943   0.578   2.157   4.231
39016SOL     OW18944   1.921   6.142   1.375
39016SOL    HW118945   1.904   6.190   1.294
39016SOL    HW218946   1.859   6.070   1.374
39017SOL     OW18947  14.821   7.587   5.128
39017SOL    HW118948   0.026   7.609   5.123
39017SOL    HW218949  14.784   7.620   5.046
39018SOL     OW18950  10.023  12.539   7.353
39018SOL    HW118951   9.933  12.562   7.330
39018SOL    HW218952  10.073  12.618   7.337
39019SOL     OW18953  10.590   1.669   6.010
39019SOL    HW118954  10.582   1.753   5.964
39019SOL    HW218955  10.611   1.606   5.941
39020SOL     OW18956  11.814   8.668  13.194
39020SOL    HW118957  11.792   8.588  13.242
39020SOL    HW218958  11.760   8.663  13.115
39021SOL     OW18959   5.864   4.909  10.647
39021SOL    HW118960   5.774   4.897  10.678
39021SOL    HW218961   5.909   4.829  10.672
39022SOL     OW18962   5.941   9.955   0.769
39022SOL    HW118963   5.938   9.935   0.862
39022SOL    HW218964   5.862  10.007   0.753
39023SOL     OW18965   7.993   5.171  11.658
39023SOL    HW118966   8.025   5.220  11.734
39023SOL    HW218967   8.067   5.117  11.632
39024SOL     OW18968  12.713   4.488  10.484
39024SOL    HW118969  12.766   4.566  10.471
39024SOL    HW218970  12.650   4.490  10.412
39025SOL     OW18971  11.817  14.537  11.921
39025SOL    HW118972  11.862  14.455  11.901
39025SOL    HW218973  11.804  14.536  12.016
39026SOL     OW18974   1.969   9.967   8.553
39026SOL    HW118975   1.911   9.930   8.486
39026SOL    HW218976   2.038   9.902   8.564
39027SOL     OW18977   0.229   3.956   4.073
39027SOL    HW118978   0.180   4.019   4.126
39027SOL    HW218979   0.166   3.923   4.009
39028SOL     OW18980  10.361   5.684   4.040
39028SOL    HW118981  10.285   5.739   4.060
39028SOL    HW218982  10.414   5.685   4.120
39029SOL     OW18983  11.587   9.510  12.184
39029SOL    HW118984  11.542   9.428  12.161
39029SOL    HW218985  11.680   9.488  12.176
39030SOL     OW18986   7.829   9.178   5.073
39030SOL    HW118987   7.825   9.273   5.072
39030SOL    HW218988   7.747   9.150   5.031
39031SOL     OW18989  10.623   9.156   1.889
39031SOL    HW118990  10.630   9.229   1.826
39031SOL    HW218991  10.571   9.191   1.961
39032SOL     OW18992   7.916   4.398   2.635
39032SOL    HW118993   7.950   4.399   2.724
39032SOL    HW218994   7.967   4.465   2.589
39033SOL     OW18995   7.719   5.921   6.436
39033SOL    HW118996   7.723   5.939   6.342
39033SOL    HW218997   7.627   5.930   6.459
39034SOL     OW18998  12.207   6.647   8.812
39034SOL    HW118999  12.141   6.716   8.817
39034SOL    HW219000  12.165   6.578   8.761
39035SOL     OW19001  12.657   6.814  10.811
39035SOL    HW119002  12.747   6.834  10.785
39035SOL    HW219003  12.645   6.860  10.894
39036SOL     OW19004   3.880   1.019  14.786
39036SOL    HW119005   3.845   0.935  14.813
39036SOL    HW219006   3.804   1.077  14.781
39037SOL     OW19007  13.840   1.235   5.546
39037SOL    HW119008  13.912   1.252   5.486
39037SOL    HW219009  13.882   1.211   5.629
39038SOL     OW19010   4.443   9.298   5.573
39038SOL    HW119011   4.455   9.388   5.542
39038SOL    HW219012   4.442   9.245   5.493
39039SOL     OW19013   3.102  14.682  12.567
39039SOL    HW119014   3.007  14.669  12.560
39039SOL    HW219015   3.132  14.610  12.622
39040SOL     OW19016   2.436   8.186  10.542
39040SOL    HW119017   2.379   8.262  10.555
39040SOL    HW219018   2.469   8.166  10.629
39041SOL     OW19019   4.844   0.460   7.661
39041SOL    HW119020   4.835   0.551   7.632
39041SOL    HW219021   4.871   0.413   7.582
39042SOL     OW19022   6.262   1.679  12.406
39042SOL    HW119023   6.250   1.750  12.469
39042SOL    HW219024   6.300   1.608  12.458
39043SOL     OW19025   0.682  12.568   4.444
39043SOL    HW119026   0.700  12.662   4.436
39043SOL    HW219027   0.657  12.557   4.536
39044SOL     OW19028   9.655  13.303   0.717
39044SOL    HW119029   9.688  13.213   0.717
39044SOL    HW219030   9.560  13.293   0.707
39045SOL     OW19031   4.265  14.256   0.700
39045SOL    HW119032   4.193  14.282   0.642
39045SOL    HW219033   4.255  14.161   0.709
39046SOL     OW19034   1.172  10.006   5.828
39046SOL    HW119035   1.208  10.038   5.911
39046SOL    HW219036   1.244   9.959   5.786
39047SOL     OW19037  10.450   3.964   6.536
39047SOL    HW119038  10.412   3.921   6.612
39047SOL    HW219039  10.517   3.903   6.505
39048SOL     OW19040   7.219   1.481   3.497
39048SOL    HW119041   7.242   1.445   3.583
39048SOL    HW219042   7.167   1.559   3.517
39049SOL     OW19043   6.726   4.191   9.753
39049SOL    HW119044   6.801   4.190   9.813
39049SOL    HW219045   6.657   4.236   9.802
39050SOL     OW19046   9.186  14.279   5.067
39050SOL    HW119047   9.234  14.340   5.124
39050SOL    HW219048   9.232  14.284   4.983
39051SOL     OW19049   4.391   9.071   2.394
39051SOL    HW119050   4.370   9.116   2.476
39051SOL    HW219051   4.349   8.986   2.403
39052SOL     OW19052   2.667   0.809   3.248
39052SOL    HW119053   2.638   0.811   3.157
39052SOL    HW219054   2.730   0.881   3.256
39053SOL     OW19055  14.682   9.508   1.213
39053SOL    HW119056  14.752   9.491   1.276
39053SOL    HW219057  14.642   9.423   1.197
39054SOL     OW19058   7.353  10.635   2.399
39054SOL    HW119059   7.345  10.695   2.473
39054SOL    HW219060   7.446  10.635   2.378
39055SOL     OW19061  12.282   3.058   7.462
39055SOL    HW119062  12.352   3.120   7.486
39055SOL    HW219063  12.291   3.048   7.368
39056SOL     OW19064   8.192   5.455  14.154
39056SOL    HW119065   8.184   5.387  14.088
39056SOL    HW219066   8.153   5.532  14.114
39057SOL     OW19067   0.861   6.673  10.782
39057SOL    HW119068   0.921   6.675  10.856
39057SOL    HW219069   0.855   6.764  10.753
39058SOL     OW19070   6.179   4.017   3.116
39058SOL    HW119071   6.197   4.044   3.026
39058SOL    HW219072   6.084   4.017   3.122
39059SOL     OW19073  10.099   4.793   0.709
39059SOL    HW119074  10.027   4.743   0.748
39059SOL    HW219075  10.084   4.883   0.738
39060SOL     OW19076   5.328   3.043  13.215
39060SOL    HW119077   5.333   2.965  13.270
39060SOL    HW219078   5.291   3.012  13.133
39061SOL     OW19079  14.645  14.274   6.675
39061SOL    HW119080  14.706  14.206   6.646
39061SOL    HW219081  14.564  14.226   6.695
39062SOL     OW19082   0.753   1.532   4.064
39062SOL    HW119083   0.793   1.558   4.147
39062SOL    HW219084   0.803   1.579   3.997
39063SOL     OW19085  14.639  13.641   5.895
39063SOL    HW119086  14.563  13.682   5.936
39063SOL    HW219087  14.607  13.609   5.811
39064SOL     OW19088  10.800   9.148   9.924
39064SOL    HW119089  10.709   9.146   9.894
39064SOL    HW219090  10.793   9.143  10.020
39065SOL     OW19091  11.697   3.591   1.627
39065SOL    HW119092  11.751   3.644   1.568
39065SOL    HW219093  11.612   3.587   1.584
39066SOL     OW19094  12.006   9.810  12.623
39066SOL    HW119095  11.980   9.901  12.612
39066SOL    HW219096  12.101   9.810  12.607
39067SOL     OW19097   4.125   4.224   3.223
39067SOL    HW119098   4.136   4.288   3.153
39067SOL    HW219099   4.046   4.176   3.199
39068SOL     OW19100   9.483   8.575  13.783
39068SOL    HW119101   9.488   8.510  13.853
39068SOL    HW219102   9.555   8.553  13.725
39069SOL     OW19103  10.523   3.246  12.814
39069SOL    HW119104  10.586   3.180  12.784
39069SOL    HW219105  10.526   3.239  12.910
39070SOL     OW19106   5.136   1.141   0.412
39070SOL    HW119107   5.135   1.218   0.355
39070SOL    HW219108   5.228   1.130   0.437
39071SOL     OW19109   5.297   9.558   2.060
39071SOL    HW119110   5.356   9.622   2.098
39071SOL    HW219111   5.218   9.608   2.036
39072SOL     OW19112  13.124   6.332  13.087
39072SOL    HW119113  13.119   6.241  13.056
39072SOL    HW219114  13.059   6.378  13.034
39073SOL     OW19115   1.996  14.219  10.120
39073SOL    HW119116   2.006  14.300  10.171
39073SOL    HW219117   1.910  14.226  10.080
39074SOL     OW19118   8.223   6.271  12.303
39074SOL    HW119119   8.250   6.328  12.232
39074SOL    HW219120   8.298   6.213  12.317
39075SOL     OW19121  13.496  10.003   6.243
39075SOL    HW119122  13.549   9.975   6.317
39075SOL    HW219123  13.434   9.931   6.228
39076SOL     OW19124  14.131  12.249   7.027
39076SOL    HW119125  14.177  12.218   7.104
39076SOL    HW219126  14.062  12.185   7.012
39077SOL     OW19127   5.800   0.153  11.035
39077SOL    HW119128   5.878   0.183  11.081
39077SOL    HW219129   5.824   0.157  10.942
39078SOL     OW19130   4.995   4.029   6.242
39078SOL    HW119131   4.923   4.032   6.305
39078SOL    HW219132   5.072   4.011   6.296
39079SOL     OW19133   5.202   3.491   3.598
39079SOL    HW119134   5.242   3.407   3.620
39079SOL    HW219135   5.273   3.555   3.607
39080SOL     OW19136  14.105  13.733  11.410
39080SOL    HW119137  14.078  13.786  11.485
39080SOL    HW219138  14.091  13.790  11.335
39081SOL     OW19139   3.883   9.213   9.901
39081SOL    HW119140   3.977   9.204   9.916
39081SOL    HW219141   3.843   9.184   9.983
39082SOL     OW19142   3.953   6.415  12.941
39082SOL    HW119143   4.039   6.457  12.939
39082SOL    HW219144   3.901   6.465  12.878
39083SOL     OW19145  10.926   0.560  10.630
39083SOL    HW119146  10.841   0.571  10.671
39083SOL    HW219147  10.909   0.504  10.555
39084SOL     OW19148   5.382   6.821   1.224
39084SOL    HW119149   5.340   6.886   1.167
39084SOL    HW219150   5.368   6.854   1.313
39085SOL     OW19151   4.251   3.276   6.626
39085SOL    HW119152   4.171   3.285   6.574
39085SOL    HW219153   4.271   3.182   6.621
39086SOL     OW19154  10.589   3.191   4.755
39086SOL    HW119155  10.565   3.205   4.847
39086SOL    HW219156  10.508   3.162   4.713
39087SOL     OW19157   6.619  13.619   9.419
39087SOL    HW119158   6.561  13.553   9.381
39087SOL    HW219159   6.618  13.600   9.513
39088SOL     OW19160  12.542   3.845   1.150
39088SOL    HW119161  12.503   3.841   1.238
39088SOL    HW219162  12.488   3.787   1.097
39089SOL     OW19163   6.658  13.071   6.844
39089SOL    HW119164   6.586  13.012   6.868
39089SOL    HW219165   6.658  13.070   6.748
39090SOL     OW19166   0.786   3.651   3.326
39090SOL    HW119167   0.869   3.604   3.327
39090SOL    HW219168   0.789   3.708   3.404
39091SOL     OW19169   2.974  14.116  11.947
39091SOL    HW119170   2.936  14.198  11.981
39091SOL    HW219171   3.069  14.129  11.955
39092SOL     OW19172   2.388   6.515   7.319
39092SOL    HW119173   2.344   6.434   7.294
39092SOL    HW219174   2.385   6.515   7.414
39093SOL     OW19175   3.232  11.814   4.996
39093SOL    HW119176   3.187  11.741   4.955
39093SOL    HW219177   3.162  11.872   5.027
39094SOL     OW19178   6.292   0.927   2.564
39094SOL    HW119179   6.353   0.942   2.491
39094SOL    HW219180   6.322   0.987   2.632
39095SOL     OW19181  14.493   7.066   6.445
39095SOL    HW119182  14.536   7.024   6.371
39095SOL    HW219183  14.446   7.141   6.407
39096SOL     OW19184   5.339  13.128  13.578
39096SOL    HW119185   5.316  13.094  13.664
39096SOL    HW219186   5.421  13.085  13.556
39097SOL     OW19187   3.226   2.620   0.300
39097SOL    HW119188   3.185   2.570   0.371
39097SOL    HW219189   3.282   2.557   0.255
39098SOL     OW19190   7.220  10.408   2.427
39098SOL    HW119191   7.301  10.358   2.433
39098SOL    HW219192   7.247  10.495   2.397
39099SOL     OW19193   7.325  13.505   8.549
39099SOL    HW119194   7.360  13.424   8.584
39099SOL    HW219195   7.242  13.518   8.596
39100SOL     OW19196   3.213   2.226  13.496
39100SOL    HW119197   3.283   2.163  13.513
39100SOL    HW219198   3.152   2.214  13.569
39101SOL     OW19199   3.873   2.163   4.576
39101SOL    HW119200   3.786   2.191   4.548
39101SOL    HW219201   3.862   2.137   4.667
39102SOL     OW19202   2.817  11.027  14.845
39102SOL    HW119203   2.735  11.017  14.796
39102SOL    HW219204   2.862  11.100  14.803
39103SOL     OW19205   3.448   6.065   8.003
39103SOL    HW119206   3.541   6.071   8.026
39103SOL    HW219207   3.418   5.984   8.044
39104SOL     OW19208  10.971   9.978  10.996
39104SOL    HW119209  10.923  10.019  10.924
39104SOL    HW219210  11.024  10.049  11.033
39105SOL     OW19211  13.794   0.659  11.423
39105SOL    HW119212  13.720   0.717  11.441
39105SOL    HW219213  13.775   0.622  11.336
39106SOL     OW19214   0.386   2.957   6.572
39106SOL    HW119215   0.401   2.883   6.513
39106SOL    HW219216   0.473   2.983   6.602
39107SOL     OW19217   5.102   0.550   8.989
39107SOL    HW119218   5.174   0.506   8.943
39107SOL    HW219219   5.145   0.608   9.051
39108SOL     OW19220   9.624   5.370  13.514
39108SOL    HW119221   9.614   5.353  13.421
39108SOL    HW219222   9.619   5.284  13.555
39109SOL     OW19223  10.331  13.478  10.054
39109SOL    HW119224  10.420  13.464  10.024
39109SOL    HW219225  10.314  13.571  10.038
39110SOL     OW19226  11.216   0.962   4.919
39110SOL    HW119227  11.232   1.032   4.982
39110SOL    HW219228  11.263   0.887   4.955
39111SOL     OW19229  13.962   1.193   3.360
39111SOL    HW119230  13.919   1.116   3.398
39111SOL    HW219231  14.049   1.194   3.399
39112SOL     OW19232  12.105  12.134   7.174
39112SOL    HW119233  12.058  12.186   7.240
39112SOL    HW219234  12.082  12.175   7.091
39113SOL     OW19235   5.921   3.828   6.250
39113SOL    HW119236   5.866   3.783   6.315
39113SOL    HW219237   5.908   3.921   6.270
39114SOL     OW19238  13.112   2.662  10.867
39114SOL    HW119239  13.037   2.694  10.918
39114SOL    HW219240  13.093   2.570  10.852
39115SOL     OW19241   8.164   4.295   0.679
39115SOL    HW119242   8.102   4.363   0.652
39115SOL    HW219243   8.243   4.343   0.703
39116SOL     OW19244   8.875   4.395  12.866
39116SOL    HW119245   8.812   4.448  12.916
39116SOL    HW219246   8.950   4.453  12.854
39117SOL     OW19247   4.546   8.671   5.933
39117SOL    HW119248   4.635   8.673   5.898
39117SOL    HW219249   4.543   8.747   5.992
39118SOL     OW19250   7.699  12.175  13.953
39118SOL    HW119251   7.688  12.270  13.954
39118SOL    HW219252   7.669  12.149  13.866
39119SOL     OW19253   9.711   0.427   6.609
39119SOL    HW119254   9.699   0.521   6.600
39119SOL    HW219255   9.659   0.404   6.687
39120SOL     OW19256   4.136  13.482   8.160
39120SOL    HW119257   4.154  13.389   8.156
39120SOL    HW219258   4.042  13.488   8.175
39121SOL     OW19259   6.451  11.156   7.668
39121SOL    HW119260   6.504  11.088   7.626
39121SOL    HW219261   6.403  11.110   7.737
39122SOL     OW19262   1.447   1.204  10.322
39122SOL    HW119263   1.435   1.208  10.227
39122SOL    HW219264   1.380   1.263  10.357
39123SOL     OW19265   0.045   5.120  13.253
39123SOL    HW119266  14.855   5.172  13.235
39123SOL    HW219267   0.111   5.184  13.282
39124SOL     OW19268   0.612  12.686  12.950
39124SOL    HW119269   0.645  12.626  12.884
39124SOL    HW219270   0.565  12.630  13.012
39125SOL     OW19271  14.539  14.012   6.183
39125SOL    HW119272  14.627  14.049   6.175
39125SOL    HW219273  14.554  13.918   6.187
39126SOL     OW19274   9.681  14.015  13.237
39126SOL    HW119275   9.657  14.058  13.319
39126SOL    HW219276   9.702  14.088  13.178
39127SOL     OW19277  12.436   0.555   9.118
39127SOL    HW119278  12.367   0.489   9.127
39127SOL    HW219279  12.516   0.511   9.147
39128SOL     OW19280   7.680   5.415  10.759
39128SOL    HW119281   7.623   5.422  10.682
39128SOL    HW219282   7.760   5.461  10.733
39129SOL     OW19283   3.325  11.726   4.079
39129SOL    HW119284   3.341  11.802   4.135
39129SOL    HW219285   3.288  11.763   3.998
39130SOL     OW19286  11.677   5.406   4.913
39130SOL    HW119287  11.742   5.470   4.944
39130SOL    HW219288  11.699   5.393   4.821
39131SOL     OW19289   9.531  11.453   3.209
39131SOL    HW119290   9.508  11.373   3.161
39131SOL    HW219291   9.626  11.446   3.221
39132SOL     OW19292  13.697   0.512   8.674
39132SOL    HW119293  13.703   0.585   8.614
39132SOL    HW219294  13.699   0.552   8.761
39133SOL     OW19295   5.228   5.752  13.008
39133SOL    HW119296   5.292   5.781  13.074
39133SOL    HW219297   5.273   5.682  12.961
39134SOL     OW19298   0.753   0.989   9.754
39134SOL    HW119299   0.795   0.966   9.671
39134SOL    HW219300   0.666   1.020   9.730
39135SOL     OW19301   2.482  10.135   0.327
39135SOL    HW119302   2.448  10.059   0.280
39135SOL    HW219303   2.510  10.196   0.259
39136SOL     OW19304  11.319   1.862  13.026
39136SOL    HW119305  11.234   1.880  13.065
39136SOL    HW219306  11.357   1.949  13.011
39137SOL     OW19307  10.784   4.630   5.178
39137SOL    HW119308  10.709   4.679   5.145
39137SOL    HW219309  10.761   4.538   5.162
39138SOL     OW19310   0.380   8.187   9.557
39138SOL    HW119311   0.284   8.181   9.556
39138SOL    HW219312   0.400   8.238   9.635
39139SOL     OW19313   8.476   7.333   0.717
39139SOL    HW119314   8.409   7.402   0.723
39139SOL    HW219315   8.452   7.284   0.638
39140SOL     OW19316   5.100  12.929  13.362
39140SOL    HW119317   5.039  12.867  13.322
39140SOL    HW219318   5.176  12.928  13.304
39141SOL     OW19319   1.559   8.029  10.302
39141SOL    HW119320   1.559   7.980  10.220
39141SOL    HW219321   1.573   7.962  10.370
39142SOL     OW19322  10.567   6.744   8.388
39142SOL    HW119323  10.663   6.740   8.392
39142SOL    HW219324  10.543   6.668   8.335
39143SOL     OW19325   0.490   7.770  12.809
39143SOL    HW119326   0.420   7.834  12.821
39143SOL    HW219327   0.537   7.800  12.732
39144SOL     OW19328  11.200   7.874   4.335
39144SOL    HW119329  11.106   7.855   4.344
39144SOL    HW219330  11.224   7.916   4.417
39145SOL     OW19331  11.271  10.711   5.491
39145SOL    HW119332  11.358  10.715   5.450
39145SOL    HW219333  11.227  10.640   5.445
39146SOL     OW19334   7.561   6.551   6.953
39146SOL    HW119335   7.523   6.615   7.014
39146SOL    HW219336   7.621   6.499   7.008
39147SOL     OW19337   4.598   9.486   4.399
39147SOL    HW119338   4.654   9.504   4.475
39147SOL    HW219339   4.616   9.558   4.339
39148SOL     OW19340   7.544   2.717   2.472
39148SOL    HW119341   7.625   2.693   2.427
39148SOL    HW219342   7.570   2.727   2.564
39149SOL     OW19343   6.638   2.692  10.317
39149SOL    HW119344   6.691   2.698  10.396
39149SOL    HW219345   6.617   2.782  10.294
39150SOL     OW19346   7.619  13.676   7.988
39150SOL    HW119347   7.700  13.678   8.039
39150SOL    HW219348   7.589  13.585   7.995
39151SOL     OW19349  14.314   5.816   0.191
39151SOL    HW119350  14.378   5.882   0.163
39151SOL    HW219351  14.362   5.734   0.190
39152SOL     OW19352   7.159   8.737   2.348
39152SOL    HW119353   7.109   8.810   2.383
39152SOL    HW219354   7.096   8.687   2.296
39153SOL     OW19355  11.559   3.245  10.512
39153SOL    HW119356  11.630   3.286  10.462
39153SOL    HW219357  11.603   3.180  10.567
39154SOL     OW19358   6.669  13.208   1.803
39154SOL    HW119359   6.624  13.152   1.740
39154SOL    HW219360   6.600  13.265   1.838
39155SOL     OW19361   6.927   1.805  13.265
39155SOL    HW119362   7.015   1.844  13.269
39155SOL    HW219363   6.935   1.723  13.314
39156SOL     OW19364   2.929  10.432   4.383
39156SOL    HW119365   2.870  10.376   4.434
39156SOL    HW219366   2.944  10.383   4.302
39157SOL     OW19367   3.160   0.616  11.123
39157SOL    HW119368   3.077   0.637  11.081
39157SOL    HW219369   3.136   0.570  11.204
39158SOL     OW19370  14.353  12.015   0.176
39158SOL    HW119371  14.446  12.030   0.195
39158SOL    HW219372  14.327  11.946   0.236
39159SOL     OW19373   6.743   3.250   5.111
39159SOL    HW119374   6.719   3.288   5.196
39159SOL    HW219375   6.743   3.155   5.127
39160SOL     OW19376   7.463   1.701   3.655
39160SOL    HW119377   7.498   1.623   3.698
39160SOL    HW219378   7.498   1.774   3.705
39161SOL     OW19379  13.024   7.696   8.348
39161SOL    HW119380  13.074   7.615   8.360
39161SOL    HW219381  12.942   7.668   8.307
39162SOL     OW19382   1.841  11.048   6.868
39162SOL    HW119383   1.821  11.139   6.888
39162SOL    HW219384   1.843  11.044   6.772
39163SOL     OW19385   2.855   6.056   4.780
39163SOL    HW119386   2.812   6.012   4.707
39163SOL    HW219387   2.922   5.994   4.808
39164SOL     OW19388   1.784   4.738   0.981
39164SOL    HW119389   1.721   4.770   0.917
39164SOL    HW219390   1.738   4.742   1.065
39165SOL     OW19391  12.557   4.890   7.913
39165SOL    HW119392  12.555   4.839   7.994
39165SOL    HW219393  12.497   4.963   7.929
39166SOL     OW19394   9.234   9.355   1.846
39166SOL    HW119395   9.178   9.422   1.886
39166SOL    HW219396   9.309   9.348   1.905
39167SOL     OW19397   6.692  14.648  12.411
39167SOL    HW119398   6.618  14.589  12.417
39167SOL    HW219399   6.734  14.643  12.496
39168SOL     OW19400   7.351  14.410   2.038
39168SOL    HW119401   7.412  14.429   1.966
39168SOL    HW219402   7.285  14.353   1.999
39169SOL     OW19403   3.524   1.004   4.258
39169SOL    HW119404   3.506   0.954   4.338
39169SOL    HW219405   3.437   1.020   4.221
39170SOL     OW19406   4.299  10.242   8.349
39170SOL    HW119407   4.310  10.225   8.255
39170SOL    HW219408   4.366  10.187   8.391
39171SOL     OW19409   9.347   3.307  11.838
39171SOL    HW119410   9.378   3.397  11.826
39171SOL    HW219411   9.318   3.303  11.929
39172SOL     OW19412   8.419   4.510   1.764
39172SOL    HW119413   8.332   4.527   1.799
39172SOL    HW219414   8.440   4.421   1.795
39173SOL     OW19415   0.263   3.750   8.895
39173SOL    HW119416   0.356   3.761   8.913
39173SOL    HW219417   0.235   3.681   8.956
39174SOL     OW19418   6.190  12.351  13.220
39174SOL    HW119419   6.101  12.374  13.195
39174SOL    HW219420   6.200  12.260  13.193
39175SOL     OW19421   5.695   7.710   8.232
39175SOL    HW119422   5.727   7.758   8.309
39175SOL    HW219423   5.602   7.731   8.229
39176SOL     OW19424  10.200  13.704   5.093
39176SOL    HW119425  10.275  13.762   5.098
39176SOL    HW219426  10.159  13.710   5.179
39177SOL     OW19427  12.405   8.112  10.056
39177SOL    HW119428  12.403   8.094  10.151
39177SOL    HW219429  12.377   8.030  10.016
39178SOL     OW19430   8.430  11.292  14.845
39178SOL    HW119431   8.399  11.233   0.026
39178SOL    HW219432   8.498  11.344  14.887
39179SOL     OW19433   6.643   4.200   4.903
39179SOL    HW119434   6.581   4.147   4.854
39179SOL    HW219435   6.667   4.270   4.842
39180SOL     OW19436   0.996  12.683   1.292
39180SOL    HW119437   1.021  12.632   1.369
39180SOL    HW219438   0.908  12.714   1.312
39181SOL     OW19439   7.506   5.977   1.233
39181SOL    HW119440   7.447   6.053   1.230
39181SOL    HW219441   7.457   5.911   1.281
39182SOL     OW19442   5.413   1.068   7.229
39182SOL    HW119443   5.400   1.141   7.169
39182SOL    HW219444   5.336   1.069   7.285
39183SOL     OW19445  13.564  13.309   8.294
39183SOL    HW119446  13.499  13.247   8.262
39183SOL    HW219447  13.572  13.374   8.224
39184SOL     OW19448   8.338  12.561   4.446
39184SOL    HW119449   8.278  12.621   4.401
39184SOL    HW219450   8.361  12.496   4.379
39185SOL     OW19451   5.424   8.361   0.371
39185SOL    HW119452   5.434   8.269   0.348
39185SOL    HW219453   5.459   8.368   0.460
39186SOL     OW19454   2.663   7.360   7.568
39186SOL    HW119455   2.676   7.267   7.552
39186SOL    HW219456   2.594   7.386   7.507
39187SOL     OW19457   6.051   5.154  14.409
39187SOL    HW119458   6.096   5.071  14.423
39187SOL    HW219459   6.080   5.209  14.482
39188SOL     OW19460  14.633   4.915  11.383
39188SOL    HW119461  14.719   4.888  11.417
39188SOL    HW219462  14.645   5.007  11.359
39189SOL     OW19463   7.192   5.551   3.448
39189SOL    HW119464   7.233   5.614   3.506
39189SOL    HW219465   7.100   5.576   3.446
39190SOL     OW19466   1.734  11.824   3.160
39190SOL    HW119467   1.784  11.743   3.150
39190SOL    HW219468   1.697  11.840   3.073
39191SOL     OW19469  13.006   7.323   5.970
39191SOL    HW119470  13.060   7.358   6.041
39191SOL    HW219471  13.039   7.235   5.956
39192SOL     OW19472   6.812  10.688  13.941
39192SOL    HW119473   6.755  10.753  13.981
39192SOL    HW219474   6.900  10.725  13.948
39193SOL     OW19475  14.412   1.287   0.669
39193SOL    HW119476  14.339   1.233   0.639
39193SOL    HW219477  14.370   1.370   0.695
39194SOL     OW19478  12.038   5.836  14.631
39194SOL    HW119479  12.015   5.848  14.538
39194SOL    HW219480  12.120   5.786  14.629
39195SOL     OW19481   5.522  11.448  12.899
39195SOL    HW119482   5.554  11.417  12.984
39195SOL    HW219483   5.591  11.426  12.837
39196SOL     OW19484   2.602   5.504   5.593
39196SOL    HW119485   2.679   5.447   5.597
39196SOL    HW219486   2.548   5.469   5.523
39197SOL     OW19487   4.257  11.282   7.107
39197SOL    HW119488   4.171  11.324   7.099
39197SOL    HW219489   4.245  11.196   7.066
39198SOL     OW19490  11.142   0.035   7.928
39198SOL    HW119491  11.086   0.016   8.004
39198SOL    HW219492  11.153  14.838   7.885
39199SOL     OW19493   8.610   3.343   9.730
39199SOL    HW119494   8.531   3.373   9.774
39199SOL    HW219495   8.583   3.329   9.639
39200SOL     OW19496  14.528   6.518  14.542
39200SOL    HW119497  14.563   6.430  14.531
39200SOL    HW219498  14.587   6.560  14.604
39201SOL     OW19499   9.314  13.629  12.048
39201SOL    HW119500   9.396  13.672  12.070
39201SOL    HW219501   9.337  13.537  12.037
39202SOL     OW19502  11.428   2.875   0.417
39202SOL    HW119503  11.406   2.944   0.479
39202SOL    HW219504  11.495   2.823   0.462
39203SOL     OW19505  13.719  14.171   5.224
39203SOL    HW119506  13.657  14.244   5.222
39203SOL    HW219507  13.765  14.182   5.308
39204SOL     OW19508   2.654   0.149   1.644
39204SOL    HW119509   2.697   0.074   1.603
39204SOL    HW219510   2.691   0.153   1.732
39205SOL     OW19511   4.994   3.034  10.385
39205SOL    HW119512   5.086   3.009  10.385
39205SOL    HW219513   4.992   3.117  10.434
39206SOL     OW19514   6.181   9.060  10.934
39206SOL    HW119515   6.218   9.147  10.919
39206SOL    HW219516   6.092   9.065  10.897
39207SOL     OW19517  11.787   3.700   6.078
39207SOL    HW119518  11.862   3.654   6.116
39207SOL    HW219519  11.812   3.713   5.986
39208SOL     OW19520  11.017  12.520   4.083
39208SOL    HW119521  11.024  12.615   4.069
39208SOL    HW219522  11.020  12.483   3.995
39209SOL     OW19523   9.218   7.079   6.967
39209SOL    HW119524   9.143   7.098   7.023
39209SOL    HW219525   9.204   6.990   6.936
39210SOL     OW19526   9.915   8.772  11.740
39210SOL    HW119527  10.001   8.811  11.756
39210SOL    HW219528   9.913   8.754  11.646
39211SOL     OW19529   9.636   7.767   2.856
39211SOL    HW119530   9.546   7.795   2.842
39211SOL    HW219531   9.657   7.797   2.944
39212SOL     OW19532  13.555   8.960  11.730
39212SOL    HW119533  13.485   8.906  11.768
39212SOL    HW219534  13.513   9.045  11.713
39213SOL     OW19535   2.935   6.029   5.378
39213SOL    HW119536   2.856   6.047   5.429
39213SOL    HW219537   2.944   5.934   5.380
39214SOL     OW19538   4.066   0.124  13.033
39214SOL    HW119539   4.145   0.076  13.060
39214SOL    HW219540   4.009   0.119  13.110
39215SOL     OW19541  14.015  10.239  13.881
39215SOL    HW119542  14.010  10.290  13.962
39215SOL    HW219543  13.956  10.285  13.821
39216SOL     OW19544   8.991   9.936  13.807
39216SOL    HW119545   8.911   9.948  13.757
39216SOL    HW219546   9.008   9.842  13.804
39217SOL     OW19547   1.669   2.129   9.403
39217SOL    HW119548   1.680   2.224   9.406
39217SOL    HW219549   1.645   2.111   9.312
39218SOL     OW19550   8.339  10.592   7.382
39218SOL    HW119551   8.371  10.507   7.350
39218SOL    HW219552   8.347  10.585   7.477
39219SOL     OW19553   9.224   7.359  10.240
39219SOL    HW119554   9.164   7.363  10.315
39219SOL    HW219555   9.173   7.395  10.167
39220SOL     OW19556  14.203   7.483   0.208
39220SOL    HW119557  14.163   7.458   0.124
39220SOL    HW219558  14.287   7.438   0.207
39221SOL     OW19559   1.950   4.897   0.640
39221SOL    HW119560   1.991   4.830   0.694
39221SOL    HW219561   1.971   4.980   0.683
39222SOL     OW19562   4.241   8.348  10.089
39222SOL    HW119563   4.265   8.425  10.038
39222SOL    HW219564   4.150   8.330  10.064
39223SOL     OW19565   1.474   3.149   8.402
39223SOL    HW119566   1.535   3.150   8.476
39223SOL    HW219567   1.499   3.225   8.349
39224SOL     OW19568  10.617   0.122   6.981
39224SOL    HW119569  10.575   0.083   6.904
39224SOL    HW219570  10.703   0.082   6.984
39225SOL     OW19571   4.713  14.018  12.969
39225SOL    HW119572   4.807  14.036  12.965
39225SOL    HW219573   4.682  14.068  13.045
39226SOL     OW19574   5.303  10.860   3.176
39226SOL    HW119575   5.219  10.878   3.218
39226SOL    HW219576   5.291  10.773   3.138
39227SOL     OW19577   9.033  13.549   8.402
39227SOL    HW119578   9.027  13.528   8.309
39227SOL    HW219579   9.077  13.473   8.441
39228SOL     OW19580   7.761   1.618   5.309
39228SOL    HW119581   7.680   1.566   5.316
39228SOL    HW219582   7.831   1.555   5.326
39229SOL     OW19583   8.747   3.022  12.345
39229SOL    HW119584   8.719   3.111  12.368
39229SOL    HW219585   8.754   3.024  12.249
39230SOL     OW19586   5.974  11.535   1.548
39230SOL    HW119587   5.992  11.594   1.474
39230SOL    HW219588   5.984  11.447   1.511
39231SOL     OW19589   6.720  12.316   4.442
39231SOL    HW119590   6.655  12.353   4.382
39231SOL    HW219591   6.798  12.368   4.429
39232SOL     OW19592  10.262   4.019   2.014
39232SOL    HW119593  10.237   3.998   1.924
39232SOL    HW219594  10.260   3.934   2.059
39233SOL     OW19595  13.023   2.004   7.625
39233SOL    HW119596  13.036   1.918   7.664
39233SOL    HW219597  12.968   1.988   7.548
39234SOL     OW19598   0.554   1.191   1.763
39234SOL    HW119599   0.623   1.257   1.756
39234SOL    HW219600   0.523   1.198   1.853
39235SOL     OW19601  13.692  11.924   1.428
39235SOL    HW119602  13.675  11.954   1.338
39235SOL    HW219603  13.649  11.838   1.433
39236SOL     OW19604   2.551  13.910   8.764
39236SOL    HW119605   2.600  13.850   8.708
39236SOL    HW219606   2.577  13.888   8.853
39237SOL     OW19607   1.288   7.261   3.827
39237SOL    HW119608   1.336   7.208   3.891
39237SOL    HW219609   1.204   7.278   3.869
39238SOL     OW19610   1.672   2.922   5.174
39238SOL    HW119611   1.737   2.890   5.237
39238SOL    HW219612   1.635   2.999   5.216
39239SOL     OW19613   1.803   2.846  12.395
39239SOL    HW119614   1.844   2.766  12.425
39239SOL    HW219615   1.826   2.912  12.460
39240SOL     OW19616   5.505   0.167   4.479
39240SOL    HW119617   5.450   0.239   4.450
39240SOL    HW219618   5.445   0.103   4.517
39241SOL     OW19619   3.093  11.299   8.326
39241SOL    HW119620   3.124  11.219   8.284
39241SOL    HW219621   3.001  11.306   8.299
39242SOL     OW19622   9.254   9.961   6.485
39242SOL    HW119623   9.237   9.891   6.422
39242SOL    HW219624   9.175  10.015   6.483
39243SOL     OW19625   3.421   2.975   3.941
39243SOL    HW119626   3.468   3.055   3.964
39243SOL    HW219627   3.340   3.006   3.900
39244SOL     OW19628   9.966   0.443   7.630
39244SOL    HW119629  10.007   0.454   7.544
39244SOL    HW219630  10.000   0.514   7.683
39245SOL     OW19631   0.568  11.628   0.896
39245SOL    HW119632   0.538  11.545   0.933
39245SOL    HW219633   0.657  11.639   0.930
39246SOL     OW19634   9.337  13.535   4.931
39246SOL    HW119635   9.349  13.608   4.870
39246SOL    HW219636   9.266  13.484   4.893
39247SOL     OW19637   2.413   8.969   5.959
39247SOL    HW119638   2.445   8.886   5.994
39247SOL    HW219639   2.490   9.010   5.920
39248SOL     OW19640  13.142   6.962   0.122
39248SOL    HW119641  13.088   6.886   0.101
39248SOL    HW219642  13.170   6.949   0.213
39249SOL     OW19643   6.182   5.744  14.572
39249SOL    HW119644   6.103   5.711  14.528
39249SOL    HW219645   6.155   5.760  14.662
39250SOL     OW19646  12.927   4.587  12.187
39250SOL    HW119647  13.017   4.592  12.153
39250SOL    HW219648  12.879   4.539  12.119
39251SOL     OW19649  14.738   7.894   4.246
39251SOL    HW119650  14.776   7.926   4.164
39251SOL    HW219651  14.739   7.970   4.304
39252SOL     OW19652  12.002   3.197   3.316
39252SOL    HW119653  12.040   3.190   3.229
39252SOL    HW219654  11.917   3.239   3.302
39253SOL     OW19655  10.770   9.486  10.040
39253SOL    HW119656  10.776   9.457   9.949
39253SOL    HW219657  10.805   9.412  10.090
39254SOL     OW19658   6.177   5.169  14.782
39254SOL    HW119659   6.261   5.216  14.784
39254SOL    HW219660   6.123   5.215  14.846
39255SOL     OW19661  12.201   2.895   6.653
39255SOL    HW119662  12.161   2.868   6.735
39255SOL    HW219663  12.277   2.838   6.643
39256SOL     OW19664   4.536   9.549   7.709
39256SOL    HW119665   4.459   9.592   7.747
39256SOL    HW219666   4.610   9.585   7.759
39257SOL     OW19667   4.840  10.923   9.046
39257SOL    HW119668   4.798  11.007   9.026
39257SOL    HW219669   4.920  10.947   9.093
39258SOL     OW19670   9.382  10.456   3.667
39258SOL    HW119671   9.302  10.490   3.628
39258SOL    HW219672   9.361  10.444   3.759
39259SOL     OW19673   2.097   2.902  10.139
39259SOL    HW119674   2.047   2.984  10.133
39259SOL    HW219675   2.079   2.871  10.228
39260SOL     OW19676  13.290   0.145  10.008
39260SOL    HW119677  13.294   0.120   9.916
39260SOL    HW219678  13.199   0.131  10.033
39261SOL     OW19679  12.846   3.237   6.694
39261SOL    HW119680  12.845   3.164   6.632
39261SOL    HW219681  12.930   3.230   6.738
39262SOL     OW19682   9.811   3.005   5.555
39262SOL    HW119683   9.767   2.980   5.636
39262SOL    HW219684   9.746   3.058   5.508
39263SOL     OW19685   3.768   3.957  11.583
39263SOL    HW119686   3.785   3.973  11.490
39263SOL    HW219687   3.740   3.865  11.586
39264SOL     OW19688   4.365   5.402   8.255
39264SOL    HW119689   4.303   5.359   8.196
39264SOL    HW219690   4.411   5.465   8.200
39265SOL     OW19691   3.264   8.445   6.495
39265SOL    HW119692   3.231   8.535   6.500
39265SOL    HW219693   3.352   8.454   6.457
39266SOL     OW19694  10.197  10.139   6.636
39266SOL    HW119695  10.214  10.125   6.729
39266SOL    HW219696  10.103  10.155   6.631
39267SOL     OW19697   6.620   0.501   7.937
39267SOL    HW119698   6.536   0.546   7.948
39267SOL    HW219699   6.628   0.444   8.013
39268SOL     OW19700  11.749  14.851   9.045
39268SOL    HW119701  11.747   0.003   8.958
39268SOL    HW219702  11.669  14.799   9.050
39269SOL     OW19703   2.621  12.582  11.033
39269SOL    HW119704   2.620  12.672  10.998
39269SOL    HW219705   2.551  12.537  10.986
39270SOL     OW19706   2.108   6.551   4.625
39270SOL    HW119707   2.051   6.495   4.676
39270SOL    HW219708   2.179   6.576   4.685
39271SOL     OW19709   3.499  10.200   2.440
39271SOL    HW119710   3.500  10.105   2.444
39271SOL    HW219711   3.417  10.225   2.483
39272SOL     OW19712   6.178   2.758   5.405
39272SOL    HW119713   6.084   2.768   5.420
39272SOL    HW219714   6.191   2.664   5.390
39273SOL     OW19715  11.977  11.157   6.146
39273SOL    HW119716  12.056  11.103   6.142
39273SOL    HW219717  11.934  11.142   6.062
39274SOL     OW19718  11.261  10.597   7.693
39274SOL    HW119719  11.190  10.660   7.706
39274SOL    HW219720  11.224  10.533   7.632
39275SOL     OW19721  10.809  11.479   5.323
39275SOL    HW119722  10.747  11.548   5.345
39275SOL    HW219723  10.864  11.470   5.401
39276SOL     OW19724  13.544  10.524  14.595
39276SOL    HW119725  13.513  10.588  14.531
39276SOL    HW219726  13.511  10.440  14.562
39277SOL     OW19727  11.384   6.227   6.807
39277SOL    HW119728  11.334   6.309   6.817
39277SOL    HW219729  11.475   6.255   6.809
39278SOL     OW19730   4.166  10.163   0.618
39278SOL    HW119731   4.180  10.072   0.644
39278SOL    HW219732   4.176  10.213   0.699
39279SOL     OW19733   6.211  12.489   4.701
39279SOL    HW119734   6.180  12.408   4.741
39279SOL    HW219735   6.246  12.462   4.616
39280SOL     OW19736  12.253   1.491  10.408
39280SOL    HW119737  12.234   1.580  10.435
39280SOL    HW219738  12.234   1.437  10.485
39281SOL     OW19739   3.923   8.052   1.146
39281SOL    HW119740   3.830   8.028   1.147
39281SOL    HW219741   3.957   8.017   1.228
39282SOL     OW19742  10.625   2.754   0.595
39282SOL    HW119743  10.609   2.809   0.671
39282SOL    HW219744  10.717   2.727   0.604
39283SOL     OW19745   9.797   8.639  14.414
39283SOL    HW119746   9.793   8.583  14.337
39283SOL    HW219747   9.716   8.690  14.411
39284SOL     OW19748   2.807   9.772   7.649
39284SOL    HW119749   2.745   9.743   7.582
39284SOL    HW219750   2.771   9.738   7.731
39285SOL     OW19751   9.836  10.871  12.797
39285SOL    HW119752   9.865  10.784  12.824
39285SOL    HW219753   9.860  10.929  12.870
39286SOL     OW19754   3.036  13.002  13.214
39286SOL    HW119755   2.948  13.021  13.181
39286SOL    HW219756   3.049  12.909  13.196
39287SOL     OW19757  11.493  12.049   3.472
39287SOL    HW119758  11.514  12.142   3.460
39287SOL    HW219759  11.568  12.002   3.435
39288SOL     OW19760   2.038   8.127  11.849
39288SOL    HW119761   1.948   8.155  11.836
39288SOL    HW219762   2.081   8.201  11.892
39289SOL     OW19763  13.461   8.455   6.512
39289SOL    HW119764  13.440   8.470   6.604
39289SOL    HW219765  13.507   8.534   6.484
39290SOL     OW19766   6.750  13.511   9.845
39290SOL    HW119767   6.788  13.598   9.833
39290SOL    HW219768   6.671  13.526   9.897
39291SOL     OW19769   9.889   5.725   8.597
39291SOL    HW119770   9.982   5.704   8.600
39291SOL    HW219771   9.851   5.660   8.538
39292SOL     OW19772   6.219  13.780  14.693
39292SOL    HW119773   6.189  13.837  14.622
39292SOL    HW219774   6.170  13.699  14.680
39293SOL     OW19775   2.247   2.348   9.757
39293SOL    HW119776   2.315   2.415   9.758
39293SOL    HW219777   2.288   2.271   9.716
39294SOL     OW19778   0.165   7.782  11.381
39294SOL    HW119779   0.127   7.833  11.310
39294SOL    HW219780   0.257   7.809  11.382
39295SOL     OW19781  14.455   6.567   0.201
39295SOL    HW119782  14.491   6.632   0.261
39295SOL    HW219783  14.399   6.512   0.256
39296SOL     OW19784   8.395  14.455   7.653
39296SOL    HW119785   8.304  14.457   7.622
39296SOL    HW219786   8.389  14.450   7.748
39297SOL     OW19787   5.470  12.567   8.569
39297SOL    HW119788   5.479  12.484   8.616
39297SOL    HW219789   5.452  12.541   8.479
39298SOL     OW19790   3.982   9.570   3.643
39298SOL    HW119791   3.920   9.586   3.572
39298SOL    HW219792   4.010   9.657   3.671
39299SOL     OW19793   8.463   0.029   1.646
39299SOL    HW119794   8.381  14.866   1.639
39299SOL    HW219795   8.475   0.043   1.740
39300SOL     OW19796  11.600   0.080   6.058
39300SOL    HW119797  11.682   0.128   6.047
39300SOL    HW219798  11.567   0.110   6.143
39301SOL     OW19799  14.592  12.527  10.013
39301SOL    HW119800  14.593  12.502  10.105
39301SOL    HW219801  14.626  12.450   9.967
39302SOL     OW19802  10.317  12.866  10.990
39302SOL    HW119803  10.384  12.878  11.057
39302SOL    HW219804  10.264  12.946  10.995
39303SOL     OW19805  11.950   0.477   6.048
39303SOL    HW119806  12.009   0.515   5.983
39303SOL    HW219807  11.988   0.501   6.133
39304SOL     OW19808   5.391   9.840   0.579
39304SOL    HW119809   5.296   9.828   0.583
39304SOL    HW219810   5.403   9.932   0.556
39305SOL     OW19811  14.313   1.939   8.358
39305SOL    HW119812  14.284   1.848   8.371
39305SOL    HW219813  14.264   1.989   8.423
39306SOL     OW19814  11.786   6.728   1.520
39306SOL    HW119815  11.830   6.812   1.506
39306SOL    HW219816  11.709   6.749   1.572
39307SOL     OW19817   0.113  14.201   7.813
39307SOL    HW119818   0.138  14.292   7.833
39307SOL    HW219819   0.116  14.156   7.897
39308SOL     OW19820  14.177   2.741   9.740
39308SOL    HW119821  14.164   2.764   9.648
39308SOL    HW219822  14.090   2.714   9.770
39309SOL     OW19823   5.916   1.630  11.798
39309SOL    HW119824   5.921   1.586  11.882
39309SOL    HW219825   5.849   1.582  11.749
39310SOL     OW19826   8.523  14.174   5.328
39310SOL    HW119827   8.554  14.187   5.239
39310SOL    HW219828   8.485  14.259   5.353
39311SOL     OW19829   1.901   0.237   2.431
39311SOL    HW119830   1.840   0.286   2.376
39311SOL    HW219831   1.853   0.159   2.458
39312SOL     OW19832   3.930   7.616   3.967
39312SOL    HW119833   3.997   7.683   3.966
39312SOL    HW219834   3.939   7.573   4.052
39313SOL     OW19835   8.483   9.268  11.566
39313SOL    HW119836   8.394   9.301  11.555
39313SOL    HW219837   8.517   9.316  11.642
39314SOL     OW19838   0.203  10.575  11.057
39314SOL    HW119839   0.294  10.544  11.061
39314SOL    HW219840   0.161  10.517  10.993
39315SOL     OW19841  12.019   0.753   1.216
39315SOL    HW119842  12.092   0.733   1.159
39315SOL    HW219843  12.031   0.695   1.292
39316SOL     OW19844   6.788  12.254   1.502
39316SOL    HW119845   6.759  12.270   1.592
39316SOL    HW219846   6.813  12.161   1.501
39317SOL     OW19847   5.242   6.351  13.508
39317SOL    HW119848   5.325   6.341  13.462
39317SOL    HW219849   5.208   6.262  13.516
39318SOL     OW19850  10.725  11.948   5.415
39318SOL    HW119851  10.772  11.948   5.332
39318SOL    HW219852  10.792  11.967   5.481
39319SOL     OW19853   3.862  11.168  10.105
39319SOL    HW119854   3.924  11.193  10.036
39319SOL    HW219855   3.914  11.166  10.185
39320SOL     OW19856  12.275   6.607  10.522
39320SOL    HW119857  12.185   6.594  10.552
39320SOL    HW219858  12.267   6.636  10.432
39321SOL     OW19859   2.750  13.991   0.289
39321SOL    HW119860   2.725  13.907   0.250
39321SOL    HW219861   2.787  14.041   0.216
39322SOL     OW19862   7.086   7.762  14.653
39322SOL    HW119863   7.132   7.732  14.731
39322SOL    HW219864   7.123   7.709  14.582
39323SOL     OW19865   4.547  11.106   8.701
39323SOL    HW119866   4.568  11.070   8.615
39323SOL    HW219867   4.458  11.075   8.719
39324SOL     OW19868   4.236   0.103   0.623
39324SOL    HW119869   4.182   0.166   0.670
39324SOL    HW219870   4.174   0.053   0.570
39325SOL     OW19871   2.797   0.364  11.217
39325SOL    HW119872   2.742   0.370  11.296
39325SOL    HW219873   2.887   0.365  11.251
39326SOL     OW19874   5.875  14.678   9.197
39326SOL    HW119875   5.948  14.666   9.258
39326SOL    HW219876   5.814  14.734   9.244
39327SOL     OW19877   1.940   2.838  13.282
39327SOL    HW119878   1.942   2.843  13.186
39327SOL    HW219879   2.022   2.877  13.310
39328SOL     OW19880   5.811  14.857   0.605
39328SOL    HW119881   5.813   0.062   0.578
39328SOL    HW219882   5.798  14.808   0.524
39329SOL     OW19883   3.354   8.359   9.109
39329SOL    HW119884   3.376   8.286   9.051
39329SOL    HW219885   3.292   8.412   9.059
39330SOL     OW19886   1.714   0.695   8.950
39330SOL    HW119887   1.750   0.667   8.866
39330SOL    HW219888   1.623   0.719   8.930
39331SOL     OW19889   9.992  12.128   2.608
39331SOL    HW119890  10.025  12.045   2.643
39331SOL    HW219891   9.927  12.156   2.672
39332SOL     OW19892   9.454  13.707   6.912
39332SOL    HW119893   9.504  13.772   6.864
39332SOL    HW219894   9.508  13.629   6.911
39333SOL     OW19895   5.248   7.674   4.919
39333SOL    HW119896   5.245   7.710   4.830
39333SOL    HW219897   5.167   7.705   4.960
39334SOL     OW19898   9.402   0.711   4.368
39334SOL    HW119899   9.412   0.689   4.460
39334SOL    HW219900   9.311   0.741   4.360
39335SOL     OW19901   3.769   0.494  14.887
39335SOL    HW119902   3.720   0.533   0.072
39335SOL    HW219903   3.856   0.533   0.005
39336SOL     OW19904   3.766   0.314   4.107
39336SOL    HW119905   3.792   0.366   4.032
39336SOL    HW219906   3.673   0.332   4.118
39337SOL     OW19907  14.420  14.703   3.207
39337SOL    HW119908  14.388  14.764   3.140
39337SOL    HW219909  14.375  14.621   3.188
39338SOL     OW19910   3.318   8.344   2.611
39338SOL    HW119911   3.391   8.357   2.671
39338SOL    HW219912   3.345   8.271   2.555
39339SOL     OW19913  13.113   3.663   9.048
39339SOL    HW119914  13.059   3.584   9.046
39339SOL    HW219915  13.142   3.671   9.139
39340SOL     OW19916   1.391   3.713   9.037
39340SOL    HW119917   1.469   3.666   9.065
39340SOL    HW219918   1.334   3.644   9.001
39341SOL     OW19919   2.746   1.869   6.317
39341SOL    HW119920   2.728   1.961   6.336
39341SOL    HW219921   2.778   1.870   6.227
39342SOL     OW19922   1.166  10.951   0.719
39342SOL    HW119923   1.206  11.029   0.757
39342SOL    HW219924   1.157  10.971   0.626
39343SOL     OW19925   9.179   6.847   6.838
39343SOL    HW119926   9.175   6.752   6.849
39343SOL    HW219927   9.238   6.860   6.764
39344SOL     OW19928  14.075  11.879   5.579
39344SOL    HW119929  14.078  11.846   5.669
39344SOL    HW219930  13.983  11.873   5.554
39345SOL     OW19931   9.664   9.751  11.582
39345SOL    HW119932   9.606   9.824  11.558
39345SOL    HW219933   9.739   9.760  11.524
39346SOL     OW19934   2.762  10.714   2.313
39346SOL    HW119935   2.671  10.688   2.302
39346SOL    HW219936   2.812  10.650   2.262
39347SOL     OW19937  12.956   9.284   2.250
39347SOL    HW119938  12.974   9.364   2.199
39347SOL    HW219939  12.906   9.315   2.325
39348SOL     OW19940  11.253   1.900   8.810
39348SOL    HW119941  11.212   1.819   8.780
39348SOL    HW219942  11.279   1.882   8.900
39349SOL     OW19943   4.535   5.411   0.836
39349SOL    HW119944   4.468   5.479   0.838
39349SOL    HW219945   4.600   5.439   0.901
39350SOL     OW19946   3.844  13.970  11.545
39350SOL    HW119947   3.848  13.969  11.449
39350SOL    HW219948   3.833  13.879  11.570
39351SOL     OW19949   9.673   6.263   7.276
39351SOL    HW119950   9.603   6.205   7.246
39351SOL    HW219951   9.686   6.324   7.203
39352SOL     OW19952   4.463  11.216  10.347
39352SOL    HW119953   4.467  11.266  10.429
39352SOL    HW219954   4.530  11.148  10.358
39353SOL     OW19955   4.542   7.039   6.735
39353SOL    HW119956   4.606   6.971   6.710
39353SOL    HW219957   4.495   7.001   6.809
39354SOL     OW19958  11.926   5.434   5.924
39354SOL    HW119959  11.922   5.340   5.939
39354SOL    HW219960  11.835   5.460   5.911
39355SOL     OW19961   1.761   1.022  10.926
39355SOL    HW119962   1.704   1.023  10.848
39355SOL    HW219963   1.849   1.034  10.891
39356SOL     OW19964   2.479   5.845   1.590
39356SOL    HW119965   2.488   5.817   1.681
39356SOL    HW219966   2.416   5.784   1.552
39357SOL     OW19967  13.694   6.522  10.816
39357SOL    HW119968  13.712   6.616  10.813
39357SOL    HW219969  13.641   6.505  10.738
39358SOL     OW19970   1.877   6.818  10.283
39358SOL    HW119971   1.843   6.811  10.372
39358SOL    HW219972   1.970   6.799  10.291
39359SOL     OW19973   3.925   1.669  13.023
39359SOL    HW119974   4.004   1.663  13.076
39359SOL    HW219975   3.889   1.580  13.023
39360SOL     OW19976   4.590  14.729   0.279
39360SOL    HW119977   4.666  14.677   0.301
39360SOL    HW219978   4.561  14.694   0.194
39361SOL     OW19979  10.783  10.088   8.983
39361SOL    HW119980  10.866  10.126   9.012
39361SOL    HW219981  10.794   9.994   8.996
39362SOL     OW19982   5.009   1.061   6.726
39362SOL    HW119983   4.992   1.156   6.730
39362SOL    HW219984   4.984   1.037   6.637
39363SOL     OW19985   4.584  14.642   5.843
39363SOL    HW119986   4.645  14.582   5.885
39363SOL    HW219987   4.598  14.629   5.749
39364SOL     OW19988   0.336   3.241   6.293
39364SOL    HW119989   0.297   3.327   6.278
39364SOL    HW219990   0.322   3.224   6.386
39365SOL     OW19991  13.932   3.120   6.306
39365SOL    HW119992  13.882   3.166   6.373
39365SOL    HW219993  13.964   3.041   6.350
39366SOL     OW19994  12.364  12.115   8.940
39366SOL    HW119995  12.279  12.104   8.982
39366SOL    HW219996  12.389  12.027   8.912
39367SOL     OW19997  10.386   4.548  14.671
39367SOL    HW119998  10.316   4.569  14.732
39367SOL    HW219999  10.439   4.482  14.716
39368SOL     OW20000   3.117   1.499   5.448
39368SOL    HW120001   3.041   1.493   5.389
39368SOL    HW220002   3.182   1.549   5.399
39369SOL     OW20003   8.083   0.582  14.849
39369SOL    HW120004   8.121   0.670  14.858
39369SOL    HW220005   8.101   0.539   0.045
39370SOL     OW20006   8.962   3.789  14.462
39370SOL    HW120007   8.886   3.739  14.491
39370SOL    HW220008   8.940   3.816  14.373
39371SOL     OW20009   5.137  12.182   6.673
39371SOL    HW120010   5.060  12.171   6.619
39371SOL    HW220011   5.105  12.173   6.763
39372SOL     OW20012   5.123   4.314  12.691
39372SOL    HW120013   5.137   4.221  12.708
39372SOL    HW220014   5.208   4.345  12.657
39373SOL     OW20015   2.466  13.957   3.850
39373SOL    HW120016   2.493  14.044   3.880
39373SOL    HW220017   2.493  13.898   3.921
39374SOL     OW20018   1.094   6.048  10.513
39374SOL    HW120019   1.172   6.072  10.462
39374SOL    HW220020   1.049   5.983  10.459
39375SOL     OW20021  12.027  12.374   6.442
39375SOL    HW120022  11.989  12.289   6.463
39375SOL    HW220023  12.111  12.354   6.401
39376SOL     OW20024  14.155  12.798  14.747
39376SOL    HW120025  14.152  12.714  14.791
39376SOL    HW220026  14.149  12.777  14.654
39377SOL     OW20027   0.634   7.620  10.661
39377SOL    HW120028   0.556   7.618  10.717
39377SOL    HW220029   0.607   7.670  10.584
39378SOL     OW20030   3.471   0.976   0.849
39378SOL    HW120031   3.491   1.069   0.857
39378SOL    HW220032   3.556   0.933   0.842
39379SOL     OW20033  11.406  11.415   5.658
39379SOL    HW120034  11.389  11.339   5.714
39379SOL    HW220035  11.331  11.473   5.672
39380SOL     OW20036   4.378   3.159  13.194
39380SOL    HW120037   4.325   3.233  13.167
39380SOL    HW220038   4.370   3.157  13.289
39381SOL     OW20039   9.343   9.795  12.077
39381SOL    HW120040   9.285   9.867  12.101
39381SOL    HW220041   9.285   9.722  12.057
39382SOL     OW20042   2.263  14.230   5.823
39382SOL    HW120043   2.319  14.285   5.769
39382SOL    HW220044   2.323  14.186   5.883
39383SOL     OW20045  13.901   0.689  12.924
39383SOL    HW120046  13.861   0.644  12.998
39383SOL    HW220047  13.917   0.619  12.860
39384SOL     OW20048  14.331  12.194  13.900
39384SOL    HW120049  14.332  12.100  13.920
39384SOL    HW220050  14.255  12.228  13.948
39385SOL     OW20051  13.649  12.707   8.622
39385SOL    HW120052  13.685  12.705   8.533
39385SOL    HW220053  13.607  12.793   8.629
39386SOL     OW20054   7.008   9.955   3.366
39386SOL    HW120055   6.974  10.037   3.403
39386SOL    HW220056   6.967   9.949   3.279
39387SOL     OW20057  10.602   1.697   4.065
39387SOL    HW120058  10.598   1.687   3.970
39387SOL    HW220059  10.540   1.633   4.099
39388SOL     OW20060  12.908   0.080   9.602
39388SOL    HW120061  12.937   0.007   9.548
39388SOL    HW220062  12.826   0.109   9.562
39389SOL     OW20063   0.651   6.338   4.420
39389SOL    HW120064   0.682   6.320   4.509
39389SOL    HW220065   0.728   6.328   4.365
39390SOL     OW20066  14.306  12.430   9.832
39390SOL    HW120067  14.315  12.456   9.924
39390SOL    HW220068  14.374  12.365   9.818
39391SOL     OW20069  12.904   7.176   4.304
39391SOL    HW120070  12.976   7.133   4.349
39391SOL    HW220071  12.935   7.187   4.214
39392SOL     OW20072   1.486  13.233   0.745
39392SOL    HW120073   1.472  13.299   0.813
39392SOL    HW220074   1.464  13.277   0.663
39393SOL     OW20075  12.624   7.603   2.142
39393SOL    HW120076  12.626   7.658   2.221
39393SOL    HW220077  12.709   7.619   2.101
39394SOL     OW20078   7.418   2.513   1.464
39394SOL    HW120079   7.400   2.605   1.446
39394SOL    HW220080   7.332   2.472   1.468
39395SOL     OW20081   6.039   0.671   1.835
39395SOL    HW120082   5.999   0.629   1.759
39395SOL    HW220083   5.981   0.744   1.855
39396SOL     OW20084   8.348   7.139   6.073
39396SOL    HW120085   8.354   7.114   5.981
39396SOL    HW220086   8.312   7.228   6.071
39397SOL     OW20087   6.795  11.208  14.429
39397SOL    HW120088   6.753  11.219  14.514
39397SOL    HW220089   6.817  11.297  14.400
39398SOL     OW20090   8.739  14.077  12.656
39398SOL    HW120091   8.702  14.022  12.725
39398SOL    HW220092   8.693  14.050  12.577
39399SOL     OW20093   4.068   8.263  10.510
39399SOL    HW120094   4.043   8.320  10.437
39399SOL    HW220095   4.029   8.178  10.489
39400SOL     OW20096  10.180   7.264   5.912
39400SOL    HW120097  10.204   7.171   5.915
39400SOL    HW220098  10.095   7.266   5.866
39401SOL     OW20099   7.385  11.383   5.465
39401SOL    HW120100   7.418  11.370   5.554
39401SOL    HW220101   7.456  11.354   5.408
39402SOL     OW20102   8.659   4.970  14.173
39402SOL    HW120103   8.586   4.934  14.122
39402SOL    HW220104   8.620   5.042  14.223
39403SOL     OW20105   0.358   4.454  11.483
39403SOL    HW120106   0.381   4.546  11.472
39403SOL    HW220107   0.431   4.416  11.532
39404SOL     OW20108   9.846   1.599   3.113
39404SOL    HW120109   9.894   1.594   3.030
39404SOL    HW220110   9.843   1.509   3.145
39405SOL     OW20111   7.204   0.689   0.789
39405SOL    HW120112   7.270   0.739   0.838
39405SOL    HW220113   7.121   0.715   0.828
39406SOL     OW20114  14.235   7.335   3.768
39406SOL    HW120115  14.280   7.353   3.851
39406SOL    HW220116  14.240   7.418   3.720
39407SOL     OW20117   2.577  10.578   7.321
39407SOL    HW120118   2.672  10.588   7.317
39407SOL    HW220119   2.544  10.668   7.326
39408SOL     OW20120   4.417  14.457   7.628
39408SOL    HW120121   4.328  14.485   7.607
39408SOL    HW220122   4.449  14.416   7.547
39409SOL     OW20123  14.269  10.788   5.545
39409SOL    HW120124  14.176  10.773   5.524
39409SOL    HW220125  14.286  10.732   5.620
39410SOL     OW20126  14.805   6.150  13.635
39410SOL    HW120127  14.737   6.094  13.672
39410SOL    HW220128  14.792   6.235  13.677
39411SOL     OW20129   7.266   8.538   0.954
39411SOL    HW120130   7.272   8.555   0.860
39411SOL    HW220131   7.217   8.456   0.960
39412SOL     OW20132   6.669   7.519   0.334
39412SOL    HW120133   6.623   7.531   0.417
39412SOL    HW220134   6.761   7.509   0.359
39413SOL     OW20135  13.862  14.147   1.113
39413SOL    HW120136  13.933  14.085   1.132
39413SOL    HW220137  13.862  14.153   1.017
39414SOL     OW20138  13.059  14.574  11.194
39414SOL    HW120139  13.034  14.521  11.119
39414SOL    HW220140  13.136  14.530  11.230
39415SOL     OW20141   7.578   8.850   3.585
39415SOL    HW120142   7.511   8.792   3.620
39415SOL    HW220143   7.589   8.917   3.653
39416SOL     OW20144   4.980   0.866   9.124
39416SOL    HW120145   4.990   0.912   9.041
39416SOL    HW220146   5.066   0.827   9.141
39417SOL     OW20147   6.156  10.186   4.941
39417SOL    HW120148   6.061  10.187   4.928
39417SOL    HW220149   6.172  10.254   5.006
39418SOL     OW20150   7.805   7.269  10.217
39418SOL    HW120151   7.882   7.212  10.212
39418SOL    HW220152   7.842   7.358  10.214
39419SOL     OW20153   0.164   6.680   3.937
39419SOL    HW120154   0.198   6.596   3.970
39419SOL    HW220155   0.122   6.720   4.012
39420SOL     OW20156  14.421   7.151   1.475
39420SOL    HW120157  14.412   7.185   1.564
39420SOL    HW220158  14.505   7.186   1.444
39421SOL     OW20159   4.606   7.629   3.683
39421SOL    HW120160   4.591   7.648   3.775
39421SOL    HW220161   4.543   7.561   3.662
39422SOL     OW20162  14.749   3.838   1.529
39422SOL    HW120163  14.780   3.820   1.618
39422SOL    HW220164  14.774   3.929   1.512
39423SOL     OW20165  11.441   4.442   0.485
39423SOL    HW120166  11.520   4.465   0.535
39423SOL    HW220167  11.451   4.349   0.466
39424SOL     OW20168   9.279  12.554  14.845
39424SOL    HW120169   9.285  12.625   0.022
39424SOL    HW220170   9.368  12.519  14.840
39425SOL     OW20171  13.317   7.287  12.862
39425SOL    HW120172  13.273   7.366  12.893
39425SOL    HW220173  13.282   7.217  12.917
39426SOL     OW20174   3.235   9.242   8.395
39426SOL    HW120175   3.156   9.247   8.448
39426SOL    HW220176   3.204   9.217   8.308
39427SOL     OW20177   0.775   3.925   3.754
39427SOL    HW120178   0.707   3.884   3.700
39427SOL    HW220179   0.729   3.996   3.799
39428SOL     OW20180  12.245  13.572  12.731
39428SOL    HW120181  12.213  13.486  12.757
39428SOL    HW220182  12.212  13.585  12.642
39429SOL     OW20183   9.890  12.211  12.149
39429SOL    HW120184   9.878  12.140  12.212
39429SOL    HW220185   9.909  12.288  12.202
39430SOL     OW20186  12.829   0.652  10.437
39430SOL    HW120187  12.891   0.725  10.433
39430SOL    HW220188  12.883   0.574  10.444
39431SOL     OW20189   2.730  10.523  11.586
39431SOL    HW120190   2.701  10.520  11.495
39431SOL    HW220191   2.655  10.490  11.636
39432SOL     OW20192   2.409  11.195  12.703
39432SOL    HW120193   2.497  11.230  12.721
39432SOL    HW220194   2.352  11.243  12.763
39433SOL     OW20195  11.816   7.173  14.069
39433SOL    HW120196  11.807   7.253  14.121
39433SOL    HW220197  11.831   7.203  13.980
39434SOL     OW20198  10.984   6.562   7.335
39434SOL    HW120199  10.890   6.557   7.313
39434SOL    HW220200  10.987   6.612   7.416
39435SOL     OW20201   1.122   4.694  11.447
39435SOL    HW120202   1.139   4.616  11.393
39435SOL    HW220203   1.064   4.748  11.394
39436SOL     OW20204   8.838  14.079   4.570
39436SOL    HW120205   8.774  14.082   4.641
39436SOL    HW220206   8.820  13.997   4.524
39437SOL     OW20207  12.519   0.401   6.905
39437SOL    HW120208  12.595   0.457   6.893
39437SOL    HW220209  12.494   0.413   6.997
39438SOL     OW20210   8.652  14.739  13.668
39438SOL    HW120211   8.715  14.799  13.630
39438SOL    HW220212   8.695  14.653  13.665
39439SOL     OW20213   8.276   2.256   3.429
39439SOL    HW120214   8.269   2.289   3.339
39439SOL    HW220215   8.186   2.231   3.452
39440SOL     OW20216   4.092   6.227  12.303
39440SOL    HW120217   4.146   6.295  12.265
39440SOL    HW220218   4.153   6.170  12.350
39441SOL     OW20219  13.507   1.057   0.428
39441SOL    HW120220  13.560   0.983   0.459
39441SOL    HW220221  13.529   1.065   0.335
39442SOL     OW20222   3.234   2.056  13.922
39442SOL    HW120223   3.286   1.977  13.935
39442SOL    HW220224   3.286   2.126  13.962
39443SOL     OW20225   0.797   4.218  13.555
39443SOL    HW120226   0.747   4.292  13.592
39443SOL    HW220227   0.732   4.166  13.508
39444SOL     OW20228   3.049   5.516   6.586
39444SOL    HW120229   3.006   5.473   6.512
39444SOL    HW220230   3.016   5.471   6.663
39445SOL     OW20231   3.962   3.518  13.345
39445SOL    HW120232   3.997   3.573  13.415
39445SOL    HW220233   3.951   3.577  13.271
39446SOL     OW20234   6.700   5.941   3.643
39446SOL    HW120235   6.667   5.910   3.558
39446SOL    HW220236   6.722   5.861   3.691
39447SOL     OW20237  12.232  13.968   8.092
39447SOL    HW120238  12.174  13.957   8.017
39447SOL    HW220239  12.299  14.029   8.062
39448SOL     OW20240   3.447   3.669   4.791
39448SOL    HW120241   3.532   3.675   4.835
39448SOL    HW220242   3.460   3.604   4.722
39449SOL     OW20243   3.833  10.038   6.803
39449SOL    HW120244   3.907  10.096   6.819
39449SOL    HW220245   3.786  10.079   6.730
39450SOL     OW20246  14.589   1.262  11.923
39450SOL    HW120247  14.573   1.226  11.836
39450SOL    HW220248  14.528   1.214  11.980
39451SOL     OW20249   0.129   9.246  14.407
39451SOL    HW120250   0.168   9.202  14.482
39451SOL    HW220251   0.035   9.230  14.415
39452SOL     OW20252   2.205  10.793   1.142
39452SOL    HW120253   2.124  10.841   1.125
39452SOL    HW220254   2.183  10.701   1.129
39453SOL     OW20255   7.045   6.976   0.333
39453SOL    HW120256   7.001   6.914   0.275
39453SOL    HW220257   6.975   7.031   0.367
39454SOL     OW20258   8.865  10.448  14.093
39454SOL    HW120259   8.929  10.507  14.054
39454SOL    HW220260   8.781  10.474  14.053
39455SOL     OW20261   2.677   4.287  12.091
39455SOL    HW120262   2.723   4.220  12.040
39455SOL    HW220263   2.601   4.310  12.038
39456SOL     OW20264   3.905   3.782   1.407
39456SOL    HW120265   3.818   3.756   1.434
39456SOL    HW220266   3.893   3.816   1.318
39457SOL     OW20267   5.363   4.294   2.613
39457SOL    HW120268   5.410   4.359   2.665
39457SOL    HW220269   5.402   4.210   2.639
39458SOL     OW20270   7.821   5.182   5.524
39458SOL    HW120271   7.873   5.263   5.525
39458SOL    HW220272   7.785   5.176   5.612
39459SOL     OW20273   1.798   3.044  10.458
39459SOL    HW120274   1.791   3.139  10.468
39459SOL    HW220275   1.788   3.010  10.548
39460SOL     OW20276  13.602   4.194  10.030
39460SOL    HW120277  13.528   4.239  10.071
39460SOL    HW220278  13.679   4.243  10.060
39461SOL     OW20279  13.046   3.914   3.819
39461SOL    HW120280  12.971   3.962   3.855
39461SOL    HW220281  13.122   3.952   3.863
39462SOL     OW20282  10.826   4.066   5.308
39462SOL    HW120283  10.886   4.129   5.269
39462SOL    HW220284  10.741   4.087   5.270
39463SOL     OW20285  11.416  10.190   7.489
39463SOL    HW120286  11.391  10.235   7.409
39463SOL    HW220287  11.400  10.097   7.470
39464SOL     OW20288  10.773   1.813  10.242
39464SOL    HW120289  10.801   1.725  10.219
39464SOL    HW220290  10.686   1.802  10.280
39465SOL     OW20291  13.522   5.293   5.983
39465SOL    HW120292  13.480   5.315   5.900
39465SOL    HW220293  13.454   5.307   6.048
39466SOL     OW20294   0.646   3.258  14.407
39466SOL    HW120295   0.559   3.263  14.367
39466SOL    HW220296   0.684   3.178  14.372
39467SOL     OW20297  14.736   3.232   7.853
39467SOL    HW120298  14.691   3.303   7.807
39467SOL    HW220299  14.728   3.254   7.945
39468SOL     OW20300   1.398  11.585   1.187
39468SOL    HW120301   1.454  11.589   1.110
39468SOL    HW220302   1.313  11.616   1.157
39469SOL     OW20303  12.311   0.637   7.109
39469SOL    HW120304  12.404   0.627   7.132
39469SOL    HW220305  12.289   0.725   7.138
39470SOL     OW20306  13.320  11.539   3.418
39470SOL    HW120307  13.339  11.464   3.476
39470SOL    HW220308  13.275  11.602   3.474
39471SOL     OW20309   2.561  13.591   0.581
39471SOL    HW120310   2.566  13.497   0.599
39471SOL    HW220311   2.492  13.600   0.515
39472SOL     OW20312   7.391   4.073  13.997
39472SOL    HW120313   7.331   4.044  14.066
39472SOL    HW220314   7.383   4.168  13.996
39473SOL     OW20315   2.028   5.378  13.797
39473SOL    HW120316   1.935   5.400  13.809
39473SOL    HW220317   2.050   5.416  13.712
39474SOL     OW20318   1.668   2.149  13.862
39474SOL    HW120319   1.698   2.209  13.794
39474SOL    HW220320   1.696   2.190  13.944
39475SOL     OW20321  14.762  13.256  12.449
39475SOL    HW120322  14.806  13.321  12.394
39475SOL    HW220323  14.668  13.273  12.435
39476SOL     OW20324   0.099  10.935   7.061
39476SOL    HW120325   0.048  10.886   7.126
39476SOL    HW220326   0.049  11.015   7.046
39477SOL     OW20327   8.638   5.634  14.292
39477SOL    HW120328   8.587   5.643  14.211
39477SOL    HW220329   8.709   5.697  14.283
39478SOL     OW20330   8.426   6.206   1.784
39478SOL    HW120331   8.505   6.187   1.835
39478SOL    HW220332   8.378   6.123   1.785
39479SOL     OW20333  13.626   2.521   2.517
39479SOL    HW120334  13.563   2.512   2.588
39479SOL    HW220335  13.686   2.589   2.547
39480SOL     OW20336   3.808   6.089  12.315
39480SOL    HW120337   3.806   6.172  12.362
39480SOL    HW220338   3.841   6.111  12.228
39481SOL     OW20339  11.570  11.205  11.345
39481SOL    HW120340  11.613  11.259  11.278
39481SOL    HW220341  11.640  11.185  11.407
39482SOL     OW20342  11.944   9.519   3.704
39482SOL    HW120343  11.911   9.461   3.772
39482SOL    HW220344  11.878   9.588   3.696
39483SOL     OW20345   4.557   7.610   4.012
39483SOL    HW120346   4.505   7.537   4.046
39483SOL    HW220347   4.534   7.685   4.068
39484SOL     OW20348  10.187   5.500  13.547
39484SOL    HW120349  10.205   5.415  13.506
39484SOL    HW220350  10.098   5.491  13.582
39485SOL     OW20351  10.005   1.231   2.748
39485SOL    HW120352   9.915   1.255   2.769
39485SOL    HW220353  10.007   1.136   2.753
39486SOL     OW20354  14.596   3.534   3.687
39486SOL    HW120355  14.601   3.629   3.675
39486SOL    HW220356  14.633   3.497   3.607
39487SOL     OW20357  14.031  10.741  11.154
39487SOL    HW120358  13.951  10.691  11.140
39487SOL    HW220359  14.097  10.675  11.176
39488SOL     OW20360   9.385   0.915   1.374
39488SOL    HW120361   9.460   0.863   1.403
39488SOL    HW220362   9.320   0.906   1.444
39489SOL     OW20363   1.080   3.327  14.075
39489SOL    HW120364   1.136   3.312  14.151
39489SOL    HW220365   1.061   3.240  14.041
39490SOL     OW20366   0.477   7.168   4.528
39490SOL    HW120367   0.448   7.177   4.437
39490SOL    HW220368   0.461   7.254   4.566
39491SOL     OW20369   0.942   3.161  14.513
39491SOL    HW120370   0.899   3.118  14.439
39491SOL    HW220371   0.995   3.092  14.553
39492SOL     OW20372   7.618   6.669   9.574
39492SOL    HW120373   7.696   6.713   9.608
39492SOL    HW220374   7.574   6.634   9.651
39493SOL     OW20375   7.179   6.424   3.064
39493SOL    HW120376   7.166   6.372   2.984
39493SOL    HW220377   7.138   6.508   3.044
39494SOL     OW20378  12.055  10.087  13.169
39494SOL    HW120379  12.024  10.033  13.242
39494SOL    HW220380  12.149  10.073  13.167
39495SOL     OW20381   9.025   4.770   9.529
39495SOL    HW120382   9.006   4.686   9.571
39495SOL    HW220383   9.120   4.779   9.536
39496SOL     OW20384   1.193  11.967   8.561
39496SOL    HW120385   1.270  12.009   8.600
39496SOL    HW220386   1.154  11.916   8.632
39497SOL     OW20387   9.807  10.029   8.575
39497SOL    HW120388   9.837   9.948   8.536
39497SOL    HW220389   9.881  10.058   8.629
39498SOL     OW20390  13.809  11.177   7.895
39498SOL    HW120391  13.836  11.088   7.874
39498SOL    HW220392  13.842  11.230   7.822
39499SOL     OW20393   9.374   9.726   3.827
39499SOL    HW120394   9.463   9.693   3.818
39499SOL    HW220395   9.359   9.777   3.748
39500SOL     OW20396  11.616  14.492   4.280
39500SOL    HW120397  11.550  14.556   4.308
39500SOL    HW220398  11.567  14.429   4.228
39501SOL     OW20399  14.250   6.924  12.177
39501SOL    HW120400  14.171   6.909  12.230
39501SOL    HW220401  14.220   6.978  12.104
39502SOL     OW20402   4.907   1.407   2.261
39502SOL    HW120403   4.977   1.454   2.215
39502SOL    HW220404   4.951   1.335   2.306
39503SOL     OW20405   6.444   8.575   2.200
39503SOL    HW120406   6.442   8.647   2.262
39503SOL    HW220407   6.515   8.518   2.230
39504SOL     OW20408   4.771   9.059   7.227
39504SOL    HW120409   4.705   9.107   7.176
39504SOL    HW220410   4.720   9.006   7.288
39505SOL     OW20411   2.661   4.640  14.181
39505SOL    HW120412   2.574   4.632  14.142
39505SOL    HW220413   2.649   4.612  14.272
39506SOL     OW20414  14.376   2.408   7.327
39506SOL    HW120415  14.457   2.378   7.286
39506SOL    HW220416  14.312   2.339   7.307
39507SOL     OW20417   0.497   7.982   7.732
39507SOL    HW120418   0.528   8.072   7.727
39507SOL    HW220419   0.420   7.980   7.675
39508SOL     OW20420  11.275   2.522   6.217
39508SOL    HW120421  11.225   2.603   6.228
39508SOL    HW220422  11.237   2.461   6.281
39509SOL     OW20423  10.404  12.082   9.142
39509SOL    HW120424  10.350  12.055   9.216
39509SOL    HW220425  10.386  12.017   9.074
39510SOL     OW20426   2.933   2.205  14.155
39510SOL    HW120427   2.855   2.237  14.200
39510SOL    HW220428   2.910   2.117  14.124
39511SOL     OW20429   7.602   9.149   8.989
39511SOL    HW120430   7.584   9.174   9.080
39511SOL    HW220431   7.590   9.055   8.987
39512SOL     OW20432   8.950   5.191   5.635
39512SOL    HW120433   9.015   5.255   5.605
39512SOL    HW220434   8.923   5.145   5.556
39513SOL     OW20435   7.775  13.738  11.026
39513SOL    HW120436   7.850  13.796  11.044
39513SOL    HW220437   7.711  13.795  10.984
39514SOL     OW20438   8.274  12.768   3.498
39514SOL    HW120439   8.240  12.681   3.521
39514SOL    HW220440   8.297  12.761   3.405
39515SOL     OW20441   8.071   1.955  14.111
39515SOL    HW120442   8.139   1.899  14.148
39515SOL    HW220443   8.116   2.037  14.090
39516SOL     OW20444  10.518   6.454   9.836
39516SOL    HW120445  10.561   6.536   9.813
39516SOL    HW220446  10.475   6.426   9.756
39517SOL     OW20447  10.882  13.390   0.841
39517SOL    HW120448  10.954  13.433   0.887
39517SOL    HW220449  10.874  13.305   0.885
39518SOL     OW20450  11.114   0.118   0.572
39518SOL    HW120451  11.030   0.129   0.529
39518SOL    HW220452  11.092   0.082   0.658
39519SOL     OW20453   4.766  10.288   2.753
39519SOL    HW120454   4.852  10.271   2.793
39519SOL    HW220455   4.748  10.209   2.703
39520SOL     OW20456   7.289  10.734  13.436
39520SOL    HW120457   7.358  10.792  13.468
39520SOL    HW220458   7.227  10.729  13.508
39521SOL     OW20459   9.547  12.939   5.687
39521SOL    HW120460   9.589  13.024   5.700
39521SOL    HW220461   9.521  12.912   5.775
39522SOL     OW20462   0.780  14.714   4.316
39522SOL    HW120463   0.790  14.802   4.352
39522SOL    HW220464   0.750  14.661   4.390
39523SOL     OW20465   7.284   8.600  14.744
39523SOL    HW120466   7.264   8.672  14.803
39523SOL    HW220467   7.332   8.640  14.671
39524SOL     OW20468  13.120  14.105  12.485
39524SOL    HW120469  13.123  14.156  12.566
39524SOL    HW220470  13.090  14.018  12.512
39525SOL     OW20471   8.061   0.947  12.775
39525SOL    HW120472   8.009   0.886  12.827
39525SOL    HW220473   8.011   0.957  12.694
39526SOL     OW20474   1.878   8.546   7.386
39526SOL    HW120475   1.805   8.529   7.445
39526SOL    HW220476   1.888   8.641   7.386
39527SOL     OW20477   6.644   6.538   9.158
39527SOL    HW120478   6.557   6.504   9.180
39527SOL    HW220479   6.654   6.616   9.212
39528SOL     OW20480  14.153   5.734  10.234
39528SOL    HW120481  14.109   5.743  10.318
39528SOL    HW220482  14.125   5.810  10.183
39529SOL     OW20483   0.838   4.812  14.208
39529SOL    HW120484   0.774   4.873  14.245
39529SOL    HW220485   0.797   4.778  14.129
39530SOL     OW20486   1.974   6.183   8.685
39530SOL    HW120487   1.984   6.272   8.651
39530SOL    HW220488   2.010   6.187   8.773
39531SOL     OW20489   6.564   3.803   4.956
39531SOL    HW120490   6.625   3.730   4.955
39531SOL    HW220491   6.519   3.796   5.040
39532SOL     OW20492  12.606   1.283  11.443
39532SOL    HW120493  12.639   1.196  11.419
39532SOL    HW220494  12.531   1.297  11.386
39533SOL     OW20495   6.960   1.599  13.425
39533SOL    HW120496   6.914   1.528  13.379
39533SOL    HW220497   7.028   1.554  13.476
39534SOL     OW20498   1.678   9.921  11.269
39534SOL    HW120499   1.678   9.830  11.299
39534SOL    HW220500   1.654   9.915  11.176
39535SOL     OW20501   9.049   3.970  13.818
39535SOL    HW120502   9.079   4.061  13.823
39535SOL    HW220503   8.961   3.972  13.855
39536SOL     OW20504   7.999   4.689   1.218
39536SOL    HW120505   8.063   4.679   1.288
39536SOL    HW220506   8.050   4.685   1.137
39537SOL     OW20507   7.042  12.451   4.438
39537SOL    HW120508   7.043  12.494   4.353
39537SOL    HW220509   7.131  12.462   4.471
39538SOL     OW20510  10.941   1.639   2.827
39538SOL    HW120511  10.930   1.718   2.879
39538SOL    HW220512  10.854   1.624   2.788
39539SOL     OW20513  12.666  11.538   2.149
39539SOL    HW120514  12.714  11.478   2.206
39539SOL    HW220515  12.677  11.624   2.189
39540SOL     OW20516   4.220  10.452  12.359
39540SOL    HW120517   4.216  10.393  12.434
39540SOL    HW220518   4.236  10.395  12.284
39541SOL     OW20519  13.945   9.963   5.254
39541SOL    HW120520  13.887   9.901   5.210
39541SOL    HW220521  14.002   9.996   5.185
39542SOL     OW20522  14.064   1.226  14.143
39542SOL    HW120523  14.066   1.307  14.093
39542SOL    HW220524  14.149   1.185  14.126
39543SOL     OW20525  11.443   2.401   7.971
39543SOL    HW120526  11.415   2.368   7.886
39543SOL    HW220527  11.457   2.495   7.957
39544SOL     OW20528   0.446   5.099   2.737
39544SOL    HW120529   0.509   5.170   2.722
39544SOL    HW220530   0.496   5.032   2.783
39545SOL     OW20531  13.916  12.017   3.738
39545SOL    HW120532  13.849  11.952   3.754
39545SOL    HW220533  13.989  11.991   3.794
39546SOL     OW20534   7.223   2.882   0.625
39546SOL    HW120535   7.305   2.894   0.672
39546SOL    HW220536   7.185   2.802   0.663
39547SOL     OW20537   1.707   1.458   8.641
39547SOL    HW120538   1.725   1.390   8.706
39547SOL    HW220539   1.618   1.440   8.611
39548SOL     OW20540   5.156   7.789   4.218
39548SOL    HW120541   5.197   7.790   4.304
39548SOL    HW220542   5.121   7.877   4.206
39549SOL     OW20543   3.595  11.225   3.001
39549SOL    HW120544   3.604  11.142   2.954
39549SOL    HW220545   3.511  11.218   3.046
39550SOL     OW20546   3.416  14.335   7.390
39550SOL    HW120547   3.481  14.372   7.330
39550SOL    HW220548   3.334  14.377   7.366
39551SOL     OW20549   8.138   6.569  11.666
39551SOL    HW120550   8.160   6.505  11.599
39551SOL    HW220551   8.112   6.647  11.617
39552SOL     OW20552  14.013   0.107  12.785
39552SOL    HW120553  13.925   0.143  12.794
39552SOL    HW220554  14.069   0.183  12.770
39553SOL     OW20555   6.759   9.878   5.004
39553SOL    HW120556   6.848   9.868   5.038
39553SOL    HW220557   6.740   9.794   4.962
39554SOL     OW20558  12.047  11.850  14.282
39554SOL    HW120559  12.061  11.943  14.267
39554SOL    HW220560  12.030  11.814  14.195
39555SOL     OW20561  12.938  11.661   2.086
39555SOL    HW120562  12.981  11.630   2.166
39555SOL    HW220563  12.858  11.609   2.081
39556SOL     OW20564   3.763  14.145  10.622
39556SOL    HW120565   3.688  14.111  10.574
39556SOL    HW220566   3.746  14.239  10.631
39557SOL     OW20567   1.958   2.794   6.046
39557SOL    HW120568   1.970   2.842   6.128
39557SOL    HW220569   1.918   2.858   5.987
39558SOL     OW20570   3.472   8.098  13.436
39558SOL    HW120571   3.449   8.034  13.369
39558SOL    HW220572   3.388   8.122  13.476
39559SOL     OW20573   5.358   9.862  13.939
39559SOL    HW120574   5.447   9.889  13.963
39559SOL    HW220575   5.369   9.773  13.906
39560SOL     OW20576   8.696   2.923  10.370
39560SOL    HW120577   8.771   2.982  10.376
39560SOL    HW220578   8.636   2.953  10.438
39561SOL     OW20579   0.444   9.654   4.620
39561SOL    HW120580   0.420   9.564   4.600
39561SOL    HW220581   0.360   9.700   4.630
39562SOL     OW20582  10.543   5.972  11.598
39562SOL    HW120583  10.617   5.943  11.650
39562SOL    HW220584  10.582   6.006  11.517
39563SOL     OW20585   4.878  10.112   6.660
39563SOL    HW120586   4.913  10.103   6.571
39563SOL    HW220587   4.894  10.027   6.700
39564SOL     OW20588  11.629  10.761   5.743
39564SOL    HW120589  11.618  10.705   5.820
39564SOL    HW220590  11.553  10.818   5.744
39565SOL     OW20591   5.217   0.751  11.883
39565SOL    HW120592   5.163   0.806  11.827
39565SOL    HW220593   5.250   0.683  11.824
39566SOL     OW20594   5.461   1.741   3.147
39566SOL    HW120595   5.494   1.775   3.230
39566SOL    HW220596   5.508   1.791   3.080
39567SOL     OW20597   9.645   8.618  11.558
39567SOL    HW120598   9.736   8.637  11.538
39567SOL    HW220599   9.597   8.639  11.478
39568SOL     OW20600   2.298  11.649   4.096
39568SOL    HW120601   2.241  11.655   4.172
39568SOL    HW220602   2.362  11.720   4.107
39569SOL     OW20603   6.738   2.667   8.731
39569SOL    HW120604   6.764   2.688   8.820
39569SOL    HW220605   6.665   2.605   8.740
39570SOL     OW20606   5.083   7.521  14.751
39570SOL    HW120607   5.055   7.578  14.679
39570SOL    HW220608   5.161   7.564  14.786
39571SOL     OW20609  12.864   1.225  11.773
39571SOL    HW120610  12.832   1.302  11.726
39571SOL    HW220611  12.936   1.192  11.719
39572SOL     OW20612   0.129   8.072   6.088
39572SOL    HW120613   0.136   8.131   6.013
39572SOL    HW220614   0.159   7.987   6.055
39573SOL     OW20615   6.039  12.549   9.379
39573SOL    HW120616   6.002  12.602   9.450
39573SOL    HW220617   5.988  12.574   9.302
39574SOL     OW20618   1.284  11.350   0.045
39574SOL    HW120619   1.371  11.378   0.073
39574SOL    HW220620   1.245  11.428   0.007
39575SOL     OW20621   2.365   8.794  13.019
39575SOL    HW120622   2.340   8.733  13.089
39575SOL    HW220623   2.456   8.814  13.037
39576SOL     OW20624   1.710   9.806   0.718
39576SOL    HW120625   1.716   9.879   0.656
39576SOL    HW220626   1.704   9.848   0.804
39577SOL     OW20627  13.465   6.857   3.629
39577SOL    HW120628  13.528   6.907   3.577
39577SOL    HW220629  13.410   6.813   3.564
39578SOL     OW20630  14.287  14.863   3.032
39578SOL    HW120631  14.285   0.038   2.960
39578SOL    HW220632  14.225   0.010   3.096
39579SOL     OW20633  10.023   1.446   8.697
39579SOL    HW120634  10.015   1.534   8.735
39579SOL    HW220635   9.933   1.413   8.695
39580SOL     OW20636   5.880   9.626   9.566
39580SOL    HW120637   5.858   9.535   9.546
39580SOL    HW220638   5.952   9.647   9.506
39581SOL     OW20639   1.792  13.924   2.136
39581SOL    HW120640   1.705  13.908   2.100
39581SOL    HW220641   1.845  13.949   2.060
39582SOL     OW20642   2.410   3.426   5.714
39582SOL    HW120643   2.451   3.446   5.630
39582SOL    HW220644   2.482   3.403   5.772
39583SOL     OW20645   3.405  14.066   1.512
39583SOL    HW120646   3.470  14.136   1.512
39583SOL    HW220647   3.321  14.111   1.501
39584SOL     OW20648   5.955   0.117   4.403
39584SOL    HW120649   6.047   0.127   4.427
39584SOL    HW220650   5.956   0.093   4.311
39585SOL     OW20651   4.057   1.868  13.216
39585SOL    HW120652   4.078   1.906  13.131
39585SOL    HW220653   3.963   1.883  13.226
39586SOL     OW20654   6.383   0.794  11.670
39586SOL    HW120655   6.301   0.834  11.640
39586SOL    HW220656   6.435   0.867  11.702
39587SOL     OW20657   5.015   8.053   2.953
39587SOL    HW120658   5.095   8.004   2.939
39587SOL    HW220659   5.041   8.129   3.004
39588SOL     OW20660   4.913  12.036  12.382
39588SOL    HW120661   4.834  12.082  12.408
39588SOL    HW220662   4.922  12.055  12.288
39589SOL     OW20663   3.511  11.722   7.920
39589SOL    HW120664   3.602  11.693   7.919
39589SOL    HW220665   3.460  11.642   7.908
39590SOL     OW20666   8.788  13.438  10.235
39590SOL    HW120667   8.782  13.386  10.314
39590SOL    HW220668   8.703  13.430  10.193
39591SOL     OW20669  14.362   9.295   5.616
39591SOL    HW120670  14.414   9.331   5.545
39591SOL    HW220671  14.391   9.204   5.624
39592SOL     OW20672   3.835  11.226  14.795
39592SOL    HW120673   3.879  11.305  14.826
39592SOL    HW220674   3.745  11.234  14.827
39593SOL     OW20675  10.887  14.672   7.124
39593SOL    HW120676  10.796  14.693   7.141
39593SOL    HW220677  10.891  14.656   7.029
39594SOL     OW20678   0.626   7.948   9.060
39594SOL    HW120679   0.590   7.956   9.149
39594SOL    HW220680   0.550   7.953   9.003
39595SOL     OW20681   6.462   8.437   7.123
39595SOL    HW120682   6.471   8.342   7.131
39595SOL    HW220683   6.542   8.472   7.161
39596SOL     OW20684  12.780  13.354   7.378
39596SOL    HW120685  12.864  13.329   7.338
39596SOL    HW220686  12.721  13.367   7.304
39597SOL     OW20687  13.929  12.151   4.273
39597SOL    HW120688  13.873  12.075   4.261
39597SOL    HW220689  13.971  12.164   4.188
39598SOL     OW20690   5.370   6.616  11.751
39598SOL    HW120691   5.457   6.652  11.735
39598SOL    HW220692   5.374   6.528  11.712
39599SOL     OW20693   0.948   6.906   0.885
39599SOL    HW120694   1.005   6.873   0.815
39599SOL    HW220695   0.901   6.828   0.916
39600SOL     OW20696   2.815  11.038   0.318
39600SOL    HW120697   2.762  11.091   0.378
39600SOL    HW220698   2.865  11.101   0.267
39601SOL     OW20699   1.677   3.838   8.892
39601SOL    HW120700   1.755   3.892   8.902
39601SOL    HW220701   1.606   3.892   8.929
39602SOL     OW20702   1.863  14.821  14.397
39602SOL    HW120703   1.885  14.742  14.446
39602SOL    HW220704   1.768  14.823  14.396
39603SOL     OW20705  11.216   9.743  12.717
39603SOL    HW120706  11.293   9.800  12.719
39603SOL    HW220707  11.144   9.800  12.690
39604SOL     OW20708   2.457   9.406   4.905
39604SOL    HW120709   2.484   9.320   4.873
39604SOL    HW220710   2.400   9.388   4.979
39605SOL     OW20711   1.013   8.305   6.187
39605SOL    HW120712   0.996   8.218   6.225
39605SOL    HW220713   1.094   8.334   6.229
39606SOL     OW20714   8.841   3.310   5.917
39606SOL    HW120715   8.923   3.356   5.904
39606SOL    HW220716   8.774   3.367   5.879
39607SOL     OW20717  12.805  12.296   7.476
39607SOL    HW120718  12.792  12.289   7.571
39607SOL    HW220719  12.747  12.368   7.449
39608SOL     OW20720  12.919  11.774   9.575
39608SOL    HW120721  12.858  11.792   9.504
39608SOL    HW220722  12.874  11.710   9.630
39609SOL     OW20723  11.753  14.390   6.297
39609SOL    HW120724  11.661  14.413   6.285
39609SOL    HW220725  11.782  14.446   6.369
39610SOL     OW20726   3.619   2.410   0.986
39610SOL    HW120727   3.665   2.401   1.069
39610SOL    HW220728   3.677   2.370   0.921
39611SOL     OW20729   9.523   4.686  12.715
39611SOL    HW120730   9.470   4.700  12.637
39611SOL    HW220731   9.467   4.634  12.773
39612SOL     OW20732   8.142   7.958  11.080
39612SOL    HW120733   8.161   7.878  11.128
39612SOL    HW220734   8.213   7.964  11.015
39613SOL     OW20735   6.474   8.680   0.414
39613SOL    HW120736   6.437   8.636   0.337
39613SOL    HW220737   6.569   8.673   0.401
39614SOL     OW20738  10.644   4.581   1.416
39614SOL    HW120739  10.596   4.500   1.436
39614SOL    HW220740  10.730   4.551   1.387
39615SOL     OW20741   9.683   8.749   8.005
39615SOL    HW120742   9.769   8.723   7.972
39615SOL    HW220743   9.627   8.673   7.987
39616SOL     OW20744   6.332   8.137   9.768
39616SOL    HW120745   6.289   8.106   9.688
39616SOL    HW220746   6.332   8.233   9.760
39617SOL     OW20747   0.790  14.158  12.909
39617SOL    HW120748   0.772  14.093  12.977
39617SOL    HW220749   0.723  14.142  12.842
39618SOL     OW20750  13.632  13.269  13.936
39618SOL    HW120751  13.590  13.214  13.870
39618SOL    HW220752  13.636  13.356  13.896
39619SOL     OW20753  10.016   8.022  14.374
39619SOL    HW120754  10.004   8.043  14.466
39619SOL    HW220755   9.966   8.088  14.326
39620SOL     OW20756   9.479  12.396   3.991
39620SOL    HW120757   9.474  12.374   4.084
39620SOL    HW220758   9.560  12.354   3.960
39621SOL     OW20759   0.663  12.997  11.983
39621SOL    HW120760   0.742  13.006  12.035
39621SOL    HW220761   0.687  13.029  11.896
39622SOL     OW20762   8.929  12.811  14.734
39622SOL    HW120763   8.959  12.866  14.662
39622SOL    HW220764   8.966  12.724  14.716
39623SOL     OW20765   4.103  13.635  14.612
39623SOL    HW120766   4.038  13.622  14.680
39623SOL    HW220767   4.052  13.638  14.530
39624SOL     OW20768  10.212   6.109   4.579
39624SOL    HW120769  10.168   6.097   4.663
39624SOL    HW220770  10.187   6.033   4.527
39625SOL     OW20771  10.066  10.501   2.613
39625SOL    HW120772  10.065  10.531   2.523
39625SOL    HW220773  10.066  10.582   2.665
39626SOL     OW20774  13.953   1.873  14.268
39626SOL    HW120775  14.006   1.936  14.317
39626SOL    HW220776  14.003   1.792  14.270
39627SOL     OW20777  12.333  13.692   1.898
39627SOL    HW120778  12.422  13.689   1.864
39627SOL    HW220779  12.315  13.785   1.913
39628SOL     OW20780   4.704  10.568   1.539
39628SOL    HW120781   4.771  10.623   1.498
39628SOL    HW220782   4.754  10.503   1.589
39629SOL     OW20783   0.882   7.408   6.327
39629SOL    HW120784   0.796   7.373   6.351
39629SOL    HW220785   0.939   7.386   6.402
39630SOL     OW20786   8.595   9.749   2.312
39630SOL    HW120787   8.655   9.714   2.245
39630SOL    HW220788   8.630   9.717   2.395
39631SOL     OW20789  10.566   8.033  14.856
39631SOL    HW120790  10.639   8.066   0.022
39631SOL    HW220791  10.507   8.107  14.847
39632SOL     OW20792   6.879  11.695   6.265
39632SOL    HW120793   6.891  11.601   6.251
39632SOL    HW220794   6.966  11.727   6.288
39633SOL     OW20795   2.047  10.481   3.649
39633SOL    HW120796   2.058  10.576   3.642
39633SOL    HW220797   2.130  10.446   3.617
39634SOL     OW20798  13.420   4.925  14.702
39634SOL    HW120799  13.392   4.996  14.760
39634SOL    HW220800  13.453   4.857  14.761
39635SOL     OW20801   2.869   3.295   5.726
39635SOL    HW120802   2.891   3.342   5.646
39635SOL    HW220803   2.951   3.294   5.776
39636SOL     OW20804  14.113   9.576   0.536
39636SOL    HW120805  14.047   9.514   0.568
39636SOL    HW220806  14.063   9.635   0.478
39637SOL     OW20807  10.910   7.279   7.257
39637SOL    HW120808  10.986   7.251   7.205
39637SOL    HW220809  10.940   7.277   7.347
39638SOL     OW20810   2.654  14.710   2.535
39638SOL    HW120811   2.590  14.660   2.586
39638SOL    HW220812   2.601  14.775   2.488
39639SOL     OW20813  10.930   5.354   8.188
39639SOL    HW120814  10.877   5.430   8.165
39639SOL    HW220815  10.867   5.285   8.207
39640SOL     OW20816   0.489  10.442  13.450
39640SOL    HW120817   0.547  10.510  13.414
39640SOL    HW220818   0.536  10.360  13.435
39641SOL     OW20819  12.133  13.456  10.989
39641SOL    HW120820  12.153  13.520  11.056
39641SOL    HW220821  12.038  13.461  10.979
39642SOL     OW20822   6.062   1.697   2.091
39642SOL    HW120823   5.979   1.698   2.042
39642SOL    HW220824   6.129   1.716   2.025
39643SOL     OW20825   9.475  11.107   9.159
39643SOL    HW120826   9.532  11.090   9.234
39643SOL    HW220827   9.462  11.021   9.119
39644SOL     OW20828   1.034   0.403   9.919
39644SOL    HW120829   1.129   0.395   9.922
39644SOL    HW220830   1.006   0.332   9.861
39645SOL     OW20831   9.091   3.121   2.778
39645SOL    HW120832   9.027   3.060   2.816
39645SOL    HW220833   9.106   3.186   2.847
39646SOL     OW20834  10.704   2.447   2.001
39646SOL    HW120835  10.731   2.377   1.942
39646SOL    HW220836  10.737   2.419   2.087
39647SOL     OW20837  11.435  12.897  13.530
39647SOL    HW120838  11.483  12.849  13.597
39647SOL    HW220839  11.428  12.836  13.456
39648SOL     OW20840   8.198   2.380  13.764
39648SOL    HW120841   8.272   2.439  13.780
39648SOL    HW220842   8.230   2.319  13.697
39649SOL     OW20843   2.226   7.073   7.079
39649SOL    HW120844   2.166   7.028   7.019
39649SOL    HW220845   2.280   7.003   7.116
39650SOL     OW20846   2.051  13.790   5.363
39650SOL    HW120847   2.035  13.727   5.293
39650SOL    HW220848   2.147  13.798   5.367
39651SOL     OW20849  11.247   3.694   5.956
39651SOL    HW120850  11.290   3.730   6.033
39651SOL    HW220851  11.172   3.751   5.941
39652SOL     OW20852   1.621  11.232  12.866
39652SOL    HW120853   1.670  11.265  12.791
39652SOL    HW220854   1.587  11.147  12.837
39653SOL     OW20855  10.843   4.592  11.198
39653SOL    HW120856  10.923   4.590  11.251
39653SOL    HW220857  10.819   4.684  11.194
39654SOL     OW20858   5.840   5.331   8.140
39654SOL    HW120859   5.866   5.248   8.180
39654SOL    HW220860   5.753   5.314   8.104
39655SOL     OW20861  11.460   2.114   1.997
39655SOL    HW120862  11.414   2.198   1.990
39655SOL    HW220863  11.431   2.078   2.081
39656SOL     OW20864  14.646  12.821   3.345
39656SOL    HW120865  14.725  12.872   3.326
39656SOL    HW220866  14.577  12.887   3.353
39657SOL     OW20867   1.646   3.625   9.081
39657SOL    HW120868   1.710   3.592   9.144
39657SOL    HW220869   1.688   3.703   9.043
39658SOL     OW20870  13.374  13.735  11.184
39658SOL    HW120871  13.294  13.785  11.173
39658SOL    HW220872  13.345  13.648  11.213
39659SOL     OW20873  12.653   7.955   7.041
39659SOL    HW120874  12.624   8.018   6.974
39659SOL    HW220875  12.677   8.010   7.116
39660SOL     OW20876  11.468   6.824   2.134
39660SOL    HW120877  11.394   6.875   2.166
39660SOL    HW220878  11.435   6.782   2.055
39661SOL     OW20879   6.550   0.101   0.479
39661SOL    HW120880   6.535   0.051   0.559
39661SOL    HW220881   6.621   0.162   0.502
39662SOL     OW20882   2.784   9.732   5.746
39662SOL    HW120883   2.786   9.672   5.820
39662SOL    HW220884   2.722   9.800   5.773
39663SOL     OW20885  10.562  14.270   3.778
39663SOL    HW120886  10.564  14.278   3.683
39663SOL    HW220887  10.632  14.328   3.809
39664SOL     OW20888   3.914  12.539   9.001
39664SOL    HW120889   3.994  12.511   8.956
39664SOL    HW220890   3.908  12.633   8.983
39665SOL     OW20891   3.928   5.279  13.712
39665SOL    HW120892   3.958   5.191  13.734
39665SOL    HW220893   3.954   5.292  13.621
39666SOL     OW20894  13.185   3.555  12.600
39666SOL    HW120895  13.205   3.510  12.518
39666SOL    HW220896  13.271   3.577  12.637
39667SOL     OW20897  10.519   9.739   3.843
39667SOL    HW120898  10.541   9.716   3.933
39667SOL    HW220899  10.446   9.682   3.821
39668SOL     OW20900   7.104  11.989   3.809
39668SOL    HW120901   7.127  12.004   3.901
39668SOL    HW220902   7.134  11.900   3.791
39669SOL     OW20903   2.724   1.183  14.728
39669SOL    HW120904   2.802   1.142  14.690
39669SOL    HW220905   2.656   1.173  14.661
39670SOL     OW20906  14.768   3.971   5.321
39670SOL    HW120907  14.841   4.031   5.305
39670SOL    HW220908  14.787   3.933   5.408
39671SOL     OW20909   2.840   1.196   8.338
39671SOL    HW120910   2.817   1.285   8.366
39671SOL    HW220911   2.808   1.139   8.408
39672SOL     OW20912   6.492   4.864  13.409
39672SOL    HW120913   6.557   4.906  13.465
39672SOL    HW220914   6.456   4.793  13.463
39673SOL     OW20915  11.319   8.968   9.002
39673SOL    HW120916  11.372   8.889   9.005
39673SOL    HW220917  11.323   8.995   8.910
39674SOL     OW20918  13.353   1.821   0.547
39674SOL    HW120919  13.375   1.865   0.629
39674SOL    HW220920  13.257   1.813   0.549
39675SOL     OW20921   0.029  13.347   6.807
39675SOL    HW120922   0.116  13.377   6.832
39675SOL    HW220923  14.866  13.428   6.795
39676SOL     OW20924   9.007   4.252   1.112
39676SOL    HW120925   9.027   4.225   1.202
39676SOL    HW220926   8.940   4.191   1.083
39677SOL     OW20927  13.127   5.587   2.592
39677SOL    HW120928  13.110   5.614   2.501
39677SOL    HW220929  13.121   5.492   2.589
39678SOL     OW20930   9.924   6.280   8.005
39678SOL    HW120931   9.902   6.338   7.932
39678SOL    HW220932   9.924   6.192   7.967
39679SOL     OW20933   2.692  11.210   0.509
39679SOL    HW120934   2.710  11.187   0.600
39679SOL    HW220935   2.598  11.230   0.508
39680SOL     OW20936   1.064   6.895  12.637
39680SOL    HW120937   1.054   6.990  12.640
39680SOL    HW220938   1.023   6.869  12.554
39681SOL     OW20939  14.342  13.405   1.838
39681SOL    HW120940  14.432  13.434   1.855
39681SOL    HW220941  14.345  13.368   1.750
39682SOL     OW20942   5.051   1.855   8.418
39682SOL    HW120943   5.024   1.895   8.335
39682SOL    HW220944   5.015   1.913   8.485
39683SOL     OW20945   4.439  11.489   7.047
39683SOL    HW120946   4.383  11.413   7.063
39683SOL    HW220947   4.378  11.563   7.039
39684SOL     OW20948   8.609   6.453   5.346
39684SOL    HW120949   8.552   6.527   5.363
39684SOL    HW220950   8.551   6.384   5.316
39685SOL     OW20951   5.552   7.319   5.569
39685SOL    HW120952   5.544   7.225   5.588
39685SOL    HW220953   5.622   7.349   5.627
39686SOL     OW20954   0.779   4.890   4.982
39686SOL    HW120955   0.856   4.859   5.031
39686SOL    HW220956   0.782   4.985   4.992
39687SOL     OW20957  10.281  13.121   2.008
39687SOL    HW120958  10.249  13.112   2.098
39687SOL    HW220959  10.325  13.206   2.006
39688SOL     OW20960   9.238   7.697   4.933
39688SOL    HW120961   9.177   7.625   4.947
39688SOL    HW220962   9.184   7.776   4.938
39689SOL     OW20963   7.660  11.037  12.621
39689SOL    HW120964   7.656  11.118  12.672
39689SOL    HW220965   7.752  11.010  12.626
39690SOL     OW20966   4.649   9.820   9.482
39690SOL    HW120967   4.709   9.757   9.522
39690SOL    HW220968   4.593   9.850   9.554
39691SOL     OW20969  12.376  13.336  11.105
39691SOL    HW120970  12.321  13.381  11.040
39691SOL    HW220971  12.465  13.354  11.077
39692SOL     OW20972   2.258   0.515   5.887
39692SOL    HW120973   2.221   0.471   5.963
39692SOL    HW220974   2.198   0.588   5.870
39693SOL     OW20975   0.133   9.074   9.474
39693SOL    HW120976   0.048   9.036   9.495
39693SOL    HW220977   0.193   9.000   9.474
39694SOL     OW20978   9.345   0.171   5.523
39694SOL    HW120979   9.380   0.235   5.461
39694SOL    HW220980   9.312   0.224   5.595
39695SOL     OW20981   6.658   6.786   7.516
39695SOL    HW120982   6.643   6.851   7.448
39695SOL    HW220983   6.575   6.781   7.564
39696SOL     OW20984   0.088   9.984  14.124
39696SOL    HW120985   0.168  10.028  14.095
39696SOL    HW220986   0.118   9.898  14.154
39697SOL     OW20987   9.787   2.161   4.104
39697SOL    HW120988   9.868   2.153   4.154
39697SOL    HW220989   9.804   2.232   4.042
39698SOL     OW20990   1.376   4.840  10.311
39698SOL    HW120991   1.301   4.856  10.254
39698SOL    HW220992   1.385   4.920  10.363
39699SOL     OW20993  11.321   8.722  10.187
39699SOL    HW120994  11.384   8.794  10.181
39699SOL    HW220995  11.245   8.752  10.136
39700SOL     OW20996   4.921   3.199   1.511
39700SOL    HW120997   4.889   3.247   1.588
39700SOL    HW220998   4.968   3.124   1.548
39701SOL     OW20999   6.030   2.918   0.068
39701SOL    HW121000   6.072   2.851   0.014
39701SOL    HW221001   6.102   2.958   0.116
39702SOL     OW21002  10.019   4.349  13.136
39702SOL    HW121003  10.101   4.370  13.092
39702SOL    HW221004   9.954   4.407  13.096
39703SOL     OW21005   0.807   6.152  14.264
39703SOL    HW121006   0.718   6.178  14.288
39703SOL    HW221007   0.808   6.057  14.272
39704SOL     OW21008   3.488  14.808  12.588
39704SOL    HW121009   3.444  14.757  12.656
39704SOL    HW221010   3.436   0.001  12.580
39705SOL     OW21011  13.010  14.831   6.161
39705SOL    HW121012  12.956  14.772   6.108
39705SOL    HW221013  12.968  14.831   6.247
39706SOL     OW21014  10.058  13.342   3.082
39706SOL    HW121015  10.032  13.281   3.151
39706SOL    HW221016   9.976  13.367   3.040
39707SOL     OW21017   0.408   4.553  12.799
39707SOL    HW121018   0.315   4.572  12.787
39707SOL    HW221019   0.420   4.547  12.893
39708SOL     OW21020  10.403   7.399   0.771
39708SOL    HW121021  10.370   7.358   0.851
39708SOL    HW221022  10.485   7.441   0.797
39709SOL     OW21023  10.742  12.141  10.135
39709SOL    HW121024  10.792  12.218  10.108
39709SOL    HW221025  10.763  12.074  10.070
39710SOL     OW21026   1.501   4.855  11.970
39710SOL    HW121027   1.419   4.899  11.989
39710SOL    HW221028   1.525   4.884  11.882
39711SOL     OW21029   9.424   2.815  12.298
39711SOL    HW121030   9.490   2.775  12.354
39711SOL    HW221031   9.471   2.837  12.218
39712SOL     OW21032   0.981   6.035   5.464
39712SOL    HW121033   1.056   6.025   5.407
39712SOL    HW221034   1.014   6.083   5.540
39713SOL     OW21035   1.018   7.149  12.482
39713SOL    HW121036   0.998   7.200  12.404
39713SOL    HW221037   0.971   7.066  12.470
39714SOL     OW21038   1.100   0.917   6.137
39714SOL    HW121039   1.161   0.990   6.135
39714SOL    HW221040   1.085   0.902   6.230
39715SOL     OW21041   5.942  13.060  10.639
39715SOL    HW121042   6.001  13.003  10.589
39715SOL    HW221043   5.861  13.010  10.649
39716SOL     OW21044   6.869   8.582   1.745
39716SOL    HW121045   6.941   8.538   1.790
39716SOL    HW221046   6.807   8.602   1.815
39717SOL     OW21047   6.818  13.618  14.248
39717SOL    HW121048   6.859  13.692  14.202
39717SOL    HW221049   6.845  13.541  14.198
39718SOL     OW21050   1.309  14.396   9.159
39718SOL    HW121051   1.356  14.345   9.093
39718SOL    HW221052   1.337  14.486   9.144
39719SOL     OW21053   4.863   0.508   5.865
39719SOL    HW121054   4.914   0.490   5.786
39719SOL    HW221055   4.843   0.421   5.900
39720SOL     OW21056   7.706  12.455  14.533
39720SOL    HW121057   7.756  12.504  14.598
39720SOL    HW221058   7.616  12.458  14.565
39721SOL     OW21059  12.668   6.332   1.186
39721SOL    HW121060  12.686   6.377   1.103
39721SOL    HW221061  12.573   6.320   1.187
39722SOL     OW21062  12.833   7.521   2.451
39722SOL    HW121063  12.900   7.539   2.517
39722SOL    HW221064  12.858   7.436   2.415
39723SOL     OW21065  12.236   7.880  10.059
39723SOL    HW121066  12.212   7.917   9.974
39723SOL    HW221067  12.155   7.884  10.110
39724SOL     OW21068   0.918   1.347  11.416
39724SOL    HW121069   1.005   1.339  11.379
39724SOL    HW221070   0.933   1.359  11.510
39725SOL     OW21071   5.419   8.787   5.829
39725SOL    HW121072   5.470   8.849   5.881
39725SOL    HW221073   5.328   8.811   5.845
39726SOL     OW21074   8.862   9.424   7.936
39726SOL    HW121075   8.801   9.407   8.007
39726SOL    HW221076   8.849   9.516   7.914
39727SOL     OW21077   8.797   4.843  11.335
39727SOL    HW121078   8.866   4.833  11.399
39727SOL    HW221079   8.817   4.925  11.290
39728SOL     OW21080   5.437   7.753  11.576
39728SOL    HW121081   5.443   7.849  11.576
39728SOL    HW221082   5.497   7.725  11.507
39729SOL     OW21083   3.483   9.048   2.542
39729SOL    HW121084   3.550   9.081   2.483
39729SOL    HW221085   3.530   8.988   2.600
39730SOL     OW21086  10.912  14.582  11.583
39730SOL    HW121087  10.892  14.517  11.515
39730SOL    HW221088  10.859  14.555  11.658
39731SOL     OW21089  14.707   1.779   8.896
39731SOL    HW121090  14.721   1.815   8.808
39731SOL    HW221091  14.795   1.763   8.930
39732SOL     OW21092  14.352   7.755   7.159
39732SOL    HW121093  14.407   7.788   7.088
39732SOL    HW221094  14.414   7.716   7.221
39733SOL     OW21095   1.285  13.115   7.804
39733SOL    HW121096   1.264  13.197   7.849
39733SOL    HW221097   1.200  13.080   7.777
39734SOL     OW21098   1.425  10.591   2.422
39734SOL    HW121099   1.437  10.596   2.327
39734SOL    HW221100   1.332  10.573   2.433
39735SOL     OW21101   7.108  14.370   7.308
39735SOL    HW121102   7.163  14.303   7.267
39735SOL    HW221103   7.082  14.426   7.235
39736SOL     OW21104   8.975   2.570   3.522
39736SOL    HW121105   9.048   2.524   3.481
39736SOL    HW221106   9.013   2.652   3.555
39737SOL     OW21107   3.045   1.814   6.915
39737SOL    HW121108   3.135   1.834   6.887
39737SOL    HW221109   3.005   1.772   6.839
39738SOL     OW21110   5.954  13.000   4.439
39738SOL    HW121111   5.995  12.914   4.431
39738SOL    HW221112   5.893  12.992   4.512
39739SOL     OW21113   8.322   6.778   8.142
39739SOL    HW121114   8.396   6.721   8.120
39739SOL    HW221115   8.245   6.731   8.111
39740SOL     OW21116   7.052   2.917  11.988
39740SOL    HW121117   7.045   2.822  11.984
39740SOL    HW221118   7.043   2.946  11.897
39741SOL     OW21119  13.081  12.816   9.980
39741SOL    HW121120  13.000  12.865   9.992
39741SOL    HW221121  13.127  12.827  10.064
39742SOL     OW21122  12.837   4.071  11.487
39742SOL    HW121123  12.837   4.154  11.439
39742SOL    HW221124  12.911   4.078  11.547
39743SOL     OW21125   2.017   1.000   8.703
39743SOL    HW121126   2.000   0.931   8.767
39743SOL    HW221127   1.952   1.067   8.723
39744SOL     OW21128   7.377   5.621  12.855
39744SOL    HW121129   7.454   5.580  12.894
39744SOL    HW221130   7.327   5.656  12.930
39745SOL     OW21131  12.573   3.409  13.287
39745SOL    HW121132  12.584   3.403  13.192
39745SOL    HW221133  12.502   3.471  13.300
39746SOL     OW21134  14.785   8.053   0.469
39746SOL    HW121135  14.705   8.004   0.487
39746SOL    HW221136  14.852   8.011   0.523
39747SOL     OW21137  14.875   6.278   7.872
39747SOL    HW121138  14.821   6.227   7.812
39747SOL    HW221139   0.073   6.233   7.870
39748SOL     OW21140   8.844   0.535   0.588
39748SOL    HW121141   8.829   0.600   0.519
39748SOL    HW221142   8.927   0.494   0.564
39749SOL     OW21143   0.916   5.881  12.984
39749SOL    HW121144   0.950   5.951  13.039
39749SOL    HW221145   0.826   5.906  12.965
39750SOL     OW21146   3.402  13.288  10.937
39750SOL    HW121147   3.414  13.203  10.894
39750SOL    HW221148   3.328  13.276  10.995
39751SOL     OW21149  14.122  11.938   6.914
39751SOL    HW121150  14.060  11.921   6.842
39751SOL    HW221151  14.201  11.971   6.870
39752SOL     OW21152   9.025   2.285   2.067
39752SOL    HW121153   9.047   2.304   1.976
39752SOL    HW221154   9.004   2.370   2.105
39753SOL     OW21155   8.510  12.229  14.101
39753SOL    HW121156   8.541  12.296  14.041
39753SOL    HW221157   8.546  12.254  14.186
39754SOL     OW21158   0.985   0.582  11.374
39754SOL    HW121159   0.933   0.549  11.300
39754SOL    HW221160   1.040   0.650  11.336
39755SOL     OW21161   4.260  10.261   7.087
39755SOL    HW121162   4.283  10.304   7.169
39755SOL    HW221163   4.252  10.168   7.110
39756SOL     OW21164   4.364   9.827  14.857
39756SOL    HW121165   4.289   9.867   0.014
39756SOL    HW221166   4.440   9.867   0.010
39757SOL     OW21167   6.894  13.281   1.656
39757SOL    HW121168   6.843  13.259   1.734
39757SOL    HW221169   6.859  13.224   1.588
39758SOL     OW21170   2.848   2.670   9.759
39758SOL    HW121171   2.918   2.650   9.821
39758SOL    HW221172   2.849   2.597   9.697
39759SOL     OW21173  13.227  10.904   5.696
39759SOL    HW121174  13.302  10.851   5.670
39759SOL    HW221175  13.231  10.906   5.792
39760SOL     OW21176   1.315  10.274   2.626
39760SOL    HW121177   1.407  10.252   2.617
39760SOL    HW221178   1.285  10.290   2.537
39761SOL     OW21179  10.077   4.129   3.035
39761SOL    HW121180  10.152   4.080   3.001
39761SOL    HW221181  10.043   4.073   3.106
39762SOL     OW21182  10.753   1.011   8.874
39762SOL    HW121183  10.665   1.041   8.897
39762SOL    HW221184  10.744   0.974   8.786
39763SOL     OW21185   1.874  14.539   8.638
39763SOL    HW121186   1.929  14.460   8.640
39763SOL    HW221187   1.921  14.599   8.581
39764SOL     OW21188   4.467   3.866   0.397
39764SOL    HW121189   4.512   3.940   0.437
39764SOL    HW221190   4.486   3.874   0.303
39765SOL     OW21191  13.942   9.228   1.475
39765SOL    HW121192  14.017   9.228   1.414
39765SOL    HW221193  13.982   9.231   1.562
39766SOL     OW21194   6.387   3.934  10.209
39766SOL    HW121195   6.321   3.950  10.277
39766SOL    HW221196   6.442   4.012  10.209
39767SOL     OW21197   5.642   7.698  11.404
39767SOL    HW121198   5.670   7.789  11.389
39767SOL    HW221199   5.700   7.667  11.473
39768SOL     OW21200   9.029   3.906  12.619
39768SOL    HW121201   9.076   3.843  12.565
39768SOL    HW221202   9.085   3.984  12.619
39769SOL     OW21203   4.473   1.223   0.736
39769SOL    HW121204   4.561   1.219   0.700
39769SOL    HW221205   4.433   1.298   0.692
39770SOL     OW21206   2.131   1.992   7.659
39770SOL    HW121207   2.195   1.947   7.715
39770SOL    HW221208   2.178   2.006   7.576
39771SOL     OW21209   2.124  12.379   4.781
39771SOL    HW121210   2.046  12.372   4.727
39771SOL    HW221211   2.125  12.297   4.831
39772SOL     OW21212   1.347   3.477  10.761
39772SOL    HW121213   1.311   3.483  10.673
39772SOL    HW221214   1.294   3.410  10.804
39773SOL     OW21215   8.298   5.578  11.814
39773SOL    HW121216   8.226   5.639  11.830
39773SOL    HW221217   8.285   5.549  11.724
39774SOL     OW21218   5.692   0.710   5.645
39774SOL    HW121219   5.690   0.711   5.550
39774SOL    HW221220   5.715   0.620   5.669
39775SOL     OW21221   8.788   0.731   4.879
39775SOL    HW121222   8.803   0.778   4.797
39775SOL    HW221223   8.728   0.787   4.928
39776SOL     OW21224   2.204  11.174  12.197
39776SOL    HW121225   2.188  11.203  12.286
39776SOL    HW221226   2.277  11.229  12.167
39777SOL     OW21227   9.014   7.213   8.754
39777SOL    HW121228   8.921   7.220   8.733
39777SOL    HW221229   9.017   7.171   8.840
39778SOL     OW21230  14.753  13.029   9.739
39778SOL    HW121231  14.815  13.095   9.770
39778SOL    HW221232  14.798  12.945   9.753
39779SOL     OW21233  13.616  14.838   1.846
39779SOL    HW121234  13.649   0.003   1.774
39779SOL    HW221235  13.694  14.795   1.883
39780SOL     OW21236   4.983   3.609  12.664
39780SOL    HW121237   5.053   3.575  12.608
39780SOL    HW221238   4.904   3.600  12.610
39781SOL     OW21239   1.344   6.240   2.419
39781SOL    HW121240   1.305   6.313   2.469
39781SOL    HW221241   1.435   6.265   2.407
39782SOL     OW21242   6.701   9.656  12.772
39782SOL    HW121243   6.691   9.580  12.715
39782SOL    HW221244   6.641   9.721  12.735
39783SOL     OW21245   7.969   5.800  13.250
39783SOL    HW121246   8.038   5.734  13.252
39783SOL    HW221247   7.959   5.823  13.158
39784SOL     OW21248   8.992  13.307  12.993
39784SOL    HW121249   8.910  13.307  12.943
39784SOL    HW221250   9.021  13.216  12.992
39785SOL     OW21251   9.277  12.422  13.343
39785SOL    HW121252   9.182  12.430  13.351
39785SOL    HW221253   9.296  12.333  13.372
39786SOL     OW21254  10.459   4.868  12.383
39786SOL    HW121255  10.403   4.824  12.319
39786SOL    HW221256  10.524   4.802  12.406
39787SOL     OW21257   8.983  11.617  14.783
39787SOL    HW121258   8.921  11.656  14.844
39787SOL    HW221259   8.934  11.606  14.702
39788SOL     OW21260  11.496   4.764   3.192
39788SOL    HW121261  11.583   4.775   3.231
39788SOL    HW221262  11.443   4.833   3.233
39789SOL     OW21263   7.908   8.291   2.642
39789SOL    HW121264   7.819   8.259   2.625
39789SOL    HW221265   7.935   8.245   2.721
39790SOL     OW21266  11.330   6.479   3.396
39790SOL    HW121267  11.405   6.505   3.450
39790SOL    HW221268  11.296   6.561   3.361
39791SOL     OW21269   6.153  10.261   5.816
39791SOL    HW121270   6.210  10.192   5.849
39791SOL    HW221271   6.080  10.215   5.775
39792SOL     OW21272  12.525   5.613   1.429
39792SOL    HW121273  12.596   5.638   1.488
39792SOL    HW221274  12.453   5.588   1.486
39793SOL     OW21275   5.306   3.523  11.809
39793SOL    HW121276   5.260   3.606  11.822
39793SOL    HW221277   5.238   3.463  11.777
39794SOL     OW21278  13.418   2.926  11.818
39794SOL    HW121279  13.365   2.998  11.850
39794SOL    HW221280  13.506   2.944  11.849
39795SOL     OW21281   4.807   2.202  10.394
39795SOL    HW121282   4.789   2.257  10.470
39795SOL    HW221283   4.895   2.167  10.411
39796SOL     OW21284   8.854   1.457   5.773
39796SOL    HW121285   8.939   1.478   5.734
39796SOL    HW221286   8.875   1.416   5.857
39797SOL     OW21287  11.782   9.670   2.122
39797SOL    HW121288  11.710   9.707   2.174
39797SOL    HW221289  11.802   9.587   2.163
39798SOL     OW21290  11.344   0.746   9.977
39798SOL    HW121291  11.292   0.675   9.939
39798SOL    HW221292  11.375   0.711  10.060
39799SOL     OW21293  13.286  10.253  11.470
39799SOL    HW121294  13.361  10.226  11.522
39799SOL    HW221295  13.212  10.250  11.531
39800SOL     OW21296   8.377   7.364  11.784
39800SOL    HW121297   8.375   7.438  11.845
39800SOL    HW221298   8.393   7.404  11.699
39801SOL     OW21299   3.512   3.854   3.090
39801SOL    HW121300   3.487   3.872   2.999
39801SOL    HW221301   3.429   3.848   3.137
39802SOL     OW21302   3.206  11.108  10.108
39802SOL    HW121303   3.238  11.118  10.018
39802SOL    HW221304   3.238  11.187  10.153
39803SOL     OW21305   1.687  12.244   7.821
39803SOL    HW121306   1.602  12.287   7.831
39803SOL    HW221307   1.707  12.209   7.908
39804SOL     OW21308   0.931  11.537   5.941
39804SOL    HW121309   0.966  11.595   5.874
39804SOL    HW221310   0.883  11.470   5.893
39805SOL     OW21311   7.395   0.526  13.203
39805SOL    HW121312   7.445   0.563  13.130
39805SOL    HW221313   7.335   0.464  13.161
39806SOL     OW21314   4.974   3.080   8.803
39806SOL    HW121315   5.008   3.017   8.866
39806SOL    HW221316   5.021   3.060   8.722
39807SOL     OW21317   6.151  14.588  11.121
39807SOL    HW121318   6.204  14.621  11.048
39807SOL    HW221319   6.185  14.500  11.137
39808SOL     OW21320   4.624   5.502   4.982
39808SOL    HW121321   4.538   5.531   5.013
39808SOL    HW221322   4.678   5.580   4.983
39809SOL     OW21323   8.862   0.359   8.628
39809SOL    HW121324   8.828   0.437   8.585
39809SOL    HW221325   8.936   0.331   8.574
39810SOL     OW21326  13.672   4.334   0.275
39810SOL    HW121327  13.729   4.277   0.224
39810SOL    HW221328  13.731   4.393   0.320
39811SOL     OW21329   1.308   6.016   2.573
39811SOL    HW121330   1.343   6.080   2.635
39811SOL    HW221331   1.288   6.068   2.494
39812SOL     OW21332   1.695   9.233  10.884
39812SOL    HW121333   1.772   9.278  10.850
39812SOL    HW221334   1.728   9.182  10.958
39813SOL     OW21335   5.517  12.923   7.439
39813SOL    HW121336   5.440  12.979   7.452
39813SOL    HW221337   5.549  12.947   7.352
39814SOL     OW21338  14.274  11.786   0.331
39814SOL    HW121339  14.340  11.730   0.372
39814SOL    HW221340  14.213  11.807   0.401
39815SOL     OW21341   7.468   1.682   6.442
39815SOL    HW121342   7.550   1.665   6.396
39815SOL    HW221343   7.433   1.760   6.400
39816SOL     OW21344  14.212   7.700   5.317
39816SOL    HW121345  14.127   7.713   5.277
39816SOL    HW221346  14.239   7.612   5.290
39817SOL     OW21347  13.704  10.094  13.592
39817SOL    HW121348  13.702  10.186  13.615
39817SOL    HW221349  13.653  10.051  13.661
39818SOL     OW21350   7.988  10.734   1.996
39818SOL    HW121351   7.955  10.644   1.994
39818SOL    HW221352   8.081  10.724   2.018
39819SOL     OW21353  11.920   5.370   6.428
39819SOL    HW121354  11.844   5.395   6.376
39819SOL    HW221355  11.917   5.274   6.430
39820SOL     OW21356  14.127   0.999   9.679
39820SOL    HW121357  14.071   1.037   9.746
39820SOL    HW221358  14.069   0.942   9.629
39821SOL     OW21359  11.939   9.579  10.590
39821SOL    HW121360  11.902   9.491  10.597
39821SOL    HW221361  11.879   9.635  10.638
39822SOL     OW21362   0.602   1.322   4.806
39822SOL    HW121363   0.611   1.275   4.723
39822SOL    HW221364   0.679   1.378   4.810
39823SOL     OW21365  12.908   2.003  14.233
39823SOL    HW121366  12.909   1.945  14.308
39823SOL    HW221367  12.842   1.966  14.174
39824SOL     OW21368   1.525  10.876   1.106
39824SOL    HW121369   1.576  10.877   1.025
39824SOL    HW221370   1.472  10.797   1.100
39825SOL     OW21371   0.103  12.859   3.701
39825SOL    HW121372   0.124  12.810   3.781
39825SOL    HW221373   0.034  12.808   3.660
39826SOL     OW21374   1.192  11.224   4.765
39826SOL    HW121375   1.177  11.293   4.700
39826SOL    HW221376   1.254  11.164   4.723
39827SOL     OW21377  10.211   3.091   4.138
39827SOL    HW121378  10.227   3.185   4.136
39827SOL    HW221379  10.279   3.053   4.082
39828SOL     OW21380   9.613   3.204   5.899
39828SOL    HW121381   9.668   3.256   5.958
39828SOL    HW221382   9.532   3.255   5.891
39829SOL     OW21383  12.342   9.637   8.538
39829SOL    HW121384  12.405   9.655   8.608
39829SOL    HW221385  12.391   9.583   8.475
39830SOL     OW21386   5.334   4.923   2.275
39830SOL    HW121387   5.332   5.016   2.251
39830SOL    HW221388   5.244   4.893   2.263
39831SOL     OW21389   4.521   0.582   3.280
39831SOL    HW121390   4.471   0.509   3.316
39831SOL    HW221391   4.472   0.609   3.203
39832SOL     OW21392   5.844   6.651  12.714
39832SOL    HW121393   5.796   6.669  12.795
39832SOL    HW221394   5.775   6.643  12.647
39833SOL     OW21395   2.240   3.880   1.069
39833SOL    HW121396   2.330   3.911   1.070
39833SOL    HW221397   2.199   3.920   1.146
39834SOL     OW21398   2.860   3.064  10.447
39834SOL    HW121399   2.842   3.001  10.377
39834SOL    HW221400   2.789   3.128  10.440
39835SOL     OW21401  14.234  10.590  11.602
39835SOL    HW121402  14.191  10.664  11.645
39835SOL    HW221403  14.296  10.557  11.667
39836SOL     OW21404   5.777  12.627   4.811
39836SOL    HW121405   5.721  12.682   4.866
39836SOL    HW221406   5.825  12.572   4.872
39837SOL     OW21407   4.314  14.751  14.708
39837SOL    HW121408   4.384  14.693  14.678
39837SOL    HW221409   4.275  14.705  14.782
39838SOL     OW21410  10.702   3.689   6.810
39838SOL    HW121411  10.764   3.618   6.794
39838SOL    HW221412  10.751   3.768   6.790
39839SOL     OW21413   7.274  12.249   0.958
39839SOL    HW121414   7.364  12.251   0.993
39839SOL    HW221415   7.281  12.200   0.877
39840SOL     OW21416  12.231   6.903  12.406
39840SOL    HW121417  12.197   6.835  12.465
39840SOL    HW221418  12.222   6.984  12.456
39841SOL     OW21419  10.837   6.754   8.303
39841SOL    HW121420  10.879   6.683   8.255
39841SOL    HW221421  10.878   6.834   8.270
39842SOL     OW21422  13.906   2.760   0.373
39842SOL    HW121423  13.815   2.759   0.342
39842SOL    HW221424  13.958   2.772   0.294
39843SOL     OW21425   6.345   9.772  13.379
39843SOL    HW121426   6.271   9.713  13.362
39843SOL    HW221427   6.314   9.858  13.350
39844SOL     OW21428  10.434   5.470   8.749
39844SOL    HW121429  10.471   5.403   8.806
39844SOL    HW221430  10.427   5.427   8.664
39845SOL     OW21431   7.149   0.289   8.650
39845SOL    HW121432   7.180   0.380   8.647
39845SOL    HW221433   7.178   0.257   8.735
39846SOL     OW21434  12.728   4.963  10.389
39846SOL    HW121435  12.815   4.977  10.427
39846SOL    HW221436  12.742   4.901  10.319
39847SOL     OW21437   1.038   0.320   4.948
39847SOL    HW121438   1.093   0.335   4.870
39847SOL    HW221439   0.998   0.405   4.966
39848SOL     OW21440   7.450   9.546   1.981
39848SOL    HW121441   7.420   9.635   1.968
39848SOL    HW221442   7.385   9.492   1.935
39849SOL     OW21443  12.292   4.976   2.559
39849SOL    HW121444  12.288   4.961   2.654
39849SOL    HW221445  12.306   4.889   2.521
39850SOL     OW21446   4.046   9.121  10.909
39850SOL    HW121447   4.011   9.099  10.995
39850SOL    HW221448   4.117   9.058  10.895
39851SOL     OW21449   6.643   4.307   3.833
39851SOL    HW121450   6.594   4.283   3.912
39851SOL    HW221451   6.678   4.395   3.852
39852SOL     OW21452   3.516  11.282   9.746
39852SOL    HW121453   3.549  11.247   9.828
39852SOL    HW221454   3.437  11.230   9.728
39853SOL     OW21455  13.853   3.369  10.740
39853SOL    HW121456  13.769   3.325  10.749
39853SOL    HW221457  13.867   3.377  10.645
39854SOL     OW21458   9.965  10.800   6.153
39854SOL    HW121459   9.890  10.782   6.096
39854SOL    HW221460  10.036  10.748   6.116
39855SOL     OW21461  14.106  12.317  11.785
39855SOL    HW121462  14.156  12.296  11.707
39855SOL    HW221463  14.043  12.246  11.794
39856SOL     OW21464  12.054   0.474  13.130
39856SOL    HW121465  12.088   0.554  13.089
39856SOL    HW221466  12.032   0.417  13.056
39857SOL     OW21467  10.299  13.618  11.141
39857SOL    HW121468  10.394  13.605  11.152
39857SOL    HW221469  10.279  13.692  11.198
39858SOL     OW21470   9.587   1.518  14.880
39858SOL    HW121471   9.674   1.505   0.029
39858SOL    HW221472   9.542   1.435   0.008
39859SOL     OW21473  11.235   5.141  10.326
39859SOL    HW121474  11.186   5.206  10.276
39859SOL    HW221475  11.174   5.111  10.393
39860SOL     OW21476   8.129   3.974  10.434
39860SOL    HW121477   8.186   3.938  10.366
39860SOL    HW221478   8.179   3.962  10.515
39861SOL     OW21479   5.367  14.351  10.488
39861SOL    HW121480   5.373  14.316  10.399
39861SOL    HW221481   5.382  14.276  10.545
39862SOL     OW21482   6.198   2.946  10.053
39862SOL    HW121483   6.275   2.892  10.067
39862SOL    HW221484   6.179   2.983  10.140
39863SOL     OW21485   5.702   1.085  12.226
39863SOL    HW121486   5.654   1.096  12.308
39863SOL    HW221487   5.650   1.131  12.160
39864SOL     OW21488   6.375   8.502   8.502
39864SOL    HW121489   6.372   8.501   8.597
39864SOL    HW221490   6.328   8.423   8.476
39865SOL     OW21491   2.794   8.546   5.026
39865SOL    HW121492   2.767   8.480   5.090
39865SOL    HW221493   2.831   8.617   5.078
39866SOL     OW21494   4.242   7.515  13.701
39866SOL    HW121495   4.191   7.546  13.627
39866SOL    HW221496   4.179   7.510  13.773
39867SOL     OW21497   0.677   6.564  10.200
39867SOL    HW121498   0.645   6.474  10.205
39867SOL    HW221499   0.665   6.599  10.289
39868SOL     OW21500   1.341  13.095   5.530
39868SOL    HW121501   1.277  13.078   5.599
39868SOL    HW221502   1.322  13.029   5.463
39869SOL     OW21503   4.541   2.887   4.186
39869SOL    HW121504   4.587   2.834   4.121
39869SOL    HW221505   4.583   2.972   4.182
39870SOL     OW21506   8.576  10.665  11.533
39870SOL    HW121507   8.601  10.745  11.578
39870SOL    HW221508   8.514  10.622  11.593
39871SOL     OW21509   1.501   5.300   9.757
39871SOL    HW121510   1.416   5.295   9.799
39871SOL    HW221511   1.540   5.213   9.771
39872SOL     OW21512   9.253   8.769   9.954
39872SOL    HW121513   9.183   8.822   9.914
39872SOL    HW221514   9.308   8.834   9.999
39873SOL     OW21515  14.314  10.692   0.427
39873SOL    HW121516  14.339  10.612   0.473
39873SOL    HW221517  14.295  10.755   0.497
39874SOL     OW21518  10.231   3.296   7.072
39874SOL    HW121519  10.162   3.262   7.014
39874SOL    HW221520  10.311   3.290   7.019
39875SOL     OW21521   3.298   8.184   1.211
39875SOL    HW121522   3.367   8.179   1.144
39875SOL    HW221523   3.301   8.099   1.255
39876SOL     OW21524   0.572   6.416  12.197
39876SOL    HW121525   0.664   6.435  12.177
39876SOL    HW221526   0.563   6.321  12.185
39877SOL     OW21527  14.318  13.207   7.248
39877SOL    HW121528  14.309  13.285   7.192
39877SOL    HW221529  14.358  13.141   7.190
39878SOL     OW21530   0.949  14.808   3.400
39878SOL    HW121531   0.900   0.002   3.412
39878SOL    HW221532   0.928  14.756   3.477
39879SOL     OW21533   6.267  14.304   6.205
39879SOL    HW121534   6.356  14.309   6.240
39879SOL    HW221535   6.246  14.393   6.179
39880SOL     OW21536  13.178   6.124  11.676
39880SOL    HW121537  13.170   6.096  11.767
39880SOL    HW221538  13.118   6.199  11.668
39881SOL     OW21539   5.891   1.255  10.264
39881SOL    HW121540   5.952   1.303  10.320
39881SOL    HW221541   5.922   1.165  10.267
39882SOL     OW21542   2.494   8.454   5.249
39882SOL    HW121543   2.461   8.407   5.326
39882SOL    HW221544   2.588   8.436   5.249
39883SOL     OW21545  14.831   3.710   9.249
39883SOL    HW121546  14.780   3.643   9.296
39883SOL    HW221547  14.827   3.787   9.305
39884SOL     OW21548   0.725  10.977   2.802
39884SOL    HW121549   0.655  11.027   2.843
39884SOL    HW221550   0.720  10.999   2.709
39885SOL     OW21551   6.108   4.729  10.935
39885SOL    HW121552   6.060   4.714  11.016
39885SOL    HW221553   6.049   4.702  10.866
39886SOL     OW21554  14.882  10.123  10.606
39886SOL    HW121555  14.810  10.167  10.652
39886SOL    HW221556  14.840  10.049  10.561
39887SOL     OW21557  11.515   7.854   2.585
39887SOL    HW121558  11.551   7.936   2.618
39887SOL    HW221559  11.492   7.805   2.663
39888SOL     OW21560   7.967   6.582   3.111
39888SOL    HW121561   8.023   6.507   3.132
39888SOL    HW221562   7.934   6.611   3.196
39889SOL     OW21563   7.353  10.759  12.114
39889SOL    HW121564   7.415  10.824  12.081
39889SOL    HW221565   7.406  10.681  12.131
39890SOL     OW21566  13.346   1.193   5.187
39890SOL    HW121567  13.372   1.104   5.164
39890SOL    HW221568  13.385   1.208   5.274
39891SOL     OW21569   5.752   4.694   2.831
39891SOL    HW121570   5.733   4.783   2.861
39891SOL    HW221571   5.809   4.657   2.899
39892SOL     OW21572   9.950  12.062  11.894
39892SOL    HW121573   9.922  12.110  11.972
39892SOL    HW221574   9.870  12.023  11.860
39893SOL     OW21575   7.104   8.441   4.843
39893SOL    HW121576   7.160   8.516   4.823
39893SOL    HW221577   7.117   8.425   4.937
39894SOL     OW21578   4.268   0.607  11.916
39894SOL    HW121579   4.181   0.573  11.935
39894SOL    HW221580   4.256   0.702  11.913
39895SOL     OW21581  11.412   6.602   3.808
39895SOL    HW121582  11.501   6.574   3.786
39895SOL    HW221583  11.378   6.534   3.865
39896SOL     OW21584  10.144   7.606   8.339
39896SOL    HW121585  10.083   7.537   8.366
39896SOL    HW221586  10.201   7.564   8.275
39897SOL     OW21587   1.940  14.215   1.008
39897SOL    HW121588   1.875  14.280   0.983
39897SOL    HW221589   1.987  14.195   0.927
39898SOL     OW21590   2.599   5.432   3.273
39898SOL    HW121591   2.585   5.506   3.332
39898SOL    HW221592   2.605   5.356   3.330
39899SOL     OW21593   9.204  14.838  12.766
39899SOL    HW121594   9.175  14.809  12.853
39899SOL    HW221595   9.133   0.006  12.735
39900SOL     OW21596   6.904  14.584   0.844
39900SOL    HW121597   6.975  14.646   0.858
39900SOL    HW221598   6.836  14.634   0.799
39901SOL     OW21599   8.902   7.784   1.961
39901SOL    HW121600   8.893   7.858   2.022
39901SOL    HW221601   8.855   7.813   1.883
39902SOL     OW21602   1.494   1.539   4.300
39902SOL    HW121603   1.532   1.608   4.354
39902SOL    HW221604   1.443   1.585   4.235
39903SOL     OW21605  12.167  14.549  13.286
39903SOL    HW121606  12.218  14.614  13.238
39903SOL    HW221607  12.095  14.526  13.227
39904SOL     OW21608  14.883  10.546   1.714
39904SOL    HW121609   0.078  10.593   1.729
39904SOL    HW221610  14.817  10.600   1.757
39905SOL     OW21611   7.457   4.967   3.836
39905SOL    HW121612   7.461   5.042   3.776
39905SOL    HW221613   7.472   4.891   3.780
39906SOL     OW21614  11.678  13.847   8.622
39906SOL    HW121615  11.661  13.938   8.648
39906SOL    HW221616  11.682  13.799   8.704
39907SOL     OW21617  13.457  10.432   5.345
39907SOL    HW121618  13.474  10.524   5.325
39907SOL    HW221619  13.390  10.406   5.282
39908SOL     OW21620  14.266  10.487   7.225
39908SOL    HW121621  14.268  10.441   7.310
39908SOL    HW221622  14.344  10.455   7.179
39909SOL     OW21623  14.248   7.756   1.317
39909SOL    HW121624  14.184   7.696   1.357
39909SOL    HW221625  14.208   7.781   1.234
39910SOL     OW21626   4.461   0.778   7.417
39910SOL    HW121627   4.378   0.743   7.450
39910SOL    HW221628   4.436   0.823   7.335
39911SOL     OW21629   7.762  14.308   3.720
39911SOL    HW121630   7.773  14.367   3.646
39911SOL    HW221631   7.676  14.329   3.755
39912SOL     OW21632  12.310  10.540   0.681
39912SOL    HW121633  12.401  10.567   0.688
39912SOL    HW221634  12.278  10.581   0.601
39913SOL     OW21635   5.122   1.603  14.650
39913SOL    HW121636   5.196   1.551  14.618
39913SOL    HW221637   5.048   1.542  14.647
39914SOL     OW21638   7.079  12.279   2.925
39914SOL    HW121639   7.127  12.330   2.860
39914SOL    HW221640   7.129  12.197   2.933
39915SOL     OW21641   7.993   3.080   9.470
39915SOL    HW121642   7.904   3.075   9.437
39915SOL    HW221643   7.985   3.126   9.554
39916SOL     OW21644   5.997  11.880   2.273
39916SOL    HW121645   6.000  11.975   2.289
39916SOL    HW221646   6.007  11.872   2.178
39917SOL     OW21647  11.583  10.837   1.345
39917SOL    HW121648  11.649  10.906   1.339
39917SOL    HW221649  11.626  10.759   1.310
39918SOL     OW21650  11.015   5.111  11.382
39918SOL    HW121651  10.954   5.109  11.308
39918SOL    HW221652  11.006   5.025  11.423
39919SOL     OW21653   7.149   5.282   5.937
39919SOL    HW121654   7.171   5.240   6.019
39919SOL    HW221655   7.076   5.341   5.959
39920SOL     OW21656  12.143   4.829   3.008
39920SOL    HW121657  12.144   4.917   2.972
39920SOL    HW221658  12.083   4.834   3.082
39921SOL     OW21659  13.406   6.405  14.723
39921SOL    HW121660  13.356   6.481  14.692
39921SOL    HW221661  13.441   6.432  14.808
39922SOL     OW21662   0.080   9.953   1.878
39922SOL    HW121663   0.141   9.937   1.806
39922SOL    HW221664   0.103  10.041   1.909
39923SOL     OW21665  13.112   9.433  14.041
39923SOL    HW121666  13.084   9.343  14.023
39923SOL    HW221667  13.087   9.448  14.132
39924SOL     OW21668  11.733   6.651   9.631
39924SOL    HW121669  11.687   6.644   9.547
39924SOL    HW221670  11.667   6.686   9.691
39925SOL     OW21671   8.950   7.814   3.541
39925SOL    HW121672   8.933   7.892   3.594
39925SOL    HW221673   8.864   7.772   3.530
39926SOL     OW21674   8.485   0.487   6.638
39926SOL    HW121675   8.580   0.471   6.636
39926SOL    HW221676   8.448   0.421   6.579
39927SOL     OW21677   8.194  10.077  12.387
39927SOL    HW121678   8.280  10.035  12.378
39927SOL    HW221679   8.209  10.168  12.364
39928SOL     OW21680   2.402   2.841   4.653
39928SOL    HW121681   2.338   2.911   4.644
39928SOL    HW221682   2.424   2.816   4.563
39929SOL     OW21683  11.456   8.546   9.766
39929SOL    HW121684  11.424   8.559   9.855
39929SOL    HW221685  11.546   8.515   9.777
39930SOL     OW21686   8.387  11.111   6.902
39930SOL    HW121687   8.467  11.065   6.877
39930SOL    HW221688   8.339  11.048   6.956
39931SOL     OW21689   4.677  14.810  12.647
39931SOL    HW121690   4.594  14.828  12.603
39931SOL    HW221691   4.653  14.757  12.724
39932SOL     OW21692   3.318   7.530  11.247
39932SOL    HW121693   3.227   7.503  11.239
39932SOL    HW221694   3.346   7.551  11.158
39933SOL     OW21695   6.727   1.755  11.229
39933SOL    HW121696   6.767   1.760  11.142
39933SOL    HW221697   6.695   1.844  11.246
39934SOL     OW21698   3.853   1.474   3.780
39934SOL    HW121699   3.900   1.524   3.847
39934SOL    HW221700   3.763   1.468   3.813
39935SOL     OW21701   9.115  12.604  12.805
39935SOL    HW121702   9.090  12.618  12.713
39935SOL    HW221703   9.081  12.517  12.825
39936SOL     OW21704  12.619   3.173   4.430
39936SOL    HW121705  12.534   3.184   4.471
39936SOL    HW221706  12.605   3.107   4.362
39937SOL     OW21707   8.858   5.406  10.182
39937SOL    HW121708   8.768   5.411  10.150
39937SOL    HW221709   8.867   5.316  10.213
39938SOL     OW21710   8.078   9.061   9.931
39938SOL    HW121711   7.993   9.093   9.961
39938SOL    HW221712   8.138   9.083  10.001
39939SOL     OW21713   2.811   1.285  14.459
39939SOL    HW121714   2.849   1.214  14.511
39939SOL    HW221715   2.735   1.245  14.416
39940SOL     OW21716   2.238   2.394   5.500
39940SOL    HW121717   2.188   2.429   5.574
39940SOL    HW221718   2.207   2.443   5.424
39941SOL     OW21719  13.118   9.560   9.686
39941SOL    HW121720  13.034   9.579   9.727
39941SOL    HW221721  13.101   9.483   9.631
39942SOL     OW21722   8.846  13.110   7.121
39942SOL    HW121723   8.937  13.111   7.152
39942SOL    HW221724   8.832  13.019   7.094
39943SOL     OW21725   5.757   1.111   3.696
39943SOL    HW121726   5.751   1.190   3.643
39943SOL    HW221727   5.666   1.085   3.711
39944SOL     OW21728  10.970  12.086   6.223
39944SOL    HW121729  11.053  12.039   6.221
39944SOL    HW221730  10.983  12.154   6.289
39945SOL     OW21731   9.683   2.204  10.862
39945SOL    HW121732   9.728   2.286  10.846
39945SOL    HW221733   9.590   2.226  10.860
39946SOL     OW21734   8.603  11.644  10.654
39946SOL    HW121735   8.563  11.666  10.738
39946SOL    HW221736   8.555  11.566  10.625
39947SOL     OW21737  13.177   8.008   3.203
39947SOL    HW121738  13.228   7.967   3.132
39947SOL    HW221739  13.136   7.934   3.248
39948SOL     OW21740   3.996  12.548   9.704
39948SOL    HW121741   3.968  12.637   9.727
39948SOL    HW221742   4.004  12.549   9.608
39949SOL     OW21743   7.099   7.422  14.119
39949SOL    HW121744   7.115   7.329  14.134
39949SOL    HW221745   7.172   7.467  14.162
39950SOL     OW21746  14.258   7.834  10.323
39950SOL    HW121747  14.342   7.834  10.277
39950SOL    HW221748  14.230   7.743  10.322
39951SOL     OW21749   3.553   8.226  13.680
39951SOL    HW121750   3.505   8.226  13.597
39951SOL    HW221751   3.634   8.179  13.661
39952SOL     OW21752   4.457  13.085  12.743
39952SOL    HW121753   4.393  13.143  12.703
39952SOL    HW221754   4.423  12.997  12.727
39953SOL     OW21755  14.867   9.691  13.567
39953SOL    HW121756   0.050   9.674  13.630
39953SOL    HW221757   0.019   9.748  13.501
39954SOL     OW21758  10.934   0.460   8.379
39954SOL    HW121759  10.854   0.457   8.328
39954SOL    HW221760  10.925   0.539   8.433
39955SOL     OW21761   8.217   6.763   2.893
39955SOL    HW121762   8.185   6.734   2.808
39955SOL    HW221763   8.312   6.753   2.887
39956SOL     OW21764  13.096  10.584  10.885
39956SOL    HW121765  13.093  10.571  10.790
39956SOL    HW221766  13.087  10.679  10.896
39957SOL     OW21767   2.883   0.524   8.705
39957SOL    HW121768   2.947   0.520   8.635
39957SOL    HW221769   2.868   0.617   8.719
39958SOL     OW21770  11.342  13.276   3.689
39958SOL    HW121771  11.288  13.197   3.696
39958SOL    HW221772  11.380  13.287   3.776
39959SOL     OW21773  11.209  11.642  13.234
39959SOL    HW121774  11.124  11.633  13.190
39959SOL    HW221775  11.270  11.597  13.177
39960SOL     OW21776  11.481  13.641   0.847
39960SOL    HW121777  11.400  13.675   0.809
39960SOL    HW221778  11.469  13.546   0.849
39961SOL     OW21779   4.205   8.326  12.219
39961SOL    HW121780   4.257   8.257  12.177
39961SOL    HW221781   4.202   8.397  12.155
39962SOL     OW21782   7.156  11.774   1.335
39962SOL    HW121783   7.153  11.830   1.257
39962SOL    HW221784   7.234  11.719   1.322
39963SOL     OW21785  11.664   2.660   2.841
39963SOL    HW121786  11.690   2.590   2.781
39963SOL    HW221787  11.696   2.740   2.800
39964SOL     OW21788  12.556  11.568   7.563
39964SOL    HW121789  12.553  11.499   7.629
39964SOL    HW221790  12.547  11.649   7.613
39965SOL     OW21791   9.529   8.802   1.539
39965SOL    HW121792   9.486   8.786   1.455
39965SOL    HW221793   9.575   8.720   1.558
39966SOL     OW21794   4.634   6.701  13.777
39966SOL    HW121795   4.586   6.684  13.696
39966SOL    HW221796   4.566   6.702  13.845
39967SOL     OW21797   7.360   2.262   7.650
39967SOL    HW121798   7.293   2.321   7.685
39967SOL    HW221799   7.311   2.197   7.599
39968SOL     OW21800   3.354   6.847   3.671
39968SOL    HW121801   3.305   6.801   3.603
39968SOL    HW221802   3.356   6.786   3.744
39969SOL     OW21803   9.424   9.876   1.983
39969SOL    HW121804   9.362   9.896   1.913
39969SOL    HW221805   9.490   9.821   1.941
39970SOL     OW21806  12.782   6.836  10.446
39970SOL    HW121807  12.854   6.866  10.390
39970SOL    HW221808  12.765   6.746  10.417
39971SOL     OW21809  11.705  11.299  14.280
39971SOL    HW121810  11.633  11.349  14.242
39971SOL    HW221811  11.694  11.210  14.244
39972SOL     OW21812  11.801   5.658   8.275
39972SOL    HW121813  11.814   5.745   8.236
39972SOL    HW221814  11.844   5.598   8.215
39973SOL     OW21815   7.722   1.953   1.400
39973SOL    HW121816   7.722   1.923   1.309
39973SOL    HW221817   7.630   1.946   1.427
39974SOL     OW21818   7.927  10.190  12.848
39974SOL    HW121819   7.849  10.183  12.793
39974SOL    HW221820   7.896  10.172  12.937
39975SOL     OW21821   4.403  12.141   2.894
39975SOL    HW121822   4.332  12.166   2.835
39975SOL    HW221823   4.455  12.079   2.844
39976SOL     OW21824  13.643   7.418  12.614
39976SOL    HW121825  13.670   7.385  12.528
39976SOL    HW221826  13.635   7.512  12.602
39977SOL     OW21827  14.488   6.647  10.169
39977SOL    HW121828  14.470   6.729  10.215
39977SOL    HW221829  14.583   6.649  10.154
39978SOL     OW21830   2.159  10.250   7.228
39978SOL    HW121831   2.178  10.159   7.252
39978SOL    HW221832   2.220  10.302   7.280
39979SOL     OW21833  14.522  12.810   6.862
39979SOL    HW121834  14.548  12.751   6.791
39979SOL    HW221835  14.590  12.798   6.929
39980SOL     OW21836  11.554   1.986   3.265
39980SOL    HW121837  11.509   1.963   3.347
39980SOL    HW221838  11.644   2.003   3.292
39981SOL     OW21839   3.579   2.072   4.178
39981SOL    HW121840   3.583   2.166   4.162
39981SOL    HW221841   3.581   2.032   4.091
39982SOL     OW21842   9.219  13.367  12.627
39982SOL    HW121843   9.189  13.458  12.620
39982SOL    HW221844   9.315  13.374  12.620
39983SOL     OW21845   7.128  12.706   2.684
39983SOL    HW121846   7.212  12.736   2.718
39983SOL    HW221847   7.089  12.656   2.755
39984SOL     OW21848  14.180  14.367  10.114
39984SOL    HW121849  14.086  14.350  10.109
39984SOL    HW221850  14.214  14.334  10.031
39985SOL     OW21851  10.218   5.396  11.794
39985SOL    HW121852  10.244   5.326  11.854
39985SOL    HW221853  10.299   5.422  11.750
39986SOL     OW21854  13.132  13.731  14.026
39986SOL    HW121855  13.055  13.676  14.038
39986SOL    HW221856  13.206  13.671  14.032
39987SOL     OW21857  10.857   0.430   9.941
39987SOL    HW121858  10.780   0.471   9.901
39987SOL    HW221859  10.882   0.361   9.879
39988SOL     OW21860  12.912   8.478   1.467
39988SOL    HW121861  12.966   8.545   1.508
39988SOL    HW221862  12.840   8.527   1.426
39989SOL     OW21863  11.227   0.835  10.803
39989SOL    HW121864  11.213   0.741  10.819
39989SOL    HW221865  11.162   0.857  10.736
39990SOL     OW21866   9.555   1.882   1.426
39990SOL    HW121867   9.467   1.850   1.405
39990SOL    HW221868   9.578   1.835   1.506
39991SOL     OW21869  12.394   0.384   0.151
39991SOL    HW121870  12.485   0.370   0.177
39991SOL    HW221871  12.399   0.451   0.083
39992SOL     OW21872   9.564   5.099   8.524
39992SOL    HW121873   9.648   5.074   8.562
39992SOL    HW221874   9.553   5.040   8.449
39993SOL     OW21875   0.614   3.789  13.644
39993SOL    HW121876   0.618   3.738  13.725
39993SOL    HW221877   0.529   3.766  13.606
39994SOL     OW21878  13.034   5.630   2.857
39994SOL    HW121879  13.117   5.615   2.901
39994SOL    HW221880  13.054   5.621   2.764
39995SOL     OW21881   6.792  11.553  13.354
39995SOL    HW121882   6.855  11.526  13.287
39995SOL    HW221883   6.845  11.572  13.431
39996SOL     OW21884   7.053  12.618  12.980
39996SOL    HW121885   7.000  12.697  12.974
39996SOL    HW221886   7.131  12.645  13.029
39997SOL     OW21887   9.149   2.973   2.167
39997SOL    HW121888   9.220   3.037   2.180
39997SOL    HW221889   9.156   2.948   2.075
39998SOL     OW21890   7.535   6.017   9.371
39998SOL    HW121891   7.474   6.047   9.439
39998SOL    HW221892   7.519   6.075   9.297
39999SOL     OW21893  14.864   2.325   9.408
39999SOL    HW121894  14.871   2.398   9.469
39999SOL    HW221895   0.026   2.353   9.331
40000SOL     OW21896  13.191   8.203  10.411
40000SOL    HW121897  13.110   8.253  10.422
40000SOL    HW221898  13.198   8.152  10.492
40001SOL     OW21899   1.397   6.363  12.580
40001SOL    HW121900   1.419   6.320  12.662
40001SOL    HW221901   1.310   6.400  12.595
40002SOL     OW21902  10.168  12.935   1.833
40002SOL    HW121903  10.209  12.970   1.912
40002SOL    HW221904  10.097  12.880   1.865
40003SOL     OW21905   3.421   2.625   1.076
40003SOL    HW121906   3.475   2.548   1.059
40003SOL    HW221907   3.393   2.616   1.167
40004SOL     OW21908  11.869   7.855   0.401
40004SOL    HW121909  11.861   7.764   0.428
40004SOL    HW221910  11.864   7.852   0.305
40005SOL     OW21911   1.414  10.899   8.326
40005SOL    HW121912   1.457  10.983   8.314
40005SOL    HW221913   1.484  10.840   8.357
40006SOL     OW21914  11.160  12.302  11.192
40006SOL    HW121915  11.074  12.315  11.151
40006SOL    HW221916  11.141  12.276  11.282
40007SOL     OW21917   9.540  13.680   0.911
40007SOL    HW121918   9.542  13.662   0.817
40007SOL    HW221919   9.529  13.775   0.916
40008SOL     OW21920   1.789   6.563   5.254
40008SOL    HW121921   1.701   6.579   5.219
40008SOL    HW221922   1.780   6.483   5.306
40009SOL     OW21923   5.044   8.063  14.861
40009SOL    HW121924   4.983   8.045  14.789
40009SOL    HW221925   4.987   8.084   0.048
40010SOL     OW21926  13.226   8.417   0.444
40010SOL    HW121927  13.252   8.431   0.536
40010SOL    HW221928  13.300   8.369   0.406
40011SOL     OW21929  13.563   1.259   9.663
40011SOL    HW121930  13.474   1.275   9.632
40011SOL    HW221931  13.562   1.168   9.694
40012SOL     OW21932   9.535   3.150   5.533
40012SOL    HW121933   9.439   3.147   5.533
40012SOL    HW221934   9.557   3.214   5.601
40013SOL     OW21935   9.029   2.090   7.600
40013SOL    HW121936   9.107   2.144   7.589
40013SOL    HW221937   8.987   2.125   7.678
40014SOL     OW21938   4.366  10.256  14.112
40014SOL    HW121939   4.439  10.278  14.169
40014SOL    HW221940   4.312  10.195  14.163
40015SOL     OW21941   0.341   0.420   6.360
40015SOL    HW121942   0.408   0.355   6.385
40015SOL    HW221943   0.332   0.409   6.266
40016SOL     OW21944   9.874  13.687   3.398
40016SOL    HW121945   9.887  13.686   3.493
40016SOL    HW221946   9.894  13.598   3.370
40017SOL     OW21947   7.873   7.999   2.499
40017SOL    HW121948   7.836   7.942   2.566
40017SOL    HW221949   7.964   7.970   2.491
40018SOL     OW21950   8.942  11.243   0.413
40018SOL    HW121951   8.849  11.222   0.408
40018SOL    HW221952   8.969  11.254   0.322
40019SOL     OW21953  13.708   4.289   8.578
40019SOL    HW121954  13.716   4.280   8.483
40019SOL    HW221955  13.725   4.381   8.595
40020SOL     OW21956   3.847   9.390   9.101
40020SOL    HW121957   3.887   9.330   9.164
40020SOL    HW221958   3.921   9.422   9.049
40021SOL     OW21959   9.126   2.938   7.394
40021SOL    HW121960   9.202   2.881   7.399
40021SOL    HW221961   9.082   2.913   7.313
40022SOL     OW21962   0.841   6.018   8.612
40022SOL    HW121963   0.841   5.944   8.673
40022SOL    HW221964   0.788   6.085   8.656
40023SOL     OW21965  12.189   3.165  14.435
40023SOL    HW121966  12.157   3.075  14.448
40023SOL    HW221967  12.165   3.210  14.516
40024SOL     OW21968  11.634   9.329   2.509
40024SOL    HW121969  11.690   9.267   2.555
40024SOL    HW221970  11.550   9.322   2.554
40025SOL     OW21971  14.122   2.502  10.088
40025SOL    HW121972  14.175   2.519  10.011
40025SOL    HW221973  14.169   2.432  10.134
40026SOL     OW21974   1.175   3.126   4.137
40026SOL    HW121975   1.116   3.088   4.202
40026SOL    HW221976   1.131   3.111   4.053
40027SOL     OW21977  10.642  13.667  13.665
40027SOL    HW121978  10.585  13.600  13.704
40027SOL    HW221979  10.722  13.620  13.643
40028SOL     OW21980   2.417  14.877   6.205
40028SOL    HW121981   2.431   0.072   6.160
40028SOL    HW221982   2.505  14.845   6.225
40029SOL     OW21983   3.936   2.128   7.784
40029SOL    HW121984   4.006   2.062   7.782
40029SOL    HW221985   3.931   2.155   7.876
40030SOL     OW21986  11.732  13.053   3.765
40030SOL    HW121987  11.790  12.997   3.817
40030SOL    HW221988  11.674  13.093   3.830
40031SOL     OW21989   6.082   1.771  12.248
40031SOL    HW121990   6.156   1.740  12.300
40031SOL    HW221991   6.005   1.733  12.290
40032SOL     OW21992   8.739   6.735   8.824
40032SOL    HW121993   8.769   6.698   8.741
40032SOL    HW221994   8.708   6.823   8.800
40033SOL     OW21995  10.958  11.120  10.579
40033SOL    HW121996  10.892  11.180  10.544
40033SOL    HW221997  10.926  11.098  10.666
40034SOL     OW21998  14.368   2.077  12.914
40034SOL    HW121999  14.290   2.133  12.916
40034SOL    HW222000  14.435   2.128  12.959
40035SOL     OW22001   4.902   4.575   6.395
40035SOL    HW122002   4.941   4.497   6.433
40035SOL    HW222003   4.909   4.641   6.465
40036SOL     OW22004  12.138  13.872   0.074
40036SOL    HW122005  12.180  13.791   0.100
40036SOL    HW222006  12.130  13.922   0.155
40037SOL     OW22007  13.733   3.130  14.427
40037SOL    HW122008  13.654   3.117  14.374
40037SOL    HW222009  13.701   3.139  14.516
40038SOL     OW22010   0.497   3.599   1.818
40038SOL    HW122011   0.485   3.678   1.870
40038SOL    HW222012   0.585   3.609   1.780
40039SOL     OW22013   8.994  13.015  12.046
40039SOL    HW122014   9.063  13.077  12.026
40039SOL    HW222015   8.997  12.951  11.974
40040SOL     OW22016  11.540  10.985  11.639
40040SOL    HW122017  11.592  10.986  11.559
40040SOL    HW222018  11.450  10.982  11.609
40041SOL     OW22019  10.456   9.273   3.300
40041SOL    HW122020  10.368   9.275   3.338
40041SOL    HW222021  10.513   9.250   3.373
40042SOL     OW22022  13.637   2.239   5.486
40042SOL    HW122023  13.658   2.319   5.438
40042SOL    HW222024  13.544   2.247   5.507
40043SOL     OW22025   5.646   0.414  10.061
40043SOL    HW122026   5.558   0.429  10.025
40043SOL    HW222027   5.698   0.489  10.029
40044SOL     OW22028  13.375   7.999   5.889
40044SOL    HW122029  13.296   8.031   5.846
40044SOL    HW222030  13.346   7.922   5.937
40045SOL     OW22031   5.902  11.649   2.381
40045SOL    HW122032   5.951  11.724   2.347
40045SOL    HW222033   5.965  11.578   2.383
40046SOL     OW22034  11.209  10.381   2.882
40046SOL    HW122035  11.235  10.298   2.922
40046SOL    HW222036  11.151  10.421   2.947
40047SOL     OW22037   5.427  12.125   8.929
40047SOL    HW122038   5.447  12.212   8.964
40047SOL    HW222039   5.366  12.087   8.992
40048SOL     OW22040   1.675  11.519   1.048
40048SOL    HW122041   1.705  11.473   0.970
40048SOL    HW222042   1.752  11.522   1.105
40049SOL     OW22043  10.417  12.756   1.369
40049SOL    HW122044  10.430  12.678   1.424
40049SOL    HW222045  10.399  12.722   1.282
40050SOL     OW22046   4.756   2.945   4.556
40050SOL    HW122047   4.811   2.932   4.479
40050SOL    HW222048   4.783   2.877   4.617
40051SOL     OW22049   7.187   8.193   4.757
40051SOL    HW122050   7.137   8.268   4.790
40051SOL    HW222051   7.226   8.224   4.676
40052SOL     OW22052   9.211   3.054   9.320
40052SOL    HW122053   9.121   3.038   9.348
40052SOL    HW222054   9.251   3.099   9.395
40053SOL     OW22055   0.738  13.908  14.129
40053SOL    HW122056   0.735  13.813  14.114
40053SOL    HW222057   0.830  13.927  14.146
40054SOL     OW22058   3.720   3.689   4.617
40054SOL    HW122059   3.668   3.608   4.620
40054SOL    HW222060   3.668   3.749   4.563
40055SOL     OW22061  11.959  10.680   2.889
40055SOL    HW122062  11.923  10.700   2.976
40055SOL    HW222063  12.053  10.687   2.901
40056SOL     OW22064   5.222   1.593   3.125
40056SOL    HW122065   5.249   1.569   3.037
40056SOL    HW222066   5.274   1.671   3.145
40057SOL     OW22067  10.519   6.881  11.591
40057SOL    HW122068  10.497   6.954  11.648
40057SOL    HW222069  10.477   6.901  11.508
40058SOL     OW22070   9.831   7.478   0.424
40058SOL    HW122071   9.864   7.531   0.352
40058SOL    HW222072   9.811   7.393   0.384
40059SOL     OW22073  12.378   7.122   4.402
40059SOL    HW122074  12.332   7.173   4.469
40059SOL    HW222075  12.373   7.032   4.434
40060SOL     OW22076  14.430   9.948   2.241
40060SOL    HW122077  14.471  10.034   2.233
40060SOL    HW222078  14.503   9.886   2.237
40061SOL     OW22079  11.214  13.259  12.560
40061SOL    HW122080  11.184  13.174  12.592
40061SOL    HW222081  11.204  13.318  12.635
40062SOL     OW22082   2.829   6.255  11.768
40062SOL    HW122083   2.796   6.341  11.792
40062SOL    HW222084   2.904   6.240  11.826
40063SOL     OW22085   6.898  12.302   4.173
40063SOL    HW122086   6.919  12.234   4.238
40063SOL    HW222087   6.803  12.297   4.164
40064SOL     OW22088   7.746   6.981  13.599
40064SOL    HW122089   7.680   6.951  13.536
40064SOL    HW222090   7.790   6.901  13.627
40065SOL     OW22091   0.483   7.001   0.252
40065SOL    HW122092   0.523   7.023   0.336
40065SOL    HW222093   0.505   6.909   0.238
40066SOL     OW22094   4.289   4.273  12.278
40066SOL    HW122095   4.375   4.301  12.309
40066SOL    HW222096   4.265   4.199  12.333
40067SOL     OW22097   0.452  13.483  13.378
40067SOL    HW122098   0.392  13.487  13.304
40067SOL    HW222099   0.483  13.572  13.389
40068SOL     OW22100   0.508  11.088   4.309
40068SOL    HW122101   0.465  11.038   4.240
40068SOL    HW222102   0.552  11.022   4.363
40069SOL     OW22103  11.033   6.831   8.970
40069SOL    HW122104  10.938   6.845   8.973
40069SOL    HW222105  11.065   6.864   9.054
40070SOL     OW22106  10.496  13.921  13.303
40070SOL    HW122107  10.444  13.998  13.328
40070SOL    HW222108  10.542  13.897  13.383
40071SOL     OW22109  12.633  12.763   4.160
40071SOL    HW122110  12.578  12.827   4.116
40071SOL    HW222111  12.677  12.716   4.089
40072SOL     OW22112   2.282   0.836   0.686
40072SOL    HW122113   2.280   0.859   0.779
40072SOL    HW222114   2.198   0.867   0.653
40073SOL     OW22115   4.286   1.560   2.888
40073SOL    HW122116   4.271   1.651   2.863
40073SOL    HW222117   4.200   1.527   2.912
40074SOL     OW22118   1.025   7.451   0.190
40074SOL    HW122119   1.016   7.463   0.285
40074SOL    HW222120   1.109   7.405   0.180
40075SOL     OW22121   1.959   9.717  11.699
40075SOL    HW122122   1.866   9.706  11.718
40075SOL    HW222123   1.964   9.802  11.654
40076SOL     OW22124   4.834  10.663   2.901
40076SOL    HW122125   4.780  10.624   2.970
40076SOL    HW222126   4.778  10.728   2.860
40077SOL     OW22127  12.637   4.241  12.986
40077SOL    HW122128  12.555   4.193  12.984
40077SOL    HW222129  12.670   4.229  13.075
40078SOL     OW22130  10.876  14.456   1.599
40078SOL    HW122131  10.903  14.396   1.668
40078SOL    HW222132  10.936  14.531   1.606
40079SOL     OW22133   4.296   9.609  12.735
40079SOL    HW122134   4.380   9.629  12.693
40079SOL    HW222135   4.319   9.587  12.825
40080SOL     OW22136  13.565  10.967  11.458
40080SOL    HW122137  13.562  10.877  11.424
40080SOL    HW222138  13.630  11.010  11.402
40081SOL     OW22139   0.989  10.426   4.329
40081SOL    HW122140   0.895  10.411   4.325
40081SOL    HW222141   1.010  10.471   4.248
40082SOL     OW22142  13.207   4.876  11.524
40082SOL    HW122143  13.213   4.875  11.620
40082SOL    HW222144  13.206   4.969  11.501
40083SOL     OW22145   8.559   0.463  12.404
40083SOL    HW122146   8.496   0.522  12.363
40083SOL    HW222147   8.527   0.452  12.493
40084SOL     OW22148  11.296  13.207   2.009
40084SOL    HW122149  11.297  13.289   2.059
40084SOL    HW222150  11.344  13.145   2.063
40085SOL     OW22151  14.835   4.070  13.917
40085SOL    HW122152  14.859   4.071  13.824
40085SOL    HW222153  14.850   3.979  13.944
40086SOL     OW22154  10.945   4.232   2.207
40086SOL    HW122155  10.974   4.178   2.280
40086SOL    HW222156  11.026   4.260   2.164
40087SOL     OW22157   4.077   2.655  12.221
40087SOL    HW122158   4.150   2.715  12.238
40087SOL    HW222159   3.999   2.710  12.229
40088SOL     OW22160   0.205   4.569   9.542
40088SOL    HW122161   0.185   4.512   9.616
40088SOL    HW222162   0.207   4.657   9.580
40089SOL     OW22163   0.681   3.842   7.877
40089SOL    HW122164   0.589   3.821   7.891
40089SOL    HW222165   0.715   3.769   7.825
40090SOL     OW22166   1.870   6.152  12.849
40090SOL    HW122167   1.912   6.139  12.935
40090SOL    HW222168   1.791   6.099  12.852
40091SOL     OW22169  12.927   2.410   4.528
40091SOL    HW122170  12.979   2.464   4.587
40091SOL    HW222171  12.854   2.380   4.583
40092SOL     OW22172   2.917  12.638   4.466
40092SOL    HW122173   2.940  12.597   4.383
40092SOL    HW222174   2.919  12.567   4.530
40093SOL     OW22175   8.870   6.609   5.873
40093SOL    HW122176   8.824   6.691   5.857
40093SOL    HW222177   8.843   6.583   5.961
40094SOL     OW22178   2.992  11.925   7.818
40094SOL    HW122179   2.980  11.923   7.723
40094SOL    HW222180   3.066  11.983   7.831
40095SOL     OW22181  10.035  11.703  10.229
40095SOL    HW122182  10.029  11.686  10.323
40095SOL    HW222183  10.053  11.797  10.223
40096SOL     OW22184   4.470  14.165   1.186
40096SOL    HW122185   4.418  14.087   1.206
40096SOL    HW222186   4.438  14.193   1.100
40097SOL     OW22187   0.824   2.422   0.591
40097SOL    HW122188   0.764   2.350   0.608
40097SOL    HW222189   0.826   2.472   0.673
40098SOL     OW22190  12.741  11.249  14.702
40098SOL    HW122191  12.677  11.179  14.685
40098SOL    HW222192  12.750  11.250  14.797
40099SOL     OW22193   0.443  13.810   8.602
40099SOL    HW122194   0.402  13.742   8.657
40099SOL    HW222195   0.384  13.818   8.527
40100SOL     OW22196   7.702  11.376   7.098
40100SOL    HW122197   7.788  11.340   7.074
40100SOL    HW222198   7.693  11.358   7.191
40101SOL     OW22199  14.488  14.759  14.472
40101SOL    HW122200  14.500  14.852  14.491
40101SOL    HW222201  14.393  14.745  14.478
40102SOL     OW22202  14.634  10.939  10.837
40102SOL    HW122203  14.582  10.889  10.900
40102SOL    HW222204  14.725  10.919  10.859
40103SOL     OW22205   7.402   0.359   8.156
40103SOL    HW122206   7.403   0.455   8.162
40103SOL    HW222207   7.485   0.332   8.196
40104SOL     OW22208  12.366   8.031   4.090
40104SOL    HW122209  12.366   8.102   4.026
40104SOL    HW222210  12.385   8.074   4.173
40105SOL     OW22211  10.661  10.812   4.816
40105SOL    HW122212  10.653  10.886   4.876
40105SOL    HW222213  10.669  10.736   4.873
40106SOL     OW22214   3.779  13.452   1.303
40106SOL    HW122215   3.810  13.369   1.338
40106SOL    HW222216   3.685  13.438   1.289
40107SOL     OW22217  10.057   2.785   9.005
40107SOL    HW122218  10.092   2.762   8.919
40107SOL    HW222219  10.064   2.704   9.056
40108SOL     OW22220  11.459   3.653   8.212
40108SOL    HW122221  11.415   3.570   8.194
40108SOL    HW222222  11.537   3.652   8.157
40109SOL     OW22223  12.309   8.593  13.161
40109SOL    HW122224  12.315   8.576  13.255
40109SOL    HW222225  12.215   8.606  13.146
40110SOL     OW22226   5.249   7.310   2.062
40110SOL    HW122227   5.272   7.401   2.081
40110SOL    HW222228   5.286   7.260   2.135
40111SOL     OW22229   7.058  10.432   8.957
40111SOL    HW122230   7.133  10.487   8.978
40111SOL    HW222231   7.056  10.367   9.028
40112SOL     OW22232   5.677   0.564   2.090
40112SOL    HW122233   5.704   0.504   2.021
40112SOL    HW222234   5.587   0.588   2.067
40113SOL     OW22235  13.209   4.936   0.572
40113SOL    HW122236  13.300   4.965   0.577
40113SOL    HW222237  13.159   5.016   0.558
40114SOL     OW22238  14.088   2.848   5.042
40114SOL    HW122239  14.122   2.928   5.002
40114SOL    HW222240  14.000   2.839   5.006
40115SOL     OW22241  11.463  13.696  10.168
40115SOL    HW122242  11.371  13.723  10.162
40115SOL    HW222243  11.460  13.616  10.221
40116SOL     OW22244   2.997   3.562   2.882
40116SOL    HW122245   3.092   3.563   2.870
40116SOL    HW222246   2.962   3.568   2.793
40117SOL     OW22247  14.792   4.383   3.633
40117SOL    HW122248  14.766   4.434   3.557
40117SOL    HW222249  14.887   4.374   3.626
40118SOL     OW22250   8.301   0.775   5.167
40118SOL    HW122251   8.254   0.814   5.094
40118SOL    HW222252   8.255   0.805   5.245
40119SOL     OW22253   7.387  11.037   2.316
40119SOL    HW122254   7.390  11.103   2.246
40119SOL    HW222255   7.303  11.052   2.359
40120SOL     OW22256  13.049   6.732   9.770
40120SOL    HW122257  13.035   6.643   9.802
40120SOL    HW222258  13.141   6.734   9.745
40121SOL     OW22259   0.474   5.496   3.350
40121SOL    HW122260   0.444   5.556   3.418
40121SOL    HW222261   0.441   5.410   3.377
40122SOL     OW22262   8.741   6.272   7.036
40122SOL    HW122263   8.790   6.208   6.985
40122SOL    HW222264   8.736   6.349   6.979
40123SOL     OW22265  14.047   4.313   3.136
40123SOL    HW122266  13.982   4.339   3.201
40123SOL    HW222267  14.026   4.221   3.118
40124SOL     OW22268   0.728  10.330  10.622
40124SOL    HW122269   0.701  10.265  10.687
40124SOL    HW222270   0.649  10.382  10.607
40125SOL     OW22271   0.107   5.894   9.906
40125SOL    HW122272   0.136   5.832   9.973
40125SOL    HW222273   0.088   5.974   9.954
40126SOL     OW22274   1.869   3.617   2.753
40126SOL    HW122275   1.850   3.581   2.839
40126SOL    HW222276   1.906   3.544   2.704
40127SOL     OW22277  13.869  11.743  14.002
40127SOL    HW122278  13.954  11.780  14.027
40127SOL    HW222279  13.825  11.729  14.086
40128SOL     OW22280   3.941  10.659  13.847
40128SOL    HW122281   3.879  10.705  13.904
40128SOL    HW222282   4.028  10.685  13.880
40129SOL     OW22283  13.616   2.221   2.490
40129SOL    HW122284  13.620   2.312   2.519
40129SOL    HW222285  13.633   2.224   2.396
40130SOL     OW22286   2.967   3.513  12.870
40130SOL    HW122287   2.876   3.522  12.842
40130SOL    HW222288   3.018   3.515  12.790
40131SOL     OW22289  12.402   2.582  14.683
40131SOL    HW122290  12.321   2.633  14.688
40131SOL    HW222291  12.375   2.492  14.700
40132SOL     OW22292   0.035   0.115  12.668
40132SOL    HW122293  14.849   0.147  12.720
40132SOL    HW222294  14.882   0.085  12.587
40133SOL     OW22295   1.560   8.833   0.806
40133SOL    HW122296   1.510   8.766   0.851
40133SOL    HW222297   1.651   8.803   0.810
40134SOL     OW22298  12.302   4.826   0.628
40134SOL    HW122299  12.286   4.734   0.607
40134SOL    HW222300  12.331   4.825   0.719
40135SOL     OW22301   1.602   4.439   3.973
40135SOL    HW122302   1.556   4.462   4.054
40135SOL    HW222303   1.683   4.398   4.002
40136SOL     OW22304  12.576  12.169   8.201
40136SOL    HW122305  12.588  12.262   8.224
40136SOL    HW222306  12.608  12.121   8.276
40137SOL     OW22307   0.274   1.405   6.269
40137SOL    HW122308   0.246   1.324   6.228
40137SOL    HW222309   0.370   1.402   6.266
40138SOL     OW22310   5.724   9.817   9.124
40138SOL    HW122311   5.647   9.859   9.162
40138SOL    HW222312   5.723   9.843   9.032
40139SOL     OW22313  13.251   4.582   7.445
40139SOL    HW122314  13.334   4.564   7.401
40139SOL    HW222315  13.214   4.655   7.396
40140SOL     OW22316  13.213  13.257   7.046
40140SOL    HW122317  13.199  13.282   6.955
40140SOL    HW222318  13.149  13.187   7.063
40141SOL     OW22319   6.527   0.384   6.777
40141SOL    HW122320   6.582   0.309   6.754
40141SOL    HW222321   6.437   0.351   6.773
40142SOL     OW22322   1.715   4.675  14.452
40142SOL    HW122323   1.629   4.712  14.475
40142SOL    HW222324   1.723   4.690  14.358
40143SOL     OW22325  14.034   2.736  13.809
40143SOL    HW122326  14.026   2.734  13.713
40143SOL    HW222327  14.100   2.669  13.829
40144SOL     OW22328   2.247   1.866  14.259
40144SOL    HW122329   2.225   1.924  14.332
40144SOL    HW222330   2.233   1.778  14.294
40145SOL     OW22331  14.229  14.617  13.278
40145SOL    HW122332  14.181  14.564  13.214
40145SOL    HW222333  14.170  14.690  13.298
40146SOL     OW22334  12.864   1.753  12.885
40146SOL    HW122335  12.863   1.754  12.789
40146SOL    HW222336  12.930   1.687  12.908
40147SOL     OW22337  12.897   7.344   9.281
40147SOL    HW122338  12.968   7.394   9.322
40147SOL    HW222339  12.870   7.398   9.208
40148SOL     OW22340   1.633  13.900   3.764
40148SOL    HW122341   1.545  13.920   3.797
40148SOL    HW222342   1.674  13.851   3.835
40149SOL     OW22343   1.023  10.727   0.996
40149SOL    HW122344   1.099  10.759   1.045
40149SOL    HW222345   0.953  10.788   1.018
40150SOL     OW22346   7.133   6.148   7.582
40150SOL    HW122347   7.151   6.063   7.540
40150SOL    HW222348   7.216   6.194   7.580
40151SOL     OW22349   1.013   7.773   8.555
40151SOL    HW122350   1.015   7.728   8.470
40151SOL    HW222351   1.026   7.865   8.534
40152SOL     OW22352  14.649   7.569  11.476
40152SOL    HW122353  14.558   7.588  11.495
40152SOL    HW222354  14.672   7.495  11.533
40153SOL     OW22355   7.519   6.410  13.241
40153SOL    HW122356   7.497   6.384  13.152
40153SOL    HW222357   7.572   6.338  13.274
40154SOL     OW22358   3.179   1.296   6.163
40154SOL    HW122359   3.088   1.312   6.136
40154SOL    HW222360   3.205   1.377   6.207
40155SOL     OW22361  13.378  14.386   0.477
40155SOL    HW122362  13.449  14.408   0.538
40155SOL    HW222363  13.332  14.313   0.520
40156SOL     OW22364   1.863   2.037  11.145
40156SOL    HW122365   1.853   1.992  11.061
40156SOL    HW222366   1.956   2.027  11.166
40157SOL     OW22367   3.790   7.183   1.038
40157SOL    HW122368   3.862   7.139   0.991
40157SOL    HW222369   3.788   7.271   1.000
40158SOL     OW22370   9.251  11.565  14.748
40158SOL    HW122371   9.159  11.584  14.768
40158SOL    HW222372   9.286  11.649  14.718
40159SOL     OW22373  13.375   3.243  13.129
40159SOL    HW122374  13.423   3.195  13.197
40159SOL    HW222375  13.298   3.188  13.112
40160SOL     OW22376  14.171   3.456   8.265
40160SOL    HW122377  14.149   3.363   8.266
40160SOL    HW222378  14.097   3.498   8.221
40161SOL     OW22379  10.451   4.212   0.154
40161SOL    HW122380  10.449   4.136   0.097
40161SOL    HW222381  10.535   4.254   0.136
40162SOL     OW22382  12.687  13.929  12.822
40162SOL    HW122383  12.711  13.906  12.911
40162SOL    HW222384  12.674  14.024  12.823
40163SOL     OW22385   8.830   8.713   9.945
40163SOL    HW122386   8.807   8.774  10.016
40163SOL    HW222387   8.811   8.761   9.865
40164SOL     OW22388  14.106   6.434  11.363
40164SOL    HW122389  14.074   6.359  11.312
40164SOL    HW222390  14.052   6.435  11.441
40165SOL     OW22391   2.565   2.621  10.818
40165SOL    HW122392   2.611   2.654  10.741
40165SOL    HW222393   2.494   2.568  10.783
40166SOL     OW22394  10.353   6.480   9.600
40166SOL    HW122395  10.395   6.467   9.515
40166SOL    HW222396  10.299   6.402   9.612
40167SOL     OW22397   4.312  13.353   5.153
40167SOL    HW122398   4.357  13.319   5.231
40167SOL    HW222399   4.223  13.370   5.183
40168SOL     OW22400   0.899   2.221  12.899
40168SOL    HW122401   0.898   2.292  12.963
40168SOL    HW222402   0.975   2.239  12.844
40169SOL     OW22403   1.833   6.754   6.773
40169SOL    HW122404   1.827   6.791   6.685
40169SOL    HW222405   1.884   6.673   6.761
40170SOL     OW22406  14.306  10.126  11.351
40170SOL    HW122407  14.363  10.124  11.428
40170SOL    HW222408  14.218  10.116  11.387
40171SOL     OW22409   1.906  13.142   7.680
40171SOL    HW122410   1.993  13.180   7.668
40171SOL    HW222411   1.914  13.053   7.645
40172SOL     OW22412   5.513  10.277   1.233
40172SOL    HW122413   5.494  10.215   1.304
40172SOL    HW222414   5.593  10.322   1.260
40173SOL     OW22415   0.457   3.933   0.150
40173SOL    HW122416   0.436   4.027   0.146
40173SOL    HW222417   0.448   3.910   0.242
40174SOL     OW22418   9.088  12.446   8.931
40174SOL    HW122419   9.075  12.525   8.878
40174SOL    HW222420   9.123  12.381   8.870
40175SOL     OW22421   2.522   3.230  12.648
40175SOL    HW122422   2.577   3.281  12.707
40175SOL    HW222423   2.579   3.209  12.574
40176SOL     OW22424   3.319   1.430   9.365
40176SOL    HW122425   3.321   1.401   9.274
40176SOL    HW222426   3.230   1.410   9.394
40177SOL     OW22427   6.358   6.797  10.854
40177SOL    HW122428   6.379   6.703  10.855
40177SOL    HW222429   6.288   6.805  10.919
40178SOL     OW22430  11.996   9.669   6.580
40178SOL    HW122431  12.012   9.731   6.652
40178SOL    HW222432  12.049   9.592   6.603
40179SOL     OW22433   1.291  10.495  13.583
40179SOL    HW122434   1.277  10.460  13.671
40179SOL    HW222435   1.365  10.555  13.593
40180SOL     OW22436   5.936  13.053   3.399
40180SOL    HW122437   5.857  13.041   3.452
40180SOL    HW222438   6.008  13.034   3.460
40181SOL     OW22439   5.573   3.920   2.912
40181SOL    HW122440   5.604   3.884   2.829
40181SOL    HW222441   5.553   3.843   2.966
40182SOL     OW22442  12.620  12.140  10.587
40182SOL    HW122443  12.676  12.184  10.651
40182SOL    HW222444  12.568  12.211  10.547
40183SOL     OW22445   2.947  11.756  12.602
40183SOL    HW122446   2.920  11.848  12.593
40183SOL    HW222447   3.042  11.759  12.596
40184SOL     OW22448   6.263   7.253   3.826
40184SOL    HW122449   6.229   7.214   3.906
40184SOL    HW222450   6.357   7.263   3.842
40185SOL     OW22451  12.303   3.930   4.899
40185SOL    HW122452  12.228   3.916   4.956
40185SOL    HW222453  12.350   4.003   4.939
40186SOL     OW22454   7.260   0.015   4.631
40186SOL    HW122455   7.319  14.835   4.663
40186SOL    HW222456   7.204  14.857   4.568
40187SOL     OW22457   8.595   1.649  13.925
40187SOL    HW122458   8.563   1.671  13.837
40187SOL    HW222459   8.653   1.574  13.912
40188SOL     OW22460  11.272  14.291   8.677
40188SOL    HW122461  11.303  14.202   8.660
40188SOL    HW222462  11.202  14.304   8.613
40189SOL     OW22463  10.080   0.513   2.272
40189SOL    HW122464  10.113   0.431   2.236
40189SOL    HW222465  10.157   0.569   2.282
40190SOL     OW22466   2.611   6.277   1.429
40190SOL    HW122467   2.701   6.296   1.456
40190SOL    HW222468   2.557   6.307   1.502
40191SOL     OW22469   0.366   3.958   2.600
40191SOL    HW122470   0.391   3.869   2.626
40191SOL    HW222471   0.277   3.969   2.635
40192SOL     OW22472   8.501   5.178   3.185
40192SOL    HW122473   8.482   5.164   3.278
40192SOL    HW222474   8.572   5.242   3.184
40193SOL     OW22475   7.899   1.943  11.215
40193SOL    HW122476   7.989   1.953  11.245
40193SOL    HW222477   7.858   1.888  11.282
40194SOL     OW22478   6.941   5.857   6.530
40194SOL    HW122479   6.903   5.933   6.574
40194SOL    HW222480   6.900   5.856   6.444
40195SOL     OW22481   9.362   7.864   5.131
40195SOL    HW122482   9.325   7.952   5.142
40195SOL    HW222483   9.332   7.836   5.045
40196SOL     OW22484   4.427   0.881   8.671
40196SOL    HW122485   4.340   0.842   8.674
40196SOL    HW222486   4.448   0.886   8.578
40197SOL     OW22487  13.538   2.123   0.633
40197SOL    HW122488  13.590   2.143   0.711
40197SOL    HW222489  13.595   2.066   0.581
40198SOL     OW22490  13.295   2.369   5.483
40198SOL    HW122491  13.304   2.314   5.561
40198SOL    HW222492  13.205   2.400   5.487
40199SOL     OW22493  13.375  11.597   2.865
40199SOL    HW122494  13.421  11.667   2.912
40199SOL    HW222495  13.282  11.613   2.882
40200SOL     OW22496   3.493   6.275  12.606
40200SOL    HW122497   3.517   6.243  12.694
40200SOL    HW222498   3.571   6.321  12.576
40201SOL     OW22499   2.382   7.147   6.683
40201SOL    HW122500   2.342   7.233   6.674
40201SOL    HW222501   2.421   7.147   6.771
40202SOL     OW22502  12.429  13.152  14.789
40202SOL    HW122503  12.430  13.245  14.812
40202SOL    HW222504  12.462  13.149  14.700
40203SOL     OW22505   1.515  14.437   9.400
40203SOL    HW122506   1.491  14.351   9.365
40203SOL    HW222507   1.525  14.422   9.494
40204SOL     OW22508   2.843  14.089  14.480
40204SOL    HW122509   2.915  14.032  14.453
40204SOL    HW222510   2.771  14.065  14.422
40205SOL     OW22511  14.206   2.136  10.981
40205SOL    HW122512  14.212   2.103  11.070
40205SOL    HW222513  14.207   2.232  10.991
40206SOL     OW22514   1.252   7.985  10.073
40206SOL    HW122515   1.184   8.021  10.015
40206SOL    HW222516   1.205   7.962  10.153
40207SOL     OW22517   1.165  14.518   6.990
40207SOL    HW122518   1.108  14.575   7.042
40207SOL    HW222519   1.187  14.446   7.050
40208SOL     OW22520  14.595   8.036   9.586
40208SOL    HW122521  14.522   8.092   9.560
40208SOL    HW222522  14.658   8.042   9.514
40209SOL     OW22523   1.393   2.075   0.670
40209SOL    HW122524   1.356   2.063   0.758
40209SOL    HW222525   1.321   2.108   0.617
40210SOL     OW22526   2.594   5.780  12.711
40210SOL    HW122527   2.550   5.788  12.627
40210SOL    HW222528   2.549   5.707  12.754
40211SOL     OW22529  14.676  10.065   5.565
40211SOL    HW122530  14.680  10.102   5.654
40211SOL    HW222531  14.680   9.970   5.578
40212SOL     OW22532  13.185   8.793   7.629
40212SOL    HW122533  13.273   8.830   7.618
40212SOL    HW222534  13.194   8.703   7.597
40213SOL     OW22535   3.101   6.218   5.560
40213SOL    HW122536   3.052   6.298   5.542
40213SOL    HW222537   3.058   6.151   5.507
40214SOL     OW22538   7.561   8.796   0.333
40214SOL    HW122539   7.616   8.874   0.323
40214SOL    HW222540   7.604   8.746   0.403
40215SOL     OW22541  11.141   3.638   9.247
40215SOL    HW122542  11.055   3.638   9.206
40215SOL    HW222543  11.190   3.706   9.200
40216SOL     OW22544   5.481   8.042  12.206
40216SOL    HW122545   5.438   8.127  12.203
40216SOL    HW222546   5.421   7.983  12.161
40217SOL     OW22547  14.088  11.067   4.997
40217SOL    HW122548  14.026  11.015   4.945
40217SOL    HW222549  14.046  11.074   5.083
40218SOL     OW22550  14.628   5.680   7.922
40218SOL    HW122551  14.553   5.732   7.894
40218SOL    HW222552  14.606   5.590   7.897
40219SOL     OW22553  14.203   6.657   4.695
40219SOL    HW122554  14.185   6.653   4.789
40219SOL    HW222555  14.123   6.625   4.653
40220SOL     OW22556   0.579   6.316  14.372
40220SOL    HW122557   0.628   6.310  14.454
40220SOL    HW222558   0.496   6.271  14.391
40221SOL     OW22559  14.561  11.863   2.194
40221SOL    HW122560  14.558  11.920   2.117
40221SOL    HW222561  14.602  11.916   2.262
40222SOL     OW22562   3.520   2.632  13.450
40222SOL    HW122563   3.492   2.571  13.517
40222SOL    HW222564   3.450   2.698  13.447
40223SOL     OW22565   1.041  10.492   6.574
40223SOL    HW122566   1.004  10.434   6.508
40223SOL    HW222567   0.994  10.470   6.655
40224SOL     OW22568   2.660   0.171   3.510
40224SOL    HW122569   2.693   0.098   3.457
40224SOL    HW222570   2.569   0.183   3.482
40225SOL     OW22571   9.452   0.404   0.007
40225SOL    HW122572   9.545   0.393   0.027
40225SOL    HW222573   9.434   0.338  14.828
40226SOL     OW22574   2.999   9.461   1.544
40226SOL    HW122575   3.075   9.403   1.552
40226SOL    HW222576   2.965   9.468   1.633
40227SOL     OW22577  13.001   2.650   3.607
40227SOL    HW122578  12.979   2.725   3.662
40227SOL    HW222579  13.091   2.627   3.632
40228SOL     OW22580   2.698  11.906   0.779
40228SOL    HW122581   2.750  11.987   0.782
40228SOL    HW222582   2.757  11.841   0.740
40229SOL     OW22583   5.826   9.285   1.720
40229SOL    HW122584   5.899   9.264   1.663
40229SOL    HW222585   5.861   9.349   1.782
40230SOL     OW22586   6.349  13.646   2.093
40230SOL    HW122587   6.438  13.611   2.092
40230SOL    HW222588   6.349  13.712   2.161
40231SOL     OW22589  13.742   8.050   4.183
40231SOL    HW122590  13.806   8.009   4.125
40231SOL    HW222591  13.793   8.112   4.235
40232SOL     OW22592   7.743  13.701   2.407
40232SOL    HW122593   7.832  13.671   2.424
40232SOL    HW222594   7.740  13.715   2.312
40233SOL     OW22595   4.325  10.429   2.531
40233SOL    HW122596   4.359  10.516   2.550
40233SOL    HW222597   4.317  10.387   2.617
40234SOL     OW22598   1.610  10.240   1.782
40234SOL    HW122599   1.527  10.220   1.825
40234SOL    HW222600   1.674  10.186   1.827
40235SOL     OW22601   0.757   3.624   2.341
40235SOL    HW122602   0.679   3.674   2.319
40235SOL    HW222603   0.736   3.534   2.316
40236SOL     OW22604   6.858  10.330  10.899
40236SOL    HW122605   6.919  10.397  10.867
40236SOL    HW222606   6.781  10.379  10.926
40237SOL     OW22607   5.176  13.694  11.480
40237SOL    HW122608   5.209  13.605  11.468
40237SOL    HW222609   5.252  13.743  11.512
40238SOL     OW22610   0.891   4.558   8.832
40238SOL    HW122611   0.945   4.633   8.808
40238SOL    HW222612   0.801   4.586   8.812
40239SOL     OW22613  12.982  13.142   7.754
40239SOL    HW122614  13.003  13.066   7.700
40239SOL    HW222615  13.024  13.216   7.710
40240SOL     OW22616  12.783  10.419   4.306
40240SOL    HW122617  12.842  10.464   4.366
40240SOL    HW222618  12.840  10.382   4.239
40241SOL     OW22619   8.627   6.476   0.534
40241SOL    HW122620   8.679   6.528   0.473
40241SOL    HW222621   8.651   6.510   0.621
40242SOL     OW22622   9.528   8.406   1.905
40242SOL    HW122623   9.552   8.365   1.822
40242SOL    HW222624   9.512   8.334   1.965
40243SOL     OW22625   7.795   7.772   7.335
40243SOL    HW122626   7.877   7.801   7.375
40243SOL    HW222627   7.758   7.712   7.399
40244SOL     OW22628  14.794  10.004   7.681
40244SOL    HW122629  14.829  10.083   7.640
40244SOL    HW222630  14.832   9.931   7.632
40245SOL     OW22631   2.110  10.105   4.052
40245SOL    HW122632   2.154  10.106   3.967
40245SOL    HW222633   2.096  10.197   4.073
40246SOL     OW22634  14.639   5.499  13.465
40246SOL    HW122635  14.581   5.480  13.538
40246SOL    HW222636  14.676   5.585  13.485
40247SOL     OW22637   2.398   8.085   5.030
40247SOL    HW122638   2.404   7.993   5.054
40247SOL    HW222639   2.338   8.087   4.956
40248SOL     OW22640   3.332  13.369   3.249
40248SOL    HW122641   3.246  13.336   3.276
40248SOL    HW222642   3.364  13.416   3.326
40249SOL     OW22643   0.561   0.267   1.113
40249SOL    HW122644   0.608   0.214   1.049
40249SOL    HW222645   0.566   0.356   1.079
40250SOL     OW22646   1.586   2.331   4.317
40250SOL    HW122647   1.637   2.327   4.236
40250SOL    HW222648   1.500   2.362   4.290
40251SOL     OW22649   5.068   6.016  10.328
40251SOL    HW122650   5.086   5.950  10.261
40251SOL    HW222651   5.093   6.099  10.288
40252SOL     OW22652  12.005   5.573  12.432
40252SOL    HW122653  11.987   5.507  12.366
40252SOL    HW222654  12.030   5.522  12.510
40253SOL     OW22655   1.940   8.279   4.189
40253SOL    HW122656   1.978   8.364   4.212
40253SOL    HW222657   2.016   8.226   4.164
40254SOL     OW22658   0.296   4.336  13.242
40254SOL    HW122659   0.335   4.261  13.288
40254SOL    HW222660   0.247   4.382  13.310
40255SOL     OW22661   3.241  12.946   2.212
40255SOL    HW122662   3.155  12.968   2.248
40255SOL    HW222663   3.230  12.858   2.177
40256SOL     OW22664   0.218  11.949   8.041
40256SOL    HW122665   0.267  11.968   8.121
40256SOL    HW222666   0.127  11.968   8.064
40257SOL     OW22667   4.269  10.646   0.521
40257SOL    HW122668   4.218  10.677   0.446
40257SOL    HW222669   4.210  10.657   0.596
40258SOL     OW22670   4.225  11.269  11.155
40258SOL    HW122671   4.138  11.235  11.133
40258SOL    HW222672   4.219  11.363  11.137
40259SOL     OW22673   8.788   7.537   5.458
40259SOL    HW122674   8.707   7.564   5.502
40259SOL    HW222675   8.854   7.599   5.487
40260SOL     OW22676   6.413   3.423   6.902
40260SOL    HW122677   6.474   3.381   6.841
40260SOL    HW222678   6.356   3.352   6.932
40261SOL     OW22679  13.625   0.039   7.678
40261SOL    HW122680  13.615  14.839   7.639
40261SOL    HW222681  13.538   0.059   7.714
40262SOL     OW22682   7.396   9.946  13.566
40262SOL    HW122683   7.367  10.035  13.551
40262SOL    HW222684   7.342   9.915  13.639
40263SOL     OW22685   0.132   5.956   7.629
40263SOL    HW122686   0.204   5.918   7.579
40263SOL    HW222687   0.057   5.899   7.611
40264SOL     OW22688   9.164  14.401   7.579
40264SOL    HW122689   9.247  14.440   7.550
40264SOL    HW222690   9.140  14.341   7.508
40265SOL     OW22691  10.238  10.632   0.155
40265SOL    HW122692  10.154  10.672   0.173
40265SOL    HW222693  10.237  10.549   0.202
40266SOL     OW22694   0.752  12.658   2.583
40266SOL    HW122695   0.835  12.614   2.603
40266SOL    HW222696   0.763  12.688   2.493
40267SOL     OW22697   5.355   0.976   0.243
40267SOL    HW122698   5.364   1.036   0.317
40267SOL    HW222699   5.350   1.032   0.166
40268SOL     OW22700   6.374   7.657  11.749
40268SOL    HW122701   6.324   7.576  11.759
40268SOL    HW222702   6.451   7.644  11.804
40269SOL     OW22703   1.217  11.921  11.865
40269SOL    HW122704   1.136  11.930  11.916
40269SOL    HW222705   1.195  11.956  11.778
40270SOL     OW22706   6.502   8.646   7.470
40270SOL    HW122707   6.565   8.584   7.433
40270SOL    HW222708   6.465   8.601   7.546
40271SOL     OW22709   4.567   7.106   7.054
40271SOL    HW122710   4.618   7.186   7.048
40271SOL    HW222711   4.529   7.108   7.142
40272SOL     OW22712  11.268  10.387   8.056
40272SOL    HW122713  11.338  10.328   8.029
40272SOL    HW222714  11.199  10.376   7.990
40273SOL     OW22715   0.838   0.240  10.953
40273SOL    HW122716   0.887   0.165  10.921
40273SOL    HW222717   0.811   0.287  10.874
40274SOL     OW22718   3.311   6.951   0.111
40274SOL    HW122719   3.288   7.009   0.039
40274SOL    HW222720   3.399   6.979   0.137
40275SOL     OW22721  10.497   4.813   3.664
40275SOL    HW122722  10.470   4.822   3.756
40275SOL    HW222723  10.576   4.865   3.657
40276SOL     OW22724  12.441   0.184  10.583
40276SOL    HW122725  12.369   0.122  10.580
40276SOL    HW222726  12.504   0.152  10.518
40277SOL     OW22727   5.820  10.425   5.393
40277SOL    HW122728   5.797  10.389   5.307
40277SOL    HW222729   5.817  10.350   5.452
40278SOL     OW22730  13.552  13.747  10.597
40278SOL    HW122731  13.491  13.759  10.524
40278SOL    HW222732  13.501  13.700  10.663
40279SOL     OW22733   9.496  14.329   2.543
40279SOL    HW122734   9.515  14.257   2.603
40279SOL    HW222735   9.582  14.355   2.510
40280SOL     OW22736  11.958  11.876   5.520
40280SOL    HW122737  12.044  11.836   5.532
40280SOL    HW222738  11.896  11.805   5.535
40281SOL     OW22739  14.424   5.043   7.093
40281SOL    HW122740  14.377   5.002   7.166
40281SOL    HW222741  14.502   4.989   7.082
40282SOL     OW22742   5.995   7.208  14.736
40282SOL    HW122743   6.082   7.168  14.730
40282SOL    HW222744   5.984   7.225  14.829
40283SOL     OW22745  11.726   2.096  10.201
40283SOL    HW122746  11.712   2.041  10.278
40283SOL    HW222747  11.754   2.035  10.133
40284SOL     OW22748   3.238   5.957  13.967
40284SOL    HW122749   3.267   5.879  14.013
40284SOL    HW222750   3.271   6.030  14.020
40285SOL     OW22751  10.801   6.587   5.861
40285SOL    HW122752  10.800   6.656   5.928
40285SOL    HW222753  10.793   6.635   5.778
40286SOL     OW22754   1.002   9.211  13.937
40286SOL    HW122755   1.007   9.122  13.901
40286SOL    HW222756   0.950   9.202  14.016
40287SOL     OW22757   7.889   6.853   4.255
40287SOL    HW122758   7.921   6.824   4.341
40287SOL    HW222759   7.932   6.938   4.242
40288SOL     OW22760  12.736   3.611   8.315
40288SOL    HW122761  12.775   3.541   8.262
40288SOL    HW222762  12.805   3.636   8.376
40289SOL     OW22763   9.037   5.340  12.113
40289SOL    HW122764   9.040   5.413  12.051
40289SOL    HW222765   8.943   5.326  12.128
40290SOL     OW22766   2.155  11.253  10.887
40290SOL    HW122767   2.138  11.218  10.975
40290SOL    HW222768   2.206  11.333  10.904
40291SOL     OW22769   6.222   8.596   0.944
40291SOL    HW122770   6.230   8.653   1.021
40291SOL    HW222771   6.285   8.526   0.958
40292SOL     OW22772   9.772   4.336   4.552
40292SOL    HW122773   9.717   4.366   4.625
40292SOL    HW222774   9.779   4.242   4.565
40293SOL     OW22775  11.055  11.421   4.653
40293SOL    HW122776  11.066  11.445   4.745
40293SOL    HW222777  10.993  11.485   4.618
40294SOL     OW22778   1.471   3.576   4.496
40294SOL    HW122779   1.453   3.588   4.589
40294SOL    HW222780   1.546   3.632   4.478
40295SOL     OW22781  13.564  13.010   6.246
40295SOL    HW122782  13.493  12.991   6.308
40295SOL    HW222783  13.597  13.096   6.272
40296SOL     OW22784   4.964   6.229   9.106
40296SOL    HW122785   5.031   6.199   9.167
40296SOL    HW222786   4.968   6.324   9.110
40297SOL     OW22787   4.343   8.640   6.547
40297SOL    HW122788   4.415   8.619   6.606
40297SOL    HW222789   4.367   8.725   6.510
40298SOL     OW22790  13.094   2.516   6.633
40298SOL    HW122791  13.054   2.449   6.688
40298SOL    HW222792  13.066   2.599   6.673
40299SOL     OW22793   2.890   5.239   4.796
40299SOL    HW122794   2.856   5.300   4.862
40299SOL    HW222795   2.814   5.186   4.772
40300SOL     OW22796   2.058   9.242  11.761
40300SOL    HW122797   2.076   9.335  11.748
40300SOL    HW222798   2.143   9.199  11.748
40301SOL     OW22799   9.960   2.837  13.135
40301SOL    HW122800   9.986   2.873  13.051
40301SOL    HW222801   9.984   2.904  13.199
40302SOL     OW22802   8.924  13.897   4.118
40302SOL    HW122803   8.850  13.957   4.120
40302SOL    HW222804   8.995  13.944   4.160
40303SOL     OW22805  12.399  11.355   7.782
40303SOL    HW122806  12.415  11.440   7.823
40303SOL    HW222807  12.485  11.312   7.782
40304SOL     OW22808   1.820   3.386  11.856
40304SOL    HW122809   1.855   3.400  11.944
40304SOL    HW222810   1.799   3.474  11.824
40305SOL     OW22811   6.265   3.039   7.023
40305SOL    HW122812   6.293   2.949   7.008
40305SOL    HW222813   6.294   3.059   7.112
40306SOL     OW22814   8.758   1.964  11.865
40306SOL    HW122815   8.772   2.025  11.792
40306SOL    HW222816   8.778   1.878  11.829
40307SOL     OW22817  11.693  12.586   4.398
40307SOL    HW122818  11.680  12.648   4.469
40307SOL    HW222819  11.725  12.506   4.441
40308SOL     OW22820  11.716  10.946   8.882
40308SOL    HW122821  11.625  10.976   8.878
40308SOL    HW222822  11.712  10.853   8.860
40309SOL     OW22823   6.616   6.956   9.674
40309SOL    HW122824   6.602   6.989   9.585
40309SOL    HW222825   6.661   7.027   9.719
40310SOL     OW22826   6.664   2.157   6.832
40310SOL    HW122827   6.749   2.159   6.788
40310SOL    HW222828   6.602   2.190   6.767
40311SOL     OW22829  10.351   6.882   4.858
40311SOL    HW122830  10.264   6.901   4.823
40311SOL    HW222831  10.373   6.796   4.821
40312SOL     OW22832   2.416  14.575   9.449
40312SOL    HW122833   2.471  14.597   9.525
40312SOL    HW222834   2.423  14.480   9.442
40313SOL     OW22835  14.579   8.186  14.598
40313SOL    HW122836  14.668   8.214  14.576
40313SOL    HW222837  14.552   8.134  14.522
40314SOL     OW22838  10.832   5.206   1.848
40314SOL    HW122839  10.834   5.157   1.765
40314SOL    HW222840  10.794   5.291   1.825
40315SOL     OW22841   1.714   8.194   3.721
40315SOL    HW122842   1.625   8.218   3.745
40315SOL    HW222843   1.758   8.277   3.705
40316SOL     OW22844  14.114   0.663  11.837
40316SOL    HW122845  14.034   0.610  11.841
40316SOL    HW222846  14.110   0.706  11.752
40317SOL     OW22847   9.358   8.875   3.046
40317SOL    HW122848   9.391   8.938   3.110
40317SOL    HW222849   9.397   8.791   3.072
40318SOL     OW22850   3.147   7.676   3.762
40318SOL    HW122851   3.147   7.608   3.830
40318SOL    HW222852   3.170   7.756   3.808
40319SOL     OW22853   7.408   5.165   3.212
40319SOL    HW122854   7.481   5.206   3.257
40319SOL    HW222855   7.331   5.214   3.242
40320SOL     OW22856   8.270  12.754   2.332
40320SOL    HW122857   8.314  12.760   2.417
40320SOL    HW222858   8.221  12.672   2.336
40321SOL     OW22859   0.980   6.273  13.846
40321SOL    HW122860   0.895   6.301  13.880
40321SOL    HW222861   1.037   6.271  13.923
40322SOL     OW22862  10.074  13.510  11.927
40322SOL    HW122863  10.145  13.507  11.863
40322SOL    HW222864  10.011  13.444  11.897
40323SOL     OW22865   1.174  13.409   2.331
40323SOL    HW122866   1.118  13.486   2.344
40323SOL    HW222867   1.211  13.420   2.244
40324SOL     OW22868   9.518   3.952  13.440
40324SOL    HW122869   9.567   3.873  13.418
40324SOL    HW222870   9.573   3.997  13.504
40325SOL     OW22871   7.378  11.557   6.970
40325SOL    HW122872   7.411  11.610   6.897
40325SOL    HW222873   7.451  11.500   6.993
40326SOL     OW22874   9.999  12.777  12.839
40326SOL    HW122875   9.936  12.745  12.903
40326SOL    HW222876  10.066  12.709  12.836
40327SOL     OW22877   3.435   6.738  14.009
40327SOL    HW122878   3.453   6.661  14.062
40327SOL    HW222879   3.380   6.794  14.065
40328SOL     OW22880   8.384   8.126  10.729
40328SOL    HW122881   8.386   8.096  10.820
40328SOL    HW222882   8.291   8.139  10.710
40329SOL     OW22883  10.583   3.715   5.199
40329SOL    HW122884  10.664   3.751   5.236
40329SOL    HW222885  10.550   3.784   5.142
40330SOL     OW22886  11.231   8.291  12.823
40330SOL    HW122887  11.142   8.308  12.793
40330SOL    HW222888  11.273   8.246  12.750
40331SOL     OW22889   5.541  11.972   5.971
40331SOL    HW122890   5.491  12.017   6.039
40331SOL    HW222891   5.560  12.041   5.907
40332SOL     OW22892  10.010  14.616  13.839
40332SOL    HW122893   9.968  14.568  13.767
40332SOL    HW222894   9.942  14.623  13.906
40333SOL     OW22895  10.756   1.962   7.189
40333SOL    HW122896  10.682   1.982   7.130
40333SOL    HW222897  10.797   1.885   7.150
40334SOL     OW22898   6.042  13.920  13.827
40334SOL    HW122899   6.130  13.889  13.807
40334SOL    HW222900   6.023  13.886  13.914
40335SOL     OW22901  14.369  14.049   1.505
40335SOL    HW122902  14.356  14.112   1.434
40335SOL    HW222903  14.281  14.017   1.524
40336SOL     OW22904   4.482   8.512  12.789
40336SOL    HW122905   4.444   8.511  12.877
40336SOL    HW222906   4.407   8.504  12.731
40337SOL     OW22907   1.471   4.202  12.520
40337SOL    HW122908   1.457   4.236  12.432
40337SOL    HW222909   1.565   4.212  12.535
40338SOL     OW22910   1.992   2.217   3.415
40338SOL    HW122911   1.908   2.263   3.421
40338SOL    HW222912   1.972   2.126   3.437
40339SOL     OW22913   1.534  10.261  11.696
40339SOL    HW122914   1.483  10.321  11.750
40339SOL    HW222915   1.624  10.275  11.724
40340SOL     OW22916   5.470   6.697   6.625
40340SOL    HW122917   5.503   6.745   6.702
40340SOL    HW222918   5.544   6.642   6.598
40341SOL     OW22919   2.734   4.684  10.815
40341SOL    HW122920   2.780   4.686  10.899
40341SOL    HW222921   2.674   4.610  10.822
40342SOL     OW22922   6.531   8.796   3.061
40342SOL    HW122923   6.503   8.877   3.019
40342SOL    HW222924   6.589   8.824   3.131
40343SOL     OW22925  10.711   8.823   5.371
40343SOL    HW122926  10.664   8.906   5.355
40343SOL    HW222927  10.768   8.814   5.294
40344SOL     OW22928   1.865  12.959   1.845
40344SOL    HW122929   1.784  12.951   1.896
40344SOL    HW222930   1.907  12.874   1.856
40345SOL     OW22931   6.176   1.355  10.154
40345SOL    HW122932   6.249   1.312  10.197
40345SOL    HW222933   6.101   1.337  10.211
40346SOL     OW22934   3.744   8.452  11.670
40346SOL    HW122935   3.665   8.417  11.712
40346SOL    HW222936   3.732   8.434  11.577
40347SOL     OW22937   1.428   9.724  11.750
40347SOL    HW122938   1.394   9.715  11.661
40347SOL    HW222939   1.414   9.816  11.772
40348SOL     OW22940   5.791   2.248   6.196
40348SOL    HW122941   5.885   2.266   6.186
40348SOL    HW222942   5.763   2.308   6.265
40349SOL     OW22943  14.746   8.524  10.623
40349SOL    HW122944  14.707   8.591  10.679
40349SOL    HW222945  14.675   8.498  10.564
40350SOL     OW22946   0.208  13.949   3.114
40350SOL    HW122947   0.229  13.896   3.038
40350SOL    HW222948   0.263  14.027   3.106
40351SOL     OW22949  11.093   2.558   8.406
40351SOL    HW122950  11.032   2.619   8.447
40351SOL    HW222951  11.156   2.537   8.474
40352SOL     OW22952  12.297  14.482  12.566
40352SOL    HW122953  12.213  14.522  12.544
40352SOL    HW222954  12.315  14.512  12.656
40353SOL     OW22955   8.770  14.070  10.654
40353SOL    HW122956   8.741  14.008  10.721
40353SOL    HW222957   8.701  14.136  10.651
40354SOL     OW22958   2.994   5.247  12.425
40354SOL    HW122959   2.900   5.262  12.436
40354SOL    HW222960   3.024   5.322  12.374
40355SOL     OW22961  10.772  10.013   2.567
40355SOL    HW122962  10.827  10.068   2.623
40355SOL    HW222963  10.729   9.952   2.628
40356SOL     OW22964  14.519  10.748   7.791
40356SOL    HW122965  14.503  10.800   7.870
40356SOL    HW222966  14.540  10.660   7.824
40357SOL     OW22967  10.734   8.944  14.466
40357SOL    HW122968  10.824   8.954  14.495
40357SOL    HW222969  10.710   8.854  14.491
40358SOL     OW22970  10.144   4.777  12.760
40358SOL    HW122971  10.085   4.851  12.744
40358SOL    HW222972  10.231   4.812  12.743
40359SOL     OW22973   8.124   3.960   0.037
40359SOL    HW122974   8.041   3.970  14.877
40359SOL    HW222975   8.152   3.871   0.017
40360SOL     OW22976   3.162   2.009   8.601
40360SOL    HW122977   3.211   1.945   8.549
40360SOL    HW222978   3.115   1.957   8.666
40361SOL     OW22979  12.475  12.262   9.305
40361SOL    HW122980  12.380  12.265   9.303
40361SOL    HW222981  12.496  12.189   9.364
40362SOL     OW22982  14.755   5.621   9.974
40362SOL    HW122983  14.743   5.626   9.880
40362SOL    HW222984  14.669   5.598  10.008
40363SOL     OW22985  12.532   9.457   3.262
40363SOL    HW122986  12.548   9.517   3.334
40363SOL    HW222987  12.601   9.477   3.198
40364SOL     OW22988   0.962  14.030  13.523
40364SOL    HW122989   0.887  14.090  13.528
40364SOL    HW222990   1.037  14.084  13.549
40365SOL     OW22991   4.769  12.679   4.179
40365SOL    HW122992   4.759  12.638   4.094
40365SOL    HW222993   4.854  12.724   4.174
40366SOL     OW22994   0.828  14.156  14.845
40366SOL    HW122995   0.753  14.184  14.791
40366SOL    HW222996   0.850  14.069  14.811
40367SOL     OW22997  12.187   4.932  10.012
40367SOL    HW122998  12.145   4.903  10.094
40367SOL    HW222999  12.116   4.931   9.948
40368SOL     OW23000  12.635   9.359  13.472
40368SOL    HW123001  12.548   9.336  13.437
40368SOL    HW223002  12.625   9.355  13.567
40369SOL     OW23003   2.981  10.470  12.517
40369SOL    HW123004   3.037  10.537  12.478
40369SOL    HW223005   3.041  10.400  12.542
40370SOL     OW23006   0.541   0.190   2.923
40370SOL    HW123007   0.628   0.187   2.883
40370SOL    HW223008   0.498   0.264   2.880
40371SOL     OW23009   1.828  14.761   0.872
40371SOL    HW123010   1.737  14.761   0.899
40371SOL    HW223011   1.865  14.683   0.914
40372SOL     OW23012  14.325   4.368   5.123
40372SOL    HW123013  14.325   4.376   5.027
40372SOL    HW223014  14.383   4.438   5.153
40373SOL     OW23015  10.056  10.570  10.874
40373SOL    HW123016   9.978  10.602  10.921
40373SOL    HW223017  10.024  10.498  10.821
40374SOL     OW23018   3.224   9.991   9.217
40374SOL    HW123019   3.272  10.061   9.173
40374SOL    HW223020   3.179  10.035   9.290
40375SOL     OW23021   1.298   4.796   0.608
40375SOL    HW123022   1.205   4.806   0.629
40375SOL    HW223023   1.324   4.716   0.653
40376SOL     OW23024   9.500   3.980   2.836
40376SOL    HW123025   9.563   4.053   2.832
40376SOL    HW223026   9.470   3.979   2.927
40377SOL     OW23027   8.851  12.470  11.087
40377SOL    HW123028   8.805  12.386  11.087
40377SOL    HW223029   8.810  12.520  11.158
40378SOL     OW23030   7.964  14.628   2.873
40378SOL    HW123031   7.912  14.669   2.805
40378SOL    HW223032   7.930  14.665   2.955
40379SOL     OW23033   0.247   9.866   8.985
40379SOL    HW123034   0.235   9.960   8.991
40379SOL    HW223035   0.187   9.838   8.916
40380SOL     OW23036  13.605   6.392  10.534
40380SOL    HW123037  13.604   6.372  10.440
40380SOL    HW223038  13.514   6.380  10.562
40381SOL     OW23039   3.452  11.036   8.808
40381SOL    HW123040   3.525  11.004   8.755
40381SOL    HW223041   3.492  11.093   8.873
40382SOL     OW23042   3.160   5.906  11.999
40382SOL    HW123043   3.202   5.850  12.064
40382SOL    HW223044   3.115   5.844  11.940
40383SOL     OW23045  12.720  13.191   3.679
40383SOL    HW123046  12.716  13.102   3.646
40383SOL    HW223047  12.628  13.214   3.695
40384SOL     OW23048  11.339   9.232  12.336
40384SOL    HW123049  11.358   9.273  12.252
40384SOL    HW223050  11.324   9.140  12.315
40385SOL     OW23051  10.184   9.750   1.860
40385SOL    HW123052  10.128   9.782   1.930
40385SOL    HW223053  10.251   9.698   1.905
40386SOL     OW23054  10.809  11.024  12.174
40386SOL    HW123055  10.759  11.016  12.255
40386SOL    HW223056  10.769  10.960  12.115
40387SOL     OW23057   6.172  13.906   5.737
40387SOL    HW123058   6.091  13.950   5.711
40387SOL    HW223059   6.152  13.867   5.822
40388SOL     OW23060  14.718   9.219  13.693
40388SOL    HW123061  14.733   9.201  13.600
40388SOL    HW223062  14.642   9.166  13.716
40389SOL     OW23063   5.013   3.374   8.574
40389SOL    HW123064   4.943   3.440   8.571
40389SOL    HW223065   4.979   3.300   8.523
40390SOL     OW23066  11.157   7.115   7.770
40390SOL    HW123067  11.102   7.158   7.704
40390SOL    HW223068  11.244   7.112   7.730
40391SOL     OW23069  12.787  12.627   7.432
40391SOL    HW123070  12.708  12.580   7.405
40391SOL    HW223071  12.850  12.611   7.363
40392SOL     OW23072   7.447  12.758   3.875
40392SOL    HW123073   7.476  12.842   3.911
40392SOL    HW223074   7.428  12.705   3.952
40393SOL     OW23075   0.757   6.606   2.464
40393SOL    HW123076   0.711   6.572   2.542
40393SOL    HW223077   0.834   6.551   2.456
40394SOL     OW23078   0.947   7.421  10.987
40394SOL    HW123079   1.041   7.440  10.979
40394SOL    HW223080   0.904   7.503  10.967
40395SOL     OW23081  13.562   0.403   1.511
40395SOL    HW123082  13.634   0.357   1.469
40395SOL    HW223083  13.553   0.485   1.461
40396SOL     OW23084   7.420   4.308  12.304
40396SOL    HW123085   7.470   4.227  12.317
40396SOL    HW223086   7.474   4.376  12.343
40397SOL     OW23087   3.586   8.713   5.666
40397SOL    HW123088   3.667   8.741   5.624
40397SOL    HW223089   3.601   8.620   5.687
40398SOL     OW23090   4.255   8.619   7.716
40398SOL    HW123091   4.240   8.603   7.809
40398SOL    HW223092   4.311   8.546   7.689
40399SOL     OW23093   8.229  13.065   9.111
40399SOL    HW123094   8.145  13.076   9.066
40399SOL    HW223095   8.256  13.154   9.133
40400SOL     OW23096   6.714   9.981  11.676
40400SOL    HW123097   6.703   9.895  11.717
40400SOL    HW223098   6.689   9.968  11.584
40401SOL     OW23099   1.777   6.669  10.802
40401SOL    HW123100   1.762   6.671  10.708
40401SOL    HW223101   1.870   6.652  10.812
40402SOL     OW23102   2.896   2.980   0.756
40402SOL    HW123103   2.956   2.997   0.684
40402SOL    HW223104   2.837   2.913   0.723
40403SOL     OW23105   4.584   3.698   8.876
40403SOL    HW123106   4.556   3.681   8.786
40403SOL    HW223107   4.517   3.656   8.930
40404SOL     OW23108   2.133  12.053   2.840
40404SOL    HW123109   2.111  12.029   2.930
40404SOL    HW223110   2.182  12.135   2.849
40405SOL     OW23111  12.131   0.975   5.020
40405SOL    HW123112  12.113   1.038   4.951
40405SOL    HW223113  12.114   0.890   4.979
40406SOL     OW23114  12.362   2.072  14.454
40406SOL    HW123115  12.324   2.005  14.397
40406SOL    HW223116  12.362   2.033  14.541
40407SOL     OW23117   8.697   1.902  10.303
40407SOL    HW123118   8.610   1.865  10.291
40407SOL    HW223119   8.697   1.981  10.248
40408SOL     OW23120  12.640   1.077   7.748
40408SOL    HW123121  12.674   1.160   7.715
40408SOL    HW223122  12.567   1.055   7.690
40409SOL     OW23123   8.763  13.756   4.257
40409SOL    HW123124   8.840  13.784   4.207
40409SOL    HW223125   8.734  13.676   4.213
40410SOL     OW23126   4.566   5.663   5.781
40410SOL    HW123127   4.493   5.601   5.780
40410SOL    HW223128   4.621   5.635   5.854
40411SOL     OW23129   4.125   7.913  11.418
40411SOL    HW123130   4.041   7.868  11.421
40411SOL    HW223131   4.124   7.970  11.495
40412SOL     OW23132  14.488   6.306   4.769
40412SOL    HW123133  14.465   6.398   4.783
40412SOL    HW223134  14.459   6.288   4.680
40413SOL     OW23135  12.000   6.695   1.792
40413SOL    HW123136  12.066   6.632   1.822
40413SOL    HW223137  11.924   6.642   1.770
40414SOL     OW23138  13.922   6.965   9.632
40414SOL    HW123139  13.968   6.991   9.712
40414SOL    HW223140  13.867   6.892   9.658
40415SOL     OW23141   3.568   3.892  10.673
40415SOL    HW123142   3.496   3.850  10.626
40415SOL    HW223143   3.525   3.942  10.743
40416SOL     OW23144   0.235   6.250   5.623
40416SOL    HW123145   0.165   6.316   5.619
40416SOL    HW223146   0.220   6.194   5.547
40417SOL     OW23147   9.937  12.307   6.042
40417SOL    HW123148  10.013  12.263   6.003
40417SOL    HW223149   9.950  12.298   6.136
40418SOL     OW23150   1.422   5.892  11.598
40418SOL    HW123151   1.425   5.835  11.675
40418SOL    HW223152   1.336   5.933  11.601
40419SOL     OW23153   6.351   9.101   8.528
40419SOL    HW123154   6.443   9.126   8.516
40419SOL    HW223155   6.355   9.009   8.551
40420SOL     OW23156   6.239   3.022   8.154
40420SOL    HW123157   6.308   2.969   8.114
40420SOL    HW223158   6.261   3.023   8.248
40421SOL     OW23159   5.566   4.538  13.702
40421SOL    HW123160   5.488   4.484  13.714
40421SOL    HW223161   5.600   4.551  13.791
40422SOL     OW23162   5.412   3.984   2.647
40422SOL    HW123163   5.356   3.951   2.577
40422SOL    HW223164   5.483   3.921   2.653
40423SOL     OW23165   0.100  11.606  14.022
40423SOL    HW123166   0.137  11.691  14.045
40423SOL    HW223167   0.006  11.617  14.036
40424SOL     OW23168   2.742   4.710  10.299
40424SOL    HW123169   2.653   4.738  10.317
40424SOL    HW223170   2.774   4.676  10.383
40425SOL     OW23171   6.866   5.701  10.088
40425SOL    HW123172   6.924   5.627  10.072
40425SOL    HW223173   6.819   5.713  10.005
40426SOL     OW23174   4.661   2.769   6.498
40426SOL    HW123175   4.689   2.827   6.427
40426SOL    HW223176   4.605   2.824   6.553
40427SOL     OW23177   4.275   9.764   5.214
40427SOL    HW123178   4.239   9.853   5.211
40427SOL    HW223179   4.369   9.776   5.203
40428SOL     OW23180  14.313   4.845   3.240
40428SOL    HW123181  14.300   4.751   3.251
40428SOL    HW223182  14.321   4.878   3.329
40429SOL     OW23183   0.571  12.665   0.109
40429SOL    HW123184   0.507  12.690   0.043
40429SOL    HW223185   0.612  12.586   0.074
40430SOL     OW23186  13.507   0.957   1.518
40430SOL    HW123187  13.422   0.912   1.517
40430SOL    HW223188  13.511   0.998   1.604
40431SOL     OW23189  13.441   9.986  13.029
40431SOL    HW123190  13.462   9.893  13.017
40431SOL    HW223191  13.348   9.993  13.006
40432SOL     OW23192  13.921  11.124   5.220
40432SOL    HW123193  13.970  11.186   5.274
40432SOL    HW223194  13.845  11.173   5.189
40433SOL     OW23195   8.096   4.524   4.749
40433SOL    HW123196   8.081   4.430   4.762
40433SOL    HW223197   8.011   4.564   4.766
40434SOL     OW23198  13.053   8.815  12.219
40434SOL    HW123199  13.026   8.828  12.128
40434SOL    HW223200  13.002   8.880  12.268
40435SOL     OW23201   0.109  14.503  12.404
40435SOL    HW123202   0.072  14.420  12.375
40435SOL    HW223203   0.039  14.544  12.455
40436SOL     OW23204   4.551   5.884  13.550
40436SOL    HW123205   4.602   5.810  13.518
40436SOL    HW223206   4.604   5.961  13.529
40437SOL     OW23207   9.518  12.885  13.997
40437SOL    HW123208   9.511  12.937  13.917
40437SOL    HW223209   9.560  12.803  13.969
40438SOL     OW23210   2.610  12.702  11.293
40438SOL    HW123211   2.700  12.708  11.326
40438SOL    HW223212   2.620  12.678  11.201
40439SOL     OW23213   2.546  13.530   0.140
40439SOL    HW123214   2.570  13.467   0.207
40439SOL    HW223215   2.452  13.546   0.154
40440SOL     OW23216  13.656   1.789  12.320
40440SOL    HW123217  13.564   1.803  12.296
40440SOL    HW223218  13.653   1.719  12.386
40441SOL     OW23219   6.584   8.025  14.429
40441SOL    HW123220   6.515   7.988  14.374
40441SOL    HW223221   6.651   8.054  14.367
40442SOL     OW23222  14.226   7.527   8.236
40442SOL    HW123223  14.149   7.528   8.294
40442SOL    HW223224  14.189   7.524   8.148
40443SOL     OW23225  14.390  10.902  10.034
40443SOL    HW123226  14.361  10.810  10.037
40443SOL    HW223227  14.396  10.922   9.940
40444SOL     OW23228  13.337   8.281  10.865
40444SOL    HW123229  13.342   8.260  10.958
40444SOL    HW223230  13.270   8.349  10.859
40445SOL     OW23231   0.072   4.352   0.413
40445SOL    HW123232   0.147   4.357   0.472
40445SOL    HW223233  14.886   4.327   0.470
40446SOL     OW23234   6.081   0.407   8.944
40446SOL    HW123235   6.115   0.323   8.976
40446SOL    HW223236   6.052   0.389   8.855
40447SOL     OW23237  10.887   7.179   2.509
40447SOL    HW123238  10.808   7.159   2.460
40447SOL    HW223239  10.930   7.248   2.459
40448SOL     OW23240   3.229  10.023   6.920
40448SOL    HW123241   3.242  10.006   7.014
40448SOL    HW223242   3.317  10.027   6.884
40449SOL     OW23243  12.627   9.364  10.259
40449SOL    HW123244  12.649   9.453  10.234
40449SOL    HW223245  12.707   9.314  10.244
40450SOL     OW23246  12.000  10.862   6.852
40450SOL    HW123247  12.090  10.881   6.827
40450SOL    HW223248  11.976  10.933   6.911
40451SOL     OW23249   8.203   5.263  12.410
40451SOL    HW123250   8.113   5.296  12.413
40451SOL    HW223251   8.195   5.175  12.373
40452SOL     OW23252  11.446   7.402   2.515
40452SOL    HW123253  11.521   7.378   2.570
40452SOL    HW223254  11.420   7.319   2.474
40453SOL     OW23255  13.643   9.959   2.385
40453SOL    HW123256  13.701  10.006   2.326
40453SOL    HW223257  13.670   9.985   2.472
40454SOL     OW23258   5.756  10.931  10.609
40454SOL    HW123259   5.816  10.899  10.542
40454SOL    HW223260   5.708  11.002  10.567
40455SOL     OW23261   2.278   7.622   6.941
40455SOL    HW123262   2.262   7.716   6.949
40455SOL    HW223263   2.267   7.589   7.030
40456SOL     OW23264   4.417  10.064   1.276
40456SOL    HW123265   4.337  10.012   1.286
40456SOL    HW223266   4.410  10.131   1.345
40457SOL     OW23267  14.464  14.722   3.687
40457SOL    HW123268  14.538  14.667   3.660
40457SOL    HW223269  14.435  14.764   3.605
40458SOL     OW23270   6.586   6.920   5.631
40458SOL    HW123271   6.657   6.943   5.691
40458SOL    HW223272   6.518   6.882   5.687
40459SOL     OW23273   8.150   3.958   1.982
40459SOL    HW123274   8.064   3.991   1.954
40459SOL    HW223275   8.210   3.990   1.914
40460SOL     OW23276  13.371   0.601  14.292
40460SOL    HW123277  13.326   0.667  14.345
40460SOL    HW223278  13.463   0.630  14.293
40461SOL     OW23279   5.216   3.940   6.379
40461SOL    HW123280   5.239   3.915   6.469
40461SOL    HW223281   5.265   3.879   6.324
40462SOL     OW23282  11.851  14.178   8.680
40462SOL    HW123283  11.888  14.092   8.699
40462SOL    HW223284  11.913  14.240   8.718
40463SOL     OW23285   1.218   6.736  12.377
40463SOL    HW123286   1.132   6.718  12.341
40463SOL    HW223287   1.240   6.824  12.346
40464SOL     OW23288  10.354   5.214  11.986
40464SOL    HW123289  10.415   5.172  12.047
40464SOL    HW223290  10.300   5.143  11.952
40465SOL     OW23291  12.991  10.276   2.408
40465SOL    HW123292  13.063  10.233   2.362
40465SOL    HW223293  12.918  10.215   2.403
40466SOL     OW23294   8.432   8.952   7.006
40466SOL    HW123295   8.433   8.907   6.921
40466SOL    HW223296   8.356   8.916   7.050
40467SOL     OW23297   4.130  11.014   1.388
40467SOL    HW123298   4.193  11.086   1.392
40467SOL    HW223299   4.163  10.957   1.318
40468SOL     OW23300  13.796  14.876  14.684
40468SOL    HW123301  13.824  14.789  14.655
40468SOL    HW223302  13.846   0.005  14.764
40469SOL     OW23303   5.232   3.863   1.826
40469SOL    HW123304   5.302   3.800   1.809
40469SOL    HW223305   5.238   3.881   1.920
40470SOL     OW23306  11.345   1.518  11.668
40470SOL    HW123307  11.275   1.458  11.642
40470SOL    HW223308  11.381   1.551  11.586
40471SOL     OW23309   8.870   5.751   8.101
40471SOL    HW123310   8.846   5.803   8.024
40471SOL    HW223311   8.890   5.816   8.168
40472SOL     OW23312   9.554   2.006   7.785
40472SOL    HW123313   9.505   2.086   7.764
40472SOL    HW223314   9.602   2.028   7.865
40473SOL     OW23315   7.528   2.627   9.977
40473SOL    HW123316   7.501   2.604   9.888
40473SOL    HW223317   7.562   2.716   9.969
40474SOL     OW23318   7.496   6.987   9.253
40474SOL    HW123319   7.538   6.927   9.314
40474SOL    HW223320   7.402   6.972   9.266
40475SOL     OW23321  11.100   5.803  10.618
40475SOL    HW123322  11.042   5.807  10.542
40475SOL    HW223323  11.179   5.760  10.586
40476SOL     OW23324  11.702   9.670   4.531
40476SOL    HW123325  11.748   9.652   4.613
40476SOL    HW223326  11.690   9.584   4.491
40477SOL     OW23327  13.415   9.175   3.057
40477SOL    HW123328  13.461   9.092   3.066
40477SOL    HW223329  13.388   9.198   3.146
40478SOL     OW23330   5.342   1.882  12.248
40478SOL    HW123331   5.351   1.967  12.291
40478SOL    HW223332   5.427   1.867  12.206
40479SOL     OW23333   6.586   7.981   2.093
40479SOL    HW123334   6.659   7.972   2.154
40479SOL    HW223335   6.508   7.982   2.150
40480SOL     OW23336  12.699  12.230   3.432
40480SOL    HW123337  12.747  12.257   3.510
40480SOL    HW223338  12.609  12.260   3.448
40481SOL     OW23339   1.152   5.224   9.644
40481SOL    HW123340   1.201   5.250   9.722
40481SOL    HW223341   1.152   5.129   9.647
40482SOL     OW23342  11.824  11.140   3.091
40482SOL    HW123343  11.916  11.158   3.111
40482SOL    HW223344  11.805  11.194   3.014
40483SOL     OW23345   8.429  13.333   1.583
40483SOL    HW123346   8.343  13.343   1.543
40483SOL    HW223347   8.414  13.346   1.677
40484SOL     OW23348  14.162   3.380   4.813
40484SOL    HW123349  14.108   3.360   4.737
40484SOL    HW223350  14.232   3.436   4.778
40485SOL     OW23351  14.459   7.178   2.070
40485SOL    HW123352  14.456   7.202   2.162
40485SOL    HW223353  14.513   7.245   2.029
40486SOL     OW23354  14.516  11.682  12.703
40486SOL    HW123355  14.481  11.633  12.777
40486SOL    HW223356  14.450  11.749  12.686
40487SOL     OW23357  14.394  14.369   9.457
40487SOL    HW123358  14.427  14.430   9.392
40487SOL    HW223359  14.369  14.424   9.531
40488SOL     OW23360   9.205   0.211   4.685
40488SOL    HW123361   9.282   0.158   4.667
40488SOL    HW223362   9.227   0.260   4.764
40489SOL     OW23363   7.127   4.432   8.829
40489SOL    HW123364   7.145   4.341   8.807
40489SOL    HW223365   7.056   4.428   8.893
40490SOL     OW23366   1.094   7.069   3.089
40490SOL    HW123367   1.100   7.127   3.165
40490SOL    HW223368   1.008   7.086   3.052
40491SOL     OW23369   2.901  10.565   0.928
40491SOL    HW123370   2.931  10.590   0.840
40491SOL    HW223371   2.979  10.566   0.982
40492SOL     OW23372  10.886   1.333   0.441
40492SOL    HW123373  10.921   1.420   0.463
40492SOL    HW223374  10.873   1.290   0.525
40493SOL     OW23375  12.139   1.954   3.537
40493SOL    HW123376  12.118   1.969   3.445
40493SOL    HW223377  12.101   2.029   3.583
40494SOL     OW23378   2.061   5.034  10.877
40494SOL    HW123379   2.057   5.097  10.804
40494SOL    HW223380   1.970   5.008  10.891
40495SOL     OW23381   6.816  10.065  10.895
40495SOL    HW123382   6.751  10.071  10.825
40495SOL    HW223383   6.832  10.156  10.920
40496SOL     OW23384   0.650  12.627  13.847
40496SOL    HW123385   0.666  12.584  13.763
40496SOL    HW223386   0.734  12.668  13.869
40497SOL     OW23387  13.571   3.124   7.266
40497SOL    HW123388  13.589   3.172   7.347
40497SOL    HW223389  13.610   3.178   7.197
40498SOL     OW23390   9.431   0.180   8.931
40498SOL    HW123391   9.391   0.249   8.879
40498SOL    HW223392   9.362   0.115   8.943
40499SOL     OW23393   8.191   6.311   9.839
40499SOL    HW123394   8.145   6.279   9.917
40499SOL    HW223395   8.134   6.287   9.766
40500SOL     OW23396   4.278   5.514  12.850
40500SOL    HW123397   4.240   5.581  12.794
40500SOL    HW223398   4.327   5.562  12.916
40501SOL     OW23399   1.144  13.281  11.478
40501SOL    HW123400   1.148  13.376  11.491
40501SOL    HW223401   1.230  13.249  11.504
40502SOL     OW23402   3.034   5.375  11.993
40502SOL    HW123403   3.086   5.337  11.922
40502SOL    HW223404   2.953   5.325  11.993
40503SOL     OW23405  11.013  10.208   9.048
40503SOL    HW123406  11.103  10.239   9.045
40503SOL    HW223407  11.011  10.147   9.122
40504SOL     OW23408   6.724   7.885   4.407
40504SOL    HW123409   6.680   7.966   4.434
40504SOL    HW223410   6.755   7.903   4.319
40505SOL     OW23411   5.634   4.318  10.881
40505SOL    HW123412   5.677   4.236  10.904
40505SOL    HW223413   5.625   4.364  10.964
40506SOL     OW23414   8.746   0.421  13.565
40506SOL    HW123415   8.704   0.422  13.651
40506SOL    HW223416   8.820   0.481  13.574
40507SOL     OW23417  14.738   5.265   7.458
40507SOL    HW123418  14.727   5.172   7.478
40507SOL    HW223419  14.739   5.308   7.543
40508SOL     OW23420  12.094  12.614   0.397
40508SOL    HW123421  12.114  12.534   0.445
40508SOL    HW223422  12.016  12.648   0.440
40509SOL     OW23423  10.095   0.219  12.353
40509SOL    HW123424  10.117   0.280  12.425
40509SOL    HW223425  10.152   0.246  12.281
40510SOL     OW23426   4.263   1.401  12.044
40510SOL    HW123427   4.306   1.363  11.967
40510SOL    HW223428   4.229   1.326  12.092
40511SOL     OW23429  12.944   9.602   9.281
40511SOL    HW123430  12.904   9.686   9.258
40511SOL    HW223431  12.898   9.575   9.361
40512SOL     OW23432   0.910   5.093  11.333
40512SOL    HW123433   0.920   5.155  11.406
40512SOL    HW223434   0.820   5.062  11.340
40513SOL     OW23435   5.620   2.233  13.534
40513SOL    HW123436   5.540   2.206  13.579
40513SOL    HW223437   5.657   2.301  13.590
40514SOL     OW23438  13.484   0.634   9.053
40514SOL    HW123439  13.469   0.724   9.025
40514SOL    HW223440  13.454   0.581   8.979
40515SOL     OW23441   8.245   6.979   3.040
40515SOL    HW123442   8.237   6.930   2.958
40515SOL    HW223443   8.328   7.025   3.034
40516SOL     OW23444   7.394   0.215   6.644
40516SOL    HW123445   7.428   0.127   6.635
40516SOL    HW223446   7.328   0.208   6.713
40517SOL     OW23447   3.690   0.157   6.686
40517SOL    HW123448   3.616   0.214   6.709
40517SOL    HW223449   3.734   0.204   6.616
40518SOL     OW23450   5.227   9.305   1.123
40518SOL    HW123451   5.288   9.242   1.083
40518SOL    HW223452   5.248   9.388   1.081
40519SOL     OW23453  14.825   2.528  12.113
40519SOL    HW123454  14.783   2.491  12.191
40519SOL    HW223455  14.784   2.483  12.040
40520SOL     OW23456   7.603   4.438   4.827
40520SOL    HW123457   7.644   4.406   4.746
40520SOL    HW223458   7.570   4.359   4.869
40521SOL     OW23459   7.518   5.765   3.762
40521SOL    HW123460   7.600   5.777   3.810
40521SOL    HW223461   7.487   5.679   3.789
40522SOL     OW23462   2.509   2.913   1.081
40522SOL    HW123463   2.470   2.985   1.032
40522SOL    HW223464   2.504   2.838   1.022
40523SOL     OW23465   1.250  12.588   5.037
40523SOL    HW123466   1.335  12.629   5.024
40523SOL    HW223467   1.248  12.567   5.131
40524SOL     OW23468   2.980  10.843   2.983
40524SOL    HW123469   2.986  10.810   3.073
40524SOL    HW223470   2.888  10.865   2.972
40525SOL     OW23471   7.057  14.166  12.039
40525SOL    HW123472   7.075  14.226  12.112
40525SOL    HW223473   6.963  14.150  12.044
40526SOL     OW23474   1.585   4.093   0.986
40526SOL    HW123475   1.609   4.121   0.898
40526SOL    HW223476   1.529   4.163   1.019
40527SOL     OW23477   6.044  11.334   2.582
40527SOL    HW123478   5.961  11.381   2.591
40527SOL    HW223479   6.100  11.374   2.649
40528SOL     OW23480   3.633   6.687   2.034
40528SOL    HW123481   3.624   6.751   2.105
40528SOL    HW223482   3.699   6.625   2.066
40529SOL     OW23483   5.098   9.003  13.110
40529SOL    HW123484   5.143   8.927  13.145
40529SOL    HW223485   5.005   8.986  13.126
40530SOL     OW23486   1.791   0.232   1.456
40530SOL    HW123487   1.737   0.296   1.503
40530SOL    HW223488   1.833   0.283   1.386
40531SOL     OW23489  12.142   0.977  14.803
40531SOL    HW123490  12.073   0.951  14.864
40531SOL    HW223491  12.143   0.909  14.736
40532SOL     OW23492   4.720  13.962   7.856
40532SOL    HW123493   4.680  14.027   7.799
40532SOL    HW223494   4.685  13.878   7.826
40533SOL     OW23495   2.745   8.736  12.156
40533SOL    HW123496   2.813   8.671  12.171
40533SOL    HW223497   2.664   8.694  12.186
40534SOL     OW23498   6.209   2.547   7.108
40534SOL    HW123499   6.253   2.574   7.189
40534SOL    HW223500   6.254   2.467   7.081
40535SOL     OW23501  11.763   9.661  10.202
40535SOL    HW123502  11.725   9.741  10.168
40535SOL    HW223503  11.772   9.677  10.296
40536SOL     OW23504  13.170  12.536   6.530
40536SOL    HW123505  13.217  12.497   6.603
40536SOL    HW223506  13.088  12.489   6.525
40537SOL     OW23507  14.420   1.478  13.346
40537SOL    HW123508  14.483   1.412  13.317
40537SOL    HW223509  14.405   1.533  13.270
40538SOL     OW23510   6.469   9.450   1.639
40538SOL    HW123511   6.452   9.366   1.596
40538SOL    HW223512   6.424   9.515   1.584
40539SOL     OW23513  11.005   1.388  14.868
40539SOL    HW123514  11.033   1.330   0.051
40539SOL    HW223515  11.077   1.386  14.805
40540SOL     OW23516   0.627  12.202   6.955
40540SOL    HW123517   0.703  12.255   6.933
40540SOL    HW223518   0.600  12.164   6.871
40541SOL     OW23519  12.905   4.707   6.283
40541SOL    HW123520  12.927   4.752   6.364
40541SOL    HW223521  12.990   4.684   6.245
40542SOL     OW23522   1.197   0.429  10.736
40542SOL    HW123523   1.153   0.361  10.685
40542SOL    HW223524   1.286   0.431  10.700
40543SOL     OW23525  14.166   5.006   5.987
40543SOL    HW123526  14.252   5.050   5.985
40543SOL    HW223527  14.137   5.007   5.896
40544SOL     OW23528   2.993   3.761   1.706
40544SOL    HW123529   3.052   3.836   1.707
40544SOL    HW223530   2.990   3.733   1.615
40545SOL     OW23531  13.564  12.738   9.722
40545SOL    HW123532  13.553  12.649   9.689
40545SOL    HW223533  13.517  12.738   9.806
40546SOL     OW23534   4.614   6.718   5.337
40546SOL    HW123535   4.521   6.727   5.316
40546SOL    HW223536   4.624   6.764   5.420
40547SOL     OW23537   1.647   3.875  10.773
40547SOL    HW123538   1.712   3.812  10.741
40547SOL    HW223539   1.603   3.828  10.844
40548SOL     OW23540  13.657  13.190   5.970
40548SOL    HW123541  13.603  13.210   5.894
40548SOL    HW223542  13.747  13.201   5.939
40549SOL     OW23543   3.389  11.585   3.359
40549SOL    HW123544   3.333  11.660   3.378
40549SOL    HW223545   3.406  11.545   3.444
40550SOL     OW23546   1.716   1.929  10.644
40550SOL    HW123547   1.776   1.871  10.598
40550SOL    HW223548   1.652   1.955  10.578
40551SOL     OW23549  12.633  11.287   8.498
40551SOL    HW123550  12.729  11.298   8.498
40551SOL    HW223551  12.600  11.377   8.507
40552SOL     OW23552   6.330  12.756   6.673
40552SOL    HW123553   6.356  12.665   6.663
40552SOL    HW223554   6.259  12.768   6.611
40553SOL     OW23555   9.322   0.078   7.857
40553SOL    HW123556   9.298   0.170   7.849
40553SOL    HW223557   9.402   0.069   7.804
40554SOL     OW23558  14.232   9.665  10.259
40554SOL    HW123559  14.237   9.635  10.168
40554SOL    HW223560  14.165   9.610  10.299
40555SOL     OW23561   5.537   4.199  10.267
40555SOL    HW123562   5.531   4.111  10.304
40555SOL    HW223563   5.449   4.218  10.235
40556SOL     OW23564  10.808   4.880  11.181
40556SOL    HW123565  10.721   4.878  11.141
40556SOL    HW223566  10.793   4.919  11.267
40557SOL     OW23567   5.990  12.745  12.685
40557SOL    HW123568   6.025  12.666  12.645
40557SOL    HW223569   6.010  12.815  12.623
40558SOL     OW23570   2.645   5.916  13.959
40558SOL    HW123571   2.649   5.891  14.051
40558SOL    HW223572   2.663   5.835  13.911
40559SOL     OW23573   4.153   2.453  11.079
40559SOL    HW123574   4.247   2.474  11.081
40559SOL    HW223575   4.126   2.476  10.990
40560SOL     OW23576   1.832   4.698  12.077
40560SOL    HW123577   1.799   4.615  12.112
40560SOL    HW223578   1.755   4.754  12.070
40561SOL     OW23579   7.283   4.815   3.067
40561SOL    HW123580   7.237   4.731   3.068
40561SOL    HW223581   7.222   4.875   3.111
40562SOL     OW23582   1.073   4.882   4.230
40562SOL    HW123583   1.095   4.835   4.150
40562SOL    HW223584   1.144   4.946   4.241
40563SOL     OW23585  13.337   6.055   3.373
40563SOL    HW123586  13.386   6.117   3.320
40563SOL    HW223587  13.386   6.048   3.455
40564SOL     OW23588   0.683   6.182   8.830
40564SOL    HW123589   0.728   6.254   8.873
40564SOL    HW223590   0.599   6.176   8.875
40565SOL     OW23591   7.747  14.227   5.453
40565SOL    HW123592   7.747  14.322   5.470
40565SOL    HW223593   7.656  14.201   5.462
40566SOL     OW23594   8.876   3.974   2.149
40566SOL    HW123595   8.894   3.907   2.083
40566SOL    HW223596   8.793   4.013   2.121
40567SOL     OW23597   2.103  13.463  14.887
40567SOL    HW123598   2.030  13.498  14.837
40567SOL    HW223599   2.172  13.449  14.823
40568SOL     OW23600   4.330   0.889   7.207
40568SOL    HW123601   4.262   0.871   7.143
40568SOL    HW223602   4.321   0.983   7.226
40569SOL     OW23603  10.238   0.791   0.675
40569SOL    HW123604  10.256   0.698   0.664
40569SOL    HW223605  10.294   0.818   0.747
40570SOL     OW23606  11.494  13.263  11.833
40570SOL    HW123607  11.429  13.310  11.781
40570SOL    HW223608  11.450  13.182  11.860
40571SOL     OW23609   2.705   0.449  12.491
40571SOL    HW123610   2.743   0.422  12.575
40571SOL    HW223611   2.732   0.380  12.430
40572SOL     OW23612   8.746   0.353   2.525
40572SOL    HW123613   8.777   0.427   2.578
40572SOL    HW223614   8.779   0.276   2.571
40573SOL     OW23615  11.620  13.341  12.541
40573SOL    HW123616  11.690  13.378  12.487
40573SOL    HW223617  11.583  13.271  12.488
40574SOL     OW23618  10.184  12.930   3.056
40574SOL    HW123619  10.208  12.839   3.072
40574SOL    HW223620  10.254  12.963   3.000
40575SOL     OW23621  11.611  14.851  12.550
40575SOL    HW123622  11.541  14.789  12.570
40575SOL    HW223623  11.565   0.042  12.517
40576SOL     OW23624  13.640   5.572   9.616
40576SOL    HW123625  13.723   5.529   9.597
40576SOL    HW223626  13.660   5.666   9.610
40577SOL     OW23627   2.465  11.109   9.242
40577SOL    HW123628   2.512  11.027   9.229
40577SOL    HW223629   2.431  11.130   9.155
40578SOL     OW23630   2.435   1.685   9.607
40578SOL    HW123631   2.527   1.712   9.615
40578SOL    HW223632   2.395   1.752   9.552
40579SOL     OW23633   9.286   4.151   2.957
40579SOL    HW123634   9.262   4.064   2.928
40579SOL    HW223635   9.255   4.210   2.888
40580SOL     OW23636  10.682   2.715   8.585
40580SOL    HW123637  10.766   2.676   8.560
40580SOL    HW223638  10.622   2.641   8.593
40581SOL     OW23639   7.664  11.199   4.380
40581SOL    HW123640   7.698  11.180   4.293
40581SOL    HW223641   7.740  11.190   4.438
40582SOL     OW23642   2.730  10.249   4.484
40582SOL    HW123643   2.649  10.286   4.448
40582SOL    HW223644   2.713  10.156   4.492
40583SOL     OW23645   8.878   9.765   5.179
40583SOL    HW123646   8.885   9.827   5.106
40583SOL    HW223647   8.888   9.819   5.258
40584SOL     OW23648  14.479   0.383   1.233
40584SOL    HW123649  14.501   0.290   1.230
40584SOL    HW223650  14.431   0.393   1.316
40585SOL     OW23651   5.207   3.037   0.839
40585SOL    HW123652   5.200   3.025   0.933
40585SOL    HW223653   5.242   3.125   0.828
40586SOL     OW23654   2.484   5.991  10.700
40586SOL    HW123655   2.458   5.948  10.781
40586SOL    HW223656   2.403   6.033  10.668
40587SOL     OW23657  10.698  10.131  11.276
40587SOL    HW123658  10.740  10.045  11.277
40587SOL    HW223659  10.734  10.177  11.352
40588SOL     OW23660   6.576   1.541  10.405
40588SOL    HW123661   6.523   1.603  10.455
40588SOL    HW223662   6.633   1.597  10.352
40589SOL     OW23663   1.152   2.019   6.339
40589SOL    HW123664   1.128   2.017   6.246
40589SOL    HW223665   1.247   2.014   6.339
40590SOL     OW23666   8.080   8.794   5.086
40590SOL    HW123667   8.064   8.883   5.116
40590SOL    HW223668   8.110   8.803   4.995
40591SOL     OW23669   6.196   9.753   7.868
40591SOL    HW123670   6.239   9.837   7.852
40591SOL    HW223671   6.242   9.717   7.944
40592SOL     OW23672   1.520   7.092  14.091
40592SOL    HW123673   1.534   7.179  14.054
40592SOL    HW223674   1.601   7.044  14.071
40593SOL     OW23675   1.674   6.798   0.323
40593SOL    HW123676   1.694   6.711   0.358
40593SOL    HW223677   1.743   6.854   0.358
40594SOL     OW23678  12.426   8.510   6.912
40594SOL    HW123679  12.483   8.539   6.983
40594SOL    HW223680  12.425   8.585   6.851
40595SOL     OW23681   5.304  11.116   1.564
40595SOL    HW123682   5.376  11.148   1.509
40595SOL    HW223683   5.345  11.054   1.623
40596SOL     OW23684   7.950  12.729   4.554
40596SOL    HW123685   7.964  12.735   4.459
40596SOL    HW223686   7.857  12.751   4.565
40597SOL     OW23687  10.514   2.581   8.294
40597SOL    HW123688  10.605   2.610   8.295
40597SOL    HW223689  10.493   2.566   8.387
40598SOL     OW23690  12.463  13.699   7.500
40598SOL    HW123691  12.464  13.661   7.412
40598SOL    HW223692  12.495  13.789   7.487
40599SOL     OW23693   1.110   1.114  10.822
40599SOL    HW123694   1.145   1.026  10.807
40599SOL    HW223695   1.119   1.158  10.737
40600SOL     OW23696   3.190   4.668  13.703
40600SOL    HW123697   3.120   4.647  13.764
40600SOL    HW223698   3.210   4.760  13.721
40601SOL     OW23699   7.551   4.571   4.223
40601SOL    HW123700   7.523   4.634   4.157
40601SOL    HW223701   7.474   4.558   4.278
40602SOL     OW23702  10.197   9.067  11.694
40602SOL    HW123703  10.129   9.126  11.725
40602SOL    HW223704  10.251   9.049  11.771
40603SOL     OW23705  14.529  14.588   2.453
40603SOL    HW123706  14.547  14.523   2.384
40603SOL    HW223707  14.612  14.596   2.500
40604SOL     OW23708   8.464   7.566  12.586
40604SOL    HW123709   8.556   7.590  12.590
40604SOL    HW223710   8.422   7.619  12.654
40605SOL     OW23711   3.906  13.681  10.171
40605SOL    HW123712   3.989  13.710  10.134
40605SOL    HW223713   3.928  13.602  10.220
40606SOL     OW23714   0.593   9.574   7.039
40606SOL    HW123715   0.513   9.539   6.998
40606SOL    HW223716   0.649   9.596   6.965
40607SOL     OW23717   0.387  11.403   4.888
40607SOL    HW123718   0.427  11.346   4.953
40607SOL    HW223719   0.456  11.418   4.823
40608SOL     OW23720  13.747   2.877   9.227
40608SOL    HW123721  13.686   2.911   9.293
40608SOL    HW223722  13.780   2.954   9.182
40609SOL     OW23723  10.032   0.617   9.634
40609SOL    HW123724   9.975   0.693   9.619
40609SOL    HW223725   9.980   0.542   9.604
40610SOL     OW23726   7.209   1.010  11.324
40610SOL    HW123727   7.151   1.083  11.300
40610SOL    HW223728   7.295   1.051  11.334
40611SOL     OW23729  12.177   6.947   0.649
40611SOL    HW123730  12.169   6.907   0.562
40611SOL    HW223731  12.251   7.007   0.641
40612SOL     OW23732   3.584  10.583   4.807
40612SOL    HW123733   3.549  10.669   4.829
40612SOL    HW223734   3.661  10.573   4.862
40613SOL     OW23735  13.694   2.866  10.429
40613SOL    HW123736  13.720   2.787  10.476
40613SOL    HW223737  13.734   2.857  10.342
40614SOL     OW23738   9.814  10.347   0.440
40614SOL    HW123739   9.805  10.385   0.353
40614SOL    HW223740   9.880  10.279   0.430
40615SOL     OW23741  10.278   1.802   0.700
40615SOL    HW123742  10.258   1.885   0.657
40615SOL    HW223743  10.365   1.815   0.738
40616SOL     OW23744   6.447   8.496   1.226
40616SOL    HW123745   6.375   8.506   1.288
40616SOL    HW223746   6.499   8.576   1.237
40617SOL     OW23747   3.965   0.611   3.476
40617SOL    HW123748   3.946   0.625   3.569
40617SOL    HW223749   4.032   0.676   3.455
40618SOL     OW23750  13.684  14.162   5.633
40618SOL    HW123751  13.651  14.073   5.646
40618SOL    HW223752  13.646  14.212   5.705
40619SOL     OW23753   8.257  12.906  10.097
40619SOL    HW123754   8.323  12.876  10.161
40619SOL    HW223755   8.188  12.944  10.151
40620SOL     OW23756   4.003  14.087   1.704
40620SOL    HW123757   4.097  14.072   1.716
40620SOL    HW223758   3.975  14.021   1.641
40621SOL     OW23759  11.864   5.450  13.736
40621SOL    HW123760  11.808   5.492  13.670
40621SOL    HW223761  11.807   5.436  13.811
40622SOL     OW23762   9.292  10.359   0.206
40622SOL    HW123763   9.301  10.454   0.216
40622SOL    HW223764   9.266  10.329   0.293
40623SOL     OW23765   9.117   0.274   6.310
40623SOL    HW123766   9.090   0.203   6.252
40623SOL    HW223767   9.056   0.345   6.292
40624SOL     OW23768   9.196   9.129   4.448
40624SOL    HW123769   9.109   9.155   4.418
40624SOL    HW223770   9.185   9.037   4.474
40625SOL     OW23771  11.377   0.318   8.392
40625SOL    HW123772  11.311   0.368   8.344
40625SOL    HW223773  11.446   0.382   8.409
40626SOL     OW23774  11.836   1.199   3.639
40626SOL    HW123775  11.929   1.201   3.616
40626SOL    HW223776  11.827   1.266   3.707
40627SOL     OW23777   3.049   4.003   6.037
40627SOL    HW123778   3.096   4.044   5.965
40627SOL    HW223779   3.068   3.909   6.028
40628SOL     OW23780  11.411   9.518   1.526
40628SOL    HW123781  11.417   9.431   1.566
40628SOL    HW223782  11.352   9.506   1.452
40629SOL     OW23783   0.957   6.330   0.760
40629SOL    HW123784   0.945   6.359   0.850
40629SOL    HW223785   0.868   6.319   0.726
40630SOL     OW23786   2.968  11.373   5.281
40630SOL    HW123787   3.009  11.425   5.350
40630SOL    HW223788   3.020  11.293   5.276
40631SOL     OW23789   2.629   5.754   5.990
40631SOL    HW123790   2.699   5.722   5.933
40631SOL    HW223791   2.602   5.678   6.040
40632SOL     OW23792   8.896   7.664  14.702
40632SOL    HW123793   8.831   7.729  14.677
40632SOL    HW223794   8.883   7.650  14.795
40633SOL     OW23795   9.955   9.010  12.608
40633SOL    HW123796   9.893   8.978  12.543
40633SOL    HW223797   9.994   9.088  12.569
40634SOL     OW23798   9.042  14.694   7.597
40634SOL    HW123799   9.114  14.656   7.648
40634SOL    HW223800   8.967  14.639   7.619
40635SOL     OW23801   6.804   8.887   3.198
40635SOL    HW123802   6.899   8.898   3.208
40635SOL    HW223803   6.779   8.827   3.268
40636SOL     OW23804  11.580   2.342   2.871
40636SOL    HW123805  11.627   2.367   2.951
40636SOL    HW223806  11.515   2.278   2.901
40637SOL     OW23807  11.556   6.196   1.629
40637SOL    HW123808  11.549   6.113   1.583
40637SOL    HW223809  11.648   6.222   1.619
40638SOL     OW23810   7.227   4.847   6.658
40638SOL    HW123811   7.219   4.766   6.709
40638SOL    HW223812   7.167   4.908   6.701
40639SOL     OW23813  12.718   2.227   5.333
40639SOL    HW123814  12.747   2.264   5.416
40639SOL    HW223815  12.798   2.219   5.281
40640SOL     OW23816  11.862   0.230   8.791
40640SOL    HW123817  11.874   0.325   8.798
40640SOL    HW223818  11.770   0.216   8.812
40641SOL     OW23819   8.602  12.452   3.168
40641SOL    HW123820   8.535  12.432   3.233
40641SOL    HW223821   8.673  12.389   3.186
40642SOL     OW23822   2.427   5.002   6.462
40642SOL    HW123823   2.457   4.961   6.380
40642SOL    HW223824   2.488   5.074   6.476
40643SOL     OW23825   2.791  11.643   2.315
40643SOL    HW123826   2.793  11.552   2.344
40643SOL    HW223827   2.876  11.657   2.273
40644SOL     OW23828   8.743   1.821   6.610
40644SOL    HW123829   8.745   1.898   6.555
40644SOL    HW223830   8.835   1.797   6.623
40645SOL     OW23831   2.342   4.023  14.727
40645SOL    HW123832   2.345   4.054  14.817
40645SOL    HW223833   2.284   4.085  14.682
40646SOL     OW23834   1.125  11.780  13.514
40646SOL    HW123835   1.139  11.875  13.510
40646SOL    HW223836   1.154  11.748  13.429
40647SOL     OW23837   3.403  12.418   8.409
40647SOL    HW123838   3.497  12.437   8.417
40647SOL    HW223839   3.361  12.485   8.463
40648SOL     OW23840  12.390   3.669   7.704
40648SOL    HW123841  12.345   3.716   7.633
40648SOL    HW223842  12.382   3.727   7.780
40649SOL     OW23843   7.380   0.844   6.001
40649SOL    HW123844   7.393   0.902   5.926
40649SOL    HW223845   7.378   0.756   5.964
40650SOL     OW23846   6.033  14.302   8.883
40650SOL    HW123847   6.032  14.396   8.899
40650SOL    HW223848   5.945  14.282   8.852
40651SOL     OW23849  14.829  13.305   0.511
40651SOL    HW123850  14.797  13.390   0.482
40651SOL    HW223851   0.029  13.297   0.473
40652SOL     OW23852  11.788   4.423   5.601
40652SOL    HW123853  11.745   4.506   5.582
40652SOL    HW223854  11.878   4.435   5.571
40653SOL     OW23855   4.926   4.929   1.809
40653SOL    HW123856   5.019   4.918   1.830
40653SOL    HW223857   4.924   4.944   1.714
40654SOL     OW23858   9.986  10.622  12.308
40654SOL    HW123859   9.977  10.652  12.398
40654SOL    HW223860   9.968  10.528  12.312
40655SOL     OW23861   8.871   9.465   2.592
40655SOL    HW123862   8.946   9.407   2.602
40655SOL    HW223863   8.819   9.426   2.522
40656SOL     OW23864   5.566   5.062   5.528
40656SOL    HW123865   5.657   5.045   5.554
40656SOL    HW223866   5.572   5.086   5.435
40657SOL     OW23867   3.220   9.222  12.925
40657SOL    HW123868   3.274   9.267  12.990
40657SOL    HW223869   3.139   9.274  12.922
40658SOL     OW23870  13.626  11.586   7.820
40658SOL    HW123871  13.683  11.547   7.754
40658SOL    HW223872  13.622  11.679   7.796
40659SOL     OW23873   6.708   2.560  10.913
40659SOL    HW123874   6.708   2.474  10.955
40659SOL    HW223875   6.626   2.562  10.863
40660SOL     OW23876   0.151   2.794   6.403
40660SOL    HW123877   0.188   2.852   6.336
40660SOL    HW223878   0.227   2.766   6.454
40661SOL     OW23879   7.872   2.165  11.853
40661SOL    HW123880   7.952   2.150  11.904
40661SOL    HW223881   7.897   2.230  11.787
40662SOL     OW23882  13.269  11.118   0.193
40662SOL    HW123883  13.362  11.096   0.181
40662SOL    HW223884  13.231  11.038   0.230
40663SOL     OW23885   5.530   9.478  10.221
40663SOL    HW123886   5.448   9.446  10.184
40663SOL    HW223887   5.584   9.501  10.146
40664SOL     OW23888   6.505   1.633  13.501
40664SOL    HW123889   6.483   1.690  13.428
40664SOL    HW223890   6.598   1.650  13.518
40665SOL     OW23891   8.246  13.320  11.259
40665SOL    HW123892   8.294  13.350  11.181
40665SOL    HW223893   8.309  13.265  11.306
40666SOL     OW23894   1.883  14.457   7.801
40666SOL    HW123895   1.802  14.414   7.772
40666SOL    HW223896   1.947  14.434   7.733
40667SOL     OW23897   4.483   1.664   0.488
40667SOL    HW123898   4.492   1.579   0.445
40667SOL    HW223899   4.487   1.643   0.582
40668SOL     OW23900  10.442  13.025  12.829
40668SOL    HW123901  10.355  13.056  12.855
40668SOL    HW223902  10.429  12.934  12.805
40669SOL     OW23903  12.160   2.266   3.283
40669SOL    HW123904  12.121   2.179   3.281
40669SOL    HW223905  12.170   2.286   3.376
40670SOL     OW23906   3.047  11.817   9.127
40670SOL    HW123907   2.992  11.874   9.073
40670SOL    HW223908   3.135  11.855   9.120
40671SOL     OW23909   9.094  13.439   5.123
40671SOL    HW123910   9.157  13.374   5.154
40671SOL    HW223911   9.039  13.391   5.060
40672SOL     OW23912  12.261   4.169   8.548
40672SOL    HW123913  12.281   4.182   8.641
40672SOL    HW223914  12.168   4.187   8.541
40673SOL     OW23915  10.001   2.393   9.517
40673SOL    HW123916   9.991   2.351   9.603
40673SOL    HW223917  10.038   2.479   9.537
40674SOL     OW23918   7.936   2.192   9.771
40674SOL    HW123919   7.957   2.254   9.841
40674SOL    HW223920   7.943   2.106   9.813
40675SOL     OW23921  14.319  14.467   5.699
40675SOL    HW123922  14.289  14.523   5.770
40675SOL    HW223923  14.393  14.419   5.735
40676SOL     OW23924   0.363   1.608  12.857
40676SOL    HW123925   0.397   1.566  12.778
40676SOL    HW223926   0.440   1.616  12.914
40677SOL     OW23927   3.689   4.872  13.454
40677SOL    HW123928   3.697   4.778  13.467
40677SOL    HW223929   3.750   4.910  13.517
40678SOL     OW23930  14.359   4.802  12.545
40678SOL    HW123931  14.291   4.776  12.484
40678SOL    HW223932  14.429   4.737  12.532
40679SOL     OW23933   8.433   3.265   6.223
40679SOL    HW123934   8.514   3.240   6.177
40679SOL    HW223935   8.462   3.286   6.312
40680SOL     OW23936   0.399  13.475   8.964
40680SOL    HW123937   0.348  13.413   9.015
40680SOL    HW223938   0.484  13.433   8.953
40681SOL     OW23939   4.263   2.866   7.518
40681SOL    HW123940   4.267   2.793   7.457
40681SOL    HW223941   4.223   2.937   7.469
40682SOL     OW23942   5.960  13.580  14.780
40682SOL    HW123943   6.048  13.583  14.818
40682SOL    HW223944   5.908  13.637  14.837
40683SOL     OW23945  14.492   7.373   7.126
40683SOL    HW123946  14.499   7.444   7.062
40683SOL    HW223947  14.422   7.400   7.185
40684SOL     OW23948   7.731   1.215  14.109
40684SOL    HW123949   7.738   1.310  14.120
40684SOL    HW223950   7.732   1.201  14.015
40685SOL     OW23951   9.065   0.309   8.444
40685SOL    HW123952   9.120   0.264   8.508
40685SOL    HW223953   9.054   0.246   8.373
40686SOL     OW23954  14.547   3.981   8.305
40686SOL    HW123955  14.495   4.061   8.291
40686SOL    HW223956  14.520   3.950   8.391
40687SOL     OW23957  14.744   0.956   4.363
40687SOL    HW123958  14.757   0.984   4.273
40687SOL    HW223959  14.808   0.886   4.376
40688SOL     OW23960   8.499   6.470  14.803
40688SOL    HW123961   8.468   6.382  14.783
40688SOL    HW223962   8.553   6.459  14.882
40689SOL     OW23963   0.491  11.145   3.509
40689SOL    HW123964   0.444  11.204   3.569
40689SOL    HW223965   0.454  11.058   3.528
40690SOL     OW23966   3.777   6.961  11.730
40690SOL    HW123967   3.834   6.975  11.655
40690SOL    HW223968   3.765   6.867  11.734
40691SOL     OW23969   3.178   4.837   9.794
40691SOL    HW123970   3.142   4.750   9.777
40691SOL    HW223971   3.206   4.868   9.708
40692SOL     OW23972   3.730   5.481   5.826
40692SOL    HW123973   3.761   5.485   5.735
40692SOL    HW223974   3.797   5.431   5.872
40693SOL     OW23975   2.531   0.504   2.654
40693SOL    HW123976   2.546   0.446   2.729
40693SOL    HW223977   2.586   0.580   2.671
40694SOL     OW23978   0.192   5.405   5.229
40694SOL    HW123979   0.117   5.464   5.230
40694SOL    HW223980   0.259   5.450   5.179
40695SOL     OW23981   1.274  10.907   1.811
40695SOL    HW123982   1.336  10.837   1.834
40695SOL    HW223983   1.216  10.867   1.746
40696SOL     OW23984   0.246   2.522   9.899
40696SOL    HW123985   0.273   2.448   9.846
40696SOL    HW223986   0.270   2.499   9.988
40697SOL     OW23987   6.741  11.168   4.899
40697SOL    HW123988   6.808  11.116   4.942
40697SOL    HW223989   6.687  11.202   4.972
40698SOL     OW23990  12.129   0.015   2.571
40698SOL    HW123991  12.070   0.077   2.528
40698SOL    HW223992  12.170  14.854   2.499
40699SOL     OW23993   1.004   8.628   8.716
40699SOL    HW123994   0.961   8.582   8.645
40699SOL    HW223995   1.097   8.612   8.702
40700SOL     OW23996  14.180   4.440   8.718
40700SOL    HW123997  14.122   4.467   8.647
40700SOL    HW223998  14.260   4.412   8.673
40701SOL     OW23999   5.933   0.766   9.881
40701SOL    HW124000   5.878   0.843   9.893
40701SOL    HW224001   6.012   0.799   9.838
40702SOL     OW24002   3.744  11.455   5.816
40702SOL    HW124003   3.733  11.375   5.867
40702SOL    HW224004   3.669  11.455   5.755
40703SOL     OW24005   5.249   5.389  13.045
40703SOL    HW124006   5.335   5.356  13.072
40703SOL    HW224007   5.190   5.364  13.116
40704SOL     OW24008   4.408  10.385  10.745
40704SOL    HW124009   4.429  10.371  10.653
40704SOL    HW224010   4.476  10.339  10.793
40705SOL     OW24011  13.927   9.832   9.680
40705SOL    HW124012  13.890   9.887   9.749
40705SOL    HW224013  13.938   9.891   9.605
40706SOL     OW24014   7.496  11.691   0.957
40706SOL    HW124015   7.456  11.742   1.027
40706SOL    HW224016   7.520  11.756   0.890
40707SOL     OW24017  13.087   0.051   8.374
40707SOL    HW124018  13.160   0.074   8.432
40707SOL    HW224019  13.031   0.128   8.374
40708SOL     OW24020   9.930   7.641   3.672
40708SOL    HW124021   9.930   7.701   3.597
40708SOL    HW224022  10.007   7.587   3.658
40709SOL     OW24023   9.885   6.042   7.479
40709SOL    HW124024   9.791   6.061   7.478
40709SOL    HW224025   9.891   5.947   7.476
40710SOL     OW24026  13.779   8.158  11.835
40710SOL    HW124027  13.687   8.176  11.854
40710SOL    HW224028  13.779   8.069  11.798
40711SOL     OW24029   9.821   5.757  14.721
40711SOL    HW124030   9.856   5.819  14.785
40711SOL    HW224031   9.727   5.760  14.735
40712SOL     OW24032   7.001   5.686   8.534
40712SOL    HW124033   7.014   5.781   8.532
40712SOL    HW224034   6.921   5.672   8.483
40713SOL     OW24035   0.012   5.728   6.720
40713SOL    HW124036   0.053   5.679   6.791
40713SOL    HW224037   0.037   5.819   6.737
40714SOL     OW24038  14.196   4.479  11.215
40714SOL    HW124039  14.149   4.558  11.239
40714SOL    HW224040  14.128   4.418  11.185
40715SOL     OW24041   2.684  12.792   9.593
40715SOL    HW124042   2.728  12.719   9.550
40715SOL    HW224043   2.594  12.789   9.560
40716SOL     OW24044   0.904   2.947   7.183
40716SOL    HW124045   0.915   2.899   7.100
40716SOL    HW224046   0.835   2.899   7.229
40717SOL     OW24047   5.846  11.011   8.305
40717SOL    HW124048   5.864  10.926   8.265
40717SOL    HW224049   5.918  11.067   8.276
40718SOL     OW24050   1.100   7.202   6.092
40718SOL    HW124051   1.126   7.189   6.001
40718SOL    HW224052   1.018   7.252   6.087
40719SOL     OW24053  14.632  10.316  11.628
40719SOL    HW124054  14.683  10.373  11.685
40719SOL    HW224055  14.690  10.242  11.610
40720SOL     OW24056  10.631   9.373   2.159
40720SOL    HW124057  10.686   9.449   2.181
40720SOL    HW224058  10.548   9.390   2.204
40721SOL     OW24059  14.453  10.837  12.078
40721SOL    HW124060  14.442  10.927  12.049
40721SOL    HW224061  14.539  10.836  12.121
40722SOL     OW24062  12.328  12.145   2.299
40722SOL    HW124063  12.294  12.071   2.349
40722SOL    HW224064  12.251  12.186   2.261
40723SOL     OW24065  10.826   8.999   0.927
40723SOL    HW124066  10.879   8.949   0.989
40723SOL    HW224067  10.873   8.992   0.844
40724SOL     OW24068   0.361  11.323   1.474
40724SOL    HW124069   0.296  11.392   1.480
40724SOL    HW224070   0.344  11.268   1.551
40725SOL     OW24071  10.112   6.160  14.436
40725SOL    HW124072  10.151   6.135  14.519
40725SOL    HW224073  10.164   6.114  14.370
40726SOL     OW24074   5.102   9.433  13.524
40726SOL    HW124075   5.085   9.349  13.482
40726SOL    HW224076   5.153   9.411  13.602
40727SOL     OW24077  10.122   4.408   4.022
40727SOL    HW124078  10.212   4.429   4.049
40727SOL    HW224079  10.071   4.484   4.048
40728SOL     OW24080  14.548  14.654  13.285
40728SOL    HW124081  14.494  14.733  13.283
40728SOL    HW224082  14.520  14.609  13.364
40729SOL     OW24083   7.462  12.634  13.619
40729SOL    HW124084   7.395  12.601  13.559
40729SOL    HW224085   7.492  12.716  13.580
40730SOL     OW24086   2.015  13.715   7.492
40730SOL    HW124087   1.972  13.684   7.572
40730SOL    HW224088   2.032  13.808   7.509
40731SOL     OW24089   3.025   3.585   4.392
40731SOL    HW124090   3.094   3.564   4.455
40731SOL    HW224091   3.030   3.680   4.383
40732SOL     OW24092   0.644   9.066   9.553
40732SOL    HW124093   0.662   9.083   9.460
40732SOL    HW224094   0.608   9.148   9.586
40733SOL     OW24095  12.712  12.584   0.089
40733SOL    HW124096  12.728  12.518   0.021
40733SOL    HW224097  12.697  12.665   0.041
40734SOL     OW24098  11.567   5.894   1.087
40734SOL    HW124099  11.600   5.834   1.153
40734SOL    HW224100  11.478   5.915   1.115
40735SOL     OW24101   5.314   1.039   6.550
40735SOL    HW124102   5.248   0.977   6.520
40735SOL    HW224103   5.270   1.124   6.551
40736SOL     OW24104   0.250   5.870  13.518
40736SOL    HW124105   0.281   5.843  13.604
40736SOL    HW224106   0.280   5.802  13.458
40737SOL     OW24107   6.954   4.515   9.488
40737SOL    HW124108   6.937   4.422   9.469
40737SOL    HW224109   7.041   4.531   9.452
40738SOL     OW24110   4.415   8.441  14.571
40738SOL    HW124111   4.409   8.433  14.476
40738SOL    HW224112   4.460   8.524  14.586
40739SOL     OW24113  14.732  12.395  13.008
40739SOL    HW124114  14.766  12.340  12.937
40739SOL    HW224115  14.786  12.474  13.004
40740SOL     OW24116   4.473  10.712   5.605
40740SOL    HW124117   4.411  10.639   5.601
40740SOL    HW224118   4.514  10.713   5.519
40741SOL     OW24119   6.870  10.643   9.420
40741SOL    HW124120   6.842  10.587   9.492
40741SOL    HW224121   6.936  10.590   9.374
40742SOL     OW24122   5.064   1.179  10.879
40742SOL    HW124123   5.151   1.141  10.892
40742SOL    HW224124   5.063   1.257  10.935
40743SOL     OW24125  12.988  12.256   6.980
40743SOL    HW124126  13.040  12.233   7.057
40743SOL    HW224127  12.897  12.254   7.011
40744SOL     OW24128   3.364  11.163   3.692
40744SOL    HW124129   3.348  11.139   3.601
40744SOL    HW224130   3.459  11.167   3.699
40745SOL     OW24131   7.892  11.421  14.185
40745SOL    HW124132   7.846  11.360  14.128
40745SOL    HW224133   7.854  11.408  14.271
40746SOL     OW24134   3.661   1.698   8.097
40746SOL    HW124135   3.616   1.625   8.053
40746SOL    HW224136   3.649   1.679   8.191
40747SOL     OW24137  10.055   8.718   1.874
40747SOL    HW124138  10.034   8.698   1.965
40747SOL    HW224139   9.972   8.744   1.835
40748SOL     OW24140   6.042   7.373   5.907
40748SOL    HW124141   6.068   7.281   5.900
40748SOL    HW224142   5.948   7.370   5.926
40749SOL     OW24143   9.186  13.843  12.801
40749SOL    HW124144   9.093  13.820  12.807
40749SOL    HW224145   9.231  13.759  12.790
40750SOL     OW24146   7.468   1.127   1.929
40750SOL    HW124147   7.433   1.045   1.965
40750SOL    HW224148   7.391   1.171   1.892
40751SOL     OW24149   3.344   9.281   8.764
40751SOL    HW124150   3.259   9.253   8.730
40751SOL    HW224151   3.336   9.273   8.859
40752SOL     OW24152   2.339   9.634  11.615
40752SOL    HW124153   2.432   9.658  11.611
40752SOL    HW224154   2.300   9.673  11.537
40753SOL     OW24155   1.942   4.535   6.268
40753SOL    HW124156   1.950   4.445   6.299
40753SOL    HW224157   1.991   4.587   6.331
40754SOL     OW24158   3.846   3.730   4.302
40754SOL    HW124159   3.787   3.803   4.320
40754SOL    HW224160   3.927   3.753   4.348
40755SOL     OW24161  12.414   4.136   8.336
40755SOL    HW124162  12.456   4.060   8.375
40755SOL    HW224163  12.348   4.163   8.400
40756SOL     OW24164  12.409  14.566   0.645
40756SOL    HW124165  12.402  14.645   0.698
40756SOL    HW224166  12.404  14.597   0.555
40757SOL     OW24167  10.287   3.763   3.372
40757SOL    HW124168  10.272   3.669   3.383
40757SOL    HW224169  10.306   3.794   3.461
40758SOL     OW24170   8.871   3.616   5.675
40758SOL    HW124171   8.910   3.690   5.722
40758SOL    HW224172   8.805   3.582   5.735
40759SOL     OW24173  14.020   6.299   8.345
40759SOL    HW124174  14.059   6.381   8.376
40759SOL    HW224175  14.041   6.296   8.252
40760SOL     OW24176   6.717   9.362  12.700
40760SOL    HW124177   6.759   9.326  12.778
40760SOL    HW224178   6.778   9.343  12.629
40761SOL     OW24179   1.040   7.390   4.640
40761SOL    HW124180   1.086   7.378   4.723
40761SOL    HW224181   1.014   7.302   4.614
40762SOL     OW24182  14.258   8.992   0.567
40762SOL    HW124183  14.297   8.905   0.558
40762SOL    HW224184  14.256   9.007   0.662
40763SOL     OW24185   1.682  14.807   2.870
40763SOL    HW124186   1.601  14.801   2.922
40763SOL    HW224187   1.746  14.757   2.920
40764SOL     OW24188   1.885   9.185  13.584
40764SOL    HW124189   1.825   9.121  13.623
40764SOL    HW224190   1.916   9.238  13.658
40765SOL     OW24191   0.781   8.678   2.890
40765SOL    HW124192   0.806   8.624   2.964
40765SOL    HW224193   0.685   8.674   2.888
40766SOL     OW24194  13.905   6.159  14.772
40766SOL    HW124195  13.994   6.186  14.751
40766SOL    HW224196  13.853   6.188  14.696
40767SOL     OW24197  11.761  13.154   1.240
40767SOL    HW124198  11.764  13.212   1.316
40767SOL    HW224199  11.775  13.066   1.276
40768SOL     OW24200   8.950   0.816  11.648
40768SOL    HW124201   8.969   0.758  11.722
40768SOL    HW224202   9.002   0.781  11.576
40769SOL     OW24203  14.427   5.971  13.846
40769SOL    HW124204  14.425   6.062  13.816
40769SOL    HW224205  14.403   5.976  13.939
40770SOL     OW24206   0.491   3.814  14.793
40770SOL    HW124207   0.480   3.843  14.883
40770SOL    HW224208   0.517   3.894  14.746
40771SOL     OW24209   0.082   1.698   0.800
40771SOL    HW124210   0.161   1.724   0.848
40771SOL    HW224211   0.045   1.781   0.769
40772SOL     OW24212  13.950  10.563   5.517
40772SOL    HW124213  13.998  10.482   5.528
40772SOL    HW224214  13.957  10.583   5.424
40773SOL     OW24215  12.124   1.185   7.150
40773SOL    HW124216  12.059   1.143   7.093
40773SOL    HW224217  12.118   1.278   7.130
40774SOL     OW24218   4.269   2.356   9.568
40774SOL    HW124219   4.291   2.282   9.625
40774SOL    HW224220   4.341   2.360   9.505
40775SOL     OW24221   5.161   4.787  14.429
40775SOL    HW124222   5.237   4.836  14.399
40775SOL    HW224223   5.195   4.733  14.501
40776SOL     OW24224   4.635   1.468  14.113
40776SOL    HW124225   4.580   1.495  14.039
40776SOL    HW224226   4.577   1.413  14.166
40777SOL     OW24227   1.497  10.039   4.723
40777SOL    HW124228   1.490  10.134   4.733
40777SOL    HW224229   1.590  10.023   4.710
40778SOL     OW24230   5.779   2.974   8.967
40778SOL    HW124231   5.754   2.882   8.978
40778SOL    HW224232   5.816   2.998   9.052
40779SOL     OW24233   0.743   8.146  10.378
40779SOL    HW124234   0.776   8.216  10.322
40779SOL    HW224235   0.657   8.176  10.406
40780SOL     OW24236   8.696   5.811  11.376
40780SOL    HW124237   8.714   5.891  11.327
40780SOL    HW224238   8.782   5.785  11.410
40781SOL     OW24239   6.572   5.475   2.487
40781SOL    HW124240   6.547   5.427   2.408
40781SOL    HW224241   6.666   5.458   2.498
40782SOL     OW24242   8.375   8.200  14.273
40782SOL    HW124243   8.359   8.158  14.189
40782SOL    HW224244   8.411   8.285  14.252
40783SOL     OW24245   9.598  14.506  11.196
40783SOL    HW124246   9.568  14.438  11.137
40783SOL    HW224247   9.518  14.553  11.221
40784SOL     OW24248   2.749   9.064  13.725
40784SOL    HW124249   2.839   9.095  13.732
40784SOL    HW224250   2.698   9.128  13.775
40785SOL     OW24251   5.777   1.493  12.637
40785SOL    HW124252   5.696   1.440  12.638
40785SOL    HW224253   5.797   1.507  12.729
40786SOL     OW24254   5.067  12.420   9.196
40786SOL    HW124255   5.074  12.462   9.110
40786SOL    HW224256   4.983  12.449   9.231
40787SOL     OW24257   6.272   0.286   6.801
40787SOL    HW124258   6.197   0.263   6.747
40787SOL    HW224259   6.276   0.218   6.868
40788SOL     OW24260   3.957  14.562   6.625
40788SOL    HW124261   3.929  14.593   6.711
40788SOL    HW224262   3.974  14.641   6.574
40789SOL     OW24263  12.329   4.599  14.846
40789SOL    HW124264  12.350   4.506  14.859
40789SOL    HW224265  12.249   4.612   0.010
40790SOL     OW24266   9.083  13.766  10.339
40790SOL    HW124267   9.035  13.830  10.392
40790SOL    HW224268   9.173  13.800  10.337
40791SOL     OW24269  10.785   3.708   1.444
40791SOL    HW124270  10.713   3.687   1.503
40791SOL    HW224271  10.744   3.760   1.374
40792SOL     OW24272   7.227  10.897   6.614
40792SOL    HW124273   7.242  10.846   6.535
40792SOL    HW224274   7.301  10.877   6.671
40793SOL     OW24275  11.261   5.156   3.507
40793SOL    HW124276  11.178   5.161   3.458
40793SOL    HW224277  11.311   5.231   3.475
40794SOL     OW24278   9.981  12.679   9.776
40794SOL    HW124279  10.073  12.668   9.752
40794SOL    HW224280   9.964  12.607   9.837
40795SOL     OW24281   9.289   9.525  13.307
40795SOL    HW124282   9.295   9.460  13.237
40795SOL    HW224283   9.197   9.526  13.332
40796SOL     OW24284  11.021   7.013   5.772
40796SOL    HW124285  11.093   7.073   5.756
40796SOL    HW224286  10.964   7.023   5.695
40797SOL     OW24287   8.140  11.806  11.133
40797SOL    HW124288   8.077  11.785  11.201
40797SOL    HW224289   8.090  11.800  11.051
40798SOL     OW24290  14.159  10.566   7.867
40798SOL    HW124291  14.245  10.560   7.909
40798SOL    HW224292  14.134  10.657   7.877
40799SOL     OW24293   0.168  11.327   4.114
40799SOL    HW124294   0.092  11.345   4.170
40799SOL    HW224295   0.243  11.351   4.167
40800SOL     OW24296   6.873   2.931  14.242
40800SOL    HW124297   6.949   2.879  14.215
40800SOL    HW224298   6.910   3.016  14.266
40801SOL     OW24299   3.773  13.319  11.912
40801SOL    HW124300   3.703  13.359  11.964
40801SOL    HW224301   3.789  13.380  11.841
40802SOL     OW24302   8.011   1.432  13.249
40802SOL    HW124303   7.962   1.395  13.322
40802SOL    HW224304   7.980   1.523  13.243
40803SOL     OW24305   8.388   5.200   3.443
40803SOL    HW124306   8.296   5.175   3.451
40803SOL    HW224307   8.427   5.172   3.526
40804SOL     OW24308  13.953   6.949  14.761
40804SOL    HW124309  13.903   6.961  14.842
40804SOL    HW224310  13.930   6.860  14.732
40805SOL     OW24311   3.572   0.262   8.609
40805SOL    HW124312   3.556   0.231   8.698
40805SOL    HW224313   3.544   0.188   8.554
40806SOL     OW24314  14.242  14.514   0.028
40806SOL    HW124315  14.169  14.555   0.074
40806SOL    HW224316  14.291  14.587  14.877
40807SOL     OW24317  11.148  14.168   4.060
40807SOL    HW124318  11.194  14.093   4.099
40807SOL    HW224319  11.101  14.130   3.985
40808SOL     OW24320   8.824   7.116   6.712
40808SOL    HW124321   8.804   7.061   6.788
40808SOL    HW224322   8.768   7.193   6.722
40809SOL     OW24323   1.211  10.828  12.956
40809SOL    HW124324   1.137  10.850  12.900
40809SOL    HW224325   1.176  10.764  13.018
40810SOL     OW24326   2.928  12.607   8.784
40810SOL    HW124327   2.943  12.521   8.822
40810SOL    HW224328   2.982  12.609   8.706
40811SOL     OW24329   1.443  14.623   7.237
40811SOL    HW124330   1.476  14.546   7.283
40811SOL    HW224331   1.480  14.697   7.284
40812SOL     OW24332  11.359   0.487   6.874
40812SOL    HW124333  11.341   0.557   6.811
40812SOL    HW224334  11.290   0.422   6.858
40813SOL     OW24335  10.098   5.015  14.091
40813SOL    HW124336  10.086   5.017  13.996
40813SOL    HW224337  10.161   4.943  14.105
40814SOL     OW24338  14.601  13.697   4.497
40814SOL    HW124339  14.642  13.784   4.491
40814SOL    HW224340  14.515  13.714   4.534
40815SOL     OW24341   5.040  12.766   3.437
40815SOL    HW124342   5.061  12.684   3.484
40815SOL    HW224343   5.120  12.818   3.445
40816SOL     OW24344   2.582   4.175   8.882
40816SOL    HW124345   2.585   4.266   8.914
40816SOL    HW224346   2.670   4.158   8.850
40817SOL     OW24347  11.806   3.744   5.794
40817SOL    HW124348  11.717   3.761   5.761
40817SOL    HW224349  11.844   3.683   5.731
40818SOL     OW24350  14.067   8.485  13.171
40818SOL    HW124351  14.126   8.434  13.114
40818SOL    HW224352  14.126   8.542  13.220
40819SOL     OW24353   2.469   1.592  10.372
40819SOL    HW124354   2.564   1.602  10.365
40819SOL    HW224355   2.446   1.639  10.452
40820SOL     OW24356   4.495   9.084   4.064
40820SOL    HW124357   4.494   9.149   4.134
40820SOL    HW224358   4.424   9.023   4.087
40821SOL     OW24359   9.034   1.221  10.908
40821SOL    HW124360   9.107   1.161  10.895
40821SOL    HW224361   8.958   1.164  10.919
40822SOL     OW24362   1.828   0.837   9.907
40822SOL    HW124363   1.849   0.906   9.844
40822SOL    HW224364   1.912   0.813   9.945
40823SOL     OW24365   4.156   7.939  14.015
40823SOL    HW124366   4.088   8.006  14.006
40823SOL    HW224367   4.108   7.859  14.035
40824SOL     OW24368  10.877   6.602  14.226
40824SOL    HW124369  10.908   6.691  14.245
40824SOL    HW224370  10.802   6.615  14.168
40825SOL     OW24371  13.736   3.327   0.731
40825SOL    HW124372  13.722   3.343   0.824
40825SOL    HW224373  13.823   3.286   0.726
40826SOL     OW24374   3.241   5.315   6.226
40826SOL    HW124375   3.148   5.332   6.213
40826SOL    HW224376   3.246   5.266   6.308
40827SOL     OW24377  11.997   1.615   5.808
40827SOL    HW124378  11.906   1.594   5.829
40827SOL    HW224379  11.997   1.627   5.713
40828SOL     OW24380   7.236   6.680  10.223
40828SOL    HW124381   7.182   6.601  10.227
40828SOL    HW224382   7.318   6.655  10.267
40829SOL     OW24383  12.964   5.698  12.561
40829SOL    HW124384  12.973   5.744  12.645
40829SOL    HW224385  12.870   5.695  12.545
40830SOL     OW24386   6.032  14.542  11.501
40830SOL    HW124387   6.081  14.622  11.520
40830SOL    HW224388   6.093  14.471  11.524
40831SOL     OW24389   1.763   7.320   1.987
40831SOL    HW124390   1.858   7.317   1.989
40831SOL    HW224391   1.743   7.406   1.949
40832SOL     OW24392   9.283   5.343   1.432
40832SOL    HW124393   9.304   5.426   1.477
40832SOL    HW224394   9.197   5.319   1.465
40833SOL     OW24395   6.285   9.901  14.520
40833SOL    HW124396   6.211   9.944  14.477
40833SOL    HW224397   6.347   9.882  14.450
40834SOL     OW24398  10.820  14.235   0.151
40834SOL    HW124399  10.755  14.282   0.204
40834SOL    HW224400  10.864  14.176   0.212
40835SOL     OW24401   9.174   3.031  12.356
40835SOL    HW124402   9.096   2.986  12.388
40835SOL    HW224403   9.172   3.018  12.261
40836SOL     OW24404  13.840   4.198  12.633
40836SOL    HW124405  13.793   4.281  12.645
40836SOL    HW224406  13.832   4.179  12.539
40837SOL     OW24407  13.340   6.063  12.253
40837SOL    HW124408  13.429   6.041  12.226
40837SOL    HW224409  13.285   5.996  12.213
40838SOL     OW24410   6.602  13.831   5.835
40838SOL    HW124411   6.526  13.781   5.866
40838SOL    HW224412   6.566  13.917   5.812
40839SOL     OW24413   9.230   6.442   0.509
40839SOL    HW124414   9.232   6.526   0.555
40839SOL    HW224415   9.177   6.459   0.431
40840SOL     OW24416  11.753   9.133  14.417
40840SOL    HW124417  11.714   9.123  14.504
40840SOL    HW224418  11.698   9.199  14.374
40841SOL     OW24419   2.959   5.574   4.291
40841SOL    HW124420   2.877   5.622   4.289
40841SOL    HW224421   3.027   5.642   4.293
40842SOL     OW24422   2.583   8.092   6.370
40842SOL    HW124423   2.549   8.045   6.446
40842SOL    HW224424   2.504   8.119   6.322
40843SOL     OW24425  14.182   2.664   6.883
40843SOL    HW124426  14.158   2.631   6.796
40843SOL    HW224427  14.209   2.587   6.932
40844SOL     OW24428  12.768   8.498   2.652
40844SOL    HW124429  12.693   8.439   2.659
40844SOL    HW224430  12.832   8.449   2.601
40845SOL     OW24431   6.687  11.353   7.589
40845SOL    HW124432   6.750  11.399   7.644
40845SOL    HW224433   6.639  11.296   7.649
40846SOL     OW24434  11.014   5.004   8.026
40846SOL    HW124435  10.974   5.078   7.981
40846SOL    HW224436  11.039   5.039   8.112
40847SOL     OW24437   6.628   9.412   8.605
40847SOL    HW124438   6.630   9.505   8.583
40847SOL    HW224439   6.633   9.410   8.701
40848SOL     OW24440   7.945   2.563   5.511
40848SOL    HW124441   8.009   2.495   5.491
40848SOL    HW224442   7.902   2.533   5.590
40849SOL     OW24443   9.912   0.122   3.434
40849SOL    HW124444   9.999   0.161   3.429
40849SOL    HW224445   9.893   0.118   3.528
40850SOL     OW24446  14.746   4.228   2.002
40850SOL    HW124447  14.826   4.257   1.959
40850SOL    HW224448  14.691   4.307   2.004
40851SOL     OW24449   0.305  10.932   4.454
40851SOL    HW124450   0.264  10.941   4.368
40851SOL    HW224451   0.387  10.885   4.437
40852SOL     OW24452  12.413   9.553  12.190
40852SOL    HW124453  12.430   9.546  12.095
40852SOL    HW224454  12.332   9.603  12.197
40853SOL     OW24455   4.272   3.863   9.740
40853SOL    HW124456   4.304   3.918   9.811
40853SOL    HW224457   4.202   3.811   9.779
40854SOL     OW24458   6.685   7.206   5.080
40854SOL    HW124459   6.690   7.278   5.017
40854SOL    HW224460   6.773   7.199   5.117
40855SOL     OW24461   8.442  13.155  12.863
40855SOL    HW124462   8.372  13.142  12.927
40855SOL    HW224463   8.472  13.067  12.841
40856SOL     OW24464   6.124   4.777   9.245
40856SOL    HW124465   6.064   4.793   9.317
40856SOL    HW224466   6.191   4.719   9.281
40857SOL     OW24467   0.018   5.931   9.455
40857SOL    HW124468  14.836   5.984   9.496
40857SOL    HW224469  14.866   5.899   9.374
40858SOL     OW24470  13.040   5.650   6.061
40858SOL    HW124471  13.035   5.586   5.989
40858SOL    HW224472  12.968   5.710   6.044
40859SOL     OW24473   5.249   1.046   6.860
40859SOL    HW124474   5.288   1.093   6.786
40859SOL    HW224475   5.166   1.013   6.827
40860SOL     OW24476  13.966   6.672   2.974
40860SOL    HW124477  13.947   6.603   2.910
40860SOL    HW224478  13.984   6.624   3.055
40861SOL     OW24479   6.822   1.922   5.914
40861SOL    HW124480   6.913   1.901   5.937
40861SOL    HW224481   6.795   1.850   5.857
40862SOL     OW24482  14.293  13.410  10.258
40862SOL    HW124483  14.319  13.414  10.351
40862SOL    HW224484  14.205  13.372  10.260
40863SOL     OW24485   8.014  12.297   6.671
40863SOL    HW124486   7.922  12.276   6.689
40863SOL    HW224487   8.014  12.327   6.581
40864SOL     OW24488   2.492   2.401   3.801
40864SOL    HW124489   2.487   2.451   3.882
40864SOL    HW224490   2.582   2.412   3.771
40865SOL     OW24491  11.230  13.710   5.458
40865SOL    HW124492  11.138  13.692   5.476
40865SOL    HW224493  11.232  13.801   5.430
40866SOL     OW24494   5.351  14.252   9.590
40866SOL    HW124495   5.328  14.205   9.510
40866SOL    HW224496   5.446  14.261   9.587
40867SOL     OW24497   7.196  10.866  12.374
40867SOL    HW124498   7.150  10.868  12.290
40867SOL    HW224499   7.288  10.877  12.351
40868SOL     OW24500   2.523   2.407  14.385
40868SOL    HW124501   2.429   2.404  14.406
40868SOL    HW224502   2.526   2.386  14.291
40869SOL     OW24503   7.352  12.746   1.487
40869SOL    HW124504   7.378  12.684   1.419
40869SOL    HW224505   7.345  12.694   1.567
40870SOL     OW24506   9.390  13.417   9.929
40870SOL    HW124507   9.411  13.371  10.010
40870SOL    HW224508   9.428  13.363   9.859
40871SOL     OW24509  11.316   2.184   1.355
40871SOL    HW124510  11.388   2.144   1.405
40871SOL    HW224511  11.238   2.169   1.409
40872SOL     OW24512   7.880  10.731   3.258
40872SOL    HW124513   7.788  10.757   3.254
40872SOL    HW224514   7.925  10.792   3.199
40873SOL     OW24515   6.419   8.086  12.054
40873SOL    HW124516   6.494   8.032  12.028
40873SOL    HW224517   6.342   8.035  12.027
40874SOL     OW24518   4.181   2.592   8.664
40874SOL    HW124519   4.100   2.550   8.635
40874SOL    HW224520   4.173   2.597   8.759
40875SOL     OW24521   3.020  14.887  13.643
40875SOL    HW124522   3.061   0.044  13.569
40875SOL    HW224523   3.065   0.034  13.720
40876SOL     OW24524   4.013  10.988   9.673
40876SOL    HW124525   4.055  10.919   9.622
40876SOL    HW224526   4.023  11.067   9.620
40877SOL     OW24527  11.803   1.000   6.282
40877SOL    HW124528  11.858   0.923   6.269
40877SOL    HW224529  11.716   0.972   6.256
40878SOL     OW24530   5.628   9.501   6.134
40878SOL    HW124531   5.557   9.462   6.185
40878SOL    HW224532   5.593   9.586   6.106
40879SOL     OW24533  12.522   2.367  12.517
40879SOL    HW124534  12.585   2.426  12.559
40879SOL    HW224535  12.568   2.334  12.439
40880SOL     OW24536   5.889  10.551   7.601
40880SOL    HW124537   5.895  10.554   7.505
40880SOL    HW224538   5.945  10.622   7.631
40881SOL     OW24539  10.774   5.124   2.105
40881SOL    HW124540  10.855   5.117   2.156
40881SOL    HW224541  10.802   5.152   2.018
40882SOL     OW24542   0.977   8.979   5.785
40882SOL    HW124543   0.914   8.908   5.780
40882SOL    HW224544   1.039   8.952   5.852
40883SOL     OW24545  13.121   0.438  10.829
40883SOL    HW124546  13.100   0.515  10.777
40883SOL    HW224547  13.212   0.452  10.856
40884SOL     OW24548   1.204   0.056   8.314
40884SOL    HW124549   1.294   0.073   8.343
40884SOL    HW224550   1.213   0.027   8.224
40885SOL     OW24551   6.478   9.911  14.728
40885SOL    HW124552   6.449  10.002  14.736
40885SOL    HW224553   6.438   9.882  14.646
40886SOL     OW24554  13.633   1.767   2.707
40886SOL    HW124555  13.571   1.737   2.641
40886SOL    HW224556  13.704   1.702   2.704
40887SOL     OW24557   7.571  11.332   8.596
40887SOL    HW124558   7.608  11.244   8.595
40887SOL    HW224559   7.519  11.337   8.516
40888SOL     OW24560   1.812   8.822   4.187
40888SOL    HW124561   1.902   8.791   4.182
40888SOL    HW224562   1.758   8.745   4.166
40889SOL     OW24563   3.639  11.900   3.098
40889SOL    HW124564   3.667  11.813   3.127
40889SOL    HW224565   3.673  11.908   3.009
40890SOL     OW24566   3.321   9.429  10.245
40890SOL    HW124567   3.390   9.472  10.194
40890SOL    HW224568   3.358   9.345  10.270
40891SOL     OW24569   3.609   9.567   3.266
40891SOL    HW124570   3.542   9.505   3.295
40891SOL    HW224571   3.567   9.653   3.276
40892SOL     OW24572   1.822  11.351   2.278
40892SOL    HW124573   1.822  11.444   2.302
40892SOL    HW224574   1.786  11.350   2.189
40893SOL     OW24575   2.806   7.214  13.081
40893SOL    HW124576   2.895   7.246  13.091
40893SOL    HW224577   2.784   7.177  13.166
40894SOL     OW24578  13.186   1.190   9.086
40894SOL    HW124579  13.211   1.279   9.059
40894SOL    HW224580  13.101   1.176   9.044
40895SOL     OW24581   7.792   7.263   9.243
40895SOL    HW124582   7.733   7.226   9.177
40895SOL    HW224583   7.780   7.207   9.319
40896SOL     OW24584   9.464   6.568   4.227
40896SOL    HW124585   9.403   6.497   4.243
40896SOL    HW224586   9.471   6.573   4.132
40897SOL     OW24587   2.656   7.789   5.300
40897SOL    HW124588   2.751   7.781   5.302
40897SOL    HW224589   2.633   7.774   5.208
40898SOL     OW24590  10.303   5.068   0.983
40898SOL    HW124591  10.351   5.050   1.064
40898SOL    HW224592  10.371   5.076   0.916
40899SOL     OW24593   1.760  12.032   1.701
40899SOL    HW124594   1.809  11.951   1.690
40899SOL    HW224595   1.677  12.004   1.742
40900SOL     OW24596   3.112   4.627  12.557
40900SOL    HW124597   3.203   4.640  12.531
40900SOL    HW224598   3.099   4.532  12.553
40901SOL     OW24599   7.656  14.455  14.824
40901SOL    HW124600   7.692  14.455  14.736
40901SOL    HW224601   7.586  14.519  14.822
40902SOL     OW24602  11.577   6.140   7.800
40902SOL    HW124603  11.565   6.226   7.760
40902SOL    HW224604  11.563   6.078   7.728
40903SOL     OW24605  13.480  13.263   3.311
40903SOL    HW124606  13.545  13.306   3.367
40903SOL    HW224607  13.472  13.175   3.346
40904SOL     OW24608   1.661   1.386   7.769
40904SOL    HW124609   1.657   1.481   7.755
40904SOL    HW224610   1.589   1.352   7.716
40905SOL     OW24611   1.818  14.864   3.298
40905SOL    HW124612   1.738   0.018   3.332
40905SOL    HW224613   1.842   0.030   3.223
40906SOL     OW24614   7.078   9.069  10.773
40906SOL    HW124615   7.059   8.983  10.810
40906SOL    HW224616   7.136   9.051  10.699
40907SOL     OW24617   3.452  12.515   1.035
40907SOL    HW124618   3.446  12.587   1.097
40907SOL    HW224619   3.518  12.457   1.072
40908SOL     OW24620   3.993  13.964  12.769
40908SOL    HW124621   4.085  13.946  12.789
40908SOL    HW224622   3.978  13.920  12.686
40909SOL     OW24623   8.342   9.925   3.238
40909SOL    HW124624   8.422   9.973   3.219
40909SOL    HW224625   8.319   9.882   3.155
40910SOL     OW24626  10.214  11.598  14.425
40910SOL    HW124627  10.199  11.538  14.498
40910SOL    HW224628  10.129  11.604  14.380
40911SOL     OW24629   3.877   5.040   6.340
40911SOL    HW124630   3.912   4.960   6.379
40911SOL    HW224631   3.782   5.031   6.347
40912SOL     OW24632  11.478   2.033   4.810
40912SOL    HW124633  11.537   1.958   4.799
40912SOL    HW224634  11.391   1.998   4.789
40913SOL     OW24635  13.086   8.264  14.211
40913SOL    HW124636  13.123   8.225  14.289
40913SOL    HW224637  13.000   8.223  14.201
40914SOL     OW24638   0.780   3.847   9.363
40914SOL    HW124639   0.725   3.858   9.441
40914SOL    HW224640   0.869   3.862   9.394
40915SOL     OW24641  10.423   7.963   3.228
40915SOL    HW124642  10.395   7.871   3.228
40915SOL    HW224643  10.348   8.011   3.192
40916SOL     OW24644   6.568  13.977   9.398
40916SOL    HW124645   6.627  13.911   9.433
40916SOL    HW224646   6.615  14.013   9.322
40917SOL     OW24647   9.100   9.472   5.831
40917SOL    HW124648   9.167   9.528   5.792
40917SOL    HW224649   9.118   9.385   5.794
40918SOL     OW24650   7.349   8.197   2.845
40918SOL    HW124651   7.322   8.190   2.753
40918SOL    HW224652   7.278   8.157   2.895
40919SOL     OW24653   9.016   6.992   5.770
40919SOL    HW124654   8.968   7.056   5.717
40919SOL    HW224655   9.028   7.036   5.855
40920SOL     OW24656   1.588   7.318  13.832
40920SOL    HW124657   1.531   7.257  13.785
40920SOL    HW224658   1.527   7.374  13.882
40921SOL     OW24659   1.153   1.267  10.587
40921SOL    HW124660   1.173   1.191  10.534
40921SOL    HW224661   1.091   1.318  10.535
40922SOL     OW24662  10.300   0.034  11.102
40922SOL    HW124663  10.334   0.088  11.174
40922SOL    HW224664  10.378  14.877  11.068
40923SOL     OW24665  13.349   9.876  12.452
40923SOL    HW124666  13.317   9.849  12.538
40923SOL    HW224667  13.413   9.809  12.428
40924SOL     OW24668  14.292  13.431   5.133
40924SOL    HW124669  14.356  13.375   5.177
40924SOL    HW224670  14.323  13.520   5.148
40925SOL     OW24671  11.175  14.575   4.896
40925SOL    HW124672  11.145  14.640   4.833
40925SOL    HW224673  11.268  14.565   4.877
40926SOL     OW24674   9.548   9.361   2.348
40926SOL    HW124675   9.509   9.334   2.265
40926SOL    HW224676   9.535   9.455   2.352
40927SOL     OW24677   2.164   7.017   1.699
40927SOL    HW124678   2.074   6.993   1.677
40927SOL    HW224679   2.171   7.000   1.793
40928SOL     OW24680   2.793   9.092   9.120
40928SOL    HW124681   2.769   9.000   9.108
40928SOL    HW224682   2.722   9.128   9.173
40929SOL     OW24683   1.908   8.060   2.749
40929SOL    HW124684   1.933   8.022   2.664
40929SOL    HW224685   1.967   8.136   2.758
40930SOL     OW24686   3.790   7.495   7.187
40930SOL    HW124687   3.807   7.437   7.262
40930SOL    HW224688   3.852   7.567   7.198
40931SOL     OW24689  11.318   5.110  14.786
40931SOL    HW124690  11.395   5.152  14.748
40931SOL    HW224691  11.328   5.017  14.763
40932SOL     OW24692  12.030  10.711   7.421
40932SOL    HW124693  12.092  10.734   7.352
40932SOL    HW224694  12.031  10.785   7.481
40933SOL     OW24695   3.873   9.880  10.013
40933SOL    HW124696   3.933   9.950   9.988
40933SOL    HW224697   3.918   9.833  10.083
40934SOL     OW24698   5.573   0.188   4.817
40934SOL    HW124699   5.618   0.104   4.819
40934SOL    HW224700   5.506   0.178   4.749
40935SOL     OW24701   5.671   7.630   2.527
40935SOL    HW124702   5.750   7.599   2.484
40935SOL    HW224703   5.691   7.627   2.620
40936SOL     OW24704   7.329   9.378  14.810
40936SOL    HW124705   7.365   9.427  14.736
40936SOL    HW224706   7.282   9.305  14.769
40937SOL     OW24707  12.015   0.352   1.565
40937SOL    HW124708  12.071   0.295   1.617
40937SOL    HW224709  12.009   0.308   1.480
40938SOL     OW24710  10.853  13.112  14.262
40938SOL    HW124711  10.759  13.108  14.279
40938SOL    HW224712  10.889  13.038  14.311
40939SOL     OW24713  12.336   9.523   1.372
40939SOL    HW124714  12.386   9.601   1.395
40939SOL    HW224715  12.294   9.496   1.454
40940SOL     OW24716   2.214   9.811   3.446
40940SOL    HW124717   2.225   9.852   3.360
40940SOL    HW224718   2.143   9.860   3.487
40941SOL     OW24719   9.092   5.134   9.014
40941SOL    HW124720   9.045   5.065   9.062
40941SOL    HW224721   9.028   5.168   8.952
40942SOL     OW24722   3.573   5.517  10.243
40942SOL    HW124723   3.505   5.512  10.175
40942SOL    HW224724   3.576   5.429  10.280
40943SOL     OW24725  13.373   9.486  14.062
40943SOL    HW124726  13.282   9.459  14.048
40943SOL    HW224727  13.374   9.525  14.149
40944SOL     OW24728  13.430   4.766   7.749
40944SOL    HW124729  13.427   4.671   7.766
40944SOL    HW224730  13.518   4.792   7.776
40945SOL     OW24731  12.905   3.139   4.868
40945SOL    HW124732  12.861   3.170   4.788
40945SOL    HW224733  12.918   3.218   4.920
40946SOL     OW24734  13.631  10.048   3.179
40946SOL    HW124735  13.655   9.955   3.187
40946SOL    HW224736  13.652  10.070   3.088
40947SOL     OW24737   5.157   8.879   5.569
40947SOL    HW124738   5.076   8.908   5.528
40947SOL    HW224739   5.139   8.883   5.663
40948SOL     OW24740   2.869  10.023   6.450
40948SOL    HW124741   2.867   9.992   6.359
40948SOL    HW224742   2.809   9.965   6.496
40949SOL     OW24743   9.218   4.311   5.110
40949SOL    HW124744   9.196   4.393   5.066
40949SOL    HW224745   9.214   4.332   5.204
40950SOL     OW24746   5.880   1.259   8.535
40950SOL    HW124747   5.890   1.330   8.599
40950SOL    HW224748   5.944   1.280   8.466
40951SOL     OW24749   5.113   8.233   1.284
40951SOL    HW124750   5.050   8.273   1.223
40951SOL    HW224751   5.063   8.165   1.329
40952SOL     OW24752   6.882  13.379   0.325
40952SOL    HW124753   6.944  13.333   0.381
40952SOL    HW224754   6.813  13.407   0.385
40953SOL     OW24755   7.018   5.552  10.579
40953SOL    HW124756   7.083   5.546  10.509
40953SOL    HW224757   7.067   5.531  10.658
40954SOL     OW24758   2.085  11.298   2.187
40954SOL    HW124759   2.003  11.340   2.159
40954SOL    HW224760   2.076  11.289   2.282
40955SOL     OW24761   6.180   9.846  14.792
40955SOL    HW124762   6.171   9.881  14.704
40955SOL    HW224763   6.111   9.889  14.843
40956SOL     OW24764   1.639   2.232  12.000
40956SOL    HW124765   1.592   2.149  12.003
40956SOL    HW224766   1.645   2.260  12.092
40957SOL     OW24767   9.248  12.914   0.817
40957SOL    HW124768   9.212  12.826   0.828
40957SOL    HW224769   9.324  12.903   0.760
40958SOL     OW24770   9.673   4.119  14.871
40958SOL    HW124771   9.669   4.045  14.811
40958SOL    HW224772   9.597   4.173  14.847
40959SOL     OW24773   8.108   0.272   2.436
40959SOL    HW124774   8.157   0.351   2.457
40959SOL    HW224775   8.147   0.204   2.490
40960SOL     OW24776   1.372   1.309  14.615
40960SOL    HW124777   1.327   1.233  14.651
40960SOL    HW224778   1.449   1.273  14.571
40961SOL     OW24779   6.489   4.107   6.420
40961SOL    HW124780   6.542   4.182   6.392
40961SOL    HW224781   6.401   4.127   6.390
40962SOL     OW24782   1.134   6.863  11.990
40962SOL    HW124783   1.137   6.877  11.896
40962SOL    HW224784   1.177   6.940  12.028
40963SOL     OW24785   3.082  13.831   1.996
40963SOL    HW124786   3.108  13.773   1.925
40963SOL    HW224787   3.043  13.773   2.062
40964SOL     OW24788   3.294  14.413   9.653
40964SOL    HW124789   3.234  14.436   9.724
40964SOL    HW224790   3.361  14.358   9.695
40965SOL     OW24791   5.891   4.697  11.123
40965SOL    HW124792   5.843   4.751  11.185
40965SOL    HW224793   5.830   4.684  11.050
40966SOL     OW24794  12.251   4.708   1.956
40966SOL    HW124795  12.250   4.748   2.043
40966SOL    HW224796  12.337   4.666   1.951
40967SOL     OW24797   9.488   7.678   4.858
40967SOL    HW124798   9.530   7.762   4.875
40967SOL    HW224799   9.394   7.696   4.867
40968SOL     OW24800  10.964   7.448   0.656
40968SOL    HW124801  10.946   7.369   0.707
40968SOL    HW224802  10.879   7.487   0.639
40969SOL     OW24803   6.659  11.128   3.673
40969SOL    HW124804   6.687  11.164   3.588
40969SOL    HW224805   6.631  11.039   3.653
40970SOL     OW24806   2.006   8.015  14.332
40970SOL    HW124807   2.073   8.030  14.265
40970SOL    HW224808   1.968   7.930  14.308
40971SOL     OW24809  14.777   5.155  10.036
40971SOL    HW124810  14.763   5.241  10.075
40971SOL    HW224811  14.871   5.152  10.018
40972SOL     OW24812   6.618   2.400   5.715
40972SOL    HW124813   6.595   2.370   5.803
40972SOL    HW224814   6.712   2.383   5.708
40973SOL     OW24815   0.482   1.706   8.129
40973SOL    HW124816   0.574   1.703   8.102
40973SOL    HW224817   0.469   1.796   8.159
40974SOL     OW24818   4.588   7.109   5.890
40974SOL    HW124819   4.522   7.138   5.953
40974SOL    HW224820   4.575   7.015   5.882
40975SOL     OW24821   7.529   0.379   6.207
40975SOL    HW124822   7.512   0.339   6.122
40975SOL    HW224823   7.486   0.322   6.270
40976SOL     OW24824   8.603   2.140   6.843
40976SOL    HW124825   8.559   2.159   6.760
40976SOL    HW224826   8.546   2.179   6.909
40977SOL     OW24827  11.893  10.934   9.142
40977SOL    HW124828  11.848  10.998   9.197
40977SOL    HW224829  11.873  10.962   9.052
40978SOL     OW24830   9.476   5.913  12.573
40978SOL    HW124831   9.456   5.832  12.620
40978SOL    HW224832   9.391   5.957  12.564
40979SOL     OW24833  10.079   5.895  12.521
40979SOL    HW124834  10.141   5.861  12.586
40979SOL    HW224835  10.133   5.937  12.455
40980SOL     OW24836  12.617   4.453   8.112
40980SOL    HW124837  12.685   4.460   8.045
40980SOL    HW224838  12.566   4.376   8.086
40981SOL     OW24839   3.191   5.338  14.604
40981SOL    HW124840   3.200   5.341  14.509
40981SOL    HW224841   3.267   5.386  14.637
40982SOL     OW24842   9.911  11.522  13.844
40982SOL    HW124843   9.820  11.550  13.838
40982SOL    HW224844   9.927  11.473  13.763
40983SOL     OW24845  10.621  13.771  10.692
40983SOL    HW124846  10.714  13.792  10.700
40983SOL    HW224847  10.576  13.855  10.706
40984SOL     OW24848   3.303  13.301   2.996
40984SOL    HW124849   3.267  13.212   2.990
40984SOL    HW224850   3.318  13.315   3.090
40985SOL     OW24851   2.149  12.344  12.478
40985SOL    HW124852   2.242  12.340  12.497
40985SOL    HW224853   2.108  12.285  12.541
40986SOL     OW24854  11.688  14.565   1.579
40986SOL    HW124855  11.778  14.594   1.591
40986SOL    HW224856  11.658  14.544   1.668
40987SOL     OW24857   3.193   5.817   8.776
40987SOL    HW124858   3.212   5.733   8.735
40987SOL    HW224859   3.120   5.800   8.835
40988SOL     OW24860   2.667  14.799   3.631
40988SOL    HW124861   2.694  14.809   3.540
40988SOL    HW224862   2.748  14.779   3.679
40989SOL     OW24863   2.713  10.468  11.072
40989SOL    HW124864   2.657  10.514  11.010
40989SOL    HW224865   2.713  10.523  11.151
40990SOL     OW24866   8.798   3.382  12.641
40990SOL    HW124867   8.760   3.316  12.582
40990SOL    HW224868   8.887   3.351  12.656
40991SOL     OW24869   3.672  11.080   3.934
40991SOL    HW124870   3.759  11.042   3.943
40991SOL    HW224871   3.688  11.171   3.908
40992SOL     OW24872  10.718  11.863   3.969
40992SOL    HW124873  10.709  11.928   3.899
40992SOL    HW224874  10.757  11.787   3.925
40993SOL     OW24875   2.613   9.732   3.194
40993SOL    HW124876   2.553   9.794   3.151
40993SOL    HW224877   2.606   9.753   3.287
40994SOL     OW24878   6.500  13.318   6.298
40994SOL    HW124879   6.495  13.412   6.313
40994SOL    HW224880   6.592  13.296   6.311
40995SOL     OW24881  14.186   8.898   8.994
40995SOL    HW124882  14.271   8.861   9.020
40995SOL    HW224883  14.147   8.930   9.075
40996SOL     OW24884   7.195  14.311   9.880
40996SOL    HW124885   7.217  14.401   9.904
40996SOL    HW224886   7.216  14.260   9.959
40997SOL     OW24887   0.433   1.423   0.071
40997SOL    HW124888   0.519   1.454   0.043
40997SOL    HW224889   0.370   1.478   0.025
40998SOL     OW24890   1.467   3.617  12.945
40998SOL    HW124891   1.490   3.607  12.853
40998SOL    HW224892   1.390   3.562  12.958
40999SOL     OW24893   4.909   6.936  14.657
40999SOL    HW124894   5.000   6.908  14.670
40999SOL    HW224895   4.895   6.929  14.563
41000SOL     OW24896   5.095   2.940   4.970
41000SOL    HW124897   5.078   2.905   5.058
41000SOL    HW224898   5.159   2.880   4.932
41001SOL     OW24899  13.022   7.167   1.794
41001SOL    HW124900  13.042   7.151   1.886
41001SOL    HW224901  12.958   7.239   1.796
41002SOL     OW24902   1.746   6.925  14.042
41002SOL    HW124903   1.824   6.945  14.093
41002SOL    HW224904   1.777   6.863  13.975
41003SOL     OW24905  14.323   1.291  10.303
41003SOL    HW124906  14.389   1.295  10.373
41003SOL    HW224907  14.320   1.379  10.267
41004SOL     OW24908  13.770   9.955   9.393
41004SOL    HW124909  13.735  10.044   9.398
41004SOL    HW224910  13.721   9.907   9.460
41005SOL     OW24911   1.112   4.588  12.805
41005SOL    HW124912   1.205   4.565  12.810
41005SOL    HW224913   1.108   4.662  12.744
41006SOL     OW24914   6.955   2.157  11.681
41006SOL    HW124915   6.936   2.230  11.740
41006SOL    HW224916   7.049   2.142  11.692
41007SOL     OW24917   4.646   7.269  11.060
41007SOL    HW124918   4.721   7.315  11.099
41007SOL    HW224919   4.677   7.179  11.047
41008SOL     OW24920   1.639   9.543  13.994
41008SOL    HW124921   1.600   9.579  13.915
41008SOL    HW224922   1.606   9.598  14.065
41009SOL     OW24923   3.320   4.008   9.610
41009SOL    HW124924   3.324   3.918   9.577
41009SOL    HW224925   3.274   4.056   9.541
41010SOL     OW24926   1.183   5.823  13.960
41010SOL    HW124927   1.132   5.752  13.921
41010SOL    HW224928   1.122   5.897  13.962
41011SOL     OW24929  14.880   5.429  10.179
41011SOL    HW124930  14.868   5.476  10.097
41011SOL    HW224931  14.792   5.396  10.201
41012SOL     OW24932   6.774   3.433  10.936
41012SOL    HW124933   6.693   3.444  10.886
41012SOL    HW224934   6.801   3.343  10.919
41013SOL     OW24935   6.140  13.758   5.973
41013SOL    HW124936   6.052  13.792   5.959
41013SOL    HW224937   6.152  13.761   6.068
41014SOL     OW24938   2.130  11.505  12.643
41014SOL    HW124939   2.116  11.413  12.665
41014SOL    HW224940   2.060  11.552  12.688
41015SOL     OW24941  13.008   7.901   8.843
41015SOL    HW124942  13.018   7.967   8.913
41015SOL    HW224943  12.918   7.913   8.813
41016SOL     OW24944   7.008   9.841   8.694
41016SOL    HW124945   7.064   9.800   8.760
41016SOL    HW224946   6.970   9.767   8.646
41017SOL     OW24947  10.378  10.775   0.475
41017SOL    HW124948  10.367  10.732   0.391
41017SOL    HW224949  10.466  10.750   0.503
41018SOL     OW24950   2.412   1.803   2.982
41018SOL    HW124951   2.480   1.801   2.915
41018SOL    HW224952   2.459   1.820   3.063
41019SOL     OW24953  14.804   6.867   3.294
41019SOL    HW124954  14.876   6.853   3.233
41019SOL    HW224955  14.737   6.803   3.267
41020SOL     OW24956   9.555  14.179   6.252
41020SOL    HW124957   9.537  14.270   6.279
41020SOL    HW224958   9.470  14.137   6.250
41021SOL     OW24959   3.872   8.287   1.778
41021SOL    HW124960   3.819   8.362   1.751
41021SOL    HW224961   3.884   8.236   1.697
41022SOL     OW24962  13.197  12.866  10.903
41022SOL    HW124963  13.229  12.778  10.923
41022SOL    HW224964  13.267  12.925  10.934
41023SOL     OW24965  14.704   2.900   2.550
41023SOL    HW124966  14.718   2.896   2.455
41023SOL    HW224967  14.746   2.982   2.577
41024SOL     OW24968  12.737  13.411   3.039
41024SOL    HW124969  12.731  13.380   3.130
41024SOL    HW224970  12.824  13.384   3.010
41025SOL     OW24971   0.061   5.184   2.534
41025SOL    HW124972   0.096   5.204   2.621
41025SOL    HW224973   0.136   5.152   2.484
41026SOL     OW24974   4.370   9.243   4.621
41026SOL    HW124975   4.378   9.303   4.546
41026SOL    HW224976   4.421   9.166   4.595
41027SOL     OW24977   0.196   2.544   4.406
41027SOL    HW124978   0.193   2.483   4.332
41027SOL    HW224979   0.108   2.582   4.409
41028SOL     OW24980  11.496   8.989   2.984
41028SOL    HW124981  11.403   8.964   2.988
41028SOL    HW224982  11.521   9.001   3.075
41029SOL     OW24983   2.954   0.635   1.383
41029SOL    HW124984   2.960   0.578   1.459
41029SOL    HW224985   2.922   0.719   1.419
41030SOL     OW24986  10.021   4.699   0.433
41030SOL    HW124987  10.036   4.685   0.527
41030SOL    HW224988   9.941   4.651   0.415
41031SOL     OW24989  11.443   1.309  10.151
41031SOL    HW124990  11.492   1.382  10.188
41031SOL    HW224991  11.452   1.239  10.216
41032SOL     OW24992   9.745  12.594   0.226
41032SOL    HW124993   9.788  12.523   0.177
41032SOL    HW224994   9.771  12.674   0.180
41033SOL     OW24995  12.596   2.926  11.803
41033SOL    HW124996  12.576   3.019  11.820
41033SOL    HW224997  12.684   2.914  11.838
41034SOL     OW24998   9.234  11.513   9.744
41034SOL    HW124999   9.208  11.521   9.653
41034SOL    HW225000   9.188  11.584   9.789
41035SOL     OW25001   4.711   3.949  11.336
41035SOL    HW125002   4.767   3.987  11.404
41035SOL    HW225003   4.714   3.855  11.352
41036SOL     OW25004  11.794  13.091  13.717
41036SOL    HW125005  11.833  13.059  13.636
41036SOL    HW225006  11.818  13.025  13.782
41037SOL     OW25007   3.901   6.484   9.296
41037SOL    HW125008   3.916   6.572   9.331
41037SOL    HW225009   3.969   6.472   9.231
41038SOL     OW25010  12.736   0.187  12.867
41038SOL    HW125011  12.646   0.183  12.900
41038SOL    HW225012  12.786   0.130  12.926
41039SOL     OW25013  11.849   6.087   0.063
41039SOL    HW125014  11.817   6.105  14.862
41039SOL    HW225015  11.868   6.173   0.100
41040SOL     OW25016   6.550   9.180  14.050
41040SOL    HW125017   6.613   9.127  14.100
41040SOL    HW225018   6.468   9.131  14.055
41041SOL     OW25019   3.885  13.292  14.716
41041SOL    HW125020   3.856  13.266  14.629
41041SOL    HW225021   3.910  13.384  14.708
41042SOL     OW25022  11.174   1.272   7.400
41042SOL    HW125023  11.171   1.184   7.363
41042SOL    HW225024  11.157   1.330   7.326
41043SOL     OW25025  10.573   6.642  11.841
41043SOL    HW125026  10.635   6.587  11.890
41043SOL    HW225027  10.536   6.583  11.775
41044SOL     OW25028   8.417   7.388   9.866
41044SOL    HW125029   8.502   7.369   9.908
41044SOL    HW225030   8.440   7.428   9.782
41045SOL     OW25031   1.685   2.033   0.226
41045SOL    HW125032   1.700   1.985   0.308
41045SOL    HW225033   1.639   1.971   0.170
41046SOL     OW25034   5.591  12.911   7.701
41046SOL    HW125035   5.587  12.831   7.754
41046SOL    HW225036   5.555  12.885   7.617
41047SOL     OW25037   1.108   3.145   7.176
41047SOL    HW125038   1.111   3.163   7.082
41047SOL    HW225039   1.057   3.065   7.184
41048SOL     OW25040   3.369  10.245  14.183
41048SOL    HW125041   3.455  10.216  14.153
41048SOL    HW225042   3.379  10.254  14.278
41049SOL     OW25043  12.414   1.935   3.765
41049SOL    HW125044  12.412   1.895   3.679
41049SOL    HW225045  12.436   2.027   3.749
41050SOL     OW25046   4.622   8.211   1.973
41050SOL    HW125047   4.636   8.297   1.934
41050SOL    HW225048   4.710   8.180   1.995
41051SOL     OW25049   2.116   6.692  14.728
41051SOL    HW125050   2.045   6.681  14.791
41051SOL    HW225051   2.131   6.787  14.725
41052SOL     OW25052   5.826   2.682   3.325
41052SOL    HW125053   5.779   2.681   3.409
41052SOL    HW225054   5.771   2.631   3.266
41053SOL     OW25055  14.383  14.763   4.992
41053SOL    HW125056  14.290  14.785   4.985
41053SOL    HW225057  14.403  14.775   5.085
41054SOL     OW25058   7.877   2.315  12.506
41054SOL    HW125059   7.851   2.298  12.415
41054SOL    HW225060   7.825   2.390  12.532
41055SOL     OW25061  13.495  10.192  10.855
41055SOL    HW125062  13.570  10.135  10.871
41055SOL    HW225063  13.534  10.278  10.840
41056SOL     OW25064   7.147   4.784  10.151
41056SOL    HW125065   7.103   4.856  10.197
41056SOL    HW225066   7.240   4.802  10.161
41057SOL     OW25067   1.381  12.410   6.153
41057SOL    HW125068   1.397  12.397   6.246
41057SOL    HW225069   1.289  12.438   6.148
41058SOL     OW25070   3.396   3.827   5.135
41058SOL    HW125071   3.430   3.805   5.222
41058SOL    HW225072   3.308   3.789   5.133
41059SOL     OW25073  10.199   0.089  14.326
41059SOL    HW125074  10.183  14.883  14.335
41059SOL    HW225075  10.295   0.098  14.332
41060SOL     OW25076  14.316   5.133   9.765
41060SOL    HW125077  14.411   5.129   9.778
41060SOL    HW225078  14.302   5.089   9.681
41061SOL     OW25079   4.217   8.078   3.951
41061SOL    HW125080   4.180   8.162   3.977
41061SOL    HW225081   4.306   8.098   3.923
41062SOL     OW25082  13.022   1.051   6.944
41062SOL    HW125083  13.115   1.031   6.953
41062SOL    HW225084  13.005   1.045   6.849
41063SOL     OW25085   5.398   6.263  14.555
41063SOL    HW125086   5.461   6.221  14.497
41063SOL    HW225087   5.341   6.192  14.584
41064SOL     OW25088   0.251  14.165   6.551
41064SOL    HW125089   0.235  14.259   6.566
41064SOL    HW225090   0.171  14.122   6.580
41065SOL     OW25091  10.250   6.387   5.901
41065SOL    HW125092  10.319   6.443   5.865
41065SOL    HW225093  10.231   6.423   5.987
41066SOL     OW25094   9.226   8.437   2.323
41066SOL    HW125095   9.267   8.472   2.244
41066SOL    HW225096   9.232   8.508   2.387
41067SOL     OW25097   5.257   4.969  12.936
41067SOL    HW125098   5.185   5.032  12.934
41067SOL    HW225099   5.215   4.885  12.954
41068SOL     OW25100   5.346  14.743   8.869
41068SOL    HW125101   5.358  14.648   8.871
41068SOL    HW225102   5.421  14.776   8.820
41069SOL     OW25103   9.531   7.672   1.030
41069SOL    HW125104   9.436   7.683   1.021
41069SOL    HW225105   9.561   7.655   0.940
41070SOL     OW25106  14.509   4.359  10.723
41070SOL    HW125107  14.533   4.409  10.646
41070SOL    HW225108  14.430   4.401  10.756
41071SOL     OW25109   9.787   0.966   4.104
41071SOL    HW125110   9.808   1.048   4.149
41071SOL    HW225111   9.737   0.916   4.169
41072SOL     OW25112  13.385  10.540  12.397
41072SOL    HW125113  13.474  10.528  12.431
41072SOL    HW225114  13.349  10.452  12.393
41073SOL     OW25115   9.517   4.858   2.085
41073SOL    HW125116   9.511   4.784   2.145
41073SOL    HW225117   9.446   4.844   2.022
41074SOL     OW25118  11.773   6.500  13.955
41074SOL    HW125119  11.729   6.537  13.879
41074SOL    HW225120  11.794   6.575  14.010
41075SOL     OW25121   3.678   0.700  11.938
41075SOL    HW125122   3.745   0.673  12.002
41075SOL    HW225123   3.724   0.761  11.881
41076SOL     OW25124  14.530  12.456  11.423
41076SOL    HW125125  14.521  12.385  11.359
41076SOL    HW225126  14.446  12.457  11.470
41077SOL     OW25127   5.184   6.879   8.021
41077SOL    HW125128   5.235   6.807   8.058
41077SOL    HW225129   5.188   6.947   8.088
41078SOL     OW25130  10.259  10.266   2.494
41078SOL    HW125131  10.315  10.282   2.418
41078SOL    HW225132  10.222  10.352   2.515
41079SOL     OW25133  14.294   2.973  11.552
41079SOL    HW125134  14.296   3.022  11.634
41079SOL    HW225135  14.374   2.999  11.506
41080SOL     OW25136   0.639  14.031  13.415
41080SOL    HW125137   0.693  14.104  13.447
41080SOL    HW225138   0.567  14.025  13.479
41081SOL     OW25139  12.583   5.634   6.072
41081SOL    HW125140  12.541   5.718   6.051
41081SOL    HW225141  12.582   5.586   5.990
41082SOL     OW25142   4.467   1.283  14.244
41082SOL    HW125143   4.456   1.189  14.254
41082SOL    HW225144   4.381   1.315  14.216
41083SOL     OW25145   5.686   7.559  11.155
41083SOL    HW125146   5.648   7.578  11.241
41083SOL    HW225147   5.773   7.525  11.174
41084SOL     OW25148   1.166   3.907   9.694
41084SOL    HW125149   1.102   3.917   9.624
41084SOL    HW225150   1.152   3.982   9.751
41085SOL     OW25151   8.559   3.943   1.104
41085SOL    HW125152   8.495   4.008   1.133
41085SOL    HW225153   8.577   3.967   1.013
41086SOL     OW25154   4.582   9.595   8.985
41086SOL    HW125155   4.596   9.503   8.963
41086SOL    HW225156   4.668   9.626   9.012
41087SOL     OW25157   4.639   9.233  11.079
41087SOL    HW125158   4.618   9.326  11.068
41087SOL    HW225159   4.556   9.193  11.105
41088SOL     OW25160  10.736   4.620  14.556
41088SOL    HW125161  10.824   4.608  14.592
41088SOL    HW225162  10.719   4.540  14.506
41089SOL     OW25163  10.527  11.397   5.463
41089SOL    HW125164  10.488  11.449   5.393
41089SOL    HW225165  10.539  11.459   5.535
41090SOL     OW25166  11.357   3.265   6.056
41090SOL    HW125167  11.419   3.195   6.038
41090SOL    HW225168  11.380   3.334   5.993
41091SOL     OW25169   5.378  14.448   9.266
41091SOL    HW125170   5.410  14.358   9.264
41091SOL    HW225171   5.324  14.456   9.187
41092SOL     OW25172   2.250   2.518   6.717
41092SOL    HW125173   2.337   2.557   6.708
41092SOL    HW225174   2.261   2.428   6.687
41093SOL     OW25175   8.030  12.254   2.566
41093SOL    HW125176   8.121  12.259   2.536
41093SOL    HW225177   8.033  12.206   2.648
41094SOL     OW25178   2.124  10.183  10.664
41094SOL    HW125179   2.047  10.235  10.688
41094SOL    HW225180   2.107  10.156  10.573
41095SOL     OW25181   7.647   0.647   9.786
41095SOL    HW125182   7.674   0.650   9.694
41095SOL    HW225183   7.609   0.560   9.797
41096SOL     OW25184   5.746  12.319   1.706
41096SOL    HW125185   5.801  12.289   1.634
41096SOL    HW225186   5.804  12.373   1.760
41097SOL     OW25187  12.222   2.243  12.859
41097SOL    HW125188  12.159   2.182  12.820
41097SOL    HW225189  12.199   2.328  12.822
41098SOL     OW25190   0.900   0.504  12.317
41098SOL    HW125191   0.946   0.452  12.251
41098SOL    HW225192   0.962   0.509  12.390
41099SOL     OW25193  14.740  10.493   3.880
41099SOL    HW125194  14.693  10.547   3.943
41099SOL    HW225195  14.672  10.462   3.820
41100SOL     OW25196  13.449   0.694   1.129
41100SOL    HW125197  13.454   0.753   1.054
41100SOL    HW225198  13.358   0.700   1.158
41101SOL     OW25199  11.195   1.730   1.006
41101SOL    HW125200  11.170   1.795   1.072
41101SOL    HW225201  11.205   1.649   1.056
41102SOL     OW25202  13.674  13.015  11.112
41102SOL    HW125203  13.756  13.060  11.132
41102SOL    HW225204  13.690  12.924  11.139
41103SOL     OW25205   5.621   6.795   3.776
41103SOL    HW125206   5.711   6.783   3.808
41103SOL    HW225207   5.624   6.876   3.725
41104SOL     OW25208  11.028   7.724   6.078
41104SOL    HW125209  11.037   7.815   6.050
41104SOL    HW225210  11.040   7.727   6.173
41105SOL     OW25211   6.634  10.382   1.709
41105SOL    HW125212   6.687  10.324   1.655
41105SOL    HW225213   6.546  10.378   1.671
41106SOL     OW25214   5.796   7.569  11.579
41106SOL    HW125215   5.887   7.598  11.587
41106SOL    HW225216   5.802   7.474  11.570
41107SOL     OW25217   2.834   8.217   0.746
41107SOL    HW125218   2.847   8.312   0.750
41107SOL    HW225219   2.811   8.201   0.654
41108SOL     OW25220   6.541   3.222   6.727
41108SOL    HW125221   6.579   3.135   6.736
41108SOL    HW225222   6.616   3.280   6.711
41109SOL     OW25223   3.705  14.694   5.831
41109SOL    HW125224   3.623  14.728   5.795
41109SOL    HW225225   3.686  14.602   5.851
41110SOL     OW25226   7.650  10.618   7.834
41110SOL    HW125227   7.720  10.555   7.819
41110SOL    HW225228   7.584  10.596   7.767
41111SOL     OW25229  14.466   3.291  13.671
41111SOL    HW125230  14.560   3.284  13.685
41111SOL    HW225231  14.442   3.210  13.628
41112SOL     OW25232  14.225   0.177  10.209
41112SOL    HW125233  14.135   0.193  10.179
41112SOL    HW225234  14.277   0.246  10.169
41113SOL     OW25235  13.047   4.323  12.633
41113SOL    HW125236  13.017   4.332  12.723
41113SOL    HW225237  12.967   4.314  12.581
41114SOL     OW25238   4.379   8.414  12.415
41114SOL    HW125239   4.343   8.417  12.503
41114SOL    HW225240   4.303   8.398  12.359
41115SOL     OW25241   9.752   1.599   5.814
41115SOL    HW125242   9.847   1.605   5.807
41115SOL    HW225243   9.732   1.508   5.795
41116SOL     OW25244   3.897  13.452   6.485
41116SOL    HW125245   3.808  13.432   6.513
41116SOL    HW225246   3.951  13.434   6.561
41117SOL     OW25247   8.415   2.158   5.777
41117SOL    HW125248   8.493   2.136   5.726
41117SOL    HW225249   8.382   2.074   5.809
41118SOL     OW25250   9.214   3.552  11.282
41118SOL    HW125251   9.223   3.534  11.188
41118SOL    HW225252   9.194   3.646  11.286
41119SOL     OW25253  13.683   4.547   7.118
41119SOL    HW125254  13.705   4.595   7.038
41119SOL    HW225255  13.765   4.506   7.145
41120SOL     OW25256   0.158   6.999   4.019
41120SOL    HW125257   0.225   6.976   3.955
41120SOL    HW225258   0.124   6.915   4.049
41121SOL     OW25259   1.117  13.387   7.054
41121SOL    HW125260   1.050  13.333   7.012
41121SOL    HW225261   1.112  13.364   7.146
41122SOL     OW25262  14.465   0.053   9.655
41122SOL    HW125263  14.560   0.053   9.644
41122SOL    HW225264  14.445  14.856   9.695
41123SOL     OW25265   5.590   7.615   5.529
41123SOL    HW125266   5.526   7.613   5.600
41123SOL    HW225267   5.540   7.644   5.453
41124SOL     OW25268  12.810  14.021   7.463
41124SOL    HW125269  12.753  13.955   7.423
41124SOL    HW225270  12.897  14.003   7.428
41125SOL     OW25271   8.732  14.091   4.020
41125SOL    HW125272   8.673  14.166   4.026
41125SOL    HW225273   8.778  14.103   3.937
41126SOL     OW25274   4.453   9.824   3.090
41126SOL    HW125275   4.514   9.753   3.071
41126SOL    HW225276   4.493   9.902   3.051
41127SOL     OW25277   5.349   7.264   0.371
41127SOL    HW125278   5.411   7.336   0.383
41127SOL    HW225279   5.384   7.194   0.426
41128SOL     OW25280  13.084   5.584  13.161
41128SOL    HW125281  13.126   5.619  13.239
41128SOL    HW225282  13.126   5.499  13.147
41129SOL     OW25283  11.926   9.166   5.451
41129SOL    HW125284  11.989   9.219   5.501
41129SOL    HW225285  11.854   9.151   5.513
41130SOL     OW25286  12.760  14.143  11.965
41130SOL    HW125287  12.843  14.147  11.918
41130SOL    HW225288  12.723  14.231  11.955
41131SOL     OW25289   8.893   8.481   6.427
41131SOL    HW125290   8.857   8.487   6.338
41131SOL    HW225291   8.988   8.493   6.414
41132SOL     OW25292   9.723   2.355   9.724
41132SOL    HW125293   9.640   2.403   9.726
41132SOL    HW225294   9.782   2.407   9.778
41133SOL     OW25295  14.662  12.499  14.218
41133SOL    HW125296  14.608  12.508  14.139
41133SOL    HW225297  14.611  12.441  14.274
41134SOL     OW25298   2.648  11.739  11.028
41134SOL    HW125299   2.723  11.797  11.016
41134SOL    HW225300   2.686  11.654  11.048
41135SOL     OW25301   3.546   4.635   8.474
41135SOL    HW125302   3.485   4.681   8.532
41135SOL    HW225303   3.516   4.655   8.386
41136SOL     OW25304  12.500   4.501  10.681
41136SOL    HW125305  12.571   4.496  10.617
41136SOL    HW225306  12.447   4.575  10.653
41137SOL     OW25307  14.216   8.017   2.358
41137SOL    HW125308  14.128   8.000   2.393
41137SOL    HW225309  14.205   8.018   2.263
41138SOL     OW25310  12.892   3.540   1.088
41138SOL    HW125311  12.832   3.563   1.016
41138SOL    HW225312  12.973   3.588   1.068
41139SOL     OW25313  11.916  11.864   8.151
41139SOL    HW125314  11.954  11.947   8.179
41139SOL    HW225315  11.956  11.798   8.208
41140SOL     OW25316   1.934   0.371   8.653
41140SOL    HW125317   1.966   0.376   8.563
41140SOL    HW225318   1.893   0.284   8.659
41141SOL     OW25319  10.242  13.524   9.669
41141SOL    HW125320  10.202  13.576   9.738
41141SOL    HW225321  10.262  13.441   9.710
41142SOL     OW25322   5.345   0.667  10.479
41142SOL    HW125323   5.284   0.594  10.468
41142SOL    HW225324   5.410   0.656  10.410
41143SOL     OW25325   7.749   0.112   8.712
41143SOL    HW125326   7.724   0.026   8.677
41143SOL    HW225327   7.799   0.091   8.791
41144SOL     OW25328   5.311  10.292   2.064
41144SOL    HW125329   5.396  10.308   2.024
41144SOL    HW225330   5.279  10.379   2.088
41145SOL     OW25331   9.604   0.837   7.942
41145SOL    HW125332   9.695   0.808   7.938
41145SOL    HW225333   9.570   0.802   8.024
41146SOL     OW25334   3.165   8.815   8.258
41146SOL    HW125335   3.156   8.909   8.242
41146SOL    HW225336   3.077   8.780   8.247
41147SOL     OW25337  14.300  14.002   7.662
41147SOL    HW125338  14.244  13.974   7.590
41147SOL    HW225339  14.241  14.046   7.723
41148SOL     OW25340  14.257  12.655  13.125
41148SOL    HW125341  14.260  12.750  13.121
41148SOL    HW225342  14.345  12.627  13.099
41149SOL     OW25343   8.691  13.648   9.505
41149SOL    HW125344   8.643  13.624   9.584
41149SOL    HW225345   8.714  13.564   9.466
41150SOL     OW25346  14.639  12.071   9.306
41150SOL    HW125347  14.627  12.109   9.219
41150SOL    HW225348  14.567  12.008   9.315
41151SOL     OW25349   2.647   3.879  12.236
41151SOL    HW125350   2.577   3.865  12.173
41151SOL    HW225351   2.702   3.801  12.228
41152SOL     OW25352   7.331  13.575   4.417
41152SOL    HW125353   7.342  13.596   4.510
41152SOL    HW225354   7.393  13.632   4.372
41153SOL     OW25355  11.553   8.984   3.277
41153SOL    HW125356  11.546   9.045   3.351
41153SOL    HW225357  11.550   8.897   3.317
41154SOL     OW25358   6.189   1.513   7.969
41154SOL    HW125359   6.213   1.478   7.884
41154SOL    HW225360   6.272   1.530   8.013
41155SOL     OW25361  14.278   1.567   0.748
41155SOL    HW125362  14.264   1.547   0.841
41155SOL    HW225363  14.340   1.640   0.749
41156SOL     OW25364  11.413   6.679   8.093
41156SOL    HW125365  11.495   6.629   8.087
41156SOL    HW225366  11.431   6.761   8.048
41157SOL     OW25367  13.389   7.962   7.819
41157SOL    HW125368  13.462   7.903   7.841
41157SOL    HW225369  13.327   7.950   7.891
41158SOL     OW25370   3.800   5.510   1.067
41158SOL    HW125371   3.771   5.518   1.158
41158SOL    HW225372   3.866   5.578   1.056
41159SOL     OW25373   5.027   2.245   6.923
41159SOL    HW125374   5.116   2.253   6.888
41159SOL    HW225375   5.028   2.299   7.002
41160SOL     OW25376  10.461   3.209   8.434
41160SOL    HW125377  10.392   3.207   8.368
41160SOL    HW225378  10.497   3.120   8.434
41161SOL     OW25379   7.578   6.311   1.660
41161SOL    HW125380   7.563   6.220   1.634
41161SOL    HW225381   7.491   6.350   1.663
41162SOL     OW25382  10.135   7.414   9.267
41162SOL    HW125383  10.204   7.423   9.201
41162SOL    HW225384  10.151   7.485   9.329
41163SOL     OW25385  14.001   4.706   3.041
41163SOL    HW125386  13.959   4.741   3.119
41163SOL    HW225387  14.079   4.661   3.074
41164SOL     OW25388  10.717  11.311  11.074
41164SOL    HW125389  10.637  11.259  11.082
41164SOL    HW225390  10.785  11.254  11.110
41165SOL     OW25391   5.372  11.713   8.082
41165SOL    HW125392   5.357  11.716   7.988
41165SOL    HW225393   5.297  11.666   8.117
41166SOL     OW25394   3.087   5.792   7.041
41166SOL    HW125395   3.171   5.764   7.004
41166SOL    HW225396   3.041   5.710   7.059
41167SOL     OW25397   4.149  13.118   4.908
41167SOL    HW125398   4.237  13.125   4.872
41167SOL    HW225399   4.114  13.207   4.903
41168SOL     OW25400   4.462   8.617  11.810
41168SOL    HW125401   4.452   8.663  11.894
41168SOL    HW225402   4.438   8.682  11.744
41169SOL     OW25403  14.010   7.957   1.239
41169SOL    HW125404  13.930   7.945   1.290
41169SOL    HW225405  14.078   7.971   1.305
41170SOL     OW25406  11.534   8.377  13.139
41170SOL    HW125407  11.570   8.417  13.219
41170SOL    HW225408  11.588   8.300  13.124
41171SOL     OW25409  10.321  10.850   9.883
41171SOL    HW125410  10.295  10.764   9.915
41171SOL    HW225411  10.247  10.907   9.906
41172SOL     OW25412   1.150   8.217   1.829
41172SOL    HW125413   1.067   8.215   1.876
41172SOL    HW225414   1.216   8.195   1.896
41173SOL     OW25415   6.302   1.093   3.975
41173SOL    HW125416   6.283   1.098   3.882
41173SOL    HW225417   6.313   1.184   4.003
41174SOL     OW25418   9.136   6.379   6.340
41174SOL    HW125419   9.190   6.353   6.414
41174SOL    HW225420   9.177   6.460   6.307
41175SOL     OW25421  12.741  12.338  10.773
41175SOL    HW125422  12.810  12.374  10.829
41175SOL    HW225423  12.726  12.406  10.707
41176SOL     OW25424   0.890  11.781  12.213
41176SOL    HW125425   0.795  11.779  12.198
41176SOL    HW225426   0.915  11.689  12.217
41177SOL     OW25427   0.366  14.481  14.864
41177SOL    HW125428   0.415  14.400  14.872
41177SOL    HW225429   0.422  14.539  14.813
41178SOL     OW25430   4.089  11.085   4.465
41178SOL    HW125431   4.116  11.060   4.553
41178SOL    HW225432   3.998  11.054   4.458
41179SOL     OW25433  11.435   4.865  10.248
41179SOL    HW125434  11.375   4.871  10.322
41179SOL    HW225435  11.379   4.860  10.171
41180SOL     OW25436  12.092  13.577   5.167
41180SOL    HW125437  12.037  13.600   5.242
41180SOL    HW225438  12.093  13.655   5.112
41181SOL     OW25439  13.897   2.444   1.213
41181SOL    HW125440  13.862   2.364   1.174
41181SOL    HW225441  13.832   2.511   1.192
41182SOL     OW25442   8.624  12.961   2.994
41182SOL    HW125443   8.532  12.988   2.994
41182SOL    HW225444   8.626  12.883   3.050
41183SOL     OW25445  14.266  12.348  11.114
41183SOL    HW125446  14.310  12.356  11.198
41183SOL    HW225447  14.277  12.434  11.073
41184SOL     OW25448   5.909  12.829   6.096
41184SOL    HW125449   5.829  12.778   6.107
41184SOL    HW225450   5.900  12.901   6.159
41185SOL     OW25451   5.665   5.419   3.222
41185SOL    HW125452   5.724   5.489   3.196
41185SOL    HW225453   5.719   5.358   3.271
41186SOL     OW25454  12.730   3.142   3.822
41186SOL    HW125455  12.762   3.078   3.886
41186SOL    HW225456  12.784   3.127   3.745
41187SOL     OW25457   9.822   0.413   8.658
41187SOL    HW125458   9.835   0.408   8.753
41187SOL    HW225459   9.758   0.483   8.646
41188SOL     OW25460   7.061  12.004  13.656
41188SOL    HW125461   7.068  11.992  13.561
41188SOL    HW225462   6.971  11.979  13.677
41189SOL     OW25463   4.719   5.520  11.802
41189SOL    HW125464   4.799   5.542  11.755
41189SOL    HW225465   4.748   5.504  11.892
41190SOL     OW25466  12.110   9.911   6.737
41190SOL    HW125467  12.165   9.960   6.798
41190SOL    HW225468  12.157   9.913   6.654
41191SOL     OW25469   7.208   6.423   3.771
41191SOL    HW125470   7.187   6.424   3.678
41191SOL    HW225471   7.178   6.507   3.804
41192SOL     OW25472  10.512   6.033   1.261
41192SOL    HW125473  10.441   5.971   1.278
41192SOL    HW225474  10.565   6.031   1.341
41193SOL     OW25475   0.698   3.488   6.574
41193SOL    HW125476   0.605   3.501   6.554
41193SOL    HW225477   0.698   3.446   6.660
41194SOL     OW25478  11.593   7.324  14.726
41194SOL    HW125479  11.537   7.253  14.696
41194SOL    HW225480  11.659   7.281  14.781
41195SOL     OW25481  14.585  11.667   6.273
41195SOL    HW125482  14.524  11.714   6.215
41195SOL    HW225483  14.560  11.695   6.361
41196SOL     OW25484   4.616   9.837  10.223
41196SOL    HW125485   4.646   9.898  10.290
41196SOL    HW225486   4.528   9.811  10.251
41197SOL     OW25487   3.636  11.517   2.995
41197SOL    HW125488   3.654  11.424   3.008
41197SOL    HW225489   3.564  11.519   2.932
41198SOL     OW25490   2.756   3.263   2.787
41198SOL    HW125491   2.826   3.278   2.850
41198SOL    HW225492   2.801   3.241   2.706
41199SOL     OW25493   3.609  14.351   2.933
41199SOL    HW125494   3.688  14.309   2.967
41199SOL    HW225495   3.567  14.391   3.009
41200SOL     OW25496   6.014  11.602   6.834
41200SOL    HW125497   5.919  11.597   6.821
41200SOL    HW225498   6.026  11.575   6.925
41201SOL     OW25499  14.647   5.807   1.133
41201SOL    HW125500  14.574   5.851   1.175
41201SOL    HW225501  14.687   5.756   1.203
41202SOL     OW25502   0.348  10.298  11.784
41202SOL    HW125503   0.390  10.250  11.712
41202SOL    HW225504   0.374  10.389  11.770
41203SOL     OW25505  13.067  12.059   6.291
41203SOL    HW125506  13.134  12.028   6.230
41203SOL    HW225507  13.005  12.106   6.236
41204SOL     OW25508  12.660  11.238   5.104
41204SOL    HW125509  12.572  11.233   5.140
41204SOL    HW225510  12.648  11.234   5.009
41205SOL     OW25511   5.458  10.650   0.496
41205SOL    HW125512   5.489  10.733   0.459
41205SOL    HW225513   5.532  10.590   0.485
41206SOL     OW25514   8.642  11.005   4.814
41206SOL    HW125515   8.558  10.994   4.859
41206SOL    HW225516   8.639  10.940   4.743
41207SOL     OW25517   4.477   9.843   9.689
41207SOL    HW125518   4.386   9.823   9.713
41207SOL    HW225519   4.505   9.909   9.754
41208SOL     OW25520   5.318   4.727   3.244
41208SOL    HW125521   5.390   4.777   3.282
41208SOL    HW225522   5.243   4.786   3.251
41209SOL     OW25523   2.904  12.872   7.062
41209SOL    HW125524   2.950  12.955   7.067
41209SOL    HW225525   2.876  12.855   7.152
41210SOL     OW25526   5.430  12.736  13.856
41210SOL    HW125527   5.514  12.772  13.885
41210SOL    HW225528   5.369  12.810  13.860
41211SOL     OW25529   1.994   4.610  14.464
41211SOL    HW125530   1.920   4.671  14.465
41211SOL    HW225531   2.039   4.626  14.547
41212SOL     OW25532   3.341   9.333  14.026
41212SOL    HW125533   3.255   9.374  14.019
41212SOL    HW225534   3.327   9.242  14.001
41213SOL     OW25535   9.680  10.142   1.844
41213SOL    HW125536   9.716  10.059   1.876
41213SOL    HW225537   9.654  10.189   1.923
41214SOL     OW25538  13.173   8.896  11.070
41214SOL    HW125539  13.162   8.817  11.017
41214SOL    HW225540  13.243   8.945  11.026
41215SOL     OW25541  14.090   2.262   9.333
41215SOL    HW125542  14.146   2.318   9.279
41215SOL    HW225543  14.074   2.184   9.280
41216SOL     OW25544   0.212   0.285  12.406
41216SOL    HW125545   0.191   0.212  12.348
41216SOL    HW225546   0.296   0.318  12.374
41217SOL     OW25547   8.865  13.975   6.945
41217SOL    HW125548   8.787  14.004   6.992
41217SOL    HW225549   8.888  13.892   6.986
41218SOL     OW25550  12.902   6.995   1.643
41218SOL    HW125551  12.916   7.063   1.709
41218SOL    HW225552  12.964   7.016   1.573
41219SOL     OW25553   7.019   5.984   1.153
41219SOL    HW125554   7.026   5.943   1.240
41219SOL    HW225555   6.979   6.069   1.170
41220SOL     OW25556  12.736   6.577   0.570
41220SOL    HW125557  12.788   6.656   0.584
41220SOL    HW225558  12.771   6.539   0.490
41221SOL     OW25559   3.349   6.889  11.777
41221SOL    HW125560   3.405   6.966  11.767
41221SOL    HW225561   3.353   6.868  11.870
41222SOL     OW25562  10.356  14.287   9.298
41222SOL    HW125563  10.315  14.337   9.227
41222SOL    HW225564  10.283  14.261   9.354
41223SOL     OW25565  14.241  10.815   1.585
41223SOL    HW125566  14.200  10.730   1.566
41223SOL    HW225567  14.306  10.795   1.653
41224SOL     OW25568   3.481   7.642   5.580
41224SOL    HW125569   3.463   7.707   5.512
41224SOL    HW225570   3.553   7.681   5.631
41225SOL     OW25571  14.737   7.558   2.240
41225SOL    HW125572  14.736   7.581   2.147
41225SOL    HW225573  14.796   7.484   2.246
41226SOL     OW25574   1.795   0.287   3.316
41226SOL    HW125575   1.800   0.301   3.410
41226SOL    HW225576   1.886   0.271   3.289
41227SOL     OW25577   2.513  12.515   2.237
41227SOL    HW125578   2.569  12.531   2.161
41227SOL    HW225579   2.425  12.539   2.208
41228SOL     OW25580   2.407   1.014  11.452
41228SOL    HW125581   2.455   1.035  11.533
41228SOL    HW225582   2.354   1.092  11.435
41229SOL     OW25583   5.166   2.732  10.192
41229SOL    HW125584   5.134   2.716  10.281
41229SOL    HW225585   5.087   2.748  10.140
41230SOL     OW25586   2.027   2.213   5.671
41230SOL    HW125587   2.022   2.126   5.709
41230SOL    HW225588   1.943   2.254   5.694
41231SOL     OW25589   6.794  10.236   0.620
41231SOL    HW125590   6.885  10.208   0.629
41231SOL    HW225591   6.745  10.178   0.679
41232SOL     OW25592  11.096   4.038   5.066
41232SOL    HW125593  11.053   3.953   5.077
41232SOL    HW225594  11.103   4.050   4.971
41233SOL     OW25595  10.369   6.762   5.103
41233SOL    HW125596  10.288   6.719   5.076
41233SOL    HW225597  10.377   6.837   5.045
41234SOL     OW25598   3.818   5.344  11.306
41234SOL    HW125599   3.870   5.423  11.316
41234SOL    HW225600   3.834   5.315  11.216
41235SOL     OW25601   9.996  14.711   9.274
41235SOL    HW125602   9.946  14.781   9.233
41235SOL    HW225603  10.006  14.645   9.206
41236SOL     OW25604  10.033  12.597  14.186
41236SOL    HW125605  10.107  12.622  14.131
41236SOL    HW225606   9.960  12.652  14.156
41237SOL     OW25607  13.433   6.454   7.056
41237SOL    HW125608  13.485   6.496   6.987
41237SOL    HW225609  13.349   6.435   7.014
41238SOL     OW25610  11.997   0.183   0.934
41238SOL    HW125611  12.074   0.231   0.965
41238SOL    HW225612  11.974   0.226   0.852
41239SOL     OW25613  13.256   5.663   3.312
41239SOL    HW125614  13.336   5.677   3.362
41239SOL    HW225615  13.260   5.570   3.287
41240SOL     OW25616  11.812   5.185   6.807
41240SOL    HW125617  11.833   5.130   6.731
41240SOL    HW225618  11.782   5.267   6.769
41241SOL     OW25619   8.896   4.159  12.766
41241SOL    HW125620   8.866   4.237  12.813
41241SOL    HW225621   8.852   4.086  12.810
41242SOL     OW25622   4.860   9.306   2.009
41242SOL    HW125623   4.867   9.401   2.000
41242SOL    HW225624   4.785   9.293   2.066
41243SOL     OW25625   2.101  10.977   6.915
41243SOL    HW125626   2.007  10.993   6.909
41243SOL    HW225627   2.115  10.953   7.007
41244SOL     OW25628   3.923   4.424   5.131
41244SOL    HW125629   3.896   4.334   5.146
41244SOL    HW225630   3.989   4.441   5.198
41245SOL     OW25631   4.053  13.050   7.976
41245SOL    HW125632   4.059  12.997   7.896
41245SOL    HW225633   4.143  13.050   8.011
41246SOL     OW25634  10.516   4.666   5.126
41246SOL    HW125635  10.486   4.594   5.071
41246SOL    HW225636  10.451   4.671   5.197
41247SOL     OW25637   6.679   0.918  11.585
41247SOL    HW125638   6.650   0.829  11.567
41247SOL    HW225639   6.656   0.967  11.505
41248SOL     OW25640   3.524   4.987   5.081
41248SOL    HW125641   3.540   4.953   5.168
41248SOL    HW225642   3.603   5.037   5.060
41249SOL     OW25643   5.908   7.408   8.671
41249SOL    HW125644   5.870   7.418   8.584
41249SOL    HW225645   5.846   7.451   8.730
41250SOL     OW25646   3.625   9.421   1.575
41250SOL    HW125647   3.590   9.509   1.565
41250SOL    HW225648   3.595   9.392   1.661
41251SOL     OW25649  14.101   4.238  12.598
41251SOL    HW125650  14.007   4.244  12.613
41251SOL    HW225651  14.122   4.145  12.611
41252SOL     OW25652   5.495  11.379   7.286
41252SOL    HW125653   5.450  11.462   7.298
41252SOL    HW225654   5.425  11.315   7.274
41253SOL     OW25655   5.446   1.510   3.606
41253SOL    HW125656   5.435   1.515   3.511
41253SOL    HW225657   5.537   1.534   3.621
41254SOL     OW25658   1.654   2.169   8.555
41254SOL    HW125659   1.690   2.176   8.643
41254SOL    HW225660   1.594   2.243   8.546
41255SOL     OW25661   3.618  14.780   1.941
41255SOL    HW125662   3.661  14.833   1.874
41255SOL    HW225663   3.574  14.711   1.891
41256SOL     OW25664  11.425  11.395  12.087
41256SOL    HW125665  11.380  11.480  12.092
41256SOL    HW225666  11.439  11.381  11.994
41257SOL     OW25667  12.321   2.308   5.646
41257SOL    HW125668  12.402   2.275   5.685
41257SOL    HW225669  12.326   2.403   5.658
41258SOL     OW25670   9.021  12.676   3.938
41258SOL    HW125671   8.971  12.727   3.874
41258SOL    HW225672   9.071  12.614   3.886
41259SOL     OW25673   0.317   5.837   9.690
41259SOL    HW125674   0.240   5.840   9.747
41259SOL    HW225675   0.302   5.907   9.626
41260SOL     OW25676  11.312   4.432   5.788
41260SOL    HW125677  11.348   4.478   5.713
41260SOL    HW225678  11.362   4.464   5.863
41261SOL     OW25679   7.939   8.316  13.840
41261SOL    HW125680   7.859   8.353  13.878
41261SOL    HW225681   7.909   8.260  13.769
41262SOL     OW25682   3.663  12.030  10.834
41262SOL    HW125683   3.664  12.044  10.739
41262SOL    HW225684   3.632  12.113  10.869
41263SOL     OW25685  10.809   0.011   6.702
41263SOL    HW125686  10.730   0.064   6.698
41263SOL    HW225687  10.877   0.072   6.733
41264SOL     OW25688   4.987   6.675   5.114
41264SOL    HW125689   5.015   6.587   5.136
41264SOL    HW225690   5.065   6.717   5.076
41265SOL     OW25691   3.787   9.234   6.175
41265SOL    HW125692   3.753   9.191   6.097
41265SOL    HW225693   3.835   9.310   6.141
41266SOL     OW25694  12.208   6.466   7.877
41266SOL    HW125695  12.299   6.437   7.868
41266SOL    HW225696  12.199   6.489   7.969
41267SOL     OW25697   8.460   6.864  13.213
41267SOL    HW125698   8.466   6.807  13.289
41267SOL    HW225699   8.474   6.952  13.248
41268SOL     OW25700   3.907   5.973  10.530
41268SOL    HW125701   3.993   5.963  10.570
41268SOL    HW225702   3.882   5.884  10.503
41269SOL     OW25703   6.188   2.201   3.668
41269SOL    HW125704   6.270   2.199   3.619
41269SOL    HW225705   6.195   2.278   3.724
41270SOL     OW25706  12.522   1.701   0.989
41270SOL    HW125707  12.540   1.791   1.018
41270SOL    HW225708  12.609   1.663   0.977
41271SOL     OW25709   7.458  12.161   5.032
41271SOL    HW125710   7.471  12.254   5.048
41271SOL    HW225711   7.364  12.149   5.030
41272SOL     OW25712   5.516  13.638  14.012
41272SOL    HW125713   5.515  13.636  13.916
41272SOL    HW225714   5.492  13.548  14.037
41273SOL     OW25715   6.239   6.025   6.586
41273SOL    HW125716   6.199   6.032   6.673
41273SOL    HW225717   6.323   6.071   6.594
41274SOL     OW25718  11.259  11.891   0.006
41274SOL    HW125719  11.325  11.847  14.840
41274SOL    HW225720  11.309  11.934   0.076
41275SOL     OW25721   0.247   6.286   9.154
41275SOL    HW125722   0.214   6.374   9.171
41275SOL    HW225723   0.238   6.275   9.059
41276SOL     OW25724  11.663  10.109  10.995
41276SOL    HW125725  11.595  10.113  10.928
41276SOL    HW225726  11.744  10.092  10.948
41277SOL     OW25727   4.840   4.805  13.003
41277SOL    HW125728   4.889   4.786  12.923
41277SOL    HW225729   4.847   4.725  13.055
41278SOL     OW25730   6.651   3.038   4.536
41278SOL    HW125731   6.684   2.955   4.572
41278SOL    HW225732   6.578   3.061   4.593
41279SOL     OW25733  13.426   0.256   6.831
41279SOL    HW125734  13.443   0.230   6.921
41279SOL    HW225735  13.355   0.199   6.802
41280SOL     OW25736  12.327   8.052  12.457
41280SOL    HW125737  12.271   8.105  12.512
41280SOL    HW225738  12.416   8.073  12.485
41281SOL     OW25739   6.943   2.075   7.518
41281SOL    HW125740   7.036   2.063   7.499
41281SOL    HW225741   6.906   1.987   7.512
41282SOL     OW25742   4.833  11.720   1.396
41282SOL    HW125743   4.842  11.627   1.418
41282SOL    HW225744   4.922  11.750   1.381
41283SOL     OW25745   9.448   6.078   2.479
41283SOL    HW125746   9.411   6.031   2.554
41283SOL    HW225747   9.374   6.089   2.419
41284SOL     OW25748   4.075   3.391   3.407
41284SOL    HW125749   4.073   3.402   3.502
41284SOL    HW225750   4.025   3.465   3.373
41285SOL     OW25751   7.642   8.996  10.833
41285SOL    HW125752   7.592   9.077  10.839
41285SOL    HW225753   7.705   9.001  10.905
41286SOL     OW25754  13.285   7.670  13.994
41286SOL    HW125755  13.361   7.643  14.046
41286SOL    HW225756  13.303   7.762  13.972
41287SOL     OW25757   0.580   2.606   0.798
41287SOL    HW125758   0.508   2.596   0.735
41287SOL    HW225759   0.611   2.696   0.785
41288SOL     OW25760   8.997   6.290   2.781
41288SOL    HW125761   8.944   6.270   2.703
41288SOL    HW225762   8.962   6.232   2.849
41289SOL     OW25763  11.108   5.499   0.932
41289SOL    HW125764  11.148   5.432   0.877
41289SOL    HW225765  11.028   5.459   0.966
41290SOL     OW25766  14.441   1.268  10.003
41290SOL    HW125767  14.498   1.250  10.078
41290SOL    HW225768  14.488   1.336   9.954
41291SOL     OW25769   1.338   1.147  11.401
41291SOL    HW125770   1.426   1.111  11.407
41291SOL    HW225771   1.291   1.106  11.474
41292SOL     OW25772   8.984   2.907  13.773
41292SOL    HW125773   9.032   2.988  13.756
41292SOL    HW225774   8.892   2.929  13.758
41293SOL     OW25775  10.104  11.412  10.811
41293SOL    HW125776  10.045  11.461  10.868
41293SOL    HW225777  10.143  11.346  10.869
41294SOL     OW25778  11.271  11.326   3.709
41294SOL    HW125779  11.360  11.297   3.691
41294SOL    HW225780  11.242  11.366   3.626
41295SOL     OW25781  10.682   8.166   8.478
41295SOL    HW125782  10.684   8.214   8.560
41295SOL    HW225783  10.752   8.101   8.486
41296SOL     OW25784   0.377  11.794   2.281
41296SOL    HW125785   0.457  11.749   2.307
41296SOL    HW225786   0.403  11.852   2.210
41297SOL     OW25787   1.590  13.542   0.542
41297SOL    HW125788   1.645  13.467   0.563
41297SOL    HW225789   1.592  13.547   0.446
41298SOL     OW25790   6.506   9.798   7.818
41298SOL    HW125791   6.528   9.820   7.727
41298SOL    HW225792   6.477   9.881   7.856
41299SOL     OW25793   2.092   8.038   7.712
41299SOL    HW125794   2.187   8.041   7.719
41299SOL    HW225795   2.070   8.105   7.647
41300SOL     OW25796   9.377   1.816  14.710
41300SOL    HW125797   9.365   1.877  14.637
41300SOL    HW225798   9.464   1.835  14.744
41301SOL     OW25799   5.238  12.093   4.808
41301SOL    HW125800   5.294  12.061   4.878
41301SOL    HW225801   5.266  12.043   4.731
41302SOL     OW25802   2.315   8.211  13.759
41302SOL    HW125803   2.320   8.173  13.671
41302SOL    HW225804   2.343   8.302  13.748
41303SOL     OW25805   5.578  10.287  14.773
41303SOL    HW125806   5.566  10.292  14.679
41303SOL    HW225807   5.602  10.376  14.799
41304SOL     OW25808  10.536  12.485  14.232
41304SOL    HW125809  10.596  12.423  14.272
41304SOL    HW225810  10.456  12.435  14.216
41305SOL     OW25811   9.788   4.825   5.950
41305SOL    HW125812   9.807   4.918   5.961
41305SOL    HW225813   9.703   4.812   5.994
41306SOL     OW25814   2.410   6.218  14.882
41306SOL    HW125815   2.431   6.126  14.865
41306SOL    HW225816   2.466   6.242   0.069
41307SOL     OW25817   1.945  12.059   3.367
41307SOL    HW125818   1.893  12.136   3.343
41307SOL    HW225819   1.882  11.999   3.407
41308SOL     OW25820   1.635  10.658   7.510
41308SOL    HW125821   1.656  10.634   7.601
41308SOL    HW225822   1.708  10.624   7.459
41309SOL     OW25823   2.993  10.531   0.086
41309SOL    HW125824   3.057  10.503   0.151
41309SOL    HW225825   2.994  10.626   0.091
41310SOL     OW25826   0.239  13.374   6.967
41310SOL    HW125827   0.323  13.403   7.005
41310SOL    HW225828   0.215  13.297   7.018
41311SOL     OW25829   4.905   5.596   6.111
41311SOL    HW125830   4.959   5.606   6.189
41311SOL    HW225831   4.961   5.628   6.040
41312SOL     OW25832  14.133  11.112   9.334
41312SOL    HW125833  14.133  11.039   9.272
41312SOL    HW225834  14.219  11.152   9.323
41313SOL     OW25835   5.443   9.597  13.700
41313SOL    HW125836   5.415   9.685  13.675
41313SOL    HW225837   5.362   9.549  13.714
41314SOL     OW25838   0.395   9.649   7.987
41314SOL    HW125839   0.332   9.655   7.914
41314SOL    HW225840   0.473   9.695   7.955
41315SOL     OW25841  12.784   8.463   7.321
41315SOL    HW125842  12.829   8.529   7.373
41315SOL    HW225843  12.815   8.478   7.231
41316SOL     OW25844   4.823  13.720   6.732
41316SOL    HW125845   4.761  13.761   6.672
41316SOL    HW225846   4.887  13.677   6.674
41317SOL     OW25847   9.875   5.047   4.476
41317SOL    HW125848   9.813   4.981   4.445
41317SOL    HW225849   9.826   5.129   4.474
41318SOL     OW25850   9.139  12.919  13.557
41318SOL    HW125851   9.178  12.924  13.644
41318SOL    HW225852   9.122  12.826  13.543
41319SOL     OW25853   3.116  12.258  14.075
41319SOL    HW125854   3.180  12.233  14.141
41319SOL    HW225855   3.158  12.237  13.991
41320SOL     OW25856   6.883   1.935   8.550
41320SOL    HW125857   6.876   1.988   8.471
41320SOL    HW225858   6.910   1.849   8.518
41321SOL     OW25859  12.989   7.199   2.818
41321SOL    HW125860  13.083   7.217   2.811
41321SOL    HW225861  12.981   7.108   2.788
41322SOL     OW25862  14.749   1.807   8.120
41322SOL    HW125863  14.748   1.886   8.174
41322SOL    HW225864  14.741   1.735   8.182
41323SOL     OW25865  13.841   8.773   4.934
41323SOL    HW125866  13.832   8.695   4.989
41323SOL    HW225867  13.899   8.831   4.983
41324SOL     OW25868   7.376   9.686   8.609
41324SOL    HW125869   7.450   9.627   8.596
41324SOL    HW225870   7.318   9.669   8.535
41325SOL     OW25871  14.125  14.192  14.288
41325SOL    HW125872  14.155  14.157  14.372
41325SOL    HW225873  14.178  14.271  14.274
41326SOL     OW25874  14.749   4.425  11.678
41326SOL    HW125875  14.654   4.432  11.692
41326SOL    HW225876  14.757   4.358  11.609
41327SOL     OW25877   0.971   6.223   9.139
41327SOL    HW125878   0.967   6.301   9.193
41327SOL    HW225879   0.986   6.151   9.201
41328SOL     OW25880  13.847   1.281  10.314
41328SOL    HW125881  13.889   1.315  10.235
41328SOL    HW225882  13.916   1.231  10.358
41329SOL     OW25883  14.357  13.420  11.338
41329SOL    HW125884  14.272  13.453  11.308
41329SOL    HW225885  14.421  13.481  11.300
41330SOL     OW25886   0.903   6.575   0.352
41330SOL    HW125887   0.916   6.668   0.328
41330SOL    HW225888   0.809   6.565   0.358
41331SOL     OW25889  10.592  11.705  11.337
41331SOL    HW125890  10.626  11.723  11.250
41331SOL    HW225891  10.661  11.654  11.380
41332SOL     OW25892   1.826   7.634   2.131
41332SOL    HW125893   1.796   7.724   2.126
41332SOL    HW225894   1.788   7.601   2.212
41333SOL     OW25895   1.084  10.785   2.763
41333SOL    HW125896   1.049  10.863   2.806
41333SOL    HW225897   1.098  10.811   2.672
41334SOL     OW25898   6.412   7.483   8.503
41334SOL    HW125899   6.468   7.405   8.497
41334SOL    HW225900   6.465   7.554   8.467
41335SOL     OW25901   2.188  14.124   2.924
41335SOL    HW125902   2.198  14.058   2.856
41335SOL    HW225903   2.268  14.175   2.920
41336SOL     OW25904   2.891   8.106   6.539
41336SOL    HW125905   2.802   8.135   6.520
41336SOL    HW225906   2.893   8.098   6.635
41337SOL     OW25907  13.193   0.119   3.014
41337SOL    HW125908  13.169   0.204   2.977
41337SOL    HW225909  13.253   0.140   3.086
41338SOL     OW25910   5.666  11.689   3.957
41338SOL    HW125911   5.639  11.638   4.033
41338SOL    HW225912   5.593  11.680   3.895
41339SOL     OW25913   6.716   2.316  11.031
41339SOL    HW125914   6.772   2.252  11.074
41339SOL    HW225915   6.670   2.266  10.963
41340SOL     OW25916   5.010   9.579  14.638
41340SOL    HW125917   4.999   9.614  14.550
41340SOL    HW225918   4.999   9.655  14.696
41341SOL     OW25919   0.805   5.781   3.973
41341SOL    HW125920   0.863   5.786   3.897
41341SOL    HW225921   0.721   5.752   3.938
41342SOL     OW25922   2.567   4.338  13.549
41342SOL    HW125923   2.589   4.409  13.489
41342SOL    HW225924   2.620   4.264  13.520
41343SOL     OW25925  13.563  11.156   0.215
41343SOL    HW125926  13.532  11.117   0.297
41343SOL    HW225927  13.623  11.226   0.243
41344SOL     OW25928  12.191  12.391  12.916
41344SOL    HW125929  12.219  12.337  12.842
41344SOL    HW225930  12.273  12.428  12.951
41345SOL     OW25931   4.663  10.770  12.803
41345SOL    HW125932   4.680  10.766  12.897
41345SOL    HW225933   4.633  10.859  12.788
41346SOL     OW25934  11.599  14.614   0.385
41346SOL    HW125935  11.694  14.622   0.397
41346SOL    HW225936  11.588  14.601   0.291
41347SOL     OW25937   1.284  12.058  14.180
41347SOL    HW125938   1.194  12.080  14.202
41347SOL    HW225939   1.277  12.006  14.099
41348SOL     OW25940   8.469   6.090   0.709
41348SOL    HW125941   8.500   6.023   0.771
41348SOL    HW225942   8.483   6.172   0.756
41349SOL     OW25943   7.993  11.117  10.823
41349SOL    HW125944   8.019  11.089  10.736
41349SOL    HW225945   8.060  11.081  10.881
41350SOL     OW25946  13.636   6.527  13.179
41350SOL    HW125947  13.640   6.597  13.244
41350SOL    HW225948  13.561   6.550  13.124
41351SOL     OW25949   1.855  14.736   4.496
41351SOL    HW125950   1.792  14.794   4.453
41351SOL    HW225951   1.920  14.796   4.535
41352SOL     OW25952   7.673   2.494  13.071
41352SOL    HW125953   7.693   2.565  13.010
41352SOL    HW225954   7.656   2.537  13.154
41353SOL     OW25955   8.074  14.304   5.542
41353SOL    HW125956   8.000  14.363   5.530
41353SOL    HW225957   8.121  14.338   5.619
41354SOL     OW25958  11.507  13.184   3.911
41354SOL    HW125959  11.575  13.249   3.927
41354SOL    HW225960  11.431  13.215   3.960
41355SOL     OW25961   9.167   6.907  12.103
41355SOL    HW125962   9.084   6.939  12.069
41355SOL    HW225963   9.232   6.937  12.039
41356SOL     OW25964  13.480  14.399   4.258
41356SOL    HW125965  13.494  14.487   4.223
41356SOL    HW225966  13.477  14.343   4.180
41357SOL     OW25967   7.268   2.694   9.950
41357SOL    HW125968   7.350   2.645   9.960
41357SOL    HW225969   7.267   2.722   9.859
41358SOL     OW25970   0.956   3.719   2.536
41358SOL    HW125971   1.009   3.788   2.496
41358SOL    HW225972   0.903   3.685   2.464
41359SOL     OW25973   6.263  10.443   2.166
41359SOL    HW125974   6.183  10.452   2.217
41359SOL    HW225975   6.314  10.521   2.188
41360SOL     OW25976  11.203  10.583  10.927
41360SOL    HW125977  11.298  10.577  10.935
41360SOL    HW225978  11.183  10.534  10.847
41361SOL     OW25979  12.616  11.541   4.988
41361SOL    HW125980  12.577  11.544   4.900
41361SOL    HW225981  12.585  11.458   5.025
41362SOL     OW25982  14.414   5.678   6.478
41362SOL    HW125983  14.409   5.743   6.548
41362SOL    HW225984  14.488   5.706   6.424
41363SOL     OW25985   3.917  11.743   9.439
41363SOL    HW125986   3.880  11.656   9.425
41363SOL    HW225987   3.919  11.784   9.352
41364SOL     OW25988  14.066   8.317   4.535
41364SOL    HW125989  14.069   8.273   4.620
41364SOL    HW225990  14.118   8.396   4.547
41365SOL     OW25991   1.091   2.063   1.739
41365SOL    HW125992   1.034   2.129   1.778
41365SOL    HW225993   1.148   2.035   1.811
41366SOL     OW25994   4.245  14.866   3.170
41366SOL    HW125995   4.252  14.773   3.191
41366SOL    HW225996   4.254   0.023   3.254
41367SOL     OW25997  10.072  13.477  10.056
41367SOL    HW125998  10.035  13.389  10.059
41367SOL    HW225999  10.167  13.463  10.057
41368SOL     OW26000   8.452   3.433  11.512
41368SOL    HW126001   8.547   3.444  11.499
41368SOL    HW226002   8.414   3.513  11.477
41369SOL     OW26003  14.560   1.555   0.303
41369SOL    HW126004  14.612   1.510   0.236
41369SOL    HW226005  14.604   1.534   0.385
41370SOL     OW26006   6.211  14.349  11.212
41370SOL    HW126007   6.227  14.344  11.306
41370SOL    HW226008   6.125  14.308  11.200
41371SOL     OW26009  12.691  13.756   6.025
41371SOL    HW126010  12.653  13.738   6.111
41371SOL    HW226011  12.657  13.686   5.969
41372SOL     OW26012   2.915  13.452   8.142
41372SOL    HW126013   2.934  13.520   8.206
41372SOL    HW226014   2.957  13.373   8.176
41373SOL     OW26015   7.013   6.676   6.053
41373SOL    HW126016   7.065   6.656   6.131
41373SOL    HW226017   7.006   6.592   6.007
41374SOL     OW26018   5.444   5.383  10.999
41374SOL    HW126019   5.515   5.347  10.946
41374SOL    HW226020   5.472   5.473  11.019
41375SOL     OW26021  13.098  10.543   3.310
41375SOL    HW126022  13.127  10.473   3.252
41375SOL    HW226023  13.060  10.497   3.385
41376SOL     OW26024  13.013   0.267   3.822
41376SOL    HW126025  13.027   0.332   3.753
41376SOL    HW226026  13.079   0.200   3.805
41377SOL     OW26027   6.854   9.594   7.038
41377SOL    HW126028   6.866   9.578   6.944
41377SOL    HW226029   6.833   9.508   7.074
41378SOL     OW26030   0.328   2.369   2.405
41378SOL    HW126031   0.275   2.438   2.444
41378SOL    HW226032   0.275   2.335   2.333
41379SOL     OW26033   4.171   9.608   0.057
41379SOL    HW126034   4.094   9.661   0.036
41379SOL    HW226035   4.245   9.657   0.022
41380SOL     OW26036  14.410   5.021   4.021
41380SOL    HW126037  14.320   5.027   3.990
41380SOL    HW226038  14.406   5.055   4.111
41381SOL     OW26039  13.052   6.242   6.273
41381SOL    HW126040  13.070   6.318   6.328
41381SOL    HW226041  13.053   6.168   6.334
41382SOL     OW26042   5.791   4.228   2.125
41382SOL    HW126043   5.717   4.255   2.071
41382SOL    HW226044   5.822   4.310   2.165
41383SOL     OW26045   6.874   9.861   1.498
41383SOL    HW126046   6.899   9.920   1.570
41383SOL    HW226047   6.929   9.889   1.425
41384SOL     OW26048   3.202   5.035   5.384
41384SOL    HW126049   3.217   5.126   5.407
41384SOL    HW226050   3.186   5.036   5.290
41385SOL     OW26051   1.531   1.886   1.787
41385SOL    HW126052   1.516   1.808   1.840
41385SOL    HW226053   1.612   1.868   1.740
41386SOL     OW26054   8.952   7.568   4.266
41386SOL    HW126055   8.962   7.472   4.265
41386SOL    HW226056   9.002   7.596   4.343
41387SOL     OW26057  14.490  14.202   3.028
41387SOL    HW126058  14.504  14.109   3.012
41387SOL    HW226059  14.519  14.245   2.947
41388SOL     OW26060  13.799   2.271   7.540
41388SOL    HW126061  13.766   2.350   7.497
41388SOL    HW226062  13.725   2.210   7.538
41389SOL     OW26063  13.265  12.933   4.376
41389SOL    HW126064  13.271  13.014   4.426
41389SOL    HW226065  13.182  12.894   4.402
41390SOL     OW26066  10.443   3.692   7.878
41390SOL    HW126067  10.516   3.632   7.893
41390SOL    HW226068  10.380   3.640   7.826
41391SOL     OW26069   6.052  14.563   3.825
41391SOL    HW126070   6.009  14.477   3.826
41391SOL    HW226071   6.122  14.554   3.760
41392SOL     OW26072  14.325   8.555   5.116
41392SOL    HW126073  14.374   8.498   5.176
41392SOL    HW226074  14.352   8.525   5.029
41393SOL     OW26075   9.428   7.688   8.561
41393SOL    HW126076   9.338   7.673   8.590
41393SOL    HW226077   9.482   7.639   8.623
41394SOL     OW26078  11.099   5.129  13.109
41394SOL    HW126079  11.104   5.212  13.157
41394SOL    HW226080  11.167   5.137  13.041
41395SOL     OW26081   6.837   9.329   4.898
41395SOL    HW126082   6.845   9.304   4.806
41395SOL    HW226083   6.916   9.294   4.940
41396SOL     OW26084   0.136   5.721  14.292
41396SOL    HW126085   0.050   5.696  14.259
41396SOL    HW226086   0.178   5.765  14.218
41397SOL     OW26087   0.258   0.303  12.676
41397SOL    HW126088   0.264   0.287  12.582
41397SOL    HW226089   0.191   0.242  12.707
41398SOL     OW26090  10.243   2.954  11.387
41398SOL    HW126091  10.152   2.932  11.366
41398SOL    HW226092  10.288   2.870  11.390
41399SOL     OW26093  14.883   5.053   6.578
41399SOL    HW126094  14.832   5.082   6.653
41399SOL    HW226095   0.082   5.033   6.613
41400SOL     OW26096  13.082   7.280   5.165
41400SOL    HW126097  13.030   7.359   5.184
41400SOL    HW226098  13.158   7.287   5.223
41401SOL     OW26099   4.385   3.991  13.971
41401SOL    HW126100   4.421   4.014  14.057
41401SOL    HW226101   4.368   4.075  13.928
41402SOL     OW26102   5.526   6.322  12.866
41402SOL    HW126103   5.615   6.319  12.832
41402SOL    HW226104   5.489   6.236  12.846
41403SOL     OW26105   0.445  11.312  12.457
41403SOL    HW126106   0.481  11.239  12.508
41403SOL    HW226107   0.358  11.327  12.493
41404SOL     OW26108   0.962   6.481   5.515
41404SOL    HW126109   1.052   6.511   5.506
41404SOL    HW226110   0.909   6.561   5.509
41405SOL     OW26111   5.380   8.534   3.154
41405SOL    HW126112   5.396   8.609   3.096
41405SOL    HW226113   5.380   8.573   3.242
41406SOL     OW26114   9.175   4.570   9.811
41406SOL    HW126115   9.262   4.582   9.772
41406SOL    HW226116   9.149   4.657   9.840
41407SOL     OW26117   5.402   5.317  12.589
41407SOL    HW126118   5.421   5.299  12.682
41407SOL    HW226119   5.315   5.278  12.576
41408SOL     OW26120   8.885   3.884  12.832
41408SOL    HW126121   8.943   3.895  12.756
41408SOL    HW226122   8.851   3.795  12.823
41409SOL     OW26123   3.153   6.197   4.994
41409SOL    HW126124   3.095   6.126   5.021
41409SOL    HW226125   3.133   6.269   5.053
41410SOL     OW26126   2.286   0.467   8.752
41410SOL    HW126127   2.305   0.561   8.746
41410SOL    HW226128   2.299   0.435   8.662
41411SOL     OW26129   8.392   8.610   1.602
41411SOL    HW126130   8.349   8.527   1.622
41411SOL    HW226131   8.461   8.617   1.668
41412SOL     OW26132   8.852  11.180  11.773
41412SOL    HW126133   8.852  11.186  11.677
41412SOL    HW226134   8.810  11.261  11.802
41413SOL     OW26135   2.378  14.420   0.310
41413SOL    HW126136   2.340  14.413   0.222
41413SOL    HW226137   2.343  14.503   0.344
41414SOL     OW26138   5.885  13.752  13.457
41414SOL    HW126139   5.840  13.675  13.492
41414SOL    HW226140   5.907  13.729  13.367
41415SOL     OW26141  11.676   8.699   3.910
41415SOL    HW126142  11.683   8.698   4.006
41415SOL    HW226143  11.728   8.774   3.883
41416SOL     OW26144   1.679   6.510   0.409
41416SOL    HW126145   1.702   6.456   0.334
41416SOL    HW226146   1.746   6.492   0.474
41417SOL     OW26147  12.289   9.849   7.796
41417SOL    HW126148  12.382   9.853   7.777
41417SOL    HW226149  12.276   9.763   7.837
41418SOL     OW26150  13.321  12.556  11.985
41418SOL    HW126151  13.336  12.515  11.900
41418SOL    HW226152  13.331  12.485  12.048
41419SOL     OW26153   3.535  10.766   2.008
41419SOL    HW126154   3.541  10.687   2.062
41419SOL    HW226155   3.496  10.831   2.066
41420SOL     OW26156   2.043  10.070   5.978
41420SOL    HW126157   2.094  10.080   6.059
41420SOL    HW226158   1.960  10.113   5.997
41421SOL     OW26159  14.103   4.262   3.725
41421SOL    HW126160  14.024   4.292   3.682
41421SOL    HW226161  14.171   4.265   3.657
41422SOL     OW26162   1.842   7.736   3.569
41422SOL    HW126163   1.912   7.780   3.616
41422SOL    HW226164   1.767   7.796   3.576
41423SOL     OW26165  12.759  11.930  14.239
41423SOL    HW126166  12.832  11.891  14.287
41423SOL    HW226167  12.730  11.861  14.180
41424SOL     OW26168   5.181  11.302   5.979
41424SOL    HW126169   5.188  11.212   5.946
41424SOL    HW226170   5.095  11.332   5.949
41425SOL     OW26171   4.989  11.893   3.066
41425SOL    HW126172   4.945  11.952   3.004
41425SOL    HW226173   4.985  11.807   3.023
41426SOL     OW26174  13.390   0.034  14.774
41426SOL    HW126175  13.398   0.058  14.682
41426SOL    HW226176  13.297   0.012  14.784
41427SOL     OW26177   7.594  10.677  12.743
41427SOL    HW126178   7.515  10.654  12.791
41427SOL    HW226179   7.587  10.629  12.660
41428SOL     OW26180   3.291   1.413   5.737
41428SOL    HW126181   3.348   1.373   5.802
41428SOL    HW226182   3.304   1.507   5.749
41429SOL     OW26183   7.272   5.723  13.411
41429SOL    HW126184   7.222   5.775  13.473
41429SOL    HW226185   7.353   5.702  13.457
41430SOL     OW26186   0.508   2.545   4.023
41430SOL    HW126187   0.513   2.639   4.007
41430SOL    HW226188   0.547   2.533   4.109
41431SOL     OW26189   0.742  14.040   5.806
41431SOL    HW126190   0.763  14.046   5.899
41431SOL    HW226191   0.725  13.947   5.791
41432SOL     OW26192   5.952  11.672  13.554
41432SOL    HW126193   6.027  11.623  13.588
41432SOL    HW226194   5.953  11.754  13.604
41433SOL     OW26195   3.251   7.866  14.381
41433SOL    HW126196   3.302   7.942  14.410
41433SOL    HW226197   3.230   7.885  14.289
41434SOL     OW26198   6.607   4.652   5.592
41434SOL    HW126199   6.579   4.668   5.502
41434SOL    HW226200   6.702   4.665   5.589
41435SOL     OW26201  11.159  10.314   8.526
41435SOL    HW126202  11.216  10.247   8.488
41435SOL    HW226203  11.090  10.265   8.570
41436SOL     OW26204   4.604  11.262   7.835
41436SOL    HW126205   4.671  11.298   7.776
41436SOL    HW226206   4.528  11.319   7.822
41437SOL     OW26207   4.243  11.253  12.832
41437SOL    HW126208   4.180  11.294  12.774
41437SOL    HW226209   4.215  11.278  12.920
41438SOL     OW26210  12.978   3.566  10.543
41438SOL    HW126211  12.957   3.473  10.533
41438SOL    HW226212  12.941   3.590  10.628
41439SOL     OW26213   9.403   1.704   3.205
41439SOL    HW126214   9.329   1.644   3.204
41439SOL    HW226215   9.452   1.681   3.284
41440SOL     OW26216   8.286   2.620   9.874
41440SOL    HW126217   8.216   2.594   9.815
41440SOL    HW226218   8.242   2.642   9.956
41441SOL     OW26219  12.870  14.096   0.337
41441SOL    HW126220  12.819  14.019   0.313
41441SOL    HW226221  12.812  14.170   0.316
41442SOL     OW26222  10.045   1.871  14.843
41442SOL    HW126223   9.995   1.924   0.018
41442SOL    HW226224   9.984   1.801  14.818
41443SOL     OW26225   0.005  12.946   8.367
41443SOL    HW126226   0.013  12.969   8.460
41443SOL    HW226227  14.816  12.888   8.364
41444SOL     OW26228   5.051   5.771   0.873
41444SOL    HW126229   5.039   5.849   0.819
41444SOL    HW226230   5.101   5.712   0.818
41445SOL     OW26231  12.772   2.550   7.643
41445SOL    HW126232  12.715   2.474   7.651
41445SOL    HW226233  12.750   2.604   7.719
41446SOL     OW26234  14.095  14.018   5.942
41446SOL    HW126235  14.063  14.089   5.998
41446SOL    HW226236  14.153  13.967   5.998
41447SOL     OW26237   3.414   1.206   4.527
41447SOL    HW126238   3.509   1.211   4.540
41447SOL    HW226239   3.389   1.121   4.562
41448SOL     OW26240   3.181   6.752   5.152
41448SOL    HW126241   3.248   6.696   5.191
41448SOL    HW226242   3.156   6.813   5.222
41449SOL     OW26243   8.086   9.925  13.081
41449SOL    HW126244   8.038   9.983  13.140
41449SOL    HW226245   8.131   9.864  13.139
41450SOL     OW26246   2.648   9.716   7.420
41450SOL    HW126247   2.646   9.796   7.367
41450SOL    HW226248   2.691   9.652   7.363
41451SOL     OW26249   7.588   8.268   0.910
41451SOL    HW126250   7.565   8.177   0.927
41451SOL    HW226251   7.531   8.294   0.837
41452SOL     OW26252   8.881   3.206   1.068
41452SOL    HW126253   8.943   3.275   1.044
41452SOL    HW226254   8.795   3.246   1.056
41453SOL     OW26255   9.434  13.785  13.725
41453SOL    HW126256   9.489  13.862  13.741
41453SOL    HW226257   9.354  13.802  13.773
41454SOL     OW26258   9.508  13.157  14.552
41454SOL    HW126259   9.474  13.168  14.641
41454SOL    HW226260   9.569  13.083  14.558
41455SOL     OW26261   2.749   6.500   0.922
41455SOL    HW126262   2.782   6.417   0.957
41455SOL    HW226263   2.797   6.511   0.840
41456SOL     OW26264  12.394   4.382   3.219
41456SOL    HW126265  12.305   4.368   3.187
41456SOL    HW226266  12.413   4.474   3.197
41457SOL     OW26267   0.656   4.362   6.294
41457SOL    HW126268   0.720   4.292   6.310
41457SOL    HW226269   0.703   4.424   6.237
41458SOL     OW26270  13.104   5.258  14.799
41458SOL    HW126271  13.119   5.351  14.819
41458SOL    HW226272  13.172   5.212  14.846
41459SOL     OW26273  11.005  10.426  14.623
41459SOL    HW126274  11.096  10.406  14.604
41459SOL    HW226275  11.004  10.446  14.717
41460SOL     OW26276   4.595  12.932  14.351
41460SOL    HW126277   4.629  12.940  14.440
41460SOL    HW226278   4.503  12.958  14.357
41461SOL     OW26279   0.043  13.855   6.425
41461SOL    HW126280   0.009  13.766   6.419
41461SOL    HW226281   0.081  13.872   6.338
41462SOL     OW26282   8.548   3.585   7.965
41462SOL    HW126283   8.633   3.542   7.975
41462SOL    HW226284   8.548   3.619   7.876
41463SOL     OW26285   2.948  10.819   1.552
41463SOL    HW126286   2.869  10.770   1.530
41463SOL    HW226287   2.946  10.828   1.647
41464SOL     OW26288  12.605   9.963   5.701
41464SOL    HW126289  12.619   9.876   5.664
41464SOL    HW226290  12.517   9.988   5.673
41465SOL     OW26291   7.465  13.818   3.657
41465SOL    HW126292   7.518  13.754   3.705
41465SOL    HW226293   7.529  13.881   3.623
41466SOL     OW26294   2.568  12.280   9.366
41466SOL    HW126295   2.497  12.244   9.419
41466SOL    HW226296   2.641  12.220   9.380
41467SOL     OW26297   5.463  14.602   8.198
41467SOL    HW126298   5.433  14.689   8.224
41467SOL    HW226299   5.550  14.617   8.159
41468SOL     OW26300  10.773  12.527   1.645
41468SOL    HW126301  10.863  12.560   1.650
41468SOL    HW226302  10.731  12.562   1.723
41469SOL     OW26303  12.957   9.292  13.714
41469SOL    HW126304  12.974   9.290  13.620
41469SOL    HW226305  12.993   9.209  13.747
41470SOL     OW26306  10.081   8.674   5.765
41470SOL    HW126307  10.149   8.680   5.698
41470SOL    HW226308  10.088   8.756   5.814
41471SOL     OW26309  10.820  14.025   1.482
41471SOL    HW126310  10.883  14.026   1.410
41471SOL    HW226311  10.738  14.057   1.442
41472SOL     OW26312   5.306   9.191   5.538
41472SOL    HW126313   5.215   9.185   5.512
41472SOL    HW226314   5.304   9.230   5.625
41473SOL     OW26315   0.458  12.793   7.727
41473SOL    HW126316   0.540  12.752   7.755
41473SOL    HW226317   0.418  12.728   7.669
41474SOL     OW26318   1.427   4.868   8.444
41474SOL    HW126319   1.371   4.884   8.367
41474SOL    HW226320   1.420   4.774   8.459
41475SOL     OW26321   2.746  14.781   9.086
41475SOL    HW126322   2.701  14.828   9.156
41475SOL    HW226323   2.687  14.789   9.010
41476SOL     OW26324   0.319   5.927   2.237
41476SOL    HW126325   0.274   5.865   2.179
41476SOL    HW226326   0.256   5.999   2.248
41477SOL     OW26327   0.498  11.230  11.558
41477SOL    HW126328   0.430  11.162  11.558
41477SOL    HW226329   0.544  11.217  11.641
41478SOL     OW26330   8.835   3.387   8.969
41478SOL    HW126331   8.783   3.312   8.996
41478SOL    HW226332   8.841   3.380   8.873
41479SOL     OW26333   3.724  13.079  10.074
41479SOL    HW126334   3.802  13.129  10.098
41479SOL    HW226335   3.653  13.143  10.076
41480SOL     OW26336   4.304  13.030   6.084
41480SOL    HW126337   4.371  12.975   6.043
41480SOL    HW226338   4.240  13.045   6.014
41481SOL     OW26339   8.163  14.408   7.485
41481SOL    HW126340   8.176  14.493   7.444
41481SOL    HW226341   8.221  14.349   7.438
41482SOL     OW26342   8.309   7.353  13.098
41482SOL    HW126343   8.245   7.288  13.126
41482SOL    HW226344   8.277   7.435  13.136
41483SOL     OW26345   7.920   9.779   8.747
41483SOL    HW126346   7.876   9.824   8.675
41483SOL    HW226347   7.957   9.700   8.707
41484SOL     OW26348   2.051   2.245   2.763
41484SOL    HW126349   1.974   2.228   2.817
41484SOL    HW226350   2.054   2.172   2.702
41485SOL     OW26351  13.068   8.691   9.591
41485SOL    HW126352  13.086   8.633   9.665
41485SOL    HW226353  13.013   8.639   9.533
41486SOL     OW26354   3.242   7.196   5.990
41486SOL    HW126355   3.150   7.171   5.991
41486SOL    HW226356   3.254   7.251   6.068
41487SOL     OW26357   0.804   1.712   9.963
41487SOL    HW126358   0.887   1.694  10.007
41487SOL    HW226359   0.742   1.651  10.004
41488SOL     OW26360   4.277   2.105   8.772
41488SOL    HW126361   4.289   2.177   8.711
41488SOL    HW226362   4.256   2.147   8.856
41489SOL     OW26363   0.111   4.792   4.701
41489SOL    HW126364   0.154   4.869   4.739
41489SOL    HW226365   0.164   4.772   4.623
41490SOL     OW26366  10.473  14.704  14.422
41490SOL    HW126367  10.564  14.696  14.393
41490SOL    HW226368  10.463  14.797  14.443
41491SOL     OW26369   8.448   6.683   3.250
41491SOL    HW126370   8.523   6.742   3.255
41491SOL    HW226371   8.376   6.732   3.289
41492SOL     OW26372  11.128  10.322   1.568
41492SOL    HW126373  11.067  10.273   1.623
41492SOL    HW226374  11.179  10.375   1.630
41493SOL     OW26375   2.655   2.391   2.550
41493SOL    HW126376   2.609   2.357   2.627
41493SOL    HW226377   2.726   2.444   2.586
41494SOL     OW26378  12.744  12.305   7.072
41494SOL    HW126379  12.704  12.319   6.986
41494SOL    HW226380  12.679  12.254   7.120
41495SOL     OW26381   7.505   3.037   9.537
41495SOL    HW126382   7.466   3.104   9.481
41495SOL    HW226383   7.517   3.080   9.622
41496SOL     OW26384  14.605   8.229  14.222
41496SOL    HW126385  14.661   8.251  14.147
41496SOL    HW226386  14.642   8.148  14.257
41497SOL     OW26387  13.123   9.188  10.375
41497SOL    HW126388  13.120   9.102  10.332
41497SOL    HW226389  13.205   9.187  10.424
41498SOL     OW26390  11.839   2.280   9.138
41498SOL    HW126391  11.807   2.214   9.077
41498SOL    HW226392  11.760   2.314   9.180
41499SOL     OW26393   6.872   0.198   6.645
41499SOL    HW126394   6.957   0.215   6.604
41499SOL    HW226395   6.891   0.134   6.714
41500SOL     OW26396  14.642  10.507   1.306
41500SOL    HW126397  14.706  10.501   1.377
41500SOL    HW226398  14.560  10.475   1.345
41501SOL     OW26399   8.482   2.860  10.024
41501SOL    HW126400   8.482   2.782  10.080
41501SOL    HW226401   8.558   2.910  10.053
41502SOL     OW26402   4.662  14.835   6.787
41502SOL    HW126403   4.691  14.787   6.864
41502SOL    HW226404   4.731   0.013   6.772
41503SOL     OW26405   2.799   4.604  14.435
41503SOL    HW126406   2.842   4.561  14.509
41503SOL    HW226407   2.839   4.565  14.358
41504SOL     OW26408  14.834   7.171   8.928
41504SOL    HW126409   0.024   7.194   8.978
41504SOL    HW226410  14.809   7.253   8.883
41505SOL     OW26411  12.657   1.504   5.617
41505SOL    HW126412  12.612   1.549   5.688
41505SOL    HW226413  12.591   1.498   5.547
41506SOL     OW26414   5.999   3.719  12.623
41506SOL    HW126415   5.969   3.655  12.558
41506SOL    HW226416   6.076   3.679  12.662
41507SOL     OW26417  12.659  10.156  11.450
41507SOL    HW126418  12.733  10.191  11.401
41507SOL    HW226419  12.639  10.072  11.408
41508SOL     OW26420  10.081  13.108   1.628
41508SOL    HW126421  10.122  13.059   1.698
41508SOL    HW226422   9.994  13.129   1.662
41509SOL     OW26423  14.530   9.773  11.229
41509SOL    HW126424  14.448   9.744  11.269
41509SOL    HW226425  14.559   9.846  11.284
41510SOL     OW26426  10.961  10.677   2.933
41510SOL    HW126427  11.013  10.649   3.009
41510SOL    HW226428  10.873  10.690   2.968
41511SOL     OW26429   1.614   4.375   3.366
41511SOL    HW126430   1.541   4.413   3.414
41511SOL    HW226431   1.619   4.285   3.398
41512SOL     OW26432   9.667  12.440   7.375
41512SOL    HW126433   9.686  12.458   7.284
41512SOL    HW226434   9.700  12.351   7.390
41513SOL     OW26435  11.115   0.702   3.070
41513SOL    HW126436  11.063   0.781   3.086
41513SOL    HW226437  11.102   0.684   2.977
41514SOL     OW26438  11.033  14.044   3.824
41514SOL    HW126439  11.049  13.950   3.820
41514SOL    HW226440  11.004  14.067   3.736
41515SOL     OW26441   2.432   2.640   0.508
41515SOL    HW126442   2.480   2.660   0.428
41515SOL    HW226443   2.477   2.691   0.576
41516SOL     OW26444   2.706  13.993   6.777
41516SOL    HW126445   2.693  13.900   6.797
41516SOL    HW226446   2.709  13.996   6.681
41517SOL     OW26447   9.521   9.248  14.476
41517SOL    HW126448   9.539   9.181  14.410
41517SOL    HW226449   9.425   9.248  14.484
41518SOL     OW26450  12.824  12.959   0.374
41518SOL    HW126451  12.865  12.923   0.295
41518SOL    HW226452  12.735  12.922   0.374
41519SOL     OW26453   8.828  12.502  14.224
41519SOL    HW126454   8.891  12.471  14.159
41519SOL    HW226455   8.872  12.492  14.308
41520SOL     OW26456   2.402   4.615  11.476
41520SOL    HW126457   2.428   4.625  11.385
41520SOL    HW226458   2.425   4.699  11.517
41521SOL     OW26459   1.265   8.349   3.400
41521SOL    HW126460   1.325   8.392   3.460
41521SOL    HW226461   1.241   8.418   3.337
41522SOL     OW26462   7.115   6.158  14.090
41522SOL    HW126463   7.170   6.084  14.116
41522SOL    HW226464   7.055   6.121  14.024
41523SOL     OW26465   5.630  10.804  14.134
41523SOL    HW126466   5.588  10.781  14.217
41523SOL    HW226467   5.572  10.766  14.067
41524SOL     OW26468   1.591   9.262  10.087
41524SOL    HW126469   1.558   9.325  10.151
41524SOL    HW226470   1.659   9.213  10.134
41525SOL     OW26471   4.777   8.999   5.001
41525SOL    HW126472   4.741   9.082   4.970
41525SOL    HW226473   4.768   8.939   4.927
41526SOL     OW26474   0.618  13.881   3.313
41526SOL    HW126475   0.577  13.963   3.343
41526SOL    HW226476   0.547  13.818   3.312
41527SOL     OW26477   7.700   2.321  10.252
41527SOL    HW126478   7.626   2.264  10.231
41527SOL    HW226479   7.718   2.367  10.171
41528SOL     OW26480   3.493   3.873   7.910
41528SOL    HW126481   3.580   3.909   7.892
41528SOL    HW226482   3.455   3.932   7.974
41529SOL     OW26483   1.364   7.766   5.648
41529SOL    HW126484   1.280   7.774   5.604
41529SOL    HW226485   1.362   7.678   5.686
41530SOL     OW26486   6.871   9.999   5.717
41530SOL    HW126487   6.874   9.956   5.632
41530SOL    HW226488   6.925  10.078   5.706
41531SOL     OW26489   6.464   8.826   7.117
41531SOL    HW126490   6.533   8.809   7.181
41531SOL    HW226491   6.455   8.921   7.115
41532SOL     OW26492  12.170   7.076   7.826
41532SOL    HW126493  12.117   7.003   7.795
41532SOL    HW226494  12.176   7.062   7.921
41533SOL     OW26495   7.334  11.584  10.038
41533SOL    HW126496   7.275  11.659  10.046
41533SOL    HW226497   7.334  11.564   9.944
41534SOL     OW26498   6.216   5.052  10.261
41534SOL    HW126499   6.161   4.980  10.231
41534SOL    HW226500   6.289   5.008  10.306
41535SOL     OW26501   8.714   5.633   3.332
41535SOL    HW126502   8.731   5.727   3.320
41535SOL    HW226503   8.797   5.598   3.364
41536SOL     OW26504   6.726  12.239   4.932
41536SOL    HW126505   6.697  12.238   5.023
41536SOL    HW226506   6.719  12.331   4.906
41537SOL     OW26507   7.074   2.914   9.030
41537SOL    HW126508   7.154   2.864   9.017
41537SOL    HW226509   7.007   2.863   8.983
41538SOL     OW26510  10.151   5.131  14.661
41538SOL    HW126511  10.167   5.049  14.615
41538SOL    HW226512  10.160   5.199  14.594
41539SOL     OW26513   3.443   3.402   9.477
41539SOL    HW126514   3.370   3.437   9.528
41539SOL    HW226515   3.521   3.425   9.528
41540SOL     OW26516   7.399   6.565   5.689
41540SOL    HW126517   7.402   6.585   5.783
41540SOL    HW226518   7.480   6.601   5.655
41541SOL     OW26519   9.530   1.750  10.485
41541SOL    HW126520   9.502   1.833  10.447
41541SOL    HW226521   9.556   1.696  10.411
41542SOL     OW26522   8.145   3.417   1.756
41542SOL    HW126523   8.157   3.457   1.842
41542SOL    HW226524   8.065   3.457   1.721
41543SOL     OW26525  10.925   3.272   9.437
41543SOL    HW126526  10.997   3.323   9.400
41543SOL    HW226527  10.888   3.329   9.504
41544SOL     OW26528   7.631   3.964  14.442
41544SOL    HW126529   7.709   3.911  14.459
41544SOL    HW226530   7.588   3.970  14.528
41545SOL     OW26531  11.081   3.529   7.301
41545SOL    HW126532  11.004   3.502   7.352
41545SOL    HW226533  11.080   3.472   7.224
41546SOL     OW26534   9.909  13.380   9.784
41546SOL    HW126535   9.923  13.319   9.711
41546SOL    HW226536   9.943  13.463   9.753
41547SOL     OW26537   7.751   8.363  10.732
41547SOL    HW126538   7.732   8.402  10.817
41547SOL    HW226539   7.797   8.432  10.683
41548SOL     OW26540   9.276   8.691   5.744
41548SOL    HW126541   9.258   8.784   5.754
41548SOL    HW226542   9.305   8.662   5.830
41549SOL     OW26543   6.533   1.851   7.449
41549SOL    HW126544   6.465   1.841   7.516
41549SOL    HW226545   6.519   1.777   7.389
41550SOL     OW26546   4.942  12.258  13.715
41550SOL    HW126547   5.005  12.187  13.703
41550SOL    HW226548   4.981  12.314  13.782
41551SOL     OW26549  10.653  14.868   4.858
41551SOL    HW126550  10.644   0.014   4.947
41551SOL    HW226551  10.623   0.052   4.802
41552SOL     OW26552  14.554   7.458   5.438
41552SOL    HW126553  14.565   7.550   5.463
41552SOL    HW226554  14.630   7.414   5.476
41553SOL     OW26555   3.773   3.046   5.236
41553SOL    HW126556   3.791   2.984   5.307
41553SOL    HW226557   3.678   3.044   5.226
41554SOL     OW26558   4.346  14.497  12.827
41554SOL    HW126559   4.323  14.590  12.832
41554SOL    HW226560   4.398  14.481  12.905
41555SOL     OW26561   9.672   2.568   5.148
41555SOL    HW126562   9.683   2.618   5.229
41555SOL    HW226563   9.613   2.621   5.095
41556SOL     OW26564   2.771   7.992   7.309
41556SOL    HW126565   2.845   7.944   7.273
41556SOL    HW226566   2.760   8.068   7.251
41557SOL     OW26567  10.778   6.500   0.537
41557SOL    HW126568  10.794   6.505   0.443
41557SOL    HW226569  10.858   6.534   0.577
41558SOL     OW26570   2.475  12.422   8.144
41558SOL    HW126571   2.538  12.431   8.217
41558SOL    HW226572   2.468  12.328   8.130
41559SOL     OW26573   3.781   2.365   5.032
41559SOL    HW126574   3.842   2.329   5.096
41559SOL    HW226575   3.707   2.396   5.084
41560SOL     OW26576   1.203   4.853   8.271
41560SOL    HW126577   1.137   4.840   8.203
41560SOL    HW226578   1.226   4.764   8.299
41561SOL     OW26579   0.424   9.544   7.588
41561SOL    HW126580   0.488   9.609   7.616
41561SOL    HW226581   0.475   9.464   7.577
41562SOL     OW26582  10.950   0.302  12.659
41562SOL    HW126583  11.015   0.315  12.728
41562SOL    HW226584  10.947   0.207  12.647
41563SOL     OW26585   7.392  10.462  10.673
41563SOL    HW126586   7.373  10.442  10.765
41563SOL    HW226587   7.313  10.434  10.626
41564SOL     OW26588  14.524  11.992  11.693
41564SOL    HW126589  14.514  12.026  11.782
41564SOL    HW226590  14.611  12.019  11.666
41565SOL     OW26591  10.733   7.122   6.595
41565SOL    HW126592  10.796   7.173   6.544
41565SOL    HW226593  10.760   7.031   6.583
41566SOL     OW26594  11.563   2.054   0.625
41566SOL    HW126595  11.482   2.025   0.582
41566SOL    HW226596  11.617   2.088   0.554
41567SOL     OW26597  11.201   4.836  10.489
41567SOL    HW126598  11.135   4.864  10.427
41567SOL    HW226599  11.247   4.916  10.514
41568SOL     OW26600   7.810   7.694   0.493
41568SOL    HW126601   7.896   7.736   0.501
41568SOL    HW226602   7.788   7.700   0.400
41569SOL     OW26603   0.879  11.470   4.695
41569SOL    HW126604   0.798  11.422   4.715
41569SOL    HW226605   0.875  11.548   4.751
41570SOL     OW26606   1.179   4.196   5.274
41570SOL    HW126607   1.120   4.133   5.234
41570SOL    HW226608   1.259   4.191   5.221
41571SOL     OW26609  13.936   1.559   4.002
41571SOL    HW126610  13.959   1.569   4.094
41571SOL    HW226611  13.885   1.478   3.998
41572SOL     OW26612   1.837   8.512  11.826
41572SOL    HW126613   1.748   8.533  11.856
41572SOL    HW226614   1.831   8.420  11.799
41573SOL     OW26615   5.376   3.254   8.257
41573SOL    HW126616   5.332   3.279   8.338
41573SOL    HW226617   5.310   3.266   8.189
41574SOL     OW26618   5.319   2.090   9.278
41574SOL    HW126619   5.241   2.036   9.268
41574SOL    HW226620   5.315   2.151   9.204
41575SOL     OW26621   9.004   7.742   1.622
41575SOL    HW126622   8.920   7.751   1.665
41575SOL    HW226623   8.992   7.783   1.536
41576SOL     OW26624   8.606  10.486   0.255
41576SOL    HW126625   8.673  10.532   0.206
41576SOL    HW226626   8.531  10.546   0.255
41577SOL     OW26627  13.218  10.900   0.633
41577SOL    HW126628  13.201  10.990   0.605
41577SOL    HW226629  13.280  10.908   0.705
41578SOL     OW26630   0.803   0.354  13.005
41578SOL    HW126631   0.847   0.331  12.923
41578SOL    HW226632   0.755   0.274  13.029
41579SOL     OW26633   8.132  10.141   5.859
41579SOL    HW126634   8.221  10.112   5.883
41579SOL    HW226635   8.074  10.087   5.912
41580SOL     OW26636   6.402   1.098  14.601
41580SOL    HW126637   6.414   1.042  14.524
41580SOL    HW226638   6.314   1.134  14.591
41581SOL     OW26639  14.325   7.827   1.575
41581SOL    HW126640  14.383   7.901   1.558
41581SOL    HW226641  14.292   7.802   1.489
41582SOL     OW26642  11.268  13.643   2.452
41582SOL    HW126643  11.283  13.703   2.379
41582SOL    HW226644  11.278  13.697   2.531
41583SOL     OW26645  14.835   3.554   5.615
41583SOL    HW126646  14.882   3.538   5.697
41583SOL    HW226647  14.757   3.603   5.642
41584SOL     OW26648   8.302  13.880   1.459
41584SOL    HW126649   8.226  13.827   1.483
41584SOL    HW226650   8.351  13.891   1.541
41585SOL     OW26651  10.110   8.075   0.690
41585SOL    HW126652  10.091   8.103   0.779
41585SOL    HW226653  10.117   8.156   0.639
41586SOL     OW26654   6.204   0.227   1.296
41586SOL    HW126655   6.141   0.281   1.344
41586SOL    HW226656   6.203   0.263   1.207
41587SOL     OW26657   5.112   3.548   7.129
41587SOL    HW126658   5.070   3.499   7.058
41587SOL    HW226659   5.197   3.506   7.141
41588SOL     OW26660   9.746  13.082   6.975
41588SOL    HW126661   9.735  13.164   6.927
41588SOL    HW226662   9.658  13.058   7.004
41589SOL     OW26663  11.980   1.889   2.923
41589SOL    HW126664  11.929   1.808   2.926
41589SOL    HW226665  11.935   1.949   2.982
41590SOL     OW26666   0.040  14.319  13.377
41590SOL    HW126667   0.027  14.409  13.407
41590SOL    HW226668   0.131  14.299  13.399
41591SOL     OW26669   4.842   1.473   8.954
41591SOL    HW126670   4.840   1.384   8.918
41591SOL    HW226671   4.850   1.529   8.877
41592SOL     OW26672  12.535  11.055  11.155
41592SOL    HW126673  12.484  10.974  11.161
41592SOL    HW226674  12.588  11.044  11.076
41593SOL     OW26675   2.717   9.554   8.126
41593SOL    HW126676   2.783   9.584   8.063
41593SOL    HW226677   2.740   9.598   8.208
41594SOL     OW26678   4.292   5.556   0.848
41594SOL    HW126679   4.229   5.534   0.779
41594SOL    HW226680   4.292   5.652   0.851
41595SOL     OW26681   3.420   5.447  11.288
41595SOL    HW126682   3.418   5.443  11.383
41595SOL    HW226683   3.328   5.458  11.262
41596SOL     OW26684  11.382   8.904   0.067
41596SOL    HW126685  11.307   8.865   0.022
41596SOL    HW226686  11.364   8.998   0.069
41597SOL     OW26687   3.830   3.016  13.867
41597SOL    HW126688   3.882   3.022  13.787
41597SOL    HW226689   3.745   3.053  13.843
41598SOL     OW26690   8.585   3.795   8.165
41598SOL    HW126691   8.520   3.860   8.192
41598SOL    HW226692   8.534   3.728   8.119
41599SOL     OW26693   2.104  14.027   3.305
41599SOL    HW126694   2.178  13.971   3.280
41599SOL    HW226695   2.027  13.981   3.272
41600SOL     OW26696   3.249   4.139   2.344
41600SOL    HW126697   3.269   4.217   2.396
41600SOL    HW226698   3.175   4.099   2.389
41601SOL     OW26699   4.982   6.629   0.561
41601SOL    HW126700   5.032   6.681   0.624
41601SOL    HW226701   5.049   6.589   0.505
41602SOL     OW26702   1.818  11.078   7.599
41602SOL    HW126703   1.767  11.112   7.673
41602SOL    HW226704   1.881  11.018   7.639
41603SOL     OW26705   2.346   1.898   8.840
41603SOL    HW126706   2.300   1.823   8.804
41603SOL    HW226707   2.344   1.885   8.935
41604SOL     OW26708  13.236   9.841   5.251
41604SOL    HW126709  13.201   9.764   5.206
41604SOL    HW226710  13.300   9.804   5.313
41605SOL     OW26711  14.660   4.447   1.309
41605SOL    HW126712  14.597   4.429   1.379
41605SOL    HW226713  14.713   4.520   1.343
41606SOL     OW26714   6.486   1.500   6.131
41606SOL    HW126715   6.494   1.456   6.216
41606SOL    HW226716   6.505   1.432   6.067
41607SOL     OW26717  12.000  13.597  11.617
41607SOL    HW126718  11.934  13.558  11.674
41607SOL    HW226719  12.075  13.613  11.675
41608SOL     OW26720   6.369  14.826   6.785
41608SOL    HW126721   6.334  14.744   6.751
41608SOL    HW226722   6.309  14.851   6.855
41609SOL     OW26723   8.820  14.161   3.257
41609SOL    HW126724   8.826  14.066   3.243
41609SOL    HW226725   8.751  14.171   3.322
41610SOL     OW26726   3.080   9.036   9.839
41610SOL    HW126727   3.003   9.071   9.794
41610SOL    HW226728   3.106   9.105   9.899
41611SOL     OW26729   4.415  13.728   5.793
41611SOL    HW126730   4.403  13.640   5.829
41611SOL    HW226731   4.509  13.732   5.773
41612SOL     OW26732   3.950   5.683   6.405
41612SOL    HW126733   4.011   5.647   6.470
41612SOL    HW226734   3.998   5.679   6.323
41613SOL     OW26735  12.959  14.418   9.745
41613SOL    HW126736  12.998  14.366   9.675
41613SOL    HW226737  13.026  14.421   9.814
41614SOL     OW26738   8.099   0.547  13.292
41614SOL    HW126739   8.105   0.545  13.196
41614SOL    HW226740   8.063   0.461  13.315
41615SOL     OW26741  12.327   3.135   4.536
41615SOL    HW126742  12.392   3.065   4.529
41615SOL    HW226743  12.289   3.125   4.624
41616SOL     OW26744   6.380   8.931   1.335
41616SOL    HW126745   6.466   8.927   1.376
41616SOL    HW226746   6.390   8.995   1.264
41617SOL     OW26747   9.959   9.995   8.066
41617SOL    HW126748   9.988  10.086   8.072
41617SOL    HW226749  10.032   9.944   8.101
41618SOL     OW26750   3.290   4.645  14.367
41618SOL    HW126751   3.226   4.709  14.334
41618SOL    HW226752   3.292   4.577  14.300
41619SOL     OW26753   9.558   4.434   5.394
41619SOL    HW126754   9.494   4.505   5.396
41619SOL    HW226755   9.504   4.355   5.381
41620SOL     OW26756   3.230   0.244  11.070
41620SOL    HW126757   3.284   0.231  11.148
41620SOL    HW226758   3.169   0.313  11.095
41621SOL     OW26759   4.622  14.319  12.891
41621SOL    HW126760   4.600  14.232  12.857
41621SOL    HW226761   4.608  14.311  12.986
41622SOL     OW26762   5.214  10.237  13.941
41622SOL    HW126763   5.158  10.197  14.008
41622SOL    HW226764   5.302  10.206  13.961
41623SOL     OW26765   7.487   9.038   2.094
41623SOL    HW126766   7.515   9.126   2.118
41623SOL    HW226767   7.440   9.005   2.171
41624SOL     OW26768  13.962   4.597   6.082
41624SOL    HW126769  14.035   4.632   6.030
41624SOL    HW226770  14.001   4.576   6.167
41625SOL     OW26771  11.554   6.426  14.118
41625SOL    HW126772  11.555   6.522  14.113
41625SOL    HW226773  11.641   6.401  14.087
41626SOL     OW26774  14.604   6.767   1.421
41626SOL    HW126775  14.520   6.770   1.376
41626SOL    HW226776  14.668   6.754   1.351
41627SOL     OW26777  13.019   4.261   5.908
41627SOL    HW126778  12.933   4.219   5.910
41627SOL    HW226779  13.077   4.194   5.871
41628SOL     OW26780   0.321   4.558   1.487
41628SOL    HW126781   0.400   4.611   1.495
41628SOL    HW226782   0.264   4.607   1.427
41629SOL     OW26783   7.438   6.258  10.526
41629SOL    HW126784   7.400   6.238  10.612
41629SOL    HW226785   7.395   6.198  10.466
41630SOL     OW26786  10.186   5.830  14.288
41630SOL    HW126787  10.261   5.770  14.287
41630SOL    HW226788  10.218   5.907  14.335
41631SOL     OW26789   3.064   1.706   2.357
41631SOL    HW126790   3.101   1.764   2.423
41631SOL    HW226791   3.122   1.714   2.282
41632SOL     OW26792   4.563   0.633   7.134
41632SOL    HW126793   4.640   0.597   7.177
41632SOL    HW226794   4.537   0.707   7.189
41633SOL     OW26795   8.466   3.155   5.436
41633SOL    HW126796   8.437   3.163   5.527
41633SOL    HW226797   8.389   3.124   5.388
41634SOL     OW26798  14.591   2.909   2.078
41634SOL    HW126799  14.619   2.929   1.989
41634SOL    HW226800  14.659   2.852   2.113
41635SOL     OW26801   3.940  14.508   2.844
41635SOL    HW126802   4.014  14.476   2.896
41635SOL    HW226803   3.920  14.436   2.784
41636SOL     OW26804  10.254   7.846  10.443
41636SOL    HW126805  10.340   7.847  10.400
41636SOL    HW226806  10.199   7.792  10.387
41637SOL     OW26807   2.251   6.785   3.967
41637SOL    HW126808   2.238   6.795   3.873
41637SOL    HW226809   2.169   6.748   3.999
41638SOL     OW26810  14.331   0.145   4.291
41638SOL    HW126811  14.273   0.189   4.228
41638SOL    HW226812  14.399   0.106   4.237
41639SOL     OW26813  12.746   1.242  13.629
41639SOL    HW126814  12.713   1.301  13.562
41639SOL    HW226815  12.698   1.160  13.615
41640SOL     OW26816   5.509   3.236   7.665
41640SOL    HW126817   5.567   3.241   7.589
41640SOL    HW226818   5.568   3.238   7.740
41641SOL     OW26819  11.909   5.419  10.684
41641SOL    HW126820  11.948   5.332  10.681
41641SOL    HW226821  11.877   5.428  10.774
41642SOL     OW26822  10.910   7.647   5.826
41642SOL    HW126823  10.985   7.672   5.773
41642SOL    HW226824  10.935   7.669   5.915
41643SOL     OW26825  12.317   6.575   6.542
41643SOL    HW126826  12.333   6.516   6.617
41643SOL    HW226827  12.364   6.534   6.470
41644SOL     OW26828  11.271   1.483   9.149
41644SOL    HW126829  11.312   1.557   9.194
41644SOL    HW226830  11.203   1.453   9.209
41645SOL     OW26831   5.257   7.863  13.156
41645SOL    HW126832   5.244   7.769  13.144
41645SOL    HW226833   5.244   7.877  13.250
41646SOL     OW26834  14.234  10.827  11.023
41646SOL    HW126835  14.239  10.745  10.973
41646SOL    HW226836  14.151  10.820  11.071
41647SOL     OW26837   7.562   2.675   0.768
41647SOL    HW126838   7.595   2.761   0.742
41647SOL    HW226839   7.572   2.621   0.690
41648SOL     OW26840  10.451  14.302  13.576
41648SOL    HW126841  10.542  14.322  13.555
41648SOL    HW226842  10.439  14.335  13.665
41649SOL     OW26843  13.260  11.743   4.233
41649SOL    HW126844  13.250  11.687   4.156
41649SOL    HW226845  13.177  11.735   4.279
41650SOL     OW26846   4.266   7.927   2.701
41650SOL    HW126847   4.222   7.956   2.781
41650SOL    HW226848   4.195   7.913   2.638
41651SOL     OW26849   5.748   0.160   8.581
41651SOL    HW126850   5.799   0.083   8.556
41651SOL    HW226851   5.781   0.230   8.525
41652SOL     OW26852  10.489   2.094   0.566
41652SOL    HW126853  10.470   2.009   0.527
41652SOL    HW226854  10.412   2.114   0.619
41653SOL     OW26855   4.763   1.092   0.711
41653SOL    HW126856   4.785   1.003   0.686
41653SOL    HW226857   4.790   1.146   0.637
41654SOL     OW26858   5.576   5.267   0.270
41654SOL    HW126859   5.647   5.216   0.307
41654SOL    HW226860   5.528   5.301   0.346
41655SOL     OW26861  13.427  14.145   2.758
41655SOL    HW126862  13.427  14.074   2.693
41655SOL    HW226863  13.498  14.202   2.730
41656SOL     OW26864   9.348   2.888   0.664
41656SOL    HW126865   9.386   2.974   0.687
41656SOL    HW226866   9.358   2.883   0.568
41657SOL     OW26867   8.602  11.333  12.093
41657SOL    HW126868   8.608  11.393  12.018
41657SOL    HW226869   8.518  11.288  12.082
41658SOL     OW26870   5.592   2.789   8.010
41658SOL    HW126871   5.637   2.867   7.976
41658SOL    HW226872   5.556   2.747   7.932
41659SOL     OW26873  12.996   7.262  11.522
41659SOL    HW126874  12.901   7.268  11.535
41659SOL    HW226875  13.012   7.169  11.504
41660SOL     OW26876   4.233   1.694   4.602
41660SOL    HW126877   4.249   1.785   4.627
41660SOL    HW226878   4.146   1.674   4.636
41661SOL     OW26879   5.217  13.877  12.655
41661SOL    HW126880   5.184  13.870  12.745
41661SOL    HW226881   5.312  13.872  12.663
41662SOL     OW26882   4.494   2.705  11.818
41662SOL    HW126883   4.576   2.664  11.845
41662SOL    HW226884   4.519   2.767  11.750
41663SOL     OW26885   6.633   9.161   3.292
41663SOL    HW126886   6.612   9.072   3.321
41663SOL    HW226887   6.550   9.196   3.260
41664SOL     OW26888  12.741   4.619  13.629
41664SOL    HW126889  12.770   4.684  13.565
41664SOL    HW226890  12.803   4.547  13.620
41665SOL     OW26891   7.097   5.572  13.269
41665SOL    HW126892   7.094   5.598  13.177
41665SOL    HW226893   7.168   5.624  13.306
41666SOL     OW26894   6.236  10.790  11.151
41666SOL    HW126895   6.205  10.866  11.201
41666SOL    HW226896   6.330  10.805  11.142
41667SOL     OW26897  11.794   9.621   6.085
41667SOL    HW126898  11.768   9.713   6.077
41667SOL    HW226899  11.711   9.573   6.086
41668SOL     OW26900  13.895   3.296  11.370
41668SOL    HW126901  13.901   3.281  11.276
41668SOL    HW226902  13.803   3.317  11.385
41669SOL     OW26903   1.021   8.358   7.853
41669SOL    HW126904   0.965   8.287   7.885
41669SOL    HW226905   0.960   8.418   7.810
41670SOL     OW26906  13.391   6.937   2.590
41670SOL    HW126907  13.467   6.994   2.601
41670SOL    HW226908  13.319   6.997   2.570
41671SOL     OW26909   6.995   9.385  11.150
41671SOL    HW126910   6.907   9.369  11.184
41671SOL    HW226911   7.028   9.299  11.125
41672SOL     OW26912  12.951   0.301   8.321
41672SOL    HW126913  12.895   0.353   8.380
41672SOL    HW226914  13.029   0.355   8.310
41673SOL     OW26915   7.189   5.830  14.547
41673SOL    HW126916   7.258   5.831  14.613
41673SOL    HW226917   7.147   5.745  14.557
41674SOL     OW26918   2.243   9.543  13.058
41674SOL    HW126919   2.335   9.528  13.038
41674SOL    HW226920   2.219   9.470  13.116
41675SOL     OW26921  10.041   8.772  12.091
41675SOL    HW126922  10.036   8.867  12.080
41675SOL    HW226923  10.122   8.747  12.045
41676SOL     OW26924  11.415   6.320   1.996
41676SOL    HW126925  11.460   6.320   2.080
41676SOL    HW226926  11.438   6.236   1.955
41677SOL     OW26927  13.309   5.119   7.300
41677SOL    HW126928  13.345   5.195   7.254
41677SOL    HW226929  13.386   5.073   7.335
41678SOL     OW26930   6.989   6.973  13.395
41678SOL    HW126931   6.897   6.995  13.376
41678SOL    HW226932   6.988   6.878  13.408
41679SOL     OW26933  12.253   5.952   8.662
41679SOL    HW126934  12.349   5.953   8.667
41679SOL    HW226935  12.229   6.043   8.650
41680SOL     OW26936  10.915  11.030  11.867
41680SOL    HW126937  10.907  10.935  11.875
41680SOL    HW226938  10.938  11.045  11.775
41681SOL     OW26939   8.590   1.848   1.128
41681SOL    HW126940   8.543   1.772   1.094
41681SOL    HW226941   8.656   1.867   1.062
41682SOL     OW26942  14.204  14.413  13.921
41682SOL    HW126943  14.125  14.447  13.878
41682SOL    HW226944  14.179  14.402  14.013
41683SOL     OW26945  13.227   1.165   1.296
41683SOL    HW126946  13.311   1.130   1.266
41683SOL    HW226947  13.177   1.088   1.324
41684SOL     OW26948   5.408   3.815  13.005
41684SOL    HW126949   5.361   3.739  13.039
41684SOL    HW226950   5.487   3.820  13.058
41685SOL     OW26951   9.152  14.004   3.317
41685SOL    HW126952   9.143  13.922   3.366
41685SOL    HW226953   9.158  13.977   3.225
41686SOL     OW26954   1.178  10.713   6.645
41686SOL    HW126955   1.271  10.692   6.649
41686SOL    HW226956   1.136  10.632   6.617
41687SOL     OW26957   1.250  13.343   9.105
41687SOL    HW126958   1.259  13.408   9.174
41687SOL    HW226959   1.217  13.392   9.030
41688SOL     OW26960   8.873  13.095  13.748
41688SOL    HW126961   8.940  13.033  13.778
41688SOL    HW226962   8.795  13.040  13.733
41689SOL     OW26963  11.088   1.474  11.566
41689SOL    HW126964  11.017   1.425  11.608
41689SOL    HW226965  11.053   1.498  11.480
41690SOL     OW26966  13.677  14.162  12.749
41690SOL    HW126967  13.668  14.239  12.692
41690SOL    HW226968  13.600  14.109  12.730
41691SOL     OW26969  14.251   6.879  10.592
41691SOL    HW126970  14.206   6.905  10.672
41691SOL    HW226971  14.304   6.804  10.617
41692SOL     OW26972   5.876   2.938   2.201
41692SOL    HW126973   5.931   2.882   2.256
41692SOL    HW226974   5.937   2.974   2.136
41693SOL     OW26975   5.808   8.005   1.601
41693SOL    HW126976   5.822   7.972   1.690
41693SOL    HW226977   5.857   7.945   1.545
41694SOL     OW26978   6.405  11.199   5.385
41694SOL    HW126979   6.398  11.107   5.410
41694SOL    HW226980   6.316  11.233   5.396
41695SOL     OW26981  11.597   3.523   2.757
41695SOL    HW126982  11.632   3.581   2.824
41695SOL    HW226983  11.668   3.460   2.740
41696SOL     OW26984   6.279   5.627  12.864
41696SOL    HW126985   6.209   5.608  12.800
41696SOL    HW226986   6.233   5.645  12.945
41697SOL     OW26987   5.009  13.432   6.684
41697SOL    HW126988   4.958  13.474   6.615
41697SOL    HW226989   4.948  13.425   6.758
41698SOL     OW26990  11.681   8.894  14.856
41698SOL    HW126991  11.588   8.906  14.876
41698SOL    HW226992  11.726   8.940   0.039
41699SOL     OW26993  13.898   0.603   0.112
41699SOL    HW126994  13.976   0.548   0.105
41699SOL    HW226995  13.834   0.560   0.054
41700SOL     OW26996   6.919   5.980  14.531
41700SOL    HW126997   6.891   5.889  14.526
41700SOL    HW226998   7.010   5.976  14.559
41701SOL     OW26999   9.298  13.812  13.279
41701SOL    HW127000   9.302  13.892  13.332
41701SOL    HW227001   9.356  13.751  13.324
41702SOL     OW27002  13.709  10.963   6.102
41702SOL    HW127003  13.703  11.025   6.029
41702SOL    HW227004  13.736  10.880   6.062
41703SOL     OW27005   8.124   6.960  11.728
41703SOL    HW127006   8.122   7.036  11.669
41703SOL    HW227007   8.196   6.979  11.788
41704SOL     OW27008   8.507  11.168  14.225
41704SOL    HW127009   8.465  11.097  14.175
41704SOL    HW227010   8.553  11.219  14.158
41705SOL     OW27011   2.882  11.687   9.402
41705SOL    HW127012   2.939  11.611   9.391
41705SOL    HW227013   2.823  11.684   9.327
41706SOL     OW27014  10.368  12.524  14.814
41706SOL    HW127015  10.435  12.500  14.878
41706SOL    HW227016  10.418  12.556  14.739
41707SOL     OW27017   0.516  11.676   8.467
41707SOL    HW127018   0.541  11.713   8.552
41707SOL    HW227019   0.597  11.678   8.416
41708SOL     OW27020   5.471  14.435   6.240
41708SOL    HW127021   5.394  14.395   6.281
41708SOL    HW227022   5.531  14.452   6.313
41709SOL     OW27023  13.999   8.511   6.765
41709SOL    HW127024  13.903   8.504   6.759
41709SOL    HW227025  14.026   8.431   6.810
41710SOL     OW27026  14.533   9.146   4.391
41710SOL    HW127027  14.625   9.129   4.371
41710SOL    HW227028  14.521   9.113   4.480
41711SOL     OW27029  10.805   4.124  12.881
41711SOL    HW127030  10.775   4.215  12.868
41711SOL    HW227031  10.729   4.079  12.917
41712SOL     OW27032   6.635  14.751   2.201
41712SOL    HW127033   6.664  14.678   2.255
41712SOL    HW227034   6.557  14.719   2.155
41713SOL     OW27035   0.924   2.002  11.703
41713SOL    HW127036   0.855   2.024  11.766
41713SOL    HW227037   0.946   2.085  11.661
41714SOL     OW27038  11.466   0.968   2.543
41714SOL    HW127039  11.463   0.992   2.450
41714SOL    HW227040  11.492   1.049   2.588
41715SOL     OW27041   4.441   2.801   3.757
41715SOL    HW127042   4.482   2.868   3.811
41715SOL    HW227043   4.507   2.732   3.749
41716SOL     OW27044  12.864   8.236  11.688
41716SOL    HW127045  12.781   8.230  11.735
41716SOL    HW227046  12.843   8.205  11.599
41717SOL     OW27047   2.694   0.208  14.114
41717SOL    HW127048   2.626   0.145  14.137
41717SOL    HW227049   2.717   0.250  14.197
41718SOL     OW27050   3.779   8.118  11.048
41718SOL    HW127051   3.869   8.086  11.053
41718SOL    HW227052   3.787   8.213  11.039
41719SOL     OW27053  14.748  10.811   3.115
41719SOL    HW127054  14.707  10.897   3.101
41719SOL    HW227055  14.792  10.792   3.033
41720SOL     OW27056   9.605   1.240   6.823
41720SOL    HW127057   9.513   1.215   6.829
41720SOL    HW227058   9.624   1.283   6.907
41721SOL     OW27059   2.517   8.050   7.428
41721SOL    HW127060   2.434   8.074   7.388
41721SOL    HW227061   2.579   8.051   7.355
41722SOL     OW27062   7.993  14.192   1.984
41722SOL    HW127063   7.941  14.270   2.003
41722SOL    HW227064   8.058  14.222   1.920
41723SOL     OW27065   1.045   8.889  10.518
41723SOL    HW127066   0.967   8.939  10.541
41723SOL    HW227067   1.093   8.945  10.457
41724SOL     OW27068  11.987  14.783   3.555
41724SOL    HW127069  12.043  14.723   3.506
41724SOL    HW227070  11.998  14.868   3.511
41725SOL     OW27071   2.688  10.921   9.237
41725SOL    HW127072   2.666  10.846   9.292
41725SOL    HW227073   2.697  10.886   9.149
41726SOL     OW27074   7.213  14.574  13.571
41726SOL    HW127075   7.128  14.605  13.541
41726SOL    HW227076   7.247  14.523  13.497
41727SOL     OW27077  10.281  11.836  12.197
41727SOL    HW127078  10.318  11.910  12.245
41727SOL    HW227079  10.187  11.854  12.195
41728SOL     OW27080  11.542  12.041   8.858
41728SOL    HW127081  11.609  11.993   8.809
41728SOL    HW227082  11.519  12.115   8.801
41729SOL     OW27083   8.800   8.198   5.961
41729SOL    HW127084   8.772   8.263   5.896
41729SOL    HW227085   8.789   8.243   6.045
41730SOL     OW27086   8.118   2.088  10.759
41730SOL    HW127087   8.063   2.081  10.837
41730SOL    HW227088   8.183   2.154  10.781
41731SOL     OW27089   8.888   0.581   2.619
41731SOL    HW127090   8.892   0.630   2.537
41731SOL    HW227091   8.864   0.645   2.685
41732SOL     OW27092  13.650  12.456  11.959
41732SOL    HW127093  13.629  12.546  11.934
41732SOL    HW227094  13.578  12.429  12.015
41733SOL     OW27095   0.970   9.076   3.401
41733SOL    HW127096   0.886   9.032   3.389
41733SOL    HW227097   0.947   9.161   3.438
41734SOL     OW27098  12.328  14.694  14.022
41734SOL    HW127099  12.290  14.758  14.083
41734SOL    HW227100  12.270  14.618  14.028
41735SOL     OW27101  12.515  12.402   5.602
41735SOL    HW127102  12.518  12.422   5.509
41735SOL    HW227103  12.465  12.321   5.608
41736SOL     OW27104   7.738   7.206   1.219
41736SOL    HW127105   7.684   7.193   1.297
41736SOL    HW227106   7.683   7.258   1.160
41737SOL     OW27107   5.826  12.812   3.169
41737SOL    HW127108   5.880  12.802   3.247
41737SOL    HW227109   5.859  12.745   3.109
41738SOL     OW27110  14.567   7.486   2.437
41738SOL    HW127111  14.623   7.457   2.509
41738SOL    HW227112  14.623   7.544   2.385
41739SOL     OW27113  10.867   0.810   3.766
41739SOL    HW127114  10.864   0.851   3.853
41739SOL    HW227115  10.818   0.729   3.776
41740SOL     OW27116   1.368   9.872   2.803
41740SOL    HW127117   1.291   9.911   2.844
41740SOL    HW227118   1.384   9.792   2.851
41741SOL     OW27119   5.906  13.173   5.984
41741SOL    HW127120   5.844  13.245   5.997
41741SOL    HW227121   5.879  13.106   6.048
41742SOL     OW27122   3.752   0.964   5.387
41742SOL    HW127123   3.814   0.891   5.382
41742SOL    HW227124   3.671   0.928   5.352
41743SOL     OW27125  12.331   3.050   4.796
41743SOL    HW127126  12.333   2.985   4.866
41743SOL    HW227127  12.402   3.110   4.817
41744SOL     OW27128  12.315  11.018  11.385
41744SOL    HW127129  12.395  11.044  11.430
41744SOL    HW227130  12.312  10.923  11.395
41745SOL     OW27131   5.501   4.323   6.894
41745SOL    HW127132   5.564   4.382   6.935
41745SOL    HW227133   5.522   4.326   6.800
41746SOL     OW27134  13.881   3.661   4.892
41746SOL    HW127135  13.865   3.638   4.984
41746SOL    HW227136  13.898   3.577   4.849
41747SOL     OW27137   6.949   9.812   6.132
41747SOL    HW127138   6.977   9.833   6.043
41747SOL    HW227139   7.013   9.748   6.163
41748SOL     OW27140   8.250   9.261   9.101
41748SOL    HW127141   8.293   9.191   9.151
41748SOL    HW227142   8.158   9.234   9.098
41749SOL     OW27143   0.874   7.452   5.272
41749SOL    HW127144   0.930   7.450   5.350
41749SOL    HW227145   0.934   7.434   5.199
41750SOL     OW27146   5.853   0.922   2.669
41750SOL    HW127147   5.852   0.955   2.759
41750SOL    HW227148   5.922   0.856   2.669
41751SOL     OW27149   9.446  12.698   9.624
41751SOL    HW127150   9.451  12.671   9.715
41751SOL    HW227151   9.406  12.623   9.579
41752SOL     OW27152   0.771   9.868   6.369
41752SOL    HW127153   0.773   9.778   6.402
41752SOL    HW227154   0.847   9.874   6.312
41753SOL     OW27155   5.416  11.956   9.679
41753SOL    HW127156   5.440  12.014   9.605
41753SOL    HW227157   5.500  11.922   9.709
41754SOL     OW27158  14.405  11.483   2.673
41754SOL    HW127159  14.401  11.548   2.603
41754SOL    HW227160  14.446  11.530   2.746
41755SOL     OW27161  12.742   4.836  10.830
41755SOL    HW127162  12.804   4.775  10.790
41755SOL    HW227163  12.792   4.878  10.900
41756SOL     OW27164   8.688   6.393  12.845
41756SOL    HW127165   8.647   6.323  12.795
41756SOL    HW227166   8.620   6.425  12.904
41757SOL     OW27167   6.726  14.582  13.550
41757SOL    HW127168   6.721  14.677  13.550
41757SOL    HW227169   6.785  14.561  13.622
41758SOL     OW27170   4.961  11.437   5.816
41758SOL    HW127171   4.901  11.501   5.779
41758SOL    HW227172   5.046  11.456   5.775
41759SOL     OW27173  10.750  10.996   4.084
41759SOL    HW127174  10.729  10.972   4.174
41759SOL    HW227175  10.678  10.958   4.032
41760SOL     OW27176  14.142   9.007  12.658
41760SOL    HW127177  14.197   8.993  12.582
41760SOL    HW227178  14.079   8.935  12.656
41761SOL     OW27179   6.943   6.778   7.741
41761SOL    HW127180   6.949   6.844   7.810
41761SOL    HW227181   7.018   6.795   7.684
41762SOL     OW27182  14.388   7.220   1.771
41762SOL    HW127183  14.326   7.187   1.836
41762SOL    HW227184  14.383   7.315   1.779
41763SOL     OW27185   7.794   1.118  12.825
41763SOL    HW127186   7.722   1.170  12.789
41763SOL    HW227187   7.846   1.094  12.749
41764SOL     OW27188   7.201  10.833  14.454
41764SOL    HW127189   7.134  10.894  14.484
41764SOL    HW227190   7.167  10.747  14.480
41765SOL     OW27191   2.975   0.685   7.309
41765SOL    HW127192   3.038   0.721   7.246
41765SOL    HW227193   3.028   0.631   7.368
41766SOL     OW27194   6.338   0.376   7.619
41766SOL    HW127195   6.416   0.321   7.627
41766SOL    HW227196   6.371   0.462   7.596
41767SOL     OW27197   2.928   1.750   8.673
41767SOL    HW127198   2.912   1.656   8.678
41767SOL    HW227199   2.865   1.788   8.734
41768SOL     OW27200   6.079   0.860   7.204
41768SOL    HW127201   5.999   0.904   7.233
41768SOL    HW227202   6.059   0.767   7.207
41769SOL     OW27203  12.069   9.452   9.645
41769SOL    HW127204  12.135   9.384   9.635
41769SOL    HW227205  12.009   9.440   9.572
41770SOL     OW27206  11.491   3.644   3.068
41770SOL    HW127207  11.434   3.716   3.039
41770SOL    HW227208  11.573   3.658   3.021
41771SOL     OW27209   9.114   2.533   6.109
41771SOL    HW127210   9.130   2.549   6.202
41771SOL    HW227211   9.022   2.556   6.096
41772SOL     OW27212  12.329  13.867   5.417
41772SOL    HW127213  12.347  13.958   5.442
41772SOL    HW227214  12.380  13.854   5.336
41773SOL     OW27215   2.368   9.185  14.542
41773SOL    HW127216   2.305   9.173  14.613
41773SOL    HW227217   2.375   9.280  14.533
41774SOL     OW27218   4.409   1.683   9.027
41774SOL    HW127219   4.389   1.770   9.060
41774SOL    HW227220   4.496   1.664   9.061
41775SOL     OW27221   0.764   8.720   2.044
41775SOL    HW127222   0.719   8.772   1.978
41775SOL    HW227223   0.841   8.685   1.999
41776SOL     OW27224   7.176  11.003   2.686
41776SOL    HW127225   7.196  11.045   2.770
41776SOL    HW227226   7.082  11.013   2.676
41777SOL     OW27227  13.081  14.528   4.659
41777SOL    HW127228  13.153  14.582   4.625
41777SOL    HW227229  13.012  14.591   4.682
41778SOL     OW27230   0.624   5.926   0.839
41778SOL    HW127231   0.542   5.877   0.842
41778SOL    HW227232   0.691   5.859   0.852
41779SOL     OW27233   9.124   9.629   0.787
41779SOL    HW127234   9.068   9.598   0.859
41779SOL    HW227235   9.152   9.716   0.815
41780SOL     OW27236  11.429   0.153   6.299
41780SOL    HW127237  11.335   0.148   6.315
41780SOL    HW227238  11.467   0.091   6.361
41781SOL     OW27239   6.209  11.073   5.960
41781SOL    HW127240   6.263  11.026   6.023
41781SOL    HW227241   6.119  11.057   5.989
41782SOL     OW27242  11.897   5.800  12.927
41782SOL    HW127243  11.884   5.867  12.994
41782SOL    HW227244  11.947   5.844  12.858
41783SOL     OW27245   6.466   9.537   5.818
41783SOL    HW127246   6.463   9.442   5.810
41783SOL    HW227247   6.532   9.554   5.885
41784SOL     OW27248   4.561   0.806   5.592
41784SOL    HW127249   4.608   0.807   5.676
41784SOL    HW227250   4.476   0.770   5.613
41785SOL     OW27251   9.829   3.056   6.295
41785SOL    HW127252   9.901   3.119   6.290
41785SOL    HW227253   9.867   2.978   6.334
41786SOL     OW27254  11.692  10.445  11.412
41786SOL    HW127255  11.754  10.440  11.484
41786SOL    HW227256  11.721  10.378  11.350
41787SOL     OW27257  11.650   3.133   3.567
41787SOL    HW127258  11.628   3.218   3.530
41787SOL    HW227259  11.568   3.102   3.607
41788SOL     OW27260  10.620   1.251   8.329
41788SOL    HW127261  10.652   1.326   8.379
41788SOL    HW227262  10.699   1.214   8.289
41789SOL     OW27263  10.303   5.511   9.316
41789SOL    HW127264  10.364   5.507   9.389
41789SOL    HW227265  10.219   5.536   9.355
41790SOL     OW27266   2.758   0.653   2.305
41790SOL    HW127267   2.722   0.734   2.340
41790SOL    HW227268   2.851   0.658   2.324
41791SOL     OW27269   8.277   5.914   5.973
41791SOL    HW127270   8.194   5.901   6.019
41791SOL    HW227271   8.267   5.998   5.929
41792SOL     OW27272  14.707  14.820   6.246
41792SOL    HW127273  14.769  14.884   6.282
41792SOL    HW227274  14.641  14.810   6.315
41793SOL     OW27275   3.154   8.870   3.688
41793SOL    HW127276   3.236   8.858   3.640
41793SOL    HW227277   3.167   8.823   3.770
41794SOL     OW27278   1.048   8.767   4.063
41794SOL    HW127279   1.089   8.688   4.097
41794SOL    HW227280   1.121   8.820   4.030
41795SOL     OW27281  12.779   8.718   6.754
41795SOL    HW127282  12.802   8.632   6.717
41795SOL    HW227283  12.829   8.722   6.836
41796SOL     OW27284   3.995  14.798  14.327
41796SOL    HW127285   3.917  14.750  14.298
41796SOL    HW227286   3.961  14.868  14.382
41797SOL     OW27287   6.013   6.190   7.445
41797SOL    HW127288   6.042   6.212   7.533
41797SOL    HW227289   5.952   6.261   7.422
41798SOL     OW27290   0.272  11.222  10.751
41798SOL    HW127291   0.280  11.127  10.762
41798SOL    HW227292   0.243  11.254  10.836
41799SOL     OW27293  14.610   1.684  12.376
41799SOL    HW127294  14.632   1.649  12.462
41799SOL    HW227295  14.658   1.766  12.370
41800SOL     OW27296   7.684  14.548  10.420
41800SOL    HW127297   7.767  14.596  10.418
41800SOL    HW227298   7.708  14.461  10.453
41801SOL     OW27299   0.280  12.436   1.631
41801SOL    HW127300   0.277  12.470   1.720
41801SOL    HW227301   0.294  12.513   1.576
41802SOL     OW27302  10.474  11.368  14.431
41802SOL    HW127303  10.499  11.406  14.516
41802SOL    HW227304  10.515  11.282  14.430
41803SOL     OW27305   2.452   6.826   6.059
41803SOL    HW127306   2.400   6.748   6.038
41803SOL    HW227307   2.416   6.857   6.142
41804SOL     OW27308   8.860   2.709   8.982
41804SOL    HW127309   8.951   2.683   9.000
41804SOL    HW227310   8.840   2.772   9.050
41805SOL     OW27311  14.264   0.983   2.519
41805SOL    HW127312  14.247   0.948   2.432
41805SOL    HW227313  14.191   1.044   2.535
41806SOL     OW27314   6.245   2.632  11.361
41806SOL    HW127315   6.179   2.565  11.377
41806SOL    HW227316   6.195   2.712  11.342
41807SOL     OW27317  11.457   5.205   2.338
41807SOL    HW127318  11.477   5.111   2.340
41807SOL    HW227319  11.506   5.242   2.412
41808SOL     OW27320  14.619   1.437   5.424
41808SOL    HW127321  14.692   1.377   5.410
41808SOL    HW227322  14.565   1.394   5.490
41809SOL     OW27323  14.097  11.920   3.951
41809SOL    HW127324  14.181  11.896   3.910
41809SOL    HW227325  14.056  11.836   3.972
41810SOL     OW27326  12.485  14.360   6.248
41810SOL    HW127327  12.437  14.437   6.218
41810SOL    HW227328  12.577  14.388   6.249
41811SOL     OW27329  14.292   5.753  14.261
41811SOL    HW127330  14.205   5.720  14.283
41811SOL    HW227331  14.310   5.717  14.174
41812SOL     OW27332  14.139   8.346  14.857
41812SOL    HW127333  14.118   8.401  14.781
41812SOL    HW227334  14.193   8.401   0.025
41813SOL     OW27335   8.203   2.803  14.542
41813SOL    HW127336   8.275   2.794  14.603
41813SOL    HW227337   8.126   2.774  14.591
41814SOL     OW27338  13.634   0.106   6.291
41814SOL    HW127339  13.606   0.084   6.380
41814SOL    HW227340  13.695   0.036   6.267
41815SOL     OW27341   4.637   1.128   2.620
41815SOL    HW127342   4.640   1.033   2.630
41815SOL    HW227343   4.589   1.158   2.697
41816SOL     OW27344   7.582   5.090   0.404
41816SOL    HW127345   7.650   5.037   0.362
41816SOL    HW227346   7.587   5.067   0.496
41817SOL     OW27347   6.219   3.354  10.013
41817SOL    HW127348   6.204   3.340   9.919
41817SOL    HW227349   6.292   3.297  10.035
41818SOL     OW27350   0.455   5.830  14.703
41818SOL    HW127351   0.383   5.784  14.660
41818SOL    HW227352   0.459   5.792  14.791
41819SOL     OW27353   2.382   0.861   9.199
41819SOL    HW127354   2.403   0.881   9.291
41819SOL    HW227355   2.434   0.783   9.179
41820SOL     OW27356  14.574  12.651   4.004
41820SOL    HW127357  14.547  12.738   4.035
41820SOL    HW227358  14.496  12.614   3.963
41821SOL     OW27359   3.393   5.459   8.352
41821SOL    HW127360   3.398   5.473   8.446
41821SOL    HW227361   3.420   5.368   8.339
41822SOL     OW27362   5.365   1.698   9.970
41822SOL    HW127363   5.271   1.702   9.958
41822SOL    HW227364   5.400   1.669   9.885
41823SOL     OW27365   0.287  14.638   0.776
41823SOL    HW127366   0.205  14.609   0.816
41823SOL    HW227367   0.270  14.727   0.746
41824SOL     OW27368   4.806   9.935   2.935
41824SOL    HW127369   4.789   9.858   2.989
41824SOL    HW227370   4.740   9.999   2.963
41825SOL     OW27371   7.981  12.532  13.157
41825SOL    HW127372   8.001  12.613  13.112
41825SOL    HW227373   7.965  12.469  13.087
41826SOL     OW27374  12.129  13.080   0.897
41826SOL    HW127375  12.076  13.023   0.954
41826SOL    HW227376  12.209  13.030   0.881
41827SOL     OW27377  10.806  11.318  13.821
41827SOL    HW127378  10.771  11.390  13.873
41827SOL    HW227379  10.836  11.254  13.886
41828SOL     OW27380   4.210   8.948   0.070
41828SOL    HW127381   4.229   8.906  14.874
41828SOL    HW227382   4.226   9.041   0.055
41829SOL     OW27383   9.685   9.179   4.217
41829SOL    HW127384   9.590   9.168   4.224
41829SOL    HW227385   9.696   9.264   4.174
41830SOL     OW27386   8.809   7.563   4.029
41830SOL    HW127387   8.859   7.590   4.107
41830SOL    HW227388   8.867   7.585   3.956
41831SOL     OW27389   8.821   0.799   9.371
41831SOL    HW127390   8.809   0.732   9.304
41831SOL    HW227391   8.913   0.792   9.397
41832SOL     OW27392   8.246   8.484  11.311
41832SOL    HW127393   8.169   8.430  11.331
41832SOL    HW227394   8.247   8.550  11.380
41833SOL     OW27395   4.875  10.411   6.051
41833SOL    HW127396   4.821  10.458   5.987
41833SOL    HW227397   4.811  10.364   6.106
41834SOL     OW27398   5.243   6.457   9.980
41834SOL    HW127399   5.328   6.450   9.936
41834SOL    HW227400   5.182   6.411   9.922
41835SOL     OW27401  11.379  13.166  10.776
41835SOL    HW127402  11.467  13.129  10.765
41835SOL    HW227403  11.323  13.090  10.790
41836SOL     OW27404   0.860   8.706   9.853
41836SOL    HW127405   0.917   8.660   9.791
41836SOL    HW227406   0.907   8.786   9.874
41837SOL     OW27407   2.310   1.890   5.714
41837SOL    HW127408   2.351   1.896   5.801
41837SOL    HW227409   2.231   1.944   5.721
41838SOL     OW27410   9.001   0.525   3.651
41838SOL    HW127411   8.976   0.617   3.655
41838SOL    HW227412   8.947   0.489   3.580
41839SOL     OW27413   0.057  12.023   0.753
41839SOL    HW127414   0.128  12.082   0.779
41839SOL    HW227415  14.865  12.064   0.787
41840SOL     OW27416  14.114  14.204   0.214
41840SOL    HW127417  14.048  14.273   0.216
41840SOL    HW227418  14.070  14.129   0.174
41841SOL     OW27419  14.824   8.017   0.196
41841SOL    HW127420  14.779   7.935   0.174
41841SOL    HW227421  14.821   8.021   0.291
41842SOL     OW27422   2.002   3.277   5.890
41842SOL    HW127423   1.994   3.200   5.834
41842SOL    HW227424   2.090   3.270   5.928
41843SOL     OW27425  14.038  13.106   9.960
41843SOL    HW127426  14.019  13.181  10.016
41843SOL    HW227427  13.958  13.094   9.908
41844SOL     OW27428   5.578  11.119  13.913
41844SOL    HW127429   5.632  11.108  13.834
41844SOL    HW227430   5.513  11.184  13.888
41845SOL     OW27431   9.892  13.153   9.160
41845SOL    HW127432   9.977  13.197   9.170
41845SOL    HW227433   9.899  13.074   9.213
41846SOL     OW27434   9.778   3.812   5.696
41846SOL    HW127435   9.867   3.802   5.662
41846SOL    HW227436   9.732   3.862   5.628
41847SOL     OW27437   3.007  11.947   9.844
41847SOL    HW127438   3.082  11.964   9.901
41847SOL    HW227439   3.040  11.962   9.755
41848SOL     OW27440  14.149   4.634   0.972
41848SOL    HW127441  14.081   4.589   0.921
41848SOL    HW227442  14.227   4.579   0.961
41849SOL     OW27443  10.504  10.751  10.105
41849SOL    HW127444  10.426  10.707  10.070
41849SOL    HW227445  10.479  10.843  10.111
41850SOL     OW27446   8.608   0.706   1.606
41850SOL    HW127447   8.587   0.755   1.686
41850SOL    HW227448   8.592   0.769   1.535
41851SOL     OW27449  11.035   0.812   7.560
41851SOL    HW127450  11.031   0.812   7.464
41851SOL    HW227451  11.010   0.723   7.585
41852SOL     OW27452  12.976   1.512   0.845
41852SOL    HW127453  12.923   1.433   0.832
41852SOL    HW227454  13.065   1.479   0.855
41853SOL     OW27455  10.433  13.156   2.358
41853SOL    HW127456  10.341  13.133   2.347
41853SOL    HW227457  10.444  13.236   2.307
41854SOL     OW27458  12.319   2.199   4.524
41854SOL    HW127459  12.372   2.127   4.557
41854SOL    HW227460  12.322   2.265   4.593
41855SOL     OW27461   8.274  13.540   6.351
41855SOL    HW127462   8.332  13.605   6.390
41855SOL    HW227463   8.216  13.590   6.294
41856SOL     OW27464   3.334  12.337   3.417
41856SOL    HW127465   3.298  12.389   3.489
41856SOL    HW227466   3.260  12.285   3.386
41857SOL     OW27467  10.912   2.290  10.415
41857SOL    HW127468  10.884   2.247  10.334
41857SOL    HW227469  10.987   2.238  10.444
41858SOL     OW27470  12.618   3.994   7.602
41858SOL    HW127471  12.526   4.018   7.606
41858SOL    HW227472  12.635   3.952   7.686
41859SOL     OW27473   9.570  10.586  14.284
41859SOL    HW127474   9.514  10.660  14.265
41859SOL    HW227475   9.632  10.583  14.211
41860SOL     OW27476   6.115  12.543   4.303
41860SOL    HW127477   6.192  12.504   4.344
41860SOL    HW227478   6.050  12.473   4.303
41861SOL     OW27479  10.782   2.122   0.617
41861SOL    HW127480  10.749   2.180   0.685
41861SOL    HW227481  10.704   2.083   0.578
41862SOL     OW27482   6.726   7.760  13.574
41862SOL    HW127483   6.806   7.711  13.589
41862SOL    HW227484   6.719   7.819  13.649
41863SOL     OW27485   0.320   7.741   3.726
41863SOL    HW127486   0.297   7.655   3.761
41863SOL    HW227487   0.241   7.772   3.683
41864SOL     OW27488   0.839   6.464  12.195
41864SOL    HW127489   0.869   6.528  12.131
41864SOL    HW227490   0.849   6.379  12.152
41865SOL     OW27491  13.584  12.848   4.673
41865SOL    HW127492  13.555  12.776   4.729
41865SOL    HW227493  13.555  12.927   4.720
41866SOL     OW27494   5.578  14.437   1.092
41866SOL    HW127495   5.511  14.502   1.114
41866SOL    HW227496   5.529  14.359   1.067
41867SOL     OW27497   8.321   5.839   8.154
41867SOL    HW127498   8.243   5.874   8.197
41867SOL    HW227499   8.307   5.857   8.061
41868SOL     OW27500   5.068   2.473   5.365
41868SOL    HW127501   5.074   2.383   5.396
41868SOL    HW227502   4.977   2.498   5.379
41869SOL     OW27503   0.766   8.971   8.003
41869SOL    HW127504   0.835   8.992   8.066
41869SOL    HW227505   0.735   9.057   7.973
41870SOL     OW27506   0.329   2.520   5.928
41870SOL    HW127507   0.396   2.509   5.860
41870SOL    HW227508   0.270   2.587   5.893
41871SOL     OW27509   1.354   7.975   2.782
41871SOL    HW127510   1.437   8.010   2.749
41871SOL    HW227511   1.312   8.050   2.823
41872SOL     OW27512   3.389  11.622   2.041
41872SOL    HW127513   3.480  11.637   2.066
41872SOL    HW227514   3.344  11.702   2.065
41873SOL     OW27515   1.899   3.716   8.383
41873SOL    HW127516   1.950   3.792   8.355
41873SOL    HW227517   1.888   3.728   8.478
41874SOL     OW27518   7.759  13.291   0.109
41874SOL    HW127519   7.811  13.350   0.164
41874SOL    HW227520   7.821  13.224   0.080
41875SOL     OW27521   3.402  13.190  11.831
41875SOL    HW127522   3.310  13.208  11.811
41875SOL    HW227523   3.450  13.213  11.751
41876SOL     OW27524   8.411   4.679   4.253
41876SOL    HW127525   8.462   4.694   4.333
41876SOL    HW227526   8.364   4.597   4.269
41877SOL     OW27527   3.139   1.358  13.554
41877SOL    HW127528   3.213   1.313  13.513
41877SOL    HW227529   3.179   1.425  13.608
41878SOL     OW27530   6.908   4.177   3.185
41878SOL    HW127531   6.951   4.253   3.223
41878SOL    HW227532   6.817   4.185   3.214
41879SOL     OW27533   3.787  14.776  11.598
41879SOL    HW127534   3.745  14.767  11.512
41879SOL    HW227535   3.854  14.707  11.600
41880SOL     OW27536   7.950   8.930  12.252
41880SOL    HW127537   7.975   8.872  12.325
41880SOL    HW227538   7.951   9.018  12.290
41881SOL     OW27539   9.136   7.263   8.037
41881SOL    HW127540   9.191   7.323   7.986
41881SOL    HW227541   9.073   7.320   8.082
41882SOL     OW27542  10.369  10.978   7.591
41882SOL    HW127543  10.463  10.973   7.611
41882SOL    HW227544  10.366  10.992   7.497
41883SOL     OW27545  10.724   0.603   1.083
41883SOL    HW127546  10.805   0.554   1.068
41883SOL    HW227547  10.691   0.623   0.995
41884SOL     OW27548   8.307   0.515   3.290
41884SOL    HW127549   8.334   0.498   3.380
41884SOL    HW227550   8.297   0.428   3.252
41885SOL     OW27551   5.482  12.472   1.104
41885SOL    HW127552   5.491  12.397   1.045
41885SOL    HW227553   5.415  12.527   1.063
41886SOL     OW27554   1.537   5.266  13.979
41886SOL    HW127555   1.468   5.307  13.928
41886SOL    HW227556   1.593   5.224  13.915
41887SOL     OW27557   3.162   6.661   1.784
41887SOL    HW127558   3.150   6.657   1.879
41887SOL    HW227559   3.179   6.570   1.758
41888SOL     OW27560  12.224   0.279   7.467
41888SOL    HW127561  12.167   0.331   7.411
41888SOL    HW227562  12.278   0.343   7.513
41889SOL     OW27563  14.208   4.662  12.064
41889SOL    HW127564  14.189   4.747  12.022
41889SOL    HW227565  14.303   4.655  12.063
41890SOL     OW27566   8.690   4.964   5.260
41890SOL    HW127567   8.606   4.965   5.306
41890SOL    HW227568   8.667   4.950   5.168
41891SOL     OW27569   2.535   9.913   3.402
41891SOL    HW127570   2.490   9.985   3.357
41891SOL    HW227571   2.465   9.862   3.442
41892SOL     OW27572   1.670   8.535   3.645
41892SOL    HW127573   1.698   8.525   3.736
41892SOL    HW227574   1.732   8.598   3.608
41893SOL     OW27575   5.338   9.978   4.798
41893SOL    HW127576   5.421   9.934   4.816
41893SOL    HW227577   5.282   9.956   4.872
41894SOL     OW27578  12.654   2.819   6.119
41894SOL    HW127579  12.656   2.909   6.087
41894SOL    HW227580  12.609   2.771   6.050
41895SOL     OW27581  14.126   4.319  13.440
41895SOL    HW127582  14.087   4.264  13.373
41895SOL    HW227583  14.061   4.387  13.456
41896SOL     OW27584  13.547   5.064   3.305
41896SOL    HW127585  13.553   4.975   3.340
41896SOL    HW227586  13.637   5.084   3.277
41897SOL     OW27587  11.609  12.817   7.191
41897SOL    HW127588  11.604  12.855   7.279
41897SOL    HW227589  11.688  12.855   7.152
41898SOL     OW27590   9.892   4.936   0.464
41898SOL    HW127591   9.819   4.909   0.408
41898SOL    HW227592   9.948   4.858   0.469
41899SOL     OW27593   7.093   1.892   7.197
41899SOL    HW127594   7.107   1.982   7.166
41899SOL    HW227595   7.038   1.852   7.129
41900SOL     OW27596   9.048   2.101   8.734
41900SOL    HW127597   8.980   2.168   8.739
41900SOL    HW227598   9.056   2.068   8.823
41901SOL     OW27599  12.005  13.951   7.686
41901SOL    HW127600  12.003  13.988   7.775
41901SOL    HW227601  11.913  13.936   7.665
41902SOL     OW27602   0.688   1.778   2.440
41902SOL    HW127603   0.765   1.827   2.413
41902SOL    HW227604   0.679   1.795   2.534
41903SOL     OW27605  14.566  10.967   3.346
41903SOL    HW127606  14.501  11.011   3.292
41903SOL    HW227607  14.548  10.997   3.435
41904SOL     OW27608   4.978   8.940   9.376
41904SOL    HW127609   4.896   8.935   9.426
41904SOL    HW227610   5.031   8.867   9.408
41905SOL     OW27611  12.449   4.790  11.152
41905SOL    HW127612  12.499   4.872  11.161
41905SOL    HW227613  12.503   4.725  11.196
41906SOL     OW27614  13.921   6.968   7.685
41906SOL    HW127615  13.963   6.883   7.703
41906SOL    HW227616  13.846   6.946   7.630
41907SOL     OW27617   6.002  13.557   9.228
41907SOL    HW127618   5.960  13.644   9.229
41907SOL    HW227619   6.023  13.543   9.136
41908SOL     OW27620   4.699   7.603  14.074
41908SOL    HW127621   4.667   7.627  14.161
41908SOL    HW227622   4.773   7.662  14.058
41909SOL     OW27623   2.569   5.166   3.902
41909SOL    HW127624   2.486   5.129   3.873
41909SOL    HW227625   2.626   5.090   3.917
41910SOL     OW27626  10.914   8.259  14.009
41910SOL    HW127627  10.863   8.185  13.978
41910SOL    HW227628  10.877   8.280  14.095
41911SOL     OW27629  14.459   5.874   2.040
41911SOL    HW127630  14.425   5.959   2.070
41911SOL    HW227631  14.486   5.830   2.120
41912SOL     OW27632   8.664  13.846   3.618
41912SOL    HW127633   8.642  13.755   3.597
41912SOL    HW227634   8.757  13.853   3.599
41913SOL     OW27635   6.391   0.901  12.425
41913SOL    HW127636   6.302   0.926  12.401
41913SOL    HW227637   6.415   0.963  12.494
41914SOL     OW27638   4.884   3.841   7.336
41914SOL    HW127639   4.960   3.860   7.391
41914SOL    HW227640   4.911   3.868   7.248
41915SOL     OW27641   7.562  12.229   4.375
41915SOL    HW127642   7.496  12.188   4.431
41915SOL    HW227643   7.575  12.165   4.304
41916SOL     OW27644   6.290   2.377   8.079
41916SOL    HW127645   6.256   2.353   7.992
41916SOL    HW227646   6.369   2.323   8.089
41917SOL     OW27647  10.426   9.608   5.303
41917SOL    HW127648  10.412   9.594   5.397
41917SOL    HW227649  10.349   9.570   5.262
41918SOL     OW27650   7.242   9.088   7.573
41918SOL    HW127651   7.324   9.040   7.560
41918SOL    HW227652   7.204   9.049   7.651
41919SOL     OW27653   9.404  14.755   6.854
41919SOL    HW127654   9.404  14.735   6.948
41919SOL    HW227655   9.323  14.806   6.841
41920SOL     OW27656  11.744  10.815  14.075
41920SOL    HW127657  11.749  10.776  14.162
41920SOL    HW227658  11.832  10.803  14.038
41921SOL     OW27659   8.186   9.856   2.139
41921SOL    HW127660   8.115   9.913   2.166
41921SOL    HW227661   8.187   9.862   2.043
41922SOL     OW27662  13.144   2.582  12.802
41922SOL    HW127663  13.067   2.536  12.834
41922SOL    HW227664  13.180   2.525  12.734
41923SOL     OW27665   3.610   1.144   5.133
41923SOL    HW127666   3.576   1.057   5.155
41923SOL    HW227667   3.603   1.193   5.215
41924SOL     OW27668  14.519  12.999  10.051
41924SOL    HW127669  14.474  12.951   9.981
41924SOL    HW227670  14.568  13.067  10.005
41925SOL     OW27671   0.069  14.774   3.140
41925SOL    HW127672  14.887  14.826   3.100
41925SOL    HW227673   0.026  14.694   3.168
41926SOL     OW27674   1.308  13.701   7.635
41926SOL    HW127675   1.317  13.704   7.539
41926SOL    HW227676   1.267  13.784   7.658
41927SOL     OW27677  11.655   5.545  13.567
41927SOL    HW127678  11.652   5.559  13.472
41927SOL    HW227679  11.574   5.584  13.599
41928SOL     OW27680   4.578  12.670  13.836
41928SOL    HW127681   4.582  12.742  13.899
41928SOL    HW227682   4.669  12.649  13.818
41929SOL     OW27683   6.557   9.562   6.502
41929SOL    HW127684   6.603   9.604   6.575
41929SOL    HW227685   6.496   9.628   6.471
41930SOL     OW27686  12.967   2.978   1.222
41930SOL    HW127687  13.037   3.013   1.167
41930SOL    HW227688  13.012   2.928   1.290
41931SOL     OW27689   7.760   3.875   9.028
41931SOL    HW127690   7.854   3.881   9.011
41931SOL    HW227691   7.732   3.966   9.036
41932SOL     OW27692   3.674   2.759   0.604
41932SOL    HW127693   3.601   2.794   0.655
41932SOL    HW227694   3.634   2.734   0.520
41933SOL     OW27695   7.258   9.729   0.216
41933SOL    HW127696   7.243   9.720   0.122
41933SOL    HW227697   7.171   9.718   0.255
41934SOL     OW27698   4.088   0.250   9.273
41934SOL    HW127699   4.080   0.156   9.257
41934SOL    HW227700   4.082   0.258   9.369
41935SOL     OW27701   3.080   3.392   4.890
41935SOL    HW127702   3.135   3.351   4.957
41935SOL    HW227703   3.110   3.483   4.887
41936SOL     OW27704   6.551   4.811   3.972
41936SOL    HW127705   6.557   4.906   3.957
41936SOL    HW227706   6.558   4.773   3.884
41937SOL     OW27707   8.281   1.969   3.467
41937SOL    HW127708   8.286   2.061   3.493
41937SOL    HW227709   8.211   1.965   3.402
41938SOL     OW27710   6.775   9.793   7.405
41938SOL    HW127711   6.852   9.848   7.418
41938SOL    HW227712   6.764   9.789   7.310
41939SOL     OW27713  14.429   8.177   0.616
41939SOL    HW127714  14.454   8.245   0.553
41939SOL    HW227715  14.445   8.095   0.569
41940SOL     OW27716  11.926  13.968   3.952
41940SOL    HW127717  11.938  13.900   3.886
41940SOL    HW227718  11.918  14.049   3.902
41941SOL     OW27719   0.237   6.770   4.429
41941SOL    HW127720   0.322   6.776   4.384
41941SOL    HW227721   0.224   6.857   4.467
41942SOL     OW27722  12.990   2.609  14.294
41942SOL    HW127723  12.917   2.571  14.246
41942SOL    HW227724  13.053   2.633  14.226
41943SOL     OW27725   3.916   4.459   8.469
41943SOL    HW127726   3.954   4.388   8.520
41943SOL    HW227727   3.989   4.518   8.451
41944SOL     OW27728  13.428   0.070   0.651
41944SOL    HW127729  13.504   0.030   0.694
41944SOL    HW227730  13.466   0.134   0.591
41945SOL     OW27731   4.420   6.644  14.719
41945SOL    HW127732   4.403   6.632  14.812
41945SOL    HW227733   4.510   6.675  14.715
41946SOL     OW27734  14.159   5.671   5.945
41946SOL    HW127735  14.192   5.674   6.035
41946SOL    HW227736  14.071   5.709   5.950
41947SOL     OW27737   9.837   3.312   2.092
41947SOL    HW127738   9.832   3.260   2.013
41947SOL    HW227739   9.749   3.306   2.131
41948SOL     OW27740   2.140  11.445   0.587
41948SOL    HW127741   2.206  11.486   0.642
41948SOL    HW227742   2.060  11.495   0.603
41949SOL     OW27743  11.182   6.574   7.155
41949SOL    HW127744  11.105   6.579   7.211
41949SOL    HW227745  11.251   6.617   7.205
41950SOL     OW27746   3.807   0.734  10.266
41950SOL    HW127747   3.759   0.705  10.188
41950SOL    HW227748   3.899   0.715  10.246
41951SOL     OW27749   1.333   2.932   4.423
41951SOL    HW127750   1.361   2.878   4.350
41951SOL    HW227751   1.263   2.881   4.465
41952SOL     OW27752   7.773   4.204   1.282
41952SOL    HW127753   7.691   4.155   1.291
41952SOL    HW227754   7.747   4.287   1.244
41953SOL     OW27755   4.465   7.705  12.682
41953SOL    HW127756   4.462   7.719  12.776
41953SOL    HW227757   4.551   7.737  12.655
41954SOL     OW27758   6.254  12.928   3.161
41954SOL    HW127759   6.338  12.957   3.196
41954SOL    HW227760   6.212  12.881   3.233
41955SOL     OW27761  12.892  12.313   4.173
41955SOL    HW127762  12.891  12.341   4.082
41955SOL    HW227763  12.835  12.236   4.175
41956SOL     OW27764   3.474   7.381   9.539
41956SOL    HW127765   3.403   7.441   9.560
41956SOL    HW227766   3.460   7.306   9.595
41957SOL     OW27767   2.160   3.843   6.623
41957SOL    HW127768   2.190   3.753   6.636
41957SOL    HW227769   2.219   3.896   6.677
41958SOL     OW27770   8.306  12.602   1.382
41958SOL    HW127771   8.279  12.531   1.324
41958SOL    HW227772   8.315  12.562   1.468
41959SOL     OW27773   6.810   8.108   5.890
41959SOL    HW127774   6.728   8.152   5.912
41959SOL    HW227775   6.855   8.095   5.973
41960SOL     OW27776   0.971   3.574   9.768
41960SOL    HW127777   0.943   3.555   9.857
41960SOL    HW227778   1.001   3.665   9.772
41961SOL     OW27779   5.684   8.170   4.110
41961SOL    HW127780   5.641   8.087   4.131
41961SOL    HW227781   5.662   8.186   4.018
41962SOL     OW27782   4.023   7.719   3.064
41962SOL    HW127783   4.085   7.757   3.003
41962SOL    HW227784   4.078   7.669   3.126
41963SOL     OW27785   3.325  13.933   8.574
41963SOL    HW127786   3.234  13.940   8.605
41963SOL    HW227787   3.378  13.941   8.654
41964SOL     OW27788  11.555   9.431   0.908
41964SOL    HW127789  11.536   9.425   1.002
41964SOL    HW227790  11.568   9.341   0.880
41965SOL     OW27791  11.420   1.380   1.461
41965SOL    HW127792  11.469   1.347   1.537
41965SOL    HW227793  11.434   1.474   1.462
41966SOL     OW27794   5.042  14.525  14.507
41966SOL    HW127795   4.978  14.504  14.438
41966SOL    HW227796   5.020  14.614  14.534
41967SOL     OW27797  14.590   2.582  13.465
41967SOL    HW127798  14.680   2.564  13.438
41967SOL    HW227799  14.556   2.641  13.398
41968SOL     OW27800  10.887   7.450   7.826
41968SOL    HW127801  10.936   7.394   7.886
41968SOL    HW227802  10.838   7.390   7.771
41969SOL     OW27803  14.412  12.232  13.223
41969SOL    HW127804  14.354  12.157  13.209
41969SOL    HW227805  14.359  12.309  13.200
41970SOL     OW27806   2.853   6.366  12.228
41970SOL    HW127807   2.873   6.433  12.163
41970SOL    HW227808   2.938   6.343  12.266
41971SOL     OW27809   9.503   0.843   9.931
41971SOL    HW127810   9.589   0.852   9.972
41971SOL    HW227811   9.491   0.925   9.885
41972SOL     OW27812  10.072   3.769   9.396
41972SOL    HW127813  10.141   3.705   9.381
41972SOL    HW227814  10.106   3.850   9.359
41973SOL     OW27815   1.676   1.425  11.952
41973SOL    HW127816   1.690   1.441  12.045
41973SOL    HW227817   1.582   1.418  11.942
41974SOL     OW27818   9.752  12.117  13.304
41974SOL    HW127819   9.754  12.167  13.385
41974SOL    HW227820   9.795  12.034  13.325
41975SOL     OW27821  12.749   9.458  13.785
41975SOL    HW127822  12.728   9.417  13.869
41975SOL    HW227823  12.811   9.398  13.743
41976SOL     OW27824  12.089  11.587   4.186
41976SOL    HW127825  12.030  11.604   4.259
41976SOL    HW227826  12.081  11.493   4.170
41977SOL     OW27827  10.672  13.004   7.011
41977SOL    HW127828  10.596  12.982   6.958
41977SOL    HW227829  10.642  12.999   7.101
41978SOL     OW27830   5.266  10.179   1.557
41978SOL    HW127831   5.245  10.088   1.537
41978SOL    HW227832   5.190  10.211   1.606
41979SOL     OW27833  11.534   3.520  14.342
41979SOL    HW127834  11.536   3.437  14.294
41979SOL    HW227835  11.458   3.512  14.400
41980SOL     OW27836  13.018  14.708   2.631
41980SOL    HW127837  13.071  14.745   2.701
41980SOL    HW227838  13.021  14.614   2.644
41981SOL     OW27839  12.557  10.591   1.024
41981SOL    HW127840  12.592  10.667   1.070
41981SOL    HW227841  12.622  10.573   0.956
41982SOL     OW27842   3.764   7.775  14.710
41982SOL    HW127843   3.677   7.762  14.746
41982SOL    HW227844   3.803   7.842  14.765
41983SOL     OW27845   8.002   5.458   2.793
41983SOL    HW127846   7.958   5.377   2.766
41983SOL    HW227847   7.979   5.468   2.886
41984SOL     OW27848   7.074  10.901   5.441
41984SOL    HW127849   7.049  10.916   5.532
41984SOL    HW227850   7.170  10.898   5.443
41985SOL     OW27851   8.303   0.718  13.921
41985SOL    HW127852   8.249   0.779  13.871
41985SOL    HW227853   8.352   0.670  13.855
41986SOL     OW27854  14.627   8.989   2.608
41986SOL    HW127855  14.586   9.044   2.542
41986SOL    HW227856  14.581   8.905   2.602
41987SOL     OW27857   1.800   4.741   7.488
41987SOL    HW127858   1.790   4.717   7.395
41987SOL    HW227859   1.852   4.671   7.526
41988SOL     OW27860   2.295   6.534   5.296
41988SOL    HW127861   2.217   6.584   5.319
41988SOL    HW227862   2.366   6.598   5.297
41989SOL     OW27863   6.945  11.280  10.705
41989SOL    HW127864   6.920  11.370  10.683
41989SOL    HW227865   7.021  11.261  10.651
41990SOL     OW27866  11.075  12.169  14.326
41990SOL    HW127867  11.042  12.080  14.315
41990SOL    HW227868  11.016  12.224  14.274
41991SOL     OW27869   2.886  12.453  13.696
41991SOL    HW127870   2.809  12.407  13.662
41991SOL    HW227871   2.863  12.473  13.787
41992SOL     OW27872   7.611  10.001   6.510
41992SOL    HW127873   7.599   9.985   6.416
41992SOL    HW227874   7.636   9.916   6.546
41993SOL     OW27875  10.191   9.633   7.898
41993SOL    HW127876  10.250   9.665   7.830
41993SOL    HW227877  10.220   9.543   7.914
41994SOL     OW27878   7.073   0.600   8.054
41994SOL    HW127879   7.044   0.663   7.989
41994SOL    HW227880   6.993   0.557   8.084
41995SOL     OW27881   0.153  12.346   9.768
41995SOL    HW127882   0.197  12.428   9.747
41995SOL    HW227883   0.178  12.327   9.859
41996SOL     OW27884   0.287   6.341  12.872
41996SOL    HW127885   0.200   6.380  12.880
41996SOL    HW227886   0.272   6.254  12.834
41997SOL     OW27887   9.179  12.551  10.980
41997SOL    HW127888   9.221  12.548  10.893
41997SOL    HW227889   9.106  12.489  10.974
41998SOL     OW27890   6.139   4.548   8.198
41998SOL    HW127891   6.169   4.590   8.117
41998SOL    HW227892   6.046   4.532   8.183
41999SOL     OW27893   5.297   6.716  13.659
41999SOL    HW127894   5.345   6.633  13.654
41999SOL    HW227895   5.207   6.691  13.675
42000SOL     OW27896   3.028  14.491   9.028
42000SOL    HW127897   3.060  14.558   9.088
42000SOL    HW227898   3.107  14.454   8.988
42001SOL     OW27899  12.483   2.254   9.681
42001SOL    HW127900  12.546   2.306   9.731
42001SOL    HW227901  12.508   2.268   9.589
42002SOL     OW27902   4.380   0.098  11.002
42002SOL    HW127903   4.436   0.026  10.974
42002SOL    HW227904   4.390   0.102  11.097
42003SOL     OW27905  11.955  12.781   1.880
42003SOL    HW127906  11.918  12.796   1.793
42003SOL    HW227907  12.028  12.843   1.886
42004SOL     OW27908   0.337   9.240   7.416
42004SOL    HW127909   0.366   9.156   7.381
42004SOL    HW227910   0.415   9.278   7.456
42005SOL     OW27911   5.710   7.563   7.987
42005SOL    HW127912   5.781   7.628   7.990
42005SOL    HW227913   5.645   7.597   8.048
42006SOL     OW27914   0.172   7.131   0.080
42006SOL    HW127915   0.150   7.073   0.007
42006SOL    HW227916   0.240   7.188   0.045
42007SOL     OW27917   5.806   5.872   1.612
42007SOL    HW127918   5.857   5.806   1.565
42007SOL    HW227919   5.870   5.938   1.639
42008SOL     OW27920  10.429   2.840   0.081
42008SOL    HW127921  10.436   2.781   0.156
42008SOL    HW227922  10.337   2.835   0.054
42009SOL     OW27923  12.100  11.584  14.590
42009SOL    HW127924  12.018  11.545  14.560
42009SOL    HW227925  12.166  11.552  14.528
42010SOL     OW27926   0.430   1.520   9.270
42010SOL    HW127927   0.491   1.473   9.326
42010SOL    HW227928   0.424   1.608   9.310
42011SOL     OW27929  12.307  13.836   3.299
42011SOL    HW127930  12.265  13.915   3.333
42011SOL    HW227931  12.341  13.792   3.376
42012SOL     OW27932   5.930   1.969  12.477
42012SOL    HW127933   5.914   2.060  12.452
42012SOL    HW227934   6.020   1.952  12.451
42013SOL     OW27935   3.904   5.229   9.663
42013SOL    HW127936   3.864   5.226   9.575
42013SOL    HW227937   3.932   5.139   9.679
42014SOL     OW27938  11.976   7.600   1.806
42014SOL    HW127939  11.952   7.564   1.721
42014SOL    HW227940  12.031   7.533   1.846
42015SOL     OW27941   1.917  10.593   1.319
42015SOL    HW127942   1.844  10.540   1.351
42015SOL    HW227943   1.960  10.539   1.253
42016SOL     OW27944  12.192   8.966   7.296
42016SOL    HW127945  12.116   8.948   7.351
42016SOL    HW227946  12.241   9.034   7.343
42017SOL     OW27947   0.724   2.903   1.974
42017SOL    HW127948   0.754   2.889   1.884
42017SOL    HW227949   0.663   2.976   1.967
42018SOL     OW27950   4.855  14.486  13.636
42018SOL    HW127951   4.923  14.554  13.638
42018SOL    HW227952   4.875  14.434  13.558
42019SOL     OW27953   2.096   6.459  11.493
42019SOL    HW127954   2.114   6.456  11.399
42019SOL    HW227955   2.153   6.390  11.530
42020SOL     OW27956   4.675  12.430   5.388
42020SOL    HW127957   4.760  12.388   5.399
42020SOL    HW227958   4.690  12.498   5.322
42021SOL     OW27959   4.801  11.334  11.529
42021SOL    HW127960   4.814  11.426  11.550
42021SOL    HW227961   4.711  11.330  11.494
42022SOL     OW27962  11.698   2.044   8.196
42022SOL    HW127963  11.659   1.958   8.178
42022SOL    HW227964  11.756   2.060   8.122
42023SOL     OW27965  14.865   8.364   3.483
42023SOL    HW127966   0.037   8.396   3.551
42023SOL    HW227967  14.830   8.443   3.442
42024SOL     OW27968  11.196   9.643   9.304
42024SOL    HW127969  11.176   9.729   9.267
42024SOL    HW227970  11.132   9.584   9.264
42025SOL     OW27971   2.871   3.822  11.519
42025SOL    HW127972   2.876   3.813  11.424
42025SOL    HW227973   2.810   3.755  11.547
42026SOL     OW27974  10.071   6.181  11.468
42026SOL    HW127975  10.146   6.125  11.485
42026SOL    HW227976  10.028   6.191  11.554
42027SOL     OW27977   5.157  11.618  11.892
42027SOL    HW127978   5.154  11.526  11.919
42027SOL    HW227979   5.244  11.628  11.852
42028SOL     OW27980  12.936   3.160   3.640
42028SOL    HW127981  12.913   3.158   3.547
42028SOL    HW227982  13.011   3.101   3.647
42029SOL     OW27983   1.628   6.065   4.565
42029SOL    HW127984   1.679   5.995   4.524
42029SOL    HW227985   1.567   6.018   4.623
42030SOL     OW27986   4.974   9.056  12.472
42030SOL    HW127987   4.894   9.045  12.524
42030SOL    HW227988   4.947   9.037  12.382
42031SOL     OW27989  11.671   2.501   1.956
42031SOL    HW127990  11.620   2.567   2.003
42031SOL    HW227991  11.741   2.477   2.017
42032SOL     OW27992   3.510   2.474   7.580
42032SOL    HW127993   3.582   2.525   7.543
42032SOL    HW227994   3.542   2.385   7.584
42033SOL     OW27995   5.112  11.936   8.988
42033SOL    HW127996   5.115  11.989   8.908
42033SOL    HW227997   5.161  11.988   9.052
42034SOL     OW27998   0.156   2.618   8.514
42034SOL    HW127999   0.235   2.566   8.497
42034SOL    HW228000   0.086   2.570   8.471
42035SOL     OW28001   0.242  14.448   2.122
42035SOL    HW128002   0.327  14.458   2.166
42035SOL    HW228003   0.237  14.525   2.065
42036SOL     OW28004   6.141  10.039  12.292
42036SOL    HW128005   6.134  10.133  12.303
42036SOL    HW228006   6.052  10.006  12.305
42037SOL     OW28007   9.027  12.848   9.755
42037SOL    HW128008   9.058  12.823   9.668
42037SOL    HW228009   8.971  12.925   9.739
42038SOL     OW28010  10.109   1.376   5.789
42038SOL    HW128011  10.187   1.398   5.738
42038SOL    HW228012  10.042   1.356   5.724
42039SOL     OW28013   3.137   8.641   7.364
42039SOL    HW128014   3.233   8.633   7.365
42039SOL    HW228015   3.120   8.719   7.310
42040SOL     OW28016   8.809   5.748   3.869
42040SOL    HW128017   8.804   5.655   3.894
42040SOL    HW228018   8.802   5.748   3.774
42041SOL     OW28019   8.228   5.922  11.357
42041SOL    HW128020   8.311   5.894  11.396
42041SOL    HW228021   8.253   5.970  11.279
42042SOL     OW28022   8.673   7.029  12.081
42042SOL    HW128023   8.618   6.962  12.040
42042SOL    HW228024   8.660   7.107  12.028
42043SOL     OW28025  14.534  12.950  13.829
42043SOL    HW128026  14.621  12.983  13.852
42043SOL    HW228027  14.547  12.856  13.816
42044SOL     OW28028   0.207  11.549   3.052
42044SOL    HW128029   0.296  11.583   3.055
42044SOL    HW228030   0.217  11.456   3.030
42045SOL     OW28031   4.519  12.195   8.303
42045SOL    HW128032   4.465  12.128   8.346
42045SOL    HW228033   4.458  12.266   8.283
42046SOL     OW28034  12.244  12.374   6.070
42046SOL    HW128035  12.161  12.361   6.024
42046SOL    HW228036  12.232  12.332   6.155
42047SOL     OW28037  13.911   9.574  11.992
42047SOL    HW128038  13.972   9.540  12.058
42047SOL    HW228039  13.855   9.500  11.970
42048SOL     OW28040   0.024   5.322  12.029
42048SOL    HW128041   0.041   5.300  12.121
42048SOL    HW228042   0.106   5.299  11.984
42049SOL     OW28043   0.879   1.541  12.857
42049SOL    HW128044   0.961   1.579  12.888
42049SOL    HW228045   0.896   1.522  12.764
42050SOL     OW28046   3.153  13.332  12.404
42050SOL    HW128047   3.248  13.328  12.405
42050SOL    HW228048   3.129  13.374  12.487
42051SOL     OW28049   0.769  10.642   6.634
42051SOL    HW128050   0.791  10.661   6.543
42051SOL    HW228051   0.800  10.553   6.649
42052SOL     OW28052   7.920   7.148   9.885
42052SOL    HW128053   8.013   7.170   9.877
42052SOL    HW228054   7.918   7.078   9.950
42053SOL     OW28055   0.273  14.069   8.844
42053SOL    HW128056   0.340  14.130   8.814
42053SOL    HW228057   0.322  13.992   8.873
42054SOL     OW28058  13.775   5.651  10.630
42054SOL    HW128059  13.788   5.730  10.681
42054SOL    HW228060  13.680   5.645  10.618
42055SOL     OW28061   5.179  13.133  11.032
42055SOL    HW128062   5.256  13.134  10.976
42055SOL    HW228063   5.115  13.188  10.986
42056SOL     OW28064  14.248   5.848   5.504
42056SOL    HW128065  14.301   5.795   5.444
42056SOL    HW228066  14.281   5.826   5.591
42057SOL     OW28067  11.276   6.300  14.658
42057SOL    HW128068  11.210   6.298  14.727
42057SOL    HW228069  11.235   6.253  14.585
42058SOL     OW28070   1.590  10.239   5.366
42058SOL    HW128071   1.603  10.301   5.293
42058SOL    HW228072   1.552  10.162   5.324
42059SOL     OW28073  13.086  12.678  12.049
42059SOL    HW128074  13.101  12.717  12.135
42059SOL    HW228075  13.148  12.605  12.044
42060SOL     OW28076   9.041   2.534   9.598
42060SOL    HW128077   8.963   2.545   9.652
42060SOL    HW228078   9.021   2.579   9.517
42061SOL     OW28079   3.177   7.040   0.345
42061SOL    HW128080   3.191   7.134   0.357
42061SOL    HW228081   3.187   7.026   0.251
42062SOL     OW28082   7.187   7.671  12.870
42062SOL    HW128083   7.221   7.696  12.956
42062SOL    HW228084   7.098   7.642  12.888
42063SOL     OW28085   0.957  11.527   0.352
42063SOL    HW128086   0.983  11.584   0.424
42063SOL    HW228087   1.006  11.446   0.367
42064SOL     OW28088  10.314   9.061   0.553
42064SOL    HW128089  10.344   9.055   0.644
42064SOL    HW228090  10.302   9.155   0.538
42065SOL     OW28091  14.451   5.263   7.284
42065SOL    HW128092  14.458   5.233   7.374
42065SOL    HW228093  14.493   5.194   7.232
42066SOL     OW28094   4.743   4.899   0.572
42066SOL    HW128095   4.730   4.991   0.596
42066SOL    HW228096   4.812   4.901   0.505
42067SOL     OW28097   6.778   7.605   5.929
42067SOL    HW128098   6.716   7.543   5.891
42067SOL    HW228099   6.728   7.686   5.938
42068SOL     OW28100   0.336   5.321  11.609
42068SOL    HW128101   0.383   5.405  11.608
42068SOL    HW228102   0.244   5.345  11.598
42069SOL     OW28103   5.653   0.125   2.141
42069SOL    HW128104   5.669   0.208   2.096
42069SOL    HW228105   5.741   0.089   2.156
42070SOL     OW28106   7.885   9.441  14.832
42070SOL    HW128107   7.936   9.465   0.022
42070SOL    HW228108   7.879   9.346  14.835
42071SOL     OW28109   1.735   5.854   4.937
42071SOL    HW128110   1.746   5.926   4.999
42071SOL    HW228111   1.772   5.778   4.981
42072SOL     OW28112  10.206   3.659   9.898
42072SOL    HW128113  10.299   3.680   9.894
42072SOL    HW228114  10.194   3.616   9.983
42073SOL     OW28115   4.807  11.609   5.672
42073SOL    HW128116   4.842  11.562   5.597
42073SOL    HW228117   4.716  11.580   5.679
42074SOL     OW28118   2.026   2.451   5.269
42074SOL    HW128119   1.973   2.529   5.251
42074SOL    HW228120   2.116   2.484   5.274
42075SOL     OW28121   6.654  14.488   2.346
42075SOL    HW128122   6.643  14.442   2.263
42075SOL    HW228123   6.710  14.430   2.399
42076SOL     OW28124  12.372   4.711  11.767
42076SOL    HW128125  12.316   4.772  11.719
42076SOL    HW228126  12.329   4.700  11.851
42077SOL     OW28127   9.104  12.434   8.167
42077SOL    HW128128   9.119  12.343   8.190
42077SOL    HW228129   9.190  12.475   8.171
42078SOL     OW28130  14.256  13.485  10.968
42078SOL    HW128131  14.224  13.574  10.956
42078SOL    HW228132  14.290  13.460  10.882
42079SOL     OW28133   5.044   3.868  13.736
42079SOL    HW128134   4.970   3.891  13.792
42079SOL    HW228135   5.121   3.897  13.784
42080SOL     OW28136   8.598  13.575  14.163
42080SOL    HW128137   8.675  13.624  14.190
42080SOL    HW228138   8.605  13.491  14.209
42081SOL     OW28139  11.788  14.739  11.754
42081SOL    HW128140  11.764  14.818  11.802
42081SOL    HW228141  11.778  14.668  11.818
42082SOL     OW28142   8.721  13.238   9.715
42082SOL    HW128143   8.791  13.302   9.721
42082SOL    HW228144   8.655  13.267   9.778
42083SOL     OW28145  10.855   4.900   2.539
42083SOL    HW128146  10.785   4.835   2.532
42083SOL    HW228147  10.935   4.848   2.547
42084SOL     OW28148  10.927   4.438   2.847
42084SOL    HW128149  10.897   4.523   2.881
42084SOL    HW228150  10.887   4.432   2.760
42085SOL     OW28151   6.173  10.379   7.984
42085SOL    HW128152   6.111  10.309   7.963
42085SOL    HW228153   6.180  10.376   8.079
42086SOL     OW28154  11.976   9.815  11.482
42086SOL    HW128155  12.070   9.836  11.479
42086SOL    HW228156  11.972   9.723  11.459
42087SOL     OW28157   9.289   4.138  14.341
42087SOL    HW128158   9.282   4.100  14.429
42087SOL    HW228159   9.265   4.230  14.352
42088SOL     OW28160   3.228   7.888   4.305
42088SOL    HW128161   3.281   7.875   4.384
42088SOL    HW228162   3.188   7.803   4.289
42089SOL     OW28163   2.469   9.926   2.280
42089SOL    HW128164   2.541   9.984   2.257
42089SOL    HW228165   2.414   9.978   2.338
42090SOL     OW28166  13.807  10.527  10.927
42090SOL    HW128167  13.718  10.505  10.901
42090SOL    HW228168  13.862  10.495  10.855
42091SOL     OW28169  10.529   5.275   9.781
42091SOL    HW128170  10.616   5.235   9.776
42091SOL    HW228171  10.539   5.348   9.842
42092SOL     OW28172  13.807  13.421   7.117
42092SOL    HW128173  13.747  13.415   7.191
42092SOL    HW228174  13.854  13.503   7.129
42093SOL     OW28175   8.638   4.531   3.605
42093SOL    HW128176   8.694   4.455   3.595
42093SOL    HW228177   8.568   4.519   3.541
42094SOL     OW28178   1.736   9.890   0.318
42094SOL    HW128179   1.736   9.801   0.354
42094SOL    HW228180   1.721   9.947   0.394
42095SOL     OW28181   9.999  12.878   8.227
42095SOL    HW128182   9.953  12.962   8.236
42095SOL    HW228183  10.091  12.903   8.218
42096SOL     OW28184   5.107  12.509   6.345
42096SOL    HW128185   5.138  12.597   6.366
42096SOL    HW228186   5.065  12.478   6.425
42097SOL     OW28187  13.305  11.669   3.897
42097SOL    HW128188  13.389  11.642   3.861
42097SOL    HW228189  13.241  11.614   3.854
42098SOL     OW28190   9.249   0.665   7.988
42098SOL    HW128191   9.294   0.658   7.904
42098SOL    HW228192   9.156   0.658   7.966
42099SOL     OW28193   0.997   8.290  13.427
42099SOL    HW128194   1.073   8.339  13.459
42099SOL    HW228195   1.027   8.200  13.420
42100SOL     OW28196  10.887   8.503   1.379
42100SOL    HW128197  10.840   8.426   1.349
42100SOL    HW228198  10.977   8.473   1.391
42101SOL     OW28199   9.875   7.883   5.287
42101SOL    HW128200   9.866   7.817   5.219
42101SOL    HW228201   9.969   7.893   5.299
42102SOL     OW28202   1.300   0.835  11.249
42102SOL    HW128203   1.358   0.813  11.323
42102SOL    HW228204   1.354   0.886  11.190
42103SOL     OW28205   6.708   9.177  11.824
42103SOL    HW128206   6.734   9.249  11.881
42103SOL    HW228207   6.789   9.152  11.779
42104SOL     OW28208   8.846   9.652  14.434
42104SOL    HW128209   8.780   9.621  14.372
42104SOL    HW228210   8.820   9.615  14.518
42105SOL     OW28211  13.845  13.358  14.315
42105SOL    HW128212  13.829  13.333  14.406
42105SOL    HW228213  13.886  13.281  14.275
42106SOL     OW28214  13.507   6.783   3.176
42106SOL    HW128215  13.500   6.873   3.207
42106SOL    HW228216  13.488   6.729   3.253
42107SOL     OW28217   2.849   1.014  11.238
42107SOL    HW128218   2.790   1.076  11.195
42107SOL    HW228219   2.937   1.044  11.215
42108SOL     OW28220   1.005   3.958   8.316
42108SOL    HW128221   1.034   3.879   8.361
42108SOL    HW228222   0.980   4.018   8.387
42109SOL     OW28223   4.629   8.207   3.626
42109SOL    HW128224   4.689   8.267   3.671
42109SOL    HW228225   4.658   8.120   3.653
42110SOL     OW28226   6.767   7.874   4.847
42110SOL    HW128227   6.822   7.806   4.885
42110SOL    HW228228   6.826   7.922   4.788
42111SOL     OW28229   0.345   1.755   5.284
42111SOL    HW128230   0.429   1.731   5.322
42111SOL    HW228231   0.349   1.724   5.194
42112SOL     OW28232  14.631   2.894  11.180
42112SOL    HW128233  14.579   2.857  11.109
42112SOL    HW228234  14.695   2.951  11.136
42113SOL     OW28235   8.245  11.056  13.337
42113SOL    HW128236   8.153  11.049  13.311
42113SOL    HW228237   8.268  10.968  13.366
42114SOL     OW28238  11.379   6.990  11.087
42114SOL    HW128239  11.411   6.991  10.996
42114SOL    HW228240  11.455   6.962  11.138
42115SOL     OW28241  11.750  10.694   2.601
42115SOL    HW128242  11.682  10.689   2.668
42115SOL    HW228243  11.790  10.781   2.614
42116SOL     OW28244   3.563   1.917   3.108
42116SOL    HW128245   3.654   1.913   3.137
42116SOL    HW228246   3.549   1.835   3.061
42117SOL     OW28247  14.528   0.802  12.193
42117SOL    HW128248  14.509   0.741  12.264
42117SOL    HW228249  14.460   0.786  12.127
42118SOL     OW28250   6.270  12.899  12.597
42118SOL    HW128251   6.234  12.909  12.686
42118SOL    HW228252   6.267  12.988  12.561
42119SOL     OW28253  14.600  10.898  13.077
42119SOL    HW128254  14.660  10.951  13.025
42119SOL    HW228255  14.562  10.958  13.140
42120SOL     OW28256   5.652   5.754  14.719
42120SOL    HW128257   5.627   5.817  14.787
42120SOL    HW228258   5.580   5.757  14.656
42121SOL     OW28259   9.961   8.956   7.024
42121SOL    HW128260   9.985   8.878   7.074
42121SOL    HW228261  10.018   8.954   6.947
42122SOL     OW28262  14.613   0.764   1.827
42122SOL    HW128263  14.623   0.706   1.903
42122SOL    HW228264  14.702   0.783   1.799
42123SOL     OW28265  13.401   0.287   3.432
42123SOL    HW128266  13.476   0.254   3.381
42123SOL    HW228267  13.441   0.322   3.512
42124SOL     OW28268   1.817   9.296   5.000
42124SOL    HW128269   1.813   9.208   4.962
42124SOL    HW228270   1.855   9.283   5.087
42125SOL     OW28271  12.954  10.905   2.609
42125SOL    HW128272  12.971  10.907   2.704
42125SOL    HW228273  12.971  10.995   2.580
42126SOL     OW28274  10.354   2.805  13.334
42126SOL    HW128275  10.306   2.885  13.356
42126SOL    HW228276  10.330   2.788  13.242
42127SOL     OW28277   5.267   2.050   1.795
42127SOL    HW128278   5.352   2.088   1.773
42127SOL    HW228279   5.247   1.992   1.721
42128SOL     OW28280   0.912   7.105   9.813
42128SOL    HW128281   0.923   7.194   9.780
42128SOL    HW228282   0.998   7.080   9.845
42129SOL     OW28283   3.941  11.118   5.812
42129SOL    HW128284   3.850  11.147   5.800
42129SOL    HW228285   3.988  11.160   5.740
42130SOL     OW28286  14.263  10.174  13.286
42130SOL    HW128287  14.285  10.179  13.193
42130SOL    HW228288  14.180  10.221  13.294
42131SOL     OW28289   0.506   6.801   6.752
42131SOL    HW128290   0.473   6.880   6.795
42131SOL    HW228291   0.593   6.788   6.790
42132SOL     OW28292   9.404   5.909  14.722
42132SOL    HW128293   9.375   5.881  14.635
42132SOL    HW228294   9.472   5.846  14.746
42133SOL     OW28295   2.883  11.874   4.925
42133SOL    HW128296   2.974  11.894   4.903
42133SOL    HW228297   2.852  11.822   4.850
42134SOL     OW28298   2.288  14.539   7.790
42134SOL    HW128299   2.350  14.521   7.861
42134SOL    HW228300   2.253  14.626   7.810
42135SOL     OW28301  11.405   2.899   0.852
42135SOL    HW128302  11.426   2.806   0.838
42135SOL    HW228303  11.397   2.936   0.764
42136SOL     OW28304   6.747   7.816  11.133
42136SOL    HW128305   6.818   7.858  11.182
42136SOL    HW228306   6.667   7.849  11.174
42137SOL     OW28307   3.911  11.437   8.238
42137SOL    HW128308   3.994  11.434   8.286
42137SOL    HW228309   3.884  11.529   8.243
42138SOL     OW28310   7.319   8.033   4.931
42138SOL    HW128311   7.410   8.060   4.941
42138SOL    HW228312   7.286   8.086   4.858
42139SOL     OW28313   1.933   2.598  12.423
42139SOL    HW128314   1.867   2.529  12.432
42139SOL    HW228315   1.978   2.578  12.341
42140SOL     OW28316   4.577  10.406  11.899
42140SOL    HW128317   4.601  10.456  11.820
42140SOL    HW228318   4.488  10.435  11.919
42141SOL     OW28319   9.227   0.311  10.788
42141SOL    HW128320   9.314   0.299  10.827
42141SOL    HW228321   9.230   0.260  10.707
42142SOL     OW28322   1.436  12.068  10.173
42142SOL    HW128323   1.365  12.131  10.166
42142SOL    HW228324   1.508  12.117  10.212
42143SOL     OW28325   7.398   4.315   8.567
42143SOL    HW128326   7.412   4.400   8.525
42143SOL    HW228327   7.413   4.332   8.660
42144SOL     OW28328   6.613  10.875   3.539
42144SOL    HW128329   6.590  10.874   3.447
42144SOL    HW228330   6.656  10.791   3.555
42145SOL     OW28331   5.515   2.355   4.110
42145SOL    HW128332   5.558   2.440   4.109
42145SOL    HW228333   5.472   2.349   4.025
42146SOL     OW28334   1.287   5.841   2.082
42146SOL    HW128335   1.310   5.897   2.156
42146SOL    HW228336   1.205   5.798   2.108
42147SOL     OW28337   2.791   6.967  13.817
42147SOL    HW128338   2.880   6.987  13.846
42147SOL    HW228339   2.779   6.875  13.839
42148SOL     OW28340  10.406   9.332  14.561
42148SOL    HW128341  10.489   9.317  14.606
42148SOL    HW228342  10.340   9.301  14.624
42149SOL     OW28343   8.757   9.518  12.109
42149SOL    HW128344   8.663   9.512  12.125
42149SOL    HW228345   8.792   9.557  12.189
42150SOL     OW28346   9.951  12.889  13.213
42150SOL    HW128347   9.938  12.820  13.148
42150SOL    HW228348  10.044  12.912  13.205
42151SOL     OW28349  13.101   1.947   1.403
42151SOL    HW128350  13.099   2.014   1.335
42151SOL    HW228351  13.009   1.927   1.420
42152SOL     OW28352   6.145  11.699   4.662
42152SOL    HW128353   6.236  11.694   4.690
42152SOL    HW228354   6.114  11.608   4.663
42153SOL     OW28355   1.557  11.086   2.316
42153SOL    HW128356   1.517  11.172   2.310
42153SOL    HW228357   1.488  11.025   2.290
42154SOL     OW28358   7.260   3.421   2.852
42154SOL    HW128359   7.252   3.326   2.865
42154SOL    HW228360   7.331   3.431   2.789
42155SOL     OW28361   1.765   9.820  12.635
42155SOL    HW128362   1.826   9.865  12.693
42155SOL    HW228363   1.748   9.883  12.564
42156SOL     OW28364   8.390   1.997   6.359
42156SOL    HW128365   8.391   1.906   6.328
42156SOL    HW228366   8.303   2.029   6.333
42157SOL     OW28367   4.781  12.486   6.178
42157SOL    HW128368   4.706  12.468   6.234
42157SOL    HW228369   4.856  12.481   6.236
42158SOL     OW28370  10.065  10.781   2.651
42158SOL    HW128371   9.998  10.775   2.719
42158SOL    HW228372  10.106  10.866   2.665
42159SOL     OW28373   4.743   0.412   2.884
42159SOL    HW128374   4.746   0.316   2.888
42159SOL    HW228375   4.744   0.439   2.976
42160SOL     OW28376  13.661   2.322  10.344
42160SOL    HW128377  13.749   2.334  10.377
42160SOL    HW228378  13.668   2.250  10.282
42161SOL     OW28379  10.111  12.160   6.536
42161SOL    HW128380  10.063  12.077   6.543
42161SOL    HW228381  10.047  12.227   6.558
42162SOL     OW28382   1.455   3.398   3.796
42162SOL    HW128383   1.436   3.366   3.885
42162SOL    HW228384   1.493   3.323   3.752
42163SOL     OW28385   0.309   5.894   5.636
42163SOL    HW128386   0.292   5.855   5.721
42163SOL    HW228387   0.361   5.828   5.589
42164SOL     OW28388   8.111   9.696  13.668
42164SOL    HW128389   8.126   9.692  13.763
42164SOL    HW228390   8.077   9.784  13.654
42165SOL     OW28391  14.709  13.347  10.804
42165SOL    HW128392  14.714  13.291  10.727
42165SOL    HW228393  14.629  13.319  10.849
42166SOL     OW28394   9.155   0.322  14.510
42166SOL    HW128395   9.109   0.400  14.542
42166SOL    HW228396   9.218   0.356  14.447
42167SOL     OW28397   3.642   0.203   1.469
42167SOL    HW128398   3.640   0.126   1.526
42167SOL    HW228399   3.555   0.242   1.479
42168SOL     OW28400  14.100   2.092   5.299
42168SOL    HW128401  14.068   2.070   5.386
42168SOL    HW228402  14.034   2.152   5.264
42169SOL     OW28403   2.579   7.681   7.460
42169SOL    HW128404   2.527   7.622   7.515
42169SOL    HW228405   2.655   7.703   7.514
42170SOL     OW28406   5.844  12.797   5.391
42170SOL    HW128407   5.899  12.852   5.446
42170SOL    HW228408   5.900  12.774   5.317
42171SOL     OW28409   1.856   1.734  10.490
42171SOL    HW128410   1.926   1.692  10.541
42171SOL    HW228411   1.899   1.764  10.410
42172SOL     OW28412   5.925   2.042   0.562
42172SOL    HW128413   6.020   2.032   0.553
42172SOL    HW228414   5.910   2.038   0.656
42173SOL     OW28415   7.350   7.058   2.552
42173SOL    HW128416   7.419   7.078   2.489
42173SOL    HW228417   7.274   7.034   2.499
42174SOL     OW28418   0.405  11.210   5.113
42174SOL    HW128419   0.499  11.195   5.111
42174SOL    HW228420   0.367  11.126   5.140
42175SOL     OW28421   1.775   3.415   9.525
42175SOL    HW128422   1.814   3.363   9.455
42175SOL    HW228423   1.740   3.492   9.481
42176SOL     OW28424  13.215  11.707   3.600
42176SOL    HW128425  13.189  11.798   3.612
42176SOL    HW228426  13.144  11.656   3.639
42177SOL     OW28427   9.468   2.682   5.030
42177SOL    HW128428   9.390   2.628   5.017
42177SOL    HW228429   9.480   2.728   4.947
42178SOL     OW28430   8.168  12.720  11.596
42178SOL    HW128431   8.224  12.676  11.660
42178SOL    HW228432   8.086  12.671  11.597
42179SOL     OW28433   4.588   7.877  11.406
42179SOL    HW128434   4.611   7.855  11.316
42179SOL    HW228435   4.510   7.825  11.424
42180SOL     OW28436   8.481  14.303   3.559
42180SOL    HW128437   8.525  14.222   3.534
42180SOL    HW228438   8.389  14.278   3.570
42181SOL     OW28439   4.730   9.559  11.508
42181SOL    HW128440   4.781   9.526  11.582
42181SOL    HW228441   4.740   9.490  11.441
42182SOL     OW28442   3.044   5.705  11.193
42182SOL    HW128443   3.048   5.715  11.288
42182SOL    HW228444   2.983   5.772  11.164
42183SOL     OW28445   9.523   1.112  11.318
42183SOL    HW128446   9.453   1.087  11.258
42183SOL    HW228447   9.478   1.133  11.400
42184SOL     OW28448  14.682   3.582   7.730
42184SOL    HW128449  14.624   3.515   7.694
42184SOL    HW228450  14.723   3.541   7.806
42185SOL     OW28451   0.609  13.155  14.639
42185SOL    HW128452   0.643  13.237  14.675
42185SOL    HW228453   0.679  13.124  14.581
42186SOL     OW28454  11.534   3.805   9.518
42186SOL    HW128455  11.561   3.718   9.491
42186SOL    HW228456  11.481   3.838   9.445
42187SOL     OW28457   7.080   9.912   5.252
42187SOL    HW128458   7.046   9.895   5.165
42187SOL    HW228459   7.165   9.867   5.254
42188SOL     OW28460   2.121   9.893   0.722
42188SOL    HW128461   2.106   9.956   0.652
42188SOL    HW228462   2.198   9.844   0.695
42189SOL     OW28463   4.119  12.675   8.093
42189SOL    HW128464   4.134  12.652   8.185
42189SOL    HW228465   4.025  12.663   8.080
42190SOL     OW28466   6.741   6.562  14.615
42190SOL    HW128467   6.806   6.613  14.664
42190SOL    HW228468   6.752   6.589  14.524
42191SOL     OW28469   1.595   2.162   4.926
42191SOL    HW128470   1.520   2.216   4.902
42191SOL    HW228471   1.615   2.112   4.847
42192SOL     OW28472  11.190  14.870   7.526
42192SOL    HW128473  11.164   0.009   7.438
42192SOL    HW228474  11.108  14.865   7.575
42193SOL     OW28475  12.767   3.934   1.009
42193SOL    HW128476  12.679   3.931   1.047
42193SOL    HW228477  12.825   3.947   1.084
42194SOL     OW28478  11.440  10.712  10.925
42194SOL    HW128479  11.469  10.731  10.835
42194SOL    HW228480  11.478  10.781  10.978
42195SOL     OW28481  11.771  11.318  11.951
42195SOL    HW128482  11.711  11.246  11.966
42195SOL    HW228483  11.811  11.298  11.866
42196SOL     OW28484  13.823   1.929  13.054
42196SOL    HW128485  13.778   1.935  12.969
42196SOL    HW228486  13.772   1.986  13.112
42197SOL     OW28487   3.432   0.459   7.062
42197SOL    HW128488   3.490   0.529   7.032
42197SOL    HW228489   3.455   0.448   7.155
42198SOL     OW28490   9.896   6.355  11.288
42198SOL    HW128491   9.970   6.368  11.347
42198SOL    HW228492   9.903   6.265  11.258
42199SOL     OW28493   7.727   2.452  10.007
42199SOL    HW128494   7.710   2.429   9.916
42199SOL    HW228495   7.670   2.527  10.025
42200SOL     OW28496  14.006   0.244   0.507
42200SOL    HW128497  14.084   0.189   0.493
42200SOL    HW228498  14.031   0.305   0.576
42201SOL     OW28499   0.723   5.493  10.562
42201SOL    HW128500   0.669   5.442  10.503
42201SOL    HW228501   0.663   5.557  10.600
42202SOL     OW28502   0.567   6.140   5.362
42202SOL    HW128503   0.493   6.181   5.406
42202SOL    HW228504   0.632   6.210   5.352
42203SOL     OW28505   9.982   8.519  13.395
42203SOL    HW128506   9.995   8.437  13.443
42203SOL    HW228507   9.922   8.496  13.324
42204SOL     OW28508  14.152   0.800   5.525
42204SOL    HW128509  14.212   0.818   5.597
42204SOL    HW228510  14.066   0.825   5.559
42205SOL     OW28511  13.071  13.927   4.841
42205SOL    HW128512  12.998  13.869   4.861
42205SOL    HW228513  13.142  13.897   4.898
42206SOL     OW28514  13.289   6.880   7.968
42206SOL    HW128515  13.258   6.850   7.882
42206SOL    HW228516  13.243   6.823   8.031
42207SOL     OW28517  10.284  12.946  14.147
42207SOL    HW128518  10.348  12.882  14.178
42207SOL    HW228519  10.205  12.927  14.199
42208SOL     OW28520  12.246   1.064   8.723
42208SOL    HW128521  12.277   1.026   8.805
42208SOL    HW228522  12.311   1.037   8.658
42209SOL     OW28523  14.429   2.222  12.142
42209SOL    HW128524  14.433   2.165  12.219
42209SOL    HW228525  14.450   2.165  12.068
42210SOL     OW28526  13.188   1.679   9.206
42210SOL    HW128527  13.105   1.640   9.178
42210SOL    HW228528  13.164   1.767   9.234
42211SOL     OW28529   1.842   4.690   7.191
42211SOL    HW128530   1.771   4.751   7.173
42211SOL    HW228531   1.813   4.607   7.152
42212SOL     OW28532   5.293   6.328   5.872
42212SOL    HW128533   5.255   6.253   5.827
42212SOL    HW228534   5.242   6.337   5.952
42213SOL     OW28535  13.591   7.643   0.050
42213SOL    HW128536  13.614   7.705   0.119
42213SOL    HW228537  13.496   7.636   0.054
42214SOL     OW28538   5.404   8.293   1.091
42214SOL    HW128539   5.358   8.221   1.048
42214SOL    HW228540   5.454   8.251   1.161
42215SOL     OW28541   9.692   3.086  10.238
42215SOL    HW128542   9.671   3.127  10.154
42215SOL    HW228543   9.650   3.000  10.235
42216SOL     OW28544  14.687  11.812   4.497
42216SOL    HW128545  14.744  11.818   4.421
42216SOL    HW228546  14.618  11.876   4.481
42217SOL     OW28547   7.031  12.803   6.337
42217SOL    HW128548   7.095  12.847   6.282
42217SOL    HW228549   7.080  12.776   6.415
42218SOL     OW28550   4.380   4.385   1.979
42218SOL    HW128551   4.442   4.320   2.012
42218SOL    HW228552   4.389   4.459   2.039
42219SOL     OW28553   6.057   4.527  14.359
42219SOL    HW128554   6.116   4.598  14.333
42219SOL    HW228555   6.106   4.479  14.426
42220SOL     OW28556   8.941  14.403   9.737
42220SOL    HW128557   8.996  14.393   9.659
42220SOL    HW228558   8.985  14.350   9.804
42221SOL     OW28559  13.223  12.325   4.935
42221SOL    HW128560  13.147  12.346   4.880
42221SOL    HW228561  13.207  12.236   4.965
42222SOL     OW28562   2.346   9.998   6.896
42222SOL    HW128563   2.391  10.073   6.858
42222SOL    HW228564   2.253  10.020   6.889
42223SOL     OW28565   9.721  11.960  11.787
42223SOL    HW128566   9.735  12.006  11.704
42223SOL    HW228567   9.684  11.875  11.761
42224SOL     OW28568   1.080   6.165   4.416
42224SOL    HW128569   1.033   6.088   4.447
42224SOL    HW228570   1.173   6.143   4.429
42225SOL     OW28571   5.803  14.688   3.329
42225SOL    HW128572   5.752  14.731   3.261
42225SOL    HW228573   5.806  14.751   3.401
42226SOL     OW28574   0.791   5.115   1.722
42226SOL    HW128575   0.838   5.040   1.759
42226SOL    HW228576   0.857   5.185   1.721
42227SOL     OW28577   7.800   9.908  10.125
42227SOL    HW128578   7.892   9.921  10.102
42227SOL    HW228579   7.752   9.957  10.059
42228SOL     OW28580  11.049   2.038  11.087
42228SOL    HW128581  11.015   2.061  11.000
42228SOL    HW228582  11.142   2.061  11.083
42229SOL     OW28583   6.560  14.282  10.217
42229SOL    HW128584   6.609  14.302  10.296
42229SOL    HW228585   6.480  14.333  10.225
42230SOL     OW28586   9.703   3.407   4.684
42230SOL    HW128587   9.651   3.366   4.753
42230SOL    HW228588   9.790   3.419   4.724
42231SOL     OW28589   7.373   5.656   8.993
42231SOL    HW128590   7.332   5.603   8.924
42231SOL    HW228591   7.337   5.621   9.074
42232SOL     OW28592  13.761   1.131   6.138
42232SOL    HW128593  13.791   1.044   6.165
42232SOL    HW228594  13.761   1.128   6.042
42233SOL     OW28595  11.290  10.429   0.810
42233SOL    HW128596  11.196  10.436   0.825
42233SOL    HW228597  11.321  10.371   0.880
42234SOL     OW28598   7.309   0.840   7.113
42234SOL    HW128599   7.348   0.790   7.185
42234SOL    HW228600   7.227   0.873   7.148
42235SOL     OW28601  13.054   3.136  13.606
42235SOL    HW128602  13.011   3.205  13.656
42235SOL    HW228603  12.983   3.078  13.578
42236SOL     OW28604  12.013   7.980   7.957
42236SOL    HW128605  12.080   7.977   7.888
42236SOL    HW228606  11.931   7.957   7.912
42237SOL     OW28607   8.318   1.681  11.432
42237SOL    HW128608   8.299   1.619  11.362
42237SOL    HW228609   8.283   1.641  11.511
42238SOL     OW28610   8.609   9.033   3.965
42238SOL    HW128611   8.611   9.002   4.056
42238SOL    HW228612   8.584   9.126   3.972
42239SOL     OW28613  11.717   6.042   7.371
42239SOL    HW128614  11.732   6.006   7.283
42239SOL    HW228615  11.775   6.119   7.375
42240SOL     OW28616   8.925   0.742   1.695
42240SOL    HW128617   8.849   0.796   1.718
42240SOL    HW228618   8.974   0.796   1.633
42241SOL     OW28619  13.402   6.290  14.037
42241SOL    HW128620  13.412   6.235  13.959
42241SOL    HW228621  13.492   6.306  14.066
42242SOL     OW28622   7.493   3.242   4.554
42242SOL    HW128623   7.473   3.325   4.510
42242SOL    HW228624   7.514   3.267   4.644
42243SOL     OW28625  12.999   5.914   1.167
42243SOL    HW128626  12.958   5.828   1.159
42243SOL    HW228627  12.932   5.969   1.208
42244SOL     OW28628  14.477   3.071   1.590
42244SOL    HW128629  14.520   3.149   1.554
42244SOL    HW228630  14.407   3.052   1.528
42245SOL     OW28631   9.499   9.256   0.104
42245SOL    HW128632   9.590   9.265   0.131
42245SOL    HW228633   9.500   9.185   0.040
42246SOL     OW28634  13.322  11.967   2.283
42246SOL    HW128635  13.254  11.942   2.220
42246SOL    HW228636  13.397  11.911   2.261
42247SOL     OW28637   2.482   2.493   9.489
42247SOL    HW128638   2.437   2.408   9.488
42247SOL    HW228639   2.567   2.476   9.449
42248SOL     OW28640  11.589   5.538   1.817
42248SOL    HW128641  11.651   5.523   1.888
42248SOL    HW228642  11.508   5.564   1.860
42249SOL     OW28643   9.099   5.044  12.950
42249SOL    HW128644   9.186   5.079  12.968
42249SOL    HW228645   9.041   5.120  12.951
42250SOL     OW28646   4.697   5.964   9.727
42250SOL    HW128647   4.608   5.988   9.700
42250SOL    HW228648   4.718   5.886   9.675
42251SOL     OW28649  13.112   8.056   2.017
42251SOL    HW128650  13.146   7.968   2.002
42251SOL    HW228651  13.017   8.047   2.010
42252SOL     OW28652   7.922  14.592   7.068
42252SOL    HW128653   7.923  14.595   7.164
42252SOL    HW228654   7.943  14.502   7.046
42253SOL     OW28655   0.698   5.308   8.885
42253SOL    HW128656   0.691   5.267   8.799
42253SOL    HW228657   0.649   5.250   8.943
42254SOL     OW28658   3.660   0.829   1.468
42254SOL    HW128659   3.656   0.851   1.375
42254SOL    HW228660   3.694   0.740   1.470
42255SOL     OW28661   5.576   8.027   8.977
42255SOL    HW128662   5.559   8.001   9.068
42255SOL    HW228663   5.655   8.080   8.981
42256SOL     OW28664  11.957  12.377   7.634
42256SOL    HW128665  12.018  12.305   7.652
42256SOL    HW228666  11.976  12.442   7.702
42257SOL     OW28667   3.703   8.728   1.873
42257SOL    HW128668   3.747   8.692   1.796
42257SOL    HW228669   3.675   8.815   1.845
42258SOL     OW28670   8.723   2.212  12.346
42258SOL    HW128671   8.652   2.276  12.344
42258SOL    HW228672   8.730   2.180  12.256
42259SOL     OW28673   7.833   8.390   3.005
42259SOL    HW128674   7.869   8.320   2.951
42259SOL    HW228675   7.740   8.394   2.982
42260SOL     OW28676   4.814   8.653   1.501
42260SOL    HW128677   4.863   8.714   1.446
42260SOL    HW228678   4.811   8.695   1.587
42261SOL     OW28679   6.467   9.213   3.575
42261SOL    HW128680   6.394   9.156   3.599
42261SOL    HW228681   6.528   9.156   3.528
42262SOL     OW28682   4.689  12.685  14.807
42262SOL    HW128683   4.747  12.711  14.735
42262SOL    HW228684   4.734  12.715  14.886
42263SOL     OW28685  11.058   4.335   1.232
42263SOL    HW128686  11.144   4.317   1.195
42263SOL    HW228687  11.071   4.412   1.288
42264SOL     OW28688  11.213   8.387   8.951
42264SOL    HW128689  11.182   8.413   8.865
42264SOL    HW228690  11.297   8.432   8.961
42265SOL     OW28691   5.361  10.204  11.952
42265SOL    HW128692   5.290  10.140  11.955
42265SOL    HW228693   5.441  10.151  11.957
42266SOL     OW28694   2.721  14.449   8.127
42266SOL    HW128695   2.751  14.538   8.108
42266SOL    HW228696   2.726  14.442   8.222
42267SOL     OW28697  11.711  14.245  13.481
42267SOL    HW128698  11.740  14.303  13.552
42267SOL    HW228699  11.615  14.248  13.487
42268SOL     OW28700  14.397   9.890   3.603
42268SOL    HW128701  14.339   9.828   3.560
42268SOL    HW228702  14.429   9.844   3.681
42269SOL     OW28703   4.825  13.502   7.695
42269SOL    HW128704   4.908  13.475   7.734
42269SOL    HW228705   4.761  13.496   7.766
42270SOL     OW28706   9.546   4.151   4.324
42270SOL    HW128707   9.609   4.167   4.253
42270SOL    HW228708   9.481   4.221   4.314
42271SOL     OW28709   9.568   7.883   4.510
42271SOL    HW128710   9.602   7.964   4.472
42271SOL    HW228711   9.577   7.895   4.604
42272SOL     OW28712   7.753  13.988   7.487
42272SOL    HW128713   7.668  14.030   7.501
42272SOL    HW228714   7.815  14.042   7.536
42273SOL     OW28715  12.915   2.015   4.875
42273SOL    HW128716  12.998   2.060   4.890
42273SOL    HW228717  12.934   1.923   4.894
42274SOL     OW28718   3.965  10.971   8.022
42274SOL    HW128719   4.019  10.997   8.096
42274SOL    HW228720   4.018  10.907   7.974
42275SOL     OW28721   7.300   8.267   0.420
42275SOL    HW128722   7.328   8.355   0.395
42275SOL    HW228723   7.376   8.230   0.466
42276SOL     OW28724  13.517  13.612   3.123
42276SOL    HW128725  13.556  13.526   3.131
42276SOL    HW228726  13.495  13.621   3.030
42277SOL     OW28727  13.444  12.587   5.971
42277SOL    HW128728  13.466  12.546   5.887
42277SOL    HW228729  13.449  12.681   5.954
42278SOL     OW28730  13.145  14.352   4.241
42278SOL    HW128731  13.067  14.398   4.209
42278SOL    HW228732  13.116  14.262   4.254
42279SOL     OW28733   0.430   1.853   2.368
42279SOL    HW128734   0.505   1.820   2.417
42279SOL    HW228735   0.434   1.806   2.284
42280SOL     OW28736  14.355  10.675   2.911
42280SOL    HW128737  14.265  10.660   2.880
42280SOL    HW228738  14.360  10.625   2.993
42281SOL     OW28739   6.042   1.567   8.943
42281SOL    HW128740   6.087   1.490   8.978
42281SOL    HW228741   6.038   1.628   9.017
42282SOL     OW28742   5.283   4.956   7.152
42282SOL    HW128743   5.300   5.011   7.229
42282SOL    HW228744   5.306   5.012   7.077
42283SOL     OW28745   6.127   1.021   1.114
42283SOL    HW128746   6.097   0.935   1.144
42283SOL    HW228747   6.103   1.024   1.022
42284SOL     OW28748   2.536   9.522   1.706
42284SOL    HW128749   2.471   9.547   1.772
42284SOL    HW228750   2.520   9.428   1.692
42285SOL     OW28751  12.298  12.295  12.509
42285SOL    HW128752  12.385  12.293  12.548
42285SOL    HW228753  12.263  12.381  12.534
42286SOL     OW28754   7.478   8.163   5.541
42286SOL    HW128755   7.453   8.192   5.629
42286SOL    HW228756   7.548   8.223   5.515
42287SOL     OW28757   2.917   6.743   8.356
42287SOL    HW128758   2.979   6.797   8.308
42287SOL    HW228759   2.923   6.775   8.446
42288SOL     OW28760   7.253   5.475  12.025
42288SOL    HW128761   7.311   5.406  12.059
42288SOL    HW228762   7.229   5.525  12.103
42289SOL     OW28763  11.560   7.555   3.975
42289SOL    HW128764  11.624   7.549   3.904
42289SOL    HW228765  11.541   7.649   3.982
42290SOL     OW28766  12.803  12.444   2.673
42290SOL    HW128767  12.744  12.467   2.744
42290SOL    HW228768  12.748  12.395   2.611
42291SOL     OW28769   4.415  10.860   3.068
42291SOL    HW128770   4.510  10.869   3.075
42291SOL    HW228771   4.391  10.917   2.995
42292SOL     OW28772   0.182  13.825  11.903
42292SOL    HW128773   0.231  13.744  11.913
42292SOL    HW228774   0.228  13.888  11.957
42293SOL     OW28775  10.779   2.041   4.798
42293SOL    HW128776  10.769   2.097   4.721
42293SOL    HW228777  10.792   1.953   4.762
42294SOL     OW28778   2.329   0.406   3.032
42294SOL    HW128779   2.372   0.328   2.998
42294SOL    HW228780   2.269   0.434   2.962
42295SOL     OW28781  14.583   6.620   7.800
42295SOL    HW128782  14.518   6.557   7.833
42295SOL    HW228783  14.573   6.696   7.857
42296SOL     OW28784  13.653   9.125   9.465
42296SOL    HW128785  13.624   9.199   9.518
42296SOL    HW228786  13.739   9.103   9.500
42297SOL     OW28787   3.008   5.172   4.077
42297SOL    HW128788   2.956   5.178   3.997
42297SOL    HW228789   3.038   5.081   4.080
42298SOL     OW28790   2.911   5.432   8.324
42298SOL    HW128791   2.954   5.415   8.239
42298SOL    HW228792   2.952   5.369   8.384
42299SOL     OW28793   2.973  10.529   2.790
42299SOL    HW128794   2.960  10.620   2.763
42299SOL    HW228795   2.889  10.504   2.830
42300SOL     OW28796   6.834  11.310   0.279
42300SOL    HW128797   6.851  11.226   0.236
42300SOL    HW228798   6.757  11.345   0.234
42301SOL     OW28799   0.465   4.776   9.802
42301SOL    HW128800   0.420   4.807   9.881
42301SOL    HW228801   0.398   4.731   9.751
42302SOL     OW28802   2.443   4.439  12.729
42302SOL    HW128803   2.382   4.513  12.724
42302SOL    HW228804   2.432   4.405  12.818
42303SOL     OW28805   9.641  13.274  14.846
42303SOL    HW128806   9.676  13.312  14.765
42303SOL    HW228807   9.547  13.294  14.842
42304SOL     OW28808   8.873  12.418   1.784
42304SOL    HW128809   8.778  12.406   1.785
42304SOL    HW228810   8.904  12.355   1.719
42305SOL     OW28811   8.643   6.052  12.305
42305SOL    HW128812   8.739   6.047  12.303
42305SOL    HW228813   8.614   5.962  12.296
42306SOL     OW28814  14.293  12.299   2.925
42306SOL    HW128815  14.386  12.300   2.949
42306SOL    HW228816  14.287  12.363   2.854
42307SOL     OW28817   7.916   6.474   5.544
42307SOL    HW128818   8.008   6.448   5.535
42307SOL    HW228819   7.905   6.543   5.478
42308SOL     OW28820   5.032   1.127   2.132
42308SOL    HW128821   4.940   1.109   2.153
42308SOL    HW228822   5.082   1.069   2.189
42309SOL     OW28823   4.159  10.494   4.052
42309SOL    HW128824   4.243  10.464   4.016
42309SOL    HW228825   4.104  10.415   4.051
42310SOL     OW28826  13.100  10.725  11.635
42310SOL    HW128827  13.140  10.802  11.675
42310SOL    HW228828  13.011  10.724  11.671
42311SOL     OW28829   0.613   7.491   5.848
42311SOL    HW128830   0.587   7.576   5.885
42311SOL    HW228831   0.530   7.445   5.835
42312SOL     OW28832   3.584  11.855   1.003
42312SOL    HW128833   3.581  11.948   0.981
42312SOL    HW228834   3.578  11.810   0.919
42313SOL     OW28835   8.142  14.443   6.050
42313SOL    HW128836   8.068  14.467   6.105
42313SOL    HW228837   8.215  14.431   6.111
42314SOL     OW28838   1.938  14.545   1.006
42314SOL    HW128839   1.905  14.526   1.094
42314SOL    HW228840   1.886  14.489   0.948
42315SOL     OW28841   2.796   1.165   8.882
42315SOL    HW128842   2.727   1.172   8.948
42315SOL    HW228843   2.856   1.236   8.902
42316SOL     OW28844   2.312   7.269   2.407
42316SOL    HW128845   2.374   7.201   2.380
42316SOL    HW228846   2.299   7.253   2.500
42317SOL     OW28847   7.849   8.315  14.227
42317SOL    HW128848   7.887   8.307  14.314
42317SOL    HW228849   7.920   8.289  14.168
42318SOL     OW28850  12.696   8.054  12.262
42318SOL    HW128851  12.740   8.009  12.335
42318SOL    HW228852  12.614   8.006  12.251
42319SOL     OW28853   4.073  11.574   3.168
42319SOL    HW128854   4.065  11.566   3.073
42319SOL    HW228855   4.167  11.582   3.183
42320SOL     OW28856   6.780  10.950   7.778
42320SOL    HW128857   6.789  10.958   7.873
42320SOL    HW228858   6.826  10.869   7.756
42321SOL     OW28859   8.585   5.381  12.852
42321SOL    HW128860   8.653   5.373  12.918
42321SOL    HW228861   8.522   5.312  12.874
42322SOL     OW28862  11.459   2.761   8.228
42322SOL    HW128863  11.533   2.790   8.175
42322SOL    HW228864  11.466   2.665   8.228
42323SOL     OW28865  10.241  13.905   3.974
42323SOL    HW128866  10.286  13.946   3.900
42323SOL    HW228867  10.148  13.914   3.954
42324SOL     OW28868   4.744   4.038  10.005
42324SOL    HW128869   4.681   3.966  10.000
42324SOL    HW228870   4.825   4.002   9.970
42325SOL     OW28871   4.890  14.191  12.488
42325SOL    HW128872   4.829  14.245  12.437
42325SOL    HW228873   4.835  14.130  12.535
42326SOL     OW28874   7.729   4.035   4.454
42326SOL    HW128875   7.707   4.127   4.466
42326SOL    HW228876   7.766   4.030   4.366
42327SOL     OW28877   6.315   6.832   0.055
42327SOL    HW128878   6.294   6.877  14.860
42327SOL    HW228879   6.367   6.756   0.027
42328SOL     OW28880   8.049   5.865   6.083
42328SOL    HW128881   8.030   5.816   6.163
42328SOL    HW228882   7.975   5.925   6.074
42329SOL     OW28883   0.996   9.357  14.365
42329SOL    HW128884   0.972   9.420  14.433
42329SOL    HW228885   0.922   9.358  14.304
42330SOL     OW28886   7.925   6.318   9.719
42330SOL    HW128887   7.900   6.227   9.735
42330SOL    HW228888   7.853   6.354   9.667
42331SOL     OW28889  10.662  10.990  10.462
42331SOL    HW128890  10.623  11.046  10.529
42331SOL    HW228891  10.673  10.905  10.506
42332SOL     OW28892   3.665  14.536   4.154
42332SOL    HW128893   3.639  14.627   4.168
42332SOL    HW228894   3.711  14.511   4.234
42333SOL     OW28895   1.085   0.427   8.747
42333SOL    HW128896   1.037   0.398   8.670
42333SOL    HW228897   1.043   0.508   8.773
42334SOL     OW28898   6.739  13.616   2.775
42334SOL    HW128899   6.767  13.551   2.840
42334SOL    HW228900   6.747  13.700   2.820
42335SOL     OW28901  10.086   3.646   0.915
42335SOL    HW128902  10.084   3.729   0.867
42335SOL    HW228903  10.021   3.656   0.984
42336SOL     OW28904  11.556   0.222   4.153
42336SOL    HW128905  11.637   0.271   4.166
42336SOL    HW228906  11.567   0.179   4.068
42337SOL     OW28907  13.667   8.034   2.581
42337SOL    HW128908  13.608   7.960   2.595
42337SOL    HW228909  13.617   8.110   2.611
42338SOL     OW28910  11.337   2.879   3.862
42338SOL    HW128911  11.253   2.908   3.826
42338SOL    HW228912  11.319   2.863   3.955
42339SOL     OW28913  13.673   1.959  12.821
42339SOL    HW128914  13.602   1.947  12.884
42339SOL    HW228915  13.689   1.871  12.787
42340SOL     OW28916   0.210   6.060   5.053
42340SOL    HW128917   0.246   6.131   5.106
42340SOL    HW228918   0.116   6.072   5.057
42341SOL     OW28919   0.810   3.843   4.756
42341SOL    HW128920   0.799   3.748   4.750
42341SOL    HW228921   0.722   3.876   4.774
42342SOL     OW28922   4.734   4.563  14.252
42342SOL    HW128923   4.731   4.633  14.187
42342SOL    HW228924   4.787   4.598  14.323
42343SOL     OW28925   0.878   3.940   4.463
42343SOL    HW128926   0.908   3.925   4.552
42343SOL    HW228927   0.926   3.876   4.410
42344SOL     OW28928  10.323  14.360   4.903
42344SOL    HW128929  10.243  14.391   4.945
42344SOL    HW228930  10.320  14.265   4.913
42345SOL     OW28931  13.466   0.912   5.073
42345SOL    HW128932  13.554   0.892   5.041
42345SOL    HW228933  13.428   0.826   5.095
42346SOL     OW28934   9.654  10.700  11.945
42346SOL    HW128935   9.592  10.667  12.010
42346SOL    HW228936   9.735  10.713  11.994
42347SOL     OW28937  14.066  13.883   5.700
42347SOL    HW128938  14.130  13.922   5.640
42347SOL    HW228939  14.074  13.934   5.781
42348SOL     OW28940   5.697   6.145   4.559
42348SOL    HW128941   5.784   6.147   4.520
42348SOL    HW228942   5.678   6.052   4.572
42349SOL     OW28943   4.170  14.613  11.952
42349SOL    HW128944   4.089  14.598  12.001
42349SOL    HW228945   4.240  14.582  12.010
42350SOL     OW28946  13.254  13.074   6.096
42350SOL    HW128947  13.265  13.169   6.090
42350SOL    HW228948  13.232  13.058   6.188
42351SOL     OW28949   7.625   7.149   5.979
42351SOL    HW128950   7.638   7.207   5.904
42351SOL    HW228951   7.536   7.169   6.009
42352SOL     OW28952   0.970   5.485  13.573
42352SOL    HW128953   0.953   5.393  13.549
42352SOL    HW228954   0.926   5.535  13.504
42353SOL     OW28955   4.683  10.349   7.582
42353SOL    HW128956   4.674  10.271   7.638
42353SOL    HW228957   4.737  10.320   7.508
42354SOL     OW28958   4.059   2.246   6.103
42354SOL    HW128959   4.088   2.337   6.108
42354SOL    HW228960   3.979   2.249   6.050
42355SOL     OW28961  14.407   5.303   5.364
42355SOL    HW128962  14.337   5.316   5.300
42355SOL    HW228963  14.383   5.359   5.438
42356SOL     OW28964   7.601  13.480   2.528
42356SOL    HW128965   7.637  13.563   2.497
42356SOL    HW228966   7.650  13.461   2.608
42357SOL     OW28967   3.279  10.705   8.826
42357SOL    HW128968   3.269  10.612   8.806
42357SOL    HW228969   3.292  10.746   8.740
42358SOL     OW28970  12.584   0.826  11.173
42358SOL    HW128971  12.512   0.851  11.230
42358SOL    HW228972  12.612   0.741  11.206
42359SOL     OW28973   5.348   1.515   9.245
42359SOL    HW128974   5.266   1.547   9.207
42359SOL    HW228975   5.329   1.423   9.267
42360SOL     OW28976   3.206   5.012   0.055
42360SOL    HW128977   3.280   4.952   0.064
42360SOL    HW228978   3.231   5.070  14.870
42361SOL     OW28979  10.074  12.036   2.880
42361SOL    HW128980   9.993  12.006   2.922
42361SOL    HW228981  10.143  12.017   2.944
42362SOL     OW28982   5.744  14.210  11.514
42362SOL    HW128983   5.663  14.238  11.471
42362SOL    HW228984   5.714  14.165  11.593
42363SOL     OW28985   3.921   5.997   1.124
42363SOL    HW128986   3.970   5.933   1.175
42363SOL    HW228987   3.963   6.081   1.144
42364SOL     OW28988   7.407   3.295   1.179
42364SOL    HW128989   7.334   3.314   1.120
42364SOL    HW228990   7.407   3.367   1.241
42365SOL     OW28991  11.661   0.381  13.317
42365SOL    HW128992  11.707   0.461  13.342
42365SOL    HW228993  11.695   0.314  13.376
42366SOL     OW28994   8.555  14.877   5.412
42366SOL    HW128995   8.499   0.046   5.466
42366SOL    HW228996   8.629   0.045   5.390
42367SOL     OW28997   6.995   7.238   4.627
42367SOL    HW128998   6.944   7.193   4.695
42367SOL    HW228999   6.994   7.177   4.553
42368SOL     OW29000   6.463   3.333   3.636
42368SOL    HW129001   6.483   3.244   3.664
42368SOL    HW229002   6.446   3.381   3.717
42369SOL     OW29003   5.293   0.515  12.970
42369SOL    HW129004   5.303   0.436  12.917
42369SOL    HW229005   5.329   0.585  12.916
42370SOL     OW29006   8.820   1.882   1.331
42370SOL    HW129007   8.856   1.880   1.243
42370SOL    HW229008   8.729   1.907   1.319
42371SOL     OW29009   5.303  11.849   8.619
42371SOL    HW129010   5.310  11.763   8.579
42371SOL    HW229011   5.376  11.852   8.681
42372SOL     OW29012   4.009   2.762   9.397
42372SOL    HW129013   3.985   2.669   9.393
42372SOL    HW229014   4.089   2.768   9.345
42373SOL     OW29015   0.587   7.520  10.327
42373SOL    HW129016   0.672   7.556  10.350
42373SOL    HW229017   0.577   7.443  10.383
42374SOL     OW29018  10.558  13.338  13.453
42374SOL    HW129019  10.550  13.242  13.447
42374SOL    HW229020  10.633  13.359  13.398
42375SOL     OW29021  12.104  11.236   8.830
42375SOL    HW129022  12.169  11.229   8.760
42375SOL    HW229023  12.057  11.152   8.829
42376SOL     OW29024   0.511  10.742  14.672
42376SOL    HW129025   0.463  10.746  14.754
42376SOL    HW229026   0.506  10.651  14.645
42377SOL     OW29027   9.893   1.526   2.284
42377SOL    HW129028   9.865   1.466   2.215
42377SOL    HW229029   9.851   1.609   2.262
42378SOL     OW29030   5.926  14.683  13.922
42378SOL    HW129031   5.986  14.758  13.918
42378SOL    HW229032   5.921  14.662  14.015
42379SOL     OW29033   4.566  12.010   3.659
42379SOL    HW129034   4.597  12.015   3.568
42379SOL    HW229035   4.473  12.033   3.653
42380SOL     OW29036   4.266   1.881  12.743
42380SOL    HW129037   4.239   1.821  12.674
42380SOL    HW229038   4.190   1.886  12.801
42381SOL     OW29039  11.212   7.371   8.560
42381SOL    HW129040  11.273   7.325   8.503
42381SOL    HW229041  11.233   7.463   8.550
42382SOL     OW29042   5.132  12.731   1.309
42382SOL    HW129043   5.119  12.817   1.270
42382SOL    HW229044   5.157  12.748   1.400
42383SOL     OW29045   4.753  14.363   6.799
42383SOL    HW129046   4.799  14.294   6.750
42383SOL    HW229047   4.731  14.322   6.882
42384SOL     OW29048   1.970  14.136   8.055
42384SOL    HW129049   2.013  14.183   7.983
42384SOL    HW229050   1.886  14.109   8.020
42385SOL     OW29051  14.005  14.837  14.490
42385SOL    HW129052  14.057  14.847  14.570
42385SOL    HW229053  14.065  14.797  14.428
42386SOL     OW29054   8.092   0.176  12.401
42386SOL    HW129055   8.179   0.138  12.392
42386SOL    HW229056   8.106   0.257  12.449
42387SOL     OW29057   4.960   8.111  12.231
42387SOL    HW129058   5.027   8.051  12.264
42387SOL    HW229059   5.008   8.178  12.185
42388SOL     OW29060  11.160   6.280   3.386
42388SOL    HW129061  11.119   6.297   3.301
42388SOL    HW229062  11.226   6.348   3.395
42389SOL     OW29063   2.188  12.755   2.768
42389SOL    HW129064   2.221  12.674   2.730
42389SOL    HW229065   2.265  12.796   2.807
42390SOL     OW29066   2.245   2.227   1.348
42390SOL    HW129067   2.241   2.313   1.390
42390SOL    HW229068   2.299   2.240   1.271
42391SOL     OW29069   2.361  10.013   1.412
42391SOL    HW129070   2.433   9.951   1.425
42391SOL    HW229071   2.340  10.045   1.499
42392SOL     OW29072   9.820   9.842   1.871
42392SOL    HW129073   9.901   9.860   1.825
42392SOL    HW229074   9.779   9.770   1.822
42393SOL     OW29075   2.707  10.612  14.089
42393SOL    HW129076   2.742  10.662  14.016
42393SOL    HW229077   2.641  10.555  14.050
42394SOL     OW29078   6.830   7.607   5.258
42394SOL    HW129079   6.777   7.685   5.270
42394SOL    HW229080   6.914   7.639   5.225
42395SOL     OW29081   1.082  14.547   9.783
42395SOL    HW129082   1.146  14.512   9.846
42395SOL    HW229083   1.135  14.570   9.707
42396SOL     OW29084   7.959   0.345   7.008
42396SOL    HW129085   7.990   0.403   6.938
42396SOL    HW229086   7.973   0.256   6.973
42397SOL     OW29087   1.283   3.001   8.265
42397SOL    HW129088   1.350   3.044   8.319
42397SOL    HW229089   1.249   2.932   8.320
42398SOL     OW29090   3.410   7.678  13.905
42398SOL    HW129091   3.342   7.619  13.937
42398SOL    HW229092   3.380   7.705  13.819
42399SOL     OW29093  12.279  14.033   8.588
42399SOL    HW129094  12.189  14.024   8.620
42399SOL    HW229095  12.270  14.032   8.492
42400SOL     OW29096   7.921   8.019   4.450
42400SOL    HW129097   7.880   8.077   4.514
42400SOL    HW229098   8.015   8.033   4.462
42401SOL     OW29099   0.577  14.635   7.942
42401SOL    HW129100   0.622  14.625   8.026
42401SOL    HW229101   0.486  14.653   7.966
42402SOL     OW29102   9.709   8.145  12.028
42402SOL    HW129103   9.713   8.200  12.106
42402SOL    HW229104   9.792   8.160  11.983
42403SOL     OW29105  13.388   8.482   3.481
42403SOL    HW129106  13.445   8.537   3.534
42403SOL    HW229107  13.350   8.420   3.543
42404SOL     OW29108  11.154   9.100   6.961
42404SOL    HW129109  11.180   9.076   7.050
42404SOL    HW229110  11.229   9.076   6.907
42405SOL     OW29111   1.070  10.573  10.142
42405SOL    HW129112   1.153  10.620  10.143
42405SOL    HW229113   1.003  10.641  10.152
42406SOL     OW29114   9.946  13.529  14.597
42406SOL    HW129115   9.963  13.466  14.527
42406SOL    HW229116   9.852  13.523  14.613
42407SOL     OW29117   3.412  13.251   6.999
42407SOL    HW129118   3.383  13.241   6.908
42407SOL    HW229119   3.440  13.163   7.025
42408SOL     OW29120  10.847  14.176   2.618
42408SOL    HW129121  10.898  14.128   2.553
42408SOL    HW229122  10.908  14.188   2.691
42409SOL     OW29123   9.006   3.863   9.548
42409SOL    HW129124   9.079   3.923   9.532
42409SOL    HW229125   8.957   3.863   9.465
42410SOL     OW29126  14.576   9.748   1.036
42410SOL    HW129127  14.493   9.758   1.082
42410SOL    HW229128  14.605   9.659   1.059
42411SOL     OW29129   2.016   2.125  13.821
42411SOL    HW129130   1.982   2.182  13.890
42411SOL    HW229131   2.047   2.047  13.868
42412SOL     OW29132   9.502  13.968   0.539
42412SOL    HW129133   9.471  13.878   0.546
42412SOL    HW229134   9.590  13.967   0.579
42413SOL     OW29135  14.206   8.134  11.845
42413SOL    HW129136  14.172   8.106  11.760
42413SOL    HW229137  14.301   8.141  11.831
42414SOL     OW29138  10.030   5.249  11.279
42414SOL    HW129139  10.110   5.238  11.228
42414SOL    HW229140   9.980   5.316  11.232
42415SOL     OW29141   7.944   7.359   3.805
42415SOL    HW129142   7.898   7.284   3.841
42415SOL    HW229143   7.967   7.412   3.881
42416SOL     OW29144   5.259   8.777   8.323
42416SOL    HW129145   5.205   8.842   8.367
42416SOL    HW229146   5.320   8.745   8.390
42417SOL     OW29147   1.865   4.752   0.176
42417SOL    HW129148   1.863   4.817   0.107
42417SOL    HW229149   1.944   4.772   0.226
42418SOL     OW29150   7.254   6.330   5.209
42418SOL    HW129151   7.298   6.381   5.278
42418SOL    HW229152   7.164   6.321   5.240
42419SOL     OW29153  13.374   7.876  10.181
42419SOL    HW129154  13.368   7.948  10.118
42419SOL    HW229155  13.433   7.813  10.140
42420SOL     OW29156  13.570   1.805   5.622
42420SOL    HW129157  13.568   1.862   5.545
42420SOL    HW229158  13.641   1.840   5.676
42421SOL     OW29159   9.579   2.016   9.428
42421SOL    HW129160   9.514   2.067   9.380
42421SOL    HW229161   9.662   2.041   9.389
42422SOL     OW29162   8.483   4.904   5.994
42422SOL    HW129163   8.561   4.947   6.028
42422SOL    HW229164   8.429   4.888   6.071
42423SOL     OW29165   9.796  10.065   5.629
42423SOL    HW129166   9.777  10.068   5.535
42423SOL    HW229167   9.712  10.082   5.671
42424SOL     OW29168   7.668   8.539   6.046
42424SOL    HW129169   7.745   8.586   6.015
42424SOL    HW229170   7.606   8.544   5.974
42425SOL     OW29171   1.257   1.446   2.003
42425SOL    HW129172   1.329   1.484   2.053
42425SOL    HW229173   1.229   1.371   2.055
42426SOL     OW29174  10.229  12.795  11.344
42426SOL    HW129175  10.240  12.764  11.254
42426SOL    HW229176  10.312  12.773  11.387
42427SOL     OW29177   9.771  12.301  10.985
42427SOL    HW129178   9.751  12.357  10.910
42427SOL    HW229179   9.824  12.355  11.043
42428SOL     OW29180  10.245   8.444   8.182
42428SOL    HW129181  10.153   8.466   8.194
42428SOL    HW229182  10.290   8.528   8.177
42429SOL     OW29183   1.497   3.364   7.630
42429SOL    HW129184   1.488   3.277   7.669
42429SOL    HW229185   1.515   3.422   7.704
42430SOL     OW29186  10.015   9.795  14.807
42430SOL    HW129187  10.038   9.881  14.841
42430SOL    HW229188   9.958   9.757  14.874
42431SOL     OW29189   5.094   5.043   4.146
42431SOL    HW129190   5.068   5.131   4.118
42431SOL    HW229191   5.112   5.052   4.239
42432SOL     OW29192  12.067   9.297   0.267
42432SOL    HW129193  12.062   9.225   0.329
42432SOL    HW229194  12.027   9.262   0.187
42433SOL     OW29195  11.972   3.619   6.926
42433SOL    HW129196  12.057   3.587   6.896
42433SOL    HW229197  11.950   3.564   7.001
42434SOL     OW29198   0.742  11.471   7.924
42434SOL    HW129199   0.722  11.508   8.009
42434SOL    HW229200   0.769  11.381   7.942
42435SOL     OW29201  12.986   3.296  10.500
42435SOL    HW129202  13.044   3.231  10.540
42435SOL    HW229203  13.015   3.302  10.409
42436SOL     OW29204  12.719  12.737   0.895
42436SOL    HW129205  12.696  12.792   0.970
42436SOL    HW229206  12.729  12.649   0.932
42437SOL     OW29207  13.329   2.141  10.943
42437SOL    HW129208  13.272   2.206  10.983
42437SOL    HW229209  13.296   2.132  10.854
42438SOL     OW29210  10.231   8.038   1.445
42438SOL    HW129211  10.189   7.954   1.461
42438SOL    HW229212  10.319   8.028   1.480
42439SOL     OW29213   8.090  12.209   9.591
42439SOL    HW129214   8.009  12.160   9.578
42439SOL    HW229215   8.116  12.189   9.681
42440SOL     OW29216   8.059  14.386  11.014
42440SOL    HW129217   8.093  14.452  10.953
42440SOL    HW229218   7.969  14.370  10.984
42441SOL     OW29219  10.537   2.146   9.766
42441SOL    HW129220  10.459   2.187   9.804
42441SOL    HW229221  10.523   2.152   9.672
42442SOL     OW29222   6.417   3.788  13.927
42442SOL    HW129223   6.428   3.803  14.020
42442SOL    HW229224   6.497   3.744  13.900
42443SOL     OW29225   9.998   6.756   1.751
42443SOL    HW129226  10.088   6.733   1.728
42443SOL    HW229227   9.955   6.672   1.767
42444SOL     OW29228   1.231   1.564   8.110
42444SOL    HW129229   1.242   1.498   8.041
42444SOL    HW229230   1.314   1.561   8.158
42445SOL     OW29231   3.581   4.301   2.485
42445SOL    HW129232   3.560   4.391   2.508
42445SOL    HW229233   3.582   4.253   2.568
42446SOL     OW29234   9.426   4.094   3.230
42446SOL    HW129235   9.405   4.132   3.145
42446SOL    HW229236   9.467   4.011   3.210
42447SOL     OW29237   2.459   9.458   8.121
42447SOL    HW129238   2.438   9.498   8.036
42447SOL    HW229239   2.541   9.500   8.146
42448SOL     OW29240  11.221   0.647  13.272
42448SOL    HW129241  11.316   0.636  13.282
42448SOL    HW229242  11.209   0.742  13.261
42449SOL     OW29243   8.713   7.885  14.721
42449SOL    HW129244   8.784   7.905  14.782
42449SOL    HW229245   8.730   7.941  14.646
42450SOL     OW29246   5.794   0.434   3.605
42450SOL    HW129247   5.854   0.453   3.678
42450SOL    HW229248   5.752   0.352   3.630
42451SOL     OW29249  12.947   0.014  12.990
42451SOL    HW129250  12.936  14.812  13.022
42451SOL    HW229251  13.029   0.012  12.941
42452SOL     OW29252   4.570   3.737   4.112
42452SOL    HW129253   4.634   3.703   4.174
42452SOL    HW229254   4.486   3.702   4.142
42453SOL     OW29255  11.751  10.208  11.276
42453SOL    HW129256  11.730  10.196  11.183
42453SOL    HW229257  11.836  10.166  11.287
42454SOL     OW29258   5.502   5.476   4.338
42454SOL    HW129259   5.469   5.477   4.248
42454SOL    HW229260   5.458   5.402   4.379
42455SOL     OW29261  11.818   1.930  10.007
42455SOL    HW129262  11.789   1.839  10.010
42455SOL    HW229263  11.838   1.945   9.914
42456SOL     OW29264  10.051   0.750  12.848
42456SOL    HW129265   9.993   0.690  12.802
42456SOL    HW229266  10.026   0.837  12.815
42457SOL     OW29267   8.229   0.388  10.657
42457SOL    HW129268   8.285   0.433  10.593
42457SOL    HW229269   8.285   0.319  10.692
42458SOL     OW29270  11.178  14.482  13.164
42458SOL    HW129271  11.248  14.534  13.204
42458SOL    HW229272  11.164  14.524  13.079
42459SOL     OW29273   4.169  14.875  11.555
42459SOL    HW129274   4.095   0.042  11.582
42459SOL    HW229275   4.159  14.794  11.606
42460SOL     OW29276  11.204   6.440  10.286
42460SOL    HW129277  11.294   6.446  10.318
42460SOL    HW229278  11.161   6.379  10.346
42461SOL     OW29279   5.796  11.929   3.636
42461SOL    HW129280   5.713  11.916   3.589
42461SOL    HW229281   5.855  11.966   3.570
42462SOL     OW29282   8.614  14.181   4.774
42462SOL    HW129283   8.646  14.112   4.832
42462SOL    HW229284   8.576  14.246   4.833
42463SOL     OW29285   5.615   0.580  11.184
42463SOL    HW129286   5.579   0.669  11.175
42463SOL    HW229287   5.542   0.522  11.163
42464SOL     OW29288  11.716   2.805  11.885
42464SOL    HW129289  11.801   2.845  11.901
42464SOL    HW229290  11.736   2.726  11.834
42465SOL     OW29291   9.216   5.023  10.657
42465SOL    HW129292   9.311   5.025  10.665
42465SOL    HW229293   9.189   4.946  10.707
42466SOL     OW29294   5.864   0.287  11.436
42466SOL    HW129295   5.905   0.373  11.430
42466SOL    HW229296   5.785   0.294  11.382
42467SOL     OW29297  10.393   7.683   3.280
42467SOL    HW129298  10.469   7.645   3.323
42467SOL    HW229299  10.322   7.674   3.343
42468SOL     OW29300  13.030  14.115   3.533
42468SOL    HW129301  13.004  14.120   3.442
42468SOL    HW229302  13.113  14.068   3.532
42469SOL     OW29303  10.643  12.454  10.504
42469SOL    HW129304  10.737  12.462  10.488
42469SOL    HW229305  10.635  12.378  10.561
42470SOL     OW29306   0.248   0.274  10.838
42470SOL    HW129307   0.190   0.331  10.888
42470SOL    HW229308   0.308   0.334  10.793
42471SOL     OW29309   9.436   4.447   0.397
42471SOL    HW129310   9.371   4.379   0.410
42471SOL    HW229311   9.393   4.512   0.341
42472SOL     OW29312   8.434   3.567   3.914
42472SOL    HW129313   8.475   3.560   4.000
42472SOL    HW229314   8.348   3.526   3.925
42473SOL     OW29315   4.031   1.179   6.868
42473SOL    HW129316   4.061   1.153   6.781
42473SOL    HW229317   4.085   1.255   6.891
42474SOL     OW29318  10.364   7.893   2.035
42474SOL    HW129319  10.330   7.959   2.095
42474SOL    HW229320  10.396   7.823   2.092
42475SOL     OW29321  13.344   2.828   6.784
42475SOL    HW129322  13.279   2.883   6.740
42475SOL    HW229323  13.314   2.738   6.769
42476SOL     OW29324  11.820   5.993   4.819
42476SOL    HW129325  11.900   6.030   4.781
42476SOL    HW229326  11.777   6.068   4.860
42477SOL     OW29327   6.113   3.061   2.573
42477SOL    HW129328   6.023   3.038   2.549
42477SOL    HW229329   6.145   2.985   2.622
42478SOL     OW29330   9.695   3.875   4.563
42478SOL    HW129331   9.608   3.913   4.577
42478SOL    HW229332   9.679   3.797   4.510
42479SOL     OW29333   3.668   4.075   1.606
42479SOL    HW129334   3.678   3.983   1.629
42479SOL    HW229335   3.580   4.098   1.634
42480SOL     OW29336   4.226  12.778   0.594
42480SOL    HW129337   4.133  12.758   0.580
42480SOL    HW229338   4.233  12.872   0.580
42481SOL     OW29339   6.238  13.707   8.723
42481SOL    HW129340   6.316  13.762   8.730
42481SOL    HW229341   6.208  13.717   8.633
42482SOL     OW29342   4.679   8.982   6.640
42482SOL    HW129343   4.657   9.005   6.730
42482SOL    HW229344   4.771   9.007   6.630
42483SOL     OW29345   8.872   4.820   1.508
42483SOL    HW129346   8.803   4.863   1.558
42483SOL    HW229347   8.849   4.727   1.511
42484SOL     OW29348  14.549   7.761  14.257
42484SOL    HW129349  14.531   7.738  14.348
42484SOL    HW229350  14.626   7.708  14.234
42485SOL     OW29351   2.857   3.346  13.676
42485SOL    HW129352   2.949   3.369  13.686
42485SOL    HW229353   2.847   3.266  13.727
42486SOL     OW29354  12.240  14.178   3.071
42486SOL    HW129355  12.303  14.211   3.135
42486SOL    HW229356  12.210  14.256   3.024
42487SOL     OW29357  12.136   8.113  13.687
42487SOL    HW129358  12.117   8.085  13.777
42487SOL    HW229359  12.178   8.037  13.647
42488SOL     OW29360   6.348  13.121   5.427
42488SOL    HW129361   6.346  13.027   5.449
42488SOL    HW229362   6.425  13.155   5.473
42489SOL     OW29363  14.636  10.491   3.025
42489SOL    HW129364  14.631  10.399   3.053
42489SOL    HW229365  14.642  10.540   3.107
42490SOL     OW29366   0.654   1.832   7.706
42490SOL    HW129367   0.628   1.845   7.614
42490SOL    HW229368   0.613   1.905   7.752
42491SOL     OW29369  11.599  14.028  14.443
42491SOL    HW129370  11.575  13.936  14.453
42491SOL    HW229371  11.681  14.038  14.491
42492SOL     OW29372  14.772  10.005   1.102
42492SOL    HW129373  14.733   9.985   1.017
42492SOL    HW229374  14.813   9.923   1.129
42493SOL     OW29375   8.222  11.972   0.763
42493SOL    HW129376   8.296  11.916   0.785
42493SOL    HW229377   8.182  11.930   0.687
42494SOL     OW29378  13.688  13.229  10.008
42494SOL    HW129379  13.595  13.247   9.992
42494SOL    HW229380  13.696  13.134   9.998
42495SOL     OW29381  14.309   5.529   1.747
42495SOL    HW129382  14.213   5.527   1.752
42495SOL    HW229383  14.337   5.501   1.834
42496SOL     OW29384   9.938   0.069   6.437
42496SOL    HW129385   9.942   0.030   6.350
42496SOL    HW229386   9.941   0.163   6.421
42497SOL     OW29387   4.359   8.937   4.790
42497SOL    HW129388   4.417   8.990   4.844
42497SOL    HW229389   4.306   8.888   4.852
42498SOL     OW29390  12.883   9.378   0.663
42498SOL    HW129391  12.864   9.471   0.648
42498SOL    HW229392  12.817   9.349   0.726
42499SOL     OW29393  14.874   7.252   7.065
42499SOL    HW129394   0.022   7.166   7.045
42499SOL    HW229395  14.847   7.287   6.980
42500SOL     OW29396   7.846  10.344  12.238
42500SOL    HW129397   7.768  10.388  12.270
42500SOL    HW229398   7.917  10.377  12.293
42501SOL     OW29399  12.413  12.046   5.200
42501SOL    HW129400  12.503  12.075   5.183
42501SOL    HW229401  12.383  12.101   5.272
42502SOL     OW29402   7.760  14.475   4.307
42502SOL    HW129403   7.812  14.449   4.231
42502SOL    HW229404   7.821  14.520   4.365
42503SOL     OW29405   6.365   1.172   1.979
42503SOL    HW129406   6.336   1.163   1.888
42503SOL    HW229407   6.410   1.257   1.981
42504SOL     OW29408   1.898   8.628  12.749
42504SOL    HW129409   1.964   8.606  12.682
42504SOL    HW229410   1.924   8.577  12.825
42505SOL     OW29411   0.570   8.639   0.436
42505SOL    HW129412   0.485   8.673   0.409
42505SOL    HW229413   0.550   8.577   0.506
42506SOL     OW29414   1.067  14.880   4.606
42506SOL    HW129415   1.035  14.810   4.549
42506SOL    HW229416   1.145  14.842   4.648
42507SOL     OW29417   1.379   1.342   3.023
42507SOL    HW129418   1.465   1.343   3.064
42507SOL    HW229419   1.341   1.427   3.045
42508SOL     OW29420  10.620  11.949   7.528
42508SOL    HW129421  10.537  11.908   7.550
42508SOL    HW229422  10.683  11.910   7.588
42509SOL     OW29423   8.618   7.989   7.889
42509SOL    HW129424   8.574   7.942   7.960
42509SOL    HW229425   8.643   7.920   7.828
42510SOL     OW29426   5.327   3.914   3.160
42510SOL    HW129427   5.316   3.841   3.221
42510SOL    HW229428   5.283   3.987   3.203
42511SOL     OW29429   4.133   8.924   6.024
42511SOL    HW129430   4.095   8.919   6.112
42511SOL    HW229431   4.186   9.004   6.025
42512SOL     OW29432   8.588   9.695   5.026
42512SOL    HW129433   8.619   9.762   4.964
42512SOL    HW229434   8.509   9.660   4.985
42513SOL     OW29435   8.964  11.355   9.913
42513SOL    HW129436   8.947  11.261   9.907
42513SOL    HW229437   9.016  11.365   9.993
42514SOL     OW29438   5.041   1.766   9.371
42514SOL    HW129439   5.017   1.793   9.283
42514SOL    HW229440   4.978   1.698   9.394
42515SOL     OW29441   5.985  13.134   9.642
42515SOL    HW129442   5.905  13.088   9.668
42515SOL    HW229443   6.048  13.065   9.623
42516SOL     OW29444   8.827   7.561   6.614
42516SOL    HW129445   8.733   7.561   6.627
42516SOL    HW229446   8.864   7.574   6.701
42517SOL     OW29447  14.797  10.400  12.676
42517SOL    HW129448  14.811  10.365  12.764
42517SOL    HW229449  14.728  10.466  12.688
42518SOL     OW29450   3.399  12.796   3.713
42518SOL    HW129451   3.445  12.765   3.791
42518SOL    HW229452   3.331  12.854   3.746
42519SOL     OW29453   0.357   3.109  12.736
42519SOL    HW129454   0.274   3.110  12.782
42519SOL    HW229455   0.334   3.123  12.644
42520SOL     OW29456   0.593   6.532  10.801
42520SOL    HW129457   0.571   6.623  10.784
42520SOL    HW229458   0.688   6.527  10.788
42521SOL     OW29459  10.427   1.600   4.501
42521SOL    HW129460  10.348   1.629   4.457
42521SOL    HW229461  10.439   1.662   4.573
42522SOL     OW29462   8.691   1.345  11.975
42522SOL    HW129463   8.768   1.370  11.924
42522SOL    HW229464   8.679   1.417  12.037
42523SOL     OW29465  11.166   8.552   2.096
42523SOL    HW129466  11.131   8.602   2.170
42523SOL    HW229467  11.245   8.511   2.130
42524SOL     OW29468  11.312   6.479   6.737
42524SOL    HW129469  11.228   6.522   6.750
42524SOL    HW229470  11.377   6.546   6.758
42525SOL     OW29471   0.681   9.939   5.639
42525SOL    HW129472   0.673   9.847   5.615
42525SOL    HW229473   0.637   9.986   5.568
42526SOL     OW29474   9.974  14.704   5.769
42526SOL    HW129475   9.941  14.788   5.737
42526SOL    HW229476  10.069  14.712   5.765
42527SOL     OW29477  13.464   3.132  12.167
42527SOL    HW129478  13.421   3.166  12.088
42527SOL    HW229479  13.392   3.094  12.218
42528SOL     OW29480   2.174   7.641   8.470
42528SOL    HW129481   2.166   7.572   8.405
42528SOL    HW229482   2.179   7.595   8.554
42529SOL     OW29483   3.861   1.860   8.883
42529SOL    HW129484   3.898   1.777   8.913
42529SOL    HW229485   3.835   1.905   8.964
42530SOL     OW29486   5.386   2.199  10.272
42530SOL    HW129487   5.461   2.139  10.269
42530SOL    HW229488   5.311   2.143  10.251
42531SOL     OW29489  13.221   1.382  12.498
42531SOL    HW129490  13.190   1.378  12.408
42531SOL    HW229491  13.144   1.361  12.551
42532SOL     OW29492  11.410   8.706   0.839
42532SOL    HW129493  11.368   8.621   0.821
42532SOL    HW229494  11.485   8.684   0.894
42533SOL     OW29495   5.371   7.042   0.570
42533SOL    HW129496   5.457   7.003   0.583
42533SOL    HW229497   5.319   6.972   0.528
42534SOL     OW29498   7.464   0.993   5.085
42534SOL    HW129499   7.391   0.936   5.105
42534SOL    HW229500   7.464   1.000   4.989
42535SOL     OW29501  11.852   1.098   8.210
42535SOL    HW129502  11.757   1.090   8.223
42535SOL    HW229503  11.890   1.040   8.276
42536SOL     OW29504   7.253   6.880  13.493
42536SOL    HW129505   7.218   6.800  13.531
42536SOL    HW229506   7.198   6.950  13.529
42537SOL     OW29507  13.735   3.626  14.534
42537SOL    HW129508  13.808   3.594  14.480
42537SOL    HW229509  13.732   3.566  14.608
42538SOL     OW29510   1.075  13.688  12.050
42538SOL    HW129511   1.046  13.609  12.004
42538SOL    HW229512   1.003  13.750  12.038
42539SOL     OW29513   6.936   1.812   7.826
42539SOL    HW129514   6.852   1.854   7.844
42539SOL    HW229515   6.975   1.864   7.755
42540SOL     OW29516   1.102   9.660   7.970
42540SOL    HW129517   1.052   9.620   8.041
42540SOL    HW229518   1.191   9.669   8.005
42541SOL     OW29519   3.512   6.768  12.964
42541SOL    HW129520   3.549   6.788  12.878
42541SOL    HW229521   3.519   6.850  13.013
42542SOL     OW29522   0.566  14.455   7.270
42542SOL    HW129523   0.501  14.419   7.331
42542SOL    HW229524   0.649  14.449   7.317
42543SOL     OW29525   1.891   9.407  10.120
42543SOL    HW129526   1.840   9.421  10.040
42543SOL    HW229527   1.826   9.408  10.190
42544SOL     OW29528   1.290  14.856   2.225
42544SOL    HW129529   1.305   0.063   2.230
42544SOL    HW229530   1.358  14.818   2.281
42545SOL     OW29531  12.021  13.782  14.014
42545SOL    HW129532  11.950  13.730  13.977
42545SOL    HW229533  12.024  13.757  14.106
42546SOL     OW29534   5.659  12.248   9.258
42546SOL    HW129535   5.618  12.292   9.183
42546SOL    HW229536   5.739  12.210   9.222
42547SOL     OW29537   7.732   3.375   1.657
42547SOL    HW129538   7.681   3.333   1.588
42547SOL    HW229539   7.672   3.440   1.694
42548SOL     OW29540   3.648   8.734   6.272
42548SOL    HW129541   3.655   8.640   6.291
42548SOL    HW229542   3.726   8.754   6.220
42549SOL     OW29543  11.881   1.383   8.139
42549SOL    HW129544  11.786   1.394   8.126
42549SOL    HW229545  11.891   1.294   8.170
42550SOL     OW29546   3.557   4.556  13.630
42550SOL    HW129547   3.520   4.626  13.683
42550SOL    HW229548   3.648   4.582  13.615
42551SOL     OW29549  10.904   1.774  12.007
42551SOL    HW129550  10.894   1.704  11.943
42551SOL    HW229551  10.928   1.730  12.088
42552SOL     OW29552  14.192   8.288   1.597
42552SOL    HW129553  14.263   8.315   1.655
42552SOL    HW229554  14.113   8.305   1.648
42553SOL     OW29555   3.007   8.356  10.673
42553SOL    HW129556   3.040   8.283  10.725
42553SOL    HW229557   3.012   8.325  10.582
42554SOL     OW29558  11.873   4.022  14.250
42554SOL    HW129559  11.861   4.011  14.156
42554SOL    HW229560  11.785   4.039  14.284
42555SOL     OW29561   1.040   6.904   6.615
42555SOL    HW129562   1.010   6.838   6.552
42555SOL    HW229563   1.131   6.920   6.590
42556SOL     OW29564  14.371   8.392   2.328
42556SOL    HW129565  14.414   8.312   2.297
42556SOL    HW229566  14.428   8.463   2.299
42557SOL     OW29567   4.218  10.034  13.823
42557SOL    HW129568   4.233  10.005  13.913
42557SOL    HW229569   4.125  10.018  13.808
42558SOL     OW29570   1.751  12.053  11.580
42558SOL    HW129571   1.662  12.089  11.579
42558SOL    HW229572   1.805  12.122  11.544
42559SOL     OW29573  14.234   6.884   4.076
42559SOL    HW129574  14.235   6.794   4.109
42559SOL    HW229575  14.147   6.917   4.098
42560SOL     OW29576  12.828   5.166  13.619
42560SOL    HW129577  12.746   5.116  13.620
42560SOL    HW229578  12.811   5.240  13.678
42561SOL     OW29579  11.525   8.572  12.707
42561SOL    HW129580  11.444   8.572  12.759
42561SOL    HW229581  11.499   8.534  12.623
42562SOL     OW29582   1.234   2.458  11.126
42562SOL    HW129583   1.327   2.481  11.125
42562SOL    HW229584   1.203   2.488  11.212
42563SOL     OW29585   7.131   1.716   8.210
42563SOL    HW129586   7.060   1.734   8.149
42563SOL    HW229587   7.175   1.639   8.174
42564SOL     OW29588  10.198   9.704   5.869
42564SOL    HW129589  10.158   9.773   5.816
42564SOL    HW229590  10.194   9.626   5.814
42565SOL     OW29591   7.585   3.199   9.210
42565SOL    HW129592   7.502   3.181   9.255
42565SOL    HW229593   7.589   3.295   9.205
42566SOL     OW29594   5.403   0.334   8.757
42566SOL    HW129595   5.332   0.277   8.726
42566SOL    HW229596   5.393   0.414   8.706
42567SOL     OW29597  10.464  11.613  10.898
42567SOL    HW129598  10.422  11.550  10.956
42567SOL    HW229599  10.558  11.598  10.910
42568SOL     OW29600   9.300   4.409  10.269
42568SOL    HW129601   9.290   4.357  10.188
42568SOL    HW229602   9.277   4.498  10.243
42569SOL     OW29603   3.298  12.174   5.139
42569SOL    HW129604   3.373  12.127   5.175
42569SOL    HW229605   3.244  12.196   5.215
42570SOL     OW29606  14.834   0.750   9.752
42570SOL    HW129607   0.014   0.816   9.765
42570SOL    HW229608  14.861   0.676   9.806
42571SOL     OW29609   2.334  10.123   2.943
42571SOL    HW129610   2.241  10.128   2.921
42571SOL    HW229611   2.354  10.208   2.983
42572SOL     OW29612   9.074  12.786   8.519
42572SOL    HW129613   9.032  12.872   8.519
42572SOL    HW229614   9.021  12.733   8.459
42573SOL     OW29615  13.351  12.327  10.264
42573SOL    HW129616  13.380  12.291  10.347
42573SOL    HW229617  13.427  12.375  10.230
42574SOL     OW29618  11.854  14.744  12.635
42574SOL    HW129619  11.826  14.700  12.715
42574SOL    HW229620  11.776  14.789  12.604
42575SOL     OW29621   6.463   7.300  13.196
42575SOL    HW129622   6.462   7.354  13.117
42575SOL    HW229623   6.501   7.217  13.168
42576SOL     OW29624   8.968   1.425  13.810
42576SOL    HW129625   8.960   1.457  13.720
42576SOL    HW229626   9.009   1.498  13.857
42577SOL     OW29627  13.902   0.004   4.438
42577SOL    HW129628  13.855  14.839   4.373
42577SOL    HW229629  13.833   0.042   4.493
42578SOL     OW29630   9.725  13.451  12.225
42578SOL    HW129631   9.684  13.537  12.223
42578SOL    HW229632   9.740  13.430  12.133
42579SOL     OW29633   6.359  10.236   7.547
42579SOL    HW129634   6.330  10.229   7.638
42579SOL    HW229635   6.308  10.168   7.501
42580SOL     OW29636   2.553  12.996   4.958
42580SOL    HW129637   2.630  12.941   4.969
42580SOL    HW229638   2.568  13.070   5.016
42581SOL     OW29639  12.852   8.814   3.186
42581SOL    HW129640  12.778   8.817   3.126
42581SOL    HW229641  12.825   8.869   3.260
42582SOL     OW29642   8.684  12.938   2.679
42582SOL    HW129643   8.676  12.891   2.596
42582SOL    HW229644   8.655  12.874   2.744
42583SOL     OW29645   2.992  11.415   5.000
42583SOL    HW129646   2.984  11.463   5.083
42583SOL    HW229647   3.039  11.475   4.942
42584SOL     OW29648   4.486   0.140   0.842
42584SOL    HW129649   4.556   0.075   0.848
42584SOL    HW229650   4.405   0.088   0.845
42585SOL     OW29651   9.802   4.731   0.787
42585SOL    HW129652   9.773   4.686   0.707
42585SOL    HW229653   9.746   4.694   0.856
42586SOL     OW29654   0.193   5.070  10.969
42586SOL    HW129655   0.183   5.161  10.943
42586SOL    HW229656   0.285   5.063  10.996
42587SOL     OW29657   3.588  14.453  14.593
42587SOL    HW129658   3.640  14.530  14.572
42587SOL    HW229659   3.523  14.485  14.656
42588SOL     OW29660   1.095  10.835   7.894
42588SOL    HW129661   1.041  10.816   7.971
42588SOL    HW229662   1.114  10.929   7.901
42589SOL     OW29663   7.754  11.268  10.462
42589SOL    HW129664   7.703  11.259  10.381
42589SOL    HW229665   7.794  11.355  10.455
42590SOL     OW29666  12.237  12.835   9.433
42590SOL    HW129667  12.202  12.834   9.344
42590SOL    HW229668  12.160  12.830   9.489
42591SOL     OW29669   7.075   0.891  14.224
42591SOL    HW129670   7.017   0.827  14.182
42591SOL    HW229671   7.163   0.855  14.211
42592SOL     OW29672   4.127   6.966  13.009
42592SOL    HW129673   4.040   6.981  13.044
42592SOL    HW229674   4.182   6.954  13.086
42593SOL     OW29675   1.376   3.457   4.905
42593SOL    HW129676   1.447   3.393   4.909
42593SOL    HW229677   1.298   3.407   4.927
42594SOL     OW29678   7.990   9.685   0.409
42594SOL    HW129679   8.075   9.711   0.374
42594SOL    HW229680   7.966   9.756   0.468
42595SOL     OW29681   3.596  14.196  12.103
42595SOL    HW129682   3.659  14.198  12.175
42595SOL    HW229683   3.524  14.250  12.133
42596SOL     OW29684   7.556   8.067   6.603
42596SOL    HW129685   7.605   8.081   6.684
42596SOL    HW229686   7.479   8.123   6.611
42597SOL     OW29687  10.868  10.342   3.220
42597SOL    HW129688  10.898  10.307   3.303
42597SOL    HW229689  10.817  10.420   3.243
42598SOL     OW29690   6.125   3.077   9.750
42598SOL    HW129691   6.082   3.011   9.695
42598SOL    HW229692   6.212   3.042   9.766
42599SOL     OW29693  11.435   4.166   2.537
42599SOL    HW129694  11.432   4.082   2.491
42599SOL    HW229695  11.415   4.231   2.471
42600SOL     OW29696   6.619  12.062   3.889
42600SOL    HW129697   6.610  12.001   3.815
42600SOL    HW229698   6.704  12.039   3.928
42601SOL     OW29699  12.679   7.352  12.951
42601SOL    HW129700  12.629   7.426  12.982
42601SOL    HW229701  12.763   7.358  12.997
42602SOL     OW29702   8.075  11.875   4.874
42602SOL    HW129703   8.008  11.829   4.924
42602SOL    HW229704   8.045  11.871   4.783
42603SOL     OW29705   0.626   6.312  10.468
42603SOL    HW129706   0.567   6.272  10.531
42603SOL    HW229707   0.625   6.405  10.490
42604SOL     OW29708   6.494   1.366   6.423
42604SOL    HW129709   6.440   1.343   6.499
42604SOL    HW229710   6.563   1.300   6.423
42605SOL     OW29711  11.807   1.492   0.345
42605SOL    HW129712  11.861   1.571   0.347
42605SOL    HW229713  11.794   1.469   0.437
42606SOL     OW29714   1.948  11.589   0.926
42606SOL    HW129715   1.890  11.533   0.876
42606SOL    HW229716   2.018  11.612   0.865
42607SOL     OW29717   8.684   2.348   0.963
42607SOL    HW129718   8.702   2.317   1.052
42607SOL    HW229719   8.645   2.434   0.975
42608SOL     OW29720  11.608   2.269  10.410
42608SOL    HW129721  11.647   2.356  10.418
42608SOL    HW229722  11.588   2.260  10.317
42609SOL     OW29723   5.562   8.900   0.288
42609SOL    HW129724   5.474   8.866   0.304
42609SOL    HW229725   5.550   8.994   0.277
42610SOL     OW29726   0.961  12.127   0.916
42610SOL    HW129727   0.880  12.141   0.964
42610SOL    HW229728   1.028  12.115   0.984
42611SOL     OW29729   9.252  11.621  14.339
42611SOL    HW129730   9.240  11.545  14.397
42611SOL    HW229731   9.215  11.593  14.255
42612SOL     OW29732  12.561  10.970   7.595
42612SOL    HW129733  12.623  10.897   7.587
42612SOL    HW229734  12.614  11.048   7.577
42613SOL     OW29735   1.103  10.076  10.443
42613SOL    HW129736   1.009  10.087  10.428
42613SOL    HW229737   1.120  10.122  10.525
42614SOL     OW29738   3.981   0.303   2.943
42614SOL    HW129739   3.897   0.327   2.904
42614SOL    HW229740   3.964   0.219   2.986
42615SOL     OW29741   2.817   7.828   6.039
42615SOL    HW129742   2.824   7.744   5.993
42615SOL    HW229743   2.765   7.807   6.117
42616SOL     OW29744   7.463   3.445   7.641
42616SOL    HW129745   7.399   3.377   7.619
42616SOL    HW229746   7.547   3.399   7.644
42617SOL     OW29747  13.666  13.385   7.361
42617SOL    HW129748  13.674  13.443   7.436
42617SOL    HW229749  13.598  13.322   7.386
42618SOL     OW29750   4.912   8.777   5.110
42618SOL    HW129751   4.888   8.687   5.132
42618SOL    HW229752   4.841   8.807   5.053
42619SOL     OW29753  14.827  10.218   2.602
42619SOL    HW129754  14.741  10.220   2.560
42619SOL    HW229755  14.838  10.305   2.640
42620SOL     OW29756   3.102   9.806   6.800
42620SOL    HW129757   3.041   9.733   6.800
42620SOL    HW229758   3.104   9.837   6.891
42621SOL     OW29759   7.474   4.043  13.009
42621SOL    HW129760   7.433   4.129  13.007
42621SOL    HW229761   7.404   3.982  12.987
42622SOL     OW29762   0.200   3.467  11.231
42622SOL    HW129763   0.286   3.476  11.189
42622SOL    HW229764   0.206   3.522  11.310
42623SOL     OW29765   8.157  10.902   9.045
42623SOL    HW129766   8.175  10.941   8.960
42623SOL    HW229767   8.213  10.825   9.049
42624SOL     OW29768   2.711   4.066  10.446
42624SOL    HW129769   2.620   4.038  10.440
42624SOL    HW229770   2.727   4.114  10.365
42625SOL     OW29771   4.111   2.812   2.943
42625SOL    HW129772   4.108   2.902   2.973
42625SOL    HW229773   4.034   2.803   2.887
42626SOL     OW29774   0.250   2.680  11.719
42626SOL    HW129775   0.197   2.670  11.798
42626SOL    HW229776   0.334   2.713  11.751
42627SOL     OW29777   8.921   4.309   3.304
42627SOL    HW129778   8.970   4.392   3.309
42627SOL    HW229779   8.891   4.304   3.213
42628SOL     OW29780  14.886  11.430  14.881
42628SOL    HW129781   0.094  11.422  14.880
42628SOL    HW229782  14.858  11.390  14.799
42629SOL     OW29783   9.702   9.215  12.023
42629SOL    HW129784   9.612   9.192  12.048
42629SOL    HW229785   9.694   9.248  11.933
42630SOL     OW29786  10.904   7.214   2.763
42630SOL    HW129787  10.898   7.226   2.668
42630SOL    HW229788  10.833   7.153   2.784
42631SOL     OW29789   3.268  13.151  13.281
42631SOL    HW129790   3.189  13.193  13.249
42631SOL    HW229791   3.272  13.068  13.233
42632SOL     OW29792   0.925  11.792   9.130
42632SOL    HW129793   0.875  11.724   9.176
42632SOL    HW229794   0.858  11.847   9.089
42633SOL     OW29795   5.340   4.715   4.295
42633SOL    HW129796   5.256   4.698   4.339
42633SOL    HW229797   5.405   4.702   4.364
42634SOL     OW29798   4.661   6.903   9.856
42634SOL    HW129799   4.667   6.895   9.951
42634SOL    HW229800   4.662   6.813   9.824
42635SOL     OW29801   4.798   7.372  10.375
42635SOL    HW129802   4.776   7.400  10.286
42635SOL    HW229803   4.885   7.408  10.391
42636SOL     OW29804   8.092   7.330  13.561
42636SOL    HW129805   8.086   7.239  13.590
42636SOL    HW229806   8.022   7.339  13.496
42637SOL     OW29807   8.864  14.446  14.304
42637SOL    HW129808   8.837  14.357  14.280
42637SOL    HW229809   8.913  14.478  14.229
42638SOL     OW29810   3.409   1.120  13.207
42638SOL    HW129811   3.351   1.046  13.190
42638SOL    HW229812   3.497   1.084  13.191
42639SOL     OW29813  14.014   0.410   7.827
42639SOL    HW129814  13.934   0.461   7.817
42639SOL    HW229815  14.066   0.432   7.749
42640SOL     OW29816  14.303   9.189   5.869
42640SOL    HW129817  14.316   9.219   5.779
42640SOL    HW229818  14.208   9.185   5.879
42641SOL     OW29819   7.450   4.183   6.199
42641SOL    HW129820   7.402   4.109   6.237
42641SOL    HW229821   7.490   4.148   6.120
42642SOL     OW29822  12.673   8.923   7.042
42642SOL    HW129823  12.705   8.947   6.954
42642SOL    HW229824  12.603   8.985   7.059
42643SOL     OW29825   9.180   9.486   1.349
42643SOL    HW129826   9.262   9.439   1.335
42643SOL    HW229827   9.189   9.567   1.299
42644SOL     OW29828   4.878   0.598  11.414
42644SOL    HW129829   4.794   0.601  11.369
42644SOL    HW229830   4.928   0.532  11.366
42645SOL     OW29831   6.524   6.154  13.261
42645SOL    HW129832   6.532   6.097  13.185
42645SOL    HW229833   6.442   6.201  13.248
42646SOL     OW29834   8.628  12.886  14.001
42646SOL    HW129835   8.601  12.810  14.054
42646SOL    HW229836   8.717  12.905  14.031
42647SOL     OW29837   2.419   6.363   1.968
42647SOL    HW129838   2.449   6.453   1.971
42647SOL    HW229839   2.392   6.350   1.878
42648SOL     OW29840   3.216   6.127  11.775
42648SOL    HW129841   3.222   6.079  11.858
42648SOL    HW229842   3.168   6.068  11.717
42649SOL     OW29843   4.479  10.698  11.040
42649SOL    HW129844   4.509  10.745  10.963
42649SOL    HW229845   4.559  10.676  11.088
42650SOL     OW29846   1.348   6.999   9.071
42650SOL    HW129847   1.370   6.940   9.000
42650SOL    HW229848   1.258   6.976   9.095
42651SOL     OW29849  10.744   2.443   0.551
42651SOL    HW129850  10.786   2.391   0.482
42651SOL    HW229851  10.798   2.522   0.558
42652SOL     OW29852  14.569  14.524  13.922
42652SOL    HW129853  14.583  14.478  13.840
42652SOL    HW229854  14.619  14.605  13.914
42653SOL     OW29855   8.594   5.818   7.457
42653SOL    HW129856   8.644   5.831   7.376
42653SOL    HW229857   8.520   5.762   7.431
42654SOL     OW29858   4.694   3.219   9.884
42654SOL    HW129859   4.603   3.200   9.864
42654SOL    HW229860   4.711   3.174   9.967
42655SOL     OW29861   9.226   5.859   5.222
42655SOL    HW129862   9.300   5.857   5.162
42655SOL    HW229863   9.197   5.950   5.223
42656SOL     OW29864   8.549  14.096  13.953
42656SOL    HW129865   8.585  14.008  13.941
42656SOL    HW229866   8.454  14.081  13.958
42657SOL     OW29867   6.293   0.827   9.934
42657SOL    HW129868   6.366   0.802   9.877
42657SOL    HW229869   6.241   0.886   9.880
42658SOL     OW29870  12.298   5.989   1.873
42658SOL    HW129871  12.364   5.954   1.813
42658SOL    HW229872  12.283   5.918   1.935
42659SOL     OW29873   9.298   4.787  14.520
42659SOL    HW129874   9.307   4.733  14.599
42659SOL    HW229875   9.383   4.830  14.510
42660SOL     OW29876  10.091   1.042   3.350
42660SOL    HW129877  10.027   1.020   3.283
42660SOL    HW229878  10.162   1.085   3.303
42661SOL     OW29879   8.205   1.404  12.145
42661SOL    HW129880   8.263   1.433  12.075
42661SOL    HW229881   8.120   1.440  12.122
42662SOL     OW29882   8.658  12.479   8.999
42662SOL    HW129883   8.635  12.457   9.089
42662SOL    HW229884   8.577  12.513   8.961
42663SOL     OW29885  14.393   6.492   3.037
42663SOL    HW129886  14.473   6.466   2.992
42663SOL    HW229887  14.422   6.547   3.110
42664SOL     OW29888  14.185  11.701   9.291
42664SOL    HW129889  14.199  11.628   9.351
42664SOL    HW229890  14.147  11.660   9.213
42665SOL     OW29891  13.029  11.564  14.313
42665SOL    HW129892  13.016  11.503  14.241
42665SOL    HW229893  13.108  11.533  14.358
42666SOL     OW29894  14.397  11.105   8.601
42666SOL    HW129895  14.376  11.134   8.690
42666SOL    HW229896  14.489  11.126   8.591
42667SOL     OW29897  10.971  11.178   2.072
42667SOL    HW129898  11.034  11.228   2.123
42667SOL    HW229899  10.940  11.110   2.131
42668SOL     OW29900  14.792   3.142  12.569
42668SOL    HW129901  14.700   3.166  12.554
42668SOL    HW229902  14.841   3.200  12.511
42669SOL     OW29903  11.232  12.039  10.058
42669SOL    HW129904  11.184  12.056   9.977
42669SOL    HW229905  11.172  11.988  10.112
42670SOL     OW29906   7.094  11.108  10.519
42670SOL    HW129907   7.053  11.049  10.455
42670SOL    HW229908   7.186  11.081  10.521
42671SOL     OW29909   5.040   5.517   6.355
42671SOL    HW129910   4.999   5.493   6.438
42671SOL    HW229911   5.096   5.442   6.334
42672SOL     OW29912  13.667   4.021  10.633
42672SOL    HW129913  13.729   3.961  10.593
42672SOL    HW229914  13.590   4.019  10.576
42673SOL     OW29915  10.826  12.156  10.410
42673SOL    HW129916  10.788  12.150  10.322
42673SOL    HW229917  10.753  12.136  10.469
42674SOL     OW29918  12.679   1.560   8.407
42674SOL    HW129919  12.698   1.491   8.343
42674SOL    HW229920  12.585   1.550   8.425
42675SOL     OW29921  12.684   7.224   8.019
42675SOL    HW129922  12.616   7.289   8.002
42675SOL    HW229923  12.661   7.149   7.964
42676SOL     OW29924   7.869  12.454  13.392
42676SOL    HW129925   7.914  12.391  13.448
42676SOL    HW229926   7.931  12.472  13.321
42677SOL     OW29927   0.903  13.457  13.225
42677SOL    HW129928   0.990  13.488  13.250
42677SOL    HW229929   0.846  13.531  13.245
42678SOL     OW29930   1.185   9.787   9.955
42678SOL    HW129931   1.211   9.741   9.875
42678SOL    HW229932   1.192   9.722  10.024
42679SOL     OW29933  12.530   6.955   3.644
42679SOL    HW129934  12.607   6.997   3.682
42679SOL    HW229935  12.554   6.863   3.636
42680SOL     OW29936   8.769   3.074  12.066
42680SOL    HW129937   8.826   3.015  12.018
42680SOL    HW229938   8.778   3.158  12.021
42681SOL     OW29939   7.620   9.952   2.387
42681SOL    HW129940   7.588  10.025   2.335
42681SOL    HW229941   7.580   9.874   2.349
42682SOL     OW29942   1.763   3.968  14.848
42682SOL    HW129943   1.839   3.925  14.809
42682SOL    HW229944   1.728   4.024  14.779
42683SOL     OW29945   5.146   8.807   3.066
42683SOL    HW129946   5.107   8.727   3.101
42683SOL    HW229947   5.223   8.778   3.019
42684SOL     OW29948   5.305  13.391  14.734
42684SOL    HW129949   5.349  13.348  14.807
42684SOL    HW229950   5.344  13.478  14.730
42685SOL     OW29951   7.784  14.777   3.939
42685SOL    HW129952   7.834  14.855   3.963
42685SOL    HW229953   7.721  14.808   3.874
42686SOL     OW29954   8.333   4.372  14.118
42686SOL    HW129955   8.338   4.378  14.213
42686SOL    HW229956   8.411   4.416  14.086
42687SOL     OW29957  13.951   9.591   8.492
42687SOL    HW129958  13.972   9.500   8.473
42687SOL    HW229959  13.943   9.633   8.407
42688SOL     OW29960   1.952  14.725  12.703
42688SOL    HW129961   1.905  14.753  12.782
42688SOL    HW229962   2.036  14.692  12.736
42689SOL     OW29963  14.568  13.166   3.272
42689SOL    HW129964  14.652  13.204   3.296
42689SOL    HW229965  14.539  13.120   3.351
42690SOL     OW29966   8.312   7.608   6.812
42690SOL    HW129967   8.312   7.697   6.846
42690SOL    HW229968   8.403   7.592   6.787
42691SOL     OW29969  11.694  12.007  13.824
42691SOL    HW129970  11.607  11.972  13.841
42691SOL    HW229971  11.739  12.005  13.908
42692SOL     OW29972   9.586   1.225   4.219
42692SOL    HW129973   9.520   1.184   4.275
42692SOL    HW229974   9.670   1.195   4.254
42693SOL     OW29975   9.935   9.161   0.530
42693SOL    HW129976   9.850   9.118   0.525
42693SOL    HW229977   9.974   9.127   0.611
42694SOL     OW29978   3.412  14.312   0.299
42694SOL    HW129979   3.389  14.223   0.324
42694SOL    HW229980   3.341  14.339   0.241
42695SOL     OW29981   6.327   5.005   8.743
42695SOL    HW129982   6.357   4.979   8.830
42695SOL    HW229983   6.235   4.977   8.741
42696SOL     OW29984  11.439   8.382  11.739
42696SOL    HW129985  11.484   8.305  11.773
42696SOL    HW229986  11.354   8.381  11.784
42697SOL     OW29987   1.074   9.522   8.421
42697SOL    HW129988   1.111   9.513   8.509
42697SOL    HW229989   1.076   9.616   8.404
42698SOL     OW29990   9.463  13.379   1.186
42698SOL    HW129991   9.450  13.385   1.091
42698SOL    HW229992   9.516  13.301   1.199
42699SOL     OW29993   9.119  13.088  10.342
42699SOL    HW129994   9.178  13.031  10.391
42699SOL    HW229995   9.177  13.147  10.294
42700SOL     OW29996  11.054   2.675   9.671
42700SOL    HW129997  10.995   2.749   9.665
42700SOL    HW229998  11.017   2.619   9.739
42701SOL     OW29999   8.866  10.174   1.777
42701SOL    HW130000   8.876  10.141   1.688
42701SOL    HW230001   8.955  10.189   1.808
42702SOL     OW30002  10.576   4.250   4.598
42702SOL    HW130003  10.508   4.317   4.592
42702SOL    HW230004  10.604   4.236   4.508
42703SOL     OW30005  14.033  13.861  11.174
42703SOL    HW130006  13.966  13.826  11.115
42703SOL    HW230007  14.003  13.949  11.196
42704SOL     OW30008  14.035   5.435  14.475
42704SOL    HW130009  13.964   5.394  14.525
42704SOL    HW230010  14.109   5.438  14.537
42705SOL     OW30011  10.916  13.868   5.653
42705SOL    HW130012  10.922  13.818   5.573
42705SOL    HW230013  10.862  13.816   5.712
42706SOL     OW30014   7.352   0.886   8.693
42706SOL    HW130015   7.326   0.939   8.617
42706SOL    HW230016   7.271   0.841   8.719
42707SOL     OW30017   6.048   2.084  14.600
42707SOL    HW130018   6.037   2.134  14.518
42707SOL    HW230019   5.980   2.118  14.658
42708SOL     OW30020   8.987  11.499  12.583
42708SOL    HW130021   9.044  11.574  12.570
42708SOL    HW230022   8.898  11.533  12.574
42709SOL     OW30023   5.055   7.964  11.505
42709SOL    HW130024   5.140   7.989  11.469
42709SOL    HW230025   4.995   7.968  11.430
42710SOL     OW30026  10.018   6.813  14.721
42710SOL    HW130027   9.937   6.835  14.769
42710SOL    HW230028  10.065   6.755  14.780
42711SOL     OW30029   3.006   3.865   2.768
42711SOL    HW130030   2.978   3.773   2.763
42711SOL    HW230031   2.928   3.915   2.744
42712SOL     OW30032  12.823   5.839   2.171
42712SOL    HW130033  12.783   5.859   2.087
42712SOL    HW230034  12.884   5.912   2.187
42713SOL     OW30035   5.418   5.276  11.253
42713SOL    HW130036   5.448   5.317  11.172
42713SOL    HW230037   5.343   5.328  11.279
42714SOL     OW30038   1.614   0.381  14.137
42714SOL    HW130039   1.644   0.458  14.186
42714SOL    HW230040   1.604   0.412  14.047
42715SOL     OW30041   4.293   3.145   2.387
42715SOL    HW130042   4.227   3.194   2.338
42715SOL    HW230043   4.242   3.091   2.448
42716SOL     OW30044  13.811  10.798   7.751
42716SOL    HW130045  13.839  10.806   7.842
42716SOL    HW230046  13.748  10.869   7.738
42717SOL     OW30047  11.111   1.984   4.501
42717SOL    HW130048  11.184   1.938   4.458
42717SOL    HW230049  11.153   2.055   4.550
42718SOL     OW30050   6.113   1.343   5.107
42718SOL    HW130051   6.153   1.424   5.074
42718SOL    HW230052   6.094   1.362   5.199
42719SOL     OW30053  12.315   2.180   7.112
42719SOL    HW130054  12.352   2.187   7.200
42719SOL    HW230055  12.379   2.224   7.055
42720SOL     OW30056  10.403   5.461  14.004
42720SOL    HW130057  10.361   5.376  14.018
42720SOL    HW230058  10.464   5.447  13.932
42721SOL     OW30059   1.687  14.407   9.093
42721SOL    HW130060   1.630  14.397   9.169
42721SOL    HW230061   1.775  14.405   9.129
42722SOL     OW30062   9.978   0.221   8.398
42722SOL    HW130063   9.941   0.138   8.369
42722SOL    HW230064   9.921   0.249   8.470
42723SOL     OW30065   7.292   9.116  11.114
42723SOL    HW130066   7.316   9.023  11.106
42723SOL    HW230067   7.198   9.118  11.101
42724SOL     OW30068  13.339  10.652   7.170
42724SOL    HW130069  13.298  10.657   7.257
42724SOL    HW230070  13.433  10.649   7.189
42725SOL     OW30071   7.611   9.971   6.239
42725SOL    HW130072   7.617   9.888   6.191
42725SOL    HW230073   7.587  10.036   6.173
42726SOL     OW30074   1.280   0.233  11.998
42726SOL    HW130075   1.308   0.169  12.064
42726SOL    HW230076   1.272   0.183  11.917
42727SOL     OW30077  14.294   9.313   2.370
42727SOL    HW130078  14.271   9.377   2.437
42727SOL    HW230079  14.301   9.364   2.290
42728SOL     OW30080  13.097   3.165   2.295
42728SOL    HW130081  13.176   3.130   2.254
42728SOL    HW230082  13.030   3.098   2.279
42729SOL     OW30083   7.327  13.356   2.400
42729SOL    HW130084   7.331  13.363   2.304
42729SOL    HW230085   7.388  13.424   2.430
42730SOL     OW30086   3.274  12.654  10.977
42730SOL    HW130087   3.180  12.669  10.969
42730SOL    HW230088   3.300  12.621  10.891
42731SOL     OW30089   8.236  10.826   3.664
42731SOL    HW130090   8.290  10.789   3.594
42731SOL    HW230091   8.171  10.758   3.683
42732SOL     OW30092  10.747   7.741   1.342
42732SOL    HW130093  10.676   7.773   1.286
42732SOL    HW230094  10.815   7.808   1.336
42733SOL     OW30095   5.253   0.859   5.111
42733SOL    HW130096   5.273   0.879   5.019
42733SOL    HW230097   5.251   0.944   5.155
42734SOL     OW30098   3.696  13.873   4.564
42734SOL    HW130099   3.611  13.841   4.533
42734SOL    HW230100   3.718  13.815   4.637
42735SOL     OW30101   4.861   8.098   5.491
42735SOL    HW130102   4.884   8.190   5.501
42735SOL    HW230103   4.911   8.068   5.415
42736SOL     OW30104  13.843  13.158   0.025
42736SOL    HW130105  13.890  13.087  14.869
42736SOL    HW230106  13.751  13.144  14.887
42737SOL     OW30107  10.051   8.119   3.943
42737SOL    HW130108  10.051   8.031   3.904
42737SOL    HW230109  10.141   8.150   3.929
42738SOL     OW30110   6.113  11.752  14.753
42738SOL    HW130111   6.106  11.839  14.713
42738SOL    HW230112   6.098  11.768  14.847
42739SOL     OW30113   4.716   2.287   0.267
42739SOL    HW130114   4.681   2.313   0.352
42739SOL    HW230115   4.807   2.265   0.284
42740SOL     OW30116   1.359  12.690  14.188
42740SOL    HW130117   1.449  12.657  14.197
42740SOL    HW230118   1.325  12.645  14.111
42741SOL     OW30119  12.178   3.819   9.049
42741SOL    HW130120  12.193   3.913   9.048
42741SOL    HW230121  12.214   3.788   8.965
42742SOL     OW30122  10.813   8.305   6.244
42742SOL    HW130123  10.723   8.290   6.214
42742SOL    HW230124  10.856   8.220   6.232
42743SOL     OW30125   0.792   7.103  11.238
42743SOL    HW130126   0.756   7.062  11.160
42743SOL    HW230127   0.868   7.152  11.206
42744SOL     OW30128   1.945   6.466   3.180
42744SOL    HW130129   1.961   6.434   3.091
42744SOL    HW230130   1.951   6.388   3.235
42745SOL     OW30131   9.440   5.579  11.543
42745SOL    HW130132   9.446   5.673  11.528
42745SOL    HW230133   9.452   5.569  11.637
42746SOL     OW30134   0.363   4.324  14.396
42746SOL    HW130135   0.454   4.296  14.386
42746SOL    HW230136   0.311   4.246  14.377
42747SOL     OW30137  14.086   4.417   7.433
42747SOL    HW130138  14.104   4.339   7.381
42747SOL    HW230139  13.995   4.409   7.460
42748SOL     OW30140   8.351  10.215   9.251
42748SOL    HW130141   8.280  10.152   9.247
42748SOL    HW230142   8.410  10.190   9.180
42749SOL     OW30143   7.266   2.531  10.217
42749SOL    HW130144   7.284   2.448  10.260
42749SOL    HW230145   7.273   2.513  10.124
42750SOL     OW30146  12.387   3.062   5.933
42750SOL    HW130147  12.367   2.996   5.867
42750SOL    HW230148  12.349   3.143   5.898
42751SOL     OW30149  10.632   0.636   5.741
42751SOL    HW130150  10.561   0.700   5.740
42751SOL    HW230151  10.592   0.556   5.707
42752SOL     OW30152   1.505   7.676  13.712
42752SOL    HW130153   1.498   7.758  13.760
42752SOL    HW230154   1.569   7.625  13.761
42753SOL     OW30155   2.794   9.323   6.715
42753SOL    HW130156   2.839   9.355   6.637
42753SOL    HW230157   2.778   9.230   6.697
42754SOL     OW30158  10.937   9.510   8.294
42754SOL    HW130159  11.006   9.564   8.334
42754SOL    HW230160  10.980   9.469   8.219
42755SOL     OW30161  13.437  13.127   2.404
42755SOL    HW130162  13.452  13.158   2.493
42755SOL    HW230163  13.412  13.035   2.415
42756SOL     OW30164  13.079   4.458   9.437
42756SOL    HW130165  13.014   4.395   9.407
42756SOL    HW230166  13.095   4.435   9.528
42757SOL     OW30167   3.343   3.226   5.396
42757SOL    HW130168   3.406   3.169   5.350
42757SOL    HW230169   3.282   3.253   5.329
42758SOL     OW30170   6.079   6.599  10.927
42758SOL    HW130171   6.011   6.633  10.869
42758SOL    HW230172   6.107   6.675  10.979
42759SOL     OW30173   2.842  13.519   0.341
42759SOL    HW130174   2.783  13.444   0.338
42759SOL    HW230175   2.786  13.592   0.369
42760SOL     OW30176  14.402   6.422   2.088
42760SOL    HW130177  14.409   6.326   2.088
42760SOL    HW230178  14.490   6.452   2.112
42761SOL     OW30179   2.049  13.804   6.252
42761SOL    HW130180   2.018  13.852   6.175
42761SOL    HW230181   2.119  13.859   6.287
42762SOL     OW30182   4.720  11.641   8.868
42762SOL    HW130183   4.751  11.732   8.862
42762SOL    HW230184   4.626  11.647   8.854
42763SOL     OW30185  10.651   2.348  11.554
42763SOL    HW130186  10.601   2.286  11.606
42763SOL    HW230187  10.741   2.313  11.554
42764SOL     OW30188   6.304   4.775   3.142
42764SOL    HW130189   6.355   4.816   3.211
42764SOL    HW230190   6.253   4.846   3.104
42765SOL     OW30191   0.028   4.280  14.799
42765SOL    HW130192  14.825   4.254  14.813
42765SOL    HW230193   0.078   4.229  14.863
42766SOL     OW30194   9.607   0.250  12.514
42766SOL    HW130195   9.543   0.179  12.522
42766SOL    HW230196   9.678   0.224  12.572
42767SOL     OW30197   9.138  12.175   8.242
42767SOL    HW130198   9.227  12.145   8.259
42767SOL    HW230199   9.106  12.117   8.172
42768SOL     OW30200  12.356   3.221   0.314
42768SOL    HW130201  12.307   3.162   0.371
42768SOL    HW230202  12.288   3.268   0.265
42769SOL     OW30203  11.559   6.922   9.348
42769SOL    HW130204  11.600   6.844   9.385
42769SOL    HW230205  11.509   6.889   9.273
42770SOL     OW30206   5.362   8.448   0.111
42770SOL    HW130207   5.401   8.464   0.197
42770SOL    HW230208   5.419   8.382   0.071
42771SOL     OW30209   3.748  10.336   6.041
42771SOL    HW130210   3.746  10.407   5.977
42771SOL    HW230211   3.657  10.309   6.050
42772SOL     OW30212   5.268  10.163   3.288
42772SOL    HW130213   5.352  10.117   3.296
42772SOL    HW230214   5.245  10.157   3.196
42773SOL     OW30215   1.516   6.735   1.393
42773SOL    HW130216   1.564   6.709   1.314
42773SOL    HW230217   1.458   6.661   1.411
42774SOL     OW30218  11.727   5.428  13.977
42774SOL    HW130219  11.721   5.468  14.064
42774SOL    HW230220  11.676   5.348  13.984
42775SOL     OW30221   6.815   8.041  10.853
42775SOL    HW130222   6.777   7.999  10.776
42775SOL    HW230223   6.866   8.114  10.818
42776SOL     OW30224   7.557   3.238  11.664
42776SOL    HW130225   7.578   3.270  11.577
42776SOL    HW230226   7.589   3.147  11.665
42777SOL     OW30227   2.853   5.991   8.848
42777SOL    HW130228   2.784   6.052   8.821
42777SOL    HW230229   2.816   5.904   8.834
42778SOL     OW30230   2.687   9.141   8.850
42778SOL    HW130231   2.619   9.132   8.917
42778SOL    HW230232   2.731   9.056   8.849
42779SOL     OW30233  13.675  11.928   9.694
42779SOL    HW130234  13.638  11.997   9.640
42779SOL    HW230235  13.768  11.950   9.702
42780SOL     OW30236   0.025  12.842   1.735
42780SOL    HW130237   0.086  12.801   1.674
42780SOL    HW230238  14.829  12.840   1.689
42781SOL     OW30239   7.757  13.244   1.423
42781SOL    HW130240   7.799  13.272   1.504
42781SOL    HW230241   7.666  13.226   1.448
42782SOL     OW30242  10.323   0.457   8.161
42782SOL    HW130243  10.292   0.404   8.086
42782SOL    HW230244  10.385   0.400   8.206
42783SOL     OW30245   0.535   0.922   1.782
42783SOL    HW130246   0.560   1.015   1.784
42783SOL    HW230247   0.592   0.884   1.715
42784SOL     OW30248  10.587   4.384  14.822
42784SOL    HW130249  10.619   4.461  14.870
42784SOL    HW230250  10.617   4.309  14.875
42785SOL     OW30251   3.532   4.330   5.026
42785SOL    HW130252   3.617   4.289   5.043
42785SOL    HW230253   3.524   4.330   4.931
42786SOL     OW30254   4.520   3.774  12.474
42786SOL    HW130255   4.480   3.783  12.388
42786SOL    HW230256   4.475   3.839  12.528
42787SOL     OW30257   0.846   0.429   3.944
42787SOL    HW130258   0.841   0.340   3.980
42787SOL    HW230259   0.807   0.422   3.857
42788SOL     OW30260   3.261  11.678  12.663
42788SOL    HW130261   3.276  11.630  12.581
42788SOL    HW230262   3.306  11.761  12.651
42789SOL     OW30263  11.064  13.669   6.685
42789SOL    HW130264  11.141  13.639   6.733
42789SOL    HW230265  11.000  13.690   6.753
42790SOL     OW30266   0.848   4.900  11.609
42790SOL    HW130267   0.937   4.936  11.611
42790SOL    HW230268   0.794   4.967  11.651
42791SOL     OW30269   4.332  11.270  11.406
42791SOL    HW130270   4.368  11.332  11.342
42791SOL    HW230271   4.238  11.269  11.388
42792SOL     OW30272   7.691  14.026  10.631
42792SOL    HW130273   7.773  14.073  10.623
42792SOL    HW230274   7.717  13.935  10.644
42793SOL     OW30275   1.580  10.027   6.130
42793SOL    HW130276   1.615  10.095   6.187
42793SOL    HW230277   1.539   9.964   6.189
42794SOL     OW30278   4.591   3.508  13.558
42794SOL    HW130279   4.671   3.472  13.518
42794SOL    HW230280   4.611   3.511  13.652
42795SOL     OW30281  11.546  11.310  13.364
42795SOL    HW130282  11.497  11.328  13.444
42795SOL    HW230283  11.479  11.299  13.297
42796SOL     OW30284  11.648   5.062   9.033
42796SOL    HW130285  11.568   5.102   9.066
42796SOL    HW230286  11.674   5.118   8.959
42797SOL     OW30287   2.712   2.908  14.368
42797SOL    HW130288   2.806   2.901  14.384
42797SOL    HW230289   2.681   2.817  14.370
42798SOL     OW30290  10.703   6.169  10.765
42798SOL    HW130291  10.776   6.128  10.719
42798SOL    HW230292  10.664   6.098  10.816
42799SOL     OW30293  13.915   8.297  10.112
42799SOL    HW130294  13.909   8.230  10.179
42799SOL    HW230295  13.825   8.318  10.089
42800SOL     OW30296   8.763   7.862   8.294
42800SOL    HW130297   8.810   7.869   8.377
42800SOL    HW230298   8.826   7.892   8.228
42801SOL     OW30299   7.679   0.137   3.338
42801SOL    HW130300   7.671   0.165   3.429
42801SOL    HW230301   7.729   0.056   3.342
42802SOL     OW30302  10.830   2.613   4.336
42802SOL    HW130303  10.754   2.662   4.366
42802SOL    HW230304  10.835   2.629   4.242
42803SOL     OW30305  14.778   4.237  10.714
42803SOL    HW130306  14.694   4.279  10.730
42803SOL    HW230307  14.835   4.270  10.784
42804SOL     OW30308  12.147   0.317  10.080
42804SOL    HW130309  12.147   0.365   9.997
42804SOL    HW230310  12.064   0.270  10.081
42805SOL     OW30311  14.823   4.797   8.592
42805SOL    HW130312   0.019   4.772   8.633
42805SOL    HW230313  14.810   4.731   8.523
42806SOL     OW30314  13.567   4.767   3.698
42806SOL    HW130315  13.644   4.711   3.685
42806SOL    HW230316  13.602   4.856   3.697
42807SOL     OW30317   0.811   6.045   9.697
42807SOL    HW130318   0.834   6.043   9.604
42807SOL    HW230319   0.740   5.981   9.705
42808SOL     OW30320  11.733   5.523  11.538
42808SOL    HW130321  11.796   5.595  11.533
42808SOL    HW230322  11.776   5.451  11.490
42809SOL     OW30323   0.229   0.360   4.582
42809SOL    HW130324   0.149   0.312   4.601
42809SOL    HW230325   0.280   0.354   4.663
42810SOL     OW30326   3.321  10.444  12.991
42810SOL    HW130327   3.384  10.399  13.047
42810SOL    HW230328   3.338  10.537  13.005
42811SOL     OW30329   3.029   2.738   2.674
42811SOL    HW130330   3.123   2.748   2.661
42811SOL    HW230331   3.000   2.825   2.704
42812SOL     OW30332  14.480  13.635   3.644
42812SOL    HW130333  14.547  13.605   3.705
42812SOL    HW230334  14.464  13.559   3.588
42813SOL     OW30335   9.193   7.944   6.290
42813SOL    HW130336   9.167   7.868   6.238
42813SOL    HW230337   9.110   7.981   6.321
42814SOL     OW30338   4.916   5.523  12.845
42814SOL    HW130339   4.874   5.441  12.872
42814SOL    HW230340   4.844   5.583  12.829
42815SOL     OW30341   1.991   7.212   0.446
42815SOL    HW130342   1.980   7.280   0.379
42815SOL    HW230343   2.080   7.224   0.478
42816SOL     OW30344   6.170   0.653   8.413
42816SOL    HW130345   6.145   0.566   8.445
42816SOL    HW230346   6.210   0.636   8.327
42817SOL     OW30347   1.593  11.880  13.943
42817SOL    HW130348   1.684  11.892  13.915
42817SOL    HW230349   1.548  11.958  13.912
42818SOL     OW30350  10.566  12.259   0.836
42818SOL    HW130351  10.478  12.224   0.849
42818SOL    HW230352  10.620  12.215   0.902
42819SOL     OW30353   6.986  13.342   2.076
42819SOL    HW130354   6.989  13.421   2.130
42819SOL    HW230355   7.013  13.372   1.989
42820SOL     OW30356   0.290  10.068   4.956
42820SOL    HW130357   0.375  10.026   4.952
42820SOL    HW230358   0.227   9.997   4.944
42821SOL     OW30359   6.090   2.128   0.276
42821SOL    HW130360   6.148   2.054   0.261
42821SOL    HW230361   6.088   2.138   0.371
42822SOL     OW30362   4.074   3.198  13.973
42822SOL    HW130363   4.045   3.196  13.882
42822SOL    HW230364   4.154   3.146  13.974
42823SOL     OW30365   8.917  14.861  13.488
42823SOL    HW130366   8.876   0.048  13.444
42823SOL    HW230367   8.884  14.784  13.441
42824SOL     OW30368   6.312   3.285   4.692
42824SOL    HW130369   6.257   3.211   4.717
42824SOL    HW230370   6.261   3.331   4.625
42825SOL     OW30371  14.811   3.545  11.640
42825SOL    HW130372   0.007   3.566  11.598
42825SOL    HW230373  14.835   3.509  11.725
42826SOL     OW30374   3.491   7.411   6.314
42826SOL    HW130375   3.581   7.426   6.284
42826SOL    HW230376   3.488   7.455   6.399
42827SOL     OW30377   7.116   4.360   3.286
42827SOL    HW130378   7.101   4.316   3.370
42827SOL    HW230379   7.169   4.437   3.308
42828SOL     OW30380  12.048  10.374  11.237
42828SOL    HW130381  11.975  10.419  11.196
42828SOL    HW230382  12.029  10.281  11.228
42829SOL     OW30383   1.080   1.512   6.090
42829SOL    HW130384   1.135   1.553   6.157
42829SOL    HW230385   1.097   1.418   6.100
42830SOL     OW30386   9.404   9.334   3.754
42830SOL    HW130387   9.363   9.276   3.819
42830SOL    HW230388   9.330   9.370   3.704
42831SOL     OW30389  14.154  12.650   0.819
42831SOL    HW130390  14.244  12.641   0.787
42831SOL    HW230391  14.145  12.744   0.838
42832SOL     OW30392   2.741  11.516   6.866
42832SOL    HW130393   2.646  11.517   6.853
42832SOL    HW230394   2.756  11.438   6.920
42833SOL     OW30395   0.173   6.479   6.446
42833SOL    HW130396   0.086   6.449   6.421
42833SOL    HW230397   0.164   6.507   6.537
42834SOL     OW30398  13.787  12.520   3.514
42834SOL    HW130399  13.699  12.543   3.485
42834SOL    HW230400  13.836  12.506   3.433
42835SOL     OW30401   5.249   9.590  13.364
42835SOL    HW130402   5.185   9.539  13.414
42835SOL    HW230403   5.201   9.617  13.285
42836SOL     OW30404   1.657   7.994  12.681
42836SOL    HW130405   1.648   7.954  12.768
42836SOL    HW230406   1.712   8.070  12.696
42837SOL     OW30407   9.063  10.753   6.576
42837SOL    HW130408   9.033  10.831   6.623
42837SOL    HW230409   9.003  10.684   6.603
42838SOL     OW30410   5.311   2.850  13.399
42838SOL    HW130411   5.385   2.827  13.455
42838SOL    HW230412   5.241   2.790  13.426
42839SOL     OW30413   5.145   2.467   4.458
42839SOL    HW130414   5.188   2.506   4.534
42839SOL    HW230415   5.209   2.406   4.422
42840SOL     OW30416  10.233  10.988  13.969
42840SOL    HW130417  10.202  11.033  13.890
42840SOL    HW230418  10.280  11.055  14.018
42841SOL     OW30419   8.821   1.295   2.676
42841SOL    HW130420   8.914   1.299   2.651
42841SOL    HW230421   8.774   1.294   2.593
42842SOL     OW30422  12.544  11.696  11.971
42842SOL    HW130423  12.631  11.676  11.937
42842SOL    HW230424  12.524  11.784  11.937
42843SOL     OW30425  11.174   1.147  11.721
42843SOL    HW130426  11.160   1.192  11.637
42843SOL    HW230427  11.099   1.089  11.730
42844SOL     OW30428   5.704  14.883   3.149
42844SOL    HW130429   5.690   0.018   3.241
42844SOL    HW230430   5.664   0.068   3.101
42845SOL     OW30431   9.308   0.974   8.371
42845SOL    HW130432   9.262   0.889   8.366
42845SOL    HW230433   9.286   1.008   8.458
42846SOL     OW30434  10.132   4.039  13.757
42846SOL    HW130435  10.197   4.056  13.689
42846SOL    HW230436  10.169   4.076  13.836
42847SOL     OW30437  13.859   7.174  14.555
42847SOL    HW130438  13.870   7.147  14.646
42847SOL    HW230439  13.856   7.269  14.559
42848SOL     OW30440   5.667   4.677   2.566
42848SOL    HW130441   5.707   4.683   2.653
42848SOL    HW230442   5.613   4.756   2.560
42849SOL     OW30443   6.321   5.115  12.586
42849SOL    HW130444   6.346   5.182  12.522
42849SOL    HW230445   6.228   5.100  12.569
42850SOL     OW30446  14.295  12.492  12.829
42850SOL    HW130447  14.365  12.443  12.786
42850SOL    HW230448  14.332  12.516  12.914
42851SOL     OW30449   3.453  11.158  12.742
42851SOL    HW130450   3.469  11.104  12.665
42851SOL    HW230451   3.409  11.100  12.804
42852SOL     OW30452   3.071   2.483  10.837
42852SOL    HW130453   3.013   2.549  10.875
42852SOL    HW230454   3.103   2.433  10.912
42853SOL     OW30455  13.746   8.226  14.020
42853SOL    HW130456  13.783   8.302  14.064
42853SOL    HW230457  13.679   8.263  13.961
42854SOL     OW30458   3.438   9.220   7.732
42854SOL    HW130459   3.378   9.160   7.687
42854SOL    HW230460   3.383   9.292   7.762
42855SOL     OW30461   4.921  12.378  11.483
42855SOL    HW130462   4.929  12.365  11.578
42855SOL    HW230463   5.003  12.420  11.457
42856SOL     OW30464  10.760   0.203  12.155
42856SOL    HW130465  10.744   0.161  12.070
42856SOL    HW230466  10.696   0.164  12.214
42857SOL     OW30467  11.937   5.922   5.396
42857SOL    HW130468  11.882   5.880   5.330
42857SOL    HW230469  11.962   5.851   5.456
42858SOL     OW30470   8.146   3.041  10.744
42858SOL    HW130471   8.164   2.989  10.666
42858SOL    HW230472   8.182   2.991  10.816
42859SOL     OW30473   7.444   1.509   0.187
42859SOL    HW130474   7.387   1.433   0.197
42859SOL    HW230475   7.448   1.549   0.274
42860SOL     OW30476  12.774   2.883  13.186
42860SOL    HW130477  12.682   2.911  13.193
42860SOL    HW230478  12.772   2.789  13.202
42861SOL     OW30479  12.213   0.149   4.103
42861SOL    HW130480  12.303   0.118   4.098
42861SOL    HW230481  12.161   0.081   4.061
42862SOL     OW30482   5.740   3.734   0.961
42862SOL    HW130483   5.713   3.818   0.997
42862SOL    HW230484   5.712   3.670   1.027
42863SOL     OW30485   1.143  14.729   2.045
42863SOL    HW130486   1.058  14.721   2.088
42863SOL    HW230487   1.198  14.774   2.110
42864SOL     OW30488   6.862   7.197  10.475
42864SOL    HW130489   6.942   7.163  10.436
42864SOL    HW230490   6.864   7.167  10.566
42865SOL     OW30491   9.653   9.164   9.599
42865SOL    HW130492   9.713   9.160   9.525
42865SOL    HW230493   9.573   9.202   9.564
42866SOL     OW30494   0.995  12.440   8.566
42866SOL    HW130495   0.978  12.475   8.478
42866SOL    HW230496   1.078  12.480   8.592
42867SOL     OW30497   9.065  13.533   7.640
42867SOL    HW130498   9.130  13.468   7.669
42867SOL    HW230499   8.983  13.484   7.636
42868SOL     OW30500  12.401  10.802   2.714
42868SOL    HW130501  12.477  10.759   2.753
42868SOL    HW230502  12.379  10.749   2.638
42869SOL     OW30503   5.827  12.426   1.401
42869SOL    HW130504   5.911  12.466   1.422
42869SOL    HW230505   5.796  12.474   1.324
42870SOL     OW30506   8.327   0.092   0.160
42870SOL    HW130507   8.354   0.003   0.140
42870SOL    HW230508   8.232   0.088   0.165
42871SOL     OW30509  11.062   5.848   4.134
42871SOL    HW130510  11.059   5.834   4.228
42871SOL    HW230511  11.052   5.943   4.124
42872SOL     OW30512   9.519   9.806   4.711
42872SOL    HW130513   9.575   9.760   4.648
42872SOL    HW230514   9.431   9.797   4.676
42873SOL     OW30515   2.130   9.675  14.570
42873SOL    HW130516   2.039   9.688  14.597
42873SOL    HW230517   2.147   9.583  14.590
42874SOL     OW30518   7.497   5.264   6.316
42874SOL    HW130519   7.528   5.209   6.387
42874SOL    HW230520   7.471   5.346   6.359
42875SOL     OW30521   2.344   7.240   5.514
42875SOL    HW130522   2.335   7.226   5.608
42875SOL    HW230523   2.256   7.261   5.483
42876SOL     OW30524   8.043  10.582  11.126
42876SOL    HW130525   8.022  10.644  11.196
42876SOL    HW230526   8.136  10.597  11.107
42877SOL     OW30527   2.645  11.537   3.393
42877SOL    HW130528   2.560  11.510   3.358
42877SOL    HW230529   2.689  11.455   3.416
42878SOL     OW30530   9.658   1.078   5.949
42878SOL    HW130531   9.575   1.034   5.967
42878SOL    HW230532   9.702   1.022   5.885
42879SOL     OW30533   2.696   0.018  12.428
42879SOL    HW130534   2.770  14.850  12.402
42879SOL    HW230535   2.727   0.064  12.506
42880SOL     OW30536   2.500   5.405  10.537
42880SOL    HW130537   2.467   5.327  10.493
42880SOL    HW230538   2.544   5.455  10.468
42881SOL     OW30539  11.979   9.476   0.840
42881SOL    HW130540  11.904   9.431   0.877
42881SOL    HW230541  12.015   9.415   0.775
42882SOL     OW30542  10.320   7.514   9.097
42882SOL    HW130543  10.355   7.477   9.016
42882SOL    HW230544  10.241   7.560   9.071
42883SOL     OW30545   6.714   7.009  13.900
42883SOL    HW130546   6.784   6.948  13.876
42883SOL    HW230547   6.690   7.053  13.818
42884SOL     OW30548  10.613   3.204  10.737
42884SOL    HW130549  10.577   3.118  10.714
42884SOL    HW230550  10.537   3.252  10.770
42885SOL     OW30551   2.414   0.138   1.431
42885SOL    HW130552   2.472   0.170   1.500
42885SOL    HW230553   2.346   0.089   1.478
42886SOL     OW30554  14.380   9.609   7.617
42886SOL    HW130555  14.401   9.516   7.616
42886SOL    HW230556  14.312   9.618   7.684
42887SOL     OW30557  12.018  14.843   8.395
42887SOL    HW130558  11.936  14.815   8.354
42887SOL    HW230559  12.064  14.762   8.416
42888SOL     OW30560   3.458   7.545   4.786
42888SOL    HW130561   3.496   7.459   4.801
42888SOL    HW230562   3.507   7.581   4.712
42889SOL     OW30563  11.548  11.208  10.923
42889SOL    HW130564  11.635  11.247  10.918
42889SOL    HW230565  11.561  11.118  10.892
42890SOL     OW30566   9.557   6.264   7.843
42890SOL    HW130567   9.587   6.225   7.925
42890SOL    HW230568   9.636   6.270   7.789
42891SOL     OW30569   7.240   0.290  11.359
42891SOL    HW130570   7.160   0.330  11.393
42891SOL    HW230571   7.302   0.363  11.354
42892SOL     OW30572   9.937   7.432   7.666
42892SOL    HW130573   9.932   7.517   7.709
42892SOL    HW230574   9.860   7.429   7.609
42893SOL     OW30575   1.709  11.228   5.224
42893SOL    HW130576   1.718  11.316   5.187
42893SOL    HW230577   1.762  11.230   5.304
42894SOL     OW30578   8.014   9.376   4.022
42894SOL    HW130579   8.032   9.358   4.114
42894SOL    HW230580   7.928   9.337   4.006
42895SOL     OW30581   3.085   7.519   6.432
42895SOL    HW130582   3.097   7.559   6.346
42895SOL    HW230583   3.089   7.592   6.493
42896SOL     OW30584  12.697   5.226   9.619
42896SOL    HW130585  12.632   5.296   9.611
42896SOL    HW230586  12.767   5.265   9.672
42897SOL     OW30587   8.330   5.762   9.013
42897SOL    HW130588   8.297   5.724   8.931
42897SOL    HW230589   8.312   5.855   9.005
42898SOL     OW30590  13.101  10.984   3.948
42898SOL    HW130591  13.079  10.909   3.893
42898SOL    HW230592  13.192  11.003   3.928
42899SOL     OW30593  10.829   9.392   9.791
42899SOL    HW130594  10.825   9.303   9.825
42899SOL    HW230595  10.764   9.393   9.720
42900SOL     OW30596   9.395  10.137   7.478
42900SOL    HW130597   9.363  10.130   7.568
42900SOL    HW230598   9.490  10.149   7.488
42901SOL     OW30599   8.944  11.167   6.323
42901SOL    HW130600   8.971  11.206   6.240
42901SOL    HW230601   8.952  11.072   6.309
42902SOL     OW30602   7.199   9.066  14.165
42902SOL    HW130603   7.251   9.038  14.089
42902SOL    HW230604   7.212   9.161  14.169
42903SOL     OW30605  12.144   3.491   2.497
42903SOL    HW130606  12.233   3.469   2.472
42903SOL    HW230607  12.107   3.534   2.420
42904SOL     OW30608  10.153  13.370  12.183
42904SOL    HW130609  10.148  13.421  12.102
42904SOL    HW230610  10.187  13.285  12.155
42905SOL     OW30611   2.969   0.929   2.874
42905SOL    HW130612   3.063   0.926   2.893
42905SOL    HW230613   2.959   0.880   2.793
42906SOL     OW30614   2.348  13.570   7.401
42906SOL    HW130615   2.389  13.558   7.315
42906SOL    HW230616   2.264  13.526   7.393
42907SOL     OW30617   9.153   4.840   7.757
42907SOL    HW130618   9.121   4.752   7.732
42907SOL    HW230619   9.243   4.843   7.724
42908SOL     OW30620   0.626   6.343  10.977
42908SOL    HW130621   0.628   6.260  10.929
42908SOL    HW230622   0.600   6.408  10.912
42909SOL     OW30623   2.690   7.467   9.248
42909SOL    HW130624   2.666   7.377   9.226
42909SOL    HW230625   2.636   7.489   9.324
42910SOL     OW30626   8.015   5.621   7.696
42910SOL    HW130627   7.942   5.600   7.639
42910SOL    HW230628   8.051   5.537   7.722
42911SOL     OW30629   7.432   6.541   4.584
42911SOL    HW130630   7.483   6.474   4.629
42911SOL    HW230631   7.494   6.614   4.573
42912SOL     OW30632   9.275  13.393   7.797
42912SOL    HW130633   9.370  13.392   7.797
42912SOL    HW230634   9.250  13.303   7.774
42913SOL     OW30635  10.907  13.993   0.622
42913SOL    HW130636  10.992  14.028   0.649
42913SOL    HW230637  10.897  13.912   0.673
42914SOL     OW30638   5.136  13.540  10.550
42914SOL    HW130639   5.210  13.594  10.523
42914SOL    HW230640   5.165  13.499  10.632
42915SOL     OW30641   8.902   3.283   1.728
42915SOL    HW130642   8.867   3.279   1.817
42915SOL    HW230643   8.879   3.199   1.689
42916SOL     OW30644   1.383  14.184  10.278
42916SOL    HW130645   1.430  14.267  10.280
42916SOL    HW230646   1.383  14.154  10.369
42917SOL     OW30647   9.538   1.859   4.576
42917SOL    HW130648   9.592   1.906   4.639
42917SOL    HW230649   9.517   1.924   4.508
42918SOL     OW30650   1.430   4.680   2.744
42918SOL    HW130651   1.455   4.721   2.661
42918SOL    HW230652   1.374   4.745   2.787
42919SOL     OW30653  11.382  11.703  11.898
42919SOL    HW130654  11.451  11.638  11.913
42919SOL    HW230655  11.425  11.774  11.850
42920SOL     OW30656   9.448   5.882  14.243
42920SOL    HW130657   9.478   5.870  14.333
42920SOL    HW230658   9.523   5.858  14.188
42921SOL     OW30659  12.610   7.149   6.063
42921SOL    HW130660  12.621   7.072   6.007
42921SOL    HW230661  12.696   7.165   6.101
42922SOL     OW30662   5.801   9.783   6.468
42922SOL    HW130663   5.747   9.760   6.393
42922SOL    HW230664   5.865   9.712   6.475
42923SOL     OW30665   2.770  11.711   7.127
42923SOL    HW130666   2.784  11.623   7.092
42923SOL    HW230667   2.747  11.764   7.050
42924SOL     OW30668   8.923  12.001   8.527
42924SOL    HW130669   8.902  11.952   8.448
42924SOL    HW230670   8.925  11.935   8.596
42925SOL     OW30671  10.029  14.339   5.537
42925SOL    HW130672  10.005  14.431   5.525
42925SOL    HW230673   9.966  14.290   5.485
42926SOL     OW30674  11.716  11.846   5.946
42926SOL    HW130675  11.778  11.785   5.906
42926SOL    HW230676  11.661  11.875   5.874
42927SOL     OW30677  12.201   7.679   3.849
42927SOL    HW130678  12.235   7.765   3.824
42927SOL    HW230679  12.202   7.680   3.945
42928SOL     OW30680   0.610   5.142   7.271
42928SOL    HW130681   0.596   5.212   7.206
42928SOL    HW230682   0.565   5.066   7.233
42929SOL     OW30683   0.068   4.156  12.615
42929SOL    HW130684   0.077   4.069  12.576
42929SOL    HW230685   0.055   4.139  12.709
42930SOL     OW30686   2.990   4.957   9.960
42930SOL    HW130687   3.044   4.889   9.921
42930SOL    HW230688   3.037   5.038   9.942
42931SOL     OW30689  10.898  11.498  13.371
42931SOL    HW130690  10.985  11.478  13.335
42931SOL    HW230691  10.854  11.545  13.301
42932SOL     OW30692   1.492   4.884  14.468
42932SOL    HW130693   1.534   4.929  14.541
42932SOL    HW230694   1.476   4.953  14.404
42933SOL     OW30695  10.147   9.587  13.333
42933SOL    HW130696  10.075   9.642  13.362
42933SOL    HW230697  10.201   9.644  13.278
42934SOL     OW30698  10.135   9.535   9.527
42934SOL    HW130699  10.205   9.521   9.592
42934SOL    HW230700  10.101   9.447   9.510
42935SOL     OW30701   3.602   1.598   1.349
42935SOL    HW130702   3.621   1.626   1.439
42935SOL    HW230703   3.666   1.529   1.332
42936SOL     OW30704  13.155   9.135   2.359
42936SOL    HW130705  13.084   9.176   2.310
42936SOL    HW230706  13.231   9.191   2.342
42937SOL     OW30707   5.722   7.342   4.147
42937SOL    HW130708   5.706   7.406   4.077
42937SOL    HW230709   5.689   7.260   4.111
42938SOL     OW30710   6.528   8.627  11.046
42938SOL    HW130711   6.558   8.698  10.988
42938SOL    HW230712   6.471   8.671  11.109
42939SOL     OW30713  14.232   4.773  11.579
42939SOL    HW130714  14.292   4.795  11.650
42939SOL    HW230715  14.145   4.770  11.620
42940SOL     OW30716   6.951   9.174   2.647
42940SOL    HW130717   6.928   9.243   2.710
42940SOL    HW230718   6.977   9.100   2.702
42941SOL     OW30719   2.664   7.276   6.050
42941SOL    HW130720   2.646   7.186   6.023
42941SOL    HW230721   2.600   7.329   6.003
42942SOL     OW30722  10.539   0.405  11.715
42942SOL    HW130723  10.625   0.439  11.743
42942SOL    HW230724  10.517   0.457  11.638
42943SOL     OW30725   5.056  10.112   9.837
42943SOL    HW130726   5.119  10.184   9.835
42943SOL    HW230727   5.004  10.124   9.757
42944SOL     OW30728   0.735   5.059  12.898
42944SOL    HW130729   0.646   5.093  12.886
42944SOL    HW230730   0.765   5.039  12.809
42945SOL     OW30731  14.852   8.543   7.883
42945SOL    HW130732  14.761   8.555   7.911
42945SOL    HW230733  14.877   8.627   7.845
42946SOL     OW30734   8.514  11.255   5.455
42946SOL    HW130735   8.609  11.252   5.466
42946SOL    HW230736   8.487  11.164   5.459
42947SOL     OW30737   2.866  12.894   2.944
42947SOL    HW130738   2.772  12.877   2.952
42947SOL    HW230739   2.876  12.933   2.857
42948SOL     OW30740   8.843   2.712   0.772
42948SOL    HW130741   8.795   2.726   0.853
42948SOL    HW230742   8.935   2.704   0.799
42949SOL     OW30743   2.859  12.198   0.811
42949SOL    HW130744   2.885  12.280   0.769
42949SOL    HW230745   2.901  12.202   0.897
42950SOL     OW30746  10.811   5.709  10.093
42950SOL    HW130747  10.811   5.626  10.140
42950SOL    HW230748  10.751   5.765  10.143
42951SOL     OW30749   9.772   6.370  14.885
42951SOL    HW130750   9.746   6.463  14.882
42951SOL    HW230751   9.759   6.345   0.089
42952SOL     OW30752  13.422   4.017   6.380
42952SOL    HW130753  13.423   4.066   6.298
42952SOL    HW230754  13.488   3.949   6.367
42953SOL     OW30755   4.021   7.247  10.477
42953SOL    HW130756   4.048   7.338  10.486
42953SOL    HW230757   4.007   7.235  10.383
42954SOL     OW30758   0.215   0.135  14.762
42954SOL    HW130759   0.280   0.203  14.746
42954SOL    HW230760   0.234   0.103  14.850
42955SOL     OW30761   2.334   8.337   7.752
42955SOL    HW130762   2.419   8.306   7.781
42955SOL    HW230763   2.278   8.328   7.829
42956SOL     OW30764   4.909   9.717   3.985
42956SOL    HW130765   4.841   9.737   3.921
42956SOL    HW230766   4.976   9.785   3.971
42957SOL     OW30767  11.571   7.167  14.247
42957SOL    HW130768  11.520   7.096  14.208
42957SOL    HW230769  11.639   7.186  14.181
42958SOL     OW30770  13.394   2.379  12.385
42958SOL    HW130771  13.451   2.303  12.397
42958SOL    HW230772  13.311   2.343  12.356
42959SOL     OW30773  14.308   7.470   1.893
42959SOL    HW130774  14.329   7.559   1.863
42959SOL    HW230775  14.338   7.468   1.984
42960SOL     OW30776  13.512  14.367  13.355
42960SOL    HW130777  13.538  14.458  13.368
42960SOL    HW230778  13.469  14.342  13.436
42961SOL     OW30779  14.187  10.954   7.633
42961SOL    HW130780  14.268  10.944   7.583
42961SOL    HW230781  14.118  10.926   7.572
42962SOL     OW30782  11.232   0.504   5.747
42962SOL    HW130783  11.202   0.593   5.727
42962SOL    HW230784  11.295   0.484   5.678
42963SOL     OW30785  13.132   6.091   7.724
42963SOL    HW130786  13.049   6.052   7.750
42963SOL    HW230787  13.196   6.021   7.733
42964SOL     OW30788   9.199   7.345  12.355
42964SOL    HW130789   9.148   7.415  12.316
42964SOL    HW230790   9.190   7.272  12.294
42965SOL     OW30791  10.627  12.557   8.345
42965SOL    HW130792  10.559  12.492   8.366
42965SOL    HW230793  10.670  12.522   8.266
42966SOL     OW30794   6.311  11.757   1.757
42966SOL    HW130795   6.404  11.750   1.779
42966SOL    HW230796   6.292  11.678   1.706
42967SOL     OW30797  10.330  10.540   2.190
42967SOL    HW130798  10.246  10.543   2.237
42967SOL    HW230799  10.359  10.631   2.188
42968SOL     OW30800   5.240   1.769   3.738
42968SOL    HW130801   5.215   1.687   3.694
42968SOL    HW230802   5.237   1.748   3.831
42969SOL     OW30803   5.857   6.794   3.373
42969SOL    HW130804   5.876   6.708   3.335
42969SOL    HW230805   5.790   6.777   3.439
42970SOL     OW30806   8.700   0.588  13.263
42970SOL    HW130807   8.779   0.609  13.313
42970SOL    HW230808   8.672   0.672  13.227
42971SOL     OW30809   1.557   0.866  14.466
42971SOL    HW130810   1.511   0.876  14.550
42971SOL    HW230811   1.533   0.778  14.436
42972SOL     OW30812   4.757   9.258   4.885
42972SOL    HW130813   4.838   9.308   4.896
42972SOL    HW230814   4.695   9.320   4.847
42973SOL     OW30815  11.068   8.258  13.040
42973SOL    HW130816  11.050   8.325  13.105
42973SOL    HW230817  11.139   8.294  12.987
42974SOL     OW30818  11.294  13.436   4.333
42974SOL    HW130819  11.262  13.526   4.328
42974SOL    HW230820  11.385  13.445   4.360
42975SOL     OW30821   3.267  10.624   2.404
42975SOL    HW130822   3.276  10.561   2.333
42975SOL    HW230823   3.179  10.660   2.394
42976SOL     OW30824   4.558   1.833   2.623
42976SOL    HW130825   4.474   1.868   2.594
42976SOL    HW230826   4.569   1.866   2.712
42977SOL     OW30827  11.756  12.534   2.100
42977SOL    HW130828  11.682  12.508   2.154
42977SOL    HW230829  11.811  12.587   2.157
42978SOL     OW30830  13.355   1.311   7.718
42978SOL    HW130831  13.375   1.352   7.634
42978SOL    HW230832  13.261   1.324   7.728
42979SOL     OW30833   1.285   8.729   1.790
42979SOL    HW130834   1.231   8.656   1.762
42979SOL    HW230835   1.265   8.799   1.728
42980SOL     OW30836  10.381   9.007   3.499
42980SOL    HW130837  10.401   8.913   3.498
42980SOL    HW230838  10.392   9.033   3.590
42981SOL     OW30839  12.761   6.872   5.619
42981SOL    HW130840  12.754   6.777   5.627
42981SOL    HW230841  12.825   6.886   5.549
42982SOL     OW30842   2.065   6.494   5.554
42982SOL    HW130843   2.124   6.532   5.619
42982SOL    HW230844   2.094   6.403   5.546
42983SOL     OW30845   8.548   9.830   8.956
42983SOL    HW130846   8.480   9.792   8.902
42983SOL    HW230847   8.630   9.801   8.916
42984SOL     OW30848   2.747   5.247   1.820
42984SOL    HW130849   2.820   5.283   1.771
42984SOL    HW230850   2.782   5.231   1.907
42985SOL     OW30851   0.907   0.849   8.169
42985SOL    HW130852   0.990   0.801   8.165
42985SOL    HW230853   0.840   0.782   8.167
42986SOL     OW30854   4.914   8.652  14.273
42986SOL    HW130855   4.901   8.624  14.182
42986SOL    HW230856   4.984   8.717  14.267
42987SOL     OW30857   8.572   7.337  13.807
42987SOL    HW130858   8.629   7.261  13.799
42987SOL    HW230859   8.585   7.367  13.897
42988SOL     OW30860   5.532  10.469  14.108
42988SOL    HW130861   5.587  10.520  14.168
42988SOL    HW230862   5.594  10.425  14.050
42989SOL     OW30863   5.241   4.996   8.655
42989SOL    HW130864   5.175   5.049   8.610
42989SOL    HW230865   5.313   4.991   8.593
42990SOL     OW30866  14.199  11.304   0.552
42990SOL    HW130867  14.116  11.265   0.578
42990SOL    HW230868  14.233  11.345   0.631
42991SOL     OW30869   9.921   4.364   3.868
42991SOL    HW130870  10.002   4.378   3.916
42991SOL    HW230871   9.948   4.367   3.776
42992SOL     OW30872  11.483   7.632   1.513
42992SOL    HW130873  11.476   7.548   1.559
42992SOL    HW230874  11.392   7.652   1.488
42993SOL     OW30875   6.812  11.053  10.638
42993SOL    HW130876   6.728  11.077  10.598
42993SOL    HW230877   6.855  11.137  10.656
42994SOL     OW30878  10.038   0.125   8.857
42994SOL    HW130879  10.036   0.121   8.953
42994SOL    HW230880   9.948   0.141   8.831
42995SOL     OW30881   0.512   6.267   9.259
42995SOL    HW130882   0.426   6.270   9.218
42995SOL    HW230883   0.504   6.200   9.327
42996SOL     OW30884  13.680   7.464   3.215
42996SOL    HW130885  13.631   7.429   3.140
42996SOL    HW230886  13.724   7.542   3.181
42997SOL     OW30887   5.692   0.341  14.688
42997SOL    HW130888   5.706   0.333  14.594
42997SOL    HW230889   5.761   0.288  14.728
42998SOL     OW30890   2.966   4.316   1.733
42998SOL    HW130891   2.933   4.392   1.781
42998SOL    HW230892   2.953   4.242   1.792
42999SOL     OW30893   6.689  14.275   6.547
42999SOL    HW130894   6.701  14.331   6.624
42999SOL    HW230895   6.746  14.199   6.564
43000SOL     OW30896   4.072  10.767  14.684
43000SOL    HW130897   4.161  10.788  14.714
43000SOL    HW230898   4.084  10.688  14.631
43001SOL     OW30899  11.255   4.273   4.803
43001SOL    HW130900  11.208   4.196   4.771
43001SOL    HW230901  11.231   4.343   4.742
43002SOL     OW30902  13.331   5.490   3.859
43002SOL    HW130903  13.283   5.419   3.816
43002SOL    HW230904  13.266   5.533   3.915
43003SOL     OW30905   1.408  11.741  11.278
43003SOL    HW130906   1.381  11.667  11.332
43003SOL    HW230907   1.400  11.711  11.188
43004SOL     OW30908   0.365   9.612   1.239
43004SOL    HW130909   0.288   9.555   1.243
43004SOL    HW230910   0.398   9.602   1.150
43005SOL     OW30911   3.493  13.231   3.692
43005SOL    HW130912   3.480  13.143   3.656
43005SOL    HW230913   3.519  13.216   3.783
43006SOL     OW30914   6.634   2.760  12.983
43006SOL    HW130915   6.708   2.703  12.959
43006SOL    HW230916   6.567   2.739  12.918
43007SOL     OW30917   4.747  13.903  13.513
43007SOL    HW130918   4.800  13.914  13.591
43007SOL    HW230919   4.756  13.810  13.490
43008SOL     OW30920   4.377  12.925  11.892
43008SOL    HW130921   4.406  12.928  11.983
43008SOL    HW230922   4.361  13.017  11.868
43009SOL     OW30923  13.247   3.317  10.783
43009SOL    HW130924  13.178   3.266  10.825
43009SOL    HW230925  13.282   3.259  10.716
43010SOL     OW30926   4.588   3.430   8.364
43010SOL    HW130927   4.503   3.475   8.369
43010SOL    HW230928   4.565   3.338   8.349
43011SOL     OW30929   7.232  10.155   6.128
43011SOL    HW130930   7.235  10.072   6.175
43011SOL    HW230931   7.292  10.142   6.054
43012SOL     OW30932   2.804   2.231   7.835
43012SOL    HW130933   2.732   2.190   7.882
43012SOL    HW230934   2.882   2.208   7.885
43013SOL     OW30935   3.036   5.789  11.769
43013SOL    HW130936   3.034   5.860  11.704
43013SOL    HW230937   2.948   5.790  11.807
43014SOL     OW30938  10.060  12.523   1.483
43014SOL    HW130939  10.122  12.459   1.449
43014SOL    HW230940  10.067  12.515   1.579
43015SOL     OW30941  12.033   4.110   2.302
43015SOL    HW130942  12.096   4.182   2.293
43015SOL    HW230943  11.978   4.116   2.224
43016SOL     OW30944  10.482  14.446  10.775
43016SOL    HW130945  10.481  14.510  10.704
43016SOL    HW230946  10.428  14.485  10.843
43017SOL     OW30947   2.510   2.888  14.598
43017SOL    HW130948   2.469   2.974  14.604
43017SOL    HW230949   2.568   2.894  14.522
43018SOL     OW30950   7.245  11.885   0.049
43018SOL    HW130951   7.325  11.934   0.030
43018SOL    HW230952   7.275  11.809   0.100
43019SOL     OW30953  11.658  12.401  12.222
43019SOL    HW130954  11.647  12.344  12.146
43019SOL    HW230955  11.705  12.348  12.286
43020SOL     OW30956  12.712   2.154   2.252
43020SOL    HW130957  12.805   2.133   2.263
43020SOL    HW230958  12.677   2.155   2.341
43021SOL     OW30959   1.632  13.431   8.509
43021SOL    HW130960   1.639  13.368   8.581
43021SOL    HW230961   1.702  13.494   8.526
43022SOL     OW30962  10.532   7.283   4.089
43022SOL    HW130963  10.565   7.243   4.170
43022SOL    HW230964  10.523   7.210   4.028
43023SOL     OW30965  13.164   3.996   4.215
43023SOL    HW130966  13.106   3.925   4.242
43023SOL    HW230967  13.170   3.987   4.120
43024SOL     OW30968   2.343  12.574   8.755
43024SOL    HW130969   2.255  12.558   8.723
43024SOL    HW230970   2.333  12.588   8.849
43025SOL     OW30971   0.350   9.681   3.294
43025SOL    HW130972   0.283   9.742   3.323
43025SOL    HW230973   0.425   9.698   3.351
43026SOL     OW30974   5.607  11.001   2.595
43026SOL    HW130975   5.644  10.944   2.662
43026SOL    HW230976   5.677  11.063   2.575
43027SOL     OW30977   3.458   8.061   9.148
43027SOL    HW130978   3.543   8.020   9.133
43027SOL    HW230979   3.443   8.113   9.070
43028SOL     OW30980   7.645   9.919  10.340
43028SOL    HW130981   7.695   9.908  10.260
43028SOL    HW230982   7.685   9.860  10.403
43029SOL     OW30983   4.306  12.988  10.954
43029SOL    HW130984   4.262  12.935  11.020
43029SOL    HW230985   4.393  13.003  10.988
43030SOL     OW30986  14.323  10.219  12.307
43030SOL    HW130987  14.283  10.284  12.251
43030SOL    HW230988  14.380  10.269  12.366
43031SOL     OW30989   6.117  14.558   2.568
43031SOL    HW130990   6.114  14.585   2.476
43031SOL    HW230991   6.167  14.628   2.611
43032SOL     OW30992   8.458   7.621   7.525
43032SOL    HW130993   8.389   7.684   7.546
43032SOL    HW230994   8.420   7.536   7.547
43033SOL     OW30995  14.839   8.972   8.057
43033SOL    HW130996  14.818   9.061   8.030
43033SOL    HW230997  14.758   8.923   8.044
43034SOL     OW30998  14.380  14.153   6.782
43034SOL    HW130999  14.379  14.058   6.797
43034SOL    HW231000  14.397  14.191   6.868
43035SOL     OW31001   3.070   4.966  12.359
43035SOL    HW131002   3.052   5.059  12.372
43035SOL    HW231003   3.156   4.952  12.399
43036SOL     OW31004   9.623   8.394  12.580
43036SOL    HW131005   9.625   8.318  12.522
43036SOL    HW231006   9.698   8.381  12.638
43037SOL     OW31007   3.725  14.312  12.646
43037SOL    HW131008   3.708  14.236  12.701
43037SOL    HW231009   3.816  14.303  12.620
43038SOL     OW31010  14.639   8.074   8.698
43038SOL    HW131011  14.629   8.099   8.789
43038SOL    HW231012  14.592   8.141   8.649
43039SOL     OW31013   6.072   3.816   6.778
43039SOL    HW131014   6.165   3.841   6.775
43039SOL    HW231015   6.037   3.847   6.695
43040SOL     OW31016  13.295  13.810   1.447
43040SOL    HW131017  13.340  13.868   1.509
43040SOL    HW231018  13.231  13.867   1.404
43041SOL     OW31019   4.486   5.677  10.646
43041SOL    HW131020   4.505   5.709  10.557
43041SOL    HW231021   4.553   5.718  10.701
43042SOL     OW31022  12.534   1.856  11.603
43042SOL    HW131023  12.565   1.835  11.515
43042SOL    HW231024  12.478   1.932  11.591
43043SOL     OW31025   6.264   8.558   1.426
43043SOL    HW131026   6.183   8.586   1.469
43043SOL    HW231027   6.249   8.466   1.404
43044SOL     OW31028   8.446   0.181   0.434
43044SOL    HW131029   8.503   0.258   0.425
43044SOL    HW231030   8.404   0.172   0.348
43045SOL     OW31031   2.987   5.645  12.076
43045SOL    HW131032   2.910   5.691  12.042
43045SOL    HW231033   2.968   5.552  12.059
43046SOL     OW31034   6.794  14.514  12.621
43046SOL    HW131035   6.868  14.574  12.629
43046SOL    HW231036   6.778  14.485  12.710
43047SOL     OW31037   4.814   7.823  11.872
43047SOL    HW131038   4.887   7.881  11.852
43047SOL    HW231039   4.795   7.777  11.791
43048SOL     OW31040   5.481   2.844   5.727
43048SOL    HW131041   5.445   2.800   5.804
43048SOL    HW231042   5.510   2.772   5.670
43049SOL     OW31043   6.774   8.234   2.507
43049SOL    HW131044   6.850   8.176   2.504
43049SOL    HW231045   6.708   8.184   2.554
43050SOL     OW31046  11.916   7.295   7.214
43050SOL    HW131047  11.895   7.385   7.190
43050SOL    HW231048  12.009   7.298   7.238
43051SOL     OW31049   0.697   8.236   5.751
43051SOL    HW131050   0.707   8.183   5.673
43051SOL    HW231051   0.669   8.175   5.819
43052SOL     OW31052   4.504  11.376  10.866
43052SOL    HW131053   4.558  11.298  10.876
43052SOL    HW231054   4.454  11.382  10.947
43053SOL     OW31055   1.848   9.049   3.144
43053SOL    HW131056   1.892   9.132   3.164
43053SOL    HW231057   1.863   8.994   3.221
43054SOL     OW31058   2.772  14.113   3.349
43054SOL    HW131059   2.715  14.055   3.299
43054SOL    HW231060   2.762  14.085   3.440
43055SOL     OW31061   0.323   3.819  12.480
43055SOL    HW131062   0.395   3.868  12.439
43055SOL    HW231063   0.353   3.728  12.480
43056SOL     OW31064   4.295  12.724  11.094
43056SOL    HW131065   4.320  12.640  11.133
43056SOL    HW231066   4.372  12.780  11.106
43057SOL     OW31067   7.636   0.963   0.892
43057SOL    HW131068   7.559   0.909   0.905
43057SOL    HW231069   7.640   0.977   0.797
43058SOL     OW31070   0.988  14.377  14.807
43058SOL    HW131071   1.071  14.339  14.778
43058SOL    HW231072   0.928  14.302  14.811
43059SOL     OW31073   1.708   7.508   1.402
43059SOL    HW131074   1.671   7.434   1.354
43059SOL    HW231075   1.741   7.567   1.334
43060SOL     OW31076   4.531  14.200  14.133
43060SOL    HW131077   4.467  14.177  14.200
43060SOL    HW231078   4.484  14.257  14.072
43061SOL     OW31079   3.886   3.013  12.843
43061SOL    HW131080   3.928   2.951  12.904
43061SOL    HW231081   3.939   3.006  12.764
43062SOL     OW31082  12.768   6.556   3.403
43062SOL    HW131083  12.728   6.471   3.420
43062SOL    HW231084  12.695   6.612   3.374
43063SOL     OW31085  12.080   7.226   8.935
43063SOL    HW131086  12.141   7.210   9.007
43063SOL    HW231087  12.045   7.313   8.953
43064SOL     OW31088   4.629   0.020  13.237
43064SOL    HW131089   4.725   0.020  13.241
43064SOL    HW231090   4.605   0.113  13.239
43065SOL     OW31091   6.671   0.071   6.288
43065SOL    HW131092   6.677   0.166   6.296
43065SOL    HW231093   6.577   0.052   6.293
43066SOL     OW31094   8.717   9.925   3.331
43066SOL    HW131095   8.652   9.985   3.369
43066SOL    HW231096   8.706   9.934   3.237
43067SOL     OW31097   6.303  12.509   5.794
43067SOL    HW131098   6.338  12.596   5.815
43067SOL    HW231099   6.370  12.448   5.824
43068SOL     OW31100   6.615   6.257   1.740
43068SOL    HW131101   6.553   6.230   1.673
43068SOL    HW231102   6.564   6.313   1.799
43069SOL     OW31103   8.714  12.348  10.535
43069SOL    HW131104   8.666  12.368  10.454
43069SOL    HW231105   8.647  12.353  10.604
43070SOL     OW31106  14.772   5.801  11.839
43070SOL    HW131107  14.706   5.766  11.900
43070SOL    HW231108  14.766   5.896  11.850
43071SOL     OW31109   0.862   8.331  10.181
43071SOL    HW131110   0.866   8.427  10.170
43071SOL    HW231111   0.797   8.303  10.116
43072SOL     OW31112   8.151   8.428   9.812
43072SOL    HW131113   8.069   8.404   9.856
43072SOL    HW231114   8.125   8.495   9.749
43073SOL     OW31115   5.493   7.096   7.741
43073SOL    HW131116   5.417   7.050   7.706
43073SOL    HW231117   5.458   7.149   7.813
43074SOL     OW31118   4.646  11.866   9.125
43074SOL    HW131119   4.561  11.855   9.084
43074SOL    HW231120   4.661  11.783   9.171
43075SOL     OW31121   8.424   2.425   0.268
43075SOL    HW131122   8.503   2.407   0.217
43075SOL    HW231123   8.435   2.516   0.298
43076SOL     OW31124   0.926   9.052   1.793
43076SOL    HW131125   0.994   8.992   1.762
43076SOL    HW231126   0.960   9.139   1.773
43077SOL     OW31127  11.291   7.447   4.839
43077SOL    HW131128  11.339   7.524   4.869
43077SOL    HW231129  11.225   7.431   4.907
43078SOL     OW31130  14.235  11.196   7.227
43078SOL    HW131131  14.280  11.124   7.184
43078SOL    HW231132  14.228  11.264   7.160
43079SOL     OW31133   6.563   2.617   7.827
43079SOL    HW131134   6.645   2.576   7.855
43079SOL    HW231135   6.569   2.620   7.731
43080SOL     OW31136  11.932   7.759   3.362
43080SOL    HW131137  11.963   7.708   3.288
43080SOL    HW231138  11.865   7.704   3.403
43081SOL     OW31139   6.431   4.421   3.023
43081SOL    HW131140   6.452   4.464   2.940
43081SOL    HW231141   6.488   4.345   3.026
43082SOL     OW31142   2.789  11.106   3.669
43082SOL    HW131143   2.881  11.101   3.694
43082SOL    HW231144   2.748  11.032   3.713
43083SOL     OW31145   5.340   6.246   1.158
43083SOL    HW131146   5.378   6.226   1.072
43083SOL    HW231147   5.343   6.163   1.206
43084SOL     OW31148   1.408  10.632   8.244
43084SOL    HW131149   1.384  10.725   8.246
43084SOL    HW231150   1.393  10.605   8.154
43085SOL     OW31151  10.633   0.709  14.831
43085SOL    HW131152  10.693   0.634  14.830
43085SOL    HW231153  10.546   0.670  14.817
43086SOL     OW31154   9.112  10.240  11.309
43086SOL    HW131155   9.104  10.173  11.242
43086SOL    HW231156   9.027  10.240  11.353
43087SOL     OW31157  13.821   8.296  11.162
43087SOL    HW131158  13.876   8.218  11.156
43087SOL    HW231159  13.838   8.330  11.250
43088SOL     OW31160  12.402   6.871  11.323
43088SOL    HW131161  12.446   6.799  11.279
43088SOL    HW231162  12.361   6.921  11.253
43089SOL     OW31163  11.719   2.689  12.234
43089SOL    HW131164  11.666   2.761  12.201
43089SOL    HW231165  11.754   2.720  12.317
43090SOL     OW31166   7.236   6.687   2.420
43090SOL    HW131167   7.220   6.663   2.511
43090SOL    HW231168   7.322   6.730   2.422
43091SOL     OW31169  13.330  10.483  10.997
43091SOL    HW131170  13.315  10.436  11.079
43091SOL    HW231171  13.242  10.506  10.966
43092SOL     OW31172  11.739   2.715   0.594
43092SOL    HW131173  11.765   2.803   0.621
43092SOL    HW231174  11.822   2.667   0.585
43093SOL     OW31175   1.538  13.488   5.760
43093SOL    HW131176   1.486  13.409   5.766
43093SOL    HW231177   1.476  13.556   5.734
43094SOL     OW31178   6.805  13.351  12.839
43094SOL    HW131179   6.786  13.444  12.853
43094SOL    HW231180   6.760  13.330  12.757
43095SOL     OW31181   0.675  10.230   1.921
43095SOL    HW131182   0.679  10.186   1.836
43095SOL    HW231183   0.591  10.204   1.958
43096SOL     OW31184   5.494   1.014   6.319
43096SOL    HW131185   5.506   0.925   6.285
43096SOL    HW231186   5.435   1.003   6.393
43097SOL     OW31187   3.766  12.652   6.066
43097SOL    HW131188   3.687  12.697   6.095
43097SOL    HW231189   3.743  12.613   5.982
43098SOL     OW31190   9.899   9.672   7.879
43098SOL    HW131191   9.991   9.661   7.903
43098SOL    HW231192   9.898   9.660   7.784
43099SOL     OW31193   9.164  13.905   0.365
43099SOL    HW131194   9.135  13.985   0.409
43099SOL    HW231195   9.254  13.922   0.338
43100SOL     OW31196  13.014   2.481   5.531
43100SOL    HW131197  13.006   2.490   5.436
43100SOL    HW231198  13.037   2.568   5.562
43101SOL     OW31199   6.544  10.514   4.105
43101SOL    HW131200   6.511  10.456   4.174
43101SOL    HW231201   6.534  10.463   4.025
43102SOL     OW31202   6.754  14.545  14.669
43102SOL    HW131203   6.685  14.479  14.679
43102SOL    HW231204   6.795  14.524  14.585
43103SOL     OW31205  11.424   4.509   3.144
43103SOL    HW131206  11.356   4.479   3.204
43103SOL    HW231207  11.435   4.602   3.164
43104SOL     OW31208   2.538   9.452   4.020
43104SOL    HW131209   2.535   9.375   4.077
43104SOL    HW231210   2.524   9.526   4.080
43105SOL     OW31211   2.060   6.409   7.338
43105SOL    HW131212   1.996   6.407   7.410
43105SOL    HW231213   2.006   6.403   7.259
43106SOL     OW31214  11.599  12.414  13.710
43106SOL    HW131215  11.524  12.455  13.753
43106SOL    HW231216  11.667  12.410  13.777
43107SOL     OW31217   3.766  13.527   4.702
43107SOL    HW131218   3.757  13.453   4.762
43107SOL    HW231219   3.758  13.605   4.758
43108SOL     OW31220   4.247   4.529   8.146
43108SOL    HW131221   4.189   4.476   8.201
43108SOL    HW231222   4.288   4.465   8.088
43109SOL     OW31223   3.064   4.892   4.131
43109SOL    HW131224   3.038   4.827   4.065
43109SOL    HW231225   2.998   4.882   4.200
43110SOL     OW31226   8.642   9.560  14.664
43110SOL    HW131227   8.652   9.636  14.721
43110SOL    HW231228   8.708   9.497  14.694
43111SOL     OW31229  13.604  11.210  11.076
43111SOL    HW131230  13.572  11.247  10.994
43111SOL    HW231231  13.622  11.118  11.057
43112SOL     OW31232  13.417   9.175   1.134
43112SOL    HW131233  13.326   9.161   1.106
43112SOL    HW231234  13.466   9.103   1.094
43113SOL     OW31235  10.337   5.151   6.515
43113SOL    HW131236  10.292   5.216   6.462
43113SOL    HW231237  10.368   5.085   6.452
43114SOL     OW31238   9.756   5.969   9.009
43114SOL    HW131239   9.839   5.988   9.054
43114SOL    HW231240   9.697   5.942   9.079
43115SOL     OW31241   9.297   1.750  12.230
43115SOL    HW131242   9.274   1.840  12.206
43115SOL    HW231243   9.217   1.714  12.267
43116SOL     OW31244  13.644   5.889   7.753
43116SOL    HW131245  13.681   5.965   7.708
43116SOL    HW231246  13.715   5.857   7.808
43117SOL     OW31247   5.100   5.559   2.084
43117SOL    HW131248   5.007   5.563   2.065
43117SOL    HW231249   5.106   5.574   2.178
43118SOL     OW31250  14.752   6.515  10.498
43118SOL    HW131251  14.822   6.471  10.546
43118SOL    HW231252  14.672   6.491  10.544
43119SOL     OW31253  12.833   3.251  14.723
43119SOL    HW131254  12.850   3.168  14.677
43119SOL    HW231255  12.774   3.227  14.794
43120SOL     OW31256   8.660   8.683   7.991
43120SOL    HW131257   8.672   8.776   8.009
43120SOL    HW231258   8.607   8.651   8.063
43121SOL     OW31259   9.913   2.427   8.280
43121SOL    HW131260   9.950   2.511   8.306
43121SOL    HW231261   9.969   2.398   8.208
43122SOL     OW31262  10.542   7.622  10.612
43122SOL    HW131263  10.563   7.529  10.607
43122SOL    HW231264  10.557   7.655  10.524
43123SOL     OW31265   0.833  13.995  11.147
43123SOL    HW131266   0.892  13.946  11.203
43123SOL    HW231267   0.775  14.042  11.207
43124SOL     OW31268   2.584   4.832  14.848
43124SOL    HW131269   2.493   4.857  14.867
43124SOL    HW231270   2.636   4.902   0.000
43125SOL     OW31271  11.191  12.195   3.291
43125SOL    HW131272  11.122  12.211   3.227
43125SOL    HW231273  11.265  12.249   3.262
43126SOL     OW31274  10.357  10.497   4.306
43126SOL    HW131275  10.449  10.471   4.305
43126SOL    HW231276  10.354  10.575   4.249
43127SOL     OW31277   8.039   2.790   1.264
43127SOL    HW131278   8.053   2.804   1.171
43127SOL    HW231279   8.062   2.873   1.305
43128SOL     OW31280   5.388   2.641   8.112
43128SOL    HW131281   5.462   2.700   8.098
43128SOL    HW231282   5.321   2.696   8.152
43129SOL     OW31283  13.279   1.023  12.139
43129SOL    HW131284  13.283   0.927  12.136
43129SOL    HW231285  13.209   1.045  12.078
43130SOL     OW31286  13.983   0.656   8.035
43130SOL    HW131287  14.060   0.711   8.021
43130SOL    HW231288  14.015   0.567   8.024
43131SOL     OW31289   9.538  14.329  13.148
43131SOL    HW131290   9.478  14.276  13.095
43131SOL    HW231291   9.483  14.363  13.219
43132SOL     OW31292   9.539  13.566   8.067
43132SOL    HW131293   9.465  13.594   8.122
43132SOL    HW231294   9.559  13.477   8.097
43133SOL     OW31295   1.295   5.548   8.411
43133SOL    HW131296   1.284   5.460   8.445
43133SOL    HW231297   1.365   5.586   8.464
43134SOL     OW31298   6.825   7.102   5.350
43134SOL    HW131299   6.803   7.081   5.441
43134SOL    HW231300   6.862   7.190   5.354
43135SOL     OW31301   9.057   9.855  11.224
43135SOL    HW131302   9.023   9.922  11.165
43135SOL    HW231303   9.112   9.799  11.169
43136SOL     OW31304  14.050  10.378  14.151
43136SOL    HW131305  14.083  10.338  14.231
43136SOL    HW231306  14.025  10.467  14.177
43137SOL     OW31307   2.325   8.693  13.893
43137SOL    HW131308   2.236   8.683  13.928
43137SOL    HW231309   2.344   8.610  13.850
43138SOL     OW31310  10.399   7.416  13.695
43138SOL    HW131311  10.430   7.408  13.604
43138SOL    HW231312  10.433   7.501  13.724
43139SOL     OW31313   9.323   7.884   0.820
43139SOL    HW131314   9.267   7.829   0.766
43139SOL    HW231315   9.403   7.895   0.769
43140SOL     OW31316   3.938   6.477   6.678
43140SOL    HW131317   3.870   6.446   6.738
43140SOL    HW231318   3.949   6.407   6.614
43141SOL     OW31319  12.131  10.574   6.524
43141SOL    HW131320  12.120  10.485   6.556
43141SOL    HW231321  12.043  10.613   6.532
43142SOL     OW31322  12.132  12.893   1.480
43142SOL    HW131323  12.201  12.913   1.543
43142SOL    HW231324  12.096  12.979   1.457
43143SOL     OW31325   3.153  10.961  10.924
43143SOL    HW131326   3.168  10.908  11.002
43143SOL    HW231327   3.200  10.916  10.854
43144SOL     OW31328   2.907   0.731   0.418
43144SOL    HW131329   3.000   0.738   0.438
43144SOL    HW231330   2.867   0.695   0.497
43145SOL     OW31331   4.793   3.934  12.562
43145SOL    HW131332   4.861   3.898  12.505
43145SOL    HW231333   4.727   3.865  12.568
43146SOL     OW31334   7.368  10.126   2.784
43146SOL    HW131335   7.285  10.147   2.741
43146SOL    HW231336   7.417  10.077   2.717
43147SOL     OW31337   2.937   2.733   8.727
43147SOL    HW131338   2.911   2.789   8.654
43147SOL    HW231339   2.888   2.652   8.713
43148SOL     OW31340  14.169  14.352   4.411
43148SOL    HW131341  14.137  14.262   4.400
43148SOL    HW231342  14.264  14.344   4.418
43149SOL     OW31343   8.478   3.789  13.694
43149SOL    HW131344   8.457   3.860  13.755
43149SOL    HW231345   8.547   3.826  13.639
43150SOL     OW31346  14.107   7.258   4.185
43150SOL    HW131347  14.086   7.351   4.200
43150SOL    HW231348  14.107   7.219   4.272
43151SOL     OW31349   3.157  11.181   9.360
43151SOL    HW131350   3.154  11.120   9.434
43151SOL    HW231351   3.189  11.129   9.287
43152SOL     OW31352   6.981   5.574   7.357
43152SOL    HW131353   7.036   5.650   7.378
43152SOL    HW231354   6.915   5.574   7.426
43153SOL     OW31355   5.976  14.528  10.157
43153SOL    HW131356   5.943  14.617  10.169
43153SOL    HW231357   5.957  14.507  10.066
43154SOL     OW31358   7.590   8.689  11.722
43154SOL    HW131359   7.515   8.645  11.682
43154SOL    HW231360   7.553   8.769  11.759
43155SOL     OW31361   6.944   5.479   2.791
43155SOL    HW131362   6.938   5.398   2.841
43155SOL    HW231363   7.020   5.525   2.827
43156SOL     OW31364   1.798   7.182   7.026
43156SOL    HW131365   1.753   7.111   7.072
43156SOL    HW231366   1.847   7.228   7.094
43157SOL     OW31367  12.986  11.822   9.077
43157SOL    HW131368  12.903  11.777   9.059
43157SOL    HW231369  13.051  11.772   9.027
43158SOL     OW31370   5.963   9.553  14.587
43158SOL    HW131371   6.006   9.472  14.614
43158SOL    HW231372   5.944   9.598  14.669
43159SOL     OW31373   1.144   1.625  13.047
43159SOL    HW131374   1.142   1.533  13.072
43159SOL    HW231375   1.179   1.670  13.124
43160SOL     OW31376   8.444   0.053  12.125
43160SOL    HW131377   8.368   0.047  12.183
43160SOL    HW231378   8.513   0.091  12.180
43161SOL     OW31379  13.532   0.505   7.907
43161SOL    HW131380  13.465   0.462   7.854
43161SOL    HW231381  13.521   0.469   7.995
43162SOL     OW31382   9.671   9.401   3.098
43162SOL    HW131383   9.628   9.416   3.182
43162SOL    HW231384   9.755   9.448   3.106
43163SOL     OW31385   3.182  12.650   5.837
43163SOL    HW131386   3.162  12.556   5.842
43163SOL    HW231387   3.130  12.681   5.763
43164SOL     OW31388   4.303  12.131   6.514
43164SOL    HW131389   4.219  12.173   6.529
43164SOL    HW231390   4.300  12.104   6.422
43165SOL     OW31391   6.919   3.905  14.801
43165SOL    HW131392   6.875   3.877  14.721
43165SOL    HW231393   6.856   3.961  14.845
43166SOL     OW31394   9.614   6.941   4.257
43166SOL    HW131395   9.536   6.886   4.252
43166SOL    HW231396   9.581   7.030   4.258
43167SOL     OW31397   8.919   7.273  13.264
43167SOL    HW131398   8.963   7.314  13.339
43167SOL    HW231399   8.847   7.224  13.303
43168SOL     OW31400  14.627   7.776   9.515
43168SOL    HW131401  14.606   7.865   9.543
43168SOL    HW231402  14.578   7.720   9.574
43169SOL     OW31403   3.566  11.202  14.252
43169SOL    HW131404   3.611  11.123  14.224
43169SOL    HW231405   3.485  11.203  14.201
43170SOL     OW31406   5.995  13.563  12.719
43170SOL    HW131407   6.072  13.619  12.708
43170SOL    HW231408   6.030  13.474  12.725
43171SOL     OW31409   7.174   3.868   1.102
43171SOL    HW131410   7.170   3.963   1.090
43171SOL    HW231411   7.112   3.833   1.039
43172SOL     OW31412  12.376  14.314  11.631
43172SOL    HW131413  12.392  14.238  11.688
43172SOL    HW231414  12.308  14.285  11.570
43173SOL     OW31415  13.853   7.400   7.870
43173SOL    HW131416  13.803   7.475   7.837
43173SOL    HW231417  13.892   7.361   7.792
43174SOL     OW31418  10.849   8.717  12.134
43174SOL    HW131419  10.940   8.716  12.105
43174SOL    HW231420  10.804   8.661  12.071
43175SOL     OW31421   2.049  10.010   1.184
43175SOL    HW131422   2.143  10.010   1.170
43175SOL    HW231423   2.023  10.102   1.174
43176SOL     OW31424  10.904   2.021   3.526
43176SOL    HW131425  10.940   2.064   3.603
43176SOL    HW231426  10.899   1.928   3.550
43177SOL     OW31427   2.094   8.229   3.646
43177SOL    HW131428   2.165   8.187   3.696
43177SOL    HW231429   2.086   8.176   3.567
43178SOL     OW31430   4.142  11.923  11.981
43178SOL    HW131431   4.151  11.994  12.044
43178SOL    HW231432   4.223  11.873  11.990
43179SOL     OW31433   4.715   5.243  12.189
43179SOL    HW131434   4.640   5.200  12.148
43179SOL    HW231435   4.676   5.291  12.263
43180SOL     OW31436   5.273  10.025  11.547
43180SOL    HW131437   5.199  10.084  11.555
43180SOL    HW231438   5.236   9.938  11.556
43181SOL     OW31439   4.561   4.885  13.067
43181SOL    HW131440   4.555   4.887  13.163
43181SOL    HW231441   4.655   4.877  13.050
43182SOL     OW31442  11.087   2.930   5.248
43182SOL    HW131443  11.131   3.007   5.211
43182SOL    HW231444  11.013   2.915   5.191
43183SOL     OW31445  10.798   9.601   2.459
43183SOL    HW131446  10.791   9.620   2.366
43183SOL    HW231447  10.885   9.563   2.469
43184SOL     OW31448   7.074  11.738  12.199
43184SOL    HW131449   7.168  11.749  12.183
43184SOL    HW231450   7.034  11.815  12.158
43185SOL     OW31451   1.610   3.883  13.563
43185SOL    HW131452   1.525   3.923  13.580
43185SOL    HW231453   1.657   3.948  13.510
43186SOL     OW31454   4.594  11.585  12.501
43186SOL    HW131455   4.508  11.560  12.467
43186SOL    HW231456   4.627  11.506  12.543
43187SOL     OW31457   4.606  12.270  14.629
43187SOL    HW131458   4.592  12.181  14.597
43187SOL    HW231459   4.695  12.291  14.602
43188SOL     OW31460   7.243   4.569   3.383
43188SOL    HW131461   7.224   4.616   3.464
43188SOL    HW231462   7.322   4.611   3.349
43189SOL     OW31463  13.631   8.460  14.538
43189SOL    HW131464  13.539   8.482  14.522
43189SOL    HW231465  13.647   8.384  14.483
43190SOL     OW31466   6.812   2.440   7.734
43190SOL    HW131467   6.768   2.430   7.649
43190SOL    HW231468   6.814   2.351   7.770
43191SOL     OW31469   5.034  10.669  12.782
43191SOL    HW131470   5.027  10.764  12.794
43191SOL    HW231471   5.005  10.654  12.692
43192SOL     OW31472   2.858  13.643  11.238
43192SOL    HW131473   2.904  13.561  11.253
43192SOL    HW231474   2.804  13.655  11.317
43193SOL     OW31475   5.316   8.724   5.032
43193SOL    HW131476   5.340   8.774   4.954
43193SOL    HW231477   5.221   8.717   5.029
43194SOL     OW31478   1.005  10.520   0.065
43194SOL    HW131479   0.921  10.523   0.020
43194SOL    HW231480   1.000  10.589   0.131
43195SOL     OW31481   6.210   1.941   1.198
43195SOL    HW131482   6.221   1.871   1.135
43195SOL    HW231483   6.198   2.020   1.145
43196SOL     OW31484   5.484   6.390   7.183
43196SOL    HW131485   5.418   6.401   7.252
43196SOL    HW231486   5.564   6.426   7.221
43197SOL     OW31487   7.332   0.547   3.896
43197SOL    HW131488   7.376   0.619   3.850
43197SOL    HW231489   7.273   0.509   3.831
43198SOL     OW31490  12.593  12.618  10.104
43198SOL    HW131491  12.542  12.543  10.136
43198SOL    HW231492  12.610  12.598  10.013
43199SOL     OW31493   2.855   4.966  12.567
43199SOL    HW131494   2.910   4.964  12.489
43199SOL    HW231495   2.889   4.896  12.622
43200SOL     OW31496   1.172   4.487   8.556
43200SOL    HW131497   1.114   4.449   8.491
43200SOL    HW231498   1.187   4.418   8.620
43201SOL     OW31499  14.609   8.640   4.232
43201SOL    HW131500  14.547   8.583   4.187
43201SOL    HW231501  14.599   8.725   4.189
43202SOL     OW31502   4.188   6.375   1.662
43202SOL    HW131503   4.220   6.340   1.746
43202SOL    HW231504   4.136   6.304   1.625
43203SOL     OW31505   7.595   0.567  14.868
43203SOL    HW131506   7.508   0.575  14.828
43203SOL    HW231507   7.582   0.593   0.072
43204SOL     OW31508   1.743   9.501   9.016
43204SOL    HW131509   1.838   9.495   9.021
43204SOL    HW231510   1.716   9.534   9.101
43205SOL     OW31511   9.570  10.857   7.476
43205SOL    HW131512   9.593  10.923   7.541
43205SOL    HW231513   9.603  10.775   7.512
43206SOL     OW31514   7.639  13.891  12.827
43206SOL    HW131515   7.648  13.951  12.901
43206SOL    HW231516   7.686  13.933  12.755
43207SOL     OW31517   9.776   4.574   0.444
43207SOL    HW131518   9.738   4.595   0.359
43207SOL    HW231519   9.703   4.584   0.506
43208SOL     OW31520   6.332   4.062  13.831
43208SOL    HW131521   6.241   4.059  13.860
43208SOL    HW231522   6.359   3.971  13.825
43209SOL     OW31523   6.163   0.020   7.803
43209SOL    HW131524   6.121   0.085   7.746
43209SOL    HW231525   6.257   0.035   7.791
43210SOL     OW31526  13.417   5.603  10.836
43210SOL    HW131527  13.461   5.579  10.917
43210SOL    HW231528  13.331   5.633  10.863
43211SOL     OW31529  14.573   5.945   9.181
43211SOL    HW131530  14.532   5.983   9.104
43211SOL    HW231531  14.530   5.988   9.255
43212SOL     OW31532   9.451  12.433   4.636
43212SOL    HW131533   9.499  12.360   4.673
43212SOL    HW231534   9.380  12.392   4.586
43213SOL     OW31535   1.316   3.348   7.035
43213SOL    HW131536   1.227   3.345   7.000
43213SOL    HW231537   1.362   3.277   6.991
43214SOL     OW31538   6.609   9.321   8.863
43214SOL    HW131539   6.523   9.279   8.857
43214SOL    HW231540   6.616   9.347   8.955
43215SOL     OW31541  10.120   0.865   0.050
43215SOL    HW131542  10.100   0.893  14.848
43215SOL    HW231543  10.076   0.781   0.059
43216SOL     OW31544   8.501  10.269   9.450
43216SOL    HW131545   8.445  10.244   9.376
43216SOL    HW231546   8.582  10.220   9.435
43217SOL     OW31547  12.706   6.083  12.011
43217SOL    HW131548  12.783   6.138  12.029
43217SOL    HW231549  12.706   6.073  11.916
43218SOL     OW31550   2.708  10.518   5.815
43218SOL    HW131551   2.701  10.491   5.724
43218SOL    HW231552   2.627  10.566   5.832
43219SOL     OW31553   9.526   5.754   1.072
43219SOL    HW131554   9.478   5.707   1.141
43219SOL    HW231555   9.603   5.789   1.117
43220SOL     OW31556   9.370   9.014   9.950
43220SOL    HW131557   9.416   9.016  10.034
43220SOL    HW231558   9.438   8.996   9.886
43221SOL     OW31559   8.886   2.810   7.220
43221SOL    HW131560   8.811   2.867   7.205
43221SOL    HW231561   8.852   2.739   7.275
43222SOL     OW31562   5.325  13.789   0.545
43222SOL    HW131563   5.377  13.865   0.573
43222SOL    HW231564   5.289  13.815   0.460
43223SOL     OW31565   2.173   3.981   9.418
43223SOL    HW131566   2.139   3.956   9.332
43223SOL    HW231567   2.150   4.073   9.427
43224SOL     OW31568   6.001  10.666   1.341
43224SOL    HW131569   6.089  10.669   1.377
43224SOL    HW231570   6.014  10.652   1.247
43225SOL     OW31571   8.370  13.645  11.123
43225SOL    HW131572   8.283  13.607  11.116
43225SOL    HW231573   8.430  13.571  11.109
43226SOL     OW31574   1.836   3.347   1.384
43226SOL    HW131575   1.802   3.374   1.469
43226SOL    HW231576   1.899   3.277   1.404
43227SOL     OW31577   8.762   9.713   8.832
43227SOL    HW131578   8.706   9.684   8.760
43227SOL    HW231579   8.846   9.670   8.815
43228SOL     OW31580   8.025   1.497   3.196
43228SOL    HW131581   8.096   1.472   3.136
43228SOL    HW231582   8.030   1.592   3.202
43229SOL     OW31583   5.138  12.111   5.307
43229SOL    HW131584   5.133  12.163   5.226
43229SOL    HW231585   5.064  12.050   5.300
43230SOL     OW31586   1.978   4.470  11.240
43230SOL    HW131587   2.016   4.521  11.312
43230SOL    HW231588   2.047   4.469  11.174
43231SOL     OW31589  11.401   4.589   8.844
43231SOL    HW131590  11.390   4.574   8.938
43231SOL    HW231591  11.322   4.553   8.804
43232SOL     OW31592   5.903  13.566   3.968
43232SOL    HW131593   5.973  13.624   3.939
43232SOL    HW231594   5.905  13.571   4.063
43233SOL     OW31595   9.800   7.826   1.446
43233SOL    HW131596   9.760   7.908   1.418
43233SOL    HW231597   9.761   7.808   1.532
43234SOL     OW31598   4.721  12.280  12.239
43234SOL    HW131599   4.699  12.222  12.312
43234SOL    HW231600   4.779  12.228  12.184
43235SOL     OW31601  13.228   9.768  11.880
43235SOL    HW131602  13.236   9.672  11.881
43235SOL    HW231603  13.145   9.785  11.837
43236SOL     OW31604   5.661   1.238   9.749
43236SOL    HW131605   5.713   1.312   9.781
43236SOL    HW231606   5.600   1.219   9.820
43237SOL     OW31607   3.848   9.130  12.771
43237SOL    HW131608   3.761   9.164  12.749
43237SOL    HW231609   3.864   9.162  12.860
43238SOL     OW31610   6.095   2.095   9.579
43238SOL    HW131611   6.178   2.046   9.575
43238SOL    HW231612   6.116   2.173   9.630
43239SOL     OW31613   9.296   7.111  14.752
43239SOL    HW131614   9.246   7.033  14.778
43239SOL    HW231615   9.379   7.076  14.720
43240SOL     OW31616   2.904   3.700   4.670
43240SOL    HW131617   2.857   3.620   4.645
43240SOL    HW231618   2.982   3.699   4.615
43241SOL     OW31619   4.745   7.501  14.724
43241SOL    HW131620   4.677   7.447  14.765
43241SOL    HW231621   4.827   7.462  14.753
43242SOL     OW31622  11.433   7.290   4.658
43242SOL    HW131623  11.377   7.287   4.581
43242SOL    HW231624  11.389   7.350   4.718
43243SOL     OW31625   2.033  11.973   8.413
43243SOL    HW131626   2.107  12.006   8.362
43243SOL    HW231627   1.969  12.044   8.411
43244SOL     OW31628   1.734   0.622  14.157
43244SOL    HW131629   1.688   0.689  14.107
43244SOL    HW231630   1.779   0.670  14.226
43245SOL     OW31631   1.457   0.845  13.534
43245SOL    HW131632   1.453   0.907  13.607
43245SOL    HW231633   1.491   0.897  13.461
43246SOL     OW31634   8.781  14.579   1.343
43246SOL    HW131635   8.766  14.502   1.398
43246SOL    HW231636   8.703  14.633   1.356
43247SOL     OW31637   4.541  14.779  10.907
43247SOL    HW131638   4.610  14.731  10.952
43247SOL    HW231639   4.495  14.712  10.856
43248SOL     OW31640   4.725   9.279  14.243
43248SOL    HW131641   4.662   9.210  14.224
43248SOL    HW231642   4.804   9.252  14.197
43249SOL     OW31643  10.828   1.362   9.251
43249SOL    HW131644  10.836   1.303   9.176
43249SOL    HW231645  10.748   1.332   9.296
43250SOL     OW31646   9.556  14.825  11.430
43250SOL    HW131647   9.482  14.770  11.408
43250SOL    HW231648   9.602  14.837  11.347
43251SOL     OW31649  10.892   3.869  12.286
43251SOL    HW131650  10.927   3.780  12.283
43251SOL    HW231651  10.817   3.867  12.227
43252SOL     OW31652  13.149   1.757   8.522
43252SOL    HW131653  13.125   1.846   8.494
43252SOL    HW231654  13.243   1.761   8.540
43253SOL     OW31655   6.527   0.004   3.139
43253SOL    HW131656   6.575   0.070   3.189
43253SOL    HW231657   6.464  14.855   3.200
43254SOL     OW31658  10.245   9.850  10.293
43254SOL    HW131659  10.301   9.848  10.215
43254SOL    HW231660  10.256   9.763  10.332
43255SOL     OW31661   4.769   0.934  12.490
43255SOL    HW131662   4.841   0.873  12.510
43255SOL    HW231663   4.709   0.925  12.564
43256SOL     OW31664  10.740   7.941   4.690
43256SOL    HW131665  10.793   7.988   4.755
43256SOL    HW231666  10.706   8.010   4.633
43257SOL     OW31667   1.589  12.948   0.813
43257SOL    HW131668   1.554  12.886   0.877
43257SOL    HW231669   1.511  12.995   0.781
43258SOL     OW31670   0.475   3.169  10.069
43258SOL    HW131671   0.388   3.199  10.092
43258SOL    HW231672   0.470   3.151   9.975
43259SOL     OW31673  12.854  12.915   6.990
43259SOL    HW131674  12.896  12.838   6.953
43259SOL    HW231675  12.863  12.904   7.085
43260SOL     OW31676   9.419   5.851  13.595
43260SOL    HW131677   9.435   5.938  13.557
43260SOL    HW231678   9.454   5.857  13.684
43261SOL     OW31679   1.640   7.215   9.627
43261SOL    HW131680   1.603   7.127   9.634
43261SOL    HW231681   1.709   7.206   9.562
43262SOL     OW31682   7.475  10.177   0.629
43262SOL    HW131683   7.450  10.266   0.604
43262SOL    HW231684   7.434  10.121   0.564
43263SOL     OW31685  14.316   2.134   1.255
43263SOL    HW131686  14.291   2.077   1.327
43263SOL    HW231687  14.357   2.075   1.191
43264SOL     OW31688  14.139  11.069   6.872
43264SOL    HW131689  14.075  11.049   6.940
43264SOL    HW231690  14.127  11.001   6.805
43265SOL     OW31691   4.954   7.255   9.159
43265SOL    HW131692   5.041   7.293   9.153
43265SOL    HW231693   4.943   7.208   9.077
43266SOL     OW31694  12.514   1.500   5.359
43266SOL    HW131695  12.429   1.454   5.359
43266SOL    HW231696  12.492   1.591   5.376
43267SOL     OW31697   3.373  13.841  14.560
43267SOL    HW131698   3.382  13.864  14.468
43267SOL    HW231699   3.280  13.855  14.580
43268SOL     OW31700   2.807   7.386  11.878
43268SOL    HW131701   2.759   7.310  11.845
43268SOL    HW231702   2.763   7.407  11.961
43269SOL     OW31703   5.126   4.923  13.522
43269SOL    HW131704   5.194   4.956  13.463
43269SOL    HW231705   5.083   4.854  13.471
43270SOL     OW31706   3.791   6.330   5.821
43270SOL    HW131707   3.735   6.291   5.888
43270SOL    HW231708   3.773   6.278   5.742
43271SOL     OW31709  11.861   0.394   9.582
43271SOL    HW131710  11.914   0.321   9.551
43271SOL    HW231711  11.820   0.429   9.504
43272SOL     OW31712  11.961  14.489   7.997
43272SOL    HW131713  12.008  14.518   8.076
43272SOL    HW231714  12.025  14.436   7.949
43273SOL     OW31715   0.665   2.580   9.431
43273SOL    HW131716   0.616   2.509   9.473
43273SOL    HW231717   0.736   2.535   9.384
43274SOL     OW31718  11.501   1.458  10.974
43274SOL    HW131719  11.414   1.496  10.960
43274SOL    HW231720  11.484   1.365  10.986
43275SOL     OW31721   4.056   3.434  11.407
43275SOL    HW131722   4.045   3.367  11.474
43275SOL    HW231723   4.115   3.395  11.343
43276SOL     OW31724  10.491  11.157  14.134
43276SOL    HW131725  10.415  11.198  14.175
43276SOL    HW231726  10.513  11.215  14.061
43277SOL     OW31727   5.234  10.937  11.788
43277SOL    HW131728   5.304  10.931  11.723
43277SOL    HW231729   5.211  10.846  11.806
43278SOL     OW31730   3.315  12.679   9.098
43278SOL    HW131731   3.321  12.766   9.137
43278SOL    HW231732   3.364  12.685   9.016
43279SOL     OW31733  12.628   6.228  10.200
43279SOL    HW131734  12.704   6.269  10.159
43279SOL    HW231735  12.577   6.302  10.234
43280SOL     OW31736  13.561   4.565  11.504
43280SOL    HW131737  13.468   4.545  11.510
43280SOL    HW231738  13.569   4.619  11.425
43281SOL     OW31739  11.914  10.106   8.737
43281SOL    HW131740  11.886  10.120   8.647
43281SOL    HW231741  11.835  10.124   8.789
43282SOL     OW31742   1.078  12.384  13.579
43282SOL    HW131743   1.018  12.386  13.505
43282SOL    HW231744   1.048  12.311  13.633
43283SOL     OW31745  10.348   0.436   3.731
43283SOL    HW131746  10.280   0.491   3.691
43283SOL    HW231747  10.429   0.466   3.690
43284SOL     OW31748  11.663  11.369   0.287
43284SOL    HW131749  11.713  11.291   0.314
43284SOL    HW231750  11.590  11.372   0.349
43285SOL     OW31751   4.353   5.503  14.305
43285SOL    HW131752   4.283   5.499  14.370
43285SOL    HW231753   4.396   5.586  14.322
43286SOL     OW31754  11.678   0.673   2.853
43286SOL    HW131755  11.584   0.660   2.835
43286SOL    HW231756  11.697   0.760   2.819
43287SOL     OW31757   5.541   2.256   5.306
43287SOL    HW131758   5.514   2.309   5.380
43287SOL    HW231759   5.630   2.287   5.286
43288SOL     OW31760   7.588   1.324   7.818
43288SOL    HW131761   7.682   1.312   7.821
43288SOL    HW231762   7.564   1.304   7.727
43289SOL     OW31763   0.381   1.480   0.909
43289SOL    HW131764   0.356   1.567   0.877
43289SOL    HW231765   0.303   1.426   0.895
43290SOL     OW31766   6.888   4.376  10.481
43290SOL    HW131767   6.937   4.385  10.563
43290SOL    HW231768   6.798   4.399  10.504
43291SOL     OW31769  10.501  13.779   2.563
43291SOL    HW131770  10.524  13.772   2.470
43291SOL    HW231771  10.580  13.752   2.610
43292SOL     OW31772   6.842   7.573  11.224
43292SOL    HW131773   6.755   7.548  11.193
43292SOL    HW231774   6.860   7.656  11.180
43293SOL     OW31775   8.468   8.423   2.077
43293SOL    HW131776   8.492   8.491   2.140
43293SOL    HW231777   8.468   8.342   2.128
43294SOL     OW31778  12.608   0.722   4.988
43294SOL    HW131779  12.664   0.775   4.932
43294SOL    HW231780  12.658   0.642   5.005
43295SOL     OW31781   9.479  12.202   5.190
43295SOL    HW131782   9.495  12.191   5.096
43295SOL    HW231783   9.390  12.168   5.203
43296SOL     OW31784  11.321   2.676  11.939
43296SOL    HW131785  11.340   2.583  11.922
43296SOL    HW231786  11.225   2.680  11.944
43297SOL     OW31787   2.478   1.070   2.472
43297SOL    HW131788   2.463   1.053   2.565
43297SOL    HW231789   2.492   1.165   2.467
43298SOL     OW31790   6.138   3.415  10.278
43298SOL    HW131791   6.177   3.397  10.193
43298SOL    HW231792   6.044   3.421  10.261
43299SOL     OW31793   6.335   2.316   2.928
43299SOL    HW131794   6.284   2.380   2.978
43299SOL    HW231795   6.396   2.279   2.992
43300SOL     OW31796  14.034   8.346   5.361
43300SOL    HW131797  13.986   8.318   5.439
43300SOL    HW231798  14.121   8.370   5.394
43301SOL     OW31799  12.141  13.383  10.415
43301SOL    HW131800  12.202  13.409  10.347
43301SOL    HW231801  12.071  13.449  10.411
43302SOL     OW31802  14.660  10.807   9.756
43302SOL    HW131803  14.599  10.881   9.750
43302SOL    HW231804  14.610  10.739   9.801
43303SOL     OW31805   0.114   5.616   2.337
43303SOL    HW131806   0.054   5.656   2.274
43303SOL    HW231807   0.092   5.523   2.335
43304SOL     OW31808   5.991  10.450   9.404
43304SOL    HW131809   5.944  10.524   9.443
43304SOL    HW231810   5.991  10.383   9.472
43305SOL     OW31811   4.282  12.592   6.049
43305SOL    HW131812   4.240  12.640   6.120
43305SOL    HW231813   4.268  12.500   6.070
43306SOL     OW31814   4.504   6.290   0.582
43306SOL    HW131815   4.431   6.294   0.519
43306SOL    HW231816   4.574   6.245   0.534
43307SOL     OW31817  11.776   1.260   2.264
43307SOL    HW131818  11.792   1.341   2.215
43307SOL    HW231819  11.860   1.238   2.304
43308SOL     OW31820   2.496  10.728  14.832
43308SOL    HW131821   2.439  10.660  14.867
43308SOL    HW231822   2.546  10.759   0.020
43309SOL     OW31823  14.843   9.062  12.449
43309SOL    HW131824  14.887   9.096  12.528
43309SOL    HW231825  14.796   9.138  12.414
43310SOL     OW31826   4.506   7.335   1.032
43310SOL    HW131827   4.455   7.258   1.057
43310SOL    HW231828   4.460   7.408   1.074
43311SOL     OW31829   9.861  13.966  12.111
43311SOL    HW131830   9.921  14.036  12.084
43311SOL    HW231831   9.891  13.889  12.061
43312SOL     OW31832   2.334  10.824   7.524
43312SOL    HW131833   2.358  10.733   7.540
43312SOL    HW231834   2.239  10.822   7.511
43313SOL     OW31835  11.751   0.851  14.163
43313SOL    HW131836  11.682   0.878  14.223
43313SOL    HW231837  11.823   0.825  14.219
43314SOL     OW31838  13.615   4.169  11.662
43314SOL    HW131839  13.593   4.076  11.663
43314SOL    HW231840  13.709   4.171  11.679
43315SOL     OW31841   1.996  11.500   4.574
43315SOL    HW131842   1.944  11.482   4.653
43315SOL    HW231843   2.045  11.579   4.596
43316SOL     OW31844   0.816  10.464  12.850
43316SOL    HW131845   0.760  10.504  12.916
43316SOL    HW231846   0.905  10.494  12.873
43317SOL     OW31847  10.558   2.166   2.013
43317SOL    HW131848  10.549   2.249   2.060
43317SOL    HW231849  10.484   2.113   2.044
43318SOL     OW31850   3.638   1.892   2.783
43318SOL    HW131851   3.648   1.850   2.868
43318SOL    HW231852   3.552   1.864   2.752
43319SOL     OW31853  10.889   2.640   4.067
43319SOL    HW131854  10.866   2.646   3.974
43319SOL    HW231855  10.964   2.582   4.069
43320SOL     OW31856   3.560   2.040   5.213
43320SOL    HW131857   3.513   1.980   5.154
43320SOL    HW231858   3.580   1.988   5.290
43321SOL     OW31859   1.432   6.554   0.475
43321SOL    HW131860   1.393   6.472   0.506
43321SOL    HW231861   1.519   6.529   0.442
43322SOL     OW31862  11.943  10.258   6.541
43322SOL    HW131863  12.013  10.254   6.605
43322SOL    HW231864  11.864  10.234   6.590
43323SOL     OW31865  14.190  11.458   6.661
43323SOL    HW131866  14.135  11.474   6.738
43323SOL    HW231867  14.128  11.432   6.592
43324SOL     OW31868   2.718  14.497  12.396
43324SOL    HW131869   2.766  14.578  12.378
43324SOL    HW231870   2.696  14.502  12.489
43325SOL     OW31871  10.686   4.976  11.419
43325SOL    HW131872  10.655   4.889  11.444
43325SOL    HW231873  10.742   5.003  11.492
43326SOL     OW31874   8.881  14.712   3.295
43326SOL    HW131875   8.974  14.725   3.313
43326SOL    HW231876   8.879  14.668   3.210
43327SOL     OW31877   7.414   2.282   5.093
43327SOL    HW131878   7.483   2.256   5.154
43327SOL    HW231879   7.385   2.201   5.053
43328SOL     OW31880  11.867  13.981   1.663
43328SOL    HW131881  11.874  13.929   1.583
43328SOL    HW231882  11.866  13.917   1.734
43329SOL     OW31883  14.594  12.961   6.034
43329SOL    HW131884  14.573  13.050   6.060
43329SOL    HW231885  14.675  12.940   6.079
43330SOL     OW31886   7.473   5.417   1.540
43330SOL    HW131887   7.478   5.365   1.460
43330SOL    HW231888   7.560   5.408   1.580
43331SOL     OW31889   1.767   7.040   5.377
43331SOL    HW131890   1.713   7.022   5.454
43331SOL    HW231891   1.722   6.996   5.305
43332SOL     OW31892   6.167   1.400   9.168
43332SOL    HW131893   6.256   1.374   9.192
43332SOL    HW231894   6.163   1.494   9.189
43333SOL     OW31895   8.613   0.198   5.164
43333SOL    HW131896   8.616   0.114   5.118
43333SOL    HW231897   8.660   0.258   5.106
43334SOL     OW31898   7.344   5.667   7.162
43334SOL    HW131899   7.312   5.622   7.084
43334SOL    HW231900   7.269   5.718   7.194
43335SOL     OW31901   3.343   4.267   0.013
43335SOL    HW131902   3.354   4.231  14.812
43335SOL    HW231903   3.258   4.235   0.042
43336SOL     OW31904  12.520  14.474   8.999
43336SOL    HW131905  12.485  14.402   8.946
43336SOL    HW231906  12.446  14.501   9.054
43337SOL     OW31907   7.756   3.917   7.096
43337SOL    HW131908   7.761   3.931   7.190
43337SOL    HW231909   7.809   3.838   7.081
43338SOL     OW31910   2.618   1.746   5.787
43338SOL    HW131911   2.645   1.830   5.824
43338SOL    HW231912   2.643   1.682   5.853
43339SOL     OW31913   5.253   0.189  13.290
43339SOL    HW131914   5.310   0.113  13.294
43339SOL    HW231915   5.305   0.260  13.327
43340SOL     OW31916   3.449   7.687  11.432
43340SOL    HW131917   3.409   7.625  11.371
43340SOL    HW231918   3.477   7.760  11.377
43341SOL     OW31919   9.166  14.877   6.795
43341SOL    HW131920   9.136   0.072   6.832
43341SOL    HW231921   9.087  14.825   6.784
43342SOL     OW31922  10.750   2.242  10.612
43342SOL    HW131923  10.667   2.278  10.579
43342SOL    HW231924  10.816   2.274  10.551
43343SOL     OW31925  11.936  14.092  14.228
43343SOL    HW131926  11.861  14.033  14.221
43343SOL    HW231927  11.902  14.176  14.196
43344SOL     OW31928   7.740  13.066  14.516
43344SOL    HW131929   7.682  13.090  14.589
43344SOL    HW231930   7.737  13.142  14.457
43345SOL     OW31931   9.631   6.167   7.013
43345SOL    HW131932   9.713   6.117   7.008
43345SOL    HW231933   9.562   6.101   7.009
43346SOL     OW31934   2.121   3.183   4.864
43346SOL    HW131935   2.134   3.278   4.867
43346SOL    HW231936   2.026   3.171   4.855
43347SOL     OW31937   2.270   4.686   3.346
43347SOL    HW131938   2.234   4.772   3.325
43347SOL    HW231939   2.193   4.629   3.356
43348SOL     OW31940   1.333   3.405   9.298
43348SOL    HW131941   1.259   3.402   9.238
43348SOL    HW231942   1.331   3.492   9.336
43349SOL     OW31943   0.397   8.608   7.541
43349SOL    HW131944   0.453   8.647   7.607
43349SOL    HW231945   0.311   8.649   7.553
43350SOL     OW31946   5.319   3.288   0.799
43350SOL    HW131947   5.303   3.341   0.721
43350SOL    HW231948   5.276   3.336   0.870
43351SOL     OW31949  12.375   0.050  13.570
43351SOL    HW131950  12.350   0.121  13.629
43351SOL    HW231951  12.350   0.081  13.483
43352SOL     OW31952   6.450  14.544   4.124
43352SOL    HW131953   6.545  14.556   4.123
43352SOL    HW231954   6.437  14.457   4.162
43353SOL     OW31955   5.647   1.466  14.166
43353SOL    HW131956   5.711   1.517  14.116
43353SOL    HW231957   5.564   1.510  14.149
43354SOL     OW31958   1.721   0.739  14.720
43354SOL    HW131959   1.726   0.734  14.815
43354SOL    HW231960   1.637   0.783  14.703
43355SOL     OW31961   5.080   8.135  13.564
43355SOL    HW131962   5.041   8.085  13.492
43355SOL    HW231963   5.128   8.070  13.615
43356SOL     OW31964  12.178  14.609  11.345
43356SOL    HW131965  12.260  14.579  11.385
43356SOL    HW231966  12.176  14.703  11.363
43357SOL     OW31967   5.874  11.009   1.791
43357SOL    HW131968   5.957  11.013   1.742
43357SOL    HW231969   5.845  10.919   1.780
43358SOL     OW31970  14.269  10.549   2.114
43358SOL    HW131971  14.225  10.612   2.057
43358SOL    HW231972  14.361  10.555   2.090
43359SOL     OW31973   2.493  10.473  11.752
43359SOL    HW131974   2.455  10.486  11.839
43359SOL    HW231975   2.520  10.560  11.724
43360SOL     OW31976   5.587   1.159   2.554
43360SOL    HW131977   5.580   1.120   2.641
43360SOL    HW231978   5.503   1.138   2.512
43361SOL     OW31979   8.142   8.317  14.039
43361SOL    HW131980   8.070   8.295  13.980
43361SOL    HW231981   8.200   8.241  14.036
43362SOL     OW31982   9.708  11.946   7.684
43362SOL    HW131983   9.656  11.938   7.604
43362SOL    HW231984   9.733  11.856   7.705
43363SOL     OW31985   2.881   1.708   7.285
43363SOL    HW131986   2.843   1.795   7.274
43363SOL    HW231987   2.846   1.657   7.212
43364SOL     OW31988   6.805   1.331   4.200
43364SOL    HW131989   6.805   1.427   4.194
43364SOL    HW231990   6.758   1.312   4.281
43365SOL     OW31991   8.528   3.748   3.341
43365SOL    HW131992   8.526   3.676   3.278
43365SOL    HW231993   8.589   3.718   3.409
43366SOL     OW31994   6.569   2.351   5.423
43366SOL    HW131995   6.608   2.391   5.500
43366SOL    HW231996   6.585   2.414   5.352
43367SOL     OW31997   4.444   5.832  14.847
43367SOL    HW131998   4.472   5.745  14.818
43367SOL    HW231999   4.360   5.816   0.003
43368SOL     OW32000  13.161   8.254   4.440
43368SOL    HW132001  13.142   8.226   4.530
43368SOL    HW232002  13.158   8.174   4.388
43369SOL     OW32003   0.926   6.733   1.640
43369SOL    HW132004   1.018   6.748   1.661
43369SOL    HW232005   0.921   6.749   1.546
43370SOL     OW32006   9.634  13.165   7.681
43370SOL    HW132007   9.636  13.260   7.693
43370SOL    HW232008   9.619  13.131   7.769
43371SOL     OW32009  12.921   7.889  11.637
43371SOL    HW132010  12.893   7.905  11.547
43371SOL    HW232011  13.000   7.837  11.629
43372SOL     OW32012   4.478  12.518  11.799
43372SOL    HW132013   4.572  12.500  11.797
43372SOL    HW232014   4.439  12.439  11.836
43373SOL     OW32015   7.893   0.917   6.731
43373SOL    HW132016   7.941   0.919   6.813
43373SOL    HW232017   7.839   0.996   6.733
43374SOL     OW32018   3.854   1.951  14.160
43374SOL    HW132019   3.785   1.944  14.225
43374SOL    HW232020   3.834   1.884  14.095
43375SOL     OW32021  10.327  10.008  10.030
43375SOL    HW132022  10.263   9.972   9.969
43375SOL    HW232023  10.411   9.980   9.996
43376SOL     OW32024   4.598   2.301  12.833
43376SOL    HW132025   4.579   2.241  12.905
43376SOL    HW232026   4.575   2.252  12.754
43377SOL     OW32027  12.731   2.319  10.398
43377SOL    HW132028  12.771   2.253  10.454
43377SOL    HW232029  12.642   2.328  10.432
43378SOL     OW32030   8.930   2.756  11.245
43378SOL    HW132031   8.943   2.713  11.161
43378SOL    HW232032   8.998   2.823  11.249
43379SOL     OW32033   6.854   4.267   9.405
43379SOL    HW132034   6.811   4.273   9.319
43379SOL    HW232035   6.787   4.295   9.467
43380SOL     OW32036   5.067   2.385   2.078
43380SOL    HW132037   5.072   2.339   1.993
43380SOL    HW232038   4.984   2.432   2.074
43381SOL     OW32039   2.745  13.833  13.665
43381SOL    HW132040   2.763  13.898  13.596
43381SOL    HW232041   2.802  13.858  13.737
43382SOL     OW32042   6.241   4.901  14.430
43382SOL    HW132043   6.278   4.816  14.454
43382SOL    HW232044   6.315   4.950  14.395
43383SOL     OW32045  14.254   9.037   5.119
43383SOL    HW132046  14.279   8.950   5.152
43383SOL    HW232047  14.310   9.098   5.166
43384SOL     OW32048  13.768  12.585  10.014
43384SOL    HW132049  13.826  12.660  10.006
43384SOL    HW232050  13.713  12.589   9.936
43385SOL     OW32051  14.098  14.085  10.182
43385SOL    HW132052  14.115  14.083  10.088
43385SOL    HW232053  14.040  14.161  10.194
43386SOL     OW32054  13.866   9.292  13.821
43386SOL    HW132055  13.822   9.377  13.817
43386SOL    HW232056  13.958   9.312  13.807
43387SOL     OW32057  12.504  13.798  12.035
43387SOL    HW132058  12.417  13.837  12.038
43387SOL    HW232059  12.549  13.843  11.964
43388SOL     OW32060  14.595   5.198  14.185
43388SOL    HW132061  14.603   5.116  14.233
43388SOL    HW232062  14.574   5.172  14.095
43389SOL     OW32063   5.014  11.622   5.146
43389SOL    HW132064   4.925  11.650   5.124
43389SOL    HW232065   5.067  11.701   5.134
43390SOL     OW32066   2.750   4.236   8.503
43390SOL    HW132067   2.809   4.259   8.574
43390SOL    HW232068   2.670   4.285   8.521
43391SOL     OW32069   9.091   3.430   4.379
43391SOL    HW132070   9.022   3.429   4.446
43391SOL    HW232071   9.046   3.409   4.297
43392SOL     OW32072   4.973   8.021   7.749
43392SOL    HW132073   5.048   8.058   7.796
43392SOL    HW232074   5.013   7.967   7.680
43393SOL     OW32075   7.809   8.662   5.094
43393SOL    HW132076   7.725   8.666   5.049
43393SOL    HW232077   7.865   8.722   5.045
43394SOL     OW32078   4.377   8.639   4.124
43394SOL    HW132079   4.354   8.547   4.140
43394SOL    HW232080   4.445   8.635   4.057
43395SOL     OW32081  12.649   3.437   1.819
43395SOL    HW132082  12.558   3.416   1.839
43395SOL    HW232083  12.682   3.358   1.775
43396SOL     OW32084   4.721   6.743   3.638
43396SOL    HW132085   4.682   6.695   3.711
43396SOL    HW232086   4.655   6.808   3.615
43397SOL     OW32087  11.619   3.405   0.291
43397SOL    HW132088  11.622   3.440   0.380
43397SOL    HW232089  11.543   3.448   0.252
43398SOL     OW32090   9.649   3.125   8.020
43398SOL    HW132091   9.619   3.215   8.025
43398SOL    HW232092   9.611   3.082   8.097
43399SOL     OW32093  12.420  12.497   1.693
43399SOL    HW132094  12.432  12.424   1.632
43399SOL    HW232095  12.507  12.511   1.732
43400SOL     OW32096   5.584   7.123  10.217
43400SOL    HW132097   5.665   7.109  10.168
43400SOL    HW232098   5.599   7.080  10.302
43401SOL     OW32099   6.939   5.022   9.056
43401SOL    HW132100   6.869   5.012   8.991
43401SOL    HW232101   6.911   5.094   9.112
43402SOL     OW32102   1.088   4.758  14.233
43402SOL    HW132103   1.153   4.825  14.212
43402SOL    HW232104   1.007   4.792  14.195
43403SOL     OW32105   1.983   4.348   9.717
43403SOL    HW132106   1.994   4.307   9.631
43403SOL    HW232107   2.047   4.419   9.718
43404SOL     OW32108   3.226   1.302   8.606
43404SOL    HW132109   3.299   1.244   8.628
43404SOL    HW232110   3.168   1.297   8.681
43405SOL     OW32111   0.431   2.599   9.170
43405SOL    HW132112   0.418   2.529   9.107
43405SOL    HW232113   0.435   2.555   9.255
43406SOL     OW32114  11.198   0.553   8.393
43406SOL    HW132115  11.181   0.616   8.463
43406SOL    HW232116  11.111   0.527   8.362
43407SOL     OW32117  10.387   2.024   4.462
43407SOL    HW132118  10.338   2.042   4.382
43407SOL    HW232119  10.478   2.041   4.438
43408SOL     OW32120  10.557  10.666   1.499
43408SOL    HW132121  10.476  10.693   1.543
43408SOL    HW232122  10.533  10.660   1.407
43409SOL     OW32123  13.170  13.405  12.758
43409SOL    HW132124  13.088  13.381  12.715
43409SOL    HW232125  13.147  13.414  12.850
43410SOL     OW32126  10.244   0.536   2.563
43410SOL    HW132127  10.223   0.443   2.575
43410SOL    HW232128  10.317   0.536   2.501
43411SOL     OW32129   5.101  11.396  11.454
43411SOL    HW132130   5.022  11.368  11.408
43411SOL    HW232131   5.069  11.444  11.531
43412SOL     OW32132  12.867   0.154   0.200
43412SOL    HW132133  12.896   0.067   0.226
43412SOL    HW232134  12.942   0.192   0.153
43413SOL     OW32135   2.246   1.970  12.107
43413SOL    HW132136   2.213   1.939  12.191
43413SOL    HW232137   2.306   2.041  12.129
43414SOL     OW32138  13.400   7.383   1.273
43414SOL    HW132139  13.470   7.325   1.303
43414SOL    HW232140  13.418   7.396   1.179
43415SOL     OW32141   8.133  12.155   2.138
43415SOL    HW132142   8.045  12.164   2.102
43415SOL    HW232143   8.171  12.081   2.090
43416SOL     OW32144  10.900   3.074   0.805
43416SOL    HW132145  10.977   3.024   0.832
43416SOL    HW232146  10.887   3.138   0.875
43417SOL     OW32147   2.211   9.385  11.115
43417SOL    HW132148   2.247   9.315  11.060
43417SOL    HW232149   2.185   9.453  11.053
43418SOL     OW32150   2.870   9.904   4.212
43418SOL    HW132151   2.878   9.812   4.239
43418SOL    HW232152   2.954   9.943   4.237
43419SOL     OW32153  10.990   2.685  12.649
43419SOL    HW132154  10.952   2.678  12.737
43419SOL    HW232155  11.058   2.618  12.646
43420SOL     OW32156   1.686   7.433  10.928
43420SOL    HW132157   1.755   7.367  10.929
43420SOL    HW232158   1.658   7.439  11.020
43421SOL     OW32159  13.069   7.945   4.104
43421SOL    HW132160  13.052   7.855   4.075
43421SOL    HW232161  13.164   7.953   4.103
43422SOL     OW32162   3.740   2.480  12.329
43422SOL    HW132163   3.681   2.412  12.297
43422SOL    HW232164   3.707   2.561  12.291
43423SOL     OW32165  10.312   4.646   8.986
43423SOL    HW132166  10.298   4.553   8.971
43423SOL    HW232167  10.389   4.668   8.933
43424SOL     OW32168   6.718  13.230   4.892
43424SOL    HW132169   6.803  13.270   4.911
43424SOL    HW232170   6.683  13.207   4.978
43425SOL     OW32171   6.758   0.565   1.374
43425SOL    HW132172   6.694   0.502   1.409
43425SOL    HW232173   6.723   0.588   1.287
43426SOL     OW32174  14.544   8.205  13.590
43426SOL    HW132175  14.619   8.175  13.641
43426SOL    HW232176  14.545   8.151  13.512
43427SOL     OW32177  11.572  14.873   6.473
43427SOL    HW132178  11.520  14.875   6.553
43427SOL    HW232179  11.644   0.047   6.489
43428SOL     OW32180   3.281  12.538  13.056
43428SOL    HW132181   3.294  12.465  12.995
43428SOL    HW232182   3.355  12.533  13.116
43429SOL     OW32183  13.727   0.103   2.289
43429SOL    HW132184  13.789   0.031   2.284
43429SOL    HW232185  13.674   0.094   2.210
43430SOL     OW32186   6.463   8.912   0.870
43430SOL    HW132187   6.431   8.908   0.780
43430SOL    HW232188   6.392   8.952   0.919
43431SOL     OW32189  10.916   2.524   9.840
43431SOL    HW132190  10.947   2.454   9.897
43431SOL    HW232191  10.821   2.527   9.854
43432SOL     OW32192   7.042   1.832   2.703
43432SOL    HW132193   7.029   1.768   2.773
43432SOL    HW232194   7.117   1.885   2.732
43433SOL     OW32195   2.254   8.473   4.379
43433SOL    HW132196   2.260   8.455   4.472
43433SOL    HW232197   2.337   8.516   4.357
43434SOL     OW32198   7.648   2.023  11.828
43434SOL    HW132199   7.735   2.063  11.834
43434SOL    HW232200   7.658   1.938  11.872
43435SOL     OW32201   1.271   3.287   1.848
43435SOL    HW132202   1.250   3.315   1.759
43435SOL    HW232203   1.219   3.208   1.862
43436SOL     OW32204   1.079   3.106   5.769
43436SOL    HW132205   1.127   3.027   5.743
43436SOL    HW232206   0.995   3.098   5.723
43437SOL     OW32207   3.906  12.137   3.189
43437SOL    HW132208   3.880  12.119   3.098
43437SOL    HW232209   3.873  12.062   3.238
43438SOL     OW32210   1.502  14.820   2.533
43438SOL    HW132211   1.427  14.839   2.590
43438SOL    HW232212   1.517  14.726   2.544
43439SOL     OW32213   6.456   3.082   3.869
43439SOL    HW132214   6.529   3.088   3.932
43439SOL    HW232215   6.498   3.059   3.786
43440SOL     OW32216   2.488   4.869   7.641
43440SOL    HW132217   2.558   4.888   7.579
43440SOL    HW232218   2.513   4.915   7.721
43441SOL     OW32219   7.286  13.193   0.123
43441SOL    HW132220   7.214  13.134   0.104
43441SOL    HW232221   7.272  13.268   0.065
43442SOL     OW32222   0.822   2.942   2.570
43442SOL    HW132223   0.761   2.902   2.508
43442SOL    HW232224   0.789   3.032   2.581
43443SOL     OW32225   3.068   7.921   6.125
43443SOL    HW132226   3.115   7.996   6.160
43443SOL    HW232227   2.978   7.951   6.115
43444SOL     OW32228   6.059   5.225   5.472
43444SOL    HW132229   6.125   5.272   5.423
43444SOL    HW232230   6.044   5.278   5.550
43445SOL     OW32231   1.185   2.658  10.881
43445SOL    HW132232   1.261   2.600  10.884
43445SOL    HW232233   1.169   2.671  10.788
43446SOL     OW32234   0.591  13.334   3.652
43446SOL    HW132235   0.586  13.430   3.653
43446SOL    HW232236   0.673  13.315   3.606
43447SOL     OW32237  10.018  11.149  14.600
43447SOL    HW132238  10.018  11.064  14.644
43447SOL    HW232239  10.097  11.193  14.632
43448SOL     OW32240  10.177  10.325  11.752
43448SOL    HW132241  10.118  10.251  11.767
43448SOL    HW232242  10.128  10.402  11.780
43449SOL     OW32243   0.713   3.695  10.716
43449SOL    HW132244   0.767   3.688  10.637
43449SOL    HW232245   0.647   3.760  10.694
43450SOL     OW32246  14.213   3.667   1.838
43450SOL    HW132247  14.184   3.576   1.845
43450SOL    HW232248  14.221   3.681   1.743
43451SOL     OW32249   0.407   5.808   8.108
43451SOL    HW132250   0.396   5.900   8.085
43451SOL    HW232251   0.405   5.807   8.204
43452SOL     OW32252   0.647   0.957   4.186
43452SOL    HW132253   0.569   1.012   4.183
43452SOL    HW232254   0.642   0.904   4.106
43453SOL     OW32255  12.855   3.595   7.460
43453SOL    HW132256  12.848   3.545   7.378
43453SOL    HW232257  12.786   3.661   7.453
43454SOL     OW32258  13.911   0.783  10.265
43454SOL    HW132259  13.993   0.797  10.217
43454SOL    HW232260  13.843   0.818  10.208
43455SOL     OW32261  12.221   4.058   1.652
43455SOL    HW132262  12.145   4.109   1.680
43455SOL    HW232263  12.270   4.118   1.596
43456SOL     OW32264  11.507   3.884   3.995
43456SOL    HW132265  11.601   3.864   3.991
43456SOL    HW232266  11.486   3.881   4.088
43457SOL     OW32267   6.646  10.326   7.237
43457SOL    HW132268   6.703  10.275   7.294
43457SOL    HW232269   6.684  10.414   7.238
43458SOL     OW32270   1.334   9.839   1.864
43458SOL    HW132271   1.304   9.894   1.792
43458SOL    HW232272   1.429   9.836   1.854
43459SOL     OW32273  11.069   9.938   1.746
43459SOL    HW132274  11.067   9.854   1.792
43459SOL    HW232275  10.980   9.972   1.753
43460SOL     OW32276   5.220  13.768   7.847
43460SOL    HW132277   5.124  13.774   7.847
43460SOL    HW232278   5.249  13.858   7.857
43461SOL     OW32279   4.118   3.347   9.298
43461SOL    HW132280   4.032   3.388   9.301
43461SOL    HW232281   4.141   3.348   9.205
43462SOL     OW32282  10.338   6.462   9.203
43462SOL    HW132283  10.292   6.534   9.245
43462SOL    HW232284  10.424   6.498   9.180
43463SOL     OW32285  14.742   6.169   2.662
43463SOL    HW132286  14.798   6.236   2.702
43463SOL    HW232287  14.671   6.157   2.725
43464SOL     OW32288   3.385  11.647   1.764
43464SOL    HW132289   3.318  11.586   1.733
43464SOL    HW232290   3.400  11.623   1.855
43465SOL     OW32291   3.815   9.119   6.583
43465SOL    HW132292   3.773   9.163   6.508
43465SOL    HW232293   3.749   9.059   6.617
43466SOL     OW32294   5.373   0.446   7.205
43466SOL    HW132295   5.396   0.539   7.207
43466SOL    HW232296   5.303   0.439   7.139
43467SOL     OW32297   2.620  12.527   4.242
43467SOL    HW132298   2.714  12.523   4.225
43467SOL    HW232299   2.610  12.490   4.329
43468SOL     OW32300   7.982  14.248   5.109
43468SOL    HW132301   7.935  14.327   5.137
43468SOL    HW232302   8.039  14.227   5.182
43469SOL     OW32303   0.949   2.992   9.561
43469SOL    HW132304   0.941   3.062   9.497
43469SOL    HW232305   0.861   2.955   9.568
43470SOL     OW32306  14.532  13.159   7.681
43470SOL    HW132307  14.588  13.089   7.716
43470SOL    HW232308  14.516  13.216   7.755
43471SOL     OW32309  12.857   6.079   7.234
43471SOL    HW132310  12.900   6.003   7.274
43471SOL    HW232311  12.924   6.146   7.230
43472SOL     OW32312  13.631   6.687   8.754
43472SOL    HW132313  13.644   6.698   8.660
43472SOL    HW232314  13.683   6.757   8.794
43473SOL     OW32315   5.787  11.741   1.382
43473SOL    HW132316   5.785  11.835   1.398
43473SOL    HW232317   5.879  11.721   1.365
43474SOL     OW32318   1.139   2.289   7.583
43474SOL    HW132319   1.073   2.233   7.624
43474SOL    HW232320   1.089   2.362   7.547
43475SOL     OW32321  12.256   7.188   3.912
43475SOL    HW132322  12.296   7.200   3.998
43475SOL    HW232323  12.320   7.224   3.851
43476SOL     OW32324  11.957   8.208   0.873
43476SOL    HW132325  12.011   8.241   0.802
43476SOL    HW232326  12.000   8.127   0.901
43477SOL     OW32327   1.459   0.294   6.862
43477SOL    HW132328   1.507   0.323   6.940
43477SOL    HW232329   1.372   0.272   6.895
43478SOL     OW32330  12.448  13.910   9.167
43478SOL    HW132331  12.467  13.924   9.260
43478SOL    HW232332  12.510  13.843   9.140
43479SOL     OW32333   1.566  10.992  14.705
43479SOL    HW132334   1.493  10.968  14.762
43479SOL    HW232335   1.543  11.078  14.671
43480SOL     OW32336  11.990   8.556  12.357
43480SOL    HW132337  12.042   8.480  12.331
43480SOL    HW232338  12.047   8.605  12.416
43481SOL     OW32339   8.199  13.945  14.637
43481SOL    HW132340   8.256  13.868  14.645
43481SOL    HW232341   8.146  13.944  14.716
43482SOL     OW32342  13.948  10.864   1.634
43482SOL    HW132343  14.030  10.841   1.591
43482SOL    HW232344  13.898  10.910   1.566
43483SOL     OW32345   4.975  10.437   5.547
43483SOL    HW132346   4.968  10.352   5.589
43483SOL    HW232347   5.064  10.441   5.512
43484SOL     OW32348  13.021   4.233   8.279
43484SOL    HW132349  13.010   4.273   8.192
43484SOL    HW232350  12.944   4.177   8.289
43485SOL     OW32351   3.317  10.357  13.885
43485SOL    HW132352   3.294  10.298  13.814
43485SOL    HW232353   3.403  10.328  13.914
43486SOL     OW32354   4.811  12.748   9.964
43486SOL    HW132355   4.841  12.738  10.054
43486SOL    HW232356   4.719  12.721   9.966
43487SOL     OW32357  13.879   1.094   5.787
43487SOL    HW132358  13.948   1.157   5.809
43487SOL    HW232359  13.798   1.138   5.811
43488SOL     OW32360   5.420   6.656   5.414
43488SOL    HW132361   5.443   6.648   5.507
43488SOL    HW232362   5.344   6.600   5.404
43489SOL     OW32363   4.591   6.006   7.354
43489SOL    HW132364   4.685   6.021   7.370
43489SOL    HW232365   4.551   6.014   7.441
43490SOL     OW32366   7.712   1.128   6.748
43490SOL    HW132367   7.734   1.202   6.692
43490SOL    HW232368   7.651   1.075   6.696
43491SOL     OW32369  14.294   6.239  13.232
43491SOL    HW132370  14.378   6.217  13.192
43491SOL    HW232371  14.235   6.255  13.158
43492SOL     OW32372  11.175   7.310   1.769
43492SOL    HW132373  11.109   7.256   1.812
43492SOL    HW232374  11.147   7.314   1.677
43493SOL     OW32375  12.689   0.746   1.607
43493SOL    HW132376  12.709   0.722   1.516
43493SOL    HW232377  12.775   0.754   1.648
43494SOL     OW32378  10.683  12.530  12.575
43494SOL    HW132379  10.721  12.589  12.510
43494SOL    HW232380  10.723  12.445  12.556
43495SOL     OW32381   8.456   8.595   3.897
43495SOL    HW132382   8.466   8.575   3.804
43495SOL    HW232383   8.516   8.669   3.912
43496SOL     OW32384   6.122   4.949   1.285
43496SOL    HW132385   6.185   4.901   1.233
43496SOL    HW232386   6.157   4.945   1.374
43497SOL     OW32387   6.645  12.906   1.837
43497SOL    HW132388   6.690  12.826   1.864
43497SOL    HW232389   6.553  12.883   1.834
43498SOL     OW32390   6.663  11.131   0.452
43498SOL    HW132391   6.759  11.133   0.462
43498SOL    HW232392   6.650  11.101   0.362
43499SOL     OW32393   2.731   6.694  13.878
43499SOL    HW132394   2.642   6.671  13.904
43499SOL    HW232395   2.778   6.611  13.877
43500SOL     OW32396   8.202   4.828   3.933
43500SOL    HW132397   8.289   4.834   3.895
43500SOL    HW232398   8.176   4.919   3.948
43501SOL     OW32399   0.274   1.648  10.932
43501SOL    HW132400   0.297   1.707  11.003
43501SOL    HW232401   0.343   1.582  10.931
43502SOL     OW32402   9.585  14.724   8.136
43502SOL    HW132403   9.596  14.683   8.050
43502SOL    HW232404   9.539  14.805   8.118
43503SOL     OW32405   0.408   4.013   8.233
43503SOL    HW132406   0.378   4.092   8.278
43503SOL    HW232407   0.377   3.940   8.287
43504SOL     OW32408   0.646   0.910  14.411
43504SOL    HW132409   0.589   0.878  14.480
43504SOL    HW232410   0.715   0.958  14.457
43505SOL     OW32411   4.906   2.823   2.371
43505SOL    HW132412   4.909   2.747   2.313
43505SOL    HW232413   4.823   2.866   2.350
43506SOL     OW32414   4.711  12.106   9.278
43506SOL    HW132415   4.716  12.051   9.356
43506SOL    HW232416   4.674  12.048   9.211
43507SOL     OW32417   4.001   8.885  12.709
43507SOL    HW132418   3.989   8.897  12.615
43507SOL    HW232419   3.929   8.935  12.749
43508SOL     OW32420  13.027  13.976   6.146
43508SOL    HW132421  13.122  13.969   6.139
43508SOL    HW232422  12.997  13.986   6.056
43509SOL     OW32423  13.338   9.642   6.527
43509SOL    HW132424  13.391   9.563   6.534
43509SOL    HW232425  13.266   9.628   6.589
43510SOL     OW32426  14.384   0.084   6.760
43510SOL    HW132427  14.450   0.120   6.818
43510SOL    HW232428  14.301   0.122   6.790
43511SOL     OW32429   2.047   3.047   5.710
43511SOL    HW132430   2.079   2.959   5.732
43511SOL    HW232431   2.126   3.095   5.685
43512SOL     OW32432   3.611  10.385  13.889
43512SOL    HW132433   3.604  10.454  13.824
43512SOL    HW232434   3.630  10.430  13.971
43513SOL     OW32435  12.060  14.347   5.246
43513SOL    HW132436  12.060  14.369   5.153
43513SOL    HW232437  11.980  14.296   5.259
43514SOL     OW32438   5.961   9.711   7.100
43514SOL    HW132439   6.009   9.628   7.098
43514SOL    HW232440   6.022   9.774   7.061
43515SOL     OW32441   1.629   2.090   6.694
43515SOL    HW132442   1.666   2.018   6.642
43515SOL    HW232443   1.603   2.049   6.776
43516SOL     OW32444   9.754   6.707  11.804
43516SOL    HW132445   9.830   6.650  11.810
43516SOL    HW232446   9.753   6.756  11.886
43517SOL     OW32447   4.188   6.841   3.529
43517SOL    HW132448   4.167   6.750   3.509
43517SOL    HW232449   4.137   6.891   3.466
43518SOL     OW32450  11.491   4.109  11.286
43518SOL    HW132451  11.464   4.111  11.194
43518SOL    HW232452  11.568   4.053  11.287
43519SOL     OW32453   4.747   0.607   8.597
43519SOL    HW132454   4.662   0.649   8.597
43519SOL    HW232455   4.735   0.528   8.650
43520SOL     OW32456   4.958   8.045  11.788
43520SOL    HW132457   4.914   8.124  11.819
43520SOL    HW232458   4.953   8.050  11.693
43521SOL     OW32459   4.155   0.233   1.336
43521SOL    HW132460   4.183   0.142   1.324
43521SOL    HW232461   4.066   0.227   1.371
43522SOL     OW32462   4.019   5.494  14.279
43522SOL    HW132463   4.072   5.463  14.353
43522SOL    HW232464   3.955   5.424  14.265
43523SOL     OW32465   1.497   7.912  10.041
43523SOL    HW132466   1.405   7.938  10.042
43523SOL    HW232467   1.498   7.827   9.998
43524SOL     OW32468   8.612   1.167   9.307
43524SOL    HW132469   8.631   1.158   9.401
43524SOL    HW232470   8.560   1.247   9.301
43525SOL     OW32471   3.989   0.914   2.523
43525SOL    HW132472   4.049   0.851   2.483
43525SOL    HW232473   3.916   0.920   2.461
43526SOL     OW32474  12.392  13.325   5.235
43526SOL    HW132475  12.379  13.386   5.307
43526SOL    HW232476  12.422  13.245   5.276
43527SOL     OW32477   8.459  12.846  14.778
43527SOL    HW132478   8.481  12.755  14.797
43527SOL    HW232479   8.543  12.890  14.770
43528SOL     OW32480   2.588   7.777   0.195
43528SOL    HW132481   2.547   7.778   0.281
43528SOL    HW232482   2.514   7.779   0.134
43529SOL     OW32483  13.245   5.932   1.450
43529SOL    HW132484  13.187   5.866   1.413
43529SOL    HW232485  13.207   6.016   1.423
43530SOL     OW32486   1.870   7.817   5.403
43530SOL    HW132487   1.956   7.782   5.381
43530SOL    HW232488   1.888   7.902   5.444
43531SOL     OW32489   3.644   6.514   7.072
43531SOL    HW132490   3.655   6.425   7.105
43531SOL    HW232491   3.571   6.550   7.123
43532SOL     OW32492  10.184   8.487  12.101
43532SOL    HW132493  10.090   8.507  12.099
43532SOL    HW232494  10.210   8.485  12.009
43533SOL     OW32495   7.472   3.444   2.664
43533SOL    HW132496   7.513   3.359   2.645
43533SOL    HW232497   7.434   3.472   2.581
43534SOL     OW32498   6.089   5.004   1.693
43534SOL    HW132499   6.036   4.944   1.640
43534SOL    HW232500   6.070   5.091   1.657
43535SOL     OW32501   6.219   9.531  14.859
43535SOL    HW132502   6.259   9.569  14.781
43535SOL    HW232503   6.163   9.600   0.007
43536SOL     OW32504   7.568   4.216   2.054
43536SOL    HW132505   7.574   4.311   2.066
43536SOL    HW232506   7.583   4.180   2.142
43537SOL     OW32507   3.851   4.416  10.212
43537SOL    HW132508   3.831   4.493  10.265
43537SOL    HW232509   3.826   4.441  10.123
43538SOL     OW32510  11.626  10.985   3.001
43538SOL    HW132511  11.700  11.026   3.045
43538SOL    HW232512  11.654  10.973   2.911
43539SOL     OW32513   6.515   4.271  13.828
43539SOL    HW132514   6.437   4.216  13.828
43539SOL    HW232515   6.588   4.208  13.833
43540SOL     OW32516  12.993   4.168   7.746
43540SOL    HW132517  12.953   4.153   7.661
43540SOL    HW232518  13.044   4.089   7.763
43541SOL     OW32519   8.971  12.696   1.321
43541SOL    HW132520   8.946  12.779   1.362
43541SOL    HW232521   9.041  12.662   1.377
43542SOL     OW32522   5.292  14.441   8.328
43542SOL    HW132523   5.227  14.506   8.355
43542SOL    HW232524   5.354  14.491   8.274
43543SOL     OW32525   8.042   7.440   7.264
43543SOL    HW132526   8.023   7.531   7.241
43543SOL    HW232527   7.960   7.406   7.298
43544SOL     OW32528  13.383  13.623  14.085
43544SOL    HW132529  13.449  13.616  14.017
43544SOL    HW232530  13.431  13.610  14.167
43545SOL     OW32531  13.524  12.090   8.658
43545SOL    HW132532  13.442  12.043   8.644
43545SOL    HW232533  13.507  12.145   8.735
43546SOL     OW32534  12.029   8.480   8.635
43546SOL    HW132535  12.078   8.457   8.714
43546SOL    HW232536  11.969   8.548   8.663
43547SOL     OW32537  12.056   6.124   9.995
43547SOL    HW132538  12.032   6.033   9.973
43547SOL    HW232539  12.099   6.157   9.917
43548SOL     OW32540   4.561   7.379   3.311
43548SOL    HW132541   4.515   7.301   3.341
43548SOL    HW232542   4.546   7.444   3.380
43549SOL     OW32543   7.434   9.667   4.839
43549SOL    HW132544   7.438   9.717   4.757
43549SOL    HW232545   7.514   9.690   4.885
43550SOL     OW32546   7.267   1.646  14.356
43550SOL    HW132547   7.315   1.563  14.359
43550SOL    HW232548   7.304   1.693  14.282
43551SOL     OW32549  14.250   1.011   7.305
43551SOL    HW132550  14.212   0.924   7.298
43551SOL    HW232551  14.175   1.071   7.301
43552SOL     OW32552   3.295  13.817   0.135
43552SOL    HW132553   3.287  13.785   0.225
43552SOL    HW232554   3.301  13.737   0.083
43553SOL     OW32555   3.924  10.311  12.017
43553SOL    HW132556   3.917  10.222  11.983
43553SOL    HW232557   4.015  10.336  12.000
43554SOL     OW32558   9.342  14.814   1.351
43554SOL    HW132559   9.419  14.847   1.305
43554SOL    HW232560   9.287   0.004   1.364
43555SOL     OW32561   9.322  14.678   1.583
43555SOL    HW132562   9.317  14.747   1.517
43555SOL    HW232563   9.388  14.708   1.645
43556SOL     OW32564   3.360   2.003   2.726
43556SOL    HW132565   3.364   2.009   2.821
43556SOL    HW232566   3.350   2.094   2.697
43557SOL     OW32567  11.607  10.312   3.009
43557SOL    HW132568  11.624  10.338   2.919
43557SOL    HW232569  11.535  10.369   3.037
43558SOL     OW32570  10.034   2.727   1.233
43558SOL    HW132571  10.063   2.804   1.282
43558SOL    HW232572   9.992   2.671   1.299
43559SOL     OW32573  11.860   3.358   0.941
43559SOL    HW132574  11.773   3.386   0.971
43559SOL    HW232575  11.892   3.430   0.887
43560SOL     OW32576  11.722   6.436   1.963
43560SOL    HW132577  11.633   6.403   1.957
43560SOL    HW232578  11.777   6.358   1.964
43561SOL     OW32579   5.179  10.245   5.080
43561SOL    HW132580   5.090  10.265   5.108
43561SOL    HW232581   5.167  10.196   4.998
43562SOL     OW32582   5.844   5.632   7.185
43562SOL    HW132583   5.865   5.715   7.142
43562SOL    HW232584   5.787   5.658   7.258
43563SOL     OW32585   9.240   8.484   3.995
43563SOL    HW132586   9.270   8.410   3.942
43563SOL    HW232587   9.318   8.515   4.039
43564SOL     OW32588  11.691   1.688   1.285
43564SOL    HW132589  11.672   1.632   1.210
43564SOL    HW232590  11.737   1.631   1.347
43565SOL     OW32591   7.819   1.570   7.958
43565SOL    HW132592   7.794   1.618   7.879
43565SOL    HW232593   7.858   1.636   8.015
43566SOL     OW32594   6.246   8.808   4.562
43566SOL    HW132595   6.302   8.881   4.588
43566SOL    HW232596   6.174   8.810   4.625
43567SOL     OW32597   0.660   1.738  12.251
43567SOL    HW132598   0.667   1.824  12.292
43567SOL    HW232599   0.717   1.681  12.304
43568SOL     OW32600   7.574   3.999  12.735
43568SOL    HW132601   7.651   3.944  12.750
43568SOL    HW232602   7.554   4.036  12.821
43569SOL     OW32603   0.558   2.524   9.960
43569SOL    HW132604   0.518   2.554  10.042
43569SOL    HW232605   0.629   2.586   9.945
43570SOL     OW32606   2.932  11.265   8.970
43570SOL    HW132607   2.890  11.297   9.050
43570SOL    HW232608   3.017  11.308   8.969
43571SOL     OW32609  11.215   7.784   9.913
43571SOL    HW132610  11.274   7.765   9.841
43571SOL    HW232611  11.127   7.776   9.875
43572SOL     OW32612   1.865  12.842  14.705
43572SOL    HW132613   1.954  12.816  14.726
43572SOL    HW232614   1.812  12.765  14.724
43573SOL     OW32615  13.520   8.373  14.013
43573SOL    HW132616  13.512   8.370  13.918
43573SOL    HW232617  13.543   8.464  14.032
43574SOL     OW32618   9.093  13.056   7.215
43574SOL    HW132619   9.173  13.061   7.268
43574SOL    HW232620   9.122  13.020   7.131
43575SOL     OW32621  13.421   9.461  13.034
43575SOL    HW132622  13.430   9.440  13.127
43575SOL    HW232623  13.478   9.398  12.989
43576SOL     OW32624   7.244   3.227  11.785
43576SOL    HW132625   7.243   3.144  11.737
43576SOL    HW232626   7.198   3.288  11.727
43577SOL     OW32627   2.890   9.755   0.103
43577SOL    HW132628   2.953   9.807   0.053
43577SOL    HW232629   2.863   9.812   0.175
43578SOL     OW32630   9.421  10.365   7.334
43578SOL    HW132631   9.404  10.275   7.362
43578SOL    HW232632   9.515  10.376   7.347
43579SOL     OW32633   4.620   8.823   0.844
43579SOL    HW132634   4.659   8.767   0.911
43579SOL    HW232635   4.689   8.834   0.779
43580SOL     OW32636  13.453   0.287  10.187
43580SOL    HW132637  13.379   0.252  10.137
43580SOL    HW232638  13.468   0.222  10.255
43581SOL     OW32639   1.168   9.180  12.301
43581SOL    HW132640   1.234   9.238  12.262
43581SOL    HW232641   1.090   9.236  12.311
43582SOL     OW32642   0.291  10.797  12.923
43582SOL    HW132643   0.278  10.716  12.972
43582SOL    HW232644   0.349  10.773  12.851
43583SOL     OW32645  12.960   7.852   1.794
43583SOL    HW132646  12.928   7.936   1.826
43583SOL    HW232647  12.895   7.788   1.824
43584SOL     OW32648  13.076   4.526   1.052
43584SOL    HW132649  13.063   4.587   1.125
43584SOL    HW232650  13.059   4.440   1.090
43585SOL     OW32651   8.897  14.781   5.546
43585SOL    HW132652   8.821  14.734   5.578
43585SOL    HW232653   8.866  14.830   5.470
43586SOL     OW32654   4.146  10.388   1.985
43586SOL    HW132655   4.161  10.462   1.927
43586SOL    HW232656   4.059  10.404   2.023
43587SOL     OW32657   4.882   2.842   7.593
43587SOL    HW132658   4.846   2.839   7.504
43587SOL    HW232659   4.901   2.934   7.608
43588SOL     OW32660  11.941   0.566   3.194
43588SOL    HW132661  11.892   0.517   3.129
43588SOL    HW232662  11.944   0.508   3.270
43589SOL     OW32663   7.530   8.725   2.187
43589SOL    HW132664   7.618   8.739   2.222
43589SOL    HW232665   7.491   8.660   2.245
43590SOL     OW32666  13.500   2.489   6.265
43590SOL    HW132667  13.427   2.509   6.323
43590SOL    HW232668  13.575   2.476   6.323
43591SOL     OW32669   3.258  11.436   8.732
43591SOL    HW132670   3.313  11.513   8.747
43591SOL    HW232671   3.229  11.446   8.641
43592SOL     OW32672  10.144   0.483   1.210
43592SOL    HW132673  10.112   0.561   1.256
43592SOL    HW232674  10.180   0.517   1.128
43593SOL     OW32675   2.880   3.277   6.222
43593SOL    HW132676   2.911   3.301   6.309
43593SOL    HW232677   2.939   3.207   6.195
43594SOL     OW32678  12.179   4.440  11.164
43594SOL    HW132679  12.163   4.363  11.109
43594SOL    HW232680  12.273   4.456  11.155
43595SOL     OW32681   3.230   0.594   7.766
43595SOL    HW132682   3.288   0.565   7.837
43595SOL    HW232683   3.166   0.523   7.757
43596SOL     OW32684  10.956   1.233  10.551
43596SOL    HW132685  11.021   1.244  10.481
43596SOL    HW232686  10.920   1.145  10.536
43597SOL     OW32687   4.094   6.024   3.159
43597SOL    HW132688   4.177   6.070   3.170
43597SOL    HW232689   4.048   6.037   3.242
43598SOL     OW32690   5.052   9.068   5.118
43598SOL    HW132691   4.970   9.027   5.092
43598SOL    HW232692   5.113   8.995   5.129
43599SOL     OW32693   8.921  14.017  14.276
43599SOL    HW132694   8.854  13.967  14.322
43599SOL    HW232695   8.875  14.091  14.237
43600SOL     OW32696   6.524   2.253   0.860
43600SOL    HW132697   6.436   2.289   0.870
43600SOL    HW232698   6.529   2.229   0.767
43601SOL     OW32699   4.100   2.184   4.938
43601SOL    HW132700   4.123   2.101   4.895
43601SOL    HW232701   4.008   2.197   4.917
43602SOL     OW32702   9.371  11.101   9.503
43602SOL    HW132703   9.304  11.159   9.465
43602SOL    HW232704   9.413  11.155   9.570
43603SOL     OW32705  12.393   1.032   7.614
43603SOL    HW132706  12.371   1.105   7.555
43603SOL    HW232707  12.317   0.973   7.608
43604SOL     OW32708  14.232  10.942   9.651
43604SOL    HW132709  14.190  11.022   9.619
43604SOL    HW232710  14.184  10.920   9.731
43605SOL     OW32711  11.159   1.852   7.865
43605SOL    HW132712  11.194   1.879   7.949
43605SOL    HW232713  11.081   1.801   7.887
43606SOL     OW32714  12.180   8.602   0.468
43606SOL    HW132715  12.126   8.536   0.511
43606SOL    HW232716  12.164   8.589   0.374
43607SOL     OW32717  13.271   7.759   4.466
43607SOL    HW132718  13.294   7.711   4.546
43607SOL    HW232719  13.253   7.691   4.401
43608SOL     OW32720  11.604  10.951  12.831
43608SOL    HW132721  11.563  11.021  12.882
43608SOL    HW232722  11.651  10.996  12.761
43609SOL     OW32723  14.846   1.498  10.500
43609SOL    HW132724  14.831   1.471  10.410
43609SOL    HW232725   0.044   1.462  10.522
43610SOL     OW32726   2.551   3.940   6.894
43610SOL    HW132727   2.571   3.895   6.977
43610SOL    HW232728   2.637   3.961   6.857
43611SOL     OW32729  12.210  10.556   8.318
43611SOL    HW132730  12.180  10.616   8.250
43611SOL    HW232731  12.252  10.612   8.383
43612SOL     OW32732  12.946   7.335   0.069
43612SOL    HW132733  12.935   7.421   0.027
43612SOL    HW232734  12.984   7.355   0.154
43613SOL     OW32735   8.138   6.334   5.504
43613SOL    HW132736   8.211   6.381   5.546
43613SOL    HW232737   8.180   6.265   5.453
43614SOL     OW32738  10.691   9.198  14.007
43614SOL    HW132739  10.691   9.168  14.098
43614SOL    HW232740  10.599   9.191  13.979
43615SOL     OW32741   5.413   2.892   1.582
43615SOL    HW132742   5.364   2.844   1.515
43615SOL    HW232743   5.374   2.865   1.665
43616SOL     OW32744  10.093   0.613   8.223
43616SOL    HW132745  10.058   0.594   8.310
43616SOL    HW232746  10.169   0.556   8.214
43617SOL     OW32747  10.856   1.285   5.773
43617SOL    HW132748  10.872   1.275   5.679
43617SOL    HW232749  10.942   1.271   5.814
43618SOL     OW32750   5.873   5.798  14.516
43618SOL    HW132751   5.842   5.856  14.446
43618SOL    HW232752   5.804   5.802  14.583
43619SOL     OW32753   0.948  10.332   2.448
43619SOL    HW132754   0.855  10.335   2.472
43619SOL    HW232755   0.948  10.346   2.353
43620SOL     OW32756   2.777   5.669  13.143
43620SOL    HW132757   2.814   5.685  13.230
43620SOL    HW232758   2.801   5.747  13.092
43621SOL     OW32759   1.912  14.235  13.393
43621SOL    HW132760   1.983  14.236  13.329
43621SOL    HW232761   1.832  14.234  13.341
43622SOL     OW32762  14.870   0.906   7.769
43622SOL    HW132763  14.854   0.834   7.709
43622SOL    HW232764  14.843   0.984   7.720
43623SOL     OW32765   0.348   7.374  12.172
43623SOL    HW132766   0.282   7.371  12.243
43623SOL    HW232767   0.303   7.336  12.097
43624SOL     OW32768   8.621   6.649   8.433
43624SOL    HW132769   8.690   6.678   8.494
43624SOL    HW232770   8.654   6.674   8.347
43625SOL     OW32771   4.203   1.096  10.523
43625SOL    HW132772   4.206   1.160  10.594
43625SOL    HW232773   4.138   1.131  10.462
43626SOL     OW32774   7.021   8.271   2.240
43626SOL    HW132775   6.982   8.346   2.283
43626SOL    HW232776   7.115   8.280   2.255
43627SOL     OW32777   1.880   5.242   6.585
43627SOL    HW132778   1.949   5.276   6.527
43627SOL    HW232779   1.803   5.233   6.528
43628SOL     OW32780   9.020  14.367   7.181
43628SOL    HW132781   8.954  14.428   7.214
43628SOL    HW232782   8.976  14.320   7.110
43629SOL     OW32783  14.382   2.568   2.301
43629SOL    HW132784  14.356   2.657   2.279
43629SOL    HW232785  14.343   2.552   2.387
43630SOL     OW32786   2.723   8.042  11.425
43630SOL    HW132787   2.718   8.020  11.518
43630SOL    HW232788   2.695   8.134  11.420
43631SOL     OW32789  12.677  13.419   8.109
43631SOL    HW132790  12.730  13.434   8.188
43631SOL    HW232791  12.721  13.347   8.064
43632SOL     OW32792   3.421   4.323  13.031
43632SOL    HW132793   3.416   4.324  13.126
43632SOL    HW232794   3.462   4.407  13.008
43633SOL     OW32795  10.663   0.299   4.503
43633SOL    HW132796  10.628   0.380   4.465
43633SOL    HW232797  10.732   0.272   4.443
43634SOL     OW32798   8.716  14.640   6.280
43634SOL    HW132799   8.736  14.711   6.219
43634SOL    HW232800   8.743  14.561   6.234
43635SOL     OW32801  12.186   9.967   6.064
43635SOL    HW132802  12.164  10.023   5.989
43635SOL    HW232803  12.131  10.000   6.135
43636SOL     OW32804   3.986   4.844   7.281
43636SOL    HW132805   3.922   4.911   7.308
43636SOL    HW232806   4.055   4.893   7.237
43637SOL     OW32807   6.360   0.142   5.271
43637SOL    HW132808   6.329   0.149   5.181
43637SOL    HW232809   6.455   0.148   5.265
43638SOL     OW32810   4.512  10.141  14.577
43638SOL    HW132811   4.460  10.154  14.656
43638SOL    HW232812   4.536  10.230  14.550
43639SOL     OW32813   2.552   7.531   7.137
43639SOL    HW132814   2.601   7.571   7.066
43639SOL    HW232815   2.496   7.601   7.171
43640SOL     OW32816   1.390  11.896   7.718
43640SOL    HW132817   1.433  11.811   7.711
43640SOL    HW232818   1.448  11.956   7.670
43641SOL     OW32819  14.212   6.362   8.775
43641SOL    HW132820  14.228   6.449   8.739
43641SOL    HW232821  14.141   6.376   8.839
43642SOL     OW32822  10.501   5.645  12.370
43642SOL    HW132823  10.444   5.625  12.445
43642SOL    HW232824  10.483   5.575  12.307
43643SOL     OW32825   7.780   5.425   2.476
43643SOL    HW132826   7.802   5.504   2.525
43643SOL    HW232827   7.712   5.382   2.528
43644SOL     OW32828   4.558  12.939   7.453
43644SOL    HW132829   4.634  12.885   7.474
43644SOL    HW232830   4.485  12.897   7.498
43645SOL     OW32831  13.881  12.770  11.912
43645SOL    HW132832  13.793  12.803  11.895
43645SOL    HW232833  13.897  12.708  11.841
43646SOL     OW32834   2.839  13.558   5.482
43646SOL    HW132835   2.815  13.466   5.491
43646SOL    HW232836   2.879  13.565   5.396
43647SOL     OW32837  10.792  11.632   6.422
43647SOL    HW132838  10.829  11.694   6.359
43647SOL    HW232839  10.845  11.553   6.413
43648SOL     OW32840   9.861   3.393  10.406
43648SOL    HW132841   9.947   3.373  10.369
43648SOL    HW232842   9.881   3.438  10.488
43649SOL     OW32843   9.243   5.704  13.407
43649SOL    HW132844   9.217   5.754  13.329
43649SOL    HW232845   9.320   5.750  13.440
43650SOL     OW32846   8.101   9.529  11.457
43650SOL    HW132847   8.145   9.530  11.372
43650SOL    HW232848   8.151   9.592  11.510
43651SOL     OW32849   7.448   3.838   1.123
43651SOL    HW132850   7.353   3.842   1.131
43651SOL    HW232851   7.479   3.831   1.213
43652SOL     OW32852   3.300   5.831   3.786
43652SOL    HW132853   3.283   5.905   3.844
43652SOL    HW232854   3.381   5.793   3.819
43653SOL     OW32855   3.024   5.631   9.429
43653SOL    HW132856   3.028   5.670   9.516
43653SOL    HW232857   2.987   5.701   9.374
43654SOL     OW32858  13.336  11.421  14.367
43654SOL    HW132859  13.311  11.448  14.455
43654SOL    HW232860  13.284  11.342  14.350
43655SOL     OW32861  13.884   3.737   9.783
43655SOL    HW132862  13.941   3.675   9.737
43655SOL    HW232863  13.822   3.767   9.716
43656SOL     OW32864  14.280   6.857  13.055
43656SOL    HW132865  14.326   6.827  13.134
43656SOL    HW232866  14.325   6.938  13.031
43657SOL     OW32867   1.814   1.827   0.526
43657SOL    HW132868   1.776   1.884   0.593
43657SOL    HW232869   1.738   1.784   0.486
43658SOL     OW32870  12.973   8.812  10.006
43658SOL    HW132871  12.919   8.890  10.014
43658SOL    HW232872  12.937   8.765   9.931
43659SOL     OW32873   1.534   9.669  12.420
43659SOL    HW132874   1.518   9.593  12.475
43659SOL    HW232875   1.615   9.648  12.373
43660SOL     OW32876   1.624  14.096  12.728
43660SOL    HW132877   1.632  14.150  12.650
43660SOL    HW232878   1.712  14.096  12.766
43661SOL     OW32879   0.694   6.998   0.662
43661SOL    HW132880   0.766   6.935   0.656
43661SOL    HW232881   0.694   7.026   0.753
43662SOL     OW32882  14.805   3.470   7.977
43662SOL    HW132883  14.867   3.398   7.969
43662SOL    HW232884  14.807   3.495   8.069
43663SOL     OW32885   7.086   0.857   7.296
43663SOL    HW132886   7.045   0.944   7.301
43663SOL    HW232887   7.017   0.800   7.262
43664SOL     OW32888   5.438   7.001   6.224
43664SOL    HW132889   5.440   7.070   6.291
43664SOL    HW232890   5.417   7.046   6.143
43665SOL     OW32891  12.056   7.107   2.303
43665SOL    HW132892  12.014   7.129   2.220
43665SOL    HW232893  11.993   7.051   2.348
43666SOL     OW32894   3.447  10.480   0.721
43666SOL    HW132895   3.359  10.443   0.716
43666SOL    HW232896   3.448  10.548   0.654
43667SOL     OW32897   1.953   1.407   1.896
43667SOL    HW132898   1.882   1.464   1.926
43667SOL    HW232899   1.920   1.367   1.816
43668SOL     OW32900  14.719   4.931   9.504
43668SOL    HW132901  14.695   5.023   9.511
43668SOL    HW232902  14.722   4.900   9.595
43669SOL     OW32903   6.562   8.612  11.995
43669SOL    HW132904   6.499   8.660  11.941
43669SOL    HW232905   6.526   8.523  11.999
43670SOL     OW32906  13.208   5.908   7.286
43670SOL    HW132907  13.115   5.883   7.279
43670SOL    HW232908  13.211   5.998   7.254
43671SOL     OW32909  10.127   2.907  10.837
43671SOL    HW132910  10.108   2.948  10.921
43671SOL    HW232911  10.085   2.821  10.842
43672SOL     OW32912   5.428  11.190   2.719
43672SOL    HW132913   5.391  11.158   2.802
43672SOL    HW232914   5.485  11.119   2.690
43673SOL     OW32915  12.295   7.929   4.953
43673SOL    HW132916  12.305   8.024   4.956
43673SOL    HW232917  12.219   7.915   4.895
43674SOL     OW32918   9.174  12.762  14.313
43674SOL    HW132919   9.140  12.675  14.333
43674SOL    HW232920   9.262  12.763  14.349
43675SOL     OW32921  13.936   4.576   8.564
43675SOL    HW132922  13.882   4.589   8.486
43675SOL    HW232923  13.872   4.562   8.634
43676SOL     OW32924   0.721   2.929   3.652
43676SOL    HW132925   0.644   2.962   3.607
43676SOL    HW232926   0.698   2.840   3.677
43677SOL     OW32927   9.703   7.179   6.062
43677SOL    HW132928   9.647   7.200   6.137
43677SOL    HW232929   9.789   7.159   6.100
43678SOL     OW32930   7.205  11.936   5.443
43678SOL    HW132931   7.282  11.936   5.386
43678SOL    HW232932   7.230  11.884   5.519
43679SOL     OW32933   3.427  10.133  12.666
43679SOL    HW132934   3.477  10.206  12.632
43679SOL    HW232935   3.355  10.174  12.714
43680SOL     OW32936   0.202  10.054   0.960
43680SOL    HW132937   0.220  10.061   0.866
43680SOL    HW232938   0.110  10.029   0.965
43681SOL     OW32939  14.336   7.287  13.422
43681SOL    HW132940  14.289   7.267  13.341
43681SOL    HW232941  14.417   7.236  13.416
43682SOL     OW32942   7.654   8.164   5.782
43682SOL    HW132943   7.672   8.253   5.750
43682SOL    HW232944   7.660   8.109   5.704
43683SOL     OW32945   6.688   2.871   1.957
43683SOL    HW132946   6.676   2.797   1.897
43683SOL    HW232947   6.712   2.831   2.040
43684SOL     OW32948   3.595  11.634   0.256
43684SOL    HW132949   3.592  11.672   0.168
43684SOL    HW232950   3.679  11.664   0.292
43685SOL     OW32951   8.649  11.602   8.174
43685SOL    HW132952   8.626  11.527   8.119
43685SOL    HW232953   8.579  11.607   8.238
43686SOL     OW32954  14.141  11.968   1.567
43686SOL    HW132955  14.046  11.984   1.564
43686SOL    HW232956  14.176  12.041   1.618
43687SOL     OW32957   9.397   1.829  14.018
43687SOL    HW132958   9.423   1.741  14.045
43687SOL    HW232959   9.472   1.884  14.041
43688SOL     OW32960   8.388   7.185   3.944
43688SOL    HW132961   8.386   7.216   3.853
43688SOL    HW232962   8.468   7.222   3.981
43689SOL     OW32963   4.218   8.861   2.441
43689SOL    HW132964   4.147   8.883   2.381
43689SOL    HW232965   4.231   8.766   2.429
43690SOL     OW32966  12.429   2.825  13.405
43690SOL    HW132967  12.488   2.773  13.459
43690SOL    HW232968  12.463   2.914  13.411
43691SOL     OW32969   0.368   0.590  11.416
43691SOL    HW132970   0.423   0.657  11.375
43691SOL    HW232971   0.394   0.591  11.508
43692SOL     OW32972   5.071  13.555   0.575
43692SOL    HW132973   5.160  13.548   0.541
43692SOL    HW232974   5.078  13.611   0.652
43693SOL     OW32975   5.170   8.691  12.371
43693SOL    HW132976   5.221   8.652  12.299
43693SOL    HW232977   5.159   8.619  12.433
43694SOL     OW32978   4.851   7.916  10.809
43694SOL    HW132979   4.940   7.916  10.843
43694SOL    HW232980   4.810   7.840  10.850
43695SOL     OW32981  13.657   2.665   4.545
43695SOL    HW132982  13.564   2.665   4.567
43695SOL    HW232983  13.660   2.682   4.451
43696SOL     OW32984  13.175  10.585   4.045
43696SOL    HW132985  13.241  10.654   4.046
43696SOL    HW232986  13.198  10.530   3.970
43697SOL     OW32987   3.736   6.820  14.467
43697SOL    HW132988   3.820   6.782  14.443
43697SOL    HW232989   3.752   6.914  14.474
43698SOL     OW32990   7.722  12.336  10.485
43698SOL    HW132991   7.796  12.360  10.429
43698SOL    HW232992   7.645  12.354  10.431
43699SOL     OW32993   0.204  11.073   8.012
43699SOL    HW132994   0.247  11.069   7.926
43699SOL    HW232995   0.130  11.132   8.000
43700SOL     OW32996  12.844  12.586  12.979
43700SOL    HW132997  12.880  12.534  13.051
43700SOL    HW232998  12.749  12.579  12.991
43701SOL     OW32999  10.852  12.492   9.720
43701SOL    HW133000  10.932  12.496   9.773
43701SOL    HW233001  10.870  12.548   9.645
43702SOL     OW33002   0.432  12.046   7.394
43702SOL    HW133003   0.491  12.092   7.334
43702SOL    HW233004   0.445  12.089   7.479
43703SOL     OW33005   8.685  13.085  11.904
43703SOL    HW133006   8.667  13.159  11.963
43703SOL    HW233007   8.679  13.008  11.959
43704SOL     OW33008   7.337   2.991   4.223
43704SOL    HW133009   7.347   2.951   4.137
43704SOL    HW233010   7.376   3.078   4.214
43705SOL     OW33011   6.912  11.651   7.293
43705SOL    HW133012   6.897  11.740   7.264
43705SOL    HW233013   6.958  11.609   7.220
43706SOL     OW33014   3.017  10.340   2.219
43706SOL    HW133015   3.009  10.246   2.233
43706SOL    HW233016   3.067  10.372   2.294
43707SOL     OW33017  12.369   1.186   4.807
43707SOL    HW133018  12.366   1.211   4.899
43707SOL    HW233019  12.342   1.094   4.806
43708SOL     OW33020   3.172  12.063   6.393
43708SOL    HW133021   3.226  12.137   6.366
43708SOL    HW233022   3.197  11.992   6.334
43709SOL     OW33023   1.607   9.331  12.230
43709SOL    HW133024   1.649   9.290  12.155
43709SOL    HW233025   1.660   9.409  12.248
43710SOL     OW33026   9.182   1.013   2.676
43710SOL    HW133027   9.257   1.055   2.634
43710SOL    HW233028   9.123   1.085   2.697
43711SOL     OW33029   7.689  10.225   2.011
43711SOL    HW133030   7.682  10.317   1.985
43711SOL    HW233031   7.701  10.178   1.928
43712SOL     OW33032   4.401  13.245   8.864
43712SOL    HW133033   4.429  13.335   8.884
43712SOL    HW233034   4.318  13.235   8.911
43713SOL     OW33035   8.785   0.569  10.453
43713SOL    HW133036   8.874   0.580  10.417
43713SOL    HW233037   8.769   0.475  10.448
43714SOL     OW33038   4.719   3.025  13.686
43714SOL    HW133039   4.643   3.036  13.744
43714SOL    HW233040   4.690   2.964  13.619
43715SOL     OW33041   2.008   2.230   7.288
43715SOL    HW133042   2.060   2.158   7.322
43715SOL    HW233043   2.027   2.303   7.347
43716SOL     OW33044  14.272   3.597   8.469
43716SOL    HW133045  14.204   3.610   8.534
43716SOL    HW233046  14.231   3.542   8.402
43717SOL     OW33047   5.151   8.406  14.831
43717SOL    HW133048   5.214   8.432   0.011
43717SOL    HW233049   5.191   8.330  14.788
43718SOL     OW33050   6.220   6.087  10.774
43718SOL    HW133051   6.142   6.114  10.726
43718SOL    HW233052   6.190   6.014  10.828
43719SOL     OW33053   0.880   2.803  14.660
43719SOL    HW133054   0.804   2.845  14.620
43719SOL    HW233055   0.846   2.721  14.694
43720SOL     OW33056   3.569   4.549   6.161
43720SOL    HW133057   3.501   4.559   6.094
43720SOL    HW233058   3.589   4.455   6.160
43721SOL     OW33059  10.513  13.488   6.267
43721SOL    HW133060  10.584  13.428   6.290
43721SOL    HW233061  10.532  13.568   6.316
43722SOL     OW33062   8.031   1.182   8.041
43722SOL    HW133063   8.121   1.198   8.068
43722SOL    HW233064   7.991   1.135   8.114
43723SOL     OW33065   1.554   8.329   2.051
43723SOL    HW133066   1.592   8.412   2.077
43723SOL    HW233067   1.609   8.297   1.980
43724SOL     OW33068   9.335  12.646   8.155
43724SOL    HW133069   9.302  12.691   8.077
43724SOL    HW233070   9.427  12.628   8.135
43725SOL     OW33071   2.030  13.259  12.259
43725SOL    HW133072   1.992  13.228  12.341
43725SOL    HW233073   1.956  13.270  12.200
43726SOL     OW33074   2.331   7.591   2.375
43726SOL    HW133075   2.307   7.613   2.285
43726SOL    HW233076   2.308   7.498   2.383
43727SOL     OW33077  12.024  12.666   3.929
43727SOL    HW133078  12.005  12.627   4.014
43727SOL    HW233079  12.102  12.621   3.899
43728SOL     OW33080   6.468   0.809   9.040
43728SOL    HW133081   6.452   0.896   9.077
43728SOL    HW233082   6.389   0.759   9.061
43729SOL     OW33083   4.609   3.207  11.373
43729SOL    HW133084   4.555   3.136  11.336
43729SOL    HW233085   4.554   3.246  11.441
43730SOL     OW33086   5.425   0.397  11.067
43730SOL    HW133087   5.410   0.454  10.992
43730SOL    HW233088   5.350   0.414  11.125
43731SOL     OW33089   9.218   5.248   9.471
43731SOL    HW133090   9.139   5.259   9.524
43731SOL    HW233091   9.280   5.312   9.505
43732SOL     OW33092   6.350   2.324   7.011
43732SOL    HW133093   6.376   2.302   6.921
43732SOL    HW233094   6.289   2.254   7.035
43733SOL     OW33095  12.763  14.558   4.896
43733SOL    HW133096  12.792  14.639   4.937
43733SOL    HW233097  12.707  14.517   4.961
43734SOL     OW33098   0.963   1.128  13.980
43734SOL    HW133099   0.934   1.059  13.920
43734SOL    HW233100   1.004   1.194  13.924
43735SOL     OW33101  11.030  10.226  10.680
43735SOL    HW133102  10.949  10.276  10.687
43735SOL    HW233103  11.003  10.140  10.648
43736SOL     OW33104   4.725   2.278  12.181
43736SOL    HW133105   4.726   2.373  12.193
43736SOL    HW233106   4.694   2.266  12.091
43737SOL     OW33107   8.600   3.596   4.143
43737SOL    HW133108   8.544   3.669   4.168
43737SOL    HW233109   8.689   3.625   4.165
43738SOL     OW33110  13.468   9.672   3.714
43738SOL    HW133111  13.471   9.614   3.639
43738SOL    HW233112  13.462   9.760   3.676
43739SOL     OW33113   2.339   4.203   8.806
43739SOL    HW133114   2.293   4.138   8.860
43739SOL    HW233115   2.430   4.199   8.836
43740SOL     OW33116   5.462   6.472   3.041
43740SOL    HW133117   5.393   6.433   2.987
43740SOL    HW233118   5.542   6.427   3.014
43741SOL     OW33119   7.632  10.397   1.318
43741SOL    HW133120   7.638  10.491   1.338
43741SOL    HW233121   7.598  10.393   1.229
43742SOL     OW33122   4.965   7.744   2.289
43742SOL    HW133123   4.963   7.650   2.308
43742SOL    HW233124   5.054   7.771   2.313
43743SOL     OW33125  13.982   6.950   4.217
43743SOL    HW133126  13.924   7.023   4.238
43743SOL    HW233127  14.004   6.913   4.302
43744SOL     OW33128  11.063  11.580  10.041
43744SOL    HW133129  11.011  11.502  10.024
43744SOL    HW233130  11.071  11.623   9.956
43745SOL     OW33131   7.022   8.086   2.521
43745SOL    HW133132   7.023   8.000   2.563
43745SOL    HW233133   7.108   8.095   2.481
43746SOL     OW33134   6.095   6.155   4.071
43746SOL    HW133135   6.096   6.092   4.142
43746SOL    HW233136   6.120   6.105   3.994
43747SOL     OW33137   4.065   6.164   1.525
43747SOL    HW133138   4.138   6.103   1.516
43747SOL    HW233139   4.086   6.235   1.464
43748SOL     OW33140   2.403   3.092   6.830
43748SOL    HW133141   2.313   3.070   6.806
43748SOL    HW233142   2.456   3.023   6.790
43749SOL     OW33143  12.023   5.109   1.982
43749SOL    HW133144  12.054   5.037   1.928
43749SOL    HW233145  11.940   5.079   2.018
43750SOL     OW33146  10.922  12.580  13.282
43750SOL    HW133147  10.960  12.642  13.343
43750SOL    HW233148  10.832  12.567  13.313
43751SOL     OW33149   2.229   9.222   4.842
43751SOL    HW133150   2.167   9.149   4.846
43751SOL    HW233151   2.178   9.293   4.802
43752SOL     OW33152   6.411   7.703   6.327
43752SOL    HW133153   6.393   7.796   6.312
43752SOL    HW233154   6.506   7.696   6.322
43753SOL     OW33155   6.612   5.368   5.244
43753SOL    HW133156   6.678   5.413   5.191
43753SOL    HW233157   6.542   5.433   5.255
43754SOL     OW33158  13.085   9.197   6.812
43754SOL    HW133159  13.061   9.243   6.731
43754SOL    HW233160  13.074   9.104   6.792
43755SOL     OW33161  11.162   8.718   7.279
43755SOL    HW133162  11.160   8.723   7.183
43755SOL    HW233163  11.104   8.645   7.300
43756SOL     OW33164   0.884  11.115   4.709
43756SOL    HW133165   0.842  11.133   4.793
43756SOL    HW233166   0.936  11.193   4.691
43757SOL     OW33167  13.486   1.453  11.211
43757SOL    HW133168  13.555   1.518  11.221
43757SOL    HW233169  13.522   1.390  11.147
43758SOL     OW33170  14.783  11.984   6.812
43758SOL    HW133171  14.799  11.901   6.768
43758SOL    HW233172  14.698  12.013   6.778
43759SOL     OW33173   0.832   5.321  14.090
43759SOL    HW133174   0.904   5.362  14.043
43759SOL    HW233175   0.833   5.230  14.061
43760SOL     OW33176  11.672   0.558   7.194
43760SOL    HW133177  11.581   0.560   7.225
43760SOL    HW233178  11.670   0.500   7.118
43761SOL     OW33179   9.206   2.718   6.577
43761SOL    HW133180   9.244   2.635   6.607
43761SOL    HW233181   9.142   2.692   6.511
43762SOL     OW33182   1.537   5.701   7.627
43762SOL    HW133183   1.533   5.621   7.679
43762SOL    HW233184   1.543   5.772   7.691
43763SOL     OW33185   8.253   1.734  14.819
43763SOL    HW133186   8.343   1.743  14.788
43763SOL    HW233187   8.244   1.802  14.886
43764SOL     OW33188  11.749  11.750  12.306
43764SOL    HW133189  11.733  11.804  12.228
43764SOL    HW233190  11.664  11.711  12.326
43765SOL     OW33191  14.619  12.867  11.834
43765SOL    HW133192  14.691  12.875  11.896
43765SOL    HW233193  14.548  12.919  11.872
43766SOL     OW33194   3.383   2.267   1.070
43766SOL    HW133195   3.464   2.318   1.062
43766SOL    HW233196   3.384   2.233   1.159
43767SOL     OW33197   7.485   4.524   6.519
43767SOL    HW133198   7.439   4.580   6.582
43767SOL    HW233199   7.469   4.435   6.550
43768SOL     OW33200   6.412  10.901   1.081
43768SOL    HW133201   6.488  10.906   1.024
43768SOL    HW233202   6.362  10.980   1.061
43769SOL     OW33203  11.896  11.004   5.078
43769SOL    HW133204  11.811  10.977   5.043
43769SOL    HW233205  11.960  10.972   5.014
43770SOL     OW33206   0.474  14.660   1.868
43770SOL    HW133207   0.434  14.630   1.786
43770SOL    HW233208   0.405  14.710   1.911
43771SOL     OW33209   7.111   2.200  12.923
43771SOL    HW133210   7.118   2.180  12.830
43771SOL    HW233211   7.085   2.291  12.926
43772SOL     OW33212   5.664   9.747  12.374
43772SOL    HW133213   5.580   9.792  12.388
43772SOL    HW233214   5.645   9.655  12.394
43773SOL     OW33215   6.216   8.393  13.865
43773SOL    HW133216   6.204   8.418  13.773
43773SOL    HW233217   6.204   8.298  13.865
43774SOL     OW33218  12.018   1.116   5.725
43774SOL    HW133219  11.964   1.093   5.801
43774SOL    HW233220  12.016   1.038   5.670
43775SOL     OW33221  10.063   9.205   8.040
43775SOL    HW133222  10.145   9.246   8.014
43775SOL    HW233223  10.076   9.180   8.132
43776SOL     OW33224  12.700  10.034  10.895
43776SOL    HW133225  12.671   9.955  10.941
43776SOL    HW233226  12.742  10.001  10.816
43777SOL     OW33227   5.051   1.377   9.108
43777SOL    HW133228   4.993   1.309   9.140
43777SOL    HW233229   4.993   1.440   9.065
43778SOL     OW33230  11.381   3.112  14.015
43778SOL    HW133231  11.411   3.095  13.925
43778SOL    HW233232  11.366   3.025  14.052
43779SOL     OW33233   9.348  13.545  10.664
43779SOL    HW133234   9.367  13.472  10.605
43779SOL    HW233235   9.266  13.582  10.631
43780SOL     OW33236   5.239   2.707   1.127
43780SOL    HW133237   5.321   2.730   1.083
43780SOL    HW233238   5.201   2.639   1.072
43781SOL     OW33239   4.401   2.930   5.494
43781SOL    HW133240   4.443   2.962   5.414
43781SOL    HW233241   4.348   3.004   5.524
43782SOL     OW33242  10.239   8.118   2.235
43782SOL    HW133243  10.193   8.170   2.169
43782SOL    HW233244  10.321   8.165   2.248
43783SOL     OW33245   2.257   6.633  12.997
43783SOL    HW133246   2.162   6.649  12.995
43783SOL    HW233247   2.266   6.554  13.049
43784SOL     OW33248   4.773  10.598  13.627
43784SOL    HW133249   4.684  10.597  13.592
43784SOL    HW233250   4.769  10.538  13.702
43785SOL     OW33251  13.089   2.372   3.503
43785SOL    HW133252  13.047   2.417   3.576
43785SOL    HW233253  13.152   2.314   3.545
43786SOL     OW33254  10.965  13.728   7.778
43786SOL    HW133255  10.963  13.773   7.694
43786SOL    HW233256  10.881  13.681   7.782
43787SOL     OW33257   6.277  11.820   5.849
43787SOL    HW133258   6.236  11.891   5.899
43787SOL    HW233259   6.358  11.857   5.816
43788SOL     OW33260   0.781   9.416  14.182
43788SOL    HW133261   0.688   9.434  14.188
43788SOL    HW233262   0.822   9.502  14.168
43789SOL     OW33263  14.329   1.604  12.357
43789SOL    HW133264  14.417   1.641  12.342
43789SOL    HW233265  14.338   1.512  12.334
43790SOL     OW33266  14.702   9.288   1.575
43790SOL    HW133267  14.744   9.354   1.519
43790SOL    HW233268  14.713   9.206   1.528
43791SOL     OW33269   9.057   4.249   6.687
43791SOL    HW133270   9.030   4.320   6.745
43791SOL    HW233271   9.129   4.206   6.734
43792SOL     OW33272   1.623   2.923  14.551
43792SOL    HW133273   1.712   2.898  14.526
43792SOL    HW233274   1.608   2.880  14.635
43793SOL     OW33275  10.094   3.433  10.632
43793SOL    HW133276  10.072   3.370  10.701
43793SOL    HW233277  10.144   3.382  10.568
43794SOL     OW33278  13.944   0.481  12.756
43794SOL    HW133279  13.876   0.428  12.798
43794SOL    HW233280  13.935   0.460  12.663
43795SOL     OW33281  11.716  10.785  14.631
43795SOL    HW133282  11.653  10.850  14.663
43795SOL    HW233283  11.704  10.709  14.689
43796SOL     OW33284   6.798   6.052   5.973
43796SOL    HW133285   6.774   6.143   5.992
43796SOL    HW233286   6.716   6.003   5.986
43797SOL     OW33287   4.144   0.526   9.266
43797SOL    HW133288   4.235   0.517   9.238
43797SOL    HW233289   4.103   0.444   9.239
43798SOL     OW33290  13.406   2.673   4.979
43798SOL    HW133291  13.405   2.583   4.946
43798SOL    HW233292  13.439   2.665   5.069
43799SOL     OW33293   5.274  11.803  14.501
43799SOL    HW133294   5.253  11.730  14.442
43799SOL    HW233295   5.355  11.840  14.466
43800SOL     OW33296  14.481  10.237   0.347
43800SOL    HW133297  14.568  10.241   0.386
43800SOL    HW233298  14.458  10.329   0.332
43801SOL     OW33299  13.266   7.849   4.774
43801SOL    HW133300  13.357   7.858   4.804
43801SOL    HW233301  13.220   7.815   4.850
43802SOL     OW33302   6.270  14.144   2.548
43802SOL    HW133303   6.353  14.130   2.503
43802SOL    HW233304   6.247  14.060   2.586
43803SOL     OW33305   5.311  10.898   9.816
43803SOL    HW133306   5.227  10.938   9.798
43803SOL    HW233307   5.352  10.888   9.731
43804SOL     OW33308   6.967   2.018   5.380
43804SOL    HW133309   7.013   2.099   5.357
43804SOL    HW233310   6.933   2.035   5.468
43805SOL     OW33311  10.401  10.346   6.528
43805SOL    HW133312  10.336  10.286   6.565
43805SOL    HW233313  10.350  10.423   6.501
43806SOL     OW33314  12.090   2.512  14.251
43806SOL    HW133315  12.175   2.550  14.231
43806SOL    HW233316  12.039   2.522  14.170
43807SOL     OW33317  14.355  13.491   2.195
43807SOL    HW133318  14.321  13.429   2.260
43807SOL    HW233319  14.435  13.526   2.235
43808SOL     OW33320   9.626   6.648   5.039
43808SOL    HW133321   9.698   6.709   5.054
43808SOL    HW233322   9.638   6.580   5.106
43809SOL     OW33323   6.847   1.200  11.814
43809SOL    HW133324   6.907   1.256  11.864
43809SOL    HW233325   6.897   1.119  11.799
43810SOL     OW33326   2.900  10.950   8.593
43810SOL    HW133327   2.956  11.022   8.623
43810SOL    HW233328   2.961  10.884   8.560
43811SOL     OW33329   6.509   3.583  14.710
43811SOL    HW133330   6.434   3.531  14.740
43811SOL    HW233331   6.526   3.644  14.782
43812SOL     OW33332   9.085   4.900   4.406
43812SOL    HW133333   8.998   4.885   4.369
43812SOL    HW233334   9.070   4.963   4.477
43813SOL     OW33335  14.552  12.632   5.816
43813SOL    HW133336  14.645  12.624   5.798
43813SOL    HW233337  14.531  12.723   5.795
43814SOL     OW33338   3.051  12.962  12.341
43814SOL    HW133339   3.004  13.044  12.328
43814SOL    HW233340   3.056  12.952  12.436
43815SOL     OW33341   8.438   1.693   3.070
43815SOL    HW133342   8.532   1.712   3.077
43815SOL    HW233343   8.429   1.647   2.987
43816SOL     OW33344   3.437   4.291   8.163
43816SOL    HW133345   3.341   4.297   8.160
43816SOL    HW233346   3.463   4.357   8.227
43817SOL     OW33347   9.657   3.415   9.426
43817SOL    HW133348   9.685   3.504   9.444
43817SOL    HW233349   9.674   3.402   9.333
43818SOL     OW33350   0.880   6.375  10.349
43818SOL    HW133351   0.788   6.354  10.365
43818SOL    HW233352   0.899   6.447  10.409
43819SOL     OW33353   6.503   9.007  10.544
43819SOL    HW133354   6.596   9.019  10.527
43819SOL    HW233355   6.495   9.015  10.640
43820SOL     OW33356  10.455  13.620  10.910
43820SOL    HW133357  10.385  13.626  10.975
43820SOL    HW233358  10.428  13.551  10.850
43821SOL     OW33359  12.460   8.670  10.465
43821SOL    HW133360  12.407   8.675  10.385
43821SOL    HW233361  12.508   8.753  10.468
43822SOL     OW33362   7.577   2.762   5.899
43822SOL    HW133363   7.611   2.844   5.934
43822SOL    HW233364   7.580   2.701   5.973
43823SOL     OW33365  11.938  14.802  10.960
43823SOL    HW133366  12.017  14.854  10.945
43823SOL    HW233367  11.960  14.716  10.924
43824SOL     OW33368   0.890  11.790   3.462
43824SOL    HW133369   0.799  11.784   3.433
43824SOL    HW233370   0.890  11.861   3.526
43825SOL     OW33371   6.066   9.163   0.231
43825SOL    HW133372   5.976   9.151   0.260
43825SOL    HW233373   6.064   9.144   0.137
43826SOL     OW33374  12.139  13.687   5.844
43826SOL    HW133375  12.109  13.743   5.772
43826SOL    HW233376  12.063  13.678   5.901
43827SOL     OW33377  14.227   2.141   2.105
43827SOL    HW133378  14.199   2.228   2.135
43827SOL    HW233379  14.310   2.156   2.060
43828SOL     OW33380   1.065  12.199   4.343
43828SOL    HW133381   1.006  12.170   4.413
43828SOL    HW233382   1.022  12.275   4.304
43829SOL     OW33383  12.078  11.286  11.872
43829SOL    HW133384  12.061  11.195  11.896
43829SOL    HW233385  12.103  11.283  11.780
43830SOL     OW33386  14.784   6.972   3.895
43830SOL    HW133387  14.859   7.017   3.933
43830SOL    HW233388  14.709   7.002   3.947
43831SOL     OW33389  12.966  11.618   1.369
43831SOL    HW133390  12.958  11.680   1.297
43831SOL    HW233391  13.057  11.590   1.368
43832SOL     OW33392   0.078   0.185   3.741
43832SOL    HW133393   0.111   0.260   3.791
43832SOL    HW233394   0.097   0.207   3.650
43833SOL     OW33395   9.458   0.102  13.402
43833SOL    HW133396   9.371   0.081  13.434
43833SOL    HW233397   9.465   0.055  13.319
43834SOL     OW33398  14.268   4.855   2.345
43834SOL    HW133399  14.325   4.860   2.422
43834SOL    HW233400  14.189   4.902   2.371
43835SOL     OW33401   4.202   1.547   6.761
43835SOL    HW133402   4.294   1.552   6.735
43835SOL    HW233403   4.204   1.509   6.849
43836SOL     OW33404   8.598   6.735  10.412
43836SOL    HW133405   8.559   6.665  10.465
43836SOL    HW233406   8.550   6.731  10.329
43837SOL     OW33407   6.045   9.689  14.361
43837SOL    HW133408   6.004   9.645  14.435
43837SOL    HW233409   6.139   9.690  14.382
43838SOL     OW33410   6.221  13.542  14.871
43838SOL    HW133411   6.275  13.474  14.831
43838SOL    HW233412   6.282  13.593   0.037
43839SOL     OW33413   7.037   3.683  13.401
43839SOL    HW133414   7.047   3.766  13.355
43839SOL    HW233415   7.085   3.620  13.348
43840SOL     OW33416  11.841   1.680   3.616
43840SOL    HW133417  11.764   1.631   3.586
43840SOL    HW233418  11.912   1.616   3.614
43841SOL     OW33419   3.263  12.186  10.261
43841SOL    HW133420   3.301  12.234  10.336
43841SOL    HW233421   3.299  12.230  10.184
43842SOL     OW33422   1.811  10.216   4.160
43842SOL    HW133423   1.850  10.129   4.162
43842SOL    HW233424   1.881  10.273   4.129
43843SOL     OW33425   0.409  11.151   2.420
43843SOL    HW133426   0.318  11.119   2.421
43843SOL    HW233427   0.400  11.246   2.413
43844SOL     OW33428  11.518  12.718   4.216
43844SOL    HW133429  11.588  12.693   4.276
43844SOL    HW233430  11.448  12.655   4.233
43845SOL     OW33431   7.712   1.434  10.834
43845SOL    HW133432   7.647   1.368  10.857
43845SOL    HW233433   7.765   1.394  10.765
43846SOL     OW33434  13.612  11.381   1.381
43846SOL    HW133435  13.578  11.367   1.469
43846SOL    HW233436  13.595  11.299   1.335
43847SOL     OW33437  10.514   9.828   4.642
43847SOL    HW133438  10.590   9.856   4.694
43847SOL    HW233439  10.458   9.782   4.704
43848SOL     OW33440   9.522   3.949   4.027
43848SOL    HW133441   9.472   3.899   4.092
43848SOL    HW233442   9.457   3.976   3.963
43849SOL     OW33443   5.645   0.843   4.182
43849SOL    HW133444   5.719   0.807   4.232
43849SOL    HW233445   5.576   0.777   4.189
43850SOL     OW33446  14.233   3.477   2.199
43850SOL    HW133447  14.170   3.549   2.208
43850SOL    HW233448  14.199   3.426   2.125
43851SOL     OW33449   6.961   4.111   9.028
43851SOL    HW133450   7.010   4.084   8.950
43851SOL    HW233451   6.879   4.147   8.993
43852SOL     OW33452   7.475  13.099  12.175
43852SOL    HW133453   7.432  13.131  12.254
43852SOL    HW233454   7.510  13.178  12.133
43853SOL     OW33455   7.555  13.025   1.776
43853SOL    HW133456   7.560  12.948   1.833
43853SOL    HW233457   7.585  12.994   1.691
43854SOL     OW33458  10.732  13.484   2.374
43854SOL    HW133459  10.812  13.536   2.374
43854SOL    HW233460  10.704  13.483   2.465
43855SOL     OW33461   3.659   8.598  11.975
43855SOL    HW133462   3.663   8.671  11.913
43855SOL    HW233463   3.628   8.638  12.056
43856SOL     OW33464   7.174   9.612   8.438
43856SOL    HW133465   7.106   9.645   8.497
43856SOL    HW233466   7.132   9.607   8.352
43857SOL     OW33467   0.162   0.613   2.943
43857SOL    HW133468   0.086   0.587   2.994
43857SOL    HW233469   0.232   0.622   3.007
43858SOL     OW33470  12.858   5.195  12.637
43858SOL    HW133471  12.811   5.197  12.554
43858SOL    HW233472  12.830   5.275  12.683
43859SOL     OW33473  12.864   9.862  11.170
43859SOL    HW133474  12.856   9.776  11.130
43859SOL    HW233475  12.898   9.918  11.099
43860SOL     OW33476   2.906   6.357   3.569
43860SOL    HW133477   2.856   6.294   3.517
43860SOL    HW233478   2.976   6.305   3.609
43861SOL     OW33479   9.526  12.341  11.836
43861SOL    HW133480   9.501  12.364  11.747
43861SOL    HW233481   9.542  12.425  11.880
43862SOL     OW33482   8.949  12.504  13.362
43862SOL    HW133483   8.889  12.517  13.288
43862SOL    HW233484   8.904  12.545  13.436
43863SOL     OW33485   9.183  13.376   2.758
43863SOL    HW133486   9.204  13.299   2.810
43863SOL    HW233487   9.095  13.359   2.723
43864SOL     OW33488   8.180  11.644  12.821
43864SOL    HW133489   8.198  11.657  12.914
43864SOL    HW233490   8.232  11.711  12.777
43865SOL     OW33491   0.446   7.939   2.152
43865SOL    HW133492   0.519   7.970   2.206
43865SOL    HW233493   0.393   8.018   2.137
43866SOL     OW33494   7.781   5.035   2.116
43866SOL    HW133495   7.692   5.068   2.130
43866SOL    HW233496   7.781   4.949   2.158
43867SOL     OW33497   0.101   6.627  12.758
43867SOL    HW133498   0.041   6.580  12.699
43867SOL    HW233499   0.074   6.600  12.846
43868SOL     OW33500   9.500   7.052   0.317
43868SOL    HW133501   9.427   7.064   0.379
43868SOL    HW233502   9.501   7.133   0.267
43869SOL     OW33503   8.018   9.766  12.068
43869SOL    HW133504   8.038   9.790  12.159
43869SOL    HW233505   8.038   9.845  12.018
43870SOL     OW33506   4.834   2.094   1.223
43870SOL    HW133507   4.838   1.998   1.227
43870SOL    HW233508   4.775   2.118   1.295
43871SOL     OW33509   8.392  14.641  13.775
43871SOL    HW133510   8.321  14.648  13.711
43871SOL    HW233511   8.470  14.619  13.723
43872SOL     OW33512   0.664   9.202   3.994
43872SOL    HW133513   0.703   9.276   3.948
43872SOL    HW233514   0.620   9.152   3.926
43873SOL     OW33515   2.070  13.095   8.036
43873SOL    HW133516   2.101  13.075   7.948
43873SOL    HW233517   2.108  13.181   8.056
43874SOL     OW33518   3.311  13.619   6.586
43874SOL    HW133519   3.340  13.620   6.495
43874SOL    HW233520   3.322  13.709   6.615
43875SOL     OW33521   1.987   8.190   7.494
43875SOL    HW133522   2.052   8.260   7.489
43875SOL    HW233523   1.913   8.222   7.442
43876SOL     OW33524   1.094   7.615  10.492
43876SOL    HW133525   1.140   7.574  10.419
43876SOL    HW233526   1.163   7.662  10.540
43877SOL     OW33527   7.261  10.678   0.018
43877SOL    HW133528   7.300  10.753  14.861
43877SOL    HW233529   7.277  10.604  14.846
43878SOL     OW33530  11.542   4.997   7.919
43878SOL    HW133531  11.484   4.974   7.847
43878SOL    HW233532  11.616   5.041   7.878
43879SOL     OW33533   2.908  13.968   8.179
43879SOL    HW133534   2.949  13.930   8.102
43879SOL    HW233535   2.827  13.918   8.190
43880SOL     OW33536   4.108   4.601  14.188
43880SOL    HW133537   4.090   4.650  14.268
43880SOL    HW233538   4.037   4.623  14.129
43881SOL     OW33539   5.416  13.541  11.885
43881SOL    HW133540   5.441  13.535  11.793
43881SOL    HW233541   5.326  13.576  11.883
43882SOL     OW33542   5.507   1.851  13.329
43882SOL    HW133543   5.529   1.771  13.376
43882SOL    HW233544   5.590   1.881  13.293
43883SOL     OW33545   4.468   2.012   6.775
43883SOL    HW133546   4.460   1.933   6.722
43883SOL    HW233547   4.468   1.980   6.865
43884SOL     OW33548   0.654   2.453   0.134
43884SOL    HW133549   0.709   2.378   0.113
43884SOL    HW233550   0.687   2.484   0.219
43885SOL     OW33551   4.681  11.108   8.934
43885SOL    HW133552   4.647  11.124   8.846
43885SOL    HW233553   4.642  11.177   8.987
43886SOL     OW33554  13.376   6.533   1.444
43886SOL    HW133555  13.359   6.626   1.426
43886SOL    HW233556  13.431   6.534   1.523
43887SOL     OW33557  10.628  14.325  14.454
43887SOL    HW133558  10.660  14.372  14.377
43887SOL    HW233559  10.537  14.353  14.463
43888SOL     OW33560   9.026   2.145  10.331
43888SOL    HW133561   9.012   2.055  10.361
43888SOL    HW233562   9.077   2.186  10.401
43889SOL     OW33563   0.706   3.868   6.203
43889SOL    HW133564   0.756   3.823   6.134
43889SOL    HW233565   0.763   3.940   6.230
43890SOL     OW33566   1.376   0.710   8.917
43890SOL    HW133567   1.288   0.690   8.948
43890SOL    HW233568   1.367   0.793   8.870
43891SOL     OW33569  10.588   3.457   1.710
43891SOL    HW133570  10.633   3.527   1.758
43891SOL    HW233571  10.572   3.389   1.776
43892SOL     OW33572   9.410  11.503   8.874
43892SOL    HW133573   9.316  11.519   8.881
43892SOL    HW233574   9.450  11.561   8.939
43893SOL     OW33575   4.167  12.355   3.725
43893SOL    HW133576   4.212  12.438   3.739
43893SOL    HW233577   4.120  12.367   3.642
43894SOL     OW33578   6.449  12.402   7.617
43894SOL    HW133579   6.454  12.409   7.521
43894SOL    HW233580   6.380  12.463   7.642
43895SOL     OW33581  13.949   4.117  10.375
43895SOL    HW133582  13.961   4.207  10.405
43895SOL    HW233583  13.971   4.063  10.451
43896SOL     OW33584  11.303  10.747   5.769
43896SOL    HW133585  11.283  10.712   5.682
43896SOL    HW233586  11.275  10.678   5.829
43897SOL     OW33587   5.237  14.570  12.363
43897SOL    HW133588   5.214  14.494  12.416
43897SOL    HW233589   5.311  14.610  12.409
43898SOL     OW33590   5.170  12.225  13.291
43898SOL    HW133591   5.078  12.246  13.308
43898SOL    HW233592   5.218  12.268  13.362
43899SOL     OW33593   9.368   9.839  11.476
43899SOL    HW133594   9.353   9.793  11.393
43899SOL    HW233595   9.322   9.922  11.466
43900SOL     OW33596   3.558   9.042   0.678
43900SOL    HW133597   3.473   9.085   0.667
43900SOL    HW233598   3.573   9.045   0.773
43901SOL     OW33599   6.137  13.694  13.622
43901SOL    HW133600   6.045  13.722  13.621
43901SOL    HW233601   6.152  13.662  13.711
43902SOL     OW33602  10.121   8.746   7.903
43902SOL    HW133603  10.103   8.731   7.996
43902SOL    HW233604  10.201   8.695   7.887
43903SOL     OW33605  13.495  12.102  12.078
43903SOL    HW133606  13.516  12.021  12.124
43903SOL    HW233607  13.560  12.107  12.008
43904SOL     OW33608   6.658   5.840   4.331
43904SOL    HW133609   6.720   5.900   4.291
43904SOL    HW233610   6.620   5.889   4.404
43905SOL     OW33611   9.312   2.496   8.210
43905SOL    HW133612   9.386   2.556   8.210
43905SOL    HW233613   9.347   2.414   8.246
43906SOL     OW33614   8.274   3.665   4.717
43906SOL    HW133615   8.295   3.759   4.717
43906SOL    HW233616   8.338   3.626   4.658
43907SOL     OW33617  10.425  10.349   5.783
43907SOL    HW133618  10.434  10.325   5.875
43907SOL    HW233619  10.492  10.416   5.769
43908SOL     OW33620   6.686   6.124  14.782
43908SOL    HW133621   6.676   6.190  14.713
43908SOL    HW233622   6.661   6.042  14.740
43909SOL     OW33623   4.960   4.054  14.465
43909SOL    HW133624   4.902   3.979  14.455
43909SOL    HW233625   4.921   4.121  14.409
43910SOL     OW33626   2.847  14.783   0.163
43910SOL    HW133627   2.849  14.733   0.081
43910SOL    HW233628   2.786  14.854   0.146
43911SOL     OW33629  13.764   8.676   3.769
43911SOL    HW133630  13.770   8.753   3.824
43911SOL    HW233631  13.823   8.693   3.696
43912SOL     OW33632   0.307   6.438  11.905
43912SOL    HW133633   0.307   6.463  11.997
43912SOL    HW233634   0.379   6.375  11.897
43913SOL     OW33635   6.086   0.347   8.399
43913SOL    HW133636   6.107   0.296   8.321
43913SOL    HW233637   6.171   0.364   8.440
43914SOL     OW33638  11.634   7.797  10.090
43914SOL    HW133639  11.672   7.847  10.163
43914SOL    HW233640  11.586   7.726  10.133
43915SOL     OW33641   0.732   8.723  11.376
43915SOL    HW133642   0.771   8.799  11.333
43915SOL    HW233643   0.691   8.759  11.455
43916SOL     OW33644   8.140  13.521   5.430
43916SOL    HW133645   8.151  13.613   5.403
43916SOL    HW233646   8.200  13.473   5.374
43917SOL     OW33647  12.869   7.105   6.123
43917SOL    HW133648  12.930   7.095   6.050
43917SOL    HW233649  12.923   7.140   6.194
43918SOL     OW33650  10.202   5.475   7.585
43918SOL    HW133651  10.244   5.540   7.529
43918SOL    HW233652  10.110   5.502   7.589
43919SOL     OW33653   1.662   7.510   2.918
43919SOL    HW133654   1.700   7.426   2.890
43919SOL    HW233655   1.643   7.499   3.011
43920SOL     OW33656   7.390  13.517   9.603
43920SOL    HW133657   7.348  13.603   9.598
43920SOL    HW233658   7.317  13.455   9.609
43921SOL     OW33659   8.273   3.956   6.934
43921SOL    HW133660   8.218   4.000   6.998
43921SOL    HW233661   8.211   3.909   6.877
43922SOL     OW33662  11.887   3.584   6.539
43922SOL    HW133663  11.841   3.625   6.612
43922SOL    HW233664  11.953   3.648   6.513
43923SOL     OW33665   6.424  14.183  13.207
43923SOL    HW133666   6.516  14.189  13.230
43923SOL    HW233667   6.381  14.152  13.286
43924SOL     OW33668   2.710  10.837  13.394
43924SOL    HW133669   2.723  10.796  13.479
43924SOL    HW233670   2.798  10.864  13.367
43925SOL     OW33671  11.325   6.262   4.991
43925SOL    HW133672  11.399   6.314   4.956
43925SOL    HW233673  11.298   6.309   5.070
43926SOL     OW33674  14.467   5.439  12.427
43926SOL    HW133675  14.542   5.476  12.473
43926SOL    HW233676  14.453   5.354  12.469
43927SOL     OW33677   8.334   8.964   9.774
43927SOL    HW133678   8.362   8.875   9.795
43927SOL    HW233679   8.249   8.973   9.816
43928SOL     OW33680   2.164   5.074   5.645
43928SOL    HW133681   2.119   5.129   5.581
43928SOL    HW233682   2.095   5.021   5.684
43929SOL     OW33683   9.247   7.860  10.594
43929SOL    HW133684   9.249   7.766  10.579
43929SOL    HW233685   9.326   7.879  10.645
43930SOL     OW33686   2.980  12.199   2.205
43930SOL    HW133687   3.052  12.214   2.144
43930SOL    HW233688   2.903  12.235   2.160
43931SOL     OW33689  13.386  12.714  13.630
43931SOL    HW133690  13.319  12.702  13.563
43931SOL    HW233691  13.388  12.631  13.677
43932SOL     OW33692   6.722  14.047  13.683
43932SOL    HW133693   6.640  14.003  13.707
43932SOL    HW233694   6.701  14.141  13.689
43933SOL     OW33695   7.350   2.137   1.523
43933SOL    HW133696   7.338   2.231   1.536
43933SOL    HW233697   7.429   2.116   1.573
43934SOL     OW33698   4.561  13.525   6.375
43934SOL    HW133699   4.477  13.478   6.374
43934SOL    HW233700   4.597  13.510   6.287
43935SOL     OW33701   0.442   9.245   0.721
43935SOL    HW133702   0.483   9.197   0.650
43935SOL    HW233703   0.367   9.190   0.747
43936SOL     OW33704   4.108   6.522   7.666
43936SOL    HW133705   4.086   6.430   7.679
43936SOL    HW233706   4.151   6.548   7.747
43937SOL     OW33707   3.737  10.919  10.860
43937SOL    HW133708   3.818  10.914  10.810
43937SOL    HW233709   3.672  10.948  10.796
43938SOL     OW33710  14.497  13.305   4.883
43938SOL    HW133711  14.427  13.324   4.946
43938SOL    HW233712  14.570  13.275   4.937
43939SOL     OW33713  10.119   3.493  12.715
43939SOL    HW133714  10.094   3.558  12.649
43939SOL    HW233715  10.198   3.452  12.679
43940SOL     OW33716   6.090  12.462  10.344
43940SOL    HW133717   6.178  12.488  10.371
43940SOL    HW233718   6.079  12.374  10.380
43941SOL     OW33719   6.010   6.738   5.669
43941SOL    HW133720   5.962   6.705   5.593
43941SOL    HW233721   5.999   6.833   5.664
43942SOL     OW33722   2.703   0.646   8.960
43942SOL    HW133723   2.693   0.732   8.999
43942SOL    HW233724   2.692   0.660   8.866
43943SOL     OW33725   5.009  14.223   1.409
43943SOL    HW133726   4.924  14.180   1.397
43943SOL    HW233727   5.048  14.180   1.485
43944SOL     OW33728  13.098   0.312   0.489
43944SOL    HW133729  13.032   0.252   0.524
43944SOL    HW233730  13.052   0.361   0.421
43945SOL     OW33731   1.994   5.250   8.386
43945SOL    HW133732   1.966   5.292   8.305
43945SOL    HW233733   1.931   5.280   8.452
43946SOL     OW33734  11.325   7.909   7.396
43946SOL    HW133735  11.266   7.947   7.331
43946SOL    HW233736  11.355   7.827   7.357
43947SOL     OW33737   9.470   9.100  14.764
43947SOL    HW133738   9.432   9.012  14.772
43947SOL    HW233739   9.416   9.143  14.698
43948SOL     OW33740   8.354  10.313   1.663
43948SOL    HW133741   8.337  10.404   1.685
43948SOL    HW233742   8.431  10.315   1.607
43949SOL     OW33743  14.418   9.222   5.285
43949SOL    HW133744  14.397   9.180   5.369
43949SOL    HW233745  14.513   9.216   5.278
43950SOL     OW33746   2.485  13.489   6.777
43950SOL    HW133747   2.580  13.489   6.786
43950SOL    HW233748   2.456  13.413   6.827
43951SOL     OW33749  13.684   4.138   9.313
43951SOL    HW133750  13.749   4.187   9.261
43951SOL    HW233751  13.719   4.049   9.318
43952SOL     OW33752   2.362   0.717  14.013
43952SOL    HW133753   2.379   0.715  14.107
43952SOL    HW233754   2.275   0.678  14.003
43953SOL     OW33755   5.232   0.446  14.412
43953SOL    HW133756   5.205   0.384  14.344
43953SOL    HW233757   5.327   0.441  14.413
43954SOL     OW33758  13.295   1.145  13.776
43954SOL    HW133759  13.309   1.232  13.739
43954SOL    HW233760  13.252   1.096  13.706
43955SOL     OW33761   9.286  12.655   7.708
43955SOL    HW133762   9.274  12.591   7.778
43955SOL    HW233763   9.323  12.605   7.635
43956SOL     OW33764   5.170  14.055   3.764
43956SOL    HW133765   5.114  14.089   3.835
43956SOL    HW233766   5.259  14.075   3.793
43957SOL     OW33767  13.899  14.372   2.001
43957SOL    HW133768  13.824  14.323   1.968
43957SOL    HW233769  13.946  14.400   1.922
43958SOL     OW33770  12.525  13.991   2.690
43958SOL    HW133771  12.497  14.082   2.700
43958SOL    HW233772  12.518  13.974   2.596
43959SOL     OW33773   6.148   2.162   9.875
43959SOL    HW133774   6.189   2.228   9.819
43959SOL    HW233775   6.088   2.213   9.931
43960SOL     OW33776   4.717   8.630   1.021
43960SOL    HW133777   4.774   8.559   1.051
43960SOL    HW233778   4.631   8.607   1.056
43961SOL     OW33779   4.539   2.198  10.659
43961SOL    HW133780   4.568   2.108  10.673
43961SOL    HW233781   4.494   2.196  10.575
43962SOL     OW33782   8.943  13.629   6.876
43962SOL    HW133783   8.889  13.592   6.945
43962SOL    HW233784   8.988  13.703   6.918
43963SOL     OW33785   3.169   4.946  12.683
43963SOL    HW133786   3.232   4.926  12.753
43963SOL    HW233787   3.093   4.891  12.704
43964SOL     OW33788   6.188   8.591  12.163
43964SOL    HW133789   6.163   8.537  12.238
43964SOL    HW233790   6.109   8.595  12.109
43965SOL     OW33791   7.618   3.471   8.542
43965SOL    HW133792   7.621   3.429   8.455
43965SOL    HW233793   7.546   3.426   8.587
43966SOL     OW33794   0.293   9.936  10.780
43966SOL    HW133795   0.362   9.945  10.715
43966SOL    HW233796   0.216   9.908  10.730
43967SOL     OW33797   5.210  12.770   1.566
43967SOL    HW133798   5.302  12.753   1.587
43967SOL    HW233799   5.161  12.739   1.642
43968SOL     OW33800   3.103   2.256   8.853
43968SOL    HW133801   3.127   2.169   8.887
43968SOL    HW233802   3.068   2.302   8.929
43969SOL     OW33803  12.925   5.630   8.868
43969SOL    HW133804  12.961   5.590   8.789
43969SOL    HW233805  12.851   5.574   8.892
43970SOL     OW33806  10.263   5.870   1.341
43970SOL    HW133807  10.195   5.890   1.405
43970SOL    HW233808  10.263   5.775   1.334
43971SOL     OW33809   5.869   0.858   1.614
43971SOL    HW133810   5.794   0.917   1.604
43971SOL    HW233811   5.907   0.882   1.698
43972SOL     OW33812  10.857   0.826  10.840
43972SOL    HW133813  10.921   0.808  10.909
43972SOL    HW233814  10.775   0.842  10.886
43973SOL     OW33815   1.795   5.087   2.967
43973SOL    HW133816   1.827   5.024   2.902
43973SOL    HW233817   1.812   5.172   2.928
43974SOL     OW33818   0.977  14.258   6.113
43974SOL    HW133819   1.040  14.189   6.131
43974SOL    HW233820   0.895  14.212   6.097
43975SOL     OW33821   5.905   4.691   7.583
43975SOL    HW133822   5.985   4.744   7.576
43975SOL    HW233823   5.895   4.676   7.677
43976SOL     OW33824  12.413   7.514   2.322
43976SOL    HW133825  12.464   7.591   2.346
43976SOL    HW233826  12.443   7.493   2.233
43977SOL     OW33827   2.330   8.241  11.534
43977SOL    HW133828   2.423   8.260  11.551
43977SOL    HW233829   2.300   8.314  11.480
43978SOL     OW33830   3.847   6.705   0.528
43978SOL    HW133831   3.805   6.782   0.490
43978SOL    HW233832   3.784   6.634   0.516
43979SOL     OW33833   0.777   4.579   8.368
43979SOL    HW133834   0.756   4.642   8.300
43979SOL    HW233835   0.868   4.553   8.349
43980SOL     OW33836   8.771   3.632  11.976
43980SOL    HW133837   8.795   3.601  11.889
43980SOL    HW233838   8.830   3.706  11.993
43981SOL     OW33839  12.687  12.833  14.855
43981SOL    HW133840  12.707  12.927  14.853
43981SOL    HW233841  12.627  12.819  14.782
43982SOL     OW33842   4.348   0.746   0.167
43982SOL    HW133843   4.267   0.730   0.216
43982SOL    HW233844   4.411   0.685   0.205
43983SOL     OW33845   0.852   2.471  13.439
43983SOL    HW133846   0.912   2.397  13.445
43983SOL    HW233847   0.785   2.453  13.504
43984SOL     OW33848   3.215  10.768  12.973
43984SOL    HW133849   3.184  10.761  12.883
43984SOL    HW233850   3.135  10.769  13.026
43985SOL     OW33851   0.070   3.086   5.355
43985SOL    HW133852   0.067   3.021   5.425
43985SOL    HW233853   0.080   3.169   5.401
43986SOL     OW33854   9.485  11.790   3.022
43986SOL    HW133855   9.509  11.716   2.967
43986SOL    HW233856   9.397  11.813   2.993
43987SOL     OW33857   2.598  12.543   6.855
43987SOL    HW133858   2.593  12.522   6.948
43987SOL    HW233859   2.684  12.583   6.844
43988SOL     OW33860   9.837   0.039   3.692
43988SOL    HW133861   9.878  14.879   3.764
43988SOL    HW233862   9.768   0.091   3.733
43989SOL     OW33863   0.728  13.483   9.980
43989SOL    HW133864   0.740  13.394  10.014
43989SOL    HW233865   0.784  13.537  10.036
43990SOL     OW33866   3.859  13.144   5.787
43990SOL    HW133867   3.783  13.173   5.837
43990SOL    HW233868   3.825  13.078   5.727
43991SOL     OW33869  11.014   9.399   2.452
43991SOL    HW133870  10.999   9.305   2.449
43991SOL    HW233871  11.104   9.409   2.482
43992SOL     OW33872  13.837   6.656   9.701
43992SOL    HW133873  13.852   6.562   9.691
43992SOL    HW233874  13.763   6.675   9.644
43993SOL     OW33875  11.692   0.362   5.693
43993SOL    HW133876  11.626   0.397   5.752
43993SOL    HW233877  11.738   0.296   5.746
43994SOL     OW33878  13.322   4.978  10.504
43994SOL    HW133879  13.351   4.890  10.478
43994SOL    HW233880  13.314   5.026  10.421
43995SOL     OW33881   3.805   9.489  11.771
43995SOL    HW133882   3.715   9.484  11.803
43995SOL    HW233883   3.858   9.488  11.850
43996SOL     OW33884  13.368  11.675  11.333
43996SOL    HW133885  13.339  11.690  11.423
43996SOL    HW233886  13.414  11.591  11.336
43997SOL     OW33887   8.283   6.215   7.909
43997SOL    HW133888   8.244   6.268   7.840
43997SOL    HW233889   8.366   6.257   7.928
43998SOL     OW33890   0.494  14.171   4.228
43998SOL    HW133891   0.466  14.084   4.256
43998SOL    HW233892   0.455  14.183   4.141
43999SOL     OW33893  14.304   7.410   3.049
43999SOL    HW133894  14.292   7.408   2.954
43999SOL    HW233895  14.336   7.322   3.070
44000SOL     OW33896   4.392  14.681   8.766
44000SOL    HW133897   4.479  14.721   8.760
44000SOL    HW233898   4.407  14.589   8.744
44001SOL     OW33899   9.876   9.585   9.254
44001SOL    HW133900   9.894   9.651   9.320
44001SOL    HW233901   9.815   9.524   9.296
44002SOL     OW33902   2.532  11.015   4.359
44002SOL    HW133903   2.616  11.043   4.321
44002SOL    HW233904   2.556  10.951   4.425
44003SOL     OW33905  12.622   3.672   8.637
44003SOL    HW133906  12.567   3.745   8.609
44003SOL    HW233907  12.561   3.609   8.675
44004SOL     OW33908  10.753   6.400  10.240
44004SOL    HW133909  10.716   6.312  10.241
44004SOL    HW233910  10.679   6.458  10.220
44005SOL     OW33911   1.885   7.558   6.078
44005SOL    HW133912   1.911   7.649   6.060
44005SOL    HW233913   1.880   7.553   6.174
44006SOL     OW33914   9.177  10.493   1.260
44006SOL    HW133915   9.259  10.448   1.277
44006SOL    HW233916   9.140  10.509   1.347
44007SOL     OW33917  10.376   4.077   3.604
44007SOL    HW133918  10.459   4.123   3.596
44007SOL    HW233919  10.327   4.102   3.526
44008SOL     OW33920   6.208   5.679  13.521
44008SOL    HW133921   6.252   5.718  13.446
44008SOL    HW233922   6.133   5.737  13.537
44009SOL     OW33923   9.171   3.632   7.152
44009SOL    HW133924   9.173   3.727   7.143
44009SOL    HW233925   9.153   3.617   7.245
44010SOL     OW33926   4.931   5.892   1.795
44010SOL    HW133927   4.863   5.838   1.756
44010SOL    HW233928   4.976   5.833   1.856
44011SOL     OW33929  14.020  10.018   9.446
44011SOL    HW133930  14.086  10.054   9.386
44011SOL    HW233931  13.945   9.999   9.390
44012SOL     OW33932  14.096  13.477   9.748
44012SOL    HW133933  14.056  13.425   9.679
44012SOL    HW233934  14.174  13.427   9.774
44013SOL     OW33935   6.237   3.068   3.301
44013SOL    HW133936   6.276   3.020   3.228
44013SOL    HW233937   6.288   3.148   3.306
44014SOL     OW33938   8.303  14.558   4.234
44014SOL    HW133939   8.282  14.584   4.323
44014SOL    HW233940   8.382  14.608   4.212
44015SOL     OW33941   0.937   0.902   1.792
44015SOL    HW133942   0.889   0.821   1.807
44015SOL    HW233943   0.891   0.943   1.719
44016SOL     OW33944   9.898   7.711  10.321
44016SOL    HW133945   9.906   7.674  10.409
44016SOL    HW233946   9.818   7.763  10.324
44017SOL     OW33947   7.925   4.555   9.968
44017SOL    HW133948   7.832   4.576   9.959
44017SOL    HW233949   7.968   4.639   9.984
44018SOL     OW33950   5.064   5.377   5.869
44018SOL    HW133951   5.040   5.469   5.880
44018SOL    HW233952   4.999   5.343   5.807
44019SOL     OW33953   9.113   4.447   4.776
44019SOL    HW133954   9.062   4.369   4.754
44019SOL    HW233955   9.111   4.500   4.696
44020SOL     OW33956  11.388   2.327  14.026
44020SOL    HW133957  11.426   2.373  13.951
44020SOL    HW233958  11.294   2.336  14.015
44021SOL     OW33959  12.885   7.080   8.552
44021SOL    HW133960  12.976   7.078   8.522
44021SOL    HW233961  12.859   6.988   8.554
44022SOL     OW33962   1.766   8.768   0.588
44022SOL    HW133963   1.708   8.693   0.574
44022SOL    HW233964   1.710   8.844   0.572
44023SOL     OW33965   4.728   1.364  12.060
44023SOL    HW133966   4.670   1.426  12.104
44023SOL    HW233967   4.725   1.389  11.968
44024SOL     OW33968   6.290   7.352   0.951
44024SOL    HW133969   6.205   7.379   0.917
44024SOL    HW233970   6.311   7.418   1.018
44025SOL     OW33971   8.019   7.520   8.454
44025SOL    HW133972   8.029   7.602   8.501
44025SOL    HW233973   7.939   7.481   8.490
44026SOL     OW33974   4.972   4.086  10.887
44026SOL    HW133975   4.929   4.002  10.873
44026SOL    HW233976   4.903   4.143  10.921
44027SOL     OW33977   9.059   1.447  10.738
44027SOL    HW133978   9.148   1.465  10.770
44027SOL    HW233979   9.029   1.373  10.791
44028SOL     OW33980   4.609  14.763   2.867
44028SOL    HW133981   4.683  14.725   2.819
44028SOL    HW233982   4.532  14.718   2.831
44029SOL     OW33983   9.829  11.971   4.037
44029SOL    HW133984   9.847  11.878   4.021
44029SOL    HW233985   9.734  11.976   4.044
44030SOL     OW33986  13.396   3.636   1.224
44030SOL    HW133987  13.346   3.686   1.288
44030SOL    HW233988  13.376   3.544   1.244
44031SOL     OW33989   5.311   9.462  11.258
44031SOL    HW133990   5.364   9.424  11.188
44031SOL    HW233991   5.224   9.474  11.218
44032SOL     OW33992   6.272  10.470  14.242
44032SOL    HW133993   6.258  10.389  14.290
44032SOL    HW233994   6.214  10.533  14.284
44033SOL     OW33995   5.401   5.607  10.224
44033SOL    HW133996   5.477   5.580  10.275
44033SOL    HW233997   5.417   5.573  10.136
44034SOL     OW33998   6.782  13.590   4.137
44034SOL    HW133999   6.810  13.544   4.216
44034SOL    HW234000   6.858  13.584   4.078
44035SOL     OW34001  10.889   9.993  13.996
44035SOL    HW134002  10.820   9.979  13.931
44035SOL    HW234003  10.879   9.920  14.057
44036SOL     OW34004  14.609  14.582  12.473
44036SOL    HW134005  14.669  14.656  12.482
44036SOL    HW234006  14.647  14.514  12.529
44037SOL     OW34007   0.169   8.773  12.853
44037SOL    HW134008   0.203   8.788  12.764
44037SOL    HW234009   0.074   8.778  12.844
44038SOL     OW34010  11.984   2.905  11.943
44038SOL    HW134011  11.997   2.936  12.032
44038SOL    HW234012  12.031   2.968  11.888
44039SOL     OW34013   3.807  14.452   9.347
44039SOL    HW134014   3.749  14.376   9.357
44039SOL    HW234015   3.818  14.486   9.436
44040SOL     OW34016  14.154   8.524  10.971
44040SOL    HW134017  14.126   8.438  11.001
44040SOL    HW234018  14.241   8.509  10.934
44041SOL     OW34019  14.352   6.948  11.671
44041SOL    HW134020  14.281   6.906  11.719
44041SOL    HW234021  14.428   6.892  11.686
44042SOL     OW34022  10.428  10.054   5.801
44042SOL    HW134023  10.342  10.027   5.766
44042SOL    HW234024  10.453  10.128   5.746
44043SOL     OW34025  10.107  13.294   9.253
44043SOL    HW134026  10.093  13.382   9.287
44043SOL    HW234027  10.198  13.294   9.223
44044SOL     OW34028  11.342   0.083  12.214
44044SOL    HW134029  11.255   0.105  12.246
44044SOL    HW234030  11.331   0.076  12.119
44045SOL     OW34031   6.896   7.578   2.614
44045SOL    HW134032   6.948   7.516   2.665
44045SOL    HW234033   6.916   7.557   2.523
44046SOL     OW34034  11.527  11.825   8.494
44046SOL    HW134035  11.609  11.864   8.463
44046SOL    HW234036  11.552  11.776   8.572
44047SOL     OW34037   8.182   2.109   2.933
44047SOL    HW134038   8.181   2.170   2.859
44047SOL    HW234039   8.245   2.042   2.908
44048SOL     OW34040   9.344  13.942  12.201
44048SOL    HW134041   9.310  13.932  12.113
44048SOL    HW234042   9.436  13.917  12.194
44049SOL     OW34043   6.137   1.518  12.910
44049SOL    HW134044   6.090   1.475  12.981
44049SOL    HW234045   6.118   1.464  12.833
44050SOL     OW34046  10.115   3.103  12.048
44050SOL    HW134047  10.130   3.101  12.142
44050SOL    HW234048  10.175   3.170  12.015
44051SOL     OW34049   3.927  14.339  10.468
44051SOL    HW134050   3.892  14.382  10.546
44051SOL    HW234051   4.022  14.343  10.479
44052SOL     OW34052  12.458  12.479  11.227
44052SOL    HW134053  12.542  12.468  11.182
44052SOL    HW234054  12.393  12.444  11.166
44053SOL     OW34055   6.324   7.659   9.079
44053SOL    HW134056   6.402   7.653   9.133
44053SOL    HW234057   6.299   7.568   9.063
44054SOL     OW34058  12.058   4.888   8.157
44054SOL    HW134059  12.146   4.884   8.193
44054SOL    HW234060  12.009   4.941   8.220
44055SOL     OW34061  11.782   8.194  13.370
44055SOL    HW134062  11.799   8.142  13.448
44055SOL    HW234063  11.831   8.151  13.300
44056SOL     OW34064   1.302   1.548   2.468
44056SOL    HW134065   1.245   1.473   2.484
44056SOL    HW234066   1.245   1.615   2.430
44057SOL     OW34067   0.919  11.236  14.881
44057SOL    HW134068   0.869  11.157  14.859
44057SOL    HW234069   0.928  11.283  14.798
44058SOL     OW34070   7.132   1.397  14.775
44058SOL    HW134071   7.157   1.310  14.743
44058SOL    HW234072   7.057   1.380  14.833
44059SOL     OW34073  10.615   2.513   5.317
44059SOL    HW134074  10.600   2.436   5.372
44059SOL    HW234075  10.694   2.492   5.267
44060SOL     OW34076   1.478   2.211   8.119
44060SOL    HW134077   1.423   2.280   8.082
44060SOL    HW234078   1.514   2.165   8.044
44061SOL     OW34079   9.429   0.317   2.748
44061SOL    HW134080   9.441   0.332   2.842
44061SOL    HW234081   9.382   0.395   2.717
44062SOL     OW34082  11.685   4.561   5.988
44062SOL    HW134083  11.645   4.617   6.055
44062SOL    HW234084  11.656   4.472   6.011
44063SOL     OW34085   7.310   0.156   1.649
44063SOL    HW134086   7.286   0.065   1.668
44063SOL    HW234087   7.226   0.202   1.643
44064SOL     OW34088  12.265   6.329  13.428
44064SOL    HW134089  12.187   6.368  13.467
44064SOL    HW234090  12.307   6.401  13.381
44065SOL     OW34091  14.168  11.663  11.904
44065SOL    HW134092  14.140  11.717  11.978
44065SOL    HW234093  14.187  11.726  11.834
44066SOL     OW34094   3.714  10.281   9.957
44066SOL    HW134095   3.648  10.229   9.911
44066SOL    HW234096   3.665  10.358   9.987
44067SOL     OW34097   2.828   0.724   3.854
44067SOL    HW134098   2.811   0.631   3.847
44067SOL    HW234099   2.890   0.731   3.927
44068SOL     OW34100   1.837   5.581   1.492
44068SOL    HW134101   1.930   5.577   1.473
44068SOL    HW234102   1.825   5.521   1.565
44069SOL     OW34103   5.359   9.887  11.169
44069SOL    HW134104   5.354   9.828  11.244
44069SOL    HW234105   5.450   9.881  11.139
44070SOL     OW34106  10.155   5.194  12.349
44070SOL    HW134107  10.096   5.198  12.274
44070SOL    HW234108  10.237   5.160  12.313
44071SOL     OW34109   5.113   6.017   7.329
44071SOL    HW134110   5.158   6.040   7.248
44071SOL    HW234111   5.182   5.983   7.386
44072SOL     OW34112   9.066   3.462   4.684
44072SOL    HW134113   9.153   3.494   4.660
44072SOL    HW234114   9.050   3.500   4.770
44073SOL     OW34115   0.776  13.427   0.814
44073SOL    HW134116   0.703  13.373   0.843
44073SOL    HW234117   0.774  13.421   0.719
44074SOL     OW34118   5.283   3.282  14.630
44074SOL    HW134119   5.236   3.308  14.709
44074SOL    HW234120   5.375   3.294  14.652
44075SOL     OW34121   9.851   2.164   5.644
44075SOL    HW134122   9.779   2.113   5.606
44075SOL    HW234123   9.905   2.187   5.568
44076SOL     OW34124   6.053  12.310   3.316
44076SOL    HW134125   6.069  12.390   3.365
44076SOL    HW234126   5.960  12.313   3.293
44077SOL     OW34127   6.527  13.209   9.530
44077SOL    HW134128   6.488  13.210   9.617
44077SOL    HW234129   6.492  13.288   9.487
44078SOL     OW34130   1.478   3.328   0.478
44078SOL    HW134131   1.528   3.328   0.397
44078SOL    HW234132   1.467   3.421   0.500
44079SOL     OW34133  11.009  14.663   9.499
44079SOL    HW134134  11.040  14.753   9.514
44079SOL    HW234135  11.081  14.622   9.450
44080SOL     OW34136  12.698  11.367   7.286
44080SOL    HW134137  12.792  11.365   7.304
44080SOL    HW234138  12.665  11.437   7.343
44081SOL     OW34139  14.541  10.296  10.113
44081SOL    HW134140  14.527  10.255  10.027
44081SOL    HW234141  14.637  10.296  10.124
44082SOL     OW34142   4.248   9.932  13.091
44082SOL    HW134143   4.332   9.891  13.069
44082SOL    HW234144   4.187   9.898  13.025
44083SOL     OW34145   2.275  11.801   0.829
44083SOL    HW134146   2.189  11.837   0.849
44083SOL    HW234147   2.328  11.876   0.804
44084SOL     OW34148   2.774   1.752   3.822
44084SOL    HW134149   2.857   1.712   3.845
44084SOL    HW234150   2.712   1.679   3.817
44085SOL     OW34151   1.826   8.842   2.321
44085SOL    HW134152   1.850   8.750   2.317
44085SOL    HW234153   1.854   8.877   2.236
44086SOL     OW34154  12.871   9.034   0.366
44086SOL    HW134155  12.877   8.942   0.341
44086SOL    HW234156  12.943   9.076   0.320
44087SOL     OW34157   7.690  12.766   4.586
44087SOL    HW134158   7.689  12.854   4.548
44087SOL    HW234159   7.634  12.773   4.664
44088SOL     OW34160   5.615  12.839   5.222
44088SOL    HW134161   5.553  12.895   5.268
44088SOL    HW234162   5.698  12.851   5.269
44089SOL     OW34163   4.114   1.542  10.039
44089SOL    HW134164   4.195   1.579  10.004
44089SOL    HW234165   4.067   1.509   9.962
44090SOL     OW34166  10.628   4.175   3.884
44090SOL    HW134167  10.671   4.253   3.848
44090SOL    HW234168  10.635   4.185   3.979
44091SOL     OW34169   9.531  11.354   6.430
44091SOL    HW134170   9.487  11.375   6.348
44091SOL    HW234171   9.624  11.368   6.412
44092SOL     OW34172  10.427  12.781  12.245
44092SOL    HW134173  10.513  12.824  12.254
44092SOL    HW234174  10.433  12.703  12.300
44093SOL     OW34175   8.005  10.432   1.053
44093SOL    HW134176   8.024  10.482   0.973
44093SOL    HW234177   7.948  10.489   1.104
44094SOL     OW34178   5.929  10.358   9.642
44094SOL    HW134179   5.848  10.307   9.634
44094SOL    HW234180   5.945  10.361   9.737
44095SOL     OW34181   3.040   7.098  10.412
44095SOL    HW134182   3.041   7.104  10.507
44095SOL    HW234183   2.948   7.110  10.387
44096SOL     OW34184  13.463   2.189   8.804
44096SOL    HW134185  13.385   2.134   8.797
44096SOL    HW234186  13.535   2.128   8.819
44097SOL     OW34187  10.373   3.880   8.262
44097SOL    HW134188  10.349   3.964   8.303
44097SOL    HW234189  10.297   3.858   8.208
44098SOL     OW34190   2.252   2.012   6.250
44098SOL    HW134191   2.309   1.984   6.323
44098SOL    HW234192   2.283   2.099   6.227
44099SOL     OW34193   4.464   0.018   5.856
44099SOL    HW134194   4.485  14.819   5.893
44099SOL    HW234195   4.388   0.047   5.906
44100SOL     OW34196   8.487   8.773   9.314
44100SOL    HW134197   8.416   8.752   9.375
44100SOL    HW234198   8.484   8.868   9.306
44101SOL     OW34199   7.061  13.523   8.642
44101SOL    HW134200   7.012  13.524   8.560
44101SOL    HW234201   7.016  13.458   8.696
44102SOL     OW34202  13.927   8.780  11.885
44102SOL    HW134203  14.009   8.747  11.920
44102SOL    HW234204  13.895   8.711  11.827
44103SOL     OW34205  13.126   2.176   4.463
44103SOL    HW134206  13.213   2.205   4.436
44103SOL    HW234207  13.076   2.257   4.474
44104SOL     OW34208   6.440   8.057   1.312
44104SOL    HW134209   6.400   8.026   1.394
44104SOL    HW234210   6.368   8.053   1.248
44105SOL     OW34211   7.399   5.153   1.253
44105SOL    HW134212   7.323   5.212   1.261
44105SOL    HW234213   7.374   5.075   1.303
44106SOL     OW34214  11.545   2.636  10.281
44106SOL    HW134215  11.568   2.729  10.277
44106SOL    HW234216  11.486   2.623  10.206
44107SOL     OW34217  10.757  14.682   7.771
44107SOL    HW134218  10.736  14.648   7.858
44107SOL    HW234219  10.759  14.605   7.715
44108SOL     OW34220   6.887  14.369  10.903
44108SOL    HW134221   6.910  14.293  10.957
44108SOL    HW234222   6.940  14.359  10.824
44109SOL     OW34223   3.398   6.839   1.769
44109SOL    HW134224   3.336   6.780   1.727
44109SOL    HW234225   3.484   6.810   1.738
44110SOL     OW34226   6.859   9.377   7.920
44110SOL    HW134227   6.927   9.332   7.971
44110SOL    HW234228   6.903   9.402   7.839
44111SOL     OW34229   7.243  12.407   2.746
44111SOL    HW134230   7.312  12.425   2.810
44111SOL    HW234231   7.289  12.406   2.662
44112SOL     OW34232  14.328  11.295   2.034
44112SOL    HW134233  14.341  11.200   2.032
44112SOL    HW234234  14.302  11.314   2.125
44113SOL     OW34235   3.748   9.809   6.364
44113SOL    HW134236   3.840   9.833   6.361
44113SOL    HW234237   3.732   9.764   6.282
44114SOL     OW34238  13.211   4.681   0.527
44114SOL    HW134239  13.203   4.648   0.617
44114SOL    HW234240  13.221   4.775   0.536
44115SOL     OW34241   3.490  10.215   8.536
44115SOL    HW134242   3.568  10.201   8.482
44115SOL    HW234243   3.474  10.131   8.579
44116SOL     OW34244   7.456  13.235   1.454
44116SOL    HW134245   7.389  13.265   1.393
44116SOL    HW234246   7.407  13.191   1.523
44117SOL     OW34247  10.661  11.018   0.729
44117SOL    HW134248  10.716  11.076   0.678
44117SOL    HW234249  10.721  10.977   0.792
44118SOL     OW34250   0.743   3.488   1.729
44118SOL    HW134251   0.819   3.503   1.785
44118SOL    HW234252   0.780   3.475   1.642
44119SOL     OW34253  10.721   6.824   5.363
44119SOL    HW134254  10.660   6.881   5.316
44119SOL    HW234255  10.757   6.766   5.295
44120SOL     OW34256   4.419   1.837   8.130
44120SOL    HW134257   4.407   1.752   8.174
44120SOL    HW234258   4.402   1.902   8.199
44121SOL     OW34259   7.374   9.388  10.786
44121SOL    HW134260   7.437   9.423  10.722
44121SOL    HW234261   7.301   9.358  10.733
44122SOL     OW34262   5.795   4.841   7.382
44122SOL    HW134263   5.809   4.789   7.461
44122SOL    HW234264   5.852   4.917   7.392
44123SOL     OW34265   6.606   8.307   0.227
44123SOL    HW134266   6.593   8.216   0.255
44123SOL    HW234267   6.694   8.329   0.258
44124SOL     OW34268  10.526  11.564  13.251
44124SOL    HW134269  10.575  11.545  13.170
44124SOL    HW234270  10.495  11.653  13.239
44125SOL     OW34271   1.962  13.615   1.302
44125SOL    HW134272   1.999  13.559   1.370
44125SOL    HW234273   1.940  13.555   1.231
44126SOL     OW34274   5.358   1.310   4.125
44126SOL    HW134275   5.382   1.329   4.035
44126SOL    HW234276   5.300   1.382   4.151
44127SOL     OW34277   6.843  10.584   8.919
44127SOL    HW134278   6.795  10.595   9.001
44127SOL    HW234279   6.908  10.516   8.937
44128SOL     OW34280   5.384  11.361  11.914
44128SOL    HW134281   5.339  11.318  11.841
44128SOL    HW234282   5.472  11.325  11.913
44129SOL     OW34283  14.784  11.733   7.608
44129SOL    HW134284  14.720  11.664   7.593
44129SOL    HW234285  14.785  11.745   7.703
44130SOL     OW34286   9.166   2.389  12.522
44130SOL    HW134287   9.215   2.330  12.578
44130SOL    HW234288   9.149   2.466  12.577
44131SOL     OW34289   9.988   2.853  11.369
44131SOL    HW134290   9.928   2.846  11.294
44131SOL    HW234291   9.939   2.903  11.434
44132SOL     OW34292  11.774   1.357  13.049
44132SOL    HW134293  11.839   1.388  13.112
44132SOL    HW234294  11.695   1.342  13.101
44133SOL     OW34295  14.166   3.086   2.833
44133SOL    HW134296  14.136   3.043   2.753
44133SOL    HW234297  14.196   3.014   2.889
44134SOL     OW34298   2.859  14.694   2.044
44134SOL    HW134299   2.779  14.683   2.095
44134SOL    HW234300   2.929  14.672   2.104
44135SOL     OW34301   5.061  10.337  10.690
44135SOL    HW134302   5.133  10.278  10.667
44135SOL    HW234303   4.989  10.279  10.712
44136SOL     OW34304   1.187   6.207   7.999
44136SOL    HW134305   1.116   6.144   7.990
44136SOL    HW234306   1.267   6.157   7.985
44137SOL     OW34307  11.182  10.714  14.233
44137SOL    HW134308  11.259  10.678  14.188
44137SOL    HW234309  11.126  10.638  14.249
44138SOL     OW34310   9.129   1.236   8.146
44138SOL    HW134311   9.191   1.296   8.189
44138SOL    HW234312   9.043   1.271   8.169
44139SOL     OW34313   9.361   0.646   4.853
44139SOL    HW134314   9.308   0.721   4.827
44139SOL    HW234315   9.317   0.611   4.930
44140SOL     OW34316  12.121  13.266  12.199
44140SOL    HW134317  12.201  13.216  12.214
44140SOL    HW234318  12.069  13.253  12.278
44141SOL     OW34319   8.811   4.882   7.441
44141SOL    HW134320   8.775   4.940   7.374
44141SOL    HW234321   8.747   4.812   7.449
44142SOL     OW34322   0.060  13.169   3.874
44142SOL    HW134323   0.005  13.092   3.889
44142SOL    HW234324   0.143  13.134   3.842
44143SOL     OW34325   7.715   5.848  11.204
44143SOL    HW134326   7.707   5.836  11.299
44143SOL    HW234327   7.691   5.763  11.167
44144SOL     OW34328   3.746   0.820   9.922
44144SOL    HW134329   3.832   0.808   9.882
44144SOL    HW234330   3.737   0.746   9.982
44145SOL     OW34331   7.384   2.599   6.826
44145SOL    HW134332   7.393   2.676   6.882
44145SOL    HW234333   7.294   2.569   6.842
44146SOL     OW34334  14.084   9.574   3.036
44146SOL    HW134335  14.178   9.585   3.026
44146SOL    HW234336  14.061   9.502   2.978
44147SOL     OW34337   4.781  14.806   4.956
44147SOL    HW134338   4.688  14.818   4.936
44147SOL    HW234339   4.820  14.780   4.872
44148SOL     OW34340   4.489  12.461  13.572
44148SOL    HW134341   4.521  12.516  13.501
44148SOL    HW234342   4.433  12.519  13.624
44149SOL     OW34343   6.317   9.673   2.123
44149SOL    HW134344   6.397   9.626   2.104
44149SOL    HW234345   6.310   9.738   2.053
44150SOL     OW34346   9.036   6.315   7.799
44150SOL    HW134347   9.057   6.221   7.796
44150SOL    HW234348   8.941   6.317   7.815
44151SOL     OW34349   9.083   0.183   3.374
44151SOL    HW134350   9.107   0.208   3.463
44151SOL    HW234351   9.098   0.089   3.371
44152SOL     OW34352   9.924   9.666   3.735
44152SOL    HW134353   9.959   9.583   3.704
44152SOL    HW234354   9.960   9.731   3.675
44153SOL     OW34355   2.041  14.076   8.817
44153SOL    HW134356   2.108  14.144   8.812
44153SOL    HW234357   2.083  13.998   8.782
44154SOL     OW34358   7.043   2.767  12.803
44154SOL    HW134359   7.131   2.772  12.841
44154SOL    HW234360   6.986   2.748  12.877
44155SOL     OW34361   5.114   7.863  14.355
44155SOL    HW134362   5.110   7.956  14.332
44155SOL    HW234363   5.192   7.830  14.309
44156SOL     OW34364  11.309   2.054  10.937
44156SOL    HW134365  11.315   2.131  10.880
44156SOL    HW234366  11.324   1.980  10.878
44157SOL     OW34367   7.652   9.527   6.088
44157SOL    HW134368   7.594   9.450   6.086
44157SOL    HW234369   7.725   9.500   6.144
44158SOL     OW34370   3.186  14.360   7.617
44158SOL    HW134371   3.201  14.283   7.672
44158SOL    HW234372   3.123  14.330   7.551
44159SOL     OW34373   9.959   1.608   0.357
44159SOL    HW134374  10.039   1.657   0.337
44159SOL    HW234375   9.970   1.579   0.447
44160SOL     OW34376  11.464  10.526   8.416
44160SOL    HW134377  11.520  10.585   8.467
44160SOL    HW234378  11.478  10.440   8.455
44161SOL     OW34379   0.664  11.434  13.944
44161SOL    HW134380   0.595  11.491  13.975
44161SOL    HW234381   0.636  11.406  13.857
44162SOL     OW34382   5.309   1.086   4.261
44162SOL    HW134383   5.271   1.039   4.187
44162SOL    HW234384   5.345   1.166   4.223
44163SOL     OW34385  10.346   7.681   0.616
44163SOL    HW134386  10.403   7.632   0.557
44163SOL    HW234387  10.403   7.710   0.687
44164SOL     OW34388  13.327   2.003   7.838
44164SOL    HW134389  13.411   2.023   7.880
44164SOL    HW234390  13.272   2.080   7.857
44165SOL     OW34391   2.873   4.887   4.984
44165SOL    HW134392   2.867   4.970   5.032
44165SOL    HW234393   2.806   4.894   4.915
44166SOL     OW34394  14.488   9.975   8.298
44166SOL    HW134395  14.543   9.989   8.221
44166SOL    HW234396  14.400   9.997   8.270
44167SOL     OW34397  13.164   8.214   8.523
44167SOL    HW134398  13.253   8.186   8.546
44167SOL    HW234399  13.116   8.132   8.508
44168SOL     OW34400  10.365  12.362   4.549
44168SOL    HW134401  10.333  12.273   4.562
44168SOL    HW234402  10.325  12.414   4.619
44169SOL     OW34403   8.195   6.673   3.578
44169SOL    HW134404   8.234   6.735   3.515
44169SOL    HW234405   8.271   6.631   3.619
44170SOL     OW34406   7.889  11.801   5.927
44170SOL    HW134407   7.908  11.893   5.910
44170SOL    HW234408   7.833  11.774   5.855
44171SOL     OW34409  10.616   9.248   0.383
44171SOL    HW134410  10.524   9.247   0.355
44171SOL    HW234411  10.629   9.162   0.424
44172SOL     OW34412   6.900  14.664   4.706
44172SOL    HW134413   6.950  14.582   4.698
44172SOL    HW234414   6.948  14.715   4.771
44173SOL     OW34415   9.108  10.316  11.931
44173SOL    HW134416   9.076  10.310  12.021
44173SOL    HW234417   9.092  10.407  11.906
44174SOL     OW34418  14.674  11.665  13.945
44174SOL    HW134419  14.697  11.654  13.853
44174SOL    HW234420  14.630  11.583  13.969
44175SOL     OW34421   1.428   1.121   0.544
44175SOL    HW134422   1.371   1.197   0.536
44175SOL    HW234423   1.381   1.062   0.603
44176SOL     OW34424   0.256  10.380   0.830
44176SOL    HW134425   0.231  10.472   0.829
44176SOL    HW234426   0.231  10.347   0.743
44177SOL     OW34427   9.506  14.546   0.160
44177SOL    HW134428   9.544  14.528   0.074
44177SOL    HW234429   9.547  14.628   0.189
44178SOL     OW34430   2.856  10.065   2.421
44178SOL    HW134431   2.844  10.102   2.509
44178SOL    HW234432   2.792  10.111   2.367
44179SOL     OW34433  12.789   7.597   8.251
44179SOL    HW134434  12.748   7.511   8.265
44179SOL    HW234435  12.810   7.598   8.157
44180SOL     OW34436   7.003  12.723   7.957
44180SOL    HW134437   7.098  12.707   7.955
44180SOL    HW234438   6.968  12.655   8.013
44181SOL     OW34439   5.444   5.696  10.685
44181SOL    HW134440   5.534   5.729  10.675
44181SOL    HW234441   5.449   5.604  10.659
44182SOL     OW34442   6.622   0.352   8.167
44182SOL    HW134443   6.582   0.400   8.239
44182SOL    HW234444   6.647   0.268   8.205
44183SOL     OW34445  14.550   5.941   7.539
44183SOL    HW134446  14.524   5.930   7.448
44183SOL    HW234447  14.584   5.855   7.564
44184SOL     OW34448  10.936   0.426   5.700
44184SOL    HW134449  11.030   0.412   5.690
44184SOL    HW234450  10.914   0.487   5.630
44185SOL     OW34451   3.773   0.551  12.173
44185SOL    HW134452   3.737   0.513  12.254
44185SOL    HW234453   3.861   0.579  12.196
44186SOL     OW34454  10.630  12.960  12.325
44186SOL    HW134455  10.652  12.958  12.418
44186SOL    HW234456  10.682  13.032  12.289
44187SOL     OW34457   2.032  12.016   9.580
44187SOL    HW134458   2.042  11.940   9.523
44187SOL    HW234459   1.957  12.064   9.544
44188SOL     OW34460   1.546  13.870   1.981
44188SOL    HW134461   1.476  13.905   1.925
44188SOL    HW234462   1.582  13.797   1.931
44189SOL     OW34463   7.217   5.107  11.031
44189SOL    HW134464   7.304   5.141  11.011
44189SOL    HW234465   7.165   5.127  10.953
44190SOL     OW34466   6.532  14.144   5.208
44190SOL    HW134467   6.626  14.124   5.202
44190SOL    HW234468   6.529  14.239   5.215
44191SOL     OW34469   5.670   8.407   4.293
44191SOL    HW134470   5.659   8.355   4.213
44191SOL    HW234471   5.608   8.368   4.355
44192SOL     OW34472   8.883   7.420  13.043
44192SOL    HW134473   8.788   7.410  13.042
44192SOL    HW234474   8.912   7.362  13.114
44193SOL     OW34475   0.152   6.918  12.717
44193SOL    HW134476   0.079   6.861  12.693
44193SOL    HW234477   0.214   6.859  12.762
44194SOL     OW34478   0.559  12.971   0.219
44194SOL    HW134479   0.465  12.987   0.222
44194SOL    HW234480   0.567  12.876   0.215
44195SOL     OW34481   1.954  12.005  11.145
44195SOL    HW134482   2.016  12.057  11.095
44195SOL    HW234483   1.994  11.995  11.231
44196SOL     OW34484   3.841   4.327  11.347
44196SOL    HW134485   3.910   4.271  11.381
44196SOL    HW234486   3.769   4.268  11.327
44197SOL     OW34487   0.925   4.279   6.051
44197SOL    HW134488   1.011   4.247   6.025
44197SOL    HW234489   0.938   4.372   6.070
44198SOL     OW34490   5.319   8.399   8.353
44198SOL    HW134491   5.411   8.408   8.332
44198SOL    HW234492   5.308   8.449   8.434
44199SOL     OW34493   5.371   2.614  11.889
44199SOL    HW134494   5.346   2.689  11.944
44199SOL    HW234495   5.390   2.652  11.804
44200SOL     OW34496   1.039  14.841   7.433
44200SOL    HW134497   1.041  14.746   7.440
44200SOL    HW234498   1.116  14.870   7.483
44201SOL     OW34499  10.396  14.064   5.581
44201SOL    HW134500  10.337  14.133   5.611
44201SOL    HW234501  10.342  13.985   5.580
44202SOL     OW34502   7.545   4.495   9.533
44202SOL    HW134503   7.488   4.462   9.463
44202SOL    HW234504   7.523   4.588   9.540
44203SOL     OW34505  13.071   5.232   6.961
44203SOL    HW134506  13.116   5.151   6.986
44203SOL    HW234507  13.101   5.249   6.872
44204SOL     OW34508  14.586   8.556   7.893
44204SOL    HW134509  14.522   8.606   7.841
44204SOL    HW234510  14.561   8.465   7.880
44205SOL     OW34511   9.451   1.519  14.632
44205SOL    HW134512   9.469   1.586  14.566
44205SOL    HW234513   9.501   1.548  14.708
44206SOL     OW34514   7.030   0.665   6.047
44206SOL    HW134515   7.073   0.591   6.091
44206SOL    HW234516   7.000   0.721   6.118
44207SOL     OW34517   4.236   3.477   6.834
44207SOL    HW134518   4.331   3.476   6.850
44207SOL    HW234519   4.227   3.446   6.745
44208SOL     OW34520  13.788  13.775   5.660
44208SOL    HW134521  13.835  13.717   5.601
44208SOL    HW234522  13.847  13.850   5.673
44209SOL     OW34523   3.849  13.185   0.989
44209SOL    HW134524   3.886  13.139   1.065
44209SOL    HW234525   3.901  13.265   0.982
44210SOL     OW34526   5.219   7.841   1.250
44210SOL    HW134527   5.304   7.878   1.227
44210SOL    HW234528   5.240   7.759   1.296
44211SOL     OW34529  10.659  13.376  14.236
44211SOL    HW134530  10.600  13.310  14.198
44211SOL    HW234531  10.670  13.440  14.166
44212SOL     OW34532   5.196  11.160   3.434
44212SOL    HW134533   5.102  11.178   3.438
44212SOL    HW234534   5.237  11.236   3.474
44213SOL     OW34535   1.282   6.413   3.209
44213SOL    HW134536   1.230   6.408   3.290
44213SOL    HW234537   1.327   6.497   3.215
44214SOL     OW34538   3.129   7.264   4.475
44214SOL    HW134539   3.134   7.356   4.449
44214SOL    HW234540   3.135   7.216   4.393
44215SOL     OW34541  14.557   8.976   8.860
44215SOL    HW134542  14.503   8.946   8.787
44215SOL    HW234543  14.559   8.901   8.920
44216SOL     OW34544   9.824  12.552   7.608
44216SOL    HW134545   9.906  12.574   7.565
44216SOL    HW234546   9.760  12.547   7.536
44217SOL     OW34547   9.659   8.818  10.718
44217SOL    HW134548   9.752   8.836  10.706
44217SOL    HW234549   9.626   8.801  10.630
44218SOL     OW34550   4.476   4.056  13.575
44218SOL    HW134551   4.488   3.961  13.574
44218SOL    HW234552   4.381   4.069  13.571
44219SOL     OW34553   6.648  11.241   3.919
44219SOL    HW134554   6.643  11.227   3.824
44219SOL    HW234555   6.645  11.153   3.956
44220SOL     OW34556  11.387   6.488  14.509
44220SOL    HW134557  11.365   6.422  14.575
44220SOL    HW234558  11.302   6.513  14.472
44221SOL     OW34559  14.024  13.474   1.665
44221SOL    HW134560  14.075  13.513   1.736
44221SOL    HW234561  13.940  13.519   1.669
44222SOL     OW34562   7.381  10.222   9.644
44222SOL    HW134563   7.415  10.265   9.723
44222SOL    HW234564   7.433  10.259   9.572
44223SOL     OW34565  14.797  14.634   2.553
44223SOL    HW134566  14.872  14.590   2.514
44223SOL    HW234567  14.796  14.605   2.644
44224SOL     OW34568   6.888   9.662   1.724
44224SOL    HW134569   6.921   9.701   1.643
44224SOL    HW234570   6.945   9.698   1.792
44225SOL     OW34571   5.448  13.817   6.107
44225SOL    HW134572   5.492  13.789   6.027
44225SOL    HW234573   5.513  13.871   6.152
44226SOL     OW34574   2.323   5.423   0.513
44226SOL    HW134575   2.400   5.389   0.466
44226SOL    HW234576   2.345   5.515   0.531
44227SOL     OW34577   9.202   7.295   0.664
44227SOL    HW134578   9.250   7.376   0.680
44227SOL    HW234579   9.140   7.290   0.737
44228SOL     OW34580  13.406  11.908  10.206
44228SOL    HW134581  13.417  11.829  10.259
44228SOL    HW234582  13.491  11.919  10.163
44229SOL     OW34583   8.823  11.921   7.833
44229SOL    HW134584   8.787  11.932   7.745
44229SOL    HW234585   8.794  11.835   7.861
44230SOL     OW34586   9.679   6.941  11.434
44230SOL    HW134587   9.607   6.996  11.403
44230SOL    HW234588   9.734   6.928  11.356
44231SOL     OW34589   5.731  13.880   7.268
44231SOL    HW134590   5.756  13.890   7.176
44231SOL    HW234591   5.641  13.849   7.266
44232SOL     OW34592   1.608   6.855  14.311
44232SOL    HW134593   1.683   6.904  14.277
44232SOL    HW234594   1.622   6.765  14.279
44233SOL     OW34595   4.206  13.810   3.165
44233SOL    HW134596   4.215  13.721   3.199
44233SOL    HW234597   4.128  13.808   3.110
44234SOL     OW34598   2.367   9.096   0.690
44234SOL    HW134599   2.294   9.034   0.691
44234SOL    HW234600   2.445   9.041   0.692
44235SOL     OW34601  11.885   8.331   8.458
44235SOL    HW134602  11.818   8.389   8.424
44235SOL    HW234603  11.943   8.388   8.508
44236SOL     OW34604  12.602   4.050   6.846
44236SOL    HW134605  12.559   3.993   6.782
44236SOL    HW234606  12.692   4.058   6.815
44237SOL     OW34607   6.179   3.499   4.841
44237SOL    HW134608   6.264   3.542   4.834
44237SOL    HW234609   6.179   3.434   4.770
44238SOL     OW34610   2.819  10.184  13.663
44238SOL    HW134611   2.834  10.273  13.632
44238SOL    HW234612   2.870  10.129  13.603
44239SOL     OW34613  13.541   9.537   9.870
44239SOL    HW134614  13.488   9.460   9.851
44239SOL    HW234615  13.488   9.587   9.933
44240SOL     OW34616  11.141   2.673  14.532
44240SOL    HW134617  11.141   2.623  14.614
44240SOL    HW234618  11.067   2.733  14.541
44241SOL     OW34619   2.349   8.224   7.301
44241SOL    HW134620   2.364   8.278   7.223
44241SOL    HW234621   2.265   8.182   7.284
44242SOL     OW34622   6.211   8.820   2.913
44242SOL    HW134623   6.271   8.894   2.920
44242SOL    HW234624   6.125   8.856   2.933
44243SOL     OW34625   5.636  12.251   9.726
44243SOL    HW134626   5.726  12.252   9.693
44243SOL    HW234627   5.632  12.173   9.781
44244SOL     OW34628   6.875  11.469  14.354
44244SOL    HW134629   6.944  11.532  14.374
44244SOL    HW234630   6.810  11.519  14.305
44245SOL     OW34631  14.563   4.732   0.844
44245SOL    HW134632  14.502   4.787   0.795
44245SOL    HW234633  14.602   4.791   0.908
44246SOL     OW34634  11.618   3.458  13.043
44246SOL    HW134635  11.583   3.519  13.108
44246SOL    HW234636  11.551   3.390  13.036
44247SOL     OW34637   8.033   8.294  13.082
44247SOL    HW134638   8.105   8.231  13.077
44247SOL    HW234639   7.973   8.255  13.146
44248SOL     OW34640   2.100   0.510   3.376
44248SOL    HW134641   2.103   0.580   3.441
44248SOL    HW234642   2.085   0.554   3.293
44249SOL     OW34643   9.178   5.238   9.799
44249SOL    HW134644   9.143   5.309   9.746
44249SOL    HW234645   9.157   5.263   9.889
44250SOL     OW34646   9.683   9.017   5.502
44250SOL    HW134647   9.690   9.049   5.592
44250SOL    HW234648   9.759   9.054   5.457
44251SOL     OW34649   8.820   7.451  11.230
44251SOL    HW134650   8.789   7.377  11.177
44251SOL    HW234651   8.868   7.506  11.168
44252SOL     OW34652   8.037   9.725   3.847
44252SOL    HW134653   7.958   9.693   3.803
44252SOL    HW234654   8.094   9.648   3.853
44253SOL     OW34655   0.549   6.923   2.665
44253SOL    HW134656   0.487   6.852   2.648
44253SOL    HW234657   0.599   6.892   2.741
44254SOL     OW34658   0.322  10.509   3.401
44254SOL    HW134659   0.241  10.512   3.452
44254SOL    HW234660   0.329  10.596   3.362
44255SOL     OW34661   4.541   8.631   1.392
44255SOL    HW134662   4.482   8.645   1.466
44255SOL    HW234663   4.628   8.648   1.427
44256SOL     OW34664  12.939   2.949   2.192
44256SOL    HW134665  12.917   2.962   2.100
44256SOL    HW234666  13.011   2.886   2.191
44257SOL     OW34667  12.410   0.695   0.707
44257SOL    HW134668  12.431   0.748   0.630
44257SOL    HW234669  12.324   0.659   0.688
44258SOL     OW34670   3.320  11.730   0.702
44258SOL    HW134671   3.343  11.713   0.794
44258SOL    HW234672   3.401  11.716   0.654
44259SOL     OW34673  11.956   8.780  12.733
44259SOL    HW134674  11.885   8.724  12.702
44259SOL    HW234675  11.913   8.844  12.790
44260SOL     OW34676   9.417   5.407   5.711
44260SOL    HW134677   9.402   5.477   5.647
44260SOL    HW234678   9.403   5.448   5.796
44261SOL     OW34679   1.923   7.466   3.601
44261SOL    HW134680   1.903   7.445   3.510
44261SOL    HW234681   1.898   7.558   3.611
44262SOL     OW34682   0.407   9.014   7.850
44262SOL    HW134683   0.440   8.979   7.767
44262SOL    HW234684   0.470   9.083   7.872
44263SOL     OW34685  14.453   8.358   5.235
44263SOL    HW134686  14.486   8.316   5.156
44263SOL    HW234687  14.506   8.322   5.306
44264SOL     OW34688   4.807   4.668  10.897
44264SOL    HW134689   4.850   4.739  10.849
44264SOL    HW234690   4.797   4.702  10.986
44265SOL     OW34691  12.816  13.372  10.496
44265SOL    HW134692  12.820  13.338  10.407
44265SOL    HW234693  12.868  13.310  10.547
44266SOL     OW34694  13.033  11.234   0.720
44266SOL    HW134695  13.008  11.210   0.810
44266SOL    HW234696  13.111  11.181   0.702
44267SOL     OW34697  12.406   1.045  11.288
44267SOL    HW134698  12.334   1.079  11.341
44267SOL    HW234699  12.374   1.052  11.198
44268SOL     OW34700  11.209   6.214   0.999
44268SOL    HW134701  11.240   6.235   1.087
44268SOL    HW234702  11.288   6.205   0.947
44269SOL     OW34703   1.608   4.918   0.841
44269SOL    HW134704   1.526   4.951   0.804
44269SOL    HW234705   1.637   4.988   0.900
44270SOL     OW34706   9.845  10.904   1.092
44270SOL    HW134707   9.813  10.895   1.002
44270SOL    HW234708   9.829  10.996   1.114
44271SOL     OW34709  13.297   5.945   5.759
44271SOL    HW134710  13.273   5.883   5.827
44271SOL    HW234711  13.240   6.021   5.775
44272SOL     OW34712   5.762   4.288  13.755
44272SOL    HW134713   5.730   4.374  13.785
44272SOL    HW234714   5.724   4.279  13.667
44273SOL     OW34715   7.627   8.553   4.785
44273SOL    HW134716   7.606   8.609   4.859
44273SOL    HW234717   7.592   8.600   4.709
44274SOL     OW34718  14.650   4.707   6.574
44274SOL    HW134719  14.725   4.669   6.528
44274SOL    HW234720  14.651   4.799   6.549
44275SOL     OW34721   7.831   4.959  14.297
44275SOL    HW134722   7.860   4.946  14.207
44275SOL    HW234723   7.758   4.897  14.307
44276SOL     OW34724   6.379  12.975   9.245
44276SOL    HW134725   6.324  12.913   9.293
44276SOL    HW234726   6.462  12.975   9.293
44277SOL     OW34727  12.802   4.695   9.005
44277SOL    HW134728  12.768   4.784   8.996
44277SOL    HW234729  12.896   4.707   9.017
44278SOL     OW34730  10.430   0.757  13.149
44278SOL    HW134731  10.512   0.742  13.102
44278SOL    HW234732  10.387   0.829  13.102
44279SOL     OW34733   5.495   4.951   6.750
44279SOL    HW134734   5.546   4.916   6.824
44279SOL    HW234735   5.561   4.972   6.683
44280SOL     OW34736   4.557  11.128   3.764
44280SOL    HW134737   4.508  11.158   3.687
44280SOL    HW234738   4.531  11.187   3.834
44281SOL     OW34739  12.171  13.539  14.667
44281SOL    HW134740  12.093  13.594  14.661
44281SOL    HW234741  12.163  13.478  14.594
44282SOL     OW34742   6.384   7.966   6.704
44282SOL    HW134743   6.424   8.028   6.766
44282SOL    HW234744   6.330   8.021   6.647
44283SOL     OW34745   2.719  11.152   6.881
44283SOL    HW134746   2.663  11.177   6.808
44283SOL    HW234747   2.684  11.067   6.910
44284SOL     OW34748   5.339   3.107   6.779
44284SOL    HW134749   5.362   3.195   6.748
44284SOL    HW234750   5.262   3.121   6.834
44285SOL     OW34751  13.485   1.095  14.283
44285SOL    HW134752  13.412   1.042  14.252
44285SOL    HW234753  13.562   1.040  14.271
44286SOL     OW34754  10.345   6.726  11.979
44286SOL    HW134755  10.392   6.731  12.062
44286SOL    HW234756  10.411   6.700  11.915
44287SOL     OW34757  11.017   7.107  12.249
44287SOL    HW134758  11.007   7.187  12.301
44287SOL    HW234759  11.033   7.038  12.313
44288SOL     OW34760   1.026   8.541  12.219
44288SOL    HW134761   0.994   8.481  12.152
44288SOL    HW234762   1.026   8.489  12.300
44289SOL     OW34763   8.228   2.228   0.315
44289SOL    HW134764   8.312   2.272   0.302
44289SOL    HW234765   8.202   2.252   0.404
44290SOL     OW34766   7.018  10.419   3.639
44290SOL    HW134767   6.959  10.446   3.709
44290SOL    HW234768   7.080  10.492   3.630
44291SOL     OW34769  14.024   6.228  13.110
44291SOL    HW134770  13.981   6.313  13.123
44291SOL    HW234771  13.963   6.164  13.149
44292SOL     OW34772   0.164   7.468  11.504
44292SOL    HW134773   0.104   7.429  11.441
44292SOL    HW234774   0.172   7.560  11.476
44293SOL     OW34775   3.444   0.392  12.741
44293SOL    HW134776   3.471   0.300  12.741
44293SOL    HW234777   3.436   0.415  12.649
44294SOL     OW34778  10.544   3.147   1.814
44294SOL    HW134779  10.492   3.126   1.737
44294SOL    HW234780  10.628   3.178   1.779
44295SOL     OW34781  11.893  12.655   2.300
44295SOL    HW134782  11.981  12.628   2.274
44295SOL    HW234783  11.898  12.750   2.305
44296SOL     OW34784   9.433  10.516   7.680
44296SOL    HW134785   9.368  10.581   7.653
44296SOL    HW234786   9.385  10.433   7.681
44297SOL     OW34787   8.203   8.631  10.260
44297SOL    HW134788   8.230   8.552  10.213
44297SOL    HW234789   8.146   8.677  10.199
44298SOL     OW34790  12.085   9.388  12.265
44298SOL    HW134791  12.146   9.434  12.322
44298SOL    HW234792  12.137   9.364  12.188
44299SOL     OW34793  12.076   9.631   1.029
44299SOL    HW134794  12.135   9.698   0.994
44299SOL    HW234795  12.043   9.585   0.952
44300SOL     OW34796  11.594   0.333   0.098
44300SOL    HW134797  11.576   0.239   0.098
44300SOL    HW234798  11.536   0.368   0.030
44301SOL     OW34799   4.241   4.295  10.166
44301SOL    HW134800   4.267   4.349  10.240
44301SOL    HW234801   4.324   4.272  10.123
44302SOL     OW34802  13.404  12.752   3.585
44302SOL    HW134803  13.432  12.749   3.677
44302SOL    HW234804  13.314  12.720   3.587
44303SOL     OW34805   3.955   7.013  11.513
44303SOL    HW134806   4.015   7.059  11.454
44303SOL    HW234807   3.912   6.948  11.457
44304SOL     OW34808  13.053   3.981  10.739
44304SOL    HW134809  13.073   4.040  10.811
44304SOL    HW234810  13.030   4.038  10.666
44305SOL     OW34811   4.866  10.077  10.072
44305SOL    HW134812   4.918  10.014  10.122
44305SOL    HW234813   4.923  10.104  10.000
44306SOL     OW34814   8.315  14.160   0.926
44306SOL    HW134815   8.362  14.108   0.990
44306SOL    HW234816   8.380  14.220   0.890
44307SOL     OW34817  13.071  14.179   5.671
44307SOL    HW134818  13.078  14.244   5.601
44307SOL    HW234819  12.985  14.139   5.658
44308SOL     OW34820   6.439  13.369  10.276
44308SOL    HW134821   6.381  13.345  10.204
44308SOL    HW234822   6.448  13.288  10.327
44309SOL     OW34823  12.464   4.330   3.643
44309SOL    HW134824  12.461   4.258   3.706
44309SOL    HW234825  12.454   4.288   3.557
44310SOL     OW34826  12.189  10.679  12.490
44310SOL    HW134827  12.199  10.651  12.581
44310SOL    HW234828  12.273  10.660  12.450
44311SOL     OW34829   3.909   3.152  10.283
44311SOL    HW134830   3.887   3.210  10.210
44311SOL    HW234831   3.829   3.148  10.335
44312SOL     OW34832   1.582  10.563  10.160
44312SOL    HW134833   1.510  10.523  10.111
44312SOL    HW234834   1.615  10.632  10.102
44313SOL     OW34835   4.839  12.866   0.471
44313SOL    HW134836   4.802  12.838   0.387
44313SOL    HW234837   4.850  12.785   0.520
44314SOL     OW34838   0.204   0.084  12.209
44314SOL    HW134839   0.164  14.885  12.195
44314SOL    HW234840   0.295   0.074  12.179
44315SOL     OW34841   1.043   1.815   0.545
44315SOL    HW134842   1.045   1.772   0.631
44315SOL    HW234843   1.036   1.909   0.566
44316SOL     OW34844   6.679   4.610  11.584
44316SOL    HW134845   6.595   4.640  11.550
44316SOL    HW234846   6.673   4.514  11.579
44317SOL     OW34847  10.738   0.529  13.824
44317SOL    HW134848  10.788   0.609  13.803
44317SOL    HW234849  10.652   0.544  13.785
44318SOL     OW34850  14.544   1.499   9.052
44318SOL    HW134851  14.639   1.504   9.037
44318SOL    HW234852  14.533   1.425   9.111
44319SOL     OW34853   0.556  11.356  11.300
44319SOL    HW134854   0.477  11.391  11.259
44319SOL    HW234855   0.528  11.327  11.387
44320SOL     OW34856   9.825  12.476   1.060
44320SOL    HW134857   9.889  12.413   1.092
44320SOL    HW234858   9.743  12.426   1.054
44321SOL     OW34859   5.168   7.394   5.983
44321SOL    HW134860   5.252   7.423   6.019
44321SOL    HW234861   5.171   7.419   5.891
44322SOL     OW34862  13.463  11.822   9.837
44322SOL    HW134863  13.501  11.743   9.799
44322SOL    HW234864  13.535  11.884   9.840
44323SOL     OW34865   4.360   2.901   6.467
44323SOL    HW134866   4.403   2.986   6.472
44323SOL    HW234867   4.360   2.880   6.373
44324SOL     OW34868   6.068   4.963   6.730
44324SOL    HW134869   6.012   4.984   6.804
44324SOL    HW234870   6.028   4.886   6.690
44325SOL     OW34871  14.201   6.552   2.218
44325SOL    HW134872  14.186   6.487   2.287
44325SOL    HW234873  14.281   6.522   2.174
44326SOL     OW34874  12.551  11.077  11.565
44326SOL    HW134875  12.621  11.070  11.631
44326SOL    HW234876  12.472  11.095  11.615
44327SOL     OW34877   4.556   4.232   2.098
44327SOL    HW134878   4.617   4.215   2.026
44327SOL    HW234879   4.608   4.281   2.162
44328SOL     OW34880   0.153   7.850  12.740
44328SOL    HW134881   0.149   7.803  12.824
44328SOL    HW234882   0.110   7.934  12.757
44329SOL     OW34883  12.366  12.960   3.779
44329SOL    HW134884  12.413  12.917   3.707
44329SOL    HW234885  12.304  13.019   3.735
44330SOL     OW34886   9.700  10.989  12.055
44330SOL    HW134887   9.753  10.911  12.042
44330SOL    HW234888   9.609  10.958  12.047
44331SOL     OW34889   5.632   3.949  12.139
44331SOL    HW134890   5.719   3.965  12.104
44331SOL    HW234891   5.582   3.917  12.064
44332SOL     OW34892   0.321   1.006   3.413
44332SOL    HW134893   0.407   1.044   3.393
44332SOL    HW234894   0.341   0.925   3.459
44333SOL     OW34895  14.628  11.280  14.461
44333SOL    HW134896  14.682  11.299  14.538
44333SOL    HW234897  14.543  11.318  14.480
44334SOL     OW34898  14.215  12.802   3.545
44334SOL    HW134899  14.144  12.859   3.515
44334SOL    HW234900  14.201  12.719   3.500
44335SOL     OW34901   6.378   5.249   3.831
44335SOL    HW134902   6.393   5.336   3.868
44335SOL    HW234903   6.416   5.253   3.744
44336SOL     OW34904  13.332   0.349   4.314
44336SOL    HW134905  13.274   0.287   4.268
44336SOL    HW234906  13.411   0.352   4.261
44337SOL     OW34907   2.019   4.566   1.470
44337SOL    HW134908   2.057   4.624   1.403
44337SOL    HW234909   1.996   4.625   1.542
44338SOL     OW34910   8.077   9.350   1.229
44338SOL    HW134911   8.127   9.420   1.187
44338SOL    HW234912   8.122   9.270   1.204
44339SOL     OW34913  13.929   9.059   9.151
44339SOL    HW134914  13.870   9.133   9.138
44339SOL    HW234915  13.879   8.982   9.122
44340SOL     OW34916   3.644  14.219   2.660
44340SOL    HW134917   3.555  14.193   2.636
44340SOL    HW234918   3.635  14.254   2.749
44341SOL     OW34919   8.880   9.296  10.389
44341SOL    HW134920   8.963   9.251  10.405
44341SOL    HW234921   8.815   9.243  10.434
44342SOL     OW34922   8.247   2.501  14.787
44342SOL    HW134923   8.219   2.591  14.772
44342SOL    HW234924   8.343   2.505  14.784
44343SOL     OW34925  12.614   1.110   3.388
44343SOL    HW134926  12.532   1.072   3.359
44343SOL    HW234927  12.596   1.204   3.394
44344SOL     OW34928  14.708   2.199   9.132
44344SOL    HW134929  14.627   2.183   9.084
44344SOL    HW234930  14.702   2.290   9.160
44345SOL     OW34931   8.104   6.771  13.419
44345SOL    HW134932   8.118   6.815  13.335
44345SOL    HW234933   8.163   6.817  13.480
44346SOL     OW34934  12.006  13.004   5.316
44346SOL    HW134935  11.956  13.020   5.236
44346SOL    HW234936  12.014  13.091   5.356
44347SOL     OW34937   8.826  12.082   4.541
44347SOL    HW134938   8.743  12.128   4.553
44347SOL    HW234939   8.811  11.995   4.576
44348SOL     OW34940  13.547   4.259   7.863
44348SOL    HW134941  13.465   4.266   7.812
44348SOL    HW234942  13.615   4.286   7.802
44349SOL     OW34943   8.080  14.235   1.398
44349SOL    HW134944   8.081  14.330   1.391
44349SOL    HW234945   8.000  14.208   1.353
44350SOL     OW34946   6.421   7.586   3.657
44350SOL    HW134947   6.401   7.508   3.605
44350SOL    HW234948   6.341   7.639   3.653
44351SOL     OW34949   5.609  12.207   2.647
44351SOL    HW134950   5.540  12.255   2.692
44351SOL    HW234951   5.682  12.268   2.641
44352SOL     OW34952   9.949  14.410  13.102
44352SOL    HW134953  10.032  14.362  13.103
44352SOL    HW234954   9.956  14.468  13.026
44353SOL     OW34955  10.361  13.754  10.008
44353SOL    HW134956  10.456  13.759  10.013
44353SOL    HW234957  10.333  13.844   9.992
44354SOL     OW34958   2.853   5.201   3.252
44354SOL    HW134959   2.827   5.134   3.315
44354SOL    HW234960   2.874   5.277   3.306
44355SOL     OW34961   6.051   2.577  12.045
44355SOL    HW134962   6.109   2.550  11.974
44355SOL    HW234963   6.108   2.626  12.105
44356SOL     OW34964  13.974  14.543   1.587
44356SOL    HW134965  14.049  14.525   1.530
44356SOL    HW234966  13.985  14.481   1.660
44357SOL     OW34967   9.898  11.294   9.978
44357SOL    HW134968   9.815  11.266   9.939
44357SOL    HW234969   9.923  11.372   9.929
44358SOL     OW34970  12.005  11.547   7.095
44358SOL    HW134971  12.017  11.467   7.146
44358SOL    HW234972  12.009  11.618   7.160
44359SOL     OW34973   3.154  12.238   6.683
44359SOL    HW134974   3.151  12.150   6.646
44359SOL    HW234975   3.154  12.225   6.778
44360SOL     OW34976   2.383   0.833  13.047
44360SOL    HW134977   2.468   0.790  13.039
44360SOL    HW234978   2.404   0.926  13.055
44361SOL     OW34979   4.359   1.010   3.676
44361SOL    HW134980   4.348   0.915   3.674
44361SOL    HW234981   4.285   1.043   3.726
44362SOL     OW34982  14.584   0.285   6.714
44362SOL    HW134983  14.657   0.223   6.708
44362SOL    HW234984  14.584   0.330   6.629
44363SOL     OW34985  12.607   5.616  12.371
44363SOL    HW134986  12.675   5.682  12.354
44363SOL    HW234987  12.612   5.601  12.465
44364SOL     OW34988   5.198   3.591  10.098
44364SOL    HW134989   5.116   3.559  10.060
44364SOL    HW234990   5.258   3.517  10.092
44365SOL     OW34991   6.092   7.699   2.206
44365SOL    HW134992   6.163   7.740   2.156
44365SOL    HW234993   6.034   7.772   2.230
44366SOL     OW34994   9.819   3.351  14.458
44366SOL    HW134995   9.897   3.385  14.413
44366SOL    HW234996   9.765   3.428  14.475
44367SOL     OW34997   3.331  11.050   2.927
44367SOL    HW134998   3.283  10.972   2.904
44367SOL    HW234999   3.370  11.030   3.013
44368SOL     OW35000   9.169   9.253  10.439
44368SOL    HW135001   9.166   9.170  10.391
44368SOL    HW235002   9.193   9.228  10.528
44369SOL     OW35003  10.252   9.263   3.530
44369SOL    HW135004  10.288   9.351   3.542
44369SOL    HW235005  10.316   9.204   3.571
44370SOL     OW35006   2.912   7.224  12.320
44370SOL    HW135007   2.924   7.150  12.259
44370SOL    HW235008   2.976   7.289  12.291
44371SOL     OW35009  11.161   7.738   4.725
44371SOL    HW135010  11.163   7.714   4.632
44371SOL    HW235011  11.115   7.665   4.767
44372SOL     OW35012   5.975  14.026   8.127
44372SOL    HW135013   5.971  13.947   8.182
44372SOL    HW235014   6.031  14.001   8.054
44373SOL     OW35015  14.498   2.516   1.537
44373SOL    HW135016  14.462   2.603   1.520
44373SOL    HW235017  14.580   2.533   1.584
44374SOL     OW35018   8.891   9.772   9.910
44374SOL    HW135019   8.973   9.816   9.888
44374SOL    HW235020   8.827   9.807   9.847
44375SOL     OW35021   8.470  11.586  11.134
44375SOL    HW135022   8.443  11.539  11.213
44375SOL    HW235023   8.425  11.671  11.141
44376SOL     OW35024  12.904   0.487   4.869
44376SOL    HW135025  12.902   0.479   4.773
44376SOL    HW235026  12.814   0.468   4.896
44377SOL     OW35027   0.166   9.698   4.946
44377SOL    HW135028   0.154   9.608   4.914
44377SOL    HW235029   0.213   9.742   4.876
44378SOL     OW35030   8.917   7.628   0.629
44378SOL    HW135031   8.859   7.553   0.643
44378SOL    HW235032   8.877   7.677   0.558
44379SOL     OW35033  10.455  10.364   1.167
44379SOL    HW135034  10.422  10.274   1.175
44379SOL    HW235035  10.527  10.357   1.105
44380SOL     OW35036  10.799  13.379   5.866
44380SOL    HW135037  10.822  13.294   5.902
44380SOL    HW235038  10.879  13.430   5.872
44381SOL     OW35039   2.862  14.685  13.730
44381SOL    HW135040   2.799  14.738  13.780
44381SOL    HW235041   2.919  14.750  13.689
44382SOL     OW35042  14.849   0.952   0.993
44382SOL    HW135043  14.758   0.979   1.001
44382SOL    HW235044  14.844   0.858   0.976
44383SOL     OW35045   4.836   2.166  10.838
44383SOL    HW135046   4.779   2.228  10.883
44383SOL    HW235047   4.823   2.185  10.745
44384SOL     OW35048  13.102   8.443   5.242
44384SOL    HW135049  13.035   8.465   5.307
44384SOL    HW235050  13.055   8.444   5.158
44385SOL     OW35051  14.423   3.117   8.178
44385SOL    HW135052  14.399   3.089   8.267
44385SOL    HW235053  14.340   3.145   8.139
44386SOL     OW35054  12.951   4.688   7.642
44386SOL    HW135055  13.013   4.635   7.692
44386SOL    HW235056  13.005   4.755   7.600
44387SOL     OW35057   8.329   5.050   4.428
44387SOL    HW135058   8.390   5.014   4.493
44387SOL    HW235059   8.276   4.975   4.401
44388SOL     OW35060  13.987   4.321  11.139
44388SOL    HW135061  13.910   4.362  11.177
44388SOL    HW235062  14.025   4.269  11.210
44389SOL     OW35063   3.824   4.391   1.421
44389SOL    HW135064   3.789   4.305   1.399
44389SOL    HW235065   3.882   4.375   1.496
44390SOL     OW35066   5.970   6.744   6.261
44390SOL    HW135067   5.999   6.780   6.344
44390SOL    HW235068   5.883   6.710   6.278
44391SOL     OW35069  14.100   3.537   3.161
44391SOL    HW135070  14.116   3.565   3.251
44391SOL    HW235071  14.154   3.458   3.151
44392SOL     OW35072  11.277   5.810   6.958
44392SOL    HW135073  11.256   5.898   6.987
44392SOL    HW235074  11.343   5.779   7.020
44393SOL     OW35075   0.194   5.848  10.507
44393SOL    HW135076   0.258   5.843  10.437
44393SOL    HW235077   0.128   5.911  10.476
44394SOL     OW35078   7.889   0.837  13.819
44394SOL    HW135079   7.899   0.925  13.855
44394SOL    HW235080   7.966   0.825  13.763
44395SOL     OW35081  10.988   0.929   0.269
44395SOL    HW135082  11.065   0.913   0.324
44395SOL    HW235083  11.019   0.989   0.201
44396SOL     OW35084   1.497  12.399   5.155
44396SOL    HW135085   1.430  12.344   5.116
44396SOL    HW235086   1.451  12.448   5.224
44397SOL     OW35087   9.656   5.977  10.154
44397SOL    HW135088   9.652   5.943  10.065
44397SOL    HW235089   9.659   5.898  10.209
44398SOL     OW35090  14.309   5.862  13.479
44398SOL    HW135091  14.263   5.884  13.398
44398SOL    HW235092  14.249   5.803  13.525
44399SOL     OW35093   3.608   1.253  14.010
44399SOL    HW135094   3.683   1.263  14.068
44399SOL    HW235095   3.614   1.327  13.949
44400SOL     OW35096   8.696  12.771   3.438
44400SOL    HW135097   8.645  12.758   3.358
44400SOL    HW235098   8.777  12.723   3.422
44401SOL     OW35099  12.566   3.449  12.359
44401SOL    HW135100  12.490   3.392  12.367
44401SOL    HW235101  12.640   3.390  12.347
44402SOL     OW35102  10.340   1.740  14.399
44402SOL    HW135103  10.353   1.651  14.433
44402SOL    HW235104  10.424   1.764  14.360
44403SOL     OW35105   4.146  10.680  13.544
44403SOL    HW135106   4.177  10.741  13.611
44403SOL    HW235107   4.164  10.593  13.581
44404SOL     OW35108   8.261  14.599  12.422
44404SOL    HW135109   8.190  14.588  12.358
44404SOL    HW235110   8.312  14.518  12.415
44405SOL     OW35111  13.388  14.667  13.590
44405SOL    HW135112  13.311  14.653  13.535
44405SOL    HW235113  13.370  14.616  13.670
44406SOL     OW35114   8.547   9.088  12.307
44406SOL    HW135115   8.453   9.073  12.298
44406SOL    HW235116   8.584   9.068  12.221
44407SOL     OW35117  11.861  14.583   6.453
44407SOL    HW135118  11.941  14.567   6.404
44407SOL    HW235119  11.850  14.678   6.451
44408SOL     OW35120   7.927   8.709   4.806
44408SOL    HW135121   7.861   8.778   4.803
44408SOL    HW235122   8.009   8.754   4.781
44409SOL     OW35123   5.845   2.066   8.474
44409SOL    HW135124   5.802   2.001   8.418
44409SOL    HW235125   5.775   2.127   8.497
44410SOL     OW35126   7.284   4.609   7.603
44410SOL    HW135127   7.366   4.612   7.555
44410SOL    HW235128   7.309   4.587   7.693
44411SOL     OW35129  13.007   4.742   1.197
44411SOL    HW135130  13.008   4.768   1.289
44411SOL    HW235131  12.974   4.819   1.151
44412SOL     OW35132   1.808   1.100   3.686
44412SOL    HW135133   1.772   1.188   3.678
44412SOL    HW235134   1.852   1.084   3.603
44413SOL     OW35135   1.222  11.037  13.259
44413SOL    HW135136   1.129  11.029  13.237
44413SOL    HW235137   1.251  11.115  13.214
44414SOL     OW35138  13.908  14.456  11.433
44414SOL    HW135139  13.895  14.416  11.519
44414SOL    HW235140  13.904  14.550  11.450
44415SOL     OW35141   8.482  12.645   5.329
44415SOL    HW135142   8.570  12.682   5.335
44415SOL    HW235143   8.495  12.551   5.326
44416SOL     OW35144  10.678  11.373   1.238
44416SOL    HW135145  10.698  11.420   1.319
44416SOL    HW235146  10.584  11.387   1.225
44417SOL     OW35147  13.650   8.485  11.891
44417SOL    HW135148  13.622   8.394  11.904
44417SOL    HW235149  13.571   8.531  11.866
44418SOL     OW35150  13.477   5.760   0.486
44418SOL    HW135151  13.401   5.794   0.534
44418SOL    HW235152  13.444   5.743   0.398
44419SOL     OW35153  10.193  13.698  12.675
44419SOL    HW135154  10.169  13.776  12.725
44419SOL    HW235155  10.110  13.651  12.662
44420SOL     OW35156   3.604  12.889  12.494
44420SOL    HW135157   3.589  12.867  12.402
44420SOL    HW235158   3.645  12.975  12.491
44421SOL     OW35159   3.407   5.256  12.134
44421SOL    HW135160   3.427   5.316  12.063
44421SOL    HW235161   3.328   5.292  12.175
44422SOL     OW35162   5.923   9.001   6.130
44422SOL    HW135163   5.875   9.047   6.199
44422SOL    HW235164   5.966   9.071   6.081
44423SOL     OW35165   3.753   2.352   3.182
44423SOL    HW135166   3.677   2.391   3.224
44423SOL    HW235167   3.828   2.388   3.230
44424SOL     OW35168   5.632   9.121  10.474
44424SOL    HW135169   5.588   9.204  10.489
44424SOL    HW235170   5.724   9.138  10.495
44425SOL     OW35171   5.672   7.103   5.845
44425SOL    HW135172   5.705   7.091   5.934
44425SOL    HW235173   5.749   7.089   5.789
44426SOL     OW35174   3.771   9.146   2.745
44426SOL    HW135175   3.732   9.059   2.739
44426SOL    HW235176   3.857   9.137   2.704
44427SOL     OW35177   0.082   3.701   1.732
44427SOL    HW135178   0.172   3.723   1.706
44427SOL    HW235179   0.075   3.735   1.821
44428SOL     OW35180   5.243   4.353  13.968
44428SOL    HW135181   5.186   4.278  13.983
44428SOL    HW235182   5.282   4.372  14.054
44429SOL     OW35183   9.721   0.251   2.657
44429SOL    HW135184   9.706   0.315   2.727
44429SOL    HW235185   9.658   0.181   2.675
44430SOL     OW35186   3.315   0.175  12.875
44430SOL    HW135187   3.362   0.258  12.884
44430SOL    HW235188   3.379   0.108  12.897
44431SOL     OW35189   6.058   2.189   7.459
44431SOL    HW135190   6.008   2.154   7.532
44431SOL    HW235191   5.992   2.217   7.395
44432SOL     OW35192   1.114   1.530   7.176
44432SOL    HW135193   1.090   1.605   7.122
44432SOL    HW235194   1.039   1.516   7.234
44433SOL     OW35195  11.319   2.397   1.713
44433SOL    HW135196  11.367   2.317   1.737
44433SOL    HW235197  11.380   2.468   1.732
44434SOL     OW35198   1.397   4.676  14.287
44434SOL    HW135199   1.395   4.760  14.334
44434SOL    HW235200   1.315   4.633  14.312
44435SOL     OW35201   9.176   6.745  14.348
44435SOL    HW135202   9.182   6.651  14.362
44435SOL    HW235203   9.085   6.760  14.320
44436SOL     OW35204  14.617  11.376  13.308
44436SOL    HW135205  14.637  11.368  13.402
44436SOL    HW235206  14.695  11.418  13.271
44437SOL     OW35207   6.231   8.169   4.556
44437SOL    HW135208   6.261   8.128   4.475
44437SOL    HW235209   6.293   8.240   4.572
44438SOL     OW35210   7.009   8.944   3.534
44438SOL    HW135211   7.056   9.022   3.564
44438SOL    HW235212   7.004   8.888   3.612
44439SOL     OW35213   3.488  13.699  10.153
44439SOL    HW135214   3.489  13.692  10.249
44439SOL    HW235215   3.399  13.730  10.133
44440SOL     OW35216  13.417  13.363   5.442
44440SOL    HW135217  13.384  13.453   5.441
44440SOL    HW235218  13.489  13.365   5.505
44441SOL     OW35219   4.491  11.414   5.391
44441SOL    HW135220   4.424  11.388   5.328
44441SOL    HW235221   4.540  11.334   5.408
44442SOL     OW35222  12.134  13.590   0.930
44442SOL    HW135223  12.080  13.639   0.992
44442SOL    HW235224  12.118  13.499   0.951
44443SOL     OW35225   1.097  11.143  11.314
44443SOL    HW135226   1.024  11.173  11.260
44443SOL    HW235227   1.061  11.137  11.403
44444SOL     OW35228   0.911  12.820   7.074
44444SOL    HW135229   0.934  12.794   6.985
44444SOL    HW235230   0.966  12.766   7.130
44445SOL     OW35231  11.575  11.951   5.753
44445SOL    HW135232  11.489  11.992   5.744
44445SOL    HW235233  11.589  11.907   5.670
44446SOL     OW35234   7.502  13.701  13.456
44446SOL    HW135235   7.519  13.644  13.531
44446SOL    HW235236   7.586  13.745  13.441
44447SOL     OW35237  13.700  13.413   8.078
44447SOL    HW135238  13.760  13.487   8.067
44447SOL    HW235239  13.642  13.417   8.002
44448SOL     OW35240   0.441  10.001  12.238
44448SOL    HW135241   0.408   9.957  12.160
44448SOL    HW235242   0.530  10.027  12.216
44449SOL     OW35243   9.221  14.678  13.210
44449SOL    HW135244   9.267  14.598  13.237
44449SOL    HW235245   9.288  14.731  13.167
44450SOL     OW35246  11.544   1.706   4.174
44450SOL    HW135247  11.614   1.720   4.111
44450SOL    HW235248  11.584   1.651   4.242
44451SOL     OW35249  11.717   0.493   3.756
44451SOL    HW135250  11.638   0.443   3.776
44451SOL    HW235251  11.779   0.469   3.825
44452SOL     OW35252   4.618   8.679  10.515
44452SOL    HW135253   4.538   8.728  10.497
44452SOL    HW235254   4.654   8.720  10.593
44453SOL     OW35255  13.062   2.708   9.635
44453SOL    HW135256  13.080   2.716   9.542
44453SOL    HW235257  13.148   2.693   9.675
44454SOL     OW35258   9.219   0.815  11.039
44454SOL    HW135259   9.161   0.810  10.963
44454SOL    HW235260   9.241   0.908  11.047
44455SOL     OW35261   5.258   5.207  14.531
44455SOL    HW135262   5.334   5.152  14.553
44455SOL    HW235263   5.260   5.213  14.435
44456SOL     OW35264   2.831  10.079   7.691
44456SOL    HW135265   2.818   9.987   7.715
44456SOL    HW235266   2.759  10.097   7.630
44457SOL     OW35267  12.831   7.238   8.251
44457SOL    HW135268  12.759   7.235   8.313
44457SOL    HW235269  12.790   7.223   8.165
44458SOL     OW35270   1.350   1.048  11.938
44458SOL    HW135271   1.414   0.978  11.923
44458SOL    HW235272   1.268   1.013  11.905
44459SOL     OW35273   1.424  14.578   6.889
44459SOL    HW135274   1.488  14.561   6.958
44459SOL    HW235275   1.339  14.572   6.933
44460SOL     OW35276   9.171   6.374   0.801
44460SOL    HW135277   9.258   6.338   0.819
44460SOL    HW235278   9.189   6.455   0.753
44461SOL     OW35279   7.234   2.716   4.548
44461SOL    HW135280   7.323   2.713   4.515
44461SOL    HW235281   7.204   2.805   4.527
44462SOL     OW35282   1.576   0.794   2.431
44462SOL    HW135283   1.587   0.740   2.353
44462SOL    HW235284   1.643   0.763   2.492
44463SOL     OW35285  14.042   8.037   0.309
44463SOL    HW135286  14.109   8.005   0.369
44463SOL    HW235287  14.061   8.131   0.300
44464SOL     OW35288   1.998   9.510   4.216
44464SOL    HW135289   2.046   9.593   4.207
44464SOL    HW235290   2.031   9.455   4.145
44465SOL     OW35291   4.266   3.192   1.591
44465SOL    HW135292   4.352   3.162   1.621
44465SOL    HW235293   4.236   3.253   1.659
44466SOL     OW35294   3.865   7.620  11.491
44466SOL    HW135295   3.936   7.557  11.476
44466SOL    HW235296   3.826   7.633  11.404
44467SOL     OW35297   5.755  10.269  12.352
44467SOL    HW135298   5.679  10.227  12.310
44467SOL    HW235299   5.736  10.263  12.445
44468SOL     OW35300  13.317  10.805  12.929
44468SOL    HW135301  13.324  10.722  12.882
44468SOL    HW235302  13.239  10.797  12.982
44469SOL     OW35303   1.857  13.328   6.994
44469SOL    HW135304   1.828  13.256   6.937
44469SOL    HW235305   1.849  13.293   7.083
44470SOL     OW35306  12.882   5.177   4.200
44470SOL    HW135307  12.915   5.091   4.225
44470SOL    HW235308  12.828   5.160   4.123
44471SOL     OW35309   7.736   9.306   2.382
44471SOL    HW135310   7.711   9.302   2.289
44471SOL    HW235311   7.743   9.214   2.408
44472SOL     OW35312   2.822   9.507   0.141
44472SOL    HW135313   2.848   9.598   0.124
44472SOL    HW235314   2.729   9.504   0.120
44473SOL     OW35315   7.817   9.636  10.223
44473SOL    HW135316   7.799   9.719  10.179
44473SOL    HW235317   7.911   9.638  10.240
44474SOL     OW35318   8.011   1.844   4.187
44474SOL    HW135319   8.040   1.916   4.130
44474SOL    HW235320   8.087   1.786   4.192
44475SOL     OW35321   4.792   4.024   5.739
44475SOL    HW135322   4.812   3.936   5.708
44475SOL    HW235323   4.820   4.025   5.831
44476SOL     OW35324   2.961   7.665   4.545
44476SOL    HW135325   2.954   7.700   4.634
44476SOL    HW235326   2.872   7.669   4.511
44477SOL     OW35327   6.158   5.120   6.270
44477SOL    HW135328   6.176   5.068   6.191
44477SOL    HW235329   6.148   5.209   6.238
44478SOL     OW35330   8.397   5.192  11.617
44478SOL    HW135331   8.425   5.109  11.655
44478SOL    HW235332   8.472   5.221  11.565
44479SOL     OW35333   1.305  12.295  12.334
44479SOL    HW135334   1.214  12.300  12.304
44479SOL    HW235335   1.327  12.384  12.362
44480SOL     OW35336   6.002   9.981   8.358
44480SOL    HW135337   5.925   9.942   8.398
44480SOL    HW235338   5.998  10.073   8.382
44481SOL     OW35339  10.335   9.254   2.020
44481SOL    HW135340  10.239   9.251   2.017
44481SOL    HW235341  10.358   9.202   2.097
44482SOL     OW35342   5.854   7.688   5.821
44482SOL    HW135343   5.805   7.758   5.777
44482SOL    HW235344   5.933   7.731   5.855
44483SOL     OW35345   5.155   3.088   9.486
44483SOL    HW135346   5.207   3.011   9.512
44483SOL    HW235347   5.105   3.059   9.411
44484SOL     OW35348  10.854   5.811   0.497
44484SOL    HW135349  10.758   5.808   0.500
44484SOL    HW235350  10.875   5.792   0.406
44485SOL     OW35351  10.854   2.019  13.400
44485SOL    HW135352  10.909   1.974  13.465
44485SOL    HW235353  10.773   1.968  13.399
44486SOL     OW35354   3.631   1.460   3.050
44486SOL    HW135355   3.624   1.400   2.976
44486SOL    HW235356   3.690   1.415   3.111
44487SOL     OW35357   6.153  10.049  14.331
44487SOL    HW135358   6.071  10.000  14.323
44487SOL    HW235359   6.177  10.072  14.241
44488SOL     OW35360   9.930   5.464  13.694
44488SOL    HW135361   9.873   5.443  13.620
44488SOL    HW235362   9.869   5.496  13.761
44489SOL     OW35363  13.647   5.901   7.163
44489SOL    HW135364  13.714   5.836   7.144
44489SOL    HW235365  13.695   5.977   7.196
44490SOL     OW35366  10.874   7.247   6.810
44490SOL    HW135367  10.838   7.331   6.838
44490SOL    HW235368  10.802   7.204   6.764
44491SOL     OW35369   5.245   7.037   0.071
44491SOL    HW135370   5.181   7.107   0.058
44491SOL    HW235371   5.191   6.960   0.093
44492SOL     OW35372  12.185  10.756   7.174
44492SOL    HW135373  12.234  10.683   7.212
44492SOL    HW235374  12.234  10.779   7.095
44493SOL     OW35375   7.985  11.014   9.454
44493SOL    HW135376   7.949  10.978   9.535
44493SOL    HW235377   8.024  10.938   9.410
44494SOL     OW35378   2.488   3.290   7.021
44494SOL    HW135379   2.526   3.240   7.094
44494SOL    HW235380   2.477   3.226   6.951
44495SOL     OW35381   2.464   2.638   2.964
44495SOL    HW135382   2.513   2.679   3.036
44495SOL    HW235383   2.456   2.547   2.990
44496SOL     OW35384  13.218   1.949   7.331
44496SOL    HW135385  13.168   2.027   7.356
44496SOL    HW235386  13.248   1.911   7.414
44497SOL     OW35387   1.536   2.562  13.226
44497SOL    HW135388   1.582   2.583  13.308
44497SOL    HW235389   1.444   2.558  13.251
44498SOL     OW35390   5.655  13.064  11.291
44498SOL    HW135391   5.666  13.029  11.202
44498SOL    HW235392   5.587  13.009  11.330
44499SOL     OW35393   0.032   6.494  14.541
44499SOL    HW135394   0.039   6.570  14.483
44499SOL    HW235395  14.863   6.523  14.613
44500SOL     OW35396  12.946   0.714   4.995
44500SOL    HW135397  12.917   0.640   4.942
44500SOL    HW235398  13.005   0.675   5.061
44501SOL     OW35399   7.443   5.796   8.027
44501SOL    HW135400   7.514   5.827   8.083
44501SOL    HW235401   7.394   5.875   8.005
44502SOL     OW35402  11.878   3.524   9.046
44502SOL    HW135403  11.859   3.431   9.037
44502SOL    HW235404  11.803   3.568   9.006
44503SOL     OW35405  12.270   9.974   6.514
44503SOL    HW135406  12.326   9.931   6.449
44503SOL    HW235407  12.325  10.044   6.550
44504SOL     OW35408  12.640   1.617   9.899
44504SOL    HW135409  12.570   1.593   9.839
44504SOL    HW235410  12.618   1.706   9.927
44505SOL     OW35411  10.665   2.010   9.528
44505SOL    HW135412  10.655   2.101   9.555
44505SOL    HW235413  10.721   2.013   9.451
44506SOL     OW35414  12.776   3.385  12.787
44506SOL    HW135415  12.859   3.392  12.834
44506SOL    HW235416  12.771   3.465  12.735
44507SOL     OW35417  10.362  13.958   3.189
44507SOL    HW135418  10.356  13.961   3.285
44507SOL    HW235419  10.440  14.010   3.169
44508SOL     OW35420  14.664   1.874   0.664
44508SOL    HW135421  14.749   1.899   0.627
44508SOL    HW235422  14.606   1.946   0.640
44509SOL     OW35423  12.913   1.873   5.359
44509SOL    HW135424  12.817   1.882   5.353
44509SOL    HW235425  12.926   1.782   5.385
44510SOL     OW35426   1.941  10.134   4.819
44510SOL    HW135427   1.881  10.208   4.826
44510SOL    HW235428   1.899  10.075   4.756
44511SOL     OW35429  10.592  12.934   6.490
44511SOL    HW135430  10.548  13.002   6.540
44511SOL    HW235431  10.619  12.869   6.555
44512SOL     OW35432  12.466  13.422  14.725
44512SOL    HW135433  12.443  13.411  14.633
44512SOL    HW235434  12.545  13.476  14.725
44513SOL     OW35435   6.587   4.746   2.920
44513SOL    HW135436   6.542   4.667   2.891
44513SOL    HW235437   6.516   4.807   2.941
44514SOL     OW35438   3.461   0.439  10.291
44514SOL    HW135439   3.380   0.415  10.245
44514SOL    HW235440   3.510   0.357  10.298
44515SOL     OW35441   3.335   0.277  14.351
44515SOL    HW135442   3.375   0.256  14.267
44515SOL    HW235443   3.242   0.286  14.331
44516SOL     OW35444   4.713   7.242   6.275
44516SOL    HW135445   4.759   7.221   6.357
44516SOL    HW235446   4.759   7.319   6.241
44517SOL     OW35447   3.743  12.703  13.496
44517SOL    HW135448   3.772  12.764  13.564
44517SOL    HW235449   3.799  12.724  13.420
44518SOL     OW35450   7.903   4.942   1.627
44518SOL    HW135451   7.990   4.980   1.617
44518SOL    HW235452   7.891   4.888   1.549
44519SOL     OW35453   6.721   7.497   5.006
44519SOL    HW135454   6.770   7.540   5.077
44519SOL    HW235455   6.630   7.500   5.035
44520SOL     OW35456  10.235  11.518   2.210
44520SOL    HW135457  10.276  11.436   2.184
44520SOL    HW235458  10.276  11.541   2.293
44521SOL     OW35459   7.020   8.802   1.419
44521SOL    HW135460   7.095   8.854   1.444
44521SOL    HW235461   6.956   8.816   1.488
44522SOL     OW35462  10.942   6.239   5.735
44522SOL    HW135463  10.906   6.196   5.657
44522SOL    HW235464  10.953   6.169   5.799
44523SOL     OW35465  13.549   3.304  12.516
44523SOL    HW135466  13.540   3.378  12.457
44523SOL    HW235467  13.511   3.334  12.599
44524SOL     OW35468   4.032   7.964   8.371
44524SOL    HW135469   3.953   8.015   8.385
44524SOL    HW235470   4.068   7.949   8.458
44525SOL     OW35471   5.516  10.880  13.386
44525SOL    HW135472   5.475  10.961  13.357
44525SOL    HW235473   5.463  10.851  13.460
44526SOL     OW35474  13.515   2.446  12.868
44526SOL    HW135475  13.543   2.356  12.853
44526SOL    HW235476  13.472   2.472  12.787
44527SOL     OW35477   3.583  14.710  11.827
44527SOL    HW135478   3.573  14.675  11.739
44527SOL    HW235479   3.677  14.717  11.840
44528SOL     OW35480   3.755   7.405  13.575
44528SOL    HW135481   3.797   7.473  13.523
44528SOL    HW235482   3.812   7.329  13.565
44529SOL     OW35483   0.672  10.566   0.115
44529SOL    HW135484   0.677  10.545   0.208
44529SOL    HW235485   0.597  10.625   0.108
44530SOL     OW35486  10.939  10.315   3.585
44530SOL    HW135487  10.848  10.330   3.612
44530SOL    HW235488  10.990  10.379   3.634
44531SOL     OW35489   6.083  11.372  14.286
44531SOL    HW135490   6.049  11.415  14.364
44531SOL    HW235491   6.123  11.443  14.235
44532SOL     OW35492  13.980  13.694   0.632
44532SOL    HW135493  14.005  13.752   0.560
44532SOL    HW235494  13.911  13.742   0.678
44533SOL     OW35495   8.633  10.359  10.160
44533SOL    HW135496   8.570  10.402  10.102
44533SOL    HW235497   8.620  10.266  10.144
44534SOL     OW35498   8.701  14.508   6.512
44534SOL    HW135499   8.709  14.575   6.444
44534SOL    HW235500   8.623  14.458   6.488
44535SOL     OW35501   7.019   3.785   7.588
44535SOL    HW135502   7.077   3.837   7.643
44535SOL    HW235503   6.933   3.794   7.629
44536SOL     OW35504   2.386  10.569  12.785
44536SOL    HW135505   2.328  10.494  12.781
44536SOL    HW235506   2.333  10.642  12.754
44537SOL     OW35507  12.402  11.259   9.439
44537SOL    HW135508  12.359  11.176   9.459
44537SOL    HW235509  12.468  11.237   9.374
44538SOL     OW35510   1.463   3.451   1.011
44538SOL    HW135511   1.504   3.448   1.097
44538SOL    HW235512   1.369   3.459   1.029
44539SOL     OW35513   7.313  13.822   9.311
44539SOL    HW135514   7.354  13.867   9.237
44539SOL    HW235515   7.255  13.758   9.271
44540SOL     OW35516   2.067   2.653  14.504
44540SOL    HW135517   2.045   2.562  14.486
44540SOL    HW235518   2.144   2.671  14.449
44541SOL     OW35519   4.199  11.375  10.503
44541SOL    HW135520   4.288  11.391  10.535
44541SOL    HW235521   4.185  11.281  10.515
44542SOL     OW35522   7.676   6.049  13.737
44542SOL    HW135523   7.618   6.048  13.661
44542SOL    HW235524   7.621   6.020  13.810
44543SOL     OW35525  12.484   7.249  13.512
44543SOL    HW135526  12.401   7.209  13.539
44543SOL    HW235527  12.551   7.190  13.548
44544SOL     OW35528   5.732  14.793   5.792
44544SOL    HW135529   5.806  14.762   5.845
44544SOL    HW235530   5.654  14.763   5.839
44545SOL     OW35531   7.112   0.448   1.272
44545SOL    HW135532   7.084   0.483   1.357
44545SOL    HW235533   7.129   0.525   1.218
44546SOL     OW35534   5.623  14.138   9.615
44546SOL    HW135535   5.620  14.105   9.525
44546SOL    HW235536   5.677  14.074   9.661
44547SOL     OW35537   4.573   1.673   8.765
44547SOL    HW135538   4.575   1.753   8.816
44547SOL    HW235539   4.552   1.604   8.828
44548SOL     OW35540  13.233  14.108   8.003
44548SOL    HW135541  13.277  14.046   7.945
44548SOL    HW235542  13.261  14.082   8.091
44549SOL     OW35543   8.807  12.500   0.292
44549SOL    HW135544   8.818  12.444   0.215
44549SOL    HW235545   8.820  12.589   0.260
44550SOL     OW35546   4.645  14.096   6.606
44550SOL    HW135547   4.573  14.153   6.582
44550SOL    HW235548   4.603  14.020   6.648
44551SOL     OW35549  11.011   0.085   4.116
44551SOL    HW135550  10.951   0.020   4.152
44551SOL    HW235551  11.094   0.038   4.105
44552SOL     OW35552  13.062  10.792   3.739
44552SOL    HW135553  13.002  10.828   3.673
44552SOL    HW235554  13.132  10.752   3.687
44553SOL     OW35555   2.284   9.569   7.157
44553SOL    HW135556   2.344   9.496   7.170
44553SOL    HW235557   2.340   9.646   7.151
44554SOL     OW35558  11.739   6.758   5.954
44554SOL    HW135559  11.813   6.730   5.900
44554SOL    HW235560  11.776   6.771   6.041
44555SOL     OW35561   3.437   0.540   0.452
44555SOL    HW135562   3.376   0.471   0.476
44555SOL    HW235563   3.509   0.494   0.407
44556SOL     OW35564   1.978  10.580  10.553
44556SOL    HW135565   1.933  10.664  10.543
44556SOL    HW235566   2.030  10.572  10.473
44557SOL     OW35567   0.163  14.017  13.352
44557SOL    HW135568   0.125  13.948  13.406
44557SOL    HW235569   0.165  14.094  13.409
44558SOL     OW35570   1.761  11.777   8.876
44558SOL    HW135571   1.703  11.709   8.843
44558SOL    HW235572   1.849  11.742   8.864
44559SOL     OW35573   4.898   3.876   0.999
44559SOL    HW135574   4.952   3.850   1.074
44559SOL    HW235575   4.845   3.799   0.980
44560SOL     OW35576  12.830   3.910  13.187
44560SOL    HW135577  12.811   3.889  13.279
44560SOL    HW235578  12.857   3.826  13.149
44561SOL     OW35579   9.259   4.411  12.287
44561SOL    HW135580   9.224   4.450  12.367
44561SOL    HW235581   9.211   4.328  12.279
44562SOL     OW35582   2.445  12.504   0.216
44562SOL    HW135583   2.477  12.480   0.129
44562SOL    HW235584   2.525  12.525   0.265
44563SOL     OW35585   4.771   3.833   3.646
44563SOL    HW135586   4.744   3.807   3.734
44563SOL    HW235587   4.816   3.917   3.659
44564SOL     OW35588   4.688   4.200   3.595
44564SOL    HW135589   4.722   4.289   3.590
44564SOL    HW235590   4.760   4.148   3.629
44565SOL     OW35591   8.061  11.694   4.029
44565SOL    HW135592   8.156  11.681   4.024
44565SOL    HW235593   8.024  11.608   4.012
44566SOL     OW35594   9.850   3.846   8.056
44566SOL    HW135595   9.877   3.783   7.989
44566SOL    HW235596   9.813   3.792   8.126
44567SOL     OW35597   5.812   5.265  14.344
44567SOL    HW135598   5.778   5.313  14.418
44567SOL    HW235599   5.901   5.240  14.370
44568SOL     OW35600  12.203   9.674  10.767
44568SOL    HW135601  12.144   9.625  10.824
44568SOL    HW235602  12.173   9.652  10.678
44569SOL     OW35603   3.543   0.309  11.865
44569SOL    HW135604   3.511   0.375  11.804
44569SOL    HW235605   3.549   0.229  11.813
44570SOL     OW35606   8.239  14.599   9.374
44570SOL    HW135607   8.210  14.548   9.298
44570SOL    HW235608   8.260  14.533   9.440
44571SOL     OW35609  11.431  14.583   4.003
44571SOL    HW135610  11.443  14.609   4.094
44571SOL    HW235611  11.355  14.525   4.004
44572SOL     OW35612  11.710   1.485   5.852
44572SOL    HW135613  11.748   1.424   5.915
44572SOL    HW235614  11.734   1.449   5.766
44573SOL     OW35615   2.510   1.495  12.609
44573SOL    HW135616   2.499   1.563  12.543
44573SOL    HW235617   2.585   1.524  12.661
44574SOL     OW35618  13.289   0.055   6.338
44574SOL    HW135619  13.303   0.141   6.297
44574SOL    HW235620  13.352  14.884   6.295
44575SOL     OW35621   6.980   0.946   8.445
44575SOL    HW135622   6.984   1.004   8.369
44575SOL    HW235623   6.919   0.988   8.505
44576SOL     OW35624   9.468   8.679   8.483
44576SOL    HW135625   9.381   8.654   8.451
44576SOL    HW235626   9.453   8.757   8.536
44577SOL     OW35627   0.722   5.149  11.692
44577SOL    HW135628   0.752   5.202  11.619
44577SOL    HW235629   0.795   5.148  11.753
44578SOL     OW35630  11.758   7.022   1.077
44578SOL    HW135631  11.771   6.930   1.098
44578SOL    HW235632  11.669   7.042   1.107
44579SOL     OW35633   2.056   4.461   0.721
44579SOL    HW135634   1.989   4.429   0.781
44579SOL    HW235635   2.050   4.557   0.726
44580SOL     OW35636   7.490   6.251   3.641
44580SOL    HW135637   7.401   6.220   3.621
44580SOL    HW235638   7.496   6.335   3.596
44581SOL     OW35639  10.177   0.183   1.128
44581SOL    HW135640  10.269   0.180   1.153
44581SOL    HW235641  10.151   0.274   1.142
44582SOL     OW35642   5.534  13.908   7.731
44582SOL    HW135643   5.544  13.931   7.823
44582SOL    HW235644   5.580  13.824   7.722
44583SOL     OW35645   2.724   2.229   0.525
44583SOL    HW135646   2.799   2.286   0.508
44583SOL    HW235647   2.665   2.244   0.451
44584SOL     OW35648   8.920   4.224   7.978
44584SOL    HW135649   8.920   4.205   7.884
44584SOL    HW235650   8.866   4.155   8.016
44585SOL     OW35651   0.958   0.018  12.253
44585SOL    HW135652   1.020  14.870  12.190
44585SOL    HW235653   1.011   0.073  12.311
44586SOL     OW35654   5.450  12.582   5.291
44586SOL    HW135655   5.459  12.555   5.200
44586SOL    HW235656   5.399  12.512   5.332
44587SOL     OW35657   5.803  14.249   5.904
44587SOL    HW135658   5.730  14.272   5.961
44587SOL    HW235659   5.769  14.262   5.815
44588SOL     OW35660   9.231  13.435  12.937
44588SOL    HW135661   9.145  13.400  12.916
44588SOL    HW235662   9.292  13.363  12.920
44589SOL     OW35663   4.318   7.556   1.884
44589SOL    HW135664   4.297   7.466   1.906
44589SOL    HW235665   4.375   7.550   1.807
44590SOL     OW35666   6.962   6.507  12.900
44590SOL    HW135667   6.919   6.444  12.843
44590SOL    HW235668   6.900   6.579  12.908
44591SOL     OW35669   6.851  10.102   2.640
44591SOL    HW135670   6.878  10.112   2.549
44591SOL    HW235671   6.892  10.175   2.686
44592SOL     OW35672   3.146  10.042   4.203
44592SOL    HW135673   3.195  10.074   4.279
44592SOL    HW235674   3.184   9.957   4.184
44593SOL     OW35675   3.191   0.425   1.268
44593SOL    HW135676   3.150   0.439   1.353
44593SOL    HW235677   3.121   0.436   1.205
44594SOL     OW35678  14.326   8.971  13.211
44594SOL    HW135679  14.265   9.006  13.276
44594SOL    HW235680  14.272   8.922  13.150
44595SOL     OW35681   3.450   5.572   8.003
44595SOL    HW135682   3.503   5.647   7.974
44595SOL    HW235683   3.477   5.501   7.945
44596SOL     OW35684   4.462   4.375  11.517
44596SOL    HW135685   4.534   4.354  11.458
44596SOL    HW235686   4.479   4.321  11.595
44597SOL     OW35687   7.259  13.473   8.008
44597SOL    HW135688   7.204  13.395   7.999
44597SOL    HW235689   7.343  13.439   8.040
44598SOL     OW35690   5.890  13.301   2.055
44598SOL    HW135691   5.830  13.306   1.980
44598SOL    HW235692   5.917  13.391   2.071
44599SOL     OW35693   7.921  10.743  13.790
44599SOL    HW135694   7.954  10.832  13.778
44599SOL    HW235695   7.975  10.708  13.861
44600SOL     OW35696  12.102   8.627   7.648
44600SOL    HW135697  12.178   8.651   7.702
44600SOL    HW235698  12.064   8.551   7.691
44601SOL     OW35699   5.575   0.843   9.694
44601SOL    HW135700   5.606   0.807   9.777
44601SOL    HW235701   5.563   0.936   9.711
44602SOL     OW35702   1.650   3.929   7.660
44602SOL    HW135703   1.737   3.907   7.628
44602SOL    HW235704   1.610   3.979   7.588
44603SOL     OW35705  14.531  12.762   2.315
44603SOL    HW135706  14.509  12.817   2.391
44603SOL    HW235707  14.447  12.723   2.290
44604SOL     OW35708   7.188   6.631  13.603
44604SOL    HW135709   7.195   6.585  13.687
44604SOL    HW235710   7.268   6.607  13.556
44605SOL     OW35711   5.895   3.143   9.966
44605SOL    HW135712   5.860   3.055   9.958
44605SOL    HW235713   5.989   3.133   9.947
44606SOL     OW35714   9.199   3.731  12.492
44606SOL    HW135715   9.234   3.642  12.483
44606SOL    HW235716   9.271   3.788  12.465
44607SOL     OW35717   7.108   6.606  14.454
44607SOL    HW135718   7.183   6.564  14.496
44607SOL    HW235719   7.126   6.601  14.361
44608SOL     OW35720   1.568  10.405   0.692
44608SOL    HW135721   1.609  10.377   0.774
44608SOL    HW235722   1.586  10.334   0.631
44609SOL     OW35723   0.866  14.021   8.700
44609SOL    HW135724   0.770  14.018   8.700
44609SOL    HW235725   0.888  14.083   8.770
44610SOL     OW35726  11.145   3.352   2.016
44610SOL    HW135727  11.129   3.433   2.065
44610SOL    HW235728  11.070   3.296   2.037
44611SOL     OW35729   3.860  14.576   4.728
44611SOL    HW135730   3.932  14.522   4.696
44611SOL    HW235731   3.878  14.586   4.822
44612SOL     OW35732  13.702   2.123   1.348
44612SOL    HW135733  13.755   2.152   1.274
44612SOL    HW235734  13.757   2.137   1.425
44613SOL     OW35735   4.351  13.308   3.799
44613SOL    HW135736   4.395  13.230   3.835
44613SOL    HW235737   4.377  13.379   3.858
44614SOL     OW35738   3.126   4.948   4.585
44614SOL    HW135739   3.098   4.929   4.495
44614SOL    HW235740   3.215   4.981   4.576
44615SOL     OW35741  11.403   7.176   9.484
44615SOL    HW135742  11.348   7.122   9.427
44615SOL    HW235743  11.464   7.220   9.425
44616SOL     OW35744   5.913   9.049  13.891
44616SOL    HW135745   5.853   8.980  13.861
44616SOL    HW235746   5.958   9.077  13.812
44617SOL     OW35747   1.366   8.707   8.911
44617SOL    HW135748   1.359   8.795   8.948
44617SOL    HW235749   1.338   8.717   8.820
44618SOL     OW35750  10.396   6.593  13.865
44618SOL    HW135751  10.309   6.634  13.866
44618SOL    HW235752  10.453   6.660  13.903
44619SOL     OW35753  14.656  14.492   4.518
44619SOL    HW135754  14.681  14.559   4.453
44619SOL    HW235755  14.709  14.513   4.595
44620SOL     OW35756   9.069  12.040   9.278
44620SOL    HW135757   9.109  12.114   9.233
44620SOL    HW235758   9.106  12.042   9.367
44621SOL     OW35759   7.986   1.730  13.277
44621SOL    HW135760   7.955   1.775  13.198
44621SOL    HW235761   7.908   1.721  13.332
44622SOL     OW35762   9.952  11.858   8.643
44622SOL    HW135763   9.956  11.953   8.638
44622SOL    HW235764   9.865  11.839   8.678
44623SOL     OW35765   7.027   1.309   8.988
44623SOL    HW135766   6.933   1.307   9.009
44623SOL    HW235767   7.066   1.250   9.053
44624SOL     OW35768   0.620   8.599   8.269
44624SOL    HW135769   0.660   8.608   8.182
44624SOL    HW235770   0.694   8.580   8.326
44625SOL     OW35771   5.168   6.374  13.795
44625SOL    HW135772   5.180   6.284  13.764
44625SOL    HW235773   5.243   6.422  13.759
44626SOL     OW35774  10.567   3.422   7.916
44626SOL    HW135775  10.579   3.448   7.825
44626SOL    HW235776  10.624   3.346   7.926
44627SOL     OW35777   5.792  12.319   4.750
44627SOL    HW135778   5.759  12.399   4.708
44627SOL    HW235779   5.849  12.279   4.684
44628SOL     OW35780  14.011   8.858  13.707
44628SOL    HW135781  14.017   8.897  13.620
44628SOL    HW235782  13.949   8.913  13.754
44629SOL     OW35783   7.759   6.698   4.696
44629SOL    HW135784   7.840   6.725   4.654
44629SOL    HW235785   7.693   6.702   4.626
44630SOL     OW35786   4.474   6.270   9.831
44630SOL    HW135787   4.445   6.351   9.789
44630SOL    HW235788   4.568   6.266   9.815
44631SOL     OW35789   7.950  12.552   2.778
44631SOL    HW135790   8.033  12.507   2.761
44631SOL    HW235791   7.889  12.515   2.714
44632SOL     OW35792  12.937   1.437   4.184
44632SOL    HW135793  13.003   1.497   4.218
44632SOL    HW235794  12.975   1.350   4.196
44633SOL     OW35795   0.393  11.160  14.315
44633SOL    HW135796   0.392  11.151  14.219
44633SOL    HW235797   0.466  11.219  14.332
44634SOL     OW35798  14.879  11.985   1.827
44634SOL    HW135799   0.077  11.957   1.795
44634SOL    HW235800   0.010  12.063   1.880
44635SOL     OW35801  12.064  10.569   3.233
44635SOL    HW135802  12.043  10.492   3.180
44635SOL    HW235803  12.008  10.638   3.198
44636SOL     OW35804  10.767  10.069   4.585
44636SOL    HW135805  10.740  10.035   4.670
44636SOL    HW235806  10.720  10.152   4.576
44637SOL     OW35807   0.539   3.952  12.405
44637SOL    HW135808   0.617   3.962  12.351
44637SOL    HW235809   0.544   4.024  12.467
44638SOL     OW35810  11.537  13.683   8.078
44638SOL    HW135811  11.552  13.703   7.986
44638SOL    HW235812  11.570  13.759   8.126
44639SOL     OW35813  13.377  14.162  11.143
44639SOL    HW135814  13.350  14.087  11.195
44639SOL    HW235815  13.299  14.187  11.093
44640SOL     OW35816   8.324  10.592   8.499
44640SOL    HW135817   8.341  10.659   8.565
44640SOL    HW235818   8.339  10.636   8.415
44641SOL     OW35819   1.105   3.459  10.947
44641SOL    HW135820   1.048   3.382  10.959
44641SOL    HW235821   1.081   3.518  11.018
44642SOL     OW35822   6.750   0.990   8.725
44642SOL    HW135823   6.655   0.983   8.728
44642SOL    HW235824   6.767   1.081   8.702
44643SOL     OW35825   1.745   3.809  13.793
44643SOL    HW135826   1.679   3.828  13.859
44643SOL    HW235827   1.698   3.815  13.709
44644SOL     OW35828  13.420  13.007   3.397
44644SOL    HW135829  13.461  12.959   3.325
44644SOL    HW235830  13.414  12.943   3.468
44645SOL     OW35831   5.607  13.045  13.555
44645SOL    HW135832   5.635  13.098  13.630
44645SOL    HW235833   5.680  12.986  13.539
44646SOL     OW35834   7.807  12.464   1.165
44646SOL    HW135835   7.839  12.443   1.253
44646SOL    HW235836   7.720  12.502   1.179
44647SOL     OW35837  13.801  12.766   6.821
44647SOL    HW135838  13.731  12.819   6.782
44647SOL    HW235839  13.819  12.698   6.756
44648SOL     OW35840   5.870   3.592  11.275
44648SOL    HW135841   5.780   3.617  11.293
44648SOL    HW235842   5.889   3.523  11.338
44649SOL     OW35843  13.285   8.625   7.137
44649SOL    HW135844  13.232   8.671   7.203
44649SOL    HW235845  13.281   8.682   7.060
44650SOL     OW35846   4.884   8.975  10.094
44650SOL    HW135847   4.812   8.948  10.037
44650SOL    HW235848   4.963   8.942  10.050
44651SOL     OW35849   0.145   3.580   3.148
44651SOL    HW135850   0.092   3.618   3.218
44651SOL    HW235851   0.211   3.647   3.129
44652SOL     OW35852   0.878   7.628  10.303
44652SOL    HW135853   0.937   7.670  10.240
44652SOL    HW235854   0.935   7.606  10.378
44653SOL     OW35855  13.291   3.524   8.054
44653SOL    HW135856  13.337   3.539   8.136
44653SOL    HW235857  13.358   3.536   7.987
44654SOL     OW35858  13.430   9.221  11.979
44654SOL    HW135859  13.359   9.240  12.041
44654SOL    HW235860  13.494   9.171  12.030
44655SOL     OW35861   1.700   5.679  12.432
44655SOL    HW135862   1.777   5.736  12.438
44655SOL    HW235863   1.731   5.594  12.462
44656SOL     OW35864  11.177  10.973   8.567
44656SOL    HW135865  11.217  10.919   8.498
44656SOL    HW235866  11.201  10.929   8.649
44657SOL     OW35867  11.642   8.403   4.699
44657SOL    HW135868  11.662   8.478   4.754
44657SOL    HW235869  11.718   8.393   4.643
44658SOL     OW35870   2.670  13.358   2.092
44658SOL    HW135871   2.663  13.430   2.029
44658SOL    HW235872   2.746  13.308   2.062
44659SOL     OW35873   5.016   8.704   7.920
44659SOL    HW135874   5.081   8.635   7.931
44659SOL    HW235875   4.974   8.684   7.836
44660SOL     OW35876  13.715   5.499   1.093
44660SOL    HW135877  13.667   5.466   1.169
44660SOL    HW235878  13.758   5.579   1.123
44661SOL     OW35879   6.475   0.640  12.483
44661SOL    HW135880   6.453   0.734  12.482
44661SOL    HW235881   6.571   0.638  12.482
44662SOL     OW35882   4.976   2.927   9.703
44662SOL    HW135883   4.988   3.017   9.734
44662SOL    HW235884   4.902   2.894   9.754
44663SOL     OW35885   8.106  11.948  11.660
44663SOL    HW135886   8.148  12.027  11.695
44663SOL    HW235887   8.065  11.976  11.579
44664SOL     OW35888   3.395  14.527   9.052
44664SOL    HW135889   3.370  14.596   9.114
44664SOL    HW235890   3.481  14.499   9.083
44665SOL     OW35891   0.005  10.456  13.967
44665SOL    HW135892  14.850  10.458  13.881
44665SOL    HW235893  14.837  10.398  14.020
44666SOL     OW35894   7.883   6.537   1.926
44666SOL    HW135895   7.825   6.609   1.903
44666SOL    HW235896   7.851   6.462   1.875
44667SOL     OW35897   2.352  10.947   0.950
44667SOL    HW135898   2.442  10.972   0.972
44667SOL    HW235899   2.321  10.897   1.026
44668SOL     OW35900  10.790  11.254   6.627
44668SOL    HW135901  10.746  11.171   6.607
44668SOL    HW235902  10.731  11.298   6.688
44669SOL     OW35903   4.647  10.578  10.413
44669SOL    HW135904   4.596  10.505  10.447
44669SOL    HW235905   4.589  10.622  10.351
44670SOL     OW35906   7.546   5.738   0.571
44670SOL    HW135907   7.452   5.727   0.586
44670SOL    HW235908   7.587   5.667   0.620
44671SOL     OW35909   6.746   6.150   7.385
44671SOL    HW135910   6.755   6.082   7.451
44671SOL    HW235911   6.668   6.126   7.336
44672SOL     OW35912   3.099   9.306   5.264
44672SOL    HW135913   3.009   9.318   5.232
44672SOL    HW235914   3.106   9.368   5.337
44673SOL     OW35915   0.354   7.867   5.168
44673SOL    HW135916   0.262   7.842   5.157
44673SOL    HW235917   0.396   7.839   5.087
44674SOL     OW35918  13.140   8.163   5.748
44674SOL    HW135919  13.143   8.253   5.716
44674SOL    HW235920  13.087   8.116   5.683
44675SOL     OW35921   2.078   0.065   8.928
44675SOL    HW135922   2.015   0.131   8.899
44675SOL    HW235923   2.120   0.105   9.004
44676SOL     OW35924   9.484   6.385   1.772
44676SOL    HW135925   9.407   6.403   1.826
44676SOL    HW235926   9.500   6.291   1.783
44677SOL     OW35927   5.285   8.056  11.372
44677SOL    HW135928   5.297   8.077  11.279
44677SOL    HW235929   5.368   8.019  11.400
44678SOL     OW35930   9.766   3.358   0.470
44678SOL    HW135931   9.705   3.286   0.490
44678SOL    HW235932   9.736   3.430   0.526
44679SOL     OW35933   3.333  12.317  12.666
44679SOL    HW135934   3.306  12.338  12.576
44679SOL    HW235935   3.373  12.230  12.660
44680SOL     OW35936   1.313   4.575   9.168
44680SOL    HW135937   1.242   4.639   9.167
44680SOL    HW235938   1.310   4.537   9.256
44681SOL     OW35939  14.065   2.237   7.639
44681SOL    HW135940  13.980   2.249   7.596
44681SOL    HW235941  14.110   2.171   7.587
44682SOL     OW35942   0.219   5.936   4.230
44682SOL    HW135943   0.221   5.880   4.153
44682SOL    HW235944   0.187   5.880   4.300
44683SOL     OW35945  14.821   6.340   9.157
44683SOL    HW135946  14.861   6.427   9.148
44683SOL    HW235947  14.734   6.357   9.193
44684SOL     OW35948  13.340   6.594   3.758
44684SOL    HW135949  13.263   6.626   3.711
44684SOL    HW235950  13.414   6.629   3.708
44685SOL     OW35951   9.421   0.334   7.975
44685SOL    HW135952   9.379   0.402   8.029
44685SOL    HW235953   9.419   0.370   7.886
44686SOL     OW35954  11.045  13.207   0.341
44686SOL    HW135955  10.988  13.214   0.264
44686SOL    HW235956  11.129  13.177   0.306
44687SOL     OW35957   1.480   6.475   2.250
44687SOL    HW135958   1.404   6.430   2.213
44687SOL    HW235959   1.529   6.505   2.174
44688SOL     OW35960   5.687   6.825   5.665
44688SOL    HW135961   5.628   6.811   5.739
44688SOL    HW235962   5.708   6.737   5.634
44689SOL     OW35963  14.380  12.124   7.569
44689SOL    HW135964  14.462  12.149   7.527
44689SOL    HW235965  14.394  12.034   7.598
44690SOL     OW35966   3.441   2.619   8.337
44690SOL    HW135967   3.469   2.561   8.266
44690SOL    HW235968   3.379   2.567   8.388
44691SOL     OW35969   4.168   6.740   5.669
44691SOL    HW135970   4.152   6.822   5.622
44691SOL    HW235971   4.092   6.730   5.727
44692SOL     OW35972   8.078  14.859   3.641
44692SOL    HW135973   8.055   0.006   3.727
44692SOL    HW235974   8.138  14.787   3.659
44693SOL     OW35975   4.461  12.166   0.575
44693SOL    HW135976   4.368  12.189   0.571
44693SOL    HW235977   4.501  12.216   0.503
44694SOL     OW35978   9.316  13.580   2.532
44694SOL    HW135979   9.408  13.583   2.505
44694SOL    HW235980   9.307  13.494   2.574
44695SOL     OW35981   1.405   4.800   6.630
44695SOL    HW135982   1.336   4.786   6.695
44695SOL    HW235983   1.383   4.884   6.590
44696SOL     OW35984  14.416  12.712   0.726
44696SOL    HW135985  14.389  12.753   0.644
44696SOL    HW235986  14.490  12.765   0.757
44697SOL     OW35987   4.101   2.111   1.895
44697SOL    HW135988   4.173   2.116   1.833
44697SOL    HW235989   4.112   2.027   1.939
44698SOL     OW35990  13.340   7.727   1.363
44698SOL    HW135991  13.291   7.798   1.405
44698SOL    HW235992  13.277   7.687   1.303
44699SOL     OW35993   7.638   0.614   6.320
44699SOL    HW135994   7.603   0.528   6.297
44699SOL    HW235995   7.733   0.600   6.328
44700SOL     OW35996   8.869   8.045   5.066
44700SOL    HW135997   8.810   8.054   4.991
44700SOL    HW235998   8.825   8.093   5.136
44701SOL     OW35999   3.086   1.073   4.796
44701SOL    HW136000   3.094   1.096   4.889
44701SOL    HW236001   3.075   0.978   4.795
44702SOL     OW36002   1.700  14.308   4.046
44702SOL    HW136003   1.694  14.359   3.966
44702SOL    HW236004   1.621  14.254   4.047
44703SOL     OW36005  10.444  14.795  12.398
44703SOL    HW136006  10.447  14.703  12.372
44703SOL    HW236007  10.368  14.801  12.456
44704SOL     OW36008   9.808   6.842   6.714
44704SOL    HW136009   9.772   6.762   6.676
44704SOL    HW236010   9.900   6.843   6.686
44705SOL     OW36011   2.935   4.338   7.747
44705SOL    HW136012   2.889   4.418   7.722
44705SOL    HW236013   3.015   4.368   7.790
44706SOL     OW36014  12.329   5.003  14.290
44706SOL    HW136015  12.299   4.919  14.325
44706SOL    HW236016  12.378   5.043  14.362
44707SOL     OW36017   1.202   4.777  12.614
44707SOL    HW136018   1.165   4.718  12.549
44707SOL    HW236019   1.258   4.836  12.563
44708SOL     OW36020   2.077  11.828   7.009
44708SOL    HW136021   2.043  11.912   7.039
44708SOL    HW236022   2.065  11.770   7.085
44709SOL     OW36023  10.414   0.325  13.967
44709SOL    HW136024  10.399   0.257  13.902
44709SOL    HW236025  10.406   0.407  13.919
44710SOL     OW36026  12.281   1.972   0.139
44710SOL    HW136027  12.276   2.029   0.216
44710SOL    HW236028  12.209   1.999   0.083
44711SOL     OW36029   2.315  12.513   9.652
44711SOL    HW136030   2.368  12.492   9.728
44711SOL    HW236031   2.226  12.524   9.687
44712SOL     OW36032   2.577   3.383   7.413
44712SOL    HW136033   2.671   3.376   7.398
44712SOL    HW236034   2.567   3.384   7.508
44713SOL     OW36035  12.725   2.130  12.121
44713SOL    HW136036  12.694   2.211  12.079
44713SOL    HW236037  12.703   2.061  12.059
44714SOL     OW36038   2.356   5.839   5.682
44714SOL    HW136039   2.440   5.883   5.670
44714SOL    HW236040   2.316   5.884   5.757
44715SOL     OW36041   4.391   9.712   8.456
44715SOL    HW136042   4.366   9.780   8.393
44715SOL    HW236043   4.312   9.699   8.509
44716SOL     OW36044   3.285   2.221   6.492
44716SOL    HW136045   3.250   2.179   6.413
44716SOL    HW236046   3.290   2.151   6.557
44717SOL     OW36047   3.370  13.928  14.304
44717SOL    HW136048   3.302  13.923  14.238
44717SOL    HW236049   3.431  13.858  14.282
44718SOL     OW36050  12.393   5.134   1.102
44718SOL    HW136051  12.348   5.181   1.173
44718SOL    HW236052  12.340   5.151   1.024
44719SOL     OW36053  12.973   0.505   8.729
44719SOL    HW136054  12.914   0.490   8.803
44719SOL    HW236055  12.948   0.439   8.664
44720SOL     OW36056   2.298   2.413  10.447
44720SOL    HW136057   2.310   2.506  10.468
44720SOL    HW236058   2.353   2.399  10.369
44721SOL     OW36059   7.786   2.228  12.255
44721SOL    HW136060   7.855   2.197  12.196
44721SOL    HW236061   7.736   2.150  12.277
44722SOL     OW36062  11.116   8.702   2.825
44722SOL    HW136063  11.107   8.615   2.863
44722SOL    HW236064  11.186   8.743   2.875
44723SOL     OW36065  11.452  11.330   0.054
44723SOL    HW136066  11.478  11.326   0.146
44723SOL    HW236067  11.441  11.424   0.037
44724SOL     OW36068   2.837   2.530  12.885
44724SOL    HW136069   2.865   2.501  12.798
44724SOL    HW236070   2.917   2.561  12.926
44725SOL     OW36071   7.868   6.040   6.171
44725SOL    HW136072   7.861   6.086   6.088
44725SOL    HW236073   7.870   6.110   6.237
44726SOL     OW36074  11.378  14.499   7.417
44726SOL    HW136075  11.340  14.528   7.333
44726SOL    HW236076  11.302  14.483   7.473
44727SOL     OW36077  13.088   1.098  14.822
44727SOL    HW136078  13.135   1.159  14.878
44727SOL    HW236079  13.004   1.085  14.866
44728SOL     OW36080   7.791  13.555  13.194
44728SOL    HW136081   7.846  13.628  13.223
44728SOL    HW236082   7.734  13.594  13.127
44729SOL     OW36083   5.052  13.889  10.382
44729SOL    HW136084   5.099  13.806  10.373
44729SOL    HW236085   4.961  13.868  10.359
44730SOL     OW36086   7.432   7.724  14.468
44730SOL    HW136087   7.484   7.764  14.538
44730SOL    HW236088   7.383   7.654  14.512
44731SOL     OW36089  13.928  10.567   3.391
44731SOL    HW136090  13.862  10.556   3.322
44731SOL    HW236091  14.010  10.582   3.343
44732SOL     OW36092   3.209   5.901   7.498
44732SOL    HW136093   3.247   5.942   7.421
44732SOL    HW236094   3.186   5.812   7.470
44733SOL     OW36095  11.421   7.251   8.442
44733SOL    HW136096  11.506   7.292   8.424
44733SOL    HW236097  11.435   7.199   8.521
44734SOL     OW36098  10.396  13.052  10.304
44734SOL    HW136099  10.399  13.147  10.316
44734SOL    HW236100  10.479  13.020  10.339
44735SOL     OW36101  11.588  10.429  13.426
44735SOL    HW136102  11.642  10.453  13.501
44735SOL    HW236103  11.505  10.401  13.465
44736SOL     OW36104   9.476   8.768  11.726
44736SOL    HW136105   9.521   8.795  11.806
44736SOL    HW236106   9.533   8.703  11.687
44737SOL     OW36107   3.596   8.107  11.645
44737SOL    HW136108   3.542   8.183  11.626
44737SOL    HW236109   3.620   8.072  11.559
44738SOL     OW36110   7.282   9.542  12.606
44738SOL    HW136111   7.337   9.557  12.530
44738SOL    HW236112   7.306   9.455  12.636
44739SOL     OW36113   4.988  11.240   1.833
44739SOL    HW136114   4.931  11.167   1.809
44739SOL    HW236115   4.942  11.285   1.904
44740SOL     OW36116   3.732   0.032  12.001
44740SOL    HW136117   3.815  14.880  11.972
44740SOL    HW236118   3.697   0.073  11.923
44741SOL     OW36119   6.286   4.327   6.620
44741SOL    HW136120   6.270   4.252   6.678
44741SOL    HW236121   6.351   4.380   6.667
44742SOL     OW36122   5.979   8.063   2.864
44742SOL    HW136123   6.041   8.125   2.828
44742SOL    HW236124   6.024   8.024   2.939
44743SOL     OW36125   4.949   6.708  10.178
44743SOL    HW136126   4.955   6.803  10.168
44743SOL    HW236127   4.918   6.677  10.093
44744SOL     OW36128   2.126   6.152   0.961
44744SOL    HW136129   2.183   6.163   1.037
44744SOL    HW236130   2.142   6.063   0.931
44745SOL     OW36131   2.070  10.891   2.791
44745SOL    HW136132   2.090  10.818   2.850
44745SOL    HW236133   1.995  10.860   2.739
44746SOL     OW36134   4.495   0.746  13.246
44746SOL    HW136135   4.547   0.676  13.285
44746SOL    HW236136   4.519   0.745  13.153
44747SOL     OW36137   7.740   9.600   2.020
44747SOL    HW136138   7.737   9.648   2.102
44747SOL    HW236139   7.651   9.568   2.008
44748SOL     OW36140   3.065  10.641   7.483
44748SOL    HW136141   3.053  10.729   7.518
44748SOL    HW236142   3.139  10.649   7.423
44749SOL     OW36143   2.183   8.221  13.002
44749SOL    HW136144   2.268   8.199  13.040
44749SOL    HW236145   2.119   8.193  13.068
44750SOL     OW36146  13.504   2.700  13.638
44750SOL    HW136147  13.430   2.638  13.639
44750SOL    HW236148  13.581   2.645  13.624
44751SOL     OW36149   1.862   6.855  11.757
44751SOL    HW136150   1.881   6.777  11.706
44751SOL    HW236151   1.900   6.838  11.843
44752SOL     OW36152  10.281   6.810  13.015
44752SOL    HW136153  10.348   6.777  13.074
44752SOL    HW236154  10.270   6.740  12.950
44753SOL     OW36155   6.532   5.446  10.075
44753SOL    HW136156   6.465   5.391  10.115
44753SOL    HW236157   6.560   5.505  10.145
44754SOL     OW36158  10.939   6.856  14.590
44754SOL    HW136159  10.923   6.784  14.651
44754SOL    HW236160  10.853   6.896  14.578
44755SOL     OW36161  11.071   0.684  13.910
44755SOL    HW136162  10.990   0.728  13.936
44755SOL    HW236163  11.135   0.755  13.902
44756SOL     OW36164   1.950   1.180   4.994
44756SOL    HW136165   1.904   1.165   4.911
44756SOL    HW236166   1.889   1.151   5.061
44757SOL     OW36167   1.025   7.411   6.543
44757SOL    HW136168   1.111   7.371   6.527
44757SOL    HW236169   0.982   7.352   6.605
44758SOL     OW36170   1.814   4.658   8.445
44758SOL    HW136171   1.824   4.563   8.431
44758SOL    HW236172   1.791   4.692   8.358
44759SOL     OW36173   9.793   4.306   3.432
44759SOL    HW136174   9.817   4.297   3.340
44759SOL    HW236175   9.723   4.372   3.432
44760SOL     OW36176   1.359   6.458   1.428
44760SOL    HW136177   1.449   6.426   1.426
44760SOL    HW236178   1.307   6.382   1.451
44761SOL     OW36179   5.718  13.915   4.652
44761SOL    HW136180   5.776  13.854   4.607
44761SOL    HW236181   5.671  13.862   4.716
44762SOL     OW36182   8.335   4.113   1.143
44762SOL    HW136183   8.318   4.207   1.157
44762SOL    HW236184   8.251   4.079   1.111
44763SOL     OW36185   8.406   5.591   8.159
44763SOL    HW136186   8.387   5.683   8.178
44763SOL    HW236187   8.408   5.586   8.064
44764SOL     OW36188  14.049   1.753   6.591
44764SOL    HW136189  14.003   1.711   6.663
44764SOL    HW236190  14.097   1.682   6.549
44765SOL     OW36191   5.475  12.880   9.628
44765SOL    HW136192   5.410  12.839   9.686
44765SOL    HW236193   5.516  12.807   9.582
44766SOL     OW36194   9.310   4.735   2.942
44766SOL    HW136195   9.302   4.641   2.929
44766SOL    HW236196   9.286   4.773   2.857
44767SOL     OW36197   8.833  11.124  10.018
44767SOL    HW136198   8.849  11.050   9.959
44767SOL    HW236199   8.743  11.150  10.001
44768SOL     OW36200  10.334  12.425   6.804
44768SOL    HW136201  10.283  12.355   6.845
44768SOL    HW236202  10.334  12.496   6.868
44769SOL     OW36203   2.095  13.153   6.316
44769SOL    HW136204   2.144  13.195   6.245
44769SOL    HW236205   2.163  13.115   6.372
44770SOL     OW36206  10.319   4.226   5.152
44770SOL    HW136207  10.270   4.308   5.158
44770SOL    HW236208  10.354   4.212   5.240
44771SOL     OW36209  10.484   0.359  10.001
44771SOL    HW136210  10.521   0.438   9.960
44771SOL    HW236211  10.500   0.290   9.936
44772SOL     OW36212   2.127  11.880   0.273
44772SOL    HW136213   2.167  11.966   0.286
44772SOL    HW236214   2.196  11.828   0.231
44773SOL     OW36215   6.468   1.878  13.070
44773SOL    HW136216   6.466   1.953  13.010
44773SOL    HW236217   6.428   1.806  13.021
44774SOL     OW36218   1.776  12.339   3.947
44774SOL    HW136219   1.693  12.299   3.972
44774SOL    HW236220   1.768  12.355   3.853
44775SOL     OW36221   3.367   5.481   8.618
44775SOL    HW136222   3.404   5.500   8.704
44775SOL    HW236223   3.302   5.412   8.635
44776SOL     OW36224   4.195   9.161   3.238
44776SOL    HW136225   4.119   9.173   3.295
44776SOL    HW236226   4.240   9.084   3.274
44777SOL     OW36227   6.875  12.568   1.090
44777SOL    HW136228   6.964  12.535   1.100
44777SOL    HW236229   6.824  12.521   1.157
44778SOL     OW36230  11.837   3.319  11.833
44778SOL    HW136231  11.898   3.379  11.876
44778SOL    HW236232  11.751   3.344  11.867
44779SOL     OW36233   7.142  13.115   4.933
44779SOL    HW136234   7.215  13.069   4.974
44779SOL    HW236235   7.171  13.206   4.926
44780SOL     OW36236   1.605  14.658   8.872
44780SOL    HW136237   1.692  14.696   8.860
44780SOL    HW236238   1.618  14.586   8.934
44781SOL     OW36239   7.989   8.580   8.405
44781SOL    HW136240   7.906   8.616   8.373
44781SOL    HW236241   7.964   8.527   8.481
44782SOL     OW36242  11.150   8.874  14.067
44782SOL    HW136243  11.074   8.931  14.054
44782SOL    HW236244  11.207   8.891  13.992
44783SOL     OW36245   8.482   5.925   8.382
44783SOL    HW136246   8.545   5.854   8.387
44783SOL    HW236247   8.431   5.908   8.303
44784SOL     OW36248  10.806   0.429   2.080
44784SOL    HW136249  10.818   0.521   2.056
44784SOL    HW236250  10.712   0.415   2.078
44785SOL     OW36251   4.591   1.844   8.537
44785SOL    HW136252   4.578   1.792   8.617
44785SOL    HW236253   4.503   1.873   8.513
44786SOL     OW36254   2.371   1.593  13.398
44786SOL    HW136255   2.358   1.661  13.332
44786SOL    HW236256   2.464   1.570  13.392
44787SOL     OW36257   3.608   5.628   0.882
44787SOL    HW136258   3.677   5.584   0.932
44787SOL    HW236259   3.646   5.644   0.796
44788SOL     OW36260   2.937  10.443   7.666
44788SOL    HW136261   3.006  10.488   7.715
44788SOL    HW236262   2.971  10.355   7.653
44789SOL     OW36263  10.822  11.218   5.193
44789SOL    HW136264  10.742  11.203   5.243
44789SOL    HW236265  10.844  11.310   5.211
44790SOL     OW36266   8.987   8.104   3.739
44790SOL    HW136267   8.976   8.148   3.823
44790SOL    HW236268   8.914   8.135   3.686
44791SOL     OW36269  10.456   5.042  12.946
44791SOL    HW136270  10.493   4.975  13.003
44791SOL    HW236271  10.361   5.031  12.954
44792SOL     OW36272   4.418   6.658   5.732
44792SOL    HW136273   4.412   6.563   5.729
44792SOL    HW236274   4.329   6.688   5.715
44793SOL     OW36275  13.172  14.590  11.893
44793SOL    HW136276  13.114  14.643  11.839
44793SOL    HW236277  13.117  14.561  11.966
44794SOL     OW36278   6.802  14.205   7.198
44794SOL    HW136279   6.785  14.248   7.115
44794SOL    HW236280   6.729  14.230   7.254
44795SOL     OW36281  12.755  14.728   2.568
44795SOL    HW136282  12.747  14.769   2.654
44795SOL    HW236283  12.848  14.735   2.547
44796SOL     OW36284  11.961   9.573  11.305
44796SOL    HW136285  11.940   9.528  11.387
44796SOL    HW236286  12.022   9.515  11.260
44797SOL     OW36287  14.778  14.440  12.044
44797SOL    HW136288  14.734  14.525  12.034
44797SOL    HW236289  14.725  14.379  11.992
44798SOL     OW36290  13.427   4.422   1.574
44798SOL    HW136291  13.433   4.342   1.625
44798SOL    HW236292  13.400   4.489   1.637
44799SOL     OW36293  13.969  10.458  10.729
44799SOL    HW136294  14.061  10.432  10.741
44799SOL    HW236295  13.972  10.522  10.658
44800SOL     OW36296  11.690  13.326   0.046
44800SOL    HW136297  11.667  13.277   0.125
44800SOL    HW236298  11.753  13.391   0.076
44801SOL     OW36299   4.774  10.751  11.107
44801SOL    HW136300   4.774  10.817  11.177
44801SOL    HW236301   4.852  10.772  11.055
44802SOL     OW36302   1.052   0.395   7.460
44802SOL    HW136303   1.109   0.384   7.536
44802SOL    HW236304   1.044   0.490   7.450
44803SOL     OW36305   4.714   7.172   4.424
44803SOL    HW136306   4.808   7.153   4.427
44803SOL    HW236307   4.692   7.168   4.331
44804SOL     OW36308   6.651   8.698   3.353
44804SOL    HW136309   6.560   8.694   3.324
44804SOL    HW236310   6.650   8.756   3.429
44805SOL     OW36311   5.501   9.355   3.858
44805SOL    HW136312   5.580   9.344   3.804
44805SOL    HW236313   5.516   9.298   3.933
44806SOL     OW36314  12.444   5.784   4.821
44806SOL    HW136315  12.457   5.756   4.731
44806SOL    HW236316  12.426   5.878   4.815
44807SOL     OW36317  13.040   4.920   5.372
44807SOL    HW136318  13.051   4.838   5.422
44807SOL    HW236319  13.115   4.974   5.398
44808SOL     OW36320  13.338   4.267  12.032
44808SOL    HW136321  13.426   4.230  12.038
44808SOL    HW236322  13.349   4.360  12.051
44809SOL     OW36323   0.100   8.365  12.175
44809SOL    HW136324   0.084   8.315  12.095
44809SOL    HW236325   0.194   8.352  12.193
44810SOL     OW36326   3.197  11.359   8.997
44810SOL    HW136327   3.281  11.352   9.042
44810SOL    HW236328   3.220  11.364   8.904
44811SOL     OW36329  10.516  14.175  12.833
44811SOL    HW136330  10.426  14.142  12.829
44811SOL    HW236331  10.552  14.137  12.913
44812SOL     OW36332  13.544   3.382  12.236
44812SOL    HW136333  13.603   3.415  12.168
44812SOL    HW236334  13.525   3.292  12.211
44813SOL     OW36335   6.243   1.514  13.355
44813SOL    HW136336   6.262   1.420  13.347
44813SOL    HW236337   6.295   1.542  13.431
44814SOL     OW36338   0.522  11.641   8.164
44814SOL    HW136339   0.587  11.576   8.190
44814SOL    HW236340   0.493  11.681   8.246
44815SOL     OW36341   5.419   4.658   9.430
44815SOL    HW136342   5.382   4.605   9.360
44815SOL    HW236343   5.429   4.745   9.392
44816SOL     OW36344  14.071  10.430   6.070
44816SOL    HW136345  14.075  10.362   6.138
44816SOL    HW236346  14.054  10.382   5.989
44817SOL     OW36347  14.841  14.514  10.713
44817SOL    HW136348  14.790  14.540  10.637
44817SOL    HW236349  14.841  14.592  10.769
44818SOL     OW36350   1.073   0.670   1.447
44818SOL    HW136351   1.130   0.664   1.370
44818SOL    HW236352   1.050   0.763   1.453
44819SOL     OW36353   2.658   4.805  12.206
44819SOL    HW136354   2.609   4.725  12.222
44819SOL    HW236355   2.748   4.785  12.231
44820SOL     OW36356   4.595   3.991  11.046
44820SOL    HW136357   4.627   3.952  11.128
44820SOL    HW236358   4.637   4.077  11.042
44821SOL     OW36359   2.190  14.000  14.853
44821SOL    HW136360   2.160  14.072   0.021
44821SOL    HW236361   2.271  14.033  14.814
44822SOL     OW36362   2.133   9.410   3.724
44822SOL    HW136363   2.113   9.347   3.654
44822SOL    HW236364   2.228   9.405   3.734
44823SOL     OW36365   9.161   2.858   5.679
44823SOL    HW136366   9.182   2.942   5.718
44823SOL    HW236367   9.226   2.798   5.715
44824SOL     OW36368   6.465  13.346   8.939
44824SOL    HW136369   6.489  13.281   8.872
44824SOL    HW236370   6.519  13.422   8.918
44825SOL     OW36371  11.467   8.017  10.421
44825SOL    HW136372  11.542   7.998  10.365
44825SOL    HW236373  11.446   8.109  10.402
44826SOL     OW36374   1.392   3.011   0.037
44826SOL    HW136375   1.340   2.931   0.028
44826SOL    HW236376   1.372   3.063  14.847
44827SOL     OW36377   4.637  11.676   6.454
44827SOL    HW136378   4.653  11.610   6.386
44827SOL    HW236379   4.653  11.759   6.410
44828SOL     OW36380  11.414  14.267  11.509
44828SOL    HW136381  11.436  14.262  11.416
44828SOL    HW236382  11.373  14.183  11.528
44829SOL     OW36383   7.294   2.255  13.528
44829SOL    HW136384   7.361   2.281  13.465
44829SOL    HW236385   7.324   2.291  13.611
44830SOL     OW36386   7.053   1.602   1.710
44830SOL    HW136387   6.990   1.589   1.638
44830SOL    HW236388   7.138   1.583   1.671
44831SOL     OW36389   8.940   0.500   6.213
44831SOL    HW136390   8.945   0.593   6.232
44831SOL    HW236391   8.994   0.488   6.135
44832SOL     OW36392   4.318   6.948  14.883
44832SOL    HW136393   4.247   6.884  14.873
44832SOL    HW236394   4.273   7.032   0.004
44833SOL     OW36395  10.734   7.239   9.663
44833SOL    HW136396  10.806   7.220   9.722
44833SOL    HW236397  10.772   7.230   9.575
44834SOL     OW36398  10.005   1.827   4.014
44834SOL    HW136399  10.095   1.796   4.004
44834SOL    HW236400   9.993   1.835   4.109
44835SOL     OW36401   0.368   6.085  13.001
44835SOL    HW136402   0.389   6.176  13.019
44835SOL    HW236403   0.375   6.042  13.086
44836SOL     OW36404   6.636   3.662   9.225
44836SOL    HW136405   6.677   3.583   9.261
44836SOL    HW236406   6.607   3.712   9.302
44837SOL     OW36407   5.384  14.690   5.648
44837SOL    HW136408   5.422  14.679   5.560
44837SOL    HW236409   5.309  14.747   5.634
44838SOL     OW36410   7.334   8.390  11.383
44838SOL    HW136411   7.380   8.329  11.326
44838SOL    HW236412   7.403   8.441  11.425
44839SOL     OW36413  12.231   8.297   1.198
44839SOL    HW136414  12.321   8.322   1.217
44839SOL    HW236415  12.202   8.361   1.132
44840SOL     OW36416   9.726  13.100   6.565
44840SOL    HW136417   9.803  13.094   6.508
44840SOL    HW236418   9.653  13.071   6.509
44841SOL     OW36419   0.229   5.955   0.256
44841SOL    HW136420   0.310   6.007   0.259
44841SOL    HW236421   0.170   6.007   0.201
44842SOL     OW36422   8.564   4.331  12.657
44842SOL    HW136423   8.481   4.360  12.618
44842SOL    HW236424   8.558   4.236  12.660
44843SOL     OW36425   2.995  14.850   9.834
44843SOL    HW136426   2.967   0.036   9.888
44843SOL    HW236427   2.923  14.787   9.839
44844SOL     OW36428   3.157   2.707  14.364
44844SOL    HW136429   3.136   2.616  14.386
44844SOL    HW236430   3.252   2.712  14.374
44845SOL     OW36431   7.467   2.947  13.410
44845SOL    HW136432   7.413   2.915  13.338
44845SOL    HW236433   7.452   3.041  13.412
44846SOL     OW36434  10.629  10.720  10.551
44846SOL    HW136435  10.556  10.745  10.608
44846SOL    HW236436  10.642  10.627  10.571
44847SOL     OW36437   2.623   4.508  13.315
44847SOL    HW136438   2.599   4.521  13.223
44847SOL    HW236439   2.571   4.573  13.363
44848SOL     OW36440   7.155   9.598   9.306
44848SOL    HW136441   7.181   9.637   9.390
44848SOL    HW236442   7.238   9.581   9.262
44849SOL     OW36443   6.683   7.261  12.960
44849SOL    HW136444   6.688   7.171  12.994
44849SOL    HW236445   6.775   7.290  12.957
44850SOL     OW36446  10.784   3.293   8.709
44850SOL    HW136447  10.797   3.374   8.758
44850SOL    HW236448  10.718   3.314   8.644
44851SOL     OW36449   5.891   7.710   3.453
44851SOL    HW136450   5.842   7.630   3.434
44851SOL    HW236451   5.844   7.778   3.404
44852SOL     OW36452   6.516   4.023   2.945
44852SOL    HW136453   6.529   4.003   3.037
44852SOL    HW236454   6.461   3.952   2.912
44853SOL     OW36455  11.318  13.812  14.367
44853SOL    HW136456  11.405  13.784  14.393
44853SOL    HW236457  11.317  13.906  14.383
44854SOL     OW36458  13.103  14.570   2.955
44854SOL    HW136459  13.178  14.557   2.897
44854SOL    HW236460  13.043  14.499   2.933
44855SOL     OW36461   5.974   8.240   7.909
44855SOL    HW136462   5.953   8.154   7.872
44855SOL    HW236463   6.006   8.291   7.834
44856SOL     OW36464  10.433  11.294   0.544
44856SOL    HW136465  10.414  11.206   0.511
44856SOL    HW236466  10.461  11.280   0.634
44857SOL     OW36467  13.722   8.789   1.536
44857SOL    HW136468  13.754   8.706   1.501
44857SOL    HW236469  13.735   8.852   1.464
44858SOL     OW36470  11.541   0.296  10.906
44858SOL    HW136471  11.494   0.216  10.929
44858SOL    HW236472  11.496   0.365  10.955
44859SOL     OW36473   3.613   2.010   0.404
44859SOL    HW136474   3.544   1.984   0.465
44859SOL    HW236475   3.567   2.031   0.323
44860SOL     OW36476   3.794   4.270   0.908
44860SOL    HW136477   3.866   4.313   0.953
44860SOL    HW236478   3.827   4.182   0.888
44861SOL     OW36479   5.719  11.039  12.676
44861SOL    HW136480   5.665  10.974  12.630
44861SOL    HW236481   5.809  11.009  12.659
44862SOL     OW36482  13.355   3.093   0.841
44862SOL    HW136483  13.412   3.093   0.764
44862SOL    HW236484  13.268   3.113   0.807
44863SOL     OW36485   7.054   0.476   0.290
44863SOL    HW136486   6.973   0.451   0.335
44863SOL    HW236487   7.118   0.487   0.360
44864SOL     OW36488  12.806   8.431   8.987
44864SOL    HW136489  12.829   8.475   8.905
44864SOL    HW236490  12.821   8.338   8.970
44865SOL     OW36491  13.289   1.941   5.523
44865SOL    HW136492  13.235   1.984   5.457
44865SOL    HW236493  13.373   1.926   5.481
44866SOL     OW36494  10.589   0.342   8.979
44866SOL    HW136495  10.583   0.266   9.037
44866SOL    HW236496  10.500   0.352   8.944
44867SOL     OW36497  12.884   7.883   0.033
44867SOL    HW136498  12.936   7.912   0.108
44867SOL    HW236499  12.824   7.955   0.015
44868SOL     OW36500  12.566  14.168   7.785
44868SOL    HW136501  12.516  14.228   7.840
44868SOL    HW236502  12.518  14.085   7.792
44869SOL     OW36503  10.187   2.655   9.244
44869SOL    HW136504  10.276   2.633   9.216
44869SOL    HW236505  10.185   2.633   9.337
44870SOL     OW36506   1.957   8.206   0.215
44870SOL    HW136507   2.036   8.250   0.182
44870SOL    HW236508   1.897   8.278   0.235
44871SOL     OW36509   9.778   7.994  12.576
44871SOL    HW136510   9.704   7.934  12.583
44871SOL    HW236511   9.790   8.007  12.482
44872SOL     OW36512  12.042  14.461   0.028
44872SOL    HW136513  12.122  14.463  14.864
44872SOL    HW236514  12.045  14.541   0.081
44873SOL     OW36515   2.172   7.867   6.960
44873SOL    HW136516   2.135   7.893   7.044
44873SOL    HW236517   2.103   7.886   6.896
44874SOL     OW36518   7.157   8.632  13.277
44874SOL    HW136519   7.224   8.674  13.331
44874SOL    HW236520   7.196   8.628  13.190
44875SOL     OW36521   4.822   3.435  13.439
44875SOL    HW136522   4.855   3.515  13.399
44875SOL    HW236523   4.880   3.420  13.514
44876SOL     OW36524   9.909   7.847   7.359
44876SOL    HW136525   9.929   7.767   7.407
44876SOL    HW236526   9.821   7.833   7.323
44877SOL     OW36527   8.422   2.268   3.656
44877SOL    HW136528   8.394   2.265   3.564
44877SOL    HW236529   8.346   2.238   3.705
44878SOL     OW36530  12.280   4.542   6.900
44878SOL    HW136531  12.360   4.491   6.913
44878SOL    HW236532  12.211   4.489   6.938
44879SOL     OW36533  11.518  10.990   9.691
44879SOL    HW136534  11.541  11.022   9.604
44879SOL    HW236535  11.598  11.003   9.743
44880SOL     OW36536  10.103  10.787  14.140
44880SOL    HW136537  10.142  10.845  14.074
44880SOL    HW236538  10.099  10.841  14.219
44881SOL     OW36539  14.199  14.544   8.890
44881SOL    HW136540  14.147  14.486   8.945
44881SOL    HW236541  14.243  14.486   8.827
44882SOL     OW36542   6.789   8.408   8.576
44882SOL    HW136543   6.759   8.339   8.636
44882SOL    HW236544   6.714   8.425   8.519
44883SOL     OW36545   6.391  11.986  14.787
44883SOL    HW136546   6.478  12.002  14.749
44883SOL    HW236547   6.332  12.039  14.734
44884SOL     OW36548   3.453   5.424   6.019
44884SOL    HW136549   3.503   5.348   6.050
44884SOL    HW236550   3.369   5.417   6.064
44885SOL     OW36551  12.633   2.310  11.963
44885SOL    HW136552  12.549   2.356  11.969
44885SOL    HW236553  12.662   2.324  11.873
44886SOL     OW36554  11.765   5.413   0.423
44886SOL    HW136555  11.677   5.432   0.457
44886SOL    HW236556  11.748   5.364   0.342
44887SOL     OW36557  14.883  12.590   1.591
44887SOL    HW136558  14.842  12.547   1.516
44887SOL    HW236559  14.820  12.656   1.618
44888SOL     OW36560  13.859   3.004   2.362
44888SOL    HW136561  13.944   3.048   2.353
44888SOL    HW236562  13.843   3.001   2.456
44889SOL     OW36563   1.106   1.363  13.163
44889SOL    HW136564   1.037   1.311  13.204
44889SOL    HW236565   1.177   1.301  13.148
44890SOL     OW36566   7.202  11.208   3.645
44890SOL    HW136567   7.271  11.162   3.597
44890SOL    HW236568   7.125  11.151   3.638
44891SOL     OW36569  10.531  11.378  13.619
44891SOL    HW136570  10.468  11.307  13.634
44891SOL    HW236571  10.506  11.414  13.534
44892SOL     OW36572   6.030   7.569   2.898
44892SOL    HW136573   5.962   7.509   2.865
44892SOL    HW236574   6.031   7.554   2.992
44893SOL     OW36575   1.191   1.907  12.977
44893SOL    HW136576   1.276   1.882  13.011
44893SOL    HW236577   1.146   1.824  12.962
44894SOL     OW36578   8.430  11.219   1.590
44894SOL    HW136579   8.359  11.161   1.563
44894SOL    HW236580   8.510  11.171   1.566
44895SOL     OW36581   0.340   2.228   0.999
44895SOL    HW136582   0.395   2.171   0.946
44895SOL    HW236583   0.264   2.174   1.020
44896SOL     OW36584   0.820   7.580   4.251
44896SOL    HW136585   0.848   7.521   4.180
44896SOL    HW236586   0.812   7.666   4.209
44897SOL     OW36587   9.513   1.995  13.520
44897SOL    HW136588   9.569   2.016  13.595
44897SOL    HW236589   9.463   1.918  13.547
44898SOL     OW36590  13.397   1.200   2.226
44898SOL    HW136591  13.313   1.168   2.194
44898SOL    HW236592  13.441   1.233   2.148
44899SOL     OW36593   3.365   4.819   3.295
44899SOL    HW136594   3.288   4.873   3.275
44899SOL    HW236595   3.358   4.801   3.389
44900SOL     OW36596   8.363   8.415   8.657
44900SOL    HW136597   8.394   8.505   8.668
44900SOL    HW236598   8.362   8.400   8.563
44901SOL     OW36599   6.387   8.622   6.191
44901SOL    HW136600   6.312   8.679   6.205
44901SOL    HW236601   6.459   8.663   6.239
44902SOL     OW36602   2.265  12.064   6.295
44902SOL    HW136603   2.245  12.004   6.366
44902SOL    HW236604   2.209  12.035   6.222
44903SOL     OW36605  13.416   8.505   6.808
44903SOL    HW136606  13.485   8.477   6.868
44903SOL    HW236607  13.337   8.510   6.861
44904SOL     OW36608  10.231  14.317   3.601
44904SOL    HW136609  10.224  14.336   3.695
44904SOL    HW236610  10.192  14.394   3.558
44905SOL     OW36611  13.680   5.320   5.347
44905SOL    HW136612  13.611   5.298   5.285
44905SOL    HW236613  13.652   5.280   5.430
44906SOL     OW36614  11.558   7.502   5.912
44906SOL    HW136615  11.485   7.554   5.946
44906SOL    HW236616  11.593   7.554   5.839
44907SOL     OW36617  14.229   1.636   7.582
44907SOL    HW136618  14.275   1.681   7.654
44907SOL    HW236619  14.299   1.598   7.529
44908SOL     OW36620  11.089   4.748  14.417
44908SOL    HW136621  11.155   4.768  14.351
44908SOL    HW236622  11.069   4.655  14.402
44909SOL     OW36623   1.180  10.117  13.597
44909SOL    HW136624   1.264  10.093  13.559
44909SOL    HW236625   1.196  10.122  13.691
44910SOL     OW36626  13.688  10.622   7.498
44910SOL    HW136627  13.779  10.601   7.476
44910SOL    HW236628  13.643  10.538   7.503
44911SOL     OW36629   8.070   0.074  13.142
44911SOL    HW136630   8.002   0.007  13.144
44911SOL    HW236631   8.095   0.079  13.050
44912SOL     OW36632   3.416  14.019  13.982
44912SOL    HW136633   3.475  13.978  14.046
44912SOL    HW236634   3.359  13.948  13.953
44913SOL     OW36635  14.583   8.561   2.218
44913SOL    HW136636  14.580   8.489   2.155
44913SOL    HW236637  14.576   8.640   2.164
44914SOL     OW36638  13.521   7.597  10.214
44914SOL    HW136639  13.543   7.504  10.218
44914SOL    HW236640  13.519   7.617  10.120
44915SOL     OW36641   6.823  14.054   1.197
44915SOL    HW136642   6.745  14.001   1.179
44915SOL    HW236643   6.879  13.998   1.249
44916SOL     OW36644  10.237  13.927   9.767
44916SOL    HW136645  10.167  13.915   9.831
44916SOL    HW236646  10.206  13.996   9.709
44917SOL     OW36647   6.573  14.682   8.425
44917SOL    HW136648   6.503  14.627   8.391
44917SOL    HW236649   6.623  14.709   8.347
44918SOL     OW36650   9.735   1.330   8.725
44918SOL    HW136651   9.714   1.352   8.816
44918SOL    HW236652   9.655   1.350   8.677
44919SOL     OW36653   5.795   2.966   6.503
44919SOL    HW136654   5.726   2.906   6.534
44919SOL    HW236655   5.869   2.949   6.561
44920SOL     OW36656   2.565  10.657   3.792
44920SOL    HW136657   2.571  10.562   3.795
44920SOL    HW236658   2.478  10.677   3.827
44921SOL     OW36659   1.756   0.793   2.915
44921SOL    HW136660   1.723   0.876   2.881
44921SOL    HW236661   1.851   0.806   2.922
44922SOL     OW36662   3.094   6.733  14.203
44922SOL    HW136663   3.017   6.734  14.260
44922SOL    HW236664   3.100   6.642  14.173
44923SOL     OW36665   1.543   2.820  11.552
44923SOL    HW136666   1.619   2.866  11.517
44923SOL    HW236667   1.579   2.744  11.597
44924SOL     OW36668   8.082  10.476   7.424
44924SOL    HW136669   8.085  10.485   7.329
44924SOL    HW236670   8.138  10.401   7.443
44925SOL     OW36671   1.581  12.649  13.582
44925SOL    HW136672   1.673  12.666  13.603
44925SOL    HW236673   1.580  12.642  13.486
44926SOL     OW36674   6.304   3.094   8.419
44926SOL    HW136675   6.293   3.184   8.449
44926SOL    HW236676   6.394   3.090   8.386
44927SOL     OW36677   6.422  13.352  14.779
44927SOL    HW136678   6.486  13.402  14.729
44927SOL    HW236679   6.462  13.339  14.865
44928SOL     OW36680   3.106   5.130  11.507
44928SOL    HW136681   3.040   5.100  11.570
44928SOL    HW236682   3.176   5.166  11.561
44929SOL     OW36683   7.627   3.626   0.845
44929SOL    HW136684   7.703   3.571   0.860
44929SOL    HW236685   7.616   3.625   0.750
44930SOL     OW36686   0.827  10.713  13.568
44930SOL    HW136687   0.879  10.699  13.647
44930SOL    HW236688   0.834  10.807  13.551
44931SOL     OW36689   4.884   2.785  10.050
44931SOL    HW136690   4.828   2.742  10.115
44931SOL    HW236691   4.839   2.771   9.967
44932SOL     OW36692   7.967   3.464  10.204
44932SOL    HW136693   7.980   3.371  10.221
44932SOL    HW236694   7.912   3.495  10.276
44933SOL     OW36695   0.343   8.552  14.484
44933SOL    HW136696   0.371   8.637  14.450
44933SOL    HW236697   0.351   8.493  14.409
44934SOL     OW36698  14.859   6.934   9.466
44934SOL    HW136699  14.877   6.880   9.543
44934SOL    HW236700   0.058   6.960   9.434
44935SOL     OW36701   3.598  13.130   1.662
44935SOL    HW136702   3.630  13.051   1.617
44935SOL    HW236703   3.591  13.104   1.753
44936SOL     OW36704  13.308  11.070  13.367
44936SOL    HW136705  13.276  11.159  13.383
44936SOL    HW236706  13.400  11.082  13.344
44937SOL     OW36707   7.955  12.271   3.341
44937SOL    HW136708   7.864  12.244   3.356
44937SOL    HW236709   7.976  12.241   3.253
44938SOL     OW36710   2.625   6.131  10.332
44938SOL    HW136711   2.660   6.170  10.412
44938SOL    HW236712   2.534   6.110  10.354
44939SOL     OW36713   7.535   8.021   2.392
44939SOL    HW136714   7.580   7.938   2.410
44939SOL    HW236715   7.444   8.006   2.417
44940SOL     OW36716   7.205   8.209   9.127
44940SOL    HW136717   7.295   8.227   9.098
44940SOL    HW236718   7.192   8.117   9.107
44941SOL     OW36719   7.851   5.243   8.000
44941SOL    HW136720   7.879   5.189   7.926
44941SOL    HW236721   7.931   5.260   8.049
44942SOL     OW36722   4.184   0.417  13.918
44942SOL    HW136723   4.137   0.466  13.851
44942SOL    HW236724   4.257   0.474  13.942
44943SOL     OW36725   7.186  11.541  11.642
44943SOL    HW136726   7.095  11.524  11.618
44943SOL    HW236727   7.226  11.576  11.562
44944SOL     OW36728  10.711   0.776   1.628
44944SOL    HW136729  10.656   0.717   1.680
44944SOL    HW236730  10.768   0.718   1.578
44945SOL     OW36731   0.875   6.324  12.505
44945SOL    HW136732   0.862   6.325  12.600
44945SOL    HW236733   0.896   6.414  12.482
44946SOL     OW36734  14.035   0.897   4.185
44946SOL    HW136735  14.109   0.857   4.231
44946SOL    HW236736  13.957   0.863   4.230
44947SOL     OW36737  10.032   2.129   7.481
44947SOL    HW136738  10.085   2.076   7.421
44947SOL    HW236739  10.092   2.149   7.554
44948SOL     OW36740   6.376  12.134  11.942
44948SOL    HW136741   6.440  12.171  12.002
44948SOL    HW236742   6.362  12.045  11.974
44949SOL     OW36743  14.346   6.543  12.619
44949SOL    HW136744  14.300   6.527  12.701
44949SOL    HW236745  14.320   6.471  12.562
44950SOL     OW36746  11.404   8.839   1.153
44950SOL    HW136747  11.344   8.857   1.081
44950SOL    HW236748  11.481   8.892   1.133
44951SOL     OW36749   7.699   6.978  14.018
44951SOL    HW136750   7.760   6.911  14.048
44951SOL    HW236751   7.752   7.058  14.014
44952SOL     OW36752   8.632  11.793  11.670
44952SOL    HW136753   8.684  11.853  11.616
44952SOL    HW236754   8.542  11.812  11.646
44953SOL     OW36755   4.324   9.955   8.699
44953SOL    HW136756   4.326   9.888   8.768
44953SOL    HW236757   4.334  10.038   8.745
44954SOL     OW36758  11.301   9.881  13.277
44954SOL    HW136759  11.381   9.832  13.261
44954SOL    HW236760  11.331   9.961  13.320
44955SOL     OW36761  13.800   2.062   9.346
44955SOL    HW136762  13.835   2.134   9.293
44955SOL    HW236763  13.709   2.086   9.362
44956SOL     OW36764   0.731   1.671  14.751
44956SOL    HW136765   0.755   1.587  14.713
44956SOL    HW236766   0.729   1.732  14.676
44957SOL     OW36767   2.117   8.366  12.004
44957SOL    HW136768   2.160   8.450  11.992
44957SOL    HW236769   2.024   8.387  12.010
44958SOL     OW36770  11.517  10.075   4.081
44958SOL    HW136771  11.429  10.049   4.110
44958SOL    HW236772  11.534  10.020   4.004
44959SOL     OW36773   9.968  11.386  11.520
44959SOL    HW136774   9.940  11.303  11.480
44959SOL    HW236775  10.062  11.374  11.535
44960SOL     OW36776  13.207   8.069   7.637
44960SOL    HW136777  13.277   8.018   7.677
44960SOL    HW236778  13.135   8.065   7.700
44961SOL     OW36779   8.332   7.446   2.850
44961SOL    HW136780   8.303   7.534   2.874
44961SOL    HW236781   8.251   7.394   2.847
44962SOL     OW36782   8.638  12.712   3.700
44962SOL    HW136783   8.557  12.763   3.695
44962SOL    HW236784   8.670  12.709   3.610
44963SOL     OW36785   8.756   3.840   6.635
44963SOL    HW136786   8.706   3.919   6.615
44963SOL    HW236787   8.696   3.786   6.687
44964SOL     OW36788   4.901  12.054   5.749
44964SOL    HW136789   4.939  11.967   5.764
44964SOL    HW236790   4.887  12.089   5.837
44965SOL     OW36791   4.458   8.877  10.210
44965SOL    HW136792   4.505   8.795  10.226
44965SOL    HW236793   4.429   8.906  10.297
44966SOL     OW36794   2.354   6.757   4.385
44966SOL    HW136795   2.392   6.671   4.406
44966SOL    HW236796   2.383   6.814   4.457
44967SOL     OW36797  14.411   3.894   8.878
44967SOL    HW136798  14.493   3.847   8.868
44967SOL    HW236799  14.433   3.970   8.933
44968SOL     OW36800   4.527   0.168   3.345
44968SOL    HW136801   4.505   0.220   3.268
44968SOL    HW236802   4.511   0.077   3.319
44969SOL     OW36803   2.583   0.693   1.076
44969SOL    HW136804   2.566   0.781   1.110
44969SOL    HW236805   2.602   0.641   1.154
44970SOL     OW36806  10.341   3.981   9.836
44970SOL    HW136807  10.398   3.913   9.800
44970SOL    HW236808  10.381   4.063   9.807
44971SOL     OW36809   4.647   9.978   4.015
44971SOL    HW136810   4.588   9.960   4.089
44971SOL    HW236811   4.664   9.892   3.977
44972SOL     OW36812   7.362   0.899   2.161
44972SOL    HW136813   7.372   0.804   2.168
44972SOL    HW236814   7.438   0.935   2.207
44973SOL     OW36815  13.798   7.680   8.105
44973SOL    HW136816  13.708   7.707   8.087
44973SOL    HW236817  13.793   7.633   8.188
44974SOL     OW36818  11.676   9.872   2.626
44974SOL    HW136819  11.743   9.935   2.651
44974SOL    HW236820  11.625   9.858   2.705
44975SOL     OW36821   8.352  14.371  10.756
44975SOL    HW136822   8.435  14.349  10.798
44975SOL    HW236823   8.377  14.395  10.667
44976SOL     OW36824   1.726  11.598   7.901
44976SOL    HW136825   1.646  11.578   7.949
44976SOL    HW236826   1.697  11.648   7.825
44977SOL     OW36827   9.449   3.175  10.556
44977SOL    HW136828   9.498   3.226  10.491
44977SOL    HW236829   9.368   3.224  10.569
44978SOL     OW36830   0.460   5.976  13.255
44978SOL    HW136831   0.382   6.011  13.298
44978SOL    HW236832   0.532   5.999  13.314
44979SOL     OW36833   3.108   1.062   1.122
44979SOL    HW136834   3.127   1.030   1.034
44979SOL    HW236835   3.038   1.006   1.154
44980SOL     OW36836   4.700   4.354  14.473
44980SOL    HW136837   4.737   4.441  14.486
44980SOL    HW236838   4.719   4.332  14.382
44981SOL     OW36839   5.570   3.404  12.932
44981SOL    HW136840   5.614   3.473  12.981
44981SOL    HW236841   5.589   3.324  12.981
44982SOL     OW36842   4.208  12.010   8.632
44982SOL    HW136843   4.246  11.974   8.712
44982SOL    HW236844   4.226  12.104   8.637
44983SOL     OW36845   8.291   5.423  13.075
44983SOL    HW136846   8.199   5.446  13.058
44983SOL    HW236847   8.340   5.501  13.048
44984SOL     OW36848  10.563  10.577   0.856
44984SOL    HW136849  10.481  10.625   0.848
44984SOL    HW236850  10.627  10.643   0.881
44985SOL     OW36851   3.880   5.940  13.514
44985SOL    HW136852   3.934   5.907  13.585
44985SOL    HW236853   3.942   5.978  13.451
44986SOL     OW36854   2.813   6.076   2.595
44986SOL    HW136855   2.826   6.011   2.664
44986SOL    HW236856   2.720   6.067   2.571
44987SOL     OW36857  14.407   8.299   5.773
44987SOL    HW136858  14.405   8.384   5.815
44987SOL    HW236859  14.441   8.316   5.685
44988SOL     OW36860   2.469   8.435  12.865
44988SOL    HW136861   2.398   8.479  12.819
44988SOL    HW236862   2.516   8.386  12.798
44989SOL     OW36863   7.617  12.705  14.315
44989SOL    HW136864   7.558  12.667  14.250
44989SOL    HW236865   7.680  12.636  14.334
44990SOL     OW36866   2.246   4.621  13.440
44990SOL    HW136867   2.206   4.688  13.496
44990SOL    HW236868   2.254   4.544  13.496
44991SOL     OW36869  10.739  14.678  14.383
44991SOL    HW136870  10.785  14.761  14.395
44991SOL    HW236871  10.770  14.646  14.298
44992SOL     OW36872  14.660   5.643  10.348
44992SOL    HW136873  14.573   5.625  10.313
44992SOL    HW236874  14.685   5.728  10.309
44993SOL     OW36875   9.654   2.932   4.408
44993SOL    HW136876   9.706   2.877   4.349
44993SOL    HW236877   9.632   3.009   4.355
44994SOL     OW36878   0.362  12.406  11.222
44994SOL    HW136879   0.457  12.401  11.234
44994SOL    HW236880   0.327  12.402  11.311
44995SOL     OW36881  10.662  12.954  14.069
44995SOL    HW136882  10.717  12.915  14.001
44995SOL    HW236883  10.599  12.885  14.091
44996SOL     OW36884  11.618  13.280  10.208
44996SOL    HW136885  11.630  13.221  10.283
44996SOL    HW236886  11.705  13.286  10.169
44997SOL     OW36887   1.842  11.672  12.092
44997SOL    HW136888   1.883  11.746  12.046
44997SOL    HW236889   1.778  11.638  12.029
44998SOL     OW36890   4.608   9.188   3.735
44998SOL    HW136891   4.574   9.099   3.736
44998SOL    HW236892   4.692   9.182   3.782
44999SOL     OW36893   0.461  11.260   8.654
44999SOL    HW136894   0.487  11.175   8.619
44999SOL    HW236895   0.541  11.297   8.692
45000SOL     OW36896   7.203  14.511   4.062
45000SOL    HW136897   7.262  14.502   3.987
45000SOL    HW236898   7.117  14.490   4.027
45001SOL     OW36899   0.772   7.654   3.162
45001SOL    HW136900   0.719   7.712   3.218
45001SOL    HW236901   0.861   7.689   3.168
45002SOL     OW36902   3.699   4.042   7.447
45002SOL    HW136903   3.707   4.134   7.472
45002SOL    HW236904   3.790   4.011   7.444
45003SOL     OW36905   9.064   6.040   1.186
45003SOL    HW136906   9.009   6.115   1.207
45003SOL    HW236907   9.060   6.033   1.090
45004SOL     OW36908  10.703  10.672   8.330
45004SOL    HW136909  10.709  10.589   8.376
45004SOL    HW236910  10.738  10.737   8.391
45005SOL     OW36911   5.939   9.858   7.978
45005SOL    HW136912   6.017   9.899   7.942
45005SOL    HW236913   5.972   9.792   8.039
45006SOL     OW36914   2.895   7.416  12.757
45006SOL    HW136915   2.872   7.342  12.701
45006SOL    HW236916   2.848   7.491  12.719
45007SOL     OW36917   4.507  13.413   5.603
45007SOL    HW136918   4.594  13.417   5.643
45007SOL    HW236919   4.447  13.440   5.673
45008SOL     OW36920   6.423   7.672   6.680
45008SOL    HW136921   6.489   7.692   6.747
45008SOL    HW236922   6.389   7.758   6.654
45009SOL     OW36923   6.652   6.537  13.589
45009SOL    HW136924   6.621   6.611  13.640
45009SOL    HW236925   6.740   6.520  13.623
45010SOL     OW36926   0.798  10.532   7.797
45010SOL    HW136927   0.780  10.601   7.733
45010SOL    HW236928   0.753  10.455   7.762
45011SOL     OW36929  11.454   9.479   9.402
45011SOL    HW136930  11.436   9.562   9.447
45011SOL    HW236931  11.432   9.497   9.310
45012SOL     OW36932   0.649   4.247  10.072
45012SOL    HW136933   0.576   4.188  10.094
45012SOL    HW236934   0.727   4.199  10.098
45013SOL     OW36935   4.110  11.575   7.037
45013SOL    HW136936   4.064  11.500   7.074
45013SOL    HW236937   4.084  11.577   6.945
45014SOL     OW36938   5.651   7.807   4.947
45014SOL    HW136939   5.569   7.855   4.936
45014SOL    HW236940   5.698   7.855   5.014
45015SOL     OW36941   9.171   9.390  14.000
45015SOL    HW136942   9.088   9.432  14.023
45015SOL    HW236943   9.150   9.296  13.998
45016SOL     OW36944  11.771   9.676   1.842
45016SOL    HW136945  11.816   9.702   1.922
45016SOL    HW236946  11.682   9.709   1.852
45017SOL     OW36947   6.630   9.628   4.494
45017SOL    HW136948   6.725   9.632   4.504
45017SOL    HW236949   6.613   9.655   4.404
45018SOL     OW36950   8.058   5.870   2.324
45018SOL    HW136951   7.995   5.934   2.291
45018SOL    HW236952   8.042   5.867   2.418
45019SOL     OW36953   0.123  14.448   0.340
45019SOL    HW136954   0.069  14.495   0.278
45019SOL    HW236955   0.155  14.372   0.291
45020SOL     OW36956   3.047  12.142   5.739
45020SOL    HW136957   3.000  12.075   5.690
45020SOL    HW236958   3.074  12.098   5.820
45021SOL     OW36959   4.324   6.044  12.145
45021SOL    HW136960   4.254   5.979  12.136
45021SOL    HW236961   4.328   6.061  12.239
45022SOL     OW36962   6.849  11.889   7.214
45022SOL    HW136963   6.925  11.920   7.262
45022SOL    HW236964   6.844  11.946   7.137
45023SOL     OW36965   6.215   4.665   6.954
45023SOL    HW136966   6.270   4.709   7.018
45023SOL    HW236967   6.135   4.644   7.003
45024SOL     OW36968  13.656   7.585   4.486
45024SOL    HW136969  13.678   7.492   4.477
45024SOL    HW236970  13.582   7.586   4.547
45025SOL     OW36971   5.476  13.409  12.986
45025SOL    HW136972   5.435  13.359  13.057
45025SOL    HW236973   5.404  13.454  12.943
45026SOL     OW36974   0.602  14.664   2.621
45026SOL    HW136975   0.672  14.605   2.592
45026SOL    HW236976   0.637  14.703   2.702
45027SOL     OW36977  14.350   7.612  13.178
45027SOL    HW136978  14.357   7.646  13.267
45027SOL    HW236979  14.260   7.583  13.170
45028SOL     OW36980   7.651   3.752   7.430
45028SOL    HW136981   7.697   3.670   7.445
45028SOL    HW236982   7.716   3.808   7.388
45029SOL     OW36983   9.689   9.145   5.759
45029SOL    HW136984   9.759   9.211   5.759
45029SOL    HW236985   9.609   9.195   5.769
45030SOL     OW36986   5.310   2.309  10.638
45030SOL    HW136987   5.280   2.400  10.632
45030SOL    HW236988   5.230   2.257  10.645
45031SOL     OW36989   2.125   7.845   2.710
45031SOL    HW136990   2.151   7.937   2.714
45031SOL    HW236991   2.051   7.843   2.649
45032SOL     OW36992   5.398   0.463   5.000
45032SOL    HW136993   5.479   0.412   4.997
45032SOL    HW236994   5.414   0.529   5.068
45033SOL     OW36995   6.589   4.993  11.794
45033SOL    HW136996   6.605   4.912  11.842
45033SOL    HW236997   6.495   4.992  11.775
45034SOL     OW36998   0.291   7.841   2.625
45034SOL    HW136999   0.372   7.810   2.666
45034SOL    HW237000   0.309   7.841   2.531
45035SOL     OW37001   8.416  11.413  11.369
45035SOL    HW137002   8.507  11.402  11.395
45035SOL    HW237003   8.385  11.487  11.422
45036SOL     OW37004   3.542   5.550   3.058
45036SOL    HW137005   3.482   5.547   2.984
45036SOL    HW237006   3.578   5.639   3.056
45037SOL     OW37007  13.416   2.086   8.489
45037SOL    HW137008  13.351   2.090   8.559
45037SOL    HW237009  13.496   2.120   8.528
45038SOL     OW37010   6.888   9.759   4.036
45038SOL    HW137011   6.823   9.814   4.080
45038SOL    HW237012   6.958   9.820   4.012
45039SOL     OW37013   2.944   7.779   1.104
45039SOL    HW137014   2.887   7.795   1.029
45039SOL    HW237015   2.913   7.839   1.172
45040SOL     OW37016   2.552  13.074   7.474
45040SOL    HW137017   2.493  13.149   7.477
45040SOL    HW237018   2.606  13.089   7.396
45041SOL     OW37019  10.972   5.548   2.967
45041SOL    HW137020  10.983   5.492   2.890
45041SOL    HW237021  10.960   5.636   2.931
45042SOL     OW37022  12.905   0.692   6.758
45042SOL    HW137023  12.863   0.724   6.679
45042SOL    HW237024  12.982   0.644   6.727
45043SOL     OW37025   9.636   3.713  10.010
45043SOL    HW137026   9.697   3.670  10.070
45043SOL    HW237027   9.692   3.746   9.939
45044SOL     OW37028  10.726   0.387  12.424
45044SOL    HW137029  10.753   0.368  12.513
45044SOL    HW237030  10.659   0.322  12.404
45045SOL     OW37031   9.482   1.420   4.558
45045SOL    HW137032   9.426   1.346   4.536
45045SOL    HW237033   9.516   1.450   4.473
45046SOL     OW37034  10.954   2.060  14.177
45046SOL    HW137035  10.996   2.051  14.091
45046SOL    HW237036  10.870   2.100  14.159
45047SOL     OW37037   4.897   0.855   0.380
45047SOL    HW137038   4.987   0.829   0.396
45047SOL    HW237039   4.855   0.852   0.466
45048SOL     OW37040   3.611  12.509   4.318
45048SOL    HW137041   3.562  12.547   4.391
45048SOL    HW237042   3.646  12.585   4.271
45049SOL     OW37043  14.659   2.462   4.217
45049SOL    HW137044  14.563   2.462   4.211
45049SOL    HW237045  14.681   2.373   4.245
45050SOL     OW37046  10.574  10.156  14.495
45050SOL    HW137047  10.549  10.154  14.587
45050SOL    HW237048  10.492  10.142  14.448
45051SOL     OW37049   4.898   1.750   5.309
45051SOL    HW137050   4.841   1.824   5.286
45051SOL    HW237051   4.984   1.775   5.276
45052SOL     OW37052   5.123  13.348   3.403
45052SOL    HW137053   5.166  13.395   3.332
45052SOL    HW237054   5.031  13.372   3.396
45053SOL     OW37055   2.048   1.007   7.550
45053SOL    HW137056   2.080   1.059   7.476
45053SOL    HW237057   2.004   1.071   7.606
45054SOL     OW37058   8.207  13.546   5.068
45054SOL    HW137059   8.112  13.536   5.071
45054SOL    HW237060   8.223  13.639   5.083
45055SOL     OW37061   5.994   0.584   6.868
45055SOL    HW137062   5.997   0.679   6.856
45055SOL    HW237063   6.061   0.567   6.935
45056SOL     OW37064   8.291  10.436  12.049
45056SOL    HW137065   8.373  10.391  12.072
45056SOL    HW237066   8.280  10.421  11.955
45057SOL     OW37067   7.727   2.357  12.004
45057SOL    HW137068   7.752   2.343  12.095
45057SOL    HW237069   7.755   2.277  11.959
45058SOL     OW37070   1.190   4.870   1.864
45058SOL    HW137071   1.267   4.818   1.889
45058SOL    HW237072   1.134   4.870   1.941
45059SOL     OW37073   2.425   1.244   1.982
45059SOL    HW137074   2.506   1.271   1.938
45059SOL    HW237075   2.403   1.319   2.038
45060SOL     OW37076   0.269  10.025  13.069
45060SOL    HW137077   0.190   9.976  13.046
45060SOL    HW237078   0.254  10.113  13.035
45061SOL     OW37079   8.015   9.475   2.142
45061SOL    HW137080   7.943   9.523   2.099
45061SOL    HW237081   8.079   9.460   2.072
45062SOL     OW37082   3.236   4.660   3.766
45062SOL    HW137083   3.259   4.748   3.798
45062SOL    HW237084   3.155   4.673   3.716
45063SOL     OW37085   0.366  14.436  11.611
45063SOL    HW137086   0.335  14.520  11.579
45063SOL    HW237087   0.299  14.407  11.672
45064SOL     OW37088   9.581   8.286   4.016
45064SOL    HW137089   9.505   8.238   3.983
45064SOL    HW237090   9.545   8.368   4.050
45065SOL     OW37091  14.778   0.332   7.146
45065SOL    HW137092  14.731   0.397   7.093
45065SOL    HW237093  14.856   0.312   7.094
45066SOL     OW37094   1.599   6.062   9.189
45066SOL    HW137095   1.543   6.075   9.112
45066SOL    HW237096   1.575   5.976   9.222
45067SOL     OW37097   0.012  10.773   5.483
45067SOL    HW137098   0.097  10.767   5.439
45067SOL    HW237099   0.007  10.863   5.515
45068SOL     OW37100   9.110   9.134  14.018
45068SOL    HW137101   9.183   9.086  13.979
45068SOL    HW237102   9.041   9.130  13.951
45069SOL     OW37103  10.075   7.339   2.660
45069SOL    HW137104  10.016   7.405   2.624
45069SOL    HW237105  10.121   7.385   2.731
45070SOL     OW37106  11.467   2.836  10.642
45070SOL    HW137107  11.563   2.836  10.643
45070SOL    HW237108  11.442   2.911  10.695
45071SOL     OW37109   7.432   4.177   6.943
45071SOL    HW137110   7.373   4.102   6.948
45071SOL    HW237111   7.511   4.144   6.901
45072SOL     OW37112   2.527   7.911   6.607
45072SOL    HW137113   2.471   7.845   6.647
45072SOL    HW237114   2.576   7.949   6.679
45073SOL     OW37115   0.814   4.817  13.061
45073SOL    HW137116   0.793   4.893  13.008
45073SOL    HW237117   0.733   4.797  13.108
45074SOL     OW37118   6.464   1.908   1.051
45074SOL    HW137119   6.470   1.936   1.143
45074SOL    HW237120   6.548   1.868   1.032
45075SOL     OW37121   5.123   4.536  13.578
45075SOL    HW137122   5.074   4.454  13.576
45075SOL    HW237123   5.105   4.573  13.664
45076SOL     OW37124  10.793   5.084  11.661
45076SOL    HW137125  10.881   5.117  11.682
45076SOL    HW237126  10.737   5.162  11.666
45077SOL     OW37127   1.363  13.009  14.671
45077SOL    HW137128   1.388  12.947  14.602
45077SOL    HW237129   1.308  13.073  14.626
45078SOL     OW37130   8.755  10.675   1.839
45078SOL    HW137131   8.697  10.686   1.914
45078SOL    HW237132   8.724  10.740   1.775
45079SOL     OW37133   3.663  10.899  14.877
45079SOL    HW137134   3.614  10.869   0.066
45079SOL    HW237135   3.624  10.852  14.803
45080SOL     OW37136   2.183  13.934  13.079
45080SOL    HW137137   2.248  13.922  13.010
45080SOL    HW237138   2.164  14.028  13.079
45081SOL     OW37139   2.451   1.853  11.906
45081SOL    HW137140   2.528   1.875  11.957
45081SOL    HW237141   2.377   1.877  11.961
45082SOL     OW37142   0.668  10.048   3.289
45082SOL    HW137143   0.710  10.125   3.328
45082SOL    HW237144   0.733  10.014   3.227
45083SOL     OW37145   5.170  14.657   0.502
45083SOL    HW137146   5.199  14.598   0.432
45083SOL    HW237147   5.097  14.705   0.465
45084SOL     OW37148   8.937   0.985  13.141
45084SOL    HW137149   8.863   0.978  13.202
45084SOL    HW237150   8.930   0.908  13.085
45085SOL     OW37151   7.037   2.245  10.454
45085SOL    HW137152   7.035   2.274  10.545
45085SOL    HW237153   7.129   2.251  10.428
45086SOL     OW37154  11.492   1.166  11.527
45086SOL    HW137155  11.521   1.214  11.450
45086SOL    HW237156  11.400   1.147  11.510
45087SOL     OW37157   9.252   0.168  10.554
45087SOL    HW137158   9.251   0.227  10.478
45087SOL    HW237159   9.338   0.128  10.553
45088SOL     OW37160   9.631   9.771   7.822
45088SOL    HW137161   9.570   9.703   7.848
45088SOL    HW237162   9.715   9.742   7.857
45089SOL     OW37163   8.508  14.162   9.427
45089SOL    HW137164   8.480  14.071   9.434
45089SOL    HW237165   8.593  14.157   9.383
45090SOL     OW37166   1.685  13.273   6.476
45090SOL    HW137167   1.628  13.349   6.461
45090SOL    HW237168   1.737  13.296   6.553
45091SOL     OW37169   6.059   2.628   4.023
45091SOL    HW137170   6.105   2.670   4.096
45091SOL    HW237171   6.068   2.690   3.950
45092SOL     OW37172  13.192   2.760  13.866
45092SOL    HW137173  13.287   2.761  13.869
45092SOL    HW237174  13.166   2.852  13.861
45093SOL     OW37175  14.844   6.871  10.657
45093SOL    HW137176   0.020   6.833  10.596
45093SOL    HW237177  14.759   6.853  10.616
45094SOL     OW37178   5.886   4.366  11.702
45094SOL    HW137179   5.871   4.459  11.687
45094SOL    HW237180   5.902   4.330  11.614
45095SOL     OW37181   4.718   6.421   5.913
45095SOL    HW137182   4.734   6.509   5.880
45095SOL    HW237183   4.629   6.424   5.949
45096SOL     OW37184   2.401  12.936   8.279
45096SOL    HW137185   2.398  12.846   8.313
45096SOL    HW237186   2.359  12.930   8.193
45097SOL     OW37187   5.760   9.202  13.003
45097SOL    HW137188   5.828   9.254  12.960
45097SOL    HW237189   5.799   9.178  13.087
45098SOL     OW37190  13.067   8.438   3.162
45098SOL    HW137191  13.056   8.450   3.068
45098SOL    HW237192  13.151   8.479   3.182
45099SOL     OW37193  10.921  11.946  12.602
45099SOL    HW137194  10.995  11.898  12.639
45099SOL    HW237195  10.929  12.034  12.640
45100SOL     OW37196   2.456  11.311   3.070
45100SOL    HW137197   2.513  11.387   3.059
45100SOL    HW237198   2.393  11.337   3.137
45101SOL     OW37199   5.004  12.463   1.111
45101SOL    HW137200   5.055  12.544   1.107
45101SOL    HW237201   5.024  12.419   1.028
45102SOL     OW37202  10.653  10.112   7.166
45102SOL    HW137203  10.690  10.175   7.228
45102SOL    HW237204  10.729  10.061   7.137
45103SOL     OW37205   0.678  12.666  12.558
45103SOL    HW137206   0.694  12.595  12.620
45103SOL    HW237207   0.585  12.686  12.567
45104SOL     OW37208   4.000  14.344   2.613
45104SOL    HW137209   4.001  14.305   2.525
45104SOL    HW237210   4.004  14.269   2.672
45105SOL     OW37211   0.929  13.696   8.791
45105SOL    HW137212   0.863  13.721   8.856
45105SOL    HW237213   0.896  13.614   8.754
45106SOL     OW37214   6.085   4.796  10.349
45106SOL    HW137215   6.015   4.744  10.388
45106SOL    HW237216   6.072   4.787  10.254
45107SOL     OW37217   4.775   7.779   2.874
45107SOL    HW137218   4.808   7.855   2.921
45107SOL    HW237219   4.680   7.793   2.870
45108SOL     OW37220  11.135  11.522   4.215
45108SOL    HW137221  11.114  11.599   4.162
45108SOL    HW237222  11.121  11.448   4.157
45109SOL     OW37223   4.673   5.626   9.666
45109SOL    HW137224   4.607   5.668   9.722
45109SOL    HW237225   4.658   5.663   9.579
45110SOL     OW37226  11.572   7.782  11.413
45110SOL    HW137227  11.556   7.688  11.416
45110SOL    HW237228  11.656   7.793  11.456
45111SOL     OW37229   3.633   6.593   6.797
45111SOL    HW137230   3.587   6.519   6.758
45111SOL    HW237231   3.642   6.571   6.890
45112SOL     OW37232  12.313   8.727   8.076
45112SOL    HW137233  12.240   8.678   8.038
45112SOL    HW237234  12.285   8.744   8.166
45113SOL     OW37235   4.904   3.061  10.114
45113SOL    HW137236   4.934   3.051  10.205
45113SOL    HW237237   4.876   2.973  10.089
45114SOL     OW37238  10.593   9.753   8.606
45114SOL    HW137239  10.558   9.665   8.618
45114SOL    HW237240  10.606   9.762   8.512
45115SOL     OW37241   7.708   0.349   4.366
45115SOL    HW137242   7.728   0.324   4.456
45115SOL    HW237243   7.791   0.380   4.331
45116SOL     OW37244   3.838   9.800   0.228
45116SOL    HW137245   3.857   9.793   0.134
45116SOL    HW237246   3.921   9.778   0.271
45117SOL     OW37247  10.580   0.106  12.610
45117SOL    HW137248  10.513   0.073  12.550
45117SOL    HW237249  10.663   0.076  12.572
45118SOL     OW37250   0.106  12.009   0.305
45118SOL    HW137251   0.153  11.996   0.223
45118SOL    HW237252   0.016  12.030   0.278
45119SOL     OW37253   9.961   9.425  10.829
45119SOL    HW137254  10.037   9.368  10.840
45119SOL    HW237255   9.924   9.433  10.917
45120SOL     OW37256   7.996  11.967   5.514
45120SOL    HW137257   7.970  12.038   5.455
45120SOL    HW237258   7.961  11.888   5.473
45121SOL     OW37259   0.433  12.805   7.376
45121SOL    HW137260   0.361  12.752   7.411
45121SOL    HW237261   0.391  12.857   7.307
45122SOL     OW37262   7.703   6.360   0.684
45122SOL    HW137263   7.737   6.312   0.759
45122SOL    HW237264   7.720   6.304   0.609
45123SOL     OW37265   3.727   8.910   8.717
45123SOL    HW137266   3.698   9.001   8.708
45123SOL    HW237267   3.735   8.897   8.812
45124SOL     OW37268   7.834   4.151   2.193
45124SOL    HW137269   7.921   4.137   2.155
45124SOL    HW237270   7.812   4.067   2.233
45125SOL     OW37271   1.857   9.546   5.365
45125SOL    HW137272   1.808   9.541   5.447
45125SOL    HW237273   1.798   9.510   5.299
45126SOL     OW37274   9.466  13.027  13.760
45126SOL    HW137275   9.466  13.122  13.766
45126SOL    HW237276   9.488  13.008  13.669
45127SOL     OW37277   4.740   7.433   4.557
45127SOL    HW137278   4.771   7.512   4.514
45127SOL    HW237279   4.718   7.373   4.485
45128SOL     OW37280   2.645   9.216   0.473
45128SOL    HW137281   2.562   9.231   0.426
45128SOL    HW237282   2.713   9.232   0.407
45129SOL     OW37283   1.559   4.553  12.599
45129SOL    HW137284   1.524   4.548  12.510
45129SOL    HW237285   1.642   4.506  12.594
45130SOL     OW37286   1.605   0.487  13.801
45130SOL    HW137287   1.595   0.577  13.832
45130SOL    HW237288   1.582   0.490  13.708
45131SOL     OW37289  11.056  10.514  14.867
45131SOL    HW137290  11.055  10.577   0.051
45131SOL    HW237291  11.081  10.431   0.022
45132SOL     OW37292  12.408   2.535   5.023
45132SOL    HW137293  12.392   2.489   5.105
45132SOL    HW237294  12.476   2.599   5.044
45133SOL     OW37295   1.373   5.427  14.744
45133SOL    HW137296   1.421   5.354  14.783
45133SOL    HW237297   1.397   5.426  14.652
45134SOL     OW37298  11.937   6.250   2.527
45134SOL    HW137299  11.893   6.303   2.594
45134SOL    HW237300  12.004   6.309   2.491
45135SOL     OW37301   8.715   2.426   6.561
45135SOL    HW137302   8.770   2.445   6.637
45135SOL    HW237303   8.631   2.466   6.580
45136SOL     OW37304  13.901   8.231   4.807
45136SOL    HW137305  13.820   8.281   4.795
45136SOL    HW237306  13.958   8.290   4.855
45137SOL     OW37307   9.282  13.582   3.569
45137SOL    HW137308   9.253  13.493   3.588
45137SOL    HW237309   9.370  13.586   3.606
45138SOL     OW37310  13.727   2.085   0.283
45138SOL    HW137311  13.780   2.102   0.361
45138SOL    HW237312  13.657   2.028   0.313
45139SOL     OW37313   5.525   9.381   4.660
45139SOL    HW137314   5.573   9.446   4.609
45139SOL    HW237315   5.582   9.305   4.661
45140SOL     OW37316  14.023  12.201  13.719
45140SOL    HW137317  14.089  12.221  13.653
45140SOL    HW237318  14.013  12.106  13.715
45141SOL     OW37319   9.489  11.272  13.391
45141SOL    HW137320   9.501  11.367  13.390
45141SOL    HW237321   9.402  11.259  13.428
45142SOL     OW37322  10.377   3.528  10.352
45142SOL    HW137323  10.423   3.484  10.423
45142SOL    HW237324  10.440   3.592  10.318
45143SOL     OW37325   6.466   7.374   0.196
45143SOL    HW137326   6.518   7.431   0.253
45143SOL    HW237327   6.379   7.414   0.196
45144SOL     OW37328   4.728   1.832   5.576
45144SOL    HW137329   4.789   1.852   5.647
45144SOL    HW237330   4.761   1.750   5.539
45145SOL     OW37331   0.375  11.411   8.893
45145SOL    HW137332   0.441  11.481   8.896
45145SOL    HW237333   0.367  11.391   8.799
45146SOL     OW37334  14.377   0.882   8.963
45146SOL    HW137335  14.317   0.822   9.005
45146SOL    HW237336  14.451   0.827   8.936
45147SOL     OW37337   1.947   5.209   4.342
45147SOL    HW137338   1.889   5.241   4.272
45147SOL    HW237339   1.949   5.281   4.405
45148SOL     OW37340   8.153   3.656  14.326
45148SOL    HW137341   8.087   3.639  14.393
45148SOL    HW237342   8.107   3.708  14.260
45149SOL     OW37343   0.764   4.639  11.810
45149SOL    HW137344   0.711   4.699  11.757
45149SOL    HW237345   0.818   4.592  11.746
45150SOL     OW37346  10.828   2.701   4.747
45150SOL    HW137347  10.881   2.649   4.687
45150SOL    HW237348  10.832   2.790   4.712
45151SOL     OW37349  10.746  14.184   1.226
45151SOL    HW137350  10.803  14.260   1.239
45151SOL    HW237351  10.725  14.185   1.132
45152SOL     OW37352   2.703   0.572   7.547
45152SOL    HW137353   2.742   0.572   7.460
45152SOL    HW237354   2.776   0.561   7.607
45153SOL     OW37355   0.934   3.918  12.526
45153SOL    HW137356   0.964   3.925  12.617
45153SOL    HW237357   0.992   3.853  12.487
45154SOL     OW37358   5.421   9.618   5.532
45154SOL    HW137359   5.332   9.592   5.508
45154SOL    HW237360   5.474   9.590   5.458
45155SOL     OW37361   4.379   8.349  13.815
45155SOL    HW137362   4.444   8.351  13.745
45155SOL    HW237363   4.383   8.259  13.848
45156SOL     OW37364  10.367   1.298   4.590
45156SOL    HW137365  10.425   1.296   4.666
45156SOL    HW237366  10.303   1.366   4.610
45157SOL     OW37367   6.769   2.800  11.670
45157SOL    HW137368   6.691   2.772  11.622
45157SOL    HW237369   6.819   2.850  11.605
45158SOL     OW37370  14.819   3.410   4.210
45158SOL    HW137371  14.729   3.434   4.232
45158SOL    HW237372  14.827   3.318   4.237
45159SOL     OW37373   7.778   0.319   1.233
45159SOL    HW137374   7.768   0.273   1.150
45159SOL    HW237375   7.698   0.299   1.282
45160SOL     OW37376   4.419   9.368  11.601
45160SOL    HW137377   4.396   9.460  11.616
45160SOL    HW237378   4.356   9.320  11.655
45161SOL     OW37379  10.905  13.925  11.401
45161SOL    HW137380  10.982  13.953  11.352
45161SOL    HW237381  10.853  13.876  11.337
45162SOL     OW37382   5.008   3.720   2.705
45162SOL    HW137383   5.025   3.628   2.684
45162SOL    HW237384   5.051   3.734   2.789
45163SOL     OW37385   3.949  12.566   3.804
45163SOL    HW137386   3.868  12.616   3.806
45163SOL    HW237387   3.927  12.485   3.758
45164SOL     OW37388   7.095   6.222   1.729
45164SOL    HW137389   7.086   6.237   1.823
45164SOL    HW237390   7.005   6.219   1.696
45165SOL     OW37391  12.406   9.047   1.422
45165SOL    HW137392  12.429   8.954   1.418
45165SOL    HW237393  12.319   9.049   1.460
45166SOL     OW37394   4.126  13.184   6.526
45166SOL    HW137395   4.054  13.131   6.490
45166SOL    HW237396   4.199  13.169   6.466
45167SOL     OW37397  14.147  14.156  10.795
45167SOL    HW137398  14.204  14.128  10.867
45167SOL    HW237399  14.157  14.251  10.792
45168SOL     OW37400   1.178   0.075   9.451
45168SOL    HW137401   1.150   0.162   9.423
45168SOL    HW237402   1.211   0.088   9.540
45169SOL     OW37403   7.660   4.955  10.683
45169SOL    HW137404   7.643   4.955  10.589
45169SOL    HW237405   7.749   4.922  10.692
45170SOL     OW37406   3.360   5.016  12.446
45170SOL    HW137407   3.438   5.062  12.416
45170SOL    HW237408   3.319   5.075  12.508
45171SOL     OW37409  14.204   5.361   4.250
45171SOL    HW137410  14.115   5.342   4.280
45171SOL    HW237411  14.230   5.440   4.298
45172SOL     OW37412   7.831   2.468  11.468
45172SOL    HW137413   7.842   2.554  11.427
45172SOL    HW237414   7.738   2.461  11.485
45173SOL     OW37415  12.222   2.264   9.752
45173SOL    HW137416  12.183   2.197   9.697
45173SOL    HW237417  12.312   2.272   9.721
45174SOL     OW37418   4.775   3.388   9.678
45174SOL    HW137419   4.780   3.323   9.608
45174SOL    HW237420   4.753   3.338   9.756
45175SOL     OW37421   7.578  10.433   1.038
45175SOL    HW137422   7.621  10.471   0.961
45175SOL    HW237423   7.511  10.376   1.003
45176SOL     OW37424  12.395   6.626   8.275
45176SOL    HW137425  12.434   6.706   8.310
45176SOL    HW237426  12.444   6.611   8.194
45177SOL     OW37427  10.724   6.885  11.284
45177SOL    HW137428  10.722   6.830  11.206
45177SOL    HW237429  10.739   6.973  11.250
45178SOL     OW37430   3.551   6.494  13.020
45178SOL    HW137431   3.517   6.583  13.023
45178SOL    HW237432   3.473   6.439  13.009
45179SOL     OW37433  12.918   0.242   5.881
45179SOL    HW137434  12.839   0.291   5.907
45179SOL    HW237435  12.960   0.220   5.964
45180SOL     OW37436   3.436   4.061   4.223
45180SOL    HW137437   3.396   4.146   4.204
45180SOL    HW237438   3.424   4.010   4.142
45181SOL     OW37439  12.179   3.845  10.286
45181SOL    HW137440  12.118   3.916  10.305
45181SOL    HW237441  12.138   3.767  10.322
45182SOL     OW37442   7.482   9.826   8.300
45182SOL    HW137443   7.453   9.909   8.338
45182SOL    HW237444   7.520   9.850   8.216
45183SOL     OW37445   1.882  12.516  10.034
45183SOL    HW137446   1.860  12.486  10.122
45183SOL    HW237447   1.799  12.512   9.986
45184SOL     OW37448  10.141   9.712   9.753
45184SOL    HW137449  10.165   9.653   9.682
45184SOL    HW237450  10.053   9.684   9.779
45185SOL     OW37451   3.028  12.914   0.578
45185SOL    HW137452   3.053  12.953   0.662
45185SOL    HW237453   3.062  12.974   0.512
45186SOL     OW37454  13.671   3.550  14.252
45186SOL    HW137455  13.650   3.583  14.339
45186SOL    HW237456  13.762   3.522  14.258
45187SOL     OW37457   8.763   2.742   4.232
45187SOL    HW137458   8.687   2.799   4.222
45187SOL    HW237459   8.730   2.654   4.218
45188SOL     OW37460  10.743   5.686   2.425
45188SOL    HW137461  10.761   5.766   2.377
45188SOL    HW237462  10.685   5.636   2.368
45189SOL     OW37463   8.867   1.399  11.419
45189SOL    HW137464   8.932   1.329  11.416
45189SOL    HW237465   8.788   1.360  11.384
45190SOL     OW37466   3.523  13.022  14.093
45190SOL    HW137467   3.445  13.049  14.140
45190SOL    HW237468   3.506  13.046  14.002
45191SOL     OW37469   3.628   4.862  12.574
45191SOL    HW137470   3.641   4.826  12.486
45191SOL    HW237471   3.564   4.803  12.615
45192SOL     OW37472   6.152   7.699   1.869
45192SOL    HW137473   6.245   7.679   1.858
45192SOL    HW237474   6.150   7.774   1.928
45193SOL     OW37475   0.459   3.792  14.011
45193SOL    HW137476   0.425   3.808  14.099
45193SOL    HW237477   0.417   3.860  13.957
45194SOL     OW37478   5.228   9.272   7.786
45194SOL    HW137479   5.263   9.221   7.712
45194SOL    HW237480   5.295   9.338   7.803
45195SOL     OW37481  14.759  11.691   1.334
45195SOL    HW137482  14.770  11.596   1.331
45195SOL    HW237483  14.791  11.716   1.421
45196SOL     OW37484   2.143   3.022  13.362
45196SOL    HW137485   2.237   3.019  13.347
45196SOL    HW237486   2.134   3.035  13.456
45197SOL     OW37487   6.595   8.016   9.595
45197SOL    HW137488   6.524   7.953   9.589
45197SOL    HW237489   6.674   7.964   9.584
45198SOL     OW37490   9.489  14.328   1.703
45198SOL    HW137491   9.478  14.365   1.615
45198SOL    HW237492   9.416  14.364   1.753
45199SOL     OW37493   5.621   4.078   8.642
45199SOL    HW137494   5.701   4.089   8.590
45199SOL    HW237495   5.587   3.993   8.615
45200SOL     OW37496  10.855  11.625   0.390
45200SOL    HW137497  10.931  11.612   0.447
45200SOL    HW237498  10.792  11.559   0.419
45201SOL     OW37499   6.767  12.304   0.379
45201SOL    HW137500   6.795  12.354   0.302
45201SOL    HW237501   6.686  12.261   0.352
45202SOL     OW37502  13.177  14.454   1.155
45202SOL    HW137503  13.213  14.367   1.174
45202SOL    HW237504  13.088  14.452   1.191
45203SOL     OW37505   5.257  12.794   4.747
45203SOL    HW137506   5.336  12.838   4.715
45203SOL    HW237507   5.245  12.719   4.688
45204SOL     OW37508   6.049   3.673   4.339
45204SOL    HW137509   6.045   3.700   4.247
45204SOL    HW237510   6.039   3.754   4.388
45205SOL     OW37511   3.999   1.554   3.575
45205SOL    HW137512   3.964   1.506   3.650
45205SOL    HW237513   3.938   1.627   3.563
45206SOL     OW37514   6.280   2.110  10.437
45206SOL    HW137515   6.226   2.039  10.472
45206SOL    HW237516   6.304   2.081  10.349
45207SOL     OW37517   9.676   6.518   8.386
45207SOL    HW137518   9.755   6.516   8.331
45207SOL    HW237519   9.664   6.427   8.413
45208SOL     OW37520   8.128   0.437  11.418
45208SOL    HW137521   8.117   0.515  11.472
45208SOL    HW237522   8.118   0.469  11.328
45209SOL     OW37523   8.106   7.753  12.844
45209SOL    HW137524   8.129   7.696  12.771
45209SOL    HW237525   8.011   7.760  12.841
45210SOL     OW37526   8.839  11.234  13.559
45210SOL    HW137527   8.901  11.166  13.531
45210SOL    HW237528   8.885  11.279  13.630
45211SOL     OW37529  12.963   7.681   4.041
45211SOL    HW137530  12.992   7.603   4.088
45211SOL    HW237531  12.992   7.666   3.951
45212SOL     OW37532  10.317  13.175  10.607
45212SOL    HW137533  10.244  13.194  10.549
45212SOL    HW237534  10.285  13.104  10.663
45213SOL     OW37535   0.749   9.224  12.630
45213SOL    HW137536   0.688   9.283  12.586
45213SOL    HW237537   0.805   9.281  12.683
45214SOL     OW37538   6.520   9.369   3.778
45214SOL    HW137539   6.517   9.326   3.693
45214SOL    HW237540   6.440   9.341   3.822
45215SOL     OW37541  14.816  14.545   8.347
45215SOL    HW137542   0.015  14.512   8.320
45215SOL    HW237543  14.780  14.585   8.268
45216SOL     OW37544  11.268  12.948   0.543
45216SOL    HW137545  11.205  13.020   0.545
45216SOL    HW237546  11.243  12.893   0.618
45217SOL     OW37547   4.161   1.204   2.257
45217SOL    HW137548   4.095   1.135   2.263
45217SOL    HW237549   4.203   1.191   2.172
45218SOL     OW37550   8.741   6.868   5.822
45218SOL    HW137551   8.830   6.871   5.856
45218SOL    HW237552   8.745   6.919   5.741
45219SOL     OW37553   6.179   7.271   9.815
45219SOL    HW137554   6.187   7.193   9.761
45219SOL    HW237555   6.132   7.334   9.760
45220SOL     OW37556   6.880  12.490  13.178
45220SOL    HW137557   6.928  12.520  13.101
45220SOL    HW237558   6.835  12.568  13.211
45221SOL     OW37559   9.006   6.451   9.083
45221SOL    HW137560   8.993   6.436   8.990
45221SOL    HW237561   9.062   6.379   9.112
45222SOL     OW37562   7.528   1.240  12.713
45222SOL    HW137563   7.554   1.299  12.642
45222SOL    HW237564   7.436   1.223  12.697
45223SOL     OW37565  13.675   3.840   5.945
45223SOL    HW137566  13.595   3.868   5.990
45223SOL    HW237567  13.653   3.848   5.852
45224SOL     OW37568   6.527   1.152  11.836
45224SOL    HW137569   6.504   1.132  11.745
45224SOL    HW237570   6.606   1.100  11.852
45225SOL     OW37571   5.247   3.200   4.031
45225SOL    HW137572   5.326   3.214   4.083
45225SOL    HW237573   5.221   3.110   4.053
45226SOL     OW37574   5.913   4.364  14.162
45226SOL    HW137575   5.946   4.411  14.238
45226SOL    HW237576   5.923   4.425  14.089
45227SOL     OW37577   0.729   0.487   6.951
45227SOL    HW137578   0.693   0.515   6.867
45227SOL    HW237579   0.653   0.453   6.999
45228SOL     OW37580  13.665   2.217   2.856
45228SOL    HW137581  13.752   2.247   2.880
45228SOL    HW237582  13.623   2.293   2.817
45229SOL     OW37583   0.065   6.431   0.387
45229SOL    HW137584   0.154   6.406   0.410
45229SOL    HW237585   0.037   6.489   0.458
45230SOL     OW37586   4.106   0.482   5.310
45230SOL    HW137587   4.143   0.399   5.280
45230SOL    HW237588   4.115   0.480   5.405
45231SOL     OW37589   0.817  12.360   6.829
45231SOL    HW137590   0.792  12.385   6.740
45231SOL    HW237591   0.892  12.417   6.850
45232SOL     OW37592   1.158   9.720  12.720
45232SOL    HW137593   1.169   9.797  12.664
45232SOL    HW237594   1.072   9.732  12.761
45233SOL     OW37595   4.789   0.279  13.851
45233SOL    HW137596   4.710   0.226  13.844
45233SOL    HW237597   4.776   0.332  13.930
45234SOL     OW37598   5.963   1.997   1.458
45234SOL    HW137599   5.956   2.013   1.552
45234SOL    HW237600   6.056   2.004   1.439
45235SOL     OW37601  11.368  13.725  10.657
45235SOL    HW137602  11.358  13.632  10.676
45235SOL    HW237603  11.452  13.732  10.612
45236SOL     OW37604  13.002   8.161  12.581
45236SOL    HW137605  13.010   8.255  12.591
45236SOL    HW237606  13.046   8.142  12.498
45237SOL     OW37607   7.267   6.133  12.748
45237SOL    HW137608   7.335   6.073  12.720
45237SOL    HW237609   7.227   6.090  12.824
45238SOL     OW37610   1.784  14.214   9.992
45238SOL    HW137611   1.777  14.258   9.907
45238SOL    HW237612   1.733  14.134   9.981
45239SOL     OW37613  14.211  10.299  12.601
45239SOL    HW137614  14.231  10.393  12.601
45239SOL    HW237615  14.150  10.287  12.673
45240SOL     OW37616   5.192   7.740   6.716
45240SOL    HW137617   5.108   7.737   6.761
45240SOL    HW237618   5.238   7.662   6.745
45241SOL     OW37619   0.290   1.997   7.753
45241SOL    HW137620   0.269   1.947   7.673
45241SOL    HW237621   0.205   2.009   7.796
45242SOL     OW37622  13.560   1.045  10.817
45242SOL    HW137623  13.631   1.050  10.753
45242SOL    HW237624  13.564   1.128  10.864
45243SOL     OW37625   4.071   5.024  14.036
45243SOL    HW137626   4.119   5.101  14.008
45243SOL    HW237627   3.979   5.051  14.034
45244SOL     OW37628  11.449   6.283   0.603
45244SOL    HW137629  11.359   6.274   0.633
45244SOL    HW237630  11.501   6.286   0.684
45245SOL     OW37631   1.489  10.290   5.616
45245SOL    HW137632   1.422  10.249   5.561
45245SOL    HW237633   1.567  10.291   5.560
45246SOL     OW37634  11.770   0.251  12.417
45246SOL    HW137635  11.773   0.177  12.357
45246SOL    HW237636  11.697   0.232  12.476
45247SOL     OW37637  11.323   7.432   7.437
45247SOL    HW137638  11.393   7.367   7.441
45247SOL    HW237639  11.300   7.438   7.344
45248SOL     OW37640  10.146   6.690   2.191
45248SOL    HW137641  10.140   6.737   2.108
45248SOL    HW237642  10.091   6.739   2.251
45249SOL     OW37643  12.374  10.934   5.957
45249SOL    HW137644  12.401  10.900   5.871
45249SOL    HW237645  12.326  11.014   5.936
45250SOL     OW37646   6.403  12.481   3.501
45250SOL    HW137647   6.312  12.453   3.514
45250SOL    HW237648   6.436  12.424   3.431
45251SOL     OW37649   5.366   5.620   3.737
45251SOL    HW137650   5.446   5.634   3.686
45251SOL    HW237651   5.378   5.672   3.816
45252SOL     OW37652   4.692   2.879   5.888
45252SOL    HW137653   4.762   2.909   5.831
45252SOL    HW237654   4.614   2.879   5.833
45253SOL     OW37655  14.069   4.142   2.823
45253SOL    HW137656  14.124   4.065   2.832
45253SOL    HW237657  14.129   4.216   2.828
45254SOL     OW37658   6.581   9.308   1.070
45254SOL    HW137659   6.589   9.266   0.985
45254SOL    HW237660   6.667   9.297   1.111
45255SOL     OW37661  12.783   2.744  11.593
45255SOL    HW137662  12.838   2.694  11.653
45255SOL    HW237663  12.695   2.708  11.605
45256SOL     OW37664  12.622   7.963   4.345
45256SOL    HW137665  12.682   8.001   4.280
45256SOL    HW237666  12.563   8.035   4.368
45257SOL     OW37667   9.785   9.193   5.310
45257SOL    HW137668   9.875   9.201   5.279
45257SOL    HW237669   9.767   9.276   5.354
45258SOL     OW37670   5.785  10.674  12.795
45258SOL    HW137671   5.773  10.612  12.867
45258SOL    HW237672   5.792  10.618  12.717
45259SOL     OW37673   2.613   3.204   8.136
45259SOL    HW137674   2.684   3.142   8.155
45259SOL    HW237675   2.628   3.276   8.197
45260SOL     OW37676   0.102   1.062   1.935
45260SOL    HW137677   0.119   1.126   1.865
45260SOL    HW237678   0.100   1.114   2.015
45261SOL     OW37679   4.033  10.751   1.736
45261SOL    HW137680   3.952  10.775   1.782
45261SOL    HW237681   4.004  10.695   1.664
45262SOL     OW37682  10.789   6.488   6.440
45262SOL    HW137683  10.768   6.554   6.374
45262SOL    HW237684  10.704   6.459   6.472
45263SOL     OW37685  13.041  14.460   8.772
45263SOL    HW137686  12.980  14.386   8.773
45263SOL    HW237687  13.098  14.443   8.697
45264SOL     OW37688   8.766  11.218   3.623
45264SOL    HW137689   8.727  11.305   3.633
45264SOL    HW237690   8.840  11.218   3.684
45265SOL     OW37691  10.939   1.759   5.408
45265SOL    HW137692  10.874   1.807   5.459
45265SOL    HW237693  11.020   1.809   5.419
45266SOL     OW37694   2.926  12.574   4.146
45266SOL    HW137695   3.016  12.546   4.132
45266SOL    HW237696   2.907  12.631   4.072
45267SOL     OW37697  12.098  10.755   3.640
45267SOL    HW137698  12.066  10.667   3.620
45267SOL    HW237699  12.189  10.755   3.612
45268SOL     OW37700  11.891   3.446   3.063
45268SOL    HW137701  11.885   3.376   2.998
45268SOL    HW237702  11.842   3.412   3.139
45269SOL     OW37703  11.059   7.189   0.738
45269SOL    HW137704  11.008   7.113   0.710
45269SOL    HW237705  11.146   7.175   0.700
45270SOL     OW37706   9.272  12.477  14.361
45270SOL    HW137707   9.269  12.467  14.457
45270SOL    HW237708   9.301  12.391  14.330
45271SOL     OW37709   0.905   8.145   8.322
45271SOL    HW137710   0.868   8.227   8.290
45271SOL    HW237711   0.941   8.102   8.245
45272SOL     OW37712   9.517  11.989  13.624
45272SOL    HW137713   9.608  11.971  13.647
45272SOL    HW237714   9.466  11.926  13.675
45273SOL     OW37715  13.064  14.476   6.393
45273SOL    HW137716  13.140  14.441   6.439
45273SOL    HW237717  13.064  14.569   6.413
45274SOL     OW37718   1.792   4.016  10.104
45274SOL    HW137719   1.740   3.977  10.034
45274SOL    HW237720   1.881   3.982  10.089
45275SOL     OW37721   6.838  12.135   6.305
45275SOL    HW137722   6.918  12.098   6.268
45275SOL    HW237723   6.801  12.188   6.234
45276SOL     OW37724  10.665  10.172  12.505
45276SOL    HW137725  10.618  10.245  12.465
45276SOL    HW237726  10.654  10.099  12.444
45277SOL     OW37727  12.616  10.357   1.114
45277SOL    HW137728  12.595  10.310   1.033
45277SOL    HW237729  12.574  10.443   1.103
45278SOL     OW37730   1.740   8.395   3.080
45278SOL    HW137731   1.650   8.424   3.098
45278SOL    HW237732   1.741   8.304   3.107
45279SOL     OW37733   9.882  14.354  12.209
45279SOL    HW137734   9.935  14.280  12.178
45279SOL    HW237735   9.946  14.420  12.234
45280SOL     OW37736  10.443   7.111   0.617
45280SOL    HW137737  10.419   7.122   0.525
45280SOL    HW237738  10.383   7.167   0.665
45281SOL     OW37739  14.364   1.683   9.439
45281SOL    HW137740  14.280   1.654   9.405
45281SOL    HW237741  14.392   1.753   9.380
45282SOL     OW37742   7.722   6.048  14.438
45282SOL    HW137743   7.768   6.074  14.518
45282SOL    HW237744   7.783   6.070  14.368
45283SOL     OW37745   3.651   4.490  13.223
45283SOL    HW137746   3.725   4.550  13.230
45283SOL    HW237747   3.601   4.521  13.147
45284SOL     OW37748   8.250   8.846  13.436
45284SOL    HW137749   8.205   8.822  13.517
45284SOL    HW237750   8.327   8.894  13.465
45285SOL     OW37751  14.820   1.430   9.070
45285SOL    HW137752  14.819   1.363   9.003
45285SOL    HW237753  14.869   1.391   9.143
45286SOL     OW37754   7.024   3.220  13.746
45286SOL    HW137755   7.071   3.186  13.822
45286SOL    HW237756   7.091   3.266  13.695
45287SOL     OW37757   0.352  11.175   2.034
45287SOL    HW137758   0.327  11.083   2.047
45287SOL    HW237759   0.271  11.219   2.010
45288SOL     OW37760  10.400   5.881   7.666
45288SOL    HW137761  10.402   5.898   7.572
45288SOL    HW237762  10.365   5.962   7.704
45289SOL     OW37763   4.736   6.683   8.923
45289SOL    HW137764   4.726   6.619   8.994
45289SOL    HW237765   4.824   6.720   8.937
45290SOL     OW37766   2.495   2.962  12.943
45290SOL    HW137767   2.515   2.869  12.946
45290SOL    HW237768   2.565   3.000  12.890
45291SOL     OW37769   1.915   3.961  13.289
45291SOL    HW137770   1.981   3.922  13.345
45291SOL    HW237771   1.938   4.054  13.286
45292SOL     OW37772   0.722   5.195   9.663
45292SOL    HW137773   0.767   5.127   9.613
45292SOL    HW237774   0.715   5.268   9.602
45293SOL     OW37775   3.598   4.603   3.740
45293SOL    HW137776   3.572   4.695   3.735
45293SOL    HW237777   3.518   4.554   3.721
45294SOL     OW37778   1.924   8.444   7.989
45294SOL    HW137779   1.976   8.514   7.951
45294SOL    HW237780   1.935   8.454   8.084
45295SOL     OW37781   1.521   2.587  11.169
45295SOL    HW137782   1.602   2.567  11.217
45295SOL    HW237783   1.550   2.640  11.094
45296SOL     OW37784   2.388   4.022   6.175
45296SOL    HW137785   2.459   4.060   6.226
45296SOL    HW237786   2.364   3.942   6.222
45297SOL     OW37787  12.525   7.341   4.882
45297SOL    HW137788  12.495   7.389   4.805
45297SOL    HW237789  12.499   7.395   4.956
45298SOL     OW37790   9.646   5.129  13.637
45298SOL    HW137791   9.688   5.069  13.698
45298SOL    HW237792   9.555   5.135  13.668
45299SOL     OW37793  12.984  11.296  12.599
45299SOL    HW137794  12.957  11.252  12.518
45299SOL    HW237795  13.034  11.230  12.646
45300SOL     OW37796  13.925   6.799   7.365
45300SOL    HW137797  13.851   6.803   7.426
45300SOL    HW237798  14.001   6.826   7.418
45301SOL     OW37799   0.968   7.103   7.957
45301SOL    HW137800   1.002   7.109   8.047
45301SOL    HW237801   0.977   7.191   7.922
45302SOL     OW37802   6.435  11.244  14.787
45302SOL    HW137803   6.417  11.306  14.715
45302SOL    HW237804   6.384  11.166  14.765
45303SOL     OW37805   9.985   0.682   4.789
45303SOL    HW137806  10.006   0.775   4.777
45303SOL    HW237807   9.948   0.677   4.878
45304SOL     OW37808   0.148   5.771  12.915
45304SOL    HW137809   0.234   5.761  12.958
45304SOL    HW237810   0.152   5.713  12.839
45305SOL     OW37811  11.481   7.734  13.586
45305SOL    HW137812  11.422   7.708  13.657
45305SOL    HW237813  11.446   7.691  13.508
45306SOL     OW37814  12.343  11.479   3.483
45306SOL    HW137815  12.366  11.567   3.454
45306SOL    HW237816  12.344  11.485   3.579
45307SOL     OW37817   6.410  14.569   9.633
45307SOL    HW137818   6.458  14.526   9.562
45307SOL    HW237819   6.402  14.502   9.701
45308SOL     OW37820   4.406   5.212   7.326
45308SOL    HW137821   4.428   5.257   7.244
45308SOL    HW237822   4.425   5.276   7.395
45309SOL     OW37823  11.906   4.566  13.817
45309SOL    HW137824  11.829   4.511  13.807
45309SOL    HW237825  11.872   4.651  13.845
45310SOL     OW37826   7.456   7.807  11.904
45310SOL    HW137827   7.493   7.888  11.939
45310SOL    HW237828   7.523   7.774  11.845
45311SOL     OW37829   7.540  11.314   5.745
45311SOL    HW137830   7.498  11.228   5.736
45311SOL    HW237831   7.618  11.296   5.798
45312SOL     OW37832   9.466  13.940   3.951
45312SOL    HW137833   9.461  13.850   3.985
45312SOL    HW237834   9.377  13.958   3.920
45313SOL     OW37835  12.826   2.991   6.525
45313SOL    HW137836  12.768   2.920   6.500
45313SOL    HW237837  12.835   3.044   6.446
45314SOL     OW37838   5.766  11.554   6.748
45314SOL    HW137839   5.723  11.494   6.809
45314SOL    HW237840   5.763  11.508   6.664
45315SOL     OW37841  10.619   8.693  14.343
45315SOL    HW137842  10.640   8.662  14.431
45315SOL    HW237843  10.598   8.613  14.294
45316SOL     OW37844   3.629   8.135   6.916
45316SOL    HW137845   3.654   8.213   6.866
45316SOL    HW237846   3.706   8.078   6.912
45317SOL     OW37847  11.343  14.621   5.920
45317SOL    HW137848  11.332  14.660   6.007
45317SOL    HW237849  11.278  14.551   5.916
45318SOL     OW37850   1.273   7.890  13.618
45318SOL    HW137851   1.278   7.798  13.643
45318SOL    HW237852   1.338   7.934  13.674
45319SOL     OW37853   2.547   5.874   8.959
45319SOL    HW137854   2.495   5.897   8.882
45319SOL    HW237855   2.572   5.782   8.944
45320SOL     OW37856   3.212   0.514   9.589
45320SOL    HW137857   3.271   0.516   9.664
45320SOL    HW237858   3.141   0.456   9.616
45321SOL     OW37859  12.278   2.253   6.576
45321SOL    HW137860  12.207   2.234   6.514
45321SOL    HW237861  12.344   2.186   6.558
45322SOL     OW37862  14.854   5.229  12.552
45322SOL    HW137863  14.877   5.315  12.518
45322SOL    HW237864  14.844   5.242  12.646
45323SOL     OW37865   6.876   0.039   8.953
45323SOL    HW137866   6.959  14.879   8.953
45323SOL    HW237867   6.897   0.125   8.989
45324SOL     OW37868   6.322   5.832   0.063
45324SOL    HW137869   6.379   5.761   0.094
45324SOL    HW237870   6.360   5.911   0.102
45325SOL     OW37871  11.915   1.529   9.539
45325SOL    HW137872  11.941   1.453   9.590
45325SOL    HW237873  11.890   1.493   9.454
45326SOL     OW37874  14.698   1.903  14.245
45326SOL    HW137875  14.636   1.975  14.249
45326SOL    HW237876  14.782   1.943  14.268
45327SOL     OW37877   6.638   1.910  14.219
45327SOL    HW137878   6.633   1.973  14.291
45327SOL    HW237879   6.588   1.834  14.250
45328SOL     OW37880   8.393  10.867  11.963
45328SOL    HW137881   8.349  10.845  11.881
45328SOL    HW237882   8.353  10.949  11.990
45329SOL     OW37883  13.911   3.190  14.821
45329SOL    HW137884  13.844   3.127  14.846
45329SOL    HW237885  13.975   3.139  14.771
45330SOL     OW37886  14.764   8.024  14.298
45330SOL    HW137887  14.785   7.991  14.385
45330SOL    HW237888  14.769   7.947  14.241
45331SOL     OW37889  13.192   8.005   1.330
45331SOL    HW137890  13.280   8.041   1.321
45331SOL    HW237891  13.193   7.926   1.276
45332SOL     OW37892  14.322  12.340  12.348
45332SOL    HW137893  14.227  12.333  12.332
45332SOL    HW237894  14.358  12.370  12.264
45333SOL     OW37895   1.175   9.144   5.402
45333SOL    HW137896   1.161   9.127   5.309
45333SOL    HW237897   1.248   9.205   5.404
45334SOL     OW37898   1.874   7.050  12.721
45334SOL    HW137899   1.916   7.126  12.761
45334SOL    HW237900   1.786   7.081  12.697
45335SOL     OW37901  12.735   7.249   1.789
45335SOL    HW137902  12.691   7.168   1.763
45335SOL    HW237903  12.694   7.317   1.736
45336SOL     OW37904   5.183   6.316  11.071
45336SOL    HW137905   5.171   6.307  10.976
45336SOL    HW237906   5.198   6.227  11.102
45337SOL     OW37907   8.308  13.855   9.815
45337SOL    HW137908   8.364  13.782   9.840
45337SOL    HW237909   8.264  13.881   9.896
45338SOL     OW37910   2.546   6.353   6.015
45338SOL    HW137911   2.592   6.437   6.013
45338SOL    HW237912   2.580   6.308   6.092
45339SOL     OW37913   4.886  12.319   0.655
45339SOL    HW137914   4.799  12.283   0.637
45339SOL    HW237915   4.941  12.288   0.583
45340SOL     OW37916  12.670   9.808   5.146
45340SOL    HW137917  12.632   9.879   5.199
45340SOL    HW237918  12.715   9.853   5.075
45341SOL     OW37919   4.536   4.061  11.703
45341SOL    HW137920   4.502   3.979  11.668
45341SOL    HW237921   4.631   4.056  11.688
45342SOL     OW37922   1.996   3.449   9.870
45342SOL    HW137923   2.057   3.456   9.797
45342SOL    HW237924   1.942   3.373   9.850
45343SOL     OW37925   5.543   8.570  12.691
45343SOL    HW137926   5.486   8.638  12.654
45343SOL    HW237927   5.593   8.538  12.616
45344SOL     OW37928  11.466  10.739  10.115
45344SOL    HW137929  11.421  10.823  10.103
45344SOL    HW237930  11.403  10.685  10.163
45345SOL     OW37931   7.789  11.197  13.704
45345SOL    HW137932   7.852  11.224  13.637
45345SOL    HW237933   7.730  11.138  13.658
45346SOL     OW37934  10.810   5.324   6.702
45346SOL    HW137935  10.882   5.267   6.730
45346SOL    HW237936  10.852   5.387   6.643
45347SOL     OW37937   1.903   0.554  12.536
45347SOL    HW137938   1.971   0.545  12.470
45347SOL    HW237939   1.829   0.593  12.490
45348SOL     OW37940  13.534  11.913  11.225
45348SOL    HW137941  13.478  11.860  11.282
45348SOL    HW237942  13.588  11.850  11.178
45349SOL     OW37943   2.820  10.360   2.979
45349SOL    HW137944   2.892  10.306   3.011
45349SOL    HW237945   2.741  10.309   2.998
45350SOL     OW37946  13.178   4.911   0.171
45350SOL    HW137947  13.232   4.865   0.107
45350SOL    HW237948  13.239   4.963   0.222
45351SOL     OW37949   2.708   6.559   1.306
45351SOL    HW137950   2.749   6.604   1.231
45351SOL    HW237951   2.764   6.484   1.322
45352SOL     OW37952   2.842   3.507   4.160
45352SOL    HW137953   2.920   3.509   4.216
45352SOL    HW237954   2.781   3.568   4.201
45353SOL     OW37955  13.144   4.049  13.740
45353SOL    HW137956  13.171   3.966  13.700
45353SOL    HW237957  13.151   4.113  13.670
45354SOL     OW37958   0.938  12.334  13.349
45354SOL    HW137959   0.998  12.359  13.279
45354SOL    HW237960   0.892  12.257  13.315
45355SOL     OW37961   3.029  14.779   0.958
45355SOL    HW137962   3.043  14.799   1.050
45355SOL    HW237963   3.095  14.712   0.938
45356SOL     OW37964   5.935   1.300   4.146
45356SOL    HW137965   5.861   1.355   4.118
45356SOL    HW237966   5.941   1.232   4.079
45357SOL     OW37967   0.524  11.383   0.967
45357SOL    HW137968   0.498  11.355   0.880
45357SOL    HW237969   0.596  11.323   0.991
45358SOL     OW37970   2.325   6.703  11.462
45358SOL    HW137971   2.351   6.647  11.389
45358SOL    HW237972   2.265   6.767  11.425
45359SOL     OW37973  11.675   6.143   9.706
45359SOL    HW137974  11.655   6.112   9.794
45359SOL    HW237975  11.744   6.085   9.675
45360SOL     OW37976   1.221   5.902   4.848
45360SOL    HW137977   1.138   5.908   4.800
45360SOL    HW237978   1.205   5.834   4.914
45361SOL     OW37979   1.816  11.329  10.232
45361SOL    HW137980   1.795  11.251  10.180
45361SOL    HW237981   1.801  11.301  10.322
45362SOL     OW37982   8.058   6.714   4.712
45362SOL    HW137983   8.074   6.797   4.757
45362SOL    HW237984   8.086   6.730   4.622
45363SOL     OW37985   8.547   9.125  14.447
45363SOL    HW137986   8.634   9.085  14.454
45363SOL    HW237987   8.562   9.217  14.466
45364SOL     OW37988   1.177   3.691   5.180
45364SOL    HW137989   1.273   3.688   5.188
45364SOL    HW237990   1.145   3.641   5.256
45365SOL     OW37991   7.357   4.742   6.922
45365SOL    HW137992   7.394   4.655   6.933
45365SOL    HW237993   7.408   4.782   6.851
45366SOL     OW37994   6.870   5.074   4.682
45366SOL    HW137995   6.861   5.050   4.590
45366SOL    HW237996   6.928   5.007   4.719
45367SOL     OW37997  12.537   0.880   6.959
45367SOL    HW137998  12.571   0.958   7.002
45367SOL    HW237999  12.442   0.893   6.959
45368SOL     OW38000  11.591   1.500  10.321
45368SOL    HW138001  11.678   1.503  10.360
45368SOL    HW238002  11.533   1.532  10.390
45369SOL     OW38003   6.369  10.124  12.753
45369SOL    HW138004   6.460  10.149  12.735
45369SOL    HW238005   6.317  10.196  12.717
45370SOL     OW38006   0.137   6.978   7.706
45370SOL    HW138007   0.083   6.994   7.784
45370SOL    HW238008   0.074   6.967   7.635
45371SOL     OW38009   7.074  13.852   3.415
45371SOL    HW138010   7.149  13.898   3.453
45371SOL    HW238011   7.009  13.921   3.399
45372SOL     OW38012   9.657  14.588  10.241
45372SOL    HW138013   9.608  14.622  10.166
45372SOL    HW238014   9.716  14.660  10.265
45373SOL     OW38015   6.521  11.089   5.084
45373SOL    HW138016   6.547  11.181   5.091
45373SOL    HW238017   6.540  11.053   5.171
45374SOL     OW38018   2.795  14.562  14.853
45374SOL    HW138019   2.801  14.561  14.757
45374SOL    HW238020   2.707  14.527  14.871
45375SOL     OW38021  11.027   2.782  14.860
45375SOL    HW138022  11.031   2.827  14.776
45375SOL    HW238023  10.949   2.817   0.015
45376SOL     OW38024   1.258  12.397   2.275
45376SOL    HW138025   1.172  12.377   2.239
45376SOL    HW238026   1.310  12.425   2.200
45377SOL     OW38027   9.142  12.908   0.576
45377SOL    HW138028   9.152  12.888   0.670
45377SOL    HW238029   9.148  12.823   0.533
45378SOL     OW38030   8.472   2.324  14.493
45378SOL    HW138031   8.380   2.345  14.479
45378SOL    HW238032   8.502   2.287  14.410
45379SOL     OW38033   8.980   9.174  14.642
45379SOL    HW138034   9.007   9.130  14.723
45379SOL    HW238035   8.945   9.258  14.672
45380SOL     OW38036  14.172   1.307   1.199
45380SOL    HW138037  14.086   1.337   1.228
45380SOL    HW238038  14.196   1.239   1.262
45381SOL     OW38039  13.618  13.978  13.768
45381SOL    HW138040  13.708  13.950  13.782
45381SOL    HW238041  13.617  14.013  13.679
45382SOL     OW38042   4.764   9.340   4.166
45382SOL    HW138043   4.830   9.310   4.103
45382SOL    HW238044   4.802   9.319   4.252
45383SOL     OW38045  13.029  12.383   7.354
45383SOL    HW138046  12.959  12.340   7.403
45383SOL    HW238047  12.984  12.443   7.296
45384SOL     OW38048   1.739   7.209   8.752
45384SOL    HW138049   1.809   7.184   8.812
45384SOL    HW238050   1.784   7.249   8.678
45385SOL     OW38051   4.416   2.046   7.949
45385SOL    HW138052   4.331   2.089   7.936
45385SOL    HW238053   4.397   1.972   8.008
45386SOL     OW38054   3.750  12.631   2.978
45386SOL    HW138055   3.743  12.640   2.883
45386SOL    HW238056   3.661  12.613   3.006
45387SOL     OW38057   9.390   6.881   5.919
45387SOL    HW138058   9.312   6.933   5.903
45387SOL    HW238059   9.428   6.919   5.999
45388SOL     OW38060  10.525  11.265  10.301
45388SOL    HW138061  10.482  11.301  10.223
45388SOL    HW238062  10.467  11.287  10.373
45389SOL     OW38063   5.748   7.364  10.120
45389SOL    HW138064   5.820   7.328  10.067
45389SOL    HW238065   5.671   7.359  10.063
45390SOL     OW38066   5.061   3.397  10.821
45390SOL    HW138067   4.977   3.430  10.854
45390SOL    HW238068   5.094   3.342  10.891
45391SOL     OW38069  11.918   1.732  13.370
45391SOL    HW138070  11.981   1.788  13.325
45391SOL    HW238071  11.935   1.746  13.463
45392SOL     OW38072   3.402  10.433   7.207
45392SOL    HW138073   3.390  10.475   7.122
45392SOL    HW238074   3.318  10.445   7.251
45393SOL     OW38075  10.833  14.042   1.744
45393SOL    HW138076  10.853  14.049   1.651
45393SOL    HW238077  10.802  13.953   1.756
45394SOL     OW38078   1.669   5.030   0.583
45394SOL    HW138079   1.726   4.960   0.551
45394SOL    HW238080   1.690   5.037   0.676
45395SOL     OW38081   8.060  14.615  12.244
45395SOL    HW138082   8.027  14.542  12.192
45395SOL    HW238083   7.989  14.679  12.244
45396SOL     OW38084   7.224  14.685   0.867
45396SOL    HW138085   7.191  14.645   0.787
45396SOL    HW238086   7.272  14.763   0.838
45397SOL     OW38087   1.303   0.528   4.112
45397SOL    HW138088   1.279   0.617   4.088
45397SOL    HW238089   1.380   0.508   4.059
45398SOL     OW38090   3.938   2.089   3.893
45398SOL    HW138091   3.909   2.004   3.861
45398SOL    HW238092   3.945   2.078   3.987
45399SOL     OW38093  10.792   0.611   0.703
45399SOL    HW138094  10.803   0.609   0.608
45399SOL    HW238095  10.871   0.654   0.735
45400SOL     OW38096  12.547  14.128  14.441
45400SOL    HW138097  12.530  14.218  14.468
45400SOL    HW238098  12.631  14.106  14.482
45401SOL     OW38099   8.351   5.626   3.120
45401SOL    HW138100   8.364   5.559   3.187
45401SOL    HW238101   8.275   5.676   3.150
45402SOL     OW38102   9.865  10.333  11.952
45402SOL    HW138103   9.908  10.263  11.903
45402SOL    HW238104   9.785  10.351  11.902
45403SOL     OW38105   9.042  12.036   4.771
45403SOL    HW138106   9.126  11.991   4.765
45403SOL    HW238107   9.023  12.065   4.682
45404SOL     OW38108   2.251   0.354   1.751
45404SOL    HW138109   2.292   0.431   1.790
45404SOL    HW238110   2.280   0.281   1.806
45405SOL     OW38111   1.152   7.423   8.122
45405SOL    HW138112   1.128   7.397   8.033
45405SOL    HW238113   1.239   7.385   8.134
45406SOL     OW38114   3.291  14.237  13.892
45406SOL    HW138115   3.351  14.305  13.923
45406SOL    HW238116   3.328  14.155  13.925
45407SOL     OW38117   2.769   7.884  11.941
45407SOL    HW138118   2.845   7.943  11.941
45407SOL    HW238119   2.808   7.796  11.932
45408SOL     OW38120   4.447   9.980   4.694
45408SOL    HW138121   4.365  10.010   4.654
45408SOL    HW238122   4.485   9.921   4.629
45409SOL     OW38123   4.506   4.306   0.345
45409SOL    HW138124   4.575   4.360   0.305
45409SOL    HW238125   4.433   4.312   0.283
45410SOL     OW38126  10.020  14.338   1.432
45410SOL    HW138127   9.974  14.269   1.386
45410SOL    HW238128  10.000  14.418   1.383
45411SOL     OW38129   0.125   4.606   3.771
45411SOL    HW138130   0.212   4.645   3.776
45411SOL    HW238131   0.094   4.629   3.683
45412SOL     OW38132   9.669  10.027   9.266
45412SOL    HW138133   9.689   9.945   9.310
45412SOL    HW238134   9.724  10.092   9.311
45413SOL     OW38135  12.568  13.205  13.175
45413SOL    HW138136  12.556  13.291  13.134
45413SOL    HW238137  12.658  13.181  13.153
45414SOL     OW38138   3.696  14.385  11.752
45414SOL    HW138139   3.617  14.431  11.723
45414SOL    HW238140   3.690  14.298  11.711
45415SOL     OW38141   5.995   4.054  13.129
45415SOL    HW138142   5.941   4.116  13.080
45415SOL    HW238143   6.043   4.109  13.191
45416SOL     OW38144  14.850   4.390  13.206
45416SOL    HW138145  14.831   4.475  13.246
45416SOL    HW238146   0.042   4.406  13.154
45417SOL     OW38147   9.217   3.432   2.169
45417SOL    HW138148   9.243   3.417   2.078
45417SOL    HW238149   9.176   3.350   2.196
45418SOL     OW38150  11.974  11.899   2.389
45418SOL    HW138151  12.016  11.966   2.443
45418SOL    HW238152  12.035  11.825   2.391
45419SOL     OW38153  12.376   2.774   2.256
45419SOL    HW138154  12.310   2.707   2.239
45419SOL    HW238155  12.328   2.856   2.262
45420SOL     OW38156   6.501  12.713   4.347
45420SOL    HW138157   6.570  12.764   4.388
45420SOL    HW238158   6.451  12.776   4.295
45421SOL     OW38159   3.706  11.280   9.544
45421SOL    HW138160   3.660  11.295   9.626
45421SOL    HW238161   3.790  11.242   9.571
45422SOL     OW38162   9.776   5.461   9.470
45422SOL    HW138163   9.719   5.386   9.490
45422SOL    HW238164   9.718   5.536   9.472
45423SOL     OW38165   7.642   5.013   9.607
45423SOL    HW138166   7.679   5.048   9.526
45423SOL    HW238167   7.574   5.076   9.632
45424SOL     OW38168   6.927   4.729  11.489
45424SOL    HW138169   6.845   4.694  11.524
45424SOL    HW238170   6.990   4.659  11.502
45425SOL     OW38171   0.584   9.668   2.322
45425SOL    HW138172   0.570   9.742   2.381
45425SOL    HW238173   0.585   9.706   2.234
45426SOL     OW38174   4.694  11.182   9.359
45426SOL    HW138175   4.611  11.191   9.406
45426SOL    HW238176   4.761  11.188   9.427
45427SOL     OW38177  13.162   3.218   5.418
45427SOL    HW138178  13.161   3.222   5.323
45427SOL    HW238179  13.249   3.249   5.443
45428SOL     OW38180  14.418   1.554   7.398
45428SOL    HW138181  14.503   1.572   7.439
45428SOL    HW238182  14.440   1.504   7.319
45429SOL     OW38183  13.203  14.304  11.467
45429SOL    HW138184  13.206  14.215  11.434
45429SOL    HW238185  13.230  14.358  11.393
45430SOL     OW38186  13.005   0.075   9.849
45430SOL    HW138187  12.988   0.069   9.755
45430SOL    HW238188  13.003   0.169   9.868
45431SOL     OW38189   5.866  13.598  13.944
45431SOL    HW138190   5.939  13.641  13.988
45431SOL    HW238191   5.799  13.666  13.938
45432SOL     OW38192   3.647   2.824  14.712
45432SOL    HW138193   3.654   2.732  14.686
45432SOL    HW238194   3.714   2.868  14.658
45433SOL     OW38195   8.720   7.560   6.222
45433SOL    HW138196   8.625   7.560   6.230
45433SOL    HW238197   8.745   7.652   6.228
45434SOL     OW38198   1.121  11.610   8.660
45434SOL    HW138199   1.153  11.682   8.606
45434SOL    HW238200   1.200  11.562   8.685
45435SOL     OW38201   1.007   5.886  13.291
45435SOL    HW138202   1.039   5.961  13.343
45435SOL    HW238203   1.085   5.853  13.246
45436SOL     OW38204   1.324  14.445   2.375
45436SOL    HW138205   1.378  14.374   2.341
45436SOL    HW238206   1.322  14.509   2.304
45437SOL     OW38207   8.650   3.833  13.070
45437SOL    HW138208   8.673   3.896  13.002
45437SOL    HW238209   8.734   3.805  13.107
45438SOL     OW38210   3.081   6.821   3.970
45438SOL    HW138211   3.151   6.810   3.906
45438SOL    HW238212   3.008   6.770   3.935
45439SOL     OW38213  12.248   1.906   1.806
45439SOL    HW138214  12.241   1.970   1.877
45439SOL    HW238215  12.175   1.928   1.747
45440SOL     OW38216   9.087   3.518  11.536
45440SOL    HW138217   9.056   3.607  11.551
45440SOL    HW238218   9.062   3.499  11.445
45441SOL     OW38219  13.468   3.076  10.107
45441SOL    HW138220  13.541   3.115  10.155
45441SOL    HW238221  13.460   2.987  10.143
45442SOL     OW38222   4.686  13.031   0.049
45442SOL    HW138223   4.605  13.075   0.025
45442SOL    HW238224   4.695  13.045   0.143
45443SOL     OW38225   9.699  10.087   5.379
45443SOL    HW138226   9.663  10.070   5.291
45443SOL    HW238227   9.629  10.060   5.438
45444SOL     OW38228  12.579  13.085  11.796
45444SOL    HW138229  12.662  13.127  11.816
45444SOL    HW238230  12.517  13.157  11.784
45445SOL     OW38231   1.441   0.686   8.090
45445SOL    HW138232   1.524   0.642   8.075
45445SOL    HW238233   1.452   0.773   8.050
45446SOL     OW38234   4.928  10.606   8.600
45446SOL    HW138235   4.841  10.590   8.566
45446SOL    HW238236   4.915  10.616   8.695
45447SOL     OW38237  13.060   4.085  10.482
45447SOL    HW138238  13.013   4.017  10.434
45447SOL    HW238239  13.004   4.163  10.473
45448SOL     OW38240   7.535   1.796   6.758
45448SOL    HW138241   7.585   1.717   6.739
45448SOL    HW238242   7.601   1.863   6.774
45449SOL     OW38243   7.486   3.156   5.239
45449SOL    HW138244   7.394   3.179   5.231
45449SOL    HW238245   7.487   3.081   5.299
45450SOL     OW38246  14.299   3.410  12.235
45450SOL    HW138247  14.327   3.495  12.268
45450SOL    HW238248  14.252   3.370  12.308
45451SOL     OW38249   5.927   4.097   0.570
45451SOL    HW138250   5.923   4.042   0.649
45451SOL    HW238251   5.950   4.183   0.603
45452SOL     OW38252   1.763   6.372   3.455
45452SOL    HW138253   1.836   6.323   3.492
45452SOL    HW238254   1.799   6.458   3.435
45453SOL     OW38255  14.155   8.554   2.980
45453SOL    HW138256  14.219   8.534   2.913
45453SOL    HW238257  14.119   8.468   3.005
45454SOL     OW38258   6.208   9.351   9.610
45454SOL    HW138259   6.238   9.437   9.578
45454SOL    HW238260   6.224   9.354   9.705
45455SOL     OW38261   9.619   9.010  11.335
45455SOL    HW138262   9.689   8.963  11.289
45455SOL    HW238263   9.541   8.992  11.283
45456SOL     OW38264   5.693  12.585  10.150
45456SOL    HW138265   5.725  12.541  10.071
45456SOL    HW238266   5.633  12.653  10.118
45457SOL     OW38267  10.228   7.648   0.970
45457SOL    HW138268  10.312   7.693   0.959
45457SOL    HW238269  10.248   7.555   0.961
45458SOL     OW38270   0.625  12.388  11.232
45458SOL    HW138271   0.678  12.318  11.194
45458SOL    HW238272   0.669  12.469  11.206
45459SOL     OW38273   0.615  10.908   4.475
45459SOL    HW138274   0.702  10.873   4.496
45459SOL    HW238275   0.583  10.944   4.558
45460SOL     OW38276  11.110   4.075   5.522
45460SOL    HW138277  11.143   4.080   5.432
45460SOL    HW238278  11.112   4.165   5.553
45461SOL     OW38279   7.873   0.633   6.856
45461SOL    HW138280   7.815   0.634   6.932
45461SOL    HW238281   7.826   0.685   6.790
45462SOL     OW38282   0.244  12.560   9.647
45462SOL    HW138283   0.267  12.611   9.569
45462SOL    HW238284   0.246  12.623   9.719
45463SOL     OW38285   2.920   8.988   3.796
45463SOL    HW138286   2.840   8.970   3.746
45463SOL    HW238287   2.986   8.930   3.758
45464SOL     OW38288   1.278   8.172   3.862
45464SOL    HW138289   1.370   8.192   3.881
45464SOL    HW238290   1.273   8.076   3.867
45465SOL     OW38291   3.927  13.702  14.824
45465SOL    HW138292   3.937  13.790  14.786
45465SOL    HW238293   4.000  13.694  14.885
45466SOL     OW38294  11.474  10.692   8.750
45466SOL    HW138295  11.411  10.669   8.682
45466SOL    HW238296  11.559  10.692   8.706
45467SOL     OW38297   8.818  14.459  14.780
45467SOL    HW138298   8.793  14.472  14.689
45467SOL    HW238299   8.859  14.373  14.782
45468SOL     OW38300   0.309   6.464  14.860
45468SOL    HW138301   0.345   6.479  14.773
45468SOL    HW238302   0.385   6.444   0.027
45469SOL     OW38303  13.236   0.340  11.735
45469SOL    HW138304  13.328   0.339  11.708
45469SOL    HW238305  13.188   0.364  11.656
45470SOL     OW38306   2.720  10.693   4.184
45470SOL    HW138307   2.783  10.747   4.136
45470SOL    HW238308   2.728  10.723   4.275
45471SOL     OW38309   1.807   5.846   1.417
45471SOL    HW138310   1.865   5.858   1.342
45471SOL    HW238311   1.827   5.758   1.448
45472SOL     OW38312  11.959   9.841  12.900
45472SOL    HW138313  11.954   9.934  12.880
45472SOL    HW238314  11.971   9.799  12.814
45473SOL     OW38315  14.272   9.737   6.228
45473SOL    HW138316  14.249   9.723   6.136
45473SOL    HW238317  14.360   9.776   6.225
45474SOL     OW38318   1.318  10.882   9.189
45474SOL    HW138319   1.307  10.793   9.221
45474SOL    HW238320   1.268  10.885   9.108
45475SOL     OW38321   7.050  11.446   1.591
45475SOL    HW138322   7.054  11.382   1.662
45475SOL    HW238323   7.045  11.531   1.635
45476SOL     OW38324   4.766  14.339   7.597
45476SOL    HW138325   4.720  14.353   7.514
45476SOL    HW238326   4.830  14.411   7.601
45477SOL     OW38327   1.771   0.443  11.065
45477SOL    HW138328   1.699   0.459  11.126
45477SOL    HW238329   1.826   0.379  11.109
45478SOL     OW38330   9.176   2.007  14.075
45478SOL    HW138331   9.163   2.066  14.001
45478SOL    HW238332   9.263   1.970  14.061
45479SOL     OW38333   7.395  14.099  10.888
45479SOL    HW138334   7.394  14.074  10.980
45479SOL    HW238335   7.303  14.099  10.861
45480SOL     OW38336  11.156   8.391  13.966
45480SOL    HW138337  11.131   8.458  13.903
45480SOL    HW238338  11.079   8.334  13.972
45481SOL     OW38339   9.960  12.099   1.130
45481SOL    HW138340   9.906  12.092   1.209
45481SOL    HW238341   9.953  12.013   1.089
45482SOL     OW38342   7.562  13.377  11.764
45482SOL    HW138343   7.605  13.363  11.679
45482SOL    HW238344   7.519  13.462  11.755
45483SOL     OW38345  11.742   8.508   9.631
45483SOL    HW138346  11.747   8.578   9.565
45483SOL    HW238347  11.729   8.428   9.580
45484SOL     OW38348  11.808   0.962   9.691
45484SOL    HW138349  11.749   0.919   9.753
45484SOL    HW238350  11.760   1.040   9.663
45485SOL     OW38351   6.400   8.442  12.336
45485SOL    HW138352   6.343   8.485  12.273
45485SOL    HW238353   6.408   8.352  12.305
45486SOL     OW38354   0.137  14.173   4.304
45486SOL    HW138355   0.203  14.107   4.288
45486SOL    HW238356   0.076  14.165   4.231
45487SOL     OW38357   7.168   6.751   9.275
45487SOL    HW138358   7.194   6.817   9.211
45487SOL    HW238359   7.168   6.797   9.359
45488SOL     OW38360  13.263  13.082   8.741
45488SOL    HW138361  13.349  13.061   8.779
45488SOL    HW238362  13.201  13.032   8.793
45489SOL     OW38363   9.346  13.581  10.272
45489SOL    HW138364   9.318  13.668  10.298
45489SOL    HW238365   9.429  13.568  10.317
45490SOL     OW38366   0.726  14.292   9.462
45490SOL    HW138367   0.755  14.302   9.371
45490SOL    HW238368   0.740  14.378   9.501
45491SOL     OW38369   0.472   0.564  11.927
45491SOL    HW138370   0.560   0.574  11.892
45491SOL    HW238371   0.458   0.470  11.931
45492SOL     OW38372  12.130  13.551   0.051
45492SOL    HW138373  12.117  13.472   0.105
45492SOL    HW238374  12.131  13.518  14.848
45493SOL     OW38375   0.406   7.038  10.642
45493SOL    HW138376   0.425   6.944  10.638
45493SOL    HW238377   0.323   7.043  10.689
45494SOL     OW38378   1.219  11.036   4.420
45494SOL    HW138379   1.261  11.043   4.334
45494SOL    HW238380   1.282  11.077   4.480
45495SOL     OW38381   1.762   3.204   4.222
45495SOL    HW138382   1.807   3.273   4.173
45495SOL    HW238383   1.676   3.241   4.240
45496SOL     OW38384   5.072   0.147  12.265
45496SOL    HW138385   5.118   0.226  12.236
45496SOL    HW238386   5.019   0.121  12.189
45497SOL     OW38387  14.258   9.191   3.175
45497SOL    HW138388  14.257   9.096   3.179
45497SOL    HW238389  14.215   9.219   3.256
45498SOL     OW38390  10.669  14.546   0.786
45498SOL    HW138391  10.644  14.496   0.863
45498SOL    HW238392  10.629  14.499   0.713
45499SOL     OW38393  13.888   1.011   3.987
45499SOL    HW138394  13.873   0.930   3.939
45499SOL    HW238395  13.938   0.985   4.064
45500SOL     OW38396   6.095  12.190   1.862
45500SOL    HW138397   6.022  12.158   1.915
45500SOL    HW238398   6.167  12.200   1.924
45501SOL     OW38399   2.240   0.362   8.987
45501SOL    HW138400   2.308   0.293   8.991
45501SOL    HW238401   2.261   0.411   8.907
45502SOL     OW38402   6.762  12.795  12.240
45502SOL    HW138403   6.793  12.721  12.293
45502SOL    HW238404   6.791  12.774  12.151
45503SOL     OW38405  14.173   5.352  12.507
45503SOL    HW138406  14.101   5.320  12.562
45503SOL    HW238407  14.246   5.295  12.530
45504SOL     OW38408   0.702   1.283   0.257
45504SOL    HW138409   0.617   1.314   0.290
45504SOL    HW238410   0.767   1.331   0.309
45505SOL     OW38411   4.689   2.609  13.564
45505SOL    HW138412   4.759   2.650  13.513
45505SOL    HW238413   4.725   2.598  13.652
45506SOL     OW38414   2.160   6.043   7.752
45506SOL    HW138415   2.071   6.059   7.783
45506SOL    HW238416   2.210   6.025   7.832
45507SOL     OW38417  13.729   5.032   2.250
45507SOL    HW138418  13.755   4.940   2.254
45507SOL    HW238419  13.681   5.047   2.332
45508SOL     OW38420   3.634   0.579  10.525
45508SOL    HW138421   3.674   0.589  10.438
45508SOL    HW238422   3.690   0.630  10.583
45509SOL     OW38423   3.694   0.708   5.253
45509SOL    HW138424   3.687   0.680   5.345
45509SOL    HW238425   3.729   0.632   5.207
45510SOL     OW38426   1.364   7.888  12.666
45510SOL    HW138427   1.339   7.797  12.656
45510SOL    HW238428   1.455   7.885  12.694
45511SOL     OW38429   0.158   4.456  13.456
45511SOL    HW138430   0.158   4.375  13.508
45511SOL    HW238431   0.107   4.518  13.508
45512SOL     OW38432  12.273   8.252   3.910
45512SOL    HW138433  12.178   8.250   3.899
45512SOL    HW238434  12.302   8.323   3.852
45513SOL     OW38435   1.185   6.997   2.815
45513SOL    HW138436   1.264   7.042   2.784
45513SOL    HW238437   1.172   7.030   2.904
45514SOL     OW38438  14.802   7.178   7.592
45514SOL    HW138439  14.796   7.109   7.658
45514SOL    HW238440  14.719   7.227   7.602
45515SOL     OW38441   9.062   3.028  11.494
45515SOL    HW138442   9.103   3.035  11.581
45515SOL    HW238443   9.000   2.956  11.503
45516SOL     OW38444   2.127   3.003  12.594
45516SOL    HW138445   2.082   2.930  12.637
45516SOL    HW238446   2.201   3.023  12.652
45517SOL     OW38447   3.268  11.004   1.413
45517SOL    HW138448   3.223  10.921   1.426
45517SOL    HW238449   3.200  11.070   1.423
45518SOL     OW38450  13.555   4.411   7.595
45518SOL    HW138451  13.554   4.473   7.669
45518SOL    HW238452  13.542   4.466   7.518
45519SOL     OW38453  14.137   0.643   9.735
45519SOL    HW138454  14.159   0.734   9.756
45519SOL    HW238455  14.043   0.637   9.751
45520SOL     OW38456   0.493   8.136  10.652
45520SOL    HW138457   0.527   8.088  10.727
45520SOL    HW238458   0.398   8.134  10.663
45521SOL     OW38459  12.060  11.273   9.695
45521SOL    HW138460  11.987  11.322   9.734
45521SOL    HW238461  12.019  11.216   9.630
45522SOL     OW38462   3.827   7.248   1.295
45522SOL    HW138463   3.827   7.344   1.285
45522SOL    HW238464   3.791   7.216   1.213
45523SOL     OW38465   1.523  11.854   4.932
45523SOL    HW138466   1.439  11.891   4.958
45523SOL    HW238467   1.503  11.801   4.854
45524SOL     OW38468   0.185   8.384  13.413
45524SOL    HW138469   0.264   8.378  13.359
45524SOL    HW238470   0.129   8.313  13.383
45525SOL     OW38471   3.755   6.126  10.835
45525SOL    HW138472   3.826   6.128  10.900
45525SOL    HW238473   3.716   6.213  10.841
45526SOL     OW38474   6.729   7.170  13.658
45526SOL    HW138475   6.764   7.259  13.657
45526SOL    HW238476   6.676   7.164  13.579
45527SOL     OW38477  10.224   6.153   2.799
45527SOL    HW138478  10.180   6.205   2.866
45527SOL    HW238479  10.267   6.082   2.847
45528SOL     OW38480   1.863   9.837   5.776
45528SOL    HW138481   1.785   9.831   5.721
45528SOL    HW238482   1.928   9.879   5.720
45529SOL     OW38483   6.866   7.942   4.135
45529SOL    HW138484   6.871   8.037   4.133
45529SOL    HW238485   6.826   7.917   4.052
45530SOL     OW38486   3.482   0.195  14.110
45530SOL    HW138487   3.490   0.160  14.022
45530SOL    HW238488   3.535   0.275  14.110
45531SOL     OW38489   9.403   7.848   9.971
45531SOL    HW138490   9.349   7.836  10.049
45531SOL    HW238491   9.409   7.761   9.932
45532SOL     OW38492   3.488   3.121   9.553
45532SOL    HW138493   3.495   3.066   9.475
45532SOL    HW238494   3.475   3.209   9.520
45533SOL     OW38495   3.304  13.201   7.622
45533SOL    HW138496   3.247  13.125   7.624
45533SOL    HW238497   3.338  13.208   7.712
45534SOL     OW38498  10.011   8.741   7.228
45534SOL    HW138499   9.992   8.808   7.294
45534SOL    HW238500  10.007   8.658   7.276
45535SOL     OW38501  14.496   1.051  10.623
45535SOL    HW138502  14.528   1.036  10.712
45535SOL    HW238503  14.528   1.139  10.601
45536SOL     OW38504   0.993  11.671  10.244
45536SOL    HW138505   0.975  11.710  10.159
45536SOL    HW238506   1.053  11.732  10.286
45537SOL     OW38507   9.333   6.789   3.903
45537SOL    HW138508   9.339   6.737   3.823
45537SOL    HW238509   9.380   6.870   3.882
45538SOL     OW38510   1.939   4.965   6.682
45538SOL    HW138511   2.034   4.968   6.679
45538SOL    HW238512   1.910   5.047   6.642
45539SOL     OW38513   9.614  12.692   7.782
45539SOL    HW138514   9.705  12.708   7.807
45539SOL    HW238515   9.607  12.727   7.693
45540SOL     OW38516  12.128   9.659  14.349
45540SOL    HW138517  12.190   9.678  14.278
45540SOL    HW238518  12.073   9.737  14.355
45541SOL     OW38519  10.413   3.007   8.939
45541SOL    HW138520  10.466   3.086   8.952
45541SOL    HW238521  10.324   3.034   8.959
45542SOL     OW38522   4.565   0.208  10.831
45542SOL    HW138523   4.499   0.174  10.891
45542SOL    HW238524   4.646   0.162  10.854
45543SOL     OW38525   6.910   8.859   9.122
45543SOL    HW138526   6.951   8.944   9.105
45543SOL    HW238527   6.980   8.795   9.107
45544SOL     OW38528   3.764   0.574   6.713
45544SOL    HW138529   3.749   0.511   6.642
45544SOL    HW238530   3.778   0.520   6.791
45545SOL     OW38531   7.616   4.037   6.797
45545SOL    HW138532   7.690   4.097   6.793
45545SOL    HW238533   7.654   3.950   6.786
45546SOL     OW38534  13.959   1.478   3.699
45546SOL    HW138535  13.901   1.555   3.696
45546SOL    HW238536  13.901   1.404   3.680
45547SOL     OW38537   1.995  13.856   7.131
45547SOL    HW138538   1.954  13.771   7.146
45547SOL    HW238539   1.971  13.908   7.207
45548SOL     OW38540   9.725   1.668   5.265
45548SOL    HW138541   9.729   1.763   5.272
45548SOL    HW238542   9.678   1.639   5.343
45549SOL     OW38543   0.010   8.055   7.681
45549SOL    HW138544  14.858   8.136   7.649
45549SOL    HW238545   0.051   8.079   7.764
45550SOL     OW38546   2.160  10.718   1.880
45550SOL    HW138547   2.117  10.664   1.947
45550SOL    HW238548   2.133  10.679   1.797
45551SOL     OW38549  14.563   9.091   1.797
45551SOL    HW138550  14.606   9.099   1.713
45551SOL    HW238551  14.472   9.114   1.780
45552SOL     OW38552  10.126   7.505   6.664
45552SOL    HW138553  10.033   7.524   6.654
45552SOL    HW238554  10.132   7.409   6.659
45553SOL     OW38555  14.830  10.100   9.325
45553SOL    HW138556  14.780  10.018   9.331
45553SOL    HW238557   0.025  10.081   9.370
45554SOL     OW38558  12.236  11.128   2.263
45554SOL    HW138559  12.296  11.141   2.189
45554SOL    HW238560  12.271  11.051   2.308
45555SOL     OW38561  13.879  11.984   4.894
45555SOL    HW138562  13.904  11.894   4.915
45555SOL    HW238563  13.926  12.038   4.957
45556SOL     OW38564   4.490   7.432  14.128
45556SOL    HW138565   4.583   7.446  14.141
45556SOL    HW238566   4.458   7.513  14.088
45557SOL     OW38567  11.135   1.582  14.465
45557SOL    HW138568  11.187   1.661  14.478
45557SOL    HW238569  11.087   1.598  14.384
45558SOL     OW38570  14.577   0.067   1.210
45558SOL    HW138571  14.667   0.093   1.193
45558SOL    HW238572  14.585  14.873   1.262
45559SOL     OW38573   5.539   9.857   8.661
45559SOL    HW138574   5.603   9.845   8.591
45559SOL    HW238575   5.531   9.770   8.701
45560SOL     OW38576   7.008  11.355  11.032
45560SOL    HW138577   7.071  11.404  10.980
45560SOL    HW238578   7.056  11.278  11.062
45561SOL     OW38579   3.295  11.811  13.096
45561SOL    HW138580   3.228  11.743  13.089
45561SOL    HW238581   3.374  11.770  13.061
45562SOL     OW38582   8.508   4.937   9.478
45562SOL    HW138583   8.493   4.945   9.384
45562SOL    HW238584   8.523   4.844   9.493
45563SOL     OW38585   7.735   2.349   1.473
45563SOL    HW138586   7.751   2.438   1.443
45563SOL    HW238587   7.791   2.294   1.418
45564SOL     OW38588   0.769   8.323   8.836
45564SOL    HW138589   0.712   8.256   8.798
45564SOL    HW238590   0.810   8.280   8.911
45565SOL     OW38591   1.957   7.927  13.067
45565SOL    HW138592   1.887   7.879  13.111
45565SOL    HW238593   1.962   7.888  12.980
45566SOL     OW38594   4.438   1.476   2.420
45566SOL    HW138595   4.454   1.503   2.510
45566SOL    HW238596   4.365   1.531   2.391
45567SOL     OW38597  13.974   7.719  12.467
45567SOL    HW138598  13.891   7.683  12.435
45567SOL    HW238599  13.949   7.777  12.539
45568SOL     OW38600  10.812   9.747   5.794
45568SOL    HW138601  10.717   9.748   5.806
45568SOL    HW238602  10.840   9.662   5.828
45569SOL     OW38603  12.431   0.618   8.624
45569SOL    HW138604  12.376   0.625   8.702
45569SOL    HW238605  12.419   0.528   8.593
45570SOL     OW38606   2.681   5.941  12.163
45570SOL    HW138607   2.693   5.962  12.070
45570SOL    HW238608   2.634   6.016  12.199
45571SOL     OW38609  11.836  14.742   9.488
45571SOL    HW138610  11.927  14.719   9.503
45571SOL    HW238611  11.786  14.668   9.525
45572SOL     OW38612  11.656   2.998  10.900
45572SOL    HW138613  11.710   3.021  10.824
45572SOL    HW238614  11.566   3.017  10.873
45573SOL     OW38615   6.462  12.989  11.011
45573SOL    HW138616   6.506  12.944  10.939
45573SOL    HW238617   6.427  12.918  11.065
45574SOL     OW38618  10.297   6.085   5.957
45574SOL    HW138619  10.307   6.159   6.018
45574SOL    HW238620  10.378   6.084   5.907
45575SOL     OW38621   0.239   1.670   9.171
45575SOL    HW138622   0.320   1.695   9.125
45575SOL    HW238623   0.256   1.581   9.202
45576SOL     OW38624   8.376  11.476   1.507
45576SOL    HW138625   8.404  11.384   1.505
45576SOL    HW238626   8.291  11.476   1.464
45577SOL     OW38627   1.541   8.794   2.008
45577SOL    HW138628   1.528   8.824   1.918
45577SOL    HW238629   1.467   8.829   2.056
45578SOL     OW38630  10.925  14.299   1.832
45578SOL    HW138631  10.900  14.208   1.818
45578SOL    HW238632  10.997  14.295   1.895
45579SOL     OW38633   2.753   0.731   7.014
45579SOL    HW138634   2.795   0.815   6.996
45579SOL    HW238635   2.809   0.667   6.970
45580SOL     OW38636   1.130   5.973   5.211
45580SOL    HW138637   1.218   5.947   5.181
45580SOL    HW238638   1.090   5.891   5.240
45581SOL     OW38639  11.747   4.135  12.134
45581SOL    HW138640  11.698   4.183  12.067
45581SOL    HW238641  11.686   4.068  12.164
45582SOL     OW38642   8.058  11.413   0.517
45582SOL    HW138643   8.044  11.353   0.445
45582SOL    HW238644   8.149  11.399   0.543
45583SOL     OW38645  12.652   0.328   0.239
45583SOL    HW138646  12.688   0.407   0.280
45583SOL    HW238647  12.719   0.261   0.253
45584SOL     OW38648   7.001  10.646  13.054
45584SOL    HW138649   7.062  10.689  13.114
45584SOL    HW238650   7.052  10.633  12.974
45585SOL     OW38651   3.808   2.341   3.935
45585SOL    HW138652   3.853   2.266   3.896
45585SOL    HW238653   3.807   2.322   4.029
45586SOL     OW38654   3.008  12.309   6.461
45586SOL    HW138655   3.025  12.229   6.412
45586SOL    HW238656   3.050  12.295   6.546
45587SOL     OW38657  14.190   3.056   8.894
45587SOL    HW138658  14.240   3.005   8.959
45587SOL    HW238659  14.175   3.140   8.936
45588SOL     OW38660  10.232   9.204  14.742
45588SOL    HW138661  10.202   9.126  14.787
45588SOL    HW238662  10.182   9.276  14.782
45589SOL     OW38663   4.215  11.064  10.515
45589SOL    HW138664   4.287  11.085  10.456
45589SOL    HW238665   4.235  10.976  10.547
45590SOL     OW38666  13.398   8.035   9.955
45590SOL    HW138667  13.408   8.130   9.956
45590SOL    HW238668  13.467   8.003   9.898
45591SOL     OW38669  10.646   2.239  13.634
45591SOL    HW138670  10.608   2.273  13.715
45591SOL    HW238671  10.607   2.291  13.565
45592SOL     OW38672   0.120   6.363   4.743
45592SOL    HW138673   0.104   6.456   4.764
45592SOL    HW238674   0.212   6.349   4.766
45593SOL     OW38675   5.767  12.952   9.657
45593SOL    HW138676   5.779  12.876   9.713
45593SOL    HW238677   5.672  12.960   9.647
45594SOL     OW38678   4.302  13.342   4.401
45594SOL    HW138679   4.236  13.397   4.443
45594SOL    HW238680   4.351  13.401   4.345
45595SOL     OW38681   4.265  11.059   0.329
45595SOL    HW138682   4.203  11.127   0.302
45595SOL    HW238683   4.346  11.106   0.346
45596SOL     OW38684   2.336   5.111   1.891
45596SOL    HW138685   2.381   5.190   1.860
45596SOL    HW238686   2.385   5.084   1.968
45597SOL     OW38687   4.380   3.637  11.021
45597SOL    HW138688   4.336   3.552  11.028
45597SOL    HW238689   4.326   3.696  11.072
45598SOL     OW38690   4.631   4.985   2.185
45598SOL    HW138691   4.649   5.078   2.192
45598SOL    HW238692   4.626   4.968   2.091
45599SOL     OW38693   9.902   8.368   4.025
45599SOL    HW138694   9.966   8.439   4.017
45599SOL    HW238695   9.940   8.296   3.975
45600SOL     OW38696   7.262  12.708   5.691
45600SOL    HW138697   7.207  12.641   5.731
45600SOL    HW238698   7.345  12.664   5.674
45601SOL     OW38699   9.720   5.518   0.046
45601SOL    HW138700   9.696   5.442   0.100
45601SOL    HW238701   9.787   5.484  14.874
45602SOL     OW38702  14.321   4.882   7.291
45602SOL    HW138703  14.250   4.819   7.281
45602SOL    HW238704  14.401   4.828   7.286
45603SOL     OW38705   2.466  13.052  10.828
45603SOL    HW138706   2.538  13.088  10.776
45603SOL    HW238707   2.452  13.116  10.897
45604SOL     OW38708   3.369  13.247   7.874
45604SOL    HW138709   3.391  13.227   7.965
45604SOL    HW238710   3.316  13.327   7.879
45605SOL     OW38711   6.333  14.282   5.460
45605SOL    HW138712   6.316  14.194   5.428
45605SOL    HW238713   6.422  14.302   5.429
45606SOL     OW38714   3.113   3.369   8.750
45606SOL    HW138715   3.094   3.339   8.839
45606SOL    HW238716   3.042   3.333   8.696
45607SOL     OW38717   1.104   8.246   2.683
45607SOL    HW138718   1.160   8.287   2.617
45607SOL    HW238719   1.098   8.155   2.655
45608SOL     OW38720  11.232   4.942   1.221
45608SOL    HW138721  11.198   4.951   1.132
45608SOL    HW238722  11.263   5.030   1.244
45609SOL     OW38723  10.961   3.342   5.107
45609SOL    HW138724  11.004   3.419   5.070
45609SOL    HW238725  10.911   3.305   5.035
45610SOL     OW38726   1.806  11.886   3.539
45610SOL    HW138727   1.810  11.803   3.587
45610SOL    HW238728   1.712  11.908   3.539
45611SOL     OW38729   7.285   1.640   9.436
45611SOL    HW138730   7.195   1.612   9.417
45611SOL    HW238731   7.337   1.560   9.423
45612SOL     OW38732   9.905  10.492  14.219
45612SOL    HW138733   9.898  10.519  14.310
45612SOL    HW238734   9.841  10.546  14.173
45613SOL     OW38735   8.833   3.694   8.258
45613SOL    HW138736   8.797   3.740   8.182
45613SOL    HW238737   8.766   3.704   8.325
45614SOL     OW38738  13.066   8.074   9.695
45614SOL    HW138739  13.034   7.997   9.649
45614SOL    HW238740  12.991   8.106   9.744
45615SOL     OW38741   2.309   5.023   0.766
45615SOL    HW138742   2.266   5.086   0.708
45615SOL    HW238743   2.335   5.074   0.842
45616SOL     OW38744  12.826   6.421  11.869
45616SOL    HW138745  12.863   6.503  11.901
45616SOL    HW238746  12.785   6.444  11.785
45617SOL     OW38747  10.743   7.651   3.213
45617SOL    HW138748  10.778   7.648   3.124
45617SOL    HW238749  10.755   7.741   3.241
45618SOL     OW38750  11.170   0.311   4.245
45618SOL    HW138751  11.127   0.264   4.174
45618SOL    HW238752  11.101   0.364   4.285
45619SOL     OW38753   2.875   6.486   0.381
45619SOL    HW138754   2.796   6.527   0.346
45619SOL    HW238755   2.858   6.392   0.374
45620SOL     OW38756  12.034   3.307  14.613
45620SOL    HW138757  11.978   3.231  14.632
45620SOL    HW238758  11.982   3.382  14.641
45621SOL     OW38759  12.850   3.783  12.471
45621SOL    HW138760  12.817   3.847  12.534
45621SOL    HW238761  12.851   3.829  12.387
45622SOL     OW38762   9.914  12.682  12.444
45622SOL    HW138763   9.839  12.660  12.500
45622SOL    HW238764   9.958  12.754  12.489
45623SOL     OW38765   6.143   0.884  11.606
45623SOL    HW138766   6.098   0.942  11.545
45623SOL    HW238767   6.088   0.885  11.685
45624SOL     OW38768   2.317   0.627   9.774
45624SOL    HW138769   2.386   0.584   9.825
45624SOL    HW238770   2.240   0.571   9.787
45625SOL     OW38771  14.246   6.521  12.871
45625SOL    HW138772  14.192   6.600  12.881
45625SOL    HW238773  14.185   6.449  12.882
45626SOL     OW38774   4.896   0.063   5.169
45626SOL    HW138775   4.951  14.887   5.215
45626SOL    HW238776   4.846   0.012   5.106
45627SOL     OW38777   0.747   1.729  10.269
45627SOL    HW138778   0.672   1.761  10.219
45627SOL    HW238779   0.751   1.636  10.247
45628SOL     OW38780   5.139   3.993  14.818
45628SOL    HW138781   5.202   3.944  14.871
45628SOL    HW238782   5.056   3.949  14.832
45629SOL     OW38783   8.482   5.950   8.819
45629SOL    HW138784   8.419   5.973   8.887
45629SOL    HW238785   8.434   5.958   8.737
45630SOL     OW38786  14.647   7.704   4.005
45630SOL    HW138787  14.607   7.745   4.081
45630SOL    HW238788  14.585   7.637   3.978
45631SOL     OW38789   2.432   2.040   4.447
45631SOL    HW138790   2.444   1.949   4.474
45631SOL    HW238791   2.465   2.043   4.357
45632SOL     OW38792  10.044  13.891  14.432
45632SOL    HW138793  10.053  13.841  14.350
45632SOL    HW238794  10.117  13.860  14.487
45633SOL     OW38795  10.352   7.953   7.154
45633SOL    HW138796  10.364   7.876   7.099
45633SOL    HW238797  10.300   8.014   7.102
45634SOL     OW38798   0.826  13.205   6.125
45634SOL    HW138799   0.915  13.172   6.138
45634SOL    HW238800   0.825  13.289   6.170
45635SOL     OW38801  12.911   5.421  11.776
45635SOL    HW138802  12.947   5.354  11.833
45635SOL    HW238803  12.847   5.469  11.830
45636SOL     OW38804   4.955   3.969   4.912
45636SOL    HW138805   4.888   3.925   4.859
45636SOL    HW238806   5.011   3.898   4.943
45637SOL     OW38807   3.728  12.121   2.190
45637SOL    HW138808   3.808  12.074   2.167
45637SOL    HW238809   3.671  12.054   2.226
45638SOL     OW38810   2.525   9.688  11.350
45638SOL    HW138811   2.549   9.748  11.421
45638SOL    HW238812   2.515   9.744  11.273
45639SOL     OW38813   1.629   7.586  10.426
45639SOL    HW138814   1.706   7.563  10.374
45639SOL    HW238815   1.659   7.581  10.517
45640SOL     OW38816  13.352   0.126   5.100
45640SOL    HW138817  13.337   0.176   5.019
45640SOL    HW238818  13.372   0.192   5.166
45641SOL     OW38819   9.629  12.514   6.103
45641SOL    HW138820   9.659  12.605   6.107
45641SOL    HW238821   9.664  12.481   6.020
45642SOL     OW38822   9.934   2.326  13.741
45642SOL    HW138823   9.964   2.236  13.752
45642SOL    HW238824   9.916   2.333  13.647
45643SOL     OW38825   5.813   2.310   4.684
45643SOL    HW138826   5.845   2.311   4.775
45643SOL    HW238827   5.774   2.396   4.671
45644SOL     OW38828   1.997  13.158   6.564
45644SOL    HW138829   2.013  13.252   6.563
45644SOL    HW238830   2.001  13.132   6.472
45645SOL     OW38831   4.029   0.738   5.280
45645SOL    HW138832   4.013   0.755   5.373
45645SOL    HW238833   4.073   0.653   5.278
45646SOL     OW38834   6.866  13.995   8.976
45646SOL    HW138835   6.863  13.922   8.914
45646SOL    HW238836   6.959  14.006   8.996
45647SOL     OW38837   5.959   8.061   8.497
45647SOL    HW138838   6.003   8.031   8.577
45647SOL    HW238839   6.023   8.117   8.454
45648SOL     OW38840   2.155   5.151   4.861
45648SOL    HW138841   2.063   5.135   4.843
45648SOL    HW238842   2.157   5.190   4.948
45649SOL     OW38843  11.942  13.686   7.215
45649SOL    HW138844  11.974  13.768   7.251
45649SOL    HW238845  12.016  13.626   7.220
45650SOL     OW38846   3.093   1.910   9.465
45650SOL    HW138847   3.072   1.882   9.554
45650SOL    HW238848   3.172   1.861   9.442
45651SOL     OW38849   1.645  13.733   9.461
45651SOL    HW138850   1.560  13.738   9.417
45651SOL    HW238851   1.709  13.743   9.391
45652SOL     OW38852   0.722  12.309  14.616
45652SOL    HW138853   0.725  12.216  14.638
45652SOL    HW238854   0.753  12.313  14.525
45653SOL     OW38855   7.538   8.751   4.971
45653SOL    HW138856   7.506   8.769   5.059
45653SOL    HW238857   7.549   8.837   4.931
45654SOL     OW38858   9.221   3.822   4.499
45654SOL    HW138859   9.236   3.828   4.594
45654SOL    HW238860   9.306   3.841   4.460
45655SOL     OW38861  11.373   9.514   8.447
45655SOL    HW138862  11.463   9.522   8.479
45655SOL    HW238863  11.382   9.476   8.359
45656SOL     OW38864   2.900  10.170  12.890
45656SOL    HW138865   2.862  10.187  12.804
45656SOL    HW238866   2.859  10.233  12.948
45657SOL     OW38867  11.501   6.908   7.962
45657SOL    HW138868  11.462   6.978   7.909
45657SOL    HW238869  11.594   6.931   7.967
45658SOL     OW38870   0.664   7.002  14.867
45658SOL    HW138871   0.584   6.950  14.868
45658SOL    HW238872   0.638   7.087   0.015
45659SOL     OW38873  13.307  12.236  13.199
45659SOL    HW138874  13.327  12.321  13.159
45659SOL    HW238875  13.278  12.258  13.288
45660SOL     OW38876   7.317  12.640   9.395
45660SOL    HW138877   7.366  12.684   9.325
45660SOL    HW238878   7.360  12.555   9.404
45661SOL     OW38879  12.059   8.535   2.966
45661SOL    HW138880  12.073   8.553   3.059
45661SOL    HW238881  12.053   8.621   2.925
45662SOL     OW38882  12.378   5.333   4.193
45662SOL    HW138883  12.398   5.346   4.101
45662SOL    HW238884  12.461   5.309   4.233
45663SOL     OW38885   3.584  11.442   3.990
45663SOL    HW138886   3.492  11.453   4.016
45663SOL    HW238887   3.580  11.392   3.908
45664SOL     OW38888   4.301   5.242  13.398
45664SOL    HW138889   4.257   5.284  13.471
45664SOL    HW238890   4.285   5.300  13.323
45665SOL     OW38891   2.985   5.566   4.009
45665SOL    HW138892   2.916   5.524   3.959
45665SOL    HW238893   2.952   5.568   4.099
45666SOL     OW38894  12.854   1.852   2.942
45666SOL    HW138895  12.929   1.833   2.998
45666SOL    HW238896  12.779   1.849   3.001
45667SOL     OW38897   2.166   2.899  11.423
45667SOL    HW138898   2.177   2.816  11.469
45667SOL    HW238899   2.162   2.965  11.493
45668SOL     OW38900   6.374   5.317   9.842
45668SOL    HW138901   6.433   5.366   9.900
45668SOL    HW238902   6.293   5.368   9.841
45669SOL     OW38903  10.215   1.053  12.592
45669SOL    HW138904  10.139   0.996  12.601
45669SOL    HW238905  10.279   1.000  12.543
45670SOL     OW38906  10.815   9.581   2.195
45670SOL    HW138907  10.905   9.548   2.184
45670SOL    HW238908  10.808   9.652   2.132
45671SOL     OW38909   2.477  12.998  11.240
45671SOL    HW138910   2.516  12.916  11.271
45671SOL    HW238911   2.402  13.012  11.298
45672SOL     OW38912   3.926   1.109   4.463
45672SOL    HW138913   3.931   1.086   4.371
45672SOL    HW238914   3.999   1.169   4.477
45673SOL     OW38915  11.759   2.172   0.466
45673SOL    HW138916  11.744   2.266   0.453
45673SOL    HW238917  11.771   2.138   0.377
45674SOL     OW38918  11.284   7.498   0.123
45674SOL    HW138919  11.307   7.444   0.199
45674SOL    HW238920  11.368   7.530   0.090
45675SOL     OW38921   3.576   0.871   5.034
45675SOL    HW138922   3.617   0.882   4.949
45675SOL    HW238923   3.641   0.823   5.086
45676SOL     OW38924   5.120   9.731   3.722
45676SOL    HW138925   5.207   9.700   3.695
45676SOL    HW238926   5.077   9.654   3.758
45677SOL     OW38927  12.907  11.049   4.352
45677SOL    HW138928  12.888  10.988   4.281
45677SOL    HW238929  12.836  11.113   4.349
45678SOL     OW38930   6.108   4.097   5.655
45678SOL    HW138931   6.077   4.014   5.621
45678SOL    HW238932   6.064   4.107   5.739
45679SOL     OW38933   6.047   4.440   7.578
45679SOL    HW138934   5.985   4.513   7.574
45679SOL    HW238935   6.121   4.468   7.525
45680SOL     OW38936  10.146   5.661  11.730
45680SOL    HW138937  10.172   5.570  11.740
45680SOL    HW238938  10.196   5.693  11.655
45681SOL     OW38939   5.483   5.036  14.569
45681SOL    HW138940   5.527   5.094  14.631
45681SOL    HW238941   5.550   5.016  14.503
45682SOL     OW38942   8.813  13.154   3.380
45682SOL    HW138943   8.763  13.201   3.314
45682SOL    HW238944   8.871  13.097   3.330
45683SOL     OW38945   7.804   1.986  14.021
45683SOL    HW138946   7.763   1.978  14.107
45683SOL    HW238947   7.893   1.954  14.033
45684SOL     OW38948   3.953   8.583   4.995
45684SOL    HW138949   3.860   8.581   5.015
45684SOL    HW238950   3.970   8.503   4.946
45685SOL     OW38951  10.553  14.628   7.960
45685SOL    HW138952  10.489  14.662   8.023
45685SOL    HW238953  10.620  14.586   8.013
45686SOL     OW38954   7.748  12.595  11.944
45686SOL    HW138955   7.734  12.519  11.887
45686SOL    HW238956   7.822  12.641  11.905
45687SOL     OW38957  13.282   0.732   3.487
45687SOL    HW138958  13.193   0.767   3.487
45687SOL    HW238959  13.275   0.649   3.439
45688SOL     OW38960  14.177   8.987   6.129
45688SOL    HW138961  14.158   8.904   6.171
45688SOL    HW238962  14.247   8.968   6.067
45689SOL     OW38963   5.759   6.446   9.126
45689SOL    HW138964   5.773   6.365   9.175
45689SOL    HW238965   5.834   6.451   9.066
45690SOL     OW38966   4.317   0.996  11.367
45690SOL    HW138967   4.308   0.902  11.351
45690SOL    HW238968   4.376   1.002  11.443
45691SOL     OW38969   7.329  10.794   2.607
45691SOL    HW138970   7.421  10.813   2.626
45691SOL    HW238971   7.281  10.868   2.645
45692SOL     OW38972  13.867   2.233  10.107
45692SOL    HW138973  13.887   2.314  10.154
45692SOL    HW238974  13.844   2.171  10.176
45693SOL     OW38975  14.108  12.614   7.443
45693SOL    HW138976  14.135  12.522   7.435
45693SOL    HW238977  14.062  12.619   7.526
45694SOL     OW38978   1.418   6.215  11.390
45694SOL    HW138979   1.402   6.125  11.361
45694SOL    HW238980   1.502   6.212  11.436
45695SOL     OW38981  13.122   9.483   0.741
45695SOL    HW138982  13.041   9.440   0.713
45695SOL    HW238983  13.123   9.566   0.694
45696SOL     OW38984  10.028  11.722  12.914
45696SOL    HW138985  10.069  11.666  12.980
45696SOL    HW238986   9.971  11.780  12.964
45697SOL     OW38987  14.290  13.433   4.756
45697SOL    HW138988  14.377  13.399   4.777
45697SOL    HW238989  14.252  13.367   4.698
45698SOL     OW38990  11.668  11.865   9.729
45698SOL    HW138991  11.710  11.921   9.795
45698SOL    HW238992  11.729  11.865   9.655
45699SOL     OW38993  11.629  14.757   9.269
45699SOL    HW138994  11.620  14.662   9.277
45699SOL    HW238995  11.698  14.780   9.332
45700SOL     OW38996   1.796   0.223   1.768
45700SOL    HW138997   1.890   0.203   1.763
45700SOL    HW238998   1.752   0.140   1.748
45701SOL     OW38999   6.401   7.624   5.962
45701SOL    HW139000   6.431   7.713   5.982
45701SOL    HW239001   6.359   7.594   6.042
45702SOL     OW39002   6.027   3.062   1.981
45702SOL    HW139003   5.982   2.992   1.933
45702SOL    HW239004   6.110   3.072   1.936
45703SOL     OW39005   4.828  12.837  11.073
45703SOL    HW139006   4.784  12.850  10.988
45703SOL    HW239007   4.913  12.800  11.051
45704SOL     OW39008  13.968   7.886   4.834
45704SOL    HW139009  13.872   7.884   4.827
45704SOL    HW239010  13.990   7.801   4.873
45705SOL     OW39011  10.743  12.136   1.022
45705SOL    HW139012  10.792  12.216   1.038
45705SOL    HW239013  10.711  12.109   1.108
45706SOL     OW39014  14.847   7.218  13.401
45706SOL    HW139015   0.048   7.183  13.389
45706SOL    HW239016  14.824   7.194  13.491
45707SOL     OW39017   3.986   1.130  10.872
45707SOL    HW139018   3.890   1.130  10.878
45707SOL    HW239019   4.014   1.165  10.957
45708SOL     OW39020   4.865   8.951  12.824
45708SOL    HW139021   4.924   9.025  12.841
45708SOL    HW239022   4.818   8.975  12.745
45709SOL     OW39023   7.294   2.481   0.157
45709SOL    HW139024   7.279   2.500   0.064
45709SOL    HW239025   7.381   2.441   0.160
45710SOL     OW39026  14.795  11.013   1.258
45710SOL    HW139027  14.753  10.988   1.175
45710SOL    HW239028  14.778  10.939   1.316
45711SOL     OW39029   7.047  12.391  14.048
45711SOL    HW139030   7.100  12.470  14.037
45711SOL    HW239031   7.069  12.337  13.971
45712SOL     OW39032   7.263  11.154   9.465
45712SOL    HW139033   7.356  11.137   9.455
45712SOL    HW239034   7.256  11.201   9.548
45713SOL     OW39035   8.492   6.090  10.311
45713SOL    HW139036   8.398   6.106  10.318
45713SOL    HW239037   8.498   6.000  10.278
45714SOL     OW39038   4.048  11.444  12.220
45714SOL    HW139039   4.091  11.480  12.297
45714SOL    HW239040   4.018  11.357  12.247
45715SOL     OW39041   5.887   7.216  13.982
45715SOL    HW139042   5.883   7.160  14.060
45715SOL    HW239043   5.946   7.169  13.923
45716SOL     OW39044   4.800   5.858  11.374
45716SOL    HW139045   4.732   5.905  11.325
45716SOL    HW239046   4.764   5.847  11.462
45717SOL     OW39047  12.800   0.960   2.191
45717SOL    HW139048  12.765   0.952   2.280
45717SOL    HW239049  12.813   0.869   2.163
45718SOL     OW39050   2.918   1.002   2.531
45718SOL    HW139051   2.957   1.088   2.542
45718SOL    HW239052   2.990   0.940   2.544
45719SOL     OW39053   0.785  10.805   6.853
45719SOL    HW139054   0.873  10.782   6.881
45719SOL    HW239055   0.765  10.743   6.783
45720SOL     OW39056   9.455  12.553  12.598
45720SOL    HW139057   9.453  12.484  12.531
45720SOL    HW239058   9.396  12.620  12.564
45721SOL     OW39059   0.948   4.032   6.541
45721SOL    HW139060   0.922   3.945   6.571
45721SOL    HW239061   1.022   4.056   6.597
45722SOL     OW39062   2.251   8.957  12.098
45722SOL    HW139063   2.200   8.877  12.104
45722SOL    HW239064   2.196   9.017  12.047
45723SOL     OW39065   7.272  12.636  10.036
45723SOL    HW139066   7.242  12.554   9.997
45723SOL    HW239067   7.357  12.653   9.995
45724SOL     OW39068   6.738  13.247  12.237
45724SOL    HW139069   6.741  13.159  12.274
45724SOL    HW239070   6.830  13.275  12.232
45725SOL     OW39071   2.831   5.369  11.777
45725SOL    HW139072   2.796   5.282  11.758
45725SOL    HW239073   2.770   5.407  11.840
45726SOL     OW39074   9.598   7.206  10.935
45726SOL    HW139075   9.523   7.188  10.991
45726SOL    HW239076   9.561   7.214  10.847
45727SOL     OW39077   6.999  13.466   4.290
45727SOL    HW139078   7.036  13.378   4.287
45727SOL    HW239079   6.955  13.470   4.376
45728SOL     OW39080   4.334  12.905   2.219
45728SOL    HW139081   4.283  12.826   2.199
45728SOL    HW239082   4.308  12.968   2.151
45729SOL     OW39083   1.157  10.681   1.692
45729SOL    HW139084   1.184  10.590   1.707
45729SOL    HW239085   1.122  10.681   1.603
45730SOL     OW39086   6.359   5.266  12.345
45730SOL    HW139087   6.361   5.221  12.260
45730SOL    HW239088   6.422   5.338  12.334
45731SOL     OW39089   6.957   3.115   3.538
45731SOL    HW139090   6.940   3.208   3.528
45731SOL    HW239091   6.934   3.076   3.453
45732SOL     OW39092   7.954  14.225   7.406
45732SOL    HW139093   8.016  14.299   7.409
45732SOL    HW239094   7.985  14.166   7.475
45733SOL     OW39095  12.538   1.022  10.395
45733SOL    HW139096  12.481   1.095  10.369
45733SOL    HW239097  12.553   1.036  10.489
45734SOL     OW39098  11.257   5.965  14.886
45734SOL    HW139099  11.241   5.871   0.000
45734SOL    HW239100  11.312   5.982   0.075
45735SOL     OW39101  11.909  12.839   1.616
45735SOL    HW139102  11.850  12.798   1.552
45735SOL    HW239103  11.997  12.818   1.584
45736SOL     OW39104   1.153   7.321   7.885
45736SOL    HW139105   1.194   7.240   7.855
45736SOL    HW239106   1.148   7.376   7.806
45737SOL     OW39107   4.096  12.908   6.875
45737SOL    HW139108   4.176  12.962   6.873
45737SOL    HW239109   4.129  12.818   6.877
45738SOL     OW39110  14.627   1.023   6.714
45738SOL    HW139111  14.644   1.109   6.675
45738SOL    HW239112  14.712   0.981   6.719
45739SOL     OW39113   2.989   4.662   6.945
45739SOL    HW139114   2.949   4.593   6.998
45739SOL    HW239115   2.918   4.693   6.888
45740SOL     OW39116   3.308  11.041  11.929
45740SOL    HW139117   3.258  11.119  11.904
45740SOL    HW239118   3.247  10.988  11.979
45741SOL     OW39119   6.124   4.910   3.538
45741SOL    HW139120   6.149   4.824   3.505
45741SOL    HW239121   6.126   4.900   3.633
45742SOL     OW39122   5.081   3.317  11.179
45742SOL    HW139123   5.176   3.328  11.184
45742SOL    HW239124   5.048   3.369  11.253
45743SOL     OW39125  14.168  13.276   8.997
45743SOL    HW139126  14.258  13.295   9.022
45743SOL    HW239127  14.168  13.183   8.974
45744SOL     OW39128   3.830   4.617   2.366
45744SOL    HW139129   3.824   4.531   2.325
45744SOL    HW239130   3.893   4.665   2.313
45745SOL     OW39131  14.013   5.178   0.197
45745SOL    HW139132  14.062   5.207   0.273
45745SOL    HW239133  14.080   5.153   0.133
45746SOL     OW39134   9.752  14.285  10.160
45746SOL    HW139135   9.773  14.192  10.151
45746SOL    HW239136   9.740  14.316  10.070
45747SOL     OW39137   1.612   4.908   8.995
45747SOL    HW139138   1.704   4.926   9.014
45747SOL    HW239139   1.593   4.826   9.041
45748SOL     OW39140   2.360   8.555   1.912
45748SOL    HW139141   2.317   8.635   1.941
45748SOL    HW239142   2.292   8.506   1.866
45749SOL     OW39143   2.433   7.960   1.682
45749SOL    HW139144   2.431   7.922   1.770
45749SOL    HW239145   2.458   8.051   1.695
45750SOL     OW39146   6.077   8.101   6.778
45750SOL    HW139147   6.093   8.062   6.693
45750SOL    HW239148   6.078   8.027   6.839
45751SOL     OW39149   7.941   0.949   5.600
45751SOL    HW139150   8.018   0.901   5.628
45751SOL    HW239151   7.975   1.023   5.549
45752SOL     OW39152  11.175  11.179   4.547
45752SOL    HW139153  11.210  11.123   4.616
45752SOL    HW239154  11.143  11.256   4.593
45753SOL     OW39155  10.852  10.434   5.017
45753SOL    HW139156  10.774  10.478   4.985
45753SOL    HW239157  10.892  10.396   4.939
45754SOL     OW39158   4.965   7.042   7.581
45754SOL    HW139159   4.961   6.968   7.642
45754SOL    HW239160   4.962   7.120   7.637
45755SOL     OW39161  12.563   7.562  11.911
45755SOL    HW139162  12.658   7.569  11.900
45755SOL    HW239163  12.535   7.651  11.935
45756SOL     OW39164  10.981  14.229  14.478
45756SOL    HW139165  10.903  14.247  14.425
45756SOL    HW239166  10.950  14.231  14.568
45757SOL     OW39167   9.890   1.629   8.403
45757SOL    HW139168   9.879   1.612   8.309
45757SOL    HW239169   9.922   1.546   8.438
45758SOL     OW39170  11.332   4.272   5.119
45758SOL    HW139171  11.279   4.337   5.074
45758SOL    HW239172  11.418   4.314   5.130
45759SOL     OW39173   2.429  10.378  13.654
45759SOL    HW139174   2.385  10.428  13.722
45759SOL    HW239175   2.402  10.287  13.670
45760SOL     OW39176  14.225   6.904   4.808
45760SOL    HW139177  14.129   6.910   4.802
45760SOL    HW239178  14.251   6.853   4.732
45761SOL     OW39179   0.869   5.592  14.260
45761SOL    HW139180   0.953   5.587  14.215
45761SOL    HW239181   0.872   5.522  14.325
45762SOL     OW39182   8.489  13.936  14.322
45762SOL    HW139183   8.467  13.985  14.400
45762SOL    HW239184   8.584  13.946  14.314
45763SOL     OW39185   7.037  12.800   0.487
45763SOL    HW139186   7.105  12.733   0.486
45763SOL    HW239187   7.007  12.803   0.578
45764SOL     OW39188   8.089   8.880   4.502
45764SOL    HW139189   8.100   8.785   4.494
45764SOL    HW239190   8.173   8.912   4.533
45765SOL     OW39191   6.354   3.056   8.689
45765SOL    HW139192   6.328   3.060   8.597
45765SOL    HW239193   6.443   3.021   8.688
45766SOL     OW39194  14.580   1.510   1.443
45766SOL    HW139195  14.525   1.474   1.513
45766SOL    HW239196  14.521   1.522   1.369
45767SOL     OW39197   1.786   3.262   6.288
45767SOL    HW139198   1.880   3.251   6.304
45767SOL    HW239199   1.745   3.247   6.373
45768SOL     OW39200   3.647  12.156   8.828
45768SOL    HW139201   3.591  12.168   8.751
45768SOL    HW239202   3.722  12.107   8.795
45769SOL     OW39203   7.826   3.987   4.180
45769SOL    HW139204   7.884   3.915   4.157
45769SOL    HW239205   7.836   4.050   4.109
45770SOL     OW39206  10.642  11.295   8.420
45770SOL    HW139207  10.646  11.201   8.398
45770SOL    HW239208  10.594  11.334   8.347
45771SOL     OW39209   9.945   0.959   5.927
45771SOL    HW139210   9.898   0.882   5.959
45771SOL    HW239211   9.982   0.931   5.843
45772SOL     OW39212  12.278   6.802  13.894
45772SOL    HW139213  12.295   6.883  13.941
45772SOL    HW239214  12.255   6.739  13.961
45773SOL     OW39215  14.121  11.003   6.485
45773SOL    HW139216  14.207  11.036   6.460
45773SOL    HW239217  14.066  11.081   6.493
45774SOL     OW39218   5.829   6.395  12.304
45774SOL    HW139219   5.735   6.392  12.288
45774SOL    HW239220   5.837   6.401  12.400
45775SOL     OW39221  12.649  14.440   3.580
45775SOL    HW139222  12.680  14.380   3.512
45775SOL    HW239223  12.594  14.503   3.533
45776SOL     OW39224   0.679   8.322  11.126
45776SOL    HW139225   0.619   8.337  11.053
45776SOL    HW239226   0.759   8.367  11.102
45777SOL     OW39227   5.610  13.986   2.612
45777SOL    HW139228   5.589  14.033   2.693
45777SOL    HW239229   5.690  14.027   2.580
45778SOL     OW39230  13.517   9.406  13.297
45778SOL    HW139231  13.605   9.374  13.277
45778SOL    HW239232  13.493   9.361  13.378
45779SOL     OW39233   0.693   2.757   7.298
45779SOL    HW139234   0.615   2.808   7.273
45779SOL    HW239235   0.666   2.666   7.289
45780SOL     OW39236  13.204   3.035   8.659
45780SOL    HW139237  13.206   3.108   8.721
45780SOL    HW239238  13.118   2.996   8.671
45781SOL     OW39239  13.414  11.268   4.558
45781SOL    HW139240  13.443  11.263   4.467
45781SOL    HW239241  13.331  11.315   4.554
45782SOL     OW39242  13.247   3.148   3.139
45782SOL    HW139243  13.320   3.148   3.077
45782SOL    HW239244  13.173   3.184   3.090
45783SOL     OW39245   1.526   7.695   9.879
45783SOL    HW139246   1.432   7.710   9.884
45783SOL    HW239247   1.535   7.600   9.871
45784SOL     OW39248  12.010   9.568   3.329
45784SOL    HW139249  12.061   9.526   3.259
45784SOL    HW239250  12.000   9.501   3.396
45785SOL     OW39251   5.045  14.182  10.588
45785SOL    HW139252   5.136  14.185  10.561
45785SOL    HW239253   5.034  14.096  10.627
45786SOL     OW39254   4.640  12.288  13.725
45786SOL    HW139255   4.595  12.339  13.658
45786SOL    HW239256   4.733  12.296  13.703
45787SOL     OW39257  13.249   2.992  13.068
45787SOL    HW139258  13.260   2.913  13.122
45787SOL    HW239259  13.203   2.961  12.990
45788SOL     OW39260   7.263   3.291  14.261
45788SOL    HW139261   7.323   3.316  14.332
45788SOL    HW239262   7.177   3.320  14.290
45789SOL     OW39263  13.538   4.944  13.748
45789SOL    HW139264  13.551   5.035  13.725
45789SOL    HW239265  13.579   4.934  13.834
45790SOL     OW39266   6.627   0.823   8.382
45790SOL    HW139267   6.665   0.823   8.294
45790SOL    HW239268   6.620   0.916   8.405
45791SOL     OW39269   9.645  10.226  10.187
45791SOL    HW139270   9.577  10.193  10.129
45791SOL    HW239271   9.718  10.248  10.129
45792SOL     OW39272   2.358   3.643   7.084
45792SOL    HW139273   2.345   3.555   7.119
45792SOL    HW239274   2.452   3.649   7.068
45793SOL     OW39275   0.109   4.969   1.110
45793SOL    HW139276   0.160   4.891   1.086
45793SOL    HW239277   0.174   5.030   1.145
45794SOL     OW39278   8.257   1.998   7.689
45794SOL    HW139279   8.180   1.941   7.698
45794SOL    HW239280   8.325   1.940   7.654
45795SOL     OW39281   0.225   3.679   9.926
45795SOL    HW139282   0.131   3.659   9.921
45795SOL    HW239283   0.231   3.749   9.990
45796SOL     OW39284   0.261   0.846   1.840
45796SOL    HW139285   0.349   0.880   1.825
45796SOL    HW239286   0.208   0.924   1.859
45797SOL     OW39287   2.435   0.349  12.320
45797SOL    HW139288   2.403   0.260  12.307
45797SOL    HW239289   2.442   0.385  12.231
45798SOL     OW39290  13.208   7.234  10.293
45798SOL    HW139291  13.219   7.177  10.369
45798SOL    HW239292  13.284   7.291  10.293
45799SOL     OW39293  10.946   3.623  11.385
45799SOL    HW139294  10.877   3.609  11.320
45799SOL    HW239295  10.955   3.718  11.390
45800SOL     OW39296   6.997  10.277   6.025
45800SOL    HW139297   7.083  10.251   6.058
45800SOL    HW239298   6.955  10.321   6.099
45801SOL     OW39299  10.132   4.570   3.704
45801SOL    HW139300  10.052   4.614   3.731
45801SOL    HW239301  10.102   4.486   3.669
45802SOL     OW39302   7.040   9.482   8.893
45802SOL    HW139303   7.131   9.500   8.869
45802SOL    HW239304   7.033   9.387   8.895
45803SOL     OW39305  11.889   9.131   5.886
45803SOL    HW139306  11.953   9.061   5.875
45803SOL    HW239307  11.942   9.210   5.896
45804SOL     OW39308   2.256   8.731   8.598
45804SOL    HW139309   2.351   8.739   8.609
45804SOL    HW239310   2.242   8.745   8.504
45805SOL     OW39311  10.341   0.663   2.155
45805SOL    HW139312  10.289   0.662   2.075
45805SOL    HW239313  10.324   0.748   2.194
45806SOL     OW39314  14.335   8.150   9.512
45806SOL    HW139315  14.308   8.161   9.421
45806SOL    HW239316  14.309   8.232   9.554
45807SOL     OW39317  13.966  11.426  11.920
45807SOL    HW139318  13.999  11.381  11.843
45807SOL    HW239319  13.974  11.519  11.899
45808SOL     OW39320   7.249   0.355  13.056
45808SOL    HW139321   7.160   0.391  13.054
45808SOL    HW239322   7.236   0.262  13.074
45809SOL     OW39323  12.990   1.901   3.198
45809SOL    HW139324  13.069   1.869   3.243
45809SOL    HW239325  12.962   1.977   3.250
45810SOL     OW39326  11.345   7.440   9.600
45810SOL    HW139327  11.434   7.475   9.598
45810SOL    HW239328  11.343   7.371   9.534
45811SOL     OW39329  14.779   2.090  12.151
45811SOL    HW139330  14.848   2.148  12.117
45811SOL    HW239331  14.737   2.054  12.073
45812SOL     OW39332   5.596   7.840  12.769
45812SOL    HW139333   5.564   7.922  12.730
45812SOL    HW239334   5.554   7.838  12.856
45813SOL     OW39335   1.284  13.215  11.137
45813SOL    HW139336   1.236  13.145  11.181
45813SOL    HW239337   1.288  13.187  11.046
45814SOL     OW39338   3.930   3.613   5.673
45814SOL    HW139339   3.890   3.660   5.746
45814SOL    HW239340   3.953   3.527   5.709
45815SOL     OW39341   1.580  13.303   0.323
45815SOL    HW139342   1.591  13.209   0.338
45815SOL    HW239343   1.656  13.327   0.270
45816SOL     OW39344  10.109  11.278   7.399
45816SOL    HW139345  10.131  11.293   7.307
45816SOL    HW239346  10.141  11.356   7.444
45817SOL     OW39347   9.065   8.295   6.237
45817SOL    HW139348   9.037   8.217   6.284
45817SOL    HW239349   8.985   8.346   6.224
45818SOL     OW39350   2.207  12.643   0.163
45818SOL    HW139351   2.216  12.725   0.210
45818SOL    HW239352   2.284  12.592   0.188
45819SOL     OW39353   9.432   5.615   2.306
45819SOL    HW139354   9.374   5.675   2.259
45819SOL    HW239355   9.440   5.540   2.248
45820SOL     OW39356   8.896   1.864  13.645
45820SOL    HW139357   8.941   1.874  13.729
45820SOL    HW239358   8.810   1.829  13.667
45821SOL     OW39359  13.642   1.315   0.259
45821SOL    HW139360  13.713   1.376   0.244
45821SOL    HW239361  13.662   1.240   0.202
45822SOL     OW39362   1.395   3.517  10.137
45822SOL    HW139363   1.354   3.433  10.157
45822SOL    HW239364   1.398   3.562  10.222
45823SOL     OW39365   2.945   8.642   8.205
45823SOL    HW139366   2.936   8.670   8.296
45823SOL    HW239367   2.887   8.567   8.197
45824SOL     OW39368  13.429   0.360   3.141
45824SOL    HW139369  13.466   0.271   3.136
45824SOL    HW239370  13.393   0.376   3.053
45825SOL     OW39371   1.788   3.287   3.891
45825SOL    HW139372   1.739   3.366   3.866
45825SOL    HW239373   1.720   3.220   3.901
45826SOL     OW39374   5.210  13.196   1.365
45826SOL    HW139375   5.250  13.235   1.287
45826SOL    HW239376   5.249  13.109   1.371
45827SOL     OW39377   5.382   4.254   3.812
45827SOL    HW139378   5.291   4.281   3.803
45827SOL    HW239379   5.408   4.226   3.724
45828SOL     OW39380   4.404   6.841   8.363
45828SOL    HW139381   4.374   6.932   8.354
45828SOL    HW239382   4.494   6.843   8.328
45829SOL     OW39383   4.781   5.356   3.098
45829SOL    HW139384   4.820   5.278   3.057
45829SOL    HW239385   4.840   5.376   3.170
45830SOL     OW39386   3.451   5.882   1.868
45830SOL    HW139387   3.382   5.902   1.931
45830SOL    HW239388   3.409   5.888   1.782
45831SOL     OW39389  11.817  12.926   5.569
45831SOL    HW139390  11.821  12.994   5.501
45831SOL    HW239391  11.754  12.960   5.632
45832SOL     OW39392  14.325   3.102   8.553
45832SOL    HW139393  14.314   3.007   8.555
45832SOL    HW239394  14.241   3.136   8.585
45833SOL     OW39395   8.044   3.932  14.561
45833SOL    HW139396   8.081   3.960  14.477
45833SOL    HW239397   8.120   3.905  14.612
45834SOL     OW39398   2.406   8.563   2.208
45834SOL    HW139399   2.432   8.618   2.133
45834SOL    HW239400   2.422   8.473   2.178
45835SOL     OW39401  14.704   4.602   4.995
45835SOL    HW139402  14.718   4.507   4.996
45835SOL    HW239403  14.636   4.615   4.929
45836SOL     OW39404   7.357  11.141   7.579
45836SOL    HW139405   7.297  11.159   7.507
45836SOL    HW239406   7.411  11.068   7.548
45837SOL     OW39407   0.613  13.574   4.531
45837SOL    HW139408   0.572  13.643   4.583
45837SOL    HW239409   0.543  13.542   4.474
45838SOL     OW39410   8.192   2.161  11.105
45838SOL    HW139411   8.144   2.223  11.160
45838SOL    HW239412   8.124   2.124  11.048
45839SOL     OW39413   2.244   2.852   3.036
45839SOL    HW139414   2.227   2.835   3.129
45839SOL    HW239415   2.290   2.774   3.006
45840SOL     OW39416   9.135  13.821  11.658
45840SOL    HW139417   9.116  13.890  11.594
45840SOL    HW239418   9.054  13.770  11.664
45841SOL     OW39419   2.036   4.882   8.856
45841SOL    HW139420   2.009   4.907   8.768
45841SOL    HW239421   2.115   4.830   8.843
45842SOL     OW39422  12.068  13.867   7.375
45842SOL    HW139423  12.139  13.906   7.323
45842SOL    HW239424  12.090  13.889   7.466
45843SOL     OW39425  11.661  13.603  10.629
45843SOL    HW139426  11.755  13.621  10.630
45843SOL    HW239427  11.653  13.517  10.671
45844SOL     OW39428   9.944  12.265  10.378
45844SOL    HW139429   9.865  12.229  10.417
45844SOL    HW239430   9.920  12.355  10.354
45845SOL     OW39431   5.897   8.083   6.438
45845SOL    HW139432   5.974   8.122   6.396
45845SOL    HW239433   5.917   7.989   6.442
45846SOL     OW39434   9.223  10.818  12.955
45846SOL    HW139435   9.272  10.746  12.996
45846SOL    HW239436   9.259  10.825  12.867
45847SOL     OW39437   5.798   2.599  12.321
45847SOL    HW139438   5.722   2.570  12.372
45847SOL    HW239439   5.849   2.652  12.382
45848SOL     OW39440  11.809  13.372   5.037
45848SOL    HW139441  11.883  13.423   5.005
45848SOL    HW239442  11.757  13.433   5.089
45849SOL     OW39443   9.786   1.080   5.661
45849SOL    HW139444   9.849   1.089   5.589
45849SOL    HW239445   9.840   1.056   5.736
45850SOL     OW39446   8.586   1.995   3.088
45850SOL    HW139447   8.533   1.942   3.148
45850SOL    HW239448   8.572   2.085   3.118
45851SOL     OW39449  13.696   7.198   0.808
45851SOL    HW139450  13.614   7.229   0.771
45851SOL    HW239451  13.674   7.164   0.894
45852SOL     OW39452  14.442  11.393   8.077
45852SOL    HW139453  14.380  11.458   8.110
45852SOL    HW239454  14.390  11.335   8.023
45853SOL     OW39455   3.458   8.182   3.613
45853SOL    HW139456   3.534   8.144   3.657
45853SOL    HW239457   3.482   8.273   3.598
45854SOL     OW39458   7.224  11.509  10.924
45854SOL    HW139459   7.193  11.528  10.835
45854SOL    HW239460   7.313  11.544  10.926
45855SOL     OW39461  14.367   4.757   5.464
45855SOL    HW139462  14.298   4.699   5.430
45855SOL    HW239463  14.431   4.697   5.502
45856SOL     OW39464   0.431  14.049  13.597
45856SOL    HW139465   0.451  14.105  13.672
45856SOL    HW239466   0.335  14.044  13.595
45857SOL     OW39467   9.346   8.353   1.560
45857SOL    HW139468   9.361   8.275   1.613
45857SOL    HW239469   9.289   8.323   1.489
45858SOL     OW39470   4.615  11.977   0.735
45858SOL    HW139471   4.561  11.898   0.735
45858SOL    HW239472   4.581  12.029   0.662
45859SOL     OW39473   0.245  10.507   4.115
45859SOL    HW139474   0.215  10.570   4.180
45859SOL    HW239475   0.249  10.424   4.162
45860SOL     OW39476  14.723  11.406  13.573
45860SOL    HW139477  14.776  11.338  13.614
45860SOL    HW239478  14.720  11.476  13.638
45861SOL     OW39479   6.642  12.542   2.797
45861SOL    HW139480   6.603  12.455   2.807
45861SOL    HW239481   6.725  12.526   2.752
45862SOL     OW39482   5.791   1.910  10.918
45862SOL    HW139483   5.785   1.903  11.013
45862SOL    HW239484   5.701   1.916  10.888
45863SOL     OW39485   7.208   2.520   1.155
45863SOL    HW139486   7.119   2.497   1.129
45863SOL    HW239487   7.197   2.590   1.219
45864SOL     OW39488   2.187  11.213  13.483
45864SOL    HW139489   2.156  11.159  13.410
45864SOL    HW239490   2.229  11.151  13.543
45865SOL     OW39491  14.511   0.978   2.607
45865SOL    HW139492  14.417   0.986   2.588
45865SOL    HW239493  14.553   0.985   2.521
45866SOL     OW39494   7.231  11.476   7.389
45866SOL    HW139495   7.203  11.385   7.400
45866SOL    HW239496   7.204  11.498   7.300
45867SOL     OW39497   0.154  13.110  11.442
45867SOL    HW139498   0.085  13.062  11.489
45867SOL    HW239499   0.130  13.202  11.452
45868SOL     OW39500   3.055   8.733   4.336
45868SOL    HW139501   3.084   8.705   4.250
45868SOL    HW239502   2.960   8.724   4.334
45869SOL     OW39503   3.050   6.945   2.195
45869SOL    HW139504   2.976   6.960   2.136
45869SOL    HW239505   3.031   7.000   2.270
45870SOL     OW39506   1.217   0.398  12.702
45870SOL    HW139507   1.132   0.424  12.669
45870SOL    HW239508   1.263   0.480  12.721
45871SOL     OW39509   1.677   7.865   8.470
45871SOL    HW139510   1.754   7.838   8.520
45871SOL    HW239511   1.693   7.956   8.448
45872SOL     OW39512   2.078   9.277  13.285
45872SOL    HW139513   2.008   9.342  13.296
45872SOL    HW239514   2.099   9.249  13.374
45873SOL     OW39515   0.035  13.202   2.057
45873SOL    HW139516  14.869  13.213   2.136
45873SOL    HW239517   0.111  13.151   2.086
45874SOL     OW39518  13.216  10.273   0.751
45874SOL    HW139519  13.159  10.250   0.678
45874SOL    HW239520  13.298  10.228   0.733
45875SOL     OW39521   0.285   2.821   8.997
45875SOL    HW139522   0.319   2.753   9.054
45875SOL    HW239523   0.207   2.783   8.957
45876SOL     OW39524  11.895   1.251   9.578
45876SOL    HW139525  11.976   1.200   9.566
45876SOL    HW239526  11.859   1.259   9.489
45877SOL     OW39527   0.173   2.150   8.124
45877SOL    HW139528   0.191   2.234   8.081
45877SOL    HW239529   0.132   2.175   8.207
45878SOL     OW39530   4.200  12.083   7.031
45878SOL    HW139531   4.254  12.137   6.973
45878SOL    HW239532   4.123  12.060   6.978
45879SOL     OW39533   3.054   7.376  13.129
45879SOL    HW139534   3.078   7.433  13.203
45879SOL    HW239535   3.136   7.362  13.083
45880SOL     OW39536  12.432  10.804  14.277
45880SOL    HW139537  12.520  10.774  14.302
45880SOL    HW239538  12.423  10.889  14.321
45881SOL     OW39539   0.159   7.256   9.063
45881SOL    HW139540   0.239   7.211   9.090
45881SOL    HW239541   0.189   7.343   9.037
45882SOL     OW39542  13.682  11.397   6.972
45882SOL    HW139543  13.605  11.445   6.942
45882SOL    HW239544  13.723  11.363   6.892
45883SOL     OW39545   4.829   4.645  14.486
45883SOL    HW139546   4.900   4.706  14.466
45883SOL    HW239547   4.809   4.662  14.579
45884SOL     OW39548  14.056  12.507   6.459
45884SOL    HW139549  14.028  12.561   6.533
45884SOL    HW239550  13.976  12.462   6.431
45885SOL     OW39551   0.929   6.306   2.187
45885SOL    HW139552   0.866   6.366   2.148
45885SOL    HW239553   0.925   6.325   2.281
45886SOL     OW39554  10.735   9.820  11.286
45886SOL    HW139555  10.673   9.830  11.358
45886SOL    HW239556  10.817   9.794  11.328
45887SOL     OW39557   7.739  10.709  11.076
45887SOL    HW139558   7.671  10.711  11.010
45887SOL    HW239559   7.803  10.646  11.043
45888SOL     OW39560  14.333   7.519  11.042
45888SOL    HW139561  14.408   7.541  11.099
45888SOL    HW239562  14.373   7.483  10.963
45889SOL     OW39563   8.299   1.351   6.570
45889SOL    HW139564   8.343   1.267   6.585
45889SOL    HW239565   8.301   1.362   6.475
45890SOL     OW39566   0.086   3.317   9.121
45890SOL    HW139567   0.123   3.289   9.204
45890SOL    HW239568   0.108   3.247   9.060
45891SOL     OW39569  11.276   4.709   1.583
45891SOL    HW139570  11.334   4.773   1.542
45891SOL    HW239571  11.265   4.741   1.673
45892SOL     OW39572   0.981   2.841   4.249
45892SOL    HW139573   0.887   2.856   4.253
45892SOL    HW239574   0.999   2.827   4.156
45893SOL     OW39575  12.965  10.898  11.323
45893SOL    HW139576  13.060  10.896  11.332
45893SOL    HW239577  12.940  10.987  11.346
45894SOL     OW39578  11.076   6.498  14.441
45894SOL    HW139579  11.096   6.407  14.462
45894SOL    HW239580  10.987   6.496  14.406
45895SOL     OW39581   3.745   0.549   0.388
45895SOL    HW139582   3.721   0.469   0.436
45895SOL    HW239583   3.831   0.529   0.351
45896SOL     OW39584   4.291   4.380   5.163
45896SOL    HW139585   4.288   4.371   5.068
45896SOL    HW239586   4.368   4.434   5.180
45897SOL     OW39587   8.439  14.187  13.317
45897SOL    HW139588   8.480  14.163  13.400
45897SOL    HW239589   8.437  14.106  13.266
45898SOL     OW39590   5.929   8.552   2.604
45898SOL    HW139591   6.013   8.555   2.648
45898SOL    HW239592   5.949   8.573   2.512
45899SOL     OW39593   3.512   9.033   7.916
45899SOL    HW139594   3.511   9.122   7.880
45899SOL    HW239595   3.463   9.040   7.998
45900SOL     OW39596   3.970  12.290   1.144
45900SOL    HW139597   4.059  12.286   1.178
45900SOL    HW239598   3.932  12.368   1.183
45901SOL     OW39599   7.172  14.257   4.303
45901SOL    HW139600   7.144  14.172   4.269
45901SOL    HW239601   7.192  14.309   4.226
45902SOL     OW39602  11.563   1.789   0.913
45902SOL    HW139603  11.558   1.699   0.946
45902SOL    HW239604  11.502   1.838   0.968
45903SOL     OW39605   8.469   8.486   5.786
45903SOL    HW139606   8.550   8.537   5.792
45903SOL    HW239607   8.404   8.537   5.833
45904SOL     OW39608   2.386   2.570  11.647
45904SOL    HW139609   2.313   2.597  11.703
45904SOL    HW239610   2.417   2.488  11.684
45905SOL     OW39611   8.047   8.450  11.528
45905SOL    HW139612   7.980   8.385  11.509
45905SOL    HW239613   8.021   8.527  11.477
45906SOL     OW39614  11.471   8.535  10.653
45906SOL    HW139615  11.512   8.507  10.571
45906SOL    HW239616  11.441   8.624  10.636
45907SOL     OW39617  11.061  11.454   1.897
45907SOL    HW139618  10.969  11.434   1.913
45907SOL    HW239619  11.080  11.414   1.813
45908SOL     OW39620   0.907  12.726  13.940
45908SOL    HW139621   0.900  12.634  13.963
45908SOL    HW239622   0.984  12.757  13.986
45909SOL     OW39623  12.369  12.764  11.288
45909SOL    HW139624  12.425  12.841  11.274
45909SOL    HW239625  12.397  12.702  11.221
45910SOL     OW39626   1.482   7.067   8.693
45910SOL    HW139627   1.563   7.076   8.742
45910SOL    HW239628   1.490   7.130   8.621
45911SOL     OW39629   7.023   0.870  11.467
45911SOL    HW139630   7.086   0.914  11.409
45911SOL    HW239631   6.954   0.839  11.408
45912SOL     OW39632   0.820   2.997  12.157
45912SOL    HW139633   0.797   2.968  12.068
45912SOL    HW239634   0.847   2.916  12.201
45913SOL     OW39635  10.102   5.353   3.929
45913SOL    HW139636  10.110   5.264   3.963
45913SOL    HW239637  10.148   5.351   3.846
45914SOL     OW39638   8.119   8.788  13.657
45914SOL    HW139639   8.068   8.711  13.680
45914SOL    HW239640   8.085   8.858  13.714
45915SOL     OW39641  11.169   3.967  13.262
45915SOL    HW139642  11.133   4.017  13.189
45915SOL    HW239643  11.093   3.938  13.312
45916SOL     OW39644   3.256   2.352   3.425
45916SOL    HW139645   3.196   2.419   3.393
45916SOL    HW239646   3.246   2.279   3.364
45917SOL     OW39647   0.766   4.682  12.484
45917SOL    HW139648   0.813   4.604  12.452
45917SOL    HW239649   0.689   4.647  12.529
45918SOL     OW39650   6.641  13.401   7.594
45918SOL    HW139651   6.585  13.458   7.647
45918SOL    HW239652   6.608  13.409   7.505
45919SOL     OW39653   6.891   6.494  13.725
45919SOL    HW139654   6.935   6.448  13.654
45919SOL    HW239655   6.962   6.532  13.777
45920SOL     OW39656  13.306   9.692   4.849
45920SOL    HW139657  13.331   9.748   4.776
45920SOL    HW239658  13.338   9.605   4.825
45921SOL     OW39659   2.541   1.784  14.021
45921SOL    HW139660   2.495   1.787  13.938
45921SOL    HW239661   2.492   1.721  14.074
45922SOL     OW39662  13.708  12.057  11.943
45922SOL    HW139663  13.762  11.980  11.958
45922SOL    HW239664  13.735  12.088  11.856
45923SOL     OW39665   9.224  14.625   9.213
45923SOL    HW139666   9.187  14.537   9.224
45923SOL    HW239667   9.158  14.673   9.162
45924SOL     OW39668   2.275   5.679   1.451
45924SOL    HW139669   2.230   5.749   1.405
45924SOL    HW239670   2.240   5.681   1.540
45925SOL     OW39671   0.124  13.780  14.837
45925SOL    HW139672   0.196  13.806   0.007
45925SOL    HW239673   0.088  13.702  14.877
45926SOL     OW39674  12.338  10.716  10.578
45926SOL    HW139675  12.401  10.647  10.600
45926SOL    HW239676  12.357  10.738  10.487
45927SOL     OW39677   4.132  11.532   4.809
45927SOL    HW139678   4.069  11.461   4.799
45927SOL    HW239679   4.097  11.585   4.880
45928SOL     OW39680  11.738  14.601   8.844
45928SOL    HW139681  11.646  14.601   8.816
45928SOL    HW239682  11.781  14.661   8.784
45929SOL     OW39683  12.062  12.831  14.254
45929SOL    HW139684  12.074  12.774  14.329
45929SOL    HW239685  12.073  12.920  14.288
45930SOL     OW39686  14.707   4.442  12.376
45930SOL    HW139687  14.749   4.448  12.290
45930SOL    HW239688  14.622   4.484  12.364
45931SOL     OW39689   4.762   5.753   8.644
45931SOL    HW139690   4.837   5.779   8.591
45931SOL    HW239691   4.695   5.730   8.579
45932SOL     OW39692   6.605   2.016   9.010
45932SOL    HW139693   6.526   2.001   8.958
45932SOL    HW239694   6.645   1.930   9.020
45933SOL     OW39695   0.603  13.961   6.827
45933SOL    HW139696   0.659  13.926   6.897
45933SOL    HW239697   0.514  13.951   6.860
45934SOL     OW39698  12.052   9.120   2.806
45934SOL    HW139699  12.039   9.030   2.837
45934SOL    HW239700  12.133   9.149   2.849
45935SOL     OW39701  10.192  12.311   9.559
45935SOL    HW139702  10.191  12.218   9.536
45935SOL    HW239703  10.222  12.355   9.480
45936SOL     OW39704   8.056   5.467   2.282
45936SOL    HW139705   7.962   5.463   2.262
45936SOL    HW239706   8.062   5.441   2.374
45937SOL     OW39707   7.827   1.595   9.973
45937SOL    HW139708   7.893   1.621   9.909
45937SOL    HW239709   7.744   1.609   9.928
45938SOL     OW39710   7.401   3.296   8.618
45938SOL    HW139711   7.309   3.320   8.609
45938SOL    HW239712   7.400   3.201   8.631
45939SOL     OW39713  10.191  12.023   3.767
45939SOL    HW139714  10.133  12.064   3.831
45939SOL    HW239715  10.132  11.995   3.696
45940SOL     OW39716   9.207   7.002   2.070
45940SOL    HW139717   9.263   7.008   2.147
45940SOL    HW239718   9.160   6.919   2.080
45941SOL     OW39719  10.264   0.200  12.914
45941SOL    HW139720  10.235   0.123  12.962
45941SOL    HW239721  10.312   0.252  12.978
45942SOL     OW39722   0.969  11.703   4.142
45942SOL    HW139723   0.938  11.677   4.229
45942SOL    HW239724   0.977  11.798   4.147
45943SOL     OW39725   6.499   1.148  10.677
45943SOL    HW139726   6.443   1.079  10.642
45943SOL    HW239727   6.529   1.197  10.600
45944SOL     OW39728   8.911   9.562   5.990
45944SOL    HW139729   8.942   9.529   6.074
45944SOL    HW239730   8.974   9.527   5.926
45945SOL     OW39731  12.406   2.624   9.280
45945SOL    HW139732  12.316   2.615   9.310
45945SOL    HW239733  12.414   2.561   9.209
45946SOL     OW39734   3.269  10.534  10.483
45946SOL    HW139735   3.233  10.498  10.564
45946SOL    HW239736   3.192  10.555  10.430
45947SOL     OW39737   9.985   0.969   4.819
45947SOL    HW139738   9.953   1.054   4.850
45947SOL    HW239739  10.050   0.990   4.753
45948SOL     OW39740  14.271  14.397   8.680
45948SOL    HW139741  14.216  14.471   8.652
45948SOL    HW239742  14.274  14.339   8.604
45949SOL     OW39743   3.053  11.199   9.749
45949SOL    HW139744   3.068  11.282   9.704
45949SOL    HW239745   3.012  11.143   9.683
45950SOL     OW39746   0.420   4.247   0.180
45950SOL    HW139747   0.468   4.254   0.098
45950SOL    HW239748   0.484   4.267   0.247
45951SOL     OW39749  11.403  14.595  11.387
45951SOL    HW139750  11.342  14.630  11.451
45951SOL    HW239751  11.488  14.597  11.431
45952SOL     OW39752   4.532   6.332   0.866
45952SOL    HW139753   4.494   6.420   0.858
45952SOL    HW239754   4.529   6.296   0.778
45953SOL     OW39755   1.036  11.889   7.973
45953SOL    HW139756   1.010  11.953   7.908
45953SOL    HW239757   0.959  11.834   7.984
45954SOL     OW39758   2.303   8.788   5.392
45954SOL    HW139759   2.345   8.804   5.307
45954SOL    HW239760   2.374   8.797   5.456
45955SOL     OW39761  11.118  11.770   8.347
45955SOL    HW139762  11.183  11.709   8.312
45955SOL    HW239763  11.144  11.856   8.312
45956SOL     OW39764  13.255  10.653   5.986
45956SOL    HW139765  13.175  10.631   6.034
45956SOL    HW239766  13.270  10.579   5.928
45957SOL     OW39767  11.394  12.188  13.302
45957SOL    HW139768  11.325  12.167  13.365
45957SOL    HW239769  11.375  12.278  13.275
45958SOL     OW39770   1.873   0.561   0.791
45958SOL    HW139771   1.842   0.523   0.873
45958SOL    HW239772   1.956   0.603   0.814
45959SOL     OW39773   9.085   7.388  10.465
45959SOL    HW139774   9.009   7.441  10.439
45959SOL    HW239775   9.065   7.361  10.555
45960SOL     OW39776   7.542   5.519   5.705
45960SOL    HW139777   7.513   5.466   5.631
45960SOL    HW239778   7.462   5.549   5.747
45961SOL     OW39779  12.835   4.483   8.306
45961SOL    HW139780  12.871   4.396   8.320
45961SOL    HW239781  12.756   4.469   8.255
45962SOL     OW39782   4.414  13.344  10.110
45962SOL    HW139783   4.400  13.371  10.200
45962SOL    HW239784   4.505  13.313  10.108
45963SOL     OW39785   7.195   8.020  11.814
45963SOL    HW139786   7.176   7.926  11.808
45963SOL    HW239787   7.289   8.026  11.798
45964SOL     OW39788  10.056   7.797  11.610
45964SOL    HW139789  10.068   7.761  11.522
45964SOL    HW239790  10.124   7.864  11.618
45965SOL     OW39791   1.749   4.858   2.337
45965SOL    HW139792   1.748   4.954   2.335
45965SOL    HW239793   1.817   4.833   2.276
45966SOL     OW39794   0.424   7.271   9.135
45966SOL    HW139795   0.472   7.205   9.085
45966SOL    HW239796   0.441   7.354   9.089
45967SOL     OW39797  10.409   7.141   1.418
45967SOL    HW139798  10.497   7.174   1.398
45967SOL    HW239799  10.367   7.132   1.333
45968SOL     OW39800   0.349  13.966  12.100
45968SOL    HW139801   0.415  13.987  12.035
45968SOL    HW239802   0.322  14.051  12.136
45969SOL     OW39803  12.959   1.440   9.539
45969SOL    HW139804  13.012   1.504   9.492
45969SOL    HW239805  13.008   1.359   9.534
45970SOL     OW39806  11.115  14.681   4.478
45970SOL    HW139807  11.204  14.716   4.474
45970SOL    HW239808  11.070  14.736   4.542
45971SOL     OW39809   1.136  13.735   2.449
45971SOL    HW139810   1.068  13.675   2.418
45971SOL    HW239811   1.155  13.791   2.374
45972SOL     OW39812  14.640   3.093   6.150
45972SOL    HW139813  14.649   3.174   6.200
45972SOL    HW239814  14.669   3.116   6.062
45973SOL     OW39815   4.397   4.637   1.489
45973SOL    HW139816   4.403   4.723   1.449
45973SOL    HW239817   4.303   4.626   1.508
45974SOL     OW39818  10.789   3.584  10.529
45974SOL    HW139819  10.844   3.650  10.487
45974SOL    HW239820  10.743   3.542  10.457
45975SOL     OW39821   5.293  11.957  11.468
45975SOL    HW139822   5.286  12.013  11.546
45975SOL    HW239823   5.386  11.938  11.461
45976SOL     OW39824   0.056   0.841   0.566
45976SOL    HW139825   0.032   0.842   0.473
45976SOL    HW239826   0.077   0.932   0.587
45977SOL     OW39827  10.986   5.093   1.095
45977SOL    HW139828  10.894   5.108   1.071
45977SOL    HW239829  11.023   5.046   1.020
45978SOL     OW39830   1.178  13.382  12.008
45978SOL    HW139831   1.226  13.322  12.065
45978SOL    HW239832   1.102  13.409  12.059
45979SOL     OW39833  13.600   4.357  10.613
45979SOL    HW139834  13.589   4.272  10.571
45979SOL    HW239835  13.601   4.420  10.541
45980SOL     OW39836  10.933   0.191   9.765
45980SOL    HW139837  10.867   0.255   9.737
45980SOL    HW239838  10.923   0.118   9.703
45981SOL     OW39839  14.500  12.116   2.049
45981SOL    HW139840  14.565  12.184   2.069
45981SOL    HW239841  14.454  12.150   1.972
45982SOL     OW39842   0.197   6.973   0.282
45982SOL    HW139843   0.289   6.995   0.296
45982SOL    HW239844   0.170   7.028   0.208
45983SOL     OW39845   0.769   3.569   7.814
45983SOL    HW139846   0.722   3.489   7.790
45983SOL    HW239847   0.857   3.557   7.778
45984SOL     OW39848   4.695   4.092   5.004
45984SOL    HW139849   4.619   4.086   4.947
45984SOL    HW239850   4.765   4.050   4.955
45985SOL     OW39851   0.272  14.509   8.449
45985SOL    HW139852   0.210  14.535   8.518
45985SOL    HW239853   0.338  14.456   8.495
45986SOL     OW39854  11.813   5.393   1.347
45986SOL    HW139855  11.832   5.337   1.423
45986SOL    HW239856  11.719   5.384   1.333
45987SOL     OW39857   4.256   9.252  11.833
45987SOL    HW139858   4.192   9.185  11.811
45987SOL    HW239859   4.206   9.320  11.879
45988SOL     OW39860   0.623  14.262   1.811
45988SOL    HW139861   0.580  14.273   1.726
45988SOL    HW239862   0.555  14.226   1.868
45989SOL     OW39863   6.210   0.706  13.397
45989SOL    HW139864   6.264   0.669  13.326
45989SOL    HW239865   6.242   0.663  13.476
45990SOL     OW39866   5.433   4.322   8.978
45990SOL    HW139867   5.496   4.321   8.906
45990SOL    HW239868   5.467   4.257   9.040
45991SOL     OW39869  11.725   3.796  12.656
45991SOL    HW139870  11.770   3.730  12.710
45991SOL    HW239871  11.637   3.801  12.692
45992SOL     OW39872   0.663  11.914   9.171
45992SOL    HW139873   0.687  12.004   9.191
45992SOL    HW239874   0.584  11.898   9.222
45993SOL     OW39875  14.329   0.090   6.505
45993SOL    HW139876  14.344   0.073   6.598
45993SOL    HW239877  14.376   0.020   6.460
45994SOL     OW39878   9.252  12.189   6.431
45994SOL    HW139879   9.305  12.264   6.405
45994SOL    HW239880   9.215  12.214   6.516
45995SOL     OW39881   4.713   7.097   5.501
45995SOL    HW139882   4.678   7.010   5.522
45995SOL    HW239883   4.656   7.158   5.548
45996SOL     OW39884  10.206   0.651   1.906
45996SOL    HW139885  10.275   0.632   1.842
45996SOL    HW239886  10.145   0.708   1.859
45997SOL     OW39887   2.391  12.361   0.459
45997SOL    HW139888   2.400  12.401   0.372
45997SOL    HW239889   2.338  12.424   0.508
45998SOL     OW39890   1.627   5.222   7.152
45998SOL    HW139891   1.717   5.189   7.157
45998SOL    HW239892   1.636   5.313   7.126
45999SOL     OW39893   7.064   0.393  14.217
45999SOL    HW139894   7.036   0.350  14.297
45999SOL    HW239895   7.158   0.407  14.229
46000SOL     OW39896  13.290   8.784  12.395
46000SOL    HW139897  13.331   8.763  12.311
46000SOL    HW239898  13.210   8.832  12.371
46001SOL     OW39899  14.649  12.944   7.768
46001SOL    HW139900  14.693  12.892   7.701
46001SOL    HW239901  14.585  12.884   7.807
46002SOL     OW39902  10.096   0.897  10.473
46002SOL    HW139903  10.154   0.972  10.486
46002SOL    HW239904  10.029   0.906  10.540
46003SOL     OW39905   4.774   1.341  11.421
46003SOL    HW139906   4.689   1.370  11.455
46003SOL    HW239907   4.759   1.329  11.327
46004SOL     OW39908   9.511   9.566  10.480
46004SOL    HW139909   9.430   9.517  10.494
46004SOL    HW239910   9.542   9.587  10.568
46005SOL     OW39911   7.595   7.987   4.021
46005SOL    HW139912   7.583   8.065   3.967
46005SOL    HW239913   7.651   8.017   4.094
46006SOL     OW39914   1.855   8.264   8.628
46006SOL    HW139915   1.826   8.181   8.665
46006SOL    HW239916   1.911   8.240   8.554
46007SOL     OW39917   6.995  12.711   7.063
46007SOL    HW139918   6.971  12.798   7.094
46007SOL    HW239919   6.912  12.668   7.045
46008SOL     OW39920   4.306   9.027  10.046
46008SOL    HW139921   4.354   8.977  10.111
46008SOL    HW239922   4.253   8.962   9.999
46009SOL     OW39923  11.654  10.880   3.551
46009SOL    HW139924  11.698  10.926   3.623
46009SOL    HW239925  11.569  10.923   3.544
46010SOL     OW39926   4.847   2.193   8.979
46010SOL    HW139927   4.799   2.251   9.038
46010SOL    HW239928   4.800   2.109   8.984
46011SOL     OW39929  14.176   9.115   8.055
46011SOL    HW139930  14.086   9.083   8.062
46011SOL    HW239931  14.167   9.203   8.019
46012SOL     OW39932   3.529   1.264   0.768
46012SOL    HW139933   3.474   1.341   0.754
46012SOL    HW239934   3.562   1.242   0.681
46013SOL     OW39935  14.133   5.115   7.271
46013SOL    HW139936  14.118   5.175   7.344
46013SOL    HW239937  14.196   5.051   7.305
46014SOL     OW39938   3.023   8.576   7.614
46014SOL    HW139939   3.109   8.550   7.646
46014SOL    HW239940   3.042   8.639   7.544
46015SOL     OW39941   8.202   1.165  12.009
46015SOL    HW139942   8.294   1.145  11.996
46015SOL    HW239943   8.201   1.252  12.051
46016SOL     OW39944  10.384   5.262   7.852
46016SOL    HW139945  10.348   5.197   7.912
46016SOL    HW239946  10.378   5.221   7.765
46017SOL     OW39947  10.270   1.248  11.282
46017SOL    HW139948  10.325   1.183  11.325
46017SOL    HW239949  10.200   1.197  11.241
46018SOL     OW39950   6.626  14.789   4.274
46018SOL    HW139951   6.684  14.733   4.326
46018SOL    HW239952   6.643  14.763   4.183
46019SOL     OW39953   0.697  11.730   9.863
46019SOL    HW139954   0.672  11.639   9.879
46019SOL    HW239955   0.638  11.759   9.793
46020SOL     OW39956   1.443   2.668  14.796
46020SOL    HW139957   1.510   2.644  14.731
46020SOL    HW239958   1.493   2.688  14.875
46021SOL     OW39959  10.418   9.217  10.783
46021SOL    HW139960  10.498   9.253  10.820
46021SOL    HW239961  10.349   9.248  10.842
46022SOL     OW39962   0.888   2.393   3.664
46022SOL    HW139963   0.979   2.420   3.679
46022SOL    HW239964   0.846   2.401   3.750
46023SOL     OW39965   2.757  12.041   3.269
46023SOL    HW139966   2.706  12.119   3.291
46023SOL    HW239967   2.712  11.970   3.317
46024SOL     OW39968   2.749   1.743   9.351
46024SOL    HW139969   2.669   1.703   9.317
46024SOL    HW239970   2.798   1.768   9.272
46025SOL     OW39971   8.974   6.315  13.442
46025SOL    HW139972   8.985   6.408  13.420
46025SOL    HW239973   8.891   6.291  13.401
46026SOL     OW39974  11.735   4.259  14.610
46026SOL    HW139975  11.654   4.243  14.658
46026SOL    HW239976  11.789   4.181  14.625
46027SOL     OW39977   3.429  12.895  14.771
46027SOL    HW139978   3.486  12.956  14.724
46027SOL    HW239979   3.426  12.928  14.861
46028SOL     OW39980   4.603  13.176  11.030
46028SOL    HW139981   4.604  13.117  11.105
46028SOL    HW239982   4.696  13.191  11.011
46029SOL     OW39983   1.907   3.953   7.540
46029SOL    HW139984   2.001   3.937   7.533
46029SOL    HW239985   1.875   3.950   7.450
46030SOL     OW39986   6.606  12.233   0.811
46030SOL    HW139987   6.695  12.261   0.832
46030SOL    HW239988   6.609  12.215   0.717
46031SOL     OW39989   2.866   2.371   4.185
46031SOL    HW139990   2.948   2.343   4.146
46031SOL    HW239991   2.801   2.310   4.150
46032SOL     OW39992  11.172  13.257   6.949
46032SOL    HW139993  11.087  13.290   6.920
46032SOL    HW239994  11.150  13.189   7.013
46033SOL     OW39995  13.863   4.741  12.383
46033SOL    HW139996  13.895   4.718  12.296
46033SOL    HW239997  13.793   4.677  12.401
46034SOL     OW39998   5.770   4.677   1.035
46034SOL    HW139999   5.757   4.671   1.129
46034SOL    HW240000   5.850   4.626   1.019
46035SOL     OW40001  12.421   6.096   6.625
46035SOL    HW140002  12.517   6.103   6.618
46035SOL    HW240003  12.397   6.160   6.692
46036SOL     OW40004   5.533  11.730   9.299
46036SOL    HW140005   5.509  11.683   9.219
46036SOL    HW240006   5.451  11.733   9.349
46037SOL     OW40007  14.439   5.195   0.350
46037SOL    HW140008  14.388   5.173   0.428
46037SOL    HW240009  14.490   5.273   0.376
46038SOL     OW40010   6.699   7.963  12.047
46038SOL    HW140011   6.788   7.929  12.037
46038SOL    HW240012   6.662   7.913  12.120
46039SOL     OW40013  10.476   9.618  13.692
46039SOL    HW140014  10.436   9.677  13.756
46039SOL    HW240015  10.403   9.563  13.662
46040SOL     OW40016  11.895   5.089   5.655
46040SOL    HW140017  11.812   5.124   5.687
46040SOL    HW240018  11.945   5.167   5.628
46041SOL     OW40019   2.395   0.370  13.813
46041SOL    HW140020   2.398   0.441  13.748
46041SOL    HW240021   2.483   0.367  13.849
46042SOL     OW40022  12.923  13.373  13.957
46042SOL    HW140023  12.832  13.347  13.966
46042SOL    HW240024  12.926  13.424  13.877
46043SOL     OW40025   0.058   8.241   0.151
46043SOL    HW140026   0.010   8.159   0.160
46043SOL    HW240027  14.884   8.309   0.178
46044SOL     OW40028  13.358   5.803  13.577
46044SOL    HW140029  13.438   5.812  13.525
46044SOL    HW240030  13.295   5.763  13.517
46045SOL     OW40031  10.316   8.017   6.775
46045SOL    HW140032  10.283   7.931   6.748
46045SOL    HW240033  10.245   8.054   6.828
46046SOL     OW40034   4.942   7.792   1.026
46046SOL    HW140035   4.898   7.848   1.090
46046SOL    HW240036   4.942   7.705   1.066
46047SOL     OW40037  11.689  10.151  11.994
46047SOL    HW140038  11.721  10.185  12.077
46047SOL    HW240039  11.595  10.168  11.995
46048SOL     OW40040   8.890   1.655  10.792
46048SOL    HW140041   8.939   1.577  10.769
46048SOL    HW240042   8.798   1.627  10.795
46049SOL     OW40043  11.716   3.051   5.105
46049SOL    HW140044  11.697   3.088   5.191
46049SOL    HW240045  11.811   3.062   5.096
46050SOL     OW40046  10.563  13.191   9.681
46050SOL    HW140047  10.596  13.102   9.674
46050SOL    HW240048  10.641  13.246   9.689
46051SOL     OW40049   2.020   9.868  10.816
46051SOL    HW140050   1.946   9.812  10.839
46051SOL    HW240051   2.029   9.859  10.721
46052SOL     OW40052   4.309   5.061  10.204
46052SOL    HW140053   4.280   5.134  10.257
46052SOL    HW240054   4.329   4.991  10.267
46053SOL     OW40055   9.347  13.917  11.158
46053SOL    HW140056   9.281  13.871  11.209
46053SOL    HW240057   9.420  13.930  11.218
46054SOL     OW40058  10.513   8.028   4.509
46054SOL    HW140059  10.425   8.028   4.472
46054SOL    HW240060  10.523   8.115   4.548
46055SOL     OW40061   0.722  12.103   3.622
46055SOL    HW140062   0.698  12.162   3.693
46055SOL    HW240063   0.808  12.133   3.593
46056SOL     OW40064   5.505   9.379   3.277
46056SOL    HW140065   5.414   9.388   3.247
46056SOL    HW240066   5.557   9.420   3.207
46057SOL     OW40067   6.431   6.493   9.524
46057SOL    HW140068   6.413   6.519   9.434
46057SOL    HW240069   6.421   6.573   9.576
46058SOL     OW40070   7.367   0.492   9.078
46058SOL    HW140071   7.344   0.445   9.158
46058SOL    HW240072   7.300   0.560   9.070
46059SOL     OW40073   7.767   4.095   2.943
46059SOL    HW140074   7.699   4.089   3.011
46059SOL    HW240075   7.812   4.011   2.948
46060SOL     OW40076   2.197   9.732  11.190
46060SOL    HW140077   2.110   9.740  11.231
46060SOL    HW240078   2.178   9.726  11.096
46061SOL     OW40079  11.800  12.890   2.532
46061SOL    HW140080  11.722  12.927   2.573
46061SOL    HW240081  11.867  12.894   2.600
46062SOL     OW40082   3.039   9.954  13.094
46062SOL    HW140083   2.999   9.870  13.116
46062SOL    HW240084   2.996  10.017  13.152
46063SOL     OW40085  12.641   7.868   9.793
46063SOL    HW140086  12.694   7.798   9.833
46063SOL    HW240087  12.551   7.838   9.802
46064SOL     OW40088   1.853   6.341   8.298
46064SOL    HW140089   1.939   6.302   8.283
46064SOL    HW240090   1.791   6.273   8.275
46065SOL     OW40091   3.674   9.759  10.257
46065SOL    HW140092   3.755   9.774  10.209
46065SOL    HW240093   3.702   9.748  10.348
46066SOL     OW40094   0.172  14.011   4.530
46066SOL    HW140095   0.259  14.039   4.501
46066SOL    HW240096   0.111  14.060   4.474
46067SOL     OW40097   2.712   6.517  11.866
46067SOL    HW140098   2.737   6.586  11.805
46067SOL    HW240099   2.616   6.514  11.861
46068SOL     OW40100  13.397   9.906   4.643
46068SOL    HW140101  13.459   9.920   4.715
46068SOL    HW240102  13.337   9.980   4.648
46069SOL     OW40103   4.595   7.975  13.187
46069SOL    HW140104   4.572   8.001  13.276
46069SOL    HW240105   4.525   7.913  13.163
46070SOL     OW40106   2.069   5.870   4.648
46070SOL    HW140107   2.129   5.802   4.678
46070SOL    HW240108   1.985   5.825   4.638
46071SOL     OW40109   1.280   2.789   0.530
46071SOL    HW140110   1.188   2.778   0.553
46071SOL    HW240111   1.296   2.722   0.463
46072SOL     OW40112   6.686   7.294  11.324
46072SOL    HW140113   6.628   7.327  11.393
46072SOL    HW240114   6.678   7.199  11.329
46073SOL     OW40115   7.302   8.753   1.111
46073SOL    HW140116   7.289   8.722   1.201
46073SOL    HW240117   7.279   8.678   1.056
46074SOL     OW40118   1.367   6.060   1.487
46074SOL    HW140119   1.350   5.972   1.521
46074SOL    HW240120   1.309   6.117   1.536
46075SOL     OW40121   7.052   0.910   3.964
46075SOL    HW140122   7.028   0.996   3.999
46075SOL    HW240123   7.040   0.919   3.870
46076SOL     OW40124  14.089   0.464   8.895
46076SOL    HW140125  14.114   0.378   8.861
46076SOL    HW240126  14.154   0.524   8.858
46077SOL     OW40127   6.571   7.938   8.565
46077SOL    HW140128   6.650   7.993   8.561
46077SOL    HW240129   6.561   7.918   8.658
46078SOL     OW40130  13.631  10.687   3.515
46078SOL    HW140131  13.650  10.776   3.485
46078SOL    HW240132  13.575  10.651   3.447
46079SOL     OW40133   0.893   8.896   2.238
46079SOL    HW140134   0.854   8.825   2.186
46079SOL    HW240135   0.929   8.956   2.173
46080SOL     OW40136  12.307   1.897   6.223
46080SOL    HW140137  12.347   1.817   6.258
46080SOL    HW240138  12.378   1.941   6.176
46081SOL     OW40139  11.525   6.622   9.158
46081SOL    HW140140  11.468   6.549   9.183
46081SOL    HW240141  11.611   6.597   9.190
46082SOL     OW40142   6.727  12.516  12.749
46082SOL    HW140143   6.658  12.583  12.752
46082SOL    HW240144   6.732  12.484  12.839
46083SOL     OW40145   5.420   6.564   1.868
46083SOL    HW140146   5.407   6.470   1.871
46083SOL    HW240147   5.515   6.576   1.860
46084SOL     OW40148  14.457  14.252  12.135
46084SOL    HW140149  14.469  14.277  12.044
46084SOL    HW240150  14.524  14.185  12.151
46085SOL     OW40151  14.513  14.473  11.697
46085SOL    HW140152  14.459  14.400  11.728
46085SOL    HW240153  14.521  14.531  11.772
46086SOL     OW40154   2.789  12.240   2.008
46086SOL    HW140155   2.777  12.305   1.939
46086SOL    HW240156   2.748  12.161   1.974
46087SOL     OW40157   0.090   9.416   9.754
46087SOL    HW140158   0.147   9.342   9.731
46087SOL    HW240159   0.002   9.386   9.731
46088SOL     OW40160  10.611  11.808  11.080
46088SOL    HW140161  10.648  11.750  11.013
46088SOL    HW240162  10.517  11.788  11.079
46089SOL     OW40163   4.312   0.969  11.013
46089SOL    HW140164   4.292   0.982  11.106
46089SOL    HW240165   4.227   0.962  10.971
46090SOL     OW40166   5.982  10.193   0.569
46090SOL    HW140167   5.942  10.168   0.486
46090SOL    HW240168   5.919  10.164   0.636
46091SOL     OW40169   3.282   3.139   4.953
46091SOL    HW140170   3.362   3.106   4.913
46091SOL    HW240171   3.222   3.064   4.954
46092SOL     OW40172   6.701   9.657   1.417
46092SOL    HW140173   6.744   9.652   1.332
46092SOL    HW240174   6.749   9.725   1.464
46093SOL     OW40175   8.892  10.908  13.982
46093SOL    HW140176   8.825  10.975  13.966
46093SOL    HW240177   8.959  10.953  14.034
46094SOL     OW40178   4.451   2.582   7.573
46094SOL    HW140179   4.427   2.547   7.659
46094SOL    HW240180   4.541   2.615   7.585
46095SOL     OW40181   3.482  10.552   2.715
46095SOL    HW140182   3.494  10.515   2.628
46095SOL    HW240183   3.423  10.626   2.702
46096SOL     OW40184   3.549  12.512   5.357
46096SOL    HW140185   3.489  12.479   5.424
46096SOL    HW240186   3.624  12.453   5.360
46097SOL     OW40187   6.994  11.175   9.069
46097SOL    HW140188   6.937  11.110   9.110
46097SOL    HW240189   7.034  11.221   9.143
46098SOL     OW40190   5.950   8.553  12.569
46098SOL    HW140191   5.973   8.632  12.618
46098SOL    HW240192   5.887   8.582  12.504
46099SOL     OW40193   6.887  12.686  10.914
46099SOL    HW140194   6.922  12.621  10.975
46099SOL    HW240195   6.850  12.754  10.971
46100SOL     OW40196   9.193   9.600   9.393
46100SOL    HW140197   9.239   9.561   9.467
46100SOL    HW240198   9.189   9.693   9.414
46101SOL     OW40199   4.694  10.970  13.015
46101SOL    HW140200   4.718  11.046  13.068
46101SOL    HW240201   4.614  10.936  13.055
46102SOL     OW40202   5.313   3.717   6.220
46102SOL    HW140203   5.234   3.663   6.226
46102SOL    HW240204   5.316   3.745   6.129
46103SOL     OW40205   0.480   9.375  13.897
46103SOL    HW140206   0.519   9.457  13.928
46103SOL    HW240207   0.553   9.315  13.888
46104SOL     OW40208   4.322   5.443   4.721
46104SOL    HW140209   4.299   5.470   4.632
46104SOL    HW240210   4.320   5.348   4.719
46105SOL     OW40211   2.779  14.255  14.199
46105SOL    HW140212   2.731  14.305  14.133
46105SOL    HW240213   2.710  14.219  14.256
46106SOL     OW40214   8.455   6.680   5.184
46106SOL    HW140215   8.413   6.710   5.264
46106SOL    HW240216   8.404   6.604   5.156
46107SOL     OW40217  11.235   0.183  11.962
46107SOL    HW140218  11.188   0.260  11.995
46107SOL    HW240219  11.166   0.118  11.948
46108SOL     OW40220   8.113   5.756  14.209
46108SOL    HW140221   8.113   5.823  14.277
46108SOL    HW240222   8.193   5.707  14.224
46109SOL     OW40223  13.856  14.707   7.392
46109SOL    HW140224  13.932  14.713   7.335
46109SOL    HW240225  13.876  14.635   7.451
46110SOL     OW40226   3.579  11.137   9.315
46110SOL    HW140227   3.626  11.184   9.384
46110SOL    HW240228   3.582  11.045   9.342
46111SOL     OW40229   3.456   5.546   0.440
46111SOL    HW140230   3.505   5.628   0.448
46111SOL    HW240231   3.396   5.547   0.514
46112SOL     OW40232   9.338  13.629  11.660
46112SOL    HW140233   9.286  13.699  11.699
46112SOL    HW240234   9.277  13.581  11.604
46113SOL     OW40235  12.639  13.973  10.709
46113SOL    HW140236  12.644  14.042  10.775
46113SOL    HW240237  12.642  14.020  10.625
46114SOL     OW40238   6.507   9.031  14.856
46114SOL    HW140239   6.489   8.991   0.054
46114SOL    HW240240   6.545   9.116  14.877
46115SOL     OW40241   5.514   8.291   7.549
46115SOL    HW140242   5.526   8.322   7.459
46115SOL    HW240243   5.602   8.296   7.587
46116SOL     OW40244   1.930   9.895   5.354
46116SOL    HW140245   1.974   9.864   5.433
46116SOL    HW240246   2.000   9.902   5.289
46117SOL     OW40247   4.246  11.072  14.689
46117SOL    HW140248   4.209  11.137  14.629
46117SOL    HW240249   4.311  11.120  14.739
46118SOL     OW40250   0.400   3.188   8.268
46118SOL    HW140251   0.374   3.280   8.273
46118SOL    HW240252   0.356   3.155   8.190
46119SOL     OW40253   5.688   5.008  14.392
46119SOL    HW140254   5.744   4.934  14.417
46119SOL    HW240255   5.748   5.073  14.356
46120SOL     OW40256   0.239   6.986   5.119
46120SOL    HW140257   0.296   7.037   5.061
46120SOL    HW240258   0.276   6.898   5.117
46121SOL     OW40259   2.568  10.937   6.939
46121SOL    HW140260   2.605  10.849   6.944
46121SOL    HW240261   2.511  10.935   6.862
46122SOL     OW40262  14.828   2.518   7.987
46122SOL    HW140263  14.781   2.457   8.043
46122SOL    HW240264  14.759   2.570   7.945
46123SOL     OW40265   9.370  11.160  10.825
46123SOL    HW140266   9.347  11.203  10.742
46123SOL    HW240267   9.290  11.114  10.851
46124SOL     OW40268  10.363  14.228   9.855
46124SOL    HW140269  10.315  14.148   9.877
46124SOL    HW240270  10.455  14.202   9.856
46125SOL     OW40271   7.491   3.612  14.262
46125SOL    HW140272   7.519   3.549  14.329
46125SOL    HW240273   7.560   3.609  14.196
46126SOL     OW40274  11.241   6.101   6.998
46126SOL    HW140275  11.253   6.160   7.072
46126SOL    HW240276  11.295   6.139   6.929
46127SOL     OW40277   8.368   7.673   0.403
46127SOL    HW140278   8.458   7.646   0.419
46127SOL    HW240279   8.375   7.742   0.337
46128SOL     OW40280   4.574   5.124   6.614
46128SOL    HW140281   4.616   5.140   6.699
46128SOL    HW240282   4.607   5.194   6.558
46129SOL     OW40283   5.087   8.820  11.864
46129SOL    HW140284   5.134   8.750  11.909
46129SOL    HW240285   5.003   8.781  11.840
46130SOL     OW40286  10.116   4.527  10.568
46130SOL    HW140287  10.134   4.528  10.474
46130SOL    HW240288  10.100   4.619  10.591
46131SOL     OW40289   3.848  11.773  14.854
46131SOL    HW140290   3.865  11.709  14.784
46131SOL    HW240291   3.915  11.840  14.843
46132SOL     OW40292  12.684   5.499   8.050
46132SOL    HW140293  12.690   5.513   8.145
46132SOL    HW240294  12.773   5.474   8.025
46133SOL     OW40295   6.962  10.078  13.637
46133SOL    HW140296   6.954  10.075  13.542
46133SOL    HW240297   7.040  10.132  13.652
46134SOL     OW40298   8.684   3.165   3.484
46134SOL    HW140299   8.683   3.118   3.567
46134SOL    HW240300   8.600   3.143   3.443
46135SOL     OW40301  12.964   4.376  12.905
46135SOL    HW140302  12.887   4.325  12.881
46135SOL    HW240303  12.932   4.441  12.967
46136SOL     OW40304   1.976   8.431  11.075
46136SOL    HW140305   1.953   8.338  11.073
46136SOL    HW240306   1.897   8.477  11.047
46137SOL     OW40307  11.007  11.853  10.128
46137SOL    HW140308  10.980  11.864  10.219
46137SOL    HW240309  11.046  11.766  10.124
46138SOL     OW40310   6.669   3.049   5.477
46138SOL    HW140311   6.586   3.076   5.438
46138SOL    HW240312   6.655   3.059   5.572
46139SOL     OW40313   0.407   9.740  12.326
46139SOL    HW140314   0.442   9.829  12.328
46139SOL    HW240315   0.484   9.685  12.314
46140SOL     OW40316   3.626   8.735  14.263
46140SOL    HW140317   3.543   8.743  14.216
46140SOL    HW240318   3.689   8.783  14.210
46141SOL     OW40319   4.483  12.454   2.352
46141SOL    HW140320   4.490  12.499   2.435
46141SOL    HW240321   4.561  12.399   2.348
46142SOL     OW40322   9.343   6.735  12.766
46142SOL    HW140323   9.318   6.812  12.818
46142SOL    HW240324   9.266   6.678  12.771
46143SOL     OW40325   2.688   5.075   7.205
46143SOL    HW140326   2.610   5.131   7.206
46143SOL    HW240327   2.686   5.032   7.120
46144SOL     OW40328   3.588  13.979  14.628
46144SOL    HW140329   3.586  14.016  14.717
46144SOL    HW240330   3.507  13.929  14.622
46145SOL     OW40331   8.253  13.603   7.270
46145SOL    HW140332   8.236  13.516   7.233
46145SOL    HW240333   8.331  13.590   7.324
46146SOL     OW40334   2.069   2.620  10.337
46146SOL    HW140335   1.981   2.651  10.359
46146SOL    HW240336   2.128   2.683  10.379
46147SOL     OW40337  10.582   5.909   0.540
46147SOL    HW140338  10.532   5.895   0.459
46147SOL    HW240339  10.567   6.001   0.561
46148SOL     OW40340  12.748   5.196   2.328
46148SOL    HW140341  12.669   5.152   2.359
46148SOL    HW240342  12.804   5.126   2.295
46149SOL     OW40343   9.419  10.200  11.156
46149SOL    HW140344   9.366  10.263  11.106
46149SOL    HW240345   9.426  10.238  11.243
46150SOL     OW40346   7.964  10.758   7.994
46150SOL    HW140347   8.034  10.822   8.006
46150SOL    HW240348   7.883  10.806   8.009
46151SOL     OW40349   5.940   9.937   0.001
46151SOL    HW140350   5.912  10.019  14.848
46151SOL    HW240351   5.903   9.869  14.832
46152SOL     OW40352  11.298  12.848  13.109
46152SOL    HW140353  11.308  12.891  13.024
46152SOL    HW240354  11.300  12.755  13.089
46153SOL     OW40355   1.696   7.054  12.347
46153SOL    HW140356   1.637   7.007  12.406
46153SOL    HW240357   1.750   7.107  12.405
46154SOL     OW40358   5.259  10.844  10.851
46154SOL    HW140359   5.326  10.910  10.831
46154SOL    HW240360   5.302  10.761  10.833
46155SOL     OW40361   0.351   9.480   6.959
46155SOL    HW140362   0.341   9.437   7.044
46155SOL    HW240363   0.270   9.460   6.912
46156SOL     OW40364   2.197   8.337   7.983
46156SOL    HW140365   2.103   8.336   7.963
46156SOL    HW240366   2.209   8.269   8.049
46157SOL     OW40367   0.933   6.621   8.948
46157SOL    HW140368   0.918   6.702   8.997
46157SOL    HW240369   0.853   6.609   8.897
46158SOL     OW40370  10.354  10.519   9.008
46158SOL    HW140371  10.297  10.452   9.045
46158SOL    HW240372  10.353  10.502   8.913
46159SOL     OW40373   0.613   9.796   2.073
46159SOL    HW140374   0.588   9.827   1.985
46159SOL    HW240375   0.678   9.860   2.103
46160SOL     OW40376   6.037   4.241   9.584
46160SOL    HW140377   6.056   4.247   9.677
46160SOL    HW240378   5.969   4.174   9.578
46161SOL     OW40379  10.693   2.137   5.682
46161SOL    HW140380  10.750   2.190   5.626
46161SOL    HW240381  10.716   2.163   5.771
46162SOL     OW40382   5.558   5.188   3.405
46162SOL    HW140383   5.514   5.234   3.477
46162SOL    HW240384   5.550   5.247   3.331
46163SOL     OW40385  11.045  14.705   1.657
46163SOL    HW140386  11.114  14.719   1.593
46163SOL    HW240387  11.066  14.764   1.729
46164SOL     OW40388  10.859  11.645   4.968
46164SOL    HW140389  10.813  11.722   4.936
46164SOL    HW240390  10.789  11.581   4.986
46165SOL     OW40391   6.170   6.095   6.130
46165SOL    HW140392   6.178   6.038   6.207
46165SOL    HW240393   6.260   6.110   6.103
46166SOL     OW40394   8.950   1.331  11.855
46166SOL    HW140395   9.020   1.394  11.836
46166SOL    HW240396   8.994   1.247  11.859
46167SOL     OW40397   8.519   9.978  10.285
46167SOL    HW140398   8.509   9.991  10.379
46167SOL    HW240399   8.581   9.906  10.277
46168SOL     OW40400  14.238   4.251   7.235
46168SOL    HW140401  14.311   4.214   7.285
46168SOL    HW240402  14.233   4.196   7.157
46169SOL     OW40403  12.125   8.617   8.437
46169SOL    HW140404  12.085   8.567   8.509
46169SOL    HW240405  12.084   8.582   8.358
46170SOL     OW40406  13.103   7.579   6.807
46170SOL    HW140407  13.084   7.655   6.753
46170SOL    HW240408  13.023   7.528   6.806
46171SOL     OW40409  13.366   7.139   6.538
46171SOL    HW140410  13.273   7.121   6.526
46171SOL    HW240411  13.404   7.129   6.451
46172SOL     OW40412   2.699   1.428   7.352
46172SOL    HW140413   2.712   1.337   7.381
46172SOL    HW240414   2.736   1.481   7.422
46173SOL     OW40415   6.329   9.382  11.328
46173SOL    HW140416   6.239   9.354  11.345
46173SOL    HW240417   6.333   9.470  11.365
46174SOL     OW40418  13.971  14.473   0.201
46174SOL    HW140419  13.891  14.489   0.252
46174SOL    HW240420  13.949  14.504   0.112
46175SOL     OW40421   4.677  12.688  14.246
46175SOL    HW140422   4.656  12.774  14.282
46175SOL    HW240423   4.592  12.646  14.231
46176SOL     OW40424   7.277   3.934   9.494
46176SOL    HW140425   7.274   3.949   9.399
46176SOL    HW240426   7.196   3.973   9.527
46177SOL     OW40427   8.064  10.711   2.320
46177SOL    HW140428   8.090  10.790   2.367
46177SOL    HW240429   8.133  10.697   2.256
46178SOL     OW40430   4.661   0.310   5.573
46178SOL    HW140431   4.691   0.398   5.551
46178SOL    HW240432   4.604   0.322   5.649
46179SOL     OW40433   0.475   2.882   6.147
46179SOL    HW140434   0.481   2.869   6.052
46179SOL    HW240435   0.383   2.906   6.162
46180SOL     OW40436   1.585  14.702  14.643
46180SOL    HW140437   1.550  14.742  14.562
46180SOL    HW240438   1.539  14.618  14.649
46181SOL     OW40439   0.335   1.298   8.326
46181SOL    HW140440   0.337   1.393   8.339
46181SOL    HW240441   0.371   1.262   8.407
46182SOL     OW40442   6.456   3.937   7.775
46182SOL    HW140443   6.363   3.928   7.792
46182SOL    HW240444   6.461   3.970   7.686
46183SOL     OW40445   2.458   3.393   0.483
46183SOL    HW140446   2.389   3.453   0.512
46183SOL    HW240447   2.414   3.335   0.421
46184SOL     OW40448   4.928   3.161   8.017
46184SOL    HW140449   4.913   3.070   7.994
46184SOL    HW240450   4.874   3.211   7.956
46185SOL     OW40451  13.329  13.867   4.432
46185SOL    HW140452  13.309  13.875   4.339
46185SOL    HW240453  13.340  13.957   4.463
46186SOL     OW40454  10.902  14.088   4.737
46186SOL    HW140455  10.873  14.037   4.813
46186SOL    HW240456  10.826  14.092   4.680
46187SOL     OW40457   8.831   3.408   4.434
46187SOL    HW140458   8.776   3.385   4.509
46187SOL    HW240459   8.778   3.386   4.358
46188SOL     OW40460  11.118   1.741   6.359
46188SOL    HW140461  11.038   1.719   6.406
46188SOL    HW240462  11.188   1.721   6.422
46189SOL     OW40463  13.960  11.544   1.910
46189SOL    HW140464  14.032  11.486   1.884
46189SOL    HW240465  13.980  11.628   1.867
46190SOL     OW40466   6.503  12.327   1.683
46190SOL    HW140467   6.446  12.262   1.723
46190SOL    HW240468   6.587  12.317   1.727
46191SOL     OW40469  12.343   5.567   2.457
46191SOL    HW140470  12.314   5.658   2.461
46191SOL    HW240471  12.291   5.529   2.386
46192SOL     OW40472   7.299  11.325  13.270
46192SOL    HW140473   7.242  11.255  13.301
46192SOL    HW240474   7.282  11.329  13.176
46193SOL     OW40475   2.412   6.182   8.409
46193SOL    HW140476   2.403   6.097   8.365
46193SOL    HW240477   2.506   6.198   8.411
46194SOL     OW40478   2.436   9.164  11.163
46194SOL    HW140479   2.410   9.214  11.241
46194SOL    HW240480   2.394   9.079  11.174
46195SOL     OW40481  12.489   5.611   6.330
46195SOL    HW140482  12.515   5.632   6.241
46195SOL    HW240483  12.397   5.636   6.335
46196SOL     OW40484   2.583   7.065  14.740
46196SOL    HW140485   2.530   7.015  14.801
46196SOL    HW240486   2.534   7.146  14.726
46197SOL     OW40487   0.649   3.627   5.771
46197SOL    HW140488   0.636   3.562   5.840
46197SOL    HW240489   0.638   3.711   5.816
46198SOL     OW40490   4.089   6.405  14.589
46198SOL    HW140491   3.997   6.393  14.565
46198SOL    HW240492   4.095   6.497  14.615
46199SOL     OW40493  12.538  13.866   7.766
46199SOL    HW140494  12.448  13.864   7.798
46199SOL    HW240495  12.529  13.861   7.671
46200SOL     OW40496   6.912  12.103   3.296
46200SOL    HW140497   6.867  12.125   3.377
46200SOL    HW240498   6.868  12.155   3.229
46201SOL     OW40499  11.459  11.363   5.412
46201SOL    HW140500  11.430  11.393   5.498
46201SOL    HW240501  11.404  11.288   5.393
46202SOL     OW40502  14.450   6.339  12.080
46202SOL    HW140503  14.362   6.375  12.071
46202SOL    HW240504  14.488   6.385  12.155
46203SOL     OW40505   8.521   9.341   3.754
46203SOL    HW140506   8.586   9.406   3.727
46203SOL    HW240507   8.505   9.359   3.846
46204SOL     OW40508   2.140  12.804   9.353
46204SOL    HW140509   2.224  12.810   9.307
46204SOL    HW240510   2.095  12.886   9.332
46205SOL     OW40511  12.762   0.287  14.059
46205SOL    HW140512  12.792   0.232  13.987
46205SOL    HW240513  12.769   0.376  14.026
46206SOL     OW40514   2.550   8.087  10.778
46206SOL    HW140515   2.640   8.108  10.805
46206SOL    HW240516   2.545   7.992  10.784
46207SOL     OW40517   6.362  13.103   6.413
46207SOL    HW140518   6.267  13.112   6.401
46207SOL    HW240519   6.399  13.180   6.369
46208SOL     OW40520  12.281  12.668  14.196
46208SOL    HW140521  12.221  12.636  14.128
46208SOL    HW240522  12.258  12.760  14.206
46209SOL     OW40523   8.134  14.382   9.224
46209SOL    HW140524   8.179  14.320   9.280
46209SOL    HW240525   8.127  14.337   9.139
46210SOL     OW40526   9.135  11.533  10.706
46210SOL    HW140527   9.176  11.451  10.679
46210SOL    HW240528   9.073  11.554  10.636
46211SOL     OW40529   5.445  12.519   4.219
46211SOL    HW140530   5.496  12.482   4.291
46211SOL    HW240531   5.454  12.456   4.148
46212SOL     OW40532   6.469   9.327  11.937
46212SOL    HW140533   6.557   9.297  11.960
46212SOL    HW240534   6.410   9.264  11.978
46213SOL     OW40535  10.115   8.579   9.623
46213SOL    HW140536  10.147   8.605   9.710
46213SOL    HW240537  10.020   8.589   9.630
46214SOL     OW40538  10.427   0.134   0.700
46214SOL    HW140539  10.454   0.210   0.649
46214SOL    HW240540  10.461   0.059   0.652
46215SOL     OW40541  11.787   5.499   5.617
46215SOL    HW140542  11.755   5.408   5.624
46215SOL    HW240543  11.761   5.526   5.529
46216SOL     OW40544   4.202  10.263  13.391
46216SOL    HW140545   4.219  10.247  13.299
46216SOL    HW240546   4.264  10.207  13.438
46217SOL     OW40547  11.956   9.464   5.611
46217SOL    HW140548  12.010   9.454   5.533
46217SOL    HW240549  11.991   9.542   5.655
46218SOL     OW40550  12.095   0.132   3.444
46218SOL    HW140551  12.064   0.220   3.464
46218SOL    HW240552  12.136   0.140   3.357
46219SOL     OW40553   6.118   8.332   2.544
46219SOL    HW140554   6.134   8.417   2.585
46219SOL    HW240555   6.044   8.295   2.594
46220SOL     OW40556  12.178   7.087  13.612
46220SOL    HW140557  12.155   7.005  13.655
46220SOL    HW240558  12.204   7.145  13.683
46221SOL     OW40559  13.809   3.288  13.179
46221SOL    HW140560  13.734   3.335  13.143
46221SOL    HW240561  13.824   3.329  13.265
46222SOL     OW40562  11.736   5.381   3.809
46222SOL    HW140563  11.685   5.460   3.827
46222SOL    HW240564  11.749   5.383   3.714
46223SOL     OW40565   4.328   4.627   3.050
46223SOL    HW140566   4.313   4.718   3.075
46223SOL    HW240567   4.271   4.577   3.109
46224SOL     OW40568  11.614   2.837   6.506
46224SOL    HW140569  11.704   2.805   6.501
46224SOL    HW240570  11.623   2.929   6.528
46225SOL     OW40571   1.915   4.597   8.817
46225SOL    HW140572   1.828   4.609   8.855
46225SOL    HW240573   1.964   4.675   8.844
46226SOL     OW40574  12.010  14.789   4.202
46226SOL    HW140575  11.943  14.855   4.185
46226SOL    HW240576  11.960  14.711   4.228
46227SOL     OW40577   7.469   6.014   7.603
46227SOL    HW140578   7.396   5.969   7.560
46227SOL    HW240579   7.464   5.986   7.694
46228SOL     OW40580   4.824   4.939   5.934
46228SOL    HW140581   4.828   4.861   5.989
46228SOL    HW240582   4.781   5.005   5.989
46229SOL     OW40583   4.657   0.906  11.383
46229SOL    HW140584   4.669   0.940  11.294
46229SOL    HW240585   4.657   0.811  11.373
46230SOL     OW40586  12.031   7.720  12.831
46230SOL    HW140587  12.031   7.815  12.839
46230SOL    HW240588  11.954   7.701  12.776
46231SOL     OW40589  13.243   2.614  11.233
46231SOL    HW140590  13.304   2.605  11.159
46231SOL    HW240591  13.296   2.594  11.310
46232SOL     OW40592   7.816   7.162   0.458
46232SOL    HW140593   7.885   7.151   0.524
46232SOL    HW240594   7.808   7.257   0.447
46233SOL     OW40595  10.287   3.498  12.464
46233SOL    HW140596  10.351   3.521  12.397
46233SOL    HW240597  10.318   3.415  12.499
46234SOL     OW40598  11.706  13.502  14.343
46234SOL    HW140599  11.698  13.484  14.249
46234SOL    HW240600  11.713  13.416  14.384
46235SOL     OW40601   3.619  11.696   2.163
46235SOL    HW140602   3.587  11.781   2.193
46235SOL    HW240603   3.703  11.715   2.120
46236SOL     OW40604  12.848   2.297  14.554
46236SOL    HW140605  12.854   2.373  14.612
46236SOL    HW240606  12.889   2.226  14.604
46237SOL     OW40607   0.917   0.647   4.104
46237SOL    HW140608   1.004   0.623   4.134
46237SOL    HW240609   0.880   0.566   4.069
46238SOL     OW40610   5.284   9.225  12.463
46238SOL    HW140611   5.249   9.291  12.522
46238SOL    HW240612   5.216   9.158  12.458
46239SOL     OW40613   0.064  13.841  11.627
46239SOL    HW140614   0.128  13.830  11.697
46239SOL    HW240615   0.113  13.881  11.555
46240SOL     OW40616   4.418  11.151   3.228
46240SOL    HW140617   4.413  11.111   3.314
46240SOL    HW240618   4.341  11.119   3.181
46241SOL     OW40619   2.370   7.712   0.428
46241SOL    HW140620   2.367   7.698   0.523
46241SOL    HW240621   2.397   7.803   0.418
46242SOL     OW40622   9.101  13.234  14.471
46242SOL    HW140623   9.047  13.311  14.488
46242SOL    HW240624   9.191  13.267  14.472
46243SOL     OW40625   7.507  13.181   7.471
46243SOL    HW140626   7.459  13.235   7.534
46243SOL    HW240627   7.439  13.145   7.415
46244SOL     OW40628   3.205  12.427   4.757
46244SOL    HW140629   3.300  12.429   4.747
46244SOL    HW240630   3.178  12.342   4.721
46245SOL     OW40631   6.922   8.950   0.004
46245SOL    HW140632   6.960   8.870  14.855
46245SOL    HW240633   6.852   8.919   0.061
46246SOL     OW40634   3.404   3.830   2.469
46246SOL    HW140635   3.495   3.857   2.480
46246SOL    HW240636   3.357   3.874   2.540
46247SOL     OW40637   5.041   7.404   4.608
46247SOL    HW140638   4.946   7.395   4.600
46247SOL    HW240639   5.054   7.446   4.693
46248SOL     OW40640   8.950   9.581   0.573
46248SOL    HW140641   8.867   9.612   0.609
46248SOL    HW240642   9.015   9.601   0.640
46249SOL     OW40643   1.479  13.321  12.662
46249SOL    HW140644   1.384  13.311  12.655
46249SOL    HW240645   1.502  13.386  12.596
46250SOL     OW40646  14.462  14.269   6.270
46250SOL    HW140647  14.481  14.261   6.363
46250SOL    HW240648  14.488  14.185   6.233
46251SOL     OW40649   6.283   2.662  12.228
46251SOL    HW140650   6.249   2.631  12.312
46251SOL    HW240651   6.327   2.744  12.250
46252SOL     OW40652  11.668   6.182   2.453
46252SOL    HW140653  11.758   6.198   2.484
46252SOL    HW240654  11.614   6.238   2.507
46253SOL     OW40655   4.220  12.779   3.507
46253SOL    HW140656   4.167  12.807   3.433
46253SOL    HW240657   4.291  12.844   3.512
46254SOL     OW40658   4.085   8.167   0.949
46254SOL    HW140659   4.162   8.110   0.945
46254SOL    HW240660   4.036   8.134   1.024
46255SOL     OW40661   0.770   3.023  13.099
46255SOL    HW140662   0.767   3.066  13.013
46255SOL    HW240663   0.841   3.067  13.145
46256SOL     OW40664   4.294   6.629   9.901
46256SOL    HW140665   4.231   6.570   9.859
46256SOL    HW240666   4.352   6.657   9.831
46257SOL     OW40667  10.999   9.088   2.107
46257SOL    HW140668  11.039   9.009   2.144
46257SOL    HW240669  10.959   9.132   2.183
46258SOL     OW40670  11.138   6.035   2.269
46258SOL    HW140671  11.233   6.026   2.282
46258SOL    HW240672  11.108   5.945   2.259
46259SOL     OW40673  12.862   0.216   3.245
46259SOL    HW140674  12.884   0.174   3.161
46259SOL    HW240675  12.901   0.303   3.238
46260SOL     OW40676   2.569   6.865  11.428
46260SOL    HW140677   2.556   6.929  11.498
46260SOL    HW240678   2.492   6.809  11.431
46261SOL     OW40679  13.356   7.523   0.734
46261SOL    HW140680  13.270   7.564   0.731
46261SOL    HW240681  13.395   7.552   0.816
46262SOL     OW40682  13.846   8.709  14.123
46262SOL    HW140683  13.849   8.682  14.032
46262SOL    HW240684  13.822   8.629  14.171
46263SOL     OW40685  13.220   0.083   0.864
46263SOL    HW140686  13.267   0.158   0.902
46263SOL    HW240687  13.271   0.060   0.787
46264SOL     OW40688   0.413   7.264   4.276
46264SOL    HW140689   0.494   7.224   4.243
46264SOL    HW240690   0.416   7.353   4.243
46265SOL     OW40691   1.476   3.009   0.292
46265SOL    HW140692   1.461   3.011   0.198
46265SOL    HW240693   1.421   3.079   0.327
46266SOL     OW40694  13.140  14.007   0.357
46266SOL    HW140695  13.126  13.914   0.341
46266SOL    HW240696  13.055  14.047   0.340
46267SOL     OW40697   8.036   5.952  13.485
46267SOL    HW140698   8.000   6.013  13.421
46267SOL    HW240699   8.007   5.866  13.455
46268SOL     OW40700   1.730  14.313   8.827
46268SOL    HW140701   1.727  14.357   8.912
46268SOL    HW240702   1.664  14.357   8.775
46269SOL     OW40703   5.706   6.540  13.870
46269SOL    HW140704   5.784   6.559  13.818
46269SOL    HW240705   5.689   6.447  13.856
46270SOL     OW40706   5.633   8.637   1.743
46270SOL    HW140707   5.653   8.610   1.654
46270SOL    HW240708   5.667   8.726   1.749
46271SOL     OW40709   4.252   0.859   4.704
46271SOL    HW140710   4.215   0.944   4.684
46271SOL    HW240711   4.287   0.827   4.621
46272SOL     OW40712   3.600   8.659   2.968
46272SOL    HW140713   3.688   8.696   2.968
46272SOL    HW240714   3.588   8.624   3.056
46273SOL     OW40715  14.040   9.476   6.596
46273SOL    HW140716  13.947   9.485   6.576
46273SOL    HW240717  14.084   9.538   6.537
46274SOL     OW40718   1.764   2.066   5.929
46274SOL    HW140719   1.859   2.054   5.930
46274SOL    HW240720   1.736   2.033   5.844
46275SOL     OW40721   6.916  13.471   5.928
46275SOL    HW140722   6.976  13.418   5.982
46275SOL    HW240723   6.890  13.412   5.857
46276SOL     OW40724   8.152   3.328  12.414
46276SOL    HW140725   8.182   3.269  12.483
46276SOL    HW240726   8.066   3.358  12.444
46277SOL     OW40727   0.487   1.484  10.972
46277SOL    HW140728   0.476   1.466  10.879
46277SOL    HW240729   0.495   1.397  11.012
46278SOL     OW40730   3.711   1.667   6.492
46278SOL    HW140731   3.627   1.665   6.446
46278SOL    HW240732   3.724   1.577   6.522
46279SOL     OW40733   9.523   4.083   6.563
46279SOL    HW140734   9.577   4.098   6.485
46279SOL    HW240735   9.433   4.082   6.529
46280SOL     OW40736   3.231   1.764   2.093
46280SOL    HW140737   3.319   1.796   2.075
46280SOL    HW240738   3.207   1.715   2.015
46281SOL     OW40739  14.007   8.947   5.060
46281SOL    HW140740  14.033   8.877   5.120
46281SOL    HW240741  14.066   9.020   5.082
46282SOL     OW40742   9.898  13.094  14.699
46282SOL    HW140743   9.924  13.037  14.626
46282SOL    HW240744   9.825  13.048  14.741
46283SOL     OW40745   4.319  10.344   4.812
46283SOL    HW140746   4.254  10.290   4.768
46283SOL    HW240747   4.324  10.309   4.901
46284SOL     OW40748  13.879   1.955   0.650
46284SOL    HW140749  13.823   1.879   0.634
46284SOL    HW240750  13.943   1.924   0.714
46285SOL     OW40751   0.276   1.033   3.898
46285SOL    HW140752   0.215   0.977   3.945
46285SOL    HW240753   0.248   1.027   3.807
46286SOL     OW40754   1.602   0.092   3.364
46286SOL    HW140755   1.606   0.084   3.459
46286SOL    HW240756   1.638   0.179   3.346
46287SOL     OW40757   3.936   4.054  13.989
46287SOL    HW140758   3.882   4.095  14.056
46287SOL    HW240759   3.873   4.027  13.921
46288SOL     OW40760   9.975  12.071  14.707
46288SOL    HW140761  10.010  12.083  14.795
46288SOL    HW240762  10.038  12.115  14.650
46289SOL     OW40763  13.370   3.667  13.665
46289SOL    HW140764  13.405   3.605  13.601
46289SOL    HW240765  13.330   3.736  13.612
46290SOL     OW40766   5.766   9.638   7.896
46290SOL    HW140767   5.782   9.725   7.933
46290SOL    HW240768   5.738   9.656   7.806
46291SOL     OW40769  10.799   3.061   2.294
46291SOL    HW140770  10.746   3.004   2.350
46291SOL    HW240771  10.880   3.073   2.342
46292SOL     OW40772   9.387   3.900   7.345
46292SOL    HW140773   9.479   3.918   7.327
46292SOL    HW240774   9.346   3.892   7.259
46293SOL     OW40775   9.619   0.747   3.260
46293SOL    HW140776   9.560   0.689   3.213
46293SOL    HW240777   9.626   0.709   3.347
46294SOL     OW40778  12.423   6.370   2.315
46294SOL    HW140779  12.515   6.384   2.291
46294SOL    HW240780  12.375   6.433   2.261
46295SOL     OW40781   9.473   5.278   7.120
46295SOL    HW140782   9.530   5.346   7.084
46295SOL    HW240783   9.526   5.236   7.188
46296SOL     OW40784  11.319   2.150  11.184
46296SOL    HW140785  11.315   2.118  11.094
46296SOL    HW240786  11.409   2.180  11.195
46297SOL     OW40787   6.586  12.554   9.150
46297SOL    HW140788   6.658  12.582   9.092
46297SOL    HW240789   6.516  12.617   9.134
46298SOL     OW40790   2.773   5.389  12.475
46298SOL    HW140791   2.796   5.482  12.484
46298SOL    HW240792   2.688   5.382  12.518
46299SOL     OW40793   9.944   1.753  13.715
46299SOL    HW140794  10.026   1.703  13.706
46299SOL    HW240795   9.890   1.701  13.774
46300SOL     OW40796   2.554  13.182   1.727
46300SOL    HW140797   2.570  13.088   1.728
46300SOL    HW240798   2.638  13.221   1.752
46301SOL     OW40799  12.135   2.974   5.362
46301SOL    HW140800  12.104   2.911   5.427
46301SOL    HW240801  12.109   2.937   5.278
46302SOL     OW40802   8.346   5.362   1.497
46302SOL    HW140803   8.252   5.346   1.502
46302SOL    HW240804   8.379   5.293   1.440
46303SOL     OW40805   4.503  14.040   8.054
46303SOL    HW140806   4.506  13.951   8.019
46303SOL    HW240807   4.453  14.090   7.989
46304SOL     OW40808   7.307   0.572   5.380
46304SOL    HW140809   7.395   0.599   5.404
46304SOL    HW240810   7.320   0.493   5.328
46305SOL     OW40811   1.119   4.426   4.715
46305SOL    HW140812   1.138   4.390   4.628
46305SOL    HW240813   1.120   4.350   4.773
46306SOL     OW40814   8.718  11.995   7.601
46306SOL    HW140815   8.629  12.005   7.567
46306SOL    HW240816   8.770  12.058   7.552
46307SOL     OW40817   9.378   6.360  10.494
46307SOL    HW140818   9.286   6.347  10.470
46307SOL    HW240819   9.415   6.411  10.422
46308SOL     OW40820   1.891   8.913  11.116
46308SOL    HW140821   1.942   8.832  11.117
46308SOL    HW240822   1.858   8.919  11.026
46309SOL     OW40823  10.933  14.086   6.277
46309SOL    HW140824  10.997  14.109   6.344
46309SOL    HW240825  10.944  14.152   6.209
46310SOL     OW40826   7.112  13.256   4.034
46310SOL    HW140827   7.160  13.174   4.049
46310SOL    HW240828   7.030  13.245   4.083
46311SOL     OW40829   1.013   2.809  11.589
46311SOL    HW140830   1.106   2.830  11.588
46311SOL    HW240831   1.002   2.742  11.522
46312SOL     OW40832  11.051   9.731  13.420
46312SOL    HW140833  11.044   9.823  13.442
46312SOL    HW240834  11.123   9.726  13.357
46313SOL     OW40835   5.292   9.065   0.994
46313SOL    HW140836   5.330   8.978   1.001
46313SOL    HW240837   5.198   9.053   1.010
46314SOL     OW40838  13.601   0.081   5.998
46314SOL    HW140839  13.514   0.111   5.971
46314SOL    HW240840  13.613   0.116   6.086
46315SOL     OW40841  13.625   5.894   6.749
46315SOL    HW140842  13.613   5.841   6.670
46315SOL    HW240843  13.537   5.901   6.787
46316SOL     OW40844  14.660   6.041   3.491
46316SOL    HW140845  14.686   6.095   3.565
46316SOL    HW240846  14.742   6.004   3.458
46317SOL     OW40847   7.137   9.231  14.654
46317SOL    HW140848   7.114   9.320  14.628
46317SOL    HW240849   7.110   9.177  14.579
46318SOL     OW40850   3.760  13.933  11.282
46318SOL    HW140851   3.683  13.959  11.232
46318SOL    HW240852   3.782  13.846  11.249
46319SOL     OW40853  12.119  10.113   7.899
46319SOL    HW140854  12.160  10.063   7.970
46319SOL    HW240855  12.188  10.169   7.865
46320SOL     OW40856  14.608   5.435  12.787
46320SOL    HW140857  14.625   5.495  12.715
46320SOL    HW240858  14.518   5.407  12.775
46321SOL     OW40859  14.480  11.920   3.049
46321SOL    HW140860  14.562  11.943   3.092
46321SOL    HW240861  14.414  11.930   3.117
46322SOL     OW40862   6.732  14.327   6.970
46322SOL    HW140863   6.650  14.280   6.954
46322SOL    HW240864   6.735  14.395   6.903
46323SOL     OW40865   5.169  13.845   4.541
46323SOL    HW140866   5.089  13.861   4.491
46323SOL    HW240867   5.217  13.781   4.490
46324SOL     OW40868   5.244   8.836  13.519
46324SOL    HW140869   5.252   8.740  13.521
46324SOL    HW240870   5.289   8.865  13.598
46325SOL     OW40871   3.615   6.160   3.328
46325SOL    HW140872   3.686   6.152   3.392
46325SOL    HW240873   3.565   6.236   3.357
46326SOL     OW40874   1.481  12.686  12.313
46326SOL    HW140875   1.499  12.594  12.294
46326SOL    HW240876   1.468  12.727  12.228
46327SOL     OW40877   6.380   5.464  14.372
46327SOL    HW140878   6.391   5.416  14.290
46327SOL    HW240879   6.300   5.427  14.410
46328SOL     OW40880  12.031  11.169  12.578
46328SOL    HW140881  12.055  11.085  12.540
46328SOL    HW240882  12.026  11.153  12.672
46329SOL     OW40883   2.350   3.048   4.153
46329SOL    HW140884   2.336   3.137   4.120
46329SOL    HW240885   2.445   3.042   4.164
46330SOL     OW40886   9.535   8.378   3.621
46330SOL    HW140887   9.549   8.465   3.657
46330SOL    HW240888   9.507   8.394   3.530
46331SOL     OW40889  14.258  12.911   0.922
46331SOL    HW140890  14.315  12.960   0.982
46331SOL    HW240891  14.229  12.976   0.859
46332SOL     OW40892  14.593   8.171  11.638
46332SOL    HW140893  14.605   8.262  11.612
46332SOL    HW240894  14.570   8.126  11.557
46333SOL     OW40895   5.104   7.562   5.702
46333SOL    HW140896   5.099   7.497   5.632
46333SOL    HW240897   5.014   7.596   5.710
46334SOL     OW40898  14.359  13.113  11.319
46334SOL    HW140899  14.447  13.079  11.303
46334SOL    HW240900  14.368  13.207  11.310
46335SOL     OW40901   9.058   1.076  11.891
46335SOL    HW140902   9.129   1.083  11.827
46335SOL    HW240903   9.075   0.994  11.936
46336SOL     OW40904   9.002  13.777   8.234
46336SOL    HW140905   8.994  13.702   8.294
46336SOL    HW240906   8.971  13.744   8.150
46337SOL     OW40907  10.543  13.016   8.517
46337SOL    HW140908  10.450  12.996   8.507
46337SOL    HW240909  10.588  12.958   8.456
46338SOL     OW40910   9.058   0.992  14.298
46338SOL    HW140911   9.049   1.070  14.244
46338SOL    HW240912   9.109   1.020  14.374
46339SOL     OW40913  10.185   4.988   6.038
46339SOL    HW140914  10.186   4.924   5.968
46339SOL    HW240915  10.131   5.060   6.005
46340SOL     OW40916   7.418   9.175   3.743
46340SOL    HW140917   7.380   9.251   3.787
46340SOL    HW240918   7.510   9.200   3.729
46341SOL     OW40919   1.492  14.515  12.005
46341SOL    HW140920   1.521  14.429  11.974
46341SOL    HW240921   1.573  14.563  12.021
46342SOL     OW40922   8.823  11.238   9.022
46342SOL    HW140923   8.815  11.187   9.103
46342SOL    HW240924   8.847  11.173   8.956
46343SOL     OW40925  13.347  12.856   7.523
46343SOL    HW140926  13.426  12.860   7.576
46343SOL    HW240927  13.275  12.866   7.586
46344SOL     OW40928   2.436   4.674   1.962
46344SOL    HW140929   2.422   4.648   2.053
46344SOL    HW240930   2.516   4.629   1.936
46345SOL     OW40931  11.120   5.800  14.291
46345SOL    HW140932  11.107   5.706  14.299
46345SOL    HW240933  11.079   5.823  14.207
46346SOL     OW40934   9.399  13.986  12.545
46346SOL    HW140935   9.343  13.987  12.623
46346SOL    HW240936   9.357  14.047  12.485
46347SOL     OW40937   6.665   0.941   0.255
46347SOL    HW140938   6.601   0.873   0.273
46347SOL    HW240939   6.739   0.895   0.217
46348SOL     OW40940   4.287   9.104  13.027
46348SOL    HW140941   4.373   9.140  13.049
46348SOL    HW240942   4.304   9.051  12.948
46349SOL     OW40943  10.530   3.213  14.087
46349SOL    HW140944  10.591   3.287  14.087
46349SOL    HW240945  10.466   3.235  14.020
46350SOL     OW40946   0.011   3.802  13.954
46350SOL    HW140947   0.027   3.759  14.039
46350SOL    HW240948  14.849   3.738  13.904
46351SOL     OW40949   2.146   9.733   4.197
46351SOL    HW140950   2.237   9.756   4.216
46351SOL    HW240951   2.094   9.796   4.246
46352SOL     OW40952   5.281   1.286  11.152
46352SOL    HW140953   5.330   1.354  11.104
46352SOL    HW240954   5.202   1.330  11.182
46353SOL     OW40955   0.877  10.184   1.208
46353SOL    HW140956   0.844  10.231   1.132
46353SOL    HW240957   0.972  10.194   1.203
46354SOL     OW40958  12.444   9.530   2.255
46354SOL    HW140959  12.373   9.497   2.201
46354SOL    HW240960  12.516   9.544   2.193
46355SOL     OW40961   5.034   9.495   4.059
46355SOL    HW140962   5.066   9.515   4.147
46355SOL    HW240963   4.965   9.560   4.044
46356SOL     OW40964  10.531  13.123  11.483
46356SOL    HW140965  10.437  13.109  11.494
46356SOL    HW240966  10.571  13.070  11.553
46357SOL     OW40967   9.974  11.729   4.535
46357SOL    HW140968   9.997  11.658   4.594
46357SOL    HW240969  10.022  11.708   4.454
46358SOL     OW40970  13.070  11.338   5.946
46358SOL    HW140971  13.041  11.382   6.025
46358SOL    HW240972  12.991  11.293   5.914
46359SOL     OW40973   8.087   5.452   3.076
46359SOL    HW140974   8.076   5.537   3.035
46359SOL    HW240975   8.163   5.413   3.032
46360SOL     OW40976   1.200   7.047  10.362
46360SOL    HW140977   1.286   7.017  10.332
46360SOL    HW240978   1.217   7.130  10.407
46361SOL     OW40979  12.069  11.578  12.644
46361SOL    HW140980  11.984  11.539  12.666
46361SOL    HW240981  12.133  11.522  12.687
46362SOL     OW40982  13.856   8.873  10.638
46362SOL    HW140983  13.948   8.874  10.664
46362SOL    HW240984  13.846   8.794  10.585
46363SOL     OW40985  12.721  13.294   9.989
46363SOL    HW140986  12.650  13.350  10.021
46363SOL    HW240987  12.774  13.275  10.066
46364SOL     OW40988  10.837   4.467  11.678
46364SOL    HW140989  10.754   4.426  11.653
46364SOL    HW240990  10.845   4.451  11.772
46365SOL     OW40991   4.978   2.464  11.757
46365SOL    HW140992   4.987   2.558  11.743
46365SOL    HW240993   5.058   2.438  11.803
46366SOL     OW40994   8.300   9.790   4.266
46366SOL    HW140995   8.280   9.846   4.192
46366SOL    HW240996   8.249   9.710   4.250
46367SOL     OW40997   3.067   5.010   8.842
46367SOL    HW140998   3.006   4.953   8.890
46367SOL    HW240999   3.023   5.095   8.838
46368SOL     OW41000   7.289  11.670   5.109
46368SOL    HW141001   7.383  11.652   5.114
46368SOL    HW241002   7.249  11.584   5.097
46369SOL     OW41003  10.137   4.447   0.831
46369SOL    HW141004  10.091   4.492   0.902
46369SOL    HW241005  10.076   4.449   0.758
46370SOL     OW41006   8.179   2.224   6.635
46370SOL    HW141007   8.120   2.174   6.579
46370SOL    HW241008   8.266   2.204   6.602
46371SOL     OW41009   9.196  10.178   9.229
46371SOL    HW141010   9.252  10.213   9.161
46371SOL    HW241011   9.166  10.093   9.194
46372SOL     OW41012   5.674   4.717   3.936
46372SOL    HW141013   5.712   4.658   3.870
46372SOL    HW241014   5.593   4.748   3.896
46373SOL     OW41015   3.805  13.637   5.330
46373SOL    HW141016   3.793  13.688   5.410
46373SOL    HW241017   3.757  13.556   5.346
46374SOL     OW41018  12.487  11.580   7.888
46374SOL    HW141019  12.418  11.629   7.932
46374SOL    HW241020  12.556  11.644   7.870
46375SOL     OW41021   4.283   5.510   2.314
46375SOL    HW141022   4.231   5.430   2.312
46375SOL    HW241023   4.346   5.496   2.385
46376SOL     OW41024   9.724  14.108   7.323
46376SOL    HW141025   9.637  14.119   7.361
46376SOL    HW241026   9.737  14.013   7.321
46377SOL     OW41027   5.951   7.493   1.193
46377SOL    HW141028   5.942   7.398   1.186
46377SOL    HW241029   5.949   7.510   1.287
46378SOL     OW41030   5.289   5.134  12.111
46378SOL    HW141031   5.336   5.193  12.170
46378SOL    HW241032   5.197   5.157  12.123
46379SOL     OW41033  11.754  14.529   6.714
46379SOL    HW141034  11.688  14.523   6.645
46379SOL    HW241035  11.836  14.542   6.666
46380SOL     OW41036  14.574   8.098   1.870
46380SOL    HW141037  14.561   8.023   1.812
46380SOL    HW241038  14.508   8.088   1.938
46381SOL     OW41039   6.855  12.036  14.599
46381SOL    HW141040   6.900  12.100  14.543
46381SOL    HW241041   6.909  12.031  14.677
46382SOL     OW41042  10.601  11.548  12.620
46382SOL    HW141043  10.604  11.609  12.694
46382SOL    HW241044  10.676  11.491  12.634
46383SOL     OW41045   6.121   0.264   3.398
46383SOL    HW141046   6.086   0.209   3.468
46383SOL    HW241047   6.052   0.329   3.382
46384SOL     OW41048  12.601  13.378   3.942
46384SOL    HW141049  12.647  13.369   4.025
46384SOL    HW241050  12.510  13.354   3.962
46385SOL     OW41051   7.490   4.351  12.690
46385SOL    HW141052   7.571   4.316  12.727
46385SOL    HW241053   7.434   4.367  12.766
46386SOL     OW41054  12.081  13.792   9.779
46386SOL    HW141055  12.174  13.771   9.785
46386SOL    HW241056  12.057  13.819   9.868
46387SOL     OW41057  10.848   2.735   1.766
46387SOL    HW141058  10.797   2.775   1.695
46387SOL    HW241059  10.888   2.658   1.726
46388SOL     OW41060   4.627   0.122   1.425
46388SOL    HW141061   4.536   0.100   1.443
46388SOL    HW241062   4.657   0.168   1.504
46389SOL     OW41063   5.180  12.342   2.394
46389SOL    HW141064   5.218  12.360   2.480
46389SOL    HW241065   5.166  12.428   2.355
46390SOL     OW41066   0.217  11.939  13.771
46390SOL    HW141067   0.295  11.970  13.725
46390SOL    HW241068   0.162  12.016  13.780
46391SOL     OW41069   0.488  13.982   2.683
46391SOL    HW141070   0.404  14.028   2.686
46391SOL    HW241071   0.474  13.903   2.735
46392SOL     OW41072  12.245   1.806   9.548
46392SOL    HW141073  12.254   1.771   9.636
46392SOL    HW241074  12.334   1.817   9.517
46393SOL     OW41075   0.543   3.803   8.887
46393SOL    HW141076   0.616   3.741   8.892
46393SOL    HW241077   0.557   3.862   8.961
46394SOL     OW41078   5.655   7.429   7.760
46394SOL    HW141079   5.692   7.492   7.699
46394SOL    HW241080   5.669   7.468   7.847
46395SOL     OW41081   4.010  14.282   1.125
46395SOL    HW141082   4.066  14.329   1.062
46395SOL    HW241083   3.922  14.316   1.108
46396SOL     OW41084   5.858   4.961   0.991
46396SOL    HW141085   5.810   5.027   1.041
46396SOL    HW241086   5.807   4.880   1.003
46397SOL     OW41087   3.115   2.771   3.964
46397SOL    HW141088   3.081   2.838   4.023
46397SOL    HW241089   3.200   2.747   4.002
46398SOL     OW41090  11.436  14.671  14.728
46398SOL    HW141091  11.446  14.576  14.725
46398SOL    HW241092  11.493  14.703  14.658
46399SOL     OW41093   5.347  14.832   8.256
46399SOL    HW141094   5.375   0.022   8.207
46399SOL    HW241095   5.350  14.859   8.348
46400SOL     OW41096   5.401   2.529   6.731
46400SOL    HW141097   5.334   2.520   6.663
46400SOL    HW241098   5.376   2.607   6.779
46401SOL     OW41099   2.957   4.969   6.167
46401SOL    HW141100   3.022   4.936   6.105
46401SOL    HW241101   2.999   4.962   6.253
46402SOL     OW41102  11.334  12.600   1.286
46402SOL    HW141103  11.400  12.534   1.265
46402SOL    HW241104  11.324  12.594   1.381
46403SOL     OW41105   1.842  12.928   7.935
46403SOL    HW141106   1.775  12.984   7.895
46403SOL    HW241107   1.888  12.985   7.996
46404SOL     OW41108  10.218   0.520  12.464
46404SOL    HW141109  10.313   0.529  12.462
46404SOL    HW241110  10.190   0.540  12.374
46405SOL     OW41111   6.168   3.909   0.976
46405SOL    HW141112   6.259   3.903   1.004
46405SOL    HW241113   6.118   3.903   1.057
46406SOL     OW41114  10.445   3.436   4.458
46406SOL    HW141115  10.500   3.480   4.524
46406SOL    HW241116  10.356   3.445   4.491
46407SOL     OW41117  11.502   7.411   7.906
46407SOL    HW141118  11.408   7.427   7.897
46407SOL    HW241119  11.512   7.316   7.896
46408SOL     OW41120   2.755   2.753  10.632
46408SOL    HW141121   2.725   2.842  10.651
46408SOL    HW241122   2.850   2.758  10.634
46409SOL     OW41123  14.521   0.331   0.913
46409SOL    HW141124  14.503   0.239   0.899
46409SOL    HW241125  14.491   0.348   1.002
46410SOL     OW41126   0.207   8.298   5.242
46410SOL    HW141127   0.223   8.392   5.234
46410SOL    HW241128   0.295   8.259   5.243
46411SOL     OW41129   2.164  13.047   0.902
46411SOL    HW141130   2.080  13.009   0.876
46411SOL    HW241131   2.141  13.108   0.972
46412SOL     OW41132   2.623   8.434  11.680
46412SOL    HW141133   2.651   8.517  11.641
46412SOL    HW241134   2.551   8.458  11.737
46413SOL     OW41135   4.782   1.928  12.110
46413SOL    HW141136   4.733   1.846  12.106
46413SOL    HW241137   4.872   1.901  12.128
46414SOL     OW41138  11.927   2.542   0.402
46414SOL    HW141139  11.982   2.485   0.456
46414SOL    HW241140  11.984   2.567   0.329
46415SOL     OW41141   7.972  14.526   4.543
46415SOL    HW141142   7.997  14.456   4.604
46415SOL    HW241143   7.882  14.547   4.565
46416SOL     OW41144  10.703  13.309  11.978
46416SOL    HW141145  10.760  13.261  11.917
46416SOL    HW241146  10.617  13.305  11.937
46417SOL     OW41147   1.924   8.815   7.012
46417SOL    HW141148   1.990   8.808   6.943
46417SOL    HW241149   1.857   8.750   6.988
46418SOL     OW41150   2.437   5.878   5.364
46418SOL    HW141151   2.515   5.882   5.419
46418SOL    HW241152   2.366   5.860   5.424
46419SOL     OW41153   8.719   9.659   7.597
46419SOL    HW141154   8.698   9.626   7.685
46419SOL    HW241155   8.733   9.753   7.610
46420SOL     OW41156  10.981   3.282   8.331
46420SOL    HW141157  10.911   3.229   8.291
46420SOL    HW241158  11.035   3.309   8.257
46421SOL     OW41159   5.828   2.713   4.333
46421SOL    HW141160   5.920   2.695   4.316
46421SOL    HW241161   5.826   2.807   4.354
46422SOL     OW41162   3.927  12.230   3.567
46422SOL    HW141163   3.846  12.272   3.594
46422SOL    HW241164   3.968  12.293   3.508
46423SOL     OW41165   7.158   9.663  14.874
46423SOL    HW141166   7.142   9.569  14.867
46423SOL    HW241167   7.110   9.701  14.801
46424SOL     OW41168  13.662   4.207   0.538
46424SOL    HW141169  13.614   4.255   0.470
46424SOL    HW241170  13.690   4.126   0.495
46425SOL     OW41171  13.148   1.010   8.347
46425SOL    HW141172  13.170   1.072   8.417
46425SOL    HW241173  13.233   0.984   8.311
46426SOL     OW41174   4.830   0.317   9.394
46426SOL    HW141175   4.834   0.265   9.314
46426SOL    HW241176   4.919   0.314   9.429
46427SOL     OW41177  11.314   6.627  11.409
46427SOL    HW141178  11.310   6.646  11.315
46427SOL    HW241179  11.407   6.623  11.430
46428SOL     OW41180  13.018   5.210  11.991
46428SOL    HW141181  12.988   5.123  11.962
46428SOL    HW241182  13.076   5.192  12.064
46429SOL     OW41183  13.160   0.996   6.450
46429SOL    HW141184  13.206   1.080   6.447
46429SOL    HW241185  13.104   0.997   6.372
46430SOL     OW41186   5.638   0.244   3.685
46430SOL    HW141187   5.566   0.180   3.684
46430SOL    HW241188   5.665   0.248   3.776
46431SOL     OW41189   1.971  11.951   8.767
46431SOL    HW141190   2.052  11.914   8.802
46431SOL    HW241191   1.901  11.907   8.816
46432SOL     OW41192   4.064   3.447   1.489
46432SOL    HW141193   4.157   3.459   1.507
46432SOL    HW241194   4.032   3.534   1.466
46433SOL     OW41195   6.128  10.470   3.376
46433SOL    HW141196   6.171  10.472   3.462
46433SOL    HW241197   6.042  10.508   3.390
46434SOL     OW41198   9.797  14.465  13.325
46434SOL    HW141199   9.770  14.542  13.275
46434SOL    HW241200   9.857  14.419  13.266
46435SOL     OW41201  13.627   6.761   4.272
46435SOL    HW141202  13.578   6.682   4.293
46435SOL    HW241203  13.632   6.762   4.177
46436SOL     OW41204   8.683   6.928   6.935
46436SOL    HW141205   8.697   6.836   6.958
46436SOL    HW241206   8.695   6.976   7.017
46437SOL     OW41207   7.255   4.489  12.846
46437SOL    HW141208   7.258   4.537  12.764
46437SOL    HW241209   7.195   4.416  12.829
46438SOL     OW41210   3.677   5.203  11.798
46438SOL    HW141211   3.756   5.235  11.755
46438SOL    HW241212   3.671   5.111  11.773
46439SOL     OW41213  10.104  11.476  14.657
46439SOL    HW141214  10.017  11.509  14.634
46439SOL    HW241215  10.130  11.530  14.732
46440SOL     OW41216  11.346   5.080  10.593
46440SOL    HW141217  11.312   5.169  10.594
46440SOL    HW241218  11.418   5.082  10.530
46441SOL     OW41219   7.793  14.737   3.051
46441SOL    HW141220   7.723  14.682   3.017
46441SOL    HW241221   7.765  14.827   3.032
46442SOL     OW41222   9.840   2.399   7.814
46442SOL    HW141223   9.815   2.435   7.729
46442SOL    HW241224   9.906   2.332   7.794
46443SOL     OW41225   4.779   7.267   6.790
46443SOL    HW141226   4.862   7.274   6.744
46443SOL    HW241227   4.744   7.181   6.766
46444SOL     OW41228   0.992   7.682  11.197
46444SOL    HW141229   1.056   7.699  11.129
46444SOL    HW241230   1.011   7.593  11.227
46445SOL     OW41231   5.061   5.857   4.596
46445SOL    HW141232   5.035   5.881   4.507
46445SOL    HW241233   5.153   5.881   4.601
46446SOL     OW41234   0.325   5.186  13.518
46446SOL    HW141235   0.254   5.172  13.580
46446SOL    HW241236   0.405   5.166  13.568
46447SOL     OW41237   8.205   2.060   4.110
46447SOL    HW141238   8.215   2.155   4.114
46447SOL    HW241239   8.295   2.027   4.102
46448SOL     OW41240   8.133  11.833  13.376
46448SOL    HW141241   8.192  11.841  13.451
46448SOL    HW241242   8.054  11.880  13.403
46449SOL     OW41243   9.417   8.963   9.158
46449SOL    HW141244   9.432   8.948   9.252
46449SOL    HW241245   9.323   8.950   9.146
46450SOL     OW41246  14.672   3.217  14.623
46450SOL    HW141247  14.724   3.287  14.583
46450SOL    HW241248  14.688   3.141  14.567
46451SOL     OW41249   6.738   4.964  12.831
46451SOL    HW141250   6.678   5.007  12.770
46451SOL    HW241251   6.809   4.932  12.775
46452SOL     OW41252  12.529  10.179   7.031
46452SOL    HW141253  12.558  10.200   6.943
46452SOL    HW241254  12.469  10.249   7.055
46453SOL     OW41255  13.194  10.209   3.594
46453SOL    HW141256  13.215  10.154   3.519
46453SOL    HW241257  13.121  10.264   3.565
46454SOL     OW41258   0.663   8.467   9.458
46454SOL    HW141259   0.637   8.400   9.521
46454SOL    HW241260   0.755   8.447   9.439
46455SOL     OW41261   2.293  12.447  10.580
46455SOL    HW141262   2.207  12.406  10.596
46455SOL    HW241263   2.283  12.491  10.496
46456SOL     OW41264  13.753   1.837  12.035
46456SOL    HW141265  13.798   1.773  12.090
46456SOL    HW241266  13.811   1.913  12.033
46457SOL     OW41267  13.712   5.671   4.284
46457SOL    HW141268  13.713   5.705   4.374
46457SOL    HW241269  13.682   5.745   4.231
46458SOL     OW41270  14.395   0.783  13.163
46458SOL    HW141271  14.453   0.784  13.087
46458SOL    HW241272  14.319   0.834  13.136
46459SOL     OW41273   8.526   4.359  13.728
46459SOL    HW141274   8.594   4.423  13.706
46459SOL    HW241275   8.481   4.343  13.645
46460SOL     OW41276   0.069   5.723  12.549
46460SOL    HW141277   0.123   5.668  12.606
46460SOL    HW241278   0.069   5.809  12.592
46461SOL     OW41279  12.146   0.233   6.390
46461SOL    HW141280  12.212   0.252   6.456
46461SOL    HW241281  12.065   0.223   6.439
46462SOL     OW41282   7.697   6.212   3.859
46462SOL    HW141283   7.740   6.240   3.778
46462SOL    HW241284   7.605   6.234   3.846
46463SOL     OW41285   0.952  11.271   6.127
46463SOL    HW141286   0.961  11.297   6.219
46463SOL    HW241287   0.967  11.176   6.127
46464SOL     OW41288   5.760   8.303   7.151
46464SOL    HW141289   5.811   8.247   7.210
46464SOL    HW241290   5.743   8.249   7.075
46465SOL     OW41291  14.864   0.971  14.186
46465SOL    HW141292   0.070   0.994  14.181
46465SOL    HW241293  14.832   0.982  14.097
46466SOL     OW41294  14.237  13.704   6.742
46466SOL    HW141295  14.264  13.749   6.662
46466SOL    HW241296  14.214  13.616   6.713
46467SOL     OW41297   0.070   4.564   2.734
46467SOL    HW141298   0.073   4.558   2.638
46467SOL    HW241299   0.146   4.514   2.763
46468SOL     OW41300   1.742   3.926   5.925
46468SOL    HW141301   1.784   4.007   5.955
46468SOL    HW241302   1.651   3.951   5.910
46469SOL     OW41303  14.754   4.453   5.990
46469SOL    HW141304  14.732   4.545   5.984
46469SOL    HW241305  14.844   4.451   6.024
46470SOL     OW41306  12.628  12.901  13.014
46470SOL    HW141307  12.609  12.823  12.963
46470SOL    HW241308  12.548  12.953  13.008
46471SOL     OW41309   2.497   5.278  10.145
46471SOL    HW141310   2.431   5.257  10.079
46471SOL    HW241311   2.561   5.206  10.139
46472SOL     OW41312   4.846  12.525  12.079
46472SOL    HW141313   4.864  12.487  12.165
46472SOL    HW241314   4.769  12.581  12.094
46473SOL     OW41315   4.944  12.349  13.401
46473SOL    HW141316   4.935  12.445  13.397
46473SOL    HW241317   4.975  12.332  13.490
46474SOL     OW41318   6.372   7.972   2.276
46474SOL    HW141319   6.299   8.000   2.331
46474SOL    HW241320   6.388   7.881   2.302
46475SOL     OW41321   3.626   0.860   7.465
46475SOL    HW141322   3.640   0.849   7.559
46475SOL    HW241323   3.655   0.950   7.447
46476SOL     OW41324  12.840  13.191   6.900
46476SOL    HW141325  12.868  13.103   6.927
46476SOL    HW241326  12.832  13.186   6.805
46477SOL     OW41327   3.578   5.225   8.519
46477SOL    HW141328   3.644   5.158   8.535
46477SOL    HW241329   3.609   5.301   8.569
46478SOL     OW41330   5.454  14.170  10.861
46478SOL    HW141331   5.476  14.140  10.950
46478SOL    HW241332   5.521  14.235  10.840
46479SOL     OW41333   7.734   7.647   4.644
46479SOL    HW141334   7.658   7.622   4.696
46479SOL    HW241335   7.801   7.669   4.709
46480SOL     OW41336  12.215  10.894  13.408
46480SOL    HW141337  12.203  10.831  13.337
46480SOL    HW241338  12.242  10.842  13.483
46481SOL     OW41339   1.215   2.533   7.767
46481SOL    HW141340   1.179   2.451   7.736
46481SOL    HW241341   1.143   2.596   7.761
46482SOL     OW41342   6.471   7.329   7.197
46482SOL    HW141343   6.505   7.367   7.278
46482SOL    HW241344   6.391   7.283   7.224
46483SOL     OW41345  12.921   5.243   9.003
46483SOL    HW141346  13.011   5.215   9.018
46483SOL    HW241347  12.913   5.252   8.908
46484SOL     OW41348   5.989  14.282   3.349
46484SOL    HW141349   6.049  14.209   3.335
46484SOL    HW241350   6.030  14.334   3.419
46485SOL     OW41351   1.855  11.198   7.980
46485SOL    HW141352   1.760  11.208   7.982
46485SOL    HW241353   1.886  11.246   8.056
46486SOL     OW41354   6.473   6.781  12.937
46486SOL    HW141355   6.387   6.786  12.895
46486SOL    HW241356   6.535   6.795  12.866
46487SOL     OW41357  11.525   7.123  12.245
46487SOL    HW141358  11.564   7.188  12.187
46487SOL    HW241359  11.514   7.170  12.328
46488SOL     OW41360   1.227   8.388  14.484
46488SOL    HW141361   1.226   8.446  14.560
46488SOL    HW241362   1.307   8.413  14.436
46489SOL     OW41363  11.379  14.863   2.835
46489SOL    HW141364  11.306   0.037   2.837
46489SOL    HW241365  11.441   0.014   2.773
46490SOL     OW41366   1.105  11.275  13.594
46490SOL    HW141367   1.168  11.322  13.648
46490SOL    HW241368   1.123  11.304  13.505
46491SOL     OW41369   2.814   0.605  14.812
46491SOL    HW141370   2.846   0.601   0.015
46491SOL    HW241371   2.890   0.579  14.759
46492SOL     OW41372   9.368   6.075  10.912
46492SOL    HW141373   9.373   6.013  10.984
46492SOL    HW241374   9.304   6.141  10.941
46493SOL     OW41375  12.730   5.993   7.995
46493SOL    HW141376  12.728   5.902   8.023
46493SOL    HW241377  12.706   6.043   8.074
46494SOL     OW41378   3.287   3.794   6.147
46494SOL    HW141379   3.227   3.765   6.078
46494SOL    HW241380   3.311   3.883   6.122
46495SOL     OW41381  10.273   9.373   7.767
46495SOL    HW141382  10.214   9.425   7.712
46495SOL    HW241383  10.276   9.288   7.724
46496SOL     OW41384   7.998   9.907  14.726
46496SOL    HW141385   8.092   9.914  14.710
46496SOL    HW241386   7.992   9.860  14.809
46497SOL     OW41387   5.042   6.351   1.339
46497SOL    HW141388   5.028   6.374   1.431
46497SOL    HW241389   5.045   6.255   1.338
46498SOL     OW41390   4.430  10.809   5.093
46498SOL    HW141391   4.423  10.716   5.115
46498SOL    HW241392   4.523  10.821   5.073
46499SOL     OW41393   0.002   6.026  12.962
46499SOL    HW141394   0.038   5.939  12.945
46499SOL    HW241395   0.070   6.071  13.012
46500SOL     OW41396  10.085   1.926   1.804
46500SOL    HW141397  10.092   2.021   1.789
46500SOL    HW241398  10.176   1.895   1.803
46501SOL     OW41399   1.777   8.249   2.431
46501SOL    HW141400   1.757   8.169   2.480
46501SOL    HW241401   1.868   8.269   2.454
46502SOL     OW41402  11.675   8.351  11.559
46502SOL    HW141403  11.590   8.394  11.558
46502SOL    HW241404  11.719   8.388  11.636
46503SOL     OW41405  14.091   5.704  13.906
46503SOL    HW141406  14.083   5.773  13.972
46503SOL    HW241407  14.178   5.716  13.869
46504SOL     OW41408   1.522   6.893   4.938
46504SOL    HW141409   1.474   6.821   4.979
46504SOL    HW241410   1.542   6.860   4.850
46505SOL     OW41411   8.468   9.422   2.699
46505SOL    HW141412   8.542   9.468   2.739
46505SOL    HW241413   8.447   9.474   2.621
46506SOL     OW41414  12.695   6.455  14.200
46506SOL    HW141415  12.665   6.403  14.275
46506SOL    HW241416  12.760   6.399  14.157
46507SOL     OW41417  10.435   2.007   5.711
46507SOL    HW141418  10.508   2.041   5.659
46507SOL    HW241419  10.464   2.014   5.801
46508SOL     OW41420   8.075  11.001   4.469
46508SOL    HW141421   8.103  11.083   4.428
46508SOL    HW241422   8.149  10.941   4.457
46509SOL     OW41423   2.322   3.259   7.819
46509SOL    HW141424   2.384   3.286   7.752
46509SOL    HW241425   2.258   3.330   7.822
46510SOL     OW41426  11.582   8.009  14.621
46510SOL    HW141427  11.567   7.932  14.676
46510SOL    HW241428  11.603   8.078  14.683
46511SOL     OW41429   7.799  10.916   8.129
46511SOL    HW141430   7.786  11.005   8.097
46511SOL    HW241431   7.836  10.927   8.216
46512SOL     OW41432  13.905   9.003   6.153
46512SOL    HW141433  13.866   8.917   6.168
46512SOL    HW241434  13.999   8.987   6.151
46513SOL     OW41435   9.467   5.400   2.149
46513SOL    HW141436   9.507   5.315   2.134
46513SOL    HW241437   9.374   5.382   2.162
46514SOL     OW41438   3.290   9.730   5.913
46514SOL    HW141439   3.212   9.674   5.923
46514SOL    HW241440   3.295   9.777   5.996
46515SOL     OW41441  13.670   9.602   6.256
46515SOL    HW141442  13.749   9.552   6.274
46515SOL    HW241443  13.640   9.631   6.342
46516SOL     OW41444   2.329   6.542   6.040
46516SOL    HW141445   2.404   6.487   6.014
46516SOL    HW241446   2.332   6.543   6.135
46517SOL     OW41447  10.809   9.497  13.992
46517SOL    HW141448  10.773   9.541  13.915
46517SOL    HW241449  10.745   9.429  14.013
46518SOL     OW41450   8.795   2.801   8.726
46518SOL    HW141451   8.827   2.756   8.804
46518SOL    HW241452   8.867   2.856   8.698
46519SOL     OW41453   1.195  14.160  13.518
46519SOL    HW141454   1.211  14.093  13.452
46519SOL    HW241455   1.278  14.168  13.565
46520SOL     OW41456  14.758   9.423  11.403
46520SOL    HW141457  14.664   9.417  11.384
46520SOL    HW241458  14.763   9.450  11.494
46521SOL     OW41459  12.372   1.570  10.843
46521SOL    HW141460  12.325   1.487  10.851
46521SOL    HW241461  12.384   1.599  10.934
46522SOL     OW41462   1.029   9.795   8.729
46522SOL    HW141463   1.056   9.829   8.814
46522SOL    HW241464   0.935   9.781   8.738
46523SOL     OW41465   4.083   3.987   6.275
46523SOL    HW141466   4.144   4.022   6.340
46523SOL    HW241467   3.996   4.001   6.313
46524SOL     OW41468  11.474  10.095   4.474
46524SOL    HW141469  11.531  10.080   4.398
46524SOL    HW241470  11.463  10.008   4.513
46525SOL     OW41471   8.333   0.958  12.556
46525SOL    HW141472   8.274   1.023  12.518
46525SOL    HW241473   8.296   0.939  12.642
46526SOL     OW41474  11.666   4.268   0.703
46526SOL    HW141475  11.590   4.223   0.741
46526SOL    HW241476  11.725   4.283   0.776
46527SOL     OW41477   5.796   9.333   0.542
46527SOL    HW141478   5.749   9.289   0.472
46527SOL    HW241479   5.836   9.409   0.501
46528SOL     OW41480  10.637   7.104   3.626
46528SOL    HW141481  10.679   7.124   3.543
46528SOL    HW241482  10.568   7.041   3.604
46529SOL     OW41483   9.510   4.845   3.750
46529SOL    HW141484   9.482   4.754   3.754
46529SOL    HW241485   9.437   4.894   3.789
46530SOL     OW41486  12.095  11.547  11.629
46530SOL    HW141487  12.176  11.579  11.669
46530SOL    HW241488  12.119  11.463  11.590
46531SOL     OW41489  11.254  13.776   0.762
46531SOL    HW141490  11.216  13.864   0.756
46531SOL    HW241491  11.186  13.718   0.727
46532SOL     OW41492   4.599   4.601   8.530
46532SOL    HW141493   4.659   4.642   8.593
46532SOL    HW241494   4.551   4.536   8.581
46533SOL     OW41495  11.776  14.148   9.147
46533SOL    HW141496  11.866  14.181   9.145
46533SOL    HW241497  11.728  14.207   9.089
46534SOL     OW41498   4.356   2.157  11.703
46534SOL    HW141499   4.303   2.119  11.772
46534SOL    HW241500   4.299   2.220  11.660
46535SOL     OW41501   5.257   1.295  12.589
46535SOL    HW141502   5.189   1.301  12.656
46535SOL    HW241503   5.210   1.305  12.506
46536SOL     OW41504  14.600   9.636   8.959
46536SOL    HW141505  14.530   9.697   8.984
46536SOL    HW241506  14.584   9.558   9.011
46537SOL     OW41507   1.161   2.540  11.375
46537SOL    HW141508   1.099   2.495  11.433
46537SOL    HW241509   1.244   2.536  11.423
46538SOL     OW41510  11.493   8.875   8.566
46538SOL    HW141511  11.452   8.844   8.486
46538SOL    HW241512  11.428   8.862   8.634
46539SOL     OW41513   6.437  11.858  12.360
46539SOL    HW141514   6.359  11.893  12.316
46539SOL    HW241515   6.510  11.884  12.304
46540SOL     OW41516   6.466  14.559   6.908
46540SOL    HW141517   6.427  14.559   6.821
46540SOL    HW241518   6.393  14.578   6.967
46541SOL     OW41519   2.451   9.485   3.743
46541SOL    HW141520   2.478   9.491   3.834
46541SOL    HW241521   2.415   9.571   3.722
46542SOL     OW41522  13.993   0.857   2.859
46542SOL    HW141523  14.031   0.853   2.947
46542SOL    HW241524  14.069   0.868   2.801
46543SOL     OW41525   8.835   3.944   6.044
46543SOL    HW141526   8.812   4.031   6.010
46543SOL    HW241527   8.908   3.961   6.104
46544SOL     OW41528   6.724  11.516  10.438
46544SOL    HW141529   6.650  11.516  10.377
46544SOL    HW241530   6.759  11.427  10.433
46545SOL     OW41531   7.006  11.604   4.861
46545SOL    HW141532   7.062  11.658   4.805
46545SOL    HW241533   7.067  11.544   4.904
46546SOL     OW41534   3.568  13.530   5.131
46546SOL    HW141535   3.659  13.558   5.115
46546SOL    HW241536   3.576  13.452   5.186
46547SOL     OW41537   3.387  11.140  11.168
46547SOL    HW141538   3.477  11.134  11.135
46547SOL    HW241539   3.340  11.072  11.121
46548SOL     OW41540   5.317   3.303   1.507
46548SOL    HW141541   5.394   3.347   1.473
46548SOL    HW241542   5.249   3.318   1.441
46549SOL     OW41543  14.341  10.659   4.067
46549SOL    HW141544  14.349  10.573   4.027
46549SOL    HW241545  14.268  10.700   4.021
46550SOL     OW41546   7.665   2.733  10.484
46550SOL    HW141547   7.594   2.785  10.523
46550SOL    HW241548   7.620   2.669  10.429
46551SOL     OW41549   7.595   6.209   6.179
46551SOL    HW141550   7.604   6.140   6.113
46551SOL    HW241551   7.684   6.237   6.197
46552SOL     OW41552   4.242  11.654  13.401
46552SOL    HW141553   4.299  11.694  13.467
46552SOL    HW241554   4.230  11.564  13.432
46553SOL     OW41555   3.061  14.507   5.153
46553SOL    HW141556   3.009  14.442   5.200
46553SOL    HW241557   3.000  14.543   5.088
46554SOL     OW41558   7.487  10.548   0.232
46554SOL    HW141559   7.412  10.605   0.244
46554SOL    HW241560   7.460  10.486   0.164
46555SOL     OW41561  10.179   4.799   1.431
46555SOL    HW141562  10.120   4.857   1.479
46555SOL    HW241563  10.264   4.812   1.472
46556SOL     OW41564   5.407  14.158  11.844
46556SOL    HW141565   5.487  14.111  11.818
46556SOL    HW241566   5.439  14.241  11.880
46557SOL     OW41567   1.794   8.735  13.673
46557SOL    HW141568   1.802   8.640  13.673
46557SOL    HW241569   1.700   8.751  13.687
46558SOL     OW41570   2.223   3.826  14.117
46558SOL    HW141571   2.188   3.882  14.048
46558SOL    HW241572   2.146   3.783  14.154
46559SOL     OW41573   0.182   8.776   5.240
46559SOL    HW141574   0.106   8.769   5.297
46559SOL    HW241575   0.218   8.687   5.238
46560SOL     OW41576   2.624   3.232   4.447
46560SOL    HW141577   2.718   3.232   4.462
46560SOL    HW241578   2.608   3.156   4.392
46561SOL     OW41579   5.295   5.149   6.534
46561SOL    HW141580   5.359   5.081   6.515
46561SOL    HW241581   5.275   5.187   6.449
46562SOL     OW41582   0.372  11.821   3.175
46562SOL    HW141583   0.399  11.865   3.255
46562SOL    HW241584   0.454  11.800   3.130
46563SOL     OW41585  10.061   2.746  14.072
46563SOL    HW141586  10.078   2.663  14.027
46563SOL    HW241587  10.142   2.765  14.120
46564SOL     OW41588   7.723   3.561   1.955
46564SOL    HW141589   7.695   3.545   2.045
46564SOL    HW241590   7.762   3.478   1.928
46565SOL     OW41591   0.175   2.588  11.986
46565SOL    HW141592   0.241   2.519  11.982
46565SOL    HW241593   0.101   2.548  12.032
46566SOL     OW41594   6.256  13.964   7.143
46566SOL    HW141595   6.165  13.936   7.153
46566SOL    HW241596   6.251  14.056   7.117
46567SOL     OW41597   9.270   4.460  10.608
46567SOL    HW141598   9.320   4.394  10.560
46567SOL    HW241599   9.179   4.442  10.586
46568SOL     OW41600   3.381   6.708   1.481
46568SOL    HW141601   3.312   6.707   1.414
46568SOL    HW241602   3.417   6.620   1.479
46569SOL     OW41603   1.958   1.169   7.749
46569SOL    HW141604   2.022   1.234   7.778
46569SOL    HW241605   1.954   1.105   7.820
46570SOL     OW41606  12.874  12.333   2.084
46570SOL    HW141607  12.891  12.265   2.149
46570SOL    HW241608  12.932  12.311   2.010
46571SOL     OW41609  12.648   1.671  10.791
46571SOL    HW141610  12.664   1.632  10.877
46571SOL    HW241611  12.556   1.650  10.773
46572SOL     OW41612   5.652   2.362   0.677
46572SOL    HW141613   5.691   2.312   0.606
46572SOL    HW241614   5.695   2.448   0.672
46573SOL     OW41615   7.543   5.153   7.020
46573SOL    HW141616   7.448   5.166   7.023
46573SOL    HW241617   7.579   5.242   7.028
46574SOL     OW41618   3.626  12.224   2.853
46574SOL    HW141619   3.603  12.309   2.891
46574SOL    HW241620   3.543  12.176   2.850
46575SOL     OW41621   4.679   8.035  13.509
46575SOL    HW141622   4.617   8.064  13.576
46575SOL    HW241623   4.741   8.107  13.500
46576SOL     OW41624   4.702  13.828  12.391
46576SOL    HW141625   4.724  13.747  12.438
46576SOL    HW241626   4.730  13.898  12.450
46577SOL     OW41627   7.388  14.751  11.189
46577SOL    HW141628   7.457  14.803  11.231
46577SOL    HW241629   7.424  14.729  11.103
46578SOL     OW41630   2.834   8.252   5.892
46578SOL    HW141631   2.909   8.237   5.835
46578SOL    HW241632   2.761   8.209   5.848
46579SOL     OW41633   7.804   3.977   7.355
46579SOL    HW141634   7.741   4.041   7.388
46579SOL    HW241635   7.873   3.974   7.421
46580SOL     OW41636   5.878  14.109   2.604
46580SOL    HW141637   5.891  14.189   2.655
46580SOL    HW241638   5.952  14.054   2.625
46581SOL     OW41639   0.900  11.682  10.562
46581SOL    HW141640   0.952  11.610  10.525
46581SOL    HW241641   0.853  11.642  10.635
46582SOL     OW41642   5.285   9.959   6.283
46582SOL    HW141643   5.237  10.012   6.347
46582SOL    HW241644   5.309  10.020   6.214
46583SOL     OW41645  11.345   7.803   0.860
46583SOL    HW141646  11.271   7.820   0.801
46583SOL    HW241647  11.310   7.817   0.948
46584SOL     OW41648  14.824   4.859   5.194
46584SOL    HW141649  14.785   4.878   5.108
46584SOL    HW241650  14.787   4.926   5.251
46585SOL     OW41651  11.915   1.793   0.145
46585SOL    HW141652  11.967   1.824   0.220
46585SOL    HW241653  11.825   1.795   0.176
46586SOL     OW41654  13.990   0.459   2.852
46586SOL    HW141655  14.007   0.482   2.760
46586SOL    HW241656  13.922   0.520   2.879
46587SOL     OW41657   1.393  10.526   4.659
46587SOL    HW141658   1.439  10.515   4.576
46587SOL    HW241659   1.313  10.574   4.636
46588SOL     OW41660   9.854  14.467   8.374
46588SOL    HW141661   9.873  14.517   8.294
46588SOL    HW241662   9.917  14.501   8.438
46589SOL     OW41663  10.396  10.568   8.403
46589SOL    HW141664  10.341  10.512   8.349
46589SOL    HW241665  10.335  10.611   8.463
46590SOL     OW41666   0.126   4.255   8.216
46590SOL    HW141667   0.053   4.193   8.214
46590SOL    HW241668   0.113   4.310   8.139
46591SOL     OW41669  12.183   4.507   5.181
46591SOL    HW141670  12.201   4.490   5.273
46591SOL    HW241671  12.257   4.560   5.152
46592SOL     OW41672   6.116   0.432   1.461
46592SOL    HW141673   6.200   0.456   1.500
46592SOL    HW241674   6.050   0.468   1.521
46593SOL     OW41675  10.817  12.671   7.256
46593SOL    HW141676  10.774  12.739   7.308
46593SOL    HW241677  10.906  12.669   7.289
46594SOL     OW41678   0.690   9.000  13.472
46594SOL    HW141679   0.612   8.948  13.491
46594SOL    HW241680   0.660   9.091  13.477
46595SOL     OW41681  11.944   6.413  14.774
46595SOL    HW141682  12.030   6.406  14.734
46595SOL    HW241683  11.890   6.350  14.727
46596SOL     OW41684   3.387  12.818   5.610
46596SOL    HW141685   3.465  12.762   5.601
46596SOL    HW241686   3.314  12.757   5.612
46597SOL     OW41687   0.990   8.448   0.955
46597SOL    HW141688   1.064   8.488   0.909
46597SOL    HW241689   0.949   8.390   0.890
46598SOL     OW41690  10.163   0.646   9.351
46598SOL    HW141691  10.074   0.610   9.355
46598SOL    HW241692  10.214   0.591   9.411
46599SOL     OW41693   6.681  14.356   5.990
46599SOL    HW141694   6.737  14.400   5.926
46599SOL    HW241695   6.599  14.341   5.944
46600SOL     OW41696  10.354   2.132  10.753
46600SOL    HW141697  10.367   2.038  10.738
46600SOL    HW241698  10.291   2.136  10.825
46601SOL     OW41699   7.125   3.225   9.207
46601SOL    HW141700   7.135   3.311   9.249
46601SOL    HW241701   7.106   3.246   9.116
46602SOL     OW41702  10.327   6.316   4.018
46602SOL    HW141703  10.239   6.285   3.999
46602SOL    HW241704  10.373   6.240   4.054
46603SOL     OW41705  14.245   2.511   2.557
46603SOL    HW141706  14.218   2.549   2.640
46603SOL    HW241707  14.302   2.438   2.581
46604SOL     OW41708   2.100   1.955  14.482
46604SOL    HW141709   2.039   2.002  14.425
46604SOL    HW241710   2.061   1.959  14.569
46605SOL     OW41711   2.988   5.277  11.257
46605SOL    HW141712   3.031   5.208  11.306
46605SOL    HW241713   3.060   5.330  11.222
46606SOL     OW41714  11.138   0.881   4.671
46606SOL    HW141715  11.188   0.857   4.748
46606SOL    HW241716  11.134   0.977   4.673
46607SOL     OW41717  14.440  10.107  12.068
46607SOL    HW141718  14.391  10.144  12.142
46607SOL    HW241719  14.470  10.183  12.019
46608SOL     OW41720   3.593   8.221  13.107
46608SOL    HW141721   3.655   8.293  13.099
46608SOL    HW241722   3.546   8.239  13.189
46609SOL     OW41723   7.946  12.035   8.105
46609SOL    HW141724   7.971  12.123   8.077
46609SOL    HW241725   7.860  12.021   8.066
46610SOL     OW41726   5.305   8.064   5.155
46610SOL    HW141727   5.228   8.046   5.100
46610SOL    HW241728   5.310   8.159   5.159
46611SOL     OW41729   7.444   4.960   7.219
46611SOL    HW141730   7.500   5.013   7.163
46611SOL    HW241731   7.361   4.953   7.172
46612SOL     OW41732   1.116   4.838   5.710
46612SOL    HW141733   1.139   4.786   5.633
46612SOL    HW241734   1.036   4.797   5.743
46613SOL     OW41735  14.058  13.982   7.515
46613SOL    HW141736  14.016  13.896   7.508
46613SOL    HW241737  14.002  14.040   7.464
46614SOL     OW41738  10.962   6.365   3.553
46614SOL    HW141739  11.014   6.315   3.490
46614SOL    HW241740  10.919   6.432   3.501
46615SOL     OW41741   5.944  12.941   1.515
46615SOL    HW141742   5.916  12.871   1.574
46615SOL    HW241743   5.896  12.926   1.434
46616SOL     OW41744  12.113   1.480   7.099
46616SOL    HW141745  12.187   1.495   7.158
46616SOL    HW241746  12.046   1.542   7.128
46617SOL     OW41747  12.555  12.964  13.684
46617SOL    HW141748  12.586  13.011  13.606
46617SOL    HW241749  12.612  12.995  13.754
46618SOL     OW41750   2.690   1.781   0.037
46618SOL    HW141751   2.682   1.733  14.843
46618SOL    HW241752   2.600   1.804   0.061
46619SOL     OW41753   7.678   7.195  14.299
46619SOL    HW141754   7.612   7.171  14.234
46619SOL    HW241755   7.654   7.284  14.325
46620SOL     OW41756  10.512  14.383   9.487
46620SOL    HW141757  10.453  14.351   9.419
46620SOL    HW241758  10.459  14.388   9.566
46621SOL     OW41759   4.988   1.937   3.719
46621SOL    HW141760   4.964   1.939   3.812
46621SOL    HW241761   5.070   1.887   3.717
46622SOL     OW41762   6.804   2.198  14.001
46622SOL    HW141763   6.851   2.262  13.947
46622SOL    HW241764   6.848   2.115  13.985
46623SOL     OW41765  14.424   2.575   4.781
46623SOL    HW141766  14.399   2.567   4.873
46623SOL    HW241767  14.399   2.490   4.742
46624SOL     OW41768   0.028   0.300   4.304
46624SOL    HW141769  14.844   0.265   4.251
46624SOL    HW241770   0.015   0.395   4.303
46625SOL     OW41771   0.619  14.841   7.390
46625SOL    HW141772   0.616  14.762   7.444
46625SOL    HW241773   0.693   0.003   7.424
46626SOL     OW41774   7.299   2.911   5.214
46626SOL    HW141775   7.286   3.005   5.200
46626SOL    HW241776   7.320   2.876   5.128
46627SOL     OW41777   7.860   4.828   4.644
46627SOL    HW141778   7.912   4.801   4.720
46627SOL    HW241779   7.919   4.884   4.594
46628SOL     OW41780   6.199   1.110   7.176
46628SOL    HW141781   6.113   1.069   7.172
46628SOL    HW241782   6.259   1.042   7.147
46629SOL     OW41783   6.605   1.065   2.929
46629SOL    HW141784   6.650   0.999   2.877
46629SOL    HW241785   6.603   1.028   3.018
46630SOL     OW41786   8.722   9.028   0.858
46630SOL    HW141787   8.751   9.118   0.866
46630SOL    HW241788   8.631   9.028   0.886
46631SOL     OW41789  11.644   5.864  10.997
46631SOL    HW141790  11.567   5.851  10.942
46631SOL    HW241791  11.608   5.885  11.084
46632SOL     OW41792   9.939  10.360   9.912
46632SOL    HW141793   9.888  10.296   9.962
46632SOL    HW241794   9.922  10.443   9.956
46633SOL     OW41795   1.701   4.977   8.367
46633SOL    HW141796   1.621   4.954   8.415
46633SOL    HW241797   1.674   5.049   8.309
46634SOL     OW41798  14.133   1.860   0.167
46634SOL    HW141799  14.129   1.774   0.124
46634SOL    HW241800  14.048   1.900   0.149
46635SOL     OW41801   8.437  11.040  13.987
46635SOL    HW141802   8.474  11.057  13.900
46635SOL    HW241803   8.343  11.058  13.977
46636SOL     OW41804   1.377   5.454   6.890
46636SOL    HW141805   1.426   5.501   6.957
46636SOL    HW241806   1.352   5.371   6.931
46637SOL     OW41807   7.158   4.201   9.744
46637SOL    HW141808   7.125   4.145   9.675
46637SOL    HW241809   7.080   4.224   9.795
46638SOL     OW41810   2.294  10.593   8.475
46638SOL    HW141811   2.280  10.680   8.438
46638SOL    HW241812   2.352  10.549   8.413
46639SOL     OW41813   4.394   3.304   1.151
46639SOL    HW141814   4.404   3.220   1.196
46639SOL    HW241815   4.300   3.321   1.152
46640SOL     OW41816   4.355   4.973  12.253
46640SOL    HW141817   4.428   5.026  12.222
46640SOL    HW241818   4.278   5.012  12.210
46641SOL     OW41819   2.975   7.538   5.982
46641SOL    HW141820   2.982   7.447   6.012
46641SOL    HW241821   2.882   7.549   5.961
46642SOL     OW41822   1.619   9.639   2.175
46642SOL    HW141823   1.610   9.600   2.262
46642SOL    HW241824   1.626   9.733   2.191
46643SOL     OW41825   2.880   2.865   1.648
46643SOL    HW141826   2.946   2.933   1.632
46643SOL    HW241827   2.917   2.812   1.719
46644SOL     OW41828   1.604  13.848   7.399
46644SOL    HW141829   1.512  13.849   7.373
46644SOL    HW241830   1.647  13.792   7.335
46645SOL     OW41831   2.090  12.866   3.159
46645SOL    HW141832   2.108  12.774   3.177
46645SOL    HW241833   2.171  12.899   3.120
46646SOL     OW41834   9.853   7.283   8.597
46646SOL    HW141835   9.769   7.271   8.641
46646SOL    HW241836   9.913   7.313   8.665
46647SOL     OW41837   2.331  11.717   7.024
46647SOL    HW141838   2.343  11.722   7.119
46647SOL    HW241839   2.244  11.756   7.009
46648SOL     OW41840   3.400   3.267   8.561
46648SOL    HW141841   3.342   3.335   8.527
46648SOL    HW241842   3.476   3.270   8.503
46649SOL     OW41843   9.540  13.602   3.647
46649SOL    HW141844   9.547  13.570   3.737
46649SOL    HW241845   9.555  13.696   3.653
46650SOL     OW41846   8.183   7.936   8.761
46650SOL    HW141847   8.197   7.973   8.848
46650SOL    HW241848   8.227   7.997   8.701
46651SOL     OW41849   1.743  10.936   4.691
46651SOL    HW141850   1.816  10.903   4.638
46651SOL    HW241851   1.776  11.018   4.728
46652SOL     OW41852   4.995   1.615   2.682
46652SOL    HW141853   5.028   1.620   2.592
46652SOL    HW241854   4.968   1.704   2.703
46653SOL     OW41855   7.811   9.959   3.547
46653SOL    HW141856   7.878   9.891   3.545
46653SOL    HW241857   7.822  10.002   3.632
46654SOL     OW41858   6.399   2.582  12.509
46654SOL    HW141859   6.402   2.486  12.501
46654SOL    HW241860   6.466   2.613  12.448
46655SOL     OW41861   7.012  10.639  14.533
46655SOL    HW141862   6.960  10.613  14.609
46655SOL    HW241863   6.954  10.696  14.482
46656SOL     OW41864  10.728   9.593  14.765
46656SOL    HW141865  10.644   9.557  14.792
46656SOL    HW241866  10.724   9.593  14.669
46657SOL     OW41867   1.636  12.079   4.106
46657SOL    HW141868   1.560  12.049   4.155
46657SOL    HW241869   1.602  12.147   4.048
46658SOL     OW41870  13.772   9.020   7.306
46658SOL    HW141871  13.719   8.980   7.375
46658SOL    HW241872  13.708   9.054   7.244
46659SOL     OW41873   8.573   3.060  10.561
46659SOL    HW141874   8.565   3.155  10.572
46659SOL    HW241875   8.483   3.030  10.550
46660SOL     OW41876  13.598   1.881   0.425
46660SOL    HW141877  13.656   1.824   0.375
46660SOL    HW241878  13.524   1.826   0.450
46661SOL     OW41879   4.406  13.769  13.878
46661SOL    HW141880   4.430  13.744  13.968
46661SOL    HW241881   4.313  13.747  13.872
46662SOL     OW41882   2.108   1.123   9.115
46662SOL    HW141883   2.062   1.080   9.187
46662SOL    HW241884   2.148   1.201   9.156
46663SOL     OW41885   1.181   3.305   5.015
46663SOL    HW141886   1.101   3.252   5.009
46663SOL    HW241887   1.205   3.301   5.108
46664SOL     OW41888   1.835  13.609   8.520
46664SOL    HW141889   1.900  13.552   8.562
46664SOL    HW241890   1.883  13.650   8.448
46665SOL     OW41891   5.120  11.918  10.150
46665SOL    HW141892   5.128  11.824  10.166
46665SOL    HW241893   5.163  11.959  10.225
46666SOL     OW41894  11.500   6.427  10.275
46666SOL    HW141895  11.489   6.426  10.180
46666SOL    HW241896  11.579   6.375  10.291
46667SOL     OW41897   5.836  11.271   6.703
46667SOL    HW141898   5.917  11.243   6.746
46667SOL    HW241899   5.822  11.206   6.634
46668SOL     OW41900   5.006   9.035   4.757
46668SOL    HW141901   4.970   9.113   4.799
46668SOL    HW241902   5.099   9.037   4.779
46669SOL     OW41903   7.455  11.329  14.114
46669SOL    HW141904   7.461  11.338  14.209
46669SOL    HW241905   7.540  11.357  14.082
46670SOL     OW41906  13.157   5.747  10.944
46670SOL    HW141907  13.089   5.679  10.942
46670SOL    HW241908  13.138   5.803  10.869
46671SOL     OW41909   0.839   8.729  10.365
46671SOL    HW141910   0.775   8.799  10.353
46671SOL    HW241911   0.916   8.773  10.400
46672SOL     OW41912  10.947   0.542   5.436
46672SOL    HW141913  10.934   0.573   5.347
46672SOL    HW241914  10.896   0.602   5.490
46673SOL     OW41915   2.430   7.353   2.180
46673SOL    HW141916   2.359   7.299   2.217
46673SOL    HW241917   2.510   7.312   2.212
46674SOL     OW41918   6.442   8.401  10.770
46674SOL    HW141919   6.453   8.317  10.726
46674SOL    HW241920   6.425   8.379  10.861
46675SOL     OW41921  12.516   2.966   6.849
46675SOL    HW141922  12.465   2.920   6.917
46675SOL    HW241923  12.597   2.991   6.893
46676SOL     OW41924   7.532   4.163   5.922
46676SOL    HW141925   7.610   4.176   5.869
46676SOL    HW241926   7.486   4.090   5.880
46677SOL     OW41927  13.971   7.354   4.820
46677SOL    HW141928  13.892   7.315   4.781
46677SOL    HW241929  14.014   7.399   4.748
46678SOL     OW41930   1.752   9.609  10.743
46678SOL    HW141931   1.719   9.615  10.832
46678SOL    HW241932   1.695   9.544  10.701
46679SOL     OW41933   2.591   5.424   4.282
46679SOL    HW141934   2.645   5.380   4.216
46679SOL    HW241935   2.500   5.406   4.255
46680SOL     OW41936   0.332   8.145  11.022
46680SOL    HW141937   0.364   8.068  10.976
46680SOL    HW241938   0.373   8.139  11.109
46681SOL     OW41939   4.288  10.722   4.376
46681SOL    HW141940   4.346  10.787   4.337
46681SOL    HW241941   4.267  10.758   4.462
46682SOL     OW41942  14.234   4.999   5.510
46682SOL    HW141943  14.234   5.052   5.430
46682SOL    HW241944  14.291   4.925   5.490
46683SOL     OW41945  10.693   7.807   2.726
46683SOL    HW141946  10.639   7.862   2.783
46683SOL    HW241947  10.783   7.832   2.746
46684SOL     OW41948   7.481   4.281  14.787
46684SOL    HW141949   7.577   4.276  14.784
46684SOL    HW241950   7.456   4.310  14.699
46685SOL     OW41951   6.215   3.637   0.728
46685SOL    HW141952   6.198   3.715   0.782
46685SOL    HW241953   6.307   3.646   0.703
46686SOL     OW41954  11.680   3.105  14.562
46686SOL    HW141955  11.610   3.061  14.611
46686SOL    HW241956  11.656   3.198  14.565
46687SOL     OW41957   6.491  10.155   1.316
46687SOL    HW141958   6.435  10.111   1.380
46687SOL    HW241959   6.551  10.087   1.285
46688SOL     OW41960  14.687   7.050   1.425
46688SOL    HW141961  14.688   7.100   1.507
46688SOL    HW241962  14.642   6.969   1.447
46689SOL     OW41963   1.863   7.129  12.131
46689SOL    HW141964   1.813   7.069  12.187
46689SOL    HW241965   1.802   7.152  12.061
46690SOL     OW41966   4.509   6.499  12.307
46690SOL    HW141967   4.494   6.569  12.371
46690SOL    HW241968   4.597   6.514  12.274
46691SOL     OW41969   0.893   9.279  12.299
46691SOL    HW141970   0.835   9.311  12.230
46691SOL    HW241971   0.845   9.295  12.380
46692SOL     OW41972   8.911   4.484   5.211
46692SOL    HW141973   8.952   4.463   5.295
46692SOL    HW241974   8.980   4.526   5.160
46693SOL     OW41975   1.912   1.705   7.395
46693SOL    HW141976   1.891   1.677   7.484
46693SOL    HW241977   1.992   1.756   7.404
46694SOL     OW41978   8.310   5.444   5.506
46694SOL    HW141979   8.330   5.427   5.598
46694SOL    HW241980   8.389   5.419   5.458
46695SOL     OW41981   5.150  14.416  11.297
46695SOL    HW141982   5.195  14.497  11.319
46695SOL    HW241983   5.174  14.355  11.367
46696SOL     OW41984   5.022   6.403   0.748
46696SOL    HW141985   5.019   6.470   0.680
46696SOL    HW241986   4.948   6.346   0.729
46697SOL     OW41987   6.057  12.347   8.309
46697SOL    HW141988   6.048  12.282   8.240
46697SOL    HW241989   6.010  12.424   8.278
46698SOL     OW41990   8.647   3.536   5.827
46698SOL    HW141991   8.616   3.595   5.757
46698SOL    HW241992   8.579   3.469   5.833
46699SOL     OW41993   6.932   4.426  10.764
46699SOL    HW141994   7.010   4.393  10.807
46699SOL    HW241995   6.909   4.505  10.813
46700SOL     OW41996  14.620  13.768   5.046
46700SOL    HW141997  14.623  13.859   5.016
46700SOL    HW241998  14.636  13.716   4.967
46701SOL     OW41999   9.456  11.772  14.244
46701SOL    HW142000   9.424  11.806  14.161
46701SOL    HW242001   9.381  11.728  14.283
46702SOL     OW42002   2.048  10.830   8.533
46702SOL    HW142003   2.035  10.770   8.459
46702SOL    HW242004   2.063  10.772   8.608
46703SOL     OW42005   0.961   7.686   9.562
46703SOL    HW142006   0.914   7.603   9.571
46703SOL    HW242007   1.003   7.680   9.476
46704SOL     OW42008   0.361   1.038   2.218
46704SOL    HW142009   0.292   0.979   2.185
46704SOL    HW242010   0.347   1.041   2.313
46705SOL     OW42011   8.155   0.029   5.571
46705SOL    HW142012   8.176   0.020   5.479
46705SOL    HW242013   8.195  14.841   5.613
46706SOL     OW42014  14.518   6.895  14.122
46706SOL    HW142015  14.446   6.887  14.184
46706SOL    HW242016  14.585   6.835  14.155
46707SOL     OW42017  10.078   2.147   6.918
46707SOL    HW142018  10.069   2.054   6.936
46707SOL    HW242019  10.025   2.190   6.985
46708SOL     OW42020   4.879   3.942   2.669
46708SOL    HW142021   4.925   3.995   2.734
46708SOL    HW242022   4.920   3.856   2.676
46709SOL     OW42023   5.562  13.361   0.498
46709SOL    HW142024   5.597  13.276   0.470
46709SOL    HW242025   5.634  13.401   0.547
46710SOL     OW42026  14.311   8.883  10.039
46710SOL    HW142027  14.386   8.915   9.989
46710SOL    HW242028  14.350   8.827  10.106
46711SOL     OW42029   1.346   9.843  14.884
46711SOL    HW142030   1.293   9.918  14.856
46711SOL    HW242031   1.380   9.869   0.082
46712SOL     OW42032  14.560   4.359   9.125
46712SOL    HW142033  14.507   4.394   9.054
46712SOL    HW242034  14.496   4.325   9.188
46713SOL     OW42035   9.754  14.535   1.522
46713SOL    HW142036   9.821  14.569   1.463
46713SOL    HW242037   9.791  14.547   1.610
46714SOL     OW42038  12.640   3.538   9.317
46714SOL    HW142039  12.559   3.506   9.277
46714SOL    HW242040  12.622   3.629   9.339
46715SOL     OW42041  13.376   2.471  11.446
46715SOL    HW142042  13.436   2.408  11.406
46715SOL    HW242043  13.365   2.439  11.536
46716SOL     OW42044  13.577   4.117  12.203
46716SOL    HW142045  13.637   4.129  12.130
46716SOL    HW242046  13.505   4.066  12.167
46717SOL     OW42047   1.160   4.470   1.239
46717SOL    HW142048   1.071   4.503   1.251
46717SOL    HW242049   1.216   4.546   1.253
46718SOL     OW42050   1.213  11.312   2.991
46718SOL    HW142051   1.290  11.257   2.978
46718SOL    HW242052   1.248  11.397   3.019
46719SOL     OW42053   1.026  14.247   2.432
46719SOL    HW142054   1.040  14.245   2.526
46719SOL    HW242055   1.003  14.338   2.413
46720SOL     OW42056  11.890   1.770   2.208
46720SOL    HW142057  11.965   1.720   2.176
46720SOL    HW242058  11.922   1.816   2.285
46721SOL     OW42059  10.937   0.177   3.357
46721SOL    HW142060  11.028   0.192   3.382
46721SOL    HW242061  10.941   0.153   3.264
46722SOL     OW42062   1.641   6.312  14.112
46722SOL    HW142063   1.688   6.332  14.193
46722SOL    HW242064   1.630   6.217  14.114
46723SOL     OW42065   3.591  13.694   6.843
46723SOL    HW142066   3.601  13.772   6.788
46723SOL    HW242067   3.593  13.621   6.782
46724SOL     OW42068  11.158   1.913   5.326
46724SOL    HW142069  11.092   1.920   5.257
46724SOL    HW242070  11.238   1.887   5.280
46725SOL     OW42071   0.787   4.827   3.284
46725SOL    HW142072   0.874   4.857   3.312
46725SOL    HW242073   0.740   4.908   3.263
46726SOL     OW42074   2.072  14.715   8.508
46726SOL    HW142075   2.151  14.698   8.560
46726SOL    HW242076   2.096  14.694   8.418
46727SOL     OW42077  14.550  14.814   6.500
46727SOL    HW142078  14.632  14.818   6.549
46727SOL    HW242079  14.524  14.722   6.504
46728SOL     OW42080   7.145  13.076  11.209
46728SOL    HW142081   7.235  13.107  11.197
46728SOL    HW242082   7.154  12.995  11.259
46729SOL     OW42083   0.316  10.656  12.493
46729SOL    HW142084   0.243  10.608  12.453
46729SOL    HW242085   0.305  10.745  12.462
46730SOL     OW42086   6.951   0.766   0.900
46730SOL    HW142087   6.864   0.732   0.881
46730SOL    HW242088   6.938   0.858   0.920
46731SOL     OW42089  11.935  14.306  12.275
46731SOL    HW142090  11.889  14.222  12.269
46731SOL    HW242091  11.952  14.317  12.369
46732SOL     OW42092   4.959   5.068   8.536
46732SOL    HW142093   4.955   4.974   8.517
46732SOL    HW242094   4.964   5.110   8.450
46733SOL     OW42095   7.210   1.905   9.495
46733SOL    HW142096   7.187   1.967   9.427
46733SOL    HW242097   7.226   1.823   9.449
46734SOL     OW42098   1.381   3.776   3.061
46734SOL    HW142099   1.420   3.863   3.073
46734SOL    HW242100   1.456   3.717   3.063
46735SOL     OW42101  10.377  13.450   7.552
46735SOL    HW142102  10.355  13.445   7.645
46735SOL    HW242103  10.303  13.409   7.507
46736SOL     OW42104   9.308  12.608  10.232
46736SOL    HW142105   9.347  12.535  10.185
46736SOL    HW242106   9.218  12.580  10.251
46737SOL     OW42107   0.946  11.619   7.773
46737SOL    HW142108   0.873  11.620   7.711
46737SOL    HW242109   0.912  11.573   7.849
46738SOL     OW42110  14.686  11.657  11.414
46738SOL    HW142111  14.702  11.567  11.385
46738SOL    HW242112  14.599  11.679  11.379
46739SOL     OW42113  10.219   2.039   8.530
46739SOL    HW142114  10.295   2.033   8.472
46739SOL    HW242115  10.253   2.073   8.612
46740SOL     OW42116   8.548   5.637   5.380
46740SOL    HW142117   8.594   5.718   5.402
46740SOL    HW242118   8.549   5.586   5.461
46741SOL     OW42119  12.929  14.054  13.384
46741SOL    HW142120  12.856  14.113  13.404
46741SOL    HW242121  12.924  13.986  13.450
46742SOL     OW42122   8.187  12.988  14.774
46742SOL    HW142123   8.100  12.958  14.745
46742SOL    HW242124   8.244  12.912  14.762
46743SOL     OW42125   6.995   8.910   2.447
46743SOL    HW142126   6.940   8.902   2.525
46743SOL    HW242127   6.958   8.985   2.399
46744SOL     OW42128   4.984  12.238   4.828
46744SOL    HW142129   5.047  12.185   4.781
46744SOL    HW242130   4.935  12.284   4.760
46745SOL     OW42131   8.391   0.635   7.570
46745SOL    HW142132   8.307   0.635   7.524
46745SOL    HW242133   8.405   0.543   7.595
46746SOL     OW42134  13.837   4.331   7.544
46746SOL    HW142135  13.758   4.383   7.559
46746SOL    HW242136  13.854   4.290   7.629
46747SOL     OW42137   8.615   0.810  11.681
46747SOL    HW142138   8.660   0.847  11.605
46747SOL    HW242139   8.670   0.834  11.755
46748SOL     OW42140   6.040  11.538  13.910
46748SOL    HW142141   6.115  11.514  13.964
46748SOL    HW242142   5.995  11.606  13.960
46749SOL     OW42143   7.875  13.302   6.285
46749SOL    HW142144   7.920  13.218   6.283
46749SOL    HW242145   7.917  13.354   6.216
46750SOL     OW42146   3.182   8.116   7.737
46750SOL    HW142147   3.204   8.159   7.820
46750SOL    HW242148   3.259   8.061   7.718
46751SOL     OW42149  12.509   6.764  11.958
46751SOL    HW142150  12.500   6.731  12.047
46751SOL    HW242151  12.446   6.835  11.951
46752SOL     OW42152   0.195   9.506   8.607
46752SOL    HW142153   0.183   9.589   8.560
46752SOL    HW242154   0.285   9.481   8.591
46753SOL     OW42155   2.495   6.374   9.072
46753SOL    HW142156   2.516   6.402   8.983
46753SOL    HW242157   2.539   6.290   9.081
46754SOL     OW42158  11.083   5.241  14.158
46754SOL    HW142159  11.179   5.240  14.157
46754SOL    HW242160  11.058   5.183  14.086
46755SOL     OW42161   3.968   7.963  10.084
46755SOL    HW142162   3.999   7.898  10.147
46755SOL    HW242163   4.047   7.995  10.041
46756SOL     OW42164   7.910  14.189   4.549
46756SOL    HW142165   7.995  14.187   4.504
46756SOL    HW242166   7.922  14.254   4.619
46757SOL     OW42167  10.636   9.340   5.376
46757SOL    HW142168  10.691   9.283   5.322
46757SOL    HW242169  10.548   9.329   5.342
46758SOL     OW42170   1.354  11.392   8.893
46758SOL    HW142171   1.406  11.343   8.956
46758SOL    HW242172   1.346  11.334   8.817
46759SOL     OW42173  13.166   1.213   4.830
46759SOL    HW142174  13.132   1.134   4.787
46759SOL    HW242175  13.115   1.219   4.911
46760SOL     OW42176  10.358   0.631   5.868
46760SOL    HW142177  10.391   0.718   5.845
46760SOL    HW242178  10.288   0.648   5.932
46761SOL     OW42179   6.269   0.089  12.547
46761SOL    HW142180   6.365   0.092  12.541
46761SOL    HW242181   6.249   0.131  12.631
46762SOL     OW42182   3.753   6.447   2.204
46762SOL    HW142183   3.686   6.503   2.242
46762SOL    HW242184   3.803   6.414   2.279
46763SOL     OW42185   5.667  10.995   6.903
46763SOL    HW142186   5.581  11.022   6.872
46763SOL    HW242187   5.689  10.918   6.851
46764SOL     OW42188   4.862   0.697   4.595
46764SOL    HW142189   4.942   0.671   4.548
46764SOL    HW242190   4.891   0.715   4.684
46765SOL     OW42191   0.869   2.214   0.337
46765SOL    HW142192   0.780   2.185   0.355
46765SOL    HW242193   0.858   2.288   0.277
46766SOL     OW42194  10.267  10.344  12.682
46766SOL    HW142195  10.329  10.279  12.716
46766SOL    HW242196  10.197  10.291  12.644
46767SOL     OW42197   5.289   6.909   9.309
46767SOL    HW142198   5.349   6.983   9.302
46767SOL    HW242199   5.344   6.832   9.293
46768SOL     OW42200   7.153  14.422   8.795
46768SOL    HW142201   7.114  14.367   8.727
46768SOL    HW242202   7.234  14.454   8.756
46769SOL     OW42203   0.332  14.783   3.064
46769SOL    HW142204   0.363  14.848   3.127
46769SOL    HW242205   0.242  14.765   3.089
46770SOL     OW42206   0.825   3.584  14.505
46770SOL    HW142207   0.853   3.525  14.434
46770SOL    HW242208   0.730   3.588  14.497
46771SOL     OW42209   6.016  14.246  10.991
46771SOL    HW142210   5.934  14.285  11.024
46771SOL    HW242211   6.012  14.155  11.020
46772SOL     OW42212  13.865   9.972   1.388
46772SOL    HW142213  13.900   9.957   1.300
46772SOL    HW242214  13.874   9.887   1.431
46773SOL     OW42215   3.765   9.866   3.378
46773SOL    HW142216   3.767   9.954   3.339
46773SOL    HW242217   3.820   9.813   3.320
46774SOL     OW42218  11.502   8.398   4.243
46774SOL    HW142219  11.547   8.319   4.275
46774SOL    HW242220  11.573   8.457   4.217
46775SOL     OW42221  11.947   5.600  14.408
46775SOL    HW142222  11.975   5.578  14.319
46775SOL    HW242223  11.902   5.684  14.400
46776SOL     OW42224  10.225  12.581  12.844
46776SOL    HW142225  10.290  12.582  12.774
46776SOL    HW242226  10.197  12.490  12.850
46777SOL     OW42227  12.259   8.009   3.189
46777SOL    HW142228  12.242   7.922   3.152
46777SOL    HW242229  12.312   8.053   3.122
46778SOL     OW42230  14.804  14.701   1.133
46778SOL    HW142231  14.866  14.694   1.060
46778SOL    HW242232  14.719  14.677   1.095
46779SOL     OW42233   5.242  10.322   7.136
46779SOL    HW142234   5.251  10.246   7.193
46779SOL    HW242235   5.197  10.288   7.059
46780SOL     OW42236   9.350   2.906   3.456
46780SOL    HW142237   9.315   2.995   3.464
46780SOL    HW242238   9.316   2.874   3.372
46781SOL     OW42239   7.269  12.376   4.034
46781SOL    HW142240   7.354  12.352   3.998
46781SOL    HW242241   7.210  12.308   4.003
46782SOL     OW42242   8.115   7.963   0.632
46782SOL    HW142243   8.102   8.022   0.557
46782SOL    HW242244   8.032   7.915   0.639
46783SOL     OW42245   2.746  10.312   0.298
46783SOL    HW142246   2.739  10.217   0.304
46783SOL    HW242247   2.693  10.335   0.222
46784SOL     OW42248   0.083   7.389   8.557
46784SOL    HW142249   0.152   7.323   8.553
46784SOL    HW242250   0.120   7.465   8.513
46785SOL     OW42251   2.985   0.376  10.080
46785SOL    HW142252   2.955   0.311  10.017
46785SOL    HW242253   2.928   0.362  10.156
46786SOL     OW42254   8.455   4.927   4.654
46786SOL    HW142255   8.498   4.854   4.611
46786SOL    HW242256   8.463   4.908   4.748
46787SOL     OW42257  12.960   6.059  10.261
46787SOL    HW142258  12.888   5.997  10.262
46787SOL    HW242259  12.926   6.136  10.308
46788SOL     OW42260   9.520   2.532  13.062
46788SOL    HW142261   9.553   2.444  13.046
46788SOL    HW242262   9.581   2.569  13.126
46789SOL     OW42263  14.589   1.846  13.944
46789SOL    HW142264  14.495   1.853  13.960
46789SOL    HW242265  14.628   1.838  14.031
46790SOL     OW42266  11.534  13.308  13.191
46790SOL    HW142267  11.455  13.328  13.241
46790SOL    HW242268  11.582  13.391  13.188
46791SOL     OW42269   1.540   9.324   4.358
46791SOL    HW142270   1.490   9.319   4.440
46791SOL    HW242271   1.627   9.354   4.384
46792SOL     OW42272   9.048   7.609   3.868
46792SOL    HW142273   9.091   7.609   3.783
46792SOL    HW242274   9.016   7.699   3.879
46793SOL     OW42275  10.418   2.134   6.535
46793SOL    HW142276  10.354   2.197   6.502
46793SOL    HW242277  10.435   2.076   6.461
46794SOL     OW42278   4.830   1.680  13.882
46794SOL    HW142279   4.897   1.748  13.887
46794SOL    HW242280   4.826   1.658  13.789
46795SOL     OW42281  13.446   8.928   3.341
46795SOL    HW142282  13.377   8.983   3.303
46795SOL    HW242283  13.443   8.847   3.290
46796SOL     OW42284   5.971  13.491   8.168
46796SOL    HW142285   6.000  13.433   8.239
46796SOL    HW242286   5.951  13.432   8.096
46797SOL     OW42287  10.020   1.922   9.614
46797SOL    HW142288   9.984   2.009   9.633
46797SOL    HW242289   9.968   1.863   9.668
46798SOL     OW42290   2.082   2.811   0.818
46798SOL    HW142291   2.062   2.799   0.725
46798SOL    HW242292   2.159   2.758   0.833
46799SOL     OW42293   2.382  11.976   9.488
46799SOL    HW142294   2.345  12.058   9.520
46799SOL    HW242295   2.311  11.934   9.439
46800SOL     OW42296   1.095  14.830   1.770
46800SOL    HW142297   1.110  14.796   1.858
46800SOL    HW242298   1.174  14.805   1.721
46801SOL     OW42299   2.380   3.128  13.841
46801SOL    HW142300   2.469   3.142  13.874
46801SOL    HW242301   2.346   3.216  13.826
46802SOL     OW42302   6.568   7.273   4.723
46802SOL    HW142303   6.518   7.192   4.735
46802SOL    HW242304   6.503   7.343   4.728
46803SOL     OW42305   5.524  14.777   2.472
46803SOL    HW142306   5.606  14.827   2.472
46803SOL    HW242307   5.480  14.801   2.391
46804SOL     OW42308   3.915   5.521   0.261
46804SOL    HW142309   4.001   5.555   0.286
46804SOL    HW242310   3.895   5.456   0.328
46805SOL     OW42311   8.255   7.010  10.039
46805SOL    HW142312   8.253   6.923  10.001
46805SOL    HW242313   8.237   7.069   9.966
46806SOL     OW42314   6.306   7.983   8.449
46806SOL    HW142315   6.383   7.970   8.505
46806SOL    HW242316   6.261   7.898   8.449
46807SOL     OW42317   4.420   0.380   9.633
46807SOL    HW142318   4.390   0.291   9.613
46807SOL    HW242319   4.349   0.437   9.604
46808SOL     OW42320  13.827  14.230  13.719
46808SOL    HW142321  13.853  14.141  13.745
46808SOL    HW242322  13.865  14.241  13.632
46809SOL     OW42323  14.678   4.444   3.393
46809SOL    HW142324  14.601   4.449   3.336
46809SOL    HW242325  14.713   4.533   3.395
46810SOL     OW42326   8.965   2.674   9.369
46810SOL    HW142327   8.892   2.627   9.328
46810SOL    HW242328   9.037   2.665   9.308
46811SOL     OW42329   5.126   5.259  13.390
46811SOL    HW142330   5.177   5.179  13.377
46811SOL    HW242331   5.177   5.309  13.453
46812SOL     OW42332   9.527   9.628  13.285
46812SOL    HW142333   9.435   9.603  13.294
46812SOL    HW242334   9.563   9.619  13.374
46813SOL     OW42335   9.136   0.614  14.152
46813SOL    HW142336   9.193   0.631  14.227
46813SOL    HW242337   9.196   0.609  14.077
46814SOL     OW42338   2.649   2.721   2.066
46814SOL    HW142339   2.663   2.698   1.974
46814SOL    HW242340   2.556   2.708   2.080
46815SOL     OW42341   0.515  11.602  13.533
46815SOL    HW142342   0.442  11.627  13.476
46815SOL    HW242343   0.523  11.676  13.594
46816SOL     OW42344  13.084   9.528   2.655
46816SOL    HW142345  13.060   9.620   2.641
46816SOL    HW242346  13.127   9.502   2.574
46817SOL     OW42347  14.136   1.517   5.441
46817SOL    HW142348  14.186   1.572   5.380
46817SOL    HW242349  14.165   1.545   5.528
46818SOL     OW42350   0.341  10.026  11.591
46818SOL    HW142351   0.412  10.060  11.538
46818SOL    HW242352   0.274  10.000  11.528
46819SOL     OW42353   2.281  13.191  13.203
46819SOL    HW142354   2.274  13.266  13.261
46819SOL    HW242355   2.364  13.204  13.157
46820SOL     OW42356   4.868  12.283   8.583
46820SOL    HW142357   4.795  12.307   8.526
46820SOL    HW242358   4.837  12.207   8.632
46821SOL     OW42359  12.047   6.276   2.917
46821SOL    HW142360  11.990   6.203   2.892
46821SOL    HW242361  12.072   6.316   2.834
46822SOL     OW42362   8.150  14.548  14.426
46822SOL    HW142363   8.217  14.605  14.464
46822SOL    HW242364   8.146  14.473  14.485
46823SOL     OW42365  12.736   6.354   0.714
46823SOL    HW142366  12.777   6.288   0.658
46823SOL    HW242367  12.744   6.436   0.665
46824SOL     OW42368   3.873   7.782   2.617
46824SOL    HW142369   3.922   7.865   2.622
46824SOL    HW242370   3.912   7.736   2.543
46825SOL     OW42371   4.970  14.143  10.950
46825SOL    HW142372   4.991  14.230  10.985
46825SOL    HW242373   5.040  14.087  10.984
46826SOL     OW42374   5.797  10.507  11.649
46826SOL    HW142375   5.793  10.602  11.661
46826SOL    HW242376   5.797  10.472  11.738
46827SOL     OW42377  13.200   5.799   5.473
46827SOL    HW142378  13.158   5.715   5.492
46827SOL    HW242379  13.222   5.834   5.560
46828SOL     OW42380   1.302   1.928   4.999
46828SOL    HW142381   1.377   1.884   4.959
46828SOL    HW242382   1.335   1.956   5.085
46829SOL     OW42383   2.271   1.160   9.758
46829SOL    HW142384   2.358   1.180   9.793
46829SOL    HW242385   2.284   1.083   9.703
46830SOL     OW42386  12.199   5.104   2.986
46830SOL    HW142387  12.207   5.142   3.074
46830SOL    HW242388  12.283   5.121   2.944
46831SOL     OW42389   5.606   9.373   1.566
46831SOL    HW142390   5.649   9.326   1.495
46831SOL    HW242391   5.660   9.356   1.643
46832SOL     OW42392   2.468   2.719   9.655
46832SOL    HW142393   2.401   2.697   9.720
46832SOL    HW242394   2.472   2.642   9.598
46833SOL     OW42395   7.047   7.277   4.286
46833SOL    HW142396   7.033   7.337   4.360
46833SOL    HW242397   7.083   7.333   4.217
46834SOL     OW42398  13.050   8.034   2.735
46834SOL    HW142399  13.046   8.119   2.691
46834SOL    HW242400  12.975   7.987   2.700
46835SOL     OW42401   5.107   4.594  13.886
46835SOL    HW142402   5.153   4.515  13.916
46835SOL    HW242403   5.175   4.647  13.844
46836SOL     OW42404   0.117   6.940  12.376
46836SOL    HW142405   0.141   6.988  12.455
46836SOL    HW242406   0.053   6.996  12.333
46837SOL     OW42407   4.043   1.481   4.797
46837SOL    HW142408   4.005   1.552   4.744
46837SOL    HW242409   3.978   1.410   4.792
46838SOL     OW42410  13.569   4.971  11.685
46838SOL    HW142411  13.652   5.019  11.692
46838SOL    HW242412  13.563   4.948  11.592
46839SOL     OW42413  10.333   8.445   5.348
46839SOL    HW142414  10.412   8.391   5.355
46839SOL    HW242415  10.366   8.534   5.336
46840SOL     OW42416   3.513   7.818   5.094
46840SOL    HW142417   3.447   7.753   5.068
46840SOL    HW242418   3.597   7.774   5.078
46841SOL     OW42419  14.182   3.892   4.611
46841SOL    HW142420  14.211   3.843   4.688
46841SOL    HW242421  14.260   3.900   4.557
46842SOL     OW42422  14.856   7.661   9.980
46842SOL    HW142423   0.027   7.720  10.027
46842SOL    HW242424   0.027   7.609   9.924
46843SOL     OW42425   4.896   1.975   7.717
46843SOL    HW142426   4.910   2.048   7.778
46843SOL    HW242427   4.894   2.017   7.630
46844SOL     OW42428   9.680   0.508   9.520
46844SOL    HW142429   9.618   0.450   9.565
46844SOL    HW242430   9.642   0.521   9.433
46845SOL     OW42431   9.787  10.792  14.761
46845SOL    HW142432   9.870  10.818  14.799
46845SOL    HW242433   9.724  10.798  14.833
46846SOL     OW42434   9.013   0.625   6.737
46846SOL    HW142435   8.950   0.610   6.808
46846SOL    HW242436   9.038   0.538   6.709
46847SOL     OW42437  13.283   8.028   9.077
46847SOL    HW142438  13.211   8.056   9.135
46847SOL    HW242439  13.300   7.938   9.102
46848SOL     OW42440  13.889   3.951   4.863
46848SOL    HW142441  13.879   3.858   4.882
46848SOL    HW242442  13.888   3.957   4.768
46849SOL     OW42443   1.900   2.141   1.916
46849SOL    HW142444   1.815   2.173   1.887
46849SOL    HW242445   1.961   2.211   1.895
46850SOL     OW42446   0.069   7.609   3.518
46850SOL    HW142447  14.871   7.581   3.551
46850SOL    HW242448   0.074   7.702   3.541
46851SOL     OW42449   9.069   5.589   1.127
46851SOL    HW142450   9.095   5.663   1.183
46851SOL    HW242451   8.976   5.603   1.110
46852SOL     OW42452  11.448   7.041   3.089
46852SOL    HW142453  11.482   7.110   3.147
46852SOL    HW242454  11.519   6.977   3.084
46853SOL     OW42455   1.068   9.944  14.639
46853SOL    HW142456   1.027  10.022  14.675
46853SOL    HW242457   0.996   9.883  14.624
46854SOL     OW42458   8.552   1.933   8.036
46854SOL    HW142459   8.516   1.914   8.122
46854SOL    HW242460   8.477   1.967   7.986
46855SOL     OW42461  11.763   7.098   7.322
46855SOL    HW142462  11.829   7.162   7.295
46855SOL    HW242463  11.776   7.024   7.263
46856SOL     OW42464   0.801   3.919   5.375
46856SOL    HW142465   0.883   3.936   5.327
46856SOL    HW242466   0.753   4.002   5.369
46857SOL     OW42467   6.132   8.748   7.165
46857SOL    HW142468   6.157   8.657   7.180
46857SOL    HW242469   6.174   8.797   7.235
46858SOL     OW42470   1.908   5.868   1.150
46858SOL    HW142471   1.844   5.929   1.114
46858SOL    HW242472   1.866   5.782   1.141
46859SOL     OW42473   9.294   9.700   1.140
46859SOL    HW142474   9.291   9.748   1.223
46859SOL    HW242475   9.375   9.729   1.098
46860SOL     OW42476   1.135   2.851   4.593
46860SOL    HW142477   1.206   2.812   4.644
46860SOL    HW242478   1.058   2.801   4.617
46861SOL     OW42479   0.760   6.866   2.080
46861SOL    HW142480   0.800   6.844   2.164
46861SOL    HW242481   0.764   6.785   2.030
46862SOL     OW42482   8.093   5.944   5.688
46862SOL    HW142483   8.188   5.931   5.685
46862SOL    HW242484   8.060   5.871   5.740
46863SOL     OW42485   5.862  14.354  12.687
46863SOL    HW142486   5.856  14.266  12.725
46863SOL    HW242487   5.931  14.348  12.622
46864SOL     OW42488  13.384   0.521   7.236
46864SOL    HW142489  13.357   0.430   7.251
46864SOL    HW242490  13.373   0.564   7.321
46865SOL     OW42491  11.179  11.268  10.588
46865SOL    HW142492  11.099  11.216  10.594
46865SOL    HW242493  11.222  11.238  10.508
46866SOL     OW42494   2.441   8.478  14.819
46866SOL    HW142495   2.486   8.476  14.735
46866SOL    HW242496   2.510   8.488  14.884
46867SOL     OW42497   4.962   9.290   6.437
46867SOL    HW142498   4.943   9.269   6.529
46867SOL    HW242499   4.977   9.205   6.396
46868SOL     OW42500  12.899   0.994  12.298
46868SOL    HW142501  12.838   1.029  12.232
46868SOL    HW242502  12.842   0.968  12.371
46869SOL     OW42503   8.122  14.710   1.153
46869SOL    HW142504   8.033  14.686   1.180
46869SOL    HW242505   8.137  14.795   1.195
46870SOL     OW42506   5.910   7.823  14.321
46870SOL    HW142507   5.875   7.880  14.253
46870SOL    HW242508   5.853   7.746  14.320
46871SOL     OW42509  12.581   7.006  10.234
46871SOL    HW142510  12.577   7.037  10.143
46871SOL    HW242511  12.593   7.085  10.286
46872SOL     OW42512  10.569  11.680   9.150
46872SOL    HW142513  10.603  11.601   9.109
46872SOL    HW242514  10.542  11.735   9.077
46873SOL     OW42515   9.666   6.626   1.384
46873SOL    HW142516   9.695   6.602   1.472
46873SOL    HW242517   9.743   6.666   1.343
46874SOL     OW42518  11.801   5.316   8.341
46874SOL    HW142519  11.713   5.320   8.304
46874SOL    HW242520  11.858   5.341   8.269
46875SOL     OW42521  10.728   3.091  12.723
46875SOL    HW142522  10.761   3.079  12.634
46875SOL    HW242523  10.728   3.004  12.762
46876SOL     OW42524  14.158   7.425   2.825
46876SOL    HW142525  14.084   7.371   2.853
46876SOL    HW242526  14.127   7.515   2.834
46877SOL     OW42527  11.363   8.510   4.445
46877SOL    HW142528  11.418   8.487   4.370
46877SOL    HW242529  11.297   8.569   4.409
46878SOL     OW42530   7.771   9.723  13.609
46878SOL    HW142531   7.798   9.808  13.644
46878SOL    HW242532   7.751   9.670  13.686
46879SOL     OW42533   8.429   0.351   4.240
46879SOL    HW142534   8.478   0.271   4.260
46879SOL    HW242535   8.367   0.360   4.313
46880SOL     OW42536   8.764   3.160   2.896
46880SOL    HW142537   8.769   3.065   2.906
46880SOL    HW242538   8.714   3.174   2.816
46881SOL     OW42539   7.397   3.974   0.125
46881SOL    HW142540   7.310   3.939   0.103
46881SOL    HW242541   7.385   4.069   0.127
46882SOL     OW42542   9.060  10.877   4.456
46882SOL    HW142543   9.021  10.864   4.542
46882SOL    HW242544   9.033  10.801   4.405
46883SOL     OW42545   4.389   1.394   6.513
46883SOL    HW142546   4.304   1.405   6.555
46883SOL    HW242547   4.390   1.460   6.443
46884SOL     OW42548   4.510   7.930  10.780
46884SOL    HW142549   4.522   7.997  10.713
46884SOL    HW242550   4.452   7.865  10.740
46885SOL     OW42551   6.258  14.156  12.231
46885SOL    HW142552   6.295  14.244  12.232
46885SOL    HW242553   6.294  14.116  12.152
46886SOL     OW42554  14.702   2.952  13.555
46886SOL    HW142555  14.769   2.951  13.486
46886SOL    HW242556  14.683   3.044  13.570
46887SOL     OW42557   7.452   2.517   5.497
46887SOL    HW142558   7.440   2.499   5.590
46887SOL    HW242559   7.487   2.606   5.494
46888SOL     OW42560   4.292  13.247   5.836
46888SOL    HW142561   4.257  13.204   5.758
46888SOL    HW242562   4.219  13.246   5.898
46889SOL     OW42563   7.467  10.556  11.804
46889SOL    HW142564   7.416  10.599  11.736
46889SOL    HW242565   7.439  10.465  11.802
46890SOL     OW42566   5.031  10.463  14.224
46890SOL    HW142567   5.095  10.513  14.172
46890SOL    HW242568   5.053  10.485  14.315
46891SOL     OW42569  11.090   9.687   4.707
46891SOL    HW142570  11.074   9.778   4.732
46891SOL    HW242571  11.166   9.691   4.649
46892SOL     OW42572   6.476  12.422  11.448
46892SOL    HW142573   6.416  12.356  11.412
46892SOL    HW242574   6.563  12.383  11.439
46893SOL     OW42575   1.819   7.125  14.658
46893SOL    HW142576   1.743   7.067  14.665
46893SOL    HW242577   1.794   7.203  14.709
46894SOL     OW42578   3.423   4.153   1.678
46894SOL    HW142579   3.393   4.212   1.747
46894SOL    HW242580   3.344   4.112   1.644
46895SOL     OW42581  13.679  11.658   8.343
46895SOL    HW142582  13.649  11.738   8.386
46895SOL    HW242583  13.727  11.689   8.266
46896SOL     OW42584  10.182  12.620   8.803
46896SOL    HW142585  10.227  12.696   8.768
46896SOL    HW242586  10.092  12.628   8.770
46897SOL     OW42587   0.974   8.826   5.256
46897SOL    HW142588   0.971   8.863   5.344
46897SOL    HW242589   1.035   8.752   5.264
46898SOL     OW42590   8.208   2.778   1.715
46898SOL    HW142591   8.113   2.777   1.711
46898SOL    HW242592   8.229   2.821   1.797
46899SOL     OW42593  14.884  11.929  14.789
46899SOL    HW142594   0.033  11.980  14.717
46899SOL    HW242595  14.841  11.855  14.746
46900SOL     OW42596   1.608  10.484   8.762
46900SOL    HW142597   1.517  10.511   8.768
46900SOL    HW242598   1.656  10.565   8.742
46901SOL     OW42599  14.823  13.659   5.225
46901SOL    HW142600  14.878  13.703   5.289
46901SOL    HW242601  14.743  13.712   5.221
46902SOL     OW42602   7.326   7.847   8.120
46902SOL    HW142603   7.246   7.819   8.075
46902SOL    HW242604   7.297   7.865   8.209
46903SOL     OW42605   6.784   2.680   1.361
46903SOL    HW142606   6.744   2.722   1.285
46903SOL    HW242607   6.776   2.744   1.432
46904SOL     OW42608   7.442   7.821   5.717
46904SOL    HW142609   7.509   7.835   5.784
46904SOL    HW242610   7.372   7.882   5.739
46905SOL     OW42611   3.550  13.264   4.070
46905SOL    HW142612   3.643  13.240   4.065
46905SOL    HW242613   3.550  13.350   4.113
46906SOL     OW42614   3.620   9.174  13.175
46906SOL    HW142615   3.612   9.261  13.214
46906SOL    HW242616   3.707   9.143  13.201
46907SOL     OW42617   5.425   9.171   1.575
46907SOL    HW142618   5.457   9.261   1.573
46907SOL    HW242619   5.330   9.179   1.568
46908SOL     OW42620   0.189   1.460   3.108
46908SOL    HW142621   0.176   1.391   3.172
46908SOL    HW242622   0.182   1.541   3.158
46909SOL     OW42623   1.630   4.981   3.575
46909SOL    HW142624   1.607   4.916   3.509
46909SOL    HW242625   1.595   4.945   3.657
46910SOL     OW42626   9.726  12.178  14.168
46910SOL    HW142627   9.690  12.098  14.207
46910SOL    HW242628   9.768  12.223  14.242
46911SOL     OW42629   1.351  12.426   5.700
46911SOL    HW142630   1.395  12.371   5.765
46911SOL    HW242631   1.312  12.497   5.751
46912SOL     OW42632   2.955   4.249   2.752
46912SOL    HW142633   2.979   4.284   2.666
46912SOL    HW242634   2.911   4.166   2.733
46913SOL     OW42635  14.863  12.696  14.102
46913SOL    HW142636  14.843  12.643  14.179
46913SOL    HW242637  14.848  12.786  14.131
46914SOL     OW42638  10.872  12.180   9.657
46914SOL    HW142639  10.801  12.127   9.622
46914SOL    HW242640  10.835  12.268   9.662
46915SOL     OW42641   5.814   2.279   5.257
46915SOL    HW142642   5.860   2.334   5.193
46915SOL    HW242643   5.883   2.224   5.294
46916SOL     OW42644   4.366   6.304  11.254
46916SOL    HW142645   4.391   6.382  11.304
46916SOL    HW242646   4.374   6.232  11.316
46917SOL     OW42647  14.570   9.489  14.024
46917SOL    HW142648  14.560   9.557  14.091
46917SOL    HW242649  14.636   9.523  13.964
46918SOL     OW42650   2.121   0.975   9.516
46918SOL    HW142651   2.048   0.949   9.460
46918SOL    HW242652   2.161   1.049   9.470
46919SOL     OW42653   4.221   2.011  10.787
46919SOL    HW142654   4.223   2.100  10.752
46919SOL    HW242655   4.129   1.996  10.809
46920SOL     OW42656  13.075   3.401   2.077
46920SOL    HW142657  13.087   3.354   2.160
46920SOL    HW242658  13.101   3.491   2.098
46921SOL     OW42659   3.520  10.051   7.057
46921SOL    HW142660   3.506  10.081   6.967
46921SOL    HW242661   3.432  10.051   7.096
46922SOL     OW42662   8.045  12.114  11.099
46922SOL    HW142663   8.019  12.144  11.012
46922SOL    HW242664   8.065  12.021  11.087
46923SOL     OW42665   4.568  13.811   6.144
46923SOL    HW142666   4.570  13.715   6.140
46923SOL    HW242667   4.481  13.832   6.177
46924SOL     OW42668  11.069   2.068   7.684
46924SOL    HW142669  11.035   2.052   7.772
46924SOL    HW242670  11.054   1.987   7.637
46925SOL     OW42671   3.628   7.095   6.817
46925SOL    HW142672   3.723   7.091   6.801
46925SOL    HW242673   3.621   7.142   6.901
46926SOL     OW42674   3.059   9.431   4.186
46926SOL    HW142675   3.092   9.348   4.152
46926SOL    HW242676   3.138   9.481   4.208
46927SOL     OW42677   2.634   8.411  13.077
46927SOL    HW142678   2.580   8.434  13.002
46927SOL    HW242679   2.705   8.476  13.076
46928SOL     OW42680   3.994   0.846  13.308
46928SOL    HW142681   3.954   0.771  13.264
46928SOL    HW242682   3.947   0.853  13.391
46929SOL     OW42683   0.525   3.253  11.448
46929SOL    HW142684   0.589   3.307  11.494
46929SOL    HW242685   0.442   3.272  11.492
46930SOL     OW42686   6.350   8.736   9.080
46930SOL    HW142687   6.444   8.717   9.076
46930SOL    HW242688   6.346   8.831   9.089
46931SOL     OW42689   3.698   6.157   1.182
46931SOL    HW142690   3.760   6.096   1.143
46931SOL    HW242691   3.663   6.111   1.258
46932SOL     OW42692   5.686   4.626  10.932
46932SOL    HW142693   5.641   4.704  10.900
46932SOL    HW242694   5.720   4.584  10.853
46933SOL     OW42695   8.019   5.294   5.837
46933SOL    HW142696   8.006   5.233   5.909
46933SOL    HW242697   7.934   5.334   5.823
46934SOL     OW42698  14.372   3.072   6.330
46934SOL    HW142699  14.382   3.101   6.420
46934SOL    HW242700  14.435   3.124   6.280
46935SOL     OW42701  10.539   6.271   4.352
46935SOL    HW142702  10.554   6.342   4.289
46935SOL    HW242703  10.468   6.302   4.408
46936SOL     OW42704   0.525   6.013   2.705
46936SOL    HW142705   0.491   5.965   2.630
46936SOL    HW242706   0.613   6.040   2.678
46937SOL     OW42707  10.841  11.734  10.713
46937SOL    HW142708  10.892  11.674  10.658
46937SOL    HW242709  10.874  11.821  10.691
46938SOL     OW42710   4.137  10.087   2.831
46938SOL    HW142711   4.077  10.155   2.800
46938SOL    HW242712   4.219  10.104   2.785
46939SOL     OW42713  14.781  10.393   1.084
46939SOL    HW142714  14.718  10.357   1.021
46939SOL    HW242715  14.736  10.390   1.168
46940SOL     OW42716  12.616   2.939  13.832
46940SOL    HW142717  12.669   3.018  13.841
46940SOL    HW242718  12.632   2.909  13.743
46941SOL     OW42719  10.983   1.351   9.813
46941SOL    HW142720  11.024   1.413   9.873
46941SOL    HW242721  10.972   1.400   9.731
46942SOL     OW42722   4.052  13.279   0.421
46942SOL    HW142723   4.136  13.312   0.455
46942SOL    HW242724   3.987  13.335   0.463
46943SOL     OW42725   9.736  10.263   8.688
46943SOL    HW142726   9.726  10.179   8.642
46943SOL    HW242727   9.695  10.248   8.773
46944SOL     OW42728   8.155   3.757   0.618
46944SOL    HW142729   8.161   3.665   0.591
46944SOL    HW242730   8.064   3.782   0.600
46945SOL     OW42731  13.148   1.894  12.523
46945SOL    HW142732  13.120   1.802  12.523
46945SOL    HW242733  13.118   1.928  12.607
46946SOL     OW42734  13.812   5.126   3.229
46946SOL    HW142735  13.824   5.199   3.289
46946SOL    HW242736  13.858   5.153   3.149
46947SOL     OW42737   2.111   0.745   1.452
46947SOL    HW142738   2.107   0.663   1.501
46947SOL    HW242739   2.164   0.803   1.506
46948SOL     OW42740  13.450  11.561   0.700
46948SOL    HW142741  13.400  11.568   0.782
46948SOL    HW242742  13.516  11.630   0.706
46949SOL     OW42743   7.493   2.773   3.602
46949SOL    HW142744   7.423   2.838   3.594
46949SOL    HW242745   7.452   2.700   3.648
46950SOL     OW42746   2.693  13.202  11.827
46950SOL    HW142747   2.654  13.270  11.882
46950SOL    HW242748   2.784  13.196  11.858
46951SOL     OW42749  14.030   3.947  14.758
46951SOL    HW142750  14.054   4.027  14.711
46951SOL    HW242751  14.000   3.978  14.844
46952SOL     OW42752   9.081   9.254   2.826
46952SOL    HW142753   9.117   9.240   2.914
46952SOL    HW242754   9.097   9.347   2.809
46953SOL     OW42755  11.020  11.314   1.450
46953SOL    HW142756  10.980  11.400   1.446
46953SOL    HW242757  10.952  11.257   1.487
46954SOL     OW42758   3.653   6.392   8.720
46954SOL    HW142759   3.570   6.423   8.757
46954SOL    HW242760   3.719   6.450   8.758
46955SOL     OW42761  11.214   0.881   0.408
46955SOL    HW142762  11.158   0.816   0.449
46955SOL    HW242763  11.302   0.862   0.442
46956SOL     OW42764   3.338   4.241   6.835
46956SOL    HW142765   3.306   4.171   6.892
46956SOL    HW242766   3.298   4.223   6.750
46957SOL     OW42767   0.344   1.210   7.035
46957SOL    HW142768   0.389   1.221   7.119
46957SOL    HW242769   0.251   1.212   7.057
46958SOL     OW42770   1.609  14.475   2.836
46958SOL    HW142771   1.613  14.533   2.760
46958SOL    HW242772   1.595  14.535   2.910
46959SOL     OW42773   1.349   2.997  11.797
46959SOL    HW142774   1.437   3.035  11.789
46959SOL    HW242775   1.339   2.980  11.891
46960SOL     OW42776  14.683   5.441   2.479
46960SOL    HW142777  14.746   5.431   2.408
46960SOL    HW242778  14.641   5.355   2.486
46961SOL     OW42779   2.055   6.105  12.642
46961SOL    HW142780   2.121   6.077  12.706
46961SOL    HW242781   1.982   6.138  12.695
46962SOL     OW42782   6.958   2.548   5.902
46962SOL    HW142783   6.908   2.565   5.982
46962SOL    HW242784   7.033   2.607   5.907
46963SOL     OW42785   7.359   4.219  10.370
46963SOL    HW142786   7.283   4.249  10.321
46963SOL    HW242787   7.385   4.293  10.423
46964SOL     OW42788  14.587   2.079   7.376
46964SOL    HW142789  14.539   2.028   7.441
46964SOL    HW242790  14.679   2.068   7.399
46965SOL     OW42791  10.251   8.096  11.215
46965SOL    HW142792  10.244   8.002  11.233
46965SOL    HW242793  10.263   8.101  11.120
46966SOL     OW42794  14.563  11.449   1.990
46966SOL    HW142795  14.511  11.526   1.967
46966SOL    HW242796  14.500  11.377   1.991
46967SOL     OW42797  14.605   1.236  10.214
46967SOL    HW142798  14.588   1.209  10.304
46967SOL    HW242799  14.647   1.322  10.223
46968SOL     OW42800   9.313   8.917   4.704
46968SOL    HW142801   9.263   8.968   4.766
46968SOL    HW242802   9.269   8.832   4.701
46969SOL     OW42803  10.206  12.458  14.480
46969SOL    HW142804  10.179  12.550  14.474
46969SOL    HW242805  10.302  12.461  14.477
46970SOL     OW42806  12.475   1.322   7.065
46970SOL    HW142807  12.413   1.394   7.079
46970SOL    HW242808  12.435   1.269   6.996
46971SOL     OW42809   0.924  10.159  13.482
46971SOL    HW142810   0.996  10.124  13.534
46971SOL    HW242811   0.923  10.107  13.402
46972SOL     OW42812   4.992   2.716  12.950
46972SOL    HW142813   5.027   2.738  13.037
46972SOL    HW242814   4.913   2.769  12.942
46973SOL     OW42815   7.738  11.396  11.859
46973SOL    HW142816   7.773  11.368  11.943
46973SOL    HW242817   7.682  11.323  11.831
46974SOL     OW42818   7.558  10.773   8.711
46974SOL    HW142819   7.470  10.739   8.727
46974SOL    HW242820   7.586  10.808   8.795
46975SOL     OW42821  13.844  13.581   9.850
46975SOL    HW142822  13.778  13.632   9.897
46975SOL    HW242823  13.891  13.646   9.797
46976SOL     OW42824  13.952   6.818   9.897
46976SOL    HW142825  13.925   6.753   9.832
46976SOL    HW242826  14.012   6.771   9.955
46977SOL     OW42827   4.835  13.056   9.919
46977SOL    HW142828   4.857  12.975   9.965
46977SOL    HW242829   4.909  13.114   9.937
46978SOL     OW42830   1.748   3.024   9.286
46978SOL    HW142831   1.782   3.111   9.308
46978SOL    HW242832   1.691   3.039   9.210
46979SOL     OW42833  11.121   7.182   4.047
46979SOL    HW142834  11.140   7.275   4.036
46979SOL    HW242835  11.102   7.171   4.140
46980SOL     OW42836  12.829   2.852   8.073
46980SOL    HW142837  12.756   2.798   8.105
46980SOL    HW242838  12.792   2.940   8.067
46981SOL     OW42839   2.370   1.014  12.637
46981SOL    HW142840   2.275   1.020  12.650
46981SOL    HW242841   2.394   0.932  12.680
46982SOL     OW42842   6.704  14.565  12.042
46982SOL    HW142843   6.706  14.646  11.992
46982SOL    HW242844   6.752  14.584  12.122
46983SOL     OW42845  12.408   7.589   9.068
46983SOL    HW142846  12.425   7.545   8.984
46983SOL    HW242847  12.313   7.602   9.069
46984SOL     OW42848   4.816  11.439   9.714
46984SOL    HW142849   4.875  11.476   9.780
46984SOL    HW242850   4.788  11.355   9.751
46985SOL     OW42851   2.260   2.952   3.675
46985SOL    HW142852   2.183   2.897   3.689
46985SOL    HW242853   2.326   2.917   3.734
46986SOL     OW42854  11.194   6.316   5.809
46986SOL    HW142855  11.210   6.276   5.894
46986SOL    HW242856  11.114   6.275   5.777
46987SOL     OW42857   7.536   4.976   6.808
46987SOL    HW142858   7.627   4.969   6.780
46987SOL    HW242859   7.538   5.036   6.882
46988SOL     OW42860  14.261   6.312   1.588
46988SOL    HW142861  14.167   6.326   1.571
46988SOL    HW242862  14.266   6.298   1.682
46989SOL     OW42863   0.331   0.081   1.176
46989SOL    HW142864   0.412   0.124   1.149
46989SOL    HW242865   0.338  14.880   1.141
46990SOL     OW42866   6.609   5.789   6.632
46990SOL    HW142867   6.533   5.733   6.646
46990SOL    HW242868   6.667   5.737   6.575
46991SOL     OW42869   9.949   1.208   9.606
46991SOL    HW142870   9.949   1.112   9.614
46991SOL    HW242871   9.876   1.237   9.660
46992SOL     OW42872   8.724  10.383  12.502
46992SOL    HW142873   8.720  10.406  12.409
46992SOL    HW242874   8.762  10.460  12.544
46993SOL     OW42875   8.679  11.509  14.676
46993SOL    HW142876   8.739  11.582  14.659
46993SOL    HW242877   8.698  11.446  14.607
46994SOL     OW42878   6.316   0.608  13.155
46994SOL    HW142879   6.231   0.592  13.114
46994SOL    HW242880   6.374   0.632  13.082
46995SOL     OW42881   1.126  12.499   2.515
46995SOL    HW142882   1.177  12.580   2.515
46995SOL    HW242883   1.148  12.457   2.432
46996SOL     OW42884  13.123   0.994  13.002
46996SOL    HW142885  13.044   0.988  12.948
46996SOL    HW242886  13.195   0.980  12.940
46997SOL     OW42887   0.964   1.574   7.767
46997SOL    HW142888   0.890   1.551   7.711
46997SOL    HW242889   0.926   1.581   7.855
46998SOL     OW42890  12.653   7.862  10.199
46998SOL    HW142891  12.689   7.951  10.205
46998SOL    HW242892  12.730   7.806  10.190
46999SOL     OW42893  10.960   2.545   0.852
46999SOL    HW142894  11.055   2.547   0.847
46999SOL    HW242895  10.932   2.503   0.771
47000SOL     OW42896  10.782   1.449  10.417
47000SOL    HW142897  10.700   1.477  10.456
47000SOL    HW242898  10.829   1.404  10.487
47001SOL     OW42899   8.761  12.859  12.695
47001SOL    HW142900   8.815  12.832  12.769
47001SOL    HW242901   8.814  12.924  12.650
47002SOL     OW42902  13.477  14.394   3.298
47002SOL    HW142903  13.401  14.342   3.272
47002SOL    HW242904  13.514  14.347   3.373
47003SOL     OW42905  14.697   5.111   0.101
47003SOL    HW142906  14.612   5.091   0.062
47003SOL    HW242907  14.716   5.035   0.156
47004SOL     OW42908  14.788   1.498   0.808
47004SOL    HW142909  14.717   1.519   0.869
47004SOL    HW242910  14.839   1.579   0.803
47005SOL     OW42911   2.319   8.015   3.124
47005SOL    HW142912   2.259   7.941   3.128
47005SOL    HW242913   2.397   7.986   3.170
47006SOL     OW42914   8.644  10.075   7.306
47006SOL    HW142915   8.646   9.988   7.265
47006SOL    HW242916   8.710  10.125   7.259
47007SOL     OW42917   9.615   4.552   5.100
47007SOL    HW142918   9.689   4.506   5.141
47007SOL    HW242919   9.553   4.482   5.078
47008SOL     OW42920  14.299   0.694   4.090
47008SOL    HW142921  14.272   0.734   4.173
47008SOL    HW242922  14.330   0.607   4.115
47009SOL     OW42923  10.667  14.189   5.767
47009SOL    HW142924  10.595  14.149   5.717
47009SOL    HW242925  10.746  14.165   5.718
47010SOL     OW42926   7.695  12.893   5.385
47010SOL    HW142927   7.605  12.864   5.375
47010SOL    HW242928   7.746  12.812   5.398
47011SOL     OW42929  12.266  12.608  10.641
47011SOL    HW142930  12.171  12.605  10.640
47011SOL    HW242931  12.291  12.607  10.548
47012SOL     OW42932   7.185   6.164   3.868
47012SOL    HW142933   7.267   6.129   3.902
47012SOL    HW242934   7.211   6.243   3.820
47013SOL     OW42935   0.986   2.235   6.757
47013SOL    HW142936   1.065   2.221   6.704
47013SOL    HW242937   0.925   2.281   6.699
47014SOL     OW42938   8.026  12.734  10.304
47014SOL    HW142939   7.994  12.713  10.216
47014SOL    HW242940   8.074  12.655  10.332
47015SOL     OW42941   4.572   0.607   8.893
47015SOL    HW142942   4.588   0.539   8.828
47015SOL    HW242943   4.482   0.634   8.877
47016SOL     OW42944   7.639   4.433   5.220
47016SOL    HW142945   7.630   4.427   5.315
47016SOL    HW242946   7.561   4.390   5.186
47017SOL     OW42947  12.340   7.051   3.182
47017SOL    HW142948  12.282   7.034   3.108
47017SOL    HW242949  12.366   6.964   3.212
47018SOL     OW42950   5.258  14.182   4.217
47018SOL    HW142951   5.268  14.160   4.310
47018SOL    HW242952   5.262  14.277   4.214
47019SOL     OW42953   9.220   6.293   2.619
47019SOL    HW142954   9.175   6.254   2.544
47019SOL    HW242955   9.155   6.291   2.689
47020SOL     OW42956   5.649   2.540   1.061
47020SOL    HW142957   5.669   2.462   1.009
47020SOL    HW242958   5.612   2.505   1.142
47021SOL     OW42959   6.529  11.772   0.780
47021SOL    HW142960   6.522  11.867   0.790
47021SOL    HW242961   6.619  11.757   0.751
47022SOL     OW42962  10.450   9.552  13.281
47022SOL    HW142963  10.414   9.570  13.194
47022SOL    HW242964  10.374   9.526  13.333
47023SOL     OW42965   0.752   1.466   2.560
47023SOL    HW142966   0.703   1.513   2.493
47023SOL    HW242967   0.840   1.503   2.557
47024SOL     OW42968   5.053  10.478  13.257
47024SOL    HW142969   5.108  10.553  13.281
47024SOL    HW242970   5.004  10.508  13.181
47025SOL     OW42971   9.147  14.264   3.086
47025SOL    HW142972   9.220  14.315   3.123
47025SOL    HW242973   9.160  14.176   3.121
47026SOL     OW42974   2.652  14.029  12.021
47026SOL    HW142975   2.607  14.101  12.065
47026SOL    HW242976   2.676  14.065  11.935
47027SOL     OW42977   5.705  12.426   5.041
47027SOL    HW142978   5.616  12.461   5.031
47027SOL    HW242979   5.697  12.334   5.016
47028SOL     OW42980  11.193   2.970   7.007
47028SOL    HW142981  11.204   3.044   6.947
47028SOL    HW242982  11.226   3.002   7.090
47029SOL     OW42983   3.761   4.652   1.322
47029SOL    HW142984   3.748   4.600   1.243
47029SOL    HW242985   3.809   4.595   1.381
47030SOL     OW42986  13.923   9.776   1.568
47030SOL    HW142987  13.857   9.708   1.556
47030SOL    HW242988  13.970   9.749   1.647
47031SOL     OW42989   5.988   2.615   1.376
47031SOL    HW142990   5.947   2.650   1.297
47031SOL    HW242991   5.926   2.550   1.409
47032SOL     OW42992  13.480  10.270  14.519
47032SOL    HW142993  13.392  10.239  14.540
47032SOL    HW242994  13.534  10.239  14.592
47033SOL     OW42995  14.378   6.604   4.498
47033SOL    HW142996  14.320   6.623   4.572
47033SOL    HW242997  14.357   6.671   4.433
47034SOL     OW42998  13.026   4.575  11.590
47034SOL    HW142999  13.077   4.607  11.516
47034SOL    HW243000  12.936   4.570  11.557
47035SOL     OW43001  12.462   3.252   8.911
47035SOL    HW143002  12.391   3.224   8.969
47035SOL    HW243003  12.443   3.211   8.827
47036SOL     OW43004  13.931  12.472  10.948
47036SOL    HW143005  13.937  12.522  11.030
47036SOL    HW243006  13.883  12.393  10.971
47037SOL     OW43007  10.169   8.362   3.010
47037SOL    HW143008  10.076   8.384   3.015
47037SOL    HW243009  10.214   8.447   3.013
47038SOL     OW43010   8.545  14.176   2.240
47038SOL    HW143011   8.576  14.158   2.329
47038SOL    HW243012   8.589  14.110   2.186
47039SOL     OW43013  12.352   0.583   9.411
47039SOL    HW143014  12.342   0.495   9.374
47039SOL    HW243015  12.304   0.580   9.493
47040SOL     OW43016  13.528   5.054   7.524
47040SOL    HW143017  13.599   5.099   7.571
47040SOL    HW243018  13.570   5.017   7.447
47041SOL     OW43019  14.347   7.193   4.842
47041SOL    HW143020  14.314   7.104   4.832
47041SOL    HW243021  14.299   7.245   4.777
47042SOL     OW43022   4.878   5.496   2.329
47042SOL    HW143023   4.839   5.426   2.381
47042SOL    HW243024   4.803   5.546   2.297
47043SOL     OW43025  11.007   6.362   0.883
47043SOL    HW143026  10.965   6.392   0.963
47043SOL    HW243027  11.081   6.310   0.912
47044SOL     OW43028   1.039   4.060  14.461
47044SOL    HW143029   1.045   4.022  14.373
47044SOL    HW243030   1.022   4.153  14.446
47045SOL     OW43031   8.950  11.609  11.387
47045SOL    HW143032   9.038  11.648  11.385
47045SOL    HW243033   8.934  11.581  11.297
47046SOL     OW43034  10.328  12.590   8.060
47046SOL    HW143035  10.252  12.646   8.074
47046SOL    HW243036  10.403  12.648   8.068
47047SOL     OW43037   3.525   3.461   6.175
47047SOL    HW143038   3.505   3.545   6.217
47047SOL    HW243039   3.535   3.400   6.247
47048SOL     OW43040  14.829  10.749  12.396
47048SOL    HW143041  14.831  10.835  12.439
47048SOL    HW243042  14.859  10.688  12.463
47049SOL     OW43043   6.177  10.623  13.844
47049SOL    HW143044   6.135  10.539  13.825
47049SOL    HW243045   6.153  10.679  13.769
47050SOL     OW43046   7.885   3.401   5.591
47050SOL    HW143047   7.862   3.481   5.544
47050SOL    HW243048   7.941   3.431   5.663
47051SOL     OW43049   2.589   5.296   9.056
47051SOL    HW143050   2.514   5.296   9.116
47051SOL    HW243051   2.645   5.367   9.088
47052SOL     OW43052   6.279   5.100   0.205
47052SOL    HW143053   6.203   5.063   0.249
47052SOL    HW243054   6.326   5.024   0.169
47053SOL     OW43055   9.422   1.193  10.435
47053SOL    HW143056   9.334   1.193  10.397
47053SOL    HW243057   9.479   1.222  10.364
47054SOL     OW43058  12.612  10.022   0.184
47054SOL    HW143059  12.590   9.957   0.251
47054SOL    HW243060  12.659   9.972   0.117
47055SOL     OW43061  14.090   0.647  13.299
47055SOL    HW143062  14.156   0.626  13.364
47055SOL    HW243063  14.138   0.688  13.227
47056SOL     OW43064  10.827   8.504   0.174
47056SOL    HW143065  10.817   8.528   0.266
47056SOL    HW243066  10.738   8.490   0.143
47057SOL     OW43067  12.289   3.613  12.172
47057SOL    HW143068  12.294   3.518  12.166
47057SOL    HW243069  12.243   3.640  12.093
47058SOL     OW43070  12.584   2.524   3.328
47058SOL    HW143071  12.606   2.466   3.256
47058SOL    HW243072  12.612   2.611   3.299
47059SOL     OW43073   6.188  12.399   6.214
47059SOL    HW143074   6.118  12.465   6.215
47059SOL    HW243075   6.269  12.450   6.215
47060SOL     OW43076  13.162   1.374   5.485
47060SOL    HW143077  13.121   1.435   5.547
47060SOL    HW243078  13.091   1.314   5.461
47061SOL     OW43079   5.370   2.135  11.380
47061SOL    HW143080   5.294   2.078  11.371
47061SOL    HW243081   5.427   2.110  11.307
47062SOL     OW43082   8.199   6.246   3.647
47062SOL    HW143083   8.198   6.179   3.715
47062SOL    HW243084   8.157   6.322   3.687
47063SOL     OW43085   6.590  12.826   8.836
47063SOL    HW143086   6.556  12.774   8.763
47063SOL    HW243087   6.535  12.801   8.910
47064SOL     OW43088   3.156  11.331  14.373
47064SOL    HW143089   3.205  11.255  14.340
47064SOL    HW243090   3.065  11.301  14.376
47065SOL     OW43091   4.091  13.632   2.510
47065SOL    HW143092   4.043  13.550   2.511
47065SOL    HW243093   4.060  13.680   2.586
47066SOL     OW43094   3.942   5.229   2.052
47066SOL    HW143095   3.917   5.183   2.132
47066SOL    HW243096   4.038   5.226   2.052
47067SOL     OW43097   7.770  14.326  10.565
47067SOL    HW143098   7.861  14.318  10.536
47067SOL    HW243099   7.772  14.305  10.658
47068SOL     OW43100   5.324   9.244  14.011
47068SOL    HW143101   5.363   9.273  14.093
47068SOL    HW243102   5.300   9.153  14.026
47069SOL     OW43103  14.597   1.925   4.786
47069SOL    HW143104  14.520   1.928   4.730
47069SOL    HW243105  14.571   1.969   4.867
47070SOL     OW43106  10.073  14.158  14.696
47070SOL    HW143107  10.007  14.227  14.690
47070SOL    HW243108  10.041  14.100  14.764
47071SOL     OW43109  11.700   3.933   6.905
47071SOL    HW143110  11.728   3.891   6.987
47071SOL    HW243111  11.671   4.020   6.932
47072SOL     OW43112   4.282   6.940   0.676
47072SOL    HW143113   4.276   6.929   0.771
47072SOL    HW243114   4.319   7.028   0.665
47073SOL     OW43115  12.321   1.073  14.429
47073SOL    HW143116  12.373   1.067  14.510
47073SOL    HW243117  12.337   1.162  14.397
47074SOL     OW43118  12.599   1.071  13.160
47074SOL    HW143119  12.664   1.074  13.091
47074SOL    HW243120  12.520   1.109  13.121
47075SOL     OW43121   5.994   8.729   0.214
47075SOL    HW143122   6.088   8.733   0.228
47075SOL    HW243123   5.983   8.733   0.119
47076SOL     OW43124   2.497  14.275   2.187
47076SOL    HW143125   2.521  14.202   2.130
47076SOL    HW243126   2.571  14.335   2.183
47077SOL     OW43127   3.539   7.692   9.220
47077SOL    HW143128   3.453   7.724   9.194
47077SOL    HW243129   3.590   7.691   9.138
47078SOL     OW43130   8.450  13.370   0.686
47078SOL    HW143131   8.491  13.447   0.647
47078SOL    HW243132   8.366  13.402   0.720
47079SOL     OW43133  10.060   7.111   7.615
47079SOL    HW143134   9.973   7.126   7.578
47079SOL    HW243135  10.063   7.167   7.693
47080SOL     OW43136   5.947  12.688   7.945
47080SOL    HW143137   5.920  12.646   7.864
47080SOL    HW243138   5.868  12.694   7.998
47081SOL     OW43139   7.937  10.183   0.760
47081SOL    HW143140   7.878  10.195   0.686
47081SOL    HW243141   8.005  10.248   0.747
47082SOL     OW43142   2.978   9.928  10.169
47082SOL    HW143143   2.961   9.843  10.209
47082SOL    HW243144   2.953   9.991  10.237
47083SOL     OW43145   3.838   1.999   1.359
47083SOL    HW143146   3.786   1.953   1.425
47083SOL    HW243147   3.786   1.994   1.279
47084SOL     OW43148   2.156   4.736   5.485
47084SOL    HW143149   2.154   4.723   5.580
47084SOL    HW243150   2.248   4.731   5.461
47085SOL     OW43151  12.830   9.650   8.799
47085SOL    HW143152  12.795   9.582   8.742
47085SOL    HW243153  12.917   9.668   8.764
47086SOL     OW43154   0.371   7.080  13.921
47086SOL    HW143155   0.367   6.986  13.937
47086SOL    HW243156   0.309   7.094  13.849
47087SOL     OW43157   9.357   9.761   9.731
47087SOL    HW143158   9.262   9.770   9.722
47087SOL    HW243159   9.369   9.672   9.764
47088SOL     OW43160  13.920   5.793   8.762
47088SOL    HW143161  13.885   5.802   8.850
47088SOL    HW243162  13.944   5.700   8.754
47089SOL     OW43163  11.070  11.998   3.973
47089SOL    HW143164  11.088  11.908   3.999
47089SOL    HW243165  11.037  11.991   3.883
47090SOL     OW43166   4.121  11.005   2.850
47090SOL    HW143167   4.057  10.934   2.845
47090SOL    HW243168   4.115  11.049   2.765
47091SOL     OW43169   8.477   3.210  14.438
47091SOL    HW143170   8.446   3.228  14.349
47091SOL    HW243171   8.567   3.243  14.439
47092SOL     OW43172   5.677   6.065   6.721
47092SOL    HW143173   5.728   6.117   6.783
47092SOL    HW243174   5.742   6.009   6.678
47093SOL     OW43175  12.552   3.933  11.192
47093SOL    HW143176  12.598   3.881  11.126
47093SOL    HW243177  12.462   3.899  11.191
47094SOL     OW43178  11.603  14.464  13.189
47094SOL    HW143179  11.545  14.509  13.252
47094SOL    HW243180  11.691  14.491  13.214
47095SOL     OW43181   3.900  14.680  11.125
47095SOL    HW143182   3.834  14.668  11.057
47095SOL    HW243183   3.934  14.592  11.140
47096SOL     OW43184   6.533  10.530   7.073
47096SOL    HW143185   6.498  10.490   7.152
47096SOL    HW243186   6.529  10.624   7.090
47097SOL     OW43187   5.599  12.506  12.252
47097SOL    HW143188   5.585  12.426  12.202
47097SOL    HW243189   5.579  12.576  12.190
47098SOL     OW43190   1.777   0.145   4.959
47098SOL    HW143191   1.736   0.078   5.015
47098SOL    HW243192   1.856   0.102   4.926
47099SOL     OW43193   4.515  12.301   1.746
47099SOL    HW143194   4.537  12.368   1.811
47099SOL    HW243195   4.442  12.253   1.785
47100SOL     OW43196   7.124   6.625  12.674
47100SOL    HW143197   7.211   6.590  12.659
47100SOL    HW243198   7.078   6.557  12.723
47101SOL     OW43199   4.522   7.152  14.586
47101SOL    HW143200   4.546   7.191  14.669
47101SOL    HW243201   4.551   7.061  14.594
47102SOL     OW43202   2.459   7.381  10.446
47102SOL    HW143203   2.524   7.330  10.397
47102SOL    HW243204   2.494   7.386  10.535
47103SOL     OW43205  12.336   0.287   8.923
47103SOL    HW143206  12.343   0.383   8.925
47103SOL    HW243207  12.261   0.270   8.865
47104SOL     OW43208   1.814  10.018   9.832
47104SOL    HW143209   1.849  10.050   9.915
47104SOL    HW243210   1.816  10.095   9.774
47105SOL     OW43211  10.604   6.289   8.266
47105SOL    HW143212  10.627   6.317   8.354
47105SOL    HW243213  10.649   6.351   8.209
47106SOL     OW43214  14.232  14.016  13.024
47106SOL    HW143215  14.264  14.061  12.947
47106SOL    HW243216  14.275  14.060  13.098
47107SOL     OW43217  11.358   7.359   3.331
47107SOL    HW143218  11.372   7.441   3.284
47107SOL    HW243219  11.425   7.300   3.298
47108SOL     OW43220  12.252  10.579   2.002
47108SOL    HW143221  12.196  10.602   1.928
47108SOL    HW243222  12.247  10.484   2.007
47109SOL     OW43223   6.449   9.194   1.870
47109SOL    HW143224   6.379   9.209   1.932
47109SOL    HW243225   6.511   9.265   1.885
47110SOL     OW43226   3.074   2.600   7.998
47110SOL    HW143227   3.082   2.601   7.903
47110SOL    HW243228   2.980   2.603   8.014
47111SOL     OW43229   6.924   8.134   3.300
47111SOL    HW143230   6.921   8.079   3.379
47111SOL    HW243231   7.002   8.188   3.312
47112SOL     OW43232   0.888   9.651   5.745
47112SOL    HW143233   0.936   9.728   5.716
47112SOL    HW243234   0.951   9.579   5.737
47113SOL     OW43235  13.105   1.371  12.838
47113SOL    HW143236  13.081   1.299  12.780
47113SOL    HW243237  13.189   1.402  12.804
47114SOL     OW43238   7.590   5.525   0.741
47114SOL    HW143239   7.577   5.547   0.834
47114SOL    HW243240   7.563   5.433   0.735
47115SOL     OW43241   9.545   1.851  12.777
47115SOL    HW143242   9.495   1.876  12.855
47115SOL    HW243243   9.602   1.926  12.760
47116SOL     OW43244   7.346  14.391   0.555
47116SOL    HW143245   7.252  14.393   0.574
47116SOL    HW243246   7.368  14.298   0.555
47117SOL     OW43247  12.628  14.230   7.181
47117SOL    HW143248  12.579  14.172   7.123
47117SOL    HW243249  12.567  14.252   7.251
47118SOL     OW43250  14.509   9.663   0.453
47118SOL    HW143251  14.556   9.690   0.375
47118SOL    HW243252  14.429   9.716   0.453
47119SOL     OW43253   7.600   5.517  13.017
47119SOL    HW143254   7.549   5.437  13.003
47119SOL    HW243255   7.690   5.487  13.024
47120SOL     OW43256   1.670   0.356  10.796
47120SOL    HW143257   1.737   0.339  10.730
47120SOL    HW243258   1.718   0.359  10.879
47121SOL     OW43259   5.177  13.069   2.628
47121SOL    HW143260   5.250  13.083   2.568
47121SOL    HW243261   5.192  13.130   2.700
47122SOL     OW43262   4.354   1.856   7.038
47122SOL    HW143263   4.288   1.851   7.108
47122SOL    HW243264   4.343   1.774   6.990
47123SOL     OW43265  12.840   9.711   4.616
47123SOL    HW143266  12.917   9.757   4.582
47123SOL    HW243267  12.789   9.779   4.661
47124SOL     OW43268   5.782   3.388  12.185
47124SOL    HW143269   5.870   3.396  12.222
47124SOL    HW243270   5.749   3.305  12.217
47125SOL     OW43271   4.502   9.452   8.093
47125SOL    HW143272   4.523   9.366   8.129
47125SOL    HW243273   4.419   9.440   8.047
47126SOL     OW43274   5.013  12.901   2.769
47126SOL    HW143275   4.991  12.964   2.838
47126SOL    HW243276   5.061  12.952   2.705
47127SOL     OW43277   5.305   7.552   1.384
47127SOL    HW143278   5.289   7.520   1.295
47127SOL    HW243279   5.260   7.489   1.440
47128SOL     OW43280   4.569   9.438   8.714
47128SOL    HW143281   4.619   9.397   8.785
47128SOL    HW243282   4.553   9.527   8.745
47129SOL     OW43283  12.002   6.439   1.938
47129SOL    HW143284  11.982   6.354   1.977
47129SOL    HW243285  12.061   6.418   1.865
47130SOL     OW43286   8.661   3.112   8.304
47130SOL    HW143287   8.630   3.065   8.381
47130SOL    HW243288   8.583   3.125   8.251
47131SOL     OW43289   1.254   3.112   5.507
47131SOL    HW143290   1.229   3.040   5.565
47131SOL    HW243291   1.321   3.160   5.555
47132SOL     OW43292   6.256   9.002   2.398
47132SOL    HW143293   6.349   9.019   2.384
47132SOL    HW243294   6.212   9.050   2.327
47133SOL     OW43295   6.916   5.443   6.018
47133SOL    HW143296   6.906   5.536   5.996
47133SOL    HW243297   6.845   5.399   5.970
47134SOL     OW43298   9.922  11.270   9.138
47134SOL    HW143299   9.922  11.175   9.124
47134SOL    HW243300   9.968  11.282   9.221
47135SOL     OW43301  10.577  12.596   2.669
47135SOL    HW143302  10.523  12.650   2.726
47135SOL    HW243303  10.544  12.507   2.681
47136SOL     OW43304   4.912   6.912   4.633
47136SOL    HW143305   4.890   6.857   4.708
47136SOL    HW243306   4.918   7.001   4.669
47137SOL     OW43307  11.761   8.728   1.060
47137SOL    HW143308  11.690   8.788   1.039
47137SOL    HW243309  11.725   8.670   1.127
47138SOL     OW43310   0.534  10.064   1.209
47138SOL    HW143311   0.565   9.978   1.236
47138SOL    HW243312   0.556  10.122   1.282
47139SOL     OW43313   2.601   5.674   1.840
47139SOL    HW143314   2.680   5.682   1.787
47139SOL    HW243315   2.560   5.592   1.811
47140SOL     OW43316  14.546  11.332   0.411
47140SOL    HW143317  14.502  11.368   0.335
47140SOL    HW243318  14.616  11.278   0.375
47141SOL     OW43319   0.891   2.675   0.063
47141SOL    HW143320   0.984   2.670   0.086
47141SOL    HW243321   0.868   2.586   0.036
47142SOL     OW43322   2.373   2.710   2.071
47142SOL    HW143323   2.341   2.743   2.155
47142SOL    HW243324   2.313   2.747   2.006
47143SOL     OW43325  10.371   9.786   1.649
47143SOL    HW143326  10.304   9.835   1.697
47143SOL    HW243327  10.366   9.697   1.684
47144SOL     OW43328   5.998   8.297   5.197
47144SOL    HW143329   6.010   8.350   5.118
47144SOL    HW243330   6.085   8.265   5.218
47145SOL     OW43331   9.655   1.194  10.953
47145SOL    HW143332   9.631   1.174  10.863
47145SOL    HW243333   9.590   1.259  10.982
47146SOL     OW43334   3.723   3.792  13.666
47146SOL    HW143335   3.811   3.778  13.632
47146SOL    HW243336   3.669   3.805  13.587
47147SOL     OW43337   6.774  12.653   1.923
47147SOL    HW143338   6.821  12.625   1.845
47147SOL    HW243339   6.771  12.575   1.978
47148SOL     OW43340  10.852  14.323   4.408
47148SOL    HW143341  10.771  14.357   4.445
47148SOL    HW243342  10.896  14.400   4.372
47149SOL     OW43343  10.374  12.250   7.313
47149SOL    HW143344  10.287  12.268   7.277
47149SOL    HW243345  10.357  12.230   7.405
47150SOL     OW43346   6.750   2.521  12.831
47150SOL    HW143347   6.762   2.467  12.753
47150SOL    HW243348   6.821   2.496  12.890
47151SOL     OW43349  10.361  11.055  12.264
47151SOL    HW143350  10.430  11.121  12.262
47151SOL    HW243351  10.290  11.092  12.213
47152SOL     OW43352   9.663  14.716   2.942
47152SOL    HW143353   9.662  14.809   2.967
47152SOL    HW243354   9.704  14.715   2.856
47153SOL     OW43355  11.994   4.821   7.301
47153SOL    HW143356  11.954   4.884   7.242
47153SOL    HW243357  11.931   4.813   7.373
47154SOL     OW43358   7.362  11.861   0.650
47154SOL    HW143359   7.355  11.890   0.559
47154SOL    HW243360   7.331  11.770   0.649
47155SOL     OW43361   8.825   3.260   1.994
47155SOL    HW143362   8.737   3.297   1.990
47155SOL    HW243363   8.852   3.273   2.085
47156SOL     OW43364  12.260   1.680  10.623
47156SOL    HW143365  12.206   1.720  10.691
47156SOL    HW243366  12.330   1.635  10.671
47157SOL     OW43367   3.308   0.906  13.497
47157SOL    HW143368   3.302   0.925  13.403
47157SOL    HW243369   3.315   0.992  13.538
47158SOL     OW43370  11.987   8.455   9.094
47158SOL    HW143371  11.931   8.510   9.040
47158SOL    HW243372  12.033   8.399   9.032
47159SOL     OW43373   8.681  13.157   4.228
47159SOL    HW143374   8.615  13.144   4.160
47159SOL    HW243375   8.765  13.149   4.182
47160SOL     OW43376   0.010  10.617  12.923
47160SOL    HW143377  14.838  10.543  12.911
47160SOL    HW243378  14.865  10.662  13.000
47161SOL     OW43379   2.917   9.580   5.531
47161SOL    HW143380   2.889   9.490   5.549
47161SOL    HW243381   2.865   9.633   5.590
47162SOL     OW43382  10.309  13.967   6.713
47162SOL    HW143383  10.229  13.947   6.761
47162SOL    HW243384  10.314  13.901   6.644
47163SOL     OW43385   2.912   3.778   9.733
47163SOL    HW143386   2.818   3.765   9.749
47163SOL    HW243387   2.954   3.757   9.816
47164SOL     OW43388  10.297  10.581  10.042
47164SOL    HW143389  10.352  10.527   9.985
47164SOL    HW243390  10.209  10.543  10.034
47165SOL     OW43391  11.816   7.861   8.485
47165SOL    HW143392  11.864   7.943   8.474
47165SOL    HW243393  11.749   7.863   8.416
47166SOL     OW43394  13.529   9.808  11.726
47166SOL    HW143395  13.561   9.856  11.650
47166SOL    HW243396  13.435   9.797  11.709
47167SOL     OW43397  10.498   1.070   3.594
47167SOL    HW143398  10.481   1.029   3.678
47167SOL    HW243399  10.582   1.033   3.566
47168SOL     OW43400   3.763   3.686  12.756
47168SOL    HW143401   3.855   3.696  12.778
47168SOL    HW243402   3.716   3.722  12.832
47169SOL     OW43403  13.061   0.272  13.695
47169SOL    HW143404  12.997   0.237  13.756
47169SOL    HW243405  13.121   0.200  13.678
47170SOL     OW43406  10.163   2.801  11.975
47170SOL    HW143407  10.116   2.869  12.022
47170SOL    HW243408  10.183   2.839  11.889
47171SOL     OW43409  11.297   7.997  13.840
47171SOL    HW143410  11.261   8.042  13.916
47171SOL    HW243411  11.392   8.000  13.853
47172SOL     OW43412   8.899  12.127   3.430
47172SOL    HW143413   8.858  12.130   3.516
47172SOL    HW243414   8.886  12.037   3.400
47173SOL     OW43415  10.723  14.827   9.950
47173SOL    HW143416  10.745   0.030   9.926
47173SOL    HW243417  10.768  14.773   9.885
47174SOL     OW43418   8.325   9.969   6.427
47174SOL    HW143419   8.255  10.028   6.453
47174SOL    HW243420   8.287   9.914   6.359
47175SOL     OW43421  11.148  11.084   6.974
47175SOL    HW143422  11.209  11.038   6.916
47175SOL    HW243423  11.199  11.106   7.052
47176SOL     OW43424   1.685   3.828   9.858
47176SOL    HW143425   1.770   3.859   9.824
47176SOL    HW243426   1.627   3.830   9.782
47177SOL     OW43427   4.739   8.776  10.780
47177SOL    HW143428   4.786   8.858  10.793
47177SOL    HW243429   4.684   8.767  10.858
47178SOL     OW43430  11.671  12.881  10.102
47178SOL    HW143431  11.708  12.854  10.018
47178SOL    HW243432  11.693  12.974  10.108
47179SOL     OW43433   5.437  10.422   6.053
47179SOL    HW143434   5.485  10.491   6.098
47179SOL    HW243435   5.399  10.465   5.977
47180SOL     OW43436   0.420   6.780  14.782
47180SOL    HW143437   0.459   6.788  14.695
47180SOL    HW243438   0.335   6.824  14.774
47181SOL     OW43439   2.388  13.456  11.134
47181SOL    HW143440   2.478  13.489  11.123
47181SOL    HW243441   2.355  13.500  11.212
47182SOL     OW43442   9.284   0.061  14.752
47182SOL    HW143443   9.196   0.089  14.729
47182SOL    HW243444   9.278  14.853  14.754
47183SOL     OW43445   5.897   6.521   7.006
47183SOL    HW143446   5.883   6.476   7.089
47183SOL    HW243447   5.974   6.576   7.021
47184SOL     OW43448  14.682  10.527  12.174
47184SOL    HW143449  14.767  10.563  12.199
47184SOL    HW243450  14.685  10.435  12.199
47185SOL     OW43451   6.935  12.089   0.453
47185SOL    HW143452   6.959  12.078   0.361
47185SOL    HW243453   6.867  12.157   0.453
47186SOL     OW43454   2.692   6.507  10.149
47186SOL    HW143455   2.685   6.414  10.128
47186SOL    HW243456   2.765   6.513  10.210
47187SOL     OW43457   1.176  13.673   6.863
47187SOL    HW143458   1.189  13.597   6.806
47187SOL    HW243459   1.083  13.695   6.852
47188SOL     OW43460  14.870   6.034   6.602
47188SOL    HW143461  14.818   6.053   6.680
47188SOL    HW243462   0.073   6.033   6.633
47189SOL     OW43463   4.208   7.823   1.554
47189SOL    HW143464   4.164   7.861   1.631
47189SOL    HW243465   4.218   7.731   1.575
47190SOL     OW43466   2.349   6.446  13.680
47190SOL    HW143467   2.279   6.476  13.738
47190SOL    HW243468   2.321   6.472  13.593
47191SOL     OW43469  12.219  14.169   2.656
47191SOL    HW143470  12.226  14.197   2.747
47191SOL    HW243471  12.310  14.168   2.624
47192SOL     OW43472  12.083   5.403   1.304
47192SOL    HW143473  12.080   5.354   1.222
47192SOL    HW243474  11.992   5.418   1.327
47193SOL     OW43475   7.132   3.081  10.172
47193SOL    HW143476   7.085   3.039  10.100
47193SOL    HW243477   7.158   3.166  10.137
47194SOL     OW43478  14.055   3.347  13.087
47194SOL    HW143479  13.962   3.324  13.088
47194SOL    HW243480  14.078   3.357  13.179
47195SOL     OW43481   7.278  10.920  10.206
47195SOL    HW143482   7.303  10.837  10.166
47195SOL    HW243483   7.277  10.982  10.133
47196SOL     OW43484   0.800   2.672   3.014
47196SOL    HW143485   0.856   2.706   2.944
47196SOL    HW243486   0.711   2.694   2.986
47197SOL     OW43487   6.234   7.043   6.152
47197SOL    HW143488   6.172   7.061   6.223
47197SOL    HW243489   6.290   7.121   6.149
47198SOL     OW43490   4.835   2.725   4.729
47198SOL    HW143491   4.767   2.668   4.693
47198SOL    HW243492   4.801   2.754   4.813
47199SOL     OW43493  11.619  10.945   2.216
47199SOL    HW143494  11.592  10.985   2.133
47199SOL    HW243495  11.616  10.851   2.200
47200SOL     OW43496   5.144   3.170   1.954
47200SOL    HW143497   5.157   3.164   2.049
47200SOL    HW243498   5.207   3.110   1.916
47201SOL     OW43499   0.695  12.171  12.893
47201SOL    HW143500   0.787  12.159  12.919
47201SOL    HW243501   0.692  12.142  12.802
47202SOL     OW43502   2.266   4.135  13.505
47202SOL    HW143503   2.271   4.070  13.435
47202SOL    HW243504   2.298   4.089  13.582
47203SOL     OW43505   0.945   2.168   8.277
47203SOL    HW143506   0.972   2.183   8.187
47203SOL    HW243507   0.986   2.240   8.327
47204SOL     OW43508   0.872  10.234  11.473
47204SOL    HW143509   0.861  10.308  11.414
47204SOL    HW243510   0.804  10.245  11.539
47205SOL     OW43511   8.811   2.841   0.461
47205SOL    HW143512   8.757   2.913   0.431
47205SOL    HW243513   8.792   2.834   0.555
47206SOL     OW43514   4.703  14.406   1.548
47206SOL    HW143515   4.796  14.420   1.529
47206SOL    HW243516   4.701  14.360   1.631
47207SOL     OW43517   8.230   0.222   6.024
47207SOL    HW143518   8.156   0.197   6.080
47207SOL    HW243519   8.190   0.246   5.941
47208SOL     OW43520   2.534   9.731   9.250
47208SOL    HW143521   2.548   9.655   9.307
47208SOL    HW243522   2.474   9.787   9.298
47209SOL     OW43523   0.414  13.680   2.766
47209SOL    HW143524   0.476  13.638   2.827
47209SOL    HW243525   0.333  13.687   2.816
47210SOL     OW43526   1.057   7.671   7.293
47210SOL    HW143527   1.055   7.666   7.197
47210SOL    HW243528   0.976   7.629   7.321
47211SOL     OW43529  12.528   7.626   8.500
47211SOL    HW143530  12.586   7.593   8.570
47211SOL    HW243531  12.576   7.700   8.463
47212SOL     OW43532  14.206  10.561  13.975
47212SOL    HW143533  14.293  10.600  13.978
47212SOL    HW243534  14.188  10.533  14.065
47213SOL     OW43535   3.672  12.499  11.049
47213SOL    HW143536   3.591  12.470  11.091
47213SOL    HW243537   3.674  12.594  11.061
47214SOL     OW43538  14.234   4.833   0.465
47214SOL    HW143539  14.164   4.896   0.486
47214SOL    HW243540  14.197   4.748   0.488
47215SOL     OW43541   8.985   8.701  12.097
47215SOL    HW143542   8.931   8.643  12.043
47215SOL    HW243543   8.934   8.715  12.176
47216SOL     OW43544   0.256  14.003   1.200
47216SOL    HW143545   0.177  14.054   1.214
47216SOL    HW243546   0.267  14.000   1.105
47217SOL     OW43547   7.229  11.622   0.632
47217SOL    HW143548   7.286  11.550   0.657
47217SOL    HW243549   7.183  11.645   0.713
47218SOL     OW43550  14.000   1.678  13.118
47218SOL    HW143551  13.984   1.757  13.066
47218SOL    HW243552  14.023   1.711  13.205
47219SOL     OW43553   8.201   1.652   8.216
47219SOL    HW143554   8.189   1.574   8.162
47219SOL    HW243555   8.141   1.717   8.179
47220SOL     OW43556   8.218  12.487   8.361
47220SOL    HW143557   8.252  12.404   8.393
47220SOL    HW243558   8.265  12.502   8.279
47221SOL     OW43559   6.314  10.542  10.335
47221SOL    HW143560   6.313  10.619  10.392
47221SOL    HW243561   6.291  10.470  10.393
47222SOL     OW43562   2.396   5.916   4.894
47222SOL    HW143563   2.479   5.958   4.917
47222SOL    HW243564   2.375   5.862   4.969
47223SOL     OW43565   1.592  12.573   4.099
47223SOL    HW143566   1.555  12.543   4.182
47223SOL    HW243567   1.658  12.507   4.077
47224SOL     OW43568   2.213   2.108   7.407
47224SOL    HW143569   2.254   2.025   7.383
47224SOL    HW243570   2.286   2.169   7.417
47225SOL     OW43571   3.799   0.483   5.136
47225SOL    HW143572   3.826   0.409   5.191
47225SOL    HW243573   3.844   0.469   5.053
47226SOL     OW43574   6.201   5.067   4.538
47226SOL    HW143575   6.167   5.142   4.586
47226SOL    HW243576   6.265   5.104   4.477
47227SOL     OW43577   3.586   7.086   0.895
47227SOL    HW143578   3.538   7.062   0.974
47227SOL    HW243579   3.671   7.114   0.927
47228SOL     OW43580   6.542   2.225   0.550
47228SOL    HW143581   6.468   2.285   0.545
47228SOL    HW243582   6.573   2.217   0.460
47229SOL     OW43583  11.066   0.633   9.147
47229SOL    HW143584  11.031   0.717   9.116
47229SOL    HW243585  11.115   0.654   9.226
47230SOL     OW43586   1.572  13.521   6.424
47230SOL    HW143587   1.623  13.566   6.356
47230SOL    HW243588   1.488  13.566   6.425
47231SOL     OW43589  13.724   0.032  13.667
47231SOL    HW143590  13.772   0.020  13.748
47231SOL    HW243591  13.661   0.101  13.686
47232SOL     OW43592   5.944  14.513   5.434
47232SOL    HW143593   5.862  14.555   5.458
47232SOL    HW243594   6.003  14.533   5.507
47233SOL     OW43595  11.809   0.006  12.290
47233SOL    HW143596  11.730  14.848  12.321
47233SOL    HW243597  11.881  14.835  12.314
47234SOL     OW43598   1.032  13.087   2.017
47234SOL    HW143599   1.001  12.998   1.997
47234SOL    HW243600   1.125  13.085   1.995
47235SOL     OW43601  14.331   4.270  12.818
47235SOL    HW143602  14.295   4.310  12.897
47235SOL    HW243603  14.287   4.315  12.746
47236SOL     OW43604   0.044   0.526   8.246
47236SOL    HW143605   0.033   0.458   8.313
47236SOL    HW243606   0.014   0.484   8.165
47237SOL     OW43607   6.298   1.132   5.222
47237SOL    HW143608   6.296   1.074   5.146
47237SOL    HW243609   6.252   1.211   5.192
47238SOL     OW43610  13.631   2.606   0.776
47238SOL    HW143611  13.566   2.676   0.780
47238SOL    HW243612  13.580   2.527   0.761
47239SOL     OW43613   5.024   3.448   6.897
47239SOL    HW143614   5.055   3.493   6.819
47239SOL    HW243615   5.030   3.355   6.876
47240SOL     OW43616   6.278   1.907   4.203
47240SOL    HW143617   6.306   1.891   4.113
47240SOL    HW243618   6.196   1.955   4.195
47241SOL     OW43619   1.380  10.285   7.575
47241SOL    HW143620   1.399  10.368   7.619
47241SOL    HW243621   1.294  10.260   7.607
47242SOL     OW43622  12.314   6.522  11.960
47242SOL    HW143623  12.232   6.501  12.005
47242SOL    HW243624  12.321   6.617  11.965
47243SOL     OW43625   9.348   2.934  10.501
47243SOL    HW143626   9.268   2.939  10.555
47243SOL    HW243627   9.391   3.018  10.516
47244SOL     OW43628   1.489  12.125  14.498
47244SOL    HW143629   1.491  12.194  14.564
47244SOL    HW243630   1.562  12.146  14.439
47245SOL     OW43631   0.072   0.018  14.114
47245SOL    HW143632   0.032   0.027  14.200
47245SOL    HW243633   0.029  14.829  14.075
47246SOL     OW43634   5.486   7.000   2.119
47246SOL    HW143635   5.484   6.993   2.023
47246SOL    HW243636   5.509   7.092   2.135
47247SOL     OW43637   2.754   5.313   2.323
47247SOL    HW143638   2.737   5.241   2.383
47247SOL    HW243639   2.798   5.379   2.376
47248SOL     OW43640  10.081  11.803   6.345
47248SOL    HW143641  10.036  11.851   6.275
47248SOL    HW243642  10.012  11.756   6.391
47249SOL     OW43643   3.693  13.841  10.569
47249SOL    HW143644   3.655  13.816  10.654
47249SOL    HW243645   3.635  13.800  10.504
47250SOL     OW43646   9.638   4.684   8.025
47250SOL    HW143647   9.709   4.714   8.082
47250SOL    HW243648   9.568   4.749   8.038
47251SOL     OW43649  11.199   9.150   3.477
47251SOL    HW143650  11.222   9.200   3.555
47251SOL    HW243651  11.223   9.208   3.404
47252SOL     OW43652   4.761  11.961   9.533
47252SOL    HW143653   4.809  11.889   9.572
47252SOL    HW243654   4.792  12.039   9.580
47253SOL     OW43655   6.964   0.711   3.409
47253SOL    HW143656   6.991   0.758   3.330
47253SOL    HW243657   6.872   0.735   3.421
47254SOL     OW43658  10.266   3.273  10.475
47254SOL    HW143659  10.236   3.186  10.446
47254SOL    HW243660  10.362   3.267  10.472
47255SOL     OW43661   6.982   4.098  14.611
47255SOL    HW143662   6.979   4.038  14.685
47255SOL    HW243663   6.960   4.044  14.535
47256SOL     OW43664   8.001   9.279  13.347
47256SOL    HW143665   8.076   9.228  13.316
47256SOL    HW243666   8.033   9.369  13.350
47257SOL     OW43667   9.528  11.490  14.739
47257SOL    HW143668   9.619  11.475  14.766
47257SOL    HW243669   9.476  11.459  14.813
47258SOL     OW43670   7.003   1.896  11.096
47258SOL    HW143671   7.062   1.967  11.071
47258SOL    HW243672   7.016   1.829  11.028
47259SOL     OW43673   7.791   5.363   2.202
47259SOL    HW143674   7.791   5.374   2.297
47259SOL    HW243675   7.733   5.289   2.186
47260SOL     OW43676  11.368  10.062  10.265
47260SOL    HW143677  11.309  10.080  10.192
47260SOL    HW243678  11.329  10.106  10.340
47261SOL     OW43679   3.614  13.418  10.263
47261SOL    HW143680   3.572  13.465  10.335
47261SOL    HW243681   3.707  13.439  10.272
47262SOL     OW43682   7.584  13.050   2.424
47262SOL    HW143683   7.665  13.062   2.374
47262SOL    HW243684   7.515  13.065   2.359
47263SOL     OW43685  12.910  10.200  14.082
47263SOL    HW143686  13.006  10.205  14.074
47263SOL    HW243687  12.883  10.292  14.090
47264SOL     OW43688   0.247  10.591   7.610
47264SOL    HW143689   0.271  10.638   7.530
47264SOL    HW243690   0.309  10.623   7.676
47265SOL     OW43691   5.327  14.481   7.212
47265SOL    HW143692   5.367  14.561   7.178
47265SOL    HW243693   5.328  14.491   7.307
47266SOL     OW43694  12.824   7.959  12.499
47266SOL    HW143695  12.877   7.879  12.494
47266SOL    HW243696  12.888   8.029  12.514
47267SOL     OW43697  10.034  13.160   5.962
47267SOL    HW143698  10.104  13.098   5.981
47267SOL    HW243699  10.061  13.241   6.005
47268SOL     OW43700   9.378   0.929   4.612
47268SOL    HW143701   9.343   0.938   4.701
47268SOL    HW243702   9.463   0.888   4.623
47269SOL     OW43703  11.484   7.638  10.860
47269SOL    HW143704  11.426   7.674  10.793
47269SOL    HW243705  11.522   7.560  10.820
47270SOL     OW43706   1.972  13.425  11.815
47270SOL    HW143707   2.062  13.445  11.841
47270SOL    HW243708   1.927  13.510  11.815
47271SOL     OW43709   5.445  10.324  10.677
47271SOL    HW143710   5.471  10.262  10.609
47271SOL    HW243711   5.522  10.379  10.690
47272SOL     OW43712   3.309   5.758  12.893
47272SOL    HW143713   3.384   5.730  12.840
47272SOL    HW243714   3.255   5.810  12.834
47273SOL     OW43715  13.124   0.934  12.426
47273SOL    HW143716  13.047   0.955  12.373
47273SOL    HW243717  13.193   0.916  12.362
47274SOL     OW43718   2.189  11.113   1.997
47274SOL    HW143719   2.150  11.164   2.067
47274SOL    HW243720   2.219  11.033   2.040
47275SOL     OW43721  10.124  12.622  10.899
47275SOL    HW143722  10.174  12.701  10.919
47275SOL    HW243723  10.108  12.627  10.805
47276SOL     OW43724   4.946   3.644   0.508
47276SOL    HW143725   4.858   3.680   0.519
47276SOL    HW243726   5.000   3.695   0.568
47277SOL     OW43727   0.668   8.291  10.008
47277SOL    HW143728   0.618   8.211  10.022
47277SOL    HW243729   0.602   8.361  10.008
47278SOL     OW43730  11.419   0.603  10.229
47278SOL    HW143731  11.431   0.571  10.318
47278SOL    HW243732  11.349   0.549  10.193
47279SOL     OW43733   3.306   7.192  10.086
47279SOL    HW143734   3.383   7.140  10.063
47279SOL    HW243735   3.232   7.143  10.050
47280SOL     OW43736   2.620   1.704   7.597
47280SOL    HW143737   2.697   1.653   7.572
47280SOL    HW243738   2.654   1.771   7.657
47281SOL     OW43739   0.567   3.582  12.315
47281SOL    HW143740   0.590   3.659  12.262
47281SOL    HW243741   0.649   3.532  12.321
47282SOL     OW43742   3.875  13.234   8.380
47282SOL    HW143743   3.868  13.177   8.303
47282SOL    HW243744   3.951  13.290   8.361
47283SOL     OW43745   3.448   9.071   8.307
47283SOL    HW143746   3.469   9.069   8.401
47283SOL    HW243747   3.369   9.123   8.301
47284SOL     OW43748  11.145   3.509   4.623
47284SOL    HW143749  11.179   3.534   4.536
47284SOL    HW243750  11.050   3.504   4.611
47285SOL     OW43751   2.703   0.751  11.859
47285SOL    HW143752   2.693   0.803  11.939
47285SOL    HW243753   2.686   0.661  11.886
47286SOL     OW43754  10.758   5.517   9.908
47286SOL    HW143755  10.702   5.468   9.969
47286SOL    HW243756  10.789   5.592   9.959
47287SOL     OW43757   9.930  10.011   0.184
47287SOL    HW143758   9.957   9.943   0.246
47287SOL    HW243759   9.834  10.005   0.183
47288SOL     OW43760  14.203   8.380   3.704
47288SOL    HW143761  14.133   8.416   3.649
47288SOL    HW243762  14.176   8.401   3.794
47289SOL     OW43763  12.373  10.794   9.866
47289SOL    HW143764  12.382  10.702   9.888
47289SOL    HW243765  12.444  10.811   9.804
47290SOL     OW43766   5.465   8.143   2.480
47290SOL    HW143767   5.493   8.117   2.567
47290SOL    HW243768   5.370   8.131   2.480
47291SOL     OW43769   4.837   9.754   7.771
47291SOL    HW143770   4.843   9.668   7.812
47291SOL    HW243771   4.902   9.753   7.701
47292SOL     OW43772   9.002   0.316  13.446
47292SOL    HW143773   8.927   0.376  13.439
47292SOL    HW243774   8.984   0.266  13.525
47293SOL     OW43775   4.570   1.084   2.871
47293SOL    HW143776   4.594   1.134   2.949
47293SOL    HW243777   4.544   0.998   2.904
47294SOL     OW43778  10.520  14.054   8.161
47294SOL    HW143779  10.489  14.068   8.250
47294SOL    HW243780  10.614  14.072   8.165
47295SOL     OW43781   3.676   1.299   9.051
47295SOL    HW143782   3.718   1.381   9.028
47295SOL    HW243783   3.583   1.320   9.058
47296SOL     OW43784   4.720   1.920   9.186
47296SOL    HW143785   4.778   1.876   9.125
47296SOL    HW243786   4.646   1.861   9.197
47297SOL     OW43787   3.431  10.482  12.211
47297SOL    HW143788   3.416  10.571  12.179
47297SOL    HW243789   3.377  10.427  12.153
47298SOL     OW43790   0.096   6.139  14.730
47298SOL    HW143791   0.072   6.087  14.653
47298SOL    HW243792   0.191   6.150  14.722
47299SOL     OW43793   7.118  11.025  14.170
47299SOL    HW143794   7.142  11.113  14.141
47299SOL    HW243795   7.038  11.037  14.221
47300SOL     OW43796   7.102   1.345   0.542
47300SOL    HW143797   7.191   1.318   0.521
47300SOL    HW243798   7.113   1.416   0.606
47301SOL     OW43799  10.751   2.262   0.914
47301SOL    HW143800  10.679   2.308   0.870
47301SOL    HW243801  10.710   2.185   0.953
47302SOL     OW43802  10.519   2.819   6.106
47302SOL    HW143803  10.471   2.769   6.040
47302SOL    HW243804  10.599   2.769   6.119
47303SOL     OW43805  14.538   5.714   8.839
47303SOL    HW143806  14.444   5.729   8.843
47303SOL    HW243807  14.577   5.793   8.876
47304SOL     OW43808   2.237   7.862   7.409
47304SOL    HW143809   2.252   7.835   7.500
47304SOL    HW243810   2.181   7.940   7.417
47305SOL     OW43811   3.649   2.858  10.761
47305SOL    HW143812   3.571   2.895  10.719
47305SOL    HW243813   3.632   2.764  10.763
47306SOL     OW43814   2.027   0.530   0.522
47306SOL    HW143815   2.000   0.524   0.613
47306SOL    HW243816   2.110   0.483   0.518
47307SOL     OW43817  11.177   1.860   3.031
47307SOL    HW143818  11.187   1.765   3.029
47307SOL    HW243819  11.186   1.883   3.123
47308SOL     OW43820   8.965   4.098   8.853
47308SOL    HW143821   8.874   4.088   8.881
47308SOL    HW243822   9.002   4.010   8.861
47309SOL     OW43823   0.347   3.771   3.346
47309SOL    HW143824   0.415   3.734   3.290
47309SOL    HW243825   0.335   3.707   3.416
47310SOL     OW43826   5.816   7.216   6.656
47310SOL    HW143827   5.830   7.292   6.712
47310SOL    HW243828   5.904   7.182   6.640
47311SOL     OW43829   5.634   2.022   5.972
47311SOL    HW143830   5.693   1.985   6.038
47311SOL    HW243831   5.574   2.077   6.021
47312SOL     OW43832   4.185  12.196  14.466
47312SOL    HW143833   4.097  12.202  14.505
47312SOL    HW243834   4.230  12.275  14.495
47313SOL     OW43835  14.381   4.517   0.900
47313SOL    HW143836  14.450   4.583   0.895
47313SOL    HW243837  14.415   4.452   0.962
47314SOL     OW43838   0.146   0.709  11.083
47314SOL    HW143839   0.082   0.772  11.051
47314SOL    HW243840   0.135   0.709  11.178
47315SOL     OW43841   7.533  13.742   7.202
47315SOL    HW143842   7.531  13.724   7.108
47315SOL    HW243843   7.536  13.837   7.209
47316SOL     OW43844   7.881  10.750  12.497
47316SOL    HW143845   7.792  10.775  12.522
47316SOL    HW243846   7.925  10.730  12.580
47317SOL     OW43847   7.530  12.333  13.520
47317SOL    HW143848   7.462  12.272  13.548
47317SOL    HW243849   7.544  12.390  13.596
47318SOL     OW43850   4.506   4.055   4.756
47318SOL    HW143851   4.430   4.063   4.699
47318SOL    HW243852   4.573   4.110   4.716
47319SOL     OW43853   5.972   1.180  12.220
47319SOL    HW143854   5.942   1.269  12.236
47319SOL    HW243855   5.900   1.125  12.253
47320SOL     OW43856   4.586   1.285  13.057
47320SOL    HW143857   4.618   1.195  13.052
47320SOL    HW243858   4.533   1.288  13.136
47321SOL     OW43859   6.641   5.952   7.013
47321SOL    HW143860   6.651   5.999   6.931
47321SOL    HW243861   6.576   5.885   6.995
47322SOL     OW43862   5.119   2.191   5.431
47322SOL    HW143863   5.078   2.182   5.345
47322SOL    HW243864   5.203   2.145   5.422
47323SOL     OW43865   3.115   7.061   2.670
47323SOL    HW143866   3.056   6.994   2.705
47323SOL    HW243867   3.096   7.139   2.721
47324SOL     OW43868  13.672  11.687  11.509
47324SOL    HW143869  13.720  11.754  11.461
47324SOL    HW243870  13.583  11.722  11.517
47325SOL     OW43871   4.366  10.846   8.011
47325SOL    HW143872   4.358  10.927   7.960
47325SOL    HW243873   4.424  10.791   7.959
47326SOL     OW43874   3.129   9.944  13.675
47326SOL    HW143875   3.126   9.918  13.584
47326SOL    HW243876   3.221   9.936  13.699
47327SOL     OW43877   7.574   8.482  12.330
47327SOL    HW143878   7.480   8.491  12.311
47327SOL    HW243879   7.617   8.500  12.246
47328SOL     OW43880  14.076   9.409  11.672
47328SOL    HW143881  14.001   9.434  11.619
47328SOL    HW243882  14.043   9.341  11.731
47329SOL     OW43883   8.790  14.616  12.120
47329SOL    HW143884   8.707  14.643  12.081
47329SOL    HW243885   8.766  14.553  12.188
47330SOL     OW43886   6.639   5.151  13.309
47330SOL    HW143887   6.549   5.120  13.319
47330SOL    HW243888   6.655   5.148  13.214
47331SOL     OW43889   9.475   5.260   5.455
47331SOL    HW143890   9.503   5.343   5.494
47331SOL    HW243891   9.468   5.200   5.529
47332SOL     OW43892  11.230   5.159   0.948
47332SOL    HW143893  11.322   5.142   0.965
47332SOL    HW243894  11.191   5.073   0.936
47333SOL     OW43895   8.635   6.188   9.521
47333SOL    HW143896   8.718   6.146   9.500
47333SOL    HW243897   8.614   6.240   9.443
47334SOL     OW43898   3.728  13.936   0.182
47334SOL    HW143899   3.682  13.961   0.261
47334SOL    HW243900   3.741  13.841   0.190
47335SOL     OW43901   9.984  14.797   3.867
47335SOL    HW143902  10.015  14.870   3.920
47335SOL    HW243903   9.973  14.725   3.929
47336SOL     OW43904   4.462  10.054   8.472
47336SOL    HW143905   4.552  10.023   8.482
47336SOL    HW243906   4.411   9.997   8.530
47337SOL     OW43907   8.524   6.324   1.182
47337SOL    HW143908   8.579   6.390   1.223
47337SOL    HW243909   8.452   6.373   1.143
47338SOL     OW43910   6.431   7.420   9.727
47338SOL    HW143911   6.428   7.327   9.701
47338SOL    HW243912   6.340   7.448   9.723
47339SOL     OW43913   4.041   8.793   0.556
47339SOL    HW143914   4.086   8.874   0.530
47339SOL    HW243915   4.089   8.724   0.511
47340SOL     OW43916   3.242  12.855   8.254
47340SOL    HW143917   3.226  12.764   8.278
47340SOL    HW243918   3.162  12.901   8.279
47341SOL     OW43919   2.432   6.364  12.944
47341SOL    HW143920   2.504   6.306  12.919
47341SOL    HW243921   2.474   6.447  12.966
47342SOL     OW43922   7.769   3.869  13.372
47342SOL    HW143923   7.857   3.895  13.346
47342SOL    HW243924   7.782   3.810  13.447
47343SOL     OW43925   3.716  14.382   4.405
47343SOL    HW143926   3.704  14.287   4.406
47343SOL    HW243927   3.627  14.417   4.412
47344SOL     OW43928  12.933   0.355   6.336
47344SOL    HW143929  12.977   0.439   6.325
47344SOL    HW243930  12.982   0.295   6.280
47345SOL     OW43931  10.302   9.422   8.347
47345SOL    HW143932  10.250   9.463   8.278
47345SOL    HW243933  10.390   9.456   8.334
47346SOL     OW43934  13.046  11.333   3.773
47346SOL    HW143935  13.011  11.268   3.713
47346SOL    HW243936  13.011  11.416   3.741
47347SOL     OW43937  12.608   8.663   7.067
47347SOL    HW143938  12.677   8.630   7.124
47347SOL    HW243939  12.628   8.757   7.057
47348SOL     OW43940  11.958   8.172   2.414
47348SOL    HW143941  11.868   8.151   2.390
47348SOL    HW243942  12.003   8.183   2.331
47349SOL     OW43943  10.979   6.952   8.182
47349SOL    HW143944  11.073   6.941   8.200
47349SOL    HW243945  10.973   6.957   8.087
47350SOL     OW43946  10.003  10.172   3.391
47350SOL    HW143947  10.047  10.092   3.362
47350SOL    HW243948   9.997  10.226   3.312
47351SOL     OW43949   9.677   6.906   0.929
47351SOL    HW143950   9.639   6.911   1.017
47351SOL    HW243951   9.667   6.995   0.894
47352SOL     OW43952   9.518  13.194   2.243
47352SOL    HW143953   9.440  13.149   2.211
47352SOL    HW243954   9.529  13.269   2.186
47353SOL     OW43955  14.216   3.448  14.807
47353SOL    HW143956  14.297   3.480  14.768
47353SOL    HW243957  14.229   3.354  14.816
47354SOL     OW43958   9.544   8.513   1.624
47354SOL    HW143959   9.465   8.468   1.596
47354SOL    HW243960   9.611   8.486   1.561
47355SOL     OW43961   8.046   7.752   6.716
47355SOL    HW143962   8.103   7.709   6.781
47355SOL    HW243963   7.960   7.714   6.731
47356SOL     OW43964  14.211   9.351   5.123
47356SOL    HW143965  14.264   9.351   5.042
47356SOL    HW243966  14.272   9.322   5.191
47357SOL     OW43967   8.232   9.748   0.044
47357SOL    HW143968   8.302   9.725   0.106
47357SOL    HW243969   8.233   9.677  14.867
47358SOL     OW43970   0.510   2.272   5.196
47358SOL    HW143971   0.429   2.250   5.149
47358SOL    HW243972   0.527   2.363   5.172
47359SOL     OW43973   0.786   1.271  14.329
47359SOL    HW143974   0.827   1.308  14.408
47359SOL    HW243975   0.738   1.344  14.290
47360SOL     OW43976  12.077  11.786   3.600
47360SOL    HW143977  12.068  11.691   3.599
47360SOL    HW243978  12.047  11.813   3.687
47361SOL     OW43979   3.848  12.940  13.986
47361SOL    HW143980   3.835  12.883  14.062
47361SOL    HW243981   3.824  13.027  14.016
47362SOL     OW43982   6.120   1.951  11.301
47362SOL    HW143983   6.062   1.898  11.247
47362SOL    HW243984   6.196   1.968  11.244
47363SOL     OW43985   3.205   7.276   7.492
47363SOL    HW143986   3.133   7.284   7.430
47363SOL    HW243987   3.163   7.289   7.578
47364SOL     OW43988   5.551  14.392   5.084
47364SOL    HW143989   5.538  14.333   5.158
47364SOL    HW243990   5.475  14.379   5.028
47365SOL     OW43991   9.122   5.269  10.473
47365SOL    HW143992   9.180   5.195  10.492
47365SOL    HW243993   9.036   5.240  10.503
47366SOL     OW43994  14.709   1.703  13.409
47366SOL    HW143995  14.700   1.608  13.416
47366SOL    HW243996  14.680   1.736  13.493
47367SOL     OW43997   2.453  10.979   3.937
47367SOL    HW143998   2.545  10.963   3.919
47367SOL    HW243999   2.436  11.065   3.899
47368SOL     OW44000   9.169   9.537   2.839
47368SOL    HW144001   9.186   9.572   2.927
47368SOL    HW244002   9.169   9.613   2.782
47369SOL     OW44003   8.919  13.566   1.420
47369SOL    HW144004   8.987  13.535   1.479
47369SOL    HW244005   8.966  13.620   1.356
47370SOL     OW44006   3.424   0.270   0.783
47370SOL    HW144007   3.330   0.283   0.770
47370SOL    HW244008   3.463   0.355   0.762
47371SOL     OW44009   0.360   6.728  12.760
47371SOL    HW144010   0.271   6.693  12.764
47371SOL    HW244011   0.393   6.722  12.849
47372SOL     OW44012   9.720   7.965   2.110
47372SOL    HW144013   9.782   7.892   2.115
47372SOL    HW244014   9.637   7.925   2.087
47373SOL     OW44015   0.911   6.200  12.868
47373SOL    HW144016   0.936   6.292  12.876
47373SOL    HW244017   0.821   6.197  12.901
47374SOL     OW44018   1.580   6.007   2.150
47374SOL    HW144019   1.575   5.912   2.156
47374SOL    HW244020   1.638   6.033   2.222
47375SOL     OW44021   0.002   3.056   1.580
47375SOL    HW144022  14.887   3.011   1.664
47375SOL    HW244023  14.823   3.012   1.527
47376SOL     OW44024   6.903   0.179  10.861
47376SOL    HW144025   6.848   0.117  10.812
47376SOL    HW244026   6.906   0.257  10.806
47377SOL     OW44027  14.772  12.111   5.900
47377SOL    HW144028  14.792  12.201   5.874
47377SOL    HW244029  14.717  12.120   5.977
47378SOL     OW44030   1.354   2.013   2.370
47378SOL    HW144031   1.419   2.065   2.323
47378SOL    HW244032   1.401   1.972   2.442
47379SOL     OW44033   1.564   8.079   9.772
47379SOL    HW144034   1.582   8.144   9.704
47379SOL    HW244035   1.470   8.060   9.764
47380SOL     OW44036  10.257   6.561   8.011
47380SOL    HW144037  10.192   6.630   7.994
47380SOL    HW244038  10.215   6.481   7.980
47381SOL     OW44039  13.816   3.792   4.125
47381SOL    HW144040  13.905   3.821   4.146
47381SOL    HW244041  13.759   3.851   4.175
47382SOL     OW44042   1.338   9.698  10.420
47382SOL    HW144043   1.390   9.678  10.497
47382SOL    HW244044   1.250   9.716  10.454
47383SOL     OW44045   6.112  11.080  11.774
47383SOL    HW144046   6.026  11.117  11.793
47383SOL    HW244047   6.096  11.010  11.712
47384SOL     OW44048   1.617   7.235   0.091
47384SOL    HW144049   1.536   7.279   0.066
47384SOL    HW244050   1.663   7.299   0.145
47385SOL     OW44051   7.350   7.590   4.434
47385SOL    HW144052   7.276   7.535   4.460
47385SOL    HW244053   7.397   7.537   4.370
47386SOL     OW44054   4.542   5.931   1.834
47386SOL    HW144055   4.596   5.929   1.756
47386SOL    HW244056   4.564   6.014   1.877
47387SOL     OW44057   0.581  10.514  14.559
47387SOL    HW144058   0.576  10.519  14.464
47387SOL    HW244059   0.533  10.435  14.582
47388SOL     OW44060   2.686   8.522   4.567
47388SOL    HW144061   2.599   8.557   4.545
47388SOL    HW244062   2.668   8.451   4.628
47389SOL     OW44063   0.273   5.692  12.312
47389SOL    HW144064   0.189   5.735  12.302
47389SOL    HW244065   0.261   5.633  12.387
47390SOL     OW44066  11.200  14.441  11.549
47390SOL    HW144067  11.274  14.412  11.496
47390SOL    HW244068  11.133  14.374  11.534
47391SOL     OW44069  12.271   5.436   4.631
47391SOL    HW144070  12.270   5.343   4.609
47391SOL    HW244071  12.341   5.445   4.695
47392SOL     OW44072   6.013   8.480   4.999
47392SOL    HW144073   6.012   8.567   5.038
47392SOL    HW244074   6.093   8.477   4.948
47393SOL     OW44075   5.746   0.717  10.819
47393SOL    HW144076   5.724   0.627  10.845
47393SOL    HW244077   5.732   0.719  10.724
47394SOL     OW44078  13.871   1.026   4.932
47394SOL    HW144079  13.878   1.071   4.848
47394SOL    HW244080  13.881   1.096   4.997
47395SOL     OW44081   0.920  14.086   8.352
47395SOL    HW144082   0.832  14.070   8.385
47395SOL    HW244083   0.975  14.085   8.431
47396SOL     OW44084   5.983  11.005  14.533
47396SOL    HW144085   6.012  11.073  14.594
47396SOL    HW244086   5.981  11.048  14.448
47397SOL     OW44087  14.008   8.515   4.810
47397SOL    HW144088  13.913   8.521   4.798
47397SOL    HW244089  14.034   8.601   4.843
47398SOL     OW44090   1.365   1.159   1.164
47398SOL    HW144091   1.311   1.188   1.238
47398SOL    HW244092   1.412   1.083   1.198
47399SOL     OW44093   5.729   9.631   3.953
47399SOL    HW144094   5.725   9.535   3.954
47399SOL    HW244095   5.738   9.655   4.045
47400SOL     OW44096   5.051   8.628  12.839
47400SOL    HW144097   5.106   8.701  12.867
47400SOL    HW244098   5.109   8.551  12.841
47401SOL     OW44099  11.366   1.054  11.205
47401SOL    HW144100  11.288   0.999  11.198
47401SOL    HW244101  11.427   1.003  11.259
47402SOL     OW44102   3.421   5.818   0.926
47402SOL    HW144103   3.453   5.895   0.879
47402SOL    HW244104   3.497   5.761   0.935
47403SOL     OW44105   9.575   6.050   3.140
47403SOL    HW144106   9.510   5.981   3.129
47403SOL    HW244107   9.614   6.035   3.226
47404SOL     OW44108  12.110  13.251   6.508
47404SOL    HW144109  12.126  13.299   6.427
47404SOL    HW244110  12.197  13.237   6.545
47405SOL     OW44111   6.386   3.839   8.739
47405SOL    HW144112   6.411   3.750   8.714
47405SOL    HW244113   6.469   3.884   8.752
47406SOL     OW44114  13.196  11.523  13.637
47406SOL    HW144115  13.190  11.615  13.661
47406SOL    HW244116  13.123  11.509  13.577
47407SOL     OW44117   5.499  12.839   4.295
47407SOL    HW144118   5.579  12.892   4.295
47407SOL    HW244119   5.517  12.770   4.360
47408SOL     OW44120  11.794   7.095  12.726
47408SOL    HW144121  11.856   7.097  12.798
47408SOL    HW244122  11.770   7.187  12.712
47409SOL     OW44123   1.970   7.566   2.978
47409SOL    HW144124   1.989   7.653   2.943
47409SOL    HW244125   1.878   7.551   2.958
47410SOL     OW44126  13.753   2.433   0.244
47410SOL    HW144127  13.792   2.482   0.171
47410SOL    HW244128  13.828   2.398   0.292
47411SOL     OW44129  11.530   8.184   1.982
47411SOL    HW144130  11.547   8.137   1.901
47411SOL    HW244131  11.435   8.192   1.987
47412SOL     OW44132   1.784  13.190  10.288
47412SOL    HW144133   1.869  13.236  10.283
47412SOL    HW244134   1.787  13.145  10.372
47413SOL     OW44135  12.048   7.323   5.702
47413SOL    HW144136  12.030   7.387   5.633
47413SOL    HW244137  12.124   7.359   5.749
47414SOL     OW44138  12.194  14.846   8.908
47414SOL    HW144139  12.155  14.847   8.995
47414SOL    HW244140  12.275  14.797   8.918
47415SOL     OW44141  11.671  11.588   9.857
47415SOL    HW144142  11.582  11.570   9.887
47415SOL    HW244143  11.662  11.657   9.792
47416SOL     OW44144   0.690   7.073   6.328
47416SOL    HW144145   0.655   6.987   6.354
47416SOL    HW244146   0.721   7.060   6.238
47417SOL     OW44147   8.948   3.901  10.092
47417SOL    HW144148   8.995   3.923  10.011
47417SOL    HW244149   8.954   3.806  10.097
47418SOL     OW44150   9.614   8.621  13.205
47418SOL    HW144151   9.620   8.536  13.248
47418SOL    HW244152   9.703   8.655  13.207
47419SOL     OW44153   6.664  14.739   6.597
47419SOL    HW144154   6.680  14.759   6.504
47419SOL    HW244155   6.573  14.766   6.611
47420SOL     OW44156   1.596  11.297   7.160
47420SOL    HW144157   1.513  11.268   7.124
47420SOL    HW244158   1.603  11.254   7.245
47421SOL     OW44159   1.885   7.509   7.036
47421SOL    HW144160   1.793   7.535   7.030
47421SOL    HW244161   1.918   7.556   7.112
47422SOL     OW44162   6.225  10.439   2.785
47422SOL    HW144163   6.131  10.450   2.800
47422SOL    HW244164   6.244  10.492   2.707
47423SOL     OW44165  12.796  11.238   2.020
47423SOL    HW144166  12.808  11.277   2.107
47423SOL    HW244167  12.883  11.208   1.995
47424SOL     OW44168   6.305  12.441   1.178
47424SOL    HW144169   6.352  12.405   1.103
47424SOL    HW244170   6.371  12.495   1.224
47425SOL     OW44171  13.181   2.161   6.053
47425SOL    HW144172  13.091   2.193   6.041
47425SOL    HW244173  13.177   2.111   6.135
47426SOL     OW44174  11.199   1.313   4.423
47426SOL    HW144175  11.254   1.276   4.353
47426SOL    HW244176  11.259   1.367   4.474
47427SOL     OW44177   0.843   7.134   3.717
47427SOL    HW144178   0.847   7.176   3.631
47427SOL    HW244179   0.893   7.053   3.707
47428SOL     OW44180  12.601   2.524  11.195
47428SOL    HW144181  12.540   2.577  11.247
47428SOL    HW244182  12.674   2.507  11.255
47429SOL     OW44183   3.302  11.736   6.572
47429SOL    HW144184   3.229  11.798   6.568
47429SOL    HW244185   3.337  11.735   6.483
47430SOL     OW44186   8.893   4.153   4.275
47430SOL    HW144187   8.879   4.231   4.328
47430SOL    HW244188   8.984   4.129   4.291
47431SOL     OW44189   3.968   8.393   2.987
47431SOL    HW144190   3.953   8.340   3.065
47431SOL    HW244191   4.045   8.446   3.008
47432SOL     OW44192   6.445   5.679  14.580
47432SOL    HW144193   6.430   5.586  14.560
47432SOL    HW244194   6.358   5.718  14.580
47433SOL     OW44195  11.105   1.186   2.601
47433SOL    HW144196  11.198   1.177   2.618
47433SOL    HW244197  11.098   1.265   2.547
47434SOL     OW44198  10.499   1.418   2.684
47434SOL    HW144199  10.502   1.322   2.688
47434SOL    HW244200  10.408   1.439   2.702
47435SOL     OW44201   1.195   9.040   0.274
47435SOL    HW144202   1.222   9.112   0.218
47435SOL    HW244203   1.210   9.072   0.363
47436SOL     OW44204  10.514  12.289  14.029
47436SOL    HW144205  10.466  12.282  14.112
47436SOL    HW244206  10.587  12.227  14.038
47437SOL     OW44207   1.880   4.480   2.112
47437SOL    HW144208   1.825   4.407   2.082
47437SOL    HW244209   1.892   4.463   2.206
47438SOL     OW44210   4.857   6.645   5.768
47438SOL    HW144211   4.805   6.724   5.749
47438SOL    HW244212   4.930   6.649   5.707
47439SOL     OW44213   2.705  13.110   0.689
47439SOL    HW144214   2.768  13.133   0.620
47439SOL    HW244215   2.743  13.033   0.731
47440SOL     OW44216   5.024  14.474   0.627
47440SOL    HW144217   5.083  14.452   0.699
47440SOL    HW244218   5.070  14.540   0.576
47441SOL     OW44219   1.268  11.839   4.048
47441SOL    HW144220   1.226  11.754   4.033
47441SOL    HW244221   1.197  11.894   4.082
47442SOL     OW44222   8.682  14.388   6.883
47442SOL    HW144223   8.652  14.347   6.964
47442SOL    HW244224   8.617  14.363   6.817
47443SOL     OW44225   0.326  12.977   9.201
47443SOL    HW144226   0.231  12.978   9.213
47443SOL    HW244227   0.351  13.070   9.200
47444SOL     OW44228   4.741   9.465   6.483
47444SOL    HW144229   4.696   9.392   6.525
47444SOL    HW244230   4.820   9.426   6.445
47445SOL     OW44231   7.858  11.808   4.694
47445SOL    HW144232   7.808  11.888   4.712
47445SOL    HW244233   7.870  11.809   4.599
47446SOL     OW44234   8.382  10.249  13.555
47446SOL    HW144235   8.431  10.255  13.637
47446SOL    HW244236   8.291  10.263  13.581
47447SOL     OW44237  12.411   1.259   3.168
47447SOL    HW144238  12.397   1.246   3.074
47447SOL    HW244239  12.475   1.330   3.173
47448SOL     OW44240   1.429   6.180   7.511
47448SOL    HW144241   1.348   6.155   7.465
47448SOL    HW244242   1.439   6.273   7.492
47449SOL     OW44243   1.241   1.208   8.809
47449SOL    HW144244   1.328   1.224   8.771
47449SOL    HW244245   1.183   1.199   8.734
47450SOL     OW44246   2.834   6.943   1.241
47450SOL    HW144247   2.767   6.989   1.190
47450SOL    HW244248   2.842   6.858   1.199
47451SOL     OW44249  10.616   1.189  12.510
47451SOL    HW144250  10.676   1.156  12.577
47451SOL    HW244251  10.531   1.195  12.554
47452SOL     OW44252   3.957   9.001   7.917
47452SOL    HW144253   3.988   9.070   7.858
47452SOL    HW244254   4.028   8.988   7.979
47453SOL     OW44255  11.364   5.408   5.305
47453SOL    HW144256  11.296   5.454   5.354
47453SOL    HW244257  11.432   5.474   5.291
47454SOL     OW44258  13.383   5.524  13.282
47454SOL    HW144259  13.308   5.478  13.319
47454SOL    HW244260  13.456   5.503  13.340
47455SOL     OW44261   6.523   2.378   3.708
47455SOL    HW144262   6.550   2.456   3.659
47455SOL    HW244263   6.515   2.408   3.799
47456SOL     OW44264   7.158  10.512  13.648
47456SOL    HW144265   7.063  10.503  13.643
47456SOL    HW244266   7.192  10.462  13.574
47457SOL     OW44267   3.940  14.770   7.217
47457SOL    HW144268   3.867  14.829   7.200
47457SOL    HW244269   3.952  14.773   7.312
47458SOL     OW44270   1.823   5.873   7.675
47458SOL    HW144271   1.741   5.916   7.651
47458SOL    HW244272   1.813   5.852   7.768
47459SOL     OW44273   4.163   3.789   7.768
47459SOL    HW144274   4.224   3.783   7.694
47459SOL    HW244275   4.218   3.777   7.845
47460SOL     OW44276   7.729   6.642  14.307
47460SOL    HW144277   7.633   6.639  14.297
47460SOL    HW244278   7.757   6.710  14.245
47461SOL     OW44279   5.168  11.987   0.692
47461SOL    HW144280   5.086  11.978   0.644
47461SOL    HW244281   5.196  12.077   0.677
47462SOL     OW44282   6.211  12.773   8.551
47462SOL    HW144283   6.230  12.867   8.553
47462SOL    HW244284   6.210  12.751   8.458
47463SOL     OW44285   5.325  10.335   6.820
47463SOL    HW144286   5.241  10.298   6.845
47463SOL    HW244287   5.342  10.300   6.733
47464SOL     OW44288  12.152   9.808   8.649
47464SOL    HW144289  12.156   9.775   8.738
47464SOL    HW244290  12.204   9.746   8.598
47465SOL     OW44291  13.801   6.609  14.399
47465SOL    HW144292  13.835   6.692  14.366
47465SOL    HW244293  13.706   6.618  14.392
47466SOL     OW44294   1.273  14.350   7.232
47466SOL    HW144295   1.350  14.338   7.288
47466SOL    HW244296   1.281  14.282   7.166
47467SOL     OW44297  11.822  10.561   0.564
47467SOL    HW144298  11.903  10.613   0.566
47467SOL    HW244299  11.852  10.471   0.550
47468SOL     OW44300  14.486   9.613   6.631
47468SOL    HW144301  14.453   9.669   6.561
47468SOL    HW244302  14.408   9.577   6.673
47469SOL     OW44303   5.818   3.005   3.319
47469SOL    HW144304   5.799   2.946   3.245
47469SOL    HW244305   5.778   2.962   3.395
47470SOL     OW44306  10.235   4.273   7.391
47470SOL    HW144307  10.240   4.246   7.482
47470SOL    HW244308  10.315   4.323   7.376
47471SOL     OW44309   0.476   2.078   9.576
47471SOL    HW144310   0.570   2.089   9.559
47471SOL    HW244311   0.447   2.017   9.508
47472SOL     OW44312   5.624  13.687  12.064
47472SOL    HW144313   5.600  13.650  11.979
47472SOL    HW244314   5.676  13.619  12.107
47473SOL     OW44315  13.626  13.793   1.261
47473SOL    HW144316  13.698  13.742   1.224
47473SOL    HW244317  13.664  13.878   1.282
47474SOL     OW44318  10.919   6.753   7.534
47474SOL    HW144319  10.843   6.715   7.578
47474SOL    HW244320  10.904   6.848   7.537
47475SOL     OW44321  11.952  10.444   1.224
47475SOL    HW144322  12.006  10.516   1.192
47475SOL    HW244323  11.862  10.476   1.219
47476SOL     OW44324   0.686  12.195   1.107
47476SOL    HW144325   0.760  12.172   1.164
47476SOL    HW244326   0.716  12.273   1.061
47477SOL     OW44327   3.988   9.445   3.867
47477SOL    HW144328   3.934   9.368   3.850
47477SOL    HW244329   3.987   9.493   3.784
47478SOL     OW44330   2.888  10.864   1.131
47478SOL    HW144331   2.928  10.927   1.070
47478SOL    HW244332   2.960  10.839   1.189
47479SOL     OW44333   6.320   1.702   6.143
47479SOL    HW144334   6.263   1.672   6.214
47479SOL    HW244335   6.380   1.629   6.128
47480SOL     OW44336   7.419  13.696  10.939
47480SOL    HW144337   7.495  13.684  10.996
47480SOL    HW244338   7.350  13.642  10.979
47481SOL     OW44339   7.382   9.540  13.335
47481SOL    HW144340   7.342   9.454  13.349
47481SOL    HW244341   7.476   9.524  13.341
47482SOL     OW44342   1.686   3.611  13.493
47482SOL    HW144343   1.665   3.611  13.399
47482SOL    HW244344   1.672   3.702  13.520
47483SOL     OW44345   8.293   0.677  12.793
47483SOL    HW144346   8.386   0.656  12.802
47483SOL    HW244347   8.282   0.757  12.844
47484SOL     OW44348   9.801   6.571  10.230
47484SOL    HW144349   9.833   6.482  10.214
47484SOL    HW244350   9.737   6.586  10.160
47485SOL     OW44351   2.813   6.782  10.454
47485SOL    HW144352   2.717   6.779  10.460
47485SOL    HW244353   2.843   6.761  10.542
47486SOL     OW44354   0.295  12.696   0.191
47486SOL    HW144355   0.282  12.784   0.158
47486SOL    HW244356   0.390  12.686   0.198
47487SOL     OW44357   4.995   9.694   3.339
47487SOL    HW144358   4.947   9.750   3.279
47487SOL    HW244359   4.931   9.629   3.368
47488SOL     OW44360   7.567  11.707   6.023
47488SOL    HW144361   7.628  11.672   5.957
47488SOL    HW244362   7.575  11.802   6.014
47489SOL     OW44363  14.539  11.542  11.688
47489SOL    HW144364  14.551  11.451  11.714
47489SOL    HW244365  14.499  11.537  11.601
47490SOL     OW44366   2.061   1.335   5.288
47490SOL    HW144367   2.101   1.417   5.318
47490SOL    HW244368   1.968   1.346   5.307
47491SOL     OW44369   1.547   3.234  14.700
47491SOL    HW144370   1.573   3.249  14.610
47491SOL    HW244371   1.460   3.193  14.693
47492SOL     OW44372   5.253   3.095   2.655
47492SOL    HW144373   5.230   3.096   2.748
47492SOL    HW244374   5.345   3.120   2.652
47493SOL     OW44375  13.539   3.957   1.881
47493SOL    HW144376  13.472   3.904   1.924
47493SOL    HW244377  13.581   3.896   1.819
47494SOL     OW44378   3.633   3.646   3.230
47494SOL    HW144379   3.619   3.716   3.166
47494SOL    HW244380   3.546   3.629   3.267
47495SOL     OW44381   5.142  12.842  12.240
47495SOL    HW144382   5.129  12.818  12.149
47495SOL    HW244383   5.060  12.884  12.266
47496SOL     OW44384   3.603   6.290   0.978
47496SOL    HW144385   3.558   6.373   0.990
47496SOL    HW244386   3.630   6.265   1.067
47497SOL     OW44387  11.131   6.747   7.779
47497SOL    HW144388  11.207   6.723   7.726
47497SOL    HW244389  11.056   6.714   7.730
47498SOL     OW44390   0.913  11.787   1.218
47498SOL    HW144391   0.927  11.845   1.294
47498SOL    HW244392   0.818  11.786   1.205
47499SOL     OW44393   0.391   6.006   7.441
47499SOL    HW144394   0.440   6.034   7.363
47499SOL    HW244395   0.454   5.954   7.491
47500SOL     OW44396  11.085  13.508  10.918
47500SOL    HW144397  11.090  13.436  10.981
47500SOL    HW244398  10.992  13.525  10.908
47501SOL     OW44399   6.922  13.644  10.892
47501SOL    HW144400   6.923  13.549  10.885
47501SOL    HW244401   6.986  13.664  10.960
47502SOL     OW44402  10.777   1.637   7.113
47502SOL    HW144403  10.702   1.577   7.116
47502SOL    HW244404  10.810   1.628   7.023
47503SOL     OW44405   5.704   6.679  13.622
47503SOL    HW144406   5.775   6.742  13.606
47503SOL    HW244407   5.665   6.708  13.705
47504SOL     OW44408   6.998  13.627   9.098
47504SOL    HW144409   7.082  13.592   9.128
47504SOL    HW244410   6.953  13.654   9.179
47505SOL     OW44411   2.676   4.021   0.315
47505SOL    HW144412   2.665   4.107   0.274
47505SOL    HW244413   2.662   4.037   0.408
47506SOL     OW44414  12.298   4.782   8.219
47506SOL    HW144415  12.384   4.821   8.203
47506SOL    HW244416  12.317   4.707   8.276
47507SOL     OW44417   1.797  11.820   9.665
47507SOL    HW144418   1.720  11.771   9.694
47507SOL    HW244419   1.763  11.905   9.639
47508SOL     OW44420  13.863   5.085   4.254
47508SOL    HW144421  13.872   4.991   4.237
47508SOL    HW244422  13.881   5.127   4.170
47509SOL     OW44423   9.728   3.878  10.920
47509SOL    HW144424   9.680   3.958  10.944
47509SOL    HW244425   9.731   3.880  10.824
47510SOL     OW44426   9.392  11.819  13.200
47510SOL    HW144427   9.470  11.799  13.149
47510SOL    HW244428   9.423  11.825  13.290
47511SOL     OW44429   6.526  10.623  10.181
47511SOL    HW144430   6.519  10.718  10.190
47511SOL    HW244431   6.460  10.588  10.241
47512SOL     OW44432   2.998   0.857   7.915
47512SOL    HW144433   2.930   0.921   7.892
47512SOL    HW244434   3.077   0.890   7.873
47513SOL     OW44435   1.257  11.699   8.384
47513SOL    HW144436   1.179  11.653   8.354
47513SOL    HW244437   1.251  11.786   8.344
47514SOL     OW44438  12.806   1.994   4.084
47514SOL    HW144439  12.874   2.059   4.063
47514SOL    HW244440  12.734   2.016   4.024
47515SOL     OW44441   0.834   9.169   2.680
47515SOL    HW144442   0.758   9.111   2.678
47515SOL    HW244443   0.909   9.109   2.682
47516SOL     OW44444   6.648   4.252   5.178
47516SOL    HW144445   6.644   4.223   5.087
47516SOL    HW244446   6.609   4.180   5.228
47517SOL     OW44447   5.244   1.769   6.710
47517SOL    HW144448   5.225   1.678   6.736
47517SOL    HW244449   5.195   1.781   6.629
47518SOL     OW44450  13.290   9.851   2.190
47518SOL    HW144451  13.306   9.916   2.258
47518SOL    HW244452  13.374   9.805   2.181
47519SOL     OW44453  12.454  10.907   4.014
47519SOL    HW144454  12.483  10.818   4.033
47519SOL    HW244455  12.515  10.962   4.064
47520SOL     OW44456   3.931  13.201   5.411
47520SOL    HW144457   3.893  13.177   5.326
47520SOL    HW244458   3.885  13.146   5.474
47521SOL     OW44459  10.239   7.279  13.090
47521SOL    HW144460  10.179   7.208  13.069
47521SOL    HW244461  10.288   7.293  13.008
47522SOL     OW44462  10.118  13.296   4.668
47522SOL    HW144463  10.068  13.374   4.643
47522SOL    HW244464  10.198  13.330   4.708
47523SOL     OW44465   4.938   4.517  11.993
47523SOL    HW144466   4.931   4.545  11.902
47523SOL    HW244467   4.954   4.423  11.988
47524SOL     OW44468  12.296   0.963   9.513
47524SOL    HW144469  12.221   0.911   9.537
47524SOL    HW244470  12.367   0.932   9.569
47525SOL     OW44471  12.158   7.489  11.163
47525SOL    HW144472  12.213   7.545  11.108
47525SOL    HW244473  12.198   7.403  11.157
47526SOL     OW44474  12.745   9.053   6.814
47526SOL    HW144475  12.658   9.042   6.776
47526SOL    HW244476  12.750   9.145   6.837
47527SOL     OW44477  11.557   9.890   5.449
47527SOL    HW144478  11.629   9.858   5.395
47527SOL    HW244479  11.483   9.899   5.389
47528SOL     OW44480   2.420   1.063   6.849
47528SOL    HW144481   2.367   0.983   6.849
47528SOL    HW244482   2.496   1.042   6.795
47529SOL     OW44483  14.367   5.879  12.523
47529SOL    HW144484  14.350   5.884  12.617
47529SOL    HW244485  14.294   5.926  12.483
47530SOL     OW44486   0.640   5.263   0.538
47530SOL    HW144487   0.545   5.256   0.544
47530SOL    HW244488   0.671   5.172   0.547
47531SOL     OW44489   3.380   3.013   2.096
47531SOL    HW144490   3.458   3.067   2.088
47531SOL    HW244491   3.339   3.016   2.010
47532SOL     OW44492  11.157   9.275   5.033
47532SOL    HW144493  11.222   9.287   5.102
47532SOL    HW244494  11.171   9.348   4.973
47533SOL     OW44495   2.631   2.386  10.017
47533SOL    HW144496   2.611   2.390   9.924
47533SOL    HW244497   2.723   2.358  10.020
47534SOL     OW44498   9.145   3.314  12.409
47534SOL    HW144499   9.182   3.233  12.376
47534SOL    HW244500   9.069   3.331  12.353
47535SOL     OW44501   7.271  11.618   0.330
47535SOL    HW144502   7.323  11.633   0.409
47535SOL    HW244503   7.198  11.563   0.359
47536SOL     OW44504   6.063   8.076   5.443
47536SOL    HW144505   6.079   8.161   5.483
47536SOL    HW244506   6.033   8.020   5.515
47537SOL     OW44507   3.410   1.145   9.483
47537SOL    HW144508   3.332   1.200   9.490
47537SOL    HW244509   3.417   1.125   9.390
47538SOL     OW44510   3.208  13.913  13.634
47538SOL    HW144511   3.205  14.008  13.644
47538SOL    HW244512   3.250  13.882  13.714
47539SOL     OW44513   6.755   1.263   9.052
47539SOL    HW144514   6.811   1.186   9.060
47539SOL    HW244515   6.693   1.241   8.983
47540SOL     OW44516   1.488   0.785   5.608
47540SOL    HW144517   1.520   0.698   5.635
47540SOL    HW244518   1.451   0.822   5.688
47541SOL     OW44519   1.426   0.009   6.824
47541SOL    HW144520   1.373  14.844   6.764
47541SOL    HW244521   1.389   0.097   6.818
47542SOL     OW44522   8.513   7.895  10.373
47542SOL    HW144523   8.442   7.852  10.422
47542SOL    HW244524   8.557   7.950  10.437
47543SOL     OW44525  14.068   4.312   8.149
47543SOL    HW144526  14.142   4.332   8.206
47543SOL    HW244527  14.086   4.362   8.069
47544SOL     OW44528  14.845   0.440  10.549
47544SOL    HW144529  14.883   0.528  10.550
47544SOL    HW244530   0.029   0.384  10.577
47545SOL     OW44531   1.081   0.914  11.967
47545SOL    HW144532   1.091   0.837  12.023
47545SOL    HW244533   1.078   0.988  12.029
47546SOL     OW44534  12.609   7.972   6.072
47546SOL    HW144535  12.600   7.904   6.005
47546SOL    HW244536  12.703   7.989   6.077
47547SOL     OW44537   6.500   7.781  12.893
47547SOL    HW144538   6.416   7.805  12.854
47547SOL    HW244539   6.499   7.685  12.895
47548SOL     OW44540  14.451   3.658  13.632
47548SOL    HW144541  14.369   3.610  13.617
47548SOL    HW244542  14.438   3.702  13.716
47549SOL     OW44543   5.239   6.734   9.945
47549SOL    HW144544   5.248   6.643   9.973
47549SOL    HW244545   5.304   6.781   9.997
47550SOL     OW44546  11.543   9.897  10.388
47550SOL    HW144547  11.472   9.949  10.351
47550SOL    HW244548  11.563   9.939  10.472
47551SOL     OW44549  14.123   7.214   3.250
47551SOL    HW144550  14.170   7.203   3.333
47551SOL    HW244551  14.191   7.213   3.183
47552SOL     OW44552  12.500  11.094  14.256
47552SOL    HW144553  12.487  11.175  14.206
47552SOL    HW244554  12.520  11.124  14.345
47553SOL     OW44555  12.346  13.957   2.445
47553SOL    HW144556  12.435  13.937   2.417
47553SOL    HW244557  12.314  13.876   2.484
47554SOL     OW44558   7.265   9.057   1.112
47554SOL    HW144559   7.247   9.076   1.204
47554SOL    HW244560   7.245   8.964   1.102
47555SOL     OW44561   9.809  10.094   3.894
47555SOL    HW144562   9.840  10.098   3.804
47555SOL    HW244563   9.730  10.148   3.894
47556SOL     OW44564   4.844  13.004  13.781
47556SOL    HW144565   4.923  12.979  13.733
47556SOL    HW244566   4.855  12.964  13.868
47557SOL     OW44567   4.823   1.131  14.758
47557SOL    HW144568   4.732   1.136  14.729
47557SOL    HW244569   4.843   1.038  14.757
47558SOL     OW44570   4.033   1.527   8.445
47558SOL    HW144571   3.991   1.487   8.369
47558SOL    HW244572   4.005   1.618   8.444
47559SOL     OW44573  13.964   6.755  13.857
47559SOL    HW144574  13.989   6.767  13.766
47559SOL    HW244575  13.938   6.843  13.886
47560SOL     OW44576  10.366   0.736   1.406
47560SOL    HW144577  10.445   0.686   1.383
47560SOL    HW244578  10.335   0.772   1.323
47561SOL     OW44579  12.094  10.822   4.030
47561SOL    HW144580  12.146  10.786   4.102
47561SOL    HW244581  12.116  10.767   3.955
47562SOL     OW44582   7.174   0.809   6.459
47562SOL    HW144583   7.251   0.776   6.414
47562SOL    HW244584   7.163   0.751   6.534
47563SOL     OW44585   0.896   3.683   8.046
47563SOL    HW144586   0.845   3.757   8.078
47563SOL    HW244587   0.841   3.642   7.980
47564SOL     OW44588   9.494   3.631  12.668
47564SOL    HW144589   9.445   3.557  12.633
47564SOL    HW244590   9.427   3.693  12.698
47565SOL     OW44591  10.892   6.804   5.572
47565SOL    HW144592  10.830   6.811   5.644
47565SOL    HW244593  10.844   6.837   5.496
47566SOL     OW44594   1.451  10.325   6.553
47566SOL    HW144595   1.539  10.311   6.588
47566SOL    HW244596   1.458  10.407   6.503
47567SOL     OW44597   0.277  11.046   5.322
47567SOL    HW144598   0.258  10.962   5.363
47567SOL    HW244599   0.347  11.083   5.376
47568SOL     OW44600   2.806  11.069   3.196
47568SOL    HW144601   2.773  11.154   3.225
47568SOL    HW244602   2.895  11.065   3.229
47569SOL     OW44603   5.432   5.364   0.468
47569SOL    HW144604   5.343   5.350   0.436
47569SOL    HW244605   5.434   5.319   0.553
47570SOL     OW44606   7.679  11.937   1.731
47570SOL    HW144607   7.732  11.896   1.799
47570SOL    HW244608   7.664  12.026   1.763
47571SOL     OW44609  11.375   5.535  11.298
47571SOL    HW144610  11.397   5.534  11.391
47571SOL    HW244611  11.392   5.446  11.268
47572SOL     OW44612  12.961   3.835   9.191
47572SOL    HW144613  12.870   3.863   9.187
47572SOL    HW244614  12.977   3.791   9.107
47573SOL     OW44615   7.160   4.237   9.255
47573SOL    HW144616   7.086   4.242   9.315
47573SOL    HW244617   7.121   4.228   9.169
47574SOL     OW44618   6.011   8.975   8.628
47574SOL    HW144619   5.963   9.058   8.628
47574SOL    HW244620   5.942   8.908   8.634
47575SOL     OW44621   3.903  10.992   8.782
47575SOL    HW144622   3.822  10.994   8.731
47575SOL    HW244623   3.967  10.950   8.724
47576SOL     OW44624  13.135   1.043  14.507
47576SOL    HW144625  13.047   1.029  14.472
47576SOL    HW244626  13.122   1.066  14.599
47577SOL     OW44627   4.939  11.066  14.237
47577SOL    HW144628   4.895  10.984  14.259
47577SOL    HW244629   5.032  11.050  14.257
47578SOL     OW44630   3.787   5.597   2.693
47578SOL    HW144631   3.824   5.536   2.758
47578SOL    HW244632   3.767   5.675   2.744
47579SOL     OW44633   4.887   3.060   1.876
47579SOL    HW144634   4.824   3.131   1.862
47579SOL    HW244635   4.945   3.093   1.945
47580SOL     OW44636   8.265   0.860  14.525
47580SOL    HW144637   8.177   0.896  14.516
47580SOL    HW244638   8.291   0.883  14.615
47581SOL     OW44639   3.047   9.671   5.333
47581SOL    HW144640   3.010   9.635   5.414
47581SOL    HW244641   3.028   9.765   5.338
47582SOL     OW44642  11.366   4.647  14.543
47582SOL    HW144643  11.452   4.615  14.516
47582SOL    HW244644  11.309   4.572  14.536
47583SOL     OW44645   3.720   6.783   8.867
47583SOL    HW144646   3.722   6.794   8.772
47583SOL    HW244647   3.716   6.872   8.902
47584SOL     OW44648   9.451  11.969   3.266
47584SOL    HW144649   9.449  11.887   3.216
47584SOL    HW244650   9.359  11.988   3.284
47585SOL     OW44651   5.753   8.155   8.311
47585SOL    HW144652   5.804   8.117   8.382
47585SOL    HW244653   5.759   8.091   8.239
47586SOL     OW44654   2.770   7.265   5.304
47586SOL    HW144655   2.813   7.260   5.218
47586SOL    HW244656   2.826   7.323   5.355
47587SOL     OW44657   4.723  13.377   2.867
47587SOL    HW144658   4.718  13.373   2.963
47587SOL    HW244659   4.758  13.465   2.850
47588SOL     OW44660   6.793   1.830   5.264
47588SOL    HW144661   6.839   1.899   5.313
47588SOL    HW244662   6.701   1.857   5.264
47589SOL     OW44663   0.700   5.915   8.407
47589SOL    HW144664   0.765   5.925   8.476
47589SOL    HW244665   0.666   6.003   8.393
47590SOL     OW44666  10.468   3.769   4.489
47590SOL    HW144667  10.455   3.718   4.570
47590SOL    HW244668  10.408   3.843   4.498
47591SOL     OW44669  10.698  14.883   5.811
47591SOL    HW144670  10.756  14.822   5.765
47591SOL    HW244671  10.753   0.073   5.825
47592SOL     OW44672   7.664  10.698  14.603
47592SOL    HW144673   7.694  10.732  14.687
47592SOL    HW244674   7.594  10.636  14.626
47593SOL     OW44675   3.958  12.381   8.305
47593SOL    HW144676   3.968  12.296   8.347
47593SOL    HW244677   4.029  12.434   8.343
47594SOL     OW44678  13.140   3.263   2.890
47594SOL    HW144679  13.056   3.289   2.851
47594SOL    HW244680  13.184   3.214   2.820
47595SOL     OW44681   7.726   4.663  14.060
47595SOL    HW144682   7.631   4.660  14.054
47595SOL    HW244683   7.745   4.647  14.152
47596SOL     OW44684   8.836   4.013   1.082
47596SOL    HW144685   8.846   3.986   0.991
47596SOL    HW244686   8.755   3.970   1.111
47597SOL     OW44687   5.671   2.694  10.912
47597SOL    HW144688   5.692   2.691  10.819
47597SOL    HW244689   5.592   2.749  10.917
47598SOL     OW44690   4.335   4.979   5.694
47598SOL    HW144691   4.389   5.004   5.619
47598SOL    HW244692   4.248   5.015   5.675
47599SOL     OW44693   1.030  12.009  10.764
47599SOL    HW144694   1.116  12.002  10.805
47599SOL    HW244695   1.042  11.968  10.678
47600SOL     OW44696   5.726  12.217  13.859
47600SOL    HW144697   5.761  12.306  13.848
47600SOL    HW244698   5.641  12.230  13.901
47601SOL     OW44699   7.372   0.179   5.623
47601SOL    HW144700   7.283   0.176   5.587
47601SOL    HW244701   7.389   0.272   5.637
47602SOL     OW44702  14.485   7.381  10.877
47602SOL    HW144703  14.572   7.374  10.916
47602SOL    HW244704  14.469   7.295  10.837
47603SOL     OW44705  14.484  12.089   2.711
47603SOL    HW144706  14.399  12.091   2.754
47603SOL    HW244707  14.545  12.121   2.777
47604SOL     OW44708  14.128   6.629   4.096
47604SOL    HW144709  14.078   6.570   4.039
47604SOL    HW244710  14.079   6.631   4.178
47605SOL     OW44711   7.137   0.513   8.307
47605SOL    HW144712   7.071   0.553   8.364
47605SOL    HW244713   7.150   0.578   8.237
47606SOL     OW44714  13.878  12.132  11.734
47606SOL    HW144715  13.813  12.165  11.672
47606SOL    HW244716  13.946  12.093  11.679
47607SOL     OW44717  13.815   8.655  11.206
47607SOL    HW144718  13.882   8.589  11.224
47607SOL    HW244719  13.841   8.731  11.259
47608SOL     OW44720   7.779   4.927   0.300
47608SOL    HW144721   7.822   4.959   0.221
47608SOL    HW244722   7.846   4.878   0.347
47609SOL     OW44723   9.065  12.762   7.104
47609SOL    HW144724   9.020  12.734   7.025
47609SOL    HW244725   9.158  12.755   7.083
47610SOL     OW44726  14.017   5.585   5.425
47610SOL    HW144727  14.098   5.630   5.449
47610SOL    HW244728  13.981   5.554   5.508
47611SOL     OW44729  11.101   1.914   2.548
47611SOL    HW144730  11.151   1.923   2.629
47611SOL    HW244731  11.026   1.860   2.572
47612SOL     OW44732   2.139  12.741   0.453
47612SOL    HW144733   2.112  12.791   0.530
47612SOL    HW244734   2.087  12.777   0.381
47613SOL     OW44735   1.905   5.369   3.802
47613SOL    HW144736   1.933   5.365   3.710
47613SOL    HW244737   1.814   5.340   3.801
47614SOL     OW44738   3.403  12.798   6.297
47614SOL    HW144739   3.345  12.817   6.224
47614SOL    HW244740   3.479  12.855   6.284
47615SOL     OW44741   6.939  13.787   1.355
47615SOL    HW144742   6.875  13.716   1.345
47615SOL    HW244743   6.888  13.859   1.392
47616SOL     OW44744   1.607   7.246   4.207
47616SOL    HW144745   1.672   7.258   4.276
47616SOL    HW244746   1.554   7.326   4.210
47617SOL     OW44747   3.379   6.222   5.508
47617SOL    HW144748   3.284   6.213   5.498
47617SOL    HW244749   3.401   6.160   5.577
47618SOL     OW44750  10.886   0.362   2.480
47618SOL    HW144751  10.979   0.342   2.471
47618SOL    HW244752  10.854   0.298   2.544
47619SOL     OW44753  14.044   8.022   7.908
47619SOL    HW144754  14.032   7.995   7.999
47619SOL    HW244755  14.000   8.107   7.903
47620SOL     OW44756   0.463   4.317   3.532
47620SOL    HW144757   0.413   4.275   3.462
47620SOL    HW244758   0.531   4.366   3.486
47621SOL     OW44759  10.315  10.195  14.872
47621SOL    HW144760  10.225  10.168   0.000
47621SOL    HW244761  10.308  10.274  14.820
47622SOL     OW44762  12.654  13.488  11.277
47622SOL    HW144763  12.567  13.462  11.308
47622SOL    HW244764  12.638  13.564  11.222
47623SOL     OW44765  12.871   5.511   1.520
47623SOL    HW144766  12.847   5.450   1.450
47623SOL    HW244767  12.944   5.468   1.565
47624SOL     OW44768  13.037  12.784   4.755
47624SOL    HW144769  13.017  12.877   4.761
47624SOL    HW244770  12.968  12.741   4.806
47625SOL     OW44771   0.652   8.835   3.937
47625SOL    HW144772   0.620   8.916   3.899
47625SOL    HW244773   0.697   8.791   3.865
47626SOL     OW44774  13.798   8.460   6.409
47626SOL    HW144775  13.731   8.525   6.429
47626SOL    HW244776  13.879   8.510   6.402
47627SOL     OW44777  13.740  10.072   7.645
47627SOL    HW144778  13.777  10.160   7.645
47627SOL    HW244779  13.816  10.015   7.628
47628SOL     OW44780  11.284  10.599   2.164
47628SOL    HW144781  11.341  10.583   2.090
47628SOL    HW244782  11.265  10.693   2.161
47629SOL     OW44783   2.145   9.149   8.717
47629SOL    HW144784   2.151   9.184   8.806
47629SOL    HW244785   2.114   9.059   8.729
47630SOL     OW44786   9.172  13.141   9.643
47630SOL    HW144787   9.138  13.171   9.727
47630SOL    HW244788   9.219  13.060   9.663
47631SOL     OW44789  12.919   0.525   0.046
47631SOL    HW144790  12.881   0.446   0.007
47631SOL    HW244791  13.013   0.506   0.052
47632SOL     OW44792   7.830   4.969   3.883
47632SOL    HW144793   7.786   5.032   3.940
47632SOL    HW244794   7.770   4.895   3.878
47633SOL     OW44795   7.127   2.646   6.912
47633SOL    HW144796   7.057   2.599   6.866
47633SOL    HW244797   7.124   2.612   7.001
47634SOL     OW44798   6.729   0.634  11.540
47634SOL    HW144799   6.693   0.549  11.514
47634SOL    HW244800   6.802   0.648  11.480
47635SOL     OW44801  12.959   3.727   6.505
47635SOL    HW144802  12.878   3.689   6.537
47635SOL    HW244803  13.027   3.666   6.534
47636SOL     OW44804   0.623   5.481  11.013
47636SOL    HW144805   0.626   5.396  10.969
47636SOL    HW244806   0.699   5.528  10.980
47637SOL     OW44807  10.296   5.022   2.127
47637SOL    HW144808  10.367   5.040   2.066
47637SOL    HW244809  10.293   5.099   2.184
47638SOL     OW44810  12.922   1.124   8.680
47638SOL    HW144811  12.860   1.191   8.653
47638SOL    HW244812  12.894   1.045   8.636
47639SOL     OW44813   0.764   5.072  14.574
47639SOL    HW144814   0.761   5.000  14.637
47639SOL    HW244815   0.814   5.141  14.618
47640SOL     OW44816  10.569  11.484  10.648
47640SOL    HW144817  10.541  11.553  10.708
47640SOL    HW244818  10.488  11.441  10.621
47641SOL     OW44819   3.244   2.081   6.728
47641SOL    HW144820   3.251   2.152   6.792
47641SOL    HW244821   3.290   2.007   6.768
47642SOL     OW44822   4.567  11.428   7.385
47642SOL    HW144823   4.561  11.357   7.322
47642SOL    HW244824   4.491  11.415   7.442
47643SOL     OW44825   9.001   2.552   2.114
47643SOL    HW144826   9.038   2.632   2.076
47643SOL    HW244827   8.907   2.559   2.097
47644SOL     OW44828   9.306  10.366  12.793
47644SOL    HW144829   9.294  10.333  12.882
47644SOL    HW244830   9.234  10.428  12.780
47645SOL     OW44831  14.061   2.041   2.614
47645SOL    HW144832  13.994   1.988   2.657
47645SOL    HW244833  14.031   2.131   2.626
47646SOL     OW44834  14.202   4.302  13.055
47646SOL    HW144835  14.107   4.308  13.069
47646SOL    HW244836  14.234   4.391  13.065
47647SOL     OW44837   7.928   6.614   2.796
47647SOL    HW144838   7.957   6.625   2.886
47647SOL    HW244839   7.849   6.561   2.802
47648SOL     OW44840   7.252   3.137   2.897
47648SOL    HW144841   7.172   3.112   2.851
47648SOL    HW244842   7.320   3.080   2.860
47649SOL     OW44843   0.260   0.985  13.430
47649SOL    HW144844   0.294   1.035  13.355
47649SOL    HW244845   0.251   0.896  13.397
47650SOL     OW44846  12.936   7.270   4.058
47650SOL    HW144847  12.958   7.325   3.983
47650SOL    HW244848  12.842   7.280   4.070
47651SOL     OW44849   0.929  13.923   2.513
47651SOL    HW144850   1.016  13.891   2.488
47651SOL    HW244851   0.925  14.012   2.478
47652SOL     OW44852   8.650  10.730   7.274
47652SOL    HW144853   8.636  10.672   7.199
47652SOL    HW244854   8.565  10.731   7.319
47653SOL     OW44855  13.445   4.022   0.943
47653SOL    HW144856  13.468   4.059   1.028
47653SOL    HW244857  13.482   4.083   0.879
47654SOL     OW44858  12.448  12.044   2.023
47654SOL    HW144859  12.406  12.038   2.108
47654SOL    HW244860  12.541  12.057   2.042
47655SOL     OW44861  13.223  10.379   2.909
47655SOL    HW144862  13.165  10.438   2.862
47655SOL    HW244863  13.306  10.383   2.862
47656SOL     OW44864  13.853   6.313   9.159
47656SOL    HW144865  13.775   6.298   9.104
47656SOL    HW244866  13.922   6.335   9.097
47657SOL     OW44867   9.681   7.373   4.453
47657SOL    HW144868   9.661   7.447   4.511
47657SOL    HW244869   9.733   7.313   4.506
47658SOL     OW44870   0.684   6.016   5.039
47658SOL    HW144871   0.709   6.105   5.066
47658SOL    HW244872   0.617   6.029   4.972
47659SOL     OW44873   9.194   3.469   8.001
47659SOL    HW144874   9.148   3.405   8.055
47659SOL    HW244875   9.146   3.471   7.918
47660SOL     OW44876   1.598   7.656   4.538
47660SOL    HW144877   1.679   7.659   4.590
47660SOL    HW244878   1.546   7.587   4.581
47661SOL     OW44879  14.859  12.966   6.162
47661SOL    HW144880   0.026  12.992   6.088
47661SOL    HW244881   0.006  12.880   6.188
47662SOL     OW44882  12.140   2.463  14.881
47662SOL    HW144883  12.150   2.367  14.874
47662SOL    HW244884  12.218   2.491   0.042
47663SOL     OW44885  12.113  13.956   2.238
47663SOL    HW144886  12.195  14.000   2.258
47663SOL    HW244887  12.059  14.023   2.195
47664SOL     OW44888   8.259   5.061   0.883
47664SOL    HW144889   8.292   5.005   0.953
47664SOL    HW244890   8.246   5.146   0.925
47665SOL     OW44891  13.130  10.643   6.986
47665SOL    HW144892  13.129  10.548   6.988
47665SOL    HW244893  13.197  10.669   7.049
47666SOL     OW44894   2.757  10.799   8.990
47666SOL    HW144895   2.827  10.854   8.953
47666SOL    HW244896   2.801  10.718   9.014
47667SOL     OW44897   3.749   2.573  11.265
47667SOL    HW144898   3.655   2.590  11.272
47667SOL    HW244899   3.775   2.613  11.183
47668SOL     OW44900   9.143   3.159  13.350
47668SOL    HW144901   9.176   3.248  13.351
47668SOL    HW244902   9.048   3.168  13.364
47669SOL     OW44903   0.212   4.081   2.159
47669SOL    HW144904   0.246   4.171   2.158
47669SOL    HW244905   0.118   4.091   2.175
47670SOL     OW44906   8.204  12.008   5.233
47670SOL    HW144907   8.110  11.995   5.229
47670SOL    HW244908   8.240  11.944   5.171
47671SOL     OW44909  10.540  10.321  12.318
47671SOL    HW144910  10.460  10.269  12.315
47671SOL    HW244911  10.512  10.409  12.296
47672SOL     OW44912   1.198   6.816  14.598
47672SOL    HW144913   1.269   6.768  14.555
47672SOL    HW244914   1.243   6.876  14.658
47673SOL     OW44915   4.567  14.489   9.271
47673SOL    HW144916   4.520  14.475   9.353
47673SOL    HW244917   4.515  14.554   9.224
47674SOL     OW44918   7.880  10.507   2.231
47674SOL    HW144919   7.925  10.437   2.279
47674SOL    HW244920   7.931  10.586   2.251
47675SOL     OW44921   7.974   8.295  11.835
47675SOL    HW144922   8.042   8.245  11.789
47675SOL    HW244923   7.892   8.256  11.805
47676SOL     OW44924   4.887  12.776   0.875
47676SOL    HW144925   4.918  12.865   0.858
47676SOL    HW244926   4.916  12.758   0.965
47677SOL     OW44927   6.452   0.625   8.358
47677SOL    HW144928   6.424   0.589   8.442
47677SOL    HW244929   6.488   0.711   8.380
47678SOL     OW44930   2.211   9.652   1.145
47678SOL    HW144931   2.159   9.683   1.071
47678SOL    HW244932   2.205   9.556   1.139
47679SOL     OW44933   9.355   2.883   6.425
47679SOL    HW144934   9.344   2.961   6.480
47679SOL    HW244935   9.305   2.815   6.470
47680SOL     OW44936  14.399   1.103   4.992
47680SOL    HW144937  14.360   1.175   5.042
47680SOL    HW244938  14.429   1.144   4.911
47681SOL     OW44939  10.737   5.945   4.805
47681SOL    HW144940  10.668   5.878   4.812
47681SOL    HW244941  10.819   5.897   4.817
47682SOL     OW44942   6.712  11.386  12.715
47682SOL    HW144943   6.745  11.297  12.710
47682SOL    HW244944   6.655  11.395  12.639
47683SOL     OW44945   8.356  13.783   8.610
47683SOL    HW144946   8.375  13.723   8.537
47683SOL    HW244947   8.261  13.789   8.611
47684SOL     OW44948   5.161  12.494   4.261
47684SOL    HW144949   5.255  12.498   4.248
47684SOL    HW244950   5.135  12.408   4.229
47685SOL     OW44951   3.553   5.059  13.783
47685SOL    HW144952   3.492   5.029  13.715
47685SOL    HW244953   3.562   5.153  13.767
47686SOL     OW44954  11.051   3.078   4.764
47686SOL    HW144955  11.104   3.012   4.807
47686SOL    HW244956  11.092   3.161   4.788
47687SOL     OW44957  12.391   5.054   2.225
47687SOL    HW144958  12.415   5.116   2.294
47687SOL    HW244959  12.342   4.986   2.270
47688SOL     OW44960   6.026  10.399  13.779
47688SOL    HW144961   5.934  10.398  13.804
47688SOL    HW244962   6.025  10.392  13.684
47689SOL     OW44963   9.035   7.883   3.300
47689SOL    HW144964   9.044   7.800   3.253
47689SOL    HW244965   9.012   7.857   3.389
47690SOL     OW44966  11.253   8.986   5.176
47690SOL    HW144967  11.235   8.959   5.266
47690SOL    HW244968  11.168   9.013   5.142
47691SOL     OW44969   8.906  11.291  12.853
47691SOL    HW144970   8.944  11.283  12.765
47691SOL    HW244971   8.904  11.201  12.886
47692SOL     OW44972   3.034   4.260   8.604
47692SOL    HW144973   3.121   4.271   8.642
47692SOL    HW244974   3.027   4.329   8.538
47693SOL     OW44975  10.008  11.849   2.646
47693SOL    HW144976  10.056  11.836   2.729
47693SOL    HW244977   9.916  11.848   2.672
47694SOL     OW44978   3.373   8.725  11.731
47694SOL    HW144979   3.328   8.655  11.777
47694SOL    HW244980   3.349   8.805  11.778
47695SOL     OW44981   2.909   0.560   5.955
47695SOL    HW144982   2.837   0.609   5.994
47695SOL    HW244983   2.958   0.625   5.905
47696SOL     OW44984   5.561   3.703   0.475
47696SOL    HW144985   5.467   3.690   0.472
47696SOL    HW244986   5.580   3.724   0.567
47697SOL     OW44987  11.392   6.305  13.441
47697SOL    HW144988  11.408   6.398  13.432
47697SOL    HW244989  11.297   6.296  13.430
47698SOL     OW44990   8.951   7.122   4.510
47698SOL    HW144991   8.958   7.063   4.436
47698SOL    HW244992   8.917   7.068   4.581
47699SOL     OW44993   9.050   4.166   2.217
47699SOL    HW144994   9.145   4.152   2.212
47699SOL    HW244995   9.013   4.098   2.161
47700SOL     OW44996   0.984  14.173   9.564
47700SOL    HW144997   0.997  14.230   9.488
47700SOL    HW244998   0.915  14.113   9.537
47701SOL     OW44999   8.105   4.830   6.633
47701SOL    HW145000   8.120   4.900   6.697
47701SOL    HW245001   8.025   4.787   6.663
47702SOL     OW45002   5.986   8.810   7.727
47702SOL    HW145003   6.046   8.735   7.727
47702SOL    HW245004   5.944   8.807   7.641
47703SOL     OW45005   3.843   7.103   1.802
47703SOL    HW145006   3.915   7.061   1.755
47703SOL    HW245007   3.820   7.040   1.871
47704SOL     OW45008   9.169   6.387   1.524
47704SOL    HW145009   9.261   6.406   1.545
47704SOL    HW245010   9.171   6.302   1.480
47705SOL     OW45011  13.553  11.900  14.279
47705SOL    HW145012  13.599  11.874  14.359
47705SOL    HW245013  13.511  11.820  14.248
47706SOL     OW45014   4.645   2.164   8.044
47706SOL    HW145015   4.673   2.123   8.126
47706SOL    HW245016   4.570   2.112   8.015
47707SOL     OW45017   9.521  11.895   1.127
47707SOL    HW145018   9.537  11.908   1.034
47707SOL    HW245019   9.523  11.801   1.140
47708SOL     OW45020   8.582   8.851   0.354
47708SOL    HW145021   8.559   8.907   0.429
47708SOL    HW245022   8.604   8.767   0.394
47709SOL     OW45023  11.747  13.601   7.788
47709SOL    HW145024  11.668  13.645   7.758
47709SOL    HW245025  11.818  13.642   7.738
47710SOL     OW45026  11.951  14.623   1.685
47710SOL    HW145027  11.954  14.717   1.667
47710SOL    HW245028  12.033  14.590   1.650
47711SOL     OW45029   5.485   8.061  12.660
47711SOL    HW145030   5.472   8.155  12.645
47711SOL    HW245031   5.402   8.021  12.634
47712SOL     OW45032  12.874  14.077   2.189
47712SOL    HW145033  12.932  14.024   2.135
47712SOL    HW245034  12.829  14.134   2.127
47713SOL     OW45035   1.981   4.053  14.189
47713SOL    HW145036   2.058   4.098  14.154
47713SOL    HW245037   1.978   4.079  14.281
47714SOL     OW45038   1.594   9.700  12.095
47714SOL    HW145039   1.679   9.655  12.088
47714SOL    HW245040   1.616   9.789  12.123
47715SOL     OW45041   7.383   9.876   5.891
47715SOL    HW145042   7.342   9.938   5.831
47715SOL    HW245043   7.461   9.845   5.844
47716SOL     OW45044   3.780   6.341   6.482
47716SOL    HW145045   3.722   6.295   6.543
47716SOL    HW245046   3.722   6.400   6.434
47717SOL     OW45047   2.149   5.641   8.899
47717SOL    HW145048   2.183   5.612   8.984
47717SOL    HW245049   2.115   5.729   8.916
47718SOL     OW45050   0.717   8.677   1.080
47718SOL    HW145051   0.811   8.659   1.071
47718SOL    HW245052   0.701   8.672   1.174
47719SOL     OW45053   3.606  11.208   6.345
47719SOL    HW145054   3.525  11.167   6.315
47719SOL    HW245055   3.596  11.214   6.440
47720SOL     OW45056   8.716  14.732  14.236
47720SOL    HW145057   8.681  14.754  14.149
47720SOL    HW245058   8.810  14.746  14.228
47721SOL     OW45059   3.090   5.878   4.317
47721SOL    HW145060   3.013   5.933   4.335
47721SOL    HW245061   3.125   5.912   4.235
47722SOL     OW45062   1.202  10.801   6.141
47722SOL    HW145063   1.116  10.830   6.110
47722SOL    HW245064   1.214  10.847   6.224
47723SOL     OW45065  11.178   8.040   2.887
47723SOL    HW145066  11.248   7.975   2.881
47723SOL    HW245067  11.196   8.087   2.969
47724SOL     OW45068   6.785   1.963  11.922
47724SOL    HW145069   6.722   2.016  11.971
47724SOL    HW245070   6.740   1.879  11.909
47725SOL     OW45071   9.335   4.243   5.482
47725SOL    HW145072   9.352   4.318   5.539
47725SOL    HW245073   9.384   4.171   5.522
47726SOL     OW45074  12.415  14.429   5.633
47726SOL    HW145075  12.421  14.366   5.705
47726SOL    HW245076  12.322  14.431   5.611
47727SOL     OW45077   1.011   6.059   0.289
47727SOL    HW145078   1.007   6.155   0.283
47727SOL    HW245079   0.949   6.037   0.358
47728SOL     OW45080   0.111  12.436  11.770
47728SOL    HW145081   0.024  12.475  11.764
47728SOL    HW245082   0.096  12.342  11.761
47729SOL     OW45083  12.591  12.961   6.868
47729SOL    HW145084  12.671  12.950   6.919
47729SOL    HW245085  12.537  12.885   6.891
47730SOL     OW45086  12.303   2.019   1.563
47730SOL    HW145087  12.340   2.010   1.651
47730SOL    HW245088  12.320   2.110   1.539
47731SOL     OW45089   6.449   0.669  12.920
47731SOL    HW145090   6.442   0.602  12.853
47731SOL    HW245091   6.408   0.747  12.881
47732SOL     OW45092  12.963   4.133   7.164
47732SOL    HW145093  12.955   4.207   7.225
47732SOL    HW245094  12.935   4.169   7.080
47733SOL     OW45095  12.148  13.390  14.422
47733SOL    HW145096  12.123  13.431  14.339
47733SOL    HW245097  12.239  13.364  14.410
47734SOL     OW45098   4.203  14.615  11.390
47734SOL    HW145099   4.230  14.634  11.300
47734SOL    HW245100   4.155  14.694  11.417
47735SOL     OW45101  14.040  12.249   0.347
47735SOL    HW145102  14.076  12.243   0.436
47735SOL    HW245103  13.948  12.270   0.360
47736SOL     OW45104   0.379   8.127   1.338
47736SOL    HW145105   0.383   8.053   1.277
47736SOL    HW245106   0.359   8.202   1.281
47737SOL     OW45107   8.373   8.683   9.559
47737SOL    HW145108   8.332   8.680   9.646
47737SOL    HW245109   8.464   8.660   9.575
47738SOL     OW45110  14.063   8.553  11.227
47738SOL    HW145111  14.142   8.574  11.276
47738SOL    HW245112  14.078   8.586  11.139
47739SOL     OW45113   9.256   6.084  12.637
47739SOL    HW145114   9.178   6.029  12.633
47739SOL    HW245115   9.260   6.127  12.552
47740SOL     OW45116   6.218   0.374  11.485
47740SOL    HW145117   6.266   0.305  11.530
47740SOL    HW245118   6.285   0.419  11.432
47741SOL     OW45119   9.629   1.780   1.701
47741SOL    HW145120   9.638   1.685   1.711
47741SOL    HW245121   9.556   1.802   1.758
47742SOL     OW45122   6.663   6.850  11.648
47742SOL    HW145123   6.731   6.784  11.636
47742SOL    HW245124   6.705   6.920  11.698
47743SOL     OW45125   6.454   4.277   6.941
47743SOL    HW145126   6.372   4.264   6.989
47743SOL    HW245127   6.490   4.189   6.931
47744SOL     OW45128   5.250   5.012   7.889
47744SOL    HW145129   5.273   5.082   7.950
47744SOL    HW245130   5.322   4.949   7.896
47745SOL     OW45131   0.026   7.074  14.713
47745SOL    HW145132  14.866   7.024  14.780
47745SOL    HW245133  14.864   7.155  14.705
47746SOL     OW45134   5.438  10.723   6.873
47746SOL    HW145135   5.417  10.785   6.943
47746SOL    HW245136   5.461  10.642   6.919
47747SOL     OW45137   7.599   0.608  12.507
47747SOL    HW145138   7.505   0.594  12.501
47747SOL    HW245139   7.632   0.593  12.418
47748SOL     OW45140  12.230   0.219   6.108
47748SOL    HW145141  12.223   0.202   6.202
47748SOL    HW245142  12.178   0.150   6.067
47749SOL     OW45143   1.587   2.695   2.992
47749SOL    HW145144   1.551   2.742   2.917
47749SOL    HW245145   1.653   2.637   2.955
47750SOL     OW45146  14.162  11.396   1.835
47750SOL    HW145147  14.201  11.349   1.909
47750SOL    HW245148  14.197  11.351   1.758
47751SOL     OW45149  13.096   2.646  12.467
47751SOL    HW145150  13.181   2.685  12.488
47751SOL    HW245151  13.103   2.556  12.496
47752SOL     OW45152   7.858  10.248  13.697
47752SOL    HW145153   7.834  10.339  13.678
47752SOL    HW245154   7.940  10.255  13.745
47753SOL     OW45155   0.585   0.459  11.130
47753SOL    HW145156   0.564   0.370  11.102
47753SOL    HW245157   0.526   0.515  11.079
47754SOL     OW45158   6.846   4.333   5.432
47754SOL    HW145159   6.816   4.407   5.378
47754SOL    HW245160   6.926   4.303   5.389
47755SOL     OW45161   6.527  14.221   3.759
47755SOL    HW145162   6.492  14.134   3.738
47755SOL    HW245163   6.530  14.266   3.675
47756SOL     OW45164   6.993   2.232   7.995
47756SOL    HW145165   7.008   2.164   8.061
47756SOL    HW245166   6.933   2.191   7.933
47757SOL     OW45167   2.915   1.557   9.823
47757SOL    HW145168   2.990   1.591   9.775
47757SOL    HW245169   2.944   1.555   9.914
47758SOL     OW45170   4.864   7.678   4.124
47758SOL    HW145171   4.848   7.585   4.110
47758SOL    HW245172   4.959   7.685   4.134
47759SOL     OW45173  12.677  10.524   9.930
47759SOL    HW145174  12.770  10.531   9.908
47759SOL    HW245175  12.674  10.460  10.001
47760SOL     OW45176  12.966  12.838   9.593
47760SOL    HW145177  12.976  12.931   9.615
47760SOL    HW245178  13.056  12.805   9.590
47761SOL     OW45179   1.530   6.097   8.900
47761SOL    HW145180   1.576   6.118   8.819
47761SOL    HW245181   1.439   6.086   8.874
47762SOL     OW45182  10.624   7.267   1.054
47762SOL    HW145183  10.642   7.179   1.021
47762SOL    HW245184  10.622   7.258   1.149
47763SOL     OW45185   3.299   5.985   0.467
47763SOL    HW145186   3.258   5.898   0.462
47763SOL    HW245187   3.343   5.995   0.383
47764SOL     OW45188   2.618  14.145   0.549
47764SOL    HW145189   2.621  14.213   0.482
47764SOL    HW245190   2.659  14.069   0.508
47765SOL     OW45191  12.833   4.674  14.846
47765SOL    HW145192  12.839   4.579  14.838
47765SOL    HW245193  12.740   4.691  14.864
47766SOL     OW45194  13.501   1.844   6.660
47766SOL    HW145195  13.507   1.860   6.566
47766SOL    HW245196  13.571   1.781   6.678
47767SOL     OW45197   5.845   5.308  12.363
47767SOL    HW145198   5.784   5.382  12.364
47767SOL    HW245199   5.836   5.271  12.275
47768SOL     OW45200  10.778  12.323   4.092
47768SOL    HW145201  10.833  12.305   4.016
47768SOL    HW245202  10.709  12.257   4.088
47769SOL     OW45203  10.153  13.559   3.629
47769SOL    HW145204  10.067  13.561   3.670
47769SOL    HW245205  10.211  13.524   3.696
47770SOL     OW45206  13.453  10.592  14.295
47770SOL    HW145207  13.360  10.608  14.280
47770SOL    HW245208  13.470  10.509  14.250
47771SOL     OW45209  14.680  12.347   3.549
47771SOL    HW145210  14.668  12.334   3.643
47771SOL    HW245211  14.674  12.442   3.536
47772SOL     OW45212  12.310   3.066   1.852
47772SOL    HW145213  12.361   2.986   1.864
47772SOL    HW245214  12.222   3.035   1.827
47773SOL     OW45215   5.909  14.835   2.127
47773SOL    HW145216   5.989  14.819   2.178
47773SOL    HW245217   5.940  14.869   2.043
47774SOL     OW45218   0.090  11.305   5.971
47774SOL    HW145219   0.007  11.346   5.944
47774SOL    HW245220   0.133  11.283   5.888
47775SOL     OW45221   7.187   1.591   6.868
47775SOL    HW145222   7.209   1.581   6.775
47775SOL    HW245223   7.110   1.648   6.868
47776SOL     OW45224   2.481   1.091  13.053
47776SOL    HW145225   2.452   1.174  13.016
47776SOL    HW245226   2.488   1.107  13.147
47777SOL     OW45227  11.569  10.769  13.437
47777SOL    HW145228  11.519  10.833  13.386
47777SOL    HW245229  11.577  10.693  13.380
47778SOL     OW45230   0.717   1.062   8.887
47778SOL    HW145231   0.731   1.106   8.970
47778SOL    HW245232   0.716   1.132   8.822
47779SOL     OW45233   8.630  12.155   4.732
47779SOL    HW145234   8.589  12.102   4.800
47779SOL    HW245235   8.561  12.216   4.706
47780SOL     OW45236   5.068   1.498   8.367
47780SOL    HW145237   5.062   1.492   8.463
47780SOL    HW245238   5.059   1.592   8.349
47781SOL     OW45239   3.952   3.795   3.073
47781SOL    HW145240   4.002   3.866   3.112
47781SOL    HW245241   3.931   3.825   2.985
47782SOL     OW45242   5.801   8.514  11.115
47782SOL    HW145243   5.786   8.601  11.078
47782SOL    HW245244   5.713   8.478  11.126
47783SOL     OW45245  10.434  14.745   5.187
47783SOL    HW145246  10.365  14.786   5.135
47783SOL    HW245247  10.428  14.652   5.165
47784SOL     OW45248   0.358   4.807   2.839
47784SOL    HW145249   0.366   4.725   2.888
47784SOL    HW245250   0.447   4.843   2.837
47785SOL     OW45251   6.746  12.445   1.294
47785SOL    HW145252   6.659  12.474   1.320
47785SOL    HW245253   6.756  12.360   1.336
47786SOL     OW45254  13.274   7.274  10.797
47786SOL    HW145255  13.290   7.182  10.818
47786SOL    HW245256  13.238   7.311  10.877
47787SOL     OW45257   4.163   2.288   3.442
47787SOL    HW145258   4.092   2.256   3.386
47787SOL    HW245259   4.147   2.249   3.528
47788SOL     OW45260   7.175   9.657   6.840
47788SOL    HW145261   7.176   9.585   6.776
47788SOL    HW245262   7.180   9.613   6.925
47789SOL     OW45263   8.997   7.243   6.554
47789SOL    HW145264   8.929   7.200   6.607
47789SOL    HW245265   8.950   7.274   6.477
47790SOL     OW45266   9.189   2.510   9.816
47790SOL    HW145267   9.237   2.593   9.814
47790SOL    HW245268   9.140   2.510   9.734
47791SOL     OW45269   3.420   3.279   2.318
47791SOL    HW145270   3.388   3.345   2.257
47791SOL    HW245271   3.515   3.284   2.311
47792SOL     OW45272   8.070   7.612   9.074
47792SOL    HW145273   8.160   7.637   9.052
47792SOL    HW245274   8.026   7.694   9.093
47793SOL     OW45275   0.586   8.942   4.848
47793SOL    HW145276   0.656   8.972   4.789
47793SOL    HW245277   0.521   8.903   4.790
47794SOL     OW45278   3.783   8.880  14.091
47794SOL    HW145279   3.849   8.839  14.035
47794SOL    HW245280   3.810   8.971  14.097
47795SOL     OW45281  11.197   3.330   5.481
47795SOL    HW145282  11.166   3.343   5.571
47795SOL    HW245283  11.235   3.415   5.457
47796SOL     OW45284  11.143  13.182   9.990
47796SOL    HW145285  11.191  13.161  10.070
47796SOL    HW245286  11.148  13.277   9.984
47797SOL     OW45287  13.679  14.435   9.366
47797SOL    HW145288  13.729  14.489   9.305
47797SOL    HW245289  13.707  14.466   9.452
47798SOL     OW45290  11.420   2.664   5.233
47798SOL    HW145291  11.476   2.597   5.195
47798SOL    HW245292  11.433   2.657   5.327
47799SOL     OW45293  10.581  14.125   3.133
47799SOL    HW145294  10.616  14.096   3.048
47799SOL    HW245295  10.627  14.071   3.197
47800SOL     OW45296  13.153   9.699  10.842
47800SOL    HW145297  13.114   9.725  10.758
47800SOL    HW245298  13.190   9.780  10.877
47801SOL     OW45299   0.636   3.394  10.053
47801SOL    HW145300   0.589   3.400   9.971
47801SOL    HW245301   0.619   3.305  10.084
47802SOL     OW45302   3.348   5.137   4.040
47802SOL    HW145303   3.302   5.221   4.044
47802SOL    HW245304   3.351   5.108   4.131
47803SOL     OW45305   9.740   5.185  10.415
47803SOL    HW145306   9.748   5.171  10.510
47803SOL    HW245307   9.792   5.114  10.377
47804SOL     OW45308   4.343  10.016   0.947
47804SOL    HW145309   4.429   9.974   0.941
47804SOL    HW245310   4.297   9.987   0.868
47805SOL     OW45311   2.841   3.143   4.615
47805SOL    HW145312   2.811   3.122   4.703
47805SOL    HW245313   2.912   3.081   4.598
47806SOL     OW45314   6.561   7.758   0.207
47806SOL    HW145315   6.587   7.831   0.263
47806SOL    HW245316   6.622   7.688   0.229
47807SOL     OW45317   1.460   6.604   4.994
47807SOL    HW145318   1.478   6.539   5.062
47807SOL    HW245319   1.365   6.609   4.990
47808SOL     OW45320   2.445   9.517  14.300
47808SOL    HW145321   2.459   9.449  14.235
47808SOL    HW245322   2.371   9.486  14.352
47809SOL     OW45323  10.823   2.232   4.046
47809SOL    HW145324  10.780   2.250   4.129
47809SOL    HW245325  10.765   2.171   4.001
47810SOL     OW45326   2.283   9.389   7.809
47810SOL    HW145327   2.264   9.340   7.729
47810SOL    HW245328   2.369   9.358   7.837
47811SOL     OW45329   3.152   0.767   8.097
47811SOL    HW145330   3.086   0.809   8.042
47811SOL    HW245331   3.172   0.685   8.052
47812SOL     OW45332  11.717   0.595   6.163
47812SOL    HW145333  11.701   0.526   6.227
47812SOL    HW245334  11.767   0.551   6.093
47813SOL     OW45335  11.937  11.025   8.758
47813SOL    HW145336  11.852  10.994   8.787
47813SOL    HW245337  12.000  10.985   8.817
47814SOL     OW45338   8.446  13.104   2.728
47814SOL    HW145339   8.476  13.035   2.668
47814SOL    HW245340   8.527  13.138   2.767
47815SOL     OW45341   2.567  12.435   1.639
47815SOL    HW145342   2.492  12.453   1.696
47815SOL    HW245343   2.548  12.348   1.602
47816SOL     OW45344   7.032   6.427  11.760
47816SOL    HW145345   7.060   6.336  11.772
47816SOL    HW245346   6.939   6.427  11.785
47817SOL     OW45347   0.262  13.653  14.121
47817SOL    HW145348   0.217  13.728  14.161
47817SOL    HW245349   0.314  13.691  14.051
47818SOL     OW45350   4.299   3.680   5.117
47818SOL    HW145351   4.311   3.723   5.202
47818SOL    HW245352   4.327   3.745   5.053
47819SOL     OW45353   1.573  14.425   5.318
47819SOL    HW145354   1.533  14.507   5.291
47819SOL    HW245355   1.578  14.430   5.413
47820SOL     OW45356  12.784  13.285  10.829
47820SOL    HW145357  12.724  13.317  10.896
47820SOL    HW245358  12.791  13.357  10.766
47821SOL     OW45359   4.996   0.119   1.481
47821SOL    HW145360   4.939   0.157   1.548
47821SOL    HW245361   4.974   0.167   1.401
47822SOL     OW45362   1.750  11.666   9.319
47822SOL    HW145363   1.679  11.689   9.380
47822SOL    HW245364   1.726  11.710   9.237
47823SOL     OW45365   5.643  11.702  13.048
47823SOL    HW145366   5.710  11.635  13.066
47823SOL    HW245367   5.627  11.743  13.133
47824SOL     OW45368   1.406   1.819  13.259
47824SOL    HW145369   1.315   1.822  13.286
47824SOL    HW245370   1.451   1.771  13.329
47825SOL     OW45371   7.853   8.546  13.006
47825SOL    HW145372   7.891   8.610  12.947
47825SOL    HW245373   7.885   8.461  12.974
47826SOL     OW45374  11.050  14.449  10.792
47826SOL    HW145375  11.063  14.364  10.749
47826SOL    HW245376  10.980  14.491  10.741
47827SOL     OW45377   9.968   8.896   8.501
47827SOL    HW145378   9.957   8.950   8.580
47827SOL    HW245379   9.921   8.815   8.521
47828SOL     OW45380  14.099  13.923  14.203
47828SOL    HW145381  14.117  13.901  14.294
47828SOL    HW245382  14.062  14.011  14.206
47829SOL     OW45383   2.412  11.360   9.813
47829SOL    HW145384   2.491  11.379   9.862
47829SOL    HW245385   2.438  11.370   9.721
47830SOL     OW45386  13.002  13.350  14.749
47830SOL    HW145387  12.967  13.334  14.837
47830SOL    HW245388  13.090  13.386  14.765
47831SOL     OW45389   9.255   5.295   2.768
47831SOL    HW145390   9.226   5.384   2.788
47831SOL    HW245391   9.183   5.239   2.797
47832SOL     OW45392   5.228   5.396   7.151
47832SOL    HW145393   5.302   5.456   7.140
47832SOL    HW245394   5.215   5.357   7.065
47833SOL     OW45395   8.163  10.289  14.591
47833SOL    HW145396   8.134  10.318  14.504
47833SOL    HW245397   8.188  10.197  14.578
47834SOL     OW45398   8.536   6.903   9.048
47834SOL    HW145399   8.449   6.923   9.083
47834SOL    HW245400   8.522   6.890   8.954
47835SOL     OW45401  10.166   4.444   4.903
47835SOL    HW145402  10.098   4.494   4.857
47835SOL    HW245403  10.121   4.365   4.933
47836SOL     OW45404   7.924   8.603  14.775
47836SOL    HW145405   7.912   8.588  14.868
47836SOL    HW245406   7.870   8.536  14.732
47837SOL     OW45407   8.598   6.432   0.180
47837SOL    HW145408   8.548   6.354   0.157
47837SOL    HW245409   8.669   6.399   0.236
47838SOL     OW45410  14.088   6.580   9.053
47838SOL    HW145411  13.997   6.610   9.043
47838SOL    HW245412  14.140   6.660   9.058
47839SOL     OW45413  10.581  12.098   2.333
47839SOL    HW145414  10.614  12.008   2.326
47839SOL    HW245415  10.488  12.092   2.314
47840SOL     OW45416   3.066   0.776   0.802
47840SOL    HW145417   2.988   0.825   0.775
47840SOL    HW245418   3.117   0.838   0.854
47841SOL     OW45419  13.432   8.554   1.348
47841SOL    HW145420  13.415   8.484   1.285
47841SOL    HW245421  13.396   8.632   1.306
47842SOL     OW45422   0.806   7.997   0.474
47842SOL    HW145423   0.867   7.949   0.419
47842SOL    HW245424   0.726   8.005   0.422
47843SOL     OW45425  10.230  13.514  10.518
47843SOL    HW145426  10.150  13.466  10.499
47843SOL    HW245427  10.269  13.533  10.433
47844SOL     OW45428   9.587  11.611   7.311
47844SOL    HW145429   9.527  11.552   7.356
47844SOL    HW245430   9.609  11.565   7.229
47845SOL     OW45431  13.194   8.136   7.265
47845SOL    HW145432  13.237   8.201   7.210
47845SOL    HW245433  13.102   8.162   7.265
47846SOL     OW45434  11.437   3.389   2.981
47846SOL    HW145435  11.399   3.432   2.904
47846SOL    HW245436  11.470   3.461   3.035
47847SOL     OW45437   3.502   7.119  11.803
47847SOL    HW145438   3.524   7.170  11.881
47847SOL    HW245439   3.573   7.137  11.742
47848SOL     OW45440  10.371   4.215   3.931
47848SOL    HW145441  10.460   4.202   3.898
47848SOL    HW245442  10.322   4.139   3.898
47849SOL     OW45443  11.768  12.479   0.283
47849SOL    HW145444  11.750  12.572   0.274
47849SOL    HW245445  11.854  12.467   0.242
47850SOL     OW45446  10.669   0.019  12.890
47850SOL    HW145447  10.716   0.095  12.925
47850SOL    HW245448  10.583   0.052  12.867
47851SOL     OW45449  10.263   4.440   6.288
47851SOL    HW145450  10.217   4.456   6.206
47851SOL    HW245451  10.276   4.345   6.290
47852SOL     OW45452  11.696  11.670  14.576
47852SOL    HW145453  11.777  11.634  14.540
47852SOL    HW245454  11.627  11.633  14.520
47853SOL     OW45455   3.591   0.193   1.209
47853SOL    HW145456   3.649   0.260   1.174
47853SOL    HW245457   3.624   0.177   1.298
47854SOL     OW45458  14.225  13.489  12.271
47854SOL    HW145459  14.169  13.411  12.275
47854SOL    HW245460  14.209  13.535  12.353
47855SOL     OW45461  14.502  12.023   4.512
47855SOL    HW145462  14.536  12.101   4.555
47855SOL    HW245463  14.412  12.015   4.543
47856SOL     OW45464   6.169   1.090   8.628
47856SOL    HW145465   6.210   1.005   8.615
47856SOL    HW245466   6.080   1.070   8.657
47857SOL     OW45467  13.624   0.001   4.086
47857SOL    HW145468  13.671  14.885   4.003
47857SOL    HW245469  13.625   0.094   4.110
47858SOL     OW45470   7.557   3.666  14.586
47858SOL    HW145471   7.515   3.751  14.597
47858SOL    HW245472   7.649   3.686  14.569
47859SOL     OW45473   5.331  11.127   0.378
47859SOL    HW145474   5.319  11.201   0.438
47859SOL    HW245475   5.260  11.067   0.400
47860SOL     OW45476   4.283  11.948   7.681
47860SOL    HW145477   4.338  11.980   7.610
47860SOL    HW245478   4.274  11.854   7.664
47861SOL     OW45479  11.768   6.428  10.661
47861SOL    HW145480  11.775   6.387  10.747
47861SOL    HW245481  11.754   6.356  10.601
47862SOL     OW45482  13.469  10.775   5.840
47862SOL    HW145483  13.551  10.802   5.882
47862SOL    HW245484  13.413  10.747   5.913
47863SOL     OW45485   6.220  12.026   9.406
47863SOL    HW145486   6.288  12.029   9.339
47863SOL    HW245487   6.162  12.099   9.386
47864SOL     OW45488   2.196  14.415   6.392
47864SOL    HW145489   2.113  14.431   6.437
47864SOL    HW245490   2.246  14.496   6.404
47865SOL     OW45491  13.511   9.119   3.532
47865SOL    HW145492  13.478   9.106   3.621
47865SOL    HW245493  13.480   9.042   3.484
47866SOL     OW45494   6.974   1.637   6.034
47866SOL    HW145495   6.954   1.623   5.941
47866SOL    HW245496   7.058   1.593   6.047
47867SOL     OW45497   6.411   5.430   7.732
47867SOL    HW145498   6.399   5.503   7.791
47867SOL    HW245499   6.330   5.379   7.740
47868SOL     OW45500   7.019  12.542  10.485
47868SOL    HW145501   6.993  12.624  10.441
47868SOL    HW245502   6.952  12.479  10.460
47869SOL     OW45503   9.209   7.327  13.057
47869SOL    HW145504   9.191   7.420  13.064
47869SOL    HW245505   9.236   7.301  13.146
47870SOL     OW45506  12.635   3.669   3.864
47870SOL    HW145507  12.577   3.644   3.792
47870SOL    HW245508  12.663   3.758   3.842
47871SOL     OW45509  14.854  10.647   5.145
47871SOL    HW145510   0.032  10.649   5.074
47871SOL    HW245511  14.840  10.739   5.167
47872SOL     OW45512  12.922   1.422  10.861
47872SOL    HW145513  12.855   1.370  10.817
47872SOL    HW245514  12.968   1.467  10.790
47873SOL     OW45515   3.115   4.219   4.270
47873SOL    HW145516   3.110   4.166   4.190
47873SOL    HW245517   3.173   4.292   4.247
47874SOL     OW45518   9.343   9.461   9.600
47874SOL    HW145519   9.357   9.423   9.687
47874SOL    HW245520   9.368   9.392   9.539
47875SOL     OW45521   2.112   4.243   7.483
47875SOL    HW145522   2.066   4.160   7.469
47875SOL    HW245523   2.125   4.248   7.577
47876SOL     OW45524  11.062   9.696   1.864
47876SOL    HW145525  11.020   9.616   1.832
47876SOL    HW245526  11.078   9.678   1.957
47877SOL     OW45527   2.320  13.665   8.414
47877SOL    HW145528   2.338  13.615   8.493
47877SOL    HW245529   2.296  13.752   8.445
47878SOL     OW45530  11.699   5.604   5.398
47878SOL    HW145531  11.640   5.637   5.330
47878SOL    HW245532  11.783   5.592   5.354
47879SOL     OW45533  10.523  10.389  11.597
47879SOL    HW145534  10.507  10.480  11.620
47879SOL    HW245535  10.450  10.365  11.540
47880SOL     OW45536   4.615   1.416   7.030
47880SOL    HW145537   4.668   1.417   6.950
47880SOL    HW245538   4.654   1.348   7.084
47881SOL     OW45539   5.749   3.197   7.515
47881SOL    HW145540   5.838   3.210   7.548
47881SOL    HW245541   5.744   3.103   7.498
47882SOL     OW45542  12.905  12.476  10.985
47882SOL    HW145543  12.987  12.446  10.944
47882SOL    HW245544  12.917  12.570  10.995
47883SOL     OW45545   6.876  11.765   9.172
47883SOL    HW145546   6.959  11.807   9.149
47883SOL    HW245547   6.828  11.761   9.090
47884SOL     OW45548  12.152  13.601   7.778
47884SOL    HW145549  12.085  13.642   7.723
47884SOL    HW245550  12.170  13.666   7.845
47885SOL     OW45551   0.748  14.164   2.678
47885SOL    HW145552   0.750  14.235   2.614
47885SOL    HW245553   0.671  14.112   2.655
47886SOL     OW45554   4.945   0.226   4.587
47886SOL    HW145555   4.952   0.265   4.674
47886SOL    HW245556   4.859   0.254   4.555
47887SOL     OW45557   0.269   4.312   4.055
47887SOL    HW145558   0.187   4.280   4.016
47887SOL    HW245559   0.284   4.255   4.130
47888SOL     OW45560  12.774   2.306   1.073
47888SOL    HW145561  12.800   2.266   1.156
47888SOL    HW245562  12.802   2.398   1.081
47889SOL     OW45563  14.651   2.680   3.670
47889SOL    HW145564  14.598   2.615   3.716
47889SOL    HW245565  14.649   2.652   3.579
47890SOL     OW45566   9.975   4.555   1.085
47890SOL    HW145567   9.891   4.587   1.052
47890SOL    HW245568  10.028   4.633   1.096
47891SOL     OW45569   3.305   3.466  12.226
47891SOL    HW145570   3.221   3.422  12.218
47891SOL    HW245571   3.295   3.547  12.176
47892SOL     OW45572   2.665   8.376  14.227
47892SOL    HW145573   2.611   8.437  14.278
47892SOL    HW245574   2.617   8.363  14.146
47893SOL     OW45575   5.069   3.377   5.739
47893SOL    HW145576   4.978   3.346   5.736
47893SOL    HW245577   5.113   3.317   5.799
47894SOL     OW45578  11.130  14.861   4.992
47894SOL    HW145579  11.221  14.834   5.003
47894SOL    HW245580  11.111   0.026   5.069
47895SOL     OW45581   4.797  14.620   7.344
47895SOL    HW145582   4.807  14.612   7.438
47895SOL    HW245583   4.881  14.655   7.314
47896SOL     OW45584   4.243   9.627  13.741
47896SOL    HW145585   4.196   9.702  13.703
47896SOL    HW245586   4.289   9.664  13.816
47897SOL     OW45587   0.713   8.051  13.089
47897SOL    HW145588   0.675   8.110  13.024
47897SOL    HW245589   0.789   8.099  13.123
47898SOL     OW45590   4.521   2.651   8.225
47898SOL    HW145591   4.569   2.728   8.255
47898SOL    HW245592   4.465   2.628   8.299
47899SOL     OW45593  11.609   2.094   7.405
47899SOL    HW145594  11.636   2.086   7.314
47899SOL    HW245595  11.540   2.028   7.415
47900SOL     OW45596  12.997  12.812   8.057
47900SOL    HW145597  12.999  12.748   7.985
47900SOL    HW245598  12.905  12.839   8.062
47901SOL     OW45599   3.338   5.117   0.851
47901SOL    HW145600   3.371   5.058   0.784
47901SOL    HW245601   3.391   5.197   0.841
47902SOL     OW45602  12.687   6.650   4.366
47902SOL    HW145603  12.608   6.629   4.415
47902SOL    HW245604  12.695   6.581   4.301
47903SOL     OW45605  10.372   2.112   9.534
47903SOL    HW145606  10.297   2.126   9.592
47903SOL    HW245607  10.367   2.183   9.471
47904SOL     OW45608   7.655   3.916   9.749
47904SOL    HW145609   7.671   3.884   9.838
47904SOL    HW245610   7.717   3.988   9.738
47905SOL     OW45611   5.321  13.968   9.378
47905SOL    HW145612   5.316  13.873   9.385
47905SOL    HW245613   5.303  13.987   9.286
47906SOL     OW45614  13.978  12.830  10.009
47906SOL    HW145615  13.966  12.842  10.103
47906SOL    HW245616  14.025  12.909   9.981
47907SOL     OW45617   9.662   0.314  13.403
47907SOL    HW145618   9.590   0.253  13.386
47907SOL    HW245619   9.650   0.385  13.341
47908SOL     OW45620   2.053  13.484   1.968
47908SOL    HW145621   2.096  13.423   1.908
47908SOL    HW245622   1.960  13.468   1.957
47909SOL     OW45623   1.189   3.965  10.547
47909SOL    HW145624   1.192   4.009  10.632
47909SOL    HW245625   1.161   4.032  10.485
47910SOL     OW45626   9.873   2.935   8.316
47910SOL    HW145627   9.856   3.007   8.376
47910SOL    HW245628   9.898   2.978   8.234
47911SOL     OW45629   2.393   8.239   3.292
47911SOL    HW145630   2.315   8.206   3.249
47911SOL    HW245631   2.384   8.335   3.289
47912SOL     OW45632   0.140  13.587   2.308
47912SOL    HW145633   0.152  13.603   2.214
47912SOL    HW245634   0.140  13.491   2.316
47913SOL     OW45635  14.147  12.554  14.849
47913SOL    HW145636  14.150  12.467  14.808
47913SOL    HW245637  14.121  12.536   0.052
47914SOL     OW45638  11.728  14.326   3.611
47914SOL    HW145639  11.705  14.357   3.699
47914SOL    HW245640  11.809  14.372   3.590
47915SOL     OW45641   6.179   0.386   4.253
47915SOL    HW145642   6.173   0.365   4.160
47915SOL    HW245643   6.168   0.303   4.298
47916SOL     OW45644  13.222   1.069  13.536
47916SOL    HW145645  13.288   1.077  13.466
47916SOL    HW245646  13.153   1.129  13.510
47917SOL     OW45647   5.579  13.737   4.793
47917SOL    HW145648   5.486  13.743   4.770
47917SOL    HW245649   5.583  13.669   4.860
47918SOL     OW45650   6.776  11.766  14.371
47918SOL    HW145651   6.732  11.718  14.300
47918SOL    HW245652   6.748  11.856  14.360
47919SOL     OW45653   4.010   4.815  11.287
47919SOL    HW145654   3.921   4.849  11.275
47919SOL    HW245655   4.060   4.891  11.318
47920SOL     OW45656   9.368  11.658  12.724
47920SOL    HW145657   9.364  11.706  12.641
47920SOL    HW245658   9.290  11.687  12.772
47921SOL     OW45659  13.785   0.509   7.751
47921SOL    HW145660  13.707   0.486   7.801
47921SOL    HW245661  13.769   0.474   7.663
47922SOL     OW45662   3.245   9.002  10.919
47922SOL    HW145663   3.244   8.975  10.827
47922SOL    HW245664   3.156   8.988  10.950
47923SOL     OW45665  12.605  12.641   5.062
47923SOL    HW145666  12.574  12.708   5.123
47923SOL    HW245667  12.594  12.558   5.108
47924SOL     OW45668   5.597  12.203   3.747
47924SOL    HW145669   5.644  12.169   3.823
47924SOL    HW245670   5.656  12.190   3.673
47925SOL     OW45671  14.333   0.356   6.430
47925SOL    HW145672  14.241   0.380   6.443
47925SOL    HW245673  14.345   0.276   6.480
47926SOL     OW45674   8.844   7.514   1.980
47926SOL    HW145675   8.792   7.498   2.059
47926SOL    HW245676   8.859   7.608   1.980
47927SOL     OW45677   2.681  14.131   2.493
47927SOL    HW145678   2.690  14.128   2.589
47927SOL    HW245679   2.683  14.040   2.466
47928SOL     OW45680   0.574   5.890   8.787
47928SOL    HW145681   0.630   5.924   8.857
47928SOL    HW245682   0.590   5.796   8.787
47929SOL     OW45683  11.288   9.083  11.557
47929SOL    HW145684  11.271   8.990  11.546
47929SOL    HW245685  11.288   9.118  11.468
47930SOL     OW45686   0.978   6.630  11.791
47930SOL    HW145687   0.939   6.561  11.738
47930SOL    HW245688   1.072   6.621  11.775
47931SOL     OW45689   6.906  13.456  12.524
47931SOL    HW145690   6.954  13.382  12.559
47931SOL    HW245691   6.814  13.435  12.539
47932SOL     OW45692  12.763   6.155   4.016
47932SOL    HW145693  12.732   6.087   4.077
47932SOL    HW245694  12.688   6.213   4.005
47933SOL     OW45695   0.114  12.425   1.265
47933SOL    HW145696   0.146  12.351   1.316
47933SOL    HW245697   0.189  12.484   1.259
47934SOL     OW45698  11.556  11.721   1.551
47934SOL    HW145699  11.538  11.809   1.517
47934SOL    HW245700  11.650  11.708   1.536
47935SOL     OW45701  10.169   6.081   0.875
47935SOL    HW145702  10.165   5.999   0.827
47935SOL    HW245703  10.156   6.056   0.967
47936SOL     OW45704   6.918  10.723   7.771
47936SOL    HW145705   6.926  10.701   7.678
47936SOL    HW245706   7.008  10.727   7.803
47937SOL     OW45707   4.170  12.973  14.090
47937SOL    HW145708   4.129  12.987  14.004
47937SOL    HW245709   4.108  12.918  14.137
47938SOL     OW45710   2.505   7.037   1.905
47938SOL    HW145711   2.536   7.021   1.994
47938SOL    HW245712   2.530   6.958   1.857
47939SOL     OW45713  14.370   6.300   5.555
47939SOL    HW145714  14.293   6.250   5.529
47939SOL    HW245715  14.443   6.257   5.509
47940SOL     OW45716  12.012   8.031   3.309
47940SOL    HW145717  12.102   8.037   3.278
47940SOL    HW245718  11.998   7.938   3.325
47941SOL     OW45719  12.407  13.296   3.743
47941SOL    HW145720  12.391  13.265   3.832
47941SOL    HW245721  12.341  13.251   3.690
47942SOL     OW45722   4.106   1.805   7.481
47942SOL    HW145723   4.057   1.886   7.491
47942SOL    HW245724   4.193   1.826   7.515
47943SOL     OW45725  10.653   4.177  11.971
47943SOL    HW145726  10.562   4.151  11.981
47943SOL    HW245727  10.680   4.141  11.887
47944SOL     OW45728   9.616  13.236   3.670
47944SOL    HW145729   9.626  13.271   3.581
47944SOL    HW245730   9.523  13.248   3.690
47945SOL     OW45731  12.571  11.813   9.854
47945SOL    HW145732  12.659  11.850   9.847
47945SOL    HW245733  12.564  11.755   9.778
47946SOL     OW45734  10.161   5.810   5.191
47946SOL    HW145735  10.192   5.888   5.236
47946SOL    HW245736  10.240   5.771   5.153
47947SOL     OW45737  13.578   1.293  13.891
47947SOL    HW145738  13.559   1.298  13.985
47947SOL    HW245739  13.632   1.215  13.882
47948SOL     OW45740   6.287   0.173  10.239
47948SOL    HW145741   6.269   0.082  10.265
47948SOL    HW245742   6.218   0.224  10.281
47949SOL     OW45743  11.996  10.105   4.061
47949SOL    HW145744  11.922  10.164   4.047
47949SOL    HW245745  11.991  10.043   3.989
47950SOL     OW45746   7.936   3.984  12.386
47950SOL    HW145747   7.981   4.028  12.314
47950SOL    HW245748   7.916   4.055  12.447
47951SOL     OW45749   0.619   4.693  13.528
47951SOL    HW145750   0.564   4.755  13.575
47951SOL    HW245751   0.691   4.674  13.589
47952SOL     OW45752  14.719   8.069   2.803
47952SOL    HW145753  14.677   7.997   2.758
47952SOL    HW245754  14.812   8.045   2.806
47953SOL     OW45755   5.994   7.150   9.969
47953SOL    HW145756   5.928   7.191   9.913
47953SOL    HW245757   6.078   7.172   9.927
47954SOL     OW45758   6.209  14.279   8.069
47954SOL    HW145759   6.124  14.298   8.110
47954SOL    HW245760   6.188  14.264   7.977
47955SOL     OW45761   6.810   9.133   8.813
47955SOL    HW145762   6.762   9.215   8.800
47955SOL    HW245763   6.798   9.112   8.905
47956SOL     OW45764  12.884   6.731  11.109
47956SOL    HW145765  12.884   6.677  11.030
47956SOL    HW245766  12.915   6.673  11.178
47957SOL     OW45767  13.389  10.352   6.367
47957SOL    HW145768  13.458  10.326   6.428
47957SOL    HW245769  13.416  10.315   6.283
47958SOL     OW45770  14.462   3.621   5.429
47958SOL    HW145771  14.536   3.681   5.445
47958SOL    HW245772  14.408   3.628   5.508
47959SOL     OW45773  14.496   4.535   1.528
47959SOL    HW145774  14.405   4.527   1.500
47959SOL    HW245775  14.509   4.629   1.541
47960SOL     OW45776   1.541   2.755   1.024
47960SOL    HW145777   1.542   2.790   0.935
47960SOL    HW245778   1.487   2.677   1.019
47961SOL     OW45779  11.550   9.483   5.089
47961SOL    HW145780  11.595   9.401   5.069
47961SOL    HW245781  11.621   9.547   5.099
47962SOL     OW45782   9.445   2.873   2.330
47962SOL    HW145783   9.361   2.836   2.354
47962SOL    HW245784   9.509   2.817   2.373
47963SOL     OW45785  13.365  13.262   5.164
47963SOL    HW145786  13.378  13.238   5.255
47963SOL    HW245787  13.314  13.343   5.167
47964SOL     OW45788   4.579   2.029   7.715
47964SOL    HW145789   4.525   2.016   7.794
47964SOL    HW245790   4.626   1.946   7.705
47965SOL     OW45791  11.559   9.051   3.972
47965SOL    HW145792  11.493   8.994   4.011
47965SOL    HW245793  11.642   9.020   4.009
47966SOL     OW45794  12.247  10.278  13.559
47966SOL    HW145795  12.234  10.360  13.511
47966SOL    HW245796  12.159  10.253  13.587
47967SOL     OW45797  11.835   9.603  12.594
47967SOL    HW145798  11.851   9.512  12.568
47967SOL    HW245799  11.922   9.644  12.589
47968SOL     OW45800   8.838   8.036  11.707
47968SOL    HW145801   8.925   7.996  11.715
47968SOL    HW245802   8.811   8.017  11.618
47969SOL     OW45803   1.162  10.506   5.988
47969SOL    HW145804   1.212  10.585   5.967
47969SOL    HW245805   1.144  10.466   5.903
47970SOL     OW45806  11.284  11.235  11.011
47970SOL    HW145807  11.375  11.242  10.981
47970SOL    HW245808  11.233  11.228  10.931
47971SOL     OW45809  10.390  14.797   7.320
47971SOL    HW145810  10.428  14.787   7.407
47971SOL    HW245811  10.367   0.002   7.315
47972SOL     OW45812   5.686   3.140   7.869
47972SOL    HW145813   5.698   3.188   7.951
47972SOL    HW245814   5.774   3.112   7.845
47973SOL     OW45815   6.389  13.160   3.470
47973SOL    HW145816   6.464  13.132   3.523
47973SOL    HW245817   6.427  13.215   3.402
47974SOL     OW45818  12.235   5.670   0.873
47974SOL    HW145819  12.265   5.684   0.783
47974SOL    HW245820  12.246   5.755   0.915
47975SOL     OW45821   6.246  13.085   0.608
47975SOL    HW145822   6.199  13.034   0.542
47975SOL    HW245823   6.338  13.065   0.594
47976SOL     OW45824   6.580  10.887  10.439
47976SOL    HW145825   6.546  10.917  10.355
47976SOL    HW245826   6.579  10.965  10.495
47977SOL     OW45827  11.882   4.404  14.230
47977SOL    HW145828  11.793   4.373  14.213
47977SOL    HW245829  11.913   4.351  14.302
47978SOL     OW45830  13.554   5.076   8.499
47978SOL    HW145831  13.475   5.054   8.548
47978SOL    HW245832  13.600   5.140   8.553
47979SOL     OW45833  12.315   0.967   2.838
47979SOL    HW145834  12.308   0.877   2.805
47979SOL    HW245835  12.359   0.958   2.922
47980SOL     OW45836   9.166  10.144  12.537
47980SOL    HW145837   9.226  10.070  12.530
47980SOL    HW245838   9.222  10.221  12.532
47981SOL     OW45839  11.568  11.008   5.480
47981SOL    HW145840  11.494  11.039   5.532
47981SOL    HW245841  11.643  11.013   5.539
47982SOL     OW45842   4.519   9.735   4.569
47982SOL    HW145843   4.471   9.717   4.649
47982SOL    HW245844   4.491   9.667   4.508
47983SOL     OW45845   3.099   0.326   2.599
47983SOL    HW145846   3.025   0.377   2.632
47983SOL    HW245847   3.104   0.251   2.658
47984SOL     OW45848  12.323  13.652  13.301
47984SOL    HW145849  12.372  13.696  13.231
47984SOL    HW245850  12.276  13.722  13.345
47985SOL     OW45851   3.670  13.469   4.213
47985SOL    HW145852   3.711  13.553   4.231
47985SOL    HW245853   3.634  13.441   4.298
47986SOL     OW45854   6.982  11.448   8.453
47986SOL    HW145855   7.010  11.366   8.411
47986SOL    HW245856   7.038  11.455   8.530
47987SOL     OW45857  11.103   8.238   2.369
47987SOL    HW145858  11.132   8.149   2.385
47987SOL    HW245859  11.161   8.293   2.423
47988SOL     OW45860  10.291  11.080  10.469
47988SOL    HW145861  10.342  10.999  10.479
47988SOL    HW245862  10.206  11.060  10.508
47989SOL     OW45863   4.236   5.366   8.530
47989SOL    HW145864   4.148   5.335   8.508
47989SOL    HW245865   4.283   5.365   8.447
47990SOL     OW45866   9.504  11.222  12.874
47990SOL    HW145867   9.464  11.161  12.936
47990SOL    HW245868   9.477  11.191  12.788
47991SOL     OW45869  14.422   9.718   8.632
47991SOL    HW145870  14.445   9.650   8.695
47991SOL    HW245871  14.327   9.728   8.641
47992SOL     OW45872   6.159   3.251   6.867
47992SOL    HW145873   6.167   3.183   6.800
47992SOL    HW245874   6.172   3.203   6.950
47993SOL     OW45875  10.146  14.102   1.799
47993SOL    HW145876  10.106  14.070   1.718
47993SOL    HW245877  10.217  14.040   1.816
47994SOL     OW45878  13.923   5.818  14.519
47994SOL    HW145879  13.956   5.777  14.439
47994SOL    HW245880  13.833   5.844  14.497
47995SOL     OW45881  11.461   3.432  12.318
47995SOL    HW145882  11.442   3.349  12.361
47995SOL    HW245883  11.394   3.441  12.251
47996SOL     OW45884   1.264  13.725  11.846
47996SOL    HW145885   1.324  13.650  11.851
47996SOL    HW245886   1.209  13.717  11.923
47997SOL     OW45887  10.197   7.784   6.694
47997SOL    HW145888  10.183   7.695   6.661
47997SOL    HW245889  10.138   7.791   6.769
47998SOL     OW45890   8.030   0.949   7.854
47998SOL    HW145891   8.043   0.973   7.762
47998SOL    HW245892   8.054   1.028   7.903
47999SOL     OW45893  11.166   4.389   6.919
47999SOL    HW145894  11.254   4.353   6.909
47999SOL    HW245895  11.111   4.313   6.939
48000SOL     OW45896   3.138   3.518   7.991
48000SOL    HW145897   3.195   3.569   7.933
48000SOL    HW245898   3.197   3.456   8.033
48001SOL     OW45899   2.758   6.121   0.067
48001SOL    HW145900   2.839   6.080   0.096
48001SOL    HW245901   2.726   6.064  14.884
48002SOL     OW45902   6.325   5.682   3.962
48002SOL    HW145903   6.229   5.692   3.961
48002SOL    HW245904   6.358   5.767   3.933
48003SOL     OW45905  12.684   0.755   0.155
48003SOL    HW145906  12.706   0.817   0.086
48003SOL    HW245907  12.677   0.808   0.234
48004SOL     OW45908  12.298   0.014  12.451
48004SOL    HW145909  12.244   0.050  12.380
48004SOL    HW245910  12.362  14.845  12.407
48005SOL     OW45911   8.224  11.643  11.789
48005SOL    HW145912   8.180  11.584  11.850
48005SOL    HW245913   8.240  11.722  11.841
48006SOL     OW45914  11.332  11.826  13.963
48006SOL    HW145915  11.288  11.904  13.929
48006SOL    HW245916  11.382  11.793  13.889
48007SOL     OW45917   9.145   1.096  10.080
48007SOL    HW145918   9.108   1.074   9.994
48007SOL    HW245919   9.225   1.144  10.061
48008SOL     OW45920   9.667  10.562   9.672
48008SOL    HW145921   9.724  10.636   9.689
48008SOL    HW245922   9.585  10.583   9.717
48009SOL     OW45923   6.891   4.780  12.725
48009SOL    HW145924   6.925   4.692  12.743
48009SOL    HW245925   6.844   4.770  12.642
48010SOL     OW45926   0.538   8.311   1.512
48010SOL    HW145927   0.511   8.228   1.472
48010SOL    HW245928   0.565   8.287   1.601
48011SOL     OW45929   5.126  12.585   2.307
48011SOL    HW145930   5.038  12.591   2.269
48011SOL    HW245931   5.134  12.662   2.362
48012SOL     OW45932   6.512   2.896   8.244
48012SOL    HW145933   6.575   2.843   8.195
48012SOL    HW245934   6.469   2.833   8.303
48013SOL     OW45935  14.603   4.899  12.259
48013SOL    HW145936  14.662   4.902  12.335
48013SOL    HW245937  14.621   4.814  12.218
48014SOL     OW45938  12.545  10.390  11.922
48014SOL    HW145939  12.575  10.352  11.840
48014SOL    HW245940  12.625  10.409  11.971
48015SOL     OW45941  10.608   1.270  11.508
48015SOL    HW145942  10.574   1.200  11.563
48015SOL    HW245943  10.675   1.228  11.454
48016SOL     OW45944   9.154   6.910  12.870
48016SOL    HW145945   9.198   6.992  12.895
48016SOL    HW245946   9.081   6.938  12.815
48017SOL     OW45947  13.874   1.804   8.431
48017SOL    HW145948  13.910   1.751   8.360
48017SOL    HW245949  13.819   1.869   8.387
48018SOL     OW45950  13.189   2.952   5.782
48018SOL    HW145951  13.116   2.983   5.729
48018SOL    HW245952  13.158   2.870   5.821
48019SOL     OW45953   3.003   1.793  10.629
48019SOL    HW145954   2.966   1.867  10.678
48019SOL    HW245955   2.971   1.716  10.676
48020SOL     OW45956   8.403   8.864   7.907
48020SOL    HW145957   8.404   8.788   7.965
48020SOL    HW245958   8.473   8.921   7.940
48021SOL     OW45959  10.033  10.211   5.636
48021SOL    HW145960   9.959  10.159   5.667
48021SOL    HW245961  10.051  10.272   5.707
48022SOL     OW45962  13.543  13.823   6.388
48022SOL    HW145963  13.580  13.741   6.421
48022SOL    HW245964  13.555  13.818   6.293
48023SOL     OW45965  10.099   3.421   5.821
48023SOL    HW145966  10.120   3.514   5.812
48023SOL    HW245967  10.162   3.376   5.765
48024SOL     OW45968  12.571  10.179  12.525
48024SOL    HW145969  12.527  10.210  12.446
48024SOL    HW245970  12.664  10.193  12.508
48025SOL     OW45971   5.612   9.853  14.866
48025SOL    HW145972   5.613   9.928   0.038
48025SOL    HW245973   5.567   9.784   0.027
48026SOL     OW45974   6.637   6.198  10.694
48026SOL    HW145975   6.703   6.264  10.716
48026SOL    HW245976   6.634   6.197  10.598
48027SOL     OW45977   7.606  10.177   5.706
48027SOL    HW145978   7.662  10.250   5.680
48027SOL    HW245979   7.519  10.200   5.674
48028SOL     OW45980   4.759   9.550   7.068
48028SOL    HW145981   4.673   9.590   7.057
48028SOL    HW245982   4.763   9.527   7.161
48029SOL     OW45983   5.835   2.444   7.074
48029SOL    HW145984   5.889   2.523   7.075
48029SOL    HW245985   5.777   2.455   6.999
48030SOL     OW45986   1.173   3.150   6.041
48030SOL    HW145987   1.243   3.200   6.082
48030SOL    HW245988   1.136   3.210   5.976
48031SOL     OW45989   6.583   3.411   4.657
48031SOL    HW145990   6.498   3.372   4.636
48031SOL    HW245991   6.619   3.355   4.726
48032SOL     OW45992   8.968   4.160   5.213
48032SOL    HW145993   9.052   4.198   5.186
48032SOL    HW245994   8.975   4.150   5.308
48033SOL     OW45995  11.317  11.200  13.212
48033SOL    HW145996  11.329  11.107  13.192
48033SOL    HW245997  11.225  11.218  13.192
48034SOL     OW45998   1.761   1.803   1.484
48034SOL    HW145999   1.766   1.882   1.429
48034SOL    HW246000   1.825   1.743   1.445
48035SOL     OW46001  12.385   5.431   0.216
48035SOL    HW146002  12.443   5.505   0.237
48035SOL    HW246003  12.382   5.430   0.120
48036SOL     OW46004   9.852   1.348   5.124
48036SOL    HW146005   9.873   1.397   5.203
48036SOL    HW246006   9.810   1.412   5.066
48037SOL     OW46007   6.497   6.326   7.335
48037SOL    HW146008   6.499   6.248   7.279
48037SOL    HW246009   6.448   6.299   7.413
48038SOL     OW46010  10.333   7.366   1.043
48038SOL    HW146011  10.353   7.276   1.067
48038SOL    HW246012  10.361   7.418   1.119
48039SOL     OW46013   6.842  10.308   9.885
48039SOL    HW146014   6.897  10.371   9.839
48039SOL    HW246015   6.776  10.362   9.928
48040SOL     OW46016  11.210  13.960   3.088
48040SOL    HW146017  11.238  14.007   3.010
48040SOL    HW246018  11.118  13.939   3.073
48041SOL     OW46019  10.068   9.640   8.432
48041SOL    HW146020  10.057   9.577   8.504
48041SOL    HW246021  10.149   9.686   8.453
48042SOL     OW46022  12.343   8.245  11.498
48042SOL    HW146023  12.264   8.291  11.525
48042SOL    HW246024  12.411   8.312  11.499
48043SOL     OW46025   7.092   5.806   7.174
48043SOL    HW146026   6.999   5.785   7.174
48043SOL    HW246027   7.099   5.881   7.114
48044SOL     OW46028   2.542   4.508   9.288
48044SOL    HW146029   2.473   4.574   9.289
48044SOL    HW246030   2.621   4.556   9.314
48045SOL     OW46031   1.156   2.896   1.588
48045SOL    HW146032   1.143   2.858   1.675
48045SOL    HW246033   1.233   2.850   1.553
48046SOL     OW46034  13.347   2.779   1.376
48046SOL    HW146035  13.300   2.740   1.302
48046SOL    HW246036  13.435   2.795   1.342
48047SOL     OW46037   9.778   0.863   0.348
48047SOL    HW146038   9.850   0.804   0.370
48047SOL    HW246039   9.762   0.914   0.427
48048SOL     OW46040   8.119  14.370   1.646
48048SOL    HW146041   8.042  14.332   1.688
48048SOL    HW246042   8.088  14.398   1.560
48049SOL     OW46043  11.123  10.787   4.185
48049SOL    HW146044  11.212  10.755   4.168
48049SOL    HW246045  11.076  10.711   4.220
48050SOL     OW46046  11.365   3.670  13.026
48050SOL    HW146047  11.287   3.644  12.977
48050SOL    HW246048  11.419   3.717  12.962
48051SOL     OW46049  10.090   0.680   7.779
48051SOL    HW146050  10.169   0.628   7.763
48051SOL    HW246051  10.122   0.757   7.827
48052SOL     OW46052   2.137   7.952   5.682
48052SOL    HW146053   2.165   7.983   5.596
48052SOL    HW246054   2.214   7.909   5.718
48053SOL     OW46055   1.781   1.145   4.792
48053SOL    HW146056   1.762   1.079   4.725
48053SOL    HW246057   1.718   1.215   4.774
48054SOL     OW46058  14.682  12.191   1.308
48054SOL    HW146059  14.660  12.114   1.255
48054SOL    HW246060  14.716  12.154   1.389
48055SOL     OW46061  14.587  11.814  13.321
48055SOL    HW146062  14.522  11.744  13.334
48055SOL    HW246063  14.619  11.801  13.232
48056SOL     OW46064  13.713   6.118   7.623
48056SOL    HW146065  13.728   6.207   7.656
48056SOL    HW246066  13.675   6.131   7.536
48057SOL     OW46067   9.811   7.635  12.557
48057SOL    HW146068   9.731   7.688  12.562
48057SOL    HW246069   9.808   7.579  12.635
48058SOL     OW46070   7.202  12.775  14.683
48058SOL    HW146071   7.209  12.870  14.672
48058SOL    HW246072   7.227  12.760  14.774
48059SOL     OW46073   4.066   2.993   8.702
48059SOL    HW146074   4.161   2.984   8.694
48059SOL    HW246075   4.052   3.088   8.709
48060SOL     OW46076   7.031   3.781   0.916
48060SOL    HW146077   7.102   3.775   0.852
48060SOL    HW246078   6.966   3.718   0.885
48061SOL     OW46079  11.054  12.811   7.565
48061SOL    HW146080  11.085  12.819   7.655
48061SOL    HW246081  11.070  12.719   7.543
48062SOL     OW46082  14.332   8.855   7.540
48062SOL    HW146083  14.262   8.893   7.487
48062SOL    HW246084  14.402   8.836   7.477
48063SOL     OW46085   5.710   7.695  10.023
48063SOL    HW146086   5.620   7.662  10.031
48063SOL    HW246087   5.739   7.705  10.114
48064SOL     OW46088   3.868  12.980  12.136
48064SOL    HW146089   3.937  12.936  12.185
48064SOL    HW246090   3.914  13.032  12.070
48065SOL     OW46091  14.547   0.279   5.955
48065SOL    HW146092  14.604   0.222   6.007
48065SOL    HW246093  14.467   0.285   6.006
48066SOL     OW46094  13.741  12.390  11.690
48066SOL    HW146095  13.732  12.391  11.785
48066SOL    HW246096  13.807  12.457  11.671
48067SOL     OW46097  12.837   7.606   3.531
48067SOL    HW146098  12.807   7.517   3.511
48067SOL    HW246099  12.757   7.654   3.551
48068SOL     OW46100   8.649  10.906  10.723
48068SOL    HW146101   8.559  10.937  10.735
48068SOL    HW246102   8.700  10.950  10.791
48069SOL     OW46103   1.858  10.674  11.947
48069SOL    HW146104   1.872  10.649  12.039
48069SOL    HW246105   1.881  10.595  11.898
48070SOL     OW46106   2.454   3.204   2.175
48070SOL    HW146107   2.448   3.265   2.102
48070SOL    HW246108   2.451   3.117   2.135
48071SOL     OW46109   9.933  11.147   2.311
48071SOL    HW146110   9.932  11.067   2.259
48071SOL    HW246111  10.019  11.186   2.296
48072SOL     OW46112   8.216   5.847   4.719
48072SOL    HW146113   8.199   5.758   4.685
48072SOL    HW246114   8.149   5.860   4.786
48073SOL     OW46115   1.855  11.490   7.671
48073SOL    HW146116   1.794  11.496   7.745
48073SOL    HW246117   1.799  11.470   7.596
48074SOL     OW46118  10.876   7.847  11.879
48074SOL    HW146119  10.943   7.908  11.909
48074SOL    HW246120  10.916   7.760  11.888
48075SOL     OW46121   3.009   8.618   6.640
48075SOL    HW146122   2.925   8.572   6.643
48075SOL    HW246123   3.072   8.557   6.679
48076SOL     OW46124  10.299  10.068   9.137
48076SOL    HW146125  10.390  10.043   9.120
48076SOL    HW246126  10.290  10.062   9.232
48077SOL     OW46127  10.686   1.614   2.705
48077SOL    HW146128  10.609   1.668   2.724
48077SOL    HW246129  10.655   1.524   2.716
48078SOL     OW46130  13.780  11.356   8.942
48078SOL    HW146131  13.835  11.315   9.009
48078SOL    HW246132  13.749  11.283   8.888
48079SOL     OW46133  13.015  12.153  10.295
48079SOL    HW146134  13.048  12.081  10.241
48079SOL    HW246135  12.990  12.221  10.232
48080SOL     OW46136   5.194   3.821   2.499
48080SOL    HW146137   5.116   3.818   2.553
48080SOL    HW246138   5.162   3.848   2.413
48081SOL     OW46139  11.524  14.386   3.416
48081SOL    HW146140  11.589  14.346   3.475
48081SOL    HW246141  11.441  14.344   3.441
48082SOL     OW46142   9.759   3.183   1.865
48082SOL    HW146143   9.806   3.241   1.805
48082SOL    HW246144   9.667   3.194   1.842
48083SOL     OW46145   3.709   7.603  14.077
48083SOL    HW146146   3.622   7.638  14.054
48083SOL    HW246147   3.770   7.672  14.050
48084SOL     OW46148   7.698   6.678  10.088
48084SOL    HW146149   7.790   6.704  10.092
48084SOL    HW246150   7.682   6.635  10.172
48085SOL     OW46151   9.475   7.341  13.756
48085SOL    HW146152   9.559   7.366  13.717
48085SOL    HW246153   9.496   7.316  13.846
48086SOL     OW46154  14.832  13.621  14.547
48086SOL    HW146155  14.834  13.710  14.584
48086SOL    HW246156   0.015  13.620  14.482
48087SOL     OW46157   5.779   3.764  12.757
48087SOL    HW146158   5.858   3.760  12.703
48087SOL    HW246159   5.812   3.769  12.847
48088SOL     OW46160   5.419   9.977  10.899
48088SOL    HW146161   5.416   9.939  10.987
48088SOL    HW246162   5.414   9.902  10.841
48089SOL     OW46163  12.928  11.945   2.944
48089SOL    HW146164  12.890  12.022   2.987
48089SOL    HW246165  13.019  11.943   2.974
48090SOL     OW46166  12.957  10.035   6.029
48090SOL    HW146167  12.867  10.016   6.004
48090SOL    HW246168  12.967   9.995   6.115
48091SOL     OW46169  12.946  12.626   2.167
48091SOL    HW146170  12.919  12.614   2.258
48091SOL    HW246171  12.886  12.693   2.133
48092SOL     OW46172   1.044   9.439  10.763
48092SOL    HW146173   1.049   9.418  10.857
48092SOL    HW246174   1.055   9.354  10.719
48093SOL     OW46175   0.857   4.349  10.849
48093SOL    HW146176   0.797   4.278  10.823
48093SOL    HW246177   0.817   4.428  10.813
48094SOL     OW46178  10.409   8.653   8.079
48094SOL    HW146179  10.423   8.608   7.995
48094SOL    HW246180  10.496   8.659   8.118
48095SOL     OW46181  13.772  10.739  10.311
48095SOL    HW146182  13.697  10.680  10.299
48095SOL    HW246183  13.738  10.825  10.288
48096SOL     OW46184   4.030  13.170  11.904
48096SOL    HW146185   4.031  13.117  11.824
48096SOL    HW246186   3.946  13.216  11.901
48097SOL     OW46187   2.481   0.677   4.608
48097SOL    HW146188   2.564   0.718   4.584
48097SOL    HW246189   2.430   0.748   4.647
48098SOL     OW46190   6.327   2.902   3.106
48098SOL    HW146191   6.276   2.823   3.126
48098SOL    HW246192   6.354   2.890   3.015
48099SOL     OW46193   7.219   4.172  12.999
48099SOL    HW146194   7.155   4.142  12.935
48099SOL    HW246195   7.166   4.213  13.068
48100SOL     OW46196  11.951   8.906   8.697
48100SOL    HW146197  11.957   9.002   8.699
48100SOL    HW246198  12.037   8.877   8.670
48101SOL     OW46199   4.649   2.034   8.282
48101SOL    HW146200   4.661   1.954   8.332
48101SOL    HW246201   4.591   2.088   8.337
48102SOL     OW46202   6.663  10.687   0.533
48102SOL    HW146203   6.743  10.715   0.490
48102SOL    HW246204   6.629  10.766   0.574
48103SOL     OW46205   5.598   6.668  11.608
48103SOL    HW146206   5.623   6.583  11.571
48103SOL    HW246207   5.563   6.717  11.533
48104SOL     OW46208   7.808   9.258   8.872
48104SOL    HW146209   7.787   9.347   8.842
48104SOL    HW246210   7.730   9.231   8.922
48105SOL     OW46211  11.470   9.787   7.963
48105SOL    HW146212  11.496   9.773   7.872
48105SOL    HW246213  11.395   9.846   7.957
48106SOL     OW46214   8.501   4.051   4.036
48106SOL    HW146215   8.488   4.070   3.943
48106SOL    HW246216   8.595   4.066   4.051
48107SOL     OW46217   0.893  11.106   0.559
48107SOL    HW146218   0.800  11.124   0.575
48107SOL    HW246219   0.924  11.068   0.641
48108SOL     OW46220   4.347   8.619   5.706
48108SOL    HW146221   4.360   8.685   5.637
48108SOL    HW246222   4.370   8.665   5.787
48109SOL     OW46223   3.097   2.720   9.175
48109SOL    HW146224   3.141   2.646   9.133
48109SOL    HW246225   3.022   2.739   9.118
48110SOL     OW46226   1.655   6.771   7.890
48110SOL    HW146227   1.639   6.823   7.969
48110SOL    HW246228   1.629   6.682   7.913
48111SOL     OW46229   2.708  12.341   7.756
48111SOL    HW146230   2.784  12.392   7.783
48111SOL    HW246231   2.739  12.286   7.685
48112SOL     OW46232   7.599   1.763  14.851
48112SOL    HW146233   7.676   1.782  14.799
48112SOL    HW246234   7.573   1.675  14.825
48113SOL     OW46235  13.053   2.632  11.695
48113SOL    HW146236  13.105   2.585  11.759
48113SOL    HW246237  13.063   2.724  11.719
48114SOL     OW46238  14.263   3.204   5.465
48114SOL    HW146239  14.170   3.224   5.457
48114SOL    HW246240  14.307   3.280   5.429
48115SOL     OW46241   9.546   0.322   6.798
48115SOL    HW146242   9.515   0.235   6.776
48115SOL    HW246243   9.470   0.379   6.785
48116SOL     OW46244   4.151   5.960  11.342
48116SOL    HW146245   4.127   5.911  11.421
48116SOL    HW246246   4.094   6.037  11.343
48117SOL     OW46247   1.074  14.639   9.118
48117SOL    HW146248   1.011  14.708   9.140
48117SOL    HW246249   1.159  14.681   9.125
48118SOL     OW46250   8.525   5.839   0.829
48118SOL    HW146251   8.544   5.777   0.758
48118SOL    HW246252   8.448   5.803   0.872
48119SOL     OW46253   9.952   8.988  12.890
48119SOL    HW146254  10.014   9.060  12.879
48119SOL    HW246255   9.923   8.967  12.801
48120SOL     OW46256   3.402   5.538  10.466
48120SOL    HW146257   3.385   5.629  10.492
48120SOL    HW246258   3.483   5.543  10.414
48121SOL     OW46259  14.814   1.280   5.308
48121SOL    HW146260  14.742   1.260   5.249
48121SOL    HW246261  14.882   1.317   5.252
48122SOL     OW46262   4.758  11.226  13.188
48122SOL    HW146263   4.668  11.196  13.190
48122SOL    HW246264   4.756  11.312  13.229
48123SOL     OW46265   3.769   4.157   5.143
48123SOL    HW146266   3.756   4.096   5.215
48123SOL    HW246267   3.844   4.122   5.095
48124SOL     OW46268   3.326   2.058   3.327
48124SOL    HW146269   3.404   2.039   3.379
48124SOL    HW246270   3.358   2.110   3.253
48125SOL     OW46271   7.843   4.720   2.852
48125SOL    HW146272   7.754   4.705   2.884
48125SOL    HW246273   7.866   4.808   2.884
48126SOL     OW46274  11.659  12.838  11.077
48126SOL    HW146275  11.659  12.853  10.982
48126SOL    HW246276  11.651  12.743  11.086
48127SOL     OW46277  10.296   5.940   6.649
48127SOL    HW146278  10.291   5.881   6.573
48127SOL    HW246279  10.361   6.005   6.623
48128SOL     OW46280   4.921  10.653   1.819
48128SOL    HW146281   5.009  10.640   1.782
48128SOL    HW246282   4.882  10.566   1.818
48129SOL     OW46283   4.973   9.670   2.853
48129SOL    HW146284   5.028   9.665   2.931
48129SOL    HW246285   4.946   9.579   2.837
48130SOL     OW46286   9.972  11.145  11.383
48130SOL    HW146287  10.037  11.078  11.402
48130SOL    HW246288   9.888  11.101  11.393
48131SOL     OW46289  12.059   0.594   9.533
48131SOL    HW146290  12.062   0.571   9.440
48131SOL    HW246291  12.003   0.527   9.572
48132SOL     OW46292   3.667   9.482   5.037
48132SOL    HW146293   3.658   9.573   5.064
48132SOL    HW246294   3.754   9.478   4.995
48133SOL     OW46295   3.003   0.629  11.825
48133SOL    HW146296   3.094   0.601  11.831
48133SOL    HW246297   3.002   0.717  11.864
48134SOL     OW46298  14.876   5.380   2.322
48134SOL    HW146299   0.016   5.321   2.392
48134SOL    HW246300  14.872   5.324   2.244
48135SOL     OW46301   0.609   7.094   0.918
48135SOL    HW146302   0.615   7.010   0.963
48135SOL    HW246303   0.644   7.157   0.981
48136SOL     OW46304   8.113   4.791   8.456
48136SOL    HW146305   8.119   4.887   8.460
48136SOL    HW246306   8.104   4.764   8.547
48137SOL     OW46307  10.458  14.699   0.397
48137SOL    HW146308  10.403  14.772   0.371
48137SOL    HW246309  10.470  14.647   0.318
48138SOL     OW46310   4.510   4.969   8.272
48138SOL    HW146311   4.535   4.998   8.184
48138SOL    HW246312   4.442   4.903   8.257
48139SOL     OW46313  10.524   5.304   6.738
48139SOL    HW146314  10.494   5.218   6.710
48139SOL    HW246315  10.619   5.299   6.738
48140SOL     OW46316   7.781   6.630   1.013
48140SOL    HW146317   7.785   6.618   0.919
48140SOL    HW246318   7.703   6.684   1.027
48141SOL     OW46319   1.219   1.052   7.521
48141SOL    HW146320   1.172   1.013   7.447
48141SOL    HW246321   1.246   1.138   7.490
48142SOL     OW46322   8.487  12.064   1.487
48142SOL    HW146323   8.565  12.099   1.444
48142SOL    HW246324   8.517  11.982   1.527
48143SOL     OW46325   7.302  10.554  10.418
48143SOL    HW146326   7.321  10.478  10.473
48143SOL    HW246327   7.230  10.599  10.463
48144SOL     OW46328  14.639  10.830   2.084
48144SOL    HW146329  14.721  10.878   2.077
48144SOL    HW246330  14.611  10.843   2.175
48145SOL     OW46331   4.993   9.333   7.421
48145SOL    HW146332   4.980   9.267   7.353
48145SOL    HW246333   5.068   9.384   7.392
48146SOL     OW46334  10.784  14.786   0.927
48146SOL    HW146335  10.837  14.714   0.960
48146SOL    HW246336  10.710  14.744   0.883
48147SOL     OW46337  12.243   2.706   4.556
48147SOL    HW146338  12.178   2.643   4.525
48147SOL    HW246339  12.252   2.687   4.650
48148SOL     OW46340  14.631   3.626   2.710
48148SOL    HW146341  14.698   3.693   2.725
48148SOL    HW246342  14.603   3.639   2.620
48149SOL     OW46343  12.684   9.316  12.947
48149SOL    HW146344  12.648   9.276  13.026
48149SOL    HW246345  12.609   9.353  12.902
48150SOL     OW46346  13.514   9.999   1.591
48150SOL    HW146347  13.504   9.972   1.499
48150SOL    HW246348  13.604   9.976   1.612
48151SOL     OW46349   8.039   3.357   4.198
48151SOL    HW146350   7.959   3.321   4.237
48151SOL    HW246351   8.071   3.419   4.263
48152SOL     OW46352   2.515   7.705  13.992
48152SOL    HW146353   2.557   7.754  13.921
48152SOL    HW246354   2.544   7.749  14.071
48153SOL     OW46355   8.292  14.754  10.561
48153SOL    HW146356   8.346  14.805  10.621
48153SOL    HW246357   8.308  14.793  10.475
48154SOL     OW46358  14.102   5.738   9.410
48154SOL    HW146359  14.165   5.751   9.339
48154SOL    HW246360  14.153   5.698   9.480
48155SOL     OW46361   0.195  11.768   1.258
48155SOL    HW146362   0.152  11.765   1.172
48155SOL    HW246363   0.265  11.702   1.251
48156SOL     OW46364   7.098   6.239   5.574
48156SOL    HW146365   7.061   6.278   5.494
48156SOL    HW246366   7.183   6.282   5.584
48157SOL     OW46367   1.045   4.595  13.648
48157SOL    HW146368   1.064   4.655  13.576
48157SOL    HW246369   1.033   4.510  13.606
48158SOL     OW46370  14.536   5.244   4.655
48158SOL    HW146371  14.548   5.263   4.748
48158SOL    HW246372  14.443   5.261   4.638
48159SOL     OW46373   8.463  10.432  10.422
48159SOL    HW146374   8.536  10.451  10.363
48159SOL    HW246375   8.489  10.353  10.468
48160SOL     OW46376  14.782  13.773   9.720
48160SOL    HW146377  14.689  13.782   9.741
48160SOL    HW246378  14.808  13.859   9.688
48161SOL     OW46379  10.079  10.782   8.121
48161SOL    HW146380  10.029  10.700   8.120
48161SOL    HW246381  10.093  10.802   8.028
48162SOL     OW46382   3.864   5.797   0.184
48162SOL    HW146383   3.870   5.703   0.201
48162SOL    HW246384   3.902   5.808   0.097
48163SOL     OW46385  14.707   9.361   8.711
48163SOL    HW146386  14.756   9.375   8.630
48163SOL    HW246387  14.749   9.284   8.751
48164SOL     OW46388   9.329  11.660   0.212
48164SOL    HW146389   9.239  11.637   0.233
48164SOL    HW246390   9.338  11.642   0.118
48165SOL     OW46391   8.751   8.074   3.423
48165SOL    HW146392   8.666   8.113   3.404
48165SOL    HW246393   8.806   8.149   3.449
48166SOL     OW46394  10.867   1.470   2.044
48166SOL    HW146395  10.906   1.524   1.976
48166SOL    HW246396  10.854   1.385   2.002
48167SOL     OW46397   1.326   3.959   5.050
48167SOL    HW146398   1.392   4.015   5.091
48167SOL    HW246399   1.345   3.871   5.084
48168SOL     OW46400   0.078  14.669   1.350
48168SOL    HW146401   0.138  14.743   1.340
48168SOL    HW246402   0.022  14.674   1.273
48169SOL     OW46403   0.840   9.614   2.040
48169SOL    HW146404   0.753   9.618   2.000
48169SOL    HW246405   0.892   9.678   1.992
48170SOL     OW46406   3.848   0.398   0.899
48170SOL    HW146407   3.787   0.328   0.875
48170SOL    HW246408   3.894   0.364   0.976
48171SOL     OW46409   9.555  14.036   5.626
48171SOL    HW146410   9.586  14.077   5.545
48171SOL    HW246411   9.547  13.943   5.603
48172SOL     OW46412   9.880   8.059   0.294
48172SOL    HW146413   9.823   8.018   0.358
48172SOL    HW246414   9.954   7.999   0.285
48173SOL     OW46415   7.885   5.541  14.240
48173SOL    HW146416   7.964   5.521  14.290
48173SOL    HW246417   7.870   5.635  14.256
48174SOL     OW46418  11.993  10.306   0.517
48174SOL    HW146419  11.929  10.245   0.556
48174SOL    HW246420  12.077  10.277   0.551
48175SOL     OW46421   5.755   1.251   1.436
48175SOL    HW146422   5.752   1.346   1.446
48175SOL    HW246423   5.839   1.234   1.394
48176SOL     OW46424   2.478   2.540   1.824
48176SOL    HW146425   2.453   2.449   1.839
48176SOL    HW246426   2.395   2.586   1.813
48177SOL     OW46427   0.098   6.243   9.765
48177SOL    HW146428   0.193   6.255   9.761
48177SOL    HW246429   0.078   6.239   9.858
48178SOL     OW46430   3.067   9.387   0.030
48178SOL    HW146431   2.997   9.443   0.062
48178SOL    HW246432   3.030   9.299   0.031
48179SOL     OW46433   2.233  11.548   9.154
48179SOL    HW146434   2.198  11.536   9.066
48179SOL    HW246435   2.157  11.572   9.207
48180SOL     OW46436  10.322  14.148   5.078
48180SOL    HW146437  10.373  14.068   5.096
48180SOL    HW246438  10.231  14.122   5.092
48181SOL     OW46439  10.134   1.447   1.729
48181SOL    HW146440  10.178   1.374   1.686
48181SOL    HW246441  10.042   1.436   1.706
48182SOL     OW46442   9.552  10.850   1.550
48182SOL    HW146443   9.512  10.836   1.636
48182SOL    HW246444   9.512  10.783   1.494
48183SOL     OW46445   6.302   5.177   5.015
48183SOL    HW146446   6.287   5.250   4.955
48183SOL    HW246447   6.350   5.216   5.088
48184SOL     OW46448   3.815   4.253  14.845
48184SOL    HW146449   3.739   4.253  14.786
48184SOL    HW246450   3.866   4.330  14.819
48185SOL     OW46451   3.041   2.406  14.621
48185SOL    HW146452   2.990   2.327  14.636
48185SOL    HW246453   3.043   2.415  14.526
48186SOL     OW46454  12.215   1.028  12.949
48186SOL    HW146455  12.163   0.994  13.022
48186SOL    HW246456  12.152   1.039  12.877
48187SOL     OW46457   5.888  10.040   9.472
48187SOL    HW146458   5.956  10.009   9.532
48187SOL    HW246459   5.825  10.085   9.529
48188SOL     OW46460   6.570  11.847   2.447
48188SOL    HW146461   6.585  11.785   2.376
48188SOL    HW246462   6.539  11.927   2.404
48189SOL     OW46463   1.019   6.177   7.654
48189SOL    HW146464   0.931   6.183   7.617
48189SOL    HW246465   1.024   6.087   7.688
48190SOL     OW46466  10.352   3.252  13.841
48190SOL    HW146467  10.343   3.252  13.746
48190SOL    HW246468  10.268   3.285  13.874
48191SOL     OW46469   7.932   8.743   9.599
48191SOL    HW146470   7.992   8.803   9.555
48191SOL    HW246471   7.921   8.780   9.687
48192SOL     OW46472   1.140  10.950   2.494
48192SOL    HW146473   1.096  11.026   2.531
48192SOL    HW246474   1.070  10.898   2.455
48193SOL     OW46475   5.711   1.399   7.237
48193SOL    HW146476   5.750   1.481   7.267
48193SOL    HW246477   5.724   1.338   7.309
48194SOL     OW46478  14.810   7.579   3.130
48194SOL    HW146479  14.766   7.519   3.190
48194SOL    HW246480   0.011   7.545   3.121
48195SOL     OW46481   9.403   6.715  12.502
48195SOL    HW146482   9.325   6.742  12.453
48195SOL    HW246483   9.378   6.724  12.594
48196SOL     OW46484  11.859  12.567  11.907
48196SOL    HW146485  11.942  12.573  11.955
48196SOL    HW246486  11.875  12.615  11.826
48197SOL     OW46487  14.389  10.722   6.556
48197SOL    HW146488  14.301  10.759   6.552
48197SOL    HW246489  14.375  10.632   6.587
48198SOL     OW46490   0.061   8.754  13.259
48198SOL    HW146491  14.857   8.745  13.285
48198SOL    HW246492   0.110   8.719  13.333
48199SOL     OW46493  13.684   2.018   8.819
48199SOL    HW146494  13.634   1.937   8.808
48199SOL    HW246495  13.758   1.993   8.875
48200SOL     OW46496  11.766  10.191  10.729
48200SOL    HW146497  11.809  10.105  10.731
48200SOL    HW246498  11.823  10.247  10.783
48201SOL     OW46499  14.720   9.845   0.810
48201SOL    HW146500  14.802   9.798   0.798
48201SOL    HW246501  14.675   9.797   0.880
48202SOL     OW46502  14.147   9.675   0.101
48202SOL    HW146503  14.149   9.582   0.124
48202SOL    HW246504  14.210   9.716   0.161
48203SOL     OW46505   3.619   2.536   4.286
48203SOL    HW146506   3.627   2.631   4.292
48203SOL    HW246507   3.578   2.510   4.368
48204SOL     OW46508   7.556  10.979   1.608
48204SOL    HW146509   7.511  10.911   1.558
48204SOL    HW246510   7.640  10.989   1.564
48205SOL     OW46511  10.484   4.287  13.206
48205SOL    HW146512  10.449   4.198  13.216
48205SOL    HW246513  10.576   4.279  13.232
48206SOL     OW46514  14.264   9.728   1.363
48206SOL    HW146515  14.279   9.823   1.357
48206SOL    HW246516  14.318   9.700   1.437
48207SOL     OW46517   1.718   0.776   6.158
48207SOL    HW146518   1.684   0.722   6.229
48207SOL    HW246519   1.735   0.714   6.087
48208SOL     OW46520  10.910   8.961   6.173
48208SOL    HW146521  10.905   9.045   6.217
48208SOL    HW246522  10.987   8.918   6.211
48209SOL     OW46523  10.113   7.811   0.600
48209SOL    HW146524  10.194   7.766   0.621
48209SOL    HW246525  10.132   7.904   0.614
48210SOL     OW46526   0.693  13.122   0.431
48210SOL    HW146527   0.607  13.128   0.391
48210SOL    HW246528   0.695  13.035   0.471
48211SOL     OW46529   7.800   0.505  10.919
48211SOL    HW146530   7.831   0.537  11.003
48211SOL    HW246531   7.871   0.450  10.886
48212SOL     OW46532   7.172   4.659  14.554
48212SOL    HW146533   7.095   4.716  14.546
48212SOL    HW246534   7.205   4.677  14.643
48213SOL     OW46535   9.112  14.720   9.467
48213SOL    HW146536   9.167  14.709   9.389
48213SOL    HW246537   9.108  14.632   9.505
48214SOL     OW46538   5.455  12.538   5.038
48214SOL    HW146539   5.497  12.599   4.978
48214SOL    HW246540   5.400  12.484   4.981
48215SOL     OW46541   6.863  11.983   7.485
48215SOL    HW146542   6.940  11.977   7.428
48215SOL    HW246543   6.815  11.902   7.468
48216SOL     OW46544   5.915  13.858   0.059
48216SOL    HW146545   5.973  13.909   0.002
48216SOL    HW246546   5.973  13.803   0.111
48217SOL     OW46547   0.160   4.300   1.922
48217SOL    HW146548   0.198   4.305   2.010
48217SOL    HW246549   0.229   4.335   1.865
48218SOL     OW46550   0.389   5.624  10.175
48218SOL    HW146551   0.337   5.545  10.193
48218SOL    HW246552   0.447   5.598  10.103
48219SOL     OW46553   4.986   2.199  12.231
48219SOL    HW146554   4.897   2.219  12.202
48219SOL    HW246555   5.009   2.119  12.184
48220SOL     OW46556   2.275   5.246  13.682
48220SOL    HW146557   2.308   5.314  13.624
48220SOL    HW246558   2.212   5.290  13.738
48221SOL     OW46559   8.076   2.455  14.183
48221SOL    HW146560   8.008   2.392  14.205
48221SOL    HW246561   8.152   2.429  14.236
48222SOL     OW46562   3.705  11.269  12.074
48222SOL    HW146563   3.700  11.268  12.170
48222SOL    HW246564   3.795  11.243  12.054
48223SOL     OW46565   5.112  14.593   4.496
48223SOL    HW146566   5.167  14.516   4.509
48223SOL    HW246567   5.067  14.605   4.579
48224SOL     OW46568   2.325   0.369   5.059
48224SOL    HW146569   2.287   0.426   5.126
48224SOL    HW246570   2.259   0.302   5.042
48225SOL     OW46571   8.889   9.628  12.317
48225SOL    HW146572   8.976   9.615  12.354
48225SOL    HW246573   8.829   9.595  12.384
48226SOL     OW46574   7.881   7.479   6.916
48226SOL    HW146575   7.956   7.538   6.919
48226SOL    HW246576   7.826   7.513   6.845
48227SOL     OW46577  11.984   8.110   5.389
48227SOL    HW146578  11.901   8.104   5.435
48227SOL    HW246579  11.965   8.077   5.301
48228SOL     OW46580   6.250   7.325  14.654
48228SOL    HW146581   6.237   7.415  14.622
48228SOL    HW246582   6.324   7.292  14.603
48229SOL     OW46583   8.393   7.959  10.944
48229SOL    HW146584   8.474   7.994  10.982
48229SOL    HW246585   8.423   7.889  10.885
48230SOL     OW46586   4.437   5.857   2.283
48230SOL    HW146587   4.457   5.792   2.350
48230SOL    HW246588   4.513   5.857   2.225
48231SOL     OW46589   6.884   5.662   9.602
48231SOL    HW146590   6.859   5.703   9.519
48231SOL    HW246591   6.950   5.720   9.638
48232SOL     OW46592   2.342  10.558  10.114
48232SOL    HW146593   2.290  10.635  10.139
48232SOL    HW246594   2.301  10.486  10.162
48233SOL     OW46595   1.366   1.468   1.435
48233SOL    HW146596   1.379   1.474   1.529
48233SOL    HW246597   1.417   1.541   1.399
48234SOL     OW46598   1.936  10.376   1.902
48234SOL    HW146599   1.943  10.284   1.876
48234SOL    HW246600   1.869  10.412   1.844
48235SOL     OW46601   3.849   2.415   7.795
48235SOL    HW146602   3.893   2.435   7.877
48235SOL    HW246603   3.900   2.344   7.757
48236SOL     OW46604   3.599   5.232   6.347
48236SOL    HW146605   3.573   5.324   6.333
48236SOL    HW246606   3.640   5.207   6.265
48237SOL     OW46607   1.923   4.340   1.360
48237SOL    HW146608   1.988   4.406   1.384
48237SOL    HW246609   1.853   4.388   1.317
48238SOL     OW46610   9.613  11.541   6.132
48238SOL    HW146611   9.680  11.595   6.173
48238SOL    HW246612   9.600  11.580   6.046
48239SOL     OW46613   1.191   8.588   0.256
48239SOL    HW146614   1.175   8.540   0.174
48239SOL    HW246615   1.243   8.664   0.229
48240SOL     OW46616   3.137   6.740   0.125
48240SOL    HW146617   3.211   6.799   0.112
48240SOL    HW246618   3.172   6.667   0.175
48241SOL     OW46619   2.500   7.706   3.337
48241SOL    HW146620   2.578   7.655   3.359
48241SOL    HW246621   2.535   7.781   3.288
48242SOL     OW46622  11.993   3.845  10.650
48242SOL    HW146623  12.014   3.751  10.655
48242SOL    HW246624  11.902   3.850  10.681
48243SOL     OW46625   8.808  10.804   6.150
48243SOL    HW146626   8.883  10.835   6.201
48243SOL    HW246627   8.811  10.855   6.070
48244SOL     OW46628   6.652  13.300  12.634
48244SOL    HW146629   6.671  13.209  12.609
48244SOL    HW246630   6.617  13.339  12.554
48245SOL     OW46631  10.071   5.961   2.171
48245SOL    HW146632  10.044   5.874   2.141
48245SOL    HW246633  10.161   5.949   2.203
48246SOL     OW46634  14.771   6.112   4.370
48246SOL    HW146635  14.732   6.191   4.407
48246SOL    HW246636  14.710   6.042   4.392
48247SOL     OW46637   4.020   0.759  11.132
48247SOL    HW146638   4.030   0.798  11.045
48247SOL    HW246639   4.007   0.666  11.116
48248SOL     OW46640   9.308   1.979  14.470
48248SOL    HW146641   9.285   2.024  14.388
48248SOL    HW246642   9.356   2.044  14.520
48249SOL     OW46643   3.064   9.819   4.891
48249SOL    HW146644   3.122   9.881   4.936
48249SOL    HW246645   3.061   9.743   4.949
48250SOL     OW46646  14.845   0.768   8.510
48250SOL    HW146647  14.787   0.702   8.472
48250SOL    HW246648  14.874   0.820   8.435
48251SOL     OW46649   4.879  10.561  11.628
48251SOL    HW146650   4.786  10.578  11.641
48251SOL    HW246651   4.908  10.520  11.709
48252SOL     OW46652  12.490   4.512   4.036
48252SOL    HW146653  12.412   4.557   4.069
48252SOL    HW246654  12.486   4.525   3.941
48253SOL     OW46655   2.243   7.589   4.430
48253SOL    HW146656   2.297   7.637   4.367
48253SOL    HW246657   2.182   7.654   4.464
48254SOL     OW46658   5.551   6.725  12.431
48254SOL    HW146659   5.595   6.807  12.409
48254SOL    HW246660   5.473   6.723  12.376
48255SOL     OW46661   3.974  13.439  10.330
48255SOL    HW146662   4.055  13.449  10.379
48255SOL    HW246663   3.906  13.430  10.396
48256SOL     OW46664  11.528   5.981   2.997
48256SOL    HW146665  11.543   6.013   2.908
48256SOL    HW246666  11.474   6.048   3.039
48257SOL     OW46667   6.183  12.802   8.870
48257SOL    HW146668   6.202  12.891   8.840
48257SOL    HW246669   6.120  12.813   8.941
48258SOL     OW46670   2.317   5.678  13.957
48258SOL    HW146671   2.398   5.641  13.922
48258SOL    HW246672   2.345   5.738  14.026
48259SOL     OW46673   3.255  14.304   6.860
48259SOL    HW146674   3.229  14.296   6.952
48259SOL    HW246675   3.333  14.249   6.852
48260SOL     OW46676  13.659   1.122   3.862
48260SOL    HW146677  13.673   1.156   3.774
48260SOL    HW246678  13.745   1.090   3.889
48261SOL     OW46679   8.463   2.617   8.355
48261SOL    HW146680   8.522   2.556   8.310
48261SOL    HW246681   8.521   2.669   8.411
48262SOL     OW46682  12.056  13.276   9.752
48262SOL    HW146683  11.963  13.289   9.767
48262SOL    HW246684  12.061  13.197   9.697
48263SOL     OW46685  12.474  13.674  12.838
48263SOL    HW146686  12.429  13.647  12.758
48263SOL    HW246687  12.565  13.652  12.823
48264SOL     OW46688   4.345   1.166  13.699
48264SOL    HW146689   4.319   1.189  13.788
48264SOL    HW246690   4.292   1.222  13.642
48265SOL     OW46691   3.318   8.275  11.718
48265SOL    HW146692   3.329   8.181  11.712
48265SOL    HW246693   3.344   8.308  11.632
48266SOL     OW46694  11.071   6.855   6.724
48266SOL    HW146695  11.078   6.891   6.812
48266SOL    HW246696  11.141   6.898   6.675
48267SOL     OW46697   0.436  11.546   9.625
48267SOL    HW146698   0.394  11.547   9.711
48267SOL    HW246699   0.495  11.621   9.627
48268SOL     OW46700   0.473  12.271   2.758
48268SOL    HW146701   0.527  12.192   2.750
48268SOL    HW246702   0.446  12.290   2.669
48269SOL     OW46703   8.372   7.066  10.277
48269SOL    HW146704   8.303   7.033  10.334
48269SOL    HW246705   8.330   7.081  10.193
48270SOL     OW46706  11.932  14.598   4.915
48270SOL    HW146707  11.877  14.568   4.988
48270SOL    HW246708  11.948  14.520   4.862
48271SOL     OW46709   4.771  12.583  12.981
48271SOL    HW146710   4.820  12.502  12.968
48271SOL    HW246711   4.766  12.622  12.893
48272SOL     OW46712   2.518   2.815   5.495
48272SOL    HW146713   2.558   2.792   5.411
48272SOL    HW246714   2.551   2.750   5.556
48273SOL     OW46715  11.147   9.912   9.216
48273SOL    HW146716  11.082   9.892   9.149
48273SOL    HW246717  11.103   9.973   9.275
48274SOL     OW46718   9.537  13.549  13.545
48274SOL    HW146719   9.453  13.594  13.531
48274SOL    HW246720   9.597  13.619  13.571
48275SOL     OW46721   3.288   3.934   8.102
48275SOL    HW146722   3.218   3.961   8.043
48275SOL    HW246723   3.248   3.938   8.189
48276SOL     OW46724   1.298   6.764   3.724
48276SOL    HW146725   1.308   6.750   3.630
48276SOL    HW246726   1.310   6.858   3.735
48277SOL     OW46727   4.750  13.202  13.618
48277SOL    HW146728   4.799  13.149  13.681
48277SOL    HW246729   4.703  13.138  13.565
48278SOL     OW46730   8.223   0.691   3.773
48278SOL    HW146731   8.219   0.643   3.856
48278SOL    HW246732   8.245   0.624   3.708
48279SOL     OW46733   3.240   2.134   7.038
48279SOL    HW146734   3.297   2.082   7.094
48279SOL    HW246735   3.168   2.161   7.096
48280SOL     OW46736   3.321   5.478   6.710
48280SOL    HW146737   3.263   5.507   6.640
48280SOL    HW246738   3.296   5.388   6.727
48281SOL     OW46739   8.262  12.442   3.177
48281SOL    HW146740   8.270  12.361   3.126
48281SOL    HW246741   8.257  12.511   3.111
48282SOL     OW46742   6.581   6.270  11.686
48282SOL    HW146743   6.526   6.220  11.625
48282SOL    HW246744   6.523   6.339  11.719
48283SOL     OW46745   9.762   8.534  13.663
48283SOL    HW146746   9.852   8.555  13.638
48283SOL    HW246747   9.770   8.459  13.722
48284SOL     OW46748  10.284  12.878   5.118
48284SOL    HW146749  10.333  12.796   5.120
48284SOL    HW246750  10.193  12.852   5.132
48285SOL     OW46751   6.100   5.515   0.304
48285SOL    HW146752   6.131   5.604   0.317
48285SOL    HW246753   6.154   5.462   0.363
48286SOL     OW46754   2.198   5.435   1.646
48286SOL    HW146755   2.292   5.450   1.636
48286SOL    HW246756   2.185   5.434   1.741
48287SOL     OW46757  12.116   3.938   3.818
48287SOL    HW146758  12.081   3.960   3.904
48287SOL    HW246759  12.038   3.916   3.766
48288SOL     OW46760  10.250   5.936  10.523
48288SOL    HW146761  10.277   5.845  10.510
48288SOL    HW246762  10.277   5.980  10.442
48289SOL     OW46763   9.599   7.631   0.397
48289SOL    HW146764   9.682   7.597   0.429
48289SOL    HW246765   9.538   7.559   0.407
48290SOL     OW46766  11.971   4.084   4.009
48290SOL    HW146767  12.028   4.149   3.968
48290SOL    HW246768  11.961   4.115   4.100
48291SOL     OW46769  11.347   5.607  12.457
48291SOL    HW146770  11.277   5.671  12.446
48291SOL    HW246771  11.421   5.643  12.408
48292SOL     OW46772   6.079   8.490   3.832
48292SOL    HW146773   6.075   8.399   3.803
48292SOL    HW246774   6.062   8.486   3.926
48293SOL     OW46775  13.341   2.100  12.160
48293SOL    HW146776  13.345   2.086  12.254
48293SOL    HW246777  13.385   2.024  12.122
48294SOL     OW46778   0.189  13.707  13.769
48294SOL    HW146779   0.216  13.616  13.779
48294SOL    HW246780   0.121  13.706  13.702
48295SOL     OW46781   6.050   4.714   0.416
48295SOL    HW146782   6.060   4.809   0.421
48295SOL    HW246783   6.033   4.696   0.324
48296SOL     OW46784  14.331   5.584  10.830
48296SOL    HW146785  14.329   5.488  10.830
48296SOL    HW246786  14.379   5.607  10.910
48297SOL     OW46787   9.907   4.750   8.443
48297SOL    HW146788   9.973   4.799   8.492
48297SOL    HW246789   9.889   4.673   8.497
48298SOL     OW46790  10.984  12.881   0.688
48298SOL    HW146791  11.051  12.818   0.713
48298SOL    HW246792  10.901  12.834   0.701
48299SOL     OW46793   7.126  13.246   1.477
48299SOL    HW146794   7.094  13.251   1.567
48299SOL    HW246795   7.142  13.153   1.462
48300SOL     OW46796   6.224  13.346  10.999
48300SOL    HW146797   6.222  13.323  11.092
48300SOL    HW246798   6.132  13.350  10.974
48301SOL     OW46799  14.688   4.162   4.058
48301SOL    HW146800  14.768   4.112   4.073
48301SOL    HW246801  14.717   4.242   4.015
48302SOL     OW46802   1.335   2.144  11.761
48302SOL    HW146803   1.300   2.145  11.672
48302SOL    HW246804   1.413   2.199  11.756
48303SOL     OW46805   9.648   7.114   6.399
48303SOL    HW146806   9.597   7.089   6.476
48303SOL    HW246807   9.704   7.038   6.382
48304SOL     OW46808  13.091  13.671   8.332
48304SOL    HW146809  13.117  13.580   8.348
48304SOL    HW246810  13.098  13.681   8.237
48305SOL     OW46811   2.942  12.435  12.284
48305SOL    HW146812   3.026  12.438  12.239
48305SOL    HW246813   2.878  12.451  12.215
48306SOL     OW46814   0.995  13.219   3.928
48306SOL    HW146815   0.903  13.195   3.914
48306SOL    HW246816   1.001  13.310   3.897
48307SOL     OW46817  12.398   6.629   4.728
48307SOL    HW146818  12.456   6.601   4.657
48307SOL    HW246819  12.444   6.703   4.768
48308SOL     OW46820   8.553   9.635  11.699
48308SOL    HW146821   8.567   9.622  11.605
48308SOL    HW246822   8.592   9.721  11.717
48309SOL     OW46823   2.060   5.224   0.260
48309SOL    HW146824   1.977   5.270   0.246
48309SOL    HW246825   2.102   5.223   0.174
48310SOL     OW46826   2.118  14.435  14.080
48310SOL    HW146827   2.145  14.429  14.171
48310SOL    HW246828   2.118  14.529  14.061
48311SOL     OW46829   1.423   6.551   8.516
48311SOL    HW146830   1.437   6.459   8.539
48311SOL    HW246831   1.480   6.565   8.440
48312SOL     OW46832  13.972   0.196   2.901
48312SOL    HW146833  13.976   0.288   2.874
48312SOL    HW246834  14.063   0.166   2.897
48313SOL     OW46835   1.873  11.407  11.163
48313SOL    HW146836   1.952  11.381  11.210
48313SOL    HW246837   1.862  11.500  11.182
48314SOL     OW46838   0.358  11.258   9.797
48314SOL    HW146839   0.327  11.171   9.822
48314SOL    HW246840   0.304  11.318   9.848
48315SOL     OW46841   7.428   9.228  13.493
48315SOL    HW146842   7.361   9.159  13.491
48315SOL    HW246843   7.451   9.236  13.585
48316SOL     OW46844  13.040   1.593  13.044
48316SOL    HW146845  12.986   1.561  13.116
48316SOL    HW246846  13.056   1.516  12.990
48317SOL     OW46847   0.314   6.144  14.456
48317SOL    HW146848   0.330   6.124  14.548
48317SOL    HW246849   0.284   6.235  14.456
48318SOL     OW46850   3.510  12.092   0.922
48318SOL    HW146851   3.524  12.185   0.938
48318SOL    HW246852   3.540  12.078   0.832
48319SOL     OW46853  12.550   8.065  13.077
48319SOL    HW146854  12.610   8.016  13.133
48319SOL    HW246855  12.553   8.020  12.992
48320SOL     OW46856   1.349   7.422  13.946
48320SOL    HW146857   1.256   7.405  13.931
48320SOL    HW246858   1.353   7.513  13.974
48321SOL     OW46859   6.963  13.260   5.233
48321SOL    HW146860   6.966  13.172   5.269
48321SOL    HW246861   6.965  13.318   5.310
48322SOL     OW46862   1.278  10.885   5.337
48322SOL    HW146863   1.219  10.814   5.311
48322SOL    HW246864   1.316  10.916   5.255
48323SOL     OW46865  11.992  14.694   9.205
48323SOL    HW146866  12.051  14.732   9.270
48323SOL    HW246867  11.920  14.757   9.198
48324SOL     OW46868  14.617   1.020   8.174
48324SOL    HW146869  14.687   0.956   8.172
48324SOL    HW246870  14.553   0.984   8.237
48325SOL     OW46871   2.049   6.078   2.200
48325SOL    HW146872   2.102   6.142   2.247
48325SOL    HW246873   2.112   6.013   2.169
48326SOL     OW46874   2.531   7.703   8.227
48326SOL    HW146875   2.555   7.619   8.187
48326SOL    HW246876   2.509   7.759   8.153
48327SOL     OW46877   6.228   1.918  10.921
48327SOL    HW146878   6.134   1.935  10.927
48327SOL    HW246879   6.257   1.912  11.012
48328SOL     OW46880  14.793   6.555   2.872
48328SOL    HW146881  14.739   6.559   2.792
48328SOL    HW246882  14.867   6.499   2.848
48329SOL     OW46883  10.739   2.971   9.177
48329SOL    HW146884  10.782   2.986   9.093
48329SOL    HW246885  10.794   2.906   9.221
48330SOL     OW46886  14.261   5.613   9.602
48330SOL    HW146887  14.195   5.604   9.671
48330SOL    HW246888  14.345   5.598   9.647
48331SOL     OW46889   8.740  11.079   8.676
48331SOL    HW146890   8.661  11.133   8.684
48331SOL    HW246891   8.805  11.136   8.636
48332SOL     OW46892   6.434   9.243  13.520
48332SOL    HW146893   6.437   9.163  13.573
48332SOL    HW246894   6.524   9.275  13.521
48333SOL     OW46895   2.482   9.954   0.533
48333SOL    HW146896   2.467  10.008   0.456
48333SOL    HW246897   2.425   9.878   0.522
48334SOL     OW46898   9.338   5.985   1.808
48334SOL    HW146899   9.365   5.906   1.854
48334SOL    HW246900   9.311   5.955   1.721
48335SOL     OW46901  10.631  10.916   1.175
48335SOL    HW146902  10.668  10.903   1.088
48335SOL    HW246903  10.693  10.874   1.234
48336SOL     OW46904  11.449  13.391   8.592
48336SOL    HW146905  11.490  13.463   8.545
48336SOL    HW246906  11.521  13.329   8.608
48337SOL     OW46907   2.729   1.934   7.063
48337SOL    HW146908   2.713   2.028   7.059
48337SOL    HW246909   2.824   1.925   7.069
48338SOL     OW46910   7.039   9.122   3.184
48338SOL    HW146911   7.069   9.057   3.121
48338SOL    HW246912   7.116   9.142   3.237
48339SOL     OW46913   7.036   2.421   4.954
48339SOL    HW146914   7.095   2.345   4.955
48339SOL    HW246915   6.955   2.390   4.992
48340SOL     OW46916   7.679   1.206   1.766
48340SOL    HW146917   7.607   1.180   1.824
48340SOL    HW246918   7.645   1.195   1.678
48341SOL     OW46919   6.392  13.590   0.966
48341SOL    HW146920   6.466  13.634   1.007
48341SOL    HW246921   6.321  13.654   0.967
48342SOL     OW46922   2.684  10.890  10.338
48342SOL    HW146923   2.700  10.918  10.428
48342SOL    HW246924   2.660  10.970  10.292
48343SOL     OW46925   9.212   1.190   3.877
48343SOL    HW146926   9.145   1.207   3.811
48343SOL    HW246927   9.170   1.209   3.960
48344SOL     OW46928  12.037   3.972   1.024
48344SOL    HW146929  12.086   4.027   1.085
48344SOL    HW246930  11.965   3.937   1.076
48345SOL     OW46931   8.935   1.603   2.481
48345SOL    HW146932   8.863   1.539   2.486
48345SOL    HW246933   8.893   1.683   2.447
48346SOL     OW46934   5.917   5.395   9.001
48346SOL    HW146935   5.903   5.328   9.068
48346SOL    HW246936   5.878   5.474   9.038
48347SOL     OW46937  10.659   0.861   1.265
48347SOL    HW146938  10.633   0.833   1.177
48347SOL    HW246939  10.749   0.829   1.275
48348SOL     OW46940  13.789   4.366   2.141
48348SOL    HW146941  13.715   4.392   2.197
48348SOL    HW246942  13.819   4.283   2.178
48349SOL     OW46943   7.088   7.440   4.079
48349SOL    HW146944   7.179   7.462   4.060
48349SOL    HW246945   7.039   7.518   4.054
48350SOL     OW46946  14.755   8.662  10.016
48350SOL    HW146947  14.762   8.709   9.933
48350SOL    HW246948  14.721   8.576   9.993
48351SOL     OW46949   8.993   5.400   6.124
48351SOL    HW146950   8.911   5.412   6.172
48351SOL    HW246951   8.968   5.348   6.048
48352SOL     OW46952   0.332  14.635  12.490
48352SOL    HW146953   0.387  14.556  12.497
48352SOL    HW246954   0.262  14.611  12.430
48353SOL     OW46955   7.040   2.548  14.019
48353SOL    HW146956   7.127   2.536  13.983
48353SOL    HW246957   7.022   2.467  14.067
48354SOL     OW46958  11.103   1.739  14.783
48354SOL    HW146959  11.177   1.798  14.769
48354SOL    HW246960  11.144   1.656  14.810
48355SOL     OW46961   2.241  10.024   8.272
48355SOL    HW146962   2.301  10.087   8.311
48355SOL    HW246963   2.171  10.078   8.235
48356SOL     OW46964   7.713   4.208   7.082
48356SOL    HW146965   7.662   4.231   7.004
48356SOL    HW246966   7.712   4.113   7.084
48357SOL     OW46967   3.015   1.809  14.810
48357SOL    HW146968   2.991   1.830   0.013
48357SOL    HW246969   3.024   1.714  14.810
48358SOL     OW46970   1.879   4.998   9.043
48358SOL    HW146971   1.933   4.954   8.978
48358SOL    HW246972   1.941   5.024   9.111
48359SOL     OW46973   3.696   5.396   7.373
48359SOL    HW146974   3.613   5.351   7.385
48359SOL    HW246975   3.681   5.484   7.406
48360SOL     OW46976  10.852  12.812  14.269
48360SOL    HW146977  10.940  12.811  14.232
48360SOL    HW246978  10.835  12.722  14.296
48361SOL     OW46979  10.684   1.514   4.717
48361SOL    HW146980  10.751   1.517   4.785
48361SOL    HW246981  10.659   1.422   4.712
48362SOL     OW46982   7.018  10.660   5.727
48362SOL    HW146983   7.102  10.624   5.699
48362SOL    HW246984   6.975  10.588   5.773
48363SOL     OW46985   2.203  12.238  11.189
48363SOL    HW146986   2.172  12.323  11.159
48363SOL    HW246987   2.179  12.236  11.282
48364SOL     OW46988   4.925  10.286   5.175
48364SOL    HW146989   4.879  10.297   5.258
48364SOL    HW246990   4.856  10.275   5.110
48365SOL     OW46991  14.679   1.469  13.536
48365SOL    HW146992  14.657   1.402  13.471
48365SOL    HW246993  14.709   1.420  13.612
48366SOL     OW46994   7.544   6.970   5.741
48366SOL    HW146995   7.636   6.949   5.725
48366SOL    HW246996   7.536   7.062   5.716
48367SOL     OW46997   8.200   8.212  11.635
48367SOL    HW146998   8.172   8.299  11.605
48367SOL    HW246999   8.281   8.229  11.684
48368SOL     OW47000  12.503   8.019   7.366
48368SOL    HW147001  12.448   8.025   7.287
48368SOL    HW247002  12.487   8.100   7.413
48369SOL     OW47003   1.719  13.569  10.785
48369SOL    HW147004   1.700  13.662  10.771
48369SOL    HW247005   1.815  13.565  10.790
48370SOL     OW47006   6.017   2.815   9.656
48370SOL    HW147007   5.929   2.816   9.618
48370SOL    HW247008   6.071   2.771   9.590
48371SOL     OW47009   7.227  13.462  13.488
48371SOL    HW147010   7.201  13.371  13.477
48371SOL    HW247011   7.295  13.475  13.422
48372SOL     OW47012  11.940   0.850  11.218
48372SOL    HW147013  11.928   0.776  11.159
48372SOL    HW247014  11.965   0.810  11.302
48373SOL     OW47015   3.674   6.378   5.467
48373SOL    HW147016   3.742   6.422   5.519
48373SOL    HW247017   3.592   6.418   5.497
48374SOL     OW47018   6.641   2.160   7.306
48374SOL    HW147019   6.606   2.097   7.369
48374SOL    HW247020   6.624   2.120   7.220
48375SOL     OW47021  10.559   0.181   9.803
48375SOL    HW147022  10.487   0.179   9.740
48375SOL    HW247023  10.627   0.127   9.763
48376SOL     OW47024   7.694  13.655  10.297
48376SOL    HW147025   7.768  13.699  10.338
48376SOL    HW247026   7.616  13.696  10.336
48377SOL     OW47027   1.668   3.731   0.944
48377SOL    HW147028   1.586   3.719   0.993
48377SOL    HW247029   1.641   3.779   0.866
48378SOL     OW47030   4.526  12.931  10.477
48378SOL    HW147031   4.437  12.950  10.448
48378SOL    HW247032   4.524  12.949  10.571
48379SOL     OW47033  12.169   5.264   5.347
48379SOL    HW147034  12.183   5.348   5.304
48379SOL    HW247035  12.192   5.199   5.280
48380SOL     OW47036   8.621   2.009  10.578
48380SOL    HW147037   8.714   1.986  10.575
48380SOL    HW247038   8.578   1.939  10.529
48381SOL     OW47039   5.996   9.318   1.257
48381SOL    HW147040   6.029   9.254   1.193
48381SOL    HW247041   6.074   9.361   1.290
48382SOL     OW47042   0.012  12.599   2.992
48382SOL    HW147043  14.877  12.571   2.903
48382SOL    HW247044   0.100  12.562   3.007
48383SOL     OW47045  13.105  12.350   0.697
48383SOL    HW147046  13.108  12.267   0.649
48383SOL    HW247047  13.154  12.333   0.777
48384SOL     OW47048   0.767  13.589   8.017
48384SOL    HW147049   0.786  13.658   7.953
48384SOL    HW247050   0.696  13.538   7.977
48385SOL     OW47051  13.658   1.957   3.456
48385SOL    HW147052  13.726   1.900   3.421
48385SOL    HW247053  13.686   2.045   3.431
48386SOL     OW47054   7.165   3.390   8.573
48386SOL    HW147055   7.105   3.438   8.630
48386SOL    HW247056   7.193   3.455   8.509
48387SOL     OW47057  12.220  12.801   3.055
48387SOL    HW147058  12.240  12.883   3.010
48387SOL    HW247059  12.305  12.760   3.070
48388SOL     OW47060   5.967  13.651   5.553
48388SOL    HW147061   5.938  13.575   5.503
48388SOL    HW247062   6.040  13.618   5.606
48389SOL     OW47063  12.011  11.297  11.058
48389SOL    HW147064  12.078  11.248  11.106
48389SOL    HW247065  11.947  11.321  11.124
48390SOL     OW47066   8.432  13.187   8.745
48390SOL    HW147067   8.419  13.108   8.797
48390SOL    HW247068   8.516  13.222   8.775
48391SOL     OW47069   0.166  13.034   2.426
48391SOL    HW147070   0.086  13.012   2.475
48391SOL    HW247071   0.237  13.004   2.482
48392SOL     OW47072   2.496   4.372   5.333
48392SOL    HW147073   2.537   4.390   5.248
48392SOL    HW247074   2.417   4.426   5.333
48393SOL     OW47075   0.803  13.411   4.869
48393SOL    HW147076   0.788  13.472   4.941
48393SOL    HW247077   0.881  13.362   4.896
48394SOL     OW47078  10.230   7.032   8.454
48394SOL    HW147079  10.160   6.966   8.451
48394SOL    HW247080  10.250   7.050   8.362
48395SOL     OW47081   6.967   1.568  11.157
48395SOL    HW147082   6.897   1.552  11.093
48395SOL    HW247083   7.035   1.504  11.135
48396SOL     OW47084   2.970   9.626   6.457
48396SOL    HW147085   2.893   9.648   6.403
48396SOL    HW247086   3.038   9.605   6.393
48397SOL     OW47087  14.083   8.412   5.842
48397SOL    HW147088  14.162   8.443   5.886
48397SOL    HW247089  14.019   8.481   5.857
48398SOL     OW47090  10.350   8.998  11.931
48398SOL    HW147091  10.431   8.965  11.970
48398SOL    HW247092  10.321   9.067  11.991
48399SOL     OW47093   9.487  10.932   0.731
48399SOL    HW147094   9.450  10.979   0.806
48399SOL    HW247095   9.413  10.915   0.674
48400SOL     OW47096   6.915   2.186   2.789
48400SOL    HW147097   6.924   2.098   2.827
48400SOL    HW247098   6.830   2.185   2.745
48401SOL     OW47099   3.403   7.083   5.304
48401SOL    HW147100   3.479   7.140   5.296
48401SOL    HW247101   3.408   7.047   5.392
48402SOL     OW47102   9.773   8.179  13.232
48402SOL    HW147103   9.845   8.116  13.239
48402SOL    HW247104   9.777   8.229  13.313
48403SOL     OW47105  13.301   8.917   1.332
48403SOL    HW147106  13.339   8.969   1.404
48403SOL    HW247107  13.293   8.978   1.260
48404SOL     OW47108   0.950   5.181  12.335
48404SOL    HW147109   0.934   5.202  12.427
48404SOL    HW247110   1.039   5.213  12.319
48405SOL     OW47111   7.606   8.886  12.346
48405SOL    HW147112   7.680   8.829  12.363
48405SOL    HW247113   7.572   8.858  12.261
48406SOL     OW47114   9.522   2.168   0.609
48406SOL    HW147115   9.436   2.141   0.576
48406SOL    HW247116   9.502   2.243   0.665
48407SOL     OW47117  13.390   1.616  13.524
48407SOL    HW147118  13.308   1.641  13.568
48407SOL    HW247119  13.399   1.679  13.453
48408SOL     OW47120   4.066   8.385  11.003
48408SOL    HW147121   4.056   8.376  10.908
48408SOL    HW247122   4.052   8.296  11.037
48409SOL     OW47123  12.661   5.511   5.834
48409SOL    HW147124  12.747   5.550   5.818
48409SOL    HW247125  12.675   5.417   5.827
48410SOL     OW47126   7.968   3.512   3.596
48410SOL    HW147127   8.039   3.450   3.580
48410SOL    HW247128   7.903   3.491   3.529
48411SOL     OW47129   5.175   7.535  10.788
48411SOL    HW147130   5.198   7.603  10.724
48411SOL    HW247131   5.164   7.582  10.870
48412SOL     OW47132   4.022  12.446   2.471
48412SOL    HW147133   4.111  12.457   2.436
48412SOL    HW247134   4.034  12.392   2.549
48413SOL     OW47135   9.551   4.475  14.310
48413SOL    HW147136   9.467   4.488  14.355
48413SOL    HW247137   9.595   4.559  14.318
48414SOL     OW47138   5.934   6.226   4.436
48414SOL    HW147139   5.984   6.224   4.518
48414SOL    HW247140   5.976   6.295   4.384
48415SOL     OW47141  13.520   9.474  11.282
48415SOL    HW147142  13.476   9.540  11.336
48415SOL    HW247143  13.556   9.412  11.345
48416SOL     OW47144   6.775   3.667   9.849
48416SOL    HW147145   6.701   3.727   9.837
48416SOL    HW247146   6.806   3.649   9.760
48417SOL     OW47147  12.572  11.703  13.879
48417SOL    HW147148  12.508  11.669  13.817
48417SOL    HW247149  12.656  11.696  13.833
48418SOL     OW47150   6.214   4.360  14.537
48418SOL    HW147151   6.267   4.324  14.466
48418SOL    HW247152   6.277   4.388  14.603
48419SOL     OW47153   0.986   4.011  10.818
48419SOL    HW147154   0.947   4.031  10.733
48419SOL    HW247155   1.071   4.055  10.817
48420SOL     OW47156   1.659   4.414   7.352
48420SOL    HW147157   1.711   4.427   7.272
48420SOL    HW247158   1.604   4.491   7.358
48421SOL     OW47159  14.154  14.195   3.545
48421SOL    HW147160  14.234  14.163   3.503
48421SOL    HW247161  14.094  14.120   3.543
48422SOL     OW47162   7.884  11.443   1.661
48422SOL    HW147163   7.876  11.490   1.744
48422SOL    HW247164   7.863  11.508   1.594
48423SOL     OW47165   9.819   2.425  10.764
48423SOL    HW147166   9.833   2.369  10.687
48423SOL    HW247167   9.892   2.488  10.761
48424SOL     OW47168  14.071   1.349   8.745
48424SOL    HW147169  14.031   1.311   8.667
48424SOL    HW247170  14.095   1.273   8.799
48425SOL     OW47171   4.029  14.030   1.254
48425SOL    HW147172   4.021  14.045   1.348
48425SOL    HW247173   4.008  14.115   1.214
48426SOL     OW47174   6.577  14.432   1.179
48426SOL    HW147175   6.516  14.427   1.253
48426SOL    HW247176   6.525  14.472   1.109
48427SOL     OW47177   1.857  10.497   6.572
48427SOL    HW147178   1.917  10.504   6.498
48427SOL    HW247179   1.770  10.493   6.532
48428SOL     OW47180   8.127   5.368   6.431
48428SOL    HW147181   8.066   5.372   6.357
48428SOL    HW247182   8.155   5.459   6.444
48429SOL     OW47183  12.519   2.665   5.952
48429SOL    HW147184  12.473   2.614   6.018
48429SOL    HW247185  12.484   2.635   5.869
48430SOL     OW47186   6.967   9.808  11.951
48430SOL    HW147187   7.001   9.741  12.011
48430SOL    HW247188   6.900   9.854  12.003
48431SOL     OW47189   8.852   8.909   6.878
48431SOL    HW147190   8.810   8.825   6.862
48431SOL    HW247191   8.816   8.938   6.961
48432SOL     OW47192   3.774  13.372   8.622
48432SOL    HW147193   3.850  13.367   8.680
48432SOL    HW247194   3.802  13.327   8.542
48433SOL     OW47195  10.283  11.432   1.829
48433SOL    HW147196  10.358  11.474   1.787
48433SOL    HW247197  10.251  11.497   1.891
48434SOL     OW47198   8.887  12.743  11.731
48434SOL    HW147199   8.906  12.651  11.749
48434SOL    HW247200   8.967  12.789  11.757
48435SOL     OW47201   1.142   8.742   9.236
48435SOL    HW147202   1.145   8.653   9.201
48435SOL    HW247203   1.124   8.730   9.329
48436SOL     OW47204   2.520   8.254  11.906
48436SOL    HW147205   2.571   8.186  11.863
48436SOL    HW247206   2.460   8.205  11.964
48437SOL     OW47207   3.930   4.273   2.770
48437SOL    HW147208   3.869   4.214   2.725
48437SOL    HW247209   3.897   4.361   2.751
48438SOL     OW47210   1.172  14.107  10.116
48438SOL    HW147211   1.203  14.116  10.206
48438SOL    HW247212   1.250  14.124  10.063
48439SOL     OW47213  13.910  13.386   4.717
48439SOL    HW147214  13.970  13.454   4.747
48439SOL    HW247215  13.846  13.433   4.663
48440SOL     OW47216   7.617   3.882   7.793
48440SOL    HW147217   7.571   3.885   7.709
48440SOL    HW247218   7.598   3.795   7.828
48441SOL     OW47219  13.952  13.921   8.046
48441SOL    HW147220  14.017  13.952   8.108
48441SOL    HW247221  13.868  13.950   8.082
48442SOL     OW47222   0.032  10.839  11.800
48442SOL    HW147223  14.863  10.858  11.725
48442SOL    HW247224  14.858  10.825  11.873
48443SOL     OW47225   8.727   4.558   4.230
48443SOL    HW147226   8.677   4.495   4.178
48443SOL    HW247227   8.777   4.505   4.291
48444SOL     OW47228  13.255  13.423   4.309
48444SOL    HW147229  13.318  13.484   4.270
48444SOL    HW247230  13.189  13.480   4.348
48445SOL     OW47231   9.297   9.899  11.766
48445SOL    HW147232   9.325   9.809  11.781
48445SOL    HW247233   9.266   9.900  11.676
48446SOL     OW47234   4.449   6.143   4.771
48446SOL    HW147235   4.430   6.209   4.705
48446SOL    HW247236   4.535   6.108   4.746
48447SOL     OW47237  10.987  13.928   1.246
48447SOL    HW147238  10.950  13.982   1.176
48447SOL    HW247239  11.061  13.883   1.205
48448SOL     OW47240  13.702  11.041   9.374
48448SOL    HW147241  13.708  11.018   9.467
48448SOL    HW247242  13.718  10.958   9.329
48449SOL     OW47243  10.601   1.458   5.833
48449SOL    HW147244  10.576   1.482   5.744
48449SOL    HW247245  10.688   1.419   5.824
48450SOL     OW47246  10.063   2.115  11.293
48450SOL    HW147247  10.062   2.209  11.312
48450SOL    HW247248   9.976   2.097  11.257
48451SOL     OW47249   7.419  11.954   8.621
48451SOL    HW147250   7.511  11.927   8.614
48451SOL    HW247251   7.373  11.894   8.562
48452SOL     OW47252   0.665  11.805   3.332
48452SOL    HW147253   0.585  11.852   3.354
48452SOL    HW247254   0.702  11.854   3.259
48453SOL     OW47255   2.749   2.237  11.630
48453SOL    HW147256   2.775   2.313  11.577
48453SOL    HW247257   2.695   2.185  11.571
48454SOL     OW47258  14.855  13.925   4.751
48454SOL    HW147259   0.057  13.958   4.762
48454SOL    HW247260  14.851  13.895   4.661
48455SOL     OW47261  13.275  13.215   3.112
48455SOL    HW147262  13.303  13.244   3.199
48455SOL    HW247263  13.276  13.295   3.059
48456SOL     OW47264  13.318   2.583   6.481
48456SOL    HW147265  13.382   2.523   6.520
48456SOL    HW247266  13.238   2.567   6.531
48457SOL     OW47267   8.701   6.817   5.118
48457SOL    HW147268   8.665   6.732   5.143
48457SOL    HW247269   8.636   6.880   5.150
48458SOL     OW47270   9.935  14.551  12.847
48458SOL    HW147271   9.847  14.516  12.863
48458SOL    HW247272   9.922  14.618  12.780
48459SOL     OW47273   2.703   1.266   1.238
48459SOL    HW147274   2.730   1.284   1.148
48459SOL    HW247275   2.611   1.241   1.232
48460SOL     OW47276   7.580   6.608   1.633
48460SOL    HW147277   7.615   6.610   1.544
48460SOL    HW247278   7.564   6.515   1.649
48461SOL     OW47279   0.905   4.637  14.409
48461SOL    HW147280   0.811   4.619  14.400
48461SOL    HW247281   0.924   4.702  14.341
48462SOL     OW47282  12.894   5.115  10.736
48462SOL    HW147283  12.966   5.054  10.754
48462SOL    HW247284  12.938   5.199  10.720
48463SOL     OW47285   7.217   6.193  13.231
48463SOL    HW147286   7.269   6.185  13.151
48463SOL    HW247287   7.128   6.170  13.204
48464SOL     OW47288  12.838   1.447   4.789
48464SOL    HW147289  12.766   1.396   4.751
48464SOL    HW247290  12.873   1.391   4.859
48465SOL     OW47291   0.678   4.498   2.105
48465SOL    HW147292   0.677   4.409   2.142
48465SOL    HW247293   0.611   4.495   2.035
48466SOL     OW47294   8.391  12.491   5.982
48466SOL    HW147295   8.302  12.457   5.993
48466SOL    HW247296   8.393  12.570   6.037
48467SOL     OW47297  10.952   6.255   4.430
48467SOL    HW147298  10.899   6.195   4.481
48467SOL    HW247299  10.899   6.275   4.353
48468SOL     OW47300   9.182  13.722  11.246
48468SOL    HW147301   9.242  13.670  11.193
48468SOL    HW247302   9.171  13.672  11.327
48469SOL     OW47303  11.633   8.496   7.311
48469SOL    HW147304  11.544   8.529   7.298
48469SOL    HW247305  11.686   8.541   7.245
48470SOL     OW47306   4.859   0.100   3.180
48470SOL    HW147307   4.940   0.148   3.195
48470SOL    HW247308   4.832   0.125   3.092
48471SOL     OW47309   3.694   3.370   9.892
48471SOL    HW147310   3.698   3.446   9.834
48471SOL    HW247311   3.717   3.296   9.836
48472SOL     OW47312  14.593   4.726   5.952
48472SOL    HW147313  14.513   4.707   6.001
48472SOL    HW247314  14.565   4.738   5.862
48473SOL     OW47315  14.240  12.151   0.985
48473SOL    HW147316  14.210  12.111   0.904
48473SOL    HW247317  14.285  12.081   1.032
48474SOL     OW47318  10.734   1.014  14.372
48474SOL    HW147319  10.819   0.991  14.334
48474SOL    HW247320  10.712   0.941  14.429
48475SOL     OW47321   7.721  10.378  10.747
48475SOL    HW147322   7.735  10.406  10.837
48475SOL    HW247323   7.655  10.439  10.713
48476SOL     OW47324   5.653  13.183   1.451
48476SOL    HW147325   5.622  13.120   1.517
48476SOL    HW247326   5.599  13.166   1.375
48477SOL     OW47327   2.881   9.839  10.568
48477SOL    HW147328   2.842   9.757  10.599
48477SOL    HW247329   2.908   9.884  10.648
48478SOL     OW47330  11.735   3.250   9.014
48478SOL    HW147331  11.666   3.256   9.081
48478SOL    HW247332  11.687   3.241   8.932
48479SOL     OW47333   1.782  11.552   3.468
48479SOL    HW147334   1.858  11.594   3.428
48479SOL    HW247335   1.783  11.584   3.559
48480SOL     OW47336  13.097  10.158   8.061
48480SOL    HW147337  13.085  10.253   8.059
48480SOL    HW247338  13.180  10.144   8.014
48481SOL     OW47339  12.527   3.896   4.410
48481SOL    HW147340  12.609   3.944   4.401
48481SOL    HW247341  12.478   3.916   4.330
48482SOL     OW47342  13.588   0.371  10.851
48482SOL    HW147343  13.646   0.408  10.784
48482SOL    HW247344  13.527   0.441  10.872
48483SOL     OW47345   5.230  13.282   1.773
48483SOL    HW147346   5.154  13.229   1.796
48483SOL    HW247347   5.204  13.328   1.693
48484SOL     OW47348   2.815  12.018   9.193
48484SOL    HW147349   2.886  12.051   9.247
48484SOL    HW247350   2.754  11.978   9.255
48485SOL     OW47351   0.203   1.229   2.676
48485SOL    HW147352   0.248   1.294   2.730
48485SOL    HW247353   0.140   1.280   2.625
48486SOL     OW47354   5.888  14.385   1.397
48486SOL    HW147355   5.877  14.471   1.356
48486SOL    HW247356   5.869  14.400   1.490
48487SOL     OW47357   8.838  12.935   1.124
48487SOL    HW147358   8.776  12.921   1.195
48487SOL    HW247359   8.913  12.978   1.165
48488SOL     OW47360   3.797   8.634   4.681
48488SOL    HW147361   3.845   8.661   4.760
48488SOL    HW247362   3.710   8.674   4.692
48489SOL     OW47363  12.314   4.730  14.344
48489SOL    HW147364  12.239   4.688  14.386
48489SOL    HW247365  12.390   4.695  14.391
48490SOL     OW47366   4.448   9.436  14.287
48490SOL    HW147367   4.536   9.399  14.293
48490SOL    HW247368   4.462   9.530  14.275
48491SOL     OW47369   0.204   5.326   2.742
48491SOL    HW147370   0.206   5.382   2.820
48491SOL    HW247371   0.295   5.325   2.711
48492SOL     OW47372   5.869   4.247  12.292
48492SOL    HW147373   5.842   4.195  12.216
48492SOL    HW247374   5.884   4.182  12.361
48493SOL     OW47375  14.040   9.911   3.697
48493SOL    HW147376  14.055  10.005   3.698
48493SOL    HW247377  14.124   9.873   3.721
48494SOL     OW47378  13.650   7.318   4.356
48494SOL    HW147379  13.614   7.250   4.298
48494SOL    HW247380  13.720   7.359   4.305
48495SOL     OW47381   9.251   7.665   1.290
48495SOL    HW147382   9.246   7.672   1.195
48495SOL    HW247383   9.166   7.630   1.316
48496SOL     OW47384  13.740  10.671  14.235
48496SOL    HW147385  13.732  10.637  14.146
48496SOL    HW247386  13.654  10.657  14.274
48497SOL     OW47387  10.286  10.216  12.299
48497SOL    HW147388  10.262  10.179  12.214
48497SOL    HW247389  10.205  10.254  12.332
48498SOL     OW47390   1.959  13.815  12.109
48498SOL    HW147391   1.891  13.856  12.162
48498SOL    HW247392   2.041  13.851  12.142
48499SOL     OW47393   5.506   8.353   9.644
48499SOL    HW147394   5.449   8.335   9.569
48499SOL    HW247395   5.551   8.271   9.661
48500SOL     OW47396   5.518  14.305  14.535
48500SOL    HW147397   5.454  14.376  14.541
48500SOL    HW247398   5.593  14.344  14.492
48501SOL     OW47399   5.264   3.092   7.723
48501SOL    HW147400   5.351   3.131   7.728
48501SOL    HW247401   5.268   3.017   7.783
48502SOL     OW47402  10.022   7.642  11.370
48502SOL    HW147403  10.014   7.550  11.395
48502SOL    HW247404   9.941   7.660  11.322
48503SOL     OW47405   2.340   3.880   5.525
48503SOL    HW147406   2.424   3.835   5.531
48503SOL    HW247407   2.360   3.972   5.541
48504SOL     OW47408  11.401   6.478   7.738
48504SOL    HW147409  11.407   6.451   7.829
48504SOL    HW247410  11.343   6.414   7.697
48505SOL     OW47411   2.231  10.031  12.121
48505SOL    HW147412   2.150  10.004  12.078
48505SOL    HW247413   2.269  10.096  12.062
48506SOL     OW47414   3.201   0.550   4.635
48506SOL    HW147415   3.110   0.521   4.649
48506SOL    HW247416   3.250   0.469   4.623
48507SOL     OW47417  10.655   5.229   4.990
48507SOL    HW147418  10.678   5.206   5.080
48507SOL    HW247419  10.609   5.151   4.957
48508SOL     OW47420   0.643   9.832   9.001
48508SOL    HW147421   0.592   9.751   9.003
48508SOL    HW247422   0.602   9.884   8.931
48509SOL     OW47423   8.609  14.423   6.076
48509SOL    HW147424   8.666  14.347   6.070
48509SOL    HW247425   8.635  14.479   6.003
48510SOL     OW47426  12.943  14.040   9.911
48510SOL    HW147427  12.956  13.966   9.852
48510SOL    HW247428  12.867  14.086   9.876
48511SOL     OW47429  11.494  14.621   8.107
48511SOL    HW147430  11.479  14.609   8.201
48511SOL    HW247431  11.528  14.711   8.100
48512SOL     OW47432   4.304   5.796   9.518
48512SOL    HW147433   4.340   5.723   9.467
48512SOL    HW247434   4.330   5.777   9.608
48513SOL     OW47435  10.524   7.298   5.891
48513SOL    HW147436  10.501   7.250   5.970
48513SOL    HW247437  10.618   7.312   5.898
48514SOL     OW47438   6.679   8.673  13.879
48514SOL    HW147439   6.611   8.606  13.890
48514SOL    HW247440   6.631   8.756  13.875
48515SOL     OW47441   7.485  12.966  14.078
48515SOL    HW147442   7.498  12.952  13.984
48515SOL    HW247443   7.468  12.878  14.113
48516SOL     OW47444  10.906   8.986   5.891
48516SOL    HW147445  10.824   8.937   5.881
48516SOL    HW247446  10.913   9.001   5.985
48517SOL     OW47447   9.280   4.654  11.123
48517SOL    HW147448   9.308   4.717  11.190
48517SOL    HW247449   9.319   4.571  11.151
48518SOL     OW47450   8.286   7.933   6.625
48518SOL    HW147451   8.336   7.913   6.705
48518SOL    HW247452   8.353   7.944   6.557
48519SOL     OW47453   2.502  10.495   9.253
48519SOL    HW147454   2.442  10.435   9.298
48519SOL    HW247455   2.548  10.539   9.324
48520SOL     OW47456   5.607  14.131   4.048
48520SOL    HW147457   5.620  14.220   4.081
48520SOL    HW247458   5.623  14.074   4.123
48521SOL     OW47459   4.452  14.550   1.516
48521SOL    HW147460   4.497  14.521   1.595
48521SOL    HW247461   4.519  14.551   1.448
48522SOL     OW47462   4.584   4.574  10.761
48522SOL    HW147463   4.518   4.541  10.821
48522SOL    HW247464   4.660   4.592  10.816
48523SOL     OW47465  14.181   1.962   6.742
48523SOL    HW147466  14.134   1.921   6.668
48523SOL    HW247467  14.178   1.896   6.811
48524SOL     OW47468   0.456   5.517  11.914
48524SOL    HW147469   0.425   5.580  11.978
48524SOL    HW247470   0.415   5.435  11.938
48525SOL     OW47471   2.878   5.392  14.205
48525SOL    HW147472   2.898   5.308  14.247
48525SOL    HW247473   2.905   5.458  14.269
48526SOL     OW47474   5.284   2.331  10.008
48526SOL    HW147475   5.313   2.420  10.026
48526SOL    HW247476   5.316   2.279  10.083
48527SOL     OW47477   3.289   3.000  12.240
48527SOL    HW147478   3.244   3.065  12.294
48527SOL    HW247479   3.369   3.044  12.210
48528SOL     OW47480   3.680   8.701   6.611
48528SOL    HW147481   3.731   8.676   6.534
48528SOL    HW247482   3.633   8.780   6.584
48529SOL     OW47483  12.774   5.552  13.063
48529SOL    HW147484  12.725   5.627  13.029
48529SOL    HW247485  12.844   5.591  13.116
48530SOL     OW47486  12.500   8.738  14.081
48530SOL    HW147487  12.538   8.662  14.125
48530SOL    HW247488  12.538   8.813  14.125
48531SOL     OW47489   8.394   6.812   0.144
48531SOL    HW147490   8.399   6.882   0.210
48531SOL    HW247491   8.485   6.786   0.129
48532SOL     OW47492   0.700   1.917   8.985
48532SOL    HW147493   0.786   1.927   9.026
48532SOL    HW247494   0.710   1.843   8.925
48533SOL     OW47495   3.135  10.082   7.414
48533SOL    HW147496   3.091  10.131   7.483
48533SOL    HW247497   3.144   9.994   7.449
48534SOL     OW47498   1.753  14.792   9.436
48534SOL    HW147499   1.832  14.784   9.491
48534SOL    HW247500   1.777  14.857   9.370
48535SOL     OW47501  13.677   9.713   8.818
48535SOL    HW147502  13.633   9.744   8.897
48535SOL    HW247503  13.768   9.739   8.830
48536SOL     OW47504   5.539   1.887   0.952
48536SOL    HW147505   5.458   1.914   0.995
48536SOL    HW247506   5.571   1.966   0.909
48537SOL     OW47507   9.272  12.545   6.706
48537SOL    HW147508   9.332  12.584   6.643
48537SOL    HW247509   9.192  12.595   6.698
48538SOL     OW47510  10.717   6.562   3.903
48538SOL    HW147511  10.715   6.656   3.916
48538SOL    HW247512  10.810   6.539   3.905
48539SOL     OW47513   6.032   3.456   2.375
48539SOL    HW147514   5.946   3.486   2.346
48539SOL    HW247515   6.094   3.512   2.328
48540SOL     OW47516   0.197   4.587  13.960
48540SOL    HW147517   0.137   4.660  13.974
48540SOL    HW247518   0.144   4.522  13.913
48541SOL     OW47519   1.862  12.693   0.296
48541SOL    HW147520   1.850  12.704   0.391
48541SOL    HW247521   1.846  12.781   0.260
48542SOL     OW47522   1.410  14.792   4.161
48542SOL    HW147523   1.502  14.769   4.161
48542SOL    HW247524   1.406  14.876   4.116
48543SOL     OW47525   9.573  12.151   1.245
48543SOL    HW147526   9.549  12.087   1.179
48543SOL    HW247527   9.491  12.192   1.270
48544SOL     OW47528   1.703   6.645   1.759
48544SOL    HW147529   1.726   6.592   1.683
48544SOL    HW247530   1.697   6.583   1.831
48545SOL     OW47531   4.739   8.544   7.447
48545SOL    HW147532   4.750   8.452   7.472
48545SOL    HW247533   4.710   8.540   7.356
48546SOL     OW47534   2.648   8.814   7.994
48546SOL    HW147535   2.579   8.804   7.928
48546SOL    HW247536   2.718   8.861   7.948
48547SOL     OW47537  10.314   1.536   5.285
48547SOL    HW147538  10.402   1.572   5.273
48547SOL    HW247539  10.324   1.472   5.356
48548SOL     OW47540   5.397   4.129   3.531
48548SOL    HW147541   5.485   4.107   3.499
48548SOL    HW247542   5.389   4.223   3.514
48549SOL     OW47543  12.726   5.272   3.374
48549SOL    HW147544  12.690   5.197   3.421
48549SOL    HW247545  12.674   5.277   3.294
48550SOL     OW47546   4.751   5.874  14.585
48550SOL    HW147547   4.804   5.950  14.605
48550SOL    HW247548   4.810   5.814  14.540
48551SOL     OW47549   2.043   9.352   7.170
48551SOL    HW147550   1.997   9.362   7.254
48551SOL    HW247551   1.976   9.372   7.104
48552SOL     OW47552  10.785   4.925   4.747
48552SOL    HW147553  10.779   4.877   4.830
48552SOL    HW247554  10.735   4.871   4.686
48553SOL     OW47555   6.532  12.214   0.305
48553SOL    HW147556   6.553  12.223   0.212
48553SOL    HW247557   6.438  12.200   0.307
48554SOL     OW47558  12.827  10.161   6.331
48554SOL    HW147559  12.837  10.211   6.412
48554SOL    HW247560  12.905  10.182   6.280
48555SOL     OW47561  13.843   6.541   4.882
48555SOL    HW147562  13.801   6.456   4.899
48555SOL    HW247563  13.771   6.601   4.865
48556SOL     OW47564  12.372   1.478   2.559
48556SOL    HW147565  12.435   1.422   2.605
48556SOL    HW247566  12.303   1.494   2.623
48557SOL     OW47567   3.513   0.291   9.349
48557SOL    HW147568   3.608   0.298   9.354
48557SOL    HW247569   3.488   0.351   9.278
48558SOL     OW47570   8.600   7.620   8.653
48558SOL    HW147571   8.547   7.641   8.577
48558SOL    HW247572   8.675   7.572   8.618
48559SOL     OW47573   1.315  12.878  11.251
48559SOL    HW147574   1.254  12.951  11.262
48559SOL    HW247575   1.362  12.899  11.170
48560SOL     OW47576  10.964  13.576  14.687
48560SOL    HW147577  10.903  13.618  14.625
48560SOL    HW247578  10.916  13.574  14.769
48561SOL     OW47579   6.201   3.015   4.839
48561SOL    HW147580   6.193   2.982   4.750
48561SOL    HW247581   6.177   2.941   4.895
48562SOL     OW47582   4.572  14.046   2.726
48562SOL    HW147583   4.639  13.978   2.722
48562SOL    HW247584   4.490  13.998   2.733
48563SOL     OW47585   1.020  13.086   8.272
48563SOL    HW147586   0.954  13.135   8.222
48563SOL    HW247587   1.007  12.995   8.246
48564SOL     OW47588   7.231   6.534  12.976
48564SOL    HW147589   7.141   6.537  12.943
48564SOL    HW247590   7.224   6.555  13.069
48565SOL     OW47591   7.271  10.277   3.783
48565SOL    HW147592   7.202  10.311   3.727
48565SOL    HW247593   7.298  10.352   3.836
48566SOL     OW47594   2.570   3.879  10.653
48566SOL    HW147595   2.610   3.925  10.727
48566SOL    HW247596   2.497   3.935  10.626
48567SOL     OW47597  13.318  11.122   7.702
48567SOL    HW147598  13.307  11.160   7.615
48567SOL    HW247599  13.383  11.179   7.744
48568SOL     OW47600   4.989   1.348   9.477
48568SOL    HW147601   5.076   1.376   9.503
48568SOL    HW247602   4.941   1.429   9.461
48569SOL     OW47603   5.949  14.493   6.349
48569SOL    HW147604   5.885  14.442   6.399
48569SOL    HW247605   5.983  14.433   6.283
48570SOL     OW47606   2.016   9.932   3.621
48570SOL    HW147607   1.939   9.987   3.612
48570SOL    HW247608   1.982   9.845   3.641
48571SOL     OW47609   7.397  14.720  13.888
48571SOL    HW147610   7.427  14.729  13.798
48571SOL    HW247611   7.344  14.640  13.888
48572SOL     OW47612   3.857  12.337  12.549
48572SOL    HW147613   3.904  12.419  12.570
48572SOL    HW247614   3.886  12.315  12.461
48573SOL     OW47615  12.554  12.199  13.148
48573SOL    HW147616  12.556  12.194  13.052
48573SOL    HW247617  12.601  12.280  13.169
48574SOL     OW47618   6.828   4.763  10.246
48574SOL    HW147619   6.919   4.735  10.238
48574SOL    HW247620   6.791   4.707  10.314
48575SOL     OW47621   0.621   1.210  13.707
48575SOL    HW147622   0.691   1.274  13.694
48575SOL    HW247623   0.655   1.129  13.669
48576SOL     OW47624   5.356   1.323   4.625
48576SOL    HW147625   5.373   1.287   4.713
48576SOL    HW247626   5.431   1.295   4.573
48577SOL     OW47627   0.731  10.123  13.093
48577SOL    HW147628   0.778  10.202  13.119
48577SOL    HW247629   0.652  10.155  13.048
48578SOL     OW47630   4.754   7.478   4.981
48578SOL    HW147631   4.784   7.420   5.051
48578SOL    HW247632   4.712   7.419   4.917
48579SOL     OW47633   4.301   2.403   0.491
48579SOL    HW147634   4.354   2.324   0.505
48579SOL    HW247635   4.246   2.409   0.570
48580SOL     OW47636  10.444   1.429   6.122
48580SOL    HW147637  10.507   1.393   6.184
48580SOL    HW247638  10.495   1.493   6.071
48581SOL     OW47639   0.787  14.726   1.037
48581SOL    HW147640   0.863  14.715   0.979
48581SOL    HW247641   0.791  14.651   1.097
48582SOL     OW47642   9.108   3.311  14.230
48582SOL    HW147643   9.027   3.260  14.234
48582SOL    HW247644   9.081   3.401  14.252
48583SOL     OW47645  11.238   2.669   1.500
48583SOL    HW147646  11.298   2.718   1.556
48583SOL    HW247647  11.174   2.734   1.471
48584SOL     OW47648   7.668   1.724   7.757
48584SOL    HW147649   7.724   1.779   7.702
48584SOL    HW247650   7.631   1.659   7.697
48585SOL     OW47651   3.452   1.917  13.281
48585SOL    HW147652   3.498   1.997  13.256
48585SOL    HW247653   3.370   1.920  13.230
48586SOL     OW47654   4.504   6.792   0.592
48586SOL    HW147655   4.574   6.798   0.656
48586SOL    HW247656   4.448   6.868   0.610
48587SOL     OW47657   0.162   3.961  10.378
48587SOL    HW147658   0.086   4.014  10.403
48587SOL    HW247659   0.237   4.010  10.409
48588SOL     OW47660   0.711  14.157  14.052
48588SOL    HW147661   0.657  14.180  14.128
48588SOL    HW247662   0.717  14.061  14.056
48589SOL     OW47663   2.269   8.837   3.684
48589SOL    HW147664   2.226   8.790   3.612
48589SOL    HW247665   2.338   8.777   3.713
48590SOL     OW47666   0.935   5.848   6.999
48590SOL    HW147667   1.018   5.801   7.011
48590SOL    HW247668   0.961   5.935   6.970
48591SOL     OW47669  12.552   9.066  12.948
48591SOL    HW147670  12.564   9.119  12.870
48591SOL    HW247671  12.615   8.994  12.937
48592SOL     OW47672  11.346   5.998   9.862
48592SOL    HW147673  11.323   6.086   9.894
48592SOL    HW247674  11.381   5.953   9.939
48593SOL     OW47675   2.697  11.461   4.608
48593SOL    HW147676   2.776  11.475   4.557
48593SOL    HW247677   2.716  11.502   4.693
48594SOL     OW47678  11.400   5.427   8.646
48594SOL    HW147679  11.477   5.426   8.702
48594SOL    HW247680  11.380   5.334   8.632
48595SOL     OW47681   3.279   8.574   7.727
48595SOL    HW147682   3.370   8.586   7.697
48595SOL    HW247683   3.267   8.642   7.793
48596SOL     OW47684   1.874   5.987   0.606
48596SOL    HW147685   1.871   5.930   0.683
48596SOL    HW247686   1.784   5.985   0.572
48597SOL     OW47687   2.196   3.730   7.767
48597SOL    HW147688   2.128   3.797   7.770
48597SOL    HW247689   2.277   3.776   7.787
48598SOL     OW47690  11.191   3.118   0.798
48598SOL    HW147691  11.192   3.214   0.791
48598SOL    HW247692  11.198   3.101   0.891
48599SOL     OW47693  12.581   2.763   3.850
48599SOL    HW147694  12.488   2.774   3.829
48599SOL    HW247695  12.582   2.711   3.930
48600SOL     OW47696   7.597   6.451  12.248
48600SOL    HW147697   7.650   6.507  12.305
48600SOL    HW247698   7.658   6.422  12.180
48601SOL     OW47699   4.812  11.310  14.378
48601SOL    HW147700   4.755  11.272  14.446
48601SOL    HW247701   4.850  11.234  14.334
48602SOL     OW47702  14.143   4.012   6.040
48602SOL    HW147703  14.099   4.067   6.104
48602SOL    HW247704  14.232   4.000   6.075
48603SOL     OW47705  12.708  12.524   8.263
48603SOL    HW147706  12.652  12.479   8.326
48603SOL    HW247707  12.667  12.609   8.251
48604SOL     OW47708   5.280  14.659  13.162
48604SOL    HW147709   5.277  14.598  13.089
48604SOL    HW247710   5.292  14.745  13.122
48605SOL     OW47711   3.654   6.256   0.406
48605SOL    HW147712   3.696   6.186   0.355
48605SOL    HW247713   3.632   6.214   0.489
48606SOL     OW47714   7.893   0.940  14.642
48606SOL    HW147715   7.957   1.000  14.604
48606SOL    HW247716   7.903   0.859  14.592
48607SOL     OW47717   6.185  11.219  11.555
48607SOL    HW147718   6.127  11.158  11.510
48607SOL    HW247719   6.169  11.203  11.648
48608SOL     OW47720  10.751   1.107   2.487
48608SOL    HW147721  10.745   1.114   2.391
48608SOL    HW247722  10.832   1.058   2.502
48609SOL     OW47723   2.145  10.081  13.719
48609SOL    HW147724   2.117  10.160  13.673
48609SOL    HW247725   2.195  10.032  13.653
48610SOL     OW47726   8.968  12.448  10.536
48610SOL    HW147727   8.975  12.475  10.627
48610SOL    HW247728   8.883  12.404  10.531
48611SOL     OW47729   9.208  10.039   8.849
48611SOL    HW147730   9.280  10.080   8.801
48611SOL    HW247731   9.246   9.959   8.886
48612SOL     OW47732   5.122   2.925  12.705
48612SOL    HW147733   5.030   2.951  12.712
48612SOL    HW247734   5.120   2.840  12.661
48613SOL     OW47735   3.631   2.485  14.855
48613SOL    HW147736   3.643   2.432  14.776
48613SOL    HW247737   3.540   2.514  14.851
48614SOL     OW47738   6.779   4.041  11.302
48614SOL    HW147739   6.716   4.113  11.306
48614SOL    HW247740   6.724   3.962  11.301
48615SOL     OW47741  12.710  12.250   9.622
48615SOL    HW147742  12.692  12.332   9.576
48615SOL    HW247743  12.804  12.237   9.611
48616SOL     OW47744   0.574  12.092   0.823
48616SOL    HW147745   0.547  12.000   0.817
48616SOL    HW247746   0.557  12.117   0.914
48617SOL     OW47747   7.972  10.551   9.695
48617SOL    HW147748   7.893  10.521   9.740
48617SOL    HW247749   8.009  10.472   9.656
48618SOL     OW47750   9.675  11.826   8.723
48618SOL    HW147751   9.640  11.860   8.805
48618SOL    HW247752   9.656  11.894   8.658
48619SOL     OW47753  10.915   7.416  11.115
48619SOL    HW147754  10.820   7.414  11.122
48619SOL    HW247755  10.940   7.328  11.088
48620SOL     OW47756   9.294   2.592   1.775
48620SOL    HW147757   9.360   2.659   1.757
48620SOL    HW247758   9.314   2.522   1.713
48621SOL     OW47759  14.229   3.790   3.998
48621SOL    HW147760  14.296   3.779   4.066
48621SOL    HW247761  14.169   3.717   4.010
48622SOL     OW47762  12.601   9.095   0.351
48622SOL    HW147763  12.566   9.014   0.314
48622SOL    HW247764  12.694   9.078   0.363
48623SOL     OW47765   9.772   3.071  11.119
48623SOL    HW147766   9.772   3.130  11.194
48623SOL    HW247767   9.679   3.059  11.098
48624SOL     OW47768   8.981  13.727   0.822
48624SOL    HW147769   9.045  13.758   0.887
48624SOL    HW247770   9.009  13.768   0.740
48625SOL     OW47771   3.102   0.533   7.476
48625SOL    HW147772   3.196   0.543   7.482
48625SOL    HW247773   3.079   0.478   7.552
48626SOL     OW47774  13.026   4.288  11.335
48626SOL    HW147775  13.031   4.218  11.270
48626SOL    HW247776  13.116   4.302  11.362
48627SOL     OW47777  13.308  10.884   0.040
48627SOL    HW147778  13.236  10.822   0.049
48627SOL    HW247779  13.266  10.968   0.025
48628SOL     OW47780   9.944   4.200  14.804
48628SOL    HW147781   9.940   4.295  14.791
48628SOL    HW247782   9.857   4.176  14.834
48629SOL     OW47783  14.508   4.308   7.686
48629SOL    HW147784  14.602   4.302   7.703
48629SOL    HW247785  14.501   4.365   7.610
48630SOL     OW47786   0.218  12.527  13.819
48630SOL    HW147787   0.263  12.610  13.834
48630SOL    HW247788   0.287  12.467  13.792
48631SOL     OW47789  10.731  13.161   1.195
48631SOL    HW147790  10.674  13.085   1.202
48631SOL    HW247791  10.777  13.150   1.112
48632SOL     OW47792   0.072  11.158  11.838
48632SOL    HW147793   0.089  11.149  11.744
48632SOL    HW247794   0.008  11.089  11.857
48633SOL     OW47795  12.181   8.363   5.465
48633SOL    HW147796  12.256   8.415   5.497
48633SOL    HW247797  12.120   8.361   5.538
48634SOL     OW47798   2.496   8.281  12.619
48634SOL    HW147799   2.428   8.229  12.662
48634SOL    HW247800   2.471   8.279  12.526
48635SOL     OW47801   6.370   2.844   3.478
48635SOL    HW147802   6.426   2.866   3.403
48635SOL    HW247803   6.285   2.880   3.456
48636SOL     OW47804  10.279  13.804  14.607
48636SOL    HW147805  10.243  13.762  14.685
48636SOL    HW247806  10.341  13.868  14.640
48637SOL     OW47807  11.184   9.215   1.642
48637SOL    HW147808  11.184   9.176   1.729
48637SOL    HW247809  11.191   9.309   1.658
48638SOL     OW47810  11.206  10.799  13.315
48638SOL    HW147811  11.172  10.774  13.401
48638SOL    HW247812  11.237  10.717  13.276
48639SOL     OW47813   4.294   2.869  11.089
48639SOL    HW147814   4.199   2.867  11.090
48639SOL    HW247815   4.320   2.779  11.108
48640SOL     OW47816  13.509   4.569   4.214
48640SOL    HW147817  13.532   4.573   4.121
48640SOL    HW247818  13.422   4.608   4.219
48641SOL     OW47819  14.807   5.875   3.758
48641SOL    HW147820  14.783   5.823   3.681
48641SOL    HW247821  14.754   5.954   3.751
48642SOL     OW47822  11.329  10.576  14.065
48642SOL    HW147823  11.406  10.614  14.023
48642SOL    HW247824  11.264  10.569  13.995
48643SOL     OW47825   4.737  14.151  10.824
48643SOL    HW147826   4.702  14.063  10.840
48643SOL    HW247827   4.817  14.155  10.876
48644SOL     OW47828   7.149   4.475   0.100
48644SOL    HW147829   7.074   4.437   0.054
48644SOL    HW247830   7.110   4.517   0.177
48645SOL     OW47831  14.175   1.960  13.546
48645SOL    HW147832  14.113   1.942  13.616
48645SOL    HW247833  14.254   1.912  13.571
48646SOL     OW47834  11.543   5.589   7.191
48646SOL    HW147835  11.540   5.674   7.148
48646SOL    HW247836  11.463   5.544   7.163
48647SOL     OW47837  14.344   2.106   9.270
48647SOL    HW147838  14.412   2.038   9.267
48647SOL    HW247839  14.274   2.073   9.213
48648SOL     OW47840   4.397   6.198  10.685
48648SOL    HW147841   4.302   6.201  10.672
48648SOL    HW247842   4.431   6.261  10.621
48649SOL     OW47843  12.932   9.372  12.529
48649SOL    HW147844  12.983   9.338  12.603
48649SOL    HW247845  12.997   9.410  12.470
48650SOL     OW47846   9.441  12.161   7.992
48650SOL    HW147847   9.530  12.127   7.989
48650SOL    HW247848   9.387  12.089   7.958
48651SOL     OW47849  14.811   9.967  10.013
48651SOL    HW147850  14.817   9.966   9.918
48651SOL    HW247851  14.721   9.939  10.032
48652SOL     OW47852  10.922  12.204   0.370
48652SOL    HW147853  10.884  12.136   0.315
48652SOL    HW247854  10.849  12.234   0.425
48653SOL     OW47855   0.827  12.701   5.259
48653SOL    HW147856   0.780  12.630   5.303
48653SOL    HW247857   0.859  12.662   5.178
48654SOL     OW47858   9.534   9.118   0.660
48654SOL    HW147859   9.544   9.200   0.611
48654SOL    HW247860   9.447   9.125   0.700
48655SOL     OW47861   1.564   9.691   3.531
48655SOL    HW147862   1.513   9.733   3.600
48655SOL    HW247863   1.626   9.635   3.577
48656SOL     OW47864  12.727  11.699  14.095
48656SOL    HW147865  12.671  11.693  14.017
48656SOL    HW247866  12.775  11.616  14.097
48657SOL     OW47867   2.267   9.337   2.907
48657SOL    HW147868   2.267   9.290   2.824
48657SOL    HW247869   2.316   9.281   2.967
48658SOL     OW47870  13.234  12.121  12.067
48658SOL    HW147871  13.229  12.084  12.154
48658SOL    HW247872  13.321  12.160  12.062
48659SOL     OW47873   8.915   7.462   3.388
48659SOL    HW147874   8.881   7.383   3.429
48659SOL    HW247875   8.878   7.461   3.299
48660SOL     OW47876   1.612  13.245   3.136
48660SOL    HW147877   1.525  13.239   3.175
48660SOL    HW247878   1.635  13.338   3.143
48661SOL     OW47879   6.991   8.739   6.382
48661SOL    HW147880   7.030   8.730   6.296
48661SOL    HW247881   6.946   8.656   6.397
48662SOL     OW47882   0.287   2.678   0.423
48662SOL    HW147883   0.345   2.719   0.487
48662SOL    HW247884   0.346   2.627   0.367
48663SOL     OW47885  14.117  11.890   2.187
48663SOL    HW147886  14.061  11.820   2.153
48663SOL    HW247887  14.166  11.848   2.258
48664SOL     OW47888   3.660  11.259  11.652
48664SOL    HW147889   3.619  11.214  11.726
48664SOL    HW247890   3.594  11.255  11.582
48665SOL     OW47891  10.830   0.225   5.852
48665SOL    HW147892  10.902   0.240   5.912
48665SOL    HW247893  10.855   0.272   5.772
48666SOL     OW47894  11.723   3.583   3.715
48666SOL    HW147895  11.767   3.528   3.650
48666SOL    HW247896  11.631   3.555   3.713
48667SOL     OW47897  14.269   2.080   0.394
48667SOL    HW147898  14.351   2.076   0.344
48667SOL    HW247899  14.209   2.024   0.346
48668SOL     OW47900  13.692   5.929   5.141
48668SOL    HW147901  13.739   6.011   5.157
48668SOL    HW247902  13.662   5.902   5.228
48669SOL     OW47903   5.209  13.646  12.523
48669SOL    HW147904   5.200  13.722  12.581
48669SOL    HW247905   5.195  13.682  12.435
48670SOL     OW47906  10.233   6.038  14.662
48670SOL    HW147907  10.291   5.962  14.657
48670SOL    HW247908  10.174   6.020  14.735
48671SOL     OW47909   0.257   7.173  10.428
48671SOL    HW147910   0.168   7.153  10.400
48671SOL    HW247911   0.285   7.096  10.477
48672SOL     OW47912  10.295  11.862  14.724
48672SOL    HW147913  10.247  11.942  14.746
48672SOL    HW247914  10.233  11.791  14.742
48673SOL     OW47915  12.238  12.707  14.814
48673SOL    HW147916  12.254  12.677   0.016
48673SOL    HW247917  12.264  12.633  14.759
48674SOL     OW47918  12.984   7.076   0.601
48674SOL    HW147919  12.974   6.981   0.594
48674SOL    HW247920  12.933   7.111   0.528
48675SOL     OW47921   8.866   5.178   1.349
48675SOL    HW147922   8.947   5.218   1.318
48675SOL    HW247923   8.800   5.247   1.342
48676SOL     OW47924   0.535  12.096   8.477
48676SOL    HW147925   0.616  12.051   8.497
48676SOL    HW247926   0.562  12.177   8.432
48677SOL     OW47927  14.219   1.690   5.238
48677SOL    HW147928  14.264   1.770   5.265
48677SOL    HW247929  14.276   1.650   5.173
48678SOL     OW47930  10.595   4.102   6.856
48678SOL    HW147931  10.627   4.137   6.773
48678SOL    HW247932  10.512   4.060   6.834
48679SOL     OW47933   7.808   8.716   3.491
48679SOL    HW147934   7.727   8.746   3.532
48679SOL    HW247935   7.778   8.665   3.415
48680SOL     OW47936   1.572   9.858   9.520
48680SOL    HW147937   1.551   9.777   9.474
48680SOL    HW247938   1.635   9.902   9.462
48681SOL     OW47939  12.988  11.159   3.585
48681SOL    HW147940  13.056  11.167   3.518
48681SOL    HW247941  12.965  11.066   3.585
48682SOL     OW47942  13.650  11.482  14.077
48682SOL    HW147943  13.717  11.421  14.106
48682SOL    HW247944  13.600  11.434  14.012
48683SOL     OW47945  11.793   3.528   8.220
48683SOL    HW147946  11.739   3.467   8.271
48683SOL    HW247947  11.835   3.584   8.286
48684SOL     OW47948  14.394   3.181   1.927
48684SOL    HW147949  14.410   3.194   1.834
48684SOL    HW247950  14.346   3.259   1.954
48685SOL     OW47951   8.017  14.499   5.256
48685SOL    HW147952   8.002  14.590   5.279
48685SOL    HW247953   8.068  14.502   5.175
48686SOL     OW47954  11.904   5.973   0.626
48686SOL    HW147955  11.945   5.893   0.658
48686SOL    HW247956  11.966   6.008   0.562
48687SOL     OW47957   5.870   4.340  10.476
48687SOL    HW147958   5.867   4.345  10.380
48687SOL    HW247959   5.917   4.258  10.494
48688SOL     OW47960   8.045   1.487   1.714
48688SOL    HW147961   7.989   1.434   1.772
48688SOL    HW247962   8.023   1.457   1.626
48689SOL     OW47963  10.922   4.989  14.402
48689SOL    HW147964  10.944   4.941  14.322
48689SOL    HW247965  10.972   5.071  14.395
48690SOL     OW47966   2.195  10.420   3.278
48690SOL    HW147967   2.191  10.388   3.368
48690SOL    HW247968   2.287  10.446   3.266
48691SOL     OW47969   7.209   6.370   4.542
48691SOL    HW147970   7.276   6.436   4.559
48691SOL    HW247971   7.130   6.405   4.581
48692SOL     OW47972  13.041  12.405  13.983
48692SOL    HW147973  13.027  12.348  13.907
48692SOL    HW247974  13.074  12.345  14.051
48693SOL     OW47975   2.482  12.721   3.244
48693SOL    HW147976   2.404  12.694   3.292
48693SOL    HW247977   2.532  12.640   3.233
48694SOL     OW47978   5.411   6.738   7.288
48694SOL    HW147979   5.496   6.782   7.282
48694SOL    HW247980   5.362   6.789   7.352
48695SOL     OW47981   9.477  11.431   1.188
48695SOL    HW147982   9.483  11.496   1.258
48695SOL    HW247983   9.412  11.466   1.127
48696SOL     OW47984   7.233   6.801   0.431
48696SOL    HW147985   7.181   6.860   0.377
48696SOL    HW247986   7.208   6.822   0.521
48697SOL     OW47987   5.714   4.980   3.174
48697SOL    HW147988   5.770   4.913   3.214
48697SOL    HW247989   5.627   4.964   3.212
48698SOL     OW47990  14.493   3.537  14.797
48698SOL    HW147991  14.521   3.589  14.872
48698SOL    HW247992  14.533   3.580  14.722
48699SOL     OW47993   7.123   6.968   0.943
48699SOL    HW147994   7.217   6.948   0.944
48699SOL    HW247995   7.112   7.032   1.013
48700SOL     OW47996  11.824   7.086   3.492
48700SOL    HW147997  11.803   7.015   3.552
48700SOL    HW247998  11.755   7.151   3.507
48701SOL     OW47999   6.464   7.875  10.457
48701SOL    HW148000   6.423   7.796  10.493
48701SOL    HW248001   6.467   7.860  10.363
48702SOL     OW48002   8.922   2.261  13.128
48702SOL    HW148003   8.852   2.316  13.165
48702SOL    HW248004   8.992   2.264  13.194
48703SOL     OW48005   4.891   1.724  13.166
48703SOL    HW148006   4.801   1.716  13.199
48703SOL    HW248007   4.919   1.811  13.196
48704SOL     OW48008   8.843   4.165   0.665
48704SOL    HW148009   8.801   4.197   0.745
48704SOL    HW248010   8.927   4.130   0.694
48705SOL     OW48011  13.721   4.871   9.907
48705SOL    HW148012  13.684   4.789   9.874
48705SOL    HW248013  13.695   4.938   9.844
48706SOL     OW48014   6.081   6.156  12.327
48706SOL    HW148015   6.022   6.224  12.296
48706SOL    HW248016   6.099   6.180  12.419
48707SOL     OW48017   2.142   9.258   2.464
48707SOL    HW148018   2.218   9.242   2.408
48707SOL    HW248019   2.166   9.220   2.549
48708SOL     OW48020   1.607   0.326  11.801
48708SOL    HW148021   1.699   0.322  11.777
48708SOL    HW248022   1.575   0.236  11.789
48709SOL     OW48023  11.715   0.795  13.624
48709SOL    HW148024  11.652   0.844  13.571
48709SOL    HW248025  11.697   0.823  13.714
48710SOL     OW48026   2.500  11.430   4.205
48710SOL    HW148027   2.408  11.440   4.179
48710SOL    HW248028   2.495  11.409   4.298
48711SOL     OW48029  10.019   3.868   5.163
48711SOL    HW148030   9.937   3.832   5.130
48711SOL    HW248031  10.051   3.801   5.223
48712SOL     OW48032   1.122  10.501   4.943
48712SOL    HW148033   1.163  10.424   4.982
48712SOL    HW248034   1.044  10.516   4.996
48713SOL     OW48035  11.116   2.467  12.290
48713SOL    HW148036  11.146   2.549  12.330
48713SOL    HW248037  11.054   2.495  12.222
48714SOL     OW48038   5.835  12.317   6.607
48714SOL    HW148039   5.774  12.248   6.580
48714SOL    HW248040   5.917  12.295   6.564
48715SOL     OW48041   7.519   6.222  10.939
48715SOL    HW148042   7.603   6.214  10.895
48715SOL    HW248043   7.460   6.165  10.890
48716SOL     OW48044   0.896   3.231   5.037
48716SOL    HW148045   0.846   3.311   5.018
48716SOL    HW248046   0.859   3.198   5.119
48717SOL     OW48047   1.137   5.670  13.048
48717SOL    HW148048   1.049   5.706  13.046
48717SOL    HW248049   1.193   5.741  13.016
48718SOL     OW48050  10.961  11.527  10.528
48718SOL    HW148051  10.999  11.454  10.578
48718SOL    HW248052  11.008  11.525  10.444
48719SOL     OW48053   1.449  11.976   1.080
48719SOL    HW148054   1.472  11.900   1.028
48719SOL    HW248055   1.522  12.037   1.068
48720SOL     OW48056  10.289  10.976  11.174
48720SOL    HW148057  10.252  11.001  11.258
48720SOL    HW248058  10.223  10.918  11.135
48721SOL     OW48059  13.395   7.099  11.853
48721SOL    HW148060  13.423   7.008  11.860
48721SOL    HW248061  13.410   7.122  11.761
48722SOL     OW48062   3.182  14.791   0.646
48722SOL    HW148063   3.094  14.825   0.628
48722SOL    HW248064   3.232  14.809   0.566
48723SOL     OW48065   5.594   5.165   8.796
48723SOL    HW148066   5.523   5.229   8.794
48723SOL    HW248067   5.658   5.197   8.732
48724SOL     OW48068   9.461  14.070   2.354
48724SOL    HW148069   9.543  14.033   2.385
48724SOL    HW248070   9.467  14.163   2.377
48725SOL     OW48071  12.361   6.605   9.043
48725SOL    HW148072  12.298   6.629   8.975
48725SOL    HW248073  12.322   6.530   9.087
48726SOL     OW48074   1.035   6.189   5.073
48726SOL    HW148075   1.108   6.219   5.019
48726SOL    HW248076   1.070   6.116   5.123
48727SOL     OW48077   5.710  13.644   1.041
48727SOL    HW148078   5.777  13.635   0.974
48727SOL    HW248079   5.644  13.702   1.002
48728SOL     OW48080  13.773  10.400   8.057
48728SOL    HW148081  13.701  10.451   8.095
48728SOL    HW248082  13.808  10.456   7.988
48729SOL     OW48083   3.564   0.622   7.721
48729SOL    HW148084   3.491   0.652   7.666
48729SOL    HW248085   3.590   0.539   7.681
48730SOL     OW48086   5.011   1.376   5.169
48730SOL    HW148087   5.094   1.423   5.179
48730SOL    HW248088   4.959   1.401   5.245
48731SOL     OW48089  11.601  14.271  14.032
48731SOL    HW148090  11.558  14.273  13.946
48731SOL    HW248091  11.608  14.178  14.053
48732SOL     OW48092   2.213   8.518   8.807
48732SOL    HW148093   2.230   8.540   8.898
48732SOL    HW248094   2.241   8.594   8.757
48733SOL     OW48095  11.257   0.849   5.991
48733SOL    HW148096  11.261   0.797   5.911
48733SOL    HW248097  11.267   0.940   5.961
48734SOL     OW48098   7.612   0.073  14.146
48734SOL    HW148099   7.653   0.151  14.182
48734SOL    HW248100   7.543   0.106  14.088
48735SOL     OW48101  10.496  14.849  11.394
48735SOL    HW148102  10.405  14.856  11.424
48735SOL    HW248103  10.526  14.765  11.428
48736SOL     OW48104   2.047   4.163  12.911
48736SOL    HW148105   1.972   4.104  12.910
48736SOL    HW248106   2.118   4.112  12.872
48737SOL     OW48107  11.308   3.590   8.938
48737SOL    HW148108  11.263   3.512   8.969
48737SOL    HW248109  11.329   3.640   9.017
48738SOL     OW48110  12.226   8.147   1.969
48738SOL    HW148111  12.177   8.159   2.051
48738SOL    HW248112  12.255   8.056   1.972
48739SOL     OW48113   4.990  12.830   7.995
48739SOL    HW148114   5.050  12.758   8.014
48739SOL    HW248115   5.043  12.909   8.009
48740SOL     OW48116  11.742  11.141   9.727
48740SOL    HW148117  11.818  11.082   9.728
48740SOL    HW248118  11.781  11.229   9.727
48741SOL     OW48119   1.474  11.869   6.336
48741SOL    HW148120   1.544  11.882   6.400
48741SOL    HW248121   1.513  11.891   6.252
48742SOL     OW48122  10.698   2.558   0.079
48742SOL    HW148123  10.646   2.480   0.097
48742SOL    HW248124  10.723   2.590   0.166
48743SOL     OW48125   2.824  14.859   2.707
48743SOL    HW148126   2.797  14.797   2.639
48743SOL    HW248127   2.909  14.826   2.737
48744SOL     OW48128   8.980  10.989   9.744
48744SOL    HW148129   8.997  10.896   9.727
48744SOL    HW248130   8.903  11.009   9.691
48745SOL     OW48131   5.376  12.486  12.792
48745SOL    HW148132   5.392  12.479  12.698
48745SOL    HW248133   5.324  12.408  12.813
48746SOL     OW48134   8.990   6.477   5.033
48746SOL    HW148135   8.908   6.504   4.990
48746SOL    HW248136   9.023   6.406   4.979
48747SOL     OW48137   7.996   6.401  11.291
48747SOL    HW148138   7.910   6.364  11.308
48747SOL    HW248139   8.027   6.431  11.377
48748SOL     OW48140   9.943   8.864  10.694
48748SOL    HW148141   9.999   8.830  10.763
48748SOL    HW248142   9.992   8.847  10.613
48749SOL     OW48143   3.630   9.759  13.502
48749SOL    HW148144   3.649   9.831  13.442
48749SOL    HW248145   3.698   9.694  13.484
48750SOL     OW48146   1.851  11.667  14.189
48750SOL    HW148147   1.857  11.574  14.168
48750SOL    HW248148   1.766  11.694  14.155
48751SOL     OW48149   2.203   8.727   2.885
48751SOL    HW148150   2.231   8.777   2.963
48751SOL    HW248151   2.134   8.780   2.847
48752SOL     OW48152   6.596   7.850  12.282
48752SOL    HW148153   6.661   7.784  12.306
48752SOL    HW248154   6.526   7.838  12.346
48753SOL     OW48155  13.337   6.375  12.689
48753SOL    HW148156  13.340   6.386  12.594
48753SOL    HW248157  13.422   6.406  12.719
48754SOL     OW48158   8.114   2.481  11.180
48754SOL    HW148159   8.157   2.539  11.117
48754SOL    HW248160   8.035   2.451  11.135
48755SOL     OW48161   4.746   6.745  11.216
48755SOL    HW148162   4.653   6.729  11.235
48755SOL    HW248163   4.772   6.672  11.160
48756SOL     OW48164  13.501  11.352  13.739
48756SOL    HW148165  13.407  11.341  13.747
48756SOL    HW248166  13.539  11.286  13.797
48757SOL     OW48167  13.577   1.196   7.420
48757SOL    HW148168  13.629   1.140   7.363
48757SOL    HW248169  13.499   1.145   7.440
48758SOL     OW48170  10.293   8.488  14.199
48758SOL    HW148171  10.268   8.539  14.276
48758SOL    HW248172  10.299   8.553  14.128
48759SOL     OW48173   1.172   7.402  10.289
48759SOL    HW148174   1.100   7.349  10.255
48759SOL    HW248175   1.214   7.345  10.354
48760SOL     OW48176   6.635  13.708   1.040
48760SOL    HW148177   6.647  13.676   1.130
48760SOL    HW248178   6.717  13.685   0.996
48761SOL     OW48179   1.173   6.583  14.354
48761SOL    HW148180   1.156   6.492  14.381
48761SOL    HW248181   1.258   6.604  14.393
48762SOL     OW48182   3.300   7.783  13.692
48762SOL    HW148183   3.375   7.790  13.634
48762SOL    HW248184   3.242   7.854  13.665
48763SOL     OW48185   9.577   2.145   5.298
48763SOL    HW148186   9.552   2.211   5.363
48763SOL    HW248187   9.650   2.184   5.251
48764SOL     OW48188   5.871  10.785   6.232
48764SOL    HW148189   5.878  10.699   6.275
48764SOL    HW248190   5.819  10.838   6.292
48765SOL     OW48191   6.555   8.924   4.226
48765SOL    HW148192   6.514   8.845   4.262
48765SOL    HW248193   6.639   8.931   4.271
48766SOL     OW48194   1.019  13.925   3.157
48766SOL    HW148195   0.935  13.970   3.160
48766SOL    HW248196   1.075  13.982   3.104
48767SOL     OW48197  13.508   7.831   8.220
48767SOL    HW148198  13.559   7.911   8.205
48767SOL    HW248199  13.417   7.860   8.220
48768SOL     OW48200   3.144   5.777   0.875
48768SOL    HW148201   3.087   5.799   0.949
48768SOL    HW248202   3.232   5.801   0.903
48769SOL     OW48203   1.601  12.096   6.152
48769SOL    HW148204   1.634  12.017   6.109
48769SOL    HW248205   1.553  12.141   6.083
48770SOL     OW48206   2.694   7.599  12.598
48770SOL    HW148207   2.691   7.591  12.502
48770SOL    HW248208   2.657   7.686  12.615
48771SOL     OW48209   1.914   0.408  11.471
48771SOL    HW148210   1.988   0.466  11.487
48771SOL    HW248211   1.895   0.368  11.556
48772SOL     OW48212   3.443   6.337   6.348
48772SOL    HW148213   3.354   6.313   6.322
48772SOL    HW248214   3.435   6.426   6.382
48773SOL     OW48215   5.572   0.379  11.666
48773SOL    HW148216   5.565   0.298  11.615
48773SOL    HW248217   5.595   0.446  11.601
48774SOL     OW48218   6.952  11.376  11.978
48774SOL    HW148219   6.921  11.286  11.989
48774SOL    HW248220   6.883  11.430  12.017
48775SOL     OW48221   8.811   9.306   7.109
48775SOL    HW148222   8.896   9.348   7.103
48775SOL    HW248223   8.758   9.347   7.041
48776SOL     OW48224  14.703  10.132  13.797
48776SOL    HW148225  14.682  10.117  13.705
48776SOL    HW248226  14.625  10.175  13.833
48777SOL     OW48227   0.576  13.216   2.591
48777SOL    HW148228   0.564  13.248   2.681
48777SOL    HW248229   0.608  13.126   2.602
48778SOL     OW48230   0.455   1.635  12.085
48778SOL    HW148231   0.522   1.687  12.129
48778SOL    HW248232   0.475   1.545  12.108
48779SOL     OW48233  14.124  14.608   8.551
48779SOL    HW148234  14.203  14.612   8.498
48779SOL    HW248235  14.053  14.626   8.490
48780SOL     OW48236   0.728   3.513  13.518
48780SOL    HW148237   0.638   3.485  13.502
48780SOL    HW248238   0.730   3.533  13.612
48781SOL     OW48239   6.343   3.375  10.953
48781SOL    HW148240   6.303   3.288  10.956
48781SOL    HW248241   6.305   3.422  11.028
48782SOL     OW48242   3.523   6.270  13.959
48782SOL    HW148243   3.575   6.191  13.974
48782SOL    HW248244   3.509   6.272  13.864
48783SOL     OW48245   3.077   6.386  14.726
48783SOL    HW148246   2.982   6.383  14.717
48783SOL    HW248247   3.097   6.323  14.796
48784SOL     OW48248   1.225   3.122   8.738
48784SOL    HW148249   1.135   3.151   8.722
48784SOL    HW248250   1.244   3.062   8.666
48785SOL     OW48251  10.445   3.085   0.903
48785SOL    HW148252  10.527   3.059   0.861
48785SOL    HW248253  10.408   3.152   0.845
48786SOL     OW48254  11.228   6.792   3.862
48786SOL    HW148255  11.146   6.779   3.815
48786SOL    HW248256  11.288   6.728   3.822
48787SOL     OW48257   4.368  11.153   6.120
48787SOL    HW148258   4.292  11.139   6.176
48787SOL    HW248259   4.331  11.169   6.033
48788SOL     OW48260   8.149   2.877   0.397
48788SOL    HW148261   8.093   2.925   0.336
48788SOL    HW248262   8.238   2.906   0.376
48789SOL     OW48263  13.085   9.969   9.109
48789SOL    HW148264  13.159   9.939   9.058
48789SOL    HW248265  13.008   9.931   9.066
48790SOL     OW48266   2.619   9.148   9.425
48790SOL    HW148267   2.682   9.093   9.472
48790SOL    HW248268   2.535   9.128   9.467
48791SOL     OW48269   5.920   6.728  12.330
48791SOL    HW148270   5.852   6.795  12.326
48791SOL    HW248271   5.917   6.685  12.245
48792SOL     OW48272   3.287   1.898  14.520
48792SOL    HW148273   3.361   1.951  14.489
48792SOL    HW248274   3.210   1.950  14.498
48793SOL     OW48275   2.315   7.621  10.507
48793SOL    HW148276   2.314   7.525  10.503
48793SOL    HW248277   2.236   7.648  10.460
48794SOL     OW48278  12.869   9.843   6.446
48794SOL    HW148279  12.881   9.792   6.365
48794SOL    HW248280  12.779   9.873   6.442
48795SOL     OW48281   4.848   2.584   2.245
48795SOL    HW148282   4.815   2.568   2.157
48795SOL    HW248283   4.796   2.526   2.301
48796SOL     OW48284   3.025   3.207  12.866
48796SOL    HW148285   3.086   3.163  12.925
48796SOL    HW248286   3.080   3.261  12.810
48797SOL     OW48287   9.687  11.471   9.787
48797SOL    HW148288   9.676  11.565   9.774
48797SOL    HW248289   9.751  11.465   9.858
48798SOL     OW48290  11.152   4.437   9.142
48798SOL    HW148291  11.125   4.479   9.224
48798SOL    HW248292  11.070   4.406   9.103
48799SOL     OW48293   3.271  14.181   3.248
48799SOL    HW148294   3.177  14.164   3.257
48799SOL    HW248295   3.308  14.096   3.225
48800SOL     OW48296   9.290   4.583  13.242
48800SOL    HW148297   9.202   4.546  13.239
48800SOL    HW248298   9.347   4.509  13.262
48801SOL     OW48299   0.774   3.784   2.755
48801SOL    HW148300   0.848   3.758   2.701
48801SOL    HW248301   0.780   3.729   2.834
48802SOL     OW48302   4.559   6.840   5.887
48802SOL    HW148303   4.568   6.796   5.972
48802SOL    HW248304   4.506   6.780   5.834
48803SOL     OW48305   6.445   1.260  12.821
48803SOL    HW148306   6.422   1.324  12.889
48803SOL    HW248307   6.509   1.306  12.767
48804SOL     OW48308   4.987  12.222   7.794
48804SOL    HW148309   4.990  12.201   7.700
48804SOL    HW248310   4.969  12.316   7.797
48805SOL     OW48311  14.872   5.921   2.008
48805SOL    HW148312  14.820   6.001   2.015
48805SOL    HW248313  14.863   5.879   2.093
48806SOL     OW48314  14.060   4.419  14.505
48806SOL    HW148315  13.968   4.445  14.500
48806SOL    HW248316  14.092   4.427  14.415
48807SOL     OW48317   6.139   0.729  12.077
48807SOL    HW148318   6.121   0.823  12.071
48807SOL    HW248319   6.195   0.720  12.154
48808SOL     OW48320   7.678  12.056  10.128
48808SOL    HW148321   7.624  12.110  10.186
48808SOL    HW248322   7.758  12.107  10.117
48809SOL     OW48323  12.359   8.463   8.276
48809SOL    HW148324  12.409   8.385   8.297
48809SOL    HW248325  12.268   8.438   8.292
48810SOL     OW48326  10.523   1.872  14.256
48810SOL    HW148327  10.610   1.907  14.276
48810SOL    HW248328  10.468   1.949  14.242
48811SOL     OW48329  11.574  14.795   1.494
48811SOL    HW148330  11.571  14.841   1.578
48811SOL    HW248331  11.626  14.717   1.512
48812SOL     OW48332   4.067   2.487  10.809
48812SOL    HW148333   4.091   2.414  10.752
48812SOL    HW248334   4.078   2.565  10.754
48813SOL     OW48335   7.147   8.106  11.008
48813SOL    HW148336   7.142   8.163  11.085
48813SOL    HW248337   7.074   8.046  11.017
48814SOL     OW48338   8.867   0.758   3.694
48814SOL    HW148339   8.806   0.766   3.621
48814SOL    HW248340   8.874   0.846   3.729
48815SOL     OW48341   5.725   0.040  13.631
48815SOL    HW148342   5.710  14.860  13.565
48815SOL    HW248343   5.726  14.880  13.715
48816SOL     OW48344   1.278   4.676   6.411
48816SOL    HW148345   1.256   4.583   6.404
48816SOL    HW248346   1.307   4.686   6.502
48817SOL     OW48347   8.953  14.451  13.903
48817SOL    HW148348   8.986  14.362  13.913
48817SOL    HW248349   8.992  14.499  13.976
48818SOL     OW48350  11.802  11.331   2.604
48818SOL    HW148351  11.786  11.418   2.568
48818SOL    HW248352  11.863  11.291   2.543
48819SOL     OW48353  13.334  10.338   2.478
48819SOL    HW148354  13.335  10.342   2.573
48819SOL    HW248355  13.302  10.425   2.451
48820SOL     OW48356   3.983  13.878   4.263
48820SOL    HW148357   4.078  13.874   4.256
48820SOL    HW248358   3.961  13.970   4.251
48821SOL     OW48359  13.388  11.485   7.673
48821SOL    HW148360  13.448  11.417   7.702
48821SOL    HW248361  13.437  11.567   7.683
48822SOL     OW48362  10.880   4.829   3.559
48822SOL    HW148363  10.806   4.768   3.563
48822SOL    HW248364  10.867   4.876   3.476
48823SOL     OW48365   3.712   2.280  14.407
48823SOL    HW148366   3.752   2.225  14.475
48823SOL    HW248367   3.764   2.263  14.329
48824SOL     OW48368   3.122   2.751   9.890
48824SOL    HW148369   3.114   2.712   9.977
48824SOL    HW248370   3.195   2.813   9.897
48825SOL     OW48371   2.814   4.899   8.990
48825SOL    HW148372   2.826   4.953   9.069
48825SOL    HW248373   2.726   4.920   8.960
48826SOL     OW48374  14.373   1.178   6.040
48826SOL    HW148375  14.323   1.256   6.066
48826SOL    HW248376  14.454   1.213   6.003
48827SOL     OW48377  11.640   2.460  12.046
48827SOL    HW148378  11.548   2.477  12.027
48827SOL    HW248379  11.676   2.545  12.071
48828SOL     OW48380   0.778   0.927   4.812
48828SOL    HW148381   0.699   0.940   4.864
48828SOL    HW248382   0.757   0.857   4.751
48829SOL     OW48383   9.341  12.934   9.748
48829SOL    HW148384   9.376  12.863   9.694
48829SOL    HW248385   9.400  12.939   9.823
48830SOL     OW48386   6.044  12.087   0.537
48830SOL    HW148387   6.128  12.046   0.557
48830SOL    HW248388   5.979  12.023   0.566
48831SOL     OW48389   7.063   6.291   9.206
48831SOL    HW148390   6.974   6.260   9.191
48831SOL    HW248391   7.099   6.301   9.118
48832SOL     OW48392  14.035   9.925   7.538
48832SOL    HW148393  14.095   9.871   7.486
48832SOL    HW248394  13.987   9.977   7.474
48833SOL     OW48395   0.299  14.474   3.055
48833SOL    HW148396   0.380  14.524   3.065
48833SOL    HW248397   0.230  14.540   3.053
48834SOL     OW48398  12.676   9.191  11.066
48834SOL    HW148399  12.716   9.111  11.099
48834SOL    HW248400  12.690   9.188  10.972
48835SOL     OW48401   6.646   0.490   4.174
48835SOL    HW148402   6.673   0.582   4.175
48835SOL    HW248403   6.606   0.476   4.260
48836SOL     OW48404   7.605  10.936   7.098
48836SOL    HW148405   7.616  10.846   7.066
48836SOL    HW248406   7.646  10.935   7.184
48837SOL     OW48407  14.440   3.384   1.096
48837SOL    HW148408  14.378   3.362   1.026
48837SOL    HW248409  14.402   3.462   1.137
48838SOL     OW48410  10.711  10.858   3.663
48838SOL    HW148411  10.647  10.799   3.703
48838SOL    HW248412  10.782  10.863   3.727
48839SOL     OW48413  11.953   9.797  11.178
48839SOL    HW148414  11.951   9.755  11.092
48839SOL    HW248415  11.936   9.726  11.240
48840SOL     OW48416  10.392   2.019  13.167
48840SOL    HW148417  10.386   2.081  13.239
48840SOL    HW248418  10.312   1.967  13.173
48841SOL     OW48419  10.685   0.468  12.799
48841SOL    HW148420  10.760   0.527  12.807
48841SOL    HW248421  10.699   0.400  12.864
48842SOL     OW48422   3.794   4.945   8.872
48842SOL    HW148423   3.747   4.937   8.790
48842SOL    HW248424   3.858   5.015   8.857
48843SOL     OW48425   8.502   7.806   5.945
48843SOL    HW148426   8.441   7.834   5.877
48843SOL    HW248427   8.468   7.845   6.026
48844SOL     OW48428   7.433  14.776   6.131
48844SOL    HW148429   7.507  14.756   6.188
48844SOL    HW248430   7.358  14.783   6.191
48845SOL     OW48431   7.641  13.093   2.927
48845SOL    HW148432   7.727  13.117   2.893
48845SOL    HW248433   7.581  13.105   2.853
48846SOL     OW48434   2.230  13.394  12.412
48846SOL    HW148435   2.162  13.461  12.398
48846SOL    HW248436   2.203  13.322  12.354
48847SOL     OW48437  13.416   3.345   3.239
48847SOL    HW148438  13.374   3.294   3.170
48847SOL    HW248439  13.343   3.384   3.288
48848SOL     OW48440   7.796   2.725   2.408
48848SOL    HW148441   7.830   2.805   2.367
48848SOL    HW248442   7.825   2.731   2.499
48849SOL     OW48443   0.851   8.122   9.053
48849SOL    HW148444   0.876   8.041   9.098
48849SOL    HW248445   0.757   8.111   9.036
48850SOL     OW48446  10.180   9.277   5.547
48850SOL    HW148447  10.169   9.262   5.641
48850SOL    HW248448  10.168   9.191   5.507
48851SOL     OW48449   6.141  13.516   9.473
48851SOL    HW148450   6.145  13.605   9.508
48851SOL    HW248451   6.090  13.524   9.392
48852SOL     OW48452  11.092   7.853   6.545
48852SOL    HW148453  11.053   7.780   6.594
48852SOL    HW248454  11.185   7.849   6.567
48853SOL     OW48455   8.550   9.705  12.237
48853SOL    HW148456   8.585   9.657  12.312
48853SOL    HW248457   8.478   9.757  12.273
48854SOL     OW48458   3.485   0.487   2.520
48854SOL    HW148459   3.490   0.523   2.609
48854SOL    HW248460   3.445   0.400   2.532
48855SOL     OW48461   0.773   0.826  11.929
48855SOL    HW148462   0.839   0.879  11.883
48855SOL    HW248463   0.760   0.750  11.873
48856SOL     OW48464  10.569   6.885   0.665
48856SOL    HW148465  10.636   6.894   0.732
48856SOL    HW248466  10.530   6.972   0.658
48857SOL     OW48467  13.957  14.724  12.767
48857SOL    HW148468  13.967  14.818  12.753
48857SOL    HW248469  13.918  14.717  12.854
48858SOL     OW48470  13.008   2.472   3.237
48858SOL    HW148471  12.992   2.405   3.171
48858SOL    HW248472  13.021   2.423   3.318
48859SOL     OW48473   8.019  11.960  13.807
48859SOL    HW148474   8.077  11.895  13.767
48859SOL    HW248475   7.975  11.913  13.877
48860SOL     OW48476   5.355   5.258  13.705
48860SOL    HW148477   5.404   5.226  13.781
48860SOL    HW248478   5.411   5.237  13.631
48861SOL     OW48479  14.806  11.853  11.875
48861SOL    HW148480  14.779  11.943  11.858
48861SOL    HW248481  14.886  11.861  11.927
48862SOL     OW48482   7.742   8.147   5.326
48862SOL    HW148483   7.753   8.233   5.367
48862SOL    HW248484   7.729   8.087   5.399
48863SOL     OW48485  11.309  12.359   9.075
48863SOL    HW148486  11.404  12.363   9.080
48863SOL    HW248487  11.289  12.374   8.982
48864SOL     OW48488   9.257  12.460   9.582
48864SOL    HW148489   9.186  12.486   9.525
48864SOL    HW248490   9.276  12.370   9.558
48865SOL     OW48491   7.162   8.903   5.113
48865SOL    HW148492   7.181   8.931   5.023
48865SOL    HW248493   7.247   8.877   5.148
48866SOL     OW48494  14.702  12.700   5.416
48866SOL    HW148495  14.760  12.625   5.400
48866SOL    HW248496  14.625  12.662   5.459
48867SOL     OW48497  12.120  12.043   5.087
48867SOL    HW148498  12.147  12.133   5.069
48867SOL    HW248499  12.186  12.009   5.147
48868SOL     OW48500   1.038  13.305   5.866
48868SOL    HW148501   1.000  13.374   5.921
48868SOL    HW248502   1.016  13.223   5.910
48869SOL     OW48503   4.232   2.251   7.939
48869SOL    HW148504   4.293   2.320   7.914
48869SOL    HW248505   4.254   2.233   8.031
48870SOL     OW48506   5.535  13.062  12.190
48870SOL    HW148507   5.617  13.014  12.203
48870SOL    HW248508   5.561  13.153  12.179
48871SOL     OW48509   0.281   5.079   0.209
48871SOL    HW148510   0.290   5.059   0.116
48871SOL    HW248511   0.255   4.996   0.249
48872SOL     OW48512   2.672   0.962   9.583
48872SOL    HW148513   2.582   0.993   9.593
48872SOL    HW248514   2.724   1.042   9.579
48873SOL     OW48515   7.565  11.389   3.880
48873SOL    HW148516   7.475  11.359   3.892
48873SOL    HW248517   7.610  11.313   3.842
48874SOL     OW48518  12.765   0.188   5.078
48874SOL    HW148519  12.687   0.138   5.053
48874SOL    HW248520  12.792   0.150   5.162
48875SOL     OW48521   8.290  14.654  13.386
48875SOL    HW148522   8.349  14.729  13.385
48875SOL    HW248523   8.348  14.577  13.386
48876SOL     OW48524  13.947  12.208   0.996
48876SOL    HW148525  13.949  12.214   1.092
48876SOL    HW248526  14.038  12.193   0.971
48877SOL     OW48527   6.936   5.607   3.712
48877SOL    HW148528   7.003   5.651   3.764
48877SOL    HW248529   6.853   5.641   3.746
48878SOL     OW48530   0.672  14.851   4.814
48878SOL    HW148531   0.697  14.885   4.900
48878SOL    HW248532   0.656   0.041   4.761
48879SOL     OW48533   8.378   0.134   2.212
48879SOL    HW148534   8.442   0.198   2.244
48879SOL    HW248535   8.314   0.186   2.164
48880SOL     OW48536   1.040   9.908   4.707
48880SOL    HW148537   1.117   9.885   4.759
48880SOL    HW248538   0.991   9.969   4.763
48881SOL     OW48539   7.189   2.001  13.825
48881SOL    HW148540   7.157   1.983  13.737
48881SOL    HW248541   7.215   1.916  13.859
48882SOL     OW48542  12.028  13.588   9.441
48882SOL    HW148543  11.953  13.570   9.498
48882SOL    HW248544  12.003  13.664   9.390
48883SOL     OW48545  10.489  10.864  11.048
48883SOL    HW148546  10.496  10.778  11.088
48883SOL    HW248547  10.428  10.912  11.103
48884SOL     OW48548   7.496   5.118  10.136
48884SOL    HW148549   7.452   5.107  10.220
48884SOL    HW248550   7.506   5.029  10.103
48885SOL     OW48551   2.127   6.863   2.207
48885SOL    HW148552   2.040   6.897   2.227
48885SOL    HW248553   2.111   6.783   2.157
48886SOL     OW48554   0.260  13.379   1.112
48886SOL    HW148555   0.232  13.310   1.173
48886SOL    HW248556   0.190  13.445   1.117
48887SOL     OW48557   1.843   6.845   5.118
48887SOL    HW148558   1.879   6.807   5.039
48887SOL    HW248559   1.752   6.816   5.121
48888SOL     OW48560   3.019   6.088   9.423
48888SOL    HW148561   2.952   6.136   9.376
48888SOL    HW248562   3.076   6.052   9.355
48889SOL     OW48563   3.744   0.248   3.177
48889SOL    HW148564   3.735   0.243   3.082
48889SOL    HW248565   3.781   0.335   3.193
48890SOL     OW48566  14.622   2.514   2.404
48890SOL    HW148567  14.608   2.423   2.428
48890SOL    HW248568  14.539   2.542   2.365
48891SOL     OW48569   3.086  13.621   3.588
48891SOL    HW148570   3.132  13.678   3.650
48891SOL    HW248571   3.150  13.552   3.567
48892SOL     OW48572  11.193  14.408   0.481
48892SOL    HW148573  11.138  14.486   0.476
48892SOL    HW248574  11.279  14.437   0.451
48893SOL     OW48575  14.796   9.386   6.093
48893SOL    HW148576  14.715   9.429   6.122
48893SOL    HW248577  14.813   9.320   6.161
48894SOL     OW48578   2.160   8.946   3.963
48894SOL    HW148579   2.105   9.007   3.914
48894SOL    HW248580   2.204   8.894   3.896
48895SOL     OW48581   5.961  11.985  11.676
48895SOL    HW148582   6.008  11.963  11.596
48895SOL    HW248583   5.897  12.051  11.649
48896SOL     OW48584   7.119  12.453  13.731
48896SOL    HW148585   7.078  12.367  13.741
48896SOL    HW248586   7.120  12.469  13.637
48897SOL     OW48587   2.254  12.805   4.114
48897SOL    HW148588   2.348  12.790   4.129
48897SOL    HW248589   2.236  12.887   4.160
48898SOL     OW48590  13.577   5.188  13.612
48898SOL    HW148591  13.640   5.243  13.659
48898SOL    HW248592  13.606   5.190  13.521
48899SOL     OW48593  10.940  13.543   3.139
48899SOL    HW148594  10.866  13.512   3.088
48899SOL    HW248595  11.016  13.502   3.099
48900SOL     OW48596   0.030   4.500   1.109
48900SOL    HW148597  14.836   4.538   1.142
48900SOL    HW248598   0.045   4.543   1.025
48901SOL     OW48599  12.101   4.572   7.242
48901SOL    HW148600  12.069   4.571   7.152
48901SOL    HW248601  12.064   4.652   7.279
48902SOL     OW48602  11.417  12.415   7.582
48902SOL    HW148603  11.464  12.339   7.617
48902SOL    HW248604  11.456  12.430   7.496
48903SOL     OW48605  13.855   5.382   1.680
48903SOL    HW148606  13.783   5.319   1.677
48903SOL    HW248607  13.921   5.341   1.736
48904SOL     OW48608  14.445   6.484   3.433
48904SOL    HW148609  14.510   6.497   3.503
48904SOL    HW248610  14.435   6.389   3.427
48905SOL     OW48611  11.953  14.820   3.822
48905SOL    HW148612  11.958  14.800   3.729
48905SOL    HW248613  11.869  14.782   3.850
48906SOL     OW48614   2.513   2.407   4.338
48906SOL    HW148615   2.534   2.500   4.340
48906SOL    HW248616   2.480   2.391   4.250
48907SOL     OW48617  14.131  14.327   3.287
48907SOL    HW148618  14.168  14.344   3.373
48907SOL    HW248619  14.191  14.369   3.226
48908SOL     OW48620  10.161   4.804   7.835
48908SOL    HW148621  10.159   4.774   7.744
48908SOL    HW248622  10.081   4.856   7.845
48909SOL     OW48623   8.715   1.706   9.248
48909SOL    HW148624   8.657   1.782   9.247
48909SOL    HW248625   8.795   1.736   9.207
48910SOL     OW48626   0.561   0.604  13.515
48910SOL    HW148627   0.469   0.580  13.503
48910SOL    HW248628   0.609   0.537  13.468
48911SOL     OW48629  11.768  11.288  12.839
48911SOL    HW148630  11.825  11.217  12.810
48911SOL    HW248631  11.701  11.245  12.892
48912SOL     OW48632   7.049   9.054   0.572
48912SOL    HW148633   7.099   9.061   0.653
48912SOL    HW248634   7.063   9.138   0.528
48913SOL     OW48635   5.499   8.437   1.487
48913SOL    HW148636   5.574   8.496   1.484
48913SOL    HW248637   5.451   8.456   1.406
48914SOL     OW48638  14.161   5.057  13.821
48914SOL    HW148639  14.115   5.094  13.896
48914SOL    HW248640  14.158   4.962  13.836
48915SOL     OW48641  14.456   2.525   7.010
48915SOL    HW148642  14.516   2.456   7.037
48915SOL    HW248643  14.369   2.486   7.020
48916SOL     OW48644   9.386  11.533  13.735
48916SOL    HW148645   9.328  11.464  13.767
48916SOL    HW248646   9.367  11.538  13.641
48917SOL     OW48647   6.118   2.734   3.284
48917SOL    HW148648   6.113   2.780   3.368
48917SOL    HW248649   6.028   2.736   3.251
48918SOL     OW48650  11.056   9.116   1.268
48918SOL    HW148651  11.135   9.077   1.304
48918SOL    HW248652  10.997   9.043   1.254
48919SOL     OW48653   2.365  10.386   0.773
48919SOL    HW148654   2.396  10.349   0.690
48919SOL    HW248655   2.419  10.344   0.839
48920SOL     OW48656  14.172  10.777  12.150
48920SOL    HW148657  14.160  10.728  12.232
48920SOL    HW248658  14.261  10.811  12.155
48921SOL     OW48659   0.723   4.693   6.373
48921SOL    HW148660   0.696   4.769   6.321
48921SOL    HW248661   0.781   4.729   6.440
48922SOL     OW48662  13.323   8.664   3.280
48922SOL    HW148663  13.275   8.706   3.352
48922SOL    HW248664  13.303   8.571   3.290
48923SOL     OW48665   3.590   8.805  11.224
48923SOL    HW148666   3.544   8.815  11.140
48923SOL    HW248667   3.677   8.772  11.199
48924SOL     OW48668  13.124   8.295  11.281
48924SOL    HW148669  13.037   8.329  11.263
48924SOL    HW248670  13.162   8.356  11.345
48925SOL     OW48671   5.321  11.408   0.439
48925SOL    HW148672   5.232  11.375   0.425
48925SOL    HW248673   5.312  11.472   0.509
48926SOL     OW48674  14.760  12.949   3.920
48926SOL    HW148675  14.682  12.961   3.974
48926SOL    HW248676  14.733  12.887   3.852
48927SOL     OW48677  11.421  13.107  12.463
48927SOL    HW148678  11.401  13.106  12.369
48927SOL    HW248679  11.353  13.162  12.501
48928SOL     OW48680   1.329  13.942   9.747
48928SOL    HW148681   1.405  13.910   9.700
48928SOL    HW248682   1.303  14.021   9.699
48929SOL     OW48683  12.914  10.863   4.149
48929SOL    HW148684  12.843  10.855   4.085
48929SOL    HW248685  12.988  10.897   4.098
48930SOL     OW48686   5.596  11.590   0.576
48930SOL    HW148687   5.645  11.519   0.534
48930SOL    HW248688   5.658  11.628   0.638
48931SOL     OW48689   0.474   8.475   8.751
48931SOL    HW148690   0.409   8.441   8.689
48931SOL    HW248691   0.444   8.443   8.836
48932SOL     OW48692   7.023   6.981   3.710
48932SOL    HW148693   7.083   6.977   3.784
48932SOL    HW248694   6.962   6.908   3.725
48933SOL     OW48695   7.864  14.618   1.244
48933SOL    HW148696   7.827  14.705   1.256
48933SOL    HW248697   7.807  14.576   1.179
48934SOL     OW48698  11.778   8.335  11.024
48934SOL    HW148699  11.838   8.359  11.095
48934SOL    HW248700  11.814   8.379  10.947
48935SOL     OW48701  12.296   5.466   8.257
48935SOL    HW148702  12.229   5.497   8.318
48935SOL    HW248703  12.378   5.478   8.305
48936SOL     OW48704   6.014  14.154   6.666
48936SOL    HW148705   5.999  14.248   6.674
48936SOL    HW248706   5.938  14.120   6.620
48937SOL     OW48707  11.342  12.005   1.568
48937SOL    HW148708  11.436  12.016   1.559
48937SOL    HW248709  11.314  12.077   1.625
48938SOL     OW48710   3.570   3.506   0.114
48938SOL    HW148711   3.659   3.478   0.135
48938SOL    HW248712   3.578   3.552   0.030
48939SOL     OW48713   4.971   5.551   0.537
48939SOL    HW148714   4.962   5.646   0.536
48939SOL    HW248715   4.943   5.523   0.451
48940SOL     OW48716  14.050   8.402  12.297
48940SOL    HW148717  14.036   8.349  12.219
48940SOL    HW248718  14.014   8.350  12.369
48941SOL     OW48719  11.335   2.492   5.653
48941SOL    HW148720  11.312   2.400   5.668
48941SOL    HW248721  11.357   2.496   5.560
48942SOL     OW48722   6.382   1.570  11.825
48942SOL    HW148723   6.307   1.595  11.771
48942SOL    HW248724   6.357   1.594  11.914
48943SOL     OW48725  14.512   0.861   0.582
48943SOL    HW148726  14.530   0.932   0.520
48943SOL    HW248727  14.552   0.784   0.541
48944SOL     OW48728  11.749  11.885   2.565
48944SOL    HW148729  11.800  11.878   2.484
48944SOL    HW248730  11.815  11.897   2.633
48945SOL     OW48731  12.636   0.203   2.070
48945SOL    HW148732  12.642   0.150   1.990
48945SOL    HW248733  12.598   0.286   2.040
48946SOL     OW48734   8.304   2.109  14.163
48946SOL    HW148735   8.246   2.145  14.096
48946SOL    HW248736   8.291   2.166  14.240
48947SOL     OW48737   6.409   8.963  13.573
48947SOL    HW148738   6.491   8.953  13.623
48947SOL    HW248739   6.380   8.873  13.558
48948SOL     OW48740  14.728   8.005  13.733
48948SOL    HW148741  14.787   8.079  13.715
48948SOL    HW248742  14.784   7.939  13.773
48949SOL     OW48743   8.155  13.135   5.492
48949SOL    HW148744   8.062  13.152   5.480
48949SOL    HW248745   8.165  13.122   5.586
48950SOL     OW48746   3.917  11.793   4.326
48950SOL    HW148747   3.841  11.850   4.328
48950SOL    HW248748   3.991  11.852   4.313
48951SOL     OW48749   3.475   9.891   9.431
48951SOL    HW148750   3.381   9.898   9.412
48951SOL    HW248751   3.484   9.807   9.477
48952SOL     OW48752   1.300  14.222   0.561
48952SOL    HW148753   1.391  14.226   0.533
48952SOL    HW248754   1.259  14.158   0.503
48953SOL     OW48755  14.210   1.700   2.175
48953SOL    HW148756  14.118   1.690   2.148
48953SOL    HW248757  14.252   1.619   2.147
48954SOL     OW48758  13.346  10.069   2.381
48954SOL    HW148759  13.384  10.009   2.445
48954SOL    HW248760  13.351  10.155   2.421
48955SOL     OW48761  12.898   6.842  12.289
48955SOL    HW148762  12.887   6.827  12.195
48955SOL    HW248763  12.812   6.825  12.327
48956SOL     OW48764  12.783   8.259  12.111
48956SOL    HW148765  12.874   8.281  12.128
48956SOL    HW248766  12.767   8.182  12.165
48957SOL     OW48767   1.731  11.294   0.163
48957SOL    HW148768   1.650  11.329   0.201
48957SOL    HW248769   1.780  11.371   0.135
48958SOL     OW48770   6.601   7.239  13.431
48958SOL    HW148771   6.517   7.238  13.478
48958SOL    HW248772   6.582   7.287  13.350
48959SOL     OW48773   9.170   1.274  10.343
48959SOL    HW148774   9.114   1.266  10.420
48959SOL    HW248775   9.110   1.274  10.269
48960SOL     OW48776   5.249   6.437   1.667
48960SOL    HW148777   5.324   6.457   1.722
48960SOL    HW248778   5.224   6.348   1.691
48961SOL     OW48779  14.209   6.536   5.276
48961SOL    HW148780  14.168   6.604   5.329
48961SOL    HW248781  14.155   6.530   5.197
48962SOL     OW48782   2.935  14.339  12.290
48962SOL    HW148783   2.925  14.359  12.197
48962SOL    HW248784   2.861  14.384  12.332
48963SOL     OW48785   8.342  10.688  10.641
48963SOL    HW148786   8.286  10.655  10.571
48963SOL    HW248787   8.362  10.778  10.615
48964SOL     OW48788  11.263   5.939   3.180
48964SOL    HW148789  11.232   6.000   3.247
48964SOL    HW248790  11.183   5.905   3.140
48965SOL     OW48791  13.886  10.547   7.841
48965SOL    HW148792  13.980  10.546   7.854
48965SOL    HW248793  13.866  10.639   7.821
48966SOL     OW48794   6.851   2.906  13.698
48966SOL    HW148795   6.934   2.896  13.745
48966SOL    HW248796   6.851   2.834  13.635
48967SOL     OW48797   1.662  14.693   4.235
48967SOL    HW148798   1.672  14.775   4.285
48967SOL    HW248799   1.745  14.648   4.246
48968SOL     OW48800   1.852  13.017   1.176
48968SOL    HW148801   1.779  12.956   1.164
48968SOL    HW248802   1.898  12.983   1.253
48969SOL     OW48803  11.769   8.791   6.463
48969SOL    HW148804  11.780   8.704   6.425
48969SOL    HW248805  11.718   8.839   6.398
48970SOL     OW48806   1.242   3.973  14.625
48970SOL    HW148807   1.163   3.985  14.572
48970SOL    HW248808   1.314   3.987  14.564
48971SOL     OW48809   5.125   4.278  11.950
48971SOL    HW148810   5.095   4.238  11.869
48971SOL    HW248811   5.140   4.204  12.010
48972SOL     OW48812   2.320   6.082   5.143
48972SOL    HW148813   2.354   6.011   5.198
48972SOL    HW248814   2.347   6.057   5.054
48973SOL     OW48815   1.009   5.820  12.746
48973SOL    HW148816   0.977   5.896  12.697
48973SOL    HW248817   0.989   5.839  12.837
48974SOL     OW48818   7.955   8.178   1.468
48974SOL    HW148819   7.937   8.270   1.445
48974SOL    HW248820   8.038   8.159   1.424
48975SOL     OW48821   0.369   2.237  10.335
48975SOL    HW148822   0.395   2.301  10.401
48975SOL    HW248823   0.318   2.171  10.383
48976SOL     OW48824  14.455  11.474   1.101
48976SOL    HW148825  14.450  11.555   1.151
48976SOL    HW248826  14.425  11.498   1.013
48977SOL     OW48827   7.808   8.300   3.909
48977SOL    HW148828   7.841   8.258   3.989
48977SOL    HW248829   7.808   8.230   3.844
48978SOL     OW48830   2.727  12.823   8.886
48978SOL    HW148831   2.793  12.773   8.837
48978SOL    HW248832   2.692  12.760   8.949
48979SOL     OW48833   4.616   0.507   1.098
48979SOL    HW148834   4.596   0.579   1.039
48979SOL    HW248835   4.546   0.509   1.163
48980SOL     OW48836  13.071   3.743   9.769
48980SOL    HW148837  13.109   3.749   9.682
48980SOL    HW248838  12.980   3.718   9.754
48981SOL     OW48839   1.176   8.309   6.653
48981SOL    HW148840   1.105   8.245   6.653
48981SOL    HW248841   1.173   8.349   6.566
48982SOL     OW48842   3.302  12.993   9.410
48982SOL    HW148843   3.347  12.982   9.493
48982SOL    HW248844   3.220  12.944   9.421
48983SOL     OW48845   2.957   4.726  12.299
48983SOL    HW148846   3.005   4.805  12.325
48983SOL    HW248847   2.996   4.656  12.351
48984SOL     OW48848   7.792   3.029   5.372
48984SOL    HW148849   7.770   2.964   5.439
48984SOL    HW248850   7.862   3.081   5.411
48985SOL     OW48851   8.304   3.055   6.529
48985SOL    HW148852   8.240   3.058   6.459
48985SOL    HW248853   8.320   3.147   6.551
48986SOL     OW48854   1.163   3.771  10.300
48986SOL    HW148855   1.246   3.732  10.327
48986SOL    HW248856   1.102   3.751  10.370
48987SOL     OW48857   2.955   7.414   1.048
48987SOL    HW148858   2.880   7.447   0.998
48987SOL    HW248859   2.972   7.327   1.012
48988SOL     OW48860   3.958   1.266   0.187
48988SOL    HW148861   3.970   1.202   0.257
48988SOL    HW248862   3.865   1.264   0.167
48989SOL     OW48863  14.661   2.737   6.090
48989SOL    HW148864  14.609   2.782   6.023
48989SOL    HW248865  14.599   2.720   6.161
48990SOL     OW48866   3.736  10.036   7.936
48990SOL    HW148867   3.717   9.958   7.884
48990SOL    HW248868   3.752  10.104   7.871
48991SOL     OW48869   4.676   6.057   4.655
48991SOL    HW148870   4.690   5.963   4.652
48991SOL    HW248871   4.672   6.084   4.563
48992SOL     OW48872   6.711   1.052   3.201
48992SOL    HW148873   6.713   0.976   3.259
48992SOL    HW248874   6.798   1.055   3.163
48993SOL     OW48875  14.345  13.582   8.636
48993SOL    HW148876  14.408  13.653   8.650
48993SOL    HW248877  14.261  13.627   8.627
48994SOL     OW48878   1.622   3.633   6.300
48994SOL    HW148879   1.656   3.593   6.380
48994SOL    HW248880   1.547   3.579   6.276
48995SOL     OW48881   3.746   9.562   0.868
48995SOL    HW148882   3.720   9.470   0.879
48995SOL    HW248883   3.665   9.611   0.884
48996SOL     OW48884   4.701  13.659   5.763
48996SOL    HW148885   4.734  13.722   5.700
48996SOL    HW248886   4.733  13.574   5.732
48997SOL     OW48887   5.916   3.909   0.779
48997SOL    HW148888   5.999   3.927   0.823
48997SOL    HW248889   5.873   3.844   0.835
48998SOL     OW48890  10.012   7.384  13.633
48998SOL    HW148891  10.037   7.303  13.588
48998SOL    HW248892  10.072   7.450  13.598
48999SOL     OW48893  12.811  13.318   5.864
48999SOL    HW148894  12.733  13.373   5.878
48999SOL    HW248895  12.776  13.229   5.856
49000SOL     OW48896  13.405   6.269   8.336
49000SOL    HW148897  13.427   6.181   8.307
49000SOL    HW248898  13.422   6.270   8.430
49001SOL     OW48899   5.134   3.348   8.124
49001SOL    HW148900   5.067   3.287   8.094
49001SOL    HW248901   5.090   3.432   8.131
49002SOL     OW48902   4.382   4.238  13.754
49002SOL    HW148903   4.414   4.319  13.793
49002SOL    HW248904   4.454   4.207  13.699
49003SOL     OW48905  12.279   0.271  11.440
49003SOL    HW148906  12.225   0.251  11.363
49003SOL    HW248907  12.253   0.205  11.504
49004SOL     OW48908   1.557  10.755  10.531
49004SOL    HW148909   1.508  10.806  10.596
49004SOL    HW248910   1.648  10.779  10.546
49005SOL     OW48911   1.585   0.875  14.083
49005SOL    HW148912   1.604   0.866  14.176
49005SOL    HW248913   1.537   0.957  14.076
49006SOL     OW48914   5.385   3.583  10.705
49006SOL    HW148915   5.339   3.553  10.626
49006SOL    HW248916   5.442   3.653  10.674
49007SOL     OW48917   6.412   1.898  12.196
49007SOL    HW148918   6.466   1.919  12.272
49007SOL    HW248919   6.474   1.880  12.126
49008SOL     OW48920  13.847   5.042   6.948
49008SOL    HW148921  13.939   5.021   6.965
49008SOL    HW248922  13.830   5.120   7.001
49009SOL     OW48923  13.935   1.144   6.517
49009SOL    HW148924  14.021   1.140   6.476
49009SOL    HW248925  13.907   1.053   6.524
49010SOL     OW48926   1.891  11.226  13.012
49010SOL    HW148927   1.926  11.153  12.961
49010SOL    HW248928   1.798  11.206  13.022
49011SOL     OW48929   8.724  10.764   6.902
49011SOL    HW148930   8.722  10.682   6.951
49011SOL    HW248931   8.637  10.802   6.914
49012SOL     OW48932  10.269  10.283  11.460
49012SOL    HW148933  10.199  10.219  11.446
49012SOL    HW248934  10.245  10.327  11.541
49013SOL     OW48935  10.410   4.697   9.556
49013SOL    HW148936  10.453   4.759   9.497
49013SOL    HW248937  10.420   4.612   9.513
49014SOL     OW48938   4.297   0.794  10.698
49014SOL    HW148939   4.374   0.737  10.710
49014SOL    HW248940   4.266   0.810  10.787
49015SOL     OW48941   9.296   2.720   7.491
49015SOL    HW148942   9.353   2.684   7.423
49015SOL    HW248943   9.320   2.672   7.570
49016SOL     OW48944   5.834   3.487   3.352
49016SOL    HW148945   5.773   3.450   3.416
49016SOL    HW248946   5.831   3.427   3.278
49017SOL     OW48947   9.564  14.746   4.790
49017SOL    HW148948   9.485  14.715   4.745
49017SOL    HW248949   9.533  14.818   4.845
49018SOL     OW48950   3.615   3.176   6.915
49018SOL    HW148951   3.708   3.155   6.914
49018SOL    HW248952   3.610   3.263   6.954
49019SOL     OW48953  11.388   7.323  11.469
49019SOL    HW148954  11.395   7.318  11.373
49019SOL    HW248955  11.384   7.231  11.498
49020SOL     OW48956  14.389   5.865   3.435
49020SOL    HW148957  14.441   5.945   3.443
49020SOL    HW248958  14.334   5.864   3.513
49021SOL     OW48959  11.543  13.211  12.941
49021SOL    HW148960  11.492  13.131  12.928
49021SOL    HW248961  11.518  13.240  13.029
49022SOL     OW48962  12.548   9.513  10.613
49022SOL    HW148963  12.643   9.498  10.610
49022SOL    HW248964  12.511   9.437  10.567
49023SOL     OW48965   1.845   4.866  14.305
49023SOL    HW148966   1.938   4.888  14.299
49023SOL    HW248967   1.808   4.931  14.365
49024SOL     OW48968   4.704   6.764  10.471
49024SOL    HW148969   4.627   6.797  10.518
49024SOL    HW248970   4.757   6.722  10.539
49025SOL     OW48971  13.213   0.423  13.469
49025SOL    HW148972  13.213   0.476  13.549
49025SOL    HW248973  13.247   0.338  13.496
49026SOL     OW48974  11.453   0.781  14.053
49026SOL    HW148975  11.466   0.688  14.075
49026SOL    HW248976  11.484   0.828  14.130
49027SOL     OW48977  13.079   0.219  10.241
49027SOL    HW148978  13.070   0.315  10.240
49027SOL    HW248979  13.126   0.201  10.322
49028SOL     OW48980   3.565   0.006  11.411
49028SOL    HW148981   3.633   0.066  11.380
49028SOL    HW248982   3.600  14.806  11.392
49029SOL     OW48983  14.675  12.170  14.304
49029SOL    HW148984  14.675  12.230  14.378
49029SOL    HW248985  14.740  12.104  14.326
49030SOL     OW48986   6.253   8.803   0.152
49030SOL    HW148987   6.322   8.862   0.182
49030SOL    HW248988   6.297   8.721   0.134
49031SOL     OW48989  14.066  10.596  10.246
49031SOL    HW148990  14.118  10.629  10.172
49031SOL    HW248991  14.055  10.502  10.228
49032SOL     OW48992   8.138   1.776   6.569
49032SOL    HW148993   8.192   1.721   6.625
49032SOL    HW248994   8.133   1.729   6.486
49033SOL     OW48995   9.012  13.812   2.184
49033SOL    HW148996   9.102  13.780   2.189
49033SOL    HW248997   9.016  13.900   2.221
49034SOL     OW48998  12.797   3.483   3.395
49034SOL    HW148999  12.718   3.532   3.369
49034SOL    HW249000  12.763   3.397   3.422
49035SOL     OW49001   2.911   7.222   0.416
49035SOL    HW149002   2.992   7.255   0.379
49035SOL    HW249003   2.922   7.234   0.511
49036SOL     OW49004  11.871   1.272   2.971
49036SOL    HW149005  11.941   1.219   2.934
49036SOL    HW249006  11.809   1.284   2.899
49037SOL     OW49007   4.062   9.828  13.605
49037SOL    HW149008   4.066   9.914  13.563
49037SOL    HW249009   4.015   9.773  13.543
49038SOL     OW49010   8.950   5.197  12.735
49038SOL    HW149011   8.964   5.267  12.799
49038SOL    HW249012   8.892   5.236  12.669
49039SOL     OW49013   8.452  11.643   1.716
49039SOL    HW149014   8.438  11.590   1.638
49039SOL    HW249015   8.394  11.605   1.782
49040SOL     OW49016   5.129   9.195   1.531
49040SOL    HW149017   5.100   9.104   1.531
49040SOL    HW249018   5.119   9.222   1.440
49041SOL     OW49019   0.589  13.571   2.957
49041SOL    HW149020   0.579  13.511   3.030
49041SOL    HW249021   0.669  13.620   2.976
49042SOL     OW49022   6.234  12.779   7.864
49042SOL    HW149023   6.221  12.856   7.809
49042SOL    HW249024   6.156  12.775   7.919
49043SOL     OW49025   3.750   4.139   8.460
49043SOL    HW149026   3.669   4.108   8.420
49043SOL    HW249027   3.725   4.221   8.504
49044SOL     OW49028  13.893   7.325  10.744
49044SOL    HW149029  13.943   7.254  10.703
49044SOL    HW249030  13.945   7.349  10.821
49045SOL     OW49031   0.674   5.970   1.406
49045SOL    HW149032   0.689   5.919   1.326
49045SOL    HW249033   0.754   6.022   1.417
49046SOL     OW49034  14.422   2.021   7.098
49046SOL    HW149035  14.399   2.003   7.190
49046SOL    HW249036  14.457   1.939   7.066
49047SOL     OW49037   3.367   2.656   4.079
49047SOL    HW149038   3.408   2.583   4.032
49047SOL    HW249039   3.350   2.622   4.167
49048SOL     OW49040  11.145   3.451  11.468
49048SOL    HW149041  11.222   3.494  11.431
49048SOL    HW249042  11.071   3.502  11.436
49049SOL     OW49043   8.069   3.619   0.173
49049SOL    HW149044   7.986   3.650   0.137
49049SOL    HW249045   8.077   3.664   0.257
49050SOL     OW49046  14.576   7.859   2.638
49050SOL    HW149047  14.670   7.850   2.620
49050SOL    HW249048  14.534   7.853   2.552
49051SOL     OW49049   2.903   1.592   0.744
49051SOL    HW149050   2.830   1.635   0.789
49051SOL    HW249051   2.980   1.614   0.798
49052SOL     OW49052  13.820   2.117  14.413
49052SOL    HW149053  13.794   2.119  14.505
49052SOL    HW249054  13.893   2.056  14.410
49053SOL     OW49055  11.605   1.709  13.198
49053SOL    HW149056  11.663   1.782  13.221
49053SOL    HW249057  11.562   1.737  13.117
49054SOL     OW49058   4.245   5.347   9.322
49054SOL    HW149059   4.306   5.299   9.266
49054SOL    HW249060   4.286   5.346   9.408
49055SOL     OW49061   8.323   2.631   3.212
49055SOL    HW149062   8.252   2.675   3.258
49055SOL    HW249063   8.398   2.640   3.270
49056SOL     OW49064  13.759  12.797   3.681
49056SOL    HW149065  13.717  12.811   3.596
49056SOL    HW249066  13.791  12.707   3.677
49057SOL     OW49067   2.109   3.991  10.174
49057SOL    HW149068   2.072   3.912  10.134
49057SOL    HW249069   2.099   3.978  10.268
49058SOL     OW49070   3.637  12.714   2.210
49058SOL    HW149071   3.591  12.752   2.135
49058SOL    HW249072   3.634  12.781   2.277
49059SOL     OW49073   2.742   8.466   8.147
49059SOL    HW149074   2.694   8.498   8.071
49059SOL    HW249075   2.676   8.418   8.198
49060SOL     OW49076  14.885  12.720   6.237
49060SOL    HW149077  14.867  12.681   6.323
49060SOL    HW249078  14.807  12.699   6.185
49061SOL     OW49079   9.799   3.286  11.835
49061SOL    HW149080   9.805   3.298  11.740
49061SOL    HW249081   9.760   3.367  11.867
49062SOL     OW49082   6.929  13.078  12.912
49062SOL    HW149083   6.880  13.161  12.916
49062SOL    HW249084   7.002  13.096  12.852
49063SOL     OW49085   6.909  10.751   3.647
49063SOL    HW149086   6.836  10.732   3.706
49063SOL    HW249087   6.987  10.738   3.701
49064SOL     OW49088  13.874   2.896   1.451
49064SOL    HW149089  13.877   2.958   1.378
49064SOL    HW249090  13.960   2.855   1.451
49065SOL     OW49091   0.749   1.135   2.426
49065SOL    HW149092   0.715   1.162   2.511
49065SOL    HW249093   0.705   1.052   2.407
49066SOL     OW49094   2.998   7.893   2.885
49066SOL    HW149095   3.020   7.985   2.899
49066SOL    HW249096   2.903   7.894   2.871
49067SOL     OW49097   5.912   7.102  14.237
49067SOL    HW149098   5.880   7.120  14.326
49067SOL    HW249099   5.913   7.006  14.232
49068SOL     OW49100  11.299   0.981   7.548
49068SOL    HW149101  11.232   0.925   7.586
49068SOL    HW249102  11.270   0.996   7.458
49069SOL     OW49103   6.185   9.392  13.480
49069SOL    HW149104   6.158   9.303  13.458
49069SOL    HW249105   6.280   9.392  13.470
49070SOL     OW49106  13.892  11.611   0.454
49070SOL    HW149107  13.934  11.597   0.370
49070SOL    HW249108  13.825  11.543   0.461
49071SOL     OW49109   1.233  12.205  12.817
49071SOL    HW149110   1.255  12.298  12.810
49071SOL    HW249111   1.194  12.183  12.732
49072SOL     OW49112  12.075   3.959  13.083
49072SOL    HW149113  12.140   4.014  13.127
49072SOL    HW249114  12.041   4.014  13.012
49073SOL     OW49115   1.026  10.902   0.120
49073SOL    HW149116   1.054  10.829   0.175
49073SOL    HW249117   1.052  10.980   0.168
49074SOL     OW49118   7.673   5.332   6.715
49074SOL    HW149119   7.649   5.260   6.656
49074SOL    HW249120   7.597   5.344   6.771
49075SOL     OW49121   9.311   1.823   1.358
49075SOL    HW149122   9.313   1.834   1.263
49075SOL    HW249123   9.251   1.750   1.373
49076SOL     OW49124  13.391   0.982   9.681
49076SOL    HW149125  13.344   0.935   9.750
49076SOL    HW249126  13.349   1.068   9.678
49077SOL     OW49127   2.645  12.894   8.161
49077SOL    HW149128   2.568  12.914   8.214
49077SOL    HW249129   2.655  12.971   8.104
49078SOL     OW49130   8.788   2.062   9.539
49078SOL    HW149131   8.864   2.005   9.554
49078SOL    HW249132   8.788   2.077   9.444
49079SOL     OW49133   8.182   6.933   2.627
49079SOL    HW149134   8.180   6.837   2.628
49079SOL    HW249135   8.091   6.959   2.640
49080SOL     OW49136   3.345  13.610   7.451
49080SOL    HW149137   3.377  13.592   7.539
49080SOL    HW249138   3.422  13.645   7.405
49081SOL     OW49139   1.696   6.851  10.998
49081SOL    HW149140   1.727   6.788  10.934
49081SOL    HW249141   1.704   6.807  11.083
49082SOL     OW49142   1.062  13.376   4.626
49082SOL    HW149143   1.144  13.368   4.577
49082SOL    HW249144   1.086  13.420   4.707
49083SOL     OW49145  12.861   3.070   8.553
49083SOL    HW149146  12.917   3.126   8.499
49083SOL    HW249147  12.772   3.088   8.521
49084SOL     OW49148  12.585   5.816   6.891
49084SOL    HW149149  12.633   5.734   6.879
49084SOL    HW249150  12.654   5.882   6.904
49085SOL     OW49151  12.816   8.752   0.066
49085SOL    HW149152  12.748   8.727   0.003
49085SOL    HW249153  12.836   8.843   0.045
49086SOL     OW49154   2.959  11.023   2.777
49086SOL    HW149155   3.032  11.083   2.783
49086SOL    HW249156   2.979  10.953   2.840
49087SOL     OW49157   9.742  12.701  12.208
49087SOL    HW149158   9.690  12.750  12.273
49087SOL    HW249159   9.825  12.685  12.252
49088SOL     OW49160   0.128   0.440  14.171
49088SOL    HW149161   0.200   0.407  14.224
49088SOL    HW249162   0.068   0.480  14.235
49089SOL     OW49163   2.429   6.923   3.688
49089SOL    HW149164   2.343   6.884   3.703
49089SOL    HW249165   2.413   7.017   3.690
49090SOL     OW49166   5.123   0.230  10.542
49090SOL    HW149167   5.165   0.150  10.575
49090SOL    HW249168   5.052   0.246  10.604
49091SOL     OW49169  11.084   2.613   9.403
49091SOL    HW149170  11.079   2.635   9.496
49091SOL    HW249171  11.146   2.541   9.398
49092SOL     OW49172  14.783  10.714   3.359
49092SOL    HW149173  14.776  10.757   3.274
49092SOL    HW249174  14.854  10.760   3.404
49093SOL     OW49175   1.300  10.494   5.284
49093SOL    HW149176   1.287  10.408   5.245
49093SOL    HW249177   1.321  10.551   5.210
49094SOL     OW49178   4.242  12.025   7.291
49094SOL    HW149179   4.193  12.087   7.346
49094SOL    HW249180   4.223  12.052   7.201
49095SOL     OW49181   9.523   4.881   6.154
49095SOL    HW149182   9.563   4.950   6.208
49095SOL    HW249183   9.450   4.925   6.110
49096SOL     OW49184   4.547   2.185   8.475
49096SOL    HW149185   4.469   2.222   8.515
49096SOL    HW249186   4.604   2.160   8.548
49097SOL     OW49187   1.511  11.304  11.523
49097SOL    HW149188   1.488  11.256  11.444
49097SOL    HW249189   1.440  11.367  11.535
49098SOL     OW49190   2.718   8.807   9.134
49098SOL    HW149191   2.664   8.766   9.201
49098SOL    HW249192   2.808   8.793   9.162
49099SOL     OW49193   2.811  12.888  13.104
49099SOL    HW149194   2.758  12.925  13.033
49099SOL    HW249195   2.886  12.847  13.059
49100SOL     OW49196   5.900   9.826  11.159
49100SOL    HW149197   5.896   9.747  11.213
49100SOL    HW249198   5.894   9.898  11.222
49101SOL     OW49199   4.415   4.679  11.324
49101SOL    HW149200   4.382   4.636  11.402
49101SOL    HW249201   4.353   4.656  11.255
49102SOL     OW49202   4.213   2.927  12.616
49102SOL    HW149203   4.222   2.982  12.693
49102SOL    HW249204   4.286   2.953  12.560
49103SOL     OW49205   3.852  13.911  14.632
49103SOL    HW149206   3.822  13.981  14.690
49103SOL    HW249207   3.778  13.894  14.574
49104SOL     OW49208  12.643   2.113   3.919
49104SOL    HW149209  12.577   2.113   3.850
49104SOL    HW249210  12.644   2.203   3.951
49105SOL     OW49211   9.070   0.985  10.496
49105SOL    HW149212   9.113   0.947  10.419
49105SOL    HW249213   9.142   1.004  10.556
49106SOL     OW49214   7.219  13.615   3.376
49106SOL    HW149215   7.169  13.696   3.369
49106SOL    HW249216   7.193  13.577   3.460
49107SOL     OW49217   5.220  11.279   9.615
49107SOL    HW149218   5.246  11.351   9.673
49107SOL    HW249219   5.286  11.280   9.546
49108SOL     OW49220  11.491   9.985   0.669
49108SOL    HW149221  11.524  10.031   0.746
49108SOL    HW249222  11.434   9.917   0.704
49109SOL     OW49223   7.423   4.520   7.855
49109SOL    HW149224   7.486   4.474   7.910
49109SOL    HW249225   7.448   4.612   7.860
49110SOL     OW49226  14.297   9.582  14.492
49110SOL    HW149227  14.331   9.508  14.443
49110SOL    HW249228  14.208   9.594  14.459
49111SOL     OW49229   5.998   0.128  12.536
49111SOL    HW149230   5.965   0.065  12.599
49111SOL    HW249231   6.093   0.112  12.533
49112SOL     OW49232  14.340   7.261   4.038
49112SOL    HW149233  14.258   7.275   4.085
49112SOL    HW249234  14.379   7.348   4.029
49113SOL     OW49235  13.061  12.543   8.467
49113SOL    HW149236  13.141  12.503   8.500
49113SOL    HW249237  13.051  12.507   8.379
49114SOL     OW49238   5.439   1.300   2.175
49114SOL    HW149239   5.487   1.218   2.187
49114SOL    HW249240   5.424   1.305   2.080
49115SOL     OW49241   4.552  13.142   4.321
49115SOL    HW149242   4.567  13.084   4.396
49115SOL    HW249243   4.602  13.102   4.250
49116SOL     OW49244  11.073   6.441   0.602
49116SOL    HW149245  11.098   6.374   0.666
49116SOL    HW249246  11.025   6.393   0.534
49117SOL     OW49247   8.291   9.429   2.962
49117SOL    HW149248   8.262   9.368   2.893
49117SOL    HW249249   8.332   9.501   2.915
49118SOL     OW49250   1.073   1.488   5.414
49118SOL    HW149251   1.043   1.439   5.337
49118SOL    HW249252   1.151   1.535   5.383
49119SOL     OW49253   8.287   0.273   9.435
49119SOL    HW149254   8.212   0.245   9.382
49119SOL    HW249255   8.271   0.235   9.521
49120SOL     OW49256   4.339  11.928  13.178
49120SOL    HW149257   4.379  11.920  13.264
49120SOL    HW249258   4.412  11.939  13.118
49121SOL     OW49259   5.037   8.323   5.836
49121SOL    HW149260   5.056   8.296   5.926
49121SOL    HW249261   5.123   8.323   5.793
49122SOL     OW49262   2.265   6.686  14.231
49122SOL    HW149263   2.351   6.684  14.188
49122SOL    HW249264   2.251   6.596  14.260
49123SOL     OW49265   9.619   1.250  12.939
49123SOL    HW149266   9.676   1.303  12.884
49123SOL    HW249267   9.647   1.160  12.922
49124SOL     OW49268   0.254   9.333   7.172
49124SOL    HW149269   0.282   9.307   7.260
49124SOL    HW249270   0.190   9.266   7.147
49125SOL     OW49271   2.524   2.721   9.122
49125SOL    HW149272   2.590   2.780   9.158
49125SOL    HW249273   2.463   2.707   9.193
49126SOL     OW49274   6.232   4.329   0.468
49126SOL    HW149275   6.285   4.257   0.504
49126SOL    HW249276   6.292   4.375   0.410
49127SOL     OW49277   3.608   6.378  10.791
49127SOL    HW149278   3.585   6.459  10.838
49127SOL    HW249279   3.694   6.396  10.753
49128SOL     OW49280   2.888  12.782   9.246
49128SOL    HW149281   2.946  12.760   9.173
49128SOL    HW249282   2.828  12.708   9.251
49129SOL     OW49283   5.614   5.183  11.422
49129SOL    HW149284   5.560   5.164  11.499
49129SOL    HW249285   5.561   5.242  11.368
49130SOL     OW49286   6.412   2.778   7.971
49130SOL    HW149287   6.454   2.700   7.935
49130SOL    HW249288   6.363   2.746   8.046
49131SOL     OW49289   5.849  10.962   7.470
49131SOL    HW149290   5.911  10.898   7.436
49131SOL    HW249291   5.896  11.045   7.468
49132SOL     OW49292   7.801   1.714   7.193
49132SOL    HW149293   7.746   1.687   7.119
49132SOL    HW249294   7.764   1.798   7.221
49133SOL     OW49295   1.773  13.284   1.430
49133SOL    HW149296   1.687  13.264   1.394
49133SOL    HW249297   1.780  13.227   1.507
49134SOL     OW49298   6.815   5.586   4.857
49134SOL    HW149299   6.841   5.495   4.846
49134SOL    HW249300   6.881   5.624   4.915
49135SOL     OW49301  11.402  12.842   9.567
49135SOL    HW149302  11.344  12.866   9.639
49135SOL    HW249303  11.357  12.872   9.489
49136SOL     OW49304  11.466   1.784  12.087
49136SOL    HW149305  11.383   1.806  12.130
49136SOL    HW249306  11.471   1.843  12.012
49137SOL     OW49307   2.053   3.847  14.828
49137SOL    HW149308   2.113   3.892  14.887
49137SOL    HW249309   2.018   3.774  14.880
49138SOL     OW49310  10.076  13.670  11.664
49138SOL    HW149311   9.994  13.630  11.633
49138SOL    HW249312  10.135  13.595  11.678
49139SOL     OW49313   3.586   1.860   4.888
49139SOL    HW149314   3.514   1.856   4.951
49139SOL    HW249315   3.548   1.897   4.809
49140SOL     OW49316  13.423   3.688   8.267
49140SOL    HW149317  13.358   3.748   8.229
49140SOL    HW249318  13.502   3.741   8.276
49141SOL     OW49319  10.795  10.468   2.019
49141SOL    HW149320  10.784  10.376   2.042
49141SOL    HW249321  10.711  10.495   1.982
49142SOL     OW49322   7.935   9.510  11.794
49142SOL    HW149323   8.022   9.531  11.827
49142SOL    HW249324   7.943   9.421  11.759
49143SOL     OW49325   4.744   9.418   1.035
49143SOL    HW149326   4.691   9.391   1.110
49143SOL    HW249327   4.778   9.504   1.059
49144SOL     OW49328   1.306  12.885   4.106
49144SOL    HW149329   1.343  12.909   4.190
49144SOL    HW249330   1.230  12.831   4.128
49145SOL     OW49331   3.170   6.206  14.421
49145SOL    HW149332   3.154   6.256  14.501
49145SOL    HW249333   3.198   6.271  14.356
49146SOL     OW49334  12.193   2.599   7.367
49146SOL    HW149335  12.264   2.564   7.312
49146SOL    HW249336  12.236   2.664   7.422
49147SOL     OW49337   3.343  11.479   7.571
49147SOL    HW149338   3.312  11.534   7.499
49147SOL    HW249339   3.336  11.389   7.537
49148SOL     OW49340  11.181   4.549   3.788
49148SOL    HW149341  11.140   4.506   3.713
49148SOL    HW249342  11.253   4.490   3.813
49149SOL     OW49343   5.880  10.309   2.137
49149SOL    HW149344   5.826  10.386   2.155
49149SOL    HW249345   5.911  10.281   2.223
49150SOL     OW49346  11.482  13.093   2.339
49150SOL    HW149347  11.441  13.137   2.414
49150SOL    HW249348  11.515  13.011   2.375
49151SOL     OW49349   6.786   8.801   9.414
49151SOL    HW149350   6.823   8.845   9.491
49151SOL    HW249351   6.841   8.830   9.342
49152SOL     OW49352  12.262  12.556  12.613
49152SOL    HW149353  12.272  12.620  12.542
49152SOL    HW249354  12.241  12.608  12.690
49153SOL     OW49355   9.878  11.358   7.187
49153SOL    HW149356   9.896  11.420   7.258
49153SOL    HW249357   9.789  11.379   7.159
49154SOL     OW49358   9.786  11.468  13.157
49154SOL    HW149359   9.776  11.439  13.066
49154SOL    HW249360   9.879  11.482  13.169
49155SOL     OW49361   1.523  12.227  11.498
49155SOL    HW149362   1.567  12.248  11.415
49155SOL    HW249363   1.555  12.294  11.559
49156SOL     OW49364   7.413  11.827   4.098
49156SOL    HW149365   7.398  11.885   4.023
49156SOL    HW249366   7.325  11.800   4.125
49157SOL     OW49367   5.948  10.219   7.889
49157SOL    HW149368   5.893  10.291   7.858
49157SOL    HW249369   5.901  10.182   7.964
49158SOL     OW49370   9.442  11.111   1.656
49158SOL    HW149371   9.467  11.044   1.720
49158SOL    HW249372   9.391  11.063   1.591
49159SOL     OW49373   2.958   5.388   6.387
49159SOL    HW149374   2.955   5.439   6.306
49159SOL    HW249375   2.906   5.310   6.367
49160SOL     OW49376   1.199   5.303   3.812
49160SOL    HW149377   1.254   5.320   3.889
49160SOL    HW249378   1.148   5.383   3.801
49161SOL     OW49379  11.025   6.390  10.080
49161SOL    HW149380  10.939   6.373  10.117
49161SOL    HW249381  11.084   6.394  10.155
49162SOL     OW49382   3.351   2.865  12.680
49162SOL    HW149383   3.291   2.933  12.652
49162SOL    HW249384   3.425   2.912  12.718
49163SOL     OW49385   0.449   0.808  14.568
49163SOL    HW149386   0.457   0.713  14.558
49163SOL    HW249387   0.478   0.826  14.657
49164SOL     OW49388   4.173  14.729  13.343
49164SOL    HW149389   4.176  14.771  13.429
49164SOL    HW249390   4.264  14.706  13.324
49165SOL     OW49391   7.888   5.682   0.671
49165SOL    HW149392   7.889   5.739   0.593
49165SOL    HW249393   7.824   5.614   0.649
49166SOL     OW49394  10.022  11.972   4.922
49166SOL    HW149395  10.058  11.993   5.008
49166SOL    HW249396   9.930  11.999   4.928
49167SOL     OW49397   2.374   5.807  14.559
49167SOL    HW149398   2.340   5.788  14.646
49167SOL    HW249399   2.311   5.869  14.521
49168SOL     OW49400   0.829  13.369  11.776
49168SOL    HW149401   0.834  13.325  11.691
49168SOL    HW249402   0.888  13.319  11.832
49169SOL     OW49403  13.625   5.273   6.315
49169SOL    HW149404  13.595   5.242   6.230
49169SOL    HW249405  13.633   5.193   6.368
49170SOL     OW49406   9.895   0.552  13.209
49170SOL    HW149407   9.858   0.597  13.133
49170SOL    HW249408   9.990   0.555  13.194
49171SOL     OW49409   5.990  13.628   0.241
49171SOL    HW149410   5.988  13.534   0.261
49171SOL    HW249411   5.965  13.670   0.323
49172SOL     OW49412   3.493  10.586   3.142
49172SOL    HW149413   3.433  10.519   3.109
49172SOL    HW249414   3.436  10.659   3.167
49173SOL     OW49415   8.452  14.379   9.611
49173SOL    HW149416   8.484  14.329   9.686
49173SOL    HW249417   8.465  14.321   9.536
49174SOL     OW49418   9.785   0.385   3.463
49174SOL    HW149419   9.839   0.399   3.540
49174SOL    HW249420   9.846   0.359   3.394
49175SOL     OW49421  12.348  12.083   5.995
49175SOL    HW149422  12.277  12.107   6.054
49175SOL    HW249423  12.366  11.991   6.016
49176SOL     OW49424   1.203   9.235  14.494
49176SOL    HW149425   1.128   9.271  14.448
49176SOL    HW249426   1.279   9.266  14.444
49177SOL     OW49427   2.849  11.646  10.228
49177SOL    HW149428   2.899  11.661  10.148
49177SOL    HW249429   2.898  11.692  10.297
49178SOL     OW49430   4.444   3.355  13.903
49178SOL    HW149431   4.387   3.345  13.826
49178SOL    HW249432   4.515   3.411  13.872
49179SOL     OW49433   1.365   7.116   2.176
49179SOL    HW149434   1.363   7.207   2.204
49179SOL    HW249435   1.277   7.099   2.143
49180SOL     OW49436   4.131  10.804   2.057
49180SOL    HW149437   4.158  10.732   2.000
49180SOL    HW249438   4.212  10.848   2.080
49181SOL     OW49439   8.829   7.717  13.102
49181SOL    HW149440   8.848   7.624  13.088
49181SOL    HW249441   8.852   7.759  13.020
49182SOL     OW49442   3.185   9.411   3.093
49182SOL    HW149443   3.251   9.356   3.050
49182SOL    HW249444   3.167   9.481   3.030
49183SOL     OW49445   1.418  11.418  12.840
49183SOL    HW149446   1.410  11.455  12.752
49183SOL    HW249447   1.484  11.349  12.831
49184SOL     OW49448   3.713  13.926   7.034
49184SOL    HW149449   3.629  13.954   6.997
49184SOL    HW249450   3.752  14.005   7.071
49185SOL     OW49451   0.213   1.088   7.781
49185SOL    HW149452   0.175   1.077   7.868
49185SOL    HW249453   0.170   1.022   7.727
49186SOL     OW49454   3.897   9.791   5.903
49186SOL    HW149455   3.848   9.752   5.975
49186SOL    HW249456   3.839   9.782   5.827
49187SOL     OW49457   8.298  12.212  14.483
49187SOL    HW149458   8.247  12.240  14.559
49187SOL    HW249459   8.339  12.131  14.511
49188SOL     OW49460   1.229  12.187  13.099
49188SOL    HW149461   1.230  12.274  13.138
49188SOL    HW249462   1.234  12.203  13.004
49189SOL     OW49463  13.796   1.730  10.244
49189SOL    HW149464  13.739   1.805  10.263
49189SOL    HW249465  13.807   1.686  10.329
49190SOL     OW49466   5.332   8.577  12.188
49190SOL    HW149467   5.356   8.485  12.199
49190SOL    HW249468   5.415   8.623  12.182
49191SOL     OW49469   9.192   3.428   0.910
49191SOL    HW149470   9.278   3.469   0.920
49191SOL    HW249471   9.138   3.469   0.977
49192SOL     OW49472  14.603   8.802  10.207
49192SOL    HW149473  14.655   8.770  10.133
49192SOL    HW249474  14.526   8.745  10.209
49193SOL     OW49475  10.991   5.520   2.485
49193SOL    HW149476  10.951   5.607   2.492
49193SOL    HW249477  10.924   5.460   2.516
49194SOL     OW49478  12.830  11.104  10.607
49194SOL    HW149479  12.885  11.031  10.576
49194SOL    HW249480  12.749  11.095  10.558
49195SOL     OW49481  11.682   6.347   1.251
49195SOL    HW149482  11.612   6.366   1.314
49195SOL    HW249483  11.753   6.406   1.277
49196SOL     OW49484   6.643   6.329   2.284
49196SOL    HW149485   6.637   6.266   2.212
49196SOL    HW249486   6.669   6.411   2.241
49197SOL     OW49487  14.809  10.865   7.756
49197SOL    HW149488  14.755  10.851   7.678
49197SOL    HW249489  14.859  10.945   7.737
49198SOL     OW49490   2.261   6.617   6.720
49198SOL    HW149491   2.240   6.570   6.640
49198SOL    HW249492   2.347   6.583   6.746
49199SOL     OW49493   8.457   7.647   2.454
49199SOL    HW149494   8.531   7.589   2.442
49199SOL    HW249495   8.492   7.735   2.436
49200SOL     OW49496  10.641   4.021   3.640
49200SOL    HW149497  10.607   4.019   3.730
49200SOL    HW249498  10.715   4.081   3.643
49201SOL     OW49499  13.178   9.788  10.357
49201SOL    HW149500  13.225   9.721  10.406
49201SOL    HW249501  13.113   9.822  10.417
49202SOL     OW49502   5.952   4.967   5.004
49202SOL    HW149503   6.026   4.958   5.065
49202SOL    HW249504   5.986   4.939   4.920
49203SOL     OW49505   9.777   8.896  12.457
49203SOL    HW149506   9.718   8.831  12.495
49203SOL    HW249507   9.718   8.961  12.418
49204SOL     OW49508   1.134   5.584  14.190
49204SOL    HW149509   1.199   5.514  14.198
49204SOL    HW249510   1.184   5.657  14.153
49205SOL     OW49511  14.005  10.230  12.360
49205SOL    HW149512  13.962  10.276  12.432
49205SOL    HW249513  14.073  10.177  12.403
49206SOL     OW49514   7.409   9.259  14.400
49206SOL    HW149515   7.337   9.308  14.361
49206SOL    HW249516   7.458   9.325  14.449
49207SOL     OW49517   5.733   4.420   5.003
49207SOL    HW149518   5.737   4.500   5.056
49207SOL    HW249519   5.691   4.356   5.060
49208SOL     OW49520  12.986   6.218   3.416
49208SOL    HW149521  13.036   6.143   3.385
49208SOL    HW249522  13.046   6.266   3.472
49209SOL     OW49523   4.036  10.267   8.877
49209SOL    HW149524   4.077  10.312   8.803
49209SOL    HW249525   3.963  10.219   8.838
49210SOL     OW49526   1.395   3.174   4.495
49210SOL    HW149527   1.349   3.109   4.442
49210SOL    HW249528   1.325   3.229   4.531
49211SOL     OW49529   5.799   2.061   7.838
49211SOL    HW149530   5.795   2.132   7.774
49211SOL    HW249531   5.748   1.990   7.799
49212SOL     OW49532   0.005   6.137   7.216
49212SOL    HW149533   0.004   6.223   7.259
49212SOL    HW249534  14.861   6.077   7.284
49213SOL     OW49535   0.288   7.353  13.284
49213SOL    HW149536   0.307   7.428  13.227
49213SOL    HW249537   0.273   7.280  13.225
49214SOL     OW49538  11.205  12.802  11.251
49214SOL    HW149539  11.194  12.710  11.275
49214SOL    HW249540  11.293  12.824  11.280
49215SOL     OW49541  10.936   9.870  11.538
49215SOL    HW149542  11.009   9.931  11.528
49215SOL    HW249543  10.886   9.904  11.611
49216SOL     OW49544  11.359  11.573   8.834
49216SOL    HW149545  11.325  11.566   8.745
49216SOL    HW249546  11.285  11.607   8.885
49217SOL     OW49547   9.707   4.975  10.942
49217SOL    HW149548   9.663   5.034  10.880
49217SOL    HW249549   9.637   4.919  10.975
49218SOL     OW49550   6.621  14.053  11.310
49218SOL    HW149551   6.666  14.038  11.393
49218SOL    HW249552   6.627  14.148  11.297
49219SOL     OW49553  13.513   7.040   9.499
49219SOL    HW149554  13.523   7.134   9.480
49219SOL    HW249555  13.534   6.996   9.417
49220SOL     OW49556   8.590   9.914   2.013
49220SOL    HW149557   8.648   9.842   1.991
49220SOL    HW249558   8.649   9.987   2.032
49221SOL     OW49559  14.626  14.070   4.939
49221SOL    HW149560  14.695  14.057   4.875
49221SOL    HW249561  14.663  14.130   5.003
49222SOL     OW49562   3.411   3.889   1.437
49222SOL    HW149563   3.327   3.885   1.484
49222SOL    HW249564   3.409   3.973   1.392
49223SOL     OW49565   4.221   3.480   7.751
49223SOL    HW149566   4.281   3.438   7.689
49223SOL    HW249567   4.275   3.544   7.797
49224SOL     OW49568   5.112   7.366   3.397
49224SOL    HW149569   5.086   7.278   3.370
49224SOL    HW249570   5.127   7.359   3.492
49225SOL     OW49571   7.463   8.066   5.239
49225SOL    HW149572   7.525   8.135   5.266
49225SOL    HW249573   7.519   7.993   5.212
49226SOL     OW49574   7.486  11.126  13.690
49226SOL    HW149575   7.438  11.133  13.773
49226SOL    HW249576   7.464  11.207  13.643
49227SOL     OW49577   0.650   8.432  14.280
49227SOL    HW149578   0.702   8.366  14.234
49227SOL    HW249579   0.562   8.397  14.283
49228SOL     OW49580  11.317  12.581  13.019
49228SOL    HW149581  11.410  12.598  13.003
49228SOL    HW249582  11.284  12.549  12.936
49229SOL     OW49583  10.918   5.852  10.412
49229SOL    HW149584  10.873   5.794  10.351
49229SOL    HW249585  10.882   5.939  10.393
49230SOL     OW49586  13.707   7.476   3.795
49230SOL    HW149587  13.695   7.392   3.752
49230SOL    HW249588  13.775   7.460   3.860
49231SOL     OW49589   3.264  10.560  10.793
49231SOL    HW149590   3.337  10.546  10.854
49231SOL    HW249591   3.288  10.640  10.746
49232SOL     OW49592   6.230   0.935   4.185
49232SOL    HW149593   6.156   0.917   4.127
49232SOL    HW249594   6.277   1.007   4.142
49233SOL     OW49595  14.651   3.674   8.403
49233SOL    HW149596  14.592   3.711   8.338
49233SOL    HW249597  14.659   3.742   8.470
49234SOL     OW49598  13.488  12.074  12.453
49234SOL    HW149599  13.475  11.990  12.497
49234SOL    HW249600  13.573  12.105  12.486
49235SOL     OW49601   9.691   0.738  11.241
49235SOL    HW149602   9.643   0.802  11.189
49235SOL    HW249603   9.779   0.776  11.250
49236SOL     OW49604   2.078   0.677  14.446
49236SOL    HW149605   2.075   0.589  14.483
49236SOL    HW249606   1.994   0.716  14.469
49237SOL     OW49607   1.629   0.681   6.888
49237SOL    HW149608   1.540   0.653   6.906
49237SOL    HW249609   1.633   0.771   6.920
49238SOL     OW49610   6.848  10.938   1.343
49238SOL    HW149611   6.914  10.992   1.300
49238SOL    HW249612   6.764  10.972   1.310
49239SOL     OW49613   5.258  12.944   9.090
49239SOL    HW149614   5.278  13.037   9.102
49239SOL    HW249615   5.339  12.898   9.112
49240SOL     OW49616   8.601   3.001  11.458
49240SOL    HW149617   8.589   2.959  11.543
49240SOL    HW249618   8.523   3.054  11.446
49241SOL     OW49619   0.910   4.528   3.973
49241SOL    HW149620   0.898   4.460   3.907
49241SOL    HW249621   0.828   4.530   4.021
49242SOL     OW49622  11.217   2.883   6.325
49242SOL    HW149623  11.310   2.867   6.310
49242SOL    HW249624  11.207   2.978   6.317
49243SOL     OW49625  12.176   2.269  11.954
49243SOL    HW149626  12.086   2.244  11.936
49243SOL    HW249627  12.186   2.260  12.049
49244SOL     OW49628  10.810  10.708  13.329
49244SOL    HW149629  10.844  10.763  13.258
49244SOL    HW249630  10.874  10.719  13.400
49245SOL     OW49631  13.042  14.566  14.832
49245SOL    HW149632  13.065  14.532  14.746
49245SOL    HW249633  12.998  14.492  14.876
49246SOL     OW49634  13.909  14.145   0.028
49246SOL    HW149635  13.871  14.190  14.840
49246SOL    HW249636  13.992  14.110  14.883
49247SOL     OW49637   3.046   4.638   1.170
49247SOL    HW149638   3.106   4.682   1.231
49247SOL    HW249639   3.070   4.546   1.176
49248SOL     OW49640   8.648   0.510   4.325
49248SOL    HW149641   8.557   0.492   4.301
49248SOL    HW249642   8.698   0.439   4.285
49249SOL     OW49643  14.541   2.880  12.572
49249SOL    HW149644  14.633   2.875  12.596
49249SOL    HW249645  14.542   2.899  12.478
49250SOL     OW49646   9.751   0.931  12.471
49250SOL    HW149647   9.767   0.837  12.467
49250SOL    HW249648   9.703   0.951  12.390
49251SOL     OW49649  12.398   4.513  12.485
49251SOL    HW149650  12.467   4.449  12.467
49251SOL    HW249651  12.421   4.589  12.432
49252SOL     OW49652   8.771   3.263   9.930
49252SOL    HW149653   8.722   3.246  10.011
49252SOL    HW249654   8.707   3.302   9.871
49253SOL     OW49655   0.455  12.689  13.504
49253SOL    HW149656   0.451  12.759  13.439
49253SOL    HW249657   0.392  12.715  13.571
49254SOL     OW49658   2.755   2.594   6.266
49254SOL    HW149659   2.715   2.663   6.214
49254SOL    HW249660   2.729   2.614   6.356
49255SOL     OW49661   5.236   7.790  10.708
49255SOL    HW149662   5.189   7.839  10.776
49255SOL    HW249663   5.207   7.828  10.626
49256SOL     OW49664  13.501   6.900  10.193
49256SOL    HW149665  13.564   6.885  10.123
49256SOL    HW249666  13.472   6.991  10.181
49257SOL     OW49667   9.728   4.235  12.792
49257SOL    HW149668   9.768   4.318  12.817
49257SOL    HW249669   9.778   4.208  12.715
49258SOL     OW49670  13.144   6.811  14.462
49258SOL    HW149671  13.201   6.763  14.402
49258SOL    HW249672  13.076   6.848  14.406
49259SOL     OW49673  13.251   8.793   4.276
49259SOL    HW149674  13.233   8.874   4.229
49259SOL    HW249675  13.304   8.741   4.215
49260SOL     OW49676   7.910  12.756   2.104
49260SOL    HW149677   7.897  12.831   2.045
49260SOL    HW249678   7.933  12.796   2.188
49261SOL     OW49679   0.438   2.832   0.613
49261SOL    HW149680   0.375   2.889   0.657
49261SOL    HW249681   0.520   2.881   0.614
49262SOL     OW49682  14.190   9.317   0.835
49262SOL    HW149683  14.204   9.363   0.918
49262SOL    HW249684  14.173   9.227   0.861
49263SOL     OW49685  10.679   9.530   5.558
49263SOL    HW149686  10.706   9.484   5.637
49263SOL    HW249687  10.656   9.461   5.496
49264SOL     OW49688  10.285   3.071   0.629
49264SOL    HW149689  10.334   3.153   0.633
49264SOL    HW249690  10.281   3.049   0.536
49265SOL     OW49691   5.724  13.129  14.001
49265SOL    HW149692   5.807  13.161  14.036
49265SOL    HW249693   5.663  13.139  14.075
49266SOL     OW49694   7.616   1.335   1.176
49266SOL    HW149695   7.683   1.276   1.141
49266SOL    HW249696   7.615   1.408   1.115
49267SOL     OW49697   0.178  14.045   9.826
49267SOL    HW149698   0.229  14.126   9.817
49267SOL    HW249699   0.109  14.053   9.761
49268SOL     OW49700   5.058   3.599   1.438
49268SOL    HW149701   5.109   3.598   1.519
49268SOL    HW249702   5.000   3.675   1.447
49269SOL     OW49703   4.012   3.107   6.260
49269SOL    HW149704   4.012   3.157   6.178
49269SOL    HW249705   4.091   3.053   6.254
49270SOL     OW49706   3.126  14.052   2.676
49270SOL    HW149707   3.130  14.121   2.742
49270SOL    HW249708   3.132  13.971   2.726
49271SOL     OW49709   8.812   5.730  11.089
49271SOL    HW149710   8.754   5.783  11.034
49271SOL    HW249711   8.759   5.708  11.165
49272SOL     OW49712   5.629   4.955   6.389
49272SOL    HW149713   5.706   4.992   6.346
49272SOL    HW249714   5.642   4.973   6.482
49273SOL     OW49715  14.043   5.060  13.522
49273SOL    HW149716  14.086   5.043  13.606
49273SOL    HW249717  14.106   5.028  13.457
49274SOL     OW49718   0.557  11.920   0.325
49274SOL    HW149719   0.645  11.951   0.346
49274SOL    HW249720   0.509  11.999   0.300
49275SOL     OW49721   9.816   9.645   1.615
49275SOL    HW149722   9.776   9.565   1.582
49275SOL    HW249723   9.791   9.712   1.552
49276SOL     OW49724  10.208   3.564   0.036
49276SOL    HW149725  10.274   3.556   0.104
49276SOL    HW249726  10.218   3.484  14.871
49277SOL     OW49727  14.125   7.762   2.252
49277SOL    HW149728  14.066   7.828   2.289
49277SOL    HW249729  14.114   7.770   2.157
49278SOL     OW49730  10.876  10.781  14.829
49278SOL    HW149731  10.918  10.730   0.011
49278SOL    HW249732  10.920  10.752  14.749
49279SOL     OW49733   8.889   2.030   1.950
49279SOL    HW149734   8.885   2.098   2.017
49279SOL    HW249735   8.948   1.964   1.986
49280SOL     OW49736   4.344   9.313   6.977
49280SOL    HW149737   4.342   9.388   6.919
49280SOL    HW249738   4.251   9.293   6.995
49281SOL     OW49739   2.474   1.281   4.014
49281SOL    HW149740   2.557   1.249   4.051
49281SOL    HW249741   2.417   1.204   4.013
49282SOL     OW49742   3.320   6.156  10.471
49282SOL    HW149743   3.271   6.109  10.538
49282SOL    HW249744   3.295   6.248  10.484
49283SOL     OW49745   0.328   4.594   0.355
49283SOL    HW149746   0.335   4.507   0.395
49283SOL    HW249747   0.234   4.611   0.352
49284SOL     OW49748   1.553   5.378   9.424
49284SOL    HW149749   1.507   5.299   9.397
49284SOL    HW249750   1.493   5.422   9.484
49285SOL     OW49751  13.942   1.519  12.512
49285SOL    HW149752  13.911   1.518  12.422
49285SOL    HW249753  13.866   1.492  12.564
49286SOL     OW49754  14.531   5.599   9.343
49286SOL    HW149755  14.477   5.534   9.388
49286SOL    HW249756  14.561   5.657   9.413
49287SOL     OW49757   0.585   0.534   2.577
49287SOL    HW149758   0.511   0.548   2.636
49287SOL    HW249759   0.646   0.605   2.597
49288SOL     OW49760  14.084   8.686   8.297
49288SOL    HW149761  14.037   8.659   8.218
49288SOL    HW249762  14.048   8.631   8.366
49289SOL     OW49763  11.725  14.057   1.994
49289SOL    HW149764  11.685  14.111   1.926
49289SOL    HW249765  11.728  13.969   1.956
49290SOL     OW49766   3.052   0.439  11.325
49290SOL    HW149767   3.026   0.511  11.381
49290SOL    HW249768   3.096   0.377  11.383
49291SOL     OW49769   1.636   7.935   1.052
49291SOL    HW149770   1.670   7.846   1.044
49291SOL    HW249771   1.585   7.933   1.134
49292SOL     OW49772   5.467   7.834   1.095
49292SOL    HW149773   5.483   7.747   1.131
49292SOL    HW249774   5.517   7.836   1.014
49293SOL     OW49775   7.224  14.723   2.819
49293SOL    HW149776   7.300  14.747   2.872
49293SOL    HW249777   7.177  14.806   2.807
49294SOL     OW49778   0.720  11.372   8.705
49294SOL    HW149779   0.789  11.312   8.677
49294SOL    HW249780   0.749  11.458   8.673
49295SOL     OW49781  12.047   3.293  10.409
49295SOL    HW149782  12.107   3.293  10.483
49295SOL    HW249783  12.098   3.327  10.336
49296SOL     OW49784  11.712  14.612   2.924
49296SOL    HW149785  11.741  14.645   2.840
49296SOL    HW249786  11.639  14.554   2.903
49297SOL     OW49787  13.979   6.789   0.452
49297SOL    HW149788  13.941   6.701   0.444
49297SOL    HW249789  13.907   6.848   0.434
49298SOL     OW49790   6.516   0.291   8.556
49298SOL    HW149791   6.524   0.224   8.625
49298SOL    HW249792   6.607   0.311   8.532
49299SOL     OW49793   6.556   4.438   1.506
49299SOL    HW149794   6.487   4.385   1.545
49299SOL    HW249795   6.540   4.434   1.412
49300SOL     OW49796   1.078   3.655   4.707
49300SOL    HW149797   1.105   3.741   4.737
49300SOL    HW249798   1.028   3.619   4.780
49301SOL     OW49799   4.233   8.572   5.124
49301SOL    HW149800   4.222   8.498   5.065
49301SOL    HW249801   4.144   8.602   5.143
49302SOL     OW49802   0.949   5.909   9.864
49302SOL    HW149803   0.925   5.959   9.786
49302SOL    HW249804   0.911   5.957   9.937
49303SOL     OW49805   4.984   6.252  14.244
49303SOL    HW149806   4.927   6.176  14.252
49303SOL    HW249807   4.977   6.279  14.152
49304SOL     OW49808   8.476   5.167   5.911
49304SOL    HW149809   8.494   5.139   5.821
49304SOL    HW249810   8.498   5.091   5.964
49305SOL     OW49811   6.179   1.327  12.397
49305SOL    HW149812   6.227   1.345  12.317
49305SOL    HW249813   6.240   1.349  12.467
49306SOL     OW49814  13.963   1.422   9.396
49306SOL    HW149815  13.869   1.413   9.411
49306SOL    HW249816  14.002   1.405   9.482
49307SOL     OW49817  14.497  10.833   9.013
49307SOL    HW149818  14.559  10.826   8.941
49307SOL    HW249819  14.535  10.899   9.071
49308SOL     OW49820   0.140   2.516   8.979
49308SOL    HW149821   0.194   2.552   8.909
49308SOL    HW249822   0.081   2.455   8.935
49309SOL     OW49823   2.620   2.238   4.505
49309SOL    HW149824   2.573   2.287   4.437
49309SOL    HW249825   2.556   2.176   4.539
49310SOL     OW49826  12.021   1.425   6.829
49310SOL    HW149827  11.940   1.470   6.852
49310SOL    HW249828  12.071   1.421   6.910
49311SOL     OW49829   7.809   2.161   3.192
49311SOL    HW149830   7.840   2.089   3.247
49311SOL    HW249831   7.721   2.180   3.224
49312SOL     OW49832  12.833   2.383   2.490
49312SOL    HW149833  12.753   2.331   2.485
49312SOL    HW249834  12.805   2.468   2.523
49313SOL     OW49835   9.870   2.496   1.321
49313SOL    HW149836   9.810   2.546   1.377
49313SOL    HW249837   9.824   2.489   1.237
49314SOL     OW49838   5.915   1.149  12.824
49314SOL    HW149839   5.972   1.202  12.768
49314SOL    HW249840   5.972   1.119  12.894
49315SOL     OW49841   6.655   4.289  13.220
49315SOL    HW149842   6.653   4.352  13.293
49315SOL    HW249843   6.726   4.229  13.242
49316SOL     OW49844  11.357   5.464  10.895
49316SOL    HW149845  11.400   5.379  10.904
49316SOL    HW249846  11.279   5.457  10.950
49317SOL     OW49847  14.004   1.608   7.259
49317SOL    HW149848  13.969   1.610   7.171
49317SOL    HW249849  14.073   1.541   7.256
49318SOL     OW49850   2.529  10.262   6.865
49318SOL    HW149851   2.577  10.312   6.799
49318SOL    HW249852   2.570  10.175   6.864
49319SOL     OW49853   4.434  11.251   0.733
49319SOL    HW149854   4.450  11.209   0.648
49319SOL    HW249855   4.413  11.179   0.792
49320SOL     OW49856   1.951   5.176  10.151
49320SOL    HW149857   2.013   5.122  10.201
49320SOL    HW249858   1.868   5.129  10.158
49321SOL     OW49859  11.266   2.904  12.353
49321SOL    HW149860  11.253   2.845  12.427
49321SOL    HW249861  11.340   2.867  12.305
49322SOL     OW49862  13.441  11.708  10.372
49322SOL    HW149863  13.451  11.619  10.338
49322SOL    HW249864  13.369  11.702  10.435
49323SOL     OW49865   8.000  13.007   8.937
49323SOL    HW149866   7.977  12.915   8.928
49323SOL    HW249867   7.984  13.045   8.851
49324SOL     OW49868   7.130   9.560   2.097
49324SOL    HW149869   7.044   9.522   2.083
49324SOL    HW249870   7.141   9.561   2.192
49325SOL     OW49871   7.372   0.077   7.121
49325SOL    HW149872   7.349   0.059   7.212
49325SOL    HW249873   7.447   0.136   7.128
49326SOL     OW49874  12.095   0.734  14.151
49326SOL    HW149875  12.130   0.792  14.083
49326SOL    HW249876  12.086   0.791  14.227
49327SOL     OW49877   2.880  13.052   5.717
49327SOL    HW149878   2.799  13.039   5.767
49327SOL    HW249879   2.949  13.021   5.775
49328SOL     OW49880   2.290   5.547   2.783
49328SOL    HW149881   2.360   5.584   2.836
49328SOL    HW249882   2.257   5.474   2.835
49329SOL     OW49883  11.333  12.350   2.514
49329SOL    HW149884  11.327  12.435   2.470
49329SOL    HW249885  11.313  12.369   2.606
49330SOL     OW49886   1.302   3.983  13.601
49330SOL    HW149887   1.213   4.018  13.594
49330SOL    HW249888   1.302   3.931  13.681
49331SOL     OW49889   8.055  13.485   3.931
49331SOL    HW149890   8.068  13.391   3.919
49331SOL    HW249891   8.077  13.501   4.023
49332SOL     OW49892   1.802   3.648  10.702
49332SOL    HW149893   1.775   3.597  10.626
49332SOL    HW249894   1.812   3.584  10.772
49333SOL     OW49895  11.193  14.603   0.123
49333SOL    HW149896  11.228  14.686   0.090
49333SOL    HW249897  11.110  14.593   0.077
49334SOL     OW49898  13.015   8.845   1.033
49334SOL    HW149899  13.032   8.782   1.103
49334SOL    HW249900  12.926   8.876   1.050
49335SOL     OW49901   6.044  14.355   1.959
49335SOL    HW149902   5.982  14.290   1.991
49335SOL    HW249903   5.992  14.435   1.949
49336SOL     OW49904   3.596   0.906   3.745
49336SOL    HW149905   3.571   0.820   3.778
49336SOL    HW249906   3.560   0.968   3.808
49337SOL     OW49907   3.483  14.080   7.302
49337SOL    HW149908   3.565  14.082   7.351
49337SOL    HW249909   3.434  14.157   7.332
49338SOL     OW49910   1.493   1.485   8.171
49338SOL    HW149911   1.460   1.396   8.188
49338SOL    HW249912   1.563   1.497   8.235
49339SOL     OW49913  14.385   4.519   7.234
49339SOL    HW149914  14.302   4.521   7.281
49339SOL    HW249915  14.383   4.436   7.186
49340SOL     OW49916   1.443   8.807   8.105
49340SOL    HW149917   1.373   8.851   8.153
49340SOL    HW249918   1.500   8.877   8.076
49341SOL     OW49919   3.539   7.619   0.048
49341SOL    HW149920   3.583   7.565  14.871
49341SOL    HW249921   3.609   7.669   0.090
49342SOL     OW49922   2.085  10.724   2.485
49342SOL    HW149923   2.051  10.762   2.404
49342SOL    HW249924   2.010  10.725   2.545
49343SOL     OW49925   5.431   7.432  10.916
49343SOL    HW149926   5.338   7.452  10.901
49343SOL    HW249927   5.458   7.384  10.838
49344SOL     OW49928   9.846  11.858   5.723
49344SOL    HW149929   9.827  11.786   5.663
49344SOL    HW249930   9.850  11.936   5.667
49345SOL     OW49931   2.482   5.733   8.063
49345SOL    HW149932   2.400   5.710   8.021
49345SOL    HW249933   2.538   5.656   8.053
49346SOL     OW49934  12.638   3.501   5.343
49346SOL    HW149935  12.608   3.592   5.337
49346SOL    HW249936  12.661   3.490   5.435
49347SOL     OW49937  12.102  14.058  11.208
49347SOL    HW149938  12.111  13.990  11.142
49347SOL    HW249939  12.011  14.049  11.238
49348SOL     OW49940   1.971   4.605   5.740
49348SOL    HW149941   1.883   4.566   5.739
49348SOL    HW249942   2.019   4.554   5.806
49349SOL     OW49943   9.149   6.173   8.093
49349SOL    HW149944   9.174   6.262   8.119
49349SOL    HW249945   9.208   6.116   8.143
49350SOL     OW49946   9.224   5.142   4.110
49350SOL    HW149947   9.130   5.156   4.124
49350SOL    HW249948   9.261   5.139   4.198
49351SOL     OW49949  10.627   7.854  12.321
49351SOL    HW149950  10.653   7.921  12.257
49351SOL    HW249951  10.673   7.878  12.401
49352SOL     OW49952  11.266   7.910   4.930
49352SOL    HW149953  11.225   7.845   4.872
49352SOL    HW249954  11.216   7.990   4.915
49353SOL     OW49955   6.821  14.813   6.812
49353SOL    HW149956   6.773  14.834   6.893
49353SOL    HW249957   6.753  14.802   6.746
49354SOL     OW49958   4.741   7.847   6.699
49354SOL    HW149959   4.772   7.845   6.790
49354SOL    HW249960   4.676   7.777   6.695
49355SOL     OW49961   2.610   6.800   7.994
49355SOL    HW149962   2.645   6.883   7.962
49355SOL    HW249963   2.621   6.805   8.089
49356SOL     OW49964   4.530   2.260   6.715
49356SOL    HW149965   4.501   2.172   6.739
49356SOL    HW249966   4.595   2.247   6.646
49357SOL     OW49967   4.787   5.368  14.040
49357SOL    HW149968   4.787   5.290  13.984
49357SOL    HW249969   4.695   5.382  14.062
49358SOL     OW49970  11.174  12.169   7.388
49358SOL    HW149971  11.127  12.087   7.378
49358SOL    HW249972  11.242  12.151   7.454
49359SOL     OW49973   0.176   1.464  13.043
49359SOL    HW149974   0.232   1.491  12.970
49359SOL    HW249975   0.104   1.418  13.002
49360SOL     OW49976   7.321   5.421   4.170
49360SOL    HW149977   7.256   5.489   4.150
49360SOL    HW249978   7.390   5.467   4.218
49361SOL     OW49979   7.548   5.897   8.236
49361SOL    HW149980   7.503   5.857   8.310
49361SOL    HW249981   7.518   5.988   8.236
49362SOL     OW49982   4.866   4.735   6.127
49362SOL    HW149983   4.777   4.771   6.119
49362SOL    HW249984   4.868   4.696   6.214
49363SOL     OW49985  12.217  13.900   4.634
49363SOL    HW149986  12.161  13.956   4.581
49363SOL    HW249987  12.259  13.960   4.696
49364SOL     OW49988  12.990   9.213  14.446
49364SOL    HW149989  13.068   9.167  14.476
49364SOL    HW249990  13.010   9.305  14.457
49365SOL     OW49991   0.287   0.670   7.743
49365SOL    HW149992   0.205   0.623   7.729
49365SOL    HW249993   0.287   0.692   7.836
49366SOL     OW49994  11.059  10.197  13.968
49366SOL    HW149995  11.063  10.235  13.880
49366SOL    HW249996  10.987  10.134  13.964
49367SOL     OW49997   1.399  10.385   3.818
49367SOL    HW149998   1.451  10.346   3.889
49367SOL    HW249999   1.437  10.348   3.738
49368SOL     OW50000   0.470  13.815   0.437
49368SOL    HW150001   0.520  13.781   0.362
49368SOL    HW250002   0.537  13.840   0.501
49369SOL     OW50003   3.287   8.970   6.401
49369SOL    HW150004   3.345   8.894   6.391
49369SOL    HW250005   3.334   9.028   6.461
49370SOL     OW50006   7.087   5.266   1.207
49370SOL    HW150007   7.143   5.262   1.130
49370SOL    HW250008   7.010   5.214   1.185
49371SOL     OW50009  11.979   5.233   3.912
49371SOL    HW150010  11.895   5.257   3.871
49371SOL    HW250011  11.967   5.252   4.005
49372SOL     OW50012  12.942   3.453  11.500
49372SOL    HW150013  12.921   3.362  11.478
49372SOL    HW250014  12.977   3.449  11.589
49373SOL     OW50015   4.939   2.908   4.338
49373SOL    HW150016   4.964   2.985   4.287
49373SOL    HW250017   5.023   2.866   4.359
49374SOL     OW50018   5.562   8.348   2.738
49374SOL    HW150019   5.533   8.300   2.816
49374SOL    HW250020   5.536   8.293   2.664
49375SOL     OW50021   6.447  11.152   0.646
49375SOL    HW150022   6.439  11.057   0.647
49375SOL    HW250023   6.503  11.170   0.570
49376SOL     OW50024   7.928   3.417  13.672
49376SOL    HW150025   7.860   3.381  13.729
49376SOL    HW250026   7.977   3.476  13.730
49377SOL     OW50027   1.208   1.372   5.770
49377SOL    HW150028   1.244   1.450   5.726
49377SOL    HW250029   1.115   1.392   5.782
49378SOL     OW50030   0.507  11.431   4.165
49378SOL    HW150031   0.447  11.411   4.237
49378SOL    HW250032   0.541  11.347   4.137
49379SOL     OW50033   3.476   7.495   3.632
49379SOL    HW150034   3.531   7.433   3.680
49379SOL    HW250035   3.504   7.581   3.663
49380SOL     OW50036   9.377   9.257  13.666
49380SOL    HW150037   9.435   9.304  13.726
49380SOL    HW250038   9.436   9.205  13.612
49381SOL     OW50039  12.071   2.823  14.147
49381SOL    HW150040  12.043   2.825  14.055
49381SOL    HW250041  12.164   2.799  14.143
49382SOL     OW50042  14.361   1.333   2.773
49382SOL    HW150043  14.328   1.243   2.782
49382SOL    HW250044  14.362   1.348   2.679
49383SOL     OW50045  13.533   2.961  11.193
49383SOL    HW150046  13.606   2.978  11.252
49383SOL    HW250047  13.561   2.886  11.140
49384SOL     OW50048   1.433   6.474   2.880
49384SOL    HW150049   1.423   6.558   2.834
49384SOL    HW250050   1.408   6.494   2.970
49385SOL     OW50051   8.534   6.165   7.180
49385SOL    HW150052   8.608   6.221   7.158
49385SOL    HW250053   8.487   6.213   7.248
49386SOL     OW50054  10.019   2.556   4.180
49386SOL    HW150055  10.087   2.504   4.222
49386SOL    HW250056   9.949   2.560   4.244
49387SOL     OW50057  12.138   9.477   5.431
49387SOL    HW150058  12.168   9.567   5.415
49387SOL    HW250059  12.197   9.422   5.380
49388SOL     OW50060   9.603   8.116   8.066
49388SOL    HW150061   9.508   8.106   8.076
49388SOL    HW250062   9.636   8.026   8.062
49389SOL     OW50063  11.074   0.352   5.985
49389SOL    HW150064  11.109   0.401   5.911
49389SOL    HW250065  11.134   0.279   5.996
49390SOL     OW50066   6.197  13.390   1.434
49390SOL    HW150067   6.135  13.358   1.369
49390SOL    HW250068   6.176  13.341   1.514
49391SOL     OW50069  14.776   7.023   7.258
49391SOL    HW150070  14.751   6.981   7.175
49391SOL    HW250071  14.704   7.084   7.276
49392SOL     OW50072   7.721  13.854  13.736
49392SOL    HW150073   7.796  13.795  13.750
49392SOL    HW250074   7.645  13.801  13.760
49393SOL     OW50075  11.744  13.664   3.986
49393SOL    HW150076  11.704  13.721   3.920
49393SOL    HW250077  11.830  13.642   3.949
49394SOL     OW50078  11.964   7.627   4.834
49394SOL    HW150079  12.049   7.640   4.791
49394SOL    HW250080  11.925   7.554   4.786
49395SOL     OW50081   0.525   3.692   5.335
49395SOL    HW150082   0.495   3.661   5.250
49395SOL    HW250083   0.600   3.748   5.315
49396SOL     OW50084   8.790  13.360   3.074
49396SOL    HW150085   8.885  13.371   3.072
49396SOL    HW250086   8.758  13.431   3.129
49397SOL     OW50087   2.027   8.189   3.043
49397SOL    HW150088   1.933   8.195   3.025
49397SOL    HW250089   2.052   8.101   3.014
49398SOL     OW50090   7.385  13.071  10.727
49398SOL    HW150091   7.414  12.997  10.675
49398SOL    HW250092   7.348  13.032  10.806
49399SOL     OW50093   1.067   9.920  10.846
49399SOL    HW150094   1.147   9.972  10.840
49399SOL    HW250095   1.088   9.851  10.910
49400SOL     OW50096   0.588   7.146   0.449
49400SOL    HW150097   0.652   7.215   0.433
49400SOL    HW250098   0.615   7.108   0.533
49401SOL     OW50099   8.835   2.765   9.953
49401SOL    HW150100   8.828   2.852   9.993
49401SOL    HW250101   8.917   2.767   9.905
49402SOL     OW50102   0.673   5.857  13.738
49402SOL    HW150103   0.639   5.946  13.747
49402SOL    HW250104   0.754   5.858  13.789
49403SOL     OW50105   4.816   2.447   6.703
49403SOL    HW150106   4.814   2.503   6.781
49403SOL    HW250107   4.733   2.400   6.705
49404SOL     OW50108  12.355   3.409   8.507
49404SOL    HW150109  12.400   3.442   8.585
49404SOL    HW250110  12.390   3.321   8.495
49405SOL     OW50111   2.834  10.923   4.869
49405SOL    HW150112   2.813  10.929   4.776
49405SOL    HW250113   2.857  11.012   4.894
49406SOL     OW50114  14.174   5.742  11.188
49406SOL    HW150115  14.124   5.693  11.254
49406SOL    HW250116  14.129   5.723  11.105
49407SOL     OW50117  10.254   4.882  13.591
49407SOL    HW150118  10.274   4.879  13.497
49407SOL    HW250119  10.167   4.843  13.598
49408SOL     OW50120   1.129   8.797   8.401
49408SOL    HW150121   1.126   8.702   8.388
49408SOL    HW250122   1.168   8.808   8.488
49409SOL     OW50123  14.522   0.960   6.962
49409SOL    HW150124  14.573   0.895   7.011
49409SOL    HW250125  14.576   0.980   6.885
49410SOL     OW50126   1.284   4.380  11.812
49410SOL    HW150127   1.352   4.419  11.866
49410SOL    HW250128   1.314   4.391  11.722
49411SOL     OW50129  10.846   5.763  12.249
49411SOL    HW150130  10.802   5.843  12.277
49411SOL    HW250131  10.798   5.733  12.172
49412SOL     OW50132   3.532  12.969   2.922
49412SOL    HW150133   3.568  12.953   2.834
49412SOL    HW250134   3.556  13.059   2.942
49413SOL     OW50135   2.772  10.512   1.659
49413SOL    HW150136   2.830  10.574   1.703
49413SOL    HW250137   2.716  10.566   1.604
49414SOL     OW50138   3.005  14.361   0.715
49414SOL    HW150139   3.032  14.396   0.800
49414SOL    HW250140   2.925  14.410   0.695
49415SOL     OW50141  13.609   1.534   9.669
49415SOL    HW150142  13.582   1.448   9.701
49415SOL    HW250143  13.646   1.578   9.746
49416SOL     OW50144   3.735  11.509  13.491
49416SOL    HW150145   3.641  11.501  13.472
49416SOL    HW250146   3.744  11.598  13.526
49417SOL     OW50147   0.618  13.361   8.336
49417SOL    HW150148   0.596  13.319   8.253
49417SOL    HW250149   0.658  13.291   8.388
49418SOL     OW50150   9.369   7.226   9.856
49418SOL    HW150151   9.330   7.313   9.858
49418SOL    HW250152   9.311   7.175   9.799
49419SOL     OW50153   5.333   9.495   8.086
49419SOL    HW150154   5.255   9.550   8.092
49419SOL    HW250155   5.355   9.494   7.993
49420SOL     OW50156  13.363   7.943   6.825
49420SOL    HW150157  13.308   7.894   6.764
49420SOL    HW250158  13.419   7.876   6.866
49421SOL     OW50159   7.972   6.735  12.433
49421SOL    HW150160   7.968   6.756  12.526
49421SOL    HW250161   7.891   6.770  12.397
49422SOL     OW50162  14.446   4.247   0.793
49422SOL    HW150163  14.434   4.340   0.772
49422SOL    HW250164  14.480   4.246   0.882
49423SOL     OW50165   0.939   4.310   9.484
49423SOL    HW150166   1.016   4.255   9.502
49423SOL    HW250167   0.973   4.399   9.481
49424SOL     OW50168   4.061   3.700   1.091
49424SOL    HW150169   3.974   3.681   1.124
49424SOL    HW250170   4.066   3.653   1.008
49425SOL     OW50171   0.162  11.983   7.229
49425SOL    HW150172   0.111  11.919   7.278
49425SOL    HW250173   0.235  12.006   7.287
49426SOL     OW50174   5.964   4.664  11.425
49426SOL    HW150175   6.037   4.634  11.479
49426SOL    HW250176   5.976   4.621  11.341
49427SOL     OW50177   6.959   6.273   3.158
49427SOL    HW150178   6.885   6.316   3.116
49427SOL    HW250179   7.035   6.322   3.126
49428SOL     OW50180   0.319  11.699  10.616
49428SOL    HW150181   0.226  11.694  10.638
49428SOL    HW250182   0.348  11.608  10.608
49429SOL     OW50183   3.003  11.712  10.695
49429SOL    HW150184   3.088  11.675  10.720
49429SOL    HW250185   2.961  11.734  10.779
49430SOL     OW50186   6.755  10.412  14.549
49430SOL    HW150187   6.775  10.483  14.488
49430SOL    HW250188   6.664  10.426  14.573
49431SOL     OW50189   2.284  12.015  10.149
49431SOL    HW150190   2.366  11.967  10.138
49431SOL    HW250191   2.221  11.949  10.177
49432SOL     OW50192  10.890   7.746   3.539
49432SOL    HW150193  10.958   7.719   3.477
49432SOL    HW250194  10.827   7.795   3.487
49433SOL     OW50195   6.644  12.517   3.271
49433SOL    HW150196   6.739  12.517   3.269
49433SOL    HW250197   6.622  12.571   3.347
49434SOL     OW50198  10.126   9.709   3.512
49434SOL    HW150199  10.206   9.751   3.482
49434SOL    HW250200  10.123   9.626   3.465
49435SOL     OW50201   5.277   0.692   6.666
49435SOL    HW150202   5.344   0.719   6.729
49435SOL    HW250203   5.194   0.715   6.708
49436SOL     OW50204  10.592   0.327  14.437
49436SOL    HW150205  10.551   0.247  14.469
49436SOL    HW250206  10.549   0.345  14.353
49437SOL     OW50207   3.231   5.393   3.936
49437SOL    HW150208   3.151   5.440   3.961
49437SOL    HW250209   3.274   5.451   3.874
49438SOL     OW50210   4.239   6.104   6.307
49438SOL    HW150211   4.297   6.052   6.363
49438SOL    HW250212   4.168   6.131   6.365
49439SOL     OW50213   7.235  10.668   6.416
49439SOL    HW150214   7.203  10.580   6.393
49439SOL    HW250215   7.327  10.655   6.438
49440SOL     OW50216   6.119   9.546   5.934
49440SOL    HW150217   6.129   9.583   5.847
49440SOL    HW250218   6.096   9.455   5.919
49441SOL     OW50219   6.087  11.188   6.803
49441SOL    HW150220   6.134  11.234   6.734
49441SOL    HW250221   6.140  11.111   6.821
49442SOL     OW50222   2.442   7.689   1.311
49442SOL    HW150223   2.414   7.769   1.266
49442SOL    HW250224   2.471   7.631   1.240
49443SOL     OW50225   3.294   1.836   0.525
49443SOL    HW150226   3.259   1.906   0.470
49443SOL    HW250227   3.349   1.881   0.589
49444SOL     OW50228   9.517   3.265  12.187
49444SOL    HW150229   9.445   3.204  12.202
49444SOL    HW250230   9.593   3.209  12.173
49445SOL     OW50231   5.488   4.396   5.674
49445SOL    HW150232   5.534   4.334   5.730
49445SOL    HW250233   5.408   4.417   5.722
49446SOL     OW50234  10.394   4.462   3.816
49446SOL    HW150235  10.365   4.377   3.850
49446SOL    HW250236  10.314   4.505   3.788
49447SOL     OW50237  10.579   5.980  12.724
49447SOL    HW150238  10.665   5.988  12.767
49447SOL    HW250239  10.577   5.889  12.694
49448SOL     OW50240   7.560   7.375   1.974
49448SOL    HW150241   7.601   7.313   1.913
49448SOL    HW250242   7.631   7.437   1.996
49449SOL     OW50243   0.882   2.927   8.574
49449SOL    HW150244   0.854   2.894   8.488
49449SOL    HW250245   0.854   3.019   8.574
49450SOL     OW50246   1.204  11.293   8.434
49450SOL    HW150247   1.285  11.299   8.383
49450SOL    HW250248   1.206  11.204   8.470
49451SOL     OW50249  11.853   3.996  10.273
49451SOL    HW150250  11.870   4.054  10.199
49451SOL    HW250251  11.924   4.015  10.335
49452SOL     OW50252  10.983  13.144   1.918
49452SOL    HW150253  11.051  13.205   1.945
49452SOL    HW250254  10.951  13.179   1.835
49453SOL     OW50255   2.244   9.247   5.495
49453SOL    HW150256   2.277   9.333   5.470
49453SOL    HW250257   2.264   9.240   5.589
49454SOL     OW50258   9.529   5.581  11.814
49454SOL    HW150259   9.521   5.491  11.846
49454SOL    HW250260   9.618   5.607  11.837
49455SOL     OW50261  12.818   2.152  12.603
49455SOL    HW150262  12.732   2.115  12.622
49455SOL    HW250263  12.857   2.092  12.539
49456SOL     OW50264  14.219  11.093  10.147
49456SOL    HW150265  14.270  11.025  10.104
49456SOL    HW250266  14.167  11.047  10.213
49457SOL     OW50267  13.319   0.428   2.034
49457SOL    HW150268  13.349   0.494   1.971
49457SOL    HW250269  13.339   0.344   1.993
49458SOL     OW50270   2.629   6.121   9.009
49458SOL    HW150271   2.591   6.033   9.007
49458SOL    HW250272   2.652   6.140   8.918
49459SOL     OW50273   8.999  13.559   2.370
49459SOL    HW150274   9.023  13.647   2.343
49459SOL    HW250275   8.921  13.570   2.424
49460SOL     OW50276   4.377  13.576   6.881
49460SOL    HW150277   4.329  13.575   6.799
49460SOL    HW250278   4.355  13.661   6.921
49461SOL     OW50279  13.142  14.739   6.506
49461SOL    HW150280  13.186  14.804   6.450
49461SOL    HW250281  13.097  14.792   6.572
49462SOL     OW50282  12.639  13.864  10.333
49462SOL    HW150283  12.669  13.931  10.393
49462SOL    HW250284  12.699  13.870  10.258
49463SOL     OW50285  10.421   1.065  13.570
49463SOL    HW150286  10.443   0.976  13.598
49463SOL    HW250287  10.401   1.112  13.651
49464SOL     OW50288   0.512   8.988   9.938
49464SOL    HW150289   0.523   8.940   9.856
49464SOL    HW250290   0.428   9.033   9.929
49465SOL     OW50291   7.513   3.074   6.308
49465SOL    HW150292   7.552   2.988   6.323
49465SOL    HW250293   7.442   3.080   6.372
49466SOL     OW50294   6.077   3.515   3.478
49466SOL    HW150295   6.054   3.488   3.567
49466SOL    HW250296   5.995   3.506   3.429
49467SOL     OW50297   2.476   8.716   5.618
49467SOL    HW150298   2.532   8.683   5.689
49467SOL    HW250299   2.408   8.650   5.609
49468SOL     OW50300   3.679   2.098  14.829
49468SOL    HW150301   3.587   2.118  14.844
49468SOL    HW250302   3.710   2.064   0.025
49469SOL     OW50303   5.142   8.113  12.027
49469SOL    HW150304   5.168   8.045  12.089
49469SOL    HW250305   5.087   8.068  11.963
49470SOL     OW50306   8.201  12.795  11.930
49470SOL    HW150307   8.291  12.769  11.947
49470SOL    HW250308   8.171  12.833  12.013
49471SOL     OW50309  12.869   7.210  11.829
49471SOL    HW150310  12.813   7.256  11.767
49471SOL    HW250311  12.939   7.173  11.775
49472SOL     OW50312   2.433   0.566   6.550
49472SOL    HW150313   2.386   0.589   6.469
49472SOL    HW250314   2.516   0.614   6.543
49473SOL     OW50315   6.713   6.232  13.429
49473SOL    HW150316   6.645   6.275  13.481
49473SOL    HW250317   6.669   6.205  13.349
49474SOL     OW50318  12.815   9.492  10.612
49474SOL    HW150319  12.841   9.402  10.631
49474SOL    HW250320  12.846   9.508  10.523
49475SOL     OW50321   3.719  12.721   9.419
49475SOL    HW150322   3.645  12.736   9.361
49475SOL    HW250323   3.680  12.717   9.507
49476SOL     OW50324  10.841   2.485  13.965
49476SOL    HW150325  10.822   2.573  13.995
49476SOL    HW250326  10.873   2.496  13.875
49477SOL     OW50327  12.192   4.585   8.041
49477SOL    HW150328  12.241   4.623   7.968
49477SOL    HW250329  12.216   4.639   8.116
49478SOL     OW50330   9.440   1.708   7.423
49478SOL    HW150331   9.504   1.706   7.352
49478SOL    HW250332   9.374   1.771   7.395
49479SOL     OW50333  12.991   3.091  12.398
49479SOL    HW150334  13.045   3.161  12.434
49479SOL    HW250335  12.910   3.134  12.371
49480SOL     OW50336   3.501   8.082   8.040
49480SOL    HW150337   3.464   8.071   7.952
49480SOL    HW250338   3.481   8.173   8.063
49481SOL     OW50339  12.584   9.814  11.032
49481SOL    HW150340  12.559   9.765  10.954
49481SOL    HW250341  12.631   9.750  11.086
49482SOL     OW50342   4.787   5.042   6.825
49482SOL    HW150343   4.749   5.008   6.906
49482SOL    HW250344   4.870   4.995   6.816
49483SOL     OW50345   7.880  10.574  11.777
49483SOL    HW150346   7.795  10.588  11.736
49483SOL    HW250347   7.897  10.480  11.766
49484SOL     OW50348   9.398   8.248   7.323
49484SOL    HW150349   9.372   8.330   7.364
49484SOL    HW250350   9.416   8.189   7.396
49485SOL     OW50351   4.187  12.703   2.100
49485SOL    HW150352   4.186  12.678   2.007
49485SOL    HW250353   4.095  12.698   2.127
49486SOL     OW50354   5.909   8.476   0.637
49486SOL    HW150355   5.884   8.522   0.557
49486SOL    HW250356   5.997   8.444   0.620
49487SOL     OW50357   7.721   7.667   2.302
49487SOL    HW150358   7.664   7.714   2.241
49487SOL    HW250359   7.809   7.683   2.270
49488SOL     OW50360  11.439   2.230   7.717
49488SOL    HW150361  11.394   2.266   7.641
49488SOL    HW250362  11.415   2.138   7.719
49489SOL     OW50363   2.613  14.610   3.278
49489SOL    HW150364   2.523  14.597   3.249
49489SOL    HW250365   2.635  14.531   3.328
49490SOL     OW50366   3.140  13.602   3.183
49490SOL    HW150367   3.050  13.574   3.197
49490SOL    HW250368   3.194  13.534   3.223
49491SOL     OW50369  12.336   1.389  11.665
49491SOL    HW150370  12.355   1.347  11.749
49491SOL    HW250371  12.326   1.482  11.686
49492SOL     OW50372   0.151   1.582   8.629
49492SOL    HW150373   0.186   1.495   8.611
49492SOL    HW250374   0.070   1.567   8.678
49493SOL     OW50375   5.042  10.888   0.511
49493SOL    HW150376   5.051  10.834   0.433
49493SOL    HW250377   5.111  10.857   0.570
49494SOL     OW50378   4.309   4.865   4.401
49494SOL    HW150379   4.353   4.800   4.346
49494SOL    HW250380   4.261   4.920   4.339
49495SOL     OW50381   6.323   3.902   4.017
49495SOL    HW150382   6.344   3.837   4.084
49495SOL    HW250383   6.260   3.961   4.059
49496SOL     OW50384   5.516  13.697  12.460
49496SOL    HW150385   5.581  13.647  12.509
49496SOL    HW250386   5.435  13.688  12.511
49497SOL     OW50387   5.188  13.986  11.069
49497SOL    HW150388   5.191  13.897  11.103
49497SOL    HW250389   5.231  14.039  11.135
49498SOL     OW50390  10.024   4.525   9.380
49498SOL    HW150391   9.935   4.551   9.357
49498SOL    HW250392  10.013   4.463   9.452
49499SOL     OW50393  12.110   7.729   2.190
49499SOL    HW150394  12.149   7.811   2.159
49499SOL    HW250395  12.017   7.739   2.171
49500SOL     OW50396  14.288   1.197   6.735
49500SOL    HW150397  14.338   1.155   6.805
49500SOL    HW250398  14.214   1.238   6.779
49501SOL     OW50399   3.972   7.736  13.164
49501SOL    HW150400   3.900   7.798  13.176
49501SOL    HW250401   3.968   7.679  13.241
49502SOL     OW50402   6.397  11.647  13.010
49502SOL    HW150403   6.348  11.590  13.070
49502SOL    HW250404   6.472  11.594  12.983
49503SOL     OW50405   8.276  13.255  14.732
49503SOL    HW150406   8.231  13.258  14.648
49503SOL    HW250407   8.252  13.170  14.769
49504SOL     OW50408   8.471   3.101  13.460
49504SOL    HW150409   8.496   3.193  13.472
49504SOL    HW250410   8.552   3.056  13.440
49505SOL     OW50411   7.650   5.108   4.050
49505SOL    HW150412   7.691   5.142   4.130
49505SOL    HW250413   7.560   5.091   4.076
49506SOL     OW50414   4.300   3.400   9.943
49506SOL    HW150415   4.385   3.433   9.973
49506SOL    HW250416   4.322   3.338   9.874
49507SOL     OW50417  13.178   5.388  10.671
49507SOL    HW150418  13.089   5.366  10.646
49507SOL    HW250419  13.201   5.464  10.616
49508SOL     OW50420  12.831   4.369   7.001
49508SOL    HW150421  12.783   4.409   6.929
49508SOL    HW250422  12.892   4.438   7.030
49509SOL     OW50423   0.812   7.164   5.016
49509SOL    HW150424   0.869   7.101   4.973
49509SOL    HW250425   0.790   7.123   5.100
49510SOL     OW50426   4.921  12.515  10.454
49510SOL    HW150427   5.011  12.483  10.460
49510SOL    HW250428   4.867  12.438  10.472
49511SOL     OW50429   2.495   3.210   4.688
49511SOL    HW150430   2.551   3.211   4.611
49511SOL    HW250431   2.418   3.161   4.662
49512SOL     OW50432   9.473   5.756   7.078
49512SOL    HW150433   9.526   5.677   7.065
49512SOL    HW250434   9.387   5.734   7.044
49513SOL     OW50435  14.385   1.937  11.827
49513SOL    HW150436  14.333   1.975  11.757
49513SOL    HW250437  14.387   1.843  11.809
49514SOL     OW50438  13.342   8.125  14.666
49514SOL    HW150439  13.421   8.105  14.717
49514SOL    HW250440  13.371   8.118  14.574
49515SOL     OW50441   4.975  14.634  13.035
49515SOL    HW150442   5.010  14.619  12.947
49515SOL    HW250443   5.016  14.567  13.089
49516SOL     OW50444  11.863   8.054   8.744
49516SOL    HW150445  11.889   8.129   8.798
49516SOL    HW250446  11.918   8.060   8.666
49517SOL     OW50447  14.840  10.144  12.866
49517SOL    HW150448  14.867  10.141  12.774
49517SOL    HW250449  14.871  10.060  12.902
49518SOL     OW50450   7.180   6.329   4.935
49518SOL    HW150451   7.118   6.257   4.944
49518SOL    HW250452   7.211   6.345   5.024
49519SOL     OW50453  11.662  11.983   7.538
49519SOL    HW150454  11.737  12.038   7.514
49519SOL    HW250455  11.665  11.978   7.633
49520SOL     OW50456  14.514  13.559  10.821
49520SOL    HW150457  14.504  13.635  10.878
49520SOL    HW250458  14.600  13.523  10.843
49521SOL     OW50459   9.063   2.389  11.408
49521SOL    HW150460   9.087   2.443  11.333
49521SOL    HW250461   9.132   2.404  11.472
49522SOL     OW50462  12.580  13.678   6.249
49522SOL    HW150463  12.513  13.634   6.198
49522SOL    HW250464  12.551  13.669   6.340
49523SOL     OW50465   2.092   7.997   0.577
49523SOL    HW150466   2.125   7.972   0.491
49523SOL    HW250467   2.010   8.043   0.559
49524SOL     OW50468   5.028   5.891   5.713
49524SOL    HW150469   4.951   5.869   5.766
49524SOL    HW250470   4.992   5.931   5.634
49525SOL     OW50471   4.164   4.580   7.004
49525SOL    HW150472   4.158   4.486   7.017
49525SOL    HW250473   4.073   4.611   7.012
49526SOL     OW50474   7.538   4.695   4.893
49526SOL    HW150475   7.503   4.696   4.982
49526SOL    HW250476   7.557   4.603   4.874
49527SOL     OW50477   4.327  11.196   1.394
49527SOL    HW150478   4.415  11.210   1.429
49527SOL    HW250479   4.286  11.282   1.399
49528SOL     OW50480   4.202   2.145  12.137
49528SOL    HW150481   4.274   2.094  12.173
49528SOL    HW250482   4.240   2.229  12.113
49529SOL     OW50483   9.886   2.189   7.114
49529SOL    HW150484   9.799   2.223   7.134
49529SOL    HW250485   9.877   2.094   7.123
49530SOL     OW50486  12.389   5.532   5.831
49530SOL    HW150487  12.385   5.627   5.842
49530SOL    HW250488  12.480   5.514   5.806
49531SOL     OW50489   5.697  12.308   8.465
49531SOL    HW150490   5.701  12.403   8.457
49531SOL    HW250491   5.604  12.287   8.451
49532SOL     OW50492   3.243   7.936   3.897
49532SOL    HW150493   3.295   7.990   3.956
49532SOL    HW250494   3.227   7.993   3.821
49533SOL     OW50495   8.024  11.853   6.455
49533SOL    HW150496   8.042  11.761   6.472
49533SOL    HW250497   8.002  11.857   6.362
49534SOL     OW50498  12.161   6.374   1.732
49534SOL    HW150499  12.217   6.445   1.701
49534SOL    HW250500  12.202   6.295   1.697
49535SOL     OW50501  13.129   0.840   0.242
49535SOL    HW150502  13.170   0.919   0.277
49535SOL    HW250503  13.068   0.812   0.311
49536SOL     OW50504   3.983  11.130  11.156
49536SOL    HW150505   3.944  11.083  11.229
49536SOL    HW250506   4.050  11.070  11.122
49537SOL     OW50507  12.115   7.365   1.844
49537SOL    HW150508  12.061   7.305   1.895
49537SOL    HW250509  12.096   7.343   1.753
49538SOL     OW50510   1.952  13.718  12.944
49538SOL    HW150511   1.986  13.652  13.005
49538SOL    HW250512   1.879  13.758  12.990
49539SOL     OW50513   4.166  10.735   0.171
49539SOL    HW150514   4.103  10.807   0.172
49539SOL    HW250515   4.247  10.774   0.137
49540SOL     OW50516  14.697  14.500   6.269
49540SOL    HW150517  14.743  14.467   6.192
49540SOL    HW250518  14.716  14.594   6.270
49541SOL     OW50519  12.452   8.438   7.298
49541SOL    HW150520  12.524   8.480   7.252
49541SOL    HW250521  12.396   8.402   7.229
49542SOL     OW50522   9.408  13.539  11.136
49542SOL    HW150523   9.360  13.537  11.052
49542SOL    HW250524   9.376  13.462  11.183
49543SOL     OW50525  12.564   5.759   5.223
49543SOL    HW150526  12.507   5.836   5.232
49543SOL    HW250527  12.550   5.711   5.304
49544SOL     OW50528  14.644   4.186   6.705
49544SOL    HW150529  14.655   4.262   6.648
49544SOL    HW250530  14.685   4.212   6.787
49545SOL     OW50531   9.356  12.633   1.995
49545SOL    HW150532   9.308  12.714   2.013
49545SOL    HW250533   9.323  12.571   2.060
49546SOL     OW50534   7.529  11.894  13.977
49546SOL    HW150535   7.584  11.816  13.984
49546SOL    HW250536   7.557  11.935  13.895
49547SOL     OW50537  10.487   2.378   0.483
49547SOL    HW150538  10.496   2.286   0.509
49547SOL    HW250539  10.576   2.412   0.483
49548SOL     OW50540   0.856   7.037   7.439
49548SOL    HW150541   0.761   7.030   7.446
49548SOL    HW250542   0.880   6.973   7.372
49549SOL     OW50543   4.617   6.070  13.255
49549SOL    HW150544   4.686   6.084  13.320
49549SOL    HW250545   4.552   6.137  13.274
49550SOL     OW50546   1.232   6.400   7.635
49550SOL    HW150547   1.164   6.339   7.663
49550SOL    HW250548   1.203   6.485   7.667
49551SOL     OW50549   0.947   0.619   5.796
49551SOL    HW150550   0.894   0.596   5.719
49551SOL    HW250551   0.893   0.595   5.871
49552SOL     OW50552  13.438   8.534  10.279
49552SOL    HW150553  13.507   8.469  10.289
49552SOL    HW250554  13.402   8.545  10.367
49553SOL     OW50555   0.030  13.375  14.667
49553SOL    HW150556  14.870  13.457  14.655
49553SOL    HW250557   0.040  13.367  14.762
49554SOL     OW50558  12.482   7.372   3.826
49554SOL    HW150559  12.562   7.421   3.845
49554SOL    HW250560  12.426   7.435   3.780
49555SOL     OW50561   6.982   9.635   6.542
49555SOL    HW150562   6.925   9.702   6.505
49555SOL    HW250563   7.067   9.679   6.551
49556SOL     OW50564   6.166  11.454  12.911
49556SOL    HW150565   6.193  11.428  12.999
49556SOL    HW250566   6.079  11.417  12.899
49557SOL     OW50567  12.207   4.895   5.054
49557SOL    HW150568  12.122   4.918   5.093
49557SOL    HW250569  12.186   4.863   4.967
49558SOL     OW50570  13.433   7.407   9.986
49558SOL    HW150571  13.521   7.441   9.969
49558SOL    HW250572  13.382   7.484  10.011
49559SOL     OW50573  14.174   8.200   9.307
49559SOL    HW150574  14.176   8.272   9.244
49559SOL    HW250575  14.118   8.231   9.378
49560SOL     OW50576   5.535  12.972   7.170
49560SOL    HW150577   5.593  12.949   7.097
49560SOL    HW250578   5.457  13.009   7.129
49561SOL     OW50579   3.651   9.155   5.186
49561SOL    HW150580   3.563   9.155   5.223
49561SOL    HW250581   3.655   9.074   5.134
49562SOL     OW50582  12.335   5.094   5.582
49562SOL    HW150583  12.370   5.113   5.669
49562SOL    HW250584  12.360   5.170   5.529
49563SOL     OW50585  11.762   5.274   3.227
49563SOL    HW150586  11.679   5.239   3.259
49563SOL    HW250587  11.739   5.359   3.189
49564SOL     OW50588  14.370   2.911   2.948
49564SOL    HW150589  14.381   2.924   2.853
49564SOL    HW250590  14.428   2.976   2.988
49565SOL     OW50591   5.992  14.654   7.225
49565SOL    HW150592   5.917  14.688   7.273
49565SOL    HW250593   5.989  14.560   7.238
49566SOL     OW50594   1.375   2.559   3.074
49566SOL    HW150595   1.457   2.600   3.046
49566SOL    HW250596   1.308   2.601   3.020
49567SOL     OW50597   3.011   7.783  12.878
49567SOL    HW150598   2.943   7.850  12.873
49567SOL    HW250599   2.968   7.708  12.919
49568SOL     OW50600   3.261   5.724   5.004
49568SOL    HW150601   3.290   5.809   5.037
49568SOL    HW250602   3.340   5.684   4.968
49569SOL     OW50603   2.930  11.690   9.966
49569SOL    HW150604   2.928  11.778   9.929
49569SOL    HW250605   3.018  11.658   9.946
49570SOL     OW50606   8.866   3.822   4.785
49570SOL    HW150607   8.909   3.874   4.852
49570SOL    HW250608   8.900   3.856   4.702
49571SOL     OW50609  11.175  11.995   1.161
49571SOL    HW150610  11.097  12.014   1.213
49571SOL    HW250611  11.141  11.954   1.081
49572SOL     OW50612   7.892  11.873  11.818
49572SOL    HW150613   7.987  11.870  11.804
49572SOL    HW250614   7.876  11.959  11.857
49573SOL     OW50615   7.212  13.546  11.043
49573SOL    HW150616   7.216  13.478  11.110
49573SOL    HW250617   7.191  13.499  10.963
49574SOL     OW50618   7.683  14.098   8.360
49574SOL    HW150619   7.600  14.072   8.320
49574SOL    HW250620   7.693  14.190   8.339
49575SOL     OW50621   7.839  12.652   6.963
49575SOL    HW150622   7.919  12.637   7.013
49575SOL    HW250623   7.771  12.604   7.011
49576SOL     OW50624   7.732  11.700   9.424
49576SOL    HW150625   7.777  11.661   9.349
49576SOL    HW250626   7.682  11.772   9.386
49577SOL     OW50627   4.214  13.994  14.081
49577SOL    HW150628   4.156  13.968  14.153
49577SOL    HW250629   4.219  13.917  14.025
49578SOL     OW50630   2.629   9.048   3.215
49578SOL    HW150631   2.700   9.095   3.259
49578SOL    HW250632   2.567   9.027   3.286
49579SOL     OW50633   7.371   7.127  10.153
49579SOL    HW150634   7.390   7.046  10.106
49579SOL    HW250635   7.445   7.185  10.131
49580SOL     OW50636   4.538   3.018  14.154
49580SOL    HW150637   4.550   3.055  14.241
49580SOL    HW250638   4.469   2.952  14.165
49581SOL     OW50639   9.964  10.692  11.166
49581SOL    HW150640   9.887  10.741  11.137
49581SOL    HW250641   9.951  10.678  11.259
49582SOL     OW50642   9.792   4.545   2.281
49582SOL    HW150643   9.855   4.473   2.294
49582SOL    HW250644   9.843   4.624   2.298
49583SOL     OW50645   3.489  12.299  11.401
49583SOL    HW150646   3.547  12.225  11.382
49583SOL    HW250647   3.547  12.366  11.439
49584SOL     OW50648   2.071   4.023   9.142
49584SOL    HW150649   2.097   4.115   9.148
49584SOL    HW250650   2.092   3.998   9.052
49585SOL     OW50651   8.227   7.743   8.077
49585SOL    HW150652   8.235   7.770   8.169
49585SOL    HW250653   8.211   7.649   8.081
49586SOL     OW50654   3.663  14.009   1.017
49586SOL    HW150655   3.708  13.985   1.098
49586SOL    HW250656   3.603  14.079   1.043
49587SOL     OW50657  14.843   0.061   7.277
49587SOL    HW150658  14.806   0.134   7.228
49587SOL    HW250659  14.795  14.872   7.245
49588SOL     OW50660   4.737  14.602  11.080
49588SOL    HW150661   4.808  14.548  11.112
49588SOL    HW250662   4.680  14.541  11.032
49589SOL     OW50663  10.423   9.808   4.929
49589SOL    HW150664  10.425   9.846   5.017
49589SOL    HW250665  10.395   9.718   4.943
49590SOL     OW50666   1.531   6.946   9.697
49590SOL    HW150667   1.539   6.937   9.602
49590SOL    HW250668   1.535   6.857   9.731
49591SOL     OW50669   2.427   5.725   8.567
49591SOL    HW150670   2.436   5.637   8.530
49591SOL    HW250671   2.491   5.778   8.518
49592SOL     OW50672   7.716   9.914   0.421
49592SOL    HW150673   7.646   9.978   0.434
49592SOL    HW250674   7.795   9.957   0.452
49593SOL     OW50675   6.950  14.139   6.902
49593SOL    HW150676   6.909  14.210   6.952
49593SOL    HW250677   7.032  14.122   6.948
49594SOL     OW50678   9.848   6.293  12.076
49594SOL    HW150679   9.925   6.263  12.123
49594SOL    HW250680   9.807   6.213  12.043
49595SOL     OW50681  11.272   4.803   5.313
49595SOL    HW150682  11.292   4.792   5.406
49595SOL    HW250683  11.177   4.802   5.308
49596SOL     OW50684   0.676  10.865  11.863
49596SOL    HW150685   0.602  10.881  11.921
49596SOL    HW250686   0.720  10.789  11.900
49597SOL     OW50687   3.135  14.716  12.229
49597SOL    HW150688   3.105  14.802  12.258
49597SOL    HW250689   3.226  14.712  12.257
49598SOL     OW50690   2.671   1.150   0.113
49598SOL    HW150691   2.686   1.174   0.021
49598SOL    HW250692   2.675   1.054   0.113
49599SOL     OW50693   6.615   9.181   0.829
49599SOL    HW150694   6.547   9.122   0.796
49599SOL    HW250695   6.631   9.241   0.756
49600SOL     OW50696   2.089   2.394   6.001
49600SOL    HW150697   2.005   2.375   5.960
49600SOL    HW250698   2.078   2.365   6.092
49601SOL     OW50699  11.174   7.912   7.627
49601SOL    HW150700  11.104   7.943   7.570
49601SOL    HW250701  11.243   7.883   7.568
49602SOL     OW50702   1.178   6.803   8.903
49602SOL    HW150703   1.186   6.897   8.892
49602SOL    HW250704   1.111   6.777   8.839
49603SOL     OW50705   3.577   9.679   5.878
49603SOL    HW150706   3.487   9.705   5.899
49603SOL    HW250707   3.585   9.692   5.784
49604SOL     OW50708   8.224   4.244   1.593
49604SOL    HW150709   8.189   4.252   1.682
49604SOL    HW250710   8.295   4.180   1.600
49605SOL     OW50711   3.114   1.967   1.132
49605SOL    HW150712   3.138   1.879   1.159
49605SOL    HW250713   3.197   2.009   1.110
49606SOL     OW50714  12.265   2.125  14.125
49606SOL    HW150715  12.251   2.190  14.194
49606SOL    HW250716  12.199   2.058  14.142
49607SOL     OW50717   2.035  14.533  11.119
49607SOL    HW150718   1.952  14.489  11.133
49607SOL    HW250719   2.033  14.609  11.177
49608SOL     OW50720   9.268   2.134   6.173
49608SOL    HW150721   9.243   2.059   6.119
49608SOL    HW250722   9.304   2.197   6.111
49609SOL     OW50723  11.291  11.107   5.911
49609SOL    HW150724  11.227  11.166   5.871
49609SOL    HW250725  11.240  11.029   5.934
49610SOL     OW50726  10.972   2.365  11.559
49610SOL    HW150727  10.968   2.272  11.536
49610SOL    HW250728  11.002   2.365  11.650
49611SOL     OW50729   2.229   5.744   3.811
49611SOL    HW150730   2.176   5.727   3.889
49611SOL    HW250731   2.279   5.823   3.832
49612SOL     OW50732   6.441   0.270  13.022
49612SOL    HW150733   6.413   0.180  13.033
49612SOL    HW250734   6.536   0.267  13.033
49613SOL     OW50735   5.322   3.887  10.504
49613SOL    HW150736   5.239   3.887  10.457
49613SOL    HW250737   5.297   3.902  10.596
49614SOL     OW50738   6.802   7.921   3.833
49614SOL    HW150739   6.857   7.990   3.795
49614SOL    HW250740   6.836   7.840   3.796
49615SOL     OW50741   8.007   9.052  10.581
49615SOL    HW150742   7.930   9.108  10.577
49615SOL    HW250743   8.041   9.064  10.670
49616SOL     OW50744   7.411   0.791  10.984
49616SOL    HW150745   7.379   0.712  10.942
49616SOL    HW250746   7.459   0.760  11.061
49617SOL     OW50747   8.280   2.631   4.093
49617SOL    HW150748   8.352   2.653   4.034
49617SOL    HW250749   8.219   2.704   4.086
49618SOL     OW50750   7.685  14.567  10.935
49618SOL    HW150751   7.665  14.629  10.865
49618SOL    HW250752   7.693  14.620  11.014
49619SOL     OW50753   8.167  11.824   9.176
49619SOL    HW150754   8.195  11.780   9.256
49619SOL    HW250755   8.230  11.895   9.165
49620SOL     OW50756   3.834   3.170  13.089
49620SOL    HW150757   3.909   3.134  13.135
49620SOL    HW250758   3.837   3.130  13.002
49621SOL     OW50759   4.258  12.251   6.802
49621SOL    HW150760   4.219  12.189   6.740
49621SOL    HW250761   4.197  12.324   6.804
49622SOL     OW50762   8.854  11.851   5.157
49622SOL    HW150763   8.843  11.918   5.090
49622SOL    HW250764   8.779  11.792   5.146
49623SOL     OW50765   6.197  11.942   8.218
49623SOL    HW150766   6.175  12.031   8.190
49623SOL    HW250767   6.195  11.890   8.137
49624SOL     OW50768   6.496   7.028   5.009
49624SOL    HW150769   6.433   7.051   5.077
49624SOL    HW250770   6.577   7.070   5.036
49625SOL     OW50771   3.045   6.385  10.670
49625SOL    HW150772   3.078   6.475  10.676
49625SOL    HW250773   3.122   6.332  10.650
49626SOL     OW50774   9.387  10.344   9.061
49626SOL    HW150775   9.364  10.369   8.972
49626SOL    HW250776   9.461  10.284   9.051
49627SOL     OW50777  12.743  10.421  12.467
49627SOL    HW150778  12.803  10.347  12.462
49627SOL    HW250779  12.669  10.396  12.411
49628SOL     OW50780   9.519   7.958  13.821
49628SOL    HW150781   9.464   7.883  13.845
49628SOL    HW250782   9.472   7.998  13.748
49629SOL     OW50783   4.679   8.473  13.836
49629SOL    HW150784   4.670   8.566  13.853
49629SOL    HW250785   4.748   8.444  13.895
49630SOL     OW50786  10.829   5.400   2.132
49630SOL    HW150787  10.812   5.308   2.111
49630SOL    HW250788  10.915   5.417   2.094
49631SOL     OW50789  13.919   3.691   1.477
49631SOL    HW150790  13.882   3.608   1.444
49631SOL    HW250791  13.849   3.755   1.465
49632SOL     OW50792   3.556  14.352  12.952
49632SOL    HW150793   3.643  14.371  12.987
49632SOL    HW250794   3.573  14.325  12.862
49633SOL     OW50795   2.516   0.479   2.354
49633SOL    HW150796   2.511   0.460   2.447
49633SOL    HW250797   2.595   0.530   2.343
49634SOL     OW50798   2.694   6.239   8.153
49634SOL    HW150799   2.634   6.244   8.078
49634SOL    HW250800   2.741   6.157   8.140
49635SOL     OW50801   9.393   8.397  14.388
49635SOL    HW150802   9.438   8.458  14.329
49635SOL    HW250803   9.406   8.311  14.349
49636SOL     OW50804  12.034  12.431   4.572
49636SOL    HW150805  12.057  12.513   4.529
49636SOL    HW250806  11.939  12.435   4.583
49637SOL     OW50807   2.884   4.372  13.964
49637SOL    HW150808   2.950   4.383  13.896
49637SOL    HW250809   2.801   4.395  13.921
49638SOL     OW50810  14.504   3.654   9.219
49638SOL    HW150811  14.563   3.601   9.166
49638SOL    HW250812  14.554   3.734   9.237
49639SOL     OW50813   0.803  11.175  13.000
49639SOL    HW150814   0.783  11.090  12.962
49639SOL    HW250815   0.835  11.228  12.926
49640SOL     OW50816   7.797  10.105   8.817
49640SOL    HW150817   7.859  10.108   8.744
49640SOL    HW250818   7.717  10.067   8.780
49641SOL     OW50819  14.674   8.821   4.660
49641SOL    HW150820  14.709   8.909   4.674
49641SOL    HW250821  14.733   8.782   4.594
49642SOL     OW50822   6.895   0.510   6.413
49642SOL    HW150823   6.858   0.531   6.499
49642SOL    HW250824   6.843   0.436   6.382
49643SOL     OW50825   2.034   6.884   8.087
49643SOL    HW150826   2.088   6.963   8.079
49643SOL    HW250827   1.990   6.876   8.003
49644SOL     OW50828  11.671   2.626   3.243
49644SOL    HW150829  11.753   2.593   3.281
49644SOL    HW250830  11.674   2.720   3.258
49645SOL     OW50831  10.948  10.076  12.858
49645SOL    HW150832  10.933  10.002  12.799
49645SOL    HW250833  11.036  10.106  12.836
49646SOL     OW50834   4.717  13.516  13.843
49646SOL    HW150835   4.638  13.474  13.811
49646SOL    HW250836   4.730  13.480  13.930
49647SOL     OW50837   9.364  13.493   6.098
49647SOL    HW150838   9.424  13.526   6.032
49647SOL    HW250839   9.309  13.568   6.121
49648SOL     OW50840   2.706   8.347  10.266
49648SOL    HW150841   2.735   8.409  10.333
49648SOL    HW250842   2.695   8.264  10.313
49649SOL     OW50843   0.004   2.676   0.491
49649SOL    HW150844   0.093   2.664   0.457
49649SOL    HW250845  14.844   2.718   0.420
49650SOL     OW50846   3.000   2.827  10.641
49650SOL    HW150847   3.093   2.805  10.641
49650SOL    HW250848   2.999   2.923  10.650
49651SOL     OW50849   5.296   2.189   9.027
49651SOL    HW150850   5.343   2.266   9.060
49651SOL    HW250851   5.213   2.223   8.995
49652SOL     OW50852   3.918  14.035   4.712
49652SOL    HW150853   3.883  13.953   4.677
49652SOL    HW250854   3.901  14.029   4.806
49653SOL     OW50855  11.513   7.067   9.013
49653SOL    HW150856  11.487   6.975   9.016
49653SOL    HW250857  11.608   7.065   9.003
49654SOL     OW50858   4.308   8.228   7.916
49654SOL    HW150859   4.222   8.187   7.904
49654SOL    HW250860   4.321   8.230   8.011
49655SOL     OW50861   7.250  14.117   9.672
49655SOL    HW150862   7.223  14.180   9.606
49655SOL    HW250863   7.233  14.161   9.756
49656SOL     OW50864  10.451   0.556   2.372
49656SOL    HW150865  10.420   0.596   2.290
49656SOL    HW250866  10.532   0.513   2.348
49657SOL     OW50867   6.299   3.508   3.837
49657SOL    HW150868   6.323   3.499   3.930
49657SOL    HW250869   6.304   3.603   3.821
49658SOL     OW50870   0.473   9.914   1.836
49658SOL    HW150871   0.409   9.894   1.904
49658SOL    HW250872   0.430   9.890   1.754
49659SOL     OW50873   4.782  11.991   1.649
49659SOL    HW150874   4.828  12.071   1.675
49659SOL    HW250875   4.851  11.936   1.611
49660SOL     OW50876   0.016   0.568   4.906
49660SOL    HW150877   0.059   0.654   4.904
49660SOL    HW250878   0.074   0.514   4.959
49661SOL     OW50879  13.191   1.273  11.671
49661SOL    HW150880  13.173   1.336  11.601
49661SOL    HW250881  13.174   1.188  11.631
49662SOL     OW50882   9.224  12.856   5.287
49662SOL    HW150883   9.280  12.845   5.364
49662SOL    HW250884   9.271  12.919   5.232
49663SOL     OW50885   0.451   4.319  10.726
49663SOL    HW150886   0.540   4.284  10.719
49663SOL    HW250887   0.412   4.271  10.798
49664SOL     OW50888   7.930   6.479  11.814
49664SOL    HW150889   8.001   6.523  11.767
49664SOL    HW250890   7.878   6.436  11.746
49665SOL     OW50891   1.738  11.641  14.624
49665SOL    HW150892   1.647  11.669  14.613
49665SOL    HW250893   1.748  11.570  14.560
49666SOL     OW50894   2.425  11.477   6.002
49666SOL    HW150895   2.516  11.468   6.029
49666SOL    HW250896   2.429  11.526   5.920
49667SOL     OW50897   4.374  14.110   8.825
49667SOL    HW150898   4.333  14.194   8.847
49667SOL    HW250899   4.369  14.106   8.730
49668SOL     OW50900   6.047   4.879  14.220
49668SOL    HW150901   6.110   4.854  14.288
49668SOL    HW250902   6.058   4.974  14.210
49669SOL     OW50903  12.771   0.505  12.486
49669SOL    HW150904  12.759   0.555  12.566
49669SOL    HW250905  12.802   0.419  12.515
49670SOL     OW50906  13.391  13.805   5.273
49670SOL    HW150907  13.401  13.776   5.364
49670SOL    HW250908  13.478  13.836   5.248
49671SOL     OW50909   2.629  11.734   5.462
49671SOL    HW150910   2.563  11.666   5.476
49671SOL    HW250911   2.685  11.699   5.394
49672SOL     OW50912   3.953   1.020   0.894
49672SOL    HW150913   3.859   1.004   0.881
49672SOL    HW250914   3.966   1.111   0.868
49673SOL     OW50915   7.151   9.914   7.997
49673SOL    HW150916   7.118   9.834   7.954
49673SOL    HW250917   7.074   9.950   8.041
49674SOL     OW50918   4.548   2.396   5.628
49674SOL    HW150919   4.508   2.315   5.660
49674SOL    HW250920   4.510   2.465   5.683
49675SOL     OW50921   3.414   9.518  14.663
49675SOL    HW150922   3.461   9.602  14.668
49675SOL    HW250923   3.387   9.500  14.753
49676SOL     OW50924   8.542  14.320   0.879
49676SOL    HW150925   8.582  14.347   0.962
49676SOL    HW250926   8.560  14.392   0.820
49677SOL     OW50927  14.744   6.722   5.063
49677SOL    HW150928  14.807   6.754   5.128
49677SOL    HW250929  14.721   6.799   5.011
49678SOL     OW50930   0.531   9.399  10.107
49678SOL    HW150931   0.597   9.376  10.173
49678SOL    HW250932   0.467   9.328  10.111
49679SOL     OW50933   0.408  10.049   0.567
49679SOL    HW150934   0.404   9.957   0.593
49679SOL    HW250935   0.501  10.065   0.551
49680SOL     OW50936   7.849   4.634  13.439
49680SOL    HW150937   7.818   4.548  13.412
49680SOL    HW250938   7.874   4.623  13.531
49681SOL     OW50939  10.640   7.974   7.090
49681SOL    HW150940  10.596   8.056   7.111
49681SOL    HW250941  10.665   7.937   7.175
49682SOL     OW50942  12.076   6.540   9.121
49682SOL    HW150943  11.997   6.569   9.077
49682SOL    HW250944  12.139   6.611   9.107
49683SOL     OW50945   8.567   2.862   9.354
49683SOL    HW150946   8.652   2.905   9.346
49683SOL    HW250947   8.572   2.815   9.437
49684SOL     OW50948   0.925   4.979   5.305
49684SOL    HW150949   0.904   5.070   5.284
49684SOL    HW250950   1.017   4.982   5.334
49685SOL     OW50951   6.622   0.397  11.106
49685SOL    HW150952   6.573   0.338  11.164
49685SOL    HW250953   6.713   0.391  11.137
49686SOL     OW50954   4.838  10.390   6.594
49686SOL    HW150955   4.837  10.427   6.683
49686SOL    HW250956   4.896  10.314   6.601
49687SOL     OW50957   5.117   6.314   2.453
49687SOL    HW150958   5.025   6.329   2.429
49687SOL    HW250959   5.155   6.401   2.456
49688SOL     OW50960  10.212   8.070   5.416
49688SOL    HW150961  10.156   8.031   5.483
49688SOL    HW250962  10.301   8.059   5.450
49689SOL     OW50963   8.744   6.743   4.845
49689SOL    HW150964   8.690   6.787   4.910
49689SOL    HW250965   8.814   6.805   4.825
49690SOL     OW50966  10.395   0.673   8.341
49690SOL    HW150967  10.332   0.619   8.294
49690SOL    HW250968  10.379   0.655   8.434
49691SOL     OW50969   7.865   1.697   1.880
49691SOL    HW150970   7.858   1.647   1.798
49691SOL    HW250971   7.896   1.633   1.944
49692SOL     OW50972  11.085  12.189   1.471
49692SOL    HW150973  10.996  12.224   1.476
49692SOL    HW250974  11.073  12.094   1.474
49693SOL     OW50975   3.648   9.816  11.156
49693SOL    HW150976   3.590   9.743  11.178
49693SOL    HW250977   3.733   9.793  11.193
49694SOL     OW50978   9.954   6.150  11.798
49694SOL    HW150979  10.003   6.146  11.880
49694SOL    HW250980   9.926   6.241  11.791
49695SOL     OW50981   7.166  14.883   6.629
49695SOL    HW150982   7.168   0.090   6.613
49695SOL    HW250983   7.212  14.872   6.712
49696SOL     OW50984   2.827   5.862  11.267
49696SOL    HW150985   2.796   5.817  11.345
49696SOL    HW250986   2.762   5.841  11.200
49697SOL     OW50987   4.386  11.066   2.834
49697SOL    HW150988   4.383  11.161   2.824
49697SOL    HW250989   4.295  11.040   2.844
49698SOL     OW50990  11.646   9.958  13.883
49698SOL    HW150991  11.617   9.868  13.897
49698SOL    HW250992  11.721   9.950  13.824
49699SOL     OW50993   6.700   5.193  14.222
49699SOL    HW150994   6.630   5.257  14.206
49699SOL    HW250995   6.747   5.187  14.140
49700SOL     OW50996   3.780   5.938  10.144
49700SOL    HW150997   3.779   5.854  10.189
49700SOL    HW250998   3.794   5.916  10.052
49701SOL     OW50999  12.329  10.970   8.474
49701SOL    HW151000  12.250  10.930   8.436
49701SOL    HW251001  12.401  10.924   8.431
49702SOL     OW51002   7.322   6.013   2.343
49702SOL    HW151003   7.293   5.993   2.254
49702SOL    HW251004   7.346   6.106   2.339
49703SOL     OW51005  10.650  12.074  11.559
49703SOL    HW151006  10.696  12.059  11.476
49703SOL    HW251007  10.564  12.108  11.534
49704SOL     OW51008   3.268   7.876   9.561
49704SOL    HW151009   3.344   7.884   9.619
49704SOL    HW251010   3.287   7.934   9.487
49705SOL     OW51011  12.490   7.490   8.833
49705SOL    HW151012  12.497   7.412   8.778
49705SOL    HW251013  12.434   7.549   8.783
49706SOL     OW51014   6.965   4.598   7.435
49706SOL    HW151015   7.049   4.554   7.447
49706SOL    HW251016   6.982   4.665   7.369
49707SOL     OW51017   5.268  13.596   1.540
49707SOL    HW151018   5.310  13.583   1.455
49707SOL    HW251019   5.213  13.518   1.551
49708SOL     OW51020  10.884  10.355  12.595
49708SOL    HW151021  10.966  10.307  12.583
49708SOL    HW251022  10.816  10.294  12.568
49709SOL     OW51023   1.974   2.832   1.860
49709SOL    HW151024   1.997   2.840   1.768
49709SOL    HW251025   1.878   2.832   1.861
49710SOL     OW51026   6.832  14.853  11.994
49710SOL    HW151027   6.762  14.864  12.058
49710SOL    HW251028   6.897   0.031  12.018
49711SOL     OW51029   4.413   3.867   6.001
49711SOL    HW151030   4.378   3.842   6.086
49711SOL    HW251031   4.448   3.785   5.964
49712SOL     OW51032   6.315   3.903   6.141
49712SOL    HW151033   6.230   3.930   6.107
49712SOL    HW251034   6.365   3.985   6.148
49713SOL     OW51035   0.300   7.793   0.593
49713SOL    HW151036   0.322   7.826   0.506
49713SOL    HW251037   0.385   7.777   0.635
49714SOL     OW51038   3.370   1.431   8.237
49714SOL    HW151039   3.390   1.342   8.267
49714SOL    HW251040   3.317   1.469   8.307
49715SOL     OW51041  14.508   6.318   0.480
49715SOL    HW151042  14.575   6.252   0.465
49715SOL    HW251043  14.556   6.401   0.478
49716SOL     OW51044  14.819   1.402  10.246
49716SOL    HW151045  14.810   1.474  10.184
49716SOL    HW251046   0.002   1.348  10.209
49717SOL     OW51047  14.007   6.191  14.047
49717SOL    HW151048  13.994   6.276  14.003
49717SOL    HW251049  14.084   6.205  14.102
49718SOL     OW51050   9.137   8.145   3.268
49718SOL    HW151051   9.065   8.191   3.224
49718SOL    HW251052   9.100   8.060   3.290
49719SOL     OW51053   4.500  12.944   9.623
49719SOL    HW151054   4.510  12.849   9.628
49719SOL    HW251055   4.492  12.972   9.714
49720SOL     OW51056  13.744   8.591  12.145
49720SOL    HW151057  13.821   8.648  12.147
49720SOL    HW251058  13.750   8.544  12.062
49721SOL     OW51059   2.379  14.676   2.971
49721SOL    HW151060   2.432  14.756   2.971
49721SOL    HW251061   2.402  14.632   3.053
49722SOL     OW51062   0.252  14.795   8.857
49722SOL    HW151063   0.289  14.836   8.935
49722SOL    HW251064   0.307  14.827   8.785
49723SOL     OW51065   3.076  13.666  13.561
49723SOL    HW151066   3.008  13.686  13.496
49723SOL    HW251067   3.105  13.751  13.593
49724SOL     OW51068   2.774   8.555   6.121
49724SOL    HW151069   2.772   8.511   6.206
49724SOL    HW251070   2.867   8.565   6.101
49725SOL     OW51071  13.350   7.016   2.861
49725SOL    HW151072  13.326   7.081   2.794
49725SOL    HW251073  13.371   6.937   2.811
49726SOL     OW51074   6.721  14.855  13.543
49726SOL    HW151075   6.742   0.051  13.500
49726SOL    HW251076   6.688  14.880  13.629
49727SOL     OW51077   7.871   6.073   4.266
49727SOL    HW151078   7.917   6.104   4.344
49727SOL    HW251079   7.807   6.141   4.247
49728SOL     OW51080   2.098   1.880  13.014
49728SOL    HW151081   2.016   1.930  13.017
49728SOL    HW251082   2.111   1.850  13.104
49729SOL     OW51083  12.825   9.706   7.730
49729SOL    HW151084  12.749   9.762   7.713
49729SOL    HW251085  12.893   9.739   7.671
49730SOL     OW51086   3.834   2.222  14.165
49730SOL    HW151087   3.913   2.265  14.131
49730SOL    HW251088   3.850   2.128  14.149
49731SOL     OW51089  10.526   2.010   5.950
49731SOL    HW151090  10.485   2.017   6.036
49731SOL    HW251091  10.614   1.977   5.967
49732SOL     OW51092   7.770   8.612   0.197
49732SOL    HW151093   7.722   8.612   0.280
49732SOL    HW251094   7.768   8.521   0.168
49733SOL     OW51095   2.615   5.310   0.043
49733SOL    HW151096   2.593   5.284  14.840
49733SOL    HW251097   2.623   5.405   0.039
49734SOL     OW51098  14.537   1.473   3.447
49734SOL    HW151099  14.491   1.539   3.500
49734SOL    HW251100  14.512   1.389   3.485
49735SOL     OW51101  12.029  10.344   9.673
49735SOL    HW151102  12.017  10.334   9.579
49735SOL    HW251103  12.058  10.435   9.684
49736SOL     OW51104   4.026   2.201   1.303
49736SOL    HW151105   4.080   2.170   1.230
49736SOL    HW251106   3.954   2.139   1.308
49737SOL     OW51107   5.597  14.584   7.075
49737SOL    HW151108   5.506  14.613   7.077
49737SOL    HW251109   5.647  14.663   7.052
49738SOL     OW51110  13.294   9.133   4.431
49738SOL    HW151111  13.337   9.096   4.508
49738SOL    HW251112  13.202   9.141   4.457
49739SOL     OW51113   4.804  13.204   8.959
49739SOL    HW151114   4.762  13.251   9.031
49739SOL    HW251115   4.863  13.269   8.920
49740SOL     OW51116   7.760   4.198  10.294
49740SOL    HW151117   7.681   4.149  10.270
49740SOL    HW251118   7.740   4.288  10.271
49741SOL     OW51119   0.520   5.372   6.803
49741SOL    HW151120   0.480   5.306   6.746
49741SOL    HW251121   0.532   5.449   6.746
49742SOL     OW51122  14.088   8.132   5.760
49742SOL    HW151123  14.170   8.083   5.759
49742SOL    HW251124  14.111   8.216   5.801
49743SOL     OW51125  11.239   0.517   9.865
49743SOL    HW151126  11.261   0.450   9.929
49743SOL    HW251127  11.198   0.470   9.793
49744SOL     OW51128   5.311   6.184  12.525
49744SOL    HW151129   5.373   6.231  12.580
49744SOL    HW251130   5.237   6.244  12.516
49745SOL     OW51131   6.592   0.052   6.952
49745SOL    HW151132   6.520   0.033   6.892
49745SOL    HW251133   6.569   0.006   7.033
49746SOL     OW51134   8.498  13.841   0.286
49746SOL    HW151135   8.500  13.916   0.345
49746SOL    HW251136   8.463  13.770   0.340
49747SOL     OW51137   5.707   8.126   5.783
49747SOL    HW151138   5.691   8.046   5.833
49747SOL    HW251139   5.783   8.165   5.824
49748SOL     OW51140   1.757   0.811   1.011
49748SOL    HW151141   1.781   0.825   1.102
49748SOL    HW251142   1.741   0.899   0.976
49749SOL     OW51143   9.161  14.661   2.777
49749SOL    HW151144   9.182  14.599   2.707
49749SOL    HW251145   9.227  14.644   2.845
49750SOL     OW51146  14.865   8.311  10.724
49750SOL    HW151147  14.812   8.376  10.678
49750SOL    HW251148  14.811   8.232  10.725
49751SOL     OW51149   1.731  12.791   6.366
49751SOL    HW151150   1.739  12.698   6.388
49751SOL    HW251151   1.677  12.792   6.286
49752SOL     OW51152  13.206  11.756   0.478
49752SOL    HW151153  13.135  11.750   0.414
49752SOL    HW251154  13.232  11.665   0.493
49753SOL     OW51155   2.056  10.651   8.738
49753SOL    HW151156   2.097  10.569   8.709
49753SOL    HW251157   2.093  10.667   8.825
49754SOL     OW51158   6.233   2.678  14.207
49754SOL    HW151159   6.172   2.679  14.133
49754SOL    HW251160   6.317   2.705  14.169
49755SOL     OW51161   3.337  13.881  11.733
49755SOL    HW151162   3.396  13.923  11.795
49755SOL    HW251163   3.303  13.953  11.680
49756SOL     OW51164   9.379   3.436   7.081
49756SOL    HW151165   9.306   3.478   7.035
49756SOL    HW251166   9.409   3.368   7.022
49757SOL     OW51167   6.488   9.914   1.545
49757SOL    HW151168   6.479   9.829   1.501
49757SOL    HW251169   6.399   9.948   1.550
49758SOL     OW51170   3.056   0.539  13.062
49758SOL    HW151171   3.071   0.527  13.155
49758SOL    HW251172   3.058   0.634  13.049
49759SOL     OW51173  12.715   0.910  14.757
49759SOL    HW151174  12.787   0.904  14.820
49759SOL    HW251175  12.735   0.989  14.707
49760SOL     OW51176   1.209   0.147  13.436
49760SOL    HW151177   1.239   0.062  13.404
49760SOL    HW251178   1.189   0.133  13.528
49761SOL     OW51179  13.073   4.169  13.036
49761SOL    HW151180  13.032   4.254  13.021
49761SOL    HW251181  13.155   4.173  12.987
49762SOL     OW51182   0.146   4.625  12.810
49762SOL    HW151183   0.134   4.716  12.783
49762SOL    HW251184   0.086   4.575  12.755
49763SOL     OW51185  14.674   0.459   1.750
49763SOL    HW151186  14.750   0.516   1.761
49763SOL    HW251187  14.711   0.371   1.743
49764SOL     OW51188   1.653  14.802   3.945
49764SOL    HW151189   1.675  14.851   4.024
49764SOL    HW251190   1.737  14.780   3.906
49765SOL     OW51191  14.568   1.354   5.892
49765SOL    HW151192  14.659   1.323   5.886
49765SOL    HW251193  14.575   1.445   5.919
49766SOL     OW51194   1.057   0.906   7.700
49766SOL    HW151195   1.117   0.842   7.738
49766SOL    HW251196   1.113   0.972   7.660
49767SOL     OW51197   6.893   5.413   5.234
49767SOL    HW151198   6.899   5.489   5.176
49767SOL    HW251199   6.912   5.338   5.178
49768SOL     OW51200   5.857   1.518   9.220
49768SOL    HW151201   5.933   1.574   9.200
49768SOL    HW251202   5.792   1.544   9.155
49769SOL     OW51203   7.830   3.767  14.572
49769SOL    HW151204   7.867   3.683  14.544
49769SOL    HW251205   7.907   3.821  14.592
49770SOL     OW51206   0.446   6.153   0.238
49770SOL    HW151207   0.520   6.198   0.277
49770SOL    HW251208   0.462   6.156   0.144
49771SOL     OW51209   8.767   3.802  11.440
49771SOL    HW151210   8.850   3.838  11.471
49771SOL    HW251211   8.790   3.715  11.407
49772SOL     OW51212   5.834   3.296   9.177
49772SOL    HW151213   5.912   3.344   9.204
49772SOL    HW251214   5.780   3.360   9.132
49773SOL     OW51215  11.896   3.748   3.407
49773SOL    HW151216  11.930   3.733   3.319
49773SOL    HW251217  11.805   3.775   3.394
49774SOL     OW51218  13.534   9.027  13.806
49774SOL    HW151219  13.496   9.057  13.723
49774SOL    HW251220  13.509   9.094  13.869
49775SOL     OW51221   1.020   7.103   4.343
49775SOL    HW151222   0.936   7.148   4.349
49775SOL    HW251223   0.999   7.019   4.302
49776SOL     OW51224   9.168   0.125   1.391
49776SOL    HW151225   9.146   0.178   1.468
49776SOL    HW251226   9.149   0.181   1.316
49777SOL     OW51227   3.450   8.210   8.891
49777SOL    HW151228   3.397   8.213   8.811
49777SOL    HW251229   3.533   8.172   8.863
49778SOL     OW51230   9.069   3.167  14.707
49778SOL    HW151231   9.043   3.258  14.721
49778SOL    HW251232   9.161   3.164  14.731
49779SOL     OW51233   2.705   6.077   3.933
49779SOL    HW151234   2.654   6.158   3.923
49779SOL    HW251235   2.711   6.064   4.027
49780SOL     OW51236  12.051  14.595   3.149
49780SOL    HW151237  11.968  14.641   3.161
49780SOL    HW251238  12.028  14.502   3.147
49781SOL     OW51239   4.972   3.810  12.349
49781SOL    HW151240   5.050   3.789  12.399
49781SOL    HW251241   5.005   3.840  12.264
49782SOL     OW51242  14.563   2.907  10.617
49782SOL    HW151243  14.642   2.866  10.652
49782SOL    HW251244  14.561   2.993  10.659
49783SOL     OW51245   9.908   4.869   0.152
49783SOL    HW151246   9.955   4.881   0.070
49783SOL    HW251247   9.971   4.825   0.210
49784SOL     OW51248   2.724   8.623  14.065
49784SOL    HW151249   2.765   8.690  14.009
49784SOL    HW251250   2.743   8.540  14.021
49785SOL     OW51251   0.930   7.463   6.917
49785SOL    HW151252   0.940   7.551   6.954
49785SOL    HW251253   0.839   7.459   6.888
49786SOL     OW51254   0.264   6.556   3.103
49786SOL    HW151255   0.339   6.592   3.151
49786SOL    HW251256   0.210   6.515   3.170
49787SOL     OW51257   2.556   2.946   3.270
49787SOL    HW151258   2.575   3.009   3.339
49787SOL    HW251259   2.463   2.958   3.251
49788SOL     OW51260   8.941   3.301   5.531
49788SOL    HW151261   8.852   3.289   5.562
49788SOL    HW251262   8.993   3.314   5.611
49789SOL     OW51263   2.663  13.949   1.466
49789SOL    HW151264   2.591  13.988   1.516
49789SOL    HW251265   2.691  14.018   1.407
49790SOL     OW51266   1.689   0.563   0.588
49790SOL    HW151267   1.656   0.653   0.596
49790SOL    HW251268   1.743   0.551   0.666
49791SOL     OW51269   5.598  12.725  11.314
49791SOL    HW151270   5.592  12.774  11.232
49791SOL    HW251271   5.507  12.707  11.338
49792SOL     OW51272   0.382   6.099  14.728
49792SOL    HW151273   0.408   6.009  14.751
49792SOL    HW251274   0.451   6.154  14.765
49793SOL     OW51275   7.177   2.480  11.705
49793SOL    HW151276   7.175   2.384  11.711
49793SOL    HW251277   7.231   2.507  11.779
49794SOL     OW51278   3.205   0.554   6.937
49794SOL    HW151279   3.273   0.510   6.987
49794SOL    HW251280   3.141   0.485   6.918
49795SOL     OW51281   9.985   5.553   0.266
49795SOL    HW151282  10.010   5.467   0.300
49795SOL    HW251283  10.028   5.558   0.180
49796SOL     OW51284  11.974   2.501   6.177
49796SOL    HW151285  12.010   2.580   6.136
49796SOL    HW251286  11.910   2.468   6.114
49797SOL     OW51287   0.664   6.035  13.423
49797SOL    HW151288   0.741   5.994  13.461
49797SOL    HW251289   0.630   6.092  13.492
49798SOL     OW51290  12.831   2.175   1.305
49798SOL    HW151291  12.794   2.158   1.391
49798SOL    HW251292  12.809   2.098   1.252
49799SOL     OW51293   9.490   8.952   8.097
49799SOL    HW151294   9.413   8.895   8.102
49799SOL    HW251295   9.561   8.893   8.072
49800SOL     OW51296  13.107   5.139   5.565
49800SOL    HW151297  13.177   5.082   5.532
49800SOL    HW251298  13.153   5.215   5.600
49801SOL     OW51299   0.459   6.371   5.511
49801SOL    HW151300   0.398   6.360   5.584
49801SOL    HW251301   0.545   6.380   5.553
49802SOL     OW51302   7.810   3.845  12.786
49802SOL    HW151303   7.869   3.809  12.720
49802SOL    HW251304   7.837   3.803  12.868
49803SOL     OW51305  14.295  14.411  14.207
49803SOL    HW151306  14.381  14.390  14.172
49803SOL    HW251307  14.301  14.503  14.234
49804SOL     OW51308   4.482   0.797   0.573
49804SOL    HW151309   4.414   0.734   0.597
49804SOL    HW251310   4.434   0.869   0.532
49805SOL     OW51311   9.027   8.903  10.584
49805SOL    HW151312   9.020   8.998  10.583
49805SOL    HW251313   9.118   8.886  10.610
49806SOL     OW51314  10.793   0.914   7.842
49806SOL    HW151315  10.707   0.949   7.819
49806SOL    HW251316  10.855   0.979   7.810
49807SOL     OW51317   7.416  14.445  14.117
49807SOL    HW151318   7.456  14.406  14.039
49807SOL    HW251319   7.436  14.539  14.110
49808SOL     OW51320   8.417   5.691  14.714
49808SOL    HW151321   8.476   5.616  14.702
49808SOL    HW251322   8.391   5.686  14.806
49809SOL     OW51323  13.388   4.651   4.839
49809SOL    HW151324  13.417   4.656   4.930
49809SOL    HW251325  13.305   4.602   4.843
49810SOL     OW51326   7.798  13.804  10.697
49810SOL    HW151327   7.873  13.829  10.750
49810SOL    HW251328   7.835  13.760  10.621
49811SOL     OW51329   4.018   3.755  12.660
49811SOL    HW151330   4.038   3.670  12.621
49811SOL    HW251331   4.040   3.819  12.592
49812SOL     OW51332  13.371  11.224   8.136
49812SOL    HW151333  13.407  11.301   8.182
49812SOL    HW251334  13.384  11.152   8.197
49813SOL     OW51335   0.773   4.179   4.700
49813SOL    HW151336   0.836   4.107   4.694
49813SOL    HW251337   0.737   4.171   4.788
49814SOL     OW51338   7.022   4.040   9.545
49814SOL    HW151339   6.944   4.093   9.560
49814SOL    HW251340   6.988   3.952   9.525
49815SOL     OW51341  13.113   1.595  10.398
49815SOL    HW151342  13.084   1.525  10.339
49815SOL    HW251343  13.129   1.670  10.341
49816SOL     OW51344   8.984  12.732  13.936
49816SOL    HW151345   8.943  12.784  14.004
49816SOL    HW251346   9.075  12.761  13.935
49817SOL     OW51347   9.956   3.568   3.109
49817SOL    HW151348   9.929   3.543   3.198
49817SOL    HW251349   9.874   3.586   3.064
49818SOL     OW51350   9.149   5.804   1.287
49818SOL    HW151351   9.131   5.889   1.246
49818SOL    HW251352   9.078   5.793   1.351
49819SOL     OW51353   3.480   0.356   7.361
49819SOL    HW151354   3.410   0.351   7.426
49819SOL    HW251355   3.532   0.277   7.376
49820SOL     OW51356   4.468   5.201  12.106
49820SOL    HW151357   4.388   5.239  12.143
49820SOL    HW251358   4.470   5.233  12.016
49821SOL     OW51359   0.346   0.846   5.453
49821SOL    HW151360   0.292   0.903   5.399
49821SOL    HW251361   0.391   0.905   5.514
49822SOL     OW51362   6.958   5.720   3.421
49822SOL    HW151363   6.954   5.764   3.506
49822SOL    HW251364   6.906   5.640   3.432
49823SOL     OW51365  10.436  12.321   0.532
49823SOL    HW151366  10.405  12.235   0.562
49823SOL    HW251367  10.411  12.324   0.440
49824SOL     OW51368   1.204   9.302   9.438
49824SOL    HW151369   1.269   9.367   9.409
49824SOL    HW251370   1.213   9.301   9.533
49825SOL     OW51371   5.145  14.830   6.839
49825SOL    HW151372   5.082  14.761   6.817
49825SOL    HW251373   5.095   0.002   6.895
49826SOL     OW51374  11.717   7.601   4.971
49826SOL    HW151375  11.769   7.585   4.893
49826SOL    HW251376  11.626   7.603   4.940
49827SOL     OW51377  10.843   1.560  10.158
49827SOL    HW151378  10.845   1.501  10.234
49827SOL    HW251379  10.778   1.522  10.099
49828SOL     OW51380   0.919   1.483   1.603
49828SOL    HW151381   0.983   1.535   1.554
49828SOL    HW251382   0.943   1.496   1.695
49829SOL     OW51383   9.569   4.026  12.774
49829SOL    HW151384   9.636   3.958  12.787
49829SOL    HW251385   9.618   4.108  12.779
49830SOL     OW51386   2.512   6.096   0.873
49830SOL    HW151387   2.577   6.065   0.936
49830SOL    HW251388   2.526   6.190   0.868
49831SOL     OW51389   2.665   3.741   3.138
49831SOL    HW151390   2.744   3.744   3.191
49831SOL    HW251391   2.695   3.754   3.048
49832SOL     OW51392   2.403  12.823   2.456
49832SOL    HW151393   2.436  12.796   2.370
49832SOL    HW251394   2.311  12.843   2.442
49833SOL     OW51395  10.229   9.966   6.428
49833SOL    HW151396  10.214  10.050   6.472
49833SOL    HW251397  10.323   9.963   6.412
49834SOL     OW51398   9.686   4.576   6.600
49834SOL    HW151399   9.755   4.510   6.595
49834SOL    HW251400   9.678   4.608   6.510
49835SOL     OW51401   5.243  14.558  14.120
49835SOL    HW151402   5.209  14.647  14.112
49835SOL    HW251403   5.171  14.508  14.157
49836SOL     OW51404   4.026   4.685  12.767
49836SOL    HW151405   4.098   4.730  12.722
49836SOL    HW251406   3.988   4.627  12.701
49837SOL     OW51407  13.489   5.952  11.265
49837SOL    HW151408  13.418   5.990  11.316
49837SOL    HW251409  13.538   5.899  11.328
49838SOL     OW51410   7.310   4.034  11.865
49838SOL    HW151411   7.285   3.942  11.857
49838SOL    HW251412   7.368   4.037  11.940
49839SOL     OW51413  14.640   6.529   0.448
49839SOL    HW151414  14.583   6.605   0.439
49839SOL    HW251415  14.717   6.562   0.495
49840SOL     OW51416   6.264   5.425   0.475
49840SOL    HW151417   6.352   5.460   0.492
49840SOL    HW251418   6.240   5.381   0.556
49841SOL     OW51419   9.712   8.548  10.228
49841SOL    HW151420   9.761   8.466  10.230
49841SOL    HW251421   9.780   8.616  10.232
49842SOL     OW51422   6.790  12.142   4.658
49842SOL    HW151423   6.760  12.204   4.591
49842SOL    HW251424   6.751  12.174   4.739
49843SOL     OW51425  13.902   8.735   2.809
49843SOL    HW151426  13.847   8.756   2.734
49843SOL    HW251427  13.990   8.762   2.783
49844SOL     OW51428  12.858  11.549   5.706
49844SOL    HW151429  12.821  11.474   5.754
49844SOL    HW251430  12.878  11.514   5.619
49845SOL     OW51431  11.731  12.311   5.442
49845SOL    HW151432  11.704  12.319   5.534
49845SOL    HW251433  11.700  12.225   5.416
49846SOL     OW51434  14.649  10.972  11.820
49846SOL    HW151435  14.613  10.897  11.772
49846SOL    HW251436  14.578  11.000  11.877
49847SOL     OW51437   4.806  13.258   1.042
49847SOL    HW151438   4.722  13.275   1.085
49847SOL    HW251439   4.788  13.267   0.949
49848SOL     OW51440  12.871   4.737  11.924
49848SOL    HW151441  12.780   4.709  11.912
49848SOL    HW251442  12.923   4.662  11.896
49849SOL     OW51443  11.668   0.822  13.890
49849SOL    HW151444  11.573   0.831  13.898
49849SOL    HW251445  11.699   0.806  13.979
49850SOL     OW51446  10.326   0.262   4.513
49850SOL    HW151447  10.292   0.339   4.468
49850SOL    HW251448  10.397   0.231   4.457
49851SOL     OW51449  13.011   6.285   0.446
49851SOL    HW151450  13.102   6.284   0.473
49851SOL    HW251451  12.966   6.230   0.510
49852SOL     OW51452   3.627  13.404   4.461
49852SOL    HW151453   3.540  13.433   4.488
49852SOL    HW251454   3.685  13.432   4.532
49853SOL     OW51455   5.244   2.475   0.981
49853SOL    HW151456   5.261   2.418   1.055
49853SOL    HW251457   5.309   2.450   0.915
49854SOL     OW51458   8.611  14.531   2.849
49854SOL    HW151459   8.549  14.470   2.890
49854SOL    HW251460   8.651  14.481   2.778
49855SOL     OW51461   5.189   0.999  14.122
49855SOL    HW151462   5.122   1.039  14.179
49855SOL    HW251463   5.254   0.964  14.183
49856SOL     OW51464   1.774   9.010  13.750
49856SOL    HW151465   1.680   9.006  13.770
49856SOL    HW251466   1.796   8.921  13.722
49857SOL     OW51467   2.600   3.939   2.199
49857SOL    HW151468   2.552   3.857   2.185
49857SOL    HW251469   2.533   4.001   2.230
49858SOL     OW51470   3.955   4.439   1.118
49858SOL    HW151471   3.994   4.473   1.199
49858SOL    HW251472   3.934   4.347   1.139
49859SOL     OW51473   2.235   0.153   2.216
49859SOL    HW151474   2.143   0.179   2.218
49859SOL    HW251475   2.260   0.159   2.124
49860SOL     OW51476   3.590   1.786   2.401
49860SOL    HW151477   3.637   1.862   2.367
49860SOL    HW251478   3.654   1.739   2.454
49861SOL     OW51479  13.919   1.444   6.609
49861SOL    HW151480  13.878   1.358   6.604
49861SOL    HW251481  13.847   1.506   6.600
49862SOL     OW51482  14.322   2.302  11.828
49862SOL    HW151483  14.348   2.391  11.854
49862SOL    HW251484  14.227   2.300  11.840
49863SOL     OW51485   3.241   8.272   8.653
49863SOL    HW151486   3.257   8.337   8.584
49863SOL    HW251487   3.149   8.247   8.642
49864SOL     OW51488   5.275  14.084   6.418
49864SOL    HW151489   5.244  14.088   6.508
49864SOL    HW251490   5.214  14.024   6.375
49865SOL     OW51491   1.580  14.702   1.744
49865SOL    HW151492   1.663  14.739   1.712
49865SOL    HW251493   1.607  14.640   1.812
49866SOL     OW51494   3.163   7.546   0.504
49866SOL    HW151495   3.201   7.624   0.464
49866SOL    HW251496   3.072   7.545   0.475
49867SOL     OW51497   3.975   0.843   5.570
49867SOL    HW151498   3.985   0.938   5.569
49867SOL    HW251499   3.994   0.818   5.660
49868SOL     OW51500  12.402   6.966   0.083
49868SOL    HW151501  12.465   6.988   0.014
49868SOL    HW251502  12.429   6.880   0.114
49869SOL     OW51503   9.399   6.834   7.539
49869SOL    HW151504   9.447   6.914   7.514
49869SOL    HW251505   9.352   6.858   7.619
49870SOL     OW51506  10.943  12.427   3.268
49870SOL    HW151507  11.006  12.477   3.320
49870SOL    HW251508  10.971  12.440   3.177
49871SOL     OW51509   7.852  11.035   1.132
49871SOL    HW151510   7.922  11.008   1.192
49871SOL    HW251511   7.807  11.106   1.179
49872SOL     OW51512   6.447   3.703   2.094
49872SOL    HW151513   6.392   3.763   2.044
49872SOL    HW251514   6.511   3.760   2.138
49873SOL     OW51515   4.599  12.292   7.794
49873SOL    HW151516   4.635  12.255   7.713
49873SOL    HW251517   4.510  12.257   7.799
49874SOL     OW51518   2.666  13.341  11.002
49874SOL    HW151519   2.589  13.285  11.014
49874SOL    HW251520   2.703  13.349  11.090
49875SOL     OW51521   2.140  10.525   1.128
49875SOL    HW151522   2.151  10.439   1.170
49875SOL    HW251523   2.093  10.507   1.047
49876SOL     OW51524  14.135   4.711   4.535
49876SOL    HW151525  14.192   4.777   4.577
49876SOL    HW251526  14.164   4.709   4.444
49877SOL     OW51527  10.615  11.599   2.338
49877SOL    HW151528  10.548  11.616   2.405
49877SOL    HW251529  10.640  11.686   2.307
49878SOL     OW51530   8.439   3.818   0.519
49878SOL    HW151531   8.470   3.906   0.543
49878SOL    HW251532   8.352   3.811   0.559
49879SOL     OW51533   6.257  13.292  11.308
49879SOL    HW151534   6.191  13.252  11.364
49879SOL    HW251535   6.247  13.386  11.322
49880SOL     OW51536   2.741  13.192  13.184
49880SOL    HW151537   2.655  13.236  13.185
49880SOL    HW251538   2.726  13.111  13.232
49881SOL     OW51539   1.335  13.631   5.681
49881SOL    HW151540   1.338  13.615   5.587
49881SOL    HW251541   1.312  13.724   5.689
49882SOL     OW51542  13.700   0.423   0.024
49882SOL    HW151543  13.652   0.474  14.847
49882SOL    HW251544  13.645   0.425   0.102
49883SOL     OW51545  14.144   0.271   1.209
49883SOL    HW151546  14.167   0.236   1.123
49883SOL    HW251547  14.053   0.298   1.201
49884SOL     OW51548  14.212   0.087  12.959
49884SOL    HW151549  14.122   0.082  12.927
49884SOL    HW251550  14.264   0.047  12.889
49885SOL     OW51551   8.289   6.653  14.727
49885SOL    HW151552   8.350   6.616  14.791
49885SOL    HW251553   8.213   6.679  14.779
49886SOL     OW51554   0.423   4.883  11.316
49886SOL    HW151555   0.409   4.871  11.222
49886SOL    HW251556   0.392   4.972  11.333
49887SOL     OW51557  11.571   1.550   9.259
49887SOL    HW151558  11.498   1.552   9.320
49887SOL    HW251559  11.578   1.639   9.226
49888SOL     OW51560  11.162   8.092   1.261
49888SOL    HW151561  11.169   8.076   1.355
49888SOL    HW251562  11.183   8.185   1.251
49889SOL     OW51563  13.993  14.347   9.699
49889SOL    HW151564  14.033  14.343   9.613
49889SOL    HW251565  14.050  14.405   9.749
49890SOL     OW51566   6.344   9.951   8.569
49890SOL    HW151567   6.290   9.949   8.649
49890SOL    HW251568   6.298  10.011   8.511
49891SOL     OW51569   7.447  10.657   8.315
49891SOL    HW151570   7.504  10.705   8.254
49891SOL    HW251571   7.369  10.711   8.322
49892SOL     OW51572  14.761   3.293   1.787
49892SOL    HW151573  14.682   3.345   1.803
49892SOL    HW251574  14.816   3.350   1.734
49893SOL     OW51575   9.284  10.676  11.200
49893SOL    HW151576   9.359  10.649  11.149
49893SOL    HW251577   9.226  10.600  11.201
49894SOL     OW51578  10.800  13.920   3.650
49894SOL    HW151579  10.745  13.962   3.584
49894SOL    HW251580  10.752  13.932   3.732
49895SOL     OW51581  13.261   3.003   7.821
49895SOL    HW151582  13.261   2.907   7.816
49895SOL    HW251583  13.270   3.031   7.730
49896SOL     OW51584  10.028   0.898   2.198
49896SOL    HW151585  10.004   0.990   2.184
49896SOL    HW251586  10.119   0.893   2.168
49897SOL     OW51587   4.243  14.856  14.478
49897SOL    HW151588   4.249  14.800  14.555
49897SOL    HW251589   4.162  14.829  14.434
49898SOL     OW51590   4.043   3.967   1.567
49898SOL    HW151591   3.973   3.906   1.543
49898SOL    HW251592   4.083   3.991   1.483
49899SOL     OW51593   5.378   1.381   3.848
49899SOL    HW151594   5.428   1.396   3.768
49899SOL    HW251595   5.287   1.394   3.822
49900SOL     OW51596   0.969  10.255   3.504
49900SOL    HW151597   0.912  10.270   3.580
49900SOL    HW251598   1.046  10.310   3.520
49901SOL     OW51599   1.451  14.440  10.255
49901SOL    HW151600   1.476  14.531  10.272
49901SOL    HW251601   1.357  14.444  10.237
49902SOL     OW51602   5.710   9.207   6.316
49902SOL    HW151603   5.766   9.227   6.241
49902SOL    HW251604   5.738   9.268   6.384
49903SOL     OW51605  13.677   0.870   0.532
49903SOL    HW151606  13.724   0.882   0.615
49903SOL    HW251607  13.717   0.793   0.492
49904SOL     OW51608   2.399  14.299   4.495
49904SOL    HW151609   2.316  14.333   4.528
49904SOL    HW251610   2.375  14.244   4.421
49905SOL     OW51611   1.325  13.872  12.238
49905SOL    HW151612   1.312  13.920  12.157
49905SOL    HW251613   1.413  13.835  12.230
49906SOL     OW51614   9.801  12.544  13.306
49906SOL    HW151615   9.780  12.545  13.400
49906SOL    HW251616   9.761  12.623  13.271
49907SOL     OW51617   2.610   3.227  11.288
49907SOL    HW151618   2.703   3.231  11.310
49907SOL    HW251619   2.608   3.189  11.200
49908SOL     OW51620   1.057   6.070   3.892
49908SOL    HW151621   1.068   5.975   3.891
49908SOL    HW251622   1.143   6.104   3.916
49909SOL     OW51623   5.018   4.034   1.767
49909SOL    HW151624   5.086   3.970   1.787
49909SOL    HW251625   4.956   3.986   1.712
49910SOL     OW51626   8.296   5.928   1.932
49910SOL    HW151627   8.207   5.938   1.966
49910SOL    HW251628   8.348   5.901   2.008
49911SOL     OW51629   8.922  10.382   0.358
49911SOL    HW151630   8.865  10.381   0.434
49911SOL    HW251631   8.991  10.319   0.378
49912SOL     OW51632  13.625   7.071   2.541
49912SOL    HW151633  13.660   7.156   2.565
49912SOL    HW251634  13.649   7.060   2.449
49913SOL     OW51635   1.249  14.696   8.763
49913SOL    HW151636   1.327  14.688   8.708
49913SOL    HW251637   1.234  14.791   8.768
49914SOL     OW51638   0.815  14.176   7.879
49914SOL    HW151639   0.793  14.136   7.795
49914SOL    HW251640   0.744  14.237   7.896
49915SOL     OW51641  10.186   9.207  14.354
49915SOL    HW151642  10.096   9.186  14.380
49915SOL    HW251643  10.240   9.152  14.411
49916SOL     OW51644   6.170   5.601   1.108
49916SOL    HW151645   6.091   5.562   1.146
49916SOL    HW251646   6.232   5.528   1.101
49917SOL     OW51647   1.209  11.418  13.384
49917SOL    HW151648   1.292  11.457  13.410
49917SOL    HW251649   1.179  11.473  13.311
49918SOL     OW51650  11.077   6.650   1.063
49918SOL    HW151651  11.172   6.659   1.061
49918SOL    HW251652  11.054   6.625   0.973
49919SOL     OW51653   2.843   1.587  12.273
49919SOL    HW151654   2.778   1.642  12.316
49919SOL    HW251655   2.856   1.627  12.187
49920SOL     OW51656  14.482  12.369   1.359
49920SOL    HW151657  14.553  12.320   1.317
49920SOL    HW251658  14.425  12.302   1.396
49921SOL     OW51659  14.050   2.629   8.052
49921SOL    HW151660  14.066   2.570   7.979
49921SOL    HW251661  13.968   2.599   8.090
49922SOL     OW51662   4.894  13.411   8.774
49922SOL    HW151663   4.935  13.419   8.688
49922SOL    HW251664   4.818  13.469   8.770
49923SOL     OW51665   0.400  14.695   7.339
49923SOL    HW151666   0.441  14.613   7.311
49923SOL    HW251667   0.467  14.762   7.325
49924SOL     OW51668  12.520  14.878   1.478
49924SOL    HW151669  12.572   0.011   1.555
49924SOL    HW251670  12.491  14.788   1.493
49925SOL     OW51671   7.142   1.576   9.762
49925SOL    HW151672   7.196   1.654   9.750
49925SOL    HW251673   7.204   1.503   9.764
49926SOL     OW51674  12.050  13.618   3.849
49926SOL    HW151675  11.994  13.572   3.786
49926SOL    HW251676  12.060  13.706   3.813
49927SOL     OW51677  14.324   6.244  14.856
49927SOL    HW151678  14.324   6.240   0.064
49927SOL    HW251679  14.399   6.300  14.834
49928SOL     OW51680  10.632   8.249   2.414
49928SOL    HW151681  10.658   8.163   2.446
49928SOL    HW251682  10.559   8.231   2.354
49929SOL     OW51683   0.573  11.515   5.223
49929SOL    HW151684   0.626  11.442   5.191
49929SOL    HW251685   0.595  11.588   5.165
49930SOL     OW51686  14.776  14.696   6.678
49930SOL    HW151687  14.707  14.659   6.734
49930SOL    HW251688  14.808  14.621   6.628
49931SOL     OW51689  13.740   2.627   3.927
49931SOL    HW151690  13.833   2.608   3.926
49931SOL    HW251691  13.698   2.541   3.934
49932SOL     OW51692   0.592  14.143   1.443
49932SOL    HW151693   0.579  14.232   1.476
49932SOL    HW251694   0.506  14.116   1.411
49933SOL     OW51695   4.764  11.728   4.863
49933SOL    HW151696   4.844  11.724   4.810
49933SOL    HW251697   4.725  11.641   4.853
49934SOL     OW51698   9.304   9.285  13.139
49934SOL    HW151699   9.281   9.296  13.047
49934SOL    HW251700   9.265   9.201  13.163
49935SOL     OW51701   6.800   0.670   3.958
49935SOL    HW151702   6.891   0.690   3.978
49935SOL    HW251703   6.751   0.708   4.031
49936SOL     OW51704   0.191   7.577   4.896
49936SOL    HW151705   0.182   7.669   4.872
49936SOL    HW251706   0.270   7.547   4.851
49937SOL     OW51707  11.479   4.411  11.619
49937SOL    HW151708  11.509   4.501  11.608
49937SOL    HW251709  11.555   4.357  11.597
49938SOL     OW51710  13.397   6.085   2.175
49938SOL    HW151711  13.360   6.108   2.259
49938SOL    HW251712  13.355   6.144   2.112
49939SOL     OW51713  12.020   3.641   1.091
49939SOL    HW151714  12.084   3.579   1.056
49939SOL    HW251715  12.059   3.671   1.173
49940SOL     OW51716   3.998   5.194   7.063
49940SOL    HW151717   4.091   5.217   7.063
49940SOL    HW251718   3.986   5.145   6.981
49941SOL     OW51719  14.473  13.486   9.511
49941SOL    HW151720  14.528  13.559   9.482
49941SOL    HW251721  14.497  13.473   9.603
49942SOL     OW51722   7.334   9.048  12.738
49942SOL    HW151723   7.310   8.956  12.751
49942SOL    HW251724   7.425   9.044  12.709
49943SOL     OW51725  13.091   3.624   7.209
49943SOL    HW151726  13.003   3.586   7.215
49943SOL    HW251727  13.082   3.712   7.246
49944SOL     OW51728   0.210  10.867   2.342
49944SOL    HW151729   0.286  10.905   2.387
49944SOL    HW251730   0.234  10.776   2.328
49945SOL     OW51731   2.720   7.786   5.711
49945SOL    HW151732   2.637   7.755   5.676
49945SOL    HW251733   2.758   7.710   5.755
49946SOL     OW51734   3.068  10.089   3.878
49946SOL    HW151735   3.155  10.057   3.900
49946SOL    HW251736   3.030  10.020   3.824
49947SOL     OW51737  12.572  11.774  12.371
49947SOL    HW151738  12.535  11.755  12.285
49947SOL    HW251739  12.653  11.723  12.374
49948SOL     OW51740   9.542  11.596   2.858
49948SOL    HW151741   9.572  11.602   2.768
49948SOL    HW251742   9.483  11.520   2.859
49949SOL     OW51743  13.264   6.163  10.797
49949SOL    HW151744  13.336   6.156  10.859
49949SOL    HW251745  13.305   6.155  10.711
49950SOL     OW51746  11.151   4.677   6.803
49950SOL    HW151747  11.141   4.591   6.763
49950SOL    HW251748  11.241   4.678   6.835
49951SOL     OW51749  13.716   5.590  11.981
49951SOL    HW151750  13.650   5.560  11.919
49951SOL    HW251751  13.712   5.528  12.053
49952SOL     OW51752  14.223   6.149  11.376
49952SOL    HW151753  14.276   6.215  11.420
49952SOL    HW251754  14.239   6.163  11.283
49953SOL     OW51755   7.273   1.913  11.708
49953SOL    HW151756   7.205   1.884  11.768
49953SOL    HW251757   7.352   1.867  11.736
49954SOL     OW51758   2.828   1.663  11.993
49954SOL    HW151759   2.878   1.714  11.929
49954SOL    HW251760   2.827   1.575  11.957
49955SOL     OW51761   6.867   4.355  11.955
49955SOL    HW151762   6.907   4.286  12.008
49955SOL    HW251763   6.773   4.346  11.970
49956SOL     OW51764  12.761   1.896   8.715
49956SOL    HW151765  12.832   1.899   8.779
49956SOL    HW251766  12.787   1.828   8.653
49957SOL     OW51767   9.215  10.381  10.975
49957SOL    HW151768   9.152  10.439  11.017
49957SOL    HW251769   9.169  10.348  10.898
49958SOL     OW51770  12.683  13.779  14.116
49958SOL    HW151771  12.656  13.859  14.160
49958SOL    HW251772  12.602  13.727  14.110
49959SOL     OW51773   3.855  10.684   4.945
49959SOL    HW151774   3.871  10.637   4.863
49959SOL    HW251775   3.858  10.777   4.920
49960SOL     OW51776  11.130   8.357  11.091
49960SOL    HW151777  11.184   8.282  11.064
49960SOL    HW251778  11.055   8.318  11.136
49961SOL     OW51779   8.175  13.403   0.969
49961SOL    HW151780   8.200  13.313   0.947
49961SOL    HW251781   8.129  13.395   1.052
49962SOL     OW51782   2.234   7.075   6.215
49962SOL    HW151783   2.299   7.142   6.235
49962SOL    HW251784   2.236   7.016   6.290
49963SOL     OW51785   1.268   0.141  10.216
49963SOL    HW151786   1.352   0.124  10.174
49963SOL    HW251787   1.260   0.073  10.283
49964SOL     OW51788   9.271   1.430   5.855
49964SOL    HW151789   9.352   1.481   5.860
49964SOL    HW251790   9.246   1.416   5.946
49965SOL     OW51791   0.780   5.010   8.535
49965SOL    HW151792   0.775   4.915   8.521
49965SOL    HW251793   0.869   5.034   8.511
49966SOL     OW51794  14.601  11.257   9.535
49966SOL    HW151795  14.606  11.348   9.565
49966SOL    HW251796  14.508  11.237   9.531
49967SOL     OW51797   4.549  12.079  10.576
49967SOL    HW151798   4.517  11.989  10.581
49967SOL    HW251799   4.626  12.074  10.520
49968SOL     OW51800   6.170  11.700   2.847
49968SOL    HW151801   6.116  11.710   2.769
49968SOL    HW251802   6.161  11.784   2.893
49969SOL     OW51803  14.332   0.503   4.938
49969SOL    HW151804  14.316   0.568   5.006
49969SOL    HW251805  14.393   0.545   4.878
49970SOL     OW51806   6.070  12.742   9.831
49970SOL    HW151807   6.123  12.663   9.840
49970SOL    HW251808   6.133  12.814   9.842
49971SOL     OW51809   7.670  11.460   9.580
49971SOL    HW151810   7.750  11.493   9.538
49971SOL    HW251811   7.670  11.366   9.562
49972SOL     OW51812   8.203   5.288   4.380
49972SOL    HW151813   8.122   5.302   4.331
49972SOL    HW251814   8.213   5.192   4.382
49973SOL     OW51815   9.447   5.031   4.002
49973SOL    HW151816   9.493   5.115   3.999
49973SOL    HW251817   9.372   5.047   4.060
49974SOL     OW51818   9.026  13.538  10.143
49974SOL    HW151819   8.942  13.503  10.174
49974SOL    HW251820   9.035  13.622  10.186
49975SOL     OW51821   0.561   6.648   5.805
49975SOL    HW151822   0.505   6.693   5.869
49975SOL    HW251823   0.559   6.704   5.728
49976SOL     OW51824   5.888   9.708   8.704
49976SOL    HW151825   5.926   9.723   8.791
49976SOL    HW251826   5.950   9.649   8.661
49977SOL     OW51827   6.393   0.384  12.356
49977SOL    HW151828   6.416   0.438  12.431
49977SOL    HW251829   6.431   0.430  12.280
49978SOL     OW51830  10.697   7.146   7.927
49978SOL    HW151831  10.765   7.081   7.911
49978SOL    HW251832  10.699   7.203   7.850
49979SOL     OW51833   4.592   4.906  11.039
49979SOL    HW151834   4.616   4.905  10.946
49979SOL    HW251835   4.607   4.997  11.066
49980SOL     OW51836   0.878   6.595   0.074
49980SOL    HW151837   0.849   6.675   0.030
49980SOL    HW251838   0.963   6.618   0.112
49981SOL     OW51839   5.950  10.140   8.816
49981SOL    HW151840   6.036  10.181   8.816
49981SOL    HW251841   5.889  10.213   8.801
49982SOL     OW51842   5.260   6.738   0.702
49982SOL    HW151843   5.278   6.738   0.608
49982SOL    HW251844   5.274   6.647   0.729
49983SOL     OW51845   9.960  13.415   8.316
49983SOL    HW151846   9.905  13.469   8.372
49983SOL    HW251847   9.980  13.471   8.241
49984SOL     OW51848   2.340   4.869   4.257
49984SOL    HW151849   2.286   4.818   4.197
49984SOL    HW251850   2.297   4.954   4.262
49985SOL     OW51851   0.100   9.188  10.062
49985SOL    HW151852   0.113   9.184  10.157
49985SOL    HW251853   0.178   9.146  10.026
49986SOL     OW51854   4.182   6.189  13.418
49986SOL    HW151855   4.107   6.190  13.359
49986SOL    HW251856   4.226   6.106  13.401
49987SOL     OW51857  10.924   3.767  10.362
49987SOL    HW151858  10.897   3.859  10.362
49987SOL    HW251859  10.893   3.732  10.279
49988SOL     OW51860   6.371   6.624   5.298
49988SOL    HW151861   6.437   6.682   5.338
49988SOL    HW251862   6.391   6.538   5.334
49989SOL     OW51863  13.082   7.073   6.964
49989SOL    HW151864  13.027   7.137   6.919
49989SOL    HW251865  13.044   6.988   6.941
49990SOL     OW51866   1.677   6.343  11.691
49990SOL    HW151867   1.638   6.257  11.680
49990SOL    HW251868   1.754   6.343  11.634
49991SOL     OW51869  13.088  13.388  13.414
49991SOL    HW151870  13.098  13.316  13.353
49991SOL    HW251871  13.112  13.466  13.364
49992SOL     OW51872   6.215   4.065   5.349
49992SOL    HW151873   6.260   3.983   5.328
49992SOL    HW251874   6.181   4.050   5.438
49993SOL     OW51875   0.970   2.263   4.110
49993SOL    HW151876   1.026   2.189   4.131
49993SOL    HW251877   0.941   2.247   4.020
49994SOL     OW51878   8.981   1.178  13.449
49994SOL    HW151879   8.961   1.124  13.525
49994SOL    HW251880   8.944   1.130  13.374
49995SOL     OW51881   1.033  14.760   5.008
49995SOL    HW151882   1.009  14.688   4.950
49995SOL    HW251883   1.000  14.838   4.963
49996SOL     OW51884  10.227  13.156   5.417
49996SOL    HW151885  10.288  13.176   5.489
49996SOL    HW251886  10.205  13.064   5.429
49997SOL     OW51887   2.702  13.734  12.322
49997SOL    HW151888   2.750  13.813  12.301
49997SOL    HW251889   2.738  13.667  12.264
49998SOL     OW51890   3.256   9.435   1.765
49998SOL    HW151891   3.286   9.500   1.702
49998SOL    HW251892   3.176   9.472   1.802
49999SOL     OW51893   1.790   9.163  11.141
49999SOL    HW151894   1.810   9.071  11.125
49999SOL    HW251895   1.807   9.176  11.235
50000SOL     OW51896   9.104   1.542   5.638
50000SOL    HW151897   9.167   1.510   5.703
50000SOL    HW251898   9.127   1.496   5.558
50001SOL     OW51899  14.804   3.439   3.081
50001SOL    HW151900  14.745   3.478   3.145
50001SOL    HW251901   0.002   3.476   3.102
50002SOL     OW51902   2.447  10.765   2.558
50002SOL    HW151903   2.370  10.820   2.571
50002SOL    HW251904   2.520  10.826   2.556
50003SOL     OW51905   6.614  10.139   5.518
50003SOL    HW151906   6.625  10.183   5.602
50003SOL    HW251907   6.527  10.099   5.524
50004SOL     OW51908   1.260  14.175  14.179
50004SOL    HW151909   1.247  14.086  14.211
50004SOL    HW251910   1.187  14.225  14.216
50005SOL     OW51911  11.019  11.794   5.356
50005SOL    HW151912  10.977  11.852   5.293
50005SOL    HW251913  11.092  11.754   5.308
50006SOL     OW51914  13.758   2.728  13.791
50006SOL    HW151915  13.717   2.776  13.720
50006SOL    HW251916  13.850   2.756  13.789
50007SOL     OW51917   8.540   0.590  13.497
50007SOL    HW151918   8.616   0.548  13.457
50007SOL    HW251919   8.534   0.675  13.453
50008SOL     OW51920  13.048  10.161   2.851
50008SOL    HW151921  13.068  10.254   2.853
50008SOL    HW251922  13.079  10.132   2.765
50009SOL     OW51923   3.381  12.720  14.000
50009SOL    HW151924   3.342  12.756  14.080
50009SOL    HW251925   3.451  12.663  14.032
50010SOL     OW51926   9.443   8.812  13.286
50010SOL    HW151927   9.505   8.747  13.254
50010SOL    HW251928   9.475   8.835  13.374
50011SOL     OW51929   2.984  14.639   7.730
50011SOL    HW151930   2.889  14.633   7.720
50011SOL    HW251931   3.005  14.576   7.799
50012SOL     OW51932  13.996   0.969   3.598
50012SOL    HW151933  13.995   0.929   3.511
50012SOL    HW251934  14.088   0.985   3.616
50013SOL     OW51935   8.367   4.026   9.261
50013SOL    HW151936   8.422   3.977   9.322
50013SOL    HW251937   8.397   4.116   9.269
50014SOL     OW51938   5.905   3.675  10.612
50014SOL    HW151939   5.923   3.758  10.567
50014SOL    HW251940   5.908   3.609  10.543
50015SOL     OW51941  12.915  13.590  14.104
50015SOL    HW151942  12.916  13.510  14.051
50015SOL    HW251943  12.823  13.617  14.105
50016SOL     OW51944   2.901  13.242  12.951
50016SOL    HW151945   2.841  13.231  13.025
50016SOL    HW251946   2.938  13.329  12.963
50017SOL     OW51947   1.525   7.824  12.262
50017SOL    HW151948   1.532   7.859  12.173
50017SOL    HW251949   1.462   7.882  12.306
50018SOL     OW51950  11.398   4.714  11.859
50018SOL    HW151951  11.393   4.784  11.794
50018SOL    HW251952  11.306   4.694  11.879
50019SOL     OW51953  12.690   9.077  11.763
50019SOL    HW151954  12.734   9.071  11.848
50019SOL    HW251955  12.659   9.167  11.757
50020SOL     OW51956  11.417   2.211   0.214
50020SOL    HW151957  11.371   2.189   0.133
50020SOL    HW251958  11.357   2.184   0.284
50021SOL     OW51959   6.298   0.161   5.821
50021SOL    HW151960   6.275   0.253   5.812
50021SOL    HW251961   6.266   0.121   5.740
50022SOL     OW51962   6.938   1.267  12.236
50022SOL    HW151963   6.897   1.342  12.194
50022SOL    HW251964   6.962   1.209  12.163
50023SOL     OW51965   0.260   8.072  14.078
50023SOL    HW151966   0.257   8.037  14.167
50023SOL    HW251967   0.338   8.031  14.039
50024SOL     OW51968  13.723  13.720  11.552
50024SOL    HW151969  13.809  13.761  11.566
50024SOL    HW251970  13.733  13.669  11.472
50025SOL     OW51971  11.390   7.915   1.571
50025SOL    HW151972  11.398   7.833   1.621
50025SOL    HW251973  11.377   7.887   1.480
50026SOL     OW51974   6.884   1.673  12.999
50026SOL    HW151975   6.895   1.767  12.983
50026SOL    HW251976   6.861   1.667  13.091
50027SOL     OW51977   9.570  13.034   7.295
50027SOL    HW151978   9.554  13.073   7.210
50027SOL    HW251979   9.515  13.084   7.355
50028SOL     OW51980  10.101  10.633  13.473
50028SOL    HW151981  10.068  10.613  13.385
50028SOL    HW251982  10.067  10.720  13.492
50029SOL     OW51983   9.014  12.901  10.026
50029SOL    HW151984   9.034  12.869   9.938
50029SOL    HW251985   9.098  12.898  10.072
50030SOL     OW51986   3.712  13.428  11.221
50030SOL    HW151987   3.803  13.441  11.194
50030SOL    HW251988   3.660  13.463  11.149
50031SOL     OW51989   8.242  10.121   8.876
50031SOL    HW151990   8.302  10.132   8.951
50031SOL    HW251991   8.155  10.133   8.913
50032SOL     OW51992  13.361  13.472  13.615
50032SOL    HW151993  13.455  13.456  13.617
50032SOL    HW251994  13.349  13.551  13.667
50033SOL     OW51995  13.190  10.836  13.397
50033SOL    HW151996  13.095  10.833  13.384
50033SOL    HW251997  13.211  10.929  13.398
50034SOL     OW51998  11.073  10.004   7.778
50034SOL    HW151999  11.083   9.960   7.693
50034SOL    HW252000  11.114   9.945   7.840
50035SOL     OW52001   6.128   5.626   0.836
50035SOL    HW152002   6.163   5.638   0.924
50035SOL    HW252003   6.050   5.572   0.848
50036SOL     OW52004   6.024   7.948   4.224
50036SOL    HW152005   6.007   8.040   4.204
50036SOL    HW252006   6.111   7.931   4.188
50037SOL     OW52007   8.816   2.980   7.753
50037SOL    HW152008   8.736   2.973   7.702
50037SOL    HW252009   8.786   2.992   7.843
50038SOL     OW52010   8.425   1.637   1.573
50038SOL    HW152011   8.511   1.621   1.613
50038SOL    HW252012   8.367   1.654   1.647
50039SOL     OW52013   9.623   6.264   8.458
50039SOL    HW152014   9.568   6.198   8.499
50039SOL    HW252015   9.713   6.233   8.472
50040SOL     OW52016   8.226   9.983   9.758
50040SOL    HW152017   8.284  10.056   9.736
50040SOL    HW252018   8.181   9.962   9.676
50041SOL     OW52019   1.730  14.705  11.121
50041SOL    HW152020   1.663  14.773  11.126
50041SOL    HW252021   1.809  14.752  11.093
50042SOL     OW52022   4.717   4.147   1.890
50042SOL    HW152023   4.734   4.072   1.834
50042SOL    HW252024   4.771   4.217   1.854
50043SOL     OW52025   9.976   8.254  10.853
50043SOL    HW152026   9.911   8.255  10.782
50043SOL    HW252027  10.058   8.275  10.810
50044SOL     OW52028   9.699   3.447  12.313
50044SOL    HW152029   9.636   3.514  12.337
50044SOL    HW252030   9.648   3.379  12.270
50045SOL     OW52031  10.762   4.028  14.821
50045SOL    HW152032  10.842   4.020  14.769
50045SOL    HW252033  10.753   4.122  14.836
50046SOL     OW52034   6.275   6.452  12.027
50046SOL    HW152035   6.199   6.445  12.084
50046SOL    HW252036   6.336   6.386  12.061
50047SOL     OW52037   9.917   3.072  11.576
50047SOL    HW152038   9.884   3.012  11.642
50047SOL    HW252039   9.988   3.119  11.620
50048SOL     OW52040   6.622  13.051  11.944
50048SOL    HW152041   6.607  12.995  12.020
50048SOL    HW252042   6.617  13.140  11.979
50049SOL     OW52043  13.485   0.093   3.156
50049SOL    HW152044  13.539   0.031   3.107
50049SOL    HW252045  13.486   0.059   3.246
50050SOL     OW52046  13.565   3.389   3.609
50050SOL    HW152047  13.591   3.369   3.519
50050SOL    HW252048  13.635   3.445   3.643
50051SOL     OW52049  14.800  12.390   4.836
50051SOL    HW152050  14.773  12.458   4.897
50051SOL    HW252051  14.850  12.328   4.888
50052SOL     OW52052   7.370   2.378   9.184
50052SOL    HW152053   7.417   2.304   9.146
50052SOL    HW252054   7.291   2.387   9.130
50053SOL     OW52055   2.016   9.489   9.359
50053SOL    HW152056   2.018   9.412   9.417
50053SOL    HW252057   1.927   9.522   9.367
50054SOL     OW52058   4.201   5.443   5.988
50054SOL    HW152059   4.184   5.536   5.972
50054SOL    HW252060   4.114   5.403   5.993
50055SOL     OW52061  12.907  12.910   2.908
50055SOL    HW152062  12.947  12.978   2.962
50055SOL    HW252063  12.876  12.957   2.830
50056SOL     OW52064  14.012  10.302   0.872
50056SOL    HW152065  14.046  10.295   0.961
50056SOL    HW252066  14.089  10.296   0.816
50057SOL     OW52067  12.787   2.587   2.813
50057SOL    HW152068  12.864   2.643   2.817
50057SOL    HW252069  12.818   2.503   2.846
50058SOL     OW52070   8.070   0.780  13.430
50058SOL    HW152071   7.999   0.828  13.387
50058SOL    HW252072   8.062   0.690  13.396
50059SOL     OW52073   9.340   1.543  10.751
50059SOL    HW152074   9.277   1.613  10.732
50059SOL    HW252075   9.418   1.590  10.782
50060SOL     OW52076   4.986  11.153  11.609
50060SOL    HW152077   4.929  11.221  11.572
50060SOL    HW252078   4.956  11.143  11.700
50061SOL     OW52079   7.363   7.692   2.255
50061SOL    HW152080   7.392   7.630   2.189
50061SOL    HW252081   7.336   7.638   2.329
50062SOL     OW52082   5.159  12.987   3.127
50062SOL    HW152083   5.243  12.981   3.082
50062SOL    HW252084   5.124  13.072   3.102
50063SOL     OW52085   8.429   5.677   9.237
50063SOL    HW152086   8.454   5.737   9.307
50063SOL    HW252087   8.402   5.735   9.165
50064SOL     OW52088   1.771   3.440   5.091
50064SOL    HW152089   1.845   3.404   5.139
50064SOL    HW252090   1.696   3.388   5.118
50065SOL     OW52091  11.026  12.583   2.317
50065SOL    HW152092  10.978  12.551   2.393
50065SOL    HW252093  10.958  12.598   2.251
50066SOL     OW52094   5.332   5.900  11.249
50066SOL    HW152095   5.363   5.816  11.214
50066SOL    HW252096   5.356   5.897  11.342
50067SOL     OW52097   3.605   6.278   6.691
50067SOL    HW152098   3.529   6.324   6.727
50067SOL    HW252099   3.567   6.203   6.644
50068SOL     OW52100  12.024  13.158   9.206
50068SOL    HW152101  12.068  13.233   9.166
50068SOL    HW252102  12.063  13.152   9.293
50069SOL     OW52103   6.727  10.345   3.940
50069SOL    HW152104   6.686  10.288   4.005
50069SOL    HW252105   6.715  10.298   3.857
50070SOL     OW52106   1.502   4.117   3.965
50070SOL    HW152107   1.494   4.167   3.884
50070SOL    HW252108   1.585   4.146   4.002
50071SOL     OW52109   7.331   0.064   3.637
50071SOL    HW152110   7.265   0.113   3.686
50071SOL    HW252111   7.310  14.860   3.654
50072SOL     OW52112   2.348   6.525   7.616
50072SOL    HW152113   2.394   6.568   7.688
50072SOL    HW252114   2.365   6.431   7.630
50073SOL     OW52115  14.082   3.007   2.585
50073SOL    HW152116  14.165   3.009   2.537
50073SOL    HW252117  14.063   2.914   2.596
50074SOL     OW52118   3.081  10.211   6.759
50074SOL    HW152119   2.994  10.173   6.746
50074SOL    HW252120   3.131  10.142   6.802
50075SOL     OW52121   6.590   3.355   8.199
50075SOL    HW152122   6.584   3.285   8.134
50075SOL    HW252123   6.581   3.310   8.283
50076SOL     OW52124   6.579   7.469   5.782
50076SOL    HW152125   6.526   7.522   5.842
50076SOL    HW252126   6.516   7.414   5.736
50077SOL     OW52127   3.985  10.338  11.658
50077SOL    HW152128   3.985  10.384  11.574
50077SOL    HW252129   4.074  10.349  11.691
50078SOL     OW52130   0.072   8.831   7.855
50078SOL    HW152131   0.162   8.810   7.878
50078SOL    HW252132   0.044   8.893   7.923
50079SOL     OW52133  12.937   9.473   9.040
50079SOL    HW152134  12.907   9.519   8.961
50079SOL    HW252135  12.919   9.534   9.111
50080SOL     OW52136   3.711   6.771  10.612
50080SOL    HW152137   3.758   6.689  10.624
50080SOL    HW252138   3.762   6.819  10.546
50081SOL     OW52139   2.949   2.678   6.572
50081SOL    HW152140   2.863   2.640   6.589
50081SOL    HW252141   2.932   2.752   6.513
50082SOL     OW52142   7.661   4.815  13.346
50082SOL    HW152143   7.582   4.760  13.346
50082SOL    HW252144   7.730   4.758  13.381
50083SOL     OW52145   8.755  12.512  14.649
50083SOL    HW152146   8.745  12.566  14.727
50083SOL    HW252147   8.732  12.424  14.679
50084SOL     OW52148   8.532   1.894  13.475
50084SOL    HW152149   8.504   1.961  13.537
50084SOL    HW252150   8.546   1.816  13.528
50085SOL     OW52151   8.381  10.015  10.553
50085SOL    HW152152   8.298   9.981  10.520
50085SOL    HW252153   8.393   9.971  10.638
50086SOL     OW52154   4.402   7.542   8.114
50086SOL    HW152155   4.378   7.550   8.022
50086SOL    HW252156   4.343   7.476   8.149
50087SOL     OW52157   4.967   9.437   6.891
50087SOL    HW152158   4.959   9.363   6.951
50087SOL    HW252159   4.897   9.496   6.917
50088SOL     OW52160  14.456   5.799   8.531
50088SOL    HW152161  14.452   5.869   8.466
50088SOL    HW252162  14.542   5.759   8.518
50089SOL     OW52163   9.103   2.254   0.515
50089SOL    HW152164   9.028   2.294   0.559
50089SOL    HW252165   9.112   2.168   0.555
50090SOL     OW52166  13.637  13.872   5.173
50090SOL    HW152167  13.674  13.960   5.188
50090SOL    HW252168  13.714  13.817   5.157
50091SOL     OW52169   7.274   6.922   9.106
50091SOL    HW152170   7.219   6.999   9.089
50091SOL    HW252171   7.315   6.902   9.022
50092SOL     OW52172   7.047   2.054   8.193
50092SOL    HW152173   7.029   1.961   8.208
50092SOL    HW252174   7.105   2.079   8.265
50093SOL     OW52175   4.501  11.128   0.479
50093SOL    HW152176   4.568  11.116   0.412
50093SOL    HW252177   4.496  11.044   0.524
50094SOL     OW52178   1.481   6.698   6.333
50094SOL    HW152179   1.568   6.737   6.321
50094SOL    HW252180   1.421   6.766   6.301
50095SOL     OW52181  11.538   2.470   6.308
50095SOL    HW152182  11.566   2.561   6.296
50095SOL    HW252183  11.446   2.470   6.285
50096SOL     OW52184   2.622   6.618   5.971
50096SOL    HW152185   2.590   6.683   6.033
50096SOL    HW252186   2.618   6.661   5.886
50097SOL     OW52187   8.627   4.372   2.655
50097SOL    HW152188   8.664   4.455   2.628
50097SOL    HW252189   8.533   4.388   2.660
50098SOL     OW52190   7.345  13.923   1.269
50098SOL    HW152191   7.275  13.876   1.223
50098SOL    HW252192   7.319  14.015   1.264
50099SOL     OW52193  13.772  11.600   5.839
50099SOL    HW152194  13.682  11.601   5.807
50099SOL    HW252195  13.807  11.686   5.815
50100SOL     OW52196  13.288  10.670   5.485
50100SOL    HW152197  13.286  10.708   5.397
50100SOL    HW252198  13.377  10.686   5.517
50101SOL     OW52199   7.858  14.249  14.520
50101SOL    HW152200   7.804  14.183  14.565
50101SOL    HW252201   7.947  14.215  14.526
50102SOL     OW52202   3.842   4.556  14.105
50102SOL    HW152203   3.852   4.532  14.013
50102SOL    HW252204   3.754   4.527  14.129
50103SOL     OW52205  11.525  11.255  12.955
50103SOL    HW152206  11.506  11.294  12.870
50103SOL    HW252207  11.451  11.280  13.010
50104SOL     OW52208  14.469   7.635  10.062
50104SOL    HW152209  14.397   7.626  10.125
50104SOL    HW252210  14.524   7.559  10.078
50105SOL     OW52211  11.676   9.422   9.778
50105SOL    HW152212  11.682   9.432   9.873
50105SOL    HW252213  11.639   9.505   9.748
50106SOL     OW52214   5.307  11.214   8.278
50106SOL    HW152215   5.350  11.159   8.213
50106SOL    HW252216   5.376  11.239   8.339
50107SOL     OW52217   4.922   3.861   0.041
50107SOL    HW152218   4.891   3.813   0.118
50107SOL    HW252219   4.872   3.825  14.856
50108SOL     OW52220   0.242  13.740   5.124
50108SOL    HW152221   0.172  13.762   5.184
50108SOL    HW252222   0.301  13.815   5.125
50109SOL     OW52223  11.163   7.958   0.313
50109SOL    HW152224  11.178   7.955   0.219
50109SOL    HW252225  11.068   7.952   0.322
50110SOL     OW52226   7.598  10.830   8.975
50110SOL    HW152227   7.581  10.920   9.002
50110SOL    HW252228   7.693  10.821   8.982
50111SOL     OW52229  11.478   9.855  11.829
50111SOL    HW152230  11.445   9.914  11.897
50111SOL    HW252231  11.425   9.775  11.839
50112SOL     OW52232   0.865   9.024   6.262
50112SOL    HW152233   0.869   9.118   6.246
50112SOL    HW252234   0.858   9.016   6.358
50113SOL     OW52235  14.055   6.524   7.442
50113SOL    HW152236  14.059   6.472   7.522
50113SOL    HW252237  14.077   6.613   7.470
50114SOL     OW52238   9.108   6.153  13.100
50114SOL    HW152239   9.091   6.101  13.178
50114SOL    HW252240   9.054   6.114  13.032
50115SOL     OW52241  12.410   9.629  12.827
50115SOL    HW152242  12.342   9.652  12.890
50115SOL    HW252243  12.491   9.658  12.868
50116SOL     OW52244  13.308  11.479   4.151
50116SOL    HW152245  13.250  11.435   4.213
50116SOL    HW252246  13.286  11.440   4.067
50117SOL     OW52247   7.900   1.094   0.685
50117SOL    HW152248   7.815   1.107   0.644
50117SOL    HW252249   7.952   1.170   0.656
50118SOL     OW52250   0.973  12.697   6.836
50118SOL    HW152251   1.035  12.628   6.863
50118SOL    HW252252   0.930  12.662   6.758
50119SOL     OW52253  12.002   5.043   1.651
50119SOL    HW152254  11.989   4.988   1.574
50119SOL    HW252255  11.984   4.985   1.725
50120SOL     OW52256   1.924  12.335  11.374
50120SOL    HW152257   1.973  12.297  11.447
50120SOL    HW252258   1.988  12.390  11.329
50121SOL     OW52259  11.290  12.195   8.731
50121SOL    HW152260  11.268  12.108   8.699
50121SOL    HW252261  11.217  12.219   8.788
50122SOL     OW52262  11.865   0.207  13.432
50122SOL    HW152263  11.908   0.144  13.374
50122SOL    HW252264  11.918   0.205  13.512
50123SOL     OW52265  10.621   9.779   2.611
50123SOL    HW152266  10.681   9.714   2.573
50123SOL    HW252267  10.588   9.828   2.535
50124SOL     OW52268  10.169  14.623   3.731
50124SOL    HW152269  10.138  14.637   3.642
50124SOL    HW252270  10.113  14.679   3.785
50125SOL     OW52271  13.254  10.649  13.592
50125SOL    HW152272  13.212  10.685  13.670
50125SOL    HW252273  13.224  10.706  13.520
50126SOL     OW52274   7.472  13.125   6.531
50126SOL    HW152275   7.473  13.070   6.453
50126SOL    HW252276   7.542  13.189   6.516
50127SOL     OW52277  11.978   3.804   7.812
50127SOL    HW152278  12.059   3.847   7.785
50127SOL    HW252279  11.908   3.863   7.783
50128SOL     OW52280   4.958  13.312   0.523
50128SOL    HW152281   4.973  13.405   0.539
50128SOL    HW252282   5.046  13.275   0.514
50129SOL     OW52283  12.550   3.735   4.978
50129SOL    HW152284  12.460   3.703   4.981
50129SOL    HW252285  12.574   3.733   4.886
50130SOL     OW52286   5.788   2.318   0.912
50130SOL    HW152287   5.748   2.308   0.825
50130SOL    HW252288   5.865   2.373   0.896
50131SOL     OW52289   4.772   5.364   6.202
50131SOL    HW152290   4.815   5.448   6.186
50131SOL    HW252291   4.710   5.354   6.129
50132SOL     OW52292   1.473   2.803  13.489
50132SOL    HW152293   1.525   2.723  13.493
50132SOL    HW252294   1.535   2.871  13.462
50133SOL     OW52295  13.619  13.347   0.198
50133SOL    HW152296  13.657  13.434   0.183
50133SOL    HW252297  13.622  13.304   0.113
50134SOL     OW52298   8.515   2.406   5.113
50134SOL    HW152299   8.498   2.424   5.205
50134SOL    HW252300   8.600   2.446   5.096
50135SOL     OW52301   2.439   9.004  13.879
50135SOL    HW152302   2.495   9.077  13.907
50135SOL    HW252303   2.440   8.944  13.954
50136SOL     OW52304   5.730   0.762  10.281
50136SOL    HW152305   5.739   0.697  10.351
50136SOL    HW252306   5.644   0.743  10.242
50137SOL     OW52307   6.245   9.318  10.726
50137SOL    HW152308   6.171   9.371  10.757
50137SOL    HW252309   6.309   9.321  10.797
50138SOL     OW52310   1.286  11.909  12.942
50138SOL    HW152311   1.218  11.924  13.008
50138SOL    HW252312   1.247  11.939  12.860
50139SOL     OW52313   1.683  13.905   9.672
50139SOL    HW152314   1.682  13.840   9.602
50139SOL    HW252315   1.735  13.865   9.741
50140SOL     OW52316  11.560  14.085   2.977
50140SOL    HW152317  11.649  14.114   2.958
50140SOL    HW252318  11.565  13.990   2.978
50141SOL     OW52319   6.652  10.544   3.281
50141SOL    HW152320   6.588  10.526   3.349
50141SOL    HW252321   6.726  10.584   3.327
50142SOL     OW52322  11.876   5.355   0.864
50142SOL    HW152323  11.953   5.391   0.908
50142SOL    HW252324  11.898   5.356   0.771
50143SOL     OW52325  10.310  11.727   1.960
50143SOL    HW152326  10.242  11.787   1.991
50143SOL    HW252327  10.339  11.681   2.039
50144SOL     OW52328   3.528   7.256  11.092
50144SOL    HW152329   3.535   7.170  11.050
50144SOL    HW252330   3.438   7.283  11.074
50145SOL     OW52331   1.086   4.061   8.783
50145SOL    HW152332   1.147   3.992   8.809
50145SOL    HW252333   1.039   4.084   8.863
50146SOL     OW52334   4.962   0.483   1.035
50146SOL    HW152335   4.878   0.503   1.076
50146SOL    HW252336   5.018   0.557   1.056
50147SOL     OW52337  10.637  14.006   9.586
50147SOL    HW152338  10.579  14.039   9.654
50147SOL    HW252339  10.582  13.952   9.530
50148SOL     OW52340   0.330   6.540   0.688
50148SOL    HW152341   0.353   6.595   0.614
50148SOL    HW252342   0.340   6.450   0.656
50149SOL     OW52343   5.664   3.351   5.766
50149SOL    HW152344   5.667   3.277   5.827
50149SOL    HW252345   5.698   3.425   5.816
50150SOL     OW52346   2.778  14.093   5.756
50150SOL    HW152347   2.686  14.067   5.764
50150SOL    HW252348   2.827  14.015   5.782
50151SOL     OW52349   4.185  11.432  11.671
50151SOL    HW152350   4.156  11.428  11.762
50151SOL    HW252351   4.143  11.356  11.629
50152SOL     OW52352   7.660   7.357  12.959
50152SOL    HW152353   7.567   7.376  12.973
50152SOL    HW252354   7.700   7.443  12.949
50153SOL     OW52355   3.932   0.018  13.285
50153SOL    HW152356   3.916   0.064  13.367
50153SOL    HW252357   4.024  14.883  13.287
50154SOL     OW52358  11.632   3.447   1.067
50154SOL    HW152359  11.538   3.429   1.077
50154SOL    HW252360  11.674   3.390   1.131
50155SOL     OW52361  12.635   7.459  12.668
50155SOL    HW152362  12.724   7.462  12.634
50155SOL    HW252363  12.643   7.412  12.751
50156SOL     OW52364   5.168  12.866  14.473
50156SOL    HW152365   5.252  12.855  14.430
50156SOL    HW252366   5.133  12.777  14.481
50157SOL     OW52367   6.761   3.449   7.663
50157SOL    HW152368   6.715   3.469   7.581
50157SOL    HW252369   6.692   3.424   7.724
50158SOL     OW52370  11.384  13.577  11.603
50158SOL    HW152371  11.354  13.533  11.524
50158SOL    HW252372  11.327  13.653  11.611
50159SOL     OW52373  12.250  11.356   4.394
50159SOL    HW152374  12.220  11.341   4.305
50159SOL    HW252375  12.283  11.271   4.423
50160SOL     OW52376  10.238   6.238   0.625
50160SOL    HW152377  10.186   6.175   0.675
50160SOL    HW252378  10.329   6.212   0.639
50161SOL     OW52379  12.848  13.195   8.575
50161SOL    HW152380  12.926  13.226   8.530
50161SOL    HW252381  12.818  13.271   8.625
50162SOL     OW52382   8.865  11.788   0.091
50162SOL    HW152383   8.775  11.774   0.119
50162SOL    HW252384   8.910  11.818   0.170
50163SOL     OW52385   6.724   8.738  11.816
50163SOL    HW152386   6.677   8.689  11.884
50163SOL    HW252387   6.665   8.737  11.741
50164SOL     OW52388   4.299  12.742   4.953
50164SOL    HW152389   4.319  12.768   4.863
50164SOL    HW252390   4.272  12.651   4.946
50165SOL     OW52391   5.760   3.878   4.556
50165SOL    HW152392   5.705   3.801   4.570
50165SOL    HW252393   5.812   3.886   4.636
50166SOL     OW52394   2.301   9.765   0.589
50166SOL    HW152395   2.385   9.733   0.623
50166SOL    HW252396   2.265   9.690   0.541
50167SOL     OW52397   3.328  14.002  10.335
50167SOL    HW152398   3.314  14.091  10.302
50167SOL    HW252399   3.241  13.972  10.361
50168SOL     OW52400   8.753  11.677   7.923
50168SOL    HW152401   8.694  11.608   7.894
50168SOL    HW252402   8.716  11.707   8.006
50169SOL     OW52403   2.401   9.224  11.448
50169SOL    HW152404   2.488   9.266  11.445
50169SOL    HW252405   2.339   9.296  11.438
50170SOL     OW52406   1.215  14.194   6.736
50170SOL    HW152407   1.170  14.131   6.793
50170SOL    HW252408   1.151  14.213   6.667
50171SOL     OW52409   2.474  12.075   4.941
50171SOL    HW152410   2.512  12.009   4.998
50171SOL    HW252411   2.410  12.121   4.996
50172SOL     OW52412   5.387  12.414   9.520
50172SOL    HW152413   5.421  12.362   9.593
50172SOL    HW252414   5.294  12.424   9.539
50173SOL     OW52415   0.403  10.456  12.981
50173SOL    HW152416   0.405  10.364  13.009
50173SOL    HW252417   0.386  10.452  12.887
50174SOL     OW52418   2.169   5.520  10.931
50174SOL    HW152419   2.177   5.429  10.960
50174SOL    HW252420   2.223   5.524  10.851
50175SOL     OW52421   1.287   5.920   7.677
50175SOL    HW152422   1.194   5.937   7.663
50175SOL    HW252423   1.326   5.925   7.589
50176SOL     OW52424  12.847  12.695  11.925
50176SOL    HW152425  12.849  12.766  11.861
50176SOL    HW252426  12.929  12.705  11.974
50177SOL     OW52427   0.255   1.280   0.524
50177SOL    HW152428   0.230   1.231   0.602
50177SOL    HW252429   0.172   1.314   0.490
50178SOL     OW52430   1.469   6.606  12.939
50178SOL    HW152431   1.425   6.522  12.929
50178SOL    HW252432   1.535   6.606  12.870
50179SOL     OW52433   4.510  11.268   4.029
50179SOL    HW152434   4.423  11.305   4.015
50179SOL    HW252435   4.505  11.226   4.115
50180SOL     OW52436  13.948  10.705   1.864
50180SOL    HW152437  13.935  10.760   1.788
50180SOL    HW252438  13.946  10.615   1.830
50181SOL     OW52439   6.049   5.380  13.023
50181SOL    HW152440   5.981   5.445  13.007
50181SOL    HW252441   6.043   5.362  13.117
50182SOL     OW52442   2.843   7.644  11.509
50182SOL    HW152443   2.850   7.555  11.475
50182SOL    HW252444   2.893   7.697  11.448
50183SOL     OW52445   4.514   6.934  11.173
50183SOL    HW152446   4.430   6.921  11.216
50183SOL    HW252447   4.534   6.849  11.133
50184SOL     OW52448   8.073   8.204   0.506
50184SOL    HW152449   8.052   8.287   0.464
50184SOL    HW252450   8.008   8.195   0.575
50185SOL     OW52451   5.298   2.379  11.049
50185SOL    HW152452   5.371   2.397  10.989
50185SOL    HW252453   5.283   2.285  11.041
50186SOL     OW52454   4.129  14.118   2.024
50186SOL    HW152455   4.055  14.176   2.044
50186SOL    HW252456   4.150  14.136   1.932
50187SOL     OW52457   9.638  13.628   5.689
50187SOL    HW152458   9.692  13.694   5.645
50187SOL    HW252459   9.550  13.640   5.654
50188SOL     OW52460  10.021   0.444  14.385
50188SOL    HW152461   9.937   0.481  14.412
50188SOL    HW252462  10.031   0.365  14.438
50189SOL     OW52463  10.477  14.035   2.069
50189SOL    HW152464  10.455  14.046   1.977
50189SOL    HW252465  10.404  13.985   2.106
50190SOL     OW52466   5.477   2.712  11.155
50190SOL    HW152467   5.471   2.760  11.073
50190SOL    HW252468   5.470   2.620  11.129
50191SOL     OW52469   1.790  10.639   4.128
50191SOL    HW152470   1.749  10.609   4.047
50191SOL    HW252471   1.878  10.664   4.103
50192SOL     OW52472   7.544  12.776  10.647
50192SOL    HW152473   7.488  12.699  10.651
50192SOL    HW252474   7.599  12.762  10.570
50193SOL     OW52475  13.102   7.059   4.768
50193SOL    HW152476  13.039   7.106   4.821
50193SOL    HW252477  13.079   6.967   4.779
50194SOL     OW52478   7.820   7.749  12.848
50194SOL    HW152479   7.811   7.817  12.781
50194SOL    HW252480   7.731   7.716  12.860
50195SOL     OW52481  13.089   0.711   5.481
50195SOL    HW152482  13.010   0.689   5.530
50195SOL    HW252483  13.147   0.636   5.495
50196SOL     OW52484   1.406   6.473  13.314
50196SOL    HW152485   1.426   6.446  13.403
50196SOL    HW252486   1.367   6.559  13.322
50197SOL     OW52487   0.377   5.440   7.730
50197SOL    HW152488   0.410   5.398   7.651
50197SOL    HW252489   0.343   5.525   7.701
50198SOL     OW52490  12.150   6.459  13.096
50198SOL    HW152491  12.214   6.490  13.160
50198SOL    HW252492  12.066   6.468  13.141
50199SOL     OW52493   1.005  14.434   1.989
50199SOL    HW152494   0.984  14.346   2.020
50199SOL    HW252495   0.969  14.437   1.900
50200SOL     OW52496  10.422  11.456   4.500
50200SOL    HW152497  10.470  11.524   4.546
50200SOL    HW252498  10.490  11.404   4.457
50201SOL     OW52499   2.867   2.252   9.954
50201SOL    HW152500   2.877   2.179  10.015
50201SOL    HW252501   2.914   2.223   9.875
50202SOL     OW52502   2.248   8.655  11.782
50202SOL    HW152503   2.268   8.746  11.802
50202SOL    HW252504   2.320   8.606  11.822
50203SOL     OW52505  11.507   7.216   7.486
50203SOL    HW152506  11.583   7.210   7.428
50203SOL    HW252507  11.495   7.128   7.520
50204SOL     OW52508   6.845  12.743  14.676
50204SOL    HW152509   6.902  12.800  14.624
50204SOL    HW252510   6.816  12.798  14.749
50205SOL     OW52511   0.782   7.808   0.701
50205SOL    HW152512   0.849   7.746   0.729
50205SOL    HW252513   0.805   7.828   0.610
50206SOL     OW52514  14.723  12.240  13.846
50206SOL    HW152515  14.673  12.158  13.841
50206SOL    HW252516  14.657  12.307  13.862
50207SOL     OW52517  10.649  12.952  14.375
50207SOL    HW152518  10.576  12.902  14.338
50207SOL    HW252519  10.726  12.918  14.330
50208SOL     OW52520  13.261   8.400   2.222
50208SOL    HW152521  13.176   8.374   2.256
50208SOL    HW252522  13.307   8.318   2.208
50209SOL     OW52523   1.879  11.596   3.106
50209SOL    HW152524   1.872  11.599   3.011
50209SOL    HW252525   1.805  11.542   3.133
50210SOL     OW52526  11.641   6.378  12.460
50210SOL    HW152527  11.663   6.344  12.373
50210SOL    HW252528  11.551   6.347  12.476
50211SOL     OW52529  13.285   6.907  11.641
50211SOL    HW152530  13.245   6.963  11.575
50211SOL    HW252531  13.373   6.890  11.608
50212SOL     OW52532   0.829   4.657  13.775
50212SOL    HW152533   0.789   4.572  13.794
50212SOL    HW252534   0.905   4.635  13.721
50213SOL     OW52535  10.454   8.952   4.634
50213SOL    HW152536  10.405   8.877   4.670
50213SOL    HW252537  10.486   8.921   4.549
50214SOL     OW52538  12.907  13.434   5.277
50214SOL    HW152539  12.859  13.351   5.280
50214SOL    HW252540  12.849  13.494   5.231
50215SOL     OW52541  13.045   9.073   5.385
50215SOL    HW152542  13.122   9.129   5.375
50215SOL    HW252543  13.074   8.986   5.356
50216SOL     OW52544   7.277   3.745  14.360
50216SOL    HW152545   7.277   3.797  14.280
50216SOL    HW252546   7.352   3.686  14.350
50217SOL     OW52547   8.682   9.373  14.033
50217SOL    HW152548   8.644   9.403  13.950
50217SOL    HW252549   8.665   9.278  14.034
50218SOL     OW52550   9.008  14.729   5.987
50218SOL    HW152551   8.921  14.768   5.979
50218SOL    HW252552   8.994  14.646   6.033
50219SOL     OW52553   5.213   8.343   4.492
50219SOL    HW152554   5.259   8.265   4.460
50219SOL    HW252555   5.242   8.353   4.582
50220SOL     OW52556   5.985  13.963   9.382
50220SOL    HW152557   5.901  13.918   9.384
50220SOL    HW252558   5.972  14.041   9.436
50221SOL     OW52559  10.021   6.708   7.939
50221SOL    HW152560   9.959   6.644   7.905
50221SOL    HW252561   9.972   6.756   8.007
50222SOL     OW52562  12.884  14.034   7.025
50222SOL    HW152563  12.818  13.995   7.082
50222SOL    HW252564  12.967  14.001   7.060
50223SOL     OW52565   9.200   9.680  12.561
50223SOL    HW152566   9.224   9.648  12.648
50223SOL    HW252567   9.277   9.663  12.507
50224SOL     OW52568   0.144   8.360   1.848
50224SOL    HW152569   0.209   8.297   1.818
50224SOL    HW252570   0.179   8.391   1.932
50225SOL     OW52571   3.712   0.011   0.403
50225SOL    HW152572   3.695   0.103   0.426
50225SOL    HW252573   3.625  14.863   0.383
50226SOL     OW52574  14.817   9.851   8.140
50226SOL    HW152575  14.806   9.825   8.231
50226SOL    HW252576   0.016   9.818   8.115
50227SOL     OW52577   1.972   8.937   1.784
50227SOL    HW152578   1.884   8.933   1.746
50227SOL    HW252579   1.969   8.874   1.857
50228SOL     OW52580  12.888   7.809  13.860
50228SOL    HW152581  12.957   7.812  13.793
50228SOL    HW252582  12.920   7.746  13.925
50229SOL     OW52583   4.139   4.832   0.748
50229SOL    HW152584   4.062   4.889   0.750
50229SOL    HW252585   4.103   4.744   0.735
50230SOL     OW52586  14.448   4.935   0.285
50230SOL    HW152587  14.387   4.911   0.355
50230SOL    HW252588  14.485   5.018   0.313
50231SOL     OW52589  12.708   3.606   2.708
50231SOL    HW152590  12.793   3.599   2.664
50231SOL    HW252591  12.647   3.561   2.651
50232SOL     OW52592   6.628   4.823   8.190
50232SOL    HW152593   6.697   4.836   8.124
50232SOL    HW252594   6.662   4.865   8.269
50233SOL     OW52595   4.087  11.040   0.542
50233SOL    HW152596   4.015  11.062   0.483
50233SOL    HW252597   4.146  10.988   0.489
50234SOL     OW52598  12.881   2.054  12.957
50234SOL    HW152599  12.921   1.982  13.006
50234SOL    HW252600  12.820   2.011  12.897
50235SOL     OW52601   1.925   1.672   3.680
50235SOL    HW152602   2.005   1.716   3.709
50235SOL    HW252603   1.927   1.587   3.724
50236SOL     OW52604   4.327  13.633   2.370
50236SOL    HW152605   4.333  13.612   2.463
50236SOL    HW252606   4.239  13.667   2.358
50237SOL     OW52607   9.508  10.550   6.018
50237SOL    HW152608   9.545  10.467   6.049
50237SOL    HW252609   9.472  10.529   5.931
50238SOL     OW52610   5.978  10.683  11.441
50238SOL    HW152611   6.000  10.605  11.493
50238SOL    HW252612   6.063  10.714  11.408
50239SOL     OW52613   2.930   1.516   5.244
50239SOL    HW152614   2.946   1.491   5.153
50239SOL    HW252615   2.837   1.541   5.245
50240SOL     OW52616   3.765   9.811   2.328
50240SOL    HW152617   3.705   9.759   2.275
50240SOL    HW252618   3.801   9.875   2.268
50241SOL     OW52619  10.791  14.054   8.198
50241SOL    HW152620  10.862  14.020   8.144
50241SOL    HW252621  10.776  14.143   8.165
50242SOL     OW52622   3.929  10.416   3.724
50242SOL    HW152623   3.839  10.423   3.756
50242SOL    HW252624   3.972  10.495   3.757
50243SOL     OW52625   0.364   5.508   2.240
50243SOL    HW152626   0.290   5.564   2.264
50243SOL    HW252627   0.332   5.457   2.166
50244SOL     OW52628   6.842   8.988   7.658
50244SOL    HW152629   6.769   8.934   7.628
50244SOL    HW252630   6.920   8.944   7.625
50245SOL     OW52631   4.910   0.504   3.107
50245SOL    HW152632   4.888   0.546   3.024
50245SOL    HW252633   4.867   0.558   3.174
50246SOL     OW52634  12.378   3.879   3.330
50246SOL    HW152635  12.328   3.952   3.365
50246SOL    HW252636  12.444   3.860   3.396
50247SOL     OW52637   9.117   8.429   8.553
50247SOL    HW152638   9.122   8.440   8.648
50247SOL    HW252639   9.179   8.493   8.518
50248SOL     OW52640  14.551   4.469  13.190
50248SOL    HW152641  14.508   4.384  13.183
50248SOL    HW252642  14.636   4.450  13.228
50249SOL     OW52643  14.360   1.477   1.310
50249SOL    HW152644  14.290   1.439   1.257
50249SOL    HW252645  14.328   1.472   1.400
50250SOL     OW52646   8.532   0.291   6.038
50250SOL    HW152647   8.552   0.366   6.093
50250SOL    HW252648   8.448   0.258   6.071
50251SOL     OW52649  10.113  12.754   6.528
50251SOL    HW152650  10.051  12.822   6.501
50251SOL    HW252651  10.195  12.777   6.483
50252SOL     OW52652   5.913   6.215   6.131
50252SOL    HW152653   6.009   6.214   6.136
50252SOL    HW252654   5.886   6.139   6.182
50253SOL     OW52655   6.121   4.974   9.045
50253SOL    HW152656   6.151   5.062   9.068
50253SOL    HW252657   6.140   4.921   9.122
50254SOL     OW52658  12.339   3.049   3.541
50254SOL    HW152659  12.335   3.033   3.447
50254SOL    HW252660  12.430   3.029   3.564
50255SOL     OW52661  11.343   9.263   1.387
50255SOL    HW152662  11.404   9.200   1.426
50255SOL    HW252663  11.261   9.250   1.435
50256SOL     OW52664   8.627   0.131  13.809
50256SOL    HW152665   8.618   0.107  13.717
50256SOL    HW252666   8.540   0.116  13.846
50257SOL     OW52667  10.429   1.092   5.113
50257SOL    HW152668  10.358   1.052   5.161
50257SOL    HW252669  10.398   1.096   5.022
50258SOL     OW52670  12.945   7.121   8.820
50258SOL    HW152671  12.859   7.111   8.860
50258SOL    HW252672  12.931   7.102   8.727
50259SOL     OW52673   7.448  10.163   7.864
50259SOL    HW152674   7.435  10.071   7.886
50259SOL    HW252675   7.433  10.210   7.947
50260SOL     OW52676   9.705  14.218   4.854
50260SOL    HW152677   9.748  14.212   4.769
50260SOL    HW252678   9.631  14.277   4.840
50261SOL     OW52679  11.612   8.152   8.282
50261SOL    HW152680  11.633   8.158   8.375
50261SOL    HW252681  11.602   8.058   8.266
50262SOL     OW52682   9.095   0.321   1.551
50262SOL    HW152683   9.015   0.373   1.551
50262SOL    HW252684   9.154   0.367   1.611
50263SOL     OW52685  10.386  10.783   6.272
50263SOL    HW152686  10.342  10.858   6.314
50263SOL    HW252687  10.355  10.785   6.181
50264SOL     OW52688   4.458   9.692  11.043
50264SOL    HW152689   4.513   9.751  11.095
50264SOL    HW252690   4.374   9.691  11.089
50265SOL     OW52691   1.509   1.065   4.252
50265SOL    HW152692   1.584   1.097   4.201
50265SOL    HW252693   1.548   1.025   4.329
50266SOL     OW52694  11.331  10.438   1.728
50266SOL    HW152695  11.390  10.399   1.663
50266SOL    HW252696  11.382  10.508   1.767
50267SOL     OW52697   7.889   7.982  11.174
50267SOL    HW152698   7.817   7.945  11.122
50267SOL    HW252699   7.967   7.965  11.121
50268SOL     OW52700   3.403   6.927   5.566
50268SOL    HW152701   3.447   6.843   5.580
50268SOL    HW252702   3.450   6.989   5.622
50269SOL     OW52703   5.326  11.175  10.347
50269SOL    HW152704   5.250  11.133  10.307
50269SOL    HW252705   5.323  11.148  10.439
50270SOL     OW52706   0.361   5.580   4.759
50270SOL    HW152707   0.293   5.613   4.700
50270SOL    HW252708   0.412   5.658   4.782
50271SOL     OW52709  12.456   7.048  12.771
50271SOL    HW152710  12.452   7.144  12.770
50271SOL    HW252711  12.439   7.022  12.681
50272SOL     OW52712   7.510   5.246  13.699
50272SOL    HW152713   7.548   5.171  13.652
50272SOL    HW252714   7.532   5.230  13.791
50273SOL     OW52715  10.800   1.747   9.471
50273SOL    HW152716  10.872   1.807   9.456
50273SOL    HW252717  10.733   1.800   9.515
50274SOL     OW52718  12.190   1.175   9.179
50274SOL    HW152719  12.134   1.143   9.108
50274SOL    HW252720  12.256   1.107   9.191
50275SOL     OW52721   3.744  12.276   1.636
50275SOL    HW152722   3.777  12.243   1.553
50275SOL    HW252723   3.767  12.208   1.700
50276SOL     OW52724   9.374  13.978  11.680
50276SOL    HW152725   9.345  14.069  11.674
50276SOL    HW252726   9.293  13.928  11.691
50277SOL     OW52727   9.107  11.493   9.496
50277SOL    HW152728   9.169  11.538   9.439
50277SOL    HW252729   9.117  11.400   9.474
50278SOL     OW52730  13.874   3.397   5.961
50278SOL    HW152731  13.925   3.327   6.002
50278SOL    HW252732  13.783   3.366   5.965
50279SOL     OW52733   1.225   8.064   7.901
50279SOL    HW152734   1.309   8.104   7.880
50279SOL    HW252735   1.171   8.080   7.824
50280SOL     OW52736   6.752  10.702  13.106
50280SOL    HW152737   6.750  10.716  13.201
50280SOL    HW252738   6.843  10.678  13.088
50281SOL     OW52739   4.365   0.014   1.240
50281SOL    HW152740   4.297  14.873   1.179
50281SOL    HW252741   4.435   0.048   1.184
50282SOL     OW52742   0.395   6.185  10.583
50282SOL    HW152743   0.369   6.244  10.654
50282SOL    HW252744   0.316   6.174  10.531
50283SOL     OW52745   7.070   0.221  14.017
50283SOL    HW152746   7.010   0.147  14.024
50283SOL    HW252747   7.047   0.279  14.090
50284SOL     OW52748   6.395  14.065   4.416
50284SOL    HW152749   6.301  14.059   4.432
50284SOL    HW252750   6.427  13.975   4.429
50285SOL     OW52751   7.585  11.749   7.330
50285SOL    HW152752   7.646  11.742   7.403
50285SOL    HW252753   7.636  11.790   7.260
50286SOL     OW52754   2.870  12.497   5.106
50286SOL    HW152755   2.813  12.572   5.122
50286SOL    HW252756   2.939  12.531   5.050
50287SOL     OW52757   5.401   5.303   3.645
50287SOL    HW152758   5.342   5.378   3.643
50287SOL    HW252759   5.439   5.305   3.733
50288SOL     OW52760   3.424  14.847   5.808
50288SOL    HW152761   3.366  14.773   5.789
50288SOL    HW252762   3.380   0.006   5.880
50289SOL     OW52763   3.495   7.782   0.993
50289SOL    HW152764   3.556   7.809   0.924
50289SOL    HW252765   3.409   7.811   0.963
50290SOL     OW52766  12.674   8.421   0.111
50290SOL    HW152767  12.763   8.412   0.080
50290SOL    HW252768  12.629   8.343   0.078
50291SOL     OW52769   6.936   5.971  12.516
50291SOL    HW152770   7.018   5.934  12.548
50291SOL    HW252771   6.941   6.064  12.537
50292SOL     OW52772   0.451  14.836  14.306
50292SOL    HW152773   0.479  14.746  14.287
50292SOL    HW252774   0.460  14.845  14.401
50293SOL     OW52775  12.513  11.976   7.590
50293SOL    HW152776  12.468  12.049   7.632
50293SOL    HW252777  12.444  11.912   7.571
50294SOL     OW52778  13.735   6.981  11.904
50294SOL    HW152779  13.660   6.935  11.865
50294SOL    HW252780  13.696   7.040  11.969
50295SOL     OW52781  12.359   2.637   5.581
50295SOL    HW152782  12.287   2.634   5.517
50295SOL    HW252783  12.336   2.710   5.639
50296SOL     OW52784   2.247   7.469  13.457
50296SOL    HW152785   2.328   7.468  13.508
50296SOL    HW252786   2.251   7.390  13.404
50297SOL     OW52787  14.424  12.576  14.684
50297SOL    HW152788  14.407  12.482  14.683
50297SOL    HW252789  14.363  12.610  14.750
50298SOL     OW52790   8.778   2.859   6.524
50298SOL    HW152791   8.788   2.952   6.500
50298SOL    HW252792   8.827   2.850   6.606
50299SOL     OW52793   1.257   2.204   1.304
50299SOL    HW152794   1.242   2.130   1.363
50299SOL    HW252795   1.348   2.230   1.322
50300SOL     OW52796  14.594   8.959  12.680
50300SOL    HW152797  14.541   8.889  12.717
50300SOL    HW252798  14.538   9.037  12.686
50301SOL     OW52799   8.960   0.300  10.805
50301SOL    HW152800   9.054   0.314  10.809
50301SOL    HW252801   8.931   0.303  10.897
50302SOL     OW52802  11.272   1.433   9.952
50302SOL    HW152803  11.247   1.348   9.990
50302SOL    HW252804  11.192   1.485   9.958
50303SOL     OW52805   2.657  12.713   2.921
50303SOL    HW152806   2.642  12.751   3.008
50303SOL    HW252807   2.600  12.763   2.863
50304SOL     OW52808  10.404  14.672   2.385
50304SOL    HW152809  10.345  14.653   2.458
50304SOL    HW252810  10.365  14.748   2.341
50305SOL     OW52811   2.777   5.730  11.915
50305SOL    HW152812   2.733   5.814  11.905
50305SOL    HW252813   2.708   5.665  11.899
50306SOL     OW52814   0.921   5.073   9.067
50306SOL    HW152815   0.832   5.071   9.103
50306SOL    HW252816   0.910   5.047   8.975
50307SOL     OW52817  13.114   3.973  12.197
50307SOL    HW152818  13.179   4.006  12.135
50307SOL    HW252819  13.162   3.914  12.254
50308SOL     OW52820   3.186   5.895   7.782
50308SOL    HW152821   3.198   5.927   7.693
50308SOL    HW252822   3.162   5.972   7.833
50309SOL     OW52823   4.537   9.678  12.301
50309SOL    HW152824   4.450   9.698  12.334
50309SOL    HW252825   4.597   9.719  12.364
50310SOL     OW52826   9.400  10.856   4.362
50310SOL    HW152827   9.346  10.928   4.393
50310SOL    HW252828   9.445  10.824   4.440
50311SOL     OW52829   4.067  12.883   3.305
50311SOL    HW152830   3.985  12.835   3.295
50311SOL    HW252831   4.078  12.929   3.222
50312SOL     OW52832   8.974  11.180   8.611
50312SOL    HW152833   8.997  11.129   8.534
50312SOL    HW252834   9.020  11.263   8.599
50313SOL     OW52835   0.958   4.589  13.035
50313SOL    HW152836   1.017   4.604  12.961
50313SOL    HW252837   0.889   4.654  13.024
50314SOL     OW52838  10.026  12.981  14.459
50314SOL    HW152839  10.007  13.020  14.374
50314SOL    HW252840  10.118  13.003  14.475
50315SOL     OW52841  14.161  12.727  14.467
50315SOL    HW152842  14.103  12.664  14.423
50315SOL    HW252843  14.249  12.691  14.454
50316SOL     OW52844   0.322   0.961   6.927
50316SOL    HW152845   0.405   0.914   6.915
50316SOL    HW252846   0.347   1.047   6.960
50317SOL     OW52847   1.137   5.631  10.188
50317SOL    HW152848   1.201   5.561  10.185
50317SOL    HW252849   1.052   5.587  10.194
50318SOL     OW52850  14.238   7.545   3.603
50318SOL    HW152851  14.264   7.578   3.516
50318SOL    HW252852  14.160   7.595   3.625
50319SOL     OW52853  12.953   4.437  13.684
50319SOL    HW152854  12.935   4.416  13.776
50319SOL    HW252855  12.988   4.526  13.687
50320SOL     OW52856  12.434   9.633   4.559
50320SOL    HW152857  12.456   9.542   4.579
50320SOL    HW252858  12.387   9.628   4.475
50321SOL     OW52859   8.250   2.863   3.901
50321SOL    HW152860   8.168   2.852   3.854
50321SOL    HW252861   8.253   2.956   3.923
50322SOL     OW52862   9.961   2.030   9.036
50322SOL    HW152863  10.032   2.037   9.100
50322SOL    HW252864   9.995   2.074   8.957
50323SOL     OW52865   3.844  10.086   4.358
50323SOL    HW152866   3.853  10.038   4.440
50323SOL    HW252867   3.749  10.090   4.343
50324SOL     OW52868  10.553   1.753   7.803
50324SOL    HW152869  10.566   1.664   7.836
50324SOL    HW252870  10.463   1.774   7.828
50325SOL     OW52871   1.326   9.452  13.615
50325SOL    HW152872   1.283   9.519  13.562
50325SOL    HW252873   1.328   9.489  13.704
50326SOL     OW52874  10.222   8.404   4.712
50326SOL    HW152875  10.160   8.478   4.706
50326SOL    HW252876  10.222   8.380   4.805
50327SOL     OW52877  10.888   4.209  11.424
50327SOL    HW152878  10.955   4.275  11.440
50327SOL    HW252879  10.887   4.197  11.329
50328SOL     OW52880  14.028  11.801   1.802
50328SOL    HW152881  14.103  11.859   1.793
50328SOL    HW252882  13.964  11.851   1.853
50329SOL     OW52883  14.708   9.288  14.724
50329SOL    HW152884  14.746   9.279  14.637
50329SOL    HW252885  14.617   9.312  14.709
50330SOL     OW52886  10.873   6.694  13.200
50330SOL    HW152887  10.820   6.746  13.260
50330SOL    HW252888  10.954   6.745  13.189
50331SOL     OW52889   9.126   4.994   2.126
50331SOL    HW152890   9.198   4.979   2.064
50331SOL    HW252891   9.087   4.908   2.139
50332SOL     OW52892   0.487   7.357   7.356
50332SOL    HW152893   0.501   7.447   7.385
50332SOL    HW252894   0.467   7.308   7.436
50333SOL     OW52895   7.824   3.519   7.482
50333SOL    HW152896   7.915   3.487   7.484
50333SOL    HW252897   7.774   3.451   7.527
50334SOL     OW52898   0.997   8.182   9.592
50334SOL    HW152899   0.940   8.165   9.516
50334SOL    HW252900   0.936   8.191   9.665
50335SOL     OW52901   8.234   1.007   2.816
50335SOL    HW152902   8.227   0.917   2.847
50335SOL    HW252903   8.320   1.036   2.845
50336SOL     OW52904   5.721   3.039   9.310
50336SOL    HW152905   5.772   3.102   9.260
50336SOL    HW252906   5.631   3.071   9.305
50337SOL     OW52907  13.836   1.237  13.154
50337SOL    HW152908  13.931   1.230  13.166
50337SOL    HW252909  13.825   1.254  13.060
50338SOL     OW52910   7.612  14.046   0.138
50338SOL    HW152911   7.622  14.098   0.058
50338SOL    HW252912   7.645  14.102   0.208
50339SOL     OW52913  13.888   9.995   2.535
50339SOL    HW152914  13.833  10.052   2.588
50339SOL    HW252915  13.945   9.950   2.598
50340SOL     OW52916  13.630   2.947   3.205
50340SOL    HW152917  13.580   2.957   3.123
50340SOL    HW252918  13.615   2.857   3.231
50341SOL     OW52919   2.502   5.319   1.881
50341SOL    HW152920   2.589   5.304   1.844
50341SOL    HW252921   2.519   5.346   1.971
50342SOL     OW52922  10.624  11.339   1.720
50342SOL    HW152923  10.629  11.311   1.811
50342SOL    HW252924  10.579  11.267   1.676
50343SOL     OW52925   7.069   5.637  11.055
50343SOL    HW152926   7.113   5.576  11.115
50343SOL    HW252927   7.052   5.715  11.109
50344SOL     OW52928   9.691  10.932   1.858
50344SOL    HW152929   9.601  10.914   1.833
50344SOL    HW252930   9.743  10.868   1.810
50345SOL     OW52931   6.659   8.510   1.540
50345SOL    HW152932   6.668   8.547   1.452
50345SOL    HW252933   6.724   8.557   1.593
50346SOL     OW52934  14.209  14.617   2.942
50346SOL    HW152935  14.234  14.704   2.971
50346SOL    HW252936  14.120  14.605   2.976
50347SOL     OW52937  11.743   9.336  11.151
50347SOL    HW152938  11.807   9.266  11.143
50347SOL    HW252939  11.756   9.390  11.073
50348SOL     OW52940  14.291   9.148   7.627
50348SOL    HW152941  14.279   9.053   7.625
50348SOL    HW252942  14.224   9.180   7.687
50349SOL     OW52943   2.052  14.644   7.943
50349SOL    HW152944   2.081  14.575   8.002
50349SOL    HW252945   1.997  14.600   7.879
50350SOL     OW52946   6.944   3.547   9.662
50350SOL    HW152947   6.897   3.466   9.641
50350SOL    HW252948   7.034   3.520   9.676
50351SOL     OW52949   6.816   1.773  10.586
50351SOL    HW152950   6.723   1.749  10.589
50351SOL    HW252951   6.820   1.849  10.528
50352SOL     OW52952   8.332   7.569   0.081
50352SOL    HW152953   8.331   7.495   0.142
50352SOL    HW252954   8.332   7.647   0.137
50353SOL     OW52955   7.898  14.075  11.169
50353SOL    HW152956   7.922  14.082  11.261
50353SOL    HW252957   7.806  14.101  11.165
50354SOL     OW52958   0.225  12.752  10.837
50354SOL    HW152959   0.220  12.711  10.751
50354SOL    HW252960   0.280  12.693  10.889
50355SOL     OW52961  14.611  10.741   6.446
50355SOL    HW152962  14.526  10.726   6.488
50355SOL    HW252963  14.633  10.832   6.469
50356SOL     OW52964   1.509  10.036  13.200
50356SOL    HW152965   1.561   9.977  13.146
50356SOL    HW252966   1.426   9.991  13.212
50357SOL     OW52967   0.172  13.844   3.983
50357SOL    HW152968   0.267  13.841   3.980
50357SOL    HW252969   0.150  13.833   4.075
50358SOL     OW52970   4.790   9.737   5.235
50358SOL    HW152971   4.848   9.808   5.261
50358SOL    HW252972   4.836   9.657   5.261
50359SOL     OW52973   8.532   5.342   5.348
50359SOL    HW152974   8.571   5.258   5.372
50359SOL    HW252975   8.583   5.407   5.397
50360SOL     OW52976  11.275  13.099   9.255
50360SOL    HW152977  11.291  13.076   9.164
50360SOL    HW252978  11.212  13.172   9.250
50361SOL     OW52979  11.245   4.196   1.095
50361SOL    HW152980  11.179   4.136   1.059
50361SOL    HW252981  11.327   4.148   1.087
50362SOL     OW52982   1.619   6.493   4.226
50362SOL    HW152983   1.628   6.418   4.285
50362SOL    HW252984   1.527   6.492   4.200
50363SOL     OW52985   6.612  11.495  11.371
50363SOL    HW152986   6.586  11.523  11.459
50363SOL    HW252987   6.545  11.531  11.313
50364SOL     OW52988   7.987  12.123   6.442
50364SOL    HW152989   8.011  12.166   6.524
50364SOL    HW252990   8.003  12.030   6.458
50365SOL     OW52991   6.532  13.327   3.286
50365SOL    HW152992   6.531  13.414   3.326
50365SOL    HW252993   6.616  13.322   3.240
50366SOL     OW52994  14.491  11.776  11.255
50366SOL    HW152995  14.507  11.850  11.314
50366SOL    HW252996  14.410  11.798  11.210
50367SOL     OW52997   2.597   2.160  12.874
50367SOL    HW152998   2.591   2.181  12.967
50367SOL    HW252999   2.686   2.182  12.849
50368SOL     OW53000  14.053  12.187   4.016
50368SOL    HW153001  14.123  12.218   3.958
50368SOL    HW253002  14.042  12.094   3.993
50369SOL     OW53003  14.732  13.032  12.039
50369SOL    HW153004  14.789  13.069  11.972
50369SOL    HW253005  14.699  13.108  12.087
50370SOL     OW53006  13.524   1.425   3.346
50370SOL    HW153007  13.497   1.487   3.414
50370SOL    HW253008  13.603   1.464   3.309
50371SOL     OW53009  11.162   6.222  14.426
50371SOL    HW153010  11.206   6.229  14.341
50371SOL    HW253011  11.138   6.130  14.434
50372SOL     OW53012  10.438   0.961  11.886
50372SOL    HW153013  10.532   0.976  11.875
50372SOL    HW253014  10.430   0.926  11.975
50373SOL     OW53015  13.917   9.971  13.471
50373SOL    HW153016  13.992  10.013  13.512
50373SOL    HW253017  13.841  10.008  13.516
50374SOL     OW53018   2.954   5.429  13.944
50374SOL    HW153019   2.880   5.399  13.891
50374SOL    HW253020   2.930   5.407  14.034
50375SOL     OW53021   8.055   6.521   4.004
50375SOL    HW153022   7.966   6.556   4.006
50375SOL    HW253023   8.111   6.597   3.993
50376SOL     OW53024   1.117   4.576  12.435
50376SOL    HW153025   1.180   4.505  12.448
50376SOL    HW253026   1.033   4.532  12.427
50377SOL     OW53027  11.184   6.881  14.489
50377SOL    HW153028  11.101   6.870  14.534
50377SOL    HW253029  11.238   6.934  14.548
50378SOL     OW53030   6.550  14.616   6.302
50378SOL    HW153031   6.502  14.535   6.283
50378SOL    HW253032   6.545  14.666   6.221
50379SOL     OW53033   0.657   4.707  13.991
50379SOL    HW153034   0.595   4.675  13.925
50379SOL    HW253035   0.740   4.714  13.943
50380SOL     OW53036   7.178  13.539   5.284
50380SOL    HW153037   7.205  13.457   5.243
50380SOL    HW253038   7.123  13.512   5.357
50381SOL     OW53039   8.919   5.004   3.083
50381SOL    HW153040   8.857   5.074   3.066
50381SOL    HW253041   8.892   4.968   3.168
50382SOL     OW53042  14.850   0.017   3.939
50382SOL    HW153043   0.002   0.071   3.871
50382SOL    HW253044  14.805   0.079   3.996
50383SOL     OW53045   8.929   3.864   3.969
50383SOL    HW153046   8.845   3.851   3.925
50383SOL    HW253047   8.939   3.959   3.975
50384SOL     OW53048   8.621  13.941   5.662
50384SOL    HW153049   8.686  13.965   5.596
50384SOL    HW253050   8.541  13.986   5.633
50385SOL     OW53051   2.371   9.295  11.983
50385SOL    HW153052   2.338   9.242  12.055
50385SOL    HW253053   2.372   9.384  12.019
50386SOL     OW53054  10.414  13.091   0.223
50386SOL    HW153055  10.461  13.008   0.209
50386SOL    HW253056  10.361  13.074   0.301
50387SOL     OW53057   5.998  12.917   9.077
50387SOL    HW153058   6.041  12.847   9.127
50387SOL    HW253059   6.000  12.993   9.136
50388SOL     OW53060  12.920  14.389  13.544
50388SOL    HW153061  12.849  14.328  13.527
50388SOL    HW253062  12.926  14.393  13.640
50389SOL     OW53063  12.135  14.423   5.511
50389SOL    HW153064  12.076  14.349   5.526
50389SOL    HW253065  12.110  14.457   5.425
50390SOL     OW53066   0.418   3.402  10.405
50390SOL    HW153067   0.433   3.309  10.389
50390SOL    HW253068   0.415   3.442  10.318
50391SOL     OW53069   1.429   3.069  10.703
50391SOL    HW153070   1.467   3.156  10.695
50391SOL    HW253071   1.488   3.012  10.654
50392SOL     OW53072  12.513  12.723  13.316
50392SOL    HW153073  12.443  12.788  13.323
50392SOL    HW253074  12.542  12.709  13.406
50393SOL     OW53075  12.339   5.848  10.699
50393SOL    HW153076  12.377   5.929  10.666
50393SOL    HW253077  12.252   5.873  10.731
50394SOL     OW53078  12.728   6.373   4.527
50394SOL    HW153079  12.655   6.369   4.464
50394SOL    HW253080  12.806   6.379   4.472
50395SOL     OW53081   3.614   5.211  14.628
50395SOL    HW153082   3.647   5.152  14.560
50395SOL    HW253083   3.653   5.179  14.709
50396SOL     OW53084   6.467   7.254   0.709
50396SOL    HW153085   6.406   7.220   0.643
50396SOL    HW253086   6.448   7.203   0.788
50397SOL     OW53087   9.849   6.291   3.470
50397SOL    HW153088   9.885   6.216   3.517
50397SOL    HW253089   9.896   6.291   3.386
50398SOL     OW53090   9.660   1.406  12.033
50398SOL    HW153091   9.578   1.450  12.053
50398SOL    HW253092   9.724   1.477  12.027
50399SOL     OW53093  14.735  11.882  13.543
50399SOL    HW153094  14.763  11.969  13.515
50399SOL    HW253095  14.681  11.850  13.471
50400SOL     OW53096   6.822   9.875   0.142
50400SOL    HW153097   6.892   9.831   0.189
50400SOL    HW253098   6.746   9.866   0.199
50401SOL     OW53099   1.723   8.144   3.167
50401SOL    HW153100   1.698   8.062   3.125
50401SOL    HW253101   1.766   8.116   3.248
50402SOL     OW53102   1.815   2.749  14.276
50402SOL    HW153103   1.884   2.754  14.210
50402SOL    HW253104   1.847   2.802  14.349
50403SOL     OW53105   9.637   2.446  13.958
50403SOL    HW153106   9.695   2.504  14.008
50403SOL    HW253107   9.602   2.502  13.888
50404SOL     OW53108   4.510   5.141  14.785
50404SOL    HW153109   4.517   5.048  14.807
50404SOL    HW253110   4.598   5.165  14.756
50405SOL     OW53111  12.941   0.286  14.481
50405SOL    HW153112  12.881   0.361  14.487
50405SOL    HW253113  13.014   0.309  14.538
50406SOL     OW53114   8.784   1.597  11.231
50406SOL    HW153115   8.773   1.668  11.294
50406SOL    HW253116   8.821   1.525  11.282
50407SOL     OW53117   6.040   5.855  13.703
50407SOL    HW153118   6.065   5.888  13.789
50407SOL    HW253119   5.970   5.914  13.675
50408SOL     OW53120   2.302   2.249   5.767
50408SOL    HW153121   2.322   2.236   5.674
50408SOL    HW253122   2.209   2.271   5.768
50409SOL     OW53123   4.196   7.767  14.504
50409SOL    HW153124   4.227   7.813  14.425
50409SOL    HW253125   4.108   7.800  14.518
50410SOL     OW53126  12.605  10.482   7.408
50410SOL    HW153127  12.611  10.413   7.342
50410SOL    HW253128  12.687  10.531   7.400
50411SOL     OW53129   6.499  12.005   0.918
50411SOL    HW153130   6.550  12.081   0.890
50411SOL    HW253131   6.492  12.015   1.013
50412SOL     OW53132  11.291  10.467  10.402
50412SOL    HW153133  11.383  10.454  10.424
50412SOL    HW253134  11.272  10.557  10.431
50413SOL     OW53135   0.499  11.523  14.451
50413SOL    HW153136   0.504  11.497  14.543
50413SOL    HW253137   0.560  11.463  14.406
50414SOL     OW53138   5.915   9.544   4.483
50414SOL    HW153139   5.960   9.463   4.461
50414SOL    HW253140   5.985   9.603   4.511
50415SOL     OW53141   5.446   2.636   7.820
50415SOL    HW153142   5.392   2.588   7.884
50415SOL    HW253143   5.461   2.573   7.750
50416SOL     OW53144   1.575   8.329   6.162
50416SOL    HW153145   1.640   8.322   6.093
50416SOL    HW253146   1.491   8.317   6.118
50417SOL     OW53147   2.804   3.507   8.482
50417SOL    HW153148   2.851   3.509   8.399
50417SOL    HW253149   2.721   3.552   8.463
50418SOL     OW53150   8.906   4.629   0.052
50418SOL    HW153151   8.935   4.601   0.138
50418SOL    HW253152   8.899   4.724   0.059
50419SOL     OW53153   0.023   7.985   4.035
50419SOL    HW153154   0.110   8.023   4.020
50419SOL    HW253155   0.015   7.918   3.967
50420SOL     OW53156  11.790   0.987   1.779
50420SOL    HW153157  11.771   0.903   1.820
50420SOL    HW253158  11.809   0.965   1.688
50421SOL     OW53159   4.127   7.414   6.934
50421SOL    HW153160   4.173   7.498   6.939
50421SOL    HW253161   4.145   7.382   6.846
50422SOL     OW53162   2.541   1.513   6.965
50422SOL    HW153163   2.624   1.490   7.007
50422SOL    HW253164   2.549   1.606   6.946
50423SOL     OW53165   9.328   9.975   6.166
50423SOL    HW153166   9.347   9.990   6.258
50423SOL    HW253167   9.360  10.053   6.121
50424SOL     OW53168   0.599   0.508   7.462
50424SOL    HW153169   0.682   0.491   7.418
50424SOL    HW253170   0.616   0.491   7.555
50425SOL     OW53171   0.318   0.609  14.025
50425SOL    HW153172   0.351   0.609  14.115
50425SOL    HW253173   0.224   0.623  14.034
50426SOL     OW53174   8.943   9.380  10.907
50426SOL    HW153175   8.866   9.345  10.951
50426SOL    HW253176   9.009   9.386  10.976
50427SOL     OW53177   5.764  10.419   0.201
50427SOL    HW153178   5.791  10.455   0.116
50427SOL    HW253179   5.820  10.343   0.214
50428SOL     OW53180  11.446  14.669   8.942
50428SOL    HW153181  11.366  14.708   8.906
50428SOL    HW253182  11.463  14.720   9.021
50429SOL     OW53183   7.248   1.285  13.815
50429SOL    HW153184   7.177   1.248  13.868
50429SOL    HW253185   7.313   1.315  13.879
50430SOL     OW53186  10.264  14.098  12.889
50430SOL    HW153187  10.258  14.019  12.944
50430SOL    HW253188  10.187  14.092  12.832
50431SOL     OW53189   5.969   7.653   3.158
50431SOL    HW153190   5.982   7.733   3.107
50431SOL    HW253191   6.004   7.673   3.244
50432SOL     OW53192   4.416   1.885  10.914
50432SOL    HW153193   4.345   1.936  10.877
50432SOL    HW253194   4.401   1.888  11.009
50433SOL     OW53195  12.537  10.345  12.294
50433SOL    HW153196  12.475  10.411  12.262
50433SOL    HW253197  12.539  10.279  12.225
50434SOL     OW53198   9.825  14.303  14.298
50434SOL    HW153199   9.842  14.327  14.207
50434SOL    HW253200   9.911  14.302  14.339
50435SOL     OW53201   6.112  10.666  14.368
50435SOL    HW153202   6.121  10.692  14.460
50435SOL    HW253203   6.164  10.731  14.320
50436SOL     OW53204  10.937   1.424  11.835
50436SOL    HW153205  10.911   1.333  11.851
50436SOL    HW253206  10.859   1.465  11.798
50437SOL     OW53207  10.496   9.254   8.059
50437SOL    HW153208  10.431   9.212   8.114
50437SOL    HW253209  10.485   9.213   7.973
50438SOL     OW53210   4.460  12.814  12.625
50438SOL    HW153211   4.416  12.776  12.701
50438SOL    HW253212   4.487  12.738  12.573
50439SOL     OW53213   8.400   4.561   0.122
50439SOL    HW153214   8.441   4.524   0.044
50439SOL    HW253215   8.336   4.495   0.150
50440SOL     OW53216   4.768  13.931   4.750
50440SOL    HW153217   4.760  13.981   4.832
50440SOL    HW253218   4.854  13.954   4.716
50441SOL     OW53219  12.117   1.241   1.983
50441SOL    HW153220  12.083   1.226   2.071
50441SOL    HW253221  12.177   1.314   1.993
50442SOL     OW53222  10.329   4.730  10.762
50442SOL    HW153223  10.351   4.640  10.784
50442SOL    HW253224  10.413   4.769  10.737
50443SOL     OW53225  11.332  12.350   8.187
50443SOL    HW153226  11.313  12.265   8.147
50443SOL    HW253227  11.261  12.362   8.251
50444SOL     OW53228   6.856   6.748   0.303
50444SOL    HW153229   6.887   6.660   0.325
50444SOL    HW253230   6.781   6.762   0.360
50445SOL     OW53231   4.107  11.325  10.797
50445SOL    HW153232   4.128  11.403  10.849
50445SOL    HW253233   4.182  11.268  10.809
50446SOL     OW53234   5.349   7.631   0.704
50446SOL    HW153235   5.390   7.674   0.629
50446SOL    HW253236   5.301   7.557   0.666
50447SOL     OW53237  12.865  10.214   5.368
50447SOL    HW153238  12.789  10.204   5.310
50447SOL    HW253239  12.929  10.150   5.336
50448SOL     OW53240   0.720   1.778   1.396
50448SOL    HW153241   0.791   1.772   1.460
50448SOL    HW253242   0.716   1.870   1.372
50449SOL     OW53243  11.644  12.755   4.657
50449SOL    HW153244  11.639  12.702   4.737
50449SOL    HW253245  11.555  12.753   4.622
50450SOL     OW53246   3.531   7.095   2.484
50450SOL    HW153247   3.501   7.175   2.528
50450SOL    HW253248   3.461   7.032   2.499
50451SOL     OW53249   7.443   1.228   1.578
50451SOL    HW153250   7.471   1.142   1.546
50451SOL    HW253251   7.459   1.287   1.504
50452SOL     OW53252  10.798  11.165   3.891
50452SOL    HW153253  10.804  11.258   3.913
50452SOL    HW253254  10.790  11.120   3.975
50453SOL     OW53255   2.267   6.892   9.838
50453SOL    HW153256   2.276   6.833   9.912
50453SOL    HW253257   2.204   6.849   9.780
50454SOL     OW53258   3.767  11.771  13.584
50454SOL    HW153259   3.846  11.785  13.531
50454SOL    HW253260   3.794  11.791  13.673
50455SOL     OW53261   5.662   7.815   7.137
50455SOL    HW153262   5.650   7.840   7.229
50455SOL    HW253263   5.684   7.898   7.093
50456SOL     OW53264   0.616   0.171  13.538
50456SOL    HW153265   0.537   0.140  13.495
50456SOL    HW253266   0.607   0.143  13.629
50457SOL     OW53267   7.321   7.921  12.303
50457SOL    HW153268   7.262   7.920  12.228
50457SOL    HW253269   7.341   8.013  12.317
50458SOL     OW53270   1.660   0.416   8.898
50458SOL    HW153271   1.647   0.386   8.808
50458SOL    HW253272   1.710   0.497   8.889
50459SOL     OW53273   5.326   0.054  12.448
50459SOL    HW153274   5.305   0.001  12.525
50459SOL    HW253275   5.241   0.071  12.406
50460SOL     OW53276  12.539   4.592  11.351
50460SOL    HW153277  12.495   4.589  11.436
50460SOL    HW253278  12.496   4.524  11.299
50461SOL     OW53279  10.003   4.288  10.405
50461SOL    HW153280  10.049   4.213  10.367
50461SOL    HW253281  10.068   4.358  10.408
50462SOL     OW53282   2.730   1.626   6.036
50462SOL    HW153283   2.636   1.613   6.048
50462SOL    HW253284   2.766   1.537   6.039
50463SOL     OW53285  11.937   5.765  13.906
50463SOL    HW153286  12.003   5.723  13.852
50463SOL    HW253287  11.859   5.769  13.850
50464SOL     OW53288   5.673  13.691   8.192
50464SOL    HW153289   5.634  13.619   8.141
50464SOL    HW253290   5.751  13.716   8.143
50465SOL     OW53291   7.237   4.291   5.947
50465SOL    HW153292   7.330   4.292   5.969
50465SOL    HW253293   7.211   4.383   5.951
50466SOL     OW53294   8.563   0.564   8.060
50466SOL    HW153295   8.593   0.600   7.977
50466SOL    HW253296   8.506   0.491   8.035
50467SOL     OW53297  11.580   2.558  11.380
50467SOL    HW153298  11.542   2.568  11.467
50467SOL    HW253299  11.506   2.570  11.320
50468SOL     OW53300   9.925   2.718   2.491
50468SOL    HW153301   9.917   2.760   2.406
50468SOL    HW253302   9.947   2.790   2.551
50469SOL     OW53303   4.038   3.894   5.383
50469SOL    HW153304   3.953   3.907   5.425
50469SOL    HW253305   4.028   3.932   5.295
50470SOL     OW53306  13.315   0.273   6.081
50470SOL    HW153307  13.324   0.338   6.150
50470SOL    HW253308  13.349   0.317   6.003
50471SOL     OW53309   5.873   8.696  14.493
50471SOL    HW153310   5.869   8.791  14.481
50471SOL    HW253311   5.878   8.684  14.588
50472SOL     OW53312   0.824  11.210   0.319
50472SOL    HW153313   0.839  11.192   0.412
50472SOL    HW253314   0.912  11.231   0.285
50473SOL     OW53315   0.679   4.239   0.954
50473SOL    HW153316   0.715   4.303   1.015
50473SOL    HW253317   0.610   4.194   1.003
50474SOL     OW53318   2.781  10.599   0.390
50474SOL    HW153319   2.876  10.607   0.395
50474SOL    HW253320   2.766  10.534   0.320
50475SOL     OW53321   5.082  13.953   6.271
50475SOL    HW153322   5.068  13.954   6.176
50475SOL    HW253323   5.129  13.871   6.287
50476SOL     OW53324  11.679   1.176   1.929
50476SOL    HW153325  11.729   1.186   2.010
50476SOL    HW253326  11.714   1.096   1.889
50477SOL     OW53327   2.953   8.544  12.139
50477SOL    HW153328   2.996   8.541  12.225
50477SOL    HW253329   2.996   8.476  12.088
50478SOL     OW53330   2.507  10.759   1.283
50478SOL    HW153331   2.529  10.690   1.220
50478SOL    HW253332   2.420  10.735   1.315
50479SOL     OW53333   4.772  12.946   5.298
50479SOL    HW153334   4.830  12.965   5.225
50479SOL    HW253335   4.685  12.969   5.266
50480SOL     OW53336   1.747   3.922  14.563
50480SOL    HW153337   1.708   3.848  14.516
50480SOL    HW253338   1.684   3.993  14.553
50481SOL     OW53339   9.162   5.139  11.942
50481SOL    HW153340   9.106   5.194  11.996
50481SOL    HW253341   9.133   5.050  11.961
50482SOL     OW53342   0.498   7.045   9.674
50482SOL    HW153343   0.418   7.071   9.719
50482SOL    HW253344   0.550   7.002   9.742
50483SOL     OW53345   7.049   1.374   1.479
50483SOL    HW153346   7.064   1.340   1.391
50483SOL    HW253347   7.024   1.297   1.530
50484SOL     OW53348  12.836   4.822   4.537
50484SOL    HW153349  12.757   4.796   4.583
50484SOL    HW253350  12.888   4.742   4.531
50485SOL     OW53351   3.055   4.877   0.357
50485SOL    HW153352   3.034   4.816   0.286
50485SOL    HW253353   2.999   4.849   0.430
50486SOL     OW53354   3.874   0.169   8.746
50486SOL    HW153355   3.966   0.146   8.736
50486SOL    HW253356   3.855   0.228   8.674
50487SOL     OW53357   1.289   4.991   9.999
50487SOL    HW153358   1.294   4.921   9.934
50487SOL    HW253359   1.195   4.998  10.020
50488SOL     OW53360   1.180   8.225  14.188
50488SOL    HW153361   1.249   8.190  14.244
50488SOL    HW253362   1.158   8.153  14.130
50489SOL     OW53363   9.410   4.832  13.581
50489SOL    HW153364   9.420   4.926  13.564
50489SOL    HW253365   9.479   4.791  13.529
50490SOL     OW53366  10.703   6.436   1.636
50490SOL    HW153367  10.755   6.516   1.631
50490SOL    HW253368  10.708   6.410   1.728
50491SOL     OW53369  11.907  12.266  11.745
50491SOL    HW153370  11.970  12.304  11.684
50491SOL    HW253371  11.956  12.255  11.827
50492SOL     OW53372  11.302   5.619   6.023
50492SOL    HW153373  11.296   5.703   6.069
50492SOL    HW253374  11.275   5.554   6.088
50493SOL     OW53375   6.605   1.027   2.037
50493SOL    HW153376   6.677   1.082   2.006
50493SOL    HW253377   6.527   1.080   2.024
50494SOL     OW53378   2.442   6.781  10.082
50494SOL    HW153379   2.438   6.704  10.139
50494SOL    HW253380   2.409   6.750   9.998
50495SOL     OW53381  13.418   2.408   0.701
50495SOL    HW153382  13.390   2.398   0.792
50495SOL    HW253383  13.427   2.319   0.669
50496SOL     OW53384   9.930   3.811   3.474
50496SOL    HW153385   9.931   3.890   3.528
50496SOL    HW253386   9.982   3.747   3.522
50497SOL     OW53387   7.339   7.485  14.623
50497SOL    HW153388   7.340   7.471  14.718
50497SOL    HW253389   7.347   7.397  14.586
50498SOL     OW53390   7.864   6.324   1.708
50498SOL    HW153391   7.770   6.328   1.724
50498SOL    HW253392   7.882   6.400   1.653
50499SOL     OW53393   7.609   2.487   6.933
50499SOL    HW153394   7.532   2.521   6.887
50499SOL    HW253395   7.617   2.544   7.010
50500SOL     OW53396   4.138   8.195   1.891
50500SOL    HW153397   4.157   8.234   1.976
50500SOL    HW253398   4.054   8.231   1.866
50501SOL     OW53399   7.049  11.458   9.226
50501SOL    HW153400   7.053  11.482   9.318
50501SOL    HW253401   7.138  11.428   9.205
50502SOL     OW53402   0.006   4.379   8.003
50502SOL    HW153403  14.799   4.387   7.995
50502SOL    HW253404   0.039   4.466   7.981
50503SOL     OW53405   3.655   6.593  11.739
50503SOL    HW153406   3.718   6.540  11.788
50503SOL    HW253407   3.584   6.609  11.802
50504SOL     OW53408   5.076   8.947   0.458
50504SOL    HW153409   5.145   8.985   0.404
50504SOL    HW253410   5.001   9.005   0.446
50505SOL     OW53411  12.545   7.535   4.461
50505SOL    HW153412  12.515   7.487   4.383
50505SOL    HW253413  12.588   7.613   4.427
50506SOL     OW53414   6.713   3.668   5.631
50506SOL    HW153415   6.674   3.750   5.601
50506SOL    HW253416   6.730   3.681   5.724
50507SOL     OW53417   7.284  14.200   9.227
50507SOL    HW153418   7.274  14.241   9.314
50507SOL    HW253419   7.374  14.168   9.226
50508SOL     OW53420   6.771  13.982  12.573
50508SOL    HW153421   6.834  14.023  12.632
50508SOL    HW253422   6.818  13.907  12.537
50509SOL     OW53423   8.637   3.634  10.998
50509SOL    HW153424   8.639   3.672  11.086
50509SOL    HW253425   8.717   3.666  10.956
50510SOL     OW53426   7.909   6.998   2.744
50510SOL    HW153427   7.936   6.934   2.810
50510SOL    HW253428   7.868   7.068   2.794
50511SOL     OW53429   2.517   9.008   2.222
50511SOL    HW153430   2.557   9.061   2.291
50511SOL    HW253431   2.465   8.942   2.269
50512SOL     OW53432  10.482  12.860   5.934
50512SOL    HW153433  10.527  12.848   6.017
50512SOL    HW253434  10.547  12.901   5.877
50513SOL     OW53435  14.639   7.653  13.167
50513SOL    HW153436  14.544   7.643  13.168
50513SOL    HW253437  14.671   7.587  13.228
50514SOL     OW53438   8.563   7.465  13.047
50514SOL    HW153439   8.505   7.396  13.014
50514SOL    HW253440   8.549   7.465  13.142
50515SOL     OW53441   9.459   2.785  10.723
50515SOL    HW153442   9.509   2.707  10.700
50515SOL    HW253443   9.409   2.806  10.644
50516SOL     OW53444  12.670  12.746  11.514
50516SOL    HW153445  12.644  12.665  11.556
50516SOL    HW253446  12.593  12.803  11.521
50517SOL     OW53447   7.443   8.199  11.241
50517SOL    HW153448   7.538   8.204  11.231
50517SOL    HW253449   7.420   8.110  11.212
50518SOL     OW53450  13.004  10.988   7.808
50518SOL    HW153451  13.060  11.066   7.802
50518SOL    HW253452  13.065  10.915   7.803
50519SOL     OW53453   3.994  10.099  13.514
50519SOL    HW153454   3.986  10.051  13.432
50519SOL    HW253455   4.051  10.173  13.493
50520SOL     OW53456   5.666   6.104   4.143
50520SOL    HW153457   5.735   6.052   4.185
50520SOL    HW253458   5.584   6.061   4.169
50521SOL     OW53459   5.465   2.078   0.163
50521SOL    HW153460   5.488   2.151   0.221
50521SOL    HW253461   5.483   2.000   0.214
50522SOL     OW53462  14.807   9.717   8.387
50522SOL    HW153463  14.803   9.636   8.335
50522SOL    HW253464   0.012   9.740   8.387
50523SOL     OW53465   8.445   7.788   2.939
50523SOL    HW153466   8.390   7.766   3.014
50523SOL    HW253467   8.502   7.712   2.928
50524SOL     OW53468   6.898   2.575  10.708
50524SOL    HW153469   6.919   2.482  10.701
50524SOL    HW253470   6.843   2.582  10.786
50525SOL     OW53471   9.445   5.351   8.525
50525SOL    HW153472   9.463   5.258   8.511
50525SOL    HW253473   9.405   5.354   8.612
50526SOL     OW53474  13.314   2.981   9.424
50526SOL    HW153475  13.253   3.031   9.477
50526SOL    HW253476  13.274   2.894   9.416
50527SOL     OW53477   8.925   4.344  11.511
50527SOL    HW153478   8.917   4.399  11.433
50527SOL    HW253479   9.008   4.298  11.500
50528SOL     OW53480   7.477   0.994  14.553
50528SOL    HW153481   7.389   1.032  14.555
50528SOL    HW253482   7.513   1.022  14.469
50529SOL     OW53483  10.299  11.023  12.631
50529SOL    HW153484  10.393  11.006  12.642
50529SOL    HW253485  10.265  10.943  12.590
50530SOL     OW53486  13.531  11.337   3.938
50530SOL    HW153487  13.550  11.398   4.009
50530SOL    HW253488  13.435  11.334   3.934
50531SOL     OW53489   3.962  12.905   4.915
50531SOL    HW153490   4.009  12.988   4.911
50531SOL    HW253491   3.915  12.899   4.832
50532SOL     OW53492  13.464  10.239   1.299
50532SOL    HW153493  13.551  10.223   1.337
50532SOL    HW253494  13.472  10.323   1.255
50533SOL     OW53495   5.008   0.726   6.661
50533SOL    HW153496   4.926   0.745   6.616
50533SOL    HW253497   4.982   0.699   6.749
50534SOL     OW53498  11.642  11.813   7.292
50534SOL    HW153499  11.566  11.871   7.304
50534SOL    HW253500  11.700  11.834   7.365
50535SOL     OW53501   2.667   1.683   0.858
50535SOL    HW153502   2.620   1.751   0.907
50535SOL    HW253503   2.614   1.670   0.780
50536SOL     OW53504   5.796   2.398   1.422
50536SOL    HW153505   5.746   2.365   1.497
50536SOL    HW253506   5.729   2.415   1.355
50537SOL     OW53507  13.822   8.707  13.142
50537SOL    HW153508  13.806   8.700  13.236
50537SOL    HW253509  13.897   8.650  13.125
50538SOL     OW53510   7.200   6.305  12.576
50538SOL    HW153511   7.106   6.287  12.566
50538SOL    HW253512   7.233   6.233  12.628
50539SOL     OW53513  10.092   0.483   4.360
50539SOL    HW153514  10.052   0.399   4.380
50539SOL    HW253515  10.165   0.462   4.302
50540SOL     OW53516   0.043  13.714   1.499
50540SOL    HW153517   0.048  13.704   1.403
50540SOL    HW253518   0.031  13.808   1.512
50541SOL     OW53519   1.010   6.329   0.367
50541SOL    HW153520   0.949   6.402   0.377
50541SOL    HW253521   1.088   6.367   0.328
50542SOL     OW53522   9.084   7.609  10.906
50542SOL    HW153523   8.991   7.627  10.917
50542SOL    HW253524   9.124   7.642  10.986
50543SOL     OW53525   8.677  10.825   8.485
50543SOL    HW153526   8.686  10.731   8.497
50543SOL    HW253527   8.713  10.864   8.565
50544SOL     OW53528   5.938   0.166   5.886
50544SOL    HW153529   5.968   0.198   5.801
50544SOL    HW253530   5.928   0.072   5.874
50545SOL     OW53531  12.063  13.330   1.762
50545SOL    HW153532  12.041  13.276   1.838
50545SOL    HW253533  12.118  13.273   1.708
50546SOL     OW53534   9.341  11.628   5.047
50546SOL    HW153535   9.251  11.658   5.049
50546SOL    HW253536   9.392  11.702   5.080
50547SOL     OW53537  11.737  14.074   0.062
50547SOL    HW153538  11.755  14.053  14.858
50547SOL    HW253539  11.755  13.993   0.109
50548SOL     OW53540  14.664   9.276  12.591
50548SOL    HW153541  14.705   9.295  12.675
50548SOL    HW253542  14.724   9.314  12.526
50549SOL     OW53543   7.499  13.415   7.280
50549SOL    HW153544   7.578  13.412   7.333
50549SOL    HW253545   7.439  13.471   7.329
50550SOL     OW53546   5.182  13.348  11.255
50550SOL    HW153547   5.220  13.273  11.210
50550SOL    HW253548   5.090  13.324  11.268
50551SOL     OW53549  13.711  10.714   4.360
50551SOL    HW153550  13.739  10.787   4.415
50551SOL    HW253551  13.615  10.714   4.367
50552SOL     OW53552   3.209   8.040  10.743
50552SOL    HW153553   3.275   8.004  10.802
50552SOL    HW253554   3.252   8.043  10.657
50553SOL     OW53555   8.011   2.223  10.322
50553SOL    HW153556   8.065   2.144  10.312
50553SOL    HW253557   7.952   2.222  10.247
50554SOL     OW53558  11.013   9.608   5.987
50554SOL    HW153559  10.926   9.593   6.025
50554SOL    HW253560  11.066   9.638   6.060
50555SOL     OW53561   5.424   3.470   5.915
50555SOL    HW153562   5.485   3.434   5.850
50555SOL    HW253563   5.453   3.560   5.928
50556SOL     OW53564   1.214   7.682   0.409
50556SOL    HW153565   1.246   7.712   0.495
50556SOL    HW253566   1.181   7.594   0.425
50557SOL     OW53567   9.581   7.938  13.283
50557SOL    HW153568   9.669   7.905  13.302
50557SOL    HW253569   9.525   7.861  13.287
50558SOL     OW53570   3.980  12.002  11.770
50558SOL    HW153571   4.018  11.940  11.708
50558SOL    HW253572   4.017  11.978  11.855
50559SOL     OW53573   3.615   3.456   3.010
50559SOL    HW153574   3.698   3.429   2.972
50559SOL    HW253575   3.640   3.516   3.080
50560SOL     OW53576   3.418  12.041   9.392
50560SOL    HW153577   3.493  11.982   9.386
50560SOL    HW253578   3.456  12.124   9.421
50561SOL     OW53579   1.038   4.522   2.396
50561SOL    HW153580   1.114   4.557   2.350
50561SOL    HW253581   1.072   4.495   2.481
50562SOL     OW53582  13.974   4.377   9.360
50562SOL    HW153583  14.034   4.442   9.326
50562SOL    HW253584  13.942   4.330   9.282
50563SOL     OW53585   3.331   6.351  11.992
50563SOL    HW153586   3.293   6.349  11.904
50563SOL    HW253587   3.363   6.262  12.006
50564SOL     OW53588   3.805   0.477   3.285
50564SOL    HW153589   3.886   0.489   3.335
50564SOL    HW253590   3.736   0.502   3.345
50565SOL     OW53591   4.819   2.409   1.455
50565SOL    HW153592   4.905   2.450   1.447
50565SOL    HW253593   4.757   2.482   1.452
50566SOL     OW53594   1.528  13.738  10.077
50566SOL    HW153595   1.587  13.747  10.152
50566SOL    HW253596   1.544  13.649  10.044
50567SOL     OW53597  10.681  12.291  11.737
50567SOL    HW153598  10.766  12.333  11.723
50567SOL    HW253599  10.676  12.225  11.667
50568SOL     OW53600   7.601   1.018   0.610
50568SOL    HW153601   7.587   0.930   0.573
50568SOL    HW253602   7.588   1.077   0.537
50569SOL     OW53603  11.058  10.067   8.109
50569SOL    HW153604  10.996  10.045   8.178
50569SOL    HW253605  11.032  10.154   8.080
50570SOL     OW53606   8.132   7.967  13.526
50570SOL    HW153607   8.185   8.030  13.479
50570SOL    HW253608   8.060   8.019  13.563
50571SOL     OW53609  12.314   3.490   3.106
50571SOL    HW153610  12.287   3.398   3.110
50571SOL    HW253611  12.301   3.523   3.195
50572SOL     OW53612   4.257  10.210  12.561
50572SOL    HW153613   4.179  10.159  12.581
50572SOL    HW253614   4.327  10.146  12.553
50573SOL     OW53615   5.789   4.494  14.445
50573SOL    HW153616   5.875   4.497  14.403
50573SOL    HW253617   5.765   4.402  14.445
50574SOL     OW53618   5.728   3.438   5.507
50574SOL    HW153619   5.718   3.403   5.595
50574SOL    HW253620   5.669   3.513   5.505
50575SOL     OW53621   7.218  10.823  11.320
50575SOL    HW153622   7.135  10.832  11.368
50575SOL    HW253623   7.278  10.881  11.367
50576SOL     OW53624   1.982  12.808   9.583
50576SOL    HW153625   2.070  12.846   9.578
50576SOL    HW253626   1.943  12.827   9.497
50577SOL     OW53627   3.556  12.382   3.729
50577SOL    HW153628   3.622  12.419   3.788
50577SOL    HW253629   3.543  12.449   3.662
50578SOL     OW53630   2.876  14.790   6.978
50578SOL    HW153631   2.881  14.717   7.039
50578SOL    HW253632   2.830  14.858   7.027
50579SOL     OW53633  10.148  14.842  13.732
50579SOL    HW153634  10.233  14.799  13.724
50579SOL    HW253635  10.087  14.772  13.755
50580SOL     OW53636   3.033   9.556   1.824
50580SOL    HW153637   3.026   9.644   1.861
50580SOL    HW253638   2.943   9.522   1.827
50581SOL     OW53639   0.428   9.514   0.632
50581SOL    HW153640   0.496   9.462   0.590
50581SOL    HW253641   0.395   9.459   0.703
50582SOL     OW53642   3.641   0.613  12.797
50582SOL    HW153643   3.666   0.675  12.866
50582SOL    HW253644   3.546   0.618  12.793
50583SOL     OW53645   5.843   0.980  10.847
50583SOL    HW153646   5.811   0.891  10.832
50583SOL    HW253647   5.914   0.991  10.784
50584SOL     OW53648   7.048   0.618  10.860
50584SOL    HW153649   7.101   0.542  10.883
50584SOL    HW253650   6.973   0.582  10.812
50585SOL     OW53651   8.366   6.194  11.727
50585SOL    HW153652   8.418   6.174  11.649
50585SOL    HW253653   8.430   6.197  11.798
50586SOL     OW53654   4.321   6.620   1.665
50586SOL    HW153655   4.392   6.600   1.605
50586SOL    HW253656   4.279   6.536   1.683
50587SOL     OW53657   5.840   5.444   8.405
50587SOL    HW153658   5.819   5.417   8.315
50587SOL    HW253659   5.925   5.487   8.397
50588SOL     OW53660  12.097  12.668  11.148
50588SOL    HW153661  12.110  12.575  11.163
50588SOL    HW253662  12.181  12.699  11.113
50589SOL     OW53663   5.573   8.820   5.010
50589SOL    HW153664   5.496   8.766   5.029
50589SOL    HW253665   5.605   8.847   5.096
50590SOL     OW53666  12.491   0.699  12.049
50590SOL    HW153667  12.501   0.654  11.965
50590SOL    HW253668  12.487   0.629  12.114
50591SOL     OW53669   9.335  11.241   0.635
50591SOL    HW153670   9.361  11.179   0.703
50591SOL    HW253671   9.249  11.211   0.606
50592SOL     OW53672   3.837   3.939  11.297
50592SOL    HW153673   3.841   3.883  11.219
50592SOL    HW253674   3.751   3.982  11.291
50593SOL     OW53675   9.797   8.133   4.144
50593SOL    HW153676   9.743   8.201   4.103
50593SOL    HW253677   9.877   8.132   4.091
50594SOL     OW53678   5.983   0.262   8.712
50594SOL    HW153679   5.928   0.213   8.774
50594SOL    HW253680   6.062   0.208   8.702
50595SOL     OW53681  13.350   6.341  11.498
50595SOL    HW153682  13.351   6.387  11.583
50595SOL    HW253683  13.257   6.325  11.481
50596SOL     OW53684  11.653  13.578  11.653
50596SOL    HW153685  11.689  13.510  11.595
50596SOL    HW253686  11.559  13.576  11.636
50597SOL     OW53687   1.951   3.686  11.310
50597SOL    HW153688   1.980   3.693  11.401
50597SOL    HW253689   2.011   3.623  11.270
50598SOL     OW53690   9.335   6.312   4.976
50598SOL    HW153691   9.256   6.273   5.012
50598SOL    HW253692   9.404   6.287   5.037
50599SOL     OW53693   8.928  12.613   5.706
50599SOL    HW153694   8.846  12.593   5.661
50599SOL    HW253695   8.908  12.598   5.799
50600SOL     OW53696   8.522  13.143   0.998
50600SOL    HW153697   8.518  13.186   1.084
50600SOL    HW253698   8.467  13.066   1.008
50601SOL     OW53699   4.651   5.150  11.133
50601SOL    HW153700   4.698   5.146  11.216
50601SOL    HW253701   4.706   5.204  11.076
50602SOL     OW53702  14.439  10.258  10.552
50602SOL    HW153703  14.527  10.289  10.531
50602SOL    HW253704  14.404  10.226  10.468
50603SOL     OW53705   0.922  14.216  10.099
50603SOL    HW153706   1.008  14.179  10.118
50603SOL    HW253707   0.904  14.191  10.008
50604SOL     OW53708  11.760   7.660   8.963
50604SOL    HW153709  11.755   7.718   8.887
50604SOL    HW253710  11.766   7.572   8.926
50605SOL     OW53711   6.694   5.586  11.619
50605SOL    HW153712   6.775   5.545  11.590
50605SOL    HW253713   6.677   5.655  11.554
50606SOL     OW53714   3.219   5.111   9.578
50606SOL    HW153715   3.152   5.136   9.514
50606SOL    HW253716   3.234   5.018   9.561
50607SOL     OW53717   6.654   9.794   0.600
50607SOL    HW153718   6.598   9.844   0.541
50607SOL    HW253719   6.664   9.710   0.557
50608SOL     OW53720   9.548   7.256   7.082
50608SOL    HW153721   9.542   7.234   6.989
50608SOL    HW253722   9.506   7.341   7.089
50609SOL     OW53723  10.334   7.215   7.935
50609SOL    HW153724  10.386   7.259   8.003
50609SOL    HW253725  10.376   7.241   7.853
50610SOL     OW53726   5.127   1.800   5.144
50610SOL    HW153727   5.063   1.821   5.076
50610SOL    HW253728   5.176   1.881   5.157
50611SOL     OW53729   7.194  13.325   9.637
50611SOL    HW153730   7.209  13.285   9.551
50611SOL    HW253731   7.100  13.316   9.652
50612SOL     OW53732   9.420   1.657   4.725
50612SOL    HW153733   9.419   1.574   4.678
50612SOL    HW253734   9.461   1.719   4.664
50613SOL     OW53735  12.484  13.534   5.085
50613SOL    HW153736  12.448  13.612   5.127
50613SOL    HW253737  12.452  13.461   5.138
50614SOL     OW53738  13.947   9.112   6.924
50614SOL    HW153739  14.042   9.098   6.919
50614SOL    HW253740  13.939   9.205   6.946
50615SOL     OW53741   3.146  14.203   2.943
50615SOL    HW153742   3.208  14.249   2.886
50615SOL    HW253743   3.173  14.228   3.032
50616SOL     OW53744   8.436  10.683   3.518
50616SOL    HW153745   8.460  10.679   3.425
50616SOL    HW253746   8.519  10.697   3.563
50617SOL     OW53747   7.599   7.180   7.408
50617SOL    HW153748   7.566   7.097   7.376
50617SOL    HW253749   7.607   7.168   7.503
50618SOL     OW53750   6.472   3.169  14.567
50618SOL    HW153751   6.433   3.133  14.487
50618SOL    HW253752   6.547   3.219  14.536
50619SOL     OW53753   1.582   6.601  14.212
50619SOL    HW153754   1.612   6.531  14.154
50619SOL    HW253755   1.590   6.563  14.300
50620SOL     OW53756   0.247  10.947   1.400
50620SOL    HW153757   0.189  10.987   1.335
50620SOL    HW253758   0.328  10.928   1.351
50621SOL     OW53759  10.639  11.983   5.732
50621SOL    HW153760  10.620  11.956   5.642
50621SOL    HW253761  10.554  11.980   5.776
50622SOL     OW53762  11.405   4.130   4.557
50622SOL    HW153763  11.410   4.134   4.461
50622SOL    HW253764  11.311   4.128   4.575
50623SOL     OW53765   1.868   2.065   5.063
50623SOL    HW153766   1.775   2.072   5.040
50623SOL    HW253767   1.890   2.149   5.104
50624SOL     OW53768   8.142   7.694  11.194
50624SOL    HW153769   8.176   7.619  11.243
50624SOL    HW253770   8.055   7.667  11.165
50625SOL     OW53771  13.368   8.487   5.267
50625SOL    HW153772  13.398   8.452   5.351
50625SOL    HW253773  13.277   8.459   5.260
50626SOL     OW53774   2.455   6.236  10.106
50626SOL    HW153775   2.504   6.172  10.159
50626SOL    HW253776   2.424   6.186  10.031
50627SOL     OW53777  11.802  10.597   1.502
50627SOL    HW153778  11.750  10.611   1.582
50627SOL    HW253779  11.881  10.649   1.516
50628SOL     OW53780  12.684   6.612   4.671
50628SOL    HW153781  12.741   6.658   4.609
50628SOL    HW253782  12.690   6.520   4.644
50629SOL     OW53783   0.179  14.881   2.424
50629SOL    HW153784   0.207  14.794   2.451
50629SOL    HW253785   0.106  14.865   2.364
50630SOL     OW53786   7.784   4.288  10.730
50630SOL    HW153787   7.802   4.252  10.817
50630SOL    HW253788   7.844   4.241  10.672
50631SOL     OW53789   5.127   0.648   9.905
50631SOL    HW153790   5.082   0.708   9.965
50631SOL    HW253791   5.100   0.561   9.933
50632SOL     OW53792   6.251   7.519  11.137
50632SOL    HW153793   6.187   7.525  11.067
50632SOL    HW253794   6.288   7.431  11.130
50633SOL     OW53795   2.335   2.765  13.475
50633SOL    HW153796   2.244   2.783  13.499
50633SOL    HW253797   2.381   2.846  13.496
50634SOL     OW53798  10.377   9.513   2.637
50634SOL    HW153799  10.438   9.566   2.688
50634SOL    HW253800  10.293   9.559   2.646
50635SOL     OW53801   8.496  12.879  12.798
50635SOL    HW153802   8.587  12.871  12.770
50635SOL    HW253803   8.446  12.878  12.717
50636SOL     OW53804   0.062  10.568  14.838
50636SOL    HW153805   0.082  10.654  14.874
50636SOL    HW253806   0.119  10.560  14.761
50637SOL     OW53807   9.184   0.438   9.929
50637SOL    HW153808   9.253   0.433   9.995
50637SOL    HW253809   9.201   0.521   9.884
50638SOL     OW53810   1.546  11.988   8.082
50638SOL    HW153811   1.555  11.952   8.171
50638SOL    HW253812   1.636  12.012   8.058
50639SOL     OW53813  10.813  10.589   6.067
50639SOL    HW153814  10.895  10.602   6.021
50639SOL    HW253815  10.796  10.673   6.111
50640SOL     OW53816  13.714  12.888  11.696
50640SOL    HW153817  13.648  12.906  11.630
50640SOL    HW253818  13.787  12.946  11.675
50641SOL     OW53819   6.081   4.247   8.570
50641SOL    HW153820   6.062   4.332   8.530
50641SOL    HW253821   6.167   4.223   8.535
50642SOL     OW53822   3.332   4.590  13.454
50642SOL    HW153823   3.376   4.547  13.527
50642SOL    HW253824   3.260   4.638  13.494
50643SOL     OW53825   7.990  13.638   4.624
50643SOL    HW153826   8.017  13.654   4.534
50643SOL    HW253827   8.063  13.673   4.677
50644SOL     OW53828   4.867   6.529  11.637
50644SOL    HW153829   4.952   6.572  11.630
50644SOL    HW253830   4.882   6.455  11.696
50645SOL     OW53831  13.973   0.839   3.370
50645SOL    HW153832  14.017   0.864   3.289
50645SOL    HW253833  13.994   0.746   3.381
50646SOL     OW53834   0.842  14.238   5.623
50646SOL    HW153835   0.937  14.248   5.626
50646SOL    HW253836   0.826  14.152   5.663
50647SOL     OW53837   5.671  13.747   0.011
50647SOL    HW153838   5.633  13.822  14.854
50647SOL    HW253839   5.745  13.783   0.060
50648SOL     OW53840  14.098  14.608   9.372
50648SOL    HW153841  14.115  14.516   9.392
50648SOL    HW253842  14.038  14.636   9.441
50649SOL     OW53843   4.926  12.281   5.379
50649SOL    HW153844   4.981  12.281   5.457
50649SOL    HW253845   4.982  12.246   5.310
50650SOL     OW53846   3.113   4.155   0.096
50650SOL    HW153847   3.137   4.152   0.189
50650SOL    HW253848   3.048   4.086   0.085
50651SOL     OW53849   2.847   5.715  14.636
50651SOL    HW153850   2.837   5.778  14.564
50651SOL    HW253851   2.817   5.632  14.599
50652SOL     OW53852  14.012   2.760  14.759
50652SOL    HW153853  13.982   2.687  14.704
50652SOL    HW253854  14.014   2.835  14.699
50653SOL     OW53855  11.262   4.122   6.045
50653SOL    HW153856  11.347   4.086   6.070
50653SOL    HW253857  11.205   4.046   6.037
50654SOL     OW53858   9.542   3.196   4.395
50654SOL    HW153859   9.459   3.222   4.436
50654SOL    HW253860   9.578   3.278   4.360
50655SOL     OW53861   2.419   5.054   1.632
50655SOL    HW153862   2.336   5.060   1.584
50655SOL    HW253863   2.394   5.058   1.724
50656SOL     OW53864  11.501   3.707  12.402
50656SOL    HW153865  11.493   3.706  12.497
50656SOL    HW253866  11.473   3.620  12.374
50657SOL     OW53867   5.185   2.162   3.932
50657SOL    HW153868   5.162   2.179   3.840
50657SOL    HW253869   5.213   2.247   3.966
50658SOL     OW53870   8.653   9.995   0.255
50658SOL    HW153871   8.624  10.081   0.286
50658SOL    HW253872   8.701  10.013   0.175
50659SOL     OW53873   7.187   4.886  10.782
50659SOL    HW153874   7.157   4.975  10.802
50659SOL    HW253875   7.237   4.859  10.859
50660SOL     OW53876  12.080   4.750  12.484
50660SOL    HW153877  12.143   4.808  12.441
50660SOL    HW253878  12.112   4.741  12.574
50661SOL     OW53879   8.450  10.340   7.349
50661SOL    HW153880   8.515  10.360   7.416
50661SOL    HW253881   8.402  10.264   7.384
50662SOL     OW53882   7.649  10.276   7.374
50662SOL    HW153883   7.565  10.304   7.337
50662SOL    HW253884   7.637  10.282   7.468
50663SOL     OW53885  13.473  10.994   8.280
50663SOL    HW153886  13.544  11.043   8.322
50663SOL    HW253887  13.408  10.983   8.349
50664SOL     OW53888   9.300  11.565   9.279
50664SOL    HW153889   9.289  11.476   9.245
50664SOL    HW253890   9.257  11.621   9.215
50665SOL     OW53891   3.729   5.768  13.955
50665SOL    HW153892   3.792   5.697  13.968
50665SOL    HW253893   3.667   5.733  13.890
50666SOL     OW53894   4.794   6.554  13.130
50666SOL    HW153895   4.844   6.476  13.108
50666SOL    HW253896   4.829   6.582  13.214
50667SOL     OW53897   4.147   7.330   7.904
50667SOL    HW153898   4.170   7.422   7.912
50667SOL    HW253899   4.054   7.330   7.881
50668SOL     OW53900  12.211   4.089   7.029
50668SOL    HW153901  12.189   4.155   7.095
50668SOL    HW253902  12.197   4.005   7.072
50669SOL     OW53903   9.710  14.535   3.179
50669SOL    HW153904   9.677  14.602   3.119
50669SOL    HW253905   9.633  14.506   3.228
50670SOL     OW53906   7.014  10.810  13.713
50670SOL    HW153907   7.000  10.825  13.807
50670SOL    HW253908   6.967  10.729  13.695
50671SOL     OW53909   0.318  14.173   1.443
50671SOL    HW153910   0.291  14.126   1.522
50671SOL    HW253911   0.280  14.122   1.371
50672SOL     OW53912   2.176   4.662  14.655
50672SOL    HW153913   2.237   4.736  14.663
50672SOL    HW253914   2.220   4.589  14.699
50673SOL     OW53915  10.209  14.654  13.225
50673SOL    HW153916  10.206  14.571  13.273
50673SOL    HW253917  10.214  14.721  13.293
50674SOL     OW53918   5.908  10.735   8.574
50674SOL    HW153919   5.972  10.807   8.578
50674SOL    HW253920   5.823  10.779   8.576
50675SOL     OW53921   6.133  13.524   3.375
50675SOL    HW153922   6.059  13.478   3.335
50675SOL    HW253923   6.149  13.477   3.456
50676SOL     OW53924   5.838   5.213  10.242
50676SOL    HW153925   5.880   5.149  10.299
50676SOL    HW253926   5.826   5.167  10.159
50677SOL     OW53927   6.869   1.628  11.892
50677SOL    HW153928   6.899   1.569  11.823
50677SOL    HW253929   6.936   1.697  11.896
50678SOL     OW53930   8.158  10.740  12.904
50678SOL    HW153931   8.218  10.706  12.971
50678SOL    HW253932   8.103  10.665  12.881
50679SOL     OW53933   3.274   4.297   0.544
50679SOL    HW153934   3.256   4.247   0.464
50679SOL    HW253935   3.366   4.280   0.563
50680SOL     OW53936   0.694  13.843   5.080
50680SOL    HW153937   0.736  13.867   4.998
50680SOL    HW253938   0.725  13.754   5.098
50681SOL     OW53939  13.916   9.112   5.309
50681SOL    HW153940  13.836   9.162   5.290
50681SOL    HW253941  13.983   9.154   5.256
50682SOL     OW53942  11.317  10.853   2.025
50682SOL    HW153943  11.333  10.934   1.977
50682SOL    HW253944  11.287  10.882   2.111
50683SOL     OW53945  10.347  14.831   8.853
50683SOL    HW153946  10.281  14.779   8.898
50683SOL    HW253947  10.423  14.773   8.846
50684SOL     OW53948   4.989   7.111   0.273
50684SOL    HW153949   5.038   7.189   0.298
50684SOL    HW253950   4.897   7.134   0.289
50685SOL     OW53951   4.518   7.413   6.797
50685SOL    HW153952   4.610   7.387   6.800
50685SOL    HW253953   4.490   7.414   6.888
50686SOL     OW53954   2.824   5.482   9.024
50686SOL    HW153955   2.903   5.443   8.987
50686SOL    HW253956   2.820   5.448   9.113
50687SOL     OW53957   6.243  14.466   5.005
50687SOL    HW153958   6.316  14.407   5.026
50687SOL    HW253959   6.187  14.463   5.083
50688SOL     OW53960   8.781   8.310  10.038
50688SOL    HW153961   8.839   8.334   9.966
50688SOL    HW253962   8.788   8.383  10.100
50689SOL     OW53963   6.591   3.608  14.368
50689SOL    HW153964   6.611   3.625  14.460
50689SOL    HW253965   6.500   3.578  14.369
50690SOL     OW53966   6.946  13.600   0.163
50690SOL    HW153967   7.003  13.668   0.200
50690SOL    HW253968   6.949  13.529   0.227
50691SOL     OW53969   6.661  14.023  13.272
50691SOL    HW153970   6.738  13.978  13.307
50691SOL    HW253971   6.587  13.970  13.299
50692SOL     OW53972   4.726   3.128   0.968
50692SOL    HW153973   4.681   3.089   1.043
50692SOL    HW253974   4.730   3.058   0.903
50693SOL     OW53975   9.142  12.694   8.772
50693SOL    HW153976   9.232  12.693   8.739
50693SOL    HW253977   9.087  12.693   8.694
50694SOL     OW53978   9.960  14.488  10.598
50694SOL    HW153979   9.896  14.556  10.620
50694SOL    HW253980   9.919  14.438  10.528
50695SOL     OW53981  10.413   8.706  12.564
50695SOL    HW153982  10.360   8.631  12.536
50695SOL    HW253983  10.354   8.781  12.553
50696SOL     OW53984   3.765   4.524   9.189
50696SOL    HW153985   3.670   4.521   9.198
50696SOL    HW253986   3.783   4.477   9.108
50697SOL     OW53987   6.151  14.806  12.358
50697SOL    HW153988   6.182  14.880  12.412
50697SOL    HW253989   6.101  14.752  12.419
50698SOL     OW53990   3.114   2.116   0.679
50698SOL    HW153991   3.147   2.181   0.742
50698SOL    HW253992   3.071   2.050   0.733
50699SOL     OW53993   4.757   3.314   6.728
50699SOL    HW153994   4.773   3.222   6.708
50699SOL    HW253995   4.750   3.317   6.824
50700SOL     OW53996   2.350  14.863   7.718
50700SOL    HW153997   2.386   0.062   7.734
50700SOL    HW253998   2.261  14.879   7.687
50701SOL     OW53999   0.777  13.455  10.589
50701SOL    HW154000   0.766  13.517  10.661
50701SOL    HW254001   0.726  13.379  10.616
50702SOL     OW54002  10.009   8.161   4.879
50702SOL    HW154003  10.064   8.234   4.907
50702SOL    HW254004   9.920   8.195   4.883
50703SOL     OW54005   0.987   8.704  13.247
50703SOL    HW154006   1.004   8.721  13.340
50703SOL    HW254007   0.892   8.711  13.239
50704SOL     OW54008   8.433  12.302   4.599
50704SOL    HW154009   8.357  12.357   4.614
50704SOL    HW254010   8.418  12.262   4.513
50705SOL     OW54011   0.165   0.293   1.810
50705SOL    HW154012   0.188   0.205   1.781
50705SOL    HW254013   0.242   0.323   1.858
50706SOL     OW54014  14.307   8.955   3.681
50706SOL    HW154015  14.248   8.958   3.756
50706SOL    HW254016  14.393   8.935   3.719
50707SOL     OW54017  14.507  10.758   8.501
50707SOL    HW154018  14.564  10.686   8.472
50707SOL    HW254019  14.508  10.820   8.429
50708SOL     OW54020   3.829   3.088   3.178
50708SOL    HW154021   3.861   3.122   3.261
50708SOL    HW254022   3.814   2.995   3.195
50709SOL     OW54023   8.167   7.865  10.110
50709SOL    HW154024   8.216   7.798  10.062
50709SOL    HW254025   8.196   7.855  10.201
50710SOL     OW54026   7.994   0.573  10.707
50710SOL    HW154027   8.023   0.490  10.669
50710SOL    HW254028   8.064   0.597  10.768
50711SOL     OW54029   4.085  13.906   4.897
50711SOL    HW154030   4.087  13.963   4.820
50711SOL    HW254031   4.011  13.938   4.949
50712SOL     OW54032   8.055  14.783   1.463
50712SOL    HW154033   8.092  14.846   1.401
50712SOL    HW254034   8.103  14.799   1.544
50713SOL     OW54035   4.445  13.554   3.029
50713SOL    HW154036   4.489  13.637   3.051
50713SOL    HW254037   4.359  13.561   3.070
50714SOL     OW54038  10.621  12.236   8.714
50714SOL    HW154039  10.583  12.306   8.662
50714SOL    HW254040  10.567  12.159   8.694
50715SOL     OW54041   0.600  11.180   4.059
50715SOL    HW154042   0.554  11.111   4.011
50715SOL    HW254043   0.621  11.140   4.144
50716SOL     OW54044   2.003  10.676  10.844
50716SOL    HW154045   2.094  10.704  10.835
50716SOL    HW254046   1.989  10.617  10.769
50717SOL     OW54047   1.765   1.284   2.267
50717SOL    HW154048   1.691   1.294   2.327
50717SOL    HW254049   1.762   1.192   2.241
50718SOL     OW54050   5.102   8.555   6.260
50718SOL    HW154051   5.057   8.473   6.283
50718SOL    HW254052   5.106   8.605   6.341
50719SOL     OW54053   3.698   5.529  11.516
50719SOL    HW154054   3.604   5.509  11.513
50719SOL    HW254055   3.736   5.476  11.446
50720SOL     OW54056  12.510   5.574  13.225
50720SOL    HW154057  12.543   5.485  13.207
50720SOL    HW254058  12.493   5.610  13.138
50721SOL     OW54059   9.933   9.009   3.772
50721SOL    HW154060   9.922   9.087   3.826
50721SOL    HW254061   9.881   9.026   3.693
50722SOL     OW54062   5.994   9.304   8.352
50722SOL    HW154063   5.986   9.363   8.277
50722SOL    HW254064   5.921   9.243   8.342
50723SOL     OW54065  14.880  11.987  11.619
50723SOL    HW154066  14.883  11.899  11.657
50723SOL    HW254067   0.034  11.979  11.534
50724SOL     OW54068  13.572   2.254   3.466
50724SOL    HW154069  13.604   2.250   3.376
50724SOL    HW254070  13.563   2.348   3.484
50725SOL     OW54071  14.561   6.432   2.476
50725SOL    HW154072  14.483   6.453   2.424
50725SOL    HW254073  14.554   6.486   2.554
50726SOL     OW54074   7.426   2.400  12.819
50726SOL    HW154075   7.341   2.418  12.781
50726SOL    HW254076   7.441   2.470  12.882
50727SOL     OW54077   7.064   5.351  14.505
50727SOL    HW154078   7.059   5.255  14.508
50727SOL    HW254079   7.130   5.369  14.439
50728SOL     OW54080   3.989  10.606   3.122
50728SOL    HW154081   3.974  10.555   3.201
50728SOL    HW254082   4.027  10.544   3.060
50729SOL     OW54083  13.454   3.288   4.744
50729SOL    HW154084  13.500   3.364   4.707
50729SOL    HW254085  13.368   3.321   4.767
50730SOL     OW54086   3.746   8.992   9.252
50730SOL    HW154087   3.795   8.919   9.215
50730SOL    HW254088   3.713   8.960   9.336
50731SOL     OW54089  14.445  12.269   3.298
50731SOL    HW154090  14.538  12.255   3.316
50731SOL    HW254091  14.402  12.196   3.342
50732SOL     OW54092   8.930   5.671   0.617
50732SOL    HW154093   8.880   5.661   0.536
50732SOL    HW254094   8.952   5.764   0.621
50733SOL     OW54095   3.727   7.082   7.415
50733SOL    HW154096   3.727   7.015   7.484
50733SOL    HW254097   3.654   7.058   7.358
50734SOL     OW54098   7.393  12.815   2.137
50734SOL    HW154099   7.441  12.799   2.055
50734SOL    HW254100   7.399  12.732   2.184
50735SOL     OW54101   2.102  11.167   0.337
50735SOL    HW154102   2.134  11.149   0.248
50735SOL    HW254103   2.167  11.124   0.394
50736SOL     OW54104   4.326   9.928   2.136
50736SOL    HW154105   4.332   9.846   2.086
50736SOL    HW254106   4.249   9.917   2.192
50737SOL     OW54107   6.630   0.058  14.560
50737SOL    HW154108   6.629   0.094  14.649
50737SOL    HW254109   6.543   0.022  14.548
50738SOL     OW54110   6.483   4.990   9.334
50738SOL    HW154111   6.546   4.976   9.405
50738SOL    HW254112   6.490   4.911   9.280
50739SOL     OW54113   1.557   3.408   2.611
50739SOL    HW154114   1.569   3.444   2.523
50739SOL    HW254115   1.517   3.479   2.661
50740SOL     OW54116   3.937  14.456   4.994
50740SOL    HW154117   3.930  14.535   5.047
50740SOL    HW254118   3.859  14.406   5.015
50741SOL     OW54119   4.606  10.799   9.715
50741SOL    HW154120   4.511  10.801   9.730
50741SOL    HW254121   4.640  10.737   9.779
50742SOL     OW54122   2.742   0.199   2.581
50742SOL    HW154123   2.782   0.128   2.630
50742SOL    HW254124   2.648   0.183   2.588
50743SOL     OW54125   9.818   6.445   7.040
50743SOL    HW154126   9.909   6.458   7.015
50743SOL    HW254127   9.791   6.366   6.994
50744SOL     OW54128   7.054   4.234   5.301
50744SOL    HW154129   7.094   4.163   5.350
50744SOL    HW254130   7.041   4.199   5.213
50745SOL     OW54131  11.172   4.733  12.198
50745SOL    HW154132  11.194   4.675  12.271
50745SOL    HW254133  11.078   4.719  12.184
50746SOL     OW54134   4.261   6.761   1.889
50746SOL    HW154135   4.168   6.764   1.910
50746SOL    HW254136   4.265   6.739   1.796
50747SOL     OW54137   9.418   2.794   9.548
50747SOL    HW154138   9.381   2.882   9.561
50747SOL    HW254139   9.409   2.777   9.455
50748SOL     OW54140  11.877   9.928  14.100
50748SOL    HW154141  11.839   9.841  14.105
50748SOL    HW254142  11.831   9.970  14.027
50749SOL     OW54143   6.955  10.691  12.002
50749SOL    HW154144   6.990  10.779  12.017
50749SOL    HW254145   7.024  10.646  11.953
50750SOL     OW54146  14.079  14.559   9.880
50750SOL    HW154147  14.101  14.569   9.973
50750SOL    HW254148  13.992  14.597   9.870
50751SOL     OW54149   1.698   9.571  12.949
50751SOL    HW154150   1.693   9.550  12.856
50751SOL    HW254151   1.652   9.499  12.992
50752SOL     OW54152   4.697   5.355   9.707
50752SOL    HW154153   4.778   5.324   9.747
50752SOL    HW254154   4.709   5.449   9.696
50753SOL     OW54155   5.909   0.700   9.116
50753SOL    HW154156   5.973   0.632   9.137
50753SOL    HW254157   5.903   0.699   9.020
50754SOL     OW54158   6.914   7.677   1.386
50754SOL    HW154159   6.850   7.689   1.456
50754SOL    HW254160   6.879   7.730   1.314
50755SOL     OW54161   6.752   0.107   1.140
50755SOL    HW154162   6.763   0.099   1.235
50755SOL    HW254163   6.809   0.180   1.116
50756SOL     OW54164  12.043  11.858   7.203
50756SOL    HW154165  12.110  11.791   7.216
50756SOL    HW254166  12.092  11.940   7.199
50757SOL     OW54167   9.905   8.459   3.048
50757SOL    HW154168   9.853   8.404   2.989
50757SOL    HW254169   9.888   8.422   3.135
50758SOL     OW54170  14.024  14.336  10.519
50758SOL    HW154171  14.008  14.352  10.612
50758SOL    HW254172  13.971  14.402  10.474
50759SOL     OW54173  14.642   7.605   0.986
50759SOL    HW154174  14.653   7.536   1.051
50759SOL    HW254175  14.570   7.659   1.020
50760SOL     OW54176   6.918  14.499   9.214
50760SOL    HW154177   6.932  14.519   9.306
50760SOL    HW254178   6.993  14.446   9.188
50761SOL     OW54179   4.013   2.060   9.610
50761SOL    HW154180   3.955   2.086   9.681
50761SOL    HW254181   4.099   2.092   9.636
50762SOL     OW54182   7.151   3.843  13.954
50762SOL    HW154183   7.218   3.857  13.887
50762SOL    HW254184   7.161   3.751  13.977
50763SOL     OW54185   8.174  12.060   7.317
50763SOL    HW154186   8.191  12.115   7.394
50763SOL    HW254187   8.157  12.122   7.246
50764SOL     OW54188  13.685  10.519  13.037
50764SOL    HW154189  13.769  10.474  13.043
50764SOL    HW254190  13.648  10.513  13.125
50765SOL     OW54191  12.865   6.695   0.247
50765SOL    HW154192  12.912   6.675   0.166
50765SOL    HW254193  12.831   6.610   0.276
50766SOL     OW54194   0.656   0.462  12.470
50766SOL    HW154195   0.703   0.406  12.532
50766SOL    HW254196   0.721   0.526  12.440
50767SOL     OW54197  11.426   9.868   5.041
50767SOL    HW154198  11.507   9.913   5.068
50767SOL    HW254199  11.379   9.853   5.123
50768SOL     OW54200   0.903   7.291   3.000
50768SOL    HW154201   0.820   7.312   3.044
50768SOL    HW254202   0.965   7.356   3.034
50769SOL     OW54203  10.132   0.626  13.087
50769SOL    HW154204  10.081   0.663  13.015
50769SOL    HW254205  10.213   0.677  13.089
50770SOL     OW54206  11.367   1.490   7.290
50770SOL    HW154207  11.428   1.451   7.353
50770SOL    HW254208  11.318   1.554   7.341
50771SOL     OW54209  14.611   5.644   7.158
50771SOL    HW154210  14.544   5.614   7.096
50771SOL    HW254211  14.668   5.569   7.170
50772SOL     OW54212  13.141   7.749   0.807
50772SOL    HW154213  13.050   7.770   0.827
50772SOL    HW254214  13.183   7.739   0.892
50773SOL     OW54215   6.912  11.676  13.567
50773SOL    HW154216   6.929  11.762  13.529
50773SOL    HW254217   6.991  11.655  13.617
50774SOL     OW54218   4.138   3.058   7.901
50774SOL    HW154219   4.085   2.989   7.860
50774SOL    HW254220   4.153   3.025   7.990
50775SOL     OW54221  13.374   5.081   2.243
50775SOL    HW154222  13.436   5.051   2.309
50775SOL    HW254223  13.378   5.177   2.248
50776SOL     OW54224   9.606  11.797  13.431
50776SOL    HW154225   9.700  11.810  13.415
50776SOL    HW254226   9.580  11.874  13.481
50777SOL     OW54227  12.000   1.172   1.758
50777SOL    HW154228  12.049   1.194   1.837
50777SOL    HW254229  11.926   1.120   1.789
50778SOL     OW54230   2.729   3.352   5.093
50778SOL    HW154231   2.658   3.409   5.124
50778SOL    HW254232   2.716   3.270   5.141
50779SOL     OW54233  10.220   0.409   5.759
50779SOL    HW154234  10.257   0.488   5.798
50779SOL    HW254235  10.179   0.363   5.832
50780SOL     OW54236   8.420  14.049  11.709
50780SOL    HW154237   8.390  13.959  11.704
50780SOL    HW254238   8.516  14.043  11.701
50781SOL     OW54239   0.648   0.410  11.392
50781SOL    HW154240   0.677   0.479  11.453
50781SOL    HW254241   0.611   0.458  11.318
50782SOL     OW54242  11.136   1.207   1.536
50782SOL    HW154243  11.218   1.221   1.584
50782SOL    HW254244  11.114   1.115   1.551
50783SOL     OW54245   4.161  12.753   3.760
50783SOL    HW154246   4.099  12.681   3.752
50783SOL    HW254247   4.193  12.767   3.671
50784SOL     OW54248  12.126  13.309  13.237
50784SOL    HW154249  12.092  13.248  13.171
50784SOL    HW254250  12.068  13.385  13.232
50785SOL     OW54251  13.314   1.418   8.787
50785SOL    HW154252  13.368   1.443   8.712
50785SOL    HW254253  13.230   1.391   8.748
50786SOL     OW54254  10.071  10.542   8.477
50786SOL    HW154255  10.024  10.491   8.541
50786SOL    HW254256  10.031  10.519   8.393
50787SOL     OW54257   0.148  11.709   2.435
50787SOL    HW154258   0.207  11.705   2.359
50787SOL    HW254259   0.196  11.665   2.505
50788SOL     OW54260   8.208   3.158   2.331
50788SOL    HW154261   8.174   3.069   2.336
50788SOL    HW254262   8.293   3.150   2.289
50789SOL     OW54263  12.702   8.000  13.939
50789SOL    HW154264  12.644   7.939  13.984
50789SOL    HW254265  12.781   7.949  13.921
50790SOL     OW54266   2.297  13.834   1.559
50790SOL    HW154267   2.227  13.800   1.615
50790SOL    HW254268   2.252  13.892   1.497
50791SOL     OW54269   6.320   0.101   6.093
50791SOL    HW154270   6.413   0.087   6.080
50791SOL    HW254271   6.284   0.111   6.005
50792SOL     OW54272   0.042  10.255   2.307
50792SOL    HW154273   0.068  10.252   2.399
50792SOL    HW254274   0.048  10.347   2.283
50793SOL     OW54275   4.285   1.033  12.545
50793SOL    HW154276   4.300   1.006  12.635
50793SOL    HW254277   4.373   1.044  12.508
50794SOL     OW54278   0.367   5.047   1.943
50794SOL    HW154279   0.291   5.017   1.894
50794SOL    HW254280   0.407   4.967   1.977
50795SOL     OW54281  13.933  13.763   0.219
50795SOL    HW154282  13.851  13.716   0.211
50795SOL    HW254283  13.991  13.723   0.154
50796SOL     OW54284   0.284   9.023   5.156
50796SOL    HW154285   0.279   9.020   5.060
50796SOL    HW254286   0.247   8.939   5.184
50797SOL     OW54287   2.397  13.258   8.854
50797SOL    HW154288   2.343  13.323   8.900
50797SOL    HW254289   2.367  13.263   8.763
50798SOL     OW54290   1.185  10.595   2.150
50798SOL    HW154291   1.269  10.566   2.113
50798SOL    HW254292   1.199  10.594   2.245
50799SOL     OW54293   0.928   3.197  13.508
50799SOL    HW154294   0.887   3.276  13.471
50799SOL    HW254295   0.990   3.170  13.441
50800SOL     OW54296   4.060   9.853  14.424
50800SOL    HW154297   4.140   9.882  14.467
50800SOL    HW254298   4.088   9.823  14.338
50801SOL     OW54299   1.189   0.967   5.132
50801SOL    HW154300   1.190   0.937   5.223
50801SOL    HW254301   1.218   0.892   5.081
50802SOL     OW54302   7.443   3.589  13.091
50802SOL    HW154303   7.513   3.648  13.118
50802SOL    HW254304   7.486   3.531  13.027
50803SOL     OW54305   2.559   0.195   8.721
50803SOL    HW154306   2.615   0.262   8.682
50803SOL    HW254307   2.605   0.113   8.707
50804SOL     OW54308   6.097  11.612   8.206
50804SOL    HW154309   6.003  11.614   8.190
50804SOL    HW254310   6.105  11.598   8.300
50805SOL     OW54311  12.656   0.793   9.751
50805SOL    HW154312  12.630   0.885   9.746
50805SOL    HW254313  12.659   0.774   9.845
50806SOL     OW54314  13.306   4.345  12.514
50806SOL    HW154315  13.316   4.435  12.544
50806SOL    HW254316  13.240   4.307  12.573
50807SOL     OW54317   7.313   7.880   9.699
50807SOL    HW154318   7.395   7.834   9.681
50807SOL    HW254319   7.245   7.823   9.664
50808SOL     OW54320   7.210   2.477   7.619
50808SOL    HW154321   7.135   2.537   7.616
50808SOL    HW254322   7.209   2.441   7.708
50809SOL     OW54323   1.067   6.743   0.611
50809SOL    HW154324   1.069   6.839   0.612
50809SOL    HW254325   0.974   6.721   0.611
50810SOL     OW54326  14.736   0.001   3.488
50810SOL    HW154327  14.717  14.801   3.524
50810SOL    HW254328  14.693   0.001   3.402
50811SOL     OW54329   6.323   8.966   6.077
50811SOL    HW154330   6.309   8.938   5.986
50811SOL    HW254331   6.417   8.954   6.091
50812SOL     OW54332   0.044   1.647   3.654
50812SOL    HW154333   0.083   1.560   3.651
50812SOL    HW254334   0.088   1.696   3.585
50813SOL     OW54335   0.854  13.930  12.607
50813SOL    HW154336   0.922  13.895  12.550
50813SOL    HW254337   0.806  13.992  12.553
50814SOL     OW54338   7.986   3.525  14.056
50814SOL    HW154339   7.997   3.577  13.976
50814SOL    HW254340   8.027   3.441  14.036
50815SOL     OW54341   9.903   1.322  14.357
50815SOL    HW154342   9.960   1.381  14.407
50815SOL    HW254343   9.955   1.296  14.281
50816SOL     OW54344   4.107  12.648   1.833
50816SOL    HW154345   4.012  12.650   1.846
50816SOL    HW254346   4.122  12.579   1.769
50817SOL     OW54347  12.986   3.150  11.650
50817SOL    HW154348  12.944   3.174  11.568
50817SOL    HW254349  13.061   3.210  11.657
50818SOL     OW54350  12.635   7.344  10.719
50818SOL    HW154351  12.650   7.438  10.718
50818SOL    HW254352  12.705   7.307  10.664
50819SOL     OW54353  10.854   8.403  13.779
50819SOL    HW154354  10.844   8.309  13.796
50819SOL    HW254355  10.814   8.445  13.855
50820SOL     OW54356   1.452   6.751   0.984
50820SOL    HW154357   1.404   6.726   1.063
50820SOL    HW254358   1.406   6.705   0.913
50821SOL     OW54359  13.681   9.386   5.496
50821SOL    HW154360  13.606   9.340   5.533
50821SOL    HW254361  13.666   9.385   5.401
50822SOL     OW54362  12.798   7.640   1.869
50822SOL    HW154363  12.794   7.563   1.927
50822SOL    HW254364  12.791   7.603   1.781
50823SOL     OW54365   5.224  13.742   6.726
50823SOL    HW154366   5.233  13.758   6.820
50823SOL    HW254367   5.213  13.647   6.719
50824SOL     OW54368  10.959   7.238   4.747
50824SOL    HW154369  10.871   7.272   4.761
50824SOL    HW254370  10.989   7.282   4.667
50825SOL     OW54371   6.271  14.479   0.045
50825SOL    HW154372   6.360  14.447   0.028
50825SOL    HW254373   6.264  14.560  14.882
50826SOL     OW54374  10.186  14.120   0.877
50826SOL    HW154375  10.253  14.188   0.887
50826SOL    HW254376  10.197  14.064   0.954
50827SOL     OW54377  14.723  11.173  11.530
50827SOL    HW154378  14.690  11.229  11.601
50827SOL    HW254379  14.717  11.084  11.564
50828SOL     OW54380  10.733  14.341   9.343
50828SOL    HW154381  10.654  14.360   9.394
50828SOL    HW254382  10.701  14.295   9.265
50829SOL     OW54383   6.980   8.324  10.143
50829SOL    HW154384   6.939   8.237  10.145
50829SOL    HW254385   7.019   8.334  10.230
50830SOL     OW54386  13.839   2.160   6.329
50830SOL    HW154387  13.880   2.163   6.243
50830SOL    HW254388  13.857   2.071   6.361
50831SOL     OW54389  10.664   1.597   0.117
50831SOL    HW154390  10.644   1.549   0.197
50831SOL    HW254391  10.757   1.616   0.123
50832SOL     OW54392   7.901  10.758   4.636
50832SOL    HW154393   7.943  10.732   4.555
50832SOL    HW254394   7.967  10.746   4.703
50833SOL     OW54395   7.343   5.047   1.510
50833SOL    HW154396   7.402   5.105   1.558
50833SOL    HW254397   7.260   5.094   1.507
50834SOL     OW54398   1.165   5.621   4.795
50834SOL    HW154399   1.108   5.566   4.848
50834SOL    HW254400   1.254   5.593   4.818
50835SOL     OW54401  10.463   6.184   8.045
50835SOL    HW154402  10.403   6.207   7.974
50835SOL    HW254403  10.443   6.248   8.114
50836SOL     OW54404   1.404   3.154  14.282
50836SOL    HW154405   1.487   3.179  14.323
50836SOL    HW254406   1.393   3.217  14.211
50837SOL     OW54407   6.140  14.804  13.793
50837SOL    HW154408   6.098  14.788  13.708
50837SOL    HW254409   6.173   0.006  13.787
50838SOL     OW54410  12.094   4.597   1.535
50838SOL    HW154411  12.158   4.663   1.562
50838SOL    HW254412  12.137   4.551   1.463
50839SOL     OW54413  14.176   7.356  11.408
50839SOL    HW154414  14.266   7.379  11.385
50839SOL    HW254415  14.182   7.324  11.498
50840SOL     OW54416  11.325   2.510   7.739
50840SOL    HW154417  11.341   2.599   7.771
50840SOL    HW254418  11.354   2.512   7.648
50841SOL     OW54419   1.035  12.279  14.484
50841SOL    HW154420   0.986  12.326  14.417
50841SOL    HW254421   1.127  12.300  14.467
50842SOL     OW54422   3.972   9.213  13.000
50842SOL    HW154423   4.042   9.266  12.962
50842SOL    HW254424   3.981   9.225  13.095
50843SOL     OW54425  13.186   7.191   7.536
50843SOL    HW154426  13.178   7.251   7.610
50843SOL    HW254427  13.098   7.188   7.498
50844SOL     OW54428   2.404   0.080  12.005
50844SOL    HW154429   2.427   0.087  12.097
50844SOL    HW254430   2.401  14.873  11.988
50845SOL     OW54431   9.244  11.893  10.642
50845SOL    HW154432   9.157  11.882  10.603
50845SOL    HW254433   9.237  11.851  10.727
50846SOL     OW54434   9.110   3.311  11.079
50846SOL    HW154435   9.077   3.272  11.160
50846SOL    HW254436   9.065   3.263  11.010
50847SOL     OW54437  11.100  11.036   1.048
50847SOL    HW154438  11.083  11.126   1.018
50847SOL    HW254439  11.113  11.046   1.143
50848SOL     OW54440  14.338   9.422   6.077
50848SOL    HW154441  14.251   9.424   6.116
50848SOL    HW254442  14.347   9.333   6.043
50849SOL     OW54443   5.834   6.980  13.178
50849SOL    HW154444   5.749   7.002  13.139
50849SOL    HW254445   5.876   7.064  13.193
50850SOL     OW54446  14.329   3.991  12.448
50850SOL    HW154447  14.381   3.932  12.394
50850SOL    HW254448  14.250   4.007  12.396
50851SOL     OW54449  14.256   7.773  10.899
50851SOL    HW154450  14.294   7.703  10.953
50851SOL    HW254451  14.306   7.771  10.818
50852SOL     OW54452  14.016   8.677   0.194
50852SOL    HW154453  14.059   8.728   0.126
50852SOL    HW254454  14.026   8.730   0.273
50853SOL     OW54455   1.040  13.586   1.169
50853SOL    HW154456   1.043  13.526   1.243
50853SOL    HW254457   1.122  13.635   1.174
50854SOL     OW54458  10.656   6.175  13.997
50854SOL    HW154459  10.632   6.268  13.992
50854SOL    HW254460  10.579   6.129  13.965
50855SOL     OW54461  10.158  11.679   1.534
50855SOL    HW154462  10.117  11.752   1.488
50855SOL    HW254463  10.086  11.634   1.578
50856SOL     OW54464  12.190  14.264   7.451
50856SOL    HW154465  12.110  14.213   7.465
50856SOL    HW254466  12.253  14.200   7.418
50857SOL     OW54467  12.927   9.497   5.175
50857SOL    HW154468  12.979   9.422   5.203
50857SOL    HW254469  12.989   9.556   5.133
50858SOL     OW54470  14.653   7.218   0.319
50858SOL    HW154471  14.651   7.135   0.271
50858SOL    HW254472  14.590   7.206   0.390
50859SOL     OW54473  12.326   8.793   2.864
50859SOL    HW154474  12.374   8.764   2.942
50859SOL    HW254475  12.385   8.771   2.791
50860SOL     OW54476   2.092   5.523  14.042
50860SOL    HW154477   2.151   5.595  14.020
50860SOL    HW254478   2.074   5.479  13.959
50861SOL     OW54479  13.702   5.677   3.101
50861SOL    HW154480  13.750   5.671   3.184
50861SOL    HW254481  13.765   5.712   3.039
50862SOL     OW54482   2.692   8.487   0.533
50862SOL    HW154483   2.746   8.566   0.536
50862SOL    HW254484   2.603   8.520   0.524
50863SOL     OW54485   6.532   0.047  13.985
50863SOL    HW154486   6.584   0.110  14.034
50863SOL    HW254487   6.540   0.076  13.894
50864SOL     OW54488   7.772  12.720   7.987
50864SOL    HW154489   7.724  12.642   8.014
50864SOL    HW254490   7.728  12.792   8.032
50865SOL     OW54491   4.692   3.116   4.870
50865SOL    HW154492   4.646   3.032   4.879
50865SOL    HW254493   4.702   3.128   4.776
50866SOL     OW54494  11.889  12.717   8.629
50866SOL    HW154495  11.860  12.803   8.599
50866SOL    HW254496  11.980  12.712   8.602
50867SOL     OW54497  11.828   9.989   0.864
50867SOL    HW154498  11.794   9.901   0.883
50867SOL    HW254499  11.882  10.010   0.940
50868SOL     OW54500   2.541   7.900   4.400
50868SOL    HW154501   2.511   7.906   4.491
50868SOL    HW254502   2.560   7.991   4.375
50869SOL     OW54503   9.411  13.036   2.735
50869SOL    HW154504   9.446  12.947   2.744
50869SOL    HW254505   9.400  13.048   2.641
50870SOL     OW54506   1.123  12.862   8.879
50870SOL    HW154507   1.055  12.899   8.823
50870SOL    HW254508   1.205  12.896   8.844
50871SOL     OW54509   1.982   7.027  13.353
50871SOL    HW154510   1.968   7.037  13.447
50871SOL    HW254511   2.042   7.097  13.330
50872SOL     OW54512   9.368   5.187  14.650
50872SOL    HW154513   9.452   5.184  14.696
50872SOL    HW254514   9.316   5.119  14.692
50873SOL     OW54515   2.897   5.577   1.080
50873SOL    HW154516   2.860   5.491   1.059
50873SOL    HW254517   2.991   5.559   1.092
50874SOL     OW54518   1.976  11.477  12.195
50874SOL    HW154519   2.009  11.442  12.112
50874SOL    HW254520   1.923  11.553  12.169
50875SOL     OW54521   0.474  10.689   1.876
50875SOL    HW154522   0.509  10.608   1.839
50875SOL    HW254523   0.547  10.725   1.926
50876SOL     OW54524   2.528  10.334   1.621
50876SOL    HW154525   2.612  10.380   1.615
50876SOL    HW254526   2.487  10.347   1.536
50877SOL     OW54527   6.279  11.943  10.647
50877SOL    HW154528   6.374  11.928  10.652
50877SOL    HW254529   6.259  11.989  10.729
50878SOL     OW54530  12.637  12.198   8.929
50878SOL    HW154531  12.542  12.187   8.930
50878SOL    HW254532  12.670  12.119   8.886
50879SOL     OW54533   7.819  12.097  11.976
50879SOL    HW154534   7.867  12.162  12.026
50879SOL    HW254535   7.728  12.108  12.004
50880SOL     OW54536  11.704  13.150  10.424
50880SOL    HW154537  11.780  13.194  10.462
50880SOL    HW254538  11.729  13.057  10.422
50881SOL     OW54539  12.010   2.543   4.447
50881SOL    HW154540  12.028   2.451   4.431
50881SOL    HW254541  11.915   2.552   4.442
50882SOL     OW54542  11.638  13.379  10.764
50882SOL    HW154543  11.581  13.400  10.838
50882SOL    HW254544  11.656  13.286  10.773
50883SOL     OW54545   4.126   9.419  12.461
50883SOL    HW154546   4.109   9.361  12.386
50883SOL    HW254547   4.096   9.369  12.537
50884SOL     OW54548   8.240   3.820  10.707
50884SOL    HW154549   8.289   3.757  10.761
50884SOL    HW254550   8.201   3.881  10.769
50885SOL     OW54551  14.767   4.312   8.844
50885SOL    HW154552  14.837   4.283   8.785
50885SOL    HW254553  14.800   4.393   8.882
50886SOL     OW54554   4.473  11.936  11.528
50886SOL    HW154555   4.521  12.001  11.477
50886SOL    HW254556   4.437  11.986  11.602
50887SOL     OW54557  13.090   7.854  11.170
50887SOL    HW154558  13.049   7.811  11.095
50887SOL    HW254559  13.113   7.942  11.137
50888SOL     OW54560   7.941   5.766   2.557
50888SOL    HW154561   7.873   5.722   2.607
50888SOL    HW254562   8.018   5.766   2.615
50889SOL     OW54563  13.591   3.455   0.145
50889SOL    HW154564  13.552   3.368   0.160
50889SOL    HW254565  13.661   3.461   0.209
50890SOL     OW54566   1.845   4.002   2.335
50890SOL    HW154567   1.835   4.063   2.262
50890SOL    HW254568   1.877   4.055   2.407
50891SOL     OW54569   2.720   2.378   0.758
50891SOL    HW154570   2.698   2.324   0.682
50891SOL    HW254571   2.635   2.414   0.786
50892SOL     OW54572   3.184  11.575  13.438
50892SOL    HW154573   3.122  11.570  13.365
50892SOL    HW254574   3.162  11.657  13.482
50893SOL     OW54575   5.935   8.657   3.499
50893SOL    HW154576   5.851   8.676   3.540
50893SOL    HW254577   5.914   8.639   3.408
50894SOL     OW54578   8.816   4.636   4.696
50894SOL    HW154579   8.912   4.636   4.703
50894SOL    HW254580   8.786   4.621   4.786
50895SOL     OW54581  12.207   6.094   7.602
50895SOL    HW154582  12.245   6.137   7.679
50895SOL    HW254583  12.136   6.041   7.636
50896SOL     OW54584   5.729   9.603   4.749
50896SOL    HW154585   5.805   9.557   4.785
50896SOL    HW254586   5.744   9.604   4.655
50897SOL     OW54587   3.930  12.703  11.047
50897SOL    HW154588   3.964  12.663  11.127
50897SOL    HW254589   3.837  12.715  11.063
50898SOL     OW54590   3.849   0.067   5.855
50898SOL    HW154591   3.767   0.086   5.809
50898SOL    HW254592   3.887  14.882   5.806
50899SOL     OW54593  14.214   6.023   2.847
50899SOL    HW154594  14.250   5.937   2.824
50899SOL    HW254595  14.288   6.071   2.884
50900SOL     OW54596   3.076   8.411   5.293
50900SOL    HW154597   3.048   8.417   5.384
50900SOL    HW254598   3.145   8.346   5.293
50901SOL     OW54599  12.148  10.380   3.750
50901SOL    HW154600  12.122  10.418   3.666
50901SOL    HW254601  12.073  10.327   3.776
50902SOL     OW54602   1.439   4.109   1.813
50902SOL    HW154603   1.502   4.049   1.773
50902SOL    HW254604   1.457   4.194   1.772
50903SOL     OW54605   2.917   8.896  10.580
50903SOL    HW154606   2.908   8.806  10.610
50903SOL    HW254607   2.838   8.940  10.612
50904SOL     OW54608   4.508   1.128   7.766
50904SOL    HW154609   4.485   1.080   7.686
50904SOL    HW254610   4.505   1.220   7.741
50905SOL     OW54611   6.943   1.946   6.321
50905SOL    HW154612   6.891   1.966   6.243
50905SOL    HW254613   6.880   1.949   6.393
50906SOL     OW54614   5.791   9.249   3.302
50906SOL    HW154615   5.704   9.281   3.322
50906SOL    HW254616   5.830   9.231   3.387
50907SOL     OW54617   3.088   9.243   8.770
50907SOL    HW154618   3.060   9.230   8.861
50907SOL    HW254619   3.045   9.173   8.721
50908SOL     OW54620   8.668  14.328   7.141
50908SOL    HW154621   8.696  14.416   7.166
50908SOL    HW254622   8.625  14.294   7.220
50909SOL     OW54623   4.181  13.503   4.620
50909SOL    HW154624   4.093  13.515   4.584
50909SOL    HW254625   4.211  13.591   4.641
50910SOL     OW54626  11.919  10.242   4.291
50910SOL    HW154627  11.965  10.183   4.231
50910SOL    HW254628  11.988  10.277   4.348
50911SOL     OW54629  12.113  13.095   0.282
50911SOL    HW154630  12.102  13.060   0.371
50911SOL    HW254631  12.058  13.174   0.281
50912SOL     OW54632  12.120   0.607   5.890
50912SOL    HW154633  12.073   0.581   5.811
50912SOL    HW254634  12.164   0.688   5.866
50913SOL     OW54635   5.941   8.257   5.850
50913SOL    HW154636   5.877   8.328   5.841
50913SOL    HW254637   5.967   8.258   5.942
50914SOL     OW54638   3.413   3.462  11.189
50914SOL    HW154639   3.457   3.537  11.149
50914SOL    HW254640   3.473   3.432  11.257
50915SOL     OW54641   3.046   8.913   4.551
50915SOL    HW154642   3.033   8.845   4.485
50915SOL    HW254643   3.131   8.952   4.529
50916SOL     OW54644   0.376  11.705   0.461
50916SOL    HW154645   0.461  11.688   0.420
50916SOL    HW254646   0.361  11.798   0.446
50917SOL     OW54647   2.251   3.070  11.613
50917SOL    HW154648   2.186   3.135  11.639
50917SOL    HW254649   2.313   3.118  11.557
50918SOL     OW54650  10.341  13.681   1.972
50918SOL    HW154651  10.393  13.634   1.907
50918SOL    HW254652  10.250  13.661   1.948
50919SOL     OW54653   1.419   4.787  13.394
50919SOL    HW154654   1.404   4.771  13.301
50919SOL    HW254655   1.332   4.796  13.432
50920SOL     OW54656   6.934   4.869   9.361
50920SOL    HW154657   6.884   4.868   9.279
50920SOL    HW254658   6.866   4.873   9.429
50921SOL     OW54659   5.832  11.080   1.133
50921SOL    HW154660   5.858  11.113   1.047
50921SOL    HW254661   5.869  10.992   1.137
50922SOL     OW54662  11.840   6.816  14.553
50922SOL    HW154663  11.845   6.886  14.488
50922SOL    HW254664  11.753   6.779  14.543
50923SOL     OW54665  11.022  12.671  14.752
50923SOL    HW154666  11.046  12.669  14.660
50923SOL    HW254667  11.091  12.620  14.796
50924SOL     OW54668   1.046   5.129  10.113
50924SOL    HW154669   1.062   5.080  10.194
50924SOL    HW254670   0.977   5.191  10.135
50925SOL     OW54671   2.331   0.794   6.910
50925SOL    HW154672   2.385   0.715   6.905
50925SOL    HW254673   2.268   0.777   6.979
50926SOL     OW54674   9.397   8.354  13.930
50926SOL    HW154675   9.322   8.359  13.989
50926SOL    HW254676   9.366   8.304  13.855
50927SOL     OW54677   9.873   4.188   2.140
50927SOL    HW154678   9.787   4.222   2.119
50927SOL    HW254679   9.929   4.217   2.067
50928SOL     OW54680   2.951   2.875   1.067
50928SOL    HW154681   3.010   2.888   1.141
50928SOL    HW254682   2.987   2.930   0.998
50929SOL     OW54683  12.791  14.872   1.875
50929SOL    HW154684  12.873  14.839   1.839
50929SOL    HW254685  12.774  14.817   1.951
50930SOL     OW54686  12.947   5.607   8.326
50930SOL    HW154687  12.885   5.552   8.279
50930SOL    HW254688  12.982   5.666   8.259
50931SOL     OW54689  12.725  13.616  13.156
50931SOL    HW154690  12.670  13.691  13.179
50931SOL    HW254691  12.809  13.636  13.197
50932SOL     OW54692   5.334   7.179  12.704
50932SOL    HW154693   5.426   7.156  12.716
50932SOL    HW254694   5.287   7.123  12.765
50933SOL     OW54695   6.358  13.742   5.618
50933SOL    HW154696   6.295  13.809   5.646
50933SOL    HW254697   6.387  13.700   5.699
50934SOL     OW54698   0.502  13.635   3.902
50934SOL    HW154699   0.582  13.590   3.931
50934SOL    HW254700   0.510  13.637   3.807
50935SOL     OW54701   0.359  14.483  10.436
50935SOL    HW154702   0.447  14.467  10.468
50935SOL    HW254703   0.371  14.518  10.348
50936SOL     OW54704   6.833  10.441   5.244
50936SOL    HW154705   6.792  10.356   5.232
50936SOL    HW254706   6.910  10.424   5.298
50937SOL     OW54707   2.353  14.247   3.180
50937SOL    HW154708   2.370  14.153   3.178
50937SOL    HW254709   2.386  14.278   3.095
50938SOL     OW54710   0.225   0.815  14.241
50938SOL    HW154711   0.315   0.795  14.267
50938SOL    HW254712   0.234   0.869  14.163
50939SOL     OW54713   5.553  13.514  14.793
50939SOL    HW154714   5.526  13.504  14.885
50939SOL    HW254715   5.575  13.607  14.785
50940SOL     OW54716  11.098   5.281  14.819
50940SOL    HW154717  11.137   5.360  14.856
50940SOL    HW254718  11.174   5.226  14.798
50941SOL     OW54719   4.913  13.849   4.151
50941SOL    HW154720   4.950  13.937   4.150
50941SOL    HW254721   4.981  13.793   4.114
50942SOL     OW54722  13.470   6.263  14.483
50942SOL    HW154723  13.422   6.328  14.432
50942SOL    HW254724  13.441   6.277  14.573
50943SOL     OW54725   9.521   0.088   4.925
50943SOL    HW154726   9.474   0.108   5.006
50943SOL    HW254727   9.533   0.173   4.883
50944SOL     OW54728  14.504   8.381   0.153
50944SOL    HW154729  14.433   8.442   0.135
50944SOL    HW254730  14.501   8.318   0.081
50945SOL     OW54731   2.427   4.017   4.429
50945SOL    HW154732   2.340   4.005   4.467
50945SOL    HW254733   2.424   4.104   4.390
50946SOL     OW54734   0.917   4.432   7.733
50946SOL    HW154735   0.871   4.378   7.668
50946SOL    HW254736   0.875   4.518   7.724
50947SOL     OW54737   9.058  11.951  12.677
50947SOL    HW154738   9.102  12.034  12.656
50947SOL    HW254739   8.967  11.976  12.693
50948SOL     OW54740   1.452  12.566   8.576
50948SOL    HW154741   1.509  12.642   8.563
50948SOL    HW254742   1.440  12.560   8.670
50949SOL     OW54743   9.354   1.332  14.214
50949SOL    HW154744   9.297   1.384  14.271
50949SOL    HW254745   9.392   1.396  14.153
50950SOL     OW54746   0.859  10.018   5.146
50950SOL    HW154747   0.891   9.942   5.099
50950SOL    HW254748   0.864   9.994   5.238
50951SOL     OW54749   3.328  12.263   6.308
50951SOL    HW154750   3.397  12.247   6.244
50951SOL    HW254751   3.357  12.341   6.356
50952SOL     OW54752   2.764  10.021   1.741
50952SOL    HW154753   2.744   9.930   1.761
50952SOL    HW254754   2.679  10.065   1.739
50953SOL     OW54755  14.432   2.957  10.073
50953SOL    HW154756  14.364   2.943  10.007
50953SOL    HW254757  14.431   3.051  10.089
50954SOL     OW54758   0.614   6.499   3.964
50954SOL    HW154759   0.656   6.439   4.026
50954SOL    HW254760   0.591   6.444   3.889
50955SOL     OW54761   3.400   1.367   9.037
50955SOL    HW154762   3.385   1.439   8.976
50955SOL    HW254763   3.328   1.306   9.021
50956SOL     OW54764   8.972  14.675   9.730
50956SOL    HW154765   8.971  14.580   9.718
50956SOL    HW254766   9.010  14.709   9.648
50957SOL     OW54767   4.834   1.785  14.638
50957SOL    HW154768   4.801   1.754  14.723
50957SOL    HW254769   4.928   1.800  14.653
50958SOL     OW54770   0.936  12.774  11.002
50958SOL    HW154771   0.981  12.690  11.008
50958SOL    HW254772   0.979  12.819  10.930
50959SOL     OW54773   0.796   1.808   6.580
50959SOL    HW154774   0.702   1.807   6.565
50959SOL    HW254775   0.833   1.827   6.493
50960SOL     OW54776   3.481   3.779   8.788
50960SOL    HW154777   3.419   3.707   8.777
50960SOL    HW254778   3.566   3.736   8.792
50961SOL     OW54779   7.893  14.412   5.790
50961SOL    HW154780   7.917  14.436   5.701
50961SOL    HW254781   7.863  14.494   5.830
50962SOL     OW54782   2.183  14.224   3.827
50962SOL    HW154783   2.224  14.293   3.774
50962SOL    HW254784   2.146  14.164   3.762
50963SOL     OW54785   7.429  14.585   5.885
50963SOL    HW154786   7.425  14.642   5.809
50963SOL    HW254787   7.408  14.642   5.959
50964SOL     OW54788  12.557   4.354  11.904
50964SOL    HW154789  12.629   4.323  11.958
50964SOL    HW254790  12.572   4.315  11.818
50965SOL     OW54791  12.935   5.051   3.044
50965SOL    HW154792  12.933   5.089   3.132
50965SOL    HW254793  12.986   5.112   2.992
50966SOL     OW54794   4.279   9.398   3.009
50966SOL    HW154795   4.269   9.330   3.076
50966SOL    HW254796   4.191   9.411   2.974
50967SOL     OW54797  12.617   5.353   5.031
50967SOL    HW154798  12.580   5.441   5.022
50967SOL    HW254799  12.605   5.313   4.945
50968SOL     OW54800  11.838   6.650   9.023
50968SOL    HW154801  11.760   6.673   8.972
50968SOL    HW254802  11.803   6.623   9.108
50969SOL     OW54803   4.129  11.201   5.024
50969SOL    HW154804   4.073  11.183   5.099
50969SOL    HW254805   4.074  11.253   4.965
50970SOL     OW54806   0.205  12.171  12.328
50970SOL    HW154807   0.240  12.219  12.253
50970SOL    HW254808   0.118  12.210  12.342
50971SOL     OW54809   4.553  10.892   5.786
50971SOL    HW154810   4.523  10.844   5.709
50971SOL    HW254811   4.628  10.942   5.755
50972SOL     OW54812  11.271  13.024   8.243
50972SOL    HW154813  11.311  13.105   8.276
50972SOL    HW254814  11.257  13.040   8.150
50973SOL     OW54815  12.101   5.714   3.967
50973SOL    HW154816  12.105   5.643   3.903
50973SOL    HW254817  12.007   5.729   3.980
50974SOL     OW54818   3.754  14.657   9.188
50974SOL    HW154819   3.791  14.572   9.213
50974SOL    HW254820   3.713  14.690   9.269
50975SOL     OW54821   1.286   9.062  10.790
50975SOL    HW154822   1.315   9.092  10.876
50975SOL    HW254823   1.191   9.051  10.799
50976SOL     OW54824  12.318  10.800   7.733
50976SOL    HW154825  12.276  10.725   7.775
50976SOL    HW254826  12.347  10.766   7.648
50977SOL     OW54827   2.615   1.222   3.542
50977SOL    HW154828   2.652   1.259   3.622
50977SOL    HW254829   2.535   1.177   3.571
50978SOL     OW54830  12.941  13.933  10.524
50978SOL    HW154831  12.919  13.841  10.515
50978SOL    HW254832  12.883  13.965  10.593
50979SOL     OW54833  11.700  13.791   1.818
50979SOL    HW154834  11.629  13.759   1.873
50979SOL    HW254835  11.762  13.718   1.814
50980SOL     OW54836   4.241   2.645  13.404
50980SOL    HW154837   4.215   2.663  13.495
50980SOL    HW254838   4.315   2.585  13.412
50981SOL     OW54839   6.570  12.303  11.769
50981SOL    HW154840   6.548  12.337  11.856
50981SOL    HW254841   6.659  12.268  11.779
50982SOL     OW54842   1.181   4.355   7.087
50982SOL    HW154843   1.267   4.379   7.119
50982SOL    HW254844   1.189   4.357   6.992
50983SOL     OW54845   2.103   4.402   4.178
50983SOL    HW154846   2.191   4.437   4.165
50983SOL    HW254847   2.098   4.327   4.119
50984SOL     OW54848  14.826   3.480   0.094
50984SOL    HW154849   0.024   3.480   0.137
50984SOL    HW254850  14.798   3.571   0.097
50985SOL     OW54851   0.039   9.844   7.492
50985SOL    HW154852  14.835   9.818   7.476
50985SOL    HW254853   0.090   9.764   7.479
50986SOL     OW54854   6.840   9.392   5.444
50986SOL    HW154855   6.908   9.426   5.503
50986SOL    HW254856   6.855   9.298   5.441
50987SOL     OW54857  11.284  11.811   1.345
50987SOL    HW154858  11.247  11.866   1.276
50987SOL    HW254859  11.286  11.868   1.422
50988SOL     OW54860   3.116   7.090   4.728
50988SOL    HW154861   3.087   7.135   4.648
50988SOL    HW254862   3.065   7.009   4.730
50989SOL     OW54863   8.598  11.002   6.059
50989SOL    HW154864   8.651  11.073   6.095
50989SOL    HW254865   8.603  11.014   5.964
50990SOL     OW54866   0.307  13.771  12.314
50990SOL    HW154867   0.317  13.824  12.235
50990SOL    HW254868   0.347  13.824  12.383
50991SOL     OW54869   4.872   9.417  10.985
50991SOL    HW154870   4.841   9.341  11.035
50991SOL    HW254871   4.793   9.456  10.950
50992SOL     OW54872   7.274   1.172  12.696
50992SOL    HW154873   7.201   1.204  12.643
50992SOL    HW254874   7.245   1.087  12.728
50993SOL     OW54875   4.737  14.310  10.193
50993SOL    HW154876   4.726  14.354  10.108
50993SOL    HW254877   4.648  14.286  10.218
50994SOL     OW54878  13.521  11.688  12.194
50994SOL    HW154879  13.489  11.612  12.242
50994SOL    HW254880  13.560  11.651  12.115
50995SOL     OW54881  12.893   2.996  13.422
50995SOL    HW154882  12.885   2.950  13.338
50995SOL    HW254883  12.870   3.087  13.402
50996SOL     OW54884   0.133   0.200  11.197
50996SOL    HW154885   0.166   0.123  11.245
50996SOL    HW254886   0.163   0.275  11.248
50997SOL     OW54887   8.901   9.722   3.364
50997SOL    HW154888   8.833   9.656   3.371
50997SOL    HW254889   8.854   9.804   3.351
50998SOL     OW54890   8.811   1.439   9.434
50998SOL    HW154891   8.821   1.352   9.471
50998SOL    HW254892   8.716   1.455   9.434
50999SOL     OW54893   9.979  10.225   1.892
50999SOL    HW154894   9.898  10.276   1.892
50999SOL    HW254895   9.958  10.147   1.840
51000SOL     OW54896  11.429   1.376   8.299
51000SOL    HW154897  11.356   1.371   8.237
51000SOL    HW254898  11.507   1.380   8.244
51001SOL     OW54899   5.178   7.836   4.692
51001SOL    HW154900   5.182   7.929   4.715
51001SOL    HW254901   5.240   7.826   4.620
51002SOL     OW54902   6.810  12.116   9.584
51002SOL    HW154903   6.842  12.081   9.501
51002SOL    HW254904   6.759  12.045   9.623
51003SOL     OW54905   0.498  10.972   4.735
51003SOL    HW154906   0.555  10.926   4.797
51003SOL    HW254907   0.410  10.963   4.771
51004SOL     OW54908  14.208   5.887  11.404
51004SOL    HW154909  14.226   5.980  11.386
51004SOL    HW254910  14.209   5.845  11.318
51005SOL     OW54911   1.011  14.408   2.689
51005SOL    HW154912   0.916  14.398   2.697
51005SOL    HW254913   1.023  14.499   2.663
51006SOL     OW54914   7.068  13.318  14.349
51006SOL    HW154915   7.037  13.391  14.403
51006SOL    HW254916   7.140  13.280  14.399
51007SOL     OW54917  11.015   8.293  13.399
51007SOL    HW154918  11.109   8.287  13.419
51007SOL    HW254919  11.007   8.372  13.345
51008SOL     OW54920   3.578   4.624  14.474
51008SOL    HW154921   3.554   4.707  14.516
51008SOL    HW254922   3.573   4.643  14.380
51009SOL     OW54923   4.769  14.757   1.396
51009SOL    HW154924   4.738  14.679   1.350
51009SOL    HW254925   4.691  14.813   1.402
51010SOL     OW54926   3.762   3.308   1.205
51010SOL    HW154927   3.720   3.338   1.285
51010SOL    HW254928   3.793   3.220   1.225
51011SOL     OW54929   1.709   6.833   4.424
51011SOL    HW154930   1.801   6.814   4.444
51011SOL    HW254931   1.693   6.917   4.468
51012SOL     OW54932   9.884   0.508  12.348
51012SOL    HW154933   9.892   0.463  12.432
51012SOL    HW254934   9.843   0.443  12.290
51013SOL     OW54935   1.293  10.454   1.861
51013SOL    HW154936   1.337  10.371   1.880
51013SOL    HW254937   1.201  10.438   1.880
51014SOL     OW54938   3.792   1.233  12.846
51014SOL    HW154939   3.877   1.259  12.882
51014SOL    HW254940   3.778   1.293  12.773
51015SOL     OW54941   8.055   6.125   3.353
51015SOL    HW154942   8.135   6.095   3.396
51015SOL    HW254943   7.993   6.053   3.366
51016SOL     OW54944   3.598  13.613   9.155
51016SOL    HW154945   3.550  13.694   9.170
51016SOL    HW254946   3.558  13.550   9.215
51017SOL     OW54947  11.257  13.452  12.762
51017SOL    HW154948  11.254  13.542  12.794
51017SOL    HW254949  11.349  13.438  12.740
51018SOL     OW54950   0.537   2.482   7.275
51018SOL    HW154951   0.522   2.491   7.181
51018SOL    HW254952   0.497   2.398   7.298
51019SOL     OW54953   2.744   4.714   7.364
51019SOL    HW154954   2.652   4.739   7.359
51019SOL    HW254955   2.754   4.647   7.295
51020SOL     OW54956   5.865   0.771   4.355
51020SOL    HW154957   5.948   0.818   4.353
51020SOL    HW254958   5.886   0.688   4.396
51021SOL     OW54959   9.893   3.033  11.925
51021SOL    HW154960   9.854   3.117  11.901
51021SOL    HW254961   9.978   3.056  11.963
51022SOL     OW54962  14.252  11.729   7.648
51022SOL    HW154963  14.226  11.748   7.558
51022SOL    HW254964  14.169  11.728   7.697
51023SOL     OW54965  10.282  12.799   3.538
51023SOL    HW154966  10.370  12.794   3.500
51023SOL    HW254967  10.297  12.800   3.632
51024SOL     OW54968   2.485   9.051  14.219
51024SOL    HW154969   2.518   9.060  14.309
51024SOL    HW254970   2.509   8.962  14.194
51025SOL     OW54971   5.507   4.972   5.780
51025SOL    HW154972   5.504   5.007   5.691
51025SOL    HW254973   5.568   5.029   5.827
51026SOL     OW54974   0.491  12.480   6.075
51026SOL    HW154975   0.516  12.561   6.120
51026SOL    HW254976   0.397  12.489   6.060
51027SOL     OW54977   7.087   8.071   8.174
51027SOL    HW154978   7.000   8.110   8.182
51027SOL    HW254979   7.147   8.145   8.176
51028SOL     OW54980   8.807  11.247   1.209
51028SOL    HW154981   8.712  11.264   1.211
51028SOL    HW254982   8.821  11.179   1.275
51029SOL     OW54983  12.448  10.437  14.142
51029SOL    HW154984  12.526  10.459  14.091
51029SOL    HW254985  12.462  10.346  14.169
51030SOL     OW54986   7.488   4.435   0.984
51030SOL    HW154987   7.446   4.420   1.069
51030SOL    HW254988   7.514   4.347   0.956
51031SOL     OW54989   3.808  12.376   2.046
51031SOL    HW154990   3.716  12.374   2.023
51031SOL    HW254991   3.816  12.317   2.121
51032SOL     OW54992   8.773   9.043   2.496
51032SOL    HW154993   8.740   9.058   2.585
51032SOL    HW254994   8.696   9.051   2.440
51033SOL     OW54995   7.163  10.299   7.887
51033SOL    HW154996   7.103  10.225   7.878
51033SOL    HW254997   7.212  10.301   7.805
51034SOL     OW54998   3.422   4.792   9.149
51034SOL    HW154999   3.338   4.755   9.176
51034SOL    HW255000   3.487   4.730   9.183
51035SOL     OW55001  14.047   1.799  12.713
51035SOL    HW155002  14.089   1.727  12.666
51035SOL    HW255003  13.968   1.760  12.751
51036SOL     OW55004  13.281   2.194   6.881
51036SOL    HW155005  13.218   2.180   6.951
51036SOL    HW255006  13.361   2.223   6.926
51037SOL     OW55007   8.469   1.865   1.435
51037SOL    HW155008   8.508   1.836   1.353
51037SOL    HW255009   8.434   1.785   1.475
51038SOL     OW55010   1.714  13.529  13.343
51038SOL    HW155011   1.643  13.515  13.281
51038SOL    HW255012   1.727  13.443  13.384
51039SOL     OW55013  14.813  12.176   8.474
51039SOL    HW155014   0.001  12.232   8.456
51039SOL    HW255015  14.737  12.234   8.461
51040SOL     OW55016   2.137   1.537  14.815
51040SOL    HW155017   2.087   1.509  14.738
51040SOL    HW255018   2.158   1.629  14.797
51041SOL     OW55019   9.139   1.762   4.344
51041SOL    HW155020   9.231   1.781   4.362
51041SOL    HW255021   9.093   1.844   4.363
51042SOL     OW55022  10.819   5.203   0.016
51042SOL    HW155023  10.891   5.224  14.844
51042SOL    HW255024  10.806   5.283   0.067
51043SOL     OW55025   6.184   2.515  14.783
51043SOL    HW155026   6.268   2.483  14.815
51043SOL    HW255027   6.121   2.483  14.848
51044SOL     OW55028   5.729   9.690   1.664
51044SOL    HW155029   5.800   9.655   1.718
51044SOL    HW255030   5.772   9.721   1.585
51045SOL     OW55031  14.126  13.433   3.958
51045SOL    HW155032  14.067  13.365   3.924
51045SOL    HW255033  14.189  13.385   4.012
51046SOL     OW55034   2.124  10.554   4.437
51046SOL    HW155035   2.032  10.579   4.440
51046SOL    HW255036   2.124  10.462   4.414
51047SOL     OW55037  11.908   3.714   5.431
51047SOL    HW155038  11.934   3.803   5.406
51047SOL    HW255039  11.837   3.692   5.370
51048SOL     OW55040   1.838   6.530   8.857
51048SOL    HW155041   1.755   6.485   8.866
51048SOL    HW255042   1.854   6.533   8.763
51049SOL     OW55043   3.988   7.340   0.307
51049SOL    HW155044   4.050   7.364   0.376
51049SOL    HW255045   4.040   7.296   0.241
51050SOL     OW55046   2.532   5.710  10.648
51050SOL    HW155047   2.535   5.805  10.651
51050SOL    HW255048   2.509   5.689  10.557
51051SOL     OW55049   4.460   5.383   2.091
51051SOL    HW155050   4.369   5.390   2.120
51051SOL    HW255051   4.460   5.306   2.033
51052SOL     OW55052   3.588   6.379  14.530
51052SOL    HW155053   3.496   6.376  14.555
51052SOL    HW255054   3.601   6.467  14.494
51053SOL     OW55055   8.397   1.152   5.246
51053SOL    HW155056   8.447   1.171   5.167
51053SOL    HW255057   8.435   1.070   5.279
51054SOL     OW55058  10.425   3.145   3.658
51054SOL    HW155059  10.445   3.051   3.658
51054SOL    HW255060  10.365   3.156   3.585
51055SOL     OW55061  11.172   8.620  12.377
51055SOL    HW155062  11.220   8.701  12.396
51055SOL    HW255063  11.194   8.599  12.286
51056SOL     OW55064   5.962   4.388   4.527
51056SOL    HW155065   5.926   4.455   4.469
51056SOL    HW255066   5.989   4.435   4.605
51057SOL     OW55067   1.737  10.754   9.746
51057SOL    HW155068   1.645  10.730   9.759
51057SOL    HW255069   1.734  10.838   9.700
51058SOL     OW55070   9.238   5.180  13.553
51058SOL    HW155071   9.227   5.269  13.518
51058SOL    HW255072   9.317   5.185  13.607
51059SOL     OW55073   0.681  14.630  13.574
51059SOL    HW155074   0.680  14.670  13.487
51059SOL    HW255075   0.740  14.686  13.625
51060SOL     OW55076   3.108   8.495   4.643
51060SOL    HW155077   3.022   8.513   4.606
51060SOL    HW255078   3.100   8.407   4.680
51061SOL     OW55079   6.758   3.114  10.501
51061SOL    HW155080   6.744   3.208  10.500
51061SOL    HW255081   6.837   3.102  10.553
51062SOL     OW55082   9.175   8.233  13.066
51062SOL    HW155083   9.266   8.255  13.050
51062SOL    HW255084   9.125   8.293  13.010
51063SOL     OW55085   6.256  12.741  13.360
51063SOL    HW155086   6.295  12.745  13.273
51063SOL    HW255087   6.317  12.788  13.417
51064SOL     OW55088  12.841   0.135  13.825
51064SOL    HW155089  12.858   0.045  13.854
51064SOL    HW255090  12.782   0.125  13.749
51065SOL     OW55091   5.013   4.098  13.058
51065SOL    HW155092   5.007   4.146  12.975
51065SOL    HW255093   4.964   4.151  13.120
51066SOL     OW55094   9.809   6.313   7.736
51066SOL    HW155095   9.836   6.338   7.647
51066SOL    HW255096   9.816   6.217   7.736
51067SOL     OW55097   5.370   1.181  14.304
51067SOL    HW155098   5.383   1.091  14.332
51067SOL    HW255099   5.440   1.197  14.241
51068SOL     OW55100  11.692   4.910   3.837
51068SOL    HW155101  11.605   4.909   3.878
51068SOL    HW255102  11.726   4.822   3.851
51069SOL     OW55103   3.247   7.697   1.421
51069SOL    HW155104   3.163   7.724   1.384
51069SOL    HW255105   3.266   7.614   1.377
51070SOL     OW55106   9.484   1.521   0.304
51070SOL    HW155107   9.510   1.514   0.396
51070SOL    HW255108   9.539   1.592   0.269
51071SOL     OW55109   1.324  11.176  13.026
51071SOL    HW155110   1.412  11.173  12.987
51071SOL    HW255111   1.266  11.194  12.952
51072SOL     OW55112   4.741   6.981   1.390
51072SOL    HW155113   4.740   6.886   1.374
51072SOL    HW255114   4.802   6.993   1.462
51073SOL     OW55115  10.340   7.510   8.155
51073SOL    HW155116  10.366   7.425   8.191
51073SOL    HW255117  10.398   7.523   8.080
51074SOL     OW55118   2.616   3.019   3.837
51074SOL    HW155119   2.553   2.949   3.821
51074SOL    HW255120   2.701   2.975   3.838
51075SOL     OW55121  12.039   0.725   4.982
51075SOL    HW155122  12.011   0.769   4.902
51075SOL    HW255123  11.958   0.694   5.022
51076SOL     OW55124  10.228   8.977   1.899
51076SOL    HW155125  10.194   8.908   1.956
51076SOL    HW255126  10.275   9.036   1.958
51077SOL     OW55127   4.494   9.559   6.408
51077SOL    HW155128   4.474   9.569   6.501
51077SOL    HW255129   4.572   9.503   6.406
51078SOL     OW55130   7.148   1.369  11.070
51078SOL    HW155131   7.092   1.298  11.101
51078SOL    HW255132   7.231   1.356  11.116
51079SOL     OW55133   7.242   3.429   9.344
51079SOL    HW155134   7.216   3.507   9.295
51079SOL    HW255135   7.335   3.440   9.360
51080SOL     OW55136   1.787   4.133  10.769
51080SOL    HW155137   1.745   4.048  10.782
51080SOL    HW255138   1.802   4.138  10.675
51081SOL     OW55139   2.417  10.521   6.923
51081SOL    HW155140   2.328  10.529   6.888
51081SOL    HW255141   2.440  10.429   6.908
51082SOL     OW55142  11.855   6.512   1.362
51082SOL    HW155143  11.832   6.583   1.422
51082SOL    HW255144  11.894   6.445   1.419
51083SOL     OW55145   6.138   4.540   6.332
51083SOL    HW155146   6.233   4.533   6.338
51083SOL    HW255147   6.117   4.621   6.378
51084SOL     OW55148   5.833   2.701   6.852
51084SOL    HW155149   5.868   2.694   6.941
51084SOL    HW255150   5.744   2.667   6.858
51085SOL     OW55151   6.746   8.648   0.406
51085SOL    HW155152   6.767   8.556   0.395
51085SOL    HW255153   6.762   8.666   0.498
51086SOL     OW55154  12.811  11.118   0.567
51086SOL    HW155155  12.754  11.113   0.644
51086SOL    HW255156  12.883  11.175   0.594
51087SOL     OW55157   8.794  12.857   7.082
51087SOL    HW155158   8.724  12.839   7.146
51087SOL    HW255159   8.874  12.834   7.129
51088SOL     OW55160  12.465  14.105  10.072
51088SOL    HW155161  12.422  14.157  10.004
51088SOL    HW255162  12.529  14.164  10.111
51089SOL     OW55163   3.995   5.186   7.675
51089SOL    HW155164   3.928   5.150   7.734
51089SOL    HW255165   4.074   5.191   7.729
51090SOL     OW55166   4.416  10.529   8.499
51090SOL    HW155167   4.430  10.620   8.474
51090SOL    HW255168   4.443  10.524   8.590
51091SOL     OW55169   3.882   2.822   6.569
51091SOL    HW155170   3.818   2.782   6.510
51091SOL    HW255171   3.959   2.765   6.565
51092SOL     OW55172  13.129   5.933   6.039
51092SOL    HW155173  13.071   5.919   6.113
51092SOL    HW255174  13.168   6.019   6.055
51093SOL     OW55175   6.186   8.973   8.876
51093SOL    HW155176   6.129   8.968   8.952
51093SOL    HW255177   6.137   8.930   8.806
51094SOL     OW55178  12.885   6.300  10.392
51094SOL    HW155179  12.878   6.381  10.342
51094SOL    HW255180  12.836   6.317  10.473
51095SOL     OW55181  12.662   0.629   2.608
51095SOL    HW155182  12.670   0.638   2.703
51095SOL    HW255183  12.575   0.664   2.587
51096SOL     OW55184   0.528  10.126   3.564
51096SOL    HW155185   0.561  10.176   3.489
51096SOL    HW255186   0.438  10.104   3.540
51097SOL     OW55187  12.867  12.610   2.422
51097SOL    HW155188  12.840  12.553   2.494
51097SOL    HW255189  12.830  12.696   2.444
51098SOL     OW55190   3.080   0.573   6.649
51098SOL    HW155191   2.999   0.625   6.650
51098SOL    HW255192   3.143   0.627   6.696
51099SOL     OW55193   5.252   3.548   7.639
51099SOL    HW155194   5.199   3.556   7.560
51099SOL    HW255195   5.206   3.482   7.691
51100SOL     OW55196  14.674  10.346   9.448
51100SOL    HW155197  14.677  10.442   9.443
51100SOL    HW255198  14.736  10.317   9.381
51101SOL     OW55199  10.660  14.714   3.548
51101SOL    HW155200  10.622  14.787   3.499
51101SOL    HW255201  10.613  14.714   3.631
51102SOL     OW55202  14.776   1.245   8.161
51102SOL    HW155203  14.698   1.190   8.170
51102SOL    HW255204  14.751   1.313   8.099
51103SOL     OW55205  14.085  10.516  12.295
51103SOL    HW155206  14.099  10.532  12.388
51103SOL    HW255207  14.025  10.442  12.292
51104SOL     OW55208   8.271   1.913  13.242
51104SOL    HW155209   8.189   1.889  13.286
51104SOL    HW255210   8.339   1.877  13.298
51105SOL     OW55211   4.676   5.681   7.965
51105SOL    HW155212   4.695   5.760   7.914
51105SOL    HW255213   4.761   5.654   8.000
51106SOL     OW55214   9.999  13.811   6.333
51106SOL    HW155215   9.968  13.768   6.412
51106SOL    HW255216   9.952  13.894   6.330
51107SOL     OW55217   4.271   3.889   8.499
51107SOL    HW155218   4.357   3.851   8.484
51107SOL    HW255219   4.288   3.981   8.522
51108SOL     OW55220   2.234   6.491   3.176
51108SOL    HW155221   2.152   6.458   3.213
51108SOL    HW255222   2.230   6.586   3.191
51109SOL     OW55223  10.299   0.955  14.270
51109SOL    HW155224  10.309   1.049  14.282
51109SOL    HW255225  10.230   0.930  14.332
51110SOL     OW55226   2.227   0.886   5.058
51110SOL    HW155227   2.307   0.935   5.075
51110SOL    HW255228   2.161   0.926   5.114
51111SOL     OW55229   2.684   9.282   3.703
51111SOL    HW155230   2.628   9.360   3.704
51111SOL    HW255231   2.641   9.221   3.762
51112SOL     OW55232   0.704  13.794   1.400
51112SOL    HW155233   0.696  13.807   1.306
51112SOL    HW255234   0.737  13.878   1.433
51113SOL     OW55235   7.358   0.434   7.144
51113SOL    HW155236   7.423   0.380   7.188
51113SOL    HW255237   7.339   0.504   7.206
51114SOL     OW55238  10.576   4.742  12.793
51114SOL    HW155239  10.569   4.765  12.886
51114SOL    HW255240  10.486   4.718  12.768
51115SOL     OW55241   8.522   2.925  13.897
51115SOL    HW155242   8.505   2.844  13.944
51115SOL    HW255243   8.436   2.954  13.866
51116SOL     OW55244   6.486   4.969   1.765
51116SOL    HW155245   6.469   4.875   1.773
51116SOL    HW255246   6.407   5.010   1.800
51117SOL     OW55247   1.390   6.636   9.668
51117SOL    HW155248   1.335   6.608   9.742
51117SOL    HW255249   1.328   6.669   9.604
51118SOL     OW55250  10.626   4.143  11.050
51118SOL    HW155251  10.636   4.098  10.966
51118SOL    HW255252  10.552   4.202  11.037
51119SOL     OW55253   2.341   0.159   0.663
51119SOL    HW155254   2.274   0.104   0.705
51119SOL    HW255255   2.345   0.127   0.573
51120SOL     OW55256   6.940   9.228  12.830
51120SOL    HW155257   7.016   9.202  12.882
51120SOL    HW255258   6.972   9.301  12.776
51121SOL     OW55259   3.360   3.562   9.037
51121SOL    HW155260   3.364   3.544   8.943
51121SOL    HW255261   3.406   3.489   9.077
51122SOL     OW55262   7.140  10.420  11.965
51122SOL    HW155263   7.220  10.372  11.943
51122SOL    HW255264   7.074  10.352  11.978
51123SOL     OW55265   0.229   0.180   9.928
51123SOL    HW155266   0.264   0.103   9.974
51123SOL    HW255267   0.277   0.182   9.846
51124SOL     OW55268  11.783  13.460  14.687
51124SOL    HW155269  11.751  13.397  14.751
51124SOL    HW255270  11.848  13.411  14.636
51125SOL     OW55271   7.062   2.116   8.984
51125SOL    HW155272   6.971   2.139   8.999
51125SOL    HW255273   7.066   2.091   8.892
51126SOL     OW55274  13.294   8.902   9.945
51126SOL    HW155275  13.220   8.950   9.981
51126SOL    HW255276  13.316   8.837  10.012
51127SOL     OW55277  13.532   0.279   4.852
51127SOL    HW155278  13.547   0.340   4.779
51127SOL    HW255279  13.437   0.268   4.854
51128SOL     OW55280   7.348   0.581   7.701
51128SOL    HW155281   7.381   0.569   7.790
51128SOL    HW255282   7.271   0.525   7.696
51129SOL     OW55283   2.975  11.951   2.343
51129SOL    HW155284   3.005  12.036   2.313
51129SOL    HW255285   2.937  11.967   2.430
51130SOL     OW55286   3.833   6.490  10.660
51130SOL    HW155287   3.824   6.506  10.566
51130SOL    HW255288   3.926   6.477  10.674
51131SOL     OW55289  14.596   2.512   1.026
51131SOL    HW155290  14.576   2.552   1.111
51131SOL    HW255291  14.689   2.532   1.012
51132SOL     OW55292   2.310   7.627   6.462
51132SOL    HW155293   2.354   7.671   6.535
51132SOL    HW255294   2.292   7.697   6.399
51133SOL     OW55295   4.677  12.163   7.560
51133SOL    HW155296   4.753  12.107   7.549
51133SOL    HW255297   4.636  12.165   7.473
51134SOL     OW55298   9.616  10.368  13.480
51134SOL    HW155299   9.688  10.314  13.514
51134SOL    HW255300   9.660  10.437  13.430
51135SOL     OW55301  13.482   2.555   5.599
51135SOL    HW155302  13.440   2.641   5.593
51135SOL    HW255303  13.445   2.506   5.525
51136SOL     OW55304   8.701  12.476   4.559
51136SOL    HW155305   8.676  12.541   4.493
51136SOL    HW255306   8.632  12.410   4.555
51137SOL     OW55307   0.986  13.863   5.729
51137SOL    HW155308   0.895  13.849   5.704
51137SOL    HW255309   1.022  13.775   5.739
51138SOL     OW55310   5.324   4.718  14.074
51138SOL    HW155311   5.335   4.774  14.150
51138SOL    HW255312   5.404   4.731  14.023
51139SOL     OW55313   9.489   0.572   6.279
51139SOL    HW155314   9.503   0.656   6.321
51139SOL    HW255315   9.574   0.528   6.284
51140SOL     OW55316   4.071   3.217  11.582
51140SOL    HW155317   4.032   3.130  11.589
51140SOL    HW255318   4.159   3.208  11.618
51141SOL     OW55319  13.619   7.426   1.699
51141SOL    HW155320  13.604   7.514   1.734
51141SOL    HW255321  13.670   7.440   1.619
51142SOL     OW55322   2.938   4.319   5.946
51142SOL    HW155323   2.886   4.393   5.915
51142SOL    HW255324   3.024   4.357   5.965
51143SOL     OW55325   1.069   5.413   6.998
51143SOL    HW155326   1.144   5.379   6.948
51143SOL    HW255327   1.070   5.362   7.079
51144SOL     OW55328  13.789  11.881   8.720
51144SOL    HW155329  13.786  11.902   8.814
51144SOL    HW255330  13.844  11.803   8.715
51145SOL     OW55331   4.860   5.557   1.945
51145SOL    HW155332   4.778   5.594   1.911
51145SOL    HW255333   4.854   5.464   1.925
51146SOL     OW55334   1.825   9.118   9.012
51146SOL    HW155335   1.915   9.103   9.039
51146SOL    HW255336   1.778   9.038   9.039
51147SOL     OW55337   0.335   1.646  14.183
51147SOL    HW155338   0.353   1.721  14.241
51147SOL    HW255339   0.268   1.679  14.123
51148SOL     OW55340   9.347   1.347  13.096
51148SOL    HW155341   9.318   1.258  13.073
51148SOL    HW255342   9.429   1.358  13.049
51149SOL     OW55343  13.942  11.174  13.255
51149SOL    HW155344  13.862  11.139  13.215
51149SOL    HW255345  13.916  11.258  13.292
51150SOL     OW55346   4.359  12.222   9.666
51150SOL    HW155347   4.307  12.232   9.746
51150SOL    HW255348   4.329  12.139   9.629
51151SOL     OW55349   6.955  10.522   2.509
51151SOL    HW155350   6.978  10.607   2.547
51151SOL    HW255351   7.038  10.488   2.475
51152SOL     OW55352   4.533  12.499   2.756
51152SOL    HW155353   4.455  12.534   2.798
51152SOL    HW255354   4.523  12.523   2.664
51153SOL     OW55355  13.706  11.958   7.997
51153SOL    HW155356  13.636  12.022   8.005
51153SOL    HW255357  13.750  11.981   7.914
51154SOL     OW55358   5.799  14.727   6.422
51154SOL    HW155359   5.808  14.799   6.360
51154SOL    HW255360   5.855  14.658   6.388
51155SOL     OW55361   7.763  11.604   6.413
51155SOL    HW155362   7.834  11.541   6.403
51155SOL    HW255363   7.697  11.576   6.349
51156SOL     OW55364   5.463  11.364   3.829
51156SOL    HW155365   5.552  11.348   3.859
51156SOL    HW255366   5.418  11.280   3.840
51157SOL     OW55367   9.979   8.005  14.648
51157SOL    HW155368  10.039   8.026  14.720
51157SOL    HW255369   9.892   8.007  14.688
51158SOL     OW55370   0.763   2.437  10.359
51158SOL    HW155371   0.795   2.378  10.290
51158SOL    HW255372   0.675   2.461  10.331
51159SOL     OW55373   1.073  14.186   8.165
51159SOL    HW155374   1.015  14.166   8.238
51159SOL    HW255375   1.145  14.123   8.175
51160SOL     OW55376   5.326   9.802  13.004
51160SOL    HW155377   5.338   9.879  12.948
51160SOL    HW255378   5.414   9.767  13.016
51161SOL     OW55379   9.563   8.509   0.755
51161SOL    HW155380   9.573   8.437   0.693
51161SOL    HW255381   9.477   8.547   0.735
51162SOL     OW55382   5.102   5.306   7.733
51162SOL    HW155383   5.165   5.366   7.772
51162SOL    HW255384   5.018   5.330   7.773
51163SOL     OW55385  11.434   4.371   8.633
51163SOL    HW155386  11.460   4.430   8.562
51163SOL    HW255387  11.380   4.426   8.690
51164SOL     OW55388  12.283   9.974  14.682
51164SOL    HW155389  12.294   9.991  14.776
51164SOL    HW255390  12.310   9.883  14.670
51165SOL     OW55391   9.920  11.204   4.371
51165SOL    HW155392   9.865  11.274   4.405
51165SOL    HW255393   9.896  11.195   4.279
51166SOL     OW55394   2.518  14.224   6.518
51166SOL    HW155395   2.440  14.273   6.542
51166SOL    HW255396   2.573  14.225   6.597
51167SOL     OW55397  12.080  10.636   4.671
51167SOL    HW155398  12.103  10.550   4.706
51167SOL    HW255399  11.996  10.622   4.627
51168SOL     OW55400  11.687   7.352   9.667
51168SOL    HW155401  11.694   7.270   9.617
51168SOL    HW255402  11.763   7.404   9.639
51169SOL     OW55403  13.151   1.690   7.804
51169SOL    HW155404  13.193   1.634   7.869
51169SOL    HW255405  13.182   1.657   7.720
51170SOL     OW55406   3.926  13.723  12.319
51170SOL    HW155407   3.921  13.790  12.251
51170SOL    HW255408   4.020  13.704  12.326
51171SOL     OW55409   3.175  10.449   8.859
51171SOL    HW155410   3.156  10.423   8.769
51171SOL    HW255411   3.132  10.382   8.912
51172SOL     OW55412   5.165   3.813   4.384
51172SOL    HW155413   5.189   3.875   4.454
51172SOL    HW255414   5.121   3.867   4.319
51173SOL     OW55415  12.818  11.814   0.134
51173SOL    HW155416  12.736  11.804   0.087
51173SOL    HW255417  12.810  11.898   0.179
51174SOL     OW55418   1.303   3.223   2.693
51174SOL    HW155419   1.387   3.177   2.696
51174SOL    HW255420   1.278   3.220   2.601
51175SOL     OW55421   6.479   8.705   5.194
51175SOL    HW155422   6.512   8.638   5.134
51175SOL    HW255423   6.410   8.750   5.144
51176SOL     OW55424   9.469  13.879   8.097
51176SOL    HW155425   9.376  13.890   8.082
51176SOL    HW255426   9.503  13.968   8.104
51177SOL     OW55427   0.970   8.779   2.483
51177SOL    HW155428   0.967   8.815   2.394
51177SOL    HW255429   0.990   8.686   2.470
51178SOL     OW55430   2.905  13.535  13.852
51178SOL    HW155431   2.911  13.614  13.799
51178SOL    HW255432   2.932  13.564  13.940
51179SOL     OW55433   7.088   9.988   4.085
51179SOL    HW155434   7.041  10.069   4.106
51179SOL    HW255435   7.076   9.977   3.991
51180SOL     OW55436  13.628   7.059  12.387
51180SOL    HW155437  13.615   7.080  12.294
51180SOL    HW255438  13.613   6.965  12.393
51181SOL     OW55439   8.503   6.158   4.962
51181SOL    HW155440   8.512   6.078   5.014
51181SOL    HW255441   8.408   6.169   4.952
51182SOL     OW55442   4.117   6.580  11.002
51182SOL    HW155443   4.201   6.566  10.958
51182SOL    HW255444   4.107   6.504  11.060
51183SOL     OW55445   2.011  11.755   4.712
51183SOL    HW155446   2.002  11.714   4.799
51183SOL    HW255447   2.087  11.813   4.721
51184SOL     OW55448   8.881   9.052   0.462
51184SOL    HW155449   8.850   8.969   0.499
51184SOL    HW255450   8.828   9.119   0.505
51185SOL     OW55451  12.368   6.154  12.021
51185SOL    HW155452  12.434   6.097  12.060
51185SOL    HW255453  12.285   6.118  12.052
51186SOL     OW55454  13.241   0.576  12.871
51186SOL    HW155455  13.321   0.577  12.925
51186SOL    HW255456  13.172   0.550  12.932
51187SOL     OW55457  13.609   9.580   5.215
51187SOL    HW155458  13.592   9.626   5.297
51187SOL    HW255459  13.704   9.574   5.209
51188SOL     OW55460   8.639   2.229   4.013
51188SOL    HW155461   8.680   2.315   4.010
51188SOL    HW255462   8.644   2.197   3.923
51189SOL     OW55463  14.863   9.232  12.819
51189SOL    HW155464  14.855   9.140  12.796
51189SOL    HW255465   0.054   9.262  12.773
51190SOL     OW55466   3.643  14.369   2.418
51190SOL    HW155467   3.633  14.300   2.483
51190SOL    HW255468   3.690  14.439   2.464
51191SOL     OW55469   3.901  13.175   4.732
51191SOL    HW155470   3.851  13.243   4.777
51191SOL    HW255471   3.992  13.205   4.739
51192SOL     OW55472   1.343   1.845   2.163
51192SOL    HW155473   1.358   1.909   2.232
51192SOL    HW255474   1.408   1.776   2.180
51193SOL     OW55475  11.954   7.702   5.805
51193SOL    HW155476  11.960   7.765   5.877
51193SOL    HW255477  12.017   7.734   5.740
51194SOL     OW55478   9.707   6.170   3.955
51194SOL    HW155479   9.647   6.189   4.027
51194SOL    HW255480   9.789   6.144   3.998
51195SOL     OW55481   6.608   6.852   3.954
51195SOL    HW155482   6.514   6.861   3.939
51195SOL    HW255483   6.620   6.875   4.046
51196SOL     OW55484   7.379   5.100  10.619
51196SOL    HW155485   7.343   5.101  10.707
51196SOL    HW255486   7.419   5.013  10.610
51197SOL     OW55487  14.584  12.623   0.381
51197SOL    HW155488  14.564  12.544   0.431
51197SOL    HW255489  14.513  12.629   0.316
51198SOL     OW55490   7.807   2.120   5.864
51198SOL    HW155491   7.791   2.055   5.795
51198SOL    HW255492   7.736   2.183   5.855
51199SOL     OW55493  13.602   0.130   0.034
51199SOL    HW155494  13.619   0.214  14.879
51199SOL    HW255495  13.558   0.077  14.855
51200SOL     OW55496   7.727   2.722  11.738
51200SOL    HW155497   7.691   2.669  11.668
51200SOL    HW255498   7.650   2.754  11.785
51201SOL     OW55499   5.238   0.132   0.670
51201SOL    HW155500   5.249   0.051   0.719
51201SOL    HW255501   5.212   0.197   0.735
51202SOL     OW55502   9.552   3.653   8.028
51202SOL    HW155503   9.512   3.658   7.941
51202SOL    HW255504   9.578   3.743   8.047
51203SOL     OW55505  13.745   1.253  14.772
51203SOL    HW155506  13.747   1.208  14.688
51203SOL    HW255507  13.768   1.185  14.836
51204SOL     OW55508   2.963   1.062   6.082
51204SOL    HW155509   3.021   1.016   6.022
51204SOL    HW255510   2.890   1.091   6.027
51205SOL     OW55511   6.569   4.022  12.324
51205SOL    HW155512   6.636   4.055  12.264
51205SOL    HW255513   6.486   4.048  12.285
51206SOL     OW55514   0.435  11.948   3.397
51206SOL    HW155515   0.421  12.043   3.407
51206SOL    HW255516   0.368  11.908   3.452
51207SOL     OW55517   1.814   1.744   1.113
51207SOL    HW155518   1.887   1.740   1.051
51207SOL    HW255519   1.802   1.653   1.140
51208SOL     OW55520  13.110  14.823   7.665
51208SOL    HW155521  13.098  14.780   7.580
51208SOL    HW255522  13.021  14.838   7.698
51209SOL     OW55523  14.564  13.322   3.589
51209SOL    HW155524  14.530  13.242   3.629
51209SOL    HW255525  14.647  13.337   3.634
51210SOL     OW55526   8.004   1.769   3.861
51210SOL    HW155527   8.046   1.775   3.775
51210SOL    HW255528   8.076   1.770   3.924
51211SOL     OW55529   7.107   3.789   1.713
51211SOL    HW155530   7.037   3.849   1.687
51211SOL    HW255531   7.188   3.834   1.687
51212SOL     OW55532   0.290  10.325   6.490
51212SOL    HW155533   0.208  10.311   6.444
51212SOL    HW255534   0.298  10.420   6.496
51213SOL     OW55535  12.825   7.510   1.034
51213SOL    HW155536  12.794   7.581   0.978
51213SOL    HW255537  12.852   7.553   1.115
51214SOL     OW55538  13.666  11.715  14.484
51214SOL    HW155539  13.655  11.637  14.538
51214SOL    HW255540  13.726  11.770  14.535
51215SOL     OW55541   1.984  11.624   2.104
51215SOL    HW155542   1.998  11.607   2.011
51215SOL    HW255543   2.011  11.715   2.117
51216SOL     OW55544   6.152   6.408   5.426
51216SOL    HW155545   6.077   6.409   5.366
51216SOL    HW255546   6.123   6.354   5.499
51217SOL     OW55547   2.939  14.045   9.354
51217SOL    HW155548   2.959  13.988   9.280
51217SOL    HW255549   3.021  14.051   9.403
51218SOL     OW55550   1.220  14.511  10.160
51218SOL    HW155551   1.253  14.480  10.076
51218SOL    HW255552   1.125  14.511  10.150
51219SOL     OW55553   2.812   0.513  14.092
51219SOL    HW155554   2.812   0.479  14.182
51219SOL    HW255555   2.904   0.528  14.073
51220SOL     OW55556  14.774  14.239   2.098
51220SOL    HW155557  14.738  14.214   2.013
51220SOL    HW255558  14.846  14.178   2.113
51221SOL     OW55559   1.528  10.852  10.266
51221SOL    HW155560   1.610  10.830  10.222
51221SOL    HW255561   1.533  10.807  10.350
51222SOL     OW55562   5.563  14.597   6.463
51222SOL    HW155563   5.580  14.554   6.547
51222SOL    HW255564   5.644  14.646   6.445
51223SOL     OW55565   9.224  12.279   8.745
51223SOL    HW155566   9.170  12.257   8.669
51223SOL    HW255567   9.280  12.202   8.758
51224SOL     OW55568   1.615   6.890  12.571
51224SOL    HW155569   1.541   6.837  12.600
51224SOL    HW255570   1.691   6.852  12.616
51225SOL     OW55571  14.079   2.982   0.819
51225SOL    HW155572  14.102   2.893   0.846
51225SOL    HW255573  14.103   2.986   0.727
51226SOL     OW55574   4.137  13.133   3.490
51226SOL    HW155575   4.085  13.060   3.458
51226SOL    HW255576   4.073  13.203   3.505
51227SOL     OW55577   7.216  12.990   4.170
51227SOL    HW155578   7.209  13.035   4.254
51227SOL    HW255579   7.160  12.913   4.179
51228SOL     OW55580   8.806   5.633   1.106
51228SOL    HW155581   8.713   5.619   1.120
51228SOL    HW255582   8.812   5.718   1.061
51229SOL     OW55583  14.605   9.886   4.045
51229SOL    HW155584  14.584   9.965   3.995
51229SOL    HW255585  14.569   9.902   4.132
51230SOL     OW55586  12.899  12.259  13.063
51230SOL    HW155587  12.976  12.308  13.035
51230SOL    HW255588  12.852  12.239  12.982
51231SOL     OW55589   7.535   3.163   3.105
51231SOL    HW155590   7.557   3.078   3.144
51231SOL    HW255591   7.486   3.142   3.026
51232SOL     OW55592   6.401  13.183   8.421
51232SOL    HW155593   6.425  13.091   8.407
51232SOL    HW255594   6.453  13.210   8.496
51233SOL     OW55595  14.487   0.985   7.444
51233SOL    HW155596  14.490   0.893   7.467
51233SOL    HW255597  14.422   0.990   7.374
51234SOL     OW55598   3.747   5.945  12.801
51234SOL    HW155599   3.671   5.929  12.744
51234SOL    HW255600   3.719   5.912  12.887
51235SOL     OW55601   6.538   3.986   5.795
51235SOL    HW155602   6.567   4.043   5.724
51235SOL    HW255603   6.464   3.938   5.758
51236SOL     OW55604  13.021   4.699  13.743
51236SOL    HW155605  13.103   4.749  13.747
51236SOL    HW255606  12.960   4.749  13.797
51237SOL     OW55607  13.849  13.620   1.141
51237SOL    HW155608  13.892  13.611   1.225
51237SOL    HW255609  13.899  13.686   1.094
51238SOL     OW55610   0.650   5.056   9.120
51238SOL    HW155611   0.612   5.012   9.044
51238SOL    HW255612   0.591   5.033   9.192
51239SOL     OW55613   5.026   9.652   5.008
51239SOL    HW155614   5.021   9.745   5.031
51239SOL    HW255615   5.021   9.606   5.092
51240SOL     OW55616   9.696   9.890   7.507
51240SOL    HW155617   9.684   9.981   7.478
51240SOL    HW255618   9.745   9.897   7.588
51241SOL     OW55619   6.173  14.795   9.253
51241SOL    HW155620   6.167  14.714   9.303
51241SOL    HW255621   6.176  14.864   9.319
51242SOL     OW55622  12.973  12.339   6.503
51242SOL    HW155623  12.958  12.262   6.557
51242SOL    HW255624  12.926  12.321   6.422
51243SOL     OW55625   2.385   8.478  13.727
51243SOL    HW155626   2.338   8.534  13.665
51243SOL    HW255627   2.478   8.497  13.710
51244SOL     OW55628  10.887   2.848  10.814
51244SOL    HW155629  10.837   2.861  10.895
51244SOL    HW255630  10.876   2.930  10.765
51245SOL     OW55631  14.876  10.018   1.355
51245SOL    HW155632   0.073  10.044   1.318
51245SOL    HW255633  14.824   9.989   1.279
51246SOL     OW55634  11.349   1.218  13.504
51246SOL    HW155635  11.339   1.151  13.572
51246SOL    HW255636  11.310   1.296  13.543
51247SOL     OW55637   2.386   0.493  12.603
51247SOL    HW155638   2.318   0.428  12.622
51247SOL    HW255639   2.439   0.454  12.534
51248SOL     OW55640  11.834  11.408  13.558
51248SOL    HW155641  11.901  11.459  13.514
51248SOL    HW255642  11.768  11.391  13.491
51249SOL     OW55643   1.945   2.681   3.275
51249SOL    HW155644   1.992   2.667   3.357
51249SOL    HW255645   1.986   2.620   3.213
51250SOL     OW55646   0.741   4.324   9.306
51250SOL    HW155647   0.808   4.313   9.373
51250SOL    HW255648   0.775   4.393   9.249
51251SOL     OW55649  10.830   7.417   4.392
51251SOL    HW155650  10.794   7.503   4.371
51251SOL    HW255651  10.756   7.369   4.429
51252SOL     OW55652   5.770   5.857   8.012
51252SOL    HW155653   5.799   5.948   8.006
51252SOL    HW255654   5.695   5.853   7.953
51253SOL     OW55655   5.497   8.948   2.062
51253SOL    HW155656   5.525   8.928   2.151
51253SOL    HW255657   5.576   8.937   2.009
51254SOL     OW55658  12.958  12.837  12.914
51254SOL    HW155659  12.906  12.759  12.935
51254SOL    HW255660  12.983  12.872  13.000
51255SOL     OW55661  14.706  10.549   4.238
51255SOL    HW155662  14.742  10.593   4.162
51255SOL    HW255663  14.782  10.530   4.293
51256SOL     OW55664   9.835  11.860   9.446
51256SOL    HW155665   9.882  11.853   9.363
51256SOL    HW255666   9.834  11.954   9.465
51257SOL     OW55667   4.713   2.664   7.707
51257SOL    HW155668   4.789   2.681   7.651
51257SOL    HW255669   4.747   2.606   7.775
51258SOL     OW55670   6.359   3.024  12.491
51258SOL    HW155671   6.436   3.059  12.536
51258SOL    HW255672   6.290   3.027  12.556
51259SOL     OW55673  13.759   6.316  12.039
51259SOL    HW155674  13.821   6.287  12.106
51259SOL    HW255675  13.708   6.237  12.020
51260SOL     OW55676  11.247   9.198   6.106
51260SOL    HW155677  11.285   9.132   6.163
51260SOL    HW255678  11.184   9.244   6.161
51261SOL     OW55679   8.912   0.460  13.080
51261SOL    HW155680   8.830   0.474  13.033
51261SOL    HW255681   8.888   0.465  13.172
51262SOL     OW55682   6.999   0.637   5.121
51262SOL    HW155683   6.960   0.579   5.055
51262SOL    HW255684   7.012   0.580   5.197
51263SOL     OW55685  13.677  12.853   9.133
51263SOL    HW155686  13.769  12.828   9.146
51263SOL    HW255687  13.656  12.823   9.044
51264SOL     OW55688   0.102   1.362  11.973
51264SOL    HW155689   0.032   1.343  12.035
51264SOL    HW255690   0.057   1.369  11.888
51265SOL     OW55691   5.356  14.725   7.074
51265SOL    HW155692   5.342  14.819   7.085
51265SOL    HW255693   5.285  14.697   7.015
51266SOL     OW55694   9.815  14.168   9.465
51266SOL    HW155695   9.851  14.226   9.398
51266SOL    HW255696   9.880  14.099   9.473
51267SOL     OW55697   6.329   6.551   3.150
51267SOL    HW155698   6.253   6.600   3.181
51267SOL    HW255699   6.400   6.615   3.146
51268SOL     OW55700  13.605  14.642  11.967
51268SOL    HW155701  13.530  14.605  11.921
51268SOL    HW255702  13.593  14.616  12.059
51269SOL     OW55703   9.065   8.986  13.019
51269SOL    HW155704   9.042   9.061  12.964
51269SOL    HW255705   9.088   8.917  12.956
51270SOL     OW55706   9.320   7.594   2.902
51270SOL    HW155707   9.347   7.558   2.986
51270SOL    HW255708   9.400   7.597   2.850
51271SOL     OW55709  13.100   2.454   6.257
51271SOL    HW155710  13.133   2.533   6.216
51271SOL    HW255711  13.168   2.428   6.320
51272SOL     OW55712  10.948  14.239   5.090
51272SOL    HW155713  10.950  14.293   5.011
51272SOL    HW255714  10.887  14.284   5.149
51273SOL     OW55715   4.607   1.975  14.115
51273SOL    HW155716   4.580   1.999  14.204
51273SOL    HW255717   4.631   1.882  14.122
51274SOL     OW55718   8.565   4.083   0.875
51274SOL    HW155719   8.496   4.145   0.898
51274SOL    HW255720   8.538   4.048   0.790
51275SOL     OW55721   5.680   6.501   7.663
51275SOL    HW155722   5.692   6.593   7.688
51275SOL    HW255723   5.755   6.456   7.701
51276SOL     OW55724  13.217  13.783   9.716
51276SOL    HW155725  13.211  13.771   9.621
51276SOL    HW255726  13.277  13.714   9.745
51277SOL     OW55727   2.101   7.926  10.670
51277SOL    HW155728   2.035   7.876  10.718
51277SOL    HW255729   2.180   7.871  10.672
51278SOL     OW55730   5.067   7.795  10.221
51278SOL    HW155731   5.083   7.747  10.140
51278SOL    HW255732   5.050   7.885  10.193
51279SOL     OW55733   6.594   8.697   0.999
51279SOL    HW155734   6.541   8.774   0.979
51279SOL    HW255735   6.576   8.636   0.927
51280SOL     OW55736   8.247   9.106  12.991
51280SOL    HW155737   8.331   9.138  12.957
51280SOL    HW255738   8.210   9.056  12.918
51281SOL     OW55739   1.093  10.818  14.756
51281SOL    HW155740   1.070  10.877  14.828
51281SOL    HW255741   1.017  10.761  14.747
51282SOL     OW55742   0.539  13.608   4.848
51282SOL    HW155743   0.584  13.547   4.790
51282SOL    HW255744   0.580  13.595   4.933
51283SOL     OW55745  13.429   5.290   4.161
51283SOL    HW155746  13.506   5.279   4.218
51283SOL    HW255747  13.363   5.330   4.217
51284SOL     OW55748  13.989  11.361   5.359
51284SOL    HW155749  14.034  11.357   5.443
51284SOL    HW255750  14.027  11.436   5.314
51285SOL     OW55751  14.007   7.162  10.530
51285SOL    HW155752  13.965   7.157  10.444
51285SOL    HW255753  14.089   7.207  10.513
51286SOL     OW55754  12.045  10.870   2.445
51286SOL    HW155755  12.135  10.860   2.415
51286SOL    HW255756  12.009  10.939   2.389
51287SOL     OW55757   1.368  14.422   5.935
51287SOL    HW155758   1.305  14.481   5.976
51287SOL    HW255759   1.402  14.369   6.007
51288SOL     OW55760  11.194   3.022   1.665
51288SOL    HW155761  11.242   3.103   1.685
51288SOL    HW255762  11.250   2.977   1.602
51289SOL     OW55763   9.028   2.493   0.874
51289SOL    HW155764   9.124   2.494   0.872
51289SOL    HW255765   9.006   2.484   0.967
51290SOL     OW55766  11.679  14.723   4.730
51290SOL    HW155767  11.723  14.691   4.809
51290SOL    HW255768  11.749  14.765   4.680
51291SOL     OW55769   5.759  10.391   4.204
51291SOL    HW155770   5.729  10.387   4.295
51291SOL    HW255771   5.709  10.462   4.165
51292SOL     OW55772  12.329   0.366   7.119
51292SOL    HW155773  12.283   0.449   7.108
51292SOL    HW255774  12.261   0.302   7.140
51293SOL     OW55775   6.166  14.629   6.454
51293SOL    HW155776   6.098  14.565   6.432
51293SOL    HW255777   6.123  14.714   6.441
51294SOL     OW55778  10.509   0.260   0.929
51294SOL    HW155779  10.591   0.214   0.948
51294SOL    HW255780  10.478   0.220   0.848
51295SOL     OW55781  11.818  12.767  10.515
51295SOL    HW155782  11.856  12.802  10.435
51295SOL    HW255783  11.728  12.743  10.492
51296SOL     OW55784   2.607  10.415   2.282
51296SOL    HW155785   2.545  10.487   2.288
51296SOL    HW255786   2.653  10.415   2.366
51297SOL     OW55787  10.119   0.541  11.967
51297SOL    HW155788  10.148   0.632  11.970
51297SOL    HW255789  10.092   0.522  12.057
51298SOL     OW55790   2.427  12.480   1.013
51298SOL    HW155791   2.415  12.538   0.938
51298SOL    HW255792   2.362  12.510   1.076
51299SOL     OW55793  10.928  11.068  11.559
51299SOL    HW155794  10.919  11.162  11.544
51299SOL    HW255795  11.009  11.044  11.514
51300SOL     OW55796  12.505  13.185  14.162
51300SOL    HW155797  12.588  13.138  14.169
51300SOL    HW255798  12.450  13.128  14.109
51301SOL     OW55799  10.569  11.077   9.923
51301SOL    HW155800  10.576  11.081  10.018
51301SOL    HW255801  10.526  10.994   9.904
51302SOL     OW55802  12.292   9.953   1.474
51302SOL    HW155803  12.301  10.048   1.463
51302SOL    HW255804  12.199   9.936   1.462
51303SOL     OW55805  14.583  11.993   3.943
51303SOL    HW155806  14.592  12.019   4.035
51303SOL    HW255807  14.494  11.960   3.936
51304SOL     OW55808  11.175  11.296  12.448
51304SOL    HW155809  11.253  11.279  12.396
51304SOL    HW255810  11.191  11.381  12.489
51305SOL     OW55811   7.443   6.508   0.761
51305SOL    HW155812   7.414   6.529   0.673
51305SOL    HW255813   7.522   6.456   0.749
51306SOL     OW55814  10.871  14.275   7.851
51306SOL    HW155815  10.882  14.193   7.805
51306SOL    HW255816  10.894  14.343   7.787
51307SOL     OW55817  10.921   9.497   1.199
51307SOL    HW155818  10.895   9.406   1.182
51307SOL    HW255819  10.946   9.498   1.291
51308SOL     OW55820   4.109   4.194   4.498
51308SOL    HW155821   4.047   4.121   4.503
51308SOL    HW255822   4.061   4.265   4.455
51309SOL     OW55823   9.808  11.695   3.002
51309SOL    HW155824   9.732  11.752   3.017
51309SOL    HW255825   9.773  11.623   2.949
51310SOL     OW55826   0.518  10.509   3.616
51310SOL    HW155827   0.456  10.479   3.550
51310SOL    HW255828   0.480  10.481   3.699
51311SOL     OW55829   9.750   5.092   0.126
51311SOL    HW155830   9.781   5.170   0.173
51311SOL    HW255831   9.804   5.021   0.159
51312SOL     OW55832   7.685   4.647  12.597
51312SOL    HW155833   7.724   4.608  12.675
51312SOL    HW255834   7.702   4.741  12.606
51313SOL     OW55835  12.342   6.305   1.054
51313SOL    HW155836  12.345   6.397   1.079
51313SOL    HW255837  12.331   6.307   0.958
51314SOL     OW55838   1.750   5.838   8.256
51314SOL    HW155839   1.763   5.806   8.345
51314SOL    HW255840   1.770   5.762   8.200
51315SOL     OW55841   8.725  10.179   5.614
51315SOL    HW155842   8.793  10.130   5.660
51315SOL    HW255843   8.722  10.141   5.527
51316SOL     OW55844   4.704   2.935  14.609
51316SOL    HW155845   4.613   2.940  14.637
51316SOL    HW255846   4.718   2.842  14.590
51317SOL     OW55847   5.603   0.395  13.401
51317SOL    HW155848   5.623   0.348  13.320
51317SOL    HW255849   5.535   0.458  13.377
51318SOL     OW55850   0.253   1.747  11.376
51318SOL    HW155851   0.195   1.821  11.394
51318SOL    HW255852   0.311   1.743  11.452
51319SOL     OW55853   4.540   1.051   7.481
51319SOL    HW155854   4.538   0.956   7.492
51319SOL    HW255855   4.620   1.067   7.430
51320SOL     OW55856   9.828  13.215  13.772
51320SOL    HW155857   9.803  13.290  13.826
51320SOL    HW255858   9.769  13.219  13.696
51321SOL     OW55859  13.879   5.612  11.758
51321SOL    HW155860  13.818   5.623  11.832
51321SOL    HW255861  13.832   5.554  11.697
51322SOL     OW55862   2.742   8.172   2.375
51322SOL    HW155863   2.777   8.091   2.338
51322SOL    HW255864   2.804   8.195   2.445
51323SOL     OW55865   0.078   8.277   0.532
51323SOL    HW155866   0.130   8.213   0.482
51323SOL    HW255867  14.877   8.270   0.496
51324SOL     OW55868  13.607  12.036  10.875
51324SOL    HW155869  13.557  12.118  10.880
51324SOL    HW255870  13.689  12.055  10.920
51325SOL     OW55871   9.387  13.443   5.576
51325SOL    HW155872   9.303  13.397   5.568
51325SOL    HW255873   9.366  13.523   5.625
51326SOL     OW55874   9.773  12.160   1.421
51326SOL    HW155875   9.691  12.172   1.374
51326SOL    HW255876   9.801  12.249   1.443
51327SOL     OW55877   1.343   8.100  11.194
51327SOL    HW155878   1.262   8.135  11.155
51327SOL    HW255879   1.388   8.057  11.121
51328SOL     OW55880  11.675  13.268   0.566
51328SOL    HW155881  11.714  13.355   0.555
51328SOL    HW255882  11.663  13.260   0.661
51329SOL     OW55883  12.210   0.198  12.894
51329SOL    HW155884  12.174   0.141  12.827
51329SOL    HW255885  12.164   0.281  12.883
51330SOL     OW55886  10.952   8.490   8.207
51330SOL    HW155887  10.976   8.461   8.295
51330SOL    HW255888  10.858   8.474   8.201
51331SOL     OW55889  10.949  10.496   7.622
51331SOL    HW155890  10.990  10.566   7.673
51331SOL    HW255891  11.018  10.431   7.611
51332SOL     OW55892   7.424   6.318  12.986
51332SOL    HW155893   7.367   6.393  12.971
51332SOL    HW255894   7.492   6.325  12.919
51333SOL     OW55895   4.213   4.831   1.190
51333SOL    HW155896   4.250   4.876   1.114
51333SOL    HW255897   4.121   4.817   1.166
51334SOL     OW55898   8.519   4.878   8.910
51334SOL    HW155899   8.541   4.971   8.897
51334SOL    HW255900   8.430   4.870   8.877
51335SOL     OW55901  10.130   3.835   6.010
51335SOL    HW155902  10.086   3.760   6.052
51335SOL    HW255903  10.099   3.911   6.059
51336SOL     OW55904  11.621   5.378   8.788
51336SOL    HW155905  11.645   5.290   8.761
51336SOL    HW255906  11.683   5.400   8.857
51337SOL     OW55907   2.799   7.050  10.320
51337SOL    HW155908   2.802   7.106  10.243
51337SOL    HW255909   2.802   6.961  10.285
51338SOL     OW55910  14.850   1.737   4.989
51338SOL    HW155911   0.031   1.749   5.056
51338SOL    HW255912  14.792   1.812   5.001
51339SOL     OW55913   4.351   2.888   8.364
51339SOL    HW155914   4.357   2.793   8.368
51339SOL    HW255915   4.323   2.914   8.452
51340SOL     OW55916   7.350   2.992   5.469
51340SOL    HW155917   7.368   2.928   5.538
51340SOL    HW255918   7.355   2.942   5.388
51341SOL     OW55919   5.717   4.640   5.191
51341SOL    HW155920   5.695   4.715   5.135
51341SOL    HW255921   5.752   4.680   5.271
51342SOL     OW55922   4.329   6.600   4.460
51342SOL    HW155923   4.263   6.669   4.461
51342SOL    HW255924   4.342   6.577   4.552
51343SOL     OW55925   8.936   0.303   7.632
51343SOL    HW155926   8.941   0.310   7.727
51343SOL    HW255927   8.995   0.231   7.610
51344SOL     OW55928   7.926   0.556   1.302
51344SOL    HW155929   7.843   0.594   1.274
51344SOL    HW255930   7.917   0.462   1.282
51345SOL     OW55931  14.287   4.686   8.202
51345SOL    HW155932  14.361   4.656   8.255
51345SOL    HW255933  14.284   4.780   8.216
51346SOL     OW55934   6.227   4.499   9.989
51346SOL    HW155935   6.253   4.429   9.929
51346SOL    HW255936   6.156   4.545   9.944
51347SOL     OW55937   3.916  13.654   0.773
51347SOL    HW155938   3.857  13.596   0.821
51347SOL    HW255939   3.951  13.599   0.702
51348SOL     OW55940   1.176   1.195   6.118
51348SOL    HW155941   1.195   1.221   6.208
51348SOL    HW255942   1.251   1.227   6.067
51349SOL     OW55943   9.178   8.803  10.902
51349SOL    HW155944   9.230   8.881  10.920
51349SOL    HW255945   9.226   8.758  10.832
51350SOL     OW55946  12.054   3.741   4.612
51350SOL    HW155947  12.126   3.804   4.620
51350SOL    HW255948  12.020   3.754   4.523
51351SOL     OW55949   1.954   2.372   7.044
51351SOL    HW155950   1.988   2.331   7.123
51351SOL    HW255951   1.927   2.299   6.989
51352SOL     OW55952  14.650   1.901   2.184
51352SOL    HW155953  14.561   1.919   2.213
51352SOL    HW255954  14.640   1.851   2.103
51353SOL     OW55955   2.642   1.819   1.708
51353SOL    HW155956   2.705   1.755   1.741
51353SOL    HW255957   2.576   1.826   1.777
51354SOL     OW55958   7.018  11.977   0.664
51354SOL    HW155959   6.976  12.018   0.588
51354SOL    HW255960   7.077  12.044   0.698
51355SOL     OW55961   1.758   6.305  11.231
51355SOL    HW155962   1.713   6.234  11.185
51355SOL    HW255963   1.823   6.336  11.168
51356SOL     OW55964  10.528   5.334   9.483
51356SOL    HW155965  10.510   5.318   9.576
51356SOL    HW255966  10.572   5.418   9.481
51357SOL     OW55967   7.221   7.466   8.926
51357SOL    HW155968   7.278   7.407   8.975
51357SOL    HW255969   7.204   7.420   8.844
51358SOL     OW55970   0.877  13.845  12.009
51358SOL    HW155971   0.910  13.907  11.944
51358SOL    HW255972   0.808  13.893  12.055
51359SOL     OW55973   5.941  14.163   9.571
51359SOL    HW155974   6.008  14.171   9.639
51359SOL    HW255975   5.882  14.236   9.586
51360SOL     OW55976   3.654   2.226   6.471
51360SOL    HW155977   3.662   2.163   6.543
51360SOL    HW255978   3.578   2.280   6.494
51361SOL     OW55979  13.902   8.843   3.320
51361SOL    HW155980  13.977   8.819   3.265
51361SOL    HW255981  13.826   8.816   3.269
51362SOL     OW55982  11.530   9.392  12.495
51362SOL    HW155983  11.566   9.331  12.431
51362SOL    HW255984  11.496   9.336  12.564
51363SOL     OW55985   7.602   1.432   5.683
51363SOL    HW155986   7.648   1.388   5.612
51363SOL    HW255987   7.521   1.463   5.644
51364SOL     OW55988   0.886   1.385   0.966
51364SOL    HW155989   0.862   1.439   1.041
51364SOL    HW255990   0.824   1.312   0.968
51365SOL     OW55991   7.939   3.534  14.540
51365SOL    HW155992   8.011   3.486  14.581
51365SOL    HW255993   7.934   3.499  14.451
51366SOL     OW55994   5.003   9.252   3.706
51366SOL    HW155995   4.988   9.199   3.627
51366SOL    HW255996   4.942   9.217   3.770
51367SOL     OW55997  13.807   0.361  12.966
51367SOL    HW155998  13.885   0.372  13.019
51367SOL    HW255999  13.737   0.344  13.029
51368SOL     OW56000   7.363   0.615   7.332
51368SOL    HW156001   7.286   0.640   7.384
51368SOL    HW256002   7.407   0.549   7.385
51369SOL     OW56003   1.983   3.872  10.770
51369SOL    HW156004   2.044   3.837  10.705
51369SOL    HW256005   1.912   3.809  10.773
51370SOL     OW56006  13.259   1.567   7.525
51370SOL    HW156007  13.223   1.612   7.448
51370SOL    HW256008  13.350   1.596   7.529
51371SOL     OW56009   2.233   1.458   7.231
51371SOL    HW156010   2.294   1.393   7.266
51371SOL    HW256011   2.270   1.542   7.257
51372SOL     OW56012   5.038   1.362  11.255
51372SOL    HW156013   5.001   1.440  11.213
51372SOL    HW256014   4.970   1.295  11.245
51373SOL     OW56015   8.277   6.427  14.296
51373SOL    HW156016   8.366   6.434  14.260
51373SOL    HW256017   8.240   6.350  14.253
51374SOL     OW56018   4.684  14.240   3.477
51374SOL    HW156019   4.672  14.322   3.525
51374SOL    HW256020   4.701  14.175   3.545
51375SOL     OW56021  13.809   7.013  12.616
51375SOL    HW156022  13.738   7.056  12.569
51375SOL    HW256023  13.813   6.925  12.578
51376SOL     OW56024  10.144  14.487  14.554
51376SOL    HW156025  10.185  14.510  14.638
51376SOL    HW256026  10.073  14.427  14.577
51377SOL     OW56027   6.749   4.785  12.496
51377SOL    HW156028   6.696   4.787  12.416
51377SOL    HW256029   6.833   4.821  12.471
51378SOL     OW56030   2.021   7.505  13.824
51378SOL    HW156031   1.936   7.530  13.788
51378SOL    HW256032   2.018   7.533  13.915
51379SOL     OW56033   7.959   2.820   7.823
51379SOL    HW156034   8.038   2.844   7.774
51379SOL    HW256035   7.991   2.764   7.894
51380SOL     OW56036   7.310  10.709   5.904
51380SOL    HW156037   7.231  10.755   5.876
51380SOL    HW256038   7.372  10.779   5.927
51381SOL     OW56039   7.316   4.032   4.444
51381SOL    HW156040   7.361   4.055   4.363
51381SOL    HW256041   7.323   4.111   4.498
51382SOL     OW56042   6.215  13.502  14.123
51382SOL    HW156043   6.205  13.507  14.218
51382SOL    HW256044   6.151  13.436  14.095
51383SOL     OW56045   3.927  14.321   0.767
51383SOL    HW156046   3.939  14.334   0.673
51383SOL    HW256047   3.992  14.379   0.808
51384SOL     OW56048  13.230  14.050  11.394
51384SOL    HW156049  13.274  14.008  11.467
51384SOL    HW256050  13.157  13.991  11.372
51385SOL     OW56051  12.850   3.835  11.357
51385SOL    HW156052  12.867   3.912  11.411
51385SOL    HW256053  12.774   3.793  11.396
51386SOL     OW56054   7.350  12.175  14.459
51386SOL    HW156055   7.357  12.080  14.451
51386SOL    HW256056   7.299  12.201  14.382
51387SOL     OW56057   8.966   3.078   4.362
51387SOL    HW156058   8.906   3.064   4.289
51387SOL    HW256059   9.052   3.084   4.321
51388SOL     OW56060   7.829  13.376  11.230
51388SOL    HW156061   7.829  13.280  11.225
51388SOL    HW256062   7.904  13.396  11.286
51389SOL     OW56063   8.484   1.781  10.466
51389SOL    HW156064   8.494   1.701  10.415
51389SOL    HW256065   8.390   1.800  10.462
51390SOL     OW56066   4.552   7.841   1.858
51390SOL    HW156067   4.633   7.888   1.839
51390SOL    HW256068   4.483   7.905   1.843
51391SOL     OW56069   5.458   1.566  10.191
51391SOL    HW156070   5.432   1.627  10.122
51391SOL    HW256071   5.396   1.583  10.262
51392SOL     OW56072   7.224   5.887   4.637
51392SOL    HW156073   7.249   5.827   4.567
51392SOL    HW256074   7.135   5.862   4.660
51393SOL     OW56075   1.826   8.626   9.882
51393SOL    HW156076   1.885   8.692   9.846
51393SOL    HW256077   1.878   8.545   9.883
51394SOL     OW56078  14.496  12.542  13.019
51394SOL    HW156079  14.543  12.621  12.992
51394SOL    HW256080  14.565  12.477  13.034
51395SOL     OW56081   1.285   1.599  10.942
51395SOL    HW156082   1.319   1.513  10.917
51395SOL    HW256083   1.329   1.619  11.024
51396SOL     OW56084  14.230  10.160  12.999
51396SOL    HW156085  14.176  10.195  12.928
51396SOL    HW256086  14.286  10.095  12.956
51397SOL     OW56087   4.120   0.947   5.827
51397SOL    HW156088   4.042   1.001   5.819
51397SOL    HW256089   4.189   0.998   5.785
51398SOL     OW56090   6.271  12.661  10.130
51398SOL    HW156091   6.336  12.731  10.122
51398SOL    HW256092   6.252  12.657  10.224
51399SOL     OW56093  11.537  14.522   6.548
51399SOL    HW156094  11.578  14.578   6.483
51399SOL    HW256095  11.448  14.556   6.557
51400SOL     OW56096  11.625   9.054   2.073
51400SOL    HW156097  11.662   9.078   2.157
51400SOL    HW256098  11.593   9.136   2.036
51401SOL     OW56099   3.242   1.270   0.886
51401SOL    HW156100   3.266   1.332   0.818
51401SOL    HW256101   3.291   1.298   0.963
51402SOL     OW56102  13.444   1.835   6.371
51402SOL    HW156103  13.483   1.779   6.304
51402SOL    HW256104  13.445   1.923   6.332
51403SOL     OW56105  12.855   1.216   2.087
51403SOL    HW156106  12.875   1.123   2.103
51403SOL    HW256107  12.759   1.221   2.093
51404SOL     OW56108   1.848  13.502   4.903
51404SOL    HW156109   1.836  13.524   4.811
51404SOL    HW256110   1.850  13.406   4.905
51405SOL     OW56111   4.650   6.163   6.032
51405SOL    HW156112   4.683   6.229   5.971
51405SOL    HW256113   4.561   6.190   6.052
51406SOL     OW56114  13.748  12.650   1.992
51406SOL    HW156115  13.816  12.716   1.981
51406SOL    HW256116  13.671  12.687   1.948
51407SOL     OW56117   9.756  13.933   3.397
51407SOL    HW156118   9.795  13.847   3.381
51407SOL    HW256119   9.663  13.920   3.381
51408SOL     OW56120   6.426   4.335   0.249
51408SOL    HW156121   6.369   4.270   0.207
51408SOL    HW256122   6.476   4.285   0.313
51409SOL     OW56123   6.480   3.164   3.131
51409SOL    HW156124   6.549   3.135   3.191
51409SOL    HW256125   6.472   3.258   3.147
51410SOL     OW56126   4.452   4.474  13.915
51410SOL    HW156127   4.392   4.538  13.875
51410SOL    HW256128   4.424   4.469  14.006
51411SOL     OW56129   1.588   1.071  11.802
51411SOL    HW156130   1.563   1.002  11.740
51411SOL    HW256131   1.578   1.152  11.752
51412SOL     OW56132  10.703   0.914   7.127
51412SOL    HW156133  10.625   0.928   7.181
51412SOL    HW256134  10.680   0.841   7.070
51413SOL     OW56135  12.171   1.818   3.776
51413SOL    HW156136  12.150   1.838   3.685
51413SOL    HW256137  12.245   1.876   3.797
51414SOL     OW56138   3.217   4.015   4.998
51414SOL    HW156139   3.134   3.993   5.040
51414SOL    HW256140   3.282   3.962   5.043
51415SOL     OW56141   6.279   6.268   0.071
51415SOL    HW156142   6.193   6.260   0.113
51415SOL    HW256143   6.310   6.178   0.064
51416SOL     OW56144   7.755   9.778   6.547
51416SOL    HW156145   7.776   9.687   6.568
51416SOL    HW256146   7.839   9.822   6.546
51417SOL     OW56147  14.231  10.775  14.404
51417SOL    HW156148  14.256  10.760  14.496
51417SOL    HW256149  14.231  10.871  14.395
51418SOL     OW56150  14.238   6.415  11.683
51418SOL    HW156151  14.332   6.412  11.698
51418SOL    HW256152  14.211   6.323  11.675
51419SOL     OW56153   7.101   1.433   1.902
51419SOL    HW156154   7.190   1.404   1.886
51419SOL    HW256155   7.084   1.497   1.833
51420SOL     OW56156   0.079   8.774   8.430
51420SOL    HW156157   0.010   8.724   8.388
51420SOL    HW256158   0.111   8.834   8.363
51421SOL     OW56159   9.614  11.565   4.826
51421SOL    HW156160   9.641  11.635   4.885
51421SOL    HW256161   9.610  11.607   4.740
51422SOL     OW56162  10.687  12.357   5.482
51422SOL    HW156163  10.593  12.344   5.475
51422SOL    HW256164  10.714  12.302   5.555
51423SOL     OW56165  14.313  11.165   4.875
51423SOL    HW156166  14.339  11.229   4.941
51423SOL    HW256167  14.246  11.112   4.917
51424SOL     OW56168  14.144   0.930  12.629
51424SOL    HW156169  14.067   0.894  12.584
51424SOL    HW256170  14.111   1.005  12.678
51425SOL     OW56171  13.518  10.916   2.131
51425SOL    HW156172  13.475  10.995   2.165
51425SOL    HW256173  13.547  10.870   2.210
51426SOL     OW56174   4.079  13.375   4.880
51426SOL    HW156175   4.079  13.447   4.943
51426SOL    HW256176   4.122  13.412   4.803
51427SOL     OW56177   4.570   5.428   4.371
51427SOL    HW156178   4.630   5.354   4.365
51427SOL    HW256179   4.627   5.502   4.392
51428SOL     OW56180   1.787  10.313   7.493
51428SOL    HW156181   1.814  10.395   7.535
51428SOL    HW256182   1.730  10.341   7.421
51429SOL     OW56183  14.627   7.895   1.707
51429SOL    HW156184  14.582   7.880   1.624
51429SOL    HW256185  14.720   7.902   1.684
51430SOL     OW56186  11.905   5.446  12.206
51430SOL    HW156187  11.879   5.524  12.155
51430SOL    HW256188  11.825   5.421  12.252
51431SOL     OW56189   6.586   3.116   8.386
51431SOL    HW156190   6.672   3.110   8.429
51431SOL    HW256191   6.586   3.044   8.322
51432SOL     OW56192   2.857  14.233  13.682
51432SOL    HW156193   2.835  14.326  13.676
51432SOL    HW256194   2.801  14.191  13.616
51433SOL     OW56195   8.794   5.862   5.021
51433SOL    HW156196   8.833   5.829   5.102
51433SOL    HW256197   8.727   5.798   4.999
51434SOL     OW56198  11.668   0.905   4.321
51434SOL    HW156199  11.614   0.887   4.398
51434SOL    HW256200  11.626   0.855   4.251
51435SOL     OW56201   9.800  14.808  13.689
51435SOL    HW156202   9.753  14.731  13.719
51435SOL    HW256203   9.818  14.858  13.768
51436SOL     OW56204   8.422   1.320   2.320
51436SOL    HW156205   8.365   1.289   2.250
51436SOL    HW256206   8.441   1.411   2.297
51437SOL     OW56207   1.670   6.551   4.812
51437SOL    HW156208   1.645   6.460   4.797
51437SOL    HW256209   1.604   6.584   4.873
51438SOL     OW56210   5.196   8.425  13.717
51438SOL    HW156211   5.192   8.394  13.807
51438SOL    HW256212   5.263   8.493  13.717
51439SOL     OW56213   2.994   5.305  10.051
51439SOL    HW156214   2.938   5.380  10.031
51439SOL    HW256215   3.031   5.280   9.967
51440SOL     OW56216   5.527   7.394   6.388
51440SOL    HW156217   5.434   7.369   6.383
51440SOL    HW256218   5.574   7.311   6.387
51441SOL     OW56219   0.023  14.164   3.707
51441SOL    HW156220   0.059  14.079   3.684
51441SOL    HW256221  14.825  14.145   3.745
51442SOL     OW56222  13.320   5.307   6.183
51442SOL    HW156223  13.334   5.224   6.227
51442SOL    HW256224  13.233   5.335   6.210
51443SOL     OW56225  12.992   3.412   0.704
51443SOL    HW156226  13.006   3.405   0.799
51443SOL    HW256227  12.972   3.322   0.677
51444SOL     OW56228  11.298   2.670   1.153
51444SOL    HW156229  11.318   2.590   1.201
51444SOL    HW256230  11.382   2.716   1.145
51445SOL     OW56231   5.612  12.401   6.969
51445SOL    HW156232   5.647  12.427   6.883
51445SOL    HW256233   5.589  12.308   6.958
51446SOL     OW56234  13.349   3.142   9.008
51446SOL    HW156235  13.418   3.076   9.009
51446SOL    HW256236  13.377   3.205   8.941
51447SOL     OW56237  12.416   5.840   4.384
51447SOL    HW156238  12.486   5.834   4.318
51447SOL    HW256239  12.389   5.750   4.398
51448SOL     OW56240   7.275   1.774  10.906
51448SOL    HW156241   7.292   1.858  10.863
51448SOL    HW256242   7.195   1.742  10.864
51449SOL     OW56243  13.959  13.471   1.363
51449SOL    HW156244  13.916  13.392   1.393
51449SOL    HW256245  14.016  13.497   1.435
51450SOL     OW56246   9.862   0.084   1.641
51450SOL    HW156247   9.835   0.175   1.639
51450SOL    HW256248   9.879   0.066   1.734
51451SOL     OW56249  12.220   0.718  11.951
51451SOL    HW156250  12.225   0.696  11.858
51451SOL    HW256251  12.304   0.760  11.971
51452SOL     OW56252   4.184   1.077   2.643
51452SOL    HW156253   4.211   1.155   2.595
51452SOL    HW256254   4.141   1.022   2.577
51453SOL     OW56255   4.166   1.879   9.296
51453SOL    HW156256   4.118   1.826   9.233
51453SOL    HW256257   4.128   1.855   9.381
51454SOL     OW56258   8.541  12.740  10.630
51454SOL    HW156259   8.500  12.824  10.652
51454SOL    HW256260   8.567  12.703  10.715
51455SOL     OW56261   7.752   9.635  13.874
51455SOL    HW156262   7.751   9.730  13.890
51455SOL    HW256263   7.799   9.599  13.949
51456SOL     OW56264   6.211  13.769   8.465
51456SOL    HW156265   6.281  13.832   8.446
51456SOL    HW256266   6.235  13.691   8.416
51457SOL     OW56267  12.132   6.725   4.766
51457SOL    HW156268  12.221   6.699   4.743
51457SOL    HW256269  12.079   6.650   4.741
51458SOL     OW56270   3.508   9.070   3.711
51458SOL    HW156271   3.603   9.084   3.703
51458SOL    HW256272   3.474   9.082   3.622
51459SOL     OW56273   5.664  14.329  10.822
51459SOL    HW156274   5.720  14.294  10.753
51459SOL    HW256275   5.626  14.408  10.784
51460SOL     OW56276   3.568   4.849   9.476
51460SOL    HW156277   3.564   4.896   9.560
51460SOL    HW256278   3.559   4.757   9.500
51461SOL     OW56279  12.268   3.832   8.765
51461SOL    HW156280  12.201   3.782   8.720
51461SOL    HW256281  12.347   3.779   8.757
51462SOL     OW56282   9.792   8.536   4.247
51462SOL    HW156283   9.852   8.610   4.259
51462SOL    HW256284   9.822   8.493   4.167
51463SOL     OW56285  11.990   5.527   1.701
51463SOL    HW156286  12.077   5.493   1.722
51463SOL    HW256287  11.938   5.450   1.679
51464SOL     OW56288  10.252   1.149  13.140
51464SOL    HW156289  10.242   1.154  13.236
51464SOL    HW256290  10.292   1.064  13.125
51465SOL     OW56291   4.038   6.183  12.813
51465SOL    HW156292   4.023   6.265  12.860
51465SOL    HW256293   3.957   6.167  12.765
51466SOL     OW56294  11.672  10.839   1.011
51466SOL    HW156295  11.705  10.760   0.968
51466SOL    HW256296  11.578  10.825   1.018
51467SOL     OW56297  13.241   0.179   0.090
51467SOL    HW156298  13.298   0.155   0.017
51467SOL    HW256299  13.179   0.106   0.097
51468SOL     OW56300   6.264   4.658  14.193
51468SOL    HW156301   6.307   4.574  14.175
51468SOL    HW256302   6.185   4.656  14.139
51469SOL     OW56303   3.134   9.669   2.992
51469SOL    HW156304   3.088   9.661   3.075
51469SOL    HW256305   3.137   9.763   2.974
51470SOL     OW56306   9.291   5.892  13.052
51470SOL    HW156307   9.223   5.850  13.000
51470SOL    HW256308   9.245   5.934  13.124
51471SOL     OW56309   5.573   5.618  14.047
51471SOL    HW156310   5.490   5.594  14.007
51471SOL    HW256311   5.607   5.688  13.992
51472SOL     OW56312   6.183   9.218   4.644
51472SOL    HW156313   6.160   9.291   4.702
51472SOL    HW256314   6.164   9.140   4.695
51473SOL     OW56315   3.917  12.963  10.798
51473SOL    HW156316   3.961  12.886  10.836
51473SOL    HW256317   3.826  12.936  10.787
51474SOL     OW56318   7.587  12.199   2.579
51474SOL    HW156319   7.515  12.138   2.596
51474SOL    HW256320   7.649  12.150   2.525
51475SOL     OW56321   6.468   2.855   2.525
51475SOL    HW156322   6.548   2.866   2.577
51475SOL    HW256323   6.408   2.809   2.583
51476SOL     OW56324   5.102  11.917   9.603
51476SOL    HW156325   5.024  11.871   9.635
51476SOL    HW256326   5.125  11.976   9.674
51477SOL     OW56327   8.799   6.739   4.520
51477SOL    HW156328   8.750   6.784   4.588
51477SOL    HW256329   8.890   6.742   4.549
51478SOL     OW56330   9.462  13.544  13.865
51478SOL    HW156331   9.424  13.464  13.829
51478SOL    HW256332   9.464  13.605  13.791
51479SOL     OW56333   1.678   7.647   8.307
51479SOL    HW156334   1.653   7.726   8.354
51479SOL    HW256335   1.703   7.677   8.220
51480SOL     OW56336   3.746   5.274   3.478
51480SOL    HW156337   3.801   5.213   3.528
51480SOL    HW256338   3.658   5.239   3.488
51481SOL     OW56339   8.094   6.872   5.147
51481SOL    HW156340   8.011   6.833   5.120
51481SOL    HW256341   8.098   6.955   5.098
51482SOL     OW56342   9.528   0.507  13.131
51482SOL    HW156343   9.550   0.559  13.054
51482SOL    HW256344   9.450   0.549  13.167
51483SOL     OW56345   9.713  11.433   5.127
51483SOL    HW156346   9.706  11.521   5.091
51483SOL    HW256347   9.754  11.381   5.058
51484SOL     OW56348   7.510   6.678  13.726
51484SOL    HW156349   7.561   6.711  13.652
51484SOL    HW256350   7.514   6.583  13.716
51485SOL     OW56351  11.473  12.915   1.823
51485SOL    HW156352  11.394  12.965   1.806
51485SOL    HW256353  11.485  12.921   1.918
51486SOL     OW56354  14.513   3.062  12.366
51486SOL    HW156355  14.498   3.110  12.448
51486SOL    HW256356  14.556   3.126  12.309
51487SOL     OW56357   0.573  10.694   8.901
51487SOL    HW156358   0.566  10.599   8.901
51487SOL    HW256359   0.510  10.723   8.835
51488SOL     OW56360  12.894   8.537  13.547
51488SOL    HW156361  12.925   8.447  13.553
51488SOL    HW256362  12.814   8.539  13.600
51489SOL     OW56363   4.801   9.287   7.698
51489SOL    HW156364   4.810   9.198   7.731
51489SOL    HW256365   4.856   9.290   7.620
51490SOL     OW56366   7.717   7.660  14.164
51490SOL    HW156367   7.678   7.735  14.117
51490SOL    HW256368   7.732   7.693  14.252
51491SOL     OW56369  12.987   7.509  10.241
51491SOL    HW156370  12.960   7.463  10.162
51491SOL    HW256371  13.073   7.472  10.262
51492SOL     OW56372   1.608   3.916   2.773
51492SOL    HW156373   1.534   3.970   2.798
51492SOL    HW256374   1.659   3.970   2.712
51493SOL     OW56375   5.580   6.320  12.488
51493SOL    HW156376   5.614   6.231  12.492
51493SOL    HW256377   5.544   6.329  12.400
51494SOL     OW56378   9.997  11.638  13.528
51494SOL    HW156379   9.937  11.563  13.531
51494SOL    HW256380  10.074  11.608  13.575
51495SOL     OW56381  14.676   3.099  11.700
51495SOL    HW156382  14.596   3.097  11.753
51495SOL    HW256383  14.738   3.151  11.751
51496SOL     OW56384  13.773  12.417   6.820
51496SOL    HW156385  13.808  12.460   6.897
51496SOL    HW256386  13.835  12.346   6.801
51497SOL     OW56387   6.132   8.198   0.726
51497SOL    HW156388   6.193   8.148   0.780
51497SOL    HW256389   6.048   8.192   0.771
51498SOL     OW56390   6.479  11.272   4.212
51498SOL    HW156391   6.421  11.215   4.163
51498SOL    HW256392   6.523  11.325   4.146
51499SOL     OW56393   3.749  10.527   1.855
51499SOL    HW156394   3.774  10.461   1.919
51499SOL    HW256395   3.791  10.499   1.773
51500SOL     OW56396  14.568   3.161  10.696
51500SOL    HW156397  14.531   3.231  10.642
51500SOL    HW256398  14.614   3.207  10.766
51501SOL     OW56399   5.698   4.524  10.084
51501SOL    HW156400   5.739   4.526   9.998
51501SOL    HW256401   5.709   4.613  10.119
51502SOL     OW56402  12.309   3.422  10.788
51502SOL    HW156403  12.337   3.343  10.742
51502SOL    HW256404  12.307   3.398  10.880
51503SOL     OW56405  11.739   0.755   1.340
51503SOL    HW156406  11.832   0.775   1.330
51503SOL    HW256407  11.699   0.786   1.259
51504SOL     OW56408   5.213  13.085   5.784
51504SOL    HW156409   5.187  12.994   5.768
51504SOL    HW256410   5.199  13.098   5.877
51505SOL     OW56411   0.138   0.057  10.962
51505SOL    HW156412   0.187   0.119  10.909
51505SOL    HW256413   0.119   0.103  11.044
51506SOL     OW56414  11.289   6.843  13.831
51506SOL    HW156415  11.262   6.933  13.846
51506SOL    HW256416  11.384   6.843  13.842
51507SOL     OW56417   8.493  10.125   6.085
51507SOL    HW156418   8.419  10.137   6.145
51507SOL    HW256419   8.455  10.133   5.998
51508SOL     OW56420  10.611  14.648   1.495
51508SOL    HW156421  10.586  14.740   1.484
51508SOL    HW256422  10.558  14.601   1.430
51509SOL     OW56423  11.275   0.176  10.686
51509SOL    HW156424  11.363   0.158  10.652
51509SOL    HW256425  11.285   0.171  10.781
51510SOL     OW56426   9.306   9.159   0.824
51510SOL    HW156427   9.267   9.084   0.868
51510SOL    HW256428   9.236   9.196   0.771
51511SOL     OW56429   7.717   4.802   6.474
51511SOL    HW156430   7.752   4.886   6.445
51511SOL    HW256431   7.730   4.743   6.399
51512SOL     OW56432   8.057   5.325   7.718
51512SOL    HW156433   7.997   5.260   7.754
51512SOL    HW256434   8.023   5.345   7.631
51513SOL     OW56435  13.677  12.630   5.222
51513SOL    HW156436  13.686  12.614   5.316
51513SOL    HW256437  13.623  12.559   5.190
51514SOL     OW56438   2.378  11.581   5.757
51514SOL    HW156439   2.296  11.532   5.760
51514SOL    HW256440   2.352  11.670   5.732
51515SOL     OW56441  13.410  13.462   7.151
51515SOL    HW156442  13.464  13.465   7.229
51515SOL    HW256443  13.408  13.369   7.128
51516SOL     OW56444  13.762  10.084   5.473
51516SOL    HW156445  13.832  10.062   5.412
51516SOL    HW256446  13.732   9.999   5.506
51517SOL     OW56447  13.787   1.875  11.522
51517SOL    HW156448  13.730   1.838  11.455
51517SOL    HW256449  13.827   1.799  11.565
51518SOL     OW56450  10.895   7.049   4.018
51518SOL    HW156451  10.852   7.071   4.100
51518SOL    HW256452  10.979   7.095   4.022
51519SOL     OW56453   8.613  10.701   9.177
51519SOL    HW156454   8.700  10.725   9.145
51519SOL    HW256455   8.627  10.620   9.227
51520SOL     OW56456   2.867   6.475  11.092
51520SOL    HW156457   2.834   6.446  11.177
51520SOL    HW256458   2.831   6.563  11.082
51521SOL     OW56459   3.550   0.376  12.127
51521SOL    HW156460   3.533   0.352  12.036
51521SOL    HW256461   3.586   0.464  12.123
51522SOL     OW56462   4.350   8.561   9.923
51522SOL    HW156463   4.356   8.506   9.845
51522SOL    HW256464   4.427   8.617   9.919
51523SOL     OW56465   1.456  12.304   9.898
51523SOL    HW156466   1.392  12.237   9.872
51523SOL    HW256467   1.529  12.292   9.838
51524SOL     OW56468   0.193   7.971   1.500
51524SOL    HW156469   0.219   8.019   1.422
51524SOL    HW256470   0.245   7.890   1.497
51525SOL     OW56471   7.530   1.989   1.796
51525SOL    HW156472   7.571   2.049   1.735
51525SOL    HW256473   7.577   1.907   1.785
51526SOL     OW56474   7.736   4.984  12.026
51526SOL    HW156475   7.672   4.925  12.066
51526SOL    HW256476   7.726   4.969  11.932
51527SOL     OW56477   1.205   3.295   9.578
51527SOL    HW156478   1.249   3.253   9.504
51527SOL    HW256479   1.113   3.297   9.553
51528SOL     OW56480  14.476   5.099   2.512
51528SOL    HW156481  14.453   5.013   2.477
51528SOL    HW256482  14.564   5.089   2.548
51529SOL     OW56483   4.211  10.291   5.825
51529SOL    HW156484   4.201  10.377   5.783
51529SOL    HW256485   4.128  10.278   5.872
51530SOL     OW56486  10.206  12.373   9.288
51530SOL    HW156487  10.233  12.400   9.201
51530SOL    HW256488  10.111  12.382   9.289
51531SOL     OW56489  12.877   1.567  11.476
51531SOL    HW156490  12.916   1.623  11.544
51531SOL    HW256491  12.817   1.510  11.524
51532SOL     OW56492   7.291   4.637   1.891
51532SOL    HW156493   7.283   4.571   1.960
51532SOL    HW256494   7.372   4.684   1.912
51533SOL     OW56495   8.996  14.410   3.470
51533SOL    HW156496   8.970  14.318   3.473
51533SOL    HW256497   9.090  14.410   3.488
51534SOL     OW56498   2.815   3.505  12.467
51534SOL    HW156499   2.740   3.486  12.411
51534SOL    HW256500   2.814   3.600  12.478
51535SOL     OW56501  12.556   6.626   5.659
51535SOL    HW156502  12.462   6.616   5.674
51535SOL    HW256503  12.589   6.536   5.656
51536SOL     OW56504   8.270   6.283   8.846
51536SOL    HW156505   8.213   6.276   8.770
51536SOL    HW256506   8.211   6.277   8.921
51537SOL     OW56507   3.822   8.354   4.628
51537SOL    HW156508   3.799   8.376   4.537
51537SOL    HW256509   3.806   8.435   4.676
51538SOL     OW56510  14.739  13.315   5.655
51538SOL    HW156511  14.732  13.353   5.568
51538SOL    HW256512  14.655  13.273   5.670
51539SOL     OW56513   9.961  10.940   0.761
51539SOL    HW156514   9.894  10.993   0.804
51539SOL    HW256515  10.029  10.929   0.828
51540SOL     OW56516  14.057  13.894  12.464
51540SOL    HW156517  14.094  13.912  12.377
51540SOL    HW256518  14.085  13.969  12.517
51541SOL     OW56519   0.607   1.346  12.406
51541SOL    HW156520   0.516   1.351  12.377
51541SOL    HW256521   0.638   1.261  12.374
51542SOL     OW56522  13.796   0.078   1.716
51542SOL    HW156523  13.800   0.173   1.700
51542SOL    HW256524  13.854   0.041   1.648
51543SOL     OW56525  10.818   7.188  10.285
51543SOL    HW156526  10.724   7.181  10.268
51543SOL    HW256527  10.858   7.174  10.199
51544SOL     OW56528   9.896  14.481   9.504
51544SOL    HW156529   9.972  14.539   9.513
51544SOL    HW256530   9.862  14.474   9.593
51545SOL     OW56531   3.857  10.905   4.536
51545SOL    HW156532   3.805  10.984   4.549
51545SOL    HW256533   3.810  10.855   4.469
51546SOL     OW56534  13.363  12.901   1.120
51546SOL    HW156535  13.340  12.825   1.067
51546SOL    HW256536  13.375  12.972   1.057
51547SOL     OW56537   8.101   6.772   1.975
51547SOL    HW156538   8.114   6.841   2.041
51547SOL    HW256539   8.046   6.707   2.019
51548SOL     OW56540   3.332   0.257   2.458
51548SOL    HW156541   3.299   0.263   2.369
51548SOL    HW256542   3.257   0.227   2.510
51549SOL     OW56543  11.802  11.863   2.119
51549SOL    HW156544  11.883  11.879   2.071
51549SOL    HW256545  11.831  11.848   2.209
51550SOL     OW56546  14.185  12.506  11.996
51550SOL    HW156547  14.170  12.458  11.914
51550SOL    HW256548  14.157  12.446  12.065
51551SOL     OW56549   4.017   5.799   9.518
51551SOL    HW156550   4.112   5.785   9.525
51551SOL    HW256551   4.001   5.804   9.424
51552SOL     OW56552   4.374   4.364  12.614
51552SOL    HW156553   4.368   4.288  12.672
51552SOL    HW256554   4.440   4.340  12.549
51553SOL     OW56555  10.179   2.590   7.598
51553SOL    HW156556  10.248   2.654   7.585
51553SOL    HW256557  10.188   2.561   7.688
51554SOL     OW56558   5.385   2.203   5.651
51554SOL    HW156559   5.438   2.276   5.619
51554SOL    HW256560   5.426   2.126   5.612
51555SOL     OW56561   4.602  10.905  10.833
51555SOL    HW156562   4.666  10.912  10.763
51555SOL    HW256563   4.603  10.991  10.876
51556SOL     OW56564  14.257  13.669   4.166
51556SOL    HW156565  14.214  13.588   4.193
51556SOL    HW256566  14.189  13.718   4.119
51557SOL     OW56567   4.905   5.097   1.269
51557SOL    HW156568   4.976   5.151   1.304
51557SOL    HW256569   4.859   5.155   1.208
51558SOL     OW56570   5.315   0.637   6.242
51558SOL    HW156571   5.309   0.560   6.185
51558SOL    HW256572   5.235   0.635   6.295
51559SOL     OW56573   3.003  13.803   9.197
51559SOL    HW156574   2.917  13.761   9.192
51559SOL    HW256575   3.064  13.738   9.164
51560SOL     OW56576   7.319   8.483   9.707
51560SOL    HW156577   7.226   8.503   9.694
51560SOL    HW256578   7.323   8.439   9.792
51561SOL     OW56579   5.885   0.006   5.453
51561SOL    HW156580   5.846  14.811   5.482
51561SOL    HW256581   5.867   0.010   5.359
51562SOL     OW56582  12.322  13.284   1.091
51562SOL    HW156583  12.366  13.363   1.122
51562SOL    HW256584  12.275  13.312   1.012
51563SOL     OW56585   4.786   6.833   6.677
51563SOL    HW156586   4.842   6.756   6.669
51563SOL    HW256587   4.759   6.852   6.587
51564SOL     OW56588   6.667   1.236  14.860
51564SOL    HW156589   6.625   1.183   0.041
51564SOL    HW256590   6.595   1.286  14.821
51565SOL     OW56591   4.873  13.611  10.564
51565SOL    HW156592   4.968  13.606  10.556
51565SOL    HW256593   4.842  13.524  10.538
51566SOL     OW56594   8.595  12.857   6.183
51566SOL    HW156595   8.633  12.779   6.144
51566SOL    HW256596   8.641  12.930   6.141
51567SOL     OW56597  13.483   7.376   4.020
51567SOL    HW156598  13.433   7.302   3.987
51567SOL    HW256599  13.453   7.451   3.968
51568SOL     OW56600  10.894   6.950   0.586
51568SOL    HW156601  10.909   6.883   0.520
51568SOL    HW256602  10.898   6.903   0.670
51569SOL     OW56603   4.801   9.791   4.669
51569SOL    HW156604   4.724   9.789   4.612
51569SOL    HW256605   4.772   9.750   4.750
51570SOL     OW56606  10.845   9.200   2.315
51570SOL    HW156607  10.762   9.238   2.286
51570SOL    HW256608  10.828   9.170   2.404
51571SOL     OW56609  14.491   4.533   5.244
51571SOL    HW156610  14.585   4.541   5.229
51571SOL    HW256611  14.484   4.489   5.328
51572SOL     OW56612   1.113   7.857   4.700
51572SOL    HW156613   1.182   7.909   4.659
51572SOL    HW256614   1.086   7.795   4.633
51573SOL     OW56615   3.102  11.603   4.339
51573SOL    HW156616   3.089  11.698   4.337
51573SOL    HW256617   3.106  11.577   4.247
51574SOL     OW56618   8.011  11.526   1.928
51574SOL    HW156619   8.067  11.504   1.853
51574SOL    HW256620   8.073  11.547   1.998
51575SOL     OW56621   8.001  10.248  13.938
51575SOL    HW156622   8.060  10.210  14.004
51575SOL    HW256623   7.914  10.213  13.962
51576SOL     OW56624  12.879  10.637   2.248
51576SOL    HW156625  12.886  10.714   2.191
51576SOL    HW256626  12.786  10.631   2.269
51577SOL     OW56627   1.606   0.392  12.922
51577SOL    HW156628   1.623   0.480  12.889
51577SOL    HW256629   1.545   0.405  12.994
51578SOL     OW56630  11.525   0.035   0.076
51578SOL    HW156631  11.434   0.038   0.046
51578SOL    HW256632  11.559  14.840   0.040
51579SOL     OW56633   3.367   8.280   3.165
51579SOL    HW156634   3.388   8.246   3.078
51579SOL    HW256635   3.360   8.202   3.220
51580SOL     OW56636  14.485   4.117   7.296
51580SOL    HW156637  14.565   4.125   7.349
51580SOL    HW256638  14.484   4.025   7.270
51581SOL     OW56639   0.213   9.644   9.153
51581SOL    HW156640   0.119   9.642   9.167
51581SOL    HW256641   0.226   9.715   9.090
51582SOL     OW56642   5.893   8.092   5.040
51582SOL    HW156643   5.914   8.003   5.070
51582SOL    HW256644   5.940   8.149   5.101
51583SOL     OW56645   6.458   3.530   0.533
51583SOL    HW156646   6.449   3.625   0.525
51583SOL    HW256647   6.437   3.497   0.445
51584SOL     OW56648   8.723   3.632   3.516
51584SOL    HW156649   8.656   3.585   3.566
51584SOL    HW256650   8.777   3.562   3.479
51585SOL     OW56651   9.472   1.535  14.053
51585SOL    HW156652   9.506   1.517  13.966
51585SOL    HW256653   9.550   1.547  14.107
51586SOL     OW56654  11.600   8.721   0.375
51586SOL    HW156655  11.675   8.776   0.356
51586SOL    HW256656  11.627   8.633   0.347
51587SOL     OW56657   0.840   0.910  13.345
51587SOL    HW156658   0.845   1.005  13.336
51587SOL    HW256659   0.800   0.896  13.431
51588SOL     OW56660   1.465   2.726   0.747
51588SOL    HW156661   1.404   2.751   0.678
51588SOL    HW256662   1.477   2.632   0.737
51589SOL     OW56663   7.168   6.889  14.725
51589SOL    HW156664   7.111   6.870  14.799
51589SOL    HW256665   7.121   6.854  14.649
51590SOL     OW56666   3.719   4.331  12.282
51590SOL    HW156667   3.724   4.249  12.330
51590SOL    HW256668   3.793   4.329  12.222
51591SOL     OW56669   4.361   1.359   3.063
51591SOL    HW156670   4.342   1.284   3.005
51591SOL    HW256671   4.335   1.435   3.012
51592SOL     OW56672   5.681   0.699   7.384
51592SOL    HW156673   5.625   0.622   7.372
51592SOL    HW256674   5.671   0.749   7.303
51593SOL     OW56675   0.998   0.833  12.698
51593SOL    HW156676   0.956   0.794  12.775
51593SOL    HW256677   0.988   0.767  12.629
51594SOL     OW56678   3.073  12.964   0.862
51594SOL    HW156679   3.138  12.900   0.892
51594SOL    HW256680   3.030  12.995   0.942
51595SOL     OW56681  14.565   2.273  10.006
51595SOL    HW156682  14.635   2.338  10.014
51595SOL    HW256683  14.594   2.214   9.937
51596SOL     OW56684  12.689   5.494   9.362
51596SOL    HW156685  12.701   5.556   9.291
51596SOL    HW256686  12.693   5.408   9.321
51597SOL     OW56687  10.412   1.277   0.518
51597SOL    HW156688  10.408   1.261   0.424
51597SOL    HW256689  10.336   1.231   0.554
51598SOL     OW56690  13.159   7.797   1.985
51598SOL    HW156691  13.086   7.798   1.923
51598SOL    HW256692  13.160   7.707   2.019
51599SOL     OW56693  11.306  10.682   6.608
51599SOL    HW156694  11.361  10.697   6.685
51599SOL    HW256695  11.222  10.723   6.630
51600SOL     OW56696   4.295   3.379  10.267
51600SOL    HW156697   4.209   3.418  10.280
51600SOL    HW256698   4.340   3.440  10.208
51601SOL     OW56699   5.952  13.294  10.829
51601SOL    HW156700   5.913  13.375  10.794
51601SOL    HW256701   5.981  13.246  10.751
51602SOL     OW56702   8.571  10.904   1.839
51602SOL    HW156703   8.522  10.886   1.919
51602SOL    HW256704   8.617  10.986   1.857
51603SOL     OW56705   6.278   4.376   2.101
51603SOL    HW156706   6.324   4.297   2.131
51603SOL    HW256707   6.193   4.345   2.073
51604SOL     OW56708   7.362  10.148  10.482
51604SOL    HW156709   7.294  10.213  10.496
51604SOL    HW256710   7.411  10.146  10.564
51605SOL     OW56711   8.660   2.656  10.435
51605SOL    HW156712   8.704   2.740  10.423
51605SOL    HW256713   8.582   2.662  10.379
51606SOL     OW56714  11.226   7.633  10.483
51606SOL    HW156715  11.252   7.544  10.458
51606SOL    HW256716  11.131   7.634  10.473
51607SOL     OW56717   5.810  11.891   9.081
51607SOL    HW156718   5.862  11.882   9.001
51607SOL    HW256719   5.734  11.834   9.066
51608SOL     OW56720   4.168  11.625  13.772
51608SOL    HW156721   4.100  11.677  13.729
51608SOL    HW256722   4.156  11.537  13.737
51609SOL     OW56723   5.250   0.503   5.711
51609SOL    HW156724   5.314   0.534   5.647
51609SOL    HW256725   5.300   0.489   5.791
51610SOL     OW56726  11.612  13.799  10.419
51610SOL    HW156727  11.645  13.731  10.477
51610SOL    HW256728  11.571  13.751  10.347
51611SOL     OW56729   0.943   9.925   9.912
51611SOL    HW156730   1.029   9.888   9.934
51611SOL    HW256731   0.963  10.011   9.874
51612SOL     OW56732   1.581  11.032  11.628
51612SOL    HW156733   1.533  11.078  11.697
51612SOL    HW256734   1.634  10.968  11.674
51613SOL     OW56735   2.330   5.055  12.383
51613SOL    HW156736   2.299   5.056  12.474
51613SOL    HW256737   2.418   5.017  12.388
51614SOL     OW56738  11.118   6.284  10.521
51614SOL    HW156739  11.032   6.322  10.502
51614SOL    HW256740  11.099   6.196  10.553
51615SOL     OW56741   0.348  10.739  11.284
51615SOL    HW156742   0.423  10.703  11.236
51615SOL    HW256743   0.375  10.828  11.306
51616SOL     OW56744  12.157   2.168   2.765
51616SOL    HW156745  12.238   2.122   2.790
51616SOL    HW256746  12.154   2.243   2.825
51617SOL     OW56747   5.456   2.336   8.728
51617SOL    HW156748   5.401   2.413   8.715
51617SOL    HW256749   5.398   2.262   8.713
51618SOL     OW56750   0.169   5.023  11.531
51618SOL    HW156751   0.225   4.973  11.589
51618SOL    HW256752   0.141   5.098  11.583
51619SOL     OW56753  10.987  14.437   0.829
51619SOL    HW156754  10.914  14.465   0.885
51619SOL    HW256755  10.961  14.351   0.797
51620SOL     OW56756  13.564  14.253   0.113
51620SOL    HW156757  13.563  14.159   0.095
51620SOL    HW256758  13.540  14.293   0.029
51621SOL     OW56759   5.776   2.558  13.510
51621SOL    HW156760   5.752   2.506  13.586
51621SOL    HW256761   5.823   2.497  13.453
51622SOL     OW56762   7.902   5.536   9.428
51622SOL    HW156763   7.898   5.590   9.349
51622SOL    HW256764   7.812   5.506   9.441
51623SOL     OW56765   4.315   3.161  10.981
51623SOL    HW156766   4.245   3.213  11.021
51623SOL    HW256767   4.301   3.072  11.014
51624SOL     OW56768   4.995   9.519   8.709
51624SOL    HW156769   5.059   9.472   8.762
51624SOL    HW256770   5.018   9.496   8.619
51625SOL     OW56771  13.854   8.282  10.705
51625SOL    HW156772  13.797   8.263  10.631
51625SOL    HW256773  13.811   8.352  10.752
51626SOL     OW56774   6.477   8.619   2.518
51626SOL    HW156775   6.565   8.591   2.541
51626SOL    HW256776   6.420   8.551   2.553
51627SOL     OW56777   8.824   7.160   1.700
51627SOL    HW156778   8.889   7.103   1.659
51627SOL    HW256779   8.796   7.218   1.629
51628SOL     OW56780  12.712  14.154  12.477
51628SOL    HW156781  12.740  14.078  12.528
51628SOL    HW256782  12.656  14.117  12.409
51629SOL     OW56783   1.093   3.115  10.296
51629SOL    HW156784   1.138   3.058  10.234
51629SOL    HW256785   1.112   3.077  10.382
51630SOL     OW56786  12.538   7.712  12.360
51630SOL    HW156787  12.619   7.698  12.311
51630SOL    HW256788  12.485   7.770  12.305
51631SOL     OW56789   2.660   8.383   1.571
51631SOL    HW156790   2.735   8.347   1.619
51631SOL    HW256791   2.679   8.364   1.479
51632SOL     OW56792  12.342   4.654   6.662
51632SOL    HW156793  12.420   4.707   6.647
51632SOL    HW256794  12.364   4.600   6.738
51633SOL     OW56795   1.751   8.067  14.085
51633SOL    HW156796   1.800   8.148  14.094
51633SOL    HW256797   1.816   8.002  14.060
51634SOL     OW56798   8.003  13.622   8.931
51634SOL    HW156799   8.048  13.554   8.880
51634SOL    HW256800   8.034  13.608   9.021
51635SOL     OW56801   6.875  12.779   2.346
51635SOL    HW156802   6.950  12.736   2.386
51635SOL    HW256803   6.906  12.805   2.259
51636SOL     OW56804   4.675   3.869   1.349
51636SOL    HW156805   4.626   3.929   1.293
51636SOL    HW256806   4.613   3.800   1.370
51637SOL     OW56807   8.456  10.133   2.873
51637SOL    HW156808   8.477  10.167   2.786
51637SOL    HW256809   8.444  10.210   2.927
51638SOL     OW56810  10.808  12.306   4.368
51638SOL    HW156811  10.776  12.217   4.386
51638SOL    HW256812  10.808  12.313   4.273
51639SOL     OW56813   2.019   2.856  13.022
51639SOL    HW156814   1.977   2.924  12.969
51639SOL    HW256815   2.108   2.889  13.037
51640SOL     OW56816  12.572   6.767   3.407
51640SOL    HW156817  12.541   6.768   3.317
51640SOL    HW256818  12.594   6.858   3.427
51641SOL     OW56819  11.765  11.783   1.272
51641SOL    HW156820  11.785  11.690   1.268
51641SOL    HW256821  11.794  11.817   1.187
51642SOL     OW56822   3.310   9.514   2.223
51642SOL    HW156823   3.282   9.599   2.258
51642SOL    HW256824   3.238   9.487   2.166
51643SOL     OW56825  12.223   9.113  10.603
51643SOL    HW156826  12.291   9.098  10.669
51643SOL    HW256827  12.222   9.034  10.550
51644SOL     OW56828  14.618  13.316  12.094
51644SOL    HW156829  14.568  13.381  12.143
51644SOL    HW256830  14.672  13.367  12.034
51645SOL     OW56831  13.315   6.931   8.238
51645SOL    HW156832  13.307   6.933   8.143
51645SOL    HW256833  13.230   6.897   8.268
51646SOL     OW56834   7.753  10.732   6.331
51646SOL    HW156835   7.777  10.683   6.252
51646SOL    HW256836   7.788  10.679   6.403
51647SOL     OW56837   6.504  13.275   0.174
51647SOL    HW156838   6.494  13.180   0.173
51647SOL    HW256839   6.512  13.297   0.267
51648SOL     OW56840   6.991  14.657   9.739
51648SOL    HW156841   6.978  14.563   9.745
51648SOL    HW256842   7.084  14.668   9.719
51649SOL     OW56843   3.137  12.804  12.782
51649SOL    HW156844   3.055  12.757  12.798
51649SOL    HW256845   3.138  12.819  12.687
51650SOL     OW56846   8.536  12.071  10.567
51650SOL    HW156847   8.591  12.041  10.495
51650SOL    HW256848   8.456  12.102  10.525
51651SOL     OW56849   7.159   6.798   0.680
51651SOL    HW156850   7.069   6.828   0.690
51651SOL    HW256851   7.213   6.874   0.701
51652SOL     OW56852   4.696   8.191   7.935
51652SOL    HW156853   4.724   8.235   7.854
51652SOL    HW256854   4.690   8.098   7.911
51653SOL     OW56855   1.509   2.248   6.258
51653SOL    HW156856   1.431   2.258   6.203
51653SOL    HW256857   1.532   2.337   6.284
51654SOL     OW56858  13.394  13.381  13.348
51654SOL    HW156859  13.403  13.413  13.438
51654SOL    HW256860  13.336  13.445  13.305
51655SOL     OW56861   7.656  10.191  12.745
51655SOL    HW156862   7.594  10.122  12.767
51655SOL    HW256863   7.636  10.263  12.805
51656SOL     OW56864   0.681   9.341   8.713
51656SOL    HW156865   0.737   9.278   8.667
51656SOL    HW256866   0.709   9.336   8.804
51657SOL     OW56867   5.120  13.906   8.708
51657SOL    HW156868   5.136  13.994   8.745
51657SOL    HW256869   5.153  13.846   8.775
51658SOL     OW56870  13.062   9.756   2.045
51658SOL    HW156871  13.138   9.777   2.098
51658SOL    HW256872  13.024   9.840   2.021
51659SOL     OW56873   8.572   8.421   8.080
51659SOL    HW156874   8.561   8.455   7.991
51659SOL    HW256875   8.525   8.337   8.079
51660SOL     OW56876  10.894   4.949   9.868
51660SOL    HW156877  10.860   4.872   9.914
51660SOL    HW256878  10.985   4.927   9.849
51661SOL     OW56879   4.517   5.597  14.723
51661SOL    HW156880   4.594   5.606  14.666
51661SOL    HW256881   4.477   5.514  14.696
51662SOL     OW56882  12.436   9.583   0.037
51662SOL    HW156883  12.423   9.614   0.127
51662SOL    HW256884  12.490   9.504   0.048
51663SOL     OW56885   7.560   3.713   4.876
51663SOL    HW156886   7.601   3.756   4.801
51663SOL    HW256887   7.577   3.620   4.863
51664SOL     OW56888  14.663  14.471   1.569
51664SOL    HW156889  14.698  14.558   1.588
51664SOL    HW256890  14.646  14.433   1.656
51665SOL     OW56891   4.610  10.987   4.788
51665SOL    HW156892   4.672  10.954   4.852
51665SOL    HW256893   4.591  10.912   4.732
51666SOL     OW56894   7.976  12.419   1.778
51666SOL    HW156895   7.923  12.351   1.736
51666SOL    HW256896   8.013  12.469   1.705
51667SOL     OW56897  11.745  13.529   7.156
51667SOL    HW156898  11.822  13.585   7.166
51667SOL    HW256899  11.758  13.458   7.219
51668SOL     OW56900   8.818   7.831  10.793
51668SOL    HW156901   8.820   7.810  10.700
51668SOL    HW256902   8.794   7.924  10.796
51669SOL     OW56903   3.748  11.914   5.009
51669SOL    HW156904   3.732  11.881   5.098
51669SOL    HW256905   3.660  11.932   4.975
51670SOL     OW56906  12.529   3.895   0.270
51670SOL    HW156907  12.491   3.874   0.185
51670SOL    HW256908  12.573   3.815   0.298
51671SOL     OW56909   0.730   6.890  10.364
51671SOL    HW156910   0.745   6.958  10.430
51671SOL    HW256911   0.663   6.926  10.307
51672SOL     OW56912   5.435   0.985  13.798
51672SOL    HW156913   5.346   0.979  13.763
51672SOL    HW256914   5.479   1.048  13.740
51673SOL     OW56915  14.164  14.564  12.484
51673SOL    HW156916  14.228  14.522  12.427
51673SOL    HW256917  14.145  14.648  12.441
51674SOL     OW56918   0.106  12.562  12.810
51674SOL    HW156919   0.080  12.564  12.718
51674SOL    HW256920   0.199  12.537  12.809
51675SOL     OW56921   8.799  11.750  14.017
51675SOL    HW156922   8.894  11.751  14.024
51675SOL    HW256923   8.775  11.841  13.998
51676SOL     OW56924  10.062   4.544  12.608
51676SOL    HW156925  10.092   4.619  12.659
51676SOL    HW256926  10.055   4.576  12.518
51677SOL     OW56927  10.067   3.524   2.748
51677SOL    HW156928   9.991   3.573   2.781
51677SOL    HW256929  10.095   3.471   2.823
51678SOL     OW56930   5.699   2.706  10.644
51678SOL    HW156931   5.765   2.735  10.580
51678SOL    HW256932   5.615   2.725  10.601
51679SOL     OW56933  10.904   0.784   6.837
51679SOL    HW156934  10.955   0.716   6.880
51679SOL    HW256935  10.957   0.863   6.845
51680SOL     OW56936  11.376  13.036  14.497
51680SOL    HW156937  11.367  12.940  14.504
51680SOL    HW256938  11.318  13.060  14.425
51681SOL     OW56939   4.518   4.445   2.920
51681SOL    HW156940   4.555   4.404   2.998
51681SOL    HW256941   4.466   4.518   2.953
51682SOL     OW56942   0.723   8.871   7.083
51682SOL    HW156943   0.669   8.895   7.008
51682SOL    HW256944   0.808   8.850   7.047
51683SOL     OW56945  10.738   0.518   6.206
51683SOL    HW156946  10.675   0.517   6.134
51683SOL    HW256947  10.749   0.426   6.229
51684SOL     OW56948   6.282   6.413   2.089
51684SOL    HW156949   6.282   6.408   2.185
51684SOL    HW256950   6.233   6.493   2.070
51685SOL     OW56951   1.627   6.163   7.935
51685SOL    HW156952   1.559   6.152   8.002
51685SOL    HW256953   1.685   6.088   7.947
51686SOL     OW56954  13.767  12.174   9.151
51686SOL    HW156955  13.744  12.261   9.117
51686SOL    HW256956  13.706  12.159   9.223
51687SOL     OW56957   0.984  11.947  12.020
51687SOL    HW156958   0.947  11.879  12.076
51687SOL    HW256959   0.908  11.997  11.989
51688SOL     OW56960   6.162   8.723  10.580
51688SOL    HW156961   6.156   8.766  10.495
51688SOL    HW256962   6.241   8.669  10.574
51689SOL     OW56963   5.021   5.635   3.447
51689SOL    HW156964   5.018   5.715   3.395
51689SOL    HW256965   4.930   5.622   3.475
51690SOL     OW56966   0.792   4.150   6.776
51690SOL    HW156967   0.802   4.217   6.843
51690SOL    HW256968   0.880   4.142   6.738
51691SOL     OW56969   1.869   0.564   6.566
51691SOL    HW156970   1.868   0.486   6.622
51691SOL    HW256971   1.865   0.638   6.626
51692SOL     OW56972   7.058   5.967  10.150
51692SOL    HW156973   7.012   5.884  10.136
51692SOL    HW256974   7.021   6.001  10.231
51693SOL     OW56975  14.291   8.936   1.506
51693SOL    HW156976  14.199   8.922   1.486
51693SOL    HW256977  14.326   8.848   1.519
51694SOL     OW56978  12.411   6.641   7.301
51694SOL    HW156979  12.344   6.707   7.322
51694SOL    HW256980  12.461   6.632   7.382
51695SOL     OW56981   8.309   3.862   6.434
51695SOL    HW156982   8.269   3.924   6.373
51695SOL    HW256983   8.402   3.865   6.413
51696SOL     OW56984  12.728   8.072   0.311
51696SOL    HW156985  12.780   8.055   0.390
51696SOL    HW256986  12.638   8.052   0.337
51697SOL     OW56987  13.810  12.844   9.560
51697SOL    HW156988  13.752  12.792   9.505
51697SOL    HW256989  13.829  12.788   9.636
51698SOL     OW56990   7.248   3.964   2.451
51698SOL    HW156991   7.329   3.998   2.488
51698SOL    HW256992   7.181   3.983   2.516
51699SOL     OW56993   0.445   5.306   9.204
51699SOL    HW156994   0.465   5.239   9.138
51699SOL    HW256995   0.361   5.343   9.177
51700SOL     OW56996  12.359   3.595   2.079
51700SOL    HW156997  12.301   3.549   2.019
51700SOL    HW256998  12.353   3.687   2.052
51701SOL     OW56999   2.405  12.546  11.320
51701SOL    HW157000   2.447  12.461  11.327
51701SOL    HW257001   2.478  12.609  11.321
51702SOL     OW57002   0.992   9.159  10.316
51702SOL    HW157003   1.024   9.249  10.322
51702SOL    HW257004   1.071   9.105  10.321
51703SOL     OW57005   9.322  14.724   3.200
51703SOL    HW157006   9.349  14.678   3.121
51703SOL    HW257007   9.369  14.807   3.196
51704SOL     OW57008   6.118   7.049   4.370
51704SOL    HW157009   6.201   7.014   4.403
51704SOL    HW257010   6.142   7.131   4.327
51705SOL     OW57011   9.661   1.269   2.227
51705SOL    HW157012   9.567   1.266   2.248
51705SOL    HW257013   9.697   1.331   2.289
51706SOL     OW57014  11.373  10.598   3.794
51706SOL    HW157015  11.325  10.643   3.724
51706SOL    HW257016  11.434  10.541   3.748
51707SOL     OW57017   1.851  11.036   5.072
51707SOL    HW157018   1.774  11.062   5.020
51707SOL    HW257019   1.832  11.066   5.160
51708SOL     OW57020   6.625   1.992   9.945
51708SOL    HW157021   6.630   1.991   9.849
51708SOL    HW257022   6.551   2.049   9.964
51709SOL     OW57023  10.590  12.037   0.084
51709SOL    HW157024  10.511  12.057   0.132
51709SOL    HW257025  10.581  11.945   0.058
51710SOL     OW57026   8.013   2.069   0.023
51710SOL    HW157027   8.024   2.159   0.051
51710SOL    HW257028   8.063   2.062  14.829
51711SOL     OW57029  12.161   8.036  10.618
51711SOL    HW157030  12.066   8.027  10.612
51711SOL    HW257031  12.192   7.947  10.634
51712SOL     OW57032  13.940   1.760   5.275
51712SOL    HW157033  14.031   1.789   5.280
51712SOL    HW257034  13.897   1.804   5.348
51713SOL     OW57035   2.944  11.572  11.878
51713SOL    HW157036   3.035  11.573  11.907
51713SOL    HW257037   2.895  11.542  11.954
51714SOL     OW57038   3.113  13.430  10.210
51714SOL    HW157039   3.056  13.362  10.246
51714SOL    HW257040   3.166  13.386  10.144
51715SOL     OW57041  10.359   8.783   5.206
51715SOL    HW157042  10.403   8.790   5.122
51715SOL    HW257043  10.276   8.739   5.186
51716SOL     OW57044   7.148   3.919   5.140
51716SOL    HW157045   7.107   3.841   5.102
51716SOL    HW257046   7.147   3.983   5.070
51717SOL     OW57047   3.990   6.614  12.116
51717SOL    HW157048   4.063   6.668  12.145
51717SOL    HW257049   3.934   6.606  12.193
51718SOL     OW57050  12.029   4.371   3.908
51718SOL    HW157051  12.076   4.411   3.981
51718SOL    HW257052  12.017   4.442   3.845
51719SOL     OW57053  10.633   5.676  14.032
51719SOL    HW157054  10.645   5.591  13.991
51719SOL    HW257055  10.588   5.729  13.966
51720SOL     OW57056  14.413   0.924  14.712
51720SOL    HW157057  14.350   0.971  14.768
51720SOL    HW257058  14.486   0.985  14.704
51721SOL     OW57059   1.585  13.786  12.289
51721SOL    HW157060   1.667  13.738  12.282
51721SOL    HW257061   1.603  13.857  12.351
51722SOL     OW57062  10.025  10.480  13.227
51722SOL    HW157063   9.952  10.420  13.242
51722SOL    HW257064  10.092  10.427  13.185
51723SOL     OW57065  12.494   7.721  14.434
51723SOL    HW157066  12.501   7.703  14.528
51723SOL    HW257067  12.403   7.747  14.422
51724SOL     OW57068  10.473   4.213   9.768
51724SOL    HW157069  10.484   4.258   9.685
51724SOL    HW257070  10.437   4.279   9.827
51725SOL     OW57071  14.121   4.379  12.309
51725SOL    HW157072  14.146   4.288  12.294
51725SOL    HW257073  14.030   4.374  12.339
51726SOL     OW57074  13.537   9.917   1.278
51726SOL    HW157075  13.455   9.870   1.264
51726SOL    HW257076  13.604   9.865   1.233
51727SOL     OW57077  14.698   3.541  13.644
51727SOL    HW157078  14.607   3.571  13.640
51727SOL    HW257079  14.713   3.527  13.738
51728SOL     OW57080   8.165   6.216   0.160
51728SOL    HW157081   8.134   6.303   0.136
51728SOL    HW257082   8.213   6.229   0.242
51729SOL     OW57083   9.163   9.272  12.580
51729SOL    HW157084   9.180   9.178  12.588
51729SOL    HW257085   9.177   9.307  12.668
51730SOL     OW57086   6.481  10.586  11.866
51730SOL    HW157087   6.502  10.552  11.779
51730SOL    HW257088   6.429  10.665  11.850
51731SOL     OW57089   6.809   0.481  13.661
51731SOL    HW157090   6.746   0.516  13.723
51731SOL    HW257091   6.855   0.558  13.627
51732SOL     OW57092   6.413   1.113  11.575
51732SOL    HW157093   6.388   1.205  11.572
51732SOL    HW257094   6.348   1.069  11.521
51733SOL     OW57095  13.478   9.736   6.869
51733SOL    HW157096  13.423   9.777   6.936
51733SOL    HW257097  13.450   9.776   6.787
51734SOL     OW57098   3.998   8.356   3.319
51734SOL    HW157099   3.987   8.267   3.286
51734SOL    HW257100   4.085   8.382   3.288
51735SOL     OW57101   1.503  10.700   9.069
51735SOL    HW157102   1.503  10.793   9.093
51735SOL    HW257103   1.423  10.689   9.017
51736SOL     OW57104  10.209   9.989   4.853
51736SOL    HW157105  10.157   9.938   4.915
51736SOL    HW257106  10.297   9.953   4.861
51737SOL     OW57107  10.816  11.356   2.922
51737SOL    HW157108  10.773  11.434   2.887
51737SOL    HW257109  10.753  11.318   2.983
51738SOL     OW57110   9.436  10.330   5.262
51738SOL    HW157111   9.520  10.360   5.226
51738SOL    HW257112   9.427  10.241   5.228
51739SOL     OW57113   9.851  12.235   9.959
51739SOL    HW157114   9.889  12.162  10.007
51739SOL    HW257115   9.893  12.231   9.873
51740SOL     OW57116   9.476  11.983   6.069
51740SOL    HW157117   9.417  11.986   6.144
51740SOL    HW257118   9.482  12.074   6.039
51741SOL     OW57119   1.805   5.384  14.791
51741SOL    HW157120   1.879   5.415  14.739
51741SOL    HW257121   1.752   5.462  14.806
51742SOL     OW57122   5.940  13.532  12.158
51742SOL    HW157123   5.926  13.604  12.220
51742SOL    HW257124   5.852  13.495  12.144
51743SOL     OW57125  11.259   2.177   6.709
51743SOL    HW157126  11.232   2.212   6.624
51743SOL    HW257127  11.237   2.084   6.704
51744SOL     OW57128   5.853  10.023  13.696
51744SOL    HW157129   5.792  10.024  13.623
51744SOL    HW257130   5.920  10.088  13.674
51745SOL     OW57131   5.590  10.072  14.386
51745SOL    HW157132   5.567  10.013  14.457
51745SOL    HW257133   5.682  10.092  14.399
51746SOL     OW57134  14.665   3.570   6.280
51746SOL    HW157135  14.729   3.625   6.235
51746SOL    HW257136  14.634   3.624   6.352
51747SOL     OW57137   4.660   5.458   8.191
51747SOL    HW157138   4.585   5.475   8.133
51747SOL    HW257139   4.717   5.534   8.180
51748SOL     OW57140   1.183  13.853   8.046
51748SOL    HW157141   1.247  13.920   8.072
51748SOL    HW257142   1.126  13.843   8.122
51749SOL     OW57143   2.228   1.716  12.675
51749SOL    HW157144   2.246   1.622  12.682
51749SOL    HW257145   2.282   1.755  12.743
51750SOL     OW57146  14.582   2.221   8.336
51750SOL    HW157147  14.633   2.294   8.372
51750SOL    HW257148  14.493   2.237   8.367
51751SOL     OW57149   9.776  10.630   9.385
51751SOL    HW157150   9.852  10.572   9.375
51751SOL    HW257151   9.718  10.583   9.445
51752SOL     OW57152   0.612  14.464  11.737
51752SOL    HW157153   0.664  14.397  11.692
51752SOL    HW257154   0.534  14.474  11.683
51753SOL     OW57155   4.499   5.246   4.951
51753SOL    HW157156   4.557   5.322   4.958
51753SOL    HW257157   4.542   5.189   4.888
51754SOL     OW57158   2.018   6.549   6.539
51754SOL    HW157159   1.937   6.522   6.496
51754SOL    HW257160   2.078   6.476   6.526
51755SOL     OW57161   9.847   2.442   6.992
51755SOL    HW157162   9.916   2.508   6.983
51755SOL    HW257163   9.889   2.371   7.040
51756SOL     OW57164   7.473  10.484   5.880
51756SOL    HW157165   7.409  10.556   5.885
51756SOL    HW257166   7.556  10.527   5.861
51757SOL     OW57167   4.116   4.371  12.722
51757SOL    HW157168   4.208   4.393  12.708
51757SOL    HW257169   4.077   4.373  12.635
51758SOL     OW57170  11.872  13.555   8.684
51758SOL    HW157171  11.840  13.613   8.752
51758SOL    HW257172  11.922  13.488   8.730
51759SOL     OW57173  14.291  10.198   2.933
51759SOL    HW157174  14.318  10.158   3.016
51759SOL    HW257175  14.369  10.193   2.878
51760SOL     OW57176   6.020   3.680   8.776
51760SOL    HW157177   6.064   3.695   8.693
51760SOL    HW257178   5.994   3.768   8.805
51761SOL     OW57179   1.421   4.772   4.465
51761SOL    HW157180   1.372   4.701   4.424
51761SOL    HW257181   1.477   4.806   4.395
51762SOL     OW57182  11.788  11.480   7.924
51762SOL    HW157183  11.700  11.443   7.932
51762SOL    HW257184  11.780  11.548   7.857
51763SOL     OW57185   7.290   2.424   0.819
51763SOL    HW157186   7.360   2.451   0.879
51763SOL    HW257187   7.289   2.328   0.826
51764SOL     OW57188   1.130   8.794   4.769
51764SOL    HW157189   1.187   8.791   4.693
51764SOL    HW257190   1.189   8.802   4.844
51765SOL     OW57191   3.095   1.651   6.129
51765SOL    HW157192   3.162   1.646   6.061
51765SOL    HW257193   3.034   1.718   6.098
51766SOL     OW57194   2.285  10.876   8.730
51766SOL    HW157195   2.235  10.881   8.811
51766SOL    HW257196   2.314  10.785   8.725
51767SOL     OW57197   5.484   3.373   3.117
51767SOL    HW157198   5.483   3.326   3.201
51767SOL    HW257199   5.457   3.308   3.052
51768SOL     OW57200   3.047  10.739  10.023
51768SOL    HW157201   3.134  10.774  10.001
51768SOL    HW257202   2.986  10.798   9.980
51769SOL     OW57203   1.197   7.380   5.587
51769SOL    HW157204   1.222   7.433   5.662
51769SOL    HW257205   1.121   7.426   5.550
51770SOL     OW57206   3.488   5.653  11.086
51770SOL    HW157207   3.565   5.643  11.030
51770SOL    HW257208   3.495   5.582  11.150
51771SOL     OW57209  13.091   3.468   5.541
51771SOL    HW157210  13.089   3.387   5.492
51771SOL    HW257211  13.145   3.449   5.618
51772SOL     OW57212   6.124   5.971   3.270
51772SOL    HW157213   6.084   6.053   3.242
51772SOL    HW257214   6.215   5.993   3.289
51773SOL     OW57215   3.329  12.666   4.247
51773SOL    HW157216   3.333  12.761   4.246
51773SOL    HW257217   3.361  12.641   4.333
51774SOL     OW57218   4.947   1.719   4.477
51774SOL    HW157219   4.984   1.665   4.547
51774SOL    HW257220   4.896   1.785   4.523
51775SOL     OW57221   8.129   0.039  10.768
51775SOL    HW157222   8.206   0.087  10.801
51775SOL    HW257223   8.163  14.877  10.693
51776SOL     OW57224   0.685   0.071   3.299
51776SOL    HW157225   0.620   0.128   3.257
51776SOL    HW257226   0.641   0.036   3.376
51777SOL     OW57227  10.966   6.916  13.353
51777SOL    HW157228  10.982   6.862  13.430
51777SOL    HW257229  10.873   6.939  13.358
51778SOL     OW57230   8.123   5.316   3.357
51778SOL    HW157231   8.124   5.393   3.301
51778SOL    HW257232   8.031   5.287   3.356
51779SOL     OW57233   9.449   4.290   2.393
51779SOL    HW157234   9.523   4.321   2.444
51779SOL    HW257235   9.434   4.359   2.328
51780SOL     OW57236  11.123   8.860   2.173
51780SOL    HW157237  11.109   8.782   2.226
51780SOL    HW257238  11.211   8.848   2.136
51781SOL     OW57239  13.305  14.236   2.425
51781SOL    HW157240  13.360  14.197   2.357
51781SOL    HW257241  13.355  14.310   2.457
51782SOL     OW57242   6.924   6.735  10.079
51782SOL    HW157243   6.843   6.716  10.032
51782SOL    HW257244   6.916   6.827  10.105
51783SOL     OW57245   8.745   9.900  11.326
51783SOL    HW157246   8.817   9.904  11.390
51783SOL    HW257247   8.778   9.949  11.250
51784SOL     OW57248   3.745  12.293   4.928
51784SOL    HW157249   3.774  12.370   4.879
51784SOL    HW257250   3.825  12.245   4.949
51785SOL     OW57251   3.580   4.266   9.220
51785SOL    HW157252   3.553   4.177   9.240
51785SOL    HW257253   3.498   4.315   9.213
51786SOL     OW57254   1.836  10.893  10.250
51786SOL    HW157255   1.916  10.942  10.234
51786SOL    HW257256   1.842  10.865  10.342
51787SOL     OW57257   9.896   0.638   7.983
51787SOL    HW157258   9.962   0.626   8.052
51787SOL    HW257259   9.948   0.649   7.903
51788SOL     OW57260  13.586   2.326  14.410
51788SOL    HW157261  13.517   2.305  14.348
51788SOL    HW257262  13.646   2.251  14.405
51789SOL     OW57263   4.697   8.704   6.746
51789SOL    HW157264   4.612   8.663   6.731
51789SOL    HW257265   4.681   8.798   6.741
51790SOL     OW57266   9.456   6.215   9.587
51790SOL    HW157267   9.444   6.121   9.596
51790SOL    HW257268   9.376   6.254   9.622
51791SOL     OW57269   0.439   6.846   4.214
51791SOL    HW157270   0.477   6.866   4.128
51791SOL    HW257271   0.410   6.756   4.207
51792SOL     OW57272   9.982  12.927   9.301
51792SOL    HW157273  10.064  12.904   9.258
51792SOL    HW257274   9.997  12.906   9.394
51793SOL     OW57275   8.864   1.841  14.483
51793SOL    HW157276   8.912   1.860  14.403
51793SOL    HW257277   8.772   1.841  14.457
51794SOL     OW57278   0.646   2.060  12.999
51794SOL    HW157279   0.567   2.013  12.974
51794SOL    HW257280   0.697   2.066  12.917
51795SOL     OW57281  14.844   3.708   0.956
51795SOL    HW157282  14.781   3.636   0.962
51795SOL    HW257283  14.791   3.787   0.965
51796SOL     OW57284   0.344  11.652  12.857
51796SOL    HW157285   0.304  11.715  12.917
51796SOL    HW257286   0.354  11.572  12.909
51797SOL     OW57287  12.549   9.832   7.765
51797SOL    HW157288  12.598   9.804   7.842
51797SOL    HW257289  12.616   9.867   7.706
51798SOL     OW57290  13.015  10.268   1.420
51798SOL    HW157291  13.030  10.261   1.515
51798SOL    HW257292  12.971  10.186   1.397
51799SOL     OW57293  11.463   5.246   2.807
51799SOL    HW157294  11.421   5.332   2.810
51799SOL    HW257295  11.556   5.265   2.796
51800SOL     OW57296   5.457   6.531  12.609
51800SOL    HW157297   5.496   6.461  12.557
51800SOL    HW257298   5.488   6.611  12.568
51801SOL     OW57299   9.068   6.498   1.287
51801SOL    HW157300   9.144   6.486   1.230
51801SOL    HW257301   9.102   6.493   1.376
51802SOL     OW57302  11.008   2.538  10.453
51802SOL    HW157303  10.973   2.448  10.452
51802SOL    HW257304  11.056   2.544  10.536
51803SOL     OW57305   8.280   9.132  10.121
51803SOL    HW157306   8.372   9.107  10.127
51803SOL    HW257307   8.242   9.099  10.203
51804SOL     OW57308  10.089  10.347  10.267
51804SOL    HW157309  10.138  10.319  10.189
51804SOL    HW257310  10.115  10.284  10.334
51805SOL     OW57311  13.004   7.328   2.079
51805SOL    HW157312  12.912   7.351   2.069
51805SOL    HW257313  13.048   7.379   2.011
51806SOL     OW57314   4.512   6.763   9.325
51806SOL    HW157315   4.564   6.683   9.335
51806SOL    HW257316   4.427   6.732   9.294
51807SOL     OW57317   5.038  13.969   5.964
51807SOL    HW157318   5.014  14.059   5.946
51807SOL    HW257319   4.955  13.921   5.962
51808SOL     OW57320   3.553   6.192   5.928
51808SOL    HW157321   3.492   6.256   5.891
51808SOL    HW257322   3.565   6.220   6.019
51809SOL     OW57323   7.048  14.375   3.555
51809SOL    HW157324   6.984  14.305   3.568
51809SOL    HW257325   7.124  14.349   3.608
51810SOL     OW57326   2.846  10.180   5.710
51810SOL    HW157327   2.779  10.181   5.641
51810SOL    HW257328   2.885  10.093   5.705
51811SOL     OW57329   8.156   5.085   8.701
51811SOL    HW157330   8.212   5.025   8.751
51811SOL    HW257331   8.067   5.059   8.724
51812SOL     OW57332  12.899  10.298   8.478
51812SOL    HW157333  12.806  10.272   8.476
51812SOL    HW257334  12.932  10.274   8.392
51813SOL     OW57335   2.335   4.667   6.725
51813SOL    HW157336   2.294   4.605   6.786
51813SOL    HW257337   2.366   4.613   6.653
51814SOL     OW57338   4.979   9.540  14.359
51814SOL    HW157339   5.059   9.487  14.359
51814SOL    HW257340   4.932   9.513  14.280
51815SOL     OW57341   2.147   4.758   9.449
51815SOL    HW157342   2.235   4.747   9.487
51815SOL    HW257343   2.094   4.791   9.522
51816SOL     OW57344   2.355   4.194   0.493
51816SOL    HW157345   2.369   4.101   0.512
51816SOL    HW257346   2.348   4.197   0.397
51817SOL     OW57347   4.911   3.361   0.945
51817SOL    HW157348   4.984   3.326   0.997
51817SOL    HW257349   4.860   3.284   0.920
51818SOL     OW57350   9.283   4.354   5.879
51818SOL    HW157351   9.331   4.327   5.957
51818SOL    HW257352   9.206   4.401   5.914
51819SOL     OW57353  14.372   5.057   4.792
51819SOL    HW157354  14.286   5.093   4.770
51819SOL    HW257355  14.434   5.117   4.750
51820SOL     OW57356   6.819   8.018   0.806
51820SOL    HW157357   6.876   7.991   0.878
51820SOL    HW257358   6.822   8.114   0.808
51821SOL     OW57359  10.791   9.817   3.658
51821SOL    HW157360  10.704   9.825   3.699
51821SOL    HW257361  10.824   9.906   3.654
51822SOL     OW57362  10.458  11.581   7.398
51822SOL    HW157363  10.499  11.663   7.369
51822SOL    HW257364  10.507  11.557   7.477
51823SOL     OW57365   6.039  14.773   3.958
51823SOL    HW157366   6.059  14.702   3.898
51823SOL    HW257367   6.124  14.808   3.984
51824SOL     OW57368  14.741   6.254   0.813
51824SOL    HW157369  14.703   6.219   0.732
51824SOL    HW257370  14.701   6.201   0.882
51825SOL     OW57371  11.574  13.110   9.244
51825SOL    HW157372  11.607  13.050   9.311
51825SOL    HW257373  11.480  13.114   9.260
51826SOL     OW57374  10.516   1.192   6.776
51826SOL    HW157375  10.555   1.279   6.786
51826SOL    HW257376  10.422   1.207   6.775
51827SOL     OW57377   8.442   4.658  14.274
51827SOL    HW157378   8.420   4.567  14.295
51827SOL    HW257379   8.358   4.703  14.274
51828SOL     OW57380  14.474   8.286  11.874
51828SOL    HW157381  14.526   8.281  11.954
51828SOL    HW257382  14.522   8.233  11.811
51829SOL     OW57383   5.354   0.104   7.058
51829SOL    HW157384   5.425   0.164   7.078
51829SOL    HW257385   5.316   0.139   6.977
51830SOL     OW57386  11.721   3.003  10.022
51830SOL    HW157387  11.668   3.021   9.944
51830SOL    HW257388  11.810   2.989   9.988
51831SOL     OW57389   4.084   3.218   3.879
51831SOL    HW157390   4.002   3.183   3.844
51831SOL    HW257391   4.069   3.225   3.974
51832SOL     OW57392   0.782   7.724   8.974
51832SOL    HW157393   0.792   7.744   8.881
51832SOL    HW257394   0.731   7.797   9.008
51833SOL     OW57395   4.801  11.448  14.115
51833SOL    HW157396   4.788  11.419  14.206
51833SOL    HW257397   4.804  11.367  14.065
51834SOL     OW57398   9.051  14.024  10.055
51834SOL    HW157399   9.028  13.931  10.045
51834SOL    HW257400   9.146  14.026  10.046
51835SOL     OW57401   9.024   5.778  12.143
51835SOL    HW157402   9.091   5.802  12.207
51835SOL    HW257403   8.941   5.784  12.191
51836SOL     OW57404  10.494  12.853  13.676
51836SOL    HW157405  10.459  12.838  13.764
51836SOL    HW257406  10.563  12.788  13.665
51837SOL     OW57407   2.868   0.302   8.008
51837SOL    HW157408   2.909   0.328   7.926
51837SOL    HW257409   2.811   0.229   7.984
51838SOL     OW57410   4.194   0.480  13.478
51838SOL    HW157411   4.227   0.511  13.394
51838SOL    HW257412   4.166   0.390  13.461
51839SOL     OW57413   6.088   2.120   2.497
51839SOL    HW157414   6.122   2.081   2.417
51839SOL    HW257415   6.051   2.204   2.470
51840SOL     OW57416   2.225  12.860   9.672
51840SOL    HW157417   2.258  12.789   9.727
51840SOL    HW257418   2.296  12.878   9.611
51841SOL     OW57419   7.020   4.259  13.547
51841SOL    HW157420   7.010   4.174  13.504
51841SOL    HW257421   7.000   4.241  13.639
51842SOL     OW57422   4.531  13.139   5.694
51842SOL    HW157423   4.457  13.171   5.643
51842SOL    HW257424   4.608  13.160   5.641
51843SOL     OW57425   1.460   3.272  11.887
51843SOL    HW157426   1.532   3.216  11.917
51843SOL    HW257427   1.496   3.318  11.812
51844SOL     OW57428   3.901   0.179   9.644
51844SOL    HW157429   3.910   0.170   9.739
51844SOL    HW257430   3.938   0.099   9.608
51845SOL     OW57431   6.744   6.135  14.363
51845SOL    HW157432   6.718   6.191  14.436
51845SOL    HW257433   6.814   6.080  14.400
51846SOL     OW57434   2.033   0.444  13.756
51846SOL    HW157435   2.013   0.505  13.827
51846SOL    HW257436   2.078   0.371  13.799
51847SOL     OW57437  10.080   0.743   2.809
51847SOL    HW157438  10.114   0.659   2.777
51847SOL    HW257439  10.092   0.739   2.904
51848SOL     OW57440  14.340   9.632  14.780
51848SOL    HW157441  14.262   9.628  14.835
51848SOL    HW257442  14.308   9.611  14.692
51849SOL     OW57443  14.874   3.497   1.593
51849SOL    HW157444  14.845   3.531   1.508
51849SOL    HW257445   0.000   3.574   1.647
51850SOL     OW57446   2.638   3.729   5.553
51850SOL    HW157447   2.588   3.766   5.626
51850SOL    HW257448   2.726   3.718   5.588
51851SOL     OW57449   6.312  11.570  10.177
51851SOL    HW157450   6.285  11.637  10.240
51851SOL    HW257451   6.246  11.501  10.186
51852SOL     OW57452  14.187  11.325   6.317
51852SOL    HW157453  14.198  11.393   6.250
51852SOL    HW257454  14.266  11.331   6.370
51853SOL     OW57455  11.279  10.031   4.847
51853SOL    HW157456  11.299   9.963   4.912
51853SOL    HW257457  11.365  10.065   4.821
51854SOL     OW57458   1.071  14.804   7.904
51854SOL    HW157459   1.065  14.854   7.985
51854SOL    HW257460   1.039  14.864   7.836
51855SOL     OW57461   8.072   1.110   1.020
51855SOL    HW157462   8.161   1.077   1.036
51855SOL    HW257463   8.081   1.166   0.943
51856SOL     OW57464   5.201   1.063   5.772
51856SOL    HW157465   5.152   0.982   5.767
51856SOL    HW257466   5.284   1.038   5.814
51857SOL     OW57467   0.740   5.314   5.790
51857SOL    HW157468   0.684   5.323   5.713
51857SOL    HW257469   0.741   5.220   5.807
51858SOL     OW57470   2.121   6.528   1.214
51858SOL    HW157471   2.154   6.543   1.303
51858SOL    HW257472   2.177   6.581   1.158
51859SOL     OW57473  10.810   6.981  10.771
51859SOL    HW157474  10.717   6.996  10.788
51859SOL    HW257475  10.819   6.886  10.775
51860SOL     OW57476   6.931   2.193   6.736
51860SOL    HW157477   6.990   2.195   6.660
51860SOL    HW257478   6.958   2.268   6.789
51861SOL     OW57479  11.015   4.815  14.684
51861SOL    HW157480  11.055   4.814  14.597
51861SOL    HW257481  10.980   4.904  14.693
51862SOL     OW57482  14.113  14.094   7.856
51862SOL    HW157483  14.075  14.164   7.908
51862SOL    HW257484  14.070  14.014   7.888
51863SOL     OW57485   5.475  14.312  11.477
51863SOL    HW157486   5.513  14.380  11.533
51863SOL    HW257487   5.399  14.280  11.526
51864SOL     OW57488   9.573   0.397   0.424
51864SOL    HW157489   9.624   0.445   0.359
51864SOL    HW257490   9.517   0.463   0.465
51865SOL     OW57491   7.987  12.550  12.076
51865SOL    HW157492   7.904  12.577  12.038
51865SOL    HW257493   7.981  12.455  12.083
51866SOL     OW57494  11.972   3.665  12.121
51866SOL    HW157495  11.882   3.678  12.093
51866SOL    HW257496  11.965   3.633  12.211
51867SOL     OW57497   5.770  13.144  11.521
51867SOL    HW157498   5.849  13.180  11.481
51867SOL    HW257499   5.714  13.120  11.447
51868SOL     OW57500  13.623   1.992   4.249
51868SOL    HW157501  13.702   2.046   4.256
51868SOL    HW257502  13.550   2.053   4.261
51869SOL     OW57503  13.725   3.244   1.643
51869SOL    HW157504  13.685   3.200   1.718
51869SOL    HW257505  13.804   3.285   1.678
51870SOL     OW57506  10.826   4.601   0.790
51870SOL    HW157507  10.809   4.694   0.807
51870SOL    HW257508  10.837   4.562   0.877
51871SOL     OW57509   3.732   2.849  13.470
51871SOL    HW157510   3.677   2.770  13.476
51871SOL    HW257511   3.753   2.856  13.377
51872SOL     OW57512   8.273   4.476  11.680
51872SOL    HW157513   8.213   4.402  11.665
51872SOL    HW257514   8.241   4.517  11.760
51873SOL     OW57515   8.487   5.775   0.283
51873SOL    HW157516   8.569   5.802   0.324
51873SOL    HW257517   8.418   5.811   0.339
51874SOL     OW57518   2.418   7.689   6.700
51874SOL    HW157519   2.410   7.714   6.792
51874SOL    HW257520   2.443   7.597   6.703
51875SOL     OW57521  14.873   7.617  13.641
51875SOL    HW157522   0.006   7.694  13.693
51875SOL    HW257523   0.068   7.595  13.597
51876SOL     OW57524  13.156   2.684   0.787
51876SOL    HW157525  13.122   2.752   0.729
51876SOL    HW257526  13.233   2.650   0.743
51877SOL     OW57527   2.131  13.306  10.976
51877SOL    HW157528   2.149  13.221  11.015
51877SOL    HW257529   2.124  13.366  11.051
51878SOL     OW57530  10.436  13.345   8.589
51878SOL    HW157531  10.523  13.312   8.610
51878SOL    HW257532  10.417  13.310   8.502
51879SOL     OW57533   8.200   5.197   5.461
51879SOL    HW157534   8.231   5.286   5.472
51879SOL    HW257535   8.219   5.175   5.370
51880SOL     OW57536  12.087  13.181  12.996
51880SOL    HW157537  12.114  13.220  12.914
51880SOL    HW257538  11.992  13.169  12.987
51881SOL     OW57539   0.365   6.413   4.862
51881SOL    HW157540   0.311   6.488   4.887
51881SOL    HW257541   0.421   6.397   4.938
51882SOL     OW57542   3.549   9.732   1.520
51882SOL    HW157543   3.544   9.758   1.428
51882SOL    HW257544   3.632   9.768   1.551
51883SOL     OW57545   3.310   3.557   8.735
51883SOL    HW157546   3.256   3.629   8.702
51883SOL    HW257547   3.257   3.479   8.720
51884SOL     OW57548   6.570   8.875  14.582
51884SOL    HW157549   6.652   8.834  14.610
51884SOL    HW257550   6.533   8.913  14.661
51885SOL     OW57551   8.286  13.353   9.792
51885SOL    HW157552   8.380  13.334   9.798
51885SOL    HW257553   8.244  13.267   9.791
51886SOL     OW57554   2.271   2.395   7.314
51886SOL    HW157555   2.354   2.440   7.328
51886SOL    HW257556   2.221   2.411   7.394
51887SOL     OW57557   7.419  10.778   2.959
51887SOL    HW157558   7.494  10.731   2.922
51887SOL    HW257559   7.457  10.831   3.029
51888SOL     OW57560   3.362  12.384   2.189
51888SOL    HW157561   3.290  12.392   2.252
51888SOL    HW257562   3.439  12.415   2.236
51889SOL     OW57563  11.875   8.224   4.381
51889SOL    HW157564  11.785   8.208   4.410
51889SOL    HW257565  11.928   8.218   4.461
51890SOL     OW57566   0.972  11.291   3.374
51890SOL    HW157567   0.950  11.384   3.362
51890SOL    HW257568   0.899  11.256   3.424
51891SOL     OW57569  14.420  11.626   5.698
51891SOL    HW157570  14.413  11.696   5.633
51891SOL    HW257571  14.409  11.545   5.647
51892SOL     OW57572  14.146  11.370   0.828
51892SOL    HW157573  14.087  11.443   0.843
51892SOL    HW257574  14.093  11.292   0.842
51893SOL     OW57575   1.131  13.002   0.440
51893SOL    HW157576   1.164  13.077   0.489
51893SOL    HW257577   1.036  13.004   0.453
51894SOL     OW57578   6.977  12.550   3.546
51894SOL    HW157579   6.941  12.502   3.621
51894SOL    HW257580   7.071  12.549   3.559
51895SOL     OW57581   1.052  12.760   2.247
51895SOL    HW157582   1.122  12.801   2.298
51895SOL    HW257583   1.097  12.720   2.173
51896SOL     OW57584  12.919  14.492   6.758
51896SOL    HW157585  12.993  14.550   6.743
51896SOL    HW257586  12.957  14.404   6.759
51897SOL     OW57587   9.855   4.362   6.644
51897SOL    HW157588   9.839   4.281   6.693
51897SOL    HW257589   9.934   4.398   6.682
51898SOL     OW57590   4.995   9.938   5.040
51898SOL    HW157591   4.962  10.003   4.978
51898SOL    HW257592   5.090   9.938   5.027
51899SOL     OW57593  11.703   8.444   9.176
51899SOL    HW157594  11.694   8.440   9.271
51899SOL    HW257595  11.770   8.379   9.155
51900SOL     OW57596   7.988  13.279  11.697
51900SOL    HW157597   8.032  13.304  11.615
51900SOL    HW257598   7.975  13.185  11.689
51901SOL     OW57599   6.263   9.770  10.264
51901SOL    HW157600   6.230   9.789  10.352
51901SOL    HW257601   6.210   9.824  10.206
51902SOL     OW57602   3.055  10.305  10.205
51902SOL    HW157603   3.042  10.224  10.255
51902SOL    HW257604   3.035  10.280  10.114
51903SOL     OW57605   4.403   2.929  11.499
51903SOL    HW157606   4.369   2.841  11.520
51903SOL    HW257607   4.419   2.926  11.405
51904SOL     OW57608   3.894   4.353  12.068
51904SOL    HW157609   3.986   4.369  12.089
51904SOL    HW257610   3.893   4.333  11.975
51905SOL     OW57611  11.557  12.655   5.062
51905SOL    HW157612  11.532  12.742   5.094
51905SOL    HW257613  11.590  12.610   5.140
51906SOL     OW57614   5.168   9.021   2.880
51906SOL    HW157615   5.074   9.030   2.861
51906SOL    HW257616   5.173   8.954   2.947
51907SOL     OW57617   2.055   3.188  12.828
51907SOL    HW157618   2.044   3.242  12.750
51907SOL    HW257619   2.137   3.141  12.814
51908SOL     OW57620   3.928  13.398   0.195
51908SOL    HW157621   3.968  13.341   0.261
51908SOL    HW257622   3.892  13.337   0.130
51909SOL     OW57623   2.409   3.426   2.322
51909SOL    HW157624   2.365   3.473   2.252
51909SOL    HW257625   2.455   3.355   2.278
51910SOL     OW57626   7.307   7.849  13.754
51910SOL    HW157627   7.300   7.845  13.849
51910SOL    HW257628   7.295   7.758  13.725
51911SOL     OW57629   4.078   6.949  10.964
51911SOL    HW157630   4.169   6.937  10.940
51911SOL    HW257631   4.029   6.893  10.903
51912SOL     OW57632   7.724   7.039   8.680
51912SOL    HW157633   7.674   6.957   8.677
51912SOL    HW257634   7.733   7.064   8.588
51913SOL     OW57635   1.535  12.134  13.839
51913SOL    HW157636   1.624  12.154  13.870
51913SOL    HW257637   1.547  12.112  13.746
51914SOL     OW57638  11.622   6.727   9.868
51914SOL    HW157639  11.692   6.688   9.921
51914SOL    HW257640  11.541   6.705   9.916
51915SOL     OW57641   6.125   2.743  13.006
51915SOL    HW157642   6.152   2.711  13.092
51915SOL    HW257643   6.188   2.811  12.984
51916SOL     OW57644  11.588  11.941  10.884
51916SOL    HW157645  11.640  12.009  10.927
51916SOL    HW257646  11.589  11.965  10.791
51917SOL     OW57647  14.490   8.013  11.357
51917SOL    HW157648  14.556   7.960  11.402
51917SOL    HW257649  14.535   8.046  11.280
51918SOL     OW57650  12.154  14.695   0.975
51918SOL    HW157651  12.119  14.655   1.055
51918SOL    HW257652  12.249  14.685   0.984
51919SOL     OW57653  11.362  12.426  11.938
51919SOL    HW157654  11.401  12.408  11.853
51919SOL    HW257655  11.389  12.351  11.993
51920SOL     OW57656   5.090   7.325   8.169
51920SOL    HW157657   5.142   7.244   8.166
51920SOL    HW257658   5.038   7.317   8.249
51921SOL     OW57659  12.079  12.336  11.952
51921SOL    HW157660  12.161  12.385  11.939
51921SOL    HW257661  12.046  12.367  12.037
51922SOL     OW57662   3.027   5.394   8.087
51922SOL    HW157663   3.070   5.461   8.034
51922SOL    HW257664   3.086   5.319   8.083
51923SOL     OW57665  11.209  14.374   3.727
51923SOL    HW157666  11.197  14.333   3.642
51923SOL    HW257667  11.180  14.465   3.714
51924SOL     OW57668   4.698  11.394  12.136
51924SOL    HW157669   4.746  11.384  12.054
51924SOL    HW257670   4.667  11.306  12.157
51925SOL     OW57671  11.014  14.826   6.165
51925SOL    HW157672  11.004  14.881   6.243
51925SOL    HW257673  10.925  14.798   6.143
51926SOL     OW57674   1.091  14.405  11.342
51926SOL    HW157675   1.025  14.374  11.280
51926SOL    HW257676   1.051  14.483  11.380
51927SOL     OW57677  10.832  11.657   3.800
51927SOL    HW157678  10.845  11.575   3.847
51927SOL    HW257679  10.867  11.641   3.713
51928SOL     OW57680   1.088   0.180   7.299
51928SOL    HW157681   1.069   0.244   7.368
51928SOL    HW257682   1.046   0.099   7.329
51929SOL     OW57683  10.772   9.743  12.927
51929SOL    HW157684  10.861   9.744  12.963
51929SOL    HW257685  10.718   9.712  12.999
51930SOL     OW57686  13.538   0.176  11.266
51930SOL    HW157687  13.563   0.193  11.357
51930SOL    HW257688  13.523   0.081  11.263
51931SOL     OW57689  12.460   7.533   4.196
51931SOL    HW157690  12.369   7.511   4.179
51931SOL    HW257691  12.473   7.618   4.153
51932SOL     OW57692   5.621   8.140   6.210
51932SOL    HW157693   5.663   8.101   6.286
51932SOL    HW257694   5.529   8.114   6.218
51933SOL     OW57695  12.519   0.137  12.576
51933SOL    HW157696  12.545   0.064  12.633
51933SOL    HW257697  12.445   0.103  12.525
51934SOL     OW57698  10.828  12.522   5.922
51934SOL    HW157699  10.749  12.505   5.871
51934SOL    HW257700  10.807  12.491   6.010
51935SOL     OW57701  11.347   8.313  10.784
51935SOL    HW157702  11.347   8.229  10.737
51935SOL    HW257703  11.398   8.372  10.729
51936SOL     OW57704   4.918  12.206  14.663
51936SOL    HW157705   4.958  12.169  14.584
51936SOL    HW257706   4.922  12.135  14.727
51937SOL     OW57707  13.596   5.870   2.408
51937SOL    HW157708  13.585   5.905   2.496
51937SOL    HW257709  13.616   5.777   2.422
51938SOL     OW57710   1.582  10.219   8.298
51938SOL    HW157711   1.586  10.289   8.232
51938SOL    HW257712   1.612  10.261   8.378
51939SOL     OW57713   4.633   6.635   9.874
51939SOL    HW157714   4.556   6.635   9.932
51939SOL    HW257715   4.705   6.606   9.930
51940SOL     OW57716   6.284  10.633   6.785
51940SOL    HW157717   6.355  10.679   6.830
51940SOL    HW257718   6.220  10.615   6.854
51941SOL     OW57719  11.170   4.374   2.935
51941SOL    HW157720  11.075   4.381   2.926
51941SOL    HW257721  11.197   4.460   2.969
51942SOL     OW57722  11.233   6.992   7.268
51942SOL    HW157723  11.177   7.002   7.345
51942SOL    HW257724  11.279   7.076   7.261
51943SOL     OW57725   0.094   7.225   7.343
51943SOL    HW157726   0.035   7.178   7.403
51943SOL    HW257727   0.049   7.221   7.258
51944SOL     OW57728   9.920   7.411  13.991
51944SOL    HW157729   9.986   7.473  13.959
51944SOL    HW257730   9.948   7.389  14.079
51945SOL     OW57731   6.843   4.781  13.738
51945SOL    HW157732   6.866   4.784  13.831
51945SOL    HW257733   6.863   4.691  13.712
51946SOL     OW57734  12.416   1.527   8.517
51946SOL    HW157735  12.342   1.526   8.456
51946SOL    HW257736  12.431   1.435   8.537
51947SOL     OW57737   8.970   8.455  13.868
51947SOL    HW157738   8.884   8.488  13.841
51947SOL    HW257739   9.033   8.513  13.825
51948SOL     OW57740  10.797  14.188   6.019
51948SOL    HW157741  10.730  14.196   6.088
51948SOL    HW257742  10.747  14.178   5.938
51949SOL     OW57743   0.387  13.027   4.306
51949SOL    HW157744   0.345  12.999   4.224
51949SOL    HW257745   0.379  12.951   4.364
51950SOL     OW57746  11.250   0.843   9.290
51950SOL    HW157747  11.258   0.843   9.386
51950SOL    HW257748  11.203   0.925   9.271
51951SOL     OW57749   8.728  13.263   1.867
51951SOL    HW157750   8.724  13.358   1.880
51951SOL    HW257751   8.781  13.231   1.940
51952SOL     OW57752   4.388  11.124   6.400
51952SOL    HW157753   4.399  11.215   6.429
51952SOL    HW257754   4.439  11.117   6.320
51953SOL     OW57755   3.142   0.739   6.424
51953SOL    HW157756   3.062   0.688   6.414
51953SOL    HW257757   3.186   0.731   6.339
51954SOL     OW57758  10.486  10.956   7.346
51954SOL    HW157759  10.535  11.013   7.288
51954SOL    HW257760  10.539  10.876   7.352
51955SOL     OW57761   0.659   4.839  12.014
51955SOL    HW157762   0.655   4.830  11.919
51955SOL    HW257763   0.722   4.910  12.029
51956SOL     OW57764  13.688   2.914  13.567
51956SOL    HW157765  13.630   2.988  13.550
51956SOL    HW257766  13.702   2.874  13.482
51957SOL     OW57767  14.068   5.354   7.417
51957SOL    HW157768  14.012   5.425   7.447
51957SOL    HW257769  14.149   5.364   7.467
51958SOL     OW57770   4.025   1.642   3.880
51958SOL    HW157771   4.068   1.565   3.917
51958SOL    HW257772   4.097   1.703   3.864
51959SOL     OW57773   0.635   8.686  12.241
51959SOL    HW157774   0.683   8.728  12.313
51959SOL    HW257775   0.697   8.685  12.168
51960SOL     OW57776   1.268   1.702  14.882
51960SOL    HW157777   1.313   1.620  14.860
51960SOL    HW257778   1.201   1.676   0.058
51961SOL     OW57779   1.868   9.610   8.092
51961SOL    HW157780   1.958   9.586   8.068
51961SOL    HW257781   1.876   9.696   8.132
51962SOL     OW57782  14.755   9.859  11.560
51962SOL    HW157783  14.682   9.798  11.560
51962SOL    HW257784  14.828   9.810  11.521
51963SOL     OW57785   0.974   5.111   7.836
51963SOL    HW157786   0.907   5.126   7.769
51963SOL    HW257787   1.015   5.028   7.810
51964SOL     OW57788   3.977   4.126   8.330
51964SOL    HW157789   3.959   4.038   8.295
51964SOL    HW257790   3.892   4.156   8.363
51965SOL     OW57791  12.499   0.457   9.679
51965SOL    HW157792  12.550   0.393   9.728
51965SOL    HW257793  12.564   0.522   9.652
51966SOL     OW57794   9.970   9.524   3.999
51966SOL    HW157795   9.970   9.606   4.048
51966SOL    HW257796   9.982   9.550   3.908
51967SOL     OW57797  12.785   2.003  11.619
51967SOL    HW157798  12.750   1.956  11.544
51967SOL    HW257799  12.872   1.966  11.632
51968SOL     OW57800  13.692   8.307   1.467
51968SOL    HW157801  13.646   8.223   1.465
51968SOL    HW257802  13.680   8.344   1.380
51969SOL     OW57803   5.766   9.569   1.951
51969SOL    HW157804   5.854   9.543   1.923
51969SOL    HW257805   5.775   9.660   1.980
51970SOL     OW57806   4.907  13.377   4.375
51970SOL    HW157807   4.827  13.359   4.426
51970SOL    HW257808   4.953  13.293   4.372
51971SOL     OW57809   8.575   7.875   4.330
51971SOL    HW157810   8.589   7.855   4.238
51971SOL    HW257811   8.480   7.874   4.341
51972SOL     OW57812   4.331   8.097   7.083
51972SOL    HW157813   4.419   8.122   7.054
51972SOL    HW257814   4.342   8.074   7.175
51973SOL     OW57815   1.207   9.957   0.728
51973SOL    HW157816   1.141   9.889   0.712
51973SOL    HW257817   1.284   9.927   0.681
51974SOL     OW57818   3.852   7.484   9.613
51974SOL    HW157819   3.813   7.529   9.538
51974SOL    HW257820   3.788   7.416   9.636
51975SOL     OW57821   7.987   8.444  11.036
51975SOL    HW157822   8.052   8.426  10.968
51975SOL    HW257823   8.038   8.449  11.117
51976SOL     OW57824   7.123  10.655   0.271
51976SOL    HW157825   7.201  10.688   0.316
51976SOL    HW257826   7.146  10.661   0.178
51977SOL     OW57827   1.343   0.960   2.067
51977SOL    HW157828   1.274   0.926   2.010
51977SOL    HW257829   1.306   0.953   2.155
51978SOL     OW57830   4.189   6.975   5.439
51978SOL    HW157831   4.154   7.061   5.412
51978SOL    HW257832   4.263   6.960   5.381
51979SOL     OW57833   3.276  11.669   2.351
51979SOL    HW157834   3.204  11.616   2.386
51979SOL    HW257835   3.234  11.736   2.298
51980SOL     OW57836   5.869   9.342  10.264
51980SOL    HW157837   5.934   9.284  10.304
51980SOL    HW257838   5.859   9.413  10.327
51981SOL     OW57839  12.760   1.348   7.981
51981SOL    HW157840  12.765   1.282   7.912
51981SOL    HW257841  12.820   1.418   7.953
51982SOL     OW57842   8.949  13.189   7.790
51982SOL    HW157843   8.893  13.115   7.812
51982SOL    HW257844   9.036  13.162   7.820
51983SOL     OW57845  13.830   7.208   0.308
51983SOL    HW157846  13.924   7.214   0.328
51983SOL    HW257847  13.790   7.279   0.360
51984SOL     OW57848   7.948   4.168  10.542
51984SOL    HW157849   8.018   4.122  10.496
51984SOL    HW257850   7.891   4.202  10.473
51985SOL     OW57851   4.218  13.477   9.963
51985SOL    HW157852   4.261  13.439  10.040
51985SOL    HW257853   4.282  13.467   9.893
51986SOL     OW57854   6.585   9.764   6.056
51986SOL    HW157855   6.643   9.765   6.132
51986SOL    HW257856   6.633   9.714   5.990
51987SOL     OW57857   9.891   1.791   0.990
51987SOL    HW157858   9.966   1.846   1.015
51987SOL    HW257859   9.831   1.797   1.064
51988SOL     OW57860   2.829   1.060   0.440
51988SOL    HW157861   2.880   1.049   0.520
51988SOL    HW257862   2.828   1.155   0.426
51989SOL     OW57863   0.457  12.581   2.715
51989SOL    HW157864   0.379  12.591   2.660
51989SOL    HW257865   0.498  12.501   2.684
51990SOL     OW57866   8.836   1.956  12.863
51990SOL    HW157867   8.871   1.874  12.829
51990SOL    HW257868   8.805   1.934  12.951
51991SOL     OW57869   5.477   0.400  14.003
51991SOL    HW157870   5.395   0.419  13.957
51991SOL    HW257871   5.534   0.475  13.983
51992SOL     OW57872   8.637   7.644   0.820
51992SOL    HW157873   8.709   7.685   0.867
51992SOL    HW257874   8.564   7.643   0.883
51993SOL     OW57875   0.105   8.169  13.880
51993SOL    HW157876   0.148   8.111  13.942
51993SOL    HW257877   0.153   8.157  13.798
51994SOL     OW57878  13.795   3.948   5.394
51994SOL    HW157879  13.826   3.858   5.390
51994SOL    HW257880  13.713   3.947   5.344
51995SOL     OW57881   6.912   8.648   0.974
51995SOL    HW157882   6.838   8.706   0.992
51995SOL    HW257883   6.916   8.590   1.050
51996SOL     OW57884   4.070   6.072   5.475
51996SOL    HW157885   4.092   6.019   5.552
51996SOL    HW257886   4.075   6.162   5.506
51997SOL     OW57887  12.698   5.229   5.845
51997SOL    HW157888  12.773   5.204   5.899
51997SOL    HW257889  12.701   5.170   5.770
51998SOL     OW57890   7.497   9.444   6.503
51998SOL    HW157891   7.545   9.408   6.428
51998SOL    HW257892   7.566   9.467   6.566
51999SOL     OW57893  11.820   7.740  12.680
51999SOL    HW157894  11.811   7.717  12.587
51999SOL    HW257895  11.735   7.719  12.718
52000SOL     OW57896   2.980   0.163   4.597
52000SOL    HW157897   2.922   0.116   4.657
52000SOL    HW257898   2.956   0.255   4.608
52001SOL     OW57899   4.455   7.626   2.587
52001SOL    HW157900   4.383   7.582   2.633
52001SOL    HW257901   4.412   7.681   2.522
52002SOL     OW57902   3.419   9.204   5.317
52002SOL    HW157903   3.430   9.296   5.293
52002SOL    HW257904   3.335   9.201   5.362
52003SOL     OW57905   9.813   7.982   0.698
52003SOL    HW157906   9.813   7.906   0.756
52003SOL    HW257907   9.905   8.008   0.691
52004SOL     OW57908   4.839   2.401  10.597
52004SOL    HW157909   4.828   2.475  10.657
52004SOL    HW257910   4.926   2.413  10.559
52005SOL     OW57911   7.554  10.299  13.881
52005SOL    HW157912   7.597  10.378  13.913
52005SOL    HW257913   7.463  10.307  13.909
52006SOL     OW57914   3.425  10.937   4.443
52006SOL    HW157915   3.462  10.859   4.483
52006SOL    HW257916   3.337  10.911   4.415
52007SOL     OW57917  11.680   5.835   1.955
52007SOL    HW157918  11.771   5.821   1.927
52007SOL    HW257919  11.638   5.749   1.943
52008SOL     OW57920  10.466  11.815  11.698
52008SOL    HW157921  10.414  11.856  11.629
52008SOL    HW257922  10.427  11.847  11.779
52009SOL     OW57923   9.497   9.528   0.806
52009SOL    HW157924   9.411   9.538   0.766
52009SOL    HW257925   9.541   9.611   0.788
52010SOL     OW57926   7.609  12.779   7.200
52010SOL    HW157927   7.623  12.705   7.141
52010SOL    HW257928   7.588  12.853   7.143
52011SOL     OW57929   8.072   6.755   6.925
52011SOL    HW157930   8.055   6.689   6.992
52011SOL    HW257931   8.136   6.814   6.965
52012SOL     OW57932   2.163   4.844  13.985
52012SOL    HW157933   2.081   4.829  13.938
52012SOL    HW257934   2.214   4.900  13.928
52013SOL     OW57935  11.652   0.490  13.756
52013SOL    HW157936  11.659   0.585  13.756
52013SOL    HW257937  11.735   0.459  13.791
52014SOL     OW57938  10.921  11.750  14.476
52014SOL    HW157939  10.951  11.659  14.471
52014SOL    HW257940  10.889  11.760  14.566
52015SOL     OW57941   9.646  10.771   8.012
52015SOL    HW157942   9.645  10.698   7.951
52015SOL    HW257943   9.629  10.731   8.098
52016SOL     OW57944   7.895  13.517   1.040
52016SOL    HW157945   7.832  13.445   1.037
52016SOL    HW257946   7.943  13.505   1.121
52017SOL     OW57947   5.877  13.886   5.426
52017SOL    HW157948   5.787  13.912   5.445
52017SOL    HW257949   5.892  13.808   5.481
52018SOL     OW57950   5.231   4.484   3.234
52018SOL    HW157951   5.241   4.444   3.320
52018SOL    HW257952   5.260   4.574   3.245
52019SOL     OW57953   3.935   8.022  10.429
52019SOL    HW157954   3.920   7.972  10.349
52019SOL    HW257955   4.002   7.972  10.477
52020SOL     OW57956  13.191  11.059   1.043
52020SOL    HW157957  13.102  11.027   1.057
52020SOL    HW257958  13.240  11.030   1.120
52021SOL     OW57959   9.716  13.630   9.651
52021SOL    HW157960   9.655  13.686   9.700
52021SOL    HW257961   9.801  13.646   9.691
52022SOL     OW57962   3.453  12.067  12.616
52022SOL    HW157963   3.422  11.992  12.565
52022SOL    HW257964   3.548  12.067  12.602
52023SOL     OW57965   3.876   7.229  10.835
52023SOL    HW157966   3.888   7.181  10.753
52023SOL    HW257967   3.808   7.293  10.816
52024SOL     OW57968   2.846   2.399  11.092
52024SOL    HW157969   2.894   2.324  11.126
52024SOL    HW257970   2.816   2.372  11.006
52025SOL     OW57971   1.346   0.412   5.235
52025SOL    HW157972   1.285   0.337   5.232
52025SOL    HW257973   1.414   0.389   5.172
52026SOL     OW57974   8.779   4.830   3.881
52026SOL    HW157975   8.697   4.849   3.928
52026SOL    HW257976   8.753   4.827   3.789
52027SOL     OW57977   0.603  13.604  11.542
52027SOL    HW157978   0.641  13.646  11.466
52027SOL    HW257979   0.554  13.530  11.506
52028SOL     OW57980   7.115  13.039   2.160
52028SOL    HW157981   7.074  13.120   2.131
52028SOL    HW257982   7.061  12.970   2.121
52029SOL     OW57983   8.826   0.404   8.125
52029SOL    HW157984   8.742   0.448   8.130
52029SOL    HW257985   8.874   0.435   8.202
52030SOL     OW57986   5.437   6.189   7.585
52030SOL    HW157987   5.357   6.138   7.578
52030SOL    HW257988   5.428   6.258   7.518
52031SOL     OW57989   7.912   0.568   6.348
52031SOL    HW157990   7.938   0.644   6.400
52031SOL    HW257991   7.984   0.506   6.358
52032SOL     OW57992   1.832   8.093   8.063
52032SOL    HW157993   1.745   8.057   8.083
52032SOL    HW257994   1.823   8.127   7.974
52033SOL     OW57995   4.645  10.236  12.131
52033SOL    HW157996   4.638  10.309  12.070
52033SOL    HW257997   4.595  10.165  12.090
52034SOL     OW57998   1.604   3.966  11.678
52034SOL    HW157999   1.677   3.950  11.618
52034SOL    HW258000   1.631   4.043  11.728
52035SOL     OW58001   6.995   6.219   6.947
52035SOL    HW158002   6.907   6.249   6.968
52035SOL    HW258003   7.053   6.287   6.982
52036SOL     OW58004  11.577   2.167  12.863
52036SOL    HW158005  11.662   2.122  12.854
52036SOL    HW258006  11.572   2.224  12.786
52037SOL     OW58007   6.856   1.993   9.223
52037SOL    HW158008   6.801   1.973   9.147
52037SOL    HW258009   6.939   1.950   9.204
52038SOL     OW58010   9.854   6.428   3.949
52038SOL    HW158011   9.901   6.503   3.912
52038SOL    HW258012   9.779   6.415   3.891
52039SOL     OW58013   0.110   9.951   6.438
52039SOL    HW158014   0.197   9.968   6.401
52039SOL    HW258015   0.064  10.034   6.429
52040SOL     OW58016  11.079   0.340   9.440
52040SOL    HW158017  11.084   0.394   9.518
52040SOL    HW258018  10.993   0.359   9.403
52041SOL     OW58019   1.553  10.967  13.942
52041SOL    HW158020   1.581  11.053  13.911
52041SOL    HW258021   1.604  10.905  13.890
52042SOL     OW58022  11.693   1.333   9.769
52042SOL    HW158023  11.631   1.260   9.767
52042SOL    HW258024  11.771   1.299   9.725
52043SOL     OW58025   3.638   5.397   4.515
52043SOL    HW158026   3.556   5.415   4.560
52043SOL    HW258027   3.701   5.456   4.556
52044SOL     OW58028   6.232   2.064  11.896
52044SOL    HW158029   6.175   2.055  11.819
52044SOL    HW258030   6.191   2.009  11.962
52045SOL     OW58031   0.523   2.575   3.560
52045SOL    HW158032   0.551   2.491   3.526
52045SOL    HW258033   0.548   2.638   3.493
52046SOL     OW58034   2.435   8.987  10.026
52046SOL    HW158035   2.375   8.987   9.951
52046SOL    HW258036   2.480   9.071  10.021
52047SOL     OW58037   8.998   4.811   8.301
52047SOL    HW158038   9.019   4.722   8.331
52047SOL    HW258039   8.950   4.798   8.219
52048SOL     OW58040   7.339   4.090   1.414
52048SOL    HW158041   7.338   4.168   1.470
52048SOL    HW258042   7.256   4.093   1.367
52049SOL     OW58043   4.288   7.539  14.582
52049SOL    HW158044   4.253   7.628  14.589
52049SOL    HW258045   4.294   7.523  14.488
52050SOL     OW58046  14.242  11.294   3.780
52050SOL    HW158047  14.295  11.371   3.799
52050SOL    HW258048  14.180  11.323   3.713
52051SOL     OW58049  14.472   4.817   1.843
52051SOL    HW158050  14.413   4.891   1.832
52051SOL    HW258051  14.418   4.750   1.885
52052SOL     OW58052  11.771   6.836   3.627
52052SOL    HW158053  11.713   6.762   3.610
52052SOL    HW258054  11.859   6.800   3.613
52053SOL     OW58055   3.055   1.504   2.931
52053SOL    HW158056   3.127   1.524   2.871
52053SOL    HW258057   2.981   1.553   2.896
52054SOL     OW58058   0.785  10.699  10.141
52054SOL    HW158059   0.718  10.667  10.080
52054SOL    HW258060   0.775  10.644  10.219
52055SOL     OW58061   2.278  13.323   4.612
52055SOL    HW158062   2.294  13.248   4.669
52055SOL    HW258063   2.354  13.380   4.626
52056SOL     OW58064   8.065  13.104   6.186
52056SOL    HW158065   8.138  13.123   6.127
52056SOL    HW258066   8.104  13.053   6.257
52057SOL     OW58067  11.143   9.168  12.912
52057SOL    HW158068  11.138   9.152  12.818
52057SOL    HW258069  11.054   9.189  12.939
52058SOL     OW58070   0.582   5.084  13.579
52058SOL    HW158071   0.664   5.036  13.588
52058SOL    HW258072   0.561   5.112  13.668
52059SOL     OW58073   0.829   6.193   3.777
52059SOL    HW158074   0.880   6.273   3.789
52059SOL    HW258075   0.884   6.124   3.813
52060SOL     OW58076   4.216   3.776  11.193
52060SOL    HW158077   4.175   3.798  11.277
52060SOL    HW258078   4.153   3.807  11.128
52061SOL     OW58079   5.645   2.885   2.057
52061SOL    HW158080   5.710   2.922   2.117
52061SOL    HW258081   5.686   2.805   2.023
52062SOL     OW58082  10.020   4.105  12.732
52062SOL    HW158083  10.057   4.193  12.724
52062SOL    HW258084   9.954   4.100  12.663
52063SOL     OW58085   5.616  12.575   1.980
52063SOL    HW158086   5.656  12.491   2.003
52063SOL    HW258087   5.565  12.556   1.901
52064SOL     OW58088   1.364   4.344   0.278
52064SOL    HW158089   1.401   4.298   0.353
52064SOL    HW258090   1.432   4.341   0.211
52065SOL     OW58091  10.197   5.050  12.843
52065SOL    HW158092  10.231   5.082  12.760
52065SOL    HW258093  10.114   5.096  12.855
52066SOL     OW58094  14.778  11.552   5.532
52066SOL    HW158095  14.752  11.608   5.606
52066SOL    HW258096  14.866  11.581   5.509
52067SOL     OW58097   9.037   5.249   8.222
52067SOL    HW158098   9.001   5.185   8.284
52067SOL    HW258099   8.975   5.247   8.149
52068SOL     OW58100   0.232  10.048   8.323
52068SOL    HW158101   0.303  10.052   8.387
52068SOL    HW258102   0.153  10.040   8.377
52069SOL     OW58103   2.035   6.636   5.317
52069SOL    HW158104   1.945   6.617   5.291
52069SOL    HW258105   2.028   6.662   5.409
52070SOL     OW58106   1.961   2.623   9.729
52070SOL    HW158107   1.963   2.636   9.823
52070SOL    HW258108   1.899   2.551   9.716
52071SOL     OW58109  14.036   3.881   4.284
52071SOL    HW158110  13.989   3.961   4.311
52071SOL    HW258111  14.123   3.911   4.260
52072SOL     OW58112   9.822   0.332   1.731
52072SOL    HW158113   9.871   0.404   1.692
52072SOL    HW258114   9.765   0.374   1.795
52073SOL     OW58115   6.115   7.807   9.237
52073SOL    HW158116   6.137   7.833   9.327
52073SOL    HW258117   6.196   7.772   9.202
52074SOL     OW58118   0.296   0.630   2.474
52074SOL    HW158119   0.256   0.717   2.469
52074SOL    HW258120   0.309   0.615   2.567
52075SOL     OW58121  14.812   4.838  12.847
52075SOL    HW158122  14.737   4.812  12.793
52075SOL    HW258123  14.775   4.898  12.911
52076SOL     OW58124  12.294   8.654   9.358
52076SOL    HW158125  12.371   8.669   9.413
52076SOL    HW258126  12.221   8.655   9.419
52077SOL     OW58127  13.755  14.407   2.347
52077SOL    HW158128  13.771  14.315   2.368
52077SOL    HW258129  13.807  14.423   2.268
52078SOL     OW58130  11.101   0.376   1.687
52078SOL    HW158131  11.160   0.330   1.627
52078SOL    HW258132  11.040   0.309   1.717
52079SOL     OW58133   4.193   6.450   5.466
52079SOL    HW158134   4.274   6.451   5.415
52079SOL    HW258135   4.209   6.386   5.535
52080SOL     OW58136  13.489   0.954   2.793
52080SOL    HW158137  13.584   0.958   2.779
52080SOL    HW258138  13.452   0.955   2.705
52081SOL     OW58139   6.487   2.918   0.403
52081SOL    HW158140   6.399   2.880   0.393
52081SOL    HW258141   6.477   2.985   0.470
52082SOL     OW58142   6.273  11.972   4.465
52082SOL    HW158143   6.317  12.055   4.447
52082SOL    HW258144   6.332  11.905   4.430
52083SOL     OW58145   0.277   1.676  10.078
52083SOL    HW158146   0.319   1.759  10.054
52083SOL    HW258147   0.249   1.689  10.169
52084SOL     OW58148  12.096   3.135  11.781
52084SOL    HW158149  12.188   3.124  11.756
52084SOL    HW258150  12.052   3.164  11.702
52085SOL     OW58151  14.429   1.383  14.360
52085SOL    HW158152  14.470   1.375  14.274
52085SOL    HW258153  14.477   1.454  14.403
52086SOL     OW58154   5.058   3.792   8.117
52086SOL    HW158155   5.079   3.876   8.075
52086SOL    HW258156   5.101   3.796   8.202
52087SOL     OW58157   1.944   8.041   8.991
52087SOL    HW158158   1.956   8.135   9.003
52087SOL    HW258159   2.033   8.005   8.997
52088SOL     OW58160   1.027   3.573  11.177
52088SOL    HW158161   0.992   3.501  11.230
52088SOL    HW258162   0.982   3.651  11.209
52089SOL     OW58163   9.714   7.191   2.897
52089SOL    HW158164   9.632   7.141   2.905
52089SOL    HW258165   9.694   7.275   2.938
52090SOL     OW58166   9.081  14.864  10.313
52090SOL    HW158167   9.094  14.809  10.236
52090SOL    HW258168   9.082   0.066  10.279
52091SOL     OW58169   1.220   2.767   3.649
52091SOL    HW158170   1.145   2.822   3.624
52091SOL    HW258171   1.284   2.781   3.580
52092SOL     OW58172   8.162   4.036  10.887
52092SOL    HW158173   8.134   4.093  10.958
52092SOL    HW258174   8.236   4.082  10.847
52093SOL     OW58175  11.012   8.614  11.723
52093SOL    HW158176  11.065   8.690  11.702
52093SOL    HW258177  10.929   8.650  11.753
52094SOL     OW58178   2.019   5.165   9.874
52094SOL    HW158179   1.945   5.220   9.849
52094SOL    HW258180   2.011   5.156   9.969
52095SOL     OW58181   3.134  14.829   1.208
52095SOL    HW158182   3.210  14.871   1.168
52095SOL    HW258183   3.160  14.812   1.298
52096SOL     OW58184  11.800  12.292   1.019
52096SOL    HW158185  11.764  12.320   0.935
52096SOL    HW258186  11.784  12.365   1.078
52097SOL     OW58187   7.508   7.386   1.164
52097SOL    HW158188   7.439   7.409   1.102
52097SOL    HW258189   7.462   7.357   1.243
52098SOL     OW58190   0.245   4.686   4.496
52098SOL    HW158191   0.311   4.726   4.439
52098SOL    HW258192   0.262   4.592   4.489
52099SOL     OW58193   4.359   2.783   6.717
52099SOL    HW158194   4.416   2.706   6.710
52099SOL    HW258195   4.356   2.818   6.627
52100SOL     OW58196  13.237  13.386   8.934
52100SOL    HW158197  13.151  13.346   8.946
52100SOL    HW258198  13.254  13.431   9.016
52101SOL     OW58199   6.394   4.309   1.685
52101SOL    HW158200   6.460   4.308   1.753
52101SOL    HW258201   6.336   4.236   1.706
52102SOL     OW58202  10.051   9.396   3.735
52102SOL    HW158203  10.142   9.367   3.727
52102SOL    HW258204  10.006   9.356   3.660
52103SOL     OW58205  12.281   2.892   0.358
52103SOL    HW158206  12.370   2.884   0.391
52103SOL    HW258207  12.229   2.913   0.436
52104SOL     OW58208   3.198  13.310   9.059
52104SOL    HW158209   3.250  13.236   9.030
52104SOL    HW258210   3.124  13.270   9.106
52105SOL     OW58211   3.078  10.520  14.733
52105SOL    HW158212   3.037  10.504  14.817
52105SOL    HW258213   3.008  10.510  14.669
52106SOL     OW58214   5.551  12.699   0.474
52106SOL    HW158215   5.540  12.613   0.432
52106SOL    HW258216   5.623  12.740   0.425
52107SOL     OW58217   3.594  10.915   9.701
52107SOL    HW158218   3.538  10.924   9.624
52107SOL    HW258219   3.593  10.821   9.721
52108SOL     OW58220  11.160  14.255   1.991
52108SOL    HW158221  11.107  14.223   2.064
52108SOL    HW258222  11.231  14.191   1.984
52109SOL     OW58223   0.085   7.981   8.221
52109SOL    HW158224   0.059   8.070   8.247
52109SOL    HW258225   0.003   7.934   8.211
52110SOL     OW58226  12.460  14.372  14.289
52110SOL    HW158227  12.507  14.402  14.212
52110SOL    HW258228  12.510  14.408  14.363
52111SOL     OW58229   0.075   9.064   5.915
52111SOL    HW158230   0.150   9.058   5.974
52111SOL    HW258231   0.084   9.149   5.872
52112SOL     OW58232   0.296   8.082   8.710
52112SOL    HW158233   0.328   8.137   8.639
52112SOL    HW258234   0.246   8.014   8.666
52113SOL     OW58235   9.559   2.492   2.066
52113SOL    HW158236   9.654   2.507   2.062
52113SOL    HW258237   9.541   2.436   1.991
52114SOL     OW58238   7.889   3.466   8.725
52114SOL    HW158239   7.839   3.544   8.701
52114SOL    HW258240   7.946   3.496   8.796
52115SOL     OW58241  12.042  12.457   2.734
52115SOL    HW158242  11.989  12.493   2.805
52115SOL    HW258243  11.997  12.376   2.709
52116SOL     OW58244  14.673   1.017  12.779
52116SOL    HW158245  14.725   0.958  12.724
52116SOL    HW258246  14.737   1.077  12.818
52117SOL     OW58247   8.191   3.490   1.441
52117SOL    HW158248   8.257   3.525   1.500
52117SOL    HW258249   8.112   3.482   1.495
52118SOL     OW58250   0.808   5.704   6.598
52118SOL    HW158251   0.713   5.715   6.611
52118SOL    HW258252   0.833   5.634   6.659
52119SOL     OW58253   5.836  13.020   1.053
52119SOL    HW158254   5.750  13.057   1.033
52119SOL    HW258255   5.898  13.085   1.020
52120SOL     OW58256  14.564   3.934  11.485
52120SOL    HW158257  14.507   3.890  11.422
52120SOL    HW258258  14.646   3.884  11.482
52121SOL     OW58259   0.016  13.710  12.645
52121SOL    HW158260   0.007  13.615  12.645
52121SOL    HW258261  14.858  13.738  12.565
52122SOL     OW58262  12.303  12.969   1.662
52122SOL    HW158263  12.397  12.949   1.665
52122SOL    HW258264  12.270  12.939   1.746
52123SOL     OW58265   3.570   7.938  11.845
52123SOL    HW158266   3.587   7.851  11.809
52123SOL    HW258267   3.575   7.997  11.770
52124SOL     OW58268   4.236  10.218  10.892
52124SOL    HW158269   4.297  10.149  10.920
52124SOL    HW258270   4.284  10.266  10.824
52125SOL     OW58271  11.816   2.772  12.482
52125SOL    HW158272  11.809   2.840  12.549
52125SOL    HW258273  11.893   2.721  12.506
52126SOL     OW58274   9.202  14.420  10.945
52126SOL    HW158275   9.218  14.493  10.884
52126SOL    HW258276   9.112  14.432  10.974
52127SOL     OW58277   2.628  13.006   5.827
52127SOL    HW158278   2.543  13.036   5.860
52127SOL    HW258279   2.623  12.910   5.833
52128SOL     OW58280   0.337  14.106   8.369
52128SOL    HW158281   0.371  14.090   8.281
52128SOL    HW258282   0.414  14.102   8.425
52129SOL     OW58283   2.199   8.872   0.767
52129SOL    HW158284   2.112   8.913   0.772
52129SOL    HW258285   2.225   8.862   0.859
52130SOL     OW58286  12.314   1.327  14.228
52130SOL    HW158287  12.254   1.280  14.170
52130SOL    HW258288  12.393   1.340  14.176
52131SOL     OW58289  14.710   2.512   8.638
52131SOL    HW158290  14.685   2.597   8.677
52131SOL    HW258291  14.690   2.448   8.706
52132SOL     OW58292  13.360   0.785  10.940
52132SOL    HW158293  13.452   0.807  10.932
52132SOL    HW258294  13.330   0.835  11.016
52133SOL     OW58295   3.221   5.229   6.797
52133SOL    HW158296   3.190   5.283   6.870
52133SOL    HW258297   3.266   5.156   6.839
52134SOL     OW58298   7.180   6.445   7.734
52134SOL    HW158299   7.112   6.475   7.673
52134SOL    HW258300   7.240   6.394   7.680
52135SOL     OW58301  14.555   8.129   8.957
52135SOL    HW158302  14.473   8.168   8.927
52135SOL    HW258303  14.565   8.160   9.047
52136SOL     OW58304   7.832  14.162  14.219
52136SOL    HW158305   7.852  14.236  14.161
52136SOL    HW258306   7.911  14.152  14.273
52137SOL     OW58307  12.149   0.611   8.080
52137SOL    HW158308  12.223   0.588   8.136
52137SOL    HW258309  12.091   0.535   8.083
52138SOL     OW58310   4.667   6.493   4.782
52138SOL    HW158311   4.576   6.489   4.753
52138SOL    HW258312   4.669   6.438   4.861
52139SOL     OW58313   7.811   3.049  11.722
52139SOL    HW158314   7.773   2.962  11.728
52139SOL    HW258315   7.830   3.061  11.629
52140SOL     OW58316   1.178   4.545  10.302
52140SOL    HW158317   1.192   4.542  10.396
52140SOL    HW258318   1.257   4.505  10.265
52141SOL     OW58319  11.389   1.920  10.701
52141SOL    HW158320  11.333   1.890  10.629
52141SOL    HW258321  11.465   1.959  10.656
52142SOL     OW58322   8.466   1.226  13.303
52142SOL    HW158323   8.396   1.169  13.273
52142SOL    HW258324   8.532   1.166  13.339
52143SOL     OW58325  14.107   1.403  10.581
52143SOL    HW158326  14.097   1.491  10.543
52143SOL    HW258327  14.090   1.343  10.508
52144SOL     OW58328   8.179   7.245  14.611
52144SOL    HW158329   8.092   7.236  14.572
52144SOL    HW258330   8.181   7.334  14.645
52145SOL     OW58331   3.773   8.481   9.159
52145SOL    HW158332   3.780   8.448   9.069
52145SOL    HW258333   3.785   8.404   9.214
52146SOL     OW58334  14.052   3.970   3.861
52146SOL    HW158335  14.094   4.046   3.902
52146SOL    HW258336  14.103   3.895   3.892
52147SOL     OW58337   8.632  12.274   4.229
52147SOL    HW158338   8.692  12.200   4.229
52147SOL    HW258339   8.687  12.351   4.213
52148SOL     OW58340  11.838  10.115   0.597
52148SOL    HW158341  11.824  10.082   0.686
52148SOL    HW258342  11.829  10.037   0.542
52149SOL     OW58343   2.383   2.547   7.869
52149SOL    HW158344   2.291   2.523   7.857
52149SOL    HW258345   2.410   2.583   7.784
52150SOL     OW58346  14.000   8.052  14.073
52150SOL    HW158347  14.085   8.009  14.073
52150SOL    HW258348  14.015   8.137  14.032
52151SOL     OW58349   4.736  12.547   3.955
52151SOL    HW158350   4.783  12.484   3.900
52151SOL    HW258351   4.658  12.500   3.983
52152SOL     OW58352  11.694   5.178  10.582
52152SOL    HW158353  11.642   5.178  10.502
52152SOL    HW258354  11.696   5.270  10.609
52153SOL     OW58355   0.779   3.309   5.509
52153SOL    HW158356   0.856   3.349   5.549
52153SOL    HW258357   0.712   3.378   5.509
52154SOL     OW58358   2.300   8.844  10.654
52154SOL    HW158359   2.331   8.771  10.599
52154SOL    HW258360   2.245   8.803  10.720
52155SOL     OW58361   6.798  12.440   2.087
52155SOL    HW158362   6.874  12.393   2.122
52155SOL    HW258363   6.728  12.424   2.151
52156SOL     OW58364   4.708   0.701   7.545
52156SOL    HW158365   4.631   0.701   7.488
52156SOL    HW258366   4.755   0.781   7.522
52157SOL     OW58367   3.421  11.482   7.141
52157SOL    HW158368   3.493  11.448   7.195
52157SOL    HW258369   3.388  11.557   7.190
52158SOL     OW58370   9.428  13.143   8.066
52158SOL    HW158371   9.360  13.158   8.001
52158SOL    HW258372   9.401  13.063   8.111
52159SOL     OW58373   1.180   2.451   1.402
52159SOL    HW158374   1.163   2.377   1.345
52159SOL    HW258375   1.220   2.413   1.480
52160SOL     OW58376   1.154   6.890   8.327
52160SOL    HW158377   1.092   6.861   8.395
52160SOL    HW258378   1.172   6.811   8.276
52161SOL     OW58379  13.301   5.721   7.476
52161SOL    HW158380  13.297   5.796   7.416
52161SOL    HW258381  13.217   5.721   7.520
52162SOL     OW58382  11.856  11.670  11.715
52162SOL    HW158383  11.934  11.621  11.689
52162SOL    HW258384  11.889  11.737  11.775
52163SOL     OW58385  13.116  14.512   3.463
52163SOL    HW158386  13.116  14.429   3.416
52163SOL    HW258387  13.113  14.488   3.555
52164SOL     OW58388  12.921   9.685  12.706
52164SOL    HW158389  12.869   9.687  12.786
52164SOL    HW258390  12.956   9.595  12.702
52165SOL     OW58391  14.784   6.312   0.229
52165SOL    HW158392  14.701   6.341   0.265
52165SOL    HW258393  14.850   6.363   0.277
52166SOL     OW58394   9.605   0.947  11.062
52166SOL    HW158395   9.513   0.968  11.080
52166SOL    HW258396   9.638   1.024  11.016
52167SOL     OW58397   1.946   0.546   9.769
52167SOL    HW158398   1.996   0.618   9.806
52167SOL    HW258399   1.979   0.536   9.680
52168SOL     OW58400   7.921   2.781  10.492
52168SOL    HW158401   7.831   2.766  10.521
52168SOL    HW258402   7.937   2.713  10.426
52169SOL     OW58403  14.117   7.869   7.493
52169SOL    HW158404  14.095   7.957   7.463
52169SOL    HW258405  14.204   7.878   7.533
52170SOL     OW58406   0.003   5.590  13.117
52170SOL    HW158407   0.019   5.657  13.184
52170SOL    HW258408   0.037   5.629  13.036
52171SOL     OW58409   0.309  10.203   2.295
52171SOL    HW158410   0.237  10.142   2.305
52171SOL    HW258411   0.305  10.258   2.373
52172SOL     OW58412   3.579   6.211   4.136
52172SOL    HW158413   3.573   6.282   4.199
52172SOL    HW258414   3.529   6.241   4.060
52173SOL     OW58415   4.480   1.805   5.733
52173SOL    HW158416   4.533   1.747   5.787
52173SOL    HW258417   4.540   1.836   5.665
52174SOL     OW58418  13.717   1.514  10.419
52174SOL    HW158419  13.775   1.439  10.413
52174SOL    HW258420  13.634   1.477  10.450
52175SOL     OW58421   8.302  10.152   6.890
52175SOL    HW158422   8.353  10.092   6.835
52175SOL    HW258423   8.292  10.105   6.973
52176SOL     OW58424   4.900   5.156   5.184
52176SOL    HW158425   4.889   5.218   5.112
52176SOL    HW258426   4.974   5.101   5.158
52177SOL     OW58427   3.676  10.907   6.190
52177SOL    HW158428   3.608  10.973   6.200
52177SOL    HW258429   3.748  10.953   6.146
52178SOL     OW58430  10.072  14.467   4.935
52178SOL    HW158431  10.017  14.512   4.872
52178SOL    HW258432  10.013  14.405   4.979
52179SOL     OW58433   4.797   1.656   8.140
52179SOL    HW158434   4.806   1.656   8.235
52179SOL    HW258435   4.812   1.747   8.114
52180SOL     OW58436   8.018   5.274   6.950
52180SOL    HW158437   8.006   5.309   7.038
52180SOL    HW258438   8.083   5.331   6.909
52181SOL     OW58439  12.954  12.033   2.535
52181SOL    HW158440  13.050  12.029   2.539
52181SOL    HW258441  12.925  11.966   2.597
52182SOL     OW58442   9.204   5.872   5.538
52182SOL    HW158443   9.175   5.830   5.457
52182SOL    HW258444   9.127   5.921   5.568
52183SOL     OW58445   4.586   7.709  10.105
52183SOL    HW158446   4.551   7.685  10.019
52183SOL    HW258447   4.572   7.631  10.158
52184SOL     OW58448  12.166   1.275   6.644
52184SOL    HW158449  12.116   1.331   6.703
52184SOL    HW258450  12.106   1.203   6.622
52185SOL     OW58451   8.684   3.924  10.831
52185SOL    HW158452   8.716   3.998  10.780
52185SOL    HW258453   8.708   3.847  10.780
52186SOL     OW58454   6.516  13.524   4.970
52186SOL    HW158455   6.599  13.566   4.949
52186SOL    HW258456   6.530  13.485   5.056
52187SOL     OW58457   0.901  14.633  12.713
52187SOL    HW158458   0.849  14.709  12.689
52187SOL    HW258459   0.842  14.578  12.764
52188SOL     OW58460   4.467   0.080  11.644
52188SOL    HW158461   4.487   0.061  11.735
52188SOL    HW258462   4.398   0.018  11.621
52189SOL     OW58463   0.712   7.666   8.074
52189SOL    HW158464   0.672   7.753   8.068
52189SOL    HW258465   0.670   7.616   8.003
52190SOL     OW58466   6.171   6.973  12.409
52190SOL    HW158467   6.075   6.978  12.407
52190SOL    HW258468   6.190   6.885  12.441
52191SOL     OW58469  12.413   3.007   6.486
52191SOL    HW158470  12.349   2.965   6.544
52191SOL    HW258471  12.463   2.935   6.449
52192SOL     OW58472   5.785   3.151  11.535
52192SOL    HW158473   5.796   3.100  11.455
52192SOL    HW258474   5.707   3.205  11.518
52193SOL     OW58475   9.108   0.441   9.401
52193SOL    HW158476   9.154   0.447   9.485
52193SOL    HW258477   9.107   0.531   9.368
52194SOL     OW58478  14.547   7.537   0.450
52194SOL    HW158479  14.622   7.587   0.481
52194SOL    HW258480  14.531   7.472   0.518
52195SOL     OW58481   4.448   1.796   7.456
52195SOL    HW158482   4.526   1.837   7.420
52195SOL    HW258483   4.438   1.715   7.406
52196SOL     OW58484   1.235  14.011   7.466
52196SOL    HW158485   1.169  13.949   7.496
52196SOL    HW258486   1.276  13.969   7.390
52197SOL     OW58487  12.458   6.433  10.256
52197SOL    HW158488  12.433   6.525  10.264
52197SOL    HW258489  12.377   6.387  10.236
52198SOL     OW58490   8.964   6.915   9.888
52198SOL    HW158491   8.949   6.927   9.794
52198SOL    HW258492   8.987   7.002   9.919
52199SOL     OW58493   6.490   3.746  12.247
52199SOL    HW158494   6.561   3.686  12.267
52199SOL    HW258495   6.505   3.821  12.305
52200SOL     OW58496  11.816  10.545   9.948
52200SOL    HW158497  11.802  10.609  10.018
52200SOL    HW258498  11.756  10.572   9.879
52201SOL     OW58499   0.027  13.760  12.256
52201SOL    HW158500   0.025  13.839  12.202
52201SOL    HW258501   0.118  13.752  12.285
52202SOL     OW58502  13.516  12.502   7.554
52202SOL    HW158503  13.436  12.554   7.550
52202SOL    HW258504  13.539  12.487   7.462
52203SOL     OW58505  10.309   9.744   6.564
52203SOL    HW158506  10.245   9.679   6.537
52203SOL    HW258507  10.273   9.827   6.535
52204SOL     OW58508  14.091  13.125   7.380
52204SOL    HW158509  14.174  13.160   7.345
52204SOL    HW258510  14.034  13.119   7.304
52205SOL     OW58511  13.240   7.861  13.495
52205SOL    HW158512  13.313   7.799  13.497
52205SOL    HW258513  13.231   7.884  13.403
52206SOL     OW58514   6.438   6.000  14.043
52206SOL    HW158515   6.465   5.920  14.086
52206SOL    HW258516   6.519   6.048  14.028
52207SOL     OW58517  11.184   3.648   1.231
52207SOL    HW158518  11.140   3.696   1.302
52207SOL    HW258519  11.233   3.714   1.183
52208SOL     OW58520   8.993   0.894  12.704
52208SOL    HW158521   8.999   0.886  12.800
52208SOL    HW258522   9.075   0.937  12.679
52209SOL     OW58523   2.931  13.755   2.767
52209SOL    HW158524   2.998  13.816   2.796
52209SOL    HW258525   2.971  13.668   2.775
52210SOL     OW58526  12.901   2.182   7.815
52210SOL    HW158527  12.807   2.166   7.816
52210SOL    HW258528  12.932   2.140   7.735
52211SOL     OW58529   9.954  14.178   2.385
52211SOL    HW158530   9.989  14.257   2.424
52211SOL    HW258531   9.895  14.142   2.451
52212SOL     OW58532   7.765  13.694  14.065
52212SOL    HW158533   7.807  13.711  13.981
52212SOL    HW258534   7.771  13.777  14.112
52213SOL     OW58535  11.082   9.003   3.740
52213SOL    HW158536  11.121   8.937   3.683
52213SOL    HW258537  11.155   9.063   3.760
52214SOL     OW58538   3.747  11.512   9.403
52214SOL    HW158539   3.694  11.574   9.453
52214SOL    HW258540   3.743  11.431   9.454
52215SOL     OW58541   6.866   4.803   6.167
52215SOL    HW158542   6.818   4.874   6.209
52215SOL    HW258543   6.946   4.794   6.219
52216SOL     OW58544   7.253   9.975  14.287
52216SOL    HW158545   7.277   9.989  14.196
52216SOL    HW258546   7.336   9.978  14.335
52217SOL     OW58547  14.189  10.860   9.186
52217SOL    HW158548  14.123  10.804   9.146
52217SOL    HW258549  14.235  10.803   9.247
52218SOL     OW58550   5.891   5.311  13.379
52218SOL    HW158551   5.900   5.216  13.370
52218SOL    HW258552   5.869   5.324  13.471
52219SOL     OW58553   5.015   0.023  12.501
52219SOL    HW158554   5.027   0.060  12.413
52219SOL    HW258555   4.962   0.087  12.547
52220SOL     OW58556   4.434  13.768  10.115
52220SOL    HW158557   4.383  13.749  10.194
52220SOL    HW258558   4.523  13.782  10.148
52221SOL     OW58559  14.823   7.960  14.558
52221SOL    HW158560  14.746   7.939  14.611
52221SOL    HW258561  14.877   8.015  14.614
52222SOL     OW58562   2.856  14.628   3.151
52222SOL    HW158563   2.777  14.602   3.198
52222SOL    HW258564   2.826  14.644   3.061
52223SOL     OW58565  12.761  13.711   2.677
52223SOL    HW158566  12.709  13.710   2.757
52223SOL    HW258567  12.771  13.618   2.653
52224SOL     OW58568   4.479   9.778  13.529
52224SOL    HW158569   4.550   9.780  13.465
52224SOL    HW258570   4.500   9.848  13.591
52225SOL     OW58571   1.240   0.308   9.290
52225SOL    HW158572   1.328   0.297   9.325
52225SOL    HW258573   1.227   0.402   9.286
52226SOL     OW58574   9.430  13.496  14.148
52226SOL    HW158575   9.389  13.410  14.134
52226SOL    HW258576   9.450  13.527  14.060
52227SOL     OW58577  12.780   8.797   6.130
52227SOL    HW158578  12.782   8.891   6.114
52227SOL    HW258579  12.807   8.787   6.221
52228SOL     OW58580   2.318   4.986   4.723
52228SOL    HW158581   2.249   5.033   4.768
52228SOL    HW258582   2.281   4.900   4.705
52229SOL     OW58583  10.988   7.859   2.775
52229SOL    HW158584  11.059   7.899   2.826
52229SOL    HW258585  11.029   7.836   2.691
52230SOL     OW58586   9.372   8.420   3.369
52230SOL    HW158587   9.388   8.337   3.323
52230SOL    HW258588   9.336   8.477   3.301
52231SOL     OW58589   5.843  10.998   6.596
52231SOL    HW158590   5.779  10.959   6.536
52231SOL    HW258591   5.911  11.033   6.538
52232SOL     OW58592  12.450   2.409   8.849
52232SOL    HW158593  12.374   2.373   8.803
52232SOL    HW258594  12.516   2.340   8.845
52233SOL     OW58595  10.000   2.655   9.597
52233SOL    HW158596  10.039   2.741   9.580
52233SOL    HW258597   9.925   2.674   9.653
52234SOL     OW58598   7.778   1.417   0.878
52234SOL    HW158599   7.707   1.449   0.932
52234SOL    HW258600   7.791   1.326   0.907
52235SOL     OW58601  10.572   6.515   4.602
52235SOL    HW158602  10.598   6.424   4.617
52235SOL    HW258603  10.585   6.528   4.508
52236SOL     OW58604  10.065   7.043   6.902
52236SOL    HW158605  10.112   7.043   6.985
52236SOL    HW258606   9.976   7.017   6.924
52237SOL     OW58607   3.328   8.468   9.959
52237SOL    HW158608   3.281   8.388   9.982
52237SOL    HW258609   3.306   8.530  10.029
52238SOL     OW58610   7.907   4.425   2.941
52238SOL    HW158611   7.991   4.381   2.931
52238SOL    HW258612   7.923   4.514   2.909
52239SOL     OW58613   5.415   3.399   6.733
52239SOL    HW158614   5.416   3.441   6.647
52239SOL    HW258615   5.379   3.465   6.792
52240SOL     OW58616  13.503  11.111   5.394
52240SOL    HW158617  13.480  11.195   5.353
52240SOL    HW258618  13.419  11.076   5.423
52241SOL     OW58619   2.135   7.085   7.658
52241SOL    HW158620   2.062   7.096   7.597
52241SOL    HW258621   2.130   6.993   7.685
52242SOL     OW58622   0.117  11.193   1.254
52242SOL    HW158623   0.045  11.131   1.247
52242SOL    HW258624   0.075  11.275   1.283
52243SOL     OW58625   5.103   5.667   2.330
52243SOL    HW158626   5.139   5.660   2.419
52243SOL    HW258627   5.011   5.641   2.340
52244SOL     OW58628   3.604   2.008   8.789
52244SOL    HW158629   3.614   2.044   8.701
52244SOL    HW258630   3.692   1.976   8.812
52245SOL     OW58631  10.254   3.837   4.127
52245SOL    HW158632  10.291   3.923   4.109
52245SOL    HW258633  10.188   3.853   4.195
52246SOL     OW58634  12.217  13.133  13.431
52246SOL    HW158635  12.143  13.073  13.439
52246SOL    HW258636  12.192  13.192  13.360
52247SOL     OW58637  13.121   0.781  11.493
52247SOL    HW158638  13.032   0.797  11.524
52247SOL    HW258639  13.163   0.733  11.565
52248SOL     OW58640   4.063   5.773   8.957
52248SOL    HW158641   4.007   5.778   9.034
52248SOL    HW258642   4.036   5.848   8.903
52249SOL     OW58643   8.814   8.253  14.788
52249SOL    HW158644   8.777   8.340  14.803
52249SOL    HW258645   8.760   8.195  14.841
52250SOL     OW58646   3.519   5.623  12.777
52250SOL    HW158647   3.605   5.609  12.818
52250SOL    HW258648   3.519   5.563  12.703
52251SOL     OW58649   7.367   2.027   4.245
52251SOL    HW158650   7.366   2.101   4.184
52251SOL    HW258651   7.454   2.030   4.285
52252SOL     OW58652  14.287   2.426   3.372
52252SOL    HW158653  14.291   2.490   3.443
52252SOL    HW258654  14.295   2.341   3.415
52253SOL     OW58655   4.542   3.367  13.026
52253SOL    HW158656   4.606   3.398  12.962
52253SOL    HW258657   4.531   3.274  13.006
52254SOL     OW58658  12.315   9.516  11.134
52254SOL    HW158659  12.292   9.602  11.169
52254SOL    HW258660  12.328   9.530  11.041
52255SOL     OW58661   0.520   2.733   2.987
52255SOL    HW158662   0.509   2.828   2.986
52255SOL    HW258663   0.464   2.703   3.058
52256SOL     OW58664  11.045   7.546   4.484
52256SOL    HW158665  10.965   7.499   4.458
52256SOL    HW258666  11.040   7.629   4.437
52257SOL     OW58667   2.938   3.639  11.883
52257SOL    HW158668   2.990   3.655  11.804
52257SOL    HW258669   2.970   3.556  11.918
52258SOL     OW58670  10.721   1.908   4.214
52258SOL    HW158671  10.677   1.830   4.179
52258SOL    HW258672  10.739   1.962   4.137
52259SOL     OW58673   2.645  12.015   1.914
52259SOL    HW158674   2.694  11.977   1.987
52259SOL    HW258675   2.623  11.940   1.858
52260SOL     OW58676   2.043  13.430   6.580
52260SOL    HW158677   2.130  13.458   6.552
52260SOL    HW258678   1.983  13.489   6.533
52261SOL     OW58679   1.062   9.819  10.319
52261SOL    HW158680   1.085   9.889  10.380
52261SOL    HW258681   0.992   9.857  10.265
52262SOL     OW58682   1.312   0.461   1.147
52262SOL    HW158683   1.262   0.441   1.225
52262SOL    HW258684   1.247   0.481   1.080
52263SOL     OW58685   6.247   2.243   0.828
52263SOL    HW158686   6.296   2.161   0.816
52263SOL    HW258687   6.224   2.269   0.739
52264SOL     OW58688   5.321   8.787   9.364
52264SOL    HW158689   5.254   8.719   9.374
52264SOL    HW258690   5.391   8.745   9.315
52265SOL     OW58691   3.053   6.926  14.494
52265SOL    HW158692   2.979   6.940  14.434
52265SOL    HW258693   3.093   7.012  14.503
52266SOL     OW58694   7.677   8.846   9.903
52266SOL    HW158695   7.687   8.869   9.995
52266SOL    HW258696   7.701   8.925   9.856
52267SOL     OW58697   5.113   3.049   3.744
52267SOL    HW158698   5.182   2.988   3.716
52267SOL    HW258699   5.128   3.060   3.838
52268SOL     OW58700   2.729   6.184   3.444
52268SOL    HW158701   2.766   6.216   3.362
52268SOL    HW258702   2.635   6.178   3.427
52269SOL     OW58703   7.488  12.780   1.889
52269SOL    HW158704   7.516  12.700   1.845
52269SOL    HW258705   7.412  12.811   1.839
52270SOL     OW58706  10.017  11.088  12.085
52270SOL    HW158707  10.003  11.127  11.999
52270SOL    HW258708  10.064  11.156  12.135
52271SOL     OW58709   0.298   4.279   8.414
52271SOL    HW158710   0.328   4.364   8.380
52271SOL    HW258711   0.233   4.250   8.350
52272SOL     OW58712   3.683   3.559  10.884
52272SOL    HW158713   3.723   3.644  10.865
52272SOL    HW258714   3.589   3.574  10.875
52273SOL     OW58715   7.637  13.507   9.938
52273SOL    HW158716   7.547  13.474   9.928
52273SOL    HW258717   7.663  13.531   9.849
52274SOL     OW58718   5.628   9.914  13.217
52274SOL    HW158719   5.633   9.871  13.132
52274SOL    HW258720   5.555   9.870  13.262
52275SOL     OW58721   7.964   6.610   7.829
52275SOL    HW158722   7.918   6.574   7.753
52275SOL    HW258723   7.999   6.694   7.799
52276SOL     OW58724   5.051   2.458   7.694
52276SOL    HW158725   5.027   2.407   7.772
52276SOL    HW258726   5.056   2.548   7.724
52277SOL     OW58727   6.696  14.659   7.043
52277SOL    HW158728   6.603  14.666   7.022
52277SOL    HW258729   6.722  14.573   7.008
52278SOL     OW58730   2.689   9.559   5.263
52278SOL    HW158731   2.613   9.521   5.307
52278SOL    HW258732   2.694   9.649   5.298
52279SOL     OW58733   0.609   5.280  13.806
52279SOL    HW158734   0.577   5.363  13.841
52279SOL    HW258735   0.687   5.304  13.755
52280SOL     OW58736  13.950   9.444   6.224
52280SOL    HW158737  13.933   9.467   6.133
52280SOL    HW258738  14.013   9.372   6.220
52281SOL     OW58739  14.415   6.365   9.184
52281SOL    HW158740  14.423   6.366   9.089
52281SOL    HW258741  14.485   6.306   9.213
52282SOL     OW58742   6.374  11.495  13.358
52282SOL    HW158743   6.365  11.515  13.452
52282SOL    HW258744   6.452  11.440  13.353
52283SOL     OW58745   0.365   4.597   3.044
52283SOL    HW158746   0.293   4.622   3.103
52283SOL    HW258747   0.444   4.612   3.096
52284SOL     OW58748   8.389   3.421   8.107
52284SOL    HW158749   8.297   3.434   8.084
52284SOL    HW258750   8.438   3.475   8.045
52285SOL     OW58751   9.171   2.674   9.203
52285SOL    HW158752   9.232   2.747   9.198
52285SOL    HW258753   9.168   2.639   9.114
52286SOL     OW58754   1.110   9.292   2.213
52286SOL    HW158755   1.098   9.285   2.308
52286SOL    HW258756   1.088   9.205   2.180
52287SOL     OW58757   8.882   5.532   9.254
52287SOL    HW158758   8.880   5.534   9.158
52287SOL    HW258759   8.945   5.462   9.275
52288SOL     OW58760   9.731   4.476  12.418
52288SOL    HW158761   9.750   4.568  12.437
52288SOL    HW258762   9.636   4.468  12.431
52289SOL     OW58763  11.094   5.554  13.949
52289SOL    HW158764  11.045   5.476  13.974
52289SOL    HW258765  11.186   5.527  13.955
52290SOL     OW58766   1.832   3.554  11.092
52290SOL    HW158767   1.883   3.600  11.158
52290SOL    HW258768   1.745   3.544  11.131
52291SOL     OW58769   6.463   8.675   4.364
52291SOL    HW158770   6.403   8.685   4.438
52291SOL    HW258771   6.406   8.662   4.288
52292SOL     OW58772   8.966   0.043   2.093
52292SOL    HW158773   8.975   0.138   2.101
52292SOL    HW258774   8.875   0.025   2.117
52293SOL     OW58775   8.293   8.116   2.059
52293SOL    HW158776   8.298   8.166   2.140
52293SOL    HW258777   8.308   8.180   1.990
52294SOL     OW58778   2.612  14.039   9.235
52294SOL    HW158779   2.682  14.101   9.253
52294SOL    HW258780   2.536  14.073   9.283
52295SOL     OW58781   8.325  12.563  14.363
52295SOL    HW158782   8.286  12.484  14.324
52295SOL    HW258783   8.412  12.567  14.325
52296SOL     OW58784   1.418   3.981   6.703
52296SOL    HW158785   1.504   3.939   6.691
52296SOL    HW258786   1.386   3.946   6.786
52297SOL     OW58787   2.564  11.597   1.489
52297SOL    HW158788   2.531  11.513   1.456
52297SOL    HW258789   2.629  11.572   1.554
52298SOL     OW58790   4.755   6.295   7.221
52298SOL    HW158791   4.712   6.373   7.257
52298SOL    HW258792   4.685   6.247   7.177
52299SOL     OW58793   9.691  10.582   4.118
52299SOL    HW158794   9.646  10.569   4.035
52299SOL    HW258795   9.639  10.647   4.164
52300SOL     OW58796   1.402   9.426   3.765
52300SOL    HW158797   1.358   9.499   3.810
52300SOL    HW258798   1.489   9.460   3.744
52301SOL     OW58799   3.039   4.420   9.423
52301SOL    HW158800   2.965   4.448   9.370
52301SOL    HW258801   3.054   4.329   9.396
52302SOL     OW58802   6.011   0.761  14.737
52302SOL    HW158803   6.032   0.775  14.644
52302SOL    HW258804   5.939   0.698  14.736
52303SOL     OW58805  14.574   8.858  13.068
52303SOL    HW158806  14.639   8.895  13.128
52303SOL    HW258807  14.490   8.888  13.103
52304SOL     OW58808   8.303   9.427  14.170
52304SOL    HW158809   8.360   9.486  14.121
52304SOL    HW258810   8.223   9.422  14.117
52305SOL     OW58811   1.654   6.550   7.127
52305SOL    HW158812   1.719   6.490   7.090
52305SOL    HW258813   1.667   6.544   7.222
52306SOL     OW58814  12.573   5.022   4.237
52306SOL    HW158815  12.647   5.035   4.178
52306SOL    HW258816  12.579   4.931   4.265
52307SOL     OW58817   1.306   3.258  10.094
52307SOL    HW158818   1.326   3.166  10.110
52307SOL    HW258819   1.261   3.258  10.010
52308SOL     OW58820   7.614   7.650   2.579
52308SOL    HW158821   7.644   7.661   2.489
52308SOL    HW258822   7.694   7.636   2.629
52309SOL     OW58823  10.919   2.987   5.047
52309SOL    HW158824  10.941   3.055   4.984
52309SOL    HW258825  10.830   2.961   5.025
52310SOL     OW58826   5.743   6.864   6.590
52310SOL    HW158827   5.745   6.884   6.683
52310SOL    HW258828   5.828   6.891   6.557
52311SOL     OW58829   4.212   7.328   7.194
52311SOL    HW158830   4.227   7.240   7.159
52311SOL    HW258831   4.179   7.378   7.119
52312SOL     OW58832  13.686  10.285  12.250
52312SOL    HW158833  13.781  10.295  12.247
52312SOL    HW258834  13.672  10.191  12.238
52313SOL     OW58835   6.342   5.154   1.447
52313SOL    HW158836   6.394   5.234   1.452
52313SOL    HW258837   6.370   5.111   1.366
52314SOL     OW58838   3.241   4.119   0.351
52314SOL    HW158839   3.237   4.035   0.397
52314SOL    HW258840   3.321   4.113   0.298
52315SOL     OW58841   5.105  11.770   8.387
52315SOL    HW158842   5.137  11.717   8.315
52315SOL    HW258843   5.166  11.844   8.391
52316SOL     OW58844   7.390   5.393   2.883
52316SOL    HW158845   7.446   5.317   2.901
52316SOL    HW258846   7.363   5.424   2.969
52317SOL     OW58847  12.267   1.322   3.756
52317SOL    HW158848  12.237   1.412   3.771
52317SOL    HW258849  12.198   1.283   3.703
52318SOL     OW58850   3.059  12.300   4.299
52318SOL    HW158851   3.105  12.365   4.245
52318SOL    HW258852   3.034  12.232   4.237
52319SOL     OW58853   4.996   5.087  11.756
52319SOL    HW158854   5.083   5.099  11.794
52319SOL    HW258855   4.961   5.010  11.801
52320SOL     OW58856   8.311   7.803   2.073
52320SOL    HW158857   8.311   7.895   2.047
52320SOL    HW258858   8.245   7.798   2.142
52321SOL     OW58859  11.200   4.562  10.165
52321SOL    HW158860  11.265   4.524  10.224
52321SOL    HW258861  11.141   4.612  10.222
52322SOL     OW58862  11.692  13.036  11.927
52322SOL    HW158863  11.628  13.064  11.993
52322SOL    HW258864  11.713  12.946  11.951
52323SOL     OW58865  14.874  10.085   3.802
52323SOL    HW158866  14.848  10.133   3.723
52323SOL    HW258867  14.802  10.098   3.863
52324SOL     OW58868   5.476  10.756   8.883
52324SOL    HW158869   5.416  10.754   8.809
52324SOL    HW258870   5.469  10.845   8.917
52325SOL     OW58871   6.707   8.682   8.029
52325SOL    HW158872   6.798   8.698   8.051
52325SOL    HW258873   6.701   8.705   7.936
52326SOL     OW58874   8.366  11.887  11.584
52326SOL    HW158875   8.398  11.975  11.605
52326SOL    HW258876   8.272  11.891  11.602
52327SOL     OW58877   9.268   4.027  13.567
52327SOL    HW158878   9.347   4.028  13.512
52327SOL    HW258879   9.291   3.972  13.641
52328SOL     OW58880  11.555   8.818   7.431
52328SOL    HW158881  11.507   8.754   7.378
52328SOL    HW258882  11.535   8.795   7.521
52329SOL     OW58883  13.700   6.468   5.327
52329SOL    HW158884  13.727   6.536   5.266
52329SOL    HW258885  13.654   6.404   5.273
52330SOL     OW58886   6.608  13.092   1.178
52330SOL    HW158887   6.544  13.024   1.153
52330SOL    HW258888   6.563  13.143   1.245
52331SOL     OW58889   3.196  12.635  14.379
52331SOL    HW158890   3.210  12.704  14.314
52331SOL    HW258891   3.166  12.682  14.458
52332SOL     OW58892   3.552  13.547  13.657
52332SOL    HW158893   3.540  13.587  13.570
52332SOL    HW258894   3.646  13.532  13.664
52333SOL     OW58895  13.653   3.571   1.182
52333SOL    HW158896  13.561   3.593   1.193
52333SOL    HW258897  13.677   3.526   1.263
52334SOL     OW58898   1.025  12.372   9.519
52334SOL    HW158899   0.932  12.389   9.501
52334SOL    HW258900   1.053  12.446   9.573
52335SOL     OW58901   8.022  10.802  11.688
52335SOL    HW158902   7.976  10.739  11.743
52335SOL    HW258903   7.954  10.860  11.654
52336SOL     OW58904  13.176  11.337   5.095
52336SOL    HW158905  13.102  11.373   5.045
52336SOL    HW258906  13.139  11.316   5.181
52337SOL     OW58907   5.021  14.327   9.211
52337SOL    HW158908   5.018  14.398   9.275
52337SOL    HW258909   4.933  14.290   9.212
52338SOL     OW58910   9.021   4.964  13.218
52338SOL    HW158911   8.985   4.960  13.129
52338SOL    HW258912   9.043   5.056  13.231
52339SOL     OW58913   0.882   5.100  13.247
52339SOL    HW158914   0.920   5.014  13.228
52339SOL    HW258915   0.789   5.090  13.228
52340SOL     OW58916   4.144   6.106  14.365
52340SOL    HW158917   4.110   6.083  14.279
52340SOL    HW258918   4.110   6.038  14.423
52341SOL     OW58919   2.010   0.032  12.517
52341SOL    HW158920   1.956   0.017  12.594
52341SOL    HW258921   2.004   0.127  12.502
52342SOL     OW58922   3.439   7.860   9.812
52342SOL    HW158923   3.432   7.908   9.894
52342SOL    HW258924   3.531   7.833   9.807
52343SOL     OW58925   1.241   5.174  12.790
52343SOL    HW158926   1.180   5.205  12.857
52343SOL    HW258927   1.255   5.250  12.733
52344SOL     OW58928   8.239  14.633   0.059
52344SOL    HW158929   8.249  14.541   0.037
52344SOL    HW258930   8.328  14.668   0.059
52345SOL     OW58931  14.633   4.317   9.723
52345SOL    HW158932  14.539   4.316   9.704
52345SOL    HW258933  14.647   4.243   9.783
52346SOL     OW58934   5.593  13.223   6.693
52346SOL    HW158935   5.557  13.307   6.720
52346SOL    HW258936   5.545  13.201   6.613
52347SOL     OW58937   6.267   5.702   5.500
52347SOL    HW158938   6.351   5.706   5.455
52347SOL    HW258939   6.225   5.786   5.481
52348SOL     OW58940   1.770   9.064  10.169
52348SOL    HW158941   1.774   8.971  10.145
52348SOL    HW258942   1.861   9.090  10.182
52349SOL     OW58943   5.681   6.950  12.314
52349SOL    HW158944   5.730   6.963  12.233
52349SOL    HW258945   5.599   6.996  12.300
52350SOL     OW58946   8.339   5.353   2.299
52350SOL    HW158947   8.352   5.398   2.215
52350SOL    HW258948   8.249   5.374   2.324
52351SOL     OW58949  12.014   6.693  10.069
52351SOL    HW158950  11.924   6.666  10.052
52351SOL    HW258951  12.034   6.755   9.998
52352SOL     OW58952   4.791  10.118   8.779
52352SOL    HW158953   4.828  10.053   8.719
52352SOL    HW258954   4.714  10.075   8.817
52353SOL     OW58955  13.439   5.466   7.476
52353SOL    HW158956  13.532   5.480   7.458
52353SOL    HW258957  13.400   5.553   7.469
52354SOL     OW58958   5.750  10.104   0.714
52354SOL    HW158959   5.673  10.117   0.660
52354SOL    HW258960   5.724  10.132   0.801
52355SOL     OW58961   9.269   9.537   5.513
52355SOL    HW158962   9.252   9.625   5.544
52355SOL    HW258963   9.195   9.485   5.543
52356SOL     OW58964  11.529   7.152   6.296
52356SOL    HW158965  11.471   7.076   6.302
52356SOL    HW258966  11.570   7.144   6.210
52357SOL     OW58967   0.171  11.371  12.572
52357SOL    HW158968   0.156  11.396  12.663
52357SOL    HW258969   0.085  11.381  12.530
52358SOL     OW58970  12.808   8.443   8.146
52358SOL    HW158971  12.893   8.487   8.144
52358SOL    HW258972  12.777   8.453   8.236
52359SOL     OW58973   9.879   7.609   0.190
52359SOL    HW158974   9.797   7.575   0.155
52359SOL    HW258975   9.885   7.698   0.155
52360SOL     OW58976   2.797   7.092   6.900
52360SOL    HW158977   2.846   7.169   6.927
52360SOL    HW258978   2.733   7.078   6.970
52361SOL     OW58979   4.169   5.691   7.232
52361SOL    HW158980   4.255   5.728   7.211
52361SOL    HW258981   4.189   5.619   7.293
52362SOL     OW58982   5.187   0.639   9.619
52362SOL    HW158983   5.279   0.653   9.639
52362SOL    HW258984   5.140   0.672   9.696
52363SOL     OW58985  11.628  12.930  14.487
52363SOL    HW158986  11.556  12.988  14.463
52363SOL    HW258987  11.642  12.947  14.580
52364SOL     OW58988   0.751   2.722   7.801
52364SOL    HW158989   0.763   2.651   7.863
52364SOL    HW258990   0.839   2.742   7.770
52365SOL     OW58991   6.997  14.697  13.397
52365SOL    HW158992   6.953  14.780  13.415
52365SOL    HW258993   6.932  14.644  13.351
52366SOL     OW58994  14.834   1.245   4.359
52366SOL    HW158995  14.817   1.302   4.434
52366SOL    HW258996  14.757   1.188   4.354
52367SOL     OW58997  13.731   5.469   0.433
52367SOL    HW158998  13.676   5.472   0.355
52367SOL    HW258999  13.669   5.464   0.506
52368SOL     OW59000   7.412   5.227   2.447
52368SOL    HW159001   7.335   5.210   2.500
52368SOL    HW259002   7.384   5.293   2.384
52369SOL     OW59003  12.586   2.667   5.436
52369SOL    HW159004  12.528   2.636   5.505
52369SOL    HW259005  12.644   2.729   5.480
52370SOL     OW59006   9.041   0.105  14.645
52370SOL    HW159007   8.948   0.100  14.620
52370SOL    HW259008   9.075   0.179  14.593
52371SOL     OW59009   6.455   0.838  11.965
52371SOL    HW159010   6.367   0.804  11.949
52371SOL    HW259011   6.443   0.906  12.032
52372SOL     OW59012   2.062  10.386   0.826
52372SOL    HW159013   2.154  10.407   0.840
52372SOL    HW259014   2.054  10.295   0.853
52373SOL     OW59015   9.005   2.546   6.854
52373SOL    HW159016   8.951   2.475   6.890
52373SOL    HW259017   9.079   2.501   6.814
52374SOL     OW59018   3.823   0.575   8.942
52374SOL    HW159019   3.798   0.482   8.948
52374SOL    HW259020   3.745   0.619   8.909
52375SOL     OW59021   6.268   8.340   5.232
52375SOL    HW159022   6.285   8.373   5.143
52375SOL    HW259023   6.344   8.369   5.282
52376SOL     OW59024   6.195  11.202  10.021
52376SOL    HW159025   6.169  11.259   9.950
52376SOL    HW259026   6.290  11.190  10.009
52377SOL     OW59027  13.793  14.304  13.362
52377SOL    HW159028  13.820  14.284  13.272
52377SOL    HW259029  13.708  14.262  13.371
52378SOL     OW59030   6.920   4.020   2.004
52378SOL    HW159031   6.935   3.955   2.073
52378SOL    HW259032   6.860   3.978   1.943
52379SOL     OW59033   3.541   8.168   1.852
52379SOL    HW159034   3.481   8.175   1.926
52379SOL    HW259035   3.545   8.074   1.834
52380SOL     OW59036   9.025   1.244   1.209
52380SOL    HW159037   8.938   1.216   1.180
52380SOL    HW259038   9.077   1.164   1.209
52381SOL     OW59039   3.880  14.355   6.487
52381SOL    HW159040   3.917  14.411   6.554
52381SOL    HW259041   3.793  14.391   6.471
52382SOL     OW59042  10.745   6.671   9.719
52382SOL    HW159043  10.825   6.717   9.745
52382SOL    HW259044  10.769   6.578   9.722
52383SOL     OW59045   4.095  10.980   7.562
52383SOL    HW159046   4.127  11.015   7.478
52383SOL    HW259047   4.123  10.889   7.562
52384SOL     OW59048   8.715  13.886  11.713
52384SOL    HW159049   8.793  13.912  11.663
52384SOL    HW259050   8.706  13.953  11.780
52385SOL     OW59051  10.952   4.668   8.294
52385SOL    HW159052  11.005   4.591   8.318
52385SOL    HW259053  10.947   4.719   8.375
52386SOL     OW59054  12.083   2.166   8.890
52386SOL    HW159055  12.154   2.151   8.952
52386SOL    HW259056  12.101   2.106   8.818
52387SOL     OW59057  10.877  10.320   5.613
52387SOL    HW159058  10.807  10.387   5.610
52387SOL    HW259059  10.860  10.272   5.694
52388SOL     OW59060   6.891   3.139   6.592
52388SOL    HW159061   6.844   3.055   6.597
52388SOL    HW259062   6.976   3.116   6.555
52389SOL     OW59063  10.442   1.756   2.751
52389SOL    HW159064  10.370   1.742   2.690
52389SOL    HW259065  10.415   1.710   2.831
52390SOL     OW59066   3.450   5.438   7.036
52390SOL    HW159067   3.495   5.416   6.954
52390SOL    HW259068   3.392   5.363   7.052
52391SOL     OW59069   0.624  11.386   6.996
52391SOL    HW159070   0.579  11.321   6.941
52391SOL    HW259071   0.717  11.370   6.980
52392SOL     OW59072  14.683   9.279  14.170
52392SOL    HW159073  14.745   9.230  14.116
52392SOL    HW259074  14.652   9.350  14.114
52393SOL     OW59075   4.552   1.461  11.534
52393SOL    HW159076   4.543   1.551  11.502
52393SOL    HW259077   4.462   1.428  11.538
52394SOL     OW59078   2.579   8.036   5.411
52394SOL    HW159079   2.599   7.950   5.375
52394SOL    HW259080   2.645   8.094   5.372
52395SOL     OW59081  12.945   5.771   8.100
52395SOL    HW159082  12.991   5.757   8.017
52395SOL    HW259083  12.976   5.857   8.130
52396SOL     OW59084   6.088  12.997  11.430
52396SOL    HW159085   6.056  13.086  11.442
52396SOL    HW259086   6.074  12.979  11.337
52397SOL     OW59087   3.477   7.316   1.117
52397SOL    HW159088   3.528   7.397   1.115
52397SOL    HW259089   3.497   7.272   1.035
52398SOL     OW59090  14.459   5.915  13.040
52398SOL    HW159091  14.483   5.982  13.104
52398SOL    HW259092  14.528   5.849  13.047
52399SOL     OW59093   2.122   8.386   0.994
52399SOL    HW159094   2.212   8.398   0.966
52399SOL    HW259095   2.087   8.320   0.934
52400SOL     OW59096   2.447  11.981   0.655
52400SOL    HW159097   2.475  12.047   0.592
52400SOL    HW259098   2.505  11.906   0.638
52401SOL     OW59099   5.890   0.231   4.854
52401SOL    HW159100   5.846   0.266   4.777
52401SOL    HW259101   5.839   0.152   4.877
52402SOL     OW59102   7.925   0.068  14.327
52402SOL    HW159103   7.972   0.063  14.244
52402SOL    HW259104   7.836   0.093  14.302
52403SOL     OW59105  10.098   9.356   6.231
52403SOL    HW159106  10.150   9.277   6.217
52403SOL    HW259107  10.009   9.331   6.207
52404SOL     OW59108   2.849   9.345  10.130
52404SOL    HW159109   2.940   9.327  10.154
52404SOL    HW259110   2.832   9.432  10.166
52405SOL     OW59111   7.380   3.425   6.041
52405SOL    HW159112   7.453   3.399   6.096
52405SOL    HW259113   7.377   3.358   5.972
52406SOL     OW59114  13.545   1.553   5.545
52406SOL    HW159115  13.636   1.526   5.561
52406SOL    HW259116  13.543   1.646   5.567
52407SOL     OW59117  10.928   1.895   2.919
52407SOL    HW159118  11.019   1.901   2.948
52407SOL    HW259119  10.882   1.961   2.972
52408SOL     OW59120   3.702   6.255   7.396
52408SOL    HW159121   3.789   6.234   7.363
52408SOL    HW259122   3.712   6.342   7.435
52409SOL     OW59123  13.818  13.474   5.225
52409SOL    HW159124  13.908  13.455   5.199
52409SOL    HW259125  13.764  13.419   5.169
52410SOL     OW59126   9.601  10.755  11.306
52410SOL    HW159127   9.568  10.696  11.239
52410SOL    HW259128   9.653  10.699  11.364
52411SOL     OW59129   4.685  14.134   8.880
52411SOL    HW159130   4.637  14.062   8.839
52411SOL    HW259131   4.641  14.213   8.850
52412SOL     OW59132  14.218  10.925   8.478
52412SOL    HW159133  14.287  10.981   8.514
52412SOL    HW259134  14.243  10.910   8.387
52413SOL     OW59135   7.900  11.565   7.708
52413SOL    HW159136   7.815  11.521   7.699
52413SOL    HW259137   7.949  11.511   7.769
52414SOL     OW59138   1.737  11.315   8.700
52414SOL    HW159139   1.732  11.400   8.744
52414SOL    HW259140   1.819  11.319   8.651
52415SOL     OW59141   4.573  10.777   4.605
52415SOL    HW159142   4.566  10.831   4.526
52415SOL    HW259143   4.483  10.748   4.623
52416SOL     OW59144   9.397  12.067   3.788
52416SOL    HW159145   9.430  12.016   3.714
52416SOL    HW259146   9.313  12.027   3.809
52417SOL     OW59147  11.237   5.929  11.221
52417SOL    HW159148  11.248   5.946  11.315
52417SOL    HW259149  11.193   6.008  11.188
52418SOL     OW59150  10.056  10.534   3.485
52418SOL    HW159151  10.068  10.457   3.540
52418SOL    HW259152  10.066  10.608   3.545
52419SOL     OW59153   6.753   8.127  14.234
52419SOL    HW159154   6.714   8.164  14.155
52419SOL    HW259155   6.773   8.037  14.211
52420SOL     OW59156  12.804  11.063  11.666
52420SOL    HW159157  12.825  10.974  11.693
52420SOL    HW259158  12.888  11.101  11.638
52421SOL     OW59159   9.943  12.249   2.369
52421SOL    HW159160   9.997  12.229   2.293
52421SOL    HW259161   9.990  12.211   2.443
52422SOL     OW59162  14.815   3.920   5.919
52422SOL    HW159163  14.773   4.006   5.925
52422SOL    HW259164   0.001   3.934   5.859
52423SOL     OW59165   5.615  13.690   4.321
52423SOL    HW159166   5.679  13.619   4.335
52423SOL    HW259167   5.531  13.650   4.341
52424SOL     OW59168   8.154   4.441   9.889
52424SOL    HW159169   8.070   4.479   9.913
52424SOL    HW259170   8.212   4.516   9.875
52425SOL     OW59171   5.699   8.685   4.248
52425SOL    HW159172   5.704   8.601   4.293
52425SOL    HW259173   5.605   8.704   4.243
52426SOL     OW59174   9.907   6.180   0.948
52426SOL    HW159175   9.927   6.177   0.855
52426SOL    HW259176   9.988   6.152   0.991
52427SOL     OW59177   9.791   6.864   8.571
52427SOL    HW159178   9.862   6.863   8.635
52427SOL    HW259179   9.721   6.814   8.613
52428SOL     OW59180   4.477   5.236   5.267
52428SOL    HW159181   4.468   5.229   5.172
52428SOL    HW259182   4.387   5.231   5.299
52429SOL     OW59183   7.156   5.527  13.731
52429SOL    HW159184   7.114   5.442  13.714
52429SOL    HW259185   7.143   5.576  13.649
52430SOL     OW59186   6.464  11.224   2.741
52430SOL    HW159187   6.467  11.131   2.763
52430SOL    HW259188   6.400  11.262   2.801
52431SOL     OW59189  10.865   9.336   7.184
52431SOL    HW159190  10.841   9.401   7.250
52431SOL    HW259191  10.939   9.290   7.222
52432SOL     OW59192  13.269  10.244  12.769
52432SOL    HW159193  13.249  10.152  12.783
52432SOL    HW259194  13.353  10.244  12.722
52433SOL     OW59195   4.564  10.071   2.981
52433SOL    HW159196   4.520  10.131   2.921
52433SOL    HW259197   4.624  10.126   3.030
52434SOL     OW59198  14.613  13.789   0.000
52434SOL    HW159199  14.594  13.877   0.032
52434SOL    HW259200  14.677  13.755   0.063
52435SOL     OW59201   7.243   4.973   4.454
52435SOL    HW159202   7.208   5.054   4.417
52435SOL    HW259203   7.332   4.968   4.418
52436SOL     OW59204  12.906  14.583   0.314
52436SOL    HW159205  13.000  14.567   0.315
52436SOL    HW259206  12.897  14.675   0.339
52437SOL     OW59207  11.463   6.358   0.111
52437SOL    HW159208  11.466   6.451   0.132
52437SOL    HW259209  11.418   6.318   0.186
52438SOL     OW59210  14.296  14.799   9.462
52438SOL    HW159211  14.244  14.753   9.396
52438SOL    HW259212  14.235  14.814   9.534
52439SOL     OW59213   0.327   9.092   4.697
52439SOL    HW159214   0.305   9.065   4.607
52439SOL    HW259215   0.253   9.061   4.750
52440SOL     OW59216   9.760   9.843   4.938
52440SOL    HW159217   9.794   9.933   4.942
52440SOL    HW259218   9.724   9.836   4.849
52441SOL     OW59219   0.831   2.906   6.794
52441SOL    HW159220   0.874   2.989   6.815
52441SOL    HW259221   0.884   2.840   6.839
52442SOL     OW59222  10.926   4.406   9.954
52442SOL    HW159223  10.896   4.407   9.863
52442SOL    HW259224  10.949   4.497   9.972
52443SOL     OW59225   3.606   5.308   6.870
52443SOL    HW159226   3.659   5.320   6.948
52443SOL    HW259227   3.667   5.325   6.797
52444SOL     OW59228   3.884   2.523   1.879
52444SOL    HW159229   3.899   2.441   1.925
52444SOL    HW259230   3.826   2.573   1.937
52445SOL     OW59231   2.444  14.570   2.704
52445SOL    HW159232   2.505  14.508   2.745
52445SOL    HW259233   2.430  14.637   2.771
52446SOL     OW59234  13.055   7.662   7.277
52446SOL    HW159235  13.099   7.731   7.327
52446SOL    HW259236  12.992   7.707   7.222
52447SOL     OW59237   4.752   3.491  11.999
52447SOL    HW159238   4.665   3.451  12.008
52447SOL    HW259239   4.806   3.422  11.961
52448SOL     OW59240   3.132  11.014   4.424
52448SOL    HW159241   3.196  11.081   4.400
52448SOL    HW259242   3.096  11.044   4.508
52449SOL     OW59243  13.585   6.466   1.237
52449SOL    HW159244  13.552   6.492   1.151
52449SOL    HW259245  13.661   6.411   1.218
52450SOL     OW59246   8.272   9.099   0.211
52450SOL    HW159247   8.263   9.053   0.295
52450SOL    HW259248   8.184   9.132   0.192
52451SOL     OW59249   4.146   1.196   6.516
52451SOL    HW159250   4.122   1.103   6.507
52451SOL    HW259251   4.199   1.200   6.596
52452SOL     OW59252   6.922  10.761   1.532
52452SOL    HW159253   6.845  10.734   1.582
52452SOL    HW259254   6.890  10.831   1.475
52453SOL     OW59255   4.823   1.290   7.995
52453SOL    HW159256   4.871   1.371   8.013
52453SOL    HW259257   4.736   1.306   8.032
52454SOL     OW59258   4.023   9.159   4.123
52454SOL    HW159259   4.043   9.084   4.178
52454SOL    HW259260   4.100   9.216   4.132
52455SOL     OW59261  14.766  14.090  11.716
52455SOL    HW159262  14.690  14.034  11.731
52455SOL    HW259263  14.839  14.029  11.701
52456SOL     OW59264   9.257   8.027   3.798
52456SOL    HW159265   9.167   8.042   3.767
52456SOL    HW259266   9.284   7.947   3.752
52457SOL     OW59267   4.353   1.207   7.316
52457SOL    HW159268   4.426   1.160   7.357
52457SOL    HW259269   4.306   1.247   7.389
52458SOL     OW59270  14.628  12.767  13.185
52458SOL    HW159271  14.664  12.734  13.103
52458SOL    HW259272  14.597  12.855  13.164
52459SOL     OW59273   1.073  14.358  12.747
52459SOL    HW159274   1.017  14.428  12.782
52459SOL    HW259275   1.156  14.402  12.727
52460SOL     OW59276  11.641   3.406  13.906
52460SOL    HW159277  11.559   3.416  13.857
52460SOL    HW259278  11.671   3.496  13.920
52461SOL     OW59279   7.631   0.583  10.716
52461SOL    HW159280   7.705   0.591  10.776
52461SOL    HW259281   7.660   0.521  10.650
52462SOL     OW59282   9.626   3.065   3.651
52462SOL    HW159283   9.561   3.030   3.712
52462SOL    HW259284   9.703   3.080   3.705
52463SOL     OW59285   1.489   3.484  12.566
52463SOL    HW159286   1.455   3.404  12.525
52463SOL    HW259287   1.583   3.479  12.550
52464SOL     OW59288   1.803   4.200   2.091
52464SOL    HW159289   1.838   4.143   2.023
52464SOL    HW259290   1.708   4.189   2.084
52465SOL     OW59291   6.885   2.927  10.923
52465SOL    HW159292   6.830   2.992  10.966
52465SOL    HW259293   6.853   2.843  10.955
52466SOL     OW59294  13.025  13.812   4.068
52466SOL    HW159295  12.981  13.894   4.043
52466SOL    HW259296  13.030  13.763   3.986
52467SOL     OW59297   5.862  11.580  12.320
52467SOL    HW159298   5.844  11.673  12.306
52467SOL    HW259299   5.780  11.536  12.297
52468SOL     OW59300   9.026   0.323   2.152
52468SOL    HW159301   9.116   0.326   2.185
52468SOL    HW259302   9.029   0.367   2.068
52469SOL     OW59303   7.029  13.845   5.988
52469SOL    HW159304   7.020  13.800   5.904
52469SOL    HW259305   7.116  13.885   5.984
52470SOL     OW59306  10.234   0.877   3.704
52470SOL    HW159307  10.151   0.911   3.737
52470SOL    HW259308  10.300   0.919   3.760
52471SOL     OW59309   4.032  10.620  10.946
52471SOL    HW159310   4.108  10.602  11.001
52471SOL    HW259311   4.041  10.559  10.873
52472SOL     OW59312  14.304   9.376   8.501
52472SOL    HW159313  14.324   9.405   8.590
52472SOL    HW259314  14.349   9.439   8.444
52473SOL     OW59315   4.296   5.213  13.855
52473SOL    HW159316   4.383   5.200  13.893
52473SOL    HW259317   4.310   5.273  13.782
52474SOL     OW59318   8.511   0.911   4.406
52474SOL    HW159319   8.483   0.844   4.345
52474SOL    HW259320   8.607   0.912   4.399
52475SOL     OW59321   7.765   9.687   3.762
52475SOL    HW159322   7.719   9.750   3.818
52475SOL    HW259323   7.741   9.713   3.673
52476SOL     OW59324  14.067   3.632   8.653
52476SOL    HW159325  14.013   3.561   8.689
52476SOL    HW259326  14.126   3.655   8.725
52477SOL     OW59327   5.775  10.922   9.744
52477SOL    HW159328   5.680  10.937   9.740
52477SOL    HW259329   5.789  10.841   9.695
52478SOL     OW59330   4.235   0.866  12.802
52478SOL    HW159331   4.168   0.867  12.870
52478SOL    HW259332   4.296   0.935  12.827
52479SOL     OW59333  12.797   5.716   5.515
52479SOL    HW159334  12.702   5.707   5.522
52479SOL    HW259335  12.826   5.635   5.473
52480SOL     OW59336  13.089  13.620   2.102
52480SOL    HW159337  13.138  13.594   2.024
52480SOL    HW259338  13.041  13.541   2.128
52481SOL     OW59339   7.630   2.165  13.721
52481SOL    HW159340   7.594   2.081  13.692
52481SOL    HW259341   7.707   2.178  13.666
52482SOL     OW59342   0.772   3.571   4.836
52482SOL    HW159343   0.707   3.522   4.887
52482SOL    HW259344   0.855   3.554   4.881
52483SOL     OW59345   2.043   2.649   9.996
52483SOL    HW159346   2.108   2.580  10.011
52483SOL    HW259347   2.074   2.722  10.050
52484SOL     OW59348   6.086  12.762   2.438
52484SOL    HW159349   6.176  12.764   2.471
52484SOL    HW259350   6.093  12.789   2.346
52485SOL     OW59351  13.892  11.906   2.665
52485SOL    HW159352  13.940  11.973   2.616
52485SOL    HW259353  13.805  11.944   2.677
52486SOL     OW59354  12.107   5.687  11.063
52486SOL    HW159355  12.183   5.712  11.012
52486SOL    HW259356  12.033   5.701  11.004
52487SOL     OW59357   5.963   1.697   3.428
52487SOL    HW159358   5.959   1.717   3.521
52487SOL    HW259359   5.952   1.602   3.423
52488SOL     OW59360  14.587   4.279  12.796
52488SOL    HW159361  14.586   4.206  12.734
52488SOL    HW259362  14.495   4.303  12.806
52489SOL     OW59363   8.742   1.298   2.276
52489SOL    HW159364   8.662   1.260   2.240
52489SOL    HW259365   8.785   1.339   2.202
52490SOL     OW59366   1.726   8.202   5.410
52490SOL    HW159367   1.689   8.122   5.373
52490SOL    HW259368   1.801   8.171   5.462
52491SOL     OW59369  14.700  11.227  12.568
52491SOL    HW159370  14.663  11.195  12.485
52491SOL    HW259371  14.625  11.256  12.618
52492SOL     OW59372   0.095   2.291   8.333
52492SOL    HW159373   0.025   2.341   8.374
52492SOL    HW259374   0.176   2.334   8.363
52493SOL     OW59375   0.168  13.913   9.401
52493SOL    HW159376   0.222  13.954   9.333
52493SOL    HW259377   0.219  13.921   9.481
52494SOL     OW59378  10.700  13.414   6.642
52494SOL    HW159379  10.614  13.386   6.672
52494SOL    HW259380  10.702  13.508   6.658
52495SOL     OW59381  10.257  11.284  11.531
52495SOL    HW159382  10.342  11.242  11.546
52495SOL    HW259383  10.229  11.313  11.619
52496SOL     OW59384  11.338  14.682  13.279
52496SOL    HW159385  11.363  14.721  13.195
52496SOL    HW259386  11.276  14.744  13.316
52497SOL     OW59387  13.138  12.551   2.406
52497SOL    HW159388  13.056  12.585   2.441
52497SOL    HW259389  13.129  12.558   2.311
52498SOL     OW59390   3.750   4.535  11.467
52498SOL    HW159391   3.835   4.570  11.496
52498SOL    HW259392   3.773   4.454  11.421
52499SOL     OW59393   1.509   8.065   5.093
52499SOL    HW159394   1.464   8.112   5.163
52499SOL    HW259395   1.584   8.024   5.135
52500SOL     OW59396   2.010  11.622   9.946
52500SOL    HW159397   2.072  11.594   9.878
52500SOL    HW259398   1.956  11.544   9.962
52501SOL     OW59399  14.702   0.095   9.884
52501SOL    HW159400  14.733   0.010   9.853
52501SOL    HW259401  14.776   0.132   9.932
52502SOL     OW59402   1.098  13.450  10.270
52502SOL    HW159403   1.098  13.538  10.230
52502SOL    HW259404   1.175  13.407  10.233
52503SOL     OW59405   5.451  14.660   5.399
52503SOL    HW159406   5.484  14.716   5.329
52503SOL    HW259407   5.406  14.588   5.354
52504SOL     OW59408   1.412   8.754   1.533
52504SOL    HW159409   1.399   8.839   1.491
52504SOL    HW259410   1.462   8.774   1.612
52505SOL     OW59411   8.168   8.732   3.502
52505SOL    HW159412   8.135   8.644   3.519
52505SOL    HW259413   8.116   8.789   3.559
52506SOL     OW59414   0.796  10.532   0.369
52506SOL    HW159415   0.745  10.497   0.442
52506SOL    HW259416   0.814  10.623   0.393
52507SOL     OW59417   0.524  11.358   0.481
52507SOL    HW159418   0.456  11.348   0.414
52507SOL    HW259419   0.501  11.439   0.526
52508SOL     OW59420   0.434   2.798   4.017
52508SOL    HW159421   0.388   2.824   3.937
52508SOL    HW259422   0.375   2.822   4.087
52509SOL     OW59423   5.239   5.551   3.138
52509SOL    HW159424   5.309   5.495   3.103
52509SOL    HW259425   5.277   5.638   3.141
52510SOL     OW59426   7.476   3.994   8.379
52510SOL    HW159427   7.444   3.927   8.319
52510SOL    HW259428   7.468   4.076   8.331
52511SOL     OW59429   4.263   4.891   9.820
52511SOL    HW159430   4.216   4.940   9.752
52511SOL    HW259431   4.254   4.945   9.898
52512SOL     OW59432   8.589   2.616   8.973
52512SOL    HW159433   8.666   2.636   8.920
52512SOL    HW259434   8.536   2.696   8.970
52513SOL     OW59435   9.707   6.463   1.631
52513SOL    HW159436   9.633   6.427   1.680
52513SOL    HW259437   9.779   6.402   1.647
52514SOL     OW59438   7.877   8.637   4.560
52514SOL    HW159439   7.842   8.560   4.605
52514SOL    HW259440   7.938   8.676   4.622
52515SOL     OW59441  14.792  10.569  11.733
52515SOL    HW159442  14.714  10.624  11.742
52515SOL    HW259443  14.830  10.595  11.649
52516SOL     OW59444   0.600   3.203  13.771
52516SOL    HW159445   0.625   3.160  13.689
52516SOL    HW259446   0.669   3.178  13.833
52517SOL     OW59447   7.970   0.946  10.003
52517SOL    HW159448   7.876   0.928   9.993
52517SOL    HW259449   7.974   1.041  10.012
52518SOL     OW59450  11.182   1.757  11.692
52518SOL    HW159451  11.100   1.735  11.736
52518SOL    HW259452  11.242   1.686  11.716
52519SOL     OW59453   2.235   0.385  14.331
52519SOL    HW159454   2.227   0.394  14.236
52519SOL    HW259455   2.245   0.291  14.345
52520SOL     OW59456   0.767   6.262   4.078
52520SOL    HW159457   0.762   6.166   4.071
52520SOL    HW259458   0.825   6.278   4.152
52521SOL     OW59459   2.544  10.150   1.245
52521SOL    HW159460   2.472  10.090   1.263
52521SOL    HW259461   2.616  10.116   1.298
52522SOL     OW59462   7.293  14.851   7.376
52522SOL    HW159463   7.249   0.036   7.420
52522SOL    HW259464   7.307  14.786   7.445
52523SOL     OW59465   4.575   1.169   1.936
52523SOL    HW159466   4.556   1.220   1.858
52523SOL    HW259467   4.637   1.222   1.986
52524SOL     OW59468   4.552   9.190   7.117
52524SOL    HW159469   4.571   9.248   7.191
52524SOL    HW259470   4.479   9.233   7.072
52525SOL     OW59471   3.884   5.048  11.648
52525SOL    HW159472   3.840   4.977  11.695
52525SOL    HW259473   3.845   5.046  11.560
52526SOL     OW59474   1.706  10.551   2.284
52526SOL    HW159475   1.737  10.463   2.263
52526SOL    HW259476   1.630  10.563   2.227
52527SOL     OW59477  13.446   7.867  12.449
52527SOL    HW159478  13.410   7.929  12.512
52527SOL    HW259479  13.508   7.918  12.397
52528SOL     OW59480   6.977   2.443   8.572
52528SOL    HW159481   7.051   2.430   8.631
52528SOL    HW259482   6.966   2.538   8.568
52529SOL     OW59483  14.257   3.452  13.617
52529SOL    HW159484  14.197   3.405  13.675
52529SOL    HW259485  14.337   3.401  13.618
52530SOL     OW59486   9.705  10.363   3.617
52530SOL    HW159487   9.753  10.394   3.694
52530SOL    HW259488   9.758  10.292   3.582
52531SOL     OW59489  11.063  11.051   3.066
52531SOL    HW159490  11.075  11.114   2.995
52531SOL    HW259491  10.973  11.022   3.057
52532SOL     OW59492   1.127   1.338   9.551
52532SOL    HW159493   1.106   1.367   9.640
52532SOL    HW259494   1.118   1.242   9.555
52533SOL     OW59495  10.334   1.063   8.709
52533SOL    HW159496  10.369   0.976   8.688
52533SOL    HW259497  10.351   1.115   8.631
52534SOL     OW59498   3.466  12.976   8.329
52534SOL    HW159499   3.474  12.985   8.424
52534SOL    HW259500   3.379  12.938   8.316
52535SOL     OW59501  13.255   6.341   9.672
52535SOL    HW159502  13.170   6.300   9.656
52535SOL    HW259503  13.253   6.422   9.621
52536SOL     OW59504   1.008   9.330   1.780
52536SOL    HW159505   1.095   9.314   1.743
52536SOL    HW259506   1.026   9.374   1.864
52537SOL     OW59507  12.341  11.614   8.158
52537SOL    HW159508  12.405  11.545   8.142
52537SOL    HW259509  12.385  11.675   8.216
52538SOL     OW59510  14.701   7.767  12.549
52538SOL    HW159511  14.756   7.707  12.598
52538SOL    HW259512  14.613   7.730  12.555
52539SOL     OW59513   0.073   3.801   5.512
52539SOL    HW159514   0.144   3.783   5.574
52539SOL    HW259515   0.007   3.734   5.532
52540SOL     OW59516   2.827  11.414  13.257
52540SOL    HW159517   2.792  11.326  13.268
52540SOL    HW259518   2.807  11.459  13.339
52541SOL     OW59519   0.934   4.323   2.845
52541SOL    HW159520   0.932   4.293   2.936
52541SOL    HW259521   0.960   4.247   2.795
52542SOL     OW59522  11.212   5.386   2.705
52542SOL    HW159523  11.232   5.295   2.682
52542SOL    HW259524  11.153   5.415   2.636
52543SOL     OW59525   1.374  11.394   9.663
52543SOL    HW159526   1.448  11.454   9.654
52543SOL    HW259527   1.386  11.329   9.593
52544SOL     OW59528   7.903   8.358   2.245
52544SOL    HW159529   7.825   8.303   2.241
52544SOL    HW259530   7.976   8.296   2.249
52545SOL     OW59531  10.583   8.291   5.376
52545SOL    HW159532  10.623   8.227   5.319
52545SOL    HW259533  10.655   8.345   5.407
52546SOL     OW59534   9.118  12.563   1.516
52546SOL    HW159535   9.081  12.565   1.604
52546SOL    HW259536   9.210  12.585   1.528
52547SOL     OW59537  11.812   0.377   3.004
52547SOL    HW159538  11.809   0.285   3.031
52547SOL    HW259539  11.721   0.398   2.981
52548SOL     OW59540   5.463   6.607  14.045
52548SOL    HW159541   5.499   6.677  14.099
52548SOL    HW259542   5.533   6.585  13.984
52549SOL     OW59543  14.433   0.871   1.691
52549SOL    HW159544  14.462   0.810   1.758
52549SOL    HW259545  14.514   0.904   1.651
52550SOL     OW59546   4.823  13.759  13.010
52550SOL    HW159547   4.772  13.686  13.047
52550SOL    HW259548   4.758  13.813  12.966
52551SOL     OW59549  12.587   3.467   6.677
52551SOL    HW159550  12.576   3.395   6.739
52551SOL    HW259551  12.679   3.490   6.682
52552SOL     OW59552   7.476   7.756   8.664
52552SOL    HW159553   7.407   7.818   8.688
52552SOL    HW259554   7.492   7.706   8.744
52553SOL     OW59555   6.167  13.757  10.506
52553SOL    HW159556   6.247  13.768  10.558
52553SOL    HW259557   6.164  13.664  10.486
52554SOL     OW59558   3.559  10.333   1.562
52554SOL    HW159559   3.493  10.392   1.527
52554SOL    HW259560   3.569  10.265   1.495
52555SOL     OW59561   7.841   5.520   6.805
52555SOL    HW159562   7.822   5.570   6.726
52555SOL    HW259563   7.826   5.429   6.780
52556SOL     OW59564   6.466  12.925   3.358
52556SOL    HW159565   6.407  12.857   3.391
52556SOL    HW259566   6.444  13.003   3.409
52557SOL     OW59567  10.449   7.837   9.723
52557SOL    HW159568  10.474   7.909   9.665
52557SOL    HW259569  10.361   7.812   9.695
52558SOL     OW59570   9.173   3.676  10.877
52558SOL    HW159571   9.207   3.649  10.792
52558SOL    HW259572   9.249   3.711  10.923
52559SOL     OW59573   7.015  11.586   0.470
52559SOL    HW159574   7.099  11.602   0.514
52559SOL    HW259575   6.985  11.503   0.506
52560SOL     OW59576  14.822  11.763   1.583
52560SOL    HW159577  14.870  11.792   1.661
52560SOL    HW259578  14.776  11.684   1.611
52561SOL     OW59579   5.159   2.743   9.146
52561SOL    HW159580   5.162   2.654   9.182
52561SOL    HW259581   5.248   2.776   9.157
52562SOL     OW59582   6.797   6.813  10.835
52562SOL    HW159583   6.833   6.784  10.919
52562SOL    HW259584   6.730   6.877  10.857
52563SOL     OW59585   1.683  11.450  12.581
52563SOL    HW159586   1.679  11.354  12.581
52563SOL    HW259587   1.720  11.473  12.496
52564SOL     OW59588   3.573  14.234   7.642
52564SOL    HW159589   3.608  14.155   7.601
52564SOL    HW259590   3.489  14.248   7.598
52565SOL     OW59591   2.410   6.090   1.475
52565SOL    HW159592   2.448   6.020   1.528
52565SOL    HW259593   2.484   6.130   1.430
52566SOL     OW59594   6.211   2.501  10.889
52566SOL    HW159595   6.240   2.434  10.827
52566SOL    HW259596   6.289   2.553  10.906
52567SOL     OW59597   9.995  11.136   2.734
52567SOL    HW159598   9.911  11.124   2.690
52567SOL    HW259599  10.047  11.188   2.673
52568SOL     OW59600   3.266  14.099   0.393
52568SOL    HW159601   3.210  14.133   0.323
52568SOL    HW259602   3.245  14.005   0.397
52569SOL     OW59603   1.979   4.370   5.542
52569SOL    HW159604   2.008   4.441   5.486
52569SOL    HW259605   1.895   4.400   5.577
52570SOL     OW59606   7.762  11.020   2.926
52570SOL    HW159607   7.764  10.926   2.910
52570SOL    HW259608   7.852  11.043   2.947
52571SOL     OW59609   9.593   4.365   9.514
52571SOL    HW159610   9.599   4.278   9.551
52571SOL    HW259611   9.593   4.424   9.590
52572SOL     OW59612   1.146   6.590   6.614
52572SOL    HW159613   1.168   6.553   6.528
52572SOL    HW259614   1.100   6.671   6.594
52573SOL     OW59615   7.337   5.941   0.539
52573SOL    HW159616   7.316   5.859   0.582
52573SOL    HW259617   7.397   5.917   0.468
52574SOL     OW59618   0.279   0.097   6.355
52574SOL    HW159619   0.342   0.029   6.334
52574SOL    HW259620   0.284   0.158   6.282
52575SOL     OW59621   4.070   8.929  11.166
52575SOL    HW159622   4.097   9.017  11.193
52575SOL    HW259623   4.143   8.873  11.193
52576SOL     OW59624   4.633   9.187   9.738
52576SOL    HW159625   4.562   9.124   9.755
52576SOL    HW259626   4.614   9.260   9.796
52577SOL     OW59627   9.764  11.015  11.653
52577SOL    HW159628   9.767  11.104  11.688
52577SOL    HW259629   9.705  10.968  11.712
52578SOL     OW59630  13.183  13.959   1.810
52578SOL    HW159631  13.164  13.870   1.780
52578SOL    HW259632  13.146  13.964   1.898
52579SOL     OW59633   8.315  12.974   8.013
52579SOL    HW159634   8.262  12.946   8.087
52579SOL    HW259635   8.335  13.066   8.031
52580SOL     OW59636   6.571   7.220   5.386
52580SOL    HW159637   6.618   7.242   5.305
52580SOL    HW259638   6.640   7.188   5.445
52581SOL     OW59639  10.186   6.490   6.143
52581SOL    HW159640  10.091   6.475   6.145
52581SOL    HW259641  10.201   6.553   6.213
52582SOL     OW59642   5.213   7.431   0.580
52582SOL    HW159643   5.266   7.389   0.511
52582SOL    HW259644   5.223   7.374   0.656
52583SOL     OW59645   2.505  11.677   6.407
52583SOL    HW159646   2.421  11.653   6.447
52583SOL    HW259647   2.567  11.611   6.438
52584SOL     OW59648  13.015  11.612  10.510
52584SOL    HW159649  13.095  11.602  10.560
52584SOL    HW259650  12.981  11.523  10.500
52585SOL     OW59651   2.215   0.918  11.646
52585SOL    HW159652   2.279   0.957  11.586
52585SOL    HW259653   2.141   0.979  11.644
52586SOL     OW59654   8.791  11.601  10.028
52586SOL    HW159655   8.704  11.570  10.005
52586SOL    HW259656   8.847  11.569   9.958
52587SOL     OW59657  10.080   9.019   7.841
52587SOL    HW159658  10.111   9.084   7.904
52587SOL    HW259659  10.108   8.935   7.877
52588SOL     OW59660  12.792  10.025   7.674
52588SOL    HW159661  12.822  10.088   7.608
52588SOL    HW259662  12.870   9.974   7.696
52589SOL     OW59663  10.247   7.756  14.133
52589SOL    HW159664  10.338   7.731  14.114
52589SOL    HW259665  10.244   7.762  14.229
52590SOL     OW59666   7.309   9.646   2.810
52590SOL    HW159667   7.274   9.724   2.768
52590SOL    HW259668   7.402   9.647   2.791
52591SOL     OW59669  10.896   4.560  14.778
52591SOL    HW159670  10.886   4.557  14.874
52591SOL    HW259671  10.946   4.639  14.761
52592SOL     OW59672   5.957  12.639   7.553
52592SOL    HW159673   5.895  12.598   7.613
52592SOL    HW259674   6.021  12.682   7.610
52593SOL     OW59675   5.640  13.190  14.851
52593SOL    HW159676   5.601  13.270  14.817
52593SOL    HW259677   5.642  13.203   0.059
52594SOL     OW59678   0.456  11.834   5.645
52594SOL    HW159679   0.424  11.909   5.695
52594SOL    HW259680   0.441  11.857   5.554
52595SOL     OW59681   8.905   1.573  14.785
52595SOL    HW159682   8.961   1.608  14.716
52595SOL    HW259683   8.963   1.519  14.838
52596SOL     OW59684  12.504   1.005  13.885
52596SOL    HW159685  12.455   1.042  13.812
52596SOL    HW259686  12.560   1.076  13.915
52597SOL     OW59687   9.393  13.152   1.694
52597SOL    HW159688   9.413  13.084   1.759
52597SOL    HW259689   9.298  13.158   1.695
52598SOL     OW59690   8.801   5.509  10.856
52598SOL    HW159691   8.839   5.566  10.923
52598SOL    HW259692   8.858   5.520  10.780
52599SOL     OW59693  13.779   4.600   4.308
52599SOL    HW159694  13.686   4.585   4.292
52599SOL    HW259695  13.798   4.681   4.261
52600SOL     OW59696   8.869   7.710  14.184
52600SOL    HW159697   8.920   7.756  14.251
52600SOL    HW259698   8.818   7.646  14.233
52601SOL     OW59699   8.077   5.083   1.383
52601SOL    HW159700   8.021   5.070   1.306
52601SOL    HW259701   8.057   5.172   1.412
52602SOL     OW59702  11.221  11.632   5.785
52602SOL    HW159703  11.137  11.591   5.808
52602SOL    HW259704  11.207  11.725   5.801
52603SOL     OW59705   9.123  11.871   9.683
52603SOL    HW159706   9.096  11.911   9.766
52603SOL    HW259707   9.045  11.827   9.652
52604SOL     OW59708   1.296   1.851   0.403
52604SOL    HW159709   1.285   1.937   0.363
52604SOL    HW259710   1.217   1.838   0.455
52605SOL     OW59711   8.011   6.145   5.253
52605SOL    HW159712   7.932   6.185   5.290
52605SOL    HW259713   8.036   6.203   5.181
52606SOL     OW59714   2.554   4.649   3.923
52606SOL    HW159715   2.583   4.724   3.975
52606SOL    HW259716   2.622   4.582   3.938
52607SOL     OW59717   2.562   4.236   3.678
52607SOL    HW159718   2.652   4.220   3.707
52607SOL    HW259719   2.546   4.170   3.612
52608SOL     OW59720   7.046  11.044  14.560
52608SOL    HW159721   7.087  11.125  14.590
52608SOL    HW259722   6.967  11.073  14.514
52609SOL     OW59723   6.145   7.617   6.550
52609SOL    HW159724   6.230   7.659   6.564
52609SOL    HW259725   6.145   7.543   6.610
52610SOL     OW59726   4.200  14.000   3.904
52610SOL    HW159727   4.190  14.067   3.971
52610SOL    HW259728   4.271  13.944   3.937
52611SOL     OW59729   1.909   8.414   3.764
52611SOL    HW159730   1.956   8.496   3.749
52611SOL    HW259731   1.966   8.346   3.728
52612SOL     OW59732  12.445   7.439   8.239
52612SOL    HW159733  12.458   7.494   8.316
52612SOL    HW259734  12.445   7.500   8.166
52613SOL     OW59735   0.807   2.849   8.332
52613SOL    HW159736   0.863   2.897   8.271
52613SOL    HW259737   0.721   2.847   8.290
52614SOL     OW59738   0.691  13.772   2.182
52614SOL    HW159739   0.739  13.834   2.127
52614SOL    HW259740   0.656  13.825   2.253
52615SOL     OW59741   2.406  11.519   5.474
52615SOL    HW159742   2.345  11.457   5.433
52615SOL    HW259743   2.382  11.519   5.566
52616SOL     OW59744  10.974  10.023   6.770
52616SOL    HW159745  10.958   9.994   6.680
52616SOL    HW259746  10.947  10.115   6.771
52617SOL     OW59747   2.398   7.542   7.634
52617SOL    HW159748   2.434   7.497   7.710
52617SOL    HW259749   2.331   7.483   7.600
52618SOL     OW59750   9.773  11.431   4.454
52618SOL    HW159751   9.684  11.434   4.418
52618SOL    HW259752   9.830  11.454   4.380
52619SOL     OW59753   2.228  11.336   8.483
52619SOL    HW159754   2.195  11.267   8.540
52619SOL    HW259755   2.317  11.353   8.515
52620SOL     OW59756   7.508   8.431   6.240
52620SOL    HW159757   7.557   8.393   6.313
52620SOL    HW259758   7.571   8.438   6.169
52621SOL     OW59759   6.596   9.545  14.683
52621SOL    HW159760   6.517   9.598  14.674
52621SOL    HW259761   6.657   9.602  14.732
52622SOL     OW59762  14.095   5.512   6.290
52622SOL    HW159763  14.155   5.575   6.251
52622SOL    HW259764  14.148   5.468   6.357
52623SOL     OW59765  11.039   8.766   1.657
52623SOL    HW159766  11.067   8.806   1.739
52623SOL    HW259767  10.954   8.726   1.677
52624SOL     OW59768  11.466   7.491   1.938
52624SOL    HW159769  11.541   7.494   1.879
52624SOL    HW259770  11.504   7.503   2.025
52625SOL     OW59771   3.601  12.989   9.838
52625SOL    HW159772   3.639  12.970   9.924
52625SOL    HW259773   3.595  13.084   9.834
52626SOL     OW59774  10.551  10.586  12.546
52626SOL    HW159775  10.629  10.531  12.549
52626SOL    HW259776  10.585  10.674  12.529
52627SOL     OW59777   8.417   4.050   5.678
52627SOL    HW159778   8.406   4.063   5.584
52627SOL    HW259779   8.510   4.028   5.688
52628SOL     OW59780   4.881   6.038   8.919
52628SOL    HW159781   4.966   6.039   8.877
52628SOL    HW259782   4.884   6.109   8.983
52629SOL     OW59783   2.509   4.295   4.006
52629SOL    HW159784   2.585   4.310   3.949
52629SOL    HW259785   2.546   4.253   4.084
52630SOL     OW59786   9.140  12.310   1.142
52630SOL    HW159787   9.051  12.299   1.110
52630SOL    HW259788   9.195  12.274   1.074
52631SOL     OW59789  10.134   9.278  12.010
52631SOL    HW159790  10.082   9.198  12.005
52631SOL    HW259791  10.208   9.255  12.065
52632SOL     OW59792   6.601  11.431   0.531
52632SOL    HW159793   6.623  11.344   0.499
52632SOL    HW259794   6.593  11.484   0.452
52633SOL     OW59795  13.426   3.367   0.429
52633SOL    HW159796  13.381   3.427   0.369
52633SOL    HW259797  13.496   3.328   0.377
52634SOL     OW59798  14.456   8.607   6.783
52634SOL    HW159799  14.518   8.561   6.839
52634SOL    HW259800  14.439   8.546   6.711
52635SOL     OW59801   7.777  13.818   2.983
52635SOL    HW159802   7.863  13.817   3.024
52635SOL    HW259803   7.742  13.731   2.998
52636SOL     OW59804   0.747  13.579   5.111
52636SOL    HW159805   0.807  13.524   5.161
52636SOL    HW259806   0.669  13.586   5.167
52637SOL     OW59807   4.541  14.725   9.750
52637SOL    HW159808   4.455  14.749   9.784
52637SOL    HW259809   4.582  14.674   9.820
52638SOL     OW59810   3.062   8.757   8.818
52638SOL    HW159811   3.115   8.818   8.870
52638SOL    HW259812   3.124   8.713   8.761
52639SOL     OW59813  10.186  14.855  13.044
52639SOL    HW159814  10.117   0.018  13.088
52639SOL    HW259815  10.197  14.777  13.098
52640SOL     OW59816   6.443   0.123   1.008
52640SOL    HW159817   6.359   0.169   1.010
52640SOL    HW259818   6.466   0.117   0.916
52641SOL     OW59819   6.930   6.069   4.911
52641SOL    HW159820   7.006   6.090   4.856
52641SOL    HW259821   6.874   6.015   4.856
52642SOL     OW59822  10.001  14.602   1.370
52642SOL    HW159823  10.002  14.655   1.291
52642SOL    HW259824  10.044  14.656   1.437
52643SOL     OW59825   0.588   0.473   9.850
52643SOL    HW159826   0.550   0.433   9.772
52643SOL    HW259827   0.536   0.551   9.865
52644SOL     OW59828   7.843  12.507  11.647
52644SOL    HW159829   7.891  12.569  11.703
52644SOL    HW259830   7.751  12.520  11.669
52645SOL     OW59831  12.586   4.378  13.480
52645SOL    HW159832  12.503   4.395  13.525
52645SOL    HW259833  12.645   4.446  13.513
52646SOL     OW59834  13.487   2.039   1.493
52646SOL    HW159835  13.577   2.029   1.461
52646SOL    HW259836  13.459   2.124   1.460
52647SOL     OW59837   8.729   0.336  11.576
52647SOL    HW159838   8.788   0.410  11.592
52647SOL    HW259839   8.642   0.376  11.569
52648SOL     OW59840   5.464   4.923   3.865
52648SOL    HW159841   5.401   4.949   3.798
52648SOL    HW259842   5.410   4.896   3.939
52649SOL     OW59843   2.709   9.893   6.622
52649SOL    HW159844   2.698   9.800   6.640
52649SOL    HW259845   2.623   9.931   6.636
52650SOL     OW59846   7.499   6.128  11.934
52650SOL    HW159847   7.592   6.111  11.949
52650SOL    HW259848   7.496   6.215  11.893
52651SOL     OW59849  14.834  11.957   8.620
52651SOL    HW159850  14.835  12.020   8.548
52651SOL    HW259851  14.741  11.940   8.636
52652SOL     OW59852   6.047   8.400  12.333
52652SOL    HW159853   6.032   8.413  12.426
52652SOL    HW259854   5.959   8.391  12.295
52653SOL     OW59855   0.942   4.339   7.195
52653SOL    HW159856   0.943   4.281   7.271
52653SOL    HW259857   1.034   4.345   7.169
52654SOL     OW59858  12.178   4.550  10.893
52654SOL    HW159859  12.125   4.604  10.952
52654SOL    HW259860  12.168   4.591  10.807
52655SOL     OW59861  13.482   5.766   9.945
52655SOL    HW159862  13.562   5.718   9.966
52655SOL    HW259863  13.427   5.756  10.022
52656SOL     OW59864   8.866   7.766   2.786
52656SOL    HW159865   8.930   7.703   2.754
52656SOL    HW259866   8.783   7.738   2.746
52657SOL     OW59867  11.485   1.186   1.117
52657SOL    HW159868  11.566   1.235   1.122
52657SOL    HW259869  11.427   1.241   1.063
52658SOL     OW59870  10.101  13.635   2.407
52658SOL    HW159871  10.026  13.606   2.460
52658SOL    HW259872  10.106  13.730   2.423
52659SOL     OW59873   6.027   6.258   5.040
52659SOL    HW159874   5.994   6.310   4.967
52659SOL    HW259875   5.983   6.294   5.117
52660SOL     OW59876   6.107   3.941   5.991
52660SOL    HW159877   6.053   3.866   6.013
52660SOL    HW259878   6.083   4.008   6.055
52661SOL     OW59879   4.868   0.644   2.643
52661SOL    HW159880   4.829   0.620   2.727
52661SOL    HW259881   4.919   0.568   2.617
52662SOL     OW59882   7.568   1.987   3.653
52662SOL    HW159883   7.508   1.995   3.728
52662SOL    HW259884   7.639   1.931   3.684
52663SOL     OW59885   6.137   2.872   3.881
52663SOL    HW159886   6.067   2.927   3.916
52663SOL    HW259887   6.218   2.910   3.916
52664SOL     OW59888   8.023   6.398  10.460
52664SOL    HW159889   7.993   6.486  10.480
52664SOL    HW259890   8.070   6.407  10.376
52665SOL     OW59891   6.574   1.290   7.862
52665SOL    HW159892   6.502   1.243   7.819
52665SOL    HW259893   6.531   1.340   7.931
52666SOL     OW59894   0.857   2.663  11.213
52666SOL    HW159895   0.891   2.592  11.159
52666SOL    HW259896   0.913   2.738  11.193
52667SOL     OW59897   1.464  13.700   0.757
52667SOL    HW159898   1.510  13.694   0.674
52667SOL    HW259899   1.532  13.687   0.823
52668SOL     OW59900  13.877   8.042  14.598
52668SOL    HW159901  13.880   8.137  14.613
52668SOL    HW259902  13.904   8.031  14.507
52669SOL     OW59903  13.079  14.785   0.987
52669SOL    HW159904  13.125  14.856   0.943
52669SOL    HW259905  13.102  14.706   0.937
52670SOL     OW59906  14.742   8.971   1.536
52670SOL    HW159907  14.680   8.990   1.466
52670SOL    HW259908  14.797   8.901   1.500
52671SOL     OW59909   7.075  14.865   4.842
52671SOL    HW159910   7.121  14.818   4.913
52671SOL    HW259911   7.145   0.009   4.785
52672SOL     OW59912  14.057   4.878   0.943
52672SOL    HW159913  14.134   4.922   0.908
52672SOL    HW259914  14.081   4.785   0.948
52673SOL     OW59915  10.889  13.320  13.867
52673SOL    HW159916  10.818  13.380  13.892
52673SOL    HW259917  10.845  13.248  13.822
52674SOL     OW59918   7.314  12.460   7.909
52674SOL    HW159919   7.337  12.549   7.883
52674SOL    HW259920   7.360  12.404   7.846
52675SOL     OW59921   4.542   5.780   3.857
52675SOL    HW159922   4.598   5.835   3.912
52675SOL    HW259923   4.469   5.755   3.915
52676SOL     OW59924   4.622   1.925   1.843
52676SOL    HW159925   4.590   1.942   1.932
52676SOL    HW259926   4.714   1.903   1.854
52677SOL     OW59927   0.870  10.016   0.840
52677SOL    HW159928   0.912  10.102   0.834
52677SOL    HW259929   0.784  10.034   0.877
52678SOL     OW59930   2.587   2.221  11.980
52678SOL    HW159931   2.669   2.270  11.979
52678SOL    HW259932   2.531   2.267  11.917
52679SOL     OW59933   0.660   4.227   2.156
52679SOL    HW159934   0.605   4.182   2.092
52679SOL    HW259935   0.750   4.212   2.125
52680SOL     OW59936   7.082   4.621  11.249
52680SOL    HW159937   7.143   4.557  11.287
52680SOL    HW259938   7.138   4.688  11.211
52681SOL     OW59939   5.384  11.623  11.496
52681SOL    HW159940   5.371  11.621  11.401
52681SOL    HW259941   5.459  11.566  11.511
52682SOL     OW59942  14.241   4.313   6.069
52682SOL    HW159943  14.184   4.257   6.016
52682SOL    HW259944  14.185   4.343   6.140
52683SOL     OW59945  12.841  11.430  14.136
52683SOL    HW159946  12.912  11.370  14.115
52683SOL    HW259947  12.818  11.410  14.226
52684SOL     OW59948   6.110  14.501   8.375
52684SOL    HW159949   6.067  14.417   8.387
52684SOL    HW259950   6.081  14.554   8.450
52685SOL     OW59951  12.797  11.508  14.662
52685SOL    HW159952  12.869  11.510  14.725
52685SOL    HW259953  12.768  11.417  14.661
52686SOL     OW59954   0.023  10.543   8.725
52686SOL    HW159955   0.084  10.504   8.661
52686SOL    HW259956   0.018  10.635   8.700
52687SOL     OW59957   0.109   7.512  11.783
52687SOL    HW159958   0.132   7.449  11.852
52687SOL    HW259959   0.164   7.487  11.709
52688SOL     OW59960   2.151   3.014  10.892
52688SOL    HW159961   2.239   3.001  10.857
52688SOL    HW259962   2.109   2.929  10.884
52689SOL     OW59963   7.922   8.180   0.005
52689SOL    HW159964   8.018   8.176   0.012
52689SOL    HW259965   7.900   8.107  14.834
52690SOL     OW59966   2.324   5.203   9.969
52690SOL    HW159967   2.305   5.111   9.951
52690SOL    HW259968   2.286   5.250   9.895
52691SOL     OW59969  14.167   8.812   2.768
52691SOL    HW159970  14.211   8.885   2.727
52691SOL    HW259971  14.152   8.749   2.697
52692SOL     OW59972   7.299  10.093   2.036
52692SOL    HW159973   7.217  10.078   2.082
52692SOL    HW259974   7.277  10.154   1.966
52693SOL     OW59975  13.378   9.485  11.521
52693SOL    HW159976  13.314   9.415  11.531
52693SOL    HW259977  13.327   9.559  11.487
52694SOL     OW59978   8.879   6.099   2.925
52694SOL    HW159979   8.784   6.107   2.925
52694SOL    HW259980   8.904   6.100   3.017
52695SOL     OW59981  14.440  13.182   9.168
52695SOL    HW159982  14.455  13.192   9.262
52695SOL    HW259983  14.400  13.095   9.159
52696SOL     OW59984   6.704  13.353  13.918
52696SOL    HW159985   6.789  13.371  13.956
52696SOL    HW259986   6.699  13.410  13.841
52697SOL     OW59987   4.479  12.030   5.719
52697SOL    HW159988   4.488  12.018   5.814
52697SOL    HW259989   4.558  12.078   5.694
52698SOL     OW59990   4.918   5.811   5.163
52698SOL    HW159991   4.973   5.884   5.134
52698SOL    HW259992   4.845   5.853   5.209
52699SOL     OW59993   7.181  14.673  12.814
52699SOL    HW159994   7.225  14.661  12.898
52699SOL    HW259995   7.183  14.586  12.773
52700SOL     OW59996   9.479   9.464   5.739
52700SOL    HW159997   9.479   9.375   5.702
52700SOL    HW259998   9.461   9.521   5.665
52701SOL     OW59999   8.283   3.250   9.725
52701SOL    HW160000   8.221   3.296   9.781
52701SOL    HW260001   8.253   3.159   9.725
52702SOL     OW60002  11.705  13.440   8.280
52702SOL    HW160003  11.796  13.455   8.305
52702SOL    HW260004  11.654  13.480   8.351
52703SOL     OW60005   9.995   2.824   3.832
52703SOL    HW160006   9.987   2.737   3.871
52703SOL    HW260007  10.089   2.843   3.835
52704SOL     OW60008   2.995  12.251   2.876
52704SOL    HW160009   2.964  12.256   2.785
52704SOL    HW260010   3.037  12.336   2.891
52705SOL     OW60011   7.694   3.407   6.964
52705SOL    HW160012   7.658   3.466   7.031
52705SOL    HW260013   7.754   3.462   6.914
52706SOL     OW60014   6.093   2.378   0.149
52706SOL    HW160015   6.010   2.422   0.167
52706SOL    HW260016   6.085   2.293   0.193
52707SOL     OW60017  14.887  10.341  11.225
52707SOL    HW160018   0.060  10.303  11.161
52707SOL    HW260019   0.048  10.415  11.262
52708SOL     OW60020  13.742   5.590   5.255
52708SOL    HW160021  13.835   5.600   5.274
52708SOL    HW260022  13.706   5.546   5.333
52709SOL     OW60023   1.630   9.119  14.719
52709SOL    HW160024   1.676   9.109  14.802
52709SOL    HW260025   1.618   9.213  14.708
52710SOL     OW60026  13.225  10.499   1.704
52710SOL    HW160027  13.155  10.495   1.638
52710SOL    HW260028  13.264  10.411   1.702
52711SOL     OW60029   2.862  14.314   1.908
52711SOL    HW160030   2.872  14.249   1.839
52711SOL    HW260031   2.945  14.362   1.908
52712SOL     OW60032   6.486  13.783  11.258
52712SOL    HW160033   6.473  13.734  11.339
52712SOL    HW260034   6.544  13.855  11.282
52713SOL     OW60035  12.188   9.591  10.492
52713SOL    HW160036  12.219   9.503  10.472
52713SOL    HW260037  12.094   9.580  10.510
52714SOL     OW60038   0.715   4.361   7.500
52714SOL    HW160039   0.759   4.281   7.473
52714SOL    HW260040   0.687   4.401   7.418
52715SOL     OW60041   9.214   2.234   1.441
52715SOL    HW160042   9.187   2.280   1.363
52715SOL    HW260043   9.155   2.159   1.447
52716SOL     OW60044  10.034   1.639   4.982
52716SOL    HW160045  10.080   1.681   4.909
52716SOL    HW260046   9.988   1.710   5.026
52717SOL     OW60047   8.145   9.703  13.954
52717SOL    HW160048   8.174   9.616  13.980
52717SOL    HW260049   8.056   9.710  13.990
52718SOL     OW60050   3.119   7.399   5.361
52718SOL    HW160051   3.117   7.321   5.417
52718SOL    HW260052   3.170   7.463   5.411
52719SOL     OW60053   6.961   6.353   8.571
52719SOL    HW160054   6.981   6.295   8.498
52719SOL    HW260055   6.950   6.295   8.647
52720SOL     OW60056  12.470   5.353  14.214
52720SOL    HW160057  12.499   5.268  14.180
52720SOL    HW260058  12.457   5.407  14.135
52721SOL     OW60059   3.090  14.486   9.817
52721SOL    HW160060   3.087  14.418   9.885
52721SOL    HW260061   2.998  14.508   9.801
52722SOL     OW60062   1.116   2.621   5.272
52722SOL    HW160063   1.098   2.555   5.205
52722SOL    HW260064   1.168   2.688   5.226
52723SOL     OW60065  12.888  13.177  10.181
52723SOL    HW160066  12.881  13.110  10.248
52723SOL    HW260067  12.982  13.180  10.160
52724SOL     OW60068   2.875  13.608   7.935
52724SOL    HW160069   2.942  13.567   7.881
52724SOL    HW260070   2.871  13.554   8.014
52725SOL     OW60071  12.003  14.064  13.962
52725SOL    HW160072  12.026  13.972  13.973
52725SOL    HW260073  11.989  14.096  14.052
52726SOL     OW60074   7.032   6.449   5.885
52726SOL    HW160075   7.059   6.513   5.820
52726SOL    HW260076   6.976   6.388   5.836
52727SOL     OW60077  13.753   8.753   6.139
52727SOL    HW160078  13.829   8.697   6.124
52727SOL    HW260079  13.686   8.721   6.078
52728SOL     OW60080   4.510  10.702  12.106
52728SOL    HW160081   4.605  10.706  12.119
52728SOL    HW260082   4.476  10.674  12.191
52729SOL     OW60083   4.066   8.360  11.329
52729SOL    HW160084   4.140   8.413  11.299
52729SOL    HW260085   4.093   8.270  11.311
52730SOL     OW60086  11.239  11.958  11.862
52730SOL    HW160087  11.327  11.922  11.868
52730SOL    HW260088  11.222  11.994  11.950
52731SOL     OW60089   6.697  14.099   4.244
52731SOL    HW160090   6.694  14.012   4.205
52731SOL    HW260091   6.613  14.139   4.220
52732SOL     OW60092   7.373   5.102   6.111
52732SOL    HW160093   7.301   5.046   6.141
52732SOL    HW260094   7.392   5.159   6.185
52733SOL     OW60095  12.016   5.306   5.573
52733SOL    HW160096  12.083   5.292   5.506
52733SOL    HW260097  11.991   5.398   5.563
52734SOL     OW60098  11.360   7.764   6.507
52734SOL    HW160099  11.414   7.685   6.515
52734SOL    HW260100  11.393   7.808   6.428
52735SOL     OW60101   6.776   9.056  10.520
52735SOL    HW160102   6.804   8.969  10.548
52735SOL    HW260103   6.805   9.115  10.589
52736SOL     OW60104   6.786   7.695  12.634
52736SOL    HW160105   6.829   7.717  12.551
52736SOL    HW260106   6.749   7.608  12.619
52737SOL     OW60107  14.097   8.032  12.305
52737SOL    HW160108  14.174   8.002  12.257
52737SOL    HW260109  14.036   7.958  12.300
52738SOL     OW60110  14.325   9.934   0.860
52738SOL    HW160111  14.238   9.907   0.831
52738SOL    HW260112  14.321   9.933   0.955
52739SOL     OW60113   3.429  10.268  11.588
52739SOL    HW160114   3.512  10.254  11.542
52739SOL    HW260115   3.391  10.180  11.597
52740SOL     OW60116  11.794  10.181   6.208
52740SOL    HW160117  11.865  10.116   6.203
52740SOL    HW260118  11.755  10.167   6.294
52741SOL     OW60119  14.556  13.699  13.565
52741SOL    HW160120  14.511  13.643  13.628
52741SOL    HW260121  14.486  13.729  13.506
52742SOL     OW60122   3.336   0.019   4.315
52742SOL    HW160123   3.249  14.873   4.294
52742SOL    HW260124   3.326   0.114   4.313
52743SOL     OW60125  14.391   0.419  10.587
52743SOL    HW160126  14.448   0.468  10.646
52743SOL    HW260127  14.449   0.388  10.518
52744SOL     OW60128   5.651  13.001   1.814
52744SOL    HW160129   5.691  13.085   1.836
52744SOL    HW260130   5.585  13.023   1.748
52745SOL     OW60131   6.597   2.584   5.246
52745SOL    HW160132   6.533   2.612   5.181
52745SOL    HW260133   6.680   2.622   5.215
52746SOL     OW60134   0.660  12.614   2.908
52746SOL    HW160135   0.607  12.610   2.828
52746SOL    HW260136   0.738  12.663   2.883
52747SOL     OW60137   7.323  13.061   6.912
52747SOL    HW160138   7.329  13.156   6.902
52747SOL    HW260139   7.269  13.032   6.839
52748SOL     OW60140   6.525   1.327   2.940
52748SOL    HW160141   6.509   1.366   2.854
52748SOL    HW260142   6.559   1.240   2.920
52749SOL     OW60143  12.588   1.320  11.030
52749SOL    HW160144  12.655   1.252  11.035
52749SOL    HW260145  12.567   1.327  10.937
52750SOL     OW60146  14.798   8.927   7.659
52750SOL    HW160147  14.794   9.021   7.675
52750SOL    HW260148  14.864   8.894   7.720
52751SOL     OW60149   7.622   1.735   1.731
52751SOL    HW160150   7.687   1.728   1.801
52751SOL    HW260151   7.671   1.716   1.651
52752SOL     OW60152  14.543   6.644   2.658
52752SOL    HW160153  14.471   6.695   2.696
52752SOL    HW260154  14.613   6.708   2.644
52753SOL     OW60155   1.014   1.111   8.659
52753SOL    HW160156   0.991   1.204   8.666
52753SOL    HW260157   0.995   1.088   8.568
52754SOL     OW60158  11.371   4.384   9.285
52754SOL    HW160159  11.277   4.381   9.267
52754SOL    HW260160  11.403   4.455   9.230
52755SOL     OW60161   8.057  12.048  12.798
52755SOL    HW160162   8.051  12.103  12.720
52755SOL    HW260163   8.128  12.085  12.850
52756SOL     OW60164  12.200   9.769   5.548
52756SOL    HW160165  12.138   9.761   5.621
52756SOL    HW260166  12.284   9.741   5.585
52757SOL     OW60167   5.677   2.382   2.270
52757SOL    HW160168   5.615   2.309   2.279
52757SOL    HW260169   5.698   2.383   2.177
52758SOL     OW60170   4.080  13.199   9.596
52758SOL    HW160171   4.069  13.282   9.551
52758SOL    HW260172   4.171  13.174   9.579
52759SOL     OW60173   9.968   5.183  12.157
52759SOL    HW160174  10.012   5.215  12.078
52759SOL    HW260175   9.879   5.219  12.150
52760SOL     OW60176  14.481   5.688   4.542
52760SOL    HW160177  14.398   5.674   4.497
52760SOL    HW260178  14.461   5.672   4.634
52761SOL     OW60179   1.664   4.591   0.088
52761SOL    HW160180   1.728   4.651   0.124
52761SOL    HW260181   1.691   4.578  14.884
52762SOL     OW60182  11.636   6.930   2.804
52762SOL    HW160183  11.628   6.908   2.711
52762SOL    HW260184  11.574   7.001   2.818
52763SOL     OW60185   3.880  14.215   1.447
52763SOL    HW160186   3.962  14.224   1.496
52763SOL    HW260187   3.817  14.267   1.497
52764SOL     OW60188  10.076  12.913  11.999
52764SOL    HW160189   9.994  12.963  11.997
52764SOL    HW260190  10.111  12.928  12.087
52765SOL     OW60191  10.019   9.269  11.171
52765SOL    HW160192   9.925   9.267  11.187
52765SOL    HW260193  10.057   9.232  11.251
52766SOL     OW60194   9.071   3.829  13.544
52766SOL    HW160195   9.054   3.862  13.632
52766SOL    HW260196   9.152   3.872  13.517
52767SOL     OW60197  14.363   3.116   4.129
52767SOL    HW160198  14.424   3.133   4.057
52767SOL    HW260199  14.416   3.124   4.208
52768SOL     OW60200   9.653   3.511   8.241
52768SOL    HW160201   9.625   3.542   8.155
52768SOL    HW260202   9.720   3.445   8.222
52769SOL     OW60203   1.356  13.021  10.185
52769SOL    HW160204   1.275  12.972  10.168
52769SOL    HW260205   1.330  13.113  10.180
52770SOL     OW60206  10.780   2.660   8.264
52770SOL    HW160207  10.818   2.596   8.204
52770SOL    HW260208  10.827   2.741   8.245
52771SOL     OW60209   7.947   2.945   6.402
52771SOL    HW160210   7.924   2.928   6.493
52771SOL    HW260211   7.866   2.924   6.354
52772SOL     OW60212  12.545  11.411  11.988
52772SOL    HW160213  12.544  11.505  11.973
52772SOL    HW260214  12.461  11.392  12.030
52773SOL     OW60215   5.248   6.567   4.514
52773SOL    HW160216   5.227   6.643   4.568
52773SOL    HW260217   5.339   6.546   4.534
52774SOL     OW60218  13.946   2.481  11.147
52774SOL    HW160219  13.860   2.440  11.141
52774SOL    HW260220  13.980   2.454  11.232
52775SOL     OW60221  11.360   3.621   5.516
52775SOL    HW160222  11.293   3.657   5.574
52775SOL    HW260223  11.414   3.696   5.492
52776SOL     OW60224  14.675   4.573   9.587
52776SOL    HW160225  14.668   4.498   9.646
52776SOL    HW260226  14.730   4.636   9.633
52777SOL     OW60227   3.815  14.202  13.229
52777SOL    HW160228   3.857  14.150  13.160
52777SOL    HW260229   3.791  14.284  13.186
52778SOL     OW60230   4.961   1.071  13.528
52778SOL    HW160231   4.928   1.146  13.479
52778SOL    HW260232   5.023   1.028  13.468
52779SOL     OW60233   4.186   6.721   9.628
52779SOL    HW160234   4.263   6.670   9.606
52779SOL    HW260235   4.121   6.656   9.655
52780SOL     OW60236  12.461   5.928   7.687
52780SOL    HW160237  12.433   5.883   7.607
52780SOL    HW260238  12.490   5.857   7.745
52781SOL     OW60239   2.022   2.913   6.294
52781SOL    HW160240   1.999   3.006   6.284
52781SOL    HW260241   2.007   2.895   6.387
52782SOL     OW60242  13.905   6.505   9.340
52782SOL    HW160243  13.984   6.457   9.313
52782SOL    HW260244  13.835   6.467   9.288
52783SOL     OW60245   1.498  14.390   4.981
52783SOL    HW160246   1.529  14.332   4.912
52783SOL    HW260247   1.415  14.351   5.009
52784SOL     OW60248   7.291   8.652  13.043
52784SOL    HW160249   7.265   8.630  12.954
52784SOL    HW260250   7.370   8.600  13.059
52785SOL     OW60251   6.838  11.008  14.242
52785SOL    HW160252   6.804  11.009  14.152
52785SOL    HW260253   6.813  11.093  14.278
52786SOL     OW60254  10.433  11.778   1.159
52786SOL    HW160255  10.415  11.707   1.220
52786SOL    HW260256  10.377  11.850   1.189
52787SOL     OW60257  13.901  12.697   9.774
52787SOL    HW160258  13.964  12.640   9.730
52787SOL    HW260259  13.953  12.747   9.837
52788SOL     OW60260   1.602   8.261  14.445
52788SOL    HW160261   1.693   8.261  14.414
52788SOL    HW260262   1.580   8.354  14.454
52789SOL     OW60263   8.761   5.722   9.762
52789SOL    HW160264   8.815   5.714   9.683
52789SOL    HW260265   8.730   5.632   9.778
52790SOL     OW60266   4.296  13.821  13.610
52790SOL    HW160267   4.347  13.827  13.529
52790SOL    HW260268   4.361  13.833  13.680
52791SOL     OW60269   1.201   7.222   5.846
52791SOL    HW160270   1.284   7.260   5.818
52791SOL    HW260271   1.164   7.184   5.766
52792SOL     OW60272   6.976   5.304   7.315
52792SOL    HW160273   6.978   5.399   7.329
52792SOL    HW260274   6.955   5.268   7.401
52793SOL     OW60275   9.756   3.679  12.129
52793SOL    HW160276   9.703   3.721  12.197
52793SOL    HW260277   9.734   3.586  12.136
52794SOL     OW60278  12.994   3.641   6.230
52794SOL    HW160279  13.027   3.559   6.268
52794SOL    HW260280  12.967   3.693   6.306
52795SOL     OW60281   7.335   2.099  13.107
52795SOL    HW160282   7.419   2.144  13.104
52795SOL    HW260283   7.298   2.109  13.020
52796SOL     OW60284  14.298  12.861  10.918
52796SOL    HW160285  14.206  12.882  10.938
52796SOL    HW260286  14.338  12.944  10.895
52797SOL     OW60287  13.184   2.026   8.215
52797SOL    HW160288  13.128   2.047   8.140
52797SOL    HW260289  13.213   2.111   8.248
52798SOL     OW60290   3.525   4.078   6.183
52798SOL    HW160291   3.557   4.161   6.149
52798SOL    HW260292   3.595   4.015   6.163
52799SOL     OW60293  10.594   5.083  10.137
52799SOL    HW160294  10.659   5.023  10.101
52799SOL    HW260295  10.638   5.125  10.211
52800SOL     OW60296   7.348  14.140  10.072
52800SOL    HW160297   7.367  14.070  10.134
52800SOL    HW260298   7.360  14.101   9.986
52801SOL     OW60299   5.589  12.924   8.159
52801SOL    HW160300   5.542  12.998   8.198
52801SOL    HW260301   5.521  12.858   8.145
52802SOL     OW60302   4.696  12.264   8.902
52802SOL    HW160303   4.788  12.291   8.893
52802SOL    HW260304   4.700  12.168   8.910
52803SOL     OW60305  13.124   5.282   3.480
52803SOL    HW160306  13.168   5.332   3.411
52803SOL    HW260307  13.189   5.218   3.509
52804SOL     OW60308  12.592  10.254  14.469
52804SOL    HW160309  12.669  10.273  14.522
52804SOL    HW260310  12.573  10.162  14.485
52805SOL     OW60311   8.210   1.318   7.383
52805SOL    HW160312   8.239   1.234   7.419
52805SOL    HW260313   8.123   1.301   7.348
52806SOL     OW60314   8.833   7.083  11.708
52806SOL    HW160315   8.852   7.121  11.622
52806SOL    HW260316   8.789   7.000  11.687
52807SOL     OW60317   1.004  11.536   5.169
52807SOL    HW160318   1.067  11.496   5.109
52807SOL    HW260319   0.929  11.559   5.113
52808SOL     OW60320  11.340  14.868   4.568
52808SOL    HW160321  11.290   0.055   4.600
52808SOL    HW260322  11.422   0.018   4.537
52809SOL     OW60323   7.886   1.726   3.429
52809SOL    HW160324   7.811   1.735   3.370
52809SOL    HW260325   7.894   1.632   3.444
52810SOL     OW60326   6.497   0.076  10.942
52810SOL    HW160327   6.561   0.015  10.906
52810SOL    HW260328   6.513   0.159  10.897
52811SOL     OW60329   4.349   8.293   3.584
52811SOL    HW160330   4.438   8.269   3.611
52811SOL    HW260331   4.336   8.381   3.621
52812SOL     OW60332   8.597   0.141   4.334
52812SOL    HW160333   8.541   0.170   4.406
52812SOL    HW260334   8.686   0.152   4.368
52813SOL     OW60335   4.175   1.956   3.372
52813SOL    HW160336   4.250   2.016   3.375
52813SOL    HW260337   4.202   1.881   3.424
52814SOL     OW60338   8.569   7.726   1.232
52814SOL    HW160339   8.538   7.719   1.142
52814SOL    HW260340   8.489   7.718   1.285
52815SOL     OW60341   0.043   3.259   6.816
52815SOL    HW160342  14.861   3.217   6.766
52815SOL    HW260343   0.086   3.187   6.863
52816SOL     OW60344   3.036   5.404   2.711
52816SOL    HW160345   3.094   5.389   2.786
52816SOL    HW260346   3.047   5.327   2.656
52817SOL     OW60347  11.659  14.304   6.841
52817SOL    HW160348  11.719  14.369   6.804
52817SOL    HW260349  11.651  14.238   6.772
52818SOL     OW60350   7.596   9.393   3.195
52818SOL    HW160351   7.672   9.337   3.180
52818SOL    HW260352   7.553   9.356   3.273
52819SOL     OW60353   5.842   2.455   4.060
52819SOL    HW160354   5.779   2.517   4.097
52819SOL    HW260355   5.925   2.501   4.061
52820SOL     OW60356   0.499  13.337   2.846
52820SOL    HW160357   0.498  13.286   2.927
52820SOL    HW260358   0.552  13.414   2.867
52821SOL     OW60359   6.724   1.277  11.562
52821SOL    HW160360   6.651   1.337  11.545
52821SOL    HW260361   6.719   1.258  11.655
52822SOL     OW60362  12.809   8.287   8.644
52822SOL    HW160363  12.726   8.270   8.688
52822SOL    HW260364  12.822   8.210   8.588
52823SOL     OW60365   4.530  12.624  10.509
52823SOL    HW160366   4.476  12.671  10.445
52823SOL    HW260367   4.517  12.671  10.591
52824SOL     OW60368   0.353  14.186  10.747
52824SOL    HW160369   0.281  14.235  10.707
52824SOL    HW260370   0.316  14.154  10.830
52825SOL     OW60371   8.840   3.729   1.662
52825SOL    HW160372   8.852   3.634   1.657
52825SOL    HW260373   8.907   3.765   1.604
52826SOL     OW60374  10.612  14.326   8.674
52826SOL    HW160375  10.601  14.235   8.645
52826SOL    HW260376  10.672  14.364   8.610
52827SOL     OW60377  13.899   7.416  12.144
52827SOL    HW160378  13.821   7.378  12.102
52827SOL    HW260379  13.952   7.340  12.168
52828SOL     OW60380   1.772  13.850   0.517
52828SOL    HW160381   1.754  13.756   0.513
52828SOL    HW260382   1.795  13.874   0.428
52829SOL     OW60383  13.818   0.970   0.755
52829SOL    HW160384  13.844   1.055   0.720
52829SOL    HW260385  13.900   0.925   0.772
52830SOL     OW60386   1.943   2.659   5.559
52830SOL    HW160387   2.023   2.707   5.579
52830SOL    HW260388   1.974   2.576   5.523
52831SOL     OW60389   5.154  10.437   9.078
52831SOL    HW160390   5.239  10.401   9.055
52831SOL    HW260391   5.137  10.504   9.012
52832SOL     OW60392   2.430   9.074   9.657
52832SOL    HW160393   2.425   8.992   9.607
52832SOL    HW260394   2.340   9.090   9.685
52833SOL     OW60395  14.567   3.599  12.670
52833SOL    HW160396  14.481   3.569  12.638
52833SOL    HW260397  14.577   3.686  12.632
52834SOL     OW60398  13.519  13.230   5.731
52834SOL    HW160399  13.579  13.271   5.668
52834SOL    HW260400  13.466  13.302   5.764
52835SOL     OW60401   4.806  10.278   1.085
52835SOL    HW160402   4.749  10.337   1.036
52835SOL    HW260403   4.751  10.243   1.155
52836SOL     OW60404   0.896  10.861   0.735
52836SOL    HW160405   0.982  10.882   0.772
52836SOL    HW260406   0.854  10.806   0.801
52837SOL     OW60407   1.312   5.431   8.161
52837SOL    HW160408   1.293   5.341   8.189
52837SOL    HW260409   1.311   5.482   8.242
52838SOL     OW60410   5.605  14.680   7.770
52838SOL    HW160411   5.600  14.605   7.710
52838SOL    HW260412   5.520  14.724   7.759
52839SOL     OW60413   4.329   4.007   0.874
52839SOL    HW160414   4.372   4.061   0.807
52839SOL    HW260415   4.291   3.934   0.826
52840SOL     OW60416  13.979   4.239   5.756
52840SOL    HW160417  14.070   4.221   5.732
52840SOL    HW260418  13.972   4.207   5.846
52841SOL     OW60419   8.338  11.587  12.191
52841SOL    HW160420   8.266  11.607  12.131
52841SOL    HW260421   8.332  11.493  12.207
52842SOL     OW60422   1.359   1.628  10.422
52842SOL    HW160423   1.425   1.626  10.353
52842SOL    HW260424   1.301   1.554  10.403
52843SOL     OW60425  13.069  11.539  12.984
52843SOL    HW160426  12.996  11.563  13.042
52843SOL    HW260427  13.069  11.443  12.985
52844SOL     OW60428  14.762   6.228  11.891
52844SOL    HW160429  14.683   6.180  11.917
52844SOL    HW260430  14.783   6.283  11.966
52845SOL     OW60431   9.896   6.713  10.958
52845SOL    HW160432   9.804   6.737  10.946
52845SOL    HW260433   9.945   6.776  10.905
52846SOL     OW60434  11.582   8.667  11.328
52846SOL    HW160435  11.550   8.605  11.393
52846SOL    HW260436  11.587   8.617  11.247
52847SOL     OW60437  10.198   1.743   4.762
52847SOL    HW160438  10.235   1.665   4.720
52847SOL    HW260439  10.260   1.813   4.743
52848SOL     OW60440   1.389  12.248   5.942
52848SOL    HW160441   1.394  12.298   6.024
52848SOL    HW260442   1.332  12.174   5.962
52849SOL     OW60443  10.947  12.931  10.319
52849SOL    HW160444  11.016  12.899  10.261
52849SOL    HW260445  10.990  12.998  10.373
52850SOL     OW60446  11.774  10.121   2.486
52850SOL    HW160447  11.771  10.152   2.577
52850SOL    HW260448  11.845  10.173   2.447
52851SOL     OW60449   6.550   3.084  12.124
52851SOL    HW160450   6.635   3.069  12.083
52851SOL    HW260451   6.488   3.086  12.051
52852SOL     OW60452   6.591  12.005   6.261
52852SOL    HW160453   6.669  12.044   6.300
52852SOL    HW260454   6.544  12.079   6.221
52853SOL     OW60455  12.739  14.676   5.696
52853SOL    HW160456  12.797  14.680   5.620
52853SOL    HW260457  12.712  14.767   5.710
52854SOL     OW60458   2.117  10.216  11.639
52854SOL    HW160459   2.055  10.276  11.598
52854SOL    HW260460   2.177  10.192  11.568
52855SOL     OW60461   8.730   4.617  13.169
52855SOL    HW160462   8.780   4.535  13.174
52855SOL    HW260463   8.655   4.603  13.227
52856SOL     OW60464   2.955   8.316   8.647
52856SOL    HW160465   2.984   8.326   8.556
52856SOL    HW260466   2.924   8.226   8.652
52857SOL     OW60467  11.966  12.519  10.590
52857SOL    HW160468  11.878  12.483  10.578
52857SOL    HW260469  11.960  12.608  10.557
52858SOL     OW60470   9.657  14.664  14.464
52858SOL    HW160471   9.597  14.730  14.499
52858SOL    HW260472   9.722  14.651  14.532
52859SOL     OW60473  10.846   9.020   4.174
52859SOL    HW160474  10.837   9.029   4.079
52859SOL    HW260475  10.931   9.059   4.193
52860SOL     OW60476   0.500   7.334   2.423
52860SOL    HW160477   0.587   7.370   2.440
52860SOL    HW260478   0.441   7.408   2.436
52861SOL     OW60479   3.513  14.859   9.073
52861SOL    HW160480   3.545  14.814   8.994
52861SOL    HW260481   3.503  14.790   9.138
52862SOL     OW60482  10.214   2.190  11.004
52862SOL    HW160483  10.145   2.256  11.009
52862SOL    HW260484  10.260   2.196  11.088
52863SOL     OW60485   0.606   6.453  11.239
52863SOL    HW160486   0.628   6.392  11.169
52863SOL    HW260487   0.687   6.503  11.254
52864SOL     OW60488   5.714  10.935  14.471
52864SOL    HW160489   5.805  10.963  14.470
52864SOL    HW260490   5.671  10.990  14.405
52865SOL     OW60491   8.904  13.597  14.241
52865SOL    HW160492   8.934  13.537  14.173
52865SOL    HW260493   8.969  13.667  14.241
52866SOL     OW60494   1.305  12.598   3.663
52866SOL    HW160495   1.287  12.689   3.688
52866SOL    HW260496   1.399  12.588   3.676
52867SOL     OW60497   5.972   4.305  12.995
52867SOL    HW160498   6.058   4.316  12.953
52867SOL    HW260499   5.909   4.322  12.926
52868SOL     OW60500   5.469   0.337   8.220
52868SOL    HW160501   5.432   0.262   8.172
52868SOL    HW260502   5.485   0.303   8.308
52869SOL     OW60503   0.888  11.628   3.873
52869SOL    HW160504   0.922  11.626   3.962
52869SOL    HW260505   0.934  11.556   3.829
52870SOL     OW60506  12.972   8.019  10.467
52870SOL    HW160507  12.980   7.975  10.551
52870SOL    HW260508  13.054   7.999  10.422
52871SOL     OW60509   1.696  11.544  12.867
52871SOL    HW160510   1.698  11.531  12.773
52871SOL    HW260511   1.610  11.581  12.885
52872SOL     OW60512   9.594  13.995  11.860
52872SOL    HW160513   9.526  13.985  11.794
52872SOL    HW260514   9.562  14.066  11.917
52873SOL     OW60515   0.269   4.393   1.199
52873SOL    HW160516   0.340   4.440   1.156
52873SOL    HW260517   0.190   4.444   1.179
52874SOL     OW60518   0.752   9.986  14.376
52874SOL    HW160519   0.675   9.984  14.320
52874SOL    HW260520   0.719  10.011  14.462
52875SOL     OW60521  14.413   1.991  14.467
52875SOL    HW160522  14.484   1.959  14.523
52875SOL    HW260523  14.450   1.988  14.378
52876SOL     OW60524   2.002   7.358   9.335
52876SOL    HW160525   1.922   7.402   9.308
52876SOL    HW260526   2.063   7.429   9.357
52877SOL     OW60527   2.240   5.821  13.013
52877SOL    HW160528   2.306   5.753  13.023
52877SOL    HW260529   2.259   5.883  13.084
52878SOL     OW60530   3.152   7.353  12.780
52878SOL    HW160531   3.057   7.354  12.771
52878SOL    HW260532   3.179   7.443  12.760
52879SOL     OW60533   0.457   1.008   0.340
52879SOL    HW160534   0.416   0.938   0.391
52879SOL    HW260535   0.385   1.047   0.291
52880SOL     OW60536   0.740  14.394   2.539
52880SOL    HW160537   0.671  14.355   2.487
52880SOL    HW260538   0.808  14.418   2.476
52881SOL     OW60539   1.082   6.673  12.847
52881SOL    HW160540   1.049   6.735  12.782
52881SOL    HW260541   1.070   6.718  12.931
52882SOL     OW60542  10.838  13.106   0.858
52882SOL    HW160543  10.836  13.010   0.849
52882SOL    HW260544  10.767  13.136   0.800
52883SOL     OW60545   1.761   9.518   4.344
52883SOL    HW160546   1.835   9.492   4.288
52883SOL    HW260547   1.707   9.573   4.288
52884SOL     OW60548   8.190   2.165   8.227
52884SOL    HW160549   8.181   2.257   8.203
52884SOL    HW260550   8.101   2.137   8.251
52885SOL     OW60551   7.424  11.767   6.557
52885SOL    HW160552   7.337  11.802   6.573
52885SOL    HW260553   7.412  11.701   6.489
52886SOL     OW60554  10.941   4.523   0.159
52886SOL    HW160555  10.999   4.447   0.170
52886SOL    HW260556  11.001   4.596   0.144
52887SOL     OW60557  10.758   9.325  11.035
52887SOL    HW160558  10.736   9.409  10.996
52887SOL    HW260559  10.766   9.343  11.129
52888SOL     OW60560  14.561   5.434   0.430
52888SOL    HW160561  14.593   5.404   0.515
52888SOL    HW260562  14.617   5.508   0.407
52889SOL     OW60563   0.891   4.658   5.860
52889SOL    HW160564   0.833   4.586   5.886
52889SOL    HW260565   0.940   4.680   5.940
52890SOL     OW60566  14.722  12.733   8.465
52890SOL    HW160567  14.646  12.701   8.417
52890SOL    HW260568  14.720  12.685   8.548
52891SOL     OW60569  13.570   0.594   2.068
52891SOL    HW160570  13.645   0.589   2.128
52891SOL    HW260571  13.508   0.529   2.102
52892SOL     OW60572   7.914   5.393   1.587
52892SOL    HW160573   7.950   5.355   1.667
52892SOL    HW260574   7.830   5.349   1.575
52893SOL     OW60575   9.359   7.150   8.885
52893SOL    HW160576   9.291   7.207   8.848
52893SOL    HW260577   9.310   7.074   8.917
52894SOL     OW60578   2.968   8.998  11.036
52894SOL    HW160579   2.907   8.949  11.091
52894SOL    HW260580   2.914   9.039  10.969
52895SOL     OW60581   7.820   5.994   9.355
52895SOL    HW160582   7.737   5.981   9.401
52895SOL    HW260583   7.881   5.935   9.399
52896SOL     OW60584   4.868   7.971   7.184
52896SOL    HW160585   4.914   8.050   7.215
52896SOL    HW260586   4.775   7.995   7.187
52897SOL     OW60587  13.757   1.246   2.639
52897SOL    HW160588  13.691   1.197   2.590
52897SOL    HW260589  13.783   1.188   2.710
52898SOL     OW60590   1.274   9.774   2.514
52898SOL    HW160591   1.297   9.855   2.558
52898SOL    HW260592   1.235   9.802   2.431
52899SOL     OW60593   9.038   4.959   1.296
52899SOL    HW160594   8.992   5.039   1.273
52899SOL    HW260595   8.975   4.910   1.350
52900SOL     OW60596  12.232   9.354   3.484
52900SOL    HW160597  12.158   9.295   3.471
52900SOL    HW260598  12.310   9.299   3.473
52901SOL     OW60599   1.810  11.895   5.973
52901SOL    HW160600   1.723  11.858   5.988
52901SOL    HW260601   1.826  11.884   5.880
52902SOL     OW60602  13.455   5.610  12.188
52902SOL    HW160603  13.490   5.633  12.274
52902SOL    HW260604  13.432   5.517  12.195
52903SOL     OW60605   5.062   3.647   1.169
52903SOL    HW160606   5.067   3.630   1.263
52903SOL    HW260607   4.978   3.610   1.142
52904SOL     OW60608   9.373   3.600   9.985
52904SOL    HW160609   9.320   3.679   9.993
52904SOL    HW260610   9.463   3.631   9.997
52905SOL     OW60611   7.289  11.173   7.082
52905SOL    HW160612   7.296  11.078   7.075
52905SOL    HW260613   7.349  11.197   7.153
52906SOL     OW60614  13.917  13.371  10.012
52906SOL    HW160615  13.883  13.442   9.957
52906SOL    HW260616  13.843  13.312  10.024
52907SOL     OW60617   3.802  10.905   9.864
52907SOL    HW160618   3.880  10.931   9.815
52907SOL    HW260619   3.730  10.947   9.818
52908SOL     OW60620  13.167  12.005   3.662
52908SOL    HW160621  13.082  12.008   3.618
52908SOL    HW260622  13.199  12.095   3.658
52909SOL     OW60623  10.823   5.321   3.931
52909SOL    HW160624  10.769   5.400   3.931
52909SOL    HW260625  10.905   5.348   3.971
52910SOL     OW60626   7.263   1.745  13.895
52910SOL    HW160627   7.189   1.684  13.900
52910SOL    HW260628   7.310   1.732  13.977
52911SOL     OW60629  10.147   6.874  14.184
52911SOL    HW160630  10.116   6.939  14.246
52911SOL    HW260631  10.068   6.829  14.155
52912SOL     OW60632   4.095  10.010   7.903
52912SOL    HW160633   4.048  10.047   7.978
52912SOL    HW260634   4.162  10.075   7.882
52913SOL     OW60635   3.931  10.694   3.829
52913SOL    HW160636   3.952  10.775   3.876
52913SOL    HW260637   3.839  10.677   3.850
52914SOL     OW60638   0.471  14.821   6.253
52914SOL    HW160639   0.462  14.727   6.268
52914SOL    HW260640   0.562  14.840   6.274
52915SOL     OW60641  12.352   9.942  10.482
52915SOL    HW160642  12.384  10.006  10.418
52915SOL    HW260643  12.425   9.882  10.494
52916SOL     OW60644   6.784  12.718   4.734
52916SOL    HW160645   6.841  12.787   4.770
52916SOL    HW260646   6.793  12.646   4.796
52917SOL     OW60647   0.261  14.835  10.468
52917SOL    HW160648   0.216  14.779  10.404
52917SOL    HW260649   0.308  14.773  10.524
52918SOL     OW60650  14.147   0.825  13.021
52918SOL    HW160651  14.062   0.819  12.977
52918SOL    HW260652  14.198   0.883  12.964
52919SOL     OW60653  14.860  14.340  10.289
52919SOL    HW160654  14.832  14.393  10.364
52919SOL    HW260655  14.828  14.252  10.309
52920SOL     OW60656   5.283   7.595   2.131
52920SOL    HW160657   5.336   7.675   2.137
52920SOL    HW260658   5.255   7.578   2.221
52921SOL     OW60659   7.793  12.208   2.852
52921SOL    HW160660   7.886  12.188   2.859
52921SOL    HW260661   7.762  12.154   2.779
52922SOL     OW60662  10.095  11.857   1.070
52922SOL    HW160663  10.096  11.846   0.975
52922SOL    HW260664  10.060  11.775   1.103
52923SOL     OW60665   5.292   5.533   4.615
52923SOL    HW160666   5.355   5.475   4.571
52923SOL    HW260667   5.337   5.562   4.694
52924SOL     OW60668   8.192   1.044   9.294
52924SOL    HW160669   8.259   0.976   9.280
52924SOL    HW260670   8.114   1.009   9.252
52925SOL     OW60671   4.991  10.358  12.122
52925SOL    HW160672   5.009  10.404  12.204
52925SOL    HW260673   5.010  10.266  12.142
52926SOL     OW60674   0.638  13.900   6.555
52926SOL    HW160675   0.646  13.923   6.648
52926SOL    HW260676   0.702  13.830   6.542
52927SOL     OW60677   8.649   5.688   2.296
52927SOL    HW160678   8.656   5.669   2.390
52927SOL    HW260679   8.689   5.612   2.253
52928SOL     OW60680   1.763   0.334   9.207
52928SOL    HW160681   1.805   0.321   9.292
52928SOL    HW260682   1.834   0.324   9.143
52929SOL     OW60683  12.596   3.045   4.184
52929SOL    HW160684  12.530   2.980   4.208
52929SOL    HW260685  12.558   3.092   4.110
52930SOL     OW60686  12.249   6.686  11.051
52930SOL    HW160687  12.309   6.639  11.109
52930SOL    HW260688  12.296   6.766  11.027
52931SOL     OW60689  11.420   7.968   7.127
52931SOL    HW160690  11.359   8.033   7.093
52931SOL    HW260691  11.365   7.892   7.147
52932SOL     OW60692   0.962  13.669  10.058
52932SOL    HW160693   1.026  13.628   9.999
52932SOL    HW260694   0.999  13.755  10.077
52933SOL     OW60695   0.774  12.068  14.413
52933SOL    HW160696   0.866  12.096  14.422
52933SOL    HW260697   0.746  12.104  14.328
52934SOL     OW60698   2.076   3.730   5.566
52934SOL    HW160699   2.127   3.810   5.561
52934SOL    HW260700   2.004   3.750   5.626
52935SOL     OW60701   6.090   8.165   2.329
52935SOL    HW160702   6.115   8.208   2.247
52935SOL    HW260703   6.124   8.223   2.398
52936SOL     OW60704  10.734   4.033   5.585
52936SOL    HW160705  10.642   4.037   5.559
52936SOL    HW260706  10.782   4.039   5.502
52937SOL     OW60707   8.576   1.464   6.217
52937SOL    HW160708   8.634   1.484   6.143
52937SOL    HW260709   8.532   1.547   6.236
52938SOL     OW60710   7.654   0.251  10.360
52938SOL    HW160711   7.575   0.213  10.397
52938SOL    HW260712   7.685   0.312  10.426
52939SOL     OW60713  10.882  11.640  14.177
52939SOL    HW160714  10.977  11.636  14.182
52939SOL    HW260715  10.851  11.585  14.249
52940SOL     OW60716   4.703   4.292   5.679
52940SOL    HW160717   4.728   4.308   5.770
52940SOL    HW260718   4.710   4.197   5.668
52941SOL     OW60719  12.028   9.105   9.011
52941SOL    HW160720  12.052   9.013   9.005
52941SOL    HW260721  12.001   9.129   8.922
52942SOL     OW60722  11.359   8.700  14.297
52942SOL    HW160723  11.367   8.782  14.345
52942SOL    HW260724  11.435   8.699  14.239
52943SOL     OW60725   3.400  12.748   1.183
52943SOL    HW160726   3.460  12.818   1.209
52943SOL    HW260727   3.360  12.719   1.265
52944SOL     OW60728   7.124  12.783  10.810
52944SOL    HW160729   7.042  12.744  10.838
52944SOL    HW260730   7.108  12.808  10.719
52945SOL     OW60731   9.790   3.937   0.718
52945SOL    HW160732   9.766   3.856   0.763
52945SOL    HW260733   9.767   4.007   0.780
52946SOL     OW60734   7.290   6.322  12.266
52946SOL    HW160735   7.335   6.242  12.238
52946SOL    HW260736   7.259   6.302  12.355
52947SOL     OW60737   8.932  14.151   3.538
52947SOL    HW160738   8.905  14.114   3.453
52947SOL    HW260739   8.941  14.075   3.595
52948SOL     OW60740   8.085   7.099   6.265
52948SOL    HW160741   7.998   7.094   6.223
52948SOL    HW260742   8.098   7.192   6.283
52949SOL     OW60743  13.636   8.736   1.809
52949SOL    HW160744  13.555   8.690   1.787
52949SOL    HW260745  13.667   8.771   1.725
52950SOL     OW60746   7.163   1.499   6.497
52950SOL    HW160747   7.189   1.587   6.467
52950SOL    HW260748   7.098   1.471   6.433
52951SOL     OW60749  13.877  14.183   9.061
52951SOL    HW160750  13.860  14.124   9.134
52951SOL    HW260751  13.877  14.125   8.984
52952SOL     OW60752   8.713   0.088  13.258
52952SOL    HW160753   8.679   0.163  13.208
52952SOL    HW260754   8.660   0.014  13.228
52953SOL     OW60755   7.267  14.224   3.964
52953SOL    HW160756   7.286  14.178   3.882
52953SOL    HW260757   7.172  14.238   3.962
52954SOL     OW60758   5.399   1.237   9.269
52954SOL    HW160759   5.374   1.159   9.318
52954SOL    HW260760   5.482   1.264   9.309
52955SOL     OW60761   3.522   8.859   0.952
52955SOL    HW160762   3.484   8.795   0.892
52955SOL    HW260763   3.459   8.866   1.024
52956SOL     OW60764   5.085  10.152   4.841
52956SOL    HW160765   5.144  10.134   4.767
52956SOL    HW260766   4.999  10.126   4.810
52957SOL     OW60767   6.531  13.028   6.603
52957SOL    HW160768   6.610  13.000   6.556
52957SOL    HW260769   6.463  13.027   6.536
52958SOL     OW60770   1.155  11.103  10.875
52958SOL    HW160771   1.224  11.062  10.823
52958SOL    HW260772   1.083  11.116  10.814
52959SOL     OW60773   6.293  12.014   2.676
52959SOL    HW160774   6.316  11.986   2.587
52959SOL    HW260775   6.205  11.979   2.690
52960SOL     OW60776   7.756  11.114  10.899
52960SOL    HW160777   7.711  11.119  10.814
52960SOL    HW260778   7.849  11.116  10.877
52961SOL     OW60779  14.800   6.974   6.690
52961SOL    HW160780  14.713   6.948   6.722
52961SOL    HW260781  14.849   6.892   6.686
52962SOL     OW60782  11.748   8.231   7.116
52962SOL    HW160783  11.701   8.311   7.096
52962SOL    HW260784  11.827   8.236   7.062
52963SOL     OW60785   0.831  12.297   8.771
52963SOL    HW160786   0.749  12.320   8.728
52963SOL    HW260787   0.899  12.333   8.714
52964SOL     OW60788  14.422   0.772   8.159
52964SOL    HW160789  14.505   0.779   8.111
52964SOL    HW260790  14.442   0.810   8.245
52965SOL     OW60791   1.379   4.007   0.260
52965SOL    HW160792   1.472   4.018   0.243
52965SOL    HW260793   1.364   4.054   0.342
52966SOL     OW60794  10.219   6.523   4.906
52966SOL    HW160795  10.157   6.461   4.868
52966SOL    HW260796  10.167   6.601   4.925
52967SOL     OW60797   4.193  13.507   8.416
52967SOL    HW160798   4.146  13.513   8.333
52967SOL    HW260799   4.184  13.594   8.454
52968SOL     OW60800  11.855   7.873  13.426
52968SOL    HW160801  11.912   7.809  13.468
52968SOL    HW260802  11.838   7.939  13.493
52969SOL     OW60803   1.478   2.263  13.452
52969SOL    HW160804   1.445   2.199  13.515
52969SOL    HW260805   1.464   2.223  13.367
52970SOL     OW60806   3.216   0.621  14.379
52970SOL    HW160807   3.185   0.708  14.403
52970SOL    HW260808   3.274   0.595  14.451
52971SOL     OW60809   4.673  14.139  14.541
52971SOL    HW160810   4.751  14.105  14.586
52971SOL    HW260811   4.609  14.152  14.611
52972SOL     OW60812  14.450   5.813   7.299
52972SOL    HW160813  14.393   5.736   7.301
52972SOL    HW260814  14.526   5.786   7.248
52973SOL     OW60815   0.702  10.000  11.572
52973SOL    HW160816   0.724  10.078  11.624
52973SOL    HW260817   0.643  10.032  11.505
52974SOL     OW60818  14.284   1.275  11.240
52974SOL    HW160819  14.212   1.322  11.197
52974SOL    HW260820  14.348   1.343  11.262
52975SOL     OW60821  12.232   5.471   9.351
52975SOL    HW160822  12.310   5.523   9.371
52975SOL    HW260823  12.265   5.384   9.329
52976SOL     OW60824   5.998   1.007  11.357
52976SOL    HW160825   5.936   0.981  11.288
52976SOL    HW260826   6.084   0.989  11.320
52977SOL     OW60827   1.976   0.881  12.046
52977SOL    HW160828   2.053   0.915  12.001
52977SOL    HW260829   1.953   0.803  11.996
52978SOL     OW60830  13.892   7.451  12.733
52978SOL    HW160831  13.946   7.377  12.708
52978SOL    HW260832  13.813   7.443  12.679
52979SOL     OW60833  11.235   2.777  13.749
52979SOL    HW160834  11.279   2.862  13.751
52979SOL    HW260835  11.220   2.759  13.656
52980SOL     OW60836   8.354   6.345   6.190
52980SOL    HW160837   8.347   6.432   6.231
52980SOL    HW260838   8.291   6.291   6.238
52981SOL     OW60839   6.892   0.778   5.537
52981SOL    HW160840   6.806   0.739   5.549
52981SOL    HW260841   6.902   0.783   5.441
52982SOL     OW60842   3.234   0.780   8.579
52982SOL    HW160843   3.321   0.763   8.541
52982SOL    HW260844   3.176   0.786   8.504
52983SOL     OW60845  12.632   5.961   7.293
52983SOL    HW160846  12.568   5.968   7.223
52983SOL    HW260847  12.714   5.991   7.254
52984SOL     OW60848   6.258   5.590  11.240
52984SOL    HW160849   6.226   5.585  11.330
52984SOL    HW260850   6.352   5.579  11.247
52985SOL     OW60851   8.456   0.794   5.616
52985SOL    HW160852   8.481   0.878   5.656
52985SOL    HW260853   8.526   0.734   5.640
52986SOL     OW60854   7.334   1.478   8.561
52986SOL    HW160855   7.396   1.524   8.505
52986SOL    HW260856   7.368   1.490   8.650
52987SOL     OW60857  11.131   6.678  12.212
52987SOL    HW160858  11.172   6.764  12.203
52987SOL    HW260859  11.197   6.624  12.256
52988SOL     OW60860   4.200  11.345   8.669
52988SOL    HW160861   4.194  11.356   8.764
52988SOL    HW260862   4.190  11.434   8.634
52989SOL     OW60863   2.442  10.966  13.399
52989SOL    HW160864   2.526  10.921  13.404
52989SOL    HW260865   2.411  10.950  13.310
52990SOL     OW60866  12.599  14.007  12.298
52990SOL    HW160867  12.637  14.006  12.210
52990SOL    HW260868  12.647  13.939  12.345
52991SOL     OW60869   6.322   5.666   9.936
52991SOL    HW160870   6.392   5.705   9.987
52991SOL    HW260871   6.334   5.700   9.847
52992SOL     OW60872   3.443  13.020   3.949
52992SOL    HW160873   3.474  13.101   3.989
52992SOL    HW260874   3.522  12.971   3.930
52993SOL     OW60875   6.347   9.867   3.199
52993SOL    HW160876   6.434   9.906   3.198
52993SOL    HW260877   6.300   9.912   3.129
52994SOL     OW60878   2.402   5.198   6.879
52994SOL    HW160879   2.466   5.129   6.894
52994SOL    HW260880   2.342   5.192   6.954
52995SOL     OW60881   7.476  12.913   0.834
52995SOL    HW160882   7.414  12.859   0.787
52995SOL    HW260883   7.458  13.002   0.804
52996SOL     OW60884   0.255  12.420   5.712
52996SOL    HW160885   0.349  12.405   5.704
52996SOL    HW260886   0.242  12.508   5.677
52997SOL     OW60887   2.780   4.858   1.776
52997SOL    HW160888   2.739   4.858   1.863
52997SOL    HW260889   2.707   4.860   1.715
52998SOL     OW60890   2.845   3.897   6.476
52998SOL    HW160891   2.798   3.973   6.510
52998SOL    HW260892   2.800   3.876   6.394
52999SOL     OW60893   7.229   8.449   0.061
52999SOL    HW160894   7.266   8.490  14.870
52999SOL    HW260895   7.199   8.363   0.030
53000SOL     OW60896   2.685   9.831   5.364
53000SOL    HW160897   2.663   9.902   5.304
53000SOL    HW260898   2.605   9.819   5.417
53001SOL     OW60899   2.903   9.412  11.994
53001SOL    HW160900   2.880   9.451  11.910
53001SOL    HW260901   2.966   9.343  11.972
53002SOL     OW60902   1.982   4.492  13.596
53002SOL    HW160903   1.965   4.480  13.689
53002SOL    HW260904   2.051   4.429  13.576
53003SOL     OW60905  11.482   8.487   3.926
53003SOL    HW160906  11.516   8.576   3.926
53003SOL    HW260907  11.393   8.495   3.961
53004SOL     OW60908   8.363   0.905  10.940
53004SOL    HW160909   8.284   0.937  10.895
53004SOL    HW260910   8.411   0.857  10.873
53005SOL     OW60911  12.827  10.864   3.328
53005SOL    HW160912  12.778  10.806   3.270
53005SOL    HW260913  12.865  10.929   3.270
53006SOL     OW60914   3.165  10.964  10.348
53006SOL    HW160915   3.189  11.034  10.409
53006SOL    HW260916   3.161  11.007  10.262
53007SOL     OW60917   8.484   2.556   7.754
53007SOL    HW160918   8.549   2.503   7.708
53007SOL    HW260919   8.460   2.505   7.831
53008SOL     OW60920   3.182  14.611  10.159
53008SOL    HW160921   3.111  14.638  10.216
53008SOL    HW260922   3.253  14.673  10.178
53009SOL     OW60923   2.760   5.111  11.163
53009SOL    HW160924   2.731   5.075  11.247
53009SOL    HW260925   2.831   5.170  11.185
53010SOL     OW60926  12.474   7.011   8.158
53010SOL    HW160927  12.434   6.938   8.111
53010SOL    HW260928  12.524   7.058   8.091
53011SOL     OW60929   2.497  10.812   9.599
53011SOL    HW160930   2.451  10.818   9.683
53011SOL    HW260931   2.451  10.873   9.542
53012SOL     OW60932   0.427   0.300   9.646
53012SOL    HW160933   0.423   0.294   9.550
53012SOL    HW260934   0.436   0.210   9.676
53013SOL     OW60935   3.143   4.112   4.024
53013SOL    HW160936   3.090   4.104   3.945
53013SOL    HW260937   3.221   4.060   4.006
53014SOL     OW60938  11.119   6.891  12.888
53014SOL    HW160939  11.070   6.810  12.880
53014SOL    HW260940  11.065   6.947  12.944
53015SOL     OW60941   4.256  13.244  14.484
53015SOL    HW160942   4.187  13.294  14.441
53015SOL    HW260943   4.213  13.202  14.559
53016SOL     OW60944  11.746   1.022   2.780
53016SOL    HW160945  11.690   1.068   2.843
53016SOL    HW260946  11.818   0.987   2.833
53017SOL     OW60947   9.916  11.511   2.373
53017SOL    HW160948   9.838  11.525   2.427
53017SOL    HW260949   9.989  11.532   2.432
53018SOL     OW60950  11.606   4.402   2.013
53018SOL    HW160951  11.634   4.468   1.950
53018SOL    HW260952  11.665   4.328   1.999
53019SOL     OW60953   9.497  12.531  14.612
53019SOL    HW160954   9.517  12.510  14.703
53019SOL    HW260955   9.447  12.612  14.617
53020SOL     OW60956   6.762   4.455   1.678
53020SOL    HW160957   6.732   4.498   1.758
53020SOL    HW260958   6.682   4.440   1.627
53021SOL     OW60959   2.956   4.489  11.221
53021SOL    HW160960   2.949   4.513  11.129
53021SOL    HW260961   3.006   4.560  11.262
53022SOL     OW60962   9.078  10.507  12.835
53022SOL    HW160963   9.044  10.590  12.868
53022SOL    HW260964   9.033  10.441  12.888
53023SOL     OW60965   3.113  10.859   3.605
53023SOL    HW160966   3.053  10.790   3.632
53023SOL    HW260967   3.196  10.837   3.648
53024SOL     OW60968   7.712   3.611  14.103
53024SOL    HW160969   7.725   3.704  14.122
53024SOL    HW260970   7.800   3.573  14.111
53025SOL     OW60971  11.190   0.033   1.769
53025SOL    HW160972  11.265   0.007   1.823
53025SOL    HW260973  11.228   0.091   1.702
53026SOL     OW60974   1.866   5.137   4.835
53026SOL    HW160975   1.896   5.085   4.760
53026SOL    HW260976   1.776   5.107   4.850
53027SOL     OW60977   4.119  14.125   4.535
53027SOL    HW160978   4.098  14.205   4.487
53027SOL    HW260979   4.040  14.106   4.586
53028SOL     OW60980   6.291   7.694   3.294
53028SOL    HW160981   6.277   7.740   3.212
53028SOL    HW260982   6.356   7.627   3.273
53029SOL     OW60983   6.448  11.158   9.008
53029SOL    HW160984   6.488  11.216   9.073
53029SOL    HW260985   6.394  11.216   8.954
53030SOL     OW60986   1.251   1.997   3.421
53030SOL    HW160987   1.211   1.914   3.445
53030SOL    HW260988   1.308   2.018   3.495
53031SOL     OW60989   2.524   3.749  13.192
53031SOL    HW160990   2.433   3.760  13.168
53031SOL    HW260991   2.526   3.760  13.287
53032SOL     OW60992   0.815   7.501  12.034
53032SOL    HW160993   0.807   7.596  12.046
53032SOL    HW260994   0.906   7.487  12.009
53033SOL     OW60995  14.039   9.213   4.193
53033SOL    HW160996  14.096   9.280   4.154
53033SOL    HW260997  14.097   9.164   4.251
53034SOL     OW60998  11.032   2.112  11.443
53034SOL    HW160999  11.039   2.037  11.383
53034SOL    HW261000  11.099   2.173  11.413
53035SOL     OW61001  11.914  11.640   4.389
53035SOL    HW161002  11.912  11.573   4.458
53035SOL    HW261003  11.855  11.709   4.421
53036SOL     OW61004   6.341   1.298  13.682
53036SOL    HW161005   6.383   1.305  13.596
53036SOL    HW261006   6.248   1.288  13.662
53037SOL     OW61007  13.222   9.012  10.699
53037SOL    HW161008  13.289   8.979  10.759
53037SOL    HW261009  13.166   8.937  10.681
53038SOL     OW61010   0.467   3.447   4.157
53038SOL    HW161011   0.482   3.528   4.206
53038SOL    HW261012   0.372   3.440   4.150
53039SOL     OW61013   0.844   3.900  12.853
53039SOL    HW161014   0.888   3.910  12.937
53039SOL    HW261015   0.825   3.806  12.848
53040SOL     OW61016   1.755   5.150   1.327
53040SOL    HW161017   1.714   5.064   1.337
53040SOL    HW261018   1.755   5.187   1.415
53041SOL     OW61019   4.006   2.948   8.348
53041SOL    HW161020   4.026   2.897   8.427
53041SOL    HW261021   4.022   3.039   8.374
53042SOL     OW61022   4.277   9.913   0.697
53042SOL    HW161023   4.244   9.825   0.679
53042SOL    HW261024   4.364   9.914   0.658
53043SOL     OW61025   3.824   9.650   4.030
53043SOL    HW161026   3.755   9.594   3.994
53043SOL    HW261027   3.905   9.618   3.991
53044SOL     OW61028  13.432   3.150   2.643
53044SOL    HW161029  13.338   3.136   2.655
53044SOL    HW261030  13.468   3.148   2.731
53045SOL     OW61031  10.680   7.772   9.137
53045SOL    HW161032  10.630   7.770   9.218
53045SOL    HW261033  10.670   7.684   9.100
53046SOL     OW61034   9.914   9.519   8.752
53046SOL    HW161035   9.983   9.455   8.736
53046SOL    HW261036   9.834   9.478   8.721
53047SOL     OW61037   3.925   0.959   7.413
53047SOL    HW161038   3.992   1.012   7.369
53047SOL    HW261039   3.941   0.974   7.507
53048SOL     OW61040  11.787   8.011   1.836
53048SOL    HW161041  11.781   7.918   1.816
53048SOL    HW261042  11.719   8.052   1.782
53049SOL     OW61043  11.286   9.452   6.985
53049SOL    HW161044  11.200   9.443   6.942
53049SOL    HW261045  11.275   9.409   7.070
53050SOL     OW61046  14.101   3.663  13.098
53050SOL    HW161047  14.017   3.683  13.057
53050SOL    HW261048  14.113   3.569  13.082
53051SOL     OW61049   0.043   1.780  11.740
53051SOL    HW161050   0.068   1.781  11.648
53051SOL    HW261051   0.037   1.872  11.764
53052SOL     OW61052  11.385  10.134   6.197
53052SOL    HW161053  11.304  10.180   6.221
53052SOL    HW261054  11.365  10.041   6.212
53053SOL     OW61055   7.384  13.337   0.354
53053SOL    HW161056   7.373  13.258   0.407
53053SOL    HW261057   7.365  13.308   0.264
53054SOL     OW61058   3.738   2.308   8.297
53054SOL    HW161059   3.650   2.342   8.279
53054SOL    HW261060   3.758   2.252   8.221
53055SOL     OW61061   3.695   4.018  13.845
53055SOL    HW161062   3.749   3.988  13.772
53055SOL    HW261063   3.619   3.959  13.845
53056SOL     OW61064   8.201   0.384   4.671
53056SOL    HW161065   8.262   0.458   4.679
53056SOL    HW261066   8.226   0.324   4.740
53057SOL     OW61067  10.034  11.853  10.754
53057SOL    HW161068  10.107  11.793  10.748
53057SOL    HW261069   9.975  11.828  10.683
53058SOL     OW61070  13.117  12.770   6.690
53058SOL    HW161071  13.203  12.774   6.730
53058SOL    HW261072  13.124  12.701   6.624
53059SOL     OW61073   0.272   8.886   6.822
53059SOL    HW161074   0.226   8.813   6.862
53059SOL    HW261075   0.208   8.958   6.823
53060SOL     OW61076  14.730   3.414   7.433
53060SOL    HW161077  14.687   3.356   7.497
53060SOL    HW261078  14.771   3.354   7.370
53061SOL     OW61079   3.397   2.601   2.978
53061SOL    HW161080   3.367   2.588   2.888
53061SOL    HW261081   3.336   2.664   3.016
53062SOL     OW61082   9.215  10.505   5.167
53062SOL    HW161083   9.189  10.461   5.086
53062SOL    HW261084   9.272  10.442   5.211
53063SOL     OW61085   5.181  13.829   4.895
53063SOL    HW161086   5.223  13.843   4.980
53063SOL    HW261087   5.138  13.744   4.903
53064SOL     OW61088  11.588   3.156   2.884
53064SOL    HW161089  11.549   3.217   2.947
53064SOL    HW261090  11.570   3.069   2.921
53065SOL     OW61091   1.342   3.786  13.372
53065SOL    HW161092   1.248   3.787  13.355
53065SOL    HW261093   1.354   3.848  13.443
53066SOL     OW61094  11.043   3.131  13.443
53066SOL    HW161095  10.949   3.145  13.437
53066SOL    HW261096  11.079   3.216  13.470
53067SOL     OW61097  11.794   6.581   8.455
53067SOL    HW161098  11.865   6.549   8.400
53067SOL    HW261099  11.777   6.670   8.424
53068SOL     OW61100   6.858  11.230   5.931
53068SOL    HW161101   6.825  11.154   5.884
53068SOL    HW261102   6.924  11.194   5.991
53069SOL     OW61103  14.364   6.869   4.342
53069SOL    HW161104  14.298   6.913   4.288
53069SOL    HW261105  14.417   6.940   4.377
53070SOL     OW61106  13.258   4.430  13.104
53070SOL    HW161107  13.299   4.513  13.077
53070SOL    HW261108  13.216   4.451  13.187
53071SOL     OW61109  13.996   8.637  12.149
53071SOL    HW161110  14.032   8.549  12.139
53071SOL    HW261111  14.015   8.661  12.240
53072SOL     OW61112  11.584   1.811   5.194
53072SOL    HW161113  11.667   1.837   5.153
53072SOL    HW261114  11.601   1.724   5.229
53073SOL     OW61115   7.508   2.784   4.474
53073SOL    HW161116   7.550   2.865   4.445
53073SOL    HW261117   7.538   2.718   4.412
53074SOL     OW61118  14.096   6.280   1.226
53074SOL    HW161119  14.067   6.210   1.284
53074SOL    HW261120  14.144   6.235   1.156
53075SOL     OW61121   1.290  11.934   9.015
53075SOL    HW161122   1.220  11.976   9.066
53075SOL    HW261123   1.254  11.849   8.990
53076SOL     OW61124   2.191   4.008   2.436
53076SOL    HW161125   2.223   3.980   2.522
53076SOL    HW261126   2.174   3.927   2.389
53077SOL     OW61127  12.536   8.666  13.750
53077SOL    HW161128  12.567   8.742  13.701
53077SOL    HW261129  12.550   8.689  13.842
53078SOL     OW61130   3.965  10.118  12.954
53078SOL    HW161131   3.943  10.208  12.931
53078SOL    HW261132   3.894  10.090  13.012
53079SOL     OW61133   7.733   7.646  12.057
53079SOL    HW161134   7.692   7.623  11.974
53079SOL    HW261135   7.660   7.667  12.115
53080SOL     OW61136  13.596  14.613   8.999
53080SOL    HW161137  13.687  14.641   9.004
53080SOL    HW261138  13.601  14.518   8.985
53081SOL     OW61139  13.768   9.566  13.592
53081SOL    HW161140  13.808   9.606  13.516
53081SOL    HW261141  13.804   9.614  13.667
53082SOL     OW61142   2.839   9.130  14.386
53082SOL    HW161143   2.756   9.101  14.422
53082SOL    HW261144   2.870   9.057  14.333
53083SOL     OW61145   9.041   8.586  10.553
53083SOL    HW161146   9.040   8.611  10.645
53083SOL    HW261147   8.949   8.583  10.527
53084SOL     OW61148  13.449   3.582   6.582
53084SOL    HW161149  13.499   3.640   6.526
53084SOL    HW261150  13.446   3.626   6.667
53085SOL     OW61151   1.502   8.722   5.308
53085SOL    HW161152   1.493   8.637   5.351
53085SOL    HW261153   1.491   8.704   5.215
53086SOL     OW61154   3.204   5.589   3.705
53086SOL    HW161155   3.233   5.678   3.725
53086SOL    HW261156   3.108   5.593   3.708
53087SOL     OW61157   2.485   1.417   9.616
53087SOL    HW161158   2.571   1.377   9.631
53087SOL    HW261159   2.503   1.511   9.611
53088SOL     OW61160  10.991   0.762   1.011
53088SOL    HW161161  11.051   0.777   0.938
53088SOL    HW261162  11.016   0.677   1.046
53089SOL     OW61163  14.787   4.775   9.236
53089SOL    HW161164  14.779   4.811   9.324
53089SOL    HW261165  14.861   4.714   9.242
53090SOL     OW61166   6.135   4.658   3.371
53090SOL    HW161167   6.193   4.648   3.295
53090SOL    HW261168   6.144   4.575   3.419
53091SOL     OW61169   5.451   7.223   8.224
53091SOL    HW161170   5.544   7.204   8.212
53091SOL    HW261171   5.449   7.281   8.301
53092SOL     OW61172   5.848   0.460   8.481
53092SOL    HW161173   5.930   0.430   8.442
53092SOL    HW261174   5.856   0.437   8.574
53093SOL     OW61175   6.988  12.865  14.441
53093SOL    HW161176   6.992  12.782  14.395
53093SOL    HW261177   7.050  12.922  14.394
53094SOL     OW61178  13.702   9.235  12.562
53094SOL    HW161179  13.674   9.165  12.622
53094SOL    HW261180  13.647   9.310  12.586
53095SOL     OW61181  13.755   6.102  14.044
53095SOL    HW161182  13.707   6.182  14.025
53095SOL    HW261183  13.843   6.131  14.067
53096SOL     OW61184   0.999  11.306   4.234
53096SOL    HW161185   0.959  11.238   4.288
53096SOL    HW261186   0.932  11.330   4.171
53097SOL     OW61187  10.708   7.552   8.511
53097SOL    HW161188  10.736   7.464   8.536
53097SOL    HW261189  10.789   7.599   8.491
53098SOL     OW61190   1.635  13.349  10.089
53098SOL    HW161191   1.714  13.380  10.046
53098SOL    HW261192   1.667  13.301  10.166
53099SOL     OW61193  14.758   5.599   5.745
53099SOL    HW161194  14.804   5.678   5.774
53099SOL    HW261195  14.825   5.547   5.701
53100SOL     OW61196   5.084   2.155  10.670
53100SOL    HW161197   5.037   2.145  10.587
53100SOL    HW261198   5.029   2.215  10.721
53101SOL     OW61199   1.894  14.529  10.213
53101SOL    HW161200   1.866  14.538  10.304
53101SOL    HW261201   1.814  14.509  10.164
53102SOL     OW61202   7.791  12.160   7.184
53102SOL    HW161203   7.816  12.236   7.238
53102SOL    HW261204   7.754  12.097   7.246
53103SOL     OW61205   5.222  10.627   3.306
53103SOL    HW161206   5.214  10.568   3.231
53103SOL    HW261207   5.134  10.634   3.342
53104SOL     OW61208   0.877   6.665   3.755
53104SOL    HW161209   0.908   6.590   3.805
53104SOL    HW261210   0.808   6.704   3.809
53105SOL     OW61211   1.073   4.088   7.051
53105SOL    HW161212   1.063   4.181   7.073
53105SOL    HW261213   0.991   4.047   7.078
53106SOL     OW61214   5.162   2.772   0.157
53106SOL    HW161215   5.100   2.706   0.189
53106SOL    HW261216   5.137   2.852   0.203
53107SOL     OW61217   5.885   8.764   9.085
53107SOL    HW161218   5.841   8.758   9.170
53107SOL    HW261219   5.875   8.856   9.059
53108SOL     OW61220  14.455  13.418   4.517
53108SOL    HW161221  14.447  13.513   4.530
53108SOL    HW261222  14.544  13.406   4.484
53109SOL     OW61223   9.050  14.275   8.591
53109SOL    HW161224   9.100  14.352   8.562
53109SOL    HW261225   9.104  14.236   8.660
53110SOL     OW61226   9.442  11.895  10.984
53110SOL    HW161227   9.526  11.854  11.002
53110SOL    HW261228   9.383  11.822  10.966
53111SOL     OW61229   2.123  11.045   5.063
53111SOL    HW161230   2.147  11.023   5.153
53111SOL    HW261231   2.030  11.021   5.057
53112SOL     OW61232   0.934  12.181   1.243
53112SOL    HW161233   1.028  12.165   1.234
53112SOL    HW261234   0.922  12.206   1.334
53113SOL     OW61235   3.106  14.479   8.606
53113SOL    HW161236   3.123  14.411   8.541
53113SOL    HW261237   3.027  14.449   8.652
53114SOL     OW61238   5.406   8.426   5.479
53114SOL    HW161239   5.498   8.403   5.478
53114SOL    HW261240   5.405   8.522   5.476
53115SOL     OW61241   2.915   4.560  12.057
53115SOL    HW161242   2.926   4.620  12.131
53115SOL    HW261243   2.833   4.514  12.076
53116SOL     OW61244   1.413   8.913   5.722
53116SOL    HW161245   1.359   8.834   5.731
53116SOL    HW261246   1.387   8.950   5.638
53117SOL     OW61247  14.528   4.145  11.719
53117SOL    HW161248  14.537   4.057  11.682
53117SOL    HW261249  14.615   4.167  11.750
53118SOL     OW61250   9.982  14.345  12.624
53118SOL    HW161251   9.925  14.289  12.571
53118SOL    HW261252   9.927  14.419  12.649
53119SOL     OW61253   5.343   3.577   5.498
53119SOL    HW161254   5.367   3.660   5.456
53119SOL    HW261255   5.384   3.510   5.444
53120SOL     OW61256  14.769   6.039   6.350
53120SOL    HW161257  14.820   6.035   6.431
53120SOL    HW261258  14.681   6.062   6.378
53121SOL     OW61259   5.932  11.313   7.157
53121SOL    HW161260   5.849  11.354   7.135
53121SOL    HW261261   5.933  11.231   7.107
53122SOL     OW61262   4.176   7.549  13.070
53122SOL    HW161263   4.098   7.603  13.054
53122SOL    HW261264   4.194   7.559  13.163
53123SOL     OW61265   6.730   0.715   3.103
53123SOL    HW161266   6.728   0.621   3.117
53123SOL    HW261267   6.661   0.732   3.039
53124SOL     OW61268   0.884   0.235   4.496
53124SOL    HW161269   0.964   0.184   4.512
53124SOL    HW261270   0.831   0.178   4.440
53125SOL     OW61271   1.399   1.471   7.265
53125SOL    HW161272   1.309   1.500   7.250
53125SOL    HW261273   1.453   1.539   7.225
53126SOL     OW61274   0.989  10.915   5.936
53126SOL    HW161275   1.050  10.952   5.872
53126SOL    HW261276   0.903  10.945   5.907
53127SOL     OW61277  14.740  10.403  12.985
53127SOL    HW161278  14.739  10.419  13.080
53127SOL    HW261279  14.761  10.310  12.977
53128SOL     OW61280   2.882  14.456  11.412
53128SOL    HW161281   2.815  14.506  11.363
53128SOL    HW261282   2.938  14.419  11.344
53129SOL     OW61283   7.220   9.238  11.483
53129SOL    HW161284   7.247   9.221  11.573
53129SOL    HW261285   7.125   9.248  11.487
53130SOL     OW61286   0.257  11.453  13.593
53130SOL    HW161287   0.343  11.429  13.559
53130SOL    HW261288   0.253  11.411  13.679
53131SOL     OW61289  11.616  13.365   1.462
53131SOL    HW161290  11.595  13.445   1.511
53131SOL    HW261291  11.630  13.299   1.530
53132SOL     OW61292  12.848   9.130   9.779
53132SOL    HW161293  12.880   9.045   9.748
53132SOL    HW261294  12.820   9.175   9.699
53133SOL     OW61295   8.838   6.188   2.572
53133SOL    HW161296   8.780   6.113   2.588
53133SOL    HW261297   8.861   6.181   2.479
53134SOL     OW61298  13.994  13.228   3.853
53134SOL    HW161299  13.933  13.155   3.865
53134SOL    HW261300  14.001  13.238   3.758
53135SOL     OW61301  14.096  13.701   3.941
53135SOL    HW161302  14.032  13.703   3.870
53135SOL    HW261303  14.119  13.609   3.950
53136SOL     OW61304   8.797  13.608   8.070
53136SOL    HW161305   8.762  13.620   7.982
53136SOL    HW261306   8.815  13.515   8.077
53137SOL     OW61307   5.876   3.202   4.507
53137SOL    HW161308   5.780   3.201   4.511
53137SOL    HW261309   5.903   3.245   4.588
53138SOL     OW61310   4.736  13.594  14.681
53138SOL    HW161311   4.700  13.522  14.732
53138SOL    HW261312   4.747  13.558  14.593
53139SOL     OW61313   2.476  14.750  10.303
53139SOL    HW161314   2.386  14.725  10.279
53139SOL    HW261315   2.467  14.838  10.339
53140SOL     OW61316  10.257  13.623  14.411
53140SOL    HW161317  10.271  13.681  14.486
53140SOL    HW261318  10.319  13.551  14.425
53141SOL     OW61319   1.813   5.767  13.810
53141SOL    HW161320   1.719   5.768  13.794
53141SOL    HW261321   1.851   5.736  13.728
53142SOL     OW61322  11.818   8.691   5.594
53142SOL    HW161323  11.832   8.646   5.511
53142SOL    HW261324  11.858   8.633   5.659
53143SOL     OW61325   3.916  11.070   8.398
53143SOL    HW161326   3.856  11.014   8.350
53143SOL    HW261327   3.981  11.098   8.333
53144SOL     OW61328  10.730   9.363   5.097
53144SOL    HW161329  10.771   9.426   5.156
53144SOL    HW261330  10.791   9.357   5.023
53145SOL     OW61331   0.603  12.662   5.803
53145SOL    HW161332   0.568  12.711   5.877
53145SOL    HW261333   0.682  12.620   5.837
53146SOL     OW61334   2.197  11.732   5.612
53146SOL    HW161335   2.201  11.814   5.564
53146SOL    HW261336   2.161  11.756   5.698
53147SOL     OW61337   4.700   4.386   2.252
53147SOL    HW161338   4.784   4.407   2.212
53147SOL    HW261339   4.693   4.446   2.327
53148SOL     OW61340  10.450   6.235  14.479
53148SOL    HW161341  10.398   6.282  14.544
53148SOL    HW261342  10.531   6.285  14.473
53149SOL     OW61343   7.063  14.328  10.701
53149SOL    HW161344   7.132  14.287  10.650
53149SOL    HW261345   7.049  14.413  10.659
53150SOL     OW61346  13.882   3.263  11.860
53150SOL    HW161347  13.809   3.222  11.814
53150SOL    HW261348  13.901   3.204  11.933
53151SOL     OW61349  13.139   8.444   9.039
53151SOL    HW161350  13.216   8.427   9.093
53151SOL    HW261351  13.101   8.358   9.023
53152SOL     OW61352   1.737   6.843  12.918
53152SOL    HW161353   1.736   6.765  12.862
53152SOL    HW261354   1.758   6.914  12.858
53153SOL     OW61355  14.355   7.291   8.600
53153SOL    HW161356  14.304   7.370   8.616
53153SOL    HW261357  14.446   7.320   8.605
53154SOL     OW61358  13.607   9.673   4.966
53154SOL    HW161359  13.527   9.716   4.936
53154SOL    HW261360  13.583   9.631   5.048
53155SOL     OW61361   1.800   2.016   2.160
53155SOL    HW161362   1.870   2.026   2.224
53155SOL    HW261363   1.822   2.077   2.089
53156SOL     OW61364  12.225  10.584   7.865
53156SOL    HW161365  12.133  10.558   7.879
53156SOL    HW261366  12.267  10.505   7.831
53157SOL     OW61367  11.522  11.431  10.498
53157SOL    HW161368  11.443  11.389  10.531
53157SOL    HW261369  11.490  11.507  10.450
53158SOL     OW61370   8.753   7.204   7.965
53158SOL    HW161371   8.816   7.249   7.909
53158SOL    HW261372   8.732   7.268   8.032
53159SOL     OW61373   3.425   1.359  12.658
53159SOL    HW161374   3.469   1.430  12.705
53159SOL    HW261375   3.358   1.402  12.606
53160SOL     OW61376  13.568   6.722  14.644
53160SOL    HW161377  13.543   6.814  14.631
53160SOL    HW261378  13.525   6.676  14.572
53161SOL     OW61379   1.642   0.802   4.839
53161SOL    HW161380   1.689   0.827   4.919
53161SOL    HW261381   1.632   0.707   4.846
53162SOL     OW61382   8.578  10.888   1.561
53162SOL    HW161383   8.625  10.969   1.539
53162SOL    HW261384   8.547  10.902   1.651
53163SOL     OW61385  13.282   6.320  12.361
53163SOL    HW161386  13.268   6.265  12.284
53163SOL    HW261387  13.223   6.283  12.427
53164SOL     OW61388   7.318   0.206   1.151
53164SOL    HW161389   7.225   0.201   1.128
53164SOL    HW261390   7.359   0.250   1.076
53165SOL     OW61391  12.774  10.753  10.772
53165SOL    HW161392  12.840  10.770  10.840
53165SOL    HW261393  12.692  10.746  10.820
53166SOL     OW61394   0.824  10.302   0.986
53166SOL    HW161395   0.738  10.321   0.949
53166SOL    HW261396   0.885  10.350   0.930
53167SOL     OW61397   7.958   3.279  13.195
53167SOL    HW161398   7.968   3.256  13.287
53167SOL    HW261399   8.029   3.232  13.151
53168SOL     OW61400   2.792   8.775   0.415
53168SOL    HW161401   2.849   8.714   0.370
53168SOL    HW261402   2.766   8.839   0.348
53169SOL     OW61403  14.638  11.875   5.830
53169SOL    HW161404  14.683  11.959   5.843
53169SOL    HW261405  14.600  11.881   5.742
53170SOL     OW61406   1.235   2.545  11.976
53170SOL    HW161407   1.320   2.589  11.986
53170SOL    HW261408   1.180   2.611  11.934
53171SOL     OW61409   2.213   4.541   1.083
53171SOL    HW161410   2.184   4.478   1.018
53171SOL    HW261411   2.238   4.618   1.032
53172SOL     OW61412  12.000  13.937   2.514
53172SOL    HW161413  12.016  13.930   2.420
53172SOL    HW261414  12.077  13.894   2.554
53173SOL     OW61415   5.752  13.994   3.596
53173SOL    HW161416   5.663  14.020   3.575
53173SOL    HW261417   5.756  13.901   3.571
53174SOL     OW61418  11.371   0.557  11.285
53174SOL    HW161419  11.309   0.485  11.302
53174SOL    HW261420  11.393   0.591  11.371
53175SOL     OW61421   9.372  12.489   4.908
53175SOL    HW161422   9.377  12.466   4.815
53175SOL    HW261423   9.459  12.526   4.928
53176SOL     OW61424   1.023  11.977  14.549
53176SOL    HW161425   0.975  11.948  14.626
53176SOL    HW261426   1.058  12.063  14.572
53177SOL     OW61427   1.578   1.589  13.085
53177SOL    HW161428   1.664   1.621  13.059
53177SOL    HW261429   1.560   1.634  13.168
53178SOL     OW61430   9.435  13.265   2.875
53178SOL    HW161431   9.423  13.184   2.826
53178SOL    HW261432   9.490  13.241   2.949
53179SOL     OW61433  13.641   6.797   0.609
53179SOL    HW161434  13.648   6.703   0.591
53179SOL    HW261435  13.670   6.839   0.528
53180SOL     OW61436   9.435   6.505   3.954
53180SOL    HW161437   9.357   6.454   3.934
53180SOL    HW261438   9.403   6.594   3.967
53181SOL     OW61439   0.036   7.011   3.499
53181SOL    HW161440   0.001   6.963   3.423
53181SOL    HW261441   0.006   6.960   3.575
53182SOL     OW61442  14.368   4.970  14.440
53182SOL    HW161443  14.321   5.011  14.367
53182SOL    HW261444  14.377   5.041  14.505
53183SOL     OW61445   1.232   5.378   2.808
53183SOL    HW161446   1.306   5.432   2.834
53183SOL    HW261447   1.183   5.432   2.745
53184SOL     OW61448   4.866   4.529   0.473
53184SOL    HW161449   4.852   4.458   0.411
53184SOL    HW261450   4.924   4.493   0.539
53185SOL     OW61451   6.008  14.430  14.408
53185SOL    HW161452   6.084  14.455  14.460
53185SOL    HW261453   6.044  14.376  14.337
53186SOL     OW61454   1.837   5.654   8.475
53186SOL    HW161455   1.831   5.559   8.481
53186SOL    HW261456   1.807   5.686   8.559
53187SOL     OW61457  11.549  12.506  10.025
53187SOL    HW161458  11.598  12.482  10.104
53187SOL    HW261459  11.593  12.458   9.955
53188SOL     OW61460  14.304   1.472   2.063
53188SOL    HW161461  14.266   1.502   1.980
53188SOL    HW261462  14.397   1.495   2.056
53189SOL     OW61463   5.484  10.313  10.211
53189SOL    HW161464   5.446  10.354  10.289
53189SOL    HW261465   5.447  10.225  10.210
53190SOL     OW61466  13.472   4.663   9.068
53190SOL    HW161467  13.554   4.633   9.106
53190SOL    HW261468  13.467   4.755   9.094
53191SOL     OW61469   1.526  13.234   2.373
53191SOL    HW161470   1.438  13.228   2.335
53191SOL    HW261471   1.564  13.312   2.332
53192SOL     OW61472   4.333   2.789   7.187
53192SOL    HW161473   4.285   2.864   7.154
53192SOL    HW261474   4.331   2.726   7.115
53193SOL     OW61475  10.632  10.781   8.106
53193SOL    HW161476  10.651  10.719   8.176
53193SOL    HW261477  10.556  10.830   8.136
53194SOL     OW61478  12.086   2.622  12.994
53194SOL    HW161479  12.106   2.714  12.982
53194SOL    HW261480  12.128   2.578  12.920
53195SOL     OW61481   7.257   1.997   7.534
53195SOL    HW161482   7.298   1.986   7.619
53195SOL    HW261483   7.198   1.922   7.527
53196SOL     OW61484   8.934   1.502   2.224
53196SOL    HW161485   8.964   1.532   2.309
53196SOL    HW261486   8.861   1.561   2.203
53197SOL     OW61487   6.574   7.181   3.529
53197SOL    HW161488   6.663   7.151   3.544
53197SOL    HW261489   6.554   7.151   3.440
53198SOL     OW61490   7.581  14.438   6.127
53198SOL    HW161491   7.607  14.517   6.175
53198SOL    HW261492   7.542  14.471   6.046
53199SOL     OW61493   5.035  10.041   4.534
53199SOL    HW161494   4.965  10.067   4.594
53199SOL    HW261495   5.073   9.962   4.573
53200SOL     OW61496  10.729  14.693  12.750
53200SOL    HW161497  10.719  14.628  12.820
53200SOL    HW261498  10.713  14.777  12.793
53201SOL     OW61499   6.322   5.633   6.512
53201SOL    HW161500   6.341   5.629   6.605
53201SOL    HW261501   6.326   5.542   6.482
53202SOL     OW61502  10.399   5.843  14.526
53202SOL    HW161503  10.356   5.900  14.462
53202SOL    HW261504  10.479   5.814  14.482
53203SOL     OW61505   0.189   7.866  13.544
53203SOL    HW161506   0.171   7.839  13.454
53203SOL    HW261507   0.217   7.957  13.536
53204SOL     OW61508   5.727   0.225   8.862
53204SOL    HW161509   5.715   0.215   8.768
53204SOL    HW261510   5.731   0.320   8.876
53205SOL     OW61511  10.745   5.145   0.947
53205SOL    HW161512  10.652   5.127   0.936
53205SOL    HW261513  10.780   5.150   0.858
53206SOL     OW61514   4.947   9.022  10.770
53206SOL    HW161515   5.001   9.003  10.693
53206SOL    HW261516   4.961   9.116  10.785
53207SOL     OW61517   0.389   9.132  11.103
53207SOL    HW161518   0.449   9.174  11.042
53207SOL    HW261519   0.418   9.161  11.190
53208SOL     OW61520   0.494   9.438  12.812
53208SOL    HW161521   0.540   9.414  12.732
53208SOL    HW261522   0.546   9.399  12.882
53209SOL     OW61523   3.433  10.548   6.651
53209SOL    HW161524   3.447  10.605   6.575
53209SOL    HW261525   3.358  10.494   6.625
53210SOL     OW61526   2.878  10.115  11.690
53210SOL    HW161527   2.792  10.085  11.661
53210SOL    HW261528   2.863  10.147  11.779
53211SOL     OW61529   7.308  13.009  11.983
53211SOL    HW161530   7.363  13.036  12.056
53211SOL    HW261531   7.352  13.044  11.905
53212SOL     OW61532   1.503   2.308   3.663
53212SOL    HW161533   1.417   2.271   3.644
53212SOL    HW261534   1.565   2.244   3.628
53213SOL     OW61535  13.576   8.959   3.999
53213SOL    HW161536  13.563   8.993   4.088
53213SOL    HW261537  13.668   8.932   3.997
53214SOL     OW61538  11.874   1.437   4.773
53214SOL    HW161539  11.902   1.399   4.690
53214SOL    HW261540  11.837   1.364   4.822
53215SOL     OW61541   3.820  10.147   8.709
53215SOL    HW161542   3.893  10.113   8.657
53215SOL    HW261543   3.743  10.103   8.673
53216SOL     OW61544   7.919   7.344   4.767
53216SOL    HW161545   7.833   7.350   4.725
53216SOL    HW261546   7.902   7.301   4.850
53217SOL     OW61547   1.883   3.739   3.936
53217SOL    HW161548   1.943   3.698   3.874
53217SOL    HW261549   1.936   3.760   4.012
53218SOL     OW61550   3.213  14.551   2.942
53218SOL    HW161551   3.288  14.540   3.000
53218SOL    HW261552   3.242  14.516   2.858
53219SOL     OW61553   6.764  12.660   5.891
53219SOL    HW161554   6.852  12.693   5.909
53219SOL    HW261555   6.715  12.736   5.860
53220SOL     OW61556   2.690   0.383  13.887
53220SOL    HW161557   2.702   0.330  13.966
53220SOL    HW261558   2.707   0.473  13.915
53221SOL     OW61559   5.876   9.404   6.895
53221SOL    HW161560   5.955   9.425   6.844
53221SOL    HW261561   5.831   9.488   6.903
53222SOL     OW61562   0.335   4.565  14.209
53222SOL    HW161563   0.312   4.508  14.283
53222SOL    HW261564   0.274   4.541  14.140
53223SOL     OW61565   7.982  12.823   3.336
53223SOL    HW161566   8.023  12.739   3.356
53223SOL    HW261567   8.055  12.884   3.323
53224SOL     OW61568   2.149  13.482   1.452
53224SOL    HW161569   2.147  13.544   1.525
53224SOL    HW261570   2.238  13.447   1.452
53225SOL     OW61571   7.499  13.636   1.496
53225SOL    HW161572   7.503  13.586   1.578
53225SOL    HW261573   7.405  13.642   1.477
53226SOL     OW61574   2.449  12.964  10.249
53226SOL    HW161575   2.364  12.933  10.217
53226SOL    HW261576   2.463  13.047  10.203
53227SOL     OW61577  12.661  11.561   3.408
53227SOL    HW161578  12.573  11.597   3.396
53227SOL    HW261579  12.657  11.516   3.493
53228SOL     OW61580   1.466   9.306   6.326
53228SOL    HW161581   1.433   9.301   6.236
53228SOL    HW261582   1.394   9.344   6.376
53229SOL     OW61583  11.156   2.667   5.301
53229SOL    HW161584  11.233   2.667   5.244
53229SOL    HW261585  11.099   2.736   5.265
53230SOL     OW61586   7.857   3.735   0.040
53230SOL    HW161587   7.765   3.755   0.024
53230SOL    HW261588   7.889   3.698  14.846
53231SOL     OW61589   6.270   2.031   5.698
53231SOL    HW161590   6.241   2.015   5.608
53231SOL    HW261591   6.259   1.947   5.742
53232SOL     OW61592  14.802   8.000   5.475
53232SOL    HW161593  14.869   7.957   5.529
53232SOL    HW261594  14.753   7.927   5.436
53233SOL     OW61595   1.868   2.587   6.252
53233SOL    HW161596   1.777   2.563   6.237
53233SOL    HW261597   1.887   2.654   6.186
53234SOL     OW61598   2.665   0.400   8.589
53234SOL    HW161599   2.639   0.436   8.504
53234SOL    HW261600   2.743   0.451   8.613
53235SOL     OW61601  14.188   1.873   3.328
53235SOL    HW161602  14.255   1.863   3.260
53235SOL    HW261603  14.156   1.784   3.343
53236SOL     OW61604   7.989   7.899   8.139
53236SOL    HW161605   7.924   7.949   8.189
53236SOL    HW261606   8.073   7.931   8.172
53237SOL     OW61607  14.564  11.496   3.253
53237SOL    HW161608  14.644  11.453   3.281
53237SOL    HW261609  14.494  11.440   3.285
53238SOL     OW61610   5.482   2.442   2.700
53238SOL    HW161611   5.456   2.364   2.652
53238SOL    HW261612   5.426   2.442   2.778
53239SOL     OW61613  14.087  11.568   2.534
53239SOL    HW161614  14.125  11.551   2.620
53239SOL    HW261615  14.142  11.637   2.497
53240SOL     OW61616   3.929  13.951   3.977
53240SOL    HW161617   3.912  14.032   4.026
53240SOL    HW261618   3.991  13.977   3.909
53241SOL     OW61619  13.647   2.527  14.584
53241SOL    HW161620  13.709   2.490  14.647
53241SOL    HW261621  13.651   2.468  14.509
53242SOL     OW61622   4.966   6.811  13.839
53242SOL    HW161623   4.882   6.852  13.818
53242SOL    HW261624   4.957   6.722  13.807
53243SOL     OW61625   7.367   2.441  12.223
53243SOL    HW161626   7.302   2.427  12.153
53243SOL    HW261627   7.349   2.529  12.256
53244SOL     OW61628  12.792   7.597   8.646
53244SOL    HW161629  12.887   7.604   8.636
53244SOL    HW261630  12.773   7.504   8.633
53245SOL     OW61631   7.690   2.940   6.672
53245SOL    HW161632   7.598   2.958   6.690
53245SOL    HW261633   7.737   3.015   6.709
53246SOL     OW61634   2.274  14.850  12.540
53246SOL    HW161635   2.292  14.759  12.516
53246SOL    HW261636   2.178  14.857  12.539
53247SOL     OW61637   8.853   8.922   9.188
53247SOL    HW161638   8.891   8.961   9.109
53247SOL    HW261639   8.763   8.901   9.162
53248SOL     OW61640   7.996   4.862  11.099
53248SOL    HW161641   7.917   4.876  11.047
53248SOL    HW261642   7.995   4.934  11.162
53249SOL     OW61643  11.034   6.293   7.418
53249SOL    HW161644  10.999   6.307   7.506
53249SOL    HW261645  11.003   6.368   7.367
53250SOL     OW61646   2.898   3.374   7.599
53250SOL    HW161647   2.932   3.332   7.677
53250SOL    HW261648   2.846   3.448   7.631
53251SOL     OW61649   2.718   0.596   4.766
53251SOL    HW161650   2.708   0.665   4.700
53251SOL    HW261651   2.676   0.632   4.844
53252SOL     OW61652   7.781   1.557   4.574
53252SOL    HW161653   7.778   1.615   4.650
53252SOL    HW261654   7.869   1.567   4.539
53253SOL     OW61655  10.402  13.816  13.554
53253SOL    HW161656  10.342  13.797  13.626
53253SOL    HW261657  10.471  13.750  13.562
53254SOL     OW61658   5.496   7.184   0.040
53254SOL    HW161659   5.413   7.138   0.041
53254SOL    HW261660   5.561   7.117   0.022
53255SOL     OW61661  12.044   3.805   0.409
53255SOL    HW161662  12.132   3.841   0.412
53255SOL    HW261663  12.012   3.810   0.499
53256SOL     OW61664  10.522   3.815   5.874
53256SOL    HW161665  10.467   3.766   5.935
53256SOL    HW261666  10.468   3.889   5.847
53257SOL     OW61667   8.627   8.224   9.804
53257SOL    HW161668   8.544   8.268   9.824
53257SOL    HW261669   8.680   8.234   9.883
53258SOL     OW61670  12.020   4.541  11.575
53258SOL    HW161671  12.055   4.566  11.490
53258SOL    HW261672  11.988   4.622  11.613
53259SOL     OW61673   0.928  11.544   5.414
53259SOL    HW161674   0.960  11.541   5.324
53259SOL    HW261675   0.895  11.633   5.425
53260SOL     OW61676   3.786  12.468   3.599
53260SOL    HW161677   3.730  12.453   3.523
53260SOL    HW261678   3.787  12.564   3.609
53261SOL     OW61679   0.087   2.712   7.448
53261SOL    HW161680   0.071   2.757   7.531
53261SOL    HW261681   0.043   2.628   7.457
53262SOL     OW61682   7.600  14.514  12.179
53262SOL    HW161683   7.522  14.475  12.140
53262SOL    HW261684   7.670  14.452  12.158
53263SOL     OW61685   5.676   5.765  10.573
53263SOL    HW161686   5.682   5.834  10.506
53263SOL    HW261687   5.761   5.767  10.617
53264SOL     OW61688  12.213   7.947  11.049
53264SOL    HW161689  12.211   8.014  10.981
53264SOL    HW261690  12.122   7.920  11.059
53265SOL     OW61691   5.948  13.746   3.427
53265SOL    HW161692   5.922  13.788   3.344
53265SOL    HW261693   6.030  13.702   3.406
53266SOL     OW61694   5.778   6.970   8.076
53266SOL    HW161695   5.838   7.007   8.142
53266SOL    HW261696   5.704   6.938   8.127
53267SOL     OW61697  13.725  11.796   7.650
53267SOL    HW161698  13.809  11.829   7.680
53267SOL    HW261699  13.672  11.874   7.636
53268SOL     OW61700  10.371   1.180   8.469
53268SOL    HW161701  10.433   1.220   8.409
53268SOL    HW261702  10.290   1.229   8.456
53269SOL     OW61703  10.890   2.872   5.686
53269SOL    HW161704  10.847   2.789   5.708
53269SOL    HW261705  10.971   2.846   5.641
53270SOL     OW61706   9.345   1.660   0.071
53270SOL    HW161707   9.335   1.713  14.879
53270SOL    HW261708   9.423   1.606   0.054
53271SOL     OW61709   2.435   5.241  11.887
53271SOL    HW161710   2.364   5.292  11.925
53271SOL    HW261711   2.462   5.182  11.957
53272SOL     OW61712   8.162   4.555   2.116
53272SOL    HW161713   8.194   4.626   2.172
53272SOL    HW261714   8.167   4.591   2.027
53273SOL     OW61715  12.721   2.789   4.413
53273SOL    HW161716  12.664   2.723   4.452
53273SOL    HW261717  12.796   2.794   4.473
53274SOL     OW61718   7.438   6.500   2.611
53274SOL    HW161719   7.464   6.554   2.536
53274SOL    HW261720   7.368   6.549   2.653
53275SOL     OW61721   6.276  12.081   5.706
53275SOL    HW161722   6.232  12.124   5.632
53275SOL    HW261723   6.334  12.017   5.665
53276SOL     OW61724   6.275  11.305   0.831
53276SOL    HW161725   6.333  11.377   0.807
53276SOL    HW261726   6.322  11.227   0.803
53277SOL     OW61727   3.086   9.188   4.858
53277SOL    HW161728   2.992   9.183   4.842
53277SOL    HW261729   3.118   9.099   4.841
53278SOL     OW61730   8.144   6.056   0.584
53278SOL    HW161731   8.179   6.018   0.503
53278SOL    HW261732   8.122   5.981   0.638
53279SOL     OW61733   1.086  13.499  12.444
53279SOL    HW161734   1.140  13.474  12.519
53279SOL    HW261735   1.020  13.430  12.437
53280SOL     OW61736  13.760   4.171   1.814
53280SOL    HW161737  13.702   4.247   1.818
53280SOL    HW261738  13.718   4.106   1.870
53281SOL     OW61739   1.459   5.616   7.101
53281SOL    HW161740   1.526   5.659   7.047
53281SOL    HW261741   1.384   5.675   7.098
53282SOL     OW61742   6.248   1.915  14.191
53282SOL    HW161743   6.329   1.959  14.215
53282SOL    HW261744   6.215   1.877  14.273
53283SOL     OW61745  13.082  12.878   6.299
53283SOL    HW161746  13.055  12.844   6.213
53283SOL    HW261747  13.171  12.843   6.311
53284SOL     OW61748  12.464   6.861  12.243
53284SOL    HW161749  12.372   6.882  12.260
53284SOL    HW261750  12.504   6.945  12.221
53285SOL     OW61751   1.978  14.041   0.191
53285SOL    HW161752   1.936  14.104   0.133
53285SOL    HW261753   1.909  13.980   0.214
53286SOL     OW61754   7.547  13.558   1.753
53286SOL    HW161755   7.552  13.463   1.765
53286SOL    HW261756   7.636  13.584   1.731
53287SOL     OW61757   6.388  12.120   6.803
53287SOL    HW161758   6.334  12.109   6.724
53287SOL    HW261759   6.325  12.130   6.874
53288SOL     OW61760  13.685   1.643  10.865
53288SOL    HW161761  13.747   1.706  10.827
53288SOL    HW261762  13.603   1.660  10.819
53289SOL     OW61763   8.006  12.021  11.419
53289SOL    HW161764   7.923  12.057  11.449
53289SOL    HW261765   7.984  11.968  11.343
53290SOL     OW61766   3.294   2.346   2.387
53290SOL    HW161767   3.337   2.272   2.429
53290SOL    HW261768   3.225   2.307   2.334
53291SOL     OW61769  12.283   1.689  14.795
53291SOL    HW161770  12.361   1.744  14.793
53291SOL    HW261771  12.315   1.604  14.826
53292SOL     OW61772   8.995  11.726   8.867
53292SOL    HW161773   9.048  11.787   8.816
53292SOL    HW261774   8.909  11.768   8.874
53293SOL     OW61775  10.359   8.739   1.844
53293SOL    HW161776  10.447   8.774   1.858
53293SOL    HW261777  10.306   8.814   1.817
53294SOL     OW61778   5.764   6.685   0.132
53294SOL    HW161779   5.829   6.689   0.062
53294SOL    HW261780   5.684   6.656   0.089
53295SOL     OW61781   7.359   5.774  11.160
53295SOL    HW161782   7.440   5.756  11.113
53295SOL    HW261783   7.316   5.689  11.168
53296SOL     OW61784   2.391  11.721   1.315
53296SOL    HW161785   2.442  11.672   1.379
53296SOL    HW261786   2.445  11.721   1.236
53297SOL     OW61787  11.643  11.318   1.859
53297SOL    HW161788  11.609  11.329   1.771
53297SOL    HW261789  11.738  11.329   1.850
53298SOL     OW61790   3.155   3.306  11.439
53298SOL    HW161791   3.220   3.250  11.480
53298SOL    HW261792   3.073   3.256  11.445
53299SOL     OW61793   2.883  10.139   8.081
53299SOL    HW161794   2.928  10.067   8.036
53299SOL    HW261795   2.954  10.193   8.117
53300SOL     OW61796   6.166  13.843   6.246
53300SOL    HW161797   6.249  13.823   6.289
53300SOL    HW261798   6.139  13.926   6.285
53301SOL     OW61799   3.701  10.556   9.554
53301SOL    HW161800   3.629  10.511   9.510
53301SOL    HW261801   3.738  10.613   9.487
53302SOL     OW61802   6.424   9.724   4.683
53302SOL    HW161803   6.479   9.715   4.605
53302SOL    HW261804   6.356   9.786   4.657
53303SOL     OW61805   1.800  12.035   7.462
53303SOL    HW161806   1.729  12.057   7.522
53303SOL    HW261807   1.799  11.940   7.457
53304SOL     OW61808   5.249  12.302   4.563
53304SOL    HW161809   5.210  12.217   4.539
53304SOL    HW261810   5.342  12.291   4.544
53305SOL     OW61811  13.156  10.663  14.579
53305SOL    HW161812  13.190  10.752  14.574
53305SOL    HW261813  13.220  10.615  14.631
53306SOL     OW61814  11.969   6.120   5.719
53306SOL    HW161815  12.029   6.104   5.646
53306SOL    HW261816  11.883   6.120   5.679
53307SOL     OW61817   1.937   4.353  14.735
53307SOL    HW161818   1.915   4.312  14.652
53307SOL    HW261819   2.033   4.347  14.740
53308SOL     OW61820   0.131   6.094   3.508
53308SOL    HW161821   0.121   6.189   3.495
53308SOL    HW261822   0.083   6.055   3.435
53309SOL     OW61823  12.890  11.309   8.612
53309SOL    HW161824  12.958  11.362   8.570
53309SOL    HW261825  12.930  11.222   8.621
53310SOL     OW61826  11.839   3.870   1.880
53310SOL    HW161827  11.752   3.838   1.901
53310SOL    HW261828  11.839   3.878   1.784
53311SOL     OW61829   3.371   1.030  14.497
53311SOL    HW161830   3.354   1.057  14.407
53311SOL    HW261831   3.295   1.061  14.546
53312SOL     OW61832   3.309   7.408   8.954
53312SOL    HW161833   3.282   7.454   9.034
53312SOL    HW261834   3.264   7.454   8.883
53313SOL     OW61835   2.485   4.417   1.377
53313SOL    HW161836   2.452   4.334   1.343
53313SOL    HW261837   2.499   4.401   1.471
53314SOL     OW61838  12.909   1.795  13.733
53314SOL    HW161839  12.926   1.701  13.744
53314SOL    HW261840  12.980   1.838  13.781
53315SOL     OW61841   9.300   6.511   1.133
53315SOL    HW161842   9.347   6.530   1.052
53315SOL    HW261843   9.283   6.597   1.172
53316SOL     OW61844  12.589   1.759   9.273
53316SOL    HW161845  12.603   1.666   9.257
53316SOL    HW261846  12.541   1.761   9.356
53317SOL     OW61847   8.018   4.664   5.940
53317SOL    HW161848   8.071   4.622   6.008
53317SOL    HW261849   7.932   4.622   5.948
53318SOL     OW61850  12.636   7.186  13.872
53318SOL    HW161851  12.695   7.214  13.942
53318SOL    HW261852  12.694   7.156  13.802
53319SOL     OW61853  12.739   7.586   3.211
53319SOL    HW161854  12.712   7.534   3.287
53319SOL    HW261855  12.716   7.531   3.136
53320SOL     OW61856   1.384  12.270   0.845
53320SOL    HW161857   1.301  12.301   0.883
53320SOL    HW261858   1.447  12.277   0.917
53321SOL     OW61859  11.806   4.768   5.836
53321SOL    HW161860  11.763   4.694   5.878
53321SOL    HW261861  11.737   4.833   5.825
53322SOL     OW61862  13.450   7.289   9.725
53322SOL    HW161863  13.447   7.303   9.820
53322SOL    HW261864  13.362   7.259   9.703
53323SOL     OW61865   4.026   9.198   9.222
53323SOL    HW161866   4.071   9.132   9.275
53323SOL    HW261867   4.092   9.226   9.158
53324SOL     OW61868   5.946   0.297   9.849
53324SOL    HW161869   5.881   0.232   9.822
53324SOL    HW261870   5.911   0.380   9.818
53325SOL     OW61871   4.448   1.389   7.693
53325SOL    HW161872   4.414   1.459   7.749
53325SOL    HW261873   4.375   1.368   7.635
53326SOL     OW61874   1.592  12.819   0.045
53326SOL    HW161875   1.618  12.905   0.012
53326SOL    HW261876   1.619  12.820   0.137
53327SOL     OW61877   8.269  14.245  12.367
53327SOL    HW161878   8.226  14.231  12.451
53327SOL    HW261879   8.204  14.221  12.302
53328SOL     OW61880  10.556   2.782   0.884
53328SOL    HW161881  10.546   2.791   0.979
53328SOL    HW261882  10.619   2.850   0.860
53329SOL     OW61883   0.578   3.846   5.903
53329SOL    HW161884   0.601   3.935   5.928
53329SOL    HW261885   0.494   3.830   5.946
53330SOL     OW61886  11.911  13.351   2.906
53330SOL    HW161887  11.950  13.367   2.821
53330SOL    HW261888  11.954  13.412   2.965
53331SOL     OW61889   5.618   4.216   2.828
53331SOL    HW161890   5.600   4.148   2.763
53331SOL    HW261891   5.586   4.180   2.910
53332SOL     OW61892   6.135   7.775   8.409
53332SOL    HW161893   6.113   7.800   8.319
53332SOL    HW261894   6.131   7.679   8.408
53333SOL     OW61895   8.749   1.120  11.562
53333SOL    HW161896   8.786   1.125  11.651
53333SOL    HW261897   8.820   1.083  11.509
53334SOL     OW61898   9.028   5.374   1.556
53334SOL    HW161899   9.068   5.416   1.633
53334SOL    HW261900   8.962   5.437   1.527
53335SOL     OW61901  13.499  10.652   1.592
53335SOL    HW161902  13.583  10.647   1.547
53335SOL    HW261903  13.449  10.577   1.558
53336SOL     OW61904  13.356  12.622  11.657
53336SOL    HW161905  13.335  12.535  11.692
53336SOL    HW261906  13.429  12.653  11.710
53337SOL     OW61907   2.260   4.453   7.332
53337SOL    HW161908   2.311   4.501   7.398
53337SOL    HW261909   2.211   4.388   7.382
53338SOL     OW61910   4.906   0.706  11.893
53338SOL    HW161911   4.989   0.700  11.939
53338SOL    HW261912   4.925   0.672  11.805
53339SOL     OW61913  14.471   1.620  10.536
53339SOL    HW161914  14.508   1.638  10.449
53339SOL    HW261915  14.526   1.668  10.597
53340SOL     OW61916   5.000   1.060   0.148
53340SOL    HW161917   5.003   1.070   0.243
53340SOL    HW261918   4.952   0.978   0.134
53341SOL     OW61919   5.598   4.981   9.555
53341SOL    HW161920   5.640   4.916   9.499
53341SOL    HW261921   5.586   5.057   9.499
53342SOL     OW61922  10.830  14.145  13.108
53342SOL    HW161923  10.896  14.093  13.155
53342SOL    HW261924  10.798  14.207  13.174
53343SOL     OW61925   6.402   2.847   1.077
53343SOL    HW161926   6.335   2.839   1.144
53343SOL    HW261927   6.425   2.757   1.054
53344SOL     OW61928  14.680   2.165   9.757
53344SOL    HW161929  14.742   2.236   9.775
53344SOL    HW261930  14.705   2.132   9.671
53345SOL     OW61931   9.269   3.358   0.179
53345SOL    HW161932   9.296   3.341   0.269
53345SOL    HW261933   9.328   3.428   0.149
53346SOL     OW61934  12.006   7.582   4.531
53346SOL    HW161935  12.007   7.677   4.527
53346SOL    HW261936  11.913   7.559   4.525
53347SOL     OW61937  11.366   1.112   6.737
53347SOL    HW161938  11.411   1.078   6.660
53347SOL    HW261939  11.337   1.200   6.712
53348SOL     OW61940   6.856   3.736   4.688
53348SOL    HW161941   6.938   3.783   4.672
53348SOL    HW261942   6.882   3.644   4.694
53349SOL     OW61943  14.346   3.792  12.141
53349SOL    HW161944  14.381   3.734  12.208
53349SOL    HW261945  14.414   3.859  12.129
53350SOL     OW61946   8.983   2.374  13.621
53350SOL    HW161947   8.925   2.301  13.600
53350SOL    HW261948   9.067   2.350  13.583
53351SOL     OW61949   8.632   1.309   6.416
53351SOL    HW161950   8.609   1.354   6.335
53351SOL    HW261951   8.666   1.378   6.473
53352SOL     OW61952   7.031   1.550   9.360
53352SOL    HW161953   6.995   1.529   9.446
53352SOL    HW261954   6.962   1.524   9.299
53353SOL     OW61955   7.427   0.325   8.499
53353SOL    HW161956   7.386   0.398   8.453
53353SOL    HW261957   7.512   0.359   8.527
53354SOL     OW61958   4.213  10.653   3.418
53354SOL    HW161959   4.202  10.623   3.508
53354SOL    HW261960   4.228  10.573   3.368
53355SOL     OW61961  11.896   4.181  11.364
53355SOL    HW161962  11.861   4.269  11.357
53355SOL    HW261963  11.940   4.166  11.280
53356SOL     OW61964   2.377   7.561  13.167
53356SOL    HW161965   2.364   7.656  13.173
53356SOL    HW261966   2.361   7.541  13.075
53357SOL     OW61967  12.615   6.473   2.052
53357SOL    HW161968  12.654   6.472   2.139
53357SOL    HW261969  12.525   6.500   2.066
53358SOL     OW61970   6.599  11.343   5.059
53358SOL    HW161971   6.652  11.375   4.985
53358SOL    HW261972   6.633  11.390   5.135
53359SOL     OW61973   8.754   7.130   6.441
53359SOL    HW161974   8.769   7.129   6.536
53359SOL    HW261975   8.667   7.169   6.432
53360SOL     OW61976   8.291  13.295   8.509
53360SOL    HW161977   8.370  13.279   8.561
53360SOL    HW261978   8.243  13.212   8.513
53361SOL     OW61979   9.836   5.589   9.865
53361SOL    HW161980   9.922   5.627   9.883
53361SOL    HW261981   9.805   5.635   9.788
53362SOL     OW61982   0.818   5.370   6.075
53362SOL    HW161983   0.773   5.438   6.126
53362SOL    HW261984   0.780   5.377   5.987
53363SOL     OW61985  12.218   7.490  13.473
53363SOL    HW161986  12.293   7.446  13.433
53363SOL    HW261987  12.197   7.561  13.412
53364SOL     OW61988  13.194  12.873  13.795
53364SOL    HW161989  13.272  12.833  13.757
53364SOL    HW261990  13.151  12.801  13.841
53365SOL     OW61991   4.724  11.475   8.522
53365SOL    HW161992   4.641  11.494   8.566
53365SOL    HW261993   4.721  11.527   8.442
53366SOL     OW61994   2.823   3.078   6.928
53366SOL    HW161995   2.847   2.995   6.887
53366SOL    HW261996   2.840   3.063   7.021
53367SOL     OW61997  10.582   2.993   2.066
53367SOL    HW161998  10.671   2.960   2.076
53367SOL    HW261999  10.586   3.048   1.988
53368SOL     OW62000   1.034   3.808   8.578
53368SOL    HW162001   0.947   3.792   8.615
53368SOL    HW262002   1.077   3.723   8.583
53369SOL     OW62003  10.231   6.346   5.192
53369SOL    HW162004  10.178   6.405   5.246
53369SOL    HW262005  10.240   6.392   5.109
53370SOL     OW62006   9.249   3.143   7.692
53370SOL    HW162007   9.254   3.165   7.785
53370SOL    HW262008   9.200   3.061   7.689
53371SOL     OW62009   8.530   3.698  14.645
53371SOL    HW162010   8.483   3.716  14.563
53371SOL    HW262011   8.484   3.624  14.683
53372SOL     OW62012   1.130   3.586  14.538
53372SOL    HW162013   1.046   3.565  14.577
53372SOL    HW262014   1.195   3.544  14.595
53373SOL     OW62015   0.254   6.366   8.849
53373SOL    HW162016   0.262   6.299   8.780
53373SOL    HW262017   0.182   6.421   8.820
53374SOL     OW62018   6.127   3.541  11.171
53374SOL    HW162019   6.046   3.578  11.208
53374SOL    HW262020   6.195   3.565  11.234
53375SOL     OW62021  11.360   0.596   4.564
53375SOL    HW162022  11.278   0.610   4.516
53375SOL    HW262023  11.385   0.683   4.595
53376SOL     OW62024  12.303  13.562   5.421
53376SOL    HW162025  12.307  13.554   5.517
53376SOL    HW262026  12.315  13.655   5.405
53377SOL     OW62027   5.546   0.966   5.430
53377SOL    HW162028   5.583   1.037   5.378
53377SOL    HW262029   5.599   0.889   5.409
53378SOL     OW62030  11.092  14.611   1.282
53378SOL    HW162031  11.165  14.631   1.223
53378SOL    HW262032  11.120  14.646   1.367
53379SOL     OW62033   6.405   0.117   8.895
53379SOL    HW162034   6.482   0.171   8.909
53379SOL    HW262035   6.412   0.046   8.959
53380SOL     OW62036  12.184  12.825   1.206
53380SOL    HW162037  12.203  12.736   1.175
53380SOL    HW262038  12.199  12.821   1.301
53381SOL     OW62039   2.418   7.757   7.241
53381SOL    HW162040   2.342   7.802   7.277
53381SOL    HW262041   2.483   7.758   7.311
53382SOL     OW62042  10.550   5.477  10.393
53382SOL    HW162043  10.463   5.488  10.431
53382SOL    HW262044  10.595   5.559  10.413
53383SOL     OW62045   5.182   3.994  11.132
53383SOL    HW162046   5.105   3.975  11.187
53383SOL    HW262047   5.149   3.989  11.042
53384SOL     OW62048  11.403   7.265   7.150
53384SOL    HW162049  11.483   7.305   7.185
53384SOL    HW262050  11.430   7.229   7.065
53385SOL     OW62051   5.336   5.578  12.793
53385SOL    HW162052   5.282   5.538  12.862
53385SOL    HW262053   5.277   5.585  12.718
53386SOL     OW62054   2.179   6.762   3.700
53386SOL    HW162055   2.091   6.760   3.737
53386SOL    HW262056   2.168   6.730   3.610
53387SOL     OW62057   6.773   4.245  12.291
53387SOL    HW162058   6.835   4.186  12.248
53387SOL    HW262059   6.725   4.286  12.219
53388SOL     OW62060   0.477  10.179  12.958
53388SOL    HW162061   0.439  10.101  12.998
53388SOL    HW262062   0.514  10.148  12.875
53389SOL     OW62063  10.046   3.655  12.208
53389SOL    HW162064  10.106   3.702  12.150
53389SOL    HW262065   9.959   3.676  12.173
53390SOL     OW62066   9.492   0.346   5.378
53390SOL    HW162067   9.476   0.426   5.428
53390SOL    HW262068   9.583   0.353   5.349
53391SOL     OW62069  14.134   6.800   6.467
53391SOL    HW162070  14.183   6.835   6.541
53391SOL    HW262071  14.091   6.721   6.501
53392SOL     OW62072   9.245  10.877   6.175
53392SOL    HW162073   9.274  10.968   6.189
53392SOL    HW262074   9.314  10.824   6.215
53393SOL     OW62075   7.072   0.911   1.822
53393SOL    HW162076   6.979   0.929   1.809
53393SOL    HW262077   7.104   0.984   1.875
53394SOL     OW62078   5.318   2.507   1.826
53394SOL    HW162079   5.368   2.518   1.745
53394SOL    HW262080   5.384   2.489   1.893
53395SOL     OW62081  13.754   8.208   7.152
53395SOL    HW162082  13.821   8.276   7.154
53395SOL    HW262083  13.802   8.126   7.165
53396SOL     OW62084   6.012  11.917   4.774
53396SOL    HW162085   6.066  11.842   4.750
53396SOL    HW262086   6.034  11.984   4.709
53397SOL     OW62087   7.790   3.233  13.845
53397SOL    HW162088   7.771   3.265  13.933
53397SOL    HW262089   7.834   3.149  13.860
53398SOL     OW62090   3.358   7.989  10.199
53398SOL    HW162091   3.394   8.043  10.129
53398SOL    HW262092   3.429   7.929  10.221
53399SOL     OW62093   0.238   4.745   0.974
53399SOL    HW162094   0.303   4.721   1.039
53399SOL    HW262095   0.288   4.758   0.893
53400SOL     OW62096  12.789   3.580   7.805
53400SOL    HW162097  12.790   3.667   7.846
53400SOL    HW262098  12.877   3.546   7.819
53401SOL     OW62099  11.445   8.530  10.039
53401SOL    HW162100  11.533   8.559  10.061
53401SOL    HW262101  11.387   8.595  10.081
53402SOL     OW62102   7.182   7.238  10.922
53402SOL    HW162103   7.233   7.199  10.851
53402SOL    HW262104   7.210   7.191  11.001
53403SOL     OW62105   5.053   3.198   6.773
53403SOL    HW162106   4.993   3.138   6.816
53403SOL    HW262107   5.013   3.216   6.688
53404SOL     OW62108  10.509  12.527   1.500
53404SOL    HW162109  10.587  12.562   1.543
53404SOL    HW262110  10.471  12.467   1.564
53405SOL     OW62111   2.091  13.879  14.512
53405SOL    HW162112   2.062  13.949  14.570
53405SOL    HW262113   2.070  13.798  14.559
53406SOL     OW62114   1.109   2.788   8.820
53406SOL    HW162115   1.112   2.809   8.727
53406SOL    HW262116   1.197   2.806   8.852
53407SOL     OW62117   2.317  12.995  13.984
53407SOL    HW162118   2.271  13.079  13.970
53407SOL    HW262119   2.313  12.952  13.899
53408SOL     OW62120   0.886   8.218   7.065
53408SOL    HW162121   0.966   8.230   7.014
53408SOL    HW262122   0.913   8.234   7.156
53409SOL     OW62123   7.052  10.410  13.185
53409SOL    HW162124   7.006  10.486  13.151
53409SOL    HW262125   6.990  10.337  13.175
53410SOL     OW62126   9.006   2.798   7.926
53410SOL    HW162127   9.046   2.830   7.845
53410SOL    HW262128   8.925   2.756   7.897
53411SOL     OW62129   3.758   3.235   7.261
53411SOL    HW162130   3.751   3.322   7.301
53411SOL    HW262131   3.812   3.249   7.183
53412SOL     OW62132   4.098  11.369  13.406
53412SOL    HW162133   4.072  11.358  13.497
53412SOL    HW262134   4.018  11.396  13.361
53413SOL     OW62135   6.631   0.071   8.234
53413SOL    HW162136   6.703   0.057   8.296
53413SOL    HW262137   6.666   0.040   8.150
53414SOL     OW62138   7.645   2.241   4.658
53414SOL    HW162139   7.668   2.148   4.657
53414SOL    HW262140   7.561   2.245   4.703
53415SOL     OW62141   7.455   3.143   0.047
53415SOL    HW162142   7.421   3.057   0.024
53415SOL    HW262143   7.478   3.136   0.140
53416SOL     OW62144   4.524   1.923   8.841
53416SOL    HW162145   4.464   1.901   8.912
53416SOL    HW262146   4.486   2.002   8.802
53417SOL     OW62147   5.966   3.493  10.795
53417SOL    HW162148   6.017   3.428  10.746
53417SOL    HW262149   5.950   3.563  10.732
53418SOL     OW62150  12.822   2.564   8.834
53418SOL    HW162151  12.738   2.601   8.861
53418SOL    HW262152  12.808   2.534   8.744
53419SOL     OW62153   3.998   5.477   5.203
53419SOL    HW162154   3.970   5.483   5.111
53419SOL    HW262155   3.920   5.496   5.253
53420SOL     OW62156  11.359   3.395   5.110
53420SOL    HW162157  11.405   3.314   5.088
53420SOL    HW262158  11.399   3.425   5.191
53421SOL     OW62159  12.917   5.607   2.120
53421SOL    HW162160  12.866   5.688   2.127
53421SOL    HW262161  13.007   5.635   2.140
53422SOL     OW62162   1.377   9.180  12.508
53422SOL    HW162163   1.436   9.133  12.450
53422SOL    HW262164   1.296   9.189  12.458
53423SOL     OW62165   4.174   5.010  11.397
53423SOL    HW162166   4.268   5.025  11.384
53423SOL    HW262167   4.147   5.079  11.457
53424SOL     OW62168   5.955   8.607  12.009
53424SOL    HW162169   5.874   8.560  12.028
53424SOL    HW262170   5.980   8.578  11.921
53425SOL     OW62171  11.640   5.250   1.778
53425SOL    HW162172  11.604   5.339   1.777
53425SOL    HW262173  11.591   5.205   1.846
53426SOL     OW62174   3.627   2.884   8.318
53426SOL    HW162175   3.565   2.821   8.282
53426SOL    HW262176   3.654   2.937   8.243
53427SOL     OW62177  10.709  12.479  12.848
53427SOL    HW162178  10.656  12.523  12.781
53427SOL    HW262179  10.705  12.538  12.924
53428SOL     OW62180   2.168   0.220   2.476
53428SOL    HW162181   2.212   0.209   2.391
53428SOL    HW262182   2.078   0.241   2.453
53429SOL     OW62183   0.011  14.872   9.156
53429SOL    HW162184  14.803  14.865   9.162
53429SOL    HW262185   0.040  14.783   9.137
53430SOL     OW62186   2.534   9.826   1.168
53430SOL    HW162187   2.589   9.788   1.236
53430SOL    HW262188   2.592   9.836   1.093
53431SOL     OW62189  10.891   0.112  10.944
53431SOL    HW162190  10.856   0.201  10.945
53431SOL    HW262191  10.870   0.077  11.031
53432SOL     OW62192   4.818   1.425   1.050
53432SOL    HW162193   4.734   1.428   1.095
53432SOL    HW262194   4.841   1.332   1.047
53433SOL     OW62195   1.106  12.610   8.328
53433SOL    HW162196   1.190  12.588   8.289
53433SOL    HW262197   1.079  12.691   8.285
53434SOL     OW62198  12.412   2.571   7.205
53434SOL    HW162199  12.438   2.574   7.113
53434SOL    HW262200  12.486   2.607   7.253
53435SOL     OW62201  12.357  12.059  14.610
53435SOL    HW162202  12.438  12.097  14.645
53435SOL    HW262203  12.385  11.997  14.543
53436SOL     OW62204  12.345   0.142   0.792
53436SOL    HW162205  12.401   0.206   0.838
53436SOL    HW262206  12.256   0.167   0.817
53437SOL     OW62207  11.399  14.644   7.107
53437SOL    HW162208  11.397  14.727   7.155
53437SOL    HW262209  11.306  14.623   7.092
53438SOL     OW62210  11.672  12.681   8.454
53438SOL    HW162211  11.724  12.690   8.534
53438SOL    HW262212  11.735  12.660   8.386
53439SOL     OW62213  12.546   5.677  10.754
53439SOL    HW162214  12.506   5.591  10.765
53439SOL    HW262215  12.476   5.733  10.720
53440SOL     OW62216   4.961  12.066   4.350
53440SOL    HW162217   5.018  12.116   4.291
53440SOL    HW262218   4.996  11.977   4.348
53441SOL     OW62219  11.518  14.746   3.099
53441SOL    HW162220  11.470  14.802   3.038
53441SOL    HW262221  11.579  14.697   3.045
53442SOL     OW62222   8.340  10.478   3.663
53442SOL    HW162223   8.373  10.555   3.617
53442SOL    HW262224   8.412  10.452   3.721
53443SOL     OW62225   5.437  11.299  13.524
53443SOL    HW162226   5.393  11.269  13.604
53443SOL    HW262227   5.463  11.219  13.480
53444SOL     OW62228   3.856  14.064   0.814
53444SOL    HW162229   3.885  14.154   0.801
53444SOL    HW262230   3.793  14.069   0.886
53445SOL     OW62231   3.659  14.408  13.447
53445SOL    HW162232   3.738  14.459  13.465
53445SOL    HW262233   3.678  14.320  13.481
53446SOL     OW62234   9.882   8.237   7.040
53446SOL    HW162235   9.893   8.193   6.955
53446SOL    HW262236   9.847   8.323   7.018
53447SOL     OW62237   6.864   4.641  11.081
53447SOL    HW162238   6.894   4.672  10.996
53447SOL    HW262239   6.945   4.622  11.129
53448SOL     OW62240   3.974  12.246   4.177
53448SOL    HW162241   4.019  12.182   4.233
53448SOL    HW262242   3.881  12.230   4.192
53449SOL     OW62243   3.514   1.091   2.261
53449SOL    HW162244   3.567   1.011   2.255
53449SOL    HW262245   3.454   1.085   2.187
53450SOL     OW62246   4.855  12.816  10.547
53450SOL    HW162247   4.863  12.735  10.598
53450SOL    HW262248   4.874  12.790  10.457
53451SOL     OW62249   8.477  10.699   1.392
53451SOL    HW162250   8.386  10.701   1.422
53451SOL    HW262251   8.519  10.772   1.438
53452SOL     OW62252   9.541   5.398   0.951
53452SOL    HW162253   9.551   5.390   1.046
53452SOL    HW262254   9.447   5.407   0.937
53453SOL     OW62255  10.083  13.426  11.041
53453SOL    HW162256  10.103  13.480  11.117
53453SOL    HW262257  10.165  13.380  11.022
53454SOL     OW62258  14.733  10.653   5.982
53454SOL    HW162259  14.689  10.575   5.948
53454SOL    HW262260  14.802  10.671   5.917
53455SOL     OW62261   4.638   3.112  14.373
53455SOL    HW162262   4.674   3.190  14.414
53455SOL    HW262263   4.676   3.039  14.423
53456SOL     OW62264   1.619   5.361  12.719
53456SOL    HW162265   1.601   5.442  12.765
53456SOL    HW262266   1.532   5.325  12.699
53457SOL     OW62267   9.018   4.067   5.463
53457SOL    HW162268   9.014   3.972   5.476
53457SOL    HW262269   9.045   4.101   5.549
53458SOL     OW62270   7.737  14.706  13.398
53458SOL    HW162271   7.762  14.685  13.488
53458SOL    HW262272   7.803  14.662  13.344
53459SOL     OW62273   7.446  14.139   8.823
53459SOL    HW162274   7.447  14.072   8.755
53459SOL    HW262275   7.429  14.220   8.775
53460SOL     OW62276  14.527  10.952  10.563
53460SOL    HW162277  14.584  11.026  10.542
53460SOL    HW262278  14.556  10.921  10.648
53461SOL     OW62279  12.712   5.263   9.206
53461SOL    HW162280  12.643   5.231   9.148
53461SOL    HW262281  12.790   5.268   9.151
53462SOL     OW62282   3.288  11.292   7.002
53462SOL    HW162283   3.318  11.375   7.040
53462SOL    HW262284   3.327  11.225   7.058
53463SOL     OW62285   4.218   0.084   8.022
53463SOL    HW162286   4.272   0.134   8.083
53463SOL    HW262287   4.279   0.055   7.954
53464SOL     OW62288  10.082   1.114  11.139
53464SOL    HW162289  10.125   1.034  11.109
53464SOL    HW262290  10.026   1.139  11.066
53465SOL     OW62291   0.741  12.118   6.595
53465SOL    HW162292   0.669  12.158   6.547
53465SOL    HW262293   0.810  12.106   6.530
53466SOL     OW62294   4.185   7.966   5.364
53466SOL    HW162295   4.228   7.962   5.450
53466SOL    HW262296   4.172   7.874   5.339
53467SOL     OW62297   1.750  12.503   2.373
53467SOL    HW162298   1.701  12.553   2.307
53467SOL    HW262299   1.688  12.437   2.405
53468SOL     OW62300   2.678   0.573  10.653
53468SOL    HW162301   2.663   0.623  10.734
53468SOL    HW262302   2.752   0.516  10.674
53469SOL     OW62303   1.272  11.876  13.968
53469SOL    HW162304   1.227  11.799  14.003
53469SOL    HW262305   1.365  11.853  13.968
53470SOL     OW62306   4.051   0.462   5.983
53470SOL    HW162307   4.016   0.373   5.991
53470SOL    HW262308   3.986   0.518   6.026
53471SOL     OW62309   1.263   0.576   9.694
53471SOL    HW162310   1.328   0.543   9.632
53471SOL    HW262311   1.182   0.529   9.670
53472SOL     OW62312   9.819   1.202  13.380
53472SOL    HW162313   9.904   1.198  13.424
53472SOL    HW262314   9.784   1.288  13.402
53473SOL     OW62315   4.569  14.424   3.096
53473SOL    HW162316   4.661  14.413   3.121
53473SOL    HW262317   4.526  14.343   3.126
53474SOL     OW62318   0.804  12.125  13.202
53474SOL    HW162319   0.803  12.157  13.111
53474SOL    HW262320   0.867  12.053  13.201
53475SOL     OW62321   3.794   1.011  14.264
53475SOL    HW162322   3.848   0.960  14.324
53475SOL    HW262323   3.726   1.049  14.319
53476SOL     OW62324   0.911   0.279  10.336
53476SOL    HW162325   0.919   0.338  10.261
53476SOL    HW262326   0.944   0.195  10.304
53477SOL     OW62327   2.801   4.074   2.439
53477SOL    HW162328   2.709   4.077   2.412
53477SOL    HW262329   2.812   4.149   2.496
53478SOL     OW62330   9.525   0.327  10.816
53478SOL    HW162331   9.532   0.238  10.852
53478SOL    HW262332   9.581   0.326  10.739
53479SOL     OW62333   0.525   5.285   1.242
53479SOL    HW162334   0.606   5.317   1.280
53479SOL    HW262335   0.480   5.363   1.211
53480SOL     OW62336   7.080  10.732  12.578
53480SOL    HW162337   7.033  10.655  12.545
53480SOL    HW262338   7.109  10.778  12.499
53481SOL     OW62339  12.861   5.393  13.792
53481SOL    HW162340  12.938   5.389  13.735
53481SOL    HW262341  12.890   5.445  13.867
53482SOL     OW62342  10.379   7.591   6.506
53482SOL    HW162343  10.286   7.577   6.523
53482SOL    HW262344  10.381   7.669   6.451
53483SOL     OW62345  10.876   1.118  11.764
53483SOL    HW162346  10.939   1.068  11.818
53483SOL    HW262347  10.792   1.101  11.806
53484SOL     OW62348   6.644   2.112  13.009
53484SOL    HW162349   6.734   2.086  13.025
53484SOL    HW262350   6.605   2.123  13.096
53485SOL     OW62351   9.543  11.298   6.109
53485SOL    HW162352   9.580  11.382   6.139
53485SOL    HW262353   9.508  11.317   6.022
53486SOL     OW62354   8.162   9.492   8.338
53486SOL    HW162355   8.211   9.416   8.370
53486SOL    HW262356   8.134   9.467   8.250
53487SOL     OW62357  11.493   0.906   1.554
53487SOL    HW162358  11.531   0.824   1.587
53487SOL    HW262359  11.465   0.885   1.465
53488SOL     OW62360   5.894  10.387   6.882
53488SOL    HW162361   5.922  10.298   6.904
53488SOL    HW262362   5.829  10.408   6.950
53489SOL     OW62363   0.679   5.649   8.415
53489SOL    HW162364   0.663   5.739   8.389
53489SOL    HW262365   0.633   5.639   8.498
53490SOL     OW62366  10.512   6.889   6.608
53490SOL    HW162367  10.593   6.865   6.652
53490SOL    HW262368  10.443   6.866   6.670
53491SOL     OW62369   5.683   1.536   0.145
53491SOL    HW162370   5.732   1.532   0.063
53491SOL    HW262371   5.749   1.550   0.212
53492SOL     OW62372   1.277   9.202  13.766
53492SOL    HW162373   1.290   9.256  13.688
53492SOL    HW262374   1.238   9.262  13.830
53493SOL     OW62375   4.497  12.424   4.031
53493SOL    HW162376   4.527  12.334   4.018
53493SOL    HW262377   4.402  12.418   4.019
53494SOL     OW62378  11.960   8.296   3.402
53494SOL    HW162379  12.031   8.341   3.449
53494SOL    HW262380  12.004   8.223   3.358
53495SOL     OW62381   1.866   7.595  11.565
53495SOL    HW162382   1.940   7.624  11.511
53495SOL    HW262383   1.899   7.518  11.610
53496SOL     OW62384   2.916  10.592   0.641
53496SOL    HW162385   2.820  10.599   0.632
53496SOL    HW262386   2.947  10.683   0.638
53497SOL     OW62387   5.044   6.003   0.722
53497SOL    HW162388   5.091   6.046   0.651
53497SOL    HW262389   4.952   6.025   0.706
53498SOL     OW62390   9.016   0.321  12.393
53498SOL    HW162391   8.949   0.368  12.444
53498SOL    HW262392   9.013   0.363  12.307
53499SOL     OW62393  14.244   5.128   6.422
53499SOL    HW162394  14.180   5.172   6.366
53499SOL    HW262395  14.208   5.040   6.434
53500SOL     OW62396  11.631   4.364   3.360
53500SOL    HW162397  11.648   4.270   3.361
53500SOL    HW262398  11.538   4.370   3.339
53501SOL     OW62399  10.899  14.526   5.897
53501SOL    HW162400  10.866  14.507   5.985
53501SOL    HW262401  10.833  14.488   5.838
53502SOL     OW62402   2.905  11.147  10.001
53502SOL    HW162403   2.902  11.051   9.995
53502SOL    HW262404   2.945  11.175   9.918
53503SOL     OW62405   0.994  14.802   3.914
53503SOL    HW162406   1.051  14.865   3.870
53503SOL    HW262407   0.958  14.748   3.844
53504SOL     OW62408   7.333  13.299   7.640
53504SOL    HW162409   7.241  13.275   7.648
53504SOL    HW262410   7.333  13.394   7.629
53505SOL     OW62411   2.970  11.257   6.065
53505SOL    HW162412   2.919  11.252   5.984
53505SOL    HW262413   2.905  11.275   6.132
53506SOL     OW62414   5.067   6.544  12.223
53506SOL    HW162415   5.097   6.504  12.305
53506SOL    HW262416   5.140   6.533  12.163
53507SOL     OW62417   2.637   9.435   6.441
53507SOL    HW162418   2.572   9.369   6.416
53507SOL    HW262419   2.601   9.518   6.409
53508SOL     OW62420   2.714   8.859   5.151
53508SOL    HW162421   2.706   8.811   5.233
53508SOL    HW262422   2.778   8.927   5.169
53509SOL     OW62423   3.108   9.275   5.614
53509SOL    HW162424   3.108   9.203   5.551
53509SOL    HW262425   3.052   9.245   5.685
53510SOL     OW62426  13.528  14.739   4.902
53510SOL    HW162427  13.475  14.718   4.979
53510SOL    HW262428  13.469  14.789   4.845
53511SOL     OW62429   3.803  10.934  12.389
53511SOL    HW162430   3.814  10.959  12.298
53511SOL    HW262431   3.768  11.012  12.432
53512SOL     OW62432   0.418   4.658   7.442
53512SOL    HW162433   0.365   4.583   7.415
53512SOL    HW262434   0.481   4.669   7.370
53513SOL     OW62435  10.645   4.558   6.743
53513SOL    HW162436  10.718   4.611   6.709
53513SOL    HW262437  10.605   4.614   6.810
53514SOL     OW62438  12.990   8.374  10.284
53514SOL    HW162439  12.924   8.435  10.253
53514SOL    HW262440  13.024   8.332  10.205
53515SOL     OW62441  12.183   1.408   1.396
53515SOL    HW162442  12.269   1.450   1.397
53515SOL    HW262443  12.138   1.444   1.473
53516SOL     OW62444   2.578   9.567   9.469
53516SOL    HW162445   2.635   9.516   9.526
53516SOL    HW262446   2.588   9.657   9.500
53517SOL     OW62447  13.469   8.315   0.154
53517SOL    HW162448  13.537   8.327   0.089
53517SOL    HW262449  13.389   8.347   0.113
53518SOL     OW62450   8.081   7.881   9.732
53518SOL    HW162451   8.082   7.914   9.642
53518SOL    HW262452   7.992   7.900   9.763
53519SOL     OW62453  13.543  14.718   1.032
53519SOL    HW162454  13.502  14.770   1.102
53519SOL    HW262455  13.628  14.759   1.017
53520SOL     OW62456  10.105   0.593  12.237
53520SOL    HW162457  10.090   0.688  12.234
53520SOL    HW262458  10.035   0.560  12.294
53521SOL     OW62459   5.101   4.260   3.065
53521SOL    HW162460   5.146   4.330   3.112
53521SOL    HW262461   5.172   4.213   3.020
53522SOL     OW62462   9.259  12.816  11.074
53522SOL    HW162463   9.226  12.780  11.157
53522SOL    HW262464   9.235  12.750  11.008
53523SOL     OW62465   7.994   0.260  10.883
53523SOL    HW162466   7.997   0.203  10.806
53523SOL    HW262467   8.083   0.255  10.919
53524SOL     OW62468   9.888   2.205   1.820
53524SOL    HW162469   9.950   2.211   1.748
53524SOL    HW262470   9.847   2.119   1.810
53525SOL     OW62471   9.129  10.464   8.131
53525SOL    HW162472   9.058  10.444   8.191
53525SOL    HW262473   9.196  10.398   8.149
53526SOL     OW62474  14.790  13.738   2.292
53526SOL    HW162475  14.869  13.698   2.327
53526SOL    HW262476  14.818  13.824   2.261
53527SOL     OW62477   0.661  13.806  13.049
53527SOL    HW162478   0.605  13.870  13.092
53527SOL    HW262479   0.627  13.800  12.960
53528SOL     OW62480   1.878   0.916   8.949
53528SOL    HW162481   1.871   0.956   9.035
53528SOL    HW262482   1.815   0.843   8.952
53529SOL     OW62483  10.745   6.082   0.304
53529SOL    HW162484  10.698   6.018   0.357
53529SOL    HW262485  10.810   6.119   0.363
53530SOL     OW62486  13.627   5.504   1.635
53530SOL    HW162487  13.720   5.508   1.658
53530SOL    HW262488  13.591   5.437   1.693
53531SOL     OW62489  10.656   7.967   9.898
53531SOL    HW162490  10.617   7.902   9.840
53531SOL    HW262491  10.650   8.049   9.850
53532SOL     OW62492  11.251   9.922   6.340
53532SOL    HW162493  11.181   9.865   6.371
53532SOL    HW262494  11.327   9.897   6.393
53533SOL     OW62495   4.977   8.189  11.115
53533SOL    HW162496   4.903   8.202  11.054
53533SOL    HW262497   4.951   8.114  11.168
53534SOL     OW62498   6.480   2.794  14.054
53534SOL    HW162499   6.522   2.804  13.968
53534SOL    HW262500   6.480   2.882  14.091
53535SOL     OW62501   4.631   9.990   4.946
53535SOL    HW162502   4.586  10.025   5.023
53535SOL    HW262503   4.561   9.981   4.880
53536SOL     OW62504  13.360  11.538   7.975
53536SOL    HW162505  13.428  11.526   7.909
53536SOL    HW262506  13.293  11.473   7.952
53537SOL     OW62507   7.611  11.806   4.521
53537SOL    HW162508   7.587  11.743   4.589
53537SOL    HW262509   7.589  11.762   4.438
53538SOL     OW62510   9.352   0.370   2.403
53538SOL    HW162511   9.279   0.344   2.460
53538SOL    HW262512   9.411   0.420   2.460
53539SOL     OW62513  13.172  12.463   6.953
53539SOL    HW162514  13.113  12.387   6.956
53539SOL    HW262515  13.238  12.439   6.888
53540SOL     OW62516   7.058   4.667   1.183
53540SOL    HW162517   6.992   4.719   1.136
53540SOL    HW262518   7.045   4.690   1.275
53541SOL     OW62519   4.969   6.403  11.963
53541SOL    HW162520   4.951   6.311  11.945
53541SOL    HW262521   5.064   6.407  11.975
53542SOL     OW62522   8.743  10.431   6.034
53542SOL    HW162523   8.743  10.522   6.003
53542SOL    HW262524   8.701  10.381   5.964
53543SOL     OW62525   2.848   7.500   8.291
53543SOL    HW162526   2.769   7.475   8.338
53543SOL    HW262527   2.818   7.563   8.225
53544SOL     OW62528   8.472   0.303   7.966
53544SOL    HW162529   8.418   0.303   7.887
53544SOL    HW262530   8.436   0.233   8.019
53545SOL     OW62531  14.322   2.429  12.433
53545SOL    HW162532  14.249   2.367  12.432
53545SOL    HW262533  14.356   2.426  12.344
53546SOL     OW62534   2.431   8.501  11.962
53546SOL    HW162535   2.472   8.532  12.043
53546SOL    HW262536   2.450   8.408  11.960
53547SOL     OW62537  11.639   3.942  13.309
53547SOL    HW162538  11.562   3.928  13.253
53547SOL    HW262539  11.713   3.911  13.256
53548SOL     OW62540   3.432   5.431  14.678
53548SOL    HW162541   3.491   5.502  14.654
53548SOL    HW262542   3.491   5.358  14.701
53549SOL     OW62543   7.950  11.739  11.313
53549SOL    HW162544   7.859  11.716  11.331
53549SOL    HW262545   7.993  11.734  11.398
53550SOL     OW62546  13.609   4.348   2.607
53550SOL    HW162547  13.595   4.258   2.639
53550SOL    HW262548  13.700   4.366   2.629
53551SOL     OW62549   8.099   5.593   8.275
53551SOL    HW162550   8.072   5.638   8.196
53551SOL    HW262551   8.173   5.539   8.248
53552SOL     OW62552   3.381   7.597  10.996
53552SOL    HW162553   3.313   7.568  10.936
53552SOL    HW262554   3.462   7.560  10.960
53553SOL     OW62555   5.362   3.301  13.332
53553SOL    HW162556   5.274   3.335  13.319
53553SOL    HW262557   5.360   3.212  13.295
53554SOL     OW62558   9.476   6.663   8.025
53554SOL    HW162559   9.467   6.636   7.933
53554SOL    HW262560   9.547   6.607   8.059
53555SOL     OW62561  14.146   4.761   8.589
53555SOL    HW162562  14.090   4.831   8.555
53555SOL    HW262563  14.096   4.681   8.572
53556SOL     OW62564  10.322   8.022   9.355
53556SOL    HW162565  10.302   7.939   9.398
53556SOL    HW262566  10.236   8.061   9.339
53557SOL     OW62567  11.510   0.344   3.480
53557SOL    HW162568  11.417   0.369   3.482
53557SOL    HW262569  11.546   0.393   3.406
53558SOL     OW62570   3.111   0.277  14.883
53558SOL    HW162571   3.069   0.225  14.814
53558SOL    HW262572   3.085   0.235   0.077
53559SOL     OW62573   8.238  13.841   9.214
53559SOL    HW162574   8.159  13.889   9.239
53559SOL    HW262575   8.226  13.823   9.121
53560SOL     OW62576   5.778   5.457   6.961
53560SOL    HW162577   5.775   5.533   7.019
53560SOL    HW262578   5.852   5.474   6.903
53561SOL     OW62579  14.138   8.402   3.983
53561SOL    HW162580  14.115   8.474   4.041
53561SOL    HW262581  14.056   8.380   3.939
53562SOL     OW62582   1.239   5.513  13.515
53562SOL    HW162583   1.246   5.606  13.537
53562SOL    HW262584   1.162   5.482  13.563
53563SOL     OW62585   3.437  13.457  14.495
53563SOL    HW162586   3.480  13.386  14.543
53563SOL    HW262587   3.349  13.424  14.477
53564SOL     OW62588   3.581  11.397   0.927
53564SOL    HW162589   3.666  11.430   0.897
53564SOL    HW262590   3.580  11.412   1.021
53565SOL     OW62591  13.922   7.082   1.922
53565SOL    HW162592  14.013   7.052   1.926
53565SOL    HW262593  13.874   7.019   1.976
53566SOL     OW62594   6.048  11.427   9.216
53566SOL    HW162595   5.964  11.382   9.218
53566SOL    HW262596   6.042  11.492   9.286
53567SOL     OW62597  14.333   3.558   4.693
53567SOL    HW162598  14.295   3.625   4.750
53567SOL    HW262599  14.375   3.607   4.623
53568SOL     OW62600  13.279   2.542   3.391
53568SOL    HW162601  13.287   2.580   3.478
53568SOL    HW262602  13.189   2.510   3.387
53569SOL     OW62603  13.770  14.630  12.553
53569SOL    HW162604  13.722  14.681  12.489
53569SOL    HW262605  13.838  14.689  12.585
53570SOL     OW62606  13.205  13.308   3.393
53570SOL    HW162607  13.201  13.234   3.454
53570SOL    HW262608  13.277  13.362   3.425
53571SOL     OW62609   8.390  14.829   9.790
53571SOL    HW162610   8.412   0.023   9.836
53571SOL    HW262611   8.471  14.805   9.744
53572SOL     OW62612   5.467   3.136   1.821
53572SOL    HW162613   5.462   3.076   1.746
53572SOL    HW262614   5.560   3.142   1.840
53573SOL     OW62615   6.211   7.893   2.049
53573SOL    HW162616   6.264   7.943   2.111
53573SOL    HW262617   6.164   7.959   1.999
53574SOL     OW62618   8.395   1.153   0.225
53574SOL    HW162619   8.434   1.200   0.151
53574SOL    HW262620   8.469   1.125   0.278
53575SOL     OW62621  14.775  11.667  12.219
53575SOL    HW162622  14.777  11.635  12.129
53575SOL    HW262623  14.743  11.757  12.213
53576SOL     OW62624  12.893   5.306   9.820
53576SOL    HW162625  12.923   5.390   9.854
53576SOL    HW262626  12.973   5.261   9.794
53577SOL     OW62627  10.236   1.695  12.515
53577SOL    HW162628  10.221   1.616  12.464
53577SOL    HW262629  10.306   1.672  12.575
53578SOL     OW62630   9.529   9.147   7.565
53578SOL    HW162631   9.591   9.084   7.531
53578SOL    HW262632   9.531   9.220   7.502
53579SOL     OW62633   1.156   7.577   1.052
53579SOL    HW162634   1.094   7.649   1.037
53579SOL    HW262635   1.116   7.502   1.007
53580SOL     OW62636  12.630   6.551  10.800
53580SOL    HW162637  12.549   6.520  10.841
53580SOL    HW262638  12.624   6.646  10.802
53581SOL     OW62639   4.273  11.880   2.696
53581SOL    HW162640   4.215  11.808   2.670
53581SOL    HW262641   4.216  11.942   2.742
53582SOL     OW62642   7.737   2.130   6.142
53582SOL    HW162643   7.792   2.121   6.064
53582SOL    HW262644   7.713   2.040   6.165
53583SOL     OW62645   4.383   8.567   5.373
53583SOL    HW162646   4.315   8.566   5.305
53583SOL    HW262647   4.396   8.660   5.393
53584SOL     OW62648   8.710   0.341   7.848
53584SOL    HW162649   8.643   0.339   7.916
53584SOL    HW262650   8.784   0.386   7.889
53585SOL     OW62651   3.602  10.615  13.737
53585SOL    HW162652   3.651  10.667  13.673
53585SOL    HW262653   3.594  10.672  13.813
53586SOL     OW62654   9.218  10.646   9.928
53586SOL    HW162655   9.206  10.629   9.834
53586SOL    HW262656   9.205  10.741   9.937
53587SOL     OW62657   0.526   2.078   2.701
53587SOL    HW162658   0.492   2.164   2.676
53587SOL    HW262659   0.526   2.027   2.620
53588SOL     OW62660  14.238   2.838  10.970
53588SOL    HW162661  14.157   2.808  10.929
53588SOL    HW262662  14.275   2.899  10.906
53589SOL     OW62663  12.193   9.382   1.176
53589SOL    HW162664  12.244   9.422   1.246
53589SOL    HW262665  12.151   9.456   1.131
53590SOL     OW62666  13.137  13.103   4.890
53590SOL    HW162667  13.122  13.070   4.978
53590SOL    HW262668  13.230  13.088   4.874
53591SOL     OW62669   9.485   9.144   2.742
53591SOL    HW162670   9.467   9.142   2.648
53591SOL    HW262671   9.525   9.059   2.761
53592SOL     OW62672  12.258   5.084  12.741
53592SOL    HW162673  12.262   5.008  12.683
53592SOL    HW262674  12.196   5.060  12.810
53593SOL     OW62675   0.237  12.053   4.768
53593SOL    HW162676   0.326  12.057   4.734
53593SOL    HW262677   0.205  12.143   4.759
53594SOL     OW62678   4.621   7.759   0.431
53594SOL    HW162679   4.699   7.721   0.392
53594SOL    HW262680   4.552   7.745   0.366
53595SOL     OW62681   1.046   3.522   2.688
53595SOL    HW162682   1.040   3.458   2.617
53595SOL    HW262683   1.028   3.606   2.646
53596SOL     OW62684  11.913   0.352   7.500
53596SOL    HW162685  11.986   0.334   7.560
53596SOL    HW262686  11.858   0.274   7.506
53597SOL     OW62687   6.087   7.446   3.388
53597SOL    HW162688   5.996   7.470   3.406
53597SOL    HW262689   6.132   7.457   3.471
53598SOL     OW62690   2.436  13.391  12.213
53598SOL    HW162691   2.475  13.392  12.300
53598SOL    HW262692   2.362  13.451  12.218
53599SOL     OW62693   2.610   0.517  11.966
53599SOL    HW162694   2.526   0.502  12.010
53599SOL    HW262695   2.676   0.487  12.028
53600SOL     OW62696   5.889   6.403   5.720
53600SOL    HW162697   5.826   6.362   5.780
53600SOL    HW262698   5.916   6.332   5.662
53601SOL     OW62699  10.189   7.046  11.016
53601SOL    HW162700  10.113   7.101  10.996
53601SOL    HW262701  10.243   7.049  10.936
53602SOL     OW62702   8.246  10.838  12.663
53602SOL    HW162703   8.255  10.743  12.658
53602SOL    HW262704   8.198  10.853  12.745
53603SOL     OW62705   0.612   5.169   4.190
53603SOL    HW162706   0.662   5.123   4.258
53603SOL    HW262707   0.521   5.153   4.212
53604SOL     OW62708   1.311  11.536   5.498
53604SOL    HW162709   1.349  11.504   5.580
53604SOL    HW262710   1.235  11.481   5.484
53605SOL     OW62711  14.156   1.140   5.143
53605SOL    HW162712  14.167   1.045   5.151
53605SOL    HW262713  14.221   1.176   5.203
53606SOL     OW62714  11.554   3.765   5.378
53606SOL    HW162715  11.559   3.860   5.365
53606SOL    HW262716  11.546   3.730   5.290
53607SOL     OW62717   4.358  12.296  11.925
53607SOL    HW162718   4.417  12.300  12.001
53607SOL    HW262719   4.270  12.300  11.962
53608SOL     OW62720   3.356   7.987  12.720
53608SOL    HW162721   3.378   7.931  12.795
53608SOL    HW262722   3.404   7.949  12.647
53609SOL     OW62723   1.989   6.810   6.463
53609SOL    HW162724   2.083   6.826   6.450
53609SOL    HW262725   1.985   6.720   6.494
53610SOL     OW62726  12.235   9.253  12.088
53610SOL    HW162727  12.210   9.205  12.167
53610SOL    HW262728  12.161   9.242  12.029
53611SOL     OW62729   5.063  13.241  14.680
53611SOL    HW162730   5.101  13.186  14.612
53611SOL    HW262731   5.138  13.269  14.733
53612SOL     OW62732   6.807   4.848  12.150
53612SOL    HW162733   6.749   4.786  12.106
53612SOL    HW262734   6.754   4.927  12.161
53613SOL     OW62735   2.189   7.758  13.392
53613SOL    HW162736   2.223   7.811  13.464
53613SOL    HW262737   2.217   7.669  13.413
53614SOL     OW62738  10.477   3.581   1.247
53614SOL    HW162739  10.406   3.518   1.261
53614SOL    HW262740  10.552   3.542   1.292
53615SOL     OW62741   2.638  10.598   5.196
53615SOL    HW162742   2.701  10.640   5.138
53615SOL    HW262743   2.601  10.527   5.143
53616SOL     OW62744  12.095   0.027  14.214
53616SOL    HW162745  12.149   0.064  14.144
53616SOL    HW262746  12.143  14.838  14.243
53617SOL     OW62747   3.556  12.059  13.694
53617SOL    HW162748   3.536  11.969  13.719
53617SOL    HW262749   3.649  12.057  13.671
53618SOL     OW62750   3.504   7.028  12.759
53618SOL    HW162751   3.428   7.056  12.810
53618SOL    HW262752   3.515   7.097  12.694
53619SOL     OW62753   2.851  12.943   2.691
53619SOL    HW162754   2.787  12.900   2.633
53619SOL    HW262755   2.888  13.013   2.637
53620SOL     OW62756   8.967  13.740  13.535
53620SOL    HW162757   8.890  13.719  13.588
53620SOL    HW262758   8.953  13.693  13.453
53621SOL     OW62759   1.938   6.739   3.837
53621SOL    HW162760   1.896   6.823   3.818
53621SOL    HW262761   1.866   6.683   3.866
53622SOL     OW62762   4.139   0.525   8.268
53622SOL    HW162763   4.209   0.589   8.284
53622SOL    HW262764   4.163   0.450   8.322
53623SOL     OW62765   0.665  13.121  11.435
53623SOL    HW162766   0.625  13.068  11.366
53623SOL    HW262767   0.601  13.190  11.451
53624SOL     OW62768  14.866   7.095   9.857
53624SOL    HW162769   0.073   7.106   9.844
53624SOL    HW262770  14.826   7.168   9.810
53625SOL     OW62771   0.575   6.038   3.784
53625SOL    HW162772   0.625   6.119   3.789
53625SOL    HW262773   0.557   6.016   3.875
53626SOL     OW62774   4.099  12.410   3.452
53626SOL    HW162775   4.044  12.457   3.389
53626SOL    HW262776   4.188  12.439   3.431
53627SOL     OW62777   0.332  12.391   7.421
53627SOL    HW162778   0.349  12.440   7.341
53627SOL    HW262779   0.252  12.341   7.402
53628SOL     OW62780   9.704   8.317   8.675
53628SOL    HW162781   9.779   8.277   8.632
53628SOL    HW262782   9.739   8.359   8.753
53629SOL     OW62783   8.432  11.880   8.659
53629SOL    HW162784   8.375  11.913   8.729
53629SOL    HW262785   8.510  11.934   8.665
53630SOL     OW62786  12.183   5.954   0.586
53630SOL    HW162787  12.151   5.983   0.671
53630SOL    HW262788  12.204   5.861   0.598
53631SOL     OW62789  13.861   6.461  13.081
53631SOL    HW162790  13.856   6.501  12.994
53631SOL    HW262791  13.783   6.493  13.126
53632SOL     OW62792   1.683   9.685  13.566
53632SOL    HW162793   1.643   9.673  13.480
53632SOL    HW262794   1.667   9.601  13.611
53633SOL     OW62795   9.526  10.200   1.350
53633SOL    HW162796   9.459  10.268   1.352
53633SOL    HW262797   9.608  10.247   1.367
53634SOL     OW62798   7.673   1.859   9.135
53634SOL    HW162799   7.683   1.814   9.051
53634SOL    HW262800   7.762   1.861   9.172
53635SOL     OW62801  12.618   3.589   6.045
53635SOL    HW162802  12.582   3.671   6.077
53635SOL    HW262803  12.647   3.542   6.123
53636SOL     OW62804   6.479   2.604   2.100
53636SOL    HW162805   6.546   2.555   2.052
53636SOL    HW262806   6.435   2.656   2.032
53637SOL     OW62807  14.183  10.574   9.279
53637SOL    HW162808  14.110  10.592   9.220
53637SOL    HW262809  14.258  10.562   9.221
53638SOL     OW62810  13.380   9.717   0.296
53638SOL    HW162811  13.408   9.641   0.246
53638SOL    HW262812  13.429   9.790   0.259
53639SOL     OW62813  10.579  12.689   4.792
53639SOL    HW162814  10.587  12.783   4.808
53639SOL    HW262815  10.553  12.651   4.876
53640SOL     OW62816  10.874  10.031   9.830
53640SOL    HW162817  10.941  10.066   9.772
53640SOL    HW262818  10.884   9.936   9.824
53641SOL     OW62819  13.001   7.719   3.358
53641SOL    HW162820  12.944   7.668   3.415
53641SOL    HW262821  12.982   7.810   3.380
53642SOL     OW62822  10.088  14.772   3.451
53642SOL    HW162823  10.179  14.786   3.427
53642SOL    HW262824  10.046  14.857   3.439
53643SOL     OW62825   0.722   5.479  11.908
53643SOL    HW162826   0.627   5.495  11.908
53643SOL    HW262827   0.731   5.391  11.945
53644SOL     OW62828   1.043  14.778   6.184
53644SOL    HW162829   0.972  14.838   6.162
53644SOL    HW262830   1.018  14.741   6.269
53645SOL     OW62831   3.442   8.098   5.969
53645SOL    HW162832   3.374   8.107   6.036
53645SOL    HW262833   3.524   8.111   6.016
53646SOL     OW62834  10.553  10.708   1.971
53646SOL    HW162835  10.469  10.747   1.950
53646SOL    HW262836  10.538  10.614   1.963
53647SOL     OW62837   2.156   1.576  11.890
53647SOL    HW162838   2.250   1.592  11.897
53647SOL    HW262839   2.135   1.523  11.967
53648SOL     OW62840   2.869   8.216   7.803
53648SOL    HW162841   2.866   8.278   7.731
53648SOL    HW262842   2.925   8.145   7.772
53649SOL     OW62843   4.686  12.777   5.497
53649SOL    HW162844   4.726  12.844   5.442
53649SOL    HW262845   4.754  12.710   5.507
53650SOL     OW62846  10.917   2.486   4.580
53650SOL    HW162847  10.902   2.512   4.489
53650SOL    HW262848  10.873   2.401   4.588
53651SOL     OW62849   6.233   6.773  12.810
53651SOL    HW162850   6.164   6.793  12.873
53651SOL    HW262851   6.186   6.752  12.729
53652SOL     OW62852   6.258   9.977  11.978
53652SOL    HW162853   6.218   9.964  11.892
53652SOL    HW262854   6.199   9.932  12.039
53653SOL     OW62855  14.016  11.338  10.894
53653SOL    HW162856  14.076  11.264  10.882
53653SOL    HW262857  13.997  11.339  10.988
53654SOL     OW62858   7.427   4.380   5.482
53654SOL    HW162859   7.400   4.370   5.573
53654SOL    HW262860   7.365   4.442   5.445
53655SOL     OW62861   3.386   1.257   2.808
53655SOL    HW162862   3.459   1.201   2.833
53655SOL    HW262863   3.406   1.283   2.718
53656SOL     OW62864   5.944   7.043   8.292
53656SOL    HW162865   6.039   7.040   8.305
53656SOL    HW262866   5.908   6.993   8.365
53657SOL     OW62867   5.451  13.363   2.257
53657SOL    HW162868   5.521  13.307   2.290
53657SOL    HW262869   5.425  13.324   2.174
53658SOL     OW62870   4.991  10.885   8.633
53658SOL    HW162871   4.953  10.882   8.721
53658SOL    HW262872   4.982  10.795   8.601
53659SOL     OW62873   4.489  10.003   6.801
53659SOL    HW162874   4.414  10.057   6.779
53659SOL    HW262875   4.456   9.940   6.865
53660SOL     OW62876  10.263   7.883  13.068
53660SOL    HW162877  10.269   7.882  13.163
53660SOL    HW262878  10.330   7.821  13.039
53661SOL     OW62879  11.315  10.531   9.852
53661SOL    HW162880  11.284  10.462   9.793
53661SOL    HW262881  11.300  10.496   9.940
53662SOL     OW62882   7.218   8.620   3.469
53662SOL    HW162883   7.142   8.565   3.490
53662SOL    HW262884   7.254   8.644   3.554
53663SOL     OW62885  14.156   8.015  10.707
53663SOL    HW162886  14.188   7.961  10.635
53663SOL    HW262887  14.065   7.988  10.718
53664SOL     OW62888  12.780   0.788  12.855
53664SOL    HW162889  12.790   0.699  12.822
53664SOL    HW262890  12.685   0.801  12.859
53665SOL     OW62891  11.074  13.607   2.143
53665SOL    HW162892  11.058  13.638   2.054
53665SOL    HW262893  11.011  13.535   2.154
53666SOL     OW62894  11.781   2.582   7.926
53666SOL    HW162895  11.850   2.624   7.874
53666SOL    HW262896  11.824   2.508   7.968
53667SOL     OW62897   0.957   3.267   8.633
53667SOL    HW162898   0.993   3.323   8.564
53667SOL    HW262899   0.862   3.279   8.626
53668SOL     OW62900   1.462   0.594   4.397
53668SOL    HW162901   1.521   0.603   4.472
53668SOL    HW262902   1.417   0.678   4.392
53669SOL     OW62903   4.387   5.957  11.017
53669SOL    HW162904   4.301   5.998  11.012
53669SOL    HW262905   4.371   5.866  10.992
53670SOL     OW62906   4.072   3.291   9.831
53670SOL    HW162907   4.125   3.361   9.868
53670SOL    HW262908   4.029   3.251   9.907
53671SOL     OW62909   3.194   5.307  12.958
53671SOL    HW162910   3.275   5.266  12.927
53671SOL    HW262911   3.222   5.361  13.032
53672SOL     OW62912  10.681   3.810   6.519
53672SOL    HW162913  10.641   3.724   6.531
53672SOL    HW262914  10.768   3.802   6.557
53673SOL     OW62915  11.454   4.391   5.343
53673SOL    HW162916  11.455   4.300   5.374
53673SOL    HW262917  11.437   4.443   5.421
53674SOL     OW62918   9.823   4.074   9.317
53674SOL    HW162919   9.904   4.124   9.321
53674SOL    HW262920   9.821   4.038   9.228
53675SOL     OW62921   3.814   4.262   1.957
53675SOL    HW162922   3.897   4.306   1.976
53675SOL    HW262923   3.765   4.324   1.904
53676SOL     OW62924   1.605   2.109   2.469
53676SOL    HW162925   1.614   2.015   2.453
53676SOL    HW262926   1.688   2.135   2.508
53677SOL     OW62927  10.016   7.649   4.856
53677SOL    HW162928  10.093   7.683   4.810
53677SOL    HW262929   9.989   7.720   4.914
53678SOL     OW62930  14.382   4.010  14.868
53678SOL    HW162931  14.342   3.933  14.826
53678SOL    HW262932  14.462   3.976   0.020
53679SOL     OW62933   2.176   0.156   7.587
53679SOL    HW162934   2.175   0.238   7.538
53679SOL    HW262935   2.085   0.127   7.588
53680SOL     OW62936  13.387  12.968   9.052
53680SOL    HW162937  13.316  13.013   9.099
53680SOL    HW262938  13.462  13.027   9.059
53681SOL     OW62939   0.701   3.959   9.096
53681SOL    HW162940   0.708   3.892   9.165
53681SOL    HW262941   0.651   4.030   9.137
53682SOL     OW62942  13.726   1.340   2.007
53682SOL    HW162943  13.777   1.295   2.075
53682SOL    HW262944  13.782   1.337   1.930
53683SOL     OW62945  12.396  14.680  11.942
53683SOL    HW162946  12.398  14.766  11.984
53683SOL    HW262947  12.359  14.697  11.855
53684SOL     OW62948   3.134   2.943   5.650
53684SOL    HW162949   3.127   3.026   5.605
53684SOL    HW262950   3.121   2.965   5.743
53685SOL     OW62951  12.622   1.573   3.703
53685SOL    HW162952  12.717   1.570   3.713
53685SOL    HW262953  12.597   1.482   3.685
53686SOL     OW62954   0.504   1.038  14.220
53686SOL    HW162955   0.565   1.044  14.146
53686SOL    HW262956   0.556   0.997  14.290
53687SOL     OW62957   8.570   9.472   0.585
53687SOL    HW162958   8.546   9.487   0.677
53687SOL    HW262959   8.591   9.558   0.551
53688SOL     OW62960   3.279   7.013   7.968
53688SOL    HW162961   3.357   7.061   7.941
53688SOL    HW262962   3.313   6.930   8.001
53689SOL     OW62963   4.965   4.474   7.729
53689SOL    HW162964   5.004   4.537   7.669
53689SOL    HW262965   4.919   4.528   7.794
53690SOL     OW62966  13.564  10.488  10.823
53690SOL    HW162967  13.538  10.523  10.738
53690SOL    HW262968  13.483  10.483  10.874
53691SOL     OW62969   6.509  12.567   0.799
53691SOL    HW162970   6.480  12.496   0.856
53691SOL    HW262971   6.559  12.525   0.730
53692SOL     OW62972   2.964   0.981   4.462
53692SOL    HW162973   2.912   0.970   4.383
53692SOL    HW262974   2.943   1.069   4.494
53693SOL     OW62975   3.657   0.396   7.584
53693SOL    HW162976   3.605   0.327   7.542
53693SOL    HW262977   3.746   0.383   7.551
53694SOL     OW62978   4.712   0.606  14.444
53694SOL    HW162979   4.623   0.641  14.451
53694SOL    HW262980   4.759   0.672  14.392
53695SOL     OW62981   8.571   9.863  13.124
53695SOL    HW162982   8.635   9.817  13.069
53695SOL    HW262983   8.624   9.902  13.194
53696SOL     OW62984   8.734   4.711   9.302
53696SOL    HW162985   8.783   4.652   9.245
53696SOL    HW262986   8.798   4.776   9.331
53697SOL     OW62987   6.384   2.573   5.032
53697SOL    HW162988   6.419   2.602   4.948
53697SOL    HW262989   6.387   2.477   5.027
53698SOL     OW62990   8.208  14.858  13.655
53698SOL    HW162991   8.174   0.046  13.608
53698SOL    HW262992   8.162  14.783  13.618
53699SOL     OW62993  12.415  13.325  14.413
53699SOL    HW162994  12.442  13.241  14.450
53699SOL    HW262995  12.492  13.356  14.365
53700SOL     OW62996   4.883   0.048  13.101
53700SOL    HW162997   4.870   0.072  13.010
53700SOL    HW262998   4.930  14.852  13.098
53701SOL     OW62999  10.911   8.075   8.192
53701SOL    HW163000  10.819   8.055   8.209
53701SOL    HW263001  10.946   7.994   8.153
53702SOL     OW63002   7.107  10.218  11.305
53702SOL    HW163003   7.046  10.291  11.298
53702SOL    HW263004   7.063  10.146  11.260
53703SOL     OW63005   4.939  12.801   3.170
53703SOL    HW163006   5.008  12.857   3.134
53703SOL    HW263007   4.965  12.786   3.261
53704SOL     OW63008   7.474  13.418   5.083
53704SOL    HW163009   7.521  13.460   5.156
53704SOL    HW263010   7.452  13.331   5.116
53705SOL     OW63011   3.092  11.070   8.146
53705SOL    HW163012   3.052  11.121   8.075
53705SOL    HW263013   3.017  11.033   8.194
53706SOL     OW63014  11.395  11.324  12.690
53706SOL    HW163015  11.307  11.326  12.728
53706SOL    HW263016  11.396  11.397  12.628
53707SOL     OW63017   0.556  12.821  14.448
53707SOL    HW163018   0.502  12.753  14.407
53707SOL    HW263019   0.601  12.776  14.519
53708SOL     OW63020  14.761   6.753   8.169
53708SOL    HW163021  14.694   6.693   8.203
53708SOL    HW263022  14.822   6.764   8.241
53709SOL     OW63023  12.164   1.915   6.667
53709SOL    HW163024  12.166   1.959   6.581
53709SOL    HW263025  12.094   1.851   6.659
53710SOL     OW63026  10.986  13.144   6.685
53710SOL    HW163027  10.923  13.159   6.614
53710SOL    HW263028  10.958  13.203   6.755
53711SOL     OW63029   0.191   3.973   7.176
53711SOL    HW163030   0.245   3.971   7.255
53711SOL    HW263031   0.103   3.951   7.207
53712SOL     OW63032   9.601   0.746   5.835
53712SOL    HW163033   9.508   0.767   5.841
53712SOL    HW263034   9.620   0.696   5.914
53713SOL     OW63035  10.300   9.305  14.101
53713SOL    HW163036  10.268   9.245  14.168
53713SOL    HW263037  10.346   9.249  14.039
53714SOL     OW63038  13.539  14.866   3.408
53714SOL    HW163039  13.575  14.778   3.391
53714SOL    HW263040  13.523  14.868   3.502
53715SOL     OW63041   0.195   6.581   9.971
53715SOL    HW163042   0.124   6.546   9.917
53715SOL    HW263043   0.275   6.558   9.923
53716SOL     OW63044   3.259   2.894  14.112
53716SOL    HW163045   3.251   2.948  14.190
53716SOL    HW263046   3.305   2.816  14.142
53717SOL     OW63047   9.491  11.176   8.668
53717SOL    HW163048   9.524  11.223   8.745
53717SOL    HW263049   9.518  11.229   8.594
53718SOL     OW63050  14.582   1.745  11.017
53718SOL    HW163051  14.575   1.663  10.969
53718SOL    HW263052  14.494   1.781  11.018
53719SOL     OW63053   7.381   5.001   8.879
53719SOL    HW163054   7.337   4.985   8.795
53719SOL    HW263055   7.409   4.914   8.908
53720SOL     OW63056  13.525   9.651   2.585
53720SOL    HW163057  13.524   9.666   2.679
53720SOL    HW263058  13.488   9.563   2.574
53721SOL     OW63059   2.132   7.883   6.596
53721SOL    HW163060   2.186   7.954   6.560
53721SOL    HW263061   2.100   7.917   6.679
53722SOL     OW63062   1.566   7.995   1.718
53722SOL    HW163063   1.644   8.037   1.680
53722SOL    HW263064   1.498   8.005   1.652
53723SOL     OW63065  11.867   7.232  13.793
53723SOL    HW163066  11.921   7.279  13.730
53723SOL    HW263067  11.874   7.140  13.768
53724SOL     OW63068  11.219   0.190   1.483
53724SOL    HW163069  11.139   0.154   1.446
53724SOL    HW263070  11.290   0.144   1.439
53725SOL     OW63071   0.534   1.863   3.882
53725SOL    HW163072   0.587   1.798   3.834
53725SOL    HW263073   0.545   1.840   3.974
53726SOL     OW63074   1.488  11.177  11.853
53726SOL    HW163075   1.395  11.185  11.873
53726SOL    HW263076   1.532  11.219  11.927
53727SOL     OW63077  10.502   6.344   8.934
53727SOL    HW163078  10.466   6.290   9.004
53727SOL    HW263079  10.483   6.434   8.961
53728SOL     OW63080   3.138   4.172   6.627
53728SOL    HW163081   3.103   4.112   6.693
53728SOL    HW263082   3.156   4.116   6.551
53729SOL     OW63083  13.683   8.484   0.402
53729SOL    HW163084  13.689   8.509   0.310
53729SOL    HW263085  13.659   8.564   0.447
53730SOL     OW63086  11.153   5.830  12.714
53730SOL    HW163087  11.105   5.823  12.632
53730SOL    HW263088  11.233   5.877  12.692
53731SOL     OW63089  11.247   3.624  14.580
53731SOL    HW163090  11.241   3.548  14.637
53731SOL    HW263091  11.157   3.655  14.571
53732SOL     OW63092   5.865   1.489   8.708
53732SOL    HW163093   5.914   1.547   8.649
53732SOL    HW263094   5.912   1.495   8.792
53733SOL     OW63095   0.607   1.970   7.080
53733SOL    HW163096   0.677   2.022   7.039
53733SOL    HW263097   0.591   1.898   7.018
53734SOL     OW63098  13.849   9.744   6.599
53734SOL    HW163099  13.862   9.650   6.585
53734SOL    HW263100  13.817   9.751   6.689
53735SOL     OW63101  10.989   0.114   1.397
53735SOL    HW163102  10.930   0.180   1.361
53735SOL    HW263103  10.932   0.041   1.421
53736SOL     OW63104   2.669   7.806   6.388
53736SOL    HW163105   2.706   7.878   6.338
53736SOL    HW263106   2.614   7.847   6.454
53737SOL     OW63107   3.033   2.981   8.526
53737SOL    HW163108   3.113   3.015   8.486
53737SOL    HW263109   3.028   2.890   8.498
53738SOL     OW63110   8.064   5.027   2.179
53738SOL    HW163111   7.973   5.041   2.155
53738SOL    HW263112   8.067   5.037   2.274
53739SOL     OW63113  13.744  11.046   0.957
53739SOL    HW163114  13.744  10.952   0.973
53739SOL    HW263115  13.654  11.066   0.932
53740SOL     OW63116   2.732   6.253   7.516
53740SOL    HW163117   2.802   6.313   7.540
53740SOL    HW263118   2.722   6.265   7.421
53741SOL     OW63119   8.249   2.348   9.332
53741SOL    HW163120   8.201   2.339   9.414
53741SOL    HW263121   8.214   2.279   9.275
53742SOL     OW63122  13.848   0.304   8.534
53742SOL    HW163123  13.803   0.385   8.558
53742SOL    HW263124  13.832   0.245   8.608
53743SOL     OW63125   2.482   7.181   4.358
53743SOL    HW163126   2.565   7.226   4.374
53743SOL    HW263127   2.452   7.216   4.274
53744SOL     OW63128  11.924   0.418   3.915
53744SOL    HW163129  11.963   0.429   4.001
53744SOL    HW263130  11.974   0.347   3.875
53745SOL     OW63131  12.946   8.348   9.892
53745SOL    HW163132  12.884   8.275   9.890
53745SOL    HW263133  13.008   8.325   9.962
53746SOL     OW63134   2.398   0.996   2.163
53746SOL    HW163135   2.433   1.057   2.228
53746SOL    HW263136   2.379   1.050   2.086
53747SOL     OW63137   8.479   8.972  13.482
53747SOL    HW163138   8.439   9.054  13.511
53747SOL    HW263139   8.539   8.997  13.412
53748SOL     OW63140   6.768   3.736  10.186
53748SOL    HW163141   6.776   3.672  10.258
53748SOL    HW263142   6.848   3.787  10.191
53749SOL     OW63143   1.050   0.321   2.196
53749SOL    HW163144   1.045   0.415   2.179
53749SOL    HW263145   1.057   0.282   2.109
53750SOL     OW63146   0.860   2.592   1.740
53750SOL    HW163147   0.832   2.683   1.748
53750SOL    HW263148   0.885   2.584   1.648
53751SOL     OW63149  13.750  10.547   0.214
53751SOL    HW163150  13.785  10.623   0.166
53751SOL    HW263151  13.715  10.585   0.295
53752SOL     OW63152   7.439  11.344   4.939
53752SOL    HW163153   7.485  11.302   4.867
53752SOL    HW263154   7.443  11.280   5.010
53753SOL     OW63155  14.431   1.179   8.926
53753SOL    HW163156  14.391   1.190   9.012
53753SOL    HW263157  14.381   1.109   8.885
53754SOL     OW63158   3.212   1.336   7.571
53754SOL    HW163159   3.179   1.405   7.513
53754SOL    HW263160   3.175   1.356   7.657
53755SOL     OW63161   7.411   7.596   6.622
53755SOL    HW163162   7.393   7.517   6.672
53755SOL    HW263163   7.332   7.610   6.569
53756SOL     OW63164  13.099  14.218  10.054
53756SOL    HW163165  13.037  14.167  10.002
53756SOL    HW263166  13.184  14.183  10.030
53757SOL     OW63167  12.789   7.185  13.643
53757SOL    HW163168  12.754   7.273  13.653
53757SOL    HW263169  12.878   7.198  13.610
53758SOL     OW63170   3.518   8.450   6.402
53758SOL    HW163171   3.571   8.402   6.465
53758SOL    HW263172   3.552   8.425   6.316
53759SOL     OW63173   8.697   6.211  13.363
53759SOL    HW163174   8.649   6.286  13.399
53759SOL    HW263175   8.699   6.147  13.434
53760SOL     OW63176   2.316  13.767   4.807
53760SOL    HW163177   2.335  13.813   4.726
53760SOL    HW263178   2.400  13.729   4.833
53761SOL     OW63179   1.389   2.854  11.155
53761SOL    HW163180   1.434   2.834  11.237
53761SOL    HW263181   1.296   2.844  11.176
53762SOL     OW63182  10.542  13.413  13.734
53762SOL    HW163183  10.551  13.321  13.762
53762SOL    HW263184  10.571  13.413  13.643
53763SOL     OW63185  12.010   6.600  11.303
53763SOL    HW163186  11.985   6.651  11.381
53763SOL    HW263187  12.094   6.560  11.326
53764SOL     OW63188   7.911   7.838  10.055
53764SOL    HW163189   8.003   7.861  10.064
53764SOL    HW263190   7.892   7.847   9.962
53765SOL     OW63191   4.887   3.813  10.186
53765SOL    HW163192   4.796   3.837  10.204
53765SOL    HW263193   4.938   3.885  10.224
53766SOL     OW63194   7.339   3.653   9.830
53766SOL    HW163195   7.371   3.604   9.906
53766SOL    HW263196   7.414   3.659   9.772
53767SOL     OW63197   4.058   9.836   2.890
53767SOL    HW163198   4.046   9.829   2.984
53767SOL    HW263199   4.095   9.924   2.877
53768SOL     OW63200   1.219   8.322   4.793
53768SOL    HW163201   1.197   8.351   4.705
53768SOL    HW263202   1.315   8.320   4.794
53769SOL     OW63203   8.283   4.588   9.304
53769SOL    HW163204   8.267   4.519   9.239
53769SOL    HW263205   8.342   4.650   9.259
53770SOL     OW63206   5.628   0.071   5.583
53770SOL    HW163207   5.691   0.065   5.511
53770SOL    HW263208   5.671   0.025   5.656
53771SOL     OW63209   6.004  10.454   5.922
53771SOL    HW163210   5.984  10.393   5.992
53771SOL    HW263211   6.061  10.405   5.862
53772SOL     OW63212  13.171  11.459   9.001
53772SOL    HW163213  13.192  11.530   8.942
53772SOL    HW263214  13.225  11.386   8.971
53773SOL     OW63215   2.041  14.233   2.753
53773SOL    HW163216   2.095  14.289   2.698
53773SOL    HW263217   2.101  14.199   2.820
53774SOL     OW63218   6.705   0.745   4.230
53774SOL    HW163219   6.639   0.813   4.247
53774SOL    HW263220   6.756   0.741   4.311
53775SOL     OW63221   8.520   2.125   9.567
53775SOL    HW163222   8.604   2.094   9.535
53775SOL    HW263223   8.538   2.214   9.600
53776SOL     OW63224   6.587  12.076  14.024
53776SOL    HW163225   6.648  12.103  14.092
53776SOL    HW263226   6.562  12.158  13.980
53777SOL     OW63227  14.710   7.336   2.001
53777SOL    HW163228  14.691   7.389   1.924
53777SOL    HW263229  14.804   7.347   2.015
53778SOL     OW63230   6.553   2.616   7.534
53778SOL    HW163231   6.519   2.705   7.527
53778SOL    HW263232   6.643   2.623   7.501
53779SOL     OW63233   7.918  11.072   4.873
53779SOL    HW163234   7.839  11.036   4.913
53779SOL    HW263235   7.976  10.997   4.862
53780SOL     OW63236   0.150   9.987  11.846
53780SOL    HW163237   0.165  10.037  11.766
53780SOL    HW263238   0.136  10.053  11.913
53781SOL     OW63239  12.315   6.420  14.382
53781SOL    HW163240  12.275   6.334  14.366
53781SOL    HW263241  12.408   6.406  14.366
53782SOL     OW63242   9.651   1.395  12.570
53782SOL    HW163243   9.680   1.478  12.608
53782SOL    HW263244   9.578   1.368  12.625
53783SOL     OW63245   3.314   3.788   9.882
53783SOL    HW163246   3.385   3.851   9.901
53783SOL    HW263247   3.275   3.820   9.801
53784SOL     OW63248   2.301  13.092   7.772
53784SOL    HW163249   2.355  13.156   7.819
53784SOL    HW263250   2.244  13.146   7.717
53785SOL     OW63251  10.053   5.265  10.509
53785SOL    HW163252  10.074   5.259  10.416
53785SOL    HW263253  10.019   5.353  10.522
53786SOL     OW63254   4.630  13.157   7.665
53786SOL    HW163255   4.620  13.250   7.644
53786SOL    HW263256   4.610  13.112   7.583
53787SOL     OW63257   9.596   2.248   7.507
53787SOL    HW163258   9.629   2.159   7.496
53787SOL    HW263259   9.527   2.240   7.573
53788SOL     OW63260   7.734   3.570   3.081
53788SOL    HW163261   7.664   3.597   3.021
53788SOL    HW263262   7.722   3.475   3.089
53789SOL     OW63263   9.394  11.920   0.219
53789SOL    HW163264   9.341  11.844   0.241
53789SOL    HW263265   9.345  11.965   0.150
53790SOL     OW63266   5.579   4.472   3.414
53790SOL    HW163267   5.510   4.406   3.417
53790SOL    HW263268   5.592   4.498   3.505
53791SOL     OW63269   1.839   5.617   3.910
53791SOL    HW163270   1.754   5.589   3.946
53791SOL    HW263271   1.880   5.536   3.880
53792SOL     OW63272   5.687  10.694   0.962
53792SOL    HW163273   5.658  10.785   0.960
53792SOL    HW263274   5.720  10.682   1.052
53793SOL     OW63275   3.218   1.500   7.129
53793SOL    HW163276   3.241   1.542   7.047
53793SOL    HW263277   3.279   1.427   7.136
53794SOL     OW63278   4.721   4.557  12.312
53794SOL    HW163279   4.644   4.596  12.270
53794SOL    HW263280   4.787   4.626  12.309
53795SOL     OW63281   8.738   0.008   6.839
53795SOL    HW163282   8.792  14.849   6.903
53795SOL    HW263283   8.787  14.887   6.757
53796SOL     OW63284  14.276  12.908  13.056
53796SOL    HW163285  14.358  12.954  13.068
53796SOL    HW263286  14.228  12.959  12.992
53797SOL     OW63287  12.564   0.570   3.288
53797SOL    HW163288  12.629   0.637   3.306
53797SOL    HW263289  12.599   0.490   3.328
53798SOL     OW63290  13.712   2.879   2.116
53798SOL    HW163291  13.754   2.917   2.193
53798SOL    HW263292  13.780   2.827   2.074
53799SOL     OW63293   4.096   7.937  13.704
53799SOL    HW163294   4.175   7.931  13.757
53799SOL    HW263295   4.077   8.031  13.699
53800SOL     OW63296   2.371  14.640   4.530
53800SOL    HW163297   2.328  14.562   4.566
53800SOL    HW263298   2.379  14.622   4.436
53801SOL     OW63299   3.239   9.545   5.553
53801SOL    HW163300   3.159   9.591   5.528
53801SOL    HW263301   3.209   9.457   5.577
53802SOL     OW63302   2.401   0.729  10.466
53802SOL    HW163303   2.413   0.780  10.386
53802SOL    HW263304   2.408   0.793  10.537
53803SOL     OW63305   9.055  13.245  14.193
53803SOL    HW163306   8.964  13.233  14.220
53803SOL    HW263307   9.098  13.285  14.269
53804SOL     OW63308   6.970   4.579   0.317
53804SOL    HW163309   6.926   4.496   0.296
53804SOL    HW263310   7.005   4.566   0.405
53805SOL     OW63311   2.921   6.657  13.667
53805SOL    HW163312   2.904   6.579  13.720
53805SOL    HW263313   2.835   6.695  13.651
53806SOL     OW63314   4.697  12.919  10.828
53806SOL    HW163315   4.619  12.941  10.777
53806SOL    HW263316   4.770  12.934  10.768
53807SOL     OW63317   0.438   6.065   4.881
53807SOL    HW163318   0.391   6.091   4.802
53807SOL    HW263319   0.372   6.067   4.950
53808SOL     OW63320  10.862   9.060   8.077
53808SOL    HW163321  10.770   9.063   8.101
53808SOL    HW263322  10.862   9.067   7.981
53809SOL     OW63323  12.157  13.043  14.389
53809SOL    HW163324  12.173  13.010  14.477
53809SOL    HW263325  12.236  13.094  14.368
53810SOL     OW63326  10.357   3.754  12.635
53810SOL    HW163327  10.377   3.667  12.670
53810SOL    HW263328  10.272   3.745  12.594
53811SOL     OW63329   9.906   1.923   2.319
53811SOL    HW163330   9.902   1.866   2.396
53811SOL    HW263331   9.815   1.944   2.300
53812SOL     OW63332  11.952   7.779   3.968
53812SOL    HW163333  11.898   7.815   3.898
53812SOL    HW263334  12.017   7.725   3.922
53813SOL     OW63335  12.885  13.529  14.537
53813SOL    HW163336  12.814  13.555  14.596
53813SOL    HW263337  12.943  13.476  14.591
53814SOL     OW63338  11.171   2.065  11.719
53814SOL    HW163339  11.127   2.062  11.634
53814SOL    HW263340  11.103   2.043  11.782
53815SOL     OW63341   6.855   1.520   8.747
53815SOL    HW163342   6.880   1.527   8.655
53815SOL    HW263343   6.788   1.588   8.759
53816SOL     OW63344   0.303   2.813  14.484
53816SOL    HW163345   0.312   2.786  14.575
53816SOL    HW263346   0.305   2.731  14.434
53817SOL     OW63347   0.687   6.393  13.391
53817SOL    HW163348   0.630   6.469  13.384
53817SOL    HW263349   0.632   6.325  13.429
53818SOL     OW63350   8.728   7.187  14.468
53818SOL    HW163351   8.773   7.262  14.506
53818SOL    HW263352   8.735   7.118  14.534
53819SOL     OW63353   4.537   0.015   1.757
53819SOL    HW163354   4.624  14.864   1.743
53819SOL    HW263355   4.488  14.881   1.678
53820SOL     OW63356   7.323  14.072   4.476
53820SOL    HW163357   7.326  14.143   4.411
53820SOL    HW263358   7.295  13.996   4.426
53821SOL     OW63359   1.662   6.723   2.565
53821SOL    HW163360   1.720   6.647   2.554
53821SOL    HW263361   1.720   6.799   2.555
53822SOL     OW63362  11.245  11.581  10.804
53822SOL    HW163363  11.239  11.658  10.748
53822SOL    HW263364  11.335  11.551  10.793
53823SOL     OW63365   0.775   0.572   5.580
53823SOL    HW163366   0.692   0.533   5.605
53823SOL    HW263367   0.766   0.665   5.600
53824SOL     OW63368  11.885  12.472   3.125
53824SOL    HW163369  11.792  12.451   3.120
53824SOL    HW263370  11.927  12.388   3.147
53825SOL     OW63371   6.222   2.595   0.251
53825SOL    HW163372   6.187   2.512   0.219
53825SOL    HW263373   6.293   2.572   0.310
53826SOL     OW63374  10.276  10.995   3.163
53826SOL    HW163375  10.217  10.978   3.090
53826SOL    HW263376  10.285  11.090   3.165
53827SOL     OW63377   7.513  12.960   6.116
53827SOL    HW163378   7.563  13.008   6.182
53827SOL    HW263379   7.558  12.875   6.110
53828SOL     OW63380   7.666   5.042   6.195
53828SOL    HW163381   7.655   5.096   6.273
53828SOL    HW263382   7.579   5.036   6.157
53829SOL     OW63383   2.500   1.599   4.604
53829SOL    HW163384   2.429   1.595   4.668
53829SOL    HW263385   2.559   1.528   4.629
53830SOL     OW63386   1.353   2.471   6.671
53830SOL    HW163387   1.285   2.423   6.624
53830SOL    HW263388   1.433   2.422   6.653
53831SOL     OW63389  13.031   3.343  10.230
53831SOL    HW163390  13.086   3.414  10.196
53831SOL    HW263391  12.944   3.381  10.237
53832SOL     OW63392   7.928  14.164   0.707
53832SOL    HW163393   7.895  14.081   0.741
53832SOL    HW263394   8.012  14.142   0.668
53833SOL     OW63395   7.498   3.094  12.242
53833SOL    HW163396   7.513   3.001  12.257
53833SOL    HW263397   7.522   3.108  12.150
53834SOL     OW63398   7.507  14.229  13.443
53834SOL    HW163399   7.454  14.225  13.522
53834SOL    HW263400   7.580  14.287  13.465
53835SOL     OW63401   5.562  10.682   6.416
53835SOL    HW163402   5.535  10.599   6.456
53835SOL    HW263403   5.543  10.748   6.483
53836SOL     OW63404  13.724   0.850   1.112
53836SOL    HW163405  13.764   0.874   1.195
53836SOL    HW263406  13.672   0.772   1.132
53837SOL     OW63407  14.457   7.848   6.891
53837SOL    HW163408  14.528   7.911   6.881
53837SOL    HW263409  14.402   7.860   6.813
53838SOL     OW63410   1.578   8.704   7.430
53838SOL    HW163411   1.552   8.681   7.341
53838SOL    HW263412   1.575   8.621   7.479
53839SOL     OW63413   1.542  13.923   2.995
53839SOL    HW163414   1.509  14.011   2.978
53839SOL    HW263415   1.636  13.935   3.009
53840SOL     OW63416   9.496  14.719  10.074
53840SOL    HW163417   9.405  14.690  10.073
53840SOL    HW263418   9.496  14.799  10.126
53841SOL     OW63419   7.690   7.825  13.486
53841SOL    HW163420   7.645   7.757  13.536
53841SOL    HW263421   7.783   7.799  13.489
53842SOL     OW63422   9.919  13.904   7.091
53842SOL    HW163423   9.908  13.884   7.184
53842SOL    HW263424   9.937  13.819   7.051
53843SOL     OW63425   3.599   8.670   3.844
53843SOL    HW163426   3.600   8.710   3.931
53843SOL    HW263427   3.677   8.705   3.800
53844SOL     OW63428   9.952   6.302  13.684
53844SOL    HW163429   9.885   6.248  13.643
53844SOL    HW263430  10.028   6.244  13.694
53845SOL     OW63431  14.241  10.103  14.008
53845SOL    HW163432  14.322  10.136  13.969
53845SOL    HW263433  14.172  10.145  13.957
53846SOL     OW63434   8.701   7.075   3.912
53846SOL    HW163435   8.686   7.159   3.956
53846SOL    HW263436   8.710   7.012   3.983
53847SOL     OW63437  13.808  10.989   7.437
53847SOL    HW163438  13.849  10.909   7.470
53847SOL    HW263439  13.881  11.049   7.421
53848SOL     OW63440   6.236   4.282  10.229
53848SOL    HW163441   6.212   4.350  10.167
53848SOL    HW263442   6.318   4.246  10.195
53849SOL     OW63443   1.978   9.852   4.554
53849SOL    HW163444   2.010   9.904   4.481
53849SOL    HW263445   2.054   9.844   4.613
53850SOL     OW63446   7.960  14.660  13.919
53850SOL    HW163447   7.894  14.653  13.988
53850SOL    HW263448   8.044  14.657  13.965
53851SOL     OW63449   5.498  14.173   5.305
53851SOL    HW163450   5.447  14.116   5.248
53851SOL    HW263451   5.588  14.142   5.296
53852SOL     OW63452   1.332   6.016  10.099
53852SOL    HW163453   1.424   5.991  10.105
53852SOL    HW263454   1.308   6.043  10.187
53853SOL     OW63455   7.168   0.376   1.926
53853SOL    HW163456   7.246   0.422   1.957
53853SOL    HW263457   7.179   0.287   1.958
53854SOL     OW63458   1.009   4.449   0.545
53854SOL    HW163459   0.951   4.376   0.523
53854SOL    HW263460   0.964   4.527   0.511
53855SOL     OW63461  10.665   4.287   6.616
53855SOL    HW163462  10.591   4.326   6.570
53855SOL    HW263463  10.699   4.358   6.671
53856SOL     OW63464   6.446  10.958   7.394
53856SOL    HW163465   6.460  10.931   7.485
53856SOL    HW263466   6.383  11.030   7.400
53857SOL     OW63467  13.376  13.591   0.126
53857SOL    HW163468  13.370  13.561   0.217
53857SOL    HW263469  13.430  13.670   0.131
53858SOL     OW63470   1.472   4.308   4.316
53858SOL    HW163471   1.475   4.396   4.278
53858SOL    HW263472   1.419   4.257   4.255
53859SOL     OW63473   9.726   4.579  10.744
53859SOL    HW163474   9.789   4.645  10.771
53859SOL    HW263475   9.778   4.511  10.701
53860SOL     OW63476   7.032   7.291  13.473
53860SOL    HW163477   7.120   7.328  13.481
53860SOL    HW263478   7.037   7.234  13.397
53861SOL     OW63479  13.688   9.937   4.250
53861SOL    HW163480  13.744  10.010   4.275
53861SOL    HW263481  13.657   9.901   4.333
53862SOL     OW63482   8.906   6.564   9.304
53862SOL    HW163483   8.972   6.625   9.337
53862SOL    HW263484   8.937   6.540   9.217
53863SOL     OW63485   6.162  11.442   3.753
53863SOL    HW163486   6.115  11.463   3.672
53863SOL    HW263487   6.253  11.463   3.734
53864SOL     OW63488   4.605  12.088   9.904
53864SOL    HW163489   4.615  12.077   9.998
53864SOL    HW263490   4.665  12.160   9.882
53865SOL     OW63491  12.597   4.395   5.849
53865SOL    HW163492  12.620   4.304   5.832
53865SOL    HW263493  12.503   4.401   5.829
53866SOL     OW63494   0.069   4.065   9.943
53866SOL    HW163495   0.047   4.061   9.850
53866SOL    HW263496   0.146   4.007   9.951
53867SOL     OW63497  14.127   1.797   6.945
53867SOL    HW163498  14.074   1.722   6.918
53867SOL    HW263499  14.203   1.758   6.989
53868SOL     OW63500   7.983   8.626  10.419
53868SOL    HW163501   8.075   8.635  10.397
53868SOL    HW263502   7.968   8.690  10.488
53869SOL     OW63503  10.634   9.079  10.968
53869SOL    HW163504  10.700   9.146  10.987
53869SOL    HW263505  10.660   9.043  10.883
53870SOL     OW63506   6.545   7.306   3.794
53870SOL    HW163507   6.512   7.291   3.705
53870SOL    HW263508   6.601   7.230   3.811
53871SOL     OW63509  13.636   3.514   3.255
53871SOL    HW163510  13.680   3.462   3.187
53871SOL    HW263511  13.551   3.473   3.265
53872SOL     OW63512   2.479  11.998  13.652
53872SOL    HW163513   2.385  11.996  13.631
53872SOL    HW263514   2.516  11.924  13.605
53873SOL     OW63515  14.727  13.262   1.025
53873SOL    HW163516  14.708  13.170   1.009
53873SOL    HW263517  14.790  13.285   0.957
53874SOL     OW63518   5.961   2.875  10.985
53874SOL    HW163519   5.973   2.790  10.942
53874SOL    HW263520   5.916   2.929  10.920
53875SOL     OW63521  14.109   0.312  11.438
53875SOL    HW163522  14.123   0.371  11.364
53875SOL    HW263523  14.119   0.224  11.401
53876SOL     OW63524   5.819   6.838  10.979
53876SOL    HW163525   5.845   6.817  11.069
53876SOL    HW263526   5.850   6.927  10.965
53877SOL     OW63527   3.204  10.091   7.837
53877SOL    HW163528   3.266  10.018   7.842
53877SOL    HW263529   3.242  10.159   7.892
53878SOL     OW63530  14.241  11.659  14.032
53878SOL    HW163531  14.189  11.628  13.958
53878SOL    HW263532  14.195  11.738  14.062
53879SOL     OW63533   9.801   5.072   5.299
53879SOL    HW163534   9.712   5.045   5.275
53879SOL    HW263535   9.846   5.079   5.215
53880SOL     OW63536   3.411  10.829   6.468
53880SOL    HW163537   3.323  10.793   6.483
53880SOL    HW263538   3.395  10.913   6.425
53881SOL     OW63539   9.193   6.135  10.677
53881SOL    HW163540   9.115   6.179  10.642
53881SOL    HW263541   9.241   6.204  10.723
53882SOL     OW63542   5.381  13.202   4.544
53882SOL    HW163543   5.438  13.187   4.619
53882SOL    HW263544   5.296  13.169   4.571
53883SOL     OW63545  10.133  13.886   8.167
53883SOL    HW163546  10.042  13.913   8.161
53883SOL    HW263547  10.167  13.932   8.244
53884SOL     OW63548   0.238   5.638  13.383
53884SOL    HW163549   0.278   5.565  13.431
53884SOL    HW263550   0.229   5.605  13.293
53885SOL     OW63551  10.684   9.830   8.847
53885SOL    HW163552  10.731   9.751   8.875
53885SOL    HW263553  10.666   9.816   8.754
53886SOL     OW63554   9.726   2.339   8.890
53886SOL    HW163555   9.716   2.430   8.861
53886SOL    HW263556   9.661   2.329   8.959
53887SOL     OW63557   5.317  13.674   7.398
53887SOL    HW163558   5.413  13.674   7.399
53887SOL    HW263559   5.294  13.654   7.308
53888SOL     OW63560   5.992  14.495   7.622
53888SOL    HW163561   5.900  14.471   7.613
53888SOL    HW263562   5.996  14.549   7.700
53889SOL     OW63563   4.079   5.057   5.646
53889SOL    HW163564   4.044   5.145   5.658
53889SOL    HW263565   4.037   5.026   5.566
53890SOL     OW63566   4.168  14.669   2.338
53890SOL    HW163567   4.132  14.754   2.313
53890SOL    HW263568   4.136  14.655   2.427
53891SOL     OW63569   7.423   7.971   0.001
53891SOL    HW163570   7.341   7.923   0.007
53891SOL    HW263571   7.471   7.928  14.818
53892SOL     OW63572   3.867  11.731   1.631
53892SOL    HW163573   3.819  11.783   1.566
53892SOL    HW263574   3.799  11.703   1.693
53893SOL     OW63575   4.120   6.575  13.593
53893SOL    HW163576   4.088   6.538  13.511
53893SOL    HW263577   4.073   6.526  13.661
53894SOL     OW63578  13.755   3.939   8.627
53894SOL    HW163579  13.684   4.000   8.646
53894SOL    HW263580  13.728   3.857   8.669
53895SOL     OW63581   7.752   4.615   6.252
53895SOL    HW163582   7.735   4.650   6.165
53895SOL    HW263583   7.670   4.571   6.277
53896SOL     OW63584   9.608   2.124   6.504
53896SOL    HW163585   9.611   2.030   6.523
53896SOL    HW263586   9.682   2.138   6.445
53897SOL     OW63587   0.523   7.044  12.073
53897SOL    HW163588   0.455   6.993  12.117
53897SOL    HW263589   0.507   7.135  12.101
53898SOL     OW63590  12.936   9.017  12.370
53898SOL    HW163591  12.842   9.000  12.380
53898SOL    HW263592  12.963   9.051  12.455
53899SOL     OW63593   1.560   0.756   8.649
53899SOL    HW163594   1.517   0.693   8.707
53899SOL    HW263595   1.592   0.703   8.576
53900SOL     OW63596   5.682  11.825  14.204
53900SOL    HW163597   5.710  11.891  14.267
53900SOL    HW263598   5.597  11.796  14.236
53901SOL     OW63599   6.440   0.225  11.181
53901SOL    HW163600   6.448   0.167  11.257
53901SOL    HW263601   6.467   0.170  11.107
53902SOL     OW63602   3.785   6.699  13.823
53902SOL    HW163603   3.861   6.742  13.782
53902SOL    HW263604   3.785   6.733  13.913
53903SOL     OW63605  10.454   1.364  10.323
53903SOL    HW163606  10.487   1.386  10.410
53903SOL    HW263607  10.365   1.399  10.321
53904SOL     OW63608  11.347  14.784   5.252
53904SOL    HW163609  11.404  14.830   5.190
53904SOL    HW263610  11.398  14.708   5.279
53905SOL     OW63611  12.709   6.529  14.809
53905SOL    HW163612  12.763   6.471  14.754
53905SOL    HW263613  12.623   6.528  14.768
53906SOL     OW63614   9.960   3.886  13.880
53906SOL    HW163615   9.881   3.866  13.830
53906SOL    HW263616  10.012   3.942  13.822
53907SOL     OW63617  12.803   2.262  13.127
53907SOL    HW163618  12.790   2.337  13.068
53907SOL    HW263619  12.819   2.188  13.069
53908SOL     OW63620   7.292   0.965   1.384
53908SOL    HW163621   7.305   0.888   1.328
53908SOL    HW263622   7.220   0.939   1.442
53909SOL     OW63623  14.724   6.156   3.720
53909SOL    HW163624  14.672   6.235   3.736
53909SOL    HW263625  14.799   6.164   3.779
53910SOL     OW63626   1.552   1.104   0.306
53910SOL    HW163627   1.571   1.011   0.294
53910SOL    HW263628   1.506   1.109   0.390
53911SOL     OW63629  13.957  11.560   6.532
53911SOL    HW163630  14.000  11.638   6.496
53911SOL    HW263631  13.873  11.593   6.565
53912SOL     OW63632  10.729   6.482   7.270
53912SOL    HW163633  10.743   6.394   7.303
53912SOL    HW263634  10.636   6.500   7.286
53913SOL     OW63635  14.355   5.255   6.923
53913SOL    HW163636  14.402   5.184   6.968
53913SOL    HW263637  14.387   5.252   6.833
53914SOL     OW63638   5.528   0.370   5.809
53914SOL    HW163639   5.494   0.311   5.876
53914SOL    HW263640   5.543   0.453   5.855
53915SOL     OW63641   0.021   2.379   3.412
53915SOL    HW163642  14.836   2.438   3.394
53915SOL    HW263643   0.001   2.344   3.499
53916SOL     OW63644   3.576  12.997   1.243
53916SOL    HW163645   3.574  13.083   1.286
53916SOL    HW263646   3.669  12.974   1.241
53917SOL     OW63647   5.119  12.483  13.174
53917SOL    HW163648   5.122  12.390  13.196
53917SOL    HW263649   5.171  12.525  13.242
53918SOL     OW63650   1.260   9.853   4.818
53918SOL    HW163651   1.285   9.761   4.826
53918SOL    HW263652   1.343   9.901   4.817
53919SOL     OW63653   9.688  12.734   8.929
53919SOL    HW163654   9.705  12.821   8.966
53919SOL    HW263655   9.673  12.750   8.836
53920SOL     OW63656   6.063  13.383   9.727
53920SOL    HW163657   6.046  13.289   9.722
53920SOL    HW263658   6.088  13.409   9.639
53921SOL     OW63659   9.660  13.348   9.213
53921SOL    HW163660   9.711  13.286   9.265
53921SOL    HW263661   9.569  13.328   9.234
53922SOL     OW63662   4.102  12.377   5.459
53922SOL    HW163663   4.113  12.471   5.445
53922SOL    HW263664   4.153  12.337   5.388
53923SOL     OW63665   2.632   7.517  11.257
53923SOL    HW163666   2.649   7.593  11.312
53923SOL    HW263667   2.548   7.537  11.215
53924SOL     OW63668   5.190   8.712   2.235
53924SOL    HW163669   5.237   8.732   2.315
53924SOL    HW263670   5.099   8.704   2.262
53925SOL     OW63671   4.345   0.832  11.636
53925SOL    HW163672   4.403   0.905  11.617
53925SOL    HW263673   4.397   0.754  11.617
53926SOL     OW63674  12.789  12.158   3.100
53926SOL    HW163675  12.702  12.181   3.132
53926SOL    HW263676  12.842  12.235   3.119
53927SOL     OW63677   2.312   2.880   9.506
53927SOL    HW163678   2.357   2.824   9.569
53927SOL    HW263679   2.334   2.842   9.421
53928SOL     OW63680  10.217   9.892   8.113
53928SOL    HW163681  10.280   9.834   8.070
53928SOL    HW263682  10.263   9.925   8.190
53929SOL     OW63683   8.715   3.457   9.233
53929SOL    HW163684   8.691   3.399   9.161
53929SOL    HW263685   8.632   3.476   9.277
53930SOL     OW63686  14.570   6.361   9.541
53930SOL    HW163687  14.609   6.426   9.598
53930SOL    HW263688  14.503   6.409   9.492
53931SOL     OW63689   3.442   6.648   6.544
53931SOL    HW163690   3.501   6.718   6.514
53931SOL    HW263691   3.476   6.624   6.630
53932SOL     OW63692   4.920  13.853  10.915
53932SOL    HW163693   4.850  13.847  10.850
53932SOL    HW263694   4.932  13.946  10.929
53933SOL     OW63695   6.030  12.960   2.676
53933SOL    HW163696   6.059  12.916   2.596
53933SOL    HW263697   6.092  12.931   2.743
53934SOL     OW63698   4.064   0.163   4.084
53934SOL    HW163699   4.004   0.117   4.143
53934SOL    HW263700   4.117   0.217   4.141
53935SOL     OW63701   6.194  10.585   5.128
53935SOL    HW163702   6.240  10.575   5.211
53935SOL    HW263703   6.256  10.552   5.062
53936SOL     OW63704  11.496  10.386   3.352
53936SOL    HW163705  11.433  10.427   3.292
53936SOL    HW263706  11.449  10.309   3.387
53937SOL     OW63707   6.209   8.579   9.277
53937SOL    HW163708   6.261   8.642   9.226
53937SOL    HW263709   6.242   8.588   9.366
53938SOL     OW63710   8.237   6.498  13.228
53938SOL    HW163711   8.235   6.579  13.177
53938SOL    HW263712   8.163   6.505  13.287
53939SOL     OW63713   9.142  12.402  10.071
53939SOL    HW163714   9.162  12.470  10.007
53939SOL    HW263715   9.148  12.320  10.022
53940SOL     OW63716   3.914  13.480  13.255
53940SOL    HW163717   3.834  13.442  13.292
53940SOL    HW263718   3.955  13.407  13.209
53941SOL     OW63719   1.036  14.096   2.009
53941SOL    HW163720   1.048  14.075   1.916
53941SOL    HW263721   1.125  14.104   2.044
53942SOL     OW63722  11.110   9.639   5.734
53942SOL    HW163723  11.088   9.639   5.827
53942SOL    HW263724  11.026   9.649   5.690
53943SOL     OW63725  14.310  12.614   6.933
53943SOL    HW163726  14.396  12.589   6.900
53943SOL    HW263727  14.287  12.693   6.884
53944SOL     OW63728   2.686  13.921  13.010
53944SOL    HW163729   2.641  13.844  12.976
53944SOL    HW263730   2.773  13.890  13.034
53945SOL     OW63731   3.568  14.860   6.964
53945SOL    HW163732   3.647   0.006   6.921
53945SOL    HW263733   3.505   0.044   6.957
53946SOL     OW63734  14.035   2.774   1.812
53946SOL    HW163735  14.107   2.836   1.813
53946SOL    HW263736  13.960   2.823   1.778
53947SOL     OW63737   9.658  13.764   0.214
53947SOL    HW163738   9.719  13.757   0.288
53947SOL    HW263739   9.645  13.859   0.203
53948SOL     OW63740  12.940   6.016   4.942
53948SOL    HW163741  12.985   5.932   4.952
53948SOL    HW263742  12.938   6.032   4.848
53949SOL     OW63743   7.375   1.797   3.062
53949SOL    HW163744   7.422   1.783   2.980
53949SOL    HW263745   7.401   1.885   3.090
53950SOL     OW63746   9.118  14.477   0.538
53950SOL    HW163747   9.135  14.467   0.632
53950SOL    HW263748   9.205  14.481   0.498
53951SOL     OW63749   8.151  13.465   4.188
53951SOL    HW163750   8.174  13.376   4.215
53951SOL    HW263751   8.234  13.512   4.190
53952SOL     OW63752   8.060  11.624   8.395
53952SOL    HW163753   8.060  11.698   8.333
53952SOL    HW263754   8.092  11.662   8.477
53953SOL     OW63755   8.258   2.074   9.779
53953SOL    HW163756   8.208   2.001   9.744
53953SOL    HW263757   8.349   2.047   9.772
53954SOL     OW63758   2.343   7.099   4.745
53954SOL    HW163759   2.293   7.163   4.795
53954SOL    HW263760   2.289   7.020   4.747
53955SOL     OW63761   6.517  13.840   5.190
53955SOL    HW163762   6.540  13.838   5.097
53955SOL    HW263763   6.521  13.933   5.214
53956SOL     OW63764   5.016   6.939  11.912
53956SOL    HW163765   5.011   6.981  11.998
53956SOL    HW263766   4.974   6.854  11.924
53957SOL     OW63767   1.781   6.907   9.307
53957SOL    HW163768   1.870   6.873   9.315
53957SOL    HW263769   1.775   6.935   9.216
53958SOL     OW63770  10.448  11.090   8.763
53958SOL    HW163771  10.520  11.051   8.812
53958SOL    HW263772  10.369  11.063   8.809
53959SOL     OW63773  11.283   6.287   6.524
53959SOL    HW163774  11.195   6.313   6.497
53959SOL    HW263775  11.300   6.339   6.602
53960SOL     OW63776   3.199   9.705   3.963
53960SOL    HW163777   3.248   9.677   4.040
53960SOL    HW263778   3.238   9.789   3.939
53961SOL     OW63779  10.960  11.906   3.732
53961SOL    HW163780  10.922  11.818   3.728
53961SOL    HW263781  10.941  11.945   3.647
53962SOL     OW63782   8.187   4.563   3.295
53962SOL    HW163783   8.195   4.560   3.200
53962SOL    HW263784   8.108   4.512   3.313
53963SOL     OW63785  11.308   1.771   4.574
53963SOL    HW163786  11.300   1.795   4.666
53963SOL    HW263787  11.321   1.677   4.574
53964SOL     OW63788  13.668  13.581   3.870
53964SOL    HW163789  13.635  13.496   3.841
53964SOL    HW263790  13.702  13.564   3.958
53965SOL     OW63791   4.869   2.489   6.410
53965SOL    HW163792   4.820   2.480   6.492
53965SOL    HW263793   4.859   2.581   6.386
53966SOL     OW63794   7.030   1.920  12.518
53966SOL    HW163795   6.959   1.945  12.458
53966SOL    HW263796   7.097   1.988  12.505
53967SOL     OW63797   0.038   2.414  13.699
53967SOL    HW163798   0.017   2.347  13.765
53967SOL    HW263799   0.024   2.369  13.616
53968SOL     OW63800   6.717  10.611  14.198
53968SOL    HW163801   6.735  10.624  14.105
53968SOL    HW263802   6.633  10.564  14.200
53969SOL     OW63803   0.958   9.453   9.592
53969SOL    HW163804   1.007   9.427   9.514
53969SOL    HW263805   0.877   9.491   9.559
53970SOL     OW63806   2.024   1.497  11.307
53970SOL    HW163807   2.064   1.494  11.393
53970SOL    HW263808   1.930   1.485  11.323
53971SOL     OW63809   1.606  12.417  11.029
53971SOL    HW163810   1.641  12.481  10.968
53971SOL    HW263811   1.523  12.389  10.990
53972SOL     OW63812   9.924   8.100   6.815
53972SOL    HW163813  10.007   8.121   6.772
53972SOL    HW263814   9.861   8.095   6.744
53973SOL     OW63815   5.040  12.829   9.342
53973SOL    HW163816   4.989  12.765   9.392
53973SOL    HW263817   5.029  12.801   9.250
53974SOL     OW63818   2.441   9.827  14.293
53974SOL    HW163819   2.362   9.868  14.329
53974SOL    HW263820   2.438   9.737  14.324
53975SOL     OW63821  13.343  12.170  14.467
53975SOL    HW163822  13.306  12.233  14.528
53975SOL    HW263823  13.403  12.221  14.413
53976SOL     OW63824   2.420   6.436   2.245
53976SOL    HW163825   2.512   6.416   2.233
53976SOL    HW263826   2.382   6.429   2.157
53977SOL     OW63827   4.516   0.261   4.015
53977SOL    HW163828   4.523   0.296   4.104
53977SOL    HW263829   4.493   0.337   3.961
53978SOL     OW63830   5.668   9.920  14.066
53978SOL    HW163831   5.647   9.852  14.130
53978SOL    HW263832   5.677  10.000  14.119
53979SOL     OW63833  11.543   8.879  10.147
53979SOL    HW163834  11.583   8.808  10.098
53979SOL    HW263835  11.498   8.932  10.081
53980SOL     OW63836  13.107   1.913  11.426
53980SOL    HW163837  13.102   1.893  11.519
53980SOL    HW263838  13.201   1.918  11.408
53981SOL     OW63839   9.162   7.066   9.129
53981SOL    HW163840   9.078   7.100   9.096
53981SOL    HW263841   9.153   6.971   9.121
53982SOL     OW63842   7.609   8.271  13.031
53982SOL    HW163843   7.540   8.228  13.081
53982SOL    HW263844   7.618   8.219  12.952
53983SOL     OW63845   4.637   5.173   0.586
53983SOL    HW163846   4.606   5.260   0.613
53983SOL    HW263847   4.558   5.121   0.577
53984SOL     OW63848   3.378   0.526   6.453
53984SOL    HW163849   3.398   0.578   6.376
53984SOL    HW263850   3.401   0.582   6.527
53985SOL     OW63851   8.171  12.194   9.855
53985SOL    HW163852   8.247  12.185   9.913
53985SOL    HW263853   8.156  12.288   9.850
53986SOL     OW63854   0.617   8.961   8.917
53986SOL    HW163855   0.534   9.008   8.919
53986SOL    HW263856   0.597   8.879   8.872
53987SOL     OW63857   9.859  10.620   6.656
53987SOL    HW163858   9.794  10.611   6.726
53987SOL    HW263859   9.931  10.563   6.683
53988SOL     OW63860  10.179   9.154   7.625
53988SOL    HW163861  10.262   9.116   7.596
53988SOL    HW263862  10.141   9.087   7.683
53989SOL     OW63863   9.796  13.194   2.094
53989SOL    HW163864   9.836  13.119   2.050
53989SOL    HW263865   9.783  13.164   2.184
53990SOL     OW63866   9.150   4.638  12.008
53990SOL    HW163867   9.216   4.572  11.987
53990SOL    HW263868   9.090   4.594  12.068
53991SOL     OW63869   9.269  11.164   8.240
53991SOL    HW163870   9.295  11.123   8.322
53991SOL    HW263871   9.325  11.123   8.174
53992SOL     OW63872  10.042   1.962   8.022
53992SOL    HW163873  10.053   1.980   8.115
53992SOL    HW263874  10.099   1.886   8.006
53993SOL     OW63875  11.841   7.997  12.611
53993SOL    HW163876  11.807   7.916  12.648
53993SOL    HW263877  11.833   8.061  12.682
53994SOL     OW63878   7.105  13.851  10.136
53994SOL    HW163879   7.160  13.859  10.058
53994SOL    HW263880   7.127  13.766  10.173
53995SOL     OW63881   5.525   2.206   7.014
53995SOL    HW163882   5.491   2.237   7.099
53995SOL    HW263883   5.453   2.221   6.953
53996SOL     OW63884  11.529  10.717  13.959
53996SOL    HW163885  11.544  10.741  13.868
53996SOL    HW263886  11.589  10.774  14.009
53997SOL     OW63887   1.701  10.619   4.837
53997SOL    HW163888   1.664  10.668   4.910
53997SOL    HW263889   1.669  10.665   4.759
53998SOL     OW63890   2.036  12.647  10.417
53998SOL    HW163891   2.123  12.678  10.439
53998SOL    HW263892   1.989  12.725  10.387
53999SOL     OW63893   6.292   9.038  11.804
53999SOL    HW163894   6.218   9.098  11.810
53999SOL    HW263895   6.321   9.027  11.894
54000SOL     OW63896   1.091  13.841   0.538
54000SOL    HW163897   1.110  13.873   0.626
54000SOL    HW263898   1.100  13.746   0.546
54001SOL     OW63899   4.351  10.159   8.108
54001SOL    HW163900   4.353  10.219   8.033
54001SOL    HW263901   4.435  10.171   8.151
54002SOL     OW63902   7.024   9.966   2.946
54002SOL    HW163903   6.998  10.054   2.975
54002SOL    HW263904   6.942   9.919   2.935
54003SOL     OW63905  12.698   1.938   3.530
54003SOL    HW163906  12.706   1.885   3.451
54003SOL    HW263907  12.676   2.025   3.498
54004SOL     OW63908  12.471  14.748  12.307
54004SOL    HW163909  12.558  14.765  12.271
54004SOL    HW263910  12.466  14.653  12.315
54005SOL     OW63911  11.272  12.644  12.072
54005SOL    HW163912  11.335  12.700  12.026
54005SOL    HW263913  11.311  12.557  12.069
54006SOL     OW63914  11.884   2.421  12.713
54006SOL    HW163915  11.883   2.439  12.619
54006SOL    HW263916  11.891   2.326  12.720
54007SOL     OW63917   3.994  13.400   8.860
54007SOL    HW163918   3.992  13.496   8.857
54007SOL    HW263919   4.080  13.377   8.826
54008SOL     OW63920  14.596  11.397  14.026
54008SOL    HW163921  14.655  11.384  14.099
54008SOL    HW263922  14.606  11.319  13.972
54009SOL     OW63923  14.571   5.079  13.705
54009SOL    HW163924  14.627   5.099  13.631
54009SOL    HW263925  14.517   5.005  13.676
54010SOL     OW63926   7.661   0.958   3.178
54010SOL    HW163927   7.605   0.991   3.108
54010SOL    HW263928   7.600   0.927   3.245
54011SOL     OW63929  13.350   1.013   2.529
54011SOL    HW163930  13.280   1.050   2.474
54011SOL    HW263931  13.424   1.001   2.469
54012SOL     OW63932  10.911   3.158  14.833
54012SOL    HW163933  10.928   3.143  14.740
54012SOL    HW263934  10.820   3.132  14.845
54013SOL     OW63935  11.724   7.686   7.856
54013SOL    HW163936  11.787   7.654   7.921
54013SOL    HW263937  11.640   7.687   7.902
54014SOL     OW63938   5.300   9.868  14.340
54014SOL    HW163939   5.376   9.819  14.311
54014SOL    HW263940   5.272   9.824  14.420
54015SOL     OW63941   1.049   8.972  12.473
54015SOL    HW163942   1.140   8.968  12.502
54015SOL    HW263943   1.046   9.047  12.413
54016SOL     OW63944   8.080  13.724   0.236
54016SOL    HW163945   8.158  13.711   0.183
54016SOL    HW263946   8.046  13.809   0.207
54017SOL     OW63947   9.168   0.145   8.664
54017SOL    HW163948   9.245   0.123   8.611
54017SOL    HW263949   9.187   0.108   8.750
54018SOL     OW63950  14.754   0.495  11.790
54018SOL    HW163951  14.757   0.580  11.834
54018SOL    HW263952  14.667   0.460  11.812
54019SOL     OW63953   1.449   0.409  10.595
54019SOL    HW163954   1.481   0.469  10.528
54019SOL    HW263955   1.484   0.444  10.677
54020SOL     OW63956   9.366  11.638  11.141
54020SOL    HW163957   9.321  11.669  11.220
54020SOL    HW263958   9.458  11.659  11.156
54021SOL     OW63959   5.333   6.477   1.401
54021SOL    HW163960   5.300   6.459   1.489
54021SOL    HW263961   5.413   6.424   1.394
54022SOL     OW63962  11.617   7.606   6.486
54022SOL    HW163963  11.617   7.530   6.427
54022SOL    HW263964  11.663   7.576   6.564
54023SOL     OW63965  13.278  12.643   4.745
54023SOL    HW163966  13.301  12.584   4.673
54023SOL    HW263967  13.189  12.672   4.724
54024SOL     OW63968   0.622   7.309   5.368
54024SOL    HW163969   0.668   7.384   5.330
54024SOL    HW263970   0.674   7.233   5.342
54025SOL     OW63971   7.162   6.533   0.785
54025SOL    HW163972   7.251   6.513   0.814
54025SOL    HW263973   7.170   6.618   0.741
54026SOL     OW63974  10.637  10.936  14.681
54026SOL    HW163975  10.708  10.900  14.735
54026SOL    HW263976  10.678  10.952  14.596
54027SOL     OW63977   7.429  12.112  10.768
54027SOL    HW163978   7.436  12.088  10.860
54027SOL    HW263979   7.346  12.159  10.762
54028SOL     OW63980   1.746  10.742   6.319
54028SOL    HW163981   1.826  10.701   6.287
54028SOL    HW263982   1.745  10.829   6.278
54029SOL     OW63983  10.364   0.384   1.310
54029SOL    HW163984  10.408   0.464   1.282
54029SOL    HW263985  10.271   0.402   1.297
54030SOL     OW63986   4.079   8.739   7.520
54030SOL    HW163987   4.153   8.706   7.571
54030SOL    HW263988   4.015   8.766   7.586
54031SOL     OW63989   4.952   9.850  12.765
54031SOL    HW163990   5.041   9.866  12.735
54031SOL    HW263991   4.898   9.909  12.712
54032SOL     OW63992  14.877   9.379   8.493
54032SOL    HW163993   0.007   9.390   8.399
54032SOL    HW263994   0.066   9.418   8.536
54033SOL     OW63995  14.454   1.969   7.605
54033SOL    HW163996  14.418   1.895   7.654
54033SOL    HW263997  14.428   2.046   7.655
54034SOL     OW63998   2.136   2.410   7.541
54034SOL    HW163999   2.131   2.386   7.634
54034SOL    HW264000   2.146   2.505   7.541
54035SOL     OW64001   7.547   7.059   0.876
54035SOL    HW164002   7.622   7.025   0.828
54035SOL    HW264003   7.563   7.153   0.882
54036SOL     OW64004  13.020   4.288  13.276
54036SOL    HW164005  12.925   4.284  13.263
54036SOL    HW264006  13.055   4.237  13.203
54037SOL     OW64007   5.549   7.905  13.138
54037SOL    HW164008   5.457   7.878  13.134
54037SOL    HW264009   5.590   7.840  13.196
54038SOL     OW64010  11.656   6.763  14.322
54038SOL    HW164011  11.607   6.766  14.404
54038SOL    HW264012  11.589   6.761  14.254
54039SOL     OW64013   7.970   8.553   3.633
54039SOL    HW164014   7.924   8.564   3.716
54039SOL    HW264015   7.938   8.625   3.579
54040SOL     OW64016   0.019   1.169  12.830
54040SOL    HW164017   0.015   1.258  12.793
54040SOL    HW264018   0.085   1.124  12.778
54041SOL     OW64019   4.939   5.031   6.552
54041SOL    HW164020   4.859   5.007   6.599
54041SOL    HW264021   4.999   5.062   6.620
54042SOL     OW64022  14.263   2.427  14.687
54042SOL    HW164023  14.291   2.376  14.611
54042SOL    HW264024  14.185   2.473  14.657
54043SOL     OW64025  11.564   4.822   4.906
54043SOL    HW164026  11.579   4.731   4.882
54043SOL    HW264027  11.555   4.820   5.001
54044SOL     OW64028  14.798   5.555   0.359
54044SOL    HW164029  14.847   5.614   0.303
54044SOL    HW264030  14.857   5.482   0.375
54045SOL     OW64031   8.165  11.529   7.264
54045SOL    HW164032   8.123  11.493   7.342
54045SOL    HW264033   8.222  11.459   7.233
54046SOL     OW64034  11.450  12.232   3.862
54046SOL    HW164035  11.497  12.290   3.803
54046SOL    HW264036  11.405  12.170   3.804
54047SOL     OW64037  13.583   3.424  13.053
54047SOL    HW164038  13.561   3.512  13.084
54047SOL    HW264039  13.519   3.367  13.095
54048SOL     OW64040   3.785   8.360   8.921
54048SOL    HW164041   3.737   8.278   8.929
54048SOL    HW264042   3.728   8.416   8.868
54049SOL     OW64043   7.136   3.664   1.975
54049SOL    HW164044   7.067   3.672   2.041
54049SOL    HW264045   7.105   3.716   1.901
54050SOL     OW64046   6.094   0.389   4.817
54050SOL    HW164047   6.018   0.330   4.823
54050SOL    HW264048   6.057   0.473   4.789
54051SOL     OW64049  11.874   1.044  12.529
54051SOL    HW164050  11.796   1.057  12.582
54051SOL    HW264051  11.863   0.956  12.492
54052SOL     OW64052   8.307  13.199   5.277
54052SOL    HW164053   8.333  13.292   5.279
54052SOL    HW264054   8.271  13.183   5.364
54053SOL     OW64055   9.505   0.671  12.866
54053SOL    HW164056   9.597   0.698  12.872
54053SOL    HW264057   9.509   0.586  12.821
54054SOL     OW64058   6.502   0.542  13.975
54054SOL    HW164059   6.475   0.485  13.903
54054SOL    HW264060   6.422   0.562  14.022
54055SOL     OW64061   5.199   9.397  14.343
54055SOL    HW164062   5.290   9.415  14.323
54055SOL    HW264063   5.193   9.302  14.345
54056SOL     OW64064   9.957   0.162   4.925
54056SOL    HW164065  10.020   0.143   4.856
54056SOL    HW264066   9.894   0.221   4.884
54057SOL     OW64067   2.537   3.344   8.687
54057SOL    HW164068   2.505   3.434   8.680
54057SOL    HW264069   2.632   3.351   8.671
54058SOL     OW64070  10.127   5.212   9.960
54058SOL    HW164071  10.106   5.158   9.883
54058SOL    HW264072  10.052   5.269   9.971
54059SOL     OW64073  12.969   3.385  13.457
54059SOL    HW164074  12.979   3.330  13.380
54059SOL    HW264075  13.058   3.407  13.483
54060SOL     OW64076   4.562  12.409   9.618
54060SOL    HW164077   4.552  12.394   9.524
54060SOL    HW264078   4.492  12.356   9.658
54061SOL     OW64079   2.933   2.921   9.991
54061SOL    HW164080   2.980   2.841   9.966
54061SOL    HW264081   2.966   2.988   9.932
54062SOL     OW64082  12.829   4.528  14.529
54062SOL    HW164083  12.922   4.539  14.510
54062SOL    HW264084  12.796   4.617  14.544
54063SOL     OW64085  13.358  14.632   6.646
54063SOL    HW164086  13.285  14.649   6.587
54063SOL    HW264087  13.418  14.578   6.595
54064SOL     OW64088  11.652   7.310  12.066
54064SOL    HW164089  11.666   7.323  11.972
54064SOL    HW264090  11.650   7.399  12.102
54065SOL     OW64091  14.693  14.642   3.083
54065SOL    HW164092  14.728  14.604   3.164
54065SOL    HW264093  14.598  14.639   3.094
54066SOL     OW64094  14.354   2.774   0.565
54066SOL    HW164095  14.285   2.840   0.568
54066SOL    HW264096  14.390   2.772   0.654
54067SOL     OW64097  11.837   8.947   3.261
54067SOL    HW164098  11.752   8.969   3.221
54067SOL    HW264099  11.816   8.924   3.351
54068SOL     OW64100   8.011   0.960   8.527
54068SOL    HW164101   7.999   0.867   8.509
54068SOL    HW264102   7.991   0.969   8.620
54069SOL     OW64103   7.527   2.532   3.232
54069SOL    HW164104   7.622   2.525   3.222
54069SOL    HW264105   7.500   2.595   3.165
54070SOL     OW64106   0.679   3.629   0.287
54070SOL    HW164107   0.736   3.641   0.211
54070SOL    HW264108   0.678   3.714   0.331
54071SOL     OW64109  10.607   9.532   6.487
54071SOL    HW164110  10.656   9.582   6.552
54071SOL    HW264111  10.674   9.484   6.438
54072SOL     OW64112  10.360   0.954   7.096
54072SOL    HW164113  10.286   1.005   7.062
54072SOL    HW264114  10.418   0.944   7.021
54073SOL     OW64115   2.680   1.896  13.640
54073SOL    HW164116   2.669   1.969  13.579
54073SOL    HW264117   2.775   1.882  13.643
54074SOL     OW64118   2.386   4.606   6.144
54074SOL    HW164119   2.325   4.544   6.185
54074SOL    HW264120   2.377   4.589   6.050
54075SOL     OW64121   6.355   6.473  11.766
54075SOL    HW164122   6.372   6.567  11.764
54075SOL    HW264123   6.308   6.459  11.849
54076SOL     OW64124   8.541   8.165   0.424
54076SOL    HW164125   8.606   8.103   0.388
54076SOL    HW264126   8.586   8.249   0.424
54077SOL     OW64127  13.343   8.493   0.938
54077SOL    HW164128  13.263   8.546   0.930
54077SOL    HW264129  13.412   8.557   0.956
54078SOL     OW64130   1.465   3.376  10.443
54078SOL    HW164131   1.547   3.369  10.493
54078SOL    HW264132   1.471   3.305  10.379
54079SOL     OW64133   1.203   8.962  10.291
54079SOL    HW164134   1.223   8.970  10.198
54079SOL    HW264135   1.288   8.972  10.334
54080SOL     OW64136   6.548   0.747   2.899
54080SOL    HW164137   6.488   0.729   2.971
54080SOL    HW264138   6.496   0.731   2.820
54081SOL     OW64139  10.075   5.022   0.846
54081SOL    HW164140  10.005   5.048   0.906
54081SOL    HW264141  10.155   5.044   0.892
54082SOL     OW64142  13.841   3.768   1.961
54082SOL    HW164143  13.839   3.799   1.871
54082SOL    HW264144  13.775   3.698   1.964
54083SOL     OW64145   1.303   0.920   6.917
54083SOL    HW164146   1.236   0.985   6.894
54083SOL    HW264147   1.311   0.928   7.012
54084SOL     OW64148  14.091  11.750   0.557
54084SOL    HW164149  14.014  11.709   0.517
54084SOL    HW264150  14.064  11.771   0.646
54085SOL     OW64151  14.282  11.422  11.824
54085SOL    HW164152  14.244  11.509  11.837
54085SOL    HW264153  14.367  11.426  11.868
54086SOL     OW64154   8.811   3.503   8.006
54086SOL    HW164155   8.884   3.553   7.969
54086SOL    HW264156   8.806   3.532   8.097
54087SOL     OW64157   4.166   8.958   5.329
54087SOL    HW164158   4.138   9.045   5.360
54087SOL    HW264159   4.175   8.969   5.234
54088SOL     OW64160   4.740  10.282  12.904
54088SOL    HW164161   4.799  10.213  12.933
54088SOL    HW264162   4.751  10.285  12.809
54089SOL     OW64163   5.635   8.127   6.943
54089SOL    HW164164   5.659   8.189   6.875
54089SOL    HW264165   5.541   8.113   6.931
54090SOL     OW64166   9.730   5.523   3.297
54090SOL    HW164167   9.803   5.480   3.253
54090SOL    HW264168   9.759   5.614   3.308
54091SOL     OW64169  12.075   0.497  14.575
54091SOL    HW164170  12.085   0.417  14.627
54091SOL    HW264171  12.102   0.473  14.487
54092SOL     OW64172  12.484   5.308  13.199
54092SOL    HW164173  12.389   5.313  13.206
54092SOL    HW264174  12.507   5.225  13.243
54093SOL     OW64175   7.660   4.155   5.544
54093SOL    HW164176   7.701   4.076   5.511
54093SOL    HW264177   7.571   4.152   5.510
54094SOL     OW64178   8.447   5.483  13.766
54094SOL    HW164179   8.465   5.391  13.785
54094SOL    HW264180   8.359   5.484  13.731
54095SOL     OW64181   7.015   1.642  13.929
54095SOL    HW164182   6.972   1.558  13.913
54095SOL    HW264183   6.951   1.708  13.902
54096SOL     OW64184  11.559   5.043   0.146
54096SOL    HW164185  11.570   4.981   0.218
54096SOL    HW264186  11.533   4.988   0.072
54097SOL     OW64187   2.328   7.287  11.564
54097SOL    HW164188   2.296   7.230  11.494
54097SOL    HW264189   2.318   7.375  11.530
54098SOL     OW64190  11.823  14.130  11.233
54098SOL    HW164191  11.776  14.049  11.253
54098SOL    HW264192  11.788  14.158  11.149
54099SOL     OW64193   2.853   4.669   5.479
54099SOL    HW164194   2.761   4.653   5.456
54099SOL    HW264195   2.865   4.626   5.563
54100SOL     OW64196   2.235   8.112   4.519
54100SOL    HW164197   2.248   8.086   4.427
54100SOL    HW264198   2.140   8.116   4.529
54101SOL     OW64199   6.612  12.296   4.004
54101SOL    HW164200   6.624  12.346   3.923
54101SOL    HW264201   6.618  12.205   3.976
54102SOL     OW64202  12.272  12.774  11.799
54102SOL    HW164203  12.259  12.680  11.806
54102SOL    HW264204  12.198  12.813  11.845
54103SOL     OW64205  12.619   3.458   1.492
54103SOL    HW164206  12.635   3.513   1.415
54103SOL    HW264207  12.660   3.374   1.471
54104SOL     OW64208   9.351   6.062   7.859
54104SOL    HW164209   9.328   6.132   7.920
54104SOL    HW264210   9.430   6.092   7.816
54105SOL     OW64211  10.882   3.834  13.401
54105SOL    HW164212  10.910   3.848  13.311
54105SOL    HW264213  10.800   3.786  13.394
54106SOL     OW64214   5.296   3.427   2.094
54106SOL    HW164215   5.251   3.358   2.144
54106SOL    HW264216   5.275   3.407   2.003
54107SOL     OW64217   0.841   5.535  12.198
54107SOL    HW164218   0.847   5.459  12.140
54107SOL    HW264219   0.926   5.538  12.242
54108SOL     OW64220  12.328   1.487   7.249
54108SOL    HW164221  12.273   1.449   7.317
54108SOL    HW264222  12.417   1.479   7.282
54109SOL     OW64223   4.941   8.017   3.932
54109SOL    HW164224   4.917   8.082   3.867
54109SOL    HW264225   4.988   7.949   3.882
54110SOL     OW64226  13.864  13.554   6.445
54110SOL    HW164227  13.865  13.595   6.359
54110SOL    HW264228  13.772  13.553   6.470
54111SOL     OW64229   3.124  13.753  12.228
54111SOL    HW164230   3.180  13.683  12.260
54111SOL    HW264231   3.096  13.724  12.141
54112SOL     OW64232   1.943   3.424   6.835
54112SOL    HW164233   1.992   3.344   6.816
54112SOL    HW264234   1.980   3.456   6.917
54113SOL     OW64235   5.934  14.556  12.832
54113SOL    HW164236   5.901  14.484  12.778
54113SOL    HW264237   5.926  14.526  12.922
54114SOL     OW64238   1.688  14.275  12.521
54114SOL    HW164239   1.614  14.332  12.498
54114SOL    HW264240   1.753  14.334  12.558
54115SOL     OW64241   5.848   7.880   2.141
54115SOL    HW164242   5.765   7.873   2.189
54115SOL    HW264243   5.863   7.974   2.131
54116SOL     OW64244  10.743  11.873   4.697
54116SOL    HW164245  10.772  11.957   4.733
54116SOL    HW264246  10.820  11.837   4.654
54117SOL     OW64247   9.313  12.770  12.910
54117SOL    HW164248   9.366  12.706  12.959
54117SOL    HW264249   9.251  12.717  12.861
54118SOL     OW64250   4.590   4.842   9.481
54118SOL    HW164251   4.596   4.934   9.454
54118SOL    HW264252   4.651   4.796   9.423
54119SOL     OW64253  13.070   0.510  13.222
54119SOL    HW164254  13.121   0.485  13.298
54119SOL    HW264255  13.068   0.605  13.223
54120SOL     OW64256  12.913   0.191   2.517
54120SOL    HW164257  12.849   0.229   2.576
54120SOL    HW264258  12.876   0.106   2.492
54121SOL     OW64259   2.129  10.578  13.388
54121SOL    HW164260   2.126  10.667  13.353
54121SOL    HW264261   2.202  10.536  13.342
54122SOL     OW64262   4.970   9.876   0.174
54122SOL    HW164263   5.020   9.852   0.252
54122SOL    HW264264   4.880   9.852   0.194
54123SOL     OW64265   0.449   1.551   3.306
54123SOL    HW164266   0.399   1.626   3.273
54123SOL    HW264267   0.540   1.581   3.306
54124SOL     OW64268   1.930   5.831   6.233
54124SOL    HW164269   1.866   5.891   6.272
54124SOL    HW264270   1.937   5.860   6.142
54125SOL     OW64271   3.203  13.278  10.579
54125SOL    HW164272   3.298  13.281  10.594
54125SOL    HW264273   3.177  13.191  10.610
54126SOL     OW64274  12.747  11.712  11.764
54126SOL    HW164275  12.729  11.779  11.698
54126SOL    HW264276  12.794  11.644  11.716
54127SOL     OW64277   9.804  12.464   4.785
54127SOL    HW164278   9.825  12.493   4.697
54127SOL    HW264279   9.803  12.368   4.779
54128SOL     OW64280  14.601  13.991   2.168
54128SOL    HW164281  14.583  13.958   2.256
54128SOL    HW264282  14.685  14.036   2.175
54129SOL     OW64283  12.007  12.007  14.694
54129SOL    HW164284  12.064  12.074  14.658
54129SOL    HW264285  11.939  11.995  14.628
54130SOL     OW64286   5.645   7.264  11.027
54130SOL    HW164287   5.644   7.219  11.112
54130SOL    HW264288   5.584   7.338  11.039
54131SOL     OW64289   6.958   7.322  10.147
54131SOL    HW164290   6.975   7.257  10.216
54131SOL    HW264291   6.896   7.279  10.088
54132SOL     OW64292   5.921   0.635  13.366
54132SOL    HW164293   6.009   0.663  13.391
54132SOL    HW264294   5.920   0.643  13.271
54133SOL     OW64295   3.897  13.125   3.302
54133SOL    HW164296   3.908  13.146   3.209
54133SOL    HW264297   3.946  13.195   3.347
54134SOL     OW64298   3.919  12.042   8.710
54134SOL    HW164299   3.933  12.091   8.791
54134SOL    HW264300   4.006  12.012   8.684
54135SOL     OW64301   8.955   4.652   4.019
54135SOL    HW164302   8.901   4.574   4.008
54135SOL    HW264303   8.901   4.723   3.983
54136SOL     OW64304   9.089   9.512   1.994
54136SOL    HW164305   9.129   9.598   2.005
54136SOL    HW264306   9.056   9.489   2.081
54137SOL     OW64307   3.354  10.648   0.430
54137SOL    HW164308   3.410  10.682   0.499
54137SOL    HW264309   3.414  10.605   0.369
54138SOL     OW64310   8.454   9.971   0.005
54138SOL    HW164311   8.370   9.928  14.877
54138SOL    HW264312   8.485   9.995  14.804
54139SOL     OW64313  14.100  13.756   7.011
54139SOL    HW164314  14.141  13.717   6.934
54139SOL    HW264315  14.025  13.804   6.976
54140SOL     OW64316   8.781   1.858   5.849
54140SOL    HW164317   8.812   1.942   5.884
54140SOL    HW264318   8.837   1.841   5.774
54141SOL     OW64319   1.987  10.237  14.845
54141SOL    HW164320   1.929  10.267   0.028
54141SOL    HW264321   2.020  10.317  14.805
54142SOL     OW64322   5.135  11.625   1.543
54142SOL    HW164323   5.212  11.642   1.597
54142SOL    HW264324   5.082  11.564   1.595
54143SOL     OW64325  11.299   9.787   0.692
54143SOL    HW164326  11.353   9.730   0.639
54143SOL    HW264327  11.212   9.782   0.653
54144SOL     OW64328   0.593  13.836  11.681
54144SOL    HW164329   0.545  13.760  11.648
54144SOL    HW264330   0.681  13.803  11.698
54145SOL     OW64331  14.276   7.562  10.281
54145SOL    HW164332  14.362   7.521  10.293
54145SOL    HW264333  14.229   7.503  10.223
54146SOL     OW64334   9.337  13.617  12.776
54146SOL    HW164335   9.298  13.553  12.836
54146SOL    HW264336   9.410  13.570  12.735
54147SOL     OW64337   0.152  10.035   9.792
54147SOL    HW164338   0.095  10.090   9.737
54147SOL    HW264339   0.240  10.052   9.759
54148SOL     OW64340   9.828  10.216   9.384
54148SOL    HW164341   9.825  10.270   9.464
54148SOL    HW264342   9.844  10.280   9.314
54149SOL     OW64343   4.354   9.522   0.347
54149SOL    HW164344   4.283   9.477   0.300
54149SOL    HW264345   4.356   9.480   0.433
54150SOL     OW64346   8.114   3.155  14.244
54150SOL    HW164347   8.107   3.159  14.339
54150SOL    HW264348   8.044   3.095  14.217
54151SOL     OW64349   2.767  14.150  10.438
54151SOL    HW164350   2.856  14.114  10.428
54151SOL    HW264351   2.722  14.087  10.494
54152SOL     OW64352   7.379   7.958   4.324
54152SOL    HW164353   7.359   7.948   4.231
54152SOL    HW264354   7.437   7.884   4.344
54153SOL     OW64355   6.309   0.870  12.801
54153SOL    HW164356   6.353   0.936  12.747
54153SOL    HW264357   6.231   0.847  12.751
54154SOL     OW64358  13.012   1.655   5.671
54154SOL    HW164359  12.950   1.686   5.737
54154SOL    HW264360  13.093   1.704   5.689
54155SOL     OW64361   0.828   3.548  10.228
54155SOL    HW164362   0.887   3.488  10.274
54155SOL    HW264363   0.797   3.497  10.152
54156SOL     OW64364  12.834   6.566   8.518
54156SOL    HW164365  12.874   6.590   8.601
54156SOL    HW264366  12.744   6.543   8.541
54157SOL     OW64367   4.046   4.321   7.075
54157SOL    HW164368   4.022   4.364   7.157
54157SOL    HW264369   4.024   4.229   7.089
54158SOL     OW64370   9.708  14.270   2.761
54158SOL    HW164371   9.735  14.316   2.681
54158SOL    HW264372   9.787  14.262   2.813
54159SOL     OW64373  13.499   3.172  14.781
54159SOL    HW164374  13.486   3.265  14.762
54159SOL    HW264375  13.466   3.127  14.703
54160SOL     OW64376   9.650  14.213   7.095
54160SOL    HW164377   9.701  14.164   7.159
54160SOL    HW264378   9.575  14.157   7.076
54161SOL     OW64379   7.413   8.513   6.578
54161SOL    HW164380   7.379   8.553   6.657
54161SOL    HW264381   7.446   8.586   6.526
54162SOL     OW64382   0.941   3.358   1.013
54162SOL    HW164383   0.945   3.420   1.085
54162SOL    HW264384   1.009   3.294   1.033
54163SOL     OW64385   7.821  12.046   5.755
54163SOL    HW164386   7.883  11.995   5.703
54163SOL    HW264387   7.771  12.096   5.690
54164SOL     OW64388   0.144   9.870   5.406
54164SOL    HW164389   0.198   9.842   5.332
54164SOL    HW264390   0.116   9.959   5.383
54165SOL     OW64391  11.768  14.432   5.649
54165SOL    HW164392  11.697  14.395   5.597
54165SOL    HW264393  11.731  14.440   5.737
54166SOL     OW64394   6.149   0.502   5.088
54166SOL    HW164395   6.193   0.417   5.093
54166SOL    HW264396   6.164   0.532   4.999
54167SOL     OW64397   2.077   3.300  12.043
54167SOL    HW164398   2.133   3.372  12.073
54167SOL    HW264399   2.010   3.292  12.110
54168SOL     OW64400   3.528  14.522   8.690
54168SOL    HW164401   3.614  14.503   8.729
54168SOL    HW264402   3.466  14.474   8.745
54169SOL     OW64403   0.863  12.053   7.387
54169SOL    HW164404   0.942  12.015   7.426
54169SOL    HW264405   0.804  12.066   7.461
54170SOL     OW64406  12.449   7.040   1.165
54170SOL    HW164407  12.363   7.000   1.173
54170SOL    HW264408  12.493   6.989   1.098
54171SOL     OW64409   9.141   8.099   5.986
54171SOL    HW164410   9.091   8.018   5.978
54171SOL    HW264411   9.113   8.152   5.911
54172SOL     OW64412  12.005  11.018  11.791
54172SOL    HW164413  12.063  10.983  11.722
54172SOL    HW264414  11.939  10.950  11.804
54173SOL     OW64415   3.384  12.645  12.037
54173SOL    HW164416   3.329  12.665  11.961
54173SOL    HW264417   3.468  12.619  11.999
54174SOL     OW64418   1.804  13.340   0.179
54174SOL    HW164419   1.786  13.430   0.152
54174SOL    HW264420   1.849  13.301   0.103
54175SOL     OW64421   3.352   1.772   8.629
54175SOL    HW164422   3.379   1.687   8.664
54175SOL    HW264423   3.434   1.820   8.616
54176SOL     OW64424  10.650   0.725   9.642
54176SOL    HW164425  10.728   0.756   9.595
54176SOL    HW264426  10.585   0.712   9.572
54177SOL     OW64427  11.627   7.634   5.664
54177SOL    HW164428  11.717   7.609   5.644
54177SOL    HW264429  11.578   7.618   5.583
54178SOL     OW64430   9.873   7.868   8.506
54178SOL    HW164431   9.796   7.874   8.563
54178SOL    HW264432   9.841   7.893   8.419
54179SOL     OW64433   4.594   3.157   3.221
54179SOL    HW164434   4.670   3.215   3.215
54179SOL    HW264435   4.580   3.126   3.132
54180SOL     OW64436  12.396  13.792   5.133
54180SOL    HW164437  12.446  13.858   5.085
54180SOL    HW264438  12.305  13.821   5.126
54181SOL     OW64439  10.315   0.000   7.732
54181SOL    HW164440  10.339  14.797   7.716
54181SOL    HW264441  10.334   0.015   7.825
54182SOL     OW64442  12.453  10.064  12.835
54182SOL    HW164443  12.464  10.008  12.758
54182SOL    HW264444  12.363  10.096  12.830
54183SOL     OW64445  11.695   7.669  13.354
54183SOL    HW164446  11.725   7.759  13.368
54183SOL    HW264447  11.748   7.637  13.280
54184SOL     OW64448  14.163   9.310   7.876
54184SOL    HW164449  14.085   9.275   7.833
54184SOL    HW264450  14.182   9.392   7.830
54185SOL     OW64451   2.654   2.250   6.066
54185SOL    HW164452   2.679   2.322   6.008
54185SOL    HW264453   2.702   2.266   6.147
54186SOL     OW64454  13.451   8.956   1.605
54186SOL    HW164455  13.433   8.862   1.594
54186SOL    HW264456  13.378   8.988   1.658
54187SOL     OW64457   0.460   2.062  14.010
54187SOL    HW164458   0.458   2.019  13.925
54187SOL    HW264459   0.445   1.992  14.073
54188SOL     OW64460   7.155   0.404  13.473
54188SOL    HW164461   7.106   0.480  13.441
54188SOL    HW264462   7.148   0.410  13.568
54189SOL     OW64463   0.752   2.293   7.767
54189SOL    HW164464   0.730   2.352   7.694
54189SOL    HW264465   0.806   2.225   7.727
54190SOL     OW64466   0.524  12.833  14.104
54190SOL    HW164467   0.573  12.885  14.040
54190SOL    HW264468   0.590  12.775  14.143
54191SOL     OW64469  11.893  13.767   0.552
54191SOL    HW164470  11.851  13.840   0.507
54191SOL    HW264471  11.956  13.808   0.611
54192SOL     OW64472   0.921   3.747   0.584
54192SOL    HW164473   0.945   3.762   0.493
54192SOL    HW264474   0.981   3.680   0.614
54193SOL     OW64475  11.918   9.782   7.354
54193SOL    HW164476  11.853   9.752   7.291
54193SOL    HW264477  11.911   9.878   7.352
54194SOL     OW64478   4.968   2.841   9.306
54194SOL    HW164479   5.034   2.798   9.251
54194SOL    HW264480   5.004   2.834   9.395
54195SOL     OW64481  13.929   3.172   7.875
54195SOL    HW164482  13.877   3.248   7.850
54195SOL    HW264483  13.885   3.137   7.952
54196SOL     OW64484  10.069   8.179   9.304
54196SOL    HW164485  10.048   8.235   9.230
54196SOL    HW264486   9.985   8.141   9.331
54197SOL     OW64487   0.092   1.843  13.808
54197SOL    HW164488   0.057   1.799  13.731
54197SOL    HW264489   0.173   1.884  13.777
54198SOL     OW64490  10.923   8.905   7.611
54198SOL    HW164491  10.986   8.833   7.620
54198SOL    HW264492  10.860   8.874   7.546
54199SOL     OW64493   3.158  10.769   5.610
54199SOL    HW164494   3.096  10.726   5.668
54199SOL    HW264495   3.242  10.762   5.655
54200SOL     OW64496  12.814   8.619   2.318
54200SOL    HW164497  12.725   8.639   2.346
54200SOL    HW264498  12.806   8.592   2.227
54201SOL     OW64499   9.053   0.923   1.551
54201SOL    HW164500   9.149   0.924   1.562
54201SOL    HW264501   9.024   1.006   1.589
54202SOL     OW64502  11.916   1.571  10.216
54202SOL    HW164503  11.904   1.628  10.292
54202SOL    HW264504  11.836   1.584  10.164
54203SOL     OW64505  11.082  12.163   6.697
54203SOL    HW164506  11.144  12.145   6.769
54203SOL    HW264507  11.015  12.219   6.736
54204SOL     OW64508  11.545  12.268  14.150
54204SOL    HW164509  11.494  12.348  14.163
54204SOL    HW264510  11.499  12.202  14.202
54205SOL     OW64511  10.309  12.368  10.770
54205SOL    HW164512  10.244  12.298  10.781
54205SOL    HW264513  10.284  12.411  10.688
54206SOL     OW64514   6.042   2.468   1.640
54206SOL    HW164515   6.113   2.442   1.581
54206SOL    HW264516   6.087   2.507   1.715
54207SOL     OW64517  11.932   1.241   3.363
54207SOL    HW164518  11.949   1.188   3.285
54207SOL    HW264519  11.844   1.216   3.390
54208SOL     OW64520   8.471  13.475  14.535
54208SOL    HW164521   8.547  13.426  14.566
54208SOL    HW264522   8.477  13.560  14.580
54209SOL     OW64523   0.791   9.865   8.466
54209SOL    HW164524   0.711   9.888   8.419
54209SOL    HW264525   0.788   9.769   8.473
54210SOL     OW64526  12.036   2.993  14.812
54210SOL    HW164527  12.110   2.998  14.871
54210SOL    HW264528  12.051   2.914  14.760
54211SOL     OW64529   2.090   4.477   3.397
54211SOL    HW164530   2.002   4.448   3.372
54211SOL    HW264531   2.119   4.415   3.463
54212SOL     OW64532  12.897   6.692   8.817
54212SOL    HW164533  12.827   6.745   8.781
54212SOL    HW264534  12.963   6.755   8.847
54213SOL     OW64535  13.850   8.043   3.730
54213SOL    HW164536  13.812   7.957   3.711
54213SOL    HW264537  13.932   8.044   3.681
54214SOL     OW64538   9.830  13.230   8.556
54214SOL    HW164539   9.744  13.199   8.527
54214SOL    HW264540   9.823  13.325   8.559
54215SOL     OW64541  12.320   1.279   0.946
54215SOL    HW164542  12.279   1.364   0.957
54215SOL    HW264543  12.407   1.289   0.985
54216SOL     OW64544   3.902   4.620  14.532
54216SOL    HW164545   3.892   4.657  14.620
54216SOL    HW264546   3.963   4.679  14.488
54217SOL     OW64547   2.114   3.563  13.810
54217SOL    HW164548   2.079   3.635  13.862
54217SOL    HW264549   2.043   3.539  13.751
54218SOL     OW64550  11.472   5.652  11.539
54218SOL    HW164551  11.564   5.627  11.543
54218SOL    HW264552  11.471   5.743  11.568
54219SOL     OW64553  14.343  13.661  12.722
54219SOL    HW164554  14.302  13.694  12.802
54219SOL    HW264555  14.392  13.736  12.689
54220SOL     OW64556  10.938   9.736   7.044
54220SOL    HW164557  10.889   9.799   6.991
54220SOL    HW264558  10.900   9.651   7.021
54221SOL     OW64559  13.756  14.502   1.433
54221SOL    HW164560  13.832  14.529   1.484
54221SOL    HW264561  13.792  14.472   1.349
54222SOL     OW64562  10.075   7.394   0.134
54222SOL    HW164563   9.996   7.439   0.164
54222SOL    HW264564  10.069   7.307   0.173
54223SOL     OW64565   3.395  11.045   6.286
54223SOL    HW164566   3.308  11.047   6.326
54223SOL    HW264567   3.383  11.087   6.201
54224SOL     OW64568  10.901  12.737   9.229
54224SOL    HW164569  10.962  12.771   9.164
54224SOL    HW264570  10.856  12.665   9.184
54225SOL     OW64571   9.645   3.550   3.090
54225SOL    HW164572   9.686   3.560   3.176
54225SOL    HW264573   9.551   3.547   3.109
54226SOL     OW64574   0.351  11.783  13.971
54226SOL    HW164575   0.299  11.807  14.049
54226SOL    HW264576   0.296  11.808  13.897
54227SOL     OW64577   5.696   5.689   4.382
54227SOL    HW164578   5.782   5.647   4.380
54227SOL    HW264579   5.634   5.617   4.378
54228SOL     OW64580   4.554   5.722   6.768
54228SOL    HW164581   4.604   5.756   6.694
54228SOL    HW264582   4.539   5.630   6.746
54229SOL     OW64583   6.515   2.640   8.943
54229SOL    HW164584   6.497   2.579   8.871
54229SOL    HW264585   6.433   2.644   8.992
54230SOL     OW64586   4.128   4.379   2.988
54230SOL    HW164587   4.064   4.324   2.943
54230SOL    HW264588   4.169   4.430   2.919
54231SOL     OW64589  10.859  13.511  13.601
54231SOL    HW164590  10.880  13.569  13.529
54231SOL    HW264591  10.911  13.432  13.584
54232SOL     OW64592  12.649   5.769  12.945
54232SOL    HW164593  12.558   5.747  12.923
54232SOL    HW264594  12.642   5.821  13.025
54233SOL     OW64595   2.668   6.671   8.281
54233SOL    HW164596   2.623   6.742   8.328
54233SOL    HW264597   2.761   6.689   8.295
54234SOL     OW64598   6.009   8.664  11.577
54234SOL    HW164599   5.992   8.621  11.493
54234SOL    HW264600   5.998   8.595  11.642
54235SOL     OW64601   6.546   8.908   2.457
54235SOL    HW164602   6.558   8.949   2.542
54235SOL    HW264603   6.516   8.819   2.477
54236SOL     OW64604   3.962   6.695   5.844
54236SOL    HW164605   4.011   6.680   5.925
54236SOL    HW264606   3.871   6.690   5.871
54237SOL     OW64607  13.458   3.440   7.233
54237SOL    HW164608  13.477   3.368   7.293
54237SOL    HW264609  13.537   3.448   7.179
54238SOL     OW64610   9.007   4.383   8.929
54238SOL    HW164611   9.099   4.409   8.933
54238SOL    HW264612   9.008   4.290   8.910
54239SOL     OW64613   9.390   9.464  11.084
54239SOL    HW164614   9.351   9.455  10.997
54239SOL    HW264615   9.448   9.540  11.077
54240SOL     OW64616  12.420  10.505   9.876
54240SOL    HW164617  12.411  10.446   9.801
54240SOL    HW264618  12.513  10.503   9.897
54241SOL     OW64619   0.050   2.097   5.770
54241SOL    HW164620   0.118   2.164   5.769
54241SOL    HW264621   0.068   2.045   5.848
54242SOL     OW64622  11.429   9.409   1.168
54242SOL    HW164623  11.425   9.365   1.253
54242SOL    HW264624  11.366   9.481   1.176
54243SOL     OW64625  10.797   4.903   2.896
54243SOL    HW164626  10.726   4.929   2.838
54243SOL    HW264627  10.872   4.956   2.868
54244SOL     OW64628  12.186   3.450   4.241
54244SOL    HW164629  12.126   3.377   4.263
54244SOL    HW264630  12.128   3.523   4.221
54245SOL     OW64631   6.829   4.653   7.655
54245SOL    HW164632   6.819   4.748   7.646
54245SOL    HW264633   6.871   4.626   7.573
54246SOL     OW64634   4.580  11.941   4.849
54246SOL    HW164635   4.634  11.862   4.853
54246SOL    HW264636   4.643  12.013   4.846
54247SOL     OW64637   2.250   2.250   2.244
54247SOL    HW164638   2.339   2.269   2.272
54247SOL    HW264639   2.196   2.270   2.321
54248SOL     OW64640   3.829  11.464   0.773
54248SOL    HW164641   3.842  11.397   0.706
54248SOL    HW264642   3.917  11.494   0.795
54249SOL     OW64643  10.763   1.683  13.564
54249SOL    HW164644  10.679   1.719  13.535
54249SOL    HW264645  10.740   1.627  13.639
54250SOL     OW64646   1.485   1.447   3.324
54250SOL    HW164647   1.501   1.497   3.404
54250SOL    HW264648   1.426   1.377   3.351
54251SOL     OW64649   1.631   4.669   8.655
54251SOL    HW164650   1.716   4.653   8.615
54251SOL    HW264651   1.568   4.643   8.588
54252SOL     OW64652   0.657  13.050  10.856
54252SOL    HW164653   0.656  13.130  10.909
54252SOL    HW264654   0.725  12.996  10.896
54253SOL     OW64655   7.976   8.000  14.281
54253SOL    HW164656   7.933   7.914  14.286
54253SOL    HW264657   7.983   8.018  14.187
54254SOL     OW64658   4.287  13.490  13.485
54254SOL    HW164659   4.313  13.401  13.460
54254SOL    HW264660   4.356  13.519  13.544
54255SOL     OW64661  12.828   1.419   6.029
54255SOL    HW164662  12.858   1.385   5.945
54255SOL    HW264663  12.750   1.368   6.049
54256SOL     OW64664   0.173   9.370   1.570
54256SOL    HW164665   0.249   9.319   1.545
54256SOL    HW264666   0.206   9.460   1.580
54257SOL     OW64667   7.128  14.869   0.622
54257SOL    HW164668   7.065   0.019   0.560
54257SOL    HW264669   7.098  14.779   0.636
54258SOL     OW64670   6.838  14.839   9.865
54258SOL    HW164671   6.890  14.765   9.836
54258SOL    HW264672   6.747  14.809   9.858
54259SOL     OW64673   3.122   2.214   8.253
54259SOL    HW164674   3.191   2.159   8.216
54259SOL    HW264675   3.133   2.299   8.210
54260SOL     OW64676   3.915   0.325   7.526
54260SOL    HW164677   4.000   0.356   7.557
54260SOL    HW264678   3.915   0.231   7.545
54261SOL     OW64679   8.343   0.296   9.865
54261SOL    HW164680   8.370   0.388   9.874
54261SOL    HW264681   8.421   0.246   9.889
54262SOL     OW64682  12.404   2.298  10.319
54262SOL    HW164683  12.417   2.391  10.336
54262SOL    HW264684  12.355   2.266  10.395
54263SOL     OW64685   5.349   1.154   2.432
54263SOL    HW164686   5.294   1.097   2.378
54263SOL    HW264687   5.370   1.228   2.375
54264SOL     OW64688  14.697  12.294   2.159
54264SOL    HW164689  14.692  12.389   2.166
54264SOL    HW264690  14.708  12.264   2.250
54265SOL     OW64691   8.210  10.364  11.811
54265SOL    HW164692   8.240  10.330  11.727
54265SOL    HW264693   8.133  10.311  11.832
54266SOL     OW64694  10.447  11.500   2.651
54266SOL    HW164695  10.450  11.517   2.746
54266SOL    HW264696  10.418  11.582   2.613
54267SOL     OW64697   5.500  12.257  12.098
54267SOL    HW164698   5.415  12.235  12.135
54267SOL    HW264699   5.561  12.198  12.140
54268SOL     OW64700   5.825   3.064   0.468
54268SOL    HW164701   5.773   3.121   0.411
54268SOL    HW264702   5.821   3.107   0.554
54269SOL     OW64703  13.105   8.231   6.015
54269SOL    HW164704  13.103   8.325   5.996
54269SOL    HW264705  13.115   8.190   5.929
54270SOL     OW64706  12.395  14.530   3.486
54270SOL    HW164707  12.324  14.581   3.446
54270SOL    HW264708  12.360  14.504   3.571
54271SOL     OW64709  11.913   1.682   8.592
54271SOL    HW164710  11.859   1.624   8.645
54271SOL    HW264711  11.996   1.687   8.639
54272SOL     OW64712  10.119   1.692   8.077
54272SOL    HW164713  10.157   1.646   8.152
54272SOL    HW264714  10.024   1.690   8.093
54273SOL     OW64715   1.483   0.466   8.663
54273SOL    HW164716   1.402   0.506   8.633
54273SOL    HW264717   1.464   0.439   8.753
54274SOL     OW64718  11.998  11.801  14.002
54274SOL    HW164719  12.066  11.863  14.027
54274SOL    HW264720  12.041  11.744  13.938
54275SOL     OW64721  14.627   7.461  13.738
54275SOL    HW164722  14.702   7.492  13.688
54275SOL    HW264723  14.635   7.505  13.823
54276SOL     OW64724  10.367   0.883   6.136
54276SOL    HW164725  10.324   0.798   6.121
54276SOL    HW264726  10.318   0.944   6.080
54277SOL     OW64727   1.799   9.820   4.960
54277SOL    HW164728   1.744   9.812   5.038
54277SOL    HW264729   1.827   9.731   4.940
54278SOL     OW64730   5.634   2.017  14.514
54278SOL    HW164731   5.546   1.979  14.506
54278SOL    HW264732   5.657   2.041  14.424
54279SOL     OW64733   9.764   3.739   8.340
54279SOL    HW164734   9.711   3.666   8.306
54279SOL    HW264735   9.854   3.711   8.328
54280SOL     OW64736  14.880  11.513  11.075
54280SOL    HW164737  14.833  11.461  11.141
54280SOL    HW264738   0.031  11.586  11.125
54281SOL     OW64739  10.667   5.243   0.334
54281SOL    HW164740  10.719   5.237   0.254
54281SOL    HW264741  10.638   5.153   0.351
54282SOL     OW64742   9.622   9.163  10.955
54282SOL    HW164743   9.669   9.173  11.038
54282SOL    HW264744   9.687   9.132  10.893
54283SOL     OW64745   5.221  10.431   4.061
54283SOL    HW164746   5.135  10.423   4.020
54283SOL    HW264747   5.275  10.366   4.017
54284SOL     OW64748   3.061   6.382  12.729
54284SOL    HW164749   3.118   6.307  12.712
54284SOL    HW264750   3.051   6.424  12.644
54285SOL     OW64751  11.434   1.025   6.274
54285SOL    HW164752  11.471   0.944   6.240
54285SOL    HW264753  11.371   1.053   6.208
54286SOL     OW64754   9.720   3.026   2.993
54286SOL    HW164755   9.684   3.094   2.936
54286SOL    HW264756   9.686   2.944   2.957
54287SOL     OW64757   1.003   3.500   1.881
54287SOL    HW164758   1.024   3.588   1.912
54287SOL    HW264759   1.070   3.481   1.815
54288SOL     OW64760  14.447   0.814   4.704
54288SOL    HW164761  14.371   0.870   4.721
54288SOL    HW264762  14.427   0.771   4.621
54289SOL     OW64763   6.259   9.704  10.564
54289SOL    HW164764   6.219   9.780  10.606
54289SOL    HW264765   6.321   9.671  10.630
54290SOL     OW64766   8.289   2.809   6.929
54290SOL    HW164767   8.371   2.793   6.975
54290SOL    HW264768   8.314   2.862   6.853
54291SOL     OW64769  12.921   9.639   4.232
54291SOL    HW164770  12.836   9.613   4.268
54291SOL    HW264771  12.981   9.569   4.259
54292SOL     OW64772  10.006   0.419  13.432
54292SOL    HW164773   9.951   0.451  13.360
54292SOL    HW264774   9.950   0.424  13.509
54293SOL     OW64775   0.119   2.249   0.255
54293SOL    HW164776   0.078   2.316   0.200
54293SOL    HW264777   0.061   2.173   0.248
54294SOL     OW64778   3.986   5.865  10.985
54294SOL    HW164779   3.964   5.952  11.020
54294SOL    HW264780   3.952   5.866  10.896
54295SOL     OW64781   4.560   2.708  14.371
54295SOL    HW164782   4.481   2.753  14.342
54295SOL    HW264783   4.608   2.690  14.290
54296SOL     OW64784   6.260   5.205   3.445
54296SOL    HW164785   6.192   5.161   3.394
54296SOL    HW264786   6.218   5.285   3.477
54297SOL     OW64787  14.221  13.522   9.181
54297SOL    HW164788  14.190  13.596   9.233
54297SOL    HW264789  14.210  13.447   9.239
54298SOL     OW64790   2.728   3.726  10.481
54298SOL    HW164791   2.662   3.760  10.541
54298SOL    HW264792   2.784   3.671  10.536
54299SOL     OW64793   7.806   5.031   2.559
54299SOL    HW164794   7.724   5.036   2.608
54299SOL    HW264795   7.803   4.946   2.515
54300SOL     OW64796  13.514   8.942   1.974
54300SOL    HW164797  13.566   9.022   1.985
54300SOL    HW264798  13.579   8.873   1.960
54301SOL     OW64799   5.292  14.115  12.501
54301SOL    HW164800   5.238  14.058  12.555
54301SOL    HW264801   5.230  14.171  12.455
54302SOL     OW64802  14.173  14.127   6.414
54302SOL    HW164803  14.228  14.203   6.394
54302SOL    HW264804  14.101  14.162   6.466
54303SOL     OW64805   8.237   0.535   0.605
54303SOL    HW164806   8.303   0.470   0.627
54303SOL    HW264807   8.164   0.517   0.664
54304SOL     OW64808  10.648   4.318   5.411
54304SOL    HW164809  10.632   4.394   5.467
54304SOL    HW264810  10.563   4.277   5.401
54305SOL     OW64811   6.091  12.557   1.082
54305SOL    HW164812   6.037  12.483   1.054
54305SOL    HW264813   6.163  12.517   1.130
54306SOL     OW64814   8.024   3.763   2.351
54306SOL    HW164815   8.039   3.855   2.332
54306SOL    HW264816   7.949   3.763   2.411
54307SOL     OW64817   7.054   2.163   6.509
54307SOL    HW164818   6.987   2.153   6.442
54307SOL    HW264819   7.109   2.085   6.500
54308SOL     OW64820  12.421  11.935   4.927
54308SOL    HW164821  12.440  11.954   5.019
54308SOL    HW264822  12.372  12.011   4.896
54309SOL     OW64823   9.403   5.276  14.351
54309SOL    HW164824   9.388   5.200  14.296
54309SOL    HW264825   9.408   5.241  14.440
54310SOL     OW64826  13.863  12.243   6.156
54310SOL    HW164827  13.821  12.265   6.073
54310SOL    HW264828  13.947  12.205   6.131
54311SOL     OW64829  11.752   7.932   4.689
54311SOL    HW164830  11.743   8.005   4.749
54311SOL    HW264831  11.732   7.854   4.742
54312SOL     OW64832   3.006  13.261   3.883
54312SOL    HW164833   2.968  13.338   3.841
54312SOL    HW264834   3.094  13.287   3.909
54313SOL     OW64835   5.351   4.417   9.279
54313SOL    HW164836   5.279   4.414   9.216
54313SOL    HW264837   5.323   4.360   9.350
54314SOL     OW64838  13.820   6.677   6.861
54314SOL    HW164839  13.806   6.690   6.955
54314SOL    HW264840  13.909   6.710   6.845
54315SOL     OW64841   6.105   7.444  12.274
54315SOL    HW164842   6.084   7.502  12.347
54315SOL    HW264843   6.131   7.503  12.204
54316SOL     OW64844   9.552  12.448  12.829
54316SOL    HW164845   9.486  12.469  12.764
54316SOL    HW264846   9.632  12.430  12.778
54317SOL     OW64847   0.573   4.302   3.783
54317SOL    HW164848   0.540   4.292   3.694
54317SOL    HW264849   0.665   4.327   3.772
54318SOL     OW64850   4.614  10.570  14.164
54318SOL    HW164851   4.601  10.491  14.216
54318SOL    HW264852   4.668  10.542  14.090
54319SOL     OW64853   9.260  12.671  13.849
54319SOL    HW164854   9.317  12.748  13.838
54319SOL    HW264855   9.301  12.620  13.918
54320SOL     OW64856  13.323  13.820   7.787
54320SOL    HW164857  13.404  13.804   7.835
54320SOL    HW264858  13.353  13.854   7.702
54321SOL     OW64859  13.715   8.487  10.967
54321SOL    HW164860  13.781   8.425  10.999
54321SOL    HW264861  13.711   8.553  11.035
54322SOL     OW64862   3.681   8.884   4.254
54322SOL    HW164863   3.682   8.809   4.313
54322SOL    HW264864   3.734   8.950   4.298
54323SOL     OW64865   6.602   8.729   6.413
54323SOL    HW164866   6.614   8.642   6.451
54323SOL    HW264867   6.618   8.717   6.319
54324SOL     OW64868  14.886   2.052   7.775
54324SOL    HW164869  14.820   2.106   7.731
54324SOL    HW264870  14.857   1.962   7.761
54325SOL     OW64871   2.527  13.989   3.524
54325SOL    HW164872   2.438  14.014   3.498
54325SOL    HW264873   2.515  13.920   3.588
54326SOL     OW64874   0.265   8.117   2.699
54326SOL    HW164875   0.349   8.146   2.665
54326SOL    HW264876   0.261   8.024   2.680
54327SOL     OW64877  10.378  11.824   6.139
54327SOL    HW164878  10.422  11.908   6.123
54327SOL    HW264879  10.399  11.803   6.230
54328SOL     OW64880   0.770   1.183   9.421
54328SOL    HW164881   0.708   1.256   9.422
54328SOL    HW264882   0.856   1.224   9.426
54329SOL     OW64883  10.493  13.743   4.577
54329SOL    HW164884  10.530  13.831   4.585
54329SOL    HW264885  10.505  13.720   4.485
54330SOL     OW64886  13.100   9.490   2.122
54330SOL    HW164887  13.095   9.581   2.092
54330SOL    HW264888  13.100   9.438   2.041
54331SOL     OW64889   7.355  10.237   5.887
54331SOL    HW164890   7.420  10.307   5.885
54331SOL    HW264891   7.359  10.198   5.800
54332SOL     OW64892  14.138   9.777   7.063
54332SOL    HW164893  14.123   9.683   7.055
54332SOL    HW264894  14.204   9.797   6.997
54333SOL     OW64895  12.586  14.578  14.041
54333SOL    HW164896  12.526  14.649  14.063
54333SOL    HW264897  12.556  14.548  13.955
54334SOL     OW64898  11.645   2.660   0.319
54334SOL    HW164899  11.608   2.572   0.326
54334SOL    HW264900  11.703   2.668   0.395
54335SOL     OW64901   1.353   3.792  14.823
54335SOL    HW164902   1.340   3.864  14.762
54335SOL    HW264903   1.372   3.716  14.767
54336SOL     OW64904   1.638   2.718   3.361
54336SOL    HW164905   1.619   2.644   3.419
54336SOL    HW264906   1.706   2.686   3.303
54337SOL     OW64907   7.126  11.073  13.634
54337SOL    HW164908   7.079  10.995  13.663
54337SOL    HW264909   7.206  11.075  13.687
54338SOL     OW64910  11.502   4.032   1.075
54338SOL    HW164911  11.556   4.037   0.996
54338SOL    HW264912  11.542   4.094   1.136
54339SOL     OW64913  11.339  11.237   2.575
54339SOL    HW164914  11.396  11.172   2.535
54339SOL    HW264915  11.395  11.282   2.638
54340SOL     OW64916   1.762   9.386   3.920
54340SOL    HW164917   1.781   9.293   3.920
54340SOL    HW264918   1.700   9.398   3.992
54341SOL     OW64919  10.644  10.996   5.370
54341SOL    HW164920  10.622  10.911   5.409
54341SOL    HW264921  10.577  11.010   5.303
54342SOL     OW64922   1.095   0.538  12.513
54342SOL    HW164923   1.178   0.508  12.475
54342SOL    HW264924   1.091   0.632  12.491
54343SOL     OW64925   3.301   7.750   3.514
54343SOL    HW164926   3.248   7.726   3.590
54343SOL    HW264927   3.391   7.731   3.539
54344SOL     OW64928  12.356   2.864   0.783
54344SOL    HW164929  12.293   2.802   0.747
54344SOL    HW264930  12.333   2.948   0.743
54345SOL     OW64931   9.371   3.663   7.791
54345SOL    HW164932   9.400   3.620   7.710
54345SOL    HW264933   9.289   3.618   7.814
54346SOL     OW64934   2.410  11.863   9.865
54346SOL    HW164935   2.436  11.876   9.956
54346SOL    HW264936   2.314  11.856   9.868
54347SOL     OW64937   1.372   4.936   5.121
54347SOL    HW164938   1.300   4.957   5.179
54347SOL    HW264939   1.421   4.867   5.166
54348SOL     OW64940  11.135   4.890   0.959
54348SOL    HW164941  11.058   4.840   0.932
54348SOL    HW264942  11.209   4.835   0.933
54349SOL     OW64943   8.601   2.168   6.022
54349SOL    HW164944   8.545   2.182   5.946
54349SOL    HW264945   8.670   2.109   5.992
54350SOL     OW64946  13.752  12.303   9.535
54350SOL    HW164947  13.771  12.218   9.495
54350SOL    HW264948  13.788  12.297   9.623
54351SOL     OW64949  12.389   8.833  14.704
54351SOL    HW164950  12.297   8.819  14.724
54351SOL    HW264951  12.389   8.874  14.618
54352SOL     OW64952   7.146   0.200   7.380
54352SOL    HW164953   7.103   0.213   7.464
54352SOL    HW264954   7.152   0.289   7.343
54353SOL     OW64955   7.129   0.901  10.845
54353SOL    HW164956   7.093   0.932  10.762
54353SOL    HW264957   7.109   0.807  10.845
54354SOL     OW64958   9.753   0.837  10.050
54354SOL    HW164959   9.816   0.907  10.034
54354SOL    HW264960   9.793   0.760  10.009
54355SOL     OW64961  11.157   6.070   7.494
54355SOL    HW164962  11.184   6.006   7.428
54355SOL    HW264963  11.120   6.142   7.444
54356SOL     OW64964  11.891   5.782   4.392
54356SOL    HW164965  11.955   5.750   4.328
54356SOL    HW264966  11.904   5.876   4.395
54357SOL     OW64967  14.777   5.591   9.041
54357SOL    HW164968  14.755   5.499   9.057
54357SOL    HW264969  14.870   5.589   9.016
54358SOL     OW64970   8.463   1.883  11.294
54358SOL    HW164971   8.415   1.889  11.211
54358SOL    HW264972   8.425   1.807  11.337
54359SOL     OW64973   9.482   2.135  14.650
54359SOL    HW164974   9.573   2.144  14.679
54359SOL    HW264975   9.431   2.139  14.731
54360SOL     OW64976   7.965   7.327   5.960
54360SOL    HW164977   7.942   7.409   6.003
54360SOL    HW264978   7.889   7.306   5.906
54361SOL     OW64979   5.541  10.500   3.987
54361SOL    HW164980   5.572  10.529   3.901
54361SOL    HW264981   5.517  10.409   3.974
54362SOL     OW64982   7.173   9.406   6.682
54362SOL    HW164983   7.078   9.395   6.683
54362SOL    HW264984   7.205   9.338   6.622
54363SOL     OW64985   0.171   5.402   4.535
54363SOL    HW164986   0.261   5.417   4.507
54363SOL    HW264987   0.159   5.460   4.610
54364SOL     OW64988   2.920  11.861   3.148
54364SOL    HW164989   2.912  11.786   3.207
54364SOL    HW264990   2.887  11.935   3.199
54365SOL     OW64991   1.819   1.559  14.859
54365SOL    HW164992   1.847   1.476   0.010
54365SOL    HW264993   1.851   1.626   0.031
54366SOL     OW64994   1.497  11.675   8.184
54366SOL    HW164995   1.556  11.749   8.194
54366SOL    HW264996   1.412  11.707   8.215
54367SOL     OW64997   1.587   6.241   4.356
54367SOL    HW164998   1.618   6.190   4.431
54367SOL    HW264999   1.598   6.182   4.281
54368SOL     OW65000  14.251   3.115   1.388
54368SOL    HW165001  14.203   3.036   1.362
54368SOL    HW265002  14.333   3.110   1.339
54369SOL     OW65003   9.821   8.075  12.329
54369SOL    HW165004   9.901   8.125  12.315
54369SOL    HW265005   9.816   8.016  12.253
54370SOL     OW65006   9.355  13.134   4.819
54370SOL    HW165007   9.420  13.202   4.837
54370SOL    HW265008   9.324  13.107   4.905
54371SOL     OW65009   8.286   2.465   8.521
54371SOL    HW165010   8.291   2.371   8.501
54371SOL    HW265011   8.340   2.507   8.455
54372SOL     OW65012   8.313   7.582   8.775
54372SOL    HW165013   8.286   7.577   8.683
54372SOL    HW265014   8.406   7.604   8.772
54373SOL     OW65015  11.783   0.159  14.728
54373SOL    HW165016  11.820   0.241  14.762
54373SOL    HW265017  11.704   0.187  14.681
54374SOL     OW65018   0.996   6.080  14.500
54374SOL    HW165019   1.079   6.055  14.541
54374SOL    HW265020   0.936   6.095  14.573
54375SOL     OW65021   5.221   5.342  11.741
54375SOL    HW165022   5.131   5.348  11.771
54375SOL    HW265023   5.215   5.314  11.650
54376SOL     OW65024   9.463   0.058  11.705
54376SOL    HW165025   9.489   0.131  11.649
54376SOL    HW265026   9.377   0.033  11.673
54377SOL     OW65027  14.254  14.175  13.437
54377SOL    HW165028  14.321  14.213  13.493
54377SOL    HW265029  14.293  14.094  13.404
54378SOL     OW65030   7.298  12.887   3.404
54378SOL    HW165031   7.317  12.854   3.317
54378SOL    HW265032   7.372  12.945   3.424
54379SOL     OW65033   7.525   0.529   3.002
54379SOL    HW165034   7.537   0.502   3.093
54379SOL    HW265035   7.586   0.474   2.952
54380SOL     OW65036  14.887   2.088   2.649
54380SOL    HW165037   0.001   1.995   2.672
54380SOL    HW265038  14.845   2.091   2.563
54381SOL     OW65039   7.335   3.820   4.602
54381SOL    HW165040   7.335   3.886   4.532
54381SOL    HW265041   7.428   3.798   4.613
54382SOL     OW65042   7.943  12.097   3.917
54382SOL    HW165043   7.966  12.006   3.899
54382SOL    HW265044   8.022  12.147   3.896
54383SOL     OW65045   7.503   8.489   3.687
54383SOL    HW165046   7.464   8.571   3.719
54383SOL    HW265047   7.509   8.433   3.764
54384SOL     OW65048   4.320   2.454   2.657
54384SOL    HW165049   4.394   2.454   2.717
54384SOL    HW265050   4.246   2.422   2.709
54385SOL     OW65051   1.149   9.816  13.714
54385SOL    HW165052   1.112   9.752  13.775
54385SOL    HW265053   1.136   9.900  13.758
54386SOL     OW65054  14.227  14.670  14.380
54386SOL    HW165055  14.282  14.697  14.307
54386SOL    HW265056  14.152  14.626  14.339
54387SOL     OW65057  10.521   2.314   5.909
54387SOL    HW165058  10.549   2.223   5.907
54387SOL    HW265059  10.439   2.315   5.859
54388SOL     OW65060   1.460   2.092   5.901
54388SOL    HW165061   1.553   2.081   5.920
54388SOL    HW265062   1.435   2.012   5.856
54389SOL     OW65063   8.081   1.952  12.919
54389SOL    HW165064   8.120   1.881  12.869
54389SOL    HW265065   8.001   1.914  12.955
54390SOL     OW65066   1.591  11.255   3.749
54390SOL    HW165067   1.498  11.256   3.727
54390SOL    HW265068   1.604  11.335   3.800
54391SOL     OW65069   7.852   4.472   9.326
54391SOL    HW165070   7.871   4.535   9.396
54391SOL    HW265071   7.772   4.505   9.286
54392SOL     OW65072   2.134   9.907   0.274
54392SOL    HW165073   2.069   9.925   0.206
54392SOL    HW265074   2.101   9.950   0.352
54393SOL     OW65075   0.980   5.284   5.336
54393SOL    HW165076   1.027   5.346   5.391
54393SOL    HW265077   0.942   5.338   5.266
54394SOL     OW65078  11.707   0.290  14.375
54394SOL    HW165079  11.714   0.317  14.283
54394SOL    HW265080  11.768   0.217  14.383
54395SOL     OW65081  13.570   6.726   4.577
54395SOL    HW165082  13.476   6.730   4.562
54395SOL    HW265083  13.609   6.738   4.491
54396SOL     OW65084   5.597   1.049  13.289
54396SOL    HW165085   5.575   1.116  13.225
54396SOL    HW265086   5.687   1.023  13.266
54397SOL     OW65087   7.137  14.785  10.835
54397SOL    HW165088   7.190  14.705  10.831
54397SOL    HW265089   7.201  14.856  10.826
54398SOL     OW65090   5.610   0.751  12.765
54398SOL    HW165091   5.557   0.803  12.705
54398SOL    HW265092   5.556   0.741  12.843
54399SOL     OW65093   1.940   7.428   4.055
54399SOL    HW165094   1.920   7.474   4.137
54399SOL    HW265095   1.917   7.337   4.073
54400SOL     OW65096  11.556  12.998   3.358
54400SOL    HW165097  11.532  12.911   3.324
54400SOL    HW265098  11.579  12.982   3.450
54401SOL     OW65099   6.111   6.511   6.274
54401SOL    HW165100   6.146   6.473   6.194
54401SOL    HW265101   6.065   6.590   6.245
54402SOL     OW65102  14.097   4.910  11.262
54402SOL    HW165103  14.072   4.819  11.280
54402SOL    HW265104  14.192   4.908  11.251
54403SOL     OW65105   2.113  13.391  11.227
54403SOL    HW165106   2.112  13.487  11.228
54403SOL    HW265107   2.115  13.367  11.320
54404SOL     OW65108  10.699   6.917   5.787
54404SOL    HW165109  10.685   6.911   5.882
54404SOL    HW265110  10.692   7.010   5.767
54405SOL     OW65111  10.056   8.194  12.278
54405SOL    HW165112  10.026   8.261  12.216
54405SOL    HW265113  10.138   8.162  12.240
54406SOL     OW65114   4.438  13.974  10.665
54406SOL    HW165115   4.506  14.012  10.610
54406SOL    HW265116   4.435  13.882  10.639
54407SOL     OW65117   4.426   3.968   7.824
54407SOL    HW165118   4.431   3.881   7.784
54407SOL    HW265119   4.479   3.961   7.903
54408SOL     OW65120   5.693   5.702   2.698
54408SOL    HW165121   5.647   5.786   2.690
54408SOL    HW265122   5.631   5.645   2.744
54409SOL     OW65123  11.998   6.464  12.627
54409SOL    HW165124  12.058   6.431  12.694
54409SOL    HW265125  11.916   6.479  12.673
54410SOL     OW65126   8.267   8.048   0.091
54410SOL    HW165127   8.279   8.068  14.885
54410SOL    HW265128   8.330   8.103   0.136
54411SOL     OW65129   0.637   1.305   3.934
54411SOL    HW165130   0.568   1.358   3.895
54411SOL    HW265131   0.692   1.367   3.981
54412SOL     OW65132  14.316   0.963  13.442
54412SOL    HW165133  14.315   0.879  13.395
54412SOL    HW265134  14.332   0.939  13.533
54413SOL     OW65135   1.305   9.228   0.124
54413SOL    HW165136   1.251   9.305   0.105
54413SOL    HW265137   1.331   9.195   0.038
54414SOL     OW65138   2.022   2.333   2.436
54414SOL    HW165139   2.060   2.363   2.519
54414SOL    HW265140   1.944   2.386   2.425
54415SOL     OW65141   6.228   8.646  12.557
54415SOL    HW165142   6.163   8.694  12.505
54415SOL    HW265143   6.312   8.683  12.532
54416SOL     OW65144  14.670   1.092   0.444
54416SOL    HW165145  14.759   1.118   0.422
54416SOL    HW265146  14.653   1.134   0.528
54417SOL     OW65147   8.052   4.975   7.218
54417SOL    HW165148   7.975   4.998   7.165
54417SOL    HW265149   8.082   5.059   7.253
54418SOL     OW65150   8.586   6.571   4.101
54418SOL    HW165151   8.666   6.520   4.116
54418SOL    HW265152   8.550   6.535   4.021
54419SOL     OW65153  14.007   5.662  12.674
54419SOL    HW165154  13.977   5.730  12.735
54419SOL    HW265155  14.069   5.610  12.725
54420SOL     OW65156   5.417  11.744  14.197
54420SOL    HW165157   5.374  11.829  14.206
54420SOL    HW265158   5.358  11.683  14.240
54421SOL     OW65159   2.851   5.939   3.748
54421SOL    HW165160   2.921   6.004   3.741
54421SOL    HW265161   2.796   5.969   3.820
54422SOL     OW65162  11.551   1.297   9.104
54422SOL    HW165163  11.500   1.342   9.172
54422SOL    HW265164  11.597   1.367   9.058
54423SOL     OW65165   9.350  14.736   9.718
54423SOL    HW165166   9.312  14.770   9.636
54423SOL    HW265167   9.406  14.806   9.750
54424SOL     OW65168   9.542  12.706   1.713
54424SOL    HW165169   9.526  12.645   1.785
54424SOL    HW265170   9.488  12.782   1.734
54425SOL     OW65171  10.710   8.079   5.234
54425SOL    HW165172  10.654   8.003   5.247
54425SOL    HW265173  10.797   8.050   5.261
54426SOL     OW65174  13.904  10.082   8.554
54426SOL    HW165175  13.896   9.993   8.587
54426SOL    HW265176  13.881  10.075   8.461
54427SOL     OW65177  13.131  12.959   8.251
54427SOL    HW165178  13.069  13.024   8.219
54427SOL    HW265179  13.108  12.879   8.204
54428SOL     OW65180   7.484   1.988   0.081
54428SOL    HW165181   7.507   1.902   0.045
54428SOL    HW265182   7.544   2.049   0.040
54429SOL     OW65183  12.806   5.532  11.421
54429SOL    HW165184  12.864   5.528  11.497
54429SOL    HW265185  12.718   5.541  11.458
54430SOL     OW65186  11.228   1.624   6.087
54430SOL    HW165187  11.216   1.672   6.169
54430SOL    HW265188  11.318   1.593   6.091
54431SOL     OW65189  13.540   1.834   7.305
54431SOL    HW165190  13.515   1.757   7.254
54431SOL    HW265191  13.494   1.823   7.389
54432SOL     OW65192  11.401   0.077  11.750
54432SOL    HW165193  11.320   0.103  11.795
54432SOL    HW265194  11.422  14.878  11.786
54433SOL     OW65195   5.134   6.960  10.567
54433SOL    HW165196   5.162   6.869  10.555
54433SOL    HW265197   5.064   6.972  10.504
54434SOL     OW65198  12.106   5.924   6.437
54434SOL    HW165199  12.065   5.867   6.371
54434SOL    HW265200  12.055   6.005   6.434
54435SOL     OW65201   4.960   4.584  12.485
54435SOL    HW165202   5.035   4.610  12.431
54435SOL    HW265203   4.918   4.514  12.434
54436SOL     OW65204   1.159  10.638   2.433
54436SOL    HW165205   1.133  10.579   2.504
54436SOL    HW265206   1.080  10.687   2.412
54437SOL     OW65207   9.194  14.594   5.282
54437SOL    HW165208   9.199  14.671   5.340
54437SOL    HW265209   9.175  14.521   5.341
54438SOL     OW65210  10.671   2.036   4.451
54438SOL    HW165211  10.696   1.962   4.506
54438SOL    HW265212  10.683   2.005   4.362
54439SOL     OW65213  13.489  14.145   2.238
54439SOL    HW165214  13.573  14.112   2.270
54439SOL    HW265215  13.508  14.234   2.207
54440SOL     OW65216  14.684   2.498   4.653
54440SOL    HW165217  14.599   2.532   4.624
54440SOL    HW265218  14.727   2.573   4.695
54441SOL     OW65219   3.984  12.833   6.451
54441SOL    HW165220   3.981  12.923   6.417
54441SOL    HW265221   3.898  12.797   6.431
54442SOL     OW65222  11.819   9.234   9.636
54442SOL    HW165223  11.839   9.184   9.715
54442SOL    HW265224  11.787   9.318   9.668
54443SOL     OW65225   9.958   1.371   9.419
54443SOL    HW165226  10.049   1.371   9.390
54443SOL    HW265227   9.949   1.292   9.472
54444SOL     OW65228   4.148  10.857   6.084
54444SOL    HW165229   4.148  10.897   6.171
54444SOL    HW265230   4.238  10.867   6.053
54445SOL     OW65231   3.288  10.657  11.803
54445SOL    HW165232   3.379  10.688  11.806
54445SOL    HW265233   3.295  10.568  11.767
54446SOL     OW65234   7.677  10.038  14.643
54446SOL    HW165235   7.679   9.942  14.650
54446SOL    HW265236   7.718  10.069  14.724
54447SOL     OW65237   5.426  11.987   6.827
54447SOL    HW165238   5.362  11.947   6.769
54447SOL    HW265239   5.374  12.044   6.884
54448SOL     OW65240   2.775   1.865   3.570
54448SOL    HW165241   2.788   1.829   3.657
54448SOL    HW265242   2.745   1.955   3.585
54449SOL     OW65243   0.771   3.922   2.295
54449SOL    HW165244   0.790   3.985   2.364
54449SOL    HW265245   0.676   3.921   2.287
54450SOL     OW65246  12.793   0.867   6.087
54450SOL    HW165247  12.873   0.920   6.087
54450SOL    HW265248  12.786   0.835   6.177
54451SOL     OW65249   5.802  10.428   7.818
54451SOL    HW165250   5.738  10.491   7.851
54451SOL    HW265251   5.856  10.478   7.757
54452SOL     OW65252  13.929  13.957  13.171
54452SOL    HW165253  13.979  13.915  13.242
54452SOL    HW265254  13.874  13.886  13.137
54453SOL     OW65255  12.643   4.914   1.527
54453SOL    HW165256  12.675   4.941   1.613
54453SOL    HW265257  12.630   4.995   1.479
54454SOL     OW65258  10.993  12.621   7.854
54454SOL    HW165259  11.081  12.653   7.834
54454SOL    HW265260  10.994  12.529   7.826
54455SOL     OW65261   0.967   1.244   6.668
54455SOL    HW165262   0.969   1.339   6.655
54455SOL    HW265263   0.939   1.209   6.584
54456SOL     OW65264   5.134   0.748  13.728
54456SOL    HW165265   5.168   0.831  13.694
54456SOL    HW265266   5.116   0.695  13.651
54457SOL     OW65267   8.043  12.716   3.952
54457SOL    HW165268   8.018  12.684   3.866
54457SOL    HW265269   7.976  12.682   4.011
54458SOL     OW65270   0.346   3.291   9.674
54458SOL    HW165271   0.256   3.320   9.662
54458SOL    HW265272   0.391   3.367   9.712
54459SOL     OW65273   9.729  11.084   5.276
54459SOL    HW165274   9.776  11.137   5.341
54459SOL    HW265275   9.730  11.137   5.196
54460SOL     OW65276   8.938   8.912   7.387
54460SOL    HW165277   8.897   8.989   7.348
54460SOL    HW265278   9.028   8.939   7.406
54461SOL     OW65279   6.524  10.150   6.023
54461SOL    HW165280   6.610  10.110   6.008
54461SOL    HW265281   6.543  10.234   6.064
54462SOL     OW65282  10.874  14.532   0.030
54462SOL    HW165283  10.868  14.549  14.823
54462SOL    HW265284  10.865  14.618   0.070
54463SOL     OW65285  14.580  11.527   4.154
54463SOL    HW165286  14.616  11.615   4.146
54463SOL    HW265287  14.486  11.539   4.140
54464SOL     OW65288   1.977   3.936  10.414
54464SOL    HW165289   2.035   4.006  10.446
54464SOL    HW265290   1.892   3.955  10.454
54465SOL     OW65291   2.029  13.609  11.515
54465SOL    HW165292   1.946  13.598  11.560
54465SOL    HW265293   2.006  13.644  11.429
54466SOL     OW65294   8.431   2.816  14.676
54466SOL    HW165295   8.401   2.868  14.751
54466SOL    HW265296   8.477   2.742  14.715
54467SOL     OW65297   9.893   9.414   0.385
54467SOL    HW165298   9.919   9.333   0.429
54467SOL    HW265299   9.804   9.431   0.416
54468SOL     OW65300  10.402   5.020   1.413
54468SOL    HW165301  10.439   4.992   1.329
54468SOL    HW265302  10.416   4.946   1.472
54469SOL     OW65303   7.640  11.243   2.354
54469SOL    HW165304   7.691  11.224   2.432
54469SOL    HW265305   7.697  11.299   2.301
54470SOL     OW65306  11.785   5.867  11.675
54470SOL    HW165307  11.771   5.906  11.589
54470SOL    HW265308  11.880   5.866  11.686
54471SOL     OW65309  12.113  12.878  14.645
54471SOL    HW165310  12.140  12.818  14.714
54471SOL    HW265311  12.089  12.822  14.572
54472SOL     OW65312  12.581   7.746   2.365
54472SOL    HW165313  12.656   7.787   2.407
54472SOL    HW265314  12.525   7.819   2.339
54473SOL     OW65315   1.217   4.594   3.672
54473SOL    HW165316   1.234   4.670   3.618
54473SOL    HW265317   1.162   4.537   3.617
54474SOL     OW65318   7.163   4.815   3.634
54474SOL    HW165319   7.191   4.907   3.635
54474SOL    HW265320   7.241   4.766   3.658
54475SOL     OW65321   4.442   3.946  11.954
54475SOL    HW165322   4.486   3.989  11.881
54475SOL    HW265323   4.352   3.933  11.925
54476SOL     OW65324  14.144   4.158   5.458
54476SOL    HW165325  14.126   4.252   5.453
54476SOL    HW265326  14.196   4.147   5.538
54477SOL     OW65327   2.771   0.508  12.170
54477SOL    HW165328   2.769   0.596  12.209
54477SOL    HW265329   2.742   0.451  12.241
54478SOL     OW65330   1.980  14.051  13.604
54478SOL    HW165331   1.920  13.989  13.561
54478SOL    HW265332   1.953  14.137  13.570
54479SOL     OW65333   3.550  12.223  12.928
54479SOL    HW165334   3.465  12.208  12.969
54479SOL    HW265335   3.598  12.277  12.990
54480SOL     OW65336  14.298   9.210   3.605
54480SOL    HW165337  14.307   9.128   3.654
54480SOL    HW265338  14.383   9.222   3.563
54481SOL     OW65339   8.401   5.996   1.521
54481SOL    HW165340   8.375   6.028   1.434
54481SOL    HW265341   8.340   5.925   1.540
54482SOL     OW65342   5.821   4.673   6.000
54482SOL    HW165343   5.738   4.654   6.044
54482SOL    HW265344   5.851   4.588   5.967
54483SOL     OW65345  14.772   1.925   8.675
54483SOL    HW165346  14.823   1.990   8.626
54483SOL    HW265347  14.697   1.906   8.620
54484SOL     OW65348  13.576   7.881   0.657
54484SOL    HW165349  13.524   7.810   0.617
54484SOL    HW265350  13.522   7.912   0.729
54485SOL     OW65351  13.190   4.455   8.170
54485SOL    HW165352  13.111   4.457   8.116
54485SOL    HW265353  13.216   4.547   8.176
54486SOL     OW65354   1.162   0.391   3.838
54486SOL    HW165355   1.077   0.400   3.795
54486SOL    HW265356   1.149   0.430   3.925
54487SOL     OW65357  12.838  13.447   8.338
54487SOL    HW165358  12.926  13.432   8.302
54487SOL    HW265359  12.848  13.525   8.393
54488SOL     OW65360   3.178   6.432  13.750
54488SOL    HW165361   3.119   6.449  13.677
54488SOL    HW265362   3.143   6.353  13.792
54489SOL     OW65363   6.511   9.367  12.322
54489SOL    HW165364   6.444   9.430  12.295
54489SOL    HW265365   6.548   9.335  12.240
54490SOL     OW65366  10.470   1.546  11.887
54490SOL    HW165367  10.404   1.610  11.914
54490SOL    HW265368  10.439   1.513  11.803
54491SOL     OW65369   2.119   8.901   5.869
54491SOL    HW165370   2.101   8.870   5.780
54491SOL    HW265371   2.210   8.930   5.867
54492SOL     OW65372   1.040   4.155   2.324
54492SOL    HW165373   1.009   4.217   2.257
54492SOL    HW265374   1.037   4.070   2.280
54493SOL     OW65375  12.673  14.344  10.113
54493SOL    HW165376  12.713  14.298  10.039
54493SOL    HW265377  12.740  14.343  10.181
54494SOL     OW65378   9.269   6.791  10.423
54494SOL    HW165379   9.248   6.753  10.508
54494SOL    HW265380   9.194   6.769  10.368
54495SOL     OW65381   1.393  14.175   7.061
54495SOL    HW165382   1.481  14.210   7.048
54495SOL    HW265383   1.390  14.096   7.007
54496SOL     OW65384   5.027   8.147   0.971
54496SOL    HW165385   5.064   8.219   0.920
54496SOL    HW265386   5.101   8.089   0.988
54497SOL     OW65387   1.677  11.794   1.290
54497SOL    HW165388   1.737  11.831   1.225
54497SOL    HW265389   1.704  11.703   1.299
54498SOL     OW65390   0.282   8.361   6.828
54498SOL    HW165391   0.270   8.276   6.871
54498SOL    HW265392   0.340   8.409   6.886
54499SOL     OW65393  14.146   2.183  12.221
54499SOL    HW165394  14.193   2.146  12.295
54499SOL    HW265395  14.215   2.221  12.165
54500SOL     OW65396  10.611   0.888   0.229
54500SOL    HW165397  10.666   0.878   0.151
54500SOL    HW265398  10.538   0.827   0.214
54501SOL     OW65399  10.051   0.035   9.448
54501SOL    HW165400  10.121   0.080   9.401
54501SOL    HW265401  10.028  14.849   9.392
54502SOL     OW65402   2.057   5.991   0.395
54502SOL    HW165403   2.002   6.008   0.472
54502SOL    HW265404   2.091   5.903   0.409
54503SOL     OW65405   9.253  14.667   7.758
54503SOL    HW165406   9.267  14.587   7.808
54503SOL    HW265407   9.282  14.737   7.815
54504SOL     OW65408   5.996   2.283   1.254
54504SOL    HW165409   6.045   2.365   1.250
54504SOL    HW265410   5.923   2.302   1.312
54505SOL     OW65411  10.941   3.721   0.443
54505SOL    HW165412  10.974   3.801   0.403
54505SOL    HW265413  10.846   3.725   0.432
54506SOL     OW65414   2.462  10.960   2.190
54506SOL    HW165415   2.394  10.911   2.146
54506SOL    HW265416   2.415  11.022   2.246
54507SOL     OW65417   8.016   7.527   7.840
54507SOL    HW165418   7.930   7.549   7.806
54507SOL    HW265419   8.068   7.606   7.827
54508SOL     OW65420  11.382  11.453   4.336
54508SOL    HW165421  11.294  11.470   4.302
54508SOL    HW265422  11.417  11.540   4.354
54509SOL     OW65423  13.686   7.319  12.372
54509SOL    HW165424  13.676   7.225  12.361
54509SOL    HW265425  13.680   7.354  12.283
54510SOL     OW65426   5.695   3.399   4.294
54510SOL    HW165427   5.784   3.363   4.287
54510SOL    HW265428   5.707   3.493   4.284
54511SOL     OW65429   2.887   9.769  11.367
54511SOL    HW165430   2.843   9.847  11.334
54511SOL    HW265431   2.978   9.779  11.339
54512SOL     OW65432  11.267  14.858  14.873
54512SOL    HW165433  11.199   0.028  14.839
54512SOL    HW265434  11.314  14.826  14.796
54513SOL     OW65435   4.604   0.517  13.654
54513SOL    HW165436   4.610   0.503  13.748
54513SOL    HW265437   4.564   0.603  13.644
54514SOL     OW65438   9.716  10.260  13.892
54514SOL    HW165439   9.806  10.234  13.910
54514SOL    HW265440   9.712  10.270  13.797
54515SOL     OW65441  14.085   4.246  13.739
54515SOL    HW165442  14.145   4.177  13.709
54515SOL    HW265443  14.048   4.282  13.659
54516SOL     OW65444   7.193   7.834  12.526
54516SOL    HW165445   7.247   7.836  12.447
54516SOL    HW265446   7.243   7.780  12.588
54517SOL     OW65447  10.624   8.552   3.743
54517SOL    HW165448  10.662   8.548   3.655
54517SOL    HW265449  10.642   8.465   3.780
54518SOL     OW65450   9.194   5.069  14.811
54518SOL    HW165451   9.174   5.042   0.013
54518SOL    HW265452   9.117   5.119  14.784
54519SOL     OW65453   7.200   5.133   3.534
54519SOL    HW165454   7.106   5.116   3.537
54519SOL    HW265455   7.213   5.180   3.451
54520SOL     OW65456   6.297  10.797   0.378
54520SOL    HW165457   6.325  10.717   0.421
54520SOL    HW265458   6.290  10.774   0.285
54521SOL     OW65459   3.713  14.457   2.183
54521SOL    HW165460   3.673  14.403   2.115
54521SOL    HW265461   3.681  14.421   2.265
54522SOL     OW65462   9.691   4.804   9.131
54522SOL    HW165463   9.777   4.827   9.095
54522SOL    HW265464   9.647   4.758   9.060
54523SOL     OW65465   8.202   1.385   2.978
54523SOL    HW165466   8.285   1.395   2.931
54523SOL    HW265467   8.142   1.347   2.915
54524SOL     OW65468   2.009   3.824  11.545
54524SOL    HW165469   1.930   3.873  11.524
54524SOL    HW265470   2.007   3.815  11.640
54525SOL     OW65471   5.075   5.335   4.635
54525SOL    HW165472   5.022   5.356   4.712
54525SOL    HW265473   5.124   5.416   4.618
54526SOL     OW65474   4.588   9.410   2.568
54526SOL    HW165475   4.655   9.434   2.503
54526SOL    HW265476   4.519   9.476   2.556
54527SOL     OW65477   6.928   7.211   2.783
54527SOL    HW165478   6.915   7.226   2.876
54527SOL    HW265479   6.982   7.285   2.754
54528SOL     OW65480  11.806   8.750  13.807
54528SOL    HW165481  11.840   8.666  13.838
54528SOL    HW265482  11.714   8.749  13.830
54529SOL     OW65483   1.043   7.008   0.548
54529SOL    HW165484   1.021   7.050   0.465
54529SOL    HW265485   1.102   7.069   0.592
54530SOL     OW65486  11.524  11.933   4.527
54530SOL    HW165487  11.561  11.849   4.554
54530SOL    HW265488  11.598  11.994   4.533
54531SOL     OW65489   1.850   6.112   9.169
54531SOL    HW165490   1.859   6.193   9.118
54531SOL    HW265491   1.756   6.096   9.173
54532SOL     OW65492  13.668   8.790   0.032
54532SOL    HW165493  13.677   8.808   0.125
54532SOL    HW265494  13.575   8.771   0.020
54533SOL     OW65495   4.561   3.098  10.136
54533SOL    HW165496   4.473   3.121  10.167
54533SOL    HW265497   4.587   3.024  10.190
54534SOL     OW65498  13.122  10.097   0.225
54534SOL    HW165499  13.071  10.035   0.172
54534SOL    HW265500  13.067  10.175   0.229
54535SOL     OW65501  11.258   0.398  10.141
54535SOL    HW165502  11.163   0.398  10.152
54535SOL    HW265503  11.286   0.316  10.182
54536SOL     OW65504   0.315   1.911  11.799
54536SOL    HW165505   0.301   1.835  11.742
54536SOL    HW265506   0.229   1.953  11.805
54537SOL     OW65507   2.183   7.884   2.118
54537SOL    HW165508   2.203   7.897   2.025
54537SOL    HW265509   2.115   7.949   2.136
54538SOL     OW65510   2.032   6.497   8.101
54538SOL    HW165511   2.027   6.478   8.007
54538SOL    HW265512   2.118   6.537   8.113
54539SOL     OW65513  13.122   7.767   6.636
54539SOL    HW165514  13.043   7.817   6.615
54539SOL    HW265515  13.152   7.732   6.552
54540SOL     OW65516  13.543  13.420  11.163
54540SOL    HW165517  13.474  13.420  11.097
54540SOL    HW265518  13.533  13.337  11.209
54541SOL     OW65519  14.848  14.740  10.867
54541SOL    HW165520   0.002  14.818  10.905
54541SOL    HW265521  14.765  14.732  10.914
54542SOL     OW65522   8.227   5.111   5.781
54542SOL    HW165523   8.181   5.052   5.722
54542SOL    HW265524   8.179   5.194   5.775
54543SOL     OW65525  12.230   9.433   1.620
54543SOL    HW165526  12.194   9.514   1.656
54543SOL    HW265527  12.324   9.440   1.636
54544SOL     OW65528   0.397   6.905   6.356
54544SOL    HW165529   0.326   6.907   6.421
54544SOL    HW265530   0.387   6.987   6.308
54545SOL     OW65531   5.868  14.093  14.626
54545SOL    HW165532   5.807  14.156  14.664
54545SOL    HW265533   5.943  14.145  14.599
54546SOL     OW65534   9.882   8.683  14.696
54546SOL    HW165535   9.974   8.662  14.714
54546SOL    HW265536   9.864   8.642  14.612
54547SOL     OW65537   3.248   6.407  14.244
54547SOL    HW165538   3.255   6.462  14.322
54547SOL    HW265539   3.185   6.453  14.188
54548SOL     OW65540  14.683  12.220  10.924
54548SOL    HW165541  14.680  12.139  10.873
54548SOL    HW265542  14.710  12.193  11.011
54549SOL     OW65543   9.907   4.102   0.305
54549SOL    HW165544   9.938   4.078   0.217
54549SOL    HW265545   9.908   4.198   0.305
54550SOL     OW65546  12.395   3.524  11.208
54550SOL    HW165547  12.487   3.532  11.183
54550SOL    HW265548  12.359   3.612  11.199
54551SOL     OW65549   3.472   5.092   6.694
54551SOL    HW165550   3.430   5.031   6.754
54551SOL    HW265551   3.490   5.170   6.748
54552SOL     OW65552   5.462  12.846   3.039
54552SOL    HW165553   5.509  12.780   3.089
54552SOL    HW265554   5.502  12.843   2.952
54553SOL     OW65555   3.283  10.194   3.670
54553SOL    HW165556   3.249  10.232   3.751
54553SOL    HW265557   3.377  10.186   3.686
54554SOL     OW65558   1.799   7.194  11.272
54554SOL    HW165559   1.879   7.206  11.324
54554SOL    HW265560   1.817   7.240  11.190
54555SOL     OW65561   8.982   0.466  10.096
54555SOL    HW165562   9.060   0.440  10.046
54555SOL    HW265563   8.975   0.560  10.080
54556SOL     OW65564   7.269   7.552  13.779
54556SOL    HW165565   7.310   7.515  13.701
54556SOL    HW265566   7.317   7.513  13.852
54557SOL     OW65567   3.099  11.536   4.584
54557SOL    HW165568   3.033  11.597   4.617
54557SOL    HW265569   3.110  11.561   4.492
54558SOL     OW65570  14.124   0.653   9.359
54558SOL    HW165571  14.060   0.582   9.357
54558SOL    HW265572  14.189   0.624   9.424
54559SOL     OW65573   0.493   9.656   8.672
54559SOL    HW165574   0.406   9.693   8.655
54559SOL    HW265575   0.497   9.579   8.614
54560SOL     OW65576   0.023   2.331   3.688
54560SOL    HW165577  14.862   2.352   3.768
54560SOL    HW265578   0.109   2.370   3.701
54561SOL     OW65579   8.950   2.304  10.078
54561SOL    HW165580   9.026   2.287  10.023
54561SOL    HW265581   8.972   2.264  10.163
54562SOL     OW65582  14.723  12.363   6.218
54562SOL    HW165583  14.712  12.363   6.313
54562SOL    HW265584  14.723  12.456   6.194
54563SOL     OW65585   4.132   6.460   4.798
54563SOL    HW165586   4.078   6.381   4.794
54563SOL    HW265587   4.070   6.533   4.794
54564SOL     OW65588   6.155   1.928  10.005
54564SOL    HW165589   6.145   2.015   9.966
54564SOL    HW265590   6.078   1.880   9.976
54565SOL     OW65591   0.153   9.991   0.680
54565SOL    HW165592   0.113   9.906   0.700
54565SOL    HW265593   0.242   9.969   0.652
54566SOL     OW65594  13.662  13.764   4.179
54566SOL    HW165595  13.734  13.702   4.183
54566SOL    HW265596  13.696  13.838   4.129
54567SOL     OW65597   8.701  10.411   2.391
54567SOL    HW165598   8.653  10.384   2.470
54567SOL    HW265599   8.750  10.489   2.419
54568SOL     OW65600   4.947   5.284   4.155
54568SOL    HW165601   4.958   5.351   4.221
54568SOL    HW265602   4.977   5.324   4.073
54569SOL     OW65603   8.985   3.608  13.407
54569SOL    HW165604   8.994   3.541  13.475
54569SOL    HW265605   9.006   3.690  13.451
54570SOL     OW65606   9.788   2.611  13.134
54570SOL    HW165607   9.820   2.701  13.136
54570SOL    HW265608   9.780   2.586  13.226
54571SOL     OW65609  14.860  14.230   4.072
54571SOL    HW165610  14.821  14.313   4.096
54571SOL    HW265611  14.795  14.187   4.016
54572SOL     OW65612   3.331  11.290   6.501
54572SOL    HW165613   3.369  11.322   6.583
54572SOL    HW265614   3.303  11.201   6.521
54573SOL     OW65615   4.813  13.899  11.929
54573SOL    HW165616   4.802  13.991  11.953
54573SOL    HW265617   4.824  13.854  12.012
54574SOL     OW65618   1.799   7.487  13.175
54574SOL    HW165619   1.738   7.423  13.211
54574SOL    HW265620   1.873   7.488  13.237
54575SOL     OW65621   2.678   7.444   3.506
54575SOL    HW165622   2.740   7.489   3.563
54575SOL    HW265623   2.697   7.477   3.419
54576SOL     OW65624   2.888   6.339   1.387
54576SOL    HW165625   2.903   6.324   1.480
54576SOL    HW265626   2.942   6.416   1.366
54577SOL     OW65627   7.026  11.788   7.881
54577SOL    HW165628   6.935  11.818   7.889
54577SOL    HW265629   7.063  11.842   7.811
54578SOL     OW65630   9.756  11.035   1.520
54578SOL    HW165631   9.699  10.959   1.535
54578SOL    HW265632   9.805  11.045   1.601
54579SOL     OW65633   0.555  10.341   0.830
54579SOL    HW165634   0.543  10.260   0.880
54579SOL    HW265635   0.466  10.377   0.824
54580SOL     OW65636   7.554   1.426   2.461
54580SOL    HW165637   7.489   1.476   2.510
54580SOL    HW265638   7.508   1.345   2.438
54581SOL     OW65639  10.370  10.480  11.899
54581SOL    HW165640  10.304  10.492  11.967
54581SOL    HW265641  10.320  10.474  11.817
54582SOL     OW65642  12.013   7.969   1.447
54582SOL    HW165643  12.082   7.986   1.384
54582SOL    HW265644  11.970   8.053   1.461
54583SOL     OW65645   4.835   4.372   5.085
54583SOL    HW165646   4.891   4.295   5.087
54583SOL    HW265647   4.790   4.371   5.169
54584SOL     OW65648   3.231   3.592   3.540
54584SOL    HW165649   3.215   3.512   3.489
54584SOL    HW265650   3.309   3.630   3.500
54585SOL     OW65651   3.892  12.554   4.459
54585SOL    HW165652   3.885  12.556   4.364
54585SOL    HW265653   3.978  12.516   4.476
54586SOL     OW65654   3.066  10.642   5.178
54586SOL    HW165655   2.993  10.660   5.118
54586SOL    HW265656   3.143  10.640   5.122
54587SOL     OW65657   8.592   7.622   7.294
54587SOL    HW165658   8.553   7.623   7.381
54587SOL    HW265659   8.553   7.697   7.249
54588SOL     OW65660  10.561   8.525   7.182
54588SOL    HW165661  10.503   8.590   7.222
54588SOL    HW265662  10.591   8.565   7.101
54589SOL     OW65663   9.643  10.074   4.413
54589SOL    HW165664   9.612   9.985   4.399
54589SOL    HW265665   9.600  10.126   4.344
54590SOL     OW65666   9.258   2.230   4.000
54590SOL    HW165667   9.202   2.301   4.031
54590SOL    HW265668   9.210   2.150   4.021
54591SOL     OW65669   3.314   6.402  10.634
54591SOL    HW165670   3.345   6.451  10.558
54591SOL    HW265671   3.355   6.446  10.709
54592SOL     OW65672   7.084   3.003   5.626
54592SOL    HW165673   7.172   3.001   5.587
54592SOL    HW265674   7.026   3.021   5.552
54593SOL     OW65675   7.969  12.626   3.686
54593SOL    HW165676   7.918  12.549   3.660
54593SOL    HW265677   7.912  12.700   3.666
54594SOL     OW65678   4.104  10.315   8.581
54594SOL    HW165679   4.120  10.223   8.598
54594SOL    HW265680   4.129  10.327   8.489
54595SOL     OW65681  10.456  12.840  11.913
54595SOL    HW165682  10.438  12.831  12.007
54595SOL    HW265683  10.438  12.754  11.877
54596SOL     OW65684  10.728  11.249   1.997
54596SOL    HW165685  10.679  11.204   2.066
54596SOL    HW265686  10.820  11.232   2.018
54597SOL     OW65687   4.109   0.004   2.191
54597SOL    HW165688   4.176   0.071   2.178
54597SOL    HW265689   4.098  14.852   2.104
54598SOL     OW65690  10.456   7.538  11.928
54598SOL    HW165691  10.547   7.541  11.896
54598SOL    HW265692  10.431   7.446  11.921
54599SOL     OW65693  13.315   0.367   9.577
54599SOL    HW165694  13.221   0.352   9.572
54599SOL    HW265695  13.347   0.355   9.488
54600SOL     OW65696  10.290  12.491   5.198
54600SOL    HW165697  10.281  12.398   5.217
54600SOL    HW265698  10.205  12.517   5.163
54601SOL     OW65699   0.373   5.570   5.078
54601SOL    HW165700   0.461   5.597   5.054
54601SOL    HW265701   0.348   5.628   5.150
54602SOL     OW65702   7.445  12.607  12.835
54602SOL    HW165703   7.491  12.689  12.822
54602SOL    HW265704   7.447  12.592  12.929
54603SOL     OW65705   7.306   4.326  13.999
54603SOL    HW165706   7.217   4.340  13.965
54603SOL    HW265707   7.359   4.390  13.953
54604SOL     OW65708   7.968   4.379   0.082
54604SOL    HW165709   7.928   4.463   0.106
54604SOL    HW265710   7.918   4.313   0.129
54605SOL     OW65711   4.308   5.477   4.433
54605SOL    HW165712   4.402   5.489   4.423
54605SOL    HW265713   4.269   5.560   4.406
54606SOL     OW65714   3.476   5.065   4.707
54606SOL    HW165715   3.555   5.118   4.708
54606SOL    HW265716   3.441   5.074   4.618
54607SOL     OW65717  12.604   2.051   1.871
54607SOL    HW165718  12.637   2.140   1.853
54607SOL    HW265719  12.680   2.003   1.901
54608SOL     OW65720   8.411   4.388  14.395
54608SOL    HW165721   8.340   4.338  14.436
54608SOL    HW265722   8.487   4.331  14.401
54609SOL     OW65723   7.329   5.738   4.367
54609SOL    HW165724   7.286   5.747   4.282
54609SOL    HW265725   7.405   5.683   4.349
54610SOL     OW65726  10.679   5.031   8.851
54610SOL    HW165727  10.658   5.007   8.941
54610SOL    HW265728  10.774   5.018   8.844
54611SOL     OW65729   5.147   3.273  11.532
54611SOL    HW165730   5.171   3.315  11.449
54611SOL    HW265731   5.081   3.209  11.507
54612SOL     OW65732  11.937   9.077   7.946
54612SOL    HW165733  11.967   9.133   7.874
54612SOL    HW265734  11.989   9.105   8.021
54613SOL     OW65735   5.398   6.278   3.306
54613SOL    HW165736   5.465   6.258   3.241
54613SOL    HW265737   5.328   6.321   3.257
54614SOL     OW65738   0.605  13.340  13.084
54614SOL    HW165739   0.601  13.253  13.123
54614SOL    HW265740   0.674  13.385  13.131
54615SOL     OW65741   2.161  13.191  13.518
54615SOL    HW165742   2.089  13.186  13.455
54615SOL    HW265743   2.169  13.103  13.552
54616SOL     OW65744   3.567   3.218  10.255
54616SOL    HW165745   3.550   3.310  10.235
54616SOL    HW265746   3.575   3.176  10.169
54617SOL     OW65747   9.888   3.789   0.254
54617SOL    HW165748   9.913   3.798   0.346
54617SOL    HW265749   9.883   3.694   0.240
54618SOL     OW65750   4.531  10.895   6.499
54618SOL    HW165751   4.439  10.883   6.525
54618SOL    HW265752   4.527  10.951   6.421
54619SOL     OW65753   2.124   6.849  14.413
54619SOL    HW165754   2.167   6.780  14.361
54619SOL    HW265755   2.195   6.888  14.464
54620SOL     OW65756  13.268   2.207  10.111
54620SOL    HW165757  13.251   2.297  10.141
54620SOL    HW265758  13.186   2.180  10.070
54621SOL     OW65759   0.756   2.395  14.179
54621SOL    HW165760   0.838   2.443  14.167
54621SOL    HW265761   0.698   2.429  14.111
54622SOL     OW65762  10.152  11.667   5.292
54622SOL    HW165763  10.061  11.637   5.291
54622SOL    HW265764  10.168  11.697   5.202
54623SOL     OW65765   8.362  13.752   8.081
54623SOL    HW165766   8.372  13.815   8.152
54623SOL    HW265767   8.273  13.718   8.091
54624SOL     OW65768   9.564   0.675   1.369
54624SOL    HW165769   9.507   0.640   1.438
54624SOL    HW265770   9.636   0.612   1.364
54625SOL     OW65771   2.085  11.431   7.926
54625SOL    HW165772   2.020  11.394   7.867
54625SOL    HW265773   2.077  11.526   7.915
54626SOL     OW65774   3.402   9.590   4.866
54626SOL    HW165775   3.390   9.495   4.855
54626SOL    HW265776   3.354   9.611   4.946
54627SOL     OW65777   0.473   4.288   2.313
54627SOL    HW165778   0.553   4.286   2.261
54627SOL    HW265779   0.499   4.256   2.399
54628SOL     OW65780   4.836   1.486   3.189
54628SOL    HW165781   4.873   1.440   3.114
54628SOL    HW265782   4.828   1.577   3.160
54629SOL     OW65783   3.911   4.975   4.147
54629SOL    HW165784   3.935   5.068   4.142
54629SOL    HW265785   3.856   4.969   4.226
54630SOL     OW65786   2.391   8.940   6.904
54630SOL    HW165787   2.338   8.864   6.881
54630SOL    HW265788   2.328   9.005   6.936
54631SOL     OW65789   2.089   4.764   6.155
54631SOL    HW165790   2.179   4.734   6.143
54631SOL    HW265791   2.036   4.687   6.133
54632SOL     OW65792  11.555  11.593   0.127
54632SOL    HW165793  11.638  11.565   0.166
54632SOL    HW265794  11.578  11.664   0.069
54633SOL     OW65795  10.488  12.451  13.129
54633SOL    HW165796  10.483  12.421  13.220
54633SOL    HW265797  10.453  12.379  13.078
54634SOL     OW65798   3.586   9.022   6.719
54634SOL    HW165799   3.537   8.950   6.757
54634SOL    HW265800   3.550   9.101   6.760
54635SOL     OW65801  14.874  10.986  12.516
54635SOL    HW165802  14.818  11.062  12.531
54635SOL    HW265803   0.001  10.948  12.602
54636SOL     OW65804  10.840   1.049   4.677
54636SOL    HW165805  10.803   1.116   4.619
54636SOL    HW265806  10.931   1.041   4.648
54637SOL     OW65807  10.276   9.617  11.193
54637SOL    HW165808  10.313   9.704  11.206
54637SOL    HW265809  10.192   9.633  11.151
54638SOL     OW65810  12.026  12.716  12.384
54638SOL    HW165811  12.090  12.714  12.454
54638SOL    HW265812  12.046  12.796  12.335
54639SOL     OW65813   1.771   8.829  13.408
54639SOL    HW165814   1.796   8.759  13.469
54639SOL    HW265815   1.848   8.840  13.352
54640SOL     OW65816   6.074  14.029  12.558
54640SOL    HW165817   6.032  14.059  12.639
54640SOL    HW265818   6.045  14.091  12.491
54641SOL     OW65819   9.936   0.690   6.480
54641SOL    HW165820   9.848   0.683   6.516
54641SOL    HW265821   9.956   0.784   6.483
54642SOL     OW65822  11.306   1.161   9.430
54642SOL    HW165823  11.297   1.119   9.344
54642SOL    HW265824  11.257   1.243   9.421
54643SOL     OW65825  12.558  12.027   1.351
54643SOL    HW165826  12.620  11.956   1.363
54643SOL    HW265827  12.475  11.993   1.386
54644SOL     OW65828   0.045  11.724  11.247
54644SOL    HW165829   0.064  11.814  11.222
54644SOL    HW265830  14.868  11.731  11.318
54645SOL     OW65831   6.132   9.438   0.312
54645SOL    HW165832   6.213   9.479   0.282
54645SOL    HW265833   6.137   9.348   0.279
54646SOL     OW65834   4.279   0.042   4.561
54646SOL    HW165835   4.247   0.122   4.519
54646SOL    HW265836   4.374   0.055   4.568
54647SOL     OW65837  10.425  10.132  12.747
54647SOL    HW165838  10.514  10.160  12.767
54647SOL    HW265839  10.431  10.094  12.659
54648SOL     OW65840   1.016  10.305  10.077
54648SOL    HW165841   1.040  10.396  10.094
54648SOL    HW265842   1.082  10.254  10.123
54649SOL     OW65843   6.094   0.923   9.745
54649SOL    HW165844   6.094   0.944   9.652
54649SOL    HW265845   6.062   1.003   9.788
54650SOL     OW65846  11.144   3.090  10.835
54650SOL    HW165847  11.076   3.064  10.773
54650SOL    HW265848  11.102   3.154  10.892
54651SOL     OW65849   8.539   5.743  12.478
54651SOL    HW165850   8.509   5.744  12.387
54651SOL    HW265851   8.504   5.662  12.515
54652SOL     OW65852   5.079  13.969  11.559
54652SOL    HW165853   5.165  13.949  11.597
54652SOL    HW265854   5.062  13.895  11.500
54653SOL     OW65855   0.280   8.039   0.749
54653SOL    HW165856   0.202   8.031   0.695
54653SOL    HW265857   0.330   7.959   0.732
54654SOL     OW65858   4.535   2.270  13.833
54654SOL    HW165859   4.507   2.181  13.812
54654SOL    HW265860   4.623   2.260  13.870
54655SOL     OW65861  13.362   7.447  14.179
54655SOL    HW165862  13.396   7.412  14.262
54655SOL    HW265863  13.270   7.422  14.178
54656SOL     OW65864   6.176  11.069   9.087
54656SOL    HW165865   6.134  10.993   9.127
54656SOL    HW265866   6.266  11.041   9.070
54657SOL     OW65867   0.477  12.469  10.929
54657SOL    HW165868   0.406  12.446  10.989
54657SOL    HW265869   0.524  12.387  10.915
54658SOL     OW65870   0.748  11.960   6.824
54658SOL    HW165871   0.740  12.005   6.739
54658SOL    HW265872   0.757  11.867   6.801
54659SOL     OW65873   6.976  12.984   7.986
54659SOL    HW165874   6.882  13.001   7.973
54659SOL    HW265875   6.982  12.889   7.989
54660SOL     OW65876   2.087   9.350   6.733
54660SOL    HW165877   2.108   9.422   6.793
54660SOL    HW265878   2.172   9.311   6.713
54661SOL     OW65879   5.430  13.938   5.171
54661SOL    HW165880   5.474  13.970   5.093
54661SOL    HW265881   5.408  13.847   5.151
54662SOL     OW65882   8.538  13.205   7.271
54662SOL    HW165883   8.497  13.177   7.190
54662SOL    HW265884   8.464  13.224   7.330
54663SOL     OW65885   9.136   0.322   5.206
54663SOL    HW165886   9.087   0.402   5.191
54663SOL    HW265887   9.112   0.294   5.294
54664SOL     OW65888  12.372   0.852   4.105
54664SOL    HW165889  12.455   0.857   4.153
54664SOL    HW265890  12.380   0.920   4.037
54665SOL     OW65891   8.366  10.015   4.415
54665SOL    HW165892   8.279  10.053   4.399
54665SOL    HW265893   8.358   9.924   4.387
54666SOL     OW65894   1.915  11.160  12.571
54666SOL    HW165895   1.978  11.209  12.519
54666SOL    HW265896   1.956  11.074  12.585
54667SOL     OW65897   0.565   5.140  11.988
54667SOL    HW165898   0.522   5.081  12.050
54667SOL    HW265899   0.515   5.131  11.907
54668SOL     OW65900  14.406  13.871   3.129
54668SOL    HW165901  14.467  13.886   3.201
54668SOL    HW265902  14.324  13.846   3.171
54669SOL     OW65903   4.083  14.359   4.406
54669SOL    HW165904   4.079  14.417   4.481
54669SOL    HW265905   4.177  14.347   4.390
54670SOL     OW65906   0.236   6.167  10.916
54670SOL    HW165907   0.305   6.101  10.913
54670SOL    HW265908   0.159   6.123  10.881
54671SOL     OW65909   4.441   5.745   1.454
54671SOL    HW165910   4.430   5.733   1.548
54671SOL    HW265911   4.355   5.725   1.417
54672SOL     OW65912   2.678   2.987   5.684
54672SOL    HW165913   2.732   2.909   5.694
54672SOL    HW265914   2.657   2.990   5.591
54673SOL     OW65915  12.990  12.673  11.290
54673SOL    HW165916  13.005  12.588  11.248
54673SOL    HW265917  13.076  12.700  11.321
54674SOL     OW65918   9.912   9.888   4.606
54674SOL    HW165919   9.863   9.829   4.548
54674SOL    HW265920   9.924   9.837   4.686
54675SOL     OW65921   2.157   0.483   7.600
54675SOL    HW165922   2.177   0.575   7.616
54675SOL    HW265923   2.186   0.467   7.510
54676SOL     OW65924   3.605   5.473   2.023
54676SOL    HW165925   3.617   5.453   2.116
54676SOL    HW265926   3.618   5.568   2.017
54677SOL     OW65927   9.042   7.768  11.995
54677SOL    HW165928   8.961   7.717  11.995
54677SOL    HW265929   9.097   7.724  11.930
54678SOL     OW65930  11.582   4.745  11.119
54678SOL    HW165931  11.526   4.720  11.192
54678SOL    HW265932  11.624   4.664  11.092
54679SOL     OW65933   0.128   4.501  11.341
54679SOL    HW165934   0.204   4.469  11.390
54679SOL    HW265935   0.107   4.430  11.281
54680SOL     OW65936   1.590   1.772   6.321
54680SOL    HW165937   1.629   1.812   6.399
54680SOL    HW265938   1.564   1.685   6.349
54681SOL     OW65939   2.465   5.466   0.840
54681SOL    HW165940   2.516   5.411   0.901
54681SOL    HW265941   2.447   5.409   0.766
54682SOL     OW65942   8.463   0.486   9.589
54682SOL    HW165943   8.425   0.448   9.510
54682SOL    HW265944   8.554   0.457   9.588
54683SOL     OW65945   0.415   8.520   4.187
54683SOL    HW165946   0.351   8.571   4.138
54683SOL    HW265947   0.485   8.583   4.208
54684SOL     OW65948   2.531   5.435   2.125
54684SOL    HW165949   2.571   5.522   2.123
54684SOL    HW265950   2.586   5.385   2.185
54685SOL     OW65951   5.878  12.545  14.859
54685SOL    HW165952   5.814  12.617  14.855
54685SOL    HW265953   5.922  12.557   0.056
54686SOL     OW65954   3.993   4.187   9.494
54686SOL    HW165955   4.059   4.226   9.437
54686SOL    HW265956   4.017   4.217   9.582
54687SOL     OW65957   0.350   9.116   2.620
54687SOL    HW165958   0.342   9.134   2.526
54687SOL    HW265959   0.388   9.195   2.657
54688SOL     OW65960   1.382  10.659   8.623
54688SOL    HW165961   1.340  10.608   8.554
54688SOL    HW265962   1.451  10.708   8.578
54689SOL     OW65963  12.528   9.746   3.924
54689SOL    HW165964  12.495   9.806   3.858
54689SOL    HW265965  12.505   9.787   4.008
54690SOL     OW65966   2.075  13.728   9.027
54690SOL    HW165967   1.982  13.728   9.002
54690SOL    HW265968   2.075  13.696   9.117
54691SOL     OW65969   6.436  11.681   9.553
54691SOL    HW165970   6.470  11.673   9.642
54691SOL    HW265971   6.514  11.695   9.499
54692SOL     OW65972   4.500  11.393   8.670
54692SOL    HW165973   4.406  11.380   8.673
54692SOL    HW265974   4.537  11.306   8.687
54693SOL     OW65975   7.328  11.125   4.157
54693SOL    HW165976   7.275  11.061   4.204
54693SOL    HW265977   7.412  11.082   4.145
54694SOL     OW65978  11.973  10.890  11.137
54694SOL    HW165979  11.941  10.826  11.073
54694SOL    HW265980  11.906  10.959  11.137
54695SOL     OW65981   6.746   6.637   7.215
54695SOL    HW165982   6.714   6.693   7.285
54695SOL    HW265983   6.667   6.605   7.171
54696SOL     OW65984   5.536  11.038  11.950
54696SOL    HW165985   5.560  10.999  11.866
54696SOL    HW265986   5.620  11.059  11.991
54697SOL     OW65987   9.650  11.645  12.792
54697SOL    HW165988   9.703  11.614  12.718
54697SOL    HW265989   9.559  11.635  12.761
54698SOL     OW65990   8.893  10.308  12.930
54698SOL    HW165991   8.877  10.239  12.995
54698SOL    HW265992   8.893  10.262  12.846
54699SOL     OW65993  12.389  12.822  13.899
54699SOL    HW165994  12.429  12.842  13.815
54699SOL    HW265995  12.444  12.751  13.935
54700SOL     OW65996   4.257  11.923   8.391
54700SOL    HW165997   4.253  11.983   8.465
54700SOL    HW265998   4.177  11.871   8.398
54701SOL     OW65999   2.873  12.067  11.736
54701SOL    HW166000   2.834  11.981  11.747
54701SOL    HW266001   2.912  12.087  11.821
54702SOL     OW66002  12.520   4.722  12.374
54702SOL    HW166003  12.520   4.807  12.329
54702SOL    HW266004  12.604   4.719  12.419
54703SOL     OW66005   1.744  10.412  13.082
54703SOL    HW166006   1.776  10.477  13.144
54703SOL    HW266007   1.670  10.370  13.127
54704SOL     OW66008  12.281   4.494   5.821
54704SOL    HW166009  12.237   4.578   5.831
54704SOL    HW266010  12.212   4.433   5.798
54705SOL     OW66011   7.968   3.812   0.921
54705SOL    HW166012   7.941   3.794   0.831
54705SOL    HW266013   8.061   3.789   0.924
54706SOL     OW66014  10.603  11.672   8.213
54706SOL    HW166015  10.561  11.753   8.183
54706SOL    HW266016  10.666  11.700   8.279
54707SOL     OW66017  11.921   8.612   6.129
54707SOL    HW166018  11.878   8.594   6.213
54707SOL    HW266019  11.852   8.649   6.074
54708SOL     OW66020   7.151   2.745   2.906
54708SOL    HW166021   7.242   2.719   2.893
54708SOL    HW266022   7.121   2.691   2.979
54709SOL     OW66023   5.770   9.793   5.845
54709SOL    HW166024   5.699   9.810   5.907
54709SOL    HW266025   5.841   9.851   5.874
54710SOL     OW66026   5.896   7.000   5.675
54710SOL    HW166027   5.822   6.946   5.650
54710SOL    HW266028   5.944   7.016   5.594
54711SOL     OW66029  11.622   8.735   6.795
54711SOL    HW166030  11.527   8.744   6.795
54711SOL    HW266031  11.651   8.790   6.869
54712SOL     OW66032   1.535  10.892   4.270
54712SOL    HW166033   1.498  10.816   4.313
54712SOL    HW266034   1.478  10.907   4.195
54713SOL     OW66035  11.701   3.978  11.182
54713SOL    HW166036  11.757   4.054  11.200
54713SOL    HW266037  11.726   3.951  11.093
54714SOL     OW66038   5.161   9.302   0.337
54714SOL    HW166039   5.160   9.382   0.283
54714SOL    HW266040   5.108   9.325   0.413
54715SOL     OW66041   6.386   5.645   2.935
54715SOL    HW166042   6.375   5.590   2.858
54715SOL    HW266043   6.364   5.589   3.008
54716SOL     OW66044   9.816  12.299   8.977
54716SOL    HW166045   9.870  12.219   8.982
54716SOL    HW266046   9.729  12.271   9.003
54717SOL     OW66047  10.810  14.380   6.441
54717SOL    HW166048  10.819  14.442   6.513
54717SOL    HW266049  10.900  14.353   6.421
54718SOL     OW66050   6.483  13.551   0.384
54718SOL    HW166051   6.539  13.627   0.366
54718SOL    HW266052   6.425  13.580   0.454
54719SOL     OW66053   7.442   5.824  10.102
54719SOL    HW166054   7.406   5.842  10.189
54719SOL    HW266055   7.535   5.807  10.118
54720SOL     OW66056  10.491  12.697   4.018
54720SOL    HW166057  10.456  12.768   4.072
54720SOL    HW266058  10.569  12.668   4.064
54721SOL     OW66059  12.290   1.252  11.888
54721SOL    HW166060  12.226   1.311  11.927
54721SOL    HW266061  12.351   1.232  11.960
54722SOL     OW66062  11.344   0.059   9.080
54722SOL    HW166063  11.325  14.854   9.095
54722SOL    HW266064  11.294   0.106   9.146
54723SOL     OW66065  12.423  11.656  10.160
54723SOL    HW166066  12.500  11.703  10.190
54723SOL    HW266067  12.457  11.579  10.115
54724SOL     OW66068   9.047   8.330   5.900
54724SOL    HW166069   9.072   8.392   5.833
54724SOL    HW266070   8.952   8.341   5.910
54725SOL     OW66071   3.487   6.488   4.598
54725SOL    HW166072   3.565   6.537   4.571
54725SOL    HW266073   3.474   6.511   4.690
54726SOL     OW66074  12.053   2.003   4.882
54726SOL    HW166075  12.077   1.925   4.832
54726SOL    HW266076  12.137   2.043   4.905
54727SOL     OW66077   8.239   9.792   0.349
54727SOL    HW166078   8.300   9.849   0.396
54727SOL    HW266079   8.293   9.718   0.322
54728SOL     OW66080  14.708  10.029  13.209
54728SOL    HW166081  14.698  10.103  13.269
54728SOL    HW266082  14.634   9.971  13.229
54729SOL     OW66083   5.664   5.283   7.888
54729SOL    HW166084   5.624   5.281   7.801
54729SOL    HW266085   5.682   5.376   7.904
54730SOL     OW66086   5.613  14.437  12.640
54730SOL    HW166087   5.588  14.480  12.722
54730SOL    HW266088   5.708  14.424  12.648
54731SOL     OW66089  12.468   4.274   4.880
54731SOL    HW166090  12.490   4.351   4.932
54731SOL    HW266091  12.375   4.259   4.897
54732SOL     OW66092   2.026   7.630   0.112
54732SOL    HW166093   2.090   7.634   0.041
54732SOL    HW266094   1.943   7.656   0.072
54733SOL     OW66095   4.652   6.515  12.650
54733SOL    HW166096   4.709   6.590  12.633
54733SOL    HW266097   4.578   6.552  12.698
54734SOL     OW66098   5.266  14.238   2.800
54734SOL    HW166099   5.359  14.249   2.783
54734SOL    HW266100   5.224  14.313   2.758
54735SOL     OW66101  11.172  11.503   3.511
54735SOL    HW166102  11.130  11.578   3.469
54735SOL    HW266103  11.214  11.456   3.439
54736SOL     OW66104   9.716   1.189   8.178
54736SOL    HW166105   9.667   1.138   8.242
54736SOL    HW266106   9.653   1.253   8.144
54737SOL     OW66107   3.132  13.317  12.129
54737SOL    HW166108   3.194  13.244  12.121
54737SOL    HW266109   3.124  13.332  12.223
54738SOL     OW66110   1.727   3.672  10.163
54738SOL    HW166111   1.646   3.721  10.146
54738SOL    HW266112   1.707   3.583  10.133
54739SOL     OW66113   4.137   1.462  12.322
54739SOL    HW166114   4.177   1.467  12.409
54739SOL    HW266115   4.118   1.369  12.309
54740SOL     OW66116   6.282   7.854   2.570
54740SOL    HW166117   6.328   7.780   2.531
54740SOL    HW266118   6.189   7.829   2.565
54741SOL     OW66119   4.753   9.835  12.424
54741SOL    HW166120   4.790   9.910  12.377
54741SOL    HW266121   4.774   9.851  12.516
54742SOL     OW66122   4.074   4.789  12.347
54742SOL    HW166123   4.114   4.794  12.434
54742SOL    HW266124   4.136   4.737  12.296
54743SOL     OW66125   5.898  14.694  12.237
54743SOL    HW166126   5.981  14.682  12.283
54743SOL    HW266127   5.910  14.651  12.152
54744SOL     OW66128   7.269   5.632   1.899
54744SOL    HW166129   7.256   5.722   1.867
54744SOL    HW266130   7.294   5.643   1.991
54745SOL     OW66131   5.701   9.656  11.609
54745SOL    HW166132   5.661   9.709  11.540
54745SOL    HW266133   5.717   9.571  11.568
54746SOL     OW66134   2.909   8.959   6.891
54746SOL    HW166135   2.843   8.943   6.824
54746SOL    HW266136   2.860   8.963   6.973
54747SOL     OW66137  10.973   9.435   3.751
54747SOL    HW166138  11.044   9.440   3.687
54747SOL    HW266139  10.963   9.524   3.783
54748SOL     OW66140  10.197  11.165   3.778
54748SOL    HW166141  10.134  11.127   3.716
54748SOL    HW266142  10.281  11.125   3.754
54749SOL     OW66143   1.084   5.978  11.251
54749SOL    HW166144   1.011   5.923  11.224
54749SOL    HW266145   1.049   6.067  11.246
54750SOL     OW66146   2.849   7.298   3.267
54750SOL    HW166147   2.766   7.272   3.306
54750SOL    HW266148   2.900   7.333   3.340
54751SOL     OW66149   3.191   7.365   8.493
54751SOL    HW166150   3.113   7.354   8.549
54751SOL    HW266151   3.239   7.283   8.502
54752SOL     OW66152   3.784  11.670   3.178
54752SOL    HW166153   3.729  11.616   3.121
54752SOL    HW266154   3.873  11.643   3.157
54753SOL     OW66155   2.562   1.005   5.757
54753SOL    HW166156   2.550   0.910   5.762
54753SOL    HW266157   2.474   1.040   5.743
54754SOL     OW66158   3.292  11.898   2.852
54754SOL    HW166159   3.300  11.980   2.804
54754SOL    HW266160   3.370  11.895   2.908
54755SOL     OW66161   3.017  13.381  14.117
54755SOL    HW166162   2.985  13.375  14.027
54755SOL    HW266163   2.958  13.325  14.167
54756SOL     OW66164  13.183  10.856   9.426
54756SOL    HW166165  13.189  10.816   9.339
54756SOL    HW266166  13.257  10.917   9.429
54757SOL     OW66167  12.379   7.785   6.282
54757SOL    HW166168  12.366   7.826   6.197
54757SOL    HW266169  12.457   7.730   6.270
54758SOL     OW66170  11.747  12.214   6.859
54758SOL    HW166171  11.718  12.297   6.896
54758SOL    HW266172  11.685  12.149   6.893
54759SOL     OW66173   0.580  11.951   4.484
54759SOL    HW166174   0.643  11.958   4.555
54759SOL    HW266175   0.548  12.040   4.471
54760SOL     OW66176   9.433   4.868   1.607
54760SOL    HW166177   9.505   4.931   1.600
54760SOL    HW266178   9.362   4.907   1.557
54761SOL     OW66179  10.855   4.146   9.984
54761SOL    HW166180  10.760   4.156   9.983
54761SOL    HW266181  10.888   4.235   9.973
54762SOL     OW66182  14.313   7.615   2.540
54762SOL    HW166183  14.372   7.683   2.507
54762SOL    HW266184  14.365   7.534   2.534
54763SOL     OW66185  14.722   3.532   8.947
54763SOL    HW166186  14.771   3.531   8.865
54763SOL    HW266187  14.645   3.479   8.929
54764SOL     OW66188   7.651   1.165   9.239
54764SOL    HW166189   7.721   1.113   9.198
54764SOL    HW266190   7.668   1.158   9.333
54765SOL     OW66191   8.509   2.703  14.032
54765SOL    HW166192   8.525   2.610  14.042
54765SOL    HW266193   8.450   2.726  14.104
54766SOL     OW66194  14.125   9.905   4.752
54766SOL    HW166195  14.124   9.811   4.733
54766SOL    HW266196  14.063   9.942   4.688
54767SOL     OW66197   1.187   1.803   9.813
54767SOL    HW166198   1.121   1.864   9.779
54767SOL    HW266199   1.240   1.780   9.737
54768SOL     OW66200   6.136   9.002   0.002
54768SOL    HW166201   6.200   9.061  14.848
54768SOL    HW266202   6.190   8.932   0.040
54769SOL     OW66203  12.778   0.503  12.802
54769SOL    HW166204  12.855   0.471  12.848
54769SOL    HW266205  12.707   0.445  12.830
54770SOL     OW66206  12.554   7.596  13.553
54770SOL    HW166207  12.486   7.648  13.596
54770SOL    HW266208  12.564   7.636  13.467
54771SOL     OW66209   6.512   1.661   3.551
54771SOL    HW166210   6.519   1.622   3.464
54771SOL    HW266211   6.530   1.589   3.612
54772SOL     OW66212  13.609  12.633   0.585
54772SOL    HW166213  13.654  12.548   0.593
54772SOL    HW266214  13.530  12.623   0.638
54773SOL     OW66215   8.099   6.971   8.814
54773SOL    HW166216   8.150   6.891   8.830
54773SOL    HW266217   8.019   6.959   8.865
54774SOL     OW66218   4.580  11.780  11.249
54774SOL    HW166219   4.644  11.828  11.196
54774SOL    HW266220   4.611  11.790  11.339
54775SOL     OW66221   2.826   7.043  11.636
54775SOL    HW166222   2.910   7.089  11.644
54775SOL    HW266223   2.760   7.110  11.650
54776SOL     OW66224   2.867   1.948  11.399
54776SOL    HW166225   2.790   1.950  11.456
54776SOL    HW266226   2.942   1.947  11.458
54777SOL     OW66227   3.839   1.359  12.576
54777SOL    HW166228   3.929   1.327  12.574
54777SOL    HW266229   3.818   1.378  12.485
54778SOL     OW66230   1.984   4.057  14.469
54778SOL    HW166231   2.012   4.126  14.529
54778SOL    HW266232   1.914   4.012  14.517
54779SOL     OW66233   2.758  11.440   1.141
54779SOL    HW166234   2.807  11.366   1.177
54779SOL    HW266235   2.821  11.489   1.089
54780SOL     OW66236   9.715  11.139   1.001
54780SOL    HW166237   9.703  11.226   1.038
54780SOL    HW266238   9.735  11.154   0.909
54781SOL     OW66239   6.528  14.250   7.363
54781SOL    HW166240   6.460  14.304   7.321
54781SOL    HW266241   6.489  14.163   7.370
54782SOL     OW66242  11.081   4.008   8.286
54782SOL    HW166243  11.123   3.922   8.280
54782SOL    HW266244  11.017   3.999   8.357
54783SOL     OW66245  11.406   5.177   7.486
54783SOL    HW166246  11.395   5.082   7.480
54783SOL    HW266247  11.398   5.197   7.579
54784SOL     OW66248   6.371   4.630   4.945
54784SOL    HW166249   6.392   4.661   5.033
54784SOL    HW266250   6.369   4.535   4.953
54785SOL     OW66251   2.751   4.247   8.034
54785SOL    HW166252   2.668   4.282   8.001
54785SOL    HW266253   2.780   4.186   7.966
54786SOL     OW66254   6.285   4.116  12.825
54786SOL    HW166255   6.298   4.065  12.905
54786SOL    HW266256   6.261   4.203  12.855
54787SOL     OW66257  14.663   8.426   8.619
54787SOL    HW166258  14.745   8.378   8.627
54787SOL    HW266259  14.665   8.489   8.691
54788SOL     OW66260  10.471   4.984  13.752
54788SOL    HW166261  10.474   5.078  13.730
54788SOL    HW266262  10.396   4.951  13.704
54789SOL     OW66263   4.945   6.688   3.456
54789SOL    HW166264   4.886   6.723   3.522
54789SOL    HW266265   4.888   6.668   3.381
54790SOL     OW66266   4.464  11.457   2.472
54790SOL    HW166267   4.537  11.396   2.467
54790SOL    HW266268   4.397  11.411   2.522
54791SOL     OW66269   1.210  10.653   6.957
54791SOL    HW166270   1.224  10.558   6.952
54791SOL    HW266271   1.244  10.687   6.874
54792SOL     OW66272   8.197  11.585  14.836
54792SOL    HW166273   8.201  11.530   0.026
54792SOL    HW266274   8.238  11.532  14.767
54793SOL     OW66275   9.034   0.863   9.870
54793SOL    HW166276   9.000   0.949   9.847
54793SOL    HW266277   9.032   0.813   9.788
54794SOL     OW66278   0.816   5.893  14.220
54794SOL    HW166279   0.911   5.899  14.221
54794SOL    HW266280   0.796   5.814  14.269
54795SOL     OW66281   5.665  14.820   8.352
54795SOL    HW166282   5.743  14.828   8.297
54795SOL    HW266283   5.641   0.023   8.372
54796SOL     OW66284   5.639  13.582  10.171
54796SOL    HW166285   5.645  13.646  10.242
54796SOL    HW266286   5.579  13.622  10.109
54797SOL     OW66287   3.016  13.725   2.375
54797SOL    HW166288   3.076  13.799   2.377
54797SOL    HW266289   3.071  13.649   2.391
54798SOL     OW66290   2.009  13.517   8.708
54798SOL    HW166291   1.966  13.482   8.786
54798SOL    HW266292   2.076  13.453   8.686
54799SOL     OW66293  10.269   7.511   5.760
54799SOL    HW166294  10.265   7.438   5.822
54799SOL    HW266295  10.189   7.504   5.708
54800SOL     OW66296   9.732   0.426  10.993
54800SOL    HW166297   9.652   0.375  11.001
54800SOL    HW266298   9.727   0.490  11.064
54801SOL     OW66299   9.651  14.497  10.849
54801SOL    HW166300   9.691  14.420  10.808
54801SOL    HW266301   9.557  14.476  10.851
54802SOL     OW66302  12.701  12.484   4.352
54802SOL    HW166303  12.758  12.422   4.306
54802SOL    HW266304  12.754  12.562   4.364
54803SOL     OW66305   7.277   7.965   9.047
54803SOL    HW166306   7.294   8.010   8.964
54803SOL    HW266307   7.306   7.875   9.032
54804SOL     OW66308   1.115   5.980  14.275
54804SOL    HW166309   1.072   6.021  14.350
54804SOL    HW266310   1.101   6.041  14.203
54805SOL     OW66311   2.556   2.022   9.310
54805SOL    HW166312   2.646   2.001   9.285
54805SOL    HW266313   2.524   2.080   9.241
54806SOL     OW66314   7.702   3.314   7.647
54806SOL    HW166315   7.726   3.321   7.740
54806SOL    HW266316   7.658   3.229   7.640
54807SOL     OW66317   4.902   1.866   5.795
54807SOL    HW166318   4.986   1.854   5.751
54807SOL    HW266319   4.911   1.950   5.840
54808SOL     OW66320  14.245   0.208   5.617
54808SOL    HW166321  14.317   0.145   5.613
54808SOL    HW266322  14.175   0.169   5.563
54809SOL     OW66323   1.918   6.763   7.855
54809SOL    HW166324   1.948   6.673   7.842
54809SOL    HW266325   1.823   6.757   7.852
54810SOL     OW66326  11.031  14.307   7.477
54810SOL    HW166327  10.960  14.288   7.415
54810SOL    HW266328  11.081  14.226   7.482
54811SOL     OW66329  13.514   8.513  11.570
54811SOL    HW166330  13.588   8.567  11.541
54811SOL    HW266331  13.550   8.425  11.576
54812SOL     OW66332   9.603  14.241  10.542
54812SOL    HW166333   9.625  14.150  10.526
54812SOL    HW266334   9.523  14.238  10.594
54813SOL     OW66335   3.867   0.756   6.485
54813SOL    HW166336   3.950   0.801   6.499
54813SOL    HW266337   3.855   0.704   6.565
54814SOL     OW66338   4.996   7.864  13.417
54814SOL    HW166339   4.905   7.836  13.411
54814SOL    HW266340   5.004   7.936  13.355
54815SOL     OW66341  14.413   0.695  10.680
54815SOL    HW166342  14.391   0.685  10.587
54815SOL    HW266343  14.329   0.714  10.722
54816SOL     OW66344   9.495  10.545   6.515
54816SOL    HW166345   9.490  10.601   6.437
54816SOL    HW266346   9.445  10.593   6.581
54817SOL     OW66347   8.100   4.316   1.818
54817SOL    HW166348   8.116   4.286   1.907
54817SOL    HW266349   8.012   4.352   1.820
54818SOL     OW66350   9.458  11.034  10.419
54818SOL    HW166351   9.540  11.080  10.436
54818SOL    HW266352   9.426  11.071  10.337
54819SOL     OW66353  13.447   6.733   9.098
54819SOL    HW166354  13.442   6.825   9.073
54819SOL    HW266355  13.410   6.729   9.186
54820SOL     OW66356   6.430  14.511   1.806
54820SOL    HW166357   6.514  14.548   1.833
54820SOL    HW266358   6.376  14.513   1.885
54821SOL     OW66359   5.885   4.882   2.434
54821SOL    HW166360   5.882   4.978   2.441
54821SOL    HW266361   5.811   4.860   2.377
54822SOL     OW66362  13.278   6.748  10.171
54822SOL    HW166363  13.222   6.819  10.141
54822SOL    HW266364  13.363   6.788  10.185
54823SOL     OW66365   2.790  14.435   7.294
54823SOL    HW166366   2.835  14.369   7.345
54823SOL    HW266367   2.699  14.432   7.325
54824SOL     OW66368   1.563   0.710   5.139
54824SOL    HW166369   1.565   0.648   5.066
54824SOL    HW266370   1.486   0.687   5.189
54825SOL     OW66371   4.763   3.789   6.201
54825SOL    HW166372   4.836   3.767   6.258
54825SOL    HW266373   4.685   3.758   6.247
54826SOL     OW66374  13.333  14.836   2.858
54826SOL    HW166375  13.351   0.027   2.806
54826SOL    HW266376  13.279  14.867   2.930
54827SOL     OW66377  14.813   2.262  10.764
54827SOL    HW166378  14.857   2.341  10.732
54827SOL    HW266379  14.747   2.295  10.825
54828SOL     OW66380  11.643   7.546   8.085
54828SOL    HW166381  11.580   7.500   8.030
54828SOL    HW266382  11.673   7.481   8.148
54829SOL     OW66383  10.777   4.578   7.417
54829SOL    HW166384  10.779   4.485   7.398
54829SOL    HW266385  10.796   4.621   7.333
54830SOL     OW66386   6.063   2.881  11.398
54830SOL    HW166387   5.970   2.905  11.392
54830SOL    HW266388   6.108   2.950  11.350
54831SOL     OW66389   6.269   3.901   2.028
54831SOL    HW166390   6.253   3.978   1.972
54831SOL    HW266391   6.293   3.938   2.113
54832SOL     OW66392   5.255   5.220   1.025
54832SOL    HW166393   5.217   5.166   0.955
54832SOL    HW266394   5.212   5.305   1.015
54833SOL     OW66395  14.453   5.087  13.963
54833SOL    HW166396  14.424   4.999  13.984
54833SOL    HW266397  14.509   5.077  13.886
54834SOL     OW66398   7.335  13.002   4.641
54834SOL    HW166399   7.395  13.074   4.663
54834SOL    HW266400   7.269  13.043   4.585
54835SOL     OW66401   1.916  12.965   4.704
54835SOL    HW166402   1.955  12.878   4.695
54835SOL    HW266403   1.831  12.949   4.745
54836SOL     OW66404   5.283  11.708   6.988
54836SOL    HW166405   5.336  11.692   7.067
54836SOL    HW266406   5.197  11.674   7.010
54837SOL     OW66407   1.807   6.071   5.150
54837SOL    HW166408   1.754   6.149   5.134
54837SOL    HW266409   1.879   6.078   5.088
54838SOL     OW66410   7.487  11.558   9.292
54838SOL    HW166411   7.431  11.482   9.274
54838SOL    HW266412   7.574  11.529   9.265
54839SOL     OW66413   6.795  13.716   6.539
54839SOL    HW166414   6.856  13.703   6.467
54839SOL    HW266415   6.770  13.628   6.566
54840SOL     OW66416   7.012   7.405   5.687
54840SOL    HW166417   7.049   7.482   5.731
54840SOL    HW266418   6.937   7.440   5.638
54841SOL     OW66419   6.682  14.147  11.027
54841SOL    HW166420   6.620  14.208  11.068
54841SOL    HW266421   6.693  14.181  10.939
54842SOL     OW66422   3.448   8.160  11.238
54842SOL    HW166423   3.496   8.240  11.256
54842SOL    HW266424   3.443   8.154  11.143
54843SOL     OW66425   0.939  10.102   0.368
54843SOL    HW166426   0.979  10.018   0.344
54843SOL    HW266427   0.902  10.135   0.287
54844SOL     OW66428  12.134  12.719   9.812
54844SOL    HW166429  12.228  12.705   9.819
54844SOL    HW266430  12.095  12.637   9.842
54845SOL     OW66431   9.339  10.282   2.859
54845SOL    HW166432   9.285  10.360   2.848
54845SOL    HW266433   9.382  10.295   2.944
54846SOL     OW66434   6.664   8.001   3.527
54846SOL    HW166435   6.623   7.947   3.459
54846SOL    HW266436   6.621   8.086   3.520
54847SOL     OW66437  12.514   8.240   8.402
54847SOL    HW166438  12.431   8.240   8.450
54847SOL    HW266439  12.513   8.158   8.353
54848SOL     OW66440  14.161   6.021   6.610
54848SOL    HW166441  14.143   5.935   6.572
54848SOL    HW266442  14.114   6.021   6.694
54849SOL     OW66443  11.426  14.868   6.706
54849SOL    HW166444  11.343  14.864   6.754
54849SOL    HW266445  11.492  14.881   6.774
54850SOL     OW66446   2.818   4.075   3.114
54850SOL    HW166447   2.737   4.031   3.088
54850SOL    HW266448   2.789   4.149   3.167
54851SOL     OW66449   5.262   7.662   2.447
54851SOL    HW166450   5.278   7.620   2.532
54851SOL    HW266451   5.342   7.710   2.428
54852SOL     OW66452  14.454  12.862   2.663
54852SOL    HW166453  14.537  12.831   2.697
54852SOL    HW266454  14.393  12.855   2.738
54853SOL     OW66455   8.031   2.709   4.739
54853SOL    HW166456   7.990   2.678   4.659
54853SOL    HW266457   8.083   2.785   4.711
54854SOL     OW66458   2.500   8.958  13.275
54854SOL    HW166459   2.548   8.924  13.199
54854SOL    HW266460   2.410   8.928  13.262
54855SOL     OW66461   5.270   4.484   1.599
54855SOL    HW166462   5.201   4.426   1.633
54855SOL    HW266463   5.253   4.569   1.639
54856SOL     OW66464  14.078   5.520  12.910
54856SOL    HW166465  14.091   5.537  13.003
54856SOL    HW266466  14.056   5.427  12.906
54857SOL     OW66467  13.987   3.278   7.140
54857SOL    HW166468  13.991   3.188   7.110
54857SOL    HW266469  14.039   3.280   7.220
54858SOL     OW66470  11.874   2.005  13.500
54858SOL    HW166471  11.921   2.050  13.430
54858SOL    HW266472  11.928   2.019  13.578
54859SOL     OW66473   1.690  11.447  11.958
54859SOL    HW166474   1.699  11.425  11.866
54859SOL    HW266475   1.713  11.366  12.004
54860SOL     OW66476  11.509  13.530   2.332
54860SOL    HW166477  11.586  13.562   2.378
54860SOL    HW266478  11.437  13.539   2.395
54861SOL     OW66479  12.677  13.321   0.997
54861SOL    HW166480  12.653  13.231   0.974
54861SOL    HW266481  12.602  13.353   1.047
54862SOL     OW66482   5.848   8.454   1.772
54862SOL    HW166483   5.785   8.526   1.781
54862SOL    HW266484   5.793   8.377   1.757
54863SOL     OW66485   7.105   0.432   7.034
54863SOL    HW166486   7.124   0.347   6.993
54863SOL    HW266487   7.186   0.456   7.078
54864SOL     OW66488   4.011   4.612  11.508
54864SOL    HW166489   4.080   4.575  11.452
54864SOL    HW266490   3.999   4.701  11.474
54865SOL     OW66491  10.559   6.357   6.149
54865SOL    HW166492  10.489   6.292   6.149
54865SOL    HW266493  10.634   6.311   6.111
54866SOL     OW66494   1.080   2.217  11.103
54866SOL    HW166495   1.124   2.215  11.017
54866SOL    HW266496   1.108   2.299  11.143
54867SOL     OW66497  12.898   9.355  12.191
54867SOL    HW166498  12.939   9.275  12.159
54867SOL    HW266499  12.845   9.327  12.266
54868SOL     OW66500   6.233  14.815  12.806
54868SOL    HW166501   6.254  14.884  12.869
54868SOL    HW266502   6.314  14.802  12.756
54869SOL     OW66503  11.423   2.960   2.025
54869SOL    HW166504  11.344   2.924   1.986
54869SOL    HW266505  11.421   2.929   2.116
54870SOL     OW66506  11.701  12.941  14.774
54870SOL    HW166507  11.708  12.971  14.864
54870SOL    HW266508  11.649  12.860  14.779
54871SOL     OW66509  14.758  13.742  10.477
54871SOL    HW166510  14.684  13.797  10.450
54871SOL    HW266511  14.823  13.753  10.408
54872SOL     OW66512  12.347   7.649   4.955
54872SOL    HW166513  12.352   7.744   4.941
54872SOL    HW266514  12.378   7.611   4.873
54873SOL     OW66515   3.471   9.117   8.587
54873SOL    HW166516   3.443   9.206   8.565
54873SOL    HW266517   3.524   9.128   8.666
54874SOL     OW66518   5.602   1.163  10.835
54874SOL    HW166519   5.640   1.212  10.909
54874SOL    HW266520   5.669   1.099  10.812
54875SOL     OW66521  13.968   2.031   2.144
54875SOL    HW166522  13.984   1.953   2.198
54875SOL    HW266523  14.037   2.092   2.170
54876SOL     OW66524  13.093   6.502   9.993
54876SOL    HW166525  13.073   6.411   9.970
54876SOL    HW266526  13.033   6.522  10.065
54877SOL     OW66527   0.435   2.366   1.575
54877SOL    HW166528   0.461   2.277   1.552
54877SOL    HW266529   0.497   2.423   1.528
54878SOL     OW66530   9.907   8.320   0.195
54878SOL    HW166531   9.880   8.228   0.196
54878SOL    HW266532   9.831   8.367   0.161
54879SOL     OW66533  10.908   4.485   8.569
54879SOL    HW166534  10.818   4.502   8.540
54879SOL    HW266535  10.904   4.399   8.612
54880SOL     OW66536  12.149   7.566   0.891
54880SOL    HW166537  12.102   7.638   0.934
54880SOL    HW266538  12.080   7.515   0.849
54881SOL     OW66539   6.361   4.406  12.121
54881SOL    HW166540   6.282   4.391  12.173
54881SOL    HW266541   6.337   4.475  12.060
54882SOL     OW66542  13.499   4.499  12.128
54882SOL    HW166543  13.477   4.579  12.177
54882SOL    HW266544  13.525   4.436  12.196
54883SOL     OW66545   6.092   7.498  13.508
54883SOL    HW166546   6.149   7.504  13.585
54883SOL    HW266547   6.132   7.431  13.453
54884SOL     OW66548   7.702  10.872  14.389
54884SOL    HW166549   7.684  10.812  14.461
54884SOL    HW266550   7.767  10.827  14.335
54885SOL     OW66551   2.860   4.374  13.610
54885SOL    HW166552   2.798   4.402  13.677
54885SOL    HW266553   2.943   4.366  13.657
54886SOL     OW66554   8.963  12.691   5.964
54886SOL    HW166555   9.023  12.708   6.037
54886SOL    HW266556   8.996  12.746   5.893
54887SOL     OW66557   3.260  10.352   8.354
54887SOL    HW166558   3.300  10.423   8.303
54887SOL    HW266559   3.328  10.284   8.358
54888SOL     OW66560  13.591   3.537   1.659
54888SOL    HW166561  13.678   3.544   1.698
54888SOL    HW266562  13.593   3.600   1.587
54889SOL     OW66563  11.954   7.261   2.064
54889SOL    HW166564  11.871   7.258   2.015
54889SOL    HW266565  11.946   7.338   2.120
54890SOL     OW66566  10.406   7.995   8.416
54890SOL    HW166567  10.410   7.920   8.355
54890SOL    HW266568  10.425   7.956   8.502
54891SOL     OW66569  12.551  13.029   9.130
54891SOL    HW166570  12.633  12.979   9.133
54891SOL    HW266571  12.571  13.105   9.075
54892SOL     OW66572   0.027   6.287   1.239
54892SOL    HW166573   0.031   6.285   1.335
54892SOL    HW266574  14.825   6.316   1.220
54893SOL     OW66575   2.477   2.158   2.432
54893SOL    HW166576   2.456   2.163   2.525
54893SOL    HW266577   2.529   2.237   2.415
54894SOL     OW66578   9.011  10.400   5.762
54894SOL    HW166579   8.919  10.400   5.736
54894SOL    HW266580   9.013  10.446   5.846
54895SOL     OW66581   2.739  10.407  14.288
54895SOL    HW166582   2.710  10.326  14.246
54895SOL    HW266583   2.749  10.469  14.215
54896SOL     OW66584   9.825   5.827   1.822
54896SOL    HW166585   9.871   5.744   1.811
54896SOL    HW266586   9.762   5.810   1.893
54897SOL     OW66587   3.050  11.575   2.493
54897SOL    HW166588   3.038  11.641   2.562
54897SOL    HW266589   2.992  11.504   2.518
54898SOL     OW66590  13.061  11.293  14.069
54898SOL    HW166591  13.074  11.211  14.021
54898SOL    HW266592  13.102  11.278  14.154
54899SOL     OW66593  12.315   8.431   7.772
54899SOL    HW166594  12.369   8.483   7.712
54899SOL    HW266595  12.358   8.439   7.857
54900SOL     OW66596  12.423   1.769  12.454
54900SOL    HW166597  12.367   1.846  12.458
54900SOL    HW266598  12.489   1.784  12.522
54901SOL     OW66599   3.772   1.514   9.627
54901SOL    HW166600   3.707   1.561   9.679
54901SOL    HW266601   3.730   1.501   9.542
54902SOL     OW66602  13.771   9.022   2.795
54902SOL    HW166603  13.829   9.012   2.719
54902SOL    HW266604  13.714   9.095   2.771
54903SOL     OW66605   1.907   7.422   7.778
54903SOL    HW166606   1.861   7.444   7.858
54903SOL    HW266607   1.969   7.354   7.803
54904SOL     OW66608   6.702   2.996   4.882
54904SOL    HW166609   6.623   3.043   4.854
54904SOL    HW266610   6.770   3.025   4.821
54905SOL     OW66611   9.805   6.456   2.710
54905SOL    HW166612   9.838   6.478   2.623
54905SOL    HW266613   9.754   6.533   2.736
54906SOL     OW66614  11.483   6.720  14.114
54906SOL    HW166615  11.476   6.779  14.039
54906SOL    HW266616  11.407   6.739  14.168
54907SOL     OW66617   7.673   1.643  11.197
54907SOL    HW166618   7.581   1.660  11.179
54907SOL    HW266619   7.690   1.687  11.281
54908SOL     OW66620  12.354  14.861   7.033
54908SOL    HW166621  12.448  14.869   7.016
54908SOL    HW266622  12.350  14.834   7.125
54909SOL     OW66623   4.870   2.423  10.247
54909SOL    HW166624   4.965   2.413  10.248
54909SOL    HW266625   4.837   2.349  10.298
54910SOL     OW66626   6.874  13.129   6.987
54910SOL    HW166627   6.929  13.133   6.908
54910SOL    HW266628   6.789  13.098   6.955
54911SOL     OW66629   9.721  10.301  14.493
54911SOL    HW166630   9.753  10.387  14.467
54911SOL    HW266631   9.626  10.308  14.488
54912SOL     OW66632   7.160  10.286   5.153
54912SOL    HW166633   7.198  10.278   5.240
54912SOL    HW266634   7.087  10.225   5.153
54913SOL     OW66635   4.523   5.739  10.368
54913SOL    HW166636   4.602   5.787  10.341
54913SOL    HW266637   4.454   5.772  10.310
54914SOL     OW66638   5.861   3.162  12.414
54914SOL    HW166639   5.811   3.154  12.496
54914SOL    HW266640   5.802   3.129  12.347
54915SOL     OW66641  12.840  14.065   2.883
54915SOL    HW166642  12.763  14.047   2.937
54915SOL    HW266643  12.885  13.981   2.878
54916SOL     OW66644  10.569   0.556   9.149
54916SOL    HW166645  10.543   0.479   9.099
54916SOL    HW266646  10.525   0.629   9.105
54917SOL     OW66647   2.135  13.275   7.663
54917SOL    HW166648   2.088  13.357   7.652
54917SOL    HW266649   2.194  13.271   7.587
54918SOL     OW66650   8.278   4.154   3.591
54918SOL    HW166651   8.330   4.079   3.563
54918SOL    HW266652   8.217   4.170   3.519
54919SOL     OW66653   0.828   4.676  11.410
54919SOL    HW166654   0.871   4.718  11.335
54919SOL    HW266655   0.865   4.721  11.486
54920SOL     OW66656   8.191   2.535   6.104
54920SOL    HW166657   8.259   2.475   6.134
54920SOL    HW266658   8.144   2.561   6.183
54921SOL     OW66659   4.243   4.957  10.467
54921SOL    HW166660   4.313   5.014  10.498
54921SOL    HW266661   4.165   4.988  10.512
54922SOL     OW66662  12.896  14.333   1.097
54922SOL    HW166663  12.874  14.386   1.020
54922SOL    HW266664  12.870  14.388   1.171
54923SOL     OW66665  11.290   9.436   2.546
54923SOL    HW166666  11.341   9.495   2.602
54923SOL    HW266667  11.321   9.349   2.570
54924SOL     OW66668   3.880  12.223  11.659
54924SOL    HW166669   3.906  12.139  11.696
54924SOL    HW266670   3.931  12.231  11.578
54925SOL     OW66671   8.327   5.232   5.200
54925SOL    HW166672   8.403   5.267   5.247
54925SOL    HW266673   8.313   5.293   5.128
54926SOL     OW66674  14.740   8.320   1.121
54926SOL    HW166675  14.781   8.274   1.047
54926SOL    HW266676  14.658   8.354   1.086
54927SOL     OW66677   0.921   9.404  11.070
54927SOL    HW166678   0.895   9.312  11.068
54927SOL    HW266679   0.853   9.449  11.020
54928SOL     OW66680   1.427   9.324   6.020
54928SOL    HW166681   1.420   9.305   5.926
54928SOL    HW266682   1.503   9.381   6.027
54929SOL     OW66683   5.595   1.966   0.599
54929SOL    HW166684   5.534   2.025   0.554
54929SOL    HW266685   5.614   2.009   0.682
54930SOL     OW66686  11.926   3.943   0.663
54930SOL    HW166687  11.998   4.004   0.645
54930SOL    HW266688  11.941   3.914   0.753
54931SOL     OW66689  10.609   6.623  14.602
54931SOL    HW166690  10.647   6.557  14.544
54931SOL    HW266691  10.628   6.591  14.690
54932SOL     OW66692   8.250   6.572  10.059
54932SOL    HW166693   8.209   6.503  10.110
54932SOL    HW266694   8.209   6.565   9.972
54933SOL     OW66695   6.712  13.734   7.518
54933SOL    HW166696   6.651  13.759   7.588
54933SOL    HW266697   6.756  13.816   7.496
54934SOL     OW66698   8.847   2.298   6.886
54934SOL    HW166699   8.921   2.239   6.899
54934SOL    HW266700   8.773   2.240   6.867
54935SOL     OW66701   3.974  14.307   7.761
54935SOL    HW166702   3.889  14.351   7.771
54935SOL    HW266703   4.028  14.344   7.831
54936SOL     OW66704   9.726   1.990   0.724
54936SOL    HW166705   9.675   2.065   0.695
54936SOL    HW266706   9.665   1.939   0.777
54937SOL     OW66707   2.753   8.871  10.043
54937SOL    HW166708   2.705   8.935   9.990
54937SOL    HW266709   2.687   8.805  10.066
54938SOL     OW66710  12.767   2.489  11.401
54938SOL    HW166711  12.859   2.508  11.421
54938SOL    HW266712  12.719   2.516  11.479
54939SOL     OW66713   4.269  12.471  14.101
54939SOL    HW166714   4.296  12.539  14.162
54939SOL    HW266715   4.340  12.466  14.038
54940SOL     OW66716   3.450   9.891  12.185
54940SOL    HW166717   3.509   9.862  12.115
54940SOL    HW266718   3.374   9.833  12.178
54941SOL     OW66719   6.332  13.233   5.865
54941SOL    HW166720   6.339  13.283   5.783
54941SOL    HW266721   6.412  13.253   5.913
54942SOL     OW66722   2.759  10.426   4.697
54942SOL    HW166723   2.806  10.388   4.772
54942SOL    HW266724   2.749  10.354   4.636
54943SOL     OW66725   6.874   5.718  14.576
54943SOL    HW166726   6.842   5.675  14.497
54943SOL    HW266727   6.958   5.675  14.594
54944SOL     OW66728  11.661   7.860   6.581
54944SOL    HW166729  11.614   7.782   6.554
54944SOL    HW266730  11.749   7.849   6.546
54945SOL     OW66731   0.360   9.082  10.528
54945SOL    HW166732   0.328   9.000  10.490
54945SOL    HW266733   0.281   9.129  10.554
54946SOL     OW66734  10.872   9.233   1.050
54946SOL    HW166735  10.872   9.209   1.142
54946SOL    HW266736  10.856   9.151   1.003
54947SOL     OW66737   1.938   2.750  12.772
54947SOL    HW166738   1.955   2.788  12.858
54947SOL    HW266739   1.853   2.706  12.781
54948SOL     OW66740  11.499  14.514  11.815
54948SOL    HW166741  11.449  14.441  11.853
54948SOL    HW266742  11.550  14.474  11.745
54949SOL     OW66743   4.680   1.981   7.408
54949SOL    HW166744   4.651   1.972   7.318
54949SOL    HW266745   4.752   2.045   7.404
54950SOL     OW66746   3.039   8.058   1.488
54950SOL    HW166747   3.044   7.971   1.526
54950SOL    HW266748   3.131   8.084   1.477
54951SOL     OW66749  10.465   1.549  14.559
54951SOL    HW166750  10.444   1.508  14.643
54951SOL    HW266751  10.541   1.604  14.577
54952SOL     OW66752  13.338   1.265   2.995
54952SOL    HW166753  13.329   1.310   2.911
54952SOL    HW266754  13.266   1.298   3.048
54953SOL     OW66755   4.174  13.291  10.738
54953SOL    HW166756   4.168  13.200  10.710
54953SOL    HW266757   4.257  13.296  10.784
54954SOL     OW66758   5.833   5.071   5.633
54954SOL    HW166759   5.912   5.119   5.608
54954SOL    HW266760   5.865   4.992   5.677
54955SOL     OW66761  12.130   0.625   5.372
54955SOL    HW166762  12.144   0.709   5.329
54955SOL    HW266763  12.035   0.612   5.369
54956SOL     OW66764   6.671   4.984  10.278
54956SOL    HW166765   6.744   4.923  10.262
54956SOL    HW266766   6.672   5.042  10.202
54957SOL     OW66767  13.162  13.920   3.825
54957SOL    HW166768  13.070  13.944   3.811
54957SOL    HW266769  13.194  13.898   3.737
54958SOL     OW66770   7.925   3.967   3.209
54958SOL    HW166771   7.988   4.033   3.238
54958SOL    HW266772   7.862   4.015   3.155
54959SOL     OW66773   9.945  10.957   5.145
54959SOL    HW166774   9.893  10.975   5.223
54959SOL    HW266775   9.881  10.948   5.074
54960SOL     OW66776   0.468   3.140  11.209
54960SOL    HW166777   0.439   3.052  11.232
54960SOL    HW266778   0.498   3.178  11.291
54961SOL     OW66779   9.866   6.676  12.296
54961SOL    HW166780   9.798   6.717  12.349
54961SOL    HW266781   9.905   6.748  12.246
54962SOL     OW66782   7.699  14.424   7.262
54962SOL    HW166783   7.609  14.455   7.253
54962SOL    HW266784   7.697  14.365   7.337
54963SOL     OW66785   7.095   2.709   1.319
54963SOL    HW166786   7.004   2.681   1.320
54963SOL    HW266787   7.094   2.792   1.270
54964SOL     OW66788   0.445   2.426   8.973
54964SOL    HW166789   0.416   2.336   8.958
54964SOL    HW266790   0.405   2.476   8.902
54965SOL     OW66791  13.567   7.683   6.589
54965SOL    HW166792  13.559   7.588   6.592
54965SOL    HW266793  13.491   7.712   6.538
54966SOL     OW66794  14.098   5.615   7.202
54966SOL    HW166795  14.136   5.529   7.181
54966SOL    HW266796  14.073   5.608   7.294
54967SOL     OW66797   0.238   3.186  12.445
54967SOL    HW166798   0.202   3.273  12.463
54967SOL    HW266799   0.329   3.202  12.420
54968SOL     OW66800  11.919   5.158  14.665
54968SOL    HW166801  11.872   5.215  14.603
54968SOL    HW266802  11.962   5.219  14.725
54969SOL     OW66803   0.329   3.615   4.829
54969SOL    HW166804   0.291   3.662   4.754
54969SOL    HW266805   0.253   3.585   4.879
54970SOL     OW66806  12.371  12.792   4.842
54970SOL    HW166807  12.291  12.819   4.796
54970SOL    HW266808  12.441  12.804   4.778
54971SOL     OW66809  13.654   7.971  14.286
54971SOL    HW166810  13.672   7.879  14.305
54971SOL    HW266811  13.686   7.984  14.197
54972SOL     OW66812  10.252   3.670   7.294
54972SOL    HW166813  10.190   3.610   7.252
54972SOL    HW266814  10.302   3.616   7.354
54973SOL     OW66815  12.167   4.233  10.139
54973SOL    HW166816  12.088   4.253  10.189
54973SOL    HW266817  12.136   4.181  10.065
54974SOL     OW66818   9.067  14.814  10.993
54974SOL    HW166819   9.133  14.785  11.055
54974SOL    HW266820   9.107  14.801  10.907
54975SOL     OW66821   8.841  12.455   8.542
54975SOL    HW166822   8.904  12.387   8.520
54975SOL    HW266823   8.815  12.435   8.632
54976SOL     OW66824  14.477   6.748   7.392
54976SOL    HW166825  14.474   6.800   7.473
54976SOL    HW266826  14.465   6.658   7.422
54977SOL     OW66827   1.619   5.427   8.371
54977SOL    HW166828   1.571   5.485   8.431
54977SOL    HW266829   1.672   5.373   8.429
54978SOL     OW66830  13.902   5.971  11.838
54978SOL    HW166831  13.815   6.008  11.824
54978SOL    HW266832  13.921   5.922  11.758
54979SOL     OW66833   4.793   7.311  13.966
54979SOL    HW166834   4.706   7.336  13.935
54979SOL    HW266835   4.778   7.233  14.020
54980SOL     OW66836   1.224   3.153   2.425
54980SOL    HW166837   1.304   3.123   2.381
54980SOL    HW266838   1.176   3.073   2.444
54981SOL     OW66839  12.088  14.361   4.783
54981SOL    HW166840  12.159  14.300   4.764
54981SOL    HW266841  12.041  14.321   4.856
54982SOL     OW66842   0.690  12.590   7.687
54982SOL    HW166843   0.737  12.552   7.762
54982SOL    HW266844   0.672  12.516   7.630
54983SOL     OW66845   0.130  11.118   1.587
54983SOL    HW166846   0.164  11.070   1.511
54983SOL    HW266847   0.142  11.059   1.661
54984SOL     OW66848   1.159   9.508   6.019
54984SOL    HW166849   1.244   9.518   5.977
54984SOL    HW266850   1.146   9.590   6.066
54985SOL     OW66851   7.198   0.913   8.959
54985SOL    HW166852   7.110   0.895   8.927
54985SOL    HW266853   7.220   0.998   8.920
54986SOL     OW66854  12.751  14.720   1.122
54986SOL    HW166855  12.767  14.649   1.059
54986SOL    HW266856  12.788  14.798   1.079
54987SOL     OW66857   4.602  13.639   3.403
54987SOL    HW166858   4.567  13.559   3.363
54987SOL    HW266859   4.610  13.617   3.496
54988SOL     OW66860   9.267  14.283  12.014
54988SOL    HW166861   9.180  14.274  12.053
54988SOL    HW266862   9.263  14.364  11.964
54989SOL     OW66863  10.896   8.810   4.346
54989SOL    HW166864  10.881   8.894   4.304
54989SOL    HW266865  10.876   8.825   4.438
54990SOL     OW66866   4.025  13.839   2.950
54990SOL    HW166867   4.044  13.861   2.859
54990SOL    HW266868   3.930  13.829   2.953
54991SOL     OW66869   1.565   1.683  11.870
54991SOL    HW166870   1.543   1.679  11.777
54991SOL    HW266871   1.641   1.626  11.880
54992SOL     OW66872   7.043  10.861  14.836
54992SOL    HW166873   7.069  10.896  14.751
54992SOL    HW266874   7.101  10.786  14.849
54993SOL     OW66875   6.088  12.765   7.182
54993SOL    HW166876   6.088  12.774   7.086
54993SOL    HW266877   6.060  12.850   7.214
54994SOL     OW66878   4.097  13.311   6.770
54994SOL    HW166879   4.116  13.402   6.747
54994SOL    HW266880   4.113  13.262   6.689
54995SOL     OW66881   2.212  10.370   6.722
54995SOL    HW166882   2.198  10.307   6.792
54995SOL    HW266883   2.207  10.319   6.642
54996SOL     OW66884   6.783   8.763   7.178
54996SOL    HW166885   6.804   8.718   7.260
54996SOL    HW266886   6.795   8.696   7.110
54997SOL     OW66887   6.181   9.045   5.153
54997SOL    HW166888   6.187   9.001   5.238
54997SOL    HW266889   6.219   9.131   5.168
54998SOL     OW66890   6.393   4.202  14.401
54998SOL    HW166891   6.458   4.172  14.465
54998SOL    HW266892   6.377   4.125  14.346
54999SOL     OW66893  10.530   7.722   5.399
54999SOL    HW166894  10.615   7.686   5.423
54999SOL    HW266895  10.504   7.673   5.321
55000SOL     OW66896  12.743   1.792   0.308
55000SOL    HW166897  12.739   1.699   0.289
55000SOL    HW266898  12.667   1.808   0.365
55001SOL     OW66899  11.736   2.883   5.640
55001SOL    HW166900  11.743   2.939   5.563
55001SOL    HW266901  11.664   2.920   5.690
55002SOL     OW66902  11.300  10.527  12.896
55002SOL    HW166903  11.303  10.620  12.919
55002SOL    HW266904  11.229  10.521  12.832
55003SOL     OW66905   2.354  14.328  11.375
55003SOL    HW166906   2.342  14.351  11.467
55003SOL    HW266907   2.265  14.319  11.341
55004SOL     OW66908   5.917   6.975  12.133
55004SOL    HW166909   5.947   6.934  12.052
55004SOL    HW266910   5.995   7.018  12.168
55005SOL     OW66911   6.269   0.519  14.135
55005SOL    HW166912   6.298   0.428  14.142
55005SOL    HW266913   6.198   0.526  14.199
55006SOL     OW66914   1.040   6.227   1.165
55006SOL    HW166915   1.131   6.199   1.171
55006SOL    HW266916   0.998   6.187   1.241
55007SOL     OW66917   6.282  12.480   9.136
55007SOL    HW166918   6.345  12.509   9.201
55007SOL    HW266919   6.322  12.403   9.096
55008SOL     OW66920   2.577   7.863   9.714
55008SOL    HW166921   2.489   7.901   9.718
55008SOL    HW266922   2.565   7.774   9.746
55009SOL     OW66923   6.923   0.297   0.027
55009SOL    HW166924   6.913   0.390   0.005
55009SOL    HW266925   7.017   0.286   0.043
55010SOL     OW66926  11.204   1.193  13.080
55010SOL    HW166927  11.290   1.207  13.119
55010SOL    HW266928  11.213   1.114  13.027
55011SOL     OW66929   2.474   7.964   9.335
55011SOL    HW166930   2.499   7.992   9.424
55011SOL    HW266931   2.470   8.045   9.285
55012SOL     OW66932   4.982  12.502   7.786
55012SOL    HW166933   4.918  12.567   7.816
55012SOL    HW266934   5.042  12.551   7.731
55013SOL     OW66935   2.397  13.243   3.011
55013SOL    HW166936   2.314  13.264   3.054
55013SOL    HW266937   2.464  13.279   3.068
55014SOL     OW66938   1.734   0.152   1.178
55014SOL    HW166939   1.639   0.140   1.189
55014SOL    HW266940   1.771   0.120   1.261
55015SOL     OW66941   0.991   1.223   0.422
55015SOL    HW166942   0.977   1.184   0.509
55015SOL    HW266943   1.014   1.148   0.366
55016SOL     OW66944  14.623   3.369  11.542
55016SOL    HW166945  14.628   3.296  11.604
55016SOL    HW266946  14.702   3.420  11.559
55017SOL     OW66947  11.343   5.044  12.540
55017SOL    HW166948  11.287   5.072  12.468
55017SOL    HW266949  11.376   4.958  12.513
55018SOL     OW66950   1.819  11.437  13.794
55018SOL    HW166951   1.789  11.519  13.757
55018SOL    HW266952   1.871  11.397  13.725
55019SOL     OW66953  11.453   3.127   1.009
55019SOL    HW166954  11.405   3.046   0.989
55019SOL    HW266955  11.522   3.131   0.942
55020SOL     OW66956   1.174  11.924   8.229
55020SOL    HW166957   1.185  12.013   8.262
55020SOL    HW266958   1.109  11.933   8.158
55021SOL     OW66959   2.349  11.548  14.309
55021SOL    HW166960   2.435  11.568  14.348
55021SOL    HW266961   2.350  11.596  14.226
55022SOL     OW66962   7.008  14.658  12.117
55022SOL    HW166963   6.944  14.705  12.063
55022SOL    HW266964   7.088  14.710  12.110
55023SOL     OW66965   0.851   4.608   0.403
55023SOL    HW166966   0.809   4.559   0.332
55023SOL    HW266967   0.889   4.684   0.359
55024SOL     OW66968   8.271   1.790  14.241
55024SOL    HW166969   8.188   1.749  14.266
55024SOL    HW266970   8.333   1.717  14.238
55025SOL     OW66971   5.301  10.724   5.183
55025SOL    HW166972   5.291  10.697   5.092
55025SOL    HW266973   5.347  10.650   5.225
55026SOL     OW66974  11.683  11.544   3.682
55026SOL    HW166975  11.661  11.636   3.668
55026SOL    HW266976  11.728  11.518   3.602
55027SOL     OW66977   8.228  13.127   2.428
55027SOL    HW166978   8.180  13.153   2.507
55027SOL    HW266979   8.317  13.109   2.459
55028SOL     OW66980  14.663   9.449   4.306
55028SOL    HW166981  14.610   9.502   4.366
55028SOL    HW266982  14.684   9.509   4.234
55029SOL     OW66983   2.559   4.908  11.771
55029SOL    HW166984   2.464   4.902  11.775
55029SOL    HW266985   2.582   4.872  11.685
55030SOL     OW66986  11.209   1.625   8.507
55030SOL    HW166987  11.125   1.668   8.523
55030SOL    HW266988  11.254   1.628   8.592
55031SOL     OW66989   5.461  10.522  11.293
55031SOL    HW166990   5.439  10.480  11.375
55031SOL    HW266991   5.376  10.543  11.253
55032SOL     OW66992  14.566   0.959   1.019
55032SOL    HW166993  14.576   1.054   1.024
55032SOL    HW266994  14.503   0.937   1.087
55033SOL     OW66995   7.130   5.085   4.082
55033SOL    HW166996   7.108   5.074   3.989
55033SOL    HW266997   7.050   5.062   4.128
55034SOL     OW66998  11.974  13.831  11.816
55034SOL    HW166999  11.909  13.763  11.835
55034SOL    HW267000  12.058  13.786  11.825
55035SOL     OW67001   9.574   9.177   0.969
55035SOL    HW167002   9.573   9.097   1.022
55035SOL    HW267003   9.487   9.179   0.927
55036SOL     OW67004   8.843   1.812  12.520
55036SOL    HW167005   8.889   1.773  12.594
55036SOL    HW267006   8.753   1.822  12.550
55037SOL     OW67007   8.627  13.890   4.822
55037SOL    HW167008   8.573  13.880   4.743
55037SOL    HW267009   8.641  13.801   4.852
55038SOL     OW67010  14.216   2.824  13.236
55038SOL    HW167011  14.125   2.844  13.262
55038SOL    HW267012  14.214   2.732  13.211
55039SOL     OW67013  10.549   0.705  12.851
55039SOL    HW167014  10.579   0.614  12.855
55039SOL    HW267015  10.454   0.699  12.842
55040SOL     OW67016   1.044   2.060  11.316
55040SOL    HW167017   1.055   2.122  11.244
55040SOL    HW267018   1.107   1.990  11.298
55041SOL     OW67019   5.805   1.906   3.333
55041SOL    HW167020   5.868   1.976   3.353
55041SOL    HW267021   5.856   1.825   3.341
55042SOL     OW67022   8.979   1.387   4.615
55042SOL    HW167023   8.953   1.475   4.589
55042SOL    HW267024   9.018   1.397   4.702
55043SOL     OW67025   8.548   7.747  11.134
55043SOL    HW167026   8.586   7.835  11.127
55043SOL    HW267027   8.456   7.763  11.157
55044SOL     OW67028   9.559  14.601   6.002
55044SOL    HW167029   9.611  14.599   5.922
55044SOL    HW267030   9.567  14.691   6.034
55045SOL     OW67031  12.657   7.749  12.595
55045SOL    HW167032  12.589   7.727  12.531
55045SOL    HW267033  12.701   7.826  12.558
55046SOL     OW67034   5.140   2.848  11.020
55046SOL    HW167035   5.183   2.844  11.106
55046SOL    HW267036   5.173   2.772  10.972
55047SOL     OW67037  13.169  10.676   9.634
55047SOL    HW167038  13.250  10.626   9.620
55047SOL    HW267039  13.149  10.713   9.548
55048SOL     OW67040   1.034   8.425  10.806
55048SOL    HW167041   1.117   8.424  10.758
55048SOL    HW267042   0.968   8.448  10.741
55049SOL     OW67043  13.573  12.463   7.279
55049SOL    HW167044  13.574  12.391   7.216
55049SOL    HW267045  13.537  12.537   7.229
55050SOL     OW67046  14.113  11.380   0.001
55050SOL    HW167047  14.139  11.310   0.061
55050SOL    HW267048  14.018  11.389   0.014
55051SOL     OW67049   6.952  12.779   8.749
55051SOL    HW167050   6.902  12.860   8.745
55051SOL    HW267051   6.888  12.710   8.731
55052SOL     OW67052  11.696   6.583   5.380
55052SOL    HW167053  11.724   6.675   5.383
55052SOL    HW267054  11.735   6.549   5.300
55053SOL     OW67055   2.137   4.430   2.308
55053SOL    HW167056   2.051   4.472   2.297
55053SOL    HW267057   2.147   4.422   2.403
55054SOL     OW67058   4.840   7.867   9.473
55054SOL    HW167059   4.798   7.927   9.411
55054SOL    HW267060   4.903   7.921   9.520
55055SOL     OW67061   4.646   4.661  11.516
55055SOL    HW167062   4.555   4.665  11.544
55055SOL    HW267063   4.644   4.680  11.423
55056SOL     OW67064  14.846   0.316   2.470
55056SOL    HW167065  14.867   0.350   2.557
55056SOL    HW267066  14.788   0.242   2.487
55057SOL     OW67067   2.720  12.986   8.520
55057SOL    HW167068   2.629  13.013   8.528
55057SOL    HW267069   2.759  13.004   8.606
55058SOL     OW67070   4.209   1.304   2.499
55058SOL    HW167071   4.199   1.269   2.410
55058SOL    HW267072   4.297   1.342   2.499
55059SOL     OW67073   0.631  11.304   1.578
55059SOL    HW167074   0.570  11.337   1.512
55059SOL    HW267075   0.576  11.251   1.636
55060SOL     OW67076  12.117   8.804  14.236
55060SOL    HW167077  12.035   8.834  14.274
55060SOL    HW267078  12.164   8.764  14.310
55061SOL     OW67079   1.009   1.334   2.795
55061SOL    HW167080   1.069   1.282   2.848
55061SOL    HW267081   1.009   1.420   2.836
55062SOL     OW67082   1.833  14.413   4.292
55062SOL    HW167083   1.799  14.403   4.203
55062SOL    HW267084   1.787  14.346   4.343
55063SOL     OW67085   2.782  12.199  10.867
55063SOL    HW167086   2.778  12.246  10.950
55063SOL    HW267087   2.721  12.246  10.810
55064SOL     OW67088  14.339   5.760   5.756
55064SOL    HW167089  14.288   5.724   5.828
55064SOL    HW267090  14.415   5.701   5.750
55065SOL     OW67091   4.546  13.344   6.811
55065SOL    HW167092   4.484  13.417   6.818
55065SOL    HW267093   4.532  13.294   6.891
55066SOL     OW67094  12.387   5.184  12.095
55066SOL    HW167095  12.443   5.257  12.122
55066SOL    HW267096  12.323   5.175  12.165
55067SOL     OW67097   1.485   9.459  10.271
55067SOL    HW167098   1.440   9.415  10.343
55067SOL    HW267099   1.431   9.536  10.253
55068SOL     OW67100   6.728   3.326   1.627
55068SOL    HW167101   6.783   3.251   1.651
55068SOL    HW267102   6.666   3.290   1.564
55069SOL     OW67103   8.108  14.295  11.918
55069SOL    HW167104   8.075  14.380  11.892
55069SOL    HW267105   8.191  14.286  11.872
55070SOL     OW67106   0.034  12.386   5.856
55070SOL    HW167107  14.876  12.468   5.833
55070SOL    HW267108   0.090  12.368   5.780
55071SOL     OW67109  13.390   1.078  14.700
55071SOL    HW167110  13.439   1.151  14.661
55071SOL    HW267111  13.307   1.118  14.728
55072SOL     OW67112   6.231  11.887   5.389
55072SOL    HW167113   6.220  11.838   5.307
55072SOL    HW267114   6.324  11.876   5.411
55073SOL     OW67115  11.044  10.896   5.486
55073SOL    HW167116  10.978  10.840   5.527
55073SOL    HW267117  11.125  10.844   5.492
55074SOL     OW67118   7.308   2.970   3.575
55074SOL    HW167119   7.221   3.009   3.567
55074SOL    HW267120   7.369   3.044   3.572
55075SOL     OW67121  14.614  13.508  14.773
55075SOL    HW167122  14.599  13.601  14.788
55075SOL    HW267123  14.631  13.472  14.860
55076SOL     OW67124   8.693  13.875   8.822
55076SOL    HW167125   8.671  13.902   8.733
55076SOL    HW267126   8.618  13.823   8.851
55077SOL     OW67127  11.407  11.014  10.068
55077SOL    HW167128  11.480  11.072  10.046
55077SOL    HW267129  11.355  11.010   9.987
55078SOL     OW67130   4.295  11.142  11.976
55078SOL    HW167131   4.250  11.072  12.023
55078SOL    HW267132   4.385  11.110  11.966
55079SOL     OW67133   5.788   9.558   9.146
55079SOL    HW167134   5.729   9.528   9.215
55079SOL    HW267135   5.782   9.653   9.148
55080SOL     OW67136   0.754   9.078   7.590
55080SOL    HW167137   0.812   9.074   7.514
55080SOL    HW267138   0.808   9.049   7.663
55081SOL     OW67139   4.371   8.337   4.161
55081SOL    HW167140   4.285   8.335   4.120
55081SOL    HW267141   4.357   8.300   4.249
55082SOL     OW67142   8.952   8.934   2.193
55082SOL    HW167143   8.869   8.960   2.231
55082SOL    HW267144   8.931   8.912   2.102
55083SOL     OW67145  14.431  13.081  13.392
55083SOL    HW167146  14.369  13.020  13.433
55083SOL    HW267147  14.487  13.109  13.464
55084SOL     OW67148   8.078   8.694   1.335
55084SOL    HW167149   8.157   8.661   1.293
55084SOL    HW267150   8.104   8.776   1.376
55085SOL     OW67151   5.650   8.672  10.297
55085SOL    HW167152   5.720   8.636  10.351
55085SOL    HW267153   5.661   8.629  10.212
55086SOL     OW67154   6.755  10.425   1.017
55086SOL    HW167155   6.732  10.516   0.995
55086SOL    HW267156   6.711  10.409   1.101
55087SOL     OW67157  12.622   7.713   0.326
55087SOL    HW167158  12.558   7.781   0.346
55087SOL    HW267159  12.600   7.642   0.387
55088SOL     OW67160  14.333   7.881   1.923
55088SOL    HW167161  14.343   7.961   1.975
55088SOL    HW267162  14.241   7.856   1.936
55089SOL     OW67163   0.953   5.476   6.696
55089SOL    HW167164   0.922   5.390   6.668
55089SOL    HW267165   0.967   5.467   6.790
55090SOL     OW67166   0.374  12.836   8.768
55090SOL    HW167167   0.297  12.789   8.739
55090SOL    HW267168   0.340  12.917   8.807
55091SOL     OW67169   7.799   0.967   8.984
55091SOL    HW167170   7.735   0.896   8.971
55091SOL    HW267171   7.876   0.939   8.934
55092SOL     OW67172   9.765  10.402  12.327
55092SOL    HW167173   9.765  10.484  12.376
55092SOL    HW267174   9.705  10.346  12.376
55093SOL     OW67175   5.395   3.955  13.405
55093SOL    HW167176   5.368   3.979  13.316
55093SOL    HW267177   5.397   4.038  13.453
55094SOL     OW67178   3.045   1.469  14.529
55094SOL    HW167179   2.973   1.407  14.515
55094SOL    HW267180   3.002   1.554  14.535
55095SOL     OW67181   2.560   9.584   6.993
55095SOL    HW167182   2.642   9.633   6.994
55095SOL    HW267183   2.500   9.640   6.943
55096SOL     OW67184   7.571  10.600   1.547
55096SOL    HW167185   7.550  10.618   1.639
55096SOL    HW267186   7.666  10.610   1.542
55097SOL     OW67187   9.377   7.102  10.108
55097SOL    HW167188   9.370   7.123  10.015
55097SOL    HW267189   9.395   7.008  10.109
55098SOL     OW67190   2.317   4.716   8.505
55098SOL    HW167191   2.395   4.702   8.557
55098SOL    HW267192   2.244   4.696   8.564
55099SOL     OW67193   3.255  10.709  13.359
55099SOL    HW167194   3.322  10.672  13.416
55099SOL    HW267195   3.186  10.642  13.357
55100SOL     OW67196   0.427   3.482   0.839
55100SOL    HW167197   0.354   3.541   0.859
55100SOL    HW267198   0.452   3.503   0.749
55101SOL     OW67199   1.676   7.050   8.285
55101SOL    HW167200   1.673   7.146   8.280
55101SOL    HW267201   1.759   7.031   8.329
55102SOL     OW67202  13.248  10.624  11.407
55102SOL    HW167203  13.314  10.559  11.430
55102SOL    HW267204  13.203  10.643  11.489
55103SOL     OW67205  13.887  10.868   3.813
55103SOL    HW167206  13.852  10.830   3.732
55103SOL    HW267207  13.929  10.795   3.858
55104SOL     OW67208  12.321  13.183   7.931
55104SOL    HW167209  12.277  13.268   7.939
55104SOL    HW267210  12.264  13.121   7.976
55105SOL     OW67211   2.766   2.408  12.610
55105SOL    HW167212   2.701   2.433  12.676
55105SOL    HW267213   2.717   2.354  12.548
55106SOL     OW67214   1.461  10.709   2.173
55106SOL    HW167215   1.430  10.790   2.214
55106SOL    HW267216   1.524  10.738   2.107
55107SOL     OW67217  10.876  10.690  11.976
55107SOL    HW167218  10.783  10.668  11.975
55107SOL    HW267219  10.920  10.613  11.939
55108SOL     OW67220   9.386   1.497   7.562
55108SOL    HW167221   9.401   1.587   7.535
55108SOL    HW267222   9.294   1.480   7.542
55109SOL     OW67223   4.727   3.974   4.449
55109SOL    HW167224   4.672   4.018   4.384
55109SOL    HW267225   4.733   4.035   4.522
55110SOL     OW67226   6.787   9.740  13.553
55110SOL    HW167227   6.874   9.707  13.573
55110SOL    HW267228   6.750   9.676  13.492
55111SOL     OW67229   5.125   3.440  12.451
55111SOL    HW167230   5.065   3.391  12.396
55111SOL    HW267231   5.197   3.380  12.468
55112SOL     OW67232   3.181   0.178  10.809
55112SOL    HW167233   3.184   0.083  10.797
55112SOL    HW267234   3.228   0.193  10.892
55113SOL     OW67235   1.815   9.251   8.757
55113SOL    HW167236   1.847   9.192   8.689
55113SOL    HW267237   1.823   9.200   8.838
55114SOL     OW67238  11.376   0.518   1.209
55114SOL    HW167239  11.433   0.563   1.272
55114SOL    HW267240  11.395   0.425   1.222
55115SOL     OW67241   0.169   7.673   7.561
55115SOL    HW167242   0.217   7.594   7.536
55115SOL    HW267243   0.155   7.664   7.656
55116SOL     OW67244   9.771   3.127  12.965
55116SOL    HW167245   9.768   3.162  13.054
55116SOL    HW267246   9.711   3.182  12.916
55117SOL     OW67247  12.818   5.447   2.967
55117SOL    HW167248  12.861   5.456   3.051
55117SOL    HW267249  12.866   5.506   2.909
55118SOL     OW67250  13.385  11.845   6.922
55118SOL    HW167251  13.365  11.832   6.830
55118SOL    HW267252  13.344  11.929   6.944
55119SOL     OW67253   6.368  11.425   3.380
55119SOL    HW167254   6.313  11.434   3.457
55119SOL    HW267255   6.310  11.391   3.312
55120SOL     OW67256   9.316   5.662   3.430
55120SOL    HW167257   9.399   5.670   3.477
55120SOL    HW267258   9.340   5.626   3.344
55121SOL     OW67259  13.788  10.106   4.908
55121SOL    HW167260  13.798  10.166   4.982
55121SOL    HW267261  13.864  10.122   4.853
55122SOL     OW67262   8.671  12.147  11.797
55122SOL    HW167263   8.693  12.135  11.704
55122SOL    HW267264   8.576  12.133  11.801
55123SOL     OW67265   9.115   5.415  10.744
55123SOL    HW167266   9.168   5.386  10.669
55123SOL    HW267267   9.050   5.346  10.756
55124SOL     OW67268  10.305   5.198   4.907
55124SOL    HW167269  10.263   5.224   4.989
55124SOL    HW267270  10.311   5.103   4.913
55125SOL     OW67271   7.340   1.327   8.301
55125SOL    HW167272   7.359   1.334   8.395
55125SOL    HW267273   7.388   1.250   8.272
55126SOL     OW67274   8.871  13.103   1.369
55126SOL    HW167275   8.924  13.175   1.334
55126SOL    HW267276   8.847  13.132   1.458
55127SOL     OW67277   0.385   6.594  11.050
55127SOL    HW167278   0.468   6.574  11.094
55127SOL    HW267279   0.319   6.585  11.119
55128SOL     OW67280   4.924   2.310  11.214
55128SOL    HW167281   5.002   2.357  11.243
55128SOL    HW267282   4.958   2.231  11.173
55129SOL     OW67283   0.897   0.466   1.772
55129SOL    HW167284   0.874   0.446   1.681
55129SOL    HW267285   0.976   0.519   1.766
55130SOL     OW67286  10.429   1.313   1.306
55130SOL    HW167287  10.443   1.219   1.302
55130SOL    HW267288  10.411   1.339   1.215
55131SOL     OW67289  11.380   8.906   7.049
55131SOL    HW167290  11.385   8.931   7.142
55131SOL    HW267291  11.469   8.880   7.026
55132SOL     OW67292  11.970   4.365  13.278
55132SOL    HW167293  12.024   4.305  13.226
55132SOL    HW267294  11.880   4.341  13.255
55133SOL     OW67295   0.599   7.630  13.885
55133SOL    HW167296   0.657   7.591  13.950
55133SOL    HW267297   0.656   7.687  13.834
55134SOL     OW67298   1.650   7.633  11.422
55134SOL    HW167299   1.599   7.644  11.502
55134SOL    HW267300   1.740   7.628  11.451
55135SOL     OW67301  12.965   5.877   4.132
55135SOL    HW167302  12.960   5.801   4.189
55135SOL    HW267303  12.945   5.951   4.189
55136SOL     OW67304   6.365   2.004   0.312
55136SOL    HW167305   6.440   1.961   0.353
55136SOL    HW267306   6.397   2.031   0.226
55137SOL     OW67307   5.990  12.205   6.105
55137SOL    HW167308   5.896  12.206   6.123
55137SOL    HW267309   6.027  12.272   6.162
55138SOL     OW67310   6.815   7.638   3.723
55138SOL    HW167311   6.841   7.575   3.791
55138SOL    HW267312   6.719   7.642   3.730
55139SOL     OW67313   9.805   9.882  11.066
55139SOL    HW167314   9.712   9.881  11.089
55139SOL    HW267315   9.807   9.877  10.970
55140SOL     OW67316   1.327  10.150   6.809
55140SOL    HW167317   1.384  10.093   6.861
55140SOL    HW267318   1.360  10.141   6.720
55141SOL     OW67319  13.108  14.454  13.065
55141SOL    HW167320  13.120  14.422  12.975
55141SOL    HW267321  13.154  14.390  13.119
55142SOL     OW67322   0.764  14.882   9.950
55142SOL    HW167323   0.751   0.067  10.010
55142SOL    HW267324   0.694  14.820   9.970
55143SOL     OW67325  14.711  11.021   0.987
55143SOL    HW167326  14.753  11.106   0.987
55143SOL    HW267327  14.716  10.991   0.896
55144SOL     OW67328  13.655   9.498   9.609
55144SOL    HW167329  13.618   9.503   9.697
55144SOL    HW267330  13.595   9.441   9.561
55145SOL     OW67331   2.012  10.787   3.612
55145SOL    HW167332   1.933  10.838   3.593
55145SOL    HW267333   2.040  10.818   3.698
55146SOL     OW67334   3.320  13.629  14.708
55146SOL    HW167335   3.378  13.575  14.655
55146SOL    HW267336   3.332  13.718  14.673
55147SOL     OW67337   1.059   0.918   4.810
55147SOL    HW167338   1.070   0.841   4.866
55147SOL    HW267339   0.968   0.944   4.823
55148SOL     OW67340   2.535   7.920   3.604
55148SOL    HW167341   2.474   7.994   3.595
55148SOL    HW267342   2.618   7.959   3.631
55149SOL     OW67343   2.999   2.183  13.237
55149SOL    HW167344   3.000   2.201  13.331
55149SOL    HW267345   2.972   2.092  13.230
55150SOL     OW67346   2.622  11.498   5.003
55150SOL    HW167347   2.646  11.407   4.985
55150SOL    HW267348   2.575  11.495   5.086
55151SOL     OW67349  11.506  11.807   0.681
55151SOL    HW167350  11.442  11.837   0.616
55151SOL    HW267351  11.576  11.768   0.630
55152SOL     OW67352   1.634  12.512   1.499
55152SOL    HW167353   1.593  12.431   1.470
55152SOL    HW267354   1.677  12.489   1.581
55153SOL     OW67355   2.852  10.838  13.984
55153SOL    HW167356   2.910  10.777  14.029
55153SOL    HW267357   2.885  10.925  14.010
55154SOL     OW67358   1.979   5.716  14.196
55154SOL    HW167359   2.032   5.790  14.165
55154SOL    HW267360   2.009   5.642  14.144
55155SOL     OW67361   7.181   2.798   5.793
55155SOL    HW167362   7.191   2.809   5.888
55155SOL    HW267363   7.124   2.870   5.767
55156SOL     OW67364   9.634  10.440  11.246
55156SOL    HW167365   9.554  10.419  11.294
55156SOL    HW267366   9.604  10.479  11.164
55157SOL     OW67367   0.257  13.236  13.074
55157SOL    HW167368   0.283  13.316  13.122
55157SOL    HW267369   0.232  13.174  13.143
55158SOL     OW67370   0.538   0.131   6.990
55158SOL    HW167371   0.597   0.193   7.032
55158SOL    HW267372   0.525   0.062   7.054
55159SOL     OW67373  11.166  10.412   0.357
55159SOL    HW167374  11.103  10.385   0.290
55159SOL    HW267375  11.224  10.336   0.367
55160SOL     OW67376   0.481   3.381  13.404
55160SOL    HW167377   0.476   3.286  13.394
55160SOL    HW267378   0.413   3.402  13.468
55161SOL     OW67379   5.987   7.512   6.341
55161SOL    HW167380   6.015   7.541   6.428
55161SOL    HW267381   6.002   7.588   6.284
55162SOL     OW67382   9.755   9.327   2.765
55162SOL    HW167383   9.687   9.392   2.746
55162SOL    HW267384   9.749   9.265   2.693
55163SOL     OW67385   9.401  12.933  12.689
55163SOL    HW167386   9.373  12.860  12.744
55163SOL    HW267387   9.347  13.007  12.718
55164SOL     OW67388  10.301   9.310   4.146
55164SOL    HW167389  10.274   9.396   4.179
55164SOL    HW267390  10.331   9.263   4.223
55165SOL     OW67391   3.582   3.896   9.990
55165SOL    HW167392   3.611   3.986   9.974
55165SOL    HW267393   3.594   3.884  10.084
55166SOL     OW67394  11.696   0.868   2.205
55166SOL    HW167395  11.693   0.892   2.113
55166SOL    HW267396  11.619   0.909   2.243
55167SOL     OW67397   1.273   2.319   3.305
55167SOL    HW167398   1.230   2.294   3.387
55167SOL    HW267399   1.285   2.413   3.312
55168SOL     OW67400   0.341   6.053   8.050
55168SOL    HW167401   0.307   6.082   7.965
55168SOL    HW267402   0.275   6.082   8.113
55169SOL     OW67403   7.332   8.700   8.905
55169SOL    HW167404   7.308   8.617   8.863
55169SOL    HW267405   7.292   8.767   8.850
55170SOL     OW67406  10.317   3.968   7.638
55170SOL    HW167407  10.346   3.969   7.546
55170SOL    HW267408  10.324   4.060   7.665
55171SOL     OW67409   6.024  12.449  10.900
55171SOL    HW167410   5.996  12.383  10.838
55171SOL    HW267411   5.944  12.497  10.922
55172SOL     OW67412   0.855   4.938  12.624
55172SOL    HW167413   0.763   4.960  12.609
55172SOL    HW267414   0.868   4.855  12.577
55173SOL     OW67415   8.063   8.463   9.508
55173SOL    HW167416   8.046   8.439   9.417
55173SOL    HW267417   8.011   8.542   9.523
55174SOL     OW67418  10.098   6.234   5.736
55174SOL    HW167419  10.177   6.270   5.775
55174SOL    HW267420  10.044   6.310   5.716
55175SOL     OW67421  10.298   4.195  14.283
55175SOL    HW167422  10.268   4.116  14.327
55175SOL    HW267423  10.332   4.251  14.353
55176SOL     OW67424  14.086  10.585  11.943
55176SOL    HW167425  14.098  10.627  12.028
55176SOL    HW267426  14.015  10.634  11.902
55177SOL     OW67427   7.678  13.107  10.537
55177SOL    HW167428   7.633  13.176  10.587
55177SOL    HW267429   7.612  13.038  10.526
55178SOL     OW67430  12.115   0.138  12.284
55178SOL    HW167431  12.102   0.215  12.228
55178SOL    HW267432  12.028   0.120  12.320
55179SOL     OW67433  14.062   6.093   4.323
55179SOL    HW167434  14.046   6.180   4.358
55179SOL    HW267435  14.153   6.095   4.292
55180SOL     OW67436   1.356   6.269   4.151
55180SOL    HW167437   1.315   6.289   4.236
55180SOL    HW267438   1.350   6.174   4.144
55181SOL     OW67439   5.649  14.035   8.981
55181SOL    HW167440   5.733  14.065   9.015
55181SOL    HW267441   5.667  13.948   8.945
55182SOL     OW67442   0.804  14.456   8.578
55182SOL    HW167443   0.884  14.404   8.588
55182SOL    HW267444   0.749  14.429   8.651
55183SOL     OW67445  13.293   4.241   7.745
55183SOL    HW167446  13.325   4.193   7.669
55183SOL    HW267447  13.249   4.174   7.799
55184SOL     OW67448   0.996  10.037  11.608
55184SOL    HW167449   1.090  10.057  11.611
55184SOL    HW267450   0.960  10.104  11.549
55185SOL     OW67451  10.666   6.990   7.444
55185SOL    HW167452  10.716   6.955   7.370
55185SOL    HW267453  10.576   6.995   7.412
55186SOL     OW67454   1.562   7.655   6.226
55186SOL    HW167455   1.494   7.722   6.234
55186SOL    HW267456   1.537   7.604   6.149
55187SOL     OW67457  13.228  10.885  14.029
55187SOL    HW167458  13.242  10.973  13.995
55187SOL    HW267459  13.224  10.897  14.124
55188SOL     OW67460   4.893  14.303  12.905
55188SOL    HW167461   4.800  14.308  12.884
55188SOL    HW267462   4.930  14.384  12.872
55189SOL     OW67463  13.521  14.746  13.111
55189SOL    HW167464  13.432  14.713  13.097
55189SOL    HW267465  13.557  14.687  13.177
55190SOL     OW67466  14.099   1.348  12.670
55190SOL    HW167467  14.171   1.411  12.674
55190SOL    HW267468  14.031   1.393  12.621
55191SOL     OW67469  11.976  13.552   9.865
55191SOL    HW167470  12.017  13.626   9.820
55191SOL    HW267471  11.955  13.490   9.795
55192SOL     OW67472   7.149   1.901   0.657
55192SOL    HW167473   7.115   1.986   0.686
55192SOL    HW267474   7.087   1.838   0.693
55193SOL     OW67475   3.491   4.834   0.047
55193SOL    HW167476   3.534   4.878  14.860
55193SOL    HW267477   3.424   4.779   0.007
55194SOL     OW67478  10.966   7.554   9.060
55194SOL    HW167479  11.022   7.479   9.074
55194SOL    HW267480  11.014   7.628   9.098
55195SOL     OW67481   2.336   7.671   1.570
55195SOL    HW167482   2.384   7.691   1.489
55195SOL    HW267483   2.246   7.699   1.551
55196SOL     OW67484   3.995  13.330   9.899
55196SOL    HW167485   3.975  13.365   9.813
55196SOL    HW267486   4.058  13.392   9.936
55197SOL     OW67487   2.629   6.614  11.166
55197SOL    HW167488   2.695   6.630  11.233
55197SOL    HW267489   2.546   6.615  11.213
55198SOL     OW67490   1.023   2.102   8.012
55198SOL    HW167491   1.093   2.044   7.981
55198SOL    HW267492   0.944   2.048   8.008
55199SOL     OW67493   1.832   6.622   0.858
55199SOL    HW167494   1.789   6.708   0.859
55199SOL    HW267495   1.761   6.559   0.861
55200SOL     OW67496  14.751  12.447  12.252
55200SOL    HW167497  14.815  12.464  12.183
55200SOL    HW267498  14.795  12.473  12.333
55201SOL     OW67499   7.824   6.760  13.726
55201SOL    HW167500   7.916   6.773  13.748
55201SOL    HW267501   7.786   6.724  13.806
55202SOL     OW67502   0.790  14.411  13.970
55202SOL    HW167503   0.759  14.321  13.981
55202SOL    HW267504   0.798  14.422  13.875
55203SOL     OW67505  14.736   6.757   6.180
55203SOL    HW167506  14.764   6.701   6.108
55203SOL    HW267507  14.763   6.710   6.259
55204SOL     OW67508   7.503   0.468   7.500
55204SOL    HW167509   7.581   0.435   7.545
55204SOL    HW267510   7.453   0.513   7.569
55205SOL     OW67511   9.262   8.297  11.553
55205SOL    HW167512   9.184   8.317  11.605
55205SOL    HW267513   9.325   8.364  11.578
55206SOL     OW67514   3.422   6.509   7.998
55206SOL    HW167515   3.376   6.460   7.930
55206SOL    HW267516   3.457   6.442   8.056
55207SOL     OW67517   0.075   2.925   2.024
55207SOL    HW167518   0.063   2.924   2.119
55207SOL    HW267519   0.158   2.972   2.012
55208SOL     OW67520   5.811  10.738   6.940
55208SOL    HW167521   5.769  10.680   6.876
55208SOL    HW267522   5.742  10.758   7.003
55209SOL     OW67523  10.925   2.777   9.253
55209SOL    HW167524  10.938   2.718   9.327
55209SOL    HW267525  10.968   2.859   9.279
55210SOL     OW67526   9.904   4.456   2.743
55210SOL    HW167527   9.913   4.551   2.731
55210SOL    HW267528   9.848   4.447   2.820
55211SOL     OW67529  13.437   9.451   1.135
55211SOL    HW167530  13.417   9.361   1.160
55211SOL    HW267531  13.366   9.476   1.076
55212SOL     OW67532   0.357   5.083   4.310
55212SOL    HW167533   0.300   5.107   4.237
55212SOL    HW267534   0.329   5.140   4.382
55213SOL     OW67535   4.225   4.117   5.658
55213SOL    HW167536   4.307   4.082   5.625
55213SOL    HW267537   4.225   4.209   5.631
55214SOL     OW67538   4.971   0.637   6.997
55214SOL    HW167539   4.928   0.584   6.930
55214SOL    HW267540   4.962   0.727   6.967
55215SOL     OW67541   4.937  12.221   6.870
55215SOL    HW167542   4.997  12.255   6.936
55215SOL    HW267543   4.852  12.215   6.914
55216SOL     OW67544   3.467  12.199  11.932
55216SOL    HW167545   3.525  12.239  11.867
55216SOL    HW267546   3.379  12.209  11.895
55217SOL     OW67547  11.244   7.323   6.378
55217SOL    HW167548  11.256   7.228   6.376
55217SOL    HW267549  11.228   7.347   6.287
55218SOL     OW67550   9.201   0.573   3.816
55218SOL    HW167551   9.163   0.570   3.904
55218SOL    HW267552   9.132   0.542   3.758
55219SOL     OW67553   9.570   3.310   2.278
55219SOL    HW167554   9.617   3.309   2.361
55219SOL    HW267555   9.569   3.402   2.251
55220SOL     OW67556   6.268   9.267   5.264
55220SOL    HW167557   6.301   9.211   5.333
55220SOL    HW267558   6.343   9.322   5.239
55221SOL     OW67559   5.254  10.306   2.736
55221SOL    HW167560   5.196  10.362   2.684
55221SOL    HW267561   5.228  10.216   2.713
55222SOL     OW67562   1.576   6.598   8.303
55222SOL    HW167563   1.648   6.619   8.244
55222SOL    HW267564   1.555   6.507   8.286
55223SOL     OW67565   1.414  12.173   5.313
55223SOL    HW167566   1.328  12.168   5.271
55223SOL    HW267567   1.416  12.260   5.354
55224SOL     OW67568   6.647   3.885   7.951
55224SOL    HW167569   6.572   3.902   7.894
55224SOL    HW267570   6.692   3.969   7.957
55225SOL     OW67571   6.502   4.487   4.529
55225SOL    HW167572   6.588   4.445   4.529
55225SOL    HW267573   6.501   4.540   4.608
55226SOL     OW67574   7.342   2.036   4.940
55226SOL    HW167575   7.359   1.992   5.023
55226SOL    HW267576   7.324   1.965   4.878
55227SOL     OW67577   2.337  10.042  12.874
55227SOL    HW167578   2.292   9.959  12.856
55227SOL    HW267579   2.410  10.018  12.931
55228SOL     OW67580  14.875   3.754   0.571
55228SOL    HW167581  14.846   3.679   0.520
55228SOL    HW267582  14.802   3.774   0.630
55229SOL     OW67583   3.328   8.707   4.491
55229SOL    HW167584   3.234   8.697   4.471
55229SOL    HW267585   3.338   8.800   4.511
55230SOL     OW67586   3.601   9.016   1.531
55230SOL    HW167587   3.557   9.057   1.456
55230SOL    HW267588   3.674   9.075   1.551
55231SOL     OW67589   8.167  14.771  12.876
55231SOL    HW167590   8.237  14.814  12.828
55231SOL    HW267591   8.210  14.731  12.952
55232SOL     OW67592  11.443  10.699  13.143
55232SOL    HW167593  11.389  10.621  13.162
55232SOL    HW267594  11.532  10.673  13.167
55233SOL     OW67595   2.725   9.753   4.554
55233SOL    HW167596   2.716   9.658   4.562
55233SOL    HW267597   2.713   9.786   4.643
55234SOL     OW67598   7.528   8.018  14.413
55234SOL    HW167599   7.511   8.110  14.396
55234SOL    HW267600   7.442   7.977  14.412
55235SOL     OW67601   9.589  10.405   9.374
55235SOL    HW167602   9.561  10.488   9.412
55235SOL    HW267603   9.511  10.350   9.375
55236SOL     OW67604   5.126   2.572  13.779
55236SOL    HW167605   5.072   2.498  13.809
55236SOL    HW267606   5.133   2.629  13.856
55237SOL     OW67607   4.600  14.593  14.191
55237SOL    HW167608   4.546  14.671  14.203
55237SOL    HW267609   4.539  14.526  14.160
55238SOL     OW67610   3.828   1.105  11.227
55238SOL    HW167611   3.837   1.028  11.171
55238SOL    HW267612   3.828   1.070  11.316
55239SOL     OW67613   9.969  14.733   7.911
55239SOL    HW167614   9.963  14.777   7.827
55239SOL    HW267615  10.051  14.682   7.905
55240SOL     OW67616   5.809   6.478   2.353
55240SOL    HW167617   5.753   6.486   2.430
55240SOL    HW267618   5.787   6.555   2.300
55241SOL     OW67619  10.683   0.072   7.784
55241SOL    HW167620  10.660   0.084   7.876
55241SOL    HW267621  10.694  14.865   7.774
55242SOL     OW67622   8.597   0.081   3.488
55242SOL    HW167623   8.559  14.881   3.491
55242SOL    HW267624   8.670   0.077   3.550
55243SOL     OW67625   1.750   7.200   5.740
55243SOL    HW167626   1.715   7.124   5.693
55243SOL    HW267627   1.767   7.168   5.828
55244SOL     OW67628   2.679   2.638   4.219
55244SOL    HW167629   2.760   2.587   4.221
55244SOL    HW267630   2.707   2.726   4.194
55245SOL     OW67631   5.462   4.294  11.721
55245SOL    HW167632   5.504   4.266  11.803
55245SOL    HW267633   5.518   4.257  11.652
55246SOL     OW67634   7.220  12.056   3.304
55246SOL    HW167635   7.260  12.122   3.361
55246SOL    HW267636   7.127  12.078   3.305
55247SOL     OW67637  12.046  11.302   4.197
55247SOL    HW167638  11.953  11.283   4.203
55247SOL    HW267639  12.080  11.236   4.136
55248SOL     OW67640   6.794  12.278   5.676
55248SOL    HW167641   6.841  12.207   5.633
55248SOL    HW267642   6.846  12.297   5.754
55249SOL     OW67643   8.520   4.670   9.135
55249SOL    HW167644   8.589   4.658   9.200
55249SOL    HW267645   8.503   4.765   9.135
55250SOL     OW67646   2.227   2.930   9.917
55250SOL    HW167647   2.178   2.943   9.999
55250SOL    HW267648   2.293   2.865   9.939
55251SOL     OW67649   1.926  13.098   5.797
55251SOL    HW167650   1.928  13.179   5.745
55251SOL    HW267651   1.943  13.029   5.733
55252SOL     OW67652   6.937  13.038  12.290
55252SOL    HW167653   6.930  12.945  12.270
55252SOL    HW267654   7.010  13.069  12.237
55253SOL     OW67655   0.762   1.057  14.647
55253SOL    HW167656   0.735   1.141  14.611
55253SOL    HW267657   0.686   1.027  14.697
55254SOL     OW67658  14.018  11.533   4.724
55254SOL    HW167659  13.995  11.490   4.642
55254SOL    HW267660  14.030  11.460   4.786
55255SOL     OW67661   7.136   9.217   6.174
55255SOL    HW167662   7.113   9.292   6.229
55255SOL    HW267663   7.205   9.171   6.223
55256SOL     OW67664   2.606   4.317  14.503
55256SOL    HW167665   2.613   4.221  14.510
55256SOL    HW267666   2.605   4.347  14.594
55257SOL     OW67667  11.228   6.333   8.511
55257SOL    HW167668  11.209   6.342   8.418
55257SOL    HW267669  11.269   6.247   8.518
55258SOL     OW67670   0.856   6.813  14.801
55258SOL    HW167671   0.834   6.815  14.708
55258SOL    HW267672   0.818   6.893  14.837
55259SOL     OW67673   6.123   1.015   9.478
55259SOL    HW167674   6.126   1.110   9.467
55259SOL    HW267675   6.083   0.983   9.397
55260SOL     OW67676   9.807   2.877  11.720
55260SOL    HW167677   9.839   2.924  11.797
55260SOL    HW267678   9.801   2.785  11.748
55261SOL     OW67679   5.508  12.756  12.431
55261SOL    HW167680   5.514  12.769  12.336
55261SOL    HW267681   5.591  12.715  12.455
55262SOL     OW67682  14.450   8.230  12.948
55262SOL    HW167683  14.385   8.218  13.018
55262SOL    HW267684  14.441   8.152  12.894
55263SOL     OW67685   3.622   9.453  12.862
55263SOL    HW167686   3.536   9.486  12.836
55263SOL    HW267687   3.681   9.486  12.794
55264SOL     OW67688  13.574  12.674  11.810
55264SOL    HW167689  13.619  12.740  11.757
55264SOL    HW267690  13.552  12.719  11.891
55265SOL     OW67691   1.019  14.553   4.787
55265SOL    HW167692   1.074  14.528   4.714
55265SOL    HW267693   1.016  14.476   4.844
55266SOL     OW67694   8.453   8.252  10.389
55266SOL    HW167695   8.410   8.167  10.381
55266SOL    HW267696   8.472   8.278  10.299
55267SOL     OW67697  12.787   4.514   8.790
55267SOL    HW167698  12.866   4.461   8.795
55267SOL    HW267699  12.784   4.561   8.873
55268SOL     OW67700   1.150   4.550  13.231
55268SOL    HW167701   1.097   4.565  13.153
55268SOL    HW267702   1.109   4.475  13.274
55269SOL     OW67703   0.760  11.250  10.261
55269SOL    HW167704   0.762  11.162  10.223
55269SOL    HW267705   0.805  11.305  10.197
55270SOL     OW67706   5.627   2.952   3.548
55270SOL    HW167707   5.645   2.881   3.610
55270SOL    HW267708   5.605   3.027   3.602
55271SOL     OW67709  13.518  12.914   7.725
55271SOL    HW167710  13.599  12.946   7.685
55271SOL    HW267711  13.498  12.978   7.793
55272SOL     OW67712   2.616  12.135  12.362
55272SOL    HW167713   2.609  12.053  12.411
55272SOL    HW267714   2.613  12.107  12.270
55273SOL     OW67715   6.411  12.901   1.310
55273SOL    HW167716   6.337  12.955   1.339
55273SOL    HW267717   6.450  12.868   1.391
55274SOL     OW67718   9.572   6.554   0.948
55274SOL    HW167719   9.614   6.530   1.031
55274SOL    HW267720   9.568   6.472   0.899
55275SOL     OW67721   1.735   3.145   6.827
55275SOL    HW167722   1.717   3.052   6.836
55275SOL    HW267723   1.707   3.184   6.909
55276SOL     OW67724   4.913  11.997  11.693
55276SOL    HW167725   4.909  11.938  11.768
55276SOL    HW267726   4.971  11.953  11.630
55277SOL     OW67727   9.567  13.423   2.566
55277SOL    HW167728   9.508  13.387   2.632
55277SOL    HW267729   9.648  13.372   2.576
55278SOL     OW67730   8.874   8.006  13.224
55278SOL    HW167731   8.858   7.912  13.220
55278SOL    HW267732   8.817   8.043  13.156
55279SOL     OW67733  10.480   5.034   4.605
55279SOL    HW167734  10.561   5.085   4.606
55279SOL    HW267735  10.446   5.042   4.694
55280SOL     OW67736   1.236  10.115  14.489
55280SOL    HW167737   1.267  10.181  14.551
55280SOL    HW267738   1.205  10.043  14.544
55281SOL     OW67739  13.354   6.271   2.959
55281SOL    HW167740  13.353   6.363   2.984
55281SOL    HW267741  13.446   6.247   2.961
55282SOL     OW67742   8.093   3.562  11.260
55282SOL    HW167743   8.064   3.646  11.224
55282SOL    HW267744   8.049   3.555  11.344
55283SOL     OW67745   6.773   8.679  14.608
55283SOL    HW167746   6.833   8.610  14.636
55283SOL    HW267747   6.691   8.659  14.652
55284SOL     OW67748   4.491   9.241   4.292
55284SOL    HW167749   4.558   9.178   4.320
55284SOL    HW267750   4.534   9.326   4.300
55285SOL     OW67751   2.187   1.173   7.374
55285SOL    HW167752   2.273   1.212   7.361
55285SOL    HW267753   2.175   1.114   7.301
55286SOL     OW67754   0.755   7.362   0.981
55286SOL    HW167755   0.830   7.420   0.986
55286SOL    HW267756   0.792   7.274   0.982
55287SOL     OW67757   2.140   4.943   3.285
55287SOL    HW167758   2.087   4.997   3.344
55287SOL    HW267759   2.229   4.975   3.297
55288SOL     OW67760  13.690  12.002   1.161
55288SOL    HW167761  13.664  12.093   1.146
55288SOL    HW267762  13.662  11.956   1.082
55289SOL     OW67763   5.269   3.228   9.871
55289SOL    HW167764   5.179   3.199   9.881
55289SOL    HW267765   5.271   3.271   9.785
55290SOL     OW67766   0.217   1.005   1.558
55290SOL    HW167767   0.180   0.920   1.580
55290SOL    HW267768   0.246   0.996   1.467
55291SOL     OW67769   1.546   3.681  10.960
55291SOL    HW167770   1.479   3.624  10.924
55291SOL    HW267771   1.609   3.622  11.000
55292SOL     OW67772  12.135   9.204   6.731
55292SOL    HW167773  12.142   9.261   6.807
55292SOL    HW267774  12.068   9.140   6.755
55293SOL     OW67775  11.803   7.903  14.186
55293SOL    HW167776  11.749   7.825  14.171
55293SOL    HW267777  11.743   7.976  14.175
55294SOL     OW67778   6.617   9.335   7.694
55294SOL    HW167779   6.577   9.415   7.661
55294SOL    HW267780   6.671   9.303   7.622
55295SOL     OW67781   8.336   8.173   9.227
55295SOL    HW167782   8.302   8.231   9.295
55295SOL    HW267783   8.383   8.230   9.167
55296SOL     OW67784  10.660   8.529  11.457
55296SOL    HW167785  10.752   8.533  11.430
55296SOL    HW267786  10.664   8.501  11.549
55297SOL     OW67787  13.012   7.356   6.515
55297SOL    HW167788  12.960   7.435   6.532
55297SOL    HW267789  13.103   7.383   6.530
55298SOL     OW67790   1.452  11.184   8.730
55298SOL    HW167791   1.465  11.116   8.796
55298SOL    HW267792   1.536  11.192   8.686
55299SOL     OW67793  13.638   2.672  11.104
55299SOL    HW167794  13.647   2.679  11.199
55299SOL    HW267795  13.572   2.603  11.092
55300SOL     OW67796   5.863   9.220   9.253
55300SOL    HW167797   5.954   9.241   9.234
55300SOL    HW267798   5.849   9.253   9.342
55301SOL     OW67799   0.455  10.193   5.201
55301SOL    HW167800   0.379  10.245   5.176
55301SOL    HW267801   0.463  10.128   5.131
55302SOL     OW67802  11.249  13.082  11.647
55302SOL    HW167803  11.274  13.124  11.729
55302SOL    HW267804  11.326  13.090  11.590
55303SOL     OW67805   7.191  13.454   9.219
55303SOL    HW167806   7.152  13.373   9.186
55303SOL    HW267807   7.284  13.444   9.202
55304SOL     OW67808   8.151  14.009   7.499
55304SOL    HW167809   8.116  13.920   7.488
55304SOL    HW267810   8.221  14.015   7.434
55305SOL     OW67811   1.115  12.265   0.305
55305SOL    HW167812   1.155  12.294   0.387
55305SOL    HW267813   1.027  12.238   0.329
55306SOL     OW67814   9.369   4.364  14.113
55306SOL    HW167815   9.412   4.360  14.199
55306SOL    HW267816   9.356   4.457  14.097
55307SOL     OW67817   9.296   3.890   6.939
55307SOL    HW167818   9.390   3.890   6.957
55307SOL    HW267819   9.277   3.980   6.912
55308SOL     OW67820  13.452   2.670  14.426
55308SOL    HW167821  13.362   2.651  14.400
55308SOL    HW267822  13.465   2.619  14.506
55309SOL     OW67823   7.213   9.667   9.568
55309SOL    HW167824   7.150   9.689   9.637
55309SOL    HW267825   7.267   9.598   9.607
55310SOL     OW67826   2.483   5.517   8.378
55310SOL    HW167827   2.567   5.539   8.338
55310SOL    HW267828   2.477   5.422   8.371
55311SOL     OW67829  14.589   0.438  14.811
55311SOL    HW167830  14.650   0.458  14.741
55311SOL    HW267831  14.617   0.492  14.884
55312SOL     OW67832  14.044   8.733   6.887
55312SOL    HW167833  14.042   8.654   6.834
55312SOL    HW267834  13.953   8.747   6.913
55313SOL     OW67835   0.715   0.056  13.124
55313SOL    HW167836   0.725  14.857  13.084
55313SOL    HW267837   0.666   0.039  13.204
55314SOL     OW67838   0.907  11.476   3.071
55314SOL    HW167839   0.934  11.517   3.153
55314SOL    HW267840   0.814  11.457   3.083
55315SOL     OW67841  11.917   7.573  13.223
55315SOL    HW167842  11.893   7.621  13.143
55315SOL    HW267843  12.013   7.578  13.226
55316SOL     OW67844  13.548  14.365   0.732
55316SOL    HW167845  13.590  14.443   0.696
55316SOL    HW267846  13.490  14.398   0.801
55317SOL     OW67847   5.122   8.368   7.966
55317SOL    HW167848   5.072   8.366   8.047
55317SOL    HW267849   5.213   8.358   7.994
55318SOL     OW67850  12.111  12.067   0.503
55318SOL    HW167851  12.155  11.987   0.473
55318SOL    HW267852  12.019  12.053   0.482
55319SOL     OW67853   1.705   0.962   4.613
55319SOL    HW167854   1.702   0.901   4.687
55319SOL    HW267855   1.614   0.988   4.600
55320SOL     OW67856   5.940   5.307   6.485
55320SOL    HW167857   6.001   5.333   6.554
55320SOL    HW267858   5.994   5.261   6.421
55321SOL     OW67859   3.182   1.276   0.061
55321SOL    HW167860   3.206   1.226   0.139
55321SOL    HW267861   3.086   1.271   0.058
55322SOL     OW67862   4.425   0.093  10.033
55322SOL    HW167863   4.438   0.184  10.007
55322SOL    HW267864   4.368   0.098  10.110
55323SOL     OW67865  14.505   2.383   6.181
55323SOL    HW167866  14.448   2.323   6.133
55323SOL    HW267867  14.553   2.327   6.242
55324SOL     OW67868   8.591  13.560  14.863
55324SOL    HW167869   8.589  13.464  14.862
55324SOL    HW267870   8.559  13.584   0.062
55325SOL     OW67871   7.886   5.645   0.953
55325SOL    HW167872   7.955   5.664   1.016
55325SOL    HW267873   7.910   5.695   0.875
55326SOL     OW67874   3.055   6.186   8.195
55326SOL    HW167875   3.037   6.119   8.129
55326SOL    HW267876   3.058   6.268   8.145
55327SOL     OW67877  11.212  10.143  12.856
55327SOL    HW167878  11.185  10.067  12.908
55327SOL    HW267879  11.307  10.134  12.848
55328SOL     OW67880   6.309   8.154   4.819
55328SOL    HW167881   6.287   8.161   4.726
55328SOL    HW267882   6.399   8.120   4.820
55329SOL     OW67883   4.640  10.696   7.029
55329SOL    HW167884   4.671  10.725   6.944
55329SOL    HW267885   4.547  10.676   7.015
55330SOL     OW67886   1.689   9.130   1.191
55330SOL    HW167887   1.618   9.066   1.196
55330SOL    HW267888   1.679   9.170   1.105
55331SOL     OW67889   3.345  10.965  13.321
55331SOL    HW167890   3.293  10.974  13.242
55331SOL    HW267891   3.325  10.878  13.355
55332SOL     OW67892   8.879   7.918   9.039
55332SOL    HW167893   8.808   7.963   9.084
55332SOL    HW267894   8.950   7.915   9.103
55333SOL     OW67895   1.801   5.323   0.199
55333SOL    HW167896   1.784   5.352   0.109
55333SOL    HW267897   1.735   5.256   0.216
55334SOL     OW67898   9.861  14.387   6.661
55334SOL    HW167899   9.838  14.420   6.748
55334SOL    HW267900   9.952  14.360   6.670
55335SOL     OW67901   0.810  10.369  13.156
55335SOL    HW167902   0.810  10.382  13.250
55335SOL    HW267903   0.750  10.435  13.122
55336SOL     OW67904   8.868   6.280  12.477
55336SOL    HW167905   8.905   6.350  12.423
55336SOL    HW267906   8.837   6.215  12.414
55337SOL     OW67907   2.214   3.559   4.127
55337SOL    HW167908   2.283   3.585   4.065
55337SOL    HW267909   2.234   3.609   4.206
55338SOL     OW67910  12.942  10.921  14.593
55338SOL    HW167911  12.877  10.937  14.661
55338SOL    HW267912  13.006  10.991  14.603
55339SOL     OW67913   3.982   5.293   2.600
55339SOL    HW167914   4.009   5.383   2.583
55339SOL    HW267915   3.913   5.301   2.667
55340SOL     OW67916  14.034   2.015   4.371
55340SOL    HW167917  13.993   1.929   4.377
55340SOL    HW267918  14.060   2.036   4.461
55341SOL     OW67919   5.630  10.751  10.901
55341SOL    HW167920   5.656  10.671  10.947
55341SOL    HW267921   5.560  10.788  10.954
55342SOL     OW67922  12.571   4.611   2.366
55342SOL    HW167923  12.638   4.616   2.435
55342SOL    HW267924  12.562   4.517   2.349
55343SOL     OW67925   3.734  14.766  10.341
55343SOL    HW167926   3.682  14.695  10.303
55343SOL    HW267927   3.802  14.784  10.276
55344SOL     OW67928  11.461   9.780  14.885
55344SOL    HW167929  11.380   9.764  14.836
55344SOL    HW267930  11.500   9.855  14.842
55345SOL     OW67931  11.643   8.103  11.056
55345SOL    HW167932  11.695   8.180  11.032
55345SOL    HW267933  11.619   8.118  11.147
55346SOL     OW67934   0.753   9.575   3.376
55346SOL    HW167935   0.752   9.516   3.300
55346SOL    HW267936   0.830   9.631   3.362
55347SOL     OW67937   1.268   8.506   6.786
55347SOL    HW167938   1.250   8.421   6.745
55347SOL    HW267939   1.194   8.561   6.760
55348SOL     OW67940  11.794   8.076  13.619
55348SOL    HW167941  11.872   8.082  13.674
55348SOL    HW267942  11.735   8.144  13.652
55349SOL     OW67943  12.549  14.402  13.770
55349SOL    HW167944  12.565  14.474  13.709
55349SOL    HW267945  12.458  14.377  13.755
55350SOL     OW67946   3.378   5.972   5.021
55350SOL    HW167947   3.340   5.991   4.935
55350SOL    HW267948   3.450   6.035   5.030
55351SOL     OW67949   9.914   8.485   5.874
55351SOL    HW167950   9.972   8.558   5.852
55351SOL    HW267951   9.920   8.426   5.799
55352SOL     OW67952  11.154  11.787   9.866
55352SOL    HW167953  11.105  11.868   9.877
55352SOL    HW267954  11.204  11.778   9.947
55353SOL     OW67955   8.506   7.977  13.873
55353SOL    HW167956   8.567   7.992  13.800
55353SOL    HW267957   8.547   7.907  13.924
55354SOL     OW67958  10.985   1.212  12.775
55354SOL    HW167959  10.979   1.303  12.804
55354SOL    HW267960  11.024   1.217  12.688
55355SOL     OW67961  10.328   8.991   0.273
55355SOL    HW167962  10.305   8.999   0.366
55355SOL    HW267963  10.400   8.928   0.272
55356SOL     OW67964   9.319   7.135  12.888
55356SOL    HW167965   9.295   7.194  12.959
55356SOL    HW267966   9.401   7.095  12.916
55357SOL     OW67967   2.773  14.118   8.855
55357SOL    HW167968   2.745  14.166   8.933
55357SOL    HW267969   2.836  14.054   8.887
55358SOL     OW67970  12.619  13.172  11.535
55358SOL    HW167971  12.623  13.109  11.607
55358SOL    HW267972  12.526  13.191  11.525
55359SOL     OW67973   4.154  13.591   9.136
55359SOL    HW167974   4.070  13.554   9.162
55359SOL    HW267975   4.154  13.679   9.175
55360SOL     OW67976   0.526   4.357   5.710
55360SOL    HW167977   0.618   4.329   5.712
55360SOL    HW267978   0.490   4.313   5.633
55361SOL     OW67979   4.564  10.450   5.462
55361SOL    HW167980   4.589  10.542   5.450
55361SOL    HW267981   4.621  10.418   5.532
55362SOL     OW67982   3.072   7.319   7.729
55362SOL    HW167983   2.989   7.345   7.770
55362SOL    HW267984   3.127   7.292   7.803
55363SOL     OW67985  14.662   9.371  11.995
55363SOL    HW167986  14.680   9.306  11.927
55363SOL    HW267987  14.695   9.454  11.959
55364SOL     OW67988   4.784  14.650   9.359
55364SOL    HW167989   4.773  14.646   9.454
55364SOL    HW267990   4.725  14.583   9.325
55365SOL     OW67991  10.037  12.575   2.145
55365SOL    HW167992   9.967  12.510   2.154
55365SOL    HW267993  10.085  12.547   2.067
55366SOL     OW67994   8.038  11.216   1.680
55366SOL    HW167995   8.080  11.258   1.754
55366SOL    HW267996   7.990  11.286   1.636
55367SOL     OW67997  10.521   3.796   1.620
55367SOL    HW167998  10.451   3.752   1.669
55367SOL    HW267999  10.485   3.808   1.532
55368SOL     OW68000   2.420   6.970  11.639
55368SOL    HW168001   2.338   7.012  11.613
55368SOL    HW268002   2.399   6.927  11.722
55369SOL     OW68003   0.383   6.938   3.659
55369SOL    HW168004   0.473   6.961   3.636
55369SOL    HW268005   0.330   6.979   3.590
55370SOL     OW68006   5.682   5.524   1.203
55370SOL    HW168007   5.649   5.530   1.113
55370SOL    HW268008   5.750   5.592   1.207
55371SOL     OW68009   3.649   0.569   9.568
55371SOL    HW168010   3.626   0.493   9.515
55371SOL    HW268011   3.745   0.576   9.560
55372SOL     OW68012   1.092  10.122   6.189
55372SOL    HW168013   1.160  10.068   6.150
55372SOL    HW268014   1.123  10.212   6.179
55373SOL     OW68015   0.707  12.015   9.716
55373SOL    HW168016   0.701  12.111   9.710
55373SOL    HW268017   0.707  11.997   9.810
55374SOL     OW68018   9.786   4.121   0.938
55374SOL    HW168019   9.815   4.062   1.008
55374SOL    HW268020   9.862   4.175   0.918
55375SOL     OW68021  12.829   2.987   0.347
55375SOL    HW168022  12.772   3.063   0.356
55375SOL    HW268023  12.905   3.019   0.299
55376SOL     OW68024   1.178   0.912   1.661
55376SOL    HW168025   1.102   0.901   1.603
55376SOL    HW268026   1.143   0.956   1.738
55377SOL     OW68027   0.139   0.248   0.609
55377SOL    HW168028   0.056   0.285   0.579
55377SOL    HW268029   0.137   0.257   0.704
55378SOL     OW68030   7.643   3.371   5.352
55378SOL    HW168031   7.630   3.371   5.447
55378SOL    HW268032   7.587   3.299   5.321
55379SOL     OW68033   8.625   9.680   7.119
55379SOL    HW168034   8.707   9.665   7.166
55379SOL    HW268035   8.620   9.609   7.055
55380SOL     OW68036   2.514  11.037   8.973
55380SOL    HW168037   2.600  11.030   8.932
55380SOL    HW268038   2.490  10.947   8.994
55381SOL     OW68039   8.555   8.480  12.441
55381SOL    HW168040   8.585   8.527  12.363
55381SOL    HW268041   8.527   8.549  12.501
55382SOL     OW68042  11.478   5.128   0.760
55382SOL    HW168043  11.428   5.079   0.694
55382SOL    HW268044  11.536   5.063   0.799
55383SOL     OW68045  12.537   5.085   6.317
55383SOL    HW168046  12.459   5.137   6.336
55383SOL    HW268047  12.556   5.039   6.398
55384SOL     OW68048  11.512  11.986   0.110
55384SOL    HW168049  11.564  12.039   0.171
55384SOL    HW268050  11.562  11.905   0.101
55385SOL     OW68051   1.744   2.440   7.948
55385SOL    HW168052   1.762   2.365   8.006
55385SOL    HW268053   1.653   2.464   7.969
55386SOL     OW68054   2.018   1.695   3.251
55386SOL    HW168055   2.058   1.781   3.241
55386SOL    HW268056   1.954   1.706   3.322
55387SOL     OW68057   6.501   9.242   4.411
55387SOL    HW168058   6.453   9.178   4.464
55387SOL    HW268059   6.454   9.324   4.425
55388SOL     OW68060   3.849   8.629  13.857
55388SOL    HW168061   3.843   8.703  13.797
55388SOL    HW268062   3.809   8.556  13.810
55389SOL     OW68063  14.754   1.347  12.551
55389SOL    HW168064  14.799   1.265  12.533
55389SOL    HW268065  14.661   1.324  12.555
55390SOL     OW68066   5.017  13.348   7.501
55390SOL    HW168067   4.970  13.416   7.548
55390SOL    HW268068   5.064  13.394   7.431
55391SOL     OW68069   9.658   9.353   3.939
55391SOL    HW168070   9.630   9.418   4.004
55391SOL    HW268071   9.595   9.362   3.867
55392SOL     OW68072   8.429   9.639   6.349
55392SOL    HW168073   8.379   9.570   6.306
55392SOL    HW268074   8.489   9.672   6.282
55393SOL     OW68075   1.923  12.828   3.534
55393SOL    HW168076   2.009  12.786   3.536
55393SOL    HW268077   1.942  12.921   3.516
55394SOL     OW68078  14.368   1.856   3.124
55394SOL    HW168079  14.423   1.779   3.140
55394SOL    HW268080  14.411   1.926   3.173
55395SOL     OW68081  14.556   1.721   4.471
55395SOL    HW168082  14.483   1.770   4.509
55395SOL    HW268083  14.530   1.705   4.380
55396SOL     OW68084   1.688   4.561   6.136
55396SOL    HW168085   1.637   4.591   6.211
55396SOL    HW268086   1.779   4.564   6.165
55397SOL     OW68087  10.359   5.116   4.070
55397SOL    HW168088  10.453   5.103   4.054
55397SOL    HW268089  10.349   5.211   4.072
55398SOL     OW68090  13.482  12.599   6.230
55398SOL    HW168091  13.460  12.569   6.142
55398SOL    HW268092  13.411  12.659   6.254
55399SOL     OW68093   5.373  10.733  10.543
55399SOL    HW168094   5.284  10.765  10.526
55399SOL    HW268095   5.429  10.791  10.492
55400SOL     OW68096   0.643   3.593  11.889
55400SOL    HW168097   0.627   3.687  11.898
55400SOL    HW268098   0.735   3.581  11.912
55401SOL     OW68099   5.541   5.436   1.413
55401SOL    HW168100   5.603   5.461   1.345
55401SOL    HW268101   5.595   5.391   1.479
55402SOL     OW68102  11.967  14.626   9.822
55402SOL    HW168103  11.899  14.689   9.848
55402SOL    HW268104  11.918  14.551   9.790
55403SOL     OW68105   3.169   3.488   5.611
55403SOL    HW168106   3.123   3.540   5.545
55403SOL    HW268107   3.259   3.482   5.577
55404SOL     OW68108   4.935  14.307   0.305
55404SOL    HW168109   4.869  14.252   0.347
55404SOL    HW268110   5.015  14.294   0.355
55405SOL     OW68111  13.337  12.241  12.906
55405SOL    HW168112  13.358  12.166  12.851
55405SOL    HW268113  13.346  12.209  12.996
55406SOL     OW68114   7.384   9.114   9.839
55406SOL    HW168115   7.476   9.142   9.834
55406SOL    HW268116   7.354   9.144   9.924
55407SOL     OW68117   2.012  13.697   8.333
55407SOL    HW168118   2.099  13.674   8.365
55407SOL    HW268119   2.024  13.782   8.290
55408SOL     OW68120  13.093   2.624   2.550
55408SOL    HW168121  13.182   2.626   2.513
55408SOL    HW268122  13.037   2.654   2.479
55409SOL     OW68123  10.653   9.759   6.276
55409SOL    HW168124  10.635   9.678   6.323
55409SOL    HW268125  10.579   9.816   6.297
55410SOL     OW68126  14.114   8.119   4.347
55410SOL    HW168127  14.074   8.068   4.418
55410SOL    HW268128  14.116   8.208   4.381
55411SOL     OW68129  11.925   5.737   1.870
55411SOL    HW168130  11.944   5.670   1.935
55411SOL    HW268131  11.923   5.690   1.786
55412SOL     OW68132  13.236  10.421  10.045
55412SOL    HW168133  13.175  10.450  10.113
55412SOL    HW268134  13.306  10.377  10.092
55413SOL     OW68135   0.970   8.294  14.523
55413SOL    HW168136   1.060   8.291  14.556
55413SOL    HW268137   0.975   8.343  14.442
55414SOL     OW68138  11.587   9.203   7.161
55414SOL    HW168139  11.528   9.162   7.225
55414SOL    HW268140  11.650   9.134   7.140
55415SOL     OW68141   6.604   9.226   9.960
55415SOL    HW168142   6.652   9.187  10.034
55415SOL    HW268143   6.672   9.259   9.902
55416SOL     OW68144  13.534  13.692  11.806
55416SOL    HW168145  13.488  13.614  11.776
55416SOL    HW268146  13.563  13.735  11.725
55417SOL     OW68147   9.671  13.061   4.134
55417SOL    HW168148   9.657  13.036   4.225
55417SOL    HW268149   9.620  13.141   4.123
55418SOL     OW68150  14.623   0.285   9.476
55418SOL    HW168151  14.601   0.297   9.384
55418SOL    HW268152  14.641   0.191   9.484
55419SOL     OW68153   4.950  13.146   6.735
55419SOL    HW168154   4.860  13.178   6.739
55419SOL    HW268155   5.004  13.224   6.752
55420SOL     OW68156   0.627   9.105  13.166
55420SOL    HW168157   0.640   9.121  13.259
55420SOL    HW268158   0.714   9.120  13.127
55421SOL     OW68159   6.968  11.381   9.555
55421SOL    HW168160   7.036  11.446   9.533
55421SOL    HW268161   6.993  11.303   9.506
55422SOL     OW68162   8.501   1.205   6.044
55422SOL    HW168163   8.581   1.168   6.007
55422SOL    HW268164   8.485   1.153   6.123
55423SOL     OW68165   4.789  12.650  12.693
55423SOL    HW168166   4.733  12.728  12.692
55423SOL    HW268167   4.876  12.682  12.668
55424SOL     OW68168  12.113   9.498   8.248
55424SOL    HW168169  12.075   9.442   8.316
55424SOL    HW268170  12.074   9.584   8.264
55425SOL     OW68171   8.801   8.552   3.969
55425SOL    HW168172   8.784   8.644   3.990
55425SOL    HW268173   8.776   8.504   4.047
55426SOL     OW68174  11.031   9.948  12.604
55426SOL    HW168175  11.061  10.009  12.536
55426SOL    HW268176  10.960   9.899  12.562
55427SOL     OW68177  11.952   2.786   9.187
55427SOL    HW168178  11.912   2.699   9.179
55427SOL    HW268179  12.007   2.794   9.110
55428SOL     OW68180   9.439  10.035   8.159
55428SOL    HW168181   9.488  10.017   8.240
55428SOL    HW268182   9.505  10.031   8.090
55429SOL     OW68183   2.084   4.323   0.968
55429SOL    HW168184   2.095   4.267   1.046
55429SOL    HW268185   2.108   4.266   0.895
55430SOL     OW68186   8.693   2.510   3.927
55430SOL    HW168187   8.653   2.509   3.840
55430SOL    HW268188   8.786   2.530   3.911
55431SOL     OW68189   8.110   7.947   5.125
55431SOL    HW168190   8.182   7.978   5.069
55431SOL    HW268191   8.044   8.016   5.117
55432SOL     OW68192   8.737  12.980   7.685
55432SOL    HW168193   8.729  12.977   7.780
55432SOL    HW268194   8.647  12.979   7.653
55433SOL     OW68195   2.480   3.938  10.103
55433SOL    HW168196   2.541   3.880  10.058
55433SOL    HW268197   2.395   3.920  10.062
55434SOL     OW68198   6.355  14.418   7.175
55434SOL    HW168199   6.275  14.427   7.227
55434SOL    HW268200   6.329  14.364   7.101
55435SOL     OW68201   3.337   9.127  10.237
55435SOL    HW168202   3.364   9.090  10.321
55435SOL    HW268203   3.369   9.065  10.171
55436SOL     OW68204   4.745   0.042   4.222
55436SOL    HW168205   4.666   0.094   4.236
55436SOL    HW268206   4.742  14.863   4.291
55437SOL     OW68207   8.944   1.041   8.011
55437SOL    HW168208   9.035   1.066   8.029
55437SOL    HW268209   8.939   1.036   7.916
55438SOL     OW68210   5.499   1.920  12.567
55438SOL    HW168211   5.503   1.846  12.627
55438SOL    HW268212   5.466   1.992  12.621
55439SOL     OW68213   6.821  13.075   8.328
55439SOL    HW168214   6.897  13.048   8.379
55439SOL    HW268215   6.852  13.148   8.275
55440SOL     OW68216   2.996  10.782  10.473
55440SOL    HW168217   3.031  10.856  10.424
55440SOL    HW268218   3.015  10.705  10.419
55441SOL     OW68219   4.766  10.256   5.382
55441SOL    HW168220   4.773  10.190   5.452
55441SOL    HW268221   4.694  10.313   5.409
55442SOL     OW68222   6.293   8.398  10.081
55442SOL    HW168223   6.259   8.487  10.088
55442SOL    HW268224   6.217   8.344  10.062
55443SOL     OW68225  13.039   1.157   4.133
55443SOL    HW168226  13.111   1.130   4.076
55443SOL    HW268227  12.991   1.076   4.151
55444SOL     OW68228   4.851   9.515   0.058
55444SOL    HW168229   4.829   9.449  14.881
55444SOL    HW268230   4.864   9.595   0.007
55445SOL     OW68231   4.108   8.669   4.677
55445SOL    HW168232   4.202   8.652   4.680
55445SOL    HW268233   4.071   8.595   4.629
55446SOL     OW68234   1.928   2.667  13.496
55446SOL    HW168235   1.938   2.743  13.439
55446SOL    HW268236   2.001   2.609  13.471
55447SOL     OW68237   1.177  10.099   1.768
55447SOL    HW168238   1.142  10.022   1.723
55447SOL    HW268239   1.129  10.102   1.851
55448SOL     OW68240   0.036   7.743   2.900
55448SOL    HW168241   0.049   7.832   2.933
55448SOL    HW268242  14.870   7.700   2.967
55449SOL     OW68243   4.420  13.505   9.797
55449SOL    HW168244   4.468  13.498   9.714
55449SOL    HW268245   4.410  13.599   9.811
55450SOL     OW68246   4.978  13.285   3.745
55450SOL    HW168247   4.882  13.287   3.738
55450SOL    HW268248   5.006  13.368   3.707
55451SOL     OW68249  11.798   5.941  10.309
55451SOL    HW168250  11.801   5.866  10.250
55451SOL    HW268251  11.740   5.913  10.380
55452SOL     OW68252   6.933   6.845  13.844
55452SOL    HW168253   6.973   6.758  13.837
55452SOL    HW268254   6.985   6.900  13.786
55453SOL     OW68255   4.630   1.267   3.106
55453SOL    HW168256   4.558   1.330   3.101
55453SOL    HW268257   4.705   1.318   3.136
55454SOL     OW68258   7.334   9.370   1.325
55454SOL    HW168259   7.328   9.450   1.378
55454SOL    HW268260   7.422   9.372   1.288
55455SOL     OW68261   6.771  13.225   3.184
55455SOL    HW168262   6.861  13.237   3.215
55455SOL    HW268263   6.757  13.130   3.185
55456SOL     OW68264  11.828   6.734   4.386
55456SOL    HW168265  11.824   6.716   4.480
55456SOL    HW268266  11.887   6.667   4.351
55457SOL     OW68267  10.142  12.816   4.480
55457SOL    HW168268  10.190  12.761   4.419
55457SOL    HW268269  10.166  12.783   4.566
55458SOL     OW68270  12.352   6.812   7.016
55458SOL    HW168271  12.420   6.833   7.080
55458SOL    HW268272  12.279   6.870   7.037
55459SOL     OW68273   8.603   2.977   5.640
55459SOL    HW168274   8.553   2.938   5.569
55459SOL    HW268275   8.659   2.907   5.673
55460SOL     OW68276   6.968   3.370   8.285
55460SOL    HW168277   6.920   3.395   8.206
55460SOL    HW268278   7.060   3.369   8.259
55461SOL     OW68279   9.104   3.648  13.062
55461SOL    HW168280   9.096   3.589  12.987
55461SOL    HW268281   9.197   3.667  13.068
55462SOL     OW68282  13.065   0.620   6.303
55462SOL    HW168283  13.098   0.709   6.314
55462SOL    HW268284  13.061   0.608   6.208
55463SOL     OW68285   0.002  12.961   0.134
55463SOL    HW168286  14.833  13.004   0.199
55463SOL    HW268287  14.850  12.983   0.050
55464SOL     OW68288  14.638   7.241   0.899
55464SOL    HW168289  14.559   7.224   0.951
55464SOL    HW268290  14.710   7.225   0.960
55465SOL     OW68291   2.513   3.070   8.405
55465SOL    HW168292   2.530   3.164   8.416
55465SOL    HW268293   2.593   3.036   8.367
55466SOL     OW68294   9.616   9.533  14.886
55466SOL    HW168295   9.655   9.458  14.842
55466SOL    HW268296   9.539   9.498   0.043
55467SOL     OW68297   1.287   0.916   8.781
55467SOL    HW168298   1.259   1.000   8.817
55467SOL    HW268299   1.248   0.913   8.693
55468SOL     OW68300  13.045   9.264  12.750
55468SOL    HW168301  13.126   9.214  12.758
55468SOL    HW268302  13.059   9.342  12.804
55469SOL     OW68303  12.217   8.636   5.663
55469SOL    HW168304  12.215   8.696   5.589
55469SOL    HW268305  12.310   8.614   5.674
55470SOL     OW68306  13.242  10.629  11.988
55470SOL    HW168307  13.334  10.605  11.983
55470SOL    HW268308  13.238  10.717  11.951
55471SOL     OW68309  10.276   4.109   1.238
55471SOL    HW168310  10.250   4.184   1.185
55471SOL    HW268311  10.360   4.080   1.201
55472SOL     OW68312   1.910   0.719   3.918
55472SOL    HW168313   1.876   0.737   4.006
55472SOL    HW268314   1.853   0.769   3.859
55473SOL     OW68315   6.793   7.742   1.146
55473SOL    HW168316   6.772   7.655   1.179
55473SOL    HW268317   6.709   7.783   1.129
55474SOL     OW68318   6.568  11.196   1.906
55474SOL    HW168319   6.474  11.178   1.914
55474SOL    HW268320   6.574  11.291   1.920
55475SOL     OW68321   7.048  11.737  13.972
55475SOL    HW168322   7.005  11.821  13.987
55475SOL    HW268323   7.129  11.742  14.022
55476SOL     OW68324  14.885  12.518  12.493
55476SOL    HW168325  14.828  12.594  12.510
55476SOL    HW268326   0.079  12.557  12.462
55477SOL     OW68327   8.524   6.342   8.026
55477SOL    HW168328   8.489   6.290   8.098
55477SOL    HW268329   8.511   6.433   8.053
55478SOL     OW68330   3.153  10.457   6.665
55478SOL    HW168331   3.115  10.371   6.681
55478SOL    HW268332   3.127  10.509   6.740
55479SOL     OW68333   2.979   1.819   5.143
55479SOL    HW168334   2.894   1.787   5.173
55479SOL    HW268335   3.022   1.741   5.108
55480SOL     OW68336   9.518   0.119   8.094
55480SOL    HW168337   9.474   0.173   8.028
55480SOL    HW268338   9.609   0.116   8.064
55481SOL     OW68339   3.576  10.025  14.781
55481SOL    HW168340   3.519  10.062  14.848
55481SOL    HW268341   3.529   9.948  14.749
55482SOL     OW68342   6.795  11.818   4.960
55482SOL    HW168343   6.798  11.825   4.865
55482SOL    HW268344   6.864  11.755   4.981
55483SOL     OW68345  13.151   8.971   7.110
55483SOL    HW168346  13.235   8.946   7.071
55483SOL    HW268347  13.166   8.966   7.204
55484SOL     OW68348   3.933   5.314   5.969
55484SOL    HW168349   3.934   5.224   6.000
55484SOL    HW268350   3.907   5.366   6.045
55485SOL     OW68351  13.517  10.996   1.863
55485SOL    HW168352  13.573  11.072   1.881
55485SOL    HW268353  13.504  10.956   1.949
55486SOL     OW68354   8.212   4.855  10.902
55486SOL    HW168355   8.148   4.825  10.966
55486SOL    HW268356   8.196   4.949  10.894
55487SOL     OW68357   7.338  14.593  14.451
55487SOL    HW168358   7.317  14.686  14.449
55487SOL    HW268359   7.286  14.556  14.379
55488SOL     OW68360   9.154  11.177   9.812
55488SOL    HW168361   9.134  11.259   9.767
55488SOL    HW268362   9.092  11.114   9.775
55489SOL     OW68363  14.834   7.351   5.548
55489SOL    HW168364  14.852   7.445   5.542
55489SOL    HW268365  14.887   7.311   5.479
55490SOL     OW68366  14.185  14.486   5.454
55490SOL    HW168367  14.228  14.560   5.411
55490SOL    HW268368  14.194  14.503   5.547
55491SOL     OW68369  14.325   0.423  10.873
55491SOL    HW168370  14.267   0.385  10.939
55491SOL    HW268371  14.348   0.349  10.816
55492SOL     OW68372  11.032  12.282   5.814
55492SOL    HW168373  11.084  12.201   5.809
55492SOL    HW268374  11.076  12.342   5.755
55493SOL     OW68375  12.673   6.115  11.451
55493SOL    HW168376  12.657   6.038  11.397
55493SOL    HW268377  12.731   6.170  11.398
55494SOL     OW68378  14.861  10.232   8.206
55494SOL    HW168379  14.833  10.318   8.238
55494SOL    HW268380  14.881  10.183   8.286
55495SOL     OW68381   6.148   7.766  10.329
55495SOL    HW168382   6.213   7.739  10.394
55495SOL    HW268383   6.099   7.686  10.310
55496SOL     OW68384   2.302  13.384  13.402
55496SOL    HW168385   2.272  13.328  13.473
55496SOL    HW268386   2.288  13.473  13.434
55497SOL     OW68387   6.503   5.924  10.315
55497SOL    HW168388   6.490   6.019  10.312
55497SOL    HW268389   6.596   5.912  10.297
55498SOL     OW68390   2.787   9.781   4.879
55498SOL    HW168391   2.882   9.791   4.875
55498SOL    HW268392   2.773   9.687   4.889
55499SOL     OW68393  11.423   4.992   7.207
55499SOL    HW168394  11.486   5.055   7.243
55499SOL    HW268395  11.476   4.917   7.180
55500SOL     OW68396  14.803   2.804  12.130
55500SOL    HW168397  14.797   2.803  12.225
55500SOL    HW268398  14.835   2.717  12.106
55501SOL     OW68399   5.452   6.724  10.704
55501SOL    HW168400   5.366   6.738  10.664
55501SOL    HW268401   5.443   6.644  10.754
55502SOL     OW68402   5.931   2.861   5.522
55502SOL    HW168403   5.870   2.924   5.483
55502SOL    HW268404   5.986   2.914   5.580
55503SOL     OW68405   7.700   5.087   4.522
55503SOL    HW168406   7.662   5.023   4.581
55503SOL    HW268407   7.729   5.159   4.579
55504SOL     OW68408   7.399  10.483   2.691
55504SOL    HW168409   7.393  10.508   2.599
55504SOL    HW268410   7.324  10.526   2.733
55505SOL     OW68411  11.959   8.844   7.561
55505SOL    HW168412  12.004   8.760   7.567
55505SOL    HW268413  12.029   8.910   7.565
55506SOL     OW68414   4.930   0.452  12.220
55506SOL    HW168415   4.927   0.546  12.237
55506SOL    HW268416   5.023   0.431  12.213
55507SOL     OW68417  13.993  12.633  13.032
55507SOL    HW168418  14.019  12.614  12.942
55507SOL    HW268419  14.075  12.652  13.077
55508SOL     OW68420   8.862   2.533   4.449
55508SOL    HW168421   8.783   2.576   4.482
55508SOL    HW268422   8.880   2.577   4.365
55509SOL     OW68423   9.273   1.357   6.648
55509SOL    HW168424   9.301   1.266   6.650
55509SOL    HW268425   9.294   1.391   6.735
55510SOL     OW68426  14.071  14.140   4.959
55510SOL    HW168427  14.101  14.230   4.947
55510SOL    HW268428  14.057  14.132   5.054
55511SOL     OW68429   2.946   9.274   3.790
55511SOL    HW168430   2.857   9.295   3.764
55511SOL    HW268431   2.937   9.199   3.848
55512SOL     OW68432   5.665  11.355  12.674
55512SOL    HW168433   5.606  11.366  12.600
55512SOL    HW268434   5.706  11.270  12.660
55513SOL     OW68435   3.680   7.929   1.175
55513SOL    HW168436   3.744   7.867   1.141
55513SOL    HW268437   3.595   7.893   1.150
55514SOL     OW68438   0.488   8.677   4.717
55514SOL    HW168439   0.564   8.629   4.750
55514SOL    HW268440   0.496   8.671   4.621
55515SOL     OW68441   4.281   5.839   6.762
55515SOL    HW168442   4.351   5.776   6.780
55515SOL    HW268443   4.203   5.801   6.800
55516SOL     OW68444   2.897   5.328  10.927
55516SOL    HW168445   2.885   5.245  10.882
55516SOL    HW268446   2.829   5.329  10.994
55517SOL     OW68447   5.426  13.824   3.364
55517SOL    HW168448   5.358  13.859   3.306
55517SOL    HW268449   5.432  13.888   3.434
55518SOL     OW68450  11.341   4.121   4.274
55518SOL    HW168451  11.270   4.057   4.262
55518SOL    HW268452  11.315   4.196   4.220
55519SOL     OW68453   1.409  13.088  14.392
55519SOL    HW168454   1.493  13.133  14.383
55519SOL    HW268455   1.425  13.000  14.360
55520SOL     OW68456   3.404   9.336  14.290
55520SOL    HW168457   3.312   9.358  14.307
55520SOL    HW268458   3.406   9.314  14.197
55521SOL     OW68459  13.180   1.790  13.586
55521SOL    HW168460  13.181   1.816  13.678
55521SOL    HW268461  13.145   1.866  13.540
55522SOL     OW68462   9.942  12.422   9.266
55522SOL    HW168463   9.904  12.472   9.194
55522SOL    HW268464   9.925  12.475   9.344
55523SOL     OW68465   7.533  12.183   2.120
55523SOL    HW168466   7.482  12.233   2.184
55523SOL    HW268467   7.469  12.125   2.080
55524SOL     OW68468   9.903   6.721   7.116
55524SOL    HW168469   9.882   6.799   7.064
55524SOL    HW268470   9.891   6.648   7.056
55525SOL     OW68471  11.154   4.526   8.742
55525SOL    HW168472  11.112   4.478   8.671
55525SOL    HW268473  11.082   4.556   8.797
55526SOL     OW68474  12.642  11.498   2.789
55526SOL    HW168475  12.578  11.482   2.858
55526SOL    HW268476  12.713  11.546   2.833
55527SOL     OW68477  13.139  12.219   8.973
55527SOL    HW168478  13.127  12.138   9.023
55527SOL    HW268479  13.063  12.273   8.996
55528SOL     OW68480   7.601  11.636   7.898
55528SOL    HW168481   7.529  11.693   7.873
55528SOL    HW268482   7.656  11.689   7.956
55529SOL     OW68483   3.319  12.082   2.320
55529SOL    HW168484   3.242  12.094   2.375
55529SOL    HW268485   3.383  12.144   2.354
55530SOL     OW68486  14.328   2.803   7.969
55530SOL    HW168487  14.315   2.735   7.903
55530SOL    HW268488  14.269   2.874   7.942
55531SOL     OW68489   0.227   7.807  11.038
55531SOL    HW168490   0.322   7.810  11.029
55531SOL    HW268491   0.211   7.734  11.098
55532SOL     OW68492  13.953   5.354   5.296
55532SOL    HW168493  13.961   5.432   5.352
55532SOL    HW268494  13.875   5.309   5.327
55533SOL     OW68495   7.483   7.310   8.677
55533SOL    HW168496   7.414   7.263   8.630
55533SOL    HW268497   7.512   7.250   8.745
55534SOL     OW68498  11.373   3.286   4.641
55534SOL    HW168499  11.334   3.309   4.557
55534SOL    HW268500  11.315   3.327   4.706
55535SOL     OW68501   0.523   6.910  11.840
55535SOL    HW168502   0.557   6.946  11.922
55535SOL    HW268503   0.530   6.982  11.778
55536SOL     OW68504   1.902  14.551  14.393
55536SOL    HW168505   1.840  14.498  14.443
55536SOL    HW268506   1.872  14.545  14.302
55537SOL     OW68507   0.616   8.067   9.642
55537SOL    HW168508   0.548   8.090   9.579
55537SOL    HW268509   0.645   7.979   9.615
55538SOL     OW68510   8.089  10.502   7.704
55538SOL    HW168511   8.105  10.495   7.609
55538SOL    HW268512   8.176  10.513   7.742
55539SOL     OW68513   6.460   7.993   5.084
55539SOL    HW168514   6.423   7.959   5.003
55539SOL    HW268515   6.516   8.065   5.056
55540SOL     OW68516  12.539   8.268   4.601
55540SOL    HW168517  12.623   8.225   4.616
55540SOL    HW268518  12.562   8.355   4.570
55541SOL     OW68519   7.990   0.872   8.811
55541SOL    HW168520   7.981   0.778   8.826
55541SOL    HW268521   8.080   0.893   8.839
55542SOL     OW68522   8.067   2.938   0.664
55542SOL    HW168523   8.081   2.932   0.569
55542SOL    HW268524   8.134   2.882   0.702
55543SOL     OW68525   3.269   4.116  10.188
55543SOL    HW168526   3.200   4.060  10.153
55543SOL    HW268527   3.232   4.151  10.269
55544SOL     OW68528   3.582  11.677   3.714
55544SOL    HW168529   3.632  11.749   3.753
55544SOL    HW268530   3.625  11.661   3.630
55545SOL     OW68531  13.919  14.461  13.873
55545SOL    HW168532  13.852  14.527  13.855
55545SOL    HW268533  13.888  14.383  13.827
55546SOL     OW68534   7.802  12.406   2.620
55546SOL    HW168535   7.887  12.376   2.586
55546SOL    HW268536   7.777  12.340   2.684
55547SOL     OW68537   1.279   0.709  11.022
55547SOL    HW168538   1.211   0.642  11.021
55547SOL    HW268539   1.268   0.753  11.107
55548SOL     OW68540   1.604   5.504   4.016
55548SOL    HW168541   1.605   5.441   4.089
55548SOL    HW268542   1.554   5.578   4.050
55549SOL     OW68543   8.469  14.817   6.151
55549SOL    HW168544   8.438  14.882   6.214
55549SOL    HW268545   8.551  14.786   6.189
55550SOL     OW68546   6.646   1.875   2.173
55550SOL    HW168547   6.615   1.866   2.263
55550SOL    HW268548   6.598   1.808   2.124
55551SOL     OW68549   9.296   3.788  12.796
55551SOL    HW168550   9.280   3.882  12.793
55551SOL    HW268551   9.211   3.748  12.779
55552SOL     OW68552   5.569   9.613   8.804
55552SOL    HW168553   5.635   9.545   8.794
55552SOL    HW268554   5.552   9.617   8.898
55553SOL     OW68555   8.469   4.526  10.609
55553SOL    HW168556   8.383   4.497  10.581
55553SOL    HW268557   8.454   4.570  10.693
55554SOL     OW68558  13.985   1.815   2.309
55554SOL    HW168559  14.018   1.728   2.331
55554SOL    HW268560  13.918   1.833   2.375
55555SOL     OW68561   7.364   1.019  12.226
55555SOL    HW168562   7.457   1.025  12.201
55555SOL    HW268563   7.366   0.995  12.319
55556SOL     OW68564   9.598  14.627  13.832
55556SOL    HW168565   9.520  14.675  13.806
55556SOL    HW268566   9.570  14.535  13.834
55557SOL     OW68567   1.650   6.538  11.324
55557SOL    HW168568   1.624   6.517  11.414
55557SOL    HW268569   1.678   6.455  11.287
55558SOL     OW68570   2.464   9.901   7.889
55558SOL    HW168571   2.422   9.816   7.873
55558SOL    HW268572   2.510   9.890   7.972
55559SOL     OW68573   1.815   1.486  13.882
55559SOL    HW168574   1.887   1.512  13.824
55559SOL    HW268575   1.858   1.444  13.956
55560SOL     OW68576   3.515   0.005  12.923
55560SOL    HW168577   3.609  14.882  12.903
55560SOL    HW268578   3.492  14.814  12.972
55561SOL     OW68579  10.111   0.150  10.932
55561SOL    HW168580  10.168   0.106  10.996
55561SOL    HW268581  10.118   0.243  10.953
55562SOL     OW68582   9.587   2.592  10.546
55562SOL    HW168583   9.509   2.537  10.542
55562SOL    HW268584   9.652   2.539  10.591
55563SOL     OW68585  12.918   7.457   3.809
55563SOL    HW168586  12.825   7.474   3.823
55563SOL    HW268587  12.948   7.532   3.757
55564SOL     OW68588   7.935   5.085   7.781
55564SOL    HW168589   7.897   5.085   7.693
55564SOL    HW268590   7.916   4.998   7.815
55565SOL     OW68591   3.162   5.582   5.891
55565SOL    HW168592   3.215   5.662   5.891
55565SOL    HW268593   3.120   5.581   5.977
55566SOL     OW68594   1.101  14.359   4.959
55566SOL    HW168595   1.041  14.394   5.025
55566SOL    HW268596   1.168  14.313   5.009
55567SOL     OW68597   6.712   0.566  14.202
55567SOL    HW168598   6.789   0.517  14.174
55567SOL    HW268599   6.644   0.543  14.139
55568SOL     OW68600   6.213   5.447  13.652
55568SOL    HW168601   6.209   5.527  13.600
55568SOL    HW268602   6.205   5.377  13.587
55569SOL     OW68603   1.453   1.141   6.573
55569SOL    HW168604   1.389   1.070   6.563
55569SOL    HW268605   1.519   1.107   6.633
55570SOL     OW68606   1.919   0.671  10.209
55570SOL    HW168607   1.859   0.626  10.150
55570SOL    HW268608   1.881   0.658  10.296
55571SOL     OW68609   8.069  11.940   1.172
55571SOL    HW168610   8.109  12.020   1.207
55571SOL    HW268611   8.066  11.881   1.247
55572SOL     OW68612   7.731  12.809   1.073
55572SOL    HW168613   7.744  12.879   1.136
55572SOL    HW268614   7.805  12.817   1.013
55573SOL     OW68615  11.457   9.629   2.673
55573SOL    HW168616  11.495   9.613   2.586
55573SOL    HW268617  11.527   9.606   2.734
55574SOL     OW68618   7.078   2.634   3.138
55574SOL    HW168619   7.112   2.648   3.226
55574SOL    HW268620   7.108   2.546   3.114
55575SOL     OW68621   8.196   2.263   1.839
55575SOL    HW168622   8.274   2.208   1.840
55575SOL    HW268623   8.224   2.344   1.882
55576SOL     OW68624  13.469   2.441   2.717
55576SOL    HW168625  13.462   2.443   2.812
55576SOL    HW268626  13.379   2.428   2.686
55577SOL     OW68627  14.115  12.517   6.003
55577SOL    HW168628  14.085  12.438   5.958
55577SOL    HW268629  14.185  12.487   6.061
55578SOL     OW68630   6.433  12.530   6.212
55578SOL    HW168631   6.494  12.507   6.142
55578SOL    HW268632   6.467  12.611   6.248
55579SOL     OW68633   9.687   6.573   3.540
55579SOL    HW168634   9.744   6.644   3.572
55579SOL    HW268635   9.732   6.493   3.565
55580SOL     OW68636   8.320   8.712  12.444
55580SOL    HW168637   8.407   8.734  12.477
55580SOL    HW268638   8.271   8.794  12.448
55581SOL     OW68639  10.696  10.717  13.644
55581SOL    HW168640  10.775  10.772  13.639
55581SOL    HW268641  10.629  10.775  13.681
55582SOL     OW68642   2.191   6.915  13.586
55582SOL    HW168643   2.133   6.985  13.618
55582SOL    HW268644   2.274   6.960  13.568
55583SOL     OW68645  13.403   1.635   1.688
55583SOL    HW168646  13.352   1.664   1.613
55583SOL    HW268647  13.347   1.571   1.732
55584SOL     OW68648   2.055   1.310   6.055
55584SOL    HW168649   2.074   1.298   5.962
55584SOL    HW268650   2.016   1.228   6.083
55585SOL     OW68651  13.572   0.272   0.891
55585SOL    HW168652  13.599   0.306   0.976
55585SOL    HW268653  13.477   0.272   0.894
55586SOL     OW68654  13.352   4.898  14.068
55586SOL    HW168655  13.267   4.943  14.068
55586SOL    HW268656  13.370   4.881  14.160
55587SOL     OW68657   4.389   6.554   0.723
55587SOL    HW168658   4.377   6.626   0.661
55587SOL    HW268659   4.413   6.479   0.668
55588SOL     OW68660  10.432  11.273  13.034
55588SOL    HW168661  10.381  11.259  13.114
55588SOL    HW268662  10.378  11.236  12.965
55589SOL     OW68663   9.096  12.026  11.378
55589SOL    HW168664   9.175  11.984  11.344
55589SOL    HW268665   9.031  12.014  11.309
55590SOL     OW68666   5.692   1.445  10.331
55590SOL    HW168667   5.633   1.465  10.258
55590SOL    HW268668   5.749   1.377  10.298
55591SOL     OW68669  12.457  10.245   4.569
55591SOL    HW168670  12.529  10.264   4.629
55591SOL    HW268671  12.381  10.232   4.625
55592SOL     OW68672  12.576   5.216   8.272
55592SOL    HW168673  12.489   5.198   8.236
55592SOL    HW268674  12.618   5.130   8.276
55593SOL     OW68675   8.235   0.682   6.163
55593SOL    HW168676   8.144   0.690   6.136
55593SOL    HW268677   8.256   0.767   6.201
55594SOL     OW68678  11.722  10.702  11.035
55594SOL    HW168679  11.638  10.656  11.030
55594SOL    HW268680  11.737  10.715  11.128
55595SOL     OW68681   2.037  13.278   3.132
55595SOL    HW168682   1.989  13.358   3.109
55595SOL    HW268683   2.036  13.226   3.052
55596SOL     OW68684   1.787  10.635  11.619
55596SOL    HW168685   1.702  10.655  11.659
55596SOL    HW268686   1.767  10.572  11.550
55597SOL     OW68687  14.182  13.467   1.194
55597SOL    HW168688  14.105  13.426   1.234
55597SOL    HW268689  14.163  13.561   1.198
55598SOL     OW68690   7.935   4.513   6.425
55598SOL    HW168691   8.020   4.555   6.436
55598SOL    HW268692   7.897   4.554   6.347
55599SOL     OW68693   8.196   7.223   5.531
55599SOL    HW168694   8.198   7.195   5.440
55599SOL    HW268695   8.132   7.295   5.532
55600SOL     OW68696   1.095   1.567   8.372
55600SOL    HW168697   1.105   1.583   8.279
55600SOL    HW268698   1.159   1.624   8.414
55601SOL     OW68699  10.372   4.695  14.399
55601SOL    HW168700  10.375   4.611  14.446
55601SOL    HW268701  10.289   4.734  14.426
55602SOL     OW68702  11.426   2.862   1.558
55602SOL    HW168703  11.516   2.867   1.592
55602SOL    HW268704  11.437   2.858   1.463
55603SOL     OW68705  12.522   5.735   7.902
55603SOL    HW168706  12.570   5.654   7.923
55603SOL    HW268707  12.493   5.768   7.986
55604SOL     OW68708   6.063  10.885   4.267
55604SOL    HW168709   6.129  10.852   4.328
55604SOL    HW268710   6.113  10.924   4.195
55605SOL     OW68711   6.421  10.587   3.466
55605SOL    HW168712   6.350  10.552   3.519
55605SOL    HW268713   6.379  10.652   3.409
55606SOL     OW68714  11.089   1.679   3.455
55606SOL    HW168715  11.096   1.672   3.550
55606SOL    HW268716  11.045   1.598   3.428
55607SOL     OW68717   0.200   3.845   7.462
55607SOL    HW168718   0.177   3.757   7.495
55607SOL    HW268719   0.296   3.847   7.465
55608SOL     OW68720  10.048  13.974  10.745
55608SOL    HW168721  10.074  13.982  10.653
55608SOL    HW268722  10.087  14.050  10.788
55609SOL     OW68723   5.493  12.095   9.418
55609SOL    HW168724   5.578  12.109   9.376
55609SOL    HW268725   5.440  12.170   9.391
55610SOL     OW68726   6.650   9.843  11.438
55610SOL    HW168727   6.720   9.818  11.377
55610SOL    HW268728   6.586   9.772  11.431
55611SOL     OW68729   8.790   3.249   8.708
55611SOL    HW168730   8.763   3.313   8.642
55611SOL    HW268731   8.712   3.195   8.723
55612SOL     OW68732   4.413   2.792   3.277
55612SOL    HW168733   4.481   2.848   3.314
55612SOL    HW268734   4.460   2.724   3.230
55613SOL     OW68735  13.447  11.001   7.973
55613SOL    HW168736  13.354  10.980   7.988
55613SOL    HW268737  13.458  11.089   8.010
55614SOL     OW68738   8.158   3.255   0.300
55614SOL    HW168739   8.195   3.264   0.213
55614SOL    HW268740   8.198   3.325   0.351
55615SOL     OW68741   3.914   4.223   7.354
55615SOL    HW168742   3.997   4.178   7.372
55615SOL    HW268743   3.908   4.290   7.422
55616SOL     OW68744  12.741   2.101   9.292
55616SOL    HW168745  12.803   2.165   9.327
55616SOL    HW268746  12.796   2.031   9.258
55617SOL     OW68747   7.358   7.492   4.068
55617SOL    HW168748   7.377   7.475   4.160
55617SOL    HW268749   7.369   7.586   4.057
55618SOL     OW68750   8.093  12.830   7.700
55618SOL    HW168751   8.158  12.811   7.767
55618SOL    HW268752   8.054  12.745   7.679
55619SOL     OW68753   8.570   6.958   7.322
55619SOL    HW168754   8.646   6.987   7.271
55619SOL    HW268755   8.503   7.024   7.305
55620SOL     OW68756  14.262   0.113   0.520
55620SOL    HW168757  14.288   0.203   0.498
55620SOL    HW268758  14.335   0.079   0.572
55621SOL     OW68759   2.406   9.358  13.337
55621SOL    HW168760   2.426   9.300  13.411
55621SOL    HW268761   2.475   9.425  13.341
55622SOL     OW68762   4.336   6.450   4.102
55622SOL    HW168763   4.319   6.379   4.040
55622SOL    HW268764   4.255   6.457   4.153
55623SOL     OW68765   1.901   6.839  14.544
55623SOL    HW168766   1.851   6.920  14.542
55623SOL    HW268767   1.973   6.855  14.483
55624SOL     OW68768   4.611   0.673   6.257
55624SOL    HW168769   4.549   0.698   6.188
55624SOL    HW268770   4.588   0.729   6.331
55625SOL     OW68771  13.779   2.135  11.916
55625SOL    HW168772  13.850   2.088  11.960
55625SOL    HW268773  13.744   2.193  11.983
55626SOL     OW68774   2.607   3.884   2.912
55626SOL    HW168775   2.546   3.946   2.951
55626SOL    HW268776   2.553   3.811   2.883
55627SOL     OW68777   1.782   1.380   8.335
55627SOL    HW168778   1.787   1.376   8.240
55627SOL    HW268779   1.744   1.296   8.361
55628SOL     OW68780  10.639  11.441   0.140
55628SOL    HW168781  10.553  11.483   0.143
55628SOL    HW268782  10.701  11.514   0.142
55629SOL     OW68783   1.502  12.542   6.650
55629SOL    HW168784   1.527  12.491   6.727
55629SOL    HW268785   1.538  12.629   6.667
55630SOL     OW68786  13.219   3.549  10.115
55630SOL    HW168787  13.181   3.619  10.168
55630SOL    HW268788  13.294   3.589  10.072
55631SOL     OW68789   6.505   0.944  10.885
55631SOL    HW168790   6.492   1.022  10.831
55631SOL    HW268791   6.492   0.870  10.826
55632SOL     OW68792   1.105   9.942   7.900
55632SOL    HW168793   1.093   9.942   7.805
55632SOL    HW268794   1.118   9.850   7.922
55633SOL     OW68795   8.645   8.637   0.668
55633SOL    HW168796   8.651   8.681   0.753
55633SOL    HW268797   8.552   8.638   0.647
55634SOL     OW68798   4.714  14.396   0.861
55634SOL    HW168799   4.743  14.316   0.817
55634SOL    HW268800   4.794  14.443   0.881
55635SOL     OW68801   7.835   4.788  10.194
55635SOL    HW168802   7.888   4.867  10.182
55635SOL    HW268803   7.880   4.740  10.263
55636SOL     OW68804  14.208   9.579  11.143
55636SOL    HW168805  14.234   9.602  11.233
55636SOL    HW268806  14.160   9.497  11.153
55637SOL     OW68807   5.052  14.432  14.784
55637SOL    HW168808   5.016  14.446  14.696
55637SOL    HW268809   5.144  14.413  14.769
55638SOL     OW68810   2.995  10.426   9.233
55638SOL    HW168811   2.948  10.444   9.315
55638SOL    HW268812   3.083  10.458   9.249
55639SOL     OW68813   0.753  14.184  13.622
55639SOL    HW168814   0.783  14.275  13.628
55639SOL    HW268815   0.685  14.177  13.689
55640SOL     OW68816   6.486   7.339  11.860
55640SOL    HW168817   6.403   7.380  11.833
55640SOL    HW268818   6.462   7.249  11.882
55641SOL     OW68819  11.450  14.871   7.300
55641SOL    HW168820  11.474  14.821   7.378
55641SOL    HW268821  11.511   0.057   7.298
55642SOL     OW68822   2.947  10.216   7.076
55642SOL    HW168823   2.874  10.160   7.047
55642SOL    HW268824   3.018  10.196   7.015
55643SOL     OW68825   7.422   2.420  14.585
55643SOL    HW168826   7.443   2.327  14.596
55643SOL    HW268827   7.345   2.434  14.641
55644SOL     OW68828   5.454   0.355   3.008
55644SOL    HW168829   5.390   0.368   3.078
55644SOL    HW268830   5.448   0.434   2.955
55645SOL     OW68831  10.178   6.395  10.824
55645SOL    HW168832  10.128   6.434  10.896
55645SOL    HW268833  10.268   6.426  10.838
55646SOL     OW68834   1.031   9.664   2.717
55646SOL    HW168835   1.086   9.592   2.688
55646SOL    HW268836   1.044   9.732   2.651
55647SOL     OW68837   0.551  13.437   0.382
55647SOL    HW168838   0.611  13.428   0.457
55647SOL    HW268839   0.514  13.349   0.371
55648SOL     OW68840   8.180   0.004   7.885
55648SOL    HW168841   8.133  14.810   7.869
55648SOL    HW268842   8.183   0.013   7.980
55649SOL     OW68843   6.434  10.992   8.702
55649SOL    HW168844   6.357  11.042   8.728
55649SOL    HW268845   6.408  10.901   8.713
55650SOL     OW68846   8.593   5.242  14.265
55650SOL    HW168847   8.556   5.324  14.235
55650SOL    HW268848   8.682   5.265  14.294
55651SOL     OW68849  10.172   2.446   1.388
55651SOL    HW168850  10.139   2.451   1.477
55651SOL    HW268851  10.093   2.446   1.333
55652SOL     OW68852   9.416   9.200   5.660
55652SOL    HW168853   9.416   9.229   5.569
55652SOL    HW268854   9.326   9.214   5.689
55653SOL     OW68855  10.428  10.726   5.042
55653SOL    HW168856  10.349  10.745   5.093
55653SOL    HW268857  10.429  10.793   4.974
55654SOL     OW68858   3.228   5.815   5.434
55654SOL    HW168859   3.174   5.752   5.386
55654SOL    HW268860   3.199   5.807   5.525
55655SOL     OW68861  12.987   4.109   3.265
55655SOL    HW168862  13.040   4.189   3.265
55655SOL    HW268863  13.045   4.041   3.297
55656SOL     OW68864  13.269   2.579   3.671
55656SOL    HW168865  13.281   2.509   3.735
55656SOL    HW268866  13.284   2.659   3.721
55657SOL     OW68867   3.872   3.342  10.082
55657SOL    HW168868   3.935   3.414  10.086
55657SOL    HW268869   3.804   3.372  10.022
55658SOL     OW68870   6.549  13.402  12.417
55658SOL    HW168871   6.463  13.417  12.379
55658SOL    HW268872   6.590  13.338  12.360
55659SOL     OW68873   1.895  13.009  10.557
55659SOL    HW168874   1.866  13.009  10.648
55659SOL    HW268875   1.858  12.930  10.520
55660SOL     OW68876   4.499   8.383   2.193
55660SOL    HW168877   4.547   8.307   2.159
55660SOL    HW268878   4.561   8.456   2.185
55661SOL     OW68879   9.691   5.561   8.479
55661SOL    HW168880   9.637   5.639   8.464
55661SOL    HW268881   9.628   5.489   8.479
55662SOL     OW68882   1.859  13.783   1.562
55662SOL    HW168883   1.833  13.826   1.481
55662SOL    HW268884   1.867  13.854   1.625
55663SOL     OW68885  11.500   4.771   9.371
55663SOL    HW168886  11.500   4.731   9.458
55663SOL    HW268887  11.435   4.841   9.378
55664SOL     OW68888  10.958   6.885   3.017
55664SOL    HW168889  10.942   6.958   3.077
55664SOL    HW268890  11.030   6.836   3.058
55665SOL     OW68891  11.412  14.024   8.941
55665SOL    HW168892  11.331  13.998   8.898
55665SOL    HW268893  11.384  14.072   9.019
55666SOL     OW68894   3.099   4.804  10.394
55666SOL    HW168895   3.159   4.878  10.405
55666SOL    HW268896   3.031   4.818  10.460
55667SOL     OW68897   1.143   3.597   8.021
55667SOL    HW168898   1.050   3.619   8.019
55667SOL    HW268899   1.152   3.526   7.958
55668SOL     OW68900   3.423   9.723   8.079
55668SOL    HW168901   3.412   9.778   8.156
55668SOL    HW268902   3.518   9.707   8.075
55669SOL     OW68903  13.082  13.274  10.854
55669SOL    HW168904  13.019  13.238  10.916
55669SOL    HW268905  13.042  13.355  10.823
55670SOL     OW68906   5.054  11.847   0.422
55670SOL    HW168907   5.067  11.779   0.356
55670SOL    HW268908   5.084  11.927   0.380
55671SOL     OW68909   2.338   7.782   0.900
55671SOL    HW168910   2.385   7.804   0.819
55671SOL    HW268911   2.246   7.782   0.875
55672SOL     OW68912   4.135   3.834   3.963
55672SOL    HW168913   4.094   3.874   4.040
55672SOL    HW268914   4.178   3.756   3.998
55673SOL     OW68915  14.150   3.683  13.403
55673SOL    HW168916  14.196   3.764  13.428
55673SOL    HW268917  14.152   3.684  13.307
55674SOL     OW68918  10.567  12.391   4.781
55674SOL    HW168919  10.608  12.474   4.805
55674SOL    HW268920  10.481  12.416   4.748
55675SOL     OW68921  12.468   3.054  12.543
55675SOL    HW168922  12.503   2.969  12.567
55675SOL    HW268923  12.531   3.117  12.578
55676SOL     OW68924   7.961   2.676   8.884
55676SOL    HW168925   8.001   2.655   8.799
55676SOL    HW268926   8.016   2.746   8.918
55677SOL     OW68927   2.978  11.597   7.503
55677SOL    HW168928   3.033  11.611   7.581
55677SOL    HW268929   2.902  11.550   7.536
55678SOL     OW68930   7.050   1.287   0.816
55678SOL    HW168931   7.117   1.219   0.816
55678SOL    HW268932   7.020   1.292   0.725
55679SOL     OW68933   4.368   5.458   8.819
55679SOL    HW168934   4.455   5.490   8.797
55679SOL    HW268935   4.335   5.420   8.738
55680SOL     OW68936  14.721  11.118   8.594
55680SOL    HW168937  14.791  11.078   8.645
55680SOL    HW268938  14.723  11.211   8.619
55681SOL     OW68939   1.743  10.621  13.803
55681SOL    HW168940   1.720  10.580  13.886
55681SOL    HW268941   1.799  10.695  13.828
55682SOL     OW68942  13.960   7.000   2.546
55682SOL    HW168943  13.958   6.967   2.636
55682SOL    HW268944  13.901   6.943   2.497
55683SOL     OW68945  14.755   8.521   3.773
55683SOL    HW168946  14.710   8.588   3.722
55683SOL    HW268947  14.832   8.498   3.721
55684SOL     OW68948  12.524  11.836   2.939
55684SOL    HW168949  12.576  11.875   3.009
55684SOL    HW268950  12.461  11.780   2.983
55685SOL     OW68951  12.851   7.013  12.025
55685SOL    HW168952  12.758   7.007  12.050
55685SOL    HW268953  12.850   7.058  11.941
55686SOL     OW68954   1.984  10.099  12.362
55686SOL    HW168955   2.029  10.033  12.415
55686SOL    HW268956   1.996  10.069  12.272
55687SOL     OW68957  13.803   4.640   3.581
55687SOL    HW168958  13.785   4.603   3.494
55687SOL    HW268959  13.892   4.613   3.601
55688SOL     OW68960  12.929   9.853  12.510
55688SOL    HW168961  12.928   9.781  12.573
55688SOL    HW268962  12.914   9.931  12.563
55689SOL     OW68963   0.241   9.761   7.014
55689SOL    HW168964   0.269   9.796   6.929
55689SOL    HW268965   0.216   9.670   6.996
55690SOL     OW68966   2.712   5.616   3.921
55690SOL    HW168967   2.719   5.644   3.830
55690SOL    HW268968   2.717   5.521   3.918
55691SOL     OW68969  14.789   5.814   2.247
55691SOL    HW168970  14.815   5.868   2.322
55691SOL    HW268971  14.696   5.796   2.262
55692SOL     OW68972   6.500   6.060  10.003
55692SOL    HW168973   6.501   6.092  10.093
55692SOL    HW268974   6.407   6.060   9.978
55693SOL     OW68975  11.570  10.632   9.837
55693SOL    HW168976  11.562  10.674   9.922
55693SOL    HW268977  11.490  10.581   9.827
55694SOL     OW68978  10.646   4.082   8.290
55694SOL    HW168979  10.559   4.059   8.258
55694SOL    HW268980  10.697   4.100   8.211
55695SOL     OW68981   6.186  14.094   6.039
55695SOL    HW168982   6.226  14.160   6.096
55695SOL    HW268983   6.105  14.069   6.085
55696SOL     OW68984  10.982  10.963  12.490
55696SOL    HW168985  10.891  10.965  12.461
55696SOL    HW268986  11.023  10.895  12.438
55697SOL     OW68987  13.761   7.936  10.239
55697SOL    HW168988  13.723   7.918  10.153
55697SOL    HW268989  13.788   7.850  10.272
55698SOL     OW68990   3.040  11.739   2.172
55698SOL    HW168991   3.112  11.785   2.129
55698SOL    HW268992   3.020  11.793   2.249
55699SOL     OW68993   1.187   9.409   4.950
55699SOL    HW168994   1.122   9.390   4.882
55699SOL    HW268995   1.244   9.332   4.950
55700SOL     OW68996  10.098  13.081   1.321
55700SOL    HW168997  10.106  13.112   1.411
55700SOL    HW268998  10.062  12.993   1.329
55701SOL     OW68999   4.044  10.686   2.498
55701SOL    HW169000   3.977  10.713   2.435
55701SOL    HW269001   4.127  10.703   2.452
55702SOL     OW69002   2.274  14.071   0.357
55702SOL    HW169003   2.336  14.087   0.428
55702SOL    HW269004   2.212  14.007   0.393
55703SOL     OW69005   9.030   1.602   9.377
55703SOL    HW169006   9.033   1.630   9.286
55703SOL    HW269007   8.942   1.568   9.389
55704SOL     OW69008  11.404   8.276   4.596
55704SOL    HW169009  11.462   8.307   4.665
55704SOL    HW269010  11.374   8.356   4.552
55705SOL     OW69011  12.965  13.337   9.852
55705SOL    HW169012  13.009  13.330   9.936
55705SOL    HW269013  12.872  13.331   9.873
55706SOL     OW69014  14.428   9.448   8.745
55706SOL    HW169015  14.522   9.436   8.728
55706SOL    HW269016  14.409   9.386   8.816
55707SOL     OW69017  13.747   2.439   5.336
55707SOL    HW169018  13.777   2.427   5.246
55707SOL    HW269019  13.715   2.529   5.339
55708SOL     OW69020   8.769   2.795   1.511
55708SOL    HW169021   8.748   2.790   1.418
55708SOL    HW269022   8.702   2.742   1.554
55709SOL     OW69023   8.781  12.498   7.134
55709SOL    HW169024   8.738  12.519   7.217
55709SOL    HW269025   8.721  12.531   7.067
55710SOL     OW69026  12.307   1.455  12.108
55710SOL    HW169027  12.275   1.519  12.044
55710SOL    HW269028  12.363   1.505  12.167
55711SOL     OW69029   9.297   8.908  14.809
55711SOL    HW169030   9.295   8.847  14.883
55711SOL    HW269031   9.258   8.859  14.737
55712SOL     OW69032   9.198   9.007  12.659
55712SOL    HW169033   9.111   8.969  12.667
55712SOL    HW269034   9.257   8.933  12.672
55713SOL     OW69035   2.092  10.986  11.264
55713SOL    HW169036   2.029  10.918  11.286
55713SOL    HW269037   2.038  11.062  11.240
55714SOL     OW69038  14.788   4.201  13.424
55714SOL    HW169039  14.836   4.262  13.369
55714SOL    HW269040  14.733   4.257  13.479
55715SOL     OW69041  10.357  14.646  13.701
55715SOL    HW169042  10.317  14.566  13.737
55715SOL    HW269043  10.451  14.631  13.710
55716SOL     OW69044   0.216   8.606   3.394
55716SOL    HW169045   0.294   8.618   3.339
55716SOL    HW269046   0.230   8.521   3.436
55717SOL     OW69047  14.796   5.677   3.563
55717SOL    HW169048  14.878   5.647   3.602
55717SOL    HW269049  14.804   5.655   3.470
55718SOL     OW69050   9.170  13.209  11.514
55718SOL    HW169051   9.184  13.139  11.577
55718SOL    HW269052   9.075  13.213  11.503
55719SOL     OW69053   5.974   5.095  11.159
55719SOL    HW169054   5.962   5.139  11.075
55719SOL    HW269055   5.898   5.038  11.169
55720SOL     OW69056  14.284   8.523   1.962
55720SOL    HW169057  14.194   8.529   1.996
55720SOL    HW269058  14.321   8.610   1.976
55721SOL     OW69059   7.271   4.161   5.701
55721SOL    HW169060   7.194   4.184   5.649
55721SOL    HW269061   7.253   4.199   5.788
55722SOL     OW69062  11.190  12.867   9.377
55722SOL    HW169063  11.195  12.792   9.318
55722SOL    HW269064  11.218  12.941   9.324
55723SOL     OW69065   8.247  10.640   9.659
55723SOL    HW169066   8.155  10.639   9.685
55723SOL    HW269067   8.253  10.571   9.592
55724SOL     OW69068   9.622   1.949   2.340
55724SOL    HW169069   9.548   2.007   2.320
55724SOL    HW269070   9.629   1.951   2.435
55725SOL     OW69071   6.192   0.782   9.173
55725SOL    HW169072   6.103   0.796   9.207
55725SOL    HW269073   6.249   0.815   9.242
55726SOL     OW69074   9.604   6.604   9.073
55726SOL    HW169075   9.690   6.629   9.107
55726SOL    HW269076   9.623   6.567   8.987
55727SOL     OW69077   5.686  11.792   4.430
55727SOL    HW169078   5.733  11.723   4.382
55727SOL    HW269079   5.743  11.812   4.504
55728SOL     OW69080   7.467   6.578   4.947
55728SOL    HW169081   7.473   6.491   4.906
55728SOL    HW269082   7.402   6.568   5.016
55729SOL     OW69083  14.084   1.500   1.685
55729SOL    HW169084  14.054   1.422   1.732
55729SOL    HW269085  14.050   1.490   1.596
55730SOL     OW69086  10.228   2.545   9.941
55730SOL    HW169087  10.318   2.572   9.922
55730SOL    HW269088  10.230   2.516  10.032
55731SOL     OW69089   5.501   7.421  13.625
55731SOL    HW169090   5.441   7.449  13.695
55731SOL    HW269091   5.500   7.494  13.563
55732SOL     OW69092  12.725  14.500  12.298
55732SOL    HW169093  12.665  14.507  12.372
55732SOL    HW269094  12.679  14.446  12.234
55733SOL     OW69095  10.227   1.834   5.711
55733SOL    HW169096  10.308   1.885   5.718
55733SOL    HW269097  10.244   1.772   5.641
55734SOL     OW69098   5.929   3.923   7.853
55734SOL    HW169099   5.869   3.900   7.924
55734SOL    HW269100   5.872   3.959   7.785
55735SOL     OW69101   1.059   8.791  10.026
55735SOL    HW169102   1.136   8.847  10.011
55735SOL    HW269103   0.992   8.851  10.059
55736SOL     OW69104   9.364   7.000  10.853
55736SOL    HW169105   9.284   7.015  10.803
55736SOL    HW269106   9.434   7.040  10.800
55737SOL     OW69107   2.032   5.213  14.852
55737SOL    HW169108   1.954   5.268  14.863
55737SOL    HW269109   2.091   5.267  14.800
55738SOL     OW69110   1.285  10.710  11.267
55738SOL    HW169111   1.352  10.751  11.322
55738SOL    HW269112   1.299  10.616  11.280
55739SOL     OW69113   7.608   0.487   2.550
55739SOL    HW169114   7.688   0.540   2.560
55739SOL    HW269115   7.546   0.528   2.610
55740SOL     OW69116   2.259   2.922   1.222
55740SOL    HW169117   2.311   2.971   1.286
55740SOL    HW269118   2.324   2.883   1.164
55741SOL     OW69119  12.399  11.615   0.363
55741SOL    HW169120  12.383  11.596   0.271
55741SOL    HW269121  12.402  11.530   0.405
55742SOL     OW69122   0.187   3.518  11.517
55742SOL    HW169123   0.192   3.422  11.523
55742SOL    HW269124   0.243   3.550  11.587
55743SOL     OW69125   2.613  10.835   5.617
55743SOL    HW169126   2.612  10.809   5.525
55743SOL    HW269127   2.698  10.806   5.650
55744SOL     OW69128   6.182  11.147  13.342
55744SOL    HW169129   6.268  11.149  13.383
55744SOL    HW269130   6.126  11.198  13.401
55745SOL     OW69131   6.746  12.485   5.329
55745SOL    HW169132   6.818  12.427   5.305
55745SOL    HW269133   6.685  12.428   5.375
55746SOL     OW69134   5.487   4.879   7.859
55746SOL    HW169135   5.445   4.797   7.888
55746SOL    HW269136   5.484   4.874   7.764
55747SOL     OW69137   9.824  14.048   2.581
55747SOL    HW169138   9.735  14.019   2.599
55747SOL    HW269139   9.870  14.038   2.664
55748SOL     OW69140  13.799  13.380   2.356
55748SOL    HW169141  13.757  13.460   2.389
55748SOL    HW269142  13.863  13.412   2.293
55749SOL     OW69143   0.796   2.079   3.245
55749SOL    HW169144   0.869   2.119   3.293
55749SOL    HW269145   0.758   2.151   3.196
55750SOL     OW69146  10.664   3.540   6.475
55750SOL    HW169147  10.647   3.480   6.403
55750SOL    HW269148  10.641   3.490   6.554
55751SOL     OW69149   9.508   2.886  11.735
55751SOL    HW169150   9.495   2.980  11.728
55751SOL    HW269151   9.602   2.874  11.726
55752SOL     OW69152   5.077  10.213   9.329
55752SOL    HW169153   5.171  10.234   9.321
55752SOL    HW269154   5.054  10.178   9.243
55753SOL     OW69155  14.140   2.196  14.280
55753SOL    HW169156  14.198   2.193  14.205
55753SOL    HW269157  14.155   2.113  14.325
55754SOL     OW69158  10.887  13.100   9.903
55754SOL    HW169159  10.966  13.103   9.957
55754SOL    HW269160  10.865  13.007   9.898
55755SOL     OW69161   5.986   8.754   5.073
55755SOL    HW169162   6.059   8.786   5.127
55755SOL    HW269163   5.942   8.834   5.043
55756SOL     OW69164   5.281  12.966  13.827
55756SOL    HW169165   5.271  13.037  13.891
55756SOL    HW269166   5.195  12.961  13.784
55757SOL     OW69167   4.926  13.123  12.141
55757SOL    HW169168   4.905  13.059  12.210
55757SOL    HW269169   4.944  13.204  12.188
55758SOL     OW69170  14.736   4.844   4.681
55758SOL    HW169171  14.825   4.822   4.707
55758SOL    HW269172  14.703   4.765   4.639
55759SOL     OW69173   5.957   4.292  14.570
55759SOL    HW169174   6.052   4.296  14.558
55759SOL    HW269175   5.936   4.366  14.626
55760SOL     OW69176   1.726  12.786   9.686
55760SOL    HW169177   1.820  12.777   9.669
55760SOL    HW269178   1.710  12.880   9.686
55761SOL     OW69179   1.786   2.308  12.467
55761SOL    HW169180   1.827   2.225  12.445
55761SOL    HW269181   1.707   2.311  12.413
55762SOL     OW69182   2.463   1.261   7.586
55762SOL    HW169183   2.484   1.350   7.613
55762SOL    HW269184   2.481   1.208   7.664
55763SOL     OW69185  10.957   7.922   5.150
55763SOL    HW169186  10.925   7.891   5.234
55763SOL    HW269187  11.045   7.956   5.168
55764SOL     OW69188   9.628  12.843   6.038
55764SOL    HW169189   9.609  12.936   6.039
55764SOL    HW269190   9.557  12.804   5.988
55765SOL     OW69191  14.846  12.579   4.063
55765SOL    HW169192  14.811  12.583   4.152
55765SOL    HW269193  14.771  12.595   4.006
55766SOL     OW69194  11.167  12.184   2.339
55766SOL    HW169195  11.202  12.255   2.393
55766SOL    HW269196  11.128  12.229   2.263
55767SOL     OW69197  10.957   1.898   0.068
55767SOL    HW169198  11.004   1.845   0.003
55767SOL    HW269199  10.909   1.834   0.120
55768SOL     OW69200   1.632   4.283   4.922
55768SOL    HW169201   1.630   4.256   5.014
55768SOL    HW269202   1.690   4.358   4.920
55769SOL     OW69203   5.743  11.656   0.795
55769SOL    HW169204   5.796  11.688   0.868
55769SOL    HW269205   5.686  11.590   0.834
55770SOL     OW69206   6.143  10.962   2.967
55770SOL    HW169207   6.054  10.981   2.936
55770SOL    HW269208   6.188  11.046   2.960
55771SOL     OW69209  13.312   5.731  12.827
55771SOL    HW169210  13.341   5.760  12.741
55771SOL    HW269211  13.272   5.646  12.812
55772SOL     OW69212  13.997  11.533  11.158
55772SOL    HW169213  13.925  11.510  11.217
55772SOL    HW269214  13.956  11.579  11.085
55773SOL     OW69215   7.568   9.602  11.761
55773SOL    HW169216   7.613   9.623  11.679
55773SOL    HW269217   7.475   9.620  11.742
55774SOL     OW69218   5.209   0.347   4.588
55774SOL    HW169219   5.176   0.273   4.638
55774SOL    HW269220   5.131   0.385   4.546
55775SOL     OW69221   1.712   7.066   7.767
55775SOL    HW169222   1.756   7.076   7.683
55775SOL    HW269223   1.730   6.976   7.794
55776SOL     OW69224   1.057   5.571   2.686
55776SOL    HW169225   1.087   5.656   2.653
55776SOL    HW269226   1.005   5.535   2.614
55777SOL     OW69227   5.665   7.654   0.111
55777SOL    HW169228   5.586   7.605   0.136
55777SOL    HW269229   5.647   7.744   0.138
55778SOL     OW69230  10.333  14.172   7.708
55778SOL    HW169231  10.237  14.173   7.708
55778SOL    HW269232  10.358  14.202   7.795
55779SOL     OW69233  11.978  14.301  12.541
55779SOL    HW169234  12.071  14.319  12.558
55779SOL    HW269235  11.943  14.275  12.626
55780SOL     OW69236   6.894   4.773  11.794
55780SOL    HW169237   6.901   4.869  11.796
55780SOL    HW269238   6.802   4.756  11.814
55781SOL     OW69239   3.180   1.299   9.791
55781SOL    HW169240   3.267   1.326   9.761
55781SOL    HW269241   3.174   1.333   9.881
55782SOL     OW69242   6.315   2.823  14.410
55782SOL    HW169243   6.251   2.774  14.359
55782SOL    HW269244   6.285   2.814  14.501
55783SOL     OW69245   9.847  12.565  11.831
55783SOL    HW169246   9.926  12.588  11.879
55783SOL    HW269247   9.877  12.506  11.761
55784SOL     OW69248  11.494   5.901  10.068
55784SOL    HW169249  11.504   5.910  10.163
55784SOL    HW269250  11.491   5.807  10.053
55785SOL     OW69251   8.410   8.154  11.326
55785SOL    HW169252   8.321   8.178  11.299
55785SOL    HW269253   8.456   8.238  11.331
55786SOL     OW69254   6.399  10.474   5.716
55786SOL    HW169255   6.371  10.462   5.806
55786SOL    HW269256   6.490  10.444   5.714
55787SOL     OW69257   1.841   0.385   8.172
55787SOL    HW169258   1.911   0.402   8.234
55787SOL    HW269259   1.799   0.306   8.204
55788SOL     OW69260   5.997   6.949   1.927
55788SOL    HW169261   5.964   7.008   1.860
55788SOL    HW269262   6.028   6.872   1.878
55789SOL     OW69263   7.249  14.823  14.654
55789SOL    HW169264   7.278   0.026  14.669
55789SOL    HW269265   7.193  14.802  14.729
55790SOL     OW69266  12.584   1.585  11.440
55790SOL    HW169267  12.501   1.625  11.415
55790SOL    HW269268  12.581   1.498  11.401
55791SOL     OW69269   6.183   9.730   9.750
55791SOL    HW169270   6.220   9.774   9.826
55791SOL    HW269271   6.144   9.801   9.698
55792SOL     OW69272   0.994  11.586   3.291
55792SOL    HW169273   0.941  11.656   3.328
55792SOL    HW269274   1.080  11.626   3.276
55793SOL     OW69275   7.640  12.833   6.702
55793SOL    HW169276   7.690  12.830   6.620
55793SOL    HW269277   7.702  12.865   6.767
55794SOL     OW69278  14.170   7.635   9.731
55794SOL    HW169279  14.160   7.697   9.803
55794SOL    HW269280  14.204   7.687   9.658
55795SOL     OW69281   6.906   8.861   8.402
55795SOL    HW169282   6.812   8.859   8.384
55795SOL    HW269283   6.912   8.880   8.496
55796SOL     OW69284   4.970   9.245   9.336
55796SOL    HW169285   4.900   9.225   9.399
55796SOL    HW269286   5.015   9.161   9.323
55797SOL     OW69287  14.263  11.751   2.421
55797SOL    HW169288  14.290  11.709   2.339
55797SOL    HW269289  14.323  11.826   2.429
55798SOL     OW69290  11.537   7.128   1.189
55798SOL    HW169291  11.442   7.116   1.192
55798SOL    HW269292  11.548   7.221   1.166
55799SOL     OW69293   9.364  10.101   2.458
55799SOL    HW169294   9.321  10.070   2.538
55799SOL    HW269295   9.413  10.179   2.486
55800SOL     OW69296   6.376   4.760   1.413
55800SOL    HW169297   6.325   4.712   1.479
55800SOL    HW269298   6.431   4.820   1.464
55801SOL     OW69299  14.578   4.923   2.866
55801SOL    HW169300  14.491   4.927   2.906
55801SOL    HW269301  14.565   4.958   2.778
55802SOL     OW69302  14.806   0.835  12.623
55802SOL    HW169303  14.764   0.750  12.604
55802SOL    HW269304   0.004   0.829  12.581
55803SOL     OW69305  11.567   6.959   5.279
55803SOL    HW169306  11.484   7.003   5.294
55803SOL    HW269307  11.632   7.014   5.323
55804SOL     OW69308   9.892  11.371  14.385
55804SOL    HW169309   9.944  11.450  14.367
55804SOL    HW269310   9.946  11.299  14.352
55805SOL     OW69311  14.623   3.791  14.154
55805SOL    HW169312  14.534   3.778  14.122
55805SOL    HW269313  14.654   3.703  14.177
55806SOL     OW69314   2.789  13.212   6.017
55806SOL    HW169315   2.706  13.170   5.993
55806SOL    HW269316   2.833  13.149   6.074
55807SOL     OW69317   3.212   6.211  11.180
55807SOL    HW169318   3.199   6.144  11.248
55807SOL    HW269319   3.307   6.222  11.176
55808SOL     OW69320   1.362   6.168   4.489
55808SOL    HW169321   1.347   6.076   4.510
55808SOL    HW269322   1.457   6.176   4.484
55809SOL     OW69323   6.199  12.149   1.589
55809SOL    HW169324   6.150  12.149   1.672
55809SOL    HW269325   6.197  12.240   1.560
55810SOL     OW69326   4.020   5.625  10.341
55810SOL    HW169327   3.941   5.666  10.306
55810SOL    HW269328   4.060   5.582  10.265
55811SOL     OW69329  12.592   9.455   6.690
55811SOL    HW169330  12.548   9.540   6.697
55811SOL    HW269331  12.589   9.434   6.597
55812SOL     OW69332   7.020   2.958   0.261
55812SOL    HW169333   6.976   2.889   0.309
55812SOL    HW269334   7.110   2.927   0.251
55813SOL     OW69335   2.986   7.938   4.060
55813SOL    HW169336   3.061   7.955   4.004
55813SOL    HW269337   2.980   8.014   4.117
55814SOL     OW69338   4.468   9.460  12.141
55814SOL    HW169339   4.483   9.532  12.202
55814SOL    HW269340   4.535   9.395  12.163
55815SOL     OW69341   9.393   7.585  10.763
55815SOL    HW169342   9.427   7.652  10.823
55815SOL    HW269343   9.299   7.586  10.776
55816SOL     OW69344  10.929   0.935   5.185
55816SOL    HW169345  10.907   0.903   5.097
55816SOL    HW269346  10.915   1.029   5.180
55817SOL     OW69347   8.615  14.457  12.654
55817SOL    HW169348   8.608  14.368  12.689
55817SOL    HW269349   8.691  14.494  12.698
55818SOL     OW69350   8.031  14.637   0.254
55818SOL    HW169351   7.937  14.646   0.241
55818SOL    HW269352   8.067  14.626   0.166
55819SOL     OW69353  11.164   0.793   3.686
55819SOL    HW169354  11.076   0.775   3.717
55819SOL    HW269355  11.153   0.869   3.628
55820SOL     OW69356   4.692   9.333   8.934
55820SOL    HW169357   4.766   9.343   8.995
55820SOL    HW269358   4.658   9.246   8.952
55821SOL     OW69359   1.920  10.084  10.137
55821SOL    HW169360   1.829  10.105  10.161
55821SOL    HW269361   1.926   9.989  10.149
55822SOL     OW69362   8.601  14.173  10.327
55822SOL    HW169363   8.669  14.213  10.273
55822SOL    HW269364   8.626  14.194  10.417
55823SOL     OW69365   5.220   3.702  12.463
55823SOL    HW169366   5.224   3.609  12.439
55823SOL    HW269367   5.257   3.705  12.552
55824SOL     OW69368   2.043   9.192  10.058
55824SOL    HW169369   1.992   9.256  10.106
55824SOL    HW269370   2.095   9.147  10.124
55825SOL     OW69371  10.662  14.240   1.603
55825SOL    HW169372  10.735  14.293   1.571
55825SOL    HW269373  10.703  14.161   1.638
55826SOL     OW69374  12.597   6.223  13.810
55826SOL    HW169375  12.678   6.227  13.759
55826SOL    HW269376  12.577   6.315  13.829
55827SOL     OW69377  11.821   4.312   7.593
55827SOL    HW169378  11.883   4.241   7.577
55827SOL    HW269379  11.876   4.388   7.609
55828SOL     OW69380   6.401  11.520   3.712
55828SOL    HW169381   6.376  11.606   3.679
55828SOL    HW269382   6.487  11.504   3.674
55829SOL     OW69383   0.196  13.321  14.482
55829SOL    HW169384   0.265  13.278  14.532
55829SOL    HW269385   0.132  13.350  14.548
55830SOL     OW69386  13.673  10.244   8.673
55830SOL    HW169387  13.605  10.180   8.690
55830SOL    HW269388  13.736  10.197   8.618
55831SOL     OW69389   5.355  14.875   1.162
55831SOL    HW169390   5.271  14.864   1.206
55831SOL    HW269391   5.366  14.795   1.111
55832SOL     OW69392   9.451   6.730   2.112
55832SOL    HW169393   9.505   6.690   2.179
55832SOL    HW269394   9.364   6.693   2.126
55833SOL     OW69395  12.689   1.008  11.826
55833SOL    HW169396  12.623   1.037  11.763
55833SOL    HW269397  12.761   1.070  11.815
55834SOL     OW69398  14.728   1.181  11.595
55834SOL    HW169399  14.634   1.176  11.609
55834SOL    HW269400  14.756   1.091  11.581
55835SOL     OW69401  10.046   6.916   2.790
55835SOL    HW169402  10.006   6.996   2.755
55835SOL    HW269403   9.974   6.867   2.829
55836SOL     OW69404   2.728   3.090  13.127
55836SOL    HW169405   2.646   3.099  13.077
55836SOL    HW269406   2.789   3.148  13.082
55837SOL     OW69407   0.801   9.382   3.826
55837SOL    HW169408   0.796   9.470   3.790
55837SOL    HW269409   0.883   9.346   3.792
55838SOL     OW69410   9.399   1.193   2.364
55838SOL    HW169411   9.350   1.124   2.319
55838SOL    HW269412   9.348   1.273   2.350
55839SOL     OW69413   6.589  14.481   9.430
55839SOL    HW169414   6.611  14.563   9.386
55839SOL    HW269415   6.664  14.464   9.487
55840SOL     OW69416   7.766  10.551   2.607
55840SOL    HW169417   7.779  10.470   2.657
55840SOL    HW269418   7.757  10.522   2.516
55841SOL     OW69419   5.696  11.401   8.937
55841SOL    HW169420   5.603  11.398   8.914
55841SOL    HW269421   5.733  11.324   8.894
55842SOL     OW69422  12.176   9.238   2.401
55842SOL    HW169423  12.211   9.182   2.332
55842SOL    HW269424  12.105   9.186   2.439
55843SOL     OW69425   8.415   1.354   0.770
55843SOL    HW169426   8.370   1.435   0.746
55843SOL    HW269427   8.398   1.294   0.698
55844SOL     OW69428   2.212   9.898  14.433
55844SOL    HW169429   2.176   9.981  14.466
55844SOL    HW269430   2.196   9.835  14.502
55845SOL     OW69431  12.496   8.165   0.474
55845SOL    HW169432  12.408   8.191   0.500
55845SOL    HW269433  12.552   8.237   0.501
55846SOL     OW69434  13.416   2.731   4.505
55846SOL    HW169435  13.411   2.770   4.417
55846SOL    HW269436  13.341   2.770   4.552
55847SOL     OW69437   3.143   5.165   9.845
55847SOL    HW169438   3.137   5.108   9.768
55847SOL    HW269439   3.189   5.243   9.813
55848SOL     OW69440   4.496  10.282   9.111
55848SOL    HW169441   4.473  10.209   9.053
55848SOL    HW269442   4.571  10.323   9.068
55849SOL     OW69443   2.232   9.854   8.523
55849SOL    HW169444   2.241   9.881   8.432
55849SOL    HW269445   2.266   9.765   8.526
55850SOL     OW69446  11.223  12.429   2.736
55850SOL    HW169447  11.179  12.353   2.774
55850SOL    HW269448  11.154  12.479   2.694
55851SOL     OW69449   3.327  12.523   9.772
55851SOL    HW169450   3.378  12.454   9.731
55851SOL    HW269451   3.291  12.483   9.851
55852SOL     OW69452  11.877   5.709  10.905
55852SOL    HW169453  11.803   5.769  10.900
55852SOL    HW269454  11.838   5.622  10.894
55853SOL     OW69455   2.081   3.962  11.244
55853SOL    HW169456   2.031   3.925  11.317
55853SOL    HW269457   2.029   4.038  11.216
55854SOL     OW69458  13.833   8.600  10.020
55854SOL    HW169459  13.917   8.629  10.054
55854SOL    HW269460  13.801   8.536  10.083
55855SOL     OW69461   5.314   9.680   2.958
55855SOL    HW169462   5.312   9.645   2.869
55855SOL    HW269463   5.315   9.775   2.946
55856SOL     OW69464   7.302  12.711   8.378
55856SOL    HW169465   7.397  12.720   8.376
55856SOL    HW269466   7.274  12.763   8.453
55857SOL     OW69467   6.403   0.248   9.890
55857SOL    HW169468   6.485   0.249   9.841
55857SOL    HW269469   6.370   0.337   9.885
55858SOL     OW69470   6.046   1.482   6.462
55858SOL    HW169471   5.956   1.512   6.476
55858SOL    HW269472   6.052   1.400   6.511
55859SOL     OW69473   0.097   3.832  12.287
55859SOL    HW169474   0.086   3.914  12.239
55859SOL    HW269475   0.189   3.832  12.313
55860SOL     OW69476   3.184   3.326  12.688
55860SOL    HW169477   3.136   3.399  12.649
55860SOL    HW269478   3.273   3.360  12.700
55861SOL     OW69479   5.780   1.852   5.202
55861SOL    HW169480   5.857   1.897   5.236
55861SOL    HW269481   5.722   1.844   5.278
55862SOL     OW69482   5.767   9.794   8.485
55862SOL    HW169483   5.819   9.774   8.563
55862SOL    HW269484   5.755   9.709   8.443
55863SOL     OW69485   4.171  14.882   7.684
55863SOL    HW169486   4.194  14.810   7.743
55863SOL    HW269487   4.142   0.065   7.743
55864SOL     OW69488   3.319  11.184  14.086
55864SOL    HW169489   3.327  11.123  14.159
55864SOL    HW269490   3.260  11.141  14.025
55865SOL     OW69491  13.232  12.001   8.236
55865SOL    HW169492  13.247  12.064   8.307
55865SOL    HW269493  13.218  11.917   8.281
55866SOL     OW69494   2.547   4.200   2.421
55866SOL    HW169495   2.503   4.171   2.342
55866SOL    HW269496   2.511   4.145   2.491
55867SOL     OW69497   7.166   2.534   8.766
55867SOL    HW169498   7.148   2.626   8.783
55867SOL    HW269499   7.241   2.535   8.706
55868SOL     OW69500  13.140  10.219   8.923
55868SOL    HW169501  13.081  10.244   8.852
55868SOL    HW269502  13.149  10.124   8.913
55869SOL     OW69503   2.034  13.277   0.780
55869SOL    HW169504   1.939  13.273   0.790
55869SOL    HW269505   2.063  13.343   0.843
55870SOL     OW69506   8.283   0.247  13.938
55870SOL    HW169507   8.322   0.166  13.904
55870SOL    HW269508   8.189   0.233  13.933
55871SOL     OW69509   8.720   2.243   6.384
55871SOL    HW169510   8.709   2.321   6.438
55871SOL    HW269511   8.740   2.277   6.296
55872SOL     OW69512   2.813   9.613   4.197
55872SOL    HW169513   2.827   9.592   4.289
55872SOL    HW269514   2.897   9.591   4.155
55873SOL     OW69515  14.778   9.275   8.055
55873SOL    HW169516  14.718   9.324   7.999
55873SOL    HW269517  14.721   9.217   8.106
55874SOL     OW69518   6.546  11.108  10.574
55874SOL    HW169519   6.519  11.111  10.666
55874SOL    HW269520   6.494  11.176  10.532
55875SOL     OW69521   9.473  12.211  13.297
55875SOL    HW169522   9.455  12.264  13.220
55875SOL    HW269523   9.563  12.180  13.285
55876SOL     OW69524   9.951   0.946   9.707
55876SOL    HW169525   9.856   0.932   9.710
55876SOL    HW269526   9.981   0.890   9.635
55877SOL     OW69527   1.781   6.234   3.915
55877SOL    HW169528   1.867   6.218   3.876
55877SOL    HW269529   1.797   6.228   4.009
55878SOL     OW69530   3.614   7.518   0.361
55878SOL    HW169531   3.532   7.530   0.313
55878SOL    HW269532   3.681   7.553   0.303
55879SOL     OW69533  13.364  12.032   0.871
55879SOL    HW169534  13.336  12.120   0.897
55879SOL    HW269535  13.340  12.025   0.779
55880SOL     OW69536   2.979   7.624  10.825
55880SOL    HW169537   3.027   7.663  10.752
55880SOL    HW269538   2.922   7.559  10.784
55881SOL     OW69539   5.420   1.546   3.327
55881SOL    HW169540   5.468   1.627   3.316
55881SOL    HW269541   5.344   1.554   3.270
55882SOL     OW69542   3.085   8.330  12.586
55882SOL    HW169543   2.994   8.358  12.579
55882SOL    HW269544   3.079   8.238  12.613
55883SOL     OW69545   0.945   2.391   5.632
55883SOL    HW169546   0.889   2.452   5.681
55883SOL    HW269547   0.948   2.312   5.687
55884SOL     OW69548   1.919  12.508  14.257
55884SOL    HW169549   1.899  12.422  14.218
55884SOL    HW269550   1.958  12.558  14.186
55885SOL     OW69551   3.890   3.016   1.703
55885SOL    HW169552   3.883   3.099   1.751
55885SOL    HW269553   3.806   3.010   1.656
55886SOL     OW69554  14.341  13.227  12.022
55886SOL    HW169555  14.420  13.259  12.066
55886SOL    HW269556  14.371  13.207  11.933
55887SOL     OW69557  12.769   0.808   2.438
55887SOL    HW169558  12.770   0.739   2.504
55887SOL    HW269559  12.726   0.881   2.481
55888SOL     OW69560   8.536   8.775   0.094
55888SOL    HW169561   8.619   8.809   0.063
55888SOL    HW269562   8.524   8.814   0.181
55889SOL     OW69563   4.364   2.548   1.377
55889SOL    HW169564   4.400   2.475   1.428
55889SOL    HW269565   4.271   2.527   1.367
55890SOL     OW69566   1.257   3.682  11.958
55890SOL    HW169567   1.306   3.710  11.881
55890SOL    HW269568   1.177   3.642  11.923
55891SOL     OW69569   2.912   5.680   3.398
55891SOL    HW169570   2.892   5.772   3.385
55891SOL    HW269571   2.997   5.667   3.356
55892SOL     OW69572   4.142   9.836   3.160
55892SOL    HW169573   4.130   9.748   3.193
55892SOL    HW269574   4.228   9.835   3.118
55893SOL     OW69575  12.525   6.045  12.600
55893SOL    HW169576  12.507   5.951  12.607
55893SOL    HW269577  12.490   6.070  12.514
55894SOL     OW69578   8.924   3.790   3.648
55894SOL    HW169579   8.883   3.797   3.734
55894SOL    HW269580   8.852   3.774   3.587
55895SOL     OW69581  11.255   5.856   5.438
55895SOL    HW169582  11.250   5.875   5.532
55895SOL    HW269583  11.231   5.938   5.396
55896SOL     OW69584   1.853   1.453   4.778
55896SOL    HW169585   1.884   1.368   4.811
55896SOL    HW269586   1.883   1.457   4.688
55897SOL     OW69587   4.207   2.176  11.384
55897SOL    HW169588   4.295   2.139  11.395
55897SOL    HW269589   4.158   2.146  11.461
55898SOL     OW69590   4.630  11.716  11.554
55898SOL    HW169591   4.569  11.789  11.558
55898SOL    HW269592   4.588  11.646  11.605
55899SOL     OW69593   5.926   2.568   5.289
55899SOL    HW169594   6.018   2.575   5.265
55899SOL    HW269595   5.880   2.616   5.219
55900SOL     OW69596  14.043   7.249   7.400
55900SOL    HW169597  14.037   7.220   7.309
55900SOL    HW269598  13.953   7.265   7.427
55901SOL     OW69599   8.399   7.085   8.238
55901SOL    HW169600   8.407   7.085   8.142
55901SOL    HW269601   8.442   7.004   8.265
55902SOL     OW69602  13.751  12.924   2.272
55902SOL    HW169603  13.750  13.011   2.232
55902SOL    HW269604  13.658  12.900   2.278
55903SOL     OW69605   4.303   3.653   0.395
55903SOL    HW169606   4.279   3.615   0.310
55903SOL    HW269607   4.369   3.718   0.374
55904SOL     OW69608   0.708  11.844  14.096
55904SOL    HW169609   0.799  11.871  14.085
55904SOL    HW269610   0.684  11.805  14.012
55905SOL     OW69611   5.141  13.076   3.703
55905SOL    HW169612   5.108  13.067   3.614
55905SOL    HW269613   5.094  13.151   3.739
55906SOL     OW69614  12.849   2.490  12.103
55906SOL    HW169615  12.937   2.458  12.081
55906SOL    HW269616  12.790   2.437  12.050
55907SOL     OW69617   9.103   6.532   8.587
55907SOL    HW169618   9.121   6.470   8.518
55907SOL    HW269619   9.163   6.605   8.570
55908SOL     OW69620   7.912   6.958  10.419
55908SOL    HW169621   7.970   6.901  10.470
55908SOL    HW269622   7.909   7.040  10.468
55909SOL     OW69623   6.022  10.488   2.314
55909SOL    HW169624   5.999  10.405   2.356
55909SOL    HW269625   5.938  10.531   2.296
55910SOL     OW69626   7.678   1.420   3.533
55910SOL    HW169627   7.769   1.446   3.517
55910SOL    HW269628   7.628   1.466   3.466
55911SOL     OW69629  12.502   0.251  13.169
55911SOL    HW169630  12.482   0.190  13.098
55911SOL    HW269631  12.511   0.336  13.127
55912SOL     OW69632  10.884   1.216   3.650
55912SOL    HW169633  10.810   1.241   3.705
55912SOL    HW269634  10.871   1.123   3.632
55913SOL     OW69635   4.086  10.471  13.287
55913SOL    HW169636   4.120  10.396  13.335
55913SOL    HW269637   3.991  10.468  13.303
55914SOL     OW69638  10.258   7.925   8.115
55914SOL    HW169639  10.250   7.845   8.167
55914SOL    HW269640  10.169   7.960   8.111
55915SOL     OW69641   4.612  13.990  11.752
55915SOL    HW169642   4.682  13.936  11.790
55915SOL    HW269643   4.652  14.076  11.741
55916SOL     OW69644   6.202   7.390   5.489
55916SOL    HW169645   6.266   7.366   5.556
55916SOL    HW269646   6.172   7.477   5.514
55917SOL     OW69647   4.236  10.236  10.153
55917SOL    HW169648   4.258  10.276  10.069
55917SOL    HW269649   4.160  10.181  10.135
55918SOL     OW69650   6.927   6.061   4.563
55918SOL    HW169651   6.879   6.014   4.631
55918SOL    HW269652   7.009   6.087   4.605
55919SOL     OW69653   6.231   7.585  13.037
55919SOL    HW169654   6.296   7.630  13.091
55919SOL    HW269655   6.208   7.649  12.970
55920SOL     OW69656   8.862   5.297   2.590
55920SOL    HW169657   8.891   5.329   2.505
55920SOL    HW269658   8.841   5.377   2.639
55921SOL     OW69659   8.912  14.493   0.250
55921SOL    HW169660   8.841  14.554   0.231
55921SOL    HW269661   8.970  14.540   0.309
55922SOL     OW69662   8.397  10.625  12.350
55922SOL    HW169663   8.417  10.568  12.424
55922SOL    HW269664   8.315  10.668  12.376
55923SOL     OW69665   0.582   9.197   6.215
55923SOL    HW169666   0.588   9.260   6.144
55923SOL    HW269667   0.640   9.126   6.189
55924SOL     OW69668  10.117   6.549   8.266
55924SOL    HW169669  10.151   6.605   8.196
55924SOL    HW269670  10.195   6.509   8.304
55925SOL     OW69671  12.615  13.462   9.660
55925SOL    HW169672  12.545  13.471   9.723
55925SOL    HW269673  12.638  13.369   9.663
55926SOL     OW69674   0.866  12.467  14.039
55926SOL    HW169675   0.779  12.436  14.014
55926SOL    HW269676   0.923  12.392  14.027
55927SOL     OW69677   4.361  12.681  14.572
55927SOL    HW169678   4.402  12.759  14.607
55927SOL    HW269679   4.352  12.699  14.478
55928SOL     OW69680   5.373  13.573   4.342
55928SOL    HW169681   5.313  13.525   4.399
55928SOL    HW269682   5.321  13.594   4.265
55929SOL     OW69683   4.045  11.758   1.242
55929SOL    HW169684   3.980  11.699   1.280
55929SOL    HW269685   4.128  11.731   1.280
55930SOL     OW69686   6.359  14.844   9.701
55930SOL    HW169687   6.441  14.841   9.751
55930SOL    HW269688   6.356  14.760   9.656
55931SOL     OW69689  13.082  11.460   4.610
55931SOL    HW169690  13.154  11.489   4.554
55931SOL    HW269691  13.007  11.453   4.552
55932SOL     OW69692   9.642   8.120   7.162
55932SOL    HW169693   9.575   8.187   7.171
55932SOL    HW269694   9.723   8.168   7.146
55933SOL     OW69695  11.680  11.002   4.686
55933SOL    HW169696  11.674  10.929   4.747
55933SOL    HW269697  11.738  11.065   4.729
55934SOL     OW69698   9.301  13.764   1.380
55934SOL    HW169699   9.308  13.849   1.337
55934SOL    HW269700   9.371  13.712   1.340
55935SOL     OW69701  12.548  13.602  10.603
55935SOL    HW169702  12.503  13.631  10.524
55935SOL    HW269703  12.502  13.646  10.674
55936SOL     OW69704   8.487   7.522   9.648
55936SOL    HW169705   8.457   7.613   9.647
55936SOL    HW269706   8.550   7.517   9.576
55937SOL     OW69707   6.066  12.258  12.646
55937SOL    HW169708   6.094  12.300  12.727
55937SOL    HW269709   6.013  12.184  12.674
55938SOL     OW69710   3.879   9.430   7.505
55938SOL    HW169711   3.890   9.383   7.423
55938SOL    HW269712   3.810   9.384   7.551
55939SOL     OW69713   2.635  13.051   5.344
55939SOL    HW169714   2.664  13.118   5.405
55939SOL    HW269715   2.610  13.099   5.266
55940SOL     OW69716   3.114  10.374   8.594
55940SOL    HW169717   3.193  10.395   8.544
55940SOL    HW269718   3.047  10.359   8.528
55941SOL     OW69719   7.194  11.591  14.521
55941SOL    HW169720   7.106  11.609  14.555
55941SOL    HW269721   7.240  11.675  14.528
55942SOL     OW69722  13.610   4.900  14.023
55942SOL    HW169723  13.519   4.873  14.035
55942SOL    HW269724  13.609   4.995  14.037
55943SOL     OW69725   8.702   5.107  13.689
55943SOL    HW169726   8.615   5.145  13.676
55943SOL    HW269727   8.688   5.037  13.752
55944SOL     OW69728  12.040   1.289  12.006
55944SOL    HW169729  11.993   1.230  11.948
55944SOL    HW269730  11.984   1.297  12.083
55945SOL     OW69731   7.025   7.752   4.961
55945SOL    HW169732   7.013   7.759   5.055
55945SOL    HW269733   7.118   7.732   4.950
55946SOL     OW69734   9.047  10.138   1.209
55946SOL    HW169735   8.982  10.111   1.145
55946SOL    HW269736   9.002  10.202   1.264
55947SOL     OW69737  12.023   8.160  10.261
55947SOL    HW169738  11.939   8.191  10.295
55947SOL    HW269739  12.000   8.103  10.187
55948SOL     OW69740   9.302   2.149   3.610
55948SOL    HW169741   9.382   2.194   3.582
55948SOL    HW269742   9.314   2.059   3.582
55949SOL     OW69743   4.325   4.178  10.545
55949SOL    HW169744   4.309   4.262  10.587
55949SOL    HW269745   4.405   4.190  10.494
55950SOL     OW69746  14.221  14.440  10.771
55950SOL    HW169747  14.221  14.492  10.690
55950SOL    HW269748  14.217  14.505  10.841
55951SOL     OW69749   5.743   9.417   8.909
55951SOL    HW169750   5.786   9.477   8.970
55951SOL    HW269751   5.671   9.378   8.958
55952SOL     OW69752   7.561  10.346   3.701
55952SOL    HW169753   7.612  10.298   3.636
55952SOL    HW269754   7.557  10.435   3.666
55953SOL     OW69755  11.316  13.569   9.575
55953SOL    HW169756  11.313  13.505   9.646
55953SOL    HW269757  11.406  13.567   9.544
55954SOL     OW69758   2.161   5.817   6.384
55954SOL    HW169759   2.184   5.906   6.412
55954SOL    HW269760   2.083   5.828   6.330
55955SOL     OW69761  13.294   6.840  12.280
55955SOL    HW169762  13.263   6.911  12.336
55955SOL    HW269763  13.283   6.761  12.333
55956SOL     OW69764  13.154   5.730   3.089
55956SOL    HW169765  13.190   5.729   3.178
55956SOL    HW269766  13.098   5.652   3.085
55957SOL     OW69767  12.807   5.391   0.594
55957SOL    HW169768  12.829   5.334   0.520
55957SOL    HW269769  12.727   5.436   0.566
55958SOL     OW69770   6.317   6.455   5.090
55958SOL    HW169771   6.326   6.523   5.157
55958SOL    HW269772   6.244   6.485   5.035
55959SOL     OW69773   8.875   4.536  10.103
55959SOL    HW169774   8.791   4.560  10.064
55959SOL    HW269775   8.917   4.479  10.038
55960SOL     OW69776  14.760   3.571   4.886
55960SOL    HW169777  14.815   3.524   4.950
55960SOL    HW269778  14.699   3.621   4.940
55961SOL     OW69779  13.432   7.301   7.466
55961SOL    HW169780  13.355   7.244   7.476
55961SOL    HW269781  13.463   7.315   7.555
55962SOL     OW69782   4.619   0.879   0.292
55962SOL    HW169783   4.711   0.895   0.312
55962SOL    HW269784   4.607   0.785   0.306
55963SOL     OW69785  14.177   2.253   1.774
55963SOL    HW169786  14.153   2.289   1.859
55963SOL    HW269787  14.271   2.238   1.779
55964SOL     OW69788   0.551   4.727   7.173
55964SOL    HW169789   0.638   4.766   7.164
55964SOL    HW269790   0.496   4.797   7.208
55965SOL     OW69791   7.557   4.794   0.375
55965SOL    HW169792   7.645   4.824   0.351
55965SOL    HW269793   7.530   4.740   0.300
55966SOL     OW69794   1.039  13.298   7.331
55966SOL    HW169795   1.016  13.340   7.415
55966SOL    HW269796   1.065  13.209   7.355
55967SOL     OW69797   2.094   0.727   9.939
55967SOL    HW169798   2.112   0.720  10.033
55967SOL    HW269799   2.165   0.783   9.906
55968SOL     OW69800   5.443  13.337  12.093
55968SOL    HW169801   5.429  13.386  12.013
55968SOL    HW269802   5.356  13.306  12.119
55969SOL     OW69803   2.855   0.414   5.308
55969SOL    HW169804   2.928   0.382   5.255
55969SOL    HW269805   2.783   0.425   5.246
55970SOL     OW69806  11.648  13.086   5.770
55970SOL    HW169807  11.648  13.177   5.740
55970SOL    HW269808  11.561  13.072   5.808
55971SOL     OW69809   0.082  11.423  12.837
55971SOL    HW169810   0.152  11.402  12.899
55971SOL    HW269811   0.028  11.345  12.833
55972SOL     OW69812   1.313  11.512  11.376
55972SOL    HW169813   1.322  11.422  11.345
55972SOL    HW269814   1.280  11.503  11.465
55973SOL     OW69815   2.851   0.131   6.833
55973SOL    HW169816   2.870   0.045   6.872
55973SOL    HW269817   2.766   0.156   6.870
55974SOL     OW69818   4.705  11.503  13.674
55974SOL    HW169819   4.662  11.434  13.623
55974SOL    HW269820   4.791  11.466  13.695
55975SOL     OW69821   4.672   4.729   4.435
55975SOL    HW169822   4.596   4.765   4.389
55975SOL    HW269823   4.636   4.657   4.487
55976SOL     OW69824   6.182   9.027  11.276
55976SOL    HW169825   6.118   9.096  11.259
55976SOL    HW269826   6.198   9.032  11.371
55977SOL     OW69827   0.863   0.706   3.756
55977SOL    HW169828   0.864   0.611   3.743
55977SOL    HW269829   0.817   0.740   3.680
55978SOL     OW69830   0.273   0.050   7.194
55978SOL    HW169831   0.292  14.863   7.252
55978SOL    HW269832   0.179   0.066   7.205
55979SOL     OW69833   5.123  10.776  14.753
55979SOL    HW169834   5.163  10.725  14.823
55979SOL    HW269835   5.030  10.755  14.759
55980SOL     OW69836   4.995   3.808  10.527
55980SOL    HW169837   5.045   3.785  10.606
55980SOL    HW269838   4.913   3.761  10.537
55981SOL     OW69839   2.645  14.289  11.297
55981SOL    HW169840   2.705  14.326  11.363
55981SOL    HW269841   2.558  14.313  11.329
55982SOL     OW69842   2.563   5.589  14.269
55982SOL    HW169843   2.533   5.617  14.182
55982SOL    HW269844   2.584   5.497  14.258
55983SOL     OW69845   9.899   9.652   7.596
55983SOL    HW169846   9.888   9.557   7.600
55983SOL    HW269847   9.834   9.681   7.532
55984SOL     OW69848   8.590   2.373   2.415
55984SOL    HW169849   8.637   2.331   2.343
55984SOL    HW269850   8.650   2.439   2.449
55985SOL     OW69851   3.091   0.107  14.690
55985SOL    HW169852   3.073   0.017  14.717
55985SOL    HW269853   3.165   0.100  14.630
55986SOL     OW69854   1.459   1.093   5.119
55986SOL    HW169855   1.396   1.091   5.191
55986SOL    HW269856   1.408   1.070   5.042
55987SOL     OW69857   7.552   1.380   3.851
55987SOL    HW169858   7.597   1.391   3.767
55987SOL    HW269859   7.606   1.316   3.898
55988SOL     OW69860   5.293   2.836   3.703
55988SOL    HW169861   5.267   2.773   3.636
55988SOL    HW269862   5.349   2.786   3.763
55989SOL     OW69863   6.786   9.068   3.767
55989SOL    HW169864   6.835   9.150   3.766
55989SOL    HW269865   6.854   9.000   3.777
55990SOL     OW69866  14.426   8.475  13.735
55990SOL    HW169867  14.409   8.425  13.815
55990SOL    HW269868  14.379   8.557  13.748
55991SOL     OW69869   4.915  14.075   5.690
55991SOL    HW169870   4.983  14.010   5.707
55991SOL    HW269871   4.837  14.024   5.669
55992SOL     OW69872  13.164   6.611  11.194
55992SOL    HW169873  13.219   6.677  11.236
55992SOL    HW269874  13.219   6.574  11.125
55993SOL     OW69875   9.321   1.884   5.748
55993SOL    HW169876   9.372   1.804   5.737
55993SOL    HW269877   9.377   1.941   5.802
55994SOL     OW69878  13.886   5.784   4.028
55994SOL    HW169879  13.798   5.809   4.054
55994SOL    HW269880  13.873   5.728   3.951
55995SOL     OW69881  12.952  11.268  14.507
55995SOL    HW169882  12.900  11.231  14.579
55995SOL    HW269883  12.962  11.360  14.531
55996SOL     OW69884   5.917   9.152   8.031
55996SOL    HW169885   5.888   9.116   7.947
55996SOL    HW269886   6.011   9.132   8.034
55997SOL     OW69887   8.888   7.331  14.074
55997SOL    HW169888   8.812   7.283  14.107
55997SOL    HW269889   8.860   7.363  13.988
55998SOL     OW69890   3.944   1.559   9.817
55998SOL    HW169891   3.906   1.495   9.757
55998SOL    HW269892   3.875   1.624   9.830
55999SOL     OW69893  12.664   8.875   1.992
55999SOL    HW169894  12.725   8.915   2.055
55999SOL    HW269895  12.716   8.862   1.913
56000SOL     OW69896   7.243   8.028   3.805
56000SOL    HW169897   7.228   8.069   3.720
56000SOL    HW269898   7.256   7.935   3.785
56001SOL     OW69899   8.560  12.486   4.904
56001SOL    HW169900   8.649  12.453   4.891
56001SOL    HW269901   8.509  12.408   4.927
56002SOL     OW69902  12.849   2.657   5.788
56002SOL    HW169903  12.823   2.579   5.838
56002SOL    HW269904  12.930   2.686   5.830
56003SOL     OW69905   5.764   4.562   6.308
56003SOL    HW169906   5.674   4.575   6.278
56003SOL    HW269907   5.772   4.617   6.386
56004SOL     OW69908  12.905   5.630  10.916
56004SOL    HW169909  12.858   5.707  10.884
56004SOL    HW269910  12.868   5.614  11.003
56005SOL     OW69911   6.752   9.810  10.539
56005SOL    HW169912   6.721   9.888  10.493
56005SOL    HW269913   6.703   9.810  10.622
56006SOL     OW69914  14.138  14.845   4.587
56006SOL    HW169915  14.183  14.764   4.563
56006SOL    HW269916  14.072  14.857   4.519
56007SOL     OW69917   6.431   5.594   6.745
56007SOL    HW169918   6.411   5.624   6.834
56007SOL    HW269919   6.494   5.523   6.758
56008SOL     OW69920  11.363   3.964   3.327
56008SOL    HW169921  11.330   4.013   3.402
56008SOL    HW269922  11.331   4.013   3.251
56009SOL     OW69923  14.182   9.754   5.754
56009SOL    HW169924  14.090   9.745   5.729
56009SOL    HW269925  14.214   9.826   5.700
56010SOL     OW69926  13.798  11.229  13.865
56010SOL    HW169927  13.806  11.273  13.949
56010SOL    HW269928  13.881  11.181  13.855
56011SOL     OW69929   9.538   9.821  10.695
56011SOL    HW169930   9.625   9.862  10.691
56011SOL    HW269931   9.493   9.851  10.616
56012SOL     OW69932  11.296  10.698  12.185
56012SOL    HW169933  11.380  10.721  12.224
56012SOL    HW269934  11.302  10.727  12.095
56013SOL     OW69935   8.861   3.700   4.521
56013SOL    HW169936   8.886   3.610   4.543
56013SOL    HW269937   8.807   3.691   4.442
56014SOL     OW69938  13.336  13.045  11.854
56014SOL    HW169939  13.377  12.971  11.899
56014SOL    HW269940  13.282  13.006  11.786
56015SOL     OW69941   5.758  13.241   4.613
56015SOL    HW169942   5.698  13.251   4.687
56015SOL    HW269943   5.831  13.300   4.634
56016SOL     OW69944   7.235  12.063   2.979
56016SOL    HW169945   7.309  12.065   3.041
56016SOL    HW269946   7.195  11.977   2.993
56017SOL     OW69947  12.106  14.474   6.343
56017SOL    HW169948  12.089  14.379   6.343
56017SOL    HW269949  12.124  14.495   6.251
56018SOL     OW69950   9.041  10.711   8.051
56018SOL    HW169951   9.103  10.758   8.106
56018SOL    HW269952   9.058  10.618   8.069
56019SOL     OW69953   9.062   1.042   6.600
56019SOL    HW169954   9.115   0.976   6.556
56019SOL    HW269955   8.995   0.992   6.647
56020SOL     OW69956  13.431  13.227  11.656
56020SOL    HW169957  13.490  13.167  11.610
56020SOL    HW269958  13.343  13.199  11.631
56021SOL     OW69959  11.261  10.881  13.697
56021SOL    HW169960  11.193  10.948  13.694
56021SOL    HW269961  11.340  10.928  13.722
56022SOL     OW69962   6.675   7.980  10.632
56022SOL    HW169963   6.730   8.012  10.560
56022SOL    HW269964   6.632   7.902  10.596
56023SOL     OW69965  10.648  14.447   5.687
56023SOL    HW169966  10.592  14.431   5.612
56023SOL    HW269967  10.638  14.369   5.742
56024SOL     OW69968  10.521   9.590   3.274
56024SOL    HW169969  10.496   9.498   3.270
56024SOL    HW269970  10.604   9.590   3.323
56025SOL     OW69971   9.478   8.820   4.151
56025SOL    HW169972   9.396   8.869   4.146
56025SOL    HW269973   9.507   8.812   4.060
56026SOL     OW69974  12.892  14.371   5.990
56026SOL    HW169975  12.845  14.371   5.906
56026SOL    HW269976  12.878  14.283   6.025
56027SOL     OW69977   1.032  11.195   2.595
56027SOL    HW169978   1.011  11.234   2.680
56027SOL    HW269979   1.111  11.241   2.566
56028SOL     OW69980   3.847  12.097  13.818
56028SOL    HW169981   3.825  12.098  13.725
56028SOL    HW269982   3.850  12.189  13.843
56029SOL     OW69983   7.547   7.564   3.401
56029SOL    HW169984   7.467   7.513   3.414
56029SOL    HW269985   7.525   7.629   3.335
56030SOL     OW69986  11.244  14.360  12.299
56030SOL    HW169987  11.225  14.300  12.226
56030SOL    HW269988  11.326  14.403  12.273
56031SOL     OW69989   2.615   1.012   4.687
56031SOL    HW169990   2.626   1.107   4.679
56031SOL    HW269991   2.572   1.000   4.772
56032SOL     OW69992   6.788  11.399   2.630
56032SOL    HW169993   6.807  11.342   2.705
56032SOL    HW269994   6.779  11.486   2.668
56033SOL     OW69995   6.607  11.009   5.689
56033SOL    HW169996   6.558  10.927   5.684
56033SOL    HW269997   6.575  11.052   5.768
56034SOL     OW69998   9.410   1.232   6.160
56034SOL    HW169999   9.449   1.286   6.091
56034SOL    HW270000   9.415   1.143   6.126
56035SOL     OW70001   8.304   2.002  14.458
56035SOL    HW170002   8.266   1.952  14.386
56035SOL    HW270003   8.397   2.011  14.435
56036SOL     OW70004  11.099  10.068  11.587
56036SOL    HW170005  11.075  10.077  11.679
56036SOL    HW270006  11.188  10.103  11.583
56037SOL     OW70007   0.083  10.042   4.691
56037SOL    HW170008   0.119  10.131   4.684
56037SOL    HW270009   0.049  10.037   4.780
56038SOL     OW70010  13.729  10.523  10.539
56038SOL    HW170011  13.766  10.459  10.479
56038SOL    HW270012  13.784  10.600  10.530
56039SOL     OW70013  10.572   4.744   6.919
56039SOL    HW170014  10.499   4.723   6.978
56039SOL    HW270015  10.599   4.832   6.945
56040SOL     OW70016   9.103  12.205  14.120
56040SOL    HW170017   9.080  12.276  14.061
56040SOL    HW270018   9.195  12.219  14.141
56041SOL     OW70019   5.403  14.485   9.830
56041SOL    HW170020   5.328  14.454   9.880
56041SOL    HW270021   5.366  14.510   9.745
56042SOL     OW70022   3.247  10.496  14.112
56042SOL    HW170023   3.291  10.440  14.048
56042SOL    HW270024   3.306  10.496  14.188
56043SOL     OW70025   3.986   0.375   4.962
56043SOL    HW170026   4.049   0.446   4.955
56043SOL    HW270027   4.036   0.296   4.939
56044SOL     OW70028   0.117   2.120   1.096
56044SOL    HW170029   0.029   2.153   1.117
56044SOL    HW270030   0.102   2.034   1.057
56045SOL     OW70031   2.366   4.725  12.057
56045SOL    HW170032   2.401   4.737  11.969
56045SOL    HW270033   2.279   4.686  12.044
56046SOL     OW70034   6.030   5.175   2.259
56046SOL    HW170035   5.975   5.252   2.242
56046SOL    HW270036   5.999   5.109   2.197
56047SOL     OW70037  10.016  13.126   3.279
56047SOL    HW170038  10.083  13.098   3.342
56047SOL    HW270039  10.045  13.089   3.196
56048SOL     OW70040   0.912  11.093  12.667
56048SOL    HW170041   0.893  11.109  12.575
56048SOL    HW270042   0.830  11.060  12.703
56049SOL     OW70043   0.149   4.234   7.114
56049SOL    HW170044   0.183   4.149   7.141
56049SOL    HW270045   0.055   4.221   7.101
56050SOL     OW70046  14.367   7.687   0.004
56050SOL    HW170047  14.434   7.692   0.072
56050SOL    HW270048  14.284   7.686   0.051
56051SOL     OW70049   2.356   9.725   6.581
56051SOL    HW170050   2.356   9.629   6.575
56051SOL    HW270051   2.403   9.753   6.502
56052SOL     OW70052  11.759  13.116   1.592
56052SOL    HW170053  11.767  13.104   1.686
56052SOL    HW270054  11.784  13.032   1.555
56053SOL     OW70055   2.830   9.551   2.846
56053SOL    HW170056   2.778   9.470   2.844
56053SOL    HW270057   2.851   9.563   2.939
56054SOL     OW70058  14.658   7.241  11.408
56054SOL    HW170059  14.673   7.292  11.487
56054SOL    HW270060  14.615   7.161  11.439
56055SOL     OW70061  13.467  10.163   9.833
56055SOL    HW170062  13.396  10.227   9.823
56055SOL    HW270063  13.547  10.214   9.821
56056SOL     OW70064   6.333  10.393   1.734
56056SOL    HW170065   6.253  10.348   1.706
56056SOL    HW270066   6.345  10.366   1.825
56057SOL     OW70067  13.349  10.002  10.428
56057SOL    HW170068  13.302   9.919  10.428
56057SOL    HW270069  13.358  10.025  10.521
56058SOL     OW70070   6.446  13.065  11.719
56058SOL    HW170071   6.388  12.989  11.712
56058SOL    HW270072   6.500  13.046  11.796
56059SOL     OW70073   1.271  11.941   2.521
56059SOL    HW170074   1.261  11.991   2.440
56059SOL    HW270075   1.364  11.950   2.544
56060SOL     OW70076   8.780   0.457   2.991
56060SOL    HW170077   8.812   0.386   3.047
56060SOL    HW270078   8.836   0.453   2.913
56061SOL     OW70079   7.379  14.520   3.203
56061SOL    HW170080   7.397  14.614   3.207
56061SOL    HW270081   7.306  14.507   3.263
56062SOL     OW70082  13.891   1.115   7.012
56062SOL    HW170083  13.936   1.073   6.939
56062SOL    HW270084  13.853   1.042   7.062
56063SOL     OW70085  13.027   9.008   7.982
56063SOL    HW170086  13.015   8.955   7.903
56063SOL    HW270087  13.077   9.084   7.953
56064SOL     OW70088   9.088   0.267  12.999
56064SOL    HW170089   9.058   0.197  13.056
56064SOL    HW270090   9.036   0.343  13.026
56065SOL     OW70091  11.478  12.933   5.178
56065SOL    HW170092  11.465  12.894   5.264
56065SOL    HW270093  11.480  13.027   5.194
56066SOL     OW70094  10.293   6.945   2.903
56066SOL    HW170095  10.210   6.944   2.856
56066SOL    HW270096  10.270   6.975   2.991
56067SOL     OW70097   1.602   3.190   9.104
56067SOL    HW170098   1.642   3.263   9.055
56067SOL    HW270099   1.519   3.174   9.059
56068SOL     OW70100  10.266   5.907   8.915
56068SOL    HW170101  10.193   5.850   8.937
56068SOL    HW270102  10.333   5.848   8.881
56069SOL     OW70103   0.082   7.351   5.837
56069SOL    HW170104   0.041   7.337   5.752
56069SOL    HW270105   0.073   7.267   5.882
56070SOL     OW70106   9.818  11.956  12.776
56070SOL    HW170107   9.756  11.968  12.705
56070SOL    HW270108   9.801  11.867  12.808
56071SOL     OW70109   4.847  14.482  11.683
56071SOL    HW170110   4.931  14.525  11.664
56071SOL    HW270111   4.781  14.544  11.652
56072SOL     OW70112   5.630  12.154   1.449
56072SOL    HW170113   5.576  12.156   1.528
56072SOL    HW270114   5.581  12.206   1.385
56073SOL     OW70115   5.772  10.650   5.082
56073SOL    HW170116   5.708  10.584   5.108
56073SOL    HW270117   5.833  10.656   5.155
56074SOL     OW70118   4.609   4.365   5.986
56074SOL    HW170119   4.535   4.420   5.962
56074SOL    HW270120   4.571   4.278   5.996
56075SOL     OW70121   7.294   9.732   3.709
56075SOL    HW170122   7.208   9.772   3.715
56075SOL    HW270123   7.320   9.717   3.800
56076SOL     OW70124   2.695  10.148   4.813
56076SOL    HW170125   2.651  10.070   4.846
56076SOL    HW270126   2.625  10.206   4.784
56077SOL     OW70127   2.902  13.511  12.185
56077SOL    HW170128   2.977  13.513  12.125
56077SOL    HW270129   2.918  13.435  12.241
56078SOL     OW70130   0.978  13.812   3.400
56078SOL    HW170131   1.002  13.876   3.333
56078SOL    HW270132   1.034  13.737   3.382
56079SOL     OW70133   4.466  10.019  12.000
56079SOL    HW170134   4.525   9.945  11.981
56079SOL    HW270135   4.400  10.016  11.932
56080SOL     OW70136   2.901   0.934   6.947
56080SOL    HW170137   2.907   1.026   6.973
56080SOL    HW270138   2.977   0.892   6.988
56081SOL     OW70139  14.212   8.706  12.593
56081SOL    HW170140  14.141   8.729  12.532
56081SOL    HW270141  14.284   8.764  12.568
56082SOL     OW70142   8.810   1.403   1.551
56082SOL    HW170143   8.755   1.324   1.549
56082SOL    HW270144   8.752   1.472   1.583
56083SOL     OW70145   6.021  11.424   6.050
56083SOL    HW170146   5.966  11.352   6.079
56083SOL    HW270147   6.098  11.419   6.107
56084SOL     OW70148  12.853  11.645   2.952
56084SOL    HW170149  12.805  11.636   3.035
56084SOL    HW270150  12.863  11.740   2.942
56085SOL     OW70151   1.251   6.745   0.409
56085SOL    HW170152   1.317   6.683   0.439
56085SOL    HW270153   1.183   6.741   0.477
56086SOL     OW70154  10.026  12.849   5.239
56086SOL    HW170155  10.014  12.755   5.224
56086SOL    HW270156   9.993  12.863   5.328
56087SOL     OW70157   8.337   9.524  12.824
56087SOL    HW170158   8.249   9.544  12.794
56087SOL    HW270159   8.346   9.571  12.906
56088SOL     OW70160   9.330   4.783   9.855
56088SOL    HW170161   9.282   4.846   9.908
56088SOL    HW270162   9.414   4.825   9.839
56089SOL     OW70163  11.328   6.450   2.797
56089SOL    HW170164  11.380   6.525   2.827
56089SOL    HW270165  11.384   6.407   2.732
56090SOL     OW70166  11.309   2.592   3.837
56090SOL    HW170167  11.261   2.665   3.799
56090SOL    HW270168  11.269   2.578   3.923
56091SOL     OW70169   6.912   2.859   0.996
56091SOL    HW170170   6.973   2.863   1.070
56091SOL    HW270171   6.910   2.949   0.962
56092SOL     OW70172  14.388   8.408   4.430
56092SOL    HW170173  14.359   8.398   4.339
56092SOL    HW270174  14.326   8.471   4.467
56093SOL     OW70175   8.918   1.381   4.072
56093SOL    HW170176   8.872   1.455   4.031
56093SOL    HW270177   8.964   1.420   4.146
56094SOL     OW70178   9.791  13.364   3.182
56094SOL    HW170179   9.726  13.431   3.160
56094SOL    HW270180   9.821  13.388   3.270
56095SOL     OW70181  10.871  13.936   7.031
56095SOL    HW170182  10.965  13.951   7.029
56095SOL    HW270183  10.850  13.922   7.124
56096SOL     OW70184   8.215  10.659  14.147
56096SOL    HW170185   8.131  10.631  14.111
56096SOL    HW270186   8.265  10.688  14.072
56097SOL     OW70187   2.854   4.389   2.490
56097SOL    HW170188   2.870   4.468   2.541
56097SOL    HW270189   2.817   4.421   2.408
56098SOL     OW70190  12.294   0.271  14.523
56098SOL    HW170191  12.364   0.212  14.494
56098SOL    HW270192  12.337   0.356  14.535
56099SOL     OW70193  13.466   8.660   9.806
56099SOL    HW170194  13.485   8.711   9.884
56099SOL    HW270195  13.550   8.622   9.780
56100SOL     OW70196  11.389   6.115  10.275
56100SOL    HW170197  11.296   6.105  10.258
56100SOL    HW270198  11.415   6.190  10.222
56101SOL     OW70199   9.209   2.667  10.817
56101SOL    HW170200   9.294   2.709  10.806
56101SOL    HW270201   9.227   2.589  10.869
56102SOL     OW70202  11.642  13.309   9.430
56102SOL    HW170203  11.668  13.232   9.379
56102SOL    HW270204  11.552  13.291   9.457
56103SOL     OW70205   6.338  12.596   1.785
56103SOL    HW170206   6.342  12.533   1.712
56103SOL    HW270207   6.245  12.621   1.790
56104SOL     OW70208  11.481   1.506  13.720
56104SOL    HW170209  11.505   1.573  13.657
56104SOL    HW270210  11.399   1.470  13.688
56105SOL     OW70211  14.107   1.270  13.197
56105SOL    HW170212  14.202   1.262  13.188
56105SOL    HW270213  14.095   1.347  13.253
56106SOL     OW70214   4.346  13.344  14.750
56106SOL    HW170215   4.345  13.389  14.666
56106SOL    HW270216   4.266  13.292  14.750
56107SOL     OW70217   0.867  12.814   3.616
56107SOL    HW170218   0.857  12.906   3.595
56107SOL    HW270219   0.928  12.813   3.691
56108SOL     OW70220  14.298  13.096  14.339
56108SOL    HW170221  14.318  13.148  14.261
56108SOL    HW270222  14.363  13.122  14.404
56109SOL     OW70223  12.509   9.105   7.925
56109SOL    HW170224  12.584   9.090   7.982
56109SOL    HW270225  12.463   9.020   7.923
56110SOL     OW70226   3.418   5.083  13.529
56110SOL    HW170227   3.331   5.119  13.549
56110SOL    HW270228   3.403   5.028  13.452
56111SOL     OW70229  14.613   1.105  10.877
56111SOL    HW170230  14.541   1.124  10.936
56111SOL    HW270231  14.674   1.177  10.890
56112SOL     OW70232   7.028   3.643   0.445
56112SOL    HW170233   7.017   3.727   0.400
56112SOL    HW270234   7.060   3.583   0.377
56113SOL     OW70235   2.910   4.931   3.700
56113SOL    HW170236   2.912   4.839   3.674
56113SOL    HW270237   2.817   4.953   3.700
56114SOL     OW70238   8.032   9.204   0.210
56114SOL    HW170239   7.988   9.178   0.129
56114SOL    HW270240   8.036   9.299   0.206
56115SOL     OW70241  10.563  14.173   9.174
56115SOL    HW170242  10.562  14.080   9.193
56115SOL    HW270243  10.486  14.208   9.219
56116SOL     OW70244   2.143   1.691  10.890
56116SOL    HW170245   2.164   1.613  10.940
56116SOL    HW270246   2.112   1.658  10.806
56117SOL     OW70247   8.928   7.172  13.597
56117SOL    HW170248   8.867   7.243  13.579
56117SOL    HW270249   8.872   7.096  13.612
56118SOL     OW70250   4.962   2.068  14.093
56118SOL    HW170251   4.947   1.999  14.158
56118SOL    HW270252   5.047   2.105  14.116
56119SOL     OW70253   3.539  14.244   9.088
56119SOL    HW170254   3.614  14.191   9.060
56119SOL    HW270255   3.495  14.269   9.007
56120SOL     OW70256  12.836   3.400  14.040
56120SOL    HW170257  12.767   3.437  13.985
56120SOL    HW270258  12.813   3.426  14.129
56121SOL     OW70259  10.857   5.366  14.019
56121SOL    HW170260  10.865   5.323  14.105
56121SOL    HW270261  10.876   5.297  13.956
56122SOL     OW70262  12.265   0.175   0.051
56122SOL    HW170263  12.310   0.233   0.112
56122SOL    HW270264  12.335   0.138  14.883
56123SOL     OW70265   9.400   3.117   0.768
56123SOL    HW170266   9.317   3.161   0.752
56123SOL    HW270267   9.444   3.172   0.833
56124SOL     OW70268  13.788   5.447   4.617
56124SOL    HW170269  13.757   5.533   4.587
56124SOL    HW270270  13.845   5.466   4.691
56125SOL     OW70271  11.909   4.937   6.056
56125SOL    HW170272  11.925   4.885   6.136
56125SOL    HW270273  11.869   4.875   5.995
56126SOL     OW70274   7.706   7.887   5.137
56126SOL    HW170275   7.710   7.802   5.182
56126SOL    HW270276   7.765   7.944   5.186
56127SOL     OW70277   0.020  12.938  12.250
56127SOL    HW170278  14.842  12.980  12.194
56127SOL    HW270279   0.086  12.905  12.189
56128SOL     OW70280   2.612  11.024   6.476
56128SOL    HW170281   2.694  11.004   6.521
56128SOL    HW270282   2.566  10.941   6.470
56129SOL     OW70283  14.009   9.975  10.646
56129SOL    HW170284  13.927   9.928  10.664
56129SOL    HW270285  14.048   9.927  10.573
56130SOL     OW70286   0.410   3.186   6.007
56130SOL    HW170287   0.441   3.271   5.976
56130SOL    HW270288   0.443   3.180   6.097
56131SOL     OW70289   8.012  11.879   3.346
56131SOL    HW170290   8.002  11.799   3.397
56131SOL    HW270291   8.030  11.947   3.410
56132SOL     OW70292   1.326  13.390   2.088
56132SOL    HW170293   1.293  13.429   2.007
56132SOL    HW270294   1.417  13.417   2.092
56133SOL     OW70295   5.494  13.447   4.029
56133SOL    HW170296   5.460  13.388   4.096
56133SOL    HW270297   5.587  13.425   4.023
56134SOL     OW70298   0.786  12.368  14.360
56134SOL    HW170299   0.757  12.460  14.363
56134SOL    HW270300   0.733  12.329  14.291
56135SOL     OW70301   6.452  10.391   4.577
56135SOL    HW170302   6.361  10.419   4.586
56135SOL    HW270303   6.473  10.350   4.661
56136SOL     OW70304   2.415   7.532   0.210
56136SOL    HW170305   2.411   7.590   0.134
56136SOL    HW270306   2.379   7.583   0.282
56137SOL     OW70307  14.434   4.791   8.596
56137SOL    HW170308  14.440   4.871   8.648
56137SOL    HW270309  14.341   4.770   8.594
56138SOL     OW70310  11.632   9.967   1.770
56138SOL    HW170311  11.701  10.005   1.715
56138SOL    HW270312  11.557   9.957   1.711
56139SOL     OW70313  12.182   4.528   3.055
56139SOL    HW170314  12.139   4.498   2.975
56139SOL    HW270315  12.134   4.607   3.080
56140SOL     OW70316   9.222   3.324   6.220
56140SOL    HW170317   9.212   3.395   6.284
56140SOL    HW270318   9.167   3.253   6.255
56141SOL     OW70319   6.830   2.499   4.475
56141SOL    HW170320   6.877   2.550   4.540
56141SOL    HW270321   6.775   2.440   4.526
56142SOL     OW70322  12.291   0.182   4.668
56142SOL    HW170323  12.309   0.164   4.576
56142SOL    HW270324  12.369   0.229   4.699
56143SOL     OW70325  14.286  10.403   9.940
56143SOL    HW170326  14.338  10.338   9.987
56143SOL    HW270327  14.276  10.368   9.852
56144SOL     OW70328   6.130   3.443   4.543
56144SOL    HW170329   6.206   3.470   4.491
56144SOL    HW270330   6.074   3.521   4.546
56145SOL     OW70331   1.431   0.904   5.834
56145SOL    HW170332   1.422   0.999   5.836
56145SOL    HW270333   1.391   0.875   5.916
56146SOL     OW70334   4.528  14.758  13.914
56146SOL    HW170335   4.441  14.723  13.933
56146SOL    HW270336   4.576  14.683  13.878
56147SOL     OW70337   9.495  14.859   3.548
56147SOL    HW170338   9.492   0.056   3.502
56147SOL    HW270339   9.573  14.816   3.514
56148SOL     OW70340   0.510   9.317   9.536
56148SOL    HW170341   0.497   9.277   9.450
56148SOL    HW270342   0.573   9.388   9.520
56149SOL     OW70343   0.081  10.638   3.894
56149SOL    HW170344   0.119  10.588   3.966
56149SOL    HW270345  14.886  10.594   3.875
56150SOL     OW70346  10.949   2.889   8.264
56150SOL    HW170347  11.025   2.911   8.211
56150SOL    HW270348  10.886   2.958   8.246
56151SOL     OW70349   8.592   7.806   7.669
56151SOL    HW170350   8.580   7.874   7.602
56151SOL    HW270351   8.563   7.725   7.627
56152SOL     OW70352   4.155   3.308   0.470
56152SOL    HW170353   4.116   3.306   0.382
56152SOL    HW270354   4.085   3.277   0.528
56153SOL     OW70355   8.441   3.325   9.505
56153SOL    HW170356   8.396   3.302   9.587
56153SOL    HW270357   8.454   3.241   9.461
56154SOL     OW70358  14.796  11.140   8.907
56154SOL    HW170359  14.805  11.228   8.945
56154SOL    HW270360  14.886  11.111   8.894
56155SOL     OW70361   0.605  13.121   9.130
56155SOL    HW170362   0.594  13.194   9.192
56155SOL    HW270363   0.617  13.164   9.045
56156SOL     OW70364   4.605   5.633   1.865
56156SOL    HW170365   4.553   5.559   1.834
56156SOL    HW270366   4.561   5.710   1.830
56157SOL     OW70367   3.233   2.804   8.100
56157SOL    HW170368   3.178   2.747   8.046
56157SOL    HW270369   3.275   2.744   8.162
56158SOL     OW70370   8.575   3.511   2.693
56158SOL    HW170371   8.543   3.425   2.720
56158SOL    HW270372   8.626   3.494   2.614
56159SOL     OW70373   2.130   4.811  13.617
56159SOL    HW170374   2.063   4.790  13.682
56159SOL    HW270375   2.177   4.886  13.653
56160SOL     OW70376   9.979   1.548   2.873
56160SOL    HW170377   9.933   1.572   2.792
56160SOL    HW270378  10.066   1.520   2.843
56161SOL     OW70379   2.004  10.520  11.753
56161SOL    HW170380   2.090  10.561  11.746
56161SOL    HW270381   1.943  10.584  11.716
56162SOL     OW70382   1.097   2.748  11.860
56162SOL    HW170383   1.086   2.793  11.776
56162SOL    HW270384   1.146   2.810  11.914
56163SOL     OW70385  14.368   8.770  13.533
56163SOL    HW170386  14.328   8.801  13.615
56163SOL    HW270387  14.444   8.719  13.561
56164SOL     OW70388   3.350   1.654   3.687
56164SOL    HW170389   3.323   1.642   3.596
56164SOL    HW270390   3.344   1.749   3.701
56165SOL     OW70391   3.851  11.028   3.365
56165SOL    HW170392   3.912  10.961   3.332
56165SOL    HW270393   3.905  11.107   3.373
56166SOL     OW70394   6.433   5.608   0.246
56166SOL    HW170395   6.528   5.596   0.237
56166SOL    HW270396   6.395   5.531   0.204
56167SOL     OW70397   1.448   4.338   7.612
56167SOL    HW170398   1.388   4.319   7.540
56167SOL    HW270399   1.425   4.426   7.640
56168SOL     OW70400   1.760   1.746   2.160
56168SOL    HW170401   1.793   1.734   2.250
56168SOL    HW270402   1.751   1.841   2.150
56169SOL     OW70403  10.650  10.296   0.968
56169SOL    HW170404  10.722  10.243   0.935
56169SOL    HW270405  10.637  10.363   0.900
56170SOL     OW70406   6.749  11.373  10.923
56170SOL    HW170407   6.772  11.416  10.841
56170SOL    HW270408   6.830  11.375  10.974
56171SOL     OW70409   4.826   5.837   6.403
56171SOL    HW170410   4.873   5.916   6.429
56171SOL    HW270411   4.784   5.860   6.320
56172SOL     OW70412   7.459   3.308  12.982
56172SOL    HW170413   7.464   3.307  13.078
56172SOL    HW270414   7.472   3.217  12.956
56173SOL     OW70415   9.006  14.362  13.093
56173SOL    HW170416   8.956  14.443  13.087
56173SOL    HW270417   9.064  14.363  13.017
56174SOL     OW70418  12.818  14.247   7.641
56174SOL    HW170419  12.748  14.189   7.670
56174SOL    HW270420  12.830  14.225   7.549
56175SOL     OW70421  14.521  11.542   8.375
56175SOL    HW170422  14.488  11.587   8.297
56175SOL    HW270423  14.456  11.559   8.443
56176SOL     OW70424  12.663   3.925  12.869
56176SOL    HW170425  12.579   3.895  12.904
56176SOL    HW270426  12.727   3.899  12.936
56177SOL     OW70427   7.829   9.085  14.101
56177SOL    HW170428   7.873   9.012  14.058
56177SOL    HW270429   7.827   9.061  14.194
56178SOL     OW70430  11.799   1.461   0.834
56178SOL    HW170431  11.843   1.536   0.873
56178SOL    HW270432  11.776   1.490   0.746
56179SOL     OW70433   4.227  11.308  10.183
56179SOL    HW170434   4.236  11.402  10.168
56179SOL    HW270435   4.307  11.282  10.229
56180SOL     OW70436   5.406  12.876   3.377
56180SOL    HW170437   5.437  12.955   3.334
56180SOL    HW270438   5.318  12.898   3.406
56181SOL     OW70439   9.780   1.161  12.630
56181SOL    HW170440   9.777   1.096  12.560
56181SOL    HW270441   9.726   1.233  12.599
56182SOL     OW70442   8.443   2.525   1.984
56182SOL    HW170443   8.421   2.543   1.893
56182SOL    HW270444   8.526   2.571   1.998
56183SOL     OW70445   7.909   2.259  14.221
56183SOL    HW170446   7.897   2.169  14.251
56183SOL    HW270447   7.887   2.257  14.128
56184SOL     OW70448   0.509   1.531  13.144
56184SOL    HW170449   0.449   1.543  13.218
56184SOL    HW270450   0.570   1.604  13.150
56185SOL     OW70451  13.385   3.005   6.199
56185SOL    HW170452  13.381   2.976   6.108
56185SOL    HW270453  13.391   2.924   6.250
56186SOL     OW70454   1.662  10.823   3.055
56186SOL    HW170455   1.727  10.836   2.986
56186SOL    HW270456   1.714  10.812   3.135
56187SOL     OW70457   3.600   0.601   7.981
56187SOL    HW170458   3.511   0.579   8.008
56187SOL    HW270459   3.595   0.608   7.886
56188SOL     OW70460   9.154  11.945  14.285
56188SOL    HW170461   9.162  11.981  14.373
56188SOL    HW270462   9.148  12.021  14.228
56189SOL     OW70463  10.103   6.453   2.793
56189SOL    HW170464  10.057   6.382   2.749
56189SOL    HW270465  10.080   6.532   2.744
56190SOL     OW70466   0.767  12.633   8.724
56190SOL    HW170467   0.841  12.574   8.735
56190SOL    HW270468   0.693  12.575   8.705
56191SOL     OW70469   4.646   4.374   7.886
56191SOL    HW170470   4.741   4.381   7.891
56191SOL    HW270471   4.628   4.339   7.799
56192SOL     OW70472   7.652   8.098  13.559
56192SOL    HW170473   7.654   8.006  13.532
56192SOL    HW270474   7.570   8.132  13.523
56193SOL     OW70475  13.545   5.930  13.932
56193SOL    HW170476  13.631   5.964  13.954
56193SOL    HW270477  13.506   5.997  13.876
56194SOL     OW70478  13.954   7.602  14.761
56194SOL    HW170479  13.992   7.672  14.815
56194SOL    HW270480  13.922   7.647  14.683
56195SOL     OW70481   9.917   4.561  12.993
56195SOL    HW170482   9.907   4.583  12.900
56195SOL    HW270483   9.863   4.626  13.038
56196SOL     OW70484   3.958   1.096   1.663
56196SOL    HW170485   3.871   1.059   1.672
56196SOL    HW270486   4.001   1.075   1.746
56197SOL     OW70487  12.558   4.078  14.418
56197SOL    HW170488  12.482   4.068  14.360
56197SOL    HW270489  12.541   4.020  14.491
56198SOL     OW70490  13.513  10.102   8.930
56198SOL    HW170491  13.599  10.088   8.969
56198SOL    HW270492  13.519  10.059   8.845
56199SOL     OW70493   6.425   7.769   9.623
56199SOL    HW170494   6.396   7.797   9.710
56199SOL    HW270495   6.466   7.684   9.637
56200SOL     OW70496   7.391   6.997   2.177
56200SOL    HW170497   7.307   6.997   2.224
56200SOL    HW270498   7.450   7.044   2.236
56201SOL     OW70499   0.813  14.458   1.784
56201SOL    HW170500   0.865  14.450   1.703
56201SOL    HW270501   0.756  14.382   1.783
56202SOL     OW70502  10.620   1.705  12.083
56202SOL    HW170503  10.556   1.748  12.027
56202SOL    HW270504  10.676   1.656  12.022
56203SOL     OW70505  11.953   6.568  11.038
56203SOL    HW170506  11.990   6.642  10.990
56203SOL    HW270507  11.990   6.576  11.126
56204SOL     OW70508   8.218   4.109  12.341
56204SOL    HW170509   8.162   4.169  12.292
56204SOL    HW270510   8.221   4.030  12.287
56205SOL     OW70511  11.998   8.621   6.618
56205SOL    HW170512  12.000   8.716   6.633
56205SOL    HW270513  12.059   8.608   6.545
56206SOL     OW70514   2.539  12.460  12.017
56206SOL    HW170515   2.497  12.512  12.086
56206SOL    HW270516   2.619  12.427  12.057
56207SOL     OW70517  10.895   9.906   6.280
56207SOL    HW170518  10.951   9.893   6.204
56207SOL    HW270519  10.821   9.846   6.266
56208SOL     OW70520   9.369   1.656  11.785
56208SOL    HW170521   9.455   1.653  11.826
56208SOL    HW270522   9.330   1.737  11.819
56209SOL     OW70523  12.122  13.993   0.367
56209SOL    HW170524  12.065  14.041   0.427
56209SOL    HW270525  12.126  13.904   0.404
56210SOL     OW70526  10.968   0.197   7.696
56210SOL    HW170527  11.029   0.181   7.768
56210SOL    HW270528  10.909   0.122   7.697
56211SOL     OW70529  14.759  13.352  11.711
56211SOL    HW170530  14.694  13.288  11.682
56211SOL    HW270531  14.751  13.424  11.650
56212SOL     OW70532   3.464   2.068   2.247
56212SOL    HW170533   3.466   1.981   2.207
56212SOL    HW270534   3.519   2.060   2.325
56213SOL     OW70535   8.496  12.348   0.104
56213SOL    HW170536   8.568  12.286   0.115
56213SOL    HW270537   8.453  12.322   0.022
56214SOL     OW70538   1.688  10.243   6.287
56214SOL    HW170539   1.642  10.299   6.350
56214SOL    HW270540   1.772  10.225   6.328
56215SOL     OW70541   5.466  10.140   9.733
56215SOL    HW170542   5.375  10.141   9.703
56215SOL    HW270543   5.466  10.199   9.809
56216SOL     OW70544  11.953   3.663  10.066
56216SOL    HW170545  11.949   3.742  10.013
56216SOL    HW270546  11.865   3.653  10.102
56217SOL     OW70547  10.187  11.263  13.228
56217SOL    HW170548  10.162  11.214  13.306
56217SOL    HW270549  10.188  11.197  13.158
56218SOL     OW70550   4.506   8.976  13.255
56218SOL    HW170551   4.441   8.964  13.324
56218SOL    HW270552   4.486   8.908  13.191
56219SOL     OW70553  11.042  11.362  11.904
56219SOL    HW170554  11.073  11.333  11.818
56219SOL    HW270555  11.072  11.453  11.911
56220SOL     OW70556   4.030   4.204  14.521
56220SOL    HW170557   4.066   4.293  14.529
56220SOL    HW270558   3.972   4.209  14.446
56221SOL     OW70559   4.700   2.530  11.421
56221SOL    HW170560   4.761   2.518  11.347
56221SOL    HW270561   4.648   2.450  11.421
56222SOL     OW70562  11.644   7.647   2.843
56222SOL    HW170563  11.677   7.559   2.825
56222SOL    HW270564  11.549   7.641   2.829
56223SOL     OW70565  10.689  12.034   3.733
56223SOL    HW170566  10.612  12.088   3.720
56223SOL    HW270567  10.759  12.081   3.687
56224SOL     OW70568   2.257   7.994   5.450
56224SOL    HW170569   2.221   8.042   5.375
56224SOL    HW270570   2.343   7.964   5.420
56225SOL     OW70571   6.055   9.920  10.062
56225SOL    HW170572   6.126   9.975  10.096
56225SOL    HW270573   6.071   9.917   9.967
56226SOL     OW70574  11.481   4.145   8.173
56226SOL    HW170575  11.442   4.165   8.258
56226SOL    HW270576  11.481   4.229   8.127
56227SOL     OW70577   5.985  14.303   9.347
56227SOL    HW170578   5.997  14.226   9.402
56227SOL    HW270579   5.900  14.338   9.373
56228SOL     OW70580   6.238   8.107   6.014
56228SOL    HW170581   6.244   8.201   5.999
56228SOL    HW270582   6.194   8.073   5.935
56229SOL     OW70583   3.292  13.165   1.539
56229SOL    HW170584   3.282  13.258   1.562
56229SOL    HW270585   3.267  13.118   1.618
56230SOL     OW70586  11.093  12.276   8.869
56230SOL    HW170587  11.072  12.369   8.858
56230SOL    HW270588  11.009  12.235   8.887
56231SOL     OW70589   3.272   3.055   8.442
56231SOL    HW170590   3.319   3.116   8.499
56231SOL    HW270591   3.342   3.011   8.392
56232SOL     OW70592  14.267   6.557  10.067
56232SOL    HW170593  14.355   6.582  10.094
56232SOL    HW270594  14.239   6.495  10.135
56233SOL     OW70595   0.322  11.591   5.668
56233SOL    HW170596   0.383  11.540   5.615
56233SOL    HW270597   0.358  11.679   5.667
56234SOL     OW70598   8.642   6.199  12.655
56234SOL    HW170599   8.718   6.212  12.600
56234SOL    HW270600   8.572   6.175  12.595
56235SOL     OW70601   5.967   3.931   8.790
56235SOL    HW170602   5.930   4.018   8.779
56235SOL    HW270603   6.034   3.925   8.723
56236SOL     OW70604   6.930  12.098   4.364
56236SOL    HW170605   7.017  12.060   4.350
56236SOL    HW270606   6.934  12.134   4.453
56237SOL     OW70607   0.814   3.176  10.820
56237SOL    HW170608   0.792   3.268  10.829
56237SOL    HW270609   0.870   3.157  10.895
56238SOL     OW70610  12.124   8.983   5.333
56238SOL    HW170611  12.049   9.021   5.380
56238SOL    HW270612  12.134   9.038   5.255
56239SOL     OW70613  12.797   6.221   9.211
56239SOL    HW170614  12.703   6.223   9.231
56239SOL    HW270615  12.824   6.313   9.213
56240SOL     OW70616  14.484   2.734   9.294
56240SOL    HW170617  14.570   2.762   9.264
56240SOL    HW270618  14.496   2.715   9.387
56241SOL     OW70619   7.867  11.149   4.588
56241SOL    HW170620   7.863  11.126   4.681
56241SOL    HW270621   7.934  11.091   4.552
56242SOL     OW70622   4.489   1.332   5.656
56242SOL    HW170623   4.470   1.387   5.580
56242SOL    HW270624   4.580   1.306   5.644
56243SOL     OW70625  13.027   5.546  11.572
56243SOL    HW170626  13.062   5.618  11.623
56243SOL    HW270627  12.989   5.486  11.636
56244SOL     OW70628   0.720  13.293   1.088
56244SOL    HW170629   0.659  13.242   1.035
56244SOL    HW270630   0.720  13.379   1.048
56245SOL     OW70631   7.108  12.649  11.651
56245SOL    HW170632   7.078  12.605  11.572
56245SOL    HW270633   7.056  12.730  11.654
56246SOL     OW70634   0.832   7.393   8.157
56246SOL    HW170635   0.817   7.429   8.070
56246SOL    HW270636   0.924   7.366   8.157
56247SOL     OW70637   6.801  10.275  12.538
56247SOL    HW170638   6.886  10.304  12.572
56247SOL    HW270639   6.782  10.195  12.587
56248SOL     OW70640  12.543   0.786  13.225
56248SOL    HW170641  12.569   0.874  13.199
56248SOL    HW270642  12.625   0.740  13.238
56249SOL     OW70643   2.323   8.218  12.107
56249SOL    HW170644   2.296   8.138  12.151
56249SOL    HW270645   2.242   8.257  12.075
56250SOL     OW70646  13.975   7.670   4.453
56250SOL    HW170647  13.896   7.724   4.461
56250SOL    HW270648  14.045   7.724   4.489
56251SOL     OW70649   0.301  11.919  12.445
56251SOL    HW170650   0.208  11.900  12.444
56251SOL    HW270651   0.306  12.014  12.434
56252SOL     OW70652  12.857   2.589  10.173
56252SOL    HW170653  12.904   2.506  10.165
56252SOL    HW270654  12.856   2.608  10.266
56253SOL     OW70655   9.270   8.141  11.313
56253SOL    HW170656   9.174   8.142  11.312
56253SOL    HW270657   9.293   8.188  11.393
56254SOL     OW70658  12.340   4.597  10.027
56254SOL    HW170659  12.388   4.541   9.967
56254SOL    HW270660  12.377   4.685  10.013
56255SOL     OW70661   1.647  11.052   4.462
56255SOL    HW170662   1.686  11.004   4.536
56255SOL    HW270663   1.620  10.984   4.401
56256SOL     OW70664   3.183   7.952   2.471
56256SOL    HW170665   3.262   7.909   2.438
56256SOL    HW270666   3.189   8.042   2.437
56257SOL     OW70667   0.352  13.145   6.804
56257SOL    HW170668   0.279  13.159   6.743
56257SOL    HW270669   0.429  13.169   6.753
56258SOL     OW70670   4.427  11.798   8.244
56258SOL    HW170671   4.358  11.849   8.288
56258SOL    HW270672   4.451  11.851   8.168
56259SOL     OW70673  12.571   8.372   4.903
56259SOL    HW170674  12.529   8.297   4.944
56259SOL    HW270675  12.609   8.337   4.822
56260SOL     OW70676   3.206  11.036   4.052
56260SOL    HW170677   3.145  10.997   4.113
56260SOL    HW270678   3.160  11.035   3.968
56261SOL     OW70679   2.365  12.620   5.584
56261SOL    HW170680   2.400  12.694   5.534
56261SOL    HW270681   2.414  12.544   5.552
56262SOL     OW70682  11.184   3.859  10.939
56262SOL    HW170683  11.183   3.832  11.031
56262SOL    HW270684  11.272   3.895  10.926
56263SOL     OW70685  12.823   8.014   3.774
56263SOL    HW170686  12.744   7.961   3.783
56263SOL    HW270687  12.880   7.963   3.717
56264SOL     OW70688   5.592   8.898  12.905
56264SOL    HW170689   5.511   8.939  12.877
56264SOL    HW270690   5.642   8.969  12.946
56265SOL     OW70691   7.921   9.666   5.892
56265SOL    HW170692   7.877   9.583   5.911
56265SOL    HW270693   7.850   9.731   5.891
56266SOL     OW70694   3.216  13.518  11.052
56266SOL    HW170695   3.206  13.491  11.143
56266SOL    HW270696   3.134  13.492  11.010
56267SOL     OW70697  10.597   7.020   6.069
56267SOL    HW170698  10.561   6.970   6.142
56267SOL    HW270699  10.684   7.046   6.099
56268SOL     OW70700  11.274   7.514   2.980
56268SOL    HW170701  11.210   7.545   3.044
56268SOL    HW270702  11.231   7.440   2.938
56269SOL     OW70703   2.239   7.780  13.927
56269SOL    HW170704   2.323   7.739  13.948
56269SOL    HW270705   2.195   7.717  13.869
56270SOL     OW70706   3.785   3.030  11.581
56270SOL    HW170707   3.755   2.939  11.577
56270SOL    HW270708   3.836   3.035  11.662
56271SOL     OW70709   4.989   9.666   4.410
56271SOL    HW170710   4.947   9.742   4.370
56271SOL    HW270711   5.028   9.700   4.491
56272SOL     OW70712   0.829   0.861   5.136
56272SOL    HW170713   0.734   0.868   5.122
56272SOL    HW270714   0.863   0.946   5.107
56273SOL     OW70715   5.581   8.362   8.262
56273SOL    HW170716   5.619   8.434   8.312
56273SOL    HW270717   5.636   8.287   8.284
56274SOL     OW70718   3.970   7.535   8.302
56274SOL    HW170719   3.886   7.577   8.284
56274SOL    HW270720   4.017   7.597   8.358
56275SOL     OW70721   9.330   0.307   3.228
56275SOL    HW170722   9.310   0.391   3.270
56275SOL    HW270723   9.263   0.248   3.261
56276SOL     OW70724   3.731  10.221   1.901
56276SOL    HW170725   3.657  10.177   1.943
56276SOL    HW270726   3.783  10.255   1.974
56277SOL     OW70727   9.223   6.473  12.533
56277SOL    HW170728   9.183   6.556  12.507
56277SOL    HW270729   9.214   6.470  12.628
56278SOL     OW70730  14.497   7.545  10.666
56278SOL    HW170731  14.484   7.479  10.735
56278SOL    HW270732  14.409   7.576  10.646
56279SOL     OW70733   4.776   0.277   3.376
56279SOL    HW170734   4.828   0.238   3.306
56279SOL    HW270735   4.688   0.243   3.363
56280SOL     OW70736   4.149   9.721   9.524
56280SOL    HW170737   4.099   9.758   9.597
56280SOL    HW270738   4.169   9.796   9.468
56281SOL     OW70739  10.927  11.416   6.465
56281SOL    HW170740  10.978  11.343   6.431
56281SOL    HW270741  10.862  11.375   6.522
56282SOL     OW70742   2.196   8.621   0.119
56282SOL    HW170743   2.197   8.698   0.176
56282SOL    HW270744   2.231   8.653   0.036
56283SOL     OW70745   9.545   0.654   2.727
56283SOL    HW170746   9.522   0.659   2.634
56283SOL    HW270747   9.631   0.611   2.728
56284SOL     OW70748   7.181  11.749   6.254
56284SOL    HW170749   7.253  11.699   6.294
56284SOL    HW270750   7.211  11.840   6.258
56285SOL     OW70751   0.442   8.367   9.759
56285SOL    HW170752   0.466   8.434   9.823
56285SOL    HW270753   0.349   8.351   9.775
56286SOL     OW70754  11.437   7.321   4.298
56286SOL    HW170755  11.470   7.335   4.209
56286SOL    HW270756  11.378   7.247   4.290
56287SOL     OW70757   0.697   5.794   2.345
56287SOL    HW170758   0.644   5.741   2.285
56287SOL    HW270759   0.778   5.811   2.298
56288SOL     OW70760  13.940  14.822   6.528
56288SOL    HW170761  13.998  14.747   6.543
56288SOL    HW270762  13.854  14.792   6.556
56289SOL     OW70763   4.534  11.718   4.100
56289SOL    HW170764   4.439  11.724   4.110
56289SOL    HW270765   4.550  11.628   4.071
56290SOL     OW70766   1.438  10.410  14.291
56290SOL    HW170767   1.516  10.466  14.290
56290SOL    HW270768   1.378  10.454  14.351
56291SOL     OW70769  10.653   8.466  14.187
56291SOL    HW170770  10.563   8.468  14.154
56291SOL    HW270771  10.707   8.489  14.111
56292SOL     OW70772   9.812  10.015   6.426
56292SOL    HW170773   9.810   9.946   6.492
56292SOL    HW270774   9.782   9.972   6.345
56293SOL     OW70775  10.993   9.843   3.432
56293SOL    HW170776  11.034   9.890   3.504
56293SOL    HW270777  10.922   9.900   3.402
56294SOL     OW70778   3.857   9.144  14.564
56294SOL    HW170779   3.804   9.096  14.501
56294SOL    HW270780   3.925   9.082  14.591
56295SOL     OW70781   0.308   0.062   0.136
56295SOL    HW170782   0.264  14.881   0.186
56295SOL    HW270783   0.371   0.100   0.197
56296SOL     OW70784  12.766   9.445   7.849
56296SOL    HW170785  12.788   9.526   7.804
56296SOL    HW270786  12.714   9.473   7.924
56297SOL     OW70787   6.681   8.874  13.467
56297SOL    HW170788   6.756   8.846  13.414
56297SOL    HW270789   6.659   8.797  13.520
56298SOL     OW70790  10.963  14.494   8.701
56298SOL    HW170791  10.969  14.481   8.795
56298SOL    HW270792  10.977  14.407   8.663
56299SOL     OW70793  10.319   9.792   8.775
56299SOL    HW170794  10.282   9.717   8.821
56299SOL    HW270795  10.391   9.756   8.723
56300SOL     OW70796   5.838   4.320   6.757
56300SOL    HW170797   5.912   4.372   6.726
56300SOL    HW270798   5.862   4.229   6.737
56301SOL     OW70799   2.855  13.077  10.850
56301SOL    HW170800   2.771  13.105  10.813
56301SOL    HW270801   2.833  13.007  10.911
56302SOL     OW70802  12.112  13.307   4.241
56302SOL    HW170803  12.080  13.265   4.321
56302SOL    HW270804  12.189  13.355   4.269
56303SOL     OW70805   2.636  11.287  12.806
56303SOL    HW170806   2.708  11.229  12.833
56303SOL    HW270807   2.673  11.375  12.811
56304SOL     OW70808   0.664  14.353   5.459
56304SOL    HW170809   0.697  14.318   5.376
56304SOL    HW270810   0.720  14.313   5.525
56305SOL     OW70811   3.703  12.150  12.479
56305SOL    HW170812   3.620  12.187  12.448
56305SOL    HW270813   3.755  12.227  12.503
56306SOL     OW70814   9.163   7.106   0.185
56306SOL    HW170815   9.181   7.164   0.110
56306SOL    HW270816   9.134   7.024   0.145
56307SOL     OW70817   4.316   2.800   1.424
56307SOL    HW170818   4.342   2.861   1.355
56307SOL    HW270819   4.342   2.714   1.391
56308SOL     OW70820   6.580   1.479   6.974
56308SOL    HW170821   6.636   1.421   6.922
56308SOL    HW270822   6.587   1.444   7.063
56309SOL     OW70823  10.743  10.341  13.819
56309SOL    HW170824  10.721  10.427  13.856
56309SOL    HW270825  10.679  10.282  13.859
56310SOL     OW70826   2.052  10.074   2.659
56310SOL    HW170827   2.070   9.997   2.713
56310SOL    HW270828   2.061  10.148   2.718
56311SOL     OW70829   7.782   9.069   9.807
56311SOL    HW170830   7.814   9.101   9.723
56311SOL    HW270831   7.744   9.146   9.850
56312SOL     OW70832   2.107   9.974   4.306
56312SOL    HW170833   2.098  10.001   4.215
56312SOL    HW270834   2.188  10.017   4.336
56313SOL     OW70835   6.251  14.317  10.843
56313SOL    HW170836   6.206  14.278  10.918
56313SOL    HW270837   6.342  14.286  10.850
56314SOL     OW70838  11.461  14.412  14.753
56314SOL    HW170839  11.387  14.355  14.733
56314SOL    HW270840  11.505  14.370  14.827
56315SOL     OW70841   0.873   7.419   1.328
56315SOL    HW170842   0.912   7.358   1.390
56315SOL    HW270843   0.935   7.492   1.323
56316SOL     OW70844   3.295  13.613   2.937
56316SOL    HW170845   3.240  13.624   3.015
56316SOL    HW270846   3.282  13.522   2.911
56317SOL     OW70847   5.369   2.071   2.077
56317SOL    HW170848   5.313   2.052   2.001
56317SOL    HW270849   5.457   2.052   2.047
56318SOL     OW70850  14.237   9.938   8.531
56318SOL    HW170851  14.324   9.946   8.569
56318SOL    HW270852  14.202   9.857   8.568
56319SOL     OW70853   2.375   6.288  14.624
56319SOL    HW170854   2.393   6.234  14.701
56319SOL    HW270855   2.373   6.377  14.658
56320SOL     OW70856   6.583   7.281  14.169
56320SOL    HW170857   6.539   7.244  14.093
56320SOL    HW270858   6.594   7.207  14.229
56321SOL     OW70859  13.818  12.515   9.391
56321SOL    HW170860  13.786  12.446   9.449
56321SOL    HW270861  13.892  12.476   9.346
56322SOL     OW70862  13.529  10.252   6.111
56322SOL    HW170863  13.446  10.271   6.067
56322SOL    HW270864  13.518  10.163   6.145
56323SOL     OW70865   3.602   7.800   3.274
56323SOL    HW170866   3.522   7.848   3.296
56323SOL    HW270867   3.593   7.780   3.181
56324SOL     OW70868   3.292  12.498  11.476
56324SOL    HW170869   3.242  12.423  11.447
56324SOL    HW270870   3.263  12.570  11.419
56325SOL     OW70871   1.484   9.978   2.592
56325SOL    HW170872   1.447   9.941   2.672
56325SOL    HW270873   1.530  10.057   2.621
56326SOL     OW70874   6.341   2.467  10.412
56326SOL    HW170875   6.356   2.559  10.388
56326SOL    HW270876   6.333   2.422  10.328
56327SOL     OW70877   2.912  12.047  12.627
56327SOL    HW170878   2.892  12.123  12.682
56327SOL    HW270879   3.006  12.052  12.611
56328SOL     OW70880  14.869  12.364   1.773
56328SOL    HW170881   0.007  12.420   1.700
56328SOL    HW270882  14.782  12.331   1.749
56329SOL     OW70883   4.628   5.674   7.430
56329SOL    HW170884   4.673   5.732   7.492
56329SOL    HW270885   4.654   5.705   7.344
56330SOL     OW70886  11.840   0.679   0.085
56330SOL    HW170887  11.752   0.668   0.122
56330SOL    HW270888  11.828   0.743   0.015
56331SOL     OW70889   8.225   5.862   6.941
56331SOL    HW170890   8.289   5.930   6.920
56331SOL    HW270891   8.224   5.858   7.036
56332SOL     OW70892   3.616   2.452   5.219
56332SOL    HW170893   3.619   2.501   5.301
56332SOL    HW270894   3.549   2.385   5.233
56333SOL     OW70895   4.960   1.620   7.353
56333SOL    HW170896   4.917   1.589   7.433
56333SOL    HW270897   4.890   1.629   7.290
56334SOL     OW70898   2.778   1.427   7.816
56334SOL    HW170899   2.694   1.470   7.833
56334SOL    HW270900   2.770   1.342   7.860
56335SOL     OW70901   8.326  13.367   1.853
56335SOL    HW170902   8.317  13.461   1.836
56335SOL    HW270903   8.382  13.362   1.930
56336SOL     OW70904   2.846   8.918   7.785
56336SOL    HW170905   2.918   8.883   7.837
56336SOL    HW270906   2.842   9.011   7.809
56337SOL     OW70907  11.251   9.352   9.149
56337SOL    HW170908  11.219   9.347   9.238
56337SOL    HW270909  11.324   9.290   9.145
56338SOL     OW70910   8.813   4.334   3.554
56338SOL    HW170911   8.856   4.331   3.469
56338SOL    HW270912   8.881   4.309   3.617
56339SOL     OW70913   5.092   8.716   6.480
56339SOL    HW170914   5.183   8.737   6.501
56339SOL    HW270915   5.051   8.697   6.564
56340SOL     OW70916   5.095   2.488   1.483
56340SOL    HW170917   5.129   2.399   1.486
56340SOL    HW270918   5.073   2.509   1.574
56341SOL     OW70919   1.061   4.565   9.520
56341SOL    HW170920   1.085   4.605   9.437
56341SOL    HW270921   1.125   4.600   9.583
56342SOL     OW70922   6.589   2.414  10.266
56342SOL    HW170923   6.605   2.507  10.285
56342SOL    HW270924   6.573   2.412  10.172
56343SOL     OW70925   8.688   4.444  14.276
56343SOL    HW170926   8.641   4.437  14.193
56343SOL    HW270927   8.767   4.494  14.255
56344SOL     OW70928   5.262   6.063  11.030
56344SOL    HW170929   5.287   6.003  11.101
56344SOL    HW270930   5.345   6.092  10.993
56345SOL     OW70931  11.465  13.032   3.085
56345SOL    HW170932  11.526  13.065   3.150
56345SOL    HW270933  11.497  12.944   3.065
56346SOL     OW70934   9.137   0.755   8.298
56346SOL    HW170935   9.189   0.702   8.237
56346SOL    HW270936   9.081   0.808   8.241
56347SOL     OW70937  14.151   3.692   6.670
56347SOL    HW170938  14.174   3.680   6.762
56347SOL    HW270939  14.219   3.645   6.622
56348SOL     OW70940  12.695  11.089   3.032
56348SOL    HW170941  12.669  11.071   3.122
56348SOL    HW270942  12.703  11.002   2.992
56349SOL     OW70943  12.660  12.494   2.145
56349SOL    HW170944  12.692  12.502   2.236
56349SOL    HW270945  12.716  12.427   2.107
56350SOL     OW70946   3.474   2.735   5.116
56350SOL    HW170947   3.563   2.702   5.125
56350SOL    HW270948   3.424   2.660   5.084
56351SOL     OW70949  13.169  12.470  11.196
56351SOL    HW170950  13.176  12.432  11.108
56351SOL    HW270951  13.257  12.458  11.234
56352SOL     OW70952  10.454   7.215  14.701
56352SOL    HW170953  10.403   7.295  14.707
56352SOL    HW270954  10.394   7.145  14.728
56353SOL     OW70955  13.598   0.833  11.502
56353SOL    HW170956  13.524   0.800  11.553
56353SOL    HW270957  13.567   0.916  11.465
56354SOL     OW70958  14.415   5.063   5.079
56354SOL    HW170959  14.430   4.969   5.089
56354SOL    HW270960  14.387   5.073   4.988
56355SOL     OW70961   0.752   1.699  13.123
56355SOL    HW170962   0.788   1.763  13.061
56355SOL    HW270963   0.821   1.634  13.132
56356SOL     OW70964   6.970  14.728  12.647
56356SOL    HW170965   7.006  14.758  12.563
56356SOL    HW270966   7.046  14.724  12.705
56357SOL     OW70967   6.657  11.489  14.558
56357SOL    HW170968   6.744  11.470  14.522
56357SOL    HW270969   6.674  11.511  14.649
56358SOL     OW70970   6.356   9.316  14.832
56358SOL    HW170971   6.316   9.279  14.753
56358SOL    HW270972   6.307   9.396  14.849
56359SOL     OW70973   5.791   3.101   0.971
56359SOL    HW170974   5.710   3.148   0.992
56359SOL    HW270975   5.762   3.023   0.924
56360SOL     OW70976  10.810   4.915   8.189
56360SOL    HW170977  10.874   4.946   8.126
56360SOL    HW270978  10.855   4.845   8.237
56361SOL     OW70979   4.282   2.644   4.934
56361SOL    HW170980   4.370   2.669   4.962
56361SOL    HW270981   4.233   2.726   4.936
56362SOL     OW70982   2.049  12.614  11.687
56362SOL    HW170983   2.139  12.582  11.675
56362SOL    HW270984   2.038  12.618  11.782
56363SOL     OW70985   8.212  13.205   4.288
56363SOL    HW170986   8.172  13.222   4.373
56363SOL    HW270987   8.287  13.148   4.307
56364SOL     OW70988   5.772   8.616   6.195
56364SOL    HW170989   5.765   8.522   6.178
56364SOL    HW270990   5.864   8.636   6.181
56365SOL     OW70991   6.929  10.096  10.042
56365SOL    HW170992   6.876  10.159   9.994
56365SOL    HW270993   6.867  10.026  10.067
56366SOL     OW70994  11.171   7.718  11.660
56366SOL    HW170995  11.165   7.717  11.755
56366SOL    HW270996  11.250   7.668  11.641
56367SOL     OW70997  10.195   1.710   9.857
56367SOL    HW170998  10.102   1.689   9.849
56367SOL    HW270999  10.240   1.629   9.831
56368SOL     OW71000   5.598   0.558   1.663
56368SOL    HW171001   5.548   0.637   1.686
56368SOL    HW271002   5.623   0.572   1.572
56369SOL     OW71003  10.360  12.101  11.712
56369SOL    HW171004  10.276  12.147  11.707
56369SOL    HW271005  10.384  12.084  11.621
56370SOL     OW71006   0.605   4.823  10.204
56370SOL    HW171007   0.697   4.828  10.177
56370SOL    HW271008   0.595   4.733  10.236
56371SOL     OW71009  12.474   0.914  12.858
56371SOL    HW171010  12.497   1.007  12.861
56371SOL    HW271011  12.382   0.913  12.833
56372SOL     OW71012   0.285  10.457   6.158
56372SOL    HW171013   0.272  10.503   6.075
56372SOL    HW271014   0.373  10.482   6.185
56373SOL     OW71015   8.494  10.209   6.661
56373SOL    HW171016   8.521  10.138   6.603
56373SOL    HW271017   8.566  10.218   6.723
56374SOL     OW71018   3.764   0.330  13.099
56374SOL    HW171019   3.748   0.327  13.005
56374SOL    HW271020   3.683   0.363  13.137
56375SOL     OW71021   9.901   2.289  11.503
56375SOL    HW171022   9.886   2.319  11.413
56375SOL    HW271023   9.826   2.323  11.552
56376SOL     OW71024   4.602  11.211   2.370
56376SOL    HW171025   4.657  11.174   2.440
56376SOL    HW271026   4.593  11.140   2.307
56377SOL     OW71027  10.984   4.872  14.140
56377SOL    HW171028  11.078   4.853  14.139
56377SOL    HW271029  10.966   4.911  14.055
56378SOL     OW71030  12.645   2.313   1.802
56378SOL    HW171031  12.615   2.375   1.735
56378SOL    HW271032  12.657   2.366   1.881
56379SOL     OW71033   8.308   7.054   9.276
56379SOL    HW171034   8.310   7.055   9.181
56379SOL    HW271035   8.252   7.128   9.300
56380SOL     OW71036   1.377   2.081   1.707
56380SOL    HW171037   1.417   2.096   1.621
56380SOL    HW271038   1.407   1.994   1.733
56381SOL     OW71039   2.250   1.008   1.133
56381SOL    HW171040   2.186   1.043   1.195
56381SOL    HW271041   2.305   0.950   1.186
56382SOL     OW71042   3.895   7.122  13.095
56382SOL    HW171043   3.960   7.175  13.142
56382SOL    HW271044   3.812   7.141  13.139
56383SOL     OW71045   7.203   4.862   9.402
56383SOL    HW171046   7.225   4.931   9.464
56383SOL    HW271047   7.114   4.883   9.374
56384SOL     OW71048   5.072   0.314   9.589
56384SOL    HW171049   5.106   0.232   9.554
56384SOL    HW271050   5.090   0.378   9.520
56385SOL     OW71051  10.550   9.378  11.557
56385SOL    HW171052  10.534   9.285  11.541
56385SOL    HW271053  10.640   9.382  11.590
56386SOL     OW71054   9.545   6.838   2.521
56386SOL    HW171055   9.560   6.933   2.512
56386SOL    HW271056   9.450   6.829   2.521
56387SOL     OW71057  14.805  13.070   7.334
56387SOL    HW171058   0.001  13.094   7.374
56387SOL    HW271059  14.744  13.139   7.361
56388SOL     OW71060   8.212   0.095  14.391
56388SOL    HW171061   8.254   0.179  14.372
56388SOL    HW271062   8.120   0.109  14.371
56389SOL     OW71063  12.726   3.232  13.449
56389SOL    HW171064  12.784   3.281  13.508
56389SOL    HW271065  12.696   3.297  13.385
56390SOL     OW71066  12.019   1.911   8.468
56390SOL    HW171067  11.953   1.844   8.486
56390SOL    HW271068  12.079   1.870   8.406
56391SOL     OW71069   3.370   4.974  10.603
56391SOL    HW171070   3.449   4.965  10.656
56391SOL    HW271071   3.394   5.038  10.535
56392SOL     OW71072   5.688  11.320  13.707
56392SOL    HW171073   5.685  11.278  13.621
56392SOL    HW271074   5.625  11.391  13.701
56393SOL     OW71075   3.805   2.322  11.266
56393SOL    HW171076   3.792   2.414  11.246
56393SOL    HW271077   3.815   2.319  11.361
56394SOL     OW71078   1.340  10.933   1.502
56394SOL    HW171079   1.370  10.896   1.585
56394SOL    HW271080   1.249  10.955   1.517
56395SOL     OW71081  14.212   8.880  10.363
56395SOL    HW171082  14.246   8.932  10.289
56395SOL    HW271083  14.143   8.934  10.400
56396SOL     OW71084   5.717   8.156   9.615
56396SOL    HW171085   5.789   8.150   9.551
56396SOL    HW271086   5.690   8.065   9.629
56397SOL     OW71087   2.841   3.742   1.922
56397SOL    HW171088   2.883   3.758   1.838
56397SOL    HW271089   2.850   3.825   1.969
56398SOL     OW71090  14.477  11.304   1.703
56398SOL    HW171091  14.445  11.394   1.691
56398SOL    HW271092  14.504  11.277   1.616
56399SOL     OW71093  12.013  14.179   9.541
56399SOL    HW171094  11.981  14.090   9.555
56399SOL    HW271095  12.105  14.167   9.517
56400SOL     OW71096  11.498   7.530  12.875
56400SOL    HW171097  11.483   7.614  12.831
56400SOL    HW271098  11.414   7.485  12.871
56401SOL     OW71099   6.961  14.009  10.449
56401SOL    HW171100   6.891  14.051  10.499
56401SOL    HW271101   6.992  13.939  10.507
56402SOL     OW71102   1.726   0.548   3.635
56402SOL    HW171103   1.704   0.576   3.546
56402SOL    HW271104   1.658   0.485   3.658
56403SOL     OW71105   7.537   8.171  10.593
56403SOL    HW171106   7.548   8.127  10.677
56403SOL    HW271107   7.588   8.251  10.600
56404SOL     OW71108   3.827  14.823   3.283
56404SOL    HW171109   3.871  14.772   3.350
56404SOL    HW271110   3.791  14.758   3.222
56405SOL     OW71111  12.403   1.566   1.384
56405SOL    HW171112  12.399   1.660   1.399
56405SOL    HW271113  12.495   1.543   1.396
56406SOL     OW71114   5.291  12.124  12.227
56406SOL    HW171115   5.235  12.055  12.191
56406SOL    HW271116   5.274  12.122  12.321
56407SOL     OW71117  14.532  13.084   3.729
56407SOL    HW171118  14.445  13.064   3.764
56407SOL    HW271119  14.587  13.092   3.807
56408SOL     OW71120   0.052   3.882   3.881
56408SOL    HW171121   0.107   3.943   3.831
56408SOL    HW271122   0.069   3.797   3.841
56409SOL     OW71123   5.016   0.418  10.353
56409SOL    HW171124   4.960   0.361  10.299
56409SOL    HW271125   5.047   0.361  10.424
56410SOL     OW71126   1.035  10.328   1.930
56410SOL    HW171127   0.982  10.370   1.862
56410SOL    HW271128   1.005  10.237   1.931
56411SOL     OW71129  11.140  11.024  12.915
56411SOL    HW171130  11.087  10.978  12.850
56411SOL    HW271131  11.225  10.980  12.912
56412SOL     OW71132   6.897   4.240  13.823
56412SOL    HW171133   6.849   4.158  13.828
56412SOL    HW271134   6.853   4.298  13.886
56413SOL     OW71135  10.151  14.759   6.207
56413SOL    HW171136  10.083  14.809   6.162
56413SOL    HW271137  10.156  14.677   6.159
56414SOL     OW71138   2.923   3.304  14.392
56414SOL    HW171139   2.897   3.275  14.480
56414SOL    HW271140   2.978   3.381  14.407
56415SOL     OW71141   2.658   3.750   4.078
56415SOL    HW171142   2.566   3.771   4.096
56415SOL    HW271143   2.700   3.752   4.164
56416SOL     OW71144   1.937   8.122  14.625
56416SOL    HW171145   1.964   8.035  14.596
56416SOL    HW271146   1.887   8.157  14.551
56417SOL     OW71147  13.265   9.419   9.343
56417SOL    HW171148  13.231   9.503   9.312
56417SOL    HW271149  13.357   9.420   9.318
56418SOL     OW71150   3.905   0.197   1.479
56418SOL    HW171151   3.810   0.203   1.466
56418SOL    HW271152   3.922   0.249   1.557
56419SOL     OW71153  12.140   8.930   2.593
56419SOL    HW171154  12.086   8.992   2.544
56419SOL    HW271155  12.087   8.907   2.669
56420SOL     OW71156   8.418   4.602   0.852
56420SOL    HW171157   8.503   4.606   0.810
56420SOL    HW271158   8.361   4.654   0.795
56421SOL     OW71159   2.223   2.007   1.929
56421SOL    HW171160   2.164   2.062   1.877
56421SOL    HW271161   2.191   2.015   2.018
56422SOL     OW71162  12.070   6.173  11.144
56422SOL    HW171163  12.073   6.242  11.079
56422SOL    HW271164  12.110   6.211  11.222
56423SOL     OW71165   2.439  13.813   9.385
56423SOL    HW171166   2.503  13.871   9.343
56423SOL    HW271167   2.432  13.846   9.474
56424SOL     OW71168  13.439  12.860   6.604
56424SOL    HW171169  13.426  12.785   6.662
56424SOL    HW271170  13.518  12.903   6.639
56425SOL     OW71171   7.325   3.809  12.969
56425SOL    HW171172   7.378   3.785  12.893
56425SOL    HW271173   7.344   3.742  13.034
56426SOL     OW71174   6.351  12.794   7.250
56426SOL    HW171175   6.400  12.711   7.242
56426SOL    HW271176   6.260  12.769   7.236
56427SOL     OW71177  12.892   3.727   2.338
56427SOL    HW171178  12.810   3.688   2.307
56427SOL    HW271179  12.911   3.682   2.420
56428SOL     OW71180   2.778  14.826  10.746
56428SOL    HW171181   2.732  14.814  10.662
56428SOL    HW271182   2.843   0.006  10.727
56429SOL     OW71183   5.759  11.795  10.794
56429SOL    HW171184   5.851  11.772  10.781
56429SOL    HW271185   5.738  11.850  10.719
56430SOL     OW71186   8.344  11.279  10.026
56430SOL    HW171187   8.336  11.260   9.932
56430SOL    HW271188   8.376  11.198  10.064
56431SOL     OW71189  14.811  12.097   2.983
56431SOL    HW171190  14.783  12.016   3.026
56431SOL    HW271191   0.013  12.111   3.014
56432SOL     OW71192   9.006   0.219  14.259
56432SOL    HW171193   9.054   0.277  14.318
56432SOL    HW271194   8.919   0.259  14.253
56433SOL     OW71195   0.674   9.396   1.201
56433SOL    HW171196   0.664   9.339   1.124
56433SOL    HW271197   0.637   9.480   1.173
56434SOL     OW71198   2.451   5.646   4.850
56434SOL    HW171199   2.545   5.634   4.836
56434SOL    HW271200   2.439   5.741   4.854
56435SOL     OW71201   4.021   9.740   7.774
56435SOL    HW171202   3.974   9.716   7.693
56435SOL    HW271203   4.001   9.833   7.786
56436SOL     OW71204   9.172   0.949   1.068
56436SOL    HW171205   9.119   0.916   1.141
56436SOL    HW271206   9.223   1.021   1.105
56437SOL     OW71207   2.738   9.548  13.503
56437SOL    HW171208   2.700   9.461  13.516
56437SOL    HW271209   2.674   9.595  13.450
56438SOL     OW71210   0.164   6.737   1.072
56438SOL    HW171211   0.184   6.761   0.982
56438SOL    HW271212   0.190   6.814   1.123
56439SOL     OW71213  14.576  11.090   4.746
56439SOL    HW171214  14.627  11.011   4.761
56439SOL    HW271215  14.502  11.083   4.807
56440SOL     OW71216   5.799   7.997  10.010
56440SOL    HW171217   5.835   7.909   9.996
56440SOL    HW271218   5.823   8.019  10.100
56441SOL     OW71219  14.648   0.049   0.347
56441SOL    HW171220  14.643   0.089   0.434
56441SOL    HW271221  14.568   0.077   0.304
56442SOL     OW71222   1.719  12.206   3.274
56442SOL    HW171223   1.630  12.185   3.247
56442SOL    HW271224   1.745  12.279   3.217
56443SOL     OW71225   1.484   4.440  11.159
56443SOL    HW171226   1.424   4.501  11.118
56443SOL    HW271227   1.521   4.390  11.087
56444SOL     OW71228   8.226  11.575   4.870
56444SOL    HW171229   8.235  11.639   4.800
56444SOL    HW271230   8.286  11.504   4.847
56445SOL     OW71231   5.881   1.425   9.475
56445SOL    HW171232   5.865   1.481   9.399
56445SOL    HW271233   5.795   1.392   9.499
56446SOL     OW71234   3.236   0.545   8.924
56446SOL    HW171235   3.277   0.617   8.972
56446SOL    HW271236   3.148   0.540   8.959
56447SOL     OW71237   0.905  11.740  13.692
56447SOL    HW171238   0.976  11.745  13.628
56447SOL    HW271239   0.872  11.650  13.683
56448SOL     OW71240  13.730   6.192  12.951
56448SOL    HW171241  13.763   6.125  13.010
56448SOL    HW271242  13.722   6.270  13.006
56449SOL     OW71243   7.295   1.288   0.200
56449SOL    HW171244   7.209   1.250   0.186
56449SOL    HW271245   7.345   1.263   0.122
56450SOL     OW71246   6.870   0.439   4.980
56450SOL    HW171247   6.904   0.445   4.891
56450SOL    HW271248   6.881   0.347   5.003
56451SOL     OW71249  13.170   9.076   0.583
56451SOL    HW171250  13.216   9.130   0.647
56451SOL    HW271251  13.083   9.063   0.621
56452SOL     OW71252   5.490  11.582   1.026
56452SOL    HW171253   5.416  11.633   1.060
56452SOL    HW271254   5.555  11.584   1.097
56453SOL     OW71255  14.257  12.518   4.791
56453SOL    HW171256  14.313  12.443   4.814
56453SOL    HW271257  14.275  12.533   4.698
56454SOL     OW71258   5.832  10.851   9.347
56454SOL    HW171259   5.811  10.943   9.337
56454SOL    HW271260   5.916  10.850   9.394
56455SOL     OW71261   4.347   4.774   8.114
56455SOL    HW171262   4.331   4.785   8.020
56455SOL    HW271263   4.340   4.679   8.129
56456SOL     OW71264   4.189   8.959  13.250
56456SOL    HW171265   4.208   9.025  13.183
56456SOL    HW271266   4.172   8.879  13.200
56457SOL     OW71267   2.270   2.792   8.748
56457SOL    HW171268   2.296   2.851   8.819
56457SOL    HW271269   2.202   2.736   8.786
56458SOL     OW71270   0.312   1.111  14.039
56458SOL    HW171271   0.300   1.204  14.059
56458SOL    HW271272   0.381   1.082  14.098
56459SOL     OW71273   6.825  12.512   7.026
56459SOL    HW171274   6.851  12.485   7.115
56459SOL    HW271275   6.892  12.475   6.969
56460SOL     OW71276   6.560   6.069  12.579
56460SOL    HW171277   6.524   6.136  12.521
56460SOL    HW271278   6.594   6.118  12.654
56461SOL     OW71279   8.052   3.903  13.366
56461SOL    HW171280   8.108   3.979  13.353
56461SOL    HW271281   8.113   3.829  13.375
56462SOL     OW71282  10.536   5.548  12.858
56462SOL    HW171283  10.577   5.474  12.813
56462SOL    HW271284  10.535   5.523  12.950
56463SOL     OW71285  14.356   2.882   4.347
56463SOL    HW171286  14.383   2.852   4.434
56463SOL    HW271287  14.408   2.961   4.332
56464SOL     OW71288   7.314  14.411   6.987
56464SOL    HW171289   7.391  14.413   6.930
56464SOL    HW271290   7.341  14.458   7.066
56465SOL     OW71291   2.315  12.557  11.662
56465SOL    HW171292   2.385  12.612  11.627
56465SOL    HW271293   2.358  12.476  11.690
56466SOL     OW71294   0.773   1.686   5.646
56466SOL    HW171295   0.856   1.732   5.632
56466SOL    HW271296   0.798   1.594   5.655
56467SOL     OW71297   2.500   4.506   1.031
56467SOL    HW171298   2.482   4.477   1.121
56467SOL    HW271299   2.460   4.439   0.976
56468SOL     OW71300   5.942   1.318   2.896
56468SOL    HW171301   5.987   1.237   2.923
56468SOL    HW271302   6.006   1.387   2.911
56469SOL     OW71303   7.466  12.388   4.804
56469SOL    HW171304   7.407  12.321   4.838
56469SOL    HW271305   7.510  12.345   4.730
56470SOL     OW71306   9.222   9.922   1.821
56470SOL    HW171307   9.188   9.980   1.754
56470SOL    HW271308   9.165   9.845   1.817
56471SOL     OW71309   1.251  10.543  14.478
56471SOL    HW171310   1.295  10.538  14.563
56471SOL    HW271311   1.163  10.510  14.494
56472SOL     OW71312   3.891   0.637   8.261
56472SOL    HW171313   3.838   0.559   8.243
56472SOL    HW271314   3.981   0.605   8.258
56473SOL     OW71315   1.706   8.363  10.618
56473SOL    HW171316   1.664   8.337  10.536
56473SOL    HW271317   1.672   8.451  10.634
56474SOL     OW71318   5.717   4.483   9.466
56474SOL    HW171319   5.679   4.528   9.542
56474SOL    HW271320   5.677   4.527   9.391
56475SOL     OW71321   2.880   8.556  14.352
56475SOL    HW171322   2.930   8.497  14.408
56475SOL    HW271323   2.837   8.498  14.289
56476SOL     OW71324  13.749  11.440   7.277
56476SOL    HW171325  13.676  11.484   7.320
56476SOL    HW271326  13.720  11.427   7.186
56477SOL     OW71327  10.269   1.791  11.391
56477SOL    HW171328  10.308   1.709  11.360
56477SOL    HW271329  10.339   1.856  11.381
56478SOL     OW71330  12.020  11.776   8.666
56478SOL    HW171331  12.069  11.859   8.665
56478SOL    HW271332  12.086  11.709   8.681
56479SOL     OW71333   2.509   6.072   2.287
56479SOL    HW171334   2.472   5.986   2.302
56479SOL    HW271335   2.450   6.114   2.224
56480SOL     OW71336  12.106   5.368   0.067
56480SOL    HW171337  12.113   5.458   0.099
56480SOL    HW271338  12.159   5.317   0.129
56481SOL     OW71339   7.829   8.104   4.178
56481SOL    HW171340   7.820   8.076   4.269
56481SOL    HW271341   7.872   8.189   4.183
56482SOL     OW71342   0.728   0.825   6.633
56482SOL    HW171343   0.719   0.730   6.629
56482SOL    HW271344   0.783   0.842   6.709
56483SOL     OW71345  10.937   4.788   9.094
56483SOL    HW171346  10.892   4.782   9.178
56483SOL    HW271347  11.024   4.752   9.111
56484SOL     OW71348   6.427   3.701  13.255
56484SOL    HW171349   6.359   3.696  13.187
56484SOL    HW271350   6.403   3.779  13.306
56485SOL     OW71351   9.046   8.713   7.156
56485SOL    HW171352   9.039   8.799   7.197
56485SOL    HW271353   8.956   8.682   7.149
56486SOL     OW71354   7.228   3.546   2.573
56486SOL    HW171355   7.241   3.640   2.556
56486SOL    HW271356   7.147   3.542   2.624
56487SOL     OW71357   2.352   7.261   7.695
56487SOL    HW171358   2.278   7.202   7.678
56487SOL    HW271359   2.429   7.212   7.668
56488SOL     OW71360   1.015   5.579  13.851
56488SOL    HW171361   0.981   5.621  13.773
56488SOL    HW271362   1.051   5.496  13.819
56489SOL     OW71363   3.681   1.149   9.694
56489SOL    HW171364   3.761   1.136   9.643
56489SOL    HW271365   3.611   1.150   9.629
56490SOL     OW71366   8.191   5.356   1.007
56490SOL    HW171367   8.179   5.429   0.946
56490SOL    HW271368   8.102   5.333   1.035
56491SOL     OW71369   3.718   0.815   1.871
56491SOL    HW171370   3.640   0.761   1.866
56491SOL    HW271371   3.728   0.851   1.783
56492SOL     OW71372   2.935   2.596   0.995
56492SOL    HW171373   2.949   2.690   1.008
56492SOL    HW271374   2.936   2.584   0.900
56493SOL     OW71375   1.857  10.086   0.833
56493SOL    HW171376   1.863  10.020   0.902
56493SOL    HW271377   1.921  10.058   0.767
56494SOL     OW71378  11.802   8.705   8.591
56494SOL    HW171379  11.844   8.784   8.625
56494SOL    HW271380  11.728   8.736   8.539
56495SOL     OW71381   1.581   4.675   9.149
56495SOL    HW171382   1.588   4.616   9.075
56495SOL    HW271383   1.495   4.657   9.186
56496SOL     OW71384   1.991  10.575   5.538
56496SOL    HW171385   1.991  10.623   5.621
56496SOL    HW271386   2.046  10.627   5.480
56497SOL     OW71387  10.318  14.532   6.963
56497SOL    HW171388  10.407  14.497   6.974
56497SOL    HW271389  10.293  14.561   7.051
56498SOL     OW71390   4.167   5.690  14.060
56498SOL    HW171391   4.089   5.686  14.115
56498SOL    HW271392   4.164   5.610  14.008
56499SOL     OW71393   7.605  10.273   7.637
56499SOL    HW171394   7.545  10.243   7.705
56499SOL    HW271395   7.670  10.203   7.630
56500SOL     OW71396  10.340   6.017  11.040
56500SOL    HW171397  10.347   6.112  11.038
56500SOL    HW271398  10.321   5.992  10.949
56501SOL     OW71399   0.383   7.441   2.886
56501SOL    HW171400   0.439   7.372   2.850
56501SOL    HW271401   0.425   7.466   2.968
56502SOL     OW71402  13.332  14.200   9.201
56502SOL    HW171403  13.416  14.186   9.158
56502SOL    HW271404  13.343  14.162   9.288
56503SOL     OW71405  13.185   6.376   4.120
56503SOL    HW171406  13.230   6.390   4.037
56503SOL    HW271407  13.093   6.365   4.097
56504SOL     OW71408   0.466   8.232  14.547
56504SOL    HW171409   0.381   8.188  14.542
56504SOL    HW271410   0.446   8.319  14.581
56505SOL     OW71411   0.060  11.302   5.491
56505SOL    HW171412   0.009  11.383   5.491
56505SOL    HW271413   0.140  11.324   5.444
56506SOL     OW71414   8.963  12.926  12.494
56506SOL    HW171415   8.918  12.943  12.411
56506SOL    HW271416   9.005  13.010  12.516
56507SOL     OW71417   9.807   1.013  14.623
56507SOL    HW171418   9.797   1.089  14.680
56507SOL    HW271419   9.897   0.984  14.638
56508SOL     OW71420  14.199   3.969  11.632
56508SOL    HW171421  14.235   3.993  11.717
56508SOL    HW271422  14.243   4.028  11.570
56509SOL     OW71423   1.509   5.093   8.631
56509SOL    HW171424   1.562   5.066   8.707
56509SOL    HW271425   1.475   5.011   8.595
56510SOL     OW71426  10.423   0.270   5.190
56510SOL    HW171427  10.336   0.307   5.200
56510SOL    HW271428  10.473   0.304   5.265
56511SOL     OW71429   1.579   4.111   7.458
56511SOL    HW171430   1.537   4.188   7.496
56511SOL    HW271431   1.656   4.146   7.412
56512SOL     OW71432  11.487  14.764   2.314
56512SOL    HW171433  11.505  14.732   2.402
56512SOL    HW271434  11.407  14.719   2.288
56513SOL     OW71435  10.009  13.439   6.616
56513SOL    HW171436  10.032  13.521   6.658
56513SOL    HW271437   9.971  13.464   6.532
56514SOL     OW71438  12.339   0.351   8.555
56514SOL    HW171439  12.393   0.274   8.537
56514SOL    HW271440  12.284   0.324   8.629
56515SOL     OW71441  13.662  10.947  10.566
56515SOL    HW171442  13.698  10.886  10.631
56515SOL    HW271443  13.570  10.923  10.560
56516SOL     OW71444  12.553   5.258   4.778
56516SOL    HW171445  12.600   5.180   4.748
56516SOL    HW271446  12.471   5.225   4.814
56517SOL     OW71447   6.616   5.375   6.557
56517SOL    HW171448   6.562   5.433   6.504
56517SOL    HW271449   6.589   5.287   6.533
56518SOL     OW71450   9.463   8.667  14.229
56518SOL    HW171451   9.546   8.621  14.216
56518SOL    HW271452   9.450   8.717  14.149
56519SOL     OW71453   8.475   1.720   1.859
56519SOL    HW171454   8.380   1.725   1.862
56519SOL    HW271455   8.494   1.626   1.851
56520SOL     OW71456  10.134   7.406  12.772
56520SOL    HW171457  10.131   7.499  12.797
56520SOL    HW271458  10.217   7.374  12.807
56521SOL     OW71459   6.889   5.546  11.378
56521SOL    HW171460   6.948   5.484  11.421
56521SOL    HW271461   6.826   5.490  11.332
56522SOL     OW71462   8.626  13.795   3.965
56522SOL    HW171463   8.560  13.863   3.980
56522SOL    HW271464   8.689  13.835   3.906
56523SOL     OW71465  13.118   3.075   7.117
56523SOL    HW171466  13.175   3.018   7.169
56523SOL    HW271467  13.144   3.164   7.141
56524SOL     OW71468   6.099   5.411   9.317
56524SOL    HW171469   6.136   5.412   9.405
56524SOL    HW271470   6.113   5.500   9.285
56525SOL     OW71471   8.807  13.351   7.276
56525SOL    HW171472   8.743  13.305   7.331
56525SOL    HW271473   8.846  13.282   7.222
56526SOL     OW71474  12.681  14.030   5.867
56526SOL    HW171475  12.625  13.953   5.869
56526SOL    HW271476  12.698  14.049   5.959
56527SOL     OW71477   9.597   7.274   9.643
56527SOL    HW171478   9.550   7.217   9.704
56527SOL    HW271479   9.537   7.286   9.570
56528SOL     OW71480  12.153   3.383   1.656
56528SOL    HW171481  12.162   3.408   1.564
56528SOL    HW271482  12.063   3.407   1.678
56529SOL     OW71483  12.066   3.387   5.428
56529SOL    HW171484  12.133   3.324   5.453
56529SOL    HW271485  12.095   3.420   5.343
56530SOL     OW71486   5.071   7.316   1.540
56530SOL    HW171487   5.080   7.394   1.595
56530SOL    HW271488   5.030   7.347   1.460
56531SOL     OW71489  10.585   3.795   7.514
56531SOL    HW171490  10.516   3.834   7.459
56531SOL    HW271491  10.664   3.801   7.460
56532SOL     OW71492   7.437   5.528   7.414
56532SOL    HW171493   7.385   5.556   7.338
56532SOL    HW271494   7.456   5.436   7.396
56533SOL     OW71495   5.736  12.697   8.126
56533SOL    HW171496   5.679  12.622   8.140
56533SOL    HW271497   5.679  12.773   8.138
56534SOL     OW71498   9.031   6.217   3.780
56534SOL    HW171499   8.960   6.259   3.731
56534SOL    HW271500   8.991   6.138   3.816
56535SOL     OW71501  14.022  12.438   4.309
56535SOL    HW171502  13.958  12.368   4.318
56535SOL    HW271503  14.107  12.394   4.319
56536SOL     OW71504   9.262   4.448   3.244
56536SOL    HW171505   9.291   4.527   3.289
56536SOL    HW271506   9.304   4.376   3.291
56537SOL     OW71507  13.625   4.181  13.871
56537SOL    HW171508  13.574   4.106  13.903
56537SOL    HW271509  13.657   4.223  13.951
56538SOL     OW71510   7.638   2.982   4.323
56538SOL    HW171511   7.701   2.917   4.293
56538SOL    HW271512   7.621   3.036   4.246
56539SOL     OW71513   6.666   9.473  13.748
56539SOL    HW171514   6.645   9.454  13.657
56539SOL    HW271515   6.626   9.558  13.765
56540SOL     OW71516   3.144   7.740  10.643
56540SOL    HW171517   3.117   7.689  10.566
56540SOL    HW271518   3.231   7.772  10.621
56541SOL     OW71519   3.540  14.483   5.929
56541SOL    HW171520   3.454  14.518   5.950
56541SOL    HW271521   3.561  14.424   6.002
56542SOL     OW71522   3.171  12.055  12.598
56542SOL    HW171523   3.226  12.111  12.544
56542SOL    HW271524   3.227  12.029  12.671
56543SOL     OW71525   4.609  13.709   4.466
56543SOL    HW171526   4.689  13.666   4.496
56543SOL    HW271527   4.570  13.745   4.546
56544SOL     OW71528   2.589   9.939   5.135
56544SOL    HW171529   2.583   9.868   5.071
56544SOL    HW271530   2.521  10.001   5.109
56545SOL     OW71531  12.064  14.449   6.949
56545SOL    HW171532  11.998  14.398   6.995
56545SOL    HW271533  12.061  14.536   6.990
56546SOL     OW71534   2.641  10.977   1.292
56546SOL    HW171535   2.685  10.985   1.377
56546SOL    HW271536   2.597  10.892   1.296
56547SOL     OW71537  11.957   9.318   4.987
56547SOL    HW171538  11.884   9.259   5.003
56547SOL    HW271539  11.919   9.406   4.994
56548SOL     OW71540   9.633   3.894   8.764
56548SOL    HW171541   9.573   3.837   8.716
56548SOL    HW271542   9.620   3.981   8.725
56549SOL     OW71543   3.762   7.197   3.127
56549SOL    HW171544   3.785   7.112   3.165
56549SOL    HW271545   3.680   7.221   3.171
56550SOL     OW71546  12.426   5.948   6.352
56550SOL    HW171547  12.473   6.009   6.409
56550SOL    HW271548  12.365   5.903   6.411
56551SOL     OW71549  12.950  10.772   0.870
56551SOL    HW171550  12.978  10.756   0.960
56551SOL    HW271551  12.911  10.860   0.873
56552SOL     OW71552   1.109   9.533   8.701
56552SOL    HW171553   1.049   9.607   8.698
56552SOL    HW271554   1.189   9.568   8.740
56553SOL     OW71555  11.294   4.145   7.876
56553SOL    HW171556  11.388   4.165   7.874
56553SOL    HW271557  11.251   4.230   7.868
56554SOL     OW71558  13.365  12.892  14.123
56554SOL    HW171559  13.342  12.805  14.091
56554SOL    HW271560  13.281  12.933  14.142
56555SOL     OW71561   2.864   5.624   2.747
56555SOL    HW171562   2.895   5.534   2.748
56555SOL    HW271563   2.941   5.676   2.769
56556SOL     OW71564   7.715   1.717  14.205
56556SOL    HW171565   7.666   1.635  14.195
56556SOL    HW271566   7.789   1.695  14.261
56557SOL     OW71567   0.756   0.954  13.620
56557SOL    HW171568   0.696   0.901  13.672
56557SOL    HW271569   0.841   0.942  13.662
56558SOL     OW71570   3.330   4.201  11.280
56558SOL    HW171571   3.269   4.225  11.211
56558SOL    HW271572   3.380   4.281  11.298
56559SOL     OW71573   7.431   6.517  10.432
56559SOL    HW171574   7.468   6.481  10.351
56559SOL    HW271575   7.431   6.443  10.493
56560SOL     OW71576   5.640   3.658   4.155
56560SOL    HW171577   5.590   3.704   4.222
56560SOL    HW271578   5.649   3.720   4.083
56561SOL     OW71579   7.888   1.341  10.659
56561SOL    HW171580   7.877   1.408  10.591
56561SOL    HW271581   7.975   1.358  10.695
56562SOL     OW71582  10.108   1.500  12.345
56562SOL    HW171583  10.108   1.419  12.396
56562SOL    HW271584  10.016   1.527  12.344
56563SOL     OW71585  13.654   4.571   5.797
56563SOL    HW171586  13.674   4.664   5.808
56563SOL    HW271587  13.621   4.563   5.708
56564SOL     OW71588   9.766  11.687   5.010
56564SOL    HW171589   9.851  11.679   4.968
56564SOL    HW271590   9.752  11.782   5.018
56565SOL     OW71591   9.841   2.634   3.982
56565SOL    HW171592   9.796   2.553   3.958
56565SOL    HW271593   9.891   2.612   4.061
56566SOL     OW71594   3.788  14.126  14.047
56566SOL    HW171595   3.851  14.073  13.999
56566SOL    HW271596   3.805  14.106  14.139
56567SOL     OW71597  12.902   7.888   9.173
56567SOL    HW171598  12.971   7.828   9.201
56567SOL    HW271599  12.824   7.832   9.164
56568SOL     OW71600   7.597  10.654  10.697
56568SOL    HW171601   7.518  10.603  10.676
56568SOL    HW271602   7.570  10.713  10.767
56569SOL     OW71603  11.851   1.706   3.264
56569SOL    HW171604  11.797   1.677   3.190
56569SOL    HW271605  11.915   1.636   3.275
56570SOL     OW71606  10.383   9.202  11.062
56570SOL    HW171607  10.466   9.161  11.037
56570SOL    HW271608  10.362   9.162  11.147
56571SOL     OW71609  13.283   9.697  12.189
56571SOL    HW171610  13.358   9.755  12.187
56571SOL    HW271611  13.268   9.675  12.096
56572SOL     OW71612  11.154   8.118   5.139
56572SOL    HW171613  11.103   8.196   5.164
56572SOL    HW271614  11.214   8.150   5.072
56573SOL     OW71615   7.164   6.660   3.911
56573SOL    HW171616   7.229   6.622   3.970
56573SOL    HW271617   7.190   6.751   3.903
56574SOL     OW71618   4.529  10.050   9.364
56574SOL    HW171619   4.483   9.983   9.314
56574SOL    HW271620   4.578  10.001   9.430
56575SOL     OW71621  13.211   3.793   8.708
56575SOL    HW171622  13.122   3.791   8.742
56575SOL    HW271623  13.235   3.885   8.709
56576SOL     OW71624  13.594   7.710   5.985
56576SOL    HW171625  13.573   7.636   5.928
56576SOL    HW271626  13.509   7.741   6.016
56577SOL     OW71627   8.206   6.010   8.961
56577SOL    HW171628   8.149   6.066   9.014
56577SOL    HW271629   8.173   6.019   8.872
56578SOL     OW71630  12.535  13.615   3.818
56578SOL    HW171631  12.612  13.648   3.771
56578SOL    HW271632  12.562  13.529   3.849
56579SOL     OW71633  11.582   2.059  10.583
56579SOL    HW171634  11.603   2.145  10.547
56579SOL    HW271635  11.642   1.999  10.539
56580SOL     OW71636  13.607   7.876   1.112
56580SOL    HW171637  13.645   7.925   1.184
56580SOL    HW271638  13.632   7.785   1.128
56581SOL     OW71639  12.226  10.768   3.067
56581SOL    HW171640  12.259  10.686   3.032
56581SOL    HW271641  12.213  10.752   3.160
56582SOL     OW71642   0.337  13.452   3.484
56582SOL    HW171643   0.322  13.403   3.565
56582SOL    HW271644   0.263  13.428   3.428
56583SOL     OW71645   1.324   0.035   9.679
56583SOL    HW171646   1.418   0.027   9.700
56583SOL    HW271647   1.280   0.016   9.762
56584SOL     OW71648  13.856  14.222   8.349
56584SOL    HW171649  13.843  14.129   8.370
56584SOL    HW271650  13.900  14.258   8.426
56585SOL     OW71651   8.953   1.005  14.712
56585SOL    HW171652   8.970   1.081  14.656
56585SOL    HW271653   9.010   0.937  14.676
56586SOL     OW71654   8.983  14.511   0.930
56586SOL    HW171655   8.951  14.440   0.874
56586SOL    HW271656   9.077  14.514   0.914
56587SOL     OW71657   1.757   1.079   2.912
56587SOL    HW171658   1.822   1.064   2.981
56587SOL    HW271659   1.804   1.131   2.847
56588SOL     OW71660   1.170  12.901  13.366
56588SOL    HW171661   1.198  12.918  13.456
56588SOL    HW271662   1.075  12.907  13.368
56589SOL     OW71663   1.875  13.157   2.588
56589SOL    HW171664   1.902  13.071   2.621
56589SOL    HW271665   1.922  13.168   2.506
56590SOL     OW71666   0.140   8.639   0.532
56590SOL    HW171667   0.182   8.567   0.579
56590SOL    HW271668   0.049   8.636   0.560
56591SOL     OW71669  11.377   4.717   6.242
56591SOL    HW171670  11.346   4.794   6.289
56591SOL    HW271671  11.311   4.650   6.258
56592SOL     OW71672   7.319   1.148   1.002
56592SOL    HW171673   7.272   1.179   1.079
56592SOL    HW271674   7.364   1.226   0.969
56593SOL     OW71675   4.738  10.381   3.665
56593SOL    HW171676   4.759  10.453   3.725
56593SOL    HW271677   4.718  10.307   3.723
56594SOL     OW71678   7.669   0.896   6.373
56594SOL    HW171679   7.642   0.813   6.332
56594SOL    HW271680   7.764   0.889   6.378
56595SOL     OW71681   3.012   6.693   5.810
56595SOL    HW171682   2.989   6.764   5.870
56595SOL    HW271683   3.050   6.738   5.734
56596SOL     OW71684   3.446  13.989   5.645
56596SOL    HW171685   3.509  14.040   5.697
56596SOL    HW271686   3.361  14.020   5.675
56597SOL     OW71687  10.311   4.535  13.827
56597SOL    HW171688  10.285   4.544  13.736
56597SOL    HW271689  10.371   4.608  13.843
56598SOL     OW71690  13.937   2.581   6.966
56598SOL    HW171691  13.998   2.652   6.947
56598SOL    HW271692  13.858   2.602   6.916
56599SOL     OW71693   6.665   9.727   3.218
56599SOL    HW171694   6.664   9.743   3.312
56599SOL    HW271695   6.668   9.631   3.210
56600SOL     OW71696   3.781  12.610  13.865
56600SOL    HW171697   3.738  12.551  13.803
56600SOL    HW271698   3.810  12.684  13.811
56601SOL     OW71699   6.835   9.388   0.850
56601SOL    HW171700   6.778   9.338   0.792
56601SOL    HW271701   6.904   9.327   0.875
56602SOL     OW71702  14.667   8.025   8.259
56602SOL    HW171703  14.583   8.063   8.233
56602SOL    HW271704  14.723   8.100   8.276
56603SOL     OW71705   9.957   1.019   9.971
56603SOL    HW171706   9.954   1.019   9.875
56603SOL    HW271707  10.042   0.983   9.993
56604SOL     OW71708   6.923   0.954  11.731
56604SOL    HW171709   6.980   0.956  11.654
56604SOL    HW271710   6.841   0.917  11.699
56605SOL     OW71711  11.800   7.995   9.636
56605SOL    HW171712  11.879   8.042   9.660
56605SOL    HW271713  11.747   7.994   9.715
56606SOL     OW71714   1.855  12.998   0.904
56606SOL    HW171715   1.764  12.984   0.876
56606SOL    HW271716   1.850  13.001   1.000
56607SOL     OW71717   6.965  12.230  13.831
56607SOL    HW171718   6.920  12.172  13.892
56607SOL    HW271719   7.006  12.171  13.768
56608SOL     OW71720   4.871   6.525  13.782
56608SOL    HW171721   4.794   6.581  13.771
56608SOL    HW271722   4.861   6.487  13.869
56609SOL     OW71723   3.382  14.149   5.384
56609SOL    HW171724   3.317  14.189   5.326
56609SOL    HW271725   3.385  14.207   5.460
56610SOL     OW71726   2.511  11.414  14.601
56610SOL    HW171727   2.426  11.389  14.566
56610SOL    HW271728   2.493  11.492  14.654
56611SOL     OW71729   3.779   4.973  14.402
56611SOL    HW171730   3.824   4.918  14.338
56611SOL    HW271731   3.687   4.967  14.379
56612SOL     OW71732   4.598   7.089   0.035
56612SOL    HW171733   4.547   7.013   0.006
56612SOL    HW271734   4.574   7.100   0.127
56613SOL     OW71735   9.552   9.840   0.456
56613SOL    HW171736   9.497   9.918   0.459
56613SOL    HW271737   9.521   9.791   0.380
56614SOL     OW71738   9.620   0.534   7.106
56614SOL    HW171739   9.672   0.477   7.049
56614SOL    HW271740   9.674   0.545   7.184
56615SOL     OW71741   4.962   4.826  12.734
56615SOL    HW171742   4.958   4.768  12.658
56615SOL    HW271743   4.959   4.914  12.697
56616SOL     OW71744  11.643   9.365  14.794
56616SOL    HW171745  11.672   9.427  14.727
56616SOL    HW271746  11.558   9.397  14.822
56617SOL     OW71747  12.571   9.744  12.312
56617SOL    HW171748  12.506   9.682  12.280
56617SOL    HW271749  12.542   9.766  12.401
56618SOL     OW71750  14.779   5.219   0.600
56618SOL    HW171751  14.708   5.169   0.561
56618SOL    HW271752  14.735   5.292   0.644
56619SOL     OW71753   0.585   8.341   3.387
56619SOL    HW171754   0.599   8.274   3.319
56619SOL    HW271755   0.593   8.293   3.469
56620SOL     OW71756   1.584  12.780   6.155
56620SOL    HW171757   1.634  12.736   6.086
56620SOL    HW271758   1.565  12.866   6.119
56621SOL     OW71759   9.607   2.993   5.297
56621SOL    HW171760   9.535   2.972   5.238
56621SOL    HW271761   9.571   3.059   5.357
56622SOL     OW71762   3.783   4.221   6.355
56622SOL    HW171763   3.859   4.255   6.401
56622SOL    HW271764   3.712   4.279   6.380
56623SOL     OW71765   1.960   3.794  10.054
56623SOL    HW171766   1.884   3.739  10.076
56623SOL    HW271767   1.945   3.819   9.963
56624SOL     OW71768   0.129   2.326   0.732
56624SOL    HW171769   0.204   2.370   0.692
56624SOL    HW271770   0.060   2.331   0.665
56625SOL     OW71771  13.233   4.661   6.545
56625SOL    HW171772  13.253   4.577   6.585
56625SOL    HW271773  13.205   4.717   6.617
56626SOL     OW71774  10.540  12.288   7.675
56626SOL    HW171775  10.605  12.241   7.623
56626SOL    HW271776  10.471  12.311   7.613
56627SOL     OW71777  10.103  13.988  13.435
56627SOL    HW171778  10.151  13.905  13.427
56627SOL    HW271779  10.168  14.055  13.414
56628SOL     OW71780   3.570  14.849   8.103
56628SOL    HW171781   3.479  14.819   8.103
56628SOL    HW271782   3.603  14.824   8.017
56629SOL     OW71783  13.175   8.678   4.534
56629SOL    HW171784  13.089   8.640   4.517
56629SOL    HW271785  13.203   8.712   4.449
56630SOL     OW71786  14.237  10.143   3.700
56630SOL    HW171787  14.299  10.109   3.635
56630SOL    HW271788  14.185  10.208   3.652
56631SOL     OW71789   5.711   5.542   7.931
56631SOL    HW171790   5.659   5.568   8.007
56631SOL    HW271791   5.802   5.551   7.960
56632SOL     OW71792   7.279   5.954   0.122
56632SOL    HW171793   7.199   5.995   0.155
56632SOL    HW271794   7.350   6.003   0.163
56633SOL     OW71795   0.482   4.383   9.762
56633SOL    HW171796   0.517   4.462   9.802
56633SOL    HW271797   0.559   4.330   9.741
56634SOL     OW71798   8.855   6.094   4.643
56634SOL    HW171799   8.815   6.101   4.556
56634SOL    HW271800   8.906   6.013   4.640
56635SOL     OW71801   4.115  14.666  11.697
56635SOL    HW171802   4.058  14.590  11.708
56635SOL    HW271803   4.170  14.666  11.775
56636SOL     OW71804   7.875   4.658   4.886
56636SOL    HW171805   7.871   4.621   4.974
56636SOL    HW271806   7.784   4.660   4.857
56637SOL     OW71807   3.976  12.910  11.799
56637SOL    HW171808   4.006  12.945  11.715
56637SOL    HW271809   3.898  12.961  11.820
56638SOL     OW71810  11.516   9.941  10.000
56638SOL    HW171811  11.498   9.855  10.036
56638SOL    HW271812  11.431   9.986  10.001
56639SOL     OW71813  14.044  13.692   8.298
56639SOL    HW171814  14.016  13.630   8.231
56639SOL    HW271815  14.060  13.638   8.376
56640SOL     OW71816   7.318  12.157   1.900
56640SOL    HW171817   7.298  12.247   1.927
56640SOL    HW271818   7.232  12.118   1.885
56641SOL     OW71819   2.850   2.308   3.237
56641SOL    HW171820   2.801   2.231   3.207
56641SOL    HW271821   2.935   2.301   3.194
56642SOL     OW71822  11.740   4.314  13.638
56642SOL    HW171823  11.745   4.387  13.576
56642SOL    HW271824  11.684   4.249  13.595
56643SOL     OW71825   2.759   3.858   8.901
56643SOL    HW171826   2.736   3.825   8.988
56643SOL    HW271827   2.794   3.782   8.855
56644SOL     OW71828   9.743   0.355  14.391
56644SOL    HW171829   9.726   0.318  14.478
56644SOL    HW271830   9.743   0.449  14.405
56645SOL     OW71831   9.386  14.864   6.128
56645SOL    HW171832   9.346  14.803   6.189
56645SOL    HW271833   9.469   0.001   6.169
56646SOL     OW71834   7.771   4.367  13.407
56646SOL    HW171835   7.784   4.283  13.451
56646SOL    HW271836   7.676   4.379  13.404
56647SOL     OW71837   6.850   6.798  10.570
56647SOL    HW171838   6.811   6.776  10.654
56647SOL    HW271839   6.779   6.787  10.507
56648SOL     OW71840   6.662   1.140   6.370
56648SOL    HW171841   6.591   1.099   6.319
56648SOL    HW271842   6.697   1.070   6.424
56649SOL     OW71843  11.686  14.698  11.506
56649SOL    HW171844  11.704  14.710  11.599
56649SOL    HW271845  11.690  14.786  11.469
56650SOL     OW71846  10.348   1.577   2.951
56650SOL    HW171847  10.429   1.538   2.982
56650SOL    HW271848  10.285   1.505   2.952
56651SOL     OW71849   1.520   3.494  14.315
56651SOL    HW171850   1.471   3.478  14.234
56651SOL    HW271851   1.455   3.530  14.376
56652SOL     OW71852   0.224   0.199  11.679
56652SOL    HW171853   0.133   0.207  11.706
56652SOL    HW271854   0.226   0.122  11.623
56653SOL     OW71855   9.110   6.964  10.738
56653SOL    HW171856   9.029   6.970  10.789
56653SOL    HW271857   9.112   6.873  10.707
56654SOL     OW71858  10.448   1.132   9.647
56654SOL    HW171859  10.383   1.199   9.668
56654SOL    HW271860  10.486   1.107   9.731
56655SOL     OW71861  13.392  14.463   3.721
56655SOL    HW171862  13.410  14.556   3.704
56655SOL    HW271863  13.297  14.456   3.716
56656SOL     OW71864   5.367   8.749  12.591
56656SOL    HW171865   5.307   8.730  12.518
56656SOL    HW271866   5.349   8.841  12.613
56657SOL     OW71867  13.987  11.998   0.810
56657SOL    HW171868  13.926  12.026   0.878
56657SOL    HW271869  13.984  11.903   0.811
56658SOL     OW71870  10.920   0.724  10.265
56658SOL    HW171871  10.879   0.642  10.291
56658SOL    HW271872  10.978   0.700  10.193
56659SOL     OW71873   0.119   8.486   4.854
56659SOL    HW171874   0.183   8.552   4.880
56659SOL    HW271875   0.103   8.504   4.762
56660SOL     OW71876  13.412   9.550  10.168
56660SOL    HW171877  13.439   9.583  10.253
56660SOL    HW271878  13.408   9.627  10.112
56661SOL     OW71879   1.928  13.082   8.629
56661SOL    HW171880   1.957  12.991   8.621
56661SOL    HW271881   1.898  13.105   8.542
56662SOL     OW71882   5.809   9.323  13.755
56662SOL    HW171883   5.898   9.297  13.731
56662SOL    HW271884   5.819   9.412  13.789
56663SOL     OW71885   7.786  14.563  11.934
56663SOL    HW171886   7.809  14.487  11.987
56663SOL    HW271887   7.702  14.540  11.894
56664SOL     OW71888   5.983   4.179   7.652
56664SOL    HW171889   6.048   4.116   7.621
56664SOL    HW271890   6.002   4.259   7.604
56665SOL     OW71891  12.022   7.691   7.923
56665SOL    HW171892  12.100   7.742   7.942
56665SOL    HW271893  12.013   7.695   7.828
56666SOL     OW71894   1.518   3.885   2.461
56666SOL    HW171895   1.602   3.838   2.456
56666SOL    HW271896   1.468   3.838   2.526
56667SOL     OW71897   0.262   8.880   8.944
56667SOL    HW171898   0.173   8.868   8.912
56667SOL    HW271899   0.283   8.972   8.926
56668SOL     OW71900  14.637   1.508  14.525
56668SOL    HW171901  14.621   1.588  14.474
56668SOL    HW271902  14.650   1.539  14.615
56669SOL     OW71903   0.203   6.889   5.466
56669SOL    HW171904   0.122   6.935   5.487
56669SOL    HW271905   0.240   6.939   5.394
56670SOL     OW71906   2.219   7.843  13.132
56670SOL    HW171907   2.216   7.833  13.227
56670SOL    HW271908   2.153   7.910  13.113
56671SOL     OW71909   1.548   4.343   0.086
56671SOL    HW171910   1.633   4.303   0.068
56671SOL    HW271911   1.567   4.436   0.098
56672SOL     OW71912   5.024   4.983   8.991
56672SOL    HW171913   5.090   5.037   8.946
56672SOL    HW271914   5.072   4.908   9.024
56673SOL     OW71915   6.366  14.145   2.194
56673SOL    HW171916   6.326  14.059   2.190
56673SOL    HW271917   6.342  14.179   2.280
56674SOL     OW71918   4.834   6.288  10.125
56674SOL    HW171919   4.889   6.210  10.134
56674SOL    HW271920   4.786   6.274  10.043
56675SOL     OW71921  11.711  13.317   1.023
56675SOL    HW171922  11.714  13.251   0.953
56675SOL    HW271923  11.706  13.265   1.104
56676SOL     OW71924   6.905  12.843   2.086
56676SOL    HW171925   6.863  12.924   2.056
56676SOL    HW271926   6.872  12.776   2.026
56677SOL     OW71927   2.535   7.654   5.525
56677SOL    HW171928   2.578   7.718   5.467
56677SOL    HW271929   2.543   7.571   5.479
56678SOL     OW71930  10.275   8.044  10.630
56678SOL    HW171931  10.270   7.982  10.557
56678SOL    HW271932  10.367   8.048  10.653
56679SOL     OW71933   1.941  10.594  12.208
56679SOL    HW171934   2.015  10.548  12.169
56679SOL    HW271935   1.929  10.551  12.293
56680SOL     OW71936  13.605   5.423   1.343
56680SOL    HW171937  13.647   5.480   1.407
56680SOL    HW271938  13.512   5.439   1.355
56681SOL     OW71939   9.311   3.006   7.030
56681SOL    HW171940   9.259   2.932   7.063
56681SOL    HW271941   9.402   2.975   7.035
56682SOL     OW71942  10.356  10.767   9.407
56682SOL    HW171943  10.372  10.739   9.498
56682SOL    HW271944  10.435  10.740   9.360
56683SOL     OW71945   6.395  13.520  12.053
56683SOL    HW171946   6.404  13.538  12.147
56683SOL    HW271947   6.320  13.461  12.047
56684SOL     OW71948  11.656   5.308   2.495
56684SOL    HW171949  11.641   5.284   2.586
56684SOL    HW271950  11.682   5.400   2.499
56685SOL     OW71951  10.856   8.881   6.921
56685SOL    HW171952  10.875   8.955   6.863
56685SOL    HW271953  10.941   8.843   6.940
56686SOL     OW71954   5.578   2.797  11.429
56686SOL    HW171955   5.578   2.760  11.341
56686SOL    HW271956   5.667   2.781  11.462
56687SOL     OW71957  11.514   5.280   3.552
56687SOL    HW171958  11.473   5.295   3.637
56687SOL    HW271959  11.582   5.215   3.569
56688SOL     OW71960  12.739  12.928   8.063
56688SOL    HW171961  12.662  12.927   8.007
56688SOL    HW271962  12.767  13.019   8.065
56689SOL     OW71963   4.996   5.176  12.156
56689SOL    HW171964   4.973   5.084  12.161
56689SOL    HW271965   4.912   5.222  12.162
56690SOL     OW71966  10.623   4.415  12.813
56690SOL    HW171967  10.617   4.438  12.721
56690SOL    HW271968  10.568   4.337  12.823
56691SOL     OW71969  14.266   8.260   4.817
56691SOL    HW171970  14.309   8.179   4.790
56691SOL    HW271971  14.190   8.268   4.758
56692SOL     OW71972   1.332  11.732   0.713
56692SOL    HW171973   1.363  11.818   0.686
56692SOL    HW271974   1.270  11.750   0.784
56693SOL     OW71975  14.591  14.382  13.680
56693SOL    HW171976  14.644  14.336  13.615
56693SOL    HW271977  14.535  14.441  13.629
56694SOL     OW71978   2.777  13.327  10.077
56694SOL    HW171979   2.854  13.274  10.058
56694SOL    HW271980   2.756  13.369   9.994
56695SOL     OW71981  10.522   9.350   7.057
56695SOL    HW171982  10.482   9.311   7.135
56695SOL    HW271983  10.448   9.392   7.012
56696SOL     OW71984   3.884  10.252  14.073
56696SOL    HW171985   3.803  10.260  14.124
56696SOL    HW271986   3.940  10.195  14.125
56697SOL     OW71987   8.377  13.997   4.688
56697SOL    HW171988   8.431  14.075   4.700
56697SOL    HW271989   8.357  13.997   4.594
56698SOL     OW71990   4.812   9.402   0.304
56698SOL    HW171991   4.748   9.451   0.356
56698SOL    HW271992   4.808   9.442   0.217
56699SOL     OW71993  14.483   4.267  11.957
56699SOL    HW171994  14.576   4.288  11.969
56699SOL    HW271995  14.481   4.210  11.880
56700SOL     OW71996   9.341   3.247   0.416
56700SOL    HW171997   9.355   3.279   0.505
56700SOL    HW271998   9.383   3.160   0.415
56701SOL     OW71999   3.783  10.471  13.045
56701SOL    HW172000   3.844  10.536  13.010
56701SOL    HW272001   3.762  10.504  13.133
56702SOL     OW72002   5.040   4.450   0.654
56702SOL    HW172003   4.998   4.410   0.730
56702SOL    HW272004   5.081   4.530   0.689
56703SOL     OW72005   9.554   6.785  13.229
56703SOL    HW172006   9.518   6.697  13.219
56703SOL    HW272007   9.479   6.841  13.245
56704SOL     OW72008   0.722  11.574  14.245
56704SOL    HW172009   0.695  11.654  14.200
56704SOL    HW272010   0.663  11.507  14.211
56705SOL     OW72011   7.616   6.615   5.326
56705SOL    HW172012   7.557   6.622   5.251
56705SOL    HW272013   7.681   6.549   5.300
56706SOL     OW72014  10.829  14.013  12.666
56706SOL    HW172015  10.850  13.934  12.715
56706SOL    HW272016  10.733  14.017  12.666
56707SOL     OW72017   7.803   4.186   8.100
56707SOL    HW172018   7.811   4.116   8.164
56707SOL    HW272019   7.873   4.248   8.123
56708SOL     OW72020  10.044  10.275  14.243
56708SOL    HW172021   9.975  10.339  14.224
56708SOL    HW272022  10.018  10.197  14.196
56709SOL     OW72023   0.416   0.500  10.756
56709SOL    HW172024   0.417   0.540  10.843
56709SOL    HW272025   0.499   0.526  10.717
56710SOL     OW72026   8.379  11.914   7.750
56710SOL    HW172027   8.420  11.921   7.836
56710SOL    HW272028   8.438  11.960   7.690
56711SOL     OW72029   0.176   6.056   0.855
56711SOL    HW172030   0.204   6.115   0.925
56711SOL    HW272031   0.090   6.025   0.882
56712SOL     OW72032   4.304  12.518   1.015
56712SOL    HW172033   4.220  12.564   1.006
56712SOL    HW272034   4.325  12.527   1.108
56713SOL     OW72035  13.988  10.614  14.345
56713SOL    HW172036  13.893  10.622  14.332
56713SOL    HW272037  14.020  10.704  14.346
56714SOL     OW72038  12.114  12.090   6.610
56714SOL    HW172039  12.060  12.169   6.612
56714SOL    HW272040  12.202  12.122   6.590
56715SOL     OW72041   6.933   1.571   4.652
56715SOL    HW172042   6.956   1.639   4.589
56715SOL    HW272043   7.016   1.531   4.677
56716SOL     OW72044   4.556   7.228   6.547
56716SOL    HW172045   4.533   7.162   6.611
56716SOL    HW272046   4.646   7.205   6.521
56717SOL     OW72047   9.814  12.659   7.231
56717SOL    HW172048   9.739  12.703   7.271
56717SOL    HW272049   9.839  12.717   7.158
56718SOL     OW72050   0.024   6.360   2.714
56718SOL    HW172051   0.117   6.342   2.724
56718SOL    HW272052   0.013   6.375   2.620
56719SOL     OW72053  13.508  13.714   1.999
56719SOL    HW172054  13.440  13.774   2.030
56719SOL    HW272055  13.491  13.632   2.046
56720SOL     OW72056   4.354   7.477  12.393
56720SOL    HW172057   4.389   7.444  12.476
56720SOL    HW272058   4.424   7.532  12.357
56721SOL     OW72059   7.677   7.015   9.870
56721SOL    HW172060   7.768   7.045   9.863
56721SOL    HW272061   7.628   7.074   9.812
56722SOL     OW72062  11.164   8.915   6.288
56722SOL    HW172063  11.240   8.968   6.313
56722SOL    HW272064  11.188   8.875   6.205
56723SOL     OW72065   4.287   0.490   0.930
56723SOL    HW172066   4.357   0.549   0.901
56723SOL    HW272067   4.288   0.496   1.026
56724SOL     OW72068  10.615  14.454  13.751
56724SOL    HW172069  10.690  14.489  13.704
56724SOL    HW272070  10.653  14.402  13.821
56725SOL     OW72071   0.243   9.934   1.672
56725SOL    HW172072   0.268  10.009   1.617
56725SOL    HW272073   0.196   9.876   1.612
56726SOL     OW72074   2.673  12.587   3.920
56726SOL    HW172075   2.711  12.667   3.955
56726SOL    HW272076   2.592  12.575   3.969
56727SOL     OW72077  10.900   6.152   8.645
56727SOL    HW172078  10.911   6.057   8.647
56727SOL    HW272079  10.915   6.175   8.553
56728SOL     OW72080   1.764   8.895   8.246
56728SOL    HW172081   1.839   8.884   8.305
56728SOL    HW272082   1.699   8.941   8.299
56729SOL     OW72083   8.744   4.125   7.230
56729SOL    HW172084   8.759   4.114   7.324
56729SOL    HW272085   8.652   4.099   7.217
56730SOL     OW72086   0.380  11.163  14.589
56730SOL    HW172087   0.474  11.184  14.588
56730SOL    HW272088   0.360  11.142  14.498
56731SOL     OW72089   3.555   4.405  12.706
56731SOL    HW172090   3.486   4.345  12.676
56731SOL    HW272091   3.606   4.354  12.769
56732SOL     OW72092  11.438   7.654  13.963
56732SOL    HW172093  11.439   7.559  13.969
56732SOL    HW272094  11.383   7.673  13.887
56733SOL     OW72095   3.108   4.084  11.716
56733SOL    HW172096   3.118   4.028  11.793
56733SOL    HW272097   3.022   4.060  11.680
56734SOL     OW72098   9.367   3.850   8.442
56734SOL    HW172099   9.305   3.819   8.376
56734SOL    HW272100   9.316   3.908   8.498
56735SOL     OW72101   4.430   2.782  13.713
56735SOL    HW172102   4.466   2.694  13.723
56735SOL    HW272103   4.341   2.776  13.748
56736SOL     OW72104   7.413  11.070   3.482
56736SOL    HW172105   7.503  11.084   3.455
56736SOL    HW272106   7.388  10.986   3.442
56737SOL     OW72107   0.331   3.462  12.986
56737SOL    HW172108   0.250   3.439  12.941
56737SOL    HW272109   0.375   3.378  13.000
56738SOL     OW72110  14.587   0.079  13.748
56738SOL    HW172111  14.501   0.115  13.729
56738SOL    HW272112  14.622   0.053  13.662
56739SOL     OW72113   9.631   7.977  14.745
56739SOL    HW172114   9.633   7.882  14.756
56739SOL    HW272115   9.554   7.992  14.690
56740SOL     OW72116   6.263  11.504  10.606
56740SOL    HW172117   6.193  11.541  10.552
56740SOL    HW272118   6.304  11.439  10.550
56741SOL     OW72119  11.838  13.570   3.142
56741SOL    HW172120  11.758  13.517   3.140
56741SOL    HW272121  11.885  13.539   3.219
56742SOL     OW72122   2.199   3.366   9.167
56742SOL    HW172123   2.262   3.363   9.094
56742SOL    HW272124   2.118   3.333   9.129
56743SOL     OW72125   1.840   9.313   2.637
56743SOL    HW172126   1.921   9.304   2.587
56743SOL    HW272127   1.771   9.319   2.571
56744SOL     OW72128  12.207   0.270   2.065
56744SOL    HW172129  12.264   0.336   2.024
56744SOL    HW272130  12.246   0.255   2.151
56745SOL     OW72131   4.502  12.398   8.550
56745SOL    HW172132   4.517  12.489   8.523
56745SOL    HW272133   4.497  12.350   8.467
56746SOL     OW72134   8.859   7.441   1.107
56746SOL    HW172135   8.902   7.461   1.191
56746SOL    HW272136   8.884   7.512   1.049
56747SOL     OW72137  10.221   5.413   7.248
56747SOL    HW172138  10.190   5.501   7.225
56747SOL    HW272139  10.262   5.381   7.168
56748SOL     OW72140  14.662   5.631   8.447
56748SOL    HW172141  14.709   5.569   8.391
56748SOL    HW272142  14.707   5.627   8.531
56749SOL     OW72143  10.754  11.301  10.653
56749SOL    HW172144  10.806  11.348  10.718
56749SOL    HW272145  10.680  11.358  10.634
56750SOL     OW72146  13.685  10.032  10.929
56750SOL    HW172147  13.730  10.024  10.845
56750SOL    HW272148  13.736   9.976  10.988
56751SOL     OW72149   8.565   9.070  12.023
56751SOL    HW172150   8.477   9.101  12.001
56751SOL    HW272151   8.621   9.146  12.013
56752SOL     OW72152   0.790   7.094  12.040
56752SOL    HW172153   0.696   7.078  12.055
56752SOL    HW272154   0.803   7.074  11.948
56753SOL     OW72155   1.032   6.734  11.457
56753SOL    HW172156   0.946   6.771  11.476
56753SOL    HW272157   1.073   6.797  11.398
56754SOL     OW72158  11.281   6.695   5.227
56754SOL    HW172159  11.359   6.684   5.281
56754SOL    HW272160  11.208   6.671   5.284
56755SOL     OW72161   7.911   5.668   3.274
56755SOL    HW172162   7.932   5.592   3.329
56755SOL    HW272163   7.840   5.636   3.217
56756SOL     OW72164  14.547   7.914   3.157
56756SOL    HW172165  14.493   7.924   3.236
56756SOL    HW272166  14.503   7.847   3.105
56757SOL     OW72167   9.496   1.698  13.207
56757SOL    HW172168   9.570   1.712  13.266
56757SOL    HW272169   9.459   1.614  13.235
56758SOL     OW72170   1.364   1.304   9.435
56758SOL    HW172171   1.331   1.246   9.366
56758SOL    HW272172   1.285   1.331   9.483
56759SOL     OW72173   9.083  12.395   2.883
56759SOL    HW172174   9.163  12.394   2.831
56759SOL    HW272175   9.104  12.341   2.960
56760SOL     OW72176   7.921   8.420   4.796
56760SOL    HW172177   7.843   8.366   4.782
56760SOL    HW272178   7.888   8.509   4.805
56761SOL     OW72179   5.434   9.351   6.273
56761SOL    HW172180   5.486   9.271   6.267
56761SOL    HW272181   5.366   9.330   6.337
56762SOL     OW72182  10.242   2.925   9.176
56762SOL    HW172183  10.181   2.856   9.202
56762SOL    HW272184  10.196   2.972   9.107
56763SOL     OW72185   6.684   7.876  13.825
56763SOL    HW172186   6.616   7.942  13.835
56763SOL    HW272187   6.766   7.923  13.838
56764SOL     OW72188   4.992   2.280   6.262
56764SOL    HW172189   4.972   2.316   6.175
56764SOL    HW272190   4.934   2.328   6.321
56765SOL     OW72191  13.341   1.336   8.456
56765SOL    HW172192  13.320   1.263   8.514
56765SOL    HW272193  13.256   1.376   8.436
56766SOL     OW72194  13.552  13.253  14.819
56766SOL    HW172195  13.467  13.216  14.798
56766SOL    HW272196  13.542  13.347  14.805
56767SOL     OW72197   5.464   1.038   3.188
56767SOL    HW172198   5.467   1.132   3.172
56767SOL    HW272199   5.554   1.014   3.207
56768SOL     OW72200   0.519   1.924  13.571
56768SOL    HW172201   0.463   1.877  13.509
56768SOL    HW272202   0.497   2.016  13.559
56769SOL     OW72203   9.542   5.740   4.650
56769SOL    HW172204   9.548   5.826   4.693
56769SOL    HW272205   9.593   5.682   4.706
56770SOL     OW72206  11.439   8.880  14.086
56770SOL    HW172207  11.401   8.947  14.029
56770SOL    HW272208  11.499   8.927  14.142
56771SOL     OW72209  11.813  11.780   8.460
56771SOL    HW172210  11.813  11.706   8.399
56771SOL    HW272211  11.878  11.758   8.526
56772SOL     OW72212   5.164  13.297   9.793
56772SOL    HW172213   5.085  13.328   9.749
56772SOL    HW272214   5.197  13.227   9.736
56773SOL     OW72215   5.901   5.532  11.565
56773SOL    HW172216   5.830   5.474  11.538
56773SOL    HW272217   5.973   5.511  11.505
56774SOL     OW72218  11.581  10.311   8.563
56774SOL    HW172219  11.643  10.380   8.584
56774SOL    HW272220  11.634  10.231   8.563
56775SOL     OW72221   3.020   0.736  13.340
56775SOL    HW172222   2.995   0.707  13.428
56775SOL    HW272223   2.940   0.726  13.288
56776SOL     OW72224   6.658  14.225   1.738
56776SOL    HW172225   6.705  14.191   1.814
56776SOL    HW272226   6.690  14.315   1.728
56777SOL     OW72227  14.178   8.001   0.700
56777SOL    HW172228  14.187   8.095   0.683
56777SOL    HW272229  14.119   7.996   0.775
56778SOL     OW72230  11.152  13.009   3.303
56778SOL    HW172231  11.235  12.962   3.292
56778SOL    HW272232  11.114  12.973   3.383
56779SOL     OW72233  14.064   8.931   8.773
56779SOL    HW172234  14.124   8.924   8.848
56779SOL    HW272235  14.096   9.007   8.724
56780SOL     OW72236   3.968  11.309   7.884
56780SOL    HW172237   4.012  11.314   7.969
56780SOL    HW272238   3.906  11.237   7.893
56781SOL     OW72239   9.942   6.386   6.148
56781SOL    HW172240   9.859   6.391   6.194
56781SOL    HW272241   9.930   6.318   6.081
56782SOL     OW72242   3.701   1.607  14.377
56782SOL    HW172243   3.755   1.650  14.443
56782SOL    HW272244   3.760   1.591  14.304
56783SOL     OW72245   3.988   1.602   1.576
56783SOL    HW172246   4.035   1.547   1.513
56783SOL    HW272247   4.039   1.683   1.580
56784SOL     OW72248  12.701   8.102   9.169
56784SOL    HW172249  12.770   8.040   9.191
56784SOL    HW272250  12.655   8.116   9.252
56785SOL     OW72251   5.878  10.758  11.969
56785SOL    HW172252   5.951  10.787  11.915
56785SOL    HW272253   5.803  10.754  11.908
56786SOL     OW72254  10.177   4.728   1.167
56786SOL    HW172255  10.212   4.799   1.112
56786SOL    HW272256  10.195   4.755   1.256
56787SOL     OW72257   6.739   4.124   7.208
56787SOL    HW172258   6.750   4.214   7.179
56787SOL    HW272259   6.775   4.071   7.137
56788SOL     OW72260  10.318   7.370   4.581
56788SOL    HW172261  10.297   7.383   4.674
56788SOL    HW272262  10.236   7.389   4.536
56789SOL     OW72263  12.647   1.236   2.452
56789SOL    HW172264  12.662   1.184   2.531
56789SOL    HW272265  12.568   1.199   2.414
56790SOL     OW72266  13.640   2.536   1.106
56790SOL    HW172267  13.563   2.569   1.060
56790SOL    HW272268  13.606   2.464   1.160
56791SOL     OW72269  10.970   5.131   3.761
56791SOL    HW172270  10.900   5.069   3.741
56791SOL    HW272271  10.924   5.210   3.790
56792SOL     OW72272   9.845   6.061   7.855
56792SOL    HW172273   9.760   6.036   7.818
56792SOL    HW272274   9.879   5.980   7.892
56793SOL     OW72275   3.562  10.542  11.869
56793SOL    HW172276   3.535  10.564  11.780
56793SOL    HW272277   3.569  10.446  11.868
56794SOL     OW72278   5.997  14.489  11.942
56794SOL    HW172279   6.030  14.571  11.906
56794SOL    HW272280   5.924  14.465  11.885
56795SOL     OW72281  10.791   6.499   3.191
56795SOL    HW172282  10.757   6.546   3.114
56795SOL    HW272283  10.796   6.566   3.259
56796SOL     OW72284   2.725   6.392  11.325
56796SOL    HW172285   2.730   6.472  11.379
56796SOL    HW272286   2.762   6.323  11.381
56797SOL     OW72287   7.980  11.439  11.274
56797SOL    HW172288   7.962  11.379  11.346
56797SOL    HW272289   7.972  11.526  11.313
56798SOL     OW72290   9.748   3.588   3.680
56798SOL    HW172291   9.664   3.542   3.689
56798SOL    HW272292   9.724   3.680   3.671
56799SOL     OW72293   7.186   7.407   1.559
56799SOL    HW172294   7.110   7.416   1.617
56799SOL    HW272295   7.258   7.447   1.607
56800SOL     OW72296   8.631   7.252  14.196
56800SOL    HW172297   8.675   7.229  14.279
56800SOL    HW272298   8.541   7.221  14.208
56801SOL     OW72299   7.230  10.408  14.700
56801SOL    HW172300   7.235  10.332  14.642
56801SOL    HW272301   7.138  10.433  14.698
56802SOL     OW72302   1.233   6.347   8.266
56802SOL    HW172303   1.229   6.333   8.171
56802SOL    HW272304   1.156   6.301   8.300
56803SOL     OW72305   6.385   4.271   8.688
56803SOL    HW172306   6.361   4.221   8.610
56803SOL    HW272307   6.303   4.281   8.737
56804SOL     OW72308  13.929   6.393   8.874
56804SOL    HW172309  13.967   6.472   8.912
56804SOL    HW272310  13.899   6.420   8.787
56805SOL     OW72311   1.700   8.811   1.408
56805SOL    HW172312   1.738   8.871   1.473
56805SOL    HW272313   1.701   8.725   1.451
56806SOL     OW72314  12.814   9.580  11.619
56806SOL    HW172315  12.748   9.638  11.582
56806SOL    HW272316  12.876   9.565  11.547
56807SOL     OW72317  10.341  12.793   2.041
56807SOL    HW172318  10.267  12.769   2.097
56807SOL    HW272319  10.409  12.821   2.103
56808SOL     OW72320   0.271   9.386  12.534
56808SOL    HW172321   0.216   9.448  12.487
56808SOL    HW272322   0.236   9.387  12.624
56809SOL     OW72323  10.186   0.124   0.820
56809SOL    HW172324  10.189   0.151   0.912
56809SOL    HW272325  10.278   0.126   0.792
56810SOL     OW72326   5.018   6.281   4.075
56810SOL    HW172327   5.048   6.328   3.997
56810SOL    HW272328   4.957   6.342   4.116
56811SOL     OW72329   0.186   9.063   7.654
56811SOL    HW172330   0.119   9.128   7.675
56811SOL    HW272331   0.269   9.105   7.676
56812SOL     OW72332   0.485   8.489   0.646
56812SOL    HW172333   0.399   8.459   0.677
56812SOL    HW272334   0.535   8.506   0.727
56813SOL     OW72335   8.984   4.999   1.715
56813SOL    HW172336   8.905   5.028   1.759
56813SOL    HW272337   8.967   5.015   1.622
56814SOL     OW72338  10.040   0.415   5.975
56814SOL    HW172339  10.054   0.341   6.033
56814SOL    HW272340   9.948   0.407   5.947
56815SOL     OW72341  10.682   6.732  11.059
56815SOL    HW172342  10.633   6.663  11.102
56815SOL    HW272343  10.622   6.766  10.992
56816SOL     OW72344  11.661  10.174   7.175
56816SOL    HW172345  11.628  10.085   7.190
56816SOL    HW272346  11.656  10.215   7.261
56817SOL     OW72347  11.428   5.202   6.582
56817SOL    HW172348  11.370   5.260   6.632
56817SOL    HW272349  11.474   5.151   6.648
56818SOL     OW72350   0.645   7.238   1.251
56818SOL    HW172351   0.585   7.287   1.194
56818SOL    HW272352   0.703   7.305   1.287
56819SOL     OW72353  11.743   7.148  10.599
56819SOL    HW172354  11.818   7.190  10.641
56819SOL    HW272355  11.669   7.206  10.618
56820SOL     OW72356   7.226   3.370   8.203
56820SOL    HW172357   7.227   3.428   8.127
56820SOL    HW272358   7.289   3.409   8.264
56821SOL     OW72359   7.611   2.497  11.280
56821SOL    HW172360   7.693   2.476  11.234
56821SOL    HW272361   7.563   2.414  11.283
56822SOL     OW72362  13.922   6.466   2.429
56822SOL    HW172363  13.896   6.456   2.338
56822SOL    HW272364  13.848   6.431   2.479
56823SOL     OW72365   9.360  13.161   3.783
56823SOL    HW172366   9.378  13.072   3.753
56823SOL    HW272367   9.266  13.162   3.800
56824SOL     OW72368  13.572  10.531   6.175
56824SOL    HW172369  13.635  10.545   6.245
56824SOL    HW272370  13.576  10.437   6.158
56825SOL     OW72371  11.909   3.068  12.956
56825SOL    HW172372  11.951   3.131  13.014
56825SOL    HW272373  11.861   3.010  13.015
56826SOL     OW72374   5.086   2.887   8.435
56826SOL    HW172375   4.997   2.852   8.443
56826SOL    HW272376   5.123   2.878   8.522
56827SOL     OW72377  11.358   0.131   2.471
56827SOL    HW172378  11.305   0.059   2.438
56827SOL    HW272379  11.381   0.181   2.392
56828SOL     OW72380  12.946   9.937   8.690
56828SOL    HW172381  12.930  10.004   8.756
56828SOL    HW272382  12.859   9.914   8.658
56829SOL     OW72383   2.323  14.838  11.088
56829SOL    HW172384   2.268  14.883  11.024
56829SOL    HW272385   2.346  14.755  11.046
56830SOL     OW72386   8.682  13.909  13.246
56830SOL    HW172387   8.753  13.919  13.182
56830SOL    HW272388   8.666  13.998  13.278
56831SOL     OW72389   7.711   5.960  11.797
56831SOL    HW172390   7.689   5.873  11.764
56831SOL    HW272391   7.737   6.010  11.720
56832SOL     OW72392   6.003  10.858   5.775
56832SOL    HW172393   6.032  10.922   5.711
56832SOL    HW272394   6.077  10.797   5.783
56833SOL     OW72395  10.445   8.199   4.956
56833SOL    HW172396  10.445   8.104   4.948
56833SOL    HW272397  10.522   8.219   5.010
56834SOL     OW72398  11.806   5.387   9.410
56834SOL    HW172399  11.820   5.317   9.346
56834SOL    HW272400  11.713   5.408   9.403
56835SOL     OW72401   1.723   4.292  12.343
56835SOL    HW172402   1.766   4.326  12.422
56835SOL    HW272403   1.781   4.318  12.271
56836SOL     OW72404  11.380   0.313  14.801
56836SOL    HW172405  11.417   0.298  14.714
56836SOL    HW272406  11.296   0.356  14.783
56837SOL     OW72407   3.601   4.010   4.525
56837SOL    HW172408   3.536   3.970   4.583
56837SOL    HW272409   3.638   4.081   4.576
56838SOL     OW72410   6.051  11.856   7.979
56838SOL    HW172411   5.971  11.889   8.019
56838SOL    HW272412   6.081  11.928   7.922
56839SOL     OW72413  11.144   8.161   4.858
56839SOL    HW172414  11.230   8.200   4.876
56839SOL    HW272415  11.102   8.223   4.798
56840SOL     OW72416  14.813  12.192  12.404
56840SOL    HW172417  14.760  12.271  12.412
56840SOL    HW272418  14.750  12.121  12.400
56841SOL     OW72419   2.777   1.672  13.261
56841SOL    HW172420   2.844   1.611  13.292
56841SOL    HW272421   2.711   1.673  13.330
56842SOL     OW72422   6.077   1.685   2.704
56842SOL    HW172423   6.146   1.687   2.770
56842SOL    HW272424   6.035   1.771   2.710
56843SOL     OW72425   1.090   7.453   7.655
56843SOL    HW172426   1.061   7.537   7.620
56843SOL    HW272427   1.053   7.388   7.596
56844SOL     OW72428   4.149   1.224   6.024
56844SOL    HW172429   4.144   1.319   6.015
56844SOL    HW272430   4.139   1.191   5.934
56845SOL     OW72431   4.805   6.318   0.575
56845SOL    HW172432   4.757   6.400   0.587
56845SOL    HW272433   4.835   6.321   0.484
56846SOL     OW72434  11.039  11.059   4.127
56846SOL    HW172435  11.080  10.979   4.160
56846SOL    HW272436  10.963  11.028   4.079
56847SOL     OW72437   1.482   5.619   3.188
56847SOL    HW172438   1.576   5.610   3.175
56847SOL    HW272439   1.473   5.670   3.268
56848SOL     OW72440   6.567  10.193   4.122
56848SOL    HW172441   6.508  10.127   4.086
56848SOL    HW272442   6.520  10.230   4.196
56849SOL     OW72443   4.291   6.072   8.432
56849SOL    HW172444   4.375   6.089   8.473
56849SOL    HW272445   4.228   6.119   8.487
56850SOL     OW72446  10.643   6.561   4.342
56850SOL    HW172447  10.682   6.533   4.259
56850SOL    HW272448  10.644   6.656   4.338
56851SOL     OW72449   2.890   9.382   4.428
56851SOL    HW172450   2.913   9.365   4.337
56851SOL    HW272451   2.973   9.403   4.471
56852SOL     OW72452  14.045   1.824  10.286
56852SOL    HW172453  13.962   1.790  10.253
56852SOL    HW272454  14.102   1.828  10.209
56853SOL     OW72455   2.740  11.618   9.652
56853SOL    HW172456   2.666  11.675   9.632
56853SOL    HW272457   2.801  11.630   9.579
56854SOL     OW72458   8.041  12.595   1.052
56854SOL    HW172459   7.965  12.551   1.089
56854SOL    HW272460   8.055  12.551   0.968
56855SOL     OW72461   9.699   9.810   9.409
56855SOL    HW172462   9.790   9.787   9.428
56855SOL    HW272463   9.647   9.743   9.453
56856SOL     OW72464   6.469   3.468  10.274
56856SOL    HW172465   6.491   3.556  10.305
56856SOL    HW272466   6.506   3.463  10.186
56857SOL     OW72467   6.491   6.782  13.201
56857SOL    HW172468   6.463   6.783  13.109
56857SOL    HW272469   6.462   6.697  13.234
56858SOL     OW72470   7.789   4.238   0.262
56858SOL    HW172471   7.792   4.158   0.210
56858SOL    HW272472   7.764   4.210   0.350
56859SOL     OW72473   2.771  13.755   0.463
56859SOL    HW172474   2.768  13.844   0.426
56859SOL    HW272475   2.692  13.749   0.516
56860SOL     OW72476   1.129   0.704  12.166
56860SOL    HW172477   1.079   0.624  12.147
56860SOL    HW272478   1.217   0.686  12.132
56861SOL     OW72479  14.855   3.732   0.204
56861SOL    HW172480   0.027   3.764   0.137
56861SOL    HW272481  14.850   3.803   0.268
56862SOL     OW72482   5.395  11.890  12.820
56862SOL    HW172483   5.399  11.804  12.777
56862SOL    HW272484   5.345  11.875  12.900
56863SOL     OW72485  10.620   5.757  11.095
56863SOL    HW172486  10.657   5.713  11.171
56863SOL    HW272487  10.525   5.745  11.104
56864SOL     OW72488   7.181   5.331   6.342
56864SOL    HW172489   7.202   5.307   6.432
56864SOL    HW272490   7.099   5.285   6.323
56865SOL     OW72491   9.513   0.133   2.064
56865SOL    HW172492   9.484   0.108   2.151
56865SOL    HW272493   9.504   0.054   2.012
56866SOL     OW72494   6.087  10.366   1.577
56866SOL    HW172495   6.082  10.284   1.625
56866SOL    HW272496   6.108  10.340   1.487
56867SOL     OW72497   5.307  10.470  14.633
56867SOL    HW172498   5.313  10.456  14.727
56867SOL    HW272499   5.392  10.507  14.608
56868SOL     OW72500  13.658   6.742   4.835
56868SOL    HW172501  13.595   6.810   4.858
56868SOL    HW272502  13.651   6.734   4.740
56869SOL     OW72503  11.198   7.183  10.285
56869SOL    HW172504  11.268   7.127  10.251
56869SOL    HW272505  11.122   7.125  10.291
56870SOL     OW72506   5.915   3.609   9.085
56870SOL    HW172507   5.986   3.632   9.145
56870SOL    HW272508   5.925   3.670   9.012
56871SOL     OW72509   7.566   0.402  12.887
56871SOL    HW172510   7.574   0.479  12.943
56871SOL    HW272511   7.592   0.329  12.944
56872SOL     OW72512   9.439   6.848  10.121
56872SOL    HW172513   9.360   6.799  10.146
56872SOL    HW272514   9.486   6.860  10.204
56873SOL     OW72515  10.869  13.852   2.524
56873SOL    HW172516  10.824  13.843   2.440
56873SOL    HW272517  10.949  13.800   2.513
56874SOL     OW72518  14.825   0.808  11.811
56874SOL    HW172519  14.742   0.855  11.811
56874SOL    HW272520  14.848   0.800  11.904
56875SOL     OW72521   8.324   6.122  12.680
56875SOL    HW172522   8.330   6.157  12.592
56875SOL    HW272523   8.324   6.027  12.668
56876SOL     OW72524  10.396  10.092   7.740
56876SOL    HW172525  10.328  10.074   7.806
56876SOL    HW272526  10.347  10.119   7.662
56877SOL     OW72527   9.190   7.156  13.508
56877SOL    HW172528   9.097   7.174  13.522
56877SOL    HW272529   9.230   7.176  13.593
56878SOL     OW72530   5.130  11.028  10.244
56878SOL    HW172531   5.166  10.939  10.236
56878SOL    HW272532   5.049  11.016  10.293
56879SOL     OW72533   5.733   2.969  13.689
56879SOL    HW172534   5.785   2.940  13.764
56879SOL    HW272535   5.795   2.972  13.617
56880SOL     OW72536   2.024   9.000   1.465
56880SOL    HW172537   2.075   8.934   1.419
56880SOL    HW272538   2.090   9.053   1.511
56881SOL     OW72539   0.190  14.375  10.614
56881SOL    HW172540   0.233  14.421  10.542
56881SOL    HW272541   0.129  14.439  10.650
56882SOL     OW72542  12.392   5.880   2.902
56882SOL    HW172543  12.302   5.859   2.879
56882SOL    HW272544  12.444   5.846   2.829
56883SOL     OW72545  13.087   5.955   0.903
56883SOL    HW172546  13.063   6.045   0.923
56883SOL    HW272547  13.117   5.918   0.986
56884SOL     OW72548  12.571   5.200  12.967
56884SOL    HW172549  12.557   5.228  13.058
56884SOL    HW272550  12.547   5.108  12.967
56885SOL     OW72551  14.834   8.303  14.477
56885SOL    HW172552  14.818   8.394  14.451
56885SOL    HW272553  14.841   8.255  14.395
56886SOL     OW72554   3.738   6.919   7.627
56886SOL    HW172555   3.798   6.951   7.694
56886SOL    HW272556   3.780   6.839   7.594
56887SOL     OW72557   7.936  11.064  12.152
56887SOL    HW172558   7.875  10.991  12.162
56887SOL    HW272559   8.021  11.022  12.143
56888SOL     OW72560   3.709   4.877   7.801
56888SOL    HW172561   3.621   4.914   7.802
56888SOL    HW272562   3.751   4.918   7.726
56889SOL     OW72563  12.462   0.681   0.381
56889SOL    HW172564  12.373   0.681   0.417
56889SOL    HW272565  12.450   0.662   0.288
56890SOL     OW72566   6.153  14.066   3.246
56890SOL    HW172567   6.229  14.122   3.232
56890SOL    HW272568   6.180  13.981   3.212
56891SOL     OW72569   3.357  10.853  14.536
56891SOL    HW172570   3.274  10.821  14.572
56891SOL    HW272571   3.424  10.807  14.585
56892SOL     OW72572   2.603  11.027   3.362
56892SOL    HW172573   2.686  10.993   3.327
56892SOL    HW272574   2.580  10.964   3.431
56893SOL     OW72575  13.958  12.514   4.885
56893SOL    HW172576  14.051  12.499   4.869
56893SOL    HW272577  13.934  12.448   4.949
56894SOL     OW72578   6.498   4.540   0.092
56894SOL    HW172579   6.527   4.451   0.112
56894SOL    HW272580   6.451   4.568   0.171
56895SOL     OW72581   6.949  14.593  10.313
56895SOL    HW172582   6.993  14.510  10.293
56895SOL    HW272583   6.987  14.656  10.252
56896SOL     OW72584   6.753   9.312   2.801
56896SOL    HW172585   6.746   9.284   2.892
56896SOL    HW272586   6.751   9.408   2.805
56897SOL     OW72587  11.953   7.713   2.710
56897SOL    HW172588  11.875   7.750   2.752
56897SOL    HW272589  11.999   7.788   2.674
56898SOL     OW72590   5.143   0.589   2.806
56898SOL    HW172591   5.109   0.674   2.833
56898SOL    HW272592   5.083   0.560   2.737
56899SOL     OW72593   4.949  11.101   8.465
56899SOL    HW172594   4.998  11.049   8.529
56899SOL    HW272595   4.933  11.041   8.392
56900SOL     OW72596  11.365   4.679   6.962
56900SOL    HW172597  11.447   4.686   7.011
56900SOL    HW272598  11.316   4.609   7.007
56901SOL     OW72599   7.199  12.929   1.192
56901SOL    HW172600   7.171  12.845   1.227
56901SOL    HW272601   7.202  12.987   1.268
56902SOL     OW72602  10.621  14.455   4.561
56902SOL    HW172603  10.639  14.430   4.651
56902SOL    HW272604  10.581  14.542   4.567
56903SOL     OW72605  10.685   5.108  12.041
56903SOL    HW172606  10.700   5.056  11.961
56903SOL    HW272607  10.771   5.112  12.083
56904SOL     OW72608  12.370  11.605  14.060
56904SOL    HW172609  12.305  11.670  14.035
56904SOL    HW272610  12.451  11.634  14.017
56905SOL     OW72611   6.922   6.952   1.159
56905SOL    HW172612   6.883   6.917   1.239
56905SOL    HW272613   7.016   6.937   1.169
56906SOL     OW72614   7.810   6.352  14.470
56906SOL    HW172615   7.805   6.294  14.546
56906SOL    HW272616   7.728   6.403  14.473
56907SOL     OW72617   4.347  13.026   3.630
56907SOL    HW172618   4.272  13.077   3.599
56907SOL    HW272619   4.406  13.090   3.668
56908SOL     OW72620   4.968   0.722  12.194
56908SOL    HW172621   5.038   0.786  12.183
56908SOL    HW272622   4.887   0.773  12.188
56909SOL     OW72623  12.807   8.335   4.230
56909SOL    HW172624  12.867   8.404   4.203
56909SOL    HW272625  12.722   8.363   4.197
56910SOL     OW72626   6.676   4.960  13.633
56910SOL    HW172627   6.744   5.024  13.612
56910SOL    HW272628   6.719   4.896  13.689
56911SOL     OW72629   0.803   8.663  14.748
56911SOL    HW172630   0.744   8.685  14.676
56911SOL    HW272631   0.769   8.580  14.782
56912SOL     OW72632  13.727   1.259   0.517
56912SOL    HW172633  13.648   1.205   0.518
56912SOL    HW272634  13.710   1.325   0.450
56913SOL     OW72635   2.347  13.153   3.767
56913SOL    HW172636   2.364  13.164   3.673
56913SOL    HW272637   2.251  13.153   3.774
56914SOL     OW72638  12.540   2.963   2.115
56914SOL    HW172639  12.537   2.887   2.056
56914SOL    HW272640  12.542   2.924   2.203
56915SOL     OW72641   5.159  13.805   9.605
56915SOL    HW172642   5.171  13.731   9.546
56915SOL    HW272643   5.121  13.767   9.684
56916SOL     OW72644   2.991   8.965   2.303
56916SOL    HW172645   3.068   8.918   2.334
56916SOL    HW272646   2.928   8.897   2.280
56917SOL     OW72647   2.063   9.802   0.986
56917SOL    HW172648   2.084   9.851   0.906
56917SOL    HW272649   2.060   9.869   1.054
56918SOL     OW72650  10.644   6.013  14.649
56918SOL    HW172651  10.579   6.081  14.629
56918SOL    HW272652  10.647   5.959  14.570
56919SOL     OW72653   4.653   2.996   7.261
56919SOL    HW172654   4.605   2.974   7.341
56919SOL    HW272655   4.695   2.914   7.235
56920SOL     OW72656   5.010   6.144  12.573
56920SOL    HW172657   5.058   6.221  12.604
56920SOL    HW272658   4.928   6.178  12.539
56921SOL     OW72659   1.219  10.661   0.771
56921SOL    HW172660   1.208  10.687   0.862
56921SOL    HW272661   1.174  10.729   0.721
56922SOL     OW72662  11.960   3.670  13.419
56922SOL    HW172663  11.976   3.641  13.329
56922SOL    HW272664  11.880   3.624  13.445
56923SOL     OW72665   9.351  11.149  12.655
56923SOL    HW172666   9.267  11.190  12.634
56923SOL    HW272667   9.337  11.056  12.640
56924SOL     OW72668   9.848   0.443   8.914
56924SOL    HW172669   9.780   0.410   8.972
56924SOL    HW272670   9.928   0.443   8.968
56925SOL     OW72671  13.412   0.647   4.702
56925SOL    HW172672  13.325   0.628   4.739
56925SOL    HW272673  13.401   0.633   4.608
56926SOL     OW72674   6.731   8.621   4.394
56926SOL    HW172675   6.638   8.636   4.383
56926SOL    HW272676   6.767   8.707   4.417
56927SOL     OW72677   1.249   3.041  13.079
56927SOL    HW172678   1.194   3.113  13.046
56927SOL    HW272679   1.263   2.985  13.003
56928SOL     OW72680   3.174   7.443  14.235
56928SOL    HW172681   3.263   7.409  14.231
56928SOL    HW272682   3.179   7.517  14.296
56929SOL     OW72683   3.732  13.065   0.341
56929SOL    HW172684   3.823  13.035   0.345
56929SOL    HW272685   3.680  12.990   0.369
56930SOL     OW72686   8.477   7.382   2.348
56930SOL    HW172687   8.405   7.431   2.388
56930SOL    HW272688   8.480   7.413   2.258
56931SOL     OW72689   9.103   0.039   2.751
56931SOL    HW172690   9.128   0.084   2.831
56931SOL    HW272691   9.103  14.833   2.774
56932SOL     OW72692  11.534  11.365   8.068
56932SOL    HW172693  11.609  11.307   8.056
56932SOL    HW272694  11.508  11.352   8.159
56933SOL     OW72695   0.005  13.425  12.696
56933SOL    HW172696  14.876  13.385  12.781
56933SOL    HW272697  14.884  13.353  12.634
56934SOL     OW72698   7.141   4.291  10.225
56934SOL    HW172699   7.150   4.372  10.175
56934SOL    HW272700   7.047   4.274  10.226
56935SOL     OW72701   0.865   6.013   1.121
56935SOL    HW172702   0.947   6.014   1.071
56935SOL    HW272703   0.876   5.940   1.182
56936SOL     OW72704  13.442  14.800  14.285
56936SOL    HW172705  13.373  14.765  14.229
56936SOL    HW272706  13.396  14.850  14.352
56937SOL     OW72707   3.071  10.404   2.532
56937SOL    HW172708   3.163  10.385   2.515
56937SOL    HW272709   3.064  10.404   2.628
56938SOL     OW72710   8.255   5.777   0.895
56938SOL    HW172711   8.286   5.812   0.978
56938SOL    HW272712   8.196   5.844   0.861
56939SOL     OW72713  10.413   9.083   4.969
56939SOL    HW172714  10.493   9.077   4.918
56939SOL    HW272715  10.357   9.013   4.935
56940SOL     OW72716  10.013   7.802  12.583
56940SOL    HW172717   9.966   7.721  12.563
56940SOL    HW272718   9.946   7.870  12.581
56941SOL     OW72719   0.428   0.237   3.230
56941SOL    HW172720   0.347   0.186   3.233
56941SOL    HW272721   0.456   0.230   3.139
56942SOL     OW72722  13.405   9.911   3.959
56942SOL    HW172723  13.407   9.882   4.051
56942SOL    HW272724  13.496   9.903   3.929
56943SOL     OW72725   7.632  14.303  13.961
56943SOL    HW172726   7.634  14.208  13.955
56943SOL    HW272727   7.698  14.326  14.026
56944SOL     OW72728  12.020   7.290  13.512
56944SOL    HW172729  12.089   7.234  13.548
56944SOL    HW272730  12.065   7.369  13.482
56945SOL     OW72731  13.633   4.259   3.112
56945SOL    HW172732  13.638   4.353   3.132
56945SOL    HW272733  13.683   4.249   3.031
56946SOL     OW72734   7.875  11.872   9.972
56946SOL    HW172735   7.782  11.892   9.986
56946SOL    HW272736   7.882  11.854   9.878
56947SOL     OW72737   5.766   3.110  14.865
56947SOL    HW172738   5.826   3.108  14.791
56947SOL    HW272739   5.772   3.022   0.016
56948SOL     OW72740  10.847  10.668  14.137
56948SOL    HW172741  10.886  10.624  14.213
56948SOL    HW272742  10.764  10.703  14.170
56949SOL     OW72743   3.305   5.087   2.846
56949SOL    HW172744   3.275   4.999   2.867
56949SOL    HW272745   3.376   5.074   2.783
56950SOL     OW72746  10.041  11.552   5.607
56950SOL    HW172747   9.954  11.585   5.584
56950SOL    HW272748  10.080  11.529   5.523
56951SOL     OW72749   9.991  12.412  12.295
56951SOL    HW172750   9.975  12.486  12.353
56951SOL    HW272751  10.083  12.390  12.308
56952SOL     OW72752   3.735   0.163  10.346
56952SOL    HW172753   3.744   0.068  10.345
56952SOL    HW272754   3.683   0.182  10.424
56953SOL     OW72755  13.538   9.989   4.854
56953SOL    HW172756  13.622  10.035   4.860
56953SOL    HW272757  13.474  10.052   4.888
56954SOL     OW72758   3.557   9.735   3.556
56954SOL    HW172759   3.522   9.824   3.552
56954SOL    HW272760   3.642   9.740   3.512
56955SOL     OW72761   5.782   7.807   4.620
56955SOL    HW172762   5.820   7.880   4.668
56955SOL    HW272763   5.780   7.735   4.682
56956SOL     OW72764   0.388   7.174   8.105
56956SOL    HW172765   0.412   7.101   8.048
56956SOL    HW272766   0.435   7.157   8.187
56957SOL     OW72767  14.673  14.382   5.897
56957SOL    HW172768  14.624  14.313   5.853
56957SOL    HW272769  14.651  14.462   5.850
56958SOL     OW72770  14.868   6.891   7.485
56958SOL    HW172771  14.881   6.802   7.453
56958SOL    HW272772  14.830   6.938   7.410
56959SOL     OW72773   1.339  14.250  11.691
56959SOL    HW172774   1.383  14.333  11.713
56959SOL    HW272775   1.253  14.276  11.659
56960SOL     OW72776   8.176  11.345   4.690
56960SOL    HW172777   8.271  11.349   4.680
56960SOL    HW272778   8.160  11.259   4.730
56961SOL     OW72779   6.185   2.526   5.236
56961SOL    HW172780   6.205   2.446   5.285
56961SOL    HW272781   6.254   2.531   5.170
56962SOL     OW72782   5.061   5.203   5.553
56962SOL    HW172783   5.103   5.131   5.599
56962SOL    HW272784   4.967   5.189   5.566
56963SOL     OW72785   9.978   0.117   2.653
56963SOL    HW172786   9.983   0.086   2.743
56963SOL    HW272787   9.896   0.166   2.648
56964SOL     OW72788   2.117  13.424  10.135
56964SOL    HW172789   2.100  13.356  10.200
56964SOL    HW272790   2.119  13.505  10.185
56965SOL     OW72791   8.595   9.021  11.461
56965SOL    HW172792   8.685   9.032  11.431
56965SOL    HW272793   8.575   9.103  11.506
56966SOL     OW72794   6.798   3.985   5.017
56966SOL    HW172795   6.760   4.053   4.961
56966SOL    HW272796   6.733   3.914   5.015
56967SOL     OW72797   4.011   5.333   3.352
56967SOL    HW172798   4.025   5.266   3.419
56967SOL    HW272799   3.918   5.326   3.330
56968SOL     OW72800   5.827   2.062   2.372
56968SOL    HW172801   5.788   1.979   2.400
56968SOL    HW272802   5.921   2.044   2.369
56969SOL     OW72803   4.350   1.898  13.969
56969SOL    HW172804   4.435   1.875  14.006
56969SOL    HW272805   4.313   1.962  14.029
56970SOL     OW72806   4.707   9.206   9.477
56970SOL    HW172807   4.625   9.195   9.430
56970SOL    HW272808   4.683   9.203   9.570
56971SOL     OW72809   4.462  13.983  12.316
56971SOL    HW172810   4.503  13.898  12.331
56971SOL    HW272811   4.534  14.045  12.314
56972SOL     OW72812   3.514  10.121   1.377
56972SOL    HW172813   3.583  10.054   1.379
56972SOL    HW272814   3.481  10.118   1.287
56973SOL     OW72815   7.934   5.688   7.009
56973SOL    HW172816   7.918   5.640   6.928
56973SOL    HW272817   7.894   5.774   6.994
56974SOL     OW72818  12.626   0.774  14.017
56974SOL    HW172819  12.597   0.858  13.982
56974SOL    HW272820  12.567   0.757  14.090
56975SOL     OW72821   1.590   0.866   3.546
56975SOL    HW172822   1.548   0.781   3.561
56975SOL    HW272823   1.632   0.887   3.630
56976SOL     OW72824   1.738   9.293  11.993
56976SOL    HW172825   1.816   9.349  11.990
56976SOL    HW272826   1.688   9.320  11.916
56977SOL     OW72827  14.482  10.634  14.007
56977SOL    HW172828  14.551  10.650  13.943
56977SOL    HW272829  14.520  10.657  14.091
56978SOL     OW72830   3.168  11.536  10.114
56978SOL    HW172831   3.171  11.618  10.162
56978SOL    HW272832   3.218  11.552  10.035
56979SOL     OW72833  14.602   5.757   0.419
56979SOL    HW172834  14.692   5.726   0.408
56979SOL    HW272835  14.589   5.820   0.348
56980SOL     OW72836   0.721  14.402   4.993
56980SOL    HW172837   0.732  14.320   4.945
56980SOL    HW272838   0.671  14.458   4.933
56981SOL     OW72839   3.693  12.874  14.428
56981SOL    HW172840   3.728  12.896  14.342
56981SOL    HW272841   3.631  12.803  14.412
56982SOL     OW72842   3.580  11.090   4.277
56982SOL    HW172843   3.642  11.053   4.216
56982SOL    HW272844   3.553  11.016   4.332
56983SOL     OW72845   5.627   6.043   1.280
56983SOL    HW172846   5.661   6.048   1.369
56983SOL    HW272847   5.533   6.029   1.291
56984SOL     OW72848   1.853   7.810   0.296
56984SOL    HW172849   1.847   7.753   0.220
56984SOL    HW272850   1.945   7.835   0.301
56985SOL     OW72851   8.063  10.297  10.320
56985SOL    HW172852   8.109  10.215  10.335
56985SOL    HW272853   7.971  10.276  10.336
56986SOL     OW72854  11.027  13.296   7.691
56986SOL    HW172855  11.109  13.340   7.715
56986SOL    HW272856  11.053  13.225   7.633
56987SOL     OW72857   1.719   4.762   8.148
56987SOL    HW172858   1.701   4.686   8.093
56987SOL    HW272859   1.640   4.816   8.141
56988SOL     OW72860   0.835   1.081   0.162
56988SOL    HW172861   0.784   1.152   0.201
56988SOL    HW272862   0.849   1.019   0.234
56989SOL     OW72863   5.560  12.470   2.335
56989SOL    HW172864   5.656  12.475   2.342
56989SOL    HW272865   5.536  12.552   2.292
56990SOL     OW72866   1.984   1.693   9.391
56990SOL    HW172867   1.961   1.786   9.396
56990SOL    HW272868   1.942   1.662   9.312
56991SOL     OW72869   6.812   6.362   0.005
56991SOL    HW172870   6.839   6.407  14.813
56991SOL    HW272871   6.761   6.286  14.862
56992SOL     OW72872  11.719   3.485  14.534
56992SOL    HW172873  11.801   3.462  14.489
56992SOL    HW272874  11.668   3.532  14.468
56993SOL     OW72875  11.039   9.391   0.545
56993SOL    HW172876  10.957   9.355   0.513
56993SOL    HW272877  11.099   9.317   0.546
56994SOL     OW72878  13.776   4.350  13.251
56994SOL    HW172879  13.859   4.304  13.236
56994SOL    HW272880  13.761   4.343  13.345
56995SOL     OW72881  12.422   8.082  14.620
56995SOL    HW172882  12.367   8.083  14.699
56995SOL    HW272883  12.466   7.997  14.623
56996SOL     OW72884   5.267   7.832   3.309
56996SOL    HW172885   5.296   7.889   3.237
56996SOL    HW272886   5.259   7.746   3.269
56997SOL     OW72887   9.907   8.163   6.341
56997SOL    HW172888   9.897   8.147   6.435
56997SOL    HW272889   9.842   8.106   6.301
56998SOL     OW72890   2.785  11.805   0.329
56998SOL    HW172891   2.753  11.821   0.241
56998SOL    HW272892   2.811  11.892   0.361
56999SOL     OW72893   2.195   7.997  11.461
56999SOL    HW172894   2.257   8.052  11.509
56999SOL    HW272895   2.199   8.029  11.371
57000SOL     OW72896  13.538  13.999   8.469
57000SOL    HW172897  13.454  14.035   8.494
57000SOL    HW272898  13.583  13.982   8.552
57001SOL     OW72899   7.036  13.801   8.469
57001SOL    HW172900   6.967  13.848   8.423
57001SOL    HW272901   6.999  13.713   8.483
57002SOL     OW72902  13.747   5.106   0.181
57002SOL    HW172903  13.702   5.181   0.143
57002SOL    HW272904  13.839   5.131   0.182
57003SOL     OW72905   9.259   9.601   4.501
57003SOL    HW172906   9.252   9.697   4.498
57003SOL    HW272907   9.229   9.572   4.415
57004SOL     OW72908   9.881   0.247   2.057
57004SOL    HW172909   9.967   0.231   2.017
57004SOL    HW272910   9.847   0.160   2.077
57005SOL     OW72911   5.275   8.236   8.683
57005SOL    HW172912   5.250   8.194   8.765
57005SOL    HW272913   5.245   8.327   8.692
57006SOL     OW72914   4.068   6.773   2.557
57006SOL    HW172915   4.094   6.683   2.537
57006SOL    HW272916   4.014   6.764   2.636
57007SOL     OW72917   2.853  14.030   7.355
57007SOL    HW172918   2.762  14.008   7.333
57007SOL    HW272919   2.877  13.966   7.422
57008SOL     OW72920   0.795   2.755   1.336
57008SOL    HW172921   0.723   2.774   1.396
57008SOL    HW272922   0.836   2.676   1.372
57009SOL     OW72923   7.029   6.211   2.241
57009SOL    HW172924   7.069   6.287   2.284
57009SOL    HW272925   6.938   6.211   2.272
57010SOL     OW72926   7.735   2.279   0.487
57010SOL    HW172927   7.736   2.227   0.567
57010SOL    HW272928   7.814   2.333   0.492
57011SOL     OW72929   7.477   8.908  10.609
57011SOL    HW172930   7.542   8.927  10.676
57011SOL    HW272931   7.484   8.814  10.594
57012SOL     OW72932   0.427   0.360  10.140
57012SOL    HW172933   0.346   0.323  10.105
57012SOL    HW272934   0.496   0.310  10.097
57013SOL     OW72935  10.678   3.687   5.694
57013SOL    HW172936  10.646   3.712   5.608
57013SOL    HW272937  10.627   3.741   5.755
57014SOL     OW72938  14.176   7.079   6.189
57014SOL    HW172939  14.247   7.019   6.167
57014SOL    HW272940  14.103   7.023   6.214
57015SOL     OW72941  11.961   8.220   1.845
57015SOL    HW172942  11.984   8.205   1.937
57015SOL    HW272943  11.895   8.153   1.826
57016SOL     OW72944  10.005   3.091  13.718
57016SOL    HW172945  10.088   3.070  13.759
57016SOL    HW272946   9.940   3.040  13.768
57017SOL     OW72947   9.535   5.387  12.564
57017SOL    HW172948   9.548   5.468  12.615
57017SOL    HW272949   9.553   5.413  12.474
57018SOL     OW72950   9.502   6.370  13.804
57018SOL    HW172951   9.462   6.425  13.737
57018SOL    HW272952   9.589   6.408  13.818
57019SOL     OW72953   1.333   4.149   7.780
57019SOL    HW172954   1.358   4.212   7.712
57019SOL    HW272955   1.415   4.125   7.822
57020SOL     OW72956   6.575   3.777   4.313
57020SOL    HW172957   6.649   3.795   4.255
57020SOL    HW272958   6.609   3.715   4.378
57021SOL     OW72959   9.307   0.113  10.054
57021SOL    HW172960   9.214   0.100  10.073
57021SOL    HW272961   9.352   0.089  10.135
57022SOL     OW72962  10.513   7.602   6.743
57022SOL    HW172963  10.527   7.509   6.724
57022SOL    HW272964  10.468   7.635   6.665
57023SOL     OW72965  11.210   3.185   5.245
57023SOL    HW172966  11.189   3.262   5.193
57023SOL    HW272967  11.186   3.208   5.335
57024SOL     OW72968   2.814  11.610   8.684
57024SOL    HW172969   2.784  11.521   8.701
57024SOL    HW272970   2.828  11.648   8.771
57025SOL     OW72971   0.134   3.292   7.501
57025SOL    HW172972   0.216   3.245   7.486
57025SOL    HW272973   0.067   3.236   7.463
57026SOL     OW72974  12.316  10.064   0.068
57026SOL    HW172975  12.403  10.093   0.094
57026SOL    HW272976  12.297   9.991   0.127
57027SOL     OW72977   1.001   4.459   2.056
57027SOL    HW172978   0.928   4.496   2.105
57027SOL    HW272979   0.978   4.367   2.044
57028SOL     OW72980   8.633   0.621   5.730
57028SOL    HW172981   8.654   0.533   5.762
57028SOL    HW272982   8.620   0.672   5.810
57029SOL     OW72983   7.114   4.504   0.870
57029SOL    HW172984   7.130   4.558   0.947
57029SOL    HW272985   7.191   4.519   0.815
57030SOL     OW72986   3.747  10.017  12.680
57030SOL    HW172987   3.740  10.086  12.614
57030SOL    HW272988   3.761   9.937  12.629
57031SOL     OW72989   6.776  11.900   7.895
57031SOL    HW172990   6.728  11.828   7.856
57031SOL    HW272991   6.767  11.972   7.832
57032SOL     OW72992   8.226   4.132  12.728
57032SOL    HW172993   8.143   4.175  12.750
57032SOL    HW272994   8.242   4.072  12.801
57033SOL     OW72995   9.942   6.371  14.613
57033SOL    HW172996  10.025   6.370  14.566
57033SOL    HW272997   9.967   6.373  14.706
57034SOL     OW72998   2.947  14.432  10.568
57034SOL    HW172999   2.929  14.476  10.652
57034SOL    HW273000   2.872  14.454  10.513
57035SOL     OW73001   9.223   2.096   5.292
57035SOL    HW173002   9.152   2.150   5.327
57035SOL    HW273003   9.182   2.011   5.273
57036SOL     OW73004  14.673  13.563   3.844
57036SOL    HW173005  14.644  13.560   3.935
57036SOL    HW273006  14.688  13.472   3.821
57037SOL     OW73007   7.816  10.380   6.016
57037SOL    HW173008   7.750  10.312   6.010
57037SOL    HW273009   7.774  10.458   5.980
57038SOL     OW73010  13.342   3.929   2.879
57038SOL    HW173011  13.285   3.873   2.931
57038SOL    HW273012  13.285   3.968   2.813
57039SOL     OW73013  12.605  12.188   2.387
57039SOL    HW173014  12.582  12.264   2.440
57039SOL    HW273015  12.523  12.162   2.346
57040SOL     OW73016   6.745   2.993  12.771
57040SOL    HW173017   6.694   2.939  12.832
57040SOL    HW273018   6.822   2.939  12.750
57041SOL     OW73019   3.794   8.343  14.271
57041SOL    HW173020   3.833   8.402  14.206
57041SOL    HW273021   3.701   8.364  14.269
57042SOL     OW73022   1.444   5.559   2.569
57042SOL    HW173023   1.474   5.573   2.480
57042SOL    HW273024   1.436   5.646   2.607
57043SOL     OW73025   2.626   3.077   4.907
57043SOL    HW173026   2.542   3.064   4.951
57043SOL    HW273027   2.612   3.153   4.851
57044SOL     OW73028   9.685   9.088   0.415
57044SOL    HW173029   9.620   9.038   0.367
57044SOL    HW273030   9.641   9.116   0.495
57045SOL     OW73031   4.371  14.844   1.985
57045SOL    HW173032   4.424  14.864   1.908
57045SOL    HW273033   4.283  14.875   1.962
57046SOL     OW73034   5.806   4.709  12.017
57046SOL    HW173035   5.737   4.660  12.061
57046SOL    HW273036   5.767   4.795  12.000
57047SOL     OW73037   6.373   4.757   6.037
57047SOL    HW173038   6.281   4.737   6.056
57047SOL    HW273039   6.375   4.853   6.033
57048SOL     OW73040  10.826  12.898   5.809
57048SOL    HW173041  10.889  12.830   5.785
57048SOL    HW273042  10.767  12.903   5.733
57049SOL     OW73043   5.652   1.536  10.585
57049SOL    HW173044   5.686   1.513  10.499
57049SOL    HW273045   5.718   1.593  10.624
57050SOL     OW73046  10.200   4.340  12.719
57050SOL    HW173047  10.207   4.351  12.814
57050SOL    HW273048  10.143   4.410  12.690
57051SOL     OW73049   5.738  14.282   0.688
57051SOL    HW173050   5.745  14.309   0.596
57051SOL    HW273051   5.757  14.361   0.738
57052SOL     OW73052   1.711   7.613   1.866
57052SOL    HW173053   1.672   7.630   1.951
57052SOL    HW273054   1.642   7.634   1.803
57053SOL     OW73055   0.353   2.303  14.846
57053SOL    HW173056   0.435   2.278  14.803
57053SOL    HW273057   0.300   2.341  14.776
57054SOL     OW73058  12.767   7.221   7.164
57054SOL    HW173059  12.816   7.302   7.154
57054SOL    HW273060  12.713   7.216   7.085
57055SOL     OW73061   0.456   1.895  12.896
57055SOL    HW173062   0.371   1.877  12.936
57055SOL    HW273063   0.480   1.814  12.852
57056SOL     OW73064   7.243   3.646  11.499
57056SOL    HW173065   7.195   3.671  11.420
57056SOL    HW273066   7.293   3.724  11.522
57057SOL     OW73067  10.991   2.278  12.529
57057SOL    HW173068  10.918   2.219  12.506
57057SOL    HW273069  10.977   2.354  12.473
57058SOL     OW73070  12.800  10.356   0.347
57058SOL    HW173071  12.726  10.312   0.388
57058SOL    HW273072  12.806  10.441   0.391
57059SOL     OW73073   4.909   9.508   8.199
57059SOL    HW173074   4.871   9.507   8.112
57059SOL    HW273075   4.987   9.564   8.190
57060SOL     OW73076   1.935   6.279  13.289
57060SOL    HW173077   1.993   6.271  13.364
57060SOL    HW273078   1.870   6.345  13.316
57061SOL     OW73079   3.757   4.749   6.623
57061SOL    HW173080   3.823   4.726   6.689
57061SOL    HW273081   3.792   4.826   6.579
57062SOL     OW73082   7.693   1.397   5.926
57062SOL    HW173083   7.676   1.303   5.934
57062SOL    HW273084   7.669   1.418   5.835
57063SOL     OW73085  10.034   2.868   5.620
57063SOL    HW173086   9.953   2.919   5.615
57063SOL    HW273087  10.077   2.884   5.536
57064SOL     OW73088   1.033  10.397  14.599
57064SOL    HW173089   0.985  10.353  14.529
57064SOL    HW273090   0.967  10.417  14.665
57065SOL     OW73091   4.493   2.352   9.441
57065SOL    HW173092   4.518   2.270   9.482
57065SOL    HW273093   4.576   2.396   9.421
57066SOL     OW73094   6.591  12.425   7.837
57066SOL    HW173095   6.576  12.509   7.881
57066SOL    HW273096   6.570  12.443   7.745
57067SOL     OW73097   1.800  14.235   2.924
57067SOL    HW173098   1.874  14.260   2.868
57067SOL    HW273099   1.727  14.224   2.863
57068SOL     OW73100   2.646   8.893   6.774
57068SOL    HW173101   2.575   8.913   6.836
57068SOL    HW273102   2.646   8.797   6.769
57069SOL     OW73103   2.834   9.656   2.536
57069SOL    HW173104   2.870   9.670   2.448
57069SOL    HW273105   2.749   9.614   2.520
57070SOL     OW73106   2.455   0.741  12.733
57070SOL    HW173107   2.388   0.680  12.703
57070SOL    HW273108   2.494   0.699  12.810
57071SOL     OW73109   1.471   2.173   0.067
57071SOL    HW173110   1.521   2.198  14.876
57071SOL    HW273111   1.538   2.139   0.127
57072SOL     OW73112   8.080   9.354   0.752
57072SOL    HW173113   7.985   9.368   0.757
57072SOL    HW273114   8.109   9.414   0.683
57073SOL     OW73115   7.686   8.189   7.777
57073SOL    HW173116   7.702   8.281   7.798
57073SOL    HW273117   7.765   8.162   7.729
57074SOL     OW73118  12.300  10.036   6.896
57074SOL    HW173119  12.242  10.112   6.892
57074SOL    HW273120  12.302  10.013   6.989
57075SOL     OW73121   7.050   1.617  14.661
57075SOL    HW173122   7.076   1.528  14.685
57075SOL    HW273123   6.980   1.605  14.597
57076SOL     OW73124  13.862  14.557   8.042
57076SOL    HW173125  13.878  14.541   8.134
57076SOL    HW273126  13.768  14.574   8.036
57077SOL     OW73127  11.350   0.305   6.631
57077SOL    HW173128  11.294   0.279   6.704
57077SOL    HW273129  11.439   0.302   6.666
57078SOL     OW73130   2.874   9.027  13.122
57078SOL    HW173131   2.939   9.088  13.086
57078SOL    HW273132   2.917   8.942  13.121
57079SOL     OW73133   3.624   3.174   9.021
57079SOL    HW173134   3.678   3.097   9.001
57079SOL    HW273135   3.574   3.190   8.941
57080SOL     OW73136   4.312   0.196   5.544
57080SOL    HW173137   4.302   0.113   5.591
57080SOL    HW273138   4.406   0.204   5.528
57081SOL     OW73139   7.990   8.197   2.891
57081SOL    HW173140   7.979   8.106   2.920
57081SOL    HW273141   8.077   8.198   2.851
57082SOL     OW73142  14.734   2.772   9.207
57082SOL    HW173143  14.803   2.809   9.261
57082SOL    HW273144  14.765   2.784   9.117
57083SOL     OW73145   0.448   1.118   8.517
57083SOL    HW173146   0.450   1.114   8.612
57083SOL    HW273147   0.485   1.035   8.488
57084SOL     OW73148   9.950   5.947  14.284
57084SOL    HW173149  10.039   5.912  14.286
57084SOL    HW273150   9.923   5.948  14.376
57085SOL     OW73151  13.474   3.639   2.687
57085SOL    HW173152  13.381   3.661   2.691
57085SOL    HW273153  13.502   3.638   2.779
57086SOL     OW73154  11.388  11.724   4.106
57086SOL    HW173155  11.450  11.717   4.178
57086SOL    HW273156  11.433  11.683   4.032
57087SOL     OW73157   8.821   0.190   9.400
57087SOL    HW173158   8.854   0.215   9.314
57087SOL    HW273159   8.900   0.170   9.450
57088SOL     OW73160   4.744   7.514   1.633
57088SOL    HW173161   4.784   7.552   1.554
57088SOL    HW273162   4.715   7.427   1.606
57089SOL     OW73163   4.795  11.997  13.876
57089SOL    HW173164   4.790  12.093  13.872
57089SOL    HW273165   4.847  11.980  13.955
57090SOL     OW73166   9.614  14.062   2.029
57090SOL    HW173167   9.691  14.057   2.086
57090SOL    HW273168   9.633  14.134   1.969
57091SOL     OW73169  11.512  12.224   4.139
57091SOL    HW173170  11.464  12.142   4.152
57091SOL    HW273171  11.494  12.248   4.049
57092SOL     OW73172   1.426  14.464  13.093
57092SOL    HW173173   1.414  14.408  13.016
57092SOL    HW273174   1.340  14.504  13.107
57093SOL     OW73175   6.809   9.143   3.042
57093SOL    HW173176   6.899   9.173   3.037
57093SOL    HW273177   6.803   9.097   3.126
57094SOL     OW73178   7.765   2.335   6.768
57094SOL    HW173179   7.724   2.373   6.846
57094SOL    HW273180   7.703   2.354   6.698
57095SOL     OW73181  14.873  10.373   9.227
57095SOL    HW173182   0.064  10.389   9.280
57095SOL    HW273183   0.010  10.302   9.169
57096SOL     OW73184  12.963   7.559  13.291
57096SOL    HW173185  13.001   7.527  13.373
57096SOL    HW273186  12.919   7.641  13.315
57097SOL     OW73187   8.211  11.475   8.080
57097SOL    HW173188   8.211  11.567   8.106
57097SOL    HW273189   8.172  11.428   8.154
57098SOL     OW73190   6.994   8.560  12.449
57098SOL    HW173191   6.906   8.527  12.431
57098SOL    HW273192   7.041   8.485  12.486
57099SOL     OW73193   8.938  13.277   4.979
57099SOL    HW173194   8.844  13.293   4.988
57099SOL    HW273195   8.947  13.182   4.988
57100SOL     OW73196  10.198   8.152   3.197
57100SOL    HW173197  10.142   8.085   3.157
57100SOL    HW273198  10.197   8.224   3.134
57101SOL     OW73199   2.909   7.287   6.353
57101SOL    HW173200   2.975   7.340   6.398
57101SOL    HW273201   2.826   7.309   6.396
57102SOL     OW73202   7.565  13.226   2.042
57102SOL    HW173203   7.614  13.271   2.110
57102SOL    HW273204   7.508  13.166   2.090
57103SOL     OW73205   1.691   9.526  12.690
57103SOL    HW173206   1.603   9.508  12.656
57103SOL    HW273207   1.717   9.607  12.646
57104SOL     OW73208   2.155   2.010   2.202
57104SOL    HW173209   2.095   2.011   2.278
57104SOL    HW273210   2.208   2.089   2.214
57105SOL     OW73211  10.583   9.027   9.539
57105SOL    HW173212  10.492   9.055   9.546
57105SOL    HW273213  10.579   8.943   9.493
57106SOL     OW73214  14.763   5.827  10.171
57106SOL    HW173215  14.672   5.856  10.158
57106SOL    HW273216  14.786   5.784  10.089
57107SOL     OW73217   4.611  10.023   5.894
57107SOL    HW173218   4.610  10.119   5.893
57107SOL    HW273219   4.531   9.999   5.941
57108SOL     OW73220  11.003   1.725   4.642
57108SOL    HW173221  11.074   1.767   4.595
57108SOL    HW273222  11.008   1.760   4.731
57109SOL     OW73223  10.647   6.082   2.143
57109SOL    HW173224  10.738   6.103   2.163
57109SOL    HW273225  10.606   6.167   2.127
57110SOL     OW73226  13.510  14.779   9.629
57110SOL    HW173227  13.466  14.748   9.550
57110SOL    HW273228  13.440  14.810   9.686
57111SOL     OW73229   9.262   9.772  13.484
57111SOL    HW173230   9.261   9.863  13.457
57111SOL    HW273231   9.299   9.725  13.409
57112SOL     OW73232   2.136  13.258   1.086
57112SOL    HW173233   2.102  13.266   1.175
57112SOL    HW273234   2.134  13.348   1.052
57113SOL     OW73235  12.762  10.605   6.417
57113SOL    HW173236  12.708  10.608   6.338
57113SOL    HW273237  12.850  10.625   6.386
57114SOL     OW73238  12.932   1.141   2.573
57114SOL    HW173239  12.942   1.048   2.596
57114SOL    HW273240  12.848   1.165   2.610
57115SOL     OW73241   9.948  13.211   4.455
57115SOL    HW173242  10.019  13.269   4.486
57115SOL    HW273243   9.886  13.208   4.528
57116SOL     OW73244   7.188   8.176   8.650
57116SOL    HW173245   7.171   8.244   8.584
57116SOL    HW273246   7.115   8.115   8.640
57117SOL     OW73247   6.219   7.942   1.118
57117SOL    HW173248   6.214   7.847   1.125
57117SOL    HW273249   6.135   7.974   1.152
57118SOL     OW73250   6.433   2.280  11.243
57118SOL    HW173251   6.355   2.271  11.298
57118SOL    HW273252   6.403   2.253  11.156
57119SOL     OW73253   7.526   7.544  10.806
57119SOL    HW173254   7.564   7.471  10.757
57119SOL    HW273255   7.459   7.503  10.860
57120SOL     OW73256   0.299   3.235   6.549
57120SOL    HW173257   0.205   3.228   6.532
57120SOL    HW273258   0.323   3.149   6.583
57121SOL     OW73259   4.476   8.223   9.414
57121SOL    HW173260   4.468   8.155   9.481
57121SOL    HW273261   4.446   8.181   9.334
57122SOL     OW73262   3.984  12.773  11.447
57122SOL    HW173263   3.994  12.819  11.364
57122SOL    HW273264   4.070  12.780  11.489
57123SOL     OW73265   4.125   9.898  12.255
57123SOL    HW173266   4.209   9.937  12.280
57123SOL    HW273267   4.059   9.959  12.287
57124SOL     OW73268   0.541   6.292   2.618
57124SOL    HW173269   0.546   6.276   2.524
57124SOL    HW273270   0.502   6.212   2.654
57125SOL     OW73271   1.816  13.295  13.160
57125SOL    HW173272   1.904  13.267  13.182
57125SOL    HW273273   1.809  13.384  13.195
57126SOL     OW73274   5.768   1.817   2.479
57126SOL    HW173275   5.786   1.724   2.485
57126SOL    HW273276   5.807   1.854   2.559
57127SOL     OW73277   8.187   4.854   3.000
57127SOL    HW173278   8.188   4.778   2.942
57127SOL    HW273279   8.279   4.867   3.023
57128SOL     OW73280  13.026   0.728  12.185
57128SOL    HW173281  12.965   0.783  12.233
57128SOL    HW273282  12.975   0.651  12.160
57129SOL     OW73283   2.124  10.627  14.481
57129SOL    HW173284   2.205  10.645  14.432
57129SOL    HW273285   2.140  10.663  14.568
57130SOL     OW73286  14.179   0.684   8.448
57130SOL    HW173287  14.211   0.774   8.439
57130SOL    HW273288  14.083   0.692   8.443
57131SOL     OW73289   4.518  10.348   1.947
57131SOL    HW173290   4.511  10.297   1.866
57131SOL    HW273291   4.464  10.301   2.010
57132SOL     OW73292   7.293   1.665   3.993
57132SOL    HW173293   7.286   1.713   3.911
57132SOL    HW273294   7.233   1.591   3.983
57133SOL     OW73295  14.373  14.765   9.015
57133SOL    HW173296  14.424  14.790   8.938
57133SOL    HW273297  14.323  14.689   8.986
57134SOL     OW73298  13.015  13.871  13.033
57134SOL    HW173299  12.931  13.914  13.046
57134SOL    HW273300  13.045  13.848  13.121
57135SOL     OW73301   8.404   1.518  13.422
57135SOL    HW173302   8.469   1.458  13.458
57135SOL    HW273303   8.448   1.559  13.348
57136SOL     OW73304   9.442   2.441  11.060
57136SOL    HW173305   9.387   2.417  10.985
57136SOL    HW273306   9.428   2.535  11.070
57137SOL     OW73307  12.340   2.617   8.495
57137SOL    HW173308  12.399   2.552   8.458
57137SOL    HW273309  12.397   2.688   8.524
57138SOL     OW73310  10.812   5.515  13.307
57138SOL    HW173311  10.869   5.528  13.231
57138SOL    HW273312  10.842   5.433  13.346
57139SOL     OW73313   0.348  13.992   9.591
57139SOL    HW173314   0.392  13.919   9.635
57139SOL    HW273315   0.301  14.038   9.662
57140SOL     OW73316  14.877  10.609   6.439
57140SOL    HW173317   0.016  10.676   6.377
57140SOL    HW273318  14.792  10.637   6.472
57141SOL     OW73319   4.330   9.846  11.603
57141SOL    HW173320   4.418   9.876  11.579
57141SOL    HW273321   4.278   9.926  11.610
57142SOL     OW73322   6.257  12.999   7.415
57142SOL    HW173323   6.243  13.048   7.333
57142SOL    HW273324   6.316  12.928   7.390
57143SOL     OW73325  13.290   6.494   5.609
57143SOL    HW173326  13.267   6.462   5.522
57143SOL    HW273327  13.238   6.573   5.621
57144SOL     OW73328  14.115   0.463  10.556
57144SOL    HW173329  14.202   0.440  10.591
57144SOL    HW273330  14.071   0.506  10.629
57145SOL     OW73331   9.738   2.041   0.390
57145SOL    HW173332   9.678   2.093   0.337
57145SOL    HW273333   9.746   2.091   0.472
57146SOL     OW73334   7.716   8.999   0.216
57146SOL    HW173335   7.706   9.094   0.222
57146SOL    HW273336   7.758   8.984   0.131
57147SOL     OW73337  13.418   1.164   7.180
57147SOL    HW173338  13.373   1.248   7.188
57147SOL    HW273339  13.348   1.102   7.158
57148SOL     OW73340  10.234   3.825   6.299
57148SOL    HW173341  10.210   3.748   6.248
57148SOL    HW273342  10.232   3.795   6.390
57149SOL     OW73343   7.036  12.016  11.045
57149SOL    HW173344   7.046  11.964  10.965
57149SOL    HW273345   7.024  11.951  11.114
57150SOL     OW73346   9.938  10.989   9.069
57150SOL    HW173347   9.879  10.936   9.122
57150SOL    HW273348   9.951  10.938   8.989
57151SOL     OW73349  13.351  11.414  10.355
57151SOL    HW173350  13.264  11.375  10.348
57151SOL    HW273351  13.373  11.407  10.447
57152SOL     OW73352   0.590   2.477  13.616
57152SOL    HW173353   0.610   2.410  13.681
57152SOL    HW273354   0.502   2.507  13.639
57153SOL     OW73355  14.185  14.798   0.749
57153SOL    HW173356  14.274  14.821   0.722
57153SOL    HW273357  14.148  14.751   0.674
57154SOL     OW73358   4.081   6.729  11.246
57154SOL    HW173359   4.016   6.793  11.214
57154SOL    HW273360   4.083   6.661  11.178
57155SOL     OW73361   0.716  14.686  13.010
57155SOL    HW173362   0.655  14.618  13.040
57155SOL    HW273363   0.801  14.641  13.005
57156SOL     OW73364   9.301   3.526  13.776
57156SOL    HW173365   9.298   3.484  13.862
57156SOL    HW273366   9.305   3.620  13.795
57157SOL     OW73367   5.642   0.781   4.809
57157SOL    HW173368   5.596   0.706   4.772
57157SOL    HW273369   5.690   0.819   4.735
57158SOL     OW73370   1.178   2.329  12.856
57158SOL    HW173371   1.161   2.415  12.896
57158SOL    HW273372   1.218   2.350  12.771
57159SOL     OW73373   6.583  10.852   2.190
57159SOL    HW173374   6.499  10.897   2.184
57159SOL    HW273375   6.649  10.920   2.175
57160SOL     OW73376  10.662   7.499  14.289
57160SOL    HW173377  10.740   7.464  14.332
57160SOL    HW273378  10.638   7.432  14.224
57161SOL     OW73379   7.233   8.589   1.690
57161SOL    HW173380   7.283   8.670   1.702
57161SOL    HW273381   7.143   8.618   1.675
57162SOL     OW73382  13.087   4.842   8.895
57162SOL    HW173383  13.154   4.885   8.948
57162SOL    HW273384  13.128   4.760   8.867
57163SOL     OW73385   2.063  11.102   5.654
57163SOL    HW173386   1.992  11.043   5.677
57163SOL    HW273387   2.142  11.049   5.663
57164SOL     OW73388   7.999   4.515   0.716
57164SOL    HW173389   7.932   4.463   0.760
57164SOL    HW273390   7.950   4.578   0.664
57165SOL     OW73391   5.607  12.951   6.734
57165SOL    HW173392   5.592  13.045   6.740
57165SOL    HW273393   5.520  12.913   6.725
57166SOL     OW73394   0.362  11.426  13.024
57166SOL    HW173395   0.458  11.423  13.028
57166SOL    HW273396   0.334  11.418  13.115
57167SOL     OW73397  12.718   9.062   6.056
57167SOL    HW173398  12.688   9.101   5.974
57167SOL    HW273399  12.671   9.109   6.124
57168SOL     OW73400   0.837   1.449   0.470
57168SOL    HW173401   0.865   1.527   0.421
57168SOL    HW273402   0.917   1.397   0.480
57169SOL     OW73403  11.039  10.533   5.700
57169SOL    HW173404  11.126  10.508   5.670
57169SOL    HW273405  10.988  10.452   5.701
57170SOL     OW73406  11.255   5.671  11.096
57170SOL    HW173407  11.238   5.755  11.138
57170SOL    HW273408  11.307   5.622  11.160
57171SOL     OW73409   3.404   2.729   2.086
57171SOL    HW173410   3.396   2.824   2.089
57171SOL    HW273411   3.498   2.712   2.098
57172SOL     OW73412  13.490  11.208   5.837
57172SOL    HW173413  13.418  11.212   5.774
57172SOL    HW273414  13.447  11.201   5.922
57173SOL     OW73415   2.997   7.852   9.900
57173SOL    HW173416   3.026   7.867   9.990
57173SOL    HW273417   2.923   7.911   9.889
57174SOL     OW73418   1.995  13.528  13.375
57174SOL    HW173419   1.905  13.558  13.358
57174SOL    HW273420   1.999  13.518  13.470
57175SOL     OW73421   5.162  10.079  10.598
57175SOL    HW173422   5.242  10.051  10.554
57175SOL    HW273423   5.136  10.004  10.652
57176SOL     OW73424  13.715   6.307   1.659
57176SOL    HW173425  13.709   6.254   1.739
57176SOL    HW273426  13.647   6.271   1.602
57177SOL     OW73427   5.980  11.608   3.126
57177SOL    HW173428   5.896  11.572   3.157
57177SOL    HW273429   6.004  11.552   3.052
57178SOL     OW73430   6.034  11.836  14.341
57178SOL    HW173431   6.091  11.883  14.280
57178SOL    HW273432   6.035  11.889  14.421
57179SOL     OW73433   7.641  13.677  12.981
57179SOL    HW173434   7.652  13.758  12.930
57179SOL    HW273435   7.548  13.676  13.004
57180SOL     OW73436   2.590  14.035   2.051
57180SOL    HW173437   2.672  14.014   2.095
57180SOL    HW273438   2.525  13.976   2.089
57181SOL     OW73439   4.249  14.716   8.217
57181SOL    HW173440   4.189  14.754   8.152
57181SOL    HW273441   4.328  14.769   8.210
57182SOL     OW73442  10.896  12.646   4.715
57182SOL    HW173443  10.835  12.644   4.641
57182SOL    HW273444  10.911  12.739   4.731
57183SOL     OW73445   3.353  10.233   1.118
57183SOL    HW173446   3.266  10.212   1.151
57183SOL    HW273447   3.354  10.198   1.029
57184SOL     OW73448   5.250   9.813   5.301
57184SOL    HW173449   5.256   9.718   5.302
57184SOL    HW273450   5.254   9.837   5.208
57185SOL     OW73451  14.548  13.266  12.982
57185SOL    HW173452  14.637  13.299  12.972
57185SOL    HW273453  14.497  13.313  12.917
57186SOL     OW73454   3.149  13.943   7.597
57186SOL    HW173455   3.060  13.909   7.600
57186SOL    HW273456   3.203  13.871   7.630
57187SOL     OW73457  12.570   9.374  11.211
57187SOL    HW173458  12.604   9.297  11.164
57187SOL    HW273459  12.482   9.388  11.174
57188SOL     OW73460  11.097   9.143   4.216
57188SOL    HW173461  11.130   9.232   4.209
57188SOL    HW273462  11.157   9.090   4.164
57189SOL     OW73463   3.488  13.000   7.337
57189SOL    HW173464   3.492  12.972   7.429
57189SOL    HW273465   3.579  13.003   7.309
57190SOL     OW73466  11.674   6.456   7.657
57190SOL    HW173467  11.653   6.467   7.564
57190SOL    HW273468  11.589   6.460   7.701
57191SOL     OW73469   6.630   1.680   8.176
57191SOL    HW173470   6.619   1.775   8.188
57191SOL    HW273471   6.611   1.643   8.262
57192SOL     OW73472  13.718  11.914  13.047
57192SOL    HW173473  13.640  11.885  13.094
57192SOL    HW273474  13.696  12.001  13.016
57193SOL     OW73475   8.119   5.954  10.176
57193SOL    HW173476   8.113   5.859  10.161
57193SOL    HW273477   8.109   5.992  10.089
57194SOL     OW73478   2.546   2.663   8.843
57194SOL    HW173479   2.544   2.746   8.794
57194SOL    HW273480   2.517   2.687   8.931
57195SOL     OW73481  11.785  11.561   8.832
57195SOL    HW173482  11.751  11.477   8.861
57195SOL    HW273483  11.831  11.542   8.750
57196SOL     OW73484   9.039   3.911  13.062
57196SOL    HW173485   8.993   3.919  12.979
57196SOL    HW273486   9.072   3.821  13.063
57197SOL     OW73487   3.059   6.950   9.063
57197SOL    HW173488   3.017   7.028   9.101
57197SOL    HW273489   3.102   6.983   8.984
57198SOL     OW73490   6.595   1.100   8.429
57198SOL    HW173491   6.670   1.151   8.458
57198SOL    HW273492   6.519   1.146   8.465
57199SOL     OW73493  10.601   2.302   4.967
57199SOL    HW173494  10.628   2.393   4.956
57199SOL    HW273495  10.683   2.254   4.977
57200SOL     OW73496   2.822   8.539   9.398
57200SOL    HW173497   2.766   8.477   9.351
57200SOL    HW273498   2.882   8.484   9.448
57201SOL     OW73499   0.090   2.900   5.554
57201SOL    HW173500   0.110   2.852   5.635
57201SOL    HW273501   0.027   2.967   5.581
57202SOL     OW73502   3.792   5.143   5.521
57202SOL    HW173503   3.850   5.142   5.445
57202SOL    HW273504   3.838   5.198   5.585
57203SOL     OW73505   7.722  10.996   5.827
57203SOL    HW173506   7.681  11.059   5.768
57203SOL    HW273507   7.738  10.919   5.771
57204SOL     OW73508   1.530   1.509   6.359
57204SOL    HW173509   1.490   1.464   6.434
57204SOL    HW273510   1.600   1.450   6.332
57205SOL     OW73511   2.589   5.486   4.586
57205SOL    HW173512   2.623   5.480   4.497
57205SOL    HW273513   2.561   5.577   4.596
57206SOL     OW73514   6.112   1.505   6.155
57206SOL    HW173515   6.061   1.582   6.131
57206SOL    HW273516   6.088   1.489   6.247
57207SOL     OW73517   3.412   7.877   8.372
57207SOL    HW173518   3.356   7.824   8.428
57207SOL    HW273519   3.483   7.819   8.346
57208SOL     OW73520  12.671  10.486  13.995
57208SOL    HW173521  12.689  10.405  13.948
57208SOL    HW273522  12.754  10.507  14.039
57209SOL     OW73523  13.153   1.671   6.390
57209SOL    HW173524  13.063   1.655   6.363
57209SOL    HW273525  13.145   1.710   6.477
57210SOL     OW73526   6.901   3.134   1.312
57210SOL    HW173527   6.813   3.167   1.332
57210SOL    HW273528   6.941   3.119   1.398
57211SOL     OW73529   5.798  11.300   0.639
57211SOL    HW173530   5.703  11.311   0.627
57211SOL    HW273531   5.837  11.354   0.569
57212SOL     OW73532   3.168   1.191   1.802
57212SOL    HW173533   3.103   1.261   1.798
57212SOL    HW273534   3.197   1.180   1.711
57213SOL     OW73535   1.357  14.340   5.586
57213SOL    HW173536   1.451  14.355   5.592
57213SOL    HW273537   1.336  14.353   5.494
57214SOL     OW73538   5.952   8.286  12.712
57214SOL    HW173539   6.046   8.304  12.721
57214SOL    HW273540   5.916   8.364  12.670
57215SOL     OW73541  14.105  14.537  14.567
57215SOL    HW173542  14.176  14.578  14.517
57215SOL    HW273543  14.033  14.532  14.505
57216SOL     OW73544   3.962  12.810   9.010
57216SOL    HW173545   3.912  12.881   8.970
57216SOL    HW273546   4.034  12.853   9.056
57217SOL     OW73547   7.965   8.588   8.910
57217SOL    HW173548   7.883   8.546   8.886
57217SOL    HW273549   8.021   8.516   8.941
57218SOL     OW73550   5.296   4.528   0.944
57218SOL    HW173551   5.229   4.590   0.916
57218SOL    HW273552   5.377   4.562   0.908
57219SOL     OW73553   6.949   9.395  14.446
57219SOL    HW173554   6.883   9.457  14.477
57219SOL    HW273555   6.917   9.367  14.360
57220SOL     OW73556   1.526  11.715  10.794
57220SOL    HW173557   1.605  11.735  10.743
57220SOL    HW273558   1.454  11.733  10.733
57221SOL     OW73559  10.793   4.146  10.651
57221SOL    HW173560  10.859   4.155  10.719
57221SOL    HW273561  10.810   4.060  10.613
57222SOL     OW73562   2.271   1.176   5.885
57222SOL    HW173563   2.319   1.140   5.811
57222SOL    HW273564   2.179   1.164   5.863
57223SOL     OW73565  11.322  10.826  14.468
57223SOL    HW173566  11.287  10.808  14.380
57223SOL    HW273567  11.312  10.743  14.515
57224SOL     OW73568   4.755   0.813   6.653
57224SOL    HW173569   4.717   0.835   6.738
57224SOL    HW273570   4.679   0.806   6.595
57225SOL     OW73571   7.743   5.203   5.780
57225SOL    HW173572   7.772   5.143   5.848
57225SOL    HW273573   7.661   5.240   5.813
57226SOL     OW73574   9.127   8.533   1.654
57226SOL    HW173575   9.166   8.618   1.633
57226SOL    HW273576   9.195   8.469   1.632
57227SOL     OW73577  13.803   2.464   2.228
57227SOL    HW173578  13.764   2.548   2.202
57227SOL    HW273579  13.729   2.410   2.256
57228SOL     OW73580  12.382   6.170   7.803
57228SOL    HW173581  12.431   6.100   7.759
57228SOL    HW273582  12.447   6.213   7.858
57229SOL     OW73583   6.408  11.420   4.822
57229SOL    HW173584   6.368  11.491   4.871
57229SOL    HW273585   6.501  11.426   4.843
57230SOL     OW73586   7.910  11.625  11.967
57230SOL    HW173587   7.846  11.556  11.948
57230SOL    HW273588   7.918  11.674  11.886
57231SOL     OW73589  12.925   1.016  12.833
57231SOL    HW173590  12.884   1.086  12.884
57231SOL    HW273591  12.869   0.940  12.847
57232SOL     OW73592   3.802   7.565  14.485
57232SOL    HW173593   3.707   7.556  14.477
57232SOL    HW273594   3.815   7.624  14.559
57233SOL     OW73595  12.672  10.760   4.378
57233SOL    HW173596  12.598  10.813   4.350
57233SOL    HW273597  12.701  10.715   4.299
57234SOL     OW73598   2.496   8.639  12.238
57234SOL    HW173599   2.444   8.701  12.289
57234SOL    HW273600   2.436   8.567  12.219
57235SOL     OW73601   1.725   9.695   2.681
57235SOL    HW173602   1.806   9.648   2.704
57235SOL    HW273603   1.719   9.765   2.746
57236SOL     OW73604   2.231   3.353   5.294
57236SOL    HW173605   2.248   3.415   5.364
57236SOL    HW273606   2.318   3.322   5.268
57237SOL     OW73607  13.785   7.682  12.011
57237SOL    HW173608  13.820   7.616  12.070
57237SOL    HW273609  13.692   7.660  12.002
57238SOL     OW73610   5.392  11.952   2.378
57238SOL    HW173611   5.375  12.039   2.341
57238SOL    HW273612   5.480  11.930   2.349
57239SOL     OW73613   8.984  12.226   5.620
57239SOL    HW173614   8.997  12.243   5.527
57239SOL    HW273615   9.070  12.201   5.653
57240SOL     OW73616  14.770   3.303  14.239
57240SOL    HW173617  14.734   3.225  14.283
57240SOL    HW273618  14.844   3.271  14.189
57241SOL     OW73619  12.914   4.771   8.692
57241SOL    HW173620  12.985   4.787   8.754
57241SOL    HW273621  12.863   4.700   8.731
57242SOL     OW73622   2.101   8.941   2.164
57242SOL    HW173623   2.036   9.012   2.168
57242SOL    HW273624   2.060   8.875   2.107
57243SOL     OW73625   1.523   0.714   6.527
57243SOL    HW173626   1.448   0.754   6.571
57243SOL    HW273627   1.592   0.780   6.532
57244SOL     OW73628   3.860   0.289   8.971
57244SOL    HW173629   3.901   0.245   9.045
57244SOL    HW273630   3.856   0.223   8.902
57245SOL     OW73631   1.623   9.690  10.021
57245SOL    HW173632   1.594   9.751   9.953
57245SOL    HW273633   1.604   9.736  10.104
57246SOL     OW73634   0.113   5.655  12.035
57246SOL    HW173635   0.125   5.564  12.061
57246SOL    HW273636   0.192   5.699  12.068
57247SOL     OW73637   2.920   4.652  14.115
57247SOL    HW173638   2.926   4.561  14.086
57247SOL    HW273639   2.829   4.661  14.145
57248SOL     OW73640   9.760   5.195  11.393
57248SOL    HW173641   9.729   5.222  11.306
57248SOL    HW273642   9.855   5.191  11.384
57249SOL     OW73643   5.139  13.301  12.847
57249SOL    HW173644   5.120  13.244  12.921
57249SOL    HW273645   5.158  13.242  12.775
57250SOL     OW73646  11.517   3.408   7.913
57250SOL    HW173647  11.548   3.498   7.918
57250SOL    HW273648  11.489   3.397   7.822
57251SOL     OW73649  11.736  10.932   4.408
57251SOL    HW173650  11.827  10.955   4.389
57251SOL    HW273651  11.726  10.952   4.501
57252SOL     OW73652   5.408   0.067   3.721
57252SOL    HW173653   5.368   0.002   3.778
57252SOL    HW273654   5.341   0.085   3.655
57253SOL     OW73655   0.437   2.846   0.969
57253SOL    HW173656   0.507   2.910   0.959
57253SOL    HW273657   0.480   2.770   1.010
57254SOL     OW73658   7.885  12.994   7.972
57254SOL    HW173659   7.884  12.976   7.878
57254SOL    HW273660   7.804  12.955   8.005
57255SOL     OW73661   2.268  13.165   8.379
57255SOL    HW173662   2.307  13.085   8.344
57255SOL    HW273663   2.270  13.227   8.306
57256SOL     OW73664  10.056   1.335  13.188
57256SOL    HW173665  10.040   1.384  13.108
57256SOL    HW273666  10.121   1.269  13.163
57257SOL     OW73667  12.753  11.902   8.107
57257SOL    HW173668  12.746  11.942   8.194
57257SOL    HW273669  12.834  11.851   8.111
57258SOL     OW73670  13.208  11.962   7.632
57258SOL    HW173671  13.233  11.946   7.723
57258SOL    HW273672  13.204  12.058   7.625
57259SOL     OW73673   0.784   3.626   4.450
57259SOL    HW173674   0.785   3.531   4.463
57259SOL    HW273675   0.875   3.650   4.437
57260SOL     OW73676   4.241   6.703  11.527
57260SOL    HW173677   4.239   6.618  11.569
57260SOL    HW273678   4.199   6.689  11.442
57261SOL     OW73679  13.409  10.619   0.550
57261SOL    HW173680  13.355  10.698   0.554
57261SOL    HW273681  13.398  10.578   0.636
57262SOL     OW73682   6.857   4.466  14.434
57262SOL    HW173683   6.794   4.399  14.408
57262SOL    HW273684   6.875   4.515  14.354
57263SOL     OW73685  11.597   1.290   6.353
57263SOL    HW173686  11.569   1.217   6.408
57263SOL    HW273687  11.686   1.310   6.381
57264SOL     OW73688   2.229  12.375   8.226
57264SOL    HW173689   2.258  12.305   8.168
57264SOL    HW273690   2.307  12.398   8.277
57265SOL     OW73691   3.648   2.763   8.779
57265SOL    HW173692   3.740   2.784   8.797
57265SOL    HW273693   3.611   2.845   8.747
57266SOL     OW73694   1.203  13.814  12.754
57266SOL    HW173695   1.228  13.860  12.674
57266SOL    HW273696   1.119  13.852  12.778
57267SOL     OW73697   6.512   5.543  13.634
57267SOL    HW173698   6.437   5.575  13.585
57267SOL    HW273699   6.560   5.489  13.571
57268SOL     OW73700   7.163   8.555   5.947
57268SOL    HW173701   7.223   8.547   6.020
57268SOL    HW273702   7.080   8.584   5.986
57269SOL     OW73703  13.824   9.405   7.009
57269SOL    HW173704  13.830   9.354   7.090
57269SOL    HW273705  13.744   9.457   7.020
57270SOL     OW73706   6.017   4.499   4.749
57270SOL    HW173707   5.976   4.586   4.745
57270SOL    HW273708   6.029   4.483   4.843
57271SOL     OW73709   6.691   1.748   6.972
57271SOL    HW173710   6.660   1.783   6.889
57271SOL    HW273711   6.644   1.665   6.983
57272SOL     OW73712   8.052   4.868   9.642
57272SOL    HW173713   8.041   4.963   9.642
57272SOL    HW273714   8.142   4.853   9.671
57273SOL     OW73715   3.915   3.137   5.954
57273SOL    HW173716   3.936   3.053   5.913
57273SOL    HW273717   3.823   3.128   5.981
57274SOL     OW73718   4.106   7.415   8.641
57274SOL    HW173719   4.105   7.381   8.731
57274SOL    HW273720   4.095   7.337   8.586
57275SOL     OW73721  10.751  14.549   9.544
57275SOL    HW173722  10.753  14.501   9.461
57275SOL    HW273723  10.842  14.578   9.556
57276SOL     OW73724   3.604  12.587  11.858
57276SOL    HW173725   3.646  12.647  11.796
57276SOL    HW273726   3.616  12.501  11.819
57277SOL     OW73727  12.905   1.082  13.997
57277SOL    HW173728  12.923   0.988  13.989
57277SOL    HW273729  12.991   1.122  14.009
57278SOL     OW73730  12.476  10.010   2.056
57278SOL    HW173731  12.481  10.081   2.119
57278SOL    HW273732  12.383   9.991   2.048
57279SOL     OW73733   5.453  10.811   4.397
57279SOL    HW173734   5.432  10.740   4.457
57279SOL    HW273735   5.461  10.770   4.311
57280SOL     OW73736   9.429   3.731  10.984
57280SOL    HW173737   9.512   3.771  10.956
57280SOL    HW273738   9.453   3.643  11.011
57281SOL     OW73739  11.516   0.461   6.472
57281SOL    HW173740  11.511   0.549   6.510
57281SOL    HW273741  11.442   0.414   6.510
57282SOL     OW73742   8.244  11.547  10.643
57282SOL    HW173743   8.260  11.546  10.737
57282SOL    HW273744   8.149  11.556  10.635
57283SOL     OW73745  12.893   8.755   0.318
57283SOL    HW173746  12.869   8.755   0.225
57283SOL    HW273747  12.928   8.668   0.334
57284SOL     OW73748   6.529   0.952   4.294
57284SOL    HW173749   6.599   0.998   4.248
57284SOL    HW273750   6.498   1.014   4.360
57285SOL     OW73751  12.230   1.327   8.661
57285SOL    HW173752  12.206   1.241   8.696
57285SOL    HW273753  12.173   1.337   8.584
57286SOL     OW73754   2.272   9.112  11.685
57286SOL    HW173755   2.319   9.127  11.603
57286SOL    HW273756   2.329   9.053  11.735
57287SOL     OW73757  14.459   0.517   9.924
57287SOL    HW173758  14.440   0.591   9.867
57287SOL    HW273759  14.514   0.459   9.870
57288SOL     OW73760   4.948  14.827   8.436
57288SOL    HW173761   4.950  14.777   8.517
57288SOL    HW273762   4.888   0.012   8.454
57289SOL     OW73763  11.125   5.325   4.769
57289SOL    HW173764  11.052   5.267   4.748
57289SOL    HW273765  11.159   5.292   4.852
57290SOL     OW73766  14.108   9.636   4.731
57290SOL    HW173767  14.076   9.574   4.666
57290SOL    HW273768  14.042   9.634   4.800
57291SOL     OW73769   2.326   3.675   5.917
57291SOL    HW173770   2.252   3.623   5.885
57291SOL    HW273771   2.286   3.740   5.975
57292SOL     OW73772   2.055   0.099   6.019
57292SOL    HW173773   2.050   0.052   5.936
57292SOL    HW273774   1.990   0.169   6.011
57293SOL     OW73775   4.582   8.993  11.746
57293SOL    HW173776   4.515   8.936  11.709
57293SOL    HW273777   4.555   9.006  11.837
57294SOL     OW73778  12.057   0.831   3.203
57294SOL    HW173779  12.007   0.750   3.212
57294SOL    HW273780  12.146   0.801   3.181
57295SOL     OW73781   9.523   6.126  10.677
57295SOL    HW173782   9.473   6.125  10.595
57295SOL    HW273783   9.457   6.118  10.745
57296SOL     OW73784  14.835   8.107  14.780
57296SOL    HW173785  14.779   8.046  14.828
57296SOL    HW273786  14.875   8.162  14.847
57297SOL     OW73787  13.621   8.336  13.429
57297SOL    HW173788  13.695   8.382  13.387
57297SOL    HW273789  13.602   8.263  13.370
57298SOL     OW73790   9.025  13.151  10.905
57298SOL    HW173791   9.042  13.111  10.820
57298SOL    HW273792   9.112  13.169  10.941
57299SOL     OW73793   6.384   2.035   9.228
57299SOL    HW173794   6.456   2.016   9.169
57299SOL    HW273795   6.377   2.130   9.229
57300SOL     OW73796  10.274   2.338  14.407
57300SOL    HW173797  10.331   2.414  14.404
57300SOL    HW273798  10.186   2.373  14.393
57301SOL     OW73799   0.808   8.226   9.776
57301SOL    HW173800   0.767   8.272   9.850
57301SOL    HW273801   0.740   8.169   9.742
57302SOL     OW73802   1.379   8.808  13.077
57302SOL    HW173803   1.469   8.810  13.108
57302SOL    HW273804   1.385   8.777  12.987
57303SOL     OW73805   6.763   3.956  12.833
57303SOL    HW173806   6.763   3.860  12.845
57303SOL    HW273807   6.732   3.969  12.744
57304SOL     OW73808   2.052   9.227   3.530
57304SOL    HW173809   1.961   9.245   3.507
57304SOL    HW273810   2.073   9.147   3.483
57305SOL     OW73811   7.001  11.100  11.826
57305SOL    HW173812   6.960  11.182  11.798
57305SOL    HW273813   7.094  11.114  11.811
57306SOL     OW73814  10.212   2.945   5.074
57306SOL    HW173815  10.139   2.894   5.040
57306SOL    HW273816  10.287   2.919   5.019
57307SOL     OW73817  12.857   1.914   5.813
57307SOL    HW173818  12.844   1.979   5.882
57307SOL    HW273819  12.820   1.833   5.849
57308SOL     OW73820   4.118  10.517   6.675
57308SOL    HW173821   4.148  10.569   6.601
57308SOL    HW273822   4.113  10.427   6.641
57309SOL     OW73823  10.293  11.486   9.756
57309SOL    HW173824  10.281  11.581   9.763
57309SOL    HW273825  10.316  11.471   9.665
57310SOL     OW73826  12.940   3.702  10.083
57310SOL    HW173827  12.876   3.633  10.099
57310SOL    HW273828  12.888   3.777  10.056
57311SOL     OW73829   1.348  11.230   2.213
57311SOL    HW173830   1.256  11.238   2.240
57311SOL    HW273831   1.344  11.190   2.126
57312SOL     OW73832   2.545  14.734   1.120
57312SOL    HW173833   2.521  14.666   1.057
57312SOL    HW273834   2.461  14.771   1.147
57313SOL     OW73835   9.678   5.944   5.099
57313SOL    HW173836   9.594   5.898   5.102
57313SOL    HW273837   9.739   5.887   5.147
57314SOL     OW73838  13.373   4.698  10.509
57314SOL    HW173839  13.452   4.733  10.549
57314SOL    HW273840  13.405   4.651  10.432
57315SOL     OW73841  10.363  11.053   8.507
57315SOL    HW173842  10.356  11.139   8.466
57315SOL    HW273843  10.362  11.071   8.601
57316SOL     OW73844   3.290  10.920   5.097
57316SOL    HW173845   3.244  10.927   5.013
57316SOL    HW273846   3.311  11.010   5.121
57317SOL     OW73847  12.172   4.381   2.470
57317SOL    HW173848  12.170   4.336   2.555
57317SOL    HW273849  12.224   4.324   2.414
57318SOL     OW73850   8.377   1.472  13.971
57318SOL    HW173851   8.400   1.500  13.882
57318SOL    HW273852   8.399   1.378  13.972
57319SOL     OW73853   6.569   0.049   3.522
57319SOL    HW173854   6.563   0.112   3.450
57319SOL    HW273855   6.587   0.102   3.600
57320SOL     OW73856   6.402   4.520   4.035
57320SOL    HW173857   6.446   4.596   4.000
57320SOL    HW273858   6.308   4.540   4.026
57321SOL     OW73859   1.372   2.722   7.640
57321SOL    HW173860   1.348   2.791   7.701
57321SOL    HW273861   1.323   2.645   7.670
57322SOL     OW73862  14.431  11.043   0.998
57322SOL    HW173863  14.519  11.014   1.023
57322SOL    HW273864  14.396  11.083   1.077
57323SOL     OW73865   8.202   2.599  12.510
57323SOL    HW173866   8.283   2.606  12.560
57323SOL    HW273867   8.185   2.505  12.505
57324SOL     OW73868  11.937   5.036   7.153
57324SOL    HW173869  12.006   5.051   7.088
57324SOL    HW273870  11.893   5.121   7.162
57325SOL     OW73871   3.168  12.453   7.716
57325SOL    HW173872   3.201  12.496   7.637
57325SOL    HW273873   3.073  12.455   7.706
57326SOL     OW73874  12.628  10.190   3.132
57326SOL    HW173875  12.568  10.156   3.198
57326SOL    HW273876  12.715  10.175   3.168
57327SOL     OW73877   6.128   1.464   0.091
57327SOL    HW173878   6.199   1.404   0.069
57327SOL    HW273879   6.065   1.410   0.139
57328SOL     OW73880   3.969   3.982  13.385
57328SOL    HW173881   4.062   3.997  13.371
57328SOL    HW273882   3.952   4.017  13.473
57329SOL     OW73883   6.361   2.220   1.390
57329SOL    HW173884   6.412   2.263   1.458
57329SOL    HW273885   6.301   2.287   1.358
57330SOL     OW73886   1.589  10.209   0.090
57330SOL    HW173887   1.525  10.265   0.133
57330SOL    HW273888   1.673  10.255   0.102
57331SOL     OW73889   2.781   5.849   9.999
57331SOL    HW173890   2.776   5.924  10.057
57331SOL    HW273891   2.690   5.830   9.975
57332SOL     OW73892   1.352   4.908   2.842
57332SOL    HW173893   1.339   4.922   2.936
57332SOL    HW273894   1.353   4.996   2.805
57333SOL     OW73895   4.175   1.481   7.199
57333SOL    HW173896   4.194   1.575   7.203
57333SOL    HW273897   4.100   1.470   7.258
57334SOL     OW73898  13.298   2.386   4.666
57334SOL    HW173899  13.307   2.357   4.757
57334SOL    HW273900  13.376   2.352   4.622
57335SOL     OW73901   2.816   1.070   1.727
57335SOL    HW173902   2.742   1.051   1.783
57335SOL    HW273903   2.777   1.100   1.644
57336SOL     OW73904   4.267  10.218   3.168
57336SOL    HW173905   4.318  10.150   3.212
57336SOL    HW273906   4.176  10.187   3.172
57337SOL     OW73907  11.948  11.955   2.761
57337SOL    HW173908  11.953  11.862   2.779
57337SOL    HW273909  11.959  11.997   2.846
57338SOL     OW73910  11.763   7.663  13.028
57338SOL    HW173911  11.792   7.737  12.975
57338SOL    HW273912  11.670   7.654  13.007
57339SOL     OW73913   0.241  12.677  12.563
57339SOL    HW173914   0.307  12.625  12.610
57339SOL    HW273915   0.291  12.728  12.501
57340SOL     OW73916   8.302   1.000  13.362
57340SOL    HW173917   8.264   0.981  13.276
57340SOL    HW273918   8.266   0.932  13.419
57341SOL     OW73919   5.837  13.246   6.840
57341SOL    HW173920   5.770  13.200   6.789
57341SOL    HW273921   5.881  13.302   6.776
57342SOL     OW73922   0.127   2.746   7.947
57342SOL    HW173923   0.055   2.683   7.948
57342SOL    HW273924   0.199   2.700   7.990
57343SOL     OW73925   8.364  13.989   5.021
57343SOL    HW173926   8.443  13.951   4.984
57343SOL    HW273927   8.373  13.975   5.116
57344SOL     OW73928   9.257   2.930  13.442
57344SOL    HW173929   9.329   2.916  13.381
57344SOL    HW273930   9.235   3.023  13.434
57345SOL     OW73931   3.058  12.287   3.362
57345SOL    HW173932   3.079  12.373   3.326
57345SOL    HW273933   2.974  12.264   3.322
57346SOL     OW73934   2.277   8.858   1.025
57346SOL    HW173935   2.253   8.772   1.060
57346SOL    HW273936   2.291   8.913   1.102
57347SOL     OW73937   1.222   5.534   5.148
57347SOL    HW173938   1.172   5.470   5.097
57347SOL    HW273939   1.200   5.514   5.239
57348SOL     OW73940  10.986  12.814  11.063
57348SOL    HW173941  11.043  12.803  11.140
57348SOL    HW273942  10.908  12.857  11.098
57349SOL     OW73943   4.951  13.063  10.701
57349SOL    HW173944   5.031  13.112  10.681
57349SOL    HW273945   4.924  13.095  10.787
57350SOL     OW73946   7.096  13.681  12.086
57350SOL    HW173947   7.060  13.697  11.999
57350SOL    HW273948   7.079  13.762  12.134
57351SOL     OW73949   3.951   7.285  14.118
57351SOL    HW173950   3.957   7.329  14.203
57351SOL    HW273951   4.006   7.208  14.128
57352SOL     OW73952   3.931   5.846   2.004
57352SOL    HW173953   4.000   5.782   2.018
57352SOL    HW273954   3.935   5.865   1.910
57353SOL     OW73955   3.443  10.222   5.524
57353SOL    HW173956   3.426  10.204   5.432
57353SOL    HW273957   3.483  10.309   5.524
57354SOL     OW73958   4.107   4.654   0.170
57354SOL    HW173959   4.067   4.720   0.226
57354SOL    HW273960   4.158   4.600   0.230
57355SOL     OW73961  13.377  10.270   1.706
57355SOL    HW173962  13.324  10.191   1.695
57355SOL    HW273963  13.467  10.242   1.690
57356SOL     OW73964   7.324  10.903   4.367
57356SOL    HW173965   7.400  10.940   4.413
57356SOL    HW273966   7.344  10.809   4.361
57357SOL     OW73967   9.217   5.963   7.370
57357SOL    HW173968   9.145   5.996   7.423
57357SOL    HW273969   9.194   5.872   7.351
57358SOL     OW73970  12.353   0.826   1.805
57358SOL    HW173971  12.309   0.869   1.879
57358SOL    HW273972  12.357   0.893   1.737
57359SOL     OW73973   1.154   2.982   2.963
57359SOL    HW173974   1.237   3.022   2.991
57359SOL    HW273975   1.106   3.054   2.922
57360SOL     OW73976   5.624   6.611   0.710
57360SOL    HW173977   5.690   6.543   0.728
57360SOL    HW273978   5.637   6.632   0.617
57361SOL     OW73979  11.738  11.894  12.801
57361SOL    HW173980  11.809  11.888  12.864
57361SOL    HW273981  11.722  11.987  12.791
57362SOL     OW73982  11.261   1.241   7.896
57362SOL    HW173983  11.179   1.193   7.894
57362SOL    HW273984  11.290   1.245   7.805
57363SOL     OW73985   3.397   5.347   7.642
57363SOL    HW173986   3.392   5.297   7.562
57363SOL    HW273987   3.326   5.411   7.635
57364SOL     OW73988   6.319  11.986   3.353
57364SOL    HW173989   6.385  11.917   3.340
57364SOL    HW273990   6.244  11.957   3.301
57365SOL     OW73991  11.323   8.911   3.576
57365SOL    HW173992  11.399   8.948   3.621
57365SOL    HW273993  11.284   8.985   3.529
57366SOL     OW73994   1.184   3.740   3.239
57366SOL    HW173995   1.236   3.766   3.164
57366SOL    HW273996   1.243   3.686   3.292
57367SOL     OW73997  14.556  13.681   2.878
57367SOL    HW173998  14.524  13.691   2.967
57367SOL    HW273999  14.528  13.593   2.852
57368SOL     OW74000   2.019   8.985   2.469
57368SOL    HW174001   2.044   9.075   2.448
57368SOL    HW274002   1.949   8.965   2.407
57369SOL     OW74003   3.542   8.080  14.230
57369SOL    HW174004   3.514   8.157  14.180
57369SOL    HW274005   3.543   8.009  14.166
57370SOL     OW74006   2.328  12.529   9.030
57370SOL    HW174007   2.413  12.495   9.057
57370SOL    HW274008   2.281  12.453   8.995
57371SOL     OW74009  14.057  13.268  12.218
57371SOL    HW174010  13.971  13.272  12.176
57371SOL    HW274011  14.116  13.237  12.149
57372SOL     OW74012   0.393  12.989  13.651
57372SOL    HW174013   0.387  13.047  13.575
57372SOL    HW274014   0.364  13.043  13.724
57373SOL     OW74015   7.083   9.461  12.329
57373SOL    HW174016   7.170   9.499  12.339
57373SOL    HW274017   7.044   9.509  12.256
57374SOL     OW74018   9.415   8.371  13.061
57374SOL    HW174019   9.406   8.445  13.121
57374SOL    HW274020   9.439   8.411  12.977
57375SOL     OW74021   6.521   2.244   6.594
57375SOL    HW174022   6.448   2.270   6.650
57375SOL    HW274023   6.548   2.325   6.551
57376SOL     OW74024   4.299  14.252   9.992
57376SOL    HW174025   4.206  14.231   9.992
57376SOL    HW274026   4.320  14.269  10.084
57377SOL     OW74027  13.494   5.492  13.683
57377SOL    HW174028  13.463   5.582  13.694
57377SOL    HW274029  13.541   5.472  13.764
57378SOL     OW74030   0.656   9.552   2.967
57378SOL    HW174031   0.650   9.504   2.884
57378SOL    HW274032   0.722   9.619   2.952
57379SOL     OW74033  13.809   6.476   0.350
57379SOL    HW174034  13.757   6.555   0.342
57379SOL    HW274035  13.821   6.445   0.260
57380SOL     OW74036   5.454   0.783   0.411
57380SOL    HW174037   5.433   0.837   0.335
57380SOL    HW274038   5.491   0.703   0.374
57381SOL     OW74039   0.661  11.626   5.706
57381SOL    HW174040   0.606  11.670   5.641
57381SOL    HW274041   0.699  11.552   5.658
57382SOL     OW74042   2.783   0.898  14.375
57382SOL    HW174043   2.762   0.828  14.313
57382SOL    HW274044   2.770   0.859  14.461
57383SOL     OW74045  14.547   6.951   6.219
57383SOL    HW174046  14.610   6.879   6.213
57383SOL    HW274047  14.553   6.995   6.134
57384SOL     OW74048   7.512   6.425  14.367
57384SOL    HW174049   7.453   6.361  14.407
57384SOL    HW274050   7.497   6.506  14.416
57385SOL     OW74051   8.015  12.263   5.846
57385SOL    HW174052   7.958  12.191   5.822
57385SOL    HW274053   8.020  12.317   5.768
57386SOL     OW74054   2.537   0.804   4.228
57386SOL    HW174055   2.582   0.720   4.215
57386SOL    HW274056   2.452   0.781   4.264
57387SOL     OW74057   4.432  12.321  11.317
57387SOL    HW174058   4.431  12.244  11.374
57387SOL    HW274059   4.442  12.285  11.228
57388SOL     OW74060   3.247   3.447   4.519
57388SOL    HW174061   3.190   3.388   4.569
57388SOL    HW274062   3.295   3.390   4.459
57389SOL     OW74063  11.881   1.953   1.129
57389SOL    HW174064  11.892   1.861   1.106
57389SOL    HW274065  11.806   1.955   1.188
57390SOL     OW74066  10.521   4.475   9.266
57390SOL    HW174067  10.510   4.440   9.177
57390SOL    HW274068  10.513   4.569   9.256
57391SOL     OW74069   2.703   2.202  14.394
57391SOL    HW174070   2.634   2.139  14.374
57391SOL    HW274071   2.664   2.287  14.379
57392SOL     OW74072  13.192   6.816   8.571
57392SOL    HW174073  13.260   6.846   8.631
57392SOL    HW274074  13.197   6.720   8.575
57393SOL     OW74075   6.114  10.103  13.569
57393SOL    HW174076   6.171  10.083  13.495
57393SOL    HW274077   6.072  10.186  13.545
57394SOL     OW74078  10.226   0.391   7.247
57394SOL    HW174079  10.281   0.461   7.212
57394SOL    HW274080  10.162   0.437   7.302
57395SOL     OW74081   0.066   9.673   9.623
57395SOL    HW174082   0.014   9.657   9.544
57395SOL    HW274083   0.080   9.587   9.661
57396SOL     OW74084   7.898  13.562  12.893
57396SOL    HW174085   7.913  13.567  12.799
57396SOL    HW274086   7.815  13.608  12.906
57397SOL     OW74087   6.289   1.478  11.167
57397SOL    HW174088   6.358   1.531  11.207
57397SOL    HW274089   6.301   1.390  11.204
57398SOL     OW74090  12.553   6.985  13.396
57398SOL    HW174091  12.580   6.921  13.331
57398SOL    HW274092  12.466   7.013  13.369
57399SOL     OW74093  12.481   9.569  11.652
57399SOL    HW174094  12.477   9.664  11.638
57399SOL    HW274095  12.474   9.559  11.747
57400SOL     OW74096  13.984  13.409   6.685
57400SOL    HW174097  13.972  13.440   6.595
57400SOL    HW274098  14.073  13.438   6.708
57401SOL     OW74099   0.873   8.707  10.827
57401SOL    HW174100   0.790   8.696  10.874
57401SOL    HW274101   0.853   8.681  10.737
57402SOL     OW74102   4.786   8.813   4.791
57402SOL    HW174103   4.726   8.789   4.721
57402SOL    HW274104   4.872   8.815   4.749
57403SOL     OW74105   0.902  13.281  12.212
57403SOL    HW174106   0.927  13.301  12.302
57403SOL    HW274107   0.808  13.301  12.208
57404SOL     OW74108   2.714   2.545  12.249
57404SOL    HW174109   2.776   2.583  12.311
57404SOL    HW274110   2.643   2.610  12.243
57405SOL     OW74111   8.549  13.357   9.238
57405SOL    HW174112   8.584  13.441   9.208
57405SOL    HW274113   8.573  13.353   9.330
57406SOL     OW74114   1.097  10.762   4.112
57406SOL    HW174115   1.085  10.670   4.087
57406SOL    HW274116   1.037  10.776   4.185
57407SOL     OW74117   7.718   6.693   7.668
57407SOL    HW174118   7.650   6.699   7.735
57407SOL    HW274119   7.747   6.784   7.655
57408SOL     OW74120  14.453  14.542   6.022
57408SOL    HW174121  14.495  14.606   5.965
57408SOL    HW274122  14.511  14.466   6.021
57409SOL     OW74123   7.144   2.930  12.480
57409SOL    HW174124   7.109   2.969  12.400
57409SOL    HW274125   7.199   2.999  12.517
57410SOL     OW74126   3.579   4.842   1.143
57410SOL    HW174127   3.617   4.800   1.220
57410SOL    HW274128   3.514   4.779   1.111
57411SOL     OW74129  11.754  14.134   8.398
57411SOL    HW174130  11.784  14.123   8.488
57411SOL    HW274131  11.718  14.223   8.396
57412SOL     OW74132  11.523   5.885   7.107
57412SOL    HW174133  11.608   5.924   7.128
57412SOL    HW274134  11.459   5.952   7.132
57413SOL     OW74135  13.237   6.910   1.853
57413SOL    HW174136  13.317   6.896   1.802
57413SOL    HW274137  13.166   6.892   1.791
57414SOL     OW74138   7.943   4.813  12.394
57414SOL    HW174139   7.968   4.780  12.308
57414SOL    HW274140   7.851   4.789  12.403
57415SOL     OW74141   2.979  10.186   6.082
57415SOL    HW174142   2.885  10.176   6.064
57415SOL    HW274143   2.983  10.247   6.156
57416SOL     OW74144   9.845   3.191  11.357
57416SOL    HW174145   9.862   3.156  11.445
57416SOL    HW274146   9.932   3.205  11.319
57417SOL     OW74147  13.350  11.277   3.242
57417SOL    HW174148  13.328  11.264   3.150
57417SOL    HW274149  13.421  11.342   3.240
57418SOL     OW74150   9.307   0.386  11.341
57418SOL    HW174151   9.294   0.480  11.324
57418SOL    HW274152   9.302   0.346  11.254
57419SOL     OW74153   8.414   9.927   8.151
57419SOL    HW174154   8.365   9.856   8.191
57419SOL    HW274155   8.464   9.966   8.223
57420SOL     OW74156   1.868  12.826   4.302
57420SOL    HW174157   1.896  12.735   4.306
57420SOL    HW274158   1.831  12.836   4.214
57421SOL     OW74159  12.116   4.482  12.483
57421SOL    HW174160  12.206   4.450  12.476
57421SOL    HW274161  12.123   4.575  12.462
57422SOL     OW74162   0.909  13.507   5.992
57422SOL    HW174163   0.824  13.477   6.026
57422SOL    HW274164   0.925  13.589   6.038
57423SOL     OW74165   8.184   2.331  12.459
57423SOL    HW174166   8.089   2.317  12.465
57423SOL    HW274167   8.205   2.317  12.367
57424SOL     OW74168  13.483   4.956   9.163
57424SOL    HW174169  13.459   4.963   9.255
57424SOL    HW274170  13.530   5.037   9.144
57425SOL     OW74171   4.285   0.620   6.233
57425SOL    HW174172   4.192   0.603   6.252
57425SOL    HW274173   4.283   0.674   6.154
57426SOL     OW74174  12.646   0.433   9.221
57426SOL    HW174175  12.649   0.357   9.278
57426SOL    HW274176  12.734   0.470   9.226
57427SOL     OW74177   6.856  11.960   3.939
57427SOL    HW174178   6.909  11.899   3.990
57427SOL    HW274179   6.912  11.987   3.867
57428SOL     OW74180   3.235   3.328   7.536
57428SOL    HW174181   3.199   3.333   7.624
57428SOL    HW274182   3.259   3.419   7.515
57429SOL     OW74183   2.941  14.103  11.685
57429SOL    HW174184   2.903  14.190  11.671
57429SOL    HW274185   2.923  14.084  11.778
57430SOL     OW74186  14.342  13.651  14.046
57430SOL    HW174187  14.281  13.596  14.095
57430SOL    HW274188  14.398  13.690  14.113
57431SOL     OW74189   9.528   9.819   8.414
57431SOL    HW174190   9.507   9.736   8.456
57431SOL    HW274191   9.448   9.871   8.423
57432SOL     OW74192   9.997  11.319   2.965
57432SOL    HW174193  10.009  11.278   2.879
57432SOL    HW274194  10.080  11.363   2.982
57433SOL     OW74195   1.030   1.922  13.526
57433SOL    HW174196   1.006   1.977  13.452
57433SOL    HW274197   0.952   1.920  13.581
57434SOL     OW74198   0.144  10.935   8.262
57434SOL    HW174199   0.068  10.989   8.286
57434SOL    HW274200   0.183  10.980   8.187
57435SOL     OW74201   1.048  11.923   7.149
57435SOL    HW174202   0.965  11.883   7.123
57435SOL    HW274203   1.033  12.017   7.142
57436SOL     OW74204  14.096   3.896  14.309
57436SOL    HW174205  14.004   3.883  14.332
57436SOL    HW274206  14.136   3.810  14.319
57437SOL     OW74207   1.081   2.912  10.870
57437SOL    HW174208   1.134   2.832  10.866
57437SOL    HW274209   0.994   2.884  10.842
57438SOL     OW74210   4.741   0.320   4.448
57438SOL    HW174211   4.709   0.324   4.358
57438SOL    HW274212   4.761   0.411   4.471
57439SOL     OW74213   7.989   1.262  10.347
57439SOL    HW174214   7.906   1.292  10.383
57439SOL    HW274215   7.989   1.295  10.256
57440SOL     OW74216   5.974   9.849  12.930
57440SOL    HW174217   6.055   9.900  12.926
57440SOL    HW274218   5.994   9.777  12.990
57441SOL     OW74219  14.366  10.065   5.050
57441SOL    HW174220  14.441  10.027   5.095
57441SOL    HW274221  14.394  10.073   4.959
57442SOL     OW74222  14.340   4.775  14.627
57442SOL    HW174223  14.346   4.833  14.552
57442SOL    HW274224  14.432   4.753  14.648
57443SOL     OW74225   4.874  14.014  14.719
57443SOL    HW174226   4.906  13.933  14.681
57443SOL    HW274227   4.949  14.050  14.767
57444SOL     OW74228   4.495   9.376   1.604
57444SOL    HW174229   4.583   9.407   1.623
57444SOL    HW274230   4.507   9.293   1.558
57445SOL     OW74231   7.042   5.297   0.507
57445SOL    HW174232   7.129   5.264   0.485
57445SOL    HW274233   7.029   5.272   0.599
57446SOL     OW74234   0.056  10.252   0.253
57446SOL    HW174235   0.111  10.183   0.291
57446SOL    HW274236   0.112  10.330   0.252
57447SOL     OW74237   6.405   8.466   9.016
57447SOL    HW174238   6.328   8.512   9.051
57447SOL    HW274239   6.437   8.415   9.090
57448SOL     OW74240   7.743   7.932  12.622
57448SOL    HW174241   7.693   7.869  12.571
57448SOL    HW274242   7.765   8.001  12.560
57449SOL     OW74243   4.054   8.968   2.904
57449SOL    HW174244   4.094   9.035   2.848
57449SOL    HW274245   4.123   8.904   2.918
57450SOL     OW74246  12.586   6.548   8.668
57450SOL    HW174247  12.503   6.543   8.622
57450SOL    HW274248  12.567   6.514   8.755
57451SOL     OW74249   1.649   7.886   3.045
57451SOL    HW174250   1.589   7.884   3.120
57451SOL    HW274251   1.732   7.852   3.079
57452SOL     OW74252   4.526  11.954   2.658
57452SOL    HW174253   4.559  11.872   2.621
57452SOL    HW274254   4.434  11.936   2.678
57453SOL     OW74255   5.036  10.672   3.536
57453SOL    HW174256   5.114  10.626   3.568
57453SOL    HW274257   5.025  10.746   3.596
57454SOL     OW74258   0.394   4.935   5.869
57454SOL    HW174259   0.382   5.002   5.935
57454SOL    HW274260   0.483   4.903   5.883
57455SOL     OW74261   8.495  13.532   6.689
57455SOL    HW174262   8.521  13.475   6.761
57455SOL    HW274263   8.494  13.620   6.727
57456SOL     OW74264  13.369   9.541  10.837
57456SOL    HW174265  13.347   9.453  10.808
57456SOL    HW274266  13.289   9.591  10.825
57457SOL     OW74267  13.933   4.882   2.634
57457SOL    HW174268  13.878   4.811   2.600
57457SOL    HW274269  13.946   4.941   2.560
57458SOL     OW74270  12.401   5.090   7.970
57458SOL    HW174271  12.307   5.079   7.980
57458SOL    HW274272  12.414   5.185   7.968
57459SOL     OW74273   4.718   5.052   3.754
57459SOL    HW174274   4.639   5.049   3.808
57459SOL    HW274275   4.740   5.145   3.750
57460SOL     OW74276  14.811  12.993  14.751
57460SOL    HW174277  14.735  13.044  14.720
57460SOL    HW274278  14.879  13.012  14.687
57461SOL     OW74279  12.981   6.047   9.300
57461SOL    HW174280  13.039   6.048   9.223
57461SOL    HW274281  12.910   6.107   9.277
57462SOL     OW74282   7.004   5.484   1.349
57462SOL    HW174283   7.049   5.412   1.305
57462SOL    HW274284   7.072   5.549   1.366
57463SOL     OW74285   2.479   0.283   8.239
57463SOL    HW174286   2.517   0.358   8.194
57463SOL    HW274287   2.414   0.321   8.298
57464SOL     OW74288   8.832   8.588  13.129
57464SOL    HW174289   8.880   8.654  13.080
57464SOL    HW274290   8.799   8.634  13.206
57465SOL     OW74291   1.320   4.158   4.136
57465SOL    HW174292   1.277   4.216   4.073
57465SOL    HW274293   1.403   4.134   4.094
57466SOL     OW74294  14.394   0.365  10.146
57466SOL    HW174295  14.410   0.425  10.073
57466SOL    HW274296  14.481   0.334  10.171
57467SOL     OW74297  13.139  12.007  11.840
57467SOL    HW174298  13.178  12.044  11.919
57467SOL    HW274299  13.112  12.084  11.789
57468SOL     OW74300  11.148  12.910  13.988
57468SOL    HW174301  11.083  12.979  14.002
57468SOL    HW274302  11.100  12.828  14.003
57469SOL     OW74303  14.582   3.784   6.852
57469SOL    HW174304  14.634   3.744   6.782
57469SOL    HW274305  14.612   3.739   6.932
57470SOL     OW74306   0.519   2.300  12.649
57470SOL    HW174307   0.425   2.303  12.671
57470SOL    HW274308   0.542   2.208  12.655
57471SOL     OW74309   5.719   3.745  10.219
57471SOL    HW174310   5.785   3.706  10.277
57471SOL    HW274311   5.685   3.820  10.268
57472SOL     OW74312  13.541   6.218   9.120
57472SOL    HW174313  13.528   6.182   9.208
57472SOL    HW274314  13.594   6.152   9.075
57473SOL     OW74315   4.669   4.308   3.112
57473SOL    HW174316   4.667   4.343   3.201
57473SOL    HW274317   4.621   4.226   3.117
57474SOL     OW74318   1.738   5.111  14.429
57474SOL    HW174319   1.648   5.115  14.396
57474SOL    HW274320   1.776   5.195  14.404
57475SOL     OW74321  14.298   9.018   2.635
57475SOL    HW174322  14.375   8.980   2.593
57475SOL    HW274323  14.244   9.050   2.563
57476SOL     OW74324   7.672   6.940   6.396
57476SOL    HW174325   7.725   6.948   6.475
57476SOL    HW274326   7.600   7.002   6.410
57477SOL     OW74327   1.222   5.662  14.708
57477SOL    HW174328   1.285   5.732  14.724
57477SOL    HW274329   1.273   5.581  14.720
57478SOL     OW74330  11.385   4.359  14.202
57478SOL    HW174331  11.463   4.315  14.170
57478SOL    HW274332  11.408   4.388  14.291
57479SOL     OW74333  14.526  12.269   9.801
57479SOL    HW174334  14.614  12.299   9.821
57479SOL    HW274335  14.538  12.191   9.748
57480SOL     OW74336   1.865   6.806   9.844
57480SOL    HW174337   1.802   6.767   9.783
57480SOL    HW274338   1.947   6.760   9.826
57481SOL     OW74339   9.854   2.352  11.236
57481SOL    HW174340   9.824   2.408  11.164
57481SOL    HW274341   9.799   2.274  11.230
57482SOL     OW74342   1.488   1.227  13.231
57482SOL    HW174343   1.451   1.294  13.289
57482SOL    HW274344   1.562   1.270  13.188
57483SOL     OW74345   1.250   3.632   9.427
57483SOL    HW174346   1.181   3.685   9.467
57483SOL    HW274347   1.303   3.602   9.501
57484SOL     OW74348   0.955   5.368   9.532
57484SOL    HW174349   1.025   5.345   9.593
57484SOL    HW274350   0.985   5.449   9.491
57485SOL     OW74351   2.047   4.832   4.357
57485SOL    HW174352   2.120   4.893   4.366
57485SOL    HW274353   2.071   4.758   4.413
57486SOL     OW74354   8.878   4.240   9.503
57486SOL    HW174355   8.878   4.212   9.595
57486SOL    HW274356   8.792   4.280   9.490
57487SOL     OW74357   4.966   0.298   8.909
57487SOL    HW174358   4.929   0.373   8.955
57487SOL    HW274359   5.024   0.257   8.973
57488SOL     OW74360  11.782  14.442   3.846
57488SOL    HW174361  11.775  14.525   3.893
57488SOL    HW274362  11.729  14.381   3.898
57489SOL     OW74363   4.518  14.796   4.889
57489SOL    HW174364   4.461  14.750   4.828
57489SOL    HW274365   4.489  14.887   4.886
57490SOL     OW74366   8.782   8.605  10.501
57490SOL    HW174367   8.723   8.660  10.449
57490SOL    HW274368   8.723   8.556  10.559
57491SOL     OW74369   6.155   0.490  12.833
57491SOL    HW174370   6.126   0.571  12.793
57491SOL    HW274371   6.248   0.486  12.815
57492SOL     OW74372   0.247   7.944   7.618
57492SOL    HW174373   0.160   7.985   7.622
57492SOL    HW274374   0.228   7.850   7.619
57493SOL     OW74375  12.584   0.584  11.487
57493SOL    HW174376  12.558   0.676  11.492
57493SOL    HW274377  12.507   0.538  11.454
57494SOL     OW74378  10.769   9.152   8.356
57494SOL    HW174379  10.814   9.170   8.439
57494SOL    HW274380  10.840   9.137   8.293
57495SOL     OW74381  11.789   8.931   9.191
57495SOL    HW174382  11.752   8.997   9.132
57495SOL    HW274383  11.764   8.959   9.279
57496SOL     OW74384   4.269   2.491   6.147
57496SOL    HW174385   4.202   2.557   6.163
57496SOL    HW274386   4.308   2.515   6.063
57497SOL     OW74387  10.731   9.320   7.815
57497SOL    HW174388  10.659   9.369   7.776
57497SOL    HW274389  10.703   9.229   7.811
57498SOL     OW74390   3.186  11.579   4.856
57498SOL    HW174391   3.237  11.511   4.900
57498SOL    HW274392   3.205  11.567   4.763
57499SOL     OW74393   2.923  14.874   6.126
57499SOL    HW174394   2.985   0.031   6.184
57499SOL    HW274395   2.837   0.011   6.159
57500SOL     OW74396   5.605  12.644   7.136
57500SOL    HW174397   5.693  12.667   7.167
57500SOL    HW274398   5.612  12.553   7.109
57501SOL     OW74399   4.386   3.566   9.019
57501SOL    HW174400   4.293   3.546   9.017
57501SOL    HW274401   4.409   3.565   9.112
57502SOL     OW74402  14.090  11.147   9.594
57502SOL    HW174403  13.996  11.160   9.606
57502SOL    HW274404  14.101  11.143   9.499
57503SOL     OW74405   6.764   6.004   1.461
57503SOL    HW174406   6.835   6.016   1.399
57503SOL    HW274407   6.697   6.066   1.433
57504SOL     OW74408   1.798  10.189   9.592
57504SOL    HW174409   1.737  10.173   9.520
57504SOL    HW274410   1.885  10.175   9.553
57505SOL     OW74411   7.797  10.399   4.763
57505SOL    HW174412   7.748  10.342   4.703
57505SOL    HW274413   7.870  10.431   4.710
57506SOL     OW74414   6.609   6.216   4.717
57506SOL    HW174415   6.678   6.259   4.667
57506SOL    HW274416   6.575   6.283   4.776
57507SOL     OW74417  13.302  11.865   9.310
57507SOL    HW174418  13.395  11.875   9.289
57507SOL    HW274419  13.298  11.872   9.405
57508SOL     OW74420   4.476   8.155   2.830
57508SOL    HW174421   4.447   8.175   2.919
57508SOL    HW274422   4.515   8.068   2.836
57509SOL     OW74423  10.988   5.995  11.963
57509SOL    HW174424  10.898   6.028  11.963
57509SOL    HW274425  11.041   6.071  11.939
57510SOL     OW74426   4.522  10.561   9.882
57510SOL    HW174427   4.606  10.596   9.911
57510SOL    HW274428   4.540  10.521   9.798
57511SOL     OW74429  11.091   2.142  14.693
57511SOL    HW174430  11.111   2.186  14.611
57511SOL    HW274431  10.997   2.124  14.689
57512SOL     OW74432   8.654   0.020   3.213
57512SOL    HW174433   8.622   0.047   3.299
57512SOL    HW274434   8.729  14.851   3.231
57513SOL     OW74435  13.916   0.000   0.060
57513SOL    HW174436  13.944  14.799   0.036
57513SOL    HW274437  13.883  14.879   0.149
57514SOL     OW74438   1.237   1.577   3.698
57514SOL    HW174439   1.199   1.616   3.777
57514SOL    HW274440   1.177   1.506   3.675
57515SOL     OW74441   6.283   1.687   0.154
57515SOL    HW174442   6.220   1.625   0.191
57515SOL    HW274443   6.359   1.634   0.132
57516SOL     OW74444  11.606   6.644  10.745
57516SOL    HW174445  11.611   6.660  10.650
57516SOL    HW274446  11.669   6.573  10.760
57517SOL     OW74447  14.284  10.566   8.344
57517SOL    HW174448  14.366  10.533   8.380
57517SOL    HW274449  14.252  10.494   8.288
57518SOL     OW74450   9.848   7.421   1.766
57518SOL    HW174451   9.923   7.389   1.717
57518SOL    HW274452   9.772   7.384   1.720
57519SOL     OW74453   6.018   6.036   7.831
57519SOL    HW174454   5.948   6.067   7.888
57519SOL    HW274455   6.040   6.112   7.777
57520SOL     OW74456  14.829   7.088   1.911
57520SOL    HW174457  14.814   7.158   1.974
57520SOL    HW274458  14.805   7.008   1.958
57521SOL     OW74459   6.749   1.266   8.581
57521SOL    HW174460   6.828   1.320   8.580
57521SOL    HW274461   6.690   1.311   8.642
57522SOL     OW74462  14.213   1.430   3.748
57522SOL    HW174463  14.127   1.470   3.744
57522SOL    HW274464  14.200   1.349   3.799
57523SOL     OW74465   3.711   7.940   4.492
57523SOL    HW174466   3.787   7.917   4.440
57523SOL    HW274467   3.745   8.001   4.558
57524SOL     OW74468   3.998  13.249  13.142
57524SOL    HW174469   4.086  13.220  13.117
57524SOL    HW274470   3.970  13.185  13.208
57525SOL     OW74471   5.470   0.119  11.022
57525SOL    HW174472   5.467   0.062  11.099
57525SOL    HW274473   5.429   0.201  11.051
57526SOL     OW74474  11.048  10.100   0.318
57526SOL    HW174475  10.977  10.089   0.381
57526SOL    HW274476  11.113  10.035   0.344
57527SOL     OW74477  13.218   8.430   4.176
57527SOL    HW174478  13.140   8.485   4.181
57527SOL    HW274479  13.237   8.406   4.266
57528SOL     OW74480   8.950   7.885   1.382
57528SOL    HW174481   8.855   7.897   1.391
57528SOL    HW274482   8.971   7.928   1.300
57529SOL     OW74483   1.956   9.302  10.778
57529SOL    HW174484   1.964   9.367  10.709
57529SOL    HW274485   2.006   9.227  10.746
57530SOL     OW74486   1.737   1.856   7.257
57530SOL    HW174487   1.791   1.784   7.289
57530SOL    HW274488   1.664   1.813   7.212
57531SOL     OW74489   8.676   3.259   0.797
57531SOL    HW174490   8.698   3.351   0.807
57531SOL    HW274491   8.607   3.243   0.862
57532SOL     OW74492   9.970  12.178  12.741
57532SOL    HW174493  10.021  12.163  12.661
57532SOL    HW274494   9.911  12.102  12.747
57533SOL     OW74495   5.603   5.489   2.214
57533SOL    HW174496   5.536   5.446   2.267
57533SOL    HW274497   5.583   5.583   2.223
57534SOL     OW74498   0.464   3.232  10.706
57534SOL    HW174499   0.541   3.199  10.753
57534SOL    HW274500   0.439   3.161  10.647
57535SOL     OW74501   4.273  13.800   4.238
57535SOL    HW174502   4.309  13.848   4.312
57535SOL    HW274503   4.333  13.817   4.166
57536SOL     OW74504   9.932   4.946   9.010
57536SOL    HW174505  10.004   4.921   8.952
57536SOL    HW274506   9.916   5.038   8.990
57537SOL     OW74507  13.712   9.788  14.242
57537SOL    HW174508  13.751   9.762  14.158
57537SOL    HW274509  13.785   9.787  14.304
57538SOL     OW74510   5.541   4.682  11.749
57538SOL    HW174511   5.542   4.759  11.693
57538SOL    HW274512   5.624   4.686  11.797
57539SOL     OW74513   0.289  13.126  13.874
57539SOL    HW174514   0.230  13.201  13.878
57539SOL    HW274515   0.303  13.100  13.965
57540SOL     OW74516  13.439  13.665  14.505
57540SOL    HW174517  13.357  13.693  14.546
57540SOL    HW274518  13.413  13.596  14.444
57541SOL     OW74519   5.110   5.329   1.366
57541SOL    HW174520   5.077   5.414   1.338
57541SOL    HW274521   5.192   5.348   1.411
57542SOL     OW74522   7.663   9.525  11.052
57542SOL    HW174523   7.603   9.519  11.126
57542SOL    HW274524   7.748   9.548  11.091
57543SOL     OW74525   2.572   9.646  14.013
57543SOL    HW174526   2.623   9.683  14.086
57543SOL    HW274527   2.619   9.675  13.935
57544SOL     OW74528   7.833  13.840  12.444
57544SOL    HW174529   7.857  13.875  12.358
57544SOL    HW274530   7.776  13.765  12.425
57545SOL     OW74531  10.759   6.077  10.277
57545SOL    HW174532  10.705   6.001  10.253
57545SOL    HW274533  10.814   6.093  10.200
57546SOL     OW74534  10.347   3.001   4.372
57546SOL    HW174535  10.359   2.912   4.403
57546SOL    HW274536  10.300   2.991   4.289
57547SOL     OW74537   0.989   9.486   8.148
57547SOL    HW174538   1.008   9.398   8.114
57547SOL    HW274539   1.036   9.489   8.231
57548SOL     OW74540  12.226   4.102   1.192
57548SOL    HW174541  12.199   4.047   1.266
57548SOL    HW274542  12.316   4.126   1.212
57549SOL     OW74543   9.691  11.104   9.334
57549SOL    HW174544   9.699  11.186   9.383
57549SOL    HW274545   9.730  11.037   9.391
57550SOL     OW74546   7.855  12.379   3.604
57550SOL    HW174547   7.872  12.370   3.510
57550SOL    HW274548   7.819  12.294   3.630
57551SOL     OW74549   0.777   5.773  11.992
57551SOL    HW174550   0.692   5.810  11.967
57551SOL    HW274551   0.761   5.679  11.999
57552SOL     OW74552  11.380   4.033   6.307
57552SOL    HW174553  11.457   4.089   6.315
57552SOL    HW274554  11.332   4.047   6.388
57553SOL     OW74555   1.615   5.294  12.283
57553SOL    HW174556   1.704   5.264  12.266
57553SOL    HW274557   1.625   5.372  12.338
57554SOL     OW74558   9.797   5.639  10.201
57554SOL    HW174559   9.807   5.545  10.216
57554SOL    HW274560   9.707   5.649  10.171
57555SOL     OW74561  14.452  13.921  12.669
57555SOL    HW174562  14.532  13.947  12.714
57555SOL    HW274563  14.391  13.994  12.686
57556SOL     OW74564   2.473   0.038   5.112
57556SOL    HW174565   2.452  14.881   5.194
57556SOL    HW274566   2.433   0.125   5.120
57557SOL     OW74567   7.931   2.852   4.327
57557SOL    HW174568   8.013   2.848   4.276
57557SOL    HW274569   7.934   2.773   4.381
57558SOL     OW74570  10.058   0.850  14.661
57558SOL    HW174571  10.082   0.850  14.568
57558SOL    HW274572  10.074   0.760  14.690
57559SOL     OW74573  10.820   0.611   7.457
57559SOL    HW174574  10.838   0.568   7.541
57559SOL    HW274575  10.900   0.598   7.406
57560SOL     OW74576  12.739  13.862   3.425
57560SOL    HW174577  12.728  13.832   3.515
57560SOL    HW274578  12.662  13.827   3.379
57561SOL     OW74579   7.217  11.547   8.575
57561SOL    HW174580   7.192  11.581   8.489
57561SOL    HW274581   7.181  11.611   8.637
57562SOL     OW74582   0.144  12.920  12.706
57562SOL    HW174583   0.155  12.829  12.677
57562SOL    HW274584   0.149  12.972  12.626
57563SOL     OW74585   7.723   8.326  12.500
57563SOL    HW174586   7.743   8.261  12.433
57563SOL    HW274587   7.674   8.394  12.454
57564SOL     OW74588   3.259  14.685   8.657
57564SOL    HW174589   3.205  14.606   8.650
57564SOL    HW274590   3.216  14.737   8.725
57565SOL     OW74591   3.445   1.632   5.740
57565SOL    HW174592   3.512   1.590   5.686
57565SOL    HW274593   3.490   1.708   5.778
57566SOL     OW74594   5.170   2.962   1.165
57566SOL    HW174595   5.170   2.983   1.258
57566SOL    HW274596   5.192   2.869   1.161
57567SOL     OW74597   4.441  11.168  12.598
57567SOL    HW174598   4.382  11.095  12.618
57567SOL    HW274599   4.426  11.187  12.506
57568SOL     OW74600   8.522   8.765  13.659
57568SOL    HW174601   8.477   8.832  13.608
57568SOL    HW274602   8.496   8.783  13.750
57569SOL     OW74603   2.601   3.443   6.589
57569SOL    HW174604   2.689   3.480   6.591
57569SOL    HW274605   2.563   3.477   6.508
57570SOL     OW74606   9.396   6.212   4.489
57570SOL    HW174607   9.342   6.231   4.566
57570SOL    HW274608   9.366   6.274   4.423
57571SOL     OW74609   7.863   5.165  14.467
57571SOL    HW174610   7.830   5.103  14.402
57571SOL    HW274611   7.789   5.222  14.486
57572SOL     OW74612   2.702   3.984   8.547
57572SOL    HW174613   2.720   4.077   8.542
57572SOL    HW274614   2.609   3.976   8.528
57573SOL     OW74615  10.725  10.328   7.741
57573SOL    HW174616  10.663  10.368   7.802
57573SOL    HW274617  10.799  10.389   7.741
57574SOL     OW74618   6.606  11.408   3.262
57574SOL    HW174619   6.574  11.428   3.174
57574SOL    HW274620   6.529  11.419   3.318
57575SOL     OW74621  11.684   1.138  12.245
57575SOL    HW174622  11.660   1.146  12.153
57575SOL    HW274623  11.655   1.050  12.270
57576SOL     OW74624  13.625   0.999   8.521
57576SOL    HW174625  13.666   1.080   8.493
57576SOL    HW274626  13.691   0.957   8.576
57577SOL     OW74627   7.193   2.915  11.690
57577SOL    HW174628   7.156   2.919  11.602
57577SOL    HW274629   7.217   2.823  11.701
57578SOL     OW74630   6.569   4.788   0.568
57578SOL    HW174631   6.491   4.843   0.579
57578SOL    HW274632   6.642   4.848   0.581
57579SOL     OW74633   6.610   8.965  11.421
57579SOL    HW174634   6.572   9.052  11.411
57579SOL    HW274635   6.607   8.948  11.515
57580SOL     OW74636  10.377   6.592   3.998
57580SOL    HW174637  10.361   6.598   4.092
57580SOL    HW274638  10.334   6.511   3.971
57581SOL     OW74639  10.196   9.668  13.750
57581SOL    HW174640  10.186   9.615  13.829
57581SOL    HW274641  10.168   9.610  13.679
57582SOL     OW74642   4.210   4.810   3.849
57582SOL    HW174643   4.200   4.879   3.784
57582SOL    HW274644   4.217   4.729   3.798
57583SOL     OW74645  10.555  10.183  13.976
57583SOL    HW174646  10.504  10.257  14.009
57583SOL    HW274647  10.570  10.127  14.053
57584SOL     OW74648   2.918   1.659   6.693
57584SOL    HW174649   2.946   1.712   6.619
57584SOL    HW274650   2.823   1.670   6.696
57585SOL     OW74651   3.334  13.599  11.819
57585SOL    HW174652   3.360  13.677  11.769
57585SOL    HW274653   3.376  13.610  11.904
57586SOL     OW74654   4.049   6.373   6.419
57586SOL    HW174655   3.955   6.370   6.402
57586SOL    HW274656   4.070   6.288   6.459
57587SOL     OW74657   9.552   5.788   3.516
57587SOL    HW174658   9.622   5.826   3.463
57587SOL    HW274659   9.535   5.853   3.584
57588SOL     OW74660   1.967   8.482   1.378
57588SOL    HW174661   1.897   8.426   1.411
57588SOL    HW274662   2.015   8.426   1.317
57589SOL     OW74663  12.233  10.621   3.901
57589SOL    HW174664  12.180  10.556   3.855
57589SOL    HW274665  12.322  10.586   3.896
57590SOL     OW74666  14.140   2.566  12.149
57590SOL    HW174667  14.115   2.525  12.231
57590SOL    HW274668  14.091   2.648  12.147
57591SOL     OW74669   3.222  12.181   8.144
57591SOL    HW174670   3.172  12.251   8.185
57591SOL    HW274671   3.247  12.215   8.058
57592SOL     OW74672   9.345   0.300   3.854
57592SOL    HW174673   9.374   0.391   3.847
57592SOL    HW274674   9.288   0.298   3.932
57593SOL     OW74675   9.017   6.615   7.209
57593SOL    HW174676   9.094   6.564   7.184
57593SOL    HW274677   9.048   6.706   7.208
57594SOL     OW74678  13.502   0.127  14.015
57594SOL    HW174679  13.479   0.199  14.074
57594SOL    HW274680  13.426   0.069  14.017
57595SOL     OW74681  14.798   4.264  11.394
57595SOL    HW174682  14.849   4.297  11.319
57595SOL    HW274683  14.720   4.320  11.396
57596SOL     OW74684  14.708   2.688  14.196
57596SOL    HW174685  14.613   2.695  14.188
57596SOL    HW274686  14.735   2.640  14.118
57597SOL     OW74687  10.877   3.728   8.123
57597SOL    HW174688  10.897   3.696   8.211
57597SOL    HW274689  10.790   3.766   8.130
57598SOL     OW74690   5.450   8.623   2.770
57598SOL    HW174691   5.466   8.533   2.797
57598SOL    HW274692   5.481   8.627   2.679
57599SOL     OW74693   8.898   4.855   2.757
57599SOL    HW174694   8.807   4.868   2.729
57599SOL    HW274695   8.894   4.780   2.817
57600SOL     OW74696   2.669   5.834   6.951
57600SOL    HW174697   2.725   5.898   6.995
57600SOL    HW274698   2.649   5.769   7.019
57601SOL     OW74699   4.058   9.328   1.670
57601SOL    HW174700   4.096   9.285   1.594
57601SOL    HW274701   4.106   9.410   1.678
57602SOL     OW74702  13.803   5.225  14.168
57602SOL    HW174703  13.721   5.220  14.119
57602SOL    HW274704  13.785   5.177  14.249
57603SOL     OW74705  13.384  13.119   0.959
57603SOL    HW174706  13.476  13.142   0.944
57603SOL    HW274707  13.341  13.202   0.977
57604SOL     OW74708  11.313  11.107  10.407
57604SOL    HW174709  11.271  11.054  10.340
57604SOL    HW274710  11.379  11.050  10.445
57605SOL     OW74711   0.266   4.355  10.487
57605SOL    HW174712   0.195   4.292  10.496
57605SOL    HW274713   0.291   4.375  10.577
57606SOL     OW74714   2.138   7.076  12.158
57606SOL    HW174715   2.069   7.060  12.093
57606SOL    HW274716   2.091   7.109  12.235
57607SOL     OW74717   9.153  13.147   0.224
57607SOL    HW174718   9.116  13.198   0.152
57607SOL    HW274719   9.246  13.140   0.203
57608SOL     OW74720  11.354   0.277   5.229
57608SOL    HW174721  11.306   0.356   5.254
57608SOL    HW274722  11.286   0.215   5.203
57609SOL     OW74723   5.256   6.766  12.587
57609SOL    HW174724   5.339   6.764  12.635
57609SOL    HW274725   5.246   6.858  12.562
57610SOL     OW74726   2.127  13.046   1.788
57610SOL    HW174727   2.149  13.132   1.823
57610SOL    HW274728   2.034  13.034   1.809
57611SOL     OW74729  13.425   4.280   4.005
57611SOL    HW174730  13.329   4.282   4.006
57611SOL    HW274731  13.450   4.355   3.952
57612SOL     OW74732  11.786  12.337  13.528
57612SOL    HW174733  11.707  12.344  13.581
57612SOL    HW274734  11.755  12.305  13.443
57613SOL     OW74735   1.418   6.616  11.177
57613SOL    HW174736   1.346   6.620  11.240
57613SOL    HW274737   1.496   6.605  11.231
57614SOL     OW74738   8.799   5.049   0.655
57614SOL    HW174739   8.852   5.009   0.587
57614SOL    HW274740   8.757   4.976   0.700
57615SOL     OW74741   0.441  14.613  13.650
57615SOL    HW174742   0.534  14.601  13.628
57615SOL    HW274743   0.412  14.685  13.594
57616SOL     OW74744  11.290   7.973   1.070
57616SOL    HW174745  11.252   8.012   1.149
57616SOL    HW274746  11.263   8.031   0.999
57617SOL     OW74747   9.579  13.864   9.763
57617SOL    HW174748   9.488  13.844   9.781
57617SOL    HW274749   9.586  13.959   9.773
57618SOL     OW74750   8.712  13.570   3.589
57618SOL    HW174751   8.623  13.549   3.560
57618SOL    HW274752   8.749  13.485   3.613
57619SOL     OW74753   4.183   6.213   0.595
57619SOL    HW174754   4.100   6.240   0.633
57619SOL    HW274755   4.211   6.287   0.542
57620SOL     OW74756   0.158   3.981   5.339
57620SOL    HW174757   0.145   3.897   5.382
57620SOL    HW274758   0.210   4.033   5.401
57621SOL     OW74759   5.654   7.226  13.747
57621SOL    HW174760   5.724   7.273  13.793
57621SOL    HW274761   5.598   7.296  13.712
57622SOL     OW74762   9.258  10.628   3.934
57622SOL    HW174763   9.182  10.580   3.900
57622SOL    HW274764   9.223  10.678   4.008
57623SOL     OW74765   7.636  11.802  11.832
57623SOL    HW174766   7.595  11.805  11.918
57623SOL    HW274767   7.718  11.851  11.843
57624SOL     OW74768   8.666   9.557  13.762
57624SOL    HW174769   8.624   9.636  13.731
57624SOL    HW274770   8.671   9.500  13.685
57625SOL     OW74771   3.396  13.250  12.258
57625SOL    HW174772   3.483  13.262  12.297
57625SOL    HW274773   3.388  13.155  12.247
57626SOL     OW74774   1.792   4.440   3.649
57626SOL    HW174775   1.765   4.513   3.594
57626SOL    HW274776   1.731   4.441   3.722
57627SOL     OW74777   6.852   5.035   6.961
57627SOL    HW174778   6.793   5.108   6.942
57627SOL    HW274779   6.887   5.054   7.048
57628SOL     OW74780  11.228   0.262   2.002
57628SOL    HW174781  11.263   0.274   1.914
57628SOL    HW274782  11.275   0.186   2.036
57629SOL     OW74783   6.336   7.561   9.414
57629SOL    HW174784   6.421   7.599   9.392
57629SOL    HW274785   6.345   7.467   9.396
57630SOL     OW74786   2.994   8.110  10.144
57630SOL    HW174787   3.023   8.035  10.195
57630SOL    HW274788   2.907   8.131  10.179
57631SOL     OW74789   3.885   8.738   9.186
57631SOL    HW174790   3.889   8.737   9.282
57631SOL    HW274791   3.845   8.654   9.163
57632SOL     OW74792  10.651   3.435  14.216
57632SOL    HW174793  10.743   3.462  14.213
57632SOL    HW274794  10.618   3.468  14.299
57633SOL     OW74795   2.249   5.615   5.535
57633SOL    HW174796   2.216   5.566   5.611
57633SOL    HW274797   2.307   5.682   5.573
57634SOL     OW74798   3.904   3.539   9.240
57634SOL    HW174799   3.931   3.617   9.289
57634SOL    HW274800   3.849   3.574   9.169
57635SOL     OW74801   1.267   3.596   9.905
57635SOL    HW174802   1.191   3.540   9.919
57635SOL    HW274803   1.337   3.556   9.956
57636SOL     OW74804  12.489   4.465   0.978
57636SOL    HW174805  12.448   4.379   0.967
57636SOL    HW274806  12.538   4.459   1.060
57637SOL     OW74807  14.532  13.464   7.297
57637SOL    HW174808  14.567  13.529   7.357
57637SOL    HW274809  14.452  13.433   7.341
57638SOL     OW74810   3.569   4.482  14.066
57638SOL    HW174811   3.571   4.423  13.990
57638SOL    HW274812   3.486   4.529  14.058
57639SOL     OW74813   2.390  11.079  14.496
57639SOL    HW174814   2.309  11.029  14.493
57639SOL    HW274815   2.362  11.169  14.512
57640SOL     OW74816  14.737   8.743   6.108
57640SOL    HW174817  14.747   8.738   6.013
57640SOL    HW274818  14.783   8.823   6.133
57641SOL     OW74819   8.420   0.274  13.430
57641SOL    HW174820   8.435   0.364  13.403
57641SOL    HW274821   8.488   0.256  13.495
57642SOL     OW74822   2.868  12.847   7.343
57642SOL    HW174823   2.777  12.826   7.364
57642SOL    HW274824   2.914  12.764   7.351
57643SOL     OW74825  11.076  10.089   3.568
57643SOL    HW174826  11.140  10.099   3.639
57643SOL    HW274827  11.014  10.160   3.582
57644SOL     OW74828  10.489  13.472   5.992
57644SOL    HW174829  10.474  13.473   6.087
57644SOL    HW274830  10.487  13.564   5.967
57645SOL     OW74831   2.245   0.937  10.722
57645SOL    HW174832   2.340   0.929  10.713
57645SOL    HW274833   2.210   0.857  10.684
57646SOL     OW74834  10.248  11.744  13.338
57646SOL    HW174835  10.238  11.839  13.333
57646SOL    HW274836  10.221  11.712  13.251
57647SOL     OW74837  11.792  13.957  12.796
57647SOL    HW174838  11.707  14.001  12.807
57647SOL    HW274839  11.773  13.881  12.741
57648SOL     OW74840   1.757   1.044  14.242
57648SOL    HW174841   1.833   1.036  14.301
57648SOL    HW274842   1.796   1.044  14.154
57649SOL     OW74843   8.928   4.548  14.139
57649SOL    HW174844   8.908   4.592  14.056
57649SOL    HW274845   9.002   4.596  14.174
57650SOL     OW74846   5.992  11.163   0.484
57650SOL    HW174847   6.046  11.090   0.514
57650SOL    HW274848   5.954  11.199   0.564
57651SOL     OW74849   1.322   9.509  13.925
57651SOL    HW174850   1.243   9.524  13.977
57651SOL    HW274851   1.376   9.586  13.940
57652SOL     OW74852   9.618   4.264   7.678
57652SOL    HW174853   9.559   4.319   7.729
57652SOL    HW274854   9.574   4.253   7.594
57653SOL     OW74855   1.855  13.200  11.912
57653SOL    HW174856   1.900  13.279  11.881
57653SOL    HW274857   1.922  13.150  11.957
57654SOL     OW74858  11.662   2.785  12.864
57654SOL    HW174859  11.731   2.852  12.857
57654SOL    HW274860  11.648   2.775  12.958
57655SOL     OW74861   0.975   2.410  11.859
57655SOL    HW174862   1.058   2.383  11.899
57655SOL    HW274863   0.912   2.407  11.932
57656SOL     OW74864   0.851   9.007   3.020
57656SOL    HW174865   0.941   9.039   3.013
57656SOL    HW274866   0.797   9.082   2.999
57657SOL     OW74867  12.243  13.275  13.656
57657SOL    HW174868  12.245  13.216  13.581
57657SOL    HW274869  12.174  13.240  13.712
57658SOL     OW74870  13.826  10.218  11.790
57658SOL    HW174871  13.828  10.200  11.696
57658SOL    HW274872  13.786  10.140  11.829
57659SOL     OW74873  13.597  13.562   8.614
57659SOL    HW174874  13.666  13.526   8.557
57659SOL    HW274875  13.520  13.568   8.557
57660SOL     OW74876   6.537  10.402   9.925
57660SOL    HW174877   6.552  10.319   9.970
57660SOL    HW274878   6.522  10.465   9.996
57661SOL     OW74879   4.422  11.787   8.971
57661SOL    HW174880   4.336  11.829   8.968
57661SOL    HW274881   4.431  11.744   8.886
57662SOL     OW74882  14.778  12.533  10.764
57662SOL    HW174883  14.826  12.493  10.836
57662SOL    HW274884  14.687  12.507  10.777
57663SOL     OW74885  11.386  10.857   3.003
57663SOL    HW174886  11.478  10.883   3.010
57663SOL    HW274887  11.367  10.864   2.909
57664SOL     OW74888  10.712   5.213   7.516
57664SOL    HW174889  10.701   5.268   7.594
57664SOL    HW274890  10.801   5.230   7.486
57665SOL     OW74891   2.020   0.893   0.613
57665SOL    HW174892   1.999   0.887   0.519
57665SOL    HW274893   1.935   0.904   0.655
57666SOL     OW74894   8.315   3.143   2.927
57666SOL    HW174895   8.323   3.078   2.996
57666SOL    HW274896   8.261   3.213   2.966
57667SOL     OW74897  13.420   4.334  12.905
57667SOL    HW174898  13.342   4.336  12.961
57667SOL    HW274899  13.443   4.426  12.892
57668SOL     OW74900   8.422   9.589   2.482
57668SOL    HW174901   8.335   9.628   2.476
57668SOL    HW274902   8.466   9.615   2.401
57669SOL     OW74903   3.364  10.856  13.944
57669SOL    HW174904   3.303  10.902  13.886
57669SOL    HW274905   3.355  10.764  13.920
57670SOL     OW74906  11.962   0.225   4.730
57670SOL    HW174907  11.874   0.258   4.748
57670SOL    HW274908  12.003   0.217   4.817
57671SOL     OW74909   2.225   2.459   1.500
57671SOL    HW174910   2.271   2.535   1.538
57671SOL    HW274911   2.205   2.403   1.575
57672SOL     OW74912  11.877  10.182   2.038
57672SOL    HW174913  11.834  10.182   2.123
57672SOL    HW274914  11.884  10.089   2.015
57673SOL     OW74915   0.498   7.236   0.085
57673SOL    HW174916   0.478   7.154   0.130
57673SOL    HW274917   0.560   7.280   0.142
57674SOL     OW74918   6.810   1.353   6.575
57674SOL    HW174919   6.830   1.342   6.482
57674SOL    HW274920   6.889   1.324   6.621
57675SOL     OW74921  10.027   2.278  10.320
57675SOL    HW174922  10.097   2.331  10.283
57675SOL    HW274923   9.946   2.317  10.287
57676SOL     OW74924   6.713   2.705  12.574
57676SOL    HW174925   6.793   2.756  12.564
57676SOL    HW274926   6.743   2.619  12.604
57677SOL     OW74927   5.111   3.293   4.566
57677SOL    HW174928   5.122   3.203   4.594
57677SOL    HW274929   5.092   3.342   4.646
57678SOL     OW74930  13.761   3.465  12.053
57678SOL    HW174931  13.761   3.396  11.987
57678SOL    HW274932  13.847   3.458  12.095
57679SOL     OW74933   9.287  11.556   7.572
57679SOL    HW174934   9.221  11.588   7.634
57679SOL    HW274935   9.258  11.589   7.487
57680SOL     OW74936   1.962  12.449   7.824
57680SOL    HW174937   1.917  12.513   7.769
57680SOL    HW274938   1.893  12.398   7.865
57681SOL     OW74939   1.412   3.613   5.840
57681SOL    HW174940   1.389   3.703   5.818
57681SOL    HW274941   1.481   3.621   5.906
57682SOL     OW74942  10.902   6.711  10.460
57682SOL    HW174943  10.984   6.758  10.475
57682SOL    HW274944  10.834   6.773  10.485
57683SOL     OW74945   2.425   1.073  14.565
57683SOL    HW174946   2.440   1.027  14.648
57683SOL    HW274947   2.348   1.030  14.528
57684SOL     OW74948   8.112   6.161   0.981
57684SOL    HW174949   8.162   6.218   0.922
57684SOL    HW274950   8.153   6.173   1.066
57685SOL     OW74951   5.145   1.747   2.460
57685SOL    HW174952   5.185   1.826   2.494
57685SOL    HW274953   5.219   1.693   2.431
57686SOL     OW74954   7.665   9.296   6.330
57686SOL    HW174955   7.709   9.220   6.368
57686SOL    HW274956   7.736   9.358   6.313
57687SOL     OW74957  10.581  12.994   1.387
57687SOL    HW174958  10.664  12.959   1.417
57687SOL    HW274959  10.524  12.918   1.376
57688SOL     OW74960   3.077   6.684   7.958
57688SOL    HW174961   3.098   6.724   8.042
57688SOL    HW274962   3.024   6.749   7.912
57689SOL     OW74963  14.630   6.858   5.683
57689SOL    HW174964  14.592   6.903   5.759
57689SOL    HW274965  14.584   6.897   5.608
57690SOL     OW74966  10.940  13.613   5.926
57690SOL    HW174967  10.856  13.643   5.890
57690SOL    HW274968  10.921  13.594   6.018
57691SOL     OW74969  12.855  14.078   2.618
57691SOL    HW174970  12.826  14.057   2.707
57691SOL    HW274971  12.945  14.108   2.629
57692SOL     OW74972  13.935   2.292   8.520
57692SOL    HW174973  13.919   2.285   8.426
57692SOL    HW274974  13.895   2.376   8.544
57693SOL     OW74975   7.626  13.424   5.302
57693SOL    HW174976   7.699  13.480   5.327
57693SOL    HW274977   7.665  13.337   5.292
57694SOL     OW74978   1.384   4.308  13.731
57694SOL    HW174979   1.341   4.224  13.713
57694SOL    HW274980   1.458   4.311  13.669
57695SOL     OW74981  12.453   5.463  13.512
57695SOL    HW174982  12.520   5.438  13.448
57695SOL    HW274983  12.499   5.465  13.596
57696SOL     OW74984   1.727  14.550  14.175
57696SOL    HW174985   1.692  14.486  14.114
57696SOL    HW274986   1.727  14.632  14.126
57697SOL     OW74987   2.396   9.303   6.334
57697SOL    HW174988   2.454   9.263   6.270
57697SOL    HW274989   2.308   9.285   6.301
57698SOL     OW74990   1.872  13.882   1.843
57698SOL    HW174991   1.898  13.974   1.842
57698SOL    HW274992   1.952  13.835   1.867
57699SOL     OW74993  14.793  10.092   0.648
57699SOL    HW174994  14.887  10.077   0.654
57699SOL    HW274995  14.753  10.010   0.676
57700SOL     OW74996   4.528   8.368  14.096
57700SOL    HW174997   4.621   8.351  14.082
57700SOL    HW274998   4.484   8.309  14.034
57701SOL     OW74999   6.887  12.980  10.184
57701SOL    HW175000   6.845  12.960  10.100
57701SOL    HW275001   6.974  13.012  10.161
57702SOL     OW75002   7.306   7.322   2.607
57702SOL    HW175003   7.372   7.354   2.668
57702SOL    HW275004   7.339   7.236   2.579
57703SOL     OW75005   1.011  12.773   4.278
57703SOL    HW175006   0.937  12.804   4.226
57703SOL    HW275007   1.038  12.692   4.235
57704SOL     OW75008   6.753  12.106   9.204
57704SOL    HW175009   6.702  12.165   9.149
57704SOL    HW275010   6.716  12.020   9.188
57705SOL     OW75011   5.134  11.643  10.203
57705SOL    HW175012   5.229  11.655  10.204
57705SOL    HW275013   5.116  11.585  10.277
57706SOL     OW75014   3.532   9.550  14.015
57706SOL    HW175015   3.534   9.570  13.922
57706SOL    HW275016   3.489   9.465  14.020
57707SOL     OW75017   2.854   2.205  12.797
57707SOL    HW175018   2.877   2.180  12.708
57707SOL    HW275019   2.929   2.255  12.829
57708SOL     OW75020   4.083   7.457   1.569
57708SOL    HW175021   4.016   7.514   1.530
57708SOL    HW275022   4.045   7.370   1.569
57709SOL     OW75023  14.881   2.425   0.950
57709SOL    HW175024   0.006   2.365   0.876
57709SOL    HW275025   0.069   2.484   0.946
57710SOL     OW75026  14.486   3.680   1.932
57710SOL    HW175027  14.395   3.673   1.903
57710SOL    HW275028  14.500   3.774   1.943
57711SOL     OW75029  10.678  11.624  12.372
57711SOL    HW175030  10.598  11.588  12.334
57711SOL    HW275031  10.659  11.630  12.466
57712SOL     OW75032  11.915   2.977  10.491
57712SOL    HW175033  11.941   3.007  10.404
57712SOL    HW275034  11.982   2.913  10.515
57713SOL     OW75035   0.169   4.842   8.264
57713SOL    HW175036   0.216   4.924   8.251
57713SOL    HW275037   0.082   4.868   8.295
57714SOL     OW75038   3.110  13.262   5.480
57714SOL    HW175039   3.127  13.299   5.394
57714SOL    HW275040   3.169  13.309   5.539
57715SOL     OW75041   5.918  11.195   5.424
57715SOL    HW175042   5.977  11.173   5.496
57715SOL    HW275043   5.930  11.124   5.361
57716SOL     OW75044   9.572   5.782  13.330
57716SOL    HW175045   9.635   5.854  13.322
57716SOL    HW275046   9.492   5.824  13.363
57717SOL     OW75047   6.272  14.865  10.785
57717SOL    HW175048   6.271  14.845  10.692
57717SOL    HW275049   6.334  14.803  10.823
57718SOL     OW75050   5.079   3.183  10.628
57718SOL    HW175051   5.028   3.136  10.694
57718SOL    HW275052   5.093   3.270  10.667
57719SOL     OW75053   9.605   7.008   3.803
57719SOL    HW175054   9.515   7.020   3.772
57719SOL    HW275055   9.658   7.063   3.745
57720SOL     OW75056  10.927  12.630  12.436
57720SOL    HW175057  10.907  12.615  12.344
57720SOL    HW275058  11.010  12.679  12.435
57721SOL     OW75059   4.383   5.512  13.248
57721SOL    HW175060   4.299   5.518  13.202
57721SOL    HW275061   4.442   5.568  13.197
57722SOL     OW75062   1.931   4.449   9.436
57722SOL    HW175063   1.965   4.509   9.502
57722SOL    HW275064   1.906   4.505   9.363
57723SOL     OW75065  14.053   8.307   8.305
57723SOL    HW175066  14.129   8.353   8.340
57723SOL    HW275067  14.027   8.247   8.375
57724SOL     OW75068  11.623   6.753   5.117
57724SOL    HW175069  11.625   6.833   5.169
57724SOL    HW275070  11.536   6.751   5.078
57725SOL     OW75071  11.219  10.976   0.145
57725SOL    HW175072  11.263  10.909   0.094
57725SOL    HW275073  11.286  11.007   0.207
57726SOL     OW75074   1.182   9.571   4.589
57726SOL    HW175075   1.155   9.543   4.676
57726SOL    HW275076   1.277   9.571   4.591
57727SOL     OW75077  11.910  13.926   9.603
57727SOL    HW175078  11.838  13.935   9.665
57727SOL    HW275079  11.976  13.875   9.649
57728SOL     OW75080   9.303  11.951  11.229
57728SOL    HW175081   9.358  11.942  11.150
57728SOL    HW275082   9.365  11.939  11.302
57729SOL     OW75083   6.633   5.748  10.994
57729SOL    HW175084   6.555   5.706  10.958
57729SOL    HW275085   6.613   5.841  10.995
57730SOL     OW75086  12.915   6.856  10.731
57730SOL    HW175087  12.940   6.947  10.749
57730SOL    HW275088  12.957   6.836  10.647
57731SOL     OW75089  11.855   4.306   6.570
57731SOL    HW175090  11.842   4.211   6.573
57731SOL    HW275091  11.826   4.336   6.656
57732SOL     OW75092   8.729   5.243   3.462
57732SOL    HW175093   8.641   5.266   3.492
57732SOL    HW275094   8.787   5.297   3.515
57733SOL     OW75095   3.030  12.304   9.684
57733SOL    HW175096   3.000  12.308   9.593
57733SOL    HW275097   3.049  12.212   9.699
57734SOL     OW75098   0.868   1.795   0.065
57734SOL    HW175099   0.834   1.745  14.878
57734SOL    HW275100   0.938   1.740   0.101
57735SOL     OW75101   3.412   9.976   3.530
57735SOL    HW175102   3.318   9.970   3.516
57735SOL    HW275103   3.421  10.024   3.612
57736SOL     OW75104   1.021  14.292   8.627
57736SOL    HW175105   1.062  14.289   8.713
57736SOL    HW275106   1.045  14.209   8.586
57737SOL     OW75107  12.364   2.815  10.718
57737SOL    HW175108  12.385   2.798  10.809
57737SOL    HW275109  12.371   2.730  10.675
57738SOL     OW75110   3.299   0.089   7.887
57738SOL    HW175111   3.267   0.105   7.798
57738SOL    HW275112   3.219   0.090   7.941
57739SOL     OW75113   5.113  13.013   0.401
57739SOL    HW175114   5.034  12.962   0.417
57739SOL    HW275115   5.124  13.065   0.481
57740SOL     OW75116  11.603   3.412  11.920
57740SOL    HW175117  11.558   3.328  11.918
57740SOL    HW275118  11.540   3.474  11.881
57741SOL     OW75119   5.297  10.618   4.510
57741SOL    HW175120   5.304  10.540   4.455
57741SOL    HW275121   5.217  10.662   4.480
57742SOL     OW75122   3.295  10.170   5.280
57742SOL    HW175123   3.236  10.111   5.233
57742SOL    HW275124   3.347  10.211   5.211
57743SOL     OW75125   4.314   6.714   5.342
57743SOL    HW175126   4.265   6.657   5.282
57743SOL    HW275127   4.285   6.687   5.429
57744SOL     OW75128   8.717   5.338  11.109
57744SOL    HW175129   8.786   5.402  11.129
57744SOL    HW275130   8.638   5.374  11.149
57745SOL     OW75131   5.544   4.592   3.050
57745SOL    HW175132   5.627   4.587   3.098
57745SOL    HW275133   5.477   4.589   3.118
57746SOL     OW75134  11.182   4.564   6.319
57746SOL    HW175135  11.223   4.488   6.278
57746SOL    HW275136  11.125   4.528   6.386
57747SOL     OW75137   4.613  11.032  10.469
57747SOL    HW175138   4.650  11.039  10.557
57747SOL    HW275139   4.565  10.949  10.470
57748SOL     OW75140   6.405   3.790   2.824
57748SOL    HW175141   6.330   3.742   2.862
57748SOL    HW275142   6.442   3.729   2.761
57749SOL     OW75143   3.861   0.631   6.148
57749SOL    HW175144   3.786   0.572   6.144
57749SOL    HW275145   3.825   0.712   6.185
57750SOL     OW75146   3.335  14.428  14.852
57750SOL    HW175147   3.407  14.490  14.838
57750SOL    HW275148   3.275  14.475   0.024
57751SOL     OW75149   8.745   4.057   8.166
57751SOL    HW175150   8.692   3.981   8.190
57751SOL    HW275151   8.834   4.034   8.194
57752SOL     OW75152   5.204  13.343  13.439
57752SOL    HW175153   5.163  13.389  13.513
57752SOL    HW275154   5.260  13.277  13.480
57753SOL     OW75155  12.195   0.287   4.904
57753SOL    HW175156  12.232   0.376   4.896
57753SOL    HW275157  12.197   0.252   4.815
57754SOL     OW75158  14.868  14.406   6.073
57754SOL    HW175159   0.072  14.404   6.044
57754SOL    HW275160  14.818  14.422   5.993
57755SOL     OW75161  11.619   0.033   0.316
57755SOL    HW175162  11.579   0.036   0.229
57755SOL    HW275163  11.606  14.830   0.345
57756SOL     OW75164   8.550   0.740   3.867
57756SOL    HW175165   8.580   0.764   3.780
57756SOL    HW275166   8.462   0.778   3.874
57757SOL     OW75167   5.357   4.133   4.904
57757SOL    HW175168   5.310   4.051   4.919
57757SOL    HW275169   5.446   4.107   4.882
57758SOL     OW75170   1.664   0.742   3.811
57758SOL    HW175171   1.695   0.695   3.888
57758SOL    HW275172   1.689   0.687   3.737
57759SOL     OW75173  11.633   4.080   3.523
57759SOL    HW175174  11.639   3.997   3.475
57759SOL    HW275175  11.717   4.088   3.568
57760SOL     OW75176  10.902   8.950  13.484
57760SOL    HW175177  10.877   8.963  13.576
57760SOL    HW275178  10.995   8.972  13.481
57761SOL     OW75179   6.922   6.837  11.781
57761SOL    HW175180   6.987   6.783  11.737
57761SOL    HW275181   6.852   6.776  11.804
57762SOL     OW75182  14.560  10.945  14.476
57762SOL    HW175183  14.482  10.988  14.510
57762SOL    HW275184  14.631  11.005  14.497
57763SOL     OW75185  14.338   5.287   9.162
57763SOL    HW175186  14.411   5.229   9.188
57763SOL    HW275187  14.362   5.372   9.197
57764SOL     OW75188  11.527  10.212   0.530
57764SOL    HW175189  11.574  10.188   0.451
57764SOL    HW275190  11.519  10.130   0.579
57765SOL     OW75191   1.057   1.974   3.123
57765SOL    HW175192   1.132   1.956   3.066
57765SOL    HW275193   1.060   1.903   3.188
57766SOL     OW75194  13.093   6.149   8.421
57766SOL    HW175195  13.166   6.114   8.370
57766SOL    HW275196  13.088   6.092   8.498
57767SOL     OW75197   2.892   5.019  11.680
57767SOL    HW175198   2.939   4.936  11.686
57767SOL    HW275199   2.847   5.028  11.763
57768SOL     OW75200   9.694   8.151   5.751
57768SOL    HW175201   9.732   8.207   5.819
57768SOL    HW275202   9.743   8.172   5.672
57769SOL     OW75203   0.873   8.525   6.080
57769SOL    HW175204   0.913   8.448   6.122
57769SOL    HW275205   0.805   8.488   6.023
57770SOL     OW75206   6.296   6.779  13.928
57770SOL    HW175207   6.322   6.759  13.838
57770SOL    HW275208   6.351   6.854  13.953
57771SOL     OW75209   4.795   3.584   1.091
57771SOL    HW175210   4.797   3.491   1.068
57771SOL    HW275211   4.708   3.597   1.128
57772SOL     OW75212   6.848   2.356  10.044
57772SOL    HW175213   6.881   2.277  10.087
57772SOL    HW275214   6.905   2.426  10.077
57773SOL     OW75215   7.485  10.648   6.220
57773SOL    HW175216   7.524  10.585   6.281
57773SOL    HW275217   7.417  10.599   6.175
57774SOL     OW75218   1.020   4.394   8.364
57774SOL    HW175219   1.007   4.403   8.269
57774SOL    HW275220   0.953   4.332   8.391
57775SOL     OW75221  11.023   5.846  10.049
57775SOL    HW175222  10.934   5.810  10.054
57775SOL    HW275223  11.080   5.770  10.053
57776SOL     OW75224   2.563   2.276   8.890
57776SOL    HW175225   2.584   2.211   8.957
57776SOL    HW275226   2.473   2.256   8.864
57777SOL     OW75227  12.645   7.414  10.094
57777SOL    HW175228  12.626   7.395  10.001
57777SOL    HW275229  12.597   7.346  10.141
57778SOL     OW75230   9.469   5.848  12.120
57778SOL    HW175231   9.531   5.844  12.194
57778SOL    HW275232   9.524   5.867  12.044
57779SOL     OW75233   8.159   3.131   3.872
57779SOL    HW175234   8.225   3.118   3.804
57779SOL    HW275235   8.081   3.086   3.839
57780SOL     OW75236   1.273   0.561   4.790
57780SOL    HW175237   1.287   0.468   4.773
57780SOL    HW275238   1.180   0.576   4.769
57781SOL     OW75239  13.078   9.358   1.224
57781SOL    HW175240  13.085   9.277   1.174
57781SOL    HW275241  13.076   9.427   1.158
57782SOL     OW75242   6.372   6.522   4.242
57782SOL    HW175243   6.308   6.563   4.183
57782SOL    HW275244   6.352   6.429   4.238
57783SOL     OW75245  14.040   6.803   3.339
57783SOL    HW175246  14.050   6.829   3.247
57783SOL    HW275247  13.972   6.861   3.373
57784SOL     OW75248  11.389  11.568   5.974
57784SOL    HW175249  11.356  11.497   6.030
57784SOL    HW275250  11.318  11.583   5.911
57785SOL     OW75251  12.860   4.316   1.778
57785SOL    HW175252  12.868   4.410   1.792
57785SOL    HW275253  12.939   4.278   1.817
57786SOL     OW75254   7.867  11.331   5.015
57786SOL    HW175255   7.784  11.291   5.041
57786SOL    HW275256   7.890  11.286   4.933
57787SOL     OW75257   8.407   7.507  12.335
57787SOL    HW175258   8.362   7.590  12.316
57787SOL    HW275259   8.427   7.511  12.429
57788SOL     OW75260  12.347   5.838  13.691
57788SOL    HW175261  12.320   5.890  13.767
57788SOL    HW275262  12.297   5.874  13.618
57789SOL     OW75263   2.559   0.002   7.369
57789SOL    HW175264   2.563  14.820   7.435
57789SOL    HW275265   2.466   0.019   7.357
57790SOL     OW75266   1.522  13.186   9.348
57790SOL    HW175267   1.426  13.191   9.346
57790SOL    HW275268   1.551  13.276   9.335
57791SOL     OW75269   7.906   2.860   0.046
57791SOL    HW175270   7.899   2.855   0.142
57791SOL    HW275271   7.979   2.921   0.031
57792SOL     OW75272   9.564   1.055   5.012
57792SOL    HW175273   9.564   0.976   4.959
57792SOL    HW275274   9.519   1.029   5.093
57793SOL     OW75275  12.982  13.513   1.297
57793SOL    HW175276  12.968  13.462   1.217
57793SOL    HW275277  12.951  13.601   1.276
57794SOL     OW75278   1.892   4.874   1.290
57794SOL    HW175279   1.914   4.954   1.242
57794SOL    HW275280   1.958   4.811   1.264
57795SOL     OW75281   1.694  12.256   9.762
57795SOL    HW175282   1.734  12.188   9.816
57795SOL    HW275283   1.697  12.222   9.673
57796SOL     OW75284   8.097   2.550   2.619
57796SOL    HW175285   8.041   2.473   2.612
57796SOL    HW275286   8.175   2.528   2.569
57797SOL     OW75287   4.300  10.828  11.788
57797SOL    HW175288   4.279  10.844  11.880
57797SOL    HW275289   4.378  10.880  11.771
57798SOL     OW75290   5.960   2.236  12.096
57798SOL    HW175291   6.002   2.314  12.131
57798SOL    HW275292   5.951   2.253  12.002
57799SOL     OW75293   9.055  12.344  12.864
57799SOL    HW175294   8.972  12.298  12.865
57799SOL    HW275295   9.091  12.332  12.952
57800SOL     OW75296   1.877   2.742   8.662
57800SOL    HW175297   1.812   2.682   8.699
57800SOL    HW275298   1.921   2.781   8.738
57801SOL     OW75299  12.136   3.417   7.125
57801SOL    HW175300  12.154   3.415   7.218
57801SOL    HW275301  12.210   3.372   7.084
57802SOL     OW75302   5.964   8.886   3.019
57802SOL    HW175303   5.897   8.947   3.049
57802SOL    HW275304   5.915   8.814   2.979
57803SOL     OW75305   7.220   1.705   4.941
57803SOL    HW175306   7.199   1.782   4.889
57803SOL    HW275307   7.139   1.682   4.986
57804SOL     OW75308  12.379  10.337   0.022
57804SOL    HW175309  12.308  10.273   0.027
57804SOL    HW275310  12.458  10.287   0.044
57805SOL     OW75311   8.287   1.302  13.737
57805SOL    HW175312   8.282   1.236  13.806
57805SOL    HW275313   8.249   1.259  13.660
57806SOL     OW75314  11.787   9.396   6.750
57806SOL    HW175315  11.863   9.421   6.804
57806SOL    HW275316  11.765   9.308   6.779
57807SOL     OW75317   0.474  13.763  13.420
57807SOL    HW175318   0.499  13.827  13.486
57807SOL    HW275319   0.412  13.809  13.363
57808SOL     OW75320   0.809  10.915   8.782
57808SOL    HW175321   0.841  10.825   8.775
57808SOL    HW275322   0.741  10.912   8.849
57809SOL     OW75323  10.898   3.874   5.736
57809SOL    HW175324  10.830   3.812   5.761
57809SOL    HW275325  10.857   3.929   5.669
57810SOL     OW75326   8.497   3.188   6.864
57810SOL    HW175327   8.586   3.154   6.849
57810SOL    HW275328   8.499   3.223   6.952
57811SOL     OW75329   7.794  12.304   0.602
57811SOL    HW175330   7.786  12.385   0.651
57811SOL    HW275331   7.819  12.239   0.668
57812SOL     OW75332   1.251   1.238   1.379
57812SOL    HW175333   1.169   1.243   1.428
57812SOL    HW275334   1.300   1.317   1.405
57813SOL     OW75335   3.850   8.987  13.210
57813SOL    HW175336   3.863   8.919  13.144
57813SOL    HW275337   3.934   9.033  13.213
57814SOL     OW75338   5.233   4.271   9.478
57814SOL    HW175339   5.141   4.247   9.468
57814SOL    HW275340   5.259   4.232   9.562
57815SOL     OW75341  11.926   8.239   7.626
57815SOL    HW175342  11.861   8.296   7.586
57815SOL    HW275343  11.883   8.154   7.634
57816SOL     OW75344   1.276   9.567   7.316
57816SOL    HW175345   1.299   9.659   7.328
57816SOL    HW275346   1.195   9.569   7.265
57817SOL     OW75347   1.298   5.937  14.826
57817SOL    HW175348   1.225   5.946  14.766
57817SOL    HW275349   1.281   6.002   0.007
57818SOL     OW75350   6.072  12.113   4.601
57818SOL    HW175351   6.148  12.063   4.572
57818SOL    HW275352   6.033  12.147   4.521
57819SOL     OW75353  12.364   1.203  13.084
57819SOL    HW175354  12.334   1.289  13.053
57819SOL    HW275355  12.312   1.140  13.034
57820SOL     OW75356  11.618   2.349   7.450
57820SOL    HW175357  11.631   2.347   7.545
57820SOL    HW275358  11.603   2.257   7.427
57821SOL     OW75359   2.276   4.467  10.145
57821SOL    HW175360   2.260   4.529  10.075
57821SOL    HW275361   2.336   4.513  10.205
57822SOL     OW75362   8.312   6.304   0.372
57822SOL    HW175363   8.273   6.341   0.452
57822SOL    HW275364   8.404   6.290   0.395
57823SOL     OW75365  13.655   5.268   9.115
57823SOL    HW175366  13.706   5.219   9.051
57823SOL    HW275367  13.720   5.320   9.163
57824SOL     OW75368   5.169   9.284   7.030
57824SOL    HW175369   5.161   9.368   6.984
57824SOL    HW275370   5.263   9.267   7.032
57825SOL     OW75371   6.716   3.868   0.433
57825SOL    HW175372   6.804   3.903   0.420
57825SOL    HW275373   6.689   3.840   0.345
57826SOL     OW75374  10.999  13.196   7.973
57826SOL    HW175375  10.991  13.246   7.892
57826SOL    HW275376  10.917  13.212   8.019
57827SOL     OW75377   1.451   0.153   8.713
57827SOL    HW175378   1.442   0.235   8.761
57827SOL    HW275379   1.366   0.111   8.723
57828SOL     OW75380   7.148  14.563   3.796
57828SOL    HW175381   7.094  14.622   3.742
57828SOL    HW275382   7.096  14.484   3.804
57829SOL     OW75383   4.258   6.918   9.419
57829SOL    HW175384   4.241   6.860   9.493
57829SOL    HW275385   4.345   6.894   9.389
57830SOL     OW75386   2.913  10.744  12.262
57830SOL    HW175387   2.943  10.809  12.198
57830SOL    HW275388   2.955  10.663  12.235
57831SOL     OW75389  13.328  10.597  12.749
57831SOL    HW175390  13.406  10.542  12.752
57831SOL    HW275391  13.289  10.579  12.663
57832SOL     OW75392   0.069   0.896  14.724
57832SOL    HW175393   0.101   0.983  14.698
57832SOL    HW275394   0.097   0.838  14.653
57833SOL     OW75395   1.404   8.562   5.904
57833SOL    HW175396   1.438   8.532   5.819
57833SOL    HW275397   1.336   8.625   5.881
57834SOL     OW75398   7.464  13.217   4.737
57834SOL    HW175399   7.520  13.196   4.812
57834SOL    HW275400   7.477  13.311   4.724
57835SOL     OW75401  11.249  10.791   8.401
57835SOL    HW175402  11.288  10.725   8.459
57835SOL    HW275403  11.164  10.753   8.375
57836SOL     OW75404  12.557   2.722   1.430
57836SOL    HW175405  12.483   2.768   1.470
57836SOL    HW275406  12.533   2.714   1.338
57837SOL     OW75407   7.838   3.490  11.761
57837SOL    HW175408   7.802   3.488  11.850
57837SOL    HW275409   7.794   3.565  11.719
57838SOL     OW75410  13.283  13.485  14.350
57838SOL    HW175411  13.246  13.401  14.324
57838SOL    HW275412  13.208  13.544  14.356
57839SOL     OW75413   1.931   8.575  13.298
57839SOL    HW175414   1.840   8.578  13.329
57839SOL    HW275415   1.976   8.522  13.364
57840SOL     OW75416   9.726   5.152   1.389
57840SOL    HW175417   9.803   5.126   1.338
57840SOL    HW275418   9.670   5.198   1.326
57841SOL     OW75419   9.775  10.376   3.122
57841SOL    HW175420   9.852  10.426   3.096
57841SOL    HW275421   9.792  10.288   3.088
57842SOL     OW75422   0.581  14.625   1.384
57842SOL    HW175423   0.506  14.585   1.340
57842SOL    HW275424   0.572  14.718   1.366
57843SOL     OW75425   8.562  10.439   1.519
57843SOL    HW175426   8.636  10.391   1.481
57843SOL    HW275427   8.562  10.523   1.473
57844SOL     OW75428  10.669   2.399   9.872
57844SOL    HW175429  10.693   2.356   9.954
57844SOL    HW275430  10.641   2.487   9.898
57845SOL     OW75431   7.624   3.950   3.493
57845SOL    HW175432   7.670   3.895   3.429
57845SOL    HW275433   7.568   4.007   3.439
57846SOL     OW75434   2.821   6.427   9.363
57846SOL    HW175435   2.824   6.334   9.344
57846SOL    HW275436   2.876   6.468   9.296
57847SOL     OW75437   2.075   0.484  13.495
57847SOL    HW175438   2.170   0.487  13.510
57847SOL    HW275439   2.037   0.484  13.582
57848SOL     OW75440   6.118  13.933  12.069
57848SOL    HW175441   6.073  13.987  12.134
57848SOL    HW275442   6.066  13.943  11.989
57849SOL     OW75443   6.008   8.492  11.781
57849SOL    HW175444   6.081   8.453  11.830
57849SOL    HW275445   5.947   8.420  11.767
57850SOL     OW75446  11.745   3.449   4.927
57850SOL    HW175447  11.756   3.532   4.881
57850SOL    HW275448  11.683   3.399   4.873
57851SOL     OW75449   4.404   7.359   6.321
57851SOL    HW175450   4.411   7.325   6.410
57851SOL    HW275451   4.467   7.306   6.270
57852SOL     OW75452   6.286   7.610  14.200
57852SOL    HW175453   6.380   7.595  14.212
57852SOL    HW275454   6.258   7.647  14.284
57853SOL     OW75455   0.665   1.143   8.293
57853SOL    HW175456   0.658   1.092   8.374
57853SOL    HW275457   0.621   1.090   8.227
57854SOL     OW75458   2.975   1.948   3.965
57854SOL    HW175459   2.988   1.894   3.887
57854SOL    HW275460   2.957   1.886   4.035
57855SOL     OW75461   1.344   7.707   8.999
57855SOL    HW175462   1.274   7.731   8.939
57855SOL    HW275463   1.412   7.670   8.943
57856SOL     OW75464   5.626   6.218   2.524
57856SOL    HW175465   5.664   6.273   2.457
57856SOL    HW275466   5.535   6.247   2.530
57857SOL     OW75467  10.431  13.443  13.189
57857SOL    HW175468  10.376  13.430  13.266
57857SOL    HW275469  10.410  13.532  13.159
57858SOL     OW75470   2.372  10.802  13.818
57858SOL    HW175471   2.374  10.708  13.839
57858SOL    HW275472   2.464  10.829  13.823
57859SOL     OW75473   5.163   3.208   0.455
57859SOL    HW175474   5.089   3.259   0.488
57859SOL    HW275475   5.240   3.248   0.497
57860SOL     OW75476   2.896  10.450  13.565
57860SOL    HW175477   2.991  10.455  13.574
57860SOL    HW275478   2.880  10.473  13.474
57861SOL     OW75479   5.188  14.759   2.324
57861SOL    HW175480   5.229  14.793   2.404
57861SOL    HW275481   5.126  14.692   2.355
57862SOL     OW75482   8.063   4.540   2.431
57862SOL    HW175483   8.144   4.569   2.471
57862SOL    HW275484   8.090   4.486   2.357
57863SOL     OW75485   6.986   2.344  12.426
57863SOL    HW175486   6.994   2.439  12.429
57863SOL    HW275487   6.996   2.322  12.333
57864SOL     OW75488   6.346  13.234   7.817
57864SOL    HW175489   6.375  13.151   7.780
57864SOL    HW275490   6.280  13.267   7.755
57865SOL     OW75491   8.285   5.273   2.729
57865SOL    HW175492   8.287   5.252   2.823
57865SOL    HW275493   8.374   5.298   2.708
57866SOL     OW75494   6.347   8.163   3.309
57866SOL    HW175495   6.350   8.126   3.221
57866SOL    HW275496   6.380   8.094   3.366
57867SOL     OW75497  14.548   3.621  14.494
57867SOL    HW175498  14.516   3.694  14.441
57867SOL    HW275499  14.634   3.600  14.457
57868SOL     OW75500   3.505   1.091   3.924
57868SOL    HW175501   3.536   1.171   3.968
57868SOL    HW275502   3.410   1.096   3.929
57869SOL     OW75503  11.610   2.297   1.785
57869SOL    HW175504  11.690   2.298   1.733
57869SOL    HW275505  11.633   2.341   1.866
57870SOL     OW75506   0.904   1.844   3.359
57870SOL    HW175507   0.875   1.914   3.300
57870SOL    HW275508   0.856   1.861   3.440
57871SOL     OW75509   6.615  10.136   2.098
57871SOL    HW175510   6.600  10.063   2.158
57871SOL    HW275511   6.669  10.099   2.029
57872SOL     OW75512   9.235   5.215   7.004
57872SOL    HW175513   9.229   5.130   7.046
57872SOL    HW275514   9.298   5.264   7.057
57873SOL     OW75515   8.128  14.480   0.611
57873SOL    HW175516   8.129  14.408   0.674
57873SOL    HW275517   8.069  14.451   0.541
57874SOL     OW75518  11.224  14.690   9.957
57874SOL    HW175519  11.142  14.651   9.926
57874SOL    HW275520  11.269  14.619  10.002
57875SOL     OW75521   1.742  10.437   3.296
57875SOL    HW175522   1.770  10.435   3.387
57875SOL    HW275523   1.768  10.523   3.264
57876SOL     OW75524   3.290   9.151  13.360
57876SOL    HW175525   3.252   9.087  13.300
57876SOL    HW275526   3.215   9.191  13.403
57877SOL     OW75527   5.169   5.911   0.181
57877SOL    HW175528   5.261   5.914   0.207
57877SOL    HW275529   5.171   5.908   0.085
57878SOL     OW75530   7.709   2.536  12.438
57878SOL    HW175531   7.759   2.573  12.365
57878SOL    HW275532   7.626   2.509  12.400
57879SOL     OW75533   6.035   7.816   3.875
57879SOL    HW175534   6.030   7.761   3.797
57879SOL    HW275535   5.958   7.790   3.927
57880SOL     OW75536  13.256   5.898  13.189
57880SOL    HW175537  13.204   5.841  13.245
57880SOL    HW275538  13.324   5.841  13.153
57881SOL     OW75539  10.071   2.055  14.186
57881SOL    HW175540  10.070   2.005  14.105
57881SOL    HW275541   9.983   2.044  14.222
57882SOL     OW75542  14.821   2.575   4.413
57882SOL    HW175543  14.752   2.544   4.354
57882SOL    HW275544  14.796   2.541   4.499
57883SOL     OW75545  10.714   4.931  12.582
57883SOL    HW175546  10.785   4.890  12.533
57883SOL    HW275547  10.724   4.899  12.672
57884SOL     OW75548   5.174  13.702   4.143
57884SOL    HW175549   5.219  13.780   4.177
57884SOL    HW275550   5.187  13.707   4.048
57885SOL     OW75551  14.192  13.413   5.483
57885SOL    HW175552  14.160  13.377   5.400
57885SOL    HW275553  14.180  13.343   5.547
57886SOL     OW75554   3.684   4.661  10.426
57886SOL    HW175555   3.696   4.650  10.520
57886SOL    HW275556   3.657   4.575  10.395
57887SOL     OW75557   4.324   6.187  12.769
57887SOL    HW175558   4.320   6.224  12.681
57887SOL    HW275559   4.233   6.168  12.792
57888SOL     OW75560  10.465  11.192  11.137
57888SOL    HW175561  10.482  11.127  11.205
57888SOL    HW275562  10.381  11.167  11.100
57889SOL     OW75563   1.712   0.492  14.619
57889SOL    HW175564   1.791   0.506  14.567
57889SOL    HW275565   1.699   0.576  14.664
57890SOL     OW75566   8.803   3.410   0.109
57890SOL    HW175567   8.882   3.424   0.058
57890SOL    HW275568   8.822   3.448   0.195
57891SOL     OW75569  13.100   2.314   1.351
57891SOL    HW175570  13.105   2.234   1.299
57891SOL    HW275571  13.009   2.343   1.342
57892SOL     OW75572   8.831   5.499  13.362
57892SOL    HW175573   8.921   5.470  13.346
57892SOL    HW275574   8.827   5.514  13.456
57893SOL     OW75575   1.768  12.228   8.697
57893SOL    HW175576   1.740  12.183   8.776
57893SOL    HW275577   1.864  12.220   8.697
57894SOL     OW75578   7.593   5.622   7.096
57894SOL    HW175579   7.612   5.689   7.031
57894SOL    HW275580   7.505   5.644   7.128
57895SOL     OW75581   1.894   0.637  10.805
57895SOL    HW175582   1.820   0.594  10.763
57895SOL    HW275583   1.959   0.646  10.736
57896SOL     OW75584  12.522  12.408  12.860
57896SOL    HW175585  12.591  12.401  12.794
57896SOL    HW275586  12.491  12.318  12.872
57897SOL     OW75587  10.642   6.981  12.276
57897SOL    HW175588  10.705   6.909  12.271
57897SOL    HW275589  10.668   7.031  12.353
57898SOL     OW75590   4.295  12.069   3.732
57898SOL    HW175591   4.226  12.132   3.755
57898SOL    HW275592   4.312  12.022   3.814
57899SOL     OW75593  14.221   3.742   5.272
57899SOL    HW175594  14.299   3.714   5.319
57899SOL    HW275595  14.173   3.797   5.333
57900SOL     OW75596  12.867   0.574   8.985
57900SOL    HW175597  12.844   0.667   8.990
57900SOL    HW275598  12.888   0.550   9.075
57901SOL     OW75599  12.523   2.896  14.246
57901SOL    HW175600  12.589   2.963  14.228
57901SOL    HW275601  12.541   2.868  14.336
57902SOL     OW75602   3.506  11.394  10.538
57902SOL    HW175603   3.429  11.446  10.516
57902SOL    HW275604   3.564  11.403  10.462
57903SOL     OW75605   1.482  12.209   6.637
57903SOL    HW175606   1.549  12.148   6.670
57903SOL    HW275607   1.514  12.295   6.662
57904SOL     OW75608  12.207   8.045  14.824
57904SOL    HW175609  12.137   8.108  14.806
57904SOL    HW275610  12.181   7.966  14.776
57905SOL     OW75611   8.037  12.617   8.045
57905SOL    HW175612   8.075  12.599   7.959
57905SOL    HW275613   7.953  12.659   8.026
57906SOL     OW75614  14.885   6.383   2.449
57906SOL    HW175615  14.810   6.435   2.421
57906SOL    HW275616   0.069   6.411   2.392
57907SOL     OW75617   9.616   5.731   1.571
57907SOL    HW175618   9.678   5.802   1.583
57907SOL    HW275619   9.646   5.686   1.492
57908SOL     OW75620  14.073  12.623   6.694
57908SOL    HW175621  14.103  12.535   6.718
57908SOL    HW275622  14.150  12.678   6.707
57909SOL     OW75623   5.133   5.156  10.044
57909SOL    HW175624   5.161   5.069  10.017
57909SOL    HW275625   5.056   5.140  10.099
57910SOL     OW75626  13.042   6.015   2.200
57910SOL    HW175627  13.137   6.020   2.188
57910SOL    HW275628  13.031   5.996   2.293
57911SOL     OW75629   3.002   2.640  14.100
57911SOL    HW175630   3.046   2.645  14.185
57911SOL    HW275631   2.932   2.576  14.113
57912SOL     OW75632  14.772  12.565   5.043
57912SOL    HW175633  14.819  12.525   5.116
57912SOL    HW275634  14.810  12.652   5.035
57913SOL     OW75635   2.500  13.615   0.844
57913SOL    HW175636   2.541  13.701   0.857
57913SOL    HW275637   2.501  13.602   0.749
57914SOL     OW75638  14.316   1.081  11.413
57914SOL    HW175639  14.345   1.021  11.344
57914SOL    HW275640  14.310   1.166  11.370
57915SOL     OW75641   1.814   9.825  14.301
57915SOL    HW175642   1.827   9.914  14.269
57915SOL    HW275643   1.885   9.774  14.261
57916SOL     OW75644  14.640  10.485   7.891
57916SOL    HW175645  14.714  10.546   7.901
57916SOL    HW275646  14.673  10.418   7.832
57917SOL     OW75647   8.720   7.165   4.231
57917SOL    HW175648   8.805   7.128   4.207
57917SOL    HW275649   8.734   7.203   4.318
57918SOL     OW75650  11.073   1.807   4.069
57918SOL    HW175651  10.993   1.755   4.076
57918SOL    HW275652  11.136   1.761   4.124
57919SOL     OW75653   1.204  13.918  10.982
57919SOL    HW175654   1.190  13.852  11.050
57919SOL    HW275655   1.116  13.949  10.960
57920SOL     OW75656   3.374   4.868   8.894
57920SOL    HW175657   3.391   4.821   8.976
57920SOL    HW275658   3.380   4.960   8.918
57921SOL     OW75659  13.916   0.380   5.954
57921SOL    HW175660  14.000   0.361   5.911
57921SOL    HW275661  13.922   0.335   6.038
57922SOL     OW75662  14.676  13.238  14.734
57922SOL    HW175663  14.725  13.255  14.654
57922SOL    HW275664  14.652  13.325  14.766
57923SOL     OW75665  12.391  11.234   2.644
57923SOL    HW175666  12.458  11.296   2.613
57923SOL    HW275667  12.404  11.157   2.590
57924SOL     OW75668  14.820   8.474  13.726
57924SOL    HW175669  14.776   8.519  13.654
57924SOL    HW275670  14.852   8.392  13.688
57925SOL     OW75671  14.841  10.786   1.434
57925SOL    HW175672   0.006  10.734   1.373
57925SOL    HW275673  14.833  10.731   1.512
57926SOL     OW75674   9.837  13.648   1.997
57926SOL    HW175675   9.748  13.643   2.031
57926SOL    HW275676   9.876  13.564   2.021
57927SOL     OW75677   1.158   7.528   4.325
57927SOL    HW175678   1.198   7.456   4.374
57927SOL    HW275679   1.166   7.502   4.233
57928SOL     OW75680   6.550  14.352   7.635
57928SOL    HW175681   6.556  14.309   7.549
57928SOL    HW275682   6.458  14.377   7.643
57929SOL     OW75683   8.014   6.177   4.472
57929SOL    HW175684   7.986   6.191   4.563
57929SOL    HW275685   8.092   6.232   4.463
57930SOL     OW75686   2.672   2.747   7.034
57930SOL    HW175687   2.627   2.831   7.020
57930SOL    HW275688   2.601   2.683   7.040
57931SOL     OW75689  11.898  12.598  10.023
57931SOL    HW175690  11.968  12.627  10.081
57931SOL    HW275691  11.859  12.523  10.067
57932SOL     OW75692   0.841   2.774   2.214
57932SOL    HW175693   0.806   2.825   2.141
57932SOL    HW275694   0.781   2.792   2.286
57933SOL     OW75695  10.732  14.879   9.668
57933SOL    HW175696  10.705  14.788   9.682
57933SOL    HW275697  10.758  14.882   9.576
57934SOL     OW75698  12.444   0.096   9.856
57934SOL    HW175699  12.433   0.141   9.939
57934SOL    HW275700  12.499   0.020   9.877
57935SOL     OW75701   4.196  14.358  10.495
57935SOL    HW175702   4.193  14.299  10.571
57935SOL    HW275703   4.280  14.402  10.503
57936SOL     OW75704  11.130  14.586  14.642
57936SOL    HW175705  11.204  14.645  14.655
57936SOL    HW275706  11.154  14.506  14.690
57937SOL     OW75707   2.814  13.285   3.045
57937SOL    HW175708   2.742  13.273   3.107
57937SOL    HW275709   2.887  13.314   3.099
57938SOL     OW75710   5.875  11.549   5.109
57938SOL    HW175711   5.896  11.550   5.203
57938SOL    HW275712   5.779  11.545   5.107
57939SOL     OW75713   6.759   3.362   4.869
57939SOL    HW175714   6.802   3.300   4.810
57939SOL    HW275715   6.779   3.328   4.957
57940SOL     OW75716  12.356   5.030   5.868
57940SOL    HW175717  12.266   5.016   5.839
57940SOL    HW275718  12.360   4.990   5.955
57941SOL     OW75719  13.403   5.351   7.145
57941SOL    HW175720  13.470   5.417   7.159
57941SOL    HW275721  13.384   5.355   7.051
57942SOL     OW75722   3.566   1.590   9.210
57942SOL    HW175723   3.540   1.530   9.141
57942SOL    HW275724   3.544   1.677   9.176
57943SOL     OW75725   4.409   0.518   9.213
57943SOL    HW175726   4.458   0.587   9.169
57943SOL    HW275727   4.471   0.481   9.276
57944SOL     OW75728   5.879   7.906  12.908
57944SOL    HW175729   5.875   7.934  12.999
57944SOL    HW275730   5.822   7.967  12.861
57945SOL     OW75731   2.978  13.191   8.245
57945SOL    HW175732   2.926  13.214   8.322
57945SOL    HW275733   3.028  13.114   8.273
57946SOL     OW75734  10.152   6.408  11.860
57946SOL    HW175735  10.161   6.424  11.954
57946SOL    HW275736  10.168   6.493  11.819
57947SOL     OW75737   9.535   6.755   8.329
57947SOL    HW175738   9.574   6.672   8.359
57947SOL    HW275739   9.506   6.736   8.239
57948SOL     OW75740   1.362   8.570  12.047
57948SOL    HW175741   1.323   8.493  12.005
57948SOL    HW275742   1.379   8.542  12.137
57949SOL     OW75743   3.316   4.320  10.024
57949SOL    HW175744   3.307   4.265   9.946
57949SOL    HW275745   3.300   4.260  10.097
57950SOL     OW75746  10.596   7.464   3.339
57950SOL    HW175747  10.660   7.516   3.290
57950SOL    HW275748  10.595   7.379   3.294
57951SOL     OW75749   3.940   0.518   2.205
57951SOL    HW175750   3.864   0.494   2.258
57951SOL    HW275751   3.911   0.594   2.155
57952SOL     OW75752  14.778   6.605   6.392
57952SOL    HW175753  14.856   6.631   6.441
57952SOL    HW275754  14.789   6.511   6.378
57953SOL     OW75755   0.412   4.600  10.489
57953SOL    HW175756   0.364   4.522  10.463
57953SOL    HW275757   0.503   4.582  10.464
57954SOL     OW75758  12.084  10.380   3.011
57954SOL    HW175759  12.114  10.310   2.953
57954SOL    HW275760  12.155  10.444   3.011
57955SOL     OW75761   9.625  12.798   7.488
57955SOL    HW175762   9.600  12.875   7.437
57955SOL    HW275763   9.591  12.724   7.438
57956SOL     OW75764   7.756   4.487   1.229
57956SOL    HW175765   7.720   4.544   1.161
57956SOL    HW275766   7.828   4.537   1.268
57957SOL     OW75767   6.181   1.273   1.488
57957SOL    HW175768   6.108   1.293   1.546
57957SOL    HW275769   6.146   1.283   1.400
57958SOL     OW75770   4.839  13.661   0.971
57958SOL    HW175771   4.872  13.731   1.028
57958SOL    HW275772   4.910  13.596   0.970
57959SOL     OW75773   2.325   2.606   2.706
57959SOL    HW175774   2.366   2.573   2.786
57959SOL    HW275775   2.361   2.695   2.696
57960SOL     OW75776   2.398  12.766   1.560
57960SOL    HW175777   2.322  12.710   1.577
57960SOL    HW275778   2.396  12.781   1.465
57961SOL     OW75779  13.372   1.304   3.977
57961SOL    HW175780  13.332   1.239   4.034
57961SOL    HW275781  13.454   1.328   4.021
57962SOL     OW75782   3.963   0.039   7.505
57962SOL    HW175783   4.046   0.011   7.543
57962SOL    HW275784   3.897   0.008   7.566
57963SOL     OW75785   5.222   1.318  12.037
57963SOL    HW175786   5.203   1.284  11.950
57963SOL    HW275787   5.139   1.356  12.066
57964SOL     OW75788  13.185  13.109   7.944
57964SOL    HW175789  13.114  13.143   7.890
57964SOL    HW275790  13.165  13.016   7.955
57965SOL     OW75791  14.769   1.245  14.023
57965SOL    HW175792  14.850   1.266  14.071
57965SOL    HW275793  14.797   1.186  13.953
57966SOL     OW75794  13.234   9.048  13.630
57966SOL    HW175795  13.217   8.960  13.596
57966SOL    HW275796  13.171   9.059  13.700
57967SOL     OW75797   8.713   5.778   4.388
57967SOL    HW175798   8.734   5.754   4.478
57967SOL    HW275799   8.625   5.814   4.392
57968SOL     OW75800  12.144   1.997  12.051
57968SOL    HW175801  12.223   2.028  12.007
57968SOL    HW275802  12.072   2.029  11.997
57969SOL     OW75803  12.444  14.778   8.897
57969SOL    HW175804  12.516  14.727   8.860
57969SOL    HW275805  12.474  14.801   8.985
57970SOL     OW75806   0.981   9.410  13.754
57970SOL    HW175807   0.999   9.351  13.826
57970SOL    HW275808   1.012   9.364  13.676
57971SOL     OW75809   2.785   0.406   2.133
57971SOL    HW175810   2.770   0.470   2.202
57971SOL    HW275811   2.866   0.362   2.160
57972SOL     OW75812   6.901  11.018   8.427
57972SOL    HW175813   6.905  11.095   8.370
57972SOL    HW275814   6.817  11.027   8.473
57973SOL     OW75815   3.538   6.508  14.106
57973SOL    HW175816   3.510   6.423  14.071
57973SOL    HW275817   3.575   6.487  14.192
57974SOL     OW75818   0.423   9.950  13.335
57974SOL    HW175819   0.383  10.030  13.368
57974SOL    HW275820   0.419   9.959  13.239
57975SOL     OW75821   7.717   2.304   0.219
57975SOL    HW175822   7.721   2.233   0.155
57975SOL    HW275823   7.723   2.260   0.304
57976SOL     OW75824   6.351  12.046   3.945
57976SOL    HW175825   6.446  12.059   3.936
57976SOL    HW275826   6.342  11.974   4.008
57977SOL     OW75827  14.330  13.481   6.091
57977SOL    HW175828  14.259  13.539   6.065
57977SOL    HW275829  14.322  13.475   6.186
57978SOL     OW75830   7.852   7.063   1.588
57978SOL    HW175831   7.938   7.106   1.581
57978SOL    HW275832   7.872   6.970   1.587
57979SOL     OW75833   5.501   1.047   3.745
57979SOL    HW175834   5.509   0.958   3.712
57979SOL    HW275835   5.414   1.076   3.717
57980SOL     OW75836   3.779   8.704  12.508
57980SOL    HW175837   3.708   8.644  12.528
57980SOL    HW275838   3.844   8.689  12.576
57981SOL     OW75839   7.434   4.232   5.130
57981SOL    HW175840   7.382   4.292   5.077
57981SOL    HW275841   7.373   4.162   5.153
57982SOL     OW75842   5.727   0.540  10.572
57982SOL    HW175843   5.713   0.488  10.493
57982SOL    HW275844   5.698   0.483  10.643
57983SOL     OW75845  10.806  12.994   0.278
57983SOL    HW175846  10.895  12.962   0.264
57983SOL    HW275847  10.780  13.029   0.193
57984SOL     OW75848   6.719   6.143   3.922
57984SOL    HW175849   6.691   6.051   3.926
57984SOL    HW275850   6.664   6.188   3.986
57985SOL     OW75851   2.088  11.335  14.284
57985SOL    HW175852   2.037  11.391  14.225
57985SOL    HW275853   2.141  11.281  14.226
57986SOL     OW75854   6.098   8.160  10.853
57986SOL    HW175855   6.132   8.137  10.766
57986SOL    HW275856   6.175   8.189  10.902
57987SOL     OW75857  13.611   2.794  14.693
57987SOL    HW175858  13.538   2.762  14.745
57987SOL    HW275859  13.645   2.717  14.648
57988SOL     OW75860   7.739   6.355  10.004
57988SOL    HW175861   7.782   6.272  10.024
57988SOL    HW275862   7.767   6.375   9.914
57989SOL     OW75863   7.247   5.950   4.092
57989SOL    HW175864   7.210   6.033   4.124
57989SOL    HW275865   7.306   5.976   4.021
57990SOL     OW75866   7.650   7.605   5.232
57990SOL    HW175867   7.612   7.614   5.145
57990SOL    HW275868   7.608   7.527   5.268
57991SOL     OW75869  14.082  13.217   5.296
57991SOL    HW175870  14.006  13.161   5.282
57991SOL    HW275871  14.131  13.213   5.214
57992SOL     OW75872   7.391  10.507  14.108
57992SOL    HW175873   7.387  10.570  14.181
57992SOL    HW275874   7.327  10.540  14.044
57993SOL     OW75875  10.583  10.111  10.210
57993SOL    HW175876  10.509  10.098  10.151
57993SOL    HW275877  10.575  10.201  10.239
57994SOL     OW75878  12.561   1.353   1.094
57994SOL    HW175879  12.554   1.441   1.129
57994SOL    HW275880  12.647   1.351   1.051
57995SOL     OW75881  11.077  13.905   4.497
57995SOL    HW175882  11.113  13.907   4.586
57995SOL    HW275883  11.101  13.989   4.459
57996SOL     OW75884   7.162   9.352  14.213
57996SOL    HW175885   7.068   9.334  14.224
57996SOL    HW275886   7.166   9.412  14.138
57997SOL     OW75887   6.667   2.560   9.981
57997SOL    HW175888   6.696   2.651   9.987
57997SOL    HW275889   6.744   2.509  10.008
57998SOL     OW75890   8.039  13.901  13.775
57998SOL    HW175891   8.015  13.993  13.760
57998SOL    HW275892   8.072  13.899  13.864
57999SOL     OW75893   3.558   0.631   3.424
57999SOL    HW175894   3.645   0.663   3.447
57999SOL    HW275895   3.553   0.545   3.465
58000SOL     OW75896   5.521   8.889   1.201
58000SOL    HW175897   5.565   8.956   1.149
58000SOL    HW275898   5.521   8.923   1.290
58001SOL     OW75899   4.116   9.081   8.279
58001SOL    HW175900   4.193   9.073   8.223
58001SOL    HW275901   4.074   8.995   8.275
58002SOL     OW75902  12.669  10.823   1.121
58002SOL    HW175903  12.756  10.843   1.154
58002SOL    HW275904  12.624  10.908   1.119
58003SOL     OW75905   3.472   7.314   5.647
58003SOL    HW175906   3.489   7.408   5.645
58003SOL    HW275907   3.392   7.303   5.595
58004SOL     OW75908   5.829  12.373   0.746
58004SOL    HW175909   5.908  12.426   0.755
58004SOL    HW275910   5.835  12.310   0.818
58005SOL     OW75911  14.880  11.145   5.154
58005SOL    HW175912  14.827  11.164   5.231
58005SOL    HW275913   0.083  11.160   5.182
58006SOL     OW75914   4.952  14.063   0.548
58006SOL    HW175915   4.945  14.021   0.463
58006SOL    HW275916   5.017  14.133   0.536
58007SOL     OW75917   3.468  12.519  13.256
58007SOL    HW175918   3.462  12.425  13.272
58007SOL    HW275919   3.461  12.559  13.343
58008SOL     OW75920   7.405   4.995   5.196
58008SOL    HW175921   7.493   5.031   5.199
58008SOL    HW275922   7.414   4.907   5.232
58009SOL     OW75923  14.566   4.430   2.013
58009SOL    HW175924  14.495   4.494   2.022
58009SOL    HW275925  14.645   4.477   2.039
58010SOL     OW75926   5.954   3.052  14.682
58010SOL    HW175927   6.028   3.033  14.739
58010SOL    HW275928   5.924   2.967  14.651
58011SOL     OW75929   5.172   4.979   9.504
58011SOL    HW175930   5.123   4.897   9.513
58011SOL    HW275931   5.162   5.004   9.412
58012SOL     OW75932   6.094  10.090   9.299
58012SOL    HW175933   6.067  10.048   9.217
58012SOL    HW275934   6.016  10.088   9.354
58013SOL     OW75935  10.674  10.440   2.592
58013SOL    HW175936  10.710  10.397   2.514
58013SOL    HW275937  10.729  10.410   2.664
58014SOL     OW75938   5.095  12.532   5.424
58014SOL    HW175939   5.069  12.515   5.334
58014SOL    HW275940   5.174  12.481   5.437
58015SOL     OW75941  11.636  11.053  14.193
58015SOL    HW175942  11.666  10.986  14.132
58015SOL    HW275943  11.624  11.006  14.276
58016SOL     OW75944  13.897   6.049   9.868
58016SOL    HW175945  13.829   6.113   9.848
58016SOL    HW275946  13.851   5.981   9.917
58017SOL     OW75947   0.508  14.156  12.396
58017SOL    HW175948   0.600  14.179  12.383
58017SOL    HW275949   0.460  14.225  12.351
58018SOL     OW75950   9.721   7.173   9.127
58018SOL    HW175951   9.699   7.080   9.129
58018SOL    HW275952   9.718   7.200   9.218
58019SOL     OW75953   7.063   4.917   6.369
58019SOL    HW175954   7.021   4.920   6.455
58019SOL    HW275955   7.156   4.924   6.388
58020SOL     OW75956   8.705   5.614   0.136
58020SOL    HW175957   8.612   5.616   0.113
58020SOL    HW275958   8.749   5.588   0.056
58021SOL     OW75959   6.480   4.655  10.287
58021SOL    HW175960   6.466   4.736  10.337
58021SOL    HW275961   6.410   4.655  10.222
58022SOL     OW75962   5.293   9.603   8.733
58022SOL    HW175963   5.245   9.557   8.802
58022SOL    HW275964   5.381   9.614   8.769
58023SOL     OW75965  10.347  13.596   6.597
58023SOL    HW175966  10.331  13.501   6.599
58023SOL    HW275967  10.346  13.621   6.689
58024SOL     OW75968   9.808   8.226   5.501
58024SOL    HW175969   9.724   8.186   5.478
58024SOL    HW275970   9.852   8.239   5.417
58025SOL     OW75971   3.224  14.560  13.870
58025SOL    HW175972   3.291  14.493  13.884
58025SOL    HW275973   3.142  14.516  13.893
58026SOL     OW75974  12.208   3.638  14.442
58026SOL    HW175975  12.176   3.585  14.370
58026SOL    HW275976  12.283   3.685  14.405
58027SOL     OW75977  11.698  11.604  13.997
58027SOL    HW175978  11.774  11.549  14.013
58027SOL    HW275979  11.647  11.557  13.932
58028SOL     OW75980   6.798   4.664   6.445
58028SOL    HW175981   6.738   4.634   6.377
58028SOL    HW275982   6.742   4.687   6.519
58029SOL     OW75983  11.551   9.049  11.616
58029SOL    HW175984  11.458   9.072  11.608
58029SOL    HW275985  11.587   9.064  11.529
58030SOL     OW75986  10.247  10.141  13.656
58030SOL    HW175987  10.167  10.181  13.621
58030SOL    HW275988  10.316  10.165  13.594
58031SOL     OW75989  12.668   5.889  13.177
58031SOL    HW175990  12.686   5.859  13.266
58031SOL    HW275991  12.609   5.964  13.189
58032SOL     OW75992   5.614  11.268   1.638
58032SOL    HW175993   5.558  11.345   1.633
58032SOL    HW275994   5.598  11.233   1.726
58033SOL     OW75995   5.310  12.394  11.963
58033SOL    HW175996   5.395  12.350  11.967
58033SOL    HW275997   5.323  12.475  12.013
58034SOL     OW75998  13.714   5.424   2.115
58034SOL    HW175999  13.673   5.353   2.165
58034SOL    HW276000  13.640   5.476   2.082
58035SOL     OW76001   7.568  14.109   9.292
58035SOL    HW176002   7.542  14.162   9.368
58035SOL    HW276003   7.657  14.137   9.274
58036SOL     OW76004   8.896   8.867  13.227
58036SOL    HW176005   8.917   8.921  13.151
58036SOL    HW276006   8.810   8.899  13.255
58037SOL     OW76007   2.106   4.702   7.281
58037SOL    HW176008   2.014   4.698   7.255
58037SOL    HW276009   2.138   4.613   7.271
58038SOL     OW76010  11.862  13.177   7.846
58038SOL    HW176011  11.946  13.222   7.850
58038SOL    HW276012  11.807  13.235   7.793
58039SOL     OW76013   7.360   8.054   8.806
58039SOL    HW176014   7.445   8.048   8.763
58039SOL    HW276015   7.306   8.106   8.746
58040SOL     OW76016   8.353   0.195   6.493
58040SOL    HW176017   8.319   0.137   6.424
58040SOL    HW276018   8.441   0.161   6.511
58041SOL     OW76019   5.798   0.793  12.187
58041SOL    HW176020   5.841   0.776  12.103
58041SOL    HW276021   5.758   0.879  12.176
58042SOL     OW76022   0.883   9.560   1.335
58042SOL    HW176023   0.792   9.540   1.354
58042SOL    HW276024   0.924   9.568   1.421
58043SOL     OW76025  10.707   0.683  14.320
58043SOL    HW176026  10.794   0.710  14.349
58043SOL    HW276027  10.723   0.615  14.255
58044SOL     OW76028   5.451   1.988   2.387
58044SOL    HW176029   5.460   2.079   2.358
58044SOL    HW276030   5.528   1.944   2.352
58045SOL     OW76031  12.364   1.794  13.293
58045SOL    HW176032  12.366   1.726  13.226
58045SOL    HW276033  12.409   1.756  13.368
58046SOL     OW76034   0.945   3.001   7.586
58046SOL    HW176035   1.000   2.960   7.519
58046SOL    HW276036   0.863   2.952   7.583
58047SOL     OW76037   7.427   4.602   1.359
58047SOL    HW176038   7.362   4.604   1.430
58047SOL    HW276039   7.489   4.534   1.384
58048SOL     OW76040   2.881   7.887   1.358
58048SOL    HW176041   2.915   7.815   1.410
58048SOL    HW276042   2.941   7.960   1.374
58049SOL     OW76043   1.990   5.236   5.521
58049SOL    HW176044   1.947   5.162   5.477
58049SOL    HW276045   1.943   5.245   5.604
58050SOL     OW76046   3.302   8.179  13.782
58050SOL    HW176047   3.381   8.205  13.735
58050SOL    HW276048   3.322   8.193  13.874
58051SOL     OW76049  13.521  14.382   5.135
58051SOL    HW176050  13.435  14.354   5.167
58051SOL    HW276051  13.508  14.398   5.042
58052SOL     OW76052   6.540  10.413   6.097
58052SOL    HW176053   6.543  10.374   6.184
58052SOL    HW276054   6.611  10.477   6.097
58053SOL     OW76055   7.800   3.791   2.509
58053SOL    HW176056   7.790   3.740   2.590
58053SOL    HW276057   7.763   3.877   2.529
58054SOL     OW76058  11.271   4.675   2.942
58054SOL    HW176059  11.306   4.744   2.886
58054SOL    HW276060  11.348   4.631   2.978
58055SOL     OW76061  11.345   0.409   8.666
58055SOL    HW176062  11.299   0.376   8.744
58055SOL    HW276063  11.288   0.385   8.593
58056SOL     OW76064   7.751  10.117  14.163
58056SOL    HW176065   7.693  10.073  14.101
58056SOL    HW276066   7.789  10.046  14.215
58057SOL     OW76067  10.012  13.874   4.926
58057SOL    HW176068  10.066  13.816   4.980
58057SOL    HW276069  10.059  13.878   4.843
58058SOL     OW76070  10.158  11.203   0.117
58058SOL    HW176071  10.192  11.118   0.146
58058SOL    HW276072  10.187  11.210   0.026
58059SOL     OW76073   2.969  13.148   0.296
58059SOL    HW176074   2.977  13.085   0.225
58059SOL    HW276075   3.047  13.203   0.287
58060SOL     OW76076  12.268   6.745   1.971
58060SOL    HW176077  12.181   6.771   2.001
58060SOL    HW276078  12.283   6.796   1.892
58061SOL     OW76079  10.781   5.750   4.204
58061SOL    HW176080  10.842   5.762   4.131
58061SOL    HW276081  10.702   5.797   4.177
58062SOL     OW76082   0.613   5.597   8.836
58062SOL    HW176083   0.624   5.503   8.853
58062SOL    HW276084   0.671   5.640   8.900
58063SOL     OW76085  12.738   8.574   2.973
58063SOL    HW176086  12.817   8.577   2.919
58063SOL    HW276087  12.760   8.516   3.046
58064SOL     OW76088   8.427   7.273  12.175
58064SOL    HW176089   8.455   7.350  12.225
58064SOL    HW276090   8.422   7.305  12.084
58065SOL     OW76091  12.615   1.961  10.466
58065SOL    HW176092  12.537   1.914  10.438
58065SOL    HW276093  12.610   1.962  10.562
58066SOL     OW76094   4.650  13.817   4.186
58066SOL    HW176095   4.654  13.743   4.246
58066SOL    HW276096   4.742  13.842   4.173
58067SOL     OW76097   6.845  12.727  10.309
58067SOL    HW176098   6.898  12.702  10.234
58067SOL    HW276099   6.846  12.822  10.309
58068SOL     OW76100  13.107  10.629   0.381
58068SOL    HW176101  13.033  10.619   0.320
58068SOL    HW276102  13.176  10.574   0.344
58069SOL     OW76103   9.845  11.952  14.499
58069SOL    HW176104   9.867  12.006  14.575
58069SOL    HW276105   9.920  11.895  14.487
58070SOL     OW76106   7.400   1.203   0.715
58070SOL    HW176107   7.377   1.242   0.631
58070SOL    HW276108   7.422   1.112   0.694
58071SOL     OW76109   8.284  14.550  12.049
58071SOL    HW176110   8.229  14.539  12.127
58071SOL    HW276111   8.224  14.579  11.981
58072SOL     OW76112  10.277   9.446   0.579
58072SOL    HW176113  10.204   9.466   0.520
58072SOL    HW276114  10.354   9.442   0.522
58073SOL     OW76115   0.163   9.892   7.892
58073SOL    HW176116   0.255   9.905   7.867
58073SOL    HW276117   0.131   9.981   7.909
58074SOL     OW76118  14.443  10.718  13.360
58074SOL    HW176119  14.459  10.807  13.327
58074SOL    HW276120  14.434  10.665  13.281
58075SOL     OW76121  12.448   4.137  13.239
58075SOL    HW176122  12.423   4.094  13.320
58075SOL    HW276123  12.453   4.067  13.174
58076SOL     OW76124  12.216   6.339  10.122
58076SOL    HW176125  12.256   6.253  10.138
58076SOL    HW276126  12.139   6.320  10.069
58077SOL     OW76127   5.362   7.566   5.678
58077SOL    HW176128   5.375   7.475   5.703
58077SOL    HW276129   5.270   7.583   5.699
58078SOL     OW76130  11.833  12.768   9.831
58078SOL    HW176131  11.849  12.689   9.883
58078SOL    HW276132  11.775  12.739   9.760
58079SOL     OW76133   0.210  10.219  12.016
58079SOL    HW176134   0.239  10.271  12.092
58079SOL    HW276135   0.256  10.258  11.942
58080SOL     OW76136  13.875   6.905   3.986
58080SOL    HW176137  13.795   6.853   3.995
58080SOL    HW276138  13.916   6.901   4.072
58081SOL     OW76139   4.529  13.177   6.597
58081SOL    HW176140   4.614  13.190   6.555
58081SOL    HW276141   4.536  13.223   6.681
58082SOL     OW76142  14.704   0.555  13.652
58082SOL    HW176143  14.659   0.558  13.736
58082SOL    HW276144  14.794   0.532  13.674
58083SOL     OW76145   5.379   7.707   6.291
58083SOL    HW176146   5.374   7.801   6.309
58083SOL    HW276147   5.297   7.672   6.327
58084SOL     OW76148   7.230   7.487   2.367
58084SOL    HW176149   7.234   7.444   2.281
58084SOL    HW276150   7.213   7.416   2.429
58085SOL     OW76151   6.159  10.636   5.782
58085SOL    HW176152   6.102  10.586   5.841
58085SOL    HW276153   6.230  10.575   5.762
58086SOL     OW76154   3.878   6.231  14.482
58086SOL    HW176155   3.898   6.224  14.575
58086SOL    HW276156   3.962   6.217  14.439
58087SOL     OW76157   5.443  14.051   9.833
58087SOL    HW176158   5.397  14.109   9.893
58087SOL    HW276159   5.467  14.107   9.759
58088SOL     OW76160  10.728   6.856   2.277
58088SOL    HW176161  10.635   6.872   2.292
58088SOL    HW276162  10.766   6.851   2.365
58089SOL     OW76163   6.061  10.276   6.354
58089SOL    HW176164   6.001  10.208   6.385
58089SOL    HW276165   6.122  10.288   6.426
58090SOL     OW76166   3.232   8.465   8.883
58090SOL    HW176167   3.225   8.537   8.821
58090SOL    HW276168   3.265   8.392   8.830
58091SOL     OW76169   1.653  14.150  10.934
58091SOL    HW176170   1.602  14.209  10.878
58091SOL    HW276171   1.741  14.151  10.898
58092SOL     OW76172   3.118   8.767  14.316
58092SOL    HW176173   3.033   8.722  14.322
58092SOL    HW276174   3.174   8.706  14.269
58093SOL     OW76175   3.365   1.471   0.733
58093SOL    HW176176   3.356   1.493   0.640
58093SOL    HW276177   3.366   1.556   0.778
58094SOL     OW76178  14.674   3.662  11.427
58094SOL    HW176179  14.723   3.614  11.494
58094SOL    HW276180  14.583   3.635  11.441
58095SOL     OW76181   2.795   8.030   9.292
58095SOL    HW176182   2.797   7.967   9.220
58095SOL    HW276183   2.799   7.976   9.371
58096SOL     OW76184  12.196   7.129  12.582
58096SOL    HW176185  12.258   7.148  12.653
58096SOL    HW276186  12.135   7.203  12.583
58097SOL     OW76187   8.373   9.955   9.127
58097SOL    HW176188   8.417   9.933   9.209
58097SOL    HW276189   8.423   9.908   9.060
58098SOL     OW76190   3.843  11.812  13.863
58098SOL    HW176191   3.830  11.899  13.901
58098SOL    HW276192   3.792  11.753  13.918
58099SOL     OW76193  11.350   1.126   5.934
58099SOL    HW176194  11.366   1.191   6.002
58099SOL    HW276195  11.334   1.176   5.855
58100SOL     OW76196   0.505   0.193  10.968
58100SOL    HW176197   0.545   0.175  10.883
58100SOL    HW276198   0.414   0.213  10.949
58101SOL     OW76199   9.344   9.895  13.000
58101SOL    HW176200   9.346   9.953  12.924
58101SOL    HW276201   9.312   9.812  12.966
58102SOL     OW76202   8.303  11.959  10.800
58102SOL    HW176203   8.341  12.033  10.753
58102SOL    HW276204   8.239  11.922  10.739
58103SOL     OW76205   1.932   5.862   3.351
58103SOL    HW176206   1.994   5.863   3.425
58103SOL    HW276207   1.874   5.788   3.369
58104SOL     OW76208   2.211  10.268   5.317
58104SOL    HW176209   2.255  10.341   5.275
58104SOL    HW276210   2.194  10.299   5.406
58105SOL     OW76211  12.859   6.473  10.951
58105SOL    HW176212  12.934   6.414  10.947
58105SOL    HW276213  12.830   6.481  10.860
58106SOL     OW76214   4.790  12.739   8.269
58106SOL    HW176215   4.845  12.672   8.228
58106SOL    HW276216   4.852  12.796   8.315
58107SOL     OW76217   3.916   1.966  12.966
58107SOL    HW176218   3.880   1.980  13.053
58107SOL    HW276219   3.939   2.054  12.935
58108SOL     OW76220  10.207   3.355   2.270
58108SOL    HW176221  10.287   3.313   2.237
58108SOL    HW276222  10.178   3.299   2.342
58109SOL     OW76223   2.701   6.623  14.747
58109SOL    HW176224   2.795   6.638  14.741
58109SOL    HW276225   2.671   6.683  14.816
58110SOL     OW76226  13.986   9.766   8.215
58110SOL    HW176227  14.068   9.722   8.237
58110SOL    HW276228  13.956   9.723   8.135
58111SOL     OW76229   5.960   0.395   3.098
58111SOL    HW176230   5.885   0.351   3.136
58111SOL    HW276231   5.970   0.475   3.151
58112SOL     OW76232   2.282   2.036   0.904
58112SOL    HW176233   2.320   2.013   0.819
58112SOL    HW276234   2.189   2.014   0.895
58113SOL     OW76235   8.262   6.755   5.354
58113SOL    HW176236   8.202   6.783   5.285
58113SOL    HW276237   8.240   6.810   5.429
58114SOL     OW76238   5.788   6.261  12.814
58114SOL    HW176239   5.787   6.166  12.830
58114SOL    HW276240   5.849   6.273  12.742
58115SOL     OW76241   7.658   3.138  10.493
58115SOL    HW176242   7.615   3.204  10.438
58115SOL    HW276243   7.647   3.057  10.445
58116SOL     OW76244   2.210  14.221  14.364
58116SOL    HW176245   2.201  14.310  14.399
58116SOL    HW276246   2.278  14.181  14.419
58117SOL     OW76247   7.856   6.357   7.597
58117SOL    HW176248   7.803   6.407   7.534
58117SOL    HW276249   7.792   6.305   7.645
58118SOL     OW76250  13.607   8.507   5.751
58118SOL    HW176251  13.523   8.483   5.712
58118SOL    HW276252  13.662   8.429   5.738
58119SOL     OW76253   7.799  11.146  11.532
58119SOL    HW176254   7.856  11.196  11.589
58119SOL    HW276255   7.769  11.072  11.585
58120SOL     OW76256  14.879   4.357  14.492
58120SOL    HW176257   0.006   4.359  14.586
58120SOL    HW276258  14.863   4.265  14.472
58121SOL     OW76259  10.885   4.304  14.449
58121SOL    HW176260  10.932   4.224  14.427
58121SOL    HW276261  10.938   4.375  14.412
58122SOL     OW76262  13.312   2.753   9.138
58122SOL    HW176263  13.344   2.671   9.175
58122SOL    HW276264  13.238   2.777   9.194
58123SOL     OW76265  12.451  14.483  10.781
58123SOL    HW176266  12.466  14.577  10.779
58123SOL    HW276267  12.356  14.473  10.777
58124SOL     OW76268  14.399  11.025   6.705
58124SOL    HW176269  14.323  11.063   6.749
58124SOL    HW276270  14.384  11.041   6.612
58125SOL     OW76271   7.858   4.523   6.936
58125SOL    HW176272   7.859   4.617   6.951
58125SOL    HW276273   7.766   4.500   6.930
58126SOL     OW76274   9.622   2.292   6.146
58126SOL    HW176275   9.548   2.333   6.103
58126SOL    HW276276   9.667   2.364   6.190
58127SOL     OW76277   2.578  14.172  10.957
58127SOL    HW176278   2.622  14.094  10.990
58127SOL    HW276279   2.573  14.159  10.863
58128SOL     OW76280  11.762   3.671  10.805
58128SOL    HW176281  11.769   3.621  10.723
58128SOL    HW276282  11.771   3.605  10.874
58129SOL     OW76283   2.635  10.824   8.443
58129SOL    HW176284   2.647  10.736   8.407
58129SOL    HW276285   2.607  10.809   8.534
58130SOL     OW76286   8.970   9.693   7.854
58130SOL    HW176287   8.969   9.783   7.888
58130SOL    HW276288   9.052   9.687   7.805
58131SOL     OW76289   0.316  12.576  10.595
58131SOL    HW176290   0.281  12.511  10.657
58131SOL    HW276291   0.407  12.550  10.582
58132SOL     OW76292   6.996  14.580  10.566
58132SOL    HW176293   6.968  14.556  10.477
58132SOL    HW276294   7.073  14.636  10.552
58133SOL     OW76295   7.918   0.970  11.257
58133SOL    HW176296   7.901   1.058  11.292
58133SOL    HW276297   7.832   0.931  11.248
58134SOL     OW76298   2.090   6.225   3.533
58134SOL    HW176299   2.159   6.291   3.532
58134SOL    HW276300   2.136   6.143   3.554
58135SOL     OW76301   0.457  11.522  14.085
58135SOL    HW176302   0.398  11.483  14.150
58135SOL    HW276303   0.407  11.594  14.048
58136SOL     OW76304   2.178   1.012  14.467
58136SOL    HW176305   2.124   0.933  14.463
58136SOL    HW276306   2.133   1.076  14.413
58137SOL     OW76307   4.978   7.294   3.012
58137SOL    HW176308   5.065   7.274   2.977
58137SOL    HW276309   4.964   7.386   2.991
58138SOL     OW76310   8.094  12.917   5.334
58138SOL    HW176311   8.076  12.965   5.253
58138SOL    HW276312   8.133  12.981   5.393
58139SOL     OW76313  12.979   9.526   6.414
58139SOL    HW176314  12.948   9.576   6.490
58139SOL    HW276315  12.955   9.579   6.338
58140SOL     OW76316  13.332   2.515   6.835
58140SOL    HW176317  13.249   2.562   6.844
58140SOL    HW276318  13.309   2.436   6.786
58141SOL     OW76319   7.091   8.040   0.718
58141SOL    HW176320   7.052   7.983   0.785
58141SOL    HW276321   7.040   8.023   0.639
58142SOL     OW76322  13.644   6.007  12.245
58142SOL    HW176323  13.615   6.008  12.336
58142SOL    HW276324  13.734   6.039  12.248
58143SOL     OW76325  13.758   5.873   8.556
58143SOL    HW176326  13.680   5.895   8.607
58143SOL    HW276327  13.825   5.855   8.621
58144SOL     OW76328   1.888   4.215  11.302
58144SOL    HW176329   1.862   4.304  11.327
58144SOL    HW276330   1.905   4.220  11.208
58145SOL     OW76331   7.537   3.394   8.011
58145SOL    HW176332   7.543   3.298   8.016
58145SOL    HW276333   7.622   3.421   7.977
58146SOL     OW76334  10.061  10.705   7.818
58146SOL    HW176335  10.153  10.680   7.827
58146SOL    HW276336  10.061  10.776   7.754
58147SOL     OW76337   5.180  11.564   8.221
58147SOL    HW176338   5.209  11.514   8.145
58147SOL    HW276339   5.106  11.514   8.256
58148SOL     OW76340  10.536  10.018  12.326
58148SOL    HW176341  10.455  10.020  12.377
58148SOL    HW276342  10.507  10.004  12.236
58149SOL     OW76343  13.621  12.930  14.557
58149SOL    HW176344  13.625  12.847  14.510
58149SOL    HW276345  13.713  12.958  14.562
58150SOL     OW76346  11.407   8.817  10.651
58150SOL    HW176347  11.429   8.881  10.719
58150SOL    HW276348  11.405   8.868  10.570
58151SOL     OW76349   8.827   2.099   0.766
58151SOL    HW176350   8.828   2.158   0.691
58151SOL    HW276351   8.778   2.147   0.833
58152SOL     OW76352   8.491  11.293   6.550
58152SOL    HW176353   8.462  11.317   6.462
58152SOL    HW276354   8.558  11.226   6.536
58153SOL     OW76355   4.614  11.017   6.908
58153SOL    HW176356   4.627  10.930   6.870
58153SOL    HW276357   4.563  11.000   6.988
58154SOL     OW76358   0.958  10.520   5.173
58154SOL    HW176359   0.963  10.579   5.249
58154SOL    HW276360   0.868  10.487   5.174
58155SOL     OW76361   1.527  13.740  14.640
58155SOL    HW176362   1.593  13.699  14.584
58155SOL    HW276363   1.495  13.670  14.695
58156SOL     OW76364   4.198  11.599  10.070
58156SOL    HW176365   4.125  11.641  10.025
58156SOL    HW276366   4.275  11.646  10.038
58157SOL     OW76367   5.495   6.820  13.490
58157SOL    HW176368   5.564   6.770  13.534
58157SOL    HW276369   5.419   6.814  13.547
58158SOL     OW76370   9.335   3.375   4.920
58158SOL    HW176371   9.400   3.444   4.906
58158SOL    HW276372   9.334   3.362   5.015
58159SOL     OW76373  12.561   7.250   3.145
58159SOL    HW176374  12.490   7.204   3.102
58159SOL    HW276375  12.636   7.239   3.087
58160SOL     OW76376   4.499   4.169  10.037
58160SOL    HW176377   4.590   4.150  10.063
58160SOL    HW276378   4.505   4.252   9.990
58161SOL     OW76379   2.785   1.355   2.146
58161SOL    HW176380   2.862   1.307   2.174
58161SOL    HW276381   2.797   1.443   2.183
58162SOL     OW76382   3.555  12.844   1.815
58162SOL    HW176383   3.619  12.820   1.747
58162SOL    HW276384   3.472  12.850   1.767
58163SOL     OW76385  11.141   8.042  12.641
58163SOL    HW176386  11.083   8.066  12.568
58163SOL    HW276387  11.084   8.037  12.717
58164SOL     OW76388   2.816   4.019   1.730
58164SOL    HW176389   2.891   4.037   1.787
58164SOL    HW276390   2.855   3.975   1.654
58165SOL     OW76391   8.503   9.176   9.930
58165SOL    HW176392   8.536   9.086   9.935
58165SOL    HW276393   8.408   9.167   9.940
58166SOL     OW76394  13.823   2.923   4.943
58166SOL    HW176395  13.881   2.990   4.906
58166SOL    HW276396  13.736   2.948   4.913
58167SOL     OW76397   6.024  10.836   0.003
58167SOL    HW176398   6.047  10.928   0.016
58167SOL    HW276399   5.929  10.833   0.017
58168SOL     OW76400   6.878   6.717   8.365
58168SOL    HW176401   6.817   6.790   8.379
58168SOL    HW276402   6.897   6.719   8.271
58169SOL     OW76403  14.791   8.648   7.353
58169SOL    HW176404  14.881   8.669   7.326
58169SOL    HW276405  14.778   8.558   7.326
58170SOL     OW76406   6.212  13.074   2.327
58170SOL    HW176407   6.227  13.052   2.235
58170SOL    HW276408   6.280  13.026   2.375
58171SOL     OW76409   2.856  14.531  10.039
58171SOL    HW176410   2.859  14.606  10.098
58171SOL    HW276411   2.839  14.456  10.097
58172SOL     OW76412   0.660   6.167  12.116
58172SOL    HW176413   0.739   6.201  12.076
58172SOL    HW276414   0.688   6.134  12.201
58173SOL     OW76415  13.161   4.491  10.401
58173SOL    HW176416  13.178   4.399  10.422
58173SOL    HW276417  13.220   4.540  10.458
58174SOL     OW76418  10.480   8.503  13.968
58174SOL    HW176419  10.494   8.543  13.882
58174SOL    HW276420  10.387   8.480  13.968
58175SOL     OW76421   7.640   4.404  12.439
58175SOL    HW176422   7.669   4.478  12.491
58175SOL    HW276423   7.613   4.338  12.503
58176SOL     OW76424  12.811   0.250  12.576
58176SOL    HW176425  12.730   0.199  12.577
58176SOL    HW276426  12.849   0.234  12.663
58177SOL     OW76427   2.052   9.721   7.669
58177SOL    HW176428   2.000   9.687   7.597
58177SOL    HW276429   1.988   9.753   7.732
58178SOL     OW76430   9.911   9.316  12.225
58178SOL    HW176431   9.834   9.344  12.175
58178SOL    HW276432   9.984   9.363  12.184
58179SOL     OW76433   9.316   3.559   3.397
58179SOL    HW176434   9.342   3.627   3.459
58179SOL    HW276435   9.223   3.545   3.415
58180SOL     OW76436   0.091   8.115   9.552
58180SOL    HW176437   0.017   8.150   9.502
58180SOL    HW276438   0.053   8.089   9.636
58181SOL     OW76439  13.420  13.927   1.140
58181SOL    HW176440  13.456  13.901   1.055
58181SOL    HW276441  13.482  13.893   1.204
58182SOL     OW76442   7.878  10.086  12.136
58182SOL    HW176443   7.962  10.092  12.091
58182SOL    HW276444   7.864  10.173  12.174
58183SOL     OW76445  10.681   8.085  14.236
58183SOL    HW176446  10.703   8.156  14.297
58183SOL    HW276447  10.600   8.048  14.271
58184SOL     OW76448   9.062   5.195   4.543
58184SOL    HW176449   9.085   5.268   4.600
58184SOL    HW276450   8.972   5.214   4.516
58185SOL     OW76451  12.409   0.244  10.075
58185SOL    HW176452  12.319   0.274  10.066
58185SOL    HW276453  12.447   0.302  10.141
58186SOL     OW76454  12.757   3.113  10.717
58186SOL    HW176455  12.814   3.162  10.776
58186SOL    HW276456  12.686   3.081  10.772
58187SOL     OW76457   5.191   9.901  14.842
58187SOL    HW176458   5.222   9.853   0.032
58187SOL    HW276459   5.097   9.911  14.857
58188SOL     OW76460   0.401  14.387  14.024
58188SOL    HW176461   0.386  14.447  13.951
58188SOL    HW276462   0.357  14.306  13.997
58189SOL     OW76463   3.049   3.137   3.352
58189SOL    HW176464   3.062   3.134   3.257
58189SOL    HW276465   3.040   3.231   3.371
58190SOL     OW76466   7.366  11.142  14.451
58190SOL    HW176467   7.317  11.202  14.507
58190SOL    HW276468   7.299  11.083  14.415
58191SOL     OW76469   2.496  13.369   6.442
58191SOL    HW176470   2.562  13.434   6.467
58191SOL    HW276471   2.546  13.288   6.429
58192SOL     OW76472  12.592   3.993   1.564
58192SOL    HW176473  12.550   4.064   1.613
58192SOL    HW276474  12.639   3.943   1.630
58193SOL     OW76475  12.507  13.141   5.993
58193SOL    HW176476  12.456  13.062   6.011
58193SOL    HW276477  12.509  13.147   5.897
58194SOL     OW76478   6.677  13.535   8.094
58194SOL    HW176479   6.589  13.572   8.093
58194SOL    HW276480   6.684  13.488   8.012
58195SOL     OW76481  12.367   8.266   7.060
58195SOL    HW176482  12.307   8.337   7.035
58195SOL    HW276483  12.398   8.230   6.977
58196SOL     OW76484   7.726   6.709   2.574
58196SOL    HW176485   7.767   6.654   2.508
58196SOL    HW276486   7.711   6.651   2.648
58197SOL     OW76487   0.473   2.102  10.927
58197SOL    HW176488   0.494   2.046  10.852
58197SOL    HW276489   0.382   2.080  10.948
58198SOL     OW76490  11.286  12.144  10.765
58198SOL    HW176491  11.237  12.105  10.838
58198SOL    HW276492  11.225  12.141  10.691
58199SOL     OW76493   1.133   2.030   4.798
58199SOL    HW176494   1.050   2.055   4.840
58199SOL    HW276495   1.180   1.981   4.865
58200SOL     OW76496   6.466   9.557   7.548
58200SOL    HW176497   6.490   9.643   7.582
58200SOL    HW276498   6.418   9.575   7.468
58201SOL     OW76499   4.800   5.786   7.241
58201SOL    HW176500   4.817   5.863   7.295
58201SOL    HW276501   4.763   5.821   7.160
58202SOL     OW76502   6.528  12.755   6.363
58202SOL    HW176503   6.469  12.791   6.428
58202SOL    HW276504   6.600  12.818   6.359
58203SOL     OW76505   9.418   0.034   2.317
58203SOL    HW176506   9.410   0.127   2.340
58203SOL    HW276507   9.336  14.883   2.347
58204SOL     OW76508   3.916   6.699   7.698
58204SOL    HW176509   3.881   6.657   7.777
58204SOL    HW276510   4.003   6.661   7.688
58205SOL     OW76511   6.872  13.073   1.938
58205SOL    HW176512   6.786  13.095   1.903
58205SOL    HW276513   6.909  13.157   1.965
58206SOL     OW76514   2.004  13.789  13.299
58206SOL    HW176515   2.006  13.806  13.204
58206SOL    HW276516   2.032  13.698  13.308
58207SOL     OW76517   7.692  11.160   3.771
58207SOL    HW176518   7.754  11.127   3.837
58207SOL    HW276519   7.748  11.195   3.701
58208SOL     OW76520   5.579  11.791  13.284
58208SOL    HW176521   5.546  11.716  13.333
58208SOL    HW276522   5.639  11.835  13.345
58209SOL     OW76523   1.564  10.144  11.430
58209SOL    HW176524   1.555  10.194  11.511
58209SOL    HW276525   1.615  10.202  11.373
58210SOL     OW76526  11.450  14.117   9.925
58210SOL    HW176527  11.367  14.069   9.917
58210SOL    HW276528  11.478  14.102  10.015
58211SOL     OW76529  14.806  13.657  10.856
58211SOL    HW176530  14.804  13.745  10.817
58211SOL    HW276531  14.822  13.598  10.782
58212SOL     OW76532   5.669   4.419  11.149
58212SOL    HW176533   5.625   4.503  11.131
58212SOL    HW276534   5.760   4.444  11.166
58213SOL     OW76535   2.022   7.753   2.320
58213SOL    HW176536   2.115   7.745   2.297
58213SOL    HW276537   1.975   7.704   2.253
58214SOL     OW76538   1.529   8.617   1.794
58214SOL    HW176539   1.446   8.665   1.787
58214SOL    HW276540   1.577   8.662   1.863
58215SOL     OW76541   9.992   5.227   9.027
58215SOL    HW176542  10.083   5.251   9.043
58215SOL    HW276543   9.953   5.223   9.114
58216SOL     OW76544   9.177   0.221   3.005
58216SOL    HW176545   9.142   0.308   3.028
58216SOL    HW276546   9.250   0.208   3.064
58217SOL     OW76547   3.409  14.666  10.477
58217SOL    HW176548   3.347  14.596  10.454
58217SOL    HW276549   3.481  14.656  10.414
58218SOL     OW76550   4.942   2.174   3.329
58218SOL    HW176551   4.865   2.230   3.332
58218SOL    HW276552   4.992   2.197   3.407
58219SOL     OW76553   2.468   2.871   2.504
58219SOL    HW176554   2.498   2.948   2.455
58219SOL    HW276555   2.453   2.904   2.593
58220SOL     OW76556  10.826  13.789   5.171
58220SOL    HW176557  10.763  13.816   5.239
58220SOL    HW276558  10.774  13.739   5.109
58221SOL     OW76559   9.571   4.068   0.242
58221SOL    HW176560   9.637   4.118   0.291
58221SOL    HW276561   9.596   4.078   0.150
58222SOL     OW76562   9.120  11.077   7.941
58222SOL    HW176563   9.085  11.150   7.993
58222SOL    HW276564   9.199  11.112   7.900
58223SOL     OW76565   0.746  12.765   1.363
58223SOL    HW176566   0.663  12.789   1.322
58223SOL    HW276567   0.721  12.722   1.445
58224SOL     OW76568   5.535   8.756   9.848
58224SOL    HW176569   5.542   8.790   9.937
58224SOL    HW276570   5.536   8.661   9.858
58225SOL     OW76571  11.036  13.014   8.893
58225SOL    HW176572  11.053  13.109   8.890
58225SOL    HW276573  11.056  12.984   8.804
58226SOL     OW76574   2.184   8.841   7.429
58226SOL    HW176575   2.280   8.838   7.435
58226SOL    HW276576   2.163   8.934   7.439
58227SOL     OW76577   2.295   7.168   2.900
58227SOL    HW176578   2.289   7.241   2.961
58227SOL    HW276579   2.357   7.107   2.940
58228SOL     OW76580   2.865  11.515  12.717
58228SOL    HW176581   2.936  11.467  12.759
58228SOL    HW276582   2.884  11.607  12.733
58229SOL     OW76583   6.615  12.650   6.889
58229SOL    HW176584   6.550  12.579   6.888
58229SOL    HW276585   6.691  12.611   6.932
58230SOL     OW76586  12.955   9.680   6.191
58230SOL    HW176587  12.904   9.711   6.117
58230SOL    HW276588  13.006   9.606   6.157
58231SOL     OW76589   9.425   4.203   7.517
58231SOL    HW176590   9.423   4.110   7.537
58231SOL    HW276591   9.410   4.209   7.423
58232SOL     OW76592   2.561   5.753   4.612
58232SOL    HW176593   2.495   5.786   4.551
58232SOL    HW276594   2.626   5.823   4.618
58233SOL     OW76595   3.280   4.948   7.652
58233SOL    HW176596   3.227   5.019   7.689
58233SOL    HW276597   3.370   4.969   7.677
58234SOL     OW76598   2.282  11.318  14.476
58234SOL    HW176599   2.238  11.353  14.553
58234SOL    HW276600   2.211  11.298  14.414
58235SOL     OW76601   0.872   8.878   9.138
58235SOL    HW176602   0.967   8.888   9.135
58235SOL    HW276603   0.858   8.791   9.174
58236SOL     OW76604  10.727   9.585   4.447
58236SOL    HW176605  10.802   9.634   4.480
58236SOL    HW276606  10.661   9.592   4.516
58237SOL     OW76607   5.980  13.623   1.428
58237SOL    HW176608   6.046  13.610   1.496
58237SOL    HW276609   5.960  13.534   1.397
58238SOL     OW76610   2.779   3.161   0.385
58238SOL    HW176611   2.856   3.208   0.351
58238SOL    HW276612   2.748   3.215   0.458
58239SOL     OW76613   1.102   8.204  12.695
58239SOL    HW176614   1.061   8.161  12.620
58239SOL    HW276615   1.124   8.132  12.754
58240SOL     OW76616   0.702   4.233   1.558
58240SOL    HW176617   0.704   4.143   1.590
58240SOL    HW276618   0.615   4.242   1.519
58241SOL     OW76619   9.007  11.544   8.373
58241SOL    HW176620   8.947  11.595   8.427
58241SOL    HW276621   8.959  11.463   8.354
58242SOL     OW76622   9.181   8.963   2.855
58242SOL    HW176623   9.256   8.972   2.915
58242SOL    HW276624   9.197   9.030   2.788
58243SOL     OW76625   4.928   3.308   0.626
58243SOL    HW176626   4.935   3.236   0.689
58243SOL    HW276627   4.894   3.381   0.677
58244SOL     OW76628  14.328  10.562   6.015
58244SOL    HW176629  14.387  10.596   6.082
58244SOL    HW276630  14.272  10.500   6.061
58245SOL     OW76631  14.513   4.219   4.286
58245SOL    HW176632  14.582   4.184   4.230
58245SOL    HW276633  14.483   4.298   4.242
58246SOL     OW76634   4.595  14.407   7.401
58246SOL    HW176635   4.646  14.482   7.372
58246SOL    HW276636   4.580  14.355   7.322
58247SOL     OW76637   6.967   6.159  11.471
58247SOL    HW176638   6.989   6.133  11.561
58247SOL    HW276639   7.052   6.166  11.427
58248SOL     OW76640  14.588   0.430  12.098
58248SOL    HW176641  14.647   0.360  12.071
58248SOL    HW276642  14.608   0.503  12.040
58249SOL     OW76643  11.808   6.072  11.171
58249SOL    HW176644  11.897   6.106  11.161
58249SOL    HW276645  11.816   5.979  11.150
58250SOL     OW76646  10.556   2.916   7.876
58250SOL    HW176647  10.622   2.862   7.832
58250SOL    HW276648  10.583   2.915   7.968
58251SOL     OW76649   9.636   4.513   2.496
58251SOL    HW176650   9.704   4.462   2.539
58251SOL    HW276651   9.669   4.527   2.407
58252SOL     OW76652   6.061   6.373  10.026
58252SOL    HW176653   5.988   6.418  10.068
58252SOL    HW276654   6.029   6.352   9.938
58253SOL     OW76655   9.430   0.814  14.847
58253SOL    HW176656   9.443   0.809   0.054
58253SOL    HW276657   9.392   0.730  14.823
58254SOL     OW76658  14.614  10.671  14.578
58254SOL    HW176659  14.558  10.601  14.612
58254SOL    HW276660  14.553  10.738  14.546
58255SOL     OW76661   7.178  12.687   2.039
58255SOL    HW176662   7.136  12.744   1.975
58255SOL    HW276663   7.230  12.746   2.094
58256SOL     OW76664   2.111   8.375  12.773
58256SOL    HW176665   2.162   8.326  12.838
58256SOL    HW276666   2.154   8.460  12.767
58257SOL     OW76667   7.355   3.761  10.240
58257SOL    HW176668   7.360   3.855  10.220
58257SOL    HW276669   7.303   3.756  10.320
58258SOL     OW76670   1.284  14.480   2.070
58258SOL    HW176671   1.224  14.409   2.047
58258SOL    HW276672   1.237  14.560   2.045
58259SOL     OW76673   3.939   5.596   8.137
58259SOL    HW176674   3.848   5.599   8.107
58259SOL    HW276675   3.991   5.593   8.057
58260SOL     OW76676  12.443   3.397  13.630
58260SOL    HW176677  12.424   3.323  13.573
58260SOL    HW276678  12.482   3.357  13.708
58261SOL     OW76679  13.184  14.429   9.193
58261SOL    HW176680  13.225  14.343   9.190
58261SOL    HW276681  13.251  14.486   9.230
58262SOL     OW76682   7.659   8.995  11.214
58262SOL    HW176683   7.695   8.913  11.180
58262SOL    HW276684   7.566   8.975  11.229
58263SOL     OW76685   8.914   3.493  11.143
58263SOL    HW176686   8.916   3.556  11.072
58263SOL    HW276687   9.000   3.452  11.141
58264SOL     OW76688   8.045  11.623   4.472
58264SOL    HW176689   8.137  11.616   4.499
58264SOL    HW276690   7.996  11.590   4.547
58265SOL     OW76691   4.321   5.970  11.678
58265SOL    HW176692   4.341   5.880  11.704
58265SOL    HW276693   4.225   5.973  11.672
58266SOL     OW76694  11.454   4.160   3.963
58266SOL    HW176695  11.364   4.185   3.981
58266SOL    HW276696  11.458   4.067   3.985
58267SOL     OW76697  11.498   0.819   6.149
58267SOL    HW176698  11.420   0.804   6.096
58267SOL    HW276699  11.515   0.734   6.191
58268SOL     OW76700   7.617  13.622  12.066
58268SOL    HW176701   7.585  13.532  12.061
58268SOL    HW276702   7.568  13.661  12.138
58269SOL     OW76703   5.117   6.866  13.246
58269SOL    HW176704   5.133   6.808  13.171
58269SOL    HW276705   5.056   6.816  13.301
58270SOL     OW76706   6.209  14.081   8.634
58270SOL    HW176707   6.206  14.151   8.699
58270SOL    HW276708   6.141  14.020   8.662
58271SOL     OW76709   9.867   8.060  10.281
58271SOL    HW176710   9.939   8.122  10.283
58271SOL    HW276711   9.808   8.089  10.351
58272SOL     OW76712   8.185   6.989   0.334
58272SOL    HW176713   8.156   7.049   0.403
58272SOL    HW276714   8.157   6.903   0.364
58273SOL     OW76715   6.293   3.967  14.219
58273SOL    HW176716   6.228   3.904  14.251
58273SOL    HW276717   6.369   3.913  14.196
58274SOL     OW76718   1.436   2.136  13.677
58274SOL    HW176719   1.501   2.167  13.739
58274SOL    HW276720   1.386   2.070  13.725
58275SOL     OW76721   3.726   2.964   2.936
58275SOL    HW176722   3.753   3.029   3.001
58275SOL    HW276723   3.716   2.882   2.985
58276SOL     OW76724  14.507   4.675  13.519
58276SOL    HW176725  14.564   4.598  13.516
58276SOL    HW276726  14.521   4.712  13.606
58277SOL     OW76727  11.775  11.418  13.227
58277SOL    HW176728  11.699  11.381  13.270
58277SOL    HW276729  11.739  11.474  13.159
58278SOL     OW76730   0.264   1.872   2.855
58278SOL    HW176731   0.171   1.871   2.834
58278SOL    HW276732   0.304   1.815   2.789
58279SOL     OW76733   7.364   3.819   2.000
58279SOL    HW176734   7.316   3.898   2.023
58279SOL    HW276735   7.298   3.750   1.998
58280SOL     OW76736   4.648   0.327  11.183
58280SOL    HW176737   4.727   0.274  11.184
58280SOL    HW276738   4.607   0.310  11.268
58281SOL     OW76739   6.953   8.183   1.286
58281SOL    HW176740   6.858   8.195   1.290
58281SOL    HW276741   6.988   8.242   1.352
58282SOL     OW76742  11.960  14.460   4.571
58282SOL    HW176743  11.972  14.399   4.499
58282SOL    HW276744  12.004  14.419   4.646
58283SOL     OW76745   6.922   5.449   9.785
58283SOL    HW176746   6.837   5.419   9.818
58283SOL    HW276747   6.900   5.525   9.731
58284SOL     OW76748   6.531  11.811  14.026
58284SOL    HW176749   6.530  11.907  14.030
58284SOL    HW276750   6.444  11.785  14.056
58285SOL     OW76751  11.598  14.383  10.181
58285SOL    HW176752  11.687  14.416  10.194
58285SOL    HW276753  11.610  14.291  10.156
58286SOL     OW76754   1.443   3.632   1.972
58286SOL    HW176755   1.355   3.660   1.998
58286SOL    HW276756   1.451   3.660   1.881
58287SOL     OW76757   2.748   6.007   0.384
58287SOL    HW176758   2.667   5.987   0.432
58287SOL    HW276759   2.756   5.936   0.321
58288SOL     OW76760   3.712   0.021   7.226
58288SOL    HW176761   3.653  14.867   7.162
58288SOL    HW276762   3.655   0.050   7.297
58289SOL     OW76763  12.495   4.121   2.023
58289SOL    HW176764  12.400   4.122   2.032
58289SOL    HW276765  12.521   4.213   2.024
58290SOL     OW76766   6.095   5.049   4.236
58290SOL    HW176767   6.154   5.047   4.312
58290SOL    HW276768   6.130   4.981   4.178
58291SOL     OW76769   4.745   3.413   4.018
58291SOL    HW176770   4.784   3.441   4.100
58291SOL    HW276771   4.810   3.355   3.978
58292SOL     OW76772   2.278   6.189  10.627
58292SOL    HW176773   2.309   6.279  10.637
58292SOL    HW276774   2.305   6.164  10.539
58293SOL     OW76775   9.584  11.398   6.733
58293SOL    HW176776   9.607  11.326   6.792
58293SOL    HW276777   9.657  11.404   6.672
58294SOL     OW76778  12.646  12.476  11.645
58294SOL    HW176779  12.682  12.449  11.560
58294SOL    HW276780  12.718  12.461  11.707
58295SOL     OW76781   0.591  14.337  11.139
58295SOL    HW176782   0.502  14.372  11.136
58295SOL    HW276783   0.606  14.302  11.052
58296SOL     OW76784   5.014   7.520  11.193
58296SOL    HW176785   5.004   7.439  11.143
58296SOL    HW276786   4.924   7.543  11.218
58297SOL     OW76787  11.552  12.854   7.729
58297SOL    HW176788  11.470  12.904   7.730
58297SOL    HW276789  11.526  12.766   7.755
58298SOL     OW76790  14.116  12.718  10.408
58298SOL    HW176791  14.057  12.782  10.369
58298SOL    HW276792  14.060  12.666  10.466
58299SOL     OW76793  13.621   5.804   0.973
58299SOL    HW176794  13.692   5.793   0.910
58299SOL    HW276795  13.572   5.879   0.941
58300SOL     OW76796   1.319   8.807   5.015
58300SOL    HW176797   1.389   8.855   4.971
58300SOL    HW276798   1.361   8.726   5.046
58301SOL     OW76799   5.004  14.227   7.963
58301SOL    HW176800   5.064  14.289   8.004
58301SOL    HW276801   5.054  14.190   7.890
58302SOL     OW76802   1.556  12.849   8.253
58302SOL    HW176803   1.597  12.801   8.325
58302SOL    HW276804   1.608  12.928   8.242
58303SOL     OW76805   2.682   7.482   1.493
58303SOL    HW176806   2.671   7.489   1.588
58303SOL    HW276807   2.641   7.561   1.458
58304SOL     OW76808   4.623   3.795   2.919
58304SOL    HW176809   4.644   3.825   3.008
58304SOL    HW276810   4.527   3.797   2.915
58305SOL     OW76811   3.185   3.599   7.074
58305SOL    HW176812   3.214   3.508   7.086
58305SOL    HW276813   3.246   3.651   7.126
58306SOL     OW76814  14.259  14.118   9.026
58306SOL    HW176815  14.328  14.118   9.092
58306SOL    HW276816  14.194  14.056   9.059
58307SOL     OW76817   1.100   0.676   2.830
58307SOL    HW176818   1.114   0.650   2.921
58307SOL    HW276819   1.112   0.771   2.831
58308SOL     OW76820   7.571  13.780   2.704
58308SOL    HW176821   7.596  13.804   2.615
58308SOL    HW276822   7.580  13.861   2.754
58309SOL     OW76823   3.434  11.221   1.772
58309SOL    HW176824   3.443  11.316   1.768
58309SOL    HW276825   3.461  11.190   1.686
58310SOL     OW76826   6.015  12.916  10.251
58310SOL    HW176827   6.090  12.943  10.305
58310SOL    HW276828   5.995  12.827  10.281
58311SOL     OW76829   3.448   3.239  12.163
58311SOL    HW176830   3.453   3.249  12.068
58311SOL    HW276831   3.403   3.319  12.192
58312SOL     OW76832   0.799  11.139   1.246
58312SOL    HW176833   0.784  11.233   1.254
58312SOL    HW276834   0.756  11.101   1.323
58313SOL     OW76835   7.441  11.507  11.929
58313SOL    HW176836   7.521  11.536  11.972
58313SOL    HW276837   7.393  11.588  11.910
58314SOL     OW76838  14.320  13.767   0.305
58314SOL    HW176839  14.293  13.685   0.264
58314SOL    HW276840  14.336  13.826   0.232
58315SOL     OW76841   8.321   5.369   4.917
58315SOL    HW176842   8.377   5.292   4.925
58315SOL    HW276843   8.254   5.344   4.854
58316SOL     OW76844  13.103   0.161  10.512
58316SOL    HW176845  13.120   0.067  10.503
58316SOL    HW276846  13.050   0.168  10.591
58317SOL     OW76847  12.467  11.236   3.516
58317SOL    HW176848  12.409  11.305   3.483
58317SOL    HW276849  12.409  11.176   3.562
58318SOL     OW76850  10.009   5.929   6.617
58318SOL    HW176851  10.095   5.928   6.660
58318SOL    HW276852  10.029   5.955   6.527
58319SOL     OW76853   3.950  11.467  10.240
58319SOL    HW176854   3.974  11.528  10.170
58319SOL    HW276855   4.015  11.397  10.234
58320SOL     OW76856  12.484   2.621  10.955
58320SOL    HW176857  12.542   2.563  11.005
58320SOL    HW276858  12.395   2.595  10.982
58321SOL     OW76859   9.577   6.482  10.954
58321SOL    HW176860   9.577   6.398  11.000
58321SOL    HW276861   9.578   6.458  10.861
58322SOL     OW76862   7.913  12.795  12.733
58322SOL    HW176863   7.849  12.788  12.663
58322SOL    HW276864   7.904  12.714  12.783
58323SOL     OW76865   8.492   6.808  12.282
58323SOL    HW176866   8.581   6.840  12.266
58323SOL    HW276867   8.437   6.887  12.277
58324SOL     OW76868   7.724  13.829   3.860
58324SOL    HW176869   7.748  13.746   3.817
58324SOL    HW276870   7.796  13.848   3.919
58325SOL     OW76871   2.883  12.977  10.236
58325SOL    HW176872   2.835  12.949  10.158
58325SOL    HW276873   2.917  12.896  10.274
58326SOL     OW76874   2.512   3.425  11.606
58326SOL    HW176875   2.586   3.474  11.569
58326SOL    HW276876   2.475   3.484  11.672
58327SOL     OW76877   2.632   7.826  11.146
58327SOL    HW176878   2.647   7.920  11.152
58327SOL    HW276879   2.540   7.815  11.168
58328SOL     OW76880  11.800   1.283  11.110
58328SOL    HW176881  11.763   1.230  11.038
58328SOL    HW276882  11.836   1.218  11.170
58329SOL     OW76883   4.441  13.301  12.365
58329SOL    HW176884   4.455  13.345  12.281
58329SOL    HW276885   4.380  13.230  12.344
58330SOL     OW76886   3.360   2.638   7.019
58330SOL    HW176887   3.441   2.678   7.051
58330SOL    HW276888   3.343   2.567   7.081
58331SOL     OW76889  11.856   8.803   5.937
58331SOL    HW176890  11.765   8.824   5.917
58331SOL    HW276891  11.878   8.731   5.877
58332SOL     OW76892  12.841   0.061  14.632
58332SOL    HW176893  12.886   0.138  14.598
58332SOL    HW276894  12.789   0.093  14.706
58333SOL     OW76895   0.962   7.119  14.781
58333SOL    HW176896   0.949   7.087  14.691
58333SOL    HW276897   0.898   7.189  14.790
58334SOL     OW76898   4.452   6.349  10.218
58334SOL    HW176899   4.433   6.284  10.150
58334SOL    HW276900   4.481   6.297  10.293
58335SOL     OW76901   2.155   8.238  10.380
58335SOL    HW176902   2.159   8.143  10.392
58335SOL    HW276903   2.097   8.250  10.305
58336SOL     OW76904   5.500   3.893  13.724
58336SOL    HW176905   5.431   3.862  13.783
58336SOL    HW276906   5.558   3.817  13.714
58337SOL     OW76907   8.917   6.979  12.775
58337SOL    HW176908   8.885   6.909  12.832
58337SOL    HW276909   8.924   7.055  12.833
58338SOL     OW76910   4.119   5.084   6.092
58338SOL    HW176911   4.161   5.135   6.161
58338SOL    HW276912   4.053   5.032   6.138
58339SOL     OW76913   8.204  14.242   4.916
58339SOL    HW176914   8.117  14.239   4.956
58339SOL    HW276915   8.248  14.162   4.946
58340SOL     OW76916   2.645   5.612  14.887
58340SOL    HW176917   2.674   5.627  14.797
58340SOL    HW276918   2.726   5.603   0.050
58341SOL     OW76919   9.014  13.214   6.701
58341SOL    HW176920   9.060  13.130   6.702
58341SOL    HW276921   8.925  13.193   6.730
58342SOL     OW76922   5.879  13.148   0.199
58342SOL    HW176923   5.926  13.189   0.126
58342SOL    HW276924   5.939  13.081   0.230
58343SOL     OW76925  14.154   0.004   8.362
58343SOL    HW176926  14.075  14.838   8.369
58343SOL    HW276927  14.210  14.842   8.300
58344SOL     OW76928   8.462  13.178   7.803
58344SOL    HW176929   8.430  13.205   7.889
58344SOL    HW276930   8.413  13.232   7.741
58345SOL     OW76931   7.447   1.730  12.154
58345SOL    HW176932   7.369   1.674  12.148
58345SOL    HW276933   7.443   1.766  12.243
58346SOL     OW76934   2.783  14.842   3.380
58346SOL    HW176935   2.874  14.813   3.383
58346SOL    HW276936   2.747  14.799   3.303
58347SOL     OW76937  12.529  13.953   1.928
58347SOL    HW176938  12.585  13.992   1.861
58347SOL    HW276939  12.574  13.872   1.953
58348SOL     OW76940  10.838   5.601   1.840
58348SOL    HW176941  10.771   5.669   1.836
58348SOL    HW276942  10.910   5.641   1.888
58349SOL     OW76943   1.253  14.430   6.317
58349SOL    HW176944   1.159  14.430   6.335
58349SOL    HW276945   1.271  14.341   6.286
58350SOL     OW76946   0.827  11.019   9.805
58350SOL    HW176947   0.755  11.014   9.867
58350SOL    HW276948   0.789  10.995   9.721
58351SOL     OW76949  12.638   8.483  10.343
58351SOL    HW176950  12.600   8.395  10.340
58351SOL    HW276951  12.565   8.540  10.366
58352SOL     OW76952   0.655  10.297   3.039
58352SOL    HW176953   0.685  10.290   3.129
58352SOL    HW276954   0.729  10.268   2.986
58353SOL     OW76955  13.161  12.550  14.281
58353SOL    HW176956  13.090  12.608  14.252
58353SOL    HW276957  13.174  12.572  14.373
58354SOL     OW76958  11.912   2.692   5.757
58354SOL    HW176959  11.848   2.744   5.709
58354SOL    HW276960  11.933   2.619   5.698
58355SOL     OW76961   8.002  11.822   3.810
58355SOL    HW176962   8.081  11.820   3.757
58355SOL    HW276963   8.023  11.768   3.886
58356SOL     OW76964   2.075  14.226  11.388
58356SOL    HW176965   2.028  14.174  11.453
58356SOL    HW276966   2.010  14.288  11.355
58357SOL     OW76967   0.925   0.964   5.424
58357SOL    HW176968   0.944   0.965   5.517
58357SOL    HW276969   1.009   0.940   5.383
58358SOL     OW76970  13.001   7.026   8.125
58358SOL    HW176971  12.924   7.068   8.163
58358SOL    HW276972  13.034   6.970   8.195
58359SOL     OW76973   3.358   0.282   6.331
58359SOL    HW176974   3.347   0.370   6.365
58359SOL    HW276975   3.406   0.293   6.249
58360SOL     OW76976  14.849   9.637  11.114
58360SOL    HW176977  14.759   9.654  11.141
58360SOL    HW276978  14.872   9.710  11.057
58361SOL     OW76979  11.316   5.364  10.636
58361SOL    HW176980  11.401   5.386  10.597
58361SOL    HW276981  11.306   5.425  10.709
58362SOL     OW76982   8.866   2.954  11.830
58362SOL    HW176983   8.814   2.888  11.876
58362SOL    HW276984   8.953   2.915  11.821
58363SOL     OW76985  14.591   8.281   4.573
58363SOL    HW176986  14.544   8.208   4.612
58363SOL    HW276987  14.529   8.319   4.510
58364SOL     OW76988  13.144   6.729   8.963
58364SOL    HW176989  13.212   6.786   8.926
58364SOL    HW276990  13.162   6.643   8.926
58365SOL     OW76991   1.634   2.541   8.881
58365SOL    HW176992   1.601   2.600   8.949
58365SOL    HW276993   1.598   2.577   8.799
58366SOL     OW76994   0.234   9.537  13.647
58366SOL    HW176995   0.260   9.592  13.574
58366SOL    HW276996   0.295   9.558  13.717
58367SOL     OW76997   6.833  14.564  11.636
58367SOL    HW176998   6.757  14.571  11.578
58367SOL    HW276999   6.908  14.554  11.577
58368SOL     OW77000   8.956   7.495   7.117
58368SOL    HW177001   8.873   7.516   7.074
58368SOL    HW277002   9.019   7.555   7.079
58369SOL     OW77003  12.838   5.831   2.895
58369SOL    HW177004  12.793   5.811   2.977
58369SOL    HW277005  12.893   5.754   2.878
58370SOL     OW77006   3.795   1.359   8.804
58370SOL    HW177007   3.828   1.293   8.743
58370SOL    HW277008   3.865   1.425   8.807
58371SOL     OW77009  14.365  13.902   2.647
58371SOL    HW177010  14.434  13.968   2.661
58371SOL    HW277011  14.322  13.893   2.731
58372SOL     OW77012  13.965   4.245   6.042
58372SOL    HW177013  13.933   4.334   6.049
58372SOL    HW277014  13.889   4.190   6.059
58373SOL     OW77015   2.331   7.438   9.166
58373SOL    HW177016   2.305   7.469   9.253
58373SOL    HW277017   2.355   7.517   9.119
58374SOL     OW77018  10.160   2.431   8.974
58374SOL    HW177019  10.186   2.347   9.013
58374SOL    HW277020  10.123   2.481   9.046
58375SOL     OW77021  11.503   1.407   0.393
58375SOL    HW177022  11.516   1.438   0.303
58375SOL    HW277023  11.537   1.317   0.393
58376SOL     OW77024   6.619   0.183   9.051
58376SOL    HW177025   6.599   0.276   9.062
58376SOL    HW277026   6.673   0.161   9.127
58377SOL     OW77027   4.452  13.851   2.279
58377SOL    HW177028   4.512  13.897   2.339
58377SOL    HW277029   4.459  13.759   2.304
58378SOL     OW77030   9.219   2.127  13.161
58378SOL    HW177031   9.189   2.039  13.137
58378SOL    HW277032   9.150   2.161  13.219
58379SOL     OW77033   8.410   8.710   7.656
58379SOL    HW177034   8.335   8.653   7.675
58379SOL    HW277035   8.417   8.767   7.733
58380SOL     OW77036  10.180   2.470   0.122
58380SOL    HW177037  10.146   2.399   0.067
58380SOL    HW277038  10.245   2.514   0.066
58381SOL     OW77039   4.703   8.358   0.105
58381SOL    HW177040   4.720   8.295   0.035
58381SOL    HW277041   4.706   8.306   0.185
58382SOL     OW77042   7.169   8.957   7.821
58382SOL    HW177043   7.086   8.988   7.856
58382SOL    HW277044   7.165   8.862   7.832
58383SOL     OW77045   1.146   3.961  11.260
58383SOL    HW177046   1.221   3.906  11.237
58383SOL    HW277047   1.070   3.914  11.225
58384SOL     OW77048   5.175   7.080  13.597
58384SOL    HW177049   5.189   7.054  13.688
58384SOL    HW277050   5.084   7.109  13.595
58385SOL     OW77051  12.211   8.713   2.438
58385SOL    HW177052  12.156   8.791   2.432
58385SOL    HW277053  12.294   8.744   2.473
58386SOL     OW77054   6.354  11.730   9.251
58386SOL    HW177055   6.261  11.713   9.238
58386SOL    HW277056   6.359  11.775   9.335
58387SOL     OW77057   5.305   6.838  11.105
58387SOL    HW177058   5.392   6.819  11.070
58387SOL    HW277059   5.282   6.760  11.156
58388SOL     OW77060   6.232   2.459   1.261
58388SOL    HW177061   6.270   2.530   1.313
58388SOL    HW277062   6.297   2.441   1.193
58389SOL     OW77063   6.170   9.781  13.993
58389SOL    HW177064   6.193   9.691  13.968
58389SOL    HW277065   6.089   9.799  13.946
58390SOL     OW77066   5.366  12.109   1.891
58390SOL    HW177067   5.337  12.126   1.801
58390SOL    HW277068   5.454  12.073   1.881
58391SOL     OW77069  13.008  13.612   5.471
58391SOL    HW177070  12.969  13.608   5.558
58391SOL    HW277071  12.949  13.560   5.416
58392SOL     OW77072   9.191  14.078  12.392
58392SOL    HW177073   9.226  14.033  12.315
58392SOL    HW277074   9.185  14.170  12.366
58393SOL     OW77075   3.216  10.905   0.725
58393SOL    HW177076   3.309  10.887   0.742
58393SOL    HW277077   3.173  10.885   0.808
58394SOL     OW77078  12.748   6.242   6.381
58394SOL    HW177079  12.696   6.306   6.332
58394SOL    HW277080  12.796   6.194   6.313
58395SOL     OW77081   1.467   5.378  14.505
58395SOL    HW177082   1.517   5.458  14.521
58395SOL    HW277083   1.448   5.380  14.411
58396SOL     OW77084   5.634   2.616   4.165
58396SOL    HW177085   5.692   2.670   4.219
58396SOL    HW277086   5.547   2.631   4.201
58397SOL     OW77087  14.565   9.023   3.288
58397SOL    HW177088  14.477   8.988   3.305
58397SOL    HW277089  14.585   8.991   3.200
58398SOL     OW77090   7.303  13.866   9.602
58398SOL    HW177091   7.269  13.950   9.633
58398SOL    HW277092   7.310  13.876   9.507
58399SOL     OW77093   9.246   2.681   3.845
58399SOL    HW177094   9.315   2.716   3.788
58399SOL    HW277095   9.292   2.628   3.909
58400SOL     OW77096   6.985   1.719   5.097
58400SOL    HW177097   6.928   1.766   5.158
58400SOL    HW277098   6.925   1.680   5.034
58401SOL     OW77099   6.990   6.228  14.669
58401SOL    HW177100   6.921   6.166  14.645
58401SOL    HW277101   7.015   6.201  14.757
58402SOL     OW77102  10.879   8.892   5.584
58402SOL    HW177103  10.811   8.867   5.521
58402SOL    HW277104  10.858   8.983   5.607
58403SOL     OW77105  10.541  14.432   4.142
58403SOL    HW177106  10.585  14.347   4.134
58403SOL    HW277107  10.587  14.488   4.079
58404SOL     OW77108  10.107   6.810   4.033
58404SOL    HW177109  10.184   6.790   4.086
58404SOL    HW277110  10.090   6.730   3.983
58405SOL     OW77111  13.669  12.823   8.868
58405SOL    HW177112  13.694  12.755   8.805
58405SOL    HW277113  13.637  12.895   8.814
58406SOL     OW77114   5.831  10.699  12.416
58406SOL    HW177115   5.906  10.758  12.417
58406SOL    HW277116   5.759  10.751  12.452
58407SOL     OW77117   5.513   0.156   7.744
58407SOL    HW177118   5.604   0.171   7.720
58407SOL    HW277119   5.467   0.234   7.711
58408SOL     OW77120   6.810  14.333   8.146
58408SOL    HW177121   6.785  14.426   8.150
58408SOL    HW277122   6.778  14.303   8.061
58409SOL     OW77123   5.669   0.237  12.876
58409SOL    HW177124   5.731   0.289  12.825
58409SOL    HW277125   5.693   0.147  12.859
58410SOL     OW77126   2.699   6.799  13.545
58410SOL    HW177127   2.670   6.888  13.561
58410SOL    HW277128   2.768   6.808  13.480
58411SOL     OW77129  11.558   6.234  10.630
58411SOL    HW177130  11.487   6.284  10.590
58411SOL    HW277131  11.532   6.223  10.721
58412SOL     OW77132   2.048   6.758  14.062
58412SOL    HW177133   2.013   6.840  14.094
58412SOL    HW277134   2.117   6.735  14.125
58413SOL     OW77135   5.780   7.299   9.726
58413SOL    HW177136   5.762   7.388   9.758
58413SOL    HW277137   5.772   7.306   9.631
58414SOL     OW77138  13.265  11.238   7.484
58414SOL    HW177139  13.248  11.332   7.498
58414SOL    HW277140  13.317  11.236   7.404
58415SOL     OW77141   6.279   5.595  14.045
58415SOL    HW177142   6.370   5.623  14.043
58415SOL    HW277143   6.272   5.529  13.977
58416SOL     OW77144  10.283   6.614   1.489
58416SOL    HW177145  10.279   6.644   1.580
58416SOL    HW277146  10.193   6.589   1.468
58417SOL     OW77147  10.659  10.334   6.340
58417SOL    HW177148  10.588  10.394   6.317
58417SOL    HW277149  10.637  10.304   6.428
58418SOL     OW77150   2.182   4.999   6.578
58418SOL    HW177151   2.158   4.993   6.486
58418SOL    HW277152   2.275   4.975   6.579
58419SOL     OW77153   9.020  13.761   1.272
58419SOL    HW177154   9.047  13.781   1.182
58419SOL    HW277155   9.102  13.764   1.323
58420SOL     OW77156   8.322   1.281   1.000
58420SOL    HW177157   8.344   1.309   0.911
58420SOL    HW277158   8.402   1.297   1.050
58421SOL     OW77159   8.445  13.420   1.093
58421SOL    HW177160   8.374  13.409   1.030
58421SOL    HW277161   8.402  13.423   1.178
58422SOL     OW77162   6.054   1.889  10.311
58422SOL    HW177163   6.126   1.867  10.253
58422SOL    HW277164   5.979   1.903  10.253
58423SOL     OW77165   4.375  12.467   5.686
58423SOL    HW177166   4.350  12.483   5.595
58423SOL    HW277167   4.293  12.450   5.731
58424SOL     OW77168   2.308   4.151   3.757
58424SOL    HW177169   2.390   4.192   3.732
58424SOL    HW277170   2.333   4.064   3.789
58425SOL     OW77171  12.805   1.518   3.264
58425SOL    HW177172  12.740   1.461   3.307
58425SOL    HW277173  12.847   1.461   3.199
58426SOL     OW77174  11.781   3.842   8.540
58426SOL    HW177175  11.800   3.884   8.624
58426SOL    HW277176  11.751   3.913   8.483
58427SOL     OW77177   4.098  14.481   4.647
58427SOL    HW177178   4.138  14.568   4.654
58427SOL    HW277179   4.151  14.426   4.705
58428SOL     OW77180  12.895  13.442   9.359
58428SOL    HW177181  12.939  13.357   9.356
58428SOL    HW277182  12.802  13.420   9.352
58429SOL     OW77183  12.483   0.533  13.420
58429SOL    HW177184  12.498   0.548  13.327
58429SOL    HW277185  12.400   0.485  13.424
58430SOL     OW77186   6.588   2.073  14.425
58430SOL    HW177187   6.617   2.146  14.371
58430SOL    HW277188   6.493   2.087  14.436
58431SOL     OW77189  13.764   4.053   7.986
58431SOL    HW177190  13.695   4.098   8.034
58431SOL    HW277191  13.796   3.986   8.047
58432SOL     OW77192   2.503  12.313  11.343
58432SOL    HW177193   2.548  12.309  11.427
58432SOL    HW277194   2.478  12.223  11.323
58433SOL     OW77195   3.658   4.656  10.689
58433SOL    HW177196   3.578   4.642  10.740
58433SOL    HW277197   3.720   4.693  10.751
58434SOL     OW77198   8.275  11.930   3.507
58434SOL    HW177199   8.295  11.981   3.428
58434SOL    HW277200   8.227  11.991   3.563
58435SOL     OW77201   8.637   0.321  10.621
58435SOL    HW177202   8.666   0.303  10.531
58435SOL    HW277203   8.671   0.408  10.640
58436SOL     OW77204   3.125   1.999  12.623
58436SOL    HW177205   3.171   1.949  12.556
58436SOL    HW277206   3.057   1.940  12.656
58437SOL     OW77207   9.725   7.670   1.929
58437SOL    HW177208   9.695   7.603   1.867
58437SOL    HW277209   9.650   7.728   1.940
58438SOL     OW77210   5.608   9.343   7.550
58438SOL    HW177211   5.598   9.359   7.644
58438SOL    HW277212   5.702   9.335   7.537
58439SOL     OW77213   4.762  11.984   6.635
58439SOL    HW177214   4.704  12.060   6.631
58439SOL    HW277215   4.746  11.939   6.552
58440SOL     OW77216   1.379   0.809   4.764
58440SOL    HW177217   1.462   0.801   4.811
58440SOL    HW277218   1.344   0.720   4.763
58441SOL     OW77219   3.028  10.314   0.382
58441SOL    HW177220   2.988  10.268   0.456
58441SOL    HW277221   2.953  10.349   0.333
58442SOL     OW77222   7.674  10.251  14.442
58442SOL    HW177223   7.666  10.229  14.349
58442SOL    HW277224   7.683  10.167  14.486
58443SOL     OW77225   6.461   9.958   0.468
58443SOL    HW177226   6.393  10.012   0.507
58443SOL    HW277227   6.509  10.018   0.410
58444SOL     OW77228   3.907   2.677  11.479
58444SOL    HW177229   3.922   2.593  11.436
58444SOL    HW277230   3.835   2.717  11.430
58445SOL     OW77231   5.431   4.037   1.057
58445SOL    HW177232   5.519   4.002   1.071
58445SOL    HW277233   5.372   3.964   1.075
58446SOL     OW77234   4.169  14.343   4.911
58446SOL    HW177235   4.085  14.379   4.941
58446SOL    HW277236   4.230  14.364   4.982
58447SOL     OW77237   4.436   1.396   8.599
58447SOL    HW177238   4.475   1.369   8.682
58447SOL    HW277239   4.496   1.363   8.532
58448SOL     OW77240  11.277  13.579  11.911
58448SOL    HW177241  11.252  13.567  12.002
58448SOL    HW277242  11.205  13.539  11.862
58449SOL     OW77243   8.014   0.684   4.728
58449SOL    HW177244   7.950   0.755   4.728
58449SOL    HW277245   7.997   0.637   4.647
58450SOL     OW77246  13.349   2.963  14.043
58450SOL    HW177247  13.291   3.035  14.017
58450SOL    HW277248  13.384   2.929  13.961
58451SOL     OW77249   6.920   7.954   0.505
58451SOL    HW177250   6.890   7.967   0.414
58451SOL    HW277251   6.841   7.927   0.552
58452SOL     OW77252   3.216  14.739  10.658
58452SOL    HW177253   3.133  14.747  10.611
58452SOL    HW277254   3.283  14.748  10.591
58453SOL     OW77255   7.513  11.401  11.564
58453SOL    HW177256   7.567  11.371  11.491
58453SOL    HW277257   7.564  11.471  11.605
58454SOL     OW77258   1.180  14.596   5.989
58454SOL    HW177259   1.151  14.627   6.075
58454SOL    HW277260   1.098  14.579   5.942
58455SOL     OW77261  12.127  12.858   9.189
58455SOL    HW177262  12.099  12.948   9.175
58455SOL    HW277263  12.054  12.805   9.155
58456SOL     OW77264   0.856   5.055   4.250
58456SOL    HW177265   0.910   4.979   4.273
58456SOL    HW277266   0.916   5.116   4.209
58457SOL     OW77267  11.984  10.340  10.823
58457SOL    HW177268  12.016  10.425  10.792
58457SOL    HW277269  12.054  10.279  10.803
58458SOL     OW77270  13.319   7.040  13.797
58458SOL    HW177271  13.250   6.975  13.780
58458SOL    HW277272  13.287   7.090  13.873
58459SOL     OW77273  13.799   5.377  12.451
58459SOL    HW177274  13.720   5.342  12.493
58459SOL    HW277275  13.805   5.467  12.482
58460SOL     OW77276   4.331  14.229  13.486
58460SOL    HW177277   4.367  14.317  13.485
58460SOL    HW277278   4.396  14.176  13.441
58461SOL     OW77279   9.795  12.212   1.964
58461SOL    HW177280   9.791  12.248   1.875
58461SOL    HW277281   9.807  12.288   2.020
58462SOL     OW77282   4.870   8.372   6.566
58462SOL    HW177283   4.945   8.353   6.510
58462SOL    HW277284   4.900   8.442   6.624
58463SOL     OW77285   9.677   8.153   9.694
58463SOL    HW177286   9.651   8.106   9.774
58463SOL    HW277287   9.688   8.084   9.629
58464SOL     OW77288   3.102   8.244   0.503
58464SOL    HW177289   3.129   8.211   0.589
58464SOL    HW277290   3.007   8.250   0.508
58465SOL     OW77291   4.242  12.521   4.246
58465SOL    HW177292   4.244  12.506   4.151
58465SOL    HW277293   4.215  12.612   4.255
58466SOL     OW77294   5.003   0.066   2.766
58466SOL    HW177295   5.044   0.003   2.826
58466SOL    HW277296   5.051   0.147   2.782
58467SOL     OW77297   9.870   2.948   0.180
58467SOL    HW177298   9.887   2.854   0.172
58467SOL    HW277299   9.901   2.971   0.268
58468SOL     OW77300  10.918  14.768  10.812
58468SOL    HW177301  10.862  14.702  10.853
58468SOL    HW277302  10.883  14.851  10.843
58469SOL     OW77303   8.442   2.671   5.694
58469SOL    HW177304   8.364   2.635   5.737
58469SOL    HW277305   8.512   2.658   5.758
58470SOL     OW77306   5.964   3.488   9.928
58470SOL    HW177307   5.893   3.527   9.876
58470SOL    HW277308   6.024   3.452   9.862
58471SOL     OW77309   9.608   2.103   8.697
58471SOL    HW177310   9.647   2.177   8.743
58471SOL    HW277311   9.584   2.041   8.767
58472SOL     OW77312   9.112   6.788  12.513
58472SOL    HW177313   9.035   6.774  12.569
58472SOL    HW277314   9.143   6.875  12.536
58473SOL     OW77315   6.735   7.832   5.462
58473SOL    HW177316   6.691   7.845   5.546
58473SOL    HW277317   6.826   7.857   5.478
58474SOL     OW77318   7.987   9.342   2.973
58474SOL    HW177319   7.926   9.411   2.945
58474SOL    HW277320   8.065   9.388   3.003
58475SOL     OW77321   0.571   4.817   5.280
58475SOL    HW177322   0.492   4.801   5.332
58475SOL    HW277323   0.546   4.795   5.190
58476SOL     OW77324   8.353   5.284   7.981
58476SOL    HW177325   8.443   5.277   8.013
58476SOL    HW277326   8.350   5.367   7.934
58477SOL     OW77327   0.919   2.439  14.468
58477SOL    HW177328   0.957   2.500  14.403
58477SOL    HW277329   0.964   2.356  14.451
58478SOL     OW77330   3.930  12.456  14.574
58478SOL    HW177331   3.900  12.467  14.484
58478SOL    HW277332   3.925  12.362  14.589
58479SOL     OW77333   1.617  10.746   5.058
58479SOL    HW177334   1.539  10.690   5.057
58479SOL    HW277335   1.586  10.830   5.022
58480SOL     OW77336   5.897   4.406   0.591
58480SOL    HW177337   5.821   4.351   0.608
58480SOL    HW277338   5.869   4.466   0.522
58481SOL     OW77339   3.063  11.249   6.843
58481SOL    HW177340   2.984  11.242   6.897
58481SOL    HW277341   3.134  11.261   6.905
58482SOL     OW77342  10.813  12.547   2.516
58482SOL    HW177343  10.742  12.555   2.580
58482SOL    HW277344  10.816  12.454   2.494
58483SOL     OW77345   6.863   5.388   3.531
58483SOL    HW177346   6.891   5.463   3.584
58483SOL    HW277347   6.810   5.426   3.461
58484SOL     OW77348   0.344   8.427  14.243
58484SOL    HW177349   0.317   8.359  14.182
58484SOL    HW277350   0.289   8.502  14.220
58485SOL     OW77351   2.340   5.068   8.046
58485SOL    HW177352   2.288   5.132   7.998
58485SOL    HW277353   2.284   5.040   8.118
58486SOL     OW77354  14.025   9.304   8.744
58486SOL    HW177355  13.964   9.337   8.678
58486SOL    HW277356  14.063   9.225   8.704
58487SOL     OW77357  12.402   6.172  11.211
58487SOL    HW177358  12.435   6.250  11.255
58487SOL    HW277359  12.333   6.139  11.268
58488SOL     OW77360  13.037   3.039   0.750
58488SOL    HW177361  13.062   2.993   0.670
58488SOL    HW277362  12.942   3.050   0.742
58489SOL     OW77363  11.020  11.940  10.409
58489SOL    HW177364  11.060  11.901  10.488
58489SOL    HW277365  10.957  12.003  10.443
58490SOL     OW77366  12.564   3.167   4.845
58490SOL    HW177367  12.547   3.258   4.871
58490SOL    HW277368  12.618   3.131   4.916
58491SOL     OW77369   8.542   4.941  14.454
58491SOL    HW177370   8.537   4.884  14.378
58491SOL    HW277371   8.454   4.939  14.492
58492SOL     OW77372   4.827   3.984   6.019
58492SOL    HW177373   4.787   3.912   6.068
58492SOL    HW277374   4.871   4.037   6.086
58493SOL     OW77375   0.198   3.365   3.423
58493SOL    HW177376   0.231   3.310   3.493
58493SOL    HW277377   0.195   3.308   3.346
58494SOL     OW77378   5.596   9.552   0.362
58494SOL    HW177379   5.579   9.561   0.456
58494SOL    HW277380   5.691   9.541   0.355
58495SOL     OW77381   5.864   7.917   0.576
58495SOL    HW177382   5.821   7.854   0.634
58495SOL    HW277383   5.955   7.918   0.604
58496SOL     OW77384   4.088   2.939   0.950
58496SOL    HW177385   4.164   2.997   0.959
58496SOL    HW277386   4.059   2.923   1.040
58497SOL     OW77387  14.807   4.592   8.951
58497SOL    HW177388  14.757   4.563   9.028
58497SOL    HW277389  14.755   4.662   8.913
58498SOL     OW77390   4.786   9.527   3.428
58498SOL    HW177391   4.756   9.436   3.420
58498SOL    HW277392   4.726   9.566   3.492
58499SOL     OW77393  10.678  12.985  10.382
58499SOL    HW177394  10.680  12.898  10.422
58499SOL    HW277395  10.768  13.000  10.353
58500SOL     OW77396  12.081  11.360  12.390
58500SOL    HW177397  12.026  11.334  12.465
58500SOL    HW277398  12.049  11.447  12.367
58501SOL     OW77399   5.393   7.925   6.899
58501SOL    HW177400   5.367   7.986   6.830
58501SOL    HW277401   5.317   7.867   6.910
58502SOL     OW77402   6.970  14.158  13.951
58502SOL    HW177403   6.881  14.192  13.953
58502SOL    HW277404   6.994  14.151  14.044
58503SOL     OW77405  11.255  10.585   8.610
58503SOL    HW177406  11.291  10.545   8.531
58503SOL    HW277407  11.211  10.513   8.655
58504SOL     OW77408  14.819   8.758   1.854
58504SOL    HW177409  14.843   8.695   1.787
58504SOL    HW277410  14.727   8.738   1.874
58505SOL     OW77411   1.699   4.520  13.347
58505SOL    HW177412   1.748   4.590  13.390
58505SOL    HW277413   1.608   4.533  13.375
58506SOL     OW77414   2.790  13.836   5.449
58506SOL    HW177415   2.869  13.890   5.446
58506SOL    HW277416   2.821  13.749   5.475
58507SOL     OW77417   1.563   6.436   3.908
58507SOL    HW177418   1.476   6.451   3.944
58507SOL    HW277419   1.599   6.365   3.961
58508SOL     OW77420   1.890   7.976   3.883
58508SOL    HW177421   1.814   8.033   3.876
58508SOL    HW277422   1.857   7.897   3.926
58509SOL     OW77423  12.640  10.874  11.396
58509SOL    HW177424  12.613  10.912  11.312
58509SOL    HW277425  12.630  10.945  11.459
58510SOL     OW77426   0.049  10.838  11.125
58510SOL    HW177427   0.101  10.898  11.071
58510SOL    HW277428   0.097  10.756  11.122
58511SOL     OW77429   9.200  14.238   2.800
58511SOL    HW177430   9.164  14.234   2.888
58511SOL    HW277431   9.129  14.273   2.746
58512SOL     OW77432   4.955   1.050   6.199
58512SOL    HW177433   5.050   1.035   6.203
58512SOL    HW277434   4.917   0.963   6.192
58513SOL     OW77435   4.367  12.381  14.508
58513SOL    HW177436   4.397  12.472  14.516
58513SOL    HW277437   4.437  12.329  14.548
58514SOL     OW77438   7.396   9.409   1.681
58514SOL    HW177439   7.306   9.420   1.712
58514SOL    HW277440   7.411   9.484   1.624
58515SOL     OW77441   7.560   8.636   9.105
58515SOL    HW177442   7.499   8.685   9.160
58515SOL    HW277443   7.611   8.583   9.167
58516SOL     OW77444  11.376  11.801   7.515
58516SOL    HW177445  11.404  11.828   7.603
58516SOL    HW277446  11.341  11.713   7.528
58517SOL     OW77447   3.098  12.940   8.610
58517SOL    HW177448   3.139  13.027   8.613
58517SOL    HW277449   3.014  12.952   8.654
58518SOL     OW77450  13.480  14.509  11.590
58518SOL    HW177451  13.432  14.561  11.524
58518SOL    HW277452  13.528  14.444  11.539
58519SOL     OW77453   8.080   6.067   7.354
58519SOL    HW177454   8.067   5.988   7.301
58519SOL    HW277455   8.096   6.136   7.290
58520SOL     OW77456   3.109  12.527   3.257
58520SOL    HW177457   3.024  12.568   3.241
58520SOL    HW277458   3.160  12.596   3.301
58521SOL     OW77459   9.350  14.348   4.182
58521SOL    HW177460   9.412  14.420   4.179
58521SOL    HW277461   9.355  14.316   4.273
58522SOL     OW77462   9.315   3.701  14.883
58522SOL    HW177463   9.410   3.692  14.881
58522SOL    HW277464   9.283   3.633  14.825
58523SOL     OW77465   3.459  14.751  14.009
58523SOL    HW177466   3.431  14.660  13.993
58523SOL    HW277467   3.403  14.781  14.080
58524SOL     OW77468   1.832  12.519   6.638
58524SOL    HW177469   1.870  12.532   6.725
58524SOL    HW277470   1.830  12.424   6.626
58525SOL     OW77471  12.388  11.082   1.684
58525SOL    HW177472  12.413  11.026   1.611
58525SOL    HW277473  12.319  11.034   1.730
58526SOL     OW77474   9.915   5.672   0.802
58526SOL    HW177475   9.917   5.577   0.811
58526SOL    HW277476   9.822   5.695   0.809
58527SOL     OW77477   2.243  13.019  11.368
58527SOL    HW177478   2.200  13.096  11.407
58527SOL    HW277479   2.225  12.948  11.430
58528SOL     OW77480   7.981   1.097  13.901
58528SOL    HW177481   7.964   1.119  13.992
58528SOL    HW277482   7.972   1.179  13.854
58529SOL     OW77483  13.929   2.672   4.724
58529SOL    HW177484  13.883   2.753   4.746
58529SOL    HW277485  13.912   2.659   4.631
58530SOL     OW77486  12.093   5.919  14.322
58530SOL    HW177487  12.117   5.875  14.240
58530SOL    HW277488  12.007   5.957  14.304
58531SOL     OW77489   5.093   4.571   8.698
58531SOL    HW177490   5.144   4.496   8.665
58531SOL    HW277491   5.017   4.531   8.739
58532SOL     OW77492   2.757   2.116   1.376
58532SOL    HW177493   2.731   2.090   1.287
58532SOL    HW277494   2.843   2.156   1.365
58533SOL     OW77495  10.254  14.722  10.251
58533SOL    HW177496  10.268  14.774  10.172
58533SOL    HW277497  10.325  14.658  10.250
58534SOL     OW77498   4.989   4.352   6.805
58534SOL    HW177499   5.039   4.276   6.835
58534SOL    HW277500   4.924   4.367   6.873
58535SOL     OW77501   7.174   6.798   1.500
58535SOL    HW177502   7.139   6.726   1.553
58535SOL    HW277503   7.261   6.815   1.537
58536SOL     OW77504   1.115   0.126   3.775
58536SOL    HW177505   1.143   0.215   3.798
58536SOL    HW277506   1.169   0.104   3.698
58537SOL     OW77507  10.101  14.199   2.069
58537SOL    HW177508  10.157  14.140   2.119
58537SOL    HW277509  10.136  14.196   1.980
58538SOL     OW77510   7.088   9.028   1.588
58538SOL    HW177511   7.017   9.080   1.552
58538SOL    HW277512   7.071   9.026   1.682
58539SOL     OW77513   3.859   2.714   4.554
58539SOL    HW177514   3.862   2.770   4.477
58539SOL    HW277515   3.946   2.675   4.560
58540SOL     OW77516   2.453   5.596   5.800
58540SOL    HW177517   2.414   5.680   5.777
58540SOL    HW277518   2.497   5.567   5.721
58541SOL     OW77519   2.847   7.506  13.001
58541SOL    HW177520   2.920   7.455  13.037
58541SOL    HW277521   2.840   7.477  12.910
58542SOL     OW77522   2.396   6.014   8.771
58542SOL    HW177523   2.323   5.989   8.714
58542SOL    HW277524   2.359   6.080   8.830
58543SOL     OW77525  13.020  11.053   8.575
58543SOL    HW177526  13.003  10.998   8.498
58543SOL    HW277527  12.968  11.014   8.645
58544SOL     OW77528   4.934   0.379   4.840
58544SOL    HW177529   5.003   0.386   4.906
58544SOL    HW277530   4.865   0.436   4.872
58545SOL     OW77531  12.119   8.513  11.711
58545SOL    HW177532  12.135   8.583  11.648
58545SOL    HW277533  12.108   8.434  11.657
58546SOL     OW77534   5.320   8.427   7.705
58546SOL    HW177535   5.356   8.380   7.780
58546SOL    HW277536   5.379   8.405   7.633
58547SOL     OW77537   0.203   9.090   0.753
58547SOL    HW177538   0.189   9.078   0.659
58547SOL    HW277539   0.134   9.150   0.781
58548SOL     OW77540   5.675  14.101  10.595
58548SOL    HW177541   5.591  14.061  10.575
58548SOL    HW277542   5.719  14.107  10.510
58549SOL     OW77543   8.561   7.755   8.901
58549SOL    HW177544   8.610   7.738   8.820
58549SOL    HW277545   8.523   7.842   8.888
58550SOL     OW77546  11.337   2.211   8.174
58550SOL    HW177547  11.375   2.277   8.117
58550SOL    HW277548  11.384   2.222   8.257
58551SOL     OW77549  13.954  12.090   2.440
58551SOL    HW177550  14.012  12.120   2.510
58551SOL    HW277551  14.002  12.018   2.398
58552SOL     OW77552   7.807   9.141  13.694
58552SOL    HW177553   7.796   9.236  13.690
58552SOL    HW277554   7.786   9.110  13.606
58553SOL     OW77555   1.087   1.290  13.808
58553SOL    HW177556   1.081   1.383  13.789
58553SOL    HW277557   1.126   1.252  13.729
58554SOL     OW77558   6.690   1.876   5.534
58554SOL    HW177559   6.603   1.916   5.535
58554SOL    HW277560   6.750   1.951   5.535
58555SOL     OW77561   4.418   1.976   0.112
58555SOL    HW177562   4.370   1.980   0.030
58555SOL    HW277563   4.433   1.883   0.127
58556SOL     OW77564  14.724   5.062   9.778
58556SOL    HW177565  14.725   5.099   9.866
58556SOL    HW277566  14.698   4.970   9.791
58557SOL     OW77567   2.106  13.652  10.277
58557SOL    HW177568   2.198  13.672  10.291
58557SOL    HW277569   2.061  13.689  10.353
58558SOL     OW77570   0.038  11.212   2.672
58558SOL    HW177571   0.042  11.150   2.745
58558SOL    HW277572   0.031  11.157   2.594
58559SOL     OW77573   1.065   4.550   1.764
58559SOL    HW177574   1.021   4.465   1.753
58559SOL    HW277575   1.133   4.533   1.829
58560SOL     OW77576   8.465  13.479   5.894
58560SOL    HW177577   8.538  13.459   5.836
58560SOL    HW277578   8.412  13.399   5.893
58561SOL     OW77579   3.721  11.890  11.733
58561SOL    HW177580   3.806  11.933  11.735
58561SOL    HW277581   3.693  11.899  11.642
58562SOL     OW77582   0.108   4.592  11.896
58562SOL    HW177583   0.052   4.563  11.825
58562SOL    HW277584   0.182   4.532  11.895
58563SOL     OW77585   0.337  14.682   8.076
58563SOL    HW177586   0.260  14.634   8.046
58563SOL    HW277587   0.311  14.774   8.071
58564SOL     OW77588  14.813  11.401  11.304
58564SOL    HW177589  14.884  11.402  11.367
58564SOL    HW277590  14.783  11.310  11.303
58565SOL     OW77591   3.803   4.954   7.546
58565SOL    HW177592   3.775   4.979   7.458
58565SOL    HW277593   3.896   4.933   7.536
58566SOL     OW77594   7.756   2.791  11.100
58566SOL    HW177595   7.764   2.697  11.082
58566SOL    HW277596   7.727   2.829  11.017
58567SOL     OW77597   4.137   9.161   4.744
58567SOL    HW177598   4.219   9.196   4.710
58567SOL    HW277599   4.161   9.080   4.787
58568SOL     OW77600   7.743   0.008   4.694
58568SOL    HW177601   7.748   0.036   4.786
58568SOL    HW277602   7.655   0.035   4.666
58569SOL     OW77603   0.300   4.637  13.305
58569SOL    HW177604   0.299   4.725  13.344
58569SOL    HW277605   0.250   4.583  13.366
58570SOL     OW77606   2.432  14.313   0.742
58570SOL    HW177607   2.464  14.346   0.826
58570SOL    HW277608   2.400  14.390   0.696
58571SOL     OW77609   8.610  14.025   7.066
58571SOL    HW177610   8.530  14.001   7.113
58571SOL    HW277611   8.615  14.120   7.075
58572SOL     OW77612   9.809   2.632   9.108
58572SOL    HW177613   9.832   2.543   9.131
58572SOL    HW277614   9.769   2.624   9.021
58573SOL     OW77615   8.961   1.872  10.388
58573SOL    HW177616   8.974   1.854  10.481
58573SOL    HW277617   8.865   1.872  10.378
58574SOL     OW77618   0.423  10.914   8.154
58574SOL    HW177619   0.376  10.877   8.080
58574SOL    HW277620   0.401  11.007   8.152
58575SOL     OW77621  13.354  11.054   4.265
58575SOL    HW177622  13.278  11.112   4.262
58575SOL    HW277623  13.330  10.986   4.328
58576SOL     OW77624   4.486   5.935   8.654
58576SOL    HW177625   4.419   5.870   8.675
58576SOL    HW277626   4.530   5.900   8.576
58577SOL     OW77627   9.518  12.552  13.444
58577SOL    HW177628   9.458  12.512  13.381
58577SOL    HW277629   9.490  12.643  13.450
58578SOL     OW77630   9.887   5.024  11.785
58578SOL    HW177631   9.796   5.040  11.812
58578SOL    HW277632   9.935   5.099  11.820
58579SOL     OW77633   7.047   4.926   4.839
58579SOL    HW177634   7.086   4.970   4.914
58579SOL    HW277635   7.120   4.878   4.799
58580SOL     OW77636  11.072   8.218  14.610
58580SOL    HW177637  11.144   8.210  14.547
58580SOL    HW277638  10.995   8.183  14.564
58581SOL     OW77639   9.870  13.458   0.522
58581SOL    HW177640   9.923  13.427   0.595
58581SOL    HW277641   9.790  13.405   0.524
58582SOL     OW77642   1.409   0.090   5.460
58582SOL    HW177643   1.473   0.021   5.445
58582SOL    HW277644   1.325   0.050   5.439
58583SOL     OW77645   1.324  12.289   8.358
58583SOL    HW177646   1.378  12.367   8.349
58583SOL    HW277647   1.354  12.248   8.438
58584SOL     OW77648  13.388   0.676   6.385
58584SOL    HW177649  13.420   0.734   6.316
58584SOL    HW277650  13.396   0.727   6.466
58585SOL     OW77651  11.996  12.962  13.433
58585SOL    HW177652  12.021  12.875  13.465
58585SOL    HW277653  11.969  12.946  13.342
58586SOL     OW77654   5.301   7.487   6.932
58586SOL    HW177655   5.348   7.571   6.936
58586SOL    HW277656   5.361   7.425   6.973
58587SOL     OW77657  13.688   5.229   9.955
58587SOL    HW177658  13.759   5.293   9.953
58587SOL    HW277659  13.638   5.247   9.874
58588SOL     OW77660  13.081   9.723   0.245
58588SOL    HW177661  13.055   9.633   0.227
58588SOL    HW277662  13.170   9.715   0.281
58589SOL     OW77663   7.553   8.386   5.209
58589SOL    HW177664   7.628   8.425   5.254
58589SOL    HW277665   7.479   8.403   5.267
58590SOL     OW77666  13.119  14.143   2.600
58590SOL    HW177667  13.192  14.105   2.650
58590SOL    HW277668  13.160  14.175   2.520
58591SOL     OW77669   4.856   4.881   7.890
58591SOL    HW177670   4.852   4.877   7.795
58591SOL    HW277671   4.768   4.858   7.919
58592SOL     OW77672  10.687  12.661  13.073
58592SOL    HW177673  10.682  12.738  13.130
58592SOL    HW277674  10.636  12.594  13.117
58593SOL     OW77675   6.549  13.235  12.937
58593SOL    HW177676   6.642  13.254  12.934
58593SOL    HW277677   6.507  13.321  12.944
58594SOL     OW77678  13.028   2.505   3.857
58594SOL    HW177679  13.041   2.596   3.886
58594SOL    HW277680  13.108   2.460   3.884
58595SOL     OW77681  11.598   6.648  11.451
58595SOL    HW177682  11.577   6.675  11.540
58595SOL    HW277683  11.656   6.572  11.462
58596SOL     OW77684   3.078   6.000  12.420
58596SOL    HW177685   3.025   5.957  12.354
58596SOL    HW277686   3.014   6.039  12.480
58597SOL     OW77687  10.904  14.812   4.302
58597SOL    HW177688  10.924  14.718   4.312
58597SOL    HW277689  10.896  14.844   4.392
58598SOL     OW77690  13.660   6.795   6.379
58598SOL    HW177691  13.723   6.781   6.449
58598SOL    HW277692  13.633   6.707   6.353
58599SOL     OW77693   2.449   8.344   0.912
58599SOL    HW177694   2.399   8.389   0.844
58599SOL    HW277695   2.417   8.254   0.909
58600SOL     OW77696  10.643   1.885   3.577
58600SOL    HW177697  10.686   1.800   3.568
58600SOL    HW277698  10.711   1.949   3.557
58601SOL     OW77699   0.289   7.005  14.695
58601SOL    HW177700   0.204   7.048  14.697
58601SOL    HW277701   0.343   7.060  14.639
58602SOL     OW77702   3.519   7.614  13.210
58602SOL    HW177703   3.546   7.563  13.287
58602SOL    HW277704   3.601   7.634  13.164
58603SOL     OW77705   8.687   6.017   0.956
58603SOL    HW177706   8.766   5.968   0.933
58603SOL    HW277707   8.615   5.959   0.930
58604SOL     OW77708   5.991   6.366  12.543
58604SOL    HW177709   5.987   6.271  12.558
58604SOL    HW277710   6.078   6.391  12.575
58605SOL     OW77711   4.744   4.485  13.884
58605SOL    HW177712   4.650   4.482  13.905
58605SOL    HW277713   4.774   4.395  13.896
58606SOL     OW77714   9.875   7.610  13.156
58606SOL    HW177715   9.861   7.519  13.180
58606SOL    HW277716   9.823   7.621  13.076
58607SOL     OW77717   1.438   8.105   6.823
58607SOL    HW177718   1.466   8.023   6.781
58607SOL    HW277719   1.372   8.077   6.887
58608SOL     OW77720   2.022   3.126   4.094
58608SOL    HW177721   1.930   3.110   4.115
58608SOL    HW277722   2.028   3.221   4.085
58609SOL     OW77723  13.181   0.258  12.964
58609SOL    HW177724  13.093   0.290  12.947
58609SOL    HW277725  13.208   0.302  13.045
58610SOL     OW77726   4.589   6.570   4.201
58610SOL    HW177727   4.495   6.561   4.184
58610SOL    HW277728   4.599   6.542   4.292
58611SOL     OW77729  14.112   2.449  10.600
58611SOL    HW177730  14.098   2.371  10.547
58611SOL    HW277731  14.157   2.511  10.543
58612SOL     OW77732   7.934   1.123   3.726
58612SOL    HW177733   7.932   1.162   3.639
58612SOL    HW277734   8.004   1.057   3.721
58613SOL     OW77735   2.023  10.294   1.207
58613SOL    HW177736   2.003  10.261   1.295
58613SOL    HW277737   1.938  10.319   1.170
58614SOL     OW77738   4.677   5.868   4.095
58614SOL    HW177739   4.731   5.790   4.100
58614SOL    HW277740   4.738   5.941   4.104
58615SOL     OW77741   9.077   6.078   5.283
58615SOL    HW177742   9.042   6.136   5.351
58615SOL    HW277743   9.010   6.012   5.271
58616SOL     OW77744   7.492  13.884   3.056
58616SOL    HW177745   7.456  13.809   3.104
58616SOL    HW277746   7.581  13.857   3.033
58617SOL     OW77747   5.895  10.028  13.138
58617SOL    HW177748   5.809   9.998  13.167
58617SOL    HW277749   5.924   9.960  13.077
58618SOL     OW77750   0.417  10.392  12.524
58618SOL    HW177751   0.401  10.486  12.516
58618SOL    HW277752   0.512  10.383  12.516
58619SOL     OW77753   6.646  11.623   3.872
58619SOL    HW177754   6.642  11.596   3.781
58619SOL    HW277755   6.735  11.659   3.883
58620SOL     OW77756   7.962   2.732  13.404
58620SOL    HW177757   8.014   2.760  13.480
58620SOL    HW277758   8.021   2.674  13.355
58621SOL     OW77759   4.144  13.142   1.458
58621SOL    HW177760   4.203  13.206   1.418
58621SOL    HW277761   4.193  13.060   1.456
58622SOL     OW77762   5.708   5.787   3.001
58622SOL    HW177763   5.757   5.864   2.971
58622SOL    HW277764   5.626   5.791   2.951
58623SOL     OW77765  13.115   4.688   7.918
58623SOL    HW177766  13.150   4.616   7.866
58623SOL    HW277767  13.184   4.709   7.980
58624SOL     OW77768  13.175   0.442   0.019
58624SOL    HW177769  13.229   0.509   0.060
58624SOL    HW277770  13.210   0.359   0.052
58625SOL     OW77771   4.295   3.898   4.220
58625SOL    HW177772   4.232   3.829   4.238
58625SOL    HW277773   4.278   3.922   4.128
58626SOL     OW77774   6.779   0.165  14.355
58626SOL    HW177775   6.738   0.131  14.435
58626SOL    HW277776   6.863   0.199  14.384
58627SOL     OW77777   5.365  14.856   8.525
58627SOL    HW177778   5.306  14.856   8.601
58627SOL    HW277779   5.432  14.791   8.547
58628SOL     OW77780  12.618  10.199   7.844
58628SOL    HW177781  12.667  10.133   7.794
58628SOL    HW277782  12.629  10.280   7.794
58629SOL     OW77783  11.802   2.452   5.960
58629SOL    HW177784  11.866   2.405   5.907
58629SOL    HW277785  11.719   2.439   5.914
58630SOL     OW77786  11.449  11.663  12.348
58630SOL    HW177787  11.468  11.571  12.367
58630SOL    HW277788  11.362  11.661  12.308
58631SOL     OW77789   5.274  11.254   7.162
58631SOL    HW177790   5.323  11.285   7.085
58631SOL    HW277791   5.186  11.287   7.148
58632SOL     OW77792   6.219  12.559  11.332
58632SOL    HW177793   6.143  12.599  11.373
58632SOL    HW277794   6.218  12.593  11.242
58633SOL     OW77795  13.023   4.490   3.500
58633SOL    HW177796  12.971   4.420   3.539
58633SOL    HW277797  13.035   4.463   3.409
58634SOL     OW77798   9.560  14.255   1.121
58634SOL    HW177799   9.528  14.306   1.047
58634SOL    HW277800   9.514  14.171   1.114
58635SOL     OW77801  10.757   5.430  12.276
58635SOL    HW177802  10.806   5.362  12.231
58635SOL    HW277803  10.717   5.482  12.207
58636SOL     OW77804   7.066   6.619  10.595
58636SOL    HW177805   7.013   6.694  10.568
58636SOL    HW277806   7.037   6.547  10.540
58637SOL     OW77807   6.817  11.373  11.721
58637SOL    HW177808   6.870  11.377  11.801
58637SOL    HW277809   6.767  11.455  11.721
58638SOL     OW77810   9.885   5.539  10.846
58638SOL    HW177811   9.851   5.594  10.916
58638SOL    HW277812   9.816   5.474  10.831
58639SOL     OW77813   2.421   3.908   7.517
58639SOL    HW177814   2.436   3.971   7.447
58639SOL    HW277815   2.480   3.835   7.499
58640SOL     OW77816   8.790   1.739  11.726
58640SOL    HW177817   8.720   1.680  11.696
58640SOL    HW277818   8.868   1.708  11.681
58641SOL     OW77819   3.153   7.259   4.943
58641SOL    HW177820   3.079   7.218   4.988
58641SOL    HW277821   3.156   7.216   4.858
58642SOL     OW77822   6.747   8.246   9.126
58642SOL    HW177823   6.830   8.283   9.155
58642SOL    HW277824   6.757   8.152   9.138
58643SOL     OW77825  12.819   0.114  11.798
58643SOL    HW177826  12.799   0.071  11.715
58643SOL    HW277827  12.915   0.113  11.804
58644SOL     OW77828   7.831   6.628  11.249
58644SOL    HW177829   7.893   6.555  11.240
58644SOL    HW277830   7.802   6.624  11.340
58645SOL     OW77831   9.741   2.612  12.669
58645SOL    HW177832   9.785   2.528  12.658
58645SOL    HW277833   9.656   2.590  12.708
58646SOL     OW77834  12.620   4.581  10.927
58646SOL    HW177835  12.639   4.671  10.901
58646SOL    HW277836  12.585   4.540  10.848
58647SOL     OW77837  13.369   6.285   6.752
58647SOL    HW177838  13.464   6.284   6.737
58647SOL    HW277839  13.346   6.193   6.763
58648SOL     OW77840  11.779   3.930  10.936
58648SOL    HW177841  11.792   3.993  10.865
58648SOL    HW277842  11.773   3.845  10.893
58649SOL     OW77843   3.236   5.103   2.381
58649SOL    HW177844   3.312   5.046   2.365
58649SOL    HW277845   3.197   5.115   2.295
58650SOL     OW77846   9.625   4.583   9.709
58650SOL    HW177847   9.706   4.579   9.657
58650SOL    HW277848   9.580   4.661   9.676
58651SOL     OW77849   7.045   5.317  11.754
58651SOL    HW177850   6.970   5.327  11.813
58651SOL    HW277851   7.057   5.223  11.746
58652SOL     OW77852  13.762  13.185   1.547
58652SOL    HW177853  13.744  13.091   1.541
58652SOL    HW277854  13.690  13.226   1.499
58653SOL     OW77855   8.781   8.391   6.183
58653SOL    HW177856   8.690   8.402   6.209
58653SOL    HW277857   8.787   8.429   6.096
58654SOL     OW77858   0.266   3.021   6.815
58654SOL    HW177859   0.302   2.985   6.734
58654SOL    HW277860   0.236   2.944   6.864
58655SOL     OW77861   3.427  14.870  12.067
58655SOL    HW177862   3.487  14.807  12.026
58655SOL    HW277863   3.403  14.829  12.150
58656SOL     OW77864  13.833   0.026   3.067
58656SOL    HW177865  13.772  14.842   3.050
58656SOL    HW277866  13.862   0.055   2.981
58657SOL     OW77867  11.276   4.978  13.979
58657SOL    HW177868  11.322   4.995  13.897
58657SOL    HW277869  11.296   5.054  14.034
58658SOL     OW77870  14.737   7.431  12.311
58658SOL    HW177871  14.675   7.367  12.348
58658SOL    HW277872  14.704   7.447  12.223
58659SOL     OW77873   0.145   9.077  12.648
58659SOL    HW177874   0.171   9.102  12.737
58659SOL    HW277875   0.184   8.990  12.635
58660SOL     OW77876  10.335   5.530   3.726
58660SOL    HW177877  10.322   5.437   3.711
58660SOL    HW277878  10.256   5.571   3.690
58661SOL     OW77879   9.718   1.694   4.406
58661SOL    HW177880   9.664   1.737   4.471
58661SOL    HW277881   9.657   1.640   4.355
58662SOL     OW77882  10.729  11.221   0.265
58662SOL    HW177883  10.654  11.165   0.284
58662SOL    HW277884  10.693  11.294   0.215
58663SOL     OW77885   2.176  12.748   3.610
58663SOL    HW177886   2.260  12.794   3.606
58663SOL    HW277887   2.168  12.720   3.701
58664SOL     OW77888   7.133  14.407   1.234
58664SOL    HW177889   7.195  14.339   1.207
58664SOL    HW277890   7.047  14.370   1.214
58665SOL     OW77891   2.752   0.862   7.746
58665SOL    HW177892   2.687   0.849   7.677
58665SOL    HW277893   2.725   0.801   7.815
58666SOL     OW77894   9.790   1.939   7.151
58666SOL    HW177895   9.816   1.868   7.209
58666SOL    HW277896   9.702   1.915   7.122
58667SOL     OW77897   8.214  10.458   9.199
58667SOL    HW177898   8.259  10.531   9.157
58667SOL    HW277899   8.269  10.382   9.180
58668SOL     OW77900   3.694  10.032  10.694
58668SOL    HW177901   3.711  10.125  10.707
58668SOL    HW277902   3.672   9.999  10.781
58669SOL     OW77903  13.214   3.827  14.693
58669SOL    HW177904  13.286   3.770  14.721
58669SOL    HW277905  13.247   3.916  14.708
58670SOL     OW77906   9.165   0.428  11.622
58670SOL    HW177907   9.183   0.377  11.701
58670SOL    HW277908   9.237   0.404  11.562
58671SOL     OW77909  10.546  12.967   5.402
58671SOL    HW177910  10.459  12.951   5.366
58671SOL    HW277911  10.576  13.046   5.357
58672SOL     OW77912  12.022   9.502   7.677
58672SOL    HW177913  12.006   9.596   7.665
58672SOL    HW277914  11.944   9.469   7.720
58673SOL     OW77915   7.005   1.718   0.798
58673SOL    HW177916   6.919   1.732   0.758
58673SOL    HW277917   6.988   1.717   0.892
58674SOL     OW77918   7.352   5.168  14.114
58674SOL    HW177919   7.442   5.194  14.095
58674SOL    HW277920   7.335   5.204  14.201
58675SOL     OW77921  12.340   6.050   2.336
58675SOL    HW177922  12.359   6.130   2.385
58675SOL    HW277923  12.273   6.076   2.273
58676SOL     OW77924   1.399   2.132   4.017
58676SOL    HW177925   1.310   2.098   4.009
58676SOL    HW277926   1.442   2.074   4.080
58677SOL     OW77927   1.814  10.304   0.185
58677SOL    HW177928   1.882  10.267   0.242
58677SOL    HW277929   1.830  10.398   0.187
58678SOL     OW77930   9.374  10.735   5.213
58678SOL    HW177931   9.289  10.708   5.248
58678SOL    HW277932   9.405  10.658   5.166
58679SOL     OW77933  14.678   3.892   1.116
58679SOL    HW177934  14.662   3.978   1.155
58679SOL    HW277935  14.663   3.830   1.187
58680SOL     OW77936   8.249   0.628   4.867
58680SOL    HW177937   8.157   0.617   4.840
58680SOL    HW277938   8.292   0.667   4.792
58681SOL     OW77939   1.534   1.794   4.906
58681SOL    HW177940   1.571   1.865   4.853
58681SOL    HW277941   1.598   1.723   4.898
58682SOL     OW77942   4.830  14.271   2.871
58682SOL    HW177943   4.741  14.303   2.863
58682SOL    HW277944   4.855  14.292   2.962
58683SOL     OW77945  10.239  11.786  13.933
58683SOL    HW177946  10.320  11.811  13.889
58683SOL    HW277947  10.260  11.789  14.026
58684SOL     OW77948   1.287  11.324   6.158
58684SOL    HW177949   1.286  11.232   6.186
58684SOL    HW277950   1.226  11.367   6.217
58685SOL     OW77951   4.144  11.753   0.560
58685SOL    HW177952   4.166  11.747   0.467
58685SOL    HW277953   4.164  11.843   0.583
58686SOL     OW77954   4.907   0.322   5.173
58686SOL    HW177955   4.994   0.335   5.211
58686SOL    HW277956   4.901   0.228   5.158
58687SOL     OW77957  13.322  13.512   7.432
58687SOL    HW177958  13.283  13.528   7.518
58687SOL    HW277959  13.332  13.417   7.428
58688SOL     OW77960  12.888  10.542   2.818
58688SOL    HW177961  12.874  10.448   2.807
58688SOL    HW277962  12.929  10.570   2.737
58689SOL     OW77963  12.777   3.885  10.986
58689SOL    HW177964  12.754   3.896  10.893
58689SOL    HW277965  12.868   3.856  10.985
58690SOL     OW77966  12.074  12.878  10.086
58690SOL    HW177967  12.146  12.847  10.031
58690SOL    HW277968  12.003  12.898  10.024
58691SOL     OW77969   2.267   7.053   1.439
58691SOL    HW177970   2.249   7.069   1.532
58691SOL    HW277971   2.223   7.126   1.394
58692SOL     OW77972   7.294  11.693  10.368
58692SOL    HW177973   7.330  11.683  10.456
58692SOL    HW277974   7.353  11.643  10.312
58693SOL     OW77975   9.418  13.220  12.926
58693SOL    HW177976   9.448  13.186  13.010
58693SOL    HW277977   9.392  13.142  12.877
58694SOL     OW77978  12.357   1.985   0.917
58694SOL    HW177979  12.299   2.060   0.910
58694SOL    HW277980  12.383   1.984   1.009
58695SOL     OW77981   7.509  12.556   3.373
58695SOL    HW177982   7.486  12.605   3.452
58695SOL    HW277983   7.479  12.467   3.392
58696SOL     OW77984   4.756  10.582   3.152
58696SOL    HW177985   4.721  10.591   3.241
58696SOL    HW277986   4.704  10.511   3.113
58697SOL     OW77987   2.970  12.924   8.350
58697SOL    HW177988   2.876  12.911   8.364
58697SOL    HW277989   3.007  12.925   8.438
58698SOL     OW77990   3.016   2.480   6.845
58698SOL    HW177991   2.989   2.388   6.856
58698SOL    HW277992   2.971   2.526   6.915
58699SOL     OW77993   6.079  13.822   1.240
58699SOL    HW177994   6.057  13.890   1.304
58699SOL    HW277995   6.036  13.743   1.274
58700SOL     OW77996   1.583   2.254   0.885
58700SOL    HW177997   1.604   2.163   0.906
58700SOL    HW277998   1.513   2.277   0.947
58701SOL     OW77999   0.876  13.642   5.458
58701SOL    HW178000   0.937  13.672   5.525
58701SOL    HW278001   0.790  13.645   5.501
58702SOL     OW78002  13.067   6.139  12.503
58702SOL    HW178003  13.026   6.158  12.587
58702SOL    HW278004  13.156   6.111  12.525
58703SOL     OW78005   5.784   3.930  11.695
58703SOL    HW178006   5.876   3.906  11.692
58703SOL    HW278007   5.774   3.995  11.625
58704SOL     OW78008  11.465   4.617   9.914
58704SOL    HW178009  11.476   4.626   9.819
58704SOL    HW278010  11.410   4.539   9.924
58705SOL     OW78011   3.011   1.504   2.571
58705SOL    HW178012   2.915   1.512   2.565
58705SOL    HW278013   3.044   1.558   2.499
58706SOL     OW78014   7.370  14.573  13.027
58706SOL    HW178015   7.289  14.563  13.076
58706SOL    HW278016   7.428  14.505  13.062
58707SOL     OW78017   2.579   5.446  12.208
58707SOL    HW178018   2.498   5.421  12.253
58707SOL    HW278019   2.644   5.385  12.241
58708SOL     OW78020  11.021  10.462  11.092
58708SOL    HW178021  10.999  10.514  11.169
58708SOL    HW278022  11.097  10.506  11.054
58709SOL     OW78023  12.633  12.660   6.732
58709SOL    HW178024  12.704  12.725   6.734
58709SOL    HW278025  12.654  12.605   6.657
58710SOL     OW78026   1.422  13.226   3.406
58710SOL    HW178027   1.465  13.148   3.373
58710SOL    HW278028   1.484  13.265   3.467
58711SOL     OW78029   8.866  14.244   2.708
58711SOL    HW178030   8.899  14.330   2.735
58711SOL    HW278031   8.814  14.214   2.782
58712SOL     OW78032   3.957   9.639   4.501
58712SOL    HW178033   4.029   9.677   4.450
58712SOL    HW278034   3.929   9.563   4.449
58713SOL     OW78035   8.506   3.508   3.207
58713SOL    HW178036   8.420   3.548   3.194
58713SOL    HW278037   8.509   3.437   3.143
58714SOL     OW78038  11.900  13.097  14.685
58714SOL    HW178039  11.818  13.049  14.678
58714SOL    HW278040  11.968  13.031  14.676
58715SOL     OW78041   7.180   2.374   7.851
58715SOL    HW178042   7.133   2.302   7.893
58715SOL    HW278043   7.220   2.423   7.923
58716SOL     OW78044   1.870   3.806  14.150
58716SOL    HW178045   1.781   3.836  14.168
58716SOL    HW278046   1.923   3.886  14.154
58717SOL     OW78047   0.996  11.211   5.669
58717SOL    HW178048   1.034  11.235   5.754
58717SOL    HW278049   0.944  11.132   5.688
58718SOL     OW78050   3.511   0.200  10.629
58718SOL    HW178051   3.473   0.285  10.648
58718SOL    HW278052   3.527   0.160  10.714
58719SOL     OW78053  14.478   7.529   6.902
58719SOL    HW178054  14.511   7.576   6.825
58719SOL    HW278055  14.426   7.457   6.866
58720SOL     OW78056   8.123   7.505  14.649
58720SOL    HW178057   8.173   7.586  14.658
58720SOL    HW278058   8.117   7.491  14.555
58721SOL     OW78059  10.475   5.696   0.132
58721SOL    HW178060  10.481   5.601   0.117
58721SOL    HW278061  10.526   5.735   0.061
58722SOL     OW78062  10.388  14.243   6.705
58722SOL    HW178063  10.363  14.271   6.617
58722SOL    HW278064  10.396  14.148   6.699
58723SOL     OW78065   9.455   8.254  11.136
58723SOL    HW178066   9.393   8.229  11.205
58723SOL    HW278067   9.539   8.221  11.167
58724SOL     OW78068   5.019   2.496   5.047
58724SOL    HW178069   5.067   2.465   5.124
58724SOL    HW278070   5.001   2.588   5.065
58725SOL     OW78071   1.154  12.725  10.421
58725SOL    HW178072   1.205  12.758  10.494
58725SOL    HW278073   1.082  12.786  10.412
58726SOL     OW78074   1.614   5.914   2.471
58726SOL    HW178075   1.656   6.000   2.478
58726SOL    HW278076   1.633   5.871   2.554
58727SOL     OW78077   9.668  13.362  12.967
58727SOL    HW178078   9.580  13.333  12.990
58727SOL    HW278079   9.697  13.413  13.042
58728SOL     OW78080   4.947  13.872  14.348
58728SOL    HW178081   4.955  13.817  14.426
58728SOL    HW278082   5.028  13.922  14.344
58729SOL     OW78083   5.627   6.798   2.230
58729SOL    HW178084   5.722   6.804   2.224
58729SOL    HW278085   5.595   6.880   2.192
58730SOL     OW78086   3.822   0.019  12.896
58730SOL    HW178087   3.914   0.031  12.920
58730SOL    HW278088   3.800   0.098  12.846
58731SOL     OW78089   9.714  12.020  10.877
58731SOL    HW178090   9.764  12.102  10.876
58731SOL    HW278091   9.674  12.018  10.964
58732SOL     OW78092   5.764   1.368  13.288
58732SOL    HW178093   5.845   1.410  13.260
58732SOL    HW278094   5.724   1.336  13.207
58733SOL     OW78095   4.816  11.336   7.676
58733SOL    HW178096   4.908  11.348   7.702
58733SOL    HW278097   4.798  11.410   7.618
58734SOL     OW78098  13.668   1.447   7.337
58734SOL    HW178099  13.746   1.473   7.385
58734SOL    HW278100  13.615   1.399   7.401
58735SOL     OW78101   5.401   9.446   8.351
58735SOL    HW178102   5.353   9.514   8.398
58735SOL    HW278103   5.370   9.454   8.261
58736SOL     OW78104   2.228   4.389  13.595
58736SOL    HW178105   2.270   4.395  13.681
58736SOL    HW278106   2.249   4.302  13.564
58737SOL     OW78107   6.037  12.538   5.675
58737SOL    HW178108   5.998  12.610   5.724
58737SOL    HW278109   6.115  12.515   5.725
58738SOL     OW78110  10.487   9.475   1.401
58738SOL    HW178111  10.426   9.431   1.343
58738SOL    HW278112  10.512   9.555   1.355
58739SOL     OW78113   5.937  11.130   4.266
58739SOL    HW178114   5.947  11.035   4.273
58739SOL    HW278115   5.872  11.152   4.333
58740SOL     OW78116  11.041   3.987  10.749
58740SOL    HW178117  11.076   3.938  10.823
58740SOL    HW278118  11.049   3.927  10.675
58741SOL     OW78119   7.300  13.961   3.849
58741SOL    HW178120   7.309  13.993   3.760
58741SOL    HW278121   7.265  13.873   3.840
58742SOL     OW78122  11.181   8.965   1.512
58742SOL    HW178123  11.151   9.037   1.568
58742SOL    HW278124  11.111   8.901   1.516
58743SOL     OW78125  10.010  14.575  11.928
58743SOL    HW178126  10.001  14.569  11.833
58743SOL    HW278127   9.932  14.622  11.957
58744SOL     OW78128  13.267   0.846  10.131
58744SOL    HW178129  13.223   0.763  10.112
58744SOL    HW278130  13.215   0.912  10.087
58745SOL     OW78131  12.237  13.440   9.510
58745SOL    HW178132  12.164  13.499   9.492
58745SOL    HW278133  12.218  13.362   9.457
58746SOL     OW78134  11.328   8.676  11.856
58746SOL    HW178135  11.406   8.656  11.803
58746SOL    HW278136  11.364   8.707  11.939
58747SOL     OW78137   3.417  12.812   1.487
58747SOL    HW178138   3.511  12.829   1.482
58747SOL    HW278139   3.387  12.866   1.560
58748SOL     OW78140   7.347   1.763   1.672
58748SOL    HW178141   7.435   1.735   1.700
58748SOL    HW278142   7.310   1.685   1.630
58749SOL     OW78143   0.923  12.758  14.345
58749SOL    HW178144   0.969  12.704  14.409
58749SOL    HW278145   0.967  12.843  14.348
58750SOL     OW78146   1.408   5.546  11.987
58750SOL    HW178147   1.412   5.450  11.992
58750SOL    HW278148   1.442   5.576  12.071
58751SOL     OW78149   4.890   6.817   6.976
58751SOL    HW178150   4.851   6.859   6.900
58751SOL    HW278151   4.985   6.827   6.963
58752SOL     OW78152   1.201  12.600  10.713
58752SOL    HW178153   1.121  12.623  10.668
58752SOL    HW278154   1.190  12.507  10.734
58753SOL     OW78155  11.367  13.015   7.414
58753SOL    HW178156  11.339  13.097   7.455
58753SOL    HW278157  11.459  13.007   7.439
58754SOL     OW78158   8.545   0.644   3.162
58754SOL    HW178159   8.461   0.644   3.206
58754SOL    HW278160   8.533   0.587   3.086
58755SOL     OW78161   3.132   0.375  13.324
58755SOL    HW178162   3.038   0.378  13.342
58755SOL    HW278163   3.142   0.304  13.261
58756SOL     OW78164   7.425   4.978  11.272
58756SOL    HW178165   7.476   5.011  11.346
58756SOL    HW278166   7.365   4.915  11.310
58757SOL     OW78167   7.137   2.511  10.557
58757SOL    HW178168   7.083   2.483  10.484
58757SOL    HW278169   7.077   2.559  10.614
58758SOL     OW78170  13.162   5.897  12.163
58758SOL    HW178171  13.149   5.808  12.196
58758SOL    HW278172  13.079   5.942  12.183
58759SOL     OW78173  12.303  14.846   5.475
58759SOL    HW178174  12.217   0.000   5.479
58759SOL    HW278175  12.332  14.842   5.567
58760SOL     OW78176   1.187  12.835   3.337
58760SOL    HW178177   1.276  12.814   3.365
58760SOL    HW278178   1.134  12.760   3.365
58761SOL     OW78179  11.139   2.601  12.976
58761SOL    HW178180  11.228   2.613  12.943
58761SOL    HW278181  11.119   2.510  12.958
58762SOL     OW78182   6.354  14.150   0.870
58762SOL    HW178183   6.263  14.155   0.899
58762SOL    HW278184   6.396  14.093   0.934
58763SOL     OW78185  10.687  10.492  11.356
58763SOL    HW178186  10.619  10.426  11.339
58763SOL    HW278187  10.764  10.459  11.310
58764SOL     OW78188  13.514   7.685  11.485
58764SOL    HW178189  13.441   7.728  11.529
58764SOL    HW278190  13.484   7.673  11.395
58765SOL     OW78191  10.287   3.973   4.569
58765SOL    HW178192  10.248   4.033   4.506
58765SOL    HW278193  10.271   4.013   4.654
58766SOL     OW78194  11.760   0.275  11.219
58766SOL    HW178195  11.702   0.325  11.276
58766SOL    HW278196  11.740   0.307  11.131
58767SOL     OW78197   6.251   4.128   7.036
58767SOL    HW178198   6.164   4.131   7.076
58767SOL    HW278199   6.311   4.117   7.110
58768SOL     OW78200  12.686   9.940   8.559
58768SOL    HW178201  12.644   9.854   8.549
58768SOL    HW278202  12.699   9.971   8.469
58769SOL     OW78203   9.303   5.635   9.430
58769SOL    HW178204   9.234   5.699   9.448
58769SOL    HW278205   9.309   5.632   9.334
58770SOL     OW78206   9.290  13.102   0.463
58770SOL    HW178207   9.262  13.020   0.505
58770SOL    HW278208   9.217  13.126   0.407
58771SOL     OW78209   3.765  10.150   7.697
58771SOL    HW178210   3.822  10.225   7.680
58771SOL    HW278211   3.818  10.075   7.669
58772SOL     OW78212   8.770   0.962  14.320
58772SOL    HW178213   8.744   0.870  14.333
58772SOL    HW278214   8.865   0.961  14.328
58773SOL     OW78215   3.896  13.413   2.165
58773SOL    HW178216   3.937  13.351   2.226
58773SOL    HW278217   3.959  13.484   2.157
58774SOL     OW78218   4.860   4.407  10.800
58774SOL    HW178219   4.826   4.475  10.858
58774SOL    HW278220   4.916   4.453  10.738
58775SOL     OW78221   5.051   6.539  13.562
58775SOL    HW178222   5.025   6.516  13.651
58775SOL    HW278223   5.123   6.480  13.542
58776SOL     OW78224   5.551   9.675  14.213
58776SOL    HW178225   5.508   9.594  14.185
58776SOL    HW278226   5.595   9.651  14.295
58777SOL     OW78227   7.241   9.429   4.748
58777SOL    HW178228   7.211   9.511   4.787
58777SOL    HW278229   7.326   9.450   4.709
58778SOL     OW78230   8.105  13.432   7.004
58778SOL    HW178231   8.096  13.361   7.067
58778SOL    HW278232   8.094  13.390   6.918
58779SOL     OW78233   9.128   4.556  13.543
58779SOL    HW178234   9.142   4.639  13.499
58779SOL    HW278235   9.176   4.564  13.625
58780SOL     OW78236   3.087  10.900   7.636
58780SOL    HW178237   3.123  10.984   7.610
58780SOL    HW278238   3.152  10.862   7.696
58781SOL     OW78239  11.694  11.245   5.329
58781SOL    HW178240  11.635  11.313   5.360
58781SOL    HW278241  11.667  11.166   5.377
58782SOL     OW78242  14.441   0.566   1.655
58782SOL    HW178243  14.526   0.544   1.694
58782SOL    HW278244  14.404   0.481   1.630
58783SOL     OW78245  12.534   6.821   9.010
58783SOL    HW178246  12.594   6.747   9.016
58783SOL    HW278247  12.447   6.781   9.012
58784SOL     OW78248  10.915  11.504   6.122
58784SOL    HW178249  10.821  11.504   6.102
58784SOL    HW278250  10.931  11.418   6.160
58785SOL     OW78251   0.923  13.046  12.058
58785SOL    HW178252   0.941  13.097  11.979
58785SOL    HW278253   0.943  13.105  12.130
58786SOL     OW78254   0.882   4.060   7.675
58786SOL    HW178255   0.817   4.080   7.742
58786SOL    HW278256   0.965   4.053   7.722
58787SOL     OW78257  14.412  13.470   0.905
58787SOL    HW178258  14.400  13.380   0.936
58787SOL    HW278259  14.325  13.497   0.875
58788SOL     OW78260   2.503  11.487  13.212
58788SOL    HW178261   2.453  11.406  13.201
58788SOL    HW278262   2.595  11.459  13.208
58789SOL     OW78263   9.922   1.893  10.893
58789SOL    HW178264   9.945   1.801  10.885
58789SOL    HW278265   9.930   1.928  10.804
58790SOL     OW78266   4.435   8.625  13.249
58790SOL    HW178267   4.429   8.686  13.175
58790SOL    HW278268   4.500   8.664  13.307
58791SOL     OW78269   1.063   3.677  13.660
58791SOL    HW178270   1.054   3.590  13.699
58791SOL    HW278271   0.993   3.728  13.702
58792SOL     OW78272  12.759   1.701   2.041
58792SOL    HW178273  12.768   1.795   2.029
58792SOL    HW278274  12.804   1.682   2.123
58793SOL     OW78275   1.117   0.523  14.335
58793SOL    HW178276   1.136   0.519  14.429
58793SOL    HW278277   1.067   0.604  14.325
58794SOL     OW78278   7.086   2.025  14.453
58794SOL    HW178279   7.058   2.110  14.488
58794SOL    HW278280   7.119   1.977  14.529
58795SOL     OW78281  10.842  14.413   4.041
58795SOL    HW178282  10.874  14.476   4.105
58795SOL    HW278283  10.881  14.441   3.958
58796SOL     OW78284  14.407   8.868  12.197
58796SOL    HW178285  14.478   8.820  12.240
58796SOL    HW278286  14.451   8.939  12.151
58797SOL     OW78287   0.165   5.313   9.071
58797SOL    HW178288   0.086   5.264   9.094
58797SOL    HW278289   0.212   5.256   9.011
58798SOL     OW78290   6.428   7.055   4.753
58798SOL    HW178291   6.335   7.075   4.745
58798SOL    HW278292   6.442   7.043   4.847
58799SOL     OW78293   7.228   6.940   3.905
58799SOL    HW178294   7.280   7.010   3.866
58799SOL    HW278295   7.235   6.954   3.999
58800SOL     OW78296  14.621  13.706   7.418
58800SOL    HW178297  14.634  13.775   7.353
58800SOL    HW278298  14.613  13.753   7.502
58801SOL     OW78299  14.372   6.927   9.391
58801SOL    HW178300  14.382   6.984   9.315
58801SOL    HW278301  14.320   6.978   9.453
58802SOL     OW78302   2.651   0.991   1.044
58802SOL    HW178303   2.618   0.995   0.954
58802SOL    HW278304   2.607   1.064   1.089
58803SOL     OW78305  13.023  13.200  10.576
58803SOL    HW178306  13.064  13.197  10.663
58803SOL    HW278307  13.094  13.226  10.517
58804SOL     OW78308   3.888   6.162  14.742
58804SOL    HW178309   3.826   6.141  14.812
58804SOL    HW278310   3.967   6.113  14.764
58805SOL     OW78311   1.221  11.025   7.658
58805SOL    HW178312   1.259  11.039   7.745
58805SOL    HW278313   1.281  10.964   7.616
58806SOL     OW78314   0.555   9.138   8.231
58806SOL    HW178315   0.641   9.114   8.263
58806SOL    HW278316   0.500   9.062   8.248
58807SOL     OW78317   8.898   8.281   3.214
58807SOL    HW178318   8.924   8.345   3.279
58807SOL    HW278319   8.833   8.226   3.258
58808SOL     OW78320   2.667  10.711   1.515
58808SOL    HW178321   2.639  10.713   1.424
58808SOL    HW278322   2.590  10.738   1.565
58809SOL     OW78323   6.262  12.068  10.899
58809SOL    HW178324   6.324  12.012  10.946
58809SOL    HW278325   6.238  12.135  10.962
58810SOL     OW78326  13.705   6.945   2.797
58810SOL    HW178327  13.697   6.969   2.705
58810SOL    HW278328  13.798   6.925   2.809
58811SOL     OW78329  13.590   8.964  12.356
58811SOL    HW178330  13.526   8.921  12.413
58811SOL    HW278331  13.635   9.027  12.414
58812SOL     OW78332   1.209  14.249   0.081
58812SOL    HW178333   1.136  14.288   0.032
58812SOL    HW278334   1.243  14.320   0.135
58813SOL     OW78335  14.514  13.120   2.241
58813SOL    HW178336  14.472  13.083   2.319
58813SOL    HW278337  14.450  13.109   2.171
58814SOL     OW78338   1.841   3.085  11.215
58814SOL    HW178339   1.801   3.109  11.131
58814SOL    HW278340   1.886   3.002  11.198
58815SOL     OW78341  14.402   0.242   3.567
58815SOL    HW178342  14.463   0.230   3.639
58815SOL    HW278343  14.319   0.266   3.609
58816SOL     OW78344  10.630   6.858  14.488
58816SOL    HW178345  10.540   6.854  14.455
58816SOL    HW278346  10.641   6.776  14.537
58817SOL     OW78347   6.059   9.587   2.540
58817SOL    HW178348   5.987   9.649   2.524
58817SOL    HW278349   6.130   9.619   2.485
58818SOL     OW78350  14.703  10.348  11.000
58818SOL    HW178351  14.676  10.396  11.078
58818SOL    HW278352  14.714  10.257  11.030
58819SOL     OW78353   3.403   8.831   2.859
58819SOL    HW178354   3.460   8.773   2.909
58819SOL    HW278355   3.341   8.773   2.814
58820SOL     OW78356   1.443   2.487  12.978
58820SOL    HW178357   1.482   2.511  13.061
58820SOL    HW278358   1.359   2.533  12.977
58821SOL     OW78359  13.391   7.530  11.823
58821SOL    HW178360  13.460   7.468  11.797
58821SOL    HW278361  13.309   7.483  11.808
58822SOL     OW78362   2.726   6.004   6.001
58822SOL    HW178363   2.691   5.916   5.986
58822SOL    HW278364   2.654   6.051   6.044
58823SOL     OW78365  11.386  13.740  13.774
58823SOL    HW178366  11.294  13.762  13.784
58823SOL    HW278367  11.418  13.801  13.707
58824SOL     OW78368   3.204   7.865  14.739
58824SOL    HW178369   3.225   7.835  14.827
58824SOL    HW278370   3.278   7.837  14.686
58825SOL     OW78371   8.332   1.125   3.694
58825SOL    HW178372   8.315   1.188   3.624
58825SOL    HW278373   8.285   1.046   3.668
58826SOL     OW78374  11.996   0.862   6.729
58826SOL    HW178375  11.904   0.879   6.745
58826SOL    HW278376  12.040   0.891   6.809
58827SOL     OW78377  10.993   4.181   9.715
58827SOL    HW178378  10.921   4.164   9.776
58827SOL    HW278379  11.033   4.096   9.701
58828SOL     OW78380   3.257  12.975  11.544
58828SOL    HW178381   3.287  12.888  11.570
58828SOL    HW278382   3.336  13.019  11.513
58829SOL     OW78383   3.683  12.592   8.556
58829SOL    HW178384   3.688  12.514   8.501
58829SOL    HW278385   3.685  12.558   8.645
58830SOL     OW78386   9.850  14.798  10.531
58830SOL    HW178387   9.902  14.758  10.461
58830SOL    HW278388   9.827  14.885  10.498
58831SOL     OW78389   7.358   8.575  11.637
58831SOL    HW178390   7.341   8.489  11.675
58831SOL    HW278391   7.273   8.619  11.639
58832SOL     OW78392  10.058  13.948  11.570
58832SOL    HW178393  10.057  13.852  11.581
58832SOL    HW278394   9.992  13.979  11.631
58833SOL     OW78395  12.719  13.425   6.545
58833SOL    HW178396  12.645  13.381   6.502
58833SOL    HW278397  12.679  13.498   6.592
58834SOL     OW78398  13.115   7.438   4.865
58834SOL    HW178399  13.193   7.393   4.834
58834SOL    HW278400  13.147   7.517   4.907
58835SOL     OW78401  11.759  10.646   3.669
58835SOL    HW178402  11.692  10.578   3.662
58835SOL    HW278403  11.738  10.706   3.597
58836SOL     OW78404   2.149   2.818   5.857
58836SOL    HW178405   2.224   2.824   5.916
58836SOL    HW278406   2.075   2.798   5.914
58837SOL     OW78407  11.138   0.577  12.089
58837SOL    HW178408  11.112   0.485  12.085
58837SOL    HW278409  11.150   0.595  12.182
58838SOL     OW78410   2.368  14.845   5.862
58838SOL    HW178411   2.342  14.754   5.851
58838SOL    HW278412   2.359  14.861   5.956
58839SOL     OW78413   0.303   4.010   9.551
58839SOL    HW178414   0.222   4.054   9.526
58839SOL    HW278415   0.291   3.920   9.521
58840SOL     OW78416   1.058   2.984  14.708
58840SOL    HW178417   0.975   2.939  14.699
58840SOL    HW278418   1.116   2.920  14.750
58841SOL     OW78419   6.900   5.164  12.057
58841SOL    HW178420   6.891   5.171  11.962
58841SOL    HW278421   6.813   5.141  12.088
58842SOL     OW78422  10.146   5.479   5.774
58842SOL    HW178423  10.165   5.419   5.701
58842SOL    HW278424  10.195   5.442   5.848
58843SOL     OW78425   5.878  14.601   4.375
58843SOL    HW178426   5.808  14.625   4.316
58843SOL    HW278427   5.914  14.520   4.338
58844SOL     OW78428   7.346  13.659   0.429
58844SOL    HW178429   7.313  13.613   0.506
58844SOL    HW278430   7.347  13.593   0.360
58845SOL     OW78431   6.334   1.211   1.060
58845SOL    HW178432   6.291   1.128   1.082
58845SOL    HW278433   6.330   1.215   0.965
58846SOL     OW78434   1.701  12.055  14.887
58846SOL    HW178435   1.643  12.130  14.876
58846SOL    HW278436   1.644  11.979   0.001
58847SOL     OW78437  12.394   3.965   0.659
58847SOL    HW178438  12.373   3.974   0.752
58847SOL    HW278439  12.486   3.990   0.653
58848SOL     OW78440  13.475   5.828  14.836
58848SOL    HW178441  13.547   5.888  14.818
58848SOL    HW278442  13.397   5.872  14.803
58849SOL     OW78443   4.105   0.719   9.675
58849SOL    HW178444   4.072   0.791   9.621
58849SOL    HW278445   4.162   0.669   9.616
58850SOL     OW78446   8.261   4.882  10.174
58850SOL    HW178447   8.314   4.956  10.205
58850SOL    HW278448   8.278   4.812  10.238
58851SOL     OW78449   8.039   6.126   3.068
58851SOL    HW178450   7.961   6.107   3.120
58851SOL    HW278451   8.102   6.162   3.131
58852SOL     OW78452   5.655   0.540   4.165
58852SOL    HW178453   5.567   0.524   4.132
58852SOL    HW278454   5.687   0.454   4.192
58853SOL     OW78455   8.104   6.197   4.145
58853SOL    HW178456   8.053   6.276   4.130
58853SOL    HW278457   8.040   6.132   4.173
58854SOL     OW78458   7.306  11.806   5.786
58854SOL    HW178459   7.248  11.853   5.846
58854SOL    HW278460   7.247  11.760   5.726
58855SOL     OW78461   5.611  12.805  10.001
58855SOL    HW178462   5.542  12.853  10.047
58855SOL    HW278463   5.621  12.853   9.918
58856SOL     OW78464   0.023   2.672   7.154
58856SOL    HW178465   0.044   2.717   7.235
58856SOL    HW278466  14.816   2.684   7.144
58857SOL     OW78467   6.710  12.056  11.851
58857SOL    HW178468   6.693  11.996  11.923
58857SOL    HW278469   6.795  12.094  11.871
58858SOL     OW78470  13.735  13.980  10.232
58858SOL    HW178471  13.711  13.926  10.307
58858SOL    HW278472  13.803  13.930  10.187
58859SOL     OW78473   5.282   6.364   8.211
58859SOL    HW178474   5.266   6.300   8.141
58859SOL    HW278475   5.195   6.380   8.249
58860SOL     OW78476   8.961  13.115   8.261
58860SOL    HW178477   8.904  13.042   8.238
58860SOL    HW278478   8.983  13.101   8.354
58861SOL     OW78479  14.701   1.130   5.019
58861SOL    HW178480  14.640   1.077   4.968
58861SOL    HW278481  14.646   1.174   5.084
58862SOL     OW78482  10.189   6.919  12.615
58862SOL    HW178483  10.230   6.993  12.570
58862SOL    HW278484  10.215   6.843  12.563
58863SOL     OW78485   4.674   4.935   8.570
58863SOL    HW178486   4.750   4.967   8.522
58863SOL    HW278487   4.685   4.970   8.658
58864SOL     OW78488   0.235   5.503   9.671
58864SOL    HW178489   0.212   5.549   9.590
58864SOL    HW278490   0.305   5.443   9.645
58865SOL     OW78491   5.690   2.439  13.763
58865SOL    HW178492   5.764   2.380  13.779
58865SOL    HW278493   5.639   2.435  13.843
58866SOL     OW78494   1.689   7.598   5.430
58866SOL    HW178495   1.726   7.562   5.510
58866SOL    HW278496   1.725   7.687   5.425
58867SOL     OW78497   9.998   8.051  13.345
58867SOL    HW178498   9.947   7.982  13.387
58867SOL    HW278499  10.024   8.014  13.261
58868SOL     OW78500  14.820   0.475   9.065
58868SOL    HW178501  14.773   0.402   9.106
58868SOL    HW278502  14.792   0.552   9.115
58869SOL     OW78503   3.737  11.899  12.535
58869SOL    HW178504   3.824  11.899  12.576
58869SOL    HW278505   3.726  11.988  12.502
58870SOL     OW78506   6.844   3.346  10.172
58870SOL    HW178507   6.825   3.426  10.221
58870SOL    HW278508   6.937   3.331  10.185
58871SOL     OW78509   3.820   7.411   3.525
58871SOL    HW178510   3.771   7.339   3.486
58871SOL    HW278511   3.772   7.490   3.500
58872SOL     OW78512   5.014  11.876   1.233
58872SOL    HW178513   4.976  11.855   1.148
58872SOL    HW278514   5.005  11.971   1.240
58873SOL     OW78515   3.285   9.895   6.161
58873SOL    HW178516   3.340   9.849   6.224
58873SOL    HW278517   3.275   9.983   6.197
58874SOL     OW78518   7.959   2.509  13.823
58874SOL    HW178519   7.938   2.454  13.899
58874SOL    HW278520   8.043   2.476  13.792
58875SOL     OW78521  13.862   3.214   9.920
58875SOL    HW178522  13.884   3.141   9.863
58875SOL    HW278523  13.806   3.271   9.867
58876SOL     OW78524   8.056  12.660  14.563
58876SOL    HW178525   7.986  12.668  14.628
58876SOL    HW278526   8.051  12.569  14.534
58877SOL     OW78527   0.172  14.144  11.025
58877SOL    HW178528   0.240  14.091  11.066
58877SOL    HW278529   0.090  14.109  11.060
58878SOL     OW78530   1.059   6.085   6.854
58878SOL    HW178531   0.998   6.157   6.867
58878SOL    HW278532   1.102   6.105   6.771
58879SOL     OW78533   4.957  12.831   8.724
58879SOL    HW178534   4.909  12.851   8.804
58879SOL    HW278535   5.048  12.848   8.746
58880SOL     OW78536  11.158   9.488  12.927
58880SOL    HW178537  11.116   9.402  12.924
58880SOL    HW278538  11.239   9.477  12.876
58881SOL     OW78539   9.156   9.542   3.867
58881SOL    HW178540   9.089   9.578   3.810
58881SOL    HW278541   9.233   9.597   3.853
58882SOL     OW78542   2.929   1.423  14.110
58882SOL    HW178543   2.978   1.348  14.076
58882SOL    HW278544   2.842   1.416  14.070
58883SOL     OW78545  10.923   8.750   0.078
58883SOL    HW178546  10.907   8.659   0.103
58883SOL    HW278547  10.843   8.778   0.035
58884SOL     OW78548  14.452   3.437   8.794
58884SOL    HW178549  14.463   3.347   8.827
58884SOL    HW278550  14.487   3.434   8.705
58885SOL     OW78551   2.727   8.046   8.316
58885SOL    HW178552   2.817   8.031   8.345
58885SOL    HW278553   2.731   8.034   8.221
58886SOL     OW78554  12.777   5.855  12.290
58886SOL    HW178555  12.783   5.850  12.386
58886SOL    HW278556  12.844   5.918  12.265
58887SOL     OW78557   8.825  11.794  13.448
58887SOL    HW178558   8.815  11.742  13.368
58887SOL    HW278559   8.896  11.751  13.496
58888SOL     OW78560   7.571   3.538   9.967
58888SOL    HW178561   7.652   3.577  10.000
58888SOL    HW278562   7.578   3.547   9.872
58889SOL     OW78563   4.974   7.267  14.546
58889SOL    HW178564   4.930   7.291  14.464
58889SOL    HW278565   4.920   7.308  14.614
58890SOL     OW78566  12.947  14.435   2.658
58890SOL    HW178567  12.979  14.347   2.637
58890SOL    HW278568  12.901  14.424   2.741
58891SOL     OW78569   5.976   7.681   7.923
58891SOL    HW178570   6.026   7.629   7.861
58891SOL    HW278571   5.910   7.726   7.869
58892SOL     OW78572   6.387   3.442   5.752
58892SOL    HW178573   6.356   3.352   5.756
58892SOL    HW278574   6.468   3.442   5.803
58893SOL     OW78575  14.196   2.153   3.904
58893SOL    HW178576  14.281   2.158   3.949
58893SOL    HW278577  14.138   2.110   3.966
58894SOL     OW78578   7.438   4.809   0.615
58894SOL    HW178579   7.468   4.799   0.525
58894SOL    HW278580   7.349   4.843   0.607
58895SOL     OW78581  10.437   4.967  10.450
58895SOL    HW178582  10.453   5.054  10.486
58895SOL    HW278583  10.341   4.959  10.451
58896SOL     OW78584   1.078   9.216   4.482
58896SOL    HW178585   1.066   9.242   4.574
58896SOL    HW278586   1.149   9.152   4.485
58897SOL     OW78587   4.873  13.112   9.622
58897SOL    HW178588   4.829  13.158   9.550
58897SOL    HW278589   4.854  13.166   9.699
58898SOL     OW78590   0.264   5.681   1.446
58898SOL    HW178591   0.227   5.596   1.422
58898SOL    HW278592   0.321   5.704   1.373
58899SOL     OW78593  10.843   6.827   7.006
58899SOL    HW178594  10.936   6.835   6.983
58899SOL    HW278595  10.827   6.898   7.068
58900SOL     OW78596   0.848   3.731   0.116
58900SOL    HW178597   0.825   3.733   0.023
58900SOL    HW278598   0.944   3.722   0.116
58901SOL     OW78599   8.797   3.940  13.900
58901SOL    HW178600   8.797   3.849  13.930
58901SOL    HW278601   8.706   3.958  13.877
58902SOL     OW78602   6.509   6.622   0.065
58902SOL    HW178603   6.430   6.568   0.070
58902SOL    HW278604   6.577   6.570   0.107
58903SOL     OW78605   6.438   8.069   3.779
58903SOL    HW178606   6.509   8.044   3.837
58903SOL    HW278607   6.479   8.123   3.711
58904SOL     OW78608   2.056   7.245   9.600
58904SOL    HW178609   1.990   7.292   9.548
58904SOL    HW278610   2.015   7.234   9.686
58905SOL     OW78611   9.381   8.341   4.351
58905SOL    HW178612   9.324   8.275   4.313
58905SOL    HW278613   9.364   8.337   4.445
58906SOL     OW78614   1.393   0.068   1.924
58906SOL    HW178615   1.451  14.884   1.950
58906SOL    HW278616   1.315   0.056   1.979
58907SOL     OW78617   0.689   8.463   4.732
58907SOL    HW178618   0.719   8.374   4.748
58907SOL    HW278619   0.769   8.516   4.733
58908SOL     OW78620   6.249   6.416  12.635
58908SOL    HW178621   6.271   6.330  12.670
58908SOL    HW278622   6.208   6.462  12.708
58909SOL     OW78623   3.703   7.612  12.970
58909SOL    HW178624   3.759   7.639  12.897
58909SOL    HW278625   3.639   7.552  12.930
58910SOL     OW78626  14.542   5.412   3.725
58910SOL    HW178627  14.450   5.434   3.710
58910SOL    HW278628  14.570   5.474   3.792
58911SOL     OW78629   8.966  10.568   6.780
58911SOL    HW178630   8.985  10.620   6.858
58911SOL    HW278631   9.046  10.516   6.765
58912SOL     OW78632   6.833  10.026   8.829
58912SOL    HW178633   6.757  10.013   8.771
58912SOL    HW278634   6.904   9.978   8.786
58913SOL     OW78635   8.366   9.740   1.025
58913SOL    HW178636   8.380   9.835   1.027
58913SOL    HW278637   8.328   9.723   0.938
58914SOL     OW78638   4.042   8.676   1.248
58914SOL    HW178639   4.098   8.638   1.180
58914SOL    HW278640   4.103   8.704   1.316
58915SOL     OW78641  11.101  12.469   9.814
58915SOL    HW178642  11.130  12.399   9.755
58915SOL    HW278643  11.145  12.450   9.897
58916SOL     OW78644   3.591   9.077  11.840
58916SOL    HW178645   3.626   9.087  11.751
58916SOL    HW278646   3.525   9.146  11.847
58917SOL     OW78647   0.907   9.714  10.688
58917SOL    HW178648   0.838   9.774  10.717
58917SOL    HW278649   0.939   9.675  10.770
58918SOL     OW78650   1.203   3.731   2.878
58918SOL    HW178651   1.293   3.726   2.910
58918SOL    HW278652   1.169   3.642   2.889
58919SOL     OW78653   9.583   0.241   4.201
58919SOL    HW178654   9.526   0.316   4.187
58919SOL    HW278655   9.593   0.235   4.296
58920SOL     OW78656   3.532  12.397   1.321
58920SOL    HW178657   3.583  12.466   1.363
58920SOL    HW278658   3.443  12.412   1.351
58921SOL     OW78659  11.898  10.093   1.679
58921SOL    HW178660  11.946  10.071   1.599
58921SOL    HW278661  11.878  10.186   1.670
58922SOL     OW78662   7.144  14.390   9.076
58922SOL    HW178663   7.157  14.372   8.982
58922SOL    HW278664   7.186  14.316   9.120
58923SOL     OW78665   6.462  13.112   1.636
58923SOL    HW178666   6.512  13.035   1.609
58923SOL    HW278667   6.374  13.080   1.654
58924SOL     OW78668   3.139  13.440  12.643
58924SOL    HW178669   3.146  13.520  12.696
58924SOL    HW278670   3.229  13.421  12.617
58925SOL     OW78671   7.795  11.885   2.271
58925SOL    HW178672   7.878  11.874   2.318
58925SOL    HW278673   7.750  11.954   2.320
58926SOL     OW78674   3.588   3.455  13.744
58926SOL    HW178675   3.672   3.481  13.706
58926SOL    HW278676   3.524   3.478  13.677
58927SOL     OW78677   5.860   9.649   4.227
58927SOL    HW178678   5.934   9.613   4.178
58927SOL    HW278679   5.879   9.626   4.318
58928SOL     OW78680   2.023   2.799   4.485
58928SOL    HW178681   2.025   2.733   4.554
58928SOL    HW278682   1.978   2.873   4.524
58929SOL     OW78683  13.806  12.808  14.345
58929SOL    HW178684  13.868  12.856  14.400
58929SOL    HW278685  13.854  12.789  14.264
58930SOL     OW78686  13.467  12.549  14.559
58930SOL    HW178687  13.505  12.619  14.507
58930SOL    HW278688  13.541  12.494  14.585
58931SOL     OW78689   6.154   4.681   5.796
58931SOL    HW178690   6.136   4.659   5.888
58931SOL    HW278691   6.146   4.598   5.749
58932SOL     OW78692  14.343  14.505   2.197
58932SOL    HW178693  14.438  14.504   2.180
58932SOL    HW278694  14.313  14.589   2.162
58933SOL     OW78695  12.380   2.406   4.712
58933SOL    HW178696  12.400   2.382   4.802
58933SOL    HW278697  12.321   2.481   4.720
58934SOL     OW78698   7.731   7.384  11.173
58934SOL    HW178699   7.765   7.466  11.138
58934SOL    HW278700   7.638   7.401  11.186
58935SOL     OW78701   4.338  12.494   6.489
58935SOL    HW178702   4.275  12.440   6.441
58935SOL    HW278703   4.308  12.584   6.477
58936SOL     OW78704   0.590   6.570   5.131
58936SOL    HW178705   0.676   6.592   5.094
58936SOL    HW278706   0.580   6.476   5.115
58937SOL     OW78707   5.297   0.887  14.771
58937SOL    HW178708   5.242   0.923  14.702
58937SOL    HW278709   5.236   0.845  14.831
58938SOL     OW78710  12.485   6.349  13.083
58938SOL    HW178711  12.545   6.403  13.136
58938SOL    HW278712  12.464   6.405  13.008
58939SOL     OW78713   3.668   8.670   0.371
58939SOL    HW178714   3.589   8.724   0.376
58939SOL    HW278715   3.637   8.587   0.334
58940SOL     OW78716   8.177   3.966   0.323
58940SOL    HW178717   8.168   3.965   0.228
58940SOL    HW278718   8.270   3.952   0.339
58941SOL     OW78719  13.165   8.942  14.506
58941SOL    HW178720  13.250   8.983  14.487
58941SOL    HW278721  13.149   8.886  14.430
58942SOL     OW78722   8.179  14.151   8.267
58942SOL    HW178723   8.242  14.196   8.211
58942SOL    HW278724   8.094  14.171   8.229
58943SOL     OW78725   4.461   5.436  11.309
58943SOL    HW178726   4.517   5.504  11.271
58943SOL    HW278727   4.484   5.434  11.402
58944SOL     OW78728  13.376  14.132   7.002
58944SOL    HW178729  13.296  14.156   6.954
58944SOL    HW278730  13.414  14.215   7.028
58945SOL     OW78731   2.559   4.267  10.026
58945SOL    HW178732   2.545   4.326   9.952
58945SOL    HW278733   2.521   4.184   9.999
58946SOL     OW78734   9.824   4.468   9.887
58946SOL    HW178735   9.764   4.482   9.961
58946SOL    HW278736   9.878   4.547   9.884
58947SOL     OW78737   7.647   5.616  11.082
58947SOL    HW178738   7.737   5.622  11.049
58947SOL    HW278739   7.621   5.527  11.062
58948SOL     OW78740  11.306   9.715  13.808
58948SOL    HW178741  11.323   9.621  13.809
58948SOL    HW278742  11.237   9.726  13.743
58949SOL     OW78743  13.532  11.482  11.379
58949SOL    HW178744  13.567  11.530  11.455
58949SOL    HW278745  13.487  11.406  11.417
58950SOL     OW78746   7.242   1.223   1.760
58950SOL    HW178747   7.298   1.231   1.682
58950SOL    HW278748   7.154   1.212   1.725
58951SOL     OW78749   5.546  12.469   4.706
58951SOL    HW178750   5.618  12.487   4.765
58951SOL    HW278751   5.485  12.416   4.757
58952SOL     OW78752  13.153   7.084   9.915
58952SOL    HW178753  13.134   7.033   9.994
58952SOL    HW278754  13.196   7.023   9.856
58953SOL     OW78755  11.292   4.507   7.201
58953SOL    HW178756  11.200   4.481   7.198
58953SOL    HW278757  11.301   4.558   7.281
58954SOL     OW78758   9.264   3.812  11.194
58954SOL    HW178759   9.229   3.897  11.167
58954SOL    HW278760   9.329   3.791  11.127
58955SOL     OW78761   9.080   3.569  12.781
58955SOL    HW178762   8.986   3.587  12.779
58955SOL    HW278763   9.088   3.481  12.745
58956SOL     OW78764   4.596   0.671   4.523
58956SOL    HW178765   4.682   0.693   4.559
58956SOL    HW278766   4.561   0.606   4.583
58957SOL     OW78767  10.809  12.380  13.617
58957SOL    HW178768  10.804  12.387  13.521
58957SOL    HW278769  10.898  12.351  13.635
58958SOL     OW78770   5.899   2.382  14.090
58958SOL    HW178771   5.834   2.453  14.090
58958SOL    HW278772   5.923   2.372  13.998
58959SOL     OW78773   1.687   2.991  13.682
58959SOL    HW178774   1.687   2.989  13.586
58959SOL    HW278775   1.647   3.075  13.704
58960SOL     OW78776  14.476  10.491  13.777
58960SOL    HW178777  14.440  10.526  13.858
58960SOL    HW278778  14.413  10.519  13.710
58961SOL     OW78779  11.605  10.792  13.713
58961SOL    HW178780  11.562  10.875  13.733
58961SOL    HW278781  11.602  10.785  13.617
58962SOL     OW78782   5.548  13.597   0.196
58962SOL    HW178783   5.607  13.532   0.235
58962SOL    HW278784   5.603  13.641   0.130
58963SOL     OW78785   0.999   0.190  12.847
58963SOL    HW178786   1.088   0.169  12.817
58963SOL    HW278787   0.986   0.135  12.924
58964SOL     OW78788   3.132   1.283  11.584
58964SOL    HW178789   3.162   1.348  11.520
58964SOL    HW278790   3.037   1.296  11.589
58965SOL     OW78791   0.641   1.600  13.591
58965SOL    HW178792   0.586   1.648  13.652
58965SOL    HW278793   0.679   1.668  13.535
58966SOL     OW78794  13.124  12.543  13.691
58966SOL    HW178795  13.091  12.454  13.705
58966SOL    HW278796  13.201  12.549  13.747
58967SOL     OW78797   1.876   9.325   6.914
58967SOL    HW178798   1.807   9.280   6.866
58967SOL    HW278799   1.943   9.346   6.848
58968SOL     OW78800  10.875  10.997   1.870
58968SOL    HW178801  10.817  10.938   1.918
58968SOL    HW278802  10.935  11.031   1.936
58969SOL     OW78803   3.540   4.401   4.746
58969SOL    HW178804   3.599   4.460   4.700
58969SOL    HW278805   3.472   4.458   4.782
58970SOL     OW78806   9.093  14.765  12.998
58970SOL    HW178807   9.139  14.714  13.065
58970SOL    HW278808   9.039  14.827  13.047
58971SOL     OW78809   3.205   8.213  11.389
58971SOL    HW178810   3.279   8.173  11.344
58971SOL    HW278811   3.141   8.142  11.400
58972SOL     OW78812   6.127   3.756  10.983
58972SOL    HW178813   6.119   3.674  11.033
58972SOL    HW278814   6.221   3.770  10.975
58973SOL     OW78815   3.300   6.886  10.146
58973SOL    HW178816   3.213   6.911  10.178
58973SOL    HW278817   3.282   6.840  10.064
58974SOL     OW78818  14.734   3.960   6.608
58974SOL    HW178819  14.694   4.029   6.661
58974SOL    HW278820  14.827   3.963   6.632
58975SOL     OW78821   2.554   1.223   9.014
58975SOL    HW178822   2.474   1.172   9.007
58975SOL    HW278823   2.527   1.313   8.995
58976SOL     OW78824  10.182   4.864   8.884
58976SOL    HW178825  10.238   4.941   8.873
58976SOL    HW278826  10.230   4.808   8.946
58977SOL     OW78827   8.752   7.378  12.124
58977SOL    HW178828   8.716   7.319  12.058
58977SOL    HW278829   8.700   7.361  12.203
58978SOL     OW78830   3.703   3.666   8.921
58978SOL    HW178831   3.749   3.744   8.950
58978SOL    HW278832   3.638   3.649   8.989
58979SOL     OW78833  12.201   9.416  12.525
58979SOL    HW178834  12.155   9.333  12.518
58979SOL    HW278835  12.182   9.447  12.614
58980SOL     OW78836   5.425   6.701   2.673
58980SOL    HW178837   5.376   6.755   2.612
58980SOL    HW278838   5.380   6.713   2.757
58981SOL     OW78839  12.927   5.601  14.058
58981SOL    HW178840  12.902   5.529  14.116
58981SOL    HW278841  12.845   5.646  14.039
58982SOL     OW78842  14.170   3.403   1.674
58982SOL    HW178843  14.221   3.445   1.604
58982SOL    HW278844  14.137   3.322   1.635
58983SOL     OW78845  11.525  14.616   5.391
58983SOL    HW178846  11.471  14.543   5.359
58983SOL    HW278847  11.497  14.628   5.482
58984SOL     OW78848   7.444   1.726  14.118
58984SOL    HW178849   7.481   1.814  14.110
58984SOL    HW278850   7.503   1.670  14.066
58985SOL     OW78851  13.238   7.177   0.576
58985SOL    HW178852  13.147   7.149   0.574
58985SOL    HW278853  13.283   7.115   0.518
58986SOL     OW78854   5.507   8.487   4.869
58986SOL    HW178855   5.596   8.461   4.846
58986SOL    HW278856   5.506   8.485   4.965
58987SOL     OW78857  12.462   8.828   6.060
58987SOL    HW178858  12.555   8.811   6.077
58987SOL    HW278859  12.460   8.919   6.031
58988SOL     OW78860   7.748  10.205   9.661
58988SOL    HW178861   7.673  10.196   9.602
58988SOL    HW278862   7.824  10.197   9.603
58989SOL     OW78863  14.847   6.831  11.955
58989SOL    HW178864  14.807   6.811  11.871
58989SOL    HW278865   0.054   6.821  11.941
58990SOL     OW78866   4.999   8.702  13.779
58990SOL    HW178867   5.031   8.675  13.865
58990SOL    HW278868   4.980   8.619  13.734
58991SOL     OW78869  11.861  10.724   3.143
58991SOL    HW178870  11.863  10.806   3.192
58991SOL    HW278871  11.789  10.674   3.184
58992SOL     OW78872   1.716  11.696   5.595
58992SOL    HW178873   1.662  11.642   5.652
58992SOL    HW278874   1.805  11.663   5.608
58993SOL     OW78875   6.974  10.484   3.978
58993SOL    HW178876   6.899  10.425   3.979
58993SOL    HW278877   6.945  10.562   4.024
58994SOL     OW78878  12.418  11.891   1.790
58994SOL    HW178879  12.406  11.946   1.868
58994SOL    HW278880  12.391  11.804   1.818
58995SOL     OW78881  12.895  13.064  13.128
58995SOL    HW178882  12.882  13.047  13.035
58995SOL    HW278883  12.950  13.143  13.130
58996SOL     OW78884  13.132   2.727   6.172
58996SOL    HW178885  13.070   2.799   6.178
58996SOL    HW278886  13.201   2.748   6.235
58997SOL     OW78887   5.114  11.830   6.488
58997SOL    HW178888   5.160  11.901   6.443
58997SOL    HW278889   5.138  11.840   6.580
58998SOL     OW78890   7.461  11.365  13.476
58998SOL    HW178891   7.390  11.364  13.411
58998SOL    HW278892   7.536  11.327  13.430
58999SOL     OW78893   0.913   0.614  13.385
58999SOL    HW178894   0.920   0.700  13.345
58999SOL    HW278895   0.934   0.553  13.314
59000SOL     OW78896   6.339   6.961   6.858
59000SOL    HW178897   6.364   6.949   6.767
59000SOL    HW278898   6.366   7.050   6.879
59001SOL     OW78899   6.329   3.215  10.335
59001SOL    HW178900   6.344   3.302  10.298
59001SOL    HW278901   6.235   3.201  10.328
59002SOL     OW78902   0.355   5.505  10.965
59002SOL    HW178903   0.314   5.560  11.032
59002SOL    HW278904   0.449   5.515  10.979
59003SOL     OW78905  11.036   0.107  11.285
59003SOL    HW178906  11.040   0.132  11.377
59003SOL    HW278907  10.943   0.113  11.262
59004SOL     OW78908   8.848  14.697   1.117
59004SOL    HW178909   8.844  14.645   1.198
59004SOL    HW278910   8.879  14.635   1.051
59005SOL     OW78911   2.818   9.254   7.364
59005SOL    HW178912   2.821   9.175   7.310
59005SOL    HW278913   2.881   9.313   7.323
59006SOL     OW78914  14.386   0.182   2.312
59006SOL    HW178915  14.455   0.178   2.246
59006SOL    HW278916  14.400   0.105   2.366
59007SOL     OW78917   5.616  12.461   8.183
59007SOL    HW178918   5.637  12.486   8.273
59007SOL    HW278919   5.527  12.426   8.187
59008SOL     OW78920  14.246   0.324  14.003
59008SOL    HW178921  14.207   0.352  13.920
59008SOL    HW278922  14.235   0.399  14.061
59009SOL     OW78923  11.308  10.323  13.096
59009SOL    HW178924  11.245  10.281  13.036
59009SOL    HW278925  11.342  10.397  13.045
59010SOL     OW78926   4.289   8.988   8.604
59010SOL    HW178927   4.265   9.072   8.565
59010SOL    HW278928   4.385   8.987   8.601
59011SOL     OW78929   7.738   0.782   1.861
59011SOL    HW178930   7.650   0.792   1.895
59011SOL    HW278931   7.727   0.732   1.780
59012SOL     OW78932  14.816   1.655   1.524
59012SOL    HW178933  14.874   1.594   1.478
59012SOL    HW278934  14.731   1.611   1.525
59013SOL     OW78935   9.200   6.473  12.228
59013SOL    HW178936   9.150   6.553  12.239
59013SOL    HW278937   9.220   6.444  12.317
59014SOL     OW78938   2.049   7.497  11.248
59014SOL    HW178939   2.019   7.588  11.247
59014SOL    HW278940   2.075   7.480  11.157
59015SOL     OW78941   5.524  11.251  11.640
59015SOL    HW178942   5.515  11.318  11.572
59015SOL    HW278943   5.435  11.232  11.668
59016SOL     OW78944   2.947   1.083  13.495
59016SOL    HW178945   3.020   1.129  13.454
59016SOL    HW278946   2.889   1.059  13.422
59017SOL     OW78947   3.600   6.132   2.753
59017SOL    HW178948   3.561   6.218   2.739
59017SOL    HW278949   3.627   6.132   2.845
59018SOL     OW78950  10.104  14.400  14.305
59018SOL    HW178951  10.125  14.468  14.369
59018SOL    HW278952  10.131  14.318  14.347
59019SOL     OW78953  10.101   4.667   5.359
59019SOL    HW178954  10.049   4.620   5.424
59019SOL    HW278955  10.040   4.687   5.288
59020SOL     OW78956   4.043  10.560   8.725
59020SOL    HW178957   3.962  10.577   8.678
59020SOL    HW278958   4.079  10.481   8.684
59021SOL     OW78959   6.958   7.358   1.326
59021SOL    HW178960   6.942   7.453   1.324
59021SOL    HW278961   7.027   7.347   1.391
59022SOL     OW78962   3.614   6.075   1.465
59022SOL    HW178963   3.691   6.043   1.513
59022SOL    HW278964   3.603   6.165   1.496
59023SOL     OW78965  14.001   5.905   1.127
59023SOL    HW178966  13.969   5.835   1.184
59023SOL    HW278967  13.988   5.985   1.179
59024SOL     OW78968   3.809   7.709   4.773
59024SOL    HW178969   3.722   7.688   4.740
59024SOL    HW278970   3.826   7.644   4.841
59025SOL     OW78971  12.250   7.942   8.984
59025SOL    HW178972  12.199   7.862   8.969
59025SOL    HW278973  12.282   7.933   9.074
59026SOL     OW78974   4.851   7.831   6.948
59026SOL    HW178975   4.867   7.873   7.033
59026SOL    HW278976   4.868   7.739   6.964
59027SOL     OW78977   5.160  11.286   4.942
59027SOL    HW178978   5.079  11.336   4.938
59027SOL    HW278979   5.132  11.194   4.938
59028SOL     OW78980   4.810   8.263   2.734
59028SOL    HW178981   4.828   8.172   2.711
59028SOL    HW278982   4.773   8.301   2.654
59029SOL     OW78983  11.701  11.829  12.045
59029SOL    HW178984  11.699  11.734  12.038
59029SOL    HW278985  11.780  11.855  11.998
59030SOL     OW78986  13.598   2.828   1.295
59030SOL    HW178987  13.574   2.874   1.215
59030SOL    HW278988  13.689   2.801   1.281
59031SOL     OW78989   0.369  13.261   9.301
59031SOL    HW178990   0.400  13.315   9.373
59031SOL    HW278991   0.287  13.302   9.273
59032SOL     OW78992  14.166   4.853   0.113
59032SOL    HW178993  14.184   4.939   0.152
59032SOL    HW278994  14.252   4.810   0.109
59033SOL     OW78995   6.201   5.224   9.087
59033SOL    HW178996   6.268   5.285   9.117
59033SOL    HW278997   6.119   5.273   9.092
59034SOL     OW78998   5.031   2.821  11.796
59034SOL    HW178999   5.026   2.749  11.859
59034SOL    HW279000   5.026   2.900  11.850
59035SOL     OW79001  14.646   6.251   1.606
59035SOL    HW179002  14.621   6.174   1.657
59035SOL    HW279003  14.583   6.318   1.633
59036SOL     OW79004   4.906   5.567  14.207
59036SOL    HW179005   4.950   5.606  14.132
59036SOL    HW279006   4.852   5.497  14.170
59037SOL     OW79007   6.694   3.214  11.479
59037SOL    HW179008   6.713   3.121  11.488
59037SOL    HW279009   6.730   3.254  11.558
59038SOL     OW79010   8.460   5.476  12.456
59038SOL    HW179011   8.378   5.428  12.450
59038SOL    HW279012   8.525   5.417  12.416
59039SOL     OW79013  13.342  14.113   9.989
59039SOL    HW179014  13.417  14.168   9.965
59039SOL    HW279015  13.380  14.035  10.027
59040SOL     OW79016   1.061   6.180   1.998
59040SOL    HW179017   0.988   6.125   1.969
59040SOL    HW279018   1.023   6.233   2.068
59041SOL     OW79019  11.601   2.643   5.449
59041SOL    HW179020  11.673   2.682   5.398
59041SOL    HW279021  11.603   2.689   5.533
59042SOL     OW79022  11.244   3.162   0.340
59042SOL    HW179023  11.170   3.171   0.401
59042SOL    HW279024  11.203   3.153   0.254
59043SOL     OW79025   5.563  11.089   1.256
59043SOL    HW179026   5.610  11.068   1.336
59043SOL    HW279027   5.630  11.121   1.196
59044SOL     OW79028  11.276  11.956   2.439
59044SOL    HW179029  11.231  12.036   2.410
59044SOL    HW279030  11.352  11.949   2.381
59045SOL     OW79031   6.358  10.117   6.469
59045SOL    HW179032   6.276  10.111   6.420
59045SOL    HW279033   6.332  10.104   6.560
59046SOL     OW79034   2.650   9.162   8.140
59046SOL    HW179035   2.563   9.188   8.110
59046SOL    HW279036   2.673   9.227   8.207
59047SOL     OW79037   4.865  13.498  12.057
59047SOL    HW179038   4.924  13.463  12.124
59047SOL    HW279039   4.865  13.593  12.073
59048SOL     OW79040   8.201   2.327  14.402
59048SOL    HW179041   8.165   2.403  14.449
59048SOL    HW279042   8.148   2.253  14.432
59049SOL     OW79043   4.333   4.447  14.154
59049SOL    HW179044   4.294   4.359  14.160
59049SOL    HW279045   4.258   4.506  14.154
59050SOL     OW79046  13.244  12.268   2.477
59050SOL    HW179047  13.233  12.353   2.435
59050SOL    HW279048  13.156  12.245   2.508
59051SOL     OW79049  11.878   5.330  11.411
59051SOL    HW179050  11.930   5.252  11.431
59051SOL    HW279051  11.815   5.302  11.345
59052SOL     OW79052  10.914   9.378   1.959
59052SOL    HW179053  10.984   9.404   2.019
59052SOL    HW279054  10.896   9.287   1.981
59053SOL     OW79055   5.630   2.531   6.904
59053SOL    HW179056   5.572   2.549   6.977
59053SOL    HW279057   5.571   2.506   6.832
59054SOL     OW79058  12.638   8.471  13.611
59054SOL    HW179059  12.608   8.504  13.526
59054SOL    HW279060  12.622   8.543  13.672
59055SOL     OW79061   7.450  14.197   4.171
59055SOL    HW179062   7.391  14.207   4.096
59055SOL    HW279063   7.463  14.102   4.177
59056SOL     OW79064  12.820   0.562   4.404
59056SOL    HW179065  12.792   0.592   4.491
59056SOL    HW279066  12.773   0.480   4.390
59057SOL     OW79067  12.754  10.137   8.734
59057SOL    HW179068  12.693  10.070   8.702
59057SOL    HW279069  12.713  10.220   8.710
59058SOL     OW79070   3.200  12.384   0.203
59058SOL    HW179071   3.183  12.312   0.141
59058SOL    HW279072   3.173  12.349   0.288
59059SOL     OW79073   6.437   2.575   1.010
59059SOL    HW179074   6.452   2.579   0.916
59059SOL    HW279075   6.500   2.510   1.042
59060SOL     OW79076   9.190   3.942  11.902
59060SOL    HW179077   9.281   3.914  11.909
59060SOL    HW279078   9.194   4.037  11.893
59061SOL     OW79079  10.548   5.382   4.491
59061SOL    HW179080  10.542   5.342   4.404
59061SOL    HW279081  10.459   5.375   4.526
59062SOL     OW79082   0.930   7.419   0.454
59062SOL    HW179083   0.843   7.450   0.477
59062SOL    HW279084   0.986   7.449   0.525
59063SOL     OW79085   3.041  14.173   8.023
59063SOL    HW179086   3.008  14.134   8.104
59063SOL    HW279087   3.133  14.191   8.041
59064SOL     OW79088   2.179   7.004   5.958
59064SOL    HW179089   2.192   7.000   6.053
59064SOL    HW279090   2.126   7.083   5.945
59065SOL     OW79091   5.138  13.358   7.002
59065SOL    HW179092   5.196  13.358   7.078
59065SOL    HW279093   5.050  13.359   7.039
59066SOL     OW79094   4.289  11.544  14.218
59066SOL    HW179095   4.337  11.469  14.183
59066SOL    HW279096   4.319  11.618  14.165
59067SOL     OW79097   8.635  13.070  13.222
59067SOL    HW179098   8.656  13.162  13.235
59067SOL    HW279099   8.719  13.025  13.225
59068SOL     OW79100   3.535   7.097   8.235
59068SOL    HW179101   3.553   7.007   8.259
59068SOL    HW279102   3.588   7.149   8.296
59069SOL     OW79103  14.438   3.862   7.214
59069SOL    HW179104  14.343   3.875   7.216
59069SOL    HW279105  14.451   3.786   7.159
59070SOL     OW79106   1.929   4.332   6.754
59070SOL    HW179107   1.910   4.269   6.823
59070SOL    HW279108   1.857   4.396   6.759
59071SOL     OW79109   2.560  10.407   0.513
59071SOL    HW179110   2.642  10.394   0.466
59071SOL    HW279111   2.521  10.319   0.517
59072SOL     OW79112   3.502   5.930  11.205
59072SOL    HW179113   3.414   5.900  11.181
59072SOL    HW279114   3.560   5.880  11.149
59073SOL     OW79115   2.141  14.486  13.082
59073SOL    HW179116   2.087  14.514  13.157
59073SOL    HW279117   2.109  14.539  13.009
59074SOL     OW79118  11.821   4.764   2.871
59074SOL    HW179119  11.852   4.734   2.956
59074SOL    HW279120  11.838   4.690   2.812
59075SOL     OW79121  11.165   9.828  10.874
59075SOL    HW179122  11.104   9.874  10.931
59075SOL    HW279123  11.147   9.735  10.890
59076SOL     OW79124  11.133  12.996  12.631
59076SOL    HW179125  11.145  12.938  12.705
59076SOL    HW279126  11.115  12.938  12.557
59077SOL     OW79127   2.815   2.291  14.883
59077SOL    HW179128   2.837   2.384  14.887
59077SOL    HW279129   2.803   2.274  14.790
59078SOL     OW79130   2.032  10.698   5.794
59078SOL    HW179131   2.072  10.626   5.842
59078SOL    HW279132   2.098  10.767   5.797
59079SOL     OW79133   1.190   6.247   1.574
59079SOL    HW179134   1.210   6.251   1.668
59079SOL    HW279135   1.107   6.200   1.569
59080SOL     OW79136   0.656   4.618   3.810
59080SOL    HW179137   0.744   4.611   3.847
59080SOL    HW279138   0.599   4.571   3.871
59081SOL     OW79139  11.927   1.774   8.117
59081SOL    HW179140  11.979   1.854   8.103
59081SOL    HW279141  11.993   1.704   8.124
59082SOL     OW79142   0.608  10.266   6.152
59082SOL    HW179143   0.702  10.255   6.144
59082SOL    HW279144   0.587  10.230   6.239
59083SOL     OW79145  11.488   4.664   9.642
59083SOL    HW179146  11.574   4.674   9.684
59083SOL    HW279147  11.481   4.570   9.625
59084SOL     OW79148  11.618   1.963   7.130
59084SOL    HW179149  11.652   1.946   7.042
59084SOL    HW279150  11.601   1.876   7.166
59085SOL     OW79151  10.518   5.301   5.820
59085SOL    HW179152  10.569   5.333   5.746
59085SOL    HW279153  10.581   5.254   5.875
59086SOL     OW79154   6.192   1.143  12.892
59086SOL    HW179155   6.276   1.186  12.879
59086SOL    HW279156   6.213   1.050  12.896
59087SOL     OW79157   3.952  11.784   9.124
59087SOL    HW179158   4.034  11.786   9.173
59087SOL    HW279159   3.974  11.741   9.042
59088SOL     OW79160   9.220  12.057   1.664
59088SOL    HW179161   9.238  11.966   1.687
59088SOL    HW279162   9.305  12.092   1.636
59089SOL     OW79163   9.012  13.875   3.854
59089SOL    HW179164   8.980  13.857   3.942
59089SOL    HW279165   9.089  13.931   3.867
59090SOL     OW79166   6.244   9.026   7.021
59090SOL    HW179167   6.177   9.046   7.087
59090SOL    HW279168   6.229   9.090   6.951
59091SOL     OW79169   1.989  12.721   9.076
59091SOL    HW179170   2.083  12.733   9.088
59091SOL    HW279171   1.949  12.773   9.146
59092SOL     OW79172  13.833   6.511  13.558
59092SOL    HW179173  13.923   6.486  13.540
59092SOL    HW279174  13.811   6.467  13.640
59093SOL     OW79175   7.582   7.297  10.078
59093SOL    HW179176   7.636   7.306  10.156
59093SOL    HW279177   7.634   7.336  10.008
59094SOL     OW79178  13.355   5.205   5.313
59094SOL    HW179179  13.436   5.173   5.352
59094SOL    HW279180  13.318   5.129   5.267
59095SOL     OW79181  11.637  14.068   2.312
59095SOL    HW179182  11.632  14.001   2.243
59095SOL    HW279183  11.674  14.022   2.387
59096SOL     OW79184   4.395   1.007  14.242
59096SOL    HW179185   4.469   0.949  14.262
59096SOL    HW279186   4.321   0.970  14.290
59097SOL     OW79187  10.780   3.139  13.426
59097SOL    HW179188  10.689   3.123  13.453
59097SOL    HW279189  10.781   3.118  13.332
59098SOL     OW79190   6.145  14.875   2.018
59098SOL    HW179191   6.114  14.863   1.928
59098SOL    HW279192   6.183   0.075   2.019
59099SOL     OW79193  10.401   4.572   3.133
59099SOL    HW179194  10.409   4.491   3.182
59099SOL    HW279195  10.421   4.641   3.196
59100SOL     OW79196   1.703   0.366  13.404
59100SOL    HW179197   1.636   0.415  13.451
59100SOL    HW279198   1.689   0.390  13.312
59101SOL     OW79199   7.455  10.261   9.178
59101SOL    HW179200   7.493  10.267   9.091
59101SOL    HW279201   7.387  10.194   9.170
59102SOL     OW79202  12.923   3.924   4.873
59102SOL    HW179203  12.846   3.974   4.899
59102SOL    HW279204  12.925   3.930   4.778
59103SOL     OW79205  12.939  10.209   7.506
59103SOL    HW179206  13.027  10.226   7.470
59103SOL    HW279207  12.943  10.245   7.595
59104SOL     OW79208   2.457   6.131   0.354
59104SOL    HW179209   2.532   6.175   0.313
59104SOL    HW279210   2.419   6.198   0.411
59105SOL     OW79211   6.581   0.020   2.710
59105SOL    HW179212   6.517   0.003   2.778
59105SOL    HW279213   6.628  14.825   2.699
59106SOL     OW79214   4.075   1.055   1.884
59106SOL    HW179215   4.116   0.980   1.928
59106SOL    HW279216   4.141   1.125   1.890
59107SOL     OW79217   7.317   8.767  13.438
59107SOL    HW179218   7.307   8.755  13.532
59107SOL    HW279219   7.305   8.861  13.423
59108SOL     OW79220  14.716   8.330   3.196
59108SOL    HW179221  14.763   8.248   3.206
59108SOL    HW279222  14.625   8.304   3.179
59109SOL     OW79223   1.013  12.877  12.308
59109SOL    HW179224   1.066  12.947  12.346
59109SOL    HW279225   1.009  12.897  12.214
59110SOL     OW79226   7.087   7.982  12.142
59110SOL    HW179227   7.030   7.915  12.103
59110SOL    HW279228   7.097   8.047  12.073
59111SOL     OW79229  11.452   7.816   8.445
59111SOL    HW179230  11.379   7.876   8.430
59111SOL    HW279231  11.486   7.842   8.531
59112SOL     OW79232   3.471   8.165   6.552
59112SOL    HW179233   3.425   8.129   6.476
59112SOL    HW279234   3.402   8.197   6.609
59113SOL     OW79235   6.299   1.562   4.814
59113SOL    HW179236   6.250   1.543   4.734
59113SOL    HW279237   6.255   1.638   4.851
59114SOL     OW79238   9.410  10.192   1.693
59114SOL    HW179239   9.370  10.209   1.779
59114SOL    HW279240   9.501  10.170   1.713
59115SOL     OW79241   0.590   7.592   9.364
59115SOL    HW179242   0.623   7.516   9.316
59115SOL    HW279243   0.518   7.625   9.310
59116SOL     OW79244  12.083   4.616   9.894
59116SOL    HW179245  12.157   4.661   9.853
59116SOL    HW279246  12.121   4.571   9.970
59117SOL     OW79247   9.280   6.503  14.684
59117SOL    HW179248   9.315   6.440  14.622
59117SOL    HW279249   9.185   6.497  14.673
59118SOL     OW79250   1.599  14.174  11.588
59118SOL    HW179251   1.526  14.230  11.562
59118SOL    HW279252   1.611  14.115  11.513
59119SOL     OW79253   3.462  11.213  12.203
59119SOL    HW179254   3.539  11.234  12.150
59119SOL    HW279255   3.395  11.274  12.173
59120SOL     OW79256  14.684   7.228   5.737
59120SOL    HW179257  14.602   7.199   5.697
59120SOL    HW279258  14.728   7.278   5.668
59121SOL     OW79259   2.688   2.897   9.755
59121SOL    HW179260   2.757   2.838   9.785
59121SOL    HW279261   2.626   2.840   9.710
59122SOL     OW79262   1.977   7.105   0.010
59122SOL    HW179263   1.927   7.036   0.053
59122SOL    HW279264   1.923   7.131  14.823
59123SOL     OW79265  14.761   4.706  13.835
59123SOL    HW179266  14.667   4.706  13.817
59123SOL    HW279267  14.778   4.791  13.875
59124SOL     OW79268   9.200   6.174   1.967
59124SOL    HW179269   9.246   6.122   1.901
59124SOL    HW279270   9.111   6.137   1.969
59125SOL     OW79271   2.246  12.435  12.185
59125SOL    HW179272   2.309  12.506  12.178
59125SOL    HW279273   2.291  12.368  12.236
59126SOL     OW79274   5.644  10.976   7.236
59126SOL    HW179275   5.671  11.030   7.162
59126SOL    HW279276   5.710  10.995   7.304
59127SOL     OW79277   1.235   8.369  13.587
59127SOL    HW179278   1.301   8.379  13.519
59127SOL    HW279279   1.254   8.438  13.650
59128SOL     OW79280   4.554  14.500   7.899
59128SOL    HW179281   4.621  14.439   7.930
59128SOL    HW279282   4.547  14.483   7.805
59129SOL     OW79283   9.474  13.048  12.052
59129SOL    HW179284   9.515  13.039  12.138
59129SOL    HW279285   9.457  12.959  12.023
59130SOL     OW79286  12.432   4.631   1.683
59130SOL    HW179287  12.492   4.685   1.733
59130SOL    HW279288  12.357   4.688   1.665
59131SOL     OW79289   1.196   0.034   5.726
59131SOL    HW179290   1.292   0.040   5.718
59131SOL    HW279291   1.181   0.033   5.821
59132SOL     OW79292   7.265  12.571  13.357
59132SOL    HW179293   7.217  12.493  13.329
59132SOL    HW279294   7.313  12.599  13.278
59133SOL     OW79295   2.723  10.388   1.236
59133SOL    HW179296   2.655  10.330   1.201
59133SOL    HW279297   2.700  10.475   1.204
59134SOL     OW79298  13.099   4.203   1.889
59134SOL    HW179299  13.114   4.153   1.969
59134SOL    HW279300  13.129   4.291   1.910
59135SOL     OW79301   1.547  11.734   4.356
59135SOL    HW179302   1.554  11.713   4.263
59135SOL    HW279303   1.548  11.649   4.400
59136SOL     OW79304   5.932  11.439   4.054
59136SOL    HW179305   5.919  11.474   3.966
59136SOL    HW279306   5.924  11.344   4.044
59137SOL     OW79307   7.865  10.126   6.328
59137SOL    HW179308   7.831  10.194   6.387
59137SOL    HW279309   7.807  10.051   6.342
59138SOL     OW79310  11.933   1.148   4.226
59138SOL    HW179311  11.889   1.066   4.206
59138SOL    HW279312  12.024   1.133   4.201
59139SOL     OW79313  12.707   9.299  12.383
59139SOL    HW179314  12.640   9.363  12.407
59139SOL    HW279315  12.777   9.312  12.447
59140SOL     OW79316   9.427   6.762   4.442
59140SOL    HW179317   9.331   6.754   4.435
59140SOL    HW279318   9.460   6.695   4.383
59141SOL     OW79319  11.053   4.675   3.103
59141SOL    HW179320  11.131   4.682   3.048
59141SOL    HW279321  10.985   4.719   3.053
59142SOL     OW79322   8.770   0.998   9.175
59142SOL    HW179323   8.707   1.052   9.224
59142SOL    HW279324   8.798   0.931   9.237
59143SOL     OW79325  10.081   1.872   7.392
59143SOL    HW179326  10.051   1.873   7.483
59143SOL    HW279327  10.016   1.818   7.347
59144SOL     OW79328  12.149   3.536   3.753
59144SOL    HW179329  12.117   3.519   3.841
59144SOL    HW279330  12.208   3.463   3.734
59145SOL     OW79331   1.690  13.535   3.190
59145SOL    HW179332   1.717  13.569   3.276
59145SOL    HW279333   1.772  13.524   3.142
59146SOL     OW79334   4.119   1.307  12.909
59146SOL    HW179335   4.145   1.391  12.872
59146SOL    HW279336   4.145   1.313  13.001
59147SOL     OW79337   2.921  12.784   9.779
59147SOL    HW179338   3.006  12.820   9.805
59147SOL    HW279339   2.930  12.690   9.791
59148SOL     OW79340  13.788   5.613  13.296
59148SOL    HW179341  13.726   5.560  13.345
59148SOL    HW279342  13.868   5.560  13.294
59149SOL     OW79343   6.651   0.044  10.208
59149SOL    HW179344   6.569   0.013  10.169
59149SOL    HW279345   6.623   0.106  10.275
59150SOL     OW79346   4.590   2.731  11.051
59150SOL    HW179347   4.686   2.724  11.056
59150SOL    HW279348   4.575   2.793  10.980
59151SOL     OW79349  11.974  13.264  11.985
59151SOL    HW179350  11.897  13.309  12.019
59151SOL    HW279351  12.032  13.254  12.061
59152SOL     OW79352   8.993   0.424   2.832
59152SOL    HW179353   9.020   0.338   2.799
59152SOL    HW279354   8.957   0.469   2.756
59153SOL     OW79355   4.817  11.668   0.930
59153SOL    HW179356   4.851  11.715   0.854
59153SOL    HW279357   4.783  11.737   0.987
59154SOL     OW79358   2.069  10.738   7.494
59154SOL    HW179359   2.056  10.817   7.546
59154SOL    HW279360   2.004  10.676   7.527
59155SOL     OW79361   3.228   0.030  12.527
59155SOL    HW179362   3.200  14.828  12.510
59155SOL    HW279363   3.159   0.067  12.582
59156SOL     OW79364   2.927   4.898   7.615
59156SOL    HW179365   2.844   4.940   7.591
59156SOL    HW279366   2.915   4.807   7.591
59157SOL     OW79367  12.511  12.196  11.543
59157SOL    HW179368  12.462  12.272  11.574
59157SOL    HW279369  12.597  12.205  11.583
59158SOL     OW79370   0.495   6.979  10.975
59158SOL    HW179371   0.586   6.955  10.998
59158SOL    HW279372   0.503   7.062  10.928
59159SOL     OW79373   0.543  10.719   0.915
59159SOL    HW179374   0.517  10.800   0.871
59159SOL    HW279375   0.617  10.686   0.863
59160SOL     OW79376   1.792   4.361   9.167
59160SOL    HW179377   1.846   4.347   9.244
59160SOL    HW279378   1.844   4.325   9.094
59161SOL     OW79379  11.968  11.267   3.519
59161SOL    HW179380  11.969  11.171   3.514
59161SOL    HW279381  12.029  11.295   3.450
59162SOL     OW79382  11.668  12.152   0.603
59162SOL    HW179383  11.699  12.113   0.521
59162SOL    HW279384  11.645  12.077   0.658
59163SOL     OW79385  14.534   6.376  10.151
59163SOL    HW179386  14.535   6.471  10.158
59163SOL    HW279387  14.576   6.358  10.067
59164SOL     OW79388   7.169  10.902   0.686
59164SOL    HW179389   7.167  10.952   0.767
59164SOL    HW279390   7.104  10.944   0.630
59165SOL     OW79391   6.030  13.885  14.528
59165SOL    HW179392   5.956  13.891  14.468
59165SOL    HW279393   6.009  13.945  14.599
59166SOL     OW79394  10.597   6.610  10.339
59166SOL    HW179395  10.609   6.689  10.392
59166SOL    HW279396  10.502   6.596  10.338
59167SOL     OW79397   8.173   7.408   9.518
59167SOL    HW179398   8.199   7.323   9.552
59167SOL    HW279399   8.245   7.433   9.460
59168SOL     OW79400  14.800  12.280  11.409
59168SOL    HW179401  14.714  12.271  11.451
59168SOL    HW279402  14.829  12.368  11.432
59169SOL     OW79403   5.692   2.699   9.000
59169SOL    HW179404   5.734   2.648   9.069
59169SOL    HW279405   5.650   2.634   8.944
59170SOL     OW79406   7.694   2.095   1.006
59170SOL    HW179407   7.601   2.078   1.017
59170SOL    HW279408   7.707   2.096   0.911
59171SOL     OW79409   8.633   4.040   1.956
59171SOL    HW179410   8.576   3.964   1.944
59171SOL    HW279411   8.619   4.067   2.046
59172SOL     OW79412   8.985   4.687   6.797
59172SOL    HW179413   9.048   4.701   6.726
59172SOL    HW279414   8.945   4.772   6.810
59173SOL     OW79415   1.974  11.995   6.530
59173SOL    HW179416   2.004  12.071   6.579
59173SOL    HW279417   2.054  11.948   6.506
59174SOL     OW79418  13.267  11.124   1.899
59174SOL    HW179419  13.306  11.180   1.966
59174SOL    HW279420  13.340  11.097   1.843
59175SOL     OW79421   8.047   4.742   9.013
59175SOL    HW179422   8.022   4.742   9.106
59175SOL    HW279423   8.074   4.832   8.996
59176SOL     OW79424  10.997  11.506   5.864
59176SOL    HW179425  10.992  11.510   5.959
59176SOL    HW279426  10.911  11.538   5.834
59177SOL     OW79427  14.273   6.166   2.551
59177SOL    HW179428  14.236   6.134   2.634
59177SOL    HW279429  14.262   6.261   2.555
59178SOL     OW79430  10.792   9.953  10.288
59178SOL    HW179431  10.727  10.021  10.269
59178SOL    HW279432  10.742   9.871  10.286
59179SOL     OW79433   5.469   2.927   8.405
59179SOL    HW179434   5.464   3.006   8.459
59179SOL    HW279435   5.512   2.862   8.460
59180SOL     OW79436   0.993   2.360   7.927
59180SOL    HW179437   0.994   2.275   7.972
59180SOL    HW279438   0.917   2.354   7.869
59181SOL     OW79439  14.519   9.832  13.332
59181SOL    HW179440  14.569   9.754  13.355
59181SOL    HW279441  14.485   9.814  13.245
59182SOL     OW79442   4.401   8.197  13.435
59182SOL    HW179443   4.475   8.244  13.475
59182SOL    HW279444   4.323   8.235  13.476
59183SOL     OW79445  12.337  11.743  11.576
59183SOL    HW179446  12.418  11.696  11.559
59183SOL    HW279447  12.308  11.775  11.491
59184SOL     OW79448  14.689  10.384   1.983
59184SOL    HW179449  14.615  10.412   1.929
59184SOL    HW279450  14.766  10.406   1.930
59185SOL     OW79451   9.235   0.942   0.410
59185SOL    HW179452   9.245   0.927   0.504
59185SOL    HW279453   9.298   1.011   0.390
59186SOL     OW79454   2.581   5.537   6.167
59186SOL    HW179455   2.502   5.563   6.215
59186SOL    HW279456   2.595   5.446   6.192
59187SOL     OW79457   4.877   4.722  13.958
59187SOL    HW179458   4.956   4.669  13.954
59187SOL    HW279459   4.813   4.673  13.906
59188SOL     OW79460  11.619  14.296   3.164
59188SOL    HW179461  11.577  14.220   3.124
59188SOL    HW279462  11.568  14.313   3.243
59189SOL     OW79463  13.749   1.524   2.707
59189SOL    HW179464  13.782   1.434   2.709
59189SOL    HW279465  13.654   1.515   2.699
59190SOL     OW79466   1.875  12.429  10.461
59190SOL    HW179467   1.867  12.396  10.372
59190SOL    HW279468   1.919  12.514  10.451
59191SOL     OW79469   0.719   9.387   3.178
59191SOL    HW179470   0.697   9.454   3.112
59191SOL    HW279471   0.650   9.321   3.168
59192SOL     OW79472  14.338   2.238   5.415
59192SOL    HW179473  14.407   2.231   5.349
59192SOL    HW279474  14.259   2.208   5.370
59193SOL     OW79475   8.203  12.634   8.981
59193SOL    HW179476   8.292  12.624   8.948
59193SOL    HW279477   8.199  12.576   9.058
59194SOL     OW79478  11.930  13.614  10.672
59194SOL    HW179479  12.008  13.667  10.685
59194SOL    HW279480  11.942  13.574  10.586
59195SOL     OW79481   9.512   8.117   5.374
59195SOL    HW179482   9.490   8.031   5.409
59195SOL    HW279483   9.459   8.125   5.295
59196SOL     OW79484   1.810   3.431   9.222
59196SOL    HW179485   1.757   3.393   9.292
59196SOL    HW279486   1.862   3.358   9.189
59197SOL     OW79487   8.360   5.375   5.773
59197SOL    HW179488   8.339   5.445   5.835
59197SOL    HW279489   8.359   5.295   5.826
59198SOL     OW79490  10.193  14.568   1.069
59198SOL    HW179491  10.203  14.478   1.098
59198SOL    HW279492  10.233  14.621   1.138
59199SOL     OW79493  13.917   0.597   6.588
59199SOL    HW179494  13.825   0.579   6.607
59199SOL    HW279495  13.962   0.514   6.605
59200SOL     OW79496   5.913  13.284   9.955
59200SOL    HW179497   5.999  13.290   9.915
59200SOL    HW279498   5.914  13.201  10.002
59201SOL     OW79499   5.027  13.023  11.871
59201SOL    HW179500   5.017  13.048  11.963
59201SOL    HW279501   5.000  12.931  11.868
59202SOL     OW79502   4.886  11.753   9.640
59202SOL    HW179503   4.945  11.678   9.631
59202SOL    HW279504   4.831  11.731   9.716
59203SOL     OW79505   7.553  14.374  11.096
59203SOL    HW179506   7.556  14.458  11.051
59203SOL    HW279507   7.464  14.341  11.079
59204SOL     OW79508   3.117   6.602   0.905
59204SOL    HW179509   3.208   6.614   0.932
59204SOL    HW279510   3.114   6.513   0.869
59205SOL     OW79511   8.416  10.173   5.817
59205SOL    HW179512   8.415  10.127   5.733
59205SOL    HW279513   8.495  10.227   5.814
59206SOL     OW79514   7.971   3.214   4.977
59206SOL    HW179515   7.928   3.132   5.004
59206SOL    HW279516   8.002   3.253   5.059
59207SOL     OW79517   7.097  14.603   1.461
59207SOL    HW179518   7.134  14.634   1.378
59207SOL    HW279519   7.063  14.516   1.441
59208SOL     OW79520   0.841   9.505  13.410
59208SOL    HW179521   0.795   9.522  13.492
59208SOL    HW279522   0.891   9.425  13.427
59209SOL     OW79523  11.397   1.434  14.110
59209SOL    HW179524  11.345   1.508  14.141
59209SOL    HW279525  11.343   1.392  14.043
59210SOL     OW79526   6.950  14.817   1.013
59210SOL    HW179527   6.930  14.747   1.075
59210SOL    HW279528   6.866  14.861   0.999
59211SOL     OW79529   9.135   4.650  10.159
59211SOL    HW179530   9.057   4.599  10.181
59211SOL    HW279531   9.112   4.696  10.079
59212SOL     OW79532  10.986   8.003   3.532
59212SOL    HW179533  11.047   7.955   3.589
59212SOL    HW279534  10.935   7.934   3.489
59213SOL     OW79535  12.935   8.979   3.618
59213SOL    HW179536  12.894   9.032   3.550
59213SOL    HW279537  12.871   8.978   3.689
59214SOL     OW79538   0.033   6.411   5.190
59214SOL    HW179539   0.097   6.478   5.167
59214SOL    HW279540  14.864   6.404   5.113
59215SOL     OW79541   0.780  14.813   5.848
59215SOL    HW179542   0.716  14.879   5.820
59215SOL    HW279543   0.827  14.790   5.769
59216SOL     OW79544   7.177  12.248  11.029
59216SOL    HW179545   7.265  12.211  11.030
59216SOL    HW279546   7.123  12.180  10.989
59217SOL     OW79547   5.814   5.781  12.381
59217SOL    HW179548   5.888   5.787  12.442
59217SOL    HW279549   5.835   5.842  12.311
59218SOL     OW79550   4.948   8.392   3.594
59218SOL    HW179551   4.911   8.335   3.661
59218SOL    HW279552   4.921   8.354   3.511
59219SOL     OW79553   3.975   6.425   3.132
59219SOL    HW179554   4.064   6.427   3.165
59219SOL    HW279555   3.978   6.367   3.056
59220SOL     OW79556  10.217   0.250   2.566
59220SOL    HW179557  10.291   0.230   2.625
59220SOL    HW279558  10.151   0.185   2.588
59221SOL     OW79559   2.847   6.560   0.697
59221SOL    HW179560   2.805   6.575   0.613
59221SOL    HW279561   2.886   6.644   0.721
59222SOL     OW79562  14.130   6.697   6.805
59222SOL    HW179563  14.183   6.632   6.759
59222SOL    HW279564  14.169   6.781   6.781
59223SOL     OW79565   5.744   7.220   8.259
59223SOL    HW179566   5.742   7.287   8.328
59223SOL    HW279567   5.818   7.164   8.283
59224SOL     OW79568   1.476  11.713  14.597
59224SOL    HW179569   1.456  11.761  14.516
59224SOL    HW279570   1.416  11.750  14.661
59225SOL     OW79571  12.569   8.915  10.495
59225SOL    HW179572  12.512   8.954  10.428
59225SOL    HW279573  12.655   8.908  10.453
59226SOL     OW79574  12.695   8.916   9.957
59226SOL    HW179575  12.661   9.000   9.926
59226SOL    HW279576  12.708   8.865   9.877
59227SOL     OW79577  13.783   0.982  13.261
59227SOL    HW179578  13.840   0.974  13.338
59227SOL    HW279579  13.793   1.074  13.234
59228SOL     OW79580  14.144   6.551   7.746
59228SOL    HW179581  14.099   6.481   7.793
59228SOL    HW279582  14.231   6.554   7.786
59229SOL     OW79583   3.917   3.176   0.667
59229SOL    HW179584   3.937   3.090   0.631
59229SOL    HW279585   3.835   3.163   0.716
59230SOL     OW79586   9.038   5.641  13.011
59230SOL    HW179587   8.995   5.658  13.095
59230SOL    HW279588   9.037   5.546  13.002
59231SOL     OW79589   9.343   8.885   2.100
59231SOL    HW179590   9.323   8.973   2.131
59231SOL    HW279591   9.426   8.894   2.053
59232SOL     OW79592  11.795   8.207  10.427
59232SOL    HW179593  11.823   8.181  10.515
59232SOL    HW279594  11.740   8.283  10.440
59233SOL     OW79595   8.533  12.957   0.363
59233SOL    HW179596   8.626  12.964   0.384
59233SOL    HW279597   8.488  13.012   0.428
59234SOL     OW79598   5.117   9.983   7.690
59234SOL    HW179599   5.206   9.974   7.655
59234SOL    HW279600   5.068   9.913   7.648
59235SOL     OW79601   3.595   8.440   2.196
59235SOL    HW179602   3.547   8.485   2.126
59235SOL    HW279603   3.654   8.380   2.151
59236SOL     OW79604   0.822   0.432   6.653
59236SOL    HW179605   0.897   0.460   6.601
59236SOL    HW279606   0.860   0.376   6.721
59237SOL     OW79607   9.515   9.138  12.601
59237SOL    HW179608   9.422   9.116  12.597
59237SOL    HW279609   9.543   9.138  12.509
59238SOL     OW79610   5.664   0.379  12.153
59238SOL    HW179611   5.714   0.342  12.225
59238SOL    HW279612   5.632   0.463  12.186
59239SOL     OW79613   4.951   1.507   5.437
59239SOL    HW179614   4.921   1.582   5.386
59239SOL    HW279615   5.043   1.525   5.455
59240SOL     OW79616   3.484   4.668   8.218
59240SOL    HW179617   3.537   4.692   8.142
59240SOL    HW279618   3.402   4.635   8.181
59241SOL     OW79619   6.907   4.995   4.206
59241SOL    HW179620   6.925   4.957   4.292
59241SOL    HW279621   6.881   4.920   4.153
59242SOL     OW79622   1.255   5.263   6.048
59242SOL    HW179623   1.206   5.267   6.130
59242SOL    HW279624   1.264   5.169   6.031
59243SOL     OW79625   8.487  10.618   6.364
59243SOL    HW179626   8.500  10.526   6.344
59243SOL    HW279627   8.453  10.618   6.454
59244SOL     OW79628  12.576   1.312  14.153
59244SOL    HW179629  12.647   1.285  14.211
59244SOL    HW279630  12.609   1.291  14.065
59245SOL     OW79631   4.771  11.736  14.474
59245SOL    HW179632   4.800  11.741  14.383
59245SOL    HW279633   4.676  11.724  14.468
59246SOL     OW79634   5.569   8.095   6.517
59246SOL    HW179635   5.577   8.000   6.507
59246SOL    HW279636   5.645   8.121   6.568
59247SOL     OW79637  14.051   1.646   6.299
59247SOL    HW179638  14.113   1.581   6.332
59247SOL    HW279639  13.966   1.604   6.304
59248SOL     OW79640   7.151   4.012   3.624
59248SOL    HW179641   7.117   3.992   3.711
59248SOL    HW279642   7.211   4.085   3.638
59249SOL     OW79643  10.195   8.160   7.617
59249SOL    HW179644  10.228   8.157   7.527
59249SOL    HW279645  10.106   8.125   7.612
59250SOL     OW79646  10.539   3.703  10.705
59250SOL    HW179647  10.453   3.667  10.727
59250SOL    HW279648  10.553   3.676  10.614
59251SOL     OW79649  13.496   7.906   8.856
59251SOL    HW179650  13.533   7.986   8.892
59251SOL    HW279651  13.473   7.928   8.766
59252SOL     OW79652   9.975   6.984   4.262
59252SOL    HW179653   9.968   6.945   4.174
59252SOL    HW279654   9.923   6.926   4.318
59253SOL     OW79655  13.729   8.429   4.679
59253SOL    HW179656  13.752   8.451   4.589
59253SOL    HW279657  13.673   8.352   4.671
59254SOL     OW79658   5.591  14.261   1.346
59254SOL    HW179659   5.658  14.329   1.341
59254SOL    HW279660   5.526  14.295   1.407
59255SOL     OW79661  10.258   3.469   3.625
59255SOL    HW179662  10.277   3.395   3.567
59255SOL    HW279663  10.164   3.464   3.640
59256SOL     OW79664   1.962  14.037  11.542
59256SOL    HW179665   2.041  13.984  11.536
59256SOL    HW279666   1.896  13.986  11.494
59257SOL     OW79667   5.664   2.670  10.093
59257SOL    HW179668   5.641   2.579  10.078
59257SOL    HW279669   5.747   2.667  10.141
59258SOL     OW79670   5.150  14.159  11.975
59258SOL    HW179671   5.239  14.167  11.942
59258SOL    HW279672   5.110  14.245  11.958
59259SOL     OW79673   1.417   7.605   0.928
59259SOL    HW179674   1.390   7.697   0.933
59259SOL    HW279675   1.369   7.562   1.000
59260SOL     OW79676  10.473  13.242   1.024
59260SOL    HW179677  10.547  13.296   0.997
59260SOL    HW279678  10.472  13.249   1.119
59261SOL     OW79679  11.922   9.674  10.932
59261SOL    HW179680  11.831   9.701  10.924
59261SOL    HW279681  11.920   9.579  10.919
59262SOL     OW79682   0.054   7.624   8.102
59262SOL    HW179683  14.874   7.679   8.142
59262SOL    HW279684   0.082   7.565   8.172
59263SOL     OW79685  11.614   7.497  11.437
59263SOL    HW179686  11.630   7.484  11.344
59263SOL    HW279687  11.547   7.433  11.459
59264SOL     OW79688   2.710   4.896   4.492
59264SOL    HW179689   2.663   4.978   4.472
59264SOL    HW279690   2.640   4.832   4.507
59265SOL     OW79691   0.230  11.093   0.394
59265SOL    HW179692   0.237  11.180   0.355
59265SOL    HW279693   0.186  11.108   0.478
59266SOL     OW79694  12.888  10.557   8.910
59266SOL    HW179695  12.941  10.547   8.830
59266SOL    HW279696  12.800  10.531   8.884
59267SOL     OW79697   5.445   1.389   6.290
59267SOL    HW179698   5.444   1.295   6.306
59267SOL    HW279699   5.353   1.413   6.281
59268SOL     OW79700  11.022   9.019   2.629
59268SOL    HW179701  11.044   8.928   2.614
59268SOL    HW279702  11.083   9.068   2.574
59269SOL     OW79703  13.356   9.441   3.083
59269SOL    HW179704  13.387   9.355   3.054
59269SOL    HW279705  13.436   9.493   3.094
59270SOL     OW79706   5.256  12.423   6.787
59270SOL    HW179707   5.252  12.352   6.723
59270SOL    HW279708   5.233  12.502   6.737
59271SOL     OW79709   9.313  14.759   1.970
59271SOL    HW179710   9.289  14.812   1.894
59271SOL    HW279711   9.231  14.716   1.995
59272SOL     OW79712   6.661   8.860   3.572
59272SOL    HW179713   6.610   8.841   3.650
59272SOL    HW279714   6.741   8.901   3.604
59273SOL     OW79715   3.305   2.188  12.775
59273SOL    HW179716   3.274   2.106  12.737
59273SOL    HW279717   3.243   2.253  12.744
59274SOL     OW79718   9.843   0.421   2.389
59274SOL    HW179719   9.921   0.451   2.343
59274SOL    HW279720   9.864   0.333   2.418
59275SOL     OW79721  11.886   4.390  12.335
59275SOL    HW179722  11.950   4.410  12.404
59275SOL    HW279723  11.913   4.305  12.301
59276SOL     OW79724   1.292  12.181   4.170
59276SOL    HW179725   1.344  12.105   4.196
59276SOL    HW279726   1.218  12.182   4.232
59277SOL     OW79727   1.506   4.954  13.776
59277SOL    HW179728   1.580   4.999  13.815
59277SOL    HW279729   1.544   4.882  13.725
59278SOL     OW79730   8.321   0.643   2.769
59278SOL    HW179731   8.388   0.595   2.818
59278SOL    HW279732   8.267   0.684   2.837
59279SOL     OW79733  13.536  10.839  14.803
59279SOL    HW179734  13.452  10.852  14.848
59279SOL    HW279735  13.512  10.834  14.710
59280SOL     OW79736  13.077  13.915  10.295
59280SOL    HW179737  13.169  13.937  10.313
59280SOL    HW279738  13.033  13.928  10.379
59281SOL     OW79739   4.496   8.794   9.670
59281SOL    HW179740   4.543   8.720   9.708
59281SOL    HW279741   4.424   8.753   9.621
59282SOL     OW79742   5.836   2.565   8.627
59282SOL    HW179743   5.857   2.530   8.540
59282SOL    HW279744   5.919   2.565   8.674
59283SOL     OW79745   0.837  12.189  11.162
59283SOL    HW179746   0.859  12.148  11.245
59283SOL    HW279747   0.828  12.117  11.100
59284SOL     OW79748  10.653  10.080   6.120
59284SOL    HW179749  10.696  10.013   6.067
59284SOL    HW279750  10.707  10.158   6.109
59285SOL     OW79751   5.340   7.423  13.275
59285SOL    HW179752   5.362   7.336  13.308
59285SOL    HW279753   5.390   7.483  13.331
59286SOL     OW79754  10.229  11.895  12.587
59286SOL    HW179755  10.172  11.820  12.601
59286SOL    HW279756  10.178  11.955  12.533
59287SOL     OW79757   6.967   4.875   4.447
59287SOL    HW179758   6.940   4.801   4.501
59287SOL    HW279759   7.054   4.899   4.480
59288SOL     OW79760  10.732   9.743   8.115
59288SOL    HW179761  10.711   9.654   8.087
59288SOL    HW279762  10.725   9.796   8.036
59289SOL     OW79763   3.554   8.274  10.182
59289SOL    HW179764   3.520   8.207  10.123
59289SOL    HW279765   3.648   8.257  10.187
59290SOL     OW79766   6.055   3.141  13.179
59290SOL    HW179767   6.054   3.202  13.253
59290SOL    HW279768   6.080   3.195  13.104
59291SOL     OW79769   4.151  12.664  13.914
59291SOL    HW179770   4.240  12.692  13.932
59291SOL    HW279771   4.144  12.578  13.957
59292SOL     OW79772   9.254   4.028  10.457
59292SOL    HW179773   9.202   3.950  10.476
59292SOL    HW279774   9.220   4.059  10.373
59293SOL     OW79775   0.135   6.911  10.277
59293SOL    HW179776   0.197   6.933  10.207
59293SOL    HW279777   0.144   6.817  10.288
59294SOL     OW79778   0.343   7.190   5.978
59294SOL    HW179779   0.439   7.195   5.973
59294SOL    HW279780   0.326   7.133   6.053
59295SOL     OW79781   4.310  12.249  10.572
59295SOL    HW179782   4.344  12.323  10.622
59295SOL    HW279783   4.385  12.190  10.563
59296SOL     OW79784   9.859   0.019  13.072
59296SOL    HW179785   9.828  14.838  13.012
59296SOL    HW279786   9.906  14.859  13.140
59297SOL     OW79787  12.866  11.106  11.029
59297SOL    HW179788  12.836  11.032  11.080
59297SOL    HW279789  12.936  11.145  11.082
59298SOL     OW79790   0.661   7.364  11.853
59298SOL    HW179791   0.716   7.288  11.839
59298SOL    HW279792   0.715   7.425  11.904
59299SOL     OW79793   8.745  12.837   9.987
59299SOL    HW179794   8.827  12.871  10.024
59299SOL    HW279795   8.769  12.753   9.947
59300SOL     OW79796   5.857  13.703  12.360
59300SOL    HW179797   5.812  13.786  12.378
59300SOL    HW279798   5.816  13.640  12.420
59301SOL     OW79799  10.242   6.413   2.122
59301SOL    HW179800  10.194   6.380   2.198
59301SOL    HW279801  10.191   6.489   2.093
59302SOL     OW79802   2.061   3.109   8.611
59302SOL    HW179803   2.109   3.190   8.631
59302SOL    HW279804   2.050   3.067   8.696
59303SOL     OW79805   4.524   9.528   3.032
59303SOL    HW179806   4.436   9.494   3.049
59303SOL    HW279807   4.549   9.488   2.948
59304SOL     OW79808  13.667   3.670   0.774
59304SOL    HW179809  13.747   3.653   0.725
59304SOL    HW279810  13.597   3.644   0.714
59305SOL     OW79811  14.738   6.469  11.348
59305SOL    HW179812  14.738   6.423  11.431
59305SOL    HW279813  14.831   6.484  11.328
59306SOL     OW79814   5.606  13.180  10.147
59306SOL    HW179815   5.644  13.233  10.217
59306SOL    HW279816   5.548  13.240  10.100
59307SOL     OW79817   6.618  14.383   4.909
59307SOL    HW179818   6.552  14.347   4.850
59307SOL    HW279819   6.593  14.475   4.920
59308SOL     OW79820   3.007  12.455  11.315
59308SOL    HW179821   3.058  12.374  11.307
59308SOL    HW279822   2.972  12.452  11.404
59309SOL     OW79823   1.466  14.710   6.017
59309SOL    HW179824   1.467  14.641   6.084
59309SOL    HW279825   1.394  14.687   5.959
59310SOL     OW79826  13.996   0.250   1.999
59310SOL    HW179827  14.020   0.157   1.996
59310SOL    HW279828  14.070   0.295   1.960
59311SOL     OW79829   1.068   1.779  14.201
59311SOL    HW179830   1.141   1.717  14.207
59311SOL    HW279831   1.010   1.743  14.135
59312SOL     OW79832   4.083   0.376   8.054
59312SOL    HW179833   4.048   0.448   8.107
59312SOL    HW279834   4.177   0.394   8.049
59313SOL     OW79835   6.188   6.668   2.027
59313SOL    HW179836   6.267   6.713   2.059
59313SOL    HW279837   6.166   6.713   1.945
59314SOL     OW79838  10.201   8.313   5.010
59314SOL    HW179839  10.290   8.278   5.000
59314SOL    HW279840  10.164   8.262   5.081
59315SOL     OW79841   1.776  10.109   8.702
59315SOL    HW179842   1.749  10.034   8.755
59315SOL    HW279843   1.846  10.076   8.647
59316SOL     OW79844  11.804   9.814   4.317
59316SOL    HW179845  11.780   9.775   4.401
59316SOL    HW279846  11.740   9.884   4.303
59317SOL     OW79847  11.323   8.453  14.176
59317SOL    HW179848  11.317   8.541  14.211
59317SOL    HW279849  11.244   8.443  14.122
59318SOL     OW79850  13.071  10.790  13.810
59318SOL    HW179851  13.106  10.793  13.899
59318SOL    HW279852  13.046  10.698  13.797
59319SOL     OW79853  10.011   3.384  12.279
59319SOL    HW179854  10.029   3.478  12.270
59319SOL    HW279855   9.915   3.379  12.287
59320SOL     OW79856   0.420   1.239   7.632
59320SOL    HW179857   0.345   1.181   7.640
59320SOL    HW279858   0.468   1.207   7.555
59321SOL     OW79859   7.034   0.782  13.824
59321SOL    HW179860   7.109   0.840  13.838
59321SOL    HW279861   6.979   0.796  13.901
59322SOL     OW79862  11.379   5.175  10.892
59322SOL    HW179863  11.384   5.162  10.797
59322SOL    HW279864  11.338   5.094  10.924
59323SOL     OW79865   2.632  10.156   3.071
59323SOL    HW179866   2.556  10.112   3.033
59323SOL    HW279867   2.704  10.094   3.057
59324SOL     OW79868  14.852   2.363   4.830
59324SOL    HW179869   0.040   2.369   4.771
59324SOL    HW279870  14.777   2.389   4.775
59325SOL     OW79871   0.927   2.734  10.360
59325SOL    HW179872   0.854   2.781  10.400
59325SOL    HW279873   0.933   2.652  10.409
59326SOL     OW79874   2.136  13.852   8.676
59326SOL    HW179875   2.060  13.794   8.690
59326SOL    HW279876   2.200  13.824   8.742
59327SOL     OW79877   2.866   4.672   9.746
59327SOL    HW179878   2.850   4.752   9.795
59327SOL    HW279879   2.891   4.608   9.812
59328SOL     OW79880   2.530  11.605  14.781
59328SOL    HW179881   2.623  11.612  14.800
59328SOL    HW279882   2.490  11.573  14.862
59329SOL     OW79883   3.413  10.975   1.199
59329SOL    HW179884   3.368  10.975   1.284
59329SOL    HW279885   3.492  11.027   1.215
59330SOL     OW79886   2.101   5.500   8.062
59330SOL    HW179887   2.101   5.523   8.155
59330SOL    HW279888   2.134   5.410   8.059
59331SOL     OW79889  12.400   5.663   8.757
59331SOL    HW179890  12.413   5.747   8.801
59331SOL    HW279891  12.488   5.634   8.733
59332SOL     OW79892   3.677   0.808   6.267
59332SOL    HW179893   3.746   0.800   6.334
59332SOL    HW279894   3.604   0.848   6.314
59333SOL     OW79895   0.730   7.735  12.506
59333SOL    HW179896   0.674   7.674  12.553
59333SOL    HW279897   0.794   7.680  12.460
59334SOL     OW79898   6.865   1.619   5.420
59334SOL    HW179899   6.854   1.707   5.385
59334SOL    HW279900   6.776   1.583   5.423
59335SOL     OW79901   7.574  13.037   9.803
59335SOL    HW179902   7.612  13.111   9.756
59335SOL    HW279903   7.558  12.971   9.735
59336SOL     OW79904   8.575   1.019   6.987
59336SOL    HW179905   8.581   1.031   6.892
59336SOL    HW279906   8.493   1.061   7.011
59337SOL     OW79907   2.670   0.731   8.714
59337SOL    HW179908   2.629   0.809   8.750
59337SOL    HW279909   2.642   0.729   8.622
59338SOL     OW79910   8.424   7.050   2.717
59338SOL    HW179911   8.473   6.973   2.747
59338SOL    HW279912   8.340   7.014   2.688
59339SOL     OW79913   5.310   0.973  12.665
59339SOL    HW179914   5.264   1.051  12.635
59339SOL    HW279915   5.393   0.974  12.618
59340SOL     OW79916   7.056   7.084   3.216
59340SOL    HW179917   7.105   7.068   3.135
59340SOL    HW279918   7.124   7.093   3.283
59341SOL     OW79919  10.292   0.464   0.965
59341SOL    HW179920  10.350   0.393   0.940
59341SOL    HW279921  10.272   0.509   0.882
59342SOL     OW79922   4.834  11.726  14.743
59342SOL    HW179923   4.806  11.725  14.652
59342SOL    HW279924   4.922  11.764  14.741
59343SOL     OW79925   7.794   8.961   3.830
59343SOL    HW179926   7.701   8.940   3.840
59343SOL    HW279927   7.812   9.025   3.899
59344SOL     OW79928   1.674   7.819   6.817
59344SOL    HW179929   1.620   7.775   6.883
59344SOL    HW279930   1.689   7.753   6.750
59345SOL     OW79931  11.552   8.084   1.724
59345SOL    HW179932  11.539   8.171   1.686
59345SOL    HW279933  11.489   8.028   1.679
59346SOL     OW79934  14.089   5.918   1.770
59346SOL    HW179935  14.155   5.926   1.702
59346SOL    HW279936  14.085   5.825   1.790
59347SOL     OW79937   7.403   8.852   9.866
59347SOL    HW179938   7.498   8.854   9.863
59347SOL    HW279939   7.376   8.942   9.848
59348SOL     OW79940  14.137   9.167  10.741
59348SOL    HW179941  14.081   9.128  10.674
59348SOL    HW279942  14.182   9.239  10.697
59349SOL     OW79943  12.647   4.231  13.911
59349SOL    HW179944  12.687   4.242  13.998
59349SOL    HW279945  12.591   4.307  13.901
59350SOL     OW79946   8.422  12.716   0.598
59350SOL    HW179947   8.429  12.721   0.503
59350SOL    HW279948   8.501  12.671   0.626
59351SOL     OW79949   1.554  14.358   6.502
59351SOL    HW179950   1.636  14.404   6.517
59351SOL    HW279951   1.532  14.320   6.587
59352SOL     OW79952   2.079   9.062  12.520
59352SOL    HW179953   2.121   8.983  12.552
59352SOL    HW279954   2.039   9.037  12.437
59353SOL     OW79955   2.216  13.192   9.370
59353SOL    HW179956   2.285  13.126   9.367
59353SOL    HW279957   2.175  13.180   9.455
59354SOL     OW79958   1.165   6.485   7.937
59354SOL    HW179959   1.196   6.394   7.936
59354SOL    HW279960   1.070   6.478   7.932
59355SOL     OW79961   8.705   7.190   2.234
59355SOL    HW179962   8.670   7.115   2.283
59355SOL    HW279963   8.632   7.251   2.228
59356SOL     OW79964   2.967   6.251   4.102
59356SOL    HW179965   3.028   6.313   4.142
59356SOL    HW279966   3.022   6.179   4.072
59357SOL     OW79967   8.540   0.798  12.572
59357SOL    HW179968   8.467   0.859  12.561
59357SOL    HW279969   8.525   0.730  12.506
59358SOL     OW79970  13.154   4.929   9.171
59358SOL    HW179971  13.078   4.972   9.210
59358SOL    HW279972  13.173   4.857   9.232
59359SOL     OW79973  12.070  14.853   2.035
59359SOL    HW179974  12.076   0.059   2.016
59359SOL    HW279975  12.145  14.835   2.091
59360SOL     OW79976   9.459  12.341  13.057
59360SOL    HW179977   9.370  12.328  13.023
59360SOL    HW279978   9.507  12.382  12.985
59361SOL     OW79979   1.788  12.445   6.093
59361SOL    HW179980   1.850  12.518   6.099
59361SOL    HW279981   1.708  12.485   6.059
59362SOL     OW79982  10.157   6.213   9.878
59362SOL    HW179983  10.074   6.258   9.893
59362SOL    HW279984  10.137   6.120   9.887
59363SOL     OW79985   9.764  13.420   1.376
59363SOL    HW179986   9.781  13.507   1.413
59363SOL    HW279987   9.675  13.426   1.341
59364SOL     OW79988   6.831   1.893  10.077
59364SOL    HW179989   6.880   1.840  10.015
59364SOL    HW279990   6.761   1.933  10.024
59365SOL     OW79991   0.464  13.038   4.860
59365SOL    HW179992   0.374  13.068   4.848
59365SOL    HW279993   0.517  13.103   4.814
59366SOL     OW79994   2.129   8.150   5.991
59366SOL    HW179995   2.134   8.227   6.048
59366SOL    HW279996   2.036   8.139   5.973
59367SOL     OW79997   6.602   3.069   5.727
59367SOL    HW179998   6.636   3.142   5.779
59367SOL    HW279999   6.507   3.081   5.726
59368SOL     OW80000   9.009   0.090  13.190
59368SOL    HW180001   9.067   0.056  13.259
59368SOL    HW280002   8.921   0.065  13.217
59369SOL     OW80003   5.704  13.197   5.598
59369SOL    HW180004   5.677  13.105   5.607
59369SOL    HW280005   5.799  13.195   5.604
59370SOL     OW80006  12.983   2.541   0.291
59370SOL    HW180007  12.964   2.510   0.203
59370SOL    HW280008  13.064   2.496   0.315
59371SOL     OW80009   9.111   7.561  12.879
59371SOL    HW180010   9.109   7.642  12.930
59371SOL    HW280011   9.041   7.507  12.915
59372SOL     OW80012  12.687   3.292   7.431
59372SOL    HW180013  12.700   3.386   7.442
59372SOL    HW280014  12.604   3.274   7.474
59373SOL     OW80015  13.640   7.865  13.603
59373SOL    HW180016  13.564   7.898  13.651
59373SOL    HW280017  13.681   7.943  13.567
59374SOL     OW80018   6.464   2.708  11.991
59374SOL    HW180019   6.423   2.699  12.078
59374SOL    HW280020   6.556   2.684  12.006
59375SOL     OW80021   5.318  11.950   5.440
59375SOL    HW180022   5.302  11.859   5.415
59375SOL    HW280023   5.241  11.997   5.407
59376SOL     OW80024   3.186   6.537   6.487
59376SOL    HW180025   3.139   6.578   6.559
59376SOL    HW280026   3.278   6.538   6.515
59377SOL     OW80027   4.924   7.919  13.033
59377SOL    HW180028   4.864   7.989  13.060
59377SOL    HW280029   4.888   7.840  13.071
59378SOL     OW80030   9.516   0.625   3.773
59378SOL    HW180031   9.580   0.687   3.808
59378SOL    HW280032   9.438   0.638   3.827
59379SOL     OW80033   3.716   1.281   3.567
59379SOL    HW180034   3.637   1.327   3.595
59379SOL    HW280035   3.778   1.350   3.544
59380SOL     OW80036  12.753   8.144   7.231
59380SOL    HW180037  12.691   8.125   7.302
59380SOL    HW280038  12.835   8.166   7.276
59381SOL     OW80039   3.134   1.450   8.089
59381SOL    HW180040   3.180   1.530   8.061
59381SOL    HW280041   3.203   1.394   8.124
59382SOL     OW80042   2.678   7.083   1.049
59382SOL    HW180043   2.701   7.040   0.967
59382SOL    HW280044   2.652   7.171   1.023
59383SOL     OW80045   7.817   6.589   3.481
59383SOL    HW180046   7.849   6.500   3.469
59383SOL    HW280047   7.848   6.615   3.568
59384SOL     OW80048   0.978   2.993   5.368
59384SOL    HW180049   0.893   3.031   5.348
59384SOL    HW280050   1.034   3.068   5.389
59385SOL     OW80051   2.961   7.089  13.540
59385SOL    HW180052   3.052   7.073  13.516
59385SOL    HW280053   2.910   7.046  13.472
59386SOL     OW80054   5.857   5.380   0.349
59386SOL    HW180055   5.830   5.350   0.262
59386SOL    HW280056   5.937   5.431   0.333
59387SOL     OW80057   7.128   5.481   4.422
59387SOL    HW180058   7.057   5.544   4.411
59387SOL    HW280059   7.190   5.525   4.480
59388SOL     OW80060  12.881   9.941  11.985
59388SOL    HW180061  12.946   9.997  12.029
59388SOL    HW280062  12.841   9.891  12.056
59389SOL     OW80063   8.655   0.066   1.072
59389SOL    HW180064   8.700  14.875   1.104
59389SOL    HW280065   8.571   0.035   1.040
59390SOL     OW80066   0.652  14.227   9.016
59390SOL    HW180067   0.580  14.184   9.063
59390SOL    HW280068   0.699  14.276   9.083
59391SOL     OW80069  11.871   4.009  11.561
59391SOL    HW180070  11.919   4.046  11.635
59391SOL    HW280071  11.878   4.075  11.492
59392SOL     OW80072   8.401   2.751   8.047
59392SOL    HW180073   8.403   2.783   8.137
59392SOL    HW280074   8.447   2.667   8.051
59393SOL     OW80075   3.967  12.200  12.316
59393SOL    HW180076   4.029  12.183  12.246
59393SOL    HW280077   3.886  12.158  12.288
59394SOL     OW80078  10.196   7.550   2.421
59394SOL    HW180079  10.119   7.498   2.446
59394SOL    HW280080  10.173   7.640   2.445
59395SOL     OW80081  11.526  13.708  11.864
59395SOL    HW180082  11.436  13.674  11.863
59395SOL    HW280083  11.533  13.760  11.784
59396SOL     OW80084  13.062   8.366   9.332
59396SOL    HW180085  13.022   8.327   9.410
59396SOL    HW280086  13.054   8.298   9.265
59397SOL     OW80087  13.236   7.069   6.062
59397SOL    HW180088  13.246   7.120   5.981
59397SOL    HW280089  13.196   6.987   6.034
59398SOL     OW80090  11.353  11.433   1.157
59398SOL    HW180091  11.406  11.512   1.165
59398SOL    HW280092  11.346  11.417   1.063
59399SOL     OW80093   8.796   6.326   9.731
59399SOL    HW180094   8.862   6.329   9.662
59399SOL    HW280095   8.714   6.306   9.684
59400SOL     OW80096   1.083   5.250   7.233
59400SOL    HW180097   1.024   5.227   7.305
59400SOL    HW280098   1.107   5.165   7.195
59401SOL     OW80099   8.701   8.948   7.096
59401SOL    HW180100   8.712   8.990   7.181
59401SOL    HW280101   8.613   8.973   7.067
59402SOL     OW80102   9.629  11.325  10.143
59402SOL    HW180103   9.624  11.240  10.098
59402SOL    HW280104   9.721  11.351  10.136
59403SOL     OW80105   5.406   0.601  11.718
59403SOL    HW180106   5.401   0.627  11.627
59403SOL    HW280107   5.484   0.546  11.723
59404SOL     OW80108   5.455  11.918   6.282
59404SOL    HW180109   5.449  11.860   6.207
59404SOL    HW280110   5.547  11.915   6.309
59405SOL     OW80111   1.472  13.756   5.304
59405SOL    HW180112   1.519  13.839   5.314
59405SOL    HW280113   1.536  13.696   5.266
59406SOL     OW80114   7.541  13.615  14.191
59406SOL    HW180115   7.617  13.609  14.133
59406SOL    HW280116   7.575  13.652  14.272
59407SOL     OW80117  11.384   4.884   9.972
59407SOL    HW180118  11.385   4.790   9.954
59407SOL    HW280119  11.467   4.916   9.936
59408SOL     OW80120   2.883  12.073   7.316
59408SOL    HW180121   2.943  12.078   7.241
59408SOL    HW280122   2.803  12.036   7.281
59409SOL     OW80123   2.996  11.811   5.353
59409SOL    HW180124   2.951  11.840   5.433
59409SOL    HW280125   3.084  11.848   5.361
59410SOL     OW80126   3.163  13.258  13.590
59410SOL    HW180127   3.212  13.327  13.634
59410SOL    HW280128   3.228  13.212  13.538
59411SOL     OW80129   2.304   7.009   0.297
59411SOL    HW180130   2.356   6.975   0.370
59411SOL    HW280131   2.218   6.968   0.308
59412SOL     OW80132   2.896   6.238   7.917
59412SOL    HW180133   2.896   6.306   7.985
59412SOL    HW280134   2.844   6.275   7.846
59413SOL     OW80135  13.997   8.079  14.351
59413SOL    HW180136  13.994   8.051  14.259
59413SOL    HW280137  14.086   8.111  14.363
59414SOL     OW80138  13.729   6.438  11.806
59414SOL    HW180139  13.646   6.397  11.784
59414SOL    HW280140  13.755   6.397  11.889
59415SOL     OW80141  12.103   8.481   4.390
59415SOL    HW180142  12.161   8.549   4.356
59415SOL    HW280143  12.021   8.494   4.342
59416SOL     OW80144  10.895   9.714   1.014
59416SOL    HW180145  10.911   9.662   1.093
59416SOL    HW280146  10.873   9.649   0.947
59417SOL     OW80147  13.673   8.264  11.541
59417SOL    HW180148  13.755   8.300  11.505
59417SOL    HW280149  13.699   8.180  11.579
59418SOL     OW80150  11.892   4.369   0.608
59418SOL    HW180151  11.864   4.416   0.529
59418SOL    HW280152  11.813   4.323   0.638
59419SOL     OW80153  12.218   6.857   4.104
59419SOL    HW180154  12.158   6.882   4.033
59419SOL    HW280155  12.305   6.870   4.066
59420SOL     OW80156  13.126   4.361   3.252
59420SOL    HW180157  13.087   4.413   3.182
59420SOL    HW280158  13.215   4.395   3.261
59421SOL     OW80159   8.034  14.049   1.633
59421SOL    HW180160   7.950  14.053   1.587
59421SOL    HW280161   8.088  14.114   1.590
59422SOL     OW80162  13.753   0.017   5.763
59422SOL    HW180163  13.726   0.045   5.850
59422SOL    HW280164  13.724  14.814   5.756
59423SOL     OW80165  13.324  12.266   3.049
59423SOL    HW180166  13.406  12.274   3.098
59423SOL    HW280167  13.350  12.233   2.963
59424SOL     OW80168   6.201   4.458  12.365
59424SOL    HW180169   6.108   4.455  12.388
59424SOL    HW280170   6.247   4.452  12.448
59425SOL     OW80171  14.099  14.249   8.213
59425SOL    HW180172  14.010  14.251   8.249
59425SOL    HW280173  14.119  14.156   8.205
59426SOL     OW80174  13.026  12.687   4.498
59426SOL    HW180175  13.031  12.732   4.583
59426SOL    HW280176  12.936  12.702   4.468
59427SOL     OW80177   3.809  12.306   6.719
59427SOL    HW180178   3.758  12.376   6.759
59427SOL    HW280179   3.777  12.301   6.629
59428SOL     OW80180   4.834   9.570   1.343
59428SOL    HW180181   4.895   9.496   1.337
59428SOL    HW280182   4.816   9.594   1.253
59429SOL     OW80183   9.116   8.655  14.324
59429SOL    HW180184   9.092   8.565  14.346
59429SOL    HW280185   9.188   8.646  14.262
59430SOL     OW80186   7.964   1.961   5.122
59430SOL    HW180187   7.995   1.917   5.043
59430SOL    HW280188   7.873   1.983   5.102
59431SOL     OW80189  11.030  12.259   7.596
59431SOL    HW180190  11.072  12.252   7.511
59431SOL    HW280191  10.960  12.194   7.594
59432SOL     OW80192   7.521   0.242   7.291
59432SOL    HW180193   7.512   0.274   7.381
59432SOL    HW280194   7.592   0.295   7.254
59433SOL     OW80195   3.417   6.665  10.792
59433SOL    HW180196   3.474   6.733  10.829
59433SOL    HW280197   3.386   6.616  10.868
59434SOL     OW80198  13.181   7.780   8.662
59434SOL    HW180199  13.135   7.695   8.659
59434SOL    HW280200  13.128   7.834   8.721
59435SOL     OW80201  13.279  10.501  13.206
59435SOL    HW180202  13.255  10.491  13.113
59435SOL    HW280203  13.205  10.463  13.254
59436SOL     OW80204  14.385   5.672  13.826
59436SOL    HW180205  14.379   5.757  13.781
59436SOL    HW280206  14.424   5.613  13.762
59437SOL     OW80207   2.348  14.553   3.203
59437SOL    HW180208   2.354  14.467   3.162
59437SOL    HW280209   2.254  14.565   3.219
59438SOL     OW80210  11.757  11.489  10.629
59438SOL    HW180211  11.844  11.479  10.590
59438SOL    HW280212  11.699  11.444  10.569
59439SOL     OW80213   8.828  13.149   5.761
59439SOL    HW180214   8.872  13.066   5.743
59439SOL    HW280215   8.897  13.205   5.797
59440SOL     OW80216   1.997   6.902  12.435
59440SOL    HW180217   1.994   6.998  12.432
59440SOL    HW280218   2.089   6.880  12.421
59441SOL     OW80219   2.079   5.729   5.796
59441SOL    HW180220   2.155   5.776   5.762
59441SOL    HW280221   2.016   5.731   5.725
59442SOL     OW80222  11.060  12.580   0.241
59442SOL    HW180223  10.967  12.601   0.252
59442SOL    HW280224  11.083  12.532   0.321
59443SOL     OW80225  13.269  11.505   8.750
59443SOL    HW180226  13.322  11.570   8.797
59443SOL    HW280227  13.282  11.525   8.658
59444SOL     OW80228   0.641   9.480   8.028
59444SOL    HW180229   0.678   9.562   8.061
59444SOL    HW280230   0.714   9.434   7.988
59445SOL     OW80231   0.002  13.774   7.115
59445SOL    HW180232   0.013  13.858   7.160
59445SOL    HW280233  14.795  13.759   7.114
59446SOL     OW80234  11.047  10.730  12.336
59446SOL    HW180235  11.142  10.724  12.324
59446SOL    HW280236  11.015  10.776  12.258
59447SOL     OW80237   6.493  12.333   8.779
59447SOL    HW180238   6.422  12.269   8.766
59447SOL    HW280239   6.448  12.414   8.802
59448SOL     OW80240  10.940  14.292  12.604
59448SOL    HW180241  10.884  14.340  12.665
59448SOL    HW280242  10.940  14.202  12.638
59449SOL     OW80243  14.567   3.669   4.539
59449SOL    HW180244  14.586   3.657   4.632
59449SOL    HW280245  14.639   3.723   4.507
59450SOL     OW80246   0.635   8.403   5.981
59450SOL    HW180247   0.563   8.401   6.044
59450SOL    HW280248   0.641   8.313   5.948
59451SOL     OW80249  10.072   5.443  12.421
59451SOL    HW180250  10.101   5.354  12.399
59451SOL    HW280251  10.088   5.450  12.515
59452SOL     OW80252   3.111   9.216  13.553
59452SOL    HW180253   3.122   9.286  13.617
59452SOL    HW280254   3.127   9.135  13.603
59453SOL     OW80255   8.361   3.957   2.900
59453SOL    HW180256   8.297   3.887   2.890
59453SOL    HW280257   8.398   3.969   2.812
59454SOL     OW80258   2.823   6.443   8.955
59454SOL    HW180259   2.890   6.498   8.996
59454SOL    HW280260   2.863   6.357   8.950
59455SOL     OW80261   0.596  14.517   6.996
59455SOL    HW180262   0.664  14.454   6.972
59455SOL    HW280263   0.530  14.466   7.042
59456SOL     OW80264  14.713   7.373  11.667
59456SOL    HW180265  14.739   7.296  11.717
59456SOL    HW280266  14.765   7.445  11.704
59457SOL     OW80267  12.716   6.400   1.466
59457SOL    HW180268  12.720   6.386   1.372
59457SOL    HW280269  12.738   6.493   1.478
59458SOL     OW80270   0.250  11.630   2.683
59458SOL    HW180271   0.330  11.662   2.641
59458SOL    HW280272   0.269  11.539   2.705
59459SOL     OW80273   4.908   6.642  14.518
59459SOL    HW180274   4.860   6.593  14.584
59459SOL    HW280275   4.969   6.579  14.480
59460SOL     OW80276   5.749  13.436   0.253
59460SOL    HW180277   5.792  13.363   0.208
59460SOL    HW280278   5.796  13.444   0.336
59461SOL     OW80279  10.763   5.918   8.919
59461SOL    HW180280  10.740   5.832   8.883
59461SOL    HW280281  10.682   5.969   8.909
59462SOL     OW80282  13.506   9.497   9.272
59462SOL    HW180283  13.565   9.523   9.202
59462SOL    HW280284  13.523   9.560   9.343
59463SOL     OW80285  11.395  13.255   8.294
59463SOL    HW180286  11.468  13.251   8.356
59463SOL    HW280287  11.393  13.346   8.265
59464SOL     OW80288   4.983   3.533   9.814
59464SOL    HW180289   4.945   3.542   9.901
59464SOL    HW280290   4.916   3.486   9.764
59465SOL     OW80291  10.527  11.063   1.410
59465SOL    HW180292  10.609  11.020   1.435
59465SOL    HW280293  10.552  11.123   1.339
59466SOL     OW80294   8.133   1.563   9.440
59466SOL    HW180295   8.147   1.507   9.364
59466SOL    HW280296   8.108   1.503   9.510
59467SOL     OW80297  14.492  13.395   3.114
59467SOL    HW180298  14.541  13.316   3.137
59467SOL    HW280299  14.488  13.445   3.195
59468SOL     OW80300   1.805  11.846   1.051
59468SOL    HW180301   1.823  11.756   1.023
59468SOL    HW280302   1.830  11.899   0.975
59469SOL     OW80303  14.376  14.680  14.147
59469SOL    HW180304  14.401  14.645  14.061
59469SOL    HW280305  14.417  14.766  14.151
59470SOL     OW80306   5.794   7.159  11.806
59470SOL    HW180307   5.756   7.071  11.797
59470SOL    HW280308   5.863   7.162  11.740
59471SOL     OW80309  12.488   2.163  12.937
59471SOL    HW180310  12.401   2.194  12.911
59471SOL    HW280311  12.472   2.108  13.014
59472SOL     OW80312  10.818   9.956   5.947
59472SOL    HW180313  10.888   9.924   6.003
59472SOL    HW280314  10.803   9.885   5.885
59473SOL     OW80315   9.680   6.451   8.846
59473SOL    HW180316   9.642   6.368   8.817
59473SOL    HW280317   9.775   6.438   8.837
59474SOL     OW80318  11.266   7.054  12.719
59474SOL    HW180319  11.313   7.107  12.783
59474SOL    HW280320  11.212   6.995  12.772
59475SOL     OW80321  13.221   4.707  13.011
59475SOL    HW180322  13.155   4.716  12.942
59475SOL    HW280323  13.216   4.789  13.060
59476SOL     OW80324   8.533   1.025   5.753
59476SOL    HW180325   8.573   1.101   5.709
59476SOL    HW280326   8.575   1.022   5.839
59477SOL     OW80327   5.047  11.630   4.778
59477SOL    HW180328   5.130  11.612   4.821
59477SOL    HW280329   5.069  11.694   4.710
59478SOL     OW80330   3.643  11.673   0.810
59478SOL    HW180331   3.672  11.747   0.756
59478SOL    HW280332   3.713  11.608   0.801
59479SOL     OW80333   5.503   5.910   6.566
59479SOL    HW180334   5.568   5.865   6.512
59479SOL    HW280335   5.552   5.978   6.611
59480SOL     OW80336  14.200   8.094  10.274
59480SOL    HW180337  14.195   8.000  10.289
59480SOL    HW280338  14.121   8.130  10.313
59481SOL     OW80339   2.644   5.382  13.196
59481SOL    HW180340   2.576   5.446  13.175
59481SOL    HW280341   2.725   5.424  13.170
59482SOL     OW80342  14.323   7.851  11.629
59482SOL    HW180343  14.398   7.835  11.573
59482SOL    HW280344  14.323   7.778  11.691
59483SOL     OW80345  10.085  13.843   7.877
59483SOL    HW180346  10.167  13.793   7.883
59483SOL    HW280347  10.063  13.864   7.968
59484SOL     OW80348   7.468   4.270   2.386
59484SOL    HW180349   7.454   4.184   2.427
59484SOL    HW280350   7.559   4.291   2.406
59485SOL     OW80351   2.633  12.267  14.847
59485SOL    HW180352   2.625  12.219   0.042
59485SOL    HW280353   2.545  12.263  14.809
59486SOL     OW80354   8.121   3.257   8.649
59486SOL    HW180355   8.033   3.230   8.624
59486SOL    HW280356   8.110   3.308   8.728
59487SOL     OW80357  10.583   9.802  11.527
59487SOL    HW180358  10.546   9.745  11.595
59487SOL    HW280359  10.541   9.887  11.542
59488SOL     OW80360   4.340   4.336   1.288
59488SOL    HW180361   4.429   4.369   1.297
59488SOL    HW280362   4.320   4.295   1.372
59489SOL     OW80363   5.109   9.116  12.854
59489SOL    HW180364   5.123   9.078  12.940
59489SOL    HW280365   5.099   9.210  12.871
59490SOL     OW80366  10.282   8.264   6.502
59490SOL    HW180367  10.272   8.280   6.596
59490SOL    HW280368  10.368   8.223   6.494
59491SOL     OW80369   7.175  11.190   5.215
59491SOL    HW180370   7.089  11.152   5.231
59491SOL    HW280371   7.212  11.136   5.145
59492SOL     OW80372   7.941  14.526   6.239
59492SOL    HW180373   7.982  14.606   6.206
59492SOL    HW280374   7.862  14.556   6.284
59493SOL     OW80375   5.872   1.954   6.102
59493SOL    HW180376   5.939   1.986   6.043
59493SOL    HW280377   5.897   1.989   6.188
59494SOL     OW80378   4.173   3.906   0.493
59494SOL    HW180379   4.132   3.873   0.413
59494SOL    HW280380   4.267   3.901   0.476
59495SOL     OW80381   8.250   7.485   8.304
59495SOL    HW180382   8.250   7.479   8.209
59495SOL    HW280383   8.158   7.496   8.328
59496SOL     OW80384  12.316   8.723   7.066
59496SOL    HW180385  12.409   8.705   7.080
59496SOL    HW280386  12.270   8.654   7.114
59497SOL     OW80387   9.255  11.400   6.270
59497SOL    HW180388   9.164  11.424   6.254
59497SOL    HW280389   9.305  11.453   6.208
59498SOL     OW80390   8.784  13.580   0.386
59498SOL    HW180391   8.805  13.582   0.292
59498SOL    HW280392   8.838  13.648   0.424
59499SOL     OW80393  11.406  14.549   5.649
59499SOL    HW180394  11.413  14.588   5.737
59499SOL    HW280395  11.401  14.455   5.665
59500SOL     OW80396  10.934  13.392   9.608
59500SOL    HW180397  10.963  13.305   9.634
59500SOL    HW280398  11.004  13.425   9.551
59501SOL     OW80399  13.751   3.388  12.817
59501SOL    HW180400  13.768   3.472  12.775
59501SOL    HW280401  13.665   3.398  12.857
59502SOL     OW80402  11.487   7.578   6.825
59502SOL    HW180403  11.573   7.605   6.857
59502SOL    HW280404  11.495   7.483   6.813
59503SOL     OW80405   2.612  14.374  10.714
59503SOL    HW180406   2.662  14.317  10.656
59503SOL    HW280407   2.653  14.363  10.800
59504SOL     OW80408  11.282  13.871   4.719
59504SOL    HW180409  11.322  13.929   4.655
59504SOL    HW280410  11.353  13.847   4.778
59505SOL     OW80411   2.974   1.170   6.377
59505SOL    HW180412   2.939   1.116   6.306
59505SOL    HW280413   3.064   1.140   6.387
59506SOL     OW80414   0.326  13.823   1.411
59506SOL    HW180415   0.277  13.743   1.391
59506SOL    HW280416   0.317  13.877   1.332
59507SOL     OW80417   8.889  12.307   0.688
59507SOL    HW180418   8.805  12.262   0.678
59507SOL    HW280419   8.947  12.243   0.729
59508SOL     OW80420   3.125   2.232  11.018
59508SOL    HW180421   3.219   2.222  11.002
59508SOL    HW280422   3.095   2.144  11.038
59509SOL     OW80423  10.699  10.968  13.028
59509SOL    HW180424  10.628  10.906  13.046
59509SOL    HW280425  10.758  10.961  13.103
59510SOL     OW80426   1.244   2.225  10.800
59510SOL    HW180427   1.151   2.245  10.790
59510SOL    HW280428   1.281   2.303  10.840
59511SOL     OW80429   3.134  14.815   8.845
59511SOL    HW180430   3.130  14.775   8.932
59511SOL    HW280431   3.098   0.016   8.857
59512SOL     OW80432  13.913   8.484  12.877
59512SOL    HW180433  13.869   8.412  12.831
59512SOL    HW280434  14.002   8.485  12.842
59513SOL     OW80435   8.142   6.263   9.491
59513SOL    HW180436   8.173   6.271   9.401
59513SOL    HW280437   8.091   6.343   9.506
59514SOL     OW80438  10.769  14.729   9.115
59514SOL    HW180439  10.789  14.639   9.088
59514SOL    HW280440  10.854  14.772   9.122
59515SOL     OW80441   3.785  14.524   7.213
59515SOL    HW180442   3.825  14.611   7.223
59515SOL    HW280443   3.714  14.538   7.150
59516SOL     OW80444  14.107  14.062   2.575
59516SOL    HW180445  14.109  14.087   2.482
59516SOL    HW280446  14.187  14.012   2.588
59517SOL     OW80447   2.522   0.600   6.945
59517SOL    HW180448   2.538   0.510   6.917
59517SOL    HW280449   2.609   0.634   6.968
59518SOL     OW80450   0.646   4.151   8.205
59518SOL    HW180451   0.574   4.089   8.204
59518SOL    HW280452   0.671   4.158   8.297
59519SOL     OW80453   5.549   6.270   6.928
59519SOL    HW180454   5.534   6.312   7.013
59519SOL    HW280455   5.642   6.286   6.910
59520SOL     OW80456   6.519  10.968   2.827
59520SOL    HW180457   6.515  11.007   2.913
59520SOL    HW280458   6.454  10.898   2.829
59521SOL     OW80459  14.705  11.141   0.258
59521SOL    HW180460  14.769  11.075   0.284
59521SOL    HW280461  14.751  11.224   0.268
59522SOL     OW80462   7.515  14.008   7.243
59522SOL    HW180463   7.594  14.060   7.230
59522SOL    HW280464   7.482  14.036   7.328
59523SOL     OW80465   1.546   6.935   3.923
59523SOL    HW180466   1.597   6.947   4.003
59523SOL    HW280467   1.464   6.895   3.952
59524SOL     OW80468   4.765   5.445  10.613
59524SOL    HW180469   4.782   5.503  10.686
59524SOL    HW280470   4.677   5.409  10.630
59525SOL     OW80471   8.438  13.780   7.831
59525SOL    HW180472   8.424  13.765   7.925
59525SOL    HW280473   8.418  13.872   7.818
59526SOL     OW80474   9.285  13.532   6.478
59526SOL    HW180475   9.370  13.504   6.512
59526SOL    HW280476   9.238  13.450   6.461
59527SOL     OW80477   0.171   0.306   7.992
59527SOL    HW180478   0.150   0.307   7.899
59527SOL    HW280479   0.096   0.264   8.034
59528SOL     OW80480   0.139   3.264  10.319
59528SOL    HW180481   0.060   3.214  10.301
59528SOL    HW280482   0.138   3.335  10.255
59529SOL     OW80483   6.999   1.685   8.452
59529SOL    HW180484   7.043   1.707   8.370
59529SOL    HW280485   6.968   1.595   8.439
59530SOL     OW80486   7.384  13.134   9.973
59530SOL    HW180487   7.442  13.100   9.905
59530SOL    HW280488   7.429  13.114  10.055
59531SOL     OW80489  14.504   4.877   5.738
59531SOL    HW180490  14.538   4.965   5.754
59531SOL    HW280491  14.409   4.887   5.737
59532SOL     OW80492  10.533   0.062  11.719
59532SOL    HW180493  10.540  14.862  11.681
59532SOL    HW280494  10.445   0.091  11.697
59533SOL     OW80495   3.504   4.441   8.818
59533SOL    HW180496   3.532   4.392   8.895
59533SOL    HW280497   3.552   4.524   8.823
59534SOL     OW80498   4.131  10.262   6.563
59534SOL    HW180499   4.207  10.238   6.510
59534SOL    HW280500   4.058  10.217   6.521
59535SOL     OW80501  10.796  13.114   2.153
59535SOL    HW180502  10.875  13.085   2.106
59535SOL    HW280503  10.724  13.092   2.094
59536SOL     OW80504  12.606  13.649   8.813
59536SOL    HW180505  12.592  13.722   8.752
59536SOL    HW280506  12.519  13.635   8.852
59537SOL     OW80507   3.013   0.158  14.071
59537SOL    HW180508   3.068   0.229  14.104
59537SOL    HW280509   2.930   0.168  14.118
59538SOL     OW80510   1.821  11.253   5.936
59538SOL    HW180511   1.837  11.347   5.938
59538SOL    HW280512   1.829  11.225   6.027
59539SOL     OW80513   1.282   0.718   0.535
59539SOL    HW180514   1.294   0.696   0.442
59539SOL    HW280515   1.264   0.633   0.577
59540SOL     OW80516   0.073  11.421  13.403
59540SOL    HW180517  14.887  11.482  13.405
59540SOL    HW280518   0.112  11.428  13.490
59541SOL     OW80519   1.580   5.796  14.458
59541SOL    HW180520   1.576   5.866  14.523
59541SOL    HW280521   1.527   5.827  14.385
59542SOL     OW80522   5.026  14.771   7.824
59542SOL    HW180523   5.101  14.754   7.881
59542SOL    HW280524   5.041  14.858   7.789
59543SOL     OW80525   3.787  14.709   9.951
59543SOL    HW180526   3.733  14.786   9.967
59543SOL    HW280527   3.837  14.697  10.031
59544SOL     OW80528   2.237  10.865   5.719
59544SOL    HW180529   2.327  10.878   5.749
59544SOL    HW280530   2.242  10.873   5.623
59545SOL     OW80531   2.739   1.556   2.568
59545SOL    HW180532   2.652   1.516   2.572
59545SOL    HW280533   2.763   1.551   2.475
59546SOL     OW80534   0.193   0.060   1.399
59546SOL    HW180535   0.234   0.063   1.313
59546SOL    HW280536   0.137   0.139   1.401
59547SOL     OW80537   3.783   0.065   5.135
59547SOL    HW180538   3.819   0.127   5.198
59547SOL    HW280539   3.769   0.117   5.056
59548SOL     OW80540   1.210   1.910   7.890
59548SOL    HW180541   1.269   1.904   7.965
59548SOL    HW280542   1.206   1.820   7.855
59549SOL     OW80543   0.685   2.065  13.379
59549SOL    HW180544   0.678   1.969  13.373
59549SOL    HW280545   0.622   2.088  13.448
59550SOL     OW80546  12.817  12.291   5.348
59550SOL    HW180547  12.824  12.264   5.439
59550SOL    HW280548  12.908  12.309   5.321
59551SOL     OW80549   0.067  13.898   5.320
59551SOL    HW180550  14.874  13.946   5.299
59551SOL    HW280551   0.090  13.928   5.408
59552SOL     OW80552   3.216   8.642   9.449
59552SOL    HW180553   3.211   8.619   9.542
59552SOL    HW280554   3.229   8.558   9.405
59553SOL     OW80555   4.623   6.546   7.031
59553SOL    HW180556   4.710   6.536   7.069
59553SOL    HW280557   4.563   6.517   7.099
59554SOL     OW80558   3.241  12.503   7.398
59554SOL    HW180559   3.279  12.418   7.419
59554SOL    HW280560   3.298  12.566   7.442
59555SOL     OW80561   9.611   2.082   2.670
59555SOL    HW180562   9.571   2.071   2.756
59555SOL    HW280563   9.704   2.063   2.684
59556SOL     OW80564   7.017  10.980  10.313
59556SOL    HW180565   7.104  10.946  10.291
59556SOL    HW280566   6.959  10.904  10.306
59557SOL     OW80567  13.728  10.217   1.365
59557SOL    HW180568  13.779  10.285   1.321
59557SOL    HW280569  13.785  10.140   1.365
59558SOL     OW80570   2.641   3.074  11.866
59558SOL    HW180571   2.553   3.100  11.895
59558SOL    HW280572   2.647   2.981  11.887
59559SOL     OW80573   8.854  13.119  10.266
59559SOL    HW180574   8.940  13.112  10.307
59559SOL    HW280575   8.872  13.154  10.179
59560SOL     OW80576   0.950  11.963  10.210
59560SOL    HW180577   0.967  12.051  10.177
59560SOL    HW280578   0.984  11.905  10.142
59561SOL     OW80579   4.485   4.076  14.269
59561SOL    HW180580   4.544   4.145  14.238
59561SOL    HW280581   4.427   4.119  14.332
59562SOL     OW80582  11.358  13.457  13.340
59562SOL    HW180583  11.268  13.425  13.347
59562SOL    HW280584  11.353  13.548  13.371
59563SOL     OW80585   3.953   6.674   4.855
59563SOL    HW180586   3.962   6.725   4.775
59563SOL    HW280587   3.861   6.687   4.881
59564SOL     OW80588   3.852   1.893   9.841
59564SOL    HW180589   3.854   1.987   9.855
59564SOL    HW280590   3.895   1.857   9.919
59565SOL     OW80591   9.942   9.669   8.957
59565SOL    HW180592   9.974   9.590   9.002
59565SOL    HW280593   9.956   9.651   8.864
59566SOL     OW80594   0.760   7.881   2.282
59566SOL    HW180595   0.829   7.924   2.332
59566SOL    HW280596   0.760   7.926   2.197
59567SOL     OW80597  14.762   3.373   2.767
59567SOL    HW180598  14.778   3.382   2.861
59567SOL    HW280599  14.719   3.455   2.742
59568SOL     OW80600  14.758   8.602   0.553
59568SOL    HW180601  14.719   8.689   0.546
59568SOL    HW280602  14.762   8.584   0.647
59569SOL     OW80603   8.193   2.857   2.518
59569SOL    HW180604   8.192   2.910   2.598
59569SOL    HW280605   8.285   2.830   2.510
59570SOL     OW80606  14.515   0.859   5.393
59570SOL    HW180607  14.466   0.784   5.427
59570SOL    HW280608  14.501   0.855   5.298
59571SOL     OW80609  12.281   1.406  14.586
59571SOL    HW180610  12.275   1.460  14.664
59571SOL    HW280611  12.191   1.378  14.569
59572SOL     OW80612   1.277   6.040  13.607
59572SOL    HW180613   1.302   6.096  13.534
59572SOL    HW280614   1.193   6.075  13.637
59573SOL     OW80615  13.368   8.237  10.197
59573SOL    HW180616  13.317   8.277  10.127
59573SOL    HW280617  13.304   8.214  10.264
59574SOL     OW80618  10.946  10.209   1.291
59574SOL    HW180619  10.974  10.125   1.255
59574SOL    HW280620  11.027  10.248   1.325
59575SOL     OW80621   2.377  13.200   3.442
59575SOL    HW180622   2.305  13.176   3.384
59575SOL    HW280623   2.359  13.290   3.467
59576SOL     OW80624  10.762  12.059  14.032
59576SOL    HW180625  10.827  12.097  13.973
59576SOL    HW280626  10.813  12.006  14.093
59577SOL     OW80627   7.645  10.868   4.691
59577SOL    HW180628   7.729  10.845   4.652
59577SOL    HW280629   7.597  10.912   4.621
59578SOL     OW80630   4.510   1.134   5.937
59578SOL    HW180631   4.604   1.149   5.939
59578SOL    HW280632   4.481   1.149   6.027
59579SOL     OW80633  12.381   0.505   5.347
59579SOL    HW180634  12.394   0.423   5.394
59579SOL    HW280635  12.291   0.531   5.369
59580SOL     OW80636   0.955   8.329  14.790
59580SOL    HW180637   0.941   8.293  14.702
59580SOL    HW280638   0.867   8.353  14.820
59581SOL     OW80639   3.243   1.652  13.865
59581SOL    HW180640   3.177   1.697  13.916
59581SOL    HW280641   3.203   1.568  13.842
59582SOL     OW80642   3.202   9.217  11.090
59582SOL    HW180643   3.210   9.155  11.018
59582SOL    HW280644   3.127   9.271  11.066
59583SOL     OW80645   7.278   8.241   2.569
59583SOL    HW180646   7.341   8.301   2.609
59583SOL    HW280647   7.192   8.282   2.583
59584SOL     OW80648   5.749  14.383   7.584
59584SOL    HW180649   5.730  14.433   7.504
59584SOL    HW280650   5.720  14.294   7.564
59585SOL     OW80651  10.421   3.250  13.221
59585SOL    HW180652  10.493   3.196  13.189
59585SOL    HW280653  10.342   3.206  13.188
59586SOL     OW80654   8.131   0.028   3.946
59586SOL    HW180655   8.102   0.011   4.036
59586SOL    HW280656   8.220  14.882   3.943
59587SOL     OW80657   6.491   6.947   2.347
59587SOL    HW180658   6.507   6.958   2.441
59587SOL    HW280659   6.578   6.953   2.307
59588SOL     OW80660  11.944   0.664   9.815
59588SOL    HW180661  11.979   0.576   9.828
59588SOL    HW280662  11.985   0.695   9.734
59589SOL     OW80663   9.767   0.369   3.016
59589SOL    HW180664   9.759   0.444   2.956
59589SOL    HW280665   9.682   0.365   3.060
59590SOL     OW80666   1.757  10.595   7.270
59590SOL    HW180667   1.839  10.545   7.278
59590SOL    HW280668   1.753  10.619   7.177
59591SOL     OW80669   2.022   1.920   0.196
59591SOL    HW180670   2.028   1.913   0.101
59591SOL    HW280671   2.088   1.985   0.221
59592SOL     OW80672  10.492  12.208   3.652
59592SOL    HW180673  10.493  12.201   3.557
59592SOL    HW280674  10.542  12.287   3.671
59593SOL     OW80675   5.237   1.647  12.379
59593SOL    HW180676   5.260   1.729  12.334
59593SOL    HW280677   5.236   1.670  12.472
59594SOL     OW80678   6.396   5.433   1.119
59594SOL    HW180679   6.410   5.503   1.183
59594SOL    HW280680   6.484   5.401   1.099
59595SOL     OW80681   0.806   5.590   6.350
59595SOL    HW180682   0.749   5.640   6.292
59595SOL    HW280683   0.800   5.634   6.435
59596SOL     OW80684   8.685  13.591   9.217
59596SOL    HW180685   8.628  13.668   9.217
59596SOL    HW280686   8.767  13.622   9.256
59597SOL     OW80687   7.606   1.184   8.488
59597SOL    HW180688   7.602   1.149   8.577
59597SOL    HW280689   7.697   1.212   8.478
59598SOL     OW80690  14.194  13.651  10.168
59598SOL    HW180691  14.250  13.574  10.167
59598SOL    HW280692  14.239  13.713  10.225
59599SOL     OW80693   6.235   1.226   3.718
59599SOL    HW180694   6.320   1.216   3.676
59599SOL    HW280695   6.249   1.294   3.784
59600SOL     OW80696   2.982   8.047  11.385
59600SOL    HW180697   3.016   7.969  11.341
59600SOL    HW280698   2.887   8.036  11.384
59601SOL     OW80699  13.741   9.095   2.326
59601SOL    HW180700  13.749   9.187   2.301
59601SOL    HW280701  13.652   9.071   2.303
59602SOL     OW80702   0.864   0.739   3.169
59602SOL    HW180703   0.958   0.723   3.165
59602SOL    HW280704   0.827   0.683   3.100
59603SOL     OW80705   9.905   3.492   2.531
59603SOL    HW180706   9.980   3.497   2.590
59603SOL    HW280707   9.899   3.578   2.492
59604SOL     OW80708   4.249   1.278  10.688
59604SOL    HW180709   4.313   1.347  10.671
59604SOL    HW280710   4.296   1.215  10.743
59605SOL     OW80711   9.888   4.055   8.238
59605SOL    HW180712   9.815   4.117   8.230
59605SOL    HW280713   9.873   3.991   8.168
59606SOL     OW80714   6.476  14.552  11.181
59606SOL    HW180715   6.422  14.611  11.233
59606SOL    HW280716   6.558  14.600  11.168
59607SOL     OW80717  13.998   9.425   5.364
59607SOL    HW180718  13.916   9.455   5.325
59607SOL    HW280719  14.062   9.429   5.293
59608SOL     OW80720   3.096   9.888  13.388
59608SOL    HW180721   3.039   9.827  13.341
59608SOL    HW280722   3.184   9.852  13.375
59609SOL     OW80723  14.622   8.589  11.981
59609SOL    HW180724  14.674   8.665  11.957
59609SOL    HW280725  14.538   8.602  11.937
59610SOL     OW80726  10.487   5.604   7.665
59610SOL    HW180727  10.476   5.698   7.651
59610SOL    HW280728  10.470   5.565   7.579
59611SOL     OW80729  14.562   9.167  12.141
59611SOL    HW180730  14.590   9.250  12.102
59611SOL    HW280731  14.612   9.100  12.093
59612SOL     OW80732   9.064   0.084   9.512
59612SOL    HW180733   9.082  14.878   9.501
59612SOL    HW280734   9.117   0.128   9.446
59613SOL     OW80735   9.581   1.376  11.688
59613SOL    HW180736   9.524   1.347  11.759
59613SOL    HW280737   9.595   1.298  11.635
59614SOL     OW80738   2.329   5.061   7.467
59614SOL    HW180739   2.392   5.023   7.528
59614SOL    HW280740   2.258   4.997   7.463
59615SOL     OW80741  11.738   1.694   5.543
59615SOL    HW180742  11.810   1.756   5.541
59615SOL    HW280743  11.691   1.713   5.624
59616SOL     OW80744   2.633   8.472  14.610
59616SOL    HW180745   2.726   8.495  14.602
59616SOL    HW280746   2.597   8.486  14.522
59617SOL     OW80747   4.138   9.276   1.408
59617SOL    HW180748   4.123   9.301   1.316
59617SOL    HW280749   4.233   9.280   1.418
59618SOL     OW80750   7.712  12.577   2.432
59618SOL    HW180751   7.710  12.657   2.485
59618SOL    HW280752   7.703  12.506   2.496
59619SOL     OW80753  14.612   1.649   9.581
59619SOL    HW180754  14.636   1.738   9.606
59619SOL    HW280755  14.528   1.659   9.536
59620SOL     OW80756   9.683   6.473  12.197
59620SOL    HW180757   9.734   6.407  12.151
59620SOL    HW280758   9.748   6.531  12.237
59621SOL     OW80759  11.338  14.443   5.278
59621SOL    HW180760  11.258  14.471   5.234
59621SOL    HW280761  11.394  14.411   5.207
59622SOL     OW80762   5.783  10.448  11.918
59622SOL    HW180763   5.813  10.502  11.991
59622SOL    HW280764   5.761  10.364  11.957
59623SOL     OW80765   6.510   5.443   0.692
59623SOL    HW180766   6.462   5.364   0.714
59623SOL    HW280767   6.596   5.412   0.663
59624SOL     OW80768   9.843  10.886   9.443
59624SOL    HW180769   9.901  10.861   9.515
59624SOL    HW280770   9.806  10.803   9.412
59625SOL     OW80771   5.115   7.781   3.827
59625SOL    HW180772   5.181   7.739   3.770
59625SOL    HW280773   5.120   7.731   3.908
59626SOL     OW80774   6.559   6.498   0.453
59626SOL    HW180775   6.545   6.425   0.393
59626SOL    HW280776   6.579   6.573   0.396
59627SOL     OW80777   3.543   7.729   6.299
59627SOL    HW180778   3.561   7.692   6.385
59627SOL    HW280779   3.482   7.668   6.259
59628SOL     OW80780  10.061   8.751   8.855
59628SOL    HW180781  10.149   8.746   8.817
59628SOL    HW280782  10.028   8.837   8.828
59629SOL     OW80783   3.725   9.250  14.827
59629SOL    HW180784   3.666   9.260  14.753
59629SOL    HW280785   3.706   9.163  14.862
59630SOL     OW80786   0.116   1.604   7.352
59630SOL    HW180787   0.177   1.592   7.424
59630SOL    HW280788   0.170   1.636   7.280
59631SOL     OW80789   7.436   8.652   4.623
59631SOL    HW180790   7.453   8.747   4.626
59631SOL    HW280791   7.390   8.639   4.541
59632SOL     OW80792   1.016   2.629   2.539
59632SOL    HW180793   1.022   2.557   2.601
59632SOL    HW280794   0.999   2.588   2.455
59633SOL     OW80795   5.884   4.365   1.294
59633SOL    HW180796   5.949   4.345   1.227
59633SOL    HW280797   5.934   4.393   1.370
59634SOL     OW80798   1.727   5.438  10.307
59634SOL    HW180799   1.763   5.495  10.375
59634SOL    HW280800   1.682   5.368  10.356
59635SOL     OW80801   0.196   7.689   1.687
59635SOL    HW180802   0.212   7.703   1.780
59635SOL    HW280803   0.175   7.596   1.680
59636SOL     OW80804   1.867  13.097   4.438
59636SOL    HW180805   1.842  13.033   4.372
59636SOL    HW280806   1.885  13.045   4.517
59637SOL     OW80807   7.131   2.336  11.019
59637SOL    HW180808   7.126   2.366  11.110
59637SOL    HW280809   7.056   2.377  10.976
59638SOL     OW80810   3.446  13.005   7.061
59638SOL    HW180811   3.464  12.992   7.154
59638SOL    HW280812   3.420  12.919   7.028
59639SOL     OW80813   6.549   8.179   5.960
59639SOL    HW180814   6.534   8.186   6.054
59639SOL    HW280815   6.470   8.214   5.920
59640SOL     OW80816   4.727   0.000  11.109
59640SOL    HW180817   4.658  14.862  11.169
59640SOL    HW280818   4.761  14.805  11.074
59641SOL     OW80819   8.496   3.068   1.963
59641SOL    HW180820   8.577   3.020   1.978
59641SOL    HW280821   8.429   3.000   1.957
59642SOL     OW80822   7.990   2.567   1.404
59642SOL    HW180823   8.032   2.501   1.350
59642SOL    HW280824   8.012   2.651   1.363
59643SOL     OW80825   8.098   9.333   3.286
59643SOL    HW180826   8.190   9.326   3.260
59643SOL    HW280827   8.079   9.251   3.332
59644SOL     OW80828   9.898   3.024   8.058
59644SOL    HW180829   9.943   3.106   8.038
59644SOL    HW280830   9.809   3.037   8.026
59645SOL     OW80831   7.986   1.440  10.136
59645SOL    HW180832   8.070   1.486  10.143
59645SOL    HW280833   7.922   1.509  10.120
59646SOL     OW80834   8.959   6.601  14.592
59646SOL    HW180835   8.899   6.550  14.647
59646SOL    HW280836   8.934   6.578  14.502
59647SOL     OW80837   6.092   8.283   5.603
59647SOL    HW180838   6.114   8.374   5.583
59647SOL    HW280839   6.046   8.287   5.686
59648SOL     OW80840  10.706  11.791   6.623
59648SOL    HW180841  10.752  11.751   6.549
59648SOL    HW280842  10.717  11.885   6.611
59649SOL     OW80843   8.868  11.987   2.015
59649SOL    HW180844   8.928  12.036   1.958
59649SOL    HW280845   8.925  11.950   2.083
59650SOL     OW80846   4.492   3.489   6.920
59650SOL    HW180847   4.587   3.501   6.913
59650SOL    HW280848   4.466   3.543   6.995
59651SOL     OW80849   4.097  13.750  11.273
59651SOL    HW180850   4.154  13.808  11.223
59651SOL    HW280851   4.127  13.759  11.363
59652SOL     OW80852   6.993  14.194  11.565
59652SOL    HW180853   6.985  14.265  11.628
59652SOL    HW280854   6.919  14.136  11.584
59653SOL     OW80855  14.570  13.845  12.985
59653SOL    HW180856  14.478  13.825  12.970
59653SOL    HW280857  14.587  13.923  12.931
59654SOL     OW80858   3.445   4.871   2.644
59654SOL    HW180859   3.533   4.904   2.625
59654SOL    HW280860   3.458   4.804   2.710
59655SOL     OW80861   3.181   0.075  13.870
59655SOL    HW180862   3.126   0.103  13.942
59655SOL    HW280863   3.239   0.150  13.853
59656SOL     OW80864   7.584   1.462   6.214
59656SOL    HW180865   7.591   1.438   6.122
59656SOL    HW280866   7.519   1.402   6.250
59657SOL     OW80867   6.508   0.102   0.138
59657SOL    HW180868   6.552   0.167   0.193
59657SOL    HW280869   6.529   0.018   0.179
59658SOL     OW80870   9.111   4.464   2.253
59658SOL    HW180871   9.035   4.419   2.291
59658SOL    HW280872   9.129   4.416   2.172
59659SOL     OW80873  10.010   3.649   8.202
59659SOL    HW180874  10.090   3.687   8.166
59659SOL    HW280875  10.020   3.555   8.188
59660SOL     OW80876   4.644  14.471  12.368
59660SOL    HW180877   4.693  14.450  12.448
59660SOL    HW280878   4.577  14.533  12.397
59661SOL     OW80879   7.220  14.237   8.586
59661SOL    HW180880   7.227  14.145   8.613
59661SOL    HW280881   7.298  14.278   8.623
59662SOL     OW80882   8.666   1.030  14.793
59662SOL    HW180883   8.752   0.987  14.785
59662SOL    HW280884   8.680   1.118  14.760
59663SOL     OW80885   7.492  10.013  13.310
59663SOL    HW180886   7.476   9.979  13.398
59663SOL    HW280887   7.552  10.086  13.322
59664SOL     OW80888   0.218   9.237   4.947
59664SOL    HW180889   0.313   9.251   4.948
59664SOL    HW280890   0.208   9.147   4.915
59665SOL     OW80891   8.826   9.613   8.307
59665SOL    HW180892   8.799   9.691   8.356
59665SOL    HW280893   8.803   9.632   8.216
59666SOL     OW80894   7.367   9.072   6.293
59666SOL    HW180895   7.320   8.999   6.252
59666SOL    HW280896   7.459   9.047   6.289
59667SOL     OW80897  11.917   6.312   8.890
59667SOL    HW180898  11.869   6.300   8.807
59667SOL    HW280899  11.957   6.398   8.882
59668SOL     OW80900  12.700   4.345   2.640
59668SOL    HW180901  12.725   4.416   2.581
59668SOL    HW280902  12.762   4.275   2.623
59669SOL     OW80903   5.979   0.253  13.912
59669SOL    HW180904   5.921   0.328  13.928
59669SOL    HW280905   5.962   0.229  13.821
59670SOL     OW80906   9.223  10.122   6.761
59670SOL    HW180907   9.236  10.029   6.741
59670SOL    HW280908   9.139  10.125   6.807
59671SOL     OW80909   3.811  13.045   9.148
59671SOL    HW180910   3.842  12.957   9.170
59671SOL    HW280911   3.866  13.104   9.200
59672SOL     OW80912   5.303  13.746   9.190
59672SOL    HW180913   5.368  13.691   9.146
59672SOL    HW280914   5.248  13.684   9.239
59673SOL     OW80915   0.311   5.865   8.862
59673SOL    HW180916   0.398   5.904   8.860
59673SOL    HW280917   0.289   5.861   8.955
59674SOL     OW80918   9.514  11.941   8.981
59674SOL    HW180919   9.467  11.938   9.065
59674SOL    HW280920   9.583  11.875   8.991
59675SOL     OW80921  10.993   6.836   2.044
59675SOL    HW180922  10.963   6.794   2.125
59675SOL    HW280923  11.048   6.770   2.002
59676SOL     OW80924   7.624  10.556   2.300
59676SOL    HW180925   7.607  10.650   2.307
59676SOL    HW280926   7.706  10.550   2.252
59677SOL     OW80927   8.112   6.942   4.826
59677SOL    HW180928   8.145   6.998   4.756
59677SOL    HW280929   8.081   7.002   4.893
59678SOL     OW80930  10.672  11.813  14.196
59678SOL    HW180931  10.623  11.733  14.214
59678SOL    HW280932  10.757  11.799  14.239
59679SOL     OW80933  10.334   2.060  11.379
59679SOL    HW180934  10.240   2.045  11.363
59679SOL    HW280935  10.336   2.140  11.432
59680SOL     OW80936   6.600  10.914   8.984
59680SOL    HW180937   6.527  10.890   9.041
59680SOL    HW280938   6.580  11.003   8.955
59681SOL     OW80939   4.302  11.673   2.124
59681SOL    HW180940   4.269  11.604   2.182
59681SOL    HW280941   4.357  11.727   2.181
59682SOL     OW80942   1.161  13.161   0.660
59682SOL    HW180943   1.245  13.164   0.706
59682SOL    HW280944   1.111  13.233   0.698
59683SOL     OW80945   9.800   7.591  10.079
59683SOL    HW180946   9.845   7.631  10.154
59683SOL    HW280947   9.807   7.497  10.094
59684SOL     OW80948   6.855  11.511  13.980
59684SOL    HW180949   6.928  11.574  13.972
59684SOL    HW280950   6.826  11.498  13.889
59685SOL     OW80951  10.809  12.287   9.279
59685SOL    HW180952  10.767  12.208   9.245
59685SOL    HW280953  10.772  12.298   9.366
59686SOL     OW80954   7.494   6.112  13.546
59686SOL    HW180955   7.497   6.070  13.460
59686SOL    HW280956   7.432   6.058  13.596
59687SOL     OW80957  13.633  10.395   1.861
59687SOL    HW180958  13.645  10.351   1.777
59687SOL    HW280959  13.649  10.487   1.843
59688SOL     OW80960  11.745  13.857  14.221
59688SOL    HW180961  11.727  13.771  14.258
59688SOL    HW280962  11.663  13.906  14.232
59689SOL     OW80963  11.345   3.768   0.811
59689SOL    HW180964  11.313   3.805   0.728
59689SOL    HW280965  11.432   3.733   0.790
59690SOL     OW80966  11.512  12.628  12.809
59690SOL    HW180967  11.472  12.599  12.727
59690SOL    HW280968  11.549  12.549  12.847
59691SOL     OW80969  12.706   2.728   1.150
59691SOL    HW180970  12.630   2.671   1.140
59691SOL    HW280971  12.693   2.798   1.087
59692SOL     OW80972   6.294  12.193   7.681
59692SOL    HW180973   6.354  12.120   7.698
59692SOL    HW280974   6.352  12.267   7.661
59693SOL     OW80975   2.231   5.262   6.662
59693SOL    HW180976   2.318   5.274   6.700
59693SOL    HW280977   2.222   5.167   6.652
59694SOL     OW80978   1.702   2.491  14.361
59694SOL    HW180979   1.663   2.487  14.449
59694SOL    HW280980   1.716   2.584  14.345
59695SOL     OW80981   1.289  10.937   4.114
59695SOL    HW180982   1.259  11.008   4.058
59695SOL    HW280983   1.215  10.876   4.117
59696SOL     OW80984  10.065   1.151   2.064
59696SOL    HW180985  10.144   1.191   2.101
59696SOL    HW280986  10.098   1.099   1.990
59697SOL     OW80987   0.473   5.381   4.421
59697SOL    HW180988   0.561   5.386   4.383
59697SOL    HW280989   0.488   5.378   4.515
59698SOL     OW80990   1.177   3.984  11.539
59698SOL    HW180991   1.165   3.992  11.444
59698SOL    HW280992   1.177   4.074  11.570
59699SOL     OW80993   2.386  11.733  11.535
59699SOL    HW180994   2.443  11.788  11.588
59699SOL    HW280995   2.442  11.700  11.466
59700SOL     OW80996  10.563   7.789   2.449
59700SOL    HW180997  10.504   7.850   2.493
59700SOL    HW280998  10.639   7.784   2.507
59701SOL     OW80999   8.987  12.463   4.606
59701SOL    HW181000   8.893  12.460   4.588
59701SOL    HW281001   9.013  12.553   4.586
59702SOL     OW81002   9.539   6.688   0.480
59702SOL    HW181003   9.498   6.717   0.561
59702SOL    HW281004   9.475   6.710   0.411
59703SOL     OW81005   6.870   6.999   4.274
59703SOL    HW181006   6.776   7.013   4.288
59703SOL    HW281007   6.875   6.915   4.228
59704SOL     OW81008   1.833   5.562   2.452
59704SOL    HW181009   1.821   5.655   2.434
59704SOL    HW281010   1.917   5.557   2.499
59705SOL     OW81011  14.756   8.295  12.629
59705SOL    HW181012  14.695   8.326  12.562
59705SOL    HW281013  14.738   8.201  12.636
59706SOL     OW81014  11.242   4.993   4.157
59706SOL    HW181015  11.159   4.997   4.204
59706SOL    HW281016  11.307   5.022   4.220
59707SOL     OW81017   5.086   6.282  10.804
59707SOL    HW181018   5.017   6.323  10.751
59707SOL    HW281019   5.137   6.231  10.741
59708SOL     OW81020   8.000  12.162   0.285
59708SOL    HW181021   8.088  12.200   0.294
59708SOL    HW281022   7.997  12.130   0.195
59709SOL     OW81023  13.790   2.322   3.653
59709SOL    HW181024  13.805   2.243   3.602
59709SOL    HW281025  13.736   2.377   3.597
59710SOL     OW81026   3.426   7.919  14.027
59710SOL    HW181027   3.392   7.831  14.011
59710SOL    HW281028   3.359   7.961  14.080
59711SOL     OW81029   5.627   6.473  11.386
59711SOL    HW181030   5.690   6.471  11.314
59711SOL    HW281031   5.566   6.401  11.366
59712SOL     OW81032   6.150  10.452   4.398
59712SOL    HW181033   6.082  10.445   4.465
59712SOL    HW281034   6.198  10.532   4.420
59713SOL     OW81035   1.000   4.117   3.496
59713SOL    HW181036   1.074   4.122   3.556
59713SOL    HW281037   0.961   4.204   3.496
59714SOL     OW81038  12.433   8.369  12.749
59714SOL    HW181039  12.460   8.417  12.828
59714SOL    HW281040  12.448   8.431  12.677
59715SOL     OW81041   8.740   4.684   9.901
59715SOL    HW181042   8.676   4.628   9.857
59715SOL    HW281043   8.697   4.769   9.908
59716SOL     OW81044   3.572  12.199   8.544
59716SOL    HW181045   3.656  12.221   8.504
59716SOL    HW281046   3.516  12.172   8.470
59717SOL     OW81047  10.061  13.104   3.631
59717SOL    HW181048  10.040  13.164   3.702
59717SOL    HW281049   9.994  13.036   3.637
59718SOL     OW81050  11.164   1.312   6.197
59718SOL    HW181051  11.141   1.318   6.290
59718SOL    HW281052  11.259   1.300   6.197
59719SOL     OW81053  10.250   8.873   4.913
59719SOL    HW181054  10.285   8.784   4.912
59719SOL    HW281055  10.196   8.878   4.834
59720SOL     OW81056   9.503   8.461   1.047
59720SOL    HW181057   9.468   8.456   0.959
59720SOL    HW281058   9.563   8.386   1.054
59721SOL     OW81059   3.795   3.950  13.183
59721SOL    HW181060   3.864   3.964  13.248
59721SOL    HW281061   3.738   4.027  13.192
59722SOL     OW81062   8.277  14.094   5.886
59722SOL    HW181063   8.293  14.067   5.796
59722SOL    HW281064   8.281  14.190   5.884
59723SOL     OW81065  12.983   7.631  13.004
59723SOL    HW181066  12.984   7.615  13.099
59723SOL    HW281067  12.973   7.726  12.997
59724SOL     OW81068   7.567   0.898   7.597
59724SOL    HW181069   7.608   0.960   7.537
59724SOL    HW281070   7.477   0.891   7.566
59725SOL     OW81071   2.125  13.152   3.943
59725SOL    HW181072   2.042  13.140   3.897
59725SOL    HW281073   2.115  13.236   3.989
59726SOL     OW81074   2.502  12.662  14.737
59726SOL    HW181075   2.461  12.607  14.671
59726SOL    HW281076   2.573  12.608  14.773
59727SOL     OW81077   6.796   0.064   3.865
59727SOL    HW181078   6.869   0.056   3.926
59727SOL    HW281079   6.833   0.044   3.780
59728SOL     OW81080  11.853  13.738   8.922
59728SOL    HW181081  11.907  13.817   8.928
59728SOL    HW281082  11.763  13.769   8.934
59729SOL     OW81083   2.342   6.542   6.310
59729SOL    HW181084   2.428   6.565   6.346
59729SOL    HW281085   2.312   6.470   6.365
59730SOL     OW81086   7.680  10.104   5.969
59730SOL    HW181087   7.704  10.012   5.980
59730SOL    HW281088   7.670  10.115   5.875
59731SOL     OW81089  13.513   1.959  14.424
59731SOL    HW181090  13.497   1.941  14.517
59731SOL    HW281091  13.473   2.044  14.408
59732SOL     OW81092   8.633   7.719   6.455
59732SOL    HW181093   8.571   7.787   6.430
59732SOL    HW281094   8.715   7.744   6.412
59733SOL     OW81095   9.634   7.809  10.328
59733SOL    HW181096   9.565   7.745  10.311
59733SOL    HW281097   9.598   7.891  10.293
59734SOL     OW81098   4.186   2.836  13.828
59734SOL    HW181099   4.100   2.824  13.787
59734SOL    HW281100   4.204   2.929  13.818
59735SOL     OW81101   8.403   4.377  13.206
59735SOL    HW181102   8.406   4.282  13.217
59735SOL    HW281103   8.450   4.393  13.125
59736SOL     OW81104   9.995   9.185   8.334
59736SOL    HW181105   9.899   9.176   8.338
59736SOL    HW281106  10.028   9.120   8.395
59737SOL     OW81107   1.323  13.516  14.655
59737SOL    HW181108   1.235  13.490  14.681
59737SOL    HW281109   1.380  13.452  14.698
59738SOL     OW81110  10.438  14.885   1.409
59738SOL    HW181111  10.470   0.044   1.331
59738SOL    HW281112  10.450   0.061   1.480
59739SOL     OW81113   4.437   2.917   5.079
59739SOL    HW181114   4.407   3.006   5.100
59739SOL    HW281115   4.468   2.882   5.163
59740SOL     OW81116   1.117  14.678  12.581
59740SOL    HW181117   1.178  14.608  12.607
59740SOL    HW281118   1.030  14.639  12.593
59741SOL     OW81119   9.355   9.163   6.311
59741SOL    HW181120   9.382   9.073   6.292
59741SOL    HW281121   9.269   9.154   6.353
59742SOL     OW81122   8.113  11.634   9.955
59742SOL    HW181123   8.081  11.543   9.955
59742SOL    HW281124   8.164  11.641   9.874
59743SOL     OW81125   0.007  10.954   4.839
59743SOL    HW181126  14.869  11.010   4.766
59743SOL    HW281127  14.835  10.879   4.834
59744SOL     OW81128   0.729  13.558   0.017
59744SOL    HW181129   0.709  13.525  14.816
59744SOL    HW281130   0.791  13.494   0.053
59745SOL     OW81131   7.012   9.034   1.844
59745SOL    HW181132   6.931   9.038   1.894
59745SOL    HW281133   7.057   9.116   1.865
59746SOL     OW81134   2.762   9.613   8.666
59746SOL    HW181135   2.772   9.618   8.762
59746SOL    HW281136   2.669   9.628   8.651
59747SOL     OW81137   7.025   2.572   4.658
59747SOL    HW181138   7.084   2.610   4.593
59747SOL    HW281139   7.065   2.488   4.680
59748SOL     OW81140   3.601   4.333  13.453
59748SOL    HW181141   3.582   4.364  13.365
59748SOL    HW281142   3.599   4.412  13.508
59749SOL     OW81143   7.751   0.096   4.931
59749SOL    HW181144   7.787   0.172   4.977
59749SOL    HW281145   7.799   0.021   4.967
59750SOL     OW81146   0.201   7.327   0.394
59750SOL    HW181147   0.149   7.310   0.316
59750SOL    HW281148   0.237   7.241   0.418
59751SOL     OW81149   2.702  11.215  11.915
59751SOL    HW181150   2.715  11.232  11.822
59751SOL    HW281151   2.687  11.121  11.921
59752SOL     OW81152   3.967  14.690   6.077
59752SOL    HW181153   3.975  14.609   6.127
59752SOL    HW281154   3.936  14.754   6.141
59753SOL     OW81155  11.083  13.099   7.252
59753SOL    HW181156  10.990  13.103   7.229
59753SOL    HW281157  11.123  13.049   7.181
59754SOL     OW81158   9.812   5.731   0.344
59754SOL    HW181159   9.885   5.674   0.320
59754SOL    HW281160   9.734   5.679   0.326
59755SOL     OW81161  13.396   8.077   5.256
59755SOL    HW181162  13.341   8.079   5.334
59755SOL    HW281163  13.485   8.086   5.289
59756SOL     OW81164   1.447   7.777   7.077
59756SOL    HW181165   1.416   7.732   6.999
59756SOL    HW281166   1.536   7.744   7.090
59757SOL     OW81167   5.002   3.188  12.618
59757SOL    HW181168   5.017   3.202  12.711
59757SOL    HW281169   5.088   3.196  12.578
59758SOL     OW81170  10.036   1.280  11.794
59758SOL    HW181171   9.988   1.198  11.807
59758SOL    HW281172  10.067   1.304  11.881
59759SOL     OW81173   5.477   6.555   6.221
59759SOL    HW181174   5.552   6.578   6.276
59759SOL    HW281175   5.420   6.632   6.224
59760SOL     OW81176   1.212  11.022   9.415
59760SOL    HW181177   1.122  11.033   9.445
59760SOL    HW281178   1.217  10.929   9.390
59761SOL     OW81179   6.127  12.983  12.847
59761SOL    HW181180   6.075  13.063  12.840
59761SOL    HW281181   6.148  12.976  12.940
59762SOL     OW81182   0.336  14.678  10.757
59762SOL    HW181183   0.368  14.604  10.809
59762SOL    HW281184   0.274  14.722  10.816
59763SOL     OW81185  12.736  14.695   2.058
59763SOL    HW181186  12.801  14.652   2.114
59763SOL    HW281187  12.674  14.625   2.035
59764SOL     OW81188   2.418   6.310  12.539
59764SOL    HW181189   2.439   6.221  12.568
59764SOL    HW281190   2.349   6.339  12.599
59765SOL     OW81191   7.282  14.115   6.912
59765SOL    HW181192   7.309  14.109   6.820
59765SOL    HW281193   7.284  14.025   6.944
59766SOL     OW81194   3.228  11.943   5.430
59766SOL    HW181195   3.262  12.011   5.488
59766SOL    HW281196   3.291  11.939   5.358
59767SOL     OW81197  11.078   9.132   5.438
59767SOL    HW181198  10.996   9.177   5.458
59767SOL    HW281199  11.138   9.157   5.508
59768SOL     OW81200  13.872   2.119  11.328
59768SOL    HW181201  13.896   2.171  11.405
59768SOL    HW281202  13.943   2.055  11.319
59769SOL     OW81203  14.535   1.096  13.360
59769SOL    HW181204  14.590   1.048  13.420
59769SOL    HW281205  14.446   1.082  13.392
59770SOL     OW81206  14.250  13.828   6.473
59770SOL    HW181207  14.246  13.920   6.500
59770SOL    HW281208  14.168  13.813   6.427
59771SOL     OW81209  11.802   6.287   4.371
59771SOL    HW181210  11.841   6.370   4.343
59771SOL    HW281211  11.869   6.222   4.351
59772SOL     OW81212   2.594   4.604   4.347
59772SOL    HW181213   2.599   4.513   4.378
59772SOL    HW281214   2.557   4.653   4.420
59773SOL     OW81215  13.080   9.849  13.623
59773SOL    HW181216  13.023   9.915  13.585
59773SOL    HW281217  13.021   9.786  13.664
59774SOL     OW81218   8.335  11.984  13.011
59774SOL    HW181219   8.348  12.037  13.089
59774SOL    HW281220   8.350  12.044  12.938
59775SOL     OW81221   6.941   1.759  12.711
59775SOL    HW181222   6.983   1.802  12.785
59775SOL    HW281223   6.968   1.812  12.635
59776SOL     OW81224   0.093  13.745   1.234
59776SOL    HW181225   0.053  13.670   1.189
59776SOL    HW281226   0.134  13.795   1.165
59777SOL     OW81227  11.305  14.617   2.779
59777SOL    HW181228  11.324  14.711   2.777
59777SOL    HW281229  11.383  14.577   2.818
59778SOL     OW81230  11.999   5.497  14.676
59778SOL    HW181231  11.971   5.533  14.591
59778SOL    HW281232  11.940   5.537  14.739
59779SOL     OW81233  14.558   6.688  11.376
59779SOL    HW181234  14.474   6.651  11.403
59779SOL    HW281235  14.617   6.613  11.372
59780SOL     OW81236   3.586   0.146   0.121
59780SOL    HW181237   3.523   0.171   0.053
59780SOL    HW281238   3.671   0.175   0.087
59781SOL     OW81239   7.980   8.826   9.839
59781SOL    HW181240   7.894   8.866   9.840
59781SOL    HW281241   8.041   8.900   9.841
59782SOL     OW81242   6.532   1.378   4.489
59782SOL    HW181243   6.484   1.313   4.541
59782SOL    HW281244   6.505   1.361   4.399
59783SOL     OW81245  13.938   6.343   5.392
59783SOL    HW181246  13.853   6.384   5.377
59783SOL    HW281247  13.982   6.401   5.455
59784SOL     OW81248   7.146   1.024  13.671
59784SOL    HW181249   7.056   1.055  13.674
59784SOL    HW281250   7.198   1.098  13.704
59785SOL     OW81251  13.518   0.875   2.093
59785SOL    HW181252  13.478   0.799   2.135
59785SOL    HW281253  13.612   0.857   2.094
59786SOL     OW81254   9.458  12.900   3.543
59786SOL    HW181255   9.476  12.993   3.528
59786SOL    HW281256   9.527  12.854   3.496
59787SOL     OW81257   7.949   9.091   2.549
59787SOL    HW181258   7.995   9.016   2.587
59787SOL    HW281259   7.904   9.056   2.472
59788SOL     OW81260   2.714   3.635   2.280
59788SOL    HW181261   2.783   3.573   2.256
59788SOL    HW281262   2.665   3.649   2.198
59789SOL     OW81263   3.909   2.113  13.826
59789SOL    HW181264   3.837   2.124  13.764
59789SOL    HW281265   3.874   2.052  13.892
59790SOL     OW81266  12.362  12.228   6.624
59790SOL    HW181267  12.436  12.203   6.568
59790SOL    HW281268  12.374  12.321   6.640
59791SOL     OW81269  13.935   5.232   0.608
59791SOL    HW181270  13.973   5.320   0.608
59791SOL    HW281271  13.849   5.244   0.649
59792SOL     OW81272   9.909   8.527  12.819
59792SOL    HW181273   9.926   8.578  12.740
59792SOL    HW281274   9.930   8.437  12.795
59793SOL     OW81275  14.014  11.090   8.529
59793SOL    HW181276  14.036  11.096   8.622
59793SOL    HW281277  14.062  11.012   8.498
59794SOL     OW81278   3.925  11.278   8.851
59794SOL    HW181279   3.911  11.184   8.864
59794SOL    HW281280   3.837  11.315   8.855
59795SOL     OW81281   9.879   1.197   4.889
59795SOL    HW181282   9.830   1.258   4.834
59795SOL    HW281283   9.887   1.242   4.973
59796SOL     OW81284   1.195   7.121  13.758
59796SOL    HW181285   1.190   7.081  13.845
59796SOL    HW281286   1.288   7.125  13.739
59797SOL     OW81287  11.045   0.783   7.925
59797SOL    HW181288  10.968   0.815   7.879
59797SOL    HW281289  11.074   0.708   7.874
59798SOL     OW81290   9.901  13.966   1.882
59798SOL    HW181291   9.980  14.019   1.886
59798SOL    HW281292   9.845  14.001   1.951
59799SOL     OW81293   6.674   3.195   2.245
59799SOL    HW181294   6.705   3.282   2.219
59799SOL    HW281295   6.579   3.205   2.252
59800SOL     OW81296  11.085   2.117  12.848
59800SOL    HW181297  11.070   2.152  12.935
59800SOL    HW281298  11.012   2.150  12.795
59801SOL     OW81299   2.382  12.006   3.504
59801SOL    HW181300   2.375  11.939   3.572
59801SOL    HW281301   2.404  12.086   3.552
59802SOL     OW81302   5.678   6.554   7.317
59802SOL    HW181303   5.643   6.568   7.405
59802SOL    HW281304   5.682   6.641   7.279
59803SOL     OW81305  13.982  14.549   4.524
59803SOL    HW181306  13.968  14.504   4.607
59803SOL    HW281307  14.056  14.502   4.484
59804SOL     OW81308   3.342  13.349   9.660
59804SOL    HW181309   3.281  13.377   9.728
59804SOL    HW281310   3.408  13.418   9.656
59805SOL     OW81311   9.247   7.618   1.022
59805SOL    HW181312   9.285   7.531   1.037
59805SOL    HW281313   9.175   7.602   0.962
59806SOL     OW81314  14.606  13.253   8.507
59806SOL    HW181315  14.675  13.195   8.539
59806SOL    HW281316  14.559  13.281   8.586
59807SOL     OW81317   8.455   1.946   8.971
59807SOL    HW181318   8.455   1.854   8.945
59807SOL    HW281319   8.513   1.989   8.908
59808SOL     OW81320   0.355  12.696  14.283
59808SOL    HW181321   0.285  12.759  14.292
59808SOL    HW281322   0.405  12.726  14.207
59809SOL     OW81323   7.231  12.002   2.273
59809SOL    HW181324   7.292  11.943   2.316
59809SOL    HW281325   7.196  11.951   2.199
59810SOL     OW81326   0.811  14.218  12.064
59810SOL    HW181327   0.852  14.160  12.000
59810SOL    HW281328   0.885  14.258  12.111
59811SOL     OW81329   5.632   3.855   3.979
59811SOL    HW181330   5.562   3.901   4.025
59811SOL    HW281331   5.710   3.907   3.998
59812SOL     OW81332  11.909   4.888  10.856
59812SOL    HW181333  11.939   4.810  10.904
59812SOL    HW281334  11.975   4.954  10.875
59813SOL     OW81335   8.709   7.386   8.199
59813SOL    HW181336   8.675   7.474   8.218
59813SOL    HW281337   8.653   7.328   8.250
59814SOL     OW81338   6.580   1.183   1.607
59814SOL    HW181339   6.644   1.118   1.579
59814SOL    HW281340   6.627   1.235   1.673
59815SOL     OW81341   2.293  13.780  12.176
59815SOL    HW181342   2.263  13.692  12.150
59815SOL    HW281343   2.347  13.765  12.253
59816SOL     OW81344  10.960   8.629   8.830
59816SOL    HW181345  11.021   8.665   8.894
59816SOL    HW281346  11.000   8.546   8.802
59817SOL     OW81347   8.619  11.655   5.101
59817SOL    HW181348   8.614  11.573   5.149
59817SOL    HW281349   8.542  11.705   5.129
59818SOL     OW81350  14.094  10.054   5.030
59818SOL    HW181351  14.081   9.979   4.971
59818SOL    HW281352  14.187  10.050   5.052
59819SOL     OW81353  13.129  11.480   9.734
59819SOL    HW181354  13.205  11.503   9.787
59819SOL    HW281355  13.149  11.516   9.647
59820SOL     OW81356   6.737   5.344  11.211
59820SOL    HW181357   6.719   5.364  11.119
59820SOL    HW281358   6.802   5.274  11.209
59821SOL     OW81359   2.079   7.250   7.893
59821SOL    HW181360   2.127   7.205   7.963
59821SOL    HW281361   2.129   7.230   7.814
59822SOL     OW81362  11.383   9.530  12.752
59822SOL    HW181363  11.354   9.477  12.678
59822SOL    HW281364  11.324   9.605  12.752
59823SOL     OW81365   6.439   0.123  13.326
59823SOL    HW181366   6.520   0.119  13.379
59823SOL    HW281367   6.432   0.215  13.301
59824SOL     OW81368   2.425  10.110   3.648
59824SOL    HW181369   2.483  10.181   3.676
59824SOL    HW281370   2.481  10.033   3.644
59825SOL     OW81371  14.267   0.775   0.015
59825SOL    HW181372  14.268   0.680   0.031
59825SOL    HW281373  14.341   0.790  14.844
59826SOL     OW81374   4.622  14.353  10.966
59826SOL    HW181375   4.644  14.279  10.910
59826SOL    HW281376   4.598  14.314  11.050
59827SOL     OW81377   5.586  14.165  13.470
59827SOL    HW181378   5.654  14.101  13.452
59827SOL    HW281379   5.530  14.164  13.392
59828SOL     OW81380  10.695   3.046  10.107
59828SOL    HW181381  10.782   3.007  10.112
59828SOL    HW281382  10.692   3.108  10.180
59829SOL     OW81383   1.644   2.699  12.893
59829SOL    HW181384   1.588   2.737  12.825
59829SOL    HW281385   1.604   2.614  12.912
59830SOL     OW81386   4.935   4.413   2.129
59830SOL    HW181387   4.996   4.478   2.093
59830SOL    HW281388   4.988   4.334   2.140
59831SOL     OW81389   0.353   5.121   9.767
59831SOL    HW181390   0.366   5.050   9.829
59831SOL    HW281391   0.259   5.117   9.746
59832SOL     OW81392  11.461  13.716   5.630
59832SOL    HW181393  11.383  13.688   5.581
59832SOL    HW281394  11.450  13.810   5.641
59833SOL     OW81395  11.671   3.942   7.567
59833SOL    HW181396  11.587   3.929   7.612
59833SOL    HW281397  11.678   3.867   7.509
59834SOL     OW81398  10.209   7.585  11.990
59834SOL    HW181399  10.184   7.664  12.038
59834SOL    HW281400  10.304   7.591  11.981
59835SOL     OW81401   0.176   0.902   3.122
59835SOL    HW181402   0.131   0.925   3.041
59835SOL    HW281403   0.262   0.942   3.114
59836SOL     OW81404   7.230  12.728   7.687
59836SOL    HW181405   7.168  12.795   7.715
59836SOL    HW281406   7.309  12.746   7.738
59837SOL     OW81407   1.276   5.302   0.735
59837SOL    HW181408   1.243   5.309   0.646
59837SOL    HW281409   1.262   5.388   0.773
59838SOL     OW81410   8.658   4.243  14.453
59838SOL    HW181411   8.682   4.316  14.396
59838SOL    HW281412   8.618   4.178  14.395
59839SOL     OW81413   5.044   5.863  12.340
59839SOL    HW181414   5.036   5.903  12.427
59839SOL    HW281415   5.051   5.937  12.280
59840SOL     OW81416   5.953   1.571   5.040
59840SOL    HW181417   5.887   1.520   5.087
59840SOL    HW281418   5.915   1.586   4.954
59841SOL     OW81419   2.864   9.739  11.646
59841SOL    HW181420   2.877   9.742  11.551
59841SOL    HW281421   2.945   9.773  11.683
59842SOL     OW81422   5.821   4.923   4.556
59842SOL    HW181423   5.747   4.949   4.611
59842SOL    HW281424   5.829   4.993   4.491
59843SOL     OW81425  13.757   6.657   5.570
59843SOL    HW181426  13.740   6.729   5.509
59843SOL    HW281427  13.728   6.578   5.523
59844SOL     OW81428  14.785  12.131   0.045
59844SOL    HW181429  14.825  12.216   0.033
59844SOL    HW281430  14.828  12.074  14.869
59845SOL     OW81431   7.849   9.246   1.898
59845SOL    HW181432   7.801   9.304   1.839
59845SOL    HW281433   7.791   9.170   1.908
59846SOL     OW81434   9.244  13.900   5.019
59846SOL    HW181435   9.280  13.851   4.945
59846SOL    HW281436   9.318  13.949   5.055
59847SOL     OW81437  10.823  12.929   7.708
59847SOL    HW181438  10.834  12.967   7.621
59847SOL    HW281439  10.904  12.881   7.723
59848SOL     OW81440  11.365   5.454   0.059
59848SOL    HW181441  11.376   5.391  14.875
59848SOL    HW281442  11.430   5.429   0.124
59849SOL     OW81443   7.367   1.938   7.788
59849SOL    HW181444   7.301   1.946   7.857
59849SOL    HW281445   7.366   1.845   7.764
59850SOL     OW81446  12.810   5.077   5.343
59850SOL    HW181447  12.896   5.034   5.344
59850SOL    HW281448  12.815   5.139   5.270
59851SOL     OW81449   8.217  13.402  12.438
59851SOL    HW181450   8.193  13.476  12.494
59851SOL    HW281451   8.230  13.441  12.351
59852SOL     OW81452   1.658   8.650  11.308
59852SOL    HW181453   1.657   8.642  11.403
59852SOL    HW281454   1.690   8.739  11.291
59853SOL     OW81455   7.857   3.029   7.990
59853SOL    HW181456   7.782   2.993   8.038
59853SOL    HW281457   7.873   2.967   7.920
59854SOL     OW81458   9.748  12.833  11.775
59854SOL    HW181459   9.795  12.750  11.771
59854SOL    HW281460   9.762  12.864  11.864
59855SOL     OW81461   0.444   7.244   9.407
59855SOL    HW181462   0.537   7.237   9.431
59855SOL    HW281463   0.445   7.266   9.314
59856SOL     OW81464   0.583   0.346  14.209
59856SOL    HW181465   0.545   0.304  14.286
59856SOL    HW281466   0.641   0.279  14.172
59857SOL     OW81467   9.728   3.243  13.221
59857SOL    HW181468   9.650   3.255  13.274
59857SOL    HW281469   9.742   3.327  13.177
59858SOL     OW81470   7.309   6.569   8.725
59858SOL    HW181471   7.278   6.625   8.796
59858SOL    HW281472   7.246   6.584   8.654
59859SOL     OW81473   5.549   6.271  10.651
59859SOL    HW181474   5.549   6.272  10.555
59859SOL    HW281475   5.635   6.237  10.676
59860SOL     OW81476   8.805   8.562   5.978
59860SOL    HW181477   8.806   8.595   5.888
59860SOL    HW281478   8.759   8.630   6.027
59861SOL     OW81479  12.335  10.816   4.748
59861SOL    HW181480  12.379  10.874   4.810
59861SOL    HW281481  12.244  10.812   4.778
59862SOL     OW81482  10.416   9.565   1.939
59862SOL    HW181483  10.509   9.550   1.918
59862SOL    HW281484  10.391   9.487   1.989
59863SOL     OW81485   3.817   9.851  11.748
59863SOL    HW181486   3.731   9.808  11.743
59863SOL    HW281487   3.802   9.938  11.709
59864SOL     OW81488  12.855   9.991  13.527
59864SOL    HW181489  12.785   9.989  13.593
59864SOL    HW281490  12.811   9.974  13.444
59865SOL     OW81491   2.713  14.071   0.796
59865SOL    HW181492   2.800  14.062   0.759
59865SOL    HW281493   2.660  14.108   0.725
59866SOL     OW81494   2.324   9.218   2.256
59866SOL    HW181495   2.391   9.152   2.272
59866SOL    HW281496   2.292   9.200   2.168
59867SOL     OW81497  13.966   4.520   5.068
59867SOL    HW181498  13.999   4.481   4.987
59867SOL    HW281499  13.874   4.540   5.049
59868SOL     OW81500   2.864   3.170   8.229
59868SOL    HW181501   2.928   3.121   8.176
59868SOL    HW281502   2.914   3.198   8.306
59869SOL     OW81503  13.178   5.812   3.824
59869SOL    HW181504  13.165   5.834   3.731
59869SOL    HW281505  13.150   5.721   3.831
59870SOL     OW81506   6.732   5.889   4.735
59870SOL    HW181507   6.703   5.797   4.736
59870SOL    HW281508   6.668   5.935   4.789
59871SOL     OW81509  13.456   5.413   9.009
59871SOL    HW181510  13.405   5.420   9.089
59871SOL    HW281511  13.531   5.359   9.033
59872SOL     OW81512   4.404   2.713   2.076
59872SOL    HW181513   4.447   2.758   2.149
59872SOL    HW281514   4.313   2.702   2.105
59873SOL     OW81515  12.182   6.882   5.953
59873SOL    HW181516  12.182   6.884   5.857
59873SOL    HW281517  12.136   6.962   5.979
59874SOL     OW81518  13.191   7.891   9.879
59874SOL    HW181519  13.273   7.922   9.918
59874SOL    HW281520  13.168   7.959   9.816
59875SOL     OW81521   9.915  10.067   5.975
59875SOL    HW181522   9.963  10.019   6.042
59875SOL    HW281523   9.827  10.030   5.977
59876SOL     OW81524   6.954   2.861  13.249
59876SOL    HW181525   6.919   2.827  13.332
59876SOL    HW281526   7.002   2.939  13.274
59877SOL     OW81527   5.107   9.960  13.305
59877SOL    HW181528   5.095  10.054  13.317
59877SOL    HW281529   5.167   9.935  13.376
59878SOL     OW81530  11.177   7.758   8.951
59878SOL    HW181531  11.183   7.746   9.046
59878SOL    HW281532  11.158   7.851   8.939
59879SOL     OW81533  14.391   9.618   2.696
59879SOL    HW181534  14.365   9.526   2.700
59879SOL    HW281535  14.336   9.662   2.761
59880SOL     OW81536   1.851   4.409   7.570
59880SOL    HW181537   1.913   4.357   7.519
59880SOL    HW281538   1.767   4.396   7.525
59881SOL     OW81539   1.434   2.691   5.974
59881SOL    HW181540   1.503   2.742   5.931
59881SOL    HW281541   1.395   2.639   5.904
59882SOL     OW81542   2.884   3.949   5.489
59882SOL    HW181543   2.877   3.903   5.405
59882SOL    HW281544   2.822   4.021   5.483
59883SOL     OW81545   0.333  11.476   3.354
59883SOL    HW181546   0.257  11.522   3.389
59883SOL    HW281547   0.306  11.384   3.349
59884SOL     OW81548   6.535  12.678   3.618
59884SOL    HW181549   6.598  12.700   3.549
59884SOL    HW281550   6.486  12.604   3.583
59885SOL     OW81551   0.745  12.056  10.580
59885SOL    HW181552   0.824  12.006  10.560
59885SOL    HW281553   0.678  11.989  10.593
59886SOL     OW81554  14.057   5.241  12.922
59886SOL    HW181555  14.105   5.180  12.978
59886SOL    HW281556  14.079   5.216  12.833
59887SOL     OW81557  13.734   5.272   8.644
59887SOL    HW181558  13.666   5.327   8.681
59887SOL    HW281559  13.804   5.332   8.620
59888SOL     OW81560   5.246   1.833   5.634
59888SOL    HW181561   5.266   1.910   5.581
59888SOL    HW281562   5.252   1.864   5.724
59889SOL     OW81563  13.561   5.206   3.892
59889SOL    HW181564  13.646   5.201   3.934
59889SOL    HW281565  13.502   5.240   3.960
59890SOL     OW81566  14.069  12.544   4.075
59890SOL    HW181567  14.046  12.502   4.157
59890SOL    HW281568  14.093  12.472   4.017
59891SOL     OW81569  11.014  13.898   9.417
59891SOL    HW181570  10.967  13.976   9.390
59891SOL    HW281571  10.952  13.849   9.471
59892SOL     OW81572  13.892  14.330  12.108
59892SOL    HW181573  13.932  14.246  12.085
59892SOL    HW281574  13.827  14.309  12.175
59893SOL     OW81575  14.876  12.531   2.396
59893SOL    HW181576  14.837  12.522   2.309
59893SOL    HW281577  14.853  12.449   2.441
59894SOL     OW81578   4.495   6.211   6.677
59894SOL    HW181579   4.545   6.273   6.729
59894SOL    HW281580   4.494   6.249   6.589
59895SOL     OW81581  10.693  12.970   8.158
59895SOL    HW181582  10.745  13.045   8.186
59895SOL    HW281583  10.678  12.920   8.238
59896SOL     OW81584   1.094   8.294  11.409
59896SOL    HW181585   1.030   8.349  11.454
59896SOL    HW281586   1.096   8.327  11.319
59897SOL     OW81587   3.328   7.643   5.007
59897SOL    HW181588   3.349   7.593   4.928
59897SOL    HW281589   3.306   7.576   5.072
59898SOL     OW81590   1.282   5.801  12.643
59898SOL    HW181591   1.282   5.893  12.670
59898SOL    HW281592   1.189   5.778  12.640
59899SOL     OW81593   0.550   3.631   1.389
59899SOL    HW181594   0.561   3.537   1.401
59899SOL    HW281595   0.463   3.641   1.350
59900SOL     OW81596  10.416   5.661   0.397
59900SOL    HW181597  10.431   5.677   0.304
59900SOL    HW281598  10.481   5.595   0.421
59901SOL     OW81599   6.166  11.657   7.826
59901SOL    HW181600   6.121  11.707   7.894
59901SOL    HW281601   6.164  11.714   7.750
59902SOL     OW81602  13.453   4.715  10.097
59902SOL    HW181603  13.445   4.801  10.057
59902SOL    HW281604  13.363   4.684  10.106
59903SOL     OW81605   4.279   7.592   5.872
59903SOL    HW181606   4.313   7.511   5.910
59903SOL    HW281607   4.188   7.596   5.900
59904SOL     OW81608   7.053   6.159   8.383
59904SOL    HW181609   7.056   6.231   8.320
59904SOL    HW281610   7.111   6.093   8.347
59905SOL     OW81611   2.779  12.004   2.585
59905SOL    HW181612   2.750  12.094   2.573
59905SOL    HW281613   2.788  11.994   2.680
59906SOL     OW81614   2.664   8.519   7.829
59906SOL    HW181615   2.630   8.431   7.845
59906SOL    HW281616   2.758   8.511   7.842
59907SOL     OW81617   6.512   9.897   8.263
59907SOL    HW181618   6.553   9.954   8.329
59907SOL    HW281619   6.479   9.958   8.197
59908SOL     OW81620   0.292   1.364   4.506
59908SOL    HW181621   0.328   1.453   4.504
59908SOL    HW281622   0.355   1.312   4.456
59909SOL     OW81623  10.661   1.961   8.455
59909SOL    HW181624  10.752   1.992   8.451
59909SOL    HW281625  10.669   1.866   8.444
59910SOL     OW81626   0.067   9.057   6.653
59910SOL    HW181627  14.859   9.054   6.640
59910SOL    HW281628   0.095   9.133   6.602
59911SOL     OW81629  12.414   7.781   7.500
59911SOL    HW181630  12.439   7.724   7.427
59911SOL    HW281631  12.437   7.869   7.472
59912SOL     OW81632   0.277   2.391   6.874
59912SOL    HW181633   0.283   2.432   6.787
59912SOL    HW281634   0.211   2.322   6.863
59913SOL     OW81635   0.627   6.277   9.604
59913SOL    HW181636   0.694   6.285   9.671
59913SOL    HW281637   0.668   6.222   9.536
59914SOL     OW81638   2.161  10.011   3.271
59914SOL    HW181639   2.158   9.985   3.179
59914SOL    HW281640   2.077  10.053   3.288
59915SOL     OW81641   8.674   2.119  12.091
59915SOL    HW181642   8.674   2.204  12.048
59915SOL    HW281643   8.737   2.067  12.040
59916SOL     OW81644   4.737   1.642   7.218
59916SOL    HW181645   4.657   1.613   7.262
59916SOL    HW281646   4.709   1.660   7.128
59917SOL     OW81647   7.509   2.421  14.332
59917SOL    HW181648   7.460   2.349  14.292
59917SOL    HW281649   7.488   2.415  14.425
59918SOL     OW81650   0.096   0.762   7.980
59918SOL    HW181651   0.052   0.678   7.967
59918SOL    HW281652   0.044   0.824   7.928
59919SOL     OW81653  13.980   8.122  12.544
59919SOL    HW181654  14.039   8.088  12.477
59919SOL    HW281655  13.951   8.045  12.593
59920SOL     OW81656  14.556  13.603   6.829
59920SOL    HW181657  14.645  13.606   6.795
59920SOL    HW281658  14.501  13.588   6.751
59921SOL     OW81659  10.170  11.287   2.616
59921SOL    HW181660  10.133  11.372   2.595
59921SOL    HW281661  10.265  11.301   2.614
59922SOL     OW81662   2.623   3.470   1.736
59922SOL    HW181663   2.714   3.443   1.745
59922SOL    HW281664   2.574   3.409   1.791
59923SOL     OW81665   9.810   2.144   9.341
59923SOL    HW181666   9.893   2.098   9.348
59923SOL    HW281667   9.826   2.230   9.380
59924SOL     OW81668  13.826  12.566   2.469
59924SOL    HW181669  13.867  12.623   2.404
59924SOL    HW281670  13.847  12.477   2.441
59925SOL     OW81671  11.848   3.402   7.891
59925SOL    HW181672  11.794   3.384   7.968
59925SOL    HW281673  11.938   3.394   7.922
59926SOL     OW81674  10.988   6.814   4.502
59926SOL    HW181675  10.903   6.822   4.546
59926SOL    HW281676  10.978   6.738   4.444
59927SOL     OW81677  14.827  14.539   3.304
59927SOL    HW181678  14.854  14.541   3.396
59927SOL    HW281679  14.852  14.452   3.274
59928SOL     OW81680  14.078   0.340   7.123
59928SOL    HW181681  14.084   0.292   7.206
59928SOL    HW281682  13.989   0.376   7.123
59929SOL     OW81683  12.672   9.984  11.820
59929SOL    HW181684  12.675  10.074  11.788
59929SOL    HW281685  12.746   9.977  11.880
59930SOL     OW81686  13.119   4.316   4.042
59930SOL    HW181687  13.050   4.383   4.052
59930SOL    HW281688  13.142   4.293   4.132
59931SOL     OW81689   8.189  10.118  14.138
59931SOL    HW181690   8.255  10.077  14.193
59931SOL    HW281691   8.182  10.060  14.062
59932SOL     OW81692   7.997   4.894  13.042
59932SOL    HW181693   8.042   4.856  12.967
59932SOL    HW281694   8.062   4.949  13.085
59933SOL     OW81695  13.080   3.044   8.119
59933SOL    HW181696  12.998   3.012   8.156
59933SOL    HW281697  13.069   3.035   8.024
59934SOL     OW81698   3.837   2.498  13.510
59934SOL    HW181699   3.871   2.546  13.435
59934SOL    HW281700   3.902   2.513  13.579
59935SOL     OW81701   7.422   3.519   5.628
59935SOL    HW181702   7.328   3.518   5.641
59935SOL    HW281703   7.448   3.426   5.631
59936SOL     OW81704   0.620   2.614  14.780
59936SOL    HW181705   0.626   2.545  14.847
59936SOL    HW281706   0.598   2.693  14.829
59937SOL     OW81707   6.670   1.692  13.227
59937SOL    HW181708   6.600   1.711  13.165
59937SOL    HW281709   6.724   1.771  13.227
59938SOL     OW81710   2.614   7.444  14.651
59938SOL    HW181711   2.693   7.415  14.696
59938SOL    HW281712   2.548   7.379  14.673
59939SOL     OW81713   5.511   9.274   9.383
59939SOL    HW181714   5.498   9.179   9.381
59939SOL    HW281715   5.432   9.310   9.343
59940SOL     OW81716   6.493  12.003   4.892
59940SOL    HW181717   6.513  11.922   4.939
59940SOL    HW281718   6.512  12.072   4.956
59941SOL     OW81719  11.278  14.395   1.560
59941SOL    HW181720  11.364  14.376   1.522
59941SOL    HW281721  11.215  14.358   1.498
59942SOL     OW81722   7.884  14.703  10.677
59942SOL    HW181723   7.887  14.782  10.623
59942SOL    HW281724   7.971  14.663  10.665
59943SOL     OW81725   8.351   8.594   7.984
59943SOL    HW181726   8.259   8.574   8.003
59943SOL    HW281727   8.376   8.532   7.916
59944SOL     OW81728   2.437   1.654   5.618
59944SOL    HW181729   2.525   1.673   5.649
59944SOL    HW281730   2.379   1.697   5.681
59945SOL     OW81731  10.422   3.205   2.209
59945SOL    HW181732  10.481   3.227   2.280
59945SOL    HW281733  10.460   3.127   2.168
59946SOL     OW81734   2.604   2.693   0.943
59946SOL    HW181735   2.594   2.612   0.992
59946SOL    HW281736   2.689   2.685   0.900
59947SOL     OW81737   7.179   7.985   9.316
59947SOL    HW181738   7.222   8.071   9.317
59947SOL    HW281739   7.222   7.938   9.244
59948SOL     OW81740  14.833  10.731  13.152
59948SOL    HW181741  14.768  10.799  13.135
59948SOL    HW281742   0.027  10.779  13.169
59949SOL     OW81743  13.802  10.184   4.366
59949SOL    HW181744  13.841  10.270   4.348
59949SOL    HW281745  13.733  10.202   4.430
59950SOL     OW81746  13.938   9.525   9.683
59950SOL    HW181747  13.852   9.502   9.649
59950SOL    HW281748  13.928   9.613   9.719
59951SOL     OW81749   4.597   2.135  10.224
59951SOL    HW181750   4.650   2.083  10.163
59951SOL    HW281751   4.660   2.173  10.285
59952SOL     OW81752   8.552   0.023   7.668
59952SOL    HW181753   8.615   0.013   7.739
59952SOL    HW281754   8.602   0.063   7.597
59953SOL     OW81755   3.573  11.134   6.621
59953SOL    HW181756   3.506  11.187   6.664
59953SOL    HW281757   3.562  11.046   6.657
59954SOL     OW81758   8.899   8.298   7.914
59954SOL    HW181759   8.810   8.276   7.887
59954SOL    HW281760   8.920   8.376   7.862
59955SOL     OW81761   4.165  14.607   1.676
59955SOL    HW181762   4.099  14.538   1.686
59955SOL    HW281763   4.212  14.583   1.596
59956SOL     OW81764   0.662   3.001   6.583
59956SOL    HW181765   0.735   3.049   6.543
59956SOL    HW281766   0.703   2.942   6.646
59957SOL     OW81767   1.611   2.569   5.293
59957SOL    HW181768   1.534   2.546   5.345
59957SOL    HW281769   1.596   2.528   5.209
59958SOL     OW81770  13.641  12.207  13.038
59958SOL    HW181771  13.623  12.193  13.131
59958SOL    HW281772  13.680  12.294  13.034
59959SOL     OW81773  14.277   0.638  14.238
59959SOL    HW181774  14.194   0.592  14.245
59959SOL    HW281775  14.332   0.599  14.306
59960SOL     OW81776  10.826   2.114   6.262
59960SOL    HW181777  10.872   2.197   6.274
59960SOL    HW281778  10.890   2.057   6.219
59961SOL     OW81779   4.248  14.582   7.250
59961SOL    HW181780   4.193  14.621   7.181
59961SOL    HW281781   4.278  14.500   7.212
59962SOL     OW81782   0.333   3.453   8.288
59962SOL    HW181783   0.343   3.523   8.353
59962SOL    HW281784   0.253   3.477   8.240
59963SOL     OW81785   6.562  13.539  11.101
59963SOL    HW181786   6.652  13.564  11.081
59963SOL    HW281787   6.532  13.604  11.164
59964SOL     OW81788  14.679   3.724   8.017
59964SOL    HW181789  14.715   3.636   8.011
59964SOL    HW281790  14.589   3.711   8.048
59965SOL     OW81791  11.893  14.135   7.358
59965SOL    HW181792  11.861  14.212   7.309
59965SOL    HW281793  11.865  14.060   7.305
59966SOL     OW81794  11.859   4.939   4.065
59966SOL    HW181795  11.844   4.983   3.981
59966SOL    HW281796  11.783   4.964   4.118
59967SOL     OW81797   9.249   9.831   4.817
59967SOL    HW181798   9.158   9.853   4.799
59967SOL    HW281799   9.244   9.753   4.872
59968SOL     OW81800  10.326  11.398   9.490
59968SOL    HW181801  10.230  11.399   9.485
59968SOL    HW281802  10.354  11.463   9.425
59969SOL     OW81803   4.424  11.650   8.741
59969SOL    HW181804   4.473  11.570   8.722
59969SOL    HW281805   4.447  11.710   8.670
59970SOL     OW81806   6.263  14.752   8.150
59970SOL    HW181807   6.283  14.670   8.194
59970SOL    HW281808   6.342  14.774   8.101
59971SOL     OW81809   5.285   4.722   2.761
59971SOL    HW181810   5.236   4.686   2.835
59971SOL    HW281811   5.349   4.654   2.739
59972SOL     OW81812   8.348  12.418   0.716
59972SOL    HW181813   8.263  12.380   0.695
59972SOL    HW281814   8.408  12.381   0.652
59973SOL     OW81815   4.723   2.651  10.221
59973SOL    HW181816   4.771   2.569  10.238
59973SOL    HW281817   4.668   2.662  10.298
59974SOL     OW81818   5.912  11.257   7.422
59974SOL    HW181819   5.870  11.332   7.465
59974SOL    HW281820   5.949  11.294   7.342
59975SOL     OW81821   4.946   8.609   6.708
59975SOL    HW181822   4.862   8.652   6.726
59975SOL    HW281823   4.980   8.585   6.794
59976SOL     OW81824  12.792   9.992   1.621
59976SOL    HW181825  12.709  10.040   1.613
59976SOL    HW281826  12.784   9.945   1.704
59977SOL     OW81827   6.277  14.589   6.691
59977SOL    HW181828   6.216  14.526   6.730
59977SOL    HW281829   6.240  14.605   6.604
59978SOL     OW81830   5.957   8.989   9.552
59978SOL    HW181831   6.048   9.014   9.539
59978SOL    HW281832   5.926   9.045   9.623
59979SOL     OW81833  14.235   3.731   4.859
59979SOL    HW181834  14.301   3.792   4.890
59979SOL    HW281835  14.163   3.739   4.923
59980SOL     OW81836   3.004   1.383   6.716
59980SOL    HW181837   2.934   1.355   6.658
59980SOL    HW281838   2.994   1.478   6.722
59981SOL     OW81839   0.217   5.495   5.983
59981SOL    HW181840   0.204   5.531   5.895
59981SOL    HW281841   0.295   5.441   5.975
59982SOL     OW81842   3.896   2.579   0.633
59982SOL    HW181843   3.814   2.618   0.603
59982SOL    HW281844   3.896   2.491   0.597
59983SOL     OW81845   4.874  10.294  14.619
59983SOL    HW181846   4.822  10.271  14.696
59983SOL    HW281847   4.934  10.220  14.608
59984SOL     OW81848   4.981   3.150   4.223
59984SOL    HW181849   4.960   3.187   4.137
59984SOL    HW281850   5.058   3.200   4.252
59985SOL     OW81851   6.098   5.004   0.397
59985SOL    HW181852   6.115   5.056   0.475
59985SOL    HW281853   6.005   5.018   0.378
59986SOL     OW81854   1.302   4.767   0.325
59986SOL    HW181855   1.315   4.796   0.416
59986SOL    HW281856   1.259   4.682   0.333
59987SOL     OW81857   9.817   1.723   8.139
59987SOL    HW181858   9.743   1.681   8.095
59987SOL    HW281859   9.784   1.808   8.166
59988SOL     OW81860  11.973   4.711  11.048
59988SOL    HW181861  11.996   4.678  11.135
59988SOL    HW281862  11.881   4.687  11.036
59989SOL     OW81863   3.112   6.451   3.317
59989SOL    HW181864   3.017   6.466   3.315
59989SOL    HW281865   3.125   6.370   3.269
59990SOL     OW81866  10.434   3.652   6.107
59990SOL    HW181867  10.492   3.586   6.068
59990SOL    HW281868  10.364   3.601   6.148
59991SOL     OW81869  14.014   5.503   3.011
59991SOL    HW181870  13.947   5.489   3.079
59991SOL    HW281871  14.062   5.580   3.040
59992SOL     OW81872   8.807   2.596  13.540
59992SOL    HW181873   8.882   2.536  13.550
59992SOL    HW281874   8.780   2.586  13.449
59993SOL     OW81875   9.643   3.796   7.616
59993SOL    HW181876   9.716   3.806   7.554
59993SOL    HW281877   9.668   3.722   7.671
59994SOL     OW81878  14.879  10.827  13.568
59994SOL    HW181879   0.016  10.738  13.543
59994SOL    HW281880  14.785  10.823  13.586
59995SOL     OW81881   9.859   8.353   0.717
59995SOL    HW181882   9.921   8.309   0.660
59995SOL    HW281883   9.852   8.442   0.681
59996SOL     OW81884   3.602  11.993  11.138
59996SOL    HW181885   3.621  11.923  11.076
59996SOL    HW281886   3.507  11.990  11.149
59997SOL     OW81887   9.968   8.284   5.699
59997SOL    HW181888   9.917   8.263   5.620
59997SOL    HW281889  10.058   8.261   5.677
59998SOL     OW81890   9.622   2.454  14.538
59998SOL    HW181891   9.605   2.361  14.550
59998SOL    HW281892   9.539   2.489  14.503
59999SOL     OW81893   1.138   3.302   0.754
59999SOL    HW181894   1.221   3.258   0.738
59999SOL    HW281895   1.114   3.275   0.843
60000SOL     OW81896   8.542  14.702   1.402
60000SOL    HW181897   8.494  14.784   1.408
60000SOL    HW281898   8.480  14.635   1.430
60001SOL     OW81899  10.498  12.553   8.605
60001SOL    HW181900  10.582  12.579   8.567
60001SOL    HW281901  10.434  12.564   8.535
60002SOL     OW81902  14.096  10.686   3.936
60002SOL    HW181903  14.019  10.670   3.991
60002SOL    HW281904  14.091  10.620   3.868
60003SOL     OW81905   8.302   5.997   8.615
60003SOL    HW181906   8.209   6.019   8.602
60003SOL    HW281907   8.334   5.980   8.526
60004SOL     OW81908   7.754   3.179  14.558
60004SOL    HW181909   7.695   3.252  14.579
60004SOL    HW281910   7.718   3.141  14.479
60005SOL     OW81911  14.524   6.086  13.492
60005SOL    HW181912  14.494   6.154  13.552
60005SOL    HW281913  14.454   6.021  13.492
60006SOL     OW81914   5.625  12.795   9.425
60006SOL    HW181915   5.620  12.839   9.341
60006SOL    HW281916   5.650  12.705   9.404
60007SOL     OW81917   0.984   4.540   0.086
60007SOL    HW181918   1.011   4.554   0.177
60007SOL    HW281919   1.027   4.458   0.060
60008SOL     OW81920   9.358   3.876   9.800
60008SOL    HW181921   9.411   3.810   9.756
60008SOL    HW281922   9.337   3.940   9.732
60009SOL     OW81923  13.155   5.134   8.736
60009SOL    HW181924  13.216   5.207   8.729
60009SOL    HW281925  13.190   5.080   8.807
60010SOL     OW81926   3.870   0.630  13.154
60010SOL    HW181927   3.784   0.657  13.122
60010SOL    HW281928   3.858   0.541  13.186
60011SOL     OW81929  14.879   3.087   7.079
60011SOL    HW181930  14.825   3.037   7.017
60011SOL    HW281931   0.081   3.067   7.053
60012SOL     OW81932   2.541  11.534   7.671
60012SOL    HW181933   2.585  11.561   7.752
60012SOL    HW281934   2.610  11.493   7.619
60013SOL     OW81935   8.645  10.277   9.716
60013SOL    HW181936   8.631  10.244   9.627
60013SOL    HW281937   8.582  10.348   9.725
60014SOL     OW81938   6.721   1.791  10.902
60014SOL    HW181939   6.760   1.843  10.832
60014SOL    HW281940   6.635   1.765  10.867
60015SOL     OW81941  14.757   7.756   8.274
60015SOL    HW181942  14.678   7.702   8.269
60015SOL    HW281943  14.726   7.846   8.267
60016SOL     OW81944   6.862   8.860   1.625
60016SOL    HW181945   6.854   8.810   1.706
60016SOL    HW281946   6.917   8.935   1.648
60017SOL     OW81947   3.369  14.788   7.509
60017SOL    HW181948   3.375  14.779   7.414
60017SOL    HW281949   3.410  14.709   7.543
60018SOL     OW81950  12.150  11.098   4.067
60018SOL    HW181951  12.183  11.011   4.092
60018SOL    HW281952  12.199  11.120   3.988
60019SOL     OW81953  10.551   4.861  11.114
60019SOL    HW181954  10.483   4.806  11.075
60019SOL    HW281955  10.520   4.877  11.204
60020SOL     OW81956  12.222   8.902   1.855
60020SOL    HW181957  12.156   8.833   1.862
60020SOL    HW281958  12.294   8.872   1.911
60021SOL     OW81959   0.643   8.798  10.986
60021SOL    HW181960   0.589   8.837  10.917
60021SOL    HW281961   0.582   8.777  11.056
60022SOL     OW81962   0.922   7.819   7.905
60022SOL    HW181963   0.923   7.776   7.820
60022SOL    HW281964   0.858   7.770   7.956
60023SOL     OW81965  12.285   0.142  13.338
60023SOL    HW181966  12.354   0.177  13.282
60023SOL    HW281967  12.223   0.214  13.348
60024SOL     OW81968   9.418   3.725  10.317
60024SOL    HW181969   9.392   3.771  10.397
60024SOL    HW281970   9.501   3.682  10.339
60025SOL     OW81971  14.590  12.127   6.104
60025SOL    HW181972  14.634  12.195   6.153
60025SOL    HW281973  14.502  12.121   6.142
60026SOL     OW81974   2.661   8.509  11.145
60026SOL    HW181975   2.649   8.604  11.143
60026SOL    HW281976   2.733   8.496  11.206
60027SOL     OW81977  10.541   4.410   2.006
60027SOL    HW181978  10.595   4.461   1.946
60027SOL    HW281979  10.604   4.367   2.064
60028SOL     OW81980   7.887  10.713   9.492
60028SOL    HW181981   7.914  10.679   9.577
60028SOL    HW281982   7.958  10.688   9.432
60029SOL     OW81983   1.908  12.909   7.566
60029SOL    HW181984   1.896  12.966   7.491
60029SOL    HW281985   1.945  12.828   7.529
60030SOL     OW81986   6.273   9.681   4.917
60030SOL    HW181987   6.352   9.695   4.865
60030SOL    HW281988   6.214   9.751   4.891
60031SOL     OW81989   8.145   5.261   4.744
60031SOL    HW181990   8.167   5.169   4.731
60031SOL    HW281991   8.075   5.278   4.681
60032SOL     OW81992   4.050  10.830  12.500
60032SOL    HW181993   3.971  10.881  12.514
60032SOL    HW281994   4.053  10.814  12.406
60033SOL     OW81995  12.783  13.530   0.286
60033SOL    HW181996  12.834  13.517   0.366
60033SOL    HW281997  12.693  13.536   0.316
60034SOL     OW81998  13.356  14.351   1.613
60034SOL    HW181999  13.347  14.270   1.562
60034SOL    HW282000  13.336  14.324   1.703
60035SOL     OW82001   0.473   4.077   6.255
60035SOL    HW182002   0.505   4.120   6.334
60035SOL    HW282003   0.540   4.011   6.235
60036SOL     OW82004   2.975   5.013  12.090
60036SOL    HW182005   2.912   4.946  12.062
60036SOL    HW282006   3.004   4.983  12.176
60037SOL     OW82007   8.219  11.542  10.912
60037SOL    HW182008   8.259  11.503  10.990
60037SOL    HW282009   8.144  11.591  10.945
60038SOL     OW82010   4.619   2.145  12.590
60038SOL    HW182011   4.630   2.124  12.497
60038SOL    HW282012   4.649   2.067  12.636
60039SOL     OW82013   1.564   6.787   8.666
60039SOL    HW182014   1.527   6.874   8.652
60039SOL    HW282015   1.499   6.727   8.630
60040SOL     OW82016   3.298   5.329  14.063
60040SOL    HW182017   3.253   5.310  13.981
60040SOL    HW282018   3.315   5.423  14.060
60041SOL     OW82019   2.677  12.543   6.157
60041SOL    HW182020   2.589  12.529   6.123
60041SOL    HW282021   2.687  12.478   6.227
60042SOL     OW82022   6.017  10.838   9.133
60042SOL    HW182023   5.986  10.830   9.223
60042SOL    HW282024   5.945  10.880   9.086
60043SOL     OW82025  12.281   6.337  13.999
60043SOL    HW182026  12.210   6.372  14.053
60043SOL    HW282027  12.324   6.272  14.054
60044SOL     OW82028   4.315  11.735   1.719
60044SOL    HW182029   4.364  11.805   1.675
60044SOL    HW282030   4.310  11.763   1.811
60045SOL     OW82031   3.050  14.019   4.887
60045SOL    HW182032   3.065  14.113   4.888
60045SOL    HW282033   2.961  14.008   4.855
60046SOL     OW82034   7.772   2.133   2.532
60046SOL    HW182035   7.771   2.079   2.454
60046SOL    HW282036   7.797   2.073   2.603
60047SOL     OW82037  10.082  10.464   4.387
60047SOL    HW182038  10.162  10.474   4.335
60047SOL    HW282039  10.051  10.553   4.401
60048SOL     OW82040   0.055  13.926   2.641
60048SOL    HW182041   0.106  13.890   2.568
60048SOL    HW282042  14.860  13.877   2.639
60049SOL     OW82043  13.813   1.181   4.318
60049SOL    HW182044  13.828   1.087   4.311
60049SOL    HW282045  13.722   1.189   4.344
60050SOL     OW82046   7.649  14.566  10.161
60050SOL    HW182047   7.650  14.574  10.256
60050SOL    HW282048   7.596  14.488  10.143
60051SOL     OW82049   6.338  14.052   9.208
60051SOL    HW182050   6.403  13.981   9.206
60051SOL    HW282051   6.377  14.118   9.264
60052SOL     OW82052   9.794   9.875   8.846
60052SOL    HW182053   9.838   9.928   8.780
60052SOL    HW282054   9.865   9.830   8.892
60053SOL     OW82055  10.280   4.099  13.550
60053SOL    HW182056  10.256   4.151  13.474
60053SOL    HW282057  10.374   4.116  13.562
60054SOL     OW82058   8.516  14.737   0.100
60054SOL    HW182059   8.592  14.769   0.051
60054SOL    HW282060   8.552  14.674   0.162
60055SOL     OW82061   2.336   5.529   3.653
60055SOL    HW182062   2.286   5.586   3.712
60055SOL    HW282063   2.425   5.532   3.688
60056SOL     OW82064   5.726   3.470  11.721
60056SOL    HW182065   5.702   3.482  11.630
60056SOL    HW282066   5.657   3.414  11.758
60057SOL     OW82067   9.333   0.306   1.943
60057SOL    HW182068   9.308   0.369   2.011
60057SOL    HW282069   9.397   0.249   1.984
60058SOL     OW82070   0.797  11.706   6.784
60058SOL    HW182071   0.826  11.639   6.846
60058SOL    HW282072   0.854  11.696   6.708
60059SOL     OW82073   8.292   1.125   9.528
60059SOL    HW182074   8.301   1.220   9.528
60059SOL    HW282075   8.256   1.104   9.442
60060SOL     OW82076  13.765   9.586   1.459
60060SOL    HW182077  13.696   9.603   1.523
60060SOL    HW282078  13.747   9.498   1.426
60061SOL     OW82079   2.331   7.711   3.048
60061SOL    HW182080   2.424   7.734   3.044
60061SOL    HW282081   2.330   7.618   3.073
60062SOL     OW82082  12.084   2.753  12.597
60062SOL    HW182083  12.133   2.754  12.514
60062SOL    HW282084  12.098   2.841  12.633
60063SOL     OW82085   6.517   1.030   9.744
60063SOL    HW182086   6.520   1.026   9.839
60063SOL    HW282087   6.491   1.120   9.724
60064SOL     OW82088   9.230   2.259   8.552
60064SOL    HW182089   9.214   2.349   8.525
60064SOL    HW282090   9.165   2.243   8.621
60065SOL     OW82091   1.970  14.639   5.943
60065SOL    HW182092   2.053  14.599   5.916
60065SOL    HW282093   1.969  14.632   6.038
60066SOL     OW82094   3.444   9.401   4.467
60066SOL    HW182095   3.422   9.493   4.451
60066SOL    HW282096   3.400   9.353   4.396
60067SOL     OW82097   3.793   9.783   9.597
60067SOL    HW182098   3.711   9.733   9.591
60067SOL    HW282099   3.856   9.722   9.634
60068SOL     OW82100   2.270   8.900   4.354
60068SOL    HW182101   2.249   8.857   4.437
60068SOL    HW282102   2.366   8.898   4.350
60069SOL     OW82103   3.139  14.038   7.284
60069SOL    HW182104   3.046  14.016   7.287
60069SOL    HW282105   3.181  13.974   7.341
60070SOL     OW82106  14.522   3.021   4.799
60070SOL    HW182107  14.474   2.954   4.751
60070SOL    HW282108  14.561   2.974   4.873
60071SOL     OW82109  11.279   4.361  13.031
60071SOL    HW182110  11.314   4.399  12.950
60071SOL    HW282111  11.260   4.436  13.087
60072SOL     OW82112   0.009   3.110   4.246
60072SOL    HW182113   0.040   3.049   4.313
60072SOL    HW282114  14.822   3.066   4.205
60073SOL     OW82115  11.373  14.394   0.224
60073SOL    HW182116  11.311  14.450   0.178
60073SOL    HW282117  11.374  14.313   0.174
60074SOL     OW82118   7.130  14.710  14.163
60074SOL    HW182119   7.111  14.739  14.252
60074SOL    HW282120   7.220  14.739  14.147
60075SOL     OW82121  12.827   7.246   1.080
60075SOL    HW182122  12.901   7.232   1.021
60075SOL    HW282123  12.817   7.341   1.085
60076SOL     OW82124   6.204  12.810   3.395
60076SOL    HW182125   6.170  12.878   3.453
60076SOL    HW282126   6.161  12.730   3.425
60077SOL     OW82127  14.279   2.935   9.436
60077SOL    HW182128  14.353   2.935   9.375
60077SOL    HW282129  14.259   3.027   9.449
60078SOL     OW82130   2.986  10.341   1.706
60078SOL    HW182131   2.891  10.330   1.702
60078SOL    HW282132   3.000  10.406   1.775
60079SOL     OW82133  12.266   8.192   2.264
60079SOL    HW182134  12.332   8.247   2.223
60079SOL    HW282135  12.183   8.235   2.245
60080SOL     OW82136   2.329  14.881   1.155
60080SOL    HW182137   2.276   0.045   1.094
60080SOL    HW282138   2.323   0.042   1.237
60081SOL     OW82139   9.971  12.827  13.659
60081SOL    HW182140  10.044  12.789  13.611
60081SOL    HW282141  10.001  12.913  13.687
60082SOL     OW82142   1.509   4.555   0.946
60082SOL    HW182143   1.599   4.554   0.978
60082SOL    HW282144   1.461   4.603   1.014
60083SOL     OW82145  12.471   4.800   3.952
60083SOL    HW182146  12.546   4.844   3.992
60083SOL    HW282147  12.481   4.815   3.858
60084SOL     OW82148   7.438   3.666   2.270
60084SOL    HW182149   7.438   3.739   2.208
60084SOL    HW282150   7.473   3.704   2.351
60085SOL     OW82151  11.705   2.968  13.106
60085SOL    HW182152  11.768   2.905  13.143
60085SOL    HW282153  11.628   2.961  13.163
60086SOL     OW82154  14.714   8.571   0.042
60086SOL    HW182155  14.756   8.512  14.867
60086SOL    HW282156  14.676   8.514   0.108
60087SOL     OW82157  12.917   0.597   9.506
60087SOL    HW182158  12.950   0.679   9.543
60087SOL    HW282159  12.823   0.599   9.521
60088SOL     OW82160   3.942  11.201  11.967
60088SOL    HW182161   3.932  11.219  11.873
60088SOL    HW282162   4.001  11.269  11.998
60089SOL     OW82163   7.984  11.421   9.469
60089SOL    HW182164   8.070  11.409   9.510
60089SOL    HW282165   7.999  11.489   9.403
60090SOL     OW82166   2.632   5.170  11.715
60090SOL    HW182167   2.632   5.078  11.742
60090SOL    HW282168   2.560   5.210  11.763
60091SOL     OW82169   7.749   2.729   1.357
60091SOL    HW182170   7.804   2.664   1.400
60091SOL    HW282171   7.748   2.703   1.265
60092SOL     OW82172   4.082   9.411   6.896
60092SOL    HW182173   4.008   9.376   6.946
60092SOL    HW282174   4.059   9.395   6.805
60093SOL     OW82175   7.388   3.990   7.628
60093SOL    HW182176   7.420   4.051   7.561
60093SOL    HW282177   7.347   3.919   7.579
60094SOL     OW82178   9.832   1.784   3.526
60094SOL    HW182179   9.820   1.787   3.621
60094SOL    HW282180   9.926   1.769   3.514
60095SOL     OW82181   7.100   8.187  14.100
60095SOL    HW182182   7.102   8.190  14.196
60095SOL    HW282183   7.038   8.255  14.076
60096SOL     OW82184  11.973   4.000   5.373
60096SOL    HW182185  12.019   3.997   5.457
60096SOL    HW282186  11.892   4.048   5.392
60097SOL     OW82187   2.312  13.451   3.528
60097SOL    HW182188   2.337  13.480   3.616
60097SOL    HW282189   2.235  13.503   3.507
60098SOL     OW82190  11.112   4.893   3.683
60098SOL    HW182191  11.114   4.988   3.685
60098SOL    HW282192  11.028   4.871   3.644
60099SOL     OW82193   3.933   6.724   2.806
60099SOL    HW182194   4.014   6.694   2.847
60099SOL    HW282195   3.917   6.810   2.845
60100SOL     OW82196   6.578  14.096  14.778
60100SOL    HW182197   6.520  14.021  14.790
60100SOL    HW282198   6.657  14.073  14.828
60101SOL     OW82199  11.261   4.073   7.382
60101SOL    HW182200  11.290   4.035   7.465
60101SOL    HW282201  11.308   4.023   7.315
60102SOL     OW82202   7.177   4.200   8.125
60102SOL    HW182203   7.253   4.210   8.183
60102SOL    HW282204   7.102   4.196   8.184
60103SOL     OW82205   3.177   3.067   7.278
60103SOL    HW182206   3.241   3.097   7.213
60103SOL    HW282207   3.230   3.045   7.355
60104SOL     OW82208  13.007   4.983   8.543
60104SOL    HW182209  12.971   4.905   8.585
60104SOL    HW282210  13.018   5.045   8.615
60105SOL     OW82211  11.513   8.524   3.632
60105SOL    HW182212  11.507   8.489   3.721
60105SOL    HW282213  11.422   8.547   3.609
60106SOL     OW82214   6.856   0.549   4.688
60106SOL    HW182215   6.848   0.484   4.618
60106SOL    HW282216   6.831   0.631   4.647
60107SOL     OW82217   2.121   1.855  13.539
60107SOL    HW182218   2.175   1.924  13.500
60107SOL    HW282219   2.106   1.793  13.467
60108SOL     OW82220   3.765  14.381  12.008
60108SOL    HW182221   3.700  14.318  12.039
60108SOL    HW282222   3.741  14.397  11.917
60109SOL     OW82223   6.405  11.648  14.319
60109SOL    HW182224   6.386  11.716  14.383
60109SOL    HW282225   6.500  11.647  14.312
60110SOL     OW82226   5.961  10.640  13.183
60110SOL    HW182227   5.991  10.727  13.209
60110SOL    HW282228   5.984  10.584  13.257
60111SOL     OW82229  14.301  12.446   6.214
60111SOL    HW182230  14.342  12.460   6.300
60111SOL    HW282231  14.375  12.430   6.156
60112SOL     OW82232   7.401   9.427  12.060
60112SOL    HW182233   7.412   9.349  12.115
60112SOL    HW282234   7.489   9.446  12.028
60113SOL     OW82235  14.374   8.682   8.515
60113SOL    HW182236  14.354   8.637   8.597
60113SOL    HW282237  14.403   8.769   8.542
60114SOL     OW82238   2.078   9.217   0.785
60114SOL    HW182239   2.037   9.133   0.764
60114SOL    HW282240   2.008   9.269   0.823
60115SOL     OW82241  12.987  11.913  14.819
60115SOL    HW182242  12.949  11.976  14.758
60115SOL    HW282243  12.915  11.891  14.878
60116SOL     OW82244   1.773   8.832   9.302
60116SOL    HW182245   1.762   8.738   9.288
60116SOL    HW282246   1.847   8.839   9.361
60117SOL     OW82247   2.885   0.783   8.293
60117SOL    HW182248   2.917   0.695   8.309
60117SOL    HW282249   2.952   0.824   8.238
60118SOL     OW82250  11.495   5.157  10.375
60118SOL    HW182251  11.533   5.197  10.297
60118SOL    HW282252  11.408   5.129  10.347
60119SOL     OW82253   1.549   3.996   0.673
60119SOL    HW182254   1.464   3.982   0.714
60119SOL    HW282255   1.588   3.909   0.669
60120SOL     OW82256   7.699  13.377   3.968
60120SOL    HW182257   7.736  13.441   3.908
60120SOL    HW282258   7.604  13.388   3.959
60121SOL     OW82259   6.914  12.290   8.037
60121SOL    HW182260   6.899  12.382   8.060
60121SOL    HW282261   6.827  12.251   8.033
60122SOL     OW82262   2.571   5.124  13.175
60122SOL    HW182263   2.585   5.219  13.173
60122SOL    HW282264   2.637   5.089  13.116
60123SOL     OW82265  10.558   6.315   6.420
60123SOL    HW182266  10.584   6.359   6.339
60123SOL    HW282267  10.480   6.265   6.396
60124SOL     OW82268  11.453   6.471   1.769
60124SOL    HW182269  11.546   6.451   1.752
60124SOL    HW282270  11.423   6.397   1.821
60125SOL     OW82271   2.359   4.066   4.116
60125SOL    HW182272   2.407   3.987   4.142
60125SOL    HW282273   2.424   4.120   4.071
60126SOL     OW82274   1.405   9.629   5.906
60126SOL    HW182275   1.422   9.705   5.850
60126SOL    HW282276   1.432   9.656   5.993
60127SOL     OW82277   6.967   5.990   2.883
60127SOL    HW182278   6.895   6.053   2.889
60127SOL    HW282279   7.040   6.040   2.849
60128SOL     OW82280   9.385   5.529  11.228
60128SOL    HW182281   9.304   5.540  11.179
60128SOL    HW282282   9.363   5.467  11.297
60129SOL     OW82283  10.726   7.554  11.818
60129SOL    HW182284  10.694   7.631  11.772
60129SOL    HW282285  10.794   7.518  11.760
60130SOL     OW82286   5.216  12.434   1.590
60130SOL    HW182287   5.236  12.462   1.501
60130SOL    HW282288   5.121  12.434   1.595
60131SOL     OW82289   4.036   3.063   6.687
60131SOL    HW182290   4.043   3.133   6.622
60131SOL    HW282291   3.989   2.993   6.642
60132SOL     OW82292   1.001  13.517   0.582
60132SOL    HW182293   1.077  13.531   0.525
60132SOL    HW282294   1.026  13.557   0.665
60133SOL     OW82295   7.317   7.221   1.804
60133SOL    HW182296   7.354   7.309   1.790
60133SOL    HW282297   7.360   7.166   1.739
60134SOL     OW82298  13.573  13.226  10.259
60134SOL    HW182299  13.615  13.206  10.343
60134SOL    HW282300  13.644  13.256  10.203
60135SOL     OW82301   1.646  14.003  14.565
60135SOL    HW182302   1.581  13.939  14.597
60135SOL    HW282303   1.719  13.995  14.627
60136SOL     OW82304   5.805   5.176   4.836
60136SOL    HW182305   5.732   5.126   4.798
60136SOL    HW282306   5.834   5.122   4.910
60137SOL     OW82307   8.816   1.654   1.898
60137SOL    HW182308   8.888   1.592   1.907
60137SOL    HW282309   8.837   1.725   1.959
60138SOL     OW82310   0.325   7.159   0.552
60138SOL    HW182311   0.412   7.127   0.528
60138SOL    HW282312   0.329   7.169   0.647
60139SOL     OW82313  10.930  12.319  12.279
60139SOL    HW182314  10.954  12.408  12.252
60139SOL    HW282315  11.011  12.269  12.276
60140SOL     OW82316   5.565   0.785  14.755
60140SOL    HW182317   5.472   0.788  14.781
60140SOL    HW282318   5.598   0.705  14.796
60141SOL     OW82319   8.269   7.866  12.214
60141SOL    HW182320   8.230   7.944  12.253
60141SOL    HW282321   8.352   7.896  12.178
60142SOL     OW82322   8.637   9.847  12.009
60142SOL    HW182323   8.688   9.912  12.058
60142SOL    HW282324   8.618   9.778  12.073
60143SOL     OW82325   5.882   2.158  11.508
60143SOL    HW182326   5.817   2.165  11.578
60143SOL    HW282327   5.852   2.084  11.456
60144SOL     OW82328  12.205   3.496  13.845
60144SOL    HW182329  12.248   3.435  13.905
60144SOL    HW282330  12.276   3.540  13.799
60145SOL     OW82331   2.435   3.301   0.067
60145SOL    HW182332   2.367   3.309  14.887
60145SOL    HW282333   2.393   3.254   0.138
60146SOL     OW82334   5.842   2.361   7.781
60146SOL    HW182335   5.818   2.317   7.700
60146SOL    HW282336   5.858   2.452   7.756
60147SOL     OW82337   0.302   4.022   5.110
60147SOL    HW182338   0.251   4.011   5.190
60147SOL    HW282339   0.299   4.116   5.093
60148SOL     OW82340   5.315  11.073   2.946
60148SOL    HW182341   5.343  11.017   3.018
60148SOL    HW282342   5.255  11.018   2.895
60149SOL     OW82343   2.435   8.176   9.162
60149SOL    HW182344   2.359   8.187   9.104
60149SOL    HW282345   2.463   8.266   9.181
60150SOL     OW82346  13.889   0.261  14.550
60150SOL    HW182347  13.877   0.174  14.514
60150SOL    HW282348  13.920   0.246  14.639
60151SOL     OW82349   7.486   2.802   3.090
60151SOL    HW182350   7.414   2.849   3.131
60151SOL    HW282351   7.564   2.855   3.108
60152SOL     OW82352   2.804   7.979   0.537
60152SOL    HW182353   2.857   7.988   0.616
60152SOL    HW282354   2.866   7.945   0.471
60153SOL     OW82355   4.974   3.424  14.051
60153SOL    HW182356   4.891   3.414  14.098
60153SOL    HW282357   4.948   3.460  13.965
60154SOL     OW82358   0.789   1.557  12.416
60154SOL    HW182359   0.852   1.556  12.488
60154SOL    HW282360   0.720   1.496  12.445
60155SOL     OW82361  10.194   3.409  14.078
60155SOL    HW182362  10.253   3.481  14.101
60155SOL    HW282363  10.156   3.436  13.994
60156SOL     OW82364  11.036  14.832  11.588
60156SOL    HW182365  10.990  14.753  11.560
60156SOL    HW282366  11.081  14.806  11.668
60157SOL     OW82367   5.142   4.513   7.316
60157SOL    HW182368   5.236   4.499   7.303
60157SOL    HW282369   5.108   4.425   7.332
60158SOL     OW82370  10.488  12.164  12.217
60158SOL    HW182371  10.530  12.110  12.284
60158SOL    HW282372  10.523  12.131  12.134
60159SOL     OW82373   9.718  11.181  14.528
60159SOL    HW182374   9.774  11.250  14.492
60159SOL    HW282375   9.778  11.114  14.559
60160SOL     OW82376   9.074   4.133   8.205
60160SOL    HW182377   9.116   4.051   8.179
60160SOL    HW282378   9.052   4.176   8.121
60161SOL     OW82379   6.724   6.473   5.091
60161SOL    HW182380   6.771   6.553   5.065
60161SOL    HW282381   6.736   6.468   5.186
60162SOL     OW82382   4.834   2.028   5.045
60162SOL    HW182383   4.799   2.003   5.131
60162SOL    HW282384   4.797   1.964   4.985
60163SOL     OW82385  10.195   7.394   7.583
60163SOL    HW182386  10.239   7.348   7.655
60163SOL    HW282387  10.106   7.410   7.616
60164SOL     OW82388  11.778   0.852  14.747
60164SOL    HW182389  11.866   0.836  14.714
60164SOL    HW282390  11.759   0.944  14.724
60165SOL     OW82391   3.379  11.889   5.210
60165SOL    HW182392   3.458  11.836   5.206
60165SOL    HW282393   3.322  11.853   5.143
60166SOL     OW82394   0.505   6.918   8.725
60166SOL    HW182395   0.593   6.881   8.727
60166SOL    HW282396   0.501   6.967   8.643
60167SOL     OW82397   1.248  13.923   5.378
60167SOL    HW182398   1.269  13.832   5.358
60167SOL    HW282399   1.322  13.973   5.344
60168SOL     OW82400  14.697   5.075   3.624
60168SOL    HW182401  14.667   5.042   3.709
60168SOL    HW282402  14.664   5.165   3.620
60169SOL     OW82403   2.547  13.392  13.246
60169SOL    HW182404   2.548  13.487  13.235
60169SOL    HW282405   2.461  13.373  13.284
60170SOL     OW82406   3.561   8.800   4.723
60170SOL    HW182407   3.520   8.858   4.788
60170SOL    HW282408   3.602   8.859   4.660
60171SOL     OW82409   6.230  13.072  10.851
60171SOL    HW182410   6.237  13.167  10.848
60171SOL    HW282411   6.276  13.047  10.931
60172SOL     OW82412   2.214   3.929   0.155
60172SOL    HW182413   2.213   3.891   0.243
60172SOL    HW282414   2.194   4.022   0.168
60173SOL     OW82415   1.429   2.003   6.335
60173SOL    HW182416   1.463   2.089   6.308
60173SOL    HW282417   1.500   1.942   6.316
60174SOL     OW82418  14.864  11.689   9.280
60174SOL    HW182419   0.012  11.710   9.193
60174SOL    HW282420   0.032  11.739   9.341
60175SOL     OW82421   3.319   6.753  13.297
60175SOL    HW182422   3.382   6.719  13.361
60175SOL    HW282423   3.334   6.701  13.218
60176SOL     OW82424   4.255  11.162   5.873
60176SOL    HW182425   4.166  11.172   5.838
60176SOL    HW282426   4.311  11.200   5.805
60177SOL     OW82427   2.289   5.743  14.805
60177SOL    HW182428   2.194   5.733  14.805
60177SOL    HW282429   2.320   5.682  14.872
60178SOL     OW82430   8.526   0.417   5.372
60178SOL    HW182431   8.523   0.322   5.362
60178SOL    HW282432   8.547   0.450   5.284
60179SOL     OW82433  11.952   9.454  11.575
60179SOL    HW182434  12.048   9.453  11.578
60179SOL    HW282435  11.927   9.510  11.648
60180SOL     OW82436  10.346   6.037  14.337
60180SOL    HW182437  10.394   6.109  14.378
60180SOL    HW282438  10.342   6.060  14.245
60181SOL     OW82439   9.931   1.034   5.118
60181SOL    HW182440   9.930   0.999   5.028
60181SOL    HW282441   9.875   1.111   5.114
60182SOL     OW82442   5.678   2.697   7.439
60182SOL    HW182443   5.629   2.775   7.464
60182SOL    HW282444   5.769   2.726   7.435
60183SOL     OW82445   1.657   8.692  14.653
60183SOL    HW182446   1.702   8.723  14.731
60183SOL    HW282447   1.566   8.680  14.681
60184SOL     OW82448   8.632   7.632   8.249
60184SOL    HW182449   8.572   7.649   8.322
60184SOL    HW282450   8.682   7.713   8.241
60185SOL     OW82451  14.484  10.862   0.797
60185SOL    HW182452  14.444  10.890   0.715
60185SOL    HW282453  14.475  10.937   0.856
60186SOL     OW82454   8.683   1.857   3.876
60186SOL    HW182455   8.647   1.939   3.911
60186SOL    HW282456   8.662   1.860   3.783
60187SOL     OW82457   4.015   4.753   2.230
60187SOL    HW182458   4.105   4.726   2.245
60187SOL    HW282459   4.019   4.811   2.154
60188SOL     OW82460   7.734   0.439   7.655
60188SOL    HW182461   7.767   0.528   7.662
60188SOL    HW282462   7.690   0.423   7.739
60189SOL     OW82463  10.554   3.137  11.539
60189SOL    HW182464  10.551   3.062  11.479
60189SOL    HW282465  10.545   3.098  11.626
60190SOL     OW82466  12.396   4.753   6.356
60190SOL    HW182467  12.420   4.811   6.429
60190SOL    HW282468  12.436   4.669   6.377
60191SOL     OW82469   8.365  12.806  14.488
60191SOL    HW182470   8.282  12.845  14.461
60191SOL    HW282471   8.361  12.716  14.457
60192SOL     OW82472   3.973   7.923   3.979
60192SOL    HW182473   4.056   7.935   3.934
60192SOL    HW282474   3.907   7.920   3.910
60193SOL     OW82475  13.889  10.065  12.795
60193SOL    HW182476  13.943   9.992  12.826
60193SOL    HW282477  13.811  10.023  12.760
60194SOL     OW82478   6.011   0.470  10.876
60194SOL    HW182479   5.916   0.474  10.879
60194SOL    HW282480   6.031   0.377  10.866
60195SOL     OW82481   0.313   9.108   5.433
60195SOL    HW182482   0.291   9.068   5.349
60195SOL    HW282483   0.305   9.202   5.418
60196SOL     OW82484   7.775   8.395   8.847
60196SOL    HW182485   7.751   8.315   8.894
60196SOL    HW282486   7.692   8.435   8.823
60197SOL     OW82487  10.612  12.580   7.659
60197SOL    HW182488  10.530  12.565   7.707
60197SOL    HW282489  10.647  12.492   7.644
60198SOL     OW82490   7.949   2.683   8.122
60198SOL    HW182491   7.967   2.749   8.189
60198SOL    HW282492   8.032   2.636   8.112
60199SOL     OW82493  14.362   7.286  12.243
60199SOL    HW182494  14.368   7.308  12.336
60199SOL    HW282495  14.388   7.194  12.238
60200SOL     OW82496   4.106   4.439   2.476
60200SOL    HW182497   4.140   4.354   2.503
60200SOL    HW282498   4.078   4.427   2.386
60201SOL     OW82499  13.254  13.210  13.551
60201SOL    HW182500  13.301  13.290  13.529
60201SOL    HW282501  13.164  13.239  13.569
60202SOL     OW82502   0.085   7.636   5.811
60202SOL    HW182503   0.047   7.566   5.864
60202SOL    HW282504   0.132   7.590   5.742
60203SOL     OW82505  10.913   5.076   1.360
60203SOL    HW182506  10.940   5.152   1.410
60203SOL    HW282507  10.954   5.088   1.274
60204SOL     OW82508   9.544  12.825  12.399
60204SOL    HW182509   9.465  12.813  12.346
60204SOL    HW282510   9.537  12.915  12.432
60205SOL     OW82511   3.094   0.497  12.590
60205SOL    HW182512   3.132   0.471  12.506
60205SOL    HW282513   3.025   0.559  12.567
60206SOL     OW82514  12.196  13.689  11.798
60206SOL    HW182515  12.212  13.660  11.888
60206SOL    HW282516  12.284  13.705  11.763
60207SOL     OW82517   5.644   5.638   5.642
60207SOL    HW182518   5.734   5.631   5.611
60207SOL    HW282519   5.600   5.561   5.605
60208SOL     OW82520   6.771  10.358   4.279
60208SOL    HW182521   6.730  10.404   4.352
60208SOL    HW282522   6.728  10.393   4.201
60209SOL     OW82523   7.665   7.387  14.702
60209SOL    HW182524   7.576   7.351  14.708
60209SOL    HW282525   7.717   7.314  14.668
60210SOL     OW82526   0.627   7.357  12.183
60210SOL    HW182527   0.682   7.410  12.125
60210SOL    HW282528   0.538   7.369  12.149
60211SOL     OW82529  13.444   1.269  10.992
60211SOL    HW182530  13.353   1.297  10.989
60211SOL    HW282531  13.442   1.180  11.026
60212SOL     OW82532   7.688   3.456  11.452
60212SOL    HW182533   7.648   3.491  11.373
60212SOL    HW282534   7.744   3.385  11.422
60213SOL     OW82535   1.194   9.969  11.994
60213SOL    HW182536   1.238  10.052  12.012
60213SOL    HW282537   1.266   9.906  11.986
60214SOL     OW82538   6.482  12.857  13.509
60214SOL    HW182539   6.566  12.811  13.510
60214SOL    HW282540   6.475  12.898  13.596
60215SOL     OW82541   4.445   0.767   2.519
60215SOL    HW182542   4.396   0.687   2.501
60215SOL    HW282543   4.382   0.825   2.562
60216SOL     OW82544   6.224   2.725   0.752
60216SOL    HW182545   6.253   2.814   0.775
60216SOL    HW282546   6.305   2.674   0.748
60217SOL     OW82547   3.032   7.794   9.267
60217SOL    HW182548   2.970   7.780   9.194
60217SOL    HW282549   3.034   7.889   9.279
60218SOL     OW82550   4.587   3.850  13.065
60218SOL    HW182551   4.652   3.888  13.007
60218SOL    HW282552   4.623   3.864  13.153
60219SOL     OW82553  12.360   3.352  14.737
60219SOL    HW182554  12.278   3.305  14.724
60219SOL    HW282555  12.406   3.343  14.654
60220SOL     OW82556  11.435   0.261  13.198
60220SOL    HW182557  11.436   0.173  13.236
60220SOL    HW282558  11.518   0.300  13.226
60221SOL     OW82559   8.597   8.251  13.957
60221SOL    HW182560   8.520   8.299  13.988
60221SOL    HW282561   8.560   8.176  13.909
60222SOL     OW82562   4.120   4.752   5.658
60222SOL    HW182563   4.168   4.734   5.578
60222SOL    HW282564   4.140   4.843   5.678
60223SOL     OW82565   6.883   8.805   5.481
60223SOL    HW182566   6.952   8.789   5.545
60223SOL    HW282567   6.925   8.792   5.396
60224SOL     OW82568   4.980   3.284   3.979
60224SOL    HW182569   4.969   3.286   3.884
60224SOL    HW282570   5.075   3.278   3.991
60225SOL     OW82571   6.389   0.213   1.908
60225SOL    HW182572   6.483   0.211   1.926
60225SOL    HW282573   6.351   0.254   1.986
60226SOL     OW82574   6.985   3.863  13.717
60226SOL    HW182575   7.008   3.849  13.809
60226SOL    HW282576   6.949   3.778  13.688
60227SOL     OW82577   0.958  14.610  12.128
60227SOL    HW182578   0.898  14.615  12.054
60227SOL    HW282579   0.902  14.623  12.205
60228SOL     OW82580  14.002   3.228   8.297
60228SOL    HW182581  13.948   3.202   8.222
60228SOL    HW282582  14.009   3.148   8.350
60229SOL     OW82583  10.744  14.244  11.915
60229SOL    HW182584  10.708  14.156  11.902
60229SOL    HW282585  10.674  14.293  11.958
60230SOL     OW82586  14.277   2.600   5.032
60230SOL    HW182587  14.292   2.587   5.126
60230SOL    HW282588  14.224   2.680   5.027
60231SOL     OW82589   1.964  13.663   5.114
60231SOL    HW182590   1.990  13.579   5.152
60231SOL    HW282591   1.929  13.641   5.028
60232SOL     OW82592  14.307  12.651   4.137
60232SOL    HW182593  14.361  12.583   4.178
60232SOL    HW282594  14.222  12.608   4.123
60233SOL     OW82595   7.407   6.485  12.603
60233SOL    HW182596   7.339   6.418  12.607
60233SOL    HW282597   7.443   6.487  12.692
60234SOL     OW82598  14.503  12.327  11.781
60234SOL    HW182599  14.477  12.257  11.842
60234SOL    HW282600  14.565  12.284  11.721
60235SOL     OW82601   4.214  12.613   9.109
60235SOL    HW182602   4.279  12.681   9.126
60235SOL    HW282603   4.142  12.659   9.065
60236SOL     OW82604  12.409   0.033   3.446
60236SOL    HW182605  12.492   0.026   3.494
60236SOL    HW282606  12.435   0.061   3.358
60237SOL     OW82607   6.728  14.123   9.192
60237SOL    HW182608   6.772  14.084   9.116
60237SOL    HW282609   6.796  14.171   9.238
60238SOL     OW82610  12.842   2.781   1.709
60238SOL    HW182611  12.758   2.827   1.720
60238SOL    HW282612  12.888   2.832   1.641
60239SOL     OW82613   9.577   3.439   3.394
60239SOL    HW182614   9.560   3.353   3.431
60239SOL    HW282615   9.498   3.489   3.412
60240SOL     OW82616  12.760   2.441   8.563
60240SOL    HW182617  12.810   2.466   8.485
60240SOL    HW282618  12.677   2.408   8.529
60241SOL     OW82619  13.149   0.333   2.517
60241SOL    HW182620  13.062   0.308   2.547
60241SOL    HW282621  13.191   0.250   2.493
60242SOL     OW82622   3.092  11.859  12.364
60242SOL    HW182623   3.115  11.903  12.446
60242SOL    HW282624   3.042  11.925  12.316
60243SOL     OW82625   9.484   5.025   2.765
60243SOL    HW182626   9.490   5.076   2.684
60243SOL    HW282627   9.396   4.988   2.764
60244SOL     OW82628   1.302  13.085   5.040
60244SOL    HW182629   1.324  13.092   4.947
60244SOL    HW282630   1.209  13.062   5.041
60245SOL     OW82631   2.176   2.402   8.250
60245SOL    HW182632   2.084   2.395   8.277
60245SOL    HW282633   2.203   2.488   8.282
60246SOL     OW82634   1.900  12.311  14.882
60246SOL    HW182635   1.923  12.233   0.045
60246SOL    HW282636   1.882  12.378   0.061
60247SOL     OW82637   7.861   8.107  10.781
60247SOL    HW182638   7.826   8.194  10.759
60247SOL    HW282639   7.871   8.063  10.696
60248SOL     OW82640   3.873   7.055   6.699
60248SOL    HW182641   3.839   6.968   6.678
60248SOL    HW282642   3.964   7.039   6.725
60249SOL     OW82643   0.619   6.177   7.766
60249SOL    HW182644   0.538   6.201   7.722
60249SOL    HW282645   0.686   6.231   7.725
60250SOL     OW82646  12.941  11.929   4.033
60250SOL    HW182647  12.865  11.974   4.069
60250SOL    HW282648  13.014  11.988   4.049
60251SOL     OW82649  11.273   9.199  13.952
60251SOL    HW182650  11.193   9.250  13.964
60251SOL    HW282651  11.319   9.242  13.880
60252SOL     OW82652   2.167   7.518   0.625
60252SOL    HW182653   2.225   7.541   0.697
60252SOL    HW282654   2.111   7.594   0.613
60253SOL     OW82655  12.810  12.043  11.260
60253SOL    HW182656  12.828  12.132  11.289
60253SOL    HW282657  12.715  12.035  11.263
60254SOL     OW82658   2.277  11.038  12.481
60254SOL    HW182659   2.334  11.055  12.406
60254SOL    HW282660   2.320  11.083  12.554
60255SOL     OW82661   8.514  13.984   2.659
60255SOL    HW182662   8.566  14.005   2.581
60255SOL    HW282663   8.561  14.025   2.731
60256SOL     OW82664   6.016  11.454   4.555
60256SOL    HW182665   6.012  11.360   4.569
60256SOL    HW282666   6.021  11.464   4.460
60257SOL     OW82667   5.473   9.689   0.159
60257SOL    HW182668   5.520   9.637   0.225
60257SOL    HW282669   5.388   9.708   0.200
60258SOL     OW82670   5.327  12.689  11.263
60258SOL    HW182671   5.276  12.770  11.257
60258SOL    HW282672   5.272  12.629  11.313
60259SOL     OW82673  13.115   5.461  13.687
60259SOL    HW182674  13.141   5.479  13.778
60259SOL    HW282675  13.188   5.410  13.651
60260SOL     OW82676   4.251   9.499   8.263
60260SOL    HW182677   4.346   9.496   8.254
60260SOL    HW282678   4.223   9.558   8.194
60261SOL     OW82679   5.533   8.415   6.837
60261SOL    HW182680   5.538   8.463   6.919
60261SOL    HW282681   5.471   8.344   6.855
60262SOL     OW82682   8.780   5.328   0.588
60262SOL    HW182683   8.802   5.236   0.608
60262SOL    HW282684   8.781   5.371   0.674
60263SOL     OW82685  14.449  11.877   9.377
60263SOL    HW182686  14.371  11.835   9.343
60263SOL    HW282687  14.510  11.805   9.394
60264SOL     OW82688   7.407  13.902   7.716
60264SOL    HW182689   7.349  13.832   7.687
60264SOL    HW282690   7.408  13.896   7.811
60265SOL     OW82691  10.779   7.603   6.463
60265SOL    HW182692  10.833   7.619   6.386
60265SOL    HW282693  10.779   7.686   6.510
60266SOL     OW82694   0.074   9.458  11.804
60266SOL    HW182695   0.167   9.447  11.781
60266SOL    HW282696   0.065   9.551  11.823
60267SOL     OW82697   2.745   0.651   6.542
60267SOL    HW182698   2.773   0.642   6.451
60267SOL    HW282699   2.764   0.565   6.582
60268SOL     OW82700   3.107   0.565   0.055
60268SOL    HW182701   3.107   0.476   0.019
60268SOL    HW282702   3.093   0.552   0.149
60269SOL     OW82703  12.896   7.366   7.886
60269SOL    HW182704  12.941   7.284   7.867
60269SOL    HW282705  12.810   7.340   7.919
60270SOL     OW82706   3.886   8.241  12.946
60270SOL    HW182707   3.796   8.257  12.919
60270SOL    HW282708   3.905   8.153  12.912
60271SOL     OW82709   0.172   1.038   3.656
60271SOL    HW182710   0.077   1.042   3.659
60271SOL    HW282711   0.193   1.021   3.564
60272SOL     OW82712   0.263   2.080  10.522
60272SOL    HW182713   0.237   1.992  10.548
60272SOL    HW282714   0.253   2.133  10.601
60273SOL     OW82715   4.927   9.860   0.902
60273SOL    HW182716   4.919   9.954   0.886
60273SOL    HW282717   5.003   9.833   0.851
60274SOL     OW82718   2.055   7.687  10.413
60274SOL    HW182719   2.022   7.677  10.502
60274SOL    HW282720   1.981   7.667  10.356
60275SOL     OW82721   0.029   8.333   6.316
60275SOL    HW182722   0.078   8.310   6.395
60275SOL    HW282723   0.080   8.402   6.274
60276SOL     OW82724   2.725  12.846  11.956
60276SOL    HW182725   2.652  12.891  11.914
60276SOL    HW282726   2.697  12.836  12.047
60277SOL     OW82727  14.467   6.633   6.082
60277SOL    HW182728  14.555   6.663   6.106
60277SOL    HW282729  14.469   6.539   6.101
60278SOL     OW82730  11.930   0.997  10.167
60278SOL    HW182731  11.951   1.086  10.194
60278SOL    HW282732  11.847   1.004  10.120
60279SOL     OW82733  13.046   2.601   4.982
60279SOL    HW182734  13.077   2.650   4.905
60279SOL    HW282735  12.970   2.553   4.951
60280SOL     OW82736  14.039  13.583   4.383
60280SOL    HW182737  13.968  13.581   4.446
60280SOL    HW282738  14.016  13.654   4.322
60281SOL     OW82739   1.186   9.610  10.179
60281SOL    HW182740   1.166   9.678  10.244
60281SOL    HW282741   1.101   9.584  10.146
60282SOL     OW82742   4.397   4.164   3.278
60282SOL    HW182743   4.327   4.204   3.226
60282SOL    HW282744   4.385   4.070   3.264
60283SOL     OW82745  12.545   3.314   3.676
60283SOL    HW182746  12.623   3.315   3.621
60283SOL    HW282747  12.555   3.237   3.732
60284SOL     OW82748   8.457  10.269   8.988
60284SOL    HW182749   8.442  10.316   8.905
60284SOL    HW282750   8.548  10.290   9.011
60285SOL     OW82751  13.846   6.473   8.571
60285SOL    HW182752  13.933   6.482   8.531
60285SOL    HW282753  13.799   6.552   8.544
60286SOL     OW82754   6.937   1.503  11.649
60286SOL    HW182755   6.894   1.418  11.640
60286SOL    HW282756   6.913   1.551  11.570
60287SOL     OW82757  12.993   4.945   5.765
60287SOL    HW182758  13.029   4.874   5.712
60287SOL    HW282759  13.023   5.025   5.722
60288SOL     OW82760   5.842   6.144  13.926
60288SOL    HW182761   5.928   6.134  13.887
60288SOL    HW282762   5.786   6.174  13.854
60289SOL     OW82763   7.281   0.793   3.160
60289SOL    HW182764   7.212   0.763   3.101
60289SOL    HW282765   7.281   0.888   3.151
60290SOL     OW82766   6.191   8.628   8.718
60290SOL    HW182767   6.274   8.585   8.739
60290SOL    HW282768   6.141   8.623   8.799
60291SOL     OW82769   6.978  11.480   7.722
60291SOL    HW182770   6.908  11.507   7.782
60291SOL    HW282771   7.002  11.560   7.677
60292SOL     OW82772   1.427   8.974   2.898
60292SOL    HW182773   1.486   8.904   2.925
60292SOL    HW282774   1.339   8.938   2.912
60293SOL     OW82775  10.867   5.701   3.659
60293SOL    HW182776  10.804   5.684   3.729
60293SOL    HW282777  10.951   5.714   3.703
60294SOL     OW82778  12.958  10.555  13.019
60294SOL    HW182779  12.962  10.513  12.933
60294SOL    HW282780  12.899  10.499  13.070
60295SOL     OW82781  10.358   3.273  10.750
60295SOL    HW182782  10.284   3.224  10.787
60295SOL    HW282783  10.326   3.303  10.664
60296SOL     OW82784   7.418   6.941  12.700
60296SOL    HW182785   7.454   6.874  12.642
60296SOL    HW282786   7.374   7.002  12.641
60297SOL     OW82787  11.366   9.323  12.073
60297SOL    HW182788  11.435   9.267  12.036
60297SOL    HW282789  11.295   9.317  12.010
60298SOL     OW82790   6.769   4.917   7.651
60298SOL    HW182791   6.755   5.004   7.689
60298SOL    HW282792   6.710   4.914   7.576
60299SOL     OW82793  10.767  12.829   1.501
60299SOL    HW182794  10.781  12.743   1.462
60299SOL    HW282795  10.761  12.812   1.595
60300SOL     OW82796   5.519   8.496   5.155
60300SOL    HW182797   5.563   8.420   5.193
60300SOL    HW282798   5.568   8.571   5.189
60301SOL     OW82799  11.073   5.124  12.788
60301SOL    HW182800  11.041   5.214  12.780
60301SOL    HW282801  10.999   5.077  12.827
60302SOL     OW82802  13.699   8.642   1.174
60302SOL    HW182803  13.652   8.564   1.205
60302SOL    HW282804  13.673   8.651   1.082
60303SOL     OW82805   9.509   4.979   2.452
60303SOL    HW182806   9.504   4.900   2.398
60303SOL    HW282807   9.583   4.962   2.511
60304SOL     OW82808   2.185   0.018   1.543
60304SOL    HW182809   2.255  14.841   1.538
60304SOL    HW282810   2.106  14.855   1.564
60305SOL     OW82811   6.928  12.018  11.459
60305SOL    HW182812   6.979  11.937  11.459
60305SOL    HW282813   6.984  12.081  11.506
60306SOL     OW82814   4.747   9.767   3.769
60306SOL    HW182815   4.690   9.704   3.726
60306SOL    HW282816   4.752   9.841   3.708
60307SOL     OW82817  10.623   6.782   9.182
60307SOL    HW182818  10.665   6.716   9.236
60307SOL    HW282819  10.656   6.865   9.215
60308SOL     OW82820   1.809   5.625   8.066
60308SOL    HW182821   1.890   5.579   8.047
60308SOL    HW282822   1.740   5.563   8.041
60309SOL     OW82823  12.548   6.903   0.843
60309SOL    HW182824  12.573   6.849   0.918
60309SOL    HW282825  12.576   6.992   0.866
60310SOL     OW82826   2.820   4.288   7.295
60310SOL    HW182827   2.807   4.378   7.266
60310SOL    HW282828   2.751   4.273   7.359
60311SOL     OW82829   0.001   4.028  11.020
60311SOL    HW182830   0.017   3.937  11.045
60311SOL    HW282831  14.794   4.033  11.005
60312SOL     OW82832   1.415   3.752   0.207
60312SOL    HW182833   1.374   3.836   0.229
60312SOL    HW282834   1.409   3.746   0.112
60313SOL     OW82835   1.674   9.409   9.586
60313SOL    HW182836   1.750   9.361   9.554
60313SOL    HW282837   1.649   9.364   9.666
60314SOL     OW82838  10.783   2.035  12.913
60314SOL    HW182839  10.776   1.940  12.903
60314SOL    HW282840  10.798   2.049  13.006
60315SOL     OW82841   7.160   8.988   3.939
60315SOL    HW182842   7.145   9.052   3.869
60315SOL    HW282843   7.228   9.028   3.993
60316SOL     OW82844  13.326  11.482   7.211
60316SOL    HW182845  13.401  11.540   7.227
60316SOL    HW282846  13.265  11.500   7.283
60317SOL     OW82847   1.409   9.234   5.755
60317SOL    HW182848   1.466   9.217   5.680
60317SOL    HW282849   1.321   9.217   5.722
60318SOL     OW82850   9.442   8.979   1.747
60318SOL    HW182851   9.482   8.938   1.670
60318SOL    HW282852   9.467   9.071   1.740
60319SOL     OW82853  11.277   9.455  13.200
60319SOL    HW182854  11.259   9.496  13.116
60319SOL    HW282855  11.252   9.363  13.189
60320SOL     OW82856   1.678  11.654   1.624
60320SOL    HW182857   1.714  11.630   1.538
60320SOL    HW282858   1.590  11.686   1.606
60321SOL     OW82859   2.938  13.119   2.493
60321SOL    HW182860   3.005  13.188   2.496
60321SOL    HW282861   2.951  13.078   2.408
60322SOL     OW82862  14.571  12.677  13.807
60322SOL    HW182863  14.657  12.653  13.841
60322SOL    HW282864  14.521  12.595  13.807
60323SOL     OW82865   7.717  10.922  13.987
60323SOL    HW182866   7.742  10.940  13.896
60323SOL    HW282867   7.665  10.842  13.983
60324SOL     OW82868   6.431  11.601   7.787
60324SOL    HW182869   6.421  11.506   7.785
60324SOL    HW282870   6.344  11.634   7.806
60325SOL     OW82871   4.015   8.487   0.793
60325SOL    HW182872   4.058   8.487   0.707
60325SOL    HW282873   4.087   8.494   0.856
60326SOL     OW82874   6.340   8.959   7.642
60326SOL    HW182875   6.312   9.034   7.590
60326SOL    HW282876   6.424   8.984   7.680
60327SOL     OW82877   0.447   6.256  13.507
60327SOL    HW182878   0.440   6.261  13.602
60327SOL    HW282879   0.370   6.207  13.479
60328SOL     OW82880   8.634   3.236   1.480
60328SOL    HW182881   8.579   3.212   1.554
60328SOL    HW282882   8.712   3.181   1.489
60329SOL     OW82883   6.103   2.938   7.332
60329SOL    HW182884   6.179   2.893   7.369
60329SOL    HW282885   6.101   3.023   7.376
60330SOL     OW82886   8.459  14.722   3.115
60330SOL    HW182887   8.520  14.784   3.155
60330SOL    HW282888   8.457  14.746   3.023
60331SOL     OW82889   2.346   8.440   0.671
60331SOL    HW182890   2.371   8.527   0.703
60331SOL    HW282891   2.266   8.456   0.620
60332SOL     OW82892  10.288  11.831   9.027
60332SOL    HW182893  10.246  11.776   9.093
60332SOL    HW282894  10.340  11.770   8.975
60333SOL     OW82895   4.021   6.746   4.594
60333SOL    HW182896   3.981   6.710   4.515
60333SOL    HW282897   4.108   6.775   4.567
60334SOL     OW82898   6.602   8.567  12.889
60334SOL    HW182899   6.675   8.615  12.851
60334SOL    HW282900   6.526   8.623  12.873
60335SOL     OW82901   2.855   3.899   4.002
60335SOL    HW182902   2.877   3.944   4.084
60335SOL    HW282903   2.770   3.859   4.019
60336SOL     OW82904   7.003   0.389  10.677
60336SOL    HW182905   6.978   0.478  10.653
60336SOL    HW282906   7.014   0.344  10.594
60337SOL     OW82907   0.423   1.452  10.128
60337SOL    HW182908   0.368   1.530  10.118
60337SOL    HW282909   0.509   1.487  10.150
60338SOL     OW82910  10.566   7.481  12.923
60338SOL    HW182911  10.514   7.534  12.985
60338SOL    HW282912  10.612   7.546  12.870
60339SOL     OW82913   2.058   1.033  12.712
60339SOL    HW182914   2.083   0.970  12.779
60339SOL    HW282915   2.027   0.980  12.639
60340SOL     OW82916   7.985   0.971   7.562
60340SOL    HW182917   7.947   0.941   7.480
60340SOL    HW282918   7.953   1.061   7.572
60341SOL     OW82919  13.332  10.079  14.285
60341SOL    HW182920  13.417  10.045  14.315
60341SOL    HW282921  13.324  10.047  14.195
60342SOL     OW82922   2.096   6.668   9.760
60342SOL    HW182923   2.043   6.670   9.680
60342SOL    HW282924   2.155   6.594   9.748
60343SOL     OW82925   5.330   8.321   6.341
60343SOL    HW182926   5.320   8.376   6.419
60343SOL    HW282927   5.376   8.243   6.372
60344SOL     OW82928  13.246  13.544  11.403
60344SOL    HW182929  13.304  13.526  11.477
60344SOL    HW282930  13.198  13.463  11.389
60345SOL     OW82931  10.115   7.484   3.592
60345SOL    HW182932  10.194   7.537   3.602
60345SOL    HW282933  10.132   7.406   3.644
60346SOL     OW82934   3.861   6.585   3.631
60346SOL    HW182935   3.828   6.652   3.570
60346SOL    HW282936   3.942   6.555   3.591
60347SOL     OW82937   1.430  10.377   1.548
60347SOL    HW182938   1.453  10.355   1.639
60347SOL    HW282939   1.335  10.367   1.544
60348SOL     OW82940   1.026   0.087  11.787
60348SOL    HW182941   0.979   0.074  11.705
60348SOL    HW282942   1.097   0.148  11.765
60349SOL     OW82943   3.176   0.958  13.235
60349SOL    HW182944   3.109   1.025  13.243
60349SOL    HW282945   3.134   0.878  13.266
60350SOL     OW82946  12.851  12.498   1.627
60350SOL    HW182947  12.821  12.421   1.580
60350SOL    HW282948  12.797  12.499   1.707
60351SOL     OW82949  10.059   7.214   7.878
60351SOL    HW182950  10.014   7.205   7.962
60351SOL    HW282951  10.151   7.225   7.902
60352SOL     OW82952  12.314   3.510   9.540
60352SOL    HW182953  12.286   3.491   9.630
60352SOL    HW282954  12.395   3.460   9.530
60353SOL     OW82955  10.135   9.824   7.562
60353SOL    HW182956  10.231   9.823   7.556
60353SOL    HW282957  10.109   9.734   7.543
60354SOL     OW82958   8.556  11.948   4.906
60354SOL    HW182959   8.641  11.915   4.936
60354SOL    HW282960   8.537  11.898   4.827
60355SOL     OW82961  12.427   3.369   0.804
60355SOL    HW182962  12.472   3.377   0.888
60355SOL    HW282963  12.490   3.325   0.747
60356SOL     OW82964   7.241   0.581   4.965
60356SOL    HW182965   7.162   0.591   5.018
60356SOL    HW282966   7.210   0.588   4.875
60357SOL     OW82967  14.422   8.487   2.881
60357SOL    HW182968  14.422   8.413   2.942
60357SOL    HW282969  14.484   8.462   2.813
60358SOL     OW82970   6.074   9.320   5.010
60358SOL    HW182971   6.154   9.290   4.967
60358SOL    HW282972   6.060   9.257   5.081
60359SOL     OW82973  11.404  11.735  12.636
60359SOL    HW182974  11.404  11.762  12.544
60359SOL    HW282975  11.311  11.724  12.657
60360SOL     OW82976   0.874  10.193   2.913
60360SOL    HW182977   0.822  10.115   2.929
60360SOL    HW282978   0.959  10.160   2.884
60361SOL     OW82979  14.321  14.529   9.650
60361SOL    HW182980  14.400  14.523   9.704
60361SOL    HW282981  14.260  14.580   9.704
60362SOL     OW82982   3.466  13.181  10.150
60362SOL    HW182983   3.497  13.267  10.178
60362SOL    HW282984   3.383  13.200  10.106
60363SOL     OW82985   0.022   8.414   2.288
60363SOL    HW182986  14.843   8.468   2.331
60363SOL    HW282987  14.859   8.346   2.244
60364SOL     OW82988  12.521  11.234   6.022
60364SOL    HW182989  12.444  11.211   5.970
60364SOL    HW282990  12.515  11.179   6.100
60365SOL     OW82991  11.295   9.942   9.621
60365SOL    HW182992  11.361   9.991   9.669
60365SOL    HW282993  11.326   9.852   9.623
60366SOL     OW82994   8.637   6.710   7.801
60366SOL    HW182995   8.620   6.775   7.733
60366SOL    HW282996   8.723   6.674   7.778
60367SOL     OW82997   7.823  10.107   4.063
60367SOL    HW182998   7.758  10.176   4.052
60367SOL    HW282999   7.781  10.042   4.119
60368SOL     OW83000  10.706   6.942  13.345
60368SOL    HW183001  10.703   6.911  13.435
60368SOL    HW283002  10.618   6.928  13.311
60369SOL     OW83003  14.565   7.463   6.423
60369SOL    HW183004  14.582   7.416   6.504
60369SOL    HW283005  14.470   7.460   6.414
60370SOL     OW83006  14.859   0.254   6.080
60370SOL    HW183007  14.860   0.324   6.014
60370SOL    HW283008  14.800   0.286   6.149
60371SOL     OW83009   2.738   9.702  12.389
60371SOL    HW183010   2.708   9.614  12.414
60371SOL    HW283011   2.753   9.747  12.472
60372SOL     OW83012   1.737  10.475   5.332
60372SOL    HW183013   1.802  10.417   5.292
60372SOL    HW283014   1.660  10.467   5.275
60373SOL     OW83015   5.682   6.989  14.851
60373SOL    HW183016   5.751   6.991   0.030
60373SOL    HW283017   5.727   6.964  14.771
60374SOL     OW83018  13.826   5.993   6.354
60374SOL    HW183019  13.769   6.048   6.300
60374SOL    HW283020  13.915   6.020   6.331
60375SOL     OW83021   3.038  10.503  12.149
60375SOL    HW183022   3.081  10.418  12.143
60375SOL    HW283023   3.101  10.565  12.112
60376SOL     OW83024   6.879   0.336   5.574
60376SOL    HW183025   6.817   0.272   5.539
60376SOL    HW283026   6.825   0.397   5.624
60377SOL     OW83027  14.356   6.068   9.680
60377SOL    HW183028  14.281   6.120   9.710
60377SOL    HW283029  14.403   6.046   9.761
60378SOL     OW83030   7.363   4.732   9.193
60378SOL    HW183031   7.311   4.708   9.116
60378SOL    HW283032   7.299   4.769   9.255
60379SOL     OW83033   5.870   4.863  13.575
60379SOL    HW183034   5.886   4.918  13.498
60379SOL    HW283035   5.952   4.867  13.624
60380SOL     OW83036   3.042   3.662  14.838
60380SOL    HW183037   2.947   3.677  14.832
60380SOL    HW283038   3.056   3.640   0.043
60381SOL     OW83039  12.921  10.554  12.669
60381SOL    HW183040  12.838  10.508  12.660
60381SOL    HW283041  12.949  10.572  12.579
60382SOL     OW83042   9.540   1.139  14.153
60382SOL    HW183043   9.587   1.162  14.073
60382SOL    HW283044   9.461   1.192  14.151
60383SOL     OW83045   6.816  11.786  10.150
60383SOL    HW183046   6.772  11.864  10.184
60383SOL    HW283047   6.884  11.767  10.214
60384SOL     OW83048  13.057  11.686   6.269
60384SOL    HW183049  13.013  11.692   6.353
60384SOL    HW283050  13.008  11.619   6.221
60385SOL     OW83051  14.396   3.719  14.046
60385SOL    HW183052  14.325   3.761  13.998
60385SOL    HW283053  14.373   3.627  14.047
60386SOL     OW83054  11.817  12.898   7.867
60386SOL    HW183055  11.737  12.880   7.818
60386SOL    HW283056  11.845  12.985   7.837
60387SOL     OW83057   0.919   8.193  13.139
60387SOL    HW183058   0.930   8.188  13.233
60387SOL    HW283059   1.006   8.213  13.105
60388SOL     OW83060   0.562   9.777   0.830
60388SOL    HW183061   0.557   9.869   0.853
60388SOL    HW283062   0.599   9.776   0.742
60389SOL     OW83063  11.182   9.193   2.838
60389SOL    HW183064  11.186   9.127   2.908
60389SOL    HW283065  11.092   9.186   2.806
60390SOL     OW83066   0.807   1.769   3.929
60390SOL    HW183067   0.739   1.711   3.894
60390SOL    HW283068   0.764   1.812   4.004
60391SOL     OW83069  14.583   7.464   2.898
60391SOL    HW183070  14.558   7.528   2.965
60391SOL    HW283071  14.619   7.390   2.948
60392SOL     OW83072   7.944  10.087   3.797
60392SOL    HW183073   8.037  10.092   3.819
60392SOL    HW283074   7.904  10.040   3.871
60393SOL     OW83075   8.631   9.446  13.141
60393SOL    HW183076   8.571   9.503  13.092
60393SOL    HW283077   8.670   9.504  13.207
60394SOL     OW83078  11.656   4.493  12.708
60394SOL    HW183079  11.730   4.549  12.685
60394SOL    HW283080  11.646   4.435  12.633
60395SOL     OW83081   5.401  10.657   4.174
60395SOL    HW183082   5.456  10.632   4.100
60395SOL    HW283083   5.318  10.611   4.159
60396SOL     OW83084   3.598   7.887  10.356
60396SOL    HW183085   3.656   7.831  10.408
60396SOL    HW283086   3.636   7.975  10.365
60397SOL     OW83087  13.178   8.808  12.750
60397SOL    HW183088  13.232   8.762  12.686
60397SOL    HW283089  13.095   8.823  12.706
60398SOL     OW83090   7.741  13.545   4.372
60398SOL    HW183091   7.661  13.597   4.378
60398SOL    HW283092   7.811  13.610   4.367
60399SOL     OW83093  12.875   3.039   2.934
60399SOL    HW183094  12.911   3.048   2.846
60399SOL    HW283095  12.840   3.125   2.955
60400SOL     OW83096   9.777  11.544  12.571
60400SOL    HW183097   9.848  11.519  12.511
60400SOL    HW283098   9.708  11.480  12.555
60401SOL     OW83099  12.356   9.025   9.346
60401SOL    HW183100  12.416   9.023   9.271
60401SOL    HW283101  12.286   9.084   9.319
60402SOL     OW83102  10.582   1.553   1.068
60402SOL    HW183103  10.648   1.600   1.016
60402SOL    HW283104  10.598   1.582   1.158
60403SOL     OW83105   8.174   8.346   0.110
60403SOL    HW183106   8.141   8.398   0.183
60403SOL    HW283107   8.258   8.311   0.142
60404SOL     OW83108  10.855   9.315   3.311
60404SOL    HW183109  10.830   9.403   3.339
60404SOL    HW283110  10.801   9.298   3.233
60405SOL     OW83111   0.339   7.467   8.053
60405SOL    HW183112   0.365   7.375   8.061
60405SOL    HW283113   0.245   7.466   8.069
60406SOL     OW83114  11.185   7.269   9.011
60406SOL    HW183115  11.233   7.187   9.021
60406SOL    HW283116  11.243   7.324   8.958
60407SOL     OW83117   6.438  13.550   6.576
60407SOL    HW183118   6.370  13.508   6.628
60407SOL    HW283119   6.520  13.530   6.621
60408SOL     OW83120   1.279   5.756   3.031
60408SOL    HW183121   1.337   5.694   3.076
60408SOL    HW283122   1.337   5.802   2.970
60409SOL     OW83123   9.967   8.735  11.478
60409SOL    HW183124  10.060   8.753  11.473
60409SOL    HW283125   9.941   8.714  11.388
60410SOL     OW83126   2.882  12.040   0.470
60410SOL    HW183127   2.863  12.049   0.563
60410SOL    HW283128   2.853  12.123   0.432
60411SOL     OW83129  14.634  11.237  10.524
60411SOL    HW183130  14.574  11.291  10.473
60411SOL    HW283131  14.603  11.244  10.614
60412SOL     OW83132   8.211   1.961   0.792
60412SOL    HW183133   8.194   2.046   0.833
60412SOL    HW283134   8.304   1.945   0.810
60413SOL     OW83135   0.992   0.218  13.287
60413SOL    HW183136   0.988   0.306  13.249
60413SOL    HW283137   1.084   0.207  13.311
60414SOL     OW83138   9.045   8.697   8.249
60414SOL    HW183139   9.022   8.774   8.300
60414SOL    HW283140   8.970   8.639   8.257
60415SOL     OW83141   1.900  14.294  13.908
60415SOL    HW183142   1.955  14.330  13.978
60415SOL    HW283143   1.939  14.326  13.827
60416SOL     OW83144  11.559  12.647   1.711
60416SOL    HW183145  11.511  12.713   1.760
60416SOL    HW283146  11.575  12.577   1.775
60417SOL     OW83147   2.175   0.162   1.004
60417SOL    HW183148   2.214   0.246   1.025
60417SOL    HW283149   2.084   0.170   1.035
60418SOL     OW83150   9.093   7.258   4.699
60418SOL    HW183151   9.050   7.230   4.618
60418SOL    HW283152   9.132   7.178   4.734
60419SOL     OW83153  12.689   1.686  13.932
60419SOL    HW183154  12.724   1.637  13.857
60419SOL    HW283155  12.734   1.770  13.930
60420SOL     OW83156   5.275   4.083   2.930
60420SOL    HW183157   5.319   4.019   2.985
60420SOL    HW283158   5.295   4.057   2.841
60421SOL     OW83159  12.352  13.510   2.581
60421SOL    HW183160  12.299  13.482   2.655
60421SOL    HW283161  12.375  13.428   2.536
60422SOL     OW83162   4.442   7.068   0.288
60422SOL    HW183163   4.451   7.064   0.383
60422SOL    HW283164   4.408   6.982   0.263
60423SOL     OW83165  12.832   0.398  11.524
60423SOL    HW183166  12.751   0.447  11.538
60423SOL    HW283167  12.814   0.311  11.560
60424SOL     OW83168  12.676  11.529   1.878
60424SOL    HW183169  12.676  11.556   1.969
60424SOL    HW283170  12.715  11.441   1.879
60425SOL     OW83171  11.739   6.858   8.416
60425SOL    HW183172  11.762   6.949   8.431
60425SOL    HW283173  11.659   6.861   8.364
60426SOL     OW83174   6.920   6.223   9.481
60426SOL    HW183175   6.905   6.250   9.391
60426SOL    HW283176   6.839   6.181   9.507
60427SOL     OW83177  14.883  13.145   4.297
60427SOL    HW183178  14.792  13.174   4.304
60427SOL    HW283179  14.878  13.050   4.300
60428SOL     OW83180   3.759   3.277   5.560
60428SOL    HW183181   3.734   3.185   5.568
60428SOL    HW283182   3.799   3.299   5.644
60429SOL     OW83183   4.899   4.080   3.715
60429SOL    HW183184   4.977   4.099   3.663
60429SOL    HW283185   4.932   4.057   3.801
60430SOL     OW83186   4.735  14.594   9.944
60430SOL    HW183187   4.723  14.505   9.911
60430SOL    HW283188   4.829  14.610   9.937
60431SOL     OW83189   3.780   4.266   3.036
60431SOL    HW183190   3.791   4.360   3.050
60431SOL    HW283191   3.705   4.259   2.977
60432SOL     OW83192   5.439  14.808   5.938
60432SOL    HW183193   5.428  14.726   5.988
60432SOL    HW283194   5.405  14.788   5.851
60433SOL     OW83195   0.805  12.465  10.887
60433SOL    HW183196   0.710  12.450  10.894
60433SOL    HW283197   0.844  12.383  10.917
60434SOL     OW83198   3.984   9.183   3.408
60434SOL    HW183199   4.034   9.233   3.472
60434SOL    HW283200   3.941   9.249   3.354
60435SOL     OW83201   8.417   7.190   7.286
60435SOL    HW183202   8.334   7.196   7.238
60435SOL    HW283203   8.473   7.255   7.244
60436SOL     OW83204   0.857   2.314   9.707
60436SOL    HW183205   0.805   2.277   9.778
60436SOL    HW283206   0.898   2.239   9.665
60437SOL     OW83207   2.029   6.119   4.993
60437SOL    HW183208   2.107   6.146   5.043
60437SOL    HW283209   2.060   6.109   4.903
60438SOL     OW83210  12.028   3.253   4.866
60438SOL    HW183211  12.041   3.342   4.832
60438SOL    HW283212  11.936   3.250   4.890
60439SOL     OW83213   2.353   8.831   8.117
60439SOL    HW183214   2.404   8.901   8.155
60439SOL    HW283215   2.367   8.839   8.023
60440SOL     OW83216  10.288   1.669   2.555
60440SOL    HW183217  10.243   1.615   2.490
60440SOL    HW283218  10.352   1.719   2.504
60441SOL     OW83219   0.919   2.837   9.987
60441SOL    HW183220   0.948   2.867   9.900
60441SOL    HW283221   0.967   2.755  10.001
60442SOL     OW83222   6.683  12.900  11.472
60442SOL    HW183223   6.630  12.979  11.480
60442SOL    HW283224   6.622  12.834  11.439
60443SOL     OW83225   0.417   7.705  13.546
60443SOL    HW183226   0.501   7.737  13.579
60443SOL    HW283227   0.360   7.781  13.547
60444SOL     OW83228   7.493  12.948  13.798
60444SOL    HW183229   7.570  12.989  13.759
60444SOL    HW283230   7.506  12.855  13.783
60445SOL     OW83231  12.377   1.871   5.775
60445SOL    HW183232  12.435   1.911   5.840
60445SOL    HW283233  12.311   1.938   5.757
60446SOL     OW83234  11.777   1.102   7.909
60446SOL    HW183235  11.755   1.114   8.001
60446SOL    HW283236  11.696   1.120   7.862
60447SOL     OW83237  12.892   8.101  12.828
60447SOL    HW183238  12.832   8.174  12.841
60447SOL    HW283239  12.943   8.125  12.750
60448SOL     OW83240  12.259   5.705   5.591
60448SOL    HW183241  12.202   5.638   5.628
60448SOL    HW283242  12.297   5.750   5.666
60449SOL     OW83243   7.590   3.360   6.203
60449SOL    HW183244   7.632   3.415   6.269
60449SOL    HW283245   7.613   3.271   6.228
60450SOL     OW83246   7.399   4.008  10.689
60450SOL    HW183247   7.416   3.967  10.774
60450SOL    HW283248   7.474   3.983  10.635
60451SOL     OW83249  10.000   6.722   9.400
60451SOL    HW183250  10.037   6.811   9.402
60451SOL    HW283251   9.917   6.732   9.353
60452SOL     OW83252   0.557   4.823   0.329
60452SOL    HW183253   0.644   4.819   0.290
60452SOL    HW283254   0.500   4.777   0.267
60453SOL     OW83255   0.225  13.663   7.199
60453SOL    HW183256   0.300  13.723   7.191
60453SOL    HW283257   0.153  13.710   7.158
60454SOL     OW83258   2.954   4.311  12.758
60454SOL    HW183259   3.038   4.303  12.804
60454SOL    HW283260   2.914   4.225  12.766
60455SOL     OW83261   1.143   5.283  14.673
60455SOL    HW183262   1.232   5.318  14.667
60455SOL    HW283263   1.153   5.189  14.657
60456SOL     OW83264  10.692   2.500  11.815
60456SOL    HW183265  10.745   2.496  11.894
60456SOL    HW283266  10.689   2.409  11.784
60457SOL     OW83267   5.904   2.460   4.910
60457SOL    HW183268   5.999   2.459   4.899
60457SOL    HW283269   5.887   2.531   4.971
60458SOL     OW83270   1.826   1.770   9.131
60458SOL    HW183271   1.777   1.703   9.083
60458SOL    HW283272   1.759   1.830   9.163
60459SOL     OW83273   4.232   9.939   4.497
60459SOL    HW183274   4.232   9.881   4.421
60459SOL    HW283275   4.177  10.013   4.471
60460SOL     OW83276   8.564  10.275  10.961
60460SOL    HW183277   8.605  10.361  10.971
60460SOL    HW283278   8.567  10.257  10.867
60461SOL     OW83279  12.979   7.174   0.869
60461SOL    HW183280  12.951   7.180   0.778
60461SOL    HW283281  13.068   7.208   0.869
60462SOL     OW83282   1.223   2.201  13.098
60462SOL    HW183283   1.194   2.110  13.091
60462SOL    HW283284   1.217   2.235  13.009
60463SOL     OW83285  14.428   7.672   1.769
60463SOL    HW183286  14.437   7.749   1.825
60463SOL    HW283287  14.353   7.691   1.713
60464SOL     OW83288   7.178   3.772   5.411
60464SOL    HW183289   7.237   3.822   5.468
60464SOL    HW283290   7.214   3.783   5.323
60465SOL     OW83291   4.885   8.369   7.790
60465SOL    HW183292   4.968   8.345   7.830
60465SOL    HW283293   4.886   8.465   7.789
60466SOL     OW83294   6.495   7.497   5.360
60466SOL    HW183295   6.474   7.562   5.427
60466SOL    HW283296   6.516   7.418   5.410
60467SOL     OW83297  10.213  10.521  14.223
60467SOL    HW183298  10.158  10.449  14.191
60467SOL    HW283299  10.187  10.597  14.171
60468SOL     OW83300   4.226   1.445   0.608
60468SOL    HW183301   4.150   1.466   0.553
60468SOL    HW283302   4.290   1.408   0.547
60469SOL     OW83303  14.591   8.276   1.663
60469SOL    HW183304  14.677   8.263   1.623
60469SOL    HW283305  14.594   8.222   1.742
60470SOL     OW83306   7.939   2.765   6.092
60470SOL    HW183307   7.925   2.673   6.070
60470SOL    HW283308   7.857   2.808   6.067
60471SOL     OW83309  12.750   9.634  10.137
60471SOL    HW183310  12.704   9.579  10.073
60471SOL    HW283311  12.836   9.648  10.099
60472SOL     OW83312  13.671   4.617   1.095
60472SOL    HW183313  13.609   4.590   1.163
60472SOL    HW283314  13.755   4.583   1.125
60473SOL     OW83315   2.331  12.506   1.766
60473SOL    HW183316   2.285  12.443   1.821
60473SOL    HW283317   2.264  12.539   1.705
60474SOL     OW83318   3.411   4.958   7.334
60474SOL    HW183319   3.486   4.985   7.281
60474SOL    HW283320   3.364   4.895   7.279
60475SOL     OW83321   9.692   3.152  14.215
60475SOL    HW183322   9.776   3.156  14.261
60475SOL    HW283323   9.674   3.059  14.206
60476SOL     OW83324   0.816  12.510   5.896
60476SOL    HW183325   0.839  12.449   5.965
60476SOL    HW283326   0.833  12.463   5.814
60477SOL     OW83327   3.245   2.650  10.695
60477SOL    HW183328   3.266   2.572  10.746
60477SOL    HW283329   3.284   2.633  10.609
60478SOL     OW83330   9.914   9.602   5.905
60478SOL    HW183331   9.969   9.672   5.872
60478SOL    HW283332   9.836   9.646   5.938
60479SOL     OW83333   3.637  10.690   3.851
60479SOL    HW183334   3.578  10.674   3.926
60479SOL    HW283335   3.617  10.779   3.823
60480SOL     OW83336  12.289   1.335  10.808
60480SOL    HW183337  12.370   1.328  10.759
60480SOL    HW283338  12.285   1.255  10.860
60481SOL     OW83339   6.729   4.621   1.391
60481SOL    HW183340   6.688   4.600   1.307
60481SOL    HW283341   6.684   4.565   1.455
60482SOL     OW83342   5.638  12.230  12.466
60482SOL    HW183343   5.570  12.179  12.509
60482SOL    HW283344   5.687  12.269  12.539
60483SOL     OW83345   8.114   6.631   6.007
60483SOL    HW183346   8.123   6.719   5.971
60483SOL    HW283347   8.170   6.632   6.085
60484SOL     OW83348   3.981   7.035   9.136
60484SOL    HW183349   3.991   6.974   9.209
60484SOL    HW283350   4.028   7.114   9.163
60485SOL     OW83351  11.327   5.293  11.165
60485SOL    HW183352  11.290   5.265  11.081
60485SOL    HW283353  11.393   5.226  11.185
60486SOL     OW83354   8.423   5.926   5.382
60486SOL    HW183355   8.331   5.942   5.359
60486SOL    HW283356   8.420   5.895   5.472
60487SOL     OW83357   5.805  11.317   9.173
60487SOL    HW183358   5.777  11.305   9.082
60487SOL    HW283359   5.736  11.371   9.212
60488SOL     OW83360   0.909   5.135   2.101
60488SOL    HW183361   0.926   5.055   2.052
60488SOL    HW283362   0.993   5.157   2.141
60489SOL     OW83363   0.334   3.952   1.899
60489SOL    HW183364   0.291   3.947   1.814
60489SOL    HW283365   0.264   3.935   1.962
60490SOL     OW83366   2.303  14.087   1.691
60490SOL    HW183367   2.398  14.102   1.685
60490SOL    HW283368   2.290  14.000   1.653
60491SOL     OW83369  12.153   2.376   0.280
60491SOL    HW183370  12.222   2.313   0.301
60491SOL    HW283371  12.075   2.323   0.264
60492SOL     OW83372  13.872  10.045  14.593
60492SOL    HW183373  13.919   9.983  14.648
60492SOL    HW283374  13.825  10.101  14.656
60493SOL     OW83375  12.368   6.239   8.456
60493SOL    HW183376  12.444   6.290   8.427
60493SOL    HW283377  12.392   6.209   8.544
60494SOL     OW83378   6.880  10.426  11.697
60494SOL    HW183379   6.948  10.494  11.703
60494SOL    HW283380   6.929  10.344  11.696
60495SOL     OW83381   1.839   8.200   1.195
60495SOL    HW183382   1.842   8.141   1.119
60495SOL    HW283383   1.746   8.206   1.216
60496SOL     OW83384  13.248   8.488  11.433
60496SOL    HW183385  13.245   8.573  11.390
60496SOL    HW283386  13.331   8.488  11.481
60497SOL     OW83387   9.472   2.884   5.631
60497SOL    HW183388   9.415   2.839   5.568
60497SOL    HW283389   9.501   2.962   5.585
60498SOL     OW83390  11.907   5.911  11.959
60498SOL    HW183391  11.950   5.835  11.920
60498SOL    HW283392  11.871   5.959  11.885
60499SOL     OW83393   0.112  12.377   4.666
60499SOL    HW183394   0.038  12.397   4.723
60499SOL    HW283395   0.073  12.348   4.584
60500SOL     OW83396  14.431   8.554  10.891
60500SOL    HW183397  14.472   8.630  10.850
60500SOL    HW283398  14.461   8.557  10.981
60501SOL     OW83399   5.738   7.729  14.737
60501SOL    HW183400   5.729   7.824  14.734
60501SOL    HW283401   5.702   7.704  14.823
60502SOL     OW83402   1.469  11.776  11.550
60502SOL    HW183403   1.457  11.776  11.455
60502SOL    HW283404   1.527  11.850  11.567
60503SOL     OW83405   0.728   0.456   7.685
60503SOL    HW183406   0.789   0.529   7.676
60503SOL    HW283407   0.782   0.383   7.713
60504SOL     OW83408   2.946   4.132   9.858
60504SOL    HW183409   2.926   4.053   9.808
60504SOL    HW283410   2.982   4.100   9.941
60505SOL     OW83411   3.923  14.168   4.262
60505SOL    HW183412   3.961  14.246   4.303
60505SOL    HW283413   3.895  14.199   4.176
60506SOL     OW83414   4.831   1.181  12.357
60506SOL    HW183415   4.807   1.093  12.387
60506SOL    HW283416   4.908   1.167  12.301
60507SOL     OW83417  10.243   9.559   4.958
60507SOL    HW183418  10.183   9.621   5.000
60507SOL    HW283419  10.213   9.473   4.986
60508SOL     OW83420   7.555   6.563   9.877
60508SOL    HW183421   7.596   6.635   9.923
60508SOL    HW283422   7.572   6.486   9.932
60509SOL     OW83423   0.794   8.840   4.161
60509SOL    HW183424   0.743   8.839   4.080
60509SOL    HW283425   0.872   8.788   4.141
60510SOL     OW83426  11.749   9.860  11.863
60510SOL    HW183427  11.655   9.880  11.861
60510SOL    HW283428  11.772   9.863  11.956
60511SOL     OW83429  14.409  14.428   0.523
60511SOL    HW183430  14.386  14.473   0.442
60511SOL    HW283431  14.329  14.384   0.550
60512SOL     OW83432   3.601   4.798  13.794
60512SOL    HW183433   3.643   4.786  13.879
60512SOL    HW283434   3.609   4.891  13.776
60513SOL     OW83435   8.236   4.524   9.571
60513SOL    HW183436   8.256   4.534   9.478
60513SOL    HW283437   8.322   4.515   9.613
60514SOL     OW83438  12.542   7.607  14.671
60514SOL    HW183439  12.527   7.523  14.628
60514SOL    HW283440  12.542   7.586  14.764
60515SOL     OW83441  11.800  11.792   3.874
60515SOL    HW183442  11.768  11.727   3.813
60515SOL    HW283443  11.743  11.868   3.861
60516SOL     OW83444   4.098   2.793  14.111
60516SOL    HW183445   4.014   2.839  14.114
60516SOL    HW283446   4.116   2.783  14.017
60517SOL     OW83447   9.827   2.363   2.273
60517SOL    HW183448   9.810   2.358   2.367
60517SOL    HW283449   9.867   2.278   2.252
60518SOL     OW83450   6.320   6.560   1.631
60518SOL    HW183451   6.313   6.467   1.609
60518SOL    HW283452   6.408   6.585   1.603
60519SOL     OW83453   3.557  10.163  12.156
60519SOL    HW183454   3.545  10.069  12.171
60519SOL    HW283455   3.500  10.205  12.221
60520SOL     OW83456  14.481   2.492  12.840
60520SOL    HW183457  14.472   2.525  12.750
60520SOL    HW283458  14.443   2.561  12.895
60521SOL     OW83459  14.711   3.267  11.261
60521SOL    HW183460  14.668   3.308  11.186
60521SOL    HW283461  14.659   3.296  11.337
60522SOL     OW83462  10.710   9.968   4.167
60522SOL    HW183463  10.757   9.951   4.249
60522SOL    HW283464  10.624   9.927   4.180
60523SOL     OW83465   5.639   8.550  10.026
60523SOL    HW183466   5.698   8.571   9.954
60523SOL    HW283467   5.648   8.456  10.038
60524SOL     OW83468  14.525   9.794  11.867
60524SOL    HW183469  14.487   9.872  11.826
60524SOL    HW283470  14.467   9.775  11.941
60525SOL     OW83471   1.319   9.161  14.758
60525SOL    HW183472   1.268   9.199  14.687
60525SOL    HW283473   1.400   9.132  14.716
60526SOL     OW83474  11.012   5.042   2.219
60526SOL    HW183475  11.050   5.112   2.272
60526SOL    HW283476  11.074   4.969   2.229
60527SOL     OW83477  11.284  10.259   9.113
60527SOL    HW183478  11.288  10.305   9.029
60527SOL    HW283479  11.375  10.245   9.138
60528SOL     OW83480  12.658  11.125  10.381
60528SOL    HW183481  12.591  11.134  10.449
60528SOL    HW283482  12.672  11.214  10.350
60529SOL     OW83483   0.481  13.984  13.175
60529SOL    HW183484   0.502  14.018  13.263
60529SOL    HW283485   0.468  14.063  13.122
60530SOL     OW83486   8.213  11.589   9.349
60530SOL    HW183487   8.306  11.568   9.344
60530SOL    HW283488   8.204  11.642   9.428
60531SOL     OW83489   4.362   8.812  11.599
60531SOL    HW183490   4.309   8.891  11.586
60531SOL    HW283491   4.300   8.740  11.587
60532SOL     OW83492  11.934   6.579   6.856
60532SOL    HW183493  11.960   6.657   6.806
60532SOL    HW283494  11.943   6.506   6.795
60533SOL     OW83495   4.790   6.714  12.916
60533SOL    HW183496   4.782   6.662  12.996
60533SOL    HW283497   4.832   6.795  12.944
60534SOL     OW83498   4.186  14.887  14.143
60534SOL    HW183499   4.130  14.866  14.218
60534SOL    HW283500   4.191   0.095  14.143
60535SOL     OW83501   5.348   4.678  14.652
60535SOL    HW183502   5.423   4.735  14.669
60535SOL    HW283503   5.331   4.635  14.736
60536SOL     OW83504  14.384  14.233   1.295
60536SOL    HW183505  14.319  14.216   1.226
60536SOL    HW283506  14.442  14.299   1.257
60537SOL     OW83507   1.829   8.087  13.720
60537SOL    HW183508   1.802   7.997  13.740
60537SOL    HW283509   1.750   8.127  13.683
60538SOL     OW83510   0.030   8.602   1.648
60538SOL    HW183511  14.851   8.553   1.599
60538SOL    HW283512   0.094   8.535   1.674
60539SOL     OW83513   3.761  14.190   3.561
60539SOL    HW183514   3.687  14.191   3.501
60539SOL    HW283515   3.722  14.171   3.646
60540SOL     OW83516   5.728  14.667   5.501
60540SOL    HW183517   5.666  14.687   5.431
60540SOL    HW283518   5.675  14.670   5.581
60541SOL     OW83519  12.858  14.398  10.349
60541SOL    HW183520  12.824  14.488  10.353
60541SOL    HW283521  12.952  14.408  10.336
60542SOL     OW83522   9.258  11.795   4.053
60542SOL    HW183523   9.340  11.761   4.091
60542SOL    HW283524   9.196  11.723   4.061
60543SOL     OW83525   4.794   9.504   7.903
60543SOL    HW183526   4.712   9.468   7.937
60543SOL    HW283527   4.840   9.428   7.867
60544SOL     OW83528  10.814  11.327  10.307
60544SOL    HW183529  10.722  11.322  10.281
60544SOL    HW283530  10.810  11.352  10.400
60545SOL     OW83531   0.248   7.683   7.159
60545SOL    HW183532   0.326   7.627   7.157
60545SOL    HW283533   0.180   7.630   7.117
60546SOL     OW83534  10.814  10.795   8.544
60546SOL    HW183535  10.841  10.880   8.578
60546SOL    HW283536  10.876  10.733   8.583
60547SOL     OW83537   1.473   7.080  12.178
60547SOL    HW183538   1.402   7.077  12.242
60547SOL    HW283539   1.552   7.090  12.230
60548SOL     OW83540   4.680   1.379  14.480
60548SOL    HW183541   4.596   1.345  14.451
60548SOL    HW283542   4.743   1.343  14.418
60549SOL     OW83543  11.823  12.917  13.993
60549SOL    HW183544  11.730  12.895  13.999
60549SOL    HW283545  11.868  12.834  14.005
60550SOL     OW83546  11.641   3.368   8.362
60550SOL    HW183547  11.636   3.400   8.452
60550SOL    HW283548  11.627   3.273   8.369
60551SOL     OW83549  13.074   1.474  14.672
60551SOL    HW183550  13.148   1.415  14.659
60551SOL    HW283551  13.113   1.552  14.712
60552SOL     OW83552   0.605   5.363  12.497
60552SOL    HW183553   0.587   5.347  12.405
60552SOL    HW283554   0.532   5.322  12.544
60553SOL     OW83555   8.005   4.229  13.174
60553SOL    HW183556   7.919   4.193  13.193
60553SOL    HW283557   8.066   4.169  13.217
60554SOL     OW83558   1.703   4.459   6.847
60554SOL    HW183559   1.646   4.388   6.819
60554SOL    HW283560   1.654   4.539   6.826
60555SOL     OW83561   5.232   7.290   1.303
60555SOL    HW183562   5.214   7.273   1.395
60555SOL    HW283563   5.147   7.310   1.265
60556SOL     OW83564  10.410   9.593   9.378
60556SOL    HW183565  10.379   9.516   9.424
60556SOL    HW283566  10.331   9.632   9.340
60557SOL     OW83567  12.421   0.481   2.812
60557SOL    HW183568  12.439   0.392   2.780
60557SOL    HW283569  12.376   0.524   2.739
60558SOL     OW83570  10.248   8.925   1.076
60558SOL    HW183571  10.283   8.880   1.153
60558SOL    HW283572  10.158   8.894   1.070
60559SOL     OW83573   4.121   0.447  12.650
60559SOL    HW183574   4.038   0.450  12.602
60559SOL    HW283575   4.097   0.417  12.737
60560SOL     OW83576   7.722   2.396   1.826
60560SOL    HW183577   7.663   2.343   1.879
60560SOL    HW283578   7.765   2.334   1.768
60561SOL     OW83579  12.103   1.490   3.555
60561SOL    HW183580  12.181   1.536   3.523
60561SOL    HW283581  12.076   1.435   3.481
60562SOL     OW83582   9.452   1.928  13.042
60562SOL    HW183583   9.364   1.902  13.018
60562SOL    HW283584   9.471   1.879  13.122
60563SOL     OW83585   4.760   8.055   9.269
60563SOL    HW183586   4.776   8.009   9.187
60563SOL    HW283587   4.788   8.145   9.253
60564SOL     OW83588   9.267   5.663  12.416
60564SOL    HW183589   9.262   5.751  12.379
60564SOL    HW283590   9.293   5.608  12.342
60565SOL     OW83591   9.685   1.391   3.456
60565SOL    HW183592   9.768   1.352   3.485
60565SOL    HW283593   9.663   1.344   3.375
60566SOL     OW83594   2.087   5.877   7.511
60566SOL    HW183595   2.128   5.912   7.590
60566SOL    HW283596   1.994   5.875   7.531
60567SOL     OW83597   8.276  12.929   8.500
60567SOL    HW183598   8.266  12.854   8.441
60567SOL    HW283599   8.333  12.989   8.452
60568SOL     OW83600  12.433  12.085  10.190
60568SOL    HW183601  12.393  12.082  10.278
60568SOL    HW283602  12.399  12.007  10.146
60569SOL     OW83603   8.967  10.582   5.256
60569SOL    HW183604   9.045  10.539   5.222
60569SOL    HW283605   8.990  10.675   5.261
60570SOL     OW83606   0.648   3.451   6.857
60570SOL    HW183607   0.636   3.496   6.941
60570SOL    HW283608   0.640   3.358   6.880
60571SOL     OW83609  13.350   9.490   4.188
60571SOL    HW183610  13.413   9.529   4.127
60571SOL    HW283611  13.287   9.445   4.131
60572SOL     OW83612   0.383   8.841  10.099
60572SOL    HW183613   0.442   8.793  10.158
60572SOL    HW283614   0.439   8.905  10.056
60573SOL     OW83615   6.831   2.864   1.566
60573SOL    HW183616   6.925   2.867   1.584
60573SOL    HW283617   6.795   2.939   1.614
60574SOL     OW83618   4.904   6.958   5.982
60574SOL    HW183619   4.876   7.047   6.002
60574SOL    HW283620   4.861   6.937   5.899
60575SOL     OW83621  11.622   8.403  12.009
60575SOL    HW183622  11.593   8.313  11.993
60575SOL    HW283623  11.645   8.436  11.923
60576SOL     OW83624  13.208   0.859   2.252
60576SOL    HW183625  13.127   0.808   2.256
60576SOL    HW283626  13.277   0.796   2.275
60577SOL     OW83627  10.039   6.516   6.653
60577SOL    HW183628  10.060   6.561   6.735
60577SOL    HW283629  10.064   6.425   6.669
60578SOL     OW83630   2.289  10.010   2.084
60578SOL    HW183631   2.279  10.105   2.082
60578SOL    HW283632   2.379   9.995   2.113
60579SOL     OW83633   2.831  10.762   6.155
60579SOL    HW183634   2.914  10.778   6.109
60579SOL    HW283635   2.820  10.667   6.151
60580SOL     OW83636   2.856   5.317   4.278
60580SOL    HW183637   2.878   5.278   4.194
60580SOL    HW283638   2.906   5.399   4.280
60581SOL     OW83639   7.566   1.142   0.375
60581SOL    HW183640   7.652   1.107   0.352
60581SOL    HW283641   7.521   1.149   0.291
60582SOL     OW83642  14.250   0.214   2.887
60582SOL    HW183643  14.271   0.208   2.794
60582SOL    HW283644  14.327   0.255   2.926
60583SOL     OW83645   9.268   7.138   5.968
60583SOL    HW183646   9.348   7.165   6.013
60583SOL    HW283647   9.213   7.102   6.038
60584SOL     OW83648   8.503   4.402   6.415
60584SOL    HW183649   8.455   4.338   6.467
60584SOL    HW283650   8.446   4.479   6.414
60585SOL     OW83651  11.280   5.343  11.771
60585SOL    HW183652  11.372   5.370  11.780
60585SOL    HW283653  11.244   5.401  11.704
60586SOL     OW83654  12.065   9.507   4.628
60586SOL    HW183655  12.085   9.584   4.575
60586SOL    HW283656  12.133   9.506   4.695
60587SOL     OW83657  14.612   8.216   5.053
60587SOL    HW183658  14.621   8.268   4.973
60587SOL    HW283659  14.687   8.241   5.106
60588SOL     OW83660   0.338   3.844   6.063
60588SOL    HW183661   0.345   3.923   6.117
60588SOL    HW283662   0.295   3.780   6.120
60589SOL     OW83663   4.283   1.953   2.111
60589SOL    HW183664   4.350   1.900   2.068
60589SOL    HW283665   4.330   2.000   2.179
60590SOL     OW83666  11.240   3.329   6.732
60590SOL    HW183667  11.258   3.354   6.641
60590SOL    HW283668  11.261   3.408   6.783
60591SOL     OW83669   8.817   1.515   6.906
60591SOL    HW183670   8.725   1.544   6.903
60591SOL    HW283671   8.823   1.462   6.985
60592SOL     OW83672   4.473   7.680  13.562
60592SOL    HW183673   4.401   7.636  13.608
60592SOL    HW283674   4.502   7.748  13.623
60593SOL     OW83675   5.786  10.600  12.171
60593SOL    HW183676   5.813  10.630  12.258
60593SOL    HW283677   5.837  10.655  12.110
60594SOL     OW83678   1.059   4.509   5.259
60594SOL    HW183679   1.069   4.533   5.352
60594SOL    HW283680   1.056   4.414   5.260
60595SOL     OW83681  13.512   5.990  12.846
60595SOL    HW183682  13.442   5.928  12.825
60595SOL    HW283683  13.466   6.072  12.866
60596SOL     OW83684   9.187   1.717   9.940
60596SOL    HW183685   9.226   1.798   9.908
60596SOL    HW283686   9.165   1.734  10.031
60597SOL     OW83687   6.895  12.447   3.796
60597SOL    HW183688   6.922  12.370   3.847
60597SOL    HW283689   6.801  12.456   3.815
60598SOL     OW83690   4.250   6.823   7.310
60598SOL    HW183691   4.165   6.862   7.329
60598SOL    HW283692   4.252   6.815   7.215
60599SOL     OW83693  14.095   0.546  10.290
60599SOL    HW183694  14.128   0.547  10.380
60599SOL    HW283695  14.022   0.608  10.290
60600SOL     OW83696   9.483  10.988   9.796
60600SOL    HW183697   9.456  10.902   9.762
60600SOL    HW283698   9.484  11.045   9.719
60601SOL     OW83699   4.857  14.301   8.495
60601SOL    HW183700   4.895  14.283   8.409
60601SOL    HW283701   4.896  14.235   8.552
60602SOL     OW83702   9.000   5.942   3.876
60602SOL    HW183703   9.079   5.895   3.902
60602SOL    HW283704   8.944   5.876   3.836
60603SOL     OW83705   9.921   4.033   5.364
60603SOL    HW183706   9.951   3.986   5.286
60603SOL    HW283707   9.970   4.115   5.363
60604SOL     OW83708  12.386  13.021   1.161
60604SOL    HW183709  12.312  12.965   1.184
60604SOL    HW283710  12.346  13.103   1.132
60605SOL     OW83711   1.514   1.812  10.916
60605SOL    HW183712   1.461   1.778  10.844
60605SOL    HW283713   1.597   1.837  10.876
60606SOL     OW83714  10.289  11.148  11.926
60606SOL    HW183715  10.385  11.154  11.924
60606SOL    HW283716  10.261  11.229  11.967
60607SOL     OW83717   8.520   8.611   2.720
60607SOL    HW183718   8.429   8.620   2.748
60607SOL    HW283719   8.564   8.689   2.755
60608SOL     OW83720   1.821   4.502   1.701
60608SOL    HW183721   1.853   4.442   1.634
60608SOL    HW283722   1.899   4.546   1.734
60609SOL     OW83723  12.290   2.739   2.606
60609SOL    HW183724  12.315   2.722   2.515
60609SOL    HW283725  12.370   2.724   2.656
60610SOL     OW83726   9.453   8.026   2.883
60610SOL    HW183727   9.389   8.037   2.813
60610SOL    HW283728   9.400   8.015   2.962
60611SOL     OW83729  11.733  10.632   3.965
60611SOL    HW183730  11.755  10.642   3.872
60611SOL    HW283731  11.724  10.722   3.997
60612SOL     OW83732   7.358  14.059  11.151
60612SOL    HW183733   7.313  13.975  11.164
60612SOL    HW283734   7.323  14.115  11.220
60613SOL     OW83735  13.804  10.633   4.695
60613SOL    HW183736  13.851  10.563   4.650
60613SOL    HW283737  13.810  10.708   4.636
60614SOL     OW83738  10.468  10.497  14.772
60614SOL    HW183739  10.414  10.470  14.698
60614SOL    HW283740  10.555  10.462  14.751
60615SOL     OW83741   6.791  11.513  10.694
60615SOL    HW183742   6.775  11.520  10.600
60615SOL    HW283743   6.710  11.545  10.735
60616SOL     OW83744   5.714   1.373  11.012
60616SOL    HW183745   5.738   1.376  11.105
60616SOL    HW283746   5.782   1.425  10.969
60617SOL     OW83747   9.949   6.199   0.217
60617SOL    HW183748  10.007   6.141   0.265
60617SOL    HW283749   9.866   6.195   0.265
60618SOL     OW83750   3.547   5.186  10.281
60618SOL    HW183751   3.598   5.124  10.229
60618SOL    HW283752   3.470   5.205  10.227
60619SOL     OW83753  11.521  11.620   3.026
60619SOL    HW183754  11.457  11.688   3.048
60619SOL    HW283755  11.554  11.645   2.940
60620SOL     OW83756   6.724  11.293   7.874
60620SOL    HW183757   6.655  11.273   7.938
60620SOL    HW283758   6.778  11.360   7.917
60621SOL     OW83759  14.172   8.746   7.126
60621SOL    HW183760  14.201   8.655   7.130
60621SOL    HW283761  14.116   8.750   7.049
60622SOL     OW83762   4.365  14.504   1.845
60622SOL    HW183763   4.345  14.545   1.930
60622SOL    HW283764   4.325  14.563   1.781
60623SOL     OW83765   5.540   9.252   6.714
60623SOL    HW183766   5.615   9.309   6.695
60623SOL    HW283767   5.467   9.293   6.668
60624SOL     OW83768  10.983  12.406  10.468
60624SOL    HW183769  11.059  12.427  10.414
60624SOL    HW283770  10.962  12.315  10.447
60625SOL     OW83771   9.167   8.254   9.720
60625SOL    HW183772   9.241   8.201   9.748
60625SOL    HW283773   9.094   8.222   9.773
60626SOL     OW83774  12.301  12.430   4.728
60626SOL    HW183775  12.222  12.465   4.687
60626SOL    HW283776  12.372  12.455   4.669
60627SOL     OW83777   9.434   6.860  14.311
60627SOL    HW183778   9.448   6.877  14.404
60627SOL    HW283779   9.349   6.817  14.307
60628SOL     OW83780   1.427   7.021  12.795
60628SOL    HW183781   1.397   6.957  12.730
60628SOL    HW283782   1.407   6.980  12.879
60629SOL     OW83783  13.244  11.198  10.461
60629SOL    HW183784  13.331  11.184  10.425
60629SOL    HW283785  13.259  11.233  10.548
60630SOL     OW83786   7.618   6.536  11.796
60630SOL    HW183787   7.589   6.460  11.746
60630SOL    HW283788   7.651   6.500  11.878
60631SOL     OW83789   0.626  12.005   4.069
60631SOL    HW183790   0.707  11.981   4.024
60631SOL    HW283791   0.644  12.091   4.107
60632SOL     OW83792   6.361  12.470  13.433
60632SOL    HW183793   6.374  12.547  13.377
60632SOL    HW283794   6.344  12.399  13.372
60633SOL     OW83795  10.393   5.969   2.911
60633SOL    HW183796  10.422   5.983   3.001
60633SOL    HW283797  10.467   5.999   2.857
60634SOL     OW83798   6.605  12.675  14.562
60634SOL    HW183799   6.682  12.707  14.609
60634SOL    HW283800   6.583  12.745  14.501
60635SOL     OW83801   8.465  10.397  13.334
60635SOL    HW183802   8.459  10.340  13.411
60635SOL    HW283803   8.378  10.390  13.293
60636SOL     OW83804   9.814  12.891   8.430
60636SOL    HW183805   9.891  12.862   8.380
60636SOL    HW283806   9.818  12.986   8.427
60637SOL     OW83807   8.884  12.199  14.287
60637SOL    HW183808   8.960  12.202  14.228
60637SOL    HW283809   8.854  12.290  14.291
60638SOL     OW83810   0.529   2.026   7.865
60638SOL    HW183811   0.447   2.000   7.823
60638SOL    HW283812   0.505   2.043   7.956
60639SOL     OW83813   7.005  14.413   1.796
60639SOL    HW183814   6.997  14.369   1.712
60639SOL    HW283815   6.936  14.479   1.795
60640SOL     OW83816  10.691   7.619   7.967
60640SOL    HW183817  10.757   7.606   7.898
60640SOL    HW283818  10.680   7.714   7.972
60641SOL     OW83819   3.462   4.115   0.190
60641SOL    HW183820   3.438   4.171   0.116
60641SOL    HW283821   3.496   4.036   0.149
60642SOL     OW83822   9.798   6.824   2.904
60642SOL    HW183823   9.714   6.871   2.906
60642SOL    HW283824   9.774   6.732   2.901
60643SOL     OW83825  13.984   8.763  12.825
60643SOL    HW183826  13.999   8.672  12.802
60643SOL    HW283827  13.894   8.781  12.797
60644SOL     OW83828   9.872   0.013   9.113
60644SOL    HW183829   9.795   0.046   9.160
60644SOL    HW283830   9.836  14.851   9.039
60645SOL     OW83831   8.396   7.802  13.569
60645SOL    HW183832   8.341   7.777  13.495
60645SOL    HW283833   8.438   7.721  13.596
60646SOL     OW83834   8.136   0.181   0.859
60646SOL    HW183835   8.224   0.173   0.821
60646SOL    HW283836   8.149   0.231   0.939
60647SOL     OW83837   8.988   9.806   1.114
60647SOL    HW183838   9.002   9.720   1.075
60647SOL    HW283839   9.033   9.867   1.055
60648SOL     OW83840   4.703   1.721  14.115
60648SOL    HW183841   4.753   1.728  14.034
60648SOL    HW283842   4.687   1.628  14.126
60649SOL     OW83843   4.765  11.017   7.815
60649SOL    HW183844   4.841  11.075   7.807
60649SOL    HW283845   4.689  11.074   7.806
60650SOL     OW83846  10.864   8.917   4.593
60650SOL    HW183847  10.821   8.850   4.646
60650SOL    HW283848  10.921   8.964   4.655
60651SOL     OW83849   1.992   3.789   4.488
60651SOL    HW183850   1.991   3.748   4.574
60651SOL    HW283851   2.044   3.868   4.499
60652SOL     OW83852   8.004   6.470   8.741
60652SOL    HW183853   8.046   6.534   8.684
60652SOL    HW283854   8.045   6.484   8.826
60653SOL     OW83855   2.104   2.385  11.264
60653SOL    HW183856   2.026   2.346  11.304
60653SOL    HW283857   2.175   2.362  11.324
60654SOL     OW83858   0.048   5.554   4.717
60654SOL    HW183859  14.879   5.502   4.660
60654SOL    HW283860   0.004   5.553   4.802
60655SOL     OW83861  11.107   1.435   5.230
60655SOL    HW183862  11.193   1.438   5.189
60655SOL    HW283863  11.057   1.504   5.187
60656SOL     OW83864   8.590   9.140   2.328
60656SOL    HW183865   8.613   9.232   2.314
60656SOL    HW283866   8.507   9.129   2.283
60657SOL     OW83867  13.598   9.449   1.681
60657SOL    HW183868  13.670   9.386   1.678
60657SOL    HW283869  13.543   9.419   1.753
60658SOL     OW83870   5.322  14.679   1.726
60658SOL    HW183871   5.283  14.637   1.803
60658SOL    HW283872   5.248  14.701   1.670
60659SOL     OW83873   2.806   5.493   3.083
60659SOL    HW183874   2.764   5.478   3.168
60659SOL    HW283875   2.839   5.407   3.058
60660SOL     OW83876   9.140   5.823   8.360
60660SOL    HW183877   9.071   5.860   8.415
60660SOL    HW283878   9.193   5.771   8.420
60661SOL     OW83879  12.102   8.316   6.421
60661SOL    HW183880  12.158   8.385   6.459
60661SOL    HW283881  12.142   8.234   6.451
60662SOL     OW83882  10.544   4.038  14.458
60662SOL    HW183883  10.583   4.089  14.528
60662SOL    HW283884  10.469   3.994  14.499
60663SOL     OW83885  11.135  14.823   5.387
60663SOL    HW183886  11.214  14.812   5.334
60663SOL    HW283887  11.064  14.799   5.328
60664SOL     OW83888  13.307   5.413  14.542
60664SOL    HW183889  13.341   5.466  14.614
60664SOL    HW283890  13.212   5.423  14.548
60665SOL     OW83891   6.904   5.257   9.484
60665SOL    HW183892   6.945   5.173   9.503
60665SOL    HW283893   6.975   5.321   9.488
60666SOL     OW83894   7.775  11.112   7.487
60666SOL    HW183895   7.775  11.207   7.479
60666SOL    HW283896   7.860  11.085   7.450
60667SOL     OW83897  14.326   4.268   9.583
60667SOL    HW183898  14.317   4.264   9.678
60667SOL    HW283899  14.246   4.228   9.549
60668SOL     OW83900   3.191   6.000   1.965
60668SOL    HW183901   3.148   5.943   2.029
60668SOL    HW283902   3.148   5.979   1.881
60669SOL     OW83903  12.619  10.350   8.526
60669SOL    HW183904  12.535  10.313   8.499
60669SOL    HW283905  12.630  10.427   8.471
60670SOL     OW83906   7.606  13.888   4.791
60670SOL    HW183907   7.557  13.921   4.866
60670SOL    HW283908   7.575  13.939   4.717
60671SOL     OW83909   0.869   1.447   0.088
60671SOL    HW183910   0.822   1.462   0.006
60671SOL    HW283911   0.836   1.363   0.120
60672SOL     OW83912   3.927   3.469  11.916
60672SOL    HW183913   3.911   3.457  11.822
60672SOL    HW283914   3.909   3.383  11.954
60673SOL     OW83915   5.638   8.597   7.699
60673SOL    HW183916   5.638   8.668   7.763
60673SOL    HW283917   5.720   8.551   7.714
60674SOL     OW83918  13.002  10.998  13.149
60674SOL    HW183919  13.047  10.919  13.122
60674SOL    HW283920  12.912  10.970  13.164
60675SOL     OW83921   5.824   7.835  13.989
60675SOL    HW183922   5.884   7.760  13.989
60675SOL    HW283923   5.786   7.836  13.901
60676SOL     OW83924   6.009  10.174  10.657
60676SOL    HW183925   6.068  10.249  10.649
60676SOL    HW283926   5.974  10.181  10.746
60677SOL     OW83927   1.427  12.434   4.299
60677SOL    HW183928   1.377  12.356   4.274
60677SOL    HW283929   1.363  12.505   4.294
60678SOL     OW83930  13.897   4.461   0.346
60678SOL    HW183931  13.967   4.443   0.283
60678SOL    HW283932  13.912   4.399   0.417
60679SOL     OW83933   3.668   8.619   4.943
60679SOL    HW183934   3.603   8.669   4.892
60679SOL    HW283935   3.641   8.528   4.933
60680SOL     OW83936   0.442   2.902  14.809
60680SOL    HW183937   0.446   2.904   0.017
60680SOL    HW283938   0.359   2.861  14.789
60681SOL     OW83939  14.034   5.278  11.276
60681SOL    HW183940  14.014   5.206  11.216
60681SOL    HW283941  14.116   5.252  11.319
60682SOL     OW83942  11.064   6.001   7.768
60682SOL    HW183943  11.004   5.932   7.737
60682SOL    HW283944  11.145   5.985   7.720
60683SOL     OW83945   1.556  14.712  13.188
60683SOL    HW183946   1.530  14.737  13.099
60683SOL    HW283947   1.528  14.621  13.196
60684SOL     OW83948   7.192   6.453   2.309
60684SOL    HW183949   7.184   6.455   2.214
60684SOL    HW283950   7.187   6.545   2.336
60685SOL     OW83951   2.242  12.850   1.141
60685SOL    HW183952   2.227  12.904   1.064
60685SOL    HW283953   2.171  12.874   1.202
60686SOL     OW83954   1.963   6.213   7.979
60686SOL    HW183955   1.912   6.136   8.006
60686SOL    HW283956   1.999   6.248   8.061
60687SOL     OW83957   5.774   9.010   6.577
60687SOL    HW183958   5.845   8.962   6.534
60687SOL    HW283959   5.817   9.056   6.649
60688SOL     OW83960   6.234   9.752   2.389
60688SOL    HW183961   6.261   9.716   2.305
60688SOL    HW283962   6.263   9.843   2.387
60689SOL     OW83963   4.810   4.463   3.543
60689SOL    HW183964   4.783   4.503   3.625
60689SOL    HW283965   4.732   4.466   3.488
60690SOL     OW83966  12.892   0.661   2.019
60690SOL    HW183967  12.915   0.692   2.106
60690SOL    HW283968  12.973   0.667   1.968
60691SOL     OW83969   6.578   4.045   6.858
60691SOL    HW183970   6.600   4.031   6.766
60691SOL    HW283971   6.662   4.037   6.904
60692SOL     OW83972  10.184   1.826  10.507
60692SOL    HW183973  10.094   1.830  10.539
60692SOL    HW283974  10.187   1.892  10.437
60693SOL     OW83975  14.804   5.505   9.331
60693SOL    HW183976  14.878   5.559   9.359
60693SOL    HW283977  14.727   5.560   9.348
60694SOL     OW83978   4.460  12.220   5.431
60694SOL    HW183979   4.522  12.171   5.377
60694SOL    HW283980   4.450  12.304   5.386
60695SOL     OW83981   9.904   0.578  10.258
60695SOL    HW183982   9.920   0.528  10.178
60695SOL    HW283983   9.983   0.630  10.271
60696SOL     OW83984   6.545   3.477   1.952
60696SOL    HW183985   6.496   3.549   1.992
60696SOL    HW283986   6.607   3.520   1.893
60697SOL     OW83987   0.373   3.143  14.632
60697SOL    HW183988   0.325   3.146  14.714
60697SOL    HW283989   0.448   3.086  14.650
60698SOL     OW83990   3.413  14.467   9.398
60698SOL    HW183991   3.353  14.466   9.473
60698SOL    HW283992   3.382  14.541   9.345
60699SOL     OW83993   4.492  10.386  12.607
60699SOL    HW183994   4.441  10.321  12.558
60699SOL    HW283995   4.489  10.355  12.697
60700SOL     OW83996   5.230   4.359   7.537
60700SOL    HW183997   5.161   4.330   7.477
60700SOL    HW283998   5.188   4.358   7.623
60701SOL     OW83999   1.722   9.899   7.528
60701SOL    HW184000   1.771   9.933   7.603
60701SOL    HW284001   1.654   9.844   7.567
60702SOL     OW84002   7.997   1.347  13.532
60702SOL    HW184003   7.946   1.281  13.486
60702SOL    HW284004   8.088   1.330  13.507
60703SOL     OW84005   9.509   2.333   4.756
60703SOL    HW184006   9.526   2.414   4.708
60703SOL    HW284007   9.426   2.301   4.721
60704SOL     OW84008   8.449  12.509  11.439
60704SOL    HW184009   8.447  12.596  11.398
60704SOL    HW284010   8.383  12.460  11.391
60705SOL     OW84011   8.805   5.561   8.279
60705SOL    HW184012   8.745   5.616   8.329
60705SOL    HW284013   8.844   5.620   8.215
60706SOL     OW84014   4.908  10.578   6.407
60706SOL    HW184015   4.855  10.507   6.443
60706SOL    HW284016   4.990  10.537   6.383
60707SOL     OW84017  10.959   1.181   8.428
60707SOL    HW184018  10.945   1.213   8.339
60707SOL    HW284019  11.030   1.235   8.462
60708SOL     OW84020   3.039  11.794   0.934
60708SOL    HW184021   3.114  11.846   0.961
60708SOL    HW284022   3.046  11.790   0.838
60709SOL     OW84023   7.108   7.135   6.017
60709SOL    HW184024   7.198   7.105   6.025
60709SOL    HW284025   7.115   7.230   6.009
60710SOL     OW84026   9.939   9.110   0.025
60710SOL    HW184027   9.897   9.047  14.854
60710SOL    HW284028  10.026   9.074   0.041
60711SOL     OW84029   5.758  14.376   9.619
60711SOL    HW184030   5.690  14.312   9.643
60711SOL    HW284031   5.732  14.406   9.532
60712SOL     OW84032  14.706   7.894   9.947
60712SOL    HW184033  14.749   7.808   9.948
60712SOL    HW284034  14.661   7.899  10.031
60713SOL     OW84035   9.704   2.933  10.576
60713SOL    HW184036   9.678   2.881  10.500
60713SOL    HW284037   9.626   2.984  10.598
60714SOL     OW84038   0.744   6.596   8.745
60714SOL    HW184039   0.687   6.519   8.737
60714SOL    HW284040   0.713   6.656   8.677
60715SOL     OW84041   4.545  12.663   9.671
60715SOL    HW184042   4.531  12.571   9.647
60715SOL    HW284043   4.640  12.669   9.684
60716SOL     OW84044  13.064   2.926  12.577
60716SOL    HW184045  13.033   3.003  12.531
60716SOL    HW284046  13.039   2.852  12.522
60717SOL     OW84047   5.342   4.474  14.205
60717SOL    HW184048   5.334   4.556  14.156
60717SOL    HW284049   5.350   4.500  14.296
60718SOL     OW84050   0.233   3.987   1.140
60718SOL    HW184051   0.169   4.056   1.122
60718SOL    HW284052   0.181   3.915   1.178
60719SOL     OW84053   7.298  10.895  10.504
60719SOL    HW184054   7.360  10.963  10.529
60719SOL    HW284055   7.293  10.900  10.408
60720SOL     OW84056  14.347  10.226   6.107
60720SOL    HW184057  14.432  10.246   6.147
60720SOL    HW284058  14.364  10.226   6.013
60721SOL     OW84059  12.175  14.657   4.633
60721SOL    HW184060  12.103  14.599   4.610
60721SOL    HW284061  12.167  14.730   4.571
60722SOL     OW84062  14.412   0.882   5.953
60722SOL    HW184063  14.368   0.966   5.962
60722SOL    HW284064  14.454   0.886   5.867
60723SOL     OW84065   9.470   9.045  11.648
60723SOL    HW184066   9.469   8.956  11.684
60723SOL    HW284067   9.483   9.033  11.554
60724SOL     OW84068   3.028   0.192   8.930
60724SOL    HW184069   3.106   0.244   8.914
60724SOL    HW284070   3.020   0.187   9.025
60725SOL     OW84071   2.369   0.682   3.593
60725SOL    HW184072   2.399   0.601   3.636
60725SOL    HW284073   2.449   0.730   3.574
60726SOL     OW84074   5.853   7.106  12.911
60726SOL    HW184075   5.826   7.056  12.834
60726SOL    HW284076   5.842   7.197  12.887
60727SOL     OW84077  13.391   1.904   5.948
60727SOL    HW184078  13.425   1.993   5.959
60727SOL    HW284079  13.302   1.908   5.982
60728SOL     OW84080  10.347   6.681  14.693
60728SOL    HW184081  10.442   6.667  14.683
60728SOL    HW284082  10.307   6.612  14.641
60729SOL     OW84083   2.058   3.634   4.724
60729SOL    HW184084   1.978   3.649   4.775
60729SOL    HW284085   2.123   3.689   4.766
60730SOL     OW84086   3.414   5.010  14.036
60730SOL    HW184087   3.370   5.091  14.063
60730SOL    HW284088   3.459   5.035  13.955
60731SOL     OW84089   3.723   6.084   0.056
60731SOL    HW184090   3.741   6.069   0.149
60731SOL    HW284091   3.683   6.171   0.053
60732SOL     OW84092   5.317  13.390   5.010
60732SOL    HW184093   5.273  13.336   5.076
60732SOL    HW284094   5.304  13.344   4.928
60733SOL     OW84095   9.211   9.603   0.063
60733SOL    HW184096   9.161   9.616   0.143
60733SOL    HW284097   9.228   9.509   0.060
60734SOL     OW84098   4.406  14.650   2.743
60734SOL    HW184099   4.416  14.714   2.673
60734SOL    HW284100   4.342  14.588   2.709
60735SOL     OW84101   2.608   1.407  14.251
60735SOL    HW184102   2.686   1.385  14.301
60735SOL    HW284103   2.638   1.414  14.160
60736SOL     OW84104  12.683   2.057   4.999
60736SOL    HW184105  12.691   2.016   5.085
60736SOL    HW284106  12.769   2.048   4.959
60737SOL     OW84107   4.724   9.006  12.605
60737SOL    HW184108   4.649   9.051  12.644
60737SOL    HW284109   4.687   8.927  12.565
60738SOL     OW84110  11.835   4.719   8.262
60738SOL    HW184111  11.749   4.743   8.227
60738SOL    HW284112  11.897   4.768   8.209
60739SOL     OW84113   7.052  13.923  13.085
60739SOL    HW184114   7.139  13.963  13.096
60739SOL    HW284115   7.053  13.847  13.144
60740SOL     OW84116  10.786  13.266  12.504
60740SOL    HW184117  10.837  13.268  12.423
60740SOL    HW284118  10.773  13.173  12.521
60741SOL     OW84119   2.263   5.286   3.537
60741SOL    HW184120   2.278   5.381   3.530
60741SOL    HW284121   2.335   5.254   3.591
60742SOL     OW84122  13.292  14.501   4.434
60742SOL    HW184123  13.204  14.466   4.418
60742SOL    HW284124  13.347  14.458   4.369
60743SOL     OW84125   6.503   1.395   8.669
60743SOL    HW184126   6.424   1.365   8.625
60743SOL    HW284127   6.493   1.490   8.676
60744SOL     OW84128   1.460   0.624  10.822
60744SOL    HW184129   1.540   0.630  10.874
60744SOL    HW284130   1.393   0.664  10.877
60745SOL     OW84131   2.250   5.217  11.323
60745SOL    HW184132   2.224   5.235  11.414
60745SOL    HW284133   2.340   5.249  11.317
60746SOL     OW84134  10.403   6.517   2.472
60746SOL    HW184135  10.414   6.575   2.547
60746SOL    HW284136  10.489   6.479   2.457
60747SOL     OW84137   7.805  13.997   2.744
60747SOL    HW184138   7.880  13.951   2.706
60747SOL    HW284139   7.783  13.946   2.823
60748SOL     OW84140   0.054  12.964  11.673
60748SOL    HW184141  14.878  12.898  11.700
60748SOL    HW284142   0.038  13.039  11.731
60749SOL     OW84143   5.110   7.530   1.703
60749SOL    HW184144   5.095   7.528   1.798
60749SOL    HW284145   5.077   7.616   1.675
60750SOL     OW84146   6.688   5.857   2.128
60750SOL    HW184147   6.709   5.847   2.221
60750SOL    HW284148   6.593   5.849   2.124
60751SOL     OW84149   1.532  14.716  10.316
60751SOL    HW184150   1.510  14.783  10.250
60751SOL    HW284151   1.599  14.758  10.370
60752SOL     OW84152  11.660   8.836   1.448
60752SOL    HW184153  11.675   8.764   1.510
60752SOL    HW284154  11.565   8.833   1.432
60753SOL     OW84155  10.606   2.729  13.262
60753SOL    HW184156  10.557   2.661  13.215
60753SOL    HW284157  10.545   2.802  13.270
60754SOL     OW84158  11.316   7.514  14.275
60754SOL    HW184159  11.306   7.600  14.235
60754SOL    HW284160  11.311   7.530  14.369
60755SOL     OW84161   0.661   8.879   5.525
60755SOL    HW184162   0.733   8.941   5.522
60755SOL    HW284163   0.659   8.840   5.438
60756SOL     OW84164  10.764   8.770   4.784
60756SOL    HW184165  10.683   8.784   4.835
60756SOL    HW284166  10.768   8.675   4.771
60757SOL     OW84167   2.004   9.952   1.589
60757SOL    HW184168   2.016   9.943   1.684
60757SOL    HW284169   2.062   9.887   1.551
60758SOL     OW84170  11.417   4.556   5.579
60758SOL    HW184171  11.359   4.630   5.565
60758SOL    HW284172  11.500   4.595   5.606
60759SOL     OW84173   7.366  12.491  14.305
60759SOL    HW184174   7.407  12.404  14.311
60759SOL    HW284175   7.300  12.491  14.374
60760SOL     OW84176   9.765   2.686   1.536
60760SOL    HW184177   9.775   2.665   1.629
60760SOL    HW284178   9.672   2.674   1.519
60761SOL     OW84179   2.758  11.987   2.168
60761SOL    HW184180   2.833  11.965   2.222
60761SOL    HW284181   2.773  12.077   2.140
60762SOL     OW84182   2.206   7.620   2.091
60762SOL    HW184183   2.262   7.594   2.018
60762SOL    HW284184   2.185   7.712   2.074
60763SOL     OW84185  14.475   5.949   4.987
60763SOL    HW184186  14.516   6.029   5.020
60763SOL    HW284187  14.383   5.957   5.012
60764SOL     OW84188   3.200  14.231  10.281
60764SOL    HW184189   3.197  14.265  10.192
60764SOL    HW284190   3.186  14.309  10.336
60765SOL     OW84191   2.814  12.897   5.045
60765SOL    HW184192   2.856  12.828   4.993
60765SOL    HW284193   2.884  12.931   5.102
60766SOL     OW84194  12.316  14.363  10.488
60766SOL    HW184195  12.357  14.351  10.402
60766SOL    HW284196  12.294  14.456  10.491
60767SOL     OW84197   5.682  14.520  14.843
60767SOL    HW184198   5.631  14.535   0.034
60767SOL    HW284199   5.702  14.608  14.810
60768SOL     OW84200   9.476   3.382   7.955
60768SOL    HW184201   9.437   3.313   8.007
60768SOL    HW284202   9.433   3.462   7.984
60769SOL     OW84203  13.395  11.634  13.814
60769SOL    HW184204  13.461  11.700  13.795
60769SOL    HW284205  13.390  11.580  13.734
60770SOL     OW84206  12.818   4.515   4.814
60770SOL    HW184207  12.862   4.430   4.819
60770SOL    HW284208  12.770   4.512   4.732
60771SOL     OW84209   7.666   9.661   0.324
60771SOL    HW184210   7.681   9.592   0.389
60771SOL    HW284211   7.695   9.741   0.366
60772SOL     OW84212   8.832   9.518   5.387
60772SOL    HW184213   8.889   9.456   5.431
60772SOL    HW284214   8.863   9.604   5.417
60773SOL     OW84215   3.620   4.927   6.122
60773SOL    HW184216   3.668   4.865   6.066
60773SOL    HW284217   3.591   4.874   6.196
60774SOL     OW84218   5.557   7.987   9.898
60774SOL    HW184219   5.642   7.995   9.941
60774SOL    HW284220   5.577   7.948   9.813
60775SOL     OW84221  14.191   6.175   8.599
60775SOL    HW184222  14.166   6.241   8.663
60775SOL    HW284223  14.203   6.224   8.518
60776SOL     OW84224   0.409   5.762   7.014
60776SOL    HW184225   0.502   5.764   7.038
60776SOL    HW284226   0.407   5.788   6.922
60777SOL     OW84227   6.336   1.557   2.577
60777SOL    HW184228   6.384   1.626   2.624
60777SOL    HW284229   6.287   1.605   2.510
60778SOL     OW84230  13.773   2.716   6.746
60778SOL    HW184231  13.749   2.726   6.839
60778SOL    HW284232  13.700   2.668   6.708
60779SOL     OW84233  13.113   6.014  14.476
60779SOL    HW184234  13.185   6.031  14.416
60779SOL    HW284235  13.136   5.931  14.518
60780SOL     OW84236   2.163   2.243  10.963
60780SOL    HW184237   2.229   2.270  10.900
60780SOL    HW284238   2.139   2.324  11.008
60781SOL     OW84239   6.152   9.036   7.863
60781SOL    HW184240   6.207   9.103   7.821
60781SOL    HW284241   6.113   8.988   7.791
60782SOL     OW84242   9.201   4.305  12.909
60782SOL    HW184243   9.194   4.255  12.990
60782SOL    HW284244   9.112   4.307  12.874
60783SOL     OW84245  11.791  12.005  13.559
60783SOL    HW184246  11.727  12.051  13.503
60783SOL    HW284247  11.753  12.008  13.646
60784SOL     OW84248   8.395   9.602   2.109
60784SOL    HW184249   8.313   9.651   2.114
60784SOL    HW284250   8.454   9.647   2.170
60785SOL     OW84251  13.805   5.297   5.936
60785SOL    HW184252  13.843   5.325   6.020
60785SOL    HW284253  13.711   5.300   5.950
60786SOL     OW84254  14.124   0.330  11.736
60786SOL    HW184255  14.083   0.251  11.771
60786SOL    HW284256  14.087   0.339  11.648
60787SOL     OW84257   8.173  13.238  14.001
60787SOL    HW184258   8.170  13.160  14.057
60787SOL    HW284259   8.223  13.210  13.924
60788SOL     OW84260   2.570   6.042   7.475
60788SOL    HW184261   2.625   6.117   7.497
60788SOL    HW284262   2.516   6.027   7.553
60789SOL     OW84263  11.541   6.467   5.131
60789SOL    HW184264  11.574   6.552   5.103
60789SOL    HW284265  11.526   6.476   5.225
60790SOL     OW84266  10.809   4.874   1.204
60790SOL    HW184267  10.856   4.795   1.228
60790SOL    HW284268  10.840   4.941   1.264
60791SOL     OW84269   6.022   2.179  11.006
60791SOL    HW184270   5.955   2.178  10.937
60791SOL    HW284271   5.973   2.169  11.087
60792SOL     OW84272  14.472   0.764  11.598
60792SOL    HW184273  14.566   0.752  11.586
60792SOL    HW284274  14.462   0.852  11.634
60793SOL     OW84275   6.091   3.522   6.891
60793SOL    HW184276   6.097   3.566   6.806
60793SOL    HW284277   6.106   3.430   6.872
60794SOL     OW84278  12.581   9.174   2.506
60794SOL    HW184279  12.562   9.267   2.513
60794SOL    HW284280  12.496   9.133   2.493
60795SOL     OW84281   0.628   9.560  13.190
60795SOL    HW184282   0.603   9.544  13.281
60795SOL    HW284283   0.557   9.614  13.154
60796SOL     OW84284   9.511   0.285   9.631
60796SOL    HW184285   9.542   0.328   9.710
60796SOL    HW284286   9.425   0.250   9.655
60797SOL     OW84287   0.381   5.770  12.047
60797SOL    HW184288   0.414   5.849  12.004
60797SOL    HW284289   0.418   5.773  12.135
60798SOL     OW84290   6.435  14.240   9.388
60798SOL    HW184291   6.499  14.311   9.388
60798SOL    HW284292   6.481  14.167   9.429
60799SOL     OW84293  11.320   0.311  14.033
60799SOL    HW184294  11.276   0.358  13.961
60799SOL    HW284295  11.369   0.379  14.079
60800SOL     OW84296   2.027  11.994   3.092
60800SOL    HW184297   2.067  12.077   3.117
60800SOL    HW284298   1.961  11.977   3.159
60801SOL     OW84299   9.960   7.048   0.953
60801SOL    HW184300   9.887   6.990   0.975
60801SOL    HW284301   9.922   7.136   0.954
60802SOL     OW84302  10.793  14.545   6.151
60802SOL    HW184303  10.760  14.631   6.123
60802SOL    HW284304  10.724  14.510   6.207
60803SOL     OW84305   8.931   3.251   7.919
60803SOL    HW184306   8.905   3.326   7.972
60803SOL    HW284307   8.977   3.290   7.844
60804SOL     OW84308   4.133   7.889  10.596
60804SOL    HW184309   4.191   7.819  10.623
60804SOL    HW284310   4.192   7.959  10.565
60805SOL     OW84311  14.404  12.720   6.054
60805SOL    HW184312  14.433  12.806   6.022
60805SOL    HW284313  14.363  12.679   5.978
60806SOL     OW84314   6.891   0.166   4.941
60806SOL    HW184315   6.951   0.109   4.893
60806SOL    HW284316   6.817   0.178   4.881
60807SOL     OW84317   1.659  14.764   6.954
60807SOL    HW184318   1.719  14.725   6.891
60807SOL    HW284319   1.589  14.801   6.901
60808SOL     OW84320   8.294   2.713  13.336
60808SOL    HW184321   8.257   2.639  13.383
60808SOL    HW284322   8.308   2.681  13.247
60809SOL     OW84323   4.074   7.714  12.729
60809SOL    HW184324   4.099   7.623  12.742
60809SOL    HW284325   4.143   7.751  12.674
60810SOL     OW84326  13.615   8.690   8.280
60810SOL    HW184327  13.581   8.718   8.195
60810SOL    HW284328  13.563   8.613   8.303
60811SOL     OW84329   3.604   5.883  10.459
60811SOL    HW184330   3.511   5.862  10.453
60811SOL    HW284331   3.612   5.931  10.541
60812SOL     OW84332   6.018   9.858  12.036
60812SOL    HW184333   5.970   9.884  12.115
60812SOL    HW284334   5.950   9.839  11.972
60813SOL     OW84335  12.669   2.221   1.534
60813SOL    HW184336  12.712   2.239   1.618
60813SOL    HW284337  12.655   2.307   1.496
60814SOL     OW84338  11.702  11.196   6.575
60814SOL    HW184339  11.637  11.265   6.590
60814SOL    HW284340  11.727  11.206   6.483
60815SOL     OW84341   0.266  12.932   4.068
60815SOL    HW184342   0.288  12.992   3.997
60815SOL    HW284343   0.227  12.856   4.026
60816SOL     OW84344   0.134  10.918   6.801
60816SOL    HW184345   0.193  10.846   6.779
60816SOL    HW284346   0.132  10.921   6.896
60817SOL     OW84347   8.911   6.679   2.208
60817SOL    HW184348   8.819   6.702   2.222
60817SOL    HW284349   8.941   6.740   2.141
60818SOL     OW84350   4.649   2.220   5.265
60818SOL    HW184351   4.606   2.301   5.292
60818SOL    HW284352   4.695   2.244   5.185
60819SOL     OW84353   1.661   3.958  14.269
60819SOL    HW184354   1.640   3.948  14.176
60819SOL    HW284355   1.625   4.043  14.292
60820SOL     OW84356   4.649  14.355   7.121
60820SOL    HW184357   4.578  14.397   7.072
60820SOL    HW284358   4.656  14.267   7.083
60821SOL     OW84359   9.572   3.617   9.720
60821SOL    HW184360   9.637   3.656   9.778
60821SOL    HW284361   9.569   3.676   9.644
60822SOL     OW84362   4.670   4.944   9.970
60822SOL    HW184363   4.622   5.027   9.971
60822SOL    HW284364   4.750   4.964   9.920
60823SOL     OW84365   0.744  11.879   2.560
60823SOL    HW184366   0.838  11.867   2.550
60823SOL    HW284367   0.713  11.902   2.472
60824SOL     OW84368   6.496  10.967  12.332
60824SOL    HW184369   6.469  10.956  12.240
60824SOL    HW284370   6.547  10.888  12.351
60825SOL     OW84371   6.887   1.342   2.538
60825SOL    HW184372   6.861   1.260   2.495
60825SOL    HW284373   6.867   1.410   2.475
60826SOL     OW84374   8.837   3.783   9.763
60826SOL    HW184375   8.781   3.854   9.794
60826SOL    HW284376   8.903   3.825   9.709
60827SOL     OW84377   0.628  11.202  10.667
60827SOL    HW184378   0.588  11.184  10.582
60827SOL    HW284379   0.569  11.266  10.708
60828SOL     OW84380  14.091   7.206   5.524
60828SOL    HW184381  14.160   7.260   5.487
60828SOL    HW284382  14.093   7.224   5.618
60829SOL     OW84383  11.031   8.586   1.124
60829SOL    HW184384  11.033   8.610   1.217
60829SOL    HW284385  11.115   8.543   1.108
60830SOL     OW84386   6.554  12.273  12.360
60830SOL    HW184387   6.507  12.230  12.288
60830SOL    HW284388   6.635  12.223  12.369
60831SOL     OW84389   6.225  12.513   9.889
60831SOL    HW184390   6.243  12.559   9.971
60831SOL    HW284391   6.198  12.426   9.916
60832SOL     OW84392  12.802  10.601   0.457
60832SOL    HW184393  12.830  10.628   0.369
60832SOL    HW284394  12.859  10.650   0.516
60833SOL     OW84395  10.005   4.777  13.930
60833SOL    HW184396  10.088   4.766  13.976
60833SOL    HW284397   9.939   4.772  13.999
60834SOL     OW84398   3.637   1.430   9.414
60834SOL    HW184399   3.623   1.490   9.341
60834SOL    HW284400   3.550   1.399   9.438
60835SOL     OW84401  14.263   1.050   3.402
60835SOL    HW184402  14.321   1.127   3.410
60835SOL    HW284403  14.277   1.001   3.483
60836SOL     OW84404  14.499   7.447   4.637
60836SOL    HW184405  14.484   7.540   4.652
60836SOL    HW284406  14.527   7.413   4.723
60837SOL     OW84407   5.760  11.018  14.078
60837SOL    HW184408   5.690  11.071  14.040
60837SOL    HW284409   5.721  10.932  14.090
60838SOL     OW84410  10.162   4.956  10.772
60838SOL    HW184411  10.077   4.922  10.743
60838SOL    HW284412  10.222   4.883  10.761
60839SOL     OW84413   7.229  11.188   8.030
60839SOL    HW184414   7.194  11.272   7.999
60839SOL    HW284415   7.289  11.161   7.961
60840SOL     OW84416   6.739   6.603   1.310
60840SOL    HW184417   6.727   6.696   1.325
60840SOL    HW284418   6.710   6.562   1.392
60841SOL     OW84419   3.318   0.450   4.976
60841SOL    HW184420   3.358   0.386   5.034
60841SOL    HW284421   3.378   0.456   4.902
60842SOL     OW84422  10.878  10.161   0.915
60842SOL    HW184423  10.916  10.082   0.955
60842SOL    HW284424  10.867  10.138   0.823
60843SOL     OW84425   9.016  13.341  10.603
60843SOL    HW184426   9.052  13.420  10.564
60843SOL    HW284427   8.921  13.347  10.588
60844SOL     OW84428   0.155   5.412   3.673
60844SOL    HW184429   0.129   5.446   3.758
60844SOL    HW284430   0.137   5.318   3.677
60845SOL     OW84431   0.970  12.671   5.010
60845SOL    HW184432   0.978  12.713   4.924
60845SOL    HW284433   1.058  12.641   5.031
60846SOL     OW84434   7.751  14.489  14.563
60846SOL    HW184435   7.815  14.546  14.522
60846SOL    HW284436   7.776  14.401  14.536
60847SOL     OW84437   6.938  11.759   2.217
60847SOL    HW184438   6.912  11.836   2.268
60847SOL    HW284439   6.956  11.692   2.283
60848SOL     OW84440   9.262  10.140   1.054
60848SOL    HW184441   9.248  10.053   1.018
60848SOL    HW284442   9.209  10.142   1.134
60849SOL     OW84443   8.738  14.201  13.401
60849SOL    HW184444   8.824  14.240  13.417
60849SOL    HW284445   8.716  14.158  13.484
60850SOL     OW84446  12.921   7.110  12.323
60850SOL    HW184447  12.897   7.162  12.247
60850SOL    HW284448  12.897   7.020  12.299
60851SOL     OW84449   9.727   2.891   7.674
60851SOL    HW184450   9.784   2.869   7.747
60851SOL    HW284451   9.689   2.808   7.647
60852SOL     OW84452  14.437   6.231   0.958
60852SOL    HW184453  14.426   6.243   0.864
60852SOL    HW284454  14.350   6.203   0.989
60853SOL     OW84455   7.331   5.888   6.206
60853SOL    HW184456   7.402   5.900   6.143
60853SOL    HW284457   7.280   5.969   6.201
60854SOL     OW84458  12.196  14.167   8.971
60854SOL    HW184459  12.154  14.211   9.045
60854SOL    HW284460  12.289  14.166   8.995
60855SOL     OW84461  14.499  14.538   6.455
60855SOL    HW184462  14.416  14.494   6.439
60855SOL    HW284463  14.558  14.505   6.387
60856SOL     OW84464   7.323   6.101   2.954
60856SOL    HW184465   7.309   6.016   2.913
60856SOL    HW284466   7.378   6.082   3.030
60857SOL     OW84467   2.758  10.215  11.364
60857SOL    HW184468   2.782  10.145  11.303
60857SOL    HW284469   2.839  10.266  11.374
60858SOL     OW84470   3.308   2.738  12.325
60858SOL    HW184471   3.285   2.826  12.296
60858SOL    HW284472   3.390   2.749  12.373
60859SOL     OW84473   1.135  13.527  11.598
60859SOL    HW184474   1.040  13.531  11.590
60859SOL    HW284475   1.164  13.618  11.599
60860SOL     OW84476   9.741   7.461   9.032
60860SOL    HW184477   9.774   7.371   9.038
60860SOL    HW284478   9.647   7.451   9.022
60861SOL     OW84479   5.135   4.776  11.709
60861SOL    HW184480   5.163   4.696  11.754
60861SOL    HW284481   5.187   4.845  11.749
60862SOL     OW84482   9.439  10.430   9.746
60862SOL    HW184483   9.364  10.390   9.702
60862SOL    HW284484   9.515  10.395   9.700
60863SOL     OW84485  13.141   7.122   9.003
60863SOL    HW184486  13.070   7.119   8.939
60863SOL    HW284487  13.117   7.056   9.068
60864SOL     OW84488   5.631  11.857   8.425
60864SOL    HW184489   5.681  11.938   8.425
60864SOL    HW284490   5.654  11.815   8.508
60865SOL     OW84491  10.748  11.300   5.739
60865SOL    HW184492  10.765  11.390   5.710
60865SOL    HW284493  10.791  11.245   5.673
60866SOL     OW84494   8.714   8.589  14.087
60866SOL    HW184495   8.797   8.547  14.108
60866SOL    HW284496   8.730   8.682  14.101
60867SOL     OW84497   1.864   9.327  12.524
60867SOL    HW184498   1.814   9.387  12.580
60867SOL    HW284499   1.830   9.240  12.546
60868SOL     OW84500  14.618   5.211  11.864
60868SOL    HW184501  14.619   5.306  11.854
60868SOL    HW284502  14.569   5.196  11.945
60869SOL     OW84503   5.803  14.500  11.332
60869SOL    HW184504   5.883  14.469  11.374
60869SOL    HW284505   5.829  14.580  11.287
60870SOL     OW84506  13.759  14.170  10.439
60870SOL    HW184507  13.713  14.126  10.368
60870SOL    HW284508  13.842  14.122  10.446
60871SOL     OW84509   2.429   6.944  12.264
60871SOL    HW184510   2.401   6.909  12.348
60871SOL    HW284511   2.358   7.003  12.238
60872SOL     OW84512  10.478   6.707   0.978
60872SOL    HW184513  10.539   6.645   1.018
60872SOL    HW284514  10.394   6.662   0.979
60873SOL     OW84515   0.111   4.216   6.696
60873SOL    HW184516   0.117   4.125   6.725
60873SOL    HW284517   0.102   4.211   6.601
60874SOL     OW84518  14.158   0.807   7.169
60874SOL    HW184519  14.066   0.784   7.155
60874SOL    HW284520  14.184   0.854   7.090
60875SOL     OW84521   9.801  10.336   9.639
60875SOL    HW184522   9.867  10.339   9.709
60875SOL    HW284523   9.743  10.409   9.658
60876SOL     OW84524   3.139   1.050  11.139
60876SOL    HW184525   3.156   1.095  11.057
60876SOL    HW284526   3.189   1.098  11.205
60877SOL     OW84527  12.638   9.872   7.418
60877SOL    HW184528  12.561   9.823   7.445
60877SOL    HW284529  12.608   9.927   7.346
60878SOL     OW84530   9.893  11.344   4.706
60878SOL    HW184531   9.830  11.378   4.642
60878SOL    HW284532   9.894  11.250   4.691
60879SOL     OW84533   2.401   3.704   2.364
60879SOL    HW184534   2.457   3.626   2.370
60879SOL    HW284535   2.458   3.776   2.389
60880SOL     OW84536   8.974   2.856   9.580
60880SOL    HW184537   8.963   2.797   9.505
60880SOL    HW284538   8.967   2.944   9.543
60881SOL     OW84539   8.278   2.287  12.209
60881SOL    HW184540   8.259   2.355  12.144
60881SOL    HW284541   8.327   2.221  12.161
60882SOL     OW84542   8.500   6.966   2.268
60882SOL    HW184543   8.512   6.983   2.175
60882SOL    HW284544   8.543   6.882   2.283
60883SOL     OW84545  11.358  13.517   3.390
60883SOL    HW184546  11.284  13.475   3.347
60883SOL    HW284547  11.404  13.446   3.435
60884SOL     OW84548   2.081   8.942   8.412
60884SOL    HW184549   2.160   8.995   8.418
60884SOL    HW284550   2.109   8.863   8.366
60885SOL     OW84551   7.925  10.917   2.547
60885SOL    HW184552   7.937  10.834   2.594
60885SOL    HW284553   8.014  10.949   2.532
60886SOL     OW84554  11.370   2.880   8.493
60886SOL    HW184555  11.382   2.874   8.398
60886SOL    HW284556  11.427   2.812   8.529
60887SOL     OW84557   9.796  11.524  14.834
60887SOL    HW184558   9.805  11.603   0.001
60887SOL    HW284559   9.821  11.552  14.746
60888SOL     OW84560   5.467   6.990  14.006
60888SOL    HW184561   5.376   6.963  14.015
60888SOL    HW284562   5.489   6.969  13.915
60889SOL     OW84563   2.163   3.132   1.942
60889SOL    HW184564   2.126   3.140   2.030
60889SOL    HW284565   2.093   3.163   1.884
60890SOL     OW84566   1.389   9.427   2.973
60890SOL    HW184567   1.342   9.395   3.050
60890SOL    HW284568   1.428   9.510   3.002
60891SOL     OW84569   3.182   2.992   2.376
60891SOL    HW184570   3.127   2.934   2.324
60891SOL    HW284571   3.242   3.032   2.313
60892SOL     OW84572  12.022   7.097   3.336
60892SOL    HW184573  11.957   7.093   3.406
60892SOL    HW284574  12.105   7.109   3.381
60893SOL     OW84575  13.567   6.442  13.730
60893SOL    HW184576  13.475   6.461  13.747
60893SOL    HW284577  13.567   6.395  13.647
60894SOL     OW84578   3.891  14.307   4.031
60894SOL    HW184579   3.934  14.298   3.946
60894SOL    HW284580   3.799  14.322   4.009
60895SOL     OW84581  11.734  10.355  12.898
60895SOL    HW184582  11.677  10.412  12.846
60895SOL    HW284583  11.674  10.308  12.956
60896SOL     OW84584   0.021   5.397  11.341
60896SOL    HW184585   0.092   5.447  11.300
60896SOL    HW284586   0.041   5.400  11.434
60897SOL     OW84587   8.789   3.217  14.378
60897SOL    HW184588   8.800   3.180  14.290
60897SOL    HW284589   8.820   3.149  14.437
60898SOL     OW84590   5.113   7.447   7.434
60898SOL    HW184591   5.141   7.371   7.485
60898SOL    HW284592   5.188   7.469   7.379
60899SOL     OW84593  10.869   3.156   1.096
60899SOL    HW184594  10.818   3.079   1.122
60899SOL    HW284595  10.841   3.224   1.157
60900SOL     OW84596  11.363   8.075   9.449
60900SOL    HW184597  11.288   8.116   9.406
60900SOL    HW284598  11.436   8.134   9.432
60901SOL     OW84599  12.363   1.199   7.990
60901SOL    HW184600  12.290   1.175   8.047
60901SOL    HW284601  12.404   1.116   7.968
60902SOL     OW84602   8.780  10.640   6.607
60902SOL    HW184603   8.741  10.562   6.569
60902SOL    HW284604   8.845  10.608   6.669
60903SOL     OW84605   4.670  14.840   9.043
60903SOL    HW184606   4.747  14.827   9.098
60903SOL    HW284607   4.686  14.785   8.966
60904SOL     OW84608   4.961   7.825   3.222
60904SOL    HW184609   4.937   7.807   3.313
60904SOL    HW284610   5.030   7.891   3.228
60905SOL     OW84611   1.462  13.915  12.848
60905SOL    HW184612   1.505  13.990  12.808
60905SOL    HW284613   1.392  13.892  12.788
60906SOL     OW84614   7.861  13.661   6.255
60906SOL    HW184615   7.785  13.659   6.197
60906SOL    HW284616   7.934  13.636   6.199
60907SOL     OW84617   3.234   6.507  11.570
60907SOL    HW184618   3.186   6.490  11.490
60907SOL    HW284619   3.316   6.548  11.541
60908SOL     OW84620   2.040   9.411   0.256
60908SOL    HW184621   1.966   9.445   0.206
60908SOL    HW284622   2.002   9.346   0.315
60909SOL     OW84623  10.059   6.582   0.251
60909SOL    HW184624   9.970   6.595   0.284
60909SOL    HW284625  10.104   6.534   0.321
60910SOL     OW84626  13.827   6.228  10.638
60910SOL    HW184627  13.913   6.268  10.647
60910SOL    HW284628  13.780   6.286  10.578
60911SOL     OW84629   4.075  14.495   3.685
60911SOL    HW184630   4.165  14.528   3.685
60911SOL    HW284631   4.025  14.563   3.730
60912SOL     OW84632   0.249  14.134   2.723
60912SOL    HW184633   0.241  14.223   2.757
60912SOL    HW284634   0.159  14.107   2.702
60913SOL     OW84635  14.213   8.416   2.595
60913SOL    HW184636  14.248   8.473   2.526
60913SOL    HW284637  14.269   8.338   2.591
60914SOL     OW84638  12.706   5.967  10.609
60914SOL    HW184639  12.624   6.014  10.593
60914SOL    HW284640  12.729   5.988  10.699
60915SOL     OW84641  13.066   1.109   5.186
60915SOL    HW184642  13.043   1.137   5.275
60915SOL    HW284643  13.146   1.156   5.166
60916SOL     OW84644  12.529   6.343  11.410
60916SOL    HW184645  12.595   6.407  11.433
60916SOL    HW284646  12.562   6.260  11.444
60917SOL     OW84647   3.146  14.551  13.452
60917SOL    HW184648   3.171  14.583  13.539
60917SOL    HW284649   3.059  14.511  13.465
60918SOL     OW84650   4.531   8.264  11.592
60918SOL    HW184651   4.560   8.347  11.631
60918SOL    HW284652   4.449   8.244  11.637
60919SOL     OW84653  10.748   9.557  14.504
60919SOL    HW184654  10.717   9.489  14.444
60919SOL    HW284655  10.772   9.630  14.446
60920SOL     OW84656   6.946   8.685   2.191
60920SOL    HW184657   6.891   8.644   2.124
60920SOL    HW284658   6.887   8.743   2.238
60921SOL     OW84659  11.582   3.219   0.780
60921SOL    HW184660  11.662   3.271   0.769
60921SOL    HW284661  11.531   3.238   0.701
60922SOL     OW84662   0.198   0.403   9.201
60922SOL    HW184663   0.171   0.358   9.281
60922SOL    HW284664   0.118   0.413   9.151
60923SOL     OW84665   7.704   1.749   0.293
60923SOL    HW184666   7.665   1.809   0.357
60923SOL    HW284667   7.662   1.772   0.210
60924SOL     OW84668   0.380   3.803  12.130
60924SOL    HW184669   0.474   3.810  12.144
60924SOL    HW284670   0.357   3.880  12.077
60925SOL     OW84671   5.138   9.475   3.801
60925SOL    HW184672   5.075   9.427   3.749
60925SOL    HW284673   5.105   9.469   3.891
60926SOL     OW84674   4.557   1.641  10.920
60926SOL    HW184675   4.582   1.642  11.013
60926SOL    HW284676   4.485   1.703  10.914
60927SOL     OW84677   4.104   0.891  13.057
60927SOL    HW184678   4.189   0.928  13.083
60927SOL    HW284679   4.052   0.892  13.138
60928SOL     OW84680   8.295   8.049   0.380
60928SOL    HW184681   8.376   8.096   0.399
60928SOL    HW284682   8.226   8.113   0.397
60929SOL     OW84683   9.251  14.488  11.800
60929SOL    HW184684   9.163  14.460  11.774
60929SOL    HW284685   9.282  14.539  11.725
60930SOL     OW84686   0.310   4.664   8.101
60930SOL    HW184687   0.225   4.694   8.135
60930SOL    HW284688   0.359   4.745   8.085
60931SOL     OW84689   9.396   4.883   0.574
60931SOL    HW184690   9.309   4.845   0.576
60931SOL    HW284691   9.436   4.849   0.494
60932SOL     OW84692   5.023  11.102   7.751
60932SOL    HW184693   5.025  11.191   7.788
60932SOL    HW284694   5.093  11.102   7.687
60933SOL     OW84695   7.011   8.318   8.895
60933SOL    HW184696   7.097   8.288   8.924
60933SOL    HW284697   6.959   8.237   8.889
60934SOL     OW84698   2.824   3.487   3.888
60934SOL    HW184699   2.828   3.509   3.981
60934SOL    HW284700   2.880   3.553   3.846
60935SOL     OW84701  14.850   9.717   1.779
60935SOL    HW184702  14.875   9.799   1.821
60935SOL    HW284703  14.833   9.741   1.688
60936SOL     OW84704   2.855  12.298   3.146
60936SOL    HW184705   2.787  12.232   3.163
60936SOL    HW284706   2.911  12.259   3.079
60937SOL     OW84707  13.079   3.932   6.381
60937SOL    HW184708  13.053   4.023   6.395
60937SOL    HW284709  13.019   3.881   6.435
60938SOL     OW84710  11.975  12.456   9.415
60938SOL    HW184711  12.062  12.460   9.454
60938SOL    HW284712  11.988  12.412   9.331
60939SOL     OW84713   9.626   0.072   9.281
60939SOL    HW184714   9.583  14.874   9.271
60939SOL    HW284715   9.556   0.129   9.314
60940SOL     OW84716   2.398  13.364  14.806
60940SOL    HW184717   2.366  13.275  14.820
60940SOL    HW284718   2.372  13.412  14.885
60941SOL     OW84719   2.695   8.720   5.441
60941SOL    HW184720   2.626   8.763   5.492
60941SOL    HW284721   2.683   8.627   5.457
60942SOL     OW84722   2.333   8.669  14.525
60942SOL    HW184723   2.288   8.667  14.609
60942SOL    HW284724   2.279   8.727  14.471
60943SOL     OW84725   8.197   7.373   0.842
60943SOL    HW184726   8.171   7.449   0.893
60943SOL    HW284727   8.132   7.366   0.773
60944SOL     OW84728   8.589   9.405  14.450
60944SOL    HW184729   8.589   9.467  14.377
60944SOL    HW284730   8.614   9.457  14.526
60945SOL     OW84731   8.396  12.567  13.205
60945SOL    HW184732   8.379  12.585  13.297
60945SOL    HW284733   8.439  12.646  13.173
60946SOL     OW84734   5.513   3.671  11.217
60946SOL    HW184735   5.485   3.607  11.152
60946SOL    HW284736   5.497   3.756  11.176
60947SOL     OW84737  13.788  13.143   4.827
60947SOL    HW184738  13.829  13.221   4.789
60947SOL    HW284739  13.724  13.178   4.890
60948SOL     OW84740   8.871  12.372   6.313
60948SOL    HW184741   8.866  12.301   6.250
60948SOL    HW284742   8.821  12.340   6.389
60949SOL     OW84743  11.251  12.165   4.662
60949SOL    HW184744  11.206  12.229   4.608
60949SOL    HW284745  11.283  12.099   4.601
60950SOL     OW84746  11.018   2.691   6.692
60950SOL    HW184747  10.956   2.721   6.759
60950SOL    HW284748  11.104   2.697   6.735
60951SOL     OW84749   5.221   3.045   2.376
60951SOL    HW184750   5.210   3.050   2.471
60951SOL    HW284751   5.273   2.966   2.361
60952SOL     OW84752   4.206  14.629   9.145
60952SOL    HW184753   4.298  14.655   9.159
60952SOL    HW284754   4.191  14.644   9.052
60953SOL     OW84755   0.801   6.058  14.711
60953SOL    HW184756   0.885   6.021  14.738
60953SOL    HW284757   0.751   5.983  14.678
60954SOL     OW84758   3.527   6.727   6.187
60954SOL    HW184759   3.604   6.785   6.186
60954SOL    HW284760   3.467   6.769   6.249
60955SOL     OW84761  12.178   2.378   2.936
60955SOL    HW184762  12.098   2.429   2.920
60955SOL    HW284763  12.206   2.405   3.024
60956SOL     OW84764   6.425   2.824   2.855
60956SOL    HW184765   6.461   2.912   2.854
60956SOL    HW284766   6.500   2.767   2.841
60957SOL     OW84767   2.025  14.682  10.034
60957SOL    HW184768   1.978  14.765  10.029
60957SOL    HW284769   1.968  14.626  10.087
60958SOL     OW84770   2.616   5.595   2.878
60958SOL    HW184771   2.676   5.580   2.951
60958SOL    HW284772   2.670   5.585   2.799
60959SOL     OW84773   6.911  10.662   6.478
60959SOL    HW184774   6.950  10.669   6.391
60959SOL    HW284775   6.983  10.683   6.538
60960SOL     OW84776   5.282   5.474  14.589
60960SOL    HW184777   5.331   5.476  14.507
60960SOL    HW284778   5.258   5.382  14.601
60961SOL     OW84779  11.764  10.352   0.785
60961SOL    HW184780  11.748  10.316   0.698
60961SOL    HW284781  11.708  10.302   0.844
60962SOL     OW84782   5.968  10.237  14.168
60962SOL    HW184783   6.059  10.236  14.136
60962SOL    HW284784   5.961  10.320  14.214
60963SOL     OW84785  10.492   1.046   8.935
60963SOL    HW184786  10.467   0.954   8.935
60963SOL    HW284787  10.447   1.084   8.859
60964SOL     OW84788   8.094   7.197   8.302
60964SOL    HW184789   8.185   7.194   8.331
60964SOL    HW284790   8.093   7.261   8.231
60965SOL     OW84791   2.449   4.072   5.919
60965SOL    HW184792   2.428   4.066   6.012
60965SOL    HW284793   2.407   4.153   5.890
60966SOL     OW84794  11.707   3.536   2.413
60966SOL    HW184795  11.688   3.627   2.433
60966SOL    HW284796  11.777   3.513   2.474
60967SOL     OW84797   0.422  14.161   6.352
60967SOL    HW184798   0.358  14.164   6.423
60967SOL    HW284799   0.492  14.220   6.381
60968SOL     OW84800  13.841   8.775   8.721
60968SOL    HW184801  13.898   8.849   8.742
60968SOL    HW284802  13.794   8.803   8.643
60969SOL     OW84803   5.079   5.077   4.717
60969SOL    HW184804   5.103   5.149   4.659
60969SOL    HW284805   5.158   5.060   4.768
60970SOL     OW84806  12.779  10.151  10.324
60970SOL    HW184807  12.811  10.088  10.259
60970SOL    HW284808  12.858  10.193  10.358
60971SOL     OW84809   2.583   8.278   7.543
60971SOL    HW184810   2.576   8.199   7.491
60971SOL    HW284811   2.561   8.251   7.632
60972SOL     OW84812  12.478  10.015  14.481
60972SOL    HW184813  12.433  10.038  14.400
60972SOL    HW284814  12.409  10.014  14.548
60973SOL     OW84815   1.118  11.504   1.347
60973SOL    HW184816   1.036  11.455   1.351
60973SOL    HW284817   1.158  11.477   1.264
60974SOL     OW84818  13.538   3.241   7.841
60974SOL    HW184819  13.614   3.291   7.870
60974SOL    HW284820  13.564   3.206   7.755
60975SOL     OW84821   8.848  10.006   0.473
60975SOL    HW184822   8.820  10.020   0.383
60975SOL    HW284823   8.793   9.933   0.504
60976SOL     OW84824  12.171   4.980   0.451
60976SOL    HW184825  12.106   4.923   0.411
60976SOL    HW284826  12.222   4.922   0.508
60977SOL     OW84827  11.930  10.561  12.049
60977SOL    HW184828  11.993  10.565  12.121
60977SOL    HW284829  11.981  10.580  11.970
60978SOL     OW84830   3.992   0.708   7.306
60978SOL    HW184831   3.954   0.794   7.325
60978SOL    HW284832   4.009   0.710   7.212
60979SOL     OW84833   3.028   8.498  13.391
60979SOL    HW184834   3.112   8.493  13.346
60979SOL    HW284835   2.996   8.587  13.374
60980SOL     OW84836   9.408  11.864   4.854
60980SOL    HW184837   9.353  11.786   4.862
60980SOL    HW284838   9.444  11.859   4.765
60981SOL     OW84839   8.098   9.253  13.630
60981SOL    HW184840   8.027   9.301  13.673
60981SOL    HW284841   8.058   9.213  13.553
60982SOL     OW84842  11.882   5.276   1.605
60982SOL    HW184843  11.949   5.209   1.618
60982SOL    HW284844  11.821   5.263   1.678
60983SOL     OW84845  14.480   0.481   2.294
60983SOL    HW184846  14.567   0.518   2.278
60983SOL    HW284847  14.470   0.415   2.226
60984SOL     OW84848  14.498   6.878   3.662
60984SOL    HW184849  14.415   6.878   3.709
60984SOL    HW284850  14.551   6.944   3.707
60985SOL     OW84851   7.201   9.031  13.496
60985SOL    HW184852   7.112   9.008  13.523
60985SOL    HW284853   7.195   9.040  13.401
60986SOL     OW84854  11.896   0.596   1.859
60986SOL    HW184855  11.878   0.537   1.786
60986SOL    HW284856  11.990   0.585   1.876
60987SOL     OW84857  11.536   4.564  12.021
60987SOL    HW184858  11.475   4.614  11.966
60987SOL    HW284859  11.536   4.476  11.983
60988SOL     OW84860   2.853   9.337   2.529
60988SOL    HW184861   2.909   9.342   2.606
60988SOL    HW284862   2.885   9.261   2.481
60989SOL     OW84863   3.202   9.038   7.692
60989SOL    HW184864   3.155   9.105   7.741
60989SOL    HW284865   3.139   9.006   7.628
60990SOL     OW84866  10.221   0.236  12.651
60990SOL    HW184867  10.242   0.224  12.744
60990SOL    HW284868  10.292   0.291  12.618
60991SOL     OW84869  14.215   9.574   2.462
60991SOL    HW184870  14.166   9.549   2.383
60991SOL    HW284871  14.224   9.669   2.455
60992SOL     OW84872   8.122   2.008   3.226
60992SOL    HW184873   8.043   2.041   3.269
60992SOL    HW284874   8.135   2.067   3.152
60993SOL     OW84875   1.539   7.370   3.418
60993SOL    HW184876   1.586   7.384   3.501
60993SOL    HW284877   1.447   7.378   3.442
60994SOL     OW84878   1.395   1.957   6.895
60994SOL    HW184879   1.355   1.902   6.828
60994SOL    HW284880   1.348   2.040   6.890
60995SOL     OW84881   5.941   4.846   9.482
60995SOL    HW184882   5.966   4.928   9.438
60995SOL    HW284883   5.856   4.824   9.443
60996SOL     OW84884   0.770   3.522   5.162
60996SOL    HW184885   0.780   3.617   5.170
60996SOL    HW284886   0.765   3.491   5.253
60997SOL     OW84887   6.342  14.543   0.347
60997SOL    HW184888   6.293  14.462   0.331
60997SOL    HW284889   6.284  14.613   0.318
60998SOL     OW84890  14.461  14.538  11.419
60998SOL    HW184891  14.511  14.514  11.497
60998SOL    HW284892  14.381  14.486  11.425
60999SOL     OW84893   8.320   2.236   4.320
60999SOL    HW184894   8.333   2.302   4.388
60999SOL    HW284895   8.319   2.153   4.367
61000SOL     OW84896   6.488  14.728  12.638
61000SOL    HW184897   6.571  14.769  12.661
61000SOL    HW284898   6.511  14.658  12.578
61001SOL     OW84899   3.484   5.039   1.733
61001SOL    HW184900   3.498   4.989   1.652
61001SOL    HW284901   3.542   5.115   1.724
61002SOL     OW84902   4.886   7.169   1.212
61002SOL    HW184903   4.907   7.119   1.133
61002SOL    HW284904   4.845   7.107   1.271
61003SOL     OW84905  10.324   7.312   7.086
61003SOL    HW184906  10.284   7.315   7.173
61003SOL    HW284907  10.257   7.347   7.027
61004SOL     OW84908   6.121  13.173  13.178
61004SOL    HW184909   6.200  13.197  13.226
61004SOL    HW284910   6.100  13.085  13.209
61005SOL     OW84911   0.549   9.762   3.468
61005SOL    HW184912   0.589   9.846   3.446
61005SOL    HW284913   0.623   9.702   3.479
61006SOL     OW84914  10.059  11.460  13.093
61006SOL    HW184915  10.095  11.392  13.149
61006SOL    HW284916  10.052  11.420  13.006
61007SOL     OW84917   5.346  13.882  11.616
61007SOL    HW184918   5.416  13.892  11.680
61007SOL    HW284919   5.391  13.869  11.533
61008SOL     OW84920  12.857   5.599   3.989
61008SOL    HW184921  12.818   5.686   3.983
61008SOL    HW284922  12.912   5.592   3.911
61009SOL     OW84923   2.624   7.557  13.544
61009SOL    HW184924   2.675   7.623  13.591
61009SOL    HW284925   2.689   7.507  13.495
61010SOL     OW84926   5.817   2.187  10.186
61010SOL    HW184927   5.782   2.208  10.272
61010SOL    HW284928   5.910   2.211  10.191
61011SOL     OW84929  14.426   3.993   5.932
61011SOL    HW184930  14.467   4.001   6.018
61011SOL    HW284931  14.440   3.902   5.907
61012SOL     OW84932  11.986   9.213   7.440
61012SOL    HW184933  12.014   9.303   7.457
61012SOL    HW284934  11.908   9.222   7.385
61013SOL     OW84935   7.476  12.262  12.412
61013SOL    HW184936   7.483  12.187  12.471
61013SOL    HW284937   7.493  12.338  12.468
61014SOL     OW84938  14.122   8.720   0.885
61014SOL    HW184939  14.034   8.686   0.874
61014SOL    HW284940  14.116   8.778   0.960
61015SOL     OW84941   6.843   3.955   8.251
61015SOL    HW184942   6.876   3.990   8.168
61015SOL    HW284943   6.768   4.010   8.272
61016SOL     OW84944  11.607   1.655   3.888
61016SOL    HW184945  11.515   1.673   3.908
61016SOL    HW284946  11.640   1.738   3.853
61017SOL     OW84947   5.768   9.921   8.862
61017SOL    HW184948   5.724   9.879   8.788
61017SOL    HW284949   5.830   9.982   8.822
61018SOL     OW84950  10.617   6.482   1.904
61018SOL    HW184951  10.661   6.542   1.963
61018SOL    HW284952  10.551   6.536   1.860
61019SOL     OW84953   0.332  13.583  10.195
61019SOL    HW184954   0.273  13.541  10.134
61019SOL    HW284955   0.353  13.516  10.260
61020SOL     OW84956   0.613  10.053   4.236
61020SOL    HW184957   0.703  10.022   4.249
61020SOL    HW284958   0.563   9.973   4.221
61021SOL     OW84959   2.814   2.630   1.270
61021SOL    HW184960   2.869   2.626   1.192
61021SOL    HW284961   2.737   2.576   1.248
61022SOL     OW84962   4.381  13.539   2.661
61022SOL    HW184963   4.430  13.462   2.691
61022SOL    HW284964   4.373  13.594   2.739
61023SOL     OW84965   2.086  12.995   1.397
61023SOL    HW184966   2.060  13.085   1.376
61023SOL    HW284967   2.178  13.001   1.421
61024SOL     OW84968   2.294   9.229  12.233
61024SOL    HW184969   2.200   9.242  12.242
61024SOL    HW284970   2.331   9.266  12.313
61025SOL     OW84971  13.386  12.085   0.307
61025SOL    HW184972  13.416  12.019   0.369
61025SOL    HW284973  13.459  12.095   0.245
61026SOL     OW84974  13.391   1.671  12.149
61026SOL    HW184975  13.460   1.617  12.110
61026SOL    HW284976  13.329   1.608  12.185
61027SOL     OW84977   7.467  11.907   9.009
61027SOL    HW184978   7.477  11.816   9.035
61027SOL    HW284979   7.533  11.920   8.941
61028SOL     OW84980   2.068   6.780   0.397
61028SOL    HW184981   2.145   6.726   0.378
61028SOL    HW284982   2.052   6.766   0.491
61029SOL     OW84983   1.193   1.843  11.280
61029SOL    HW184984   1.139   1.765  11.275
61029SOL    HW284985   1.281   1.811  11.300
61030SOL     OW84986   2.206  11.399  10.613
61030SOL    HW184987   2.290  11.445  10.606
61030SOL    HW284988   2.210  11.353  10.697
61031SOL     OW84989   5.471   6.488  10.823
61031SOL    HW184990   5.477   6.409  10.768
61031SOL    HW284991   5.563   6.514  10.836
61032SOL     OW84992  14.312   2.333   5.665
61032SOL    HW184993  14.250   2.274   5.709
61032SOL    HW284994  14.322   2.295   5.577
61033SOL     OW84995   3.101  13.286   6.212
61033SOL    HW184996   3.096  13.364   6.267
61033SOL    HW284997   3.062  13.217   6.265
61034SOL     OW84998   3.118  14.235   9.528
61034SOL    HW184999   3.085  14.296   9.461
61034SOL    HW285000   3.186  14.284   9.574
61035SOL     OW85001  13.178   0.614   3.055
61035SOL    HW185002  13.253   0.604   2.996
61035SOL    HW285003  13.179   0.707   3.079
61036SOL     OW85004   5.664   9.509  13.576
61036SOL    HW185005   5.683   9.460  13.655
61036SOL    HW285006   5.582   9.555  13.595
61037SOL     OW85007   4.261   5.584  12.014
61037SOL    HW185008   4.260   5.513  12.078
61037SOL    HW285009   4.347   5.624  12.023
61038SOL     OW85010   1.251   0.939   0.213
61038SOL    HW185011   1.185   0.945   0.282
61038SOL    HW285012   1.293   0.854   0.228
61039SOL     OW85013   9.822  12.533   4.510
61039SOL    HW185014   9.757  12.526   4.441
61039SOL    HW285015   9.906  12.518   4.467
61040SOL     OW85016   8.634   2.185   5.581
61040SOL    HW185017   8.725   2.160   5.597
61040SOL    HW285018   8.616   2.254   5.645
61041SOL     OW85019  13.981   6.461  13.948
61041SOL    HW185020  13.912   6.521  13.977
61041SOL    HW285021  14.051   6.519  13.919
61042SOL     OW85022  14.482   7.717   0.241
61042SOL    HW185023  14.402   7.764   0.263
61042SOL    HW285024  14.493   7.655   0.313
61043SOL     OW85025   3.529  13.641  13.396
61043SOL    HW185026   3.516  13.713  13.335
61043SOL    HW285027   3.443  13.600  13.405
61044SOL     OW85028  14.389   3.134   5.687
61044SOL    HW185029  14.329   3.164   5.756
61044SOL    HW285030  14.338   3.140   5.607
61045SOL     OW85031  10.079   3.926  11.779
61045SOL    HW185032  10.030   3.954  11.856
61045SOL    HW285033  10.142   3.997  11.763
61046SOL     OW85034   4.412  14.091   9.787
61046SOL    HW185035   4.357  14.082   9.709
61046SOL    HW285036   4.350  14.096   9.860
61047SOL     OW85037  11.822  11.708   9.292
61047SOL    HW185038  11.768  11.631   9.269
61047SOL    HW285039  11.905  11.671   9.321
61048SOL     OW85040   3.653  14.201   5.314
61048SOL    HW185041   3.684  14.184   5.403
61048SOL    HW285042   3.557  14.196   5.321
61049SOL     OW85043  14.608   8.919   3.037
61049SOL    HW185044  14.524   8.884   3.008
61049SOL    HW285045  14.648   8.953   2.957
61050SOL     OW85046   0.495  11.161  13.593
61050SOL    HW185047   0.566  11.121  13.644
61050SOL    HW285048   0.508  11.128  13.505
61051SOL     OW85049   8.653   3.716   2.977
61051SOL    HW185050   8.661   3.797   2.926
61051SOL    HW285051   8.601   3.658   2.921
61052SOL     OW85052  14.113   9.343  13.723
61052SOL    HW185053  14.189   9.292  13.753
61052SOL    HW285054  14.072   9.288  13.657
61053SOL     OW85055  11.019  10.919   6.056
61053SOL    HW185056  10.950  10.968   6.010
61053SOL    HW285057  11.030  10.839   6.004
61054SOL     OW85058   4.580   5.331   9.470
61054SOL    HW185059   4.487   5.329   9.492
61054SOL    HW285060   4.624   5.341   9.555
61055SOL     OW85061   8.821  13.217   9.008
61055SOL    HW185062   8.903  13.262   8.985
61055SOL    HW285063   8.831  13.196   9.101
61056SOL     OW85064   0.256  12.489   9.054
61056SOL    HW185065   0.243  12.411   9.000
61056SOL    HW285066   0.334  12.530   9.017
61057SOL     OW85067   2.371   6.714   1.352
61057SOL    HW185068   2.397   6.803   1.374
61057SOL    HW285069   2.440   6.683   1.294
61058SOL     OW85070   0.592   4.793  12.255
61058SOL    HW185071   0.632   4.810  12.170
61058SOL    HW285072   0.658   4.743  12.303
61059SOL     OW85073   1.688  12.089   4.891
61059SOL    HW185074   1.628  12.020   4.919
61059SOL    HW285075   1.677  12.159   4.955
61060SOL     OW85076   7.595  10.583   4.752
61060SOL    HW185077   7.636  10.658   4.709
61060SOL    HW285078   7.668  10.522   4.767
61061SOL     OW85079   6.032   5.617   4.073
61061SOL    HW185080   5.959   5.677   4.061
61061SOL    HW285081   6.046   5.613   4.167
61062SOL     OW85082  10.550  10.272   3.250
61062SOL    HW185083  10.612  10.345   3.245
61062SOL    HW285084  10.506  10.272   3.165
61063SOL     OW85085   6.907   8.400  13.197
61063SOL    HW185086   6.945   8.481  13.164
61063SOL    HW285087   6.822   8.393  13.154
61064SOL     OW85088  12.723   7.724   4.357
61064SOL    HW185089  12.787   7.717   4.285
61064SOL    HW285090  12.672   7.802   4.337
61065SOL     OW85091   2.683   2.278  10.387
61065SOL    HW185092   2.765   2.239  10.419
61065SOL    HW285093   2.696   2.372  10.396
61066SOL     OW85094   4.623   3.557  13.820
61066SOL    HW185095   4.597   3.634  13.870
61066SOL    HW285096   4.708   3.531  13.857
61067SOL     OW85097   3.678  12.605  12.556
61067SOL    HW185098   3.612  12.571  12.617
61067SOL    HW285099   3.648  12.694  12.537
61068SOL     OW85100   8.118  11.241  11.927
61068SOL    HW185101   8.060  11.219  12.000
61068SOL    HW285102   8.062  11.236  11.850
61069SOL     OW85103   5.894   7.136   1.733
61069SOL    HW185104   5.823   7.199   1.730
61069SOL    HW285105   5.969   7.186   1.764
61070SOL     OW85106  12.968  11.362   3.091
61070SOL    HW185107  12.875  11.384   3.099
61070SOL    HW285108  13.011  11.410   3.162
61071SOL     OW85109  11.621  12.938   0.148
61071SOL    HW185110  11.633  12.980   0.233
61071SOL    HW285111  11.527  12.918   0.144
61072SOL     OW85112   8.530   2.418  12.681
61072SOL    HW185113   8.518   2.507  12.712
61072SOL    HW285114   8.545   2.427  12.586
61073SOL     OW85115   5.288  13.435   2.468
61073SOL    HW185116   5.343  13.396   2.400
61073SOL    HW285117   5.340  13.508   2.502
61074SOL     OW85118   7.018   0.380  10.032
61074SOL    HW185119   7.003   0.312  10.097
61074SOL    HW285120   6.933   0.391   9.989
61075SOL     OW85121   9.832   3.940   4.008
61075SOL    HW185122   9.774   3.915   4.079
61075SOL    HW285123   9.895   4.000   4.048
61076SOL     OW85124   4.212   6.217   6.822
61076SOL    HW185125   4.182   6.165   6.896
61076SOL    HW285126   4.197   6.308   6.848
61077SOL     OW85127   9.358   7.221   3.460
61077SOL    HW185128   9.432   7.198   3.403
61077SOL    HW285129   9.293   7.259   3.401
61078SOL     OW85130   8.913   2.987  14.858
61078SOL    HW185131   8.967   3.011  14.783
61078SOL    HW285132   8.955   2.908   0.006
61079SOL     OW85133  10.838  14.672  13.184
61079SOL    HW185134  10.869  14.763  13.190
61079SOL    HW285135  10.883  14.637  13.107
61080SOL     OW85136   4.313   9.432   4.964
61080SOL    HW185137   4.374   9.362   4.989
61080SOL    HW285138   4.272   9.458   5.047
61081SOL     OW85139   7.702   6.677   5.900
61081SOL    HW185140   7.750   6.710   5.824
61081SOL    HW285141   7.665   6.755   5.941
61082SOL     OW85142   2.568   2.919  11.587
61082SOL    HW185143   2.641   2.980  11.599
61082SOL    HW285144   2.558   2.913  11.492
61083SOL     OW85145   6.435   6.931  10.209
61083SOL    HW185146   6.491   6.857  10.234
61083SOL    HW285147   6.466   6.957  10.123
61084SOL     OW85148   5.088   9.801  11.872
61084SOL    HW185149   5.023   9.743  11.913
61084SOL    HW285150   5.115   9.753  11.793
61085SOL     OW85151   2.564   8.278   1.249
61085SOL    HW185152   2.622   8.207   1.221
61085SOL    HW285153   2.491   8.235   1.292
61086SOL     OW85154  13.557   1.607   0.597
61086SOL    HW185155  13.481   1.664   0.597
61086SOL    HW285156  13.547   1.552   0.519
61087SOL     OW85157   1.097  10.031   3.600
61087SOL    HW185158   1.046  10.097   3.553
61087SOL    HW285159   1.183  10.072   3.612
61088SOL     OW85160  13.025  11.029  11.921
61088SOL    HW185161  13.061  10.956  11.871
61088SOL    HW285162  13.079  11.104  11.895
61089SOL     OW85163   4.283   5.800   4.129
61089SOL    HW185164   4.343   5.776   4.200
61089SOL    HW285165   4.288   5.895   4.124
61090SOL     OW85166   7.386   2.707   0.973
61090SOL    HW185167   7.429   2.632   1.016
61090SOL    HW285168   7.436   2.720   0.893
61091SOL     OW85169  10.722  13.896  13.494
61091SOL    HW185170  10.780  13.956  13.446
61091SOL    HW285171  10.775  13.817  13.508
61092SOL     OW85172  11.621   1.572   3.492
61092SOL    HW185173  11.527   1.558   3.476
61092SOL    HW285174  11.664   1.538   3.414
61093SOL     OW85175   4.232   4.877   0.493
61093SOL    HW185176   4.313   4.825   0.491
61093SOL    HW285177   4.202   4.871   0.584
61094SOL     OW85178   9.160  10.050  13.562
61094SOL    HW185179   9.123   9.979  13.616
61094SOL    HW285180   9.124  10.130  13.600
61095SOL     OW85181   1.957   2.094  10.222
61095SOL    HW185182   1.874   2.053  10.249
61095SOL    HW285183   1.941   2.188  10.230
61096SOL     OW85184   0.400   1.901   3.273
61096SOL    HW185185   0.381   1.991   3.246
61096SOL    HW285186   0.467   1.910   3.341
61097SOL     OW85187   1.658  13.676  13.560
61097SOL    HW185188   1.675  13.620  13.485
61097SOL    HW285189   1.611  13.620  13.622
61098SOL     OW85190  10.642  13.821  12.557
61098SOL    HW185191  10.557  13.847  12.523
61098SOL    HW285192  10.629  13.812  12.651
61099SOL     OW85193   1.960   3.300  13.407
61099SOL    HW185194   2.002   3.330  13.327
61099SOL    HW285195   1.887   3.245  13.378
61100SOL     OW85196   9.462   1.609   6.527
61100SOL    HW185197   9.483   1.541   6.463
61100SOL    HW285198   9.445   1.561   6.608
61101SOL     OW85199   5.575   4.866   9.834
61101SOL    HW185200   5.555   4.921   9.759
61101SOL    HW285201   5.668   4.845   9.824
61102SOL     OW85202   3.515   2.945   2.743
61102SOL    HW185203   3.602   2.959   2.782
61102SOL    HW285204   3.499   3.023   2.691
61103SOL     OW85205   1.448  14.226   8.995
61103SOL    HW185206   1.406  14.161   8.938
61103SOL    HW285207   1.531  14.245   8.951
61104SOL     OW85208   9.134  12.020  10.249
61104SOL    HW185209   9.139  12.091  10.313
61104SOL    HW285210   9.223  11.986  10.244
61105SOL     OW85211   1.726   9.935  11.594
61105SOL    HW185212   1.677   9.986  11.529
61105SOL    HW285213   1.818   9.957  11.577
61106SOL     OW85214   8.120   7.558   0.523
61106SOL    HW185215   8.186   7.626   0.509
61106SOL    HW285216   8.168   7.476   0.511
61107SOL     OW85217  13.526   7.567  12.286
61107SOL    HW185218  13.567   7.638  12.335
61107SOL    HW285219  13.555   7.580  12.196
61108SOL     OW85220   5.669   8.815   0.524
61108SOL    HW185221   5.642   8.876   0.456
61108SOL    HW285222   5.657   8.728   0.486
61109SOL     OW85223   4.694   5.207   4.226
61109SOL    HW185224   4.783   5.234   4.203
61109SOL    HW285225   4.661   5.161   4.149
61110SOL     OW85226   7.289   9.350   7.552
61110SOL    HW185227   7.252   9.262   7.561
61110SOL    HW285228   7.276   9.372   7.460
61111SOL     OW85229   6.587   8.882   8.534
61111SOL    HW185230   6.561   8.885   8.626
61111SOL    HW285231   6.620   8.970   8.515
61112SOL     OW85232  13.857   5.532  13.826
61112SOL    HW185233  13.782   5.589  13.808
61112SOL    HW285234  13.927   5.592  13.852
61113SOL     OW85235  14.541   3.457   4.328
61113SOL    HW185236  14.479   3.490   4.262
61113SOL    HW285237  14.557   3.531   4.385
61114SOL     OW85238   4.168   9.774   2.449
61114SOL    HW185239   4.164   9.757   2.355
61114SOL    HW285240   4.090   9.733   2.485
61115SOL     OW85241   8.904   9.981   6.598
61115SOL    HW185242   8.845   9.927   6.545
61115SOL    HW285243   8.880   9.960   6.688
61116SOL     OW85244   5.661   2.042   6.444
61116SOL    HW185245   5.628   2.131   6.453
61116SOL    HW285246   5.597   1.988   6.492
61117SOL     OW85247   7.187  14.094   5.666
61117SOL    HW185248   7.262  14.044   5.633
61117SOL    HW285249   7.115  14.031   5.665
61118SOL     OW85250   4.469   1.065   4.479
61118SOL    HW185251   4.413   1.143   4.488
61118SOL    HW285252   4.510   1.075   4.394
61119SOL     OW85253  12.303   0.690  11.665
61119SOL    HW185254  12.226   0.634  11.671
61119SOL    HW285255  12.307   0.716  11.573
61120SOL     OW85256   6.677   4.366   0.730
61120SOL    HW185257   6.738   4.440   0.727
61120SOL    HW285258   6.713   4.308   0.797
61121SOL     OW85259  10.321   0.318  12.171
61121SOL    HW185260  10.266   0.308  12.093
61121SOL    HW285261  10.387   0.382  12.146
61122SOL     OW85262   2.042   3.841  13.848
61122SOL    HW185263   1.951   3.817  13.832
61122SOL    HW285264   2.051   3.929  13.810
61123SOL     OW85265  14.750  11.099   0.550
61123SOL    HW185266  14.741  11.173   0.610
61123SOL    HW285267  14.661  11.065   0.540
61124SOL     OW85268   7.564   4.469   0.541
61124SOL    HW185269   7.618   4.538   0.501
61124SOL    HW285270   7.624   4.394   0.549
61125SOL     OW85271  10.685   9.697   5.283
61125SOL    HW185272  10.604   9.652   5.263
61125SOL    HW285273  10.670   9.739   5.368
61126SOL     OW85274   7.638   3.683   5.761
61126SOL    HW185275   7.645   3.623   5.835
61126SOL    HW285276   7.587   3.635   5.696
61127SOL     OW85277  14.703  12.582  14.691
61127SOL    HW185278  14.704  12.583  14.787
61127SOL    HW285279  14.620  12.624  14.668
61128SOL     OW85280  12.837  13.675   8.499
61128SOL    HW185281  12.747  13.705   8.513
61128SOL    HW285282  12.890  13.754   8.511
61129SOL     OW85283  12.054   6.156  13.097
61129SOL    HW185284  11.971   6.112  13.080
61129SOL    HW285285  12.030   6.239  13.137
61130SOL     OW85286   8.326  12.132  13.243
61130SOL    HW185287   8.285  12.136  13.329
61130SOL    HW285288   8.265  12.176  13.184
61131SOL     OW85289   2.044   8.169  13.266
61131SOL    HW185290   2.054   8.137  13.356
61131SOL    HW285291   1.960   8.133  13.238
61132SOL     OW85292  11.106   8.971   7.936
61132SOL    HW185293  11.029   8.965   7.993
61132SOL    HW285294  11.134   8.881   7.923
61133SOL     OW85295   8.640   6.555  11.855
61133SOL    HW185296   8.621   6.553  11.949
61133SOL    HW285297   8.554   6.563  11.813
61134SOL     OW85298   4.158  10.718   9.994
61134SOL    HW185299   4.099  10.649  10.024
61134SOL    HW285300   4.150  10.787  10.060
61135SOL     OW85301   7.997  13.663   4.349
61135SOL    HW185302   8.024  13.587   4.298
61135SOL    HW285303   8.018  13.738   4.293
61136SOL     OW85304   3.341  14.011   9.903
61136SOL    HW185305   3.357  13.965   9.821
61136SOL    HW285306   3.278  13.955   9.949
61137SOL     OW85307   8.720   6.819   9.357
61137SOL    HW185308   8.764   6.783   9.434
61137SOL    HW285309   8.743   6.758   9.286
61138SOL     OW85310   2.575   5.634  13.407
61138SOL    HW185311   2.668   5.612  13.402
61138SOL    HW285312   2.562   5.699  13.338
61139SOL     OW85313  11.547  10.006  13.585
61139SOL    HW185314  11.583  10.005  13.674
61139SOL    HW285315  11.621   9.982  13.529
61140SOL     OW85316   2.077   0.394   6.525
61140SOL    HW185317   2.035   0.480   6.520
61140SOL    HW285318   2.158   0.404   6.475
61141SOL     OW85319  10.154   7.220  10.279
61141SOL    HW185320  10.124   7.240  10.367
61141SOL    HW285321  10.228   7.160  10.291
61142SOL     OW85322   0.822   2.992  11.608
61142SOL    HW185323   0.886   2.921  11.608
61142SOL    HW285324   0.875   3.071  11.621
61143SOL     OW85325  14.851   6.715   0.862
61143SOL    HW185326  14.871   6.715   0.956
61143SOL    HW285327  14.758   6.736   0.857
61144SOL     OW85328   2.144   3.669  12.386
61144SOL    HW185329   2.185   3.661  12.472
61144SOL    HW285330   2.079   3.738  12.396
61145SOL     OW85331   6.311   3.485   7.143
61145SOL    HW185332   6.331   3.476   7.050
61145SOL    HW285333   6.394   3.512   7.182
61146SOL     OW85334  10.277  10.799   4.722
61146SOL    HW185335  10.343  10.835   4.782
61146SOL    HW285336  10.306  10.826   4.635
61147SOL     OW85337   3.310   2.775   0.536
61147SOL    HW185338   3.276   2.702   0.587
61147SOL    HW285339   3.294   2.750   0.444
61148SOL     OW85340  11.216   6.282   8.252
61148SOL    HW185341  11.209   6.187   8.257
61148SOL    HW285342  11.152   6.308   8.186
61149SOL     OW85343  14.661   7.597  14.770
61149SOL    HW185344  14.750   7.561  14.775
61149SOL    HW285345  14.604   7.527  14.802
61150SOL     OW85346  12.051  13.159   8.156
61150SOL    HW185347  11.962  13.124   8.158
61150SOL    HW285348  12.070  13.180   8.248
61151SOL     OW85349   2.865  11.142  13.372
61151SOL    HW185350   2.917  11.068  13.402
61151SOL    HW285351   2.777  11.125  13.405
61152SOL     OW85352  10.890   6.018   3.773
61152SOL    HW185353  10.957   5.951   3.784
61152SOL    HW285354  10.852   6.029   3.860
61153SOL     OW85355   5.631   7.918   9.637
61153SOL    HW185356   5.545   7.886   9.610
61153SOL    HW285357   5.691   7.845   9.620
61154SOL     OW85358   5.388  10.304  11.466
61154SOL    HW185359   5.393  10.217  11.506
61154SOL    HW285360   5.347  10.289  11.380
61155SOL     OW85361   0.551   9.138   3.262
61155SOL    HW185362   0.553   9.207   3.328
61155SOL    HW285363   0.459   9.111   3.257
61156SOL     OW85364  12.588   3.722  13.809
61156SOL    HW185365  12.665   3.772  13.784
61156SOL    HW285366  12.517   3.758  13.755
61157SOL     OW85367   4.200   3.542  12.258
61157SOL    HW185368   4.120   3.499  12.229
61157SOL    HW285369   4.208   3.619  12.202
61158SOL     OW85370   8.781  10.174  14.693
61158SOL    HW185371   8.801  10.217  14.776
61158SOL    HW285372   8.785  10.244  14.628
61159SOL     OW85373   8.718   3.867   3.811
61159SOL    HW185374   8.629   3.832   3.822
61159SOL    HW285375   8.705   3.948   3.761
61160SOL     OW85376   9.111   9.803   7.483
61160SOL    HW185377   9.179   9.809   7.550
61160SOL    HW285378   9.044   9.865   7.511
61161SOL     OW85379   9.141   2.872  14.000
61161SOL    HW185380   9.079   2.868  13.927
61161SOL    HW285381   9.190   2.953  13.986
61162SOL     OW85382  10.133  12.187   0.859
61162SOL    HW185383  10.170  12.256   0.804
61162SOL    HW285384  10.193  12.180   0.933
61163SOL     OW85385   5.821   2.590  13.186
61163SOL    HW185386   5.879   2.515  13.167
61163SOL    HW285387   5.733   2.552  13.189
61164SOL     OW85388   6.079   6.469  12.837
61164SOL    HW185389   6.070   6.381  12.872
61164SOL    HW285390   5.999   6.514  12.864
61165SOL     OW85391   3.223   5.700   4.683
61165SOL    HW185392   3.205   5.670   4.772
61165SOL    HW285393   3.207   5.624   4.628
61166SOL     OW85394  11.568  12.554  10.694
61166SOL    HW185395  11.522  12.622  10.743
61166SOL    HW285396  11.583  12.484  10.758
61167SOL     OW85397  12.426  11.967   9.174
61167SOL    HW185398  12.416  11.936   9.263
61167SOL    HW285399  12.381  12.051   9.172
61168SOL     OW85400   5.015   0.882  10.354
61168SOL    HW185401   5.020   0.936  10.433
61168SOL    HW285402   4.961   0.807  10.380
61169SOL     OW85403  12.766   5.280   7.750
61169SOL    HW185404  12.732   5.238   7.670
61169SOL    HW285405  12.687   5.303   7.800
61170SOL     OW85406   2.183   2.673   7.537
61170SOL    HW185407   2.234   2.750   7.514
61170SOL    HW285408   2.093   2.695   7.514
61171SOL     OW85409  12.845  12.986  10.624
61171SOL    HW185410  12.898  13.065  10.614
61171SOL    HW285411  12.759  13.019  10.653
61172SOL     OW85412   5.790  11.836   6.046
61172SOL    HW185413   5.793  11.882   6.130
61172SOL    HW285414   5.714  11.872   6.001
61173SOL     OW85415   8.359   9.170  13.633
61173SOL    HW185416   8.271   9.197  13.657
61173SOL    HW285417   8.384   9.229  13.561
61174SOL     OW85418   1.218  14.781   5.409
61174SOL    HW185419   1.226  14.781   5.314
61174SOL    HW285420   1.180  14.695   5.429
61175SOL     OW85421   4.057  12.431   7.546
61175SOL    HW185422   3.997  12.460   7.615
61175SOL    HW285423   4.094  12.511   7.511
61176SOL     OW85424   2.712  11.301  11.628
61176SOL    HW185425   2.672  11.388  11.632
61176SOL    HW285426   2.802  11.317  11.599
61177SOL     OW85427   9.571  13.653   5.956
61177SOL    HW185428   9.593  13.739   5.991
61177SOL    HW285429   9.604  13.656   5.866
61178SOL     OW85430   5.993  10.683   4.918
61178SOL    HW185431   5.934  10.693   4.992
61178SOL    HW285432   6.076  10.657   4.957
61179SOL     OW85433  11.590   0.167   8.926
61179SOL    HW185434  11.512   0.127   8.964
61179SOL    HW285435  11.561   0.197   8.840
61180SOL     OW85436  10.103   4.672   7.596
61180SOL    HW185437  10.056   4.600   7.554
61180SOL    HW285438  10.154   4.712   7.526
61181SOL     OW85439   1.006   2.137   9.284
61181SOL    HW185440   1.096   2.168   9.276
61181SOL    HW285441   1.007   2.051   9.243
61182SOL     OW85442  11.159  14.717   0.663
61182SOL    HW185443  11.133  14.713   0.571
61182SOL    HW285444  11.254  14.727   0.661
61183SOL     OW85445   8.802   1.415   2.913
61183SOL    HW185446   8.710   1.391   2.925
61183SOL    HW285447   8.822   1.388   2.823
61184SOL     OW85448   8.084   2.326   0.058
61184SOL    HW185449   8.158   2.325   0.119
61184SOL    HW285450   8.105   2.398  14.885
61185SOL     OW85451   7.105  11.369   1.336
61185SOL    HW185452   7.157  11.428   1.390
61185SOL    HW285453   7.030  11.346   1.392
61186SOL     OW85454   4.524  11.553   1.750
61186SOL    HW185455   4.456  11.621   1.751
61186SOL    HW285456   4.563  11.560   1.663
61187SOL     OW85457   7.642  13.411   9.526
61187SOL    HW185458   7.557  13.428   9.566
61187SOL    HW285459   7.676  13.335   9.572
61188SOL     OW85460   0.092   7.936   6.754
61188SOL    HW185461   0.061   7.875   6.821
61188SOL    HW285462   0.092   7.885   6.673
61189SOL     OW85463   1.002  13.237  14.517
61189SOL    HW185464   0.956  13.200  14.442
61189SOL    HW285465   1.088  13.260  14.483
61190SOL     OW85466   4.645  11.426   1.245
61190SOL    HW185467   4.638  11.337   1.278
61190SOL    HW285468   4.738  11.448   1.252
61191SOL     OW85469   5.683   9.090   1.873
61191SOL    HW185470   5.722   9.138   1.800
61191SOL    HW285471   5.637   9.158   1.923
61192SOL     OW85472   3.147   9.193   6.304
61192SOL    HW185473   3.159   9.163   6.214
61192SOL    HW285474   3.215   9.147   6.354
61193SOL     OW85475   0.390   1.479  12.589
61193SOL    HW185476   0.361   1.401  12.542
61193SOL    HW285477   0.480   1.491  12.562
61194SOL     OW85478   7.596   7.084   3.213
61194SOL    HW185479   7.670   7.120   3.262
61194SOL    HW285480   7.636   7.047   3.134
61195SOL     OW85481   3.659  13.648   8.588
61195SOL    HW185482   3.718  13.722   8.590
61195SOL    HW285483   3.715  13.571   8.598
61196SOL     OW85484   0.645   3.919   0.861
61196SOL    HW185485   0.650   3.917   0.956
61196SOL    HW285486   0.552   3.903   0.842
61197SOL     OW85487  10.105   3.898   7.836
61197SOL    HW185488  10.035   3.961   7.827
61197SOL    HW285489  10.163   3.916   7.761
61198SOL     OW85490  13.713  10.617   9.016
61198SOL    HW185491  13.626  10.643   8.985
61198SOL    HW285492  13.757  10.585   8.937
61199SOL     OW85493   1.553   8.998   0.579
61199SOL    HW185494   1.524   8.967   0.665
61199SOL    HW285495   1.586   9.086   0.595
61200SOL     OW85496   3.495   7.775  12.195
61200SOL    HW185497   3.427   7.835  12.227
61200SOL    HW285498   3.523   7.812  12.112
61201SOL     OW85499   4.548   4.811   5.201
61201SOL    HW185500   4.579   4.736   5.151
61201SOL    HW285501   4.572   4.791   5.292
61202SOL     OW85502   3.001   0.524   9.059
61202SOL    HW185503   2.993   0.565   9.145
61202SOL    HW285504   2.912   0.524   9.023
61203SOL     OW85505   3.192   4.072   7.043
61203SOL    HW185506   3.102   4.083   7.074
61203SOL    HW285507   3.245   4.083   7.122
61204SOL     OW85508   0.592   3.702   6.790
61204SOL    HW185509   0.626   3.615   6.813
61204SOL    HW285510   0.660   3.762   6.819
61205SOL     OW85511  14.409   5.981   8.351
61205SOL    HW185512  14.314   5.992   8.347
61205SOL    HW285513  14.444   6.068   8.331
61206SOL     OW85514   4.613   6.526   8.553
61206SOL    HW185515   4.685   6.488   8.503
61206SOL    HW285516   4.587   6.457   8.614
61207SOL     OW85517   8.054   5.624  10.175
61207SOL    HW185518   8.054   5.583  10.262
61207SOL    HW285519   8.097   5.561  10.118
61208SOL     OW85520   9.187   7.755   0.165
61208SOL    HW185521   9.196   7.774   0.072
61208SOL    HW285522   9.140   7.831   0.200
61209SOL     OW85523  10.819  12.018  11.326
61209SOL    HW185524  10.792  12.023  11.234
61209SOL    HW285525  10.897  11.962  11.325
61210SOL     OW85526  12.361  13.439   6.848
61210SOL    HW185527  12.433  13.419   6.908
61210SOL    HW285528  12.342  13.357   6.804
61211SOL     OW85529  13.931   5.299   1.988
61211SOL    HW185530  13.922   5.216   1.941
61211SOL    HW285531  13.842   5.323   2.013
61212SOL     OW85532   0.404   1.484   7.735
61212SOL    HW185533   0.389   1.465   7.827
61212SOL    HW285534   0.415   1.399   7.694
61213SOL     OW85535   4.555   2.761  13.960
61213SOL    HW185536   4.478   2.777  13.906
61213SOL    HW285537   4.593   2.847  13.975
61214SOL     OW85538  14.095  12.138   8.149
61214SOL    HW185539  14.136  12.156   8.234
61214SOL    HW285540  14.020  12.083   8.170
61215SOL     OW85541  10.191  11.180   7.673
61215SOL    HW185542  10.262  11.116   7.668
61215SOL    HW285543  10.173  11.204   7.582
61216SOL     OW85544   7.638  11.901   0.617
61216SOL    HW185545   7.556  11.854   0.637
61216SOL    HW285546   7.664  11.868   0.531
61217SOL     OW85547   4.142   7.334   3.058
61217SOL    HW185548   4.147   7.248   3.099
61217SOL    HW285549   4.142   7.396   3.131
61218SOL     OW85550   5.241   4.837   8.255
61218SOL    HW185551   5.223   4.795   8.339
61218SOL    HW285552   5.160   4.883   8.233
61219SOL     OW85553   9.056  12.675   2.792
61219SOL    HW185554   9.000  12.667   2.715
61219SOL    HW285555   9.054  12.588   2.832
61220SOL     OW85556   4.869   7.905   5.703
61220SOL    HW185557   4.947   7.950   5.671
61220SOL    HW285558   4.797   7.946   5.655
61221SOL     OW85559   0.189   3.482  14.720
61221SOL    HW185560   0.153   3.564  14.756
61221SOL    HW285561   0.191   3.422  14.794
61222SOL     OW85562   4.763   9.099  13.364
61222SOL    HW185563   4.768   9.077  13.271
61222SOL    HW285564   4.675   9.134  13.376
61223SOL     OW85565  10.936  13.994   0.996
61223SOL    HW185566  10.906  13.903   0.986
61223SOL    HW285567  10.855  14.046   0.992
61224SOL     OW85568   1.576  11.297   9.021
61224SOL    HW185569   1.636  11.237   8.977
61224SOL    HW285570   1.624  11.327   9.098
61225SOL     OW85571   1.071   0.804   9.655
61225SOL    HW185572   1.144   0.745   9.634
61225SOL    HW285573   0.994   0.746   9.655
61226SOL     OW85574   6.268   0.814   8.645
61226SOL    HW185575   6.224   0.765   8.714
61226SOL    HW285576   6.249   0.764   8.565
61227SOL     OW85577   2.925   1.573  10.788
61227SOL    HW185578   2.966   1.500  10.742
61227SOL    HW285579   2.836   1.542  10.807
61228SOL     OW85580   0.834   5.462   1.753
61228SOL    HW185581   0.803   5.417   1.674
61228SOL    HW285582   0.928   5.475   1.737
61229SOL     OW85583  10.529   4.713   5.542
61229SOL    HW185584  10.562   4.692   5.630
61229SOL    HW285585  10.604   4.702   5.485
61230SOL     OW85586  11.344  10.340   1.079
61230SOL    HW185587  11.315  10.302   1.162
61230SOL    HW285588  11.409  10.405   1.105
61231SOL     OW85589   4.242   2.533  11.852
61231SOL    HW185590   4.313   2.590  11.881
61231SOL    HW285591   4.170   2.593  11.831
61232SOL     OW85592   3.225   3.119   0.345
61232SOL    HW185593   3.210   3.046   0.284
61232SOL    HW285594   3.319   3.117   0.361
61233SOL     OW85595   6.779   8.261   1.841
61233SOL    HW185596   6.871   8.285   1.835
61233SOL    HW285597   6.743   8.320   1.908
61234SOL     OW85598  14.533  10.540   0.316
61234SOL    HW185599  14.623  10.554   0.346
61234SOL    HW285600  14.480  10.595   0.374
61235SOL     OW85601   9.970  12.601   5.932
61235SOL    HW185602   9.906  12.539   5.966
61235SOL    HW285603   9.928  12.641   5.856
61236SOL     OW85604   0.590  11.495   3.420
61236SOL    HW185605   0.500  11.501   3.387
61236SOL    HW285606   0.640  11.458   3.347
61237SOL     OW85607  10.330  10.205   4.091
61237SOL    HW185608  10.305  10.127   4.041
61237SOL    HW285609  10.252  10.228   4.140
61238SOL     OW85610  14.606   4.963  12.979
61238SOL    HW185611  14.577   4.968  13.070
61238SOL    HW285612  14.532   4.926  12.932
61239SOL     OW85613   1.961   1.247  11.934
61239SOL    HW185614   1.875   1.211  11.954
61239SOL    HW285615   1.943   1.316  11.870
61240SOL     OW85616   3.233  10.169   0.515
61240SOL    HW185617   3.167  10.215   0.463
61240SOL    HW285618   3.241  10.222   0.594
61241SOL     OW85619   4.737   9.354   8.371
61241SOL    HW185620   4.647   9.386   8.378
61241SOL    HW285621   4.781   9.417   8.314
61242SOL     OW85622   7.169   3.793  12.651
61242SOL    HW185623   7.177   3.820  12.742
61242SOL    HW285624   7.117   3.713  12.654
61243SOL     OW85625   1.452   1.202  10.044
61243SOL    HW185626   1.413   1.213   9.957
61243SOL    HW285627   1.542   1.231  10.033
61244SOL     OW85628   0.893   4.898   8.825
61244SOL    HW185629   0.833   4.899   8.751
61244SOL    HW285630   0.965   4.842   8.797
61245SOL     OW85631  10.663   2.106  10.024
61245SOL    HW185632  10.621   2.104   9.938
61245SOL    HW285633  10.740   2.049  10.014
61246SOL     OW85634  11.716   0.591   9.396
61246SOL    HW185635  11.665   0.662   9.435
61246SOL    HW285636  11.673   0.573   9.313
61247SOL     OW85637  12.148  13.596   6.865
61247SOL    HW185638  12.070  13.541   6.854
61247SOL    HW285639  12.221  13.535   6.859
61248SOL     OW85640  12.152  11.092   1.421
61248SOL    HW185641  12.233  11.142   1.414
61248SOL    HW285642  12.171  11.024   1.486
61249SOL     OW85643  13.699   2.155   8.581
61249SOL    HW185644  13.774   2.214   8.585
61249SOL    HW285645  13.694   2.116   8.668
61250SOL     OW85646  11.361  11.138   8.115
61250SOL    HW185647  11.414  11.212   8.085
61250SOL    HW285648  11.272  11.173   8.121
61251SOL     OW85649   6.741   4.218   3.601
61251SOL    HW185650   6.720   4.293   3.545
61251SOL    HW285651   6.707   4.242   3.687
61252SOL     OW85652   2.317  10.544  11.958
61252SOL    HW185653   2.253  10.504  12.017
61252SOL    HW285654   2.279  10.628  11.933
61253SOL     OW85655   3.010   8.235   5.638
61253SOL    HW185656   2.990   8.142   5.637
61253SOL    HW285657   3.089   8.243   5.691
61254SOL     OW85658   5.844  14.436  13.284
61254SOL    HW185659   5.926  14.446  13.235
61254SOL    HW285660   5.776  14.430  13.217
61255SOL     OW85661   0.955   2.586  14.205
61255SOL    HW185662   0.889   2.646  14.171
61255SOL    HW285663   1.034   2.640  14.215
61256SOL     OW85664   3.537   4.495   1.399
61256SOL    HW185665   3.617   4.507   1.450
61256SOL    HW285666   3.566   4.464   1.314
61257SOL     OW85667   3.095  14.765  11.942
61257SOL    HW185668   3.121  14.723  12.024
61257SOL    HW285669   3.105  14.859  11.959
61258SOL     OW85670  14.099   1.829   1.521
61258SOL    HW185671  14.016   1.825   1.569
61258SOL    HW285672  14.114   1.738   1.493
61259SOL     OW85673   0.021   1.526  11.079
61259SOL    HW185674   0.048   1.521  11.170
61259SOL    HW285675  14.877   1.616  11.068
61260SOL     OW85676   3.004   7.304  13.739
61260SOL    HW185677   2.979   7.242  13.670
61260SOL    HW285678   3.097   7.287  13.754
61261SOL     OW85679  10.061  13.697  10.763
61261SOL    HW185680  10.130  13.694  10.697
61261SOL    HW285681  10.048  13.790  10.780
61262SOL     OW85682  14.341  11.022   5.626
61262SOL    HW185683  14.320  10.942   5.579
61262SOL    HW285684  14.289  11.017   5.707
61263SOL     OW85685   6.240  12.040   6.585
61263SOL    HW185686   6.251  12.023   6.492
61263SOL    HW285687   6.211  11.957   6.622
61264SOL     OW85688   2.855   2.155   8.161
61264SOL    HW185689   2.894   2.169   8.247
61264SOL    HW285690   2.828   2.242   8.132
61265SOL     OW85691   8.461  10.995   3.321
61265SOL    HW185692   8.412  11.016   3.241
61265SOL    HW285693   8.529  11.062   3.325
61266SOL     OW85694   1.575  11.941   2.961
61266SOL    HW185695   1.637  11.926   2.890
61266SOL    HW285696   1.564  12.036   2.964
61267SOL     OW85697   7.227   7.796  11.212
61267SOL    HW185698   7.297   7.794  11.277
61267SOL    HW285699   7.267   7.837  11.135
61268SOL     OW85700  11.874  10.792  11.568
61268SOL    HW185701  11.885  10.884  11.546
61268SOL    HW285702  11.962  10.756  11.566
61269SOL     OW85703  13.192   6.906  13.443
61269SOL    HW185704  13.151   6.956  13.373
61269SOL    HW285705  13.280   6.887  13.411
61270SOL     OW85706   1.197  14.021  13.819
61270SOL    HW185707   1.180  14.112  13.842
61270SOL    HW285708   1.181  14.017  13.724
61271SOL     OW85709  13.365  12.042   1.768
61271SOL    HW185710  13.331  12.132   1.766
61271SOL    HW285711  13.303  11.991   1.717
61272SOL     OW85712  10.758  13.003  12.550
61272SOL    HW185713  10.740  13.038  12.637
61272SOL    HW285714  10.847  12.968  12.556
61273SOL     OW85715  10.529   3.660   7.188
61273SOL    HW185716  10.533   3.587   7.249
61273SOL    HW285717  10.456   3.714   7.218
61274SOL     OW85718   8.450   0.529   0.839
61274SOL    HW185719   8.508   0.454   0.826
61274SOL    HW285720   8.469   0.586   0.764
61275SOL     OW85721   8.297   5.571   7.017
61275SOL    HW185722   8.365   5.582   6.950
61275SOL    HW285723   8.222   5.536   6.970
61276SOL     OW85724  10.149  11.346   0.474
61276SOL    HW185725  10.235  11.310   0.452
61276SOL    HW285726  10.100  11.271   0.509
61277SOL     OW85727  11.991   6.661   3.566
61277SOL    HW185728  11.948   6.578   3.544
61277SOL    HW285729  12.062   6.669   3.502
61278SOL     OW85730   0.588  11.013   0.093
61278SOL    HW185731   0.645  10.986   0.021
61278SOL    HW285732   0.531  11.079   0.056
61279SOL     OW85733   6.962   5.646   5.069
61279SOL    HW185734   6.947   5.727   5.117
61279SOL    HW285735   7.058   5.636   5.068
61280SOL     OW85736   1.196   5.026   0.344
61280SOL    HW185737   1.151   5.028   0.428
61280SOL    HW285738   1.213   4.933   0.327
61281SOL     OW85739  14.235   3.464   2.602
61281SOL    HW185740  14.147   3.461   2.640
61281SOL    HW285741  14.288   3.407   2.659
61282SOL     OW85742   3.220   3.232   4.127
61282SOL    HW185743   3.126   3.243   4.141
61282SOL    HW285744   3.234   3.257   4.036
61283SOL     OW85745  10.138   7.932   0.330
61283SOL    HW185746  10.127   7.889   0.416
61283SOL    HW285747  10.226   7.905   0.301
61284SOL     OW85748  12.183   5.994   5.584
61284SOL    HW185749  12.274   6.002   5.614
61284SOL    HW285750  12.175   5.903   5.556
61285SOL     OW85751  14.229   0.421   8.512
61285SOL    HW185752  14.195   0.448   8.597
61285SOL    HW285753  14.227   0.501   8.459
61286SOL     OW85754   9.508  13.367  11.699
61286SOL    HW185755   9.457  13.447  11.704
61286SOL    HW285756   9.513  13.348  11.606
61287SOL     OW85757   6.268   5.916   4.621
61287SOL    HW185758   6.250   5.959   4.705
61287SOL    HW285759   6.348   5.958   4.589
61288SOL     OW85760   6.402   5.633   7.421
61288SOL    HW185761   6.313   5.609   7.394
61288SOL    HW285762   6.391   5.670   7.509
61289SOL     OW85763   7.786  12.861   3.705
61289SOL    HW185764   7.735  12.939   3.726
61289SOL    HW285765   7.767  12.800   3.777
61290SOL     OW85766   1.106   4.352  12.044
61290SOL    HW185767   1.164   4.352  11.967
61290SOL    HW285768   1.040   4.418  12.024
61291SOL     OW85769   0.077   6.891   4.766
61291SOL    HW185770   0.044   6.970   4.810
61291SOL    HW285771   0.065   6.909   4.673
61292SOL     OW85772   2.407  14.785   1.814
61292SOL    HW185773   2.324  14.744   1.839
61292SOL    HW285774   2.456  14.792   1.896
61293SOL     OW85775   9.684  10.385   5.829
61293SOL    HW185776   9.719  10.362   5.743
61293SOL    HW285777   9.592  10.406   5.813
61294SOL     OW85778   5.582  10.429   6.582
61294SOL    HW185779   5.526  10.367   6.628
61294SOL    HW285780   5.628  10.376   6.517
61295SOL     OW85781   6.782   5.603   6.504
61295SOL    HW185782   6.873   5.596   6.475
61295SOL    HW285783   6.760   5.514   6.533
61296SOL     OW85784  10.274  12.187   7.556
61296SOL    HW185785  10.269  12.122   7.626
61296SOL    HW285786  10.187  12.184   7.516
61297SOL     OW85787  13.268   8.862  11.821
61297SOL    HW185788  13.193   8.920  11.831
61297SOL    HW285789  13.244   8.802  11.750
61298SOL     OW85790  14.721   6.201   8.098
61298SOL    HW185791  14.783   6.269   8.126
61298SOL    HW285792  14.759   6.167   8.017
61299SOL     OW85793   0.011   7.169   1.644
61299SOL    HW185794   0.062   7.099   1.603
61299SOL    HW285795  14.879   7.136   1.732
61300SOL     OW85796  14.623   8.433   2.714
61300SOL    HW185797  14.642   8.342   2.694
61300SOL    HW285798  14.664   8.482   2.643
61301SOL     OW85799  12.431   7.042   2.065
61301SOL    HW185800  12.377   7.038   1.986
61301SOL    HW285801  12.510   6.991   2.043
61302SOL     OW85802   2.404   0.965  14.860
61302SOL    HW185803   2.474   0.914   0.014
61302SOL    HW285804   2.383   1.033   0.037
61303SOL     OW85805  10.804   5.882   1.235
61303SOL    HW185806  10.795   5.946   1.305
61303SOL    HW285807  10.774   5.800   1.274
61304SOL     OW85808   4.277   1.505   6.239
61304SOL    HW185809   4.219   1.486   6.165
61304SOL    HW285810   4.332   1.577   6.208
61305SOL     OW85811  13.449   1.365   2.435
61305SOL    HW185812  13.539   1.375   2.403
61305SOL    HW285813  13.412   1.296   2.379
61306SOL     OW85814   1.330   1.805   9.074
61306SOL    HW185815   1.238   1.822   9.053
61306SOL    HW285816   1.374   1.805   8.989
61307SOL     OW85817   1.401  12.627   0.361
61307SOL    HW185818   1.416  12.710   0.316
61307SOL    HW285819   1.314  12.599   0.330
61308SOL     OW85820   1.011  13.477   9.761
61308SOL    HW185821   0.919  13.462   9.739
61308SOL    HW285822   1.033  13.561   9.720
61309SOL     OW85823  11.205   2.380  12.866
61309SOL    HW185824  11.253   2.306  12.905
61309SOL    HW285825  11.261   2.411  12.796
61310SOL     OW85826   9.405   9.873   9.446
61310SOL    HW185827   9.428   9.825   9.526
61310SOL    HW285828   9.482   9.925   9.425
61311SOL     OW85829  11.702  11.140  10.432
61311SOL    HW185830  11.762  11.208  10.462
61311SOL    HW285831  11.696  11.153  10.337
61312SOL     OW85832  13.588   8.008   2.963
61312SOL    HW185833  13.605   8.098   2.933
61312SOL    HW285834  13.587   8.015   3.059
61313SOL     OW85835  12.728  12.079   2.072
61313SOL    HW185836  12.740  12.150   2.009
61313SOL    HW285837  12.777  12.107   2.149
61314SOL     OW85838   7.255   3.336   5.367
61314SOL    HW185839   7.177   3.315   5.418
61314SOL    HW285840   7.236   3.422   5.328
61315SOL     OW85841   3.218   4.971  12.967
61315SOL    HW185842   3.227   4.958  13.062
61315SOL    HW285843   3.135   5.018  12.957
61316SOL     OW85844  10.411  11.582   0.105
61316SOL    HW185845  10.331  11.543   0.138
61316SOL    HW285846  10.425  11.659   0.159
61317SOL     OW85847   5.498   9.789   6.300
61317SOL    HW185848   5.437   9.862   6.290
61317SOL    HW285849   5.537   9.779   6.213
61318SOL     OW85850   7.970   0.747   9.463
61318SOL    HW185851   7.962   0.754   9.558
61318SOL    HW285852   8.065   0.747   9.447
61319SOL     OW85853   9.217   1.431  11.862
61319SOL    HW185854   9.268   1.508  11.838
61319SOL    HW285855   9.181   1.452  11.948
61320SOL     OW85856   4.451   9.968   7.649
61320SOL    HW185857   4.518   9.923   7.599
61320SOL    HW285858   4.437  10.050   7.602
61321SOL     OW85859  10.466   2.846  12.427
61321SOL    HW185860  10.528   2.774  12.419
61321SOL    HW285861  10.457   2.880  12.338
61322SOL     OW85862   8.904   4.511   1.925
61322SOL    HW185863   8.949   4.589   1.890
61322SOL    HW285864   8.944   4.438   1.877
61323SOL     OW85865  10.031  11.962  11.506
61323SOL    HW185866  10.067  11.997  11.425
61323SOL    HW285867  10.083  12.001  11.575
61324SOL     OW85868  10.372  12.069   0.608
61324SOL    HW185869  10.292  12.046   0.560
61324SOL    HW285870  10.373  12.010   0.683
61325SOL     OW85871  14.884  11.923  12.177
61325SOL    HW185872   0.021  11.958  12.263
61325SOL    HW285873   0.071  11.868  12.151
61326SOL     OW85874   4.953  10.356   0.337
61326SOL    HW185875   5.032  10.380   0.384
61326SOL    HW285876   4.979  10.282   0.282
61327SOL     OW85877  12.688   1.386   9.581
61327SOL    HW185878  12.751   1.452   9.554
61327SOL    HW285879  12.684   1.325   9.507
61328SOL     OW85880   6.780   9.996   6.248
61328SOL    HW185881   6.856   9.942   6.228
61328SOL    HW285882   6.763  10.043   6.166
61329SOL     OW85883  10.317   0.468   9.579
61329SOL    HW185884  10.403   0.491   9.545
61329SOL    HW285885  10.287   0.548   9.622
61330SOL     OW85886   3.411  12.603   8.851
61330SOL    HW185887   3.507  12.599   8.849
61330SOL    HW285888   3.384  12.515   8.874
61331SOL     OW85889   0.611  12.218   3.022
61331SOL    HW185890   0.683  12.178   3.070
61331SOL    HW285891   0.642  12.222   2.931
61332SOL     OW85892   4.349  13.909  14.872
61332SOL    HW185893   4.418  13.865  14.822
61332SOL    HW285894   4.282  13.929  14.806
61333SOL     OW85895   4.963   9.308   2.353
61333SOL    HW185896   4.894   9.243   2.362
61333SOL    HW285897   4.921   9.391   2.377
61334SOL     OW85898   3.107   4.396   6.455
61334SOL    HW185899   3.080   4.347   6.533
61334SOL    HW285900   3.043   4.372   6.388
61335SOL     OW85901  11.543   1.645  14.558
61335SOL    HW185902  11.584   1.731  14.569
61335SOL    HW285903  11.456   1.663  14.523
61336SOL     OW85904   0.879  13.434   8.608
61336SOL    HW185905   0.933  13.403   8.536
61336SOL    HW285906   0.789  13.418   8.579
61337SOL     OW85907  11.983  13.386   4.021
61337SOL    HW185908  12.040  13.379   4.097
61337SOL    HW285909  12.028  13.448   3.963
61338SOL     OW85910   8.177   6.437  12.502
61338SOL    HW185911   8.217   6.379  12.437
61338SOL    HW285912   8.220   6.522  12.488
61339SOL     OW85913   6.305   2.759   6.933
61339SOL    HW185914   6.333   2.686   6.878
61339SOL    HW285915   6.291   2.719   7.019
61340SOL     OW85916   5.694  11.701   5.378
61340SOL    HW185917   5.709  11.754   5.300
61340SOL    HW285918   5.683  11.612   5.346
61341SOL     OW85919   7.159   7.136  10.320
61341SOL    HW185920   7.203   7.143  10.405
61341SOL    HW285921   7.230   7.129  10.257
61342SOL     OW85922  11.817   6.587   0.541
61342SOL    HW185923  11.823   6.526   0.615
61342SOL    HW285924  11.903   6.582   0.499
61343SOL     OW85925   9.362   8.795   1.308
61343SOL    HW185926   9.346   8.703   1.289
61343SOL    HW285927   9.291   8.820   1.367
61344SOL     OW85928   2.859   9.467   1.149
61344SOL    HW185929   2.894   9.545   1.108
61344SOL    HW285930   2.792   9.435   1.089
61345SOL     OW85931  13.966   8.725   7.667
61345SOL    HW185932  13.983   8.646   7.718
61345SOL    HW285933  13.974   8.696   7.576
61346SOL     OW85934  11.254   2.675   7.989
61346SOL    HW185935  11.229   2.605   8.049
61346SOL    HW285936  11.349   2.672   7.988
61347SOL     OW85937  10.329   1.211  13.787
61347SOL    HW185938  10.251   1.266  13.777
61347SOL    HW285939  10.384   1.259  13.849
61348SOL     OW85940   4.687   5.511   9.279
61348SOL    HW185941   4.643   5.457   9.344
61348SOL    HW285942   4.776   5.522   9.313
61349SOL     OW85943   1.217   2.800  14.817
61349SOL    HW185944   1.276   2.735  14.779
61349SOL    HW285945   1.188   2.761   0.012
61350SOL     OW85946   0.451   8.836   2.188
61350SOL    HW185947   0.531   8.887   2.202
61350SOL    HW285948   0.429   8.802   2.274
61351SOL     OW85949   9.296   9.106  12.367
61351SOL    HW185950   9.365   9.077  12.308
61351SOL    HW285951   9.302   9.202  12.367
61352SOL     OW85952   1.773   7.896   9.147
61352SOL    HW185953   1.792   7.822   9.090
61352SOL    HW285954   1.831   7.966   9.117
61353SOL     OW85955   8.593  11.226  11.179
61353SOL    HW185956   8.635  11.288  11.240
61353SOL    HW285957   8.560  11.281  11.108
61354SOL     OW85958   5.743   4.958  11.120
61354SOL    HW185959   5.712   4.915  11.040
61354SOL    HW285960   5.663   4.992  11.161
61355SOL     OW85961   1.990   8.398   5.509
61355SOL    HW185962   1.933   8.322   5.515
61355SOL    HW285963   1.967   8.452   5.585
61356SOL     OW85964   8.635  11.636   5.659
61356SOL    HW185965   8.583  11.702   5.707
61356SOL    HW285966   8.603  11.552   5.692
61357SOL     OW85967  10.999   3.401  12.500
61357SOL    HW185968  11.049   3.362  12.427
61357SOL    HW285969  11.010   3.339  12.572
61358SOL     OW85970  12.331   8.428  10.137
61358SOL    HW185971  12.397   8.445  10.070
61358SOL    HW285972  12.371   8.361  10.193
61359SOL     OW85973   6.373  10.666   0.727
61359SOL    HW185974   6.349  10.629   0.642
61359SOL    HW285975   6.424  10.597   0.770
61360SOL     OW85976   4.059  14.199  13.606
61360SOL    HW185977   4.110  14.214  13.526
61360SOL    HW285978   4.033  14.107  13.600
61361SOL     OW85979   6.369  12.894   4.211
61361SOL    HW185980   6.350  12.942   4.131
61361SOL    HW285981   6.284  12.865   4.243
61362SOL     OW85982   8.325  12.232   9.451
61362SOL    HW185983   8.299  12.180   9.374
61362SOL    HW285984   8.243  12.248   9.498
61363SOL     OW85985  13.436   3.340   5.123
61363SOL    HW185986  13.403   3.430   5.116
61363SOL    HW285987  13.511   3.336   5.064
61364SOL     OW85988   3.091   6.165   9.877
61364SOL    HW185989   3.124   6.255   9.870
61364SOL    HW285990   3.050   6.161   9.963
61365SOL     OW85991  11.522   6.396   1.038
61365SOL    HW185992  11.518   6.306   1.004
61365SOL    HW285993  11.567   6.387   1.122
61366SOL     OW85994   9.268   5.437  12.818
61366SOL    HW185995   9.284   5.414  12.727
61366SOL    HW285996   9.207   5.511  12.814
61367SOL     OW85997   7.477   6.529  11.447
61367SOL    HW185998   7.453   6.544  11.355
61367SOL    HW285999   7.444   6.606  11.493
61368SOL     OW86000   9.624  13.814   5.470
61368SOL    HW186001   9.701  13.812   5.413
61368SOL    HW286002   9.554  13.775   5.417
61369SOL     OW86003  13.046  13.745   0.277
61369SOL    HW186004  13.039  13.659   0.319
61369SOL    HW286005  13.024  13.729   0.185
61370SOL     OW86006   6.963   0.565   0.066
61370SOL    HW186007   7.009   0.537   0.145
61370SOL    HW286008   6.942   0.657   0.081
61371SOL     OW86009   6.954   9.601   9.137
61371SOL    HW186010   7.040   9.612   9.177
61371SOL    HW286011   6.973   9.580   9.045
61372SOL     OW86012  11.817   7.438   3.149
61372SOL    HW186013  11.889   7.499   3.162
61372SOL    HW286014  11.755   7.460   3.219
61373SOL     OW86015  13.453  11.893  11.852
61373SOL    HW186016  13.364  11.876  11.882
61373SOL    HW286017  13.508  11.844  11.913
61374SOL     OW86018  13.606   4.799  10.606
61374SOL    HW186019  13.676   4.778  10.543
61374SOL    HW286020  13.634   4.882  10.645
61375SOL     OW86021  12.569   9.683   5.926
61375SOL    HW186022  12.489   9.722   5.961
61375SOL    HW286023  12.577   9.721   5.838
61376SOL     OW86024   3.843  13.456   2.932
61376SOL    HW186025   3.763  13.440   2.983
61376SOL    HW286026   3.865  13.548   2.950
61377SOL     OW86027   4.787   0.138   2.897
61377SOL    HW186028   4.858   0.110   2.838
61377SOL    HW286029   4.727   0.063   2.900
61378SOL     OW86030   7.391   6.264  10.055
61378SOL    HW186031   7.388   6.304   9.968
61378SOL    HW286032   7.399   6.170  10.037
61379SOL     OW86033   9.253   1.980   3.206
61379SOL    HW186034   9.302   1.899   3.220
61379SOL    HW286035   9.278   2.035   3.280
61380SOL     OW86036  11.053   6.565   6.763
61380SOL    HW186037  10.977   6.568   6.821
61380SOL    HW286038  11.065   6.656   6.735
61381SOL     OW86039  13.170   5.312   0.709
61381SOL    HW186040  13.163   5.402   0.679
61381SOL    HW286041  13.137   5.260   0.636
61382SOL     OW86042   0.633   9.122   0.530
61382SOL    HW186043   0.690   9.128   0.606
61382SOL    HW286044   0.657   9.039   0.488
61383SOL     OW86045   9.582   3.248   3.994
61383SOL    HW186046   9.616   3.327   4.036
61383SOL    HW286047   9.656   3.216   3.941
61384SOL     OW86048   7.450  12.412   2.920
61384SOL    HW186049   7.513  12.483   2.910
61384SOL    HW286050   7.501  12.339   2.955
61385SOL     OW86051   8.150   6.639   2.602
61385SOL    HW186052   8.147   6.680   2.516
61385SOL    HW286053   8.058   6.633   2.629
61386SOL     OW86054   6.777  11.790   5.312
61386SOL    HW186055   6.811  11.707   5.280
61386SOL    HW286056   6.785  11.785   5.407
61387SOL     OW86057  11.805   8.933  10.379
61387SOL    HW186058  11.829   8.976  10.297
61387SOL    HW286059  11.711   8.953  10.389
61388SOL     OW86060   1.717   9.690  11.409
61388SOL    HW186061   1.712   9.690  11.505
61388SOL    HW286062   1.669   9.610  11.383
61389SOL     OW86063  14.509  12.432  13.956
61389SOL    HW186064  14.486  12.339  13.950
61389SOL    HW286065  14.424  12.477  13.960
61390SOL     OW86066  13.781  12.468   9.055
61390SOL    HW186067  13.776  12.497   8.965
61390SOL    HW286068  13.867  12.499   9.085
61391SOL     OW86069   1.895  11.203   9.562
61391SOL    HW186070   1.983  11.239   9.552
61391SOL    HW286071   1.880  11.202   9.656
61392SOL     OW86072   4.658   9.837   1.678
61392SOL    HW186073   4.632   9.882   1.597
61392SOL    HW286074   4.686   9.750   1.649
61393SOL     OW86075  14.450   7.381   6.052
61393SOL    HW186076  14.499   7.301   6.035
61393SOL    HW286077  14.393   7.391   5.976
61394SOL     OW86078  11.194   2.532   4.630
61394SOL    HW186079  11.201   2.627   4.624
61394SOL    HW286080  11.101   2.516   4.644
61395SOL     OW86081   1.695   9.697   6.292
61395SOL    HW186082   1.767   9.760   6.303
61395SOL    HW286083   1.735   9.612   6.306
61396SOL     OW86084  12.632  11.872  10.726
61396SOL    HW186085  12.656  11.808  10.659
61396SOL    HW286086  12.615  11.953  10.678
61397SOL     OW86087   6.167  14.416  12.766
61397SOL    HW186088   6.103  14.477  12.803
61397SOL    HW286089   6.202  14.462  12.690
61398SOL     OW86090   0.326   7.214   2.617
61398SOL    HW186091   0.354   7.254   2.535
61398SOL    HW286092   0.314   7.122   2.596
61399SOL     OW86093  10.292   3.250   6.018
61399SOL    HW186094  10.301   3.331   5.967
61399SOL    HW286095  10.289   3.180   5.952
61400SOL     OW86096   5.616  13.263   5.313
61400SOL    HW186097   5.681  13.249   5.383
61400SOL    HW286098   5.549  13.318   5.353
61401SOL     OW86099  14.202   6.200  10.249
61401SOL    HW186100  14.150   6.271  10.286
61401SOL    HW286101  14.137   6.133  10.226
61402SOL     OW86102   6.382  14.699   2.120
61402SOL    HW186103   6.314  14.760   2.093
61402SOL    HW286104   6.350  14.613   2.091
61403SOL     OW86105   6.086  10.840   7.415
61403SOL    HW186106   6.149  10.798   7.356
61403SOL    HW286107   6.136  10.909   7.457
61404SOL     OW86108  12.745  10.437   3.825
61404SOL    HW186109  12.826  10.406   3.865
61404SOL    HW286110  12.771  10.515   3.775
61405SOL     OW86111   5.692   2.963   4.846
61405SOL    HW186112   5.731   2.928   4.925
61405SOL    HW286113   5.693   3.058   4.858
61406SOL     OW86114   3.317   7.285  11.409
61406SOL    HW186115   3.350   7.316  11.493
61406SOL    HW286116   3.351   7.348  11.345
61407SOL     OW86117   0.384   0.374   0.555
61407SOL    HW186118   0.374   0.464   0.587
61407SOL    HW286119   0.295   0.339   0.557
61408SOL     OW86120  11.206   8.544   5.895
61408SOL    HW186121  11.128   8.500   5.863
61408SOL    HW286122  11.271   8.475   5.906
61409SOL     OW86123   8.746   4.291  11.229
61409SOL    HW186124   8.727   4.316  11.138
61409SOL    HW286125   8.841   4.282  11.232
61410SOL     OW86126  11.061  11.842   4.990
61410SOL    HW186127  11.155  11.828   4.978
61410SOL    HW286128  11.026  11.754   5.008
61411SOL     OW86129   9.276  11.170  13.497
61411SOL    HW186130   9.262  11.090  13.548
61411SOL    HW286131   9.187  11.200  13.476
61412SOL     OW86132  13.919   6.186  12.515
61412SOL    HW186133  13.879   6.129  12.580
61412SOL    HW286134  13.935   6.268  12.562
61413SOL     OW86135  13.520   6.197  13.184
61413SOL    HW186136  13.529   6.246  13.102
61413SOL    HW286137  13.549   6.109  13.162
61414SOL     OW86138   3.102   8.239   6.392
61414SOL    HW186139   3.032   8.214   6.452
61414SOL    HW286140   3.134   8.323   6.425
61415SOL     OW86141   2.180   2.431  14.137
61415SOL    HW186142   2.192   2.342  14.106
61415SOL    HW286143   2.118   2.424  14.209
61416SOL     OW86144   7.144   7.732   5.479
61416SOL    HW186145   7.066   7.723   5.536
61416SOL    HW286146   7.204   7.665   5.512
61417SOL     OW86147   3.365   4.907   6.400
61417SOL    HW186148   3.444   4.856   6.378
61417SOL    HW286149   3.399   4.991   6.430
61418SOL     OW86150   7.818   7.643  10.783
61418SOL    HW186151   7.733   7.601  10.768
61418SOL    HW286152   7.871   7.616  10.707
61419SOL     OW86153   8.002  12.846  13.095
61419SOL    HW186154   7.929  12.900  13.128
61419SOL    HW286155   8.045  12.814  13.174
61420SOL     OW86156   1.853  12.960   0.239
61420SOL    HW186157   1.885  13.022   0.173
61420SOL    HW286158   1.769  12.996   0.267
61421SOL     OW86159   8.290   6.954   0.812
61421SOL    HW186160   8.211   6.935   0.862
61421SOL    HW286161   8.343   6.875   0.821
61422SOL     OW86162   2.293   1.613   4.761
61422SOL    HW186163   2.316   1.539   4.817
61422SOL    HW286164   2.229   1.663   4.812
61423SOL     OW86165   3.430  14.512   3.927
61423SOL    HW186166   3.518  14.476   3.919
61423SOL    HW286167   3.439  14.581   3.992
61424SOL     OW86168   7.411  11.328  10.384
61424SOL    HW186169   7.484  11.329  10.323
61424SOL    HW286170   7.334  11.310  10.330
61425SOL     OW86171  13.299   4.804   9.524
61425SOL    HW186172  13.300   4.750   9.445
61425SOL    HW286173  13.314   4.743   9.595
61426SOL     OW86174  11.453   2.690   6.019
61426SOL    HW186175  11.398   2.688   6.098
61426SOL    HW286176  11.504   2.610   6.024
61427SOL     OW86177   0.821   8.502   1.672
61427SOL    HW186178   0.804   8.521   1.764
61427SOL    HW286179   0.807   8.407   1.664
61428SOL     OW86180  12.152  14.869   1.444
61428SOL    HW186181  12.179  14.797   1.387
61428SOL    HW286182  12.105   0.041   1.387
61429SOL     OW86183   1.862  14.010  13.872
61429SOL    HW186184   1.863  14.097  13.913
61429SOL    HW286185   1.922  14.019  13.797
61430SOL     OW86186   9.071   1.875   2.984
61430SOL    HW186187   9.110   1.897   3.069
61430SOL    HW286188   9.018   1.797   3.000
61431SOL     OW86189  12.258   2.615   4.035
61431SOL    HW186190  12.272   2.601   4.128
61431SOL    HW286191  12.284   2.705   4.019
61432SOL     OW86192   1.144   1.931  10.085
61432SOL    HW186193   1.169   1.870  10.015
61432SOL    HW286194   1.079   1.883  10.136
61433SOL     OW86195   6.688   7.843   2.963
61433SOL    HW186196   6.709   7.908   3.030
61433SOL    HW286197   6.722   7.761   2.998
61434SOL     OW86198  14.733  12.442   1.437
61434SOL    HW186199  14.786  12.411   1.363
61434SOL    HW286200  14.644  12.447   1.402
61435SOL     OW86201   1.218   4.599   8.046
61435SOL    HW186202   1.135   4.565   8.078
61435SOL    HW286203   1.278   4.524   8.052
61436SOL     OW86204   9.890  11.094   7.517
61436SOL    HW186205   9.970  11.106   7.466
61436SOL    HW286206   9.849  11.180   7.519
61437SOL     OW86207   2.778   1.202   8.052
61437SOL    HW186208   2.829   1.196   8.132
61437SOL    HW286209   2.843   1.210   7.982
61438SOL     OW86210   5.447   4.236  13.442
61438SOL    HW186211   5.397   4.300  13.391
61438SOL    HW286212   5.393   4.221  13.520
61439SOL     OW86213   9.842  13.576  11.604
61439SOL    HW186214   9.759  13.598  11.646
61439SOL    HW286215   9.819  13.517  11.533
61440SOL     OW86216   1.760   0.813   5.577
61440SOL    HW186217   1.665   0.821   5.588
61440SOL    HW286218   1.771   0.755   5.502
61441SOL     OW86219   9.492  11.110  14.856
61441SOL    HW186220   9.501  11.145   0.058
61441SOL    HW286221   9.461  11.185  14.804
61442SOL     OW86222  10.474   5.199  10.808
61442SOL    HW186223  10.382   5.195  10.783
61442SOL    HW286224  10.498   5.108  10.827
61443SOL     OW86225  11.814  11.337   0.064
61443SOL    HW186226  11.762  11.363   0.140
61443SOL    HW286227  11.778  11.253   0.037
61444SOL     OW86228   3.928   5.928   4.245
61444SOL    HW186229   3.943   5.881   4.163
61444SOL    HW286230   3.981   5.881   4.310
61445SOL     OW86231  11.573   0.611   8.644
61445SOL    HW186232  11.618   0.654   8.717
61445SOL    HW286233  11.511   0.551   8.686
61446SOL     OW86234  12.351  14.137  12.264
61446SOL    HW186235  12.341  14.067  12.199
61446SOL    HW286236  12.441  14.129  12.294
61447SOL     OW86237   0.279   0.733  13.323
61447SOL    HW186238   0.235   0.664  13.373
61447SOL    HW286239   0.312   0.689  13.245
61448SOL     OW86240   9.689   1.326   5.832
61448SOL    HW186241   9.783   1.315   5.818
61448SOL    HW286242   9.658   1.239   5.857
61449SOL     OW86243  12.951  12.260   3.837
61449SOL    HW186244  12.939  12.234   3.746
61449SOL    HW286245  12.864  12.252   3.876
61450SOL     OW86246   1.424   5.864   5.805
61450SOL    HW186247   1.345   5.857   5.857
61450SOL    HW286248   1.488   5.810   5.852
61451SOL     OW86249   3.538   4.928   9.757
61451SOL    HW186250   3.506   4.893   9.840
61451SOL    HW286251   3.631   4.903   9.754
61452SOL     OW86252   8.048  13.085   3.269
61452SOL    HW186253   8.097  13.098   3.350
61452SOL    HW286254   7.956  13.081   3.297
61453SOL     OW86255   7.126   2.067   3.474
61453SOL    HW186256   7.174   1.988   3.498
61453SOL    HW286257   7.189   2.138   3.486
61454SOL     OW86258   0.011   9.920  11.008
61454SOL    HW186259   0.093   9.969  11.024
61454SOL    HW286260  14.829   9.983  11.030
61455SOL     OW86261   0.773  14.844  12.599
61455SOL    HW186262   0.824   0.035  12.619
61455SOL    HW286263   0.682  14.870  12.612
61456SOL     OW86264   7.909   5.387  13.971
61456SOL    HW186265   7.920   5.395  14.066
61456SOL    HW286266   7.877   5.473  13.943
61457SOL     OW86267   5.875   0.042   9.470
61457SOL    HW186268   5.947   0.080   9.419
61457SOL    HW286269   5.908   0.042   9.560
61458SOL     OW86270   7.706   0.284   0.080
61458SOL    HW186271   7.639   0.351   0.070
61458SOL    HW286272   7.662   0.202   0.056
61459SOL     OW86273   2.369   0.474   8.396
61459SOL    HW186274   2.401   0.534   8.463
61459SOL    HW286275   2.274   0.486   8.396
61460SOL     OW86276   2.468   6.878   6.952
61460SOL    HW186277   2.495   6.938   7.022
61460SOL    HW286278   2.476   6.791   6.992
61461SOL     OW86279  12.160   1.864  10.267
61461SOL    HW186280  12.131   1.814  10.190
61461SOL    HW286281  12.179   1.952  10.233
61462SOL     OW86282  13.308   4.019   3.927
61462SOL    HW186283  13.352   4.104   3.915
61462SOL    HW286284  13.379   3.958   3.947
61463SOL     OW86285   8.931   6.088   6.953
61463SOL    HW186286   8.926   5.993   6.964
61463SOL    HW286287   9.015   6.102   6.908
61464SOL     OW86288  14.586  14.778   7.830
61464SOL    HW186289  14.553  14.691   7.856
61464SOL    HW286290  14.659  14.794   7.890
61465SOL     OW86291   4.991  14.391  11.894
61465SOL    HW186292   4.920  14.433  11.944
61465SOL    HW286293   4.957  14.385  11.805
61466SOL     OW86294   6.737  11.469   4.829
61466SOL    HW186295   6.816  11.515   4.857
61466SOL    HW286296   6.769  11.396   4.776
61467SOL     OW86297  12.210   8.785   8.626
61467SOL    HW186298  12.152   8.731   8.572
61467SOL    HW286299  12.283   8.726   8.648
61468SOL     OW86300   0.943   1.702   4.963
61468SOL    HW186301   1.025   1.687   5.011
61468SOL    HW286302   0.971   1.746   4.882
61469SOL     OW86303  12.138   2.718   0.659
61469SOL    HW186304  12.091   2.754   0.583
61469SOL    HW286305  12.070   2.675   0.710
61470SOL     OW86306   0.847   0.958   4.396
61470SOL    HW186307   0.843   1.053   4.404
61470SOL    HW286308   0.769   0.934   4.346
61471SOL     OW86309   9.808   4.489   6.254
61471SOL    HW186310   9.734   4.496   6.193
61471SOL    HW286311   9.800   4.401   6.290
61472SOL     OW86312   5.972  14.599   9.691
61472SOL    HW186313   6.039  14.531   9.690
61472SOL    HW286314   5.895  14.558   9.651
61473SOL     OW86315   6.958   3.588   6.678
61473SOL    HW186316   6.994   3.556   6.761
61473SOL    HW286317   6.978   3.682   6.678
61474SOL     OW86318   5.635   1.045   9.302
61474SOL    HW186319   5.665   1.033   9.393
61474SOL    HW286320   5.577   0.970   9.286
61475SOL     OW86321  12.068  10.358   8.459
61475SOL    HW186322  12.102  10.447   8.464
61475SOL    HW286323  12.059  10.341   8.365
61476SOL     OW86324   8.789   8.220  12.157
61476SOL    HW186325   8.866   8.171  12.128
61476SOL    HW286326   8.743   8.160  12.215
61477SOL     OW86327   5.106   6.118  13.486
61477SOL    HW186328   5.080   6.032  13.519
61477SOL    HW286329   5.114   6.106  13.392
61478SOL     OW86330   7.237  13.107  13.636
61478SOL    HW186331   7.293  13.159  13.694
61478SOL    HW286332   7.148  13.133  13.659
61479SOL     OW86333   0.220   8.269   8.136
61479SOL    HW186334   0.243   8.360   8.153
61479SOL    HW286335   0.304   8.223   8.130
61480SOL     OW86336   4.997  10.726  13.598
61480SOL    HW186337   5.056  10.694  13.665
61480SOL    HW286338   4.914  10.683  13.616
61481SOL     OW86339  13.040   6.282   7.309
61481SOL    HW186340  13.083   6.352   7.258
61481SOL    HW286341  13.112   6.237   7.353
61482SOL     OW86342   8.530   7.049   5.219
61482SOL    HW186343   8.570   7.119   5.168
61482SOL    HW286344   8.532   7.080   5.310
61483SOL     OW86345  12.086  11.343   7.249
61483SOL    HW186346  12.136  11.300   7.179
61483SOL    HW286347  12.062  11.272   7.308
61484SOL     OW86348   5.068  12.715  11.076
61484SOL    HW186349   5.096  12.694  11.165
61484SOL    HW286350   5.131  12.669  11.020
61485SOL     OW86351   5.422   1.005  10.147
61485SOL    HW186352   5.400   1.084  10.196
61485SOL    HW286353   5.368   0.937  10.187
61486SOL     OW86354   2.617   9.853   9.029
61486SOL    HW186355   2.708   9.835   9.051
61486SOL    HW286356   2.569   9.834   9.109
61487SOL     OW86357  13.897   1.708  10.649
61487SOL    HW186358  13.918   1.616  10.667
61487SOL    HW286359  13.891   1.713  10.554
61488SOL     OW86360   4.401   9.332   9.837
61488SOL    HW186361   4.441   9.322   9.923
61488SOL    HW286362   4.399   9.426   9.822
61489SOL     OW86363   3.690   5.105   2.990
61489SOL    HW186364   3.638   5.044   3.044
61489SOL    HW286365   3.689   5.187   3.039
61490SOL     OW86366   6.113   1.146   9.024
61490SOL    HW186367   6.032   1.128   9.071
61490SOL    HW286368   6.143   1.230   9.057
61491SOL     OW86369  10.871   1.912   2.262
61491SOL    HW186370  10.958   1.881   2.236
61491SOL    HW286371  10.876   1.918   2.358
61492SOL     OW86372   1.064  14.798   3.138
61492SOL    HW186373   1.021  14.816   3.221
61492SOL    HW286374   1.136  14.738   3.159
61493SOL     OW86375  13.107   3.779  14.462
61493SOL    HW186376  13.138   3.800  14.549
61493SOL    HW286377  13.050   3.703  14.475
61494SOL     OW86378  13.220   0.884  10.702
61494SOL    HW186379  13.143   0.827  10.700
61494SOL    HW286380  13.269   0.854  10.778
61495SOL     OW86381   7.941   1.780   9.194
61495SOL    HW186382   8.011   1.815   9.139
61495SOL    HW286383   7.954   1.685   9.193
61496SOL     OW86384   5.432   8.263  11.872
61496SOL    HW186385   5.460   8.282  11.961
61496SOL    HW286386   5.358   8.322  11.856
61497SOL     OW86387   4.712   7.044   4.177
61497SOL    HW186388   4.719   7.092   4.094
61497SOL    HW286389   4.725   6.952   4.152
61498SOL     OW86390   1.294  12.305   4.591
61498SOL    HW186391   1.238  12.341   4.522
61498SOL    HW286392   1.362  12.256   4.544
61499SOL     OW86393   2.300   9.246  12.635
61499SOL    HW186394   2.251   9.186  12.578
61499SOL    HW286395   2.276   9.333  12.604
61500SOL     OW86396   9.598   0.092   0.127
61500SOL    HW186397   9.636   0.178   0.114
61500SOL    HW286398   9.506   0.109   0.149
61501SOL     OW86399   8.418  14.012   4.037
61501SOL    HW186400   8.353  14.081   4.021
61501SOL    HW286401   8.470  14.009   3.957
61502SOL     OW86402   5.687   7.833   6.841
61502SOL    HW186403   5.727   7.918   6.862
61502SOL    HW286404   5.733   7.771   6.897
61503SOL     OW86405   8.980  11.223  11.053
61503SOL    HW186406   8.929  11.147  11.082
61503SOL    HW286407   9.070  11.190  11.044
61504SOL     OW86408  13.076   0.007  10.842
61504SOL    HW186409  13.014  14.829  10.809
61504SOL    HW286410  13.033   0.091  10.824
61505SOL     OW86411  10.789   6.110   6.846
61505SOL    HW186412  10.799   6.112   6.751
61505SOL    HW286413  10.850   6.177   6.878
61506SOL     OW86414   3.680   5.287  13.888
61506SOL    HW186415   3.678   5.360  13.951
61506SOL    HW286416   3.749   5.312  13.826
61507SOL     OW86417   7.214   5.849  10.391
61507SOL    HW186418   7.201   5.755  10.403
61507SOL    HW286419   7.136   5.889  10.429
61508SOL     OW86420  13.451   8.358   5.499
61508SOL    HW186421  13.428   8.299   5.571
61508SOL    HW286422  13.536   8.328   5.469
61509SOL     OW86423   5.080  10.985  13.523
61509SOL    HW186424   5.089  10.890  13.531
61509SOL    HW286425   5.065  11.000  13.430
61510SOL     OW86426  10.942   5.246   8.929
61510SOL    HW186427  10.943   5.153   8.905
61510SOL    HW286428  10.945   5.246   9.025
61511SOL     OW86429  14.074  10.744   6.385
61511SOL    HW186430  14.039  10.726   6.298
61511SOL    HW286431  14.077  10.840   6.390
61512SOL     OW86432  10.206   1.923   9.186
61512SOL    HW186433  10.274   1.891   9.127
61512SOL    HW286434  10.249   1.992   9.236
61513SOL     OW86435  13.382   6.666   5.964
61513SOL    HW186436  13.318   6.729   5.999
61513SOL    HW286437  13.431   6.715   5.899
61514SOL     OW86438   5.007   2.318   1.150
61514SOL    HW186439   5.061   2.363   1.215
61514SOL    HW286440   4.966   2.246   1.199
61515SOL     OW86441  11.780  11.266   4.139
61515SOL    HW186442  11.716  11.260   4.068
61515SOL    HW286443  11.736  11.319   4.206
61516SOL     OW86444  13.265  10.794  11.048
61516SOL    HW186445  13.308  10.827  10.969
61516SOL    HW286446  13.303  10.707  11.062
61517SOL     OW86447  12.914   5.568  13.489
61517SOL    HW186448  12.839   5.507  13.490
61517SOL    HW286449  12.921   5.599  13.579
61518SOL     OW86450   4.231   9.898   1.421
61518SOL    HW186451   4.173   9.946   1.480
61518SOL    HW286452   4.184   9.817   1.402
61519SOL     OW86453  12.293   5.895   6.850
61519SOL    HW186454  12.374   5.846   6.843
61519SOL    HW286455  12.225   5.834   6.823
61520SOL     OW86456   7.095   8.100  12.644
61520SOL    HW186457   7.100   8.012  12.606
61520SOL    HW286458   7.036   8.090  12.719
61521SOL     OW86459   6.242   0.971   5.819
61521SOL    HW186460   6.267   1.063   5.815
61521SOL    HW286461   6.324   0.924   5.833
61522SOL     OW86462  13.189  14.786   5.500
61522SOL    HW186463  13.243  14.731   5.444
61522SOL    HW286464  13.218  14.765   5.589
61523SOL     OW86465   1.914  12.441   9.645
61523SOL    HW186466   1.836  12.404   9.685
61523SOL    HW286467   1.972  12.461   9.719
61524SOL     OW86468  11.687   5.829  13.764
61524SOL    HW186469  11.607   5.863  13.724
61524SOL    HW286470  11.744   5.808  13.690
61525SOL     OW86471  13.121   1.621  14.361
61525SOL    HW186472  13.210   1.602  14.390
61525SOL    HW286473  13.094   1.696  14.413
61526SOL     OW86474  12.701   9.860   2.393
61526SOL    HW186475  12.627   9.821   2.439
61526SOL    HW286476  12.676   9.856   2.300
61527SOL     OW86477   9.065   6.155   6.044
61527SOL    HW186478   9.025   6.223   5.990
61527SOL    HW286479   9.047   6.182   6.134
61528SOL     OW86480  14.089   7.727   1.083
61528SOL    HW186481  14.039   7.645   1.077
61528SOL    HW286482  14.026   7.791   1.117
61529SOL     OW86483  13.498  11.353   1.644
61529SOL    HW186484  13.582  11.391   1.670
61529SOL    HW286485  13.433  11.419   1.669
61530SOL     OW86486  12.355   4.921   4.617
61530SOL    HW186487  12.271   4.907   4.575
61530SOL    HW286488  12.370   5.015   4.611
61531SOL     OW86489  10.032   8.771  14.432
61531SOL    HW186490  10.003   8.855  14.396
61531SOL    HW286491   9.955   8.715  14.431
61532SOL     OW86492   8.470   0.966   4.769
61532SOL    HW186493   8.527   0.989   4.696
61532SOL    HW286494   8.394   1.023   4.760
61533SOL     OW86495   5.262   8.510   9.674
61533SOL    HW186496   5.210   8.476   9.747
61533SOL    HW286497   5.346   8.466   9.682
61534SOL     OW86498  14.206   2.703  10.444
61534SOL    HW186499  14.281   2.674  10.496
61534SOL    HW286500  14.207   2.798  10.452
61535SOL     OW86501   7.305   3.814   7.893
61535SOL    HW186502   7.370   3.745   7.883
61535SOL    HW286503   7.346   3.892   7.856
61536SOL     OW86504  13.793   7.426   8.940
61536SOL    HW186505  13.703   7.435   8.909
61536SOL    HW286506  13.822   7.342   8.905
61537SOL     OW86507   7.268   3.313   4.865
61537SOL    HW186508   7.260   3.395   4.914
61537SOL    HW286509   7.361   3.308   4.844
61538SOL     OW86510   0.206   9.198  13.222
61538SOL    HW186511   0.282   9.252  13.202
61538SOL    HW286512   0.233   9.145  13.297
61539SOL     OW86513   6.224   2.879   0.325
61539SOL    HW186514   6.139   2.879   0.369
61539SOL    HW286515   6.246   2.787   0.315
61540SOL     OW86516   2.945  10.963   5.664
61540SOL    HW186517   2.989  10.886   5.628
61540SOL    HW286518   2.991  10.981   5.746
61541SOL     OW86519   8.828   1.016   3.797
61541SOL    HW186520   8.742   1.052   3.819
61541SOL    HW286521   8.883   1.092   3.783
61542SOL     OW86522   0.797   4.272   0.125
61542SOL    HW186523   0.794   4.193   0.179
61542SOL    HW286524   0.712   4.275   0.081
61543SOL     OW86525   6.694   9.122   5.070
61543SOL    HW186526   6.778   9.157   5.040
61543SOL    HW286527   6.688   9.036   5.029
61544SOL     OW86528  12.259   4.138  14.652
61544SOL    HW186529  12.175   4.141  14.607
61544SOL    HW286530  12.324   4.146  14.582
61545SOL     OW86531  13.862   6.407  12.707
61545SOL    HW186532  13.863   6.475  12.774
61545SOL    HW286533  13.848   6.454  12.625
61546SOL     OW86534   9.024   8.899   2.532
61546SOL    HW186535   8.932   8.922   2.547
61546SOL    HW286536   9.072   8.980   2.549
61547SOL     OW86537   8.740   4.831  11.718
61547SOL    HW186538   8.834   4.839  11.733
61547SOL    HW286539   8.725   4.737  11.708
61548SOL     OW86540  10.476  12.239  11.435
61548SOL    HW186541  10.503  12.328  11.412
61548SOL    HW286542  10.433  12.207  11.355
61549SOL     OW86543   6.784  12.239   7.473
61549SOL    HW186544   6.804  12.145   7.472
61549SOL    HW286545   6.689  12.243   7.457
61550SOL     OW86546   1.174   5.078   8.071
61550SOL    HW186547   1.231   5.111   8.140
61550SOL    HW286548   1.202   5.124   7.992
61551SOL     OW86549   1.723   6.007   5.412
61551SOL    HW186550   1.795   6.042   5.464
61551SOL    HW286551   1.746   6.028   5.321
61552SOL     OW86552   3.218   6.945  12.348
61552SOL    HW186553   3.273   6.969  12.273
61552SOL    HW286554   3.201   6.852  12.337
61553SOL     OW86555   2.979   0.372  12.007
61553SOL    HW186556   3.041   0.440  11.981
61553SOL    HW286557   2.923   0.414  12.072
61554SOL     OW86558  11.902   3.420  14.302
61554SOL    HW186559  11.889   3.489  14.237
61554SOL    HW286560  11.997   3.416  14.313
61555SOL     OW86561  13.552   0.617  12.744
61555SOL    HW186562  13.501   0.655  12.673
61555SOL    HW286563  13.587   0.693  12.792
61556SOL     OW86564  10.789   4.319  13.262
61556SOL    HW186565  10.825   4.407  13.259
61556SOL    HW286566  10.844   4.273  13.327
61557SOL     OW86567   5.427  14.151   2.470
61557SOL    HW186568   5.496  14.149   2.404
61557SOL    HW286569   5.455  14.087   2.535
61558SOL     OW86570   1.080   0.025   0.735
61558SOL    HW186571   1.010   0.082   0.702
61558SOL    HW286572   1.124  14.880   0.656
61559SOL     OW86573  12.020   8.542   7.364
61559SOL    HW186574  12.047   8.462   7.408
61559SOL    HW286575  12.009   8.606   7.434
61560SOL     OW86576   8.090   6.766   4.419
61560SOL    HW186577   8.123   6.852   4.445
61560SOL    HW286578   8.165   6.723   4.378
61561SOL     OW86579   4.301   4.871   2.032
61561SOL    HW186580   4.351   4.800   2.071
61561SOL    HW286581   4.270   4.836   1.949
61562SOL     OW86582   8.579   7.160  12.776
61562SOL    HW186583   8.488   7.188  12.777
61562SOL    HW286584   8.595   7.126  12.864
61563SOL     OW86585   3.092   1.739   9.729
61563SOL    HW186586   3.070   1.793   9.805
61563SOL    HW286587   3.183   1.713   9.743
61564SOL     OW86588  12.821  13.599  10.975
61564SOL    HW186589  12.862  13.578  11.059
61564SOL    HW286590  12.849  13.688  10.956
61565SOL     OW86591  14.757   9.784   1.526
61565SOL    HW186592  14.737   9.870   1.564
61565SOL    HW286593  14.745   9.795   1.432
61566SOL     OW86594  12.235   2.937   0.104
61566SOL    HW186595  12.300   2.873   0.074
61566SOL    HW286596  12.227   2.921   0.198
61567SOL     OW86597   2.662  10.652   6.949
61567SOL    HW186598   2.576  10.610   6.946
61567SOL    HW286599   2.721  10.585   6.984
61568SOL     OW86600  10.599   4.851   0.716
61568SOL    HW186601  10.519   4.802   0.735
61568SOL    HW286602  10.622   4.826   0.626
61569SOL     OW86603   5.408  13.517  13.391
61569SOL    HW186604   5.335  13.460  13.416
61569SOL    HW286605   5.486  13.460  13.397
61570SOL     OW86606  11.477  14.295  11.220
61570SOL    HW186607  11.536  14.364  11.252
61570SOL    HW286608  11.476  14.307  11.125
61571SOL     OW86609   0.017   8.930   1.167
61571SOL    HW186610   0.105   8.917   1.129
61571SOL    HW286611   0.028   8.910   1.260
61572SOL     OW86612   8.823   2.393   7.752
61572SOL    HW186613   8.880   2.410   7.677
61572SOL    HW286614   8.866   2.322   7.800
61573SOL     OW86615   6.577  12.336   3.000
61573SOL    HW186616   6.665  12.345   3.037
61573SOL    HW286617   6.544  12.426   2.996
61574SOL     OW86618   1.909   4.502   3.966
61574SOL    HW186619   1.936   4.451   4.042
61574SOL    HW286620   1.854   4.572   4.002
61575SOL     OW86621   5.191  12.265  12.867
61575SOL    HW186622   5.148  12.203  12.807
61575SOL    HW286623   5.227  12.209  12.936
61576SOL     OW86624  12.424   7.964   0.276
61576SOL    HW186625  12.328   7.963   0.276
61576SOL    HW286626  12.447   8.047   0.318
61577SOL     OW86627  10.081   2.756   0.494
61577SOL    HW186628  10.063   2.847   0.518
61577SOL    HW286629  10.131   2.721   0.568
61578SOL     OW86630  13.444   4.703   7.062
61578SOL    HW186631  13.414   4.669   6.978
61578SOL    HW286632  13.523   4.652   7.081
61579SOL     OW86633   8.607  14.701   2.483
61579SOL    HW186634   8.554  14.623   2.496
61579SOL    HW286635   8.689  14.682   2.528
61580SOL     OW86636   6.558   0.670   6.103
61580SOL    HW186637   6.509   0.598   6.142
61580SOL    HW286638   6.643   0.633   6.081
61581SOL     OW86639   3.234   2.108   4.526
61581SOL    HW186640   3.255   2.051   4.452
61581SOL    HW286641   3.202   2.049   4.594
61582SOL     OW86642   7.484   6.916  10.761
61582SOL    HW186643   7.451   6.957  10.681
61582SOL    HW286644   7.549   6.853  10.731
61583SOL     OW86645   1.049   7.140  11.106
61583SOL    HW186646   1.089   7.220  11.140
61583SOL    HW286647   1.094   7.123  11.024
61584SOL     OW86648  12.753   7.399   2.014
61584SOL    HW186649  12.675   7.420   2.065
61584SOL    HW286650  12.722   7.339   1.946
61585SOL     OW86651   0.540   2.535  11.689
61585SOL    HW186652   0.522   2.455  11.640
61585SOL    HW286653   0.457   2.555  11.732
61586SOL     OW86654   0.079  11.705   7.082
61586SOL    HW186655   0.032  11.783   7.051
61586SOL    HW286656   0.135  11.680   7.008
61587SOL     OW86657   7.447  14.428   5.027
61587SOL    HW186658   7.527  14.445   4.976
61587SOL    HW286659   7.409  14.350   4.987
61588SOL     OW86660  11.763   0.842   9.079
61588SOL    HW186661  11.841   0.891   9.104
61588SOL    HW286662  11.692   0.904   9.086
61589SOL     OW86663   4.945  10.338   1.992
61589SOL    HW186664   4.865  10.375   1.955
61589SOL    HW286665   5.016  10.376   1.940
61590SOL     OW86666   4.518   4.981   2.660
61590SOL    HW186667   4.534   4.936   2.743
61590SOL    HW286668   4.453   4.927   2.615
61591SOL     OW86669   4.009   8.140   8.855
61591SOL    HW186670   4.065   8.202   8.903
61591SOL    HW286671   4.063   8.061   8.846
61592SOL     OW86672   4.704  11.919   3.950
61592SOL    HW186673   4.676  11.850   4.009
61592SOL    HW286674   4.690  11.883   3.862
61593SOL     OW86675  13.908   1.200  11.199
61593SOL    HW186676  13.932   1.210  11.107
61593SOL    HW286677  13.972   1.137  11.234
61594SOL     OW86678   0.515   3.051   1.270
61594SOL    HW186679   0.428   3.031   1.237
61594SOL    HW286680   0.511   3.029   1.363
61595SOL     OW86681   5.706  13.217   4.337
61595SOL    HW186682   5.719  13.184   4.426
61595SOL    HW286683   5.611  13.223   4.328
61596SOL     OW86684   1.617  10.142   3.595
61596SOL    HW186685   1.674  10.213   3.564
61596SOL    HW286686   1.664  10.062   3.570
61597SOL     OW86687   4.931   0.464   4.054
61597SOL    HW186688   4.911   0.467   3.961
61597SOL    HW286689   4.947   0.371   4.072
61598SOL     OW86690   2.933   2.131  11.841
61598SOL    HW186691   2.881   2.182  11.778
61598SOL    HW286692   3.023   2.157  11.823
61599SOL     OW86693   2.160  13.179  11.997
61599SOL    HW186694   2.126  13.243  12.059
61599SOL    HW286695   2.253  13.170  12.020
61600SOL     OW86696  14.369  14.829  10.318
61600SOL    HW186697  14.306  14.759  10.299
61600SOL    HW286698  14.321   0.023  10.301
61601SOL     OW86699  10.242   1.210   3.653
61601SOL    HW186700  10.159   1.166   3.635
61601SOL    HW286701  10.288   1.212   3.569
61602SOL     OW86702   1.001  10.432   7.946
61602SOL    HW186703   0.959  10.468   7.868
61602SOL    HW286704   0.976  10.491   8.017
61603SOL     OW86705   1.523   4.501  10.520
61603SOL    HW186706   1.542   4.407  10.517
61603SOL    HW286707   1.429   4.506  10.538
61604SOL     OW86708   5.483  11.682   1.996
61604SOL    HW186709   5.548  11.632   2.046
61604SOL    HW286710   5.527  11.764   1.974
61605SOL     OW86711  10.787   6.323   1.383
61605SOL    HW186712  10.731   6.365   1.448
61605SOL    HW286713  10.840   6.261   1.433
61606SOL     OW86714   3.658  12.752  11.085
61606SOL    HW186715   3.634  12.812  11.014
61606SOL    HW286716   3.580  12.748  11.140
61607SOL     OW86717   7.591  11.806  11.177
61607SOL    HW186718   7.653  11.733  11.186
61607SOL    HW286719   7.599  11.833  11.086
61608SOL     OW86720   4.436   5.028  11.745
61608SOL    HW186721   4.515   4.982  11.715
61608SOL    HW286722   4.468   5.110  11.781
61609SOL     OW86723  12.637  12.898   3.026
61609SOL    HW186724  12.719  12.850   3.016
61609SOL    HW286725  12.665  12.987   3.051
61610SOL     OW86726   0.596   0.855  12.369
61610SOL    HW186727   0.687   0.839  12.343
61610SOL    HW286728   0.544   0.801  12.309
61611SOL     OW86729  12.019   3.527   0.397
61611SOL    HW186730  12.107   3.516   0.433
61611SOL    HW286731  12.007   3.621   0.391
61612SOL     OW86732   4.008  12.406   0.420
61612SOL    HW186733   3.963  12.490   0.419
61612SOL    HW286734   3.954  12.350   0.475
61613SOL     OW86735  14.434  12.419   8.896
61613SOL    HW186736  14.472  12.345   8.849
61613SOL    HW286737  14.435  12.491   8.833
61614SOL     OW86738   3.550   7.554  14.381
61614SOL    HW186739   3.458   7.532  14.398
61614SOL    HW286740   3.583   7.480  14.330
61615SOL     OW86741   0.478   3.205  12.979
61615SOL    HW186742   0.475   3.181  12.886
61615SOL    HW286743   0.462   3.123  13.026
61616SOL     OW86744   6.487   1.313   4.061
61616SOL    HW186745   6.507   1.289   3.970
61616SOL    HW286746   6.445   1.398   4.055
61617SOL     OW86747   4.729  10.913   3.625
61617SOL    HW186748   4.703  11.001   3.653
61617SOL    HW286749   4.824  10.912   3.638
61618SOL     OW86750   6.045   0.724   2.924
61618SOL    HW186751   6.045   0.740   2.829
61618SOL    HW286752   6.073   0.633   2.933
61619SOL     OW86753  10.848   0.645   5.913
61619SOL    HW186754  10.784   0.627   5.845
61619SOL    HW286755  10.893   0.561   5.926
61620SOL     OW86756   5.591   6.174   5.398
61620SOL    HW186757   5.531   6.136   5.334
61620SOL    HW286758   5.672   6.124   5.387
61621SOL     OW86759   2.816   4.424  12.979
61621SOL    HW186760   2.863   4.397  12.900
61621SOL    HW286761   2.775   4.343  13.011
61622SOL     OW86762   0.891  11.347   1.550
61622SOL    HW186763   0.804  11.314   1.571
61622SOL    HW286764   0.876  11.438   1.524
61623SOL     OW86765  12.685   0.031   3.568
61623SOL    HW186766  12.719  14.829   3.581
61623SOL    HW286767  12.761   0.081   3.538
61624SOL     OW86768   6.884   1.786   8.129
61624SOL    HW186769   6.860   1.811   8.040
61624SOL    HW286770   6.830   1.710   8.149
61625SOL     OW86771   0.102   7.163  12.957
61625SOL    HW186772   0.158   7.212  13.016
61625SOL    HW286773   0.137   7.180  12.869
61626SOL     OW86774   1.313  11.337   1.140
61626SOL    HW186775   1.389  11.294   1.180
61626SOL    HW286776   1.333  11.430   1.144
61627SOL     OW86777  14.403   2.009   1.755
61627SOL    HW186778  14.434   2.090   1.715
61627SOL    HW286779  14.472   1.984   1.816
61628SOL     OW86780   2.920   2.282   0.947
61628SOL    HW186781   3.010   2.282   0.916
61628SOL    HW286782   2.876   2.349   0.895
61629SOL     OW86783   1.617   1.588   9.382
61629SOL    HW186784   1.640   1.681   9.382
61629SOL    HW286785   1.667   1.551   9.455
61630SOL     OW86786   1.020   3.447   9.256
61630SOL    HW186787   0.971   3.519   9.215
61630SOL    HW286788   1.023   3.469   9.349
61631SOL     OW86789   0.563   5.143   5.546
61631SOL    HW186790   0.490   5.097   5.586
61631SOL    HW286791   0.637   5.083   5.552
61632SOL     OW86792  13.274   8.838   9.446
61632SOL    HW186793  13.217   8.767   9.474
61632SOL    HW286794  13.279   8.897   9.522
61633SOL     OW86795   3.687   2.582  14.577
61633SOL    HW186796   3.718   2.623  14.496
61633SOL    HW286797   3.761   2.530  14.609
61634SOL     OW86798   8.697   7.823   9.240
61634SOL    HW186799   8.708   7.742   9.190
61634SOL    HW286800   8.603   7.832   9.251
61635SOL     OW86801   5.125   4.868   9.827
61635SOL    HW186802   5.174   4.919   9.763
61635SOL    HW286803   5.130   4.778   9.795
61636SOL     OW86804   7.113  12.537   7.225
61636SOL    HW186805   7.079  12.612   7.177
61636SOL    HW286806   7.035  12.486   7.249
61637SOL     OW86807  10.347   0.211   1.818
61637SOL    HW186808  10.437   0.238   1.839
61637SOL    HW286809  10.324   0.263   1.742
61638SOL     OW86810  13.096  10.746   7.493
61638SOL    HW186811  13.074  10.835   7.464
61638SOL    HW286812  13.144  10.758   7.574
61639SOL     OW86813   4.584  10.077   3.468
61639SOL    HW186814   4.584  10.071   3.563
61639SOL    HW286815   4.585  10.170   3.449
61640SOL     OW86816   6.761   2.795   8.163
61640SOL    HW186817   6.791   2.828   8.247
61640SOL    HW286818   6.812   2.845   8.098
61641SOL     OW86819   1.979  14.341   8.259
61641SOL    HW186820   1.898  14.390   8.274
61641SOL    HW286821   1.957  14.251   8.279
61642SOL     OW86822   7.688   9.143   1.625
61642SOL    HW186823   7.672   9.204   1.697
61642SOL    HW286824   7.744   9.192   1.564
61643SOL     OW86825   1.411   9.187   4.708
61643SOL    HW186826   1.358   9.154   4.635
61643SOL    HW286827   1.481   9.237   4.667
61644SOL     OW86828  13.190  13.032  11.593
61644SOL    HW186829  13.177  12.960  11.655
61644SOL    HW286830  13.124  13.019  11.526
61645SOL     OW86831   0.177  10.626   0.816
61645SOL    HW186832   0.117  10.643   0.888
61645SOL    HW286833   0.203  10.713   0.784
61646SOL     OW86834   2.520  10.103   1.764
61646SOL    HW186835   2.531  10.183   1.713
61646SOL    HW286836   2.434  10.070   1.739
61647SOL     OW86837   6.508  11.329  11.058
61647SOL    HW186838   6.590  11.327  11.009
61647SOL    HW286839   6.470  11.414  11.037
61648SOL     OW86840   8.888  11.612   4.764
61648SOL    HW186841   8.851  11.684   4.713
61648SOL    HW286842   8.818  11.587   4.824
61649SOL     OW86843   1.131   6.370   3.424
61649SOL    HW186844   1.178   6.290   3.448
61649SOL    HW286845   1.041   6.355   3.452
61650SOL     OW86846   6.925   6.640   9.496
61650SOL    HW186847   6.840   6.654   9.455
61650SOL    HW286848   6.956   6.557   9.459
61651SOL     OW86849   7.453   4.796  12.698
61651SOL    HW186850   7.542   4.823  12.674
61651SOL    HW286851   7.450   4.703  12.674
61652SOL     OW86852   3.350   1.873  11.449
61652SOL    HW186853   3.291   1.948  11.461
61652SOL    HW286854   3.349   1.828  11.533
61653SOL     OW86855   3.433   1.559   1.127
61653SOL    HW186856   3.493   1.588   1.194
61653SOL    HW286857   3.468   1.475   1.097
61654SOL     OW86858   1.139  13.328   0.356
61654SOL    HW186859   1.044  13.329   0.372
61654SOL    HW286860   1.151  13.259   0.290
61655SOL     OW86861   4.405  12.535   8.810
61655SOL    HW186862   4.482  12.584   8.838
61655SOL    HW286863   4.432  12.492   8.729
61656SOL     OW86864   5.947   8.853   3.851
61656SOL    HW186865   5.865   8.822   3.812
61656SOL    HW286866   5.943   8.823   3.942
61657SOL     OW86867  14.646   6.171  11.284
61657SOL    HW186868  14.741   6.163  11.278
61657SOL    HW286869  14.626   6.140  11.373
61658SOL     OW86870   4.215   9.992   7.153
61658SOL    HW186871   4.191   9.973   7.062
61658SOL    HW286872   4.305   9.961   7.161
61659SOL     OW86873   1.088  12.191  10.497
61659SOL    HW186874   1.179  12.163  10.485
61659SOL    HW286875   1.037  12.113  10.478
61660SOL     OW86876   6.502   4.819   2.330
61660SOL    HW186877   6.452   4.799   2.408
61660SOL    HW286878   6.439   4.812   2.258
61661SOL     OW86879  12.713  14.868   9.817
61661SOL    HW186880  12.799  14.861   9.858
61661SOL    HW286881  12.706  14.789   9.763
61662SOL     OW86882  14.582   2.211  14.428
61662SOL    HW186883  14.610   2.226  14.338
61662SOL    HW286884  14.493   2.248  14.432
61663SOL     OW86885   8.468   4.646  12.549
61663SOL    HW186886   8.557   4.611  12.557
61663SOL    HW286887   8.465   4.681  12.460
61664SOL     OW86888  10.572  11.971  12.416
61664SOL    HW186889  10.624  11.999  12.491
61664SOL    HW286890  10.494  11.930  12.454
61665SOL     OW86891  13.021   7.180   3.489
61665SOL    HW186892  13.116   7.185   3.501
61665SOL    HW286893  13.007   7.210   3.399
61666SOL     OW86894   5.467  12.484   2.850
61666SOL    HW186895   5.504  12.551   2.907
61666SOL    HW286896   5.434  12.416   2.909
61667SOL     OW86897   9.764  13.061   3.846
61667SOL    HW186898   9.712  13.133   3.811
61667SOL    HW286899   9.740  13.057   3.938
61668SOL     OW86900   5.751   7.205   7.935
61668SOL    HW186901   5.830   7.231   7.984
61668SOL    HW286902   5.724   7.123   7.977
61669SOL     OW86903  13.109   5.751   6.539
61669SOL    HW186904  13.198   5.757   6.574
61669SOL    HW286905  13.111   5.676   6.480
61670SOL     OW86906   9.933   0.296   7.207
61670SOL    HW186907  10.009   0.250   7.174
61670SOL    HW286908   9.870   0.293   7.134
61671SOL     OW86909  11.545   2.761   3.685
61671SOL    HW186910  11.600   2.723   3.753
61671SOL    HW286911  11.463   2.783   3.729
61672SOL     OW86912   8.038   3.974   7.513
61672SOL    HW186913   8.095   3.906   7.477
61672SOL    HW286914   8.024   3.947   7.604
61673SOL     OW86915   6.526  13.489   5.239
61673SOL    HW186916   6.519  13.496   5.334
61673SOL    HW286917   6.592  13.554   5.214
61674SOL     OW86918  11.228   2.805   9.270
61674SOL    HW186919  11.165   2.742   9.306
61674SOL    HW286920  11.254   2.858   9.345
61675SOL     OW86921   3.992   5.144   1.283
61675SOL    HW186922   4.026   5.075   1.226
61675SOL    HW286923   3.911   5.172   1.241
61676SOL     OW86924   0.383   9.037   3.554
61676SOL    HW186925   0.322   9.110   3.563
61676SOL    HW286926   0.390   9.022   3.460
61677SOL     OW86927   5.369   8.965   4.817
61677SOL    HW186928   5.463   8.984   4.823
61677SOL    HW286929   5.346   8.984   4.726
61678SOL     OW86930   6.096   6.841   4.175
61678SOL    HW186931   6.117   6.908   4.240
61678SOL    HW286932   6.006   6.861   4.148
61679SOL     OW86933   9.601   4.711   6.376
61679SOL    HW186934   9.516   4.678   6.347
61679SOL    HW286935   9.623   4.780   6.314
61680SOL     OW86936   3.947   2.859  12.607
61680SOL    HW186937   4.043   2.863  12.608
61680SOL    HW286938   3.926   2.780  12.657
61681SOL     OW86939   4.869   5.989   6.790
61681SOL    HW186940   4.798   5.989   6.725
61681SOL    HW286941   4.860   6.072   6.835
61682SOL     OW86942   0.270  14.371   9.082
61682SOL    HW186943   0.296  14.279   9.090
61682SOL    HW286944   0.240  14.379   8.991
61683SOL     OW86945   1.789   5.942   7.977
61683SOL    HW186946   1.726   5.917   8.044
61683SOL    HW286947   1.872   5.908   8.009
61684SOL     OW86948   3.567   4.584   9.843
61684SOL    HW186949   3.580   4.594   9.749
61684SOL    HW286950   3.472   4.587   9.855
61685SOL     OW86951   8.127  13.504   8.569
61685SOL    HW186952   8.098  13.492   8.659
61685SOL    HW286953   8.178  13.426   8.549
61686SOL     OW86954   2.502   8.665  10.317
61686SOL    HW186955   2.449   8.652  10.396
61686SOL    HW286956   2.581   8.612  10.332
61687SOL     OW86957   6.097  12.337  13.812
61687SOL    HW186958   6.078  12.429  13.833
61687SOL    HW286959   6.191  12.334  13.798
61688SOL     OW86960  14.248  13.876  10.310
61688SOL    HW186961  14.220  13.959  10.271
61688SOL    HW286962  14.231  13.887  10.404
61689SOL     OW86963   2.180   8.701  14.748
61689SOL    HW186964   2.140   8.781  14.783
61689SOL    HW286965   2.116   8.669  14.684
61690SOL     OW86966   5.505  11.405   8.381
61690SOL    HW186967   5.541  11.346   8.315
61690SOL    HW286968   5.518  11.492   8.345
61691SOL     OW86969   9.716   6.452   5.210
61691SOL    HW186970   9.711   6.372   5.157
61691SOL    HW286971   9.778   6.432   5.279
61692SOL     OW86972  12.078  13.444   6.196
61692SOL    HW186973  12.047  13.353   6.193
61692SOL    HW286974  12.173  13.436   6.201
61693SOL     OW86975  13.124   9.450   5.773
61693SOL    HW186976  13.215   9.480   5.775
61693SOL    HW286977  13.129   9.362   5.736
61694SOL     OW86978   7.330   0.317  12.771
61694SOL    HW186979   7.389   0.316  12.846
61694SOL    HW286980   7.356   0.241  12.718
61695SOL     OW86981  13.943  14.230  13.127
61695SOL    HW186982  13.965  14.234  13.034
61695SOL    HW286983  13.944  14.137  13.148
61696SOL     OW86984   9.577  10.744   7.202
61696SOL    HW186985   9.583  10.701   7.288
61696SOL    HW286986   9.663  10.731   7.163
61697SOL     OW86987   6.377   5.269  10.204
61697SOL    HW186988   6.355   5.214  10.129
61697SOL    HW286989   6.336   5.225  10.279
61698SOL     OW86990  12.764  10.559   0.847
61698SOL    HW186991  12.819  10.483   0.864
61698SOL    HW286992  12.825  10.633   0.845
61699SOL     OW86993   0.531   0.492   7.162
61699SOL    HW186994   0.490   0.415   7.202
61699SOL    HW286995   0.588   0.527   7.230
61700SOL     OW86996   7.056   8.589   8.456
61700SOL    HW186997   6.965   8.570   8.478
61700SOL    HW286998   7.058   8.683   8.444
61701SOL     OW86999  11.532   9.663   3.286
61701SOL    HW187000  11.467   9.673   3.216
61701SOL    HW287001  11.613   9.641   3.241
61702SOL     OW87002   7.776  14.088   1.556
61702SOL    HW187003   7.781  14.170   1.605
61702SOL    HW287004   7.698  14.097   1.501
61703SOL     OW87005   4.170   3.084  13.465
61703SOL    HW187006   4.264   3.071  13.481
61703SOL    HW287007   4.159   3.179  13.468
61704SOL     OW87008  13.522  10.434   0.058
61704SOL    HW187009  13.595  10.485   0.092
61704SOL    HW287010  13.557  10.391  14.867
61705SOL     OW87011   5.594   9.473  12.409
61705SOL    HW187012   5.648   9.396  12.423
61705SOL    HW287013   5.535   9.449  12.338
61706SOL     OW87014   6.296  14.717  14.792
61706SOL    HW187015   6.382  14.707  14.751
61706SOL    HW287016   6.289  14.811  14.809
61707SOL     OW87017  10.422  10.385  14.082
61707SOL    HW187018  10.356  10.412  14.146
61707SOL    HW287019  10.464  10.467  14.055
61708SOL     OW87020   6.130   1.844  14.449
61708SOL    HW187021   6.135   1.908  14.520
61708SOL    HW287022   6.074   1.775  14.483
61709SOL     OW87023  10.410   9.593   7.431
61709SOL    HW187024  10.459   9.564   7.354
61709SOL    HW287025  10.400   9.688   7.419
61710SOL     OW87026   8.376  10.974  10.627
61710SOL    HW187027   8.399  11.052  10.677
61710SOL    HW287028   8.281  10.971  10.629
61711SOL     OW87029   4.413  14.224   5.206
61711SOL    HW187030   4.487  14.167   5.185
61711SOL    HW287031   4.437  14.309   5.168
61712SOL     OW87032   7.283  13.835  10.710
61712SOL    HW187033   7.307  13.767  10.774
61712SOL    HW287034   7.273  13.915  10.762
61713SOL     OW87035  12.713  11.487   3.138
61713SOL    HW187036  12.642  11.432   3.105
61713SOL    HW287037  12.685  11.512   3.226
61714SOL     OW87038   6.223   9.899   4.670
61714SOL    HW187039   6.142   9.890   4.721
61714SOL    HW287040   6.284   9.941   4.730
61715SOL     OW87041   7.285   5.001  12.626
61715SOL    HW187042   7.330   4.918  12.638
61715SOL    HW287043   7.353   5.067  12.639
61716SOL     OW87044  13.937  10.839  14.062
61716SOL    HW187045  13.909  10.898  14.131
61716SOL    HW287046  13.886  10.759  14.076
61717SOL     OW87047   7.007   9.636  12.717
61717SOL    HW187048   7.050   9.559  12.678
61717SOL    HW287049   6.917   9.631  12.687
61718SOL     OW87050   6.995   8.223  10.767
61718SOL    HW187051   7.034   8.222  10.854
61718SOL    HW287052   7.060   8.267  10.712
61719SOL     OW87053   1.225   7.510   4.062
61719SOL    HW187054   1.258   7.599   4.047
61719SOL    HW287055   1.224   7.470   3.975
61720SOL     OW87056   5.574   2.135   3.758
61720SOL    HW187057   5.653   2.184   3.782
61720SOL    HW287058   5.503   2.179   3.806
61721SOL     OW87059   0.670   5.080   5.202
61721SOL    HW187060   0.659   4.989   5.227
61721SOL    HW287061   0.591   5.124   5.234
61722SOL     OW87062   5.547   9.057   3.276
61722SOL    HW187063   5.578   9.143   3.306
61722SOL    HW287064   5.520   9.072   3.185
61723SOL     OW87065   3.009  12.436   9.244
61723SOL    HW187066   3.001  12.345   9.273
61723SOL    HW287067   3.046  12.430   9.156
61724SOL     OW87068   5.021   7.116   8.749
61724SOL    HW187069   5.092   7.135   8.810
61724SOL    HW287070   5.023   7.021   8.738
61725SOL     OW87071   0.025  11.704  13.299
61725SOL    HW187072   0.010  11.766  13.370
61725SOL    HW287073   0.029  11.758  13.220
61726SOL     OW87074  10.104   8.817   3.869
61726SOL    HW187075  10.180   8.872   3.888
61726SOL    HW287076  10.035   8.879   3.845
61727SOL     OW87077   2.097   3.008   9.117
61727SOL    HW187078   2.100   3.045   9.205
61727SOL    HW287079   2.179   3.036   9.076
61728SOL     OW87080  10.248   5.193  10.684
61728SOL    HW187081  10.225   5.105  10.714
61728SOL    HW287082  10.170   5.224  10.639
61729SOL     OW87083  12.035   8.330   3.673
61729SOL    HW187084  11.961   8.378   3.636
61729SOL    HW287085  11.997   8.282   3.747
61730SOL     OW87086  11.546  11.590   7.164
61730SOL    HW187087  11.603  11.650   7.210
61730SOL    HW287088  11.457  11.614   7.192
61731SOL     OW87089  13.336   2.115   3.207
61731SOL    HW187090  13.275   2.042   3.213
61731SOL    HW287091  13.381   2.103   3.124
61732SOL     OW87092   7.287  14.001   0.646
61732SOL    HW187093   7.307  14.028   0.557
61732SOL    HW287094   7.369  13.966   0.680
61733SOL     OW87095   0.431  12.094  14.020
61733SOL    HW187096   0.345  12.117  13.984
61733SOL    HW287097   0.413  12.023  14.081
61734SOL     OW87098  13.745  11.332   0.255
61734SOL    HW187099  13.715  11.384   0.330
61734SOL    HW287100  13.767  11.397   0.188
61735SOL     OW87101  13.142   2.608   4.617
61735SOL    HW187102  13.152   2.667   4.691
61735SOL    HW287103  13.216   2.547   4.624
61736SOL     OW87104   6.420   2.898  12.280
61736SOL    HW187105   6.398   2.934  12.366
61736SOL    HW287106   6.493   2.952  12.249
61737SOL     OW87107   2.433   8.355   4.978
61737SOL    HW187108   2.427   8.262   5.000
61737SOL    HW287109   2.447   8.399   5.062
61738SOL     OW87110   3.812   8.424   2.369
61738SOL    HW187111   3.856   8.507   2.384
61738SOL    HW287112   3.727   8.448   2.333
61739SOL     OW87113   9.281   5.413   1.806
61739SOL    HW187114   9.305   5.326   1.774
61739SOL    HW287115   9.365   5.455   1.825
61740SOL     OW87116  10.369  13.724   5.378
61740SOL    HW187117  10.284  13.705   5.339
61740SOL    HW287118  10.431  13.668   5.330
61741SOL     OW87119   9.701   4.479   5.728
61741SOL    HW187120   9.757   4.557   5.734
61741SOL    HW287121   9.614   4.514   5.708
61742SOL     OW87122   7.310   3.140   1.427
61742SOL    HW187123   7.294   3.134   1.332
61742SOL    HW287124   7.318   3.049   1.455
61743SOL     OW87125   6.457  13.546  13.844
61743SOL    HW187126   6.436  13.554  13.751
61743SOL    HW287127   6.522  13.614  13.859
61744SOL     OW87128   4.841   8.887   9.770
61744SOL    HW187129   4.800   8.891   9.684
61744SOL    HW287130   4.771   8.859   9.829
61745SOL     OW87131   9.378   7.290   3.934
61745SOL    HW187132   9.316   7.343   3.985
61745SOL    HW287133   9.417   7.231   3.997
61746SOL     OW87134   4.331   9.907   9.208
61746SOL    HW187135   4.316   9.826   9.160
61746SOL    HW287136   4.301   9.976   9.149
61747SOL     OW87137  11.980   6.700   3.864
61747SOL    HW187138  12.029   6.699   3.782
61747SOL    HW287139  11.972   6.793   3.886
61748SOL     OW87140   1.607  12.307   1.927
61748SOL    HW187141   1.685  12.320   1.982
61748SOL    HW287142   1.588  12.213   1.934
61749SOL     OW87143  12.629  12.882   8.528
61749SOL    HW187144  12.716  12.844   8.516
61749SOL    HW287145  12.617  12.883   8.623
61750SOL     OW87146  13.631   6.526   0.575
61750SOL    HW187147  13.682   6.464   0.524
61750SOL    HW287148  13.586   6.471   0.640
61751SOL     OW87149  12.859   4.075  12.315
61751SOL    HW187150  12.949   4.051  12.291
61751SOL    HW287151  12.805   4.008  12.274
61752SOL     OW87152   1.033   8.513   2.511
61752SOL    HW187153   1.109   8.458   2.528
61752SOL    HW287154   0.958   8.458   2.532
61753SOL     OW87155   5.916  13.468   8.772
61753SOL    HW187156   5.838  13.486   8.719
61753SOL    HW287157   5.888  13.397   8.830
61754SOL     OW87158  13.968   4.096   8.457
61754SOL    HW187159  13.919   4.016   8.476
61754SOL    HW287160  13.905   4.154   8.416
61755SOL     OW87161   9.331   4.585   5.384
61755SOL    HW187162   9.277   4.622   5.314
61755SOL    HW287163   9.269   4.571   5.456
61756SOL     OW87164   3.846   3.586   5.206
61756SOL    HW187165   3.875   3.513   5.151
61756SOL    HW287166   3.904   3.584   5.282
61757SOL     OW87167  11.686   3.184   3.891
61757SOL    HW187168  11.616   3.157   3.832
61757SOL    HW287169  11.695   3.111   3.953
61758SOL     OW87170   3.840   2.454   5.702
61758SOL    HW187171   3.839   2.359   5.698
61758SOL    HW287172   3.813   2.474   5.792
61759SOL     OW87173   1.717   5.262   6.808
61759SOL    HW187174   1.715   5.352   6.841
61759SOL    HW287175   1.804   5.253   6.770
61760SOL     OW87176   9.092  13.602  10.551
61760SOL    HW187177   9.084  13.640  10.463
61760SOL    HW287178   9.078  13.676  10.610
61761SOL     OW87179   3.730  12.756   6.439
61761SOL    HW187180   3.680  12.836   6.421
61761SOL    HW287181   3.716  12.740   6.532
61762SOL     OW87182   9.664  14.524  12.339
61762SOL    HW187183   9.742  14.468  12.338
61762SOL    HW287184   9.591  14.463  12.329
61763SOL     OW87185  13.751   7.404  14.652
61763SOL    HW187186  13.793   7.477  14.700
61763SOL    HW287187  13.713   7.445  14.575
61764SOL     OW87188   4.546   0.062  12.979
61764SOL    HW187189   4.594   0.030  13.056
61764SOL    HW287190   4.525   0.153  12.999
61765SOL     OW87191   4.554  11.626  13.037
61765SOL    HW187192   4.611  11.549  13.032
61765SOL    HW287193   4.469  11.592  13.065
61766SOL     OW87194   8.929  11.080  12.299
61766SOL    HW187195   8.950  11.016  12.231
61766SOL    HW287196   8.899  11.027  12.373
61767SOL     OW87197  11.880   1.046  12.005
61767SOL    HW187198  11.911   1.092  12.083
61767SOL    HW287199  11.894   0.953  12.024
61768SOL     OW87200   2.855  14.673   8.108
61768SOL    HW187201   2.843  14.753   8.159
61768SOL    HW287202   2.949  14.653   8.117
61769SOL     OW87203   7.738   0.706   7.704
61769SOL    HW187204   7.700   0.794   7.698
61769SOL    HW287205   7.807   0.715   7.771
61770SOL     OW87206   1.281   7.278  12.572
61770SOL    HW187207   1.283   7.308  12.481
61770SOL    HW287208   1.188   7.271  12.593
61771SOL     OW87209   8.650   5.321   7.112
61771SOL    HW187210   8.740   5.316   7.143
61771SOL    HW287211   8.624   5.411   7.129
61772SOL     OW87212   5.812   0.844  13.738
61772SOL    HW187213   5.740   0.906  13.726
61772SOL    HW287214   5.824   0.804  13.652
61773SOL     OW87215  10.104   3.597   4.079
61773SOL    HW187216  10.039   3.620   4.013
61773SOL    HW287217  10.143   3.681   4.105
61774SOL     OW87218   7.618   5.847  12.507
61774SOL    HW187219   7.653   5.795  12.435
61774SOL    HW287220   7.540   5.889  12.470
61775SOL     OW87221  12.606  12.027   9.513
61775SOL    HW187222  12.639  11.986   9.432
61775SOL    HW287223  12.656  12.109   9.519
61776SOL     OW87224  13.506   3.318  14.159
61776SOL    HW187225  13.557   3.398  14.174
61776SOL    HW287226  13.570   3.255  14.126
61777SOL     OW87227   3.437  10.547   5.129
61777SOL    HW187228   3.398  10.582   5.049
61777SOL    HW287229   3.405  10.604   5.199
61778SOL     OW87230  10.275   3.659  10.711
61778SOL    HW187231  10.203   3.621  10.661
61778SOL    HW287232  10.232   3.712  10.777
61779SOL     OW87233   9.439   2.775   3.686
61779SOL    HW187234   9.423   2.819   3.602
61779SOL    HW287235   9.509   2.713   3.667
61780SOL     OW87236  11.145   2.826   0.951
61780SOL    HW187237  11.206   2.828   0.877
61780SOL    HW287238  11.198   2.795   1.024
61781SOL     OW87239  13.084  13.308   7.568
61781SOL    HW187240  13.107  13.323   7.476
61781SOL    HW287241  13.083  13.396   7.606
61782SOL     OW87242   2.657  10.142   2.262
61782SOL    HW187243   2.645  10.125   2.168
61782SOL    HW287244   2.615  10.227   2.276
61783SOL     OW87245   6.760   7.257   1.728
61783SOL    HW187246   6.815   7.335   1.737
61783SOL    HW287247   6.677   7.291   1.692
61784SOL     OW87248   6.406  13.661   5.886
61784SOL    HW187249   6.315  13.687   5.898
61784SOL    HW287250   6.417  13.586   5.946
61785SOL     OW87251  13.501   0.567  10.163
61785SOL    HW187252  13.489   0.472  10.163
61785SOL    HW287253  13.484   0.593  10.253
61786SOL     OW87254   5.327  11.847   1.476
61786SOL    HW187255   5.374  11.774   1.436
61786SOL    HW287256   5.235  11.823   1.468
61787SOL     OW87257  11.240   6.448   6.151
61787SOL    HW187258  11.190   6.371   6.124
61787SOL    HW287259  11.325   6.414   6.178
61788SOL     OW87260   4.744  12.444   1.201
61788SOL    HW187261   4.830  12.441   1.160
61788SOL    HW287262   4.700  12.365   1.170
61789SOL     OW87263   9.419   1.592   9.268
61789SOL    HW187264   9.365   1.614   9.344
61789SOL    HW287265   9.508   1.589   9.303
61790SOL     OW87266   8.204   2.495  11.433
61790SOL    HW187267   8.224   2.588  11.443
61790SOL    HW287268   8.141   2.492  11.361
61791SOL     OW87269   7.392   4.993   7.545
61791SOL    HW187270   7.302   4.965   7.565
61791SOL    HW287271   7.399   4.985   7.450
61792SOL     OW87272   6.637   4.883   5.746
61792SOL    HW187273   6.703   4.821   5.714
61792SOL    HW287274   6.553   4.843   5.721
61793SOL     OW87275  11.898   3.884   2.346
61793SOL    HW187276  11.950   3.958   2.312
61793SOL    HW287277  11.836   3.924   2.406
61794SOL     OW87278  12.521  12.355   4.180
61794SOL    HW187279  12.568  12.421   4.231
61794SOL    HW287280  12.438  12.397   4.157
61795SOL     OW87281  14.487   1.209  12.645
61795SOL    HW187282  14.429   1.148  12.599
61795SOL    HW287283  14.564   1.157  12.667
61796SOL     OW87284  14.306   2.178   8.762
61796SOL    HW187285  14.217   2.212   8.752
61796SOL    HW287286  14.363   2.249   8.733
61797SOL     OW87287  14.112   1.633   3.515
61797SOL    HW187288  14.070   1.563   3.565
61797SOL    HW287289  14.087   1.713   3.562
61798SOL     OW87290   1.700   7.574  12.208
61798SOL    HW187291   1.737   7.661  12.190
61798SOL    HW287292   1.666   7.545  12.124
61799SOL     OW87293  11.170   0.441  13.870
61799SOL    HW187294  11.133   0.528  13.885
61799SOL    HW287295  11.099   0.392  13.828
61800SOL     OW87296   7.579   1.285  11.976
61800SOL    HW187297   7.578   1.315  11.885
61800SOL    HW287298   7.557   1.192  11.972
61801SOL     OW87299   3.531  12.919   4.640
61801SOL    HW187300   3.473  12.966   4.581
61801SOL    HW287301   3.536  12.975   4.718
61802SOL     OW87302   7.005   0.345  12.281
61802SOL    HW187303   7.011   0.293  12.361
61802SOL    HW287304   6.962   0.426  12.309
61803SOL     OW87305   6.954   4.771  14.360
61803SOL    HW187306   6.860   4.758  14.368
61803SOL    HW287307   6.963   4.834  14.289
61804SOL     OW87308   0.435  10.847   1.266
61804SOL    HW187309   0.387  10.766   1.246
61804SOL    HW287310   0.519  10.836   1.221
61805SOL     OW87311   2.797   5.253  12.073
61805SOL    HW187312   2.830   5.174  12.115
61805SOL    HW287313   2.706   5.234  12.053
61806SOL     OW87314   8.062   9.575  10.962
61806SOL    HW187315   8.138   9.587  11.019
61806SOL    HW287316   8.059   9.655  10.909
61807SOL     OW87317  12.111   6.854   9.036
61807SOL    HW187318  12.033   6.890   9.078
61807SOL    HW287319  12.166   6.930   9.016
61808SOL     OW87320   5.277   7.104   1.872
61808SOL    HW187321   5.285   7.179   1.931
61808SOL    HW287322   5.361   7.059   1.879
61809SOL     OW87323  11.314   8.078   4.132
61809SOL    HW187324  11.407   8.093   4.117
61809SOL    HW287325  11.312   8.008   4.198
61810SOL     OW87326   1.069   9.470   5.666
61810SOL    HW187327   1.112   9.385   5.656
61810SOL    HW287328   1.139   9.534   5.656
61811SOL     OW87329  10.927   5.243   5.279
61811SOL    HW187330  10.911   5.337   5.281
61811SOL    HW287331  10.980   5.225   5.356
61812SOL     OW87332  12.769   3.239   1.424
61812SOL    HW187333  12.855   3.271   1.396
61812SOL    HW287334  12.763   3.151   1.385
61813SOL     OW87335   1.956  12.897   9.853
61813SOL    HW187336   1.988  12.892   9.763
61813SOL    HW287337   1.944  12.991   9.869
61814SOL     OW87338   4.401   1.243   3.940
61814SOL    HW187339   4.444   1.297   4.006
61814SOL    HW287340   4.424   1.283   3.856
61815SOL     OW87341  13.404  10.563   8.277
61815SOL    HW187342  13.452  10.610   8.208
61815SOL    HW287343  13.393  10.628   8.346
61816SOL     OW87344  10.111   3.032   4.767
61816SOL    HW187345  10.106   2.942   4.801
61816SOL    HW287346  10.203   3.055   4.777
61817SOL     OW87347  13.699   2.585   1.746
61817SOL    HW187348  13.702   2.507   1.801
61817SOL    HW287349  13.722   2.553   1.658
61818SOL     OW87350   5.115   4.290   0.451
61818SOL    HW187351   5.180   4.233   0.493
61818SOL    HW287352   5.096   4.356   0.517
61819SOL     OW87353   7.135   3.540   1.625
61819SOL    HW187354   7.065   3.552   1.689
61819SOL    HW287355   7.147   3.627   1.587
61820SOL     OW87356  10.302   0.795   4.851
61820SOL    HW187357  10.249   0.863   4.808
61820SOL    HW287358  10.380   0.840   4.881
61821SOL     OW87359   3.885   5.695   9.890
61821SOL    HW187360   3.813   5.637   9.917
61821SOL    HW287361   3.842   5.779   9.875
61822SOL     OW87362  10.020  14.885  13.296
61822SOL    HW187363  10.048  14.832  13.371
61822SOL    HW287364   9.927   0.013  13.311
61823SOL     OW87365  13.244  13.992  12.188
61823SOL    HW187366  13.328  13.945  12.188
61823SOL    HW287367  13.197  13.958  12.112
61824SOL     OW87368  14.738   7.445   2.642
61824SOL    HW187369  14.667   7.442   2.706
61824SOL    HW287370  14.817   7.432   2.694
61825SOL     OW87371  11.982  10.466   2.723
61825SOL    HW187372  12.062  10.496   2.680
61825SOL    HW287373  11.971  10.524   2.798
61826SOL     OW87374   0.991  13.571   6.372
61826SOL    HW187375   1.059  13.504   6.380
61826SOL    HW287376   1.037  13.653   6.389
61827SOL     OW87377   5.958  11.469  12.636
61827SOL    HW187378   5.871  11.474  12.597
61827SOL    HW287379   5.959  11.539  12.702
61828SOL     OW87380   5.235   0.742   7.912
61828SOL    HW187381   5.196   0.700   7.989
61828SOL    HW287382   5.320   0.774   7.943
61829SOL     OW87383   3.440   0.679   8.453
61829SOL    HW187384   3.520   0.729   8.465
61829SOL    HW287385   3.467   0.603   8.401
61830SOL     OW87386   5.083  11.632   0.213
61830SOL    HW187387   5.070  11.565   0.280
61830SOL    HW287388   5.055  11.590   0.131
61831SOL     OW87389   1.796  11.182   2.488
61831SOL    HW187390   1.798  11.245   2.415
61831SOL    HW287391   1.723  11.124   2.467
61832SOL     OW87392  10.381  12.398   9.070
61832SOL    HW187393  10.405  12.305   9.066
61832SOL    HW287394  10.338  12.415   8.986
61833SOL     OW87395  10.845  14.551   1.074
61833SOL    HW187396  10.753  14.577   1.085
61833SOL    HW287397  10.877  14.538   1.163
61834SOL     OW87398   4.198   1.629  10.419
61834SOL    HW187399   4.122   1.615  10.363
61834SOL    HW287400   4.272   1.597  10.367
61835SOL     OW87401   6.098   3.664   5.148
61835SOL    HW187402   6.094   3.613   5.229
61835SOL    HW287403   6.165   3.621   5.095
61836SOL     OW87404   5.279   7.702   4.451
61836SOL    HW187405   5.373   7.686   4.455
61836SOL    HW287406   5.242   7.619   4.421
61837SOL     OW87407   7.430   7.987   9.944
61837SOL    HW187408   7.427   8.081   9.963
61837SOL    HW287409   7.390   7.979   9.858
61838SOL     OW87410   1.198   5.953   6.424
61838SOL    HW187411   1.140   5.878   6.416
61838SOL    HW287412   1.285   5.915   6.436
61839SOL     OW87413   4.183   9.233   0.676
61839SOL    HW187414   4.134   9.186   0.609
61839SOL    HW287415   4.246   9.169   0.710
61840SOL     OW87416   6.087   2.160  11.681
61840SOL    HW187417   6.016   2.161  11.618
61840SOL    HW287418   6.093   2.251  11.712
61841SOL     OW87419   2.814  13.821  11.949
61841SOL    HW187420   2.879  13.838  12.017
61841SOL    HW287421   2.742  13.880  11.969
61842SOL     OW87422   7.317   5.708   4.998
61842SOL    HW187423   7.275   5.673   4.919
61842SOL    HW287424   7.316   5.636   5.060
61843SOL     OW87425   0.687   0.429   4.884
61843SOL    HW187426   0.617   0.389   4.934
61843SOL    HW287427   0.745   0.469   4.949
61844SOL     OW87428   0.363   7.876  10.363
61844SOL    HW187429   0.322   7.810  10.419
61844SOL    HW287430   0.321   7.958  10.389
61845SOL     OW87431  10.255  14.878   6.429
61845SOL    HW187432  10.178  14.885   6.487
61845SOL    HW287433  10.225  14.825   6.356
61846SOL     OW87434   7.245  10.336   0.884
61846SOL    HW187435   7.155  10.365   0.900
61846SOL    HW287436   7.269  10.287   0.963
61847SOL     OW87437  10.817  14.670  12.221
61847SOL    HW187438  10.902  14.673  12.177
61847SOL    HW287439  10.828  14.725  12.298
61848SOL     OW87440  10.822  10.200   2.125
61848SOL    HW187441  10.917  10.197   2.122
61848SOL    HW287442  10.796  10.119   2.168
61849SOL     OW87443   2.744   0.800   4.562
61849SOL    HW187444   2.706   0.883   4.590
61849SOL    HW287445   2.834   0.821   4.539
61850SOL     OW87446  12.371   4.692   4.767
61850SOL    HW187447  12.376   4.774   4.717
61850SOL    HW287448  12.446   4.697   4.827
61851SOL     OW87449   1.062   7.256   3.299
61851SOL    HW187450   0.991   7.311   3.332
61851SOL    HW287451   1.082   7.196   3.370
61852SOL     OW87452   1.530   3.501   0.253
61852SOL    HW187453   1.500   3.591   0.256
61852SOL    HW287454   1.539   3.481   0.160
61853SOL     OW87455   2.339   4.640   1.450
61853SOL    HW187456   2.408   4.581   1.418
61853SOL    HW287457   2.313   4.603   1.534
61854SOL     OW87458   8.329  14.732  13.115
61854SOL    HW187459   8.320  14.683  13.197
61854SOL    HW287460   8.362  14.817  13.141
61855SOL     OW87461  13.789   9.359   0.147
61855SOL    HW187462  13.707   9.408   0.148
61855SOL    HW287463  13.769   9.278   0.195
61856SOL     OW87464  12.464  10.133  13.626
61856SOL    HW187465  12.377  10.162  13.598
61856SOL    HW287466  12.475  10.048  13.585
61857SOL     OW87467  11.909   0.549  12.098
61857SOL    HW187468  11.902   0.539  12.003
61857SOL    HW287469  11.882   0.639  12.115
61858SOL     OW87470   6.037  11.242  13.548
61858SOL    HW187471   5.959  11.281  13.589
61858SOL    HW287472   6.110  11.274  13.601
61859SOL     OW87473   8.221   9.534   3.493
61859SOL    HW187474   8.309   9.546   3.528
61859SOL    HW287475   8.225   9.569   3.405
61860SOL     OW87476  14.265   4.484  10.847
61860SOL    HW187477  14.269   4.549  10.918
61860SOL    HW287478  14.176   4.451  10.850
61861SOL     OW87479   1.957   1.468   9.210
61861SOL    HW187480   2.000   1.431   9.287
61861SOL    HW287481   2.022   1.527   9.172
61862SOL     OW87482   8.899   3.111   5.106
61862SOL    HW187483   8.830   3.125   5.171
61862SOL    HW287484   8.854   3.118   5.021
61863SOL     OW87485  12.232  12.954   5.804
61863SOL    HW187486  12.305  12.928   5.749
61863SOL    HW287487  12.271  12.977   5.888
61864SOL     OW87488   1.129   2.295   2.839
61864SOL    HW187489   1.218   2.260   2.829
61864SOL    HW287490   1.108   2.278   2.931
61865SOL     OW87491   5.356   5.452  11.968
61865SOL    HW187492   5.279   5.457  12.026
61865SOL    HW287493   5.327   5.398  11.895
61866SOL     OW87494   6.313  11.182   6.547
61866SOL    HW187495   6.373  11.222   6.484
61866SOL    HW287496   6.356  11.100   6.572
61867SOL     OW87497  14.185   9.043   3.902
61867SOL    HW187498  14.103   9.069   3.945
61867SOL    HW287499  14.247   9.112   3.925
61868SOL     OW87500  10.621   0.192  11.456
61868SOL    HW187501  10.578   0.114  11.421
61868SOL    HW287502  10.579   0.206  11.541
61869SOL     OW87503   6.277   1.691  10.228
61869SOL    HW187504   6.216   1.625  10.195
61869SOL    HW287505   6.347   1.694  10.164
61870SOL     OW87506   6.207   8.794   3.846
61870SOL    HW187507   6.114   8.793   3.826
61870SOL    HW287508   6.243   8.717   3.801
61871SOL     OW87509   0.054  11.927   9.921
61871SOL    HW187510   0.058  11.988   9.847
61871SOL    HW287511  14.850  11.929   9.949
61872SOL     OW87512   6.617   2.017  11.242
61872SOL    HW187513   6.670   2.073  11.186
61872SOL    HW287514   6.597   2.071  11.319
61873SOL     OW87515  14.188   7.902   9.953
61873SOL    HW187516  14.137   7.963   9.899
61873SOL    HW287517  14.267   7.950   9.976
61874SOL     OW87518  12.861   1.396   0.552
61874SOL    HW187519  12.835   1.314   0.592
61874SOL    HW287520  12.780   1.446   0.542
61875SOL     OW87521   8.839   9.767   0.232
61875SOL    HW187522   8.830   9.841   0.172
61875SOL    HW287523   8.788   9.792   0.309
61876SOL     OW87524   0.028   0.088   8.887
61876SOL    HW187525   0.011   0.068   8.979
61876SOL    HW287526   0.102   0.031   8.864
61877SOL     OW87527   1.261   1.089  12.337
61877SOL    HW187528   1.315   1.121  12.266
61877SOL    HW287529   1.289   1.139  12.414
61878SOL     OW87530   8.820  12.642  12.215
61878SOL    HW187531   8.900  12.694  12.207
61878SOL    HW287532   8.774  12.680  12.290
61879SOL     OW87533   2.756  10.093   8.489
61879SOL    HW187534   2.836  10.060   8.530
61879SOL    HW287535   2.685  10.057   8.542
61880SOL     OW87536   8.329   1.412  11.542
61880SOL    HW187537   8.368   1.329  11.569
61880SOL    HW287538   8.358   1.424  11.452
61881SOL     OW87539   3.600  10.331  11.336
61881SOL    HW187540   3.597  10.345  11.242
61881SOL    HW287541   3.566  10.412  11.375
61882SOL     OW87542   4.681   4.712   6.860
61882SOL    HW187543   4.712   4.791   6.904
61882SOL    HW287544   4.686   4.644   6.926
61883SOL     OW87545   8.047   0.104   6.900
61883SOL    HW187546   8.109   0.080   6.832
61883SOL    HW287547   8.077   0.057   6.978
61884SOL     OW87548  11.661   2.525   1.015
61884SOL    HW187549  11.610   2.456   0.973
61884SOL    HW287550  11.753   2.500   1.000
61885SOL     OW87551   3.419  12.166   5.792
61885SOL    HW187552   3.347  12.153   5.854
61885SOL    HW287553   3.484  12.101   5.817
61886SOL     OW87554   9.417  13.980   5.955
61886SOL    HW187555   9.461  13.945   6.032
61886SOL    HW287556   9.453  14.069   5.945
61887SOL     OW87557   0.573   8.328   8.319
61887SOL    HW187558   0.668   8.317   8.322
61887SOL    HW287559   0.560   8.422   8.309
61888SOL     OW87560   2.692  14.404   9.291
61888SOL    HW187561   2.616  14.373   9.339
61888SOL    HW287562   2.697  14.497   9.312
61889SOL     OW87563  13.612   7.328  10.258
61889SOL    HW187564  13.706   7.344  10.257
61889SOL    HW287565  13.594   7.288  10.173
61890SOL     OW87566  11.232  13.041   3.770
61890SOL    HW187567  11.282  12.979   3.825
61890SOL    HW287568  11.150  13.054   3.818
61891SOL     OW87569  10.121   8.190   7.914
61891SOL    HW187570  10.213   8.198   7.939
61891SOL    HW287571  10.081   8.138   7.984
61892SOL     OW87572  13.750   8.555   9.754
61892SOL    HW187573  13.813   8.564   9.825
61892SOL    HW287574  13.705   8.472   9.772
61893SOL     OW87575   4.717  12.771   1.382
61893SOL    HW187576   4.689  12.746   1.294
61893SOL    HW287577   4.801  12.815   1.369
61894SOL     OW87578   9.864  14.523   6.328
61894SOL    HW187579   9.777  14.490   6.352
61894SOL    HW287580   9.865  14.521   6.233
61895SOL     OW87581   6.954   7.826  14.267
61895SOL    HW187582   6.859   7.821  14.280
61895SOL    HW287583   6.967   7.800  14.176
61896SOL     OW87584  10.009   8.559   8.239
61896SOL    HW187585   9.940   8.564   8.305
61896SOL    HW287586  10.063   8.637   8.253
61897SOL     OW87587  12.038   9.238  11.893
61897SOL    HW187588  11.966   9.301  11.887
61897SOL    HW287589  12.019   9.173  11.826
61898SOL     OW87590  13.325   8.473   6.184
61898SOL    HW187591  13.277   8.400   6.224
61898SOL    HW287592  13.416   8.442   6.180
61899SOL     OW87593  13.173   6.276  14.782
61899SOL    HW187594  13.134   6.266  14.695
61899SOL    HW287595  13.260   6.312  14.765
61900SOL     OW87596  12.774  14.386  12.648
61900SOL    HW187597  12.768  14.324  12.575
61900SOL    HW287598  12.753  14.333  12.726
61901SOL     OW87599   1.967   5.057  12.014
61901SOL    HW187600   1.922   5.100  12.087
61901SOL    HW287601   2.038   5.008  12.055
61902SOL     OW87602   8.830   0.512  10.755
61902SOL    HW187603   8.894   0.441  10.762
61902SOL    HW287604   8.854   0.558  10.675
61903SOL     OW87605   5.360   8.663  14.633
61903SOL    HW187606   5.444   8.639  14.672
61903SOL    HW287607   5.309   8.697  14.706
61904SOL     OW87608  12.056   1.657   0.594
61904SOL    HW187609  12.104   1.702   0.524
61904SOL    HW287610  12.071   1.710   0.672
61905SOL     OW87611  14.522   3.370   4.804
61905SOL    HW187612  14.508   3.413   4.889
61905SOL    HW287613  14.442   3.387   4.755
61906SOL     OW87614   4.203  10.880  12.066
61906SOL    HW187615   4.113  10.849  12.078
61906SOL    HW287616   4.235  10.898  12.155
61907SOL     OW87617   3.754  10.494   2.803
61907SOL    HW187618   3.663  10.504   2.773
61907SOL    HW287619   3.802  10.467   2.725
61908SOL     OW87620   8.723   7.654   1.470
61908SOL    HW187621   8.700   7.696   1.388
61908SOL    HW287622   8.651   7.593   1.487
61909SOL     OW87623   8.651   1.653  12.834
61909SOL    HW187624   8.632   1.587  12.768
61909SOL    HW287625   8.566   1.691  12.856
61910SOL     OW87626   0.509   3.189   0.195
61910SOL    HW187627   0.530   3.118   0.135
61910SOL    HW287628   0.476   3.146   0.274
61911SOL     OW87629   3.448   0.544   0.759
61911SOL    HW187630   3.441   0.601   0.683
61911SOL    HW287631   3.392   0.584   0.825
61912SOL     OW87632   4.179   6.879  13.291
61912SOL    HW187633   4.227   6.962  13.301
61912SOL    HW287634   4.128   6.871  13.371
61913SOL     OW87635   3.135   4.737   2.248
61913SOL    HW187636   3.207   4.799   2.256
61913SOL    HW287637   3.129   4.719   2.154
61914SOL     OW87638   6.357   6.463  13.845
61914SOL    HW187639   6.315   6.529  13.900
61914SOL    HW287640   6.285   6.414  13.805
61915SOL     OW87641   8.198   7.630   2.551
61915SOL    HW187642   8.291   7.652   2.545
61915SOL    HW287643   8.197   7.537   2.575
61916SOL     OW87644   9.435  12.664   6.489
61916SOL    HW187645   9.523  12.671   6.452
61916SOL    HW287646   9.410  12.755   6.506
61917SOL     OW87647   9.732   5.196   7.847
61917SOL    HW187648   9.754   5.240   7.765
61917SOL    HW287649   9.638   5.212   7.859
61918SOL     OW87650  14.262   6.635   8.727
61918SOL    HW187651  14.206   6.710   8.749
61918SOL    HW287652  14.350   6.672   8.719
61919SOL     OW87653   1.259   2.064   0.907
61919SOL    HW187654   1.265   1.979   0.951
61919SOL    HW287655   1.177   2.060   0.858
61920SOL     OW87656  13.217   2.095  10.671
61920SOL    HW187657  13.175   2.165  10.622
61920SOL    HW287658  13.193   2.015  10.624
61921SOL     OW87659   2.444  11.912   5.917
61921SOL    HW187660   2.438  11.930   6.011
61921SOL    HW287661   2.538  11.909   5.899
61922SOL     OW87662  13.902   2.865   7.176
61922SOL    HW187663  13.959   2.794   7.208
61922SOL    HW287664  13.876   2.912   7.255
61923SOL     OW87665   6.663   1.768   0.848
61923SOL    HW187666   6.683   1.821   0.771
61923SOL    HW287667   6.653   1.679   0.814
61924SOL     OW87668  11.084  10.210  11.197
61924SOL    HW187669  11.170  10.213  11.237
61924SOL    HW287670  11.085  10.281  11.131
61925SOL     OW87671   1.872   5.347   3.375
61925SOL    HW187672   1.780   5.322   3.378
61925SOL    HW287673   1.897   5.339   3.283
61926SOL     OW87674   7.875  11.017  12.832
61926SOL    HW187675   7.904  11.050  12.918
61926SOL    HW287676   7.882  10.922  12.840
61927SOL     OW87677  13.178   3.087  10.559
61927SOL    HW187678  13.165   3.002  10.599
61927SOL    HW287679  13.273   3.098  10.556
61928SOL     OW87680   9.242   3.732   8.122
61928SOL    HW187681   9.333   3.728   8.151
61928SOL    HW287682   9.230   3.652   8.070
61929SOL     OW87683   4.946   4.436   5.603
61929SOL    HW187684   4.875   4.412   5.662
61929SOL    HW287685   5.004   4.360   5.604
61930SOL     OW87686   6.778  11.799   0.309
61930SOL    HW187687   6.865  11.772   0.337
61930SOL    HW287688   6.794  11.859   0.236
61931SOL     OW87689   3.376   6.132  13.254
61931SOL    HW187690   3.324   6.091  13.323
61931SOL    HW287691   3.461   6.148  13.295
61932SOL     OW87692   5.021   0.930  11.028
61932SOL    HW187693   5.005   0.846  11.071
61932SOL    HW287694   5.094   0.968  11.076
61933SOL     OW87695  10.753  13.076   9.226
61933SOL    HW187696  10.663  13.091   9.255
61933SOL    HW287697  10.745  13.016   9.152
61934SOL     OW87698   9.648   8.585   2.861
61934SOL    HW187699   9.621   8.655   2.921
61934SOL    HW287700   9.591   8.511   2.883
61935SOL     OW87701   3.055   6.166   3.711
61935SOL    HW187702   3.143   6.160   3.674
61935SOL    HW287703   3.068   6.163   3.806
61936SOL     OW87704   4.594  13.369   9.036
61936SOL    HW187705   4.576  13.433   9.105
61936SOL    HW287706   4.551  13.289   9.066
61937SOL     OW87707  11.934   2.223  10.458
61937SOL    HW187708  11.893   2.283  10.521
61937SOL    HW287709  11.865   2.204  10.395
61938SOL     OW87710   3.298   8.299   5.003
61938SOL    HW187711   3.336   8.214   5.025
61938SOL    HW287712   3.247   8.283   4.924
61939SOL     OW87713  14.521  10.946  14.019
61939SOL    HW187714  14.589  10.973  13.957
61939SOL    HW287715  14.475  10.875  13.975
61940SOL     OW87716  14.257   3.173  14.300
61940SOL    HW187717  14.163   3.183  14.317
61940SOL    HW287718  14.297   3.252  14.337
61941SOL     OW87719   0.372  12.142   9.240
61941SOL    HW187720   0.440  12.188   9.191
61941SOL    HW287721   0.311  12.211   9.267
61942SOL     OW87722   4.006   3.315   7.534
61942SOL    HW187723   3.989   3.229   7.573
61942SOL    HW287724   4.082   3.348   7.583
61943SOL     OW87725   7.326   3.049   7.441
61943SOL    HW187726   7.329   2.963   7.484
61943SOL    HW287727   7.251   3.043   7.382
61944SOL     OW87728   3.635  14.604   0.688
61944SOL    HW187729   3.598  14.536   0.633
61944SOL    HW287730   3.610  14.579   0.777
61945SOL     OW87731  11.757   9.735   1.111
61945SOL    HW187732  11.772   9.709   1.020
61945SOL    HW287733  11.678   9.790   1.107
61946SOL     OW87734   3.367   6.543  10.413
61946SOL    HW187735   3.409   6.488  10.346
61946SOL    HW287736   3.401   6.631  10.395
61947SOL     OW87737   2.424   6.993   7.756
61947SOL    HW187738   2.518   6.986   7.742
61947SOL    HW287739   2.391   6.903   7.745
61948SOL     OW87740  11.496  14.277   4.832
61948SOL    HW187741  11.578  14.238   4.803
61948SOL    HW287742  11.451  14.302   4.751
61949SOL     OW87743  12.380  11.396   3.982
61949SOL    HW187744  12.469  11.400   3.949
61949SOL    HW287745  12.351  11.307   3.962
61950SOL     OW87746   7.753   3.645  10.143
61950SOL    HW187747   7.772   3.738  10.130
61950SOL    HW287748   7.837   3.602  10.133
61951SOL     OW87749   2.457  13.984   3.175
61951SOL    HW187750   2.454  13.943   3.089
61951SOL    HW287751   2.532  13.945   3.219
61952SOL     OW87752  12.544  14.009   5.051
61952SOL    HW187753  12.478  14.078   5.059
61952SOL    HW287754  12.526  13.968   4.966
61953SOL     OW87755   1.863   6.841   5.673
61953SOL    HW187756   1.947   6.853   5.717
61953SOL    HW287757   1.851   6.746   5.669
61954SOL     OW87758   1.619   2.904   4.464
61954SOL    HW187759   1.537   2.950   4.483
61954SOL    HW287760   1.639   2.857   4.545
61955SOL     OW87761   2.528  14.607  11.332
61955SOL    HW187762   2.546  14.616  11.426
61955SOL    HW287763   2.449  14.554  11.328
61956SOL     OW87764   5.872   6.837   0.578
61956SOL    HW187765   5.912   6.813   0.495
61956SOL    HW287766   5.934   6.809   0.645
61957SOL     OW87767   8.093  14.580   6.637
61957SOL    HW187768   8.131  14.602   6.721
61957SOL    HW287769   8.091  14.485   6.635
61958SOL     OW87770  12.867  10.813  11.803
61958SOL    HW187771  12.773  10.803  11.793
61958SOL    HW287772  12.889  10.762  11.881
61959SOL     OW87773   5.301   0.950   9.064
61959SOL    HW187774   5.310   0.977   9.156
61959SOL    HW287775   5.377   0.893   9.049
61960SOL     OW87776   8.515   6.068   6.143
61960SOL    HW187777   8.580   6.127   6.182
61960SOL    HW287778   8.431   6.104   6.170
61961SOL     OW87779   3.389   6.762   8.089
61961SOL    HW187780   3.391   6.667   8.079
61961SOL    HW287781   3.480   6.787   8.103
61962SOL     OW87782   6.353   9.244   7.700
61962SOL    HW187783   6.448   9.236   7.687
61962SOL    HW287784   6.344   9.280   7.788
61963SOL     OW87785  10.247   9.070   9.897
61963SOL    HW187786  10.160   9.068   9.938
61963SOL    HW287787  10.233   9.116   9.814
61964SOL     OW87788  14.552   2.782   1.206
61964SOL    HW187789  14.459   2.785   1.186
61964SOL    HW287790  14.595   2.807   1.124
61965SOL     OW87791  14.051  13.848  12.783
61965SOL    HW187792  14.067  13.915  12.716
61965SOL    HW287793  14.041  13.898  12.864
61966SOL     OW87794  10.572   8.256   8.247
61966SOL    HW187795  10.592   8.211   8.329
61966SOL    HW287796  10.509   8.200   8.203
61967SOL     OW87797   9.210   3.645   6.830
61967SOL    HW187798   9.242   3.707   6.896
61967SOL    HW287799   9.122   3.675   6.810
61968SOL     OW87800   3.870   4.295   5.455
61968SOL    HW187801   3.856   4.329   5.543
61968SOL    HW287802   3.959   4.321   5.433
61969SOL     OW87803  10.310   1.229  14.319
61969SOL    HW187804  10.405   1.239  14.329
61969SOL    HW287805  10.273   1.279  14.392
61970SOL     OW87806   4.389  14.799   5.164
61970SOL    HW187807   4.304  14.817   5.124
61970SOL    HW287808   4.450  14.791   5.091
61971SOL     OW87809   2.373   7.461   1.928
61971SOL    HW187810   2.339   7.396   1.866
61971SOL    HW287811   2.413   7.409   1.998
61972SOL     OW87812   6.725  11.404   9.374
61972SOL    HW187813   6.723  11.402   9.278
61972SOL    HW287814   6.806  11.449   9.395
61973SOL     OW87815   9.741   9.059   3.245
61973SOL    HW187816   9.729   9.139   3.193
61973SOL    HW287817   9.810   9.011   3.199
61974SOL     OW87818  12.823   0.751  11.676
61974SOL    HW187819  12.753   0.784  11.733
61974SOL    HW287820  12.842   0.663  11.709
61975SOL     OW87821   9.521   0.970   7.184
61975SOL    HW187822   9.590   0.938   7.241
61975SOL    HW287823   9.506   0.899   7.121
61976SOL     OW87824   9.882  11.406   6.076
61976SOL    HW187825   9.877  11.498   6.104
61976SOL    HW287826   9.869  11.356   6.157
61977SOL     OW87827  11.125  12.104   8.456
61977SOL    HW187828  11.034  12.087   8.481
61977SOL    HW287829  11.176  12.079   8.533
61978SOL     OW87830   5.034  13.032  10.307
61978SOL    HW187831   5.059  12.966  10.242
61978SOL    HW287832   5.004  13.107  10.256
61979SOL     OW87833  12.936   0.397  12.995
61979SOL    HW187834  12.988   0.411  13.074
61979SOL    HW287835  12.869   0.334  13.022
61980SOL     OW87836  13.439   0.677   6.733
61980SOL    HW187837  13.508   0.702   6.794
61980SOL    HW287838  13.417   0.759   6.688
61981SOL     OW87839   6.695  10.515   5.005
61981SOL    HW187840   6.714  10.608   5.007
61981SOL    HW287841   6.711  10.485   5.094
61982SOL     OW87842   5.329   5.881   2.612
61982SOL    HW187843   5.283   5.798   2.601
61982SOL    HW287844   5.259   5.946   2.620
61983SOL     OW87845   1.068   2.784   3.960
61983SOL    HW187846   1.044   2.714   3.899
61983SOL    HW287847   1.031   2.863   3.921
61984SOL     OW87848   8.835   1.410  12.481
61984SOL    HW187849   8.816   1.336  12.424
61984SOL    HW287850   8.796   1.386  12.565
61985SOL     OW87851   5.022   6.562   6.359
61985SOL    HW187852   5.015   6.468   6.379
61985SOL    HW287853   5.037   6.565   6.265
61986SOL     OW87854   2.896   1.938   2.782
61986SOL    HW187855   2.872   1.993   2.708
61986SOL    HW287856   2.948   1.995   2.838
61987SOL     OW87857   7.258   4.789   4.743
61987SOL    HW187858   7.231   4.703   4.774
61987SOL    HW287859   7.323   4.771   4.675
61988SOL     OW87860   4.745   8.376  14.649
61988SOL    HW187861   4.665   8.428  14.649
61988SOL    HW287862   4.811   8.436  14.685
61989SOL     OW87863   0.523  14.392   5.980
61989SOL    HW187864   0.567  14.396   5.895
61989SOL    HW287865   0.563  14.317   6.024
61990SOL     OW87866   9.179   8.662   0.461
61990SOL    HW187867   9.220   8.741   0.426
61990SOL    HW287868   9.103   8.648   0.405
61991SOL     OW87869   8.219   4.078  13.224
61991SOL    HW187870   8.163   4.037  13.157
61991SOL    HW287871   8.308   4.058  13.196
61992SOL     OW87872  13.491   4.225   5.590
61992SOL    HW187873  13.480   4.219   5.495
61992SOL    HW287874  13.577   4.186   5.607
61993SOL     OW87875   2.320   6.505  14.742
61993SOL    HW187876   2.252   6.570  14.724
61993SOL    HW287877   2.358   6.531  14.826
61994SOL     OW87878   9.716   1.833   7.606
61994SOL    HW187879   9.719   1.910   7.549
61994SOL    HW287880   9.648   1.854   7.670
61995SOL     OW87881   4.347   9.937   3.806
61995SOL    HW187882   4.364   9.848   3.835
61995SOL    HW287883   4.277   9.928   3.741
61996SOL     OW87884  12.874  12.968  10.352
61996SOL    HW187885  12.873  12.948  10.445
61996SOL    HW287886  12.782  12.987  10.331
61997SOL     OW87887  10.177   2.367  12.806
61997SOL    HW187888  10.194   2.274  12.824
61997SOL    HW287889  10.106   2.390  12.867
61998SOL     OW87890  11.545   9.794  12.129
61998SOL    HW187891  11.632   9.833  12.125
61998SOL    HW287892  11.562   9.701  12.148
61999SOL     OW87893   8.316   1.118   4.459
61999SOL    HW187894   8.400   1.073   4.450
61999SOL    HW287895   8.280   1.119   4.370
62000SOL     OW87896   0.967   3.532  11.458
62000SOL    HW187897   0.977   3.588  11.535
62000SOL    HW287898   1.056   3.504  11.437
62001SOL     OW87899   7.141   6.251  14.445
62001SOL    HW187900   7.126   6.344  14.424
62001SOL    HW287901   7.082   6.234  14.519
62002SOL     OW87902   9.495   2.146  12.131
62002SOL    HW187903   9.518   2.128  12.040
62002SOL    HW287904   9.506   2.241  12.140
62003SOL     OW87905   3.673   9.287   7.593
62003SOL    HW187906   3.698   9.207   7.547
62003SOL    HW287907   3.585   9.268   7.628
62004SOL     OW87908  10.109   1.772   3.422
62004SOL    HW187909  10.186   1.809   3.465
62004SOL    HW287910  10.141   1.735   3.341
62005SOL     OW87911   5.809  11.257  11.110
62005SOL    HW187912   5.794  11.280  11.018
62005SOL    HW287913   5.892  11.301  11.132
62006SOL     OW87914   1.138   0.671   9.019
62006SOL    HW187915   1.079   0.718   8.961
62006SOL    HW287916   1.094   0.588   9.035
62007SOL     OW87917   3.424  14.574   1.853
62007SOL    HW187918   3.351  14.618   1.808
62007SOL    HW287919   3.384  14.535   1.931
62008SOL     OW87920   5.100   9.791   4.684
62008SOL    HW187921   5.012   9.772   4.716
62008SOL    HW287922   5.149   9.710   4.699
62009SOL     OW87923   5.512   3.338  11.805
62009SOL    HW187924   5.467   3.423  11.801
62009SOL    HW287925   5.465   3.283  11.742
62010SOL     OW87926   5.999   3.808   1.904
62010SOL    HW187927   5.916   3.765   1.927
62010SOL    HW287928   6.004   3.883   1.963
62011SOL     OW87929  11.813   8.336  12.236
62011SOL    HW187930  11.811   8.425  12.269
62011SOL    HW287931  11.759   8.338  12.157
62012SOL     OW87932  10.745   6.058   8.197
62012SOL    HW187933  10.823   6.108   8.175
62012SOL    HW287934  10.676   6.124   8.204
62013SOL     OW87935   7.625   8.979   6.206
62013SOL    HW187936   7.713   8.981   6.244
62013SOL    HW287937   7.639   8.969   6.112
62014SOL     OW87938   7.301   3.052   4.491
62014SOL    HW187939   7.321   3.022   4.402
62014SOL    HW287940   7.376   3.107   4.515
62015SOL     OW87941  12.464   1.882   4.059
62015SOL    HW187942  12.425   1.805   4.018
62015SOL    HW287943  12.491   1.937   3.985
62016SOL     OW87944  11.781   1.933  11.878
62016SOL    HW187945  11.839   1.875  11.828
62016SOL    HW287946  11.701   1.938  11.825
62017SOL     OW87947  10.632  11.455   8.975
62017SOL    HW187948  10.552  11.413   9.007
62017SOL    HW287949  10.660  11.400   8.901
62018SOL     OW87950   5.810  13.364   0.926
62018SOL    HW187951   5.891  13.312   0.926
62018SOL    HW287952   5.840  13.455   0.932
62019SOL     OW87953   4.220  14.360  13.172
62019SOL    HW187954   4.230  14.279  13.221
62019SOL    HW287955   4.155  14.410  13.222
62020SOL     OW87956  11.590  14.027   6.198
62020SOL    HW187957  11.640  14.003   6.120
62020SOL    HW287958  11.546  13.946   6.224
62021SOL     OW87959   5.537   1.060   6.837
62021SOL    HW187960   5.567   1.065   6.746
62021SOL    HW287961   5.614   1.084   6.889
62022SOL     OW87962  13.057  11.460  14.782
62022SOL    HW187963  13.093  11.538  14.823
62022SOL    HW287964  13.055  11.395  14.852
62023SOL     OW87965   9.597  11.518  13.374
62023SOL    HW187966   9.678  11.500  13.326
62023SOL    HW287967   9.605  11.609  13.402
62024SOL     OW87968   2.718   2.020  10.980
62024SOL    HW187969   2.667   2.064  10.913
62024SOL    HW287970   2.695   1.928  10.973
62025SOL     OW87971   0.766   6.846   1.337
62025SOL    HW187972   0.700   6.905   1.373
62025SOL    HW287973   0.720   6.763   1.326
62026SOL     OW87974   2.123   5.145  13.469
62026SOL    HW187975   2.119   5.220  13.409
62026SOL    HW287976   2.183   5.173  13.538
62027SOL     OW87977   6.097   7.997   3.123
62027SOL    HW187978   6.091   8.029   3.213
62027SOL    HW287979   6.189   8.011   3.099
62028SOL     OW87980  10.648  11.956   1.656
62028SOL    HW187981  10.692  11.881   1.695
62028SOL    HW287982  10.559  11.953   1.690
62029SOL     OW87983   3.693   6.546   6.328
62029SOL    HW187984   3.620   6.601   6.298
62029SOL    HW287985   3.766   6.607   6.338
62030SOL     OW87986   9.326   2.801   4.114
62030SOL    HW187987   9.322   2.896   4.130
62030SOL    HW287988   9.237   2.777   4.089
62031SOL     OW87989  10.101  10.885   7.625
62031SOL    HW187990  10.045  10.962   7.629
62031SOL    HW287991  10.190  10.920   7.629
62032SOL     OW87992   5.522  10.894   0.376
62032SOL    HW187993   5.451  10.955   0.354
62032SOL    HW287994   5.601  10.948   0.373
62033SOL     OW87995   2.561   6.527   4.466
62033SOL    HW187996   2.615   6.570   4.399
62033SOL    HW287997   2.596   6.438   4.470
62034SOL     OW87998   9.877   3.776   6.886
62034SOL    HW187999   9.944   3.763   6.818
62034SOL    HW288000   9.795   3.750   6.843
62035SOL     OW88001   6.514   9.989  10.985
62035SOL    HW188002   6.540  10.061  11.043
62035SOL    HW288003   6.420   9.979  11.000
62036SOL     OW88004   0.645  12.232  13.594
62036SOL    HW188005   0.638  12.167  13.524
62036SOL    HW288006   0.672  12.312  13.549
62037SOL     OW88007   0.761  13.496   9.668
62037SOL    HW188008   0.735  13.411   9.632
62037SOL    HW288009   0.706  13.507   9.746
62038SOL     OW88010  14.239   0.173  10.501
62038SOL    HW188011  14.265   0.264  10.515
62038SOL    HW288012  14.223   0.166  10.407
62039SOL     OW88013   9.968   0.246   4.386
62039SOL    HW188014  10.016   0.180   4.436
62039SOL    HW288015   9.931   0.197   4.313
62040SOL     OW88016   6.411   2.720   8.424
62040SOL    HW188017   6.341   2.753   8.481
62040SOL    HW288018   6.365   2.668   8.358
62041SOL     OW88019   7.616   7.439   9.616
62041SOL    HW188020   7.598   7.486   9.534
62041SOL    HW288021   7.711   7.442   9.624
62042SOL     OW88022   3.993  12.737   7.570
62042SOL    HW188023   4.040  12.761   7.490
62042SOL    HW288024   3.904  12.716   7.540
62043SOL     OW88025  11.974   5.548  14.138
62043SOL    HW188026  12.011   5.461  14.121
62043SOL    HW288027  11.986   5.595  14.055
62044SOL     OW88028  13.844   8.181   8.173
62044SOL    HW188029  13.873   8.091   8.185
62044SOL    HW288030  13.913   8.234   8.213
62045SOL     OW88031  11.780  11.654   5.056
62045SOL    HW188032  11.747  11.740   5.028
62045SOL    HW288033  11.873  11.669   5.073
62046SOL     OW88034   5.282  11.411   7.991
62046SOL    HW188035   5.353  11.463   7.953
62046SOL    HW288036   5.305  11.320   7.971
62047SOL     OW88037   9.172  12.291   6.662
62047SOL    HW188038   9.210  12.378   6.667
62047SOL    HW288039   9.147  12.270   6.751
62048SOL     OW88040  14.866  12.103   8.079
62048SOL    HW188041  14.781  12.147   8.076
62048SOL    HW288042   0.038  12.168   8.116
62049SOL     OW88043  10.078   4.041   9.758
62049SOL    HW188044  10.173   4.045   9.753
62049SOL    HW288045  10.056   3.955   9.721
62050SOL     OW88046   7.661   1.495  11.472
62050SOL    HW188047   7.725   1.562  11.449
62050SOL    HW288048   7.626   1.465  11.388
62051SOL     OW88049   9.288   3.865   4.752
62051SOL    HW188050   9.318   3.950   4.785
62051SOL    HW288051   9.224   3.836   4.817
62052SOL     OW88052  12.488   7.112   6.729
62052SOL    HW188053  12.427   7.039   6.742
62052SOL    HW288054  12.562   7.074   6.682
62053SOL     OW88055   1.590   7.842  12.930
62053SOL    HW188056   1.552   7.758  12.905
62053SOL    HW288057   1.633   7.825  13.014
62054SOL     OW88058   4.373  13.532  14.543
62054SOL    HW188059   4.328  13.603  14.588
62054SOL    HW288060   4.306  13.489  14.490
62055SOL     OW88061   0.970   5.186  12.627
62055SOL    HW188062   0.936   5.098  12.646
62055SOL    HW288063   1.058   5.186  12.664
62056SOL     OW88064  10.263   5.902   0.117
62056SOL    HW188065  10.326   5.970   0.141
62056SOL    HW288066  10.314   5.821   0.117
62057SOL     OW88067   5.852   3.257   3.209
62057SOL    HW188068   5.834   3.171   3.247
62057SOL    HW288069   5.901   3.238   3.129
62058SOL     OW88070   1.524   3.151  12.378
62058SOL    HW188071   1.536   3.133  12.471
62058SOL    HW288072   1.435   3.122  12.359
62059SOL     OW88073   4.764  13.117   2.677
62059SOL    HW188074   4.693  13.180   2.658
62059SOL    HW288075   4.784  13.132   2.769
62060SOL     OW88076  14.588  12.902  12.569
62060SOL    HW188077  14.576  12.920  12.662
62060SOL    HW288078  14.502  12.917  12.530
62061SOL     OW88079   9.433   2.064   4.861
62061SOL    HW188080   9.426   2.085   4.954
62061SOL    HW288081   9.514   2.106   4.833
62062SOL     OW88082  12.214   7.967  13.227
62062SOL    HW188083  12.220   7.976  13.132
62062SOL    HW288084  12.246   8.051  13.261
62063SOL     OW88085   0.206   7.357   3.539
62063SOL    HW188086   0.229   7.364   3.632
62063SOL    HW288087   0.176   7.444   3.515
62064SOL     OW88088   0.436   3.247   0.984
62064SOL    HW188089   0.528   3.241   1.006
62064SOL    HW288090   0.423   3.338   0.958
62065SOL     OW88091   9.897  10.238   6.282
62065SOL    HW188092   9.956  10.182   6.233
62065SOL    HW288093   9.865  10.183   6.354
62066SOL     OW88094  13.433   8.838   0.665
62066SOL    HW188095  13.384   8.792   0.733
62066SOL    HW288096  13.376   8.833   0.588
62067SOL     OW88097  10.433   3.302  11.361
62067SOL    HW188098  10.440   3.237  11.431
62067SOL    HW288099  10.358   3.356  11.386
62068SOL     OW88100   9.631   4.005  14.164
62068SOL    HW188101   9.547   4.006  14.211
62068SOL    HW288102   9.621   3.935  14.099
62069SOL     OW88103  12.761  12.073   4.872
62069SOL    HW188104  12.819  12.063   4.796
62069SOL    HW288105  12.722  11.987   4.885
62070SOL     OW88106   3.675  13.116  10.511
62070SOL    HW188107   3.664  13.206  10.478
62070SOL    HW288108   3.689  13.127  10.605
62071SOL     OW88109  13.785  13.284   7.614
62071SOL    HW188110  13.774  13.249   7.526
62071SOL    HW288111  13.769  13.209   7.671
62072SOL     OW88112   4.034   9.870  10.854
62072SOL    HW188113   3.984   9.792  10.875
62072SOL    HW288114   4.032   9.923  10.934
62073SOL     OW88115   8.773   8.484   0.230
62073SOL    HW188116   8.773   8.492   0.135
62073SOL    HW288117   8.680   8.478   0.253
62074SOL     OW88118   8.448   0.428   8.568
62074SOL    HW188119   8.496   0.346   8.578
62074SOL    HW288120   8.496   0.476   8.500
62075SOL     OW88121   4.780  12.716   2.446
62075SOL    HW188122   4.711  12.762   2.399
62075SOL    HW288123   4.820  12.659   2.381
62076SOL     OW88124  14.712  10.242  12.227
62076SOL    HW188125  14.727  10.154  12.260
62076SOL    HW288126  14.750  10.241  12.139
62077SOL     OW88127   4.468  14.492   5.143
62077SOL    HW188128   4.434  14.579   5.162
62077SOL    HW288129   4.563  14.502   5.141
62078SOL     OW88130   4.041   9.073   0.493
62078SOL    HW188131   3.958   9.028   0.476
62078SOL    HW288132   4.068   9.107   0.407
62079SOL     OW88133  11.390   7.885  11.211
62079SOL    HW188134  11.409   7.843  11.295
62079SOL    HW288135  11.415   7.977  11.225
62080SOL     OW88136  14.074   2.348   3.753
62080SOL    HW188137  13.981   2.333   3.736
62080SOL    HW288138  14.097   2.282   3.818
62081SOL     OW88139  13.056  13.616  14.346
62081SOL    HW188140  13.004  13.571  14.412
62081SOL    HW288141  12.999  13.621  14.269
62082SOL     OW88142  11.398  10.441   5.769
62082SOL    HW188143  11.367  10.416   5.856
62082SOL    HW288144  11.331  10.407   5.709
62083SOL     OW88145   1.673   1.167  12.267
62083SOL    HW188146   1.710   1.129  12.187
62083SOL    HW288147   1.579   1.174  12.248
62084SOL     OW88148   5.733   4.989  11.985
62084SOL    HW188149   5.707   5.080  11.998
62084SOL    HW288150   5.811   4.993  11.929
62085SOL     OW88151   2.644  12.923   1.834
62085SOL    HW188152   2.554  12.893   1.821
62085SOL    HW288153   2.698  12.860   1.786
62086SOL     OW88154  10.523   0.506   0.321
62086SOL    HW188155  10.483   0.583   0.280
62086SOL    HW288156  10.510   0.436   0.257
62087SOL     OW88157   9.943   4.090   1.737
62087SOL    HW188158   9.892   4.120   1.662
62087SOL    HW288159   9.953   4.168   1.792
62088SOL     OW88160  12.113   1.965   8.713
62088SOL    HW188161  12.091   1.946   8.622
62088SOL    HW288162  12.207   1.982   8.712
62089SOL     OW88163  14.249   7.603   4.798
62089SOL    HW188164  14.249   7.697   4.818
62089SOL    HW288165  14.314   7.566   4.857
62090SOL     OW88166  10.995  12.878   9.581
62090SOL    HW188167  11.040  12.871   9.498
62090SOL    HW288168  11.022  12.800   9.630
62091SOL     OW88169   8.683   3.289   3.804
62091SOL    HW188170   8.759   3.346   3.814
62091SOL    HW288171   8.716   3.201   3.823
62092SOL     OW88172   4.688  10.797   0.520
62092SOL    HW188173   4.719  10.711   0.548
62092SOL    HW288174   4.718  10.856   0.589
62093SOL     OW88175   8.132  10.983  14.257
62093SOL    HW188176   8.077  11.043  14.307
62093SOL    HW288177   8.191  10.944  14.322
62094SOL     OW88178  12.748   5.089   4.633
62094SOL    HW188179  12.763   4.995   4.617
62094SOL    HW288180  12.832   5.122   4.665
62095SOL     OW88181   5.189   5.866   3.562
62095SOL    HW188182   5.195   5.776   3.595
62095SOL    HW288183   5.269   5.878   3.511
62096SOL     OW88184   1.325   4.158   0.502
62096SOL    HW188185   1.398   4.133   0.559
62096SOL    HW288186   1.285   4.232   0.547
62097SOL     OW88187  12.384   2.506   5.310
62097SOL    HW188188  12.450   2.574   5.325
62097SOL    HW288189  12.302   2.545   5.340
62098SOL     OW88190   2.582   3.487   5.459
62098SOL    HW188191   2.594   3.578   5.485
62098SOL    HW288192   2.560   3.491   5.366
62099SOL     OW88193   8.869   5.824   4.160
62099SOL    HW188194   8.802   5.803   4.095
62099SOL    HW288195   8.823   5.822   4.243
62100SOL     OW88196   1.474   1.403   9.680
62100SOL    HW188197   1.456   1.396   9.586
62100SOL    HW288198   1.570   1.402   9.686
62101SOL     OW88199   3.206   4.199  14.041
62101SOL    HW188200   3.294   4.160  14.045
62101SOL    HW288201   3.195   4.225  13.950
62102SOL     OW88202  14.659  10.998   2.640
62102SOL    HW188203  14.601  10.968   2.710
62102SOL    HW288204  14.650  11.094   2.641
62103SOL     OW88205   1.244  12.768  11.713
62103SOL    HW188206   1.211  12.815  11.790
62103SOL    HW288207   1.294  12.834  11.665
62104SOL     OW88208   4.117   3.727   6.908
62104SOL    HW188209   4.173   3.804   6.915
62104SOL    HW288210   4.178   3.655   6.890
62105SOL     OW88211  10.543   2.337  14.267
62105SOL    HW188212  10.610   2.403  14.284
62105SOL    HW288213  10.567   2.264  14.324
62106SOL     OW88214   3.961   9.371   7.251
62106SOL    HW188215   3.925   9.305   7.191
62106SOL    HW288216   3.954   9.454   7.203
62107SOL     OW88217   1.679   8.788   3.841
62107SOL    HW188218   1.655   8.854   3.906
62107SOL    HW288219   1.604   8.729   3.838
62108SOL     OW88220   0.078   0.725   0.039
62108SOL    HW188221   0.057   0.772  14.845
62108SOL    HW288222   0.134   0.653   0.010
62109SOL     OW88223   4.317   2.895   9.359
62109SOL    HW188224   4.297   2.969   9.415
62109SOL    HW288225   4.365   2.834   9.415
62110SOL     OW88226   7.214  10.554  11.152
62110SOL    HW188227   7.300  10.575  11.189
62110SOL    HW288228   7.152  10.574  11.223
62111SOL     OW88229   4.406  14.767  14.256
62111SOL    HW188230   4.355  14.833  14.208
62111SOL    HW288231   4.343  14.727  14.315
62112SOL     OW88232   4.444  13.688  10.598
62112SOL    HW188233   4.421  13.652  10.684
62112SOL    HW288234   4.509  13.627  10.563
62113SOL     OW88235   4.850  10.853  13.342
62113SOL    HW188236   4.893  10.926  13.298
62113SOL    HW288237   4.910  10.779  13.328
62114SOL     OW88238  10.046   2.286   0.522
62114SOL    HW188239  10.098   2.308   0.445
62114SOL    HW288240   9.955   2.288   0.491
62115SOL     OW88241  14.125  12.882  11.116
62115SOL    HW188242  14.058  12.945  11.143
62115SOL    HW288243  14.190  12.885  11.186
62116SOL     OW88244   8.896  13.334   8.129
62116SOL    HW188245   8.982  13.370   8.108
62116SOL    HW288246   8.914  13.245   8.158
62117SOL     OW88247  13.204   8.722  14.317
62117SOL    HW188248  13.192   8.662  14.390
62117SOL    HW288249  13.229   8.665  14.244
62118SOL     OW88250  13.067  14.582  12.349
62118SOL    HW188251  13.015  14.635  12.409
62118SOL    HW288252  13.151  14.629  12.342
62119SOL     OW88253   7.346   9.744   3.982
62119SOL    HW188254   7.320   9.731   4.073
62119SOL    HW288255   7.411   9.814   3.985
62120SOL     OW88256  11.819   5.406   3.475
62120SOL    HW188257  11.757   5.476   3.457
62120SOL    HW288258  11.856   5.384   3.390
62121SOL     OW88259   7.459   4.345  13.004
62121SOL    HW188260   7.451   4.352  13.099
62121SOL    HW288261   7.374   4.375  12.971
62122SOL     OW88262   0.485  12.860   8.086
62122SOL    HW188263   0.569  12.873   8.129
62122SOL    HW288264   0.453  12.948   8.068
62123SOL     OW88265  12.328   5.400   9.744
62123SOL    HW188266  12.394   5.413   9.676
62123SOL    HW288267  12.276   5.326   9.714
62124SOL     OW88268  11.491   5.229   5.989
62124SOL    HW188269  11.399   5.212   5.972
62124SOL    HW288270  11.515   5.164   6.056
62125SOL     OW88271   5.826  14.338   5.080
62125SOL    HW188272   5.836  14.256   5.031
62125SOL    HW288273   5.732  14.345   5.097
62126SOL     OW88274  14.258   7.872  13.037
62126SOL    HW188275  14.319   7.832  13.099
62126SOL    HW288276  14.270   7.966  13.049
62127SOL     OW88277  10.760   3.913   4.077
62127SOL    HW188278  10.745   3.827   4.117
62127SOL    HW288279  10.727   3.903   3.987
62128SOL     OW88280   7.898   7.486   9.321
62128SOL    HW188281   7.837   7.414   9.305
62128SOL    HW288282   7.939   7.503   9.236
62129SOL     OW88283   8.517  14.707  12.543
62129SOL    HW188284   8.533  14.615  12.559
62129SOL    HW288285   8.597  14.738  12.500
62130SOL     OW88286   2.124   2.579   9.395
62130SOL    HW188287   2.069   2.501   9.386
62130SOL    HW288288   2.094   2.621   9.475
62131SOL     OW88289   8.127   1.416   1.158
62131SOL    HW188290   8.072   1.482   1.117
62131SOL    HW288291   8.176   1.376   1.086
62132SOL     OW88292  11.407   1.087   1.941
62132SOL    HW188293  11.499   1.100   1.961
62132SOL    HW288294  11.394   1.126   1.855
62133SOL     OW88295   6.516   7.686   4.334
62133SOL    HW188296   6.556   7.693   4.247
62133SOL    HW288297   6.573   7.737   4.391
62134SOL     OW88298  14.505   5.524   9.756
62134SOL    HW188299  14.543   5.589   9.696
62134SOL    HW288300  14.546   5.441   9.731
62135SOL     OW88301   6.728  14.212   7.907
62135SOL    HW188302   6.745  14.144   7.841
62135SOL    HW288303   6.725  14.293   7.857
62136SOL     OW88304   6.865   4.518   9.917
62136SOL    HW188305   6.791   4.549   9.866
62136SOL    HW288306   6.936   4.579   9.896
62137SOL     OW88307   8.007   8.042  11.520
62137SOL    HW188308   8.049   7.956  11.520
62137SOL    HW288309   8.066   8.097  11.571
62138SOL     OW88310   2.549   2.031   5.117
62138SOL    HW188311   2.537   2.123   5.141
62138SOL    HW288312   2.623   2.032   5.056
62139SOL     OW88313   0.241  11.226   5.749
62139SOL    HW188314   0.227  11.272   5.666
62139SOL    HW288315   0.299  11.284   5.799
62140SOL     OW88316  11.097  11.993   3.471
62140SOL    HW188317  11.038  11.946   3.412
62140SOL    HW288318  11.141  12.057   3.415
62141SOL     OW88319  14.452   7.528   2.135
62141SOL    HW188320  14.538   7.511   2.173
62141SOL    HW288321  14.390   7.504   2.204
62142SOL     OW88322   2.207  14.735   6.097
62142SOL    HW188323   2.248  14.793   6.160
62142SOL    HW288324   2.143  14.790   6.051
62143SOL     OW88325   7.422   2.503  10.604
62143SOL    HW188326   7.415   2.544  10.517
62143SOL    HW288327   7.346   2.537  10.652
62144SOL     OW88328   3.205   7.936   7.274
62144SOL    HW188329   3.192   8.010   7.333
62144SOL    HW288330   3.291   7.902   7.296
62145SOL     OW88331   2.051   0.334   5.264
62145SOL    HW188332   2.086   0.309   5.349
62145SOL    HW288333   2.058   0.430   5.262
62146SOL     OW88334   9.216   7.615   3.220
62146SOL    HW188335   9.155   7.646   3.153
62146SOL    HW288336   9.201   7.521   3.226
62147SOL     OW88337   0.054   7.139   6.123
62147SOL    HW188338   0.122   7.082   6.087
62147SOL    HW288339   0.039   7.106   6.212
62148SOL     OW88340  10.822   5.171  11.200
62148SOL    HW188341  10.802   5.259  11.168
62148SOL    HW288342  10.737   5.125  11.198
62149SOL     OW88343   8.381   7.898   2.685
62149SOL    HW188344   8.453   7.912   2.623
62149SOL    HW288345   8.422   7.851   2.758
62150SOL     OW88346  10.060   7.018  13.520
62150SOL    HW188347  10.099   7.030  13.607
62150SOL    HW288348  10.133   6.990  13.465
62151SOL     OW88349  11.711   2.914   8.097
62151SOL    HW188350  11.782   2.964   8.138
62151SOL    HW288351  11.707   2.949   8.007
62152SOL     OW88352   7.087   4.229   0.836
62152SOL    HW188353   7.086   4.217   0.931
62152SOL    HW288354   7.088   4.324   0.824
62153SOL     OW88355   0.029  13.138   5.245
62153SOL    HW188356  14.874  13.215   5.280
62153SOL    HW288357  14.854  13.067   5.259
62154SOL     OW88358   5.422  14.444   7.718
62154SOL    HW188359   5.391  14.518   7.771
62154SOL    HW288360   5.387  14.461   7.630
62155SOL     OW88361   8.041  10.190   6.767
62155SOL    HW188362   8.131  10.193   6.799
62155SOL    HW288363   7.989  10.168   6.844
62156SOL     OW88364  11.614  11.944  11.355
62156SOL    HW188365  11.625  11.903  11.270
62156SOL    HW288366  11.679  11.901  11.411
62157SOL     OW88367  13.138   0.714   4.595
62157SOL    HW188368  13.082   0.636   4.593
62157SOL    HW288369  13.198   0.702   4.522
62158SOL     OW88370   6.830  14.606   1.216
62158SOL    HW188371   6.835  14.645   1.304
62158SOL    HW288372   6.750  14.554   1.218
62159SOL     OW88373   9.234   3.035  10.034
62159SOL    HW188374   9.210   3.127  10.049
62159SOL    HW288375   9.294   3.037   9.960
62160SOL     OW88376   0.672  11.685   1.213
62160SOL    HW188377   0.640  11.762   1.165
62160SOL    HW288378   0.647  11.701   1.304
62161SOL     OW88379  13.339   4.151  13.179
62161SOL    HW188380  13.319   4.244  13.190
62161SOL    HW288381  13.426   4.149  13.139
62162SOL     OW88382  10.608   3.526  13.188
62162SOL    HW188383  10.668   3.497  13.119
62162SOL    HW288384  10.547   3.452  13.199
62163SOL     OW88385  14.714  12.398   6.478
62163SOL    HW188386  14.630  12.371   6.515
62163SOL    HW288387  14.778  12.337   6.516
62164SOL     OW88388   8.467   7.716  12.864
62164SOL    HW188389   8.456   7.786  12.929
62164SOL    HW288390   8.470   7.636  12.915
62165SOL     OW88391  10.032   2.185   3.570
62165SOL    HW188392  10.106   2.160   3.514
62165SOL    HW288393  10.027   2.115   3.635
62166SOL     OW88394   4.730   7.122   9.719
62166SOL    HW188395   4.701   7.051   9.776
62166SOL    HW288396   4.773   7.078   9.645
62167SOL     OW88397   6.765   9.859   7.121
62167SOL    HW188398   6.834   9.923   7.103
62167SOL    HW288399   6.790   9.782   7.069
62168SOL     OW88400   9.943   8.878   0.447
62168SOL    HW188401   9.951   8.973   0.451
62168SOL    HW288402  10.026   8.845   0.480
62169SOL     OW88403   3.906   9.242   5.124
62169SOL    HW188404   3.815   9.220   5.142
62169SOL    HW288405   3.906   9.337   5.111
62170SOL     OW88406   3.726   0.792   8.124
62170SOL    HW188407   3.693   0.722   8.068
62170SOL    HW288408   3.796   0.751   8.175
62171SOL     OW88409   2.572  12.367   5.115
62171SOL    HW188410   2.485  12.404   5.130
62171SOL    HW288411   2.594  12.322   5.196
62172SOL     OW88412   8.461   3.784   9.854
62172SOL    HW188413   8.383   3.786   9.798
62172SOL    HW288414   8.471   3.691   9.877
62173SOL     OW88415  13.973   9.233  11.867
62173SOL    HW188416  13.929   9.237  11.952
62173SOL    HW288417  13.917   9.175  11.814
62174SOL     OW88418   1.627  10.936  13.583
62174SOL    HW188419   1.544  10.958  13.626
62174SOL    HW288420   1.649  11.014  13.531
62175SOL     OW88421  11.255   9.778  11.571
62175SOL    HW188422  11.210   9.800  11.653
62175SOL    HW288423  11.347   9.802  11.588
62176SOL     OW88424   5.202   2.247   8.008
62176SOL    HW188425   5.239   2.263   8.095
62176SOL    HW288426   5.138   2.317   7.997
62177SOL     OW88427  12.928  10.748  13.374
62177SOL    HW188428  12.855  10.805  13.351
62177SOL    HW288429  12.901  10.708  13.457
62178SOL     OW88430  14.330   4.526  11.506
62178SOL    HW188431  14.314   4.614  11.540
62178SOL    HW288432  14.243   4.493  11.481
62179SOL     OW88433  12.606   8.686  14.804
62179SOL    HW188434  12.537   8.750  14.789
62179SOL    HW288435  12.570   8.625  14.867
62180SOL     OW88436  11.494   4.157  14.750
62180SOL    HW188437  11.407   4.118  14.754
62180SOL    HW288438  11.530   4.145  14.838
62181SOL     OW88439   8.554  14.843   8.300
62181SOL    HW188440   8.627  14.887   8.345
62181SOL    HW288441   8.522   0.021   8.238
62182SOL     OW88442  11.477   0.593   3.224
62182SOL    HW188443  11.415   0.661   3.251
62182SOL    HW288444  11.562   0.625   3.254
62183SOL     OW88445   4.764  11.568   0.486
62183SOL    HW188446   4.800  11.544   0.401
62183SOL    HW288447   4.714  11.491   0.513
62184SOL     OW88448  13.824   8.614   2.289
62184SOL    HW188449  13.895   8.550   2.283
62184SOL    HW288450  13.850   8.684   2.230
62185SOL     OW88451  10.804   0.610   9.252
62185SOL    HW188452  10.847   0.662   9.184
62185SOL    HW288453  10.715   0.597   9.219
62186SOL     OW88454   8.746   0.124   7.488
62186SOL    HW188455   8.797   0.195   7.527
62186SOL    HW288456   8.700   0.165   7.415
62187SOL     OW88457   7.743   9.513   8.834
62187SOL    HW188458   7.739   9.599   8.875
62187SOL    HW288459   7.674   9.515   8.767
62188SOL     OW88460   0.478   3.095  12.027
62188SOL    HW188461   0.425   3.016  12.024
62188SOL    HW288462   0.503   3.111  11.936
62189SOL     OW88463  10.528  11.959   7.897
62189SOL    HW188464  10.484  11.956   7.812
62189SOL    HW288465  10.467  12.006   7.954
62190SOL     OW88466   7.318  10.084   1.459
62190SOL    HW188467   7.347  10.128   1.539
62190SOL    HW288468   7.339   9.992   1.473
62191SOL     OW88469   0.119  10.957  10.535
62191SOL    HW188470   0.053  10.915  10.480
62191SOL    HW288471   0.166  11.016  10.476
62192SOL     OW88472   5.583   9.027   6.885
62192SOL    HW188473   5.553   9.106   6.839
62192SOL    HW288474   5.644   9.060   6.952
62193SOL     OW88475   1.212   2.214  11.510
62193SOL    HW188476   1.138   2.252  11.556
62193SOL    HW288477   1.172   2.153  11.447
62194SOL     OW88478   6.286  10.747   0.080
62194SOL    HW188479   6.351  10.758   0.010
62194SOL    HW288480   6.203  10.774   0.040
62195SOL     OW88481   7.397  12.506   9.650
62195SOL    HW188482   7.467  12.455   9.609
62195SOL    HW288483   7.316  12.464   9.619
62196SOL     OW88484  11.851   6.387   9.482
62196SOL    HW188485  11.882   6.299   9.459
62196SOL    HW288486  11.842   6.385   9.577
62197SOL     OW88487   9.732  11.383   1.086
62197SOL    HW188488   9.765  11.368   1.174
62197SOL    HW288489   9.641  11.410   1.099
62198SOL     OW88490   5.605  14.325   8.922
62198SOL    HW188491   5.541  14.374   8.871
62198SOL    HW288492   5.633  14.386   8.991
62199SOL     OW88493   6.913   8.405  13.995
62199SOL    HW188494   6.853   8.475  14.020
62199SOL    HW288495   6.997   8.449  13.984
62200SOL     OW88496  11.729  11.805   0.024
62200SOL    HW188497  11.799  11.747  14.882
62200SOL    HW288498  11.733  11.880  14.852
62201SOL     OW88499   6.226   1.380   4.526
62201SOL    HW188500   6.271   1.315   4.472
62201SOL    HW288501   6.180   1.435   4.464
62202SOL     OW88502   9.715   9.704  14.089
62202SOL    HW188503   9.770   9.692  14.167
62202SOL    HW288504   9.634   9.656  14.109
62203SOL     OW88505   3.957   9.330   9.550
62203SOL    HW188506   3.966   9.267   9.622
62203SOL    HW288507   4.043   9.330   9.508
62204SOL     OW88508   2.823  11.876  13.606
62204SOL    HW188509   2.837  11.967  13.579
62204SOL    HW288510   2.911  11.841  13.614
62205SOL     OW88511   0.025   9.876   3.089
62205SOL    HW188512  14.844   9.811   3.075
62205SOL    HW288513   0.049   9.904   3.001
62206SOL     OW88514   8.369   0.664   6.791
62206SOL    HW188515   8.409   0.600   6.732
62206SOL    HW288516   8.275   0.645   6.787
62207SOL     OW88517   1.018  13.462   7.557
62207SOL    HW188518   1.088  13.448   7.620
62207SOL    HW288519   0.937  13.454   7.608
62208SOL     OW88520   5.858   3.512   0.721
62208SOL    HW188521   5.841   3.606   0.730
62208SOL    HW288522   5.818   3.489   0.638
62209SOL     OW88523  13.413  11.890  12.616
62209SOL    HW188524  13.409  11.799  12.646
62209SOL    HW288525  13.323  11.910  12.590
62210SOL     OW88526   3.325  10.781   3.726
62210SOL    HW188527   3.402  10.829   3.694
62210SOL    HW288528   3.321  10.803   3.819
62211SOL     OW88529   0.102   2.254   4.291
62211SOL    HW188530   0.149   2.176   4.261
62211SOL    HW288531   0.015   2.221   4.315
62212SOL     OW88532   2.625   8.419   5.571
62212SOL    HW188533   2.640   8.339   5.623
62212SOL    HW288534   2.545   8.400   5.522
62213SOL     OW88535   5.124   2.089  13.683
62213SOL    HW188536   5.146   2.028  13.613
62213SOL    HW288537   5.197   2.152  13.683
62214SOL     OW88538   5.708   1.910   4.234
62214SOL    HW188539   5.725   1.977   4.168
62214SOL    HW288540   5.649   1.848   4.191
62215SOL     OW88541   7.696  12.716  10.424
62215SOL    HW188542   7.767  12.712  10.359
62215SOL    HW288543   7.626  12.663  10.386
62216SOL     OW88544  11.031  10.671   7.850
62216SOL    HW188545  10.947  10.715   7.844
62216SOL    HW288546  11.062  10.688   7.939
62217SOL     OW88547  13.305   7.307   4.722
62217SOL    HW188548  13.280   7.215   4.733
62217SOL    HW288549  13.332   7.313   4.630
62218SOL     OW88550  14.738  12.514  11.797
62218SOL    HW188551  14.666  12.452  11.806
62218SOL    HW288552  14.729  12.572  11.873
62219SOL     OW88553   1.999   5.181   3.538
62219SOL    HW188554   2.081   5.230   3.532
62219SOL    HW288555   1.938   5.230   3.483
62220SOL     OW88556   0.593  10.887   9.948
62220SOL    HW188557   0.531  10.904   9.877
62220SOL    HW288558   0.557  10.811   9.994
62221SOL     OW88559   4.518   1.796   4.655
62221SOL    HW188560   4.478   1.842   4.581
62221SOL    HW288561   4.479   1.709   4.654
62222SOL     OW88562  13.903   4.072   1.227
62222SOL    HW188563  13.986   4.088   1.183
62222SOL    HW288564  13.894   3.977   1.227
62223SOL     OW88565   8.884   3.122  14.124
62223SOL    HW188566   8.812   3.059  14.118
62223SOL    HW288567   8.923   3.123  14.037
62224SOL     OW88568  10.527   7.259   6.926
62224SOL    HW188569  10.592   7.313   6.970
62224SOL    HW288570  10.445   7.277   6.972
62225SOL     OW88571   7.229   8.866   8.712
62225SOL    HW188572   7.160   8.931   8.698
62225SOL    HW288573   7.247   8.832   8.624
62226SOL     OW88574   6.019  10.319   0.261
62226SOL    HW188575   6.051  10.368   0.336
62226SOL    HW288576   6.025  10.227   0.287
62227SOL     OW88577  11.221  10.639   7.281
62227SOL    HW188578  11.251  10.728   7.301
62227SOL    HW288579  11.195  10.643   7.189
62228SOL     OW88580   8.532   1.783   0.550
62228SOL    HW188581   8.542   1.793   0.455
62228SOL    HW288582   8.504   1.870   0.580
62229SOL     OW88583   7.797   2.539   5.212
62229SOL    HW188584   7.787   2.555   5.118
62229SOL    HW288585   7.718   2.575   5.251
62230SOL     OW88586   3.657  14.167   4.848
62230SOL    HW188587   3.669  14.226   4.773
62230SOL    HW288588   3.566  14.137   4.840
62231SOL     OW88589   0.361  12.614  11.649
62231SOL    HW188590   0.364  12.587  11.741
62231SOL    HW288591   0.373  12.709  11.653
62232SOL     OW88592   5.272  13.801  10.885
62232SOL    HW188593   5.306  13.768  10.968
62232SOL    HW288594   5.224  13.881  10.909
62233SOL     OW88595  12.788   4.827   5.130
62233SOL    HW188596  12.777   4.921   5.148
62233SOL    HW288597  12.780   4.785   5.215
62234SOL     OW88598  13.392   6.402   6.047
62234SOL    HW188599  13.430   6.383   5.961
62234SOL    HW288600  13.354   6.489   6.037
62235SOL     OW88601   9.679   7.263  12.501
62235SOL    HW188602   9.732   7.317  12.560
62235SOL    HW288603   9.633   7.326  12.446
62236SOL     OW88604   9.306   0.456   2.164
62236SOL    HW188605   9.265   0.537   2.193
62236SOL    HW288606   9.332   0.412   2.244
62237SOL     OW88607   3.414   2.867   6.459
62237SOL    HW188608   3.465   2.942   6.491
62237SOL    HW288609   3.345   2.856   6.524
62238SOL     OW88610   5.981   4.024   1.748
62238SOL    HW188611   6.011   3.951   1.802
62238SOL    HW288612   5.889   4.005   1.731
62239SOL     OW88613   0.437  11.790   1.861
62239SOL    HW188614   0.352  11.805   1.820
62239SOL    HW288615   0.416  11.749   1.945
62240SOL     OW88616  10.038   6.477   1.504
62240SOL    HW188617   9.982   6.450   1.577
62240SOL    HW288618  10.057   6.396   1.456
62241SOL     OW88619   1.564  10.507   0.171
62241SOL    HW188620   1.591  10.489   0.261
62241SOL    HW288621   1.473  10.536   0.178
62242SOL     OW88622   6.183   0.554   2.367
62242SOL    HW188623   6.222   0.481   2.415
62242SOL    HW288624   6.093   0.558   2.400
62243SOL     OW88625   9.342  13.358  14.433
62243SOL    HW188626   9.346  13.454  14.438
62243SOL    HW288627   9.433  13.330  14.432
62244SOL     OW88628  13.725  10.502   1.026
62244SOL    HW188629  13.646  10.463   0.987
62244SOL    HW288630  13.794  10.485   0.962
62245SOL     OW88631   1.018   0.085  10.167
62245SOL    HW188632   1.113   0.084  10.179
62245SOL    HW288633   1.005   0.058  10.076
62246SOL     OW88634   4.276  12.793   7.113
62246SOL    HW188635   4.358  12.745   7.121
62246SOL    HW288636   4.244  12.770   7.025
62247SOL     OW88637   0.078   2.062   2.060
62247SOL    HW188638   0.040   2.121   1.995
62247SOL    HW288639   0.021   2.070   2.136
62248SOL     OW88640   8.882   4.354   2.369
62248SOL    HW188641   8.843   4.381   2.286
62248SOL    HW288642   8.853   4.264   2.381
62249SOL     OW88643   6.834   8.560  10.243
62249SOL    HW188644   6.873   8.505  10.175
62249SOL    HW288645   6.836   8.505  10.322
62250SOL     OW88646   1.394  11.150   4.589
62250SOL    HW188647   1.375  11.219   4.526
62250SOL    HW288648   1.482  11.121   4.568
62251SOL     OW88649   0.236   1.789   4.454
62251SOL    HW188650   0.247   1.740   4.373
62251SOL    HW288651   0.214   1.722   4.519
62252SOL     OW88652   1.990   7.926  10.080
62252SOL    HW188653   1.950   7.896  10.162
62252SOL    HW288654   2.033   7.848  10.044
62253SOL     OW88655  12.296  14.743   8.057
62253SOL    HW188656  12.274  14.827   8.098
62253SOL    HW288657  12.260  14.749   7.969
62254SOL     OW88658  14.629   3.108  10.407
62254SOL    HW188659  14.627   3.013  10.412
62254SOL    HW288660  14.640   3.137  10.498
62255SOL     OW88661   0.997   0.734   6.353
62255SOL    HW188662   0.905   0.728   6.326
62255SOL    HW288663   1.011   0.658   6.409
62256SOL     OW88664  10.262   9.616  14.676
62256SOL    HW188665  10.300   9.607  14.589
62256SOL    HW288666  10.240   9.709  14.683
62257SOL     OW88667   7.277   5.276   6.999
62257SOL    HW188668   7.298   5.291   6.907
62257SOL    HW288669   7.182   5.270   7.001
62258SOL     OW88670  11.739   0.913  10.673
62258SOL    HW188671  11.742   0.913  10.578
62258SOL    HW288672  11.749   1.006  10.697
62259SOL     OW88673   1.202   6.479   2.112
62259SOL    HW188674   1.180   6.474   2.205
62259SOL    HW288675   1.132   6.531   2.073
62260SOL     OW88676   1.179  13.059  13.077
62260SOL    HW188677   1.109  13.093  13.022
62260SOL    HW288678   1.259  13.081  13.029
62261SOL     OW88679   0.979  12.010  12.346
62261SOL    HW188680   0.945  11.935  12.298
62261SOL    HW288681   1.054  12.040  12.294
62262SOL     OW88682   6.204  11.093   3.431
62262SOL    HW188683   6.157  11.127   3.507
62262SOL    HW288684   6.135  11.065   3.371
62263SOL     OW88685  14.763  11.008   1.639
62263SOL    HW188686  14.830  10.998   1.706
62263SOL    HW288687  14.777  10.934   1.580
62264SOL     OW88688   3.354   1.581  10.431
62264SOL    HW188689   3.289   1.513  10.411
62264SOL    HW288690   3.363   1.577  10.526
62265SOL     OW88691   7.168  14.219   8.334
62265SOL    HW188692   7.123  14.297   8.302
62265SOL    HW288693   7.176  14.232   8.428
62266SOL     OW88694  11.204  14.684  10.822
62266SOL    HW188695  11.155  14.603  10.808
62266SOL    HW288696  11.144  14.739  10.873
62267SOL     OW88697   2.954   8.295   6.133
62267SOL    HW188698   2.942   8.210   6.176
62267SOL    HW288699   2.901   8.289   6.053
62268SOL     OW88700   0.823   1.392  13.700
62268SOL    HW188701   0.912   1.412  13.671
62268SOL    HW288702   0.767   1.455  13.654
62269SOL     OW88703   0.133   3.720  12.022
62269SOL    HW188704   0.224   3.747  12.022
62269SOL    HW288705   0.105   3.730  12.113
62270SOL     OW88706  12.567   1.304   9.034
62270SOL    HW188707  12.609   1.226   9.070
62270SOL    HW288708  12.516   1.272   8.960
62271SOL     OW88709   3.407   3.092   8.159
62271SOL    HW188710   3.333   3.031   8.153
62271SOL    HW288711   3.422   3.119   8.068
62272SOL     OW88712  10.410   5.698  11.606
62272SOL    HW188713  10.451   5.617  11.634
62272SOL    HW288714  10.482   5.761  11.601
62273SOL     OW88715   0.836  13.518   9.118
62273SOL    HW188716   0.779  13.442   9.123
62273SOL    HW288717   0.899  13.497   9.049
62274SOL     OW88718   1.374  12.688  10.903
62274SOL    HW188719   1.306  12.681  10.837
62274SOL    HW288720   1.347  12.626  10.971
62275SOL     OW88721   2.352  13.662  13.211
62275SOL    HW188722   2.325  13.662  13.303
62275SOL    HW288723   2.324  13.748  13.178
62276SOL     OW88724  13.555   2.245   0.025
62276SOL    HW188725  13.630   2.259   0.083
62276SOL    HW288726  13.535   2.332  14.878
62277SOL     OW88727   2.874  11.667   3.329
62277SOL    HW188728   2.940  11.600   3.314
62277SOL    HW288729   2.795  11.618   3.350
62278SOL     OW88730   3.823   1.848  10.680
62278SOL    HW188731   3.864   1.857  10.766
62278SOL    HW288732   3.867   1.773  10.640
62279SOL     OW88733   5.890   0.637   6.157
62279SOL    HW188734   5.868   0.729   6.175
62279SOL    HW288735   5.921   0.638   6.066
62280SOL     OW88736  10.807   2.978  13.171
62280SOL    HW188737  10.852   2.911  13.223
62280SOL    HW288738  10.766   2.928  13.100
62281SOL     OW88739   1.722   9.563   0.525
62281SOL    HW188740   1.702   9.617   0.601
62281SOL    HW288741   1.808   9.593   0.496
62282SOL     OW88742   4.838   1.195   0.454
62282SOL    HW188743   4.858   1.233   0.369
62282SOL    HW288744   4.923   1.166   0.488
62283SOL     OW88745   8.232   3.632   3.265
62283SOL    HW188746   8.209   3.674   3.348
62283SOL    HW288747   8.173   3.556   3.260
62284SOL     OW88748   4.819   0.584   0.253
62284SOL    HW188749   4.848   0.675   0.251
62284SOL    HW288750   4.890   0.537   0.296
62285SOL     OW88751   2.769   1.638   1.837
62285SOL    HW188752   2.861   1.613   1.828
62285SOL    HW288753   2.722   1.555   1.843
62286SOL     OW88754  13.165   9.989   0.487
62286SOL    HW188755  13.086  10.040   0.507
62286SOL    HW288756  13.178  10.001   0.393
62287SOL     OW88757   6.235   3.828   6.393
62287SOL    HW188758   6.257   3.861   6.306
62287SOL    HW288759   6.310   3.776   6.420
62288SOL     OW88760  10.765   8.523   3.099
62288SOL    HW188761  10.768   8.608   3.141
62288SOL    HW288762  10.791   8.540   3.008
62289SOL     OW88763   4.097   8.095   7.440
62289SOL    HW188764   4.157   8.039   7.488
62289SOL    HW288765   4.136   8.182   7.445
62290SOL     OW88766   4.637   4.914  14.290
62290SOL    HW188767   4.617   4.821  14.302
62290SOL    HW288768   4.731   4.921  14.310
62291SOL     OW88769   0.070   3.129  13.793
62291SOL    HW188770   0.073   3.040  13.826
62291SOL    HW288771   0.158   3.144  13.757
62292SOL     OW88772   0.893   3.794  11.220
62292SOL    HW188773   0.860   3.779  11.132
62292SOL    HW288774   0.818   3.826  11.270
62293SOL     OW88775  11.361  11.742  10.588
62293SOL    HW188776  11.456  11.732  10.600
62293SOL    HW288777  11.346  11.729  10.495
62294SOL     OW88778   4.420  12.438  10.731
62294SOL    HW188779   4.406  12.488  10.812
62294SOL    HW288780   4.486  12.488  10.683
62295SOL     OW88781   3.930   5.521   3.178
62295SOL    HW188782   4.002   5.470   3.214
62295SOL    HW288783   3.968   5.608   3.162
62296SOL     OW88784   1.563   5.470   6.402
62296SOL    HW188785   1.488   5.435   6.450
62296SOL    HW288786   1.621   5.395   6.389
62297SOL     OW88787  13.883  14.353  11.697
62297SOL    HW188788  13.878  14.275  11.753
62297SOL    HW288789  13.871  14.426  11.757
62298SOL     OW88790   9.967   4.247  14.069
62298SOL    HW188791   9.998   4.156  14.067
62298SOL    HW288792   9.874   4.240  14.045
62299SOL     OW88793   5.579  12.434   7.914
62299SOL    HW188794   5.609  12.344   7.902
62299SOL    HW288795   5.596  12.453   8.006
62300SOL     OW88796  12.490   1.570  14.079
62300SOL    HW188797  12.524   1.498  14.133
62300SOL    HW288798  12.568   1.605  14.036
62301SOL     OW88799  11.035   3.974   4.073
62301SOL    HW188800  10.942   3.951   4.071
62301SOL    HW288801  11.060   3.977   3.981
62302SOL     OW88802  13.509   4.482  10.348
62302SOL    HW188803  13.476   4.402  10.307
62302SOL    HW288804  13.571   4.517  10.284
62303SOL     OW88805   4.371   9.064   8.163
62303SOL    HW188806   4.381   8.973   8.190
62303SOL    HW288807   4.458   9.102   8.172
62304SOL     OW88808   7.439  13.320  12.416
62304SOL    HW188809   7.525  13.353  12.441
62304SOL    HW288810   7.382  13.397  12.417
62305SOL     OW88811   2.874   6.494   6.163
62305SOL    HW188812   2.966   6.498   6.187
62305SOL    HW288813   2.855   6.579   6.123
62306SOL     OW88814   0.711   7.877   1.043
62306SOL    HW188815   0.712   7.914   1.131
62306SOL    HW288816   0.689   7.951   0.986
62307SOL     OW88817  13.182   6.034   9.070
62307SOL    HW188818  13.259   5.978   9.075
62307SOL    HW288819  13.123   5.988   9.010
62308SOL     OW88820   5.009  13.029   1.406
62308SOL    HW188821   5.074  13.085   1.365
62308SOL    HW288822   4.930  13.041   1.353
62309SOL     OW88823   1.008   6.912   3.735
62309SOL    HW188824   0.988   6.819   3.750
62309SOL    HW288825   1.049   6.941   3.817
62310SOL     OW88826   2.379   1.372  13.980
62310SOL    HW188827   2.332   1.425  14.045
62310SOL    HW288828   2.399   1.291  14.026
62311SOL     OW88829   4.496  13.615   5.411
62311SOL    HW188830   4.411  13.642   5.376
62311SOL    HW288831   4.474  13.552   5.480
62312SOL     OW88832   0.825   2.388   2.143
62312SOL    HW188833   0.757   2.371   2.078
62312SOL    HW288834   0.811   2.321   2.210
62313SOL     OW88835   6.167  13.372  12.107
62313SOL    HW188836   6.086  13.422  12.095
62313SOL    HW288837   6.138  13.282  12.118
62314SOL     OW88838   4.271   9.935   4.949
62314SOL    HW188839   4.192   9.963   4.902
62314SOL    HW288840   4.270   9.839   4.941
62315SOL     OW88841   9.172   5.457  11.054
62315SOL    HW188842   9.147   5.476  10.964
62315SOL    HW288843   9.236   5.386  11.046
62316SOL     OW88844   3.977  13.643   1.250
62316SOL    HW188845   3.914  13.571   1.261
62316SOL    HW288846   4.023  13.622   1.169
62317SOL     OW88847   7.376   6.534   0.506
62317SOL    HW188848   7.328   6.616   0.495
62317SOL    HW288849   7.311   6.466   0.489
62318SOL     OW88850   6.248  10.836   3.827
62318SOL    HW188851   6.183  10.842   3.757
62318SOL    HW288852   6.229  10.753   3.870
62319SOL     OW88853   3.851   1.268   7.872
62319SOL    HW188854   3.788   1.310   7.813
62319SOL    HW288855   3.808   1.186   7.898
62320SOL     OW88856   8.869   5.451  13.962
62320SOL    HW188857   8.818   5.457  13.881
62320SOL    HW288858   8.866   5.539  13.999
62321SOL     OW88859  12.316   2.014  12.471
62321SOL    HW188860  12.275   2.098  12.489
62321SOL    HW288861  12.373   2.030  12.396
62322SOL     OW88862  11.395   5.958   3.818
62322SOL    HW188863  11.316   5.906   3.829
62322SOL    HW288864  11.440   5.951   3.903
62323SOL     OW88865  10.054  11.760   0.521
62323SOL    HW188866  10.020  11.807   0.598
62323SOL    HW288867   9.992  11.781   0.451
62324SOL     OW88868   6.865   3.439  13.824
62324SOL    HW188869   6.927   3.370  13.802
62324SOL    HW288870   6.891   3.513  13.770
62325SOL     OW88871  13.980   4.427  10.286
62325SOL    HW188872  14.058   4.426  10.232
62325SOL    HW288873  14.013   4.430  10.376
62326SOL     OW88874   2.623   3.619   6.135
62326SOL    HW188875   2.560   3.623   6.062
62326SOL    HW288876   2.704   3.587   6.095
62327SOL     OW88877  10.270   7.403   6.147
62327SOL    HW188878  10.195   7.418   6.204
62327SOL    HW288879  10.234   7.353   6.073
62328SOL     OW88880   5.726  10.068   8.435
62328SOL    HW188881   5.685  10.121   8.503
62328SOL    HW288882   5.695   9.979   8.452
62329SOL     OW88883   8.479   8.761   1.403
62329SOL    HW188884   8.406   8.726   1.454
62329SOL    HW288885   8.556   8.715   1.437
62330SOL     OW88886   0.618  12.412   8.642
62330SOL    HW188887   0.530  12.428   8.677
62330SOL    HW288888   0.616  12.450   8.554
62331SOL     OW88889   0.794   1.207   5.786
62331SOL    HW188890   0.728   1.201   5.855
62331SOL    HW288891   0.872   1.241   5.829
62332SOL     OW88892   6.516   0.120  12.436
62332SOL    HW188893   6.493   0.052  12.373
62332SOL    HW288894   6.468   0.198  12.405
62333SOL     OW88895  12.177   5.325  11.531
62333SOL    HW188896  12.240   5.287  11.593
62333SOL    HW288897  12.130   5.250  11.495
62334SOL     OW88898   0.961  12.900   7.937
62334SOL    HW188899   1.019  12.834   7.898
62334SOL    HW288900   0.879  12.891   7.887
62335SOL     OW88901  10.315  11.749  14.209
62335SOL    HW188902  10.265  11.685  14.260
62335SOL    HW288903  10.407  11.729  14.229
62336SOL     OW88904  10.280   3.433   6.223
62336SOL    HW188905  10.260   3.405   6.313
62336SOL    HW288906  10.272   3.353   6.172
62337SOL     OW88907   2.087  14.748   2.337
62337SOL    HW188908   2.103  14.842   2.343
62337SOL    HW288909   2.128  14.712   2.416
62338SOL     OW88910  11.117  12.952   7.811
62338SOL    HW188911  11.078  13.021   7.864
62338SOL    HW288912  11.153  12.890   7.875
62339SOL     OW88913   7.584   0.689  11.636
62339SOL    HW188914   7.565   0.764  11.693
62339SOL    HW288915   7.679   0.677  11.644
62340SOL     OW88916  11.499  11.370   9.117
62340SOL    HW188917  11.441  11.311   9.166
62340SOL    HW288918  11.461  11.374   9.030
62341SOL     OW88919  12.748   6.242   2.488
62341SOL    HW188920  12.789   6.256   2.573
62341SOL    HW288921  12.748   6.147   2.477
62342SOL     OW88922   2.094   4.471  10.407
62342SOL    HW188923   2.069   4.458  10.315
62342SOL    HW288924   2.026   4.527  10.442
62343SOL     OW88925   5.604  12.874   9.170
62343SOL    HW188926   5.551  12.804   9.131
62343SOL    HW288927   5.674  12.890   9.107
62344SOL     OW88928  13.155   0.974   8.790
62344SOL    HW188929  13.067   0.984   8.826
62344SOL    HW288930  13.154   0.889   8.747
62345SOL     OW88931  10.701   4.142   7.370
62345SOL    HW188932  10.793   4.165   7.381
62345SOL    HW288933  10.694   4.115   7.278
62346SOL     OW88934   3.211   2.277  14.192
62346SOL    HW188935   3.138   2.234  14.147
62346SOL    HW288936   3.281   2.278  14.127
62347SOL     OW88937   1.650   7.502   0.560
62347SOL    HW188938   1.599   7.580   0.583
62347SOL    HW288939   1.723   7.502   0.623
62348SOL     OW88940   9.126  14.248  13.993
62348SOL    HW188941   9.134  14.241  14.088
62348SOL    HW288942   9.216  14.249  13.960
62349SOL     OW88943  13.062   0.169   4.678
62349SOL    HW188944  13.058   0.132   4.590
62349SOL    HW288945  12.984   0.135   4.721
62350SOL     OW88946  12.872  13.090   9.698
62350SOL    HW188947  12.935  13.156   9.727
62350SOL    HW288948  12.789  13.138   9.692
62351SOL     OW88949  13.618   0.165   8.255
62351SOL    HW188950  13.586   0.254   8.268
62351SOL    HW288951  13.592   0.143   8.166
62352SOL     OW88952  11.488  12.037  14.626
62352SOL    HW188953  11.563  12.087  14.658
62352SOL    HW288954  11.497  11.952  14.668
62353SOL     OW88955   0.841   9.482   4.898
62353SOL    HW188956   0.821   9.514   4.986
62353SOL    HW288957   0.779   9.528   4.842
62354SOL     OW88958   0.176   1.065   8.339
62354SOL    HW188959   0.216   0.996   8.392
62354SOL    HW288960   0.246   1.129   8.327
62355SOL     OW88961  13.143  13.642   7.251
62355SOL    HW188962  13.211  13.608   7.309
62355SOL    HW288963  13.061  13.618   7.294
62356SOL     OW88964   1.506  13.399   7.703
62356SOL    HW188965   1.513  13.442   7.618
62356SOL    HW288966   1.511  13.305   7.682
62357SOL     OW88967  14.665   8.590   3.274
62357SOL    HW188968  14.725   8.622   3.343
62357SOL    HW288969  14.689   8.499   3.262
62358SOL     OW88970  11.141  13.648   9.114
62358SOL    HW188971  11.192  13.567   9.121
62358SOL    HW288972  11.070  13.627   9.054
62359SOL     OW88973   8.482  11.637   7.203
62359SOL    HW188974   8.575  11.616   7.210
62359SOL    HW288975   8.451  11.584   7.130
62360SOL     OW88976  14.029   0.877  14.745
62360SOL    HW188977  13.992   0.799  14.703
62360SOL    HW288978  14.102   0.843  14.797
62361SOL     OW88979   3.292   8.830   0.763
62361SOL    HW188980   3.245   8.909   0.786
62361SOL    HW288981   3.278   8.771   0.837
62362SOL     OW88982   5.991   7.421   5.053
62362SOL    HW188983   6.069   7.414   5.108
62362SOL    HW288984   5.923   7.453   5.112
62363SOL     OW88985   8.310  13.355   6.541
62363SOL    HW188986   8.349  13.413   6.606
62363SOL    HW288987   8.292  13.412   6.466
62364SOL     OW88988   7.564   9.971   6.847
62364SOL    HW188989   7.535   9.916   6.774
62364SOL    HW288990   7.506   9.947   6.919
62365SOL     OW88991   0.533   3.722   2.632
62365SOL    HW188992   0.610   3.759   2.675
62365SOL    HW288993   0.536   3.629   2.653
62366SOL     OW88994   5.020   9.423   8.439
62366SOL    HW188995   5.009   9.476   8.360
62366SOL    HW288996   5.027   9.333   8.407
62367SOL     OW88997  13.371  13.084  13.334
62367SOL    HW188998  13.404  13.166  13.299
62367SOL    HW288999  13.320  13.109  13.411
62368SOL     OW89000   3.744   8.310   1.242
62368SOL    HW189001   3.789   8.366   1.178
62368SOL    HW289002   3.815   8.265   1.288
62369SOL     OW89003   3.748   5.091  11.364
62369SOL    HW189004   3.747   5.185  11.346
62369SOL    HW289005   3.738   5.049  11.279
62370SOL     OW89006   6.044  11.424   0.907
62370SOL    HW189007   5.988  11.347   0.906
62370SOL    HW289008   6.128  11.393   0.874
62371SOL     OW89009   0.909   3.624   7.398
62371SOL    HW189010   0.876   3.538   7.370
62371SOL    HW289011   0.949   3.661   7.319
62372SOL     OW89012  11.438   3.021  11.590
62372SOL    HW189013  11.351   3.005  11.552
62372SOL    HW289014  11.446   2.955  11.658
62373SOL     OW89015   9.493  11.274   9.670
62373SOL    HW189016   9.576  11.317   9.690
62373SOL    HW289017   9.441  11.283   9.750
62374SOL     OW89018   8.724   5.014   8.474
62374SOL    HW189019   8.721   4.932   8.425
62374SOL    HW289020   8.817   5.029   8.492
62375SOL     OW89021  10.206  13.804   5.592
62375SOL    HW189022  10.279  13.779   5.536
62375SOL    HW289023  10.142  13.733   5.581
62376SOL     OW89024   8.763   0.087   8.410
62376SOL    HW189025   8.819   0.101   8.486
62376SOL    HW289026   8.821   0.099   8.335
62377SOL     OW89027   6.909  11.681  14.850
62377SOL    HW189028   6.819  11.648  14.837
62377SOL    HW289029   6.948  11.619   0.023
62378SOL     OW89030   8.078  12.253   7.129
62378SOL    HW189031   7.988  12.220   7.139
62378SOL    HW289032   8.103  12.228   7.040
62379SOL     OW89033   5.914   6.789   5.350
62379SOL    HW189034   5.818   6.796   5.348
62379SOL    HW289035   5.943   6.875   5.381
62380SOL     OW89036   1.657   3.251   7.056
62380SOL    HW189037   1.602   3.320   7.019
62380SOL    HW289038   1.703   3.293   7.128
62381SOL     OW89039   8.357   7.620   9.042
62381SOL    HW189040   8.343   7.613   8.948
62381SOL    HW289041   8.440   7.667   9.051
62382SOL     OW89042  14.799   7.868   3.827
62382SOL    HW189043  14.745   7.921   3.769
62382SOL    HW289044  14.737   7.811   3.872
62383SOL     OW89045   5.204  10.058   2.346
62383SOL    HW189046   5.176  10.100   2.427
62383SOL    HW289047   5.137  10.084   2.282
62384SOL     OW89048   0.390   9.706   6.232
62384SOL    HW189049   0.400   9.691   6.326
62384SOL    HW289050   0.386   9.618   6.195
62385SOL     OW89051   5.507  14.175  12.677
62385SOL    HW189052   5.452  14.152  12.602
62385SOL    HW289053   5.518  14.270  12.669
62386SOL     OW89054   3.240  14.145  11.967
62386SOL    HW189055   3.250  14.205  11.893
62386SOL    HW289056   3.323  14.096  11.969
62387SOL     OW89057  11.792   1.892   4.057
62387SOL    HW189058  11.815   1.869   3.967
62387SOL    HW289059  11.852   1.962   4.080
62388SOL     OW89060  10.513   8.763   0.277
62388SOL    HW189061  10.510   8.679   0.231
62388SOL    HW289062  10.563   8.745   0.357
62389SOL     OW89063  14.257   4.954  10.012
62389SOL    HW189064  14.256   5.016   9.939
62389SOL    HW289065  14.177   4.902   9.999
62390SOL     OW89066  14.691   2.706   2.849
62390SOL    HW189067  14.680   2.758   2.929
62390SOL    HW289068  14.602   2.676   2.829
62391SOL     OW89069  14.753   4.541  10.498
62391SOL    HW189070  14.811   4.551  10.422
62391SOL    HW289071  14.753   4.627  10.540
62392SOL     OW89072   1.776  13.897   1.335
62392SOL    HW189073   1.819  13.830   1.282
62392SOL    HW289074   1.751  13.965   1.272
62393SOL     OW89075   8.456   3.361  10.926
62393SOL    HW189076   8.413   3.341  10.843
62393SOL    HW289077   8.524   3.425  10.902
62394SOL     OW89078  12.540   7.589   7.300
62394SOL    HW189079  12.566   7.500   7.323
62394SOL    HW289080  12.621   7.640   7.307
62395SOL     OW89081  12.414   5.362   8.027
62395SOL    HW189082  12.367   5.420   8.086
62395SOL    HW289083  12.507   5.377   8.048
62396SOL     OW89084   9.457  14.355   2.871
62396SOL    HW189085   9.386  14.293   2.851
62396SOL    HW289086   9.527  14.331   2.811
62397SOL     OW89087   9.897   4.729   5.197
62397SOL    HW189088   9.853   4.783   5.263
62397SOL    HW289089   9.889   4.778   5.116
62398SOL     OW89090   0.958  10.039   1.945
62398SOL    HW189091   0.923   9.960   1.905
62398SOL    HW289092   0.939  10.029   2.038
62399SOL     OW89093  11.585   2.769   1.106
62399SOL    HW189094  11.624   2.829   1.043
62399SOL    HW289095  11.614   2.682   1.077
62400SOL     OW89096   3.434  14.450  11.939
62400SOL    HW189097   3.465  14.437  12.029
62400SOL    HW289098   3.462  14.539  11.918
62401SOL     OW89099   7.420   7.374   8.166
62401SOL    HW189100   7.343   7.388   8.111
62401SOL    HW289101   7.489   7.351   8.104
62402SOL     OW89102   7.896  12.326  12.592
62402SOL    HW189103   7.979  12.344  12.636
62402SOL    HW289104   7.888  12.397  12.528
62403SOL     OW89105   7.743  12.341  10.951
62403SOL    HW189106   7.688  12.416  10.927
62403SOL    HW289107   7.754  12.293  10.869
62404SOL     OW89108  12.572  10.921   3.569
62404SOL    HW189109  12.539  10.911   3.658
62404SOL    HW289110  12.493  10.920   3.515
62405SOL     OW89111   7.744   1.236   9.001
62405SOL    HW189112   7.705   1.231   9.088
62405SOL    HW289113   7.772   1.146   8.983
62406SOL     OW89114  12.792  12.149  12.353
62406SOL    HW189115  12.722  12.137  12.289
62406SOL    HW289116  12.834  12.063  12.358
62407SOL     OW89117  14.007   3.618  12.413
62407SOL    HW189118  13.912   3.635  12.411
62407SOL    HW289119  14.025   3.599  12.505
62408SOL     OW89120   9.258   4.163   6.891
62408SOL    HW189121   9.234   4.233   6.952
62408SOL    HW289122   9.333   4.198   6.842
62409SOL     OW89123   1.194   5.960   1.845
62409SOL    HW189124   1.227   5.908   1.918
62409SOL    HW289125   1.106   5.986   1.871
62410SOL     OW89126   9.220  14.820   1.061
62410SOL    HW189127   9.134  14.844   1.027
62410SOL    HW289128   9.202  14.778   1.145
62411SOL     OW89129   5.915   0.984  10.281
62411SOL    HW189130   5.992   0.929  10.266
62411SOL    HW289131   5.843   0.922  10.288
62412SOL     OW89132   0.365   2.905  13.786
62412SOL    HW189133   0.384   2.980  13.729
62412SOL    HW289134   0.392   2.828  13.736
62413SOL     OW89135   4.183  11.821   3.623
62413SOL    HW189136   4.100  11.859   3.649
62413SOL    HW289137   4.244  11.895   3.620
62414SOL     OW89138   2.893   4.198   6.402
62414SOL    HW189139   2.977   4.153   6.396
62414SOL    HW289140   2.844   4.168   6.325
62415SOL     OW89141   8.021   5.990   6.758
62415SOL    HW189142   7.933   5.956   6.740
62415SOL    HW289143   8.023   6.003   6.852
62416SOL     OW89144   0.259  14.237   0.200
62416SOL    HW189145   0.333  14.254   0.140
62416SOL    HW289146   0.284  14.157   0.246
62417SOL     OW89147  11.325  12.526   4.052
62417SOL    HW189148  11.315  12.599   3.992
62417SOL    HW289149  11.259  12.463   4.024
62418SOL     OW89150  12.881   5.638  12.135
62418SOL    HW189151  12.828   5.709  12.171
62418SOL    HW289152  12.818   5.583  12.087
62419SOL     OW89153   8.840  13.412  13.535
62419SOL    HW189154   8.862  13.465  13.459
62419SOL    HW289155   8.827  13.476  13.605
62420SOL     OW89156  13.912   2.110   3.048
62420SOL    HW189157  13.921   2.050   2.975
62420SOL    HW289158  13.974   2.180   3.029
62421SOL     OW89159   1.596  10.717   0.754
62421SOL    HW189160   1.610  10.628   0.722
62421SOL    HW289161   1.501  10.724   0.762
62422SOL     OW89162   7.909   7.829  12.160
62422SOL    HW189163   7.860   7.758  12.120
62422SOL    HW289164   7.915   7.896  12.091
62423SOL     OW89165  10.865   3.463  14.697
62423SOL    HW189166  10.925   3.465  14.772
62423SOL    HW289167  10.896   3.533  14.640
62424SOL     OW89168  14.510   3.041   7.040
62424SOL    HW189169  14.419   3.016   7.055
62424SOL    HW289170  14.560   2.961   7.056
62425SOL     OW89171  10.173   5.014   3.419
62425SOL    HW189172  10.077   5.017   3.424
62425SOL    HW289173  10.198   4.934   3.464
62426SOL     OW89174  13.908   0.260  14.845
62426SOL    HW189175  13.916   0.181   0.011
62426SOL    HW289176  13.839   0.311  14.887
62427SOL     OW89177   1.051   5.076   7.007
62427SOL    HW189178   0.973   5.130   7.016
62427SOL    HW289179   1.045   5.013   7.079
62428SOL     OW89180   4.778   5.860   5.814
62428SOL    HW189181   4.757   5.930   5.752
62428SOL    HW289182   4.702   5.803   5.813
62429SOL     OW89183   0.231   5.950   3.209
62429SOL    HW189184   0.272   5.921   3.128
62429SOL    HW289185   0.257   6.042   3.217
62430SOL     OW89186  11.286   8.551   1.113
62430SOL    HW189187  11.375   8.536   1.082
62430SOL    HW289188  11.283   8.645   1.132
62431SOL     OW89189  14.520   9.429   8.349
62431SOL    HW189190  14.533   9.523   8.349
62431SOL    HW289191  14.608   9.392   8.346
62432SOL     OW89192   0.259  14.400   1.042
62432SOL    HW189193   0.248  14.317   0.996
62432SOL    HW289194   0.229  14.467   0.980
62433SOL     OW89195   8.720  14.045   2.050
62433SOL    HW189196   8.791  14.035   1.986
62433SOL    HW289197   8.660  14.108   2.011
62434SOL     OW89198   1.248   5.216   8.751
62434SOL    HW189199   1.177   5.248   8.807
62434SOL    HW289200   1.326   5.216   8.807
62435SOL     OW89201   7.259   4.081  14.572
62435SOL    HW189202   7.285   4.143  14.504
62435SOL    HW289203   7.178   4.119  14.608
62436SOL     OW89204   5.713   6.645   9.297
62436SOL    HW189205   5.792   6.698   9.304
62436SOL    HW289206   5.741   6.566   9.250
62437SOL     OW89207   9.920  12.141   3.830
62437SOL    HW189208   9.878  12.127   3.745
62437SOL    HW289209   9.881  12.075   3.887
62438SOL     OW89210   9.049  14.877   0.533
62438SOL    HW189211   9.099  14.886   0.452
62438SOL    HW289212   9.098   0.043   0.596
62439SOL     OW89213   5.188   2.323   2.869
62439SOL    HW189214   5.220   2.245   2.914
62439SOL    HW289215   5.201   2.303   2.776
62440SOL     OW89216   4.177  11.938   8.909
62440SOL    HW189217   4.090  11.900   8.900
62440SOL    HW289218   4.170  11.999   8.983
62441SOL     OW89219   4.131   6.215   8.602
62441SOL    HW189220   4.118   6.172   8.687
62441SOL    HW289221   4.086   6.299   8.611
62442SOL     OW89222   5.255   2.146  11.998
62442SOL    HW189223   5.267   2.095  11.917
62442SOL    HW289224   5.329   2.119  12.053
62443SOL     OW89225   7.601   3.842  13.156
62443SOL    HW189226   7.656   3.878  13.225
62443SOL    HW289227   7.544   3.915  13.130
62444SOL     OW89228   2.985  11.875  10.289
62444SOL    HW189229   2.928  11.913  10.223
62444SOL    HW289230   3.010  11.948  10.345
62445SOL     OW89231   5.911   1.820  11.174
62445SOL    HW189232   5.889   1.781  11.259
62445SOL    HW289233   5.952   1.749  11.125
62446SOL     OW89234   6.949   2.940  12.289
62446SOL    HW189235   6.864   2.913  12.323
62446SOL    HW289236   6.950   2.907  12.199
62447SOL     OW89237   8.324  12.432   3.928
62447SOL    HW189238   8.302  12.425   4.021
62447SOL    HW289239   8.415  12.464   3.928
62448SOL     OW89240   4.192   3.947  11.827
62448SOL    HW189241   4.105   3.908  11.832
62448SOL    HW289242   4.220   3.933  11.736
62449SOL     OW89243   2.858  12.721   8.186
62449SOL    HW189244   2.905  12.787   8.236
62449SOL    HW289245   2.772  12.760   8.169
62450SOL     OW89246  11.685   3.494  12.519
62450SOL    HW189247  11.623   3.485  12.447
62450SOL    HW289248  11.636   3.464  12.596
62451SOL     OW89249  11.995   6.624  10.592
62451SOL    HW189250  11.966   6.710  10.563
62451SOL    HW289251  11.916   6.583  10.627
62452SOL     OW89252   8.978   8.680  12.795
62452SOL    HW189253   8.951   8.742  12.727
62452SOL    HW289254   9.060   8.716  12.829
62453SOL     OW89255   0.055   0.533   1.827
62453SOL    HW189256   0.081   0.442   1.810
62453SOL    HW289257   0.128   0.570   1.877
62454SOL     OW89258   6.036   4.213   8.138
62454SOL    HW189259   5.982   4.205   8.059
62454SOL    HW289260   6.108   4.270   8.113
62455SOL     OW89261   4.777   2.306   3.858
62455SOL    HW189262   4.683   2.295   3.870
62455SOL    HW289263   4.801   2.241   3.792
62456SOL     OW89264   8.190   0.756  10.396
62456SOL    HW189265   8.201   0.785  10.305
62456SOL    HW289266   8.096   0.746  10.407
62457SOL     OW89267   7.731   0.853   3.685
62457SOL    HW189268   7.755   0.892   3.769
62457SOL    HW289269   7.813   0.816   3.651
62458SOL     OW89270   1.251   4.126   8.212
62458SOL    HW189271   1.182   4.099   8.273
62458SOL    HW289272   1.205   4.141   8.129
62459SOL     OW89273  12.604   0.320   5.374
62459SOL    HW189274  12.663   0.249   5.346
62459SOL    HW289275  12.636   0.343   5.461
62460SOL     OW89276  11.792  13.433  12.093
62460SOL    HW189277  11.858  13.501  12.077
62460SOL    HW289278  11.711  13.471  12.060
62461SOL     OW89279   0.393   5.463  13.523
62461SOL    HW189280   0.466   5.513  13.559
62461SOL    HW289281   0.430   5.378  13.500
62462SOL     OW89282   7.309  10.891   9.232
62462SOL    HW189283   7.226  10.861   9.194
62462SOL    HW289284   7.369  10.819   9.218
62463SOL     OW89285  11.366   3.468   2.585
62463SOL    HW189286  11.377   3.451   2.491
62463SOL    HW289287  11.454   3.457   2.622
62464SOL     OW89288   2.138  14.435   8.076
62464SOL    HW189289   2.164  14.373   8.008
62464SOL    HW289290   2.079  14.385   8.132
62465SOL     OW89291   9.310   0.620   7.725
62465SOL    HW189292   9.333   0.527   7.734
62465SOL    HW289293   9.221   0.618   7.690
62466SOL     OW89294   0.918   9.855   5.381
62466SOL    HW189295   0.993   9.822   5.332
62466SOL    HW289296   0.956   9.896   5.458
62467SOL     OW89297   5.810   3.850   8.094
62467SOL    HW189298   5.743   3.908   8.130
62467SOL    HW289299   5.870   3.836   8.167
62468SOL     OW89300   7.261   9.887   3.073
62468SOL    HW189301   7.214   9.838   3.140
62468SOL    HW289302   7.193   9.918   3.013
62469SOL     OW89303  12.479   8.841   5.744
62469SOL    HW189304  12.420   8.886   5.683
62469SOL    HW289305  12.460   8.879   5.829
62470SOL     OW89306   4.857  11.995  11.221
62470SOL    HW189307   4.918  12.068  11.226
62470SOL    HW289308   4.840  11.984  11.127
62471SOL     OW89309  11.596  12.285   5.153
62471SOL    HW189310  11.673  12.232   5.133
62471SOL    HW289311  11.630  12.369   5.181
62472SOL     OW89312   4.432  12.744   5.354
62472SOL    HW189313   4.510  12.734   5.409
62472SOL    HW289314   4.432  12.836   5.329
62473SOL     OW89315   0.487   6.144   4.327
62473SOL    HW189316   0.549   6.216   4.338
62473SOL    HW289317   0.415   6.165   4.386
62474SOL     OW89318   6.393  11.147  13.500
62474SOL    HW189319   6.360  11.178  13.584
62474SOL    HW289320   6.474  11.102  13.522
62475SOL     OW89321   1.398   9.882  10.763
62475SOL    HW189322   1.415   9.806  10.819
62475SOL    HW289323   1.341   9.848  10.693
62476SOL     OW89324   0.403   5.807   8.380
62476SOL    HW189325   0.346   5.776   8.451
62476SOL    HW289326   0.451   5.880   8.420
62477SOL     OW89327   5.314   8.280  12.130
62477SOL    HW189328   5.246   8.303  12.194
62477SOL    HW289329   5.267   8.235  12.060
62478SOL     OW89330   9.958  10.796   1.762
62478SOL    HW189331   9.964  10.705   1.733
62478SOL    HW289332   9.973  10.791   1.857
62479SOL     OW89333   9.422   5.177  13.748
62479SOL    HW189334   9.456   5.242  13.809
62479SOL    HW289335   9.367   5.120  13.802
62480SOL     OW89336   6.366   1.977   6.859
62480SOL    HW189337   6.425   1.985   6.934
62480SOL    HW289338   6.422   1.948   6.788
62481SOL     OW89339   3.697  10.928   5.548
62481SOL    HW189340   3.694  10.864   5.620
62481SOL    HW289341   3.761  10.893   5.487
62482SOL     OW89342   5.472  11.743   5.813
62482SOL    HW189343   5.508  11.812   5.868
62482SOL    HW289344   5.530  11.740   5.736
62483SOL     OW89345  13.211   1.982   1.651
62483SOL    HW189346  13.300   2.007   1.625
62483SOL    HW289347  13.164   1.971   1.568
62484SOL     OW89348   3.355   3.693  13.035
62484SOL    HW189349   3.305   3.613  13.051
62484SOL    HW289350   3.325   3.723  12.949
62485SOL     OW89351  12.274  10.044  11.081
62485SOL    HW189352  12.328  10.075  11.008
62485SOL    HW289353  12.208   9.988  11.040
62486SOL     OW89354   5.429   1.785  14.686
62486SOL    HW189355   5.477   1.739  14.755
62486SOL    HW289356   5.378   1.851  14.733
62487SOL     OW89357   6.261   7.479   6.779
62487SOL    HW189358   6.273   7.504   6.871
62487SOL    HW289359   6.334   7.521   6.733
62488SOL     OW89360   6.006  11.979  12.087
62488SOL    HW189361   5.997  12.054  12.028
62488SOL    HW289362   6.027  11.906  12.029
62489SOL     OW89363   8.345   3.560  13.818
62489SOL    HW189364   8.382   3.471  13.814
62489SOL    HW289365   8.388   3.607  13.746
62490SOL     OW89366   4.555   9.810   2.662
62490SOL    HW189367   4.572   9.828   2.754
62490SOL    HW289368   4.496   9.734   2.663
62491SOL     OW89369  13.211   5.232   5.939
62491SOL    HW189370  13.260   5.208   6.018
62491SOL    HW289371  13.120   5.215   5.960
62492SOL     OW89372  13.287   1.254   6.453
62492SOL    HW189373  13.268   1.332   6.400
62492SOL    HW289374  13.378   1.233   6.431
62493SOL     OW89375  12.115   8.980  13.750
62493SOL    HW189376  12.180   8.950  13.815
62493SOL    HW289377  12.087   8.899  13.706
62494SOL     OW89378  13.379   2.665   8.532
62494SOL    HW189379  13.451   2.664   8.595
62494SOL    HW289380  13.383   2.752   8.492
62495SOL     OW89381   5.364  14.084   5.762
62495SOL    HW189382   5.323  14.114   5.680
62495SOL    HW289383   5.456  14.069   5.738
62496SOL     OW89384  12.520  12.574   9.135
62496SOL    HW189385  12.589  12.515   9.166
62496SOL    HW289386  12.439  12.537   9.171
62497SOL     OW89387  12.334   6.257   5.330
62497SOL    HW189388  12.276   6.191   5.291
62497SOL    HW289389  12.421   6.216   5.330
62498SOL     OW89390  13.307   2.057   2.563
62498SOL    HW189391  13.368   2.131   2.560
62498SOL    HW289392  13.230   2.090   2.609
62499SOL     OW89393  11.353  12.918   5.833
62499SOL    HW189394  11.423  12.854   5.818
62499SOL    HW289395  11.374  12.957   5.918
62500SOL     OW89396   7.071   6.775  13.042
62500SOL    HW189397   7.155   6.804  13.007
62500SOL    HW289398   7.094   6.715  13.113
62501SOL     OW89399  11.156  12.860  10.104
62501SOL    HW189400  11.244  12.841  10.136
62501SOL    HW289401  11.154  12.821  10.016
62502SOL     OW89402   3.252  11.386   9.606
62502SOL    HW189403   3.300  11.304   9.595
62502SOL    HW289404   3.310  11.441   9.658
62503SOL     OW89405   9.738  11.396  12.901
62503SOL    HW189406   9.662  11.338  12.893
62503SOL    HW289407   9.706  11.481  12.870
62504SOL     OW89408   9.425   5.890   3.854
62504SOL    HW189409   9.384   5.901   3.940
62504SOL    HW289410   9.404   5.970   3.807
62505SOL     OW89411  13.111  11.577   3.231
62505SOL    HW189412  13.189  11.549   3.278
62505SOL    HW289413  13.051  11.606   3.300
62506SOL     OW89414  14.431   7.264   1.172
62506SOL    HW189415  14.456   7.190   1.227
62506SOL    HW289416  14.509   7.319   1.170
62507SOL     OW89417  12.544   6.296   9.313
62507SOL    HW189418  12.516   6.224   9.369
62507SOL    HW289419  12.466   6.352   9.305
62508SOL     OW89420   6.804   3.953   6.987
62508SOL    HW189421   6.888   3.927   7.027
62508SOL    HW289422   6.756   3.871   6.978
62509SOL     OW89423   7.672   4.804   7.352
62509SOL    HW189424   7.663   4.755   7.270
62509SOL    HW289425   7.607   4.874   7.345
62510SOL     OW89426   3.281   1.338   4.912
62510SOL    HW189427   3.208   1.301   4.962
62510SOL    HW289428   3.352   1.275   4.923
62511SOL     OW89429   2.640  10.130   8.241
62511SOL    HW189430   2.689  10.136   8.323
62511SOL    HW289431   2.706  10.122   8.173
62512SOL     OW89432  10.447   3.448   3.008
62512SOL    HW189433  10.506   3.495   3.066
62512SOL    HW289434  10.373   3.508   2.995
62513SOL     OW89435   5.156  13.221   4.284
62513SOL    HW189436   5.242  13.223   4.243
62513SOL    HW289437   5.102  13.277   4.228
62514SOL     OW89438   4.052   1.730  14.741
62514SOL    HW189439   3.981   1.668  14.723
62514SOL    HW289440   4.132   1.678  14.730
62515SOL     OW89441  10.688  10.437   3.559
62515SOL    HW189442  10.744  10.500   3.513
62515SOL    HW289443  10.600  10.455   3.527
62516SOL     OW89444  11.948   0.572  10.349
62516SOL    HW189445  11.871   0.612  10.390
62516SOL    HW289446  11.997   0.646  10.314
62517SOL     OW89447   1.106   2.029   6.038
62517SOL    HW189448   1.046   1.961   6.008
62517SOL    HW289449   1.133   2.074   5.958
62518SOL     OW89450  12.159   9.378   6.406
62518SOL    HW189451  12.207   9.448   6.362
62518SOL    HW289452  12.080   9.367   6.354
62519SOL     OW89453   7.418   9.060  14.575
62519SOL    HW189454   7.440   9.129  14.513
62519SOL    HW289455   7.323   9.049  14.565
62520SOL     OW89456  10.437   5.052   7.227
62520SOL    HW189457  10.391   5.041   7.144
62520SOL    HW289458  10.494   4.976   7.234
62521SOL     OW89459   9.486   1.418   3.042
62521SOL    HW189460   9.458   1.491   3.097
62521SOL    HW289461   9.530   1.460   2.968
62522SOL     OW89462   7.390  12.563   1.294
62522SOL    HW189463   7.425  12.486   1.251
62522SOL    HW289464   7.360  12.620   1.222
62523SOL     OW89465   6.693   4.606   2.320
62523SOL    HW189466   6.685   4.556   2.239
62523SOL    HW289467   6.628   4.676   2.312
62524SOL     OW89468   0.115   1.529   9.893
62524SOL    HW189469   0.113   1.566   9.805
62524SOL    HW289470   0.163   1.594   9.945
62525SOL     OW89471   8.234   5.396  11.584
62525SOL    HW189472   8.224   5.375  11.491
62525SOL    HW289473   8.301   5.334  11.615
62526SOL     OW89474  11.139  13.230  13.219
62526SOL    HW189475  11.076  13.160  13.202
62526SOL    HW289476  11.216  13.185  13.254
62527SOL     OW89477   5.814   4.180  14.816
62527SOL    HW189478   5.819   4.269  14.852
62527SOL    HW289479   5.860   4.186  14.732
62528SOL     OW89480   7.120   2.150   2.442
62528SOL    HW189481   7.078   2.232   2.466
62528SOL    HW289482   7.201   2.176   2.399
62529SOL     OW89483  11.152  11.419   5.337
62529SOL    HW189484  11.170  11.365   5.260
62529SOL    HW289485  11.146  11.357   5.409
62530SOL     OW89486   9.332   3.331   5.772
62530SOL    HW189487   9.320   3.386   5.850
62530SOL    HW289488   9.398   3.377   5.720
62531SOL     OW89489   3.900   1.872   3.170
62531SOL    HW189490   3.941   1.908   3.092
62531SOL    HW289491   3.912   1.940   3.237
62532SOL     OW89492   0.501  10.003   2.290
62532SOL    HW189493   0.480   9.923   2.242
62532SOL    HW289494   0.444  10.070   2.251
62533SOL     OW89495   1.161   0.501   3.360
62533SOL    HW189496   1.085   0.448   3.384
62533SOL    HW289497   1.235   0.441   3.363
62534SOL     OW89498   9.182  13.771   5.918
62534SOL    HW189499   9.117  13.834   5.887
62534SOL    HW289500   9.259  13.824   5.939
62535SOL     OW89501   6.538  10.124  13.191
62535SOL    HW189502   6.510  10.213  13.168
62535SOL    HW289503   6.510  10.070  13.118
62536SOL     OW89504   5.115   0.189   3.260
62536SOL    HW189505   5.160   0.266   3.225
62536SOL    HW289506   5.146   0.182   3.350
62537SOL     OW89507  13.783  11.030  13.075
62537SOL    HW189508  13.705  10.991  13.034
62537SOL    HW289509  13.824  11.080  13.005
62538SOL     OW89510   4.780   0.568   3.444
62538SOL    HW189511   4.785   0.474   3.428
62538SOL    HW289512   4.694   0.593   3.410
62539SOL     OW89513   9.901   7.605  12.094
62539SOL    HW189514   9.933   7.574  12.179
62539SOL    HW289515   9.978   7.606  12.038
62540SOL     OW89516   3.410   9.382  11.045
62540SOL    HW189517   3.368   9.446  10.987
62540SOL    HW289518   3.339   9.326  11.076
62541SOL     OW89519   2.374   0.684   5.243
62541SOL    HW189520   2.416   0.637   5.315
62541SOL    HW289521   2.312   0.743   5.287
62542SOL     OW89522   0.437   8.263   0.478
62542SOL    HW189523   0.402   8.349   0.501
62542SOL    HW289524   0.364   8.216   0.438
62543SOL     OW89525   9.929   8.193  11.856
62543SOL    HW189526   9.992   8.136  11.900
62543SOL    HW289527   9.930   8.164  11.765
62544SOL     OW89528   9.981   5.575  14.408
62544SOL    HW189529  10.006   5.623  14.329
62544SOL    HW289530  10.031   5.616  14.479
62545SOL     OW89531  12.980  14.509  10.929
62545SOL    HW189532  13.034  14.515  10.850
62545SOL    HW289533  12.891  14.498  10.896
62546SOL     OW89534   3.788   4.655   1.860
62546SOL    HW189535   3.762   4.734   1.907
62546SOL    HW289536   3.708   4.602   1.856
62547SOL     OW89537   8.822   8.667  12.445
62547SOL    HW189538   8.885   8.607  12.405
62547SOL    HW289539   8.799   8.625  12.528
62548SOL     OW89540   4.280   0.164  13.848
62548SOL    HW189541   4.209   0.119  13.894
62548SOL    HW289542   4.245   0.251  13.830
62549SOL     OW89543   6.835   3.423   7.993
62549SOL    HW189544   6.749   3.382   7.985
62549SOL    HW289545   6.815   3.516   8.008
62550SOL     OW89546   1.956  10.009  13.923
62550SOL    HW189547   2.023  10.045  13.865
62550SOL    HW289548   2.005   9.973  13.997
62551SOL     OW89549   6.293   0.972   5.018
62551SOL    HW189550   6.222   0.989   4.956
62551SOL    HW289551   6.352   0.912   4.971
62552SOL     OW89552   2.830   9.168   2.314
62552SOL    HW189553   2.870   9.228   2.252
62552SOL    HW289554   2.892   9.094   2.319
62553SOL     OW89555  13.770   8.018  13.011
62553SOL    HW189556  13.842   7.959  12.990
62553SOL    HW289557  13.691   7.966  12.996
62554SOL     OW89558   6.537   2.480   1.475
62554SOL    HW189559   6.607   2.430   1.518
62554SOL    HW289560   6.576   2.509   1.393
62555SOL     OW89561  10.738   7.880  14.030
62555SOL    HW189562  10.827   7.851  14.051
62555SOL    HW289563  10.716   7.940  14.101
62556SOL     OW89564   7.008   1.581  14.201
62556SOL    HW189565   7.005   1.611  14.110
62556SOL    HW289566   7.074   1.637  14.243
62557SOL     OW89567   8.438   8.241   5.598
62557SOL    HW189568   8.353   8.219   5.637
62557SOL    HW289569   8.462   8.324   5.639
62558SOL     OW89570   4.379  12.975   6.861
62558SOL    HW189571   4.451  12.937   6.911
62558SOL    HW289572   4.376  12.924   6.780
62559SOL     OW89573   0.853  10.749   5.321
62559SOL    HW189574   0.850  10.711   5.408
62559SOL    HW289575   0.864  10.843   5.336
62560SOL     OW89576  13.818   3.968  13.342
62560SOL    HW189577  13.818   3.880  13.380
62560SOL    HW289578  13.728   3.999  13.354
62561SOL     OW89579   8.303   5.004   9.238
62561SOL    HW189580   8.288   5.063   9.164
62561SOL    HW289581   8.240   5.033   9.304
62562SOL     OW89582  12.217   2.325   8.702
62562SOL    HW189583  12.188   2.289   8.618
62562SOL    HW289584  12.146   2.304   8.763
62563SOL     OW89585   5.151  13.871   7.485
62563SOL    HW189586   5.188  13.792   7.446
62563SOL    HW289587   5.118  13.843   7.570
62564SOL     OW89588   0.797   8.194   1.631
62564SOL    HW189589   0.715   8.152   1.657
62564SOL    HW289590   0.858   8.121   1.617
62565SOL     OW89591   9.184   7.758  14.765
62565SOL    HW189592   9.108   7.703  14.745
62565SOL    HW289593   9.240   7.751  14.688
62566SOL     OW89594   9.213   1.344  11.241
62566SOL    HW189595   9.239   1.417  11.184
62566SOL    HW289596   9.247   1.368  11.327
62567SOL     OW89597  11.563  13.570   1.956
62567SOL    HW189598  11.471  13.595   1.952
62567SOL    HW289599  11.566  13.483   1.917
62568SOL     OW89600   6.120   8.465  13.607
62568SOL    HW189601   6.063   8.513  13.547
62568SOL    HW289602   6.104   8.373  13.586
62569SOL     OW89603   9.071  12.053   2.936
62569SOL    HW189604   9.098  12.105   3.012
62569SOL    HW289605   8.977  12.072   2.928
62570SOL     OW89606   9.671   7.396   2.037
62570SOL    HW189607   9.764   7.391   2.060
62570SOL    HW289608   9.651   7.310   2.000
62571SOL     OW89609  13.575   4.286   9.509
62571SOL    HW189610  13.601   4.237   9.432
62571SOL    HW289611  13.606   4.233   9.583
62572SOL     OW89612   2.594   9.219  13.932
62572SOL    HW189613   2.517   9.271  13.909
62572SOL    HW289614   2.596   9.220  14.028
62573SOL     OW89615   7.532  12.776   9.232
62573SOL    HW189616   7.466  12.768   9.163
62573SOL    HW289617   7.593  12.842   9.199
62574SOL     OW89618   3.199  13.414  14.370
62574SOL    HW189619   3.135  13.442  14.435
62574SOL    HW289620   3.148  13.401  14.290
62575SOL     OW89621   0.841  11.767  12.600
62575SOL    HW189622   0.910  11.824  12.567
62575SOL    HW289623   0.766  11.783  12.543
62576SOL     OW89624   1.259  12.920  10.606
62576SOL    HW189625   1.244  13.004  10.562
62576SOL    HW289626   1.342  12.932  10.652
62577SOL     OW89627   1.444   9.362  14.393
62577SOL    HW189628   1.515   9.298  14.386
62577SOL    HW289629   1.484   9.436  14.438
62578SOL     OW89630   2.116   3.033  11.964
62578SOL    HW189631   2.106   3.124  11.990
62578SOL    HW289632   2.036   3.013  11.915
62579SOL     OW89633  10.221   0.800   3.428
62579SOL    HW189634  10.254   0.817   3.517
62579SOL    HW289635  10.166   0.876   3.409
62580SOL     OW89636   6.747  12.327  12.997
62580SOL    HW189637   6.745  12.408  13.047
62580SOL    HW289638   6.656  12.296  12.997
62581SOL     OW89639   7.098   3.142   0.641
62581SOL    HW189640   7.054   3.169   0.560
62581SOL    HW289641   7.132   3.055   0.622
62582SOL     OW89642   3.533   7.529   7.326
62582SOL    HW189643   3.537   7.433   7.334
62582SOL    HW289644   3.602   7.550   7.264
62583SOL     OW89645   5.482  11.239  12.346
62583SOL    HW189646   5.419  11.241  12.273
62583SOL    HW289647   5.536  11.316  12.333
62584SOL     OW89648   7.396   9.815   2.018
62584SOL    HW189649   7.404   9.784   2.108
62584SOL    HW289650   7.348   9.897   2.025
62585SOL     OW89651  14.580   0.175   2.084
62585SOL    HW189652  14.676   0.179   2.091
62585SOL    HW289653  14.553   0.265   2.071
62586SOL     OW89654  13.055   0.227   6.911
62586SOL    HW189655  13.100   0.306   6.943
62586SOL    HW289656  12.965   0.257   6.895
62587SOL     OW89657   5.434  10.314   8.237
62587SOL    HW189658   5.409  10.233   8.282
62587SOL    HW289659   5.438  10.290   8.144
62588SOL     OW89660   1.477  11.219  14.588
62588SOL    HW189661   1.446  11.298  14.632
62588SOL    HW289662   1.399  11.181  14.548
62589SOL     OW89663   4.736   0.191   4.803
62589SOL    HW189664   4.784   0.118   4.765
62589SOL    HW289665   4.803   0.249   4.837
62590SOL     OW89666   8.598   5.700   8.821
62590SOL    HW189667   8.566   5.660   8.740
62590SOL    HW289668   8.524   5.754   8.851
62591SOL     OW89669   1.119   1.365   2.535
62591SOL    HW189670   1.071   1.371   2.617
62591SOL    HW289671   1.055   1.388   2.468
62592SOL     OW89672   7.389   1.290   5.767
62592SOL    HW189673   7.326   1.356   5.738
62592SOL    HW289674   7.474   1.326   5.741
62593SOL     OW89675  12.458  12.175   3.577
62593SOL    HW189676  12.507  12.132   3.647
62593SOL    HW289677  12.414  12.104   3.531
62594SOL     OW89678   5.017   4.230   7.085
62594SOL    HW189679   5.067   4.172   7.143
62594SOL    HW289680   5.082   4.291   7.051
62595SOL     OW89681  14.824  10.235  10.117
62595SOL    HW189682  14.837  10.141  10.111
62595SOL    HW289683   0.015  10.273  10.078
62596SOL     OW89684   9.531   3.483  11.007
62596SOL    HW189685   9.588   3.470  11.084
62596SOL    HW289686   9.585   3.456  10.933
62597SOL     OW89687   4.583   6.922   3.841
62597SOL    HW189688   4.628   6.859   3.896
62597SOL    HW289689   4.622   7.006   3.864
62598SOL     OW89690   5.237   9.359   6.481
62598SOL    HW189691   5.165   9.296   6.472
62598SOL    HW289692   5.192   9.444   6.488
62599SOL     OW89693   1.251   9.981   8.911
62599SOL    HW189694   1.216   9.923   8.978
62599SOL    HW289695   1.329   9.936   8.878
62600SOL     OW89696   0.152  12.963   3.424
62600SOL    HW189697   0.246  12.973   3.435
62600SOL    HW289698   0.120  12.940   3.512
62601SOL     OW89699  11.243   2.883   2.556
62601SOL    HW189700  11.289   2.800   2.566
62601SOL    HW289701  11.292   2.945   2.610
62602SOL     OW89702   6.209  14.285   6.986
62602SOL    HW189703   6.114  14.299   6.986
62602SOL    HW289704   6.233  14.281   6.894
62603SOL     OW89705   0.510   2.815  10.204
62603SOL    HW189706   0.470   2.843  10.122
62603SOL    HW289707   0.590   2.867  10.212
62604SOL     OW89708   8.630  13.219   6.961
62604SOL    HW189709   8.688  13.191   7.032
62604SOL    HW289710   8.542  13.195   6.991
62605SOL     OW89711   8.122  13.996   0.833
62605SOL    HW189712   8.187  14.060   0.860
62605SOL    HW289713   8.151  13.914   0.873
62606SOL     OW89714  10.093   1.375   0.183
62606SOL    HW189715  10.116   1.283   0.189
62606SOL    HW289716  10.122   1.413   0.266
62607SOL     OW89717  12.808   5.376   2.038
62607SOL    HW189718  12.810   5.330   2.122
62607SOL    HW289719  12.838   5.465   2.058
62608SOL     OW89720   7.611   5.335   2.664
62608SOL    HW189721   7.582   5.244   2.670
62608SOL    HW289722   7.537   5.380   2.623
62609SOL     OW89723   4.881   0.969   7.149
62609SOL    HW189724   4.903   1.052   7.190
62609SOL    HW289725   4.845   0.915   7.220
62610SOL     OW89726  12.172  10.082   1.025
62610SOL    HW189727  12.266  10.096   1.038
62610SOL    HW289728  12.146  10.150   0.963
62611SOL     OW89729  12.996  10.092   6.777
62611SOL    HW189730  12.950  10.107   6.860
62611SOL    HW289731  12.981  10.000   6.758
62612SOL     OW89732  11.683   9.174  12.379
62612SOL    HW189733  11.631   9.117  12.321
62612SOL    HW289734  11.726   9.113  12.439
62613SOL     OW89735   4.639   2.267   7.577
62613SOL    HW189736   4.606   2.268   7.488
62613SOL    HW289737   4.609   2.183   7.613
62614SOL     OW89738   7.644   6.541  10.876
62614SOL    HW189739   7.557   6.528  10.839
62614SOL    HW289740   7.631   6.602  10.948
62615SOL     OW89741   5.257   6.484  11.465
62615SOL    HW189742   5.317   6.450  11.532
62615SOL    HW289743   5.250   6.413  11.401
62616SOL     OW89744  10.108  13.592   3.161
62616SOL    HW189745  10.159  13.605   3.241
62616SOL    HW289746  10.071  13.505   3.169
62617SOL     OW89747   5.980  12.329  13.535
62617SOL    HW189748   6.026  12.250  13.505
62617SOL    HW289749   6.000  12.335  13.628
62618SOL     OW89750   3.911   2.702  13.749
62618SOL    HW189751   3.935   2.779  13.697
62618SOL    HW289752   3.816   2.695  13.738
62619SOL     OW89753   6.793   5.456   0.608
62619SOL    HW189754   6.806   5.444   0.702
62619SOL    HW289755   6.876   5.494   0.577
62620SOL     OW89756   7.543   6.932  11.509
62620SOL    HW189757   7.574   6.887  11.587
62620SOL    HW289758   7.451   6.905  11.501
62621SOL     OW89759   6.726   4.771   0.874
62621SOL    HW189760   6.707   4.678   0.878
62621SOL    HW289761   6.803   4.782   0.930
62622SOL     OW89762   6.514   9.931   9.441
62622SOL    HW189763   6.568   9.959   9.366
62622SOL    HW289764   6.429   9.911   9.402
62623SOL     OW89765  13.849  13.502   4.129
62623SOL    HW189766  13.944  13.511   4.124
62623SOL    HW289767  13.835  13.417   4.170
62624SOL     OW89768   4.044  10.412   5.106
62624SOL    HW189769   4.045  10.504   5.133
62624SOL    HW289770   3.951  10.389   5.101
62625SOL     OW89771   1.897   6.569  14.865
62625SOL    HW189772   1.888   6.479  14.834
62625SOL    HW289773   1.908   6.561   0.073
62626SOL     OW89774   1.050  10.683   7.285
62626SOL    HW189775   1.119  10.622   7.309
62626SOL    HW289776   1.058  10.755   7.348
62627SOL     OW89777  11.061  13.097   7.524
62627SOL    HW189778  11.084  13.094   7.431
62627SOL    HW289779  11.068  13.006   7.554
62628SOL     OW89780  12.660  10.098   3.906
62628SOL    HW189781  12.602  10.150   3.963
62628SOL    HW289782  12.729  10.067   3.964
62629SOL     OW89783   2.940  14.025   2.960
62629SOL    HW189784   2.977  13.973   3.031
62629SOL    HW289785   3.002  14.097   2.949
62630SOL     OW89786   3.289  10.287   8.010
62630SOL    HW189787   3.304  10.218   8.073
62630SOL    HW289788   3.280  10.367   8.063
62631SOL     OW89789   1.918   6.962   1.583
62631SOL    HW189790   1.864   6.993   1.657
62631SOL    HW289791   1.884   6.874   1.564
62632SOL     OW89792   9.822   0.057   5.704
62632SOL    HW189793   9.839   0.067   5.610
62632SOL    HW289794   9.727   0.061   5.712
62633SOL     OW89795  10.430   0.423  13.540
62633SOL    HW189796  10.410   0.377  13.459
62633SOL    HW289797  10.375   0.502  13.537
62634SOL     OW89798  14.661  14.878   5.718
62634SOL    HW189799  14.673   0.021   5.628
62634SOL    HW289800  14.738   0.022   5.765
62635SOL     OW89801  12.907  10.562   4.578
62635SOL    HW189802  12.816  10.588   4.592
62635SOL    HW289803  12.929  10.597   4.492
62636SOL     OW89804   6.687   2.441   4.187
62636SOL    HW189805   6.752   2.371   4.186
62636SOL    HW289806   6.737   2.522   4.175
62637SOL     OW89807   3.407   8.405   7.526
62637SOL    HW189808   3.467   8.432   7.596
62637SOL    HW289809   3.320   8.408   7.567
62638SOL     OW89810   5.132   1.255  14.875
62638SOL    HW189811   5.079   1.180   0.013
62638SOL    HW289812   5.202   1.217  14.821
62639SOL     OW89813   4.798  11.983   2.838
62639SOL    HW189814   4.833  11.981   2.749
62639SOL    HW289815   4.748  12.064   2.842
62640SOL     OW89816   3.078   6.855   4.466
62640SOL    HW189817   3.165   6.839   4.503
62640SOL    HW289818   3.026   6.886   4.541
62641SOL     OW89819   1.479  14.592   0.399
62641SOL    HW189820   1.529  14.650   0.457
62641SOL    HW289821   1.508  14.504   0.423
62642SOL     OW89822  12.078   6.003   1.395
62642SOL    HW189823  12.108   6.066   1.329
62642SOL    HW289824  12.146   5.936   1.398
62643SOL     OW89825   0.242   9.730  12.836
62643SOL    HW189826   0.212   9.799  12.777
62643SOL    HW289827   0.169   9.716  12.896
62644SOL     OW89828  14.360   2.391   2.107
62644SOL    HW189829  14.379   2.440   2.187
62644SOL    HW289830  14.348   2.458   2.040
62645SOL     OW89831   3.117  13.427   8.709
62645SOL    HW189832   3.171  13.458   8.782
62645SOL    HW289833   3.134  13.490   8.638
62646SOL     OW89834   8.030  13.798   2.665
62646SOL    HW189835   8.046  13.759   2.579
62646SOL    HW289836   8.101  13.861   2.677
62647SOL     OW89837  14.808  13.625   6.737
62647SOL    HW189838  14.833  13.616   6.645
62647SOL    HW289839  14.859  13.699   6.769
62648SOL     OW89840   2.405  12.528   7.414
62648SOL    HW189841   2.388  12.577   7.334
62648SOL    HW289842   2.400  12.436   7.387
62649SOL     OW89843   3.439  13.035   0.943
62649SOL    HW189844   3.508  13.050   1.007
62649SOL    HW289845   3.388  13.116   0.943
62650SOL     OW89846   3.945   3.785  10.537
62650SOL    HW189847   4.011   3.838  10.492
62650SOL    HW289848   3.891   3.750  10.466
62651SOL     OW89849   8.449   7.492   3.297
62651SOL    HW189850   8.524   7.484   3.239
62651SOL    HW289851   8.472   7.564   3.356
62652SOL     OW89852   5.393   6.091  10.064
62652SOL    HW189853   5.432   6.004  10.064
62652SOL    HW289854   5.458   6.147  10.023
62653SOL     OW89855   1.455   9.618   4.577
62653SOL    HW189856   1.444   9.664   4.494
62653SOL    HW289857   1.538   9.651   4.612
62654SOL     OW89858  13.785  11.656  14.239
62654SOL    HW189859  13.736  11.678  14.319
62654SOL    HW289860  13.730  11.591  14.195
62655SOL     OW89861   6.442   1.673   8.787
62655SOL    HW189862   6.452   1.600   8.847
62655SOL    HW289863   6.405   1.743   8.841
62656SOL     OW89864   7.387   0.949   5.498
62656SOL    HW189865   7.308   0.967   5.446
62656SOL    HW289866   7.459   0.985   5.446
62657SOL     OW89867  10.469  14.710   3.757
62657SOL    HW189868  10.390  14.661   3.736
62657SOL    HW289869  10.437  14.794   3.791
62658SOL     OW89870   4.658   9.628  12.960
62658SOL    HW189871   4.730   9.666  13.011
62658SOL    HW289872   4.696   9.549  12.921
62659SOL     OW89873   5.518   1.072  14.669
62659SOL    HW189874   5.494   1.139  14.734
62659SOL    HW289875   5.466   0.996  14.693
62660SOL     OW89876   8.794  11.761  10.850
62660SOL    HW189877   8.743  11.792  10.775
62660SOL    HW289878   8.820  11.672  10.825
62661SOL     OW89879   2.375   3.167  11.890
62661SOL    HW189880   2.336   3.224  11.824
62661SOL    HW289881   2.315   3.093  11.897
62662SOL     OW89882  12.396  11.070   9.652
62662SOL    HW189883  12.405  11.124   9.731
62662SOL    HW289884  12.463  11.003   9.660
62663SOL     OW89885  11.485   1.587   8.043
62663SOL    HW189886  11.399   1.547   8.053
62663SOL    HW289887  11.533   1.562   8.122
62664SOL     OW89888   9.909   4.377   0.245
62664SOL    HW189889  10.000   4.359   0.222
62664SOL    HW289890   9.878   4.436   0.177
62665SOL     OW89891   1.140  13.175  10.558
62665SOL    HW189892   1.117  13.261  10.594
62665SOL    HW289893   1.075  13.160  10.489
62666SOL     OW89894   3.967  14.133   7.385
62666SOL    HW189895   4.026  14.101   7.317
62666SOL    HW289896   3.961  14.228   7.370
62667SOL     OW89897  12.798   4.703   3.187
62667SOL    HW189898  12.779   4.609   3.181
62667SOL    HW289899  12.884   4.714   3.148
62668SOL     OW89900   3.603   5.946   7.027
62668SOL    HW189901   3.628   5.915   6.941
62668SOL    HW289902   3.671   5.912   7.086
62669SOL     OW89903  11.528   1.170   4.517
62669SOL    HW189904  11.484   1.085   4.513
62669SOL    HW289905  11.595   1.166   4.448
62670SOL     OW89906  13.675  13.975  11.955
62670SOL    HW189907  13.616  13.902  11.935
62670SOL    HW289908  13.627  14.027  12.020
62671SOL     OW89909   6.685   1.313   0.521
62671SOL    HW189910   6.654   1.329   0.610
62671SOL    HW289911   6.695   1.218   0.516
62672SOL     OW89912   2.221   2.231  12.979
62672SOL    HW189913   2.168   2.310  12.973
62672SOL    HW289914   2.159   2.159  12.967
62673SOL     OW89915   0.490  14.469   2.228
62673SOL    HW189916   0.571  14.501   2.188
62673SOL    HW289917   0.515  14.386   2.269
62674SOL     OW89918  13.926   7.646   4.959
62674SOL    HW189919  13.878   7.650   4.877
62674SOL    HW289920  13.921   7.554   4.986
62675SOL     OW89921  14.870  11.797  10.594
62675SOL    HW189922  14.845  11.878  10.549
62675SOL    HW289923  14.834  11.727  10.540
62676SOL     OW89924  10.712   6.222   1.854
62676SOL    HW189925  10.774   6.260   1.916
62676SOL    HW289926  10.644   6.289   1.845
62677SOL     OW89927  14.125  13.323   9.326
62677SOL    HW189928  14.068  13.322   9.403
62677SOL    HW289929  14.085  13.260   9.266
62678SOL     OW89930  10.984   4.967  12.003
62678SOL    HW189931  10.950   4.981  12.092
62678SOL    HW289932  10.910   4.928  11.956
62679SOL     OW89933  11.245   8.991   4.034
62679SOL    HW189934  11.199   8.971   3.952
62679SOL    HW289935  11.299   8.914   4.050
62680SOL     OW89936   7.439   1.014   4.767
62680SOL    HW189937   7.386   0.989   4.690
62680SOL    HW289938   7.455   1.107   4.755
62681SOL     OW89939   0.275   0.620   8.864
62681SOL    HW189940   0.212   0.548   8.858
62681SOL    HW289941   0.248   0.670   8.941
62682SOL     OW89942   2.053  14.423   6.736
62682SOL    HW189943   2.010  14.457   6.658
62682SOL    HW289944   1.991  14.439   6.807
62683SOL     OW89945  10.145   4.962  10.451
62683SOL    HW189946  10.117   5.054  10.457
62683SOL    HW289947  10.107   4.921  10.528
62684SOL     OW89948   2.706   7.014   2.785
62684SOL    HW189949   2.626   6.962   2.800
62684SOL    HW289950   2.777   6.956   2.811
62685SOL     OW89951  13.746   2.628   4.960
62685SOL    HW189952  13.753   2.648   4.867
62685SOL    HW289953  13.802   2.693   5.003
62686SOL     OW89954   4.080   4.629  13.036
62686SOL    HW189955   4.027   4.608  12.959
62686SOL    HW289956   4.134   4.703  13.009
62687SOL     OW89957   1.206   4.054   3.663
62687SOL    HW189958   1.296   4.024   3.654
62687SOL    HW289959   1.154   3.974   3.663
62688SOL     OW89960  13.431   1.263   5.732
62688SOL    HW189961  13.404   1.232   5.645
62688SOL    HW289962  13.470   1.349   5.716
62689SOL     OW89963   0.484   8.548  13.050
62689SOL    HW189964   0.435   8.625  13.080
62689SOL    HW289965   0.476   8.550  12.954
62690SOL     OW89966   1.393   5.777   6.351
62690SOL    HW189967   1.488   5.775   6.343
62690SOL    HW289968   1.362   5.717   6.284
62691SOL     OW89969   1.782   6.749  11.218
62691SOL    HW189970   1.808   6.810  11.287
62691SOL    HW289971   1.729   6.684  11.262
62692SOL     OW89972   9.958   7.873   4.973
62692SOL    HW189973  10.012   7.892   5.050
62692SOL    HW289974   9.929   7.959   4.942
62693SOL     OW89975  14.366   8.052   5.561
62693SOL    HW189976  14.400   8.001   5.487
62693SOL    HW289977  14.443   8.069   5.615
62694SOL     OW89978  10.385   4.289  10.307
62694SOL    HW189979  10.315   4.237  10.347
62694SOL    HW289980  10.442   4.224  10.265
62695SOL     OW89981   4.133   0.240  10.956
62695SOL    HW189982   4.205   0.185  10.985
62695SOL    HW289983   4.054   0.195  10.987
62696SOL     OW89984   5.850   7.347   6.165
62696SOL    HW189985   5.818   7.397   6.090
62696SOL    HW289986   5.885   7.413   6.225
62697SOL     OW89987   6.472  14.864   1.250
62697SOL    HW189988   6.554  14.877   1.298
62697SOL    HW289989   6.473   0.045   1.182
62698SOL     OW89990   4.929   9.972  13.036
62698SOL    HW189991   4.924   9.925  12.953
62698SOL    HW289992   5.022   9.990  13.048
62699SOL     OW89993  13.543   0.079  12.081
62699SOL    HW189994  13.491   0.005  12.050
62699SOL    HW289995  13.516   0.092  12.171
62700SOL     OW89996  13.034   9.401  10.795
62700SOL    HW189997  13.009   9.362  10.879
62700SOL    HW289998  12.991   9.486  10.795
62701SOL     OW89999   6.465   4.951   8.990
62701SOL    HW190000   6.439   5.032   9.034
62701SOL    HW290001   6.471   4.886   9.060
62702SOL     OW90002  12.784   5.934  14.048
62702SOL    HW190003  12.726   5.860  14.031
62702SOL    HW290004  12.862   5.915  13.996
62703SOL     OW90005   9.088   8.630   1.954
62703SOL    HW190006   9.023   8.701   1.955
62703SOL    HW290007   9.165   8.670   1.914
62704SOL     OW90008   2.299  13.110  14.324
62704SOL    HW190009   2.299  13.172  14.250
62704SOL    HW290010   2.388  13.075  14.325
62705SOL     OW90011   5.263   3.871   6.903
62705SOL    HW190012   5.316   3.933   6.953
62705SOL    HW290013   5.192   3.923   6.867
62706SOL     OW90014   7.185  10.780   1.619
62706SOL    HW190015   7.196  10.733   1.702
62706SOL    HW290016   7.093  10.766   1.596
62707SOL     OW90017  13.931   3.362   1.785
62707SOL    HW190018  13.908   3.428   1.851
62707SOL    HW290019  14.019   3.386   1.756
62708SOL     OW90020   9.426  11.157  14.341
62708SOL    HW190021   9.469  11.230  14.384
62708SOL    HW290022   9.483  11.134  14.267
62709SOL     OW90023  11.809   1.198  11.803
62709SOL    HW190024  11.902   1.203  11.779
62709SOL    HW290025  11.808   1.143  11.882
62710SOL     OW90026   5.793  10.486   8.221
62710SOL    HW190027   5.859  10.556   8.213
62710SOL    HW290028   5.767  10.489   8.313
62711SOL     OW90029  11.664   6.000  12.684
62711SOL    HW190030  11.739   6.058  12.673
62711SOL    HW290031  11.636   5.980  12.594
62712SOL     OW90032  11.784  14.742   8.296
62712SOL    HW190033  11.813  14.651   8.297
62712SOL    HW290034  11.741  14.753   8.212
62713SOL     OW90035  10.905   1.107  13.727
62713SOL    HW190036  10.967   1.056  13.676
62713SOL    HW290037  10.874   1.047  13.795
62714SOL     OW90038  10.753   0.403   6.801
62714SOL    HW190039  10.672   0.355   6.784
62714SOL    HW290040  10.743   0.486   6.753
62715SOL     OW90041   3.717   9.614  14.436
62715SOL    HW190042   3.657   9.659  14.377
62715SOL    HW290043   3.716   9.523  14.408
62716SOL     OW90044  14.158   2.728   0.885
62716SOL    HW190045  14.070   2.690   0.892
62716SOL    HW290046  14.212   2.657   0.851
62717SOL     OW90047   1.921   1.046   6.775
62717SOL    HW190048   1.992   1.074   6.834
62717SOL    HW290049   1.929   1.104   6.700
62718SOL     OW90050  10.025  12.575   5.461
62718SOL    HW190051  10.084  12.551   5.533
62718SOL    HW290052  10.002  12.666   5.477
62719SOL     OW90053   1.523   2.641   6.818
62719SOL    HW190054   1.475   2.635   6.735
62719SOL    HW290055   1.526   2.551   6.850
62720SOL     OW90056   3.497  10.527  14.862
62720SOL    HW190057   3.459  10.594   0.031
62720SOL    HW290058   3.564  10.484   0.029
62721SOL     OW90059   5.063   7.799   2.627
62721SOL    HW190060   4.999   7.757   2.685
62721SOL    HW290061   5.086   7.732   2.563
62722SOL     OW90062   1.213  11.798  10.323
62722SOL    HW190063   1.298  11.759  10.344
62722SOL    HW290064   1.206  11.875  10.381
62723SOL     OW90065  13.960   7.883   1.590
62723SOL    HW190066  14.019   7.808   1.585
62723SOL    HW290067  14.001   7.950   1.536
62724SOL     OW90068   6.786  13.068  10.600
62724SOL    HW190069   6.756  13.044  10.512
62724SOL    HW290070   6.728  13.139  10.627
62725SOL     OW90071   8.486   2.723   4.885
62725SOL    HW190072   8.571   2.701   4.923
62725SOL    HW290073   8.469   2.812   4.915
62726SOL     OW90074   5.489  13.597  11.623
62726SOL    HW190075   5.452  13.553  11.546
62726SOL    HW290076   5.572  13.552  11.637
62727SOL     OW90077   9.584   7.575   5.879
62727SOL    HW190078   9.635   7.652   5.853
62727SOL    HW290079   9.515   7.610   5.936
62728SOL     OW90080   9.410   4.286   7.261
62728SOL    HW190081   9.506   4.284   7.263
62728SOL    HW290082   9.389   4.372   7.226
62729SOL     OW90083  14.693   4.149   7.456
62729SOL    HW190084  14.689   4.200   7.536
62729SOL    HW290085  14.761   4.084   7.472
62730SOL     OW90086   6.275  11.342   7.265
62730SOL    HW190087   6.275  11.402   7.190
62730SOL    HW290088   6.364  11.307   7.267
62731SOL     OW90089   8.499   3.988  12.420
62731SOL    HW190090   8.503   4.072  12.375
62731SOL    HW290091   8.587   3.974  12.454
62732SOL     OW90092   7.903   0.981   1.789
62732SOL    HW190093   7.834   1.015   1.732
62732SOL    HW290094   7.860   0.914   1.841
62733SOL     OW90095   6.718   2.545   8.157
62733SOL    HW190096   6.683   2.527   8.244
62733SOL    HW290097   6.727   2.640   8.154
62734SOL     OW90098   1.568  10.704   2.607
62734SOL    HW190099   1.503  10.766   2.641
62734SOL    HW290100   1.524  10.659   2.536
62735SOL     OW90101   4.012   2.737   2.252
62735SOL    HW190102   4.045   2.707   2.167
62735SOL    HW290103   4.091   2.761   2.301
62736SOL     OW90104   3.495   9.128   9.405
62736SOL    HW190105   3.539   9.045   9.423
62736SOL    HW290106   3.554   9.194   9.441
62737SOL     OW90107   6.884   9.641   4.494
62737SOL    HW190108   6.943   9.579   4.452
62737SOL    HW290109   6.889   9.620   4.587
62738SOL     OW90110   5.363  11.771  11.744
62738SOL    HW190111   5.367  11.721  11.662
62738SOL    HW290112   5.454  11.794  11.762
62739SOL     OW90113   6.406  12.978  13.771
62739SOL    HW190114   6.430  12.930  13.850
62739SOL    HW290115   6.347  13.047  13.802
62740SOL     OW90116  13.550   4.671   2.003
62740SOL    HW190117  13.496   4.703   1.931
62740SOL    HW290118  13.615   4.740   2.017
62741SOL     OW90119   8.088   1.617   4.501
62741SOL    HW190120   8.119   1.538   4.457
62741SOL    HW290121   8.160   1.645   4.557
62742SOL     OW90122   8.157  13.824   4.993
62742SOL    HW190123   8.198  13.911   4.992
62742SOL    HW290124   8.191  13.782   4.914
62743SOL     OW90125   6.624   4.233   3.260
62743SOL    HW190126   6.580   4.148   3.266
62743SOL    HW290127   6.574   4.290   3.319
62744SOL     OW90128   9.061   3.786   5.498
62744SOL    HW190129   9.098   3.749   5.578
62744SOL    HW290130   8.989   3.727   5.475
62745SOL     OW90131  10.618   1.030   4.227
62745SOL    HW190132  10.605   0.963   4.294
62745SOL    HW290133  10.648   1.107   4.275
62746SOL     OW90134   8.278  12.857   0.291
62746SOL    HW190135   8.256  12.824   0.379
62746SOL    HW290136   8.369  12.886   0.298
62747SOL     OW90137   6.044   7.530   9.301
62747SOL    HW190138   6.132   7.498   9.280
62747SOL    HW290139   6.056   7.622   9.322
62748SOL     OW90140   3.356   2.168   7.320
62748SOL    HW190141   3.372   2.083   7.362
62748SOL    HW290142   3.431   2.222   7.345
62749SOL     OW90143  11.433   1.064   8.036
62749SOL    HW190144  11.367   1.123   8.000
62749SOL    HW290145  11.387   0.981   8.051
62750SOL     OW90146   3.070  12.529  11.964
62750SOL    HW190147   3.113  12.467  11.904
62750SOL    HW290148   2.978  12.527  11.938
62751SOL     OW90149   9.394   5.650   1.291
62751SOL    HW190150   9.321   5.712   1.287
62751SOL    HW290151   9.389   5.613   1.380
62752SOL     OW90152   4.012   9.705   0.413
62752SOL    HW190153   4.101   9.739   0.414
62752SOL    HW290154   4.001   9.665   0.500
62753SOL     OW90155   3.791   3.293  10.866
62753SOL    HW190156   3.714   3.241  10.890
62753SOL    HW290157   3.777   3.378  10.907
62754SOL     OW90158  11.393  12.627  12.387
62754SOL    HW190159  11.397  12.616  12.292
62754SOL    HW290160  11.460  12.568  12.421
62755SOL     OW90161  13.284   6.870  14.787
62755SOL    HW190162  13.282   6.890  14.880
62755SOL    HW290163  13.195   6.889  14.756
62756SOL     OW90164  10.974   9.146   0.177
62756SOL    HW190165  10.951   9.138   0.269
62756SOL    HW290166  10.904   9.199   0.139
62757SOL     OW90167  10.195   2.851   9.772
62757SOL    HW190168  10.213   2.839   9.679
62757SOL    HW290169  10.159   2.767   9.800
62758SOL     OW90170   8.871   0.997  10.665
62758SOL    HW190171   8.796   0.984  10.606
62758SOL    HW290172   8.948   0.982  10.610
62759SOL     OW90173   8.430   6.953   1.341
62759SOL    HW190174   8.387   6.869   1.354
62759SOL    HW290175   8.496   6.958   1.410
62760SOL     OW90176   6.975   4.942  12.444
62760SOL    HW190177   7.006   4.925  12.355
62760SOL    HW290178   7.054   4.941  12.497
62761SOL     OW90179   5.416   3.236  13.608
62761SOL    HW190180   5.402   3.323  13.644
62761SOL    HW290181   5.433   3.251  13.515
62762SOL     OW90182   6.373  12.809  13.102
62762SOL    HW190183   6.374  12.835  13.010
62762SOL    HW290184   6.427  12.876  13.146
62763SOL     OW90185   7.087  11.929  12.656
62763SOL    HW190186   7.110  11.843  12.623
62763SOL    HW290187   7.016  11.913  12.718
62764SOL     OW90188  10.632   9.461   9.573
62764SOL    HW190189  10.586   9.544   9.558
62764SOL    HW290190  10.629   9.417   9.488
62765SOL     OW90191   3.003  12.949  11.358
62765SOL    HW190192   3.073  12.940  11.423
62765SOL    HW290193   2.961  12.863  11.356
62766SOL     OW90194   2.149  10.598   8.102
62766SOL    HW190195   2.160  10.550   8.020
62766SOL    HW290196   2.218  10.664   8.101
62767SOL     OW90197   6.043  10.346  10.870
62767SOL    HW190198   5.992  10.427  10.870
62767SOL    HW290199   6.059  10.328  10.962
62768SOL     OW90200  10.704  11.176   3.615
62768SOL    HW190201  10.726  11.168   3.708
62768SOL    HW290202  10.786  11.159   3.569
62769SOL     OW90203   4.071   2.975   2.620
62769SOL    HW190204   4.151   2.924   2.627
62769SOL    HW290205   4.012   2.935   2.684
62770SOL     OW90206   1.310   0.049  14.189
62770SOL    HW190207   1.395   0.073  14.151
62770SOL    HW290208   1.253   0.122  14.165
62771SOL     OW90209   9.349   0.713  11.842
62771SOL    HW190210   9.340   0.734  11.749
62771SOL    HW290211   9.359   0.618  11.844
62772SOL     OW90212  12.092   2.958  12.203
62772SOL    HW190213  12.020   3.013  12.236
62772SOL    HW290214  12.108   2.895  12.274
62773SOL     OW90215   6.473   3.681   6.218
62773SOL    HW190216   6.556   3.721   6.244
62773SOL    HW290217   6.428   3.750   6.169
62774SOL     OW90218   7.996  10.550  14.394
62774SOL    HW190219   7.916  10.555  14.342
62774SOL    HW290220   8.035  10.466  14.369
62775SOL     OW90221   1.724   1.263   8.833
62775SOL    HW190222   1.687   1.175   8.828
62775SOL    HW290223   1.813   1.250   8.866
62776SOL     OW90224  12.442  14.704   0.989
62776SOL    HW190225  12.489  14.753   1.056
62776SOL    HW290226  12.482  14.732   0.907
62777SOL     OW90227  12.762   3.728  14.520
62777SOL    HW190228  12.802   3.766  14.598
62777SOL    HW290229  12.743   3.638  14.545
62778SOL     OW90230  12.702  13.703  12.664
62778SOL    HW190231  12.696  13.779  12.723
62778SOL    HW290232  12.755  13.640  12.713
62779SOL     OW90233   0.801   1.745   8.303
62779SOL    HW190234   0.884   1.763   8.259
62779SOL    HW290235   0.754   1.687   8.242
62780SOL     OW90236   1.964   2.877   0.312
62780SOL    HW190237   2.034   2.860   0.376
62780SOL    HW290238   1.890   2.905   0.366
62781SOL     OW90239  14.186   5.905   3.248
62781SOL    HW190240  14.259   5.904   3.311
62781SOL    HW290241  14.139   5.985   3.268
62782SOL     OW90242   4.961  12.796   2.051
62782SOL    HW190243   4.896  12.867   2.044
62782SOL    HW290244   5.030  12.833   2.107
62783SOL     OW90245  11.606   3.742   9.797
62783SOL    HW190246  11.517   3.763   9.825
62783SOL    HW290247  11.601   3.738   9.702
62784SOL     OW90248  13.241   4.996  14.486
62784SOL    HW190249  13.264   4.983  14.578
62784SOL    HW290250  13.155   4.954  14.477
62785SOL     OW90251   0.154   8.115   3.482
62785SOL    HW190252   0.205   8.141   3.404
62785SOL    HW290253   0.089   8.184   3.492
62786SOL     OW90254   7.202   8.382   8.470
62786SOL    HW190255   7.149   8.462   8.472
62786SOL    HW290256   7.207   8.359   8.378
62787SOL     OW90257   1.841   1.391   5.447
62787SOL    HW190258   1.772   1.369   5.510
62787SOL    HW290259   1.814   1.475   5.410
62788SOL     OW90260   8.520   2.116  14.690
62788SOL    HW190261   8.522   2.168  14.610
62788SOL    HW290262   8.548   2.177  14.759
62789SOL     OW90263   7.607   4.138   7.435
62789SOL    HW190264   7.543   4.118   7.367
62789SOL    HW290265   7.572   4.216   7.478
62790SOL     OW90266   3.989   6.668   4.322
62790SOL    HW190267   3.992   6.734   4.252
62790SOL    HW290268   3.995   6.584   4.277
62791SOL     OW90269  12.175   7.568   2.428
62791SOL    HW190270  12.140   7.634   2.367
62791SOL    HW290271  12.252   7.533   2.382
62792SOL     OW90272   1.850   8.960   4.437
62792SOL    HW190273   1.914   8.912   4.489
62792SOL    HW290274   1.820   8.898   4.372
62793SOL     OW90275  14.694   3.287   1.239
62793SOL    HW190276  14.660   3.237   1.314
62793SOL    HW290277  14.616   3.314   1.191
62794SOL     OW90278  14.675   2.770   3.143
62794SOL    HW190279  14.764   2.794   3.118
62794SOL    HW290280  14.660   2.817   3.225
62795SOL     OW90281   7.694   0.012   6.438
62795SOL    HW190282   7.619   0.051   6.484
62795SOL    HW290283   7.746  14.860   6.508
62796SOL     OW90284   7.226   0.119   9.599
62796SOL    HW190285   7.138   0.094   9.629
62796SOL    HW290286   7.232   0.085   9.510
62797SOL     OW90287   2.446  10.389   3.167
62797SOL    HW190288   2.522  10.348   3.125
62797SOL    HW290289   2.392  10.420   3.095
62798SOL     OW90290  14.643  13.465   2.605
62798SOL    HW190291  14.705  13.394   2.588
62798SOL    HW290292  14.602  13.442   2.688
62799SOL     OW90293  14.610  11.742   8.948
62799SOL    HW190294  14.546  11.800   8.990
62799SOL    HW290295  14.564  11.707   8.872
62800SOL     OW90296  13.497  10.517   2.194
62800SOL    HW190297  13.469  10.510   2.103
62800SOL    HW290298  13.422  10.555   2.239
62801SOL     OW90299   6.384   3.417   0.069
62801SOL    HW190300   6.464   3.367   0.080
62801SOL    HW290301   6.329   3.364   0.010
62802SOL     OW90302   2.190  14.291   1.410
62802SOL    HW190303   2.286  14.286   1.418
62802SOL    HW290304   2.173  14.378   1.374
62803SOL     OW90305  12.516  12.693  13.591
62803SOL    HW190306  12.519  12.783  13.624
62803SOL    HW290307  12.562  12.641  13.658
62804SOL     OW90308   2.031  11.244   2.971
62804SOL    HW190309   1.985  11.296   2.906
62804SOL    HW290310   1.967  11.227   3.039
62805SOL     OW90311   3.943   9.137   0.234
62805SOL    HW190312   3.850   9.136   0.258
62805SOL    HW290313   3.965   9.230   0.230
62806SOL     OW90314   0.945   2.474   2.759
62806SOL    HW190315   0.863   2.424   2.766
62806SOL    HW290316   1.010   2.418   2.800
62807SOL     OW90317   1.717  10.475  11.348
62807SOL    HW190318   1.700  10.555  11.299
62807SOL    HW290319   1.675  10.405  11.297
62808SOL     OW90320   7.681  12.967   0.081
62808SOL    HW190321   7.743  12.954   0.153
62808SOL    HW290322   7.734  13.001   0.009
62809SOL     OW90323   9.553   4.949   1.319
62809SOL    HW190324   9.615   5.019   1.337
62809SOL    HW290325   9.604   4.882   1.274
62810SOL     OW90326  11.901   1.414   5.294
62810SOL    HW190327  11.936   1.335   5.253
62810SOL    HW290328  11.814   1.389   5.326
62811SOL     OW90329   8.790  11.079   4.549
62811SOL    HW190330   8.843  11.131   4.610
62811SOL    HW290331   8.848  11.064   4.474
62812SOL     OW90332  11.818   3.907   6.351
62812SOL    HW190333  11.901   3.888   6.395
62812SOL    HW290334  11.842   3.926   6.261
62813SOL     OW90335   8.440   6.560   1.947
62813SOL    HW190336   8.362   6.610   1.926
62813SOL    HW290337   8.512   6.622   1.936
62814SOL     OW90338   4.820   3.365  10.488
62814SOL    HW190339   4.914   3.380  10.487
62814SOL    HW290340   4.802   3.327  10.574
62815SOL     OW90341   8.011   8.134   7.929
62815SOL    HW190342   7.977   8.072   7.994
62815SOL    HW290343   7.989   8.220   7.964
62816SOL     OW90344   4.621  12.039  12.697
62816SOL    HW190345   4.554  12.034  12.766
62816SOL    HW290346   4.681  11.968  12.717
62817SOL     OW90347   4.281   2.828   2.330
62817SOL    HW190348   4.249   2.911   2.294
62817SOL    HW290349   4.286   2.844   2.424
62818SOL     OW90350  12.063  14.431   0.809
62818SOL    HW190351  12.128  14.496   0.838
62818SOL    HW290352  11.989  14.483   0.779
62819SOL     OW90353  12.851   7.655   9.382
62819SOL    HW190354  12.929   7.627   9.334
62819SOL    HW290355  12.792   7.689   9.314
62820SOL     OW90356  11.633   1.834   0.180
62820SOL    HW190357  11.553   1.835   0.127
62820SOL    HW290358  11.608   1.794   0.263
62821SOL     OW90359   2.364  14.118   8.168
62821SOL    HW190360   2.435  14.066   8.130
62821SOL    HW290361   2.377  14.206   8.134
62822SOL     OW90362   1.036  14.336  12.225
62822SOL    HW190363   1.029  14.424  12.186
62822SOL    HW290364   0.999  14.346  12.312
62823SOL     OW90365   3.430   0.456   9.127
62823SOL    HW190366   3.414   0.550   9.136
62823SOL    HW290367   3.365   0.427   9.063
62824SOL     OW90368   3.555   1.707   9.606
62824SOL    HW190369   3.628   1.768   9.618
62824SOL    HW290370   3.489   1.737   9.668
62825SOL     OW90371   1.447  10.334   9.015
62825SOL    HW190372   1.376  10.303   8.958
62825SOL    HW290373   1.402  10.383   9.085
62826SOL     OW90374  13.834   8.436  14.192
62826SOL    HW190375  13.757   8.429  14.248
62826SOL    HW290376  13.906   8.458  14.251
62827SOL     OW90377   8.230  11.193  10.415
62827SOL    HW190378   8.289  11.267  10.428
62827SOL    HW290379   8.273  11.139  10.348
62828SOL     OW90380  10.325  13.595   6.873
62828SOL    HW190381  10.315  13.626   6.963
62828SOL    HW290382  10.236  13.596   6.837
62829SOL     OW90383   2.648   4.171   4.209
62829SOL    HW190384   2.694   4.219   4.278
62829SOL    HW290385   2.671   4.079   4.223
62830SOL     OW90386   9.841  12.968   7.323
62830SOL    HW190387   9.747  12.986   7.318
62830SOL    HW290388   9.857  12.902   7.256
62831SOL     OW90389   2.363   2.069   9.684
62831SOL    HW190390   2.455   2.044   9.697
62831SOL    HW290391   2.319   2.041   9.765
62832SOL     OW90392   1.784   8.816  12.932
62832SOL    HW190393   1.877   8.838  12.944
62832SOL    HW290394   1.783   8.720  12.930
62833SOL     OW90395   8.657   9.534   3.435
62833SOL    HW190396   8.584   9.585   3.471
62833SOL    HW290397   8.696   9.490   3.511
62834SOL     OW90398  10.040  10.195  12.607
62834SOL    HW190399  10.032  10.099  12.609
62834SOL    HW290400   9.960  10.226  12.649
62835SOL     OW90401   9.110  10.514  14.858
62835SOL    HW190402   9.187  10.564  14.883
62835SOL    HW290403   9.068  10.567  14.790
62836SOL     OW90404  12.101   0.438   7.792
62836SOL    HW190405  12.062   0.390   7.865
62836SOL    HW290406  12.056   0.522   7.793
62837SOL     OW90407   4.680   0.328  12.776
62837SOL    HW190408   4.593   0.315  12.812
62837SOL    HW290409   4.675   0.411  12.728
62838SOL     OW90410  12.553   9.829   0.403
62838SOL    HW190411  12.610   9.787   0.468
62838SOL    HW290412  12.500   9.891   0.454
62839SOL     OW90413   1.778   2.247   8.134
62839SOL    HW190414   1.784   2.151   8.140
62839SOL    HW290415   1.833   2.279   8.205
62840SOL     OW90416   1.495   4.081   4.497
62840SOL    HW190417   1.492   4.160   4.442
62840SOL    HW290418   1.448   4.106   4.577
62841SOL     OW90419   6.197   2.014  12.344
62841SOL    HW190420   6.244   1.984  12.422
62841SOL    HW290421   6.240   1.969  12.271
62842SOL     OW90422  12.418   2.307  14.716
62842SOL    HW190423  12.489   2.314  14.779
62842SOL    HW290424  12.395   2.214  14.715
62843SOL     OW90425   1.932  14.758   6.369
62843SOL    HW190426   2.012  14.795   6.331
62843SOL    HW290427   1.888  14.833   6.410
62844SOL     OW90428   9.894  11.980   6.230
62844SOL    HW190429   9.840  11.991   6.151
62844SOL    HW290430   9.936  12.065   6.242
62845SOL     OW90431   5.427   6.282   1.847
62845SOL    HW190432   5.511   6.237   1.837
62845SOL    HW290433   5.367   6.233   1.791
62846SOL     OW90434   9.775  13.867  10.898
62846SOL    HW190435   9.789  13.790  10.953
62846SOL    HW290436   9.863  13.892  10.869
62847SOL     OW90437   8.364  10.895  13.659
62847SOL    HW190438   8.383  10.988  13.671
62847SOL    HW290439   8.449  10.853  13.648
62848SOL     OW90440   7.179   5.903  14.014
62848SOL    HW190441   7.150   5.871  14.100
62848SOL    HW290442   7.216   5.826  13.971
62849SOL     OW90443   0.646   3.991   9.625
62849SOL    HW190444   0.554   3.995   9.649
62849SOL    HW290445   0.688   3.948   9.700
62850SOL     OW90446   5.900  12.518  14.471
62850SOL    HW190447   5.836  12.485  14.534
62850SOL    HW290448   5.933  12.439  14.427
62851SOL     OW90449   3.124   7.151   3.668
62851SOL    HW190450   3.151   7.230   3.621
62851SOL    HW290451   3.118   7.083   3.601
62852SOL     OW90452   2.036  12.483   1.362
62852SOL    HW190453   1.946  12.480   1.329
62852SOL    HW290454   2.075  12.400   1.335
62853SOL     OW90455   0.295   6.031  12.739
62853SOL    HW190456   0.314   6.041  12.832
62853SOL    HW290457   0.375   5.992  12.702
62854SOL     OW90458   3.123   0.435   1.549
62854SOL    HW190459   3.103   0.480   1.631
62854SOL    HW290460   3.076   0.352   1.555
62855SOL     OW90461   4.339   7.701   9.246
62855SOL    HW190462   4.331   7.630   9.309
62855SOL    HW290463   4.406   7.671   9.184
62856SOL     OW90464   9.214  10.444   5.579
62856SOL    HW190465   9.221  10.532   5.542
62856SOL    HW290466   9.142  10.452   5.642
62857SOL     OW90467   4.441   1.796  10.641
62857SOL    HW190468   4.411   1.708  10.664
62857SOL    HW290469   4.409   1.851  10.712
62858SOL     OW90470  13.415   1.341   0.667
62858SOL    HW190471  13.422   1.350   0.572
62858SOL    HW290472  13.483   1.400   0.701
62859SOL     OW90473   4.078   2.222   0.061
62859SOL    HW190474   3.996   2.269   0.043
62859SOL    HW290475   4.108   2.258   0.144
62860SOL     OW90476  14.259  12.715   5.015
62860SOL    HW190477  14.195  12.728   4.945
62860SOL    HW290478  14.307  12.636   4.988
62861SOL     OW90479   3.648   5.198   1.502
62861SOL    HW190480   3.733   5.231   1.474
62861SOL    HW290481   3.659   5.104   1.509
62862SOL     OW90482   7.514  14.708   7.127
62862SOL    HW190483   7.473  14.795   7.124
62862SOL    HW290484   7.449  14.654   7.172
62863SOL     OW90485   3.159   5.609  13.781
62863SOL    HW190486   3.154   5.702  13.758
62863SOL    HW290487   3.156   5.608  13.876
62864SOL     OW90488   0.971   6.601   7.467
62864SOL    HW190489   1.057   6.578   7.432
62864SOL    HW290490   0.927   6.646   7.395
62865SOL     OW90491  11.439  14.090  10.924
62865SOL    HW190492  11.386  14.162  10.957
62865SOL    HW290493  11.386  14.012  10.940
62866SOL     OW90494   1.748   2.785  10.746
62866SOL    HW190495   1.665   2.802  10.701
62866SOL    HW290496   1.751   2.689  10.754
62867SOL     OW90497  14.037   5.637   1.764
62867SOL    HW190498  13.962   5.625   1.707
62867SOL    HW290499  13.999   5.644   1.852
62868SOL     OW90500  12.130   0.695   2.142
62868SOL    HW190501  12.147   0.679   2.050
62868SOL    HW290502  12.210   0.737   2.175
62869SOL     OW90503   2.673  12.555   0.329
62869SOL    HW190504   2.696  12.466   0.356
62869SOL    HW290505   2.713  12.610   0.396
62870SOL     OW90506   4.666   7.231  11.844
62870SOL    HW190507   4.737   7.226  11.779
62870SOL    HW290508   4.678   7.153  11.898
62871SOL     OW90509  13.841   3.867   9.331
62871SOL    HW190510  13.922   3.914   9.307
62871SOL    HW290511  13.866   3.775   9.330
62872SOL     OW90512   9.674   0.513   5.118
62872SOL    HW190513   9.752   0.558   5.087
62872SOL    HW290514   9.645   0.461   5.043
62873SOL     OW90515  14.503  13.263  12.390
62873SOL    HW190516  14.409  13.248  12.401
62873SOL    HW290517  14.521  13.240  12.299
62874SOL     OW90518   6.403   2.440   0.386
62874SOL    HW190519   6.441   2.372   0.330
62874SOL    HW290520   6.476   2.499   0.406
62875SOL     OW90521  12.705   0.577   5.278
62875SOL    HW190522  12.672   0.499   5.323
62875SOL    HW290523  12.772   0.543   5.218
62876SOL     OW90524   0.639   7.603   5.283
62876SOL    HW190525   0.611   7.580   5.194
62876SOL    HW290526   0.733   7.585   5.283
62877SOL     OW90527  13.714   0.685   9.427
62877SOL    HW190528  13.656   0.693   9.503
62877SOL    HW290529  13.674   0.617   9.373
62878SOL     OW90530   1.776  10.698   8.724
62878SOL    HW190531   1.763  10.747   8.805
62878SOL    HW290532   1.870  10.684   8.719
62879SOL     OW90533   7.589   7.843   2.142
62879SOL    HW190534   7.634   7.908   2.088
62879SOL    HW290535   7.496   7.855   2.123
62880SOL     OW90536   2.455  12.715   9.899
62880SOL    HW190537   2.488  12.628   9.878
62880SOL    HW290538   2.427  12.709   9.990
62881SOL     OW90539  13.553   5.307  10.999
62881SOL    HW190540  13.556   5.393  10.956
62881SOL    HW290541  13.620   5.313  11.067
62882SOL     OW90542   4.783  12.170   5.108
62882SOL    HW190543   4.845  12.107   5.072
62882SOL    HW290544   4.835  12.226   5.165
62883SOL     OW90545   6.389  10.299   8.652
62883SOL    HW190546   6.303  10.332   8.679
62883SOL    HW290547   6.437  10.288   8.734
62884SOL     OW90548  14.017   4.858   5.373
62884SOL    HW190549  13.979   4.823   5.454
62884SOL    HW290550  14.092   4.909   5.402
62885SOL     OW90551   6.448   0.975   8.781
62885SOL    HW190552   6.444   0.952   8.874
62885SOL    HW290553   6.398   0.907   8.737
62886SOL     OW90554  13.679   4.763  13.589
62886SOL    HW190555  13.699   4.823  13.517
62886SOL    HW290556  13.625   4.816  13.649
62887SOL     OW90557  14.699   6.416   8.805
62887SOL    HW190558  14.715   6.323   8.821
62887SOL    HW290559  14.786   6.454   8.794
62888SOL     OW90560   3.984   2.546   6.120
62888SOL    HW190561   3.926   2.474   6.146
62888SOL    HW290562   3.927   2.609   6.078
62889SOL     OW90563   1.228  10.869   6.405
62889SOL    HW190564   1.146  10.914   6.428
62889SOL    HW290565   1.217  10.780   6.438
62890SOL     OW90566  10.750   1.762   1.002
62890SOL    HW190567  10.746   1.837   1.061
62890SOL    HW290568  10.841   1.734   1.005
62891SOL     OW90569   8.100  12.371  12.780
62891SOL    HW190570   8.158  12.436  12.818
62891SOL    HW290571   8.019  12.379  12.830
62892SOL     OW90572   6.760   1.594   1.828
62892SOL    HW190573   6.849   1.627   1.841
62892SOL    HW290574   6.704   1.669   1.846
62893SOL     OW90575  10.024  12.451  11.586
62893SOL    HW190576  10.113  12.465  11.619
62893SOL    HW290577  10.012  12.521  11.521
62894SOL     OW90578  13.173   7.289   7.810
62894SOL    HW190579  13.200   7.303   7.901
62894SOL    HW290580  13.149   7.377   7.778
62895SOL     OW90581   4.390   7.130  10.667
62895SOL    HW190582   4.330   7.157  10.598
62895SOL    HW290583   4.400   7.208  10.722
62896SOL     OW90584  13.555   6.620   6.847
62896SOL    HW190585  13.648   6.633   6.868
62896SOL    HW290586  13.551   6.624   6.752
62897SOL     OW90587   7.314  13.455   6.739
62897SOL    HW190588   7.299  13.532   6.684
62897SOL    HW290589   7.261  13.471   6.817
62898SOL     OW90590   4.989  12.322   2.673
62898SOL    HW190591   4.944  12.406   2.674
62898SOL    HW290592   5.035  12.320   2.590
62899SOL     OW90593  14.696   7.703  11.234
62899SOL    HW190594  14.755   7.772  11.266
62899SOL    HW290595  14.669   7.656  11.313
62900SOL     OW90596  13.644   1.077   0.977
62900SOL    HW190597  13.666   1.072   0.884
62900SOL    HW290598  13.695   1.006   1.017
62901SOL     OW90599   3.879   7.978   0.043
62901SOL    HW190600   3.820   8.022   0.105
62901SOL    HW290601   3.866   8.025  14.848
62902SOL     OW90602   9.253  13.445   7.374
62902SOL    HW190603   9.212  13.416   7.292
62902SOL    HW290604   9.191  13.507   7.411
62903SOL     OW90605   4.624   6.308   9.287
62903SOL    HW190606   4.694   6.275   9.343
62903SOL    HW290607   4.581   6.230   9.253
62904SOL     OW90608   1.674   3.276  10.666
62904SOL    HW190609   1.752   3.316  10.706
62904SOL    HW290610   1.700   3.185  10.650
62905SOL     OW90611   8.855   3.198  11.721
62905SOL    HW190612   8.941   3.170  11.690
62905SOL    HW290613   8.816   3.119  11.758
62906SOL     OW90614   9.935   6.237   3.218
62906SOL    HW190615  10.009   6.254   3.160
62906SOL    HW290616   9.858   6.253   3.164
62907SOL     OW90617   7.868   2.229   6.499
62907SOL    HW190618   7.952   2.183   6.503
62907SOL    HW290619   7.834   2.224   6.589
62908SOL     OW90620  12.857   9.782  12.241
62908SOL    HW190621  12.766   9.776  12.267
62908SOL    HW290622  12.903   9.809  12.320
62909SOL     OW90623   1.061   1.713   8.875
62909SOL    HW190624   1.033   1.738   8.787
62909SOL    HW290625   1.126   1.645   8.860
62910SOL     OW90626  13.807   1.977   2.793
62910SOL    HW190627  13.741   1.933   2.739
62910SOL    HW290628  13.769   2.064   2.810
62911SOL     OW90629   1.851  11.307   4.035
62911SOL    HW190630   1.937  11.320   4.075
62911SOL    HW290631   1.827  11.217   4.058
62912SOL     OW90632   5.412  11.124   0.081
62912SOL    HW190633   5.351  11.077   0.024
62912SOL    HW290634   5.357  11.162   0.149
62913SOL     OW90635   9.358   1.894   3.546
62913SOL    HW190636   9.421   1.871   3.614
62913SOL    HW290637   9.397   1.861   3.465
62914SOL     OW90638   5.097   4.234   4.970
62914SOL    HW190639   5.087   4.190   5.055
62914SOL    HW290640   5.188   4.217   4.945
62915SOL     OW90641   0.029   2.399  10.336
62915SOL    HW190642   0.062   2.397  10.426
62915SOL    HW290643   0.107   2.384  10.282
62916SOL     OW90644   9.475   8.513   7.945
62916SOL    HW190645   9.530   8.471   7.879
62916SOL    HW290646   9.398   8.543   7.897
62917SOL     OW90647   7.084   2.208   0.134
62917SOL    HW190648   6.994   2.221   0.165
62917SOL    HW290649   7.103   2.116   0.156
62918SOL     OW90650   5.130   6.325   6.112
62918SOL    HW190651   5.036   6.313   6.115
62918SOL    HW290652   5.156   6.338   6.203
62919SOL     OW90653   6.691   4.743  10.019
62919SOL    HW190654   6.729   4.739  10.107
62919SOL    HW290655   6.726   4.823   9.981
62920SOL     OW90656   7.499  13.578   6.246
62920SOL    HW190657   7.520  13.593   6.338
62920SOL    HW290658   7.583  13.582   6.201
62921SOL     OW90659  13.964   2.482   3.016
62921SOL    HW190660  14.008   2.412   2.967
62921SOL    HW290661  13.904   2.436   3.075
62922SOL     OW90662   7.110   4.847   0.082
62922SOL    HW190663   7.155   4.840   0.166
62922SOL    HW290664   7.019   4.827   0.102
62923SOL     OW90665   3.183  13.012   7.366
62923SOL    HW190666   3.162  12.935   7.419
62923SOL    HW290667   3.262  12.988   7.318
62924SOL     OW90668   0.068   4.669  11.115
62924SOL    HW190669   0.072   4.635  11.205
62924SOL    HW290670   0.093   4.594  11.061
62925SOL     OW90671  14.642  12.703  14.407
62925SOL    HW190672  14.649  12.637  14.338
62925SOL    HW290673  14.548  12.705  14.428
62926SOL     OW90674   8.447   8.663   8.579
62926SOL    HW190675   8.477   8.630   8.494
62926SOL    HW290676   8.380   8.728   8.557
62927SOL     OW90677   2.759  11.142   4.248
62927SOL    HW190678   2.718  11.162   4.165
62927SOL    HW290679   2.838  11.196   4.250
62928SOL     OW90680   8.858   8.579   4.886
62928SOL    HW190681   8.867   8.621   4.971
62928SOL    HW290682   8.869   8.486   4.904
62929SOL     OW90683   5.173  14.884  11.933
62929SOL    HW190684   5.219  14.813  11.979
62929SOL    HW290685   5.220   0.076  11.959
62930SOL     OW90686  10.915   6.305   6.972
62930SOL    HW190687  10.923   6.388   6.925
62930SOL    HW290688  10.827   6.308   7.010
62931SOL     OW90689   8.037  12.833  13.426
62931SOL    HW190690   7.965  12.792  13.473
62931SOL    HW290691   8.091  12.759  13.396
62932SOL     OW90692   0.470   3.739   6.375
62932SOL    HW190693   0.551   3.774   6.339
62932SOL    HW290694   0.464   3.776   6.463
62933SOL     OW90695   2.813   8.610  11.907
62933SOL    HW190696   2.810   8.602  12.002
62933SOL    HW290697   2.838   8.523  11.876
62934SOL     OW90698   2.509  14.646   4.010
62934SOL    HW190699   2.443  14.685   3.952
62934SOL    HW290700   2.568  14.600   3.951
62935SOL     OW90701   8.690   3.483  14.201
62935SOL    HW190702   8.599   3.475  14.228
62935SOL    HW290703   8.735   3.411  14.246
62936SOL     OW90704   5.926   1.623   7.410
62936SOL    HW190705   5.931   1.590   7.500
62936SOL    HW290706   6.017   1.626   7.381
62937SOL     OW90707   9.323   9.746   8.695
62937SOL    HW190708   9.271   9.692   8.755
62937SOL    HW290709   9.414   9.732   8.723
62938SOL     OW90710   8.872  14.214   1.221
62938SOL    HW190711   8.823  14.195   1.141
62938SOL    HW290712   8.813  14.190   1.292
62939SOL     OW90713   7.448  12.424   2.541
62939SOL    HW190714   7.495  12.343   2.557
62939SOL    HW290715   7.463  12.476   2.620
62940SOL     OW90716   8.875   2.114   7.157
62940SOL    HW190717   8.787   2.084   7.137
62940SOL    HW290718   8.867   2.209   7.164
62941SOL     OW90719   1.622   8.096   2.786
62941SOL    HW190720   1.711   8.064   2.770
62941SOL    HW290721   1.626   8.135   2.873
62942SOL     OW90722   4.366   8.771   0.788
62942SOL    HW190723   4.364   8.694   0.731
62942SOL    HW290724   4.459   8.787   0.803
62943SOL     OW90725   1.457   5.686   4.624
62943SOL    HW190726   1.506   5.604   4.628
62943SOL    HW290727   1.472   5.728   4.709
62944SOL     OW90728   2.827   0.556   0.213
62944SOL    HW190729   2.738   0.575   0.243
62944SOL    HW290730   2.883   0.607   0.271
62945SOL     OW90731   1.921   2.351   0.981
62945SOL    HW190732   1.867   2.425   1.010
62945SOL    HW290733   1.858   2.285   0.952
62946SOL     OW90734   2.229   0.336  14.704
62946SOL    HW190735   2.234   0.394  14.629
62946SOL    HW290736   2.147   0.360  14.748
62947SOL     OW90737   9.188   5.879  14.127
62947SOL    HW190738   9.163   5.787  14.139
62947SOL    HW290739   9.272   5.887  14.173
62948SOL     OW90740   1.066   4.001   8.060
62948SOL    HW190741   0.979   4.024   8.025
62948SOL    HW290742   1.050   3.975   8.150
62949SOL     OW90743   4.592   6.752   8.056
62949SOL    HW190744   4.675   6.789   8.087
62949SOL    HW290745   4.570   6.685   8.121
62950SOL     OW90746   9.072   5.450   0.322
62950SOL    HW190747   8.988   5.494   0.338
62950SOL    HW290748   9.128   5.478   0.395
62951SOL     OW90749  11.939  10.053   1.162
62951SOL    HW190750  12.025  10.065   1.120
62951SOL    HW290751  11.942   9.965   1.198
62952SOL     OW90752  10.092   0.761  10.252
62952SOL    HW190753  10.105   0.803  10.168
62952SOL    HW290754  10.093   0.832  10.316
62953SOL     OW90755   9.779   8.127   1.337
62953SOL    HW190756   9.817   8.080   1.262
62953SOL    HW290757   9.854   8.146   1.393
62954SOL     OW90758   9.491  10.273   3.085
62954SOL    HW190759   9.581  10.305   3.099
62954SOL    HW290760   9.458  10.259   3.174
62955SOL     OW90761   7.346  11.704  14.068
62955SOL    HW190762   7.397  11.747  13.999
62955SOL    HW290763   7.411  11.655  14.118
62956SOL     OW90764   8.811   1.051  10.917
62956SOL    HW190765   8.769   0.967  10.936
62956SOL    HW290766   8.829   1.049  10.823
62957SOL     OW90767   4.075   6.060   9.901
62957SOL    HW190768   3.983   6.042   9.924
62957SOL    HW290769   4.105   6.122   9.968
62958SOL     OW90770   2.110   0.443   6.119
62958SOL    HW190771   2.190   0.441   6.171
62958SOL    HW290772   2.051   0.501   6.167
62959SOL     OW90773   9.784   8.910  10.043
62959SOL    HW190774   9.773   8.824  10.083
62959SOL    HW290775   9.710   8.961  10.076
62960SOL     OW90776  13.660   7.152  13.081
62960SOL    HW190777  13.647   7.228  13.024
62960SOL    HW290778  13.594   7.089  13.051
62961SOL     OW90779   2.835  14.710  12.262
62961SOL    HW190780   2.802  14.761  12.188
62961SOL    HW290781   2.930  14.725  12.262
62962SOL     OW90782  12.629   0.004  14.862
62962SOL    HW190783  12.564   0.064  14.824
62962SOL    HW290784  12.579  14.836   0.034
62963SOL     OW90785  11.826   2.105   5.008
62963SOL    HW190786  11.905   2.079   4.962
62963SOL    HW290787  11.760   2.042   4.979
62964SOL     OW90788   3.018   8.444  14.081
62964SOL    HW190789   3.008   8.360  14.125
62964SOL    HW290790   2.937   8.454  14.031
62965SOL     OW90791   9.301  10.435   8.757
62965SOL    HW190792   9.211  10.404   8.762
62965SOL    HW290793   9.318  10.444   8.663
62966SOL     OW90794   6.978   7.925  11.221
62966SOL    HW190795   6.974   7.908  11.315
62966SOL    HW290796   7.059   7.884  11.192
62967SOL     OW90797  10.207   5.899   6.903
62967SOL    HW190798  10.273   5.872   6.967
62967SOL    HW290799  10.257   5.926   6.826
62968SOL     OW90800  13.939   2.452  12.661
62968SOL    HW190801  13.896   2.457  12.746
62968SOL    HW290802  13.953   2.358  12.646
62969SOL     OW90803   1.945  10.878  12.333
62969SOL    HW190804   1.984  10.868  12.420
62969SOL    HW290805   1.955  10.792  12.292
62970SOL     OW90806   0.042  10.682   8.095
62970SOL    HW190807   0.114  10.735   8.131
62970SOL    HW290808   0.074  10.654   8.009
62971SOL     OW90809  10.618   5.407   3.112
62971SOL    HW190810  10.588   5.345   3.045
62971SOL    HW290811  10.709   5.382   3.129
62972SOL     OW90812   8.829  11.575   3.077
62972SOL    HW190813   8.914  11.619   3.067
62972SOL    HW290814   8.848  11.497   3.129
62973SOL     OW90815   4.018  13.882   2.122
62973SOL    HW190816   3.927  13.854   2.133
62973SOL    HW290817   4.013  13.974   2.097
62974SOL     OW90818   8.201   4.058  13.640
62974SOL    HW190819   8.240   4.118  13.704
62974SOL    HW290820   8.273   4.038  13.579
62975SOL     OW90821  14.624   9.653   1.895
62975SOL    HW190822  14.713   9.645   1.861
62975SOL    HW290823  14.627   9.730   1.953
62976SOL     OW90824  11.350  12.612   4.592
62976SOL    HW190825  11.342  12.584   4.501
62976SOL    HW290826  11.328  12.534   4.643
62977SOL     OW90827   6.660   6.659   8.915
62977SOL    HW190828   6.658   6.585   8.975
62977SOL    HW290829   6.670   6.736   8.971
62978SOL     OW90830   6.573   3.528   7.442
62978SOL    HW190831   6.574   3.508   7.349
62978SOL    HW290832   6.597   3.620   7.447
62979SOL     OW90833  10.503   3.466   5.110
62979SOL    HW190834  10.580   3.425   5.149
62979SOL    HW290835  10.508   3.557   5.139
62980SOL     OW90836   2.508   1.425   6.150
62980SOL    HW190837   2.417   1.400   6.167
62980SOL    HW290838   2.549   1.425   6.237
62981SOL     OW90839   4.457   2.092  11.404
62981SOL    HW190840   4.487   2.177  11.439
62981SOL    HW290841   4.488   2.028  11.468
62982SOL     OW90842  13.253   6.613  14.663
62982SOL    HW190843  13.200   6.635  14.586
62982SOL    HW290844  13.266   6.697  14.706
62983SOL     OW90845  13.284   8.340   7.145
62983SOL    HW190846  13.247   8.428   7.152
62983SOL    HW290847  13.373   8.355   7.112
62984SOL     OW90848  14.726   3.016  14.003
62984SOL    HW190849  14.766   2.989  14.085
62984SOL    HW290850  14.636   3.039  14.026
62985SOL     OW90851   8.557   1.240   3.182
62985SOL    HW190852   8.630   1.178   3.182
62985SOL    HW290853   8.549   1.267   3.274
62986SOL     OW90854   2.834  10.239   2.705
62986SOL    HW190855   2.766  10.183   2.742
62986SOL    HW290856   2.861  10.295   2.778
62987SOL     OW90857   9.745   8.967  14.484
62987SOL    HW190858   9.666   9.015  14.462
62987SOL    HW290859   9.713   8.881  14.515
62988SOL     OW90860   0.470  14.040  11.813
62988SOL    HW190861   0.413  14.089  11.753
62988SOL    HW290862   0.514  13.976  11.756
62989SOL     OW90863   8.872   9.893   6.864
62989SOL    HW190864   8.856   9.799   6.859
62989SOL    HW290865   8.785   9.933   6.860
62990SOL     OW90866   9.152   1.626   6.494
62990SOL    HW190867   9.095   1.597   6.565
62990SOL    HW290868   9.237   1.588   6.514
62991SOL     OW90869   6.978   1.750   9.914
62991SOL    HW190870   6.978   1.797   9.831
62991SOL    HW290871   6.995   1.659   9.890
62992SOL     OW90872   2.567   4.143  12.300
62992SOL    HW190873   2.599   4.208  12.237
62992SOL    HW290874   2.625   4.068  12.290
62993SOL     OW90875   5.474   6.161   4.822
62993SOL    HW190876   5.456   6.238   4.876
62993SOL    HW290877   5.469   6.192   4.732
62994SOL     OW90878  14.597   7.390   9.123
62994SOL    HW190879  14.615   7.299   9.143
62994SOL    HW290880  14.673   7.438   9.157
62995SOL     OW90881  12.710  13.876   0.268
62995SOL    HW190882  12.619  13.855   0.289
62995SOL    HW290883  12.720  13.854   0.175
62996SOL     OW90884   7.220  14.851   4.190
62996SOL    HW190885   7.199  14.776   4.246
62996SOL    HW290886   7.302  14.827   4.148
62997SOL     OW90887   7.890   6.011   3.877
62997SOL    HW190888   7.967   6.064   3.854
62997SOL    HW290889   7.817   6.073   3.870
62998SOL     OW90890   7.344   5.103   7.844
62998SOL    HW190891   7.297   5.168   7.792
62998SOL    HW290892   7.436   5.119   7.825
62999SOL     OW90893   8.846  11.275   9.468
62999SOL    HW190894   8.879  11.363   9.488
62999SOL    HW290895   8.759  11.289   9.432
63000SOL     OW90896  11.278  11.033   0.467
63000SOL    HW190897  11.261  10.976   0.541
63000SOL    HW290898  11.191  11.050   0.430
63001SOL     OW90899   8.632   1.604  14.608
63001SOL    HW190900   8.581   1.677  14.642
63001SOL    HW290901   8.697   1.586  14.676
63002SOL     OW90902   5.068   0.924  12.863
63002SOL    HW190903   5.142   0.960  12.815
63002SOL    HW290904   5.044   0.845  12.815
63003SOL     OW90905   0.829   0.202  11.345
63003SOL    HW190906   0.918   0.228  11.325
63003SOL    HW290907   0.781   0.284  11.356
63004SOL     OW90908   7.175  14.454   4.752
63004SOL    HW190909   7.100  14.399   4.729
63004SOL    HW290910   7.248  14.419   4.700
63005SOL     OW90911   8.290   7.770  12.517
63005SOL    HW190912   8.257   7.694  12.563
63005SOL    HW290913   8.212   7.811  12.479
63006SOL     OW90914   4.768   5.430  10.045
63006SOL    HW190915   4.834   5.464  10.106
63006SOL    HW290916   4.815   5.421   9.962
63007SOL     OW90917   9.271   0.175  12.275
63007SOL    HW190918   9.189   0.210  12.309
63007SOL    HW290919   9.334   0.190  12.347
63008SOL     OW90920  10.336  12.377  13.612
63008SOL    HW190921  10.380  12.435  13.675
63008SOL    HW290922  10.248  12.366  13.649
63009SOL     OW90923   0.467   5.349  12.167
63009SOL    HW190924   0.372   5.335  12.163
63009SOL    HW290925   0.504   5.275  12.117
63010SOL     OW90926   4.653   9.021   4.470
63010SOL    HW190927   4.629   8.943   4.521
63010SOL    HW290928   4.748   9.016   4.462
63011SOL     OW90929   3.191  11.968  14.790
63011SOL    HW190930   3.243  11.932  14.862
63011SOL    HW290931   3.206  11.909  14.717
63012SOL     OW90932   4.419   3.015  10.334
63012SOL    HW190933   4.335   3.059  10.319
63012SOL    HW290934   4.405   2.963  10.413
63013SOL     OW90935   4.346  13.098   1.203
63013SOL    HW190936   4.390  13.183   1.200
63013SOL    HW290937   4.389  13.051   1.274
63014SOL     OW90938   7.453   8.994   8.594
63014SOL    HW190939   7.462   8.934   8.520
63014SOL    HW290940   7.389   8.952   8.651
63015SOL     OW90941   0.374   0.026   9.706
63015SOL    HW190942   0.316  14.856   9.657
63015SOL    HW290943   0.364  14.886   9.797
63016SOL     OW90944   5.179  13.173   6.533
63016SOL    HW190945   5.124  13.143   6.606
63016SOL    HW290946   5.117  13.198   6.465
63017SOL     OW90947   8.973   6.840   1.394
63017SOL    HW190948   8.967   6.770   1.459
63017SOL    HW290949   9.010   6.914   1.442
63018SOL     OW90950   7.998   2.104   4.348
63018SOL    HW190951   8.074   2.083   4.293
63018SOL    HW290952   7.973   2.192   4.322
63019SOL     OW90953   7.042  14.714   7.417
63019SOL    HW190954   7.006  14.690   7.332
63019SOL    HW290955   7.099  14.789   7.399
63020SOL     OW90956   3.255   3.468   6.459
63020SOL    HW190957   3.168   3.480   6.421
63020SOL    HW290958   3.310   3.533   6.414
63021SOL     OW90959   1.731  14.480  11.395
63021SOL    HW190960   1.653  14.522  11.360
63021SOL    HW290961   1.735  14.395  11.352
63022SOL     OW90962  13.512   6.991   8.967
63022SOL    HW190963  13.596   6.999   9.013
63022SOL    HW290964  13.487   7.082   8.947
63023SOL     OW90965   2.616   1.775   5.208
63023SOL    HW190966   2.618   1.859   5.161
63023SOL    HW290967   2.544   1.784   5.270
63024SOL     OW90968   8.511   4.285   1.879
63024SOL    HW190969   8.486   4.299   1.971
63024SOL    HW290970   8.528   4.191   1.872
63025SOL     OW90971   0.415  11.700   6.521
63025SOL    HW190972   0.472  11.648   6.578
63025SOL    HW290973   0.327  11.670   6.542
63026SOL     OW90974  13.743   1.331   9.991
63026SOL    HW190975  13.825   1.380   9.991
63026SOL    HW290976  13.683   1.386  10.042
63027SOL     OW90977   7.862  13.325  10.735
63027SOL    HW190978   7.861  13.349  10.827
63027SOL    HW290979   7.788  13.265  10.725
63028SOL     OW90980  12.838   9.107   7.437
63028SOL    HW190981  12.844   9.178   7.501
63028SOL    HW290982  12.808   9.150   7.357
63029SOL     OW90983   0.407  10.920   9.711
63029SOL    HW190984   0.362  11.001   9.734
63029SOL    HW290985   0.357  10.886   9.636
63030SOL     OW90986   9.368  13.998   1.254
63030SOL    HW190987   9.446  13.976   1.306
63030SOL    HW290988   9.400  14.000   1.163
63031SOL     OW90989   5.307   9.135  10.425
63031SOL    HW190990   5.357   9.054  10.411
63031SOL    HW290991   5.250   9.141  10.349
63032SOL     OW90992   6.961   1.212   7.626
63032SOL    HW190993   6.900   1.273   7.666
63032SOL    HW290994   6.966   1.239   7.534
63033SOL     OW90995   9.751   3.008   9.430
63033SOL    HW190996   9.795   3.085   9.466
63033SOL    HW290997   9.730   2.954   9.506
63034SOL     OW90998   0.044   3.824   1.992
63034SOL    HW190999   0.029   3.909   2.034
63034SOL    HW291000   0.022   3.760   2.060
63035SOL     OW91001  13.943  12.887  12.841
63035SOL    HW191002  13.957  12.802  12.798
63035SOL    HW291003  13.894  12.866  12.920
63036SOL     OW91004   8.671   5.285   8.365
63036SOL    HW191005   8.681   5.201   8.410
63036SOL    HW291006   8.751   5.333   8.387
63037SOL     OW91007  12.796   4.539  12.421
63037SOL    HW191008  12.866   4.547  12.356
63037SOL    HW291009  12.792   4.624  12.464
63038SOL     OW91010   1.114   2.989   1.252
63038SOL    HW191011   1.138   2.897   1.259
63038SOL    HW291012   1.038   2.998   1.309
63039SOL     OW91013  13.212   4.096  10.159
63039SOL    HW191014  13.242   4.053  10.239
63039SOL    HW291015  13.158   4.030  10.115
63040SOL     OW91016   2.717   6.151   8.437
63040SOL    HW191017   2.725   6.057   8.423
63040SOL    HW291018   2.719   6.189   8.348
63041SOL     OW91019  12.923   5.653   5.799
63041SOL    HW191020  12.899   5.698   5.719
63041SOL    HW291021  12.973   5.576   5.770
63042SOL     OW91022  10.255   2.782  14.255
63042SOL    HW191023  10.295   2.701  14.289
63042SOL    HW291024  10.216   2.824  14.331
63043SOL     OW91025   8.944   1.944  14.226
63043SOL    HW191026   9.035   1.952  14.198
63043SOL    HW291027   8.894   1.927  14.146
63044SOL     OW91028  14.737   6.540   1.852
63044SOL    HW191029  14.826   6.570   1.834
63044SOL    HW291030  14.682   6.588   1.790
63045SOL     OW91031   0.903   0.123   3.590
63045SOL    HW191032   0.978   0.113   3.649
63045SOL    HW291033   0.833   0.074   3.631
63046SOL     OW91034  10.312   9.786   0.559
63046SOL    HW191035  10.403   9.812   0.570
63046SOL    HW291036  10.310   9.742   0.474
63047SOL     OW91037  10.063   0.889   0.952
63047SOL    HW191038  10.081   0.964   0.896
63047SOL    HW291039  10.071   0.923   1.041
63048SOL     OW91040  11.232   1.294   2.282
63048SOL    HW191041  11.307   1.336   2.242
63048SOL    HW291042  11.218   1.215   2.230
63049SOL     OW91043   9.428  12.296  12.423
63049SOL    HW191044   9.497  12.280  12.359
63049SOL    HW291045   9.422  12.215  12.473
63050SOL     OW91046   3.407   5.112   8.306
63050SOL    HW191047   3.468   5.066   8.249
63050SOL    HW291048   3.461   5.151   8.374
63051SOL     OW91049   1.463   7.796   5.015
63051SOL    HW191050   1.536   7.743   5.050
63051SOL    HW291051   1.486   7.886   5.039
63052SOL     OW91052   2.219   1.498  11.063
63052SOL    HW191053   2.197   1.422  11.009
63052SOL    HW291054   2.154   1.497  11.134
63053SOL     OW91055   2.072   7.707   1.499
63053SOL    HW191056   2.006   7.759   1.546
63053SOL    HW291057   2.030   7.687   1.415
63054SOL     OW91058   9.080   4.066   0.732
63054SOL    HW191059   9.114   3.995   0.786
63054SOL    HW291060   9.157   4.121   0.714
63055SOL     OW91061   3.953   3.342  14.218
63055SOL    HW191062   3.906   3.280  14.274
63055SOL    HW291063   3.959   3.298  14.134
63056SOL     OW91064   2.613   7.731   4.031
63056SOL    HW191065   2.641   7.821   4.049
63056SOL    HW291066   2.663   7.706   3.953
63057SOL     OW91067  13.558   5.078   2.021
63057SOL    HW191068  13.499   5.096   2.094
63057SOL    HW291069  13.630   5.028   2.059
63058SOL     OW91070   4.901  12.917  12.388
63058SOL    HW191071   4.812  12.884  12.377
63058SOL    HW291072   4.910  12.929  12.483
63059SOL     OW91073  11.713   9.468   9.259
63059SOL    HW191074  11.708   9.564   9.260
63059SOL    HW291075  11.639   9.439   9.312
63060SOL     OW91076   6.128   3.193   7.435
63060SOL    HW191077   6.208   3.224   7.477
63060SOL    HW291078   6.057   3.225   7.491
63061SOL     OW91079   8.919  13.181   0.381
63061SOL    HW191080   9.003  13.177   0.334
63061SOL    HW291081   8.854  13.162   0.314
63062SOL     OW91082   5.394  11.416  10.262
63062SOL    HW191083   5.470  11.406  10.206
63062SOL    HW291084   5.369  11.326  10.285
63063SOL     OW91085   3.456   3.597   0.867
63063SOL    HW191086   3.529   3.556   0.821
63063SOL    HW291087   3.496   3.663   0.923
63064SOL     OW91088   4.448  14.064   5.539
63064SOL    HW191089   4.426  14.016   5.619
63064SOL    HW291090   4.368  14.058   5.486
63065SOL     OW91091   8.355   5.841   3.901
63065SOL    HW191092   8.321   5.826   3.989
63065SOL    HW291093   8.313   5.774   3.848
63066SOL     OW91094   1.320   5.779   8.091
63066SOL    HW191095   1.326   5.720   8.015
63066SOL    HW291096   1.276   5.727   8.158
63067SOL     OW91097   9.919   0.406   4.771
63067SOL    HW191098   9.969   0.484   4.749
63067SOL    HW291099   9.831   0.424   4.738
63068SOL     OW91100  14.858  11.158   8.262
63068SOL    HW191101  14.785  11.220   8.263
63068SOL    HW291102   0.036  11.198   8.320
63069SOL     OW91103   7.299   6.132   9.493
63069SOL    HW191104   7.273   6.181   9.570
63069SOL    HW291105   7.279   6.191   9.420
63070SOL     OW91106  11.567   2.762   9.957
63070SOL    HW191107  11.482   2.750   9.999
63070SOL    HW291108  11.620   2.807  10.023
63071SOL     OW91109   2.423  10.635   4.405
63071SOL    HW191110   2.374  10.656   4.485
63071SOL    HW291111   2.505  10.684   4.415
63072SOL     OW91112  12.827   9.730   5.955
63072SOL    HW191113  12.738   9.704   5.980
63072SOL    HW291114  12.820   9.824   5.940
63073SOL     OW91115   4.412   2.162   5.752
63073SOL    HW191116   4.386   2.174   5.844
63073SOL    HW291117   4.496   2.118   5.757
63074SOL     OW91118   9.717   7.772  13.740
63074SOL    HW191119   9.787   7.770  13.806
63074SOL    HW291120   9.658   7.841  13.772
63075SOL     OW91121   6.658   2.929   8.740
63075SOL    HW191122   6.617   2.935   8.827
63075SOL    HW291123   6.662   2.835   8.722
63076SOL     OW91124   9.712  14.758  10.941
63076SOL    HW191125   9.679  14.675  10.907
63076SOL    HW291126   9.803  14.761  10.911
63077SOL     OW91127   1.274   7.325   5.236
63077SOL    HW191128   1.311   7.242   5.265
63077SOL    HW291129   1.338   7.391   5.265
63078SOL     OW91130   0.076  13.069  12.465
63078SOL    HW191131   0.002  13.131  12.466
63078SOL    HW291132   0.061  13.016  12.387
63079SOL     OW91133  14.556   0.937   9.200
63079SOL    HW191134  14.527   0.900   9.117
63079SOL    HW291135  14.510   0.886   9.267
63080SOL     OW91136   7.934   6.636   6.748
63080SOL    HW191137   7.995   6.678   6.808
63080SOL    HW291138   7.946   6.542   6.763
63081SOL     OW91139   6.304   7.667  10.522
63081SOL    HW191140   6.298   7.585  10.474
63081SOL    HW291141   6.264   7.649  10.607
63082SOL     OW91142  10.859   5.891   2.052
63082SOL    HW191143  10.775   5.845   2.051
63082SOL    HW291144  10.857   5.943   2.132
63083SOL     OW91145   1.342  13.842   8.560
63083SOL    HW191146   1.289  13.772   8.598
63083SOL    HW291147   1.430  13.825   8.593
63084SOL     OW91148   1.868  13.209  12.890
63084SOL    HW191149   1.868  13.273  12.962
63084SOL    HW291150   1.887  13.125  12.933
63085SOL     OW91151   4.700  11.565   7.577
63085SOL    HW191152   4.675  11.501   7.510
63085SOL    HW291153   4.664  11.648   7.545
63086SOL     OW91154   1.467   3.123   3.587
63086SOL    HW191155   1.445   3.072   3.665
63086SOL    HW291156   1.384   3.161   3.559
63087SOL     OW91157   8.827   0.343   4.181
63087SOL    HW191158   8.884   0.416   4.156
63087SOL    HW291159   8.789   0.312   4.098
63088SOL     OW91160  10.483  11.484   2.927
63088SOL    HW191161  10.462  11.393   2.947
63088SOL    HW291162  10.450  11.534   3.002
63089SOL     OW91163  13.008  11.596   1.792
63089SOL    HW191164  13.024  11.502   1.783
63089SOL    HW291165  13.037  11.616   1.881
63090SOL     OW91166  14.817   8.237   4.152
63090SOL    HW191167  14.833   8.159   4.100
63090SOL    HW291168  14.796   8.205   4.240
63091SOL     OW91169   8.524   4.027  11.030
63091SOL    HW191170   8.538   3.962  10.961
63091SOL    HW291171   8.510   4.109  10.983
63092SOL     OW91172   5.354   4.683   5.699
63092SOL    HW191173   5.391   4.701   5.786
63092SOL    HW291174   5.418   4.718   5.638
63093SOL     OW91175  12.004  14.413  10.413
63093SOL    HW191176  11.947  14.368  10.350
63093SOL    HW291177  12.078  14.354  10.425
63094SOL     OW91178  14.171   5.340   0.337
63094SOL    HW191179  14.108   5.412   0.335
63094SOL    HW291180  14.174   5.314   0.430
63095SOL     OW91181  10.636   6.287   5.176
63095SOL    HW191182  10.706   6.300   5.240
63095SOL    HW291183  10.681   6.264   5.095
63096SOL     OW91184   6.479  12.350  13.942
63096SOL    HW191185   6.427  12.331  13.864
63096SOL    HW291186   6.484  12.446  13.945
63097SOL     OW91187   3.941   9.069  10.665
63097SOL    HW191188   3.988   9.123  10.729
63097SOL    HW291189   3.995   8.990  10.656
63098SOL     OW91190  14.481  12.616   1.236
63098SOL    HW191191  14.392  12.644   1.213
63098SOL    HW291192  14.471  12.524   1.261
63099SOL     OW91193   3.551  10.279  11.047
63099SOL    HW191194   3.512  10.202  11.088
63099SOL    HW291195   3.600  10.245  10.972
63100SOL     OW91196   7.263   6.095   3.593
63100SOL    HW191197   7.212   6.101   3.673
63100SOL    HW291198   7.209   6.043   3.534
63101SOL     OW91199  14.491  11.851  12.369
63101SOL    HW191200  14.433  11.873  12.442
63101SOL    HW291201  14.532  11.934  12.346
63102SOL     OW91202   5.070  12.814   5.333
63102SOL    HW191203   5.068  12.730   5.377
63102SOL    HW291204   4.997  12.810   5.271
63103SOL     OW91205  12.172   6.740   0.419
63103SOL    HW191206  12.126   6.656   0.419
63103SOL    HW291207  12.254   6.722   0.374
63104SOL     OW91208  11.827   1.422   8.949
63104SOL    HW191209  11.886   1.484   8.991
63104SOL    HW291210  11.766   1.476   8.900
63105SOL     OW91211   1.820  12.516   9.187
63105SOL    HW191212   1.853  12.595   9.144
63105SOL    HW291213   1.896  12.460   9.196
63106SOL     OW91214   3.987   2.224   0.393
63106SOL    HW191215   4.024   2.301   0.349
63106SOL    HW291216   4.052   2.155   0.377
63107SOL     OW91217  13.192   3.862  13.560
63107SOL    HW191218  13.118   3.801  13.561
63107SOL    HW291219  13.191   3.900  13.472
63108SOL     OW91220  10.421   9.162  13.915
63108SOL    HW191221  10.409   9.200  13.828
63108SOL    HW291222  10.447   9.072  13.898
63109SOL     OW91223   4.152   8.863   4.936
63109SOL    HW191224   4.075   8.895   4.983
63109SOL    HW291225   4.117   8.799   4.874
63110SOL     OW91226   2.637  14.734   6.277
63110SOL    HW191227   2.705  14.669   6.258
63110SOL    HW291228   2.656  14.763   6.366
63111SOL     OW91229   5.379   5.766   8.092
63111SOL    HW191230   5.288   5.744   8.078
63111SOL    HW291231   5.412   5.789   8.005
63112SOL     OW91232   8.033   5.721   5.822
63112SOL    HW191233   7.966   5.654   5.835
63112SOL    HW291234   8.024   5.779   5.898
63113SOL     OW91235  10.294  12.136   8.609
63113SOL    HW191236  10.345  12.156   8.531
63113SOL    HW291237  10.310  12.209   8.669
63114SOL     OW91238   9.939  13.336   7.482
63114SOL    HW191239   9.919  13.254   7.527
63114SOL    HW291240  10.034  13.337   7.473
63115SOL     OW91241   0.014   1.580   6.825
63115SOL    HW191242   0.025   1.663   6.780
63115SOL    HW291243   0.047   1.514   6.765
63116SOL     OW91244   4.307  14.508   3.387
63116SOL    HW191245   4.352  14.425   3.379
63116SOL    HW291246   4.336  14.559   3.311
63117SOL     OW91247   3.543   2.350   4.096
63117SOL    HW191248   3.484   2.374   4.025
63117SOL    HW291249   3.557   2.431   4.145
63118SOL     OW91250  10.642   7.978  11.912
63118SOL    HW191251  10.715   7.917  11.909
63118SOL    HW291252  10.650   8.021  11.998
63119SOL     OW91253   0.775   3.576   8.473
63119SOL    HW191254   0.848   3.587   8.412
63119SOL    HW291255   0.817   3.571   8.559
63120SOL     OW91256  10.823   9.006   9.688
63120SOL    HW191257  10.750   9.034   9.631
63120SOL    HW291258  10.806   9.049   9.772
63121SOL     OW91259   5.410   3.207  14.204
63121SOL    HW191260   5.356   3.158  14.141
63121SOL    HW291261   5.495   3.216  14.161
63122SOL     OW91262   0.737  12.784   3.367
63122SOL    HW191263   0.724  12.704   3.316
63122SOL    HW291264   0.792  12.757   3.440
63123SOL     OW91265   0.163  11.732   4.987
63123SOL    HW191266   0.070  11.754   4.996
63123SOL    HW291267   0.167  11.683   4.905
63124SOL     OW91268  11.387  14.105   1.998
63124SOL    HW191269  11.431  14.149   1.925
63124SOL    HW291270  11.388  14.012   1.973
63125SOL     OW91271   8.477  13.200   4.552
63125SOL    HW191272   8.450  13.147   4.477
63125SOL    HW291273   8.517  13.137   4.612
63126SOL     OW91274  13.761  13.324   3.381
63126SOL    HW191275  13.851  13.303   3.355
63126SOL    HW291276  13.765  13.415   3.411
63127SOL     OW91277  10.211   1.682   7.228
63127SOL    HW191278  10.263   1.748   7.274
63127SOL    HW291279  10.171   1.629   7.298
63128SOL     OW91280   5.625   3.731  10.645
63128SOL    HW191281   5.656   3.803  10.590
63128SOL    HW291282   5.704   3.693  10.682
63129SOL     OW91283   2.165   3.826   9.656
63129SOL    HW191284   2.222   3.900   9.672
63129SOL    HW291285   2.125   3.844   9.570
63130SOL     OW91286   4.152  13.070   2.047
63130SOL    HW191287   4.119  13.136   1.986
63130SOL    HW291288   4.124  13.100   2.133
63131SOL     OW91289   2.938  10.538   1.896
63131SOL    HW191290   2.904  10.627   1.892
63131SOL    HW291291   2.881  10.493   1.958
63132SOL     OW91292   2.574  10.523  13.448
63132SOL    HW191293   2.614  10.605  13.476
63132SOL    HW291294   2.522  10.494  13.523
63133SOL     OW91295   1.841  11.525   9.698
63133SOL    HW191296   1.875  11.505   9.786
63133SOL    HW291297   1.809  11.615   9.705
63134SOL     OW91298   6.932  11.672  11.699
63134SOL    HW191299   6.884  11.634  11.773
63134SOL    HW291300   6.969  11.753  11.734
63135SOL     OW91301  14.627   4.430   6.585
63135SOL    HW191302  14.634   4.525   6.596
63135SOL    HW291303  14.647   4.415   6.493
63136SOL     OW91304  11.393   9.078   7.299
63136SOL    HW191305  11.345   9.031   7.367
63136SOL    HW291306  11.348   9.163   7.292
63137SOL     OW91307   3.313  14.484   2.098
63137SOL    HW191308   3.378  14.492   2.168
63137SOL    HW291309   3.287  14.392   2.100
63138SOL     OW91310   2.234   4.446   8.393
63138SOL    HW191311   2.193   4.393   8.461
63138SOL    HW291312   2.232   4.535   8.428
63139SOL     OW91313  12.654   5.845  13.755
63139SOL    HW191314  12.575   5.821  13.707
63139SOL    HW291315  12.643   5.937  13.778
63140SOL     OW91316  12.985  14.374   4.914
63140SOL    HW191317  12.978  14.309   4.844
63140SOL    HW291318  12.908  14.429   4.904
63141SOL     OW91319   5.649  12.136   2.385
63141SOL    HW191320   5.578  12.184   2.342
63141SOL    HW291321   5.626  12.139   2.478
63142SOL     OW91322   2.008   7.314   1.865
63142SOL    HW191323   1.956   7.305   1.786
63142SOL    HW291324   2.062   7.391   1.850
63143SOL     OW91325   6.816   2.802   2.216
63143SOL    HW191326   6.747   2.764   2.270
63143SOL    HW291327   6.884   2.828   2.278
63144SOL     OW91328   3.359   4.383   4.214
63144SOL    HW191329   3.311   4.417   4.139
63144SOL    HW291330   3.400   4.460   4.254
63145SOL     OW91331   1.012   8.480   9.741
63145SOL    HW191332   1.066   8.508   9.814
63145SOL    HW291333   0.971   8.398   9.771
63146SOL     OW91334   6.375   9.877   9.894
63146SOL    HW191335   6.460   9.856   9.932
63146SOL    HW291336   6.389   9.960   9.848
63147SOL     OW91337   0.526   8.541   9.952
63147SOL    HW191338   0.496   8.594  10.026
63147SOL    HW291339   0.618   8.566   9.941
63148SOL     OW91340  12.584  13.191   9.699
63148SOL    HW191341  12.510  13.234   9.741
63148SOL    HW291342  12.547  13.112   9.660
63149SOL     OW91343   3.146   7.787  12.490
63149SOL    HW191344   3.155   7.736  12.570
63149SOL    HW291345   3.052   7.783  12.470
63150SOL     OW91346   0.508  11.950  14.594
63150SOL    HW191347   0.597  11.936  14.559
63150SOL    HW291348   0.474  12.023  14.543
63151SOL     OW91349   3.587   5.861   5.510
63151SOL    HW191350   3.498   5.854   5.544
63151SOL    HW291351   3.578   5.855   5.415
63152SOL     OW91352  11.514   9.244  10.697
63152SOL    HW191353  11.487   9.325  10.740
63152SOL    HW291354  11.454   9.237  10.622
63153SOL     OW91355   0.244   1.305   9.465
63153SOL    HW191356   0.178   1.335   9.528
63153SOL    HW291357   0.327   1.317   9.509
63154SOL     OW91358   6.384   9.738   5.233
63154SOL    HW191359   6.415   9.806   5.173
63154SOL    HW291360   6.416   9.656   5.194
63155SOL     OW91361   0.536   1.077  11.324
63155SOL    HW191362   0.453   1.124  11.335
63155SOL    HW291363   0.601   1.146  11.312
63156SOL     OW91364   6.189   0.886   5.454
63156SOL    HW191365   6.233   0.940   5.389
63156SOL    HW291366   6.159   0.948   5.521
63157SOL     OW91367   5.952   9.256   8.877
63157SOL    HW191368   5.887   9.325   8.864
63157SOL    HW291369   5.962   9.216   8.790
63158SOL     OW91370   5.030   8.325  10.273
63158SOL    HW191371   5.118   8.303  10.242
63158SOL    HW291372   5.043   8.402  10.329
63159SOL     OW91373   7.995   0.850  12.396
63159SOL    HW191374   8.007   0.767  12.443
63159SOL    HW291375   8.068   0.854  12.335
63160SOL     OW91376   4.917   6.939   3.728
63160SOL    HW191377   4.965   6.883   3.789
63160SOL    HW291378   4.843   6.885   3.699
63161SOL     OW91379   0.361   3.622  13.224
63161SOL    HW191380   0.433   3.585  13.275
63161SOL    HW291381   0.352   3.563  13.149
63162SOL     OW91382  11.594   2.247  12.594
63162SOL    HW191383  11.576   2.298  12.515
63162SOL    HW291384  11.627   2.163  12.562
63163SOL     OW91385  14.528   2.967   3.321
63163SOL    HW191386  14.452   2.913   3.346
63163SOL    HW291387  14.587   2.961   3.396
63164SOL     OW91388   7.597  14.101   6.968
63164SOL    HW191389   7.554  14.065   7.045
63164SOL    HW291390   7.543  14.072   6.894
63165SOL     OW91391   1.030   5.876  10.298
63165SOL    HW191392   0.992   5.929  10.228
63165SOL    HW291393   1.086   5.812  10.253
63166SOL     OW91394  14.231   1.083   8.557
63166SOL    HW191395  14.250   1.148   8.490
63166SOL    HW291396  14.307   1.026   8.558
63167SOL     OW91397  13.240   1.694  14.781
63167SOL    HW191398  13.224   1.788  14.773
63167SOL    HW291399  13.301   1.687  14.855
63168SOL     OW91400   5.180  12.490  10.342
63168SOL    HW191401   5.225  12.423  10.393
63168SOL    HW291402   5.140  12.441  10.269
63169SOL     OW91403  12.568   5.912   8.398
63169SOL    HW191404  12.559   5.947   8.486
63169SOL    HW291405  12.620   5.832   8.409
63170SOL     OW91406   8.974  13.035   8.809
63170SOL    HW191407   8.970  12.945   8.839
63170SOL    HW291408   8.988  13.086   8.889
63171SOL     OW91409  13.063   0.200   6.132
63171SOL    HW191410  13.151   0.216   6.098
63171SOL    HW291411  13.065   0.109   6.162
63172SOL     OW91412   1.925  13.125  11.555
63172SOL    HW191413   1.981  13.048  11.546
63172SOL    HW291414   1.840  13.097  11.522
63173SOL     OW91415   7.313   2.580  11.482
63173SOL    HW191416   7.256   2.619  11.416
63173SOL    HW291417   7.253   2.542  11.546
63174SOL     OW91418   2.228   2.670   7.138
63174SOL    HW191419   2.176   2.619   7.200
63174SOL    HW291420   2.203   2.761   7.156
63175SOL     OW91421  11.995   5.648   6.469
63175SOL    HW191422  11.974   5.556   6.451
63175SOL    HW291423  12.065   5.669   6.408
63176SOL     OW91424  12.270   1.556   1.000
63176SOL    HW191425  12.313   1.639   0.981
63176SOL    HW291426  12.204   1.579   1.066
63177SOL     OW91427  13.331  12.471   8.379
63177SOL    HW191428  13.384  12.450   8.457
63177SOL    HW291429  13.359  12.559   8.355
63178SOL     OW91430   1.549   1.060   9.050
63178SOL    HW191431   1.626   1.088   9.099
63178SOL    HW291432   1.493   1.137   9.048
63179SOL     OW91433   1.296   1.420  12.062
63179SOL    HW191434   1.286   1.515  12.057
63179SOL    HW291435   1.210   1.386  12.040
63180SOL     OW91436  12.022   6.442   6.648
63180SOL    HW191437  11.978   6.465   6.566
63180SOL    HW291438  12.112   6.422   6.621
63181SOL     OW91439   7.649   3.187  11.083
63181SOL    HW191440   7.578   3.123  11.091
63181SOL    HW291441   7.636   3.228  10.998
63182SOL     OW91442  12.987   8.745  10.334
63182SOL    HW191443  12.952   8.687  10.266
63182SOL    HW291444  13.028   8.686  10.397
63183SOL     OW91445  12.694   9.385   5.394
63183SOL    HW191446  12.743   9.460   5.360
63183SOL    HW291447  12.658   9.343   5.316
63184SOL     OW91448   1.179   4.512  14.356
63184SOL    HW191449   1.132   4.591  14.328
63184SOL    HW291450   1.110   4.454  14.389
63185SOL     OW91451   8.762   3.625  12.420
63185SOL    HW191452   8.737   3.532  12.425
63185SOL    HW291453   8.697   3.664  12.362
63186SOL     OW91454   1.539  10.317  13.221
63186SOL    HW191455   1.539  10.222  13.210
63186SOL    HW291456   1.450  10.344  13.199
63187SOL     OW91457   4.494   9.942   4.245
63187SOL    HW191458   4.537  10.000   4.308
63187SOL    HW291459   4.420   9.993   4.211
63188SOL     OW91460  11.261   5.524   9.064
63188SOL    HW191461  11.251   5.461   8.992
63188SOL    HW291462  11.329   5.584   9.033
63189SOL     OW91463   0.478   0.028  12.089
63189SOL    HW191464   0.525  14.863  12.024
63189SOL    HW291465   0.545   0.088  12.124
63190SOL     OW91466   4.191  12.163  13.157
63190SOL    HW191467   4.227  12.076  13.173
63190SOL    HW291468   4.250  12.223  13.202
63191SOL     OW91469   3.747   2.839   3.229
63191SOL    HW191470   3.800   2.813   3.304
63191SOL    HW291471   3.724   2.757   3.185
63192SOL     OW91472   5.160  11.260   2.606
63192SOL    HW191473   5.234  11.295   2.654
63192SOL    HW291474   5.097  11.234   2.673
63193SOL     OW91475  12.439   6.111  10.569
63193SOL    HW191476  12.403   6.083  10.485
63193SOL    HW291477  12.406   6.200  10.580
63194SOL     OW91478   6.256   0.857   7.956
63194SOL    HW191479   6.171   0.821   7.931
63194SOL    HW291480   6.311   0.781   7.973
63195SOL     OW91481   8.977   7.355   5.365
63195SOL    HW191482   8.904   7.406   5.400
63195SOL    HW291483   9.037   7.420   5.330
63196SOL     OW91484   2.107   1.213  14.830
63196SOL    HW191485   2.167   1.186   0.012
63196SOL    HW291486   2.162   1.257  14.766
63197SOL     OW91487   2.406  13.858   2.848
63197SOL    HW191488   2.409  13.763   2.857
63197SOL    HW291489   2.337  13.874   2.783
63198SOL     OW91490   8.681   9.181   1.182
63198SOL    HW191491   8.697   9.098   1.136
63198SOL    HW291492   8.634   9.156   1.261
63199SOL     OW91493   3.444   9.348   3.793
63199SOL    HW191494   3.366   9.361   3.848
63199SOL    HW291495   3.427   9.266   3.747
63200SOL     OW91496  10.872  13.721   1.019
63200SOL    HW191497  10.842  13.631   1.028
63200SOL    HW291498  10.953  13.725   1.071
63201SOL     OW91499   1.189   3.733   7.667
63201SOL    HW191500   1.147   3.804   7.717
63201SOL    HW291501   1.282   3.743   7.684
63202SOL     OW91502   9.387   7.998  13.064
63202SOL    HW191503   9.446   7.978  13.136
63202SOL    HW291504   9.300   7.993  13.102
63203SOL     OW91505   4.164  12.256   5.834
63203SOL    HW191506   4.093  12.317   5.813
63203SOL    HW291507   4.162  12.192   5.763
63204SOL     OW91508  12.892  12.114   7.255
63204SOL    HW191509  12.841  12.195   7.248
63204SOL    HW291510  12.872  12.081   7.342
63205SOL     OW91511   8.386   8.286   3.750
63205SOL    HW191512   8.461   8.344   3.764
63205SOL    HW291513   8.324   8.309   3.819
63206SOL     OW91514   9.321   4.091   9.028
63206SOL    HW191515   9.339   4.050   8.944
63206SOL    HW291516   9.308   4.184   9.007
63207SOL     OW91517  11.081   5.135   7.678
63207SOL    HW191518  11.113   5.226   7.681
63207SOL    HW291519  11.153   5.083   7.714
63208SOL     OW91520   1.402   4.932   7.738
63208SOL    HW191521   1.341   4.940   7.664
63208SOL    HW291522   1.487   4.954   7.702
63209SOL     OW91523   4.327   7.512   9.427
63209SOL    HW191524   4.309   7.418   9.423
63209SOL    HW291525   4.350   7.528   9.518
63210SOL     OW91526   9.181  13.791   5.457
63210SOL    HW191527   9.159  13.753   5.372
63210SOL    HW291528   9.099  13.825   5.490
63211SOL     OW91529  11.316  12.331   0.291
63211SOL    HW191530  11.335  12.331   0.197
63211SOL    HW291531  11.398  12.360   0.332
63212SOL     OW91532  11.344   8.990   9.494
63212SOL    HW191533  11.407   8.926   9.527
63212SOL    HW291534  11.267   8.978   9.548
63213SOL     OW91535   3.648   9.263   7.164
63213SOL    HW191536   3.556   9.291   7.166
63213SOL    HW291537   3.654   9.195   7.232
63214SOL     OW91538   4.633   9.827  11.526
63214SOL    HW191539   4.705   9.886  11.548
63214SOL    HW291540   4.673   9.740  11.525
63215SOL     OW91541   9.155   0.496   5.984
63215SOL    HW191542   9.247   0.470   5.979
63215SOL    HW291543   9.107   0.424   5.944
63216SOL     OW91544   4.362  13.936   4.921
63216SOL    HW191545   4.273  13.908   4.940
63216SOL    HW291546   4.352  14.012   4.863
63217SOL     OW91547  12.652   6.242  12.769
63217SOL    HW191548  12.651   6.329  12.729
63217SOL    HW291549  12.617   6.184  12.701
63218SOL     OW91550   3.722   1.317  10.769
63218SOL    HW191551   3.655   1.249  10.774
63218SOL    HW291552   3.749   1.317  10.678
63219SOL     OW91553   4.948  11.538  11.031
63219SOL    HW191554   4.861  11.560  10.997
63219SOL    HW291555   4.960  11.595  11.106
63220SOL     OW91556   6.013  13.956  11.329
63220SOL    HW191557   6.029  13.940  11.422
63220SOL    HW291558   5.986  14.048  11.325
63221SOL     OW91559   2.860   1.243   4.748
63221SOL    HW191560   2.810   1.267   4.826
63221SOL    HW291561   2.926   1.181   4.778
63222SOL     OW91562   5.035   2.608   5.977
63222SOL    HW191563   5.096   2.536   5.964
63222SOL    HW291564   5.027   2.648   5.890
63223SOL     OW91565   7.697   6.482   2.766
63223SOL    HW191566   7.613   6.462   2.725
63223SOL    HW291567   7.687   6.454   2.857
63224SOL     OW91568  12.530   1.549  14.747
63224SOL    HW191569  12.528   1.569  14.653
63224SOL    HW291570  12.607   1.493  14.757
63225SOL     OW91571  13.638  11.472   0.463
63225SOL    HW191572  13.602  11.464   0.551
63225SOL    HW291573  13.567  11.509   0.411
63226SOL     OW91574  13.858   3.700   8.946
63226SOL    HW191575  13.920   3.631   8.968
63226SOL    HW291576  13.912   3.777   8.929
63227SOL     OW91577  12.121   7.224   9.323
63227SOL    HW191578  12.159   7.140   9.296
63227SOL    HW291579  12.085   7.207   9.410
63228SOL     OW91580   2.138  10.356  12.732
63228SOL    HW191581   2.054  10.402  12.736
63228SOL    HW291582   2.127  10.280  12.789
63229SOL     OW91583   8.954   4.515   9.634
63229SOL    HW191584   8.864   4.548   9.627
63229SOL    HW291585   8.966   4.499   9.727
63230SOL     OW91586   2.991   5.530  11.637
63230SOL    HW191587   2.945   5.480  11.704
63230SOL    HW291588   3.057   5.581  11.684
63231SOL     OW91589   9.798   9.288   8.038
63231SOL    HW191590   9.888   9.258   8.030
63231SOL    HW291591   9.747   9.225   7.986
63232SOL     OW91592   0.682   0.072   0.945
63232SOL    HW191593   0.672  14.873   0.986
63232SOL    HW291594   0.680   0.054   0.851
63233SOL     OW91595   0.887  11.081   6.875
63233SOL    HW191596   0.835  11.006   6.903
63233SOL    HW291597   0.953  11.044   6.816
63234SOL     OW91598   6.486   5.743   3.585
63234SOL    HW191599   6.443   5.747   3.500
63234SOL    HW291600   6.522   5.654   3.590
63235SOL     OW91601   2.566   1.601   0.580
63235SOL    HW191602   2.473   1.599   0.559
63235SOL    HW291603   2.606   1.653   0.510
63236SOL     OW91604   6.420   9.634  10.762
63236SOL    HW191605   6.360   9.583  10.817
63236SOL    HW291606   6.501   9.584  10.762
63237SOL     OW91607   2.150  14.101  10.848
63237SOL    HW191608   2.180  14.183  10.887
63237SOL    HW291609   2.226  14.042  10.853
63238SOL     OW91610   8.986   7.987  14.020
63238SOL    HW191611   8.954   8.041  13.948
63238SOL    HW291612   9.081   7.993  14.014
63239SOL     OW91613  12.579   2.239   2.928
63239SOL    HW191614  12.654   2.190   2.894
63239SOL    HW291615  12.545   2.286   2.852
63240SOL     OW91616  10.323  12.023  14.263
63240SOL    HW191617  10.307  11.935  14.229
63240SOL    HW291618  10.390  12.011  14.331
63241SOL     OW91619   3.462   4.199   7.644
63241SOL    HW191620   3.497   4.185   7.732
63241SOL    HW291621   3.526   4.258   7.603
63242SOL     OW91622   9.972   4.800  11.894
63242SOL    HW191623   9.891   4.749  11.895
63242SOL    HW291624   9.946   4.887  11.864
63243SOL     OW91625   3.106   2.196   7.523
63243SOL    HW191626   3.185   2.196   7.468
63243SOL    HW291627   3.088   2.288   7.540
63244SOL     OW91628   4.583   0.688  12.956
63244SOL    HW191629   4.494   0.655  12.943
63244SOL    HW291630   4.573   0.783  12.959
63245SOL     OW91631   6.076   7.987   3.405
63245SOL    HW191632   6.030   8.009   3.486
63245SOL    HW291633   6.169   7.995   3.428
63246SOL     OW91634  10.254   8.401   7.033
63246SOL    HW191635  10.177   8.452   7.008
63246SOL    HW291636  10.327   8.449   6.993
63247SOL     OW91637   8.572  11.881   3.212
63247SOL    HW191638   8.498  11.935   3.184
63247SOL    HW291639   8.648  11.918   3.166
63248SOL     OW91640  10.583  10.097   6.525
63248SOL    HW191641  10.544  10.047   6.454
63248SOL    HW291642  10.557  10.051   6.605
63249SOL     OW91643   1.281  13.400   8.622
63249SOL    HW191644   1.241  13.487   8.625
63249SOL    HW291645   1.365  13.414   8.577
63250SOL     OW91646  14.206  11.499   4.440
63250SOL    HW191647  14.166  11.466   4.360
63250SOL    HW291648  14.199  11.426   4.502
63251SOL     OW91649   3.182  11.496   8.474
63251SOL    HW191650   3.136  11.432   8.418
63251SOL    HW291651   3.246  11.537   8.415
63252SOL     OW91652   0.775   6.778  10.042
63252SOL    HW191653   0.838   6.815  10.104
63252SOL    HW291654   0.728   6.711  10.092
63253SOL     OW91655   7.847   2.506   8.353
63253SOL    HW191656   7.799   2.589   8.354
63253SOL    HW291657   7.791   2.445   8.401
63254SOL     OW91658   6.137  12.040   4.981
63254SOL    HW191659   6.169  11.980   5.048
63254SOL    HW291660   6.089  11.985   4.920
63255SOL     OW91661  14.012  14.239   7.362
63255SOL    HW191662  13.925  14.228   7.401
63255SOL    HW291663  14.022  14.163   7.305
63256SOL     OW91664  11.100   6.376   0.208
63256SOL    HW191665  11.130   6.312   0.142
63256SOL    HW291666  11.175   6.388   0.266
63257SOL     OW91667  13.760  11.732  11.180
63257SOL    HW191668  13.730  11.642  11.193
63257SOL    HW291669  13.809  11.728  11.097
63258SOL     OW91670   4.610   8.336  13.595
63258SOL    HW191671   4.646   8.374  13.675
63258SOL    HW291672   4.686   8.311  13.543
63259SOL     OW91673   4.027   5.982  11.942
63259SOL    HW191674   3.952   5.944  11.896
63259SOL    HW291675   4.059   5.912  11.998
63260SOL     OW91676   9.928   0.003   8.142
63260SOL    HW191677  10.008   0.052   8.162
63260SOL    HW291678   9.954  14.830   8.073
63261SOL     OW91679  11.434   3.837   1.634
63261SOL    HW191680  11.376   3.913   1.632
63261SOL    HW291681  11.378   3.764   1.658
63262SOL     OW91682  11.776   6.640  12.568
63262SOL    HW191683  11.693   6.679  12.597
63262SOL    HW291684  11.750   6.562  12.519
63263SOL     OW91685   7.373   5.353  14.804
63263SOL    HW191686   7.304   5.319  14.861
63263SOL    HW291687   7.351   5.445  14.793
63264SOL     OW91688  11.679   2.369   7.699
63264SOL    HW191689  11.687   2.416   7.782
63264SOL    HW291690  11.594   2.325   7.705
63265SOL     OW91691   0.424  12.593   7.989
63265SOL    HW191692   0.409  12.611   7.896
63265SOL    HW291693   0.457  12.676   8.024
63266SOL     OW91694  10.963   7.294   8.643
63266SOL    HW191695  11.051   7.323   8.618
63266SOL    HW291696  10.948   7.215   8.592
63267SOL     OW91697   9.986   5.528   4.114
63267SOL    HW191698   9.900   5.551   4.079
63267SOL    HW291699  10.024   5.470   4.049
63268SOL     OW91700   4.537  13.447   3.635
63268SOL    HW191701   4.475  13.389   3.678
63268SOL    HW291702   4.620  13.431   3.680
63269SOL     OW91703  10.502   6.452   0.590
63269SOL    HW191704  10.597   6.467   0.589
63269SOL    HW291705  10.469   6.511   0.657
63270SOL     OW91706   2.843   3.205  10.712
63270SOL    HW191707   2.837   3.130  10.772
63270SOL    HW291708   2.850   3.166  10.625
63271SOL     OW91709   2.146   9.551   6.901
63271SOL    HW191710   2.216   9.591   6.849
63271SOL    HW291711   2.182   9.547   6.990
63272SOL     OW91712  11.858   7.763   2.170
63272SOL    HW191713  11.872   7.779   2.263
63272SOL    HW291714  11.783   7.818   2.146
63273SOL     OW91715  12.131   6.152   8.867
63273SOL    HW191716  12.094   6.111   8.946
63273SOL    HW291717  12.057   6.200   8.830
63274SOL     OW91718   4.819   8.274  11.858
63274SOL    HW191719   4.728   8.256  11.883
63274SOL    HW291720   4.813   8.345  11.794
63275SOL     OW91721   8.678  12.872  10.265
63275SOL    HW191722   8.663  12.899  10.175
63275SOL    HW291723   8.739  12.936  10.300
63276SOL     OW91724   1.004  11.600   7.399
63276SOL    HW191725   0.958  11.544   7.337
63276SOL    HW291726   0.940  11.620   7.467
63277SOL     OW91727  13.093  12.135   6.770
63277SOL    HW191728  13.056  12.048   6.785
63277SOL    HW291729  13.056  12.189   6.840
63278SOL     OW91730   9.651  10.817  10.647
63278SOL    HW191731   9.676  10.726  10.634
63278SOL    HW291732   9.734  10.865  10.652
63279SOL     OW91733   2.893   4.067   7.524
63279SOL    HW191734   2.888   4.123   7.446
63279SOL    HW291735   2.985   4.071   7.551
63280SOL     OW91736  13.685   5.852   1.270
63280SOL    HW191737  13.644   5.857   1.184
63280SOL    HW291738  13.707   5.943   1.291
63281SOL     OW91739   2.571  13.050   4.501
63281SOL    HW191740   2.512  13.074   4.573
63281SOL    HW291741   2.604  12.964   4.525
63282SOL     OW91742  13.480  12.708   3.875
63282SOL    HW191743  13.547  12.640   3.882
63282SOL    HW291744  13.529  12.789   3.868
63283SOL     OW91745   8.850  14.882   6.577
63283SOL    HW191746   8.927   0.022   6.527
63283SOL    HW291747   8.869  14.793   6.605
63284SOL     OW91748   7.698  13.839   9.328
63284SOL    HW191749   7.664  13.818   9.415
63284SOL    HW291750   7.670  13.929   9.313
63285SOL     OW91751  14.874  12.533   6.774
63285SOL    HW191752   0.017  12.475   6.844
63285SOL    HW291753   0.062  12.589   6.756
63286SOL     OW91754   9.936  10.614   9.104
63286SOL    HW191755   9.978  10.664   9.174
63286SOL    HW291756   9.895  10.680   9.049
63287SOL     OW91757   3.110   4.020   8.303
63287SOL    HW191758   3.178   4.064   8.354
63287SOL    HW291759   3.056   4.092   8.269
63288SOL     OW91760   1.206   2.345   5.555
63288SOL    HW191761   1.117   2.351   5.590
63288SOL    HW291762   1.206   2.402   5.478
63289SOL     OW91763   0.702  14.604   6.063
63289SOL    HW191764   0.734  14.679   6.012
63289SOL    HW291765   0.639  14.561   6.005
63290SOL     OW91766  11.405   4.037   3.649
63290SOL    HW191767  11.429   4.027   3.741
63290SOL    HW291768  11.484   4.070   3.607
63291SOL     OW91769   6.975   6.292   4.220
63291SOL    HW191770   6.981   6.290   4.125
63291SOL    HW291771   6.901   6.350   4.238
63292SOL     OW91772   6.944  10.049  11.152
63292SOL    HW191773   6.912  10.032  11.063
63292SOL    HW291774   6.917  10.139  11.171
63293SOL     OW91775   9.068   3.458   5.859
63293SOL    HW191776   9.110   3.489   5.778
63293SOL    HW291777   9.134   3.471   5.927
63294SOL     OW91778   1.791  13.989   7.007
63294SOL    HW191779   1.867  13.950   7.050
63294SOL    HW291780   1.805  13.973   6.914
63295SOL     OW91781  11.089   6.417   9.833
63295SOL    HW191782  11.062   6.392   9.921
63295SOL    HW291783  11.025   6.375   9.776
63296SOL     OW91784  11.016   8.624   2.295
63296SOL    HW191785  11.051   8.616   2.383
63296SOL    HW291786  10.949   8.556   2.289
63297SOL     OW91787   2.539   3.680   7.450
63297SOL    HW191788   2.620   3.677   7.501
63297SOL    HW291789   2.552   3.617   7.380
63298SOL     OW91790   3.156   0.126   5.751
63298SOL    HW191791   3.080   0.178   5.776
63298SOL    HW291792   3.195   0.174   5.678
63299SOL     OW91793  14.714   9.898   2.413
63299SOL    HW191794  14.735   9.824   2.357
63299SOL    HW291795  14.718   9.974   2.354
63300SOL     OW91796  10.895   0.679  14.650
63300SOL    HW191797  10.817   0.723  14.683
63300SOL    HW291798  10.868   0.588  14.638
63301SOL     OW91799   9.434  12.589  13.150
63301SOL    HW191800   9.350  12.573  13.194
63301SOL    HW291801   9.477  12.504  13.148
63302SOL     OW91802  13.148  13.387   9.653
63302SOL    HW191803  13.084  13.393   9.724
63302SOL    HW291804  13.105  13.332   9.587
63303SOL     OW91805  13.530  10.407  13.214
63303SOL    HW191806  13.444  10.442  13.235
63303SOL    HW291807  13.511  10.325  13.167
63304SOL     OW91808  11.297   3.643  13.305
63304SOL    HW191809  11.205   3.617  13.311
63304SOL    HW291810  11.306   3.676  13.215
63305SOL     OW91811   7.878   2.925   9.878
63305SOL    HW191812   7.865   3.000   9.820
63305SOL    HW291813   7.921   2.860   9.822
63306SOL     OW91814   3.346   2.898   9.969
63306SOL    HW191815   3.390   2.952   9.903
63306SOL    HW291816   3.285   2.958  10.012
63307SOL     OW91817   7.777   5.783  14.725
63307SOL    HW191818   7.704   5.741  14.769
63307SOL    HW291819   7.740   5.863  14.687
63308SOL     OW91820   5.234   9.554   4.754
63308SOL    HW191821   5.209   9.582   4.841
63308SOL    HW291822   5.221   9.459   4.755
63309SOL     OW91823   6.317   3.987   9.522
63309SOL    HW191824   6.279   4.037   9.450
63309SOL    HW291825   6.287   3.897   9.508
63310SOL     OW91826   1.699  12.066   8.915
63310SOL    HW191827   1.778  12.096   8.960
63310SOL    HW291828   1.718  11.975   8.892
63311SOL     OW91829  11.477   2.608  11.630
63311SOL    HW191830  11.385   2.583  11.617
63311SOL    HW291831  11.472   2.699  11.661
63312SOL     OW91832   8.730   5.351   4.188
63312SOL    HW191833   8.762   5.399   4.264
63312SOL    HW291834   8.658   5.297   4.221
63313SOL     OW91835   8.341   6.276   3.428
63313SOL    HW191836   8.411   6.338   3.446
63313SOL    HW291837   8.303   6.256   3.513
63314SOL     OW91838   0.341  13.596  11.918
63314SOL    HW191839   0.258  13.572  11.877
63314SOL    HW291840   0.408  13.552  11.865
63315SOL     OW91841  13.345   0.604   4.428
63315SOL    HW191842  13.334   0.510   4.413
63315SOL    HW291843  13.292   0.646   4.360
63316SOL     OW91844   2.971  13.177   7.066
63316SOL    HW191845   2.951  13.214   7.152
63316SOL    HW291846   3.052  13.220   7.040
63317SOL     OW91847  14.707  13.538  13.802
63317SOL    HW191848  14.776  13.539  13.869
63317SOL    HW291849  14.743  13.485  13.731
63318SOL     OW91850  12.254  13.906  12.115
63318SOL    HW191851  12.210  13.822  12.103
63318SOL    HW291852  12.189  13.971  12.086
63319SOL     OW91853  10.763   9.026  13.281
63319SOL    HW191854  10.809   9.003  13.362
63319SOL    HW291855  10.692   8.963  13.274
63320SOL     OW91856  14.841   0.731   4.598
63320SOL    HW191857  14.862   0.649   4.552
63320SOL    HW291858  14.779   0.705   4.666
63321SOL     OW91859  13.399   8.330   9.172
63321SOL    HW191860  13.411   8.237   9.191
63321SOL    HW291861  13.488   8.361   9.153
63322SOL     OW91862  12.619   5.720   4.209
63322SOL    HW191863  12.566   5.661   4.155
63322SOL    HW291864  12.700   5.672   4.224
63323SOL     OW91865   9.432   8.077   7.559
63323SOL    HW191866   9.485   8.017   7.612
63323SOL    HW291867   9.346   8.035   7.554
63324SOL     OW91868   9.202   4.954   7.144
63324SOL    HW191869   9.230   4.866   7.119
63324SOL    HW291870   9.122   4.969   7.094
63325SOL     OW91871   0.601   0.355   0.023
63325SOL    HW191872   0.529   0.385  14.855
63325SOL    HW291873   0.640   0.436   0.058
63326SOL     OW91874  11.233  10.353   5.597
63326SOL    HW191875  11.215  10.260   5.588
63326SOL    HW291876  11.234  10.387   5.507
63327SOL     OW91877   0.089   8.278   4.509
63327SOL    HW191878   0.067   8.371   4.508
63327SOL    HW291879   0.161   8.269   4.446
63328SOL     OW91880   6.469   8.963   0.247
63328SOL    HW191881   6.541   8.970   0.309
63328SOL    HW291882   6.410   9.034   0.270
63329SOL     OW91883   2.147   7.770   7.914
63329SOL    HW191884   2.059   7.787   7.880
63329SOL    HW291885   2.198   7.748   7.836
63330SOL     OW91886   3.582   2.694   8.044
63330SOL    HW191887   3.580   2.775   7.993
63330SOL    HW291888   3.555   2.627   7.982
63331SOL     OW91889   4.992  10.525   9.805
63331SOL    HW191890   5.073  10.510   9.755
63331SOL    HW291891   5.002  10.471   9.883
63332SOL     OW91892  12.487   0.090   5.644
63332SOL    HW191893  12.577   0.085   5.677
63332SOL    HW291894  12.448   0.164   5.691
63333SOL     OW91895  12.527  12.886  11.997
63333SOL    HW191896  12.558  12.963  11.948
63333SOL    HW291897  12.506  12.822  11.930
63334SOL     OW91898  14.824  12.505  13.548
63334SOL    HW191899  14.783  12.568  13.608
63334SOL    HW291900  14.773  12.513  13.467
63335SOL     OW91901   7.484  13.697  13.798
63335SOL    HW191902   7.514  13.612  13.766
63335SOL    HW291903   7.391  13.685  13.816
63336SOL     OW91904   0.387   1.879   9.758
63336SOL    HW191905   0.412   1.957   9.708
63336SOL    HW291906   0.382   1.909   9.849
63337SOL     OW91907  12.242   0.108  10.354
63337SOL    HW191908  12.337   0.097  10.362
63337SOL    HW291909  12.221   0.182  10.412
63338SOL     OW91910   1.790   6.558   3.997
63338SOL    HW191911   1.717   6.522   3.947
63338SOL    HW291912   1.777   6.526   4.086
63339SOL     OW91913   2.953   3.227  13.373
63339SOL    HW191914   3.036   3.240  13.419
63339SOL    HW291915   2.963   3.273  13.290
63340SOL     OW91916  13.736   1.065  10.607
63340SOL    HW191917  13.685   1.075  10.526
63340SOL    HW291918  13.809   1.009  10.582
63341SOL     OW91919  14.074   5.275  10.960
63341SOL    HW191920  14.050   5.231  10.878
63341SOL    HW291921  14.022   5.231  11.027
63342SOL     OW91922   7.209   1.430  10.080
63342SOL    HW191923   7.231   1.343  10.114
63342SOL    HW291924   7.114   1.435  10.087
63343SOL     OW91925   8.779  12.324   8.767
63343SOL    HW191926   8.727  12.370   8.833
63343SOL    HW291927   8.842  12.273   8.819
63344SOL     OW91928  12.262  14.835   2.217
63344SOL    HW191929  12.305   0.022   2.260
63344SOL    HW291930  12.309  14.758   2.249
63345SOL     OW91931   6.188  10.745   2.171
63345SOL    HW191932   6.118  10.689   2.205
63345SOL    HW291933   6.213  10.800   2.246
63346SOL     OW91934   2.714   9.476   3.403
63346SOL    HW191935   2.634   9.530   3.406
63346SOL    HW291936   2.783   9.534   3.432
63347SOL     OW91937   3.956   4.054   7.080
63347SOL    HW191938   3.920   4.000   7.150
63347SOL    HW291939   3.896   4.040   7.006
63348SOL     OW91940   4.948   5.811   0.474
63348SOL    HW191941   4.862   5.809   0.434
63348SOL    HW291942   4.936   5.860   0.555
63349SOL     OW91943  14.095   5.483   4.538
63349SOL    HW191944  14.024   5.440   4.491
63349SOL    HW291945  14.063   5.493   4.627
63350SOL     OW91946   3.064   0.358   5.150
63350SOL    HW191947   3.082   0.362   5.057
63350SOL    HW291948   3.105   0.277   5.179
63351SOL     OW91949  12.970  14.796   7.965
63351SOL    HW191950  12.895  14.779   8.022
63351SOL    HW291951  12.938  14.861   7.902
63352SOL     OW91952   8.562   5.329   3.644
63352SOL    HW191953   8.552   5.317   3.739
63352SOL    HW291954   8.553   5.424   3.632
63353SOL     OW91955   7.116   4.462  13.790
63353SOL    HW191956   7.141   4.546  13.829
63353SOL    HW291957   7.024   4.474  13.766
63354SOL     OW91958  13.309  13.330   9.360
63354SOL    HW191959  13.233  13.278   9.333
63354SOL    HW291960  13.369  13.266   9.399
63355SOL     OW91961   5.558  11.982   0.895
63355SOL    HW191962   5.580  11.952   0.983
63355SOL    HW291963   5.632  12.038   0.870
63356SOL     OW91964   8.596   5.145   6.898
63356SOL    HW191965   8.650   5.183   6.828
63356SOL    HW291966   8.615   5.200   6.974
63357SOL     OW91967   0.101  10.968   7.521
63357SOL    HW191968   0.008  10.957   7.498
63357SOL    HW291969   0.125  11.052   7.481
63358SOL     OW91970   6.982  10.878  10.697
63358SOL    HW191971   6.909  10.925  10.656
63358SOL    HW291972   7.055  10.941  10.695
63359SOL     OW91973   5.198  11.714   0.838
63359SOL    HW191974   5.227  11.745   0.923
63359SOL    HW291975   5.174  11.794   0.790
63360SOL     OW91976  13.366   4.376   7.177
63360SOL    HW191977  13.418   4.435   7.232
63360SOL    HW291978  13.321   4.319   7.239
63361SOL     OW91979   8.935   8.917  12.639
63361SOL    HW191980   8.892   8.993  12.678
63361SOL    HW291981   8.917   8.924  12.546
63362SOL     OW91982   6.689   7.237   6.241
63362SOL    HW191983   6.712   7.161   6.187
63362SOL    HW291984   6.755   7.303   6.218
63363SOL     OW91985   0.750   2.343   5.455
63363SOL    HW191986   0.825   2.352   5.514
63363SOL    HW291987   0.739   2.430   5.417
63364SOL     OW91988   7.156  10.989   1.768
63364SOL    HW191989   7.075  10.940   1.783
63364SOL    HW291990   7.210  10.932   1.713
63365SOL     OW91991  11.837   2.482  12.444
63365SOL    HW191992  11.746   2.453  12.435
63365SOL    HW291993  11.845   2.555  12.382
63366SOL     OW91994  14.200   2.479   6.444
63366SOL    HW191995  14.257   2.412   6.482
63366SOL    HW291996  14.249   2.513   6.369
63367SOL     OW91997  10.341  11.765  11.193
63367SOL    HW191998  10.411  11.763  11.259
63367SOL    HW291999  10.313  11.674  11.185
63368SOL     OW92000   4.117  10.210   1.789
63368SOL    HW192001   4.145  10.257   1.868
63368SOL    HW292002   4.053  10.268   1.748
63369SOL     OW92003   5.581  12.676  10.479
63369SOL    HW192004   5.487  12.693  10.483
63369SOL    HW292005   5.607  12.706  10.392
63370SOL     OW92006   0.082  13.268  13.957
63370SOL    HW192007   0.106  13.249  14.047
63370SOL    HW292008   0.056  13.360  13.957
63371SOL     OW92009  13.920   2.667   2.028
63371SOL    HW192010  13.887   2.579   2.010
63371SOL    HW292011  13.949   2.700   1.943
63372SOL     OW92012  13.550  14.136   6.108
63372SOL    HW192013  13.554  14.178   6.022
63372SOL    HW292014  13.465  14.161   6.143
63373SOL     OW92015  14.455   6.344   8.919
63373SOL    HW192016  14.530   6.389   8.880
63373SOL    HW292017  14.386   6.352   8.853
63374SOL     OW92018   8.071   7.187  10.215
63374SOL    HW192019   8.121   7.246  10.158
63374SOL    HW292020   8.115   7.192  10.299
63375SOL     OW92021  14.214   0.168   1.783
63375SOL    HW192022  14.140   0.176   1.723
63375SOL    HW292023  14.240   0.258   1.802
63376SOL     OW92024  10.340   4.177   9.204
63376SOL    HW192025  10.409   4.198   9.141
63376SOL    HW292026  10.281   4.253   9.202
63377SOL     OW92027   0.172   1.318  10.998
63377SOL    HW192028   0.203   1.327  10.908
63377SOL    HW292029   0.129   1.402  11.016
63378SOL     OW92030   8.758  13.913   6.093
63378SOL    HW192031   8.709  13.834   6.067
63378SOL    HW292032   8.708  13.948   6.167
63379SOL     OW92033  11.919   3.820   8.860
63379SOL    HW192034  11.844   3.838   8.917
63379SOL    HW292035  11.986   3.882   8.888
63380SOL     OW92036   6.950   6.955   2.677
63380SOL    HW192037   6.991   6.920   2.756
63380SOL    HW292038   6.923   7.044   2.700
63381SOL     OW92039   5.781   4.551  13.255
63381SOL    HW192040   5.861   4.563  13.204
63381SOL    HW292041   5.783   4.621  13.321
63382SOL     OW92042   1.234   0.367   6.273
63382SOL    HW192043   1.281   0.451   6.276
63382SOL    HW292044   1.274   0.315   6.343
63383SOL     OW92045   9.473   5.396  10.532
63383SOL    HW192046   9.414   5.466  10.502
63383SOL    HW292047   9.437   5.316  10.495
63384SOL     OW92048  10.607  10.950   1.781
63384SOL    HW192049  10.598  10.859   1.809
63384SOL    HW292050  10.702  10.964   1.776
63385SOL     OW92051   1.850  12.823   6.979
63385SOL    HW192052   1.898  12.821   6.896
63385SOL    HW292053   1.911  12.863   7.041
63386SOL     OW92054   2.361   3.593  11.401
63386SOL    HW192055   2.411   3.578  11.321
63386SOL    HW292056   2.426   3.586  11.472
63387SOL     OW92057   2.478   4.766  11.258
63387SOL    HW192058   2.407   4.823  11.229
63387SOL    HW292059   2.514   4.729  11.177
63388SOL     OW92060   2.713   7.908   8.553
63388SOL    HW192061   2.699   7.970   8.482
63388SOL    HW292062   2.682   7.824   8.519
63389SOL     OW92063   2.547  13.132   2.505
63389SOL    HW192064   2.462  13.120   2.462
63389SOL    HW292065   2.525  13.159   2.594
63390SOL     OW92066   6.370  12.450   6.736
63390SOL    HW192067   6.378  12.448   6.641
63390SOL    HW292068   6.364  12.358   6.762
63391SOL     OW92069  13.015   7.628  14.026
63391SOL    HW192070  12.990   7.597  14.113
63391SOL    HW292071  13.109   7.645  14.033
63392SOL     OW92072   0.864   6.300   3.512
63392SOL    HW192073   0.848   6.377   3.456
63392SOL    HW292074   0.799   6.307   3.582
63393SOL     OW92075  14.062   8.573   1.214
63393SOL    HW192076  14.070   8.495   1.269
63393SOL    HW292077  14.130   8.562   1.147
63394SOL     OW92078   3.824   6.317   2.914
63394SOL    HW192079   3.763   6.378   2.872
63394SOL    HW292080   3.886   6.293   2.844
63395SOL     OW92081   4.065  10.302  10.569
63395SOL    HW192082   4.099  10.331  10.484
63395SOL    HW292083   4.052  10.208  10.559
63396SOL     OW92084  14.726  10.097   7.388
63396SOL    HW192085  14.805  10.044   7.378
63396SOL    HW292086  14.754  10.186   7.365
63397SOL     OW92087   7.276  14.181   2.805
63397SOL    HW192088   7.276  14.268   2.844
63397SOL    HW292089   7.367  14.166   2.780
63398SOL     OW92090   0.007  12.184  11.104
63398SOL    HW192091   0.075  12.221  11.048
63398SOL    HW292092  14.840  12.259  11.129
63399SOL     OW92093  12.847  10.667   7.023
63399SOL    HW192094  12.932  10.657   6.981
63399SOL    HW292095  12.857  10.741   7.082
63400SOL     OW92096   5.862   9.375   7.433
63400SOL    HW192097   5.936   9.338   7.480
63400SOL    HW292098   5.895   9.457   7.396
63401SOL     OW92099  13.046   1.634  12.500
63401SOL    HW192100  13.043   1.548  12.459
63401SOL    HW292101  12.954   1.656  12.516
63402SOL     OW92102   8.999   0.916   0.097
63402SOL    HW192103   8.982   0.941   0.006
63402SOL    HW292104   8.918   0.937   0.143
63403SOL     OW92105   6.618   0.152   5.152
63403SOL    HW192106   6.663   0.069   5.139
63403SOL    HW292107   6.685   0.219   5.139
63404SOL     OW92108   4.272   8.237   3.020
63404SOL    HW192109   4.314   8.217   3.104
63404SOL    HW292110   4.254   8.331   3.024
63405SOL     OW92111  13.224   5.179   1.908
63405SOL    HW192112  13.227   5.225   1.824
63405SOL    HW292113  13.308   5.201   1.950
63406SOL     OW92114   6.012   5.965   0.403
63406SOL    HW192115   6.072   5.890   0.402
63406SOL    HW292116   5.969   5.960   0.488
63407SOL     OW92117   2.457   8.554   0.296
63407SOL    HW192118   2.379   8.518   0.253
63407SOL    HW292119   2.427   8.577   0.384
63408SOL     OW92120   6.304   3.767   3.760
63408SOL    HW192121   6.304   3.812   3.845
63408SOL    HW292122   6.332   3.833   3.698
63409SOL     OW92123   3.168  13.150  12.891
63409SOL    HW192124   3.090  13.201  12.911
63409SOL    HW292125   3.136  13.068  12.854
63410SOL     OW92126   8.275   0.586   9.114
63410SOL    HW192127   8.367   0.560   9.110
63410SOL    HW292128   8.276   0.680   9.097
63411SOL     OW92129   1.134  12.262  11.851
63411SOL    HW192130   1.201  12.257  11.784
63411SOL    HW292131   1.147  12.348  11.892
63412SOL     OW92132   4.876   5.778   3.050
63412SOL    HW192133   4.874   5.843   2.979
63412SOL    HW292134   4.914   5.825   3.124
63413SOL     OW92135  10.803   8.071   0.095
63413SOL    HW192136  10.816   8.046   0.187
63413SOL    HW292137  10.891   8.080   0.060
63414SOL     OW92138   4.536   9.678  14.236
63414SOL    HW192139   4.583   9.757  14.208
63414SOL    HW292140   4.577   9.654  14.320
63415SOL     OW92141   8.303   1.908   5.830
63415SOL    HW192142   8.368   1.837   5.821
63415SOL    HW292143   8.244   1.897   5.756
63416SOL     OW92144  13.772  12.947   8.215
63416SOL    HW192145  13.793  13.017   8.153
63416SOL    HW292146  13.676  12.946   8.218
63417SOL     OW92147   3.824  11.642  12.452
63417SOL    HW192148   3.787  11.728  12.472
63417SOL    HW292149   3.865  11.653  12.366
63418SOL     OW92150   6.620   8.125  12.546
63418SOL    HW192151   6.588   8.192  12.607
63418SOL    HW292152   6.681   8.072  12.598
63419SOL     OW92153   6.428  13.409   1.215
63419SOL    HW192154   6.370  13.443   1.284
63419SOL    HW292155   6.401  13.457   1.136
63420SOL     OW92156   6.344  13.530   5.441
63420SOL    HW192157   6.345  13.614   5.487
63420SOL    HW292158   6.321  13.551   5.351
63421SOL     OW92159   3.615   2.451   1.555
63421SOL    HW192160   3.604   2.358   1.577
63421SOL    HW292161   3.589   2.498   1.634
63422SOL     OW92162   1.157   5.746   7.369
63422SOL    HW192163   1.117   5.787   7.292
63422SOL    HW292164   1.101   5.672   7.389
63423SOL     OW92165   4.645   4.868  13.909
63423SOL    HW192166   4.579   4.808  13.942
63423SOL    HW292167   4.729   4.830  13.936
63424SOL     OW92168   4.027  12.293   2.699
63424SOL    HW192169   4.011  12.351   2.774
63424SOL    HW292170   4.077  12.220   2.735
63425SOL     OW92171   4.773  11.996  10.435
63425SOL    HW192172   4.851  12.037  10.396
63425SOL    HW292173   4.809  11.927  10.492
63426SOL     OW92174   2.769   1.692  13.894
63426SOL    HW192175   2.686   1.715  13.935
63426SOL    HW292176   2.746   1.652  13.811
63427SOL     OW92177  13.757  12.196  10.038
63427SOL    HW192178  13.702  12.271  10.013
63427SOL    HW292179  13.697  12.121  10.037
63428SOL     OW92180   0.033   2.818  12.998
63428SOL    HW192181   0.111   2.766  12.976
63428SOL    HW292182   0.048   2.845  13.089
63429SOL     OW92183  11.406   8.715   6.457
63429SOL    HW192184  11.423   8.621   6.450
63429SOL    HW292185  11.374   8.741   6.371
63430SOL     OW92186   2.660   8.320   9.795
63430SOL    HW192187   2.752   8.346   9.787
63430SOL    HW292188   2.649   8.248   9.733
63431SOL     OW92189   7.156  12.231  10.412
63431SOL    HW192190   7.150  12.264  10.501
63431SOL    HW292191   7.149  12.309  10.357
63432SOL     OW92192   3.878   5.366   1.419
63432SOL    HW192193   3.913   5.285   1.381
63432SOL    HW292194   3.953   5.404   1.464
63433SOL     OW92195   4.832  10.204  10.783
63433SOL    HW192196   4.764  10.162  10.732
63433SOL    HW292197   4.865  10.135  10.841
63434SOL     OW92198   4.034   6.377   1.341
63434SOL    HW192199   3.960   6.367   1.282
63434SOL    HW292200   4.004   6.441   1.406
63435SOL     OW92201   6.938  13.364   4.976
63435SOL    HW192202   6.978  13.451   4.983
63435SOL    HW292203   6.953  13.324   5.062
63436SOL     OW92204   2.883   2.546   3.923
63436SOL    HW192205   2.924   2.622   3.964
63436SOL    HW292206   2.943   2.473   3.941
63437SOL     OW92207  11.857   9.281   8.239
63437SOL    HW192208  11.935   9.270   8.293
63437SOL    HW292209  11.816   9.361   8.273
63438SOL     OW92210  12.585  11.010   8.112
63438SOL    HW192211  12.546  10.936   8.065
63438SOL    HW292212  12.678  11.007   8.089
63439SOL     OW92213   8.974   1.404   8.358
63439SOL    HW192214   8.904   1.342   8.376
63439SOL    HW292215   8.943   1.486   8.396
63440SOL     OW92216  11.042  14.631  12.674
63440SOL    HW192217  11.045  14.624  12.579
63440SOL    HW292218  11.129  14.607  12.704
63441SOL     OW92219  11.685   5.464  10.291
63441SOL    HW192220  11.781   5.457  10.288
63441SOL    HW292221  11.654   5.384  10.248
63442SOL     OW92222   7.426   9.038   5.919
63442SOL    HW192223   7.350   8.991   5.953
63442SOL    HW292224   7.402   9.060   5.829
63443SOL     OW92225   3.231   1.175   1.561
63443SOL    HW192226   3.306   1.221   1.522
63443SOL    HW292227   3.166   1.171   1.491
63444SOL     OW92228   2.052   0.278   3.248
63444SOL    HW192229   2.111   0.279   3.173
63444SOL    HW292230   2.060   0.366   3.285
63445SOL     OW92231   2.828  12.123   1.656
63445SOL    HW192232   2.915  12.085   1.660
63445SOL    HW292233   2.770  12.049   1.638
63446SOL     OW92234  11.999  12.290   7.384
63446SOL    HW192235  11.964  12.320   7.468
63446SOL    HW292236  12.042  12.367   7.347
63447SOL     OW92237   9.738   8.771   2.397
63447SOL    HW192238   9.689   8.695   2.429
63447SOL    HW292239   9.763   8.818   2.477
63448SOL     OW92240   4.217   0.990   8.126
63448SOL    HW192241   4.277   1.053   8.086
63448SOL    HW292242   4.154   1.043   8.174
63449SOL     OW92243   2.202   5.697   9.764
63449SOL    HW192244   2.187   5.778   9.812
63449SOL    HW292245   2.256   5.723   9.689
63450SOL     OW92246   5.171   9.547   5.359
63450SOL    HW192247   5.208   9.490   5.291
63450SOL    HW292248   5.094   9.587   5.319
63451SOL     OW92249  10.027  12.195   9.736
63451SOL    HW192250  10.086  12.251   9.687
63451SOL    HW292251  10.072  12.111   9.742
63452SOL     OW92252  10.773   4.042  13.203
63452SOL    HW192253  10.723   4.032  13.283
63452SOL    HW292254  10.784   4.137  13.193
63453SOL     OW92255  11.686   4.937  10.182
63453SOL    HW192256  11.708   4.873  10.114
63453SOL    HW292257  11.601   4.909  10.215
63454SOL     OW92258  12.915   1.288   5.009
63454SOL    HW192259  12.992   1.316   5.058
63454SOL    HW292260  12.903   1.196   5.033
63455SOL     OW92261   3.718   1.390   8.358
63455SOL    HW192262   3.681   1.313   8.313
63455SOL    HW292263   3.657   1.407   8.430
63456SOL     OW92264  11.735  14.416   4.712
63456SOL    HW192265  11.670  14.486   4.705
63456SOL    HW292266  11.813  14.451   4.669
63457SOL     OW92267   0.012   7.890   1.665
63457SOL    HW192268   0.078   7.931   1.609
63457SOL    HW292269   0.047   7.803   1.684
63458SOL     OW92270   0.079   6.784   8.360
63458SOL    HW192271   0.036   6.845   8.420
63458SOL    HW292272   0.109   6.713   8.416
63459SOL     OW92273   4.326   1.275   1.493
63459SOL    HW192274   4.270   1.233   1.558
63459SOL    HW292275   4.270   1.339   1.450
63460SOL     OW92276   2.808  10.058   0.938
63460SOL    HW192277   2.902  10.068   0.919
63460SOL    HW292278   2.777  10.146   0.957
63461SOL     OW92279   4.204   1.572   5.000
63461SOL    HW192280   4.126   1.533   4.960
63461SOL    HW292281   4.271   1.564   4.932
63462SOL     OW92282  13.440   8.656   0.254
63462SOL    HW192283  13.432   8.570   0.296
63462SOL    HW292284  13.449   8.636   0.161
63463SOL     OW92285  13.546   1.469   8.606
63463SOL    HW192286  13.500   1.410   8.545
63463SOL    HW292287  13.603   1.411   8.656
63464SOL     OW92288  11.453  11.121   3.515
63464SOL    HW192289  11.504  11.133   3.435
63464SOL    HW292290  11.495  11.179   3.579
63465SOL     OW92291   5.824   7.321  10.849
63465SOL    HW192292   5.762   7.301  10.919
63465SOL    HW292293   5.774   7.307  10.768
63466SOL     OW92294   0.517  10.414   5.898
63466SOL    HW192295   0.542  10.338   5.846
63466SOL    HW292296   0.560  10.400   5.983
63467SOL     OW92297   5.072  13.528   3.198
63467SOL    HW192298   4.985  13.566   3.183
63467SOL    HW292299   5.126  13.564   3.128
63468SOL     OW92300   4.723  14.641   7.083
63468SOL    HW192301   4.719  14.550   7.054
63468SOL    HW292302   4.743  14.635   7.176
63469SOL     OW92303   3.285  12.933   0.267
63469SOL    HW192304   3.247  12.845   0.270
63469SOL    HW292305   3.215  12.989   0.234
63470SOL     OW92306  12.270   0.395   3.153
63470SOL    HW192307  12.303   0.376   3.241
63470SOL    HW292308  12.216   0.319   3.130
63471SOL     OW92309   5.637   1.040   1.569
63471SOL    HW192310   5.676   1.116   1.527
63471SOL    HW292311   5.550   1.069   1.596
63472SOL     OW92312   2.096   0.598  11.507
63472SOL    HW192313   2.042   0.634  11.577
63472SOL    HW292314   2.106   0.670  11.445
63473SOL     OW92315   7.240   3.300   7.119
63473SOL    HW192316   7.334   3.289   7.136
63473SOL    HW292317   7.198   3.251   7.190
63474SOL     OW92318  13.249   9.084  12.802
63474SOL    HW192319  13.270   9.107  12.893
63474SOL    HW292320  13.227   8.991  12.806
63475SOL     OW92321   4.096   4.562   6.122
63475SOL    HW192322   4.080   4.568   6.027
63475SOL    HW292323   4.141   4.643   6.144
63476SOL     OW92324  12.727   0.692   6.324
63476SOL    HW192325  12.659   0.627   6.342
63476SOL    HW292326  12.809   0.643   6.332
63477SOL     OW92327   7.184   3.483  10.910
63477SOL    HW192328   7.106   3.531  10.939
63477SOL    HW292329   7.200   3.515  10.821
63478SOL     OW92330   3.565   5.621  13.755
63478SOL    HW192331   3.578   5.544  13.700
63478SOL    HW292332   3.532   5.688  13.695
63479SOL     OW92333   3.176   1.231   9.002
63479SOL    HW192334   3.140   1.144   8.983
63479SOL    HW292335   3.111   1.292   8.968
63480SOL     OW92336   2.081   9.787   5.947
63480SOL    HW192337   2.010   9.813   5.889
63480SOL    HW292338   2.036   9.752   6.025
63481SOL     OW92339  13.750   8.152   1.795
63481SOL    HW192340  13.670   8.171   1.746
63481SOL    HW292341  13.720   8.118   1.878
63482SOL     OW92342   6.419   4.895   6.455
63482SOL    HW192343   6.500   4.873   6.410
63482SOL    HW292344   6.384   4.810   6.484
63483SOL     OW92345  11.541   9.199   7.711
63483SOL    HW192346  11.454   9.167   7.734
63483SOL    HW292347  11.569   9.249   7.787
63484SOL     OW92348   7.389   8.436  10.776
63484SOL    HW192349   7.399   8.388  10.858
63484SOL    HW292350   7.343   8.516  10.800
63485SOL     OW92351   3.369  13.408   1.094
63485SOL    HW192352   3.460  13.378   1.106
63485SOL    HW292353   3.340  13.432   1.182
63486SOL     OW92354   1.537   2.965   6.228
63486SOL    HW192355   1.494   2.895   6.275
63486SOL    HW292356   1.503   3.046   6.267
63487SOL     OW92357  14.632   4.669  10.171
63487SOL    HW192358  14.637   4.761  10.194
63487SOL    HW292359  14.720   4.635  10.189
63488SOL     OW92360   8.674   8.604   9.683
63488SOL    HW192361   8.737   8.674   9.664
63488SOL    HW292362   8.685   8.543   9.610
63489SOL     OW92363  12.518   1.660  13.489
63489SOL    HW192364  12.609   1.668  13.461
63489SOL    HW292365  12.520   1.593  13.557
63490SOL     OW92366   9.153   8.952   9.119
63490SOL    HW192367   9.122   8.980   9.033
63490SOL    HW292368   9.147   9.030   9.174
63491SOL     OW92369   1.238  12.953   1.175
63491SOL    HW192370   1.254  12.894   1.248
63491SOL    HW292371   1.146  12.977   1.183
63492SOL     OW92372   2.233   6.026  12.848
63492SOL    HW192373   2.228   5.960  12.917
63492SOL    HW292374   2.327   6.038  12.833
63493SOL     OW92375   6.436   7.731   1.329
63493SOL    HW192376   6.446   7.760   1.239
63493SOL    HW292377   6.380   7.798   1.370
63494SOL     OW92378   2.889  13.307   8.773
63494SOL    HW192379   2.853  13.340   8.856
63494SOL    HW292380   2.968  13.360   8.759
63495SOL     OW92381  13.885   2.232  13.078
63495SOL    HW192382  13.907   2.281  13.157
63495SOL    HW292383  13.797   2.198  13.095
63496SOL     OW92384   9.127   3.752   1.911
63496SOL    HW192385   9.148   3.845   1.903
63496SOL    HW292386   9.209   3.711   1.936
63497SOL     OW92387   3.922   3.075  11.299
63497SOL    HW192388   3.988   3.073  11.367
63497SOL    HW292389   3.869   2.997  11.315
63498SOL     OW92390   7.579   0.442   2.176
63498SOL    HW192391   7.633   0.519   2.158
63498SOL    HW292392   7.493   0.464   2.142
63499SOL     OW92393   2.965   3.993   4.811
63499SOL    HW192394   3.053   3.991   4.848
63499SOL    HW292395   2.945   3.901   4.794
63500SOL     OW92396  10.285   2.345   1.939
63500SOL    HW192397  10.190   2.353   1.947
63500SOL    HW292398  10.306   2.391   1.857
63501SOL     OW92399   1.085   6.294  13.603
63501SOL    HW192400   1.063   6.273  13.694
63501SOL    HW292401   1.026   6.365  13.580
63502SOL     OW92402  11.570   5.080   9.441
63502SOL    HW192403  11.567   5.132   9.521
63502SOL    HW292404  11.654   5.104   9.400
63503SOL     OW92405   5.179   5.645   2.585
63503SOL    HW192406   5.087   5.643   2.613
63503SOL    HW292407   5.210   5.556   2.602
63504SOL     OW92408   0.130  11.447   5.084
63504SOL    HW192409   0.180  11.377   5.043
63504SOL    HW292410   0.196  11.510   5.112
63505SOL     OW92411  13.611   8.335  13.722
63505SOL    HW192412  13.615   8.347  13.627
63505SOL    HW292413  13.643   8.246  13.736
63506SOL     OW92414  11.401  14.247   4.419
63506SOL    HW192415  11.409  14.316   4.485
63506SOL    HW292416  11.312  14.214   4.429
63507SOL     OW92417   7.624  12.770  12.139
63507SOL    HW192418   7.679  12.847  12.122
63507SOL    HW292419   7.643  12.710  12.067
63508SOL     OW92420   7.619   6.431   6.459
63508SOL    HW192421   7.646   6.469   6.376
63508SOL    HW292422   7.555   6.494   6.494
63509SOL     OW92423  10.743  11.548   8.651
63509SOL    HW192424  10.740  11.493   8.729
63509SOL    HW292425  10.658  11.534   8.608
63510SOL     OW92426   3.669  13.052   9.432
63510SOL    HW192427   3.670  13.147   9.420
63510SOL    HW292428   3.717  13.037   9.514
63511SOL     OW92429   7.302   5.006   8.628
63511SOL    HW192430   7.391   5.001   8.592
63511SOL    HW292431   7.246   4.969   8.560
63512SOL     OW92432   3.536   4.557   2.159
63512SOL    HW192433   3.623   4.518   2.165
63512SOL    HW292434   3.520   4.594   2.246
63513SOL     OW92435  10.147   8.088  12.529
63513SOL    HW192436  10.089   8.111  12.457
63513SOL    HW292437  10.147   7.993  12.530
63514SOL     OW92438  14.861  10.978   2.147
63514SOL    HW192439  14.828  11.057   2.189
63514SOL    HW292440   0.066  10.974   2.172
63515SOL     OW92441   3.428  12.360   6.608
63515SOL    HW192442   3.345  12.351   6.654
63515SOL    HW292443   3.493  12.375   6.677
63516SOL     OW92444  11.226  14.411  14.132
63516SOL    HW192445  11.152  14.430  14.190
63516SOL    HW292446  11.301  14.450  14.177
63517SOL     OW92447   4.029   3.734   8.704
63517SOL    HW192448   3.957   3.796   8.690
63517SOL    HW292449   4.108   3.788   8.707
63518SOL     OW92450   6.079   0.629  10.594
63518SOL    HW192451   6.001   0.582  10.625
63518SOL    HW292452   6.146   0.561  10.585
63519SOL     OW92453   8.428   9.060   8.870
63519SOL    HW192454   8.409   9.153   8.859
63519SOL    HW292455   8.344   9.021   8.894
63520SOL     OW92456  10.561   0.717   3.149
63520SOL    HW192457  10.528   0.773   3.219
63520SOL    HW292458  10.610   0.776   3.092
63521SOL     OW92459   2.560   7.232   0.207
63521SOL    HW192460   2.468   7.216   0.232
63521SOL    HW292461   2.558   7.317   0.163
63522SOL     OW92462  11.142  11.102   1.300
63522SOL    HW192463  11.089  11.170   1.341
63522SOL    HW292464  11.230  11.115   1.335
63523SOL     OW92465   8.230  10.718   1.159
63523SOL    HW192466   8.241  10.698   1.252
63523SOL    HW292467   8.226  10.632   1.117
63524SOL     OW92468  10.037   9.586  12.997
63524SOL    HW192469   9.974   9.621  13.060
63524SOL    HW292470   9.997   9.505  12.964
63525SOL     OW92471  10.839   4.498   9.663
63525SOL    HW192472  10.837   4.535   9.575
63525SOL    HW292473  10.764   4.537   9.708
63526SOL     OW92474   7.440   5.621  12.402
63526SOL    HW192475   7.405   5.542  12.443
63526SOL    HW292476   7.491   5.663  12.471
63527SOL     OW92477  11.599   0.330   1.407
63527SOL    HW192478  11.663   0.388   1.366
63527SOL    HW292479  11.650   0.256   1.440
63528SOL     OW92480   2.855   1.199   2.821
63528SOL    HW192481   2.899   1.131   2.873
63528SOL    HW292482   2.808   1.251   2.885
63529SOL     OW92483   8.881   8.726   3.376
63529SOL    HW192484   8.837   8.778   3.442
63529SOL    HW292485   8.953   8.781   3.344
63530SOL     OW92486   6.934  14.050  12.792
63530SOL    HW192487   6.872  14.073  12.861
63530SOL    HW292488   7.014  14.097  12.814
63531SOL     OW92489   4.130   6.653  14.666
63531SOL    HW192490   4.212   6.699  14.683
63531SOL    HW292491   4.089   6.645  14.752
63532SOL     OW92492   2.389   3.233  11.470
63532SOL    HW192493   2.440   3.243  11.390
63532SOL    HW292494   2.424   3.300  11.529
63533SOL     OW92495   1.541   0.638  13.226
63533SOL    HW192496   1.472   0.582  13.192
63533SOL    HW292497   1.513   0.727  13.203
63534SOL     OW92498   3.823   2.969  14.579
63534SOL    HW192499   3.822   3.065  14.587
63534SOL    HW292500   3.915   2.945  14.588
63535SOL     OW92501  11.787   2.081   5.287
63535SOL    HW192502  11.850   2.018   5.322
63535SOL    HW292503  11.802   2.080   5.193
63536SOL     OW92504   6.092  11.775   4.381
63536SOL    HW192505   6.143  11.856   4.383
63536SOL    HW292506   6.098  11.740   4.470
63537SOL     OW92507   9.688   6.496  14.521
63537SOL    HW192508   9.596   6.489  14.498
63537SOL    HW292509   9.706   6.417  14.572
63538SOL     OW92510   1.397  12.292  14.166
63538SOL    HW192511   1.372  12.200  14.176
63538SOL    HW292512   1.356  12.318  14.083
63539SOL     OW92513  11.575   4.054   3.089
63539SOL    HW192514  11.494   4.002   3.096
63539SOL    HW292515  11.547   4.138   3.055
63540SOL     OW92516  13.461   6.099   1.549
63540SOL    HW192517  13.445   6.175   1.494
63540SOL    HW292518  13.381   6.047   1.543
63541SOL     OW92519   0.855   7.464  10.573
63541SOL    HW192520   0.789   7.530  10.594
63541SOL    HW292521   0.937   7.513  10.567
63542SOL     OW92522  14.874  13.326   0.811
63542SOL    HW192523   0.079  13.351   0.812
63542SOL    HW292524  14.864  13.274   0.731
63543SOL     OW92525   8.405   0.479  10.191
63543SOL    HW192526   8.331   0.511  10.141
63543SOL    HW292527   8.476   0.541  10.173
63544SOL     OW92528   8.070   0.272   8.763
63544SOL    HW192529   8.051   0.362   8.739
63544SOL    HW292530   8.153   0.253   8.720
63545SOL     OW92531   2.671  14.413   8.422
63545SOL    HW192532   2.647  14.391   8.511
63545SOL    HW292533   2.728  14.341   8.394
63546SOL     OW92534  13.976   1.737   1.853
63546SOL    HW192535  13.934   1.772   1.775
63546SOL    HW292536  14.016   1.813   1.895
63547SOL     OW92537   4.802  13.402   1.962
63547SOL    HW192538   4.816  13.328   1.904
63547SOL    HW292539   4.813  13.366   2.050
63548SOL     OW92540   9.580  12.559   8.088
63548SOL    HW192541   9.550  12.560   7.997
63548SOL    HW292542   9.668  12.597   8.084
63549SOL     OW92543  14.689   0.958   8.675
63549SOL    HW192544  14.753   0.897   8.639
63549SOL    HW292545  14.702   1.038   8.626
63550SOL     OW92546   2.286  13.576   0.209
63550SOL    HW192547   2.271  13.632   0.285
63550SOL    HW292548   2.208  13.521   0.203
63551SOL     OW92549  10.668  12.078   9.194
63551SOL    HW192550  10.687  12.002   9.249
63551SOL    HW292551  10.574  12.071   9.176
63552SOL     OW92552  11.890  14.117  10.491
63552SOL    HW192553  11.926  14.139  10.405
63552SOL    HW292554  11.946  14.162  10.553
63553SOL     OW92555   6.714   0.781   7.421
63553SOL    HW192556   6.721   0.852   7.484
63553SOL    HW292557   6.655   0.813   7.354
63554SOL     OW92558   2.380  10.945  13.097
63554SOL    HW192559   2.352  10.854  13.106
63554SOL    HW292560   2.323  10.982  13.030
63555SOL     OW92561   9.727  12.632  12.646
63555SOL    HW192562   9.635  12.610  12.653
63555SOL    HW292563   9.774  12.550  12.660
63556SOL     OW92564   5.323   2.639   8.727
63556SOL    HW192565   5.319   2.628   8.632
63556SOL    HW292566   5.412   2.670   8.744
63557SOL     OW92567   0.753  13.653   6.540
63557SOL    HW192568   0.762  13.602   6.620
63557SOL    HW292569   0.835  13.640   6.493
63558SOL     OW92570  11.511  13.077   6.726
63558SOL    HW192571  11.429  13.086   6.775
63558SOL    HW292572  11.484  13.065   6.635
63559SOL     OW92573  12.120  12.815  12.685
63559SOL    HW192574  12.072  12.769  12.754
63559SOL    HW292575  12.190  12.861  12.731
63560SOL     OW92576   2.914  11.686   5.695
63560SOL    HW192577   2.832  11.637   5.703
63560SOL    HW292578   2.980  11.629   5.734
63561SOL     OW92579  10.781  12.471   1.105
63561SOL    HW192580  10.861  12.471   1.053
63561SOL    HW292581  10.806  12.512   1.188
63562SOL     OW92582   5.275  10.248  11.211
63562SOL    HW192583   5.330  10.264  11.134
63562SOL    HW292584   5.263  10.153  11.213
63563SOL     OW92585   5.938   0.846   2.351
63563SOL    HW192586   5.921   0.771   2.408
63563SOL    HW292587   5.912   0.922   2.403
63564SOL     OW92588  14.180   1.033  10.595
63564SOL    HW192589  14.275   1.030  10.606
63564SOL    HW292590  14.146   1.055  10.681
63565SOL     OW92591   2.824   8.095   1.004
63565SOL    HW192592   2.835   8.144   0.922
63565SOL    HW292593   2.805   8.005   0.976
63566SOL     OW92594   9.545  13.772  12.049
63566SOL    HW192595   9.604  13.761  12.124
63566SOL    HW292596   9.569  13.856  12.011
63567SOL     OW92597  12.286   2.113   4.984
63567SOL    HW192598  12.314   2.022   4.986
63567SOL    HW292599  12.365   2.163   5.004
63568SOL     OW92600   4.638  11.528   9.486
63568SOL    HW192601   4.579  11.459   9.457
63568SOL    HW292602   4.688  11.489   9.557
63569SOL     OW92603   6.542   1.086  13.740
63569SOL    HW192604   6.526   1.025  13.667
63569SOL    HW292605   6.468   1.146  13.738
63570SOL     OW92606   1.084   2.411  14.014
63570SOL    HW192607   1.080   2.457  14.098
63570SOL    HW292608   1.147   2.461  13.962
63571SOL     OW92609   7.762   5.298   4.709
63571SOL    HW192610   7.820   5.286   4.784
63571SOL    HW292611   7.677   5.319   4.749
63572SOL     OW92612  10.325  12.396   8.728
63572SOL    HW192613  10.248  12.449   8.749
63572SOL    HW292614  10.385  12.458   8.687
63573SOL     OW92615   1.600  14.294   0.680
63573SOL    HW192616   1.645  14.367   0.636
63573SOL    HW292617   1.656  14.218   0.664
63574SOL     OW92618   9.529  13.617   2.207
63574SOL    HW192619   9.585  13.670   2.264
63574SOL    HW292620   9.586  13.548   2.175
63575SOL     OW92621   1.311   0.660  12.762
63575SOL    HW192622   1.392   0.686  12.719
63575SOL    HW292623   1.252   0.734  12.749
63576SOL     OW92624   7.833  10.235  11.463
63576SOL    HW192625   7.909  10.232  11.405
63576SOL    HW292626   7.757  10.232  11.405
63577SOL     OW92627  12.414   3.229  10.014
63577SOL    HW192628  12.480   3.272  10.068
63577SOL    HW292629  12.464   3.176   9.952
63578SOL     OW92630   4.407  10.266   6.030
63578SOL    HW192631   4.390  10.172   6.038
63578SOL    HW292632   4.345  10.296   5.964
63579SOL     OW92633   6.303  11.542  14.661
63579SOL    HW192634   6.370  11.568  14.725
63579SOL    HW292635   6.280  11.623  14.617
63580SOL     OW92636   4.932   7.805   4.549
63580SOL    HW192637   5.013   7.819   4.598
63580SOL    HW292638   4.914   7.889   4.508
63581SOL     OW92639  12.279   2.853   9.551
63581SOL    HW192640  12.292   2.932   9.498
63581SOL    HW292641  12.228   2.795   9.495
63582SOL     OW92642  10.319   5.221   7.596
63582SOL    HW192643  10.366   5.242   7.515
63582SOL    HW292644  10.282   5.305   7.625
63583SOL     OW92645  10.029  14.151   7.470
63583SOL    HW192646  10.080  14.071   7.451
63583SOL    HW292647   9.994  14.177   7.385
63584SOL     OW92648   0.342   5.726   5.285
63584SOL    HW192649   0.352   5.694   5.374
63584SOL    HW292650   0.429   5.758   5.261
63585SOL     OW92651  11.771  14.778  14.752
63585SOL    HW192652  11.782  14.738  14.838
63585SOL    HW292653  11.788  14.871  14.766
63586SOL     OW92654   2.307   0.021   7.367
63586SOL    HW192655   2.224  14.871   7.337
63586SOL    HW292656   2.282   0.078   7.440
63587SOL     OW92657   9.487   6.879  11.063
63587SOL    HW192658   9.443   6.933  10.998
63587SOL    HW292659   9.417   6.850  11.122
63588SOL     OW92660   6.950   4.630   3.480
63588SOL    HW192661   6.996   4.648   3.398
63588SOL    HW292662   7.020   4.623   3.546
63589SOL     OW92663   5.887   8.009   7.027
63589SOL    HW192664   5.812   8.059   6.996
63589SOL    HW292665   5.892   8.027   7.121
63590SOL     OW92666  12.058   2.027  14.852
63590SOL    HW192667  12.061   2.018  14.757
63590SOL    HW292668  12.032   1.940  14.884
63591SOL     OW92669   9.988   2.878   7.525
63591SOL    HW192670   9.970   2.809   7.462
63591SOL    HW292671   9.905   2.891   7.572
63592SOL     OW92672   8.800   1.523   7.384
63592SOL    HW192673   8.768   1.614   7.378
63592SOL    HW292674   8.812   1.496   7.293
63593SOL     OW92675  10.500   6.034   3.173
63593SOL    HW192676  10.577   6.090   3.163
63593SOL    HW292677  10.438   6.088   3.222
63594SOL     OW92678  13.231  14.050  13.647
63594SOL    HW192679  13.160  14.049  13.711
63594SOL    HW292680  13.278  13.968  13.661
63595SOL     OW92681   8.891   4.961   4.820
63595SOL    HW192682   8.983   4.937   4.829
63595SOL    HW292683   8.885   5.003   4.734
63596SOL     OW92684  11.915   2.164  12.187
63596SOL    HW192685  11.909   2.199  12.098
63596SOL    HW292686  11.996   2.201  12.222
63597SOL     OW92687  13.783   1.146  14.077
63597SOL    HW192688  13.872   1.172  14.099
63597SOL    HW292689  13.729   1.183  14.147
63598SOL     OW92690   8.639  11.503  13.703
63598SOL    HW192691   8.627  11.484  13.610
63598SOL    HW292692   8.551  11.522  13.735
63599SOL     OW92693  10.183   4.250   7.657
63599SOL    HW192694  10.270   4.264   7.694
63599SOL    HW292695  10.123   4.289   7.722
63600SOL     OW92696   0.013   6.938   7.990
63600SOL    HW192697  14.862   6.865   8.039
63600SOL    HW292698  14.867   7.016   8.034
63601SOL     OW92699   8.101   4.081   7.125
63601SOL    HW192700   8.124   4.096   7.217
63601SOL    HW292701   8.019   4.031   7.128
63602SOL     OW92702  11.902   0.909   5.284
63602SOL    HW192703  11.996   0.891   5.289
63602SOL    HW292704  11.863   0.845   5.344
63603SOL     OW92705   4.399  11.606   0.105
63603SOL    HW192706   4.486  11.618   0.067
63603SOL    HW292707   4.382  11.512   0.095
63604SOL     OW92708   1.529  14.052   0.361
63604SOL    HW192709   1.457  13.994   0.386
63604SOL    HW292710   1.582  13.998   0.301
63605SOL     OW92711   1.553   1.174  14.362
63605SOL    HW192712   1.629   1.126  14.328
63605SOL    HW292713   1.499   1.107  14.402
63606SOL     OW92714  10.577   8.350   9.960
63606SOL    HW192715  10.653   8.384  10.007
63606SOL    HW292716  10.502   8.384  10.008
63607SOL     OW92717   3.914   7.061   0.487
63607SOL    HW192718   3.869   7.059   0.402
63607SOL    HW292719   3.843   7.060   0.552
63608SOL     OW92720   3.920  11.227   1.832
63608SOL    HW192721   4.013  11.241   1.812
63608SOL    HW292722   3.913  11.133   1.849
63609SOL     OW92723   8.407   5.914   0.503
63609SOL    HW192724   8.407   5.981   0.571
63609SOL    HW292725   8.457   5.842   0.541
63610SOL     OW92726   0.294   2.781   5.394
63610SOL    HW192727   0.276   2.690   5.417
63610SOL    HW292728   0.225   2.831   5.438
63611SOL     OW92729   3.634   2.202   2.071
63611SOL    HW192730   3.597   2.149   2.142
63611SOL    HW292731   3.619   2.292   2.099
63612SOL     OW92732  12.106  12.371  11.579
63612SOL    HW192733  12.185  12.344  11.625
63612SOL    HW292734  12.133  12.448  11.529
63613SOL     OW92735  14.402   9.908  13.915
63613SOL    HW192736  14.356   9.950  13.988
63613SOL    HW292737  14.350   9.930  13.838
63614SOL     OW92738   6.145   4.338   6.040
63614SOL    HW192739   6.219   4.367   5.986
63614SOL    HW292740   6.078   4.404   6.025
63615SOL     OW92741  10.817   9.220  10.192
63615SOL    HW192742  10.749   9.175  10.243
63615SOL    HW292743  10.894   9.218  10.248
63616SOL     OW92744   1.187   6.377   5.281
63616SOL    HW192745   1.093   6.365   5.264
63616SOL    HW292746   1.231   6.335   5.207
63617SOL     OW92747  13.331   1.712   4.659
63617SOL    HW192748  13.403   1.737   4.717
63617SOL    HW292749  13.253   1.720   4.714
63618SOL     OW92750   9.131   2.918  11.245
63618SOL    HW192751   9.205   2.943  11.190
63618SOL    HW292752   9.108   2.999  11.291
63619SOL     OW92753   4.185  13.972  14.661
63619SOL    HW192754   4.144  13.917  14.594
63619SOL    HW292755   4.121  14.043  14.677
63620SOL     OW92756   8.212   9.327   3.677
63620SOL    HW192757   8.192   9.399   3.617
63620SOL    HW292758   8.287   9.283   3.637
63621SOL     OW92759   5.618   6.136   6.045
63621SOL    HW192760   5.705   6.154   6.082
63621SOL    HW292761   5.558   6.188   6.098
63622SOL     OW92762   6.822   7.068   9.963
63622SOL    HW192763   6.868   7.068  10.047
63622SOL    HW292764   6.730   7.064   9.986
63623SOL     OW92765  13.430   7.961  11.151
63623SOL    HW192766  13.448   8.001  11.236
63623SOL    HW292767  13.516   7.933  11.120
63624SOL     OW92768   7.445   8.247  10.113
63624SOL    HW192769   7.421   8.222  10.202
63624SOL    HW292770   7.404   8.333  10.101
63625SOL     OW92771  14.819   1.055   6.243
63625SOL    HW192772  14.824   0.972   6.292
63625SOL    HW292773  14.840   1.031   6.153
63626SOL     OW92774   9.267   0.286  11.092
63626SOL    HW192775   9.260   0.378  11.066
63626SOL    HW292776   9.177   0.254  11.091
63627SOL     OW92777  11.277   7.034   1.109
63627SOL    HW192778  11.279   6.971   1.036
63627SOL    HW292779  11.229   7.109   1.074
63628SOL     OW92780  11.256   4.104   3.121
63628SOL    HW192781  11.183   4.135   3.176
63628SOL    HW292782  11.256   4.163   3.046
63629SOL     OW92783  13.143   1.609   2.992
63629SOL    HW192784  13.207   1.560   3.044
63629SOL    HW292785  13.060   1.564   3.008
63630SOL     OW92786   0.206  11.620   6.030
63630SOL    HW192787   0.124  11.602   6.077
63630SOL    HW292788   0.213  11.549   5.966
63631SOL     OW92789   5.763  11.941  10.558
63631SOL    HW192790   5.774  12.006  10.488
63631SOL    HW292791   5.722  11.867  10.514
63632SOL     OW92792  12.649   5.016   2.062
63632SOL    HW192793  12.563   5.026   2.103
63632SOL    HW292794  12.707   4.991   2.134
63633SOL     OW92795   9.756   2.627  11.467
63633SOL    HW192796   9.771   2.597  11.377
63633SOL    HW292797   9.751   2.546  11.519
63634SOL     OW92798  14.182  11.776   8.940
63634SOL    HW192799  14.258  11.832   8.929
63634SOL    HW292800  14.112  11.820   8.891
63635SOL     OW92801   0.141   3.578   9.094
63635SOL    HW192802   0.120   3.484   9.094
63635SOL    HW292803   0.063   3.620   9.130
63636SOL     OW92804   6.130   2.261   7.810
63636SOL    HW192805   6.177   2.334   7.769
63636SOL    HW292806   6.038   2.285   7.802
63637SOL     OW92807   5.923   1.839  10.535
63637SOL    HW192808   5.850   1.884  10.494
63637SOL    HW292809   5.987   1.829  10.465
63638SOL     OW92810  14.850   9.608   8.871
63638SOL    HW192811  14.816   9.563   8.793
63638SOL    HW292812  14.772   9.643   8.913
63639SOL     OW92813   6.766   9.802  12.416
63639SOL    HW192814   6.764   9.707  12.426
63639SOL    HW292815   6.854   9.827  12.442
63640SOL     OW92816   3.999  13.678   7.979
63640SOL    HW192817   4.057  13.752   7.994
63640SOL    HW292818   3.954  13.697   7.897
63641SOL     OW92819   6.420  10.013   4.361
63641SOL    HW192820   6.469  10.044   4.437
63641SOL    HW292821   6.334  10.054   4.369
63642SOL     OW92822  11.354  13.989  11.509
63642SOL    HW192823  11.348  13.917  11.447
63642SOL    HW292824  11.292  13.966  11.579
63643SOL     OW92825  10.655   3.142   9.511
63643SOL    HW192826  10.582   3.165   9.568
63643SOL    HW292827  10.614   3.099   9.435
63644SOL     OW92828   3.716  12.782   7.541
63644SOL    HW192829   3.659  12.850   7.579
63644SOL    HW292830   3.684  12.700   7.579
63645SOL     OW92831   8.851  12.434   7.514
63645SOL    HW192832   8.789  12.477   7.572
63645SOL    HW292833   8.854  12.489   7.436
63646SOL     OW92834  14.534   1.475   4.856
63646SOL    HW192835  14.610   1.521   4.821
63646SOL    HW292836  14.477   1.545   4.888
63647SOL     OW92837   4.400   5.706   9.745
63647SOL    HW192838   4.327   5.753   9.784
63647SOL    HW292839   4.390   5.616   9.776
63648SOL     OW92840   3.495  12.615  10.502
63648SOL    HW192841   3.449  12.649  10.425
63648SOL    HW292842   3.576  12.667  10.506
63649SOL     OW92843   2.665   7.283   2.326
63649SOL    HW192844   2.677   7.368   2.370
63649SOL    HW292845   2.687   7.218   2.393
63650SOL     OW92846   0.862  14.716   2.790
63650SOL    HW192847   0.949  14.755   2.802
63650SOL    HW292848   0.822  14.767   2.720
63651SOL     OW92849  14.042   8.323   0.918
63651SOL    HW192850  14.065   8.272   0.840
63651SOL    HW292851  14.118   8.314   0.976
63652SOL     OW92852   6.869   3.632   5.978
63652SOL    HW192853   6.895   3.708   5.925
63652SOL    HW292854   6.775   3.624   5.964
63653SOL     OW92855   5.303  13.619   5.556
63653SOL    HW192856   5.347  13.593   5.637
63653SOL    HW292857   5.316  13.714   5.551
63654SOL     OW92858   7.973   9.049   3.279
63654SOL    HW192859   8.029   8.973   3.267
63654SOL    HW292860   7.940   9.041   3.368
63655SOL     OW92861   2.212  14.368   4.850
63655SOL    HW192862   2.205  14.273   4.863
63655SOL    HW292863   2.125  14.402   4.872
63656SOL     OW92864   2.429  11.763   4.447
63656SOL    HW192865   2.431  11.795   4.537
63656SOL    HW292866   2.404  11.670   4.455
63657SOL     OW92867  10.407  10.063   2.786
63657SOL    HW192868  10.395  10.158   2.789
63657SOL    HW292869  10.468  10.044   2.857
63658SOL     OW92870   3.005   9.003   0.599
63658SOL    HW192871   2.954   8.986   0.679
63658SOL    HW292872   3.055   9.082   0.619
63659SOL     OW92873   3.942   2.751   0.327
63659SOL    HW192874   4.002   2.723   0.258
63659SOL    HW292875   3.856   2.725   0.294
63660SOL     OW92876   8.314   6.338   0.882
63660SOL    HW192877   8.310   6.407   0.948
63660SOL    HW292878   8.408   6.317   0.876
63661SOL     OW92879   6.426  13.633   1.830
63661SOL    HW192880   6.366  13.654   1.902
63661SOL    HW292881   6.436  13.538   1.834
63662SOL     OW92882   9.503   9.827   0.991
63662SOL    HW192883   9.537   9.809   0.904
63662SOL    HW292884   9.540   9.912   1.015
63663SOL     OW92885   2.351  13.609  12.805
63663SOL    HW192886   2.258  13.591  12.813
63663SOL    HW292887   2.372  13.592  12.713
63664SOL     OW92888   5.650   5.391   4.794
63664SOL    HW192889   5.575   5.361   4.741
63664SOL    HW292890   5.709   5.316   4.796
63665SOL     OW92891   0.074   2.711   1.676
63665SOL    HW192892   0.053   2.631   1.627
63665SOL    HW292893  14.882   2.728   1.727
63666SOL     OW92894   8.978   2.090   2.273
63666SOL    HW192895   9.036   2.023   2.309
63666SOL    HW292896   9.028   2.128   2.201
63667SOL     OW92897  13.875   7.661   6.298
63667SOL    HW192898  13.894   7.729   6.363
63667SOL    HW292899  13.847   7.709   6.220
63668SOL     OW92900   1.065   8.250   2.226
63668SOL    HW192901   1.091   8.158   2.226
63668SOL    HW292902   1.035   8.267   2.137
63669SOL     OW92903   1.717   4.804   0.427
63669SOL    HW192904   1.782   4.804   0.356
63669SOL    HW292905   1.632   4.805   0.382
63670SOL     OW92906   7.763  12.906  13.189
63670SOL    HW192907   7.692  12.927  13.128
63670SOL    HW292908   7.743  12.817  13.218
63671SOL     OW92909   7.432  12.058   9.342
63671SOL    HW192910   7.387  12.105   9.272
63671SOL    HW292911   7.421  11.966   9.320
63672SOL     OW92912  12.509  10.119  12.062
63672SOL    HW192913  12.503  10.173  11.983
63672SOL    HW292914  12.418  10.104  12.087
63673SOL     OW92915   4.352  12.947  10.178
63673SOL    HW192916   4.326  13.002  10.104
63673SOL    HW292917   4.336  13.001  10.255
63674SOL     OW92918   7.633   3.169  13.315
63674SOL    HW192919   7.669   3.187  13.402
63674SOL    HW292920   7.665   3.081  13.294
63675SOL     OW92921   3.904   1.789  11.124
63675SOL    HW192922   3.958   1.788  11.203
63675SOL    HW292923   3.966   1.776  11.052
63676SOL     OW92924  10.330   2.022   2.091
63676SOL    HW192925  10.347   1.986   2.004
63676SOL    HW292926  10.240   1.997   2.110
63677SOL     OW92927  12.178  14.493   9.421
63677SOL    HW192928  12.161  14.586   9.437
63677SOL    HW292929  12.266  14.478   9.456
63678SOL     OW92930  14.608  11.683   3.835
63678SOL    HW192931  14.688  11.722   3.870
63678SOL    HW292932  14.618  11.689   3.740
63679SOL     OW92933   3.671   3.168   0.810
63679SOL    HW192934   3.700   3.259   0.818
63679SOL    HW292935   3.583   3.174   0.772
63680SOL     OW92936  13.821   6.500   7.296
63680SOL    HW192937  13.817   6.553   7.217
63680SOL    HW292938  13.897   6.532   7.344
63681SOL     OW92939   2.292  14.385   8.520
63681SOL    HW192940   2.197  14.371   8.526
63681SOL    HW292941   2.312  14.373   8.428
63682SOL     OW92942  10.224  13.781   2.976
63682SOL    HW192943  10.185  13.701   3.011
63682SOL    HW292944  10.241  13.836   3.052
63683SOL     OW92945   2.653   0.216  12.017
63683SOL    HW192946   2.710   0.234  11.942
63683SOL    HW292947   2.576   0.173  11.978
63684SOL     OW92948   6.297   4.598   3.711
63684SOL    HW192949   6.246   4.530   3.666
63684SOL    HW292950   6.252   4.611   3.794
63685SOL     OW92951   2.646   1.999   0.867
63685SOL    HW192952   2.577   1.940   0.897
63685SOL    HW292953   2.700   2.014   0.944
63686SOL     OW92954   2.294  13.465   2.261
63686SOL    HW192955   2.278  13.498   2.173
63686SOL    HW292956   2.333  13.539   2.308
63687SOL     OW92957   8.753   4.069   3.598
63687SOL    HW192958   8.801   4.037   3.522
63687SOL    HW292959   8.745   4.164   3.583
63688SOL     OW92960   8.480   8.012   5.218
63688SOL    HW192961   8.400   8.033   5.267
63688SOL    HW292962   8.528   7.952   5.275
63689SOL     OW92963   7.253   0.040   5.323
63689SOL    HW192964   7.202   0.054   5.403
63689SOL    HW292965   7.194   0.065   5.252
63690SOL     OW92966  10.860   6.198  14.367
63690SOL    HW192967  10.870   6.140  14.443
63690SOL    HW292968  10.829   6.140  14.297
63691SOL     OW92969   4.577   3.869   9.129
63691SOL    HW192970   4.595   3.813   9.054
63691SOL    HW292971   4.619   3.824   9.203
63692SOL     OW92972   4.064   5.163   9.332
63692SOL    HW192973   3.992   5.207   9.286
63692SOL    HW292974   4.140   5.219   9.316
63693SOL     OW92975   5.211   9.951   6.752
63693SOL    HW192976   5.300   9.964   6.720
63693SOL    HW292977   5.189   9.861   6.726
63694SOL     OW92978   3.598   9.554  13.130
63694SOL    HW192979   3.596   9.501  13.051
63694SOL    HW292980   3.556   9.500  13.197
63695SOL     OW92981   3.374   1.561   0.471
63695SOL    HW192982   3.359   1.654   0.489
63695SOL    HW292983   3.287   1.526   0.450
63696SOL     OW92984   9.075   3.538   3.157
63696SOL    HW192985   9.040   3.625   3.171
63696SOL    HW292986   9.059   3.520   3.064
63697SOL     OW92987   1.864  10.774   2.655
63697SOL    HW192988   1.863  10.681   2.631
63697SOL    HW292989   1.776  10.804   2.635
63698SOL     OW92990   7.850  12.164  14.352
63698SOL    HW192991   7.887  12.252  14.354
63698SOL    HW292992   7.846  12.136  14.443
63699SOL     OW92993  14.153   9.254  12.451
63699SOL    HW192994  14.237   9.295  12.427
63699SOL    HW292995  14.167   9.161  12.437
63700SOL     OW92996   7.439   4.169   3.547
63700SOL    HW192997   7.434   4.263   3.533
63700SOL    HW292998   7.416   4.157   3.639
63701SOL     OW92999   4.134   7.614  12.372
63701SOL    HW193000   4.212   7.560  12.373
63701SOL    HW293001   4.137   7.658  12.287
63702SOL     OW93002  14.548  11.145  11.320
63702SOL    HW193003  14.613  11.101  11.265
63702SOL    HW293004  14.596  11.172  11.397
63703SOL     OW93005   0.365   9.788   0.621
63703SOL    HW193006   0.336   9.759   0.535
63703SOL    HW293007   0.428   9.722   0.650
63704SOL     OW93008  13.454   0.040   1.497
63704SOL    HW193009  13.503   0.118   1.526
63704SOL    HW293010  13.522  14.864   1.473
63705SOL     OW93011  11.555   4.858   5.771
63705SOL    HW193012  11.514   4.916   5.707
63705SOL    HW293013  11.530   4.895   5.856
63706SOL     OW93014   3.430  10.667   4.519
63706SOL    HW193015   3.488  10.632   4.451
63706SOL    HW293016   3.465  10.632   4.601
63707SOL     OW93017  10.545   0.360   5.405
63707SOL    HW193018  10.637   0.334   5.411
63707SOL    HW293019  10.511   0.349   5.493
63708SOL     OW93020   9.461  14.487   6.754
63708SOL    HW193021   9.390  14.468   6.693
63708SOL    HW293022   9.442  14.575   6.787
63709SOL     OW93023   8.391   4.566   5.664
63709SOL    HW193024   8.297   4.580   5.654
63709SOL    HW293025   8.423   4.648   5.703
63710SOL     OW93026  11.769   3.735   8.037
63710SOL    HW193027  11.856   3.754   8.002
63710SOL    HW293028  11.778   3.650   8.079
63711SOL     OW93029   5.487   5.347   6.971
63711SOL    HW193030   5.472   5.418   6.909
63711SOL    HW293031   5.503   5.391   7.055
63712SOL     OW93032  12.021  14.047  14.479
63712SOL    HW193033  12.102  13.996  14.467
63712SOL    HW293034  11.984  14.054  14.392
63713SOL     OW93035   1.173   7.717   8.178
63713SOL    HW193036   1.160   7.623   8.165
63713SOL    HW293037   1.231   7.722   8.254
63714SOL     OW93038   7.816  14.168   9.179
63714SOL    HW193039   7.876  14.233   9.215
63714SOL    HW293040   7.782  14.209   9.099
63715SOL     OW93041   6.749   7.394  12.262
63715SOL    HW193042   6.658   7.384  12.234
63715SOL    HW293043   6.759   7.331  12.333
63716SOL     OW93044  13.048   5.988   8.639
63716SOL    HW193045  13.089   5.905   8.614
63716SOL    HW293046  13.059   5.992   8.734
63717SOL     OW93047  13.352  12.132   5.206
63717SOL    HW193048  13.274  12.142   5.260
63717SOL    HW293049  13.338  12.051   5.157
63718SOL     OW93050   5.991   5.037   7.431
63718SOL    HW193051   6.040   5.105   7.477
63718SOL    HW293052   5.966   5.077   7.348
63719SOL     OW93053   9.582  11.300  12.606
63719SOL    HW193054   9.656  11.239  12.608
63719SOL    HW293055   9.505  11.243  12.607
63720SOL     OW93056   4.919   9.750  14.833
63720SOL    HW193057   4.944   9.792   0.028
63720SOL    HW293058   4.857   9.811  14.793
63721SOL     OW93059  12.658   1.576   0.529
63721SOL    HW193060  12.619   1.569   0.442
63721SOL    HW293061  12.589   1.617   0.582
63722SOL     OW93062   2.903   2.571   0.024
63722SOL    HW193063   2.907   2.649   0.079
63722SOL    HW293064   2.924   2.602  14.823
63723SOL     OW93065   2.667   1.479  10.889
63723SOL    HW193066   2.641   1.570  10.877
63723SOL    HW293067   2.631   1.455  10.975
63724SOL     OW93068   5.309   3.239   5.581
63724SOL    HW193069   5.266   3.324   5.581
63724SOL    HW293070   5.389   3.253   5.530
63725SOL     OW93071   5.631   7.068   8.540
63725SOL    HW193072   5.719   7.034   8.525
63725SOL    HW293073   5.640   7.126   8.615
63726SOL     OW93074   2.515   1.524   1.521
63726SOL    HW193075   2.494   1.617   1.537
63726SOL    HW293076   2.437   1.489   1.478
63727SOL     OW93077   3.581   3.614   4.219
63727SOL    HW193078   3.628   3.624   4.137
63727SOL    HW293079   3.649   3.619   4.287
63728SOL     OW93080   8.803  14.397   9.240
63728SOL    HW193081   8.768  14.458   9.306
63728SOL    HW293082   8.759  14.314   9.258
63729SOL     OW93083   0.588   9.828   1.309
63729SOL    HW193084   0.524   9.757   1.310
63729SOL    HW293085   0.654   9.799   1.245
63730SOL     OW93086   8.378   1.566   0.629
63730SOL    HW193087   8.434   1.644   0.634
63730SOL    HW293088   8.342   1.569   0.540
63731SOL     OW93089   3.008  11.228   0.228
63731SOL    HW193090   3.025  11.209   0.136
63731SOL    HW293091   3.088  11.271   0.258
63732SOL     OW93092   7.573   5.205   2.208
63732SOL    HW193093   7.554   5.207   2.302
63732SOL    HW293094   7.493   5.171   2.168
63733SOL     OW93095   9.269   3.150   5.497
63733SOL    HW193096   9.258   3.243   5.519
63733SOL    HW293097   9.191   3.128   5.446
63734SOL     OW93098   9.302   0.137   7.170
63734SOL    HW193099   9.276   0.203   7.105
63734SOL    HW293100   9.239   0.149   7.241
63735SOL     OW93101   7.956  10.195   9.459
63735SOL    HW193102   7.996  10.113   9.430
63735SOL    HW293103   7.997  10.213   9.544
63736SOL     OW93104  12.569   8.863   0.211
63736SOL    HW193105  12.531   8.778   0.234
63736SOL    HW293106  12.657   8.841   0.179
63737SOL     OW93107   1.523   0.420   0.987
63737SOL    HW193108   1.606   0.456   1.020
63737SOL    HW293109   1.456   0.462   1.040
63738SOL     OW93110   1.187   5.945   9.057
63738SOL    HW193111   1.146   6.010   9.000
63738SOL    HW293112   1.245   5.895   8.999
63739SOL     OW93113   5.116  12.908   7.172
63739SOL    HW193114   5.179  12.841   7.143
63739SOL    HW293115   5.086  12.877   7.258
63740SOL     OW93116   3.875  10.471   7.096
63740SOL    HW193117   3.875  10.522   7.015
63740SOL    HW293118   3.807  10.405   7.082
63741SOL     OW93119   8.554  13.280  14.833
63741SOL    HW193120   8.526  13.239   0.028
63741SOL    HW293121   8.481  13.267  14.773
63742SOL     OW93122   1.093  13.068  11.303
63742SOL    HW193123   1.080  13.100  11.392
63742SOL    HW293124   1.007  13.036  11.276
63743SOL     OW93125   8.562   8.395   5.188
63743SOL    HW193126   8.641   8.434   5.227
63743SOL    HW293127   8.517   8.468   5.147
63744SOL     OW93128  13.881   4.113  11.688
63744SOL    HW193129  13.891   4.038  11.629
63744SOL    HW293130  13.970   4.146  11.701
63745SOL     OW93131   8.822   7.211   4.863
63745SOL    HW193132   8.747   7.208   4.803
63745SOL    HW293133   8.810   7.293   4.911
63746SOL     OW93134   1.247  13.687  10.167
63746SOL    HW193135   1.241  13.645  10.081
63746SOL    HW293136   1.305  13.762  10.153
63747SOL     OW93137   5.104   3.115  13.469
63747SOL    HW193138   5.120   3.180  13.401
63747SOL    HW293139   5.127   3.031  13.427
63748SOL     OW93140  10.089   7.771   2.523
63748SOL    HW193141  10.101   7.863   2.501
63748SOL    HW293142  10.022   7.772   2.591
63749SOL     OW93143   7.289   4.943  13.371
63749SOL    HW193144   7.310   4.881  13.301
63749SOL    HW293145   7.337   5.022  13.348
63750SOL     OW93146   5.223   7.128   8.951
63750SOL    HW193147   5.283   7.054   8.942
63750SOL    HW293148   5.277   7.205   8.933
63751SOL     OW93149   0.349  12.879  12.900
63751SOL    HW193150   0.339  12.841  12.987
63751SOL    HW293151   0.269  12.854  12.854
63752SOL     OW93152   3.212  10.764   4.269
63752SOL    HW193153   3.163  10.695   4.225
63752SOL    HW293154   3.187  10.844   4.223
63753SOL     OW93155   7.564  12.483   0.091
63753SOL    HW193156   7.646  12.439   0.113
63753SOL    HW293157   7.576  12.573   0.119
63754SOL     OW93158   7.315  11.283   6.421
63754SOL    HW193159   7.355  11.275   6.508
63754SOL    HW293160   7.337  11.201   6.377
63755SOL     OW93161  13.835   7.832   7.426
63755SOL    HW193162  13.914   7.851   7.477
63755SOL    HW293163  13.807   7.917   7.392
63756SOL     OW93164   6.908  11.488   5.544
63756SOL    HW193165   6.981  11.432   5.518
63756SOL    HW293166   6.853  11.433   5.599
63757SOL     OW93167   6.906   2.252   4.116
63757SOL    HW193168   6.875   2.177   4.065
63757SOL    HW293169   6.980   2.287   4.065
63758SOL     OW93170  12.988   2.742  12.195
63758SOL    HW193171  12.934   2.673  12.157
63758SOL    HW293172  13.051   2.696  12.250
63759SOL     OW93173   3.083  10.591  10.284
63759SOL    HW193174   3.056  10.500  10.271
63759SOL    HW293175   3.063  10.634  10.201
63760SOL     OW93176   4.762   1.642   6.860
63760SOL    HW193177   4.794   1.716   6.912
63760SOL    HW293178   4.801   1.566   6.901
63761SOL     OW93179   1.936  10.368   7.894
63761SOL    HW193180   1.913  10.410   7.976
63761SOL    HW293181   2.017  10.320   7.914
63762SOL     OW93182  11.440   0.989  14.805
63762SOL    HW193183  11.433   0.895  14.821
63762SOL    HW293184  11.351   1.016  14.782
63763SOL     OW93185  11.732  13.886   7.580
63763SOL    HW193186  11.711  13.852   7.493
63763SOL    HW293187  11.677  13.964   7.589
63764SOL     OW93188   5.965  11.064  14.269
63764SOL    HW193189   6.047  11.029  14.235
63764SOL    HW293190   5.897  11.011  14.228
63765SOL     OW93191   2.989   9.980   8.561
63765SOL    HW193192   3.026  10.029   8.635
63765SOL    HW293193   3.039   9.899   8.559
63766SOL     OW93194   5.597   9.122   8.813
63766SOL    HW193195   5.503   9.120   8.830
63766SOL    HW293196   5.637   9.140   8.898
63767SOL     OW93197  13.480   3.791   0.354
63767SOL    HW193198  13.533   3.822   0.281
63767SOL    HW293199  13.517   3.706   0.378
63768SOL     OW93200   4.087   6.451  11.221
63768SOL    HW193201   4.015   6.396  11.250
63768SOL    HW293202   4.157   6.435  11.285
63769SOL     OW93203   3.262   3.444   0.975
63769SOL    HW193204   3.319   3.497   0.919
63769SOL    HW293205   3.263   3.357   0.936
63770SOL     OW93206   7.399   2.709   9.256
63770SOL    HW193207   7.380   2.617   9.239
63770SOL    HW293208   7.399   2.750   9.169
63771SOL     OW93209   7.495  11.046   4.525
63771SOL    HW193210   7.546  11.106   4.470
63771SOL    HW293211   7.450  11.103   4.587
63772SOL     OW93212  14.558   9.530   4.545
63772SOL    HW193213  14.474   9.554   4.585
63772SOL    HW293214  14.612   9.609   4.552
63773SOL     OW93215   5.318   8.670   2.013
63773SOL    HW193216   5.311   8.762   1.988
63773SOL    HW293217   5.286   8.667   2.103
63774SOL     OW93218  12.524   1.768   7.241
63774SOL    HW193219  12.478   1.807   7.316
63774SOL    HW293220  12.465   1.780   7.167
63775SOL     OW93221   7.060   4.858   7.380
63775SOL    HW193222   7.072   4.892   7.469
63775SOL    HW293223   7.147   4.830   7.353
63776SOL     OW93224   8.874  10.089   0.745
63776SOL    HW193225   8.873  10.075   0.651
63776SOL    HW293226   8.782  10.103   0.768
63777SOL     OW93227   1.719   6.131   9.595
63777SOL    HW193228   1.643   6.188   9.607
63777SOL    HW293229   1.736   6.095   9.682
63778SOL     OW93230   5.995   5.020  13.007
63778SOL    HW193231   6.088   5.042  13.018
63778SOL    HW293232   5.984   4.937  13.053
63779SOL     OW93233  14.289   1.089   6.482
63779SOL    HW193234  14.298   1.137   6.564
63779SOL    HW293235  14.314   1.151   6.414
63780SOL     OW93236  11.241   9.950   6.835
63780SOL    HW193237  11.272   9.863   6.811
63780SOL    HW293238  11.149   9.951   6.808
63781SOL     OW93239   5.849   0.991   7.358
63781SOL    HW193240   5.759   0.964   7.343
63781SOL    HW293241   5.844   1.086   7.370
63782SOL     OW93242  11.937   2.233   4.718
63782SOL    HW193243  11.982   2.265   4.640
63782SOL    HW293244  12.006   2.190   4.768
63783SOL     OW93245   8.640   4.866   0.765
63783SOL    HW193246   8.659   4.778   0.733
63783SOL    HW293247   8.608   4.852   0.854
63784SOL     OW93248  14.092  13.448  10.478
63784SOL    HW193249  14.058  13.467  10.391
63784SOL    HW293250  14.119  13.533  10.513
63785SOL     OW93251   7.564  14.118   1.366
63785SOL    HW193252   7.541  14.036   1.408
63785SOL    HW293253   7.578  14.095   1.274
63786SOL     OW93254  12.400  12.006  14.156
63786SOL    HW193255  12.305  12.007  14.144
63786SOL    HW293256  12.413  11.973  14.244
63787SOL     OW93257   7.018  13.086   5.615
63787SOL    HW193258   7.084  13.118   5.676
63787SOL    HW293259   6.953  13.156   5.611
63788SOL     OW93260   0.489   0.279  12.389
63788SOL    HW193261   0.562   0.339  12.403
63788SOL    HW293262   0.518   0.222  12.319
63789SOL     OW93263   3.747   8.043   8.466
63789SOL    HW193264   3.730   7.974   8.530
63789SOL    HW293265   3.790   8.112   8.517
63790SOL     OW93266  11.643   1.966   1.282
63790SOL    HW193267  11.578   1.983   1.214
63790SOL    HW293268  11.646   1.870   1.288
63791SOL     OW93269   5.525   4.558   8.576
63791SOL    HW193270   5.480   4.627   8.625
63791SOL    HW293271   5.499   4.572   8.485
63792SOL     OW93272  13.941  13.874  10.060
63792SOL    HW193273  13.955  13.942   9.994
63792SOL    HW293274  14.029  13.844  10.083
63793SOL     OW93275   4.209  10.791  11.339
63793SOL    HW193276   4.268  10.749  11.402
63793SOL    HW293277   4.264  10.811  11.264
63794SOL     OW93278  11.309   2.827  14.025
63794SOL    HW193279  11.369   2.780  14.083
63794SOL    HW293280  11.307   2.775  13.944
63795SOL     OW93281  12.517   0.620   1.796
63795SOL    HW193282  12.456   0.691   1.817
63795SOL    HW293283  12.582   0.660   1.739
63796SOL     OW93284   6.172   1.985   4.640
63796SOL    HW193285   6.112   2.030   4.581
63796SOL    HW293286   6.199   2.051   4.703
63797SOL     OW93287   3.705  11.431   4.254
63797SOL    HW193288   3.700  11.469   4.166
63797SOL    HW293289   3.619  11.389   4.267
63798SOL     OW93290  14.663   6.182   1.087
63798SOL    HW193291  14.577   6.155   1.055
63798SOL    HW293292  14.647   6.215   1.176
63799SOL     OW93293   6.095  12.869  11.903
63799SOL    HW193294   6.140  12.793  11.940
63799SOL    HW293295   6.115  12.866  11.810
63800SOL     OW93296   9.738   9.137   8.407
63800SOL    HW193297   9.751   9.042   8.400
63800SOL    HW293298   9.658   9.153   8.357
63801SOL     OW93299   1.491   3.330   4.309
63801SOL    HW193300   1.489   3.412   4.358
63801SOL    HW293301   1.469   3.263   4.374
63802SOL     OW93302   1.473  12.011   2.103
63802SOL    HW193303   1.562  11.975   2.104
63802SOL    HW293304   1.416  11.935   2.109
63803SOL     OW93305  14.055  12.220   0.639
63803SOL    HW193306  14.010  12.163   0.701
63803SOL    HW293307  14.006  12.302   0.643
63804SOL     OW93308   8.153   8.533  13.066
63804SOL    HW193309   8.130   8.440  13.073
63804SOL    HW293310   8.130   8.570  13.151
63805SOL     OW93311   1.911   2.250  14.714
63805SOL    HW193312   1.988   2.305  14.699
63805SOL    HW293313   1.908   2.192  14.638
63806SOL     OW93314   0.635   7.131   7.116
63806SOL    HW193315   0.712   7.188   7.119
63806SOL    HW293316   0.562   7.187   7.143
63807SOL     OW93317   7.086   9.306  13.544
63807SOL    HW193318   7.033   9.231  13.514
63807SOL    HW293319   7.120   9.279  13.629
63808SOL     OW93320   1.765  11.938  12.998
63808SOL    HW193321   1.679  11.965  13.028
63808SOL    HW293322   1.784  11.995  12.924
63809SOL     OW93323  13.702   5.937  14.750
63809SOL    HW193324  13.760   6.012  14.745
63809SOL    HW293325  13.749   5.873  14.804
63810SOL     OW93326   4.499   9.247  10.084
63810SOL    HW193327   4.430   9.182  10.077
63810SOL    HW293328   4.519   9.251  10.178
63811SOL     OW93329  13.744  12.400   2.097
63811SOL    HW193330  13.751  12.391   2.192
63811SOL    HW293331  13.751  12.494   2.081
63812SOL     OW93332   6.615  10.819   0.140
63812SOL    HW193333   6.664  10.832   0.059
63812SOL    HW293334   6.571  10.903   0.155
63813SOL     OW93335  11.854   1.512  11.740
63813SOL    HW193336  11.903   1.497  11.658
63813SOL    HW293337  11.889   1.594  11.774
63814SOL     OW93338  10.370   7.116  11.217
63814SOL    HW193339  10.312   7.083  11.148
63814SOL    HW293340  10.347   7.065  11.294
63815SOL     OW93341   3.257   9.770  10.800
63815SOL    HW193342   3.173   9.779  10.754
63815SOL    HW293343   3.264   9.676  10.818
63816SOL     OW93344  12.315   8.026   7.165
63816SOL    HW193345  12.316   7.974   7.085
63816SOL    HW293346  12.338   8.114   7.136
63817SOL     OW93347   8.626   0.352  14.619
63817SOL    HW193348   8.556   0.366  14.682
63817SOL    HW293349   8.584   0.365  14.534
63818SOL     OW93350  12.103   8.635   7.925
63818SOL    HW193351  12.043   8.710   7.927
63818SOL    HW293352  12.047   8.560   7.905
63819SOL     OW93353  12.187   6.707   0.007
63819SOL    HW193354  12.164   6.708  14.802
63819SOL    HW293355  12.141   6.782   0.044
63820SOL     OW93356   3.920   4.703   7.051
63820SOL    HW193357   3.950   4.742   7.133
63820SOL    HW293358   3.831   4.738   7.039
63821SOL     OW93359  11.256   1.940   1.535
63821SOL    HW193360  11.337   1.989   1.520
63821SOL    HW293361  11.188   2.007   1.537
63822SOL     OW93362  14.118  14.881   4.039
63822SOL    HW193363  14.178  14.855   3.969
63822SOL    HW293364  14.141  14.824   4.113
63823SOL     OW93365   0.946  12.853  11.594
63823SOL    HW193366   0.974  12.783  11.653
63823SOL    HW293367   0.925  12.926  11.653
63824SOL     OW93368   8.038   5.068   3.555
63824SOL    HW193369   8.078   5.130   3.494
63824SOL    HW293370   8.111   5.012   3.583
63825SOL     OW93371   3.967   1.613  13.617
63825SOL    HW193372   3.984   1.699  13.580
63825SOL    HW293373   3.973   1.625  13.712
63826SOL     OW93374  13.107   6.922   7.392
63826SOL    HW193375  13.037   6.987   7.394
63826SOL    HW293376  13.062   6.839   7.378
63827SOL     OW93377   3.474   1.285   1.882
63827SOL    HW193378   3.449   1.228   1.809
63827SOL    HW293379   3.434   1.244   1.959
63828SOL     OW93380   7.254  14.111   7.944
63828SOL    HW193381   7.306  14.032   7.950
63828SOL    HW293382   7.169  14.082   7.910
63829SOL     OW93383   3.285  13.641   4.130
63829SOL    HW193384   3.249  13.574   4.072
63829SOL    HW293385   3.245  13.624   4.215
63830SOL     OW93386   7.079  13.619  14.791
63830SOL    HW193387   7.060  13.604  14.884
63830SOL    HW293388   7.023  13.693  14.767
63831SOL     OW93389   2.845   2.595  13.785
63831SOL    HW193390   2.899   2.674  13.787
63831SOL    HW293391   2.758   2.625  13.811
63832SOL     OW93392  11.786  14.740   7.191
63832SOL    HW193393  11.749  14.741   7.103
63832SOL    HW293394  11.723  14.691   7.243
63833SOL     OW93395  12.331   4.919  13.691
63833SOL    HW193396  12.312   4.862  13.765
63833SOL    HW293397  12.306   4.868  13.614
63834SOL     OW93398  13.605  11.390  13.126
63834SOL    HW193399  13.690  11.431  13.142
63834SOL    HW293400  13.556  11.455  13.075
63835SOL     OW93401   8.462  13.732   2.713
63835SOL    HW193402   8.501  13.683   2.640
63835SOL    HW293403   8.493  13.821   2.701
63836SOL     OW93404   6.559  13.068   2.082
63836SOL    HW193405   6.622  13.139   2.092
63836SOL    HW293406   6.595  13.013   2.012
63837SOL     OW93407   9.583   2.333   1.293
63837SOL    HW193408   9.575   2.345   1.388
63837SOL    HW293409   9.588   2.238   1.282
63838SOL     OW93410  14.509  12.800   8.938
63838SOL    HW193411  14.437  12.751   8.899
63838SOL    HW293412  14.521  12.875   8.880
63839SOL     OW93413  11.284  14.104  12.131
63839SOL    HW193414  11.264  14.012  12.115
63839SOL    HW293415  11.376  14.104  12.159
63840SOL     OW93416   8.269  10.755   7.845
63840SOL    HW193417   8.188  10.753   7.795
63840SOL    HW293418   8.295  10.847   7.844
63841SOL     OW93419   2.142   5.240   0.575
63841SOL    HW193420   2.212   5.294   0.538
63841SOL    HW293421   2.084   5.222   0.501
63842SOL     OW93422   3.545  11.405   1.201
63842SOL    HW193423   3.457  11.386   1.236
63842SOL    HW293424   3.605  11.370   1.268
63843SOL     OW93425  10.819   6.435  10.755
63843SOL    HW193426  10.815   6.430  10.659
63843SOL    HW293427  10.747   6.378  10.785
63844SOL     OW93428   5.069  11.251   4.542
63844SOL    HW193429   5.140  11.188   4.534
63844SOL    HW293430   4.994  11.200   4.573
63845SOL     OW93431   1.862   1.912   7.631
63845SOL    HW193432   1.831   1.972   7.698
63845SOL    HW293433   1.956   1.929   7.625
63846SOL     OW93434  13.717   2.815  13.174
63846SOL    HW193435  13.670   2.898  13.191
63846SOL    HW293436  13.768   2.832  13.095
63847SOL     OW93437   7.877   5.210   2.759
63847SOL    HW193438   7.873   5.144   2.828
63847SOL    HW293439   7.864   5.161   2.678
63848SOL     OW93440  11.982   6.739  11.819
63848SOL    HW193441  11.894   6.714  11.846
63848SOL    HW293442  11.995   6.826  11.858
63849SOL     OW93443   2.900  11.952   5.609
63849SOL    HW193444   2.904  11.862   5.641
63849SOL    HW293445   2.814  11.959   5.568
63850SOL     OW93446   6.974   3.489   5.270
63850SOL    HW193447   6.988   3.524   5.358
63850SOL    HW293448   6.950   3.397   5.285
63851SOL     OW93449   9.250  12.292  10.766
63851SOL    HW193450   9.163  12.253  10.768
63851SOL    HW293451   9.302  12.236  10.823
63852SOL     OW93452   5.394   1.774   4.218
63852SOL    HW193453   5.305   1.761   4.253
63852SOL    HW293454   5.381   1.826   4.140
63853SOL     OW93455   1.526  14.880  12.399
63853SOL    HW193456   1.483  14.802  12.362
63853SOL    HW293457   1.591  14.844  12.459
63854SOL     OW93458   7.884   2.491   0.364
63854SOL    HW193459   7.838   2.461   0.285
63854SOL    HW293460   7.975   2.502   0.336
63855SOL     OW93461   6.649  11.979   1.307
63855SOL    HW193462   6.636  12.072   1.325
63855SOL    HW293463   6.579  11.956   1.246
63856SOL     OW93464   1.366   0.835   2.686
63856SOL    HW193465   1.299   0.886   2.731
63856SOL    HW293466   1.447   0.886   2.699
63857SOL     OW93467   8.487   7.509  10.950
63857SOL    HW193468   8.552   7.438  10.956
63857SOL    HW293469   8.527   7.583  10.996
63858SOL     OW93470   8.056   1.091   3.020
63858SOL    HW193471   8.103   1.114   3.100
63858SOL    HW293472   8.124   1.066   2.958
63859SOL     OW93473   5.817   2.796  12.569
63859SOL    HW193474   5.840   2.871  12.623
63859SOL    HW293475   5.832   2.720  12.626
63860SOL     OW93476   6.657   5.460   9.841
63860SOL    HW193477   6.618   5.439   9.926
63860SOL    HW293478   6.609   5.537   9.811
63861SOL     OW93479   6.387   9.117   5.462
63861SOL    HW193480   6.390   9.024   5.436
63861SOL    HW293481   6.456   9.158   5.412
63862SOL     OW93482   5.230   8.582   4.174
63862SOL    HW193483   5.148   8.576   4.223
63862SOL    HW293484   5.295   8.611   4.238
63863SOL     OW93485   9.305   8.461   9.573
63863SOL    HW193486   9.258   8.395   9.624
63863SOL    HW293487   9.386   8.417   9.547
63864SOL     OW93488   5.523  13.998   2.875
63864SOL    HW193489   5.494  13.907   2.885
63864SOL    HW293490   5.476  14.045   2.944
63865SOL     OW93491  10.408   7.513   4.155
63865SOL    HW193492  10.391   7.569   4.080
63865SOL    HW293493  10.455   7.438   4.119
63866SOL     OW93494  14.169  13.047  14.883
63866SOL    HW193495  14.174  13.087  14.796
63866SOL    HW293496  14.195  12.956  14.869
63867SOL     OW93497   6.658  12.702   9.665
63867SOL    HW193498   6.665  12.658   9.580
63867SOL    HW293499   6.593  12.652   9.713
63868SOL     OW93500   3.204   0.742   9.433
63868SOL    HW193501   3.188   0.661   9.482
63868SOL    HW293502   3.298   0.740   9.415
63869SOL     OW93503   4.580   2.779  13.235
63869SOL    HW193504   4.497   2.812  13.201
63869SOL    HW293505   4.596   2.699  13.184
63870SOL     OW93506   4.317  11.955   4.922
63870SOL    HW193507   4.292  12.043   4.895
63870SOL    HW293508   4.402  11.941   4.881
63871SOL     OW93509   3.764   1.093  13.477
63871SOL    HW193510   3.794   1.089  13.568
63871SOL    HW293511   3.699   1.023  13.471
63872SOL     OW93512   1.675   0.278   5.967
63872SOL    HW193513   1.671   0.203   5.908
63872SOL    HW293514   1.760   0.317   5.950
63873SOL     OW93515   2.732   3.501   4.589
63873SOL    HW193516   2.727   3.449   4.669
63873SOL    HW293517   2.646   3.543   4.582
63874SOL     OW93518   1.311   1.583  10.058
63874SOL    HW193519   1.391   1.597  10.108
63874SOL    HW293520   1.325   1.629   9.975
63875SOL     OW93521  11.016   4.032   6.340
63875SOL    HW193522  10.933   4.043   6.386
63875SOL    HW293523  11.019   3.939   6.318
63876SOL     OW93524  12.094   0.183   5.144
63876SOL    HW193525  12.133   0.202   5.059
63876SOL    HW293526  12.168   0.172   5.203
63877SOL     OW93527  10.581   3.388   3.565
63877SOL    HW193528  10.630   3.406   3.485
63877SOL    HW293529  10.531   3.309   3.545
63878SOL     OW93530   4.087  13.621   0.156
63878SOL    HW193531   4.060  13.543   0.108
63878SOL    HW293532   4.049  13.610   0.243
63879SOL     OW93533   7.819   2.274   5.595
63879SOL    HW193534   7.905   2.254   5.634
63879SOL    HW293535   7.831   2.256   5.502
63880SOL     OW93536   4.890   9.181   6.670
63880SOL    HW193537   4.977   9.142   6.675
63880SOL    HW293538   4.881   9.231   6.751
63881SOL     OW93539   9.990  11.325  11.943
63881SOL    HW193540   9.968  11.411  11.905
63881SOL    HW293541   9.907  11.291  11.975
63882SOL     OW93542   9.233   6.705   3.107
63882SOL    HW193543   9.142   6.731   3.092
63882SOL    HW293544   9.241   6.696   3.202
63883SOL     OW93545  10.836   7.640  12.939
63883SOL    HW193546  10.828   7.727  12.902
63883SOL    HW293547  10.812   7.651  13.031
63884SOL     OW93548   7.505   4.549  13.652
63884SOL    HW193549   7.433   4.519  13.597
63884SOL    HW293550   7.535   4.630  13.611
63885SOL     OW93551  10.935   4.765  12.431
63885SOL    HW193552  10.914   4.712  12.354
63885SOL    HW293553  10.898   4.716  12.504
63886SOL     OW93554   8.171  14.703   5.050
63886SOL    HW193555   8.254  14.701   5.097
63886SOL    HW293556   8.195  14.688   4.958
63887SOL     OW93557   7.775   6.489   8.565
63887SOL    HW193558   7.844   6.485   8.631
63887SOL    HW293559   7.709   6.548   8.603
63888SOL     OW93560   9.845   5.441  13.230
63888SOL    HW193561   9.763   5.396  13.249
63888SOL    HW293562   9.851   5.441  13.135
63889SOL     OW93563  13.813  12.008   8.246
63889SOL    HW193564  13.761  11.949   8.191
63889SOL    HW293565  13.803  11.973   8.334
63890SOL     OW93566  14.352   0.201   8.387
63890SOL    HW193567  14.306   0.272   8.430
63890SOL    HW293568  14.283   0.144   8.352
63891SOL     OW93569  12.680   6.815  11.703
63891SOL    HW193570  12.646   6.885  11.646
63891SOL    HW293571  12.624   6.819  11.781
63892SOL     OW93572  14.371   8.808   2.940
63892SOL    HW193573  14.380   8.713   2.935
63892SOL    HW293574  14.292   8.827   2.889
63893SOL     OW93575   0.186  11.327  12.245
63893SOL    HW193576   0.119  11.340  12.312
63893SOL    HW293577   0.141  11.345  12.162
63894SOL     OW93578   1.254   5.716   6.714
63894SOL    HW193579   1.305   5.636   6.730
63894SOL    HW293580   1.208   5.699   6.632
63895SOL     OW93581   3.285   8.510  13.302
63895SOL    HW193582   3.279   8.505  13.207
63895SOL    HW293583   3.297   8.604  13.321
63896SOL     OW93584  10.665   0.665   7.930
63896SOL    HW193585  10.681   0.688   8.022
63896SOL    HW293586  10.698   0.740   7.881
63897SOL     OW93587  11.586   4.478   2.364
63897SOL    HW193588  11.675   4.443   2.361
63897SOL    HW293589  11.597   4.572   2.358
63898SOL     OW93590   7.579  11.102   4.839
63898SOL    HW193591   7.509  11.038   4.853
63898SOL    HW293592   7.628  11.068   4.764
63899SOL     OW93593   2.520  14.439  11.854
63899SOL    HW193594   2.552  14.447  11.943
63899SOL    HW293595   2.457  14.510  11.845
63900SOL     OW93596   9.260   7.096   6.447
63900SOL    HW193597   9.177   7.142   6.462
63900SOL    HW293598   9.258   7.021   6.507
63901SOL     OW93599   6.903  14.843   1.710
63901SOL    HW193600   6.907   0.040   1.666
63901SOL    HW293601   6.912  14.864   1.803
63902SOL     OW93602   3.761   8.112   5.014
63902SOL    HW193603   3.715   8.151   5.088
63902SOL    HW293604   3.831   8.060   5.053
63903SOL     OW93605   1.178   3.977   1.850
63903SOL    HW193606   1.198   3.885   1.866
63903SOL    HW293607   1.247   4.006   1.791
63904SOL     OW93608  10.595   4.637   9.801
63904SOL    HW193609  10.564   4.710   9.855
63904SOL    HW293610  10.575   4.664   9.711
63905SOL     OW93611   2.076   8.777  13.686
63905SOL    HW193612   2.073   8.824  13.769
63905SOL    HW293613   1.985   8.757  13.666
63906SOL     OW93614   9.532  13.660   1.685
63906SOL    HW193615   9.441  13.650   1.655
63906SOL    HW293616   9.524  13.696   1.773
63907SOL     OW93617   9.921   5.313   1.662
63907SOL    HW193618   9.951   5.336   1.750
63907SOL    HW293619   9.886   5.224   1.672
63908SOL     OW93620  13.750   7.235  11.080
63908SOL    HW193621  13.761   7.329  11.095
63908SOL    HW293622  13.801   7.194  11.150
63909SOL     OW93623   4.213  11.031   7.003
63909SOL    HW193624   4.129  10.987   7.013
63909SOL    HW293625   4.242  11.010   6.914
63910SOL     OW93626  10.122  12.161   3.164
63910SOL    HW193627  10.076  12.235   3.204
63910SOL    HW293628  10.065  12.086   3.180
63911SOL     OW93629   4.507   9.288   6.265
63911SOL    HW193630   4.420   9.248   6.271
63911SOL    HW293631   4.544   9.276   6.352
63912SOL     OW93632   3.519   9.256   2.322
63912SOL    HW193633   3.485   9.329   2.374
63912SOL    HW293634   3.445   9.232   2.265
63913SOL     OW93635   3.138   5.322   7.066
63913SOL    HW193636   3.117   5.415   7.072
63913SOL    HW293637   3.066   5.278   7.111
63914SOL     OW93638  13.337   9.285  10.131
63914SOL    HW193639  13.343   9.379  10.118
63914SOL    HW293640  13.369   9.270  10.220
63915SOL     OW93641  11.248   7.644   8.528
63915SOL    HW193642  11.306   7.678   8.459
63915SOL    HW293643  11.289   7.670   8.610
63916SOL     OW93644  11.763   9.246   3.244
63916SOL    HW193645  11.705   9.286   3.180
63916SOL    HW293646  11.705   9.211   3.311
63917SOL     OW93647  11.872   3.995   6.076
63917SOL    HW193648  11.925   4.072   6.096
63917SOL    HW293649  11.934   3.922   6.076
63918SOL     OW93650   8.871   0.997   8.500
63918SOL    HW193651   8.815   0.990   8.577
63918SOL    HW293652   8.820   0.959   8.429
63919SOL     OW93653   3.758  13.092  14.215
63919SOL    HW193654   3.739  13.154  14.286
63919SOL    HW293655   3.672  13.069  14.180
63920SOL     OW93656   1.077   6.616   6.204
63920SOL    HW193657   1.009   6.557   6.235
63920SOL    HW293658   1.144   6.558   6.168
63921SOL     OW93659   4.218   8.583  11.588
63921SOL    HW193660   4.256   8.512  11.640
63921SOL    HW293661   4.141   8.611  11.638
63922SOL     OW93662   5.084  14.264  13.911
63922SOL    HW193663   5.030  14.185  13.918
63922SOL    HW293664   5.024  14.336  13.931
63923SOL     OW93665   2.565   6.514  12.474
63923SOL    HW193666   2.544   6.428  12.510
63923SOL    HW293667   2.482   6.546  12.438
63924SOL     OW93668  10.906   7.387  14.657
63924SOL    HW193669  10.817   7.351  14.658
63924SOL    HW293670  10.936   7.375  14.566
63925SOL     OW93671   8.558   5.462  14.686
63925SOL    HW193672   8.639   5.476  14.636
63925SOL    HW293673   8.510   5.395  14.636
63926SOL     OW93674  10.697   6.823   4.003
63926SOL    HW193675  10.622   6.867   3.962
63926SOL    HW293676  10.765   6.891   4.007
63927SOL     OW93677   0.315  13.641   8.162
63927SOL    HW193678   0.315  13.636   8.066
63927SOL    HW293679   0.395  13.595   8.188
63928SOL     OW93680  10.771  10.606   6.484
63928SOL    HW193681  10.848  10.550   6.493
63928SOL    HW293682  10.792  10.665   6.411
63929SOL     OW93683  10.958   6.238   0.397
63929SOL    HW193684  10.980   6.303   0.331
63929SOL    HW293685  11.009   6.161   0.374
63930SOL     OW93686   5.347   9.012   8.619
63930SOL    HW193687   5.334   9.070   8.694
63930SOL    HW293688   5.335   9.069   8.542
63931SOL     OW93689   9.256  12.727   4.776
63931SOL    HW193690   9.281  12.644   4.817
63931SOL    HW293691   9.340  12.770   4.757
63932SOL     OW93692   4.741   3.962   1.674
63932SOL    HW193693   4.648   3.965   1.652
63932SOL    HW293694   4.782   3.912   1.604
63933SOL     OW93695   5.175  10.686  11.828
63933SOL    HW193696   5.227  10.644  11.760
63933SOL    HW293697   5.176  10.623  11.901
63934SOL     OW93698  13.864  11.984   3.189
63934SOL    HW193699  13.926  12.032   3.244
63934SOL    HW293700  13.900  11.895   3.185
63935SOL     OW93701  12.010   5.301  13.999
63935SOL    HW193702  11.946   5.314  13.929
63935SOL    HW293703  12.089   5.272  13.954
63936SOL     OW93704   2.904  13.906  12.225
63936SOL    HW193705   2.979  13.856  12.256
63936SOL    HW293706   2.942  13.985  12.186
63937SOL     OW93707  10.428  14.285  10.484
63937SOL    HW193708  10.362  14.340  10.526
63937SOL    HW293709  10.390  14.197  10.484
63938SOL     OW93710   6.079   4.329   8.828
63938SOL    HW193711   5.988   4.328   8.857
63938SOL    HW293712   6.080   4.278   8.747
63939SOL     OW93713   9.519  10.570   8.878
63939SOL    HW193714   9.493  10.634   8.945
63939SOL    HW293715   9.437  10.525   8.857
63940SOL     OW93716   7.476   0.211  13.295
63940SOL    HW193717   7.438   0.294  13.266
63940SOL    HW293718   7.411   0.174  13.355
63941SOL     OW93719  14.707   2.585   9.758
63941SOL    HW193720  14.658   2.563   9.837
63941SOL    HW293721  14.685   2.677   9.741
63942SOL     OW93722  10.706  12.897   0.532
63942SOL    HW193723  10.735  12.921   0.444
63942SOL    HW293724  10.725  12.974   0.586
63943SOL     OW93725   4.741   6.492  14.672
63943SOL    HW193726   4.688   6.429  14.624
63943SOL    HW293727   4.678   6.547  14.719
63944SOL     OW93728  11.950   7.168   4.093
63944SOL    HW193729  11.862   7.136   4.112
63944SOL    HW293730  11.997   7.091   4.058
63945SOL     OW93731   5.068   9.629  13.799
63945SOL    HW193732   5.014   9.569  13.746
63945SOL    HW293733   5.057   9.597  13.888
63946SOL     OW93734   8.604   3.136   6.429
63946SOL    HW193735   8.650   3.097   6.355
63946SOL    HW293736   8.556   3.062   6.468
63947SOL     OW93737   5.162   8.906  10.003
63947SOL    HW193738   5.162   8.869   9.915
63947SOL    HW293739   5.254   8.910  10.028
63948SOL     OW93740  10.627   1.227  14.823
63948SOL    HW193741  10.701   1.191  14.871
63948SOL    HW293742  10.550   1.191  14.867
63949SOL     OW93743   7.536   7.245  10.871
63949SOL    HW193744   7.488   7.163  10.857
63949SOL    HW293745   7.550   7.279  10.782
63950SOL     OW93746  11.913  10.948   2.669
63950SOL    HW193747  11.971  11.012   2.710
63950SOL    HW293748  11.963  10.913   2.596
63951SOL     OW93749  10.452  13.319   3.415
63951SOL    HW193750  10.505  13.257   3.366
63951SOL    HW293751  10.395  13.264   3.469
63952SOL     OW93752   4.430  14.352   6.917
63952SOL    HW193753   4.360  14.328   6.978
63952SOL    HW293754   4.385  14.384   6.839
63953SOL     OW93755   1.083   6.270   9.871
63953SOL    HW193756   1.054   6.262   9.962
63953SOL    HW293757   1.132   6.189   9.855
63954SOL     OW93758   1.838   4.688   9.290
63954SOL    HW193759   1.908   4.703   9.227
63954SOL    HW293760   1.760   4.675   9.236
63955SOL     OW93761   5.782  11.190   2.795
63955SOL    HW193762   5.715  11.226   2.854
63955SOL    HW293763   5.766  11.234   2.712
63956SOL     OW93764  13.073   9.350   9.512
63956SOL    HW193765  13.088   9.257   9.528
63956SOL    HW293766  13.148   9.378   9.460
63957SOL     OW93767   0.591   6.575  10.488
63957SOL    HW193768   0.638   6.658  10.493
63957SOL    HW293769   0.505   6.595  10.525
63958SOL     OW93770   5.861  11.513  10.612
63958SOL    HW193771   5.860  11.493  10.706
63958SOL    HW293772   5.881  11.428  10.571
63959SOL     OW93773   1.865  12.151   9.140
63959SOL    HW193774   1.796  12.183   9.198
63959SOL    HW293775   1.937  12.214   9.150
63960SOL     OW93776  11.217   7.369   6.124
63960SOL    HW193777  11.270   7.341   6.049
63960SOL    HW293778  11.127   7.349   6.100
63961SOL     OW93779   2.922   1.218   6.951
63961SOL    HW193780   2.858   1.211   7.022
63961SOL    HW293781   2.877   1.265   6.881
63962SOL     OW93782   4.412  13.286  10.861
63962SOL    HW193783   4.458  13.367  10.836
63962SOL    HW293784   4.473  13.241  10.919
63963SOL     OW93785   4.327  11.219  14.213
63963SOL    HW193786   4.368  11.235  14.128
63963SOL    HW293787   4.373  11.143  14.248
63964SOL     OW93788  11.084   9.050   1.849
63964SOL    HW193789  11.028   9.070   1.924
63964SOL    HW293790  11.172   9.040   1.886
63965SOL     OW93791   3.145   6.099   3.973
63965SOL    HW193792   3.102   6.013   3.972
63965SOL    HW293793   3.201   6.096   4.051
63966SOL     OW93794  14.834   1.803  11.114
63966SOL    HW193795  14.823   1.850  11.196
63966SOL    HW293796  14.745   1.793  11.080
63967SOL     OW93797  10.364   1.934   5.423
63967SOL    HW193798  10.341   1.977   5.506
63967SOL    HW293799  10.300   1.967   5.360
63968SOL     OW93800   1.325   9.602   4.156
63968SOL    HW193801   1.291   9.630   4.071
63968SOL    HW293802   1.252   9.557   4.198
63969SOL     OW93803  13.282   0.743  12.141
63969SOL    HW193804  13.191   0.718  12.155
63969SOL    HW293805  13.318   0.674  12.086
63970SOL     OW93806  13.566   9.214   4.926
63970SOL    HW193807  13.631   9.151   4.894
63970SOL    HW293808  13.518   9.167   4.994
63971SOL     OW93809   6.097   7.634   4.578
63971SOL    HW193810   6.058   7.719   4.597
63971SOL    HW293811   6.187   7.641   4.612
63972SOL     OW93812   1.562  14.492   1.442
63972SOL    HW193813   1.509  14.413   1.434
63972SOL    HW293814   1.589  14.495   1.534
63973SOL     OW93815   9.931   2.578   0.332
63973SOL    HW193816   9.992   2.511   0.301
63973SOL    HW293817   9.986   2.638   0.384
63974SOL     OW93818   6.035  14.782   5.914
63974SOL    HW193819   6.052  14.789   6.008
63974SOL    HW293820   6.076  14.699   5.889
63975SOL     OW93821   4.617   7.758   5.439
63975SOL    HW193822   4.590   7.838   5.395
63975SOL    HW293823   4.555   7.748   5.511
63976SOL     OW93824   3.655  10.534   0.217
63976SOL    HW193825   3.641  10.462   0.278
63976SOL    HW293826   3.741  10.570   0.242
63977SOL     OW93827   3.634  11.527   1.869
63977SOL    HW193828   3.624  11.619   1.842
63977SOL    HW293829   3.560  11.511   1.928
63978SOL     OW93830  13.820   5.378  10.728
63978SOL    HW193831  13.803   5.405  10.818
63978SOL    HW293832  13.805   5.457  10.676
63979SOL     OW93833   3.529   3.679   1.253
63979SOL    HW193834   3.465   3.693   1.183
63979SOL    HW293835   3.507   3.743   1.320
63980SOL     OW93836   9.231   4.488   5.654
63980SOL    HW193837   9.270   4.437   5.724
63980SOL    HW293838   9.137   4.479   5.666
63981SOL     OW93839  10.927   1.368  13.282
63981SOL    HW193840  10.885   1.311  13.347
63981SOL    HW293841  10.890   1.340  13.198
63982SOL     OW93842   3.871   7.992  11.791
63982SOL    HW193843   3.891   7.898  11.785
63982SOL    HW293844   3.780   7.999  11.761
63983SOL     OW93845   8.186  14.688   4.456
63983SOL    HW193846   8.142  14.767   4.489
63983SOL    HW293847   8.131  14.616   4.487
63984SOL     OW93848  13.907   2.865   7.450
63984SOL    HW193849  13.990   2.905   7.425
63984SOL    HW293850  13.867   2.927   7.511
63985SOL     OW93851   7.324   8.794   8.454
63985SOL    HW193852   7.300   8.761   8.368
63985SOL    HW293853   7.384   8.728   8.490
63986SOL     OW93854   5.831  11.578  11.358
63986SOL    HW193855   5.891  11.632  11.411
63986SOL    HW293856   5.889  11.523  11.306
63987SOL     OW93857  10.142   8.025   2.469
63987SOL    HW193858  10.132   8.100   2.527
63987SOL    HW293859  10.169   8.062   2.385
63988SOL     OW93860   0.730   7.955   3.583
63988SOL    HW193861   0.680   7.890   3.632
63988SOL    HW293862   0.680   8.037   3.593
63989SOL     OW93863   4.797   1.281   0.087
63989SOL    HW193864   4.819   1.227   0.012
63989SOL    HW293865   4.876   1.281   0.141
63990SOL     OW93866  10.967  14.181  12.058
63990SOL    HW193867  10.900  14.226  12.007
63990SOL    HW293868  10.950  14.209  12.148
63991SOL     OW93869   0.497   3.961   5.541
63991SOL    HW193870   0.521   3.934   5.453
63991SOL    HW293871   0.435   4.033   5.529
63992SOL     OW93872  13.713   0.957   7.238
63992SOL    HW193873  13.773   0.956   7.312
63992SOL    HW293874  13.632   0.919   7.272
63993SOL     OW93875   1.059   0.083   8.539
63993SOL    HW193876   0.975   0.044   8.516
63993SOL    HW293877   1.108   0.085   8.457
63994SOL     OW93878   0.263  14.527   9.955
63994SOL    HW193879   0.323  14.510   9.882
63994SOL    HW293880   0.185  14.476   9.935
63995SOL     OW93881   7.807   9.021  11.911
63995SOL    HW193882   7.895   9.055  11.927
63995SOL    HW293883   7.776   8.994  11.998
63996SOL     OW93884  10.199   1.772   0.356
63996SOL    HW193885  10.254   1.814   0.422
63996SOL    HW293886  10.260   1.724   0.300
63997SOL     OW93887  11.858   2.562  11.335
63997SOL    HW193888  11.773   2.530  11.362
63997SOL    HW293889  11.842   2.652  11.306
63998SOL     OW93890   5.191   2.642  12.473
63998SOL    HW193891   5.114   2.652  12.529
63998SOL    HW293892   5.258   2.604  12.531
63999SOL     OW93893   1.005   5.920   7.755
63999SOL    HW193894   0.926   5.898   7.705
63999SOL    HW293895   0.972   5.967   7.832
64000SOL     OW93896  12.870  10.267  11.302
64000SOL    HW193897  12.938  10.328  11.273
64000SOL    HW293898  12.805  10.268  11.231
64001SOL     OW93899   3.019   3.877   3.028
64001SOL    HW193900   3.026   3.873   2.933
64001SOL    HW293901   2.950   3.940   3.046
64002SOL     OW93902   5.682   6.260   7.427
64002SOL    HW193903   5.632   6.215   7.495
64002SOL    HW293904   5.761   6.289   7.471
64003SOL     OW93905   3.020   0.100   7.434
64003SOL    HW193906   2.948   0.151   7.396
64003SOL    HW293907   2.983   0.012   7.445
64004SOL     OW93908  12.735   7.453  13.676
64004SOL    HW193909  12.745   7.493  13.763
64004SOL    HW293910  12.670   7.507  13.632
64005SOL     OW93911  13.563   9.970  14.003
64005SOL    HW193912  13.604   9.921  13.932
64005SOL    HW293913  13.624  10.042  14.021
64006SOL     OW93914  13.255   5.166   7.604
64006SOL    HW193915  13.327   5.124   7.557
64006SOL    HW293916  13.199   5.093   7.632
64007SOL     OW93917   7.670   4.295   8.948
64007SOL    HW193918   7.712   4.378   8.970
64007SOL    HW293919   7.669   4.246   9.030
64008SOL     OW93920   3.094   9.235  11.924
64008SOL    HW193921   3.053   9.204  11.843
64008SOL    HW293922   3.118   9.155  11.971
64009SOL     OW93923   0.723   9.977  12.214
64009SOL    HW193924   0.790   9.915  12.243
64009SOL    HW293925   0.742   9.991  12.121
64010SOL     OW93926   5.202   4.495   8.144
64010SOL    HW193927   5.225   4.548   8.221
64010SOL    HW293928   5.212   4.556   8.070
64011SOL     OW93929  13.105   7.412   8.984
64011SOL    HW193930  13.012   7.430   8.970
64011SOL    HW293931  13.109   7.317   8.997
64012SOL     OW93932   8.399  11.646   9.774
64012SOL    HW193933   8.479  11.638   9.723
64012SOL    HW293934   8.422  11.613   9.861
64013SOL     OW93935   5.745   0.292   4.244
64013SOL    HW193936   5.815   0.231   4.221
64013SOL    HW293937   5.749   0.298   4.339
64014SOL     OW93938   1.233  14.785  10.381
64014SOL    HW193939   1.225  14.696  10.346
64014SOL    HW293940   1.323  14.789  10.414
64015SOL     OW93941  11.214   7.069   0.024
64015SOL    HW193942  11.163   7.149   0.011
64015SOL    HW293943  11.148   6.999   0.031
64016SOL     OW93944   2.541   1.294   2.307
64016SOL    HW193945   2.612   1.308   2.244
64016SOL    HW293946   2.465   1.335   2.267
64017SOL     OW93947   5.804   2.963   3.821
64017SOL    HW193948   5.834   2.964   3.912
64017SOL    HW293949   5.873   3.009   3.773
64018SOL     OW93950   2.977   1.073   9.283
64018SOL    HW193951   2.893   1.109   9.254
64018SOL    HW293952   3.001   1.127   9.358
64019SOL     OW93953   1.883   5.694   5.121
64019SOL    HW193954   1.961   5.713   5.068
64019SOL    HW293955   1.914   5.699   5.211
64020SOL     OW93956   3.884   7.930   3.687
64020SOL    HW193957   3.961   7.877   3.669
64020SOL    HW293958   3.853   7.958   3.601
64021SOL     OW93959  10.217  11.781   8.669
64021SOL    HW193960  10.191  11.690   8.686
64021SOL    HW293961  10.135  11.828   8.657
64022SOL     OW93962   8.056   2.526   1.908
64022SOL    HW193963   8.047   2.514   1.814
64022SOL    HW293964   8.008   2.606   1.927
64023SOL     OW93965   7.031   1.155  13.943
64023SOL    HW193966   7.060   1.075  13.986
64023SOL    HW293967   6.936   1.143  13.931
64024SOL     OW93968  14.338   2.315   4.697
64024SOL    HW193969  14.293   2.264   4.764
64024SOL    HW293970  14.271   2.328   4.629
64025SOL     OW93971   1.535   5.094  13.201
64025SOL    HW193972   1.518   5.188  13.206
64025SOL    HW293973   1.629   5.086  13.190
64026SOL     OW93974   2.614   2.536   0.067
64026SOL    HW193975   2.597   2.459   0.013
64026SOL    HW293976   2.708   2.553   0.057
64027SOL     OW93977   8.861   5.482   5.505
64027SOL    HW193978   8.868   5.414   5.438
64027SOL    HW293979   8.913   5.555   5.471
64028SOL     OW93980  13.550   8.142   6.905
64028SOL    HW193981  13.595   8.189   6.835
64028SOL    HW293982  13.478   8.097   6.861
64029SOL     OW93983   2.453   6.894   0.516
64029SOL    HW193984   2.536   6.941   0.521
64029SOL    HW293985   2.444   6.851   0.601
64030SOL     OW93986  10.690   1.972  11.986
64030SOL    HW193987  10.604   1.935  12.007
64030SOL    HW293988  10.744   1.896  11.966
64031SOL     OW93989   0.590  10.842  13.118
64031SOL    HW193990   0.579  10.903  13.191
64031SOL    HW293991   0.553  10.887  13.043
64032SOL     OW93992   7.974   5.241  13.712
64032SOL    HW193993   7.925   5.159  13.707
64032SOL    HW293994   7.977   5.262  13.805
64033SOL     OW93995   1.650  13.605  11.799
64033SOL    HW193996   1.569  13.581  11.754
64033SOL    HW293997   1.622  13.651  11.878
64034SOL     OW93998   4.162  12.635   5.534
64034SOL    HW193999   4.146  12.724   5.566
64034SOL    HW294000   4.245  12.642   5.486
64035SOL     OW94001   0.864   6.885   0.328
64035SOL    HW194002   0.839   6.962   0.276
64035SOL    HW294003   0.931   6.918   0.388
64036SOL     OW94004   5.251   9.311   9.278
64036SOL    HW194005   5.169   9.328   9.324
64036SOL    HW294006   5.248   9.218   9.258
64037SOL     OW94007   4.838   9.667  10.146
64037SOL    HW194008   4.753   9.701  10.173
64037SOL    HW294009   4.900   9.701  10.211
64038SOL     OW94010  12.805  10.005  10.549
64038SOL    HW194011  12.765  10.024  10.464
64038SOL    HW294012  12.747   9.940  10.589
64039SOL     OW94013   7.804  13.221   5.647
64039SOL    HW194014   7.833  13.200   5.558
64039SOL    HW294015   7.780  13.137   5.685
64040SOL     OW94016   4.015   9.165   7.717
64040SOL    HW194017   4.018   9.260   7.702
64040SOL    HW294018   4.069   9.128   7.648
64041SOL     OW94019   4.638   5.091   9.345
64041SOL    HW194020   4.619   5.177   9.383
64041SOL    HW294021   4.699   5.109   9.274
64042SOL     OW94022  12.003   2.385   1.258
64042SOL    HW194023  11.951   2.334   1.196
64042SOL    HW294024  12.086   2.339   1.264
64043SOL     OW94025   0.864   7.659   7.653
64043SOL    HW194026   0.782   7.707   7.653
64043SOL    HW294027   0.839   7.568   7.634
64044SOL     OW94028   1.836   0.120  11.042
64044SOL    HW194029   1.906   0.057  11.061
64044SOL    HW294030   1.869   0.203  11.075
64045SOL     OW94031   7.330   6.624  14.808
64045SOL    HW194032   7.325   6.720  14.800
64045SOL    HW294033   7.391   6.609  14.880
64046SOL     OW94034  12.872   7.292   9.652
64046SOL    HW194035  12.835   7.233   9.719
64046SOL    HW294036  12.902   7.233   9.583
64047SOL     OW94037   0.023   4.932  13.650
64047SOL    HW194038  14.872   5.017  13.625
64047SOL    HW294039  14.871   4.912  13.735
64048SOL     OW94040   8.094  13.582   2.185
64048SOL    HW194041   8.186  13.578   2.159
64048SOL    HW294042   8.069  13.673   2.170
64049SOL     OW94043   8.920   8.788   8.651
64049SOL    HW194044   8.870   8.774   8.571
64049SOL    HW294045   8.857   8.831   8.710
64050SOL     OW94046   2.184   7.977   1.563
64050SOL    HW194047   2.272   8.010   1.578
64050SOL    HW294048   2.182   7.953   1.470
64051SOL     OW94049   0.772   9.132   5.881
64051SOL    HW194050   0.833   9.204   5.895
64051SOL    HW294051   0.828   9.058   5.857
64052SOL     OW94052   7.004   2.512  13.614
64052SOL    HW194053   6.909   2.503  13.621
64052SOL    HW294054   7.017   2.596  13.570
64053SOL     OW94055   0.481   0.925  13.041
64053SOL    HW194056   0.564   0.877  13.051
64053SOL    HW294057   0.495   0.981  12.964
64054SOL     OW94058   6.688  10.294   3.244
64054SOL    HW194059   6.779  10.278   3.217
64054SOL    HW294060   6.681  10.390   3.248
64055SOL     OW94061   5.461   5.943   0.234
64055SOL    HW194062   5.488   6.020   0.284
64055SOL    HW294063   5.535   5.923   0.178
64056SOL     OW94064  11.253  14.589   8.697
64056SOL    HW194065  11.192  14.518   8.675
64056SOL    HW294066  11.212  14.634   8.771
64057SOL     OW94067   0.947   8.047   4.374
64057SOL    HW194068   0.871   8.036   4.316
64057SOL    HW294069   0.979   7.958   4.388
64058SOL     OW94070  10.552   3.379   1.433
64058SOL    HW194071  10.480   3.316   1.427
64058SOL    HW294072  10.561   3.398   1.526
64059SOL     OW94073  10.366   6.442   2.873
64059SOL    HW194074  10.275   6.426   2.850
64059SOL    HW294075  10.368   6.440   2.969
64060SOL     OW94076   8.072   5.523  13.282
64060SOL    HW194077   8.136   5.454  13.301
64060SOL    HW294078   8.012   5.484  13.219
64061SOL     OW94079   5.449   5.815   2.867
64061SOL    HW194080   5.422   5.857   2.785
64061SOL    HW294081   5.415   5.726   2.861
64062SOL     OW94082   6.982   3.201  14.287
64062SOL    HW194083   6.934   3.278  14.257
64062SOL    HW294084   7.007   3.222  14.377
64063SOL     OW94085   5.859  10.808   8.050
64063SOL    HW194086   5.892  10.774   8.134
64063SOL    HW294087   5.798  10.742   8.020
64064SOL     OW94088   0.563   8.169   2.613
64064SOL    HW194089   0.654   8.142   2.604
64064SOL    HW294090   0.560   8.216   2.697
64065SOL     OW94091  11.453   7.742   9.211
64065SOL    HW194092  11.465   7.830   9.247
64065SOL    HW294093  11.405   7.695   9.279
64066SOL     OW94094   4.083   9.000   1.728
64066SOL    HW194095   4.178   8.997   1.739
64066SOL    HW294096   4.056   9.082   1.770
64067SOL     OW94097  11.025  11.867   9.440
64067SOL    HW194098  10.953  11.928   9.456
64067SOL    HW294099  10.994  11.784   9.475
64068SOL     OW94100   3.925   4.725   5.229
64068SOL    HW194101   3.843   4.704   5.184
64068SOL    HW294102   3.902   4.724   5.322
64069SOL     OW94103  12.088   2.066  11.504
64069SOL    HW194104  12.035   2.134  11.546
64069SOL    HW294105  12.034   1.988  11.505
64070SOL     OW94106   6.085   5.270  10.506
64070SOL    HW194107   6.106   5.336  10.440
64070SOL    HW294108   6.038   5.202  10.458
64071SOL     OW94109   1.843   8.247   9.754
64071SOL    HW194110   1.867   8.307   9.683
64071SOL    HW294111   1.780   8.187   9.714
64072SOL     OW94112   7.160   0.641  14.379
64072SOL    HW194113   7.078   0.595  14.396
64072SOL    HW294114   7.224   0.596  14.435
64073SOL     OW94115   3.507  11.909   6.338
64073SOL    HW194116   3.487  11.975   6.404
64073SOL    HW294117   3.593  11.876   6.362
64074SOL     OW94118  12.757   6.722  12.943
64074SOL    HW194119  12.791   6.658  12.881
64074SOL    HW294120  12.755   6.804  12.894
64075SOL     OW94121   9.971   9.421   2.916
64075SOL    HW194122   9.910   9.383   2.853
64075SOL    HW294123   9.955   9.515   2.912
64076SOL     OW94124  14.695   9.674   2.268
64076SOL    HW194125  14.753   9.601   2.245
64076SOL    HW294126  14.644   9.640   2.341
64077SOL     OW94127  14.516   4.260   7.025
64077SOL    HW194128  14.522   4.218   7.111
64077SOL    HW294129  14.463   4.200   6.972
64078SOL     OW94130  13.720  13.267   8.750
64078SOL    HW194131  13.650  13.239   8.809
64078SOL    HW294132  13.675  13.300   8.673
64079SOL     OW94133  12.101   9.508  12.752
64079SOL    HW194134  12.018   9.471  12.724
64079SOL    HW294135  12.114   9.474  12.841
64080SOL     OW94136   7.901   1.429  14.182
64080SOL    HW194137   7.983   1.431  14.132
64080SOL    HW294138   7.929   1.410  14.272
64081SOL     OW94139  11.961   0.004   1.681
64081SOL    HW194140  11.910   0.064   1.735
64081SOL    HW294141  12.042   0.051   1.663
64082SOL     OW94142  10.142   5.241  14.228
64082SOL    HW194143  10.086   5.299  14.177
64082SOL    HW294144  10.128   5.154  14.188
64083SOL     OW94145  14.810   4.346   8.488
64083SOL    HW194146   0.000   4.394   8.459
64083SOL    HW294147  14.763   4.325   8.407
64084SOL     OW94148  11.324  12.947   2.861
64084SOL    HW194149  11.374  12.990   2.931
64084SOL    HW294150  11.233  12.970   2.880
64085SOL     OW94151   6.924   6.325   0.849
64085SOL    HW194152   6.981   6.259   0.888
64085SOL    HW294153   6.966   6.409   0.870
64086SOL     OW94154  11.290   9.151   7.833
64086SOL    HW194155  11.248   9.075   7.873
64086SOL    HW294156  11.219   9.197   7.787
64087SOL     OW94157   7.477   7.245   6.261
64087SOL    HW194158   7.434   7.213   6.341
64087SOL    HW294159   7.430   7.325   6.238
64088SOL     OW94160  12.988  10.229  10.510
64088SOL    HW194161  13.037  10.245  10.591
64088SOL    HW294162  12.940  10.148  10.527
64089SOL     OW94163  13.879   3.781   5.178
64089SOL    HW194164  13.948   3.755   5.240
64089SOL    HW294165  13.926   3.825   5.108
64090SOL     OW94166   6.457   4.164   0.821
64090SOL    HW194167   6.533   4.174   0.878
64090SOL    HW294168   6.483   4.098   0.757
64091SOL     OW94169   6.810   9.569   1.164
64091SOL    HW194170   6.880   9.631   1.185
64091SOL    HW294171   6.847   9.484   1.186
64092SOL     OW94172   3.531   4.750  11.807
64092SOL    HW194173   3.472   4.689  11.850
64092SOL    HW294174   3.540   4.823  11.868
64093SOL     OW94175   9.740   6.827   9.390
64093SOL    HW194176   9.773   6.900   9.441
64093SOL    HW294177   9.691   6.774   9.453
64094SOL     OW94178   0.988   1.633   2.535
64094SOL    HW194179   1.022   1.681   2.459
64094SOL    HW294180   1.028   1.677   2.610
64095SOL     OW94181  14.341  11.002   2.641
64095SOL    HW194182  14.427  10.966   2.662
64095SOL    HW294183  14.299  11.018   2.725
64096SOL     OW94184   7.367  13.276  13.807
64096SOL    HW194185   7.433  13.280  13.738
64096SOL    HW294186   7.408  13.320  13.882
64097SOL     OW94187  14.643   4.355   8.266
64097SOL    HW194188  14.610   4.420   8.329
64097SOL    HW294189  14.618   4.390   8.181
64098SOL     OW94190   3.443   8.283  14.083
64098SOL    HW194191   3.376   8.314  14.145
64098SOL    HW294192   3.487   8.363  14.056
64099SOL     OW94193   6.522   2.013   7.793
64099SOL    HW194194   6.508   2.090   7.738
64099SOL    HW294195   6.501   1.939   7.735
64100SOL     OW94196   0.227  13.060   1.161
64100SOL    HW194197   0.212  12.966   1.170
64100SOL    HW294198   0.157  13.100   1.213
64101SOL     OW94199   4.831  14.804  13.968
64101SOL    HW194200   4.738  14.804  13.946
64101SOL    HW294201   4.873  14.761  13.893
64102SOL     OW94202   1.041   5.059  13.986
64102SOL    HW194203   0.952   5.058  13.951
64102SOL    HW294204   1.072   4.969  13.977
64103SOL     OW94205   5.249   4.139  10.187
64103SOL    HW194206   5.222   4.231  10.191
64103SOL    HW294207   5.187   4.093  10.244
64104SOL     OW94208   9.241   9.521   6.312
64104SOL    HW194209   9.218   9.613   6.324
64104SOL    HW294210   9.183   9.474   6.372
64105SOL     OW94211  12.996   6.933   2.443
64105SOL    HW194212  12.902   6.918   2.457
64105SOL    HW294213  13.039   6.864   2.495
64106SOL     OW94214  13.839   6.320   5.829
64106SOL    HW194215  13.873   6.254   5.889
64106SOL    HW294216  13.746   6.327   5.852
64107SOL     OW94217   5.748   5.023  10.016
64107SOL    HW194218   5.669   4.985  10.053
64107SOL    HW294219   5.798   4.948   9.984
64108SOL     OW94220  13.718  11.700   8.070
64108SOL    HW194221  13.686  11.641   8.002
64108SOL    HW294222  13.706  11.788   8.034
64109SOL     OW94223   9.749   3.513  10.700
64109SOL    HW194224   9.794   3.553  10.775
64109SOL    HW294225   9.713   3.432  10.735
64110SOL     OW94226   7.850   3.261   6.596
64110SOL    HW194227   7.762   3.293   6.578
64110SOL    HW294228   7.845   3.226   6.685
64111SOL     OW94229   5.751   3.072   5.397
64111SOL    HW194230   5.683   3.096   5.333
64111SOL    HW294231   5.718   3.106   5.480
64112SOL     OW94232   5.745   5.050   6.621
64112SOL    HW194233   5.818   5.047   6.560
64112SOL    HW294234   5.726   5.144   6.631
64113SOL     OW94235   2.787  14.634   5.704
64113SOL    HW194236   2.760  14.670   5.788
64113SOL    HW294237   2.784  14.539   5.717
64114SOL     OW94238  10.096   7.423   0.740
64114SOL    HW194239  10.178   7.375   0.727
64114SOL    HW294240  10.109   7.506   0.695
64115SOL     OW94241   1.078  10.197   0.599
64115SOL    HW194242   1.127  10.116   0.612
64115SOL    HW294243   1.022  10.179   0.523
64116SOL     OW94244   9.356  14.241  14.874
64116SOL    HW194245   9.288  14.308  14.859
64116SOL    HW294246   9.438  14.290  14.871
64117SOL     OW94247   2.995  12.908   7.648
64117SOL    HW194248   2.947  12.868   7.576
64117SOL    HW294249   2.944  12.886   7.726
64118SOL     OW94250   0.910  13.369   0.076
64118SOL    HW194251   0.970  13.308   0.033
64118SOL    HW294252   0.828  13.320   0.082
64119SOL     OW94253  10.964   6.886  14.259
64119SOL    HW194254  10.974   6.870  14.353
64119SOL    HW294255  11.048   6.922  14.232
64120SOL     OW94256  11.772   7.497   6.695
64120SOL    HW194257  11.844   7.492   6.758
64120SOL    HW294258  11.745   7.406   6.682
64121SOL     OW94259  14.478   6.947   6.705
64121SOL    HW194260  14.491   6.859   6.742
64121SOL    HW294261  14.537   6.950   6.630
64122SOL     OW94262   0.982   2.058   5.398
64122SOL    HW194263   1.022   2.032   5.481
64122SOL    HW294264   0.893   2.025   5.403
64123SOL     OW94265   1.047   7.487  12.574
64123SOL    HW194266   0.992   7.490  12.495
64123SOL    HW294267   0.988   7.460  12.644
64124SOL     OW94268  14.498   7.460  14.070
64124SOL    HW194269  14.537   7.376  14.096
64124SOL    HW294270  14.406   7.450  14.093
64125SOL     OW94271   6.566   2.317   2.714
64125SOL    HW194272   6.591   2.263   2.790
64125SOL    HW294273   6.498   2.267   2.670
64126SOL     OW94274   8.591   8.331   0.830
64126SOL    HW194275   8.650   8.406   0.841
64126SOL    HW294276   8.526   8.342   0.900
64127SOL     OW94277   8.526  13.759   6.828
64127SOL    HW194278   8.534  13.828   6.762
64127SOL    HW294279   8.605  13.768   6.881
64128SOL     OW94280  12.889  10.237  12.936
64128SOL    HW194281  12.803  10.278  12.931
64128SOL    HW294282  12.902  10.220  13.029
64129SOL     OW94283  10.506   5.659   4.245
64129SOL    HW194284  10.589   5.627   4.280
64129SOL    HW294285  10.479   5.728   4.306
64130SOL     OW94286   6.109  12.864   0.423
64130SOL    HW194287   6.158  12.806   0.482
64130SOL    HW294288   6.133  12.834   0.335
64131SOL     OW94289   7.790   3.658   8.052
64131SOL    HW194290   7.828   3.738   8.014
64131SOL    HW294291   7.699   3.682   8.071
64132SOL     OW94292  10.963   4.709   9.468
64132SOL    HW194293  11.026   4.646   9.432
64132SOL    HW294294  11.013   4.759   9.533
64133SOL     OW94295   6.935  11.820   5.771
64133SOL    HW194296   6.980  11.777   5.844
64133SOL    HW294297   6.848  11.781   5.769
64134SOL     OW94298  10.215   8.253  10.030
64134SOL    HW194299  10.284   8.212   9.977
64134SOL    HW294300  10.162   8.180  10.062
64135SOL     OW94301   6.363   1.361  10.820
64135SOL    HW194302   6.414   1.387  10.897
64135SOL    HW294303   6.401   1.277  10.793
64136SOL     OW94304   7.729   1.618   6.913
64136SOL    HW194305   7.808   1.664   6.888
64136SOL    HW294306   7.752   1.525   6.909
64137SOL     OW94307  14.826  14.396   7.650
64137SOL    HW194308  14.820  14.466   7.585
64137SOL    HW294309   0.030  14.399   7.680
64138SOL     OW94310   6.329  12.872   2.501
64138SOL    HW194311   6.357  12.847   2.590
64138SOL    HW294312   6.404  12.850   2.446
64139SOL     OW94313   6.715   7.028  12.112
64139SOL    HW194314   6.732   7.080  12.034
64139SOL    HW294315   6.722   7.090  12.184
64140SOL     OW94316  14.515   4.009  12.096
64140SOL    HW194317  14.601   3.996  12.057
64140SOL    HW294318  14.482   4.088  12.054
64141SOL     OW94319   3.263   8.341   8.381
64141SOL    HW194320   3.308   8.426   8.384
64141SOL    HW294321   3.333   8.277   8.370
64142SOL     OW94322   9.227  12.625   0.614
64142SOL    HW194323   9.223  12.612   0.709
64142SOL    HW294324   9.136  12.615   0.585
64143SOL     OW94325   1.284   0.400  13.396
64143SOL    HW194326   1.265   0.433  13.484
64143SOL    HW294327   1.259   0.308  13.399
64144SOL     OW94328  13.131  10.906   0.298
64144SOL    HW194329  13.176  10.823   0.286
64144SOL    HW294330  13.084  10.897   0.381
64145SOL     OW94331  12.732   4.537   4.179
64145SOL    HW194332  12.674   4.536   4.103
64145SOL    HW294333  12.690   4.479   4.243
64146SOL     OW94334  14.644   4.231   6.137
64146SOL    HW194335  14.672   4.262   6.051
64146SOL    HW294336  14.645   4.135   6.129
64147SOL     OW94337  12.282   8.466   3.731
64147SOL    HW194338  12.249   8.556   3.740
64147SOL    HW294339  12.205   8.414   3.709
64148SOL     OW94340   8.587  14.334  13.782
64148SOL    HW194341   8.597  14.256  13.836
64148SOL    HW294342   8.600  14.407  13.843
64149SOL     OW94343   1.703   3.916  10.394
64149SOL    HW194344   1.618   3.893  10.433
64149SOL    HW294345   1.727   3.839  10.343
64150SOL     OW94346   1.278   1.572   8.795
64150SOL    HW194347   1.333   1.501   8.828
64150SOL    HW294348   1.331   1.615   8.729
64151SOL     OW94349   8.602  14.315   8.609
64151SOL    HW194350   8.673  14.292   8.548
64151SOL    HW294351   8.525  14.270   8.575
64152SOL     OW94352   3.088   6.682   2.082
64152SOL    HW194353   3.165   6.658   2.134
64152SOL    HW294354   3.083   6.778   2.090
64153SOL     OW94355  10.791   8.909   9.239
64153SOL    HW194356  10.863   8.909   9.177
64153SOL    HW294357  10.826   8.953   9.317
64154SOL     OW94358   5.027  12.162   9.305
64154SOL    HW194359   4.932  12.158   9.301
64154SOL    HW294360   5.049  12.244   9.260
64155SOL     OW94361  11.066  10.502   1.796
64155SOL    HW194362  11.020  10.419   1.806
64155SOL    HW294363  11.159  10.478   1.794
64156SOL     OW94364  12.228  11.630  11.283
64156SOL    HW194365  12.200  11.594  11.199
64156SOL    HW294366  12.271  11.558  11.327
64157SOL     OW94367   3.495  12.000   5.542
64157SOL    HW194368   3.529  11.916   5.573
64157SOL    HW294369   3.465  12.044   5.622
64158SOL     OW94370   8.408   4.643   1.140
64158SOL    HW194371   8.495   4.626   1.175
64158SOL    HW294372   8.409   4.604   1.053
64159SOL     OW94373   4.099   3.746  12.966
64159SOL    HW194374   4.076   3.731  12.875
64159SOL    HW294375   4.161   3.819  12.964
64160SOL     OW94376  12.590   5.130   8.546
64160SOL    HW194377  12.583   5.211   8.495
64160SOL    HW294378  12.504   5.090   8.538
64161SOL     OW94379   3.931   3.437   0.612
64161SOL    HW194380   3.918   3.345   0.637
64161SOL    HW294381   3.957   3.481   0.693
64162SOL     OW94382   7.776   0.436   0.350
64162SOL    HW194383   7.790   0.409   0.259
64162SOL    HW294384   7.809   0.363   0.402
64163SOL     OW94385   0.584   3.030   4.448
64163SOL    HW194386   0.653   3.068   4.502
64163SOL    HW294387   0.505   3.076   4.474
64164SOL     OW94388   1.344  14.670  14.231
64164SOL    HW194389   1.334  14.655  14.325
64164SOL    HW294390   1.320  14.762  14.218
64165SOL     OW94391  10.045  11.881   0.795
64165SOL    HW194392  10.075  11.972   0.808
64165SOL    HW294393   9.952  11.884   0.816
64166SOL     OW94394   7.579   2.506  14.052
64166SOL    HW194395   7.555   2.497  14.144
64166SOL    HW294396   7.499   2.485  14.004
64167SOL     OW94397  13.457   5.285   1.821
64167SOL    HW194398  13.507   5.226   1.876
64167SOL    HW294399  13.444   5.237   1.739
64168SOL     OW94400  11.929  12.598   1.344
64168SOL    HW194401  11.997  12.549   1.390
64168SOL    HW294402  11.850  12.585   1.396
64169SOL     OW94403   5.385   8.678  10.628
64169SOL    HW194404   5.418   8.722  10.706
64169SOL    HW294405   5.414   8.587  10.638
64170SOL     OW94406   4.660   2.196   2.593
64170SOL    HW194407   4.751   2.174   2.611
64170SOL    HW294408   4.660   2.238   2.508
64171SOL     OW94409  10.898   2.642  12.887
64171SOL    HW194410  10.983   2.656  12.928
64171SOL    HW294411  10.841   2.614  12.958
64172SOL     OW94412   7.493   3.740  10.882
64172SOL    HW194413   7.551   3.788  10.942
64172SOL    HW294414   7.552   3.684  10.832
64173SOL     OW94415  10.826  12.521   0.026
64173SOL    HW194416  10.804  12.602  14.867
64173SOL    HW294417  10.859  12.550   0.111
64174SOL     OW94418  13.623   7.762   8.450
64174SOL    HW194419  13.716   7.767   8.428
64174SOL    HW294420  13.578   7.776   8.367
64175SOL     OW94421  11.978   7.878   9.414
64175SOL    HW194422  12.022   7.950   9.369
64175SOL    HW294423  11.930   7.920   9.485
64176SOL     OW94424  14.071  14.045   0.635
64176SOL    HW194425  13.976  14.058   0.634
64176SOL    HW294426  14.087  13.977   0.569
64177SOL     OW94427  11.623   4.200   1.258
64177SOL    HW194428  11.617   4.168   1.348
64177SOL    HW294429  11.707   4.247   1.255
64178SOL     OW94430   0.994   7.866   3.494
64178SOL    HW194431   1.047   7.944   3.480
64178SOL    HW294432   0.907   7.900   3.517
64179SOL     OW94433   7.384   0.085  12.651
64179SOL    HW194434   7.393   0.050  12.740
64179SOL    HW294435   7.467   0.062  12.609
64180SOL     OW94436  12.712   0.189  10.701
64180SOL    HW194437  12.710   0.274  10.659
64180SOL    HW294438  12.626   0.180  10.742
64181SOL     OW94439   7.487  11.063   1.871
64181SOL    HW194440   7.508  11.043   1.780
64181SOL    HW294441   7.500  10.980   1.917
64182SOL     OW94442  12.437   8.178   0.020
64182SOL    HW194443  12.365   8.116   0.008
64182SOL    HW294444  12.394   8.261   0.040
64183SOL     OW94445   0.306   6.941   8.268
64183SOL    HW194446   0.223   6.893   8.272
64183SOL    HW294447   0.300   6.993   8.188
64184SOL     OW94448  11.194  12.647   1.003
64184SOL    HW194449  11.115  12.605   0.969
64184SOL    HW294450  11.192  12.630   1.097
64185SOL     OW94451   8.623   5.268   8.097
64185SOL    HW194452   8.624   5.289   8.191
64185SOL    HW294453   8.701   5.312   8.063
64186SOL     OW94454   0.733   1.141   5.367
64186SOL    HW194455   0.809   1.089   5.394
64186SOL    HW294456   0.758   1.178   5.283
64187SOL     OW94457   9.988   6.247   5.418
64187SOL    HW194458   9.913   6.297   5.451
64187SOL    HW294459  10.057   6.313   5.405
64188SOL     OW94460  12.289   1.319   5.458
64188SOL    HW194461  12.314   1.320   5.550
64188SOL    HW294462  12.320   1.234   5.426
64189SOL     OW94463   4.287   7.132   7.039
64189SOL    HW194464   4.247   7.046   7.056
64189SOL    HW294465   4.379   7.113   7.024
64190SOL     OW94466   7.316  11.601   6.013
64190SOL    HW194467   7.250  11.670   6.022
64190SOL    HW294468   7.396  11.641   6.046
64191SOL     OW94469   7.377  10.215  13.589
64191SOL    HW194470   7.420  10.300  13.598
64191SOL    HW294471   7.331  10.202  13.672
64192SOL     OW94472  10.004  11.431   1.849
64192SOL    HW194473  10.088  11.386   1.848
64192SOL    HW294474   9.996  11.464   1.939
64193SOL     OW94475  11.293   8.075   6.502
64193SOL    HW194476  11.299   8.033   6.416
64193SOL    HW294477  11.305   8.002   6.564
64194SOL     OW94478   6.788  14.366   9.576
64194SOL    HW194479   6.712  14.309   9.587
64194SOL    HW294480   6.814  14.389   9.665
64195SOL     OW94481   3.174   4.118   5.752
64195SOL    HW194482   3.125   4.190   5.711
64195SOL    HW294483   3.266   4.140   5.738
64196SOL     OW94484  14.299   3.193   6.844
64196SOL    HW194485  14.224   3.252   6.842
64196SOL    HW294486  14.266   3.113   6.885
64197SOL     OW94487   0.517   8.670   2.850
64197SOL    HW194488   0.485   8.590   2.893
64197SOL    HW294489   0.500   8.656   2.757
64198SOL     OW94490   9.289   1.127   1.233
64198SOL    HW194491   9.355   1.071   1.271
64198SOL    HW294492   9.293   1.208   1.285
64199SOL     OW94493   2.733   2.008   8.827
64199SOL    HW194494   2.729   2.090   8.777
64199SOL    HW294495   2.675   1.948   8.780
64200SOL     OW94496  11.106  11.028   9.980
64200SOL    HW194497  11.162  10.951   9.988
64200SOL    HW294498  11.100  11.062  10.069
64201SOL     OW94499  14.752   0.268   7.801
64201SOL    HW194500  14.671   0.221   7.821
64201SOL    HW294501  14.729   0.326   7.728
64202SOL     OW94502   0.921  13.148  13.855
64202SOL    HW194503   0.934  13.125  13.947
64202SOL    HW294504   0.832  13.119  13.834
64203SOL     OW94505  10.389   2.078   8.753
64203SOL    HW194506  10.418   1.994   8.716
64203SOL    HW294507  10.467   2.134   8.749
64204SOL     OW94508   6.927   3.840   8.811
64204SOL    HW194509   6.894   3.852   8.900
64204SOL    HW294510   6.866   3.777   8.771
64205SOL     OW94511   3.535  13.439  10.004
64205SOL    HW194512   3.567  13.409  10.090
64205SOL    HW294513   3.503  13.528  10.019
64206SOL     OW94514   6.947  10.548   9.800
64206SOL    HW194515   6.927  10.606   9.874
64206SOL    HW294516   7.002  10.600   9.742
64207SOL     OW94517   0.421   6.795   5.122
64207SOL    HW194518   0.395   6.784   5.030
64207SOL    HW294519   0.467   6.714   5.143
64208SOL     OW94520   5.418  13.116   2.513
64208SOL    HW194521   5.424  13.135   2.419
64208SOL    HW294522   5.445  13.025   2.521
64209SOL     OW94523  13.634   7.022   1.032
64209SOL    HW194524  13.685   7.024   1.113
64209SOL    HW294525  13.668   6.947   0.983
64210SOL     OW94526  10.067   0.457   3.329
64210SOL    HW194527  10.009   0.533   3.333
64210SOL    HW294528  10.155   0.493   3.336
64211SOL     OW94529   6.529  12.399   8.488
64211SOL    HW194530   6.447  12.442   8.463
64211SOL    HW294531   6.511  12.305   8.475
64212SOL     OW94532   3.082   3.538   0.231
64212SOL    HW194533   3.173   3.545   0.261
64212SOL    HW294534   3.047   3.626   0.238
64213SOL     OW94535   6.080  14.647   4.768
64213SOL    HW194536   5.984  14.638   4.772
64213SOL    HW294537   6.109  14.622   4.856
64214SOL     OW94538   0.858  12.510   1.902
64214SOL    HW194539   0.836  12.542   1.989
64214SOL    HW294540   0.937  12.560   1.878
64215SOL     OW94541   9.500  11.769   2.563
64215SOL    HW194542   9.450  11.840   2.523
64215SOL    HW294543   9.441  11.693   2.560
64216SOL     OW94544  10.481   8.496   2.854
64216SOL    HW194545  10.407   8.548   2.821
64216SOL    HW294546  10.494   8.528   2.943
64217SOL     OW94547  12.585  11.983  13.954
64217SOL    HW194548  12.508  11.998  14.010
64217SOL    HW294549  12.569  11.897  13.915
64218SOL     OW94550   4.692  10.051   7.105
64218SOL    HW194551   4.749   9.976   7.086
64218SOL    HW294552   4.694  10.103   7.024
64219SOL     OW94553   9.495   9.583   3.576
64219SOL    HW194554   9.456   9.669   3.591
64219SOL    HW294555   9.422   9.529   3.545
64220SOL     OW94556   4.822   2.519   5.453
64220SOL    HW194557   4.732   2.535   5.424
64220SOL    HW294558   4.837   2.582   5.523
64221SOL     OW94559   7.074   7.892  10.612
64221SOL    HW194560   7.041   7.919  10.698
64221SOL    HW294561   7.109   7.972  10.574
64222SOL     OW94562  14.038  12.947  10.299
64222SOL    HW194563  13.995  13.020  10.343
64222SOL    HW294564  14.107  12.988  10.247
64223SOL     OW94565  10.245   0.018  10.487
64223SOL    HW194566  10.325   0.041  10.439
64223SOL    HW294567  10.195  14.852  10.426
64224SOL     OW94568   4.872   7.625  13.178
64224SOL    HW194569   4.965   7.601  13.181
64224SOL    HW294570   4.848   7.637  13.270
64225SOL     OW94571   3.699   4.213   7.029
64225SOL    HW194572   3.707   4.141   6.967
64225SOL    HW294573   3.743   4.182   7.108
64226SOL     OW94574   6.627  14.231  11.745
64226SOL    HW194575   6.705  14.280  11.769
64226SOL    HW294576   6.602  14.184  11.825
64227SOL     OW94577   1.621  14.804   5.399
64227SOL    HW194578   1.686  14.734   5.412
64227SOL    HW294579   1.559  14.767   5.336
64228SOL     OW94580   2.799   8.916   8.784
64228SOL    HW194581   2.808   8.897   8.691
64228SOL    HW294582   2.874   8.874   8.825
64229SOL     OW94583  14.725   0.689  12.056
64229SOL    HW194584  14.760   0.625  12.119
64229SOL    HW294585  14.669   0.746  12.109
64230SOL     OW94586   0.295  12.905   6.928
64230SOL    HW194587   0.342  12.981   6.894
64230SOL    HW294588   0.208  12.938   6.950
64231SOL     OW94589   5.952   6.449  11.492
64231SOL    HW194590   6.043   6.438  11.518
64231SOL    HW294591   5.956   6.493  11.407
64232SOL     OW94592  11.588  14.626   4.980
64232SOL    HW194593  11.537  14.547   4.967
64232SOL    HW294594  11.650  14.603   5.050
64233SOL     OW94595   5.250  12.060   9.179
64233SOL    HW194596   5.293  11.989   9.227
64233SOL    HW294597   5.190  12.099   9.241
64234SOL     OW94598   9.561   5.756   0.557
64234SOL    HW194599   9.546   5.841   0.515
64234SOL    HW294600   9.569   5.694   0.484
64235SOL     OW94601   4.370  11.468  12.390
64235SOL    HW194602   4.289  11.489  12.438
64235SOL    HW294603   4.365  11.374  12.375
64236SOL     OW94604  14.179   6.212   1.844
64236SOL    HW194605  14.116   6.140   1.852
64236SOL    HW294606  14.264   6.171   1.859
64237SOL     OW94607  14.575   0.704   6.342
64237SOL    HW194608  14.516   0.755   6.396
64237SOL    HW294609  14.518   0.641   6.297
64238SOL     OW94610  12.220   2.592   4.813
64238SOL    HW194611  12.248   2.602   4.904
64238SOL    HW294612  12.124   2.587   4.819
64239SOL     OW94613   1.023   5.569   6.105
64239SOL    HW194614   0.998   5.477   6.113
64239SOL    HW294615   0.972   5.602   6.031
64240SOL     OW94616   9.982   3.296   3.406
64240SOL    HW194617  10.065   3.250   3.420
64240SOL    HW294618   9.915   3.229   3.413
64241SOL     OW94619   9.534   8.998   4.568
64241SOL    HW194620   9.443   8.986   4.596
64241SOL    HW294621   9.555   8.921   4.516
64242SOL     OW94622   9.239   4.652   2.387
64242SOL    HW194623   9.187   4.728   2.358
64242SOL    HW294624   9.195   4.577   2.347
64243SOL     OW94625   7.902  14.089  10.407
64243SOL    HW194626   7.940  14.093  10.495
64243SOL    HW294627   7.967  14.042  10.355
64244SOL     OW94628   1.499   4.094  10.254
64244SOL    HW194629   1.482   4.002  10.277
64244SOL    HW294630   1.588   4.092  10.217
64245SOL     OW94631   8.495   0.452   3.819
64245SOL    HW194632   8.434   0.492   3.880
64245SOL    HW294633   8.558   0.405   3.874
64246SOL     OW94634  12.796   7.511   4.531
64246SOL    HW194635  12.793   7.602   4.504
64246SOL    HW294636  12.707   7.478   4.516
64247SOL     OW94637   4.977   0.665   1.442
64247SOL    HW194638   4.991   0.757   1.420
64247SOL    HW294639   5.051   0.642   1.497
64248SOL     OW94640   1.340   4.292  14.294
64248SOL    HW194641   1.259   4.242  14.282
64248SOL    HW294642   1.313   4.383  14.290
64249SOL     OW94643   4.537  13.783   7.966
64249SOL    HW194644   4.556  13.742   8.051
64249SOL    HW294645   4.443  13.772   7.955
64250SOL     OW94646   7.105  14.294  12.439
64250SOL    HW194647   7.033  14.232  12.427
64250SOL    HW294648   7.183  14.246  12.412
64251SOL     OW94649   0.423   1.721   0.798
64251SOL    HW194650   0.443   1.763   0.714
64251SOL    HW294651   0.506   1.681   0.825
64252SOL     OW94652  10.867   0.277  13.828
64252SOL    HW194653  10.816   0.215  13.776
64252SOL    HW294654  10.814   0.357  13.827
64253SOL     OW94655   5.001   5.896  12.655
64253SOL    HW194656   5.016   5.988  12.630
64253SOL    HW294657   4.905   5.887  12.655
64254SOL     OW94658  14.837   0.478   5.901
64254SOL    HW194659  14.870   0.489   5.812
64254SOL    HW294660  14.763   0.538   5.907
64255SOL     OW94661   1.659   4.856   3.109
64255SOL    HW194662   1.570   4.883   3.131
64255SOL    HW294663   1.693   4.926   3.054
64256SOL     OW94664   9.659  12.037  11.137
64256SOL    HW194665   9.659  12.129  11.166
64256SOL    HW294666   9.698  11.989  11.210
64257SOL     OW94667   1.770  11.672   3.734
64257SOL    HW194668   1.767  11.744   3.797
64257SOL    HW294669   1.709  11.607   3.768
64258SOL     OW94670   1.206  10.154   2.108
64258SOL    HW194671   1.162  10.229   2.150
64258SOL    HW294672   1.218  10.091   2.179
64259SOL     OW94673   5.465  10.058   7.532
64259SOL    HW194674   5.556  10.086   7.538
64259SOL    HW294675   5.441  10.034   7.621
64260SOL     OW94676   9.437   1.114   9.767
64260SOL    HW194677   9.399   1.108   9.680
64260SOL    HW294678   9.386   1.182   9.811
64261SOL     OW94679   2.359   7.814   5.044
64261SOL    HW194680   2.311   7.777   4.970
64261SOL    HW294681   2.451   7.807   5.019
64262SOL     OW94682   3.128  12.373  12.865
64262SOL    HW194683   3.077  12.453  12.875
64262SOL    HW294684   3.172  12.383  12.781
64263SOL     OW94685   1.537  12.316   9.319
64263SOL    HW194686   1.570  12.400   9.348
64263SOL    HW294687   1.464  12.297   9.378
64264SOL     OW94688   9.678  14.293   7.944
64264SOL    HW194689   9.622  14.233   7.895
64264SOL    HW294690   9.671  14.264   8.035
64265SOL     OW94691   3.463   3.011  14.608
64265SOL    HW194692   3.532   2.946  14.626
64265SOL    HW294693   3.500   3.094  14.638
64266SOL     OW94694  11.849   2.466  12.997
64266SOL    HW194695  11.824   2.447  12.906
64266SOL    HW294696  11.916   2.534  12.989
64267SOL     OW94697  13.276  12.531   9.815
64267SOL    HW194698  13.210  12.462   9.802
64267SOL    HW294699  13.358  12.490   9.788
64268SOL     OW94700   2.101   1.311   3.449
64268SOL    HW194701   2.121   1.341   3.361
64268SOL    HW294702   2.054   1.229   3.437
64269SOL     OW94703   2.908  12.667   3.135
64269SOL    HW194704   2.895  12.762   3.140
64269SOL    HW294705   2.934  12.651   3.045
64270SOL     OW94706   9.067   3.269   8.652
64270SOL    HW194707   9.141   3.232   8.699
64270SOL    HW294708   8.991   3.242   8.704
64271SOL     OW94709   5.242   3.701  13.195
64271SOL    HW194710   5.275   3.622  13.151
64271SOL    HW294711   5.252   3.683  13.288
64272SOL     OW94712   4.901   9.926  11.599
64272SOL    HW194713   4.858   9.998  11.553
64272SOL    HW294714   4.971   9.968  11.649
64273SOL     OW94715  13.599   2.286   2.246
64273SOL    HW194716  13.505   2.299   2.257
64273SOL    HW294717  13.606   2.230   2.169
64274SOL     OW94718   2.380  14.506   2.402
64274SOL    HW194719   2.306  14.449   2.382
64274SOL    HW294720   2.374  14.520   2.496
64275SOL     OW94721   9.285   5.337   8.155
64275SOL    HW194722   9.248   5.419   8.124
64275SOL    HW294723   9.211   5.289   8.192
64276SOL     OW94724   9.108   5.179   7.324
64276SOL    HW194725   9.061   5.156   7.404
64276SOL    HW294726   9.147   5.097   7.295
64277SOL     OW94727   6.556   7.574   3.892
64277SOL    HW194728   6.484   7.603   3.836
64277SOL    HW294729   6.564   7.480   3.876
64278SOL     OW94730   0.380   7.882   3.335
64278SOL    HW194731   0.321   7.957   3.334
64278SOL    HW294732   0.398   7.864   3.242
64279SOL     OW94733   2.591  10.210  13.416
64279SOL    HW194734   2.666  10.153  13.396
64279SOL    HW294735   2.622  10.266  13.487
64280SOL     OW94736   7.535   2.573  10.294
64280SOL    HW194737   7.446   2.582  10.260
64280SOL    HW294738   7.561   2.483  10.273
64281SOL     OW94739  12.106   5.630  12.956
64281SOL    HW194740  12.020   5.671  12.964
64281SOL    HW294741  12.151   5.652  13.038
64282SOL     OW94742   2.582   3.704   4.942
64282SOL    HW194743   2.575   3.783   4.887
64282SOL    HW294744   2.539   3.636   4.891
64283SOL     OW94745   9.412   6.112   3.716
64283SOL    HW194746   9.375   6.168   3.784
64283SOL    HW294747   9.454   6.172   3.655
64284SOL     OW94748   1.891   3.104   5.140
64284SOL    HW194749   1.861   3.127   5.052
64284SOL    HW294750   1.900   3.008   5.138
64285SOL     OW94751   7.056   4.771   1.941
64285SOL    HW194752   7.147   4.745   1.927
64285SOL    HW294753   7.038   4.833   1.870
64286SOL     OW94754   2.142   3.509   7.344
64286SOL    HW194755   2.064   3.514   7.400
64286SOL    HW294756   2.205   3.568   7.386
64287SOL     OW94757   1.909   8.176  12.136
64287SOL    HW194758   1.921   8.089  12.176
64287SOL    HW294759   1.973   8.232  12.179
64288SOL     OW94760   6.989   0.095   3.073
64288SOL    HW194761   6.916   0.070   3.015
64288SOL    HW294762   6.986   0.191   3.075
64289SOL     OW94763  10.157   7.678   8.020
64289SOL    HW194764  10.226   7.744   8.009
64289SOL    HW294765  10.203   7.600   8.049
64290SOL     OW94766  12.778   0.169  10.221
64290SOL    HW194767  12.868   0.176  10.254
64290SOL    HW294768  12.760   0.255  10.183
64291SOL     OW94769   2.882   4.868   1.220
64291SOL    HW194770   2.818   4.828   1.278
64291SOL    HW294771   2.940   4.796   1.194
64292SOL     OW94772  12.371   9.382  14.395
64292SOL    HW194773  12.410   9.350  14.314
64292SOL    HW294774  12.427   9.455  14.421
64293SOL     OW94775  10.955  14.246  13.969
64293SOL    HW194776  10.868  14.283  13.957
64293SOL    HW294777  10.952  14.162  13.922
64294SOL     OW94778   9.148   2.126  11.331
64294SOL    HW194779   9.110   2.212  11.349
64294SOL    HW294780   9.093   2.065  11.379
64295SOL     OW94781  14.647   4.600   2.993
64295SOL    HW194782  14.679   4.548   2.919
64295SOL    HW294783  14.705   4.677   2.994
64296SOL     OW94784  11.619   8.819  12.345
64296SOL    HW194785  11.667   8.739  12.325
64296SOL    HW294786  11.604   8.860  12.259
64297SOL     OW94787   3.192  10.392   2.804
64297SOL    HW194788   3.201  10.384   2.899
64297SOL    HW294789   3.121  10.456   2.792
64298SOL     OW94790  11.498   6.164   6.400
64298SOL    HW194791  11.427   6.214   6.441
64298SOL    HW294792  11.556   6.143   6.473
64299SOL     OW94793   1.622   1.275   0.720
64299SOL    HW194794   1.606   1.273   0.625
64299SOL    HW294795   1.543   1.238   0.758
64300SOL     OW94796   1.167   4.520   0.354
64300SOL    HW194797   1.235   4.457   0.332
64300SOL    HW294798   1.108   4.471   0.412
64301SOL     OW94799   9.326   0.891   1.989
64301SOL    HW194800   9.386   0.859   1.922
64301SOL    HW294801   9.383   0.932   2.054
64302SOL     OW94802   5.417   0.114   8.045
64302SOL    HW194803   5.453   0.114   7.956
64302SOL    HW294804   5.322   0.105   8.032
64303SOL     OW94805   5.150  10.914  12.261
64303SOL    HW194806   5.164  10.824  12.233
64303SOL    HW294807   5.165  10.967  12.183
64304SOL     OW94808   0.173  13.376  11.214
64304SOL    HW194809   0.256  13.330  11.207
64304SOL    HW294810   0.135  13.371  11.126
64305SOL     OW94811   1.646   0.106   9.151
64305SOL    HW194812   1.697   0.184   9.172
64305SOL    HW294813   1.595   0.129   9.074
64306SOL     OW94814   2.924  13.490  11.477
64306SOL    HW194815   3.006  13.484  11.527
64306SOL    HW294816   2.877  13.563  11.516
64307SOL     OW94817   1.249  10.160   5.503
64307SOL    HW194818   1.297  10.078   5.501
64307SOL    HW294819   1.185  10.153   5.432
64308SOL     OW94820  12.940   5.328  10.585
64308SOL    HW194821  12.938   5.304  10.492
64308SOL    HW294822  12.849   5.348  10.607
64309SOL     OW94823   1.545   6.003   6.515
64309SOL    HW194824   1.536   6.018   6.609
64309SOL    HW294825   1.526   5.910   6.503
64310SOL     OW94826   6.540   9.828   5.505
64310SOL    HW194827   6.625   9.785   5.511
64310SOL    HW294828   6.535   9.859   5.414
64311SOL     OW94829  11.642  13.076  13.326
64311SOL    HW194830  11.611  13.133  13.256
64311SOL    HW294831  11.563  13.053  13.375
64312SOL     OW94832   9.574   3.083   6.230
64312SOL    HW194833   9.669   3.073   6.229
64312SOL    HW294834   9.550   3.083   6.323
64313SOL     OW94835  13.824  11.213   9.758
64313SOL    HW194836  13.804  11.123   9.730
64313SOL    HW294837  13.869  11.202   9.842
64314SOL     OW94838   5.958   7.367   8.033
64314SOL    HW194839   5.878   7.417   8.015
64314SOL    HW294840   5.984   7.394   8.121
64315SOL     OW94841  14.833   7.979  11.816
64315SOL    HW194842  14.872   7.918  11.754
64315SOL    HW294843  14.739   7.971  11.804
64316SOL     OW94844   7.041   5.919  12.867
64316SOL    HW194845   6.968   5.976  12.841
64316SOL    HW294846   7.036   5.918  12.963
64317SOL     OW94847   4.686   9.961   0.509
64317SOL    HW194848   4.625  10.024   0.548
64317SOL    HW294849   4.771  10.004   0.512
64318SOL     OW94850  14.395   1.155   7.113
64318SOL    HW194851  14.453   1.110   7.052
64318SOL    HW294852  14.384   1.094   7.185
64319SOL     OW94853   0.991   1.765  12.078
64319SOL    HW194854   1.056   1.745  12.010
64319SOL    HW294855   1.041   1.804  12.149
64320SOL     OW94856   9.822   3.351   1.286
64320SOL    HW194857   9.853   3.315   1.369
64320SOL    HW294858   9.781   3.277   1.241
64321SOL     OW94859   0.084   2.211   6.812
64321SOL    HW194860   0.075   2.266   6.734
64321SOL    HW294861   0.006   2.156   6.812
64322SOL     OW94862   2.213   0.639   4.917
64322SOL    HW194863   2.297   0.644   4.873
64322SOL    HW294864   2.212   0.714   4.976
64323SOL     OW94865   1.283   1.319  12.761
64323SOL    HW194866   1.291   1.396  12.705
64323SOL    HW294867   1.360   1.321  12.817
64324SOL     OW94868  11.820   8.641   0.020
64324SOL    HW194869  11.783   8.721  14.871
64324SOL    HW294870  11.913   8.658   0.028
64325SOL     OW94871   7.219  14.364   2.306
64325SOL    HW194872   7.171  14.283   2.287
64325SOL    HW294873   7.223  14.409   2.221
64326SOL     OW94874  13.105   3.744  11.270
64326SOL    HW194875  13.113   3.788  11.185
64326SOL    HW294876  13.023   3.779  11.307
64327SOL     OW94877  10.332   5.427   5.959
64327SOL    HW194878  10.404   5.383   5.915
64327SOL    HW294879  10.372   5.468   6.036
64328SOL     OW94880   2.876  13.029   9.617
64328SOL    HW194881   2.928  13.008   9.539
64328SOL    HW294882   2.844  12.945   9.648
64329SOL     OW94883   7.906  14.851  12.243
64329SOL    HW194884   7.926  14.881  12.154
64329SOL    HW294885   7.889   0.044  12.292
64330SOL     OW94886   8.879   8.715  11.362
64330SOL    HW194887   8.818   8.770  11.313
64330SOL    HW294888   8.925   8.775  11.420
64331SOL     OW94889   1.484   2.863  14.324
64331SOL    HW194890   1.534   2.867  14.406
64331SOL    HW294891   1.424   2.937  14.329
64332SOL     OW94892  10.653  14.436   1.836
64332SOL    HW194893  10.671  14.342   1.838
64332SOL    HW294894  10.624  14.453   1.746
64333SOL     OW94895   8.778   8.058  11.413
64333SOL    HW194896   8.742   8.141  11.381
64333SOL    HW294897   8.702   8.010  11.448
64334SOL     OW94898   6.940   0.595   6.889
64334SOL    HW194899   6.855   0.596   6.933
64334SOL    HW294900   6.995   0.539   6.945
64335SOL     OW94901   3.320  11.444   5.263
64335SOL    HW194902   3.380  11.510   5.228
64335SOL    HW294903   3.283  11.483   5.342
64336SOL     OW94904   0.164   0.769  14.513
64336SOL    HW194905   0.251   0.784  14.550
64336SOL    HW294906   0.174   0.785  14.419
64337SOL     OW94907   1.462   6.215   9.669
64337SOL    HW194908   1.412   6.265   9.604
64337SOL    HW294909   1.408   6.138   9.686
64338SOL     OW94910   3.506   2.250   0.640
64338SOL    HW194911   3.582   2.293   0.600
64338SOL    HW294912   3.463   2.320   0.689
64339SOL     OW94913  12.701   2.416   2.062
64339SOL    HW194914  12.772   2.480   2.060
64339SOL    HW294915  12.734   2.344   2.115
64340SOL     OW94916   6.924   7.454  11.770
64340SOL    HW194917   6.842   7.411  11.745
64340SOL    HW294918   6.897   7.538  11.806
64341SOL     OW94919  11.762   5.078  12.238
64341SOL    HW194920  11.739   5.053  12.327
64341SOL    HW294921  11.685   5.122  12.204
64342SOL     OW94922  12.242  11.433   9.578
64342SOL    HW194923  12.187  11.373   9.629
64342SOL    HW294924  12.286  11.377   9.515
64343SOL     OW94925   6.704   4.499  12.626
64343SOL    HW194926   6.642   4.528  12.559
64343SOL    HW294927   6.788   4.496  12.580
64344SOL     OW94928   5.364  10.754   0.922
64344SOL    HW194929   5.376  10.670   0.966
64344SOL    HW294930   5.450  10.795   0.924
64345SOL     OW94931  12.869  11.013   5.164
64345SOL    HW194932  12.788  11.065   5.158
64345SOL    HW294933  12.935  11.076   5.192
64346SOL     OW94934   9.380   8.542  10.484
64346SOL    HW194935   9.305   8.594  10.513
64346SOL    HW294936   9.386   8.472  10.549
64347SOL     OW94937   1.757   5.151   7.512
64347SOL    HW194938   1.777   5.243   7.528
64347SOL    HW294939   1.828   5.122   7.454
64348SOL     OW94940   8.108  12.279  13.145
64348SOL    HW194941   8.121  12.341  13.072
64348SOL    HW294942   8.017  12.249  13.134
64349SOL     OW94943   0.227   6.217  11.184
64349SOL    HW194944   0.187   6.303  11.177
64349SOL    HW294945   0.243   6.191  11.093
64350SOL     OW94946   7.601   4.997  14.614
64350SOL    HW194947   7.547   4.974  14.690
64350SOL    HW294948   7.581   5.089  14.598
64351SOL     OW94949   4.950  10.185   5.676
64351SOL    HW194950   5.003  10.225   5.746
64351SOL    HW294951   4.953  10.091   5.694
64352SOL     OW94952  10.784  12.530  14.149
64352SOL    HW194953  10.688  12.527  14.142
64352SOL    HW294954  10.807  12.619  14.124
64353SOL     OW94955   8.620  14.721   0.444
64353SOL    HW194956   8.703  14.681   0.471
64353SOL    HW294957   8.606  14.792   0.506
64354SOL     OW94958  13.889  11.225   2.078
64354SOL    HW194959  13.869  11.184   1.994
64354SOL    HW294960  13.982  11.205   2.092
64355SOL     OW94961   5.831  12.315   2.564
64355SOL    HW194962   5.839  12.327   2.470
64355SOL    HW294963   5.865  12.397   2.602
64356SOL     OW94964   2.939   8.387   2.379
64356SOL    HW194965   2.867   8.419   2.326
64356SOL    HW294966   2.918   8.415   2.468
64357SOL     OW94967   8.925   9.033  12.163
64357SOL    HW194968   8.915   9.033  12.258
64357SOL    HW294969   8.905   8.943  12.137
64358SOL     OW94970  11.801   9.688   0.854
64358SOL    HW194971  11.859   9.611   0.858
64358SOL    HW294972  11.771   9.690   0.763
64359SOL     OW94973  14.673  12.766   1.629
64359SOL    HW194974  14.585  12.795   1.604
64359SOL    HW294975  14.673  12.771   1.725
64360SOL     OW94976   9.398   6.220   0.832
64360SOL    HW194977   9.392   6.127   0.854
64360SOL    HW294978   9.484   6.246   0.865
64361SOL     OW94979   9.850   9.933  13.663
64361SOL    HW194980   9.803   9.932  13.747
64361SOL    HW294981   9.942   9.939  13.688
64362SOL     OW94982  13.049   1.645  13.394
64362SOL    HW194983  13.067   1.698  13.472
64362SOL    HW294984  13.115   1.576  13.396
64363SOL     OW94985   1.399   9.883   5.443
64363SOL    HW194986   1.491   9.903   5.431
64363SOL    HW294987   1.366   9.868   5.355
64364SOL     OW94988  12.493   9.617   0.744
64364SOL    HW194989  12.416   9.601   0.691
64364SOL    HW294990  12.501   9.713   0.747
64365SOL     OW94991   8.377  11.547   6.653
64365SOL    HW194992   8.393  11.453   6.645
64365SOL    HW294993   8.416  11.571   6.737
64366SOL     OW94994   9.252  12.799   1.139
64366SOL    HW194995   9.198  12.734   1.095
64366SOL    HW294996   9.202  12.881   1.130
64367SOL     OW94997   6.893   3.998  13.500
64367SOL    HW194998   6.954   3.950  13.556
64367SOL    HW294999   6.815   4.010  13.554
64368SOL     OW95000   7.810  12.634   4.904
64368SOL    HW195001   7.879  12.610   4.842
64368SOL    HW295002   7.835  12.591   4.986
64369SOL     OW95003  12.148   8.660   0.791
64369SOL    HW195004  12.218   8.599   0.810
64369SOL    HW295005  12.085   8.610   0.739
64370SOL     OW95006   0.418  10.625   0.507
64370SOL    HW195007   0.402  10.680   0.584
64370SOL    HW295008   0.403  10.683   0.433
64371SOL     OW95009   9.662   5.592  11.357
64371SOL    HW195010   9.568   5.581  11.371
64371SOL    HW295011   9.671   5.684  11.332
64372SOL     OW95012   0.820   8.262   3.036
64372SOL    HW195013   0.852   8.352   3.039
64372SOL    HW295014   0.860   8.219   3.112
64373SOL     OW95015   1.326   8.834   0.164
64373SOL    HW195016   1.281   8.899   0.217
64373SOL    HW295017   1.293   8.847   0.075
64374SOL     OW95018   1.443  14.655   5.274
64374SOL    HW195019   1.402  14.658   5.188
64374SOL    HW295020   1.373  14.629   5.334
64375SOL     OW95021   0.720  11.211   8.941
64375SOL    HW195022   0.803  11.218   8.988
64375SOL    HW295023   0.731  11.267   8.864
64376SOL     OW95024   6.846   3.254   1.982
64376SOL    HW195025   6.886   3.180   2.027
64376SOL    HW295026   6.848   3.325   2.046
64377SOL     OW95027   8.755   0.577   3.877
64377SOL    HW195028   8.662   0.602   3.873
64377SOL    HW295029   8.797   0.631   3.811
64378SOL     OW95030   6.772  10.234   6.415
64378SOL    HW195031   6.776  10.140   6.397
64378SOL    HW295032   6.680  10.257   6.403
64379SOL     OW95033   0.784   4.031  14.338
64379SOL    HW195034   0.839   4.033  14.417
64379SOL    HW295035   0.778   3.938  14.315
64380SOL     OW95036   3.102   8.149   9.065
64380SOL    HW195037   3.152   8.227   9.087
64380SOL    HW295038   3.065   8.119   9.148
64381SOL     OW95039   6.726   8.279   7.044
64381SOL    HW195040   6.813   8.247   7.019
64381SOL    HW295041   6.727   8.276   7.140
64382SOL     OW95042  10.397   0.878  12.505
64382SOL    HW195043  10.470   0.866  12.444
64382SOL    HW295044  10.370   0.788  12.527
64383SOL     OW95045   0.283   8.697   4.418
64383SOL    HW195046   0.374   8.692   4.446
64383SOL    HW295047   0.277   8.635   4.345
64384SOL     OW95048  12.745   9.814  14.881
64384SOL    HW195049  12.736   9.719  14.867
64384SOL    HW295050  12.709   9.853  14.801
64385SOL     OW95051   2.711   0.104   7.911
64385SOL    HW195052   2.764   0.079   7.835
64385SOL    HW295053   2.623   0.075   7.890
64386SOL     OW95054   5.573   4.335   8.742
64386SOL    HW195055   5.560   4.398   8.672
64386SOL    HW295056   5.571   4.250   8.698
64387SOL     OW95057   8.504  10.972   9.808
64387SOL    HW195058   8.591  10.933   9.817
64387SOL    HW295059   8.470  10.977   9.898
64388SOL     OW95060   3.593  12.245  13.982
64388SOL    HW195061   3.554  12.298  13.912
64388SOL    HW295062   3.563  12.156  13.965
64389SOL     OW95063   7.229   8.754   5.505
64389SOL    HW195064   7.266   8.766   5.592
64389SOL    HW295065   7.263   8.829   5.455
64390SOL     OW95066  12.838   8.567  10.184
64390SOL    HW195067  12.789   8.641  10.146
64390SOL    HW295068  12.774   8.524  10.241
64391SOL     OW95069   5.640   1.568  13.424
64391SOL    HW195070   5.655   1.548  13.516
64391SOL    HW295071   5.683   1.497  13.376
64392SOL     OW95072   8.339   6.402  12.067
64392SOL    HW195073   8.252   6.387  12.030
64392SOL    HW295074   8.385   6.319  12.056
64393SOL     OW95075   8.770   0.061   3.707
64393SOL    HW195076   8.799   0.143   3.747
64393SOL    HW295077   8.848   0.006   3.706
64394SOL     OW95078  13.468   1.148   8.847
64394SOL    HW195079  13.549   1.198   8.850
64394SOL    HW295080  13.401   1.213   8.824
64395SOL     OW95081   0.034   6.899  13.674
64395SOL    HW195082   0.105   6.836  13.659
64395SOL    HW295083  14.869   6.861  13.744
64396SOL     OW95084   2.207   5.452   1.998
64396SOL    HW195085   2.298   5.420   1.999
64396SOL    HW295086   2.157   5.381   2.038
64397SOL     OW95087   6.974  10.175   8.113
64397SOL    HW195088   7.047  10.237   8.110
64397SOL    HW295089   6.989  10.125   8.193
64398SOL     OW95090  10.853   7.114   1.468
64398SOL    HW195091  10.927   7.105   1.407
64398SOL    HW295092  10.856   7.034   1.520
64399SOL     OW95093  13.298  14.677   7.988
64399SOL    HW195094  13.213  14.652   7.954
64399SOL    HW295095  13.278  14.731   8.065
64400SOL     OW95096  13.439  11.452   6.140
64400SOL    HW195097  13.423  11.544   6.117
64400SOL    HW295098  13.396  11.403   6.069
64401SOL     OW95099   1.565  11.190   7.706
64401SOL    HW195100   1.607  11.230   7.782
64401SOL    HW295101   1.508  11.122   7.743
64402SOL     OW95102   2.517  14.006   4.326
64402SOL    HW195103   2.587  14.026   4.264
64402SOL    HW295104   2.446  14.065   4.301
64403SOL     OW95105  12.141   7.251  10.564
64403SOL    HW195106  12.169   7.160  10.575
64403SOL    HW295107  12.222   7.301  10.567
64404SOL     OW95108   0.152  14.196  12.530
64404SOL    HW195109   0.184  14.125  12.585
64404SOL    HW295110   0.149  14.273  12.587
64405SOL     OW95111  12.828   8.484  10.550
64405SOL    HW195112  12.920   8.485  10.524
64405SOL    HW295113  12.780   8.462  10.470
64406SOL     OW95114   3.306   4.698  11.142
64406SOL    HW195115   3.231   4.756  11.127
64406SOL    HW295116   3.369   4.753  11.189
64407SOL     OW95117  10.850   2.312  13.411
64407SOL    HW195118  10.848   2.273  13.323
64407SOL    HW295119  10.856   2.238  13.471
64408SOL     OW95120   8.937  13.388  12.514
64408SOL    HW195121   8.910  13.335  12.589
64408SOL    HW295122   8.973  13.468  12.553
64409SOL     OW95123  13.846  12.822  10.884
64409SOL    HW195124  13.860  12.910  10.847
64409SOL    HW295125  13.907  12.766  10.837
64410SOL     OW95126   8.852  12.348   0.056
64410SOL    HW195127   8.817  12.436   0.038
64410SOL    HW295128   8.795  12.289   0.006
64411SOL     OW95129   4.839   8.578  10.357
64411SOL    HW195130   4.925   8.581  10.400
64411SOL    HW295131   4.776   8.573  10.429
64412SOL     OW95132   8.172   7.568   1.056
64412SOL    HW195133   8.185   7.626   1.132
64412SOL    HW295134   8.081   7.538   1.065
64413SOL     OW95135   5.232   3.887   3.540
64413SOL    HW195136   5.208   3.862   3.629
64413SOL    HW295137   5.297   3.956   3.551
64414SOL     OW95138  14.036  13.221   1.184
64414SOL    HW195139  13.941  13.220   1.185
64414SOL    HW295140  14.059  13.240   1.093
64415SOL     OW95141   1.166   6.809   1.372
64415SOL    HW195142   1.197   6.775   1.456
64415SOL    HW295143   1.194   6.744   1.308
64416SOL     OW95144   1.146  10.021   8.256
64416SOL    HW195145   1.054  10.028   8.230
64416SOL    HW295146   1.162  10.100   8.308
64417SOL     OW95147   3.212   2.110   3.935
64417SOL    HW195148   3.137   2.069   3.977
64417SOL    HW295149   3.228   2.057   3.857
64418SOL     OW95150   5.710   7.660   8.929
64418SOL    HW195151   5.783   7.651   8.990
64418SOL    HW295152   5.703   7.574   8.888
64419SOL     OW95153  13.806  14.217   0.515
64419SOL    HW195154  13.821  14.187   0.426
64419SOL    HW295155  13.752  14.149   0.555
64420SOL     OW95156   4.457   1.545  12.694
64420SOL    HW195157   4.514   1.621  12.710
64420SOL    HW295158   4.413   1.564  12.611
64421SOL     OW95159   2.604  10.501   8.539
64421SOL    HW195160   2.567  10.416   8.560
64421SOL    HW295161   2.673  10.515   8.604
64422SOL     OW95162   3.343   8.254   6.878
64422SOL    HW195163   3.358   8.179   6.937
64422SOL    HW295164   3.416   8.314   6.897
64423SOL     OW95165   0.618   8.954   6.681
64423SOL    HW195166   0.583   8.901   6.752
64423SOL    HW295167   0.604   8.901   6.602
64424SOL     OW95168   9.113   2.333   0.012
64424SOL    HW195169   9.149   2.393  14.834
64424SOL    HW295170   9.087   2.389   0.085
64425SOL     OW95171   5.305   9.783  10.175
64425SOL    HW195172   5.359   9.762  10.251
64425SOL    HW295173   5.349   9.741  10.101
64426SOL     OW95174   2.353  14.304   5.163
64426SOL    HW195175   2.362  14.213   5.134
64426SOL    HW295176   2.261  14.311   5.190
64427SOL     OW95177  10.882   8.115  10.599
64427SOL    HW195178  10.862   8.207  10.615
64427SOL    HW295179  10.823   8.089  10.528
64428SOL     OW95180  13.733   2.819   3.718
64428SOL    HW195181  13.715   2.741   3.771
64428SOL    HW295182  13.677   2.809   3.641
64429SOL     OW95183   6.114  12.982   3.580
64429SOL    HW195184   6.079  12.942   3.660
64429SOL    HW295185   6.137  13.071   3.606
64430SOL     OW95186   2.709  10.978   2.962
64430SOL    HW195187   2.751  11.016   3.039
64430SOL    HW295188   2.649  11.046   2.931
64431SOL     OW95189   2.175   1.485   7.543
64431SOL    HW195190   2.170   1.414   7.480
64431SOL    HW295191   2.088   1.488   7.584
64432SOL     OW95192  12.293  10.560  11.206
64432SOL    HW195193  12.367  10.501  11.219
64432SOL    HW295194  12.222  10.521  11.256
64433SOL     OW95195   7.339  12.170   1.542
64433SOL    HW195196   7.282  12.166   1.618
64433SOL    HW295197   7.361  12.078   1.523
64434SOL     OW95198   2.659  12.147  13.090
64434SOL    HW195199   2.730  12.199  13.127
64434SOL    HW295200   2.635  12.086  13.160
64435SOL     OW95201   8.586   5.057   4.091
64435SOL    HW195202   8.590   5.041   4.185
64435SOL    HW295203   8.566   4.971   4.053
64436SOL     OW95204   6.679  11.535   4.321
64436SOL    HW195205   6.723  11.458   4.287
64436SOL    HW295206   6.597  11.501   4.358
64437SOL     OW95207  10.906   5.210   3.021
64437SOL    HW195208  10.917   5.225   2.927
64437SOL    HW295209  10.941   5.121   3.035
64438SOL     OW95210   9.941   5.940  10.642
64438SOL    HW195211   9.890   5.927  10.562
64438SOL    HW295212   9.983   6.025  10.630
64439SOL     OW95213   0.304  10.378   7.933
64439SOL    HW195214   0.337  10.369   7.844
64439SOL    HW295215   0.235  10.312   7.939
64440SOL     OW95216   6.585  11.447   5.939
64440SOL    HW195217   6.581  11.372   5.998
64440SOL    HW295218   6.494  11.465   5.916
64441SOL     OW95219   8.731   6.526  14.418
64441SOL    HW195220   8.750   6.539  14.325
64441SOL    HW295221   8.642   6.560  14.428
64442SOL     OW95222   7.081  13.794   5.357
64442SOL    HW195223   7.038  13.771   5.439
64442SOL    HW295224   7.135  13.719   5.335
64443SOL     OW95225   4.116  11.847  11.624
64443SOL    HW195226   4.207  11.838  11.649
64443SOL    HW295227   4.115  11.831  11.529
64444SOL     OW95228  11.008  10.963  14.224
64444SOL    HW195229  10.975  10.927  14.306
64444SOL    HW295230  11.079  10.904  14.198
64445SOL     OW95231   5.721   3.127   5.919
64445SOL    HW195232   5.694   3.192   5.985
64445SOL    HW295233   5.792   3.079   5.961
64446SOL     OW95234   1.726   1.463   0.266
64446SOL    HW195235   1.778   1.542   0.281
64446SOL    HW295236   1.790   1.396   0.242
64447SOL     OW95237   0.609   7.626   8.627
64447SOL    HW195238   0.649   7.562   8.568
64447SOL    HW295239   0.682   7.658   8.680
64448SOL     OW95240   8.298  14.416   7.896
64448SOL    HW195241   8.371  14.377   7.945
64448SOL    HW295242   8.236  14.344   7.885
64449SOL     OW95243   7.278   7.791  10.921
64449SOL    HW195244   7.272   7.696  10.917
64449SOL    HW295245   7.187   7.821  10.915
64450SOL     OW95246   6.673  12.903   7.834
64450SOL    HW195247   6.689  12.930   7.925
64450SOL    HW295248   6.635  12.980   7.792
64451SOL     OW95249   2.055  12.966   7.126
64451SOL    HW195250   2.075  13.002   7.040
64451SOL    HW295251   2.132  12.986   7.179
64452SOL     OW95252  10.832  14.257  11.045
64452SOL    HW195253  10.920  14.273  11.080
64452SOL    HW295254  10.774  14.288  11.115
64453SOL     OW95255   9.340   4.254   9.795
64453SOL    HW195256   9.433   4.234   9.803
64453SOL    HW295257   9.334   4.316   9.723
64454SOL     OW95258   3.578  13.636  12.647
64454SOL    HW195259   3.648  13.689  12.685
64454SOL    HW295260   3.622  13.574  12.589
64455SOL     OW95261   3.496   9.921   4.624
64455SOL    HW195262   3.427   9.946   4.685
64455SOL    HW295263   3.487   9.826   4.615
64456SOL     OW95264  10.821   9.843   2.052
64456SOL    HW195265  10.765   9.898   2.107
64456SOL    HW295266  10.823   9.888   1.968
64457SOL     OW95267  12.656  10.413   7.703
64457SOL    HW195268  12.749  10.438   7.701
64457SOL    HW295269  12.623  10.437   7.616
64458SOL     OW95270   2.591   2.266   0.304
64458SOL    HW195271   2.600   2.352   0.264
64458SOL    HW295272   2.594   2.205   0.230
64459SOL     OW95273   9.548  12.007   8.565
64459SOL    HW195274   9.509  11.943   8.506
64459SOL    HW295275   9.593  12.069   8.508
64460SOL     OW95276   1.118  11.214   0.189
64460SOL    HW195277   1.054  11.241   0.124
64460SOL    HW295278   1.192  11.273   0.176
64461SOL     OW95279   6.431   6.345   5.382
64461SOL    HW195280   6.337   6.342   5.402
64461SOL    HW295281   6.445   6.270   5.325
64462SOL     OW95282  13.442  10.762   3.827
64462SOL    HW195283  13.413  10.818   3.899
64462SOL    HW295284  13.473  10.824   3.761
64463SOL     OW95285   8.809   9.806   9.154
64463SOL    HW195286   8.899   9.814   9.187
64463SOL    HW295287   8.790   9.892   9.116
64464SOL     OW95288  10.181   5.893  11.849
64464SOL    HW195289  10.173   5.805  11.813
64464SOL    HW295290  10.212   5.946  11.776
64465SOL     OW95291   2.917  12.796   7.901
64465SOL    HW195292   2.827  12.788   7.870
64465SOL    HW295293   2.917  12.754   7.987
64466SOL     OW95294   1.885   1.442   1.208
64466SOL    HW195295   1.921   1.363   1.167
64466SOL    HW295296   1.825   1.409   1.275
64467SOL     OW95297  11.651   6.601   3.506
64467SOL    HW195298  11.744   6.577   3.501
64467SOL    HW295299  11.623   6.605   3.414
64468SOL     OW95300   7.294   7.921   2.432
64468SOL    HW195301   7.311   7.834   2.396
64468SOL    HW295302   7.233   7.906   2.504
64469SOL     OW95303   0.760   1.234   2.717
64469SOL    HW195304   0.736   1.312   2.666
64469SOL    HW295305   0.836   1.262   2.768
64470SOL     OW95306   3.840  12.961   2.388
64470SOL    HW195307   3.903  12.888   2.388
64470SOL    HW295308   3.869  13.017   2.459
64471SOL     OW95309   7.332   4.267   0.555
64471SOL    HW195310   7.343   4.346   0.609
64471SOL    HW295311   7.238   4.254   0.551
64472SOL     OW95312  13.888   5.020   1.099
64472SOL    HW195313  13.927   5.107   1.096
64472SOL    HW295314  13.933   4.971   1.030
64473SOL     OW95315  11.426   2.974  14.532
64473SOL    HW195316  11.404   2.958  14.624
64473SOL    HW295317  11.446   2.888  14.496
64474SOL     OW95318   9.899   7.970   7.801
64474SOL    HW195319   9.921   8.000   7.713
64474SOL    HW295320   9.975   7.991   7.854
64475SOL     OW95321  10.879   3.505   4.553
64475SOL    HW195322  10.885   3.515   4.458
64475SOL    HW295323  10.861   3.412   4.566
64476SOL     OW95324   4.989  14.701   4.299
64476SOL    HW195325   4.956  14.789   4.317
64476SOL    HW295326   5.007  14.664   4.386
64477SOL     OW95327   5.184   6.275   3.544
64477SOL    HW195328   5.230   6.202   3.586
64477SOL    HW295329   5.245   6.308   3.478
64478SOL     OW95330   5.055  14.150  12.690
64478SOL    HW195331   5.001  14.174  12.766
64478SOL    HW295332   4.995  14.155  12.616
64479SOL     OW95333  12.386  11.766   3.712
64479SOL    HW195334  12.382  11.685   3.763
64479SOL    HW295335  12.321  11.824   3.753
64480SOL     OW95336   0.485   4.236  11.837
64480SOL    HW195337   0.505   4.151  11.875
64480SOL    HW295338   0.571   4.276  11.823
64481SOL     OW95339   8.816   0.747  12.560
64481SOL    HW195340   8.880   0.801  12.607
64481SOL    HW295341   8.732   0.791  12.576
64482SOL     OW95342   7.289   2.366   3.415
64482SOL    HW195343   7.304   2.458   3.393
64482SOL    HW295344   7.278   2.322   3.331
64483SOL     OW95345   8.031  13.704   1.861
64483SOL    HW195346   8.060  13.713   1.952
64483SOL    HW295347   8.047  13.790   1.822
64484SOL     OW95348  11.982  13.676  12.380
64484SOL    HW195349  11.970  13.759  12.427
64484SOL    HW295350  12.064  13.640  12.415
64485SOL     OW95351   8.632   7.174  10.829
64485SOL    HW195352   8.617   7.092  10.876
64485SOL    HW295353   8.640   7.148  10.737
64486SOL     OW95354   7.512   9.188   4.763
64486SOL    HW195355   7.551   9.266   4.802
64486SOL    HW295356   7.546   9.187   4.673
64487SOL     OW95357  10.388   3.941   6.796
64487SOL    HW195358  10.303   3.932   6.840
64487SOL    HW295359  10.438   3.865   6.825
64488SOL     OW95360   2.015   6.451   8.599
64488SOL    HW195361   1.984   6.534   8.562
64488SOL    HW295362   2.092   6.429   8.548
64489SOL     OW95363   0.857   4.154  14.764
64489SOL    HW195364   0.839   4.187  14.852
64489SOL    HW295365   0.953   4.156  14.757
64490SOL     OW95366   7.827  11.993   3.154
64490SOL    HW195367   7.782  12.054   3.213
64490SOL    HW295368   7.887  11.945   3.211
64491SOL     OW95369   2.354   7.274   8.796
64491SOL    HW195370   2.308   7.220   8.732
64491SOL    HW295371   2.432   7.223   8.818
64492SOL     OW95372  11.927  11.687   0.510
64492SOL    HW195373  11.929  11.605   0.460
64492SOL    HW295374  12.006  11.734   0.483
64493SOL     OW95375   5.495   3.033  11.175
64493SOL    HW195376   5.551   3.028  11.251
64493SOL    HW295377   5.406   3.023  11.209
64494SOL     OW95378   2.737   8.145   3.038
64494SOL    HW195379   2.702   8.074   2.985
64494SOL    HW295380   2.825   8.160   3.004
64495SOL     OW95381  14.417  12.719  11.329
64495SOL    HW195382  14.450  12.788  11.386
64495SOL    HW295383  14.451  12.638  11.366
64496SOL     OW95384  14.213  12.502  11.414
64496SOL    HW195385  14.255  12.484  11.499
64496SOL    HW295386  14.246  12.587  11.388
64497SOL     OW95387   5.143   4.722  12.923
64497SOL    HW195388   5.085   4.720  12.846
64497SOL    HW295389   5.194   4.641  12.916
64498SOL     OW95390   1.195   7.515   9.103
64498SOL    HW195391   1.252   7.584   9.069
64498SOL    HW295392   1.171   7.464   9.025
64499SOL     OW95393   8.541  14.599  11.986
64499SOL    HW195394   8.526  14.655  11.911
64499SOL    HW295395   8.453  14.575  12.016
64500SOL     OW95396  12.765   9.387   6.149
64500SOL    HW195397  12.819   9.432   6.084
64500SOL    HW295398  12.814   9.308   6.171
64501SOL     OW95399   8.116  13.845  11.541
64501SOL    HW195400   8.168  13.924  11.525
64501SOL    HW295401   8.175  13.785  11.586
64502SOL     OW95402   9.499  10.150   8.466
64502SOL    HW195403   9.581  10.112   8.498
64502SOL    HW295404   9.431  10.095   8.505
64503SOL     OW95405   9.802   1.892   9.796
64503SOL    HW195406   9.757   1.811   9.774
64503SOL    HW295407   9.768   1.916   9.882
64504SOL     OW95408   9.537  14.240  11.342
64504SOL    HW195409   9.581  14.167  11.298
64504SOL    HW295410   9.495  14.288  11.271
64505SOL     OW95411  11.377   5.654   9.315
64505SOL    HW195412  11.309   5.599   9.274
64505SOL    HW295413  11.458   5.626   9.273
64506SOL     OW95414   6.784   9.704   9.518
64506SOL    HW195415   6.719   9.709   9.587
64506SOL    HW295416   6.805   9.795   9.497
64507SOL     OW95417  10.468   0.281   2.854
64507SOL    HW195418  10.388   0.289   2.906
64507SOL    HW295419  10.459   0.199   2.806
64508SOL     OW95420   2.923  12.907  11.780
64508SOL    HW195421   2.908  12.998  11.752
64508SOL    HW295422   2.858  12.893  11.849
64509SOL     OW95423   1.013   0.933   1.402
64509SOL    HW195424   1.037   1.014   1.446
64509SOL    HW295425   0.952   0.960   1.333
64510SOL     OW95426   8.920   1.120   1.718
64510SOL    HW195427   8.953   1.073   1.795
64510SOL    HW295428   8.839   1.073   1.694
64511SOL     OW95429   9.719   0.464   2.050
64511SOL    HW195430   9.773   0.524   2.101
64511SOL    HW295431   9.775   0.388   2.035
64512SOL     OW95432   8.677   2.873  11.226
64512SOL    HW195433   8.640   2.901  11.310
64512SOL    HW295434   8.759   2.830  11.249
64513SOL     OW95435   4.450  10.624   1.448
64513SOL    HW195436   4.540  10.605   1.473
64513SOL    HW295437   4.431  10.709   1.488
64514SOL     OW95438   2.797   8.374  13.933
64514SOL    HW195439   2.705   8.352  13.922
64514SOL    HW295440   2.835   8.365  13.846
64515SOL     OW95441  13.867   6.996  10.889
64515SOL    HW195442  13.840   6.967  10.977
64515SOL    HW295443  13.799   7.058  10.863
64516SOL     OW95444   3.918   1.996   3.404
64516SOL    HW195445   3.896   2.081   3.441
64516SOL    HW295446   4.013   1.990   3.412
64517SOL     OW95447  14.167   4.622   1.654
64517SOL    HW195448  14.130   4.535   1.669
64517SOL    HW295449  14.189   4.623   1.561
64518SOL     OW95450  14.190  14.108   2.310
64518SOL    HW195451  14.214  14.016   2.297
64518SOL    HW295452  14.117  14.123   2.250
64519SOL     OW95453  10.428   5.234  13.665
64519SOL    HW195454  10.356   5.259  13.722
64519SOL    HW295455  10.500   5.291  13.691
64520SOL     OW95456  10.868  12.834  12.150
64520SOL    HW195457  10.815  12.842  12.071
64520SOL    HW295458  10.810  12.861  12.222
64521SOL     OW95459  14.295   4.299  10.381
64521SOL    HW195460  14.273   4.231  10.445
64521SOL    HW295461  14.358   4.354  10.426
64522SOL     OW95462   8.619  13.172  13.925
64522SOL    HW195463   8.712  13.151  13.932
64522SOL    HW295464   8.575  13.087  13.930
64523SOL     OW95465   2.433  10.025   6.328
64523SOL    HW195466   2.374  10.090   6.289
64523SOL    HW295467   2.387   9.942   6.316
64524SOL     OW95468  14.871   2.700   6.772
64524SOL    HW195469  14.861   2.612   6.808
64524SOL    HW295470   0.021   2.686   6.685
64525SOL     OW95471   2.147   7.549  11.923
64525SOL    HW195472   2.156   7.627  11.869
64525SOL    HW295473   2.195   7.481  11.875
64526SOL     OW95474  10.842   2.942   4.611
64526SOL    HW195475  10.889   2.926   4.529
64526SOL    HW295476  10.903   2.993   4.664
64527SOL     OW95477   2.013   5.396   6.100
64527SOL    HW195478   1.997   5.350   6.017
64527SOL    HW295479   2.061   5.475   6.075
64528SOL     OW95480   8.370  12.816  12.327
64528SOL    HW195481   8.409  12.755  12.264
64528SOL    HW295482   8.293  12.770  12.360
64529SOL     OW95483   5.520   0.142  13.504
64529SOL    HW195484   5.553   0.219  13.456
64529SOL    HW295485   5.590   0.121  13.565
64530SOL     OW95486   6.599  13.188   7.380
64530SOL    HW195487   6.572  13.118   7.320
64530SOL    HW295488   6.545  13.263   7.355
64531SOL     OW95489  13.274   7.955   3.567
64531SOL    HW195490  13.282   7.899   3.490
64531SOL    HW295491  13.365   7.967   3.597
64532SOL     OW95492   0.780  13.317   2.420
64532SOL    HW195493   0.817  13.389   2.471
64532SOL    HW295494   0.699  13.293   2.466
64533SOL     OW95495  10.222  12.376  12.026
64533SOL    HW195496  10.166  12.449  12.003
64533SOL    HW295497  10.309  12.401  11.994
64534SOL     OW95498   9.823  12.283   1.703
64534SOL    HW195499   9.801  12.350   1.638
64534SOL    HW295500   9.791  12.201   1.666
64535SOL     OW95501  13.031  11.676   3.984
64535SOL    HW195502  13.127  11.672   3.978
64535SOL    HW295503  13.013  11.769   3.998
64536SOL     OW95504   3.272   9.657  10.409
64536SOL    HW195505   3.284   9.584  10.349
64536SOL    HW295506   3.347   9.652  10.468
64537SOL     OW95507   0.817  14.622   9.415
64537SOL    HW195508   0.886  14.689   9.419
64537SOL    HW295509   0.774  14.628   9.500
64538SOL     OW95510   8.665   2.611   9.258
64538SOL    HW195511   8.610   2.686   9.282
64538SOL    HW295512   8.652   2.601   9.164
64539SOL     OW95513   0.790   6.362   6.780
64539SOL    HW195514   0.857   6.430   6.776
64539SOL    HW295515   0.763   6.350   6.689
64540SOL     OW95516   0.878   8.043   2.461
64540SOL    HW195517   0.835   8.120   2.423
64540SOL    HW295518   0.972   8.060   2.448
64541SOL     OW95519  13.966  10.666  12.871
64541SOL    HW195520  13.998  10.667  12.781
64541SOL    HW295521  13.882  10.713  12.867
64542SOL     OW95522   8.106   4.177   9.920
64542SOL    HW195523   8.098   4.193  10.014
64542SOL    HW295524   8.107   4.265   9.881
64543SOL     OW95525   3.863   6.313  12.449
64543SOL    HW195526   3.855   6.281  12.539
64543SOL    HW295527   3.948   6.279  12.420
64544SOL     OW95528   9.632   7.710  14.807
64544SOL    HW195529   9.699   7.671  14.750
64544SOL    HW295530   9.645   7.667   0.004
64545SOL     OW95531   2.091   6.002   9.726
64545SOL    HW195532   2.005   6.039   9.748
64545SOL    HW295533   2.073   5.942   9.653
64546SOL     OW95534   2.847  13.719   3.631
64546SOL    HW195535   2.860  13.788   3.695
64546SOL    HW295536   2.935  13.691   3.607
64547SOL     OW95537   0.758  14.067   6.092
64547SOL    HW195538   0.664  14.078   6.080
64547SOL    HW295539   0.767  14.025   6.177
64548SOL     OW95540  10.503   9.788   2.337
64548SOL    HW195541  10.502   9.875   2.375
64548SOL    HW295542  10.482   9.801   2.245
64549SOL     OW95543   7.504   0.918   7.904
64549SOL    HW195544   7.461   1.002   7.919
64549SOL    HW295545   7.514   0.913   7.809
64550SOL     OW95546  11.711   9.686   3.683
64550SOL    HW195547  11.634   9.631   3.697
64550SOL    HW295548  11.695   9.729   3.599
64551SOL     OW95549  13.467   4.486   0.162
64551SOL    HW195550  13.547   4.435   0.170
64551SOL    HW295551  13.427   4.456   0.081
64552SOL     OW95552  13.748   1.964   5.761
64552SOL    HW195553  13.743   1.948   5.856
64552SOL    HW295554  13.673   2.019   5.741
64553SOL     OW95555  13.671   6.868  12.832
64553SOL    HW195556  13.611   6.916  12.889
64553SOL    HW295557  13.693   6.930  12.763
64554SOL     OW95558   7.772   1.640   5.985
64554SOL    HW195559   7.758   1.661   5.893
64554SOL    HW295560   7.740   1.550   5.994
64555SOL     OW95561  13.375   8.281  11.159
64555SOL    HW195562  13.417   8.226  11.225
64555SOL    HW295563  13.287   8.297  11.192
64556SOL     OW95564   3.491   0.305   2.191
64556SOL    HW195565   3.398   0.325   2.198
64556SOL    HW295566   3.494   0.214   2.161
64557SOL     OW95567   2.921  13.343   4.159
64557SOL    HW195568   2.942  13.279   4.091
64557SOL    HW295569   2.872  13.411   4.112
64558SOL     OW95570   9.334  12.247   1.324
64558SOL    HW195571   9.291  12.284   1.247
64558SOL    HW295572   9.300  12.299   1.397
64559SOL     OW95573   4.454   7.229   9.620
64559SOL    HW195574   4.546   7.237   9.646
64559SOL    HW295575   4.423   7.150   9.664
64560SOL     OW95576  10.685  12.366   3.791
64560SOL    HW195577  10.638  12.385   3.873
64560SOL    HW295578  10.775  12.391   3.809
64561SOL     OW95579  14.739   4.147  11.893
64561SOL    HW195580  14.824   4.187  11.874
64561SOL    HW295581  14.760   4.055  11.913
64562SOL     OW95582   3.507  10.249   6.027
64562SOL    HW195583   3.554  10.183   5.977
64562SOL    HW295584   3.415  10.238   6.001
64563SOL     OW95585  12.221   0.775   9.143
64563SOL    HW195586  12.291   0.709   9.152
64563SOL    HW295587  12.140   0.726   9.157
64564SOL     OW95588   1.395   5.063   7.402
64564SOL    HW195589   1.354   5.096   7.482
64564SOL    HW295590   1.469   5.122   7.386
64565SOL     OW95591  10.674  10.821  14.407
64565SOL    HW195592  10.665  10.846  14.315
64565SOL    HW295593  10.632  10.735  14.412
64566SOL     OW95594   9.049   4.364   7.566
64566SOL    HW195595   9.103   4.285   7.569
64566SOL    HW295596   8.971   4.338   7.517
64567SOL     OW95597   9.929  13.228   6.343
64567SOL    HW195598   9.992  13.162   6.312
64567SOL    HW295599   9.858  13.226   6.279
64568SOL     OW95600   8.866   4.076   8.477
64568SOL    HW195601   8.837   4.140   8.543
64568SOL    HW295602   8.790   4.019   8.465
64569SOL     OW95603   6.440  10.663  14.320
64569SOL    HW195604   6.415  10.743  14.275
64569SOL    HW295605   6.417  10.593  14.258
64570SOL     OW95606   9.321   4.131  13.985
64570SOL    HW195607   9.274   4.175  13.915
64570SOL    HW295608   9.331   4.197  14.054
64571SOL     OW95609   7.136  10.055   4.369
64571SOL    HW195610   7.045  10.026   4.373
64571SOL    HW295611   7.168  10.049   4.459
64572SOL     OW95612   4.287   7.122  13.295
64572SOL    HW195613   4.272   7.175  13.217
64572SOL    HW295614   4.269   7.180  13.368
64573SOL     OW95615   6.052   1.183   9.833
64573SOL    HW195616   5.990   1.213   9.900
64573SOL    HW295617   6.114   1.255   9.824
64574SOL     OW95618  10.781  13.438   9.264
64574SOL    HW195619  10.823  13.380   9.328
64574SOL    HW295620  10.774  13.385   9.184
64575SOL     OW95621  13.781   4.969   5.245
64575SOL    HW195622  13.857   4.935   5.292
64575SOL    HW295623  13.761   4.902   5.180
64576SOL     OW95624   6.300   9.592  14.381
64576SOL    HW195625   6.372   9.639  14.339
64576SOL    HW295626   6.317   9.500  14.363
64577SOL     OW95627   1.085  13.790   4.240
64577SOL    HW195628   1.061  13.788   4.333
64577SOL    HW295629   1.003  13.810   4.195
64578SOL     OW95630   2.863   2.005   1.611
64578SOL    HW195631   2.814   2.025   1.531
64578SOL    HW295632   2.853   1.911   1.623
64579SOL     OW95633  12.523   8.660   4.853
64579SOL    HW195634  12.522   8.569   4.824
64579SOL    HW295635  12.442   8.670   4.902
64580SOL     OW95636   4.603  14.073  13.757
64580SOL    HW195637   4.610  13.982  13.728
64580SOL    HW295638   4.509  14.092  13.753
64581SOL     OW95639   7.689  10.507   2.896
64581SOL    HW195640   7.781  10.490   2.918
64581SOL    HW295641   7.685  10.601   2.879
64582SOL     OW95642   4.897   0.400  14.296
64582SOL    HW195643   4.816   0.367  14.335
64582SOL    HW295644   4.874   0.488  14.266
64583SOL     OW95645  13.231   7.696   5.265
64583SOL    HW195646  13.140   7.725   5.269
64583SOL    HW295647  13.268   7.722   5.350
64584SOL     OW95648  13.719   0.431  14.423
64584SOL    HW195649  13.741   0.430  14.330
64584SOL    HW295650  13.790   0.383  14.466
64585SOL     OW95651  13.796   5.878   3.446
64585SOL    HW195652  13.738   5.906   3.517
64585SOL    HW295653  13.753   5.909   3.366
64586SOL     OW95654   1.644  14.478   1.898
64586SOL    HW195655   1.566  14.436   1.861
64586SOL    HW295656   1.681  14.412   1.957
64587SOL     OW95657   2.445  13.211   2.031
64587SOL    HW195658   2.514  13.254   2.081
64587SOL    HW295659   2.490  13.145   1.979
64588SOL     OW95660  14.382   8.224  12.190
64588SOL    HW195661  14.368   8.264  12.276
64588SOL    HW295662  14.460   8.267  12.156
64589SOL     OW95663   0.721   2.666  14.063
64589SOL    HW195664   0.673   2.710  14.133
64589SOL    HW295665   0.655   2.615  14.017
64590SOL     OW95666  11.126   2.090   4.163
64590SOL    HW195667  11.149   2.133   4.080
64590SOL    HW295668  11.131   1.996   4.143
64591SOL     OW95669   7.846   8.080   8.308
64591SOL    HW195670   7.771   8.021   8.296
64591SOL    HW295671   7.812   8.166   8.281
64592SOL     OW95672  11.684   3.978   0.857
64592SOL    HW195673  11.754   4.040   0.834
64592SOL    HW295674  11.729   3.894   0.865
64593SOL     OW95675   8.828  13.809   4.504
64593SOL    HW195676   8.786  13.791   4.420
64593SOL    HW295677   8.776  13.760   4.568
64594SOL     OW95678  11.765  12.016   8.346
64594SOL    HW195679  11.795  11.931   8.317
64594SOL    HW295680  11.831  12.044   8.410
64595SOL     OW95681  14.693   1.646  11.712
64595SOL    HW195682  14.781   1.682  11.719
64595SOL    HW295683  14.667   1.629  11.803
64596SOL     OW95684  10.996   9.886   8.996
64596SOL    HW195685  11.008   9.898   8.901
64596SOL    HW295686  10.957   9.799   9.004
64597SOL     OW95687   4.065   5.245  11.486
64597SOL    HW195688   4.051   5.332  11.449
64597SOL    HW295689   3.977   5.208  11.495
64598SOL     OW95690   6.141   8.473   0.330
64598SOL    HW195691   6.053   8.510   0.340
64598SOL    HW295692   6.128   8.379   0.333
64599SOL     OW95693   9.050   6.468  14.353
64599SOL    HW195694   8.990   6.409  14.398
64599SOL    HW295695   9.122   6.411  14.325
64600SOL     OW95696  12.983   8.712   3.827
64600SOL    HW195697  12.953   8.671   3.746
64600SOL    HW295698  12.942   8.798   3.827
64601SOL     OW95699  10.075   3.136   2.710
64601SOL    HW195700  10.068   3.122   2.616
64601SOL    HW295701  10.137   3.208   2.719
64602SOL     OW95702  14.203   0.693   1.320
64602SOL    HW195703  14.179   0.713   1.411
64602SOL    HW295704  14.275   0.753   1.301
64603SOL     OW95705   8.402   5.866   6.547
64603SOL    HW195706   8.416   5.899   6.458
64603SOL    HW295707   8.318   5.821   6.544
64604SOL     OW95708   7.972   5.817   9.502
64604SOL    HW195709   7.935   5.735   9.534
64604SOL    HW295710   8.065   5.798   9.490
64605SOL     OW95711   0.913   5.124   3.415
64605SOL    HW195712   0.844   5.121   3.349
64605SOL    HW295713   0.905   5.210   3.455
64606SOL     OW95714   4.507   6.343   2.581
64606SOL    HW195715   4.509   6.353   2.676
64606SOL    HW295716   4.492   6.432   2.547
64607SOL     OW95717  14.266   6.493  14.569
64607SOL    HW195718  14.359   6.516  14.572
64607SOL    HW295719  14.265   6.397  14.567
64608SOL     OW95720   9.387   8.401   8.186
64608SOL    HW195721   9.395   8.470   8.120
64608SOL    HW295722   9.476   8.371   8.202
64609SOL     OW95723  13.884   6.604  10.516
64609SOL    HW195724  13.838   6.615  10.599
64609SOL    HW295725  13.952   6.539  10.535
64610SOL     OW95726   2.527   5.250   8.340
64610SOL    HW195727   2.442   5.213   8.363
64610SOL    HW295728   2.554   5.201   8.262
64611SOL     OW95729   5.883   2.872   4.640
64611SOL    HW195730   5.819   2.891   4.708
64611SOL    HW295731   5.885   2.952   4.587
64612SOL     OW95732   5.533  11.234   4.374
64612SOL    HW195733   5.594  11.163   4.353
64612SOL    HW295734   5.586  11.298   4.421
64613SOL     OW95735  10.694  14.616  10.901
64613SOL    HW195736  10.669  14.545  10.961
64613SOL    HW295737  10.697  14.574  10.814
64614SOL     OW95738   3.622  12.873   2.689
64614SOL    HW195739   3.608  12.915   2.604
64614SOL    HW295740   3.686  12.804   2.672
64615SOL     OW95741  13.338   8.506   2.580
64615SOL    HW195742  13.384   8.539   2.503
64615SOL    HW295743  13.292   8.428   2.550
64616SOL     OW95744  11.088   3.318   7.132
64616SOL    HW195745  11.044   3.242   7.170
64616SOL    HW295746  11.079   3.307   7.038
64617SOL     OW95747   1.172  10.527   1.233
64617SOL    HW195748   1.134  10.454   1.184
64617SOL    HW295749   1.136  10.605   1.191
64618SOL     OW95750   2.633   4.320   2.920
64618SOL    HW195751   2.652   4.398   2.973
64618SOL    HW295752   2.598   4.257   2.982
64619SOL     OW95753   2.448  11.002   6.708
64619SOL    HW195754   2.354  11.014   6.699
64619SOL    HW295755   2.484  11.029   6.624
64620SOL     OW95756   2.354   0.198   5.710
64620SOL    HW195757   2.361   0.104   5.727
64620SOL    HW295758   2.418   0.214   5.641
64621SOL     OW95759   4.795  11.689   2.165
64621SOL    HW195760   4.731  11.661   2.100
64621SOL    HW295761   4.868  11.722   2.113
64622SOL     OW95762  14.553   4.411   7.452
64622SOL    HW195763  14.528   4.476   7.387
64622SOL    HW295764  14.590   4.338   7.401
64623SOL     OW95765  10.856   7.349  12.973
64623SOL    HW195766  10.879   7.440  12.954
64623SOL    HW295767  10.769   7.354  13.012
64624SOL     OW95768  14.711   6.566  10.012
64624SOL    HW195769  14.693   6.500   9.946
64624SOL    HW295770  14.768   6.630   9.968
64625SOL     OW95771   9.281   2.075   8.180
64625SOL    HW195772   9.288   2.067   8.275
64625SOL    HW295773   9.370   2.093   8.150
64626SOL     OW95774   6.175   5.555   1.570
64626SOL    HW195775   6.193   5.557   1.664
64626SOL    HW295776   6.149   5.465   1.552
64627SOL     OW95777  11.451   0.940  12.877
64627SOL    HW195778  11.358   0.927  12.861
64627SOL    HW295779  11.489   0.953  12.790
64628SOL     OW95780  10.377   9.788   3.412
64628SOL    HW195781  10.445   9.854   3.404
64628SOL    HW295782  10.401   9.721   3.347
64629SOL     OW95783   0.187   4.149   0.681
64629SOL    HW195784   0.239   4.213   0.632
64629SOL    HW295785   0.216   4.159   0.772
64630SOL     OW95786  11.654   2.903  10.282
64630SOL    HW195787  11.684   2.935  10.197
64630SOL    HW295788  11.724   2.928  10.343
64631SOL     OW95789   9.214   3.886   4.114
64631SOL    HW195790   9.152   3.872   4.042
64631SOL    HW295791   9.193   3.817   4.177
64632SOL     OW95792   4.167   6.475   0.949
64632SOL    HW195793   4.105   6.546   0.931
64632SOL    HW295794   4.243   6.518   0.987
64633SOL     OW95795  11.413   2.982  13.691
64633SOL    HW195796  11.470   3.039  13.742
64633SOL    HW295797  11.400   3.028  13.608
64634SOL     OW95798  12.548   4.528   0.704
64634SOL    HW195799  12.552   4.494   0.793
64634SOL    HW295800  12.554   4.623   0.714
64635SOL     OW95801  12.390   5.584   1.862
64635SOL    HW195802  12.478   5.545   1.866
64635SOL    HW295803  12.407   5.677   1.843
64636SOL     OW95804   5.018   4.045   4.260
64636SOL    HW195805   5.033   4.135   4.233
64636SOL    HW295806   4.958   4.052   4.334
64637SOL     OW95807  11.986   9.401  13.238
64637SOL    HW195808  11.978   9.493  13.215
64637SOL    HW295809  11.931   9.390  13.315
64638SOL     OW95810   1.419  12.940  11.004
64638SOL    HW195811   1.395  12.855  10.966
64638SOL    HW295812   1.423  12.999  10.929
64639SOL     OW95813   2.539   3.564   5.189
64639SOL    HW195814   2.579   3.596   5.109
64639SOL    HW295815   2.456   3.612   5.196
64640SOL     OW95816   9.386  12.742   5.921
64640SOL    HW195817   9.358  12.693   5.998
64640SOL    HW295818   9.349  12.693   5.847
64641SOL     OW95819   3.357   0.204  11.299
64641SOL    HW195820   3.377   0.289  11.338
64641SOL    HW295821   3.414   0.142  11.345
64642SOL     OW95822  12.476  13.573   9.270
64642SOL    HW195823  12.393  13.528   9.252
64642SOL    HW295824  12.454  13.635   9.340
64643SOL     OW95825   3.999   0.904   2.195
64643SOL    HW195826   3.971   0.833   2.137
64643SOL    HW295827   3.930   0.909   2.261
64644SOL     OW95828   5.236  11.399   4.691
64644SOL    HW195829   5.237  11.374   4.783
64644SOL    HW295830   5.176  11.338   4.649
64645SOL     OW95831   6.842  13.263   0.087
64645SOL    HW195832   6.817  13.354   0.073
64645SOL    HW295833   6.863  13.258   0.180
64646SOL     OW95834   2.673   5.971  14.740
64646SOL    HW195835   2.583   5.949  14.764
64646SOL    HW295836   2.710   5.889  14.708
64647SOL     OW95837   9.422   7.707  13.944
64647SOL    HW195838   9.503   7.657  13.958
64647SOL    HW295839   9.365   7.681  14.016
64648SOL     OW95840  10.757   8.674   6.170
64648SOL    HW195841  10.776   8.763   6.139
64648SOL    HW295842  10.736   8.684   6.262
64649SOL     OW95843  13.513  11.729   3.073
64649SOL    HW195844  13.596  11.708   3.117
64649SOL    HW295845  13.523  11.820   3.046
64650SOL     OW95846   1.699   1.284  10.246
64650SOL    HW195847   1.604   1.291  10.237
64650SOL    HW295848   1.721   1.341  10.320
64651SOL     OW95849  11.903  10.832   5.741
64651SOL    HW195850  11.813  10.822   5.710
64651SOL    HW295851  11.910  10.774   5.816
64652SOL     OW95852   8.443   8.020  12.544
64652SOL    HW195853   8.353   7.990  12.557
64652SOL    HW295854   8.495   7.940  12.543
64653SOL     OW95855   9.887   3.046  13.334
64653SOL    HW195856   9.833   3.118  13.300
64653SOL    HW295857   9.954   3.089  13.387
64654SOL     OW95858   0.509   1.214   7.900
64654SOL    HW195859   0.458   1.193   7.822
64654SOL    HW295860   0.451   1.268   7.953
64655SOL     OW95861  12.601   8.113   1.702
64655SOL    HW195862  12.560   8.129   1.787
64655SOL    HW295863  12.545   8.048   1.660
64656SOL     OW95864  10.662  12.038   9.560
64656SOL    HW195865  10.656  11.983   9.481
64656SOL    HW295866  10.590  12.008   9.615
64657SOL     OW95867  13.149   2.018   1.959
64657SOL    HW195868  13.164   2.106   1.924
64657SOL    HW295869  13.123   1.966   1.883
64658SOL     OW95870   9.358   0.385   8.772
64658SOL    HW195871   9.415   0.462   8.770
64658SOL    HW295872   9.270   0.420   8.758
64659SOL     OW95873   9.571  13.099   5.963
64659SOL    HW195874   9.485  13.140   5.953
64659SOL    HW295875   9.629  13.153   5.908
64660SOL     OW95876   8.283  14.155   7.027
64660SOL    HW195877   8.293  14.132   6.934
64660SOL    HW295878   8.259  14.073   7.069
64661SOL     OW95879  11.962   1.778   1.358
64661SOL    HW195880  12.020   1.854   1.360
64661SOL    HW295881  11.876   1.812   1.383
64662SOL     OW95882   0.751  13.947   5.335
64662SOL    HW195883   0.748  13.939   5.240
64662SOL    HW295884   0.697  13.875   5.367
64663SOL     OW95885   2.978   8.128  11.870
64663SOL    HW195886   2.937   8.213  11.853
64663SOL    HW295887   2.971   8.082  11.786
64664SOL     OW95888   5.212  11.713   5.388
64664SOL    HW195889   5.118  11.732   5.390
64664SOL    HW295890   5.218  11.625   5.352
64665SOL     OW95891   1.297  12.815   2.488
64665SOL    HW195892   1.255  12.785   2.568
64665SOL    HW295893   1.378  12.857   2.518
64666SOL     OW95894   4.174  11.644   9.553
64666SOL    HW195895   4.228  11.608   9.483
64666SOL    HW295896   4.086  11.648   9.516
64667SOL     OW95897  10.150  10.394   7.667
64667SOL    HW195898  10.183  10.461   7.728
64667SOL    HW295899  10.229  10.355   7.630
64668SOL     OW95900   9.905   8.872   2.595
64668SOL    HW195901   9.962   8.943   2.566
64668SOL    HW295902   9.964   8.801   2.618
64669SOL     OW95903   0.606   4.503   5.169
64669SOL    HW195904   0.576   4.583   5.125
64669SOL    HW295905   0.661   4.535   5.241
64670SOL     OW95906   2.671   6.168   8.720
64670SOL    HW195907   2.712   6.172   8.633
64670SOL    HW295908   2.595   6.111   8.708
64671SOL     OW95909   4.167   0.232   9.540
64671SOL    HW195910   4.209   0.148   9.561
64671SOL    HW295911   4.121   0.256   9.620
64672SOL     OW95912   6.942  12.318   8.888
64672SOL    HW195913   6.961  12.359   8.804
64672SOL    HW295914   6.872  12.256   8.870
64673SOL     OW95915   3.918   7.583  13.435
64673SOL    HW195916   3.855   7.651  13.410
64673SOL    HW295917   3.979   7.628  13.494
64674SOL     OW95918   0.832  11.092   7.650
64674SOL    HW195919   0.791  11.177   7.662
64674SOL    HW295920   0.818  11.071   7.558
64675SOL     OW95921   4.409   4.369   4.700
64675SOL    HW195922   4.458   4.451   4.709
64675SOL    HW295923   4.463   4.315   4.642
64676SOL     OW95924   0.699   1.991  14.604
64676SOL    HW195925   0.794   1.985  14.617
64676SOL    HW295926   0.683   1.942  14.523
64677SOL     OW95927  10.298   4.892   6.596
64677SOL    HW195928  10.318   4.984   6.614
64677SOL    HW295929  10.379   4.858   6.558
64678SOL     OW95930   6.519   8.938   1.901
64678SOL    HW195931   6.439   8.884   1.904
64678SOL    HW295932   6.488   9.025   1.877
64679SOL     OW95933   1.262   1.720   6.773
64679SOL    HW195934   1.226   1.637   6.804
64679SOL    HW295935   1.344   1.696   6.730
64680SOL     OW95936   6.279   4.573   7.509
64680SOL    HW195937   6.306   4.547   7.597
64680SOL    HW295938   6.298   4.667   7.505
64681SOL     OW95939  14.203   0.881   3.929
64681SOL    HW195940  14.151   0.927   3.995
64681SOL    HW295941  14.240   0.807   3.977
64682SOL     OW95942  13.466   6.987  14.616
64682SOL    HW195943  13.398   6.957  14.676
64682SOL    HW295944  13.500   7.066  14.656
64683SOL     OW95945  14.237  13.963   6.176
64683SOL    HW195946  14.180  14.004   6.241
64683SOL    HW295947  14.316  13.940   6.226
64684SOL     OW95948  10.115  10.412   9.131
64684SOL    HW195949  10.048  10.464   9.086
64684SOL    HW295950  10.091  10.321   9.112
64685SOL     OW95951  11.857   3.879   9.352
64685SOL    HW195952  11.915   3.803   9.354
64685SOL    HW295953  11.878   3.924   9.271
64686SOL     OW95954   5.418  11.393   0.867
64686SOL    HW195955   5.448  11.465   0.922
64686SOL    HW295956   5.322  11.394   0.876
64687SOL     OW95957   1.286  10.477   9.184
64687SOL    HW195958   1.211  10.504   9.132
64687SOL    HW295959   1.257  10.397   9.228
64688SOL     OW95960  13.944   5.950   9.404
64688SOL    HW195961  13.984   5.864   9.411
64688SOL    HW295962  14.013   6.005   9.366
64689SOL     OW95963   9.427  10.252  10.438
64689SOL    HW195964   9.436  10.325  10.377
64689SOL    HW295965   9.511  10.207  10.434
64690SOL     OW95966  12.563   6.676  12.723
64690SOL    HW195967  12.588   6.722  12.643
64690SOL    HW295968  12.519   6.743  12.776
64691SOL     OW95969   2.373   0.788   3.276
64691SOL    HW195970   2.394   0.695   3.278
64691SOL    HW295971   2.442   0.829   3.328
64692SOL     OW95972   7.278   8.839   0.438
64692SOL    HW195973   7.285   8.932   0.458
64692SOL    HW295974   7.319   8.829   0.352
64693SOL     OW95975   6.068   2.679   0.971
64693SOL    HW195976   6.110   2.687   0.885
64693SOL    HW295977   6.137   2.696   1.034
64694SOL     OW95978  12.885   8.537  11.082
64694SOL    HW195979  12.802   8.581  11.103
64694SOL    HW295980  12.860   8.469  11.019
64695SOL     OW95981  13.666   7.966  12.324
64695SOL    HW195982  13.747   8.009  12.297
64695SOL    HW295983  13.597   8.009  12.273
64696SOL     OW95984  11.760   2.911   8.468
64696SOL    HW195985  11.764   2.853   8.544
64696SOL    HW295986  11.761   2.852   8.393
64697SOL     OW95987   1.727   5.579   3.074
64697SOL    HW195988   1.738   5.588   2.979
64697SOL    HW295989   1.816   5.579   3.109
64698SOL     OW95990   9.114   7.184   9.397
64698SOL    HW195991   9.028   7.142   9.398
64698SOL    HW295992   9.147   7.169   9.308
64699SOL     OW95993   9.970   3.878   0.513
64699SOL    HW195994   9.951   3.874   0.607
64699SOL    HW295995   9.947   3.967   0.487
64700SOL     OW95996   4.218   1.193  13.942
64700SOL    HW195997   4.153   1.124  13.927
64700SOL    HW295998   4.213   1.211  14.036
64701SOL     OW95999   0.877   4.716   1.417
64701SOL    HW196000   0.866   4.658   1.342
64701SOL    HW296001   0.823   4.793   1.397
64702SOL     OW96002   4.280   1.335   1.874
64702SOL    HW196003   4.341   1.384   1.819
64702SOL    HW296004   4.201   1.389   1.877
64703SOL     OW96005   5.686   5.480   6.071
64703SOL    HW196006   5.613   5.520   6.023
64703SOL    HW296007   5.650   5.399   6.107
64704SOL     OW96008   2.508   8.773   4.605
64704SOL    HW196009   2.415   8.754   4.615
64704SOL    HW296010   2.529   8.829   4.679
64705SOL     OW96011  10.079  14.767   0.732
64705SOL    HW196012  10.118  14.758   0.644
64705SOL    HW296013  10.132  14.835   0.774
64706SOL     OW96014  14.644   0.676   2.106
64706SOL    HW196015  14.676   0.766   2.101
64706SOL    HW296016  14.716   0.626   2.144
64707SOL     OW96017   2.768  12.350   5.582
64707SOL    HW196018   2.766  12.254   5.591
64707SOL    HW296019   2.797  12.366   5.493
64708SOL     OW96020   3.580  11.532  12.006
64708SOL    HW196021   3.614  11.443  12.014
64708SOL    HW296022   3.628  11.569  11.932
64709SOL     OW96023   4.165   7.300  10.908
64709SOL    HW196024   4.225   7.258  10.969
64709SOL    HW296025   4.097   7.235  10.891
64710SOL     OW96026   7.255   1.090   3.817
64710SOL    HW196027   7.305   1.169   3.837
64710SOL    HW296028   7.237   1.051   3.903
64711SOL     OW96029   1.020   6.524   4.788
64711SOL    HW196030   1.095   6.558   4.837
64711SOL    HW296031   0.948   6.522   4.852
64712SOL     OW96032  12.762   1.265  10.252
64712SOL    HW196033  12.723   1.206  10.188
64712SOL    HW296034  12.698   1.335  10.262
64713SOL     OW96035   1.921  11.345   1.865
64713SOL    HW196036   2.010  11.362   1.835
64713SOL    HW296037   1.884  11.431   1.881
64714SOL     OW96038   5.651   2.359   3.029
64714SOL    HW196039   5.672   2.366   2.936
64714SOL    HW296040   5.669   2.446   3.064
64715SOL     OW96041  10.708   7.307  12.684
64715SOL    HW196042  10.665   7.226  12.712
64715SOL    HW296043  10.752   7.339  12.762
64716SOL     OW96044   4.411  12.280   8.980
64716SOL    HW196045   4.420  12.327   9.063
64716SOL    HW296046   4.498  12.282   8.941
64717SOL     OW96047  10.455   2.514  13.158
64717SOL    HW196048  10.414   2.548  13.078
64717SOL    HW296049  10.501   2.436  13.130
64718SOL     OW96050   6.459   3.246   9.984
64718SOL    HW196051   6.528   3.185  10.012
64718SOL    HW296052   6.500   3.332   9.991
64719SOL     OW96053   8.248  13.946   1.201
64719SOL    HW196054   8.265  13.958   1.294
64719SOL    HW296055   8.332  13.964   1.159
64720SOL     OW96056   1.309  11.177   9.137
64720SOL    HW196057   1.307  11.095   9.187
64720SOL    HW296058   1.401  11.190   9.116
64721SOL     OW96059   5.543  10.876   6.656
64721SOL    HW196060   5.516  10.963   6.687
64721SOL    HW296061   5.495  10.815   6.713
64722SOL     OW96062  10.723  12.077  11.054
64722SOL    HW196063  10.673  12.130  10.992
64722SOL    HW296064  10.676  11.993  11.058
64723SOL     OW96065   7.805  11.936   4.184
64723SOL    HW196066   7.891  11.901   4.209
64723SOL    HW296067   7.767  11.869   4.127
64724SOL     OW96068   3.982  11.681   3.448
64724SOL    HW196069   4.019  11.637   3.372
64724SOL    HW296070   4.059  11.709   3.499
64725SOL     OW96071   9.150  10.523   9.678
64725SOL    HW196072   9.216  10.526   9.609
64725SOL    HW296073   9.082  10.465   9.644
64726SOL     OW96074   3.587   2.903  11.003
64726SOL    HW196075   3.642   2.884  10.928
64726SOL    HW296076   3.573   2.997  11.000
64727SOL     OW96077  13.131   4.877   4.845
64727SOL    HW196078  13.148   4.905   4.935
64727SOL    HW296079  13.053   4.823   4.851
64728SOL     OW96080   2.642   4.933  13.560
64728SOL    HW196081   2.547   4.946  13.562
64728SOL    HW296082   2.655   4.862  13.498
64729SOL     OW96083   6.483  10.840   1.746
64729SOL    HW196084   6.441  10.772   1.800
64729SOL    HW296085   6.554  10.794   1.701
64730SOL     OW96086   8.158   9.874   1.852
64730SOL    HW196087   8.087   9.812   1.834
64730SOL    HW296088   8.238   9.824   1.839
64731SOL     OW96089   8.062  10.293  14.327
64731SOL    HW196090   7.987  10.241  14.356
64731SOL    HW296091   8.102  10.241  14.257
64732SOL     OW96092  13.306   2.858   0.351
64732SOL    HW196093  13.297   2.875   0.257
64732SOL    HW296094  13.363   2.781   0.356
64733SOL     OW96095  14.265   9.413   6.769
64733SOL    HW196096  14.213   9.416   6.850
64733SOL    HW296097  14.200   9.417   6.699
64734SOL     OW96098  14.715  12.206  11.675
64734SOL    HW196099  14.736  12.229  11.765
64734SOL    HW296100  14.789  12.153  11.646
64735SOL     OW96101   7.899   1.225   7.596
64735SOL    HW196102   7.821   1.251   7.547
64735SOL    HW296103   7.898   1.280   7.674
64736SOL     OW96104   0.854   4.244   5.313
64736SOL    HW196105   0.824   4.334   5.330
64736SOL    HW296106   0.887   4.213   5.397
64737SOL     OW96107  14.486   9.044   5.541
64737SOL    HW196108  14.442   8.959   5.534
64737SOL    HW296109  14.571   9.030   5.499
64738SOL     OW96110   3.864   8.761  11.227
64738SOL    HW196111   3.908   8.684  11.261
64738SOL    HW296112   3.935   8.823  11.208
64739SOL     OW96113   0.682  14.055   4.568
64739SOL    HW196114   0.763  14.015   4.599
64739SOL    HW296115   0.711  14.128   4.513
64740SOL     OW96116   2.821   7.342  14.836
64740SOL    HW196117   2.817   7.264   0.004
64740SOL    HW296118   2.860   7.409   0.004
64741SOL     OW96119  12.223   6.156   1.595
64741SOL    HW196120  12.305   6.147   1.546
64741SOL    HW296121  12.156   6.123   1.536
64742SOL     OW96122  10.338  14.453   8.807
64742SOL    HW196123  10.433  14.458   8.819
64742SOL    HW296124  10.322  14.365   8.773
64743SOL     OW96125  12.061   8.955  12.414
64743SOL    HW196126  11.975   8.929  12.446
64743SOL    HW296127  12.080   9.037  12.459
64744SOL     OW96128   1.514  10.901   6.979
64744SOL    HW196129   1.500  10.977   6.923
64744SOL    HW296130   1.581  10.929   7.042
64745SOL     OW96131  12.726  10.886   6.654
64745SOL    HW196132  12.821  10.896   6.665
64745SOL    HW296133  12.710  10.904   6.562
64746SOL     OW96134  13.455   3.692   9.638
64746SOL    HW196135  13.405   3.702   9.557
64746SOL    HW296136  13.529   3.751   9.628
64747SOL     OW96137  13.636   6.583   2.452
64747SOL    HW196138  13.559   6.616   2.498
64747SOL    HW296139  13.601   6.539   2.375
64748SOL     OW96140   5.850   5.889  14.068
64748SOL    HW196141   5.837   5.981  14.045
64748SOL    HW296142   5.761   5.855  14.080
64749SOL     OW96143  14.472   5.926   6.051
64749SOL    HW196144  14.500   5.998   5.995
64749SOL    HW296145  14.427   5.865   5.993
64750SOL     OW96146   3.474   8.998   9.117
64750SOL    HW196147   3.547   9.055   9.144
64750SOL    HW296148   3.456   8.944   9.194
64751SOL     OW96149  13.971   3.047  13.207
64751SOL    HW196150  13.950   2.989  13.133
64751SOL    HW296151  13.925   3.128  13.187
64752SOL     OW96152  12.093   0.248   4.406
64752SOL    HW196153  12.097   0.317   4.471
64752SOL    HW296154  12.015   0.267   4.354
64753SOL     OW96155  10.483  12.614   4.526
64753SOL    HW196156  10.513  12.644   4.611
64753SOL    HW296157  10.450  12.526   4.541
64754SOL     OW96158  14.128   8.914   1.080
64754SOL    HW196159  14.193   8.943   1.144
64754SOL    HW296160  14.046   8.912   1.130
64755SOL     OW96161   6.772   7.909   7.958
64755SOL    HW196162   6.786   7.989   8.009
64755SOL    HW296163   6.693   7.927   7.907
64756SOL     OW96164   4.989   1.182   1.498
64756SOL    HW196165   4.976   1.234   1.577
64756SOL    HW296166   4.938   1.229   1.431
64757SOL     OW96167   5.145  12.514   3.933
64757SOL    HW196168   5.241  12.513   3.936
64757SOL    HW296169   5.124  12.581   3.868
64758SOL     OW96170   5.375   7.993   6.244
64758SOL    HW196171   5.324   7.970   6.166
64758SOL    HW296172   5.310   8.001   6.314
64759SOL     OW96173   0.372   4.724   3.704
64759SOL    HW196174   0.408   4.732   3.792
64759SOL    HW296175   0.448   4.704   3.649
64760SOL     OW96176   8.755   5.953   7.963
64760SOL    HW196177   8.728   6.004   7.887
64760SOL    HW296178   8.743   6.012   8.038
64761SOL     OW96179  14.331   2.524   5.283
64761SOL    HW196180  14.267   2.544   5.351
64761SOL    HW296181  14.415   2.523   5.328
64762SOL     OW96182   9.077   7.740  12.467
64762SOL    HW196183   9.124   7.659  12.488
64762SOL    HW296184   9.046   7.772  12.551
64763SOL     OW96185   1.724   8.126   4.690
64763SOL    HW196186   1.726   8.033   4.713
64763SOL    HW296187   1.642   8.158   4.726
64764SOL     OW96188   1.329   6.580   3.476
64764SOL    HW196189   1.383   6.535   3.541
64764SOL    HW296190   1.251   6.526   3.469
64765SOL     OW96191   8.758   5.023   2.498
64765SOL    HW196192   8.710   5.106   2.500
64765SOL    HW296193   8.846   5.046   2.468
64766SOL     OW96194  14.822   4.532   0.783
64766SOL    HW196195  14.837   4.615   0.827
64766SOL    HW296196  14.766   4.554   0.708
64767SOL     OW96197   5.996   2.428   0.795
64767SOL    HW196198   6.022   2.509   0.839
64767SOL    HW296199   6.073   2.401   0.746
64768SOL     OW96200   7.922   0.152  11.350
64768SOL    HW196201   7.894   0.224  11.407
64768SOL    HW296202   7.869   0.163  11.271
64769SOL     OW96203  11.005  10.807   6.874
64769SOL    HW196204  10.910  10.814   6.878
64769SOL    HW296205  11.025  10.812   6.780
64770SOL     OW96206   1.849   5.623   3.471
64770SOL    HW196207   1.858   5.535   3.433
64770SOL    HW296208   1.768   5.619   3.522
64771SOL     OW96209   6.973  12.102  10.072
64771SOL    HW196210   6.995  12.123   9.982
64771SOL    HW296211   6.878  12.115  10.077
64772SOL     OW96212  11.379  12.231   2.000
64772SOL    HW196213  11.444  12.163   1.985
64772SOL    HW296214  11.383  12.286   1.922
64773SOL     OW96215   5.579   0.245   7.154
64773SOL    HW196216   5.631   0.315   7.114
64773SOL    HW296217   5.501   0.289   7.189
64774SOL     OW96218  10.603   7.607  12.214
64774SOL    HW196219  10.637   7.688  12.252
64774SOL    HW296220  10.540   7.574  12.278
64775SOL     OW96221   4.758   4.171  13.586
64775SOL    HW196222   4.807   4.093  13.559
64775SOL    HW296223   4.669   4.139  13.602
64776SOL     OW96224   0.746   2.028   2.135
64776SOL    HW196225   0.750   2.109   2.187
64776SOL    HW296226   0.652   2.010   2.128
64777SOL     OW96227   5.251  13.499   4.626
64777SOL    HW196228   5.200  13.428   4.664
64777SOL    HW296229   5.187  13.559   4.589
64778SOL     OW96230  13.526  13.972  14.733
64778SOL    HW196231  13.560  14.056  14.704
64778SOL    HW296232  13.442  13.994  14.775
64779SOL     OW96233   7.296   0.360   9.322
64779SOL    HW196234   7.365   0.405   9.370
64779SOL    HW296235   7.221   0.359   9.381
64780SOL     OW96236  14.814  12.603   2.725
64780SOL    HW196237  14.741  12.664   2.738
64780SOL    HW296238  14.779  12.537   2.665
64781SOL     OW96239   9.372   3.990  12.134
64781SOL    HW196240   9.294   3.992  12.079
64781SOL    HW296241   9.438   4.036  12.084
64782SOL     OW96242  12.430   1.829   7.510
64782SOL    HW196243  12.352   1.884   7.505
64782SOL    HW296244  12.400   1.748   7.552
64783SOL     OW96245   9.392   4.043   1.674
64783SOL    HW196246   9.469   3.988   1.692
64783SOL    HW296247   9.407   4.122   1.725
64784SOL     OW96248   9.413   1.240   3.468
64784SOL    HW196249   9.349   1.310   3.454
64784SOL    HW296250   9.485   1.262   3.408
64785SOL     OW96251   6.074   7.066   2.184
64785SOL    HW196252   6.062   7.016   2.103
64785SOL    HW296253   5.986   7.094   2.208
64786SOL     OW96254   7.580   7.151   6.773
64786SOL    HW196255   7.596   7.064   6.809
64786SOL    HW296256   7.508   7.186   6.826
64787SOL     OW96257   1.369   4.320   5.088
64787SOL    HW196258   1.369   4.376   5.166
64787SOL    HW296259   1.432   4.362   5.029
64788SOL     OW96260  12.052   4.203   9.552
64788SOL    HW196261  12.048   4.295   9.577
64788SOL    HW296262  12.117   4.165   9.610
64789SOL     OW96263  13.312  14.678   1.217
64789SOL    HW196264  13.259  14.608   1.178
64789SOL    HW296265  13.353  14.639   1.293
64790SOL     OW96266  13.846   7.581   9.778
64790SOL    HW196267  13.932   7.622   9.787
64790SOL    HW296268  13.861   7.508   9.719
64791SOL     OW96269   2.906   3.008   7.901
64791SOL    HW196270   2.831   2.970   7.947
64791SOL    HW296271   2.953   2.933   7.865
64792SOL     OW96272   2.189   1.300   1.256
64792SOL    HW196273   2.128   1.228   1.274
64792SOL    HW296274   2.276   1.262   1.271
64793SOL     OW96275   6.992  12.072   0.195
64793SOL    HW196276   6.966  12.016   0.122
64793SOL    HW296277   7.019  12.154   0.153
64794SOL     OW96278   7.371   2.727  13.880
64794SOL    HW196279   7.349   2.637  13.903
64794SOL    HW296280   7.436   2.718  13.810
64795SOL     OW96281   5.938   9.326   6.604
64795SOL    HW196282   5.916   9.236   6.628
64795SOL    HW296283   5.998   9.317   6.530
64796SOL     OW96284  14.381  10.603   5.736
64796SOL    HW196285  14.436  10.532   5.702
64796SOL    HW296286  14.362  10.577   5.826
64797SOL     OW96287   2.722  11.064  11.027
64797SOL    HW196288   2.804  11.114  11.021
64797SOL    HW296289   2.723  11.008  10.950
64798SOL     OW96290  14.504  11.646   0.444
64798SOL    HW196291  14.594  11.665   0.420
64798SOL    HW296292  14.485  11.561   0.403
64799SOL     OW96293   3.573  11.404   0.414
64799SOL    HW196294   3.513  11.431   0.483
64799SOL    HW296295   3.568  11.473   0.348
64800SOL     OW96296   3.293   0.281   3.898
64800SOL    HW196297   3.198   0.289   3.900
64800SOL    HW296298   3.324   0.352   3.955
64801SOL     OW96299  11.535   3.165  12.654
64801SOL    HW196300  11.599   3.120  12.600
64801SOL    HW296301  11.544   3.125  12.741
64802SOL     OW96302  10.012   5.276  11.558
64802SOL    HW196303  10.014   5.280  11.462
64802SOL    HW296304  10.088   5.224  11.581
64803SOL     OW96305   9.484   8.507   8.703
64803SOL    HW196306   9.541   8.432   8.686
64803SOL    HW296307   9.494   8.563   8.626
64804SOL     OW96308   3.181   3.043   3.827
64804SOL    HW196309   3.189   3.105   3.755
64804SOL    HW296310   3.176   2.957   3.785
64805SOL     OW96311  12.544  12.008   3.345
64805SOL    HW196312  12.462  12.057   3.348
64805SOL    HW296313  12.612  12.075   3.346
64806SOL     OW96314  12.401  10.718   9.035
64806SOL    HW196315  12.489  10.696   9.066
64806SOL    HW296316  12.411  10.805   8.995
64807SOL     OW96317  13.037  10.856  10.922
64807SOL    HW196318  13.103  10.835  10.987
64807SOL    HW296319  12.972  10.907  10.970
64808SOL     OW96320  11.274   0.101   8.521
64808SOL    HW196321  11.179   0.112   8.519
64808SOL    HW296322  11.307   0.175   8.471
64809SOL     OW96323  13.728  11.451   1.759
64809SOL    HW196324  13.773  11.514   1.815
64809SOL    HW296325  13.799  11.399   1.720
64810SOL     OW96326   6.041   6.998   6.760
64810SOL    HW196327   6.047   6.967   6.850
64810SOL    HW296328   6.052   7.093   6.766
64811SOL     OW96329  13.708   1.580  13.461
64811SOL    HW196330  13.616   1.575  13.487
64811SOL    HW296331  13.727   1.493  13.424
64812SOL     OW96332   8.974   2.096  10.844
64812SOL    HW196333   8.896   2.124  10.892
64812SOL    HW296334   9.045   2.107  10.906
64813SOL     OW96335   4.508   2.449   5.364
64813SOL    HW196336   4.420   2.421   5.342
64813SOL    HW296337   4.517   2.430   5.458
64814SOL     OW96338   4.798   2.809   6.991
64814SOL    HW196339   4.734   2.858   6.939
64814SOL    HW296340   4.874   2.867   6.997
64815SOL     OW96341   9.595  12.782  10.835
64815SOL    HW196342   9.531  12.723  10.795
64815SOL    HW296343   9.665  12.789  10.770
64816SOL     OW96344  13.630  14.612   3.432
64816SOL    HW196345  13.573  14.557   3.378
64816SOL    HW296346  13.646  14.560   3.510
64817SOL     OW96347  13.787   5.892   5.679
64817SOL    HW196348  13.808   5.963   5.618
64817SOL    HW296349  13.708   5.923   5.725
64818SOL     OW96350   8.978   8.965   4.243
64818SOL    HW196351   8.932   8.970   4.159
64818SOL    HW296352   8.956   9.047   4.287
64819SOL     OW96353  13.403   3.371   8.765
64819SOL    HW196354  13.393   3.363   8.671
64819SOL    HW296355  13.490   3.409   8.777
64820SOL     OW96356   4.574  11.927   4.519
64820SOL    HW196357   4.596  11.965   4.604
64820SOL    HW296358   4.627  11.847   4.514
64821SOL     OW96359   2.765  13.496  11.892
64821SOL    HW196360   2.787  13.532  11.978
64821SOL    HW296361   2.831  13.429  11.877
64822SOL     OW96362   7.232   7.616  10.381
64822SOL    HW196363   7.137   7.626  10.378
64822SOL    HW296364   7.253   7.623  10.474
64823SOL     OW96365  10.687   9.614  10.965
64823SOL    HW196366  10.638   9.628  11.046
64823SOL    HW296367  10.691   9.700  10.924
64824SOL     OW96368  10.105   0.884   7.956
64824SOL    HW196369  10.016   0.911   7.981
64824SOL    HW296370  10.147   0.861   8.039
64825SOL     OW96371  10.404   9.801   7.697
64825SOL    HW196372  10.447   9.833   7.618
64825SOL    HW296373  10.429   9.863   7.765
64826SOL     OW96374   7.987  12.194   1.586
64826SOL    HW196375   8.082  12.199   1.598
64826SOL    HW296376   7.953  12.163   1.670
64827SOL     OW96377   9.928  13.065   5.735
64827SOL    HW196378   9.887  13.129   5.677
64827SOL    HW296379   9.962  13.118   5.808
64828SOL     OW96380   3.183   0.450  10.754
64828SOL    HW196381   3.183   0.359  10.783
64828SOL    HW296382   3.249   0.452  10.684
64829SOL     OW96383   8.564   0.093  12.861
64829SOL    HW196384   8.639   0.097  12.920
64829SOL    HW296385   8.600   0.117  12.775
64830SOL     OW96386   4.033  11.206   3.335
64830SOL    HW196387   4.087  11.186   3.412
64830SOL    HW296388   4.090  11.190   3.261
64831SOL     OW96389  14.560   2.604  10.016
64831SOL    HW196390  14.626   2.542  10.047
64831SOL    HW296391  14.532   2.650  10.095
64832SOL     OW96392   1.368   2.987   3.795
64832SOL    HW196393   1.444   2.948   3.837
64832SOL    HW296394   1.311   2.912   3.775
64833SOL     OW96395   3.747   0.673   5.540
64833SOL    HW196396   3.789   0.587   5.542
64833SOL    HW296397   3.793   0.724   5.606
64834SOL     OW96398   0.540  13.704  12.798
64834SOL    HW196399   0.497  13.785  12.824
64834SOL    HW296400   0.495  13.677  12.718
64835SOL     OW96401   2.209   8.728   3.446
64835SOL    HW196402   2.300   8.700   3.435
64835SOL    HW296403   2.160   8.646   3.454
64836SOL     OW96404   8.875  10.962  11.166
64836SOL    HW196405   8.859  10.925  11.253
64836SOL    HW296406   8.960  10.927  11.140
64837SOL     OW96407   1.512   2.596  10.474
64837SOL    HW196408   1.461   2.518  10.497
64837SOL    HW296409   1.493   2.610  10.381
64838SOL     OW96410   3.350   0.574  13.315
64838SOL    HW196411   3.311   0.487  13.314
64838SOL    HW296412   3.294   0.625  13.373
64839SOL     OW96413  10.323   8.141  11.660
64839SOL    HW196414  10.397   8.159  11.602
64839SOL    HW296415  10.354   8.070  11.718
64840SOL     OW96416  12.392   1.271   6.810
64840SOL    HW196417  12.461   1.240   6.751
64840SOL    HW296418  12.310   1.256   6.761
64841SOL     OW96419   1.378   5.310   4.058
64841SOL    HW196420   1.334   5.235   4.098
64841SOL    HW296421   1.443   5.337   4.123
64842SOL     OW96422   0.103   1.768   0.026
64842SOL    HW196423   0.171   1.828   0.056
64842SOL    HW296424   0.075   1.803  14.829
64843SOL     OW96425  11.227  12.553   3.537
64843SOL    HW196426  11.238  12.577   3.445
64843SOL    HW296427  11.279  12.617   3.585
64844SOL     OW96428   5.167  10.964   4.923
64844SOL    HW196429   5.247  11.017   4.930
64844SOL    HW296430   5.199  10.875   4.910
64845SOL     OW96431   4.693   1.193  10.191
64845SOL    HW196432   4.729   1.196  10.280
64845SOL    HW296433   4.669   1.102  10.178
64846SOL     OW96434  10.197  13.400   6.113
64846SOL    HW196435  10.202  13.367   6.203
64846SOL    HW296436  10.217  13.494   6.121
64847SOL     OW96437   2.953   0.840   5.225
64847SOL    HW196438   3.034   0.846   5.275
64847SOL    HW296439   2.980   0.844   5.134
64848SOL     OW96440   9.996  14.113   3.082
64848SOL    HW196441   9.958  14.192   3.122
64848SOL    HW296442  10.025  14.060   3.157
64849SOL     OW96443  12.068   4.490  14.501
64849SOL    HW196444  12.163   4.487  14.488
64849SOL    HW296445  12.046   4.583  14.489
64850SOL     OW96446   8.956   3.068   5.868
64850SOL    HW196447   9.048   3.087   5.848
64850SOL    HW296448   8.910   3.151   5.854
64851SOL     OW96449   5.610  11.422  11.441
64851SOL    HW196450   5.565  11.401  11.359
64851SOL    HW296451   5.686  11.474  11.415
64852SOL     OW96452   8.989  13.227   4.302
64852SOL    HW196453   8.969  13.297   4.364
64852SOL    HW296454   9.012  13.272   4.221
64853SOL     OW96455   5.737   8.250   0.533
64853SOL    HW196456   5.666   8.185   0.531
64853SOL    HW296457   5.734   8.285   0.623
64854SOL     OW96458   6.470  10.562   2.923
64854SOL    HW196459   6.405  10.619   2.882
64854SOL    HW296460   6.437  10.550   3.012
64855SOL     OW96461   1.762   5.173   5.130
64855SOL    HW196462   1.694   5.218   5.179
64855SOL    HW296463   1.726   5.163   5.042
64856SOL     OW96464   0.868   4.804   2.752
64856SOL    HW196465   0.961   4.800   2.733
64856SOL    HW296466   0.848   4.722   2.797
64857SOL     OW96467   9.243   4.710  14.887
64857SOL    HW196468   9.217   4.787   0.050
64857SOL    HW296469   9.161   4.669  14.861
64858SOL     OW96470  11.294   6.725   3.258
64858SOL    HW196471  11.354   6.785   3.213
64858SOL    HW296472  11.238   6.782   3.310
64859SOL     OW96473   6.856   4.362   8.612
64859SOL    HW196474   6.767   4.385   8.586
64859SOL    HW296475   6.900   4.339   8.530
64860SOL     OW96476   8.076   4.349   5.979
64860SOL    HW196477   8.150   4.339   5.919
64860SOL    HW296478   8.108   4.410   6.046
64861SOL     OW96479   6.098   1.175   5.526
64861SOL    HW196480   6.067   1.215   5.608
64861SOL    HW296481   6.108   1.249   5.466
64862SOL     OW96482   4.513   8.503   3.672
64862SOL    HW196483   4.548   8.483   3.759
64862SOL    HW296484   4.588   8.534   3.622
64863SOL     OW96485  11.491   6.791   6.406
64863SOL    HW196486  11.450   6.705   6.415
64863SOL    HW296487  11.428   6.843   6.355
64864SOL     OW96488   5.814  14.499  10.406
64864SOL    HW196489   5.726  14.517  10.373
64864SOL    HW296490   5.832  14.409  10.379
64865SOL     OW96491   1.654  10.425   8.080
64865SOL    HW196492   1.684  10.380   8.000
64865SOL    HW296493   1.562  10.444   8.063
64866SOL     OW96494   2.910  10.015  14.243
64866SOL    HW196495   2.978   9.965  14.290
64866SOL    HW296496   2.960  10.074  14.186
64867SOL     OW96497   2.607   5.900   1.142
64867SOL    HW196498   2.517   5.875   1.120
64867SOL    HW296499   2.605   5.995   1.147
64868SOL     OW96500   3.984   3.556   0.374
64868SOL    HW196501   4.078   3.547   0.359
64868SOL    HW296502   3.973   3.539   0.468
64869SOL     OW96503  12.637  10.379   2.624
64869SOL    HW196504  12.679  10.308   2.674
64869SOL    HW296505  12.708  10.416   2.572
64870SOL     OW96506  11.831   9.890   5.344
64870SOL    HW196507  11.854   9.954   5.410
64870SOL    HW296508  11.915   9.857   5.312
64871SOL     OW96509   2.284  14.544   4.258
64871SOL    HW196510   2.262  14.500   4.176
64871SOL    HW296511   2.200  14.565   4.298
64872SOL     OW96512   1.210   4.319   6.195
64872SOL    HW196513   1.237   4.382   6.261
64872SOL    HW296514   1.189   4.239   6.244
64873SOL     OW96515   7.940  10.328   3.382
64873SOL    HW196516   7.852  10.303   3.353
64873SOL    HW296517   7.990  10.338   3.302
64874SOL     OW96518   5.278  10.790  10.190
64874SOL    HW196519   5.216  10.743  10.245
64874SOL    HW296520   5.358  10.738  10.193
64875SOL     OW96521   8.269   4.362   5.785
64875SOL    HW196522   8.269   4.297   5.715
64875SOL    HW296523   8.345   4.416   5.767
64876SOL     OW96524   7.201  12.829   1.801
64876SOL    HW196525   7.130  12.872   1.753
64876SOL    HW296526   7.203  12.741   1.765
64877SOL     OW96527   5.479   5.199  13.490
64877SOL    HW196528   5.416   5.153  13.435
64877SOL    HW296529   5.564   5.180  13.449
64878SOL     OW96530   6.584   7.943  13.105
64878SOL    HW196531   6.548   7.859  13.078
64878SOL    HW296532   6.645   7.923  13.175
64879SOL     OW96533   3.925   1.309  14.632
64879SOL    HW196534   3.965   1.350  14.709
64879SOL    HW296535   3.846   1.267  14.665
64880SOL     OW96536   3.165   7.506  10.171
64880SOL    HW196537   3.145   7.546  10.086
64880SOL    HW296538   3.206   7.422  10.149
64881SOL     OW96539  10.337  14.409   2.118
64881SOL    HW196540  10.298  14.367   2.041
64881SOL    HW296541  10.355  14.338   2.179
64882SOL     OW96542  10.946   9.580   5.152
64882SOL    HW196543  11.022   9.535   5.189
64882SOL    HW296544  10.910   9.631   5.224
64883SOL     OW96545   1.116   8.252   6.914
64883SOL    HW196546   1.153   8.165   6.929
64883SOL    HW296547   1.165   8.286   6.839
64884SOL     OW96548   4.279   2.374   9.221
64884SOL    HW196549   4.314   2.443   9.165
64884SOL    HW296550   4.353   2.343   9.272
64885SOL     OW96551   8.664  10.920  13.610
64885SOL    HW196552   8.613  10.908  13.530
64885SOL    HW296553   8.656  11.013  13.630
64886SOL     OW96554  13.317   5.245  12.709
64886SOL    HW196555  13.280   5.188  12.642
64886SOL    HW296556  13.349   5.186  12.776
64887SOL     OW96557   9.286  14.727   8.309
64887SOL    HW196558   9.240  14.762   8.234
64887SOL    HW296559   9.377  14.718   8.280
64888SOL     OW96560   3.428  10.527  11.011
64888SOL    HW196561   3.484  10.593  11.050
64888SOL    HW296562   3.479  10.446  11.017
64889SOL     OW96563   7.214   7.989   5.556
64889SOL    HW196564   7.217   8.015   5.648
64889SOL    HW296565   7.201   7.894   5.558
64890SOL     OW96566   8.151   3.130  13.046
64890SOL    HW196567   8.146   3.064  12.977
64890SOL    HW296568   8.244   3.135  13.068
64891SOL     OW96569  13.292   7.023  12.727
64891SOL    HW196570  13.353   6.971  12.781
64891SOL    HW296571  13.329   7.111  12.728
64892SOL     OW96572   5.606  14.269  10.018
64892SOL    HW196573   5.628  14.199   9.957
64892SOL    HW296574   5.591  14.346   9.962
64893SOL     OW96575   0.686   0.068   4.383
64893SOL    HW196576   0.677   0.108   4.297
64893SOL    HW296577   0.599   0.077   4.423
64894SOL     OW96578   5.266  10.201   5.331
64894SOL    HW196579   5.243  10.275   5.386
64894SOL    HW296580   5.238  10.226   5.243
64895SOL     OW96581   5.231   7.107   4.638
64895SOL    HW196582   5.252   7.199   4.623
64895SOL    HW296583   5.158   7.109   4.700
64896SOL     OW96584  12.129   1.641   5.270
64896SOL    HW196585  12.111   1.729   5.304
64896SOL    HW296586  12.147   1.588   5.347
64897SOL     OW96587   6.194   7.771  13.421
64897SOL    HW196588   6.227   7.780  13.510
64897SOL    HW296589   6.224   7.685  13.393
64898SOL     OW96590   4.222   1.352   6.978
64898SOL    HW196591   4.201   1.402   7.057
64898SOL    HW296592   4.275   1.278   7.010
64899SOL     OW96593   4.344  14.570   0.820
64899SOL    HW196594   4.393  14.557   0.739
64899SOL    HW296595   4.312  14.660   0.814
64900SOL     OW96596   7.683  11.209   7.756
64900SOL    HW196597   7.672  11.299   7.726
64900SOL    HW296598   7.658  11.155   7.681
64901SOL     OW96599  12.389   9.586   6.468
64901SOL    HW196600  12.468   9.544   6.433
64901SOL    HW296601  12.386   9.671   6.424
64902SOL     OW96602   2.269   1.289  14.629
64902SOL    HW196603   2.340   1.336  14.673
64902SOL    HW296604   2.311   1.210  14.595
64903SOL     OW96605   8.168   7.604   9.727
64903SOL    HW196606   8.114   7.676   9.695
64903SOL    HW296607   8.179   7.546   9.652
64904SOL     OW96608   8.070  11.792   9.473
64904SOL    HW196609   8.144  11.849   9.493
64904SOL    HW296610   8.004  11.816   9.538
64905SOL     OW96611   8.458  10.943   6.352
64905SOL    HW196612   8.389  11.009   6.348
64905SOL    HW296613   8.469  10.926   6.446
64906SOL     OW96614   1.295   7.075  10.728
64906SOL    HW196615   1.302   7.015  10.654
64906SOL    HW296616   1.384   7.106  10.743
64907SOL     OW96617   3.501   9.679   0.955
64907SOL    HW196618   3.463   9.604   1.002
64907SOL    HW296619   3.458   9.679   0.870
64908SOL     OW96620   4.767  11.892   6.350
64908SOL    HW196621   4.805  11.832   6.286
64908SOL    HW296622   4.828  11.965   6.356
64909SOL     OW96623   2.016   2.726   2.874
64909SOL    HW196624   2.029   2.679   2.957
64909SOL    HW296625   2.105   2.743   2.842
64910SOL     OW96626   1.790   1.017   0.731
64910SOL    HW196627   1.802   1.095   0.677
64910SOL    HW296628   1.817   1.045   0.819
64911SOL     OW96629   5.876   4.764   4.156
64911SOL    HW196630   5.904   4.851   4.127
64911SOL    HW296631   5.793   4.749   4.110
64912SOL     OW96632  13.458   8.970  14.468
64912SOL    HW196633  13.454   9.026  14.391
64912SOL    HW296634  13.550   8.973  14.495
64913SOL     OW96635  12.621  12.618  12.526
64913SOL    HW196636  12.531  12.610  12.497
64913SOL    HW296637  12.659  12.532  12.509
64914SOL     OW96638   9.248   2.246  12.907
64914SOL    HW196639   9.231   2.340  12.917
64914SOL    HW296640   9.239   2.211  12.996
64915SOL     OW96641   3.601  11.522  11.520
64915SOL    HW196642   3.579  11.430  11.534
64915SOL    HW296643   3.668  11.542  11.585
64916SOL     OW96644  11.235   7.098   1.468
64916SOL    HW196645  11.314   7.145   1.494
64916SOL    HW296646  11.167   7.165   1.464
64917SOL     OW96647  12.144   2.275  12.250
64917SOL    HW196648  12.132   2.362  12.213
64917SOL    HW296649  12.188   2.290  12.334
64918SOL     OW96650   2.518   1.280   6.613
64918SOL    HW196651   2.575   1.248   6.683
64918SOL    HW296652   2.567   1.264   6.533
64919SOL     OW96653   3.124   1.412  13.068
64919SOL    HW196654   3.082   1.466  13.000
64919SOL    HW296655   3.211   1.392  13.033
64920SOL     OW96656  13.569  13.626   7.493
64920SOL    HW196657  13.490  13.594   7.450
64920SOL    HW296658  13.557  13.721   7.498
64921SOL     OW96659   1.445  14.218   6.324
64921SOL    HW196660   1.524  14.217   6.269
64921SOL    HW296661   1.470  14.272   6.399
64922SOL     OW96662   7.028  11.931  14.792
64922SOL    HW196663   6.972  11.861  14.825
64922SOL    HW296664   7.115  11.909  14.826
64923SOL     OW96665   3.872  12.004   5.301
64923SOL    HW196666   3.965  12.008   5.281
64923SOL    HW296667   3.856  12.081   5.357
64924SOL     OW96668   7.259   5.916   5.143
64924SOL    HW196669   7.275   5.827   5.111
64924SOL    HW296670   7.255   5.969   5.063
64925SOL     OW96671   6.715   3.706  12.660
64925SOL    HW196672   6.722   3.622  12.614
64925SOL    HW296673   6.768   3.767  12.608
64926SOL     OW96674   2.783   1.733  10.449
64926SOL    HW196675   2.876   1.744  10.470
64926SOL    HW296676   2.739   1.800  10.499
64927SOL     OW96677   1.397   2.758   0.206
64927SOL    HW196678   1.455   2.700   0.256
64927SOL    HW296679   1.423   2.846   0.232
64928SOL     OW96680   1.176  12.916   6.851
64928SOL    HW196681   1.240  12.848   6.831
64928SOL    HW296682   1.100  12.869   6.884
64929SOL     OW96683   1.557  12.879   7.365
64929SOL    HW196684   1.625  12.907   7.303
64929SOL    HW296685   1.481  12.932   7.342
64930SOL     OW96686   9.591   8.698   7.244
64930SOL    HW196687   9.541   8.642   7.185
64930SOL    HW296688   9.540   8.779   7.249
64931SOL     OW96689  11.328   3.744   3.804
64931SOL    HW196690  11.286   3.807   3.745
64931SOL    HW296691  11.388   3.796   3.857
64932SOL     OW96692   2.639   6.988  11.152
64932SOL    HW196693   2.613   6.935  11.227
64932SOL    HW296694   2.658   7.074  11.189
64933SOL     OW96695   6.967   6.248  13.087
64933SOL    HW196696   6.996   6.277  13.001
64933SOL    HW296697   6.893   6.305  13.108
64934SOL     OW96698   3.196  14.047   5.748
64934SOL    HW196699   3.126  14.070   5.686
64934SOL    HW296700   3.164  14.079   5.832
64935SOL     OW96701  14.481   7.140  10.678
64935SOL    HW196702  14.553   7.129  10.616
64935SOL    HW296703  14.490   7.067  10.739
64936SOL     OW96704  13.646   9.263   2.787
64936SOL    HW196705  13.680   9.339   2.740
64936SOL    HW296706  13.600   9.300   2.863
64937SOL     OW96707  11.114   6.293  13.461
64937SOL    HW196708  11.038   6.280  13.404
64937SOL    HW296709  11.083   6.354  13.528
64938SOL     OW96710  14.565  12.124   0.987
64938SOL    HW196711  14.551  12.218   0.983
64938SOL    HW296712  14.653  12.114   1.024
64939SOL     OW96713   9.118  11.479   8.879
64939SOL    HW196714   9.111  11.575   8.882
64939SOL    HW296715   9.093  11.456   8.790
64940SOL     OW96716   5.563   4.611   9.698
64940SOL    HW196717   5.539   4.677   9.764
64940SOL    HW296718   5.493   4.617   9.632
64941SOL     OW96719   3.485   5.025  14.343
64941SOL    HW196720   3.395   5.041  14.371
64941SOL    HW296721   3.498   5.084  14.270
64942SOL     OW96722   5.895   0.287  12.337
64942SOL    HW196723   5.942   0.268  12.418
64942SOL    HW296724   5.952   0.347  12.290
64943SOL     OW96725   3.611   1.185   8.227
64943SOL    HW196726   3.523   1.148   8.229
64943SOL    HW296727   3.639   1.176   8.135
64944SOL     OW96728   0.949  12.703   2.893
64944SOL    HW196729   0.957  12.765   2.821
64944SOL    HW296730   0.911  12.755   2.964
64945SOL     OW96731  14.247   3.290  10.191
64945SOL    HW196732  14.156   3.314  10.171
64945SOL    HW296733  14.241   3.217  10.252
64946SOL     OW96734  13.114   4.227  13.967
64946SOL    HW196735  13.176   4.298  13.950
64946SOL    HW296736  13.088   4.196  13.880
64947SOL     OW96737   1.750  12.262   6.310
64947SOL    HW196738   1.792  12.310   6.239
64947SOL    HW296739   1.699  12.193   6.267
64948SOL     OW96740   4.801   6.056   0.595
64948SOL    HW196741   4.814   6.151   0.600
64948SOL    HW296742   4.728   6.045   0.534
64949SOL     OW96743  11.072  11.249  12.735
64949SOL    HW196744  10.996  11.201  12.769
64949SOL    HW296745  11.063  11.244  12.640
64950SOL     OW96746  14.359  13.324   8.085
64950SOL    HW196747  14.391  13.410   8.110
64950SOL    HW296748  14.348  13.278   8.168
64951SOL     OW96749   4.214   5.637   1.338
64951SOL    HW196750   4.126   5.674   1.333
64951SOL    HW296751   4.215   5.567   1.273
64952SOL     OW96752   8.703  14.366  11.264
64952SOL    HW196753   8.771  14.418  11.221
64952SOL    HW296754   8.677  14.302  11.199
64953SOL     OW96755  13.650   2.642  11.367
64953SOL    HW196756  13.641   2.547  11.376
64953SOL    HW296757  13.708   2.668  11.438
64954SOL     OW96758  13.290  14.170  14.188
64954SOL    HW196759  13.317  14.078  14.192
64954SOL    HW296760  13.228  14.173  14.116
64955SOL     OW96761   1.169   2.839   1.862
64955SOL    HW196762   1.127   2.759   1.893
64955SOL    HW296763   1.194   2.886   1.942
64956SOL     OW96764  14.568  11.461   0.669
64956SOL    HW196765  14.547  11.463   0.575
64956SOL    HW296766  14.514  11.390   0.704
64957SOL     OW96767  13.514   9.717  13.004
64957SOL    HW196768  13.592   9.702  13.058
64957SOL    HW296769  13.463   9.636  13.015
64958SOL     OW96770   9.664   9.620  12.436
64958SOL    HW196771   9.673   9.528  12.462
64958SOL    HW296772   9.575   9.626  12.400
64959SOL     OW96773   7.655   5.138   5.217
64959SOL    HW196774   7.734   5.192   5.209
64959SOL    HW296775   7.688   5.048   5.214
64960SOL     OW96776  13.703   1.365  12.601
64960SOL    HW196777  13.680   1.361  12.508
64960SOL    HW296778  13.619   1.377  12.646
64961SOL     OW96779   0.981  11.941  10.479
64961SOL    HW196780   0.946  11.857  10.510
64961SOL    HW296781   0.963  11.942  10.386
64962SOL     OW96782   9.161   9.275  11.877
64962SOL    HW196783   9.173   9.262  11.783
64962SOL    HW296784   9.088   9.217  11.899
64963SOL     OW96785   2.778   9.041  10.807
64963SOL    HW196786   2.704   9.095  10.779
64963SOL    HW296787   2.745   8.951  10.801
64964SOL     OW96788  10.299  14.090   4.187
64964SOL    HW196789  10.275  14.004   4.151
64964SOL    HW296790  10.365  14.123   4.126
64965SOL     OW96791   4.556   4.513   5.175
64965SOL    HW196792   4.630   4.516   5.114
64965SOL    HW296793   4.585   4.453   5.244
64966SOL     OW96794   1.589   6.093  11.590
64966SOL    HW196795   1.679   6.060  11.582
64966SOL    HW296796   1.535   6.014  11.593
64967SOL     OW96797  11.615   4.660   0.958
64967SOL    HW196798  11.681   4.595   0.931
64967SOL    HW296799  11.534   4.610   0.964
64968SOL     OW96800   3.111   8.239   4.793
64968SOL    HW196801   3.020   8.263   4.808
64968SOL    HW296802   3.112   8.144   4.803
64969SOL     OW96803  13.470  13.874   7.514
64969SOL    HW196804  13.509  13.962   7.514
64969SOL    HW296805  13.396  13.882   7.454
64970SOL     OW96806   8.333   0.516   5.950
64970SOL    HW196807   8.280   0.562   6.015
64970SOL    HW296808   8.413   0.493   5.997
64971SOL     OW96809  14.660   8.387   6.240
64971SOL    HW196810  14.630   8.395   6.331
64971SOL    HW296811  14.754   8.369   6.247
64972SOL     OW96812   1.360   5.442   2.253
64972SOL    HW196813   1.275   5.466   2.290
64972SOL    HW296814   1.421   5.508   2.285
64973SOL     OW96815   9.091   6.711  12.261
64973SOL    HW196816   9.079   6.750  12.348
64973SOL    HW296817   9.140   6.777  12.212
64974SOL     OW96818   5.111   4.388  10.273
64974SOL    HW196819   5.156   4.350  10.349
64974SOL    HW296820   5.101   4.480  10.295
64975SOL     OW96821   3.136   9.960   2.993
64975SOL    HW196822   3.119   9.959   3.087
64975SOL    HW296823   3.216  10.012   2.984
64976SOL     OW96824  11.758   7.191  14.510
64976SOL    HW196825  11.711   7.170  14.429
64976SOL    HW296826  11.719   7.134  14.576
64977SOL     OW96827   4.476   7.951   4.856
64977SOL    HW196828   4.391   7.931   4.817
64977SOL    HW296829   4.540   7.921   4.790
64978SOL     OW96830  10.037  13.908   3.332
64978SOL    HW196831  10.040  13.813   3.328
64978SOL    HW296832   9.951  13.928   3.369
64979SOL     OW96833   1.765  12.108   9.545
64979SOL    HW196834   1.776  12.191   9.499
64979SOL    HW296835   1.714  12.053   9.486
64980SOL     OW96836  12.736   5.062   4.931
64980SOL    HW196837  12.802   5.098   4.871
64980SOL    HW296838  12.720   5.132   4.995
64981SOL     OW96839   9.179  12.789   9.287
64981SOL    HW196840   9.154  12.841   9.211
64981SOL    HW296841   9.273  12.777   9.279
64982SOL     OW96842   5.681   6.260   5.819
64982SOL    HW196843   5.599   6.259   5.770
64982SOL    HW296844   5.663   6.205   5.895
64983SOL     OW96845  10.867   8.408   2.299
64983SOL    HW196846  10.797   8.355   2.336
64983SOL    HW296847  10.946   8.357   2.313
64984SOL     OW96848   9.612  14.160   8.185
64984SOL    HW196849   9.649  14.094   8.244
64984SOL    HW296850   9.551  14.209   8.240
64985SOL     OW96851   1.968   3.777   1.474
64985SOL    HW196852   1.967   3.806   1.565
64985SOL    HW296853   2.028   3.702   1.474
64986SOL     OW96854   7.051   0.545  13.143
64986SOL    HW196855   7.030   0.546  13.237
64986SOL    HW296856   7.108   0.620  13.130
64987SOL     OW96857  11.997  10.762   0.023
64987SOL    HW196858  12.079  10.799  14.878
64987SOL    HW296859  11.930  10.826  14.885
64988SOL     OW96860   8.074   7.788  11.480
64988SOL    HW196861   8.037   7.768  11.393
64988SOL    HW296862   8.032   7.725  11.539
64989SOL     OW96863   1.652   3.742   0.634
64989SOL    HW196864   1.704   3.664   0.653
64989SOL    HW296865   1.576   3.709   0.587
64990SOL     OW96866   6.447  12.812   3.845
64990SOL    HW196867   6.475  12.780   3.760
64990SOL    HW296868   6.495  12.894   3.857
64991SOL     OW96869  14.652   5.632  10.677
64991SOL    HW196870  14.626   5.680  10.598
64991SOL    HW296871  14.714   5.566  10.645
64992SOL     OW96872  11.024   6.792   2.315
64992SOL    HW196873  11.070   6.710   2.329
64992SOL    HW296874  10.982   6.811   2.399
64993SOL     OW96875   5.223   3.478   3.191
64993SOL    HW196876   5.305   3.465   3.143
64993SOL    HW296877   5.242   3.548   3.253
64994SOL     OW96878  12.933   6.411   6.849
64994SOL    HW196879  12.897   6.336   6.895
64994SOL    HW296880  12.896   6.406   6.761
64995SOL     OW96881   9.054   1.259  14.576
64995SOL    HW196882   9.092   1.327  14.631
64995SOL    HW296883   9.126   1.231  14.519
64996SOL     OW96884  14.800   6.459   7.120
64996SOL    HW196885  14.749   6.539   7.136
64996SOL    HW296886   0.003   6.486   7.135
64997SOL     OW96887   1.743  12.895   2.859
64997SOL    HW196888   1.768  12.826   2.920
64997SOL    HW296889   1.823  12.912   2.808
64998SOL     OW96890   9.908   0.675   3.284
64998SOL    HW196891   9.819   0.690   3.253
64998SOL    HW296892   9.922   0.744   3.350
64999SOL     OW96893  12.481  13.515  12.071
64999SOL    HW196894  12.549  13.464  12.027
64999SOL    HW296895  12.501  13.605  12.049
65000SOL     OW96896   2.270   4.621   7.739
65000SOL    HW196897   2.306   4.609   7.651
65000SOL    HW296898   2.293   4.710   7.763
65001SOL     OW96899   7.525   3.328   4.799
65001SOL    HW196900   7.590   3.398   4.809
65001SOL    HW296901   7.559   3.256   4.852
65002SOL     OW96902  11.187  13.978   5.426
65002SOL    HW196903  11.195  13.961   5.332
65002SOL    HW296904  11.144  14.064   5.431
65003SOL     OW96905   2.237   7.314   2.654
65003SOL    HW196906   2.265   7.270   2.734
65003SOL    HW296907   2.242   7.407   2.675
65004SOL     OW96908   9.888   3.462   5.485
65004SOL    HW196909   9.806   3.509   5.497
65004SOL    HW296910   9.896   3.406   5.562
65005SOL     OW96911   6.741   0.300   6.061
65005SOL    HW196912   6.736   0.382   6.011
65005SOL    HW296913   6.835   0.284   6.070
65006SOL     OW96914   7.158  12.881   5.468
65006SOL    HW196915   7.184  12.812   5.529
65006SOL    HW296916   7.143  12.958   5.522
65007SOL     OW96917  12.514   4.511  10.284
65007SOL    HW196918  12.441   4.558  10.243
65007SOL    HW296919  12.564   4.476  10.210
65008SOL     OW96920   4.761   8.088   2.388
65008SOL    HW196921   4.720   8.078   2.302
65008SOL    HW296922   4.692   8.063   2.450
65009SOL     OW96923   0.305  14.366   4.955
65009SOL    HW196924   0.253  14.288   4.934
65009SOL    HW296925   0.262  14.436   4.907
65010SOL     OW96926  14.242  12.955   5.153
65010SOL    HW196927  14.186  13.008   5.096
65010SOL    HW296928  14.288  12.896   5.094
65011SOL     OW96929  13.567   0.747   9.660
65011SOL    HW196930  13.498   0.814   9.662
65011SOL    HW296931  13.610   0.754   9.745
65012SOL     OW96932   4.891   5.047  13.157
65012SOL    HW196933   4.889   4.990  13.080
65012SOL    HW296934   4.938   4.997  13.223
65013SOL     OW96935   6.112  13.452  13.458
65013SOL    HW196936   6.047  13.399  13.505
65013SOL    HW296937   6.098  13.541  13.491
65014SOL     OW96938   9.859  10.275   8.338
65014SOL    HW196939   9.806  10.196   8.325
65014SOL    HW296940   9.915  10.254   8.412
65015SOL     OW96941   3.265   0.167   3.171
65015SOL    HW196942   3.348   0.125   3.192
65015SOL    HW296943   3.266   0.248   3.221
65016SOL     OW96944  10.851  14.613   5.502
65016SOL    HW196945  10.835  14.641   5.592
65016SOL    HW296946  10.769  14.632   5.456
65017SOL     OW96947   1.868   0.382   5.022
65017SOL    HW196948   1.903   0.387   5.111
65017SOL    HW296949   1.839   0.292   5.014
65018SOL     OW96950   4.996  11.511   9.246
65018SOL    HW196951   4.977  11.424   9.211
65018SOL    HW296952   5.010  11.496   9.340
65019SOL     OW96953   1.015   5.019   0.554
65019SOL    HW196954   1.023   5.103   0.601
65019SOL    HW296955   0.921   5.001   0.555
65020SOL     OW96956  10.800   4.225   4.388
65020SOL    HW196957  10.713   4.196   4.360
65020SOL    HW296958  10.859   4.160   4.351
65021SOL     OW96959   9.504  12.979   9.957
65021SOL    HW196960   9.594  12.947   9.962
65021SOL    HW296961   9.509  13.068   9.991
65022SOL     OW96962   8.896  14.352   3.081
65022SOL    HW196963   8.991  14.341   3.067
65022SOL    HW296964   8.877  14.296   3.156
65023SOL     OW96965   4.891   6.672   4.802
65023SOL    HW196966   4.809   6.626   4.783
65023SOL    HW296967   4.944   6.609   4.850
65024SOL     OW96968  10.237  11.984   9.981
65024SOL    HW196969  10.324  12.019  10.003
65024SOL    HW296970  10.182  12.011  10.054
65025SOL     OW96971   3.711   8.991  14.879
65025SOL    HW196972   3.675   8.910  14.843
65025SOL    HW296973   3.798   8.967   0.022
65026SOL     OW96974   6.572   7.684   8.090
65026SOL    HW196975   6.513   7.759   8.095
65026SOL    HW296976   6.516   7.608   8.107
65027SOL     OW96977   9.330   9.451   1.014
65027SOL    HW196978   9.323   9.540   1.047
65027SOL    HW296979   9.390   9.458   0.939
65028SOL     OW96980  11.170   9.651   4.040
65028SOL    HW196981  11.109   9.659   3.966
65028SOL    HW296982  11.121   9.602   4.105
65029SOL     OW96983   5.458  11.113   6.751
65029SOL    HW196984   5.380  11.079   6.795
65029SOL    HW296985   5.424  11.172   6.684
65030SOL     OW96986   6.218  10.212  14.096
65030SOL    HW196987   6.267  10.140  14.057
65030SOL    HW296988   6.231  10.286  14.036
65031SOL     OW96989  14.659   2.701   7.851
65031SOL    HW196990  14.665   2.795   7.832
65031SOL    HW296991  14.634   2.661   7.767
65032SOL     OW96992   0.876   0.329  12.653
65032SOL    HW196993   0.935   0.333  12.578
65032SOL    HW296994   0.935   0.320  12.729
65033SOL     OW96995   0.436  12.149   6.769
65033SOL    HW196996   0.408  12.136   6.859
65033SOL    HW296997   0.406  12.071   6.723
65034SOL     OW96998  12.783   2.506   1.623
65034SOL    HW196999  12.821   2.574   1.679
65034SOL    HW297000  12.844   2.498   1.550
65035SOL     OW97001   7.862   0.033   8.953
65035SOL    HW197002   7.949   0.073   8.947
65035SOL    HW297003   7.863  14.876   9.038
65036SOL     OW97004   7.414   8.718   4.196
65036SOL    HW197005   7.474   8.722   4.121
65036SOL    HW297006   7.456   8.657   4.257
65037SOL     OW97007   6.805  14.833   5.066
65037SOL    HW197008   6.855  14.781   5.129
65037SOL    HW297009   6.869   0.003   5.025
65038SOL     OW97010  10.471   8.672   5.423
65038SOL    HW197011  10.443   8.710   5.340
65038SOL    HW297012  10.562   8.700   5.433
65039SOL     OW97013   6.962   3.905  10.806
65039SOL    HW197014   6.906   3.928  10.880
65039SOL    HW297015   6.976   3.988  10.760
65040SOL     OW97016   8.491  14.423   2.529
65040SOL    HW197017   8.578  14.388   2.513
65040SOL    HW297018   8.433  14.347   2.521
65041SOL     OW97019   1.264   7.654  14.091
65041SOL    HW197020   1.313   7.731  14.119
65041SOL    HW297021   1.203   7.687  14.025
65042SOL     OW97022  13.666  11.891  13.437
65042SOL    HW197023  13.598  11.870  13.502
65042SOL    HW297024  13.738  11.927  13.489
65043SOL     OW97025  10.073  10.062   1.099
65043SOL    HW197026  10.008  10.053   1.169
65043SOL    HW297027  10.028  10.110   1.030
65044SOL     OW97028   8.210   0.348  11.022
65044SOL    HW197029   8.290   0.303  11.050
65044SOL    HW297030   8.239   0.435  10.995
65045SOL     OW97031   2.726  14.680   2.880
65045SOL    HW197032   2.801  14.637   2.840
65045SOL    HW297033   2.731  14.771   2.849
65046SOL     OW97034   9.814   3.472  13.848
65046SOL    HW197035   9.790   3.543  13.907
65046SOL    HW297036   9.757   3.399  13.873
65047SOL     OW97037   1.470   1.434  14.228
65047SOL    HW197038   1.508   1.358  14.271
65047SOL    HW297039   1.537   1.462  14.165
65048SOL     OW97040  14.749   1.468   0.074
65048SOL    HW197041  14.843   1.465   0.091
65048SOL    HW297042  14.726   1.378   0.051
65049SOL     OW97043  14.775  11.321   4.195
65049SOL    HW197044  14.708  11.255   4.177
65049SOL    HW297045  14.732  11.405   4.174
65050SOL     OW97046   6.860   2.959   7.955
65050SOL    HW197047   6.781   2.975   7.904
65050SOL    HW297048   6.905   3.043   7.957
65051SOL     OW97049   5.619   9.604   1.013
65051SOL    HW197050   5.659   9.604   0.926
65051SOL    HW297051   5.677   9.550   1.066
65052SOL     OW97052  14.169   3.976  12.672
65052SOL    HW197053  14.241   3.977  12.608
65052SOL    HW297054  14.209   3.941  12.752
65053SOL     OW97055   2.253   6.013   0.192
65053SOL    HW197056   2.172   6.022   0.242
65053SOL    HW297057   2.321   6.051   0.248
65054SOL     OW97058  12.021  13.954   8.721
65054SOL    HW197059  12.054  13.945   8.811
65054SOL    HW297060  11.987  13.868   8.699
65055SOL     OW97061   1.963  11.367  13.576
65055SOL    HW197062   1.979  11.457  13.548
65055SOL    HW297063   2.017  11.313  13.518
65056SOL     OW97064  11.227  13.530   1.619
65056SOL    HW197065  11.146  13.518   1.569
65056SOL    HW297066  11.249  13.623   1.607
65057SOL     OW97067   9.635  11.698  11.201
65057SOL    HW197068   9.630  11.607  11.229
65057SOL    HW297069   9.710  11.733  11.250
65058SOL     OW97070   3.791   6.414  14.710
65058SOL    HW197071   3.828   6.337  14.753
65058SOL    HW297072   3.730   6.378  14.645
65059SOL     OW97073   3.262  10.921   4.813
65059SOL    HW197074   3.241  11.000   4.763
65059SOL    HW297075   3.178  10.877   4.826
65060SOL     OW97076  13.748   2.911   7.858
65060SOL    HW197077  13.734   2.818   7.840
65060SOL    HW297078  13.689   2.930   7.931
65061SOL     OW97079   6.788   8.530   5.356
65061SOL    HW197080   6.855   8.598   5.348
65061SOL    HW297081   6.760   8.535   5.448
65062SOL     OW97082  14.772   3.818   9.011
65062SOL    HW197083  14.761   3.744   8.951
65062SOL    HW297084  14.772   3.778   9.098
65063SOL     OW97085   8.033  13.071  10.760
65063SOL    HW197086   7.955  13.020  10.783
65063SOL    HW297087   8.064  13.107  10.843
65064SOL     OW97088  11.471   1.807  10.223
65064SOL    HW197089  11.470   1.885  10.167
65064SOL    HW297090  11.440   1.736  10.167
65065SOL     OW97091   3.439   2.836   0.767
65065SOL    HW197092   3.390   2.854   0.687
65065SOL    HW297093   3.373   2.833   0.836
65066SOL     OW97094   9.583  10.595   1.311
65066SOL    HW197095   9.507  10.651   1.296
65066SOL    HW297096   9.633  10.600   1.229
65067SOL     OW97097   8.743  10.198  11.772
65067SOL    HW197098   8.677  10.229  11.709
65067SOL    HW297099   8.788  10.127  11.726
65068SOL     OW97100   8.864   5.858  14.573
65068SOL    HW197101   8.895   5.877  14.662
65068SOL    HW297102   8.769   5.852  14.582
65069SOL     OW97103   5.616  11.721  11.305
65069SOL    HW197104   5.686  11.657  11.319
65069SOL    HW297105   5.597  11.717  11.212
65070SOL     OW97106   5.805   9.156   8.654
65070SOL    HW197107   5.776   9.166   8.564
65070SOL    HW297108   5.725   9.138   8.703
65071SOL     OW97109   1.682   0.441   9.839
65071SOL    HW197110   1.760   0.444   9.784
65071SOL    HW297111   1.613   0.478   9.784
65072SOL     OW97112   6.384  12.716  11.113
65072SOL    HW197113   6.406  12.627  11.083
65072SOL    HW297114   6.298  12.733  11.075
65073SOL     OW97115   1.435   9.687   0.701
65073SOL    HW197116   1.367   9.721   0.644
65073SOL    HW297117   1.515   9.731   0.672
65074SOL     OW97118  10.743   7.673   2.238
65074SOL    HW197119  10.718   7.586   2.272
65074SOL    HW297120  10.706   7.734   2.302
65075SOL     OW97121   3.382   7.088   4.810
65075SOL    HW197122   3.345   7.055   4.892
65075SOL    HW297123   3.305   7.106   4.755
65076SOL     OW97124   7.629   2.717   4.038
65076SOL    HW197125   7.613   2.662   4.115
65076SOL    HW297126   7.711   2.684   4.002
65077SOL     OW97127   5.751   6.021   3.894
65077SOL    HW197128   5.821   6.081   3.871
65077SOL    HW297129   5.717   6.055   3.977
65078SOL     OW97130   8.229  11.777  14.514
65078SOL    HW197131   8.157  11.726  14.477
65078SOL    HW297132   8.304  11.719  14.512
65079SOL     OW97133   7.644  13.972   1.150
65079SOL    HW197134   7.722  13.956   1.203
65079SOL    HW297135   7.595  13.890   1.155
65080SOL     OW97136   6.089  13.933   5.247
65080SOL    HW197137   6.024  13.934   5.318
65080SOL    HW297138   6.171  13.960   5.290
65081SOL     OW97139   0.886   4.979  12.146
65081SOL    HW197140   0.896   5.042  12.217
65081SOL    HW297141   0.917   4.896  12.183
65082SOL     OW97142  13.051   9.409   7.234
65082SOL    HW197143  13.044   9.336   7.173
65082SOL    HW297144  12.980   9.468   7.210
65083SOL     OW97145  11.069   6.237  13.908
65083SOL    HW197146  11.002   6.250  13.975
65083SOL    HW297147  11.151   6.258  13.953
65084SOL     OW97148   7.146  13.887   1.734
65084SOL    HW197149   7.083  13.918   1.799
65084SOL    HW297150   7.145  13.791   1.744
65085SOL     OW97151  11.763  11.888   0.323
65085SOL    HW197152  11.762  11.819   0.257
65085SOL    HW297153  11.839  11.868   0.378
65086SOL     OW97154   5.446   5.907   5.934
65086SOL    HW197155   5.493   5.980   5.975
65086SOL    HW297156   5.357   5.913   5.970
65087SOL     OW97157   5.278   6.400   7.838
65087SOL    HW197158   5.245   6.347   7.765
65087SOL    HW297159   5.270   6.343   7.915
65088SOL     OW97160   7.394   6.197   4.405
65088SOL    HW197161   7.479   6.201   4.449
65088SOL    HW297162   7.339   6.257   4.454
65089SOL     OW97163  14.702   6.227  12.848
65089SOL    HW197164  14.743   6.249  12.765
65089SOL    HW297165  14.757   6.158  12.885
65090SOL     OW97166  10.559   2.770   7.072
65090SOL    HW197167  10.569   2.693   7.017
65090SOL    HW297168  10.471   2.761   7.109
65091SOL     OW97169   3.888   0.825  13.610
65091SOL    HW197170   3.958   0.763  13.631
65091SOL    HW297171   3.813   0.770  13.589
65092SOL     OW97172   8.268   2.747  11.402
65092SOL    HW197173   8.200   2.804  11.365
65092SOL    HW297174   8.328   2.731  11.330
65093SOL     OW97175   0.271  11.032   9.933
65093SOL    HW197176   0.215  10.989   9.868
65093SOL    HW297177   0.214  11.095   9.977
65094SOL     OW97178  10.684   5.084   6.449
65094SOL    HW197179  10.632   5.006   6.430
65094SOL    HW297180  10.633   5.157   6.411
65095SOL     OW97181  12.156  10.005   9.388
65095SOL    HW197182  12.063  10.025   9.395
65095SOL    HW297183  12.168   9.925   9.438
65096SOL     OW97184   9.593  14.142   5.380
65096SOL    HW197185   9.498  14.143   5.374
65096SOL    HW297186   9.621  14.224   5.339
65097SOL     OW97187   8.901  13.128   9.978
65097SOL    HW197188   8.973  13.071  10.003
65097SOL    HW297189   8.824  13.071   9.978
65098SOL     OW97190   3.674   0.436  14.640
65098SOL    HW197191   3.682   0.341  14.636
65098SOL    HW297192   3.706   0.459  14.727
65099SOL     OW97193   6.085   0.067   2.762
65099SOL    HW197194   6.126  14.874   2.729
65099SOL    HW297195   6.063   0.047   2.853
65100SOL     OW97196   2.799   3.642   3.554
65100SOL    HW197197   2.706   3.632   3.573
65100SOL    HW297198   2.834   3.691   3.628
65101SOL     OW97199   5.963   6.388  11.034
65101SOL    HW197200   6.026   6.453  11.004
65101SOL    HW297201   6.017   6.312  11.058
65102SOL     OW97202   9.024   4.641  11.005
65102SOL    HW197203   9.042   4.669  10.915
65102SOL    HW297204   9.100   4.671  11.055
65103SOL     OW97205   7.227   0.605   2.842
65103SOL    HW197206   7.137   0.574   2.851
65103SOL    HW297207   7.267   0.589   2.927
65104SOL     OW97208   2.962  12.767  14.069
65104SOL    HW197209   2.915  12.739  13.990
65104SOL    HW297210   2.948  12.697  14.131
65105SOL     OW97211  11.188   3.119   7.688
65105SOL    HW197212  11.229   3.045   7.733
65105SOL    HW297213  11.195   3.097   7.595
65106SOL     OW97214  12.861   8.618   4.614
65106SOL    HW197215  12.897   8.545   4.564
65106SOL    HW297216  12.788   8.650   4.561
65107SOL     OW97217  13.644   2.720   6.105
65107SOL    HW197218  13.675   2.758   6.187
65107SOL    HW297219  13.589   2.647   6.131
65108SOL     OW97220   3.168  14.454  13.161
65108SOL    HW197221   3.253  14.413  13.175
65108SOL    HW297222   3.106  14.381  13.158
65109SOL     OW97223   4.456  13.959   6.784
65109SOL    HW197224   4.377  13.978   6.734
65109SOL    HW297225   4.423  13.927   6.868
65110SOL     OW97226  12.028   9.126   2.060
65110SOL    HW197227  12.019   9.195   1.994
65110SOL    HW297228  12.017   9.045   2.011
65111SOL     OW97229   0.593   2.041   1.711
65111SOL    HW197230   0.550   2.019   1.794
65111SOL    HW297231   0.524   2.035   1.646
65112SOL     OW97232  14.213  10.152   7.623
65112SOL    HW197233  14.191  10.161   7.716
65112SOL    HW297234  14.173  10.068   7.598
65113SOL     OW97235   2.017   0.838  13.273
65113SOL    HW197236   1.990   0.784  13.347
65113SOL    HW297237   2.092   0.792  13.236
65114SOL     OW97238   3.859  10.946   0.773
65114SOL    HW197239   3.792  10.994   0.726
65114SOL    HW297240   3.816  10.916   0.853
65115SOL     OW97241   1.404   2.514  11.574
65115SOL    HW197242   1.406   2.457  11.651
65115SOL    HW297243   1.479   2.573  11.587
65116SOL     OW97244   2.290  12.150  12.669
65116SOL    HW197245   2.350  12.140  12.743
65116SOL    HW297246   2.211  12.190  12.707
65117SOL     OW97247  13.666  12.175   2.872
65117SOL    HW197248  13.624  12.260   2.856
65117SOL    HW297249  13.650  12.125   2.791
65118SOL     OW97250   5.669  12.162   5.085
65118SOL    HW197251   5.630  12.141   5.170
65118SOL    HW297252   5.705  12.078   5.055
65119SOL     OW97253   9.922   0.077  10.727
65119SOL    HW197254   9.938   0.053  10.819
65119SOL    HW297255   9.902  14.882  10.684
65120SOL     OW97256  11.723   5.570   2.545
65120SOL    HW197257  11.720   5.662   2.573
65120SOL    HW297258  11.814   5.555   2.522
65121SOL     OW97259   0.352   1.983  10.003
65121SOL    HW197260   0.258   1.976   9.987
65121SOL    HW297261   0.364   2.075  10.028
65122SOL     OW97262   7.946  11.810   7.813
65122SOL    HW197263   7.931  11.776   7.901
65122SOL    HW297264   7.934  11.734   7.756
65123SOL     OW97265   8.416   0.800  11.157
65123SOL    HW197266   8.402   0.838  11.070
65123SOL    HW297267   8.338   0.825  11.207
65124SOL     OW97268   1.333   3.513   9.657
65124SOL    HW197269   1.285   3.563   9.724
65124SOL    HW297270   1.278   3.438   9.639
65125SOL     OW97271   8.411  10.926   1.090
65125SOL    HW197272   8.379  11.001   1.141
65125SOL    HW297273   8.367  10.851   1.129
65126SOL     OW97274   9.693   1.728   8.869
65126SOL    HW197275   9.734   1.803   8.910
65126SOL    HW297276   9.703   1.744   8.775
65127SOL     OW97277  10.372   0.620  14.848
65127SOL    HW197278  10.285   0.624   0.001
65127SOL    HW297279  10.361   0.560  14.775
65128SOL     OW97280   0.041   3.360  13.952
65128SOL    HW197281   0.041   3.283  13.896
65128SOL    HW297282   0.127   3.400  13.939
65129SOL     OW97283   0.285   1.830  10.365
65129SOL    HW197284   0.365   1.882  10.370
65129SOL    HW297285   0.262   1.812  10.456
65130SOL     OW97286   4.019   5.662   5.910
65130SOL    HW197287   4.049   5.642   5.822
65130SOL    HW297288   4.037   5.756   5.920
65131SOL     OW97289   8.832   6.102   8.938
65131SOL    HW197290   8.876   6.183   8.964
65131SOL    HW297291   8.791   6.123   8.854
65132SOL     OW97292  13.362  13.243   6.655
65132SOL    HW197293  13.440  13.220   6.705
65132SOL    HW297294  13.364  13.184   6.579
65133SOL     OW97295   1.778   9.450   6.351
65133SOL    HW197296   1.818   9.464   6.436
65133SOL    HW297297   1.744   9.361   6.355
65134SOL     OW97298   2.628   3.592   9.558
65134SOL    HW197299   2.651   3.514   9.610
65134SOL    HW297300   2.608   3.557   9.471
65135SOL     OW97301   2.727   2.941   1.224
65135SOL    HW197302   2.800   2.899   1.179
65135SOL    HW297303   2.649   2.906   1.182
65136SOL     OW97304   3.401   2.255  14.003
65136SOL    HW197305   3.454   2.197  14.057
65136SOL    HW297306   3.464   2.314  13.962
65137SOL     OW97307  11.327   8.852   8.312
65137SOL    HW197308  11.403   8.845   8.254
65137SOL    HW297309  11.269   8.781   8.286
65138SOL     OW97310   7.164   2.690  13.475
65138SOL    HW197311   7.166   2.748  13.552
65138SOL    HW297312   7.250   2.649  13.474
65139SOL     OW97313   0.257   8.344  11.523
65139SOL    HW197314   0.237   8.256  11.552
65139SOL    HW297315   0.328   8.373  11.582
65140SOL     OW97316  14.309   7.929  12.168
65140SOL    HW197317  14.338   8.020  12.161
65140SOL    HW297318  14.390   7.878  12.173
65141SOL     OW97319   4.961   8.257   1.695
65141SOL    HW197320   4.976   8.314   1.620
65141SOL    HW297321   4.895   8.303   1.747
65142SOL     OW97322  11.957   1.227   0.217
65142SOL    HW197323  11.972   1.321   0.205
65142SOL    HW297324  11.963   1.214   0.311
65143SOL     OW97325   7.683  14.169   2.370
65143SOL    HW197326   7.624  14.233   2.411
65143SOL    HW297327   7.632  14.134   2.297
65144SOL     OW97328   9.895   1.177   6.967
65144SOL    HW197329   9.813   1.141   6.931
65144SOL    HW297330   9.876   1.193   7.059
65145SOL     OW97331  11.906   0.484   8.797
65145SOL    HW197332  11.820   0.523   8.812
65145SOL    HW297333  11.934   0.519   8.712
65146SOL     OW97334   7.444  14.582   0.347
65146SOL    HW197335   7.428  14.663   0.395
65146SOL    HW297336   7.397  14.515   0.396
65147SOL     OW97337  10.603  11.805   7.287
65147SOL    HW197338  10.568  11.796   7.199
65147SOL    HW297339  10.560  11.882   7.323
65148SOL     OW97340  14.428   8.435  14.514
65148SOL    HW197341  14.411   8.497  14.585
65148SOL    HW297342  14.455   8.355  14.559
65149SOL     OW97343   7.329  13.093   5.662
65149SOL    HW197344   7.340  13.033   5.735
65149SOL    HW297345   7.269  13.160   5.695
65150SOL     OW97346  10.056  10.560  11.853
65150SOL    HW197347  10.113  10.580  11.927
65150SOL    HW297348   9.973  10.534  11.892
65151SOL     OW97349  14.746   8.658  14.145
65151SOL    HW197350  14.696   8.624  14.219
65151SOL    HW297351  14.756   8.752  14.163
65152SOL     OW97352   5.382  14.828   6.464
65152SOL    HW197353   5.437  14.751   6.475
65152SOL    HW297354   5.423  14.876   6.393
65153SOL     OW97355   7.296   4.910  12.025
65153SOL    HW197356   7.204   4.908  12.051
65153SOL    HW297357   7.343   4.879  12.103
65154SOL     OW97358   7.305   1.325  12.093
65154SOL    HW197359   7.396   1.296  12.088
65154SOL    HW297360   7.256   1.248  12.122
65155SOL     OW97361   4.531   6.806   4.699
65155SOL    HW197362   4.578   6.866   4.757
65155SOL    HW297363   4.539   6.721   4.741
65156SOL     OW97364   8.385  13.445   5.260
65156SOL    HW197365   8.338  13.502   5.198
65156SOL    HW297366   8.465  13.494   5.280
65157SOL     OW97367  14.404  13.836  12.401
65157SOL    HW197368  14.442  13.869  12.483
65157SOL    HW297369  14.435  13.745  12.395
65158SOL     OW97370  10.220  11.266  14.137
65158SOL    HW197371  10.180  11.341  14.091
65158SOL    HW297372  10.156  11.241  14.203
65159SOL     OW97373  10.024   6.406   7.300
65159SOL    HW197374  10.020   6.498   7.277
65159SOL    HW297375   9.958   6.395   7.368
65160SOL     OW97376  10.225   2.553   3.071
65160SOL    HW197377  10.148   2.501   3.094
65160SOL    HW297378  10.224   2.558   2.976
65161SOL     OW97379  13.570   3.589  11.921
65161SOL    HW197380  13.584   3.551  11.834
65161SOL    HW297381  13.642   3.554  11.974
65162SOL     OW97382   5.722  12.961   4.232
65162SOL    HW197383   5.715  12.972   4.137
65162SOL    HW297384   5.746  13.048   4.264
65163SOL     OW97385   8.355  12.708   1.123
65163SOL    HW197386   8.309  12.714   1.207
65163SOL    HW297387   8.445  12.686   1.145
65164SOL     OW97388   0.638   7.506   0.590
65164SOL    HW197389   0.543   7.521   0.594
65164SOL    HW297390   0.651   7.422   0.634
65165SOL     OW97391   4.724   7.914  10.228
65165SOL    HW197392   4.735   7.904  10.322
65165SOL    HW297393   4.700   7.827  10.197
65166SOL     OW97394   2.300   6.771   9.207
65166SOL    HW197395   2.326   6.697   9.262
65166SOL    HW297396   2.285   6.733   9.121
65167SOL     OW97397   1.706   0.044   1.972
65167SOL    HW197398   1.773   0.028   2.038
65167SOL    HW297399   1.743   0.111   1.915
65168SOL     OW97400  11.460   6.587   0.228
65168SOL    HW197401  11.426   6.676   0.221
65168SOL    HW297402  11.555   6.597   0.223
65169SOL     OW97403   8.271   5.659  12.857
65169SOL    HW197404   8.181   5.691  12.851
65169SOL    HW297405   8.269   5.573  12.815
65170SOL     OW97406   9.836   3.732   5.951
65170SOL    HW197407   9.829   3.780   5.868
65170SOL    HW297408   9.888   3.655   5.929
65171SOL     OW97409   0.647   8.438   1.906
65171SOL    HW197410   0.593   8.470   1.978
65171SOL    HW297411   0.632   8.343   1.904
65172SOL     OW97412  13.445  12.700  12.763
65172SOL    HW197413  13.519  12.689  12.823
65172SOL    HW297414  13.447  12.621  12.709
65173SOL     OW97415   7.758   1.901   0.674
65173SOL    HW197416   7.771   1.992   0.701
65173SOL    HW297417   7.687   1.904   0.611
65174SOL     OW97418   4.687  10.666   0.845
65174SOL    HW197419   4.777  10.635   0.838
65174SOL    HW297420   4.696  10.758   0.871
65175SOL     OW97421  12.941   8.938   2.875
65175SOL    HW197422  12.987   9.000   2.817
65175SOL    HW297423  12.921   8.864   2.818
65176SOL     OW97424   4.233   4.727   5.391
65176SOL    HW197425   4.292   4.792   5.352
65176SOL    HW297426   4.169   4.709   5.321
65177SOL     OW97427   7.191   8.894   3.041
65177SOL    HW197428   7.149   8.858   3.119
65177SOL    HW297429   7.270   8.841   3.030
65178SOL     OW97430  13.841  10.213  10.715
65178SOL    HW197431  13.889  10.293  10.738
65178SOL    HW297432  13.909  10.152  10.687
65179SOL     OW97433  13.543   7.842   4.847
65179SOL    HW197434  13.527   7.766   4.903
65179SOL    HW297435  13.579   7.908   4.906
65180SOL     OW97436   2.197   9.705   8.885
65180SOL    HW197437   2.252   9.670   8.955
65180SOL    HW297438   2.144   9.630   8.856
65181SOL     OW97439   1.285  10.103  13.853
65181SOL    HW197440   1.298  10.137  13.942
65181SOL    HW297441   1.362  10.049  13.836
65182SOL     OW97442   6.042   5.309   9.937
65182SOL    HW197443   6.043   5.370   9.864
65182SOL    HW297444   5.957   5.323   9.979
65183SOL     OW97445   5.499  13.466   4.700
65183SOL    HW197446   5.405  13.482   4.695
65183SOL    HW297447   5.537  13.523   4.633
65184SOL     OW97448   7.762  12.624   9.246
65184SOL    HW197449   7.676  12.662   9.266
65184SOL    HW297450   7.824  12.674   9.298
65185SOL     OW97451   7.740   4.805  13.057
65185SOL    HW197452   7.822   4.848  13.034
65185SOL    HW297453   7.735   4.809  13.152
65186SOL     OW97454   7.373  13.290   6.095
65186SOL    HW197455   7.417  13.269   6.013
65186SOL    HW297456   7.437  13.268   6.163
65187SOL     OW97457  10.090   6.011   0.378
65187SOL    HW197458  10.033   6.026   0.454
65187SOL    HW297459  10.129   5.925   0.394
65188SOL     OW97460   6.704   1.368   3.524
65188SOL    HW197461   6.757   1.291   3.544
65188SOL    HW297462   6.749   1.408   3.449
65189SOL     OW97463   8.177  13.777   0.993
65189SOL    HW197464   8.180  13.822   1.078
65189SOL    HW297465   8.099  13.721   0.999
65190SOL     OW97466  13.735   0.868   1.368
65190SOL    HW197467  13.676   0.920   1.423
65190SOL    HW297468  13.765   0.797   1.425
65191SOL     OW97469   2.746   2.978   2.652
65191SOL    HW197470   2.661   2.993   2.693
65191SOL    HW297471   2.729   2.910   2.586
65192SOL     OW97472  11.697   3.105   5.387
65192SOL    HW197473  11.618   3.113   5.441
65192SOL    HW297474  11.769   3.127   5.446
65193SOL     OW97475  13.742   9.979  11.859
65193SOL    HW197476  13.678   9.914  11.830
65193SOL    HW297477  13.770   9.949  11.945
65194SOL     OW97478   0.590   3.638  10.329
65194SOL    HW197479   0.582   3.584  10.407
65194SOL    HW297480   0.679   3.622  10.297
65195SOL     OW97481  11.929   0.213   9.069
65195SOL    HW197482  11.948   0.212   8.975
65195SOL    HW297483  11.855   0.153   9.080
65196SOL     OW97484  13.071  13.484   0.406
65196SOL    HW197485  13.030  13.401   0.381
65196SOL    HW297486  13.162  13.475   0.377
65197SOL     OW97487   8.643   6.731  14.811
65197SOL    HW197488   8.672   6.649  14.772
65197SOL    HW297489   8.632   6.711   0.017
65198SOL     OW97490   7.801  10.553   1.160
65198SOL    HW197491   7.738  10.488   1.128
65198SOL    HW297492   7.804  10.619   1.091
65199SOL     OW97493   6.991  11.032   3.649
65199SOL    HW197494   6.961  10.946   3.619
65199SOL    HW297495   6.912  11.076   3.680
65200SOL     OW97496  13.967   4.730   4.803
65200SOL    HW197497  13.985   4.724   4.709
65200SOL    HW297498  13.920   4.813   4.813
65201SOL     OW97499   6.230   9.009  10.387
65201SOL    HW197500   6.281   9.083  10.354
65201SOL    HW297501   6.284   8.972  10.457
65202SOL     OW97502  12.154   3.303   7.387
65202SOL    HW197503  12.065   3.315   7.419
65202SOL    HW297504  12.179   3.215   7.417
65203SOL     OW97505   1.884  11.371   9.941
65203SOL    HW197506   1.908  11.285   9.908
65203SOL    HW297507   1.790  11.364   9.959
65204SOL     OW97508  14.317   1.963  13.843
65204SOL    HW197509  14.329   1.910  13.765
65204SOL    HW297510  14.380   2.035  13.833
65205SOL     OW97511  12.817  13.545   6.296
65205SOL    HW197512  12.774  13.529   6.380
65205SOL    HW297513  12.753  13.596   6.246
65206SOL     OW97514   7.328   9.167   2.547
65206SOL    HW197515   7.241   9.167   2.587
65206SOL    HW297516   7.368   9.249   2.576
65207SOL     OW97517   3.813  10.723  10.061
65207SOL    HW197518   3.884  10.672  10.100
65207SOL    HW297519   3.847  10.752   9.977
65208SOL     OW97520   0.737   9.749  12.557
65208SOL    HW197521   0.644   9.747  12.580
65208SOL    HW297522   0.781   9.719  12.636
65209SOL     OW97523   9.786   5.326   8.329
65209SOL    HW197524   9.822   5.410   8.359
65209SOL    HW297525   9.691   5.339   8.330
65210SOL     OW97526  10.008  11.468   9.809
65210SOL    HW197527  10.104  11.462   9.807
65210SOL    HW297528   9.989  11.554   9.772
65211SOL     OW97529   2.699   4.567   3.077
65211SOL    HW197530   2.680   4.562   3.170
65211SOL    HW297531   2.644   4.639   3.045
65212SOL     OW97532   9.815   4.971  10.281
65212SOL    HW197533   9.860   4.887  10.292
65212SOL    HW297534   9.808   4.982  10.186
65213SOL     OW97535   2.826  13.153   9.841
65213SOL    HW197536   2.859  13.134   9.754
65213SOL    HW297537   2.762  13.084   9.858
65214SOL     OW97538   1.289   8.306  12.395
65214SOL    HW197539   1.212   8.339  12.441
65214SOL    HW297540   1.347   8.274  12.463
65215SOL     OW97541  10.263   2.625   5.148
65215SOL    HW197542  10.180   2.589   5.117
65215SOL    HW297543  10.266   2.601   5.241
65216SOL     OW97544   1.461  14.095  13.991
65216SOL    HW197545   1.402  14.169  13.988
65216SOL    HW297546   1.516  14.105  13.912
65217SOL     OW97547   0.354   4.314  10.237
65217SOL    HW197548   0.326   4.330  10.327
65217SOL    HW297549   0.275   4.285  10.192
65218SOL     OW97550   9.930  12.767  10.272
65218SOL    HW197551   9.854  12.712  10.254
65218SOL    HW297552  10.004  12.716  10.239
65219SOL     OW97553   0.513   6.605   7.437
65219SOL    HW197554   0.583   6.540   7.431
65219SOL    HW297555   0.518   6.653   7.354
65220SOL     OW97556   8.665   7.305   6.086
65220SOL    HW197557   8.751   7.266   6.074
65220SOL    HW297558   8.683   7.390   6.127
65221SOL     OW97559   3.727   4.362  10.629
65221SOL    HW197560   3.652   4.411  10.594
65221SOL    HW297561   3.716   4.274  10.593
65222SOL     OW97562   3.784   9.384   5.578
65222SOL    HW197563   3.720   9.410   5.644
65222SOL    HW297564   3.827   9.307   5.615
65223SOL     OW97565  10.160   3.203   5.133
65223SOL    HW197566  10.187   3.112   5.128
65223SOL    HW297567  10.070   3.204   5.101
65224SOL     OW97568  12.270  10.616   3.439
65224SOL    HW197569  12.208  10.561   3.393
65224SOL    HW297570  12.343  10.558   3.462
65225SOL     OW97571   7.839   2.240  13.953
65225SOL    HW197572   7.767   2.273  13.898
65225SOL    HW297573   7.816   2.149  13.971
65226SOL     OW97574  14.872  14.321  11.518
65226SOL    HW197575  14.857  14.300  11.610
65226SOL    HW297576   0.052  14.389  11.519
65227SOL     OW97577   7.435   5.180   3.657
65227SOL    HW197578   7.469   5.201   3.570
65227SOL    HW297579   7.341   5.167   3.644
65228SOL     OW97580   4.623   4.094   2.816
65228SOL    HW197581   4.681   4.168   2.797
65228SOL    HW297582   4.679   4.017   2.809
65229SOL     OW97583   6.000   5.996   2.298
65229SOL    HW197584   6.026   6.088   2.306
65229SOL    HW297585   6.054   5.950   2.363
65230SOL     OW97586   4.332   1.089  12.111
65230SOL    HW197587   4.333   1.010  12.058
65230SOL    HW297588   4.292   1.063  12.194
65231SOL     OW97589   7.258   4.094   8.492
65231SOL    HW197590   7.309   4.175   8.492
65231SOL    HW297591   7.320   4.027   8.463
65232SOL     OW97592   4.648  12.042  11.757
65232SOL    HW197593   4.634  11.963  11.809
65232SOL    HW297594   4.728  12.024  11.707
65233SOL     OW97595  13.219   2.093  13.626
65233SOL    HW197596  13.247   2.042  13.702
65233SOL    HW297597  13.296   2.144  13.601
65234SOL     OW97598   5.253  11.799  13.422
65234SOL    HW197599   5.332  11.766  13.464
65234SOL    HW297600   5.285  11.862  13.357
65235SOL     OW97601   3.444   8.628  12.423
65235SOL    HW197602   3.518   8.681  12.392
65235SOL    HW297603   3.378   8.692  12.448
65236SOL     OW97604  13.152   9.495   1.612
65236SOL    HW197605  13.238   9.525   1.585
65236SOL    HW297606  13.091   9.542   1.555
65237SOL     OW97607  14.483  13.444  10.533
65237SOL    HW197608  14.523  13.490  10.607
65237SOL    HW297609  14.539  13.467  10.458
65238SOL     OW97610  10.091   2.463   1.639
65238SOL    HW197611  10.135   2.538   1.677
65238SOL    HW297612  10.000   2.470   1.670
65239SOL     OW97613   9.087  13.480  12.251
65239SOL    HW197614   9.029  13.532  12.195
65239SOL    HW297615   9.031  13.449  12.322
65240SOL     OW97616  10.543   2.001   2.683
65240SOL    HW197617  10.514   1.912   2.704
65240SOL    HW297618  10.607   1.990   2.613
65241SOL     OW97619   9.874  11.879  13.419
65241SOL    HW197620   9.867  11.916  13.507
65241SOL    HW297621   9.945  11.816  13.424
65242SOL     OW97622  10.334  12.710  13.043
65242SOL    HW197623  10.389  12.638  13.072
65242SOL    HW297624  10.284  12.674  12.970
65243SOL     OW97625  10.924  14.558  13.799
65243SOL    HW197626  10.982  14.611  13.744
65243SOL    HW297627  10.935  14.469  13.767
65244SOL     OW97628   2.446  12.530   5.978
65244SOL    HW197629   2.499  12.459   5.941
65244SOL    HW297630   2.358  12.514   5.944
65245SOL     OW97631   2.943   8.860  11.833
65245SOL    HW197632   2.883   8.893  11.766
65245SOL    HW297633   2.898   8.783  11.868
65246SOL     OW97634   5.259  14.703   3.441
65246SOL    HW197635   5.306  14.696   3.358
65246SOL    HW297636   5.273  14.794   3.469
65247SOL     OW97637   2.273   8.272   2.967
65247SOL    HW197638   2.182   8.262   2.993
65247SOL    HW297639   2.320   8.204   3.016
65248SOL     OW97640   8.642  12.450   5.936
65248SOL    HW197641   8.559  12.498   5.943
65248SOL    HW297642   8.630  12.373   5.991
65249SOL     OW97643  13.821   0.840   8.633
65249SOL    HW197644  13.816   0.804   8.544
65249SOL    HW297645  13.915   0.854   8.647
65250SOL     OW97646   6.233   3.007   1.486
65250SOL    HW197647   6.320   2.976   1.464
65250SOL    HW297648   6.188   2.930   1.522
65251SOL     OW97649  13.202   4.884   7.646
65251SOL    HW197650  13.257   4.881   7.567
65251SOL    HW297651  13.241   4.820   7.705
65252SOL     OW97652   6.467  10.603   0.250
65252SOL    HW197653   6.493  10.553   0.173
65252SOL    HW297654   6.508  10.689   0.239
65253SOL     OW97655   1.882   0.040  10.192
65253SOL    HW197656   1.974   0.051  10.170
65253SOL    HW297657   1.836   0.107  10.141
65254SOL     OW97658   6.298   3.240  14.764
65254SOL    HW197659   6.370   3.214  14.708
65254SOL    HW297660   6.230   3.174  14.749
65255SOL     OW97661   1.662   9.868   2.906
65255SOL    HW197662   1.725   9.939   2.921
65255SOL    HW297663   1.577   9.905   2.930
65256SOL     OW97664   0.692  12.177   4.660
65256SOL    HW197665   0.706  12.207   4.570
65256SOL    HW297666   0.756  12.108   4.672
65257SOL     OW97667   3.138   1.418  10.425
65257SOL    HW197668   3.066   1.471  10.391
65257SOL    HW297669   3.149   1.347  10.362
65258SOL     OW97670   8.272   7.690   5.615
65258SOL    HW197671   8.271   7.770   5.668
65258SOL    HW297672   8.250   7.620   5.676
65259SOL     OW97673   6.866   2.084   5.608
65259SOL    HW197674   6.943   2.064   5.662
65259SOL    HW297675   6.844   2.174   5.630
65260SOL     OW97676   1.829   1.373   8.041
65260SOL    HW197677   1.860   1.452   7.996
65260SOL    HW297678   1.761   1.338   7.984
65261SOL     OW97679   1.924  14.186   6.674
65261SOL    HW197680   1.855  14.223   6.729
65261SOL    HW297681   1.986  14.257   6.661
65262SOL     OW97682   6.099   1.190  10.982
65262SOL    HW197683   6.144   1.109  11.008
65262SOL    HW297684   6.130   1.256  11.043
65263SOL     OW97685   1.985   5.395   4.795
65263SOL    HW197686   1.950   5.437   4.873
65263SOL    HW297687   1.938   5.311   4.789
65264SOL     OW97688   6.407   0.926  13.541
65264SOL    HW197689   6.345   0.940  13.469
65264SOL    HW297690   6.390   0.836  13.570
65265SOL     OW97691  12.738  13.519  14.850
65265SOL    HW197692  12.803  13.567   0.014
65265SOL    HW297693  12.740  13.430  14.887
65266SOL     OW97694   9.550  10.306   2.521
65266SOL    HW197695   9.597  10.338   2.444
65266SOL    HW297696   9.517  10.386   2.564
65267SOL     OW97697   8.498   8.400   4.130
65267SOL    HW197698   8.522   8.485   4.094
65267SOL    HW297699   8.578   8.368   4.171
65268SOL     OW97700   3.319   3.573   4.152
65268SOL    HW197701   3.294   3.543   4.239
65268SOL    HW297702   3.414   3.580   4.154
65269SOL     OW97703   6.250   7.721   5.207
65269SOL    HW197704   6.190   7.745   5.277
65269SOL    HW297705   6.286   7.804   5.177
65270SOL     OW97706   0.345  11.170   9.204
65270SOL    HW197707   0.279  11.116   9.162
65270SOL    HW297708   0.421  11.164   9.146
65271SOL     OW97709  13.663   4.704   0.831
65271SOL    HW197710  13.649   4.686   0.924
65271SOL    HW297711  13.602   4.776   0.812
65272SOL     OW97712   6.068   1.325   6.671
65272SOL    HW197713   6.122   1.376   6.731
65272SOL    HW297714   5.978   1.345   6.697
65273SOL     OW97715   8.342   8.780  13.882
65273SOL    HW197716   8.377   8.711  13.938
65273SOL    HW297717   8.289   8.734  13.817
65274SOL     OW97718   3.753  11.067   5.052
65274SOL    HW197719   3.793  11.052   4.966
65274SOL    HW297720   3.744  10.979   5.089
65275SOL     OW97721   0.022   3.390   8.497
65275SOL    HW197722  14.862   3.393   8.580
65275SOL    HW297723   0.111   3.419   8.520
65276SOL     OW97724   0.495   4.519   9.364
65276SOL    HW197725   0.408   4.502   9.399
65276SOL    HW297726   0.551   4.453   9.404
65277SOL     OW97727  11.983   4.162   0.000
65277SOL    HW197728  11.929   4.218   0.057
65277SOL    HW297729  12.055   4.133   0.057
65278SOL     OW97730   9.239   2.275  13.558
65278SOL    HW197731   9.272   2.364  13.548
65278SOL    HW297732   9.317   2.220  13.551
65279SOL     OW97733   7.895   8.396   8.591
65279SOL    HW197734   7.960   8.330   8.613
65279SOL    HW297735   7.834   8.395   8.665
65280SOL     OW97736   9.589   0.544   9.230
65280SOL    HW197737   9.629   0.601   9.165
65280SOL    HW297738   9.592   0.456   9.191
65281SOL     OW97739   1.475  13.784   9.214
65281SOL    HW197740   1.402  13.839   9.243
65281SOL    HW297741   1.534  13.844   9.169
65282SOL     OW97742  10.677   2.194   6.654
65282SOL    HW197743  10.733   2.117   6.650
65282SOL    HW297744  10.593   2.164   6.619
65283SOL     OW97745  10.890  12.289  14.771
65283SOL    HW197746  10.946  12.341  14.713
65283SOL    HW297747  10.870  12.348  14.844
65284SOL     OW97748   6.311  11.802  13.756
65284SOL    HW197749   6.236  11.849  13.720
65284SOL    HW297750   6.283  11.777  13.844
65285SOL     OW97751   1.664   4.725   1.243
65285SOL    HW197752   1.733   4.774   1.288
65285SOL    HW297753   1.690   4.634   1.252
65286SOL     OW97754   8.647  12.240  14.722
65286SOL    HW197755   8.656  12.145  14.720
65286SOL    HW297756   8.561  12.257  14.684
65287SOL     OW97757   0.012  11.984  10.787
65287SOL    HW197758   0.096  12.030  10.788
65287SOL    HW297759   0.014  11.931  10.707
65288SOL     OW97760  14.539  10.259   2.560
65288SOL    HW197761  14.499  10.173   2.545
65288SOL    HW297762  14.496  10.317   2.497
65289SOL     OW97763   9.876   9.482   3.289
65289SOL    HW197764   9.933   9.436   3.227
65289SOL    HW297765   9.899   9.445   3.374
65290SOL     OW97766  14.350   6.347   0.710
65290SOL    HW197767  14.410   6.340   0.636
65290SOL    HW297768  14.355   6.438   0.737
65291SOL     OW97769   5.485   3.169  12.046
65291SOL    HW197770   5.514   3.164  11.955
65291SOL    HW297771   5.472   3.263  12.061
65292SOL     OW97772  11.905   9.517   6.316
65292SOL    HW197773  11.935   9.574   6.386
65292SOL    HW297774  11.882   9.577   6.244
65293SOL     OW97775   6.091   6.871   2.747
65293SOL    HW197776   6.111   6.785   2.710
65293SOL    HW297777   6.102   6.861   2.841
65294SOL     OW97778   4.294  11.524   4.149
65294SOL    HW197779   4.235  11.479   4.088
65294SOL    HW297780   4.303  11.463   4.222
65295SOL     OW97781   0.415  13.136  12.863
65295SOL    HW197782   0.392  13.045  12.882
65295SOL    HW297783   0.357  13.188  12.919
65296SOL     OW97784  13.016   0.858   3.522
65296SOL    HW197785  12.968   0.797   3.579
65296SOL    HW297786  13.067   0.912   3.583
65297SOL     OW97787  13.893   6.826  11.674
65297SOL    HW197788  13.843   6.745  11.668
65297SOL    HW297789  13.848   6.878  11.740
65298SOL     OW97790   0.539   9.557  13.452
65298SOL    HW197791   0.616   9.596  13.493
65298SOL    HW297792   0.471   9.623  13.460
65299SOL     OW97793   6.803  13.732   2.539
65299SOL    HW197794   6.768  13.691   2.618
65299SOL    HW297795   6.895  13.751   2.560
65300SOL     OW97796   2.834  10.692   5.015
65300SOL    HW197797   2.817  10.775   4.970
65300SOL    HW297798   2.860  10.632   4.945
65301SOL     OW97799   8.390   5.744  13.807
65301SOL    HW197800   8.399   5.786  13.721
65301SOL    HW297801   8.371   5.652  13.787
65302SOL     OW97802   1.431   5.933  13.895
65302SOL    HW197803   1.453   5.859  13.838
65302SOL    HW297804   1.336   5.925  13.908
65303SOL     OW97805   9.334   6.004   3.426
65303SOL    HW197806   9.365   5.914   3.420
65303SOL    HW297807   9.356   6.031   3.515
65304SOL     OW97808   5.723   0.118   3.958
65304SOL    HW197809   5.802   0.116   4.011
65304SOL    HW297810   5.699   0.027   3.946
65305SOL     OW97811   1.238   3.565   8.260
65305SOL    HW197812   1.189   3.604   8.187
65305SOL    HW297813   1.252   3.474   8.233
65306SOL     OW97814  11.847  12.655   0.503
65306SOL    HW197815  11.790  12.636   0.578
65306SOL    HW297816  11.821  12.591   0.437
65307SOL     OW97817  11.639  14.693  10.230
65307SOL    HW197818  11.734  14.683  10.243
65307SOL    HW297819  11.606  14.603  10.226
65308SOL     OW97820  10.616   4.886   7.379
65308SOL    HW197821  10.618   4.877   7.475
65308SOL    HW297822  10.708   4.897   7.355
65309SOL     OW97823   9.411   6.092   5.345
65309SOL    HW197824   9.366   6.171   5.376
65309SOL    HW297825   9.371   6.021   5.395
65310SOL     OW97826   7.110   6.553  14.191
65310SOL    HW197827   7.071   6.469  14.167
65310SOL    HW297828   7.061   6.618  14.141
65311SOL     OW97829  12.836  12.682  10.162
65311SOL    HW197830  12.746  12.649  10.154
65311SOL    HW297831  12.826  12.777  10.161
65312SOL     OW97832  12.901   0.988  14.349
65312SOL    HW197833  12.955   0.955  14.277
65312SOL    HW297834  12.823   0.931  14.348
65313SOL     OW97835   1.584   6.128  13.697
65313SOL    HW197836   1.512   6.129  13.634
65313SOL    HW297837   1.547   6.084  13.774
65314SOL     OW97838   1.276   4.923   3.118
65314SOL    HW197839   1.186   4.904   3.093
65314SOL    HW297840   1.275   5.014   3.147
65315SOL     OW97841   9.031  12.140  13.304
65315SOL    HW197842   9.078  12.073  13.353
65315SOL    HW297843   8.948  12.150  13.350
65316SOL     OW97844  10.358  12.230   6.616
65316SOL    HW197845  10.348  12.307   6.671
65316SOL    HW297846  10.271  12.214   6.581
65317SOL     OW97847   2.327   3.075  12.769
65317SOL    HW197848   2.387   3.134  12.723
65317SOL    HW297849   2.377   3.041  12.843
65318SOL     OW97850   6.759  10.224  13.784
65318SOL    HW197851   6.821  10.160  13.750
65318SOL    HW297852   6.711  10.178  13.853
65319SOL     OW97853   5.071   7.976   5.361
65319SOL    HW197854   5.128   8.053   5.358
65319SOL    HW297855   5.109   7.920   5.429
65320SOL     OW97856   8.988   0.401   1.882
65320SOL    HW197857   9.049   0.445   1.822
65320SOL    HW297858   8.972   0.316   1.842
65321SOL     OW97859  12.197   4.219  13.157
65321SOL    HW197860  12.280   4.213  13.205
65321SOL    HW297861  12.223   4.240  13.068
65322SOL     OW97862  13.462   1.015   4.005
65322SOL    HW197863  13.496   1.076   4.071
65322SOL    HW297864  13.507   1.040   3.924
65323SOL     OW97865   8.398   9.861  10.797
65323SOL    HW197866   8.451   9.903  10.864
65323SOL    HW297867   8.451   9.787  10.767
65324SOL     OW97868   0.511   9.453  14.249
65324SOL    HW197869   0.436   9.397  14.225
65324SOL    HW297870   0.480   9.542  14.235
65325SOL     OW97871   3.968   3.727   2.779
65325SOL    HW197872   3.991   3.649   2.829
65325SOL    HW297873   4.039   3.737   2.715
65326SOL     OW97874   1.180   1.013   5.680
65326SOL    HW197875   1.213   1.083   5.737
65326SOL    HW297876   1.158   0.942   5.739
65327SOL     OW97877  12.342   1.672  11.687
65327SOL    HW197878  12.360   1.711  11.601
65327SOL    HW297879  12.427   1.636  11.715
65328SOL     OW97880   2.744  14.758  11.007
65328SOL    HW197881   2.688  14.816  11.060
65328SOL    HW297882   2.721  14.780  10.917
65329SOL     OW97883  12.254   7.017  13.309
65329SOL    HW197884  12.202   7.092  13.336
65329SOL    HW297885  12.197   6.941  13.324
65330SOL     OW97886   1.165   7.449   0.617
65330SOL    HW197887   1.251   7.451   0.575
65330SOL    HW297888   1.168   7.374   0.676
65331SOL     OW97889   4.888  13.445   7.092
65331SOL    HW197890   4.864  13.427   7.001
65331SOL    HW297891   4.809  13.428   7.142
65332SOL     OW97892   3.786  10.120  11.677
65332SOL    HW197893   3.748  10.111  11.589
65332SOL    HW297894   3.847  10.193  11.668
65333SOL     OW97895  10.420  13.412   7.863
65333SOL    HW197896  10.479  13.483   7.838
65333SOL    HW297897  10.475  13.351   7.912
65334SOL     OW97898   0.161   6.993   0.774
65334SOL    HW197899   0.229   6.926   0.785
65334SOL    HW297900   0.109   6.962   0.699
65335SOL     OW97901  10.578   1.247  13.408
65335SOL    HW197902  10.528   1.189  13.465
65335SOL    HW297903  10.669   1.238  13.438
65336SOL     OW97904   7.062   9.184   3.726
65336SOL    HW197905   7.089   9.259   3.779
65336SOL    HW297906   7.070   9.214   3.636
65337SOL     OW97907   9.415   0.548   1.188
65337SOL    HW197908   9.456   0.623   1.230
65337SOL    HW297909   9.428   0.475   1.249
65338SOL     OW97910  14.655   2.591   7.603
65338SOL    HW197911  14.748   2.569   7.596
65338SOL    HW297912  14.643   2.664   7.543
65339SOL     OW97913   2.625   0.992  10.001
65339SOL    HW197914   2.581   1.072   9.973
65339SOL    HW297915   2.619   0.934   9.925
65340SOL     OW97916   7.161   0.449   2.235
65340SOL    HW197917   7.222   0.518   2.259
65340SOL    HW297918   7.094   0.493   2.183
65341SOL     OW97919   7.204   0.195   9.860
65341SOL    HW197920   7.231   0.203   9.769
65341SOL    HW297921   7.164   0.280   9.881
65342SOL     OW97922   6.004   5.417  11.806
65342SOL    HW197923   5.960   5.449  11.727
65342SOL    HW297924   6.079   5.475  11.817
65343SOL     OW97925   6.325   9.477   9.382
65343SOL    HW197926   6.404   9.530   9.394
65343SOL    HW297927   6.357   9.390   9.359
65344SOL     OW97928  10.972  11.246   7.599
65344SOL    HW197929  10.971  11.204   7.685
65344SOL    HW297930  10.880  11.245   7.571
65345SOL     OW97931   5.005   6.373  14.007
65345SOL    HW197932   5.047   6.378  13.921
65345SOL    HW297933   5.037   6.451  14.054
65346SOL     OW97934  13.072   6.811   4.860
65346SOL    HW197935  12.980   6.791   4.876
65346SOL    HW297936  13.114   6.725   4.858
65347SOL     OW97937  11.341  14.319   9.600
65347SOL    HW197938  11.400  14.319   9.675
65347SOL    HW297939  11.398  14.309   9.524
65348SOL     OW97940   3.694   4.053   3.591
65348SOL    HW197941   3.778   4.098   3.607
65348SOL    HW297942   3.639   4.077   3.665
65349SOL     OW97943   6.193  11.564   5.013
65349SOL    HW197944   6.235  11.492   5.061
65349SOL    HW297945   6.100  11.555   5.034
65350SOL     OW97946   4.446   3.358   7.288
65350SOL    HW197947   4.473   3.293   7.222
65350SOL    HW297948   4.450   3.442   7.241
65351SOL     OW97949   5.106  12.146  11.123
65351SOL    HW197950   5.173  12.195  11.076
65351SOL    HW297951   5.056  12.212  11.170
65352SOL     OW97952   5.002   5.134   3.397
65352SOL    HW197953   4.926   5.086   3.431
65352SOL    HW297954   4.965   5.215   3.362
65353SOL     OW97955   5.550  14.579  11.538
65353SOL    HW197956   5.619  14.607  11.478
65353SOL    HW297957   5.588  14.589  11.625
65354SOL     OW97958   6.201   4.256   3.787
65354SOL    HW197959   6.249   4.249   3.869
65354SOL    HW297960   6.133   4.189   3.793
65355SOL     OW97961   6.677  13.643   1.323
65355SOL    HW197962   6.589  13.627   1.358
65355SOL    HW297963   6.727  13.565   1.346
65356SOL     OW97964   4.455   5.867   8.137
65356SOL    HW197965   4.520   5.937   8.131
65356SOL    HW297966   4.442   5.839   8.046
65357SOL     OW97967   3.420   3.997   7.314
65357SOL    HW197968   3.470   4.006   7.233
65357SOL    HW297969   3.479   4.030   7.382
65358SOL     OW97970  12.962  14.721  12.588
65358SOL    HW197971  12.889  14.715  12.651
65358SOL    HW297972  13.036  14.752  12.640
65359SOL     OW97973  13.739   1.595   8.832
65359SOL    HW197974  13.746   1.504   8.801
65359SOL    HW297975  13.829   1.627   8.832
65360SOL     OW97976   5.980   9.984   9.069
65360SOL    HW197977   5.921   9.925   9.116
65360SOL    HW297978   5.926  10.022   8.999
65361SOL     OW97979  14.011   6.196   2.197
65361SOL    HW197980  13.972   6.131   2.138
65361SOL    HW297981  13.938   6.250   2.224
65362SOL     OW97982  10.800   9.498   4.078
65362SOL    HW197983  10.775   9.441   4.151
65362SOL    HW297984  10.790   9.444   4.000
65363SOL     OW97985   1.127   9.349  11.279
65363SOL    HW197986   1.061   9.400  11.232
65363SOL    HW297987   1.154   9.405  11.351
65364SOL     OW97988  14.110   6.880  10.849
65364SOL    HW197989  14.103   6.830  10.930
65364SOL    HW297990  14.031   6.935  10.847
65365SOL     OW97991  13.198  11.937   2.009
65365SOL    HW197992  13.242  11.987   1.940
65365SOL    HW297993  13.105  11.946   1.989
65366SOL     OW97994   5.489   8.099   3.269
65366SOL    HW197995   5.572   8.144   3.252
65366SOL    HW297996   5.423   8.167   3.256
65367SOL     OW97997   8.176  10.295  12.862
65367SOL    HW197998   8.104  10.234  12.845
65367SOL    HW297999   8.250  10.260  12.813
65368SOL     OW98000   2.145  13.298  11.503
65368SOL    HW198001   2.127  13.367  11.566
65368SOL    HW298002   2.059  13.258  11.487
65369SOL     OW98003  11.459   9.927   7.479
65369SOL    HW198004  11.488   9.893   7.394
65369SOL    HW298005  11.418   9.852   7.522
65370SOL     OW98006   9.045   0.700   9.635
65370SOL    HW198007   9.095   0.624   9.664
65370SOL    HW298008   9.073   0.713   9.544
65371SOL     OW98009  14.445  12.473   7.651
65371SOL    HW198010  14.489  12.428   7.579
65371SOL    HW298011  14.516  12.499   7.710
65372SOL     OW98012   4.894   6.488  10.338
65372SOL    HW198013   4.885   6.426  10.266
65372SOL    HW298014   4.933   6.566  10.298
65373SOL     OW98015   0.044   0.736   3.905
65373SOL    HW198016   0.087   0.777   3.980
65373SOL    HW298017  14.876   0.805   3.868
65374SOL     OW98018  13.976   3.116   4.845
65374SOL    HW198019  14.010   3.164   4.920
65374SOL    HW298020  14.046   3.120   4.780
65375SOL     OW98021   7.571   2.226  13.033
65375SOL    HW198022   7.542   2.234  12.942
65375SOL    HW298023   7.625   2.304  13.047
65376SOL     OW98024   0.288   5.717   2.021
65376SOL    HW198025   0.213   5.682   1.973
65376SOL    HW298026   0.354   5.648   2.018
65377SOL     OW98027   1.681   3.951   3.765
65377SOL    HW198028   1.706   3.921   3.852
65377SOL    HW298029   1.677   4.047   3.773
65378SOL     OW98030  13.272   9.126   7.886
65378SOL    HW198031  13.358   9.092   7.859
65378SOL    HW298032  13.292   9.187   7.957
65379SOL     OW98033   6.329   2.433  12.882
65379SOL    HW198034   6.300   2.375  12.953
65379SOL    HW298035   6.423   2.420  12.877
65380SOL     OW98036  10.054   2.481  11.716
65380SOL    HW198037  10.116   2.508  11.784
65380SOL    HW298038  10.090   2.515  11.634
65381SOL     OW98039  13.490   7.260  13.974
65381SOL    HW198040  13.439   7.317  14.032
65381SOL    HW298041  13.533   7.320  13.913
65382SOL     OW98042   3.574   8.321   1.615
65382SOL    HW198043   3.586   8.260   1.542
65382SOL    HW298044   3.592   8.269   1.693
65383SOL     OW98045   5.438   9.932   7.763
65383SOL    HW198046   5.515   9.941   7.819
65383SOL    HW298047   5.365   9.919   7.824
65384SOL     OW98048   9.231   9.831   6.875
65384SOL    HW198049   9.227   9.778   6.795
65384SOL    HW298050   9.305   9.797   6.924
65385SOL     OW98051   5.650   4.985   0.383
65385SOL    HW198052   5.714   4.977   0.454
65385SOL    HW298053   5.566   4.970   0.426
65386SOL     OW98054   8.824   6.631   9.679
65386SOL    HW198055   8.842   6.589   9.763
65386SOL    HW298056   8.738   6.673   9.691
65387SOL     OW98057   2.107   8.342  14.560
65387SOL    HW198058   2.059   8.409  14.609
65387SOL    HW298059   2.058   8.262  14.576
65388SOL     OW98060  11.326   7.450  12.251
65388SOL    HW198061  11.256   7.455  12.316
65388SOL    HW298062  11.284   7.409  12.175
65389SOL     OW98063   6.721   3.995   9.248
65389SOL    HW198064   6.737   3.982   9.342
65389SOL    HW298065   6.730   4.090   9.235
65390SOL     OW98066  14.814   8.224   8.357
65390SOL    HW198067  14.811   8.234   8.452
65390SOL    HW298068  14.823   8.314   8.324
65391SOL     OW98069   7.032   6.957  14.325
65391SOL    HW198070   6.998   7.047  14.331
65391SOL    HW298071   6.960   6.907  14.288
65392SOL     OW98072  14.048  12.137  11.075
65392SOL    HW198073  14.059  12.057  11.023
65392SOL    HW298074  14.118  12.195  11.044
65393SOL     OW98075   2.458  10.403   8.907
65393SOL    HW198076   2.450  10.310   8.889
65393SOL    HW298077   2.481  10.408   9.000
65394SOL     OW98078   6.084   5.591   8.391
65394SOL    HW198079   6.147   5.661   8.404
65394SOL    HW298080   6.040   5.581   8.475
65395SOL     OW98081   3.843   1.597   5.060
65395SOL    HW198082   3.862   1.503   5.052
65395SOL    HW298083   3.763   1.601   5.113
65396SOL     OW98084  10.726   1.771   4.619
65396SOL    HW198085  10.815   1.741   4.605
65396SOL    HW298086  10.680   1.695   4.655
65397SOL     OW98087  14.300  11.630   5.107
65397SOL    HW198088  14.336  11.543   5.120
65397SOL    HW298089  14.304  11.644   5.012
65398SOL     OW98090  11.038   3.047   7.399
65398SOL    HW198091  11.001   2.969   7.359
65398SOL    HW298092  11.094   3.085   7.331
65399SOL     OW98093   7.445   2.446   1.064
65399SOL    HW198094   7.359   2.484   1.082
65399SOL    HW298095   7.474   2.413   1.149
65400SOL     OW98096  14.025   2.379  13.610
65400SOL    HW198097  14.059   2.289  13.618
65400SOL    HW298098  14.008   2.406  13.700
65401SOL     OW98099   4.370   6.801   0.315
65401SOL    HW198100   4.279   6.812   0.342
65401SOL    HW298101   4.415   6.772   0.395
65402SOL     OW98102   5.553   7.052  14.371
65402SOL    HW198103   5.525   7.074  14.460
65402SOL    HW298104   5.478   7.074  14.316
65403SOL     OW98105   0.772   8.675   8.059
65403SOL    HW198106   0.738   8.763   8.043
65403SOL    HW298107   0.867   8.686   8.066
65404SOL     OW98108   7.198   1.988   1.710
65404SOL    HW198109   7.251   2.042   1.652
65404SOL    HW298110   7.253   1.913   1.732
65405SOL     OW98111   6.809  14.325   0.847
65405SOL    HW198112   6.755  14.327   0.926
65405SOL    HW298113   6.850  14.411   0.844
65406SOL     OW98114  13.298   4.937   3.815
65406SOL    HW198115  13.363   4.981   3.761
65406SOL    HW298116  13.301   4.845   3.786
65407SOL     OW98117   5.887   9.281  11.060
65407SOL    HW198118   5.845   9.295  10.974
65407SOL    HW298119   5.868   9.190  11.082
65408SOL     OW98120  13.743   3.352   7.657
65408SOL    HW198121  13.759   3.398   7.739
65408SOL    HW298122  13.768   3.415   7.589
65409SOL     OW98123   4.144  13.695   9.569
65409SOL    HW198124   4.129  13.790   9.564
65409SOL    HW298125   4.237  13.686   9.588
65410SOL     OW98126   9.155   7.195   3.071
65410SOL    HW198127   9.091   7.125   3.063
65410SOL    HW298128   9.127   7.261   3.008
65411SOL     OW98129   8.711  14.298  12.018
65411SOL    HW198130   8.655  14.283  12.094
65411SOL    HW298131   8.698  14.391  11.997
65412SOL     OW98132   9.254   1.245   4.859
65412SOL    HW198133   9.340   1.274   4.887
65412SOL    HW298134   9.195   1.314   4.889
65413SOL     OW98135   9.007   5.534   5.761
65413SOL    HW198136   8.931   5.523   5.704
65413SOL    HW298137   9.072   5.473   5.726
65414SOL     OW98138  11.755   9.593   1.578
65414SOL    HW198139  11.733   9.503   1.553
65414SOL    HW298140  11.748   9.593   1.674
65415SOL     OW98141   3.097  12.628   8.564
65415SOL    HW198142   3.099  12.723   8.579
65415SOL    HW298143   3.188  12.601   8.575
65416SOL     OW98144  12.371   4.243   0.912
65416SOL    HW198145  12.402   4.223   0.824
65416SOL    HW298146  12.345   4.159   0.949
65417SOL     OW98147   2.159  10.807   7.196
65417SOL    HW198148   2.130  10.801   7.287
65417SOL    HW298149   2.145  10.719   7.160
65418SOL     OW98150   4.851  14.409   3.124
65418SOL    HW198151   4.866  14.376   3.213
65418SOL    HW298152   4.929  14.460   3.104
65419SOL     OW98153   3.443  11.199   0.822
65419SOL    HW198154   3.384  11.264   0.785
65419SOL    HW298155   3.511  11.250   0.865
65420SOL     OW98156   6.159  13.538   1.923
65420SOL    HW198157   6.098  13.468   1.944
65420SOL    HW298158   6.229  13.529   1.988
65421SOL     OW98159  11.009   5.216   0.231
65421SOL    HW198160  10.951   5.160   0.179
65421SOL    HW298161  11.098   5.191   0.203
65422SOL     OW98162  13.160   5.832  11.255
65422SOL    HW198163  13.133   5.741  11.256
65422SOL    HW298164  13.211   5.842  11.175
65423SOL     OW98165   4.277   8.790   7.120
65423SOL    HW198166   4.276   8.726   7.049
65423SOL    HW298167   4.368   8.794   7.148
65424SOL     OW98168   5.465   2.015   2.922
65424SOL    HW198169   5.480   2.048   2.834
65424SOL    HW298170   5.552   2.010   2.961
65425SOL     OW98171   9.149   1.637   7.763
65425SOL    HW198172   9.186   1.722   7.787
65425SOL    HW298173   9.222   1.575   7.772
65426SOL     OW98174   5.699  12.744  12.743
65426SOL    HW198175   5.793  12.761  12.752
65426SOL    HW298176   5.693  12.681  12.670
65427SOL     OW98177   5.810   9.897  10.191
65427SOL    HW198178   5.825   9.976  10.243
65427SOL    HW298179   5.891   9.885  10.142
65428SOL     OW98180   1.574   4.393  13.003
65428SOL    HW198181   1.628   4.320  13.033
65428SOL    HW298182   1.637   4.463  12.985
65429SOL     OW98183   4.665  14.011   2.380
65429SOL    HW198184   4.756  14.033   2.400
65429SOL    HW298185   4.614  14.081   2.422
65430SOL     OW98186   2.533  13.689   2.499
65430SOL    HW198187   2.627  13.705   2.492
65430SOL    HW298188   2.527  13.601   2.537
65431SOL     OW98189  12.455  14.162   9.009
65431SOL    HW198190  12.451  14.072   9.039
65431SOL    HW298191  12.532  14.198   9.052
65432SOL     OW98192  10.245  14.516   3.242
65432SOL    HW198193  10.334  14.516   3.276
65432SOL    HW298194  10.246  14.584   3.174
65433SOL     OW98195   9.073  12.107   4.455
65433SOL    HW198196   8.981  12.121   4.477
65433SOL    HW298197   9.072  12.031   4.397
65434SOL     OW98198   6.867   5.539   2.269
65434SOL    HW198199   6.909   5.471   2.216
65434SOL    HW298200   6.849   5.497   2.353
65435SOL     OW98201   2.851   7.712   0.121
65435SOL    HW198202   2.759   7.715   0.145
65435SOL    HW298203   2.859   7.778   0.052
65436SOL     OW98204   6.141   8.830  13.436
65436SOL    HW198205   6.231   8.797  13.433
65436SOL    HW298206   6.129   8.870  13.350
65437SOL     OW98207   2.329   7.481   3.222
65437SOL    HW198208   2.379   7.546   3.271
65437SOL    HW298209   2.391   7.408   3.209
65438SOL     OW98210   3.386   2.145  14.749
65438SOL    HW198211   3.307   2.093  14.763
65438SOL    HW298212   3.361   2.234  14.772
65439SOL     OW98213  11.361  10.702   4.273
65439SOL    HW198214  11.382  10.794   4.261
65439SOL    HW298215  11.430  10.655   4.226
65440SOL     OW98216  13.599   1.519  14.572
65440SOL    HW198217  13.575   1.429  14.550
65440SOL    HW298218  13.614   1.518  14.666
65441SOL     OW98219  12.404   0.834  14.204
65441SOL    HW198220  12.347   0.811  14.278
65441SOL    HW298221  12.344   0.841  14.129
65442SOL     OW98222   5.458  10.956   9.067
65442SOL    HW198223   5.399  10.903   9.119
65442SOL    HW298224   5.410  11.038   9.052
65443SOL     OW98225   7.160   9.339  11.943
65443SOL    HW198226   7.233   9.363  12.001
65443SOL    HW298227   7.125   9.258  11.980
65444SOL     OW98228   0.985   8.413  14.287
65444SOL    HW198229   1.045   8.342  14.264
65444SOL    HW298230   1.008   8.484  14.228
65445SOL     OW98231   2.793   4.738  11.069
65445SOL    HW198232   2.757   4.669  11.124
65445SOL    HW298233   2.717   4.793  11.047
65446SOL     OW98234   1.655   5.696   1.850
65446SOL    HW198235   1.727   5.759   1.854
65446SOL    HW298236   1.660   5.649   1.933
65447SOL     OW98237  14.566  14.552   1.083
65447SOL    HW198238  14.543  14.548   1.176
65447SOL    HW298239  14.635  14.486   1.073
65448SOL     OW98240   9.107   3.339  13.043
65448SOL    HW198241   9.168   3.352  12.969
65448SOL    HW298242   9.134   3.256  13.081
65449SOL     OW98243   0.236   2.968  12.269
65449SOL    HW198244   0.210   2.913  12.343
65449SOL    HW298245   0.242   3.056  12.306
65450SOL     OW98246   4.603   4.432   6.754
65450SOL    HW198247   4.655   4.397   6.827
65450SOL    HW298248   4.602   4.526   6.768
65451SOL     OW98249   5.599  13.624  13.741
65451SOL    HW198250   5.551  13.543  13.724
65451SOL    HW298251   5.657  13.633  13.665
65452SOL     OW98252   7.656   3.174  10.187
65452SOL    HW198253   7.714   3.106  10.222
65452SOL    HW298254   7.568   3.142  10.206
65453SOL     OW98255  13.024   4.287   1.155
65453SOL    HW198256  12.983   4.305   1.239
65453SOL    HW298257  13.114   4.262   1.177
65454SOL     OW98258   0.858  13.967   1.773
65454SOL    HW198259   0.936  13.960   1.829
65454SOL    HW298260   0.850  13.880   1.733
65455SOL     OW98261  10.414   3.723   8.888
65455SOL    HW198262  10.404   3.719   8.793
65455SOL    HW298263  10.434   3.815   8.906
65456SOL     OW98264   6.545   8.363  11.312
65456SOL    HW198265   6.484   8.429  11.344
65456SOL    HW298266   6.518   8.347  11.222
65457SOL     OW98267   2.329  11.718  12.579
65457SOL    HW198268   2.264  11.653  12.606
65457SOL    HW298269   2.330  11.783  12.649
65458SOL     OW98270  10.436   8.859   6.729
65458SOL    HW198271  10.468   8.924   6.791
65458SOL    HW298272  10.345   8.844   6.755
65459SOL     OW98273   6.919  14.406   4.324
65459SOL    HW198274   6.990  14.341   4.329
65459SOL    HW298275   6.925  14.440   4.235
65460SOL     OW98276   0.467   9.681   1.577
65460SOL    HW198277   0.478   9.645   1.664
65460SOL    HW298278   0.524   9.628   1.521
65461SOL     OW98279   5.946   0.107  11.882
65461SOL    HW198280   5.916   0.101  11.973
65461SOL    HW298281   5.884   0.052  11.833
65462SOL     OW98282   5.646  10.691   3.495
65462SOL    HW198283   5.651  10.780   3.460
65462SOL    HW298284   5.654  10.702   3.590
65463SOL     OW98285  11.830  13.806  12.146
65463SOL    HW198286  11.889  13.750  12.197
65463SOL    HW298287  11.785  13.746  12.087
65464SOL     OW98288   8.182   1.534   6.922
65464SOL    HW198289   8.096   1.528   6.880
65464SOL    HW298290   8.162   1.556   7.013
65465SOL     OW98291   6.672   4.948  14.419
65465SOL    HW198292   6.619   4.927  14.342
65465SOL    HW298293   6.709   5.034  14.400
65466SOL     OW98294  11.708  10.351   2.754
65466SOL    HW198295  11.785  10.405   2.734
65466SOL    HW298296  11.669  10.331   2.669
65467SOL     OW98297  13.261   0.104   3.777
65467SOL    HW198298  13.268   0.083   3.684
65467SOL    HW298299  13.253   0.019   3.820
65468SOL     OW98300  12.575   1.306  14.556
65468SOL    HW198301  12.620   1.331  14.475
65468SOL    HW298302  12.517   1.380  14.575
65469SOL     OW98303  14.171  13.440  13.892
65469SOL    HW198304  14.126  13.523  13.876
65469SOL    HW298305  14.143  13.415  13.980
65470SOL     OW98306   0.007  13.634   5.864
65470SOL    HW198307   0.058  13.574   5.919
65470SOL    HW298308  14.804  13.605   5.873
65471SOL     OW98309   8.962  11.268  13.887
65471SOL    HW198310   8.900  11.206  13.925
65471SOL    HW298311   8.920  11.354  13.897
65472SOL     OW98312   6.423   5.096   7.820
65472SOL    HW198313   6.483   5.156   7.775
65472SOL    HW298314   6.366   5.153   7.871
65473SOL     OW98315   8.368  13.090   6.416
65473SOL    HW198316   8.356  13.181   6.444
65473SOL    HW298317   8.448  13.093   6.363
65474SOL     OW98318   9.744   6.643  13.429
65474SOL    HW198319   9.709   6.728  13.403
65474SOL    HW298320   9.693   6.618  13.506
65475SOL     OW98321   6.690  14.325   4.513
65475SOL    HW198322   6.736  14.354   4.434
65475SOL    HW298323   6.702  14.231   4.515
65476SOL     OW98324   7.668   6.575   5.589
65476SOL    HW198325   7.670   6.571   5.494
65476SOL    HW298326   7.760   6.588   5.614
65477SOL     OW98327   1.236   2.895   2.116
65477SOL    HW198328   1.317   2.854   2.149
65477SOL    HW298329   1.170   2.872   2.181
65478SOL     OW98330   3.771  10.300  10.708
65478SOL    HW198331   3.837  10.328  10.645
65478SOL    HW298332   3.757  10.377  10.764
65479SOL     OW98333   5.124   7.346  12.821
65479SOL    HW198334   5.173   7.276  12.778
65479SOL    HW298335   5.189   7.392  12.873
65480SOL     OW98336  12.970   3.064  12.078
65480SOL    HW198337  12.917   2.989  12.052
65480SOL    HW298338  12.948   3.079  12.170
65481SOL     OW98339   1.831  12.255  14.136
65481SOL    HW198340   1.786  12.313  14.075
65481SOL    HW298341   1.771  12.248  14.210
65482SOL     OW98342   5.618   3.667   1.602
65482SOL    HW198343   5.693   3.608   1.611
65482SOL    HW298344   5.657   3.755   1.605
65483SOL     OW98345  13.538   9.316   8.811
65483SOL    HW198346  13.553   9.227   8.843
65483SOL    HW298347  13.451   9.338   8.842
65484SOL     OW98348   2.703   2.832  11.017
65484SOL    HW198349   2.623   2.790  10.984
65484SOL    HW298350   2.723   2.786  11.098
65485SOL     OW98351   6.333   4.682  10.779
65485SOL    HW198352   6.293   4.710  10.861
65485SOL    HW298353   6.296   4.740  10.713
65486SOL     OW98354   3.993  12.042   2.093
65486SOL    HW198355   4.042  12.088   2.024
65486SOL    HW298356   4.032  12.073   2.174
65487SOL     OW98357   5.193  12.491   3.500
65487SOL    HW198358   5.282  12.519   3.476
65487SOL    HW298359   5.181  12.408   3.454
65488SOL     OW98360  12.764  13.958  13.140
65488SOL    HW198361  12.806  14.019  13.201
65488SOL    HW298362  12.674  13.990  13.133
65489SOL     OW98363   8.518   5.186   4.961
65489SOL    HW198364   8.569   5.105   4.967
65489SOL    HW298365   8.577   5.254   4.992
65490SOL     OW98366  14.036   2.288   2.839
65490SOL    HW198367  14.104   2.322   2.781
65490SOL    HW298368  13.960   2.274   2.783
65491SOL     OW98369   8.577   7.456  13.329
65491SOL    HW198370   8.627   7.441  13.409
65491SOL    HW298371   8.486   7.442  13.354
65492SOL     OW98372   8.240   3.706  14.025
65492SOL    HW198373   8.277   3.651  13.956
65492SOL    HW298374   8.199   3.644  14.086
65493SOL     OW98375  13.387   9.791   0.974
65493SOL    HW198376  13.481   9.801   0.958
65493SOL    HW298377  13.374   9.697   0.986
65494SOL     OW98378   8.226   8.037   7.788
65494SOL    HW198379   8.274   8.106   7.742
65494SOL    HW298380   8.165   8.083   7.845
65495SOL     OW98381   9.860   6.684   9.070
65495SOL    HW198382   9.944   6.726   9.051
65495SOL    HW298383   9.799   6.723   9.007
65496SOL     OW98384   6.761  10.278   8.874
65496SOL    HW198385   6.798  10.200   8.831
65496SOL    HW298386   6.834  10.341   8.876
65497SOL     OW98387   9.487   3.002   4.631
65497SOL    HW198388   9.521   3.023   4.544
65497SOL    HW298389   9.428   3.074   4.652
65498SOL     OW98390  13.557   5.352  12.606
65498SOL    HW198391  13.554   5.434  12.654
65498SOL    HW298392  13.474   5.310  12.625
65499SOL     OW98393   8.080  12.168   2.816
65499SOL    HW198394   8.137  12.241   2.841
65499SOL    HW298395   8.139  12.102   2.781
65500SOL     OW98396   0.419   5.340   5.866
65500SOL    HW198397   0.507   5.342   5.903
65500SOL    HW298398   0.382   5.257   5.896
65501SOL     OW98399   0.544   1.246  13.139
65501SOL    HW198400   0.602   1.227  13.066
65501SOL    HW298401   0.512   1.335  13.122
65502SOL     OW98402   2.850  14.624   1.768
65502SOL    HW198403   2.880  14.654   1.854
65502SOL    HW298404   2.770  14.575   1.787
65503SOL     OW98405  14.745   6.350  11.594
65503SOL    HW198406  14.784   6.336  11.681
65503SOL    HW298407  14.714   6.264  11.567
65504SOL     OW98408  10.659   8.111   0.456
65504SOL    HW198409  10.590   8.131   0.520
65504SOL    HW298410  10.616   8.124   0.371
65505SOL     OW98411   7.543   3.778  12.123
65505SOL    HW198412   7.627   3.741  12.150
65505SOL    HW298413   7.489   3.702  12.101
65506SOL     OW98414   8.603   9.101  10.181
65506SOL    HW198415   8.617   9.015  10.141
65506SOL    HW298416   8.652   9.161  10.126
65507SOL     OW98417   6.582  11.888   9.143
65507SOL    HW198418   6.499  11.841   9.151
65507SOL    HW298419   6.625  11.846   9.068
65508SOL     OW98420   2.815  12.983  14.122
65508SOL    HW198421   2.724  12.963  14.104
65508SOL    HW298422   2.862  12.901  14.103
65509SOL     OW98423  12.657   3.741   8.074
65509SOL    HW198424  12.573   3.734   8.120
65509SOL    HW298425  12.721   3.713   8.140
65510SOL     OW98426   7.682  10.530   9.192
65510SOL    HW198427   7.692  10.522   9.097
65510SOL    HW298428   7.770  10.516   9.227
65511SOL     OW98429  12.657   8.092   5.293
65511SOL    HW198430  12.599   8.150   5.342
65511SOL    HW298431  12.616   8.085   5.206
65512SOL     OW98432   1.291  10.418   4.109
65512SOL    HW198433   1.217  10.426   4.048
65512SOL    HW298434   1.326  10.330   4.092
65513SOL     OW98435  12.451   9.705  10.833
65513SOL    HW198436  12.486   9.657  10.759
65513SOL    HW298437  12.357   9.709  10.816
65514SOL     OW98438   2.211   3.523  12.167
65514SOL    HW198439   2.188   3.574  12.244
65514SOL    HW298440   2.301   3.494  12.182
65515SOL     OW98441  11.943  10.489   7.943
65515SOL    HW198442  11.864  10.459   7.989
65515SOL    HW298443  11.922  10.477   7.850
65516SOL     OW98444   6.656  11.436   5.318
65516SOL    HW198445   6.639  11.389   5.399
65516SOL    HW298446   6.751  11.430   5.306
65517SOL     OW98447  12.973   5.085   3.320
65517SOL    HW198448  13.031   5.145   3.365
65517SOL    HW298449  12.885   5.112   3.345
65518SOL     OW98450   9.883   8.338  10.222
65518SOL    HW198451   9.972   8.369  10.237
65518SOL    HW298452   9.881   8.314  10.129
65519SOL     OW98453   0.285  11.834  11.718
65519SOL    HW198454   0.373  11.830  11.682
65519SOL    HW298455   0.240  11.758  11.681
65520SOL     OW98456  14.613   7.441   5.173
65520SOL    HW198457  14.698   7.481   5.155
65520SOL    HW298458  14.599   7.456   5.266
65521SOL     OW98459   0.549  14.290  12.010
65521SOL    HW198460   0.547  14.283  11.915
65521SOL    HW298461   0.634  14.253  12.034
65522SOL     OW98462   1.954   6.566   0.246
65522SOL    HW198463   1.980   6.651   0.282
65522SOL    HW298464   2.013   6.504   0.287
65523SOL     OW98465   9.386  10.480   3.348
65523SOL    HW198466   9.410  10.508   3.260
65523SOL    HW298467   9.293  10.458   3.342
65524SOL     OW98468  10.889   2.260   5.548
65524SOL    HW198469  10.907   2.342   5.503
65524SOL    HW298470  10.962   2.203   5.524
65525SOL     OW98471  14.678  11.584   1.718
65525SOL    HW198472  14.642  11.501   1.749
65525SOL    HW298473  14.713  11.626   1.796
65526SOL     OW98474   1.156  11.691  13.239
65526SOL    HW198475   1.073  11.655  13.207
65526SOL    HW298476   1.221  11.659  13.177
65527SOL     OW98477  14.018  11.310   4.880
65527SOL    HW198478  14.052  11.222   4.896
65527SOL    HW298479  13.928  11.308   4.913
65528SOL     OW98480  12.935   6.559  11.432
65528SOL    HW198481  12.960   6.481  11.382
65528SOL    HW298482  13.012   6.580  11.484
65529SOL     OW98483  14.532  11.175  10.153
65529SOL    HW198484  14.490  11.188  10.238
65529SOL    HW298485  14.504  11.088  10.125
65530SOL     OW98486   2.742   7.355   8.627
65530SOL    HW198487   2.676   7.345   8.558
65530SOL    HW298488   2.699   7.411   8.692
65531SOL     OW98489   1.207   6.116   0.122
65531SOL    HW198490   1.244   6.198   0.156
65531SOL    HW298491   1.155   6.082   0.195
65532SOL     OW98492   4.887   5.697   1.093
65532SOL    HW198493   4.961   5.667   1.147
65532SOL    HW298494   4.927   5.726   1.011
65533SOL     OW98495   7.645   2.602  14.601
65533SOL    HW198496   7.626   2.509  14.587
65533SOL    HW298497   7.577   2.631  14.662
65534SOL     OW98498   0.090  13.665   0.204
65534SOL    HW198499   0.150  13.667   0.278
65534SOL    HW298500   0.010  13.707   0.236
65535SOL     OW98501  12.716   4.830  14.258
65535SOL    HW198502  12.667   4.785  14.326
65535SOL    HW298503  12.804   4.840  14.293
65536SOL     OW98504  10.995   6.862   9.303
65536SOL    HW198505  10.923   6.923   9.287
65536SOL    HW298506  10.957   6.792   9.356
65537SOL     OW98507   3.590   8.583   8.335
65537SOL    HW198508   3.626   8.668   8.362
65537SOL    HW298509   3.656   8.519   8.364
65538SOL     OW98510  13.885   3.274  11.032
65538SOL    HW198511  13.793   3.275  11.055
65538SOL    HW298512  13.886   3.278  10.936
65539SOL     OW98513  10.697   7.486   1.463
65539SOL    HW198514  10.690   7.497   1.558
65539SOL    HW298515  10.709   7.575   1.429
65540SOL     OW98516  11.816  13.059   5.120
65540SOL    HW198517  11.756  13.070   5.194
65540SOL    HW298518  11.817  13.145   5.078
65541SOL     OW98519   9.330  12.321   4.299
65541SOL    HW198520   9.304  12.410   4.275
65541SOL    HW298521   9.301  12.310   4.389
65542SOL     OW98522   3.155   1.397   6.466
65542SOL    HW198523   3.071   1.424   6.427
65542SOL    HW298524   3.132   1.323   6.523
65543SOL     OW98525   4.736   9.844   2.453
65543SOL    HW198526   4.670   9.826   2.521
65543SOL    HW298527   4.720   9.935   2.429
65544SOL     OW98528   4.163   1.708  12.206
65544SOL    HW198529   4.072   1.738  12.217
65544SOL    HW298530   4.157   1.613  12.207
65545SOL     OW98531  12.061  13.423  14.108
65545SOL    HW198532  12.038  13.332  14.090
65545SOL    HW298533  11.988  13.474  14.073
65546SOL     OW98534   2.227   1.433   9.614
65546SOL    HW198535   2.309   1.482   9.606
65546SOL    HW298536   2.252   1.350   9.655
65547SOL     OW98537   9.012   4.525  11.301
65547SOL    HW198538   9.099   4.546  11.336
65547SOL    HW298539   8.978   4.608  11.269
65548SOL     OW98540  13.378   7.013   4.680
65548SOL    HW198541  13.287   7.036   4.701
65548SOL    HW298542  13.371   6.941   4.618
65549SOL     OW98543   5.833   7.190  14.487
65549SOL    HW198544   5.856   7.167  14.577
65549SOL    HW298545   5.793   7.276  14.493
65550SOL     OW98546   4.128   5.116  14.314
65550SOL    HW198547   4.033   5.122  14.320
65550SOL    HW298548   4.151   5.167  14.237
65551SOL     OW98549  12.003   1.098   3.168
65551SOL    HW198550  11.968   1.126   3.084
65551SOL    HW298551  12.011   1.003   3.161
65552SOL     OW98552   3.318  14.155  13.126
65552SOL    HW198553   3.388  14.127  13.068
65552SOL    HW298554   3.361  14.172  13.210
65553SOL     OW98555   2.185   5.932   7.250
65553SOL    HW198556   2.105   5.921   7.199
65553SOL    HW298557   2.158   5.916   7.341
65554SOL     OW98558   7.986   0.284  13.299
65554SOL    HW198559   7.987   0.205  13.245
65554SOL    HW298560   7.905   0.277  13.350
65555SOL     OW98561   6.323   2.778   0.012
65555SOL    HW198562   6.268   2.754   0.086
65555SOL    HW298563   6.409   2.741   0.033
65556SOL     OW98564   4.451  11.943   7.454
65556SOL    HW198565   4.390  11.959   7.381
65556SOL    HW298566   4.519  11.888   7.416
65557SOL     OW98567  10.665   5.537   6.471
65557SOL    HW198568  10.626   5.452   6.492
65557SOL    HW298569  10.760   5.521   6.471
65558SOL     OW98570  14.760  14.355   7.010
65558SOL    HW198571  14.727  14.271   7.042
65558SOL    HW298572  14.718  14.366   6.924
65559SOL     OW98573   0.597  11.702  12.169
65559SOL    HW198574   0.536  11.667  12.234
65559SOL    HW298575   0.634  11.624  12.127
65560SOL     OW98576   7.480  14.631   8.896
65560SOL    HW198577   7.449  14.705   8.948
65560SOL    HW298578   7.450  14.650   8.807
65561SOL     OW98579   2.334  11.977   2.257
65561SOL    HW198580   2.402  12.044   2.265
65561SOL    HW298581   2.382  11.894   2.260
65562SOL     OW98582   5.072  13.047   1.662
65562SOL    HW198583   5.114  12.961   1.673
65562SOL    HW298584   5.045  13.049   1.571
65563SOL     OW98585   4.376  10.030  12.263
65563SOL    HW198586   4.411  10.017  12.175
65563SOL    HW298587   4.321  10.108  12.256
65564SOL     OW98588   3.713   8.062   6.059
65564SOL    HW198589   3.708   8.025   6.147
65564SOL    HW298590   3.786   8.016   6.017
65565SOL     OW98591  11.701  13.587   5.200
65565SOL    HW198592  11.775  13.630   5.244
65565SOL    HW298593  11.655  13.659   5.156
65566SOL     OW98594   8.816   8.900   1.968
65566SOL    HW198595   8.794   8.842   1.895
65566SOL    HW298596   8.741   8.895   2.027
65567SOL     OW98597   4.557   2.334   3.607
65567SOL    HW198598   4.578   2.249   3.645
65567SOL    HW298599   4.596   2.331   3.520
65568SOL     OW98600  12.335   1.554   6.819
65568SOL    HW198601  12.363   1.464   6.807
65568SOL    HW298602  12.310   1.583   6.731
65569SOL     OW98603   3.078   6.224  13.866
65569SOL    HW198604   3.148   6.185  13.918
65569SOL    HW298605   3.029   6.150  13.832
65570SOL     OW98606   8.516   3.639   9.029
65570SOL    HW198607   8.547   3.565   8.977
65570SOL    HW298608   8.448   3.603   9.086
65571SOL     OW98609   3.638  13.174   7.810
65571SOL    HW198610   3.718  13.222   7.827
65571SOL    HW298611   3.568  13.237   7.825
65572SOL     OW98612   1.250   4.514  10.572
65572SOL    HW198613   1.215   4.591  10.615
65572SOL    HW298614   1.185   4.445  10.589
65573SOL     OW98615   8.202   2.959   5.811
65573SOL    HW198616   8.186   2.885   5.754
65573SOL    HW298617   8.293   2.949   5.839
65574SOL     OW98618   2.724   7.032   7.941
65574SOL    HW198619   2.710   7.092   8.015
65574SOL    HW298620   2.812   7.054   7.910
65575SOL     OW98621   5.729   3.519   2.802
65575SOL    HW198622   5.677   3.497   2.725
65575SOL    HW298623   5.728   3.439   2.855
65576SOL     OW98624   0.521   4.525  10.121
65576SOL    HW198625   0.471   4.472  10.183
65576SOL    HW298626   0.592   4.468  10.092
65577SOL     OW98627   4.915  13.078  12.646
65577SOL    HW198628   4.995  13.040  12.682
65577SOL    HW298629   4.924  13.172  12.660
65578SOL     OW98630   2.637   6.431  14.539
65578SOL    HW198631   2.670   6.350  14.577
65578SOL    HW298632   2.660   6.498  14.602
65579SOL     OW98633   1.701  11.296   4.387
65579SOL    HW198634   1.675  11.304   4.295
65579SOL    HW298635   1.671  11.209   4.412
65580SOL     OW98636  13.677   0.442  10.476
65580SOL    HW198637  13.601   0.484  10.436
65580SOL    HW298638  13.704   0.502  10.545
65581SOL     OW98639  14.005   2.374  14.443
65581SOL    HW198640  13.935   2.328  14.488
65581SOL    HW298641  14.049   2.306  14.391
65582SOL     OW98642  11.015  11.209   6.169
65582SOL    HW198643  11.051  11.121   6.169
65582SOL    HW298644  10.936  11.204   6.115
65583SOL     OW98645   8.499  13.147  10.433
65583SOL    HW198646   8.431  13.107  10.487
65583SOL    HW298647   8.460  13.154  10.345
65584SOL     OW98648   3.845   2.108   2.810
65584SOL    HW198649   3.773   2.051   2.784
65584SOL    HW298650   3.901   2.053   2.864
65585SOL     OW98651  14.364   6.874   7.611
65585SOL    HW198652  14.357   6.890   7.705
65585SOL    HW298653  14.405   6.954   7.576
65586SOL     OW98654  13.266   4.325   2.693
65586SOL    HW198655  13.253   4.288   2.780
65586SOL    HW298656  13.182   4.366   2.672
65587SOL     OW98657   6.396   0.387   3.117
65587SOL    HW198658   6.381   0.356   3.206
65587SOL    HW298659   6.490   0.376   3.103
65588SOL     OW98660   7.498   3.505   9.444
65588SOL    HW198661   7.493   3.595   9.475
65588SOL    HW298662   7.551   3.510   9.365
65589SOL     OW98663   0.649   1.448   9.428
65589SOL    HW198664   0.647   1.468   9.522
65589SOL    HW298665   0.704   1.516   9.390
65590SOL     OW98666   2.033   5.658   4.357
65590SOL    HW198667   2.098   5.617   4.300
65590SOL    HW298668   1.994   5.585   4.405
65591SOL     OW98669  10.366   5.553   2.767
65591SOL    HW198670  10.416   5.575   2.846
65591SOL    HW298671  10.286   5.606   2.775
65592SOL     OW98672   4.456   6.568   6.596
65592SOL    HW198673   4.380   6.587   6.651
65592SOL    HW298674   4.521   6.532   6.657
65593SOL     OW98675   7.696  11.948   7.691
65593SOL    HW198676   7.651  11.901   7.761
65593SOL    HW298677   7.736  12.024   7.733
65594SOL     OW98678  10.098   0.267  10.567
65594SOL    HW198679  10.162   0.218  10.515
65594SOL    HW298680  10.053   0.200  10.619
65595SOL     OW98681  10.203  10.793   7.216
65595SOL    HW198682  10.150  10.833   7.146
65595SOL    HW298683  10.293  10.807   7.187
65596SOL     OW98684   9.790   2.627   0.113
65596SOL    HW198685   9.705   2.585   0.117
65596SOL    HW298686   9.836   2.596   0.191
65597SOL     OW98687  10.237   9.007   8.987
65597SOL    HW198688  10.291   8.968   9.056
65597SOL    HW298689  10.279   8.980   8.905
65598SOL     OW98690   3.478   1.261  11.766
65598SOL    HW198691   3.535   1.269  11.843
65598SOL    HW298692   3.419   1.188  11.787
65599SOL     OW98693   2.009  13.350   5.659
65599SOL    HW198694   1.942  13.418   5.659
65599SOL    HW298695   2.046  13.352   5.747
65600SOL     OW98696   4.862   8.843   0.656
65600SOL    HW198697   4.936   8.844   0.596
65600SOL    HW298698   4.813   8.923   0.636
65601SOL     OW98699   0.016   0.357  12.134
65601SOL    HW198700   0.017   0.305  12.054
65601SOL    HW298701  14.883   0.295  12.204
65602SOL     OW98702   7.357   4.867  10.328
65602SOL    HW198703   7.311   4.831  10.405
65602SOL    HW298704   7.448   4.839  10.341
65603SOL     OW98705  11.599   1.947  13.555
65603SOL    HW198706  11.596   2.009  13.628
65603SOL    HW298707  11.690   1.946  13.528
65604SOL     OW98708   2.716   4.986   9.698
65604SOL    HW198709   2.783   5.044   9.733
65604SOL    HW298710   2.734   4.983   9.604
65605SOL     OW98711   5.605   8.197  14.041
65605SOL    HW198712   5.680   8.172  14.094
65605SOL    HW298713   5.564   8.269  14.089
65606SOL     OW98714   9.425   6.112   7.279
65606SOL    HW198715   9.385   6.197   7.299
65606SOL    HW298716   9.368   6.048   7.321
65607SOL     OW98717  14.182   1.195   3.872
65607SOL    HW198718  14.123   1.121   3.856
65607SOL    HW298719  14.260   1.156   3.911
65608SOL     OW98720  12.217   1.363   0.279
65608SOL    HW198721  12.216   1.458   0.288
65608SOL    HW298722  12.246   1.348   0.189
65609SOL     OW98723  12.448  10.598   0.123
65609SOL    HW198724  12.353  10.593   0.115
65609SOL    HW298725  12.478  10.509   0.106
65610SOL     OW98726  12.823  13.798   1.799
65610SOL    HW198727  12.813  13.889   1.771
65610SOL    HW298728  12.735  13.761   1.792
65611SOL     OW98729  13.486  14.032   4.904
65611SOL    HW198730  13.486  14.081   4.822
65611SOL    HW298731  13.576  14.038   4.935
65612SOL     OW98732  14.190   4.817  12.783
65612SOL    HW198733  14.234   4.886  12.732
65612SOL    HW298734  14.221   4.735  12.745
65613SOL     OW98735   6.283  11.862   9.855
65613SOL    HW198736   6.319  11.773   9.859
65613SOL    HW298737   6.189  11.850   9.866
65614SOL     OW98738   6.549   8.353   0.867
65614SOL    HW198739   6.556   8.329   0.774
65614SOL    HW298740   6.488   8.426   0.868
65615SOL     OW98741   7.928  13.111   6.558
65615SOL    HW198742   7.890  13.064   6.633
65615SOL    HW298743   8.007  13.152   6.594
65616SOL     OW98744  10.554  11.524  14.729
65616SOL    HW198745  10.594  11.451  14.776
65616SOL    HW298746  10.488  11.559  14.789
65617SOL     OW98747   8.765   1.065   4.845
65617SOL    HW198748   8.796   1.022   4.924
65617SOL    HW298749   8.788   1.004   4.774
65618SOL     OW98750  10.673  14.078   2.872
65618SOL    HW198751  10.738  14.096   2.804
65618SOL    HW298752  10.676  13.983   2.884
65619SOL     OW98753  14.352   8.220   6.767
65619SOL    HW198754  14.398   8.272   6.701
65619SOL    HW298755  14.276   8.273   6.791
65620SOL     OW98756   7.493   5.249   7.410
65620SOL    HW198757   7.425   5.222   7.348
65620SOL    HW298758   7.487   5.184   7.481
65621SOL     OW98759  11.638   7.994   0.435
65621SOL    HW198760  11.574   7.945   0.383
65621SOL    HW298761  11.715   7.937   0.439
65622SOL     OW98762  14.801  13.284   3.397
65622SOL    HW198763  14.786  13.377   3.382
65622SOL    HW298764  14.831  13.279   3.487
65623SOL     OW98765  11.156  12.729   9.847
65623SOL    HW198766  11.233  12.755   9.797
65623SOL    HW298767  11.145  12.637   9.827
65624SOL     OW98768   1.726   0.163   8.691
65624SOL    HW198769   1.738   0.086   8.636
65624SOL    HW298770   1.631   0.176   8.693
65625SOL     OW98771   8.974   4.762   2.514
65625SOL    HW198772   8.981   4.768   2.609
65625SOL    HW298773   8.956   4.852   2.485
65626SOL     OW98774  13.348   7.718  12.784
65626SOL    HW198775  13.275   7.749  12.731
65626SOL    HW298776  13.311   7.646  12.836
65627SOL     OW98777   4.805   6.788  12.650
65627SOL    HW198778   4.730   6.847  12.653
65627SOL    HW298779   4.809   6.750  12.738
65628SOL     OW98780   9.198  12.625   0.878
65628SOL    HW198781   9.291  12.607   0.889
65628SOL    HW298782   9.161  12.616   0.966
65629SOL     OW98783  14.746  10.904   5.125
65629SOL    HW198784  14.812  10.973   5.126
65629SOL    HW298785  14.694  10.920   5.204
65630SOL     OW98786   6.288   0.449   8.585
65630SOL    HW198787   6.370   0.402   8.564
65630SOL    HW298788   6.304   0.488   8.670
65631SOL     OW98789  11.988   0.467   4.562
65631SOL    HW198790  11.901   0.506   4.571
65631SOL    HW298791  11.971   0.373   4.551
65632SOL     OW98792  14.541  13.443   9.759
65632SOL    HW198793  14.520  13.504   9.830
65632SOL    HW298794  14.491  13.364   9.779
65633SOL     OW98795  10.979  12.711  10.821
65633SOL    HW198796  10.978  12.754  10.907
65633SOL    HW298797  11.021  12.626  10.837
65634SOL     OW98798   0.625  12.671   1.599
65634SOL    HW198799   0.587  12.737   1.657
65634SOL    HW298800   0.624  12.590   1.651
65635SOL     OW98801   4.081  13.012   3.061
65635SOL    HW198802   3.990  12.995   3.037
65635SOL    HW298803   4.133  12.963   2.996
65636SOL     OW98804  10.587  11.797  10.659
65636SOL    HW198805  10.658  11.763  10.714
65636SOL    HW298806  10.619  11.786  10.569
65637SOL     OW98807  12.972   0.652   5.971
65637SOL    HW198808  12.888   0.691   5.944
65637SOL    HW298809  13.023   0.725   6.004
65638SOL     OW98810   4.394   4.999   3.401
65638SOL    HW198811   4.347   5.004   3.318
65638SOL    HW298812   4.358   5.070   3.454
65639SOL     OW98813   8.580   4.655   6.054
65639SOL    HW198814   8.672   4.679   6.070
65639SOL    HW298815   8.539   4.737   6.026
65640SOL     OW98816   0.742  13.056   7.334
65640SOL    HW198817   0.802  13.046   7.408
65640SOL    HW298818   0.655  13.058   7.374
65641SOL     OW98819   5.332   5.160   1.261
65641SOL    HW198820   5.328   5.185   1.168
65641SOL    HW298821   5.256   5.202   1.300
65642SOL     OW98822   7.983  11.265  11.697
65642SOL    HW198823   8.051  11.268  11.630
65642SOL    HW298824   7.960  11.357  11.712
65643SOL     OW98825   5.393   0.676  14.072
65643SOL    HW198826   5.351   0.634  13.998
65643SOL    HW298827   5.473   0.714  14.036
65644SOL     OW98828   6.916   7.364   6.151
65644SOL    HW198829   6.970   7.392   6.076
65644SOL    HW298830   6.972   7.381   6.227
65645SOL     OW98831   0.721   1.335   1.383
65645SOL    HW198832   0.687   1.395   1.317
65645SOL    HW298833   0.798   1.378   1.418
65646SOL     OW98834   4.457   6.504  11.382
65646SOL    HW198835   4.421   6.527  11.468
65646SOL    HW298836   4.551   6.515  11.392
65647SOL     OW98837  10.758   9.990  11.741
65647SOL    HW198838  10.715  10.074  11.755
65647SOL    HW298839  10.690   9.933  11.705
65648SOL     OW98840  11.473   8.861  12.975
65648SOL    HW198841  11.437   8.910  13.049
65648SOL    HW298842  11.449   8.770  12.992
65649SOL     OW98843   1.400   0.465   7.476
65649SOL    HW198844   1.448   0.385   7.456
65649SOL    HW298845   1.468   0.532   7.487
65650SOL     OW98846   5.722  13.752   3.859
65650SOL    HW198847   5.730  13.744   3.764
65650SOL    HW298848   5.785  13.690   3.894
65651SOL     OW98849  12.428  14.022  11.561
65651SOL    HW198850  12.365  14.033  11.632
65651SOL    HW298851  12.433  13.928  11.547
65652SOL     OW98852   0.669  13.139  12.418
65652SOL    HW198853   0.653  13.223  12.376
65652SOL    HW298854   0.610  13.138  12.494
65653SOL     OW98855   0.155   8.687   6.961
65653SOL    HW198856   0.073   8.662   7.003
65653SOL    HW298857   0.223   8.655   7.021
65654SOL     OW98858  14.886  10.863   0.525
65654SOL    HW198859   0.053  10.868   0.604
65654SOL    HW298860  14.812  10.922   0.543
65655SOL     OW98861   9.510   9.562  13.868
65655SOL    HW198862   9.496   9.497  13.936
65655SOL    HW298863   9.433   9.619  13.874
65656SOL     OW98864  10.689   4.911  13.568
65656SOL    HW198865  10.611   4.914  13.624
65656SOL    HW298866  10.717   5.002  13.560
65657SOL     OW98867   4.236   5.286  10.360
65657SOL    HW198868   4.220   5.356  10.424
65657SOL    HW298869   4.160   5.229  10.369
65658SOL     OW98870   3.615   1.670  14.013
65658SOL    HW198871   3.651   1.644  14.097
65658SOL    HW298872   3.639   1.599  13.953
65659SOL     OW98873   1.609   3.654  11.962
65659SOL    HW198874   1.596   3.749  11.965
65659SOL    HW298875   1.605   3.626  12.053
65660SOL     OW98876   9.763   0.761  13.075
65660SOL    HW198877   9.833   0.818  13.107
65660SOL    HW298878   9.697   0.762  13.144
65661SOL     OW98879   5.909   1.530  10.928
65661SOL    HW198880   5.886   1.586  10.853
65661SOL    HW298881   5.970   1.583  10.979
65662SOL     OW98882   7.657   2.758   0.051
65662SOL    HW198883   7.710   2.682   0.075
65662SOL    HW298884   7.719   2.820   0.013
65663SOL     OW98885  11.570   1.538   0.979
65663SOL    HW198886  11.519   1.458   0.968
65663SOL    HW298887  11.652   1.521   0.931
65664SOL     OW98888  13.263   8.958   8.166
65664SOL    HW198889  13.326   9.028   8.148
65664SOL    HW298890  13.190   8.975   8.106
65665SOL     OW98891  12.794   7.425   6.334
65665SOL    HW198892  12.843   7.507   6.337
65665SOL    HW298893  12.857   7.358   6.359
65666SOL     OW98894  12.673   3.891   2.063
65666SOL    HW198895  12.630   3.975   2.077
65666SOL    HW298896  12.728   3.905   1.986
65667SOL     OW98897  13.731   2.417   9.327
65667SOL    HW198898  13.709   2.358   9.399
65667SOL    HW298899  13.752   2.359   9.254
65668SOL     OW98900   8.411  10.024  14.284
65668SOL    HW198901   8.466   9.956  14.323
65668SOL    HW298902   8.469  10.101  14.278
65669SOL     OW98903   9.656   4.650   3.417
65669SOL    HW198904   9.610   4.733   3.429
65669SOL    HW298905   9.744   4.665   3.452
65670SOL     OW98906  11.818  14.085  14.706
65670SOL    HW198907  11.775  14.164  14.672
65670SOL    HW298908  11.898  14.078  14.654
65671SOL     OW98909   3.704   5.202   5.102
65671SOL    HW198910   3.706   5.192   5.007
65671SOL    HW298911   3.625   5.252   5.119
65672SOL     OW98912   9.690  10.197   7.544
65672SOL    HW198913   9.719  10.201   7.635
65672SOL    HW298914   9.671  10.288   7.521
65673SOL     OW98915   5.091   0.226  12.676
65673SOL    HW198916   5.067   0.313  12.645
65673SOL    HW298917   5.185   0.231  12.689
65674SOL     OW98918  10.908   1.284   4.945
65674SOL    HW198919  10.949   1.338   4.877
65674SOL    HW298920  10.910   1.195   4.910
65675SOL     OW98921  11.416  11.350  10.182
65675SOL    HW198922  11.375  11.304  10.256
65675SOL    HW298923  11.485  11.290  10.153
65676SOL     OW98924   2.126  11.709   3.165
65676SOL    HW198925   2.044  11.661   3.153
65676SOL    HW298926   2.099  11.801   3.169
65677SOL     OW98927   5.795  13.418  11.104
65677SOL    HW198928   5.771  13.325  11.104
65677SOL    HW298929   5.823  13.435  11.014
65678SOL     OW98930   4.331   3.929  12.986
65678SOL    HW198931   4.296   3.998  13.042
65678SOL    HW298932   4.412   3.901  13.028
65679SOL     OW98933   8.396   1.575   2.227
65679SOL    HW198934   8.313   1.607   2.190
65679SOL    HW298935   8.424   1.645   2.286
65680SOL     OW98936   6.461  14.498  12.472
65680SOL    HW198937   6.373  14.462  12.471
65680SOL    HW298938   6.505  14.452  12.543
65681SOL     OW98939  14.719   0.606  11.202
65681SOL    HW198940  14.739   0.672  11.135
65681SOL    HW298941  14.658   0.546  11.160
65682SOL     OW98942   9.197   2.612   0.508
65682SOL    HW198943   9.163   2.680   0.450
65682SOL    HW298944   9.170   2.640   0.596
65683SOL     OW98945  14.152   2.279  10.385
65683SOL    HW198946  14.128   2.186  10.380
65683SOL    HW298947  14.225   2.289  10.324
65684SOL     OW98948   0.793   0.737   7.015
65684SOL    HW198949   0.816   0.757   7.106
65684SOL    HW298950   0.793   0.642   7.010
65685SOL     OW98951   2.995   3.777   0.259
65685SOL    HW198952   2.967   3.825   0.338
65685SOL    HW298953   2.977   3.837   0.187
65686SOL     OW98954  10.086   4.070   0.111
65686SOL    HW198955  10.081   3.974   0.103
65686SOL    HW298956  10.054   4.103   0.027
65687SOL     OW98957   4.887   4.183  12.503
65687SOL    HW198958   4.925   4.210  12.586
65687SOL    HW298959   4.857   4.093  12.519
65688SOL     OW98960  11.831   9.040   9.930
65688SOL    HW198961  11.749   9.033   9.881
65688SOL    HW298962  11.860   8.950   9.942
65689SOL     OW98963   4.408   4.223   3.562
65689SOL    HW198964   4.499   4.197   3.577
65689SOL    HW298965   4.387   4.184   3.477
65690SOL     OW98966  12.657  10.710   3.190
65690SOL    HW198967  12.698  10.640   3.140
65690SOL    HW298968  12.587  10.667   3.240
65691SOL     OW98969  11.807   8.279   1.255
65691SOL    HW198970  11.741   8.216   1.227
65691SOL    HW298971  11.843   8.243   1.336
65692SOL     OW98972  13.737   1.864  13.410
65692SOL    HW198973  13.719   1.771  13.422
65692SOL    HW298974  13.698   1.885  13.326
65693SOL     OW98975   0.162   4.285   8.785
65693SOL    HW198976   0.196   4.215   8.730
65693SOL    HW298977   0.174   4.254   8.874
65694SOL     OW98978   8.058   9.007  12.027
65694SOL    HW198979   8.025   8.994  12.116
65694SOL    HW298980   8.073   8.919  11.994
65695SOL     OW98981   1.115   3.991   7.789
65695SOL    HW198982   1.190   4.048   7.771
65695SOL    HW298983   1.122   3.970   7.882
65696SOL     OW98984  14.192   5.343   3.985
65696SOL    HW198985  14.203   5.373   4.075
65696SOL    HW298986  14.254   5.395   3.935
65697SOL     OW98987   3.284  14.468  11.228
65697SOL    HW198988   3.355  14.445  11.288
65697SOL    HW298989   3.265  14.560  11.247
65698SOL     OW98990   4.110   0.544  13.056
65698SOL    HW198991   4.034   0.563  13.112
65698SOL    HW298992   4.077   0.481  12.992
65699SOL     OW98993   8.850   2.631   6.055
65699SOL    HW198994   8.816   2.593   6.136
65699SOL    HW298995   8.855   2.725   6.073
65700SOL     OW98996   0.386   3.407  14.487
65700SOL    HW198997   0.405   3.315  14.506
65700SOL    HW298998   0.334   3.436  14.562
65701SOL     OW98999   2.008  14.183   0.747
65701SOL    HW199000   1.932  14.162   0.693
65701SOL    HW299001   2.063  14.238   0.691
65702SOL     OW99002   3.257   7.694   6.666
65702SOL    HW199003   3.222   7.670   6.752
65702SOL    HW299004   3.217   7.779   6.647
65703SOL     OW99005  11.195   5.329   0.742
65703SOL    HW199006  11.235   5.263   0.799
65703SOL    HW299007  11.148   5.279   0.675
65704SOL     OW99008   0.223  11.998  10.135
65704SOL    HW199009   0.155  11.990  10.068
65704SOL    HW299010   0.189  11.950  10.211
65705SOL     OW99011   3.817  14.042  14.311
65705SOL    HW199012   3.812  14.116  14.372
65705SOL    HW299013   3.746  13.984  14.339
65706SOL     OW99014   0.816  14.771  13.771
65706SOL    HW199015   0.757  14.845  13.758
65706SOL    HW299016   0.795  14.738  13.858
65707SOL     OW99017   6.570  12.846  10.573
65707SOL    HW199018   6.594  12.902  10.499
65707SOL    HW299019   6.565  12.758  10.537
65708SOL     OW99020   8.098   7.569  14.367
65708SOL    HW199021   8.077   7.492  14.314
65708SOL    HW299022   8.156   7.621  14.311
65709SOL     OW99023   6.985  12.005   5.277
65709SOL    HW199024   7.059  11.966   5.325
65709SOL    HW299025   6.908  11.979   5.328
65710SOL     OW99026   4.609   4.081   0.494
65710SOL    HW199027   4.701   4.096   0.515
65710SOL    HW299028   4.586   4.155   0.437
65711SOL     OW99029   3.373   9.877   7.799
65711SOL    HW199030   3.399   9.835   7.881
65711SOL    HW299031   3.452   9.879   7.746
65712SOL     OW99032  14.292   9.431   0.439
65712SOL    HW199033  14.346   9.505   0.413
65712SOL    HW299034  14.212   9.470   0.474
65713SOL     OW99035   8.637   2.640   4.519
65713SOL    HW199036   8.596   2.726   4.510
65713SOL    HW299037   8.572   2.587   4.565
65714SOL     OW99038   8.873   7.433  12.734
65714SOL    HW199039   8.858   7.392  12.819
65714SOL    HW299040   8.945   7.384  12.695
65715SOL     OW99041   9.470   2.447   6.851
65715SOL    HW199042   9.506   2.515   6.795
65715SOL    HW299043   9.512   2.366   6.820
65716SOL     OW99044   9.910   4.027  14.579
65716SOL    HW199045   9.954   4.081  14.644
65716SOL    HW299046   9.878   4.088  14.513
65717SOL     OW99047   8.289  11.277   5.161
65717SOL    HW199048   8.248  11.359   5.135
65717SOL    HW299049   8.225  11.236   5.220
65718SOL     OW99050   1.783   7.121   1.760
65718SOL    HW199051   1.747   7.091   1.844
65718SOL    HW299052   1.758   7.213   1.754
65719SOL     OW99053   5.232  14.350   6.318
65719SOL    HW199054   5.223  14.264   6.359
65719SOL    HW299055   5.151  14.363   6.269
65720SOL     OW99056   0.783   4.713   9.120
65720SOL    HW199057   0.785   4.773   9.195
65720SOL    HW299058   0.754   4.768   9.047
65721SOL     OW99059  11.966   2.094  12.454
65721SOL    HW199060  11.924   2.009  12.448
65721SOL    HW299061  11.929   2.144  12.381
65722SOL     OW99062   8.128   2.547   3.755
65722SOL    HW199063   8.205   2.587   3.796
65722SOL    HW299064   8.122   2.460   3.795
65723SOL     OW99065   4.169  10.487   8.340
65723SOL    HW199066   4.232  10.493   8.412
65723SOL    HW299067   4.220  10.452   8.267
65724SOL     OW99068   2.245   4.402   5.019
65724SOL    HW199069   2.166   4.454   5.006
65724SOL    HW299070   2.257   4.400   5.113
65725SOL     OW99071   5.728  12.594  12.501
65725SOL    HW199072   5.695  12.575  12.413
65725SOL    HW299073   5.769  12.513  12.529
65726SOL     OW99074   0.823   9.677  10.419
65726SOL    HW199075   0.850   9.740  10.352
65726SOL    HW299076   0.871   9.704  10.498
65727SOL     OW99077   8.188  13.768  13.559
65727SOL    HW199078   8.168  13.675  13.548
65727SOL    HW299079   8.116  13.802  13.612
65728SOL     OW99080   7.019   9.785  14.660
65728SOL    HW199081   6.942   9.730  14.643
65728SOL    HW299082   7.065   9.787  14.576
65729SOL     OW99083   2.435   5.442  13.542
65729SOL    HW199084   2.463   5.514  13.485
65729SOL    HW299085   2.497   5.372  13.523
65730SOL     OW99086   6.575   1.649   2.360
65730SOL    HW199087   6.654   1.596   2.355
65730SOL    HW299088   6.503   1.587   2.350
65731SOL     OW99089   6.415   9.019   2.910
65731SOL    HW199090   6.363   9.097   2.928
65731SOL    HW299091   6.475   9.046   2.840
65732SOL     OW99092   9.320   2.865   3.075
65732SOL    HW199093   9.285   2.873   2.986
65732SOL    HW299094   9.350   2.953   3.097
65733SOL     OW99095   4.271   0.877  14.841
65733SOL    HW199096   4.288   0.838   0.039
65733SOL    HW299097   4.299   0.810  14.778
65734SOL     OW99098   5.169   5.982  14.080
65734SOL    HW199099   5.250   6.033  14.093
65734SOL    HW299100   5.135   5.970  14.168
65735SOL     OW99101  11.577   4.801   8.124
65735SOL    HW199102  11.524   4.722   8.110
65735SOL    HW299103  11.547   4.862   8.057
65736SOL     OW99104  10.522   0.055   6.507
65736SOL    HW199105  10.514   0.143   6.469
65736SOL    HW299106  10.458   0.002   6.459
65737SOL     OW99107   4.792  12.627  11.498
65737SOL    HW199108   4.769  12.625  11.591
65737SOL    HW299109   4.789  12.535  11.471
65738SOL     OW99110   3.193  12.245  11.356
65738SOL    HW199111   3.172  12.191  11.433
65738SOL    HW299112   3.281  12.217  11.330
65739SOL     OW99113   8.710   4.757   3.198
65739SOL    HW199114   8.680   4.773   3.108
65739SOL    HW299115   8.710   4.844   3.238
65740SOL     OW99116  10.905   3.541   2.060
65740SOL    HW199117  10.902   3.446   2.070
65740SOL    HW299118  10.962   3.571   2.131
65741SOL     OW99119  10.494   9.057   6.905
65741SOL    HW199120  10.563   9.108   6.863
65741SOL    HW299121  10.536   9.018   6.982
65742SOL     OW99122   6.072   7.484   7.790
65742SOL    HW199123   6.072   7.421   7.862
65742SOL    HW299124   6.153   7.464   7.742
65743SOL     OW99125   1.849   7.785  11.764
65743SOL    HW199126   1.842   7.721  11.694
65743SOL    HW299127   1.810   7.865  11.728
65744SOL     OW99128   0.645   9.286   4.573
65744SOL    HW199129   0.697   9.331   4.506
65744SOL    HW299130   0.688   9.201   4.584
65745SOL     OW99131   0.061   2.016   9.173
65745SOL    HW199132  14.883   2.065   9.124
65745SOL    HW299133   0.131   2.000   9.111
65746SOL     OW99134   2.131   3.047   5.336
65746SOL    HW199135   2.112   3.126   5.387
65746SOL    HW299136   2.224   3.056   5.312
65747SOL     OW99137   0.258   6.441  10.845
65747SOL    HW199138   0.253   6.353  10.883
65747SOL    HW299139   0.318   6.488  10.903
65748SOL     OW99140   6.693   8.259   5.414
65748SOL    HW199141   6.770   8.242   5.467
65748SOL    HW299142   6.723   8.321   5.347
65749SOL     OW99143  14.042  14.346   6.083
65749SOL    HW199144  14.114  14.389   6.129
65749SOL    HW299145  13.996  14.417   6.037
65750SOL     OW99146   4.610  11.249   4.762
65750SOL    HW199147   4.517  11.264   4.776
65750SOL    HW299148   4.623  11.156   4.778
65751SOL     OW99149   3.931  10.253   7.271
65751SOL    HW199150   3.872  10.271   7.344
65751SOL    HW299151   3.923  10.331   7.215
65752SOL     OW99152   2.849  13.206   4.578
65752SOL    HW199153   2.814  13.183   4.664
65752SOL    HW299154   2.908  13.279   4.594
65753SOL     OW99155   4.314  11.976  14.550
65753SOL    HW199156   4.252  12.045  14.526
65753SOL    HW299157   4.400  12.011  14.526
65754SOL     OW99158  11.929   5.246  13.288
65754SOL    HW199159  11.921   5.304  13.212
65754SOL    HW299160  11.951   5.305  13.360
65755SOL     OW99161  13.541  12.953  12.293
65755SOL    HW199162  13.588  12.951  12.210
65755SOL    HW299163  13.547  13.043  12.323
65756SOL     OW99164  14.107  14.852  10.612
65756SOL    HW199165  14.157   0.032  10.566
65756SOL    HW299166  14.058  14.807  10.544
65757SOL     OW99167   0.327   2.547   8.766
65757SOL    HW199168   0.410   2.586   8.737
65757SOL    HW299169   0.260   2.606   8.732
65758SOL     OW99170   0.108   1.828   2.455
65758SOL    HW199171   0.060   1.774   2.517
65758SOL    HW299172   0.195   1.839   2.495
65759SOL     OW99173   6.199   7.414  13.736
65759SOL    HW199174   6.141   7.340  13.756
65759SOL    HW299175   6.232   7.442  13.821
65760SOL     OW99176  12.856  11.295   7.749
65760SOL    HW199177  12.874  11.332   7.663
65760SOL    HW299178  12.822  11.208   7.732
65761SOL     OW99179  13.742   7.935  13.956
65761SOL    HW199180  13.699   8.014  13.923
65761SOL    HW299181  13.825   7.966  13.992
65762SOL     OW99182   3.222   7.777   6.918
65762SOL    HW199183   3.289   7.840   6.944
65762SOL    HW299184   3.216   7.716   6.991
65763SOL     OW99185  10.444   3.182   3.056
65763SOL    HW199186  10.450   3.275   3.036
65763SOL    HW299187  10.353   3.169   3.084
65764SOL     OW99188   4.742   4.993   8.867
65764SOL    HW199189   4.835   5.012   8.879
65764SOL    HW299190   4.698   5.047   8.933
65765SOL     OW99191  10.736   9.933  13.766
65765SOL    HW199192  10.649   9.969  13.747
65765SOL    HW299193  10.796   9.986  13.715
65766SOL     OW99194   3.062   4.379   4.708
65766SOL    HW199195   3.100   4.307   4.758
65766SOL    HW299196   3.057   4.452   4.770
65767SOL     OW99197   1.283   4.103   3.062
65767SOL    HW199198   1.366   4.105   3.109
65767SOL    HW299199   1.218   4.079   3.128
65768SOL     OW99200  13.852   7.139   9.432
65768SOL    HW199201  13.887   7.085   9.361
65768SOL    HW299202  13.862   7.086   9.510
65769SOL     OW99203   0.258   3.339   2.960
65769SOL    HW199204   0.277   3.377   3.046
65769SOL    HW299205   0.262   3.413   2.900
65770SOL     OW99206  12.047   6.901   7.664
65770SOL    HW199207  12.000   6.901   7.581
65770SOL    HW299208  12.109   6.828   7.657
65771SOL     OW99209   6.052   3.744   4.052
65771SOL    HW199210   6.035   3.833   4.085
65771SOL    HW299211   6.124   3.756   3.990
65772SOL     OW99212   0.229   4.495  10.926
65772SOL    HW199213   0.260   4.530  10.842
65772SOL    HW299214   0.190   4.410  10.904
65773SOL     OW99215   2.016   6.640  11.061
65773SOL    HW199216   1.955   6.711  11.080
65773SOL    HW299217   2.033   6.646  10.968
65774SOL     OW99218   9.361   0.702   6.054
65774SOL    HW199219   9.270   0.688   6.078
65774SOL    HW299220   9.410   0.643   6.112
65775SOL     OW99221   9.111   5.670   1.653
65775SOL    HW199222   9.051   5.742   1.674
65775SOL    HW299223   9.068   5.592   1.687
65776SOL     OW99224  13.103  11.125  10.185
65776SOL    HW199225  13.046  11.198  10.162
65776SOL    HW299226  13.124  11.139  10.277
65777SOL     OW99227  14.459  11.717   1.277
65777SOL    HW199228  14.446  11.744   1.368
65777SOL    HW299229  14.553  11.726   1.263
65778SOL     OW99230  10.138   7.899   5.220
65778SOL    HW199231  10.161   7.980   5.266
65778SOL    HW299232  10.214   7.880   5.166
65779SOL     OW99233  13.657   7.095   3.047
65779SOL    HW199234  13.669   7.068   2.956
65779SOL    HW299235  13.716   7.039   3.097
65780SOL     OW99236   9.639  12.772   8.670
65780SOL    HW199237   9.686  12.810   8.596
65780SOL    HW299238   9.562  12.731   8.631
65781SOL     OW99239  12.428   8.329   6.495
65781SOL    HW199240  12.417   8.236   6.512
65781SOL    HW299241  12.469   8.363   6.574
65782SOL     OW99242   7.756   3.705   1.182
65782SOL    HW199243   7.842   3.665   1.189
65782SOL    HW299244   7.757   3.748   1.096
65783SOL     OW99245   0.523  10.479   4.511
65783SOL    HW199246   0.505  10.555   4.456
65783SOL    HW299247   0.440  10.431   4.513
65784SOL     OW99248   2.214   9.770   4.649
65784SOL    HW199249   2.243   9.743   4.736
65784SOL    HW299250   2.226   9.692   4.594
65785SOL     OW99251   8.557   0.950   6.342
65785SOL    HW199252   8.463   0.936   6.332
65785SOL    HW299253   8.585   0.886   6.406
65786SOL     OW99254  10.626   1.318   6.305
65786SOL    HW199255  10.712   1.286   6.279
65786SOL    HW299256  10.594   1.255   6.369
65787SOL     OW99257   9.911   3.224   8.433
65787SOL    HW199258   9.999   3.261   8.423
65787SOL    HW299259   9.911   3.185   8.521
65788SOL     OW99260   2.507  12.157   3.900
65788SOL    HW199261   2.441  12.136   3.966
65788SOL    HW299262   2.577  12.093   3.915
65789SOL     OW99263  12.562   2.665   8.869
65789SOL    HW199264  12.514   2.716   8.803
65789SOL    HW299265  12.505   2.590   8.886
65790SOL     OW99266   2.820  13.797   5.071
65790SOL    HW199267   2.903  13.844   5.069
65790SOL    HW299268   2.843  13.708   5.098
65791SOL     OW99269   5.856   5.848   6.566
65791SOL    HW199270   5.934   5.842   6.511
65791SOL    HW299271   5.787   5.807   6.514
65792SOL     OW99272   9.843   5.150  12.429
65792SOL    HW199273   9.761   5.146  12.380
65792SOL    HW299274   9.903   5.196  12.370
65793SOL     OW99275  13.226   7.455   0.199
65793SOL    HW199276  13.149   7.458   0.255
65793SOL    HW299277  13.296   7.425   0.258
65794SOL     OW99278   5.988  12.636   8.261
65794SOL    HW199279   6.044  12.713   8.250
65794SOL    HW299280   5.911  12.653   8.206
65795SOL     OW99281  13.051   3.712   0.064
65795SOL    HW199282  13.113   3.659   0.013
65795SOL    HW299283  13.105   3.755   0.130
65796SOL     OW99284   6.735   8.256  11.475
65796SOL    HW199285   6.671   8.298  11.417
65796SOL    HW299286   6.701   8.168  11.488
65797SOL     OW99287   2.760   8.220  12.699
65797SOL    HW199288   2.668   8.244  12.706
65797SOL    HW299289   2.768   8.183  12.610
65798SOL     OW99290  13.019   9.909   8.004
65798SOL    HW199291  13.044   9.998   8.028
65798SOL    HW299292  13.042   9.901   7.911
65799SOL     OW99293  10.557   7.054  13.864
65799SOL    HW199294  10.468   7.043  13.897
65799SOL    HW299295  10.611   7.061  13.942
65800SOL     OW99296  11.763   8.051   5.545
65800SOL    HW199297  11.776   8.116   5.614
65800SOL    HW299298  11.826   7.982   5.563
65801SOL     OW99299   2.263   0.163   8.653
65801SOL    HW199300   2.256   0.204   8.739
65801SOL    HW299301   2.356   0.168   8.631
65802SOL     OW99302   6.344   7.113  11.980
65802SOL    HW199303   6.252   7.132  12.000
65802SOL    HW299304   6.369   7.047  12.044
65803SOL     OW99305  11.934  14.074  11.503
65803SOL    HW199306  11.894  14.108  11.423
65803SOL    HW299307  11.890  14.120  11.574
65804SOL     OW99308   5.137   3.686  14.066
65804SOL    HW199309   5.097   3.727  14.143
65804SOL    HW299310   5.101   3.597  14.064
65805SOL     OW99311  12.649   2.864   3.101
65805SOL    HW199312  12.613   2.909   3.025
65805SOL    HW299313  12.733   2.906   3.117
65806SOL     OW99314   7.152   6.342   8.944
65806SOL    HW199315   7.243   6.341   8.916
65806SOL    HW299316   7.112   6.413   8.894
65807SOL     OW99317   6.141   3.615   0.455
65807SOL    HW199318   6.142   3.600   0.550
65807SOL    HW299319   6.202   3.550   0.420
65808SOL     OW99320   8.279  14.135  13.951
65808SOL    HW199321   8.271  14.132  14.046
65808SOL    HW299322   8.213  14.199  13.923
65809SOL     OW99323  13.715  10.696   6.012
65809SOL    HW199324  13.662  10.626   6.051
65809SOL    HW299325  13.734  10.665   5.924
65810SOL     OW99326   0.181   5.557   5.707
65810SOL    HW199327   0.215   5.476   5.670
65810SOL    HW299328   0.164   5.613   5.631
65811SOL     OW99329   3.822   4.702  13.134
65811SOL    HW199330   3.907   4.666  13.110
65811SOL    HW299331   3.776   4.712  13.050
65812SOL     OW99332   9.019   6.666   1.610
65812SOL    HW199333   9.098   6.710   1.640
65812SOL    HW299334   9.034   6.574   1.629
65813SOL     OW99335   0.706   7.086   3.250
65813SOL    HW199336   0.766   7.157   3.227
65813SOL    HW299337   0.640   7.088   3.180
65814SOL     OW99338   3.307   2.772   9.539
65814SOL    HW199339   3.332   2.821   9.617
65814SOL    HW299340   3.213   2.759   9.549
65815SOL     OW99341  11.406   2.195  13.097
65815SOL    HW199342  11.467   2.201  13.171
65815SOL    HW299343  11.462   2.196  13.020
65816SOL     OW99344   8.471   2.438   9.856
65816SOL    HW199345   8.409   2.510   9.865
65816SOL    HW299346   8.434   2.368   9.910
65817SOL     OW99347   7.589  13.991  11.491
65817SOL    HW199348   7.650  14.020  11.559
65817SOL    HW299349   7.644  13.948  11.426
65818SOL     OW99350  14.632  13.044   6.648
65818SOL    HW199351  14.669  12.960   6.677
65818SOL    HW299352  14.707  13.103   6.642
65819SOL     OW99353   6.791   7.145   3.809
65819SOL    HW199354   6.853   7.097   3.755
65819SOL    HW299355   6.839   7.166   3.889
65820SOL     OW99356   5.449   0.287  12.382
65820SOL    HW199357   5.423   0.212  12.435
65820SOL    HW299358   5.544   0.287  12.386
65821SOL     OW99359   2.354   1.015   2.708
65821SOL    HW199360   2.312   1.076   2.769
65821SOL    HW299361   2.334   0.928   2.744
65822SOL     OW99362   5.052   8.889   1.559
65822SOL    HW199363   5.070   8.820   1.495
65822SOL    HW299364   5.096   8.859   1.639
65823SOL     OW99365  10.126   7.476   8.696
65823SOL    HW199366  10.167   7.389   8.690
65823SOL    HW299367  10.178   7.523   8.761
65824SOL     OW99368   8.680  11.068   6.728
65824SOL    HW199369   8.722  11.039   6.647
65824SOL    HW299370   8.750  11.113   6.776
65825SOL     OW99371  11.028   4.960   0.536
65825SOL    HW199372  11.029   5.055   0.547
65825SOL    HW299373  10.938   4.934   0.558
65826SOL     OW99374   3.932  13.479  11.508
65826SOL    HW199375   3.859  13.537  11.488
65826SOL    HW299376   3.930  13.470  11.603
65827SOL     OW99377   9.851   1.619  12.020
65827SOL    HW199378   9.889   1.666  12.094
65827SOL    HW299379   9.919   1.558  11.992
65828SOL     OW99380   6.694   7.266   3.196
65828SOL    HW199381   6.628   7.288   3.130
65828SOL    HW299382   6.668   7.179   3.227
65829SOL     OW99383  10.950   0.275   8.999
65829SOL    HW199384  10.914   0.294   9.086
65829SOL    HW299385  11.044   0.290   9.008
65830SOL     OW99386   4.351   6.022   4.423
65830SOL    HW199387   4.325   6.030   4.332
65830SOL    HW299388   4.384   5.932   4.431
65831SOL     OW99389   3.232   9.234   7.139
65831SOL    HW199390   3.294   9.269   7.075
65831SOL    HW299391   3.286   9.206   7.213
65832SOL     OW99392   8.231  14.585   6.869
65832SOL    HW199393   8.246  14.679   6.866
65832SOL    HW299394   8.210  14.568   6.961
65833SOL     OW99395  13.764   1.364  11.891
65833SOL    HW199396  13.713   1.408  11.823
65833SOL    HW299397  13.785   1.278  11.854
65834SOL     OW99398  14.496  14.785   2.116
65834SOL    HW199399  14.406  14.817   2.121
65834SOL    HW299400  14.550  14.863   2.128
65835SOL     OW99401  12.951   6.089   4.312
65835SOL    HW199402  13.045   6.108   4.307
65835SOL    HW299403  12.909   6.169   4.279
65836SOL     OW99404   6.102   8.809   8.274
65836SOL    HW199405   6.144   8.782   8.355
65836SOL    HW299406   6.095   8.904   8.281
65837SOL     OW99407   7.223   8.084   6.413
65837SOL    HW199408   7.275   8.119   6.486
65837SOL    HW299409   7.172   8.159   6.382
65838SOL     OW99410   6.655   3.988  10.023
65838SOL    HW199411   6.665   3.999   9.929
65838SOL    HW299412   6.667   3.895  10.038
65839SOL     OW99413  12.212   0.797  10.319
65839SOL    HW199414  12.267   0.874  10.332
65839SOL    HW299415  12.188   0.799  10.226
65840SOL     OW99416  10.004  12.563   8.472
65840SOL    HW199417   9.996  12.601   8.560
65840SOL    HW299418   9.951  12.483   8.476
65841SOL     OW99419  10.876  12.904  11.871
65841SOL    HW199420  10.953  12.857  11.837
65841SOL    HW299421  10.895  12.996  11.855
65842SOL     OW99422   0.506  12.576   0.414
65842SOL    HW199423   0.544  12.512   0.474
65842SOL    HW299424   0.572  12.589   0.346
65843SOL     OW99425   1.256  11.560   4.135
65843SOL    HW199426   1.171  11.580   4.175
65843SOL    HW299427   1.237  11.488   4.075
65844SOL     OW99428   1.053   3.521   3.324
65844SOL    HW199429   1.057   3.595   3.263
65844SOL    HW299430   1.070   3.444   3.270
65845SOL     OW99431   3.150   0.178   8.600
65845SOL    HW199432   3.203   0.114   8.552
65845SOL    HW299433   3.199   0.192   8.681
65846SOL     OW99434   2.610   9.300  10.981
65846SOL    HW199435   2.554   9.265  11.050
65846SOL    HW299436   2.550   9.349  10.925
65847SOL     OW99437   9.494  14.520  10.526
65847SOL    HW199438   9.557  14.448  10.519
65847SOL    HW299439   9.432  14.504  10.454
65848SOL     OW99440  14.176  12.536   1.499
65848SOL    HW199441  14.209  12.618   1.463
65848SOL    HW299442  14.104  12.511   1.441
65849SOL     OW99443   9.843  12.110   8.154
65849SOL    HW199444   9.794  12.072   8.081
65849SOL    HW299445   9.933  12.078   8.142
65850SOL     OW99446   0.452  10.959   6.092
65850SOL    HW199447   0.397  11.004   6.157
65850SOL    HW299448   0.406  10.972   6.009
65851SOL     OW99449   7.316  10.468   8.822
65851SOL    HW199450   7.288  10.559   8.828
65851SOL    HW299451   7.278  10.436   8.740
65852SOL     OW99452   0.823  12.383   4.107
65852SOL    HW199453   0.864  12.313   4.055
65852SOL    HW299454   0.730  12.364   4.104
65853SOL     OW99455   3.268   4.252  11.829
65853SOL    HW199456   3.219   4.188  11.778
65853SOL    HW299457   3.234   4.337  11.800
65854SOL     OW99458   0.326  14.671   4.666
65854SOL    HW199459   0.312  14.764   4.681
65854SOL    HW299460   0.289  14.654   4.579
65855SOL     OW99461  13.379  10.171  12.354
65855SOL    HW199462  13.360  10.089  12.400
65855SOL    HW299463  13.429  10.145  12.277
65856SOL     OW99464   8.709   3.215   5.617
65856SOL    HW199465   8.687   3.122   5.625
65856SOL    HW299466   8.625   3.260   5.624
65857SOL     OW99467  14.626   8.101   6.212
65857SOL    HW199468  14.618   8.196   6.203
65857SOL    HW299469  14.579   8.065   6.137
65858SOL     OW99470   6.444   7.927   8.137
65858SOL    HW199471   6.365   7.878   8.157
65858SOL    HW299472   6.412   8.011   8.104
65859SOL     OW99473   3.772  11.671   2.483
65859SOL    HW199474   3.706  11.685   2.551
65859SOL    HW299475   3.764  11.579   2.460
65860SOL     OW99476   8.754  14.829   4.057
65860SOL    HW199477   8.712  14.762   4.003
65860SOL    HW299478   8.824  14.782   4.103
65861SOL     OW99479   1.472   8.189  10.046
65861SOL    HW199480   1.436   8.171  10.133
65861SOL    HW299481   1.502   8.104  10.014
65862SOL     OW99482  11.210   0.034  13.392
65862SOL    HW199483  11.138  14.875  13.435
65862SOL    HW299484  11.211   0.121  13.432
65863SOL     OW99485   9.925   9.156  14.431
65863SOL    HW199486   9.862   9.086  14.450
65863SOL    HW299487   9.918   9.214  14.507
65864SOL     OW99488   5.684   6.694   6.369
65864SOL    HW199489   5.691   6.609   6.412
65864SOL    HW299490   5.685   6.758   6.440
65865SOL     OW99491   5.808   7.093   2.714
65865SOL    HW199492   5.717   7.094   2.685
65865SOL    HW299493   5.808   7.040   2.794
65866SOL     OW99494   3.777   1.942   0.172
65866SOL    HW199495   3.748   1.990   0.250
65866SOL    HW299496   3.872   1.949   0.174
65867SOL     OW99497  13.790  13.144   8.051
65867SOL    HW199498  13.882  13.164   8.034
65867SOL    HW299499  13.752  13.227   8.080
65868SOL     OW99500  13.028  10.299   4.592
65868SOL    HW199501  13.021  10.264   4.503
65868SOL    HW299502  13.012  10.393   4.583
65869SOL     OW99503   1.708   0.181   5.577
65869SOL    HW199504   1.678   0.272   5.569
65869SOL    HW299505   1.646   0.140   5.638
65870SOL     OW99506   2.373   1.897   2.376
65870SOL    HW199507   2.307   1.909   2.308
65870SOL    HW299508   2.423   1.979   2.375
65871SOL     OW99509   0.499   1.157   5.233
65871SOL    HW199510   0.561   1.116   5.293
65871SOL    HW299511   0.479   1.242   5.272
65872SOL     OW99512  14.131  10.950  13.196
65872SOL    HW199513  14.079  11.000  13.259
65872SOL    HW299514  14.113  10.858  13.219
65873SOL     OW99515   6.120   4.003  13.433
65873SOL    HW199516   6.177   4.065  13.388
65873SOL    HW299517   6.032   4.038  13.419
65874SOL     OW99518   2.385   7.734  14.856
65874SOL    HW199519   2.475   7.739  14.823
65874SOL    HW299520   2.338   7.799  14.805
65875SOL     OW99521   1.401  11.446  10.199
65875SOL    HW199522   1.319  11.432  10.152
65875SOL    HW299523   1.470  11.435  10.133
65876SOL     OW99524   1.601  13.330   6.780
65876SOL    HW199525   1.549  13.332   6.860
65876SOL    HW299526   1.642  13.416   6.775
65877SOL     OW99527   1.869   9.508  14.436
65877SOL    HW199528   1.939   9.553  14.389
65877SOL    HW299529   1.798   9.572  14.440
65878SOL     OW99530   7.924   1.716  11.636
65878SOL    HW199531   7.925   1.627  11.670
65878SOL    HW299532   7.951   1.770  11.710
65879SOL     OW99533  11.974   5.731   1.514
65879SOL    HW199534  11.882   5.744   1.491
65879SOL    HW299535  11.971   5.668   1.586
65880SOL     OW99536   7.906   8.363   4.246
65880SOL    HW199537   7.867   8.426   4.186
65880SOL    HW299538   7.997   8.392   4.256
65881SOL     OW99539   3.228   0.603   2.462
65881SOL    HW199540   3.319   0.573   2.452
65881SOL    HW299541   3.187   0.537   2.518
65882SOL     OW99542  11.534   3.296   8.794
65882SOL    HW199543  11.571   3.218   8.754
65882SOL    HW299544  11.447   3.271   8.822
65883SOL     OW99545  14.068   8.345   9.109
65883SOL    HW199546  14.034   8.434   9.101
65883SOL    HW299547  13.995   8.289   9.083
65884SOL     OW99548   6.942  13.597   7.419
65884SOL    HW199549   6.917  13.524   7.362
65884SOL    HW299550   6.866  13.611   7.475
65885SOL     OW99551   8.118  10.459  14.850
65885SOL    HW199552   8.141  10.390   0.025
65885SOL    HW299553   8.165  10.435  14.770
65886SOL     OW99554  10.969   5.155   7.303
65886SOL    HW199555  10.925   5.070   7.294
65886SOL    HW299556  11.062   5.134   7.311
65887SOL     OW99557   1.457   5.570  12.837
65887SOL    HW199558   1.402   5.504  12.880
65887SOL    HW299559   1.399   5.614  12.776
65888SOL     OW99560   2.732   6.613   2.691
65888SOL    HW199561   2.660   6.550   2.688
65888SOL    HW299562   2.722   6.657   2.776
65889SOL     OW99563   0.139  14.571  11.593
65889SOL    HW199564   0.059  14.602  11.550
65889SOL    HW299565   0.163  14.643  11.653
65890SOL     OW99566   3.925   7.037   9.411
65890SOL    HW199567   3.868   7.112   9.427
65890SOL    HW299568   3.962   7.016   9.497
65891SOL     OW99569  11.254   8.723  10.936
65891SOL    HW199570  11.290   8.668  11.006
65891SOL    HW299571  11.313   8.710  10.862
65892SOL     OW99572   3.067  12.928   5.963
65892SOL    HW199573   3.016  12.939   6.043
65892SOL    HW299574   3.066  12.833   5.948
65893SOL     OW99575   3.664   9.757   4.917
65893SOL    HW199576   3.571   9.750   4.894
65893SOL    HW299577   3.705   9.684   4.873
65894SOL     OW99578   9.821   7.374  13.299
65894SOL    HW199579   9.895   7.366  13.358
65894SOL    HW299580   9.835   7.306  13.233
65895SOL     OW99581   7.508   8.744  10.891
65895SOL    HW199582   7.415   8.732  10.873
65895SOL    HW299583   7.524   8.837  10.876
65896SOL     OW99584  10.221  10.309  13.908
65896SOL    HW199585  10.237  10.345  13.820
65896SOL    HW299586  10.309  10.300  13.946
65897SOL     OW99587   2.836   9.573   8.389
65897SOL    HW199588   2.879   9.502   8.437
65897SOL    HW299589   2.789   9.623   8.456
65898SOL     OW99590   4.339  11.498  14.710
65898SOL    HW199591   4.327  11.591  14.688
65898SOL    HW299592   4.300  11.488  14.796
65899SOL     OW99593   0.241  11.673   6.788
65899SOL    HW199594   0.334  11.696   6.785
65899SOL    HW299595   0.234  11.590   6.742
65900SOL     OW99596   5.778  10.031   1.869
65900SOL    HW199597   5.761  10.122   1.894
65900SOL    HW299598   5.722  10.016   1.793
65901SOL     OW99599   4.249   4.179   8.473
65901SOL    HW199600   4.225   4.248   8.534
65901SOL    HW299601   4.170   4.162   8.422
65902SOL     OW99602   1.230   4.269   3.860
65902SOL    HW199603   1.237   4.215   3.782
65902SOL    HW299604   1.245   4.359   3.829
65903SOL     OW99605  13.149  14.614   6.865
65903SOL    HW199606  13.216  14.645   6.805
65903SOL    HW299607  13.190  14.619   6.951
65904SOL     OW99608   1.108   8.810  10.954
65904SOL    HW199609   1.044   8.881  10.960
65904SOL    HW299610   1.058   8.736  10.920
65905SOL     OW99611   2.692   0.426  11.476
65905SOL    HW199612   2.756   0.448  11.543
65905SOL    HW299613   2.653   0.511  11.452
65906SOL     OW99614   4.619   1.649  14.500
65906SOL    HW199615   4.633   1.555  14.507
65906SOL    HW299616   4.698   1.688  14.537
65907SOL     OW99617   1.605   0.966   7.375
65907SOL    HW199618   1.659   0.966   7.296
65907SOL    HW299619   1.667   0.957   7.447
65908SOL     OW99620  13.185   5.265   9.040
65908SOL    HW199621  13.245   5.309   9.101
65908SOL    HW299622  13.219   5.289   8.954
65909SOL     OW99623   8.316   7.046  12.295
65909SOL    HW199624   8.285   7.079  12.379
65909SOL    HW299625   8.346   7.124  12.248
65910SOL     OW99626   1.691   3.513  11.475
65910SOL    HW199627   1.734   3.576  11.532
65910SOL    HW299628   1.759   3.449  11.455
65911SOL     OW99629  13.513   1.338   9.218
65911SOL    HW199630  13.435   1.374   9.177
65911SOL    HW299631  13.583   1.399   9.195
65912SOL     OW99632  13.932   5.261   6.424
65912SOL    HW199633  13.866   5.325   6.395
65912SOL    HW299634  13.982   5.242   6.345
65913SOL     OW99635   0.616  13.335  12.775
65913SOL    HW199636   0.567  13.255  12.793
65913SOL    HW299637   0.666  13.351  12.855
65914SOL     OW99638   1.498   2.293  11.065
65914SOL    HW199639   1.492   2.293  11.160
65914SOL    HW299640   1.492   2.201  11.040
65915SOL     OW99641   7.542   0.159  14.525
65915SOL    HW199642   7.577   0.072  14.541
65915SOL    HW299643   7.603   0.218  14.570
65916SOL     OW99644   8.891   4.893  13.509
65916SOL    HW199645   8.980   4.859  13.511
65916SOL    HW299646   8.896   4.969  13.451
65917SOL     OW99647  10.049   0.665   5.552
65917SOL    HW199648  10.069   0.573   5.572
65917SOL    HW299649   9.994   0.661   5.474
65918SOL     OW99650  11.634  11.042  12.251
65918SOL    HW199651  11.543  11.046  12.281
65918SOL    HW299652  11.676  11.120  12.288
65919SOL     OW99653   9.581   9.516   2.689
65919SOL    HW199654   9.528   9.517   2.610
65919SOL    HW299655   9.553   9.594   2.738
65920SOL     OW99656   9.533   5.559   1.780
65920SOL    HW199657   9.578   5.603   1.708
65920SOL    HW299658   9.602   5.539   1.843
65921SOL     OW99659   0.236  14.834  12.727
65921SOL    HW199660   0.242  14.772  12.654
65921SOL    HW299661   0.157  14.884  12.709
65922SOL     OW99662  12.527   7.705   1.566
65922SOL    HW199663  12.505   7.790   1.602
65922SOL    HW299664  12.443   7.665   1.545
65923SOL     OW99665   7.758   1.190  11.325
65923SOL    HW199666   7.766   1.285  11.339
65923SOL    HW299667   7.683   1.181  11.266
65924SOL     OW99668   1.666   6.185   7.352
65924SOL    HW199669   1.580   6.163   7.388
65924SOL    HW299670   1.716   6.218   7.427
65925SOL     OW99671  11.557   0.586   2.265
65925SOL    HW199672  11.622   0.648   2.233
65925SOL    HW299673  11.532   0.536   2.188
65926SOL     OW99674  14.474   1.763   6.591
65926SOL    HW199675  14.414   1.709   6.642
65926SOL    HW299676  14.495   1.836   6.650
65927SOL     OW99677   1.185  10.860   3.322
65927SOL    HW199678   1.257  10.822   3.271
65927SOL    HW299679   1.194  10.955   3.307
65928SOL     OW99680   0.700   6.827   7.656
65928SOL    HW199681   0.666   6.882   7.585
65928SOL    HW299682   0.623   6.802   7.706
65929SOL     OW99683  13.188   2.181   9.626
65929SOL    HW199684  13.222   2.097   9.657
65929SOL    HW299685  13.113   2.158   9.571
65930SOL     OW99686   6.444   5.403   9.013
65930SOL    HW199687   6.440   5.327   8.956
65930SOL    HW299688   6.385   5.467   8.973
65931SOL     OW99689  13.749   8.925  14.695
65931SOL    HW199690  13.733   8.860  14.764
65931SOL    HW299691  13.741   9.010  14.739
65932SOL     OW99692   4.365   5.186  11.216
65932SOL    HW199693   4.387   5.277  11.234
65932SOL    HW299694   4.447   5.147  11.184
65933SOL     OW99695   5.380   0.599   8.673
65933SOL    HW199696   5.376   0.612   8.579
65933SOL    HW299697   5.288   0.594   8.700
65934SOL     OW99698  12.058   8.859   6.173
65934SOL    HW199699  11.988   8.794   6.163
65934SOL    HW299700  12.139   8.808   6.168
65935SOL     OW99701   2.788   1.536  11.409
65935SOL    HW199702   2.765   1.626  11.432
65935SOL    HW299703   2.823   1.541  11.321
65936SOL     OW99704  10.472   1.169   7.257
65936SOL    HW199705  10.402   1.104   7.247
65936SOL    HW299706  10.449   1.216   7.337
65937SOL     OW99707   2.291   3.297   1.557
65937SOL    HW199708   2.336   3.325   1.478
65937SOL    HW299709   2.209   3.348   1.557
65938SOL     OW99710  13.909   4.067  14.108
65938SOL    HW199711  13.856   4.146  14.098
65938SOL    HW299712  13.999   4.097  14.096
65939SOL     OW99713   2.749  14.119   4.122
65939SOL    HW199714   2.793  14.151   4.201
65939SOL    HW299715   2.733  14.198   4.071
65940SOL     OW99716   3.117   4.311  13.735
65940SOL    HW199717   3.135   4.277  13.647
65940SOL    HW299718   3.200   4.350  13.763
65941SOL     OW99719   5.859   6.637  10.056
65941SOL    HW199720   5.840   6.620   9.964
65941SOL    HW299721   5.947   6.674  10.057
65942SOL     OW99722   6.609  10.827  13.378
65942SOL    HW199723   6.537  10.786  13.331
65942SOL    HW299724   6.601  10.794  13.468
65943SOL     OW99725   5.809   6.956  12.680
65943SOL    HW199726   5.852   6.972  12.596
65943SOL    HW299727   5.820   6.862  12.695
65944SOL     OW99728  12.605   5.511  13.735
65944SOL    HW199729  12.622   5.580  13.671
65944SOL    HW299730  12.691   5.493  13.774
65945SOL     OW99731   2.246   9.114   7.066
65945SOL    HW199732   2.152   9.107   7.083
65945SOL    HW299733   2.284   9.141   7.149
65946SOL     OW99734   5.313   5.598   0.237
65946SOL    HW199735   5.315   5.510   0.273
65946SOL    HW299736   5.405   5.624   0.234
65947SOL     OW99737   6.436   6.530  10.914
65947SOL    HW199738   6.517   6.481  10.898
65947SOL    HW299739   6.376   6.499  10.847
65948SOL     OW99740  10.820   1.039   9.387
65948SOL    HW199741  10.736   1.083   9.379
65948SOL    HW299742  10.871   1.094   9.446
65949SOL     OW99743   5.787   4.975  14.790
65949SOL    HW199744   5.730   4.963  14.866
65949SOL    HW299745   5.762   5.060  14.754
65950SOL     OW99746   7.095   6.874  10.745
65950SOL    HW199747   7.122   6.875  10.653
65950SOL    HW299748   7.000   6.862  10.742
65951SOL     OW99749   2.476  13.306   9.201
65951SOL    HW199750   2.438  13.234   9.152
65951SOL    HW299751   2.499  13.372   9.135
65952SOL     OW99752  12.636  13.327   9.403
65952SOL    HW199753  12.632  13.385   9.479
65952SOL    HW299754  12.549  13.288   9.399
65953SOL     OW99755   6.607   6.185   3.391
65953SOL    HW199756   6.561   6.202   3.474
65953SOL    HW299757   6.636   6.094   3.398
65954SOL     OW99758  11.528  11.679   4.320
65954SOL    HW199759  11.473  11.737   4.374
65954SOL    HW299760  11.618  11.703   4.344
65955SOL     OW99761  14.534   6.439  14.848
65955SOL    HW199762  14.485   6.494   0.022
65955SOL    HW299763  14.597   6.498  14.807
65956SOL     OW99764   1.315  12.225   4.855
65956SOL    HW199765   1.405  12.240   4.827
65956SOL    HW299766   1.264  12.231   4.774
65957SOL     OW99767   1.439   4.143  11.502
65957SOL    HW199768   1.466   4.138  11.410
65957SOL    HW299769   1.473   4.063  11.541
65958SOL     OW99770   6.957  13.132   4.630
65958SOL    HW199771   7.008  13.119   4.710
65958SOL    HW299772   6.870  13.097   4.650
65959SOL     OW99773   3.004   3.964  11.942
65959SOL    HW199774   2.946   3.895  11.974
65959SOL    HW299775   3.052   3.993  12.020
65960SOL     OW99776   4.703  14.240  11.688
65960SOL    HW199777   4.750  14.188  11.622
65960SOL    HW299778   4.753  14.321  11.693
65961SOL     OW99779   0.834  10.942  10.497
65961SOL    HW199780   0.882  10.999  10.436
65961SOL    HW299781   0.742  10.964  10.481
65962SOL     OW99782  12.844   0.756   7.856
65962SOL    HW199783  12.808   0.830   7.905
65962SOL    HW299784  12.938   0.774   7.851
65963SOL     OW99785   1.978   4.974   8.369
65963SOL    HW199786   1.884   4.964   8.384
65963SOL    HW299787   1.993   5.069   8.377
65964SOL     OW99788   1.278   9.406   5.334
65964SOL    HW199789   1.353   9.432   5.281
65964SOL    HW299790   1.202   9.427   5.280
65965SOL     OW99791   0.517   4.366   1.934
65965SOL    HW199792   0.523   4.429   1.862
65965SOL    HW299793   0.530   4.281   1.892
65966SOL     OW99794   8.726   4.356   1.669
65966SOL    HW199795   8.711   4.268   1.636
65966SOL    HW299796   8.658   4.370   1.734
65967SOL     OW99797  10.072  11.235   8.888
65967SOL    HW199798  10.004  11.209   8.827
65967SOL    HW299799  10.026  11.284   8.956
65968SOL     OW99800   3.990   2.485   9.483
65968SOL    HW199801   3.910   2.442   9.453
65968SOL    HW299802   4.060   2.423   9.463
65969SOL     OW99803   2.652   0.256  11.020
65969SOL    HW199804   2.620   0.180  11.068
65969SOL    HW299805   2.688   0.314  11.088
65970SOL     OW99806   5.064  13.368   6.128
65970SOL    HW199807   5.159  13.371   6.141
65970SOL    HW299808   5.037  13.459   6.123
65971SOL     OW99809   1.918   1.686   0.235
65971SOL    HW199810   2.007   1.702   0.265
65971SOL    HW299811   1.883   1.773   0.216
65972SOL     OW99812   1.771   5.535   6.708
65972SOL    HW199813   1.763   5.538   6.613
65972SOL    HW299814   1.859   5.502   6.724
65973SOL     OW99815   8.572   5.287  10.581
65973SOL    HW199816   8.622   5.277  10.662
65973SOL    HW299817   8.630   5.254  10.513
65974SOL     OW99818   5.530  12.769   5.732
65974SOL    HW199819   5.498  12.698   5.787
65974SOL    HW299820   5.477  12.763   5.653
65975SOL     OW99821   3.896  11.622  14.627
65975SOL    HW199822   3.844  11.573  14.564
65975SOL    HW299823   3.981  11.633  14.585
65976SOL     OW99824  13.651   9.648   4.677
65976SOL    HW199825  13.673   9.573   4.622
65976SOL    HW299826  13.623   9.610   4.760
65977SOL     OW99827   2.261   6.290   2.865
65977SOL    HW199828   2.324   6.334   2.922
65977SOL    HW299829   2.302   6.206   2.843
65978SOL     OW99830   4.260   6.400  13.998
65978SOL    HW199831   4.345   6.417  14.040
65978SOL    HW299832   4.259   6.305  13.986
65979SOL     OW99833   7.066   4.333   2.555
65979SOL    HW199834   7.136   4.356   2.615
65979SOL    HW299835   6.990   4.316   2.611
65980SOL     OW99836   0.259   7.001   2.098
65980SOL    HW199837   0.197   7.023   2.028
65980SOL    HW299838   0.303   6.922   2.067
65981SOL     OW99839  13.034  12.814   0.170
65981SOL    HW199840  13.055  12.875   0.099
65981SOL    HW299841  13.045  12.727   0.132
65982SOL     OW99842   5.601   8.986   9.244
65982SOL    HW199843   5.664   8.935   9.295
65982SOL    HW299844   5.533   8.923   9.218
65983SOL     OW99845   7.439   4.834   0.897
65983SOL    HW199846   7.381   4.781   0.953
65983SOL    HW299847   7.439   4.790   0.813
65984SOL     OW99848   8.776  10.531  11.839
65984SOL    HW199849   8.774  10.507  11.746
65984SOL    HW299850   8.751  10.451  11.885
65985SOL     OW99851  10.938   3.362  11.655
65985SOL    HW199852  11.004   3.407  11.603
65985SOL    HW299853  10.858   3.368  11.602
65986SOL     OW99854  13.643  13.224   3.990
65986SOL    HW199855  13.715  13.218   4.052
65986SOL    HW299856  13.641  13.137   3.948
65987SOL     OW99857   6.991   6.819   6.972
65987SOL    HW199858   7.031   6.843   6.888
65987SOL    HW299859   6.931   6.891   6.992
65988SOL     OW99860   9.923   4.190   5.912
65988SOL    HW199861   9.992   4.255   5.927
65988SOL    HW299862   9.959   4.109   5.949
65989SOL     OW99863   0.916  10.794  12.674
65989SOL    HW199864   0.956  10.873  12.639
65989SOL    HW299865   0.947  10.724  12.617
65990SOL     OW99866   5.537  12.488   0.758
65990SOL    HW199867   5.626  12.452   0.760
65990SOL    HW299868   5.549  12.581   0.738
65991SOL     OW99869   5.007   4.662   1.868
65991SOL    HW199870   4.916   4.652   1.896
65991SOL    HW299871   5.005   4.652   1.773
65992SOL     OW99872  12.084   9.635  13.674
65992SOL    HW199873  12.079   9.644  13.770
65992SOL    HW299874  11.996   9.661  13.644
65993SOL     OW99875   1.606  11.962   0.802
65993SOL    HW199876   1.549  11.996   0.734
65993SOL    HW299877   1.626  12.038   0.857
65994SOL     OW99878  11.966   3.138   2.740
65994SOL    HW199879  11.970   3.149   2.645
65994SOL    HW299880  12.006   3.052   2.755
65995SOL     OW99881  13.326  12.620  10.880
65995SOL    HW199882  13.400  12.609  10.940
65995SOL    HW299883  13.340  12.555  10.812
65996SOL     OW99884  13.497   2.663   9.518
65996SOL    HW199885  13.505   2.752   9.483
65996SOL    HW299886  13.473   2.610   9.442
65997SOL     OW99887   4.709   3.411   8.619
65997SOL    HW199888   4.712   3.417   8.523
65997SOL    HW299889   4.640   3.471   8.645
65998SOL     OW99890   0.560   9.916  10.621
65998SOL    HW199891   0.628   9.982  10.607
65998SOL    HW299892   0.506   9.920  10.543
65999SOL     OW99893  13.339   7.147   9.195
65999SOL    HW199894  13.342   7.242   9.211
65999SOL    HW299895  13.289   7.138   9.113
66000SOL     OW99896   8.021   8.922   8.301
66000SOL    HW199897   7.974   8.852   8.256
66000SOL    HW299898   8.093   8.944   8.243
66001SOL     OW99899   0.153   1.339   9.204
66001SOL    HW199900   0.198   1.329   9.289
66001SOL    HW299901   0.223   1.335   9.140
66002SOL     OW99902  14.342  10.039  10.684
66002SOL    HW199903  14.391  10.052  10.765
66002SOL    HW299904  14.337  10.126  10.644
66003SOL     OW99905   8.284  10.992   8.826
66003SOL    HW199906   8.259  11.073   8.781
66003SOL    HW299907   8.325  10.939   8.758
66004SOL     OW99908   1.131  12.534   3.059
66004SOL    HW199909   1.207  12.591   3.061
66004SOL    HW299910   1.069  12.579   3.001
66005SOL     OW99911   0.017   5.120   6.308
66005SOL    HW199912  14.819   5.151   6.277
66005SOL    HW299913   0.004   5.102   6.401
66006SOL     OW99914  14.323  12.192   1.854
66006SOL    HW199915  14.246  12.141   1.878
66006SOL    HW299916  14.303  12.228   1.767
66007SOL     OW99917  10.513  11.394   6.542
66007SOL    HW199918  10.508  11.432   6.454
66007SOL    HW299919  10.547  11.464   6.597
66008SOL     OW99920   5.118  12.393  14.762
66008SOL    HW199921   5.035  12.347  14.749
66008SOL    HW299922   5.139  12.378  14.854
66009SOL     OW99923  13.399  11.146  13.008
66009SOL    HW199924  13.400  11.093  12.928
66009SOL    HW299925  13.424  11.084  13.077
66010SOL     OW99926   8.809   7.823   6.252
66010SOL    HW199927   8.839   7.857   6.168
66010SOL    HW299928   8.782   7.900   6.301
66011SOL     OW99929   7.816   9.473   0.710
66011SOL    HW199930   7.733   9.438   0.740
66011SOL    HW299931   7.837   9.542   0.773
66012SOL     OW99932   5.706   5.326   5.542
66012SOL    HW199933   5.713   5.298   5.633
66012SOL    HW299934   5.794   5.312   5.506
66013SOL     OW99935   5.416   8.228   1.661
66013SOL    HW199936   5.427   8.276   1.579
66013SOL    HW299937   5.413   8.296   1.729
66014SOL     OW99938  10.061   3.656   5.357
66014SOL    HW199939  10.080   3.597   5.431
66014SOL    HW299940   9.992   3.612   5.308
66015SOL     OW99941  13.067   0.609   4.269
66015SOL    HW199942  12.978   0.610   4.304
66015SOL    HW299943  13.065   0.541   4.201
66016SOL     OW99944   5.058   5.609  13.471
66016SOL    HW199945   5.134   5.563  13.505
66016SOL    HW299946   4.998   5.614  13.545
66017SOL     OW99947   7.103   5.572  14.874
66017SOL    HW199948   7.031   5.525   0.029
66017SOL    HW299949   7.155   5.607   0.058
66018SOL     OW99950   6.171   2.469  13.587
66018SOL    HW199951   6.213   2.428  13.511
66018SOL    HW299952   6.081   2.485  13.559
66019SOL     OW99953  11.134  11.660   3.738
66019SOL    HW199954  11.150  11.593   3.671
66019SOL    HW299955  11.129  11.742   3.688
66020SOL     OW99956   7.701  13.262   6.497
66020SOL    HW199957   7.794  13.238   6.501
66020SOL    HW299958   7.697  13.333   6.433
66021SOL     OW99959   1.688   3.571  13.213
66021SOL    HW199960   1.616   3.510  13.200
66021SOL    HW299961   1.765   3.524  13.182
66022SOL     OW99962   4.668   5.555   1.024
66022SOL    HW199963   4.756   5.593   1.019
66022SOL    HW299964   4.644   5.562   1.117
66023SOL     OW99965  14.162  13.008   8.947
66023SOL    HW199966  14.126  12.935   8.897
66023SOL    HW299967  14.175  12.973   9.035
66024SOL     OW99968   6.617   8.688  10.236
66024SOL    HW199969   6.704   8.648  10.241
66024SOL    HW299970   6.564   8.639  10.300
66025SOL     OW99971   2.129   4.135  10.477
66025SOL    HW199972   2.194   4.175  10.420
66025SOL    HW299973   2.096   4.207  10.531
66026SOL     OW99974   3.757   8.067  13.615
66026SOL    HW199975   3.774   7.987  13.665
66026SOL    HW299976   3.843   8.110  13.609
66027SOL     OW99977   1.976  11.745   9.057
66027SOL    HW199978   2.064  11.783   9.052
66027SOL    HW299979   1.937  11.786   9.134
66028SOL     OW99980   9.321   1.309   7.853
66028SOL    HW199981   9.345   1.217   7.843
66028SOL    HW299982   9.226   1.307   7.865
66029SOL     OW99983  14.364   5.365   1.253
66029SOL    HW199984  14.271   5.390   1.250
66029SOL    HW299985  14.399   5.413   1.329
66030SOL     OW99986   1.493  10.687  11.656
66030SOL    HW199987   1.406  10.707  11.619
66030SOL    HW299988   1.504  10.753  11.725
66031SOL     OW99989   8.877   9.216   7.728
66031SOL    HW199990   8.892   9.244   7.638
66031SOL    HW299991   8.852   9.296   7.774
66032SOL     OW99992   0.714  10.955   5.894
66032SOL    HW199993   0.655  11.027   5.872
66032SOL    HW299994   0.662  10.899   5.952
66033SOL     OW99995   0.616   2.240  13.174
66033SOL    HW199996   0.635   2.212  13.263
66033SOL    HW299997   0.636   2.164  13.120
66034SOL     OW99998   8.732   8.877  10.685
66034SOL    HW199999   8.823   8.854  10.663
66034SOL    HW2    0   8.714   8.827  10.764
66035SOL     OW    1   6.294   0.562   6.973
66035SOL    HW1    2   6.324   0.521   7.053
66035SOL    HW2    3   6.294   0.492   6.908
66036SOL     OW    4   6.985  11.757   3.400
66036SOL    HW1    5   7.027  11.843   3.392
66036SOL    HW2    6   6.923  11.753   3.327
66037SOL     OW    7   4.283  14.367   8.856
66037SOL    HW1    8   4.260  14.405   8.772
66037SOL    HW2    9   4.210  14.390   8.914
66038SOL     OW   10   0.797   1.771   9.428
66038SOL    HW1   11   0.861   1.724   9.375
66038SOL    HW2   12   0.811   1.738   9.517
66039SOL     OW   13   3.110   5.082   4.823
66039SOL    HW1   14   3.109   5.036   4.740
66039SOL    HW2   15   3.027   5.130   4.826
66040SOL     OW   16   7.357   1.995  11.244
66040SOL    HW1   17   7.288   2.033  11.189
66040SOL    HW2   18   7.419   1.957  11.181
66041SOL     OW   19   6.903   0.556   4.317
66041SOL    HW1   20   6.883   0.604   4.237
66041SOL    HW2   21   6.865   0.469   4.303
66042SOL     OW   22   7.934   5.581  14.720
66042SOL    HW1   23   7.881   5.504  14.741
66042SOL    HW2   24   7.872   5.653  14.721
66043SOL     OW   25   7.876   3.124  11.979
66043SOL    HW1   26   7.945   3.190  11.991
66043SOL    HW2   27   7.886   3.095  11.889
66044SOL     OW   28  14.168   3.319   5.874
66044SOL    HW1   29  14.122   3.358   5.800
66044SOL    HW2   30  14.117   3.240   5.895
66045SOL     OW   31   0.931   2.386   6.996
66045SOL    HW1   32   0.928   2.364   6.902
66045SOL    HW2   33   1.012   2.346   7.027
66046SOL     OW   34   9.894  13.766  13.349
66046SOL    HW1   35   9.984  13.733  13.345
66046SOL    HW2   36   9.882  13.815  13.267
66047SOL     OW   37  11.813  14.161   2.888
66047SOL    HW1   38  11.884  14.112   2.930
66047SOL    HW2   39  11.858  14.221   2.828
66048SOL     OW   40  14.734   7.192   3.601
66048SOL    HW1   41  14.794   7.126   3.634
66048SOL    HW2   42  14.775   7.276   3.624
66049SOL     OW   43   3.856   3.605   8.375
66049SOL    HW1   44   3.950   3.616   8.359
66049SOL    HW2   45   3.814   3.631   8.293
66050SOL     OW   46  10.735   0.411   3.171
66050SOL    HW1   47  10.768   0.369   3.251
66050SOL    HW2   48  10.652   0.450   3.197
66051SOL     OW   49  12.482   1.076  14.665
66051SOL    HW1   50  12.547   1.029  14.717
66051SOL    HW2   51  12.526   1.156  14.636
66052SOL     OW   52   8.306  10.778  10.898
66052SOL    HW1   53   8.303  10.726  10.978
66052SOL    HW2   54   8.336  10.718  10.831
66053SOL     OW   55   7.970  10.495  10.691
66053SOL    HW1   56   7.896  10.456  10.738
66053SOL    HW2   57   7.951  10.589  10.690
66054SOL     OW   58   2.890   4.211   8.277
66054SOL    HW1   59   2.823   4.217   8.345
66054SOL    HW2   60   2.841   4.183   8.199
66055SOL     OW   61  12.915  14.696   5.465
66055SOL    HW1   62  12.936  14.604   5.450
66055SOL    HW2   63  13.000  14.737   5.484
66056SOL     OW   64  10.107   5.070   3.940
66056SOL    HW1   65  10.185   5.033   3.982
66056SOL    HW2   66  10.038   5.006   3.956
66057SOL     OW   67   5.778  12.337   6.260
66057SOL    HW1   68   5.742  12.371   6.178
66057SOL    HW2   69   5.764  12.407   6.323
66058SOL     OW   70   4.716   7.811  11.620
66058SOL    HW1   71   4.753   7.732  11.581
66058SOL    HW2   72   4.670   7.854  11.547
66059SOL     OW   73   6.795  14.378  11.174
66059SOL    HW1   74   6.809  14.292  11.133
66059SOL    HW2   75   6.864  14.433  11.138
66060SOL     OW   76   4.246   0.833   2.745
66060SOL    HW1   77   4.238   0.927   2.729
66060SOL    HW2   78   4.162   0.797   2.718
66061SOL     OW   79   3.359   0.852   2.479
66061SOL    HW1   80   3.297   0.779   2.492
66061SOL    HW2   81   3.321   0.925   2.528
66062SOL     OW   82   9.737  10.639   8.690
66062SOL    HW1   83   9.671  10.625   8.758
66062SOL    HW2   84   9.710  10.581   8.618
66063SOL     OW   85  12.656   2.889   9.588
66063SOL    HW1   86  12.718   2.880   9.661
66063SOL    HW2   87  12.575   2.850   9.621
66064SOL     OW   88  10.360   3.831  10.490
66064SOL    HW1   89  10.325   3.815  10.577
66064SOL    HW2   90  10.303   3.782  10.431
66065SOL     OW   91   3.644   5.054  13.249
66065SOL    HW1   92   3.681   4.991  13.312
66065SOL    HW2   93   3.711   5.059  13.180
66066SOL     OW   94   5.666   0.945   3.456
66066SOL    HW1   95   5.608   0.878   3.493
66066SOL    HW2   96   5.675   1.010   3.526
66067SOL     OW   97  12.987  10.376   3.520
66067SOL    HW1   98  12.980  10.459   3.567
66067SOL    HW2   99  12.897  10.347   3.508
66068SOL     OW  100   4.062   2.369   2.382
66068SOL    HW1  101   4.017   2.453   2.393
66068SOL    HW2  102   4.058   2.328   2.469
66069SOL     OW  103  14.516   0.017  13.048
66069SOL    HW1  104  14.467   0.032  12.968
66069SOL    HW2  105  14.450   0.004  13.116
66070SOL     OW  106   0.270   1.908   7.487
66070SOL    HW1  107   0.317   1.933   7.407
66070SOL    HW2  108   0.300   1.819   7.505
66071SOL     OW  109   2.918  12.715  10.710
66071SOL    HW1  110   2.823  12.723  10.712
66071SOL    HW2  111   2.935  12.636  10.659
66072SOL     OW  112   8.713   5.448  13.107
66072SOL    HW1  113   8.741   5.460  13.198
66072SOL    HW2  114   8.655   5.522  13.090
66073SOL     OW  115   4.870   8.456   9.857
66073SOL    HW1  116   4.904   8.477   9.771
66073SOL    HW2  117   4.947   8.433   9.909
66074SOL     OW  118   2.426  14.596   6.778
66074SOL    HW1  119   2.484  14.557   6.713
66074SOL    HW2  120   2.449  14.552   6.860
66075SOL     OW  121   8.088   8.754  11.980
66075SOL    HW1  122   8.163   8.753  12.039
66075SOL    HW2  123   8.052   8.665  11.985
66076SOL     OW  124   6.447   1.050  12.650
66076SOL    HW1  125   6.539   1.028  12.670
66076SOL    HW2  126   6.425   1.117  12.714
66077SOL     OW  127   6.124   4.438   3.531
66077SOL    HW1  128   6.033   4.407   3.536
66077SOL    HW2  129   6.177   4.361   3.551
66078SOL     OW  130  13.418   5.865  14.171
66078SOL    HW1  131  13.456   5.864  14.083
66078SOL    HW2  132  13.493   5.854  14.230
66079SOL     OW  133   2.278   0.383  13.165
66079SOL    HW1  134   2.307   0.339  13.085
66079SOL    HW2  135   2.303   0.475  13.152
66080SOL     OW  136  10.381  13.635   4.211
66080SOL    HW1  137  10.474  13.652   4.228
66080SOL    HW2  138  10.380  13.565   4.146
66081SOL     OW  139   3.333  12.254   7.468
66081SOL    HW1  140   3.395  12.233   7.398
66081SOL    HW2  141   3.381  12.233   7.549
66082SOL     OW  142   8.718   0.983   2.440
66082SOL    HW1  143   8.663   1.054   2.406
66082SOL    HW2  144   8.805   1.002   2.407
66083SOL     OW  145   2.479  12.936  13.759
66083SOL    HW1  146   2.549  13.000  13.756
66083SOL    HW2  147   2.522  12.852  13.740
66084SOL     OW  148   2.827   1.612   2.307
66084SOL    HW1  149   2.908   1.662   2.314
66084SOL    HW2  150   2.783   1.650   2.231
66085SOL     OW  151   8.928   9.079  11.892
66085SOL    HW1  152   8.940   9.068  11.986
66085SOL    HW2  153   8.891   8.995  11.863
66086SOL     OW  154   4.163   7.440  12.812
66086SOL    HW1  155   4.183   7.478  12.898
66086SOL    HW2  156   4.233   7.376  12.797
66087SOL     OW  157   5.328   0.855   5.592
66087SOL    HW1  158   5.379   0.930   5.563
66087SOL    HW2  159   5.382   0.813   5.658
66088SOL     OW  160   0.279   7.148   8.470
66088SOL    HW1  161   0.254   7.116   8.557
66088SOL    HW2  162   0.282   7.070   8.415
66089SOL     OW  163   3.939   3.282  13.691
66089SOL    HW1  164   3.874   3.211  13.693
66089SOL    HW2  165   3.985   3.271  13.608
66090SOL     OW  166   4.986   7.756  13.833
66090SOL    HW1  167   5.010   7.691  13.900
66090SOL    HW2  168   4.938   7.706  13.767
66091SOL     OW  169   1.078  10.025  12.586
66091SOL    HW1  170   1.038  10.042  12.501
66091SOL    HW2  171   1.085  10.112  12.626
66092SOL     OW  172  13.931   1.728   4.420
66092SOL    HW1  173  13.912   1.635   4.406
66092SOL    HW2  174  13.846   1.771   4.411
66093SOL     OW  175  13.988   5.850  11.587
66093SOL    HW1  176  13.980   5.758  11.613
66093SOL    HW2  177  14.057   5.851  11.521
66094SOL     OW  178  14.756  14.491   5.584
66094SOL    HW1  179  14.817  14.491   5.658
66094SOL    HW2  180  14.768  14.576   5.542
66095SOL     OW  181   1.398  12.658   6.378
66095SOL    HW1  182   1.379  12.571   6.412
66095SOL    HW2  183   1.485  12.651   6.340
66096SOL     OW  184   8.990   9.971  10.282
66096SOL    HW1  185   9.059   9.983  10.218
66096SOL    HW2  186   9.010  10.034  10.351
66097SOL     OW  187  14.189   1.176  10.054
66097SOL    HW1  188  14.216   1.192  10.145
66097SOL    HW2  189  14.251   1.226  10.001
66098SOL     OW  190   5.145  14.092   7.755
66098SOL    HW1  191   5.232  14.078   7.719
66098SOL    HW2  192   5.086  14.081   7.681
66099SOL     OW  193  10.672   2.001   3.946
66099SOL    HW1  194  10.747   1.968   3.897
66099SOL    HW2  195  10.598   1.952   3.912
66100SOL     OW  196   4.975  11.585  12.239
66100SOL    HW1  197   4.916  11.641  12.188
66100SOL    HW2  198   4.924  11.561  12.317
66101SOL     OW  199   1.300  10.742  10.188
66101SOL    HW1  200   1.257  10.798  10.252
66101SOL    HW2  201   1.393  10.761  10.197
66102SOL     OW  202  14.464   6.734  10.628
66102SOL    HW1  203  14.497   6.646  10.648
66102SOL    HW2  204  14.468   6.781  10.711
66103SOL     OW  205   0.904   4.148   1.235
66103SOL    HW1  206   0.851   4.068   1.238
66103SOL    HW2  207   0.986   4.124   1.278
66104SOL     OW  208   6.602  12.637  10.404
66104SOL    HW1  209   6.610  12.562  10.346
66104SOL    HW2  210   6.690  12.673  10.409
66105SOL     OW  211   2.660   4.246   7.506
66105SOL    HW1  212   2.588   4.216   7.563
66105SOL    HW2  213   2.736   4.196   7.535
66106SOL     OW  214  11.208   1.143  14.756
66106SOL    HW1  215  11.163   1.114  14.676
66106SOL    HW2  216  11.166   1.226  14.779
66107SOL     OW  217   5.583   3.459   1.977
66107SOL    HW1  218   5.515   3.527   1.979
66107SOL    HW2  219   5.543   3.384   2.022
66108SOL     OW  220  11.938   9.212  13.844
66108SOL    HW1  221  11.954   9.118  13.847
66108SOL    HW2  222  12.017   9.249  13.804
66109SOL     OW  223   2.638   8.110  13.052
66109SOL    HW1  224   2.696   8.094  12.977
66109SOL    HW2  225   2.645   8.204  13.069
66110SOL     OW  226   5.434   7.154   9.275
66110SOL    HW1  227   5.480   7.173   9.194
66110SOL    HW2  228   5.396   7.238   9.301
66111SOL     OW  229   7.242   9.904  10.412
66111SOL    HW1  230   7.309   9.959  10.452
66111SOL    HW2  231   7.210   9.955  10.337
66112SOL     OW  232   7.647   6.932  14.407
66112SOL    HW1  233   7.572   6.920  14.348
66112SOL    HW2  234   7.686   7.014  14.379
66113SOL     OW  235   3.663   7.343   8.070
66113SOL    HW1  236   3.585   7.333   8.123
66113SOL    HW2  237   3.637   7.403   8.000
66114SOL     OW  238   3.424   1.431  12.120
66114SOL    HW1  239   3.357   1.406  12.182
66114SOL    HW2  240   3.386   1.413  12.034
66115SOL     OW  241   6.614   3.267   0.048
66115SOL    HW1  242   6.594   3.174   0.050
66115SOL    HW2  243   6.706   3.273   0.072
66116SOL     OW  244   8.236   3.787   8.866
66116SOL    HW1  245   8.268   3.877   8.874
66116SOL    HW2  246   8.315   3.734   8.856
66117SOL     OW  247   1.010  14.028  14.103
66117SOL    HW1  248   0.994  14.120  14.126
66117SOL    HW2  249   1.075  14.031  14.033
66118SOL     OW  250  14.552   3.299   7.681
66118SOL    HW1  251  14.550   3.205   7.695
66118SOL    HW2  252  14.497   3.313   7.604
66119SOL     OW  253   5.624   8.257  13.566
66119SOL    HW1  254   5.648   8.324  13.630
66119SOL    HW2  255   5.581   8.305  13.496
66120SOL     OW  256   6.442   4.648  12.762
66120SOL    HW1  257   6.471   4.737  12.743
66120SOL    HW2  258   6.371   4.631  12.699
66121SOL     OW  259  12.930  12.217   8.408
66121SOL    HW1  260  12.919  12.275   8.483
66121SOL    HW2  261  13.023  12.195   8.408
66122SOL     OW  262   2.856   2.608   0.727
66122SOL    HW1  263   2.806   2.528   0.746
66122SOL    HW2  264   2.804   2.653   0.660
66123SOL     OW  265   9.663   9.896  13.905
66123SOL    HW1  266   9.671   9.813  13.951
66123SOL    HW2  267   9.661   9.962  13.974
66124SOL     OW  268   5.993  13.565   6.157
66124SOL    HW1  269   5.955  13.523   6.234
66124SOL    HW2  270   6.080  13.591   6.184
66125SOL     OW  271  13.244   4.817   4.157
66125SOL    HW1  272  13.323   4.867   4.179
66125SOL    HW2  273  13.228   4.837   4.065
66126SOL     OW  274   9.457  10.958  13.711
66126SOL    HW1  275   9.501  10.940  13.628
66126SOL    HW2  276   9.502  11.034  13.747
66127SOL     OW  277  14.495   9.397   1.697
66127SOL    HW1  278  14.579   9.363   1.667
66127SOL    HW2  279  14.433   9.325   1.684
66128SOL     OW  280   4.402   8.124  13.955
66128SOL    HW1  281   4.379   8.039  13.916
66128SOL    HW2  282   4.327   8.147  14.009
66129SOL     OW  283   4.204   2.345  14.740
66129SOL    HW1  284   4.155   2.304  14.811
66129SOL    HW2  285   4.215   2.275  14.675
66130SOL     OW  286  10.423  12.675  13.452
66130SOL    HW1  287  10.352  12.623  13.490
66130SOL    HW2  288  10.435  12.748  13.513
66131SOL     OW  289   0.973   7.684  12.199
66131SOL    HW1  290   1.060   7.654  12.174
66131SOL    HW2  291   0.964   7.769  12.155
66132SOL     OW  292  12.254   7.475   3.686
66132SOL    HW1  293  12.236   7.535   3.759
66132SOL    HW2  294  12.216   7.518   3.609
66133SOL     OW  295  13.313   6.788   4.481
66133SOL    HW1  296  13.314   6.807   4.387
66133SOL    HW2  297  13.241   6.727   4.493
66134SOL     OW  298  10.399  14.194   2.277
66134SOL    HW1  299  10.367  14.136   2.346
66134SOL    HW2  300  10.438  14.136   2.212
66135SOL     OW  301   5.126  13.280  11.800
66135SOL    HW1  302   5.207  13.253  11.757
66135SOL    HW2  303   5.079  13.199  11.816
66136SOL     OW  304   2.372  13.870   2.118
66136SOL    HW1  305   2.282  13.868   2.150
66136SOL    HW2  306   2.369  13.824   2.034
66137SOL     OW  307  13.890  10.807   2.146
66137SOL    HW1  308  13.976  10.848   2.136
66137SOL    HW2  309  13.842  10.835   2.069
66138SOL     OW  310   4.203  12.336   6.104
66138SOL    HW1  311   4.235  12.257   6.146
66138SOL    HW2  312   4.184  12.309   6.014
66139SOL     OW  313   0.531   1.850  10.156
66139SOL    HW1  314   0.519   1.889  10.242
66139SOL    HW2  315   0.503   1.918  10.094
66140SOL     OW  316  14.423   7.704  12.817
66140SOL    HW1  317  14.334   7.725  12.844
66140SOL    HW2  318  14.436   7.613  12.843
66141SOL     OW  319  11.049   4.816  12.926
66141SOL    HW1  320  10.961   4.779  12.933
66141SOL    HW2  321  11.052   4.857  12.840
66142SOL     OW  322   9.119   4.102   3.673
66142SOL    HW1  323   9.165   4.072   3.595
66142SOL    HW2  324   9.034   4.058   3.670
66143SOL     OW  325   9.835   1.864   3.235
66143SOL    HW1  326   9.829   1.771   3.211
66143SOL    HW2  327   9.881   1.865   3.319
66144SOL     OW  328  13.210   9.741   3.536
66144SOL    HW1  329  13.193   9.751   3.630
66144SOL    HW2  330  13.129   9.708   3.500
66145SOL     OW  331   0.607   8.702   1.619
66145SOL    HW1  332   0.649   8.623   1.653
66145SOL    HW2  333   0.655   8.723   1.540
66146SOL     OW  334  12.974   3.247  13.209
66146SOL    HW1  335  13.007   3.312  13.147
66146SOL    HW2  336  12.903   3.203  13.162
66147SOL     OW  337   8.658  14.583   9.022
66147SOL    HW1  338   8.674  14.527   9.098
66147SOL    HW2  339   8.718  14.551   8.955
66148SOL     OW  340   1.871  10.523  12.588
66148SOL    HW1  341   1.853  10.499  12.679
66148SOL    HW2  342   1.823  10.604  12.574
66149SOL     OW  343   3.495   2.445   5.461
66149SOL    HW1  344   3.460   2.396   5.386
66149SOL    HW2  345   3.419   2.457   5.518
66150SOL     OW  346   5.536  10.253   8.896
66150SOL    HW1  347   5.488  10.177   8.928
66150SOL    HW2  348   5.470  10.322   8.888
66151SOL     OW  349   7.839   1.302   6.132
66151SOL    HW1  350   7.905   1.250   6.086
66151SOL    HW2  351   7.793   1.349   6.062
66152SOL     OW  352   9.103   6.475  10.156
66152SOL    HW1  353   9.061   6.535  10.094
66152SOL    HW2  354   9.174   6.434  10.107
66153SOL     OW  355  10.846   2.850   9.626
66153SOL    HW1  356  10.756   2.857   9.595
66153SOL    HW2  357  10.880   2.939   9.626
66154SOL     OW  358  14.412   4.267  14.742
66154SOL    HW1  359  14.384   4.198  14.801
66154SOL    HW2  360  14.345   4.335  14.750
66155SOL     OW  361   7.862  13.966   2.313
66155SOL    HW1  362   7.819  13.891   2.270
66155SOL    HW2  363   7.789  14.021   2.341
66156SOL     OW  364  14.637   8.772  13.600
66156SOL    HW1  365  14.702   8.842  13.591
66156SOL    HW2  366  14.649   8.740  13.689
66157SOL     OW  367   1.655   5.927  13.416
66157SOL    HW1  368   1.705   5.934  13.498
66157SOL    HW2  369   1.722   5.926  13.348
66158SOL     OW  370   2.690   7.942   7.904
66158SOL    HW1  371   2.745   7.989   7.967
66158SOL    HW2  372   2.604   7.938   7.946
66159SOL     OW  373   8.378  14.829  12.740
66159SOL    HW1  374   8.451  14.869  12.788
66159SOL    HW2  375   8.418  14.793  12.661
66160SOL     OW  376   8.667  13.701  10.128
66160SOL    HW1  377   8.725  13.625  10.131
66160SOL    HW2  378   8.675  13.740  10.215
66161SOL     OW  379   9.101   3.297   8.206
66161SOL    HW1  380   9.055   3.232   8.260
66161SOL    HW2  381   9.084   3.381   8.250
66162SOL     OW  382   3.725   9.322   9.413
66162SOL    HW1  383   3.749   9.259   9.345
66162SOL    HW2  384   3.806   9.334   9.464
66163SOL     OW  385   3.280   7.214  12.436
66163SOL    HW1  386   3.250   7.242  12.350
66163SOL    HW2  387   3.241   7.127  12.449
66164SOL     OW  388   7.846   8.224   1.921
66164SOL    HW1  389   7.937   8.238   1.947
66164SOL    HW2  390   7.800   8.302   1.953
66165SOL     OW  391   7.023   9.392  12.605
66165SOL    HW1  392   7.019   9.437  12.520
66165SOL    HW2  393   7.092   9.327  12.594
66166SOL     OW  394   6.608  10.354   8.167
66166SOL    HW1  395   6.644  10.362   8.255
66166SOL    HW2  396   6.658  10.283   8.127
66167SOL     OW  397   3.636   0.884   4.780
66167SOL    HW1  398   3.558   0.842   4.744
66167SOL    HW2  399   3.702   0.876   4.710
66168SOL     OW  400   0.441   2.397  10.576
66168SOL    HW1  401   0.479   2.447  10.647
66168SOL    HW2  402   0.347   2.414  10.582
66169SOL     OW  403   7.253   0.645  10.216
66169SOL    HW1  404   7.235   0.553  10.238
66169SOL    HW2  405   7.208   0.660  10.133
66170SOL     OW  406  12.003  12.183  10.359
66170SOL    HW1  407  12.069  12.115  10.345
66170SOL    HW2  408  12.053  12.263  10.374
66171SOL     OW  409  11.364   9.427   0.645
66171SOL    HW1  410  11.311   9.460   0.718
66171SOL    HW2  411  11.405   9.505   0.608
66172SOL     OW  412  12.665  12.544   8.607
66172SOL    HW1  413  12.605  12.502   8.546
66172SOL    HW2  414  12.679  12.478   8.675
66173SOL     OW  415   1.614  10.933  11.216
66173SOL    HW1  416   1.529  10.908  11.252
66173SOL    HW2  417   1.630  11.020  11.252
66174SOL     OW  418  10.558   2.445   6.496
66174SOL    HW1  419  10.598   2.366   6.533
66174SOL    HW2  420  10.509   2.414   6.421
66175SOL     OW  421   2.120   9.767   2.079
66175SOL    HW1  422   2.105   9.728   2.165
66175SOL    HW2  423   2.176   9.843   2.096
66176SOL     OW  424  12.599   1.284   2.157
66176SOL    HW1  425  12.594   1.375   2.127
66176SOL    HW2  426  12.642   1.289   2.242
66177SOL     OW  427   3.602  14.583   5.076
66177SOL    HW1  428   3.610  14.518   5.146
66177SOL    HW2  429   3.530  14.551   5.021
66178SOL     OW  430   2.397   1.670  11.525
66178SOL    HW1  431   2.393   1.575  11.521
66178SOL    HW2  432   2.411   1.698  11.434
66179SOL     OW  433  13.679  13.769  14.633
66179SOL    HW1  434  13.639  13.853  14.654
66179SOL    HW2  435  13.607  13.716  14.598
66180SOL     OW  436   5.254  13.097   6.973
66180SOL    HW1  437   5.174  13.047   6.990
66180SOL    HW2  438   5.231  13.187   6.997
66181SOL     OW  439   9.970   0.700   0.449
66181SOL    HW1  440   9.978   0.672   0.540
66181SOL    HW2  441   9.984   0.620   0.398
66182SOL     OW  442   1.502   9.967   0.182
66182SOL    HW1  443   1.535  10.055   0.165
66182SOL    HW2  444   1.578   9.919   0.215
66183SOL     OW  445  13.554   1.246   4.936
66183SOL    HW1  446  13.549   1.301   5.014
66183SOL    HW2  447  13.564   1.158   4.970
66184SOL     OW  448   5.553   8.114   1.238
66184SOL    HW1  449   5.544   8.022   1.212
66184SOL    HW2  450   5.637   8.117   1.283
66185SOL     OW  451   9.090  13.295   0.597
66185SOL    HW1  452   9.097  13.227   0.663
66185SOL    HW2  453   9.026  13.263   0.535
66186SOL     OW  454  13.657   6.190   2.960
66186SOL    HW1  455  13.668   6.129   2.887
66186SOL    HW2  456  13.683   6.275   2.924
66187SOL     OW  457   9.088   2.767   4.791
66187SOL    HW1  458   9.171   2.815   4.790
66187SOL    HW2  459   9.046   2.792   4.709
66188SOL     OW  460   1.038   9.629   3.294
66188SOL    HW1  461   1.034   9.716   3.255
66188SOL    HW2  462   1.112   9.631   3.354
66189SOL     OW  463   5.149  14.806   5.690
66189SOL    HW1  464   5.134   0.012   5.674
66189SOL    HW2  465   5.136  14.795   5.784
66190SOL     OW  466   1.562   5.648   2.330
66190SOL    HW1  467   1.584   5.731   2.373
66190SOL    HW2  468   1.636   5.632   2.271
66191SOL     OW  469   6.641   9.702   8.535
66191SOL    HW1  470   6.715   9.704   8.596
66191SOL    HW2  471   6.682   9.696   8.448
66192SOL     OW  472  11.049   1.052  14.527
66192SOL    HW1  473  11.039   1.025  14.436
66192SOL    HW2  474  10.994   1.129  14.536
66193SOL     OW  475   8.113  12.256  12.031
66193SOL    HW1  476   8.167  12.331  12.006
66193SOL    HW2  477   8.112  12.258  12.127
66194SOL     OW  478  12.388   5.192   6.584
66194SOL    HW1  479  12.329   5.122   6.612
66194SOL    HW2  480  12.331   5.260   6.549
66195SOL     OW  481  14.671   0.458   5.208
66195SOL    HW1  482  14.598   0.520   5.208
66195SOL    HW2  483  14.654   0.401   5.283
66196SOL     OW  484   6.441   3.325   2.303
66196SOL    HW1  485   6.490   3.395   2.346
66196SOL    HW2  486   6.361   3.317   2.354
66197SOL     OW  487  10.356   9.936  12.944
66197SOL    HW1  488  10.416   9.963  13.014
66197SOL    HW2  489  10.350  10.013  12.887
66198SOL     OW  490   9.770  10.397   9.135
66198SOL    HW1  491   9.815  10.481   9.128
66198SOL    HW2  492   9.685  10.419   9.175
66199SOL     OW  493   3.604   8.218   3.987
66199SOL    HW1  494   3.604   8.138   4.040
66199SOL    HW2  495   3.602   8.187   3.897
66200SOL     OW  496  11.837  10.427  11.063
66200SOL    HW1  497  11.891  10.394  10.992
66200SOL    HW2  498  11.782  10.493  11.023
66201SOL     OW  499   5.847   0.646   8.707
66201SOL    HW1  500   5.865   0.608   8.621
66201SOL    HW2  501   5.830   0.739   8.690
66202SOL     OW  502  12.042   4.272   0.347
66202SOL    HW1  503  11.963   4.285   0.400
66202SOL    HW2  504  12.050   4.353   0.296
66203SOL     OW  505   3.082   0.796  13.027
66203SOL    HW1  506   3.077   0.890  13.044
66203SOL    HW2  507   3.080   0.788  12.932
66204SOL     OW  508  12.706   4.036  10.704
66204SOL    HW1  509  12.704   3.977  10.629
66204SOL    HW2  510  12.692   4.123  10.668
66205SOL     OW  511   9.490   4.719   2.346
66205SOL    HW1  512   9.405   4.686   2.375
66205SOL    HW2  513   9.552   4.690   2.412
66206SOL     OW  514  14.801   5.481  14.453
66206SOL    HW1  515  14.770   5.452  14.538
66206SOL    HW2  516  14.731   5.457  14.392
66207SOL     OW  517   7.023  12.487  11.423
66207SOL    HW1  518   7.027  12.552  11.353
66207SOL    HW2  519   7.058  12.407  11.383
66208SOL     OW  520   4.181   7.299   1.961
66208SOL    HW1  521   4.086   7.307   1.964
66208SOL    HW2  522   4.199   7.230   1.898
66209SOL     OW  523   9.435   7.375   0.298
66209SOL    HW1  524   9.347   7.409   0.309
66209SOL    HW2  525   9.435   7.337   0.210
66210SOL     OW  526   9.475   6.790  11.803
66210SOL    HW1  527   9.469   6.734  11.880
66210SOL    HW2  528   9.537   6.746  11.746
66211SOL     OW  529   0.920   1.931   2.446
66211SOL    HW1  530   0.974   1.955   2.371
66211SOL    HW2  531   0.954   1.984   2.518
66212SOL     OW  532   4.224   8.954   1.291
66212SOL    HW1  533   4.222   9.042   1.327
66212SOL    HW2  534   4.227   8.897   1.369
66213SOL     OW  535   2.313  10.015   4.729
66213SOL    HW1  536   2.387   9.968   4.768
66213SOL    HW2  537   2.266   9.949   4.678
66214SOL     OW  538  11.875  12.918  13.177
66214SOL    HW1  539  11.887  12.955  13.089
66214SOL    HW2  540  11.791  12.951  13.206
66215SOL     OW  541   2.938   4.035  13.457
66215SOL    HW1  542   2.864   4.066  13.510
66215SOL    HW2  543   2.995   4.111  13.449
66216SOL     OW  544  12.245   5.143  13.293
66216SOL    HW1  545  12.227   5.234  13.319
66216SOL    HW2  546  12.159   5.108  13.269
66217SOL     OW  547   3.940   7.867  14.506
66217SOL    HW1  548   3.911   7.952  14.472
66217SOL    HW2  549   3.882   7.850  14.580
66218SOL     OW  550   8.839   4.457  14.758
66218SOL    HW1  551   8.813   4.507  14.680
66218SOL    HW2  552   8.847   4.523  14.827
66219SOL     OW  553  14.797  14.122   7.638
66219SOL    HW1  554  14.775  14.213   7.617
66219SOL    HW2  555  14.869  14.129   7.702
66220SOL     OW  556  14.802  12.167   7.642
66220SOL    HW1  557  14.814  12.079   7.680
66220SOL    HW2  558  14.832  12.159   7.552
66221SOL     OW  559   7.659   8.047   0.442
66221SOL    HW1  560   7.666   8.131   0.487
66221SOL    HW2  561   7.737   8.042   0.387
66222SOL     OW  562   9.432  12.529   1.499
66222SOL    HW1  563   9.417  12.611   1.451
66222SOL    HW2  564   9.486  12.556   1.574
66223SOL     OW  565   5.628  11.181   8.260
66223SOL    HW1  566   5.704  11.127   8.281
66223SOL    HW2  567   5.637  11.200   8.166
66224SOL     OW  568   1.413   8.099  11.844
66224SOL    HW1  569   1.446   8.128  11.759
66224SOL    HW2  570   1.481   8.123  11.907
66225SOL     OW  571  10.772  10.153   0.046
66225SOL    HW1  572  10.680  10.145   0.069
66225SOL    HW2  573  10.804  10.226   0.099
66226SOL     OW  574   9.383   0.565   5.172
66226SOL    HW1  575   9.478   0.561   5.164
66226SOL    HW2  576   9.362   0.497   5.236
66227SOL     OW  577  11.332   6.817   0.908
66227SOL    HW1  578  11.272   6.745   0.892
66227SOL    HW2  579  11.416   6.776   0.926
66228SOL     OW  580  12.515   5.578   0.525
66228SOL    HW1  581  12.529   5.565   0.431
66228SOL    HW2  582  12.581   5.642   0.550
66229SOL     OW  583   8.710  12.932   7.963
66229SOL    HW1  584   8.666  13.003   8.011
66229SOL    HW2  585   8.743  12.874   8.030
66230SOL     OW  586   5.767   3.109   2.589
66230SOL    HW1  587   5.721   3.104   2.505
66230SOL    HW2  588   5.826   3.183   2.579
66231SOL     OW  589   7.781  13.904   8.158
66231SOL    HW1  590   7.750  13.960   8.229
66231SOL    HW2  591   7.762  13.815   8.188
66232SOL     OW  592   9.919   9.927   2.824
66232SOL    HW1  593   9.905   9.942   2.731
66232SOL    HW2  594   9.986   9.991   2.849
66233SOL     OW  595   7.320   2.652   6.418
66233SOL    HW1  596   7.411   2.677   6.430
66233SOL    HW2  597   7.273   2.698   6.488
66234SOL     OW  598  12.312   3.682   6.456
66234SOL    HW1  599  12.311   3.589   6.434
66234SOL    HW2  600  12.404   3.707   6.449
66235SOL     OW  601  12.004   4.215   1.694
66235SOL    HW1  602  11.945   4.145   1.722
66235SOL    HW2  603  11.949   4.293   1.691
66236SOL     OW  604   2.742   6.794   6.261
66236SOL    HW1  605   2.806   6.852   6.303
66236SOL    HW2  606   2.662   6.846   6.257
66237SOL     OW  607   5.738   5.532   8.813
66237SOL    HW1  608   5.695   5.598   8.868
66237SOL    HW2  609   5.785   5.477   8.875
66238SOL     OW  610   8.461  10.703   6.034
66238SOL    HW1  611   8.408  10.628   6.005
66238SOL    HW2  612   8.464  10.761   5.958
66239SOL     OW  613   8.387   1.431   9.556
66239SOL    HW1  614   8.467   1.469   9.521
66239SOL    HW2  615   8.319   1.456   9.493
66240SOL     OW  616  11.006   9.233  10.395
66240SOL    HW1  617  10.975   9.271  10.477
66240SOL    HW2  618  11.040   9.307  10.345
66241SOL     OW  619  10.432   7.541   7.889
66241SOL    HW1  620  10.520   7.538   7.927
66241SOL    HW2  621  10.422   7.632   7.860
66242SOL     OW  622   4.820  11.963   8.968
66242SOL    HW1  623   4.914  11.944   8.969
66242SOL    HW2  624   4.789  11.936   9.054
66243SOL     OW  625  11.336   6.967  13.167
66243SOL    HW1  626  11.398   7.039  13.156
66243SOL    HW2  627  11.256   7.008  13.199
66244SOL     OW  628   9.752   1.216   0.484
66244SOL    HW1  629   9.673   1.161   0.488
66244SOL    HW2  630   9.758   1.254   0.572
66245SOL     OW  631  14.714  10.881   7.997
66245SOL    HW1  632  14.799  10.864   8.038
66245SOL    HW2  633  14.735  10.896   7.905
66246SOL     OW  634   8.757  11.842   0.749
66246SOL    HW1  635   8.841  11.827   0.793
66246SOL    HW2  636   8.774  11.821   0.657
66247SOL     OW  637   9.768  11.024   5.870
66247SOL    HW1  638   9.755  10.929   5.879
66247SOL    HW2  639   9.711  11.049   5.797
66248SOL     OW  640   6.498  13.529  14.454
66248SOL    HW1  641   6.582  13.487  14.439
66248SOL    HW2  642   6.509  13.578  14.535
66249SOL     OW  643   7.516   1.495   5.359
66249SOL    HW1  644   7.494   1.533   5.274
66249SOL    HW2  645   7.445   1.434   5.377
66250SOL     OW  646  11.605  12.356   3.482
66250SOL    HW1  647  11.690  12.349   3.525
66250SOL    HW2  648  11.545  12.381   3.552
66251SOL     OW  649   4.855  11.600  11.563
66251SOL    HW1  650   4.925  11.660  11.538
66251SOL    HW2  651   4.778  11.657  11.570
66252SOL     OW  652   2.994   8.686   5.737
66252SOL    HW1  653   3.078   8.729   5.720
66252SOL    HW2  654   2.986   8.621   5.667
66253SOL     OW  655   4.978   6.192  12.932
66253SOL    HW1  656   4.940   6.225  12.850
66253SOL    HW2  657   4.965   6.264  12.995
66254SOL     OW  658   3.752   7.399  12.503
66254SOL    HW1  659   3.820   7.374  12.566
66254SOL    HW2  660   3.761   7.493  12.494
66255SOL     OW  661   3.379   0.138   5.343
66255SOL    HW1  662   3.370   0.045   5.364
66255SOL    HW2  663   3.295   0.162   5.305
66256SOL     OW  664   8.784   1.130   1.071
66256SOL    HW1  665   8.850   1.101   1.008
66256SOL    HW2  666   8.745   1.048   1.103
66257SOL     OW  667   1.513   4.274   6.742
66257SOL    HW1  668   1.494   4.188   6.703
66257SOL    HW2  669   1.503   4.335   6.669
66258SOL     OW  670  10.608   4.152   5.130
66258SOL    HW1  671  10.516   4.173   5.117
66258SOL    HW2  672  10.653   4.236   5.136
66259SOL     OW  673   4.941  10.676  12.522
66259SOL    HW1  674   4.960  10.770  12.515
66259SOL    HW2  675   4.850  10.669  12.493
66260SOL     OW  676  13.750  12.359  11.204
66260SOL    HW1  677  13.683  12.313  11.255
66260SOL    HW2  678  13.795  12.414  11.269
66261SOL     OW  679  10.729  11.119  13.663
66261SOL    HW1  680  10.775  11.190  13.707
66261SOL    HW2  681  10.705  11.154  13.577
66262SOL     OW  682   2.587   6.786   3.231
66262SOL    HW1  683   2.543   6.706   3.262
66262SOL    HW2  684   2.639   6.816   3.306
66263SOL     OW  685   7.612  10.441  12.289
66263SOL    HW1  686   7.576  10.484  12.211
66263SOL    HW2  687   7.567  10.357  12.293
66264SOL     OW  688   3.328   8.980   5.905
66264SOL    HW1  689   3.263   9.037   5.945
66264SOL    HW2  690   3.348   9.023   5.821
66265SOL     OW  691   2.040   7.802   3.710
66265SOL    HW1  692   2.069   7.727   3.762
66265SOL    HW2  693   2.003   7.863   3.774
66266SOL     OW  694   6.882   6.383   2.815
66266SOL    HW1  695   6.960   6.338   2.849
66266SOL    HW2  696   6.811   6.320   2.825
66267SOL     OW  697   4.648   2.563  14.745
66267SOL    HW1  698   4.557   2.580  14.769
66267SOL    HW2  699   4.665   2.473  14.774
66268SOL     OW  700   1.210   9.028   5.142
66268SOL    HW1  701   1.211   8.934   5.122
66268SOL    HW2  702   1.250   9.069   5.065
66269SOL     OW  703  10.867   9.638   9.037
66269SOL    HW1  704  10.814   9.595   8.970
66269SOL    HW2  705  10.806   9.655   9.108
66270SOL     OW  706   9.600  10.977  10.959
66270SOL    HW1  707   9.551  11.038  10.904
66270SOL    HW2  708   9.680  11.024  10.981
66271SOL     OW  709   7.679  10.587   0.818
66271SOL    HW1  710   7.771  10.611   0.825
66271SOL    HW2  711   7.632  10.669   0.832
66272SOL     OW  712   6.601   3.588   2.316
66272SOL    HW1  713   6.616   3.658   2.380
66272SOL    HW2  714   6.539   3.626   2.253
66273SOL     OW  715   6.983   7.649   0.709
66273SOL    HW1  716   7.050   7.583   0.692
66273SOL    HW2  717   6.948   7.626   0.795
66274SOL     OW  718   0.535  14.119   3.383
66274SOL    HW1  719   0.459  14.147   3.434
66274SOL    HW2  720   0.586  14.198   3.371
66275SOL     OW  721   8.922   1.988   4.401
66275SOL    HW1  722   8.861   2.049   4.443
66275SOL    HW2  723   8.925   2.016   4.310
66276SOL     OW  724   4.540  12.709   7.133
66276SOL    HW1  725   4.604  12.756   7.186
66276SOL    HW2  726   4.552  12.745   7.045
66277SOL     OW  727  13.864   2.504  10.682
66277SOL    HW1  728  13.806   2.541  10.615
66277SOL    HW2  729  13.947   2.492  10.637
66278SOL     OW  730  11.755   9.519   8.347
66278SOL    HW1  731  11.798   9.590   8.298
66278SOL    HW2  732  11.708   9.563   8.418
66279SOL     OW  733  14.524   5.684   3.994
66279SOL    HW1  734  14.592   5.623   4.021
66279SOL    HW2  735  14.534   5.759   4.053
66280SOL     OW  736  13.965   4.724   6.362
66280SOL    HW1  737  14.030   4.781   6.321
66280SOL    HW2  738  13.966   4.749   6.455
66281SOL     OW  739  11.294  11.559   7.540
66281SOL    HW1  740  11.245  11.537   7.461
66281SOL    HW2  741  11.284  11.483   7.597
66282SOL     OW  742   5.505  11.664  14.822
66282SOL    HW1  743   5.410  11.665  14.828
66282SOL    HW2  744   5.533  11.592  14.878
66283SOL     OW  745   4.549   5.107   1.327
66283SOL    HW1  746   4.486   5.176   1.305
66283SOL    HW2  747   4.634   5.150   1.323
66284SOL     OW  748   7.527  14.287   9.494
66284SOL    HW1  749   7.538  14.382   9.484
66284SOL    HW2  750   7.575  14.266   9.574
66285SOL     OW  751   5.805  10.891  13.375
66285SOL    HW1  752   5.830  10.911  13.465
66285SOL    HW2  753   5.709  10.888  13.377
66286SOL     OW  754  11.007   5.242  11.814
66286SOL    HW1  755  11.001   5.280  11.726
66286SOL    HW2  756  11.098   5.254  11.839
66287SOL     OW  757   2.560   6.053   2.996
66287SOL    HW1  758   2.616   6.120   3.035
66287SOL    HW2  759   2.574   5.976   3.051
66288SOL     OW  760  12.316   4.036  14.272
66288SOL    HW1  761  12.317   4.084  14.189
66288SOL    HW2  762  12.225   4.045  14.303
66289SOL     OW  763   9.213  11.681   9.042
66289SOL    HW1  764   9.237  11.757   9.094
66289SOL    HW2  765   9.120  11.693   9.022
66290SOL     OW  766   1.576   6.146   5.644
66290SOL    HW1  767   1.513   6.109   5.706
66290SOL    HW2  768   1.575   6.086   5.570
66291SOL     OW  769  10.727   3.454   1.037
66291SOL    HW1  770  10.767   3.430   1.121
66291SOL    HW2  771  10.644   3.407   1.035
66292SOL     OW  772   8.544  14.286   8.886
66292SOL    HW1  773   8.580  14.318   8.803
66292SOL    HW2  774   8.478  14.221   8.860
66293SOL     OW  775   7.479  14.792   2.423
66293SOL    HW1  776   7.542  14.846   2.470
66293SOL    HW2  777   7.468  14.715   2.477
66294SOL     OW  778  12.127   2.883   8.049
66294SOL    HW1  779  12.077   2.959   8.019
66294SOL    HW2  780  12.208   2.920   8.084
66295SOL     OW  781   1.907  14.757   0.225
66295SOL    HW1  782   1.842  14.723   0.286
66295SOL    HW2  783   1.895  14.706   0.145
66296SOL     OW  784   5.103   1.730  11.079
66296SOL    HW1  785   5.043   1.804  11.071
66296SOL    HW2  786   5.096   1.703  11.171
66297SOL     OW  787  11.198   1.269  12.373
66297SOL    HW1  788  11.165   1.194  12.423
66297SOL    HW2  789  11.123   1.298  12.322
66298SOL     OW  790  11.704   8.886  12.780
66298SOL    HW1  791  11.658   8.814  12.823
66298SOL    HW2  792  11.685   8.962  12.834
66299SOL     OW  793   8.928  12.030   1.257
66299SOL    HW1  794   8.907  12.122   1.245
66299SOL    HW2  795   8.851  11.993   1.299
66300SOL     OW  796   1.450   7.811   7.358
66300SOL    HW1  797   1.378   7.774   7.409
66300SOL    HW2  798   1.425   7.797   7.267
66301SOL     OW  799   4.116   0.646  13.668
66301SOL    HW1  800   4.180   0.712  13.694
66301SOL    HW2  801   4.157   0.598  13.596
66302SOL     OW  802  12.076   7.869  14.288
66302SOL    HW1  803  11.982   7.863  14.275
66302SOL    HW2  804  12.114   7.818  14.216
66303SOL     OW  805   2.177  14.426   4.562
66303SOL    HW1  806   2.133  14.479   4.496
66303SOL    HW2  807   2.106  14.395   4.618
66304SOL     OW  808   0.853  11.131  14.450
66304SOL    HW1  809   0.942  11.096  14.455
66304SOL    HW2  810   0.798  11.059  14.482
66305SOL     OW  811  14.312   1.909   8.749
66305SOL    HW1  812  14.219   1.887   8.758
66305SOL    HW2  813  14.316   2.003   8.764
66306SOL     OW  814   6.390   6.761  11.727
66306SOL    HW1  815   6.383   6.814  11.807
66306SOL    HW2  816   6.473   6.789  11.688
66307SOL     OW  817   2.899   6.131  11.278
66307SOL    HW1  818   2.859   6.056  11.323
66307SOL    HW2  819   2.917   6.099  11.189
66308SOL     OW  820  13.204  11.708  14.817
66308SOL    HW1  821  13.260  11.717  14.740
66308SOL    HW2  822  13.149  11.786  14.817
66309SOL     OW  823   3.282   0.330   0.482
66309SOL    HW1  824   3.236   0.307   0.401
66309SOL    HW2  825   3.213   0.332   0.548
66310SOL     OW  826   8.199   3.075   5.416
66310SOL    HW1  827   8.171   2.985   5.431
66310SOL    HW2  828   8.153   3.127   5.482
66311SOL     OW  829   8.735   6.451   2.081
66311SOL    HW1  830   8.648   6.438   2.119
66311SOL    HW2  831   8.795   6.442   2.155
66312SOL     OW  832   7.512   7.716   4.055
66312SOL    HW1  833   7.606   7.709   4.069
66312SOL    HW2  834   7.495   7.809   4.047
66313SOL     OW  835   6.923   1.292  12.961
66313SOL    HW1  836   6.944   1.359  12.896
66313SOL    HW2  837   7.007   1.270  13.001
66314SOL     OW  838  11.919   2.462  11.938
66314SOL    HW1  839  11.840   2.447  11.990
66314SOL    HW2  840  11.886   2.495  11.854
66315SOL     OW  841  11.746   6.317   9.105
66315SOL    HW1  842  11.680   6.308   9.037
66315SOL    HW2  843  11.830   6.305   9.061
66316SOL     OW  844   2.423   9.593  10.994
66316SOL    HW1  845   2.359   9.546  11.047
66316SOL    HW2  846   2.377   9.671  10.963
66317SOL     OW  847   3.506   6.542   1.105
66317SOL    HW1  848   3.551   6.523   1.187
66317SOL    HW2  849   3.574   6.578   1.048
66318SOL     OW  850  14.075   1.277   4.912
66318SOL    HW1  851  14.100   1.233   4.993
66318SOL    HW2  852  14.072   1.370   4.936
66319SOL     OW  853   9.876  13.741   6.565
66319SOL    HW1  854   9.836  13.655   6.556
66319SOL    HW2  855   9.802  13.802   6.569
66320SOL     OW  856   4.458  13.497  12.744
66320SOL    HW1  857   4.421  13.472  12.659
66320SOL    HW2  858   4.466  13.415  12.792
66321SOL     OW  859  11.280  10.886  14.008
66321SOL    HW1  860  11.351  10.837  14.049
66321SOL    HW2  861  11.216  10.819  13.984
66322SOL     OW  862  13.844   4.238   7.289
66322SOL    HW1  863  13.826   4.275   7.375
66322SOL    HW2  864  13.893   4.158   7.306
66323SOL     OW  865  10.111  13.552   1.868
66323SOL    HW1  866  10.072  13.485   1.925
66323SOL    HW2  867  10.039  13.581   1.813
66324SOL     OW  868   4.297  13.326   0.902
66324SOL    HW1  869   4.328  13.411   0.870
66324SOL    HW2  870   4.292  13.336   0.997
66325SOL     OW  871   9.389   6.514   6.650
66325SOL    HW1  872   9.422   6.572   6.581
66325SOL    HW2  873   9.408   6.561   6.731
66326SOL     OW  874  11.491   9.030   5.526
66326SOL    HW1  875  11.550   9.022   5.601
66326SOL    HW2  876  11.450   9.116   5.536
66327SOL     OW  877  13.762   4.007   2.043
66327SOL    HW1  878  13.798   3.918   2.031
66327SOL    HW2  879  13.674   4.002   2.004
66328SOL     OW  880   0.516  12.358  12.277
66328SOL    HW1  881   0.609  12.381  12.273
66328SOL    HW2  882   0.470  12.440  12.256
66329SOL     OW  883  14.866  12.817   2.421
66329SOL    HW1  884   0.046  12.834   2.356
66329SOL    HW2  885  14.862  12.721   2.427
66330SOL     OW  886  13.811   5.192   9.474
66330SOL    HW1  887  13.791   5.109   9.432
66330SOL    HW2  888  13.884   5.173   9.533
66331SOL     OW  889   9.720  10.496  11.673
66331SOL    HW1  890   9.705  10.407  11.707
66331SOL    HW2  891   9.730  10.550  11.751
66332SOL     OW  892   0.390   2.112  11.405
66332SOL    HW1  893   0.375   2.059  11.327
66332SOL    HW2  894   0.484   2.105  11.420
66333SOL     OW  895   7.705  13.277  14.358
66333SOL    HW1  896   7.696  13.243  14.269
66333SOL    HW2  897   7.761  13.355  14.349
66334SOL     OW  898   2.676   8.871   3.871
66334SOL    HW1  899   2.682   8.857   3.965
66334SOL    HW2  900   2.666   8.783   3.834
66335SOL     OW  901   2.145  10.671  12.563
66335SOL    HW1  902   2.189  10.628  12.490
66335SOL    HW2  903   2.071  10.615  12.583
66336SOL     OW  904   5.220   7.602   4.031
66336SOL    HW1  905   5.198   7.511   4.052
66336SOL    HW2  906   5.194   7.651   4.109
66337SOL     OW  907  12.271   0.690   9.899
66337SOL    HW1  908  12.363   0.691   9.927
66337SOL    HW2  909  12.227   0.750   9.958
66338SOL     OW  910   1.475   0.410   0.510
66338SOL    HW1  911   1.551   0.464   0.534
66338SOL    HW2  912   1.436   0.386   0.594
66339SOL     OW  913   3.205   9.161   4.060
66339SOL    HW1  914   3.256   9.094   4.015
66339SOL    HW2  915   3.118   9.121   4.070
66340SOL     OW  916   1.095   0.679   7.372
66340SOL    HW1  917   1.179   0.683   7.418
66340SOL    HW2  918   1.082   0.766   7.336
66341SOL     OW  919   6.232  11.749  13.385
66341SOL    HW1  920   6.149  11.779  13.347
66341SOL    HW2  921   6.214  11.658  13.412
66342SOL     OW  922   2.008   1.977   0.868
66342SOL    HW1  923   1.951   2.018   0.803
66342SOL    HW2  924   1.978   1.887   0.874
66343SOL     OW  925  14.210  11.069  10.921
66343SOL    HW1  926  14.275  11.125  10.964
66343SOL    HW2  927  14.226  10.982  10.955
66344SOL     OW  928   2.334  11.123   2.373
66344SOL    HW1  929   2.332  11.058   2.444
66344SOL    HW2  930   2.277  11.193   2.404
66345SOL     OW  931  14.621   9.270   5.783
66345SOL    HW1  932  14.623   9.354   5.830
66345SOL    HW2  933  14.530   9.261   5.755
66346SOL     OW  934   2.497   3.769  13.456
66346SOL    HW1  935   2.406   3.763  13.486
66346SOL    HW2  936   2.550   3.750  13.533
66347SOL     OW  937   5.381   6.570   1.102
66347SOL    HW1  938   5.391   6.658   1.138
66347SOL    HW2  939   5.437   6.569   1.024
66348SOL     OW  940   9.270   6.394   4.300
66348SOL    HW1  941   9.225   6.317   4.266
66348SOL    HW2  942   9.202   6.461   4.306
66349SOL     OW  943   4.779  13.029   1.209
66349SOL    HW1  944   4.799  12.955   1.150
66349SOL    HW2  945   4.743  13.096   1.152
66350SOL     OW  946   0.814   2.034  13.909
66350SOL    HW1  947   0.803   2.018  14.003
66350SOL    HW2  948   0.909   2.038  13.897
66351SOL     OW  949   8.515   2.270   3.133
66351SOL    HW1  950   8.535   2.311   3.049
66351SOL    HW2  951   8.419   2.277   3.141
66352SOL     OW  952   0.872   6.021  10.122
66352SOL    HW1  953   0.792   6.054  10.082
66352SOL    HW2  954   0.932   6.096  10.121
66353SOL     OW  955  11.308   0.680   9.551
66353SOL    HW1  956  11.339   0.589   9.555
66353SOL    HW2  957  11.362   0.726   9.615
66354SOL     OW  958  11.606   8.517  14.151
66354SOL    HW1  959  11.578   8.589  14.095
66354SOL    HW2  960  11.541   8.448  14.137
66355SOL     OW  961  12.140   8.554   2.168
66355SOL    HW1  962  12.229   8.566   2.135
66355SOL    HW2  963  12.141   8.587   2.257
66356SOL     OW  964  11.844  14.210   7.631
66356SOL    HW1  965  11.913  14.149   7.657
66356SOL    HW2  966  11.865  14.231   7.539
66357SOL     OW  967   2.752  10.156   5.177
66357SOL    HW1  968   2.827  10.109   5.139
66357SOL    HW2  969   2.679  10.095   5.168
66358SOL     OW  970  13.092   6.127   4.679
66358SOL    HW1  971  13.154   6.199   4.674
66358SOL    HW2  972  13.142   6.050   4.653
66359SOL     OW  973  11.643   7.260  11.783
66359SOL    HW1  974  11.676   7.291  11.699
66359SOL    HW2  975  11.646   7.164  11.776
66360SOL     OW  976  12.019  13.305  12.695
66360SOL    HW1  977  12.111  13.299  12.671
66360SOL    HW2  978  11.982  13.221  12.669
66361SOL     OW  979   7.589  12.770  14.771
66361SOL    HW1  980   7.601  12.817  14.854
66361SOL    HW2  981   7.534  12.828  14.719
66362SOL     OW  982   8.148   8.821   7.793
66362SOL    HW1  983   8.223   8.834   7.851
66362SOL    HW2  984   8.135   8.906   7.751
66363SOL     OW  985   5.149   6.089   3.090
66363SOL    HW1  986   5.213   6.113   3.023
66363SOL    HW2  987   5.067   6.126   3.058
66364SOL     OW  988  11.852   5.287   5.359
66364SOL    HW1  989  11.929   5.253   5.405
66364SOL    HW2  990  11.868   5.381   5.352
66365SOL     OW  991   4.980   5.670  11.453
66365SOL    HW1  992   4.935   5.593  11.418
66365SOL    HW2  993   4.936   5.744  11.413
66366SOL     OW  994  14.223  14.424   5.123
66366SOL    HW1  995  14.297  14.482   5.143
66366SOL    HW2  996  14.228  14.356   5.190
66367SOL     OW  997  11.108   7.702  13.360
66367SOL    HW1  998  11.098   7.688  13.455
66367SOL    HW2  999  11.104   7.614  13.323
66368SOL     OW 1000   6.236  12.884  11.656
66368SOL    HW1 1001   6.197  12.919  11.575
66368SOL    HW2 1002   6.238  12.789  11.643
66369SOL     OW 1003   2.131   1.983  10.642
66369SOL    HW1 1004   2.047   1.994  10.687
66369SOL    HW2 1005   2.107   1.946  10.557
66370SOL     OW 1006   5.869   7.253   2.183
66370SOL    HW1 1007   5.878   7.345   2.158
66370SOL    HW2 1008   5.811   7.254   2.259
66371SOL     OW 1009  14.335  11.236   9.535
66371SOL    HW1 1010  14.254  11.206   9.577
66371SOL    HW2 1011  14.322  11.330   9.522
66372SOL     OW 1012  12.960   2.258   5.228
66372SOL    HW1 1013  13.031   2.193   5.229
66372SOL    HW2 1014  13.004   2.341   5.247
66373SOL     OW 1015   7.846   6.287   9.231
66373SOL    HW1 1016   7.804   6.235   9.300
66373SOL    HW2 1017   7.778   6.296   9.164
66374SOL     OW 1018   8.168  12.222  14.739
66374SOL    HW1 1019   8.162  12.129  14.761
66374SOL    HW2 1020   8.215  12.262  14.812
66375SOL     OW 1021   1.313   3.755   2.624
66375SOL    HW1 1022   1.333   3.661   2.619
66375SOL    HW2 1023   1.271   3.765   2.709
66376SOL     OW 1024   4.086   2.239   3.697
66376SOL    HW1 1025   4.167   2.280   3.726
66376SOL    HW2 1026   4.051   2.197   3.775
66377SOL     OW 1027   3.078   9.760   0.603
66377SOL    HW1 1028   3.084   9.806   0.519
66377SOL    HW2 1029   2.984   9.751   0.619
66378SOL     OW 1030  12.905   4.555   4.464
66378SOL    HW1 1031  12.953   4.474   4.481
66378SOL    HW2 1032  12.961   4.603   4.402
66379SOL     OW 1033   8.101   1.959  11.714
66379SOL    HW1 1034   8.024   1.972  11.660
66379SOL    HW2 1035   8.174   1.958  11.652
66380SOL     OW 1036   8.410   8.675  10.510
66380SOL    HW1 1037   8.357   8.646  10.435
66380SOL    HW2 1038   8.346   8.702  10.576
66381SOL     OW 1039   0.993   0.440   9.060
66381SOL    HW1 1040   0.902   0.436   9.030
66381SOL    HW2 1041   1.044   0.404   8.987
66382SOL     OW 1042   8.847   7.640   6.902
66382SOL    HW1 1043   8.937   7.610   6.889
66382SOL    HW2 1044   8.855   7.734   6.915
66383SOL     OW 1045  11.586  11.680   6.118
66383SOL    HW1 1046  11.528  11.638   6.055
66383SOL    HW2 1047  11.634  11.745   6.068
66384SOL     OW 1048   3.432  12.819  11.731
66384SOL    HW1 1049   3.489  12.863  11.794
66384SOL    HW2 1050   3.344  12.830  11.767
66385SOL     OW 1051  13.944  11.900   7.773
66385SOL    HW1 1052  13.982  11.839   7.836
66385SOL    HW2 1053  13.987  11.984   7.791
66386SOL     OW 1054  13.031   2.887  11.470
66386SOL    HW1 1055  13.062   2.832  11.397
66386SOL    HW2 1056  12.963   2.834  11.512
66387SOL     OW 1057   0.232   4.010   4.837
66387SOL    HW1 1058   0.197   3.928   4.804
66387SOL    HW2 1059   0.267   3.989   4.924
66388SOL     OW 1060  10.215  11.056   1.873
66388SOL    HW1 1061  10.289  11.059   1.812
66388SOL    HW2 1062  10.146  11.105   1.829
66389SOL     OW 1063  13.030  12.200   5.130
66389SOL    HW1 1064  13.017  12.235   5.042
66389SOL    HW2 1065  13.057  12.276   5.182
66390SOL     OW 1066   0.721  13.099  13.655
66390SOL    HW1 1067   0.654  13.149  13.610
66390SOL    HW2 1068   0.710  13.009  13.623
66391SOL     OW 1069   8.491   2.361  12.389
66391SOL    HW1 1070   8.406   2.319  12.375
66391SOL    HW2 1071   8.484   2.446  12.345
66392SOL     OW 1072  10.238  12.299   1.374
66392SOL    HW1 1073  10.320  12.302   1.325
66392SOL    HW2 1074  10.255  12.237   1.445
66393SOL     OW 1075  14.781   8.808  12.858
66393SOL    HW1 1076  14.714   8.876  12.855
66393SOL    HW2 1077  14.747   8.744  12.920
66394SOL     OW 1078   9.915   7.981   1.043
66394SOL    HW1 1079   9.975   7.911   1.017
66394SOL    HW2 1080   9.836   7.935   1.074
66395SOL     OW 1081  12.838   4.921   2.682
66395SOL    HW1 1082  12.744   4.909   2.671
66395SOL    HW2 1083  12.849   5.014   2.702
66396SOL     OW 1084  14.389  13.899   6.880
66396SOL    HW1 1085  14.389  13.896   6.975
66396SOL    HW2 1086  14.351  13.815   6.853
66397SOL     OW 1087   8.758   2.132   8.490
66397SOL    HW1 1088   8.716   2.046   8.482
66397SOL    HW2 1089   8.688   2.195   8.476
66398SOL     OW 1090   7.893  14.746   6.565
66398SOL    HW1 1091   7.929  14.827   6.601
66398SOL    HW2 1092   7.956  14.679   6.590
66399SOL     OW 1093   1.031   6.602   3.090
66399SOL    HW1 1094   1.105   6.564   3.138
66399SOL    HW2 1095   1.044   6.572   3.000
66400SOL     OW 1096  10.108  13.789  10.479
66400SOL    HW1 1097  10.192  13.782  10.524
66400SOL    HW2 1098  10.111  13.722  10.411
66401SOL     OW 1099  13.091   9.263   9.186
66401SOL    HW1 1100  13.166   9.314   9.217
66401SOL    HW2 1101  13.029   9.329   9.156
66402SOL     OW 1102   0.573   5.970  10.583
66402SOL    HW1 1103   0.510   6.042  10.585
66402SOL    HW2 1104   0.565   5.934  10.494
66403SOL     OW 1105   1.641   8.839   2.517
66403SOL    HW1 1106   1.685   8.780   2.578
66403SOL    HW2 1107   1.703   8.851   2.446
66404SOL     OW 1108  12.419   2.731   6.653
66404SOL    HW1 1109  12.457   2.644   6.645
66404SOL    HW2 1110  12.482   2.780   6.706
66405SOL     OW 1111   7.705  13.365  10.277
66405SOL    HW1 1112   7.691  13.459  10.278
66405SOL    HW2 1113   7.668  13.336  10.193
66406SOL     OW 1114   1.763   6.909  13.706
66406SOL    HW1 1115   1.814   6.990  13.717
66406SOL    HW2 1116   1.829   6.840  13.699
66407SOL     OW 1117   1.453  12.013  13.419
66407SOL    HW1 1118   1.360  12.007  13.439
66407SOL    HW2 1119   1.464  12.101  13.384
66408SOL     OW 1120  12.307   2.970  12.019
66408SOL    HW1 1121  12.257   2.989  12.098
66408SOL    HW2 1122  12.357   3.050  12.002
66409SOL     OW 1123   5.278   8.385   4.747
66409SOL    HW1 1124   5.355   8.411   4.798
66409SOL    HW2 1125   5.205   8.432   4.786
66410SOL     OW 1126   8.219  13.759   4.738
66410SOL    HW1 1127   8.249  13.849   4.722
66410SOL    HW2 1128   8.278  13.704   4.686
66411SOL     OW 1129   8.345   7.551   5.362
66411SOL    HW1 1130   8.298   7.581   5.285
66411SOL    HW2 1131   8.310   7.603   5.434
66412SOL     OW 1132  12.736  12.942   7.666
66412SOL    HW1 1133  12.691  13.021   7.637
66412SOL    HW2 1134  12.827  12.954   7.638
66413SOL     OW 1135   9.343  13.170   2.021
66413SOL    HW1 1136   9.322  13.261   2.041
66413SOL    HW2 1137   9.318  13.160   1.929
66414SOL     OW 1138  13.204   9.993  11.638
66414SOL    HW1 1139  13.154   9.923  11.680
66414SOL    HW2 1140  13.144  10.030  11.574
66415SOL     OW 1141   2.414  10.528  12.365
66415SOL    HW1 1142   2.491  10.547  12.417
66415SOL    HW2 1143   2.444  10.534  12.274
66416SOL     OW 1144  11.913  13.022  12.615
66416SOL    HW1 1145  11.975  12.954  12.641
66416SOL    HW2 1146  11.833  13.001  12.662
66417SOL     OW 1147  11.124  11.262   5.768
66417SOL    HW1 1148  11.081  11.343   5.795
66417SOL    HW2 1149  11.071  11.229   5.696
66418SOL     OW 1150  13.469   8.654   9.494
66418SOL    HW1 1151  13.416   8.586   9.454
66418SOL    HW2 1152  13.417   8.734   9.486
66419SOL     OW 1153   8.022   9.888   6.566
66419SOL    HW1 1154   8.032   9.855   6.477
66419SOL    HW2 1155   8.108   9.872   6.607
66420SOL     OW 1156   7.408  13.304  12.737
66420SOL    HW1 1157   7.397  13.346  12.823
66420SOL    HW2 1158   7.346  13.350  12.680
66421SOL     OW 1159  11.386   3.455  10.512
66421SOL    HW1 1160  11.414   3.467  10.603
66421SOL    HW2 1161  11.403   3.363  10.492
66422SOL     OW 1162   0.006   7.252   3.364
66422SOL    HW1 1163  14.866   7.172   3.409
66422SOL    HW2 1164   0.040   7.308   3.433
66423SOL     OW 1165  12.205  10.089  10.138
66423SOL    HW1 1166  12.154  10.121  10.064
66423SOL    HW2 1167  12.270  10.031  10.099
66424SOL     OW 1168  10.438  10.687   4.125
66424SOL    HW1 1169  10.436  10.771   4.172
66424SOL    HW2 1170  10.527  10.681   4.090
66425SOL     OW 1171  12.051   3.978   3.291
66425SOL    HW1 1172  12.089   4.032   3.361
66425SOL    HW2 1173  12.114   3.908   3.276
66426SOL     OW 1174   4.739   6.412   6.395
66426SOL    HW1 1175   4.779   6.371   6.319
66426SOL    HW2 1176   4.651   6.374   6.399
66427SOL     OW 1177  13.794   0.785   4.467
66427SOL    HW1 1178  13.718   0.816   4.517
66427SOL    HW2 1179  13.797   0.691   4.484
66428SOL     OW 1180   5.594   5.528   5.360
66428SOL    HW1 1181   5.661   5.484   5.413
66428SOL    HW2 1182   5.590   5.477   5.279
66429SOL     OW 1183  13.743  13.560  10.300
66429SOL    HW1 1184  13.754  13.645  10.343
66429SOL    HW2 1185  13.831  13.535  10.273
66430SOL     OW 1186  10.084   2.696   0.780
66430SOL    HW1 1187  10.172   2.661   0.795
66430SOL    HW2 1188  10.027   2.619   0.786
66431SOL     OW 1189  13.235  11.421  11.144
66431SOL    HW1 1190  13.310  11.442  11.089
66431SOL    HW2 1191  13.170  11.487  11.120
66432SOL     OW 1192  11.459   9.700   9.570
66432SOL    HW1 1193  11.504   9.778   9.537
66432SOL    HW2 1194  11.513   9.671   9.643
66433SOL     OW 1195   0.507  14.423  14.279
66433SOL    HW1 1196   0.435  14.391  14.334
66433SOL    HW2 1197   0.473  14.420  14.190
66434SOL     OW 1198   6.744  13.807  10.772
66434SOL    HW1 1199   6.806  13.743  10.807
66434SOL    HW2 1200   6.697  13.839  10.849
66435SOL     OW 1201  12.129   3.930   2.554
66435SOL    HW1 1202  12.120   3.924   2.459
66435SOL    HW2 1203  12.042   3.908   2.588
66436SOL     OW 1204   6.744   5.609   9.358
66436SOL    HW1 1205   6.680   5.681   9.363
66436SOL    HW2 1206   6.728   5.557   9.437
66437SOL     OW 1207  10.227  13.280   6.559
66437SOL    HW1 1208  10.242  13.283   6.464
66437SOL    HW2 1209  10.156  13.342   6.574
66438SOL     OW 1210  14.471   6.150   5.327
66438SOL    HW1 1211  14.478   6.238   5.290
66438SOL    HW2 1212  14.418   6.101   5.265
66439SOL     OW 1213  10.633   0.094   9.113
66439SOL    HW1 1214  10.557   0.062   9.163
66439SOL    HW2 1215  10.704   0.035   9.137
66440SOL     OW 1216  11.429   0.013   1.285
66440SOL    HW1 1217  11.480  14.863   1.357
66440SOL    HW2 1218  11.441  14.840   1.213
66441SOL     OW 1219   7.858  10.446  10.962
66441SOL    HW1 1220   7.842  10.354  10.981
66441SOL    HW2 1221   7.922  10.474  11.027
66442SOL     OW 1222   9.516   2.692  14.658
66442SOL    HW1 1223   9.485   2.730  14.576
66442SOL    HW2 1224   9.610   2.677  14.644
66443SOL     OW 1225   5.460   9.911   9.186
66443SOL    HW1 1226   5.381   9.965   9.174
66443SOL    HW2 1227   5.513   9.960   9.248
66444SOL     OW 1228  14.715   3.287   5.227
66444SOL    HW1 1229  14.778   3.323   5.288
66444SOL    HW2 1230  14.675   3.213   5.274
66445SOL     OW 1231   9.702  10.510   4.442
66445SOL    HW1 1232   9.720  10.434   4.386
66445SOL    HW2 1233   9.701  10.474   4.531
66446SOL     OW 1234   9.405   7.900   6.905
66446SOL    HW1 1235   9.402   7.936   6.993
66446SOL    HW2 1236   9.313   7.896   6.877
66447SOL     OW 1237   3.535  10.055   2.036
66447SOL    HW1 1238   3.474  10.122   2.005
66447SOL    HW2 1239   3.504  10.033   2.124
66448SOL     OW 1240   0.406   9.323  13.107
66448SOL    HW1 1241   0.414   9.417  13.122
66448SOL    HW2 1242   0.496   9.291  13.103
66449SOL     OW 1243  11.141  10.933   4.929
66449SOL    HW1 1244  11.072  10.998   4.946
66449SOL    HW2 1245  11.200  10.977   4.869
66450SOL     OW 1246   7.650   9.605  14.180
66450SOL    HW1 1247   7.686   9.634  14.263
66450SOL    HW2 1248   7.557   9.626  14.185
66451SOL     OW 1249   7.906  10.506  11.419
66451SOL    HW1 1250   7.817  10.535  11.397
66451SOL    HW2 1251   7.907  10.413  11.397
66452SOL     OW 1252   0.181  10.416   9.705
66452SOL    HW1 1253   0.095  10.374   9.708
66452SOL    HW2 1254   0.162  10.510   9.708
66453SOL     OW 1255  14.315   8.536   9.916
66453SOL    HW1 1256  14.286   8.625   9.897
66453SOL    HW2 1257  14.236   8.491   9.947
66454SOL     OW 1258   8.493   5.138  11.167
66454SOL    HW1 1259   8.512   5.139  11.261
66454SOL    HW2 1260   8.561   5.193  11.129
66455SOL     OW 1261   7.294   2.557   2.138
66455SOL    HW1 1262   7.254   2.492   2.081
66455SOL    HW2 1263   7.356   2.603   2.081
66456SOL     OW 1264   5.577  14.382   8.447
66456SOL    HW1 1265   5.575  14.477   8.457
66456SOL    HW2 1266   5.594  14.349   8.536
66457SOL     OW 1267   6.454   9.966  12.985
66457SOL    HW1 1268   6.460  10.023  12.908
66457SOL    HW2 1269   6.362   9.944  12.992
66458SOL     OW 1270  11.814   7.768  11.538
66458SOL    HW1 1271  11.904   7.766  11.570
66458SOL    HW2 1272  11.809   7.695  11.476
66459SOL     OW 1273  13.284   9.030   5.885
66459SOL    HW1 1274  13.371   9.048   5.920
66459SOL    HW2 1275  13.279   8.935   5.882
66460SOL     OW 1276   1.126   4.066  10.154
66460SOL    HW1 1277   1.157   4.139  10.101
66460SOL    HW2 1278   1.171   3.990  10.117
66461SOL     OW 1279   3.075   3.690   9.311
66461SOL    HW1 1280   3.040   3.763   9.363
66461SOL    HW2 1281   3.167   3.712   9.299
66462SOL     OW 1282   9.960   3.559   9.123
66462SOL    HW1 1283  10.009   3.629   9.080
66462SOL    HW2 1284   9.868   3.577   9.103
66463SOL     OW 1285   4.005  11.607   6.760
66463SOL    HW1 1286   3.926  11.659   6.779
66463SOL    HW2 1287   3.972  11.528   6.718
66464SOL     OW 1288   9.773   7.765  10.867
66464SOL    HW1 1289   9.782   7.852  10.905
66464SOL    HW2 1290   9.699   7.726  10.914
66465SOL     OW 1291   1.525  13.123  14.870
66465SOL    HW1 1292   1.464  13.142   0.053
66465SOL    HW2 1293   1.471  13.085  14.801
66466SOL     OW 1294   8.615   4.303  10.296
66466SOL    HW1 1295   8.665   4.275  10.373
66466SOL    HW2 1296   8.631   4.397  10.290
66467SOL     OW 1297   3.800   7.427   6.300
66467SOL    HW1 1298   3.858   7.484   6.352
66467SOL    HW2 1299   3.804   7.343   6.346
66468SOL     OW 1300   2.753   9.408   1.421
66468SOL    HW1 1301   2.820   9.406   1.489
66468SOL    HW2 1302   2.803   9.418   1.339
66469SOL     OW 1303   4.110  11.318   0.312
66469SOL    HW1 1304   4.121  11.340   0.405
66469SOL    HW2 1305   4.020  11.344   0.292
66470SOL     OW 1306   3.306  12.436   3.089
66470SOL    HW1 1307   3.230  12.453   3.143
66470SOL    HW2 1308   3.373  12.405   3.150
66471SOL     OW 1309   6.301   0.773   1.866
66471SOL    HW1 1310   6.234   0.732   1.811
66471SOL    HW2 1311   6.253   0.836   1.920
66472SOL     OW 1312  10.818  13.470   1.147
66472SOL    HW1 1313  10.747  13.496   1.205
66472SOL    HW2 1314  10.838  13.380   1.172
66473SOL     OW 1315   6.473   2.362   9.793
66473SOL    HW1 1316   6.563   2.332   9.779
66473SOL    HW2 1317   6.453   2.335   9.883
66474SOL     OW 1318   4.150   5.341   1.699
66474SOL    HW1 1319   4.098   5.418   1.677
66474SOL    HW2 1320   4.086   5.272   1.715
66475SOL     OW 1321   7.116  13.965   3.018
66475SOL    HW1 1322   7.188  13.908   3.042
66475SOL    HW2 1323   7.149  14.053   3.033
66476SOL     OW 1324   6.512  11.108   5.937
66476SOL    HW1 1325   6.418  11.094   5.950
66476SOL    HW2 1326   6.549  11.108   6.025
66477SOL     OW 1327  12.834  13.882   6.364
66477SOL    HW1 1328  12.891  13.810   6.335
66477SOL    HW2 1329  12.876  13.961   6.330
66478SOL     OW 1330  11.312   2.745   0.201
66478SOL    HW1 1331  11.356   2.789   0.274
66478SOL    HW2 1332  11.381   2.729   0.137
66479SOL     OW 1333   9.475   0.049   9.835
66479SOL    HW1 1334   9.543   0.116   9.840
66479SOL    HW2 1335   9.414   0.072   9.905
66480SOL     OW 1336  13.549   4.346  12.381
66480SOL    HW1 1337  13.557   4.260  12.340
66480SOL    HW2 1338  13.454   4.357  12.393
66481SOL     OW 1339   5.977   0.873   6.822
66481SOL    HW1 1340   6.063   0.832   6.816
66481SOL    HW2 1341   5.971   0.927   6.743
66482SOL     OW 1342   1.639   8.229   5.765
66482SOL    HW1 1343   1.611   8.169   5.695
66482SOL    HW2 1344   1.666   8.171   5.836
66483SOL     OW 1345  14.129   5.347   3.497
66483SOL    HW1 1346  14.137   5.267   3.446
66483SOL    HW2 1347  14.035   5.366   3.497
66484SOL     OW 1348  14.211   6.764   5.444
66484SOL    HW1 1349  14.142   6.827   5.467
66484SOL    HW2 1350  14.219   6.709   5.522
66485SOL     OW 1351   6.921   5.425   8.724
66485SOL    HW1 1352   6.920   5.403   8.817
66485SOL    HW2 1353   6.917   5.341   8.678
66486SOL     OW 1354  14.283   0.714   3.466
66486SOL    HW1 1355  14.335   0.635   3.463
66486SOL    HW2 1356  14.221   0.704   3.394
66487SOL     OW 1357  11.613   6.733   0.607
66487SOL    HW1 1358  11.678   6.679   0.562
66487SOL    HW2 1359  11.590   6.683   0.685
66488SOL     OW 1360   8.136   0.047   8.481
66488SOL    HW1 1361   8.195   0.106   8.529
66488SOL    HW2 1362   8.192  14.862   8.454
66489SOL     OW 1363  14.848   3.226   9.937
66489SOL    HW1 1364  14.802   3.145   9.915
66489SOL    HW2 1365  14.796   3.265  10.007
66490SOL     OW 1366  13.550   5.616   2.017
66490SOL    HW1 1367  13.542   5.690   2.078
66490SOL    HW2 1368  13.497   5.642   1.942
66491SOL     OW 1369   0.939   7.217  10.204
66491SOL    HW1 1370   0.877   7.277  10.163
66491SOL    HW2 1371   0.892   7.181  10.279
66492SOL     OW 1372   0.268  11.049  14.796
66492SOL    HW1 1373   0.289  11.126  14.848
66492SOL    HW2 1374   0.312  11.063  14.712
66493SOL     OW 1375  12.213   2.684   3.706
66493SOL    HW1 1376  12.118   2.681   3.693
66493SOL    HW2 1377  12.224   2.700   3.799
66494SOL     OW 1378  14.769   5.464  13.975
66494SOL    HW1 1379  14.700   5.487  14.038
66494SOL    HW2 1380  14.800   5.549  13.942
66495SOL     OW 1381  14.522  14.128   9.120
66495SOL    HW1 1382  14.518  14.103   9.212
66495SOL    HW2 1383  14.513  14.046   9.072
66496SOL     OW 1384   0.331   0.280   8.754
66496SOL    HW1 1385   0.257   0.336   8.778
66496SOL    HW2 1386   0.370   0.253   8.837
66497SOL     OW 1387   6.491   4.565   7.162
66497SOL    HW1 1388   6.525   4.616   7.088
66497SOL    HW2 1389   6.556   4.577   7.231
66498SOL     OW 1390   8.414   0.583   9.842
66498SOL    HW1 1391   8.337   0.632   9.871
66498SOL    HW2 1392   8.398   0.569   9.748
66499SOL     OW 1393   5.344   3.423   4.996
66499SOL    HW1 1394   5.312   3.344   4.952
66499SOL    HW2 1395   5.439   3.422   4.981
66500SOL     OW 1396   3.811   0.363   8.558
66500SOL    HW1 1397   3.720   0.343   8.578
66500SOL    HW2 1398   3.823   0.453   8.586
66501SOL     OW 1399   0.628   5.547   1.919
66501SOL    HW1 1400   0.689   5.519   1.851
66501SOL    HW2 1401   0.612   5.467   1.970
66502SOL     OW 1402   8.483   6.372   2.151
66502SOL    HW1 1403   8.417   6.402   2.213
66502SOL    HW2 1404   8.466   6.422   2.071
66503SOL     OW 1405  14.667   8.973   7.084
66503SOL    HW1 1406  14.705   8.985   6.997
66503SOL    HW2 1407  14.616   8.892   7.077
66504SOL     OW 1408   0.291  14.278  11.835
66504SOL    HW1 1409   0.345  14.227  11.894
66504SOL    HW2 1410   0.221  14.313  11.890
66505SOL     OW 1411   9.974   6.509   0.643
66505SOL    HW1 1412  10.003   6.510   0.552
66505SOL    HW2 1413   9.973   6.601   0.669
66506SOL     OW 1414   7.083   9.693   7.840
66506SOL    HW1 1415   6.988   9.699   7.839
66506SOL    HW2 1416   7.106   9.664   7.751
66507SOL     OW 1417  10.690   6.623   6.128
66507SOL    HW1 1418  10.657   6.540   6.094
66507SOL    HW2 1419  10.635   6.640   6.205
66508SOL     OW 1420   4.959  12.973   0.013
66508SOL    HW1 1421   4.864  12.960   0.021
66508SOL    HW2 1422   4.977  13.047   0.070
66509SOL     OW 1423   7.119   5.410  10.829
66509SOL    HW1 1424   7.131   5.492  10.878
66509SOL    HW2 1425   7.201   5.399  10.781
66510SOL     OW 1426  12.720   1.739  12.157
66510SOL    HW1 1427  12.668   1.794  12.098
66510SOL    HW2 1428  12.655   1.685  12.203
66511SOL     OW 1429   2.147   1.440   5.618
66511SOL    HW1 1430   2.066   1.486   5.596
66511SOL    HW2 1431   2.173   1.476   5.702
66512SOL     OW 1432   0.960   1.352   5.214
66512SOL    HW1 1433   0.875   1.384   5.185
66512SOL    HW2 1434   0.975   1.273   5.162
66513SOL     OW 1435  14.492   7.734   0.736
66513SOL    HW1 1436  14.404   7.733   0.773
66513SOL    HW2 1437  14.504   7.645   0.703
66514SOL     OW 1438   4.158  13.741   8.534
66514SOL    HW1 1439   4.170  13.811   8.470
66514SOL    HW2 1440   4.214  13.765   8.607
66515SOL     OW 1441  14.405  14.715   9.859
66515SOL    HW1 1442  14.404  14.802   9.899
66515SOL    HW2 1443  14.429  14.656   9.931
66516SOL     OW 1444   3.579   9.406   5.767
66516SOL    HW1 1445   3.591   9.353   5.845
66516SOL    HW2 1446   3.521   9.477   5.795
66517SOL     OW 1447  13.575   9.332   0.841
66517SOL    HW1 1448  13.582   9.238   0.859
66517SOL    HW2 1449  13.564   9.372   0.927
66518SOL     OW 1450   6.791   8.908   4.365
66518SOL    HW1 1451   6.868   8.881   4.316
66518SOL    HW2 1452   6.806   9.001   4.385
66519SOL     OW 1453   8.362   5.944   9.817
66519SOL    HW1 1454   8.365   5.987   9.731
66519SOL    HW2 1455   8.426   5.992   9.869
66520SOL     OW 1456   2.696   7.837   1.629
66520SOL    HW1 1457   2.619   7.893   1.641
66520SOL    HW2 1458   2.766   7.882   1.675
66521SOL     OW 1459  14.427   2.677   6.604
66521SOL    HW1 1460  14.351   2.731   6.624
66521SOL    HW2 1461  14.465   2.718   6.526
66522SOL     OW 1462   4.146   8.455   5.791
66522SOL    HW1 1463   4.175   8.367   5.768
66522SOL    HW2 1464   4.213   8.513   5.756
66523SOL     OW 1465   1.105  11.722   5.802
66523SOL    HW1 1466   1.063  11.802   5.835
66523SOL    HW2 1467   1.127  11.743   5.711
66524SOL     OW 1468   5.666   1.888   3.049
66524SOL    HW1 1469   5.679   1.794   3.037
66524SOL    HW2 1470   5.708   1.908   3.133
66525SOL     OW 1471   3.211  10.794   2.859
66525SOL    HW1 1472   3.128  10.797   2.908
66525SOL    HW2 1473   3.248  10.708   2.882
66526SOL     OW 1474   6.252   6.890   0.692
66526SOL    HW1 1475   6.217   6.802   0.700
66526SOL    HW2 1476   6.176   6.944   0.670
66527SOL     OW 1477   3.873   9.341   1.867
66527SOL    HW1 1478   3.925   9.357   1.789
66527SOL    HW2 1479   3.782   9.346   1.837
66528SOL     OW 1480  14.526  12.133  13.453
66528SOL    HW1 1481  14.506  12.174  13.368
66528SOL    HW2 1482  14.498  12.197  13.518
66529SOL     OW 1483   3.649  10.748   6.436
66529SOL    HW1 1484   3.683  10.814   6.376
66529SOL    HW2 1485   3.563  10.782   6.462
66530SOL     OW 1486   6.391   6.423   6.828
66530SOL    HW1 1487   6.339   6.403   6.906
66530SOL    HW2 1488   6.398   6.518   6.827
66531SOL     OW 1489   0.542   6.301   5.070
66531SOL    HW1 1490   0.513   6.228   5.124
66531SOL    HW2 1491   0.636   6.309   5.087
66532SOL     OW 1492   3.736   3.459  14.075
66532SOL    HW1 1493   3.714   3.547  14.044
66532SOL    HW2 1494   3.817   3.471  14.124
66533SOL     OW 1495   6.441   4.086  12.024
66533SOL    HW1 1496   6.468   3.996  12.002
66533SOL    HW2 1497   6.349   4.079  12.048
66534SOL     OW 1498  11.375   4.626  10.464
66534SOL    HW1 1499  11.392   4.689  10.535
66534SOL    HW2 1500  11.294   4.657  10.424
66535SOL     OW 1501  12.015  12.251   3.239
66535SOL    HW1 1502  12.087  12.279   3.296
66535SOL    HW2 1503  11.960  12.196   3.295
66536SOL     OW 1504   0.519  14.200   0.743
66536SOL    HW1 1505   0.492  14.194   0.834
66536SOL    HW2 1506   0.535  14.294   0.728
66537SOL     OW 1507  13.102  10.766   3.127
66537SOL    HW1 1508  13.060  10.840   3.171
66537SOL    HW2 1509  13.095  10.694   3.189
66538SOL     OW 1510   7.825   5.666   8.682
66538SOL    HW1 1511   7.780   5.638   8.761
66538SOL    HW2 1512   7.903   5.610   8.678
66539SOL     OW 1513   2.488   6.643   7.811
66539SOL    HW1 1514   2.519   6.701   7.881
66539SOL    HW2 1515   2.552   6.655   7.740
66540SOL     OW 1516   6.990  14.768  11.374
66540SOL    HW1 1517   7.073  14.804  11.406
66540SOL    HW2 1518   6.992  14.783  11.279
66541SOL     OW 1519   3.123   2.457   1.885
66541SOL    HW1 1520   3.203   2.428   1.929
66541SOL    HW2 1521   3.083   2.377   1.851
66542SOL     OW 1522   9.093   6.516  11.383
66542SOL    HW1 1523   9.057   6.530  11.296
66542SOL    HW2 1524   9.057   6.587  11.436
66543SOL     OW 1525   5.493   5.866   4.224
66543SOL    HW1 1526   5.449   5.880   4.308
66543SOL    HW2 1527   5.578   5.829   4.248
66544SOL     OW 1528   4.881  13.000   7.707
66544SOL    HW1 1529   4.931  13.060   7.762
66544SOL    HW2 1530   4.799  13.046   7.689
66545SOL     OW 1531  12.222   7.551   9.814
66545SOL    HW1 1532  12.129   7.551   9.790
66545SOL    HW2 1533  12.222   7.551   9.909
66546SOL     OW 1534   5.863   1.875   4.439
66546SOL    HW1 1535   5.897   1.959   4.471
66546SOL    HW2 1536   5.812   1.899   4.361
66547SOL     OW 1537   2.140   4.982   6.300
66547SOL    HW1 1538   2.119   4.891   6.278
66547SOL    HW2 1539   2.213   5.004   6.242
66548SOL     OW 1540   6.581   5.066   3.903
66548SOL    HW1 1541   6.499   5.115   3.892
66548SOL    HW2 1542   6.640   5.103   3.838
66549SOL     OW 1543   9.983   5.693  12.319
66549SOL    HW1 1544  10.009   5.755  12.387
66549SOL    HW2 1545   9.998   5.607  12.358
66550SOL     OW 1546  12.336   2.489   6.448
66550SOL    HW1 1547  12.300   2.403   6.471
66550SOL    HW2 1548  12.269   2.551   6.477
66551SOL     OW 1549  10.498  12.189   8.432
66551SOL    HW1 1550  10.477  12.149   8.348
66551SOL    HW2 1551  10.579  12.238   8.416
66552SOL     OW 1552   7.815   9.657   2.533
66552SOL    HW1 1553   7.857   9.572   2.545
66552SOL    HW2 1554   7.727   9.636   2.502
66553SOL     OW 1555   3.137  13.411   7.475
66553SOL    HW1 1556   3.199  13.338   7.477
66553SOL    HW2 1557   3.192  13.489   7.472
66554SOL     OW 1558  14.041  12.581  12.755
66554SOL    HW1 1559  14.042  12.655  12.694
66554SOL    HW2 1560  14.133  12.557  12.765
66555SOL     OW 1561  14.273   2.905  14.472
66555SOL    HW1 1562  14.261   2.886  14.565
66555SOL    HW2 1563  14.197   2.866  14.430
66556SOL     OW 1564   9.184   3.239   2.998
66556SOL    HW1 1565   9.257   3.232   3.060
66556SOL    HW2 1566   9.106   3.226   3.052
66557SOL     OW 1567   1.186   4.312   4.479
66557SOL    HW1 1568   1.097   4.285   4.458
66557SOL    HW2 1569   1.239   4.233   4.466
66558SOL     OW 1570   5.813   7.808   1.028
66558SOL    HW1 1571   5.846   7.867   1.096
66558SOL    HW2 1572   5.730   7.846   1.000
66559SOL     OW 1573   1.751  14.580   5.789
66559SOL    HW1 1574   1.710  14.667   5.787
66559SOL    HW2 1575   1.824  14.589   5.851
66560SOL     OW 1576   9.072   5.675   4.446
66560SOL    HW1 1577   9.090   5.685   4.353
66560SOL    HW2 1578   9.143   5.723   4.489
66561SOL     OW 1579  11.504   2.560   1.739
66561SOL    HW1 1580  11.534   2.641   1.780
66561SOL    HW2 1581  11.558   2.492   1.780
66562SOL     OW 1582   0.019   5.665  13.555
66562SOL    HW1 1583  14.871   5.746  13.519
66562SOL    HW2 1584   0.099   5.649  13.504
66563SOL     OW 1585   6.500   2.268  13.885
66563SOL    HW1 1586   6.448   2.297  13.960
66563SOL    HW2 1587   6.587   2.252  13.921
66564SOL     OW 1588  11.067   0.288   0.101
66564SOL    HW1 1589  11.041   0.259   0.014
66564SOL    HW2 1590  11.044   0.216   0.159
66565SOL     OW 1591   7.191  10.467   9.650
66565SOL    HW1 1592   7.199  10.423   9.734
66565SOL    HW2 1593   7.146  10.404   9.594
66566SOL     OW 1594   7.173   5.089   9.575
66566SOL    HW1 1595   7.145   5.131   9.656
66566SOL    HW2 1596   7.251   5.138   9.548
66567SOL     OW 1597   2.400   8.791   7.850
66567SOL    HW1 1598   2.337   8.728   7.815
66567SOL    HW2 1599   2.406   8.859   7.783
66568SOL     OW 1600   1.350   1.464   5.051
66568SOL    HW1 1601   1.386   1.463   4.963
66568SOL    HW2 1602   1.416   1.418   5.104
66569SOL     OW 1603   5.330   5.749   0.479
66569SOL    HW1 1604   5.363   5.836   0.459
66569SOL    HW2 1605   5.304   5.713   0.394
66570SOL     OW 1606   2.311   8.619   4.921
66570SOL    HW1 1607   2.379   8.623   4.988
66570SOL    HW2 1608   2.316   8.529   4.888
66571SOL     OW 1609  10.263   2.325   0.351
66571SOL    HW1 1610  10.336   2.375   0.388
66571SOL    HW2 1611  10.225   2.384   0.285
66572SOL     OW 1612  11.863  11.817   1.533
66572SOL    HW1 1613  11.826  11.827   1.445
66572SOL    HW2 1614  11.953  11.788   1.518
66573SOL     OW 1615   2.681   0.953  12.080
66573SOL    HW1 1616   2.708   0.982  12.167
66573SOL    HW2 1617   2.730   1.009  12.020
66574SOL     OW 1618   2.358   9.538  12.392
66574SOL    HW1 1619   2.359   9.633  12.379
66574SOL    HW2 1620   2.270   9.519  12.423
66575SOL     OW 1621   1.866   8.084   6.372
66575SOL    HW1 1622   1.793   8.053   6.427
66575SOL    HW2 1623   1.843   8.053   6.284
66576SOL     OW 1624   5.781   8.914   0.797
66576SOL    HW1 1625   5.725   8.861   0.741
66576SOL    HW2 1626   5.866   8.870   0.796
66577SOL     OW 1627   2.110   2.890   8.435
66577SOL    HW1 1628   2.119   2.924   8.525
66577SOL    HW2 1629   2.105   2.969   8.381
66578SOL     OW 1630   2.269  10.309   1.434
66578SOL    HW1 1631   2.177  10.287   1.449
66578SOL    HW2 1632   2.301  10.239   1.377
66579SOL     OW 1633  14.234   4.091   9.084
66579SOL    HW1 1634  14.330   4.095   9.090
66579SOL    HW2 1635  14.215   4.108   8.992
66580SOL     OW 1636  11.601  10.047   3.057
66580SOL    HW1 1637  11.576  10.018   2.969
66580SOL    HW2 1638  11.595  10.142   3.054
66581SOL     OW 1639  11.674   9.186  12.881
66581SOL    HW1 1640  11.590   9.179  12.836
66581SOL    HW2 1641  11.676   9.275  12.916
66582SOL     OW 1642   0.579   5.212   4.927
66582SOL    HW1 1643   0.526   5.139   4.959
66582SOL    HW2 1644   0.523   5.289   4.937
66583SOL     OW 1645   2.840   4.137   8.771
66583SOL    HW1 1646   2.929   4.144   8.738
66583SOL    HW2 1647   2.818   4.044   8.761
66584SOL     OW 1648   6.447  13.329  14.081
66584SOL    HW1 1649   6.539  13.336  14.053
66584SOL    HW2 1650   6.403  13.402  14.037
66585SOL     OW 1651  12.000   3.207   8.569
66585SOL    HW1 1652  12.039   3.262   8.637
66585SOL    HW2 1653  12.071   3.149   8.541
66586SOL     OW 1654   1.028  12.939   0.872
66586SOL    HW1 1655   0.975  12.872   0.830
66586SOL    HW2 1656   1.118  12.910   0.859
66587SOL     OW 1657   0.996   7.695  14.786
66587SOL    HW1 1658   0.976   7.740  14.704
66587SOL    HW2 1659   1.092   7.687  14.787
66588SOL     OW 1660   2.493  12.774  13.332
66588SOL    HW1 1661   2.588  12.764  13.327
66588SOL    HW2 1662   2.462  12.755  13.243
66589SOL     OW 1663   2.921   0.451   4.639
66589SOL    HW1 1664   2.877   0.491   4.563
66589SOL    HW2 1665   2.884   0.496   4.714
66590SOL     OW 1666   5.945   3.323  11.816
66590SOL    HW1 1667   5.858   3.358  11.799
66590SOL    HW2 1668   5.934   3.266  11.892
66591SOL     OW 1669   5.715  10.759   0.094
66591SOL    HW1 1670   5.635  10.728   0.136
66591SOL    HW2 1671   5.694  10.848   0.065
66592SOL     OW 1672   5.461   7.863   5.249
66592SOL    HW1 1673   5.410   7.943   5.238
66592SOL    HW2 1674   5.400   7.792   5.230
66593SOL     OW 1675   7.045  13.280   7.970
66593SOL    HW1 1676   7.022  13.351   7.911
66593SOL    HW2 1677   7.036  13.201   7.917
66594SOL     OW 1678   4.102   2.190   9.376
66594SOL    HW1 1679   4.088   2.106   9.332
66594SOL    HW2 1680   4.120   2.166   9.467
66595SOL     OW 1681   3.373   3.114  11.219
66595SOL    HW1 1682   3.337   3.194  11.181
66595SOL    HW2 1683   3.455   3.142  11.261
66596SOL     OW 1684  13.499   2.123   6.241
66596SOL    HW1 1685  13.564   2.143   6.309
66596SOL    HW2 1686  13.432   2.190   6.251
66597SOL     OW 1687   5.604   2.858   5.224
66597SOL    HW1 1688   5.523   2.876   5.272
66597SOL    HW2 1689   5.585   2.778   5.175
66598SOL     OW 1690   0.198   6.690   7.708
66598SOL    HW1 1691   0.132   6.640   7.756
66598SOL    HW2 1692   0.154   6.771   7.684
66599SOL     OW 1693   1.405   3.905   1.018
66599SOL    HW1 1694   1.459   3.985   1.016
66599SOL    HW2 1695   1.358   3.907   0.934
66600SOL     OW 1696   3.294   9.839   7.521
66600SOL    HW1 1697   3.380   9.860   7.557
66600SOL    HW2 1698   3.232   9.869   7.587
66601SOL     OW 1699   0.465   8.025  12.129
66601SOL    HW1 1700   0.554   7.994  12.147
66601SOL    HW2 1701   0.425   7.956  12.076
66602SOL     OW 1702   0.282  10.303  14.023
66602SOL    HW1 1703   0.302  10.339  13.936
66602SOL    HW2 1704   0.195  10.337  14.043
66603SOL     OW 1705  14.029  13.001   0.244
66603SOL    HW1 1706  14.027  12.906   0.248
66603SOL    HW2 1707  14.067  13.021   0.159
66604SOL     OW 1708   6.483  13.587   0.078
66604SOL    HW1 1709   6.575  13.572   0.057
66604SOL    HW2 1710   6.482  13.598   0.173
66605SOL     OW 1711   9.345  13.333  13.712
66605SOL    HW1 1712   9.269  13.288  13.746
66605SOL    HW2 1713   9.315  13.374  13.631
66606SOL     OW 1714  11.435   4.803   1.329
66606SOL    HW1 1715  11.361   4.852   1.295
66606SOL    HW2 1716  11.504   4.814   1.263
66607SOL     OW 1717  10.699  13.745   6.390
66607SOL    HW1 1718  10.699  13.749   6.485
66607SOL    HW2 1719  10.789  13.725   6.366
66608SOL     OW 1720  10.849  14.387   6.979
66608SOL    HW1 1721  10.828  14.304   6.935
66608SOL    HW2 1722  10.916  14.363   7.042
66609SOL     OW 1723   3.388   7.146   4.073
66609SOL    HW1 1724   3.465   7.181   4.119
66609SOL    HW2 1725   3.423   7.075   4.019
66610SOL     OW 1726  10.378   7.555   1.617
66610SOL    HW1 1727  10.461   7.548   1.663
66610SOL    HW2 1728  10.331   7.475   1.641
66611SOL     OW 1729  12.309   9.339   7.364
66611SOL    HW1 1730  12.275   9.317   7.451
66611SOL    HW2 1731  12.381   9.277   7.350
66612SOL     OW 1732  10.167   1.126   7.037
66612SOL    HW1 1733  10.205   1.205   7.075
66612SOL    HW2 1734  10.078   1.151   7.014
66613SOL     OW 1735  11.633  12.360   6.511
66613SOL    HW1 1736  11.589  12.275   6.522
66613SOL    HW2 1737  11.693  12.346   6.438
66614SOL     OW 1738  10.480   8.569   8.854
66614SOL    HW1 1739  10.547   8.572   8.786
66614SOL    HW2 1740  10.528   8.581   8.936
66615SOL     OW 1741   1.154  14.102   9.115
66615SOL    HW1 1742   1.235  14.152   9.121
66615SOL    HW2 1743   1.147  14.056   9.199
66616SOL     OW 1744  10.584   0.563   4.457
66616SOL    HW1 1745  10.607   0.656   4.449
66616SOL    HW2 1746  10.519   0.560   4.527
66617SOL     OW 1747   2.736  10.241   5.946
66617SOL    HW1 1748   2.650  10.252   5.906
66617SOL    HW2 1749   2.795  10.225   5.872
66618SOL     OW 1750   4.456   0.410  10.284
66618SOL    HW1 1751   4.517   0.481  10.263
66618SOL    HW2 1752   4.507   0.351  10.340
66619SOL     OW 1753   9.537  11.048   5.659
66619SOL    HW1 1754   9.559  11.088   5.575
66619SOL    HW2 1755   9.479  11.112   5.702
66620SOL     OW 1756   5.231   5.395   2.663
66620SOL    HW1 1757   5.289   5.340   2.610
66620SOL    HW2 1758   5.176   5.333   2.711
66621SOL     OW 1759   2.372   7.700   3.580
66621SOL    HW1 1760   2.380   7.680   3.487
66621SOL    HW2 1761   2.441   7.764   3.597
66622SOL     OW 1762  13.360  12.204   6.162
66622SOL    HW1 1763  13.295  12.274   6.163
66622SOL    HW2 1764  13.316  12.130   6.120
66623SOL     OW 1765  10.721   5.853  10.879
66623SOL    HW1 1766  10.814   5.872  10.889
66623SOL    HW2 1767  10.695   5.814  10.963
66624SOL     OW 1768  10.746   2.905  11.942
66624SOL    HW1 1769  10.676   2.971  11.941
66624SOL    HW2 1770  10.803   2.930  11.869
66625SOL     OW 1771  10.644   0.572   1.834
66625SOL    HW1 1772  10.737   0.554   1.840
66625SOL    HW2 1773  10.605   0.526   1.908
66626SOL     OW 1774  11.011   4.770  10.896
66626SOL    HW1 1775  11.042   4.719  10.971
66626SOL    HW2 1776  11.018   4.862  10.925
66627SOL     OW 1777  12.781  11.617   9.758
66627SOL    HW1 1778  12.810  11.538   9.805
66627SOL    HW2 1779  12.807  11.689   9.815
66628SOL     OW 1780   7.246   7.128   2.963
66628SOL    HW1 1781   7.264   7.215   2.927
66628SOL    HW2 1782   7.261   7.068   2.890
66629SOL     OW 1783   6.647  12.937  10.814
66629SOL    HW1 1784   6.743  12.933  10.821
66629SOL    HW2 1785   6.628  12.903  10.727
66630SOL     OW 1786   0.960   2.733   5.460
66630SOL    HW1 1787   0.979   2.827   5.460
66630SOL    HW2 1788   1.036   2.693   5.417
66631SOL     OW 1789   2.416   1.248   0.788
66631SOL    HW1 1790   2.489   1.289   0.741
66631SOL    HW2 1791   2.395   1.310   0.858
66632SOL     OW 1792   6.872  11.406  11.258
66632SOL    HW1 1793   6.915  11.385  11.175
66632SOL    HW2 1794   6.782  11.428  11.234
66633SOL     OW 1795   1.145   9.357  12.779
66633SOL    HW1 1796   1.208   9.377  12.710
66633SOL    HW2 1797   1.198   9.322  12.851
66634SOL     OW 1798   9.385  14.774  13.751
66634SOL    HW1 1799   9.320  14.839  13.776
66634SOL    HW2 1800   9.372  14.762  13.657
66635SOL     OW 1801   5.734  10.305  10.536
66635SOL    HW1 1802   5.665  10.250  10.498
66635SOL    HW2 1803   5.746  10.270  10.625
66636SOL     OW 1804   3.445   1.185   0.116
66636SOL    HW1 1805   3.369   1.239   0.091
66636SOL    HW2 1806   3.429   1.163   0.208
66637SOL     OW 1807   4.288   3.627  13.670
66637SOL    HW1 1808   4.284   3.568  13.745
66637SOL    HW2 1809   4.281   3.569  13.594
66638SOL     OW 1810   9.688   3.989   5.467
66638SOL    HW1 1811   9.762   4.017   5.413
66638SOL    HW2 1812   9.695   4.042   5.546
66639SOL     OW 1813  13.038   2.816  11.163
66639SOL    HW1 1814  13.114   2.761  11.183
66639SOL    HW2 1815  12.978   2.757  11.116
66640SOL     OW 1816  10.084   3.788   0.026
66640SOL    HW1 1817  10.152   3.721   0.030
66640SOL    HW2 1818  10.042   3.784   0.113
66641SOL     OW 1819   6.379   9.372   7.968
66641SOL    HW1 1820   6.324   9.324   8.030
66641SOL    HW2 1821   6.344   9.461   7.968
66642SOL     OW 1822  11.846   3.429   4.569
66642SOL    HW1 1823  11.841   3.340   4.602
66642SOL    HW2 1824  11.934   3.459   4.593
66643SOL     OW 1825   3.437   1.750  12.555
66643SOL    HW1 1826   3.437   1.660  12.520
66643SOL    HW2 1827   3.458   1.805  12.479
66644SOL     OW 1828   4.824   3.281   5.721
66644SOL    HW1 1829   4.795   3.233   5.799
66644SOL    HW2 1830   4.760   3.353   5.712
66645SOL     OW 1831   8.663  10.071   2.609
66645SOL    HW1 1832   8.571  10.043   2.604
66645SOL    HW2 1833   8.659  10.166   2.594
66646SOL     OW 1834  12.065  12.513  12.196
66646SOL    HW1 1835  12.034  12.570  12.266
66646SOL    HW2 1836  12.148  12.479  12.227
66647SOL     OW 1837   5.521   5.840   0.957
66647SOL    HW1 1838   5.603   5.889   0.962
66647SOL    HW2 1839   5.457   5.904   0.924
66648SOL     OW 1840   3.384   3.596   8.418
66648SOL    HW1 1841   3.334   3.536   8.473
66648SOL    HW2 1842   3.463   3.614   8.468
66649SOL     OW 1843   3.687   3.615  13.410
66649SOL    HW1 1844   3.766   3.591  13.459
66649SOL    HW2 1845   3.616   3.569  13.455
66650SOL     OW 1846   2.203   7.322   9.908
66650SOL    HW1 1847   2.185   7.270   9.987
66650SOL    HW2 1848   2.266   7.270   9.859
66651SOL     OW 1849  13.898   8.827   3.588
66651SOL    HW1 1850  13.903   8.825   3.493
66651SOL    HW2 1851  13.986   8.805   3.617
66652SOL     OW 1852   8.205   7.356   7.490
66652SOL    HW1 1853   8.199   7.437   7.541
66652SOL    HW2 1854   8.155   7.374   7.410
66653SOL     OW 1855   2.382  10.037   4.395
66653SOL    HW1 1856   2.352   9.949   4.371
66653SOL    HW2 1857   2.478  10.031   4.392
66654SOL     OW 1858   8.041  12.562   7.158
66654SOL    HW1 1859   8.121  12.515   7.135
66654SOL    HW2 1860   7.985  12.496   7.199
66655SOL     OW 1861  11.630   8.795   0.663
66655SOL    HW1 1862  11.636   8.800   0.568
66655SOL    HW2 1863  11.687   8.722   0.687
66656SOL     OW 1864   7.604   5.417  13.494
66656SOL    HW1 1865   7.587   5.377  13.580
66656SOL    HW2 1866   7.547   5.494  13.492
66657SOL     OW 1867   2.082   4.745   5.114
66657SOL    HW1 1868   2.173   4.776   5.112
66657SOL    HW2 1869   2.030   4.824   5.124
66658SOL     OW 1870   8.872   5.321   5.284
66658SOL    HW1 1871   8.823   5.291   5.208
66658SOL    HW2 1872   8.948   5.367   5.247
66659SOL     OW 1873   9.837   9.816   8.418
66659SOL    HW1 1874   9.907   9.751   8.415
66659SOL    HW2 1875   9.757   9.763   8.422
66660SOL     OW 1876  13.791  13.998   9.317
66660SOL    HW1 1877  13.772  13.907   9.294
66660SOL    HW2 1878  13.714  14.028   9.366
66661SOL     OW 1879   0.601  13.294  13.488
66661SOL    HW1 1880   0.532  13.355  13.463
66661SOL    HW2 1881   0.630  13.255  13.404
66662SOL     OW 1882   9.596  12.729   3.384
66662SOL    HW1 1883   9.572  12.639   3.408
66662SOL    HW2 1884   9.691  12.731   3.391
66663SOL     OW 1885   1.599   1.005   8.774
66663SOL    HW1 1886   1.597   0.925   8.722
66663SOL    HW2 1887   1.542   0.986   8.849
66664SOL     OW 1888   6.326   1.866   9.425
66664SOL    HW1 1889   6.355   1.937   9.368
66664SOL    HW2 1890   6.356   1.892   9.512
66665SOL     OW 1891   5.060   0.003  14.835
66665SOL    HW1 1892   5.027   0.030   0.033
66665SOL    HW2 1893   5.013   0.058  14.772
66666SOL     OW 1894  12.382   7.810   0.657
66666SOL    HW1 1895  12.396   7.804   0.751
66666SOL    HW2 1896  12.447   7.873   0.627
66667SOL     OW 1897  14.806  10.218   3.568
66667SOL    HW1 1898  14.713  10.227   3.588
66667SOL    HW2 1899  14.807  10.183   3.478
66668SOL     OW 1900   3.967  12.056  10.656
66668SOL    HW1 1901   4.054  12.052  10.695
66668SOL    HW2 1902   3.982  12.056  10.562
66669SOL     OW 1903   2.948   1.755  12.708
66669SOL    HW1 1904   2.972   1.673  12.751
66669SOL    HW2 1905   2.854   1.763  12.721
66670SOL     OW 1906  13.288   8.610  13.869
66670SOL    HW1 1907  13.268   8.517  13.856
66670SOL    HW2 1908  13.323   8.615  13.957
66671SOL     OW 1909  12.794   8.505   2.083
66671SOL    HW1 1910  12.807   8.537   1.994
66671SOL    HW2 1911  12.856   8.432   2.091
66672SOL     OW 1912   7.484   6.020  13.277
66672SOL    HW1 1913   7.446   6.046  13.193
66672SOL    HW2 1914   7.505   5.927  13.266
66673SOL     OW 1915   6.995   3.318   7.689
66673SOL    HW1 1916   7.000   3.339   7.782
66673SOL    HW2 1917   6.906   3.344   7.663
66674SOL     OW 1918   4.309  10.427   6.854
66674SOL    HW1 1919   4.247  10.459   6.789
66674SOL    HW2 1920   4.257  10.372   6.912
66675SOL     OW 1921   1.040   8.725   9.494
66675SOL    HW1 1922   0.954   8.685   9.486
66675SOL    HW2 1923   1.026   8.804   9.547
66676SOL     OW 1924   4.473   8.106   3.910
66676SOL    HW1 1925   4.555   8.060   3.891
66676SOL    HW2 1926   4.497   8.198   3.908
66677SOL     OW 1927   4.994  12.199   1.476
66677SOL    HW1 1928   4.916  12.181   1.424
66677SOL    HW2 1929   4.960  12.239   1.556
66678SOL     OW 1930   8.444  12.420  14.586
66678SOL    HW1 1931   8.401  12.361  14.524
66678SOL    HW2 1932   8.377  12.484  14.608
66679SOL     OW 1933  12.071   1.179  11.731
66679SOL    HW1 1934  12.155   1.208  11.769
66679SOL    HW2 1935  12.093   1.152  11.642
66680SOL     OW 1936   7.963  14.584   3.390
66680SOL    HW1 1937   8.018  14.514   3.427
66680SOL    HW2 1938   8.021  14.630   3.329
66681SOL     OW 1939   7.547   0.538   3.575
66681SOL    HW1 1940   7.627   0.494   3.548
66681SOL    HW2 1941   7.479   0.470   3.568
66682SOL     OW 1942   2.076   7.375   4.689
66682SOL    HW1 1943   2.126   7.346   4.613
66682SOL    HW2 1944   2.089   7.470   4.691
66683SOL     OW 1945  12.739   0.923   8.063
66683SOL    HW1 1946  12.783   0.994   8.111
66683SOL    HW2 1947  12.721   0.857   8.129
66684SOL     OW 1948   5.513   5.231   5.959
66684SOL    HW1 1949   5.509   5.173   6.035
66684SOL    HW2 1950   5.424   5.230   5.924
66685SOL     OW 1951   7.094   3.868   4.337
66685SOL    HW1 1952   7.156   3.890   4.407
66685SOL    HW2 1953   7.083   3.950   4.290
66686SOL     OW 1954   1.401  10.805  14.128
66686SOL    HW1 1955   1.457  10.860  14.074
66686SOL    HW2 1956   1.447  10.798  14.211
66687SOL     OW 1957   7.616   8.543   1.569
66687SOL    HW1 1958   7.591   8.604   1.639
66687SOL    HW2 1959   7.664   8.473   1.615
66688SOL     OW 1960  11.800   7.364  13.025
66688SOL    HW1 1961  11.774   7.447  13.066
66688SOL    HW2 1962  11.728   7.342  12.967
66689SOL     OW 1963   1.654   4.977  13.452
66689SOL    HW1 1964   1.691   4.895  13.419
66689SOL    HW2 1965   1.559   4.963  13.451
66690SOL     OW 1966   8.310   2.519   1.729
66690SOL    HW1 1967   8.270   2.606   1.719
66690SOL    HW2 1968   8.240   2.458   1.708
66691SOL     OW 1969   8.415   7.153  11.584
66691SOL    HW1 1970   8.443   7.200  11.663
66691SOL    HW2 1971   8.452   7.204  11.511
66692SOL     OW 1972   4.160  12.167   9.089
66692SOL    HW1 1973   4.170  12.162   9.184
66692SOL    HW2 1974   4.249  12.181   9.056
66693SOL     OW 1975   1.266   2.919   7.836
66693SOL    HW1 1976   1.180   2.958   7.820
66693SOL    HW2 1977   1.327   2.993   7.829
66694SOL     OW 1978  11.447   2.891   5.071
66694SOL    HW1 1979  11.525   2.939   5.098
66694SOL    HW2 1980  11.443   2.817   5.132
66695SOL     OW 1981   5.809  12.150   0.292
66695SOL    HW1 1982   5.714  12.161   0.300
66695SOL    HW2 1983   5.845  12.215   0.352
66696SOL     OW 1984   7.572   9.942  13.801
66696SOL    HW1 1985   7.518   9.864  13.813
66696SOL    HW2 1986   7.510  10.014  13.795
66697SOL     OW 1987  13.500  11.594  13.357
66697SOL    HW1 1988  13.530  11.651  13.427
66697SOL    HW2 1989  13.531  11.507  13.381
66698SOL     OW 1990  13.637   7.483  14.423
66698SOL    HW1 1991  13.632   7.571  14.386
66698SOL    HW2 1992  13.548   7.449  14.418
66699SOL     OW 1993  11.822   0.335   4.247
66699SOL    HW1 1994  11.784   0.399   4.307
66699SOL    HW2 1995  11.889   0.383   4.199
66700SOL     OW 1996   0.413  10.861   5.122
66700SOL    HW1 1997   0.474  10.790   5.142
66700SOL    HW2 1998   0.386  10.894   5.207
66701SOL     OW 1999   6.413   1.601   0.979
66701SOL    HW1 2000   6.452   1.540   1.042
66701SOL    HW2 2001   6.475   1.674   0.974
66702SOL     OW 2002   7.134   4.368  12.547
66702SOL    HW1 2003   7.149   4.274  12.561
66702SOL    HW2 2004   7.041   4.374  12.526
66703SOL     OW 2005   0.335   1.312   1.248
66703SOL    HW1 2006   0.326   1.371   1.174
66703SOL    HW2 2007   0.404   1.251   1.222
66704SOL     OW 2008   1.488  11.547   6.098
66704SOL    HW1 2009   1.399  11.511   6.098
66704SOL    HW2 2010   1.534  11.497   6.031
66705SOL     OW 2011   4.284   8.642   3.655
66705SOL    HW1 2012   4.219   8.572   3.655
66705SOL    HW2 2013   4.368   8.597   3.661
66706SOL     OW 2014   7.554   6.951   1.808
66706SOL    HW1 2015   7.506   6.913   1.881
66706SOL    HW2 2016   7.573   7.041   1.836
66707SOL     OW 2017  12.420   7.946  11.227
66707SOL    HW1 2018  12.382   7.962  11.313
66707SOL    HW2 2019  12.348   7.958  11.166
66708SOL     OW 2020   3.048   8.069   9.308
66708SOL    HW1 2021   2.954   8.083   9.305
66708SOL    HW2 2022   3.070   8.067   9.401
66709SOL     OW 2023   4.747   2.649  11.957
66709SOL    HW1 2024   4.838   2.655  11.987
66709SOL    HW2 2025   4.755   2.635  11.862
66710SOL     OW 2026   8.053   0.091  13.840
66710SOL    HW1 2027   8.119   0.060  13.776
66710SOL    HW2 2028   7.979   0.118  13.786
66711SOL     OW 2029   2.760   9.854  12.627
66711SOL    HW1 2030   2.776   9.867  12.720
66711SOL    HW2 2031   2.723   9.937  12.597
66712SOL     OW 2032  11.019   6.927  11.846
66712SOL    HW1 2033  10.926   6.906  11.838
66712SOL    HW2 2034  11.050   6.936  11.756
66713SOL     OW 2035   1.401   9.331  11.514
66713SOL    HW1 2036   1.332   9.396  11.505
66713SOL    HW2 2037   1.371   9.256  11.463
66714SOL     OW 2038   6.061   4.150   3.341
66714SOL    HW1 2039   6.013   4.164   3.422
66714SOL    HW2 2040   6.032   4.221   3.283
66715SOL     OW 2041  14.443   9.298  13.482
66715SOL    HW1 2042  14.468   9.272  13.394
66715SOL    HW2 2043  14.490   9.380  13.498
66716SOL     OW 2044   5.122   6.096   6.657
66716SOL    HW1 2045   5.052   6.100   6.722
66716SOL    HW2 2046   5.200   6.124   6.703
66717SOL     OW 2047   9.128  13.842   2.492
66717SOL    HW1 2048   9.171  13.764   2.527
66717SOL    HW2 2049   9.174  13.915   2.532
66718SOL     OW 2050  14.741  13.834   7.832
66718SOL    HW1 2051  14.759  13.790   7.748
66718SOL    HW2 2052  14.647  13.850   7.830
66719SOL     OW 2053   1.850  11.540   5.882
66719SOL    HW1 2054   1.920  11.595   5.917
66719SOL    HW2 2055   1.868  11.537   5.788
66720SOL     OW 2056   7.900   6.967   5.479
66720SOL    HW1 2057   7.933   7.050   5.446
66720SOL    HW2 2058   7.811   6.960   5.443
66721SOL     OW 2059   1.000  10.131  11.031
66721SOL    HW1 2060   1.083  10.116  10.984
66721SOL    HW2 2061   0.934  10.090  10.975
66722SOL     OW 2062   2.890  13.677  13.326
66722SOL    HW1 2063   2.795  13.660  13.325
66722SOL    HW2 2064   2.921  13.642  13.243
66723SOL     OW 2065  11.264   1.834   4.281
66723SOL    HW1 2066  11.268   1.748   4.324
66723SOL    HW2 2067  11.351   1.845   4.242
66724SOL     OW 2068  14.361   9.408   9.548
66724SOL    HW1 2069  14.369   9.499   9.577
66724SOL    HW2 2070  14.271   9.384   9.571
66725SOL     OW 2071   4.094  14.783   3.962
66725SOL    HW1 2072   4.177  14.757   4.002
66725SOL    HW2 2073   4.072  14.866   4.003
66726SOL     OW 2074   7.433   1.329   7.076
66726SOL    HW1 2075   7.487   1.353   7.001
66726SOL    HW2 2076   7.372   1.264   7.042
66727SOL     OW 2077   4.673  13.633   9.618
66727SOL    HW1 2078   4.750  13.630   9.563
66727SOL    HW2 2079   4.695  13.695   9.687
66728SOL     OW 2080   0.355   7.968   5.523
66728SOL    HW1 2081   0.360   8.049   5.575
66728SOL    HW2 2082   0.426   7.975   5.460
66729SOL     OW 2083   0.650   6.970   9.896
66729SOL    HW1 2084   0.732   7.007   9.861
66729SOL    HW2 2085   0.678   6.919   9.972
66730SOL     OW 2086   5.130   6.993   7.784
66730SOL    HW1 2087   5.140   6.950   7.869
66730SOL    HW2 2088   5.194   6.949   7.727
66731SOL     OW 2089   7.566  11.586   3.345
66731SOL    HW1 2090   7.578  11.634   3.427
66731SOL    HW2 2091   7.642  11.608   3.293
66732SOL     OW 2092   7.339  10.901  14.751
66732SOL    HW1 2093   7.406  10.889  14.685
66732SOL    HW2 2094   7.355  10.988  14.787
66733SOL     OW 2095   5.005   5.822   4.308
66733SOL    HW1 2096   5.070   5.798   4.242
66733SOL    HW2 2097   4.967   5.904   4.275
66734SOL     OW 2098   1.672  10.771   1.956
66734SOL    HW1 2099   1.602  10.733   1.903
66734SOL    HW2 2100   1.741  10.790   1.893
66735SOL     OW 2101   9.248   2.561  14.179
66735SOL    HW1 2102   9.214   2.552  14.090
66735SOL    HW2 2103   9.171   2.551  14.236
66736SOL     OW 2104  12.274   5.162   4.534
66736SOL    HW1 2105  12.342   5.199   4.478
66736SOL    HW2 2106  12.221   5.108   4.475
66737SOL     OW 2107  11.590  14.534  10.920
66737SOL    HW1 2108  11.600  14.608  10.861
66737SOL    HW2 2109  11.533  14.568  10.990
66738SOL     OW 2110  11.768   2.025  10.927
66738SOL    HW1 2111  11.827   2.026  11.002
66738SOL    HW2 2112  11.703   2.092  10.946
66739SOL     OW 2113   0.664  11.220   0.684
66739SOL    HW1 2114   0.586  11.166   0.697
66739SOL    HW2 2115   0.634  11.292   0.629
66740SOL     OW 2116   6.692   7.487   9.808
66740SOL    HW1 2117   6.598   7.470   9.808
66740SOL    HW2 2118   6.715   7.495   9.715
66741SOL     OW 2119  12.451  13.133   5.429
66741SOL    HW1 2120  12.519  13.186   5.472
66741SOL    HW2 2121  12.498  13.057   5.396
66742SOL     OW 2122   5.417   9.691   5.105
66742SOL    HW1 2123   5.494   9.737   5.140
66742SOL    HW2 2124   5.452   9.617   5.057
66743SOL     OW 2125   1.852  10.814   1.762
66743SOL    HW1 2126   1.902  10.887   1.798
66743SOL    HW2 2127   1.859  10.825   1.667
66744SOL     OW 2128   9.734   3.982   9.010
66744SOL    HW1 2129   9.757   4.074   9.001
66744SOL    HW2 2130   9.684   3.962   8.931
66745SOL     OW 2131  13.284   1.050   0.958
66745SOL    HW1 2132  13.354   1.057   1.023
66745SOL    HW2 2133  13.262   1.140   0.936
66746SOL     OW 2134  10.516   7.713  14.108
66746SOL    HW1 2135  10.539   7.638  14.162
66746SOL    HW2 2136  10.598   7.737  14.064
66747SOL     OW 2137   2.734  13.316   4.349
66747SOL    HW1 2138   2.778  13.255   4.407
66747SOL    HW2 2139   2.796  13.329   4.277
66748SOL     OW 2140   5.606   1.455   8.625
66748SOL    HW1 2141   5.700   1.448   8.641
66748SOL    HW2 2142   5.578   1.365   8.609
66749SOL     OW 2143  10.787   0.047  13.569
66749SOL    HW1 2144  10.699   0.012  13.585
66749SOL    HW2 2145  10.842  14.858  13.555
66750SOL     OW 2146   8.342  14.296  11.782
66750SOL    HW1 2147   8.380  14.217  11.742
66750SOL    HW2 2148   8.395  14.368  11.748
66751SOL     OW 2149  12.688  13.548   4.545
66751SOL    HW1 2150  12.663  13.627   4.594
66751SOL    HW2 2151  12.727  13.582   4.464
66752SOL     OW 2152  13.377   0.081  14.518
66752SOL    HW1 2153  13.318   0.128  14.460
66752SOL    HW2 2154  13.465   0.106  14.489
66753SOL     OW 2155  13.345  12.465  13.830
66753SOL    HW1 2156  13.435  12.496  13.843
66753SOL    HW2 2157  13.350  12.371  13.845
66754SOL     OW 2158   5.735   4.481   2.276
66754SOL    HW1 2159   5.652   4.527   2.289
66754SOL    HW2 2160   5.793   4.546   2.238
66755SOL     OW 2161  11.135  11.654   0.076
66755SOL    HW1 2162  11.183  11.644   0.159
66755SOL    HW2 2163  11.145  11.747   0.054
66756SOL     OW 2164   6.891   4.656   4.874
66756SOL    HW1 2165   6.843   4.667   4.956
66756SOL    HW2 2166   6.932   4.741   4.859
66757SOL     OW 2167   5.111  14.149  12.297
66757SOL    HW1 2168   5.118  14.098  12.216
66757SOL    HW2 2169   5.034  14.204  12.284
66758SOL     OW 2170  10.271   3.364   1.227
66758SOL    HW1 2171  10.250   3.322   1.311
66758SOL    HW2 2172  10.200   3.336   1.169
66759SOL     OW 2173  14.226   6.937   5.942
66759SOL    HW1 2174  14.131   6.934   5.936
66759SOL    HW2 2175  14.255   6.852   5.909
66760SOL     OW 2176   9.337   0.588  13.960
66760SOL    HW1 2177   9.432   0.595  13.967
66760SOL    HW2 2178   9.322   0.498  13.929
66761SOL     OW 2179   2.891  10.762   2.658
66761SOL    HW1 2180   2.893  10.713   2.577
66761SOL    HW2 2181   2.840  10.841   2.638
66762SOL     OW 2182   7.010   8.995   9.463
66762SOL    HW1 2183   6.931   9.049   9.472
66762SOL    HW2 2184   7.070   9.030   9.528
66763SOL     OW 2185  12.579   8.618   9.423
66763SOL    HW1 2186  12.627   8.701   9.430
66763SOL    HW2 2187  12.629   8.567   9.359
66764SOL     OW 2188  13.327   4.739   6.129
66764SOL    HW1 2189  13.285   4.654   6.143
66764SOL    HW2 2190  13.271   4.784   6.066
66765SOL     OW 2191   5.726   0.994   1.118
66765SOL    HW1 2192   5.787   1.038   1.058
66765SOL    HW2 2193   5.649   0.975   1.064
66766SOL     OW 2194   7.501   0.708   5.738
66766SOL    HW1 2195   7.566   0.770   5.704
66766SOL    HW2 2196   7.418   0.735   5.697
66767SOL     OW 2197   5.164   2.662   3.539
66767SOL    HW1 2198   5.166   2.570   3.566
66767SOL    HW2 2199   5.166   2.659   3.444
66768SOL     OW 2200   2.346  14.042   5.081
66768SOL    HW1 2201   2.426  13.991   5.070
66768SOL    HW2 2202   2.282  13.979   5.113
66769SOL     OW 2203   9.589  12.409  14.114
66769SOL    HW1 2204   9.632  12.324  14.119
66769SOL    HW2 2205   9.602  12.447  14.201
66770SOL     OW 2206   1.713   1.646   6.878
66770SOL    HW1 2207   1.806   1.650   6.902
66770SOL    HW2 2208   1.675   1.726   6.913
66771SOL     OW 2209   7.700  11.777   3.975
66771SOL    HW1 2210   7.769  11.773   3.908
66771SOL    HW2 2211   7.656  11.693   3.969
66772SOL     OW 2212   5.796  12.436   4.219
66772SOL    HW1 2213   5.800  12.525   4.254
66772SOL    HW2 2214   5.702  12.418   4.210
66773SOL     OW 2215   4.539   0.604   0.312
66773SOL    HW1 2216   4.505   0.545   0.379
66773SOL    HW2 2217   4.627   0.571   0.293
66774SOL     OW 2218   8.177  12.469   4.643
66774SOL    HW1 2219   8.120  12.519   4.702
66774SOL    HW2 2220   8.205  12.534   4.578
66775SOL     OW 2221  12.517   5.669   3.371
66775SOL    HW1 2222  12.495   5.738   3.309
66775SOL    HW2 2223  12.594   5.627   3.334
66776SOL     OW 2224   8.152   1.153  11.640
66776SOL    HW1 2225   8.072   1.148  11.693
66776SOL    HW2 2226   8.162   1.246  11.621
66777SOL     OW 2227   6.045  12.889  10.852
66777SOL    HW1 2228   6.109  12.954  10.825
66777SOL    HW2 2229   6.043  12.825  10.781
66778SOL     OW 2230  10.492   1.178   0.998
66778SOL    HW1 2231  10.440   1.250   1.034
66778SOL    HW2 2232  10.545   1.218   0.930
66779SOL     OW 2233   9.071  14.787  12.390
66779SOL    HW1 2234   9.070  14.792  12.295
66779SOL    HW2 2235   9.141  14.725  12.410
66780SOL     OW 2236   3.178  12.460   2.374
66780SOL    HW1 2237   3.240  12.527   2.403
66780SOL    HW2 2238   3.104  12.510   2.339
66781SOL     OW 2239   9.216  12.404   5.889
66781SOL    HW1 2240   9.121  12.398   5.880
66781SOL    HW2 2241   9.229  12.446   5.973
66782SOL     OW 2242   1.347   2.271   4.831
66782SOL    HW1 2243   1.288   2.341   4.802
66782SOL    HW2 2244   1.307   2.191   4.797
66783SOL     OW 2245   6.237   8.779   1.151
66783SOL    HW1 2246   6.312   8.825   1.189
66783SOL    HW2 2247   6.176   8.768   1.224
66784SOL     OW 2248   1.690   6.050   1.105
66784SOL    HW1 2249   1.619   6.010   1.155
66784SOL    HW2 2250   1.688   6.142   1.131
66785SOL     OW 2251  10.547   6.223  10.484
66785SOL    HW1 2252  10.598   6.169  10.423
66785SOL    HW2 2253  10.612   6.260  10.544
66786SOL     OW 2254   6.552   8.461  10.376
66786SOL    HW1 2255   6.561   8.420  10.290
66786SOL    HW2 2256   6.603   8.404  10.434
66787SOL     OW 2257   6.371   2.024   9.653
66787SOL    HW1 2258   6.342   2.016   9.744
66787SOL    HW2 2259   6.465   2.042   9.660
66788SOL     OW 2260   5.832   0.240   0.541
66788SOL    HW1 2261   5.752   0.215   0.496
66788SOL    HW2 2262   5.804   0.305   0.605
66789SOL     OW 2263   2.737   2.699   5.698
66789SOL    HW1 2264   2.766   2.718   5.609
66789SOL    HW2 2265   2.814   2.663   5.741
66790SOL     OW 2266   1.515  13.517  12.482
66790SOL    HW1 2267   1.585  13.471  12.436
66790SOL    HW2 2268   1.462  13.557  12.412
66791SOL     OW 2269   8.051  13.984   5.554
66791SOL    HW1 2270   8.055  14.016   5.645
66791SOL    HW2 2271   7.957  13.976   5.536
66792SOL     OW 2272   2.209   6.334   7.865
66792SOL    HW1 2273   2.157   6.258   7.893
66792SOL    HW2 2274   2.262   6.301   7.793
66793SOL     OW 2275   8.880   0.626  12.168
66793SOL    HW1 2276   8.906   0.696  12.228
66793SOL    HW2 2277   8.787   0.614  12.185
66794SOL     OW 2278   1.084   0.282   5.654
66794SOL    HW1 2279   1.149   0.346   5.682
66794SOL    HW2 2280   1.121   0.197   5.678
66795SOL     OW 2281   5.542  10.383   1.859
66795SOL    HW1 2282   5.513  10.370   1.769
66795SOL    HW2 2283   5.638  10.386   1.854
66796SOL     OW 2284   3.093   6.300   0.856
66796SOL    HW1 2285   3.152   6.281   0.929
66796SOL    HW2 2286   3.123   6.244   0.784
66797SOL     OW 2287  12.164  13.922  11.591
66797SOL    HW1 2288  12.111  13.963  11.522
66797SOL    HW2 2289  12.105  13.857  11.630
66798SOL     OW 2290  13.268   4.229   0.240
66798SOL    HW1 2291  13.302   4.224   0.151
66798SOL    HW2 2292  13.218   4.310   0.242
66799SOL     OW 2293  13.685  11.714   0.750
66799SOL    HW1 2294  13.714  11.757   0.670
66799SOL    HW2 2295  13.765  11.675   0.787
66800SOL     OW 2296   4.458  14.747   9.164
66800SOL    HW1 2297   4.539  14.764   9.115
66800SOL    HW2 2298   4.465  14.803   9.242
66801SOL     OW 2299   5.952   3.893   3.029
66801SOL    HW1 2300   5.949   3.831   3.101
66801SOL    HW2 2301   5.902   3.851   2.959
66802SOL     OW 2302   8.721   2.449  13.286
66802SOL    HW1 2303   8.628   2.432  13.298
66802SOL    HW2 2304   8.726   2.537  13.248
66803SOL     OW 2305   9.947   1.263   8.967
66803SOL    HW1 2306   9.912   1.306   8.889
66803SOL    HW2 2307  10.032   1.228   8.940
66804SOL     OW 2308  12.393  11.482   4.785
66804SOL    HW1 2309  12.343  11.407   4.820
66804SOL    HW2 2310  12.329  11.554   4.784
66805SOL     OW 2311   1.297   7.779   1.462
66805SOL    HW1 2312   1.250   7.831   1.528
66805SOL    HW2 2313   1.286   7.688   1.492
66806SOL     OW 2314  10.466   3.630   6.925
66806SOL    HW1 2315  10.495   3.605   7.013
66806SOL    HW2 2316  10.544   3.670   6.885
66807SOL     OW 2317   3.916   4.923   2.878
66807SOL    HW1 2318   3.869   4.841   2.893
66807SOL    HW2 2319   3.855   4.991   2.908
66808SOL     OW 2320  10.171   6.932  11.656
66808SOL    HW1 2321  10.077   6.947  11.668
66808SOL    HW2 2322  10.184   6.841  11.682
66809SOL     OW 2323   2.362   8.930  11.373
66809SOL    HW1 2324   2.268   8.940  11.387
66809SOL    HW2 2325   2.398   9.017  11.387
66810SOL     OW 2326  14.297   5.107   1.935
66810SOL    HW1 2327  14.233   5.156   1.987
66810SOL    HW2 2328  14.382   5.141   1.964
66811SOL     OW 2329   9.976   0.346  10.033
66811SOL    HW1 2330  10.070   0.336  10.046
66811SOL    HW2 2331   9.955   0.287   9.961
66812SOL     OW 2332   6.720   3.981  13.087
66812SOL    HW1 2333   6.628   3.957  13.100
66812SOL    HW2 2334   6.730   3.985  12.992
66813SOL     OW 2335  13.038  11.767   6.008
66813SOL    HW1 2336  12.951  11.784   5.971
66813SOL    HW2 2337  13.023  11.699   6.073
66814SOL     OW 2338   6.505  12.806  12.335
66814SOL    HW1 2339   6.523  12.829  12.426
66814SOL    HW2 2340   6.588  12.821  12.290
66815SOL     OW 2341   8.840   2.064  11.614
66815SOL    HW1 2342   8.822   2.105  11.529
66815SOL    HW2 2343   8.900   2.125  11.657
66816SOL     OW 2344   9.817   6.771   4.354
66816SOL    HW1 2345   9.755   6.844   4.344
66816SOL    HW2 2346   9.778   6.700   4.303
66817SOL     OW 2347   6.772   9.914  12.096
66817SOL    HW1 2348   6.680   9.938  12.084
66817SOL    HW2 2349   6.804   9.976  12.162
66818SOL     OW 2350   3.746   3.786   6.578
66818SOL    HW1 2351   3.686   3.828   6.640
66818SOL    HW2 2352   3.829   3.832   6.591
66819SOL     OW 2353  12.361  12.321   7.399
66819SOL    HW1 2354  12.295  12.384   7.372
66819SOL    HW2 2355  12.343  12.243   7.348
66820SOL     OW 2356  13.268   7.950   8.228
66820SOL    HW1 2357  13.306   8.036   8.245
66820SOL    HW2 2358  13.196   7.942   8.291
66821SOL     OW 2359   4.346  12.419   8.251
66821SOL    HW1 2360   4.397  12.497   8.229
66821SOL    HW2 2361   4.259  12.452   8.274
66822SOL     OW 2362  13.712   2.687  11.990
66822SOL    HW1 2363  13.698   2.620  12.057
66822SOL    HW2 2364  13.661   2.762  12.021
66823SOL     OW 2365   0.622   5.800  10.928
66823SOL    HW1 2366   0.605   5.783  10.836
66823SOL    HW2 2367   0.681   5.730  10.955
66824SOL     OW 2368   3.353   1.744  12.802
66824SOL    HW1 2369   3.374   1.767  12.711
66824SOL    HW2 2370   3.277   1.797  12.823
66825SOL     OW 2371  11.990  10.075   5.870
66825SOL    HW1 2372  12.036  10.125   5.803
66825SOL    HW2 2373  11.921  10.029   5.823
66826SOL     OW 2374  13.333  12.091  11.541
66826SOL    HW1 2375  13.242  12.066  11.557
66826SOL    HW2 2376  13.336  12.111  11.447
66827SOL     OW 2377   5.469   6.282   6.245
66827SOL    HW1 2378   5.460   6.374   6.220
66827SOL    HW2 2379   5.478   6.283   6.340
66828SOL     OW 2380  12.871  13.310   0.121
66828SOL    HW1 2381  12.850  13.386   0.175
66828SOL    HW2 2382  12.803  13.246   0.143
66829SOL     OW 2383   7.523  13.384  12.027
66829SOL    HW1 2384   7.428  13.388  12.018
66829SOL    HW2 2385   7.556  13.394  11.937
66830SOL     OW 2386   4.874   0.174   2.523
66830SOL    HW1 2387   4.817   0.115   2.474
66830SOL    HW2 2388   4.947   0.118   2.553
66831SOL     OW 2389  13.349   7.193  13.376
66831SOL    HW1 2390  13.371   7.285  13.388
66831SOL    HW2 2391  13.403   7.147  13.441
66832SOL     OW 2392   0.992  11.405   0.666
66832SOL    HW1 2393   1.041  11.346   0.609
66832SOL    HW2 2394   1.046  11.484   0.670
66833SOL     OW 2395  13.940  14.288   7.975
66833SOL    HW1 2396  13.941  14.379   8.004
66833SOL    HW2 2397  13.868  14.248   8.022
66834SOL     OW 2398  13.356  13.210   1.703
66834SOL    HW1 2399  13.393  13.285   1.749
66834SOL    HW2 2400  13.398  13.211   1.617
66835SOL     OW 2401   7.576   7.055  13.055
66835SOL    HW1 2402   7.524   6.978  13.031
66835SOL    HW2 2403   7.539   7.125  13.002
66836SOL     OW 2404   5.971   4.644   2.511
66836SOL    HW1 2405   5.906   4.613   2.573
66836SOL    HW2 2406   5.938   4.729   2.481
66837SOL     OW 2407   1.494  11.379   9.366
66837SOL    HW1 2408   1.565  11.415   9.419
66837SOL    HW2 2409   1.493  11.286   9.386
66838SOL     OW 2410   0.333   6.761   1.935
66838SOL    HW1 2411   0.416   6.714   1.947
66838SOL    HW2 2412   0.348   6.817   1.858
66839SOL     OW 2413  11.484  11.063   0.296
66839SOL    HW1 2414  11.547  11.002   0.333
66839SOL    HW2 2415  11.404  11.049   0.346
66840SOL     OW 2416  14.710   0.997   4.690
66840SOL    HW1 2417  14.785   0.990   4.749
66840SOL    HW2 2418  14.655   0.921   4.711
66841SOL     OW 2419   3.053   9.618   5.982
66841SOL    HW1 2420   3.025   9.546   6.038
66841SOL    HW2 2421   2.977   9.638   5.928
66842SOL     OW 2422  11.577  12.849  14.039
66842SOL    HW1 2423  11.509  12.908  14.073
66842SOL    HW2 2424  11.562  12.766  14.085
66843SOL     OW 2425   9.350  13.103   5.104
66843SOL    HW1 2426   9.415  13.045   5.143
66843SOL    HW2 2427   9.400  13.178   5.072
66844SOL     OW 2428  11.314   8.603   8.790
66844SOL    HW1 2429  11.301   8.540   8.719
66844SOL    HW2 2430  11.270   8.683   8.758
66845SOL     OW 2431   7.352  10.820   3.373
66845SOL    HW1 2432   7.283  10.754   3.370
66845SOL    HW2 2433   7.315  10.895   3.326
66846SOL     OW 2434   4.906  10.991   1.541
66846SOL    HW1 2435   4.912  11.084   1.520
66846SOL    HW2 2436   4.815  10.968   1.524
66847SOL     OW 2437   8.422   6.597   2.448
66847SOL    HW1 2438   8.348   6.652   2.422
66847SOL    HW2 2439   8.382   6.516   2.481
66848SOL     OW 2440   0.751   3.512   2.060
66848SOL    HW1 2441   0.806   3.448   2.015
66848SOL    HW2 2442   0.666   3.468   2.069
66849SOL     OW 2443   9.881  10.205   6.889
66849SOL    HW1 2444   9.925  10.175   6.809
66849SOL    HW2 2445   9.952  10.240   6.943
66850SOL     OW 2446   7.188  14.304  14.785
66850SOL    HW1 2447   7.257  14.370  14.788
66850SOL    HW2 2448   7.224  14.233  14.733
66851SOL     OW 2449   7.840   5.747   4.166
66851SOL    HW1 2450   7.839   5.820   4.227
66851SOL    HW2 2451   7.857   5.787   4.081
66852SOL     OW 2452  13.261  10.164   8.597
66852SOL    HW1 2453  13.229  10.092   8.650
66852SOL    HW2 2454  13.206  10.163   8.518
66853SOL     OW 2455   2.299   8.863   9.137
66853SOL    HW1 2456   2.353   8.851   9.059
66853SOL    HW2 2457   2.236   8.792   9.133
66854SOL     OW 2458   6.164  13.459   0.914
66854SOL    HW1 2459   6.176  13.423   0.826
66854SOL    HW2 2460   6.252  13.483   0.943
66855SOL     OW 2461   4.579   7.235  12.418
66855SOL    HW1 2462   4.571   7.294  12.492
66855SOL    HW2 2463   4.594   7.293  12.343
66856SOL     OW 2464   2.189  10.091   3.788
66856SOL    HW1 2465   2.280  10.081   3.757
66856SOL    HW2 2466   2.141  10.022   3.742
66857SOL     OW 2467   4.503   3.730   6.290
66857SOL    HW1 2468   4.507   3.799   6.356
66857SOL    HW2 2469   4.410   3.725   6.266
66858SOL     OW 2470   5.088  12.278   2.942
66858SOL    HW1 2471   5.029  12.300   2.870
66858SOL    HW2 2472   5.082  12.352   3.002
66859SOL     OW 2473   4.960   9.731   2.399
66859SOL    HW1 2474   4.887   9.768   2.449
66859SOL    HW2 2475   4.974   9.793   2.328
66860SOL     OW 2476   8.123   5.938   5.381
66860SOL    HW1 2477   8.086   6.015   5.337
66860SOL    HW2 2478   8.054   5.908   5.439
66861SOL     OW 2479   8.587   5.896  14.634
66861SOL    HW1 2480   8.524   5.827  14.612
66861SOL    HW2 2481   8.569   5.917  14.725
66862SOL     OW 2482   4.493   5.188   1.922
66862SOL    HW1 2483   4.559   5.122   1.940
66862SOL    HW2 2484   4.498   5.202   1.828
66863SOL     OW 2485  10.828   8.641   0.736
66863SOL    HW1 2486  10.805   8.633   0.829
66863SOL    HW2 2487  10.920   8.665   0.736
66864SOL     OW 2488   6.087   0.051   5.038
66864SOL    HW1 2489   6.162   0.005   5.000
66864SOL    HW2 2490   6.064   0.118   4.974
66865SOL     OW 2491   6.529   4.336   9.870
66865SOL    HW1 2492   6.446   4.308   9.831
66865SOL    HW2 2493   6.516   4.428   9.891
66866SOL     OW 2494   4.107   7.391   4.553
66866SOL    HW1 2495   4.171   7.335   4.509
66866SOL    HW2 2496   4.149   7.416   4.635
66867SOL     OW 2497  13.327  10.758   6.259
66867SOL    HW1 2498  13.388  10.831   6.244
66867SOL    HW2 2499  13.358  10.689   6.201
66868SOL     OW 2500   1.365  12.158   3.646
66868SOL    HW1 2501   1.318  12.237   3.620
66868SOL    HW2 2502   1.327  12.134   3.730
66869SOL     OW 2503  12.545   2.825  12.081
66869SOL    HW1 2504  12.565   2.822  11.987
66869SOL    HW2 2505  12.453   2.853  12.085
66870SOL     OW 2506   6.656  12.662   5.150
66870SOL    HW1 2507   6.705  12.602   5.206
66870SOL    HW2 2508   6.686  12.749   5.175
66871SOL     OW 2509   3.105   6.434  13.121
66871SOL    HW1 2510   3.155   6.504  13.081
66871SOL    HW2 2511   3.070   6.471  13.202
66872SOL     OW 2512   0.301   7.723   0.933
66872SOL    HW1 2513   0.338   7.776   0.862
66872SOL    HW2 2514   0.360   7.648   0.939
66873SOL     OW 2515   4.803   1.452  12.665
66873SOL    HW1 2516   4.762   1.482  12.746
66873SOL    HW2 2517   4.895   1.437  12.689
66874SOL     OW 2518  13.423  11.640  14.206
66874SOL    HW1 2519  13.496  11.594  14.164
66874SOL    HW2 2520  13.379  11.573  14.258
66875SOL     OW 2521   9.528  11.607   9.120
66875SOL    HW1 2522   9.460  11.633   9.182
66875SOL    HW2 2523   9.547  11.516   9.144
66876SOL     OW 2524   0.825   9.780   3.927
66876SOL    HW1 2525   0.751   9.835   3.954
66876SOL    HW2 2526   0.901   9.837   3.937
66877SOL     OW 2527   2.016   3.882   5.051
66877SOL    HW1 2528   1.960   3.956   5.026
66877SOL    HW2 2529   1.977   3.807   5.007
66878SOL     OW 2530   5.366   2.823   0.375
66878SOL    HW1 2531   5.291   2.877   0.398
66878SOL    HW2 2532   5.398   2.860   0.292
66879SOL     OW 2533  13.249  10.477  14.789
66879SOL    HW1 2534  13.313  10.473  14.860
66879SOL    HW2 2535  13.268  10.400  14.735
66880SOL     OW 2536  11.720   3.018   6.264
66880SOL    HW1 2537  11.756   3.042   6.349
66880SOL    HW2 2538  11.628   3.000   6.280
66881SOL     OW 2539   5.522   1.784  10.522
66881SOL    HW1 2540   5.592   1.843  10.496
66881SOL    HW2 2541   5.564   1.698  10.530
66882SOL     OW 2542   0.018   1.844  12.270
66882SOL    HW1 2543  14.870   1.902  12.202
66882SOL    HW2 2544   0.079   1.787  12.223
66883SOL     OW 2545   6.336   4.891   5.727
66883SOL    HW1 2546   6.283   4.816   5.698
66883SOL    HW2 2547   6.279   4.938   5.788
66884SOL     OW 2548  11.375   1.473   4.597
66884SOL    HW1 2549  11.422   1.389   4.595
66884SOL    HW2 2550  11.328   1.472   4.680
66885SOL     OW 2551   1.277   2.079   0.260
66885SOL    HW1 2552   1.237   2.151   0.212
66885SOL    HW2 2553   1.358   2.060   0.213
66886SOL     OW 2554   9.815  14.346  10.417
66886SOL    HW1 2555   9.781  14.340  10.328
66886SOL    HW2 2556   9.742  14.321  10.473
66887SOL     OW 2557   9.688   1.469   8.966
66887SOL    HW1 2558   9.718   1.472   9.057
66887SOL    HW2 2559   9.707   1.556   8.932
66888SOL     OW 2560  12.992   1.720   9.586
66888SOL    HW1 2561  12.921   1.742   9.526
66888SOL    HW2 2562  12.949   1.701   9.669
66889SOL     OW 2563   0.803   2.666  12.015
66889SOL    HW1 2564   0.823   2.691  11.925
66889SOL    HW2 2565   0.861   2.721  12.068
66890SOL     OW 2566   5.212   8.340   1.996
66890SOL    HW1 2567   5.171   8.406   1.940
66890SOL    HW2 2568   5.302   8.334   1.964
66891SOL     OW 2569  14.761   7.034  10.162
66891SOL    HW1 2570  14.757   6.946  10.125
66891SOL    HW2 2571  14.849   7.040  10.198
66892SOL     OW 2572   4.561  11.074  13.817
66892SOL    HW1 2573   4.554  10.987  13.779
66892SOL    HW2 2574   4.640  11.111  13.780
66893SOL     OW 2575   4.767  12.991   2.041
66893SOL    HW1 2576   4.675  13.019   2.048
66893SOL    HW2 2577   4.803  13.042   1.968
66894SOL     OW 2578   2.360   6.378  10.934
66894SOL    HW1 2579   2.375   6.451  10.875
66894SOL    HW2 2580   2.430   6.385  11.000
66895SOL     OW 2581   3.169   0.381  12.365
66895SOL    HW1 2582   3.176   0.313  12.298
66895SOL    HW2 2583   3.257   0.388  12.403
66896SOL     OW 2584  11.312   6.071   8.563
66896SOL    HW1 2585  11.300   6.056   8.657
66896SOL    HW2 2586  11.288   5.988   8.523
66897SOL     OW 2587   1.071   8.706   7.529
66897SOL    HW1 2588   1.149   8.754   7.555
66897SOL    HW2 2589   1.104   8.623   7.495
66898SOL     OW 2590  11.211   1.620  10.480
66898SOL    HW1 2591  11.303   1.609  10.505
66898SOL    HW2 2592  11.198   1.561  10.406
66899SOL     OW 2593  13.926   2.266   8.251
66899SOL    HW1 2594  13.871   2.342   8.228
66899SOL    HW2 2595  14.004   2.276   8.197
66900SOL     OW 2596  11.485   1.750  12.843
66900SOL    HW1 2597  11.446   1.800  12.915
66900SOL    HW2 2598  11.411   1.730  12.785
66901SOL     OW 2599  14.462  13.346   5.907
66901SOL    HW1 2600  14.422  13.405   5.971
66901SOL    HW2 2601  14.556  13.356   5.920
66902SOL     OW 2602   0.196   9.385   8.280
66902SOL    HW1 2603   0.172   9.294   8.300
66902SOL    HW2 2604   0.281   9.378   8.236
66903SOL     OW 2605   7.087  12.059   1.818
66903SOL    HW1 2606   6.994  12.079   1.814
66903SOL    HW2 2607   7.091  11.964   1.814
66904SOL     OW 2608   5.582   8.470  14.705
66904SOL    HW1 2609   5.647   8.523  14.752
66904SOL    HW2 2610   5.548   8.410  14.772
66905SOL     OW 2611   7.052  13.894  11.038
66905SOL    HW1 2612   7.133  13.883  11.088
66905SOL    HW2 2613   6.982  13.876  11.102
66906SOL     OW 2614   2.164   5.514   9.992
66906SOL    HW1 2615   2.154   5.559   9.908
66906SOL    HW2 2616   2.076   5.482  10.014
66907SOL     OW 2617  11.960  13.518  13.097
66907SOL    HW1 2618  11.920  13.495  13.014
66907SOL    HW2 2619  12.049  13.546  13.075
66908SOL     OW 2620   2.383   9.827  14.802
66908SOL    HW1 2621   2.312   9.764  14.816
66908SOL    HW2 2622   2.459   9.773  14.781
66909SOL     OW 2623  14.699   8.852  14.486
66909SOL    HW1 2624  14.660   8.872  14.401
66909SOL    HW2 2625  14.639   8.891  14.549
66910SOL     OW 2626   4.644   8.522   6.480
66910SOL    HW1 2627   4.733   8.501   6.506
66910SOL    HW2 2628   4.653   8.584   6.408
66911SOL     OW 2629   6.508   1.920  12.457
66911SOL    HW1 2630   6.515   1.896  12.549
66911SOL    HW2 2631   6.599   1.926  12.427
66912SOL     OW 2632  11.125   6.516  11.699
66912SOL    HW1 2633  11.145   6.532  11.792
66912SOL    HW2 2634  11.033   6.541  11.690
66913SOL     OW 2635  10.211   2.410   1.051
66913SOL    HW1 2636  10.147   2.409   0.979
66913SOL    HW2 2637  10.222   2.318   1.075
66914SOL     OW 2638  13.017   2.520   2.291
66914SOL    HW1 2639  12.977   2.607   2.298
66914SOL    HW2 2640  12.957   2.462   2.337
66915SOL     OW 2641   3.043  14.694   2.738
66915SOL    HW1 2642   3.009  14.606   2.754
66915SOL    HW2 2643   3.107  14.709   2.807
66916SOL     OW 2644  10.995   1.607   0.490
66916SOL    HW1 2645  11.089   1.591   0.503
66916SOL    HW2 2646  10.960   1.618   0.578
66917SOL     OW 2647   4.130  11.060   0.798
66917SOL    HW1 2648   4.136  11.076   0.704
66917SOL    HW2 2649   4.038  11.034   0.812
66918SOL     OW 2650  12.759   6.424   5.467
66918SOL    HW1 2651  12.749   6.495   5.404
66918SOL    HW2 2652  12.812   6.359   5.421
66919SOL     OW 2653  10.165  12.811  14.753
66919SOL    HW1 2654  10.115  12.734  14.727
66919SOL    HW2 2655  10.152  12.816  14.848
66920SOL     OW 2656  13.196   2.941   3.320
66920SOL    HW1 2657  13.221   3.005   3.253
66920SOL    HW2 2658  13.101   2.947   3.323
66921SOL     OW 2659   7.500   3.695  12.788
66921SOL    HW1 2660   7.588   3.665  12.812
66921SOL    HW2 2661   7.460   3.619  12.745
66922SOL     OW 2662   0.646   1.299   5.574
66922SOL    HW1 2663   0.696   1.272   5.651
66922SOL    HW2 2664   0.676   1.241   5.504
66923SOL     OW 2665   6.657  10.198  11.870
66923SOL    HW1 2666   6.655  10.126  11.806
66923SOL    HW2 2667   6.676  10.276  11.818
66924SOL     OW 2668   7.303   0.685   0.272
66924SOL    HW1 2669   7.354   0.613   0.309
66924SOL    HW2 2670   7.356   0.717   0.199
66925SOL     OW 2671   9.730   8.172  12.978
66925SOL    HW1 2672   9.744   8.193  13.070
66925SOL    HW2 2673   9.767   8.085  12.966
66926SOL     OW 2674   1.587  10.974   3.800
66926SOL    HW1 2675   1.563  11.067   3.796
66926SOL    HW2 2676   1.667  10.968   3.748
66927SOL     OW 2677  14.143   7.457   7.731
66927SOL    HW1 2678  14.155   7.381   7.674
66927SOL    HW2 2679  14.112   7.526   7.673
66928SOL     OW 2680   0.795   3.230  11.879
66928SOL    HW1 2681   0.879   3.193  11.908
66928SOL    HW2 2682   0.786   3.311  11.930
66929SOL     OW 2683  12.921  12.456   9.192
66929SOL    HW1 2684  12.914  12.487   9.282
66929SOL    HW2 2685  12.838  12.413   9.174
66930SOL     OW 2686  11.702   0.002  12.019
66930SOL    HW1 2687  11.787   0.012  12.063
66930SOL    HW2 2688  11.645   0.066  12.062
66931SOL     OW 2689   4.462   4.211   7.695
66931SOL    HW1 2690   4.448   4.128   7.742
66931SOL    HW2 2691   4.528   4.191   7.630
66932SOL     OW 2692   3.622   2.490   2.040
66932SOL    HW1 2693   3.650   2.580   2.056
66932SOL    HW2 2694   3.572   2.494   1.959
66933SOL     OW 2695  10.971   7.137   3.137
66933SOL    HW1 2696  11.018   7.205   3.185
66933SOL    HW2 2697  10.955   7.176   3.051
66934SOL     OW 2698   4.056   9.675   1.650
66934SOL    HW1 2699   4.113   9.711   1.718
66934SOL    HW2 2700   4.115   9.628   1.592
66935SOL     OW 2701   6.831   2.316   2.549
66935SOL    HW1 2702   6.809   2.385   2.487
66935SOL    HW2 2703   6.854   2.362   2.629
66936SOL     OW 2704   9.290   2.448   5.580
66936SOL    HW1 2705   9.243   2.440   5.663
66936SOL    HW2 2706   9.223   2.477   5.517
66937SOL     OW 2707   4.636  10.356   8.405
66937SOL    HW1 2708   4.590  10.292   8.350
66937SOL    HW2 2709   4.569  10.418   8.431
66938SOL     OW 2710  13.237   4.049   8.745
66938SOL    HW1 2711  13.293   4.117   8.709
66938SOL    HW2 2712  13.153   4.093   8.761
66939SOL     OW 2713  10.324  12.924   7.868
66939SOL    HW1 2714  10.416  12.940   7.887
66939SOL    HW2 2715  10.301  12.993   7.805
66940SOL     OW 2716   6.429   6.662   1.304
66940SOL    HW1 2717   6.421   6.754   1.330
66940SOL    HW2 2718   6.339   6.634   1.286
66941SOL     OW 2719   4.728  13.703   2.411
66941SOL    HW1 2720   4.743  13.775   2.351
66941SOL    HW2 2721   4.815  13.677   2.441
66942SOL     OW 2722   4.860   5.713   1.497
66942SOL    HW1 2723   4.931   5.756   1.449
66942SOL    HW2 2724   4.901   5.637   1.537
66943SOL     OW 2725  11.230   6.968   8.600
66943SOL    HW1 2726  11.222   6.890   8.655
66943SOL    HW2 2727  11.149   7.017   8.616
66944SOL     OW 2728   5.948  12.628  12.219
66944SOL    HW1 2729   5.990  12.554  12.264
66944SOL    HW2 2730   5.964  12.703  12.276
66945SOL     OW 2731   4.080   8.037   6.371
66945SOL    HW1 2732   4.172   8.052   6.397
66945SOL    HW2 2733   4.086   7.988   6.289
66946SOL     OW 2734   4.231   4.947   7.558
66946SOL    HW1 2735   4.205   4.858   7.584
66946SOL    HW2 2736   4.151   4.999   7.566
66947SOL     OW 2737  14.886   7.714   4.545
66947SOL    HW1 2738  14.846   7.676   4.623
66947SOL    HW2 2739   0.089   7.732   4.571
66948SOL     OW 2740   3.031   7.971  11.641
66948SOL    HW1 2741   3.005   8.022  11.564
66948SOL    HW2 2742   3.090   7.904  11.606
66949SOL     OW 2743   7.158  10.356  10.576
66949SOL    HW1 2744   7.110  10.421  10.525
66949SOL    HW2 2745   7.093  10.322  10.638
66950SOL     OW 2746   2.326  12.029   7.435
66950SOL    HW1 2747   2.292  11.941   7.426
66950SOL    HW2 2748   2.339  12.041   7.530
66951SOL     OW 2749  10.386   0.744   7.657
66951SOL    HW1 2750  10.411   0.654   7.680
66951SOL    HW2 2751  10.468   0.783   7.625
66952SOL     OW 2752  11.801   9.390  13.432
66952SOL    HW1 2753  11.803   9.303  13.472
66952SOL    HW2 2754  11.775   9.449  13.503
66953SOL     OW 2755   6.763   9.078   1.979
66953SOL    HW1 2756   6.709   9.157   1.974
66953SOL    HW2 2757   6.708   9.008   1.946
66954SOL     OW 2758   9.113   6.514   6.099
66954SOL    HW1 2759   9.095   6.440   6.157
66954SOL    HW2 2760   9.051   6.582   6.127
66955SOL     OW 2761   0.328   8.733   1.541
66955SOL    HW1 2762   0.411   8.728   1.589
66955SOL    HW2 2763   0.353   8.731   1.449
66956SOL     OW 2764   1.183  12.340  10.779
66956SOL    HW1 2765   1.146  12.271  10.723
66956SOL    HW2 2766   1.149  12.319  10.866
66957SOL     OW 2767   5.127   0.110   9.101
66957SOL    HW1 2768   5.100   0.045   9.037
66957SOL    HW2 2769   5.046   0.148   9.134
66958SOL     OW 2770  13.574   1.693   6.181
66958SOL    HW1 2771  13.645   1.655   6.232
66958SOL    HW2 2772  13.531   1.618   6.139
66959SOL     OW 2773   1.494  11.470   0.191
66959SOL    HW1 2774   1.550  11.515   0.128
66959SOL    HW2 2775   1.522  11.504   0.276
66960SOL     OW 2776   1.524   2.404   9.227
66960SOL    HW1 2777   1.521   2.489   9.182
66960SOL    HW2 2778   1.584   2.418   9.299
66961SOL     OW 2779   4.484   9.796  13.068
66961SOL    HW1 2780   4.528   9.718  13.032
66961SOL    HW2 2781   4.556   9.854  13.093
66962SOL     OW 2782   4.424   5.442   2.569
66962SOL    HW1 2783   4.510   5.477   2.594
66962SOL    HW2 2784   4.361   5.498   2.614
66963SOL     OW 2785   4.130   0.076   8.723
66963SOL    HW1 2786   4.189   0.009   8.688
66963SOL    HW2 2787   4.177   0.112   8.798
66964SOL     OW 2788   8.274   5.426   9.188
66964SOL    HW1 2789   8.344   5.491   9.182
66964SOL    HW2 2790   8.242   5.434   9.278
66965SOL     OW 2791   3.730   5.085   5.836
66965SOL    HW1 2792   3.762   5.007   5.791
66965SOL    HW2 2793   3.673   5.128   5.773
66966SOL     OW 2794  10.175   6.491   1.800
66966SOL    HW1 2795  10.179   6.396   1.811
66966SOL    HW2 2796  10.135   6.504   1.714
66967SOL     OW 2797  10.641   0.515   5.076
66967SOL    HW1 2798  10.609   0.533   4.988
66967SOL    HW2 2799  10.564   0.483   5.123
66968SOL     OW 2800   6.463  13.009  13.271
66968SOL    HW1 2801   6.430  13.097  13.258
66968SOL    HW2 2802   6.486  13.005  13.364
66969SOL     OW 2803  10.402   1.905   9.027
66969SOL    HW1 2804  10.424   1.886   8.936
66969SOL    HW2 2805  10.467   1.856   9.078
66970SOL     OW 2806   7.610  12.189   1.364
66970SOL    HW1 2807   7.669  12.117   1.384
66970SOL    HW2 2808   7.569  12.211   1.447
66971SOL     OW 2809   9.796   6.911   6.966
66971SOL    HW1 2810   9.774   6.876   6.879
66971SOL    HW2 2811   9.727   6.975   6.984
66972SOL     OW 2812  14.226   0.016  11.764
66972SOL    HW1 2813  14.273   0.038  11.845
66972SOL    HW2 2814  14.270   0.067  11.696
66973SOL     OW 2815  11.658   7.355  12.711
66973SOL    HW1 2816  11.605   7.348  12.632
66973SOL    HW2 2817  11.645   7.446  12.740
66974SOL     OW 2818   0.107   5.623   6.971
66974SOL    HW1 2819   0.170   5.677   7.019
66974SOL    HW2 2820   0.144   5.535   6.974
66975SOL     OW 2821   1.249   6.379   9.263
66975SOL    HW1 2822   1.328   6.346   9.306
66975SOL    HW2 2823   1.269   6.375   9.169
66976SOL     OW 2824   7.175   2.455   3.664
66976SOL    HW1 2825   7.133   2.375   3.696
66976SOL    HW2 2826   7.219   2.428   3.583
66977SOL     OW 2827  12.892   6.965   6.630
66977SOL    HW1 2828  12.928   6.913   6.701
66977SOL    HW2 2829  12.954   6.955   6.558
66978SOL     OW 2830   0.987   9.735  11.249
66978SOL    HW1 2831   0.979   9.720  11.343
66978SOL    HW2 2832   0.960   9.826  11.236
66979SOL     OW 2833  14.805   7.575  10.248
66979SOL    HW1 2834   0.011   7.575  10.267
66979SOL    HW2 2835  14.800   7.584  10.153
66980SOL     OW 2836   4.788  13.277   9.370
66980SOL    HW1 2837   4.856  13.216   9.340
66980SOL    HW2 2838   4.711  13.222   9.384
66981SOL     OW 2839  13.201   4.840   6.755
66981SOL    HW1 2840  13.152   4.831   6.837
66981SOL    HW2 2841  13.262   4.912   6.771
66982SOL     OW 2842   8.244   1.969   1.081
66982SOL    HW1 2843   8.208   1.934   0.999
66982SOL    HW2 2844   8.185   1.936   1.149
66983SOL     OW 2845   6.257   5.078   7.608
66983SOL    HW1 2846   6.319   5.055   7.677
66983SOL    HW2 2847   6.257   5.173   7.606
66984SOL     OW 2848   0.052   2.452   1.468
66984SOL    HW1 2849  14.858   2.419   1.431
66984SOL    HW2 2850   0.107   2.470   1.392
66985SOL     OW 2851   3.397   7.290  14.231
66985SOL    HW1 2852   3.475   7.339  14.203
66985SOL    HW2 2853   3.409   7.203  14.192
66986SOL     OW 2854   2.071  10.795  13.216
66986SOL    HW1 2855   2.041  10.883  13.241
66986SOL    HW2 2856   2.111  10.808  13.130
66987SOL     OW 2857   3.966  14.754   7.955
66987SOL    HW1 2858   4.016  14.698   7.895
66987SOL    HW2 2859   3.940  14.696   8.026
66988SOL     OW 2860   7.729   0.430  10.077
66988SOL    HW1 2861   7.675   0.423   9.998
66988SOL    HW2 2862   7.666   0.439  10.149
66989SOL     OW 2863   4.903  12.490   7.225
66989SOL    HW1 2864   4.830  12.521   7.278
66989SOL    HW2 2865   4.907  12.396   7.243
66990SOL     OW 2866   3.144   1.870   1.501
66990SOL    HW1 2867   3.076   1.804   1.513
66990SOL    HW2 2868   3.110   1.927   1.432
66991SOL     OW 2869   9.875   3.484   9.879
66991SOL    HW1 2870   9.912   3.437   9.804
66991SOL    HW2 2871   9.837   3.563   9.842
66992SOL     OW 2872  11.463   3.575   3.626
66992SOL    HW1 2873  11.405   3.621   3.688
66992SOL    HW2 2874  11.433   3.605   3.540
66993SOL     OW 2875   1.963   1.848   8.817
66993SOL    HW1 2876   1.947   1.879   8.728
66993SOL    HW2 2877   1.893   1.785   8.834
66994SOL     OW 2878  13.702   4.324  13.505
66994SOL    HW1 2879  13.632   4.340  13.568
66994SOL    HW2 2880  13.757   4.257  13.546
66995SOL     OW 2881   4.509   9.676   7.017
66995SOL    HW1 2882   4.445   9.746   7.014
66995SOL    HW2 2883   4.492   9.624   6.938
66996SOL     OW 2884  10.759   7.175   5.147
66996SOL    HW1 2885  10.763   7.104   5.083
66996SOL    HW2 2886  10.665   7.189   5.162
66997SOL     OW 2887   3.529   5.003   3.656
66997SOL    HW1 2888   3.463   5.020   3.723
66997SOL    HW2 2889   3.512   5.068   3.588
66998SOL     OW 2890  10.282  14.298  12.019
66998SOL    HW1 2891  10.215  14.248  11.973
66998SOL    HW2 2892  10.233  14.369  12.061
66999SOL     OW 2893   5.338   7.683  14.802
66999SOL    HW1 2894   5.384   7.601  14.817
66999SOL    HW2 2895   5.359   7.706  14.712
67000SOL     OW 2896   5.956  10.973  13.591
67000SOL    HW1 2897   5.941  10.951  13.683
67000SOL    HW2 2898   5.974  11.067  13.591
67001SOL     OW 2899  11.476   4.562   1.746
67001SOL    HW1 2900  11.395   4.565   1.796
67001SOL    HW2 2901  11.461   4.623   1.673
67002SOL     OW 2902   3.016   1.453   3.483
67002SOL    HW1 2903   2.949   1.517   3.458
67002SOL    HW2 2904   2.970   1.370   3.484
67003SOL     OW 2905  11.823   4.287  10.918
67003SOL    HW1 2906  11.764   4.213  10.907
67003SOL    HW2 2907  11.878   4.286  10.839
67004SOL     OW 2908   2.946  14.047  14.132
67004SOL    HW1 2909   2.884  14.112  14.167
67004SOL    HW2 2910   2.968  14.080  14.045
67005SOL     OW 2911   5.088   9.244   5.930
67005SOL    HW1 2912   5.144   9.166   5.936
67005SOL    HW2 2913   5.128   9.307   5.991
67006SOL     OW 2914   6.366   0.752   1.397
67006SOL    HW1 2915   6.275   0.745   1.368
67006SOL    HW2 2916   6.363   0.806   1.476
67007SOL     OW 2917  10.025  10.408   3.239
67007SOL    HW1 2918  10.022  10.480   3.176
67007SOL    HW2 2919   9.994  10.447   3.322
67008SOL     OW 2920  11.325  14.160   2.882
67008SOL    HW1 2921  11.405  14.136   2.929
67008SOL    HW2 2922  11.347  14.148   2.789
67009SOL     OW 2923   3.643   0.644   7.033
67009SOL    HW1 2924   3.614   0.735   7.025
67009SOL    HW2 2925   3.689   0.640   7.117
67010SOL     OW 2926  13.198  11.474   9.288
67010SOL    HW1 2927  13.133  11.489   9.356
67010SOL    HW2 2928  13.151  11.489   9.206
67011SOL     OW 2929   2.984   1.526  12.844
67011SOL    HW1 2930   2.890   1.524  12.827
67011SOL    HW2 2931   3.015   1.439  12.819
67012SOL     OW 2932   2.278   7.003  13.923
67012SOL    HW1 2933   2.254   6.917  13.889
67012SOL    HW2 2934   2.261   7.063  13.850
67013SOL     OW 2935   6.456  10.185  10.329
67013SOL    HW1 2936   6.451  10.107  10.384
67013SOL    HW2 2937   6.368  10.222  10.332
67014SOL     OW 2938  14.120   4.229  11.758
67014SOL    HW1 2939  14.185   4.176  11.805
67014SOL    HW2 2940  14.111   4.308  11.812
67015SOL     OW 2941  11.156   0.175   5.728
67015SOL    HW1 2942  11.198   0.172   5.814
67015SOL    HW2 2943  11.224   0.145   5.667
67016SOL     OW 2944   7.192   2.862  13.719
67016SOL    HW1 2945   7.186   2.949  13.757
67016SOL    HW2 2946   7.255   2.816  13.775
67017SOL     OW 2947   7.202   2.882   7.112
67017SOL    HW1 2948   7.175   2.949   7.175
67017SOL    HW2 2949   7.128   2.877   7.050
67018SOL     OW 2950   3.087   1.014   9.554
67018SOL    HW1 2951   3.108   0.984   9.642
67018SOL    HW2 2952   3.114   0.942   9.497
67019SOL     OW 2953  14.117  10.170   7.899
67019SOL    HW1 2954  14.103  10.086   7.941
67019SOL    HW2 2955  14.138  10.230   7.971
67020SOL     OW 2956  10.349   0.065   8.005
67020SOL    HW1 2957  10.401  14.885   8.047
67020SOL    HW2 2958  10.286   0.092   8.073
67021SOL     OW 2959   3.968   9.796   8.676
67021SOL    HW1 2960   3.967   9.876   8.623
67021SOL    HW2 2961   4.013   9.732   8.620
67022SOL     OW 2962   0.404   2.971   5.256
67022SOL    HW1 2963   0.422   3.045   5.314
67022SOL    HW2 2964   0.357   2.908   5.311
67023SOL     OW 2965   5.378   2.410   9.688
67023SOL    HW1 2966   5.439   2.464   9.738
67023SOL    HW2 2967   5.383   2.323   9.729
67024SOL     OW 2968   5.927   2.484   5.900
67024SOL    HW1 2969   5.964   2.534   5.973
67024SOL    HW2 2970   5.887   2.550   5.843
67025SOL     OW 2971   1.507  14.034   1.622
67025SOL    HW1 2972   1.433  14.033   1.682
67025SOL    HW2 2973   1.504  13.949   1.579
67026SOL     OW 2974   7.131   0.292   4.576
67026SOL    HW1 2975   7.041   0.280   4.607
67026SOL    HW2 2976   7.155   0.207   4.539
67027SOL     OW 2977  12.982   7.752  12.547
67027SOL    HW1 2978  12.950   7.663  12.537
67027SOL    HW2 2979  13.072   7.750  12.516
67028SOL     OW 2980  10.207   4.255  13.352
67028SOL    HW1 2981  10.258   4.336  13.352
67028SOL    HW2 2982  10.132   4.274  13.296
67029SOL     OW 2983   4.310   3.916   4.947
67029SOL    HW1 2984   4.390   3.959   4.916
67029SOL    HW2 2985   4.241   3.951   4.890
67030SOL     OW 2986   4.319  11.776  11.048
67030SOL    HW1 2987   4.371  11.761  11.127
67030SOL    HW2 2988   4.268  11.854  11.067
67031SOL     OW 2989  14.758   3.020  14.455
67031SOL    HW1 2990  14.825   2.955  14.431
67031SOL    HW2 2991  14.676   2.981  14.424
67032SOL     OW 2992  12.306  10.225   3.392
67032SOL    HW1 2993  12.367  10.151   3.393
67032SOL    HW2 2994  12.350  10.292   3.340
67033SOL     OW 2995   6.084   7.120   5.857
67033SOL    HW1 2996   6.032   7.098   5.780
67033SOL    HW2 2997   6.027   7.100   5.931
67034SOL     OW 2998  10.595   6.602  11.483
67034SOL    HW1 2999  10.575   6.683  11.530
67034SOL    HW2 3000  10.658   6.629  11.416
67035SOL     OW 3001   9.775   6.248   9.347
67035SOL    HW1 3002   9.812   6.290   9.269
67035SOL    HW2 3003   9.681   6.250   9.332
67036SOL     OW 3004   4.675  13.010   1.714
67036SOL    HW1 3005   4.584  13.001   1.740
67036SOL    HW2 3006   4.671  13.045   1.625
67037SOL     OW 3007   3.189   4.187  13.496
67037SOL    HW1 3008   3.248   4.113  13.512
67037SOL    HW2 3009   3.233   4.239  13.429
67038SOL     OW 3010  11.823  14.449   7.382
67038SOL    HW1 3011  11.875  14.519   7.344
67038SOL    HW2 3012  11.775  14.491   7.454
67039SOL     OW 3013   0.349  12.150   8.652
67039SOL    HW1 3014   0.325  12.065   8.691
67039SOL    HW2 3015   0.415  12.128   8.586
67040SOL     OW 3016   4.592  11.417   5.741
67040SOL    HW1 3017   4.510  11.369   5.727
67040SOL    HW2 3018   4.656  11.371   5.687
67041SOL     OW 3019  12.962  11.855  11.068
67041SOL    HW1 3020  12.973  11.911  10.991
67041SOL    HW2 3021  12.932  11.913  11.137
67042SOL     OW 3022   4.786   0.804   0.958
67042SOL    HW1 3023   4.700   0.846   0.963
67042SOL    HW2 3024   4.777   0.740   0.888
67043SOL     OW 3025   5.362   5.785  14.235
67043SOL    HW1 3026   5.299   5.713  14.228
67043SOL    HW2 3027   5.399   5.794  14.148
67044SOL     OW 3028   4.897   1.299   6.670
67044SOL    HW1 3029   4.816   1.304   6.619
67044SOL    HW2 3030   4.957   1.359   6.626
67045SOL     OW 3031   5.690  13.414   2.630
67045SOL    HW1 3032   5.735  13.413   2.546
67045SOL    HW2 3033   5.699  13.324   2.663
67046SOL     OW 3034   0.919   6.022   2.695
67046SOL    HW1 3035   0.979   6.094   2.675
67046SOL    HW2 3036   0.854   6.026   2.625
67047SOL     OW 3037   3.796   7.774   5.094
67047SOL    HW1 3038   3.851   7.812   5.163
67047SOL    HW2 3039   3.836   7.804   5.012
67048SOL     OW 3040   5.369   0.353   9.996
67048SOL    HW1 3041   5.304   0.423  10.000
67048SOL    HW2 3042   5.359   0.315   9.908
67049SOL     OW 3043   9.713   2.074  13.813
67049SOL    HW1 3044   9.654   2.141  13.777
67049SOL    HW2 3045   9.742   2.110  13.897
67050SOL     OW 3046   4.234   5.212   4.356
67050SOL    HW1 3047   4.288   5.266   4.413
67050SOL    HW2 3048   4.149   5.207   4.401
67051SOL     OW 3049   6.454   9.902   2.705
67051SOL    HW1 3050   6.519   9.955   2.659
67051SOL    HW2 3051   6.506   9.836   2.752
67052SOL     OW 3052   3.595   6.786   0.789
67052SOL    HW1 3053   3.639   6.867   0.817
67052SOL    HW2 3054   3.655   6.717   0.816
67053SOL     OW 3055   8.449   5.033   7.469
67053SOL    HW1 3056   8.357   5.016   7.489
67053SOL    HW2 3057   8.457   5.128   7.472
67054SOL     OW 3058   2.324   4.938  13.196
67054SOL    HW1 3059   2.303   5.019  13.149
67054SOL    HW2 3060   2.417   4.925  13.181
67055SOL     OW 3061   2.942   3.811  12.933
67055SOL    HW1 3062   2.890   3.834  13.009
67055SOL    HW2 3063   2.965   3.719  12.946
67056SOL     OW 3064   8.351   6.538   8.336
67056SOL    HW1 3065   8.312   6.594   8.403
67056SOL    HW2 3066   8.444   6.563   8.335
67057SOL     OW 3067   3.104   3.017   4.475
67057SOL    HW1 3068   3.142   3.033   4.389
67057SOL    HW2 3069   3.099   3.103   4.516
67058SOL     OW 3070   2.090   0.077   3.020
67058SOL    HW1 3071   1.999   0.100   3.040
67058SOL    HW2 3072   2.091   0.063   2.925
67059SOL     OW 3073  14.536   9.465   3.500
67059SOL    HW1 3074  14.605   9.490   3.561
67059SOL    HW2 3075  14.570   9.488   3.414
67060SOL     OW 3076   2.838   8.848  13.913
67060SOL    HW1 3077   2.848   8.784  13.843
67060SOL    HW2 3078   2.807   8.927  13.869
67061SOL     OW 3079   7.079   6.623  13.859
67061SOL    HW1 3080   7.123   6.539  13.872
67061SOL    HW2 3081   7.120   6.682  13.923
67062SOL     OW 3082   1.996   9.167   6.480
67062SOL    HW1 3083   1.991   9.104   6.551
67062SOL    HW2 3084   1.905   9.191   6.461
67063SOL     OW 3085  12.024   2.409   2.183
67063SOL    HW1 3086  11.958   2.413   2.251
67063SOL    HW2 3087  12.060   2.320   2.190
67064SOL     OW 3088  12.798   8.097  10.280
67064SOL    HW1 3089  12.842   8.166  10.231
67064SOL    HW2 3090  12.867   8.060  10.335
67065SOL     OW 3091  13.311  12.078  11.087
67065SOL    HW1 3092  13.362  12.003  11.118
67065SOL    HW2 3093  13.321  12.076  10.991
67066SOL     OW 3094   9.303   0.191   7.462
67066SOL    HW1 3095   9.397   0.204   7.452
67066SOL    HW2 3096   9.265   0.277   7.442
67067SOL     OW 3097   7.848   2.275   4.950
67067SOL    HW1 3098   7.793   2.318   4.885
67067SOL    HW2 3099   7.810   2.187   4.959
67068SOL     OW 3100  14.389   1.267   3.255
67068SOL    HW1 3101  14.481   1.295   3.260
67068SOL    HW2 3102  14.345   1.318   3.323
67069SOL     OW 3103   8.675   2.282  13.608
67069SOL    HW1 3104   8.751   2.224  13.605
67069SOL    HW2 3105   8.664   2.311  13.517
67070SOL     OW 3106   6.597  12.567   7.376
67070SOL    HW1 3107   6.553  12.635   7.427
67070SOL    HW2 3108   6.535  12.494   7.375
67071SOL     OW 3109   2.992   8.325   0.244
67071SOL    HW1 3110   3.072   8.309   0.295
67071SOL    HW2 3111   2.921   8.314   0.307
67072SOL     OW 3112   1.058   1.988   7.210
67072SOL    HW1 3113   1.013   2.050   7.268
67072SOL    HW2 3114   1.010   1.993   7.127
67073SOL     OW 3115  12.707   0.114   1.651
67073SOL    HW1 3116  12.756   0.195   1.660
67073SOL    HW2 3117  12.728   0.064   1.730
67074SOL     OW 3118  12.279  14.513   1.847
67074SOL    HW1 3119  12.279  14.444   1.781
67074SOL    HW2 3120  12.232  14.475   1.921
67075SOL     OW 3121   6.347  13.732  11.592
67075SOL    HW1 3122   6.346  13.672  11.667
67075SOL    HW2 3123   6.301  13.810  11.623
67076SOL     OW 3124   4.101   8.967   1.053
67076SOL    HW1 3125   4.086   9.059   1.076
67076SOL    HW2 3126   4.161   8.934   1.120
67077SOL     OW 3127   3.252  13.714   8.233
67077SOL    HW1 3128   3.243  13.808   8.215
67077SOL    HW2 3129   3.308  13.682   8.163
67078SOL     OW 3130   9.240  14.065   3.784
67078SOL    HW1 3131   9.273  14.143   3.830
67078SOL    HW2 3132   9.289  14.063   3.702
67079SOL     OW 3133   8.836   0.623  14.217
67079SOL    HW1 3134   8.929   0.640  14.208
67079SOL    HW2 3135   8.812   0.573  14.138
67080SOL     OW 3136   4.221  11.305   4.346
67080SOL    HW1 3137   4.189  11.225   4.387
67080SOL    HW2 3138   4.145  11.341   4.300
67081SOL     OW 3139  10.012   6.888   2.333
67081SOL    HW1 3140   9.928   6.931   2.315
67081SOL    HW2 3141   9.993   6.827   2.405
67082SOL     OW 3142  11.423   5.976  12.111
67082SOL    HW1 3143  11.487   6.007  12.046
67082SOL    HW2 3144  11.430   5.880  12.106
67083SOL     OW 3145  12.194  13.768   0.522
67083SOL    HW1 3146  12.191  13.674   0.502
67083SOL    HW2 3147  12.162  13.775   0.612
67084SOL     OW 3148   4.704   9.723   4.954
67084SOL    HW1 3149   4.737   9.714   5.044
67084SOL    HW2 3150   4.674   9.813   4.948
67085SOL     OW 3151   6.105   0.286   0.533
67085SOL    HW1 3152   6.120   0.352   0.601
67085SOL    HW2 3153   6.014   0.260   0.544
67086SOL     OW 3154   1.293   7.918  12.378
67086SOL    HW1 3155   1.339   7.937  12.459
67086SOL    HW2 3156   1.206   7.889  12.406
67087SOL     OW 3157   2.889   2.685   9.024
67087SOL    HW1 3158   2.835   2.752   9.066
67087SOL    HW2 3159   2.922   2.727   8.944
67088SOL     OW 3160  12.947   9.106   1.315
67088SOL    HW1 3161  13.025   9.135   1.361
67088SOL    HW2 3162  12.896   9.060   1.383
67089SOL     OW 3163  13.486  11.058   0.472
67089SOL    HW1 3164  13.423  10.989   0.492
67089SOL    HW2 3165  13.555  11.048   0.538
67090SOL     OW 3166   6.257   3.127   1.816
67090SOL    HW1 3167   6.246   3.042   1.773
67090SOL    HW2 3168   6.342   3.122   1.859
67091SOL     OW 3169  14.162   9.427   9.789
67091SOL    HW1 3170  14.190   9.485   9.860
67091SOL    HW2 3171  14.090   9.474   9.747
67092SOL     OW 3172  10.555  14.658   5.416
67092SOL    HW1 3173  10.555  14.726   5.483
67092SOL    HW2 3174  10.508  14.697   5.342
67093SOL     OW 3175   7.198  13.238  13.253
67093SOL    HW1 3176   7.165  13.294  13.183
67093SOL    HW2 3177   7.144  13.159  13.249
67094SOL     OW 3178   1.975   3.721  13.112
67094SOL    HW1 3179   1.886   3.689  13.124
67094SOL    HW2 3180   1.971   3.814  13.131
67095SOL     OW 3181   4.271   0.874  13.717
67095SOL    HW1 3182   4.278   0.969  13.720
67095SOL    HW2 3183   4.268   0.847  13.809
67096SOL     OW 3184   8.702   2.279  12.934
67096SOL    HW1 3185   8.789   2.268  12.896
67096SOL    HW2 3186   8.703   2.223  13.012
67097SOL     OW 3187   7.768   5.092   9.853
67097SOL    HW1 3188   7.740   5.024   9.793
67097SOL    HW2 3189   7.770   5.049   9.939
67098SOL     OW 3190  10.404   1.137   3.133
67098SOL    HW1 3191  10.356   1.191   3.070
67098SOL    HW2 3192  10.364   1.050   3.125
67099SOL     OW 3193   1.989   1.651  13.698
67099SOL    HW1 3194   2.011   1.741  13.677
67099SOL    HW2 3195   2.062   1.599  13.662
67100SOL     OW 3196   8.470   8.073   8.965
67100SOL    HW1 3197   8.555   8.088   8.924
67100SOL    HW2 3198   8.416   8.146   8.935
67101SOL     OW 3199  13.484   9.888  14.618
67101SOL    HW1 3200  13.536   9.956  14.661
67101SOL    HW2 3201  13.489   9.909  14.525
67102SOL     OW 3202   2.110   9.414   4.438
67102SOL    HW1 3203   2.109   9.318   4.441
67102SOL    HW2 3204   2.054   9.436   4.363
67103SOL     OW 3205   2.725   5.738  13.771
67103SOL    HW1 3206   2.804   5.705  13.729
67103SOL    HW2 3207   2.687   5.798  13.708
67104SOL     OW 3208  14.539   3.060   4.344
67104SOL    HW1 3209  14.586   3.142   4.360
67104SOL    HW2 3210  14.584   2.995   4.397
67105SOL     OW 3211   6.231  10.166  10.073
67105SOL    HW1 3212   6.202  10.180   9.983
67105SOL    HW2 3213   6.314  10.214  10.079
67106SOL     OW 3214   8.251   4.831   2.681
67106SOL    HW1 3215   8.287   4.913   2.715
67106SOL    HW2 3216   8.249   4.843   2.586
67107SOL     OW 3217  14.025   1.177   2.095
67107SOL    HW1 3218  14.063   1.244   2.153
67107SOL    HW2 3219  13.968   1.125   2.152
67108SOL     OW 3220   5.491   5.614   5.906
67108SOL    HW1 3221   5.520   5.600   5.816
67108SOL    HW2 3222   5.498   5.709   5.919
67109SOL     OW 3223  12.820  13.452   2.565
67109SOL    HW1 3224  12.856  13.364   2.556
67109SOL    HW2 3225  12.758  13.461   2.493
67110SOL     OW 3226   3.716   0.152   8.197
67110SOL    HW1 3227   3.649   0.084   8.196
67110SOL    HW2 3228   3.755   0.149   8.110
67111SOL     OW 3229  13.901  13.044  11.604
67111SOL    HW1 3230  13.991  13.013  11.595
67111SOL    HW2 3231  13.909  13.133  11.638
67112SOL     OW 3232  14.642   1.511   6.556
67112SOL    HW1 3233  14.711   1.553   6.506
67112SOL    HW2 3234  14.591   1.584   6.593
67113SOL     OW 3235   2.177   3.468   6.369
67113SOL    HW1 3236   2.228   3.401   6.324
67113SOL    HW2 3237   2.221   3.550   6.347
67114SOL     OW 3238  14.127   3.873   9.227
67114SOL    HW1 3239  14.125   3.796   9.170
67114SOL    HW2 3240  14.154   3.944   9.170
67115SOL     OW 3241   1.523   9.946   3.958
67115SOL    HW1 3242   1.525   9.980   4.047
67115SOL    HW2 3243   1.615   9.931   3.936
67116SOL     OW 3244   7.672  12.952  11.833
67116SOL    HW1 3245   7.615  13.026  11.813
67116SOL    HW2 3246   7.614  12.875  11.827
67117SOL     OW 3247   7.790  11.305  12.116
67117SOL    HW1 3248   7.743  11.309  12.199
67117SOL    HW2 3249   7.835  11.221  12.117
67118SOL     OW 3250  14.154   1.600   4.772
67118SOL    HW1 3251  14.140   1.550   4.692
67118SOL    HW2 3252  14.069   1.597   4.817
67119SOL     OW 3253   1.060   6.824  13.061
67119SOL    HW1 3254   1.044   6.915  13.037
67119SOL    HW2 3255   1.001   6.808  13.135
67120SOL     OW 3256   9.383   0.191   5.141
67120SOL    HW1 3257   9.423   0.216   5.224
67120SOL    HW2 3258   9.289   0.182   5.161
67121SOL     OW 3259   0.887   3.807   6.822
67121SOL    HW1 3260   0.973   3.776   6.793
67121SOL    HW2 3261   0.903   3.845   6.908
67122SOL     OW 3262   2.339   2.204  14.825
67122SOL    HW1 3263   2.400   2.218   0.009
67122SOL    HW2 3264   2.312   2.292  14.799
67123SOL     OW 3265  12.068  14.412  12.081
67123SOL    HW1 3266  12.022  14.383  12.159
67123SOL    HW2 3267  12.030  14.360  12.010
67124SOL     OW 3268   5.382   8.933   6.694
67124SOL    HW1 3269   5.454   8.939   6.757
67124SOL    HW2 3270   5.405   8.996   6.626
67125SOL     OW 3271  10.194   1.293   9.675
67125SOL    HW1 3272  10.203   1.335   9.590
67125SOL    HW2 3273  10.128   1.225   9.661
67126SOL     OW 3274   6.145   0.434   6.509
67126SOL    HW1 3275   6.085   0.393   6.572
67126SOL    HW2 3276   6.164   0.365   6.446
67127SOL     OW 3277   9.075   7.723  13.472
67127SOL    HW1 3278   9.100   7.719  13.564
67127SOL    HW2 3279   9.047   7.814  13.458
67128SOL     OW 3280   9.882   7.301   5.464
67128SOL    HW1 3281   9.922   7.333   5.545
67128SOL    HW2 3282   9.909   7.365   5.398
67129SOL     OW 3283  13.183   6.548  12.252
67129SOL    HW1 3284  13.136   6.594  12.321
67129SOL    HW2 3285  13.247   6.494  12.298
67130SOL     OW 3286  10.738   5.004   1.604
67130SOL    HW1 3287  10.794   4.983   1.529
67130SOL    HW2 3288  10.690   5.083   1.577
67131SOL     OW 3289  10.621   0.396  14.702
67131SOL    HW1 3290  10.717   0.398  14.706
67131SOL    HW2 3291  10.602   0.398  14.608
67132SOL     OW 3292  11.299  13.875   5.069
67132SOL    HW1 3293  11.224  13.932   5.085
67132SOL    HW2 3294  11.260  13.788   5.054
67133SOL     OW 3295  14.804   5.457   3.044
67133SOL    HW1 3296  14.841   5.497   2.966
67133SOL    HW2 3297  14.781   5.368   3.017
67134SOL     OW 3298   7.498   0.729   3.770
67134SOL    HW1 3299   7.503   0.680   3.688
67134SOL    HW2 3300   7.585   0.765   3.783
67135SOL     OW 3301   4.236   7.363   6.689
67135SOL    HW1 3302   4.210   7.432   6.628
67135SOL    HW2 3303   4.324   7.387   6.716
67136SOL     OW 3304   9.070  11.296   5.439
67136SOL    HW1 3305   9.045  11.214   5.482
67136SOL    HW2 3306   9.127  11.340   5.502
67137SOL     OW 3307   9.220  10.587  14.366
67137SOL    HW1 3308   9.259  10.609  14.451
67137SOL    HW2 3309   9.254  10.500  14.346
67138SOL     OW 3310  10.000   5.532   2.008
67138SOL    HW1 3311  10.021   5.462   2.070
67138SOL    HW2 3312   9.986   5.609   2.063
67139SOL     OW 3313   2.459  10.159   6.039
67139SOL    HW1 3314   2.505  10.218   6.098
67139SOL    HW2 3315   2.460  10.203   5.954
67140SOL     OW 3316  11.003   1.777   8.590
67140SOL    HW1 3317  10.935   1.734   8.642
67140SOL    HW2 3318  10.960   1.853   8.551
67141SOL     OW 3319   9.310   9.022   3.638
67141SOL    HW1 3320   9.341   9.103   3.597
67141SOL    HW2 3321   9.369   8.954   3.604
67142SOL     OW 3322   6.696   0.653  12.058
67142SOL    HW1 3323   6.631   0.711  12.018
67142SOL    HW2 3324   6.748   0.622  11.984
67143SOL     OW 3325   6.019  11.611  10.993
67143SOL    HW1 3326   6.077  11.620  10.918
67143SOL    HW2 3327   6.011  11.700  11.027
67144SOL     OW 3328  14.205   9.159  10.034
67144SOL    HW1 3329  14.248   9.213  10.100
67144SOL    HW2 3330  14.239   9.071  10.049
67145SOL     OW 3331   9.880  11.237  10.238
67145SOL    HW1 3332   9.868  11.232  10.143
67145SOL    HW2 3333   9.973  11.223  10.252
67146SOL     OW 3334  10.654   5.286   4.247
67146SOL    HW1 3335  10.723   5.348   4.271
67146SOL    HW2 3336  10.606   5.330   4.177
67147SOL     OW 3337   9.488   3.777   4.293
67147SOL    HW1 3338   9.487   3.842   4.364
67147SOL    HW2 3339   9.581   3.769   4.270
67148SOL     OW 3340  10.872  13.683   9.483
67148SOL    HW1 3341  10.933  13.617   9.452
67148SOL    HW2 3342  10.827  13.713   9.404
67149SOL     OW 3343   0.767   2.934  11.889
67149SOL    HW1 3344   0.750   3.026  11.870
67149SOL    HW2 3345   0.776   2.893  11.803
67150SOL     OW 3346   5.363  13.033   1.026
67150SOL    HW1 3347   5.350  12.945   1.062
67150SOL    HW2 3348   5.340  13.024   0.934
67151SOL     OW 3349   8.005   5.923  14.415
67151SOL    HW1 3350   8.092   5.917  14.453
67151SOL    HW2 3351   8.015   5.984  14.341
67152SOL     OW 3352   6.521   9.982   7.213
67152SOL    HW1 3353   6.602   9.937   7.188
67152SOL    HW2 3354   6.542  10.024   7.296
67153SOL     OW 3355   0.273   1.659   2.693
67153SOL    HW1 3356   0.212   1.594   2.728
67153SOL    HW2 3357   0.341   1.607   2.650
67154SOL     OW 3358  12.245   7.611   1.554
67154SOL    HW1 3359  12.231   7.523   1.519
67154SOL    HW2 3360  12.178   7.664   1.511
67155SOL     OW 3361  11.712   4.925  10.681
67155SOL    HW1 3362  11.787   4.918  10.741
67155SOL    HW2 3363  11.707   5.018  10.659
67156SOL     OW 3364  11.941  13.784  10.217
67156SOL    HW1 3365  11.931  13.798  10.311
67156SOL    HW2 3366  11.956  13.690  10.208
67157SOL     OW 3367   6.955   3.054  14.872
67157SOL    HW1 3368   6.998   3.138  14.854
67157SOL    HW2 3369   6.984   3.030   0.073
67158SOL     OW 3370   4.285   4.910  14.191
67158SOL    HW1 3371   4.227   4.923  14.116
67158SOL    HW2 3372   4.264   4.982  14.250
67159SOL     OW 3373   2.461   9.478   7.477
67159SOL    HW1 3374   2.471   9.441   7.390
67159SOL    HW2 3375   2.539   9.532   7.489
67160SOL     OW 3376   8.506   0.556  11.295
67160SOL    HW1 3377   8.562   0.596  11.361
67160SOL    HW2 3378   8.490   0.625  11.231
67161SOL     OW 3379  10.512   5.748   0.756
67161SOL    HW1 3380  10.536   5.790   0.673
67161SOL    HW2 3381  10.469   5.817   0.806
67162SOL     OW 3382   9.695  11.193  10.454
67162SOL    HW1 3383   9.751  11.215  10.380
67162SOL    HW2 3384   9.754  11.188  10.529
67163SOL     OW 3385   4.824   8.471  12.282
67163SOL    HW1 3386   4.857   8.554  12.316
67163SOL    HW2 3387   4.885   8.447  12.213
67164SOL     OW 3388   7.555  12.106  12.053
67164SOL    HW1 3389   7.481  12.058  12.016
67164SOL    HW2 3390   7.525  12.197  12.057
67165SOL     OW 3391   8.494   4.035   7.322
67165SOL    HW1 3392   8.454   4.094   7.385
67165SOL    HW2 3393   8.476   3.948   7.356
67166SOL     OW 3394   6.591   9.242   5.336
67166SOL    HW1 3395   6.627   9.215   5.252
67166SOL    HW2 3396   6.661   9.292   5.377
67167SOL     OW 3397   5.637  12.561  11.664
67167SOL    HW1 3398   5.611  12.572  11.756
67167SOL    HW2 3399   5.675  12.645  11.640
67168SOL     OW 3400  11.331   5.697   2.711
67168SOL    HW1 3401  11.314   5.782   2.751
67168SOL    HW2 3402  11.351   5.639   2.784
67169SOL     OW 3403   2.738  11.305  10.710
67169SOL    HW1 3404   2.735  11.382  10.652
67169SOL    HW2 3405   2.824  11.266  10.693
67170SOL     OW 3406   9.768  12.776   4.110
67170SOL    HW1 3407   9.724  12.854   4.145
67170SOL    HW2 3408   9.697  12.723   4.073
67171SOL     OW 3409   3.291  12.211  13.010
67171SOL    HW1 3410   3.231  12.262  12.955
67171SOL    HW2 3411   3.288  12.123  12.973
67172SOL     OW 3412   3.187  12.486   5.589
67172SOL    HW1 3413   3.128  12.561   5.580
67172SOL    HW2 3414   3.178  12.460   5.681
67173SOL     OW 3415   3.051   5.032   6.698
67173SOL    HW1 3416   3.107   5.097   6.740
67173SOL    HW2 3417   3.023   4.975   6.770
67174SOL     OW 3418  11.005   1.368   3.446
67174SOL    HW1 3419  10.927   1.383   3.393
67174SOL    HW2 3420  10.972   1.322   3.524
67175SOL     OW 3421  14.285   9.096  11.248
67175SOL    HW1 3422  14.246   9.156  11.312
67175SOL    HW2 3423  14.236   9.112  11.168
67176SOL     OW 3424   1.559  12.840   5.405
67176SOL    HW1 3425   1.522  12.793   5.479
67176SOL    HW2 3426   1.485  12.885   5.365
67177SOL     OW 3427   5.010   8.978   3.258
67177SOL    HW1 3428   4.981   8.909   3.318
67177SOL    HW2 3429   5.084   8.940   3.212
67178SOL     OW 3430   9.772  11.920  13.686
67178SOL    HW1 3431   9.795  11.829  13.706
67178SOL    HW2 3432   9.786  11.967  13.768
67179SOL     OW 3433  13.752  12.212   5.606
67179SOL    HW1 3434  13.683  12.152   5.577
67179SOL    HW2 3435  13.831  12.159   5.612
67180SOL     OW 3436   7.162   7.710   1.275
67180SOL    HW1 3437   7.089   7.681   1.328
67180SOL    HW2 3438   7.155   7.806   1.275
67181SOL     OW 3439   1.119   7.998   7.523
67181SOL    HW1 3440   1.116   8.080   7.573
67181SOL    HW2 3441   1.030   7.986   7.491
67182SOL     OW 3442   8.668   0.161  13.532
67182SOL    HW1 3443   8.692   0.253  13.521
67182SOL    HW2 3444   8.663   0.126  13.443
67183SOL     OW 3445   5.829   3.804   9.608
67183SOL    HW1 3446   5.860   3.741   9.542
67183SOL    HW2 3447   5.778   3.751   9.669
67184SOL     OW 3448   6.070   1.754   5.817
67184SOL    HW1 3449   6.109   1.671   5.844
67184SOL    HW2 3450   6.099   1.817   5.882
67185SOL     OW 3451   4.399  13.174  13.669
67185SOL    HW1 3452   4.436  13.218  13.592
67185SOL    HW2 3453   4.371  13.089  13.636
67186SOL     OW 3454  14.405   4.241   5.864
67186SOL    HW1 3455  14.427   4.149   5.880
67186SOL    HW2 3456  14.374   4.274   5.949
67187SOL     OW 3457   9.023   2.600   2.892
67187SOL    HW1 3458   9.117   2.605   2.873
67187SOL    HW2 3459   9.009   2.510   2.921
67188SOL     OW 3460   6.002  12.433   5.051
67188SOL    HW1 3461   5.910  12.406   5.042
67188SOL    HW2 3462   6.049  12.379   4.988
67189SOL     OW 3463  11.008   1.654  12.252
67189SOL    HW1 3464  10.953   1.709  12.308
67189SOL    HW2 3465  11.080   1.627  12.309
67190SOL     OW 3466   3.997   7.586   1.873
67190SOL    HW1 3467   4.045   7.510   1.839
67190SOL    HW2 3468   3.911   7.580   1.833
67191SOL     OW 3469   7.378   6.070   9.083
67191SOL    HW1 3470   7.397   6.013   9.008
67191SOL    HW2 3471   7.325   6.016   9.142
67192SOL     OW 3472   3.677   3.069   6.023
67192SOL    HW1 3473   3.705   3.032   6.107
67192SOL    HW2 3474   3.616   3.005   5.988
67193SOL     OW 3475  14.763   7.461   7.404
67193SOL    HW1 3476  14.751   7.466   7.499
67193SOL    HW2 3477  14.847   7.418   7.392
67194SOL     OW 3478   2.945   3.917   9.491
67194SOL    HW1 3479   2.933   3.886   9.581
67194SOL    HW2 3480   2.867   3.887   9.445
67195SOL     OW 3481  12.230   7.395   0.134
67195SOL    HW1 3482  12.313   7.350   0.149
67195SOL    HW2 3483  12.214   7.385   0.040
67196SOL     OW 3484  10.156   5.546   7.892
67196SOL    HW1 3485  10.217   5.489   7.845
67196SOL    HW2 3486  10.209   5.622   7.917
67197SOL     OW 3487   8.055   5.481   7.252
67197SOL    HW1 3488   8.105   5.534   7.313
67197SOL    HW2 3489   8.040   5.539   7.177
67198SOL     OW 3490  12.556   7.901   8.968
67198SOL    HW1 3491  12.600   7.882   9.050
67198SOL    HW2 3492  12.463   7.889   8.987
67199SOL     OW 3493   0.104   7.293  12.296
67199SOL    HW1 3494   0.031   7.355  12.292
67199SOL    HW2 3495   0.068   7.211  12.261
67200SOL     OW 3496  10.783   0.237   1.275
67200SOL    HW1 3497  10.791   0.306   1.341
67200SOL    HW2 3498  10.688   0.220   1.271
67201SOL     OW 3499   6.481  10.693  12.184
67201SOL    HW1 3500   6.520  10.640  12.114
67201SOL    HW2 3501   6.436  10.630  12.240
67202SOL     OW 3502   6.825   0.593  11.793
67202SOL    HW1 3503   6.788   0.638  11.717
67202SOL    HW2 3504   6.918   0.582  11.771
67203SOL     OW 3505   7.011   7.701   6.070
67203SOL    HW1 3506   6.985   7.700   6.162
67203SOL    HW2 3507   6.932   7.676   6.022
67204SOL     OW 3508   9.652   5.520   4.789
67204SOL    HW1 3509   9.668   5.557   4.876
67204SOL    HW2 3510   9.724   5.457   4.777
67205SOL     OW 3511   0.278   2.982   9.409
67205SOL    HW1 3512   0.282   2.912   9.474
67205SOL    HW2 3513   0.355   2.967   9.354
67206SOL     OW 3514   0.322  11.404  13.287
67206SOL    HW1 3515   0.238  11.385  13.329
67206SOL    HW2 3516   0.344  11.492  13.315
67207SOL     OW 3517   2.953   9.562   7.953
67207SOL    HW1 3518   2.968   9.575   7.860
67207SOL    HW2 3519   3.041   9.568   7.992
67208SOL     OW 3520  12.379  13.779   0.925
67208SOL    HW1 3521  12.305  13.837   0.940
67208SOL    HW2 3522  12.421  13.770   1.010
67209SOL     OW 3523  11.927   4.174   4.695
67209SOL    HW1 3524  11.845   4.209   4.661
67209SOL    HW2 3525  11.944   4.096   4.641
67210SOL     OW 3526   7.753  13.820  11.351
67210SOL    HW1 3527   7.807  13.877  11.295
67210SOL    HW2 3528   7.814  13.753  11.382
67211SOL     OW 3529  10.770   5.306   9.301
67211SOL    HW1 3530  10.690   5.303   9.354
67211SOL    HW2 3531  10.756   5.379   9.241
67212SOL     OW 3532   5.830   6.219   3.682
67212SOL    HW1 3533   5.899   6.268   3.637
67212SOL    HW2 3534   5.800   6.279   3.750
67213SOL     OW 3535   4.355   0.207   0.407
67213SOL    HW1 3536   4.385   0.291   0.443
67213SOL    HW2 3537   4.310   0.164   0.479
67214SOL     OW 3538   1.725   0.729  12.398
67214SOL    HW1 3539   1.634   0.744  12.372
67214SOL    HW2 3540   1.760   0.816  12.414
67215SOL     OW 3541   9.366   4.578  13.698
67215SOL    HW1 3542   9.379   4.540  13.611
67215SOL    HW2 3543   9.377   4.672  13.685
67216SOL     OW 3544   5.601   4.894   8.875
67216SOL    HW1 3545   5.598   4.982   8.838
67216SOL    HW2 3546   5.685   4.859   8.846
67217SOL     OW 3547   9.743   8.202   3.805
67217SOL    HW1 3548   9.693   8.251   3.871
67217SOL    HW2 3549   9.728   8.110   3.827
67218SOL     OW 3550  13.500   8.983   4.252
67218SOL    HW1 3551  13.420   8.949   4.292
67218SOL    HW2 3552  13.511   9.070   4.289
67219SOL     OW 3553  14.698  13.692   2.035
67219SOL    HW1 3554  14.777  13.709   1.983
67219SOL    HW2 3555  14.724  13.710   2.126
67220SOL     OW 3556   2.038  11.138  11.766
67220SOL    HW1 3557   2.000  11.064  11.719
67220SOL    HW2 3558   2.068  11.198  11.697
67221SOL     OW 3559   0.236  13.521  13.199
67221SOL    HW1 3560   0.284  13.545  13.120
67221SOL    HW2 3561   0.172  13.591  13.210
67222SOL     OW 3562   5.343   0.277  12.851
67222SOL    HW1 3563   5.434   0.250  12.837
67222SOL    HW2 3564   5.311   0.218  12.919
67223SOL     OW 3565  11.831   8.347  12.737
67223SOL    HW1 3566  11.745   8.323  12.771
67223SOL    HW2 3567  11.892   8.326  12.808
67224SOL     OW 3568  10.830  10.018  13.138
67224SOL    HW1 3569  10.859  10.032  13.048
67224SOL    HW2 3570  10.734  10.011  13.131
67225SOL     OW 3571  14.118  13.242  13.648
67225SOL    HW1 3572  14.204  13.275  13.675
67225SOL    HW2 3573  14.057  13.284  13.708
67226SOL     OW 3574  14.460   6.379   6.504
67226SOL    HW1 3575  14.386   6.438   6.518
67226SOL    HW2 3576  14.504   6.375   6.588
67227SOL     OW 3577   8.765  10.605   0.068
67227SOL    HW1 3578   8.858  10.613   0.090
67227SOL    HW2 3579   8.764  10.568  14.868
67228SOL     OW 3580  11.404  13.273   7.549
67228SOL    HW1 3581  11.424  13.348   7.605
67228SOL    HW2 3582  11.476  13.270   7.486
67229SOL     OW 3583   1.947   2.096   1.119
67229SOL    HW1 3584   1.981   2.044   1.046
67229SOL    HW2 3585   1.969   2.186   1.096
67230SOL     OW 3586   1.629   4.631  14.122
67230SOL    HW1 3587   1.562   4.669  14.179
67230SOL    HW2 3588   1.632   4.538  14.147
67231SOL     OW 3589   0.858  11.930   3.888
67231SOL    HW1 3590   0.895  11.843   3.873
67231SOL    HW2 3591   0.799  11.944   3.814
67232SOL     OW 3592   8.268   5.044  13.798
67232SOL    HW1 3593   8.347   4.993  13.782
67232SOL    HW2 3594   8.198   4.993  13.757
67233SOL     OW 3595   5.243   5.920  10.668
67233SOL    HW1 3596   5.252   6.015  10.667
67233SOL    HW2 3597   5.323   5.888  10.626
67234SOL     OW 3598   6.282  13.409   8.680
67234SOL    HW1 3599   6.256  13.495   8.715
67234SOL    HW2 3600   6.367  13.392   8.720
67235SOL     OW 3601   6.256   4.471  10.408
67235SOL    HW1 3602   6.268   4.404  10.341
67235SOL    HW2 3603   6.297   4.549  10.371
67236SOL     OW 3604  11.115  12.934   8.644
67236SOL    HW1 3605  11.128  12.841   8.626
67236SOL    HW2 3606  11.202  12.973   8.634
67237SOL     OW 3607   2.982  10.253   4.119
67237SOL    HW1 3608   3.027  10.190   4.175
67237SOL    HW2 3609   3.004  10.226   4.030
67238SOL     OW 3610   1.929  12.458   5.377
67238SOL    HW1 3611   1.842  12.467   5.416
67238SOL    HW2 3612   1.989  12.494   5.443
67239SOL     OW 3613   6.401   6.184  10.240
67239SOL    HW1 3614   6.387   6.204  10.333
67239SOL    HW2 3615   6.378   6.265  10.195
67240SOL     OW 3616  12.327   8.126   0.897
67240SOL    HW1 3617  12.252   8.134   0.839
67240SOL    HW2 3618  12.325   8.206   0.950
67241SOL     OW 3619  10.705   3.821  14.077
67241SOL    HW1 3620  10.747   3.906  14.089
67241SOL    HW2 3621  10.704   3.807  13.983
67242SOL     OW 3622   9.069   0.550  14.646
67242SOL    HW1 3623   8.977   0.547  14.672
67242SOL    HW2 3624   9.117   0.561  14.729
67243SOL     OW 3625   1.828   2.955   2.586
67243SOL    HW1 3626   1.858   2.867   2.565
67243SOL    HW2 3627   1.900   2.995   2.635
67244SOL     OW 3628  11.166   9.932  13.030
67244SOL    HW1 3629  11.214   9.909  13.109
67244SOL    HW2 3630  11.083   9.884  13.037
67245SOL     OW 3631   6.041   3.598   2.122
67245SOL    HW1 3632   6.119   3.557   2.083
67245SOL    HW2 3633   5.985   3.617   2.047
67246SOL     OW 3634  12.046   0.209   1.301
67246SOL    HW1 3635  11.964   0.168   1.272
67246SOL    HW2 3636  12.057   0.285   1.244
67247SOL     OW 3637  11.085   6.161   2.634
67247SOL    HW1 3638  11.045   6.075   2.641
67247SOL    HW2 3639  11.011   6.222   2.632
67248SOL     OW 3640   7.641   0.198  13.046
67248SOL    HW1 3641   7.678   0.111  13.028
67248SOL    HW2 3642   7.574   0.182  13.113
67249SOL     OW 3643   4.824  12.680   9.490
67249SOL    HW1 3644   4.835  12.737   9.566
67249SOL    HW2 3645   4.748  12.716   9.443
67250SOL     OW 3646  13.896   3.890  14.527
67250SOL    HW1 3647  13.826   3.831  14.555
67250SOL    HW2 3648  13.944   3.910  14.607
67251SOL     OW 3649  13.142   8.017   0.115
67251SOL    HW1 3650  13.139   7.934   0.161
67251SOL    HW2 3651  13.132   7.994   0.022
67252SOL     OW 3652  10.240  10.245   9.548
67252SOL    HW1 3653  10.313  10.301   9.576
67252SOL    HW2 3654  10.182  10.242   9.624
67253SOL     OW 3655   7.593   4.278  12.073
67253SOL    HW1 3656   7.602   4.226  11.994
67253SOL    HW2 3657   7.506   4.256  12.106
67254SOL     OW 3658  14.054  13.222   3.592
67254SOL    HW1 3659  14.115  13.249   3.524
67254SOL    HW2 3660  14.019  13.138   3.561
67255SOL     OW 3661   2.663   9.991   4.384
67255SOL    HW1 3662   2.726   9.987   4.312
67255SOL    HW2 3663   2.649   9.900   4.408
67256SOL     OW 3664  11.467  13.363   0.856
67256SOL    HW1 3665  11.535  13.336   0.917
67256SOL    HW2 3666  11.458  13.289   0.795
67257SOL     OW 3667   8.766   5.998   5.733
67257SOL    HW1 3668   8.727   6.062   5.674
67257SOL    HW2 3669   8.692   5.964   5.784
67258SOL     OW 3670   9.875   4.852   7.663
67258SOL    HW1 3671   9.938   4.923   7.651
67258SOL    HW2 3672   9.929   4.772   7.662
67259SOL     OW 3673   6.405  14.528   9.134
67259SOL    HW1 3674   6.358  14.445   9.138
67259SOL    HW2 3675   6.408  14.559   9.225
67260SOL     OW 3676   3.428   1.805   5.105
67260SOL    HW1 3677   3.336   1.796   5.128
67260SOL    HW2 3678   3.460   1.715   5.100
67261SOL     OW 3679   7.920  10.478   7.912
67261SOL    HW1 3680   7.922  10.565   7.952
67261SOL    HW2 3681   7.983  10.484   7.839
67262SOL     OW 3682   2.111   9.033   8.006
67262SOL    HW1 3683   2.177   8.963   8.014
67262SOL    HW2 3684   2.027   8.987   8.011
67263SOL     OW 3685  11.088   1.164   4.648
67263SOL    HW1 3686  11.108   1.184   4.556
67263SOL    HW2 3687  11.077   1.250   4.689
67264SOL     OW 3688  10.940  11.277   9.267
67264SOL    HW1 3689  10.930  11.334   9.343
67264SOL    HW2 3690  11.021  11.228   9.285
67265SOL     OW 3691  14.341   8.669   1.282
67265SOL    HW1 3692  14.422   8.667   1.333
67265SOL    HW2 3693  14.286   8.601   1.321
67266SOL     OW 3694  10.130  10.630   9.617
67266SOL    HW1 3695  10.088  10.587   9.543
67266SOL    HW2 3696  10.224  10.622   9.599
67267SOL     OW 3697   6.349  11.073  11.897
67267SOL    HW1 3698   6.263  11.068  11.855
67267SOL    HW2 3699   6.331  11.108  11.984
67268SOL     OW 3700   2.625  11.988   7.630
67268SOL    HW1 3701   2.688  12.058   7.645
67268SOL    HW2 3702   2.642  11.958   7.541
67269SOL     OW 3703  14.093   3.525   5.047
67269SOL    HW1 3704  14.173   3.575   5.065
67269SOL    HW2 3705  14.105   3.494   4.957
67270SOL     OW 3706   9.975   9.304   3.492
67270SOL    HW1 3707   9.960   9.211   3.509
67270SOL    HW2 3708  10.054   9.306   3.438
67271SOL     OW 3709   7.509  10.893  13.548
67271SOL    HW1 3710   7.475  10.981  13.566
67271SOL    HW2 3711   7.495  10.845  13.630
67272SOL     OW 3712   4.477   4.007   5.642
67272SOL    HW1 3713   4.552   3.967   5.598
67272SOL    HW2 3714   4.506   4.022   5.732
67273SOL     OW 3715   0.986  12.486  10.080
67273SOL    HW1 3716   0.937  12.546  10.024
67273SOL    HW2 3717   1.074  12.523  10.085
67274SOL     OW 3718   8.417   9.217  10.628
67274SOL    HW1 3719   8.503   9.246  10.596
67274SOL    HW2 3720   8.436   9.176  10.712
67275SOL     OW 3721   7.753   4.565  12.841
67275SOL    HW1 3722   7.845   4.560  12.864
67275SOL    HW2 3723   7.711   4.608  12.916
67276SOL     OW 3724   0.829   8.484   8.404
67276SOL    HW1 3725   0.790   8.498   8.490
67276SOL    HW2 3726   0.923   8.478   8.421
67277SOL     OW 3727  14.385   8.648  10.178
67277SOL    HW1 3728  14.379   8.589  10.253
67277SOL    HW2 3729  14.359   8.594  10.103
67278SOL     OW 3730   4.845   9.111  13.648
67278SOL    HW1 3731   4.786   9.080  13.578
67278SOL    HW2 3732   4.907   9.039  13.660
67279SOL     OW 3733   1.546   2.567   0.346
67279SOL    HW1 3734   1.464   2.566   0.396
67279SOL    HW2 3735   1.591   2.487   0.373
67280SOL     OW 3736   7.493  12.351   6.925
67280SOL    HW1 3737   7.507  12.352   6.830
67280SOL    HW2 3738   7.519  12.263   6.952
67281SOL     OW 3739  12.458   5.970   6.062
67281SOL    HW1 3740  12.422   6.004   6.144
67281SOL    HW2 3741  12.508   6.043   6.026
67282SOL     OW 3742   5.086   8.961   3.606
67282SOL    HW1 3743   5.177   8.933   3.602
67282SOL    HW2 3744   5.064   8.958   3.699
67283SOL     OW 3745   6.188  12.384   6.935
67283SOL    HW1 3746   6.255  12.408   7.000
67283SOL    HW2 3747   6.183  12.461   6.878
67284SOL     OW 3748   4.243  10.810   0.913
67284SOL    HW1 3749   4.226  10.828   1.006
67284SOL    HW2 3750   4.255  10.896   0.873
67285SOL     OW 3751   8.807   6.375   4.158
67285SOL    HW1 3752   8.873   6.315   4.124
67285SOL    HW2 3753   8.836   6.394   4.248
67286SOL     OW 3754  13.575  11.131   3.329
67286SOL    HW1 3755  13.622  11.195   3.276
67286SOL    HW2 3756  13.484  11.141   3.303
67287SOL     OW 3757   4.311   9.514   2.127
67287SOL    HW1 3758   4.339   9.434   2.172
67287SOL    HW2 3759   4.314   9.490   2.034
67288SOL     OW 3760   6.670   0.935  12.747
67288SOL    HW1 3761   6.718   0.855  12.725
67288SOL    HW2 3762   6.737   0.995  12.780
67289SOL     OW 3763  11.524   7.240   9.229
67289SOL    HW1 3764  11.520   7.169   9.165
67289SOL    HW2 3765  11.492   7.317   9.181
67290SOL     OW 3766   8.236  11.168   6.295
67290SOL    HW1 3767   8.310  11.228   6.294
67290SOL    HW2 3768   8.197  11.176   6.208
67291SOL     OW 3769  13.444   6.107   2.564
67291SOL    HW1 3770  13.359   6.062   2.573
67291SOL    HW2 3771  13.420   6.199   2.554
67292SOL     OW 3772  13.670  11.804   4.540
67292SOL    HW1 3773  13.627  11.720   4.528
67292SOL    HW2 3774  13.667  11.846   4.454
67293SOL     OW 3775  10.380   4.334   0.734
67293SOL    HW1 3776  10.409   4.395   0.667
67293SOL    HW2 3777  10.308   4.378   0.778
67294SOL     OW 3778   3.725   1.787  11.621
67294SOL    HW1 3779   3.654   1.823  11.674
67294SOL    HW2 3780   3.681   1.744  11.548
67295SOL     OW 3781   1.615   2.326   0.466
67295SOL    HW1 3782   1.569   2.245   0.446
67295SOL    HW2 3783   1.705   2.309   0.439
67296SOL     OW 3784  13.613  13.543   9.631
67296SOL    HW1 3785  13.688  13.579   9.678
67296SOL    HW2 3786  13.637  13.451   9.614
67297SOL     OW 3787   2.138  13.678   9.314
67297SOL    HW1 3788   2.215  13.735   9.305
67297SOL    HW2 3789   2.132  13.661   9.408
67298SOL     OW 3790  14.326   9.593  11.390
67298SOL    HW1 3791  14.372   9.632  11.465
67298SOL    HW2 3792  14.390   9.536  11.349
67299SOL     OW 3793   2.202  10.903   3.829
67299SOL    HW1 3794   2.225  10.936   3.742
67299SOL    HW2 3795   2.267  10.942   3.887
67300SOL     OW 3796   4.360   1.591   8.245
67300SOL    HW1 3797   4.315   1.601   8.329
67300SOL    HW2 3798   4.408   1.509   8.253
67301SOL     OW 3799   4.924   5.525   2.679
67301SOL    HW1 3800   4.861   5.464   2.640
67301SOL    HW2 3801   4.966   5.475   2.749
67302SOL     OW 3802   6.056   0.512  13.074
67302SOL    HW1 3803   6.024   0.435  13.122
67302SOL    HW2 3804   6.077   0.479  12.987
67303SOL     OW 3805   7.077   9.760   9.790
67303SOL    HW1 3806   7.090   9.853   9.804
67303SOL    HW2 3807   7.061   9.725   9.878
67304SOL     OW 3808   4.492   3.797  13.592
67304SOL    HW1 3809   4.408   3.752  13.603
67304SOL    HW2 3810   4.558   3.731  13.611
67305SOL     OW 3811   9.905  14.872   7.484
67305SOL    HW1 3812   9.886   0.078   7.478
67305SOL    HW2 3813   9.822  14.828   7.464
67306SOL     OW 3814   9.074  12.197  11.581
67306SOL    HW1 3815   9.096  12.141  11.656
67306SOL    HW2 3816   9.061  12.136  11.508
67307SOL     OW 3817   6.407   4.535   1.006
67307SOL    HW1 3818   6.367   4.458   0.966
67307SOL    HW2 3819   6.415   4.599   0.935
67308SOL     OW 3820  12.631   2.479  11.662
67308SOL    HW1 3821  12.631   2.383  11.661
67308SOL    HW2 3822  12.541   2.503  11.683
67309SOL     OW 3823   9.738  10.731   5.981
67309SOL    HW1 3824   9.654  10.686   5.992
67309SOL    HW2 3825   9.779  10.689   5.906
67310SOL     OW 3826   9.819   4.309   3.158
67310SOL    HW1 3827   9.831   4.337   3.067
67310SOL    HW2 3828   9.803   4.214   3.152
67311SOL     OW 3829  13.800  13.062   9.773
67311SOL    HW1 3830  13.741  13.011   9.829
67311SOL    HW2 3831  13.816  13.006   9.698
67312SOL     OW 3832   6.809  14.075  12.212
67312SOL    HW1 3833   6.816  14.135  12.287
67312SOL    HW2 3834   6.720  14.041  12.217
67313SOL     OW 3835   5.149  13.133   2.292
67313SOL    HW1 3836   5.141  13.200   2.225
67313SOL    HW2 3837   5.127  13.178   2.374
67314SOL     OW 3838   9.770   3.452  13.574
67314SOL    HW1 3839   9.675   3.446  13.563
67314SOL    HW2 3840   9.782   3.459  13.669
67315SOL     OW 3841  12.009  13.055  11.817
67315SOL    HW1 3842  11.969  13.125  11.869
67315SOL    HW2 3843  12.101  13.055  11.844
67316SOL     OW 3844   8.248  13.134  12.256
67316SOL    HW1 3845   8.190  13.065  12.224
67316SOL    HW2 3846   8.280  13.102  12.341
67317SOL     OW 3847   9.286   2.197  14.286
67317SOL    HW1 3848   9.211   2.252  14.309
67317SOL    HW2 3849   9.291   2.204  14.190
67318SOL     OW 3850   3.200   7.899   7.974
67318SOL    HW1 3851   3.127   7.852   7.933
67318SOL    HW2 3852   3.181   7.991   7.957
67319SOL     OW 3853  14.617  10.262   5.231
67319SOL    HW1 3854  14.552  10.259   5.302
67319SOL    HW2 3855  14.605  10.349   5.191
67320SOL     OW 3856   4.044   0.669   7.029
67320SOL    HW1 3857   4.126   0.649   6.985
67320SOL    HW2 3858   4.023   0.758   7.001
67321SOL     OW 3859   9.746   6.249  10.161
67321SOL    HW1 3860   9.812   6.190  10.199
67321SOL    HW2 3861   9.671   6.242  10.220
67322SOL     OW 3862  12.741   1.672   1.766
67322SOL    HW1 3863  12.759   1.672   1.861
67322SOL    HW2 3864  12.657   1.717   1.758
67323SOL     OW 3865   1.315   4.451  14.852
67323SOL    HW1 3866   1.332   4.531   0.014
67323SOL    HW2 3867   1.330   4.380   0.026
67324SOL     OW 3868   2.512   8.974   2.666
67324SOL    HW1 3869   2.544   9.007   2.582
67324SOL    HW2 3870   2.578   8.911   2.694
67325SOL     OW 3871   7.031   7.917   4.472
67325SOL    HW1 3872   7.119   7.930   4.437
67325SOL    HW2 3873   6.981   7.879   4.399
67326SOL     OW 3874   9.514  13.708  14.706
67326SOL    HW1 3875   9.481  13.708  14.796
67326SOL    HW2 3876   9.592  13.764  14.709
67327SOL     OW 3877   1.482  12.524   3.189
67327SOL    HW1 3878   1.452  12.466   3.260
67327SOL    HW2 3879   1.554  12.477   3.149
67328SOL     OW 3880   3.228  11.152   7.627
67328SOL    HW1 3881   3.269  11.183   7.546
67328SOL    HW2 3882   3.301  11.141   7.688
67329SOL     OW 3883  11.472   0.714   2.683
67329SOL    HW1 3884  11.464   0.658   2.606
67329SOL    HW2 3885  11.486   0.802   2.648
67330SOL     OW 3886   2.696  14.101  13.514
67330SOL    HW1 3887   2.719  14.035  13.449
67330SOL    HW2 3888   2.623  14.149  13.475
67331SOL     OW 3889   4.690   3.941   8.678
67331SOL    HW1 3890   4.728   3.931   8.590
67331SOL    HW2 3891   4.747   3.888   8.734
67332SOL     OW 3892   0.708  11.228   6.667
67332SOL    HW1 3893   0.619  11.253   6.691
67332SOL    HW2 3894   0.744  11.186   6.745
67333SOL     OW 3895   4.905  12.605   2.897
67333SOL    HW1 3896   4.963  12.675   2.869
67333SOL    HW2 3897   4.853  12.584   2.819
67334SOL     OW 3898   0.721  13.357   7.593
67334SOL    HW1 3899   0.724  13.336   7.500
67334SOL    HW2 3900   0.676  13.283   7.633
67335SOL     OW 3901   8.438   4.847  14.006
67335SOL    HW1 3902   8.409   4.933  14.037
67335SOL    HW2 3903   8.443   4.794  14.085
67336SOL     OW 3904   4.988   4.178  14.712
67336SOL    HW1 3905   5.067   4.134  14.745
67336SOL    HW2 3906   4.976   4.144  14.624
67337SOL     OW 3907   6.379   1.898   3.652
67337SOL    HW1 3908   6.305   1.872   3.597
67337SOL    HW2 3909   6.450   1.839   3.626
67338SOL     OW 3910   8.472  13.769   6.407
67338SOL    HW1 3911   8.546  13.751   6.350
67338SOL    HW2 3912   8.401  13.792   6.347
67339SOL     OW 3913   9.279   4.751  13.966
67339SOL    HW1 3914   9.359   4.712  14.001
67339SOL    HW2 3915   9.262   4.702  13.885
67340SOL     OW 3916  13.014  14.360   7.769
67340SOL    HW1 3917  13.012  14.358   7.865
67340SOL    HW2 3918  12.928  14.327   7.743
67341SOL     OW 3919   4.657  10.682   0.092
67341SOL    HW1 3920   4.697  10.619   0.152
67341SOL    HW2 3921   4.593  10.729   0.147
67342SOL     OW 3922   3.570  12.481   2.327
67342SOL    HW1 3923   3.587  12.565   2.284
67342SOL    HW2 3924   3.653  12.434   2.318
67343SOL     OW 3925   1.882   2.278  12.927
67343SOL    HW1 3926   1.927   2.361  12.943
67343SOL    HW2 3927   1.840   2.290  12.842
67344SOL     OW 3928   5.961   7.790  12.672
67344SOL    HW1 3929   5.975   7.864  12.612
67344SOL    HW2 3930   5.919   7.829  12.749
67345SOL     OW 3931  11.233  13.360   6.440
67345SOL    HW1 3932  11.280  13.379   6.521
67345SOL    HW2 3933  11.302  13.341   6.376
67346SOL     OW 3934   1.155   3.226   9.877
67346SOL    HW1 3935   1.165   3.263   9.789
67346SOL    HW2 3936   1.176   3.133   9.866
67347SOL     OW 3937  11.204   3.222   9.567
67347SOL    HW1 3938  11.186   3.292   9.505
67347SOL    HW2 3939  11.262   3.262   9.632
67348SOL     OW 3940  14.808  12.681  12.960
67348SOL    HW1 3941  14.881  12.632  12.922
67348SOL    HW2 3942  14.832  12.773  12.947
67349SOL     OW 3943   7.183   2.056   6.821
67349SOL    HW1 3944   7.152   2.046   6.731
67349SOL    HW2 3945   7.218   1.969   6.844
67350SOL     OW 3946  13.537   1.235  14.501
67350SOL    HW1 3947  13.486   1.193  14.432
67350SOL    HW2 3948  13.607   1.173  14.521
67351SOL     OW 3949   1.053   9.949   3.864
67351SOL    HW1 3950   1.061   9.974   3.772
67351SOL    HW2 3951   1.057  10.032   3.912
67352SOL     OW 3952   7.702   4.955  11.122
67352SOL    HW1 3953   7.616   4.948  11.081
67352SOL    HW2 3954   7.706   5.044  11.154
67353SOL     OW 3955   2.057   5.273   7.361
67353SOL    HW1 3956   1.984   5.323   7.399
67353SOL    HW2 3957   2.015   5.197   7.320
67354SOL     OW 3958   3.250   6.721   9.065
67354SOL    HW1 3959   3.216   6.805   9.096
67354SOL    HW2 3960   3.173   6.677   9.029
67355SOL     OW 3961  13.870   9.514  11.515
67355SOL    HW1 3962  13.876   9.576  11.442
67355SOL    HW2 3963  13.791   9.539  11.562
67356SOL     OW 3964   0.228   7.426   3.839
67356SOL    HW1 3965   0.287   7.350   3.841
67356SOL    HW2 3966   0.151   7.398   3.888
67357SOL     OW 3967   4.901   0.275  10.673
67357SOL    HW1 3968   4.867   0.282  10.762
67357SOL    HW2 3969   4.856   0.345  10.625
67358SOL     OW 3970   0.140   3.559  10.231
67358SOL    HW1 3971   0.229   3.568  10.196
67358SOL    HW2 3972   0.146   3.592  10.321
67359SOL     OW 3973   3.534   9.436   2.085
67359SOL    HW1 3974   3.450   9.462   2.123
67359SOL    HW2 3975   3.553   9.351   2.124
67360SOL     OW 3976  14.669   3.829  12.861
67360SOL    HW1 3977  14.717   3.750  12.836
67360SOL    HW2 3978  14.723   3.902  12.830
67361SOL     OW 3979  12.047  11.316   5.834
67361SOL    HW1 3980  12.110  11.387   5.849
67361SOL    HW2 3981  11.965  11.348   5.871
67362SOL     OW 3982  13.488   9.341   8.341
67362SOL    HW1 3983  13.537   9.423   8.346
67362SOL    HW2 3984  13.452   9.330   8.429
67363SOL     OW 3985   5.435   7.767   2.737
67363SOL    HW1 3986   5.369   7.698   2.731
67363SOL    HW2 3987   5.513   7.723   2.771
67364SOL     OW 3988   5.065   0.874   2.744
67364SOL    HW1 3989   4.982   0.919   2.760
67364SOL    HW2 3990   5.128   0.944   2.729
67365SOL     OW 3991  12.360   1.036   3.913
67365SOL    HW1 3992  12.321   0.972   3.853
67365SOL    HW2 3993  12.422   1.085   3.860
67366SOL     OW 3994  14.409   1.625   0.078
67366SOL    HW1 3995  14.483   1.676   0.044
67366SOL    HW2 3996  14.442   1.586   0.159
67367SOL     OW 3997   2.435  10.363   7.976
67367SOL    HW1 3998   2.367  10.322   7.924
67367SOL    HW2 3999   2.517  10.329   7.940
67368SOL     OW 4000  13.129  14.505   0.733
67368SOL    HW1 4001  13.104  14.420   0.770
67368SOL    HW2 4002  13.225  14.503   0.734
67369SOL     OW 4003  10.992  13.234   1.088
67369SOL    HW1 4004  11.062  13.224   1.152
67369SOL    HW2 4005  10.995  13.155   1.035
67370SOL     OW 4006  12.571   4.911   7.075
67370SOL    HW1 4007  12.551   4.998   7.110
67370SOL    HW2 4008  12.490   4.883   7.033
67371SOL     OW 4009   5.149   0.360   8.183
67371SOL    HW1 4010   5.140   0.447   8.144
67371SOL    HW2 4011   5.192   0.375   8.267
67372SOL     OW 4012   0.414  10.774   5.676
67372SOL    HW1 4013   0.432  10.758   5.769
67372SOL    HW2 4014   0.437  10.693   5.632
67373SOL     OW 4015   3.334   4.429   9.455
67373SOL    HW1 4016   3.278   4.446   9.531
67373SOL    HW2 4017   3.279   4.378   9.395
67374SOL     OW 4018   2.101   2.033  14.820
67374SOL    HW1 4019   2.036   2.100  14.800
67374SOL    HW2 4020   2.162   2.076  14.881
67375SOL     OW 4021   6.716   7.207   9.760
67375SOL    HW1 4022   6.767   7.182   9.837
67375SOL    HW2 4023   6.679   7.292   9.782
67376SOL     OW 4024   4.616   5.657  10.083
67376SOL    HW1 4025   4.697   5.647  10.131
67376SOL    HW2 4026   4.594   5.569  10.053
67377SOL     OW 4027   0.595  11.122  11.800
67377SOL    HW1 4028   0.582  11.141  11.893
67377SOL    HW2 4029   0.645  11.041  11.799
67378SOL     OW 4030   2.714   1.160   6.765
67378SOL    HW1 4031   2.767   1.194   6.693
67378SOL    HW2 4032   2.736   1.067   6.770
67379SOL     OW 4033   3.634  13.196  11.353
67379SOL    HW1 4034   3.717  13.177  11.396
67379SOL    HW2 4035   3.652  13.275  11.301
67380SOL     OW 4036   3.481  10.612  14.284
67380SOL    HW1 4037   3.563  10.626  14.331
67380SOL    HW2 4038   3.417  10.596  14.352
67381SOL     OW 4039   0.268   5.346  10.195
67381SOL    HW1 4040   0.289   5.356  10.102
67381SOL    HW2 4041   0.173   5.350  10.198
67382SOL     OW 4042  10.255   5.469   9.968
67382SOL    HW1 4043  10.270   5.424  10.051
67382SOL    HW2 4044  10.218   5.401   9.911
67383SOL     OW 4045   6.583  12.325  13.278
67383SOL    HW1 4046   6.514  12.269  13.314
67383SOL    HW2 4047   6.581  12.309  13.184
67384SOL     OW 4048   7.070   0.897   0.318
67384SOL    HW1 4049   7.039   0.894   0.408
67384SOL    HW2 4050   7.141   0.833   0.315
67385SOL     OW 4051   0.566   5.791   6.006
67385SOL    HW1 4052   0.481   5.815   5.969
67385SOL    HW2 4053   0.629   5.810   5.937
67386SOL     OW 4054  12.520  13.859   1.531
67386SOL    HW1 4055  12.451  13.799   1.559
67386SOL    HW2 4056  12.567  13.811   1.462
67387SOL     OW 4057  13.253   8.641  13.469
67387SOL    HW1 4058  13.277   8.549  13.483
67387SOL    HW2 4059  13.244   8.676  13.558
67388SOL     OW 4060   5.461  10.308   9.940
67388SOL    HW1 4061   5.485  10.286  10.029
67388SOL    HW2 4062   5.405  10.385   9.948
67389SOL     OW 4063  11.045   6.641  12.839
67389SOL    HW1 4064  11.106   6.573  12.868
67389SOL    HW2 4065  11.040   6.630  12.744
67390SOL     OW 4066   8.583   3.722   6.809
67390SOL    HW1 4067   8.586   3.712   6.904
67390SOL    HW2 4068   8.498   3.761   6.791
67391SOL     OW 4069  14.507   0.823   3.212
67391SOL    HW1 4070  14.437   0.757   3.209
67391SOL    HW2 4071  14.572   0.791   3.149
67392SOL     OW 4072  12.947   8.598   3.340
67392SOL    HW1 4073  12.913   8.656   3.272
67392SOL    HW2 4074  12.980   8.522   3.292
67393SOL     OW 4075  14.368   7.501  13.631
67393SOL    HW1 4076  14.356   7.433  13.565
67393SOL    HW2 4077  14.443   7.472  13.682
67394SOL     OW 4078  12.895   2.552   1.246
67394SOL    HW1 4079  12.840   2.627   1.225
67394SOL    HW2 4080  12.936   2.529   1.162
67395SOL     OW 4081  13.135   4.388   5.478
67395SOL    HW1 4082  13.200   4.411   5.412
67395SOL    HW2 4083  13.112   4.297   5.459
67396SOL     OW 4084   2.668   0.509   8.356
67396SOL    HW1 4085   2.680   0.599   8.386
67396SOL    HW2 4086   2.574   0.503   8.335
67397SOL     OW 4087   3.474  13.318  14.260
67397SOL    HW1 4088   3.454  13.362  14.342
67397SOL    HW2 4089   3.393  13.273  14.236
67398SOL     OW 4090   3.850   0.618   8.668
67398SOL    HW1 4091   3.877   0.553   8.733
67398SOL    HW2 4092   3.888   0.700   8.698
67399SOL     OW 4093  12.186   8.896  12.771
67399SOL    HW1 4094  12.234   8.820  12.803
67399SOL    HW2 4095  12.097   8.864  12.756
67400SOL     OW 4096   2.580   0.315  10.764
67400SOL    HW1 4097   2.588   0.411  10.760
67400SOL    HW2 4098   2.595   0.294  10.856
67401SOL     OW 4099   8.508   8.112  12.825
67401SOL    HW1 4100   8.511   8.125  12.730
67401SOL    HW2 4101   8.509   8.017  12.836
67402SOL     OW 4102   7.098  11.486  10.352
67402SOL    HW1 4103   7.094  11.582  10.356
67402SOL    HW2 4104   7.088  11.466  10.259
67403SOL     OW 4105  14.838  14.453   6.546
67403SOL    HW1 4106  14.797  14.408   6.620
67403SOL    HW2 4107  14.773  14.446   6.476
67404SOL     OW 4108   7.364   9.782  12.127
67404SOL    HW1 4109   7.441   9.750  12.081
67404SOL    HW2 4110   7.337   9.859  12.078
67405SOL     OW 4111  11.351  11.302   8.876
67405SOL    HW1 4112  11.281  11.319   8.939
67405SOL    HW2 4113  11.363  11.386   8.832
67406SOL     OW 4114   8.735   9.459   4.762
67406SOL    HW1 4115   8.648   9.463   4.722
67406SOL    HW2 4116   8.758   9.366   4.762
67407SOL     OW 4117   8.307   7.092  11.145
67407SOL    HW1 4118   8.343   7.161  11.202
67407SOL    HW2 4119   8.223   7.127  11.116
67408SOL     OW 4120   9.664  14.407  12.063
67408SOL    HW1 4121   9.612  14.454  12.128
67408SOL    HW2 4122   9.750  14.397  12.104
67409SOL     OW 4123   0.901   8.209   7.332
67409SOL    HW1 4124   0.855   8.156   7.398
67409SOL    HW2 4125   0.871   8.298   7.349
67410SOL     OW 4126  12.981   6.556   3.214
67410SOL    HW1 4127  12.927   6.515   3.282
67410SOL    HW2 4128  13.057   6.498   3.206
67411SOL     OW 4129   9.310   6.802  14.581
67411SOL    HW1 4130   9.251   6.796  14.506
67411SOL    HW2 4131   9.309   6.715  14.621
67412SOL     OW 4132   8.903   9.076   2.920
67412SOL    HW1 4133   8.833   9.140   2.934
67412SOL    HW2 4134   8.968   9.123   2.867
67413SOL     OW 4135  11.357   6.178   5.623
67413SOL    HW1 4136  11.376   6.212   5.535
67413SOL    HW2 4137  11.301   6.245   5.663
67414SOL     OW 4138   9.296   5.668   0.167
67414SOL    HW1 4139   9.212   5.663   0.123
67414SOL    HW2 4140   9.333   5.580   0.159
67415SOL     OW 4141   5.052   3.633   8.754
67415SOL    HW1 4142   5.010   3.560   8.801
67415SOL    HW2 4143   5.133   3.595   8.718
67416SOL     OW 4144   6.731  10.901   2.666
67416SOL    HW1 4145   6.640  10.916   2.692
67416SOL    HW2 4146   6.739  10.806   2.660
67417SOL     OW 4147   5.947  13.330  11.901
67417SOL    HW1 4148   5.994  13.257  11.940
67417SOL    HW2 4149   5.861  13.295  11.880
67418SOL     OW 4150   5.221   7.579   3.216
67418SOL    HW1 4151   5.199   7.513   3.281
67418SOL    HW2 4152   5.141   7.589   3.164
67419SOL     OW 4153   2.664   8.011  11.721
67419SOL    HW1 4154   2.700   7.961  11.794
67419SOL    HW2 4155   2.574   7.981  11.713
67420SOL     OW 4156   3.358   7.353   3.884
67420SOL    HW1 4157   3.374   7.282   3.946
67420SOL    HW2 4158   3.389   7.320   3.800
67421SOL     OW 4159   7.572   5.756   7.476
67421SOL    HW1 4160   7.512   5.685   7.454
67421SOL    HW2 4161   7.549   5.780   7.566
67422SOL     OW 4162  11.248   7.727   1.432
67422SOL    HW1 4163  11.235   7.675   1.352
67422SOL    HW2 4164  11.159   7.743   1.465
67423SOL     OW 4165   6.974   0.918  14.474
67423SOL    HW1 4166   7.040   0.900  14.408
67423SOL    HW2 4167   6.941   0.831  14.499
67424SOL     OW 4168   2.619  13.441   7.508
67424SOL    HW1 4169   2.632  13.529   7.471
67424SOL    HW2 4170   2.708  13.410   7.526
67425SOL     OW 4171   0.563   9.400  12.530
67425SOL    HW1 4172   0.468   9.391  12.521
67425SOL    HW2 4173   0.586   9.472  12.472
67426SOL     OW 4174   5.319  14.143   5.495
67426SOL    HW1 4175   5.404  14.141   5.450
67426SOL    HW2 4176   5.277  14.223   5.465
67427SOL     OW 4177  11.527  10.550   7.707
67427SOL    HW1 4178  11.566  10.637   7.708
67427SOL    HW2 4179  11.434  10.565   7.693
67428SOL     OW 4180   5.044   3.766   3.970
67428SOL    HW1 4181   4.964   3.745   3.923
67428SOL    HW2 4182   5.109   3.779   3.902
67429SOL     OW 4183   8.642   4.362   9.543
67429SOL    HW1 4184   8.621   4.306   9.618
67429SOL    HW2 4185   8.643   4.451   9.578
67430SOL     OW 4186   6.965   5.670  11.903
67430SOL    HW1 4187   7.009   5.729  11.841
67430SOL    HW2 4188   7.036   5.623  11.946
67431SOL     OW 4189   7.152   5.852  12.638
67431SOL    HW1 4190   7.161   5.757  12.635
67431SOL    HW2 4191   7.129   5.872  12.729
67432SOL     OW 4192  12.225   0.048   8.220
67432SOL    HW1 4193  12.159  14.880   8.262
67432SOL    HW2 4194  12.296   0.054   8.284
67433SOL     OW 4195   1.423  10.497  10.625
67433SOL    HW1 4196   1.502  10.449  10.649
67433SOL    HW2 4197   1.454  10.581  10.592
67434SOL     OW 4198   8.532   7.773  12.197
67434SOL    HW1 4199   8.547   7.743  12.287
67434SOL    HW2 4200   8.539   7.869  12.202
67435SOL     OW 4201   3.651  14.473   6.379
67435SOL    HW1 4202   3.672  14.565   6.394
67435SOL    HW2 4203   3.570  14.459   6.427
67436SOL     OW 4204   3.189   0.836   3.270
67436SOL    HW1 4205   3.171   0.808   3.359
67436SOL    HW2 4206   3.126   0.906   3.253
67437SOL     OW 4207   7.284   8.668   8.204
67437SOL    HW1 4208   7.226   8.610   8.154
67437SOL    HW2 4209   7.246   8.755   8.191
67438SOL     OW 4210   7.459  12.954   8.642
67438SOL    HW1 4211   7.533  12.968   8.700
67438SOL    HW2 4212   7.397  12.902   8.693
67439SOL     OW 4213   8.303   6.218   5.927
67439SOL    HW1 4214   8.322   6.228   6.020
67439SOL    HW2 4215   8.230   6.278   5.910
67440SOL     OW 4216   6.747   9.334  14.841
67440SOL    HW1 4217   6.677   9.379   0.001
67440SOL    HW2 4218   6.702   9.289  14.769
67441SOL     OW 4219  10.180   4.767   7.356
67441SOL    HW1 4220  10.128   4.706   7.305
67441SOL    HW2 4221  10.270   4.753   7.326
67442SOL     OW 4222   7.825   8.887   2.858
67442SOL    HW1 4223   7.886   8.852   2.793
67442SOL    HW2 4224   7.838   8.831   2.935
67443SOL     OW 4225  12.900   1.037   2.952
67443SOL    HW1 4226  12.970   1.019   3.015
67443SOL    HW2 4227  12.889   1.132   2.954
67444SOL     OW 4228   7.539  14.869   5.690
67444SOL    HW1 4229   7.622   0.023   5.714
67444SOL    HW2 4230   7.484   0.054   5.661
67445SOL     OW 4231  12.786  11.922   7.471
67445SOL    HW1 4232  12.696  11.939   7.499
67445SOL    HW2 4233  12.833  11.900   7.552
67446SOL     OW 4234   7.766   7.694   4.151
67446SOL    HW1 4235   7.782   7.689   4.246
67446SOL    HW2 4236   7.838   7.748   4.118
67447SOL     OW 4237   2.018   3.352   3.796
67447SOL    HW1 4238   1.998   3.342   3.889
67447SOL    HW2 4239   1.943   3.312   3.751
67448SOL     OW 4240   6.784  13.119   1.457
67448SOL    HW1 4241   6.704  13.161   1.425
67448SOL    HW2 4242   6.827  13.085   1.379
67449SOL     OW 4243   7.393   1.712  13.660
67449SOL    HW1 4244   7.311   1.713  13.710
67449SOL    HW2 4245   7.460   1.737  13.723
67450SOL     OW 4246   7.001   9.560   5.592
67450SOL    HW1 4247   7.086   9.580   5.551
67450SOL    HW2 4248   7.013   9.583   5.684
67451SOL     OW 4249  13.159   2.966  14.416
67451SOL    HW1 4250  13.127   2.923  14.495
67451SOL    HW2 4251  13.093   2.946  14.349
67452SOL     OW 4252   6.298   2.831  13.419
67452SOL    HW1 4253   6.220   2.786  13.386
67452SOL    HW2 4254   6.317   2.897  13.353
67453SOL     OW 4255   2.646  14.044  14.311
67453SOL    HW1 4256   2.558  14.053  14.348
67453SOL    HW2 4257   2.631  14.027  14.218
67454SOL     OW 4258  10.891   5.098  13.425
67454SOL    HW1 4259  10.875   5.184  13.465
67454SOL    HW2 4260  10.949   5.054  13.487
67455SOL     OW 4261  11.335   1.231   7.634
67455SOL    HW1 4262  11.320   1.138   7.614
67455SOL    HW2 4263  11.273   1.277   7.577
67456SOL     OW 4264   3.731   5.639   0.631
67456SOL    HW1 4265   3.700   5.658   0.543
67456SOL    HW2 4266   3.825   5.653   0.627
67457SOL     OW 4267   9.455   5.167  12.711
67457SOL    HW1 4268   9.467   5.239  12.649
67457SOL    HW2 4269   9.365   5.137  12.695
67458SOL     OW 4270   8.044   1.155   6.989
67458SOL    HW1 4271   8.057   1.189   6.901
67458SOL    HW2 4272   8.031   1.061   6.976
67459SOL     OW 4273   4.570   8.342   5.321
67459SOL    HW1 4274   4.488   8.393   5.322
67459SOL    HW2 4275   4.550   8.267   5.265
67460SOL     OW 4276   9.257  12.565   6.114
67460SOL    HW1 4277   9.185  12.595   6.169
67460SOL    HW2 4278   9.294  12.491   6.162
67461SOL     OW 4279   2.751   0.879   7.251
67461SOL    HW1 4280   2.777   0.801   7.300
67461SOL    HW2 4281   2.690   0.846   7.185
67462SOL     OW 4282  12.897   2.750  13.581
67462SOL    HW1 4283  12.984   2.716  13.606
67462SOL    HW2 4284  12.915   2.833  13.538
67463SOL     OW 4285   7.092   8.177   1.726
67463SOL    HW1 4286   7.034   8.103   1.704
67463SOL    HW2 4287   7.141   8.194   1.645
67464SOL     OW 4288   3.541   3.749  11.274
67464SOL    HW1 4289   3.449   3.723  11.270
67464SOL    HW2 4290   3.550   3.815  11.206
67465SOL     OW 4291  10.477   2.400   6.157
67465SOL    HW1 4292  10.488   2.364   6.069
67465SOL    HW2 4293  10.402   2.459   6.149
67466SOL     OW 4294   5.251  11.611   3.114
67466SOL    HW1 4295   5.183  11.643   3.054
67466SOL    HW2 4296   5.219  11.526   3.143
67467SOL     OW 4297   7.683  10.171  13.378
67467SOL    HW1 4298   7.647  10.154  13.465
67467SOL    HW2 4299   7.685  10.266  13.372
67468SOL     OW 4300   7.235   8.408   9.980
67468SOL    HW1 4301   7.179   8.338   9.946
67468SOL    HW2 4302   7.203   8.422  10.069
67469SOL     OW 4303  10.624  10.657   7.616
67469SOL    HW1 4304  10.691  10.589   7.612
67469SOL    HW2 4305  10.545  10.616   7.580
67470SOL     OW 4306   1.085   3.411  13.724
67470SOL    HW1 4307   1.032   3.341  13.761
67470SOL    HW2 4308   1.155   3.365  13.677
67471SOL     OW 4309   7.831   4.071   0.921
67471SOL    HW1 4310   7.905   4.040   0.868
67471SOL    HW2 4311   7.792   3.991   0.956
67472SOL     OW 4312   7.784  12.251   6.940
67472SOL    HW1 4313   7.792  12.220   7.031
67472SOL    HW2 4314   7.757  12.342   6.948
67473SOL     OW 4315   5.019   9.496   5.598
67473SOL    HW1 4316   4.979   9.410   5.588
67473SOL    HW2 4317   5.072   9.508   5.519
67474SOL     OW 4318   2.830   7.118  14.055
67474SOL    HW1 4319   2.771   7.057  14.010
67474SOL    HW2 4320   2.885   7.155  13.986
67475SOL     OW 4321  14.471  11.920  10.413
67475SOL    HW1 4322  14.474  11.842  10.468
67475SOL    HW2 4323  14.563  11.948  10.406
67476SOL     OW 4324   8.390   1.667   9.780
67476SOL    HW1 4325   8.363   1.740   9.724
67476SOL    HW2 4326   8.447   1.614   9.725
67477SOL     OW 4327   5.014   0.396   5.652
67477SOL    HW1 4328   5.092   0.451   5.649
67477SOL    HW2 4329   4.948   0.446   5.604
67478SOL     OW 4330   7.072   4.673  13.550
67478SOL    HW1 4331   7.026   4.640  13.473
67478SOL    HW2 4332   7.064   4.768  13.545
67479SOL     OW 4333   2.736  13.791   8.948
67479SOL    HW1 4334   2.831  13.796   8.939
67479SOL    HW2 4335   2.722  13.786   9.043
67480SOL     OW 4336   9.851   5.768   2.148
67480SOL    HW1 4337   9.790   5.838   2.124
67480SOL    HW2 4338   9.798   5.706   2.198
67481SOL     OW 4339  11.960   2.136  12.731
67481SOL    HW1 4340  11.950   2.132  12.636
67481SOL    HW2 4341  11.931   2.051  12.763
67482SOL     OW 4342   7.462  14.184  11.723
67482SOL    HW1 4343   7.495  14.173  11.812
67482SOL    HW2 4344   7.428  14.098  11.699
67483SOL     OW 4345   1.046   1.351  12.072
67483SOL    HW1 4346   0.953   1.358  12.052
67483SOL    HW2 4347   1.060   1.412  12.144
67484SOL     OW 4348   0.529   9.729  14.820
67484SOL    HW1 4349   0.621   9.713  14.843
67484SOL    HW2 4350   0.481   9.656  14.860
67485SOL     OW 4351  13.672   3.046   6.196
67485SOL    HW1 4352  13.629   3.073   6.115
67485SOL    HW2 4353  13.762   3.075   6.186
67486SOL     OW 4354   5.643   9.829   3.768
67486SOL    HW1 4355   5.670   9.766   3.835
67486SOL    HW2 4356   5.562   9.793   3.733
67487SOL     OW 4357  14.505   8.604  14.713
67487SOL    HW1 4358  14.581   8.587  14.657
67487SOL    HW2 4359  14.542   8.604  14.802
67488SOL     OW 4360   4.740   7.081  14.095
67488SOL    HW1 4361   4.738   7.089  14.191
67488SOL    HW2 4362   4.652   7.053  14.072
67489SOL     OW 4363  11.891  13.203  14.008
67489SOL    HW1 4364  11.817  13.264  14.006
67489SOL    HW2 4365  11.851  13.117  14.022
67490SOL     OW 4366   2.006   9.064   0.179
67490SOL    HW1 4367   2.000   9.091   0.271
67490SOL    HW2 4368   2.042   9.141   0.134
67491SOL     OW 4369  10.872  11.428   3.928
67491SOL    HW1 4370  10.848  11.479   4.006
67491SOL    HW2 4371  10.960  11.396   3.947
67492SOL     OW 4372  10.477  14.030   6.059
67492SOL    HW1 4373  10.562  13.990   6.076
67492SOL    HW2 4374  10.413  13.968   6.096
67493SOL     OW 4375   4.047   0.332   6.743
67493SOL    HW1 4376   3.991   0.338   6.821
67493SOL    HW2 4377   4.112   0.266   6.765
67494SOL     OW 4378  10.919   0.027   8.087
67494SOL    HW1 4379  10.901   0.008   8.179
67494SOL    HW2 4380  10.842   0.075   8.056
67495SOL     OW 4381   3.352   9.675  11.404
67495SOL    HW1 4382   3.309   9.656  11.487
67495SOL    HW2 4383   3.304   9.751  11.370
67496SOL     OW 4384   0.997   6.536  12.412
67496SOL    HW1 4385   0.952   6.497  12.337
67496SOL    HW2 4386   0.930   6.588  12.457
67497SOL     OW 4387   0.847  12.278   8.160
67497SOL    HW1 4388   0.942  12.272   8.171
67497SOL    HW2 4389   0.812  12.228   8.234
67498SOL     OW 4390   5.993  10.342  13.514
67498SOL    HW1 4391   6.021  10.410  13.453
67498SOL    HW2 4392   5.898  10.339  13.505
67499SOL     OW 4393   8.057   8.838   3.729
67499SOL    HW1 4394   8.123   8.894   3.770
67499SOL    HW2 4395   7.974   8.869   3.766
67500SOL     OW 4396   4.217   1.931   5.726
67500SOL    HW1 4397   4.311   1.914   5.733
67500SOL    HW2 4398   4.209   1.995   5.655
67501SOL     OW 4399   3.563   4.199   2.746
67501SOL    HW1 4400   3.563   4.279   2.799
67501SOL    HW2 4401   3.636   4.147   2.781
67502SOL     OW 4402  12.908   3.417   5.950
67502SOL    HW1 4403  12.833   3.475   5.961
67502SOL    HW2 4404  12.873   3.340   5.905
67503SOL     OW 4405  10.867   0.027   3.579
67503SOL    HW1 4406  10.810  14.840   3.560
67503SOL    HW2 4407  10.868   0.078   3.498
67504SOL     OW 4408  14.169  11.361   5.589
67504SOL    HW1 4409  14.208  11.412   5.519
67504SOL    HW2 4410  14.234  11.293   5.608
67505SOL     OW 4411   8.126   3.593   8.222
67505SOL    HW1 4412   8.141   3.562   8.133
67505SOL    HW2 4413   8.051   3.543   8.253
67506SOL     OW 4414   0.463  11.373   3.736
67506SOL    HW1 4415   0.497  11.460   3.758
67506SOL    HW2 4416   0.508  11.314   3.796
67507SOL     OW 4417   2.618   0.966  14.085
67507SOL    HW1 4418   2.620   0.884  14.135
67507SOL    HW2 4419   2.687   0.956  14.019
67508SOL     OW 4420   3.932   0.368  13.336
67508SOL    HW1 4421   3.909   0.316  13.259
67508SOL    HW2 4422   4.009   0.325  13.373
67509SOL     OW 4423  12.922   4.423  13.993
67509SOL    HW1 4424  12.965   4.337  13.989
67509SOL    HW2 4425  12.860   4.414  14.065
67510SOL     OW 4426  10.043  13.841  12.361
67510SOL    HW1 4427  10.103  13.769  12.343
67510SOL    HW2 4428   9.959  13.811  12.327
67511SOL     OW 4429  12.217   7.810   5.989
67511SOL    HW1 4430  12.151   7.745   5.966
67511SOL    HW2 4431  12.286   7.798   5.923
67512SOL     OW 4432   4.322  14.837   9.844
67512SOL    HW1 4433   4.364   0.011   9.904
67512SOL    HW2 4434   4.295  14.763   9.900
67513SOL     OW 4435   9.255   7.956   1.357
67513SOL    HW1 4436   9.236   7.911   1.275
67513SOL    HW2 4437   9.194   7.917   1.420
67514SOL     OW 4438   8.708   6.457   1.318
67514SOL    HW1 4439   8.648   6.518   1.360
67514SOL    HW2 4440   8.787   6.461   1.371
67515SOL     OW 4441   0.381   3.111   7.960
67515SOL    HW1 4442   0.452   3.051   7.983
67515SOL    HW2 4443   0.417   3.198   7.977
67516SOL     OW 4444   1.739   4.656  13.882
67516SOL    HW1 4445   1.671   4.653  13.815
67516SOL    HW2 4446   1.691   4.665  13.964
67517SOL     OW 4447   1.927   9.888   9.197
67517SOL    HW1 4448   1.935   9.859   9.106
67517SOL    HW2 4449   1.995   9.839   9.243
67518SOL     OW 4450   3.319   9.218   1.072
67518SOL    HW1 4451   3.388   9.205   1.007
67518SOL    HW2 4452   3.341   9.300   1.115
67519SOL     OW 4453   6.671   2.700   1.734
67519SOL    HW1 4454   6.609   2.673   1.667
67519SOL    HW2 4455   6.722   2.770   1.693
67520SOL     OW 4456   5.827   8.707   8.695
67520SOL    HW1 4457   5.852   8.644   8.627
67520SOL    HW2 4458   5.756   8.757   8.656
67521SOL     OW 4459   6.668  13.409   2.404
67521SOL    HW1 4460   6.746  13.462   2.420
67521SOL    HW2 4461   6.626  13.402   2.490
67522SOL     OW 4462   5.254   1.559   1.680
67522SOL    HW1 4463   5.220   1.498   1.614
67522SOL    HW2 4464   5.213   1.531   1.761
67523SOL     OW 4465   5.258   2.860  11.995
67523SOL    HW1 4466   5.177   2.910  11.981
67523SOL    HW2 4467   5.325   2.912  11.951
67524SOL     OW 4468  10.460   8.565   6.838
67524SOL    HW1 4469  10.502   8.479   6.835
67524SOL    HW2 4470  10.481   8.604   6.753
67525SOL     OW 4471   2.116   3.505  11.200
67525SOL    HW1 4472   2.160   3.446  11.261
67525SOL    HW2 4473   2.135   3.468  11.113
67526SOL     OW 4474   1.741  10.302   4.882
67526SOL    HW1 4475   1.650  10.328   4.873
67526SOL    HW2 4476   1.789  10.384   4.888
67527SOL     OW 4477  13.342   5.166   1.604
67527SOL    HW1 4478  13.248   5.150   1.606
67527SOL    HW2 4479  13.367   5.155   1.512
67528SOL     OW 4480   6.603   6.310  12.838
67528SOL    HW1 4481   6.697   6.331  12.834
67528SOL    HW2 4482   6.565   6.381  12.889
67529SOL     OW 4483  13.233   1.016  10.336
67529SOL    HW1 4484  13.248   0.949  10.270
67529SOL    HW2 4485  13.297   0.997  10.405
67530SOL     OW 4486   2.303  10.782  12.335
67530SOL    HW1 4487   2.330  10.814  12.421
67530SOL    HW2 4488   2.322  10.688  12.337
67531SOL     OW 4489   2.537   8.297  13.961
67531SOL    HW1 4490   2.451   8.306  14.003
67531SOL    HW2 4491   2.519   8.251  13.879
67532SOL     OW 4492   6.923  11.324   4.700
67532SOL    HW1 4493   6.967  11.254   4.653
67532SOL    HW2 4494   6.946  11.404   4.652
67533SOL     OW 4495   5.108   5.081  11.161
67533SOL    HW1 4496   5.028   5.082  11.107
67533SOL    HW2 4497   5.092   5.012  11.225
67534SOL     OW 4498   8.832   9.631   6.839
67534SOL    HW1 4499   8.765   9.579   6.883
67534SOL    HW2 4500   8.890   9.566   6.800
67535SOL     OW 4501   4.571   7.385   2.881
67535SOL    HW1 4502   4.490   7.436   2.882
67535SOL    HW2 4503   4.632   7.435   2.935
67536SOL     OW 4504   1.859   0.630  13.391
67536SOL    HW1 4505   1.925   0.579  13.439
67536SOL    HW2 4506   1.812   0.566  13.339
67537SOL     OW 4507   2.636   7.650   8.512
67537SOL    HW1 4508   2.574   7.660   8.440
67537SOL    HW2 4509   2.610   7.569   8.555
67538SOL     OW 4510  12.688   1.954   7.516
67538SOL    HW1 4511  12.609   1.900   7.516
67538SOL    HW2 4512  12.736   1.926   7.438
67539SOL     OW 4513   4.171  11.842   6.298
67539SOL    HW1 4514   4.113  11.774   6.265
67539SOL    HW2 4515   4.112  11.911   6.329
67540SOL     OW 4516  13.022   8.437  11.786
67540SOL    HW1 4517  13.015   8.519  11.737
67540SOL    HW2 4518  12.940   8.390  11.766
67541SOL     OW 4519   7.141   6.557   8.530
67541SOL    HW1 4520   7.070   6.498   8.554
67541SOL    HW2 4521   7.097   6.628   8.483
67542SOL     OW 4522  13.586   1.377   5.172
67542SOL    HW1 4523  13.602   1.329   5.253
67542SOL    HW2 4524  13.500   1.417   5.183
67543SOL     OW 4525   4.265   0.207   2.153
67543SOL    HW1 4526   4.219   0.261   2.217
67543SOL    HW2 4527   4.341   0.260   2.128
67544SOL     OW 4528  12.399   6.353   5.594
67544SOL    HW1 4529  12.345   6.308   5.529
67544SOL    HW2 4530  12.337   6.378   5.663
67545SOL     OW 4531   0.420   7.855  11.345
67545SOL    HW1 4532   0.428   7.949  11.354
67545SOL    HW2 4533   0.506   7.826  11.316
67546SOL     OW 4534   3.466  13.644  14.207
67546SOL    HW1 4535   3.465  13.633  14.112
67546SOL    HW2 4536   3.428  13.563  14.240
67547SOL     OW 4537   0.780   3.259   9.032
67547SOL    HW1 4538   0.731   3.287   9.109
67547SOL    HW2 4539   0.733   3.297   8.958
67548SOL     OW 4540   5.419   8.501  13.166
67548SOL    HW1 4541   5.396   8.423  13.115
67548SOL    HW2 4542   5.492   8.540  13.119
67549SOL     OW 4543   3.551   6.091  14.597
67549SOL    HW1 4544   3.506   6.134  14.524
67549SOL    HW2 4545   3.600   6.161  14.639
67550SOL     OW 4546   7.362   3.220  13.255
67550SOL    HW1 4547   7.333   3.299  13.302
67550SOL    HW2 4548   7.457   3.220  13.266
67551SOL     OW 4549   7.117  11.644   8.335
67551SOL    HW1 4550   7.146  11.658   8.245
67551SOL    HW2 4551   7.052  11.575   8.329
67552SOL     OW 4552   7.963   3.340   0.603
67552SOL    HW1 4553   8.028   3.354   0.534
67552SOL    HW2 4554   8.014   3.307   0.677
67553SOL     OW 4555   0.506   4.275   6.072
67553SOL    HW1 4556   0.555   4.297   6.151
67553SOL    HW2 4557   0.527   4.183   6.055
67554SOL     OW 4558  10.863  11.398  14.688
67554SOL    HW1 4559  10.951  11.399  14.650
67554SOL    HW2 4560  10.876  11.362  14.776
67555SOL     OW 4561   2.396   9.396  13.867
67555SOL    HW1 4562   2.326   9.365  13.923
67555SOL    HW2 4563   2.432   9.473  13.912
67556SOL     OW 4564   8.342   3.015  14.885
67556SOL    HW1 4565   8.400   3.068  14.830
67556SOL    HW2 4566   8.273   3.076   0.025
67557SOL     OW 4567   1.120   2.201   0.472
67557SOL    HW1 4568   1.044   2.237   0.425
67557SOL    HW2 4569   1.180   2.173   0.403
67558SOL     OW 4570   3.388   5.432   3.592
67558SOL    HW1 4571   3.412   5.476   3.511
67558SOL    HW2 4572   3.319   5.485   3.630
67559SOL     OW 4573   3.642   2.505  10.226
67559SOL    HW1 4574   3.553   2.502  10.261
67559SOL    HW2 4575   3.689   2.437  10.274
67560SOL     OW 4576  10.665   7.868   4.353
67560SOL    HW1 4577  10.643   7.935   4.418
67560SOL    HW2 4578  10.650   7.911   4.269
67561SOL     OW 4579   3.531  10.855   4.774
67561SOL    HW1 4580   3.448  10.897   4.798
67561SOL    HW2 4581   3.579  10.923   4.728
67562SOL     OW 4582  13.867   0.333   2.207
67562SOL    HW1 4583  13.810   0.261   2.235
67562SOL    HW2 4584  13.911   0.299   2.129
67563SOL     OW 4585   2.075   0.938   5.274
67563SOL    HW1 4586   2.109   0.900   5.355
67563SOL    HW2 4587   1.995   0.983   5.300
67564SOL     OW 4588   3.886   8.392   8.043
67564SOL    HW1 4589   3.851   8.455   7.980
67564SOL    HW2 4590   3.914   8.446   8.117
67565SOL     OW 4591   6.207   9.093   9.579
67565SOL    HW1 4592   6.239   9.181   9.557
67565SOL    HW2 4593   6.205   9.092   9.675
67566SOL     OW 4594   8.391   5.803  10.656
67566SOL    HW1 4595   8.298   5.801  10.678
67566SOL    HW2 4596   8.424   5.718  10.684
67567SOL     OW 4597   9.082  12.192   3.916
67567SOL    HW1 4598   9.122  12.192   4.003
67567SOL    HW2 4599   9.131  12.126   3.867
67568SOL     OW 4600  13.845   8.557  11.701
67568SOL    HW1 4601  13.782   8.508  11.754
67568SOL    HW2 4602  13.885   8.490  11.645
67569SOL     OW 4603   1.403   5.612   9.195
67569SOL    HW1 4604   1.430   5.524   9.222
67569SOL    HW2 4605   1.408   5.610   9.100
67570SOL     OW 4606   7.193  13.926   8.713
67570SOL    HW1 4607   7.203  13.852   8.773
67570SOL    HW2 4608   7.145  13.890   8.638
67571SOL     OW 4609   1.984  11.084  13.812
67571SOL    HW1 4610   2.070  11.122  13.795
67571SOL    HW2 4611   1.958  11.122  13.896
67572SOL     OW 4612   5.598  12.256  14.250
67572SOL    HW1 4613   5.535  12.225  14.315
67572SOL    HW2 4614   5.582  12.350  14.244
67573SOL     OW 4615   0.122  11.213   4.909
67573SOL    HW1 4616   0.188  11.143   4.910
67573SOL    HW2 4617   0.045  11.174   4.950
67574SOL     OW 4618   8.838   0.935  12.024
67574SOL    HW1 4619   8.873   0.861  11.974
67574SOL    HW2 4620   8.846   0.908  12.115
67575SOL     OW 4621  11.784   2.204   8.858
67575SOL    HW1 4622  11.755   2.264   8.789
67575SOL    HW2 4623  11.877   2.189   8.840
67576SOL     OW 4624   0.590  11.932   1.127
67576SOL    HW1 4625   0.612  12.019   1.093
67576SOL    HW2 4626   0.495  11.931   1.130
67577SOL     OW 4627   6.321   3.822   9.977
67577SOL    HW1 4628   6.244   3.768   9.995
67577SOL    HW2 4629   6.346   3.858  10.062
67578SOL     OW 4630  10.628  13.801  13.912
67578SOL    HW1 4631  10.620  13.774  13.820
67578SOL    HW2 4632  10.619  13.896  13.909
67579SOL     OW 4633   9.139   4.850   6.285
67579SOL    HW1 4634   9.162   4.942   6.279
67579SOL    HW2 4635   9.109   4.826   6.197
67580SOL     OW 4636   0.542   5.508   0.851
67580SOL    HW1 4637   0.481   5.468   0.789
67580SOL    HW2 4638   0.487   5.532   0.926
67581SOL     OW 4639  11.101  13.807  14.176
67581SOL    HW1 4640  11.178  13.776  14.224
67581SOL    HW2 4641  11.063  13.874  14.233
67582SOL     OW 4642   7.790   4.440   0.893
67582SOL    HW1 4643   7.759   4.511   0.949
67582SOL    HW2 4644   7.711   4.402   0.856
67583SOL     OW 4645   8.046  14.331  10.537
67583SOL    HW1 4646   8.088  14.416  10.544
67583SOL    HW2 4647   8.050  14.309  10.444
67584SOL     OW 4648   3.545   2.392   8.561
67584SOL    HW1 4649   3.469   2.337   8.582
67584SOL    HW2 4650   3.515   2.481   8.579
67585SOL     OW 4651  12.815   9.899  10.179
67585SOL    HW1 4652  12.883   9.924  10.116
67585SOL    HW2 4653  12.784   9.814  10.150
67586SOL     OW 4654   3.501   9.593  10.511
67586SOL    HW1 4655   3.583   9.632  10.541
67586SOL    HW2 4656   3.528   9.517  10.459
67587SOL     OW 4657   9.929  13.259  14.503
67587SOL    HW1 4658  10.008  13.215  14.470
67587SOL    HW2 4659   9.899  13.205  14.576
67588SOL     OW 4660   6.164   6.406   6.004
67588SOL    HW1 4661   6.249   6.449   6.015
67588SOL    HW2 4662   6.185   6.320   5.967
67589SOL     OW 4663   2.742   2.106   9.082
67589SOL    HW1 4664   2.755   2.074   8.993
67589SOL    HW2 4665   2.827   2.095   9.125
67590SOL     OW 4666  10.635  12.020  14.360
67590SOL    HW1 4667  10.586  11.956  14.410
67590SOL    HW2 4668  10.640  11.983  14.271
67591SOL     OW 4669  14.417  10.575   7.993
67591SOL    HW1 4670  14.501  10.531   7.977
67591SOL    HW2 4671  14.425  10.610   8.082
67592SOL     OW 4672   9.681   9.265  13.921
67592SOL    HW1 4673   9.723   9.262  14.007
67592SOL    HW2 4674   9.627   9.186  13.918
67593SOL     OW 4675  13.063   3.587   7.926
67593SOL    HW1 4676  13.125   3.543   7.985
67593SOL    HW2 4677  13.057   3.676   7.960
67594SOL     OW 4678   2.750  14.724  14.018
67594SOL    HW1 4679   2.838  14.685  14.011
67594SOL    HW2 4680   2.766  14.818  14.013
67595SOL     OW 4681   7.313   7.403   2.897
67595SOL    HW1 4682   7.401   7.426   2.868
67595SOL    HW2 4683   7.299   7.457   2.975
67596SOL     OW 4684   9.811   7.078  14.633
67596SOL    HW1 4685   9.846   7.025  14.562
67596SOL    HW2 4686   9.888   7.111  14.679
67597SOL     OW 4687   8.470  10.099  13.040
67597SOL    HW1 4688   8.479  10.023  13.097
67597SOL    HW2 4689   8.489  10.066  12.953
67598SOL     OW 4690   8.946   9.948   4.998
67598SOL    HW1 4691   8.933  10.022   5.057
67598SOL    HW2 4692   9.011   9.979   4.935
67599SOL     OW 4693   5.670   7.958   5.985
67599SOL    HW1 4694   5.641   8.020   6.052
67599SOL    HW2 4695   5.731   7.900   6.031
67600SOL     OW 4696   0.338   0.958  11.084
67600SOL    HW1 4697   0.305   0.961  10.994
67600SOL    HW2 4698   0.421   0.911  11.078
67601SOL     OW 4699   0.473   1.627   9.667
67601SOL    HW1 4700   0.433   1.687   9.731
67601SOL    HW2 4701   0.475   1.678   9.586
67602SOL     OW 4702   0.831  14.198   5.288
67602SOL    HW1 4703   0.808  14.108   5.309
67602SOL    HW2 4704   0.923  14.207   5.314
67603SOL     OW 4705  14.355   8.903  11.619
67603SOL    HW1 4706  14.323   8.966  11.555
67603SOL    HW2 4707  14.290   8.905  11.690
67604SOL     OW 4708  13.115   5.753  13.382
67604SOL    HW1 4709  13.076   5.836  13.410
67604SOL    HW2 4710  13.055   5.686  13.416
67605SOL     OW 4711  11.182   3.590  14.144
67605SOL    HW1 4712  11.242   3.647  14.095
67605SOL    HW2 4713  11.191   3.618  14.235
67606SOL     OW 4714   4.266   5.202   3.220
67606SOL    HW1 4715   4.211   5.237   3.291
67606SOL    HW2 4716   4.205   5.186   3.149
67607SOL     OW 4717  11.882   0.028   5.190
67607SOL    HW1 4718  11.888  14.823   5.166
67607SOL    HW2 4719  11.957   0.069   5.146
67608SOL     OW 4720  13.261  10.335   9.788
67608SOL    HW1 4721  13.191  10.269   9.787
67608SOL    HW2 4722  13.253  10.377   9.874
67609SOL     OW 4723  11.934   1.738   4.793
67609SOL    HW1 4724  12.002   1.729   4.860
67609SOL    HW2 4725  11.915   1.648   4.767
67610SOL     OW 4726   7.433  12.345   9.392
67610SOL    HW1 4727   7.342  12.314   9.391
67610SOL    HW2 4728   7.468  12.320   9.306
67611SOL     OW 4729   1.465   3.718   3.420
67611SOL    HW1 4730   1.437   3.674   3.500
67611SOL    HW2 4731   1.498   3.648   3.364
67612SOL     OW 4732   6.869  10.404   6.223
67612SOL    HW1 4733   6.835  10.355   6.298
67612SOL    HW2 4734   6.813  10.481   6.218
67613SOL     OW 4735  11.735  11.927  12.505
67613SOL    HW1 4736  11.714  11.882  12.423
67613SOL    HW2 4737  11.724  11.860  12.573
67614SOL     OW 4738   9.605   1.512  11.232
67614SOL    HW1 4739   9.572   1.442  11.176
67614SOL    HW2 4740   9.686   1.476  11.270
67615SOL     OW 4741   4.362  12.563   3.443
67615SOL    HW1 4742   4.400  12.582   3.357
67615SOL    HW2 4743   4.324  12.646   3.471
67616SOL     OW 4744   6.146  13.784   9.580
67616SOL    HW1 4745   6.114  13.830   9.502
67616SOL    HW2 4746   6.228  13.828   9.602
67617SOL     OW 4747   2.634   9.309   8.357
67617SOL    HW1 4748   2.688   9.301   8.436
67617SOL    HW2 4749   2.569   9.376   8.379
67618SOL     OW 4750   2.312   7.985   2.442
67618SOL    HW1 4751   2.257   7.918   2.401
67618SOL    HW2 4752   2.387   7.994   2.384
67619SOL     OW 4753   6.988  13.175   7.230
67619SOL    HW1 4754   6.946  13.248   7.276
67619SOL    HW2 4755   6.947  13.175   7.143
67620SOL     OW 4756   2.391  10.275   4.219
67620SOL    HW1 4757   2.394  10.194   4.269
67620SOL    HW2 4758   2.430  10.252   4.135
67621SOL     OW 4759   4.982   3.331   1.791
67621SOL    HW1 4760   5.021   3.415   1.767
67621SOL    HW2 4761   5.050   3.287   1.842
67622SOL     OW 4762   0.129   8.852  10.190
67622SOL    HW1 4763   0.139   8.858  10.285
67622SOL    HW2 4764   0.218   8.840  10.157
67623SOL     OW 4765  13.782  11.328  12.209
67623SOL    HW1 4766  13.814  11.315  12.299
67623SOL    HW2 4767  13.849  11.288  12.154
67624SOL     OW 4768  11.420   2.934   3.020
67624SOL    HW1 4769  11.357   2.902   3.084
67624SOL    HW2 4770  11.472   2.857   2.997
67625SOL     OW 4771   8.264   7.698   1.345
67625SOL    HW1 4772   8.228   7.733   1.426
67625SOL    HW2 4773   8.272   7.604   1.361
67626SOL     OW 4774   9.409   7.226   9.182
67626SOL    HW1 4775   9.453   7.284   9.120
67626SOL    HW2 4776   9.346   7.177   9.130
67627SOL     OW 4777   3.876   5.220   0.108
67627SOL    HW1 4778   3.851   5.134   0.074
67627SOL    HW2 4779   3.794   5.257   0.140
67628SOL     OW 4780   7.389   3.465  12.759
67628SOL    HW1 4781   7.431   3.407  12.824
67628SOL    HW2 4782   7.375   3.408  12.683
67629SOL     OW 4783   4.015   2.290   8.530
67629SOL    HW1 4784   3.935   2.334   8.502
67629SOL    HW2 4785   3.996   2.260   8.619
67630SOL     OW 4786   3.110   7.496   7.034
67630SOL    HW1 4787   3.154   7.432   6.978
67630SOL    HW2 4788   3.174   7.515   7.103
67631SOL     OW 4789   0.467   0.511  14.519
67631SOL    HW1 4790   0.401   0.465  14.468
67631SOL    HW2 4791   0.551   0.486  14.479
67632SOL     OW 4792   2.335  13.179   2.290
67632SOL    HW1 4793   2.352  13.159   2.197
67632SOL    HW2 4794   2.336  13.274   2.294
67633SOL     OW 4795   2.768  10.495  12.051
67633SOL    HW1 4796   2.847  10.474  12.102
67633SOL    HW2 4797   2.796  10.489  11.960
67634SOL     OW 4798   6.398   8.524   0.206
67634SOL    HW1 4799   6.319   8.480   0.237
67634SOL    HW2 4800   6.468   8.459   0.219
67635SOL     OW 4801   5.024   1.811   1.679
67635SOL    HW1 4802   5.045   1.718   1.687
67635SOL    HW2 4803   4.962   1.816   1.606
67636SOL     OW 4804   6.457   0.423   5.057
67636SOL    HW1 4805   6.430   0.343   5.013
67636SOL    HW2 4806   6.513   0.468   4.994
67637SOL     OW 4807  12.525  12.151   6.289
67637SOL    HW1 4808  12.535  12.185   6.200
67637SOL    HW2 4809  12.565  12.064   6.286
67638SOL     OW 4810   2.359   9.183   5.746
67638SOL    HW1 4811   2.290   9.234   5.788
67638SOL    HW2 4812   2.351   9.096   5.786
67639SOL     OW 4813  13.959  12.325   9.745
67639SOL    HW1 4814  13.957  12.331   9.840
67639SOL    HW2 4815  13.994  12.409   9.716
67640SOL     OW 4816   4.830   9.070   3.838
67640SOL    HW1 4817   4.897   9.091   3.903
67640SOL    HW2 4818   4.800   8.982   3.863
67641SOL     OW 4819   9.641  13.995  12.235
67641SOL    HW1 4820   9.604  14.082  12.219
67641SOL    HW2 4821   9.721  13.993  12.184
67642SOL     OW 4822   7.561   6.020   1.883
67642SOL    HW1 4823   7.634   6.082   1.880
67642SOL    HW2 4824   7.601   5.935   1.865
67643SOL     OW 4825   2.398  10.156  14.358
67643SOL    HW1 4826   2.338  10.230  14.346
67643SOL    HW2 4827   2.473  10.176  14.301
67644SOL     OW 4828   0.487   2.560  10.773
67644SOL    HW1 4829   0.572   2.600  10.793
67644SOL    HW2 4830   0.460   2.519  10.855
67645SOL     OW 4831  13.247   3.652   8.480
67645SOL    HW1 4832  13.328   3.673   8.434
67645SOL    HW2 4833  13.234   3.724   8.542
67646SOL     OW 4834   9.851   6.176   4.292
67646SOL    HW1 4835   9.942   6.203   4.306
67646SOL    HW2 4836   9.798   6.246   4.331
67647SOL     OW 4837   8.129  10.975   8.058
67647SOL    HW1 4838   8.092  11.029   8.127
67647SOL    HW2 4839   8.102  11.017   7.976
67648SOL     OW 4840   4.007   1.744  11.936
67648SOL    HW1 4841   3.936   1.686  11.962
67648SOL    HW2 4842   4.023   1.798  12.013
67649SOL     OW 4843  14.667  12.252   2.819
67649SOL    HW1 4844  14.632  12.309   2.888
67649SOL    HW2 4845  14.735  12.202   2.862
67650SOL     OW 4846   0.468   4.111   1.084
67650SOL    HW1 4847   0.384   4.066   1.084
67650SOL    HW2 4848   0.527   4.053   1.132
67651SOL     OW 4849  14.550   2.822   5.044
67651SOL    HW1 4850  14.471   2.795   4.996
67651SOL    HW2 4851  14.569   2.748   5.101
67652SOL     OW 4852   0.356  11.379  11.923
67652SOL    HW1 4853   0.329  11.420  11.841
67652SOL    HW2 4854   0.342  11.446  11.990
67653SOL     OW 4855  11.512  10.436   0.094
67653SOL    HW1 4856  11.479  10.489   0.166
67653SOL    HW2 4857  11.466  10.352   0.103
67654SOL     OW 4858  12.578  11.709   6.716
67654SOL    HW1 4859  12.607  11.794   6.750
67654SOL    HW2 4860  12.483  11.715   6.717
67655SOL     OW 4861   4.377   9.044  13.941
67655SOL    HW1 4862   4.448   9.074  13.884
67655SOL    HW2 4863   4.325   9.123  13.957
67656SOL     OW 4864  14.097   7.793  13.697
67656SOL    HW1 4865  14.162   7.749  13.752
67656SOL    HW2 4866  14.033   7.828  13.759
67657SOL     OW 4867  14.871   7.017   5.158
67657SOL    HW1 4868  14.863   7.106   5.191
67657SOL    HW2 4869   0.078   7.001   5.155
67658SOL     OW 4870   5.354  12.344  11.373
67658SOL    HW1 4871   5.399  12.389  11.301
67658SOL    HW2 4872   5.420  12.283  11.408
67659SOL     OW 4873  14.542   4.424  10.090
67659SOL    HW1 4874  14.584   4.451  10.009
67659SOL    HW2 4875  14.535   4.504  10.142
67660SOL     OW 4876  12.015   5.217   8.846
67660SOL    HW1 4877  11.996   5.270   8.769
67660SOL    HW2 4878  12.016   5.279   8.919
67661SOL     OW 4879  14.347  11.874   1.920
67661SOL    HW1 4880  14.265  11.921   1.937
67661SOL    HW2 4881  14.412  11.943   1.910
67662SOL     OW 4882  13.207  12.895  10.599
67662SOL    HW1 4883  13.183  12.853  10.682
67662SOL    HW2 4884  13.197  12.825  10.534
67663SOL     OW 4885  11.850   0.148   0.275
67663SOL    HW1 4886  11.829   0.213   0.208
67663SOL    HW2 4887  11.767   0.104   0.292
67664SOL     OW 4888   0.134  14.742   6.020
67664SOL    HW1 4889   0.134  14.721   6.113
67664SOL    HW2 4890   0.084  14.672   5.979
67665SOL     OW 4891   5.351   2.520  12.185
67665SOL    HW1 4892   5.408   2.503  12.109
67665SOL    HW2 4893   5.390   2.598  12.226
67666SOL     OW 4894   2.814   7.172   0.164
67666SOL    HW1 4895   2.863   7.181   0.246
67666SOL    HW2 4896   2.723   7.178   0.190
67667SOL     OW 4897   9.997   2.569   2.853
67667SOL    HW1 4898   9.939   2.552   2.779
67667SOL    HW2 4899   9.992   2.490   2.906
67668SOL     OW 4900   1.495   7.174  11.099
67668SOL    HW1 4901   1.561   7.244  11.096
67668SOL    HW2 4902   1.415   7.216  11.069
67669SOL     OW 4903   4.321  13.234  14.034
67669SOL    HW1 4904   4.390  13.226  14.100
67669SOL    HW2 4905   4.255  13.170  14.060
67670SOL     OW 4906  10.760  12.797  10.653
67670SOL    HW1 4907  10.802  12.882  10.664
67670SOL    HW2 4908  10.826  12.734  10.681
67671SOL     OW 4909   1.196   0.926   5.437
67671SOL    HW1 4910   1.186   0.948   5.529
67671SOL    HW2 4911   1.259   0.854   5.436
67672SOL     OW 4912   5.712   2.207  13.264
67672SOL    HW1 4913   5.731   2.300  13.251
67672SOL    HW2 4914   5.659   2.205  13.344
67673SOL     OW 4915   6.299   4.841   1.110
67673SOL    HW1 4916   6.348   4.869   1.033
67673SOL    HW2 4917   6.366   4.806   1.169
67674SOL     OW 4918   3.708  13.282   2.004
67674SOL    HW1 4919   3.757  13.332   2.070
67674SOL    HW2 4920   3.765  13.208   1.984
67675SOL     OW 4921   6.502  10.464  14.582
67675SOL    HW1 4922   6.419  10.460  14.630
67675SOL    HW2 4923   6.484  10.524  14.510
67676SOL     OW 4924   1.092   0.482   0.942
67676SOL    HW1 4925   1.015   0.426   0.954
67676SOL    HW2 4926   1.122   0.463   0.854
67677SOL     OW 4927   3.180  10.703   6.533
67677SOL    HW1 4928   3.090  10.732   6.517
67677SOL    HW2 4929   3.171  10.611   6.557
67678SOL     OW 4930   6.846  13.035   9.631
67678SOL    HW1 4931   6.825  12.978   9.557
67678SOL    HW2 4932   6.928  13.000   9.666
67679SOL     OW 4933  12.392   0.155   9.606
67679SOL    HW1 4934  12.409   0.147   9.699
67679SOL    HW2 4935  12.297   0.169   9.600
67680SOL     OW 4936   9.319   7.798   4.455
67680SOL    HW1 4937   9.336   7.780   4.362
67680SOL    HW2 4938   9.404   7.824   4.490
67681SOL     OW 4939  11.315  12.032   3.723
67681SOL    HW1 4940  11.236  12.085   3.730
67681SOL    HW2 4941  11.321  12.010   3.630
67682SOL     OW 4942  11.453   5.232   9.104
67682SOL    HW1 4943  11.380   5.258   9.049
67682SOL    HW2 4944  11.413   5.183   9.177
67683SOL     OW 4945   6.568   1.986   7.035
67683SOL    HW1 4946   6.597   2.042   6.963
67683SOL    HW2 4947   6.629   1.911   7.032
67684SOL     OW 4948   8.214   4.090   6.330
67684SOL    HW1 4949   8.134   4.130   6.365
67684SOL    HW2 4950   8.235   4.144   6.254
67685SOL     OW 4951   0.785  11.977   5.630
67685SOL    HW1 4952   0.832  12.050   5.671
67685SOL    HW2 4953   0.710  12.018   5.586
67686SOL     OW 4954   4.189   5.282  11.723
67686SOL    HW1 4955   4.162   5.269  11.632
67686SOL    HW2 4956   4.156   5.205  11.769
67687SOL     OW 4957   4.731   4.834   7.647
67687SOL    HW1 4958   4.752   4.826   7.554
67687SOL    HW2 4959   4.636   4.819   7.652
67688SOL     OW 4960   0.670   2.418  12.831
67688SOL    HW1 4961   0.623   2.372  12.761
67688SOL    HW2 4962   0.734   2.355  12.863
67689SOL     OW 4963  14.463   9.521  12.244
67689SOL    HW1 4964  14.557   9.507  12.237
67689SOL    HW2 4965  14.446   9.597  12.189
67690SOL     OW 4966  10.359   8.321   3.465
67690SOL    HW1 4967  10.345   8.328   3.371
67690SOL    HW2 4968  10.446   8.360   3.479
67691SOL     OW 4969  10.936  11.153  14.040
67691SOL    HW1 4970  10.875  11.206  14.091
67691SOL    HW2 4971  10.955  11.077  14.096
67692SOL     OW 4972   6.443  11.331  14.510
67692SOL    HW1 4973   6.518  11.387  14.532
67692SOL    HW2 4974   6.366  11.384  14.531
67693SOL     OW 4975   8.103   4.849   9.956
67693SOL    HW1 4976   8.064   4.936   9.960
67693SOL    HW2 4977   8.157   4.842  10.035
67694SOL     OW 4978   7.619  12.342  11.795
67694SOL    HW1 4979   7.568  12.265  11.819
67694SOL    HW2 4980   7.555  12.403  11.757
67695SOL     OW 4981   0.722   5.698   5.437
67695SOL    HW1 4982   0.665   5.765   5.475
67695SOL    HW2 4983   0.662   5.627   5.413
67696SOL     OW 4984   0.829  13.062   2.345
67696SOL    HW1 4985   0.900  13.050   2.408
67696SOL    HW2 4986   0.807  13.155   2.352
67697SOL     OW 4987   9.636   9.229   6.715
67697SOL    HW1 4988   9.593   9.279   6.785
67697SOL    HW2 4989   9.682   9.158   6.760
67698SOL     OW 4990   0.378  13.946  12.519
67698SOL    HW1 4991   0.397  14.038  12.501
67698SOL    HW2 4992   0.305  13.948  12.581
67699SOL     OW 4993   3.299  10.047  11.801
67699SOL    HW1 4994   3.316  10.013  11.713
67699SOL    HW2 4995   3.386  10.060  11.838
67700SOL     OW 4996   0.594   3.450   5.965
67700SOL    HW1 4997   0.578   3.484   6.053
67700SOL    HW2 4998   0.681   3.410   5.969
67701SOL     OW 4999   7.312   1.741   0.503
67701SOL    HW1 5000   7.256   1.700   0.437
67701SOL    HW2 5001   7.253   1.797   0.553
67702SOL     OW 5002   3.866   7.966  13.953
67702SOL    HW1 5003   3.839   7.914  13.877
67702SOL    HW2 5004   3.794   8.029  13.965
67703SOL     OW 5005   2.942  14.286  13.105
67703SOL    HW1 5006   2.873  14.254  13.164
67703SOL    HW2 5007   2.930  14.234  13.025
67704SOL     OW 5008  12.451   8.635   0.274
67704SOL    HW1 5009  12.521   8.573   0.294
67704SOL    HW2 5010  12.372   8.582   0.268
67705SOL     OW 5011   8.747   5.715   6.014
67705SOL    HW1 5012   8.828   5.765   6.022
67705SOL    HW2 5013   8.678   5.781   6.003
67706SOL     OW 5014   4.698  14.089   9.376
67706SOL    HW1 5015   4.771  14.033   9.403
67706SOL    HW2 5016   4.724  14.123   9.291
67707SOL     OW 5017   4.364   3.786   2.835
67707SOL    HW1 5018   4.382   3.844   2.761
67707SOL    HW2 5019   4.276   3.811   2.864
67708SOL     OW 5020   3.505   6.614   7.276
67708SOL    HW1 5021   3.484   6.663   7.356
67708SOL    HW2 5022   3.574   6.554   7.302
67709SOL     OW 5023   7.886  12.639  10.078
67709SOL    HW1 5024   7.803  12.678  10.102
67709SOL    HW2 5025   7.904  12.672   9.990
67710SOL     OW 5026  10.774  10.608   6.791
67710SOL    HW1 5027  10.700  10.552   6.773
67710SOL    HW2 5028  10.824  10.609   6.710
67711SOL     OW 5029   9.298   1.544   9.753
67711SOL    HW1 5030   9.263   1.608   9.815
67711SOL    HW2 5031   9.220   1.503   9.715
67712SOL     OW 5032  14.169   2.893   4.670
67712SOL    HW1 5033  14.078   2.861   4.675
67712SOL    HW2 5034  14.161   2.987   4.654
67713SOL     OW 5035   4.130  13.911   7.998
67713SOL    HW1 5036   4.062  13.956   8.048
67713SOL    HW2 5037   4.146  13.968   7.922
67714SOL     OW 5038  12.629  10.913   8.458
67714SOL    HW1 5039  12.568  10.973   8.501
67714SOL    HW2 5040  12.702  10.969   8.430
67715SOL     OW 5041   8.196  12.116   4.870
67715SOL    HW1 5042   8.158  12.102   4.783
67715SOL    HW2 5043   8.154  12.052   4.926
67716SOL     OW 5044   6.041   4.153  10.567
67716SOL    HW1 5045   6.055   4.230  10.622
67716SOL    HW2 5046   6.130   4.127  10.540
67717SOL     OW 5047   0.234  11.927  14.442
67717SOL    HW1 5048   0.227  11.839  14.479
67717SOL    HW2 5049   0.319  11.927  14.397
67718SOL     OW 5050   4.631  12.235   1.086
67718SOL    HW1 5051   4.637  12.222   0.991
67718SOL    HW2 5052   4.543  12.202   1.108
67719SOL     OW 5053  12.198   0.515   3.622
67719SOL    HW1 5054  12.280   0.529   3.574
67719SOL    HW2 5055  12.141   0.470   3.559
67720SOL     OW 5056   3.318   2.562   1.334
67720SOL    HW1 5057   3.408   2.585   1.359
67720SOL    HW2 5058   3.280   2.526   1.414
67721SOL     OW 5059  11.064   4.012   0.628
67721SOL    HW1 5060  10.993   3.948   0.624
67721SOL    HW2 5061  11.055   4.051   0.715
67722SOL     OW 5062  13.123   8.645  10.998
67722SOL    HW1 5063  13.143   8.564  10.951
67722SOL    HW2 5064  13.040   8.627  11.042
67723SOL     OW 5065   8.582   8.331  14.619
67723SOL    HW1 5066   8.568   8.241  14.590
67723SOL    HW2 5067   8.609   8.378  14.539
67724SOL     OW 5068  11.835   9.723   0.161
67724SOL    HW1 5069  11.896   9.659   0.124
67724SOL    HW2 5070  11.807   9.775   0.086
67725SOL     OW 5071   1.735   9.633   4.612
67725SOL    HW1 5072   1.816   9.650   4.660
67725SOL    HW2 5073   1.764   9.605   4.525
67726SOL     OW 5074   4.264   7.091  10.405
67726SOL    HW1 5075   4.195   7.039  10.446
67726SOL    HW2 5076   4.247   7.084  10.311
67727SOL     OW 5077   2.438   4.313  13.777
67727SOL    HW1 5078   2.484   4.332  13.695
67727SOL    HW2 5079   2.506   4.318  13.844
67728SOL     OW 5080   4.733   3.355  10.208
67728SOL    HW1 5081   4.735   3.260  10.198
67728SOL    HW2 5082   4.774   3.371  10.293
67729SOL     OW 5083   5.613  10.397   9.156
67729SOL    HW1 5084   5.639  10.489   9.150
67729SOL    HW2 5085   5.562  10.382   9.076
67730SOL     OW 5086   2.177  14.319   2.387
67730SOL    HW1 5087   2.155  14.319   2.293
67730SOL    HW2 5088   2.124  14.248   2.423
67731SOL     OW 5089   0.604   2.248  11.829
67731SOL    HW1 5090   0.630   2.260  11.921
67731SOL    HW2 5091   0.609   2.153  11.816
67732SOL     OW 5092  12.498   6.921   4.025
67732SOL    HW1 5093  12.559   6.945   3.955
67732SOL    HW2 5094  12.544   6.947   4.105
67733SOL     OW 5095   7.778   2.800   7.631
67733SOL    HW1 5096   7.840   2.762   7.568
67733SOL    HW2 5097   7.830   2.815   7.710
67734SOL     OW 5098   3.548  10.282  13.063
67734SOL    HW1 5099   3.554  10.206  13.005
67734SOL    HW2 5100   3.635  10.322  13.061
67735SOL     OW 5101  13.228   3.793   3.618
67735SOL    HW1 5102  13.304   3.745   3.651
67735SOL    HW2 5103  13.168   3.795   3.692
67736SOL     OW 5104   0.209   0.534   1.236
67736SOL    HW1 5105   0.215   0.622   1.198
67736SOL    HW2 5106   0.299   0.501   1.233
67737SOL     OW 5107   8.172   5.324   8.409
67737SOL    HW1 5108   8.265   5.344   8.420
67737SOL    HW2 5109   8.130   5.361   8.486
67738SOL     OW 5110   8.276  13.308   9.219
67738SOL    HW1 5111   8.368  13.334   9.229
67738SOL    HW2 5112   8.229  13.391   9.205
67739SOL     OW 5113  11.303   5.973   1.140
67739SOL    HW1 5114  11.254   6.007   1.066
67739SOL    HW2 5115  11.322   6.049   1.194
67740SOL     OW 5116   0.837   3.060   5.639
67740SOL    HW1 5117   0.761   3.000   5.639
67740SOL    HW2 5118   0.806   3.138   5.594
67741SOL     OW 5119  13.338   8.285   1.484
67741SOL    HW1 5120  13.345   8.381   1.486
67741SOL    HW2 5121  13.245   8.268   1.496
67742SOL     OW 5122  12.313   9.044   5.960
67742SOL    HW1 5123  12.317   9.085   5.873
67742SOL    HW2 5124  12.243   8.980   5.952
67743SOL     OW 5125  12.650   7.788   5.877
67743SOL    HW1 5126  12.699   7.841   5.814
67743SOL    HW2 5127  12.716   7.757   5.939
67744SOL     OW 5128   3.258  13.921   9.035
67744SOL    HW1 5129   3.297  13.959   8.956
67744SOL    HW2 5130   3.258  13.993   9.098
67745SOL     OW 5131  12.262   3.231   5.524
67745SOL    HW1 5132  12.228   3.210   5.611
67745SOL    HW2 5133  12.294   3.148   5.489
67746SOL     OW 5134  12.138   8.317  12.356
67746SOL    HW1 5135  12.105   8.243  12.304
67746SOL    HW2 5136  12.156   8.278  12.442
67747SOL     OW 5137   5.053   0.857   5.691
67747SOL    HW1 5138   5.061   0.786   5.755
67747SOL    HW2 5139   5.115   0.834   5.622
67748SOL     OW 5140  12.843   3.185  11.891
67748SOL    HW1 5141  12.892   3.148  11.964
67748SOL    HW2 5142  12.899   3.170  11.815
67749SOL     OW 5143  11.331   6.426  10.571
67749SOL    HW1 5144  11.308   6.500  10.626
67749SOL    HW2 5145  11.248   6.392  10.539
67750SOL     OW 5146   2.400  10.138   3.318
67750SOL    HW1 5147   2.327  10.085   3.285
67750SOL    HW2 5148   2.385  10.224   3.280
67751SOL     OW 5149   7.642   2.672   1.696
67751SOL    HW1 5150   7.699   2.598   1.718
67751SOL    HW2 5151   7.554   2.643   1.722
67752SOL     OW 5152  14.168   9.690   8.652
67752SOL    HW1 5153  14.144   9.642   8.730
67752SOL    HW2 5154  14.121   9.646   8.581
67753SOL     OW 5155   5.545   8.779   7.525
67753SOL    HW1 5156   5.587   8.719   7.587
67753SOL    HW2 5157   5.456   8.745   7.516
67754SOL     OW 5158   3.072  11.284   3.600
67754SOL    HW1 5159   3.155  11.310   3.560
67754SOL    HW2 5160   3.016  11.361   3.591
67755SOL     OW 5161   5.633  13.904  13.649
67755SOL    HW1 5162   5.648  13.834  13.713
67755SOL    HW2 5163   5.563  13.871  13.593
67756SOL     OW 5164   9.005  10.013   6.269
67756SOL    HW1 5165   8.911  10.030   6.266
67756SOL    HW2 5166   9.043  10.094   6.303
67757SOL     OW 5167  14.558   5.483   2.191
67757SOL    HW1 5168  14.586   5.500   2.281
67757SOL    HW2 5169  14.522   5.394   2.194
67758SOL     OW 5170   7.177   7.166   1.129
67758SOL    HW1 5171   7.169   7.248   1.079
67758SOL    HW2 5172   7.229   7.190   1.206
67759SOL     OW 5173   9.346  10.618   7.136
67759SOL    HW1 5174   9.432  10.654   7.157
67759SOL    HW2 5175   9.334  10.636   7.043
67760SOL     OW 5176  11.611   1.301   7.794
67760SOL    HW1 5177  11.661   1.354   7.732
67760SOL    HW2 5178  11.531   1.279   7.747
67761SOL     OW 5179   4.363   9.807  10.355
67761SOL    HW1 5180   4.284   9.771  10.315
67761SOL    HW2 5181   4.331   9.870  10.419
67762SOL     OW 5182   5.325   7.136  13.112
67762SOL    HW1 5183   5.334   7.058  13.166
67762SOL    HW2 5184   5.415   7.160  13.090
67763SOL     OW 5185   3.179   3.389   8.438
67763SOL    HW1 5186   3.121   3.397   8.362
67763SOL    HW2 5187   3.121   3.367   8.511
67764SOL     OW 5188   6.042   8.431   1.975
67764SOL    HW1 5189   5.983   8.458   1.904
67764SOL    HW2 5190   6.063   8.513   2.021
67765SOL     OW 5191   2.369   1.384   9.967
67765SOL    HW1 5192   2.289   1.372  10.018
67765SOL    HW2 5193   2.345   1.447   9.899
67766SOL     OW 5194   4.176  13.079   8.729
67766SOL    HW1 5195   4.212  13.136   8.797
67766SOL    HW2 5196   4.204  13.119   8.647
67767SOL     OW 5197   0.934   0.431  11.154
67767SOL    HW1 5198   1.027   0.436  11.134
67767SOL    HW2 5199   0.898   0.367  11.093
67768SOL     OW 5200   9.525  10.127   6.015
67768SOL    HW1 5201   9.574  10.179   5.952
67768SOL    HW2 5202   9.532  10.175   6.097
67769SOL     OW 5203   4.202  11.257  14.494
67769SOL    HW1 5204   4.270  11.245  14.428
67769SOL    HW2 5205   4.204  11.351  14.514
67770SOL     OW 5206   7.085  14.341   7.743
67770SOL    HW1 5207   7.083  14.429   7.705
67770SOL    HW2 5208   7.119  14.354   7.832
67771SOL     OW 5209  12.842  13.845   0.532
67771SOL    HW1 5210  12.768  13.875   0.478
67771SOL    HW2 5211  12.905  13.809   0.469
67772SOL     OW 5212   7.075   3.226   1.126
67772SOL    HW1 5213   6.988   3.210   1.162
67772SOL    HW2 5214   7.103   3.307   1.168
67773SOL     OW 5215  14.521  10.149   8.520
67773SOL    HW1 5216  14.564  10.227   8.486
67773SOL    HW2 5217  14.494  10.100   8.441
67774SOL     OW 5218  12.356  11.785   9.418
67774SOL    HW1 5219  12.357  11.800   9.512
67774SOL    HW2 5220  12.267  11.754   9.399
67775SOL     OW 5221   0.239   1.744   3.461
67775SOL    HW1 5222   0.270   1.815   3.405
67775SOL    HW2 5223   0.282   1.759   3.545
67776SOL     OW 5224   4.206   6.066  12.477
67776SOL    HW1 5225   4.140   5.998  12.492
67776SOL    HW2 5226   4.289   6.023  12.498
67777SOL     OW 5227  12.589   8.206   8.762
67777SOL    HW1 5228  12.546   8.208   8.848
67777SOL    HW2 5229  12.537   8.145   8.710
67778SOL     OW 5230   9.531   8.776  14.477
67778SOL    HW1 5231   9.477   8.737  14.545
67778SOL    HW2 5232   9.495   8.741  14.395
67779SOL     OW 5233   2.813   6.541   4.801
67779SOL    HW1 5234   2.871   6.584   4.864
67779SOL    HW2 5235   2.844   6.450   4.798
67780SOL     OW 5236   2.603  12.537   9.371
67780SOL    HW1 5237   2.602  12.445   9.345
67780SOL    HW2 5238   2.673  12.544   9.436
67781SOL     OW 5239   5.228  11.726   4.507
67781SOL    HW1 5240   5.273  11.794   4.457
67781SOL    HW2 5241   5.137  11.730   4.476
67782SOL     OW 5242   8.470  10.359   3.881
67782SOL    HW1 5243   8.485  10.437   3.934
67782SOL    HW2 5244   8.555  10.315   3.876
67783SOL     OW 5245   4.245   8.844   2.062
67783SOL    HW1 5246   4.336   8.857   2.034
67783SOL    HW2 5247   4.202   8.927   2.041
67784SOL     OW 5248  13.863   2.130  10.364
67784SOL    HW1 5249  13.940   2.128  10.420
67784SOL    HW2 5250  13.800   2.073  10.409
67785SOL     OW 5251   3.843   9.092   8.325
67785SOL    HW1 5252   3.935   9.112   8.310
67785SOL    HW2 5253   3.796   9.145   8.261
67786SOL     OW 5254   7.287   4.242  13.705
67786SOL    HW1 5255   7.231   4.315  13.732
67786SOL    HW2 5256   7.226   4.171  13.686
67787SOL     OW 5257   5.834   2.015   1.232
67787SOL    HW1 5258   5.866   2.007   1.322
67787SOL    HW2 5259   5.893   2.079   1.192
67788SOL     OW 5260   2.207   0.948   1.612
67788SOL    HW1 5261   2.177   1.005   1.683
67788SOL    HW2 5262   2.242   0.871   1.657
67789SOL     OW 5263   2.329  13.085   5.844
67789SOL    HW1 5264   2.258  13.125   5.893
67789SOL    HW2 5265   2.288  13.055   5.763
67790SOL     OW 5266   5.098   8.415   7.547
67790SOL    HW1 5267   5.159   8.437   7.618
67790SOL    HW2 5268   5.138   8.339   7.504
67791SOL     OW 5269   6.939   5.574   9.158
67791SOL    HW1 5270   6.877   5.599   9.089
67791SOL    HW2 5271   6.885   5.568   9.237
67792SOL     OW 5272  12.574   5.621   0.248
67792SOL    HW1 5273  12.559   5.685   0.179
67792SOL    HW2 5274  12.666   5.632   0.271
67793SOL     OW 5275   4.532   4.308  10.406
67793SOL    HW1 5276   4.593   4.345  10.470
67793SOL    HW2 5277   4.586   4.289  10.329
67794SOL     OW 5278   4.825  10.375  13.430
67794SOL    HW1 5279   4.740  10.406  13.458
67794SOL    HW2 5280   4.881  10.453  13.430
67795SOL     OW 5281  13.726   4.492  14.884
67795SOL    HW1 5282  13.707   4.418  14.827
67795SOL    HW2 5283  13.745   4.452   0.082
67796SOL     OW 5284  13.624   0.044   2.724
67796SOL    HW1 5285  13.631   0.100   2.647
67796SOL    HW2 5286  13.693  14.866   2.713
67797SOL     OW 5287   9.804   4.082   4.685
67797SOL    HW1 5288   9.783   4.080   4.778
67797SOL    HW2 5289   9.775   3.997   4.652
67798SOL     OW 5290  10.321   8.466  10.671
67798SOL    HW1 5291  10.406   8.421  10.673
67798SOL    HW2 5292  10.335   8.539  10.611
67799SOL     OW 5293  11.515  12.496   6.205
67799SOL    HW1 5294  11.443  12.437   6.226
67799SOL    HW2 5295  11.477  12.583   6.210
67800SOL     OW 5296  10.205   1.872   6.476
67800SOL    HW1 5297  10.112   1.887   6.459
67800SOL    HW2 5298  10.244   1.862   6.389
67801SOL     OW 5299   9.049   0.681  10.379
67801SOL    HW1 5300   9.038   0.769  10.341
67801SOL    HW2 5301   9.081   0.628  10.307
67802SOL     OW 5302   7.825   6.892  10.860
67802SOL    HW1 5303   7.849   6.977  10.823
67802SOL    HW2 5304   7.784   6.913  10.944
67803SOL     OW 5305  10.504   9.001  14.725
67803SOL    HW1 5306  10.429   8.982  14.781
67803SOL    HW2 5307  10.576   8.952  14.764
67804SOL     OW 5308   2.015  10.831   9.858
67804SOL    HW1 5309   1.928  10.798   9.833
67804SOL    HW2 5310   2.064  10.833   9.776
67805SOL     OW 5311   5.822   2.427  14.580
67805SOL    HW1 5312   5.797   2.334  14.585
67805SOL    HW2 5313   5.805   2.461  14.668
67806SOL     OW 5314   0.276   2.410   3.322
67806SOL    HW1 5315   0.309   2.331   3.364
67806SOL    HW2 5316   0.190   2.424   3.361
67807SOL     OW 5317   0.302   5.827  11.304
67807SOL    HW1 5318   0.350   5.752  11.339
67807SOL    HW2 5319   0.352   5.903  11.333
67808SOL     OW 5320   2.822   4.836  14.578
67808SOL    HW1 5321   2.814   4.771  14.507
67808SOL    HW2 5322   2.878   4.904  14.541
67809SOL     OW 5323   8.493  13.409   2.743
67809SOL    HW1 5324   8.455  13.356   2.813
67809SOL    HW2 5325   8.570  13.450   2.784
67810SOL     OW 5326   3.040   2.126   4.214
67810SOL    HW1 5327   3.021   2.059   4.279
67810SOL    HW2 5328   3.007   2.089   4.132
67811SOL     OW 5329   1.701  12.523   6.394
67811SOL    HW1 5330   1.735  12.514   6.483
67811SOL    HW2 5331   1.678  12.434   6.368
67812SOL     OW 5332   1.126   2.501  12.284
67812SOL    HW1 5333   1.105   2.531  12.196
67812SOL    HW2 5334   1.044   2.506  12.333
67813SOL     OW 5335   5.367   3.445   0.354
67813SOL    HW1 5336   5.331   3.486   0.274
67813SOL    HW2 5337   5.461   3.442   0.339
67814SOL     OW 5338   6.461  11.188   8.227
67814SOL    HW1 5339   6.388  11.162   8.283
67814SOL    HW2 5340   6.515  11.245   8.283
67815SOL     OW 5341   1.757   4.434   0.787
67815SOL    HW1 5342   1.731   4.370   0.720
67815SOL    HW2 5343   1.721   4.517   0.756
67816SOL     OW 5344   9.815   6.370   2.328
67816SOL    HW1 5345   9.845   6.451   2.370
67816SOL    HW2 5346   9.737   6.345   2.378
67817SOL     OW 5347   1.703   5.405  14.163
67817SOL    HW1 5348   1.667   5.347  14.097
67817SOL    HW2 5349   1.647   5.483  14.160
67818SOL     OW 5350   0.593   6.066  11.718
67818SOL    HW1 5351   0.525   6.044  11.655
67818SOL    HW2 5352   0.674   6.068  11.667
67819SOL     OW 5353   0.012  11.674   9.999
67819SOL    HW1 5354  14.887  11.692  10.092
67819SOL    HW2 5355   0.041  11.757   9.961
67820SOL     OW 5356   0.834  13.398  14.644
67820SOL    HW1 5357   0.816  13.478  14.595
67820SOL    HW2 5358   0.870  13.338  14.579
67821SOL     OW 5359   7.398   6.210   2.120
67821SOL    HW1 5360   7.401   6.305   2.115
67821SOL    HW2 5361   7.489   6.183   2.130
67822SOL     OW 5362   3.164  10.349   4.876
67822SOL    HW1 5363   3.237  10.323   4.932
67822SOL    HW2 5364   3.168  10.444   4.875
67823SOL     OW 5365  13.505   3.146  13.452
67823SOL    HW1 5366  13.419   3.103  13.450
67823SOL    HW2 5367  13.545   3.124  13.368
67824SOL     OW 5368   9.360   3.059   6.029
67824SOL    HW1 5369   9.447   3.079   6.064
67824SOL    HW2 5370   9.299   3.092   6.094
67825SOL     OW 5371  13.746  10.232   9.440
67825SOL    HW1 5372  13.818  10.259   9.382
67825SOL    HW2 5373  13.733  10.307   9.498
67826SOL     OW 5374  14.298  12.784   6.697
67826SOL    HW1 5375  14.320  12.872   6.728
67826SOL    HW2 5376  14.308  12.788   6.602
67827SOL     OW 5377  12.558  13.588   4.821
67827SOL    HW1 5378  12.654  13.593   4.826
67827SOL    HW2 5379  12.528  13.596   4.911
67828SOL     OW 5380   4.177   4.540   1.321
67828SOL    HW1 5381   4.223   4.615   1.283
67828SOL    HW2 5382   4.222   4.464   1.284
67829SOL     OW 5383  14.584   8.022  12.340
67829SOL    HW1 5384  14.518   7.972  12.387
67829SOL    HW2 5385  14.556   8.113  12.349
67830SOL     OW 5386   5.045   2.309   4.843
67830SOL    HW1 5387   5.139   2.297   4.851
67830SOL    HW2 5388   5.023   2.376   4.909
67831SOL     OW 5389  12.946  11.004   0.048
67831SOL    HW1 5390  12.990  10.934   0.096
67831SOL    HW2 5391  12.868  10.963   0.012
67832SOL     OW 5392   3.726   5.181   4.812
67832SOL    HW1 5393   3.771   5.097   4.819
67832SOL    HW2 5394   3.758   5.219   4.730
67833SOL     OW 5395  14.655   3.476   2.342
67833SOL    HW1 5396  14.562   3.456   2.354
67833SOL    HW2 5397  14.672   3.547   2.405
67834SOL     OW 5398   8.521  14.777   5.751
67834SOL    HW1 5399   8.438  14.732   5.768
67834SOL    HW2 5400   8.516  14.800   5.658
67835SOL     OW 5401   5.293   8.759   2.490
67835SOL    HW1 5402   5.232   8.700   2.534
67835SOL    HW2 5403   5.379   8.725   2.514
67836SOL     OW 5404   4.043   6.701   3.150
67836SOL    HW1 5405   4.014   6.614   3.176
67836SOL    HW2 5406   3.997   6.760   3.210
67837SOL     OW 5407  12.044   6.849   6.722
67837SOL    HW1 5408  11.984   6.915   6.757
67837SOL    HW2 5409  11.996   6.810   6.649
67838SOL     OW 5410   3.285   1.560   3.454
67838SOL    HW1 5411   3.288   1.542   3.360
67838SOL    HW2 5412   3.201   1.525   3.483
67839SOL     OW 5413  12.287   5.336   0.480
67839SOL    HW1 5414  12.192   5.325   0.468
67839SOL    HW2 5415  12.316   5.379   0.400
67840SOL     OW 5416   6.870  14.557  13.146
67840SOL    HW1 5417   6.793  14.571  13.090
67840SOL    HW2 5418   6.889  14.464  13.136
67841SOL     OW 5419   7.786   3.226   5.904
67841SOL    HW1 5420   7.843   3.277   5.962
67841SOL    HW2 5421   7.837   3.148   5.882
67842SOL     OW 5422   0.941   0.074   4.881
67842SOL    HW1 5423   0.969   0.163   4.901
67842SOL    HW2 5424   0.949   0.067   4.786
67843SOL     OW 5425  12.522  14.843   1.213
67843SOL    HW1 5426  12.518  14.830   1.308
67843SOL    HW2 5427  12.608  14.810   1.188
67844SOL     OW 5428  14.573   8.358  12.448
67844SOL    HW1 5429  14.620   8.413  12.385
67844SOL    HW2 5430  14.481   8.378  12.433
67845SOL     OW 5431  11.181  14.797   6.855
67845SOL    HW1 5432  11.198  14.845   6.936
67845SOL    HW2 5433  11.102  14.746   6.874
67846SOL     OW 5434   3.402  14.122  12.418
67846SOL    HW1 5435   3.360  14.206  12.399
67846SOL    HW2 5436   3.495  14.138  12.408
67847SOL     OW 5437   9.898  10.182  11.600
67847SOL    HW1 5438   9.879  10.104  11.547
67847SOL    HW2 5439   9.901  10.254  11.536
67848SOL     OW 5440   6.037   0.294  11.127
67848SOL    HW1 5441   6.116   0.300  11.074
67848SOL    HW2 5442   6.009   0.384  11.141
67849SOL     OW 5443   0.837   2.298   0.022
67849SOL    HW1 5444   0.893   2.352  14.854
67849SOL    HW2 5445   0.851   2.209  14.877
67850SOL     OW 5446   2.064  12.873   8.201
67850SOL    HW1 5447   2.099  12.800   8.150
67850SOL    HW2 5448   2.092  12.951   8.153
67851SOL     OW 5449   8.774   2.872   3.625
67851SOL    HW1 5450   8.862   2.890   3.658
67851SOL    HW2 5451   8.787   2.845   3.534
67852SOL     OW 5452   5.478   1.740   4.466
67852SOL    HW1 5453   5.443   1.651   4.468
67852SOL    HW2 5454   5.446   1.776   4.384
67853SOL     OW 5455  11.747  13.802  13.891
67853SOL    HW1 5456  11.652  13.815  13.897
67853SOL    HW2 5457  11.777  13.804  13.982
67854SOL     OW 5458   0.015  14.456  13.032
67854SOL    HW1 5459  14.809  14.470  13.018
67854SOL    HW2 5460   0.027  14.464  13.127
67855SOL     OW 5461   3.006  13.767   6.784
67855SOL    HW1 5462   3.092  13.777   6.824
67855SOL    HW2 5463   2.945  13.775   6.858
67856SOL     OW 5464   1.803   8.729   0.007
67856SOL    HW1 5465   1.822   8.713   0.099
67856SOL    HW2 5466   1.881   8.772  14.860
67857SOL     OW 5467   8.271   4.242   4.078
67857SOL    HW1 5468   8.364   4.226   4.091
67857SOL    HW2 5469   8.245   4.179   4.011
67858SOL     OW 5470   5.745   0.788   5.343
67858SOL    HW1 5471   5.840   0.795   5.335
67858SOL    HW2 5472   5.715   0.767   5.255
67859SOL     OW 5473   5.065  13.651   7.114
67859SOL    HW1 5474   5.007  13.575   7.108
67859SOL    HW2 5475   5.006  13.725   7.127
67860SOL     OW 5476   2.723   2.133  11.242
67860SOL    HW1 5477   2.721   2.097  11.154
67860SOL    HW2 5478   2.795   2.088  11.286
67861SOL     OW 5479  14.852   5.403   7.906
67861SOL    HW1 5480  14.866   5.318   7.948
67861SOL    HW2 5481   0.037   5.458   7.939
67862SOL     OW 5482  11.721   4.891   6.453
67862SOL    HW1 5483  11.783   4.843   6.398
67862SOL    HW2 5484  11.702   4.831   6.525
67863SOL     OW 5485  13.100  12.736   5.112
67863SOL    HW1 5486  13.043  12.700   5.044
67863SOL    HW2 5487  13.057  12.818   5.138
67864SOL     OW 5488   8.918   0.848  12.295
67864SOL    HW1 5489   8.897   0.807  12.380
67864SOL    HW2 5490   8.970   0.924  12.317
67865SOL     OW 5491   6.921   3.631  12.405
67865SOL    HW1 5492   6.913   3.720  12.439
67865SOL    HW2 5493   6.955   3.580  12.479
67866SOL     OW 5494   1.657   8.478   7.805
67866SOL    HW1 5495   1.712   8.442   7.874
67866SOL    HW2 5496   1.591   8.530   7.850
67867SOL     OW 5497   2.314  11.676   3.347
67867SOL    HW1 5498   2.323  11.587   3.381
67867SOL    HW2 5499   2.267  11.665   3.264
67868SOL     OW 5500   3.855  11.532   7.711
67868SOL    HW1 5501   3.917  11.476   7.758
67868SOL    HW2 5502   3.835  11.603   7.772
67869SOL     OW 5503   9.349   8.705  12.652
67869SOL    HW1 5504   9.445   8.715  12.652
67869SOL    HW2 5505   9.325   8.709  12.559
67870SOL     OW 5506   6.184   8.352  11.931
67870SOL    HW1 5507   6.251   8.401  11.978
67870SOL    HW2 5508   6.227   8.325  11.849
67871SOL     OW 5509   1.651   3.377  12.345
67871SOL    HW1 5510   1.745   3.362  12.334
67871SOL    HW2 5511   1.613   3.289  12.340
67872SOL     OW 5512   7.065  12.357   1.104
67872SOL    HW1 5513   7.078  12.336   1.197
67872SOL    HW2 5514   7.141  12.320   1.060
67873SOL     OW 5515  10.193   5.744  11.432
67873SOL    HW1 5516  10.217   5.744  11.339
67873SOL    HW2 5517  10.275   5.724  11.477
67874SOL     OW 5518  13.850   7.518  13.317
67874SOL    HW1 5519  13.771   7.476  13.281
67874SOL    HW2 5520  13.861   7.478  13.403
67875SOL     OW 5521   0.826  11.428  11.402
67875SOL    HW1 5522   0.878  11.363  11.450
67875SOL    HW2 5523   0.750  11.379  11.371
67876SOL     OW 5524   3.180  10.932   0.061
67876SOL    HW1 5525   3.131  11.013   0.048
67876SOL    HW2 5526   3.163  10.908   0.152
67877SOL     OW 5527  11.731   7.450   7.463
67877SOL    HW1 5528  11.682   7.532   7.460
67877SOL    HW2 5529  11.728   7.424   7.555
67878SOL     OW 5530   3.250  11.302  12.640
67878SOL    HW1 5531   3.169  11.264  12.672
67878SOL    HW2 5532   3.319  11.245  12.674
67879SOL     OW 5533   7.771   5.875   9.123
67879SOL    HW1 5534   7.749   5.939   9.055
67879SOL    HW2 5535   7.777   5.926   9.203
67880SOL     OW 5536   2.566   2.614   6.068
67880SOL    HW1 5537   2.625   2.580   6.000
67880SOL    HW2 5538   2.479   2.605   6.030
67881SOL     OW 5539  11.395   0.365  11.852
67881SOL    HW1 5540  11.353   0.290  11.894
67881SOL    HW2 5541  11.423   0.420  11.924
67882SOL     OW 5542   9.522   5.341   1.255
67882SOL    HW1 5543   9.462   5.349   1.329
67882SOL    HW2 5544   9.577   5.420   1.261
67883SOL     OW 5545  11.430   3.029   4.579
67883SOL    HW1 5546  11.398   3.116   4.601
67883SOL    HW2 5547  11.466   2.995   4.661
67884SOL     OW 5548   4.679   6.470   5.262
67884SOL    HW1 5549   4.676   6.562   5.286
67884SOL    HW2 5550   4.630   6.465   5.179
67885SOL     OW 5551   3.626   7.458   1.528
67885SOL    HW1 5552   3.614   7.364   1.513
67885SOL    HW2 5553   3.542   7.497   1.505
67886SOL     OW 5554   2.832  12.091  14.779
67886SOL    HW1 5555   2.849  12.153  14.708
67886SOL    HW2 5556   2.780  12.140  14.842
67887SOL     OW 5557  12.127   9.518   2.796
67887SOL    HW1 5558  12.181   9.464   2.738
67887SOL    HW2 5559  12.063   9.559   2.737
67888SOL     OW 5560  10.255   7.059  12.204
67888SOL    HW1 5561  10.246   7.150  12.175
67888SOL    HW2 5562  10.338   7.030  12.167
67889SOL     OW 5563   8.179   4.044   6.022
67889SOL    HW1 5564   8.247   3.994   5.977
67889SOL    HW2 5565   8.227   4.110   6.072
67890SOL     OW 5566   4.848   6.267  12.379
67890SOL    HW1 5567   4.824   6.342  12.324
67890SOL    HW2 5568   4.765   6.236  12.415
67891SOL     OW 5569   3.875   5.475  13.113
67891SOL    HW1 5570   3.786   5.441  13.101
67891SOL    HW2 5571   3.882   5.494  13.207
67892SOL     OW 5572  13.377   3.895   5.755
67892SOL    HW1 5573  13.464   3.900   5.716
67892SOL    HW2 5574  13.393   3.898   5.849
67893SOL     OW 5575  10.206   7.451  14.210
67893SOL    HW1 5576  10.209   7.547  14.211
67893SOL    HW2 5577  10.248   7.427  14.127
67894SOL     OW 5578  14.629   8.211  10.061
67894SOL    HW1 5579  14.701   8.149  10.068
67894SOL    HW2 5580  14.570   8.188  10.133
67895SOL     OW 5581   9.110   8.736  10.331
67895SOL    HW1 5582   9.102   8.706  10.421
67895SOL    HW2 5583   9.173   8.676  10.291
67896SOL     OW 5584  12.643   2.399   5.142
67896SOL    HW1 5585  12.590   2.465   5.188
67896SOL    HW2 5586  12.670   2.338   5.211
67897SOL     OW 5587  14.775  12.588   3.475
67897SOL    HW1 5588  14.732  12.674   3.477
67897SOL    HW2 5589  14.815  12.579   3.561
67898SOL     OW 5590  13.482   8.777  13.725
67898SOL    HW1 5591  13.492   8.843  13.793
67898SOL    HW2 5592  13.389   8.753  13.729
67899SOL     OW 5593  11.009  12.349  13.160
67899SOL    HW1 5594  10.926  12.318  13.124
67899SOL    HW2 5595  10.987  12.428  13.210
67900SOL     OW 5596   4.729   4.359  13.380
67900SOL    HW1 5597   4.634   4.369  13.385
67900SOL    HW2 5598   4.751   4.296  13.448
67901SOL     OW 5599   9.561   3.954   7.976
67901SOL    HW1 5600   9.608   3.980   7.897
67901SOL    HW2 5601   9.602   4.006   8.046
67902SOL     OW 5602  13.601  12.333   3.143
67902SOL    HW1 5603  13.623  12.293   3.228
67902SOL    HW2 5604  13.654  12.285   3.080
67903SOL     OW 5605  12.833   0.118   4.820
67903SOL    HW1 5606  12.817   0.154   4.908
67903SOL    HW2 5607  12.747   0.088   4.791
67904SOL     OW 5608   1.610   2.796   5.820
67904SOL    HW1 5609   1.567   2.863   5.767
67904SOL    HW2 5610   1.650   2.845   5.892
67905SOL     OW 5611  10.137   6.713   9.962
67905SOL    HW1 5612  10.197   6.766   9.909
67905SOL    HW2 5613  10.054   6.716   9.914
67906SOL     OW 5614  10.918   3.951   8.534
67906SOL    HW1 5615  10.909   3.889   8.606
67906SOL    HW2 5616  10.833   3.950   8.490
67907SOL     OW 5617   9.000   7.630   0.896
67907SOL    HW1 5618   8.950   7.712   0.900
67907SOL    HW2 5619   8.996   7.604   0.804
67908SOL     OW 5620  12.714  14.663  14.718
67908SOL    HW1 5621  12.729  14.754  14.741
67908SOL    HW2 5622  12.726  14.615  14.799
67909SOL     OW 5623  11.967  13.637   6.040
67909SOL    HW1 5624  12.007  13.574   6.100
67909SOL    HW2 5625  11.894  13.588   6.000
67910SOL     OW 5626   3.968  14.220   8.990
67910SOL    HW1 5627   3.976  14.296   8.932
67910SOL    HW2 5628   4.010  14.248   9.071
67911SOL     OW 5629   1.483  12.554   9.081
67911SOL    HW1 5630   1.575  12.529   9.089
67911SOL    HW2 5631   1.444  12.531   9.165
67912SOL     OW 5632   0.072   4.724   2.283
67912SOL    HW1 5633   0.103   4.812   2.306
67912SOL    HW2 5634   0.151   4.676   2.258
67913SOL     OW 5635   5.486  12.067  12.607
67913SOL    HW1 5636   5.453  12.024  12.686
67913SOL    HW2 5637   5.407  12.093  12.560
67914SOL     OW 5638   4.944   5.012  10.907
67914SOL    HW1 5639   4.944   4.974  10.819
67914SOL    HW2 5640   4.920   5.104  10.893
67915SOL     OW 5641   6.996  13.436   2.375
67915SOL    HW1 5642   7.009  13.517   2.424
67915SOL    HW2 5643   7.042  13.369   2.425
67916SOL     OW 5644  10.604   2.469  12.618
67916SOL    HW1 5645  10.674   2.490  12.556
67916SOL    HW2 5646  10.645   2.411  12.681
67917SOL     OW 5647   3.028  11.528   4.054
67917SOL    HW1 5648   3.079  11.553   3.977
67917SOL    HW2 5649   2.965  11.599   4.065
67918SOL     OW 5650  11.642  11.501   8.475
67918SOL    HW1 5651  11.723  11.522   8.521
67918SOL    HW2 5652  11.575  11.554   8.518
67919SOL     OW 5653  14.639   5.672  12.030
67919SOL    HW1 5654  14.561   5.658  11.976
67919SOL    HW2 5655  14.627   5.614  12.106
67920SOL     OW 5656   3.278   6.686   1.216
67920SOL    HW1 5657   3.268   6.773   1.177
67920SOL    HW2 5658   3.332   6.638   1.154
67921SOL     OW 5659   7.306  12.099  13.979
67921SOL    HW1 5660   7.366  12.026  13.996
67921SOL    HW2 5661   7.355  12.156  13.919
67922SOL     OW 5662  12.532   6.415   8.891
67922SOL    HW1 5663  12.458   6.398   8.949
67922SOL    HW2 5664  12.581   6.485   8.935
67923SOL     OW 5665   5.297   9.100  11.266
67923SOL    HW1 5666   5.238   9.097  11.191
67923SOL    HW2 5667   5.251   9.153  11.331
67924SOL     OW 5668  12.132   5.973  12.898
67924SOL    HW1 5669  12.227   5.960  12.895
67924SOL    HW2 5670  12.119   6.038  12.968
67925SOL     OW 5671   2.573   5.268  14.661
67925SOL    HW1 5672   2.497   5.318  14.630
67925SOL    HW2 5673   2.600   5.216  14.585
67926SOL     OW 5674   6.492  12.115   8.534
67926SOL    HW1 5675   6.416  12.075   8.576
67926SOL    HW2 5676   6.565  12.055   8.554
67927SOL     OW 5677   3.992   0.170  13.571
67927SOL    HW1 5678   3.934   0.153  13.646
67927SOL    HW2 5679   4.072   0.121  13.591
67928SOL     OW 5680   6.775  10.099   5.969
67928SOL    HW1 5681   6.839  10.169   5.976
67928SOL    HW2 5682   6.810  10.041   5.902
67929SOL     OW 5683   7.341  14.386   1.721
67929SOL    HW1 5684   7.340  14.299   1.762
67929SOL    HW2 5685   7.361  14.369   1.629
67930SOL     OW 5686  13.900  14.509   8.753
67930SOL    HW1 5687  13.927  14.541   8.839
67930SOL    HW2 5688  13.894  14.588   8.699
67931SOL     OW 5689   6.696  11.692   7.758
67931SOL    HW1 5690   6.603  11.684   7.779
67931SOL    HW2 5691   6.698  11.706   7.663
67932SOL     OW 5692   7.948   6.073   0.184
67932SOL    HW1 5693   7.874   6.130   0.202
67932SOL    HW2 5694   8.025   6.130   0.189
67933SOL     OW 5695  10.011   6.428   4.708
67933SOL    HW1 5696   9.970   6.442   4.793
67933SOL    HW2 5697   9.998   6.511   4.661
67934SOL     OW 5698   6.407   4.437  11.238
67934SOL    HW1 5699   6.348   4.366  11.212
67934SOL    HW2 5700   6.418   4.489  11.159
67935SOL     OW 5701  13.460   0.445   2.330
67935SOL    HW1 5702  13.523   0.415   2.396
67935SOL    HW2 5703  13.427   0.365   2.290
67936SOL     OW 5704  14.885   1.987   7.424
67936SOL    HW1 5705   0.081   1.941   7.436
67936SOL    HW2 5706  14.824   1.940   7.481
67937SOL     OW 5707   7.807   1.907   7.607
67937SOL    HW1 5708   7.721   1.949   7.599
67937SOL    HW2 5709   7.864   1.959   7.549
67938SOL     OW 5710   1.446   9.171   7.039
67938SOL    HW1 5711   1.521   9.111   7.040
67938SOL    HW2 5712   1.446   9.209   6.952
67939SOL     OW 5713   5.725  14.045  10.901
67939SOL    HW1 5714   5.786  14.118  10.898
67939SOL    HW2 5715   5.702  14.029  10.810
67940SOL     OW 5716  10.331   8.628  10.444
67940SOL    HW1 5717  10.426   8.621  10.435
67940SOL    HW2 5718  10.298   8.622  10.354
67941SOL     OW 5719   1.019  13.855   6.355
67941SOL    HW1 5720   1.074  13.865   6.432
67941SOL    HW2 5721   1.046  13.926   6.296
67942SOL     OW 5722  13.984   6.129   8.919
67942SOL    HW1 5723  13.977   6.221   8.894
67942SOL    HW2 5724  13.935   6.082   8.852
67943SOL     OW 5725   1.444  13.446  13.253
67943SOL    HW1 5726   1.439  13.403  13.168
67943SOL    HW2 5727   1.448  13.375  13.316
67944SOL     OW 5728   6.348   2.332  10.713
67944SOL    HW1 5729   6.328   2.283  10.634
67944SOL    HW2 5730   6.434   2.370  10.697
67945SOL     OW 5731  10.253   3.488  11.432
67945SOL    HW1 5732  10.293   3.567  11.469
67945SOL    HW2 5733  10.199   3.453  11.503
67946SOL     OW 5734  11.198   9.110   2.438
67946SOL    HW1 5735  11.147   9.129   2.359
67946SOL    HW2 5736  11.261   9.043   2.411
67947SOL     OW 5737   5.386   2.468   9.432
67947SOL    HW1 5738   5.378   2.426   9.517
67947SOL    HW2 5739   5.480   2.468   9.414
67948SOL     OW 5740   5.897   7.130  13.606
67948SOL    HW1 5741   5.835   7.144  13.534
67948SOL    HW2 5742   5.897   7.213  13.654
67949SOL     OW 5743   6.587  14.329   3.519
67949SOL    HW1 5744   6.548  14.261   3.464
67949SOL    HW2 5745   6.608  14.400   3.457
67950SOL     OW 5746   4.911  11.504   8.700
67950SOL    HW1 5747   4.859  11.559   8.759
67950SOL    HW2 5748   4.854  11.487   8.625
67951SOL     OW 5749   7.008   9.408   4.395
67951SOL    HW1 5750   6.946   9.392   4.324
67951SOL    HW2 5751   7.090   9.428   4.351
67952SOL     OW 5752  13.986   3.838  11.722
67952SOL    HW1 5753  13.932   3.892  11.779
67952SOL    HW2 5754  14.057   3.895  11.694
67953SOL     OW 5755   1.630   8.200   7.500
67953SOL    HW1 5756   1.582   8.251   7.434
67953SOL    HW2 5757   1.578   8.121   7.512
67954SOL     OW 5758  13.028   4.888  14.174
67954SOL    HW1 5759  13.060   4.802  14.147
67954SOL    HW2 5760  13.019   4.881  14.269
67955SOL     OW 5761   6.260  10.118   3.709
67955SOL    HW1 5762   6.237  10.061   3.636
67955SOL    HW2 5763   6.355  10.124   3.707
67956SOL     OW 5764   4.640  12.245   0.819
67956SOL    HW1 5765   4.622  12.164   0.773
67956SOL    HW2 5766   4.620  12.314   0.755
67957SOL     OW 5767   2.676   5.312  13.969
67957SOL    HW1 5768   2.657   5.308  14.062
67957SOL    HW2 5769   2.606   5.261  13.928
67958SOL     OW 5770   2.776   4.133   6.654
67958SOL    HW1 5771   2.831   4.172   6.586
67958SOL    HW2 5772   2.837   4.083   6.708
67959SOL     OW 5773  14.438  14.229   2.375
67959SOL    HW1 5774  14.439  14.213   2.469
67959SOL    HW2 5775  14.352  14.199   2.346
67960SOL     OW 5776   4.086   6.612   8.488
67960SOL    HW1 5777   4.144   6.608   8.564
67960SOL    HW2 5778   4.144   6.633   8.415
67961SOL     OW 5779   7.008   3.275   5.460
67961SOL    HW1 5780   6.932   3.306   5.509
67961SOL    HW2 5781   6.986   3.186   5.435
67962SOL     OW 5782  13.395   2.335   5.995
67962SOL    HW1 5783  13.312   2.288   6.001
67962SOL    HW2 5784  13.412   2.367   6.083
67963SOL     OW 5785   2.221  13.051   4.191
67963SOL    HW1 5786   2.186  13.125   4.240
67963SOL    HW2 5787   2.187  13.062   4.103
67964SOL     OW 5788   9.766   1.978   2.999
67964SOL    HW1 5789   9.858   1.999   3.011
67964SOL    HW2 5790   9.748   1.909   3.064
67965SOL     OW 5791   9.640   0.636   8.626
67965SOL    HW1 5792   9.697   0.706   8.657
67965SOL    HW2 5793   9.560   0.646   8.678
67966SOL     OW 5794  14.319   6.282   6.964
67966SOL    HW1 5795  14.361   6.352   7.015
67966SOL    HW2 5796  14.331   6.203   7.016
67967SOL     OW 5797   1.503   0.842   9.828
67967SOL    HW1 5798   1.520   0.776   9.760
67967SOL    HW2 5799   1.568   0.822   9.896
67968SOL     OW 5800  14.256   4.066   8.541
67968SOL    HW1 5801  14.251   3.970   8.543
67968SOL    HW2 5802  14.166   4.094   8.523
67969SOL     OW 5803   0.045   5.670   1.898
67969SOL    HW1 5804  14.864   5.624   1.946
67969SOL    HW2 5805   0.029   5.763   1.916
67970SOL     OW 5806   6.161   4.572  11.600
67970SOL    HW1 5807   6.183   4.492  11.649
67970SOL    HW2 5808   6.134   4.634  11.667
67971SOL     OW 5809   9.915   3.610   7.924
67971SOL    HW1 5810  10.005   3.615   7.891
67971SOL    HW2 5811   9.914   3.533   7.980
67972SOL     OW 5812   9.822   9.176  13.501
67972SOL    HW1 5813   9.825   9.202  13.409
67972SOL    HW2 5814   9.875   9.097  13.505
67973SOL     OW 5815   5.109  13.666  10.231
67973SOL    HW1 5816   5.187  13.692  10.181
67973SOL    HW2 5817   5.129  13.577  10.261
67974SOL     OW 5818   4.989  10.947  12.516
67974SOL    HW1 5819   5.061  10.964  12.455
67974SOL    HW2 5820   4.915  10.995  12.481
67975SOL     OW 5821   2.161   8.535   7.309
67975SOL    HW1 5822   2.068   8.547   7.329
67975SOL    HW2 5823   2.198   8.495   7.388
67976SOL     OW 5824   8.219  11.793   6.937
67976SOL    HW1 5825   8.256  11.788   7.025
67976SOL    HW2 5826   8.181  11.707   6.922
67977SOL     OW 5827  14.114   9.636  13.444
67977SOL    HW1 5828  14.043   9.684  13.402
67977SOL    HW2 5829  14.193   9.685  13.421
67978SOL     OW 5830  10.169   6.662  12.512
67978SOL    HW1 5831  10.141   6.587  12.460
67978SOL    HW2 5832  10.089   6.711  12.529
67979SOL     OW 5833  13.850  14.088   4.236
67979SOL    HW1 5834  13.811  14.174   4.254
67979SOL    HW2 5835  13.916  14.077   4.305
67980SOL     OW 5836  13.121  13.255   8.561
67980SOL    HW1 5837  13.169  13.333   8.589
67980SOL    HW2 5838  13.157  13.184   8.615
67981SOL     OW 5839  13.413  12.866   5.769
67981SOL    HW1 5840  13.473  12.870   5.843
67981SOL    HW2 5841  13.326  12.873   5.808
67982SOL     OW 5842   0.375   7.409   8.457
67982SOL    HW1 5843   0.371   7.313   8.457
67982SOL    HW2 5844   0.461   7.429   8.421
67983SOL     OW 5845   1.231   1.521   9.099
67983SOL    HW1 5846   1.261   1.594   9.045
67983SOL    HW2 5847   1.156   1.485   9.052
67984SOL     OW 5848  13.640  13.313   3.729
67984SOL    HW1 5849  13.645  13.271   3.815
67984SOL    HW2 5850  13.648  13.240   3.667
67985SOL     OW 5851  10.669   0.647  12.015
67985SOL    HW1 5852  10.591   0.592  12.027
67985SOL    HW2 5853  10.715   0.606  11.942
67986SOL     OW 5854   9.089   6.034   7.792
67986SOL    HW1 5855   9.179   6.039   7.823
67986SOL    HW2 5856   9.053   5.957   7.835
67987SOL     OW 5857  14.510   9.116   9.096
67987SOL    HW1 5858  14.576   9.079   9.037
67987SOL    HW2 5859  14.430   9.069   9.075
67988SOL     OW 5860   4.978   5.493   1.612
67988SOL    HW1 5861   4.950   5.416   1.563
67988SOL    HW2 5862   5.003   5.460   1.698
67989SOL     OW 5863   7.310  11.252  11.668
67989SOL    HW1 5864   7.386  11.291  11.625
67989SOL    HW2 5865   7.286  11.314  11.736
67990SOL     OW 5866   7.142  10.116   9.621
67990SOL    HW1 5867   7.162  10.048   9.556
67990SOL    HW2 5868   7.224  10.164   9.632
67991SOL     OW 5869   7.551   5.423   4.859
67991SOL    HW1 5870   7.549   5.476   4.939
67991SOL    HW2 5871   7.547   5.486   4.788
67992SOL     OW 5872   6.219   1.496  10.633
67992SOL    HW1 5873   6.279   1.453  10.693
67992SOL    HW2 5874   6.144   1.519  10.688
67993SOL     OW 5875   6.300   6.400  10.123
67993SOL    HW1 5876   6.212   6.373  10.094
67993SOL    HW2 5877   6.337   6.444  10.047
67994SOL     OW 5878   2.737   9.892   3.586
67994SOL    HW1 5879   2.807   9.957   3.575
67994SOL    HW2 5880   2.678   9.908   3.512
67995SOL     OW 5881   1.166   8.426   2.910
67995SOL    HW1 5882   1.139   8.360   2.847
67995SOL    HW2 5883   1.119   8.505   2.883
67996SOL     OW 5884   2.403   3.004   5.281
67996SOL    HW1 5885   2.450   3.084   5.258
67996SOL    HW2 5886   2.456   2.964   5.349
67997SOL     OW 5887   2.612   3.218   9.141
67997SOL    HW1 5888   2.622   3.186   9.051
67997SOL    HW2 5889   2.630   3.312   9.135
67998SOL     OW 5890   1.375   6.856  13.006
67998SOL    HW1 5891   1.423   6.773  13.002
67998SOL    HW2 5892   1.283   6.831  13.008
67999SOL     OW 5893   9.835  12.204   7.642
67999SOL    HW1 5894   9.810  12.112   7.636
67999SOL    HW2 5895   9.752  12.250   7.655
68000SOL     OW 5896   8.039  11.033  12.603
68000SOL    HW1 5897   8.114  10.980  12.629
68000SOL    HW2 5898   7.994  11.052  12.685
68001SOL     OW 5899   1.492  13.097   9.061
68001SOL    HW1 5900   1.399  13.085   9.043
68001SOL    HW2 5901   1.497  13.110   9.155
68002SOL     OW 5902   3.994   7.326  11.941
68002SOL    HW1 5903   3.934   7.254  11.959
68002SOL    HW2 5904   4.067   7.312  12.001
68003SOL     OW 5905   1.195   6.118  12.423
68003SOL    HW1 5906   1.161   6.177  12.356
68003SOL    HW2 5907   1.149   6.035  12.408
68004SOL     OW 5908   8.424   7.241   6.611
68004SOL    HW1 5909   8.449   7.254   6.520
68004SOL    HW2 5910   8.347   7.296   6.623
68005SOL     OW 5911   8.378   4.340  10.057
68005SOL    HW1 5912   8.303   4.339   9.998
68005SOL    HW2 5913   8.342   4.370  10.141
68006SOL     OW 5914   4.962  11.202  11.899
68006SOL    HW1 5915   4.986  11.241  11.983
68006SOL    HW2 5916   4.935  11.277  11.845
68007SOL     OW 5917  13.724   4.189  11.962
68007SOL    HW1 5918  13.755   4.133  11.892
68007SOL    HW2 5919  13.768   4.273  11.947
68008SOL     OW 5920  11.045   8.118   6.634
68008SOL    HW1 5921  11.123   8.106   6.580
68008SOL    HW2 5922  11.002   8.032   6.633
68009SOL     OW 5923   7.439   7.102   5.102
68009SOL    HW1 5924   7.416   7.020   5.058
68009SOL    HW2 5925   7.443   7.167   5.031
68010SOL     OW 5926   7.180  10.896   9.552
68010SOL    HW1 5927   7.097  10.889   9.505
68010SOL    HW2 5928   7.218  10.979   9.524
68011SOL     OW 5929   1.321  13.678   4.523
68011SOL    HW1 5930   1.330  13.709   4.614
68011SOL    HW2 5931   1.358  13.748   4.470
68012SOL     OW 5932  11.126   9.118   0.832
68012SOL    HW1 5933  11.081   9.186   0.883
68012SOL    HW2 5934  11.208   9.160   0.805
68013SOL     OW 5935   6.873   0.903   2.757
68013SOL    HW1 5936   6.928   0.851   2.698
68013SOL    HW2 5937   6.799   0.931   2.702
68014SOL     OW 5938  13.908  10.082  10.344
68014SOL    HW1 5939  13.921   9.993  10.312
68014SOL    HW2 5940  13.883  10.072  10.436
68015SOL     OW 5941   2.879  14.163   4.350
68015SOL    HW1 5942   2.963  14.208   4.358
68015SOL    HW2 5943   2.818  14.218   4.399
68016SOL     OW 5944  13.217  10.009   6.563
68016SOL    HW1 5945  13.137   9.993   6.613
68016SOL    HW2 5946  13.187  10.016   6.472
68017SOL     OW 5947   5.104  10.905  13.071
68017SOL    HW1 5948   5.175  10.946  13.023
68017SOL    HW2 5949   5.024  10.944  13.035
68018SOL     OW 5950   5.826   1.078  14.656
68018SOL    HW1 5951   5.765   1.006  14.638
68018SOL    HW2 5952   5.774   1.157  14.638
68019SOL     OW 5953  12.719   9.247   7.141
68019SOL    HW1 5954  12.810   9.253   7.111
68019SOL    HW2 5955  12.714   9.310   7.213
68020SOL     OW 5956  12.238  10.415   5.903
68020SOL    HW1 5957  12.181  10.473   5.853
68020SOL    HW2 5958  12.270  10.469   5.975
68021SOL     OW 5959  12.861   4.653   1.502
68021SOL    HW1 5960  12.786   4.614   1.547
68021SOL    HW2 5961  12.837   4.746   1.492
68022SOL     OW 5962   5.189   4.897   7.614
68022SOL    HW1 5963   5.132   4.821   7.600
68022SOL    HW2 5964   5.174   4.922   7.706
68023SOL     OW 5965   2.443  12.817   0.231
68023SOL    HW1 5966   2.367  12.872   0.212
68023SOL    HW2 5967   2.442  12.806   0.326
68024SOL     OW 5968  12.362   8.201   5.004
68024SOL    HW1 5969  12.325   8.233   4.921
68024SOL    HW2 5970  12.310   8.245   5.071
68025SOL     OW 5971  11.756   6.519   9.256
68025SOL    HW1 5972  11.758   6.438   9.204
68025SOL    HW2 5973  11.790   6.493   9.342
68026SOL     OW 5974   0.930   7.126   1.027
68026SOL    HW1 5975   0.950   7.095   1.115
68026SOL    HW2 5976   0.930   7.046   0.973
68027SOL     OW 5977   4.741   7.222   9.307
68027SOL    HW1 5978   4.828   7.228   9.268
68027SOL    HW2 5979   4.725   7.128   9.316
68028SOL     OW 5980  13.636  14.321   1.869
68028SOL    HW1 5981  13.590  14.405   1.877
68028SOL    HW2 5982  13.641  14.305   1.775
68029SOL     OW 5983   5.006   9.192   7.946
68029SOL    HW1 5984   5.071   9.236   7.891
68029SOL    HW2 5985   4.954   9.141   7.885
68030SOL     OW 5986  10.032   1.335   6.302
68030SOL    HW1 5987  10.102   1.356   6.240
68030SOL    HW2 5988   9.981   1.266   6.258
68031SOL     OW 5989   3.522   3.765   2.196
68031SOL    HW1 5990   3.458   3.816   2.146
68031SOL    HW2 5991   3.487   3.766   2.286
68032SOL     OW 5992   2.716  11.851  12.107
68032SOL    HW1 5993   2.773  11.805  12.169
68032SOL    HW2 5994   2.662  11.782  12.069
68033SOL     OW 5995   2.237  13.997  11.948
68033SOL    HW1 5996   2.164  13.934  11.944
68033SOL    HW2 5997   2.309  13.953  11.903
68034SOL     OW 5998  14.578   4.984  10.967
68034SOL    HW1 5999  14.510   5.025  11.019
68034SOL    HW2 6000  14.645   4.959  11.030
68035SOL     OW 6001  10.636   7.856  13.152
68035SOL    HW1 6002  10.585   7.914  13.209
68035SOL    HW2 6003  10.699   7.914  13.108
68036SOL     OW 6004   0.631   0.164   2.362
68036SOL    HW1 6005   0.580   0.246   2.357
68036SOL    HW2 6006   0.589   0.114   2.431
68037SOL     OW 6007   8.523   3.228   4.023
68037SOL    HW1 6008   8.436   3.267   4.028
68037SOL    HW2 6009   8.552   3.247   3.933
68038SOL     OW 6010  14.668   9.455   5.195
68038SOL    HW1 6011  14.720   9.437   5.117
68038SOL    HW2 6012  14.732   9.472   5.264
68039SOL     OW 6013  13.369   9.280   8.580
68039SOL    HW1 6014  13.415   9.277   8.664
68039SOL    HW2 6015  13.276   9.285   8.605
68040SOL     OW 6016   2.976   6.635  13.305
68040SOL    HW1 6017   2.881   6.637  13.320
68040SOL    HW2 6018   2.993   6.712  13.251
68041SOL     OW 6019  12.282   2.445   0.693
68041SOL    HW1 6020  12.210   2.415   0.637
68041SOL    HW2 6021  12.239   2.492   0.764
68042SOL     OW 6022   8.440   4.267   0.417
68042SOL    HW1 6023   8.366   4.304   0.370
68042SOL    HW2 6024   8.516   4.311   0.381
68043SOL     OW 6025  13.411  10.567   7.847
68043SOL    HW1 6026  13.455  10.623   7.910
68043SOL    HW2 6027  13.446  10.593   7.762
68044SOL     OW 6028   0.127   1.646   4.662
68044SOL    HW1 6029   0.170   1.583   4.719
68044SOL    HW2 6030   0.066   1.692   4.719
68045SOL     OW 6031   6.844   0.131   1.390
68045SOL    HW1 6032   6.820   0.193   1.459
68045SOL    HW2 6033   6.938   0.119   1.400
68046SOL     OW 6034   5.145   1.224  11.495
68046SOL    HW1 6035   5.065   1.193  11.537
68046SOL    HW2 6036   5.115   1.288  11.431
68047SOL     OW 6037   0.137  13.363  12.031
68047SOL    HW1 6038   0.069  13.384  12.095
68047SOL    HW2 6039   0.219  13.372  12.080
68048SOL     OW 6040   2.470   3.591  11.152
68048SOL    HW1 6041   2.545   3.531  11.158
68048SOL    HW2 6042   2.436   3.577  11.064
68049SOL     OW 6043  11.532   1.199   2.373
68049SOL    HW1 6044  11.493   1.119   2.338
68049SOL    HW2 6045  11.614   1.208   2.324
68050SOL     OW 6046  11.110   4.472   4.610
68050SOL    HW1 6047  11.150   4.553   4.643
68050SOL    HW2 6048  11.032   4.460   4.665
68051SOL     OW 6049   5.917   4.800   0.160
68051SOL    HW1 6050   5.873   4.718   0.185
68051SOL    HW2 6051   5.874   4.826   0.079
68052SOL     OW 6052  10.994   7.098   8.405
68052SOL    HW1 6053  10.996   7.027   8.341
68052SOL    HW2 6054  11.015   7.176   8.354
68053SOL     OW 6055  13.862  14.150   9.916
68053SOL    HW1 6056  13.851  14.200   9.997
68053SOL    HW2 6057  13.954  14.161   9.893
68054SOL     OW 6058   6.252   5.950   7.751
68054SOL    HW1 6059   6.160   5.960   7.774
68054SOL    HW2 6060   6.280   6.038   7.725
68055SOL     OW 6061  13.089   9.145   8.378
68055SOL    HW1 6062  13.065   9.078   8.314
68055SOL    HW2 6063  13.136   9.211   8.327
68056SOL     OW 6064  11.111   1.297  11.116
68056SOL    HW1 6065  11.065   1.364  11.067
68056SOL    HW2 6066  11.061   1.217  11.101
68057SOL     OW 6067   6.870   0.577   2.832
68057SOL    HW1 6068   6.923   0.548   2.758
68057SOL    HW2 6069   6.819   0.650   2.797
68058SOL     OW 6070   4.809   1.784  10.943
68058SOL    HW1 6071   4.856   1.825  10.870
68058SOL    HW2 6072   4.721   1.768  10.909
68059SOL     OW 6073   0.979   7.800   0.987
68059SOL    HW1 6074   1.003   7.772   0.899
68059SOL    HW2 6075   0.885   7.817   0.982
68060SOL     OW 6076   4.656   3.179   9.317
68060SOL    HW1 6077   4.740   3.185   9.361
68060SOL    HW2 6078   4.654   3.090   9.281
68061SOL     OW 6079  10.807  11.849   2.529
68061SOL    HW1 6080  10.863  11.772   2.527
68061SOL    HW2 6081  10.775  11.858   2.440
68062SOL     OW 6082   7.459  11.652   3.733
68062SOL    HW1 6083   7.525  11.684   3.672
68062SOL    HW2 6084   7.494  11.570   3.766
68063SOL     OW 6085   8.729  13.670  12.756
68063SOL    HW1 6086   8.665  13.691  12.824
68063SOL    HW2 6087   8.679  13.623  12.689
68064SOL     OW 6088   5.627  14.256   1.842
68064SOL    HW1 6089   5.611  14.331   1.785
68064SOL    HW2 6090   5.582  14.277   1.923
68065SOL     OW 6091   2.777  12.081   9.959
68065SOL    HW1 6092   2.820  12.040   9.884
68065SOL    HW2 6093   2.683  12.068   9.944
68066SOL     OW 6094   9.462   9.134   8.599
68066SOL    HW1 6095   9.420   9.048   8.594
68066SOL    HW2 6096   9.474   9.160   8.508
68067SOL     OW 6097   0.545   0.041   9.379
68067SOL    HW1 6098   0.596  14.849   9.393
68067SOL    HW2 6099   0.586   0.083   9.303
68068SOL     OW 6100  12.106   2.336   7.007
68068SOL    HW1 6101  12.054   2.395   7.063
68068SOL    HW2 6102  12.172   2.300   7.065
68069SOL     OW 6103  13.449  13.928   1.757
68069SOL    HW1 6104  13.355  13.939   1.774
68069SOL    HW2 6105  13.491  13.991   1.816
68070SOL     OW 6106  10.082   4.832   6.288
68070SOL    HW1 6107  10.104   4.895   6.219
68070SOL    HW2 6108  10.002   4.789   6.257
68071SOL     OW 6109   4.480   6.217  13.755
68071SOL    HW1 6110   4.484   6.122  13.742
68071SOL    HW2 6111   4.498   6.229  13.848
68072SOL     OW 6112  14.514  14.075   7.449
68072SOL    HW1 6113  14.455  14.052   7.521
68072SOL    HW2 6114  14.517  14.170   7.450
68073SOL     OW 6115  10.141   5.884  13.784
68073SOL    HW1 6116  10.195   5.835  13.721
68073SOL    HW2 6117  10.180   5.863  13.869
68074SOL     OW 6118   1.008   2.700   7.692
68074SOL    HW1 6119   0.965   2.629   7.644
68074SOL    HW2 6120   1.011   2.772   7.630
68075SOL     OW 6121   6.431  13.185   4.846
68075SOL    HW1 6122   6.523  13.211   4.857
68075SOL    HW2 6123   6.416  13.120   4.915
68076SOL     OW 6124   0.258   7.148   9.793
68076SOL    HW1 6125   0.266   7.212   9.723
68076SOL    HW2 6126   0.257   7.200   9.873
68077SOL     OW 6127  12.905   2.479   7.046
68077SOL    HW1 6128  12.934   2.512   7.131
68077SOL    HW2 6129  12.823   2.524   7.029
68078SOL     OW 6130   3.229   4.803   1.572
68078SOL    HW1 6131   3.150   4.847   1.601
68078SOL    HW2 6132   3.220   4.713   1.604
68079SOL     OW 6133   6.828  13.407   2.919
68079SOL    HW1 6134   6.886  13.350   2.868
68079SOL    HW2 6135   6.804  13.354   2.995
68080SOL     OW 6136  14.799   9.397   0.344
68080SOL    HW1 6137  14.784   9.423   0.253
68080SOL    HW2 6138  14.887   9.361   0.344
68081SOL     OW 6139   0.757   1.335   1.748
68081SOL    HW1 6140   0.808   1.387   1.687
68081SOL    HW2 6141   0.810   1.332   1.828
68082SOL     OW 6142  11.099   2.154   1.518
68082SOL    HW1 6143  11.074   2.224   1.458
68082SOL    HW2 6144  11.058   2.178   1.601
68083SOL     OW 6145   0.366   5.077  14.655
68083SOL    HW1 6146   0.342   5.043  14.569
68083SOL    HW2 6147   0.454   5.113  14.643
68084SOL     OW 6148   3.831   3.896   2.201
68084SOL    HW1 6149   3.850   3.908   2.108
68084SOL    HW2 6150   3.743   3.858   2.201
68085SOL     OW 6151  11.156   1.940  13.300
68085SOL    HW1 6152  11.213   1.989  13.360
68085SOL    HW2 6153  11.115   1.873  13.355
68086SOL     OW 6154   3.309  11.513  12.449
68086SOL    HW1 6155   3.285  11.456  12.522
68086SOL    HW2 6156   3.405  11.513  12.450
68087SOL     OW 6157   7.868  12.232   2.119
68087SOL    HW1 6158   7.811  12.176   2.171
68087SOL    HW2 6159   7.846  12.321   2.147
68088SOL     OW 6160  12.299  12.569  11.459
68088SOL    HW1 6161  12.292  12.654  11.416
68088SOL    HW2 6162  12.361  12.520  11.405
68089SOL     OW 6163   9.810   5.305  12.629
68089SOL    HW1 6164   9.715   5.318  12.626
68089SOL    HW2 6165   9.826   5.233  12.569
68090SOL     OW 6166   1.233   4.348   0.676
68090SOL    HW1 6167   1.159   4.396   0.638
68090SOL    HW2 6168   1.298   4.416   0.694
68091SOL     OW 6169  13.405   8.753  10.141
68091SOL    HW1 6170  13.436   8.669  10.173
68091SOL    HW2 6171  13.482   8.810  10.143
68092SOL     OW 6172   7.736   8.399  11.019
68092SOL    HW1 6173   7.829   8.423  11.024
68092SOL    HW2 6174   7.691   8.466  11.069
68093SOL     OW 6175   9.616   3.734  12.350
68093SOL    HW1 6176   9.535   3.786  12.354
68093SOL    HW2 6177   9.678   3.783  12.403
68094SOL     OW 6178  14.314   0.303   9.626
68094SOL    HW1 6179  14.256   0.329   9.698
68094SOL    HW2 6180  14.358   0.224   9.657
68095SOL     OW 6181   9.692  14.426  12.851
68095SOL    HW1 6182   9.630  14.358  12.877
68095SOL    HW2 6183   9.642  14.481  12.790
68096SOL     OW 6184   5.241   6.069   3.734
68096SOL    HW1 6185   5.211   5.995   3.681
68096SOL    HW2 6186   5.333   6.049   3.752
68097SOL     OW 6187   3.318   5.027   1.414
68097SOL    HW1 6188   3.309   4.988   1.501
68097SOL    HW2 6189   3.231   5.060   1.392
68098SOL     OW 6190   7.173   0.764   7.642
68098SOL    HW1 6191   7.091   0.716   7.645
68098SOL    HW2 6192   7.238   0.705   7.680
68099SOL     OW 6193   5.510   4.631   8.314
68099SOL    HW1 6194   5.507   4.581   8.233
68099SOL    HW2 6195   5.539   4.718   8.288
68100SOL     OW 6196   4.698  13.463   7.916
68100SOL    HW1 6197   4.672  13.507   7.997
68100SOL    HW2 6198   4.748  13.387   7.945
68101SOL     OW 6199  12.367  12.762  10.015
68101SOL    HW1 6200  12.374  12.704   9.939
68101SOL    HW2 6201  12.452  12.755  10.059
68102SOL     OW 6202   8.431   9.004   2.894
68102SOL    HW1 6203   8.386   9.082   2.860
68102SOL    HW2 6204   8.363   8.938   2.903
68103SOL     OW 6205   2.403   1.591  14.191
68103SOL    HW1 6206   2.462   1.520  14.219
68103SOL    HW2 6207   2.368   1.627  14.273
68104SOL     OW 6208  11.019   0.074   0.248
68104SOL    HW1 6209  10.972   0.068   0.332
68104SOL    HW2 6210  11.068  14.880   0.242
68105SOL     OW 6211   4.948   1.684   1.010
68105SOL    HW1 6212   5.038   1.652   1.009
68105SOL    HW2 6213   4.898   1.610   1.046
68106SOL     OW 6214  14.108   6.341   4.423
68106SOL    HW1 6215  14.041   6.408   4.436
68106SOL    HW2 6216  14.166   6.379   4.357
68107SOL     OW 6217   8.778   9.453   3.675
68107SOL    HW1 6218   8.841   9.404   3.728
68107SOL    HW2 6219   8.814   9.542   3.672
68108SOL     OW 6220   8.362   2.394   7.939
68108SOL    HW1 6221   8.387   2.403   8.031
68108SOL    HW2 6222   8.288   2.334   7.940
68109SOL     OW 6223   2.015   7.127   4.465
68109SOL    HW1 6224   2.033   7.063   4.396
68109SOL    HW2 6225   2.088   7.189   4.460
68110SOL     OW 6226   1.604   7.110   3.745
68110SOL    HW1 6227   1.610   7.056   3.666
68110SOL    HW2 6228   1.573   7.051   3.813
68111SOL     OW 6229   7.029   4.519   6.397
68111SOL    HW1 6230   6.978   4.439   6.390
68111SOL    HW2 6231   6.964   4.589   6.406
68112SOL     OW 6232  13.573   2.821   4.799
68112SOL    HW1 6233  13.565   2.748   4.737
68112SOL    HW2 6234  13.545   2.783   4.883
68113SOL     OW 6235  11.642  11.706   1.949
68113SOL    HW1 6236  11.702  11.690   1.877
68113SOL    HW2 6237  11.692  11.757   2.012
68114SOL     OW 6238  13.520   0.012   2.099
68114SOL    HW1 6239  13.562   0.000   2.014
68114SOL    HW2 6240  13.472  14.817   2.113
68115SOL     OW 6241  11.873   3.363   0.565
68115SOL    HW1 6242  11.778   3.360   0.556
68115SOL    HW2 6243  11.904   3.399   0.482
68116SOL     OW 6244   8.650   8.718  10.880
68116SOL    HW1 6245   8.639   8.706  10.974
68116SOL    HW2 6246   8.629   8.633  10.842
68117SOL     OW 6247   1.445   3.048   2.264
68117SOL    HW1 6248   1.516   3.001   2.307
68117SOL    HW2 6249   1.479   3.069   2.177
68118SOL     OW 6250   2.833  12.396   4.672
68118SOL    HW1 6251   2.765  12.385   4.738
68118SOL    HW2 6252   2.898  12.329   4.694
68119SOL     OW 6253  12.242  14.806   6.256
68119SOL    HW1 6254  12.170  14.787   6.317
68119SOL    HW2 6255  12.300  14.865   6.304
68120SOL     OW 6256   4.675   2.428  13.339
68120SOL    HW1 6257   4.644   2.465  13.257
68120SOL    HW2 6258   4.659   2.496  13.405
68121SOL     OW 6259   6.723   4.028  13.895
68121SOL    HW1 6260   6.680   4.069  13.970
68121SOL    HW2 6261   6.770   3.953  13.932
68122SOL     OW 6262   5.300  10.953  14.100
68122SOL    HW1 6263   5.354  10.940  14.178
68122SOL    HW2 6264   5.303  11.047  14.084
68123SOL     OW 6265  14.644  13.012   0.953
68123SOL    HW1 6266  14.667  12.924   0.925
68123SOL    HW2 6267  14.602  13.052   0.877
68124SOL     OW 6268  12.616   9.486   9.967
68124SOL    HW1 6269  12.620   9.391   9.978
68124SOL    HW2 6270  12.531   9.502   9.924
68125SOL     OW 6271  12.228   3.551   7.501
68125SOL    HW1 6272  12.141   3.542   7.463
68125SOL    HW2 6273  12.254   3.461   7.523
68126SOL     OW 6274  10.177  14.104  11.272
68126SOL    HW1 6275  10.158  14.134  11.183
68126SOL    HW2 6276  10.157  14.179  11.328
68127SOL     OW 6277  14.012  12.970   6.739
68127SOL    HW1 6278  14.087  12.966   6.798
68127SOL    HW2 6279  13.936  12.967   6.796
68128SOL     OW 6280   2.896  12.432   8.494
68128SOL    HW1 6281   2.931  12.521   8.492
68128SOL    HW2 6282   2.863  12.421   8.583
68129SOL     OW 6283   4.693   3.717   0.528
68129SOL    HW1 6284   4.618   3.767   0.496
68129SOL    HW2 6285   4.656   3.660   0.595
68130SOL     OW 6286  13.905   8.282   0.061
68130SOL    HW1 6287  13.986   8.307   0.017
68130SOL    HW2 6288  13.855   8.363   0.067
68131SOL     OW 6289   0.001  12.187   2.001
68131SOL    HW1 6290   0.044  12.251   1.944
68131SOL    HW2 6291  14.828  12.239   2.054
68132SOL     OW 6292   2.998   4.796   7.241
68132SOL    HW1 6293   2.908   4.765   7.252
68132SOL    HW2 6294   3.011   4.857   7.313
68133SOL     OW 6295  10.669  10.099   6.801
68133SOL    HW1 6296  10.764  10.090   6.806
68133SOL    HW2 6297  10.655  10.191   6.782
68134SOL     OW 6298   2.632   5.818   3.103
68134SOL    HW1 6299   2.598   5.729   3.101
68134SOL    HW2 6300   2.726   5.808   3.089
68135SOL     OW 6301  14.161   7.465   0.687
68135SOL    HW1 6302  14.181   7.539   0.745
68135SOL    HW2 6303  14.066   7.455   0.693
68136SOL     OW 6304   0.051   6.112   0.116
68136SOL    HW1 6305   0.013   6.187   0.161
68136SOL    HW2 6306   0.059   6.141   0.025
68137SOL     OW 6307   7.164   0.631   6.670
68137SOL    HW1 6308   7.102   0.576   6.717
68137SOL    HW2 6309   7.209   0.680   6.738
68138SOL     OW 6310   0.627   5.568   4.233
68138SOL    HW1 6311   0.557   5.617   4.277
68138SOL    HW2 6312   0.657   5.626   4.163
68139SOL     OW 6313  14.550   0.893  11.850
68139SOL    HW1 6314  14.535   0.988  11.843
68139SOL    HW2 6315  14.496   0.867  11.925
68140SOL     OW 6316  12.046  14.650   7.133
68140SOL    HW1 6317  11.954  14.674   7.122
68140SOL    HW2 6318  12.085  14.726   7.178
68141SOL     OW 6319   1.492   2.357   8.356
68141SOL    HW1 6320   1.460   2.319   8.275
68141SOL    HW2 6321   1.556   2.422   8.329
68142SOL     OW 6322   1.540   0.165  12.758
68142SOL    HW1 6323   1.537   0.188  12.665
68142SOL    HW2 6324   1.546   0.249  12.803
68143SOL     OW 6325  11.174  11.241   0.721
68143SOL    HW1 6326  11.141  11.261   0.633
68143SOL    HW2 6327  11.245  11.179   0.707
68144SOL     OW 6328   7.689  12.238   6.416
68144SOL    HW1 6329   7.728  12.277   6.494
68144SOL    HW2 6330   7.724  12.149   6.413
68145SOL     OW 6331  10.377   8.899   3.115
68145SOL    HW1 6332  10.333   8.901   3.030
68145SOL    HW2 6333  10.324   8.956   3.171
68146SOL     OW 6334   3.412  10.562  13.544
68146SOL    HW1 6335   3.499  10.576  13.581
68146SOL    HW2 6336   3.425  10.490  13.482
68147SOL     OW 6337   1.312  12.960   5.306
68147SOL    HW1 6338   1.226  12.920   5.309
68147SOL    HW2 6339   1.315  13.007   5.223
68148SOL     OW 6340  10.325  11.480  12.611
68148SOL    HW1 6341  10.258  11.548  12.622
68148SOL    HW2 6342  10.396  11.506  12.669
68149SOL     OW 6343  14.457   9.178   7.038
68149SOL    HW1 6344  14.496   9.264   7.056
68149SOL    HW2 6345  14.508   9.117   7.091
68150SOL     OW 6346   7.047   8.208  11.929
68150SOL    HW1 6347   6.960   8.200  11.891
68150SOL    HW2 6348   7.096   8.134  11.891
68151SOL     OW 6349  10.165   3.125  12.772
68151SOL    HW1 6350  10.181   3.062  12.702
68151SOL    HW2 6351  10.090   3.089  12.820
68152SOL     OW 6352   4.625  14.545  13.754
68152SOL    HW1 6353   4.632  14.461  13.800
68152SOL    HW2 6354   4.706  14.552  13.703
68153SOL     OW 6355   2.179   0.799  12.849
68153SOL    HW1 6356   2.252   0.806  12.911
68153SOL    HW2 6357   2.133   0.720  12.876
68154SOL     OW 6358   3.040   7.326   6.800
68154SOL    HW1 6359   2.970   7.391   6.801
68154SOL    HW2 6360   3.118   7.375   6.776
68155SOL     OW 6361   9.789  11.370   3.177
68155SOL    HW1 6362   9.829  11.379   3.263
68155SOL    HW2 6363   9.862  11.353   3.118
68156SOL     OW 6364  11.930  12.593   4.178
68156SOL    HW1 6365  11.906  12.529   4.245
68156SOL    HW2 6366  11.908  12.678   4.217
68157SOL     OW 6367  10.589   7.405  10.033
68157SOL    HW1 6368  10.537   7.391   9.954
68157SOL    HW2 6369  10.609   7.499  10.032
68158SOL     OW 6370   3.179   5.367  10.573
68158SOL    HW1 6371   3.237   5.310  10.523
68158SOL    HW2 6372   3.191   5.454  10.535
68159SOL     OW 6373   0.050   6.802   4.151
68159SOL    HW1 6374  14.851   6.797   4.192
68159SOL    HW2 6375   0.111   6.814   4.223
68160SOL     OW 6376   3.915   9.685  14.879
68160SOL    HW1 6377   3.887   9.596   0.014
68160SOL    HW2 6378   3.913   9.688  14.783
68161SOL     OW 6379   9.372   6.239  13.039
68161SOL    HW1 6380   9.282   6.227  13.071
68161SOL    HW2 6381   9.384   6.166  12.978
68162SOL     OW 6382  10.339  12.254  12.996
68162SOL    HW1 6383  10.265  12.276  13.053
68162SOL    HW2 6384  10.384  12.182  13.042
68163SOL     OW 6385   3.345   5.947  12.458
68163SOL    HW1 6386   3.254   5.970  12.436
68163SOL    HW2 6387   3.396   5.975  12.382
68164SOL     OW 6388  14.409  11.810   0.022
68164SOL    HW1 6389  14.490  11.807   0.073
68164SOL    HW2 6390  14.378  11.900   0.033
68165SOL     OW 6391   0.007   7.337   2.845
68165SOL    HW1 6392   0.092   7.381   2.841
68165SOL    HW2 6393   0.020   7.267   2.910
68166SOL     OW 6394   8.690   1.495   2.466
68166SOL    HW1 6395   8.604   1.531   2.443
68166SOL    HW2 6396   8.705   1.427   2.401
68167SOL     OW 6397  14.199   1.373   6.209
68167SOL    HW1 6398  14.132   1.384   6.277
68167SOL    HW2 6399  14.282   1.392   6.255
68168SOL     OW 6400   0.596   6.971   4.994
68168SOL    HW1 6401   0.564   7.055   5.028
68168SOL    HW2 6402   0.556   6.906   5.050
68169SOL     OW 6403  10.237   5.817   2.767
68169SOL    HW1 6404  10.313   5.860   2.806
68169SOL    HW2 6405  10.162   5.856   2.812
68170SOL     OW 6406   3.067   1.781   8.413
68170SOL    HW1 6407   3.036   1.781   8.503
68170SOL    HW2 6408   2.993   1.748   8.361
68171SOL     OW 6409   2.059  13.921  12.775
68171SOL    HW1 6410   2.131  13.870  12.737
68171SOL    HW2 6411   2.031  13.870  12.851
68172SOL     OW 6412  11.255   7.837   0.047
68172SOL    HW1 6413  11.198   7.769   0.012
68172SOL    HW2 6414  11.280   7.889  14.857
68173SOL     OW 6415   0.022   4.039   7.852
68173SOL    HW1 6416   0.046   3.947   7.840
68173SOL    HW2 6417   0.106   4.084   7.859
68174SOL     OW 6418   7.888   0.971   9.257
68174SOL    HW1 6419   7.876   0.928   9.173
68174SOL    HW2 6420   7.885   0.900   9.322
68175SOL     OW 6421   6.129   4.448   7.838
68175SOL    HW1 6422   6.117   4.437   7.744
68175SOL    HW2 6423   6.168   4.365   7.867
68176SOL     OW 6424  10.868   0.015   8.340
68176SOL    HW1 6425  10.901   0.096   8.379
68176SOL    HW2 6426  10.915  14.832   8.385
68177SOL     OW 6427   3.770   9.428   6.798
68177SOL    HW1 6428   3.755   9.352   6.853
68177SOL    HW2 6429   3.741   9.503   6.850
68178SOL     OW 6430  13.565   8.797   7.811
68178SOL    HW1 6431  13.543   8.769   7.900
68178SOL    HW2 6432  13.590   8.717   7.766
68179SOL     OW 6433  12.826   1.025   1.336
68179SOL    HW1 6434  12.844   1.044   1.244
68179SOL    HW2 6435  12.749   1.078   1.356
68180SOL     OW 6436   5.885   2.164   9.020
68180SOL    HW1 6437   5.902   2.254   8.991
68180SOL    HW2 6438   5.790   2.159   9.030
68181SOL     OW 6439  13.565  13.283   2.645
68181SOL    HW1 6440  13.518  13.240   2.716
68181SOL    HW2 6441  13.657  13.278   2.670
68182SOL     OW 6442  12.974   6.590   5.260
68182SOL    HW1 6443  12.922   6.581   5.180
68182SOL    HW2 6444  12.946   6.673   5.297
68183SOL     OW 6445   7.773  13.676   4.799
68183SOL    HW1 6446   7.835  13.671   4.726
68183SOL    HW2 6447   7.712  13.745   4.774
68184SOL     OW 6448   0.843   0.193   2.866
68184SOL    HW1 6449   0.865   0.105   2.835
68184SOL    HW2 6450   0.864   0.250   2.792
68185SOL     OW 6451  13.961   2.946  12.959
68185SOL    HW1 6452  13.928   3.021  12.909
68185SOL    HW2 6453  14.029   2.908  12.904
68186SOL     OW 6454  14.713  11.040   9.423
68186SOL    HW1 6455  14.807  11.048   9.407
68186SOL    HW2 6456  14.685  11.128   9.447
68187SOL     OW 6457   8.554   0.093  10.956
68187SOL    HW1 6458   8.626   0.032  10.938
68187SOL    HW2 6459   8.595   0.164  11.005
68188SOL     OW 6460   6.308  10.520  13.390
68188SOL    HW1 6461   6.397  10.489  13.409
68188SOL    HW2 6462   6.321  10.608  13.354
68189SOL     OW 6463   4.684  10.164   1.294
68189SOL    HW1 6464   4.600  10.119   1.301
68189SOL    HW2 6465   4.746  10.095   1.272
68190SOL     OW 6466  14.738  12.959   5.277
68190SOL    HW1 6467  14.760  12.876   5.318
68190SOL    HW2 6468  14.649  12.978   5.307
68191SOL     OW 6469   1.942  12.154   7.712
68191SOL    HW1 6470   2.015  12.191   7.662
68191SOL    HW2 6471   1.875  12.222   7.710
68192SOL     OW 6472  13.152   8.772  13.698
68192SOL    HW1 6473  13.147   8.845  13.760
68192SOL    HW2 6474  13.189   8.700  13.748
68193SOL     OW 6475  12.543   6.779   6.544
68193SOL    HW1 6476  12.597   6.858   6.546
68193SOL    HW2 6477  12.456   6.810   6.572
68194SOL     OW 6478  12.650   7.772   6.662
68194SOL    HW1 6479  12.619   7.746   6.749
68194SOL    HW2 6480  12.571   7.776   6.609
68195SOL     OW 6481   7.289   9.791  13.355
68195SOL    HW1 6482   7.343   9.837  13.420
68195SOL    HW2 6483   7.330   9.704  13.348
68196SOL     OW 6484   8.881   2.023   4.064
68196SOL    HW1 6485   8.839   2.107   4.082
68196SOL    HW2 6486   8.872   2.011   3.969
68197SOL     OW 6487  14.324   7.177  14.613
68197SOL    HW1 6488  14.266   7.229  14.558
68197SOL    HW2 6489  14.267   7.138  14.679
68198SOL     OW 6490   2.493  10.623   7.737
68198SOL    HW1 6491   2.527  10.639   7.825
68198SOL    HW2 6492   2.565  10.580   7.691
68199SOL     OW 6493   3.573   4.528   4.025
68199SOL    HW1 6494   3.640   4.561   4.084
68199SOL    HW2 6495   3.615   4.528   3.939
68200SOL     OW 6496   0.103   5.697   4.955
68200SOL    HW1 6497   0.122   5.790   4.967
68200SOL    HW2 6498   0.188   5.654   4.965
68201SOL     OW 6499  10.398   1.832  11.977
68201SOL    HW1 6500  10.440   1.836  11.891
68201SOL    HW2 6501  10.307   1.810  11.957
68202SOL     OW 6502   9.824   3.491   4.334
68202SOL    HW1 6503   9.898   3.531   4.379
68202SOL    HW2 6504   9.853   3.401   4.317
68203SOL     OW 6505   9.133   2.039   2.620
68203SOL    HW1 6506   9.192   1.996   2.683
68203SOL    HW2 6507   9.056   2.063   2.673
68204SOL     OW 6508   1.283  14.509  12.707
68204SOL    HW1 6509   1.281  14.589  12.760
68204SOL    HW2 6510   1.367  14.469  12.727
68205SOL     OW 6511   9.545   5.701  10.120
68205SOL    HW1 6512   9.542   5.721  10.027
68205SOL    HW2 6513   9.454   5.689  10.145
68206SOL     OW 6514   6.404  11.711   3.306
68206SOL    HW1 6515   6.433  11.629   3.345
68206SOL    HW2 6516   6.360  11.684   3.224
68207SOL     OW 6517   5.505   7.315  10.666
68207SOL    HW1 6518   5.577   7.265  10.627
68207SOL    HW2 6519   5.435   7.250  10.679
68208SOL     OW 6520   3.215   4.436   2.852
68208SOL    HW1 6521   3.189   4.345   2.859
68208SOL    HW2 6522   3.133   4.485   2.850
68209SOL     OW 6523   8.224   1.448   8.039
68209SOL    HW1 6524   8.229   1.535   7.998
68209SOL    HW2 6525   8.212   1.388   7.966
68210SOL     OW 6526  10.286   6.282  10.465
68210SOL    HW1 6527  10.376   6.268  10.495
68210SOL    HW2 6528  10.277   6.227  10.387
68211SOL     OW 6529   0.357  11.178   9.505
68211SOL    HW1 6530   0.427  11.161   9.442
68211SOL    HW2 6531   0.401  11.223   9.578
68212SOL     OW 6532  11.306  11.813   3.445
68212SOL    HW1 6533  11.352  11.892   3.416
68212SOL    HW2 6534  11.218  11.843   3.466
68213SOL     OW 6535  13.639   9.133  14.849
68213SOL    HW1 6536  13.669   9.118   0.051
68213SOL    HW2 6537  13.620   9.226  14.844
68214SOL     OW 6538   5.618   6.199   3.100
68214SOL    HW1 6539   5.688   6.206   3.035
68214SOL    HW2 6540   5.540   6.177   3.049
68215SOL     OW 6541   3.424   6.887  10.610
68215SOL    HW1 6542   3.462   6.803  10.636
68215SOL    HW2 6543   3.479   6.953  10.653
68216SOL     OW 6544  12.437   9.018   0.002
68216SOL    HW1 6545  12.436   8.960  14.813
68216SOL    HW2 6546  12.420   8.960   0.077
68217SOL     OW 6547  10.288   3.699   0.568
68217SOL    HW1 6548  10.365   3.664   0.613
68217SOL    HW2 6549  10.246   3.755   0.634
68218SOL     OW 6550  13.531   1.327  14.146
68218SOL    HW1 6551  13.544   1.402  14.205
68218SOL    HW2 6552  13.504   1.256  14.204
68219SOL     OW 6553   2.950   4.651  13.855
68219SOL    HW1 6554   2.937   4.657  13.949
68219SOL    HW2 6555   2.943   4.741  13.823
68220SOL     OW 6556   0.634   1.377   8.419
68220SOL    HW1 6557   0.653   1.297   8.369
68220SOL    HW2 6558   0.638   1.447   8.354
68221SOL     OW 6559   6.878   7.074  11.641
68221SOL    HW1 6560   6.951   7.126  11.610
68221SOL    HW2 6561   6.919   7.004  11.692
68222SOL     OW 6562   4.355   4.039   2.149
68222SOL    HW1 6563   4.411   4.116   2.143
68222SOL    HW2 6564   4.416   3.965   2.155
68223SOL     OW 6565   7.180   2.398   8.987
68223SOL    HW1 6566   7.105   2.340   8.977
68223SOL    HW2 6567   7.171   2.463   8.918
68224SOL     OW 6568   7.955   6.673  10.172
68224SOL    HW1 6569   8.046   6.698  10.160
68224SOL    HW2 6570   7.959   6.582  10.201
68225SOL     OW 6571   1.221   6.306  14.478
68225SOL    HW1 6572   1.243   6.299  14.571
68225SOL    HW2 6573   1.209   6.216  14.449
68226SOL     OW 6574   6.634   5.199   4.733
68226SOL    HW1 6575   6.720   5.158   4.731
68226SOL    HW2 6576   6.588   5.155   4.805
68227SOL     OW 6577  14.461   2.686  12.184
68227SOL    HW1 6578  14.482   2.603  12.228
68227SOL    HW2 6579  14.546   2.719  12.155
68228SOL     OW 6580   9.564   2.843  12.748
68228SOL    HW1 6581   9.540   2.753  12.727
68228SOL    HW2 6582   9.614   2.874  12.673
68229SOL     OW 6583   3.297   6.463   3.643
68229SOL    HW1 6584   3.268   6.486   3.732
68229SOL    HW2 6585   3.393   6.459   3.650
68230SOL     OW 6586   3.098  11.722   2.737
68230SOL    HW1 6587   3.158  11.785   2.776
68230SOL    HW2 6588   3.086  11.655   2.805
68231SOL     OW 6589  13.550   8.590   7.215
68231SOL    HW1 6590  13.456   8.570   7.215
68231SOL    HW2 6591  13.556   8.676   7.258
68232SOL     OW 6592   8.781   4.343  13.194
68232SOL    HW1 6593   8.766   4.293  13.274
68232SOL    HW2 6594   8.727   4.300  13.128
68233SOL     OW 6595   9.399   0.674  13.657
68233SOL    HW1 6596   9.363   0.586  13.648
68233SOL    HW2 6597   9.492   0.664  13.638
68234SOL     OW 6598   0.940   8.461   9.388
68234SOL    HW1 6599   0.988   8.445   9.470
68234SOL    HW2 6600   0.955   8.383   9.336
68235SOL     OW 6601   4.492   2.642   6.989
68235SOL    HW1 6602   4.522   2.552   6.979
68235SOL    HW2 6603   4.573   2.693   7.001
68236SOL     OW 6604   7.962   2.853   6.696
68236SOL    HW1 6605   7.891   2.789   6.686
68236SOL    HW2 6606   8.040   2.799   6.710
68237SOL     OW 6607  10.526   0.580   4.785
68237SOL    HW1 6608  10.459   0.626   4.734
68237SOL    HW2 6609  10.481   0.503   4.820
68238SOL     OW 6610  11.040   4.655   9.956
68238SOL    HW1 6611  11.123   4.616   9.981
68238SOL    HW2 6612  11.061   4.746   9.933
68239SOL     OW 6613   5.907   0.806   7.653
68239SOL    HW1 6614   5.978   0.755   7.616
68239SOL    HW2 6615   5.889   0.873   7.587
68240SOL     OW 6616  11.632   7.390   7.216
68240SOL    HW1 6617  11.669   7.475   7.192
68240SOL    HW2 6618  11.645   7.384   7.311
68241SOL     OW 6619  11.478   2.668   4.867
68241SOL    HW1 6620  11.555   2.722   4.850
68241SOL    HW2 6621  11.437   2.708   4.944
68242SOL     OW 6622  14.862  10.663   1.023
68242SOL    HW1 6623  14.852  10.571   1.000
68242SOL    HW2 6624  14.788  10.682   1.081
68243SOL     OW 6625  14.813   2.492   8.386
68243SOL    HW1 6626  14.778   2.481   8.474
68243SOL    HW2 6627  14.767   2.569   8.351
68244SOL     OW 6628  10.122  12.098   4.704
68244SOL    HW1 6629  10.212  12.116   4.733
68244SOL    HW2 6630  10.082  12.053   4.778
68245SOL     OW 6631   9.352   6.667   3.358
68245SOL    HW1 6632   9.385   6.727   3.425
68245SOL    HW2 6633   9.429   6.617   3.329
68246SOL     OW 6634   8.714  14.341  12.944
68246SOL    HW1 6635   8.624  14.374  12.936
68246SOL    HW2 6636   8.703  14.247  12.963
68247SOL     OW 6637   9.557   6.344   2.461
68247SOL    HW1 6638   9.593   6.345   2.550
68247SOL    HW2 6639   9.541   6.252   2.443
68248SOL     OW 6640   4.412   3.435   6.457
68248SOL    HW1 6641   4.360   3.515   6.453
68248SOL    HW2 6642   4.354   3.370   6.497
68249SOL     OW 6643   6.710   1.889   4.897
68249SOL    HW1 6644   6.682   1.890   4.806
68249SOL    HW2 6645   6.737   1.799   4.914
68250SOL     OW 6646   7.563  10.596  12.068
68250SOL    HW1 6647   7.563  10.568  11.977
68250SOL    HW2 6648   7.652  10.628  12.082
68251SOL     OW 6649   7.006   8.267  11.220
68251SOL    HW1 6650   6.933   8.231  11.169
68251SOL    HW2 6651   7.011   8.210  11.297
68252SOL     OW 6652   1.310   2.763   4.178
68252SOL    HW1 6653   1.350   2.724   4.101
68252SOL    HW2 6654   1.233   2.810   4.144
68253SOL     OW 6655   5.043   2.406   5.754
68253SOL    HW1 6656   4.976   2.374   5.694
68253SOL    HW2 6657   5.051   2.499   5.734
68254SOL     OW 6658   2.651  13.930   7.599
68254SOL    HW1 6659   2.655  13.917   7.694
68254SOL    HW2 6660   2.679  14.020   7.586
68255SOL     OW 6661  14.254  10.780  11.820
68255SOL    HW1 6662  14.225  10.708  11.877
68255SOL    HW2 6663  14.193  10.851  11.839
68256SOL     OW 6664  13.325   2.731   3.879
68256SOL    HW1 6665  13.255   2.747   3.942
68256SOL    HW2 6666  13.404   2.764   3.922
68257SOL     OW 6667   7.912   1.053   8.285
68257SOL    HW1 6668   7.885   1.145   8.288
68257SOL    HW2 6669   7.900   1.022   8.375
68258SOL     OW 6670  12.818   0.097   7.144
68258SOL    HW1 6671  12.802   0.011   7.184
68258SOL    HW2 6672  12.741   0.112   7.089
68259SOL     OW 6673   4.161  14.025  10.317
68259SOL    HW1 6674   4.082  14.030  10.372
68259SOL    HW2 6675   4.128  14.008  10.229
68260SOL     OW 6676   1.194   4.958   9.613
68260SOL    HW1 6677   1.276   4.925   9.650
68260SOL    HW2 6678   1.128   4.892   9.637
68261SOL     OW 6679   1.100   8.459   4.609
68261SOL    HW1 6680   1.088   8.483   4.517
68261SOL    HW2 6681   1.044   8.520   4.657
68262SOL     OW 6682   5.114   6.304   6.435
68262SOL    HW1 6683   5.181   6.360   6.473
68262SOL    HW2 6684   5.107   6.230   6.496
68263SOL     OW 6685   3.950  14.829   5.629
68263SOL    HW1 6686   4.040  14.804   5.650
68263SOL    HW2 6687   3.900  14.748   5.640
68264SOL     OW 6688   1.757   9.044  12.112
68264SOL    HW1 6689   1.750   9.127  12.065
68264SOL    HW2 6690   1.695   8.986  12.067
68265SOL     OW 6691   3.682  12.027   7.092
68265SOL    HW1 6692   3.737  11.950   7.077
68265SOL    HW2 6693   3.630  12.004   7.169
68266SOL     OW 6694   0.512   4.540  12.547
68266SOL    HW1 6695   0.475   4.567  12.631
68266SOL    HW2 6696   0.443   4.490  12.504
68267SOL     OW 6697   1.840   7.309   6.789
68267SOL    HW1 6698   1.830   7.277   6.878
68267SOL    HW2 6699   1.888   7.392   6.798
68268SOL     OW 6700  13.982   2.275  11.628
68268SOL    HW1 6701  13.991   2.303  11.720
68268SOL    HW2 6702  13.910   2.212  11.630
68269SOL     OW 6703   2.328   0.694   2.943
68269SOL    HW1 6704   2.419   0.669   2.962
68269SOL    HW2 6705   2.301   0.747   3.017
68270SOL     OW 6706  12.320   4.281   0.024
68270SOL    HW1 6707  12.241   4.325   0.056
68270SOL    HW2 6708  12.288   4.218  14.848
68271SOL     OW 6709   1.326   3.868   4.456
68271SOL    HW1 6710   1.388   3.940   4.467
68271SOL    HW2 6711   1.368   3.794   4.500
68272SOL     OW 6712   5.661  13.459   5.741
68272SOL    HW1 6713   5.748  13.489   5.767
68272SOL    HW2 6714   5.677  13.396   5.671
68273SOL     OW 6715   3.921   4.590   2.614
68273SOL    HW1 6716   4.000   4.542   2.591
68273SOL    HW2 6717   3.871   4.594   2.532
68274SOL     OW 6718   1.290   0.244   2.282
68274SOL    HW1 6719   1.299   0.254   2.377
68274SOL    HW2 6720   1.201   0.271   2.263
68275SOL     OW 6721   2.782   6.316   3.203
68275SOL    HW1 6722   2.687   6.326   3.196
68275SOL    HW2 6723   2.817   6.350   3.120
68276SOL     OW 6724   0.057   6.620   4.784
68276SOL    HW1 6725   0.123   6.607   4.852
68276SOL    HW2 6726   0.072   6.710   4.754
68277SOL     OW 6727  11.076   1.995   9.045
68277SOL    HW1 6728  10.997   1.983   9.097
68277SOL    HW2 6729  11.148   1.973   9.105
68278SOL     OW 6730  14.064   7.682   2.607
68278SOL    HW1 6731  14.157   7.660   2.604
68278SOL    HW2 6732  14.048   7.727   2.524
68279SOL     OW 6733   0.037  11.027   5.569
68279SOL    HW1 6734   0.085  11.105   5.541
68279SOL    HW2 6735   0.044  11.026   5.664
68280SOL     OW 6736  12.330  13.842   4.303
68280SOL    HW1 6737  12.288  13.779   4.362
68280SOL    HW2 6738  12.277  13.840   4.224
68281SOL     OW 6739  11.753  14.587  12.851
68281SOL    HW1 6740  11.790  14.550  12.932
68281SOL    HW2 6741  11.663  14.555  12.849
68282SOL     OW 6742   8.519   1.238   3.450
68282SOL    HW1 6743   8.612   1.221   3.468
68282SOL    HW2 6744   8.480   1.151   3.445
68283SOL     OW 6745  12.907   7.961   7.444
68283SOL    HW1 6746  12.927   8.055   7.445
68283SOL    HW2 6747  12.976   7.921   7.495
68284SOL     OW 6748   8.418  13.571   4.232
68284SOL    HW1 6749   8.485  13.524   4.281
68284SOL    HW2 6750   8.458  13.590   4.147
68285SOL     OW 6751  14.024  13.401   7.557
68285SOL    HW1 6752  14.079  13.324   7.570
68285SOL    HW2 6753  13.934  13.367   7.560
68286SOL     OW 6754   8.255   8.339   5.277
68286SOL    HW1 6755   8.195   8.412   5.292
68286SOL    HW2 6756   8.342   8.379   5.274
68287SOL     OW 6757   2.885   1.367   0.617
68287SOL    HW1 6758   2.917   1.301   0.679
68287SOL    HW2 6759   2.876   1.446   0.670
68288SOL     OW 6760   4.923   7.410  14.248
68288SOL    HW1 6761   5.011   7.404  14.287
68288SOL    HW2 6762   4.924   7.345  14.178
68289SOL     OW 6763  14.037   8.328   9.488
68289SOL    HW1 6764  14.055   8.421   9.488
68289SOL    HW2 6765  13.942   8.322   9.474
68290SOL     OW 6766   4.608   8.835   7.037
68290SOL    HW1 6767   4.580   8.918   6.999
68290SOL    HW2 6768   4.695   8.820   7.002
68291SOL     OW 6769   7.320   9.334   5.581
68291SOL    HW1 6770   7.265   9.380   5.517
68291SOL    HW2 6771   7.388   9.398   5.604
68292SOL     OW 6772   1.998   5.316  11.240
68292SOL    HW1 6773   2.089   5.292  11.259
68292SOL    HW2 6774   1.997   5.412  11.247
68293SOL     OW 6775  14.733  10.083   2.186
68293SOL    HW1 6776  14.810  10.122   2.226
68293SOL    HW2 6777  14.664  10.148   2.197
68294SOL     OW 6778   0.909  13.587   2.035
68294SOL    HW1 6779   0.934  13.496   2.049
68294SOL    HW2 6780   0.821  13.583   1.996
68295SOL     OW 6781   9.602  14.025   0.271
68295SOL    HW1 6782   9.624  14.004   0.362
68295SOL    HW2 6783   9.507  14.030   0.270
68296SOL     OW 6784  12.506   3.068   0.153
68296SOL    HW1 6785  12.437   3.121   0.192
68296SOL    HW2 6786  12.476   2.978   0.163
68297SOL     OW 6787   7.703   1.008  12.208
68297SOL    HW1 6788   7.717   0.941  12.141
68297SOL    HW2 6789   7.785   1.058  12.209
68298SOL     OW 6790  13.061   2.054  10.038
68298SOL    HW1 6791  13.130   1.998  10.004
68298SOL    HW2 6792  12.980   2.005  10.022
68299SOL     OW 6793   0.581   3.482  14.708
68299SOL    HW1 6794   0.577   3.533  14.789
68299SOL    HW2 6795   0.521   3.527  14.648
68300SOL     OW 6796   3.413   2.659  14.438
68300SOL    HW1 6797   3.505   2.666  14.464
68300SOL    HW2 6798   3.400   2.566  14.419
68301SOL     OW 6799   9.598   5.718  14.832
68301SOL    HW1 6800   9.658   5.663  14.882
68301SOL    HW2 6801   9.524   5.733   0.003
68302SOL     OW 6802  14.771   7.716  12.221
68302SOL    HW1 6803  14.804   7.798  12.258
68302SOL    HW2 6804  14.760   7.659  12.297
68303SOL     OW 6805   7.392   9.810   6.711
68303SOL    HW1 6806   7.346   9.803   6.628
68303SOL    HW2 6807   7.346   9.750   6.770
68304SOL     OW 6808  12.306   0.332  10.885
68304SOL    HW1 6809  12.249   0.301  10.955
68304SOL    HW2 6810  12.389   0.284  10.898
68305SOL     OW 6811   4.218   9.229   0.054
68305SOL    HW1 6812   4.157   9.245  14.869
68305SOL    HW2 6813   4.168   9.248   0.133
68306SOL     OW 6814   0.520   4.459   7.706
68306SOL    HW1 6815   0.539   4.435   7.616
68306SOL    HW2 6816   0.507   4.375   7.751
68307SOL     OW 6817  12.146   8.545  14.851
68307SOL    HW1 6818  12.071   8.487  14.865
68307SOL    HW2 6819  12.114   8.612  14.791
68308SOL     OW 6820   5.033   2.531   2.605
68308SOL    HW1 6821   5.001   2.507   2.692
68308SOL    HW2 6822   5.005   2.459   2.549
68309SOL     OW 6823   6.995   3.201  11.165
68309SOL    HW1 6824   6.981   3.259  11.240
68309SOL    HW2 6825   6.909   3.165  11.146
68310SOL     OW 6826  13.166   9.581   3.208
68310SOL    HW1 6827  13.247   9.537   3.184
68310SOL    HW2 6828  13.117   9.588   3.126
68311SOL     OW 6829   2.726   3.908   7.658
68311SOL    HW1 6830   2.784   3.962   7.605
68311SOL    HW2 6831   2.760   3.914   7.747
68312SOL     OW 6832   2.989  11.699  11.230
68312SOL    HW1 6833   2.940  11.636  11.282
68312SOL    HW2 6834   3.063  11.724  11.287
68313SOL     OW 6835   7.772   1.132   4.528
68313SOL    HW1 6836   7.684   1.113   4.498
68313SOL    HW2 6837   7.779   1.227   4.525
68314SOL     OW 6838  14.323   2.547  14.087
68314SOL    HW1 6839  14.380   2.623  14.099
68314SOL    HW2 6840  14.264   2.572  14.016
68315SOL     OW 6841   9.117   3.444   9.041
68315SOL    HW1 6842   9.151   3.358   9.016
68315SOL    HW2 6843   9.023   3.431   9.049
68316SOL     OW 6844   6.571   7.057  14.321
68316SOL    HW1 6845   6.623   6.988  14.362
68316SOL    HW2 6846   6.502   7.010  14.274
68317SOL     OW 6847   5.660  10.344  11.203
68317SOL    HW1 6848   5.726  10.308  11.263
68317SOL    HW2 6849   5.600  10.393  11.260
68318SOL     OW 6850   4.465   8.189  14.307
68318SOL    HW1 6851   4.547   8.163  14.266
68318SOL    HW2 6852   4.432   8.260  14.253
68319SOL     OW 6853   2.798   9.860  14.587
68319SOL    HW1 6854   2.784   9.938  14.532
68319SOL    HW2 6855   2.862   9.888  14.652
68320SOL     OW 6856   6.090   3.404   1.469
68320SOL    HW1 6857   6.082   3.396   1.564
68320SOL    HW2 6858   6.184   3.412   1.453
68321SOL     OW 6859  14.410  11.292   0.815
68321SOL    HW1 6860  14.327  11.336   0.830
68321SOL    HW2 6861  14.394  11.201   0.841
68322SOL     OW 6862  12.781   3.290   0.979
68322SOL    HW1 6863  12.772   3.374   0.935
68322SOL    HW2 6864  12.875   3.274   0.984
68323SOL     OW 6865  11.241  11.154   5.479
68323SOL    HW1 6866  11.252  11.069   5.436
68323SOL    HW2 6867  11.279  11.142   5.566
68324SOL     OW 6868   0.593   1.080   3.353
68324SOL    HW1 6869   0.682   1.086   3.318
68324SOL    HW2 6870   0.543   1.143   3.301
68325SOL     OW 6871   4.111  10.146   4.390
68325SOL    HW1 6872   4.120  10.241   4.382
68325SOL    HW2 6873   4.021  10.128   4.363
68326SOL     OW 6874  10.508   4.592  12.302
68326SOL    HW1 6875  10.448   4.569  12.231
68326SOL    HW2 6876  10.579   4.528  12.294
68327SOL     OW 6877  13.263   0.032  13.670
68327SOL    HW1 6878  13.321  14.846  13.651
68327SOL    HW2 6879  13.257   0.035  13.765
68328SOL     OW 6880   7.364  12.681  11.336
68328SOL    HW1 6881   7.302  12.664  11.265
68328SOL    HW2 6882   7.419  12.603  11.339
68329SOL     OW 6883   8.226  12.241   1.749
68329SOL    HW1 6884   8.156  12.208   1.807
68329SOL    HW2 6885   8.306  12.226   1.799
68330SOL     OW 6886  11.092  10.168   6.173
68330SOL    HW1 6887  11.081  10.075   6.154
68330SOL    HW2 6888  11.010  10.194   6.215
68331SOL     OW 6889  10.826   1.344   1.118
68331SOL    HW1 6890  10.748   1.394   1.138
68331SOL    HW2 6891  10.829   1.277   1.186
68332SOL     OW 6892   5.954   1.911   8.689
68332SOL    HW1 6893   5.952   1.961   8.607
68332SOL    HW2 6894   5.996   1.828   8.665
68333SOL     OW 6895   3.447   3.501  10.554
68333SOL    HW1 6896   3.436   3.454  10.472
68333SOL    HW2 6897   3.526   3.464  10.593
68334SOL     OW 6898  11.549  11.423   6.954
68334SOL    HW1 6899  11.549  11.484   7.028
68334SOL    HW2 6900  11.484  11.460   6.893
68335SOL     OW 6901   2.138   9.558   3.009
68335SOL    HW1 6902   2.199   9.568   3.083
68335SOL    HW2 6903   2.167   9.477   2.966
68336SOL     OW 6904   6.754   5.773   3.860
68336SOL    HW1 6905   6.811   5.832   3.909
68336SOL    HW2 6906   6.666   5.808   3.874
68337SOL     OW 6907   3.030   3.352   2.572
68337SOL    HW1 6908   3.102   3.331   2.632
68337SOL    HW2 6909   2.986   3.268   2.557
68338SOL     OW 6910  10.481   5.826   6.166
68338SOL    HW1 6911  10.409   5.879   6.202
68338SOL    HW2 6912  10.472   5.835   6.072
68339SOL     OW 6913   4.650   1.446  10.137
68339SOL    HW1 6914   4.738   1.467  10.105
68339SOL    HW2 6915   4.653   1.353  10.156
68340SOL     OW 6916   3.250   8.971   8.923
68340SOL    HW1 6917   3.183   9.007   8.982
68340SOL    HW2 6918   3.333   9.000   8.962
68341SOL     OW 6919  11.876   4.692   0.606
68341SOL    HW1 6920  11.942   4.707   0.674
68341SOL    HW2 6921  11.922   4.707   0.523
68342SOL     OW 6922   8.772   2.747  11.955
68342SOL    HW1 6923   8.808   2.670  11.998
68342SOL    HW2 6924   8.689   2.763  12.001
68343SOL     OW 6925   0.978   4.973   9.874
68343SOL    HW1 6926   0.962   5.044   9.936
68343SOL    HW2 6927   0.913   4.985   9.805
68344SOL     OW 6928   1.932  14.149   2.314
68344SOL    HW1 6929   1.908  14.232   2.273
68344SOL    HW2 6930   1.906  14.083   2.250
68345SOL     OW 6931   5.528   0.197  14.202
68345SOL    HW1 6932   5.527   0.123  14.141
68345SOL    HW2 6933   5.496   0.271  14.152
68346SOL     OW 6934   4.793   9.862   1.897
68346SOL    HW1 6935   4.735   9.857   1.821
68346SOL    HW2 6936   4.872   9.905   1.865
68347SOL     OW 6937   2.016   9.260  12.269
68347SOL    HW1 6938   1.956   9.256  12.343
68347SOL    HW2 6939   2.048   9.171  12.259
68348SOL     OW 6940   0.886  12.867  13.202
68348SOL    HW1 6941   0.890  12.897  13.292
68348SOL    HW2 6942   0.971  12.890  13.165
68349SOL     OW 6943   7.111  11.224   4.523
68349SOL    HW1 6944   7.191  11.202   4.572
68349SOL    HW2 6945   7.116  11.319   4.512
68350SOL     OW 6946  14.692   8.557   2.469
68350SOL    HW1 6947  14.732   8.643   2.483
68350SOL    HW2 6948  14.649   8.564   2.384
68351SOL     OW 6949  12.566  14.326   6.673
68351SOL    HW1 6950  12.482  14.354   6.709
68351SOL    HW2 6951  12.626  14.324   6.748
68352SOL     OW 6952   5.420   2.320   7.248
68352SOL    HW1 6953   5.371   2.244   7.280
68352SOL    HW2 6954   5.404   2.388   7.313
68353SOL     OW 6955  11.457   1.641  10.001
68353SOL    HW1 6956  11.444   1.546  10.003
68353SOL    HW2 6957  11.450   1.664   9.908
68354SOL     OW 6958  10.996   6.016  11.053
68354SOL    HW1 6959  11.018   5.932  11.012
68354SOL    HW2 6960  11.039   6.081  10.999
68355SOL     OW 6961   8.839   0.086   2.581
68355SOL    HW1 6962   8.933   0.082   2.595
68355SOL    HW2 6963   8.804   0.014   2.634
68356SOL     OW 6964   8.939   9.776   3.996
68356SOL    HW1 6965   9.032   9.772   4.017
68356SOL    HW2 6966   8.901   9.700   4.041
68357SOL     OW 6967  11.457  11.814   6.336
68357SOL    HW1 6968  11.520  11.884   6.356
68357SOL    HW2 6969  11.488  11.778   6.252
68358SOL     OW 6970  12.066   8.323  11.530
68358SOL    HW1 6971  12.007   8.364  11.467
68358SOL    HW2 6972  12.053   8.229  11.517
68359SOL     OW 6973  14.844  12.153   7.109
68359SOL    HW1 6974   0.002  12.204   7.042
68359SOL    HW2 6975   0.022  12.092   7.142
68360SOL     OW 6976   3.318  11.616   2.632
68360SOL    HW1 6977   3.224  11.620   2.650
68360SOL    HW2 6978   3.327  11.651   2.543
68361SOL     OW 6979   6.395   2.128   0.040
68361SOL    HW1 6980   6.490   2.139   0.034
68361SOL    HW2 6981   6.360   2.217   0.043
68362SOL     OW 6982  14.693   7.932   4.701
68362SOL    HW1 6983  14.764   7.995   4.710
68362SOL    HW2 6984  14.695   7.907   4.608
68363SOL     OW 6985   2.559   7.711   2.478
68363SOL    HW1 6986   2.577   7.752   2.393
68363SOL    HW2 6987   2.482   7.657   2.464
68364SOL     OW 6988   5.304  11.612   0.608
68364SOL    HW1 6989   5.273  11.651   0.690
68364SOL    HW2 6990   5.399  11.624   0.611
68365SOL     OW 6991  10.590   9.640   4.159
68365SOL    HW1 6992  10.609   9.639   4.253
68365SOL    HW2 6993  10.667   9.600   4.119
68366SOL     OW 6994  10.080  12.621  10.614
68366SOL    HW1 6995  10.143  12.676  10.568
68366SOL    HW2 6996  10.085  12.536  10.571
68367SOL     OW 6997  14.822  11.096   3.360
68367SOL    HW1 6998  14.767  11.017   3.361
68367SOL    HW2 6999  14.763  11.165   3.330
68368SOL     OW 7000   6.070  11.786   2.606
68368SOL    HW1 7001   6.003  11.721   2.587
68368SOL    HW2 7002   6.022  11.869   2.614
68369SOL     OW 7003  10.607   2.686  14.115
68369SOL    HW1 7004  10.584   2.778  14.110
68369SOL    HW2 7005  10.528   2.643  14.150
68370SOL     OW 7006   5.447  13.943   8.087
68370SOL    HW1 7007   5.498  14.024   8.078
68370SOL    HW2 7008   5.512  13.874   8.098
68371SOL     OW 7009  13.934  10.293   9.713
68371SOL    HW1 7010  13.982  10.276   9.632
68371SOL    HW2 7011  13.987  10.252   9.782
68372SOL     OW 7012  12.867   0.652   5.620
68372SOL    HW1 7013  12.793   0.698   5.581
68372SOL    HW2 7014  12.854   0.663   5.714
68373SOL     OW 7015   2.815  13.899   3.831
68373SOL    HW1 7016   2.888  13.940   3.877
68373SOL    HW2 7017   2.764  13.856   3.900
68374SOL     OW 7018   2.689  13.925  10.593
68374SOL    HW1 7019   2.665  13.846  10.544
68374SOL    HW2 7020   2.744  13.893  10.664
68375SOL     OW 7021   3.661   8.317  10.790
68375SOL    HW1 7022   3.640   8.269  10.709
68375SOL    HW2 7023   3.754   8.336  10.783
68376SOL     OW 7024   3.651   4.051  11.863
68376SOL    HW1 7025   3.707   4.123  11.892
68376SOL    HW2 7026   3.653   4.057  11.767
68377SOL     OW 7027   6.694  10.102   1.570
68377SOL    HW1 7028   6.711  10.065   1.483
68377SOL    HW2 7029   6.623  10.047   1.606
68378SOL     OW 7030  10.114   4.662   2.634
68378SOL    HW1 7031  10.113   4.648   2.728
68378SOL    HW2 7032  10.130   4.756   2.623
68379SOL     OW 7033  12.720   2.294  13.917
68379SOL    HW1 7034  12.649   2.311  13.980
68379SOL    HW2 7035  12.690   2.217  13.868
68380SOL     OW 7036   6.571  11.891   7.233
68380SOL    HW1 7037   6.664  11.903   7.218
68380SOL    HW2 7038   6.563  11.884   7.328
68381SOL     OW 7039   9.035   0.243   5.456
68381SOL    HW1 7040   9.027   0.335   5.483
68381SOL    HW2 7041   9.100   0.206   5.516
68382SOL     OW 7042   0.124   5.944   6.885
68382SOL    HW1 7043   0.149   6.026   6.929
68382SOL    HW2 7044   0.040   5.921   6.924
68383SOL     OW 7045   3.359   4.403  13.800
68383SOL    HW1 7046   3.369   4.490  13.837
68383SOL    HW2 7047   3.447   4.366  13.801
68384SOL     OW 7048  12.373   5.191   8.801
68384SOL    HW1 7049  12.400   5.187   8.709
68384SOL    HW2 7050  12.295   5.134   8.805
68385SOL     OW 7051  12.657   5.282   6.653
68385SOL    HW1 7052  12.647   5.293   6.748
68385SOL    HW2 7053  12.568   5.291   6.619
68386SOL     OW 7054   6.679  12.669  13.709
68386SOL    HW1 7055   6.589  12.635  13.709
68386SOL    HW2 7056   6.734  12.592  13.706
68387SOL     OW 7057  13.533  13.454   7.860
68387SOL    HW1 7058  13.474  13.385   7.830
68387SOL    HW2 7059  13.585  13.476   7.782
68388SOL     OW 7060   7.058  10.452   9.328
68388SOL    HW1 7061   7.085  10.387   9.264
68388SOL    HW2 7062   7.137  10.502   9.348
68389SOL     OW 7063   8.814   2.250   4.979
68389SOL    HW1 7064   8.833   2.259   5.072
68389SOL    HW2 7065   8.846   2.331   4.940
68390SOL     OW 7066  13.561   1.366   1.022
68390SOL    HW1 7067  13.578   1.295   0.959
68390SOL    HW2 7068  13.614   1.343   1.098
68391SOL     OW 7069  14.300   2.990  11.987
68391SOL    HW1 7070  14.391   2.965  12.005
68391SOL    HW2 7071  14.269   2.923  11.925
68392SOL     OW 7072   2.319  10.971   4.204
68392SOL    HW1 7073   2.395  10.984   4.261
68392SOL    HW2 7074   2.353  10.985   4.116
68393SOL     OW 7075   5.918   1.368  14.308
68393SOL    HW1 7076   5.852   1.353  14.376
68393SOL    HW2 7077   5.931   1.282  14.268
68394SOL     OW 7078  14.644   3.462   9.758
68394SOL    HW1 7079  14.706   3.496   9.823
68394SOL    HW2 7080  14.657   3.367   9.760
68395SOL     OW 7081   0.482  10.216   3.853
68395SOL    HW1 7082   0.460  10.309   3.843
68395SOL    HW2 7083   0.486  10.183   3.763
68396SOL     OW 7084  11.054  14.491  12.452
68396SOL    HW1 7085  11.025  14.404  12.481
68396SOL    HW2 7086  11.114  14.472  12.379
68397SOL     OW 7087   5.278   6.733   4.261
68397SOL    HW1 7088   5.301   6.656   4.208
68397SOL    HW2 7089   5.265   6.698   4.349
68398SOL     OW 7090  13.311   6.387  11.794
68398SOL    HW1 7091  13.231   6.337  11.779
68398SOL    HW2 7092  13.281   6.477  11.808
68399SOL     OW 7093  13.761  13.015   1.076
68399SOL    HW1 7094  13.833  13.021   1.013
68399SOL    HW2 7095  13.732  13.106   1.088
68400SOL     OW 7096  11.996   6.491   4.357
68400SOL    HW1 7097  12.020   6.451   4.441
68400SOL    HW2 7098  12.064   6.556   4.342
68401SOL     OW 7099   7.674  12.643   8.776
68401SOL    HW1 7100   7.690  12.731   8.812
68401SOL    HW2 7101   7.589  12.618   8.811
68402SOL     OW 7102   4.786  10.843  14.803
68402SOL    HW1 7103   4.729  10.781  14.849
68402SOL    HW2 7104   4.833  10.889  14.872
68403SOL     OW 7105   5.573   3.719   0.744
68403SOL    HW1 7106   5.487   3.694   0.779
68403SOL    HW2 7107   5.630   3.720   0.821
68404SOL     OW 7108  14.333   0.134   0.114
68404SOL    HW1 7109  14.397   0.188   0.160
68404SOL    HW2 7110  14.302   0.190   0.043
68405SOL     OW 7111   8.252   6.208  14.091
68405SOL    HW1 7112   8.222   6.117  14.090
68405SOL    HW2 7113   8.306   6.216  14.012
68406SOL     OW 7114   2.363   3.522  10.904
68406SOL    HW1 7115   2.383   3.483  10.819
68406SOL    HW2 7116   2.302   3.461  10.946
68407SOL     OW 7117  13.785   1.806   8.040
68407SOL    HW1 7118  13.802   1.735   8.103
68407SOL    HW2 7119  13.852   1.871   8.059
68408SOL     OW 7120  13.861   8.012  13.524
68408SOL    HW1 7121  13.903   7.933  13.492
68408SOL    HW2 7122  13.916   8.083  13.491
68409SOL     OW 7123   8.230   7.944  14.367
68409SOL    HW1 7124   8.137   7.962  14.359
68409SOL    HW2 7125   8.273   8.020  14.330
68410SOL     OW 7126  14.511   7.078  10.002
68410SOL    HW1 7127  14.500   7.028   9.921
68410SOL    HW2 7128  14.605   7.077  10.019
68411SOL     OW 7129   6.160   8.079   9.193
68411SOL    HW1 7130   6.116   8.152   9.150
68411SOL    HW2 7131   6.142   8.003   9.137
68412SOL     OW 7132   1.673   4.890   1.568
68412SOL    HW1 7133   1.588   4.847   1.562
68412SOL    HW2 7134   1.652   4.983   1.582
68413SOL     OW 7135  12.262   8.694  14.436
68413SOL    HW1 7136  12.261   8.692  14.531
68413SOL    HW2 7137  12.354   8.683  14.412
68414SOL     OW 7138   2.761  12.480   1.175
68414SOL    HW1 7139   2.828  12.438   1.230
68414SOL    HW2 7140   2.693  12.505   1.237
68415SOL     OW 7141  10.629   9.369   0.954
68415SOL    HW1 7142  10.705   9.397   0.903
68415SOL    HW2 7143  10.664   9.356   1.042
68416SOL     OW 7144   3.968   8.919   4.601
68416SOL    HW1 7145   3.999   8.841   4.648
68416SOL    HW2 7146   4.015   8.917   4.518
68417SOL     OW 7147   6.754  11.940   0.065
68417SOL    HW1 7148   6.756  11.911  14.862
68417SOL    HW2 7149   6.662  11.960   0.082
68418SOL     OW 7150  13.407  11.271   8.650
68418SOL    HW1 7151  13.436  11.279   8.741
68418SOL    HW2 7152  13.336  11.334   8.641
68419SOL     OW 7153   3.047  10.663   0.359
68419SOL    HW1 7154   3.061  10.756   0.343
68419SOL    HW2 7155   3.128  10.634   0.402
68420SOL     OW 7156   2.567   4.833   1.631
68420SOL    HW1 7157   2.507   4.760   1.639
68420SOL    HW2 7158   2.512   4.908   1.607
68421SOL     OW 7159   3.210   7.544   5.835
68421SOL    HW1 7160   3.263   7.466   5.853
68421SOL    HW2 7161   3.126   7.526   5.877
68422SOL     OW 7162   7.632   2.036   9.961
68422SOL    HW1 7163   7.707   1.978   9.945
68422SOL    HW2 7164   7.654   2.117   9.916
68423SOL     OW 7165   1.168  10.900   5.597
68423SOL    HW1 7166   1.191  10.903   5.504
68423SOL    HW2 7167   1.076  10.925   5.600
68424SOL     OW 7168  10.137  14.124  10.959
68424SOL    HW1 7169  10.067  14.190  10.963
68424SOL    HW2 7170  10.202  14.163  10.901
68425SOL     OW 7171   2.829   6.238   6.248
68425SOL    HW1 7172   2.911   6.223   6.201
68425SOL    HW2 7173   2.794   6.319   6.210
68426SOL     OW 7174   0.640  13.233   7.109
68426SOL    HW1 7175   0.579  13.212   7.180
68426SOL    HW2 7176   0.659  13.148   7.069
68427SOL     OW 7177  10.081  11.583   2.590
68427SOL    HW1 7178  10.054  11.672   2.610
68427SOL    HW2 7179  10.136  11.557   2.664
68428SOL     OW 7180  12.512   0.172  13.937
68428SOL    HW1 7181  12.601   0.189  13.908
68428SOL    HW2 7182  12.521   0.145  14.028
68429SOL     OW 7183   5.139  14.516  10.503
68429SOL    HW1 7184   5.063  14.498  10.559
68429SOL    HW2 7185   5.206  14.456  10.534
68430SOL     OW 7186   7.645   0.885  12.620
68430SOL    HW1 7187   7.554   0.912  12.624
68430SOL    HW2 7188   7.643   0.797  12.583
68431SOL     OW 7189   5.091   2.762   4.639
68431SOL    HW1 7190   5.145   2.704   4.693
68431SOL    HW2 7191   5.003   2.753   4.674
68432SOL     OW 7192   5.425   5.352   2.359
68432SOL    HW1 7193   5.347   5.300   2.380
68432SOL    HW2 7194   5.459   5.377   2.445
68433SOL     OW 7195   6.527  14.597  13.250
68433SOL    HW1 7196   6.591  14.579  13.318
68433SOL    HW2 7197   6.573  14.580  13.168
68434SOL     OW 7198   4.403  11.932   9.789
68434SOL    HW1 7199   4.480  11.982   9.814
68434SOL    HW2 7200   4.436  11.861   9.734
68435SOL     OW 7201   8.296   0.991  10.581
68435SOL    HW1 7202   8.266   0.915  10.530
68435SOL    HW2 7203   8.367   0.956  10.635
68436SOL     OW 7204   1.645   7.022   9.067
68436SOL    HW1 7205   1.557   6.996   9.094
68436SOL    HW2 7206   1.646   7.117   9.078
68437SOL     OW 7207  11.011  12.486   4.962
68437SOL    HW1 7208  10.964  12.528   4.890
68437SOL    HW2 7209  11.099  12.524   4.958
68438SOL     OW 7210   5.540   0.142  10.754
68438SOL    HW1 7211   5.536   0.048  10.737
68438SOL    HW2 7212   5.528   0.149  10.849
68439SOL     OW 7213   1.777   4.348  14.450
68439SOL    HW1 7214   1.748   4.436  14.476
68439SOL    HW2 7215   1.801   4.357  14.358
68440SOL     OW 7216   4.289   2.841   4.712
68440SOL    HW1 7217   4.372   2.803   4.741
68440SOL    HW2 7218   4.231   2.832   4.788
68441SOL     OW 7219  13.101  13.471   2.646
68441SOL    HW1 7220  13.010  13.485   2.619
68441SOL    HW2 7221  13.149  13.546   2.610
68442SOL     OW 7222   4.791   5.823  11.933
68442SOL    HW1 7223   4.699   5.844  11.918
68442SOL    HW2 7224   4.805   5.842  12.026
68443SOL     OW 7225  11.414   1.470   9.720
68443SOL    HW1 7226  11.372   1.453   9.804
68443SOL    HW2 7227  11.489   1.410   9.718
68444SOL     OW 7228   2.583   3.866   4.668
68444SOL    HW1 7229   2.645   3.892   4.600
68444SOL    HW2 7230   2.574   3.944   4.723
68445SOL     OW 7231   9.234   3.528  10.205
68445SOL    HW1 7232   9.293   3.576  10.264
68445SOL    HW2 7233   9.276   3.534  10.119
68446SOL     OW 7234   8.124  12.902   4.668
68446SOL    HW1 7235   8.058  12.841   4.636
68446SOL    HW2 7236   8.182  12.916   4.593
68447SOL     OW 7237  11.576   8.840   5.949
68447SOL    HW1 7238  11.545   8.810   6.034
68447SOL    HW2 7239  11.512   8.905   5.921
68448SOL     OW 7240   5.798  14.236   8.762
68448SOL    HW1 7241   5.781  14.142   8.756
68448SOL    HW2 7242   5.735  14.267   8.828
68449SOL     OW 7243   9.254   2.009   0.616
68449SOL    HW1 7244   9.253   1.921   0.577
68449SOL    HW2 7245   9.265   1.994   0.710
68450SOL     OW 7246   8.774   3.942  11.135
68450SOL    HW1 7247   8.761   3.980  11.222
68450SOL    HW2 7248   8.694   3.964  11.087
68451SOL     OW 7249   9.393  14.611   2.951
68451SOL    HW1 7250   9.476  14.658   2.943
68451SOL    HW2 7251   9.408  14.527   2.908
68452SOL     OW 7252  11.983   3.875  11.109
68452SOL    HW1 7253  11.917   3.852  11.043
68452SOL    HW2 7254  11.986   3.971  11.107
68453SOL     OW 7255   5.793   1.915  10.204
68453SOL    HW1 7256   5.826   1.869  10.127
68453SOL    HW2 7257   5.792   2.007  10.179
68454SOL     OW 7258   1.050  12.176  14.728
68454SOL    HW1 7259   1.082  12.238  14.794
68454SOL    HW2 7260   1.033  12.230  14.652
68455SOL     OW 7261   4.909   6.970   5.692
68455SOL    HW1 7262   4.983   7.020   5.659
68455SOL    HW2 7263   4.851   6.959   5.617
68456SOL     OW 7264  11.234   6.536   1.525
68456SOL    HW1 7265  11.175   6.570   1.457
68456SOL    HW2 7266  11.270   6.614   1.566
68457SOL     OW 7267   0.564  10.961   6.720
68457SOL    HW1 7268   0.549  10.943   6.627
68457SOL    HW2 7269   0.650  10.921   6.738
68458SOL     OW 7270   2.047   6.018  11.347
68458SOL    HW1 7271   2.078   6.103  11.378
68458SOL    HW2 7272   2.120   5.983  11.295
68459SOL     OW 7273   8.804   3.061   4.852
68459SOL    HW1 7274   8.781   2.979   4.809
68459SOL    HW2 7275   8.842   3.115   4.783
68460SOL     OW 7276   0.926   1.824   1.576
68460SOL    HW1 7277   0.898   1.860   1.661
68460SOL    HW2 7278   1.014   1.859   1.563
68461SOL     OW 7279   6.272  12.099   8.730
68461SOL    HW1 7280   6.226  12.180   8.710
68461SOL    HW2 7281   6.223  12.031   8.685
68462SOL     OW 7282   4.839   7.778  14.784
68462SOL    HW1 7283   4.845   7.811  14.694
68462SOL    HW2 7284   4.808   7.688  14.774
68463SOL     OW 7285  11.896   9.483   2.292
68463SOL    HW1 7286  11.846   9.472   2.373
68463SOL    HW2 7287  11.984   9.508   2.320
68464SOL     OW 7288  11.001   7.519   7.571
68464SOL    HW1 7289  10.953   7.510   7.653
68464SOL    HW2 7290  10.933   7.529   7.504
68465SOL     OW 7291  10.362  12.551   9.538
68465SOL    HW1 7292  10.338  12.460   9.555
68465SOL    HW2 7293  10.439  12.545   9.482
68466SOL     OW 7294   0.058  10.713   9.695
68466SOL    HW1 7295   0.058  10.735   9.602
68466SOL    HW2 7296  14.861  10.745   9.728
68467SOL     OW 7297   4.023   9.150   3.841
68467SOL    HW1 7298   4.023   9.133   3.935
68467SOL    HW2 7299   4.106   9.195   3.825
68468SOL     OW 7300   9.880   2.150   9.738
68468SOL    HW1 7301   9.813   2.218   9.740
68468SOL    HW2 7302   9.832   2.068   9.747
68469SOL     OW 7303  14.139   9.261   2.925
68469SOL    HW1 7304  14.199   9.260   2.999
68469SOL    HW2 7305  14.083   9.185   2.937
68470SOL     OW 7306   6.805  11.995   2.287
68470SOL    HW1 7307   6.720  12.032   2.309
68470SOL    HW2 7308   6.834  11.952   2.368
68471SOL     OW 7309   0.385   5.098  14.165
68471SOL    HW1 7310   0.409   5.102  14.258
68471SOL    HW2 7311   0.443   5.032  14.128
68472SOL     OW 7312   2.020  10.435   3.080
68472SOL    HW1 7313   1.934  10.417   3.118
68472SOL    HW2 7314   2.081  10.424   3.153
68473SOL     OW 7315  12.813   0.084   1.332
68473SOL    HW1 7316  12.875   0.147   1.294
68473SOL    HW2 7317  12.728   0.129   1.328
68474SOL     OW 7318   3.393   1.818  11.032
68474SOL    HW1 7319   3.489   1.825  11.027
68474SOL    HW2 7320   3.363   1.842  10.944
68475SOL     OW 7321   8.600   6.465  10.166
68475SOL    HW1 7322   8.519   6.511  10.187
68475SOL    HW2 7323   8.581   6.417  10.086
68476SOL     OW 7324   1.001   7.274  14.258
68476SOL    HW1 7325   1.088   7.259  14.295
68476SOL    HW2 7326   0.973   7.358  14.296
68477SOL     OW 7327   3.992   3.717  13.551
68477SOL    HW1 7328   4.085   3.719  13.576
68477SOL    HW2 7329   3.987   3.771  13.472
68478SOL     OW 7330  11.980   1.827  10.463
68478SOL    HW1 7331  12.055   1.835  10.404
68478SOL    HW2 7332  11.969   1.915  10.499
68479SOL     OW 7333   2.263   2.328   1.748
68479SOL    HW1 7334   2.236   2.360   1.834
68479SOL    HW2 7335   2.345   2.282   1.764
68480SOL     OW 7336   3.611  13.221   5.241
68480SOL    HW1 7337   3.667  13.144   5.250
68480SOL    HW2 7338   3.614  13.262   5.328
68481SOL     OW 7339  12.668   1.570   1.514
68481SOL    HW1 7340  12.746   1.522   1.486
68481SOL    HW2 7341  12.690   1.602   1.601
68482SOL     OW 7342  11.499  13.979   1.105
68482SOL    HW1 7343  11.544  13.910   1.057
68482SOL    HW2 7344  11.475  14.043   1.038
68483SOL     OW 7345  11.207   8.515  14.461
68483SOL    HW1 7346  11.248   8.530  14.547
68483SOL    HW2 7347  11.241   8.586  14.407
68484SOL     OW 7348   1.796  11.958   4.667
68484SOL    HW1 7349   1.797  12.036   4.723
68484SOL    HW2 7350   1.884  11.922   4.674
68485SOL     OW 7351   3.764   3.021   2.405
68485SOL    HW1 7352   3.740   3.072   2.482
68485SOL    HW2 7353   3.697   2.953   2.399
68486SOL     OW 7354   2.047   1.686   0.546
68486SOL    HW1 7355   1.973   1.747   0.539
68486SOL    HW2 7356   2.018   1.621   0.610
68487SOL     OW 7357   0.028  11.895  13.106
68487SOL    HW1 7358   0.035  11.990  13.112
68487SOL    HW2 7359  14.884  11.879  13.017
68488SOL     OW 7360   8.600   8.795   3.768
68488SOL    HW1 7361   8.611   8.888   3.790
68488SOL    HW2 7362   8.547   8.796   3.688
68489SOL     OW 7363  12.502  11.983  11.354
68489SOL    HW1 7364  12.482  12.041  11.428
68489SOL    HW2 7365  12.427  11.993  11.296
68490SOL     OW 7366  10.916   1.531   6.519
68490SOL    HW1 7367  10.932   1.437   6.530
68490SOL    HW2 7368  10.847   1.535   6.453
68491SOL     OW 7369   8.818   1.546   3.474
68491SOL    HW1 7370   8.838   1.464   3.519
68491SOL    HW2 7371   8.725   1.561   3.491
68492SOL     OW 7372   0.343   1.052  10.475
68492SOL    HW1 7373   0.319   0.959  10.475
68492SOL    HW2 7374   0.415   1.058  10.537
68493SOL     OW 7375   7.170   8.544   5.347
68493SOL    HW1 7376   7.160   8.556   5.252
68493SOL    HW2 7377   7.183   8.632   5.381
68494SOL     OW 7378   7.017  12.066   9.257
68494SOL    HW1 7379   7.043  12.065   9.165
68494SOL    HW2 7380   6.922  12.077   9.254
68495SOL     OW 7381   4.122   9.912   0.095
68495SOL    HW1 7382   4.111   9.980   0.161
68495SOL    HW2 7383   4.105   9.957   0.011
68496SOL     OW 7384   5.874  11.757   1.017
68496SOL    HW1 7385   5.921  11.822   0.965
68496SOL    HW2 7386   5.943  11.704   1.058
68497SOL     OW 7387   3.862  14.635   0.476
68497SOL    HW1 7388   3.778  14.673   0.451
68497SOL    HW2 7389   3.854  14.542   0.455
68498SOL     OW 7390   9.166   5.803   3.098
68498SOL    HW1 7391   9.091   5.751   3.128
68498SOL    HW2 7392   9.171   5.877   3.158
68499SOL     OW 7393   5.804  10.328   1.860
68499SOL    HW1 7394   5.884  10.351   1.812
68499SOL    HW2 7395   5.834  10.305   1.948
68500SOL     OW 7396   3.250  14.395   6.611
68500SOL    HW1 7397   3.159  14.420   6.596
68500SOL    HW2 7398   3.251  14.358   6.699
68501SOL     OW 7399   7.744   8.332   1.676
68501SOL    HW1 7400   7.781   8.309   1.761
68501SOL    HW2 7401   7.775   8.263   1.617
68502SOL     OW 7402  14.055   4.135   4.636
68502SOL    HW1 7403  14.121   4.182   4.586
68502SOL    HW2 7404  14.097   4.052   4.659
68503SOL     OW 7405  11.597   1.657  14.238
68503SOL    HW1 7406  11.521   1.714  14.226
68503SOL    HW2 7407  11.562   1.568  14.233
68504SOL     OW 7408   1.936  11.829   1.763
68504SOL    HW1 7409   1.880  11.766   1.808
68504SOL    HW2 7410   2.003  11.776   1.721
68505SOL     OW 7411  13.904   4.949  11.444
68505SOL    HW1 7412  13.929   5.028  11.492
68505SOL    HW2 7413  13.967   4.944  11.372
68506SOL     OW 7414   5.370  11.168  12.986
68506SOL    HW1 7415   5.408  11.086  12.955
68506SOL    HW2 7416   5.434  11.235  12.964
68507SOL     OW 7417  10.676   9.849   0.843
68507SOL    HW1 7418  10.751   9.844   0.903
68507SOL    HW2 7419  10.616   9.910   0.886
68508SOL     OW 7420   0.315  11.531   7.732
68508SOL    HW1 7421   0.325  11.584   7.812
68508SOL    HW2 7422   0.313  11.441   7.763
68509SOL     OW 7423   9.511   4.044  11.620
68509SOL    HW1 7424   9.503   4.116  11.558
68509SOL    HW2 7425   9.446   4.064  11.688
68510SOL     OW 7426   8.065   0.242   9.823
68510SOL    HW1 7427   8.044   0.156   9.860
68510SOL    HW2 7428   8.159   0.251   9.836
68511SOL     OW 7429  13.432  12.834   7.148
68511SOL    HW1 7430  13.459  12.896   7.080
68511SOL    HW2 7431  13.445  12.882   7.230
68512SOL     OW 7432   8.492   4.732   1.595
68512SOL    HW1 7433   8.435   4.734   1.518
68512SOL    HW2 7434   8.473   4.649   1.638
68513SOL     OW 7435  12.591  13.493   2.367
68513SOL    HW1 7436  12.534  13.456   2.300
68513SOL    HW2 7437  12.547  13.574   2.393
68514SOL     OW 7438   7.263   8.874   9.565
68514SOL    HW1 7439   7.234   8.803   9.508
68514SOL    HW2 7440   7.223   8.855   9.650
68515SOL     OW 7441   7.017  12.473  11.043
68515SOL    HW1 7442   7.063  12.389  11.050
68515SOL    HW2 7443   6.926  12.452  11.065
68516SOL     OW 7444   9.355   7.250  11.123
68516SOL    HW1 7445   9.286   7.223  11.063
68516SOL    HW2 7446   9.340   7.344  11.136
68517SOL     OW 7447   3.680   7.805   1.990
68517SOL    HW1 7448   3.733   7.743   2.039
68517SOL    HW2 7449   3.608   7.828   2.049
68518SOL     OW 7450   7.531   1.323   7.563
68518SOL    HW1 7451   7.436   1.325   7.555
68518SOL    HW2 7452   7.562   1.360   7.480
68519SOL     OW 7453  12.636  14.808   4.767
68519SOL    HW1 7454  12.568  14.775   4.825
68519SOL    HW2 7455  12.590  14.835   4.688
68520SOL     OW 7456   1.982   0.213  11.919
68520SOL    HW1 7457   2.070   0.222  11.882
68520SOL    HW2 7458   1.990   0.245  12.009
68521SOL     OW 7459   4.932  13.851   3.458
68521SOL    HW1 7460   4.901  13.915   3.394
68521SOL    HW2 7461   5.023  13.877   3.476
68522SOL     OW 7462   7.734   2.748  13.974
68522SOL    HW1 7463   7.699   2.767  14.061
68522SOL    HW2 7464   7.715   2.656  13.960
68523SOL     OW 7465  10.106  13.233  10.807
68523SOL    HW1 7466  10.065  13.207  10.725
68523SOL    HW2 7467  10.098  13.329  10.809
68524SOL     OW 7468   8.158   4.195   3.348
68524SOL    HW1 7469   8.120   4.280   3.368
68524SOL    HW2 7470   8.196   4.205   3.261
68525SOL     OW 7471   7.260   8.440   8.759
68525SOL    HW1 7472   7.256   8.356   8.714
68525SOL    HW2 7473   7.171   8.474   8.755
68526SOL     OW 7474   3.563  14.772   4.580
68526SOL    HW1 7475   3.609  14.809   4.656
68526SOL    HW2 7476   3.473  14.805   4.589
68527SOL     OW 7477   9.145   3.900   7.167
68527SOL    HW1 7478   9.203   3.905   7.091
68527SOL    HW2 7479   9.132   3.991   7.194
68528SOL     OW 7480  13.513   8.965   2.269
68528SOL    HW1 7481  13.518   8.894   2.205
68528SOL    HW2 7482  13.427   8.955   2.310
68529SOL     OW 7483  10.130   2.923   7.760
68529SOL    HW1 7484  10.219   2.941   7.731
68529SOL    HW2 7485  10.080   2.912   7.679
68530SOL     OW 7486  11.925   8.751  10.525
68530SOL    HW1 7487  11.890   8.668  10.492
68530SOL    HW2 7488  11.911   8.813  10.453
68531SOL     OW 7489  11.403   2.413  12.688
68531SOL    HW1 7490  11.476   2.474  12.687
68531SOL    HW2 7491  11.440   2.329  12.661
68532SOL     OW 7492  10.845   2.151  13.171
68532SOL    HW1 7493  10.860   2.098  13.249
68532SOL    HW2 7494  10.933   2.175  13.141
68533SOL     OW 7495  11.295   4.353  14.538
68533SOL    HW1 7496  11.247   4.358  14.621
68533SOL    HW2 7497  11.297   4.259  14.517
68534SOL     OW 7498  11.816   5.290   7.061
68534SOL    HW1 7499  11.858   5.374   7.045
68534SOL    HW2 7500  11.822   5.243   6.978
68535SOL     OW 7501  14.692  14.505   8.772
68535SOL    HW1 7502  14.741  14.429   8.741
68535SOL    HW2 7503  14.697  14.568   8.699
68536SOL     OW 7504   8.788   3.267  10.794
68536SOL    HW1 7505   8.722   3.281  10.726
68536SOL    HW2 7506   8.749   3.304  10.873
68537SOL     OW 7507   2.047   6.770   3.439
68537SOL    HW1 7508   2.067   6.735   3.352
68537SOL    HW2 7509   2.060   6.865   3.431
68538SOL     OW 7510  13.117  10.916   6.404
68538SOL    HW1 7511  13.056  10.866   6.350
68538SOL    HW2 7512  13.203  10.882   6.381
68539SOL     OW 7513   2.144   0.076  10.135
68539SOL    HW1 7514   2.197   0.097  10.058
68539SOL    HW2 7515   2.208   0.052  10.202
68540SOL     OW 7516   0.875   5.686   8.145
68540SOL    HW1 7517   0.826   5.624   8.199
68540SOL    HW2 7518   0.963   5.650   8.141
68541SOL     OW 7519   1.512   2.983   1.389
68541SOL    HW1 7520   1.452   2.928   1.440
68541SOL    HW2 7521   1.592   2.987   1.442
68542SOL     OW 7522   6.858   8.375   0.323
68542SOL    HW1 7523   6.922   8.348   0.390
68542SOL    HW2 7524   6.906   8.438   0.270
68543SOL     OW 7525   1.691   4.028  12.306
68543SOL    HW1 7526   1.719   4.110  12.347
68543SOL    HW2 7527   1.765   4.001  12.253
68544SOL     OW 7528  11.402   3.133   6.367
68544SOL    HW1 7529  11.334   3.121   6.301
68544SOL    HW2 7530  11.378   3.214   6.412
68545SOL     OW 7531  11.219   5.571  11.644
68545SOL    HW1 7532  11.162   5.590  11.570
68545SOL    HW2 7533  11.307   5.588  11.612
68546SOL     OW 7534   3.888   1.637   7.530
68546SOL    HW1 7535   3.837   1.619   7.451
68546SOL    HW2 7536   3.958   1.695   7.500
68547SOL     OW 7537   5.006   0.308   1.884
68547SOL    HW1 7538   4.930   0.335   1.832
68547SOL    HW2 7539   4.968   0.270   1.964
68548SOL     OW 7540  13.953   3.735  12.004
68548SOL    HW1 7541  14.029   3.738  11.945
68548SOL    HW2 7542  13.972   3.662  12.063
68549SOL     OW 7543   3.059   0.801  14.560
68549SOL    HW1 7544   3.062   0.775  14.653
68549SOL    HW2 7545   3.005   0.734  14.518
68550SOL     OW 7546   2.785   8.739   4.422
68550SOL    HW1 7547   2.823   8.812   4.471
68550SOL    HW2 7548   2.760   8.676   4.490
68551SOL     OW 7549   0.769   3.405  13.047
68551SOL    HW1 7550   0.817   3.430  13.125
68551SOL    HW2 7551   0.690   3.361  13.081
68552SOL     OW 7552   4.642   9.889   8.970
68552SOL    HW1 7553   4.705   9.872   9.040
68552SOL    HW2 7554   4.584   9.813   8.971
68553SOL     OW 7555   2.897   7.500   9.051
68553SOL    HW1 7556   2.903   7.404   9.055
68553SOL    HW2 7557   2.831   7.523   9.116
68554SOL     OW 7558   9.603   3.843   6.644
68554SOL    HW1 7559   9.533   3.778   6.646
68554SOL    HW2 7560   9.560   3.925   6.624
68555SOL     OW 7561   1.656   5.569  14.560
68555SOL    HW1 7562   1.628   5.651  14.520
68555SOL    HW2 7563   1.662   5.588  14.654
68556SOL     OW 7564   8.227  10.353  12.304
68556SOL    HW1 7565   8.149  10.407  12.293
68556SOL    HW2 7566   8.262  10.344  12.216
68557SOL     OW 7567   8.529  13.535   5.577
68557SOL    HW1 7568   8.592  13.499   5.640
68557SOL    HW2 7569   8.447  13.491   5.597
68558SOL     OW 7570   4.169   2.241  13.668
68558SOL    HW1 7571   4.240   2.177  13.680
68558SOL    HW2 7572   4.098   2.209  13.723
68559SOL     OW 7573  14.275   0.059  13.840
68559SOL    HW1 7574  14.275   0.083  13.933
68559SOL    HW2 7575  14.242  14.857  13.838
68560SOL     OW 7576   7.803   9.526   8.036
68560SOL    HW1 7577   7.729   9.478   7.999
68560SOL    HW2 7578   7.813   9.491   8.124
68561SOL     OW 7579   7.323  12.392  12.720
68561SOL    HW1 7580   7.405  12.362  12.682
68561SOL    HW2 7581   7.346  12.475  12.763
68562SOL     OW 7582   6.620   9.790   6.838
68562SOL    HW1 7583   6.694   9.728   6.837
68562SOL    HW2 7584   6.598   9.801   6.745
68563SOL     OW 7585   7.775  13.780   5.291
68563SOL    HW1 7586   7.828  13.844   5.243
68563SOL    HW2 7587   7.755  13.824   5.374
68564SOL     OW 7588   1.108   2.013  14.368
68564SOL    HW1 7589   1.199   1.984  14.365
68564SOL    HW2 7590   1.064   1.961  14.302
68565SOL     OW 7591  14.135   2.981  13.803
68565SOL    HW1 7592  14.209   2.931  13.770
68565SOL    HW2 7593  14.058   2.939  13.765
68566SOL     OW 7594  12.489   0.860  10.920
68566SOL    HW1 7595  12.514   0.835  11.009
68566SOL    HW2 7596  12.425   0.930  10.932
68567SOL     OW 7597   0.041   1.862   1.266
68567SOL    HW1 7598   0.029   1.950   1.303
68567SOL    HW2 7599  14.840   1.826   1.261
68568SOL     OW 7600   9.907   1.958   6.597
68568SOL    HW1 7601   9.849   1.975   6.671
68568SOL    HW2 7602   9.957   2.039   6.587
68569SOL     OW 7603   6.225  12.217  10.451
68569SOL    HW1 7604   6.237  12.274  10.527
68569SOL    HW2 7605   6.286  12.145  10.466
68570SOL     OW 7606   9.278   5.713   1.884
68570SOL    HW1 7607   9.349   5.683   1.826
68570SOL    HW2 7608   9.199   5.701   1.832
68571SOL     OW 7609   8.892   2.423  12.385
68571SOL    HW1 7610   8.979   2.392  12.409
68571SOL    HW2 7611   8.843   2.343  12.367
68572SOL     OW 7612   9.070   9.814   8.160
68572SOL    HW1 7613   9.107   9.728   8.181
68572SOL    HW2 7614   9.115   9.875   8.219
68573SOL     OW 7615  12.545   2.699   2.753
68573SOL    HW1 7616  12.568   2.784   2.790
68573SOL    HW2 7617  12.622   2.644   2.768
68574SOL     OW 7618   3.727   0.780   0.562
68574SOL    HW1 7619   3.745   0.704   0.506
68574SOL    HW2 7620   3.632   0.790   0.558
68575SOL     OW 7621   2.649   7.295   1.928
68575SOL    HW1 7622   2.721   7.242   1.895
68575SOL    HW2 7623   2.572   7.238   1.922
68576SOL     OW 7624   5.410   9.240   7.186
68576SOL    HW1 7625   5.346   9.196   7.242
68576SOL    HW2 7626   5.458   9.298   7.244
68577SOL     OW 7627   8.108   9.089   7.331
68577SOL    HW1 7628   8.186   9.053   7.289
68577SOL    HW2 7629   8.049   9.014   7.340
68578SOL     OW 7630   5.580  12.963  14.179
68578SOL    HW1 7631   5.599  12.871  14.197
68578SOL    HW2 7632   5.637  13.011  14.238
68579SOL     OW 7633  13.889   4.612   0.687
68579SOL    HW1 7634  13.800   4.635   0.713
68579SOL    HW2 7635  13.938   4.694   0.693
68580SOL     OW 7636  14.271   3.097   4.963
68580SOL    HW1 7637  14.227   3.179   4.988
68580SOL    HW2 7638  14.346   3.125   4.911
68581SOL     OW 7639   1.389  12.900   0.244
68581SOL    HW1 7640   1.346  12.964   0.188
68581SOL    HW2 7641   1.413  12.949   0.323
68582SOL     OW 7642   5.591  10.250   8.586
68582SOL    HW1 7643   5.605  10.287   8.673
68582SOL    HW2 7644   5.600  10.325   8.527
68583SOL     OW 7645   5.331  12.450   9.227
68583SOL    HW1 7646   5.235  12.443   9.229
68583SOL    HW2 7647   5.357  12.444   9.319
68584SOL     OW 7648   6.433   0.556   8.821
68584SOL    HW1 7649   6.490   0.631   8.802
68584SOL    HW2 7650   6.354   0.595   8.860
68585SOL     OW 7651  11.388   6.989  10.201
68585SOL    HW1 7652  11.475   6.974  10.239
68585SOL    HW2 7653  11.347   6.903  10.201
68586SOL     OW 7654   4.207   5.276  14.109
68586SOL    HW1 7655   4.221   5.365  14.142
68586SOL    HW2 7656   4.233   5.281  14.017
68587SOL     OW 7657   9.443   7.102   1.023
68587SOL    HW1 7658   9.488   7.180   1.054
68587SOL    HW2 7659   9.379   7.082   1.092
68588SOL     OW 7660   2.592  12.240   2.558
68588SOL    HW1 7661   2.589  12.336   2.562
68588SOL    HW2 7662   2.506  12.213   2.592
68589SOL     OW 7663  14.098   3.790   1.178
68589SOL    HW1 7664  14.133   3.854   1.239
68589SOL    HW2 7665  14.003   3.793   1.192
68590SOL     OW 7666  11.907   7.367   0.774
68590SOL    HW1 7667  11.844   7.438   0.776
68590SOL    HW2 7668  11.896   7.322   0.857
68591SOL     OW 7669  14.464   3.996   1.344
68591SOL    HW1 7670  14.447   3.967   1.433
68591SOL    HW2 7671  14.476   3.915   1.293
68592SOL     OW 7672   7.811  14.662   2.666
68592SOL    HW1 7673   7.796  14.738   2.608
68592SOL    HW2 7674   7.865  14.603   2.613
68593SOL     OW 7675   6.775   8.853   2.663
68593SOL    HW1 7676   6.855   8.861   2.716
68593SOL    HW2 7677   6.770   8.760   2.641
68594SOL     OW 7678   7.462  14.789   3.198
68594SOL    HW1 7679   7.399  14.851   3.235
68594SOL    HW2 7680   7.478  14.823   3.110
68595SOL     OW 7681   4.969  11.648   3.515
68595SOL    HW1 7682   4.963  11.727   3.568
68595SOL    HW2 7683   4.957  11.678   3.425
68596SOL     OW 7684   7.750   0.002   1.210
68596SOL    HW1 7685   7.760   0.074   1.149
68596SOL    HW2 7686   7.684  14.833   1.170
68597SOL     OW 7687  12.926   5.452   3.209
68597SOL    HW1 7688  12.855   5.400   3.248
68597SOL    HW2 7689  12.918   5.538   3.250
68598SOL     OW 7690  14.861   0.131  14.638
68598SOL    HW1 7691  14.807   0.151  14.714
68598SOL    HW2 7692   0.063   0.133  14.672
68599SOL     OW 7693  10.965  11.197  11.168
68599SOL    HW1 7694  10.988  11.279  11.212
68599SOL    HW2 7695  11.034  11.136  11.192
68600SOL     OW 7696   3.667   6.371   9.207
68600SOL    HW1 7697   3.755   6.395   9.234
68600SOL    HW2 7698   3.644   6.436   9.140
68601SOL     OW 7699   5.515  13.620   2.557
68601SOL    HW1 7700   5.593  13.588   2.602
68601SOL    HW2 7701   5.543  13.638   2.468
68602SOL     OW 7702   2.006   6.428   4.853
68602SOL    HW1 7703   1.984   6.340   4.821
68602SOL    HW2 7704   2.052   6.412   4.935
68603SOL     OW 7705   9.021  13.964   2.856
68603SOL    HW1 7706   8.969  13.884   2.844
68603SOL    HW2 7707   8.986  14.025   2.791
68604SOL     OW 7708  11.744   9.152   5.661
68604SOL    HW1 7709  11.683   9.225   5.668
68604SOL    HW2 7710  11.776   9.139   5.750
68605SOL     OW 7711   9.659   1.547   5.026
68605SOL    HW1 7712   9.615   1.616   4.976
68605SOL    HW2 7713   9.694   1.591   5.103
68606SOL     OW 7714   6.209  10.070   2.217
68606SOL    HW1 7715   6.153  10.108   2.285
68606SOL    HW2 7716   6.296  10.069   2.256
68607SOL     OW 7717   7.878  10.314  11.730
68607SOL    HW1 7718   7.828  10.297  11.650
68607SOL    HW2 7719   7.931  10.235  11.742
68608SOL     OW 7720   7.105   7.721   2.995
68608SOL    HW1 7721   7.122   7.787   3.062
68608SOL    HW2 7722   7.173   7.736   2.929
68609SOL     OW 7723  10.472   3.047   2.710
68609SOL    HW1 7724  10.432   2.981   2.767
68609SOL    HW2 7725  10.424   3.039   2.627
68610SOL     OW 7726   8.279   7.391  13.865
68610SOL    HW1 7727   8.362   7.350  13.890
68610SOL    HW2 7728   8.292   7.484  13.882
68611SOL     OW 7729  13.059   5.629  10.157
68611SOL    HW1 7730  13.152   5.649  10.158
68611SOL    HW2 7731  13.034   5.626  10.249
68612SOL     OW 7732   2.780  10.915  11.283
68612SOL    HW1 7733   2.726  10.981  11.326
68612SOL    HW2 7734   2.798  10.953  11.196
68613SOL     OW 7735  13.711   6.054  13.486
68613SOL    HW1 7736  13.678   6.144  13.494
68613SOL    HW2 7737  13.632   6.000  13.479
68614SOL     OW 7738  10.476  13.363   6.820
68614SOL    HW1 7739  10.520  13.344   6.902
68614SOL    HW2 7740  10.421  13.440   6.839
68615SOL     OW 7741  10.569  11.651   4.629
68615SOL    HW1 7742  10.627  11.713   4.673
68615SOL    HW2 7743  10.618  11.570   4.625
68616SOL     OW 7744   9.607  12.342   6.655
68616SOL    HW1 7745   9.562  12.426   6.648
68616SOL    HW2 7746   9.546  12.278   6.618
68617SOL     OW 7747   5.510  12.578   0.076
68617SOL    HW1 7748   5.591  12.580   0.127
68617SOL    HW2 7749   5.444  12.546   0.137
68618SOL     OW 7750  14.050   6.269  12.832
68618SOL    HW1 7751  13.968   6.288  12.786
68618SOL    HW2 7752  14.022   6.226  12.913
68619SOL     OW 7753  13.090   1.347   7.810
68619SOL    HW1 7754  13.028   1.274   7.811
68619SOL    HW2 7755  13.048   1.412   7.754
68620SOL     OW 7756  11.155  12.873  12.168
68620SOL    HW1 7757  11.062  12.881  12.145
68620SOL    HW2 7758  11.187  12.799  12.115
68621SOL     OW 7759   9.306  12.139  13.509
68621SOL    HW1 7760   9.366  12.134  13.435
68621SOL    HW2 7761   9.290  12.048  13.534
68622SOL     OW 7762   4.777   1.176   5.987
68622SOL    HW1 7763   4.812   1.180   5.897
68622SOL    HW2 7764   4.840   1.123   6.035
68623SOL     OW 7765  10.121   6.789   3.505
68623SOL    HW1 7766  10.170   6.785   3.422
68623SOL    HW2 7767  10.187   6.774   3.572
68624SOL     OW 7768   1.297   3.829   8.013
68624SOL    HW1 7769   1.244   3.903   8.043
68624SOL    HW2 7770   1.236   3.756   8.011
68625SOL     OW 7771   0.419  11.236   3.191
68625SOL    HW1 7772   0.383  11.155   3.226
68625SOL    HW2 7773   0.345  11.279   3.148
68626SOL     OW 7774   5.109   0.065   4.438
68626SOL    HW1 7775   5.037   0.117   4.475
68626SOL    HW2 7776   5.174   0.062   4.508
68627SOL     OW 7777  13.856  12.572   5.934
68627SOL    HW1 7778  13.825  12.585   6.024
68627SOL    HW2 7779  13.950  12.588   5.939
68628SOL     OW 7780   2.300  14.824   6.910
68628SOL    HW1 7781   2.350  14.784   6.839
68628SOL    HW2 7782   2.282  14.752   6.971
68629SOL     OW 7783   4.026   6.823  13.530
68629SOL    HW1 7784   4.056   6.872  13.608
68629SOL    HW2 7785   4.055   6.733  13.547
68630SOL     OW 7786   7.122   6.662  11.663
68630SOL    HW1 7787   7.166   6.706  11.737
68630SOL    HW2 7788   7.088   6.581  11.700
68631SOL     OW 7789  12.718   3.224   3.445
68631SOL    HW1 7790  12.676   3.154   3.495
68631SOL    HW2 7791  12.670   3.227   3.363
68632SOL     OW 7792   6.632   0.676   2.544
68632SOL    HW1 7793   6.553   0.677   2.598
68632SOL    HW2 7794   6.600   0.679   2.454
68633SOL     OW 7795   9.054  10.522  11.159
68633SOL    HW1 7796   8.970  10.567  11.166
68633SOL    HW2 7797   9.046  10.448  11.220
68634SOL     OW 7798   3.892   8.270  13.875
68634SOL    HW1 7799   3.839   8.198  13.909
68634SOL    HW2 7800   3.886   8.338  13.942
68635SOL     OW 7801   8.934  13.248   2.208
68635SOL    HW1 7802   9.003  13.314   2.200
68635SOL    HW2 7803   8.893  13.267   2.293
68636SOL     OW 7804   3.016   6.002  11.594
68636SOL    HW1 7805   3.061   5.983  11.512
68636SOL    HW2 7806   2.942   6.056  11.569
68637SOL     OW 7807   6.553  11.456   2.441
68637SOL    HW1 7808   6.623  11.429   2.502
68637SOL    HW2 7809   6.494  11.509   2.495
68638SOL     OW 7810   0.367   9.607  13.140
68638SOL    HW1 7811   0.273   9.601  13.125
68638SOL    HW2 7812   0.399   9.666  13.071
68639SOL     OW 7813  12.994   6.828   6.848
68639SOL    HW1 7814  13.077   6.781   6.836
68639SOL    HW2 7815  12.934   6.761   6.883
68640SOL     OW 7816  14.116   6.781   7.555
68640SOL    HW1 7817  14.201   6.820   7.573
68640SOL    HW2 7818  14.097   6.726   7.631
68641SOL     OW 7819   6.129   3.765   4.656
68641SOL    HW1 7820   6.133   3.859   4.640
68641SOL    HW2 7821   6.215   3.733   4.630
68642SOL     OW 7822  11.337  10.144   0.146
68642SOL    HW1 7823  11.359  10.109   0.233
68642SOL    HW2 7824  11.256  10.193   0.160
68643SOL     OW 7825  13.410   2.265  11.961
68643SOL    HW1 7826  13.496   2.305  11.979
68643SOL    HW2 7827  13.390   2.216  12.041
68644SOL     OW 7828   8.772  13.219  11.465
68644SOL    HW1 7829   8.811  13.232  11.378
68644SOL    HW2 7830   8.789  13.126  11.484
68645SOL     OW 7831  12.869   8.655   3.593
68645SOL    HW1 7832  12.912   8.638   3.509
68645SOL    HW2 7833  12.799   8.717   3.571
68646SOL     OW 7834   1.894   4.255  13.349
68646SOL    HW1 7835   1.809   4.273  13.308
68646SOL    HW2 7836   1.904   4.323  13.415
68647SOL     OW 7837  13.696   4.115   1.384
68647SOL    HW1 7838  13.771   4.107   1.325
68647SOL    HW2 7839  13.667   4.206   1.373
68648SOL     OW 7840   4.327   3.063   3.950
68648SOL    HW1 7841   4.385   3.140   3.943
68648SOL    HW2 7842   4.262   3.076   3.881
68649SOL     OW 7843   4.318  12.264   0.926
68649SOL    HW1 7844   4.342  12.228   1.012
68649SOL    HW2 7845   4.294  12.355   0.945
68650SOL     OW 7846  11.471  14.105   7.253
68650SOL    HW1 7847  11.457  14.149   7.169
68650SOL    HW2 7848  11.436  14.017   7.240
68651SOL     OW 7849   2.688  12.224  13.735
68651SOL    HW1 7850   2.609  12.176  13.711
68651SOL    HW2 7851   2.704  12.200  13.826
68652SOL     OW 7852  10.681   1.944  12.401
68652SOL    HW1 7853  10.590   1.973  12.398
68652SOL    HW2 7854  10.726   1.997  12.335
68653SOL     OW 7855   4.765   3.106   8.240
68653SOL    HW1 7856   4.818   3.128   8.162
68653SOL    HW2 7857   4.689   3.164   8.234
68654SOL     OW 7858   7.548   8.030   9.571
68654SOL    HW1 7859   7.619   8.093   9.587
68654SOL    HW2 7860   7.593   7.949   9.547
68655SOL     OW 7861  13.734   3.919   0.956
68655SOL    HW1 7862  13.657   3.961   0.918
68655SOL    HW2 7863  13.734   3.830   0.921
68656SOL     OW 7864   0.636  11.810  13.116
68656SOL    HW1 7865   0.666  11.764  13.195
68656SOL    HW2 7866   0.641  11.903  13.138
68657SOL     OW 7867   7.920  10.899  11.141
68657SOL    HW1 7868   7.836  10.854  11.130
68657SOL    HW2 7869   7.944  10.928  11.054
68658SOL     OW 7870   0.052  12.702   9.019
68658SOL    HW1 7871  14.854  12.665   9.042
68658SOL    HW2 7872   0.115  12.632   9.037
68659SOL     OW 7873  13.265   9.940   8.869
68659SOL    HW1 7874  13.355   9.958   8.839
68659SOL    HW2 7875  13.262   9.845   8.878
68660SOL     OW 7876   7.909  13.162   8.472
68660SOL    HW1 7877   7.851  13.217   8.525
68660SOL    HW2 7878   7.875  13.170   8.383
68661SOL     OW 7879  10.333   0.962  11.329
68661SOL    HW1 7880  10.403   0.942  11.392
68661SOL    HW2 7881  10.279   0.883  11.327
68662SOL     OW 7882   3.583   6.577  12.589
68662SOL    HW1 7883   3.593   6.664  12.628
68662SOL    HW2 7884   3.488   6.565  12.582
68663SOL     OW 7885  12.230  14.590   8.501
68663SOL    HW1 7886  12.190  14.617   8.584
68663SOL    HW2 7887  12.197  14.502   8.486
68664SOL     OW 7888   2.886  11.462   4.398
68664SOL    HW1 7889   2.876  11.440   4.305
68664SOL    HW2 7890   2.977  11.488   4.407
68665SOL     OW 7891  14.318  11.647   3.267
68665SOL    HW1 7892  14.323  11.740   3.243
68665SOL    HW2 7893  14.405  11.613   3.247
68666SOL     OW 7894   7.491   8.252   4.427
68666SOL    HW1 7895   7.431   8.204   4.369
68666SOL    HW2 7896   7.511   8.190   4.497
68667SOL     OW 7897  13.902   9.693   0.387
68667SOL    HW1 7898  13.903   9.663   0.296
68667SOL    HW2 7899  13.810   9.686   0.413
68668SOL     OW 7900  10.644   0.121   3.990
68668SOL    HW1 7901  10.675   0.057   4.054
68668SOL    HW2 7902  10.556   0.091   3.967
68669SOL     OW 7903   4.083  14.793   1.948
68669SOL    HW1 7904   4.034  14.713   1.931
68669SOL    HW2 7905   4.110  14.824   1.861
68670SOL     OW 7906  10.616   3.801   8.131
68670SOL    HW1 7907  10.544   3.824   8.190
68670SOL    HW2 7908  10.575   3.743   8.066
68671SOL     OW 7909   5.966  13.190   5.637
68671SOL    HW1 7910   5.991  13.141   5.559
68671SOL    HW2 7911   5.968  13.126   5.707
68672SOL     OW 7912   3.667   5.358   2.282
68672SOL    HW1 7913   3.759   5.376   2.260
68672SOL    HW2 7914   3.663   5.370   2.377
68673SOL     OW 7915   0.711   5.148   9.931
68673SOL    HW1 7916   0.745   5.217   9.874
68673SOL    HW2 7917   0.664   5.089   9.872
68674SOL     OW 7918   1.122   3.357  12.414
68674SOL    HW1 7919   1.144   3.436  12.366
68674SOL    HW2 7920   1.051   3.317  12.364
68675SOL     OW 7921  14.823   2.035   4.686
68675SOL    HW1 7922  14.767   1.986   4.746
68675SOL    HW2 7923  14.768   2.106   4.653
68676SOL     OW 7924  12.991   0.938   1.537
68676SOL    HW1 7925  12.934   0.978   1.603
68676SOL    HW2 7926  12.945   0.953   1.454
68677SOL     OW 7927   6.050  11.542  10.408
68677SOL    HW1 7928   6.001  11.557  10.489
68677SOL    HW2 7929   5.986  11.558  10.338
68678SOL     OW 7930   8.881  12.689   4.366
68678SOL    HW1 7931   8.955  12.710   4.308
68678SOL    HW2 7932   8.917  12.701   4.454
68679SOL     OW 7933  10.303   0.582   8.609
68679SOL    HW1 7934  10.283   0.666   8.650
68679SOL    HW2 7935  10.234   0.523   8.640
68680SOL     OW 7936   2.476  14.102  13.182
68680SOL    HW1 7937   2.466  14.059  13.097
68680SOL    HW2 7938   2.473  14.030  13.246
68681SOL     OW 7939   1.234   5.675  11.245
68681SOL    HW1 7940   1.263   5.705  11.331
68681SOL    HW2 7941   1.314   5.667  11.194
68682SOL     OW 7942   0.946   2.509   9.938
68682SOL    HW1 7943   0.885   2.578   9.911
68682SOL    HW2 7944   0.933   2.439   9.874
68683SOL     OW 7945  12.257  13.703   2.291
68683SOL    HW1 7946  12.272  13.728   2.382
68683SOL    HW2 7947  12.220  13.781   2.249
68684SOL     OW 7948  12.314   3.105   2.789
68684SOL    HW1 7949  12.291   3.166   2.719
68684SOL    HW2 7950  12.245   3.039   2.787
68685SOL     OW 7951   9.710   0.845   5.244
68685SOL    HW1 7952   9.700   0.932   5.284
68685SOL    HW2 7953   9.757   0.794   5.310
68686SOL     OW 7954  13.234   4.282   7.408
68686SOL    HW1 7955  13.147   4.272   7.369
68686SOL    HW2 7956  13.233   4.369   7.448
68687SOL     OW 7957   5.056   3.600   6.623
68687SOL    HW1 7958   5.062   3.507   6.601
68687SOL    HW2 7959   5.138   3.637   6.591
68688SOL     OW 7960  13.241   0.997   0.424
68688SOL    HW1 7961  13.332   1.019   0.442
68688SOL    HW2 7962  13.190   1.050   0.486
68689SOL     OW 7963  11.037   6.371   3.121
68689SOL    HW1 7964  10.953   6.415   3.137
68689SOL    HW2 7965  11.013   6.286   3.083
68690SOL     OW 7966   1.352   6.828   2.201
68690SOL    HW1 7967   1.309   6.912   2.188
68690SOL    HW2 7968   1.341   6.781   2.118
68691SOL     OW 7969  11.323   4.643  13.892
68691SOL    HW1 7970  11.350   4.564  13.846
68691SOL    HW2 7971  11.405   4.680  13.926
68692SOL     OW 7972   6.709   7.005   2.971
68692SOL    HW1 7973   6.714   7.082   2.915
68692SOL    HW2 7974   6.625   6.965   2.950
68693SOL     OW 7975   3.372   6.446  13.331
68693SOL    HW1 7976   3.405   6.532  13.354
68693SOL    HW2 7977   3.445   6.387  13.345
68694SOL     OW 7978   9.219  13.882  11.960
68694SOL    HW1 7979   9.286  13.818  11.985
68694SOL    HW2 7980   9.176  13.842  11.884
68695SOL     OW 7981   0.156  11.626   0.318
68695SOL    HW1 7982   0.150  11.678   0.238
68695SOL    HW2 7983   0.239  11.653   0.358
68696SOL     OW 7984  11.753   2.315   4.054
68696SOL    HW1 7985  11.795   2.382   4.108
68696SOL    HW2 7986  11.761   2.235   4.106
68697SOL     OW 7987  12.210   9.034   2.218
68697SOL    HW1 7988  12.261   8.984   2.155
68697SOL    HW2 7989  12.142   9.076   2.166
68698SOL     OW 7990   2.148   2.650   1.175
68698SOL    HW1 7991   2.073   2.693   1.135
68698SOL    HW2 7992   2.208   2.721   1.197
68699SOL     OW 7993   6.659   5.835   0.508
68699SOL    HW1 7994   6.632   5.745   0.488
68699SOL    HW2 7995   6.736   5.825   0.564
68700SOL     OW 7996   1.446   8.721   6.838
68700SOL    HW1 7997   1.385   8.791   6.863
68700SOL    HW2 7998   1.395   8.641   6.847
68701SOL     OW 7999   8.387   3.115   8.934
68701SOL    HW1 8000   8.332   3.162   8.996
68701SOL    HW2 8001   8.429   3.045   8.985
68702SOL     OW 8002  11.254  13.667  13.493
68702SOL    HW1 8003  11.241  13.747  13.442
68702SOL    HW2 8004  11.219  13.688  13.580
68703SOL     OW 8005   9.550   1.911   7.034
68703SOL    HW1 8006   9.468   1.865   7.017
68703SOL    HW2 8007   9.529   2.003   7.020
68704SOL     OW 8008   8.576   8.591   9.923
68704SOL    HW1 8009   8.597   8.593   9.829
68704SOL    HW2 8010   8.660   8.587   9.967
68705SOL     OW 8011  10.737   5.706   3.909
68705SOL    HW1 8012  10.677   5.633   3.928
68705SOL    HW2 8013  10.698   5.781   3.953
68706SOL     OW 8014   5.689  14.528   2.783
68706SOL    HW1 8015   5.777  14.490   2.770
68706SOL    HW2 8016   5.706  14.612   2.825
68707SOL     OW 8017   4.128   7.227   4.133
68707SOL    HW1 8018   4.048   7.235   4.184
68707SOL    HW2 8019   4.197   7.214   4.199
68708SOL     OW 8020  12.355   3.292  12.814
68708SOL    HW1 8021  12.417   3.234  12.769
68708SOL    HW2 8022  12.409   3.362  12.850
68709SOL     OW 8023  11.260   0.937   8.761
68709SOL    HW1 8024  11.246   1.031   8.743
68709SOL    HW2 8025  11.354   0.929   8.774
68710SOL     OW 8026  12.931   1.111  10.572
68710SOL    HW1 8027  12.847   1.119  10.526
68710SOL    HW2 8028  12.996   1.140  10.508
68711SOL     OW 8029   8.105   2.277   7.884
68711SOL    HW1 8030   8.107   2.217   7.810
68711SOL    HW2 8031   8.036   2.242   7.941
68712SOL     OW 8032   2.549  12.159  10.609
68712SOL    HW1 8033   2.568  12.252  10.596
68712SOL    HW2 8034   2.490  12.155  10.684
68713SOL     OW 8035   3.179   6.709   2.452
68713SOL    HW1 8036   3.087   6.685   2.443
68713SOL    HW2 8037   3.221   6.675   2.372
68714SOL     OW 8038   4.105   8.629   6.018
68714SOL    HW1 8039   4.145   8.578   5.948
68714SOL    HW2 8040   4.136   8.718   6.004
68715SOL     OW 8041   4.725  13.780  10.732
68715SOL    HW1 8042   4.780  13.728  10.673
68715SOL    HW2 8043   4.644  13.793  10.683
68716SOL     OW 8044  10.988  13.675   6.286
68716SOL    HW1 8045  10.964  13.597   6.236
68716SOL    HW2 8046  11.066  13.649   6.335
68717SOL     OW 8047  10.522   8.391   6.406
68717SOL    HW1 8048  10.485   8.473   6.372
68717SOL    HW2 8049  10.513   8.329   6.333
68718SOL     OW 8050  11.548   9.545  13.328
68718SOL    HW1 8051  11.561   9.631  13.288
68718SOL    HW2 8052  11.577   9.482  13.262
68719SOL     OW 8053   1.882   3.480   7.478
68719SOL    HW1 8054   1.801   3.517   7.443
68719SOL    HW2 8055   1.877   3.497   7.572
68720SOL     OW 8056  12.075   7.633  10.759
68720SOL    HW1 8057  12.006   7.621  10.825
68720SOL    HW2 8058  12.032   7.614  10.676
68721SOL     OW 8059  13.711  12.921   6.593
68721SOL    HW1 8060  13.798  12.898   6.560
68721SOL    HW2 8061  13.707  13.017   6.584
68722SOL     OW 8062   2.525  13.154   4.238
68722SOL    HW1 8063   2.435  13.124   4.224
68722SOL    HW2 8064   2.548  13.121   4.325
68723SOL     OW 8065   8.741  11.992  14.799
68723SOL    HW1 8066   8.761  11.945  14.880
68723SOL    HW2 8067   8.825  11.997  14.753
68724SOL     OW 8068   6.759   7.368   0.018
68724SOL    HW1 8069   6.686   7.383   0.078
68724SOL    HW2 8070   6.753   7.438  14.842
68725SOL     OW 8071  11.882   7.496   9.481
68725SOL    HW1 8072  11.807   7.499   9.421
68725SOL    HW2 8073  11.927   7.414   9.459
68726SOL     OW 8074  12.086   3.820   7.098
68726SOL    HW1 8075  12.031   3.759   7.048
68726SOL    HW2 8076  12.025   3.886   7.131
68727SOL     OW 8077  13.900   1.412   0.152
68727SOL    HW1 8078  13.946   1.328   0.148
68727SOL    HW2 8079  13.958   1.473   0.106
68728SOL     OW 8080   8.540   9.449   9.945
68728SOL    HW1 8081   8.631   9.478   9.950
68728SOL    HW2 8082   8.546   9.356   9.920
68729SOL     OW 8083  11.545  11.336   7.301
68729SOL    HW1 8084  11.543  11.393   7.224
68729SOL    HW2 8085  11.560  11.395   7.374
68730SOL     OW 8086   4.573  11.586   1.490
68730SOL    HW1 8087   4.597  11.675   1.465
68730SOL    HW2 8088   4.588  11.534   1.410
68731SOL     OW 8089   9.988  14.748   8.723
68731SOL    HW1 8090   9.943  14.822   8.683
68731SOL    HW2 8091  10.040  14.787   8.793
68732SOL     OW 8092   0.018   2.470  13.077
68732SOL    HW1 8093  14.887   2.492  12.986
68732SOL    HW2 8094   0.105   2.506  13.094
68733SOL     OW 8095   6.149   0.351   9.493
68733SOL    HW1 8096   6.127   0.412   9.423
68733SOL    HW2 8097   6.066   0.329   9.533
68734SOL     OW 8098  12.352   1.207   7.364
68734SOL    HW1 8099  12.273   1.248   7.399
68734SOL    HW2 8100  12.327   1.180   7.275
68735SOL     OW 8101   3.807   7.451   4.493
68735SOL    HW1 8102   3.729   7.506   4.501
68735SOL    HW2 8103   3.875   7.511   4.461
68736SOL     OW 8104   3.715   0.469  10.955
68736SOL    HW1 8105   3.760   0.388  10.934
68736SOL    HW2 8106   3.652   0.482  10.884
68737SOL     OW 8107  11.868  13.468   0.832
68737SOL    HW1 8108  11.951  13.427   0.854
68737SOL    HW2 8109  11.810  13.445   0.905
68738SOL     OW 8110  11.895  14.876  12.974
68738SOL    HW1 8111  11.845   0.038  12.910
68738SOL    HW2 8112  11.830  14.838  13.032
68739SOL     OW 8113   5.600  13.909   5.434
68739SOL    HW1 8114   5.520  13.930   5.386
68739SOL    HW2 8115   5.631  13.828   5.394
68740SOL     OW 8116   7.742   2.444   2.908
68740SOL    HW1 8117   7.704   2.437   2.995
68740SOL    HW2 8118   7.768   2.355   2.886
68741SOL     OW 8119  12.197   9.507  14.557
68741SOL    HW1 8120  12.168   9.573  14.493
68741SOL    HW2 8121  12.241   9.440  14.504
68742SOL     OW 8122  13.975   7.856  12.959
68742SOL    HW1 8123  14.069   7.864  12.972
68742SOL    HW2 8124  13.960   7.762  12.948
68743SOL     OW 8125   1.491   5.767   3.414
68743SOL    HW1 8126   1.422   5.790   3.476
68743SOL    HW2 8127   1.554   5.840   3.420
68744SOL     OW 8128   7.556  11.149   8.856
68744SOL    HW1 8129   7.503  11.130   8.934
68744SOL    HW2 8130   7.498  11.130   8.783
68745SOL     OW 8131  13.978   6.910   6.263
68745SOL    HW1 8132  13.921   6.941   6.333
68745SOL    HW2 8133  14.047   6.861   6.307
68746SOL     OW 8134   0.303   2.542  13.958
68746SOL    HW1 8135   0.278   2.503  14.041
68746SOL    HW2 8136   0.244   2.616  13.947
68747SOL     OW 8137   2.015  11.564   4.926
68747SOL    HW1 8138   1.926  11.532   4.934
68747SOL    HW2 8139   2.070  11.485   4.930
68748SOL     OW 8140   4.690  13.229   0.758
68748SOL    HW1 8141   4.655  13.140   0.762
68748SOL    HW2 8142   4.682  13.254   0.666
68749SOL     OW 8143  14.817  14.032   3.167
68749SOL    HW1 8144  14.793  14.051   3.077
68749SOL    HW2 8145   0.023  14.009   3.163
68750SOL     OW 8146  13.569   5.377  11.288
68750SOL    HW1 8147  13.523   5.293  11.291
68750SOL    HW2 8148  13.508   5.436  11.244
68751SOL     OW 8149  13.438   1.362  11.461
68751SOL    HW1 8150  13.345   1.376  11.478
68751SOL    HW2 8151  13.453   1.397  11.374
68752SOL     OW 8152   7.670   6.527   1.374
68752SOL    HW1 8153   7.718   6.455   1.332
68752SOL    HW2 8154   7.578   6.500   1.368
68753SOL     OW 8155  12.554   4.869   5.753
68753SOL    HW1 8156  12.488   4.922   5.798
68753SOL    HW2 8157  12.607   4.832   5.824
68754SOL     OW 8158   2.732   3.093   8.873
68754SOL    HW1 8159   2.707   3.024   8.811
68754SOL    HW2 8160   2.717   3.174   8.825
68755SOL     OW 8161  12.337  11.763  12.486
68755SOL    HW1 8162  12.431  11.778  12.473
68755SOL    HW2 8163  12.330  11.671  12.510
68756SOL     OW 8164   0.872   9.422   5.479
68756SOL    HW1 8165   0.923   9.447   5.401
68756SOL    HW2 8166   0.936   9.423   5.550
68757SOL     OW 8167   6.385   0.010  14.465
68757SOL    HW1 8168   6.356  14.806  14.466
68757SOL    HW2 8169   6.377   0.037  14.374
68758SOL     OW 8170  14.341   9.412   7.310
68758SOL    HW1 8171  14.357   9.506   7.304
68758SOL    HW2 8172  14.396   9.383   7.383
68759SOL     OW 8173   4.608  14.218  13.131
68759SOL    HW1 8174   4.681  14.267  13.169
68759SOL    HW2 8175   4.566  14.176  13.206
68760SOL     OW 8176   8.668   0.450  13.825
68760SOL    HW1 8177   8.761   0.457  13.848
68760SOL    HW2 8178   8.625   0.424  13.907
68761SOL     OW 8179   0.924  13.074   1.741
68761SOL    HW1 8180   0.897  13.030   1.821
68761SOL    HW2 8181   0.842  13.101   1.700
68762SOL     OW 8182   7.407   0.261  11.699
68762SOL    HW1 8183   7.386   0.193  11.635
68762SOL    HW2 8184   7.452   0.329  11.648
68763SOL     OW 8185   0.375  14.001   3.757
68763SOL    HW1 8186   0.432  14.046   3.695
68763SOL    HW2 8187   0.297  13.978   3.707
68764SOL     OW 8188  11.830   6.966  13.667
68764SOL    HW1 8189  11.905   6.934  13.716
68764SOL    HW2 8190  11.842   6.932  13.578
68765SOL     OW 8191   3.747   1.406   6.805
68765SOL    HW1 8192   3.825   1.457   6.783
68765SOL    HW2 8193   3.715   1.375   6.720
68766SOL     OW 8194   9.952   4.639   6.062
68766SOL    HW1 8195   9.888   4.601   6.122
68766SOL    HW2 8196   9.900   4.693   6.002
68767SOL     OW 8197  13.430  10.738  13.282
68767SOL    HW1 8198  13.384  10.656  13.261
68767SOL    HW2 8199  13.361  10.796  13.315
68768SOL     OW 8200   3.321   6.543   8.288
68768SOL    HW1 8201   3.298   6.489   8.212
68768SOL    HW2 8202   3.263   6.512   8.357
68769SOL     OW 8203   8.411   7.243   3.684
68769SOL    HW1 8204   8.436   7.333   3.706
68769SOL    HW2 8205   8.359   7.252   3.604
68770SOL     OW 8206   1.387   4.496  12.825
68770SOL    HW1 8207   1.448   4.503  12.752
68770SOL    HW2 8208   1.442   4.477  12.901
68771SOL     OW 8209   3.962  14.163  12.254
68771SOL    HW1 8210   3.970  14.247  12.298
68771SOL    HW2 8211   4.052  14.130  12.250
68772SOL     OW 8212   8.938   3.526   6.443
68772SOL    HW1 8213   9.017   3.475   6.462
68772SOL    HW2 8214   8.968   3.617   6.446
68773SOL     OW 8215   8.996  14.817  14.274
68773SOL    HW1 8216   8.971  14.815  14.366
68773SOL    HW2 8217   9.001   0.023  14.253
68774SOL     OW 8218   2.489  11.580   7.395
68774SOL    HW1 8219   2.460  11.612   7.481
68774SOL    HW2 8220   2.425  11.513   7.371
68775SOL     OW 8221   7.712   9.708   7.002
68775SOL    HW1 8222   7.622   9.714   7.033
68775SOL    HW2 8223   7.761   9.671   7.075
68776SOL     OW 8224   3.431   1.362   2.557
68776SOL    HW1 8225   3.375   1.298   2.512
68776SOL    HW2 8226   3.391   1.446   2.537
68777SOL     OW 8227  11.066   9.473   4.214
68777SOL    HW1 8228  11.044   9.556   4.255
68777SOL    HW2 8229  10.982   9.437   4.185
68778SOL     OW 8230   7.410   2.371  11.008
68778SOL    HW1 8231   7.316   2.354  10.998
68778SOL    HW2 8232   7.431   2.343  11.097
68779SOL     OW 8233   2.206  14.222  11.710
68779SOL    HW1 8234   2.232  14.156  11.647
68779SOL    HW2 8235   2.251  14.198  11.791
68780SOL     OW 8236   1.373   5.544   4.397
68780SOL    HW1 8237   1.384   5.604   4.324
68780SOL    HW2 8238   1.399   5.594   4.474
68781SOL     OW 8239  10.046   7.353   8.374
68781SOL    HW1 8240   9.995   7.313   8.444
68781SOL    HW2 8241  10.134   7.362   8.411
68782SOL     OW 8242   4.738   4.709   8.731
68782SOL    HW1 8243   4.776   4.709   8.819
68782SOL    HW2 8244   4.694   4.793   8.723
68783SOL     OW 8245   4.218  12.738   6.557
68783SOL    HW1 8246   4.279  12.807   6.582
68783SOL    HW2 8247   4.140  12.785   6.528
68784SOL     OW 8248   7.667   1.909   5.718
68784SOL    HW1 8249   7.592   1.861   5.752
68784SOL    HW2 8250   7.736   1.843   5.709
68785SOL     OW 8251  11.510   6.225  14.774
68785SOL    HW1 8252  11.513   6.285  14.848
68785SOL    HW2 8253  11.425   6.242  14.732
68786SOL     OW 8254   5.069   4.217   5.636
68786SOL    HW1 8255   5.100   4.168   5.712
68786SOL    HW2 8256   5.056   4.151   5.568
68787SOL     OW 8257   8.758   3.298   0.518
68787SOL    HW1 8258   8.735   3.387   0.492
68787SOL    HW2 8259   8.713   3.285   0.602
68788SOL     OW 8260   9.937   5.051   3.714
68788SOL    HW1 8261  10.009   5.071   3.773
68788SOL    HW2 8262   9.866   5.023   3.772
68789SOL     OW 8263   1.191  13.170   6.792
68789SOL    HW1 8264   1.273  13.151   6.747
68789SOL    HW2 8265   1.162  13.085   6.825
68790SOL     OW 8266  10.814  11.701   9.530
68790SOL    HW1 8267  10.786  11.610   9.528
68790SOL    HW2 8268  10.820  11.721   9.624
68791SOL     OW 8269  12.015   3.142   1.047
68791SOL    HW1 8270  12.102   3.145   1.008
68791SOL    HW2 8271  11.975   3.226   1.024
68792SOL     OW 8272  10.452   0.819   8.668
68792SOL    HW1 8273  10.517   0.781   8.727
68792SOL    HW2 8274  10.495   0.822   8.583
68793SOL     OW 8275   0.931  10.892  12.923
68793SOL    HW1 8276   0.851  10.842  12.940
68793SOL    HW2 8277   0.953  10.873  12.832
68794SOL     OW 8278  13.750  10.270   1.645
68794SOL    HW1 8279  13.753  10.277   1.549
68794SOL    HW2 8280  13.748  10.176   1.663
68795SOL     OW 8281  14.485   7.942   5.081
68795SOL    HW1 8282  14.499   8.033   5.055
68795SOL    HW2 8283  14.534   7.891   5.016
68796SOL     OW 8284   7.171   5.877  12.190
68796SOL    HW1 8285   7.161   5.786  12.164
68796SOL    HW2 8286   7.266   5.887  12.204
68797SOL     OW 8287   9.147   0.041   4.401
68797SOL    HW1 8288   9.132   0.104   4.472
68797SOL    HW2 8289   9.060   0.003   4.384
68798SOL     OW 8290   9.558  13.398   7.799
68798SOL    HW1 8291   9.639  13.401   7.851
68798SOL    HW2 8292   9.576  13.456   7.725
68799SOL     OW 8293  11.662   1.286   5.347
68799SOL    HW1 8294  11.674   1.237   5.428
68799SOL    HW2 8295  11.583   1.248   5.307
68800SOL     OW 8296   5.397   7.520   6.042
68800SOL    HW1 8297   5.441   7.594   5.999
68800SOL    HW2 8298   5.414   7.533   6.135
68801SOL     OW 8299  11.904  10.292  14.032
68801SOL    HW1 8300  11.815  10.312  14.003
68801SOL    HW2 8301  11.909  10.328  14.120
68802SOL     OW 8302  13.356   9.810   0.586
68802SOL    HW1 8303  13.383   9.773   0.502
68802SOL    HW2 8304  13.277   9.860   0.565
68803SOL     OW 8305  14.245   3.398   4.305
68803SOL    HW1 8306  14.194   3.320   4.283
68803SOL    HW2 8307  14.180   3.460   4.338
68804SOL     OW 8308   8.516   1.352   4.130
68804SOL    HW1 8309   8.487   1.280   4.074
68804SOL    HW2 8310   8.435   1.395   4.159
68805SOL     OW 8311   5.066  10.776   1.518
68805SOL    HW1 8312   5.004  10.839   1.554
68805SOL    HW2 8313   5.117  10.827   1.455
68806SOL     OW 8314   6.903  14.332   2.434
68806SOL    HW1 8315   6.946  14.263   2.384
68806SOL    HW2 8316   6.856  14.286   2.503
68807SOL     OW 8317  11.416   3.047  10.321
68807SOL    HW1 8318  11.491   2.991  10.304
68807SOL    HW2 8319  11.445   3.107  10.390
68808SOL     OW 8320   4.428   5.596   0.329
68808SOL    HW1 8321   4.464   5.575   0.243
68808SOL    HW2 8322   4.477   5.673   0.357
68809SOL     OW 8323   6.691   9.375   1.509
68809SOL    HW1 8324   6.670   9.465   1.484
68809SOL    HW2 8325   6.665   9.370   1.601
68810SOL     OW 8326   0.480   7.619   6.940
68810SOL    HW1 8327   0.406   7.606   6.881
68810SOL    HW2 8328   0.534   7.541   6.929
68811SOL     OW 8329   0.563   3.994   9.926
68811SOL    HW1 8330   0.577   4.084   9.897
68811SOL    HW2 8331   0.549   4.001  10.020
68812SOL     OW 8332   6.646  11.375   1.228
68812SOL    HW1 8333   6.696  11.456   1.233
68812SOL    HW2 8334   6.628  11.352   1.320
68813SOL     OW 8335  11.087   0.934   9.935
68813SOL    HW1 8336  11.038   0.921   9.854
68813SOL    HW2 8337  11.148   0.861   9.940
68814SOL     OW 8338   0.518   7.843   5.699
68814SOL    HW1 8339   0.443   7.885   5.657
68814SOL    HW2 8340   0.586   7.845   5.632
68815SOL     OW 8341   2.440  10.838   1.598
68815SOL    HW1 8342   2.396  10.872   1.676
68815SOL    HW2 8343   2.374  10.843   1.529
68816SOL     OW 8344   5.799   5.075   2.742
68816SOL    HW1 8345   5.866   5.116   2.796
68816SOL    HW2 8346   5.767   5.002   2.795
68817SOL     OW 8347  13.498   6.257   3.260
68817SOL    HW1 8348  13.584   6.262   3.218
68817SOL    HW2 8349  13.513   6.283   3.350
68818SOL     OW 8350   9.377   6.494   6.198
68818SOL    HW1 8351   9.430   6.415   6.194
68818SOL    HW2 8352   9.327   6.494   6.116
68819SOL     OW 8353  14.237   1.919  14.092
68819SOL    HW1 8354  14.152   1.875  14.094
68819SOL    HW2 8355  14.258   1.925  13.999
68820SOL     OW 8356  12.523   7.828  14.054
68820SOL    HW1 8357  12.455   7.763  14.037
68820SOL    HW2 8358  12.493   7.874  14.133
68821SOL     OW 8359  12.319  12.511  11.987
68821SOL    HW1 8360  12.403  12.548  11.960
68821SOL    HW2 8361  12.334  12.479  12.076
68822SOL     OW 8362   5.326   8.982   6.259
68822SOL    HW1 8363   5.338   8.888   6.271
68822SOL    HW2 8364   5.397   9.022   6.310
68823SOL     OW 8365  13.122  14.508  10.709
68823SOL    HW1 8366  13.130  14.437  10.645
68823SOL    HW2 8367  13.062  14.570  10.668
68824SOL     OW 8368  10.198   8.264   4.227
68824SOL    HW1 8369  10.129   8.269   4.161
68824SOL    HW2 8370  10.276   8.297   4.183
68825SOL     OW 8371   8.508  10.698  13.477
68825SOL    HW1 8372   8.527  10.657  13.562
68825SOL    HW2 8373   8.591  10.695  13.430
68826SOL     OW 8374   2.979  12.577   7.414
68826SOL    HW1 8375   3.070  12.549   7.403
68826SOL    HW2 8376   2.959  12.554   7.505
68827SOL     OW 8377  11.095   7.745   3.333
68827SOL    HW1 8378  11.060   7.693   3.261
68827SOL    HW2 8379  11.160   7.802   3.293
68828SOL     OW 8380   4.268   5.013   8.876
68828SOL    HW1 8381   4.352   5.001   8.921
68828SOL    HW2 8382   4.277   4.962   8.796
68829SOL     OW 8383   8.584  10.797   0.232
68829SOL    HW1 8384   8.672  10.832   0.215
68829SOL    HW2 8385   8.557  10.758   0.149
68830SOL     OW 8386   3.578  11.956  12.015
68830SOL    HW1 8387   3.601  11.943  11.923
68830SOL    HW2 8388   3.524  12.035  12.015
68831SOL     OW 8389   5.446  11.891   0.668
68831SOL    HW1 8390   5.484  11.913   0.753
68831SOL    HW2 8391   5.355  11.920   0.674
68832SOL     OW 8392   5.097   6.918   8.439
68832SOL    HW1 8393   5.067   6.904   8.529
68832SOL    HW2 8394   5.190   6.940   8.448
68833SOL     OW 8395   7.092  10.211   9.160
68833SOL    HW1 8396   7.152  10.180   9.092
68833SOL    HW2 8397   7.079  10.135   9.217
68834SOL     OW 8398  11.009   4.869  11.513
68834SOL    HW1 8399  10.936   4.808  11.522
68834SOL    HW2 8400  11.034   4.889  11.603
68835SOL     OW 8401   5.445   8.311  12.607
68835SOL    HW1 8402   5.510   8.367  12.563
68835SOL    HW2 8403   5.418   8.361  12.684
68836SOL     OW 8404   7.164   3.698   8.568
68836SOL    HW1 8405   7.086   3.692   8.512
68836SOL    HW2 8406   7.144   3.771   8.627
68837SOL     OW 8407  11.719   8.861   7.034
68837SOL    HW1 8408  11.768   8.943   7.043
68837SOL    HW2 8409  11.774   8.795   7.077
68838SOL     OW 8410   9.787  11.656   5.528
68838SOL    HW1 8411   9.815  11.629   5.441
68838SOL    HW2 8412   9.693  11.636   5.530
68839SOL     OW 8413   7.295   0.172  14.345
68839SOL    HW1 8414   7.300   0.095  14.288
68839SOL    HW2 8415   7.362   0.157  14.412
68840SOL     OW 8416   5.533  10.748   1.230
68840SOL    HW1 8417   5.490  10.765   1.314
68840SOL    HW2 8418   5.503  10.818   1.173
68841SOL     OW 8419   5.462   4.140   7.442
68841SOL    HW1 8420   5.446   4.071   7.507
68841SOL    HW2 8421   5.556   4.157   7.447
68842SOL     OW 8422  14.247  12.218   1.579
68842SOL    HW1 8423  14.252  12.190   1.488
68842SOL    HW2 8424  14.192  12.297   1.577
68843SOL     OW 8425   4.088   7.718   5.302
68843SOL    HW1 8426   4.070   7.662   5.378
68843SOL    HW2 8427   4.127   7.659   5.237
68844SOL     OW 8428   0.063   1.140   0.241
68844SOL    HW1 8429   0.146   1.168   0.202
68844SOL    HW2 8430   0.034   1.215   0.292
68845SOL     OW 8431   8.245  10.691   2.081
68845SOL    HW1 8432   8.303  10.625   2.119
68845SOL    HW2 8433   8.296  10.771   2.081
68846SOL     OW 8434   1.989  12.482   0.208
68846SOL    HW1 8435   2.074  12.520   0.185
68846SOL    HW2 8436   1.941  12.555   0.247
68847SOL     OW 8437   4.547   7.371  12.173
68847SOL    HW1 8438   4.484   7.323  12.120
68847SOL    HW2 8439   4.552   7.458  12.133
68848SOL     OW 8440  13.909   8.364  11.414
68848SOL    HW1 8441  13.963   8.286  11.423
68848SOL    HW2 8442  13.970   8.434  11.392
68849SOL     OW 8443   1.234   0.052   0.441
68849SOL    HW1 8444   1.287   0.011   0.510
68849SOL    HW2 8445   1.209  14.867   0.384
68850SOL     OW 8446   5.682   9.375   5.701
68850SOL    HW1 8447   5.614   9.332   5.753
68850SOL    HW2 8448   5.650   9.371   5.611
68851SOL     OW 8449   4.442   5.191   8.401
68851SOL    HW1 8450   4.462   5.125   8.335
68851SOL    HW2 8451   4.416   5.268   8.351
68852SOL     OW 8452   6.488   6.927  14.696
68852SOL    HW1 8453   6.547   6.957  14.627
68852SOL    HW2 8454   6.543   6.915  14.773
68853SOL     OW 8455  14.185   2.061   7.465
68853SOL    HW1 8456  14.270   2.053   7.506
68853SOL    HW2 8457  14.166   1.973   7.432
68854SOL     OW 8458   5.608   1.791   7.632
68854SOL    HW1 8459   5.542   1.857   7.612
68854SOL    HW2 8460   5.595   1.772   7.725
68855SOL     OW 8461   2.082  14.631   5.299
68855SOL    HW1 8462   2.084  14.705   5.238
68855SOL    HW2 8463   2.092  14.671   5.385
68856SOL     OW 8464   5.577  14.292   6.055
68856SOL    HW1 8465   5.517  14.217   6.056
68856SOL    HW2 8466   5.548  14.346   6.129
68857SOL     OW 8467   7.353  13.688   5.600
68857SOL    HW1 8468   7.303  13.611   5.627
68857SOL    HW2 8469   7.374  13.672   5.508
68858SOL     OW 8470  12.190  14.508  10.831
68858SOL    HW1 8471  12.110  14.516  10.778
68858SOL    HW2 8472  12.167  14.444  10.898
68859SOL     OW 8473  13.564   4.720   7.497
68859SOL    HW1 8474  13.651   4.760   7.501
68859SOL    HW2 8475  13.515   4.762   7.567
68860SOL     OW 8476   2.299   0.157   9.917
68860SOL    HW1 8477   2.275   0.247   9.893
68860SOL    HW2 8478   2.370   0.134   9.857
68861SOL     OW 8479   4.620  10.494   2.881
68861SOL    HW1 8480   4.651  10.430   2.818
68861SOL    HW2 8481   4.531  10.515   2.852
68862SOL     OW 8482   1.654  14.339   7.731
68862SOL    HW1 8483   1.566  14.370   7.753
68862SOL    HW2 8484   1.640  14.274   7.662
68863SOL     OW 8485   2.016  11.119   3.406
68863SOL    HW1 8486   2.060  11.196   3.443
68863SOL    HW2 8487   1.971  11.079   3.481
68864SOL     OW 8488  13.193   6.811   1.006
68864SOL    HW1 8489  13.264   6.765   0.961
68864SOL    HW2 8490  13.130   6.830   0.937
68865SOL     OW 8491  12.830   4.707   3.497
68865SOL    HW1 8492  12.826   4.703   3.401
68865SOL    HW2 8493  12.898   4.644   3.520
68866SOL     OW 8494   9.305   9.075   6.689
68866SOL    HW1 8495   9.341   8.989   6.665
68866SOL    HW2 8496   9.240   9.093   6.621
68867SOL     OW 8497  13.945  11.329   7.681
68867SOL    HW1 8498  14.038  11.352   7.684
68867SOL    HW2 8499  13.904  11.400   7.632
68868SOL     OW 8500   9.405  11.483  10.214
68868SOL    HW1 8501   9.472  11.435  10.166
68868SOL    HW2 8502   9.323  11.459  10.171
68869SOL     OW 8503   1.564   7.137  14.379
68869SOL    HW1 8504   1.560   7.074  14.307
68869SOL    HW2 8505   1.548   7.085  14.458
68870SOL     OW 8506   1.703  12.781   1.484
68870SOL    HW1 8507   1.667  12.692   1.484
68870SOL    HW2 8508   1.798  12.769   1.483
68871SOL     OW 8509  10.808   7.406   4.069
68871SOL    HW1 8510  10.714   7.389   4.063
68871SOL    HW2 8511  10.831   7.383   4.160
68872SOL     OW 8512   2.614  12.017  14.003
68872SOL    HW1 8513   2.597  11.984  14.091
68872SOL    HW2 8514   2.708  12.036  14.002
68873SOL     OW 8515   5.362   5.901   4.493
68873SOL    HW1 8516   5.356   5.938   4.581
68873SOL    HW2 8517   5.347   5.976   4.435
68874SOL     OW 8518  11.887  10.530   7.643
68874SOL    HW1 8519  11.809  10.489   7.605
68874SOL    HW2 8520  11.939  10.557   7.567
68875SOL     OW 8521  11.579   1.098   3.001
68875SOL    HW1 8522  11.527   1.023   3.031
68875SOL    HW2 8523  11.594   1.150   3.080
68876SOL     OW 8524   6.374  14.498  12.131
68876SOL    HW1 8525   6.401  14.501  12.039
68876SOL    HW2 8526   6.430  14.563  12.174
68877SOL     OW 8527   1.675  14.063  10.426
68877SOL    HW1 8528   1.743  14.020  10.374
68877SOL    HW2 8529   1.715  14.144  10.457
68878SOL     OW 8530  12.441   2.516   6.177
68878SOL    HW1 8531  12.378   2.482   6.240
68878SOL    HW2 8532  12.486   2.438   6.144
68879SOL     OW 8533   7.203   7.394   7.993
68879SOL    HW1 8534   7.169   7.326   7.934
68879SOL    HW2 8535   7.199   7.475   7.941
68880SOL     OW 8536   1.397   9.837   5.133
68880SOL    HW1 8537   1.420   9.924   5.099
68880SOL    HW2 8538   1.410   9.778   5.059
68881SOL     OW 8539   6.593   3.179  13.738
68881SOL    HW1 8540   6.597   3.215  13.826
68881SOL    HW2 8541   6.684   3.183  13.706
68882SOL     OW 8542   4.618   1.532  10.570
68882SOL    HW1 8543   4.605   1.543  10.664
68882SOL    HW2 8544   4.654   1.444  10.561
68883SOL     OW 8545   4.420   2.641   1.812
68883SOL    HW1 8546   4.404   2.701   1.886
68883SOL    HW2 8547   4.335   2.634   1.769
68884SOL     OW 8548   6.050   3.376  12.238
68884SOL    HW1 8549   6.075   3.297  12.286
68884SOL    HW2 8550   6.102   3.372  12.157
68885SOL     OW 8551  11.096   9.111   6.605
68885SOL    HW1 8552  11.082   9.017   6.618
68885SOL    HW2 8553  11.184   9.127   6.639
68886SOL     OW 8554   1.830   1.648  13.037
68886SOL    HW1 8555   1.845   1.652  13.132
68886SOL    HW2 8556   1.891   1.712  13.001
68887SOL     OW 8557  14.472   6.060   9.956
68887SOL    HW1 8558  14.471   6.004  10.034
68887SOL    HW2 8559  14.390   6.108   9.960
68888SOL     OW 8560   4.374  13.867  13.338
68888SOL    HW1 8561   4.308  13.926  13.300
68888SOL    HW2 8562   4.388  13.801  13.271
68889SOL     OW 8563   9.561  13.095  10.585
68889SOL    HW1 8564   9.583  13.039  10.510
68889SOL    HW2 8565   9.624  13.070  10.652
68890SOL     OW 8566   8.916  10.795   2.179
68890SOL    HW1 8567   8.959  10.850   2.245
68890SOL    HW2 8568   8.974  10.720   2.168
68891SOL     OW 8569   3.347  10.267   6.583
68891SOL    HW1 8570   3.284  10.313   6.639
68891SOL    HW2 8571   3.295  10.238   6.507
68892SOL     OW 8572   4.884   2.390  13.076
68892SOL    HW1 8573   4.964   2.443  13.072
68892SOL    HW2 8574   4.873   2.371  13.170
68893SOL     OW 8575   7.229  11.367  13.016
68893SOL    HW1 8576   7.194  11.454  12.994
68893SOL    HW2 8577   7.221  11.317  12.935
68894SOL     OW 8578   7.528   2.484   6.637
68894SOL    HW1 8579   7.468   2.523   6.700
68894SOL    HW2 8580   7.556   2.558   6.582
68895SOL     OW 8581   0.899   1.919   6.335
68895SOL    HW1 8582   0.893   1.880   6.248
68895SOL    HW2 8583   0.993   1.934   6.348
68896SOL     OW 8584   8.767   8.479  11.083
68896SOL    HW1 8585   8.849   8.483  11.033
68896SOL    HW2 8586   8.704   8.438  11.023
68897SOL     OW 8587   9.137   5.237   3.080
68897SOL    HW1 8588   9.111   5.147   3.057
68897SOL    HW2 8589   9.116   5.244   3.173
68898SOL     OW 8590  12.556   2.258   0.303
68898SOL    HW1 8591  12.596   2.344   0.288
68898SOL    HW2 8592  12.628   2.202   0.330
68899SOL     OW 8593  12.233  12.151   0.760
68899SOL    HW1 8594  12.216  12.164   0.667
68899SOL    HW2 8595  12.290  12.075   0.764
68900SOL     OW 8596  11.782   5.185   8.027
68900SOL    HW1 8597  11.730   5.210   8.103
68900SOL    HW2 8598  11.797   5.091   8.038
68901SOL     OW 8599   5.368   5.627   5.554
68901SOL    HW1 8600   5.419   5.619   5.474
68901SOL    HW2 8601   5.298   5.688   5.532
68902SOL     OW 8602   6.067   2.815   9.187
68902SOL    HW1 8603   6.052   2.892   9.132
68902SOL    HW2 8604   5.996   2.816   9.250
68903SOL     OW 8605  14.660   2.390   2.106
68903SOL    HW1 8606  14.672   2.360   2.196
68903SOL    HW2 8607  14.567   2.414   2.101
68904SOL     OW 8608   1.366   8.778   4.583
68904SOL    HW1 8609   1.417   8.722   4.642
68904SOL    HW2 8610   1.404   8.763   4.496
68905SOL     OW 8611   6.716   5.533   5.674
68905SOL    HW1 8612   6.781   5.481   5.627
68905SOL    HW2 8613   6.731   5.623   5.645
68906SOL     OW 8614   3.643  14.582   3.609
68906SOL    HW1 8615   3.661  14.539   3.692
68906SOL    HW2 8616   3.698  14.660   3.609
68907SOL     OW 8617  10.411   0.906  13.953
68907SOL    HW1 8618  10.444   0.996  13.959
68907SOL    HW2 8619  10.403   0.890  13.859
68908SOL     OW 8620   6.696   0.499   5.301
68908SOL    HW1 8621   6.631   0.430   5.316
68908SOL    HW2 8622   6.777   0.452   5.282
68909SOL     OW 8623   7.033   0.360   0.650
68909SOL    HW1 8624   7.063   0.347   0.740
68909SOL    HW2 8625   7.080   0.437   0.619
68910SOL     OW 8626   9.636  14.693   9.843
68910SOL    HW1 8627   9.588  14.719   9.922
68910SOL    HW2 8628   9.611  14.758   9.778
68911SOL     OW 8629   4.668  13.390  14.106
68911SOL    HW1 8630   4.592  13.367  14.158
68911SOL    HW2 8631   4.702  13.470  14.146
68912SOL     OW 8632   6.369   3.491   4.415
68912SOL    HW1 8633   6.423   3.449   4.348
68912SOL    HW2 8634   6.423   3.564   4.447
68913SOL     OW 8635  10.174   9.579   1.441
68913SOL    HW1 8636  10.217   9.543   1.518
68913SOL    HW2 8637  10.151   9.668   1.465
68914SOL     OW 8638  13.965   2.899   6.794
68914SOL    HW1 8639  14.036   2.898   6.730
68914SOL    HW2 8640  13.909   2.826   6.768
68915SOL     OW 8641   2.124   3.148  12.357
68915SOL    HW1 8642   2.108   3.127  12.449
68915SOL    HW2 8643   2.110   3.065  12.311
68916SOL     OW 8644   4.690  14.340   9.915
68916SOL    HW1 8645   4.608  14.337   9.865
68916SOL    HW2 8646   4.719  14.249   9.918
68917SOL     OW 8647   3.276   7.314   7.897
68917SOL    HW1 8648   3.304   7.361   7.976
68917SOL    HW2 8649   3.353   7.263   7.870
68918SOL     OW 8650   4.324   7.972   8.244
68918SOL    HW1 8651   4.251   7.919   8.215
68918SOL    HW2 8652   4.385   7.910   8.283
68919SOL     OW 8653   7.812  13.573   3.764
68919SOL    HW1 8654   7.879  13.549   3.828
68919SOL    HW2 8655   7.861  13.609   3.690
68920SOL     OW 8656  14.276   7.707   5.628
68920SOL    HW1 8657  14.320   7.742   5.550
68920SOL    HW2 8658  14.185   7.695   5.600
68921SOL     OW 8659   1.911   3.594   5.299
68921SOL    HW1 8660   1.911   3.499   5.286
68921SOL    HW2 8661   1.940   3.605   5.390
68922SOL     OW 8662  13.672   2.308  12.122
68922SOL    HW1 8663  13.660   2.253  12.200
68922SOL    HW2 8664  13.677   2.397  12.156
68923SOL     OW 8665  13.941  10.329   6.499
68923SOL    HW1 8666  13.929  10.247   6.547
68923SOL    HW2 8667  14.024  10.317   6.452
68924SOL     OW 8668   5.094  12.281   8.452
68924SOL    HW1 8669   5.007  12.280   8.493
68924SOL    HW2 8670   5.148  12.226   8.509
68925SOL     OW 8671   9.569   2.981  10.914
68925SOL    HW1 8672   9.567   2.920  10.840
68925SOL    HW2 8673   9.483   3.024  10.913
68926SOL     OW 8674   4.291   8.922   4.523
68926SOL    HW1 8675   4.382   8.911   4.497
68926SOL    HW2 8676   4.295   8.957   4.612
68927SOL     OW 8677  12.142  11.589   5.348
68927SOL    HW1 8678  12.097  11.551   5.424
68927SOL    HW2 8679  12.175  11.674   5.380
68928SOL     OW 8680   4.452  12.061  12.921
68928SOL    HW1 8681   4.536  12.027  12.954
68928SOL    HW2 8682   4.450  12.152  12.950
68929SOL     OW 8683   9.281   0.353   4.921
68929SOL    HW1 8684   9.303   0.350   5.014
68929SOL    HW2 8685   9.205   0.412   4.917
68930SOL     OW 8686  10.935   3.584  12.267
68930SOL    HW1 8687  10.906   3.519  12.203
68930SOL    HW2 8688  10.939   3.535  12.350
68931SOL     OW 8689   5.557  11.284   0.323
68931SOL    HW1 8690   5.632  11.230   0.350
68931SOL    HW2 8691   5.482  11.225   0.332
68932SOL     OW 8692   7.454   4.367   8.814
68932SOL    HW1 8693   7.530   4.323   8.852
68932SOL    HW2 8694   7.403   4.395   8.890
68933SOL     OW 8695   7.038   3.740   3.986
68933SOL    HW1 8696   7.017   3.688   3.908
68933SOL    HW2 8697   7.119   3.702   4.019
68934SOL     OW 8698  11.019  10.223   9.667
68934SOL    HW1 8699  11.107  10.246   9.695
68934SOL    HW2 8700  11.032  10.152   9.604
68935SOL     OW 8701   6.952   0.907   6.764
68935SOL    HW1 8702   6.991   0.953   6.839
68935SOL    HW2 8703   6.974   0.815   6.778
68936SOL     OW 8704   0.342  12.195   0.231
68936SOL    HW1 8705   0.292  12.275   0.215
68936SOL    HW2 8706   0.293  12.127   0.184
68937SOL     OW 8707   4.184   2.912   4.459
68937SOL    HW1 8708   4.217   2.968   4.388
68937SOL    HW2 8709   4.190   2.966   4.537
68938SOL     OW 8710   7.312   6.901   5.004
68938SOL    HW1 8711   7.268   6.947   4.932
68938SOL    HW2 8712   7.243   6.888   5.069
68939SOL     OW 8713   0.449  10.788  11.670
68939SOL    HW1 8714   0.462  10.879  11.642
68939SOL    HW2 8715   0.538  10.755  11.682
68940SOL     OW 8716   2.768  13.324   1.775
68940SOL    HW1 8717   2.825  13.347   1.848
68940SOL    HW2 8718   2.767  13.402   1.719
68941SOL     OW 8719   8.455   1.341   9.807
68941SOL    HW1 8720   8.424   1.250   9.813
68941SOL    HW2 8721   8.421   1.371   9.722
68942SOL     OW 8722  14.371  14.012   4.804
68942SOL    HW1 8723  14.384  14.106   4.816
68942SOL    HW2 8724  14.442  13.972   4.854
68943SOL     OW 8725  13.075  10.414   1.212
68943SOL    HW1 8726  13.045  10.373   1.293
68943SOL    HW2 8727  13.099  10.341   1.155
68944SOL     OW 8728  10.714   1.045  10.969
68944SOL    HW1 8729  10.651   1.050  11.040
68944SOL    HW2 8730  10.662   1.054  10.890
68945SOL     OW 8731  12.097  12.876  13.836
68945SOL    HW1 8732  12.083  12.829  13.918
68945SOL    HW2 8733  12.153  12.819  13.784
68946SOL     OW 8734  14.007  12.668   1.720
68946SOL    HW1 8735  13.993  12.760   1.697
68946SOL    HW2 8736  14.060  12.633   1.649
68947SOL     OW 8737   6.873   5.530   3.088
68947SOL    HW1 8738   6.808   5.509   3.020
68947SOL    HW2 8739   6.889   5.624   3.077
68948SOL     OW 8740   2.937   7.032  12.863
68948SOL    HW1 8741   3.000   7.064  12.798
68948SOL    HW2 8742   2.860   7.009  12.811
68949SOL     OW 8743  11.991   7.131  11.831
68949SOL    HW1 8744  12.042   7.084  11.897
68949SOL    HW2 8745  11.927   7.066  11.800
68950SOL     OW 8746  11.763   1.824   1.967
68950SOL    HW1 8747  11.797   1.789   2.049
68950SOL    HW2 8748  11.734   1.913   1.989
68951SOL     OW 8749   0.647   1.323  11.377
68951SOL    HW1 8750   0.739   1.348  11.367
68951SOL    HW2 8751   0.598   1.400  11.347
68952SOL     OW 8752   8.505  14.216   7.584
68952SOL    HW1 8753   8.542  14.166   7.656
68952SOL    HW2 8754   8.467  14.294   7.626
68953SOL     OW 8755   9.760   9.777   5.235
68953SOL    HW1 8756   9.688   9.715   5.247
68953SOL    HW2 8757   9.754   9.804   5.143
68954SOL     OW 8758  12.369  13.594   5.689
68954SOL    HW1 8759  12.418  13.676   5.693
68954SOL    HW2 8760  12.295  13.607   5.748
68955SOL     OW 8761   4.916   6.408  12.705
68955SOL    HW1 8762   4.969   6.486  12.697
68955SOL    HW2 8763   4.826   6.439  12.696
68956SOL     OW 8764   2.808   5.579   5.884
68956SOL    HW1 8765   2.718   5.545   5.883
68956SOL    HW2 8766   2.853   5.530   5.816
68957SOL     OW 8767   6.974  13.955   9.420
68957SOL    HW1 8768   7.066  13.942   9.398
68957SOL    HW2 8769   6.960  14.049   9.412
68958SOL     OW 8770   4.364   7.536   8.564
68958SOL    HW1 8771   4.368   7.515   8.657
68958SOL    HW2 8772   4.309   7.467   8.526
68959SOL     OW 8773  11.664   6.848  10.959
68959SOL    HW1 8774  11.632   6.827  11.046
68959SOL    HW2 8775  11.645   6.770  10.907
68960SOL     OW 8776   8.988  11.573   6.143
68960SOL    HW1 8777   8.901  11.563   6.182
68960SOL    HW2 8778   8.971  11.599   6.053
68961SOL     OW 8779   5.871  11.965   7.678
68961SOL    HW1 8780   5.821  11.978   7.598
68961SOL    HW2 8781   5.807  11.939   7.744
68962SOL     OW 8782   9.618  12.882   2.336
68962SOL    HW1 8783   9.698  12.890   2.388
68962SOL    HW2 8784   9.590  12.972   2.322
68963SOL     OW 8785   2.146   7.939   3.488
68963SOL    HW1 8786   2.143   7.888   3.570
68963SOL    HW2 8787   2.085   7.893   3.430
68964SOL     OW 8788  10.123  11.390   7.834
68964SOL    HW1 8789  10.035  11.395   7.799
68964SOL    HW2 8790  10.161  11.312   7.792
68965SOL     OW 8791   8.620  12.854  10.951
68965SOL    HW1 8792   8.539  12.881  10.994
68965SOL    HW2 8793   8.688  12.904  10.995
68966SOL     OW 8794  11.243   1.875  10.464
68966SOL    HW1 8795  11.273   1.889  10.374
68966SOL    HW2 8796  11.211   1.785  10.464
68967SOL     OW 8797  11.490   9.096  11.906
68967SOL    HW1 8798  11.429   9.029  11.876
68967SOL    HW2 8799  11.527   9.133  11.826
68968SOL     OW 8800   0.223   0.239   6.606
68968SOL    HW1 8801   0.259   0.161   6.565
68968SOL    HW2 8802   0.146   0.261   6.553
68969SOL     OW 8803   8.561   2.589  11.669
68969SOL    HW1 8804   8.591   2.623  11.585
68969SOL    HW2 8805   8.616   2.513  11.686
68970SOL     OW 8806  13.317   3.950   7.338
68970SOL    HW1 8807  13.252   3.938   7.408
68970SOL    HW2 8808  13.372   3.872   7.344
68971SOL     OW 8809   9.072   3.072   4.079
68971SOL    HW1 8810   9.132   3.037   4.144
68971SOL    HW2 8811   9.096   3.028   3.997
68972SOL     OW 8812   2.557   9.934   8.607
68972SOL    HW1 8813   2.508  10.012   8.632
68972SOL    HW2 8814   2.532   9.868   8.672
68973SOL     OW 8815   8.358   1.798  13.933
68973SOL    HW1 8816   8.307   1.842  14.001
68973SOL    HW2 8817   8.404   1.728  13.979
68974SOL     OW 8818   5.417   1.449  10.997
68974SOL    HW1 8819   5.508   1.427  11.015
68974SOL    HW2 8820   5.400   1.412  10.910
68975SOL     OW 8821   5.320  13.655  14.743
68975SOL    HW1 8822   5.305  13.750  14.743
68975SOL    HW2 8823   5.348  13.636  14.654
68976SOL     OW 8824   9.831  11.993  12.326
68976SOL    HW1 8825   9.739  12.016  12.316
68976SOL    HW2 8826   9.831  11.920  12.389
68977SOL     OW 8827  12.944   8.006   0.500
68977SOL    HW1 8828  12.927   7.927   0.550
68977SOL    HW2 8829  13.005   8.057   0.554
68978SOL     OW 8830  10.257   6.901   0.336
68978SOL    HW1 8831  10.344   6.860   0.341
68978SOL    HW2 8832  10.204   6.837   0.288
68979SOL     OW 8833   2.131   9.556   9.994
68979SOL    HW1 8834   2.191   9.483   9.978
68979SOL    HW2 8835   2.072   9.524  10.063
68980SOL     OW 8836   0.952   0.244   5.415
68980SOL    HW1 8837   1.024   0.235   5.353
68980SOL    HW2 8838   0.994   0.245   5.501
68981SOL     OW 8839   9.747   0.853   8.746
68981SOL    HW1 8840   9.791   0.899   8.675
68981SOL    HW2 8841   9.715   0.922   8.804
68982SOL     OW 8842   8.683  10.312   8.663
68982SOL    HW1 8843   8.751  10.248   8.641
68982SOL    HW2 8844   8.614  10.296   8.599
68983SOL     OW 8845  11.198  12.143  13.490
68983SOL    HW1 8846  11.136  12.208  13.524
68983SOL    HW2 8847  11.142  12.074  13.453
68984SOL     OW 8848   1.557   7.587   8.851
68984SOL    HW1 8849   1.577   7.647   8.779
68984SOL    HW2 8850   1.632   7.594   8.910
68985SOL     OW 8851   9.223   7.430  13.701
68985SOL    HW1 8852   9.304   7.380  13.709
68985SOL    HW2 8853   9.193   7.442  13.791
68986SOL     OW 8854   8.763   7.464   8.509
68986SOL    HW1 8855   8.725   7.400   8.448
68986SOL    HW2 8856   8.856   7.463   8.491
68987SOL     OW 8857  12.225   9.691   2.063
68987SOL    HW1 8858  12.202   9.601   2.040
68987SOL    HW2 8859  12.264   9.683   2.151
68988SOL     OW 8860   5.785   1.749   8.857
68988SOL    HW1 8861   5.831   1.821   8.813
68988SOL    HW2 8862   5.855   1.687   8.881
68989SOL     OW 8863   5.736   8.848  14.072
68989SOL    HW1 8864   5.703   8.850  13.982
68989SOL    HW2 8865   5.802   8.778  14.072
68990SOL     OW 8866   5.853   2.262   7.291
68990SOL    HW1 8867   5.815   2.186   7.247
68990SOL    HW2 8868   5.857   2.330   7.224
68991SOL     OW 8869   5.957   4.013   0.088
68991SOL    HW1 8870   5.905   4.030   0.167
68991SOL    HW2 8871   5.902   4.046   0.017
68992SOL     OW 8872   7.177  13.473   3.141
68992SOL    HW1 8873   7.202  13.521   3.220
68992SOL    HW2 8874   7.176  13.540   3.072
68993SOL     OW 8875   4.930   9.460  11.297
68993SOL    HW1 8876   4.984   9.381  11.286
68993SOL    HW2 8877   4.946   9.488  11.387
68994SOL     OW 8878   2.132   3.206  11.280
68994SOL    HW1 8879   2.065   3.149  11.242
68994SOL    HW2 8880   2.193   3.146  11.322
68995SOL     OW 8881  11.034   9.546  13.635
68995SOL    HW1 8882  10.967   9.605  13.670
68995SOL    HW2 8883  11.061   9.587  13.553
68996SOL     OW 8884   4.006   7.085   9.899
68996SOL    HW1 8885   4.039   7.122   9.817
68996SOL    HW2 8886   4.069   7.015   9.920
68997SOL     OW 8887   2.714  13.060   0.321
68997SOL    HW1 8888   2.802  13.091   0.343
68997SOL    HW2 8889   2.729  12.982   0.267
68998SOL     OW 8890   4.877  10.093  14.083
68998SOL    HW1 8891   4.948  10.034  14.106
68998SOL    HW2 8892   4.862  10.078  13.990
68999SOL     OW 8893   1.966   0.553   1.646
68999SOL    HW1 8894   1.948   0.623   1.709
68999SOL    HW2 8895   2.050   0.517   1.672
69000SOL     OW 8896   8.030  11.458   7.502
69000SOL    HW1 8897   8.101  11.411   7.545
69000SOL    HW2 8898   8.002  11.524   7.566
69001SOL     OW 8899   6.822   9.580  11.587
69001SOL    HW1 8900   6.909   9.568  11.623
69001SOL    HW2 8901   6.836   9.630  11.506
69002SOL     OW 8902   9.361   8.550   0.258
69002SOL    HW1 8903   9.286   8.530   0.314
69002SOL    HW2 8904   9.436   8.510   0.303
69003SOL     OW 8905   6.743   0.560  12.496
69003SOL    HW1 8906   6.769   0.470  12.515
69003SOL    HW2 8907   6.799   0.587  12.423
69004SOL     OW 8908   3.074   5.369   4.577
69004SOL    HW1 8909   3.054   5.319   4.656
69004SOL    HW2 8910   2.990   5.408   4.552
69005SOL     OW 8911   0.328   7.501   1.925
69005SOL    HW1 8912   0.333   7.596   1.938
69005SOL    HW2 8913   0.403   7.466   1.974
69006SOL     OW 8914   2.262   5.593  13.302
69006SOL    HW1 8915   2.344   5.596  13.253
69006SOL    HW2 8916   2.198   5.634  13.245
69007SOL     OW 8917  11.406   3.560   0.262
69007SOL    HW1 8918  11.313   3.538   0.277
69007SOL    HW2 8919  11.405   3.650   0.231
69008SOL     OW 8920   8.277  10.236   6.194
69008SOL    HW1 8921   8.254  10.313   6.248
69008SOL    HW2 8922   8.194  10.206   6.158
69009SOL     OW 8923   4.001  11.409   4.204
69009SOL    HW1 8924   3.917  11.412   4.249
69009SOL    HW2 8925   4.003  11.488   4.150
69010SOL     OW 8926  10.109   1.565  14.104
69010SOL    HW1 8927  10.102   1.628  14.176
69010SOL    HW2 8928  10.197   1.527  14.113
69011SOL     OW 8929   1.631   7.769  11.994
69011SOL    HW1 8930   1.635   7.865  11.991
69011SOL    HW2 8931   1.722   7.741  12.007
69012SOL     OW 8932   2.454   5.333   0.279
69012SOL    HW1 8933   2.512   5.327   0.202
69012SOL    HW2 8934   2.368   5.354   0.243
69013SOL     OW 8935   0.665  14.479   5.763
69013SOL    HW1 8936   0.714  14.432   5.696
69013SOL    HW2 8937   0.685  14.571   5.746
69014SOL     OW 8938  14.093  12.065   6.141
69014SOL    HW1 8939  14.061  11.989   6.093
69014SOL    HW2 8940  14.167  12.032   6.192
69015SOL     OW 8941  10.537   5.030   1.940
69015SOL    HW1 8942  10.561   4.948   1.897
69015SOL    HW2 8943  10.614   5.054   1.992
69016SOL     OW 8944   5.917  13.300   7.087
69016SOL    HW1 8945   5.990  13.361   7.088
69016SOL    HW2 8946   5.888  13.297   6.996
69017SOL     OW 8947   0.237  13.559  10.828
69017SOL    HW1 8948   0.207  13.481  10.875
69017SOL    HW2 8949   0.157  13.609  10.812
69018SOL     OW 8950  13.616   4.673  11.231
69018SOL    HW1 8951  13.606   4.697  11.139
69018SOL    HW2 8952  13.606   4.755  11.279
69019SOL     OW 8953   7.751   0.322   8.515
69019SOL    HW1 8954   7.719   0.402   8.555
69019SOL    HW2 8955   7.757   0.259   8.587
69020SOL     OW 8956   5.067   1.144   8.055
69020SOL    HW1 8957   4.995   1.191   8.096
69020SOL    HW2 8958   5.092   1.198   7.980
69021SOL     OW 8959   2.780   1.216   4.042
69021SOL    HW1 8960   2.792   1.124   4.015
69021SOL    HW2 8961   2.849   1.232   4.105
69022SOL     OW 8962   7.129  14.240  11.308
69022SOL    HW1 8963   7.071  14.248  11.384
69022SOL    HW2 8964   7.201  14.300  11.326
69023SOL     OW 8965   8.686  12.379  11.340
69023SOL    HW1 8966   8.608  12.428  11.367
69023SOL    HW2 8967   8.656  12.288  11.333
69024SOL     OW 8968  11.671  10.214  14.335
69024SOL    HW1 8969  11.657  10.299  14.291
69024SOL    HW2 8970  11.724  10.164  14.273
69025SOL     OW 8971   9.986   0.076   7.730
69025SOL    HW1 8972  10.070   0.121   7.729
69025SOL    HW2 8973   9.976   0.040   7.641
69026SOL     OW 8974  11.026   7.743   1.827
69026SOL    HW1 8975  10.985   7.689   1.895
69026SOL    HW2 8976  11.010   7.696   1.745
69027SOL     OW 8977  12.028  13.798   6.472
69027SOL    HW1 8978  12.096  13.788   6.405
69027SOL    HW2 8979  12.066  13.856   6.537
69028SOL     OW 8980   7.037   7.567  12.398
69028SOL    HW1 8981   7.131   7.582  12.410
69028SOL    HW2 8982   6.999   7.585  12.484
69029SOL     OW 8983   8.437   1.430   5.915
69029SOL    HW1 8984   8.459   1.344   5.949
69029SOL    HW2 8985   8.517   1.481   5.927
69030SOL     OW 8986   6.831  13.857   4.402
69030SOL    HW1 8987   6.896  13.811   4.348
69030SOL    HW2 8988   6.749  13.846   4.355
69031SOL     OW 8989   2.572   9.779  11.603
69031SOL    HW1 8990   2.648   9.725  11.626
69031SOL    HW2 8991   2.539   9.810  11.688
69032SOL     OW 8992   8.635   0.096  12.590
69032SOL    HW1 8993   8.631   0.145  12.508
69032SOL    HW2 8994   8.693   0.022  12.571
69033SOL     OW 8995   0.588   6.349   2.358
69033SOL    HW1 8996   0.574   6.433   2.315
69033SOL    HW2 8997   0.543   6.286   2.301
69034SOL     OW 8998  10.504   6.157   0.618
69034SOL    HW1 8999  10.535   6.143   0.707
69034SOL    HW2 9000  10.526   6.249   0.599
69035SOL     OW 9001   2.048   2.650   4.725
69035SOL    HW1 9002   1.984   2.581   4.706
69035SOL    HW2 9003   2.125   2.627   4.673
69036SOL     OW 9004   6.715   7.639   7.049
69036SOL    HW1 9005   6.701   7.556   7.095
69036SOL    HW2 9006   6.796   7.674   7.086
69037SOL     OW 9007   1.254   8.513   4.042
69037SOL    HW1 9008   1.236   8.419   4.047
69037SOL    HW2 9009   1.255   8.542   4.133
69038SOL     OW 9010   4.674  11.105  14.862
69038SOL    HW1 9011   4.697  11.018  14.831
69038SOL    HW2 9012   4.744  11.162  14.829
69039SOL     OW 9013   8.974   0.594   3.232
69039SOL    HW1 9014   8.953   0.525   3.294
69039SOL    HW2 9015   9.030   0.552   3.166
69040SOL     OW 9016   1.324  13.017   7.245
69040SOL    HW1 9017   1.230  13.032   7.246
69040SOL    HW2 9018   1.347  13.010   7.152
69041SOL     OW 9019   2.614   6.226  10.658
69041SOL    HW1 9020   2.539   6.284  10.645
69041SOL    HW2 9021   2.576   6.138  10.655
69042SOL     OW 9022   8.697  14.709   1.654
69042SOL    HW1 9023   8.668  14.665   1.574
69042SOL    HW2 9024   8.637  14.783   1.663
69043SOL     OW 9025   8.289   8.690   0.361
69043SOL    HW1 9026   8.297   8.780   0.390
69043SOL    HW2 9027   8.206   8.687   0.313
69044SOL     OW 9028   1.512  14.659  11.287
69044SOL    HW1 9029   1.548  14.665  11.198
69044SOL    HW2 9030   1.445  14.591  11.280
69045SOL     OW 9031  11.999  11.159  13.915
69045SOL    HW1 9032  11.980  11.237  13.968
69045SOL    HW2 9033  12.088  11.134  13.942
69046SOL     OW 9034   6.935   9.456   3.087
69046SOL    HW1 9035   6.977   9.371   3.100
69046SOL    HW2 9036   6.848   9.445   3.126
69047SOL     OW 9037   9.761   7.793   6.038
69047SOL    HW1 9038   9.828   7.726   6.028
69047SOL    HW2 9039   9.739   7.818   5.948
69048SOL     OW 9040   1.106   1.930   4.411
69048SOL    HW1 9041   1.011   1.934   4.428
69048SOL    HW2 9042   1.126   2.013   4.369
69049SOL     OW 9043  14.006   9.381  13.072
69049SOL    HW1 9044  14.097   9.386  13.101
69049SOL    HW2 9045  14.006   9.312  13.006
69050SOL     OW 9046   5.976   7.477  14.434
69050SOL    HW1 9047   6.056   7.495  14.484
69050SOL    HW2 9048   5.913   7.450  14.501
69051SOL     OW 9049  13.716   5.783   9.161
69051SOL    HW1 9050  13.662   5.736   9.225
69051SOL    HW2 9051  13.778   5.718   9.129
69052SOL     OW 9052   3.739   7.400  14.830
69052SOL    HW1 9053   3.795   7.354  14.767
69052SOL    HW2 9054   3.800   7.430   0.010
69053SOL     OW 9055   6.530   5.142   2.710
69053SOL    HW1 9056   6.515   5.164   2.618
69053SOL    HW2 9057   6.601   5.077   2.707
69054SOL     OW 9058  14.177  10.991   7.900
69054SOL    HW1 9059  14.267  10.978   7.930
69054SOL    HW2 9060  14.180  10.969   7.807
69055SOL     OW 9061   9.828  13.472   6.424
69055SOL    HW1 9062   9.852  13.379   6.430
69055SOL    HW2 9063   9.764  13.476   6.353
69056SOL     OW 9064   3.607  13.908   8.107
69056SOL    HW1 9065   3.617  13.872   8.195
69056SOL    HW2 9066   3.678  13.972   8.099
69057SOL     OW 9067   5.651   1.096   2.193
69057SOL    HW1 9068   5.730   1.123   2.239
69057SOL    HW2 9069   5.674   1.012   2.153
69058SOL     OW 9070   4.887  11.970   2.582
69058SOL    HW1 9071   4.876  11.914   2.505
69058SOL    HW2 9072   4.963  12.025   2.561
69059SOL     OW 9073  11.323   3.824   1.088
69059SOL    HW1 9074  11.324   3.787   0.999
69059SOL    HW2 9075  11.400   3.880   1.090
69060SOL     OW 9076   5.750   0.402   0.750
69060SOL    HW1 9077   5.665   0.412   0.794
69060SOL    HW2 9078   5.774   0.491   0.724
69061SOL     OW 9079  13.375   0.273   2.753
69061SOL    HW1 9080  13.443   0.332   2.720
69061SOL    HW2 9081  13.343   0.228   2.674
69062SOL     OW 9082  11.108   7.381   5.865
69062SOL    HW1 9083  11.200   7.370   5.890
69062SOL    HW2 9084  11.112   7.412   5.774
69063SOL     OW 9085  13.961  10.970   7.098
69063SOL    HW1 9086  13.945  11.025   7.175
69063SOL    HW2 9087  13.975  10.882   7.134
69064SOL     OW 9088  10.844  11.618   1.229
69064SOL    HW1 9089  10.934  11.611   1.259
69064SOL    HW2 9090  10.806  11.532   1.246
69065SOL     OW 9091   8.356   7.021  14.671
69065SOL    HW1 9092   8.300   7.095  14.648
69065SOL    HW2 9093   8.295   6.951  14.693
69066SOL     OW 9094   7.777  10.978   1.433
69066SOL    HW1 9095   7.773  11.062   1.387
69066SOL    HW2 9096   7.751  10.913   1.368
69067SOL     OW 9097   7.808   7.656   8.799
69067SOL    HW1 9098   7.716   7.645   8.823
69067SOL    HW2 9099   7.825   7.750   8.809
69068SOL     OW 9100  14.056   8.982   2.065
69068SOL    HW1 9101  14.031   8.967   2.156
69068SOL    HW2 9102  13.984   8.945   2.014
69069SOL     OW 9103  10.286   5.226   4.346
69069SOL    HW1 9104  10.285   5.285   4.270
69069SOL    HW2 9105  10.283   5.139   4.308
69070SOL     OW 9106   1.779   3.980  12.885
69070SOL    HW1 9107   1.778   3.929  12.804
69070SOL    HW2 9108   1.690   3.971  12.920
69071SOL     OW 9109   7.722   9.472  12.480
69071SOL    HW1 9110   7.755   9.502  12.395
69071SOL    HW2 9111   7.755   9.537  12.542
69072SOL     OW 9112   0.337   1.277  11.395
69072SOL    HW1 9113   0.378   1.354  11.356
69072SOL    HW2 9114   0.305   1.307  11.481
69073SOL     OW 9115  14.292  12.202  14.522
69073SOL    HW1 9116  14.209  12.180  14.480
69073SOL    HW2 9117  14.347  12.234  14.450
69074SOL     OW 9118   6.853  14.303   0.581
69074SOL    HW1 9119   6.860  14.278   0.674
69074SOL    HW2 9120   6.785  14.246   0.546
69075SOL     OW 9121  10.175   7.480   1.359
69075SOL    HW1 9122  10.184   7.442   1.447
69075SOL    HW2 9123  10.241   7.550   1.357
69076SOL     OW 9124  12.725   3.018  10.197
69076SOL    HW1 9125  12.817   3.039  10.180
69076SOL    HW2 9126  12.715   3.031  10.292
69077SOL     OW 9127  13.170  13.111   9.181
69077SOL    HW1 9128  13.107  13.049   9.218
69077SOL    HW2 9129  13.116  13.174   9.132
69078SOL     OW 9130   1.676   7.885  11.271
69078SOL    HW1 9131   1.672   7.954  11.337
69078SOL    HW2 9132   1.645   7.806  11.316
69079SOL     OW 9133   5.239   0.785  10.193
69079SOL    HW1 9134   5.201   0.837  10.122
69079SOL    HW2 9135   5.169   0.779  10.259
69080SOL     OW 9136  12.483   9.375   2.783
69080SOL    HW1 9137  12.424   9.301   2.798
69080SOL    HW2 9138  12.443   9.424   2.712
69081SOL     OW 9139  10.207  14.151   6.389
69081SOL    HW1 9140  10.204  14.233   6.339
69081SOL    HW2 9141  10.119  14.115   6.381
69082SOL     OW 9142   9.398   7.231   5.331
69082SOL    HW1 9143   9.311   7.193   5.340
69082SOL    HW2 9144   9.415   7.229   5.236
69083SOL     OW 9145  12.370   6.123   3.506
69083SOL    HW1 9146  12.287   6.159   3.536
69083SOL    HW2 9147  12.372   6.034   3.542
69084SOL     OW 9148   6.505   2.670  13.693
69084SOL    HW1 9149   6.532   2.753  13.732
69084SOL    HW2 9150   6.546   2.670  13.606
69085SOL     OW 9151   6.588   7.493   0.665
69085SOL    HW1 9152   6.588   7.525   0.756
69085SOL    HW2 9153   6.554   7.404   0.671
69086SOL     OW 9154   4.352  13.534   8.963
69086SOL    HW1 9155   4.432  13.581   8.985
69086SOL    HW2 9156   4.287  13.567   9.025
69087SOL     OW 9157  14.118  13.781   1.029
69087SOL    HW1 9158  14.038  13.833   1.040
69087SOL    HW2 9159  14.145  13.760   1.118
69088SOL     OW 9160  12.594   8.521   6.288
69088SOL    HW1 9161  12.619   8.575   6.363
69088SOL    HW2 9162  12.540   8.451   6.325
69089SOL     OW 9163  11.509   8.067   7.542
69089SOL    HW1 9164  11.591   8.055   7.494
69089SOL    HW2 9165  11.443   8.028   7.485
69090SOL     OW 9166   9.532  10.169  10.858
69090SOL    HW1 9167   9.599  10.121  10.810
69090SOL    HW2 9168   9.529  10.126  10.944
69091SOL     OW 9169   9.787  10.600  12.841
69091SOL    HW1 9170   9.718  10.535  12.829
69091SOL    HW2 9171   9.823  10.583  12.928
69092SOL     OW 9172   6.306   0.784   9.451
69092SOL    HW1 9173   6.262   0.862   9.486
69092SOL    HW2 9174   6.368   0.759   9.519
69093SOL     OW 9175  11.142   1.231  14.289
69093SOL    HW1 9176  11.237   1.233  14.286
69093SOL    HW2 9177  11.117   1.316  14.326
69094SOL     OW 9178  11.037   9.144   3.137
69094SOL    HW1 9179  10.957   9.150   3.086
69094SOL    HW2 9180  11.023   9.201   3.212
69095SOL     OW 9181  11.996   4.064   5.716
69095SOL    HW1 9182  11.987   3.969   5.723
69095SOL    HW2 9183  11.906   4.097   5.711
69096SOL     OW 9184   1.441   8.579  13.581
69096SOL    HW1 9185   1.462   8.592  13.489
69096SOL    HW2 9186   1.398   8.660  13.608
69097SOL     OW 9187   2.793   4.227  11.076
69097SOL    HW1 9188   2.837   4.221  11.161
69097SOL    HW2 9189   2.700   4.212  11.096
69098SOL     OW 9190   7.189  12.387   6.164
69098SOL    HW1 9191   7.281  12.375   6.140
69098SOL    HW2 9192   7.144  12.310   6.128
69099SOL     OW 9193   1.415  12.023  11.232
69099SOL    HW1 9194   1.503  12.002  11.262
69099SOL    HW2 9195   1.367  11.940  11.239
69100SOL     OW 9196  14.190   2.221   0.828
69100SOL    HW1 9197  14.226   2.293   0.879
69100SOL    HW2 9198  14.212   2.241   0.737
69101SOL     OW 9199  14.150   3.499  14.040
69101SOL    HW1 9200  14.071   3.482  14.091
69101SOL    HW2 9201  14.177   3.413  14.008
69102SOL     OW 9202   2.911  14.144   1.702
69102SOL    HW1 9203   2.935  14.054   1.679
69102SOL    HW2 9204   2.917  14.192   1.620
69103SOL     OW 9205   5.219  14.560  11.707
69103SOL    HW1 9206   5.224  14.554  11.803
69103SOL    HW2 9207   5.299  14.607  11.682
69104SOL     OW 9208   9.243  10.414  10.052
69104SOL    HW1 9209   9.222  10.447  10.140
69104SOL    HW2 9210   9.242  10.492   9.997
69105SOL     OW 9211   5.715   1.972  10.466
69105SOL    HW1 9212   5.707   2.066  10.483
69105SOL    HW2 9213   5.734   1.966  10.372
69106SOL     OW 9214   2.777   7.495   7.758
69106SOL    HW1 9215   2.739   7.443   7.687
69106SOL    HW2 9216   2.710   7.494   7.827
69107SOL     OW 9217  13.375   6.821   8.787
69107SOL    HW1 9218  13.410   6.891   8.842
69107SOL    HW2 9219  13.443   6.753   8.789
69108SOL     OW 9220  10.132  11.713  11.450
69108SOL    HW1 9221  10.191  11.686  11.521
69108SOL    HW2 9222  10.093  11.795  11.481
69109SOL     OW 9223   7.493   3.240   5.573
69109SOL    HW1 9224   7.398   3.234   5.571
69109SOL    HW2 9225   7.523   3.156   5.539
69110SOL     OW 9226   5.920   0.454  10.286
69110SOL    HW1 9227   5.827   0.470  10.300
69110SOL    HW2 9228   5.948   0.525  10.227
69111SOL     OW 9229  10.693   5.019   4.248
69111SOL    HW1 9230  10.657   5.107   4.236
69111SOL    HW2 9231  10.745   5.003   4.170
69112SOL     OW 9232  14.341  14.313   6.559
69112SOL    HW1 9233  14.349  14.238   6.618
69112SOL    HW2 9234  14.256  14.351   6.580
69113SOL     OW 9235   9.241  11.479   5.933
69113SOL    HW1 9236   9.268  11.567   5.957
69113SOL    HW2 9237   9.317  11.441   5.890
69114SOL     OW 9238   7.778   9.765  14.667
69114SOL    HW1 9239   7.781   9.726  14.754
69114SOL    HW2 9240   7.858   9.817  14.660
69115SOL     OW 9241   0.535   5.329   7.073
69115SOL    HW1 9242   0.526   5.342   6.979
69115SOL    HW2 9243   0.519   5.416   7.111
69116SOL     OW 9244   7.742   5.166   3.525
69116SOL    HW1 9245   7.683   5.094   3.508
69116SOL    HW2 9246   7.808   5.130   3.585
69117SOL     OW 9247   5.832   1.604  12.874
69117SOL    HW1 9248   5.816   1.634  12.964
69117SOL    HW2 9249   5.911   1.651  12.847
69118SOL     OW 9250  12.513  12.770   9.371
69118SOL    HW1 9251  12.502  12.688   9.323
69118SOL    HW2 9252  12.423  12.797   9.392
69119SOL     OW 9253   5.010   6.872   2.172
69119SOL    HW1 9254   5.102   6.844   2.172
69119SOL    HW2 9255   4.994   6.902   2.082
69120SOL     OW 9256   6.832  12.863   9.395
69120SOL    HW1 9257   6.759  12.900   9.345
69120SOL    HW2 9258   6.798  12.780   9.427
69121SOL     OW 9259   2.936   0.216   0.448
69121SOL    HW1 9260   2.991   0.263   0.511
69121SOL    HW2 9261   2.860   0.189   0.498
69122SOL     OW 9262   0.650  11.162   7.234
69122SOL    HW1 9263   0.610  11.247   7.251
69122SOL    HW2 9264   0.576  11.101   7.224
69123SOL     OW 9265  12.001  10.326  14.279
69123SOL    HW1 9266  12.010  10.233  14.261
69123SOL    HW2 9267  12.032  10.335  14.370
69124SOL     OW 9268  12.891   5.797   0.510
69124SOL    HW1 9269  12.982   5.807   0.482
69124SOL    HW2 9270  12.872   5.704   0.496
69125SOL     OW 9271  12.196   7.279  14.769
69125SOL    HW1 9272  12.152   7.283  14.684
69125SOL    HW2 9273  12.281   7.238  14.750
69126SOL     OW 9274  13.795   2.264  10.805
69126SOL    HW1 9275  13.847   2.186  10.787
69126SOL    HW2 9276  13.835   2.333  10.752
69127SOL     OW 9277   5.844  12.542   2.333
69127SOL    HW1 9278   5.890  12.515   2.254
69127SOL    HW2 9279   5.838  12.638   2.326
69128SOL     OW 9280  14.348   4.635  11.055
69128SOL    HW1 9281  14.439   4.629  11.084
69128SOL    HW2 9282  14.300   4.574  11.110
69129SOL     OW 9283   0.343   2.156   9.004
69129SOL    HW1 9284   0.439   2.150   8.995
69129SOL    HW2 9285   0.310   2.076   8.964
69130SOL     OW 9286   5.736   3.305  11.171
69130SOL    HW1 9287   5.709   3.309  11.080
69130SOL    HW2 9288   5.832   3.299  11.167
69131SOL     OW 9289  10.827   3.544   6.210
69131SOL    HW1 9290  10.772   3.621   6.221
69131SOL    HW2 9291  10.769   3.470   6.228
69132SOL     OW 9292   4.114   1.403   1.097
69132SOL    HW1 9293   4.049   1.453   1.046
69132SOL    HW2 9294   4.191   1.399   1.040
69133SOL     OW 9295  12.487   4.367   9.102
69133SOL    HW1 9296  12.464   4.391   9.192
69133SOL    HW2 9297  12.517   4.449   9.063
69134SOL     OW 9298  11.318  14.867   0.890
69134SOL    HW1 9299  11.404  14.833   0.913
69134SOL    HW2 9300  11.257  14.810   0.937
69135SOL     OW 9301  13.872   3.422   4.746
69135SOL    HW1 9302  13.798   3.470   4.708
69135SOL    HW2 9303  13.894   3.356   4.680
69136SOL     OW 9304  13.425   5.573  14.714
69136SOL    HW1 9305  13.382   5.657  14.697
69136SOL    HW2 9306  13.505   5.575  14.661
69137SOL     OW 9307  14.452   2.778   4.056
69137SOL    HW1 9308  14.404   2.828   3.990
69137SOL    HW2 9309  14.420   2.812   4.140
69138SOL     OW 9310   9.474   0.777   1.811
69138SOL    HW1 9311   9.476   0.681   1.811
69138SOL    HW2 9312   9.564   0.803   1.826
69139SOL     OW 9313   1.480   1.101  13.652
69139SOL    HW1 9314   1.560   1.106  13.600
69139SOL    HW2 9315   1.505   1.132  13.739
69140SOL     OW 9316   4.450   5.779   5.194
69140SOL    HW1 9317   4.360   5.812   5.192
69140SOL    HW2 9318   4.448   5.707   5.257
69141SOL     OW 9319   7.634   6.806   8.533
69141SOL    HW1 9320   7.689   6.808   8.455
69141SOL    HW2 9321   7.565   6.871   8.516
69142SOL     OW 9322   2.353   2.443   5.146
69142SOL    HW1 9323   2.332   2.486   5.229
69142SOL    HW2 9324   2.288   2.478   5.085
69143SOL     OW 9325   9.820   9.368   5.721
69143SOL    HW1 9326   9.798   9.460   5.713
69143SOL    HW2 9327   9.903   9.367   5.768
69144SOL     OW 9328   2.970  10.634  13.298
69144SOL    HW1 9329   2.902  10.571  13.277
69144SOL    HW2 9330   2.939  10.717  13.262
69145SOL     OW 9331  14.753   8.064   3.177
69145SOL    HW1 9332  14.676   8.027   3.221
69145SOL    HW2 9333  14.740   8.042   3.084
69146SOL     OW 9334  10.741   4.893   3.322
69146SOL    HW1 9335  10.721   4.976   3.278
69146SOL    HW2 9336  10.663   4.839   3.308
69147SOL     OW 9337   1.270   4.815   3.537
69147SOL    HW1 9338   1.235   4.899   3.508
69147SOL    HW2 9339   1.329   4.788   3.466
69148SOL     OW 9340  12.262   0.127   0.518
69148SOL    HW1 9341  12.308   0.205   0.487
69148SOL    HW2 9342  12.284   0.121   0.611
69149SOL     OW 9343   9.251   6.266   4.707
69149SOL    HW1 9344   9.156   6.278   4.711
69149SOL    HW2 9345   9.280   6.275   4.797
69150SOL     OW 9346   6.300   0.443   1.672
69150SOL    HW1 9347   6.384   0.484   1.653
69150SOL    HW2 9348   6.322   0.368   1.727
69151SOL     OW 9349   7.577   0.610   5.452
69151SOL    HW1 9350   7.596   0.703   5.461
69151SOL    HW2 9351   7.633   0.567   5.516
69152SOL     OW 9352  13.040  11.827  10.345
69152SOL    HW1 9353  13.063  11.893  10.411
69152SOL    HW2 9354  13.041  11.744  10.393
69153SOL     OW 9355   1.646   8.238  12.435
69153SOL    HW1 9356   1.709   8.298  12.474
69153SOL    HW2 9357   1.693   8.198  12.361
69154SOL     OW 9358   7.681  10.641   9.962
69154SOL    HW1 9359   7.705  10.733   9.968
69154SOL    HW2 9360   7.761  10.593   9.983
69155SOL     OW 9361   8.397  11.813   3.846
69155SOL    HW1 9362   8.369  11.904   3.853
69155SOL    HW2 9363   8.363  11.772   3.926
69156SOL     OW 9364   7.001   5.686   6.758
69156SOL    HW1 9365   6.985   5.637   6.677
69156SOL    HW2 9366   6.980   5.776   6.735
69157SOL     OW 9367   6.872   7.443  10.741
69157SOL    HW1 9368   6.873   7.496  10.821
69157SOL    HW2 9369   6.835   7.501  10.675
69158SOL     OW 9370  14.460   6.202   7.563
69158SOL    HW1 9371  14.520   6.127   7.570
69158SOL    HW2 9372  14.391   6.171   7.504
69159SOL     OW 9373  13.745   3.435   4.265
69159SOL    HW1 9374  13.654   3.407   4.260
69159SOL    HW2 9375  13.791   3.380   4.201
69160SOL     OW 9376  10.157  12.995  12.849
69160SOL    HW1 9377  10.105  12.916  12.864
69160SOL    HW2 9378  10.108  13.065  12.892
69161SOL     OW 9379  12.707   5.941  10.204
69161SOL    HW1 9380  12.645   5.871  10.223
69161SOL    HW2 9381  12.652   6.020  10.197
69162SOL     OW 9382   9.956  12.593  13.066
69162SOL    HW1 9383   9.994  12.518  13.020
69162SOL    HW2 9384   9.876  12.558  13.106
69163SOL     OW 9385   0.160   4.236  13.607
69163SOL    HW1 9386   0.101   4.173  13.650
69163SOL    HW2 9387   0.245   4.221  13.650
69164SOL     OW 9388   8.105   6.598   8.072
69164SOL    HW1 9389   8.044   6.545   8.124
69164SOL    HW2 9390   8.078   6.582   7.981
69165SOL     OW 9391   9.266   7.743   2.143
69165SOL    HW1 9392   9.246   7.740   2.237
69165SOL    HW2 9393   9.267   7.651   2.116
69166SOL     OW 9394  12.210  13.901  13.360
69166SOL    HW1 9395  12.220  13.948  13.277
69166SOL    HW2 9396  12.162  13.962  13.416
69167SOL     OW 9397   9.853   9.915   0.752
69167SOL    HW1 9398   9.902   9.833   0.752
69167SOL    HW2 9399   9.838   9.934   0.659
69168SOL     OW 9400  11.029  11.893   7.387
69168SOL    HW1 9401  11.040  11.900   7.292
69168SOL    HW2 9402  10.965  11.823   7.400
69169SOL     OW 9403  10.461   2.952  14.091
69169SOL    HW1 9404  10.386   2.924  14.145
69169SOL    HW2 9405  10.456   3.047  14.091
69170SOL     OW 9406  12.999   8.523  12.333
69170SOL    HW1 9407  13.013   8.608  12.291
69170SOL    HW2 9408  12.914   8.531  12.377
69171SOL     OW 9409   9.703  12.973   4.403
69171SOL    HW1 9410   9.762  12.911   4.445
69171SOL    HW2 9411   9.687  13.039   4.470
69172SOL     OW 9412  12.677   0.023   6.094
69172SOL    HW1 9413  12.740   0.007   6.165
69172SOL    HW2 9414  12.641  14.824   6.075
69173SOL     OW 9415   4.782  10.575   7.687
69173SOL    HW1 9416   4.770  10.485   7.659
69173SOL    HW2 9417   4.813  10.620   7.608
69174SOL     OW 9418  13.984   0.914   1.714
69174SOL    HW1 9419  14.052   0.879   1.657
69174SOL    HW2 9420  14.023   0.911   1.802
69175SOL     OW 9421  14.058   7.519   8.465
69175SOL    HW1 9422  14.033   7.435   8.504
69175SOL    HW2 9423  14.121   7.556   8.528
69176SOL     OW 9424   0.216  14.299  10.160
69176SOL    HW1 9425   0.129  14.313  10.196
69176SOL    HW2 9426   0.227  14.370  10.096
69177SOL     OW 9427  11.463   4.550   2.743
69177SOL    HW1 9428  11.514   4.628   2.718
69177SOL    HW2 9429  11.508   4.478   2.700
69178SOL     OW 9430   6.013   2.416   8.924
69178SOL    HW1 9431   6.025   2.469   9.003
69178SOL    HW2 9432   6.102   2.399   8.893
69179SOL     OW 9433  13.181   8.701   8.350
69179SOL    HW1 9434  13.213   8.764   8.285
69179SOL    HW2 9435  13.237   8.716   8.427
69180SOL     OW 9436  13.262  10.037  11.185
69180SOL    HW1 9437  13.349  10.000  11.174
69180SOL    HW2 9438  13.234  10.005  11.271
69181SOL     OW 9439  10.472   8.167  10.340
69181SOL    HW1 9440  10.512   8.224  10.405
69181SOL    HW2 9441  10.487   8.078  10.374
69182SOL     OW 9442   4.692  14.349  14.767
69182SOL    HW1 9443   4.741  14.276  14.806
69182SOL    HW2 9444   4.606  14.312  14.748
69183SOL     OW 9445   9.113   6.298   2.261
69183SOL    HW1 9446   9.194   6.295   2.310
69183SOL    HW2 9447   9.140   6.308   2.170
69184SOL     OW 9448   5.235  12.026   3.572
69184SOL    HW1 9449   5.153  11.989   3.539
69184SOL    HW2 9450   5.221  12.035   3.666
69185SOL     OW 9451  10.858   8.668  11.074
69185SOL    HW1 9452  10.821   8.747  11.114
69185SOL    HW2 9453  10.939   8.698  11.033
69186SOL     OW 9454   0.903   6.042   8.930
69186SOL    HW1 9455   0.828   6.087   8.891
69186SOL    HW2 9456   0.922   6.093   9.010
69187SOL     OW 9457  13.800   9.120   0.508
69187SOL    HW1 9458  13.804   9.134   0.413
69187SOL    HW2 9459  13.749   9.194   0.540
69188SOL     OW 9460  14.145   7.025  12.561
69188SOL    HW1 9461  14.082   6.990  12.497
69188SOL    HW2 9462  14.204   6.951  12.578
69189SOL     OW 9463   1.909   0.757  11.648
69189SOL    HW1 9464   1.946   0.845  11.652
69189SOL    HW2 9465   1.906   0.728  11.740
69190SOL     OW 9466   4.110  10.971   5.240
69190SOL    HW1 9467   4.036  11.031   5.231
69190SOL    HW2 9468   4.134  10.975   5.332
69191SOL     OW 9469   5.791   5.112   9.725
69191SOL    HW1 9470   5.760   5.060   9.651
69191SOL    HW2 9471   5.797   5.051   9.798
69192SOL     OW 9472   9.991  11.614   1.130
69192SOL    HW1 9473   9.919  11.594   1.191
69192SOL    HW2 9474   9.953  11.600   1.043
69193SOL     OW 9475  10.277   1.734   8.614
69193SOL    HW1 9476  10.222   1.727   8.535
69193SOL    HW2 9477  10.217   1.761   8.683
69194SOL     OW 9478   5.764   8.247   4.671
69194SOL    HW1 9479   5.769   8.326   4.725
69194SOL    HW2 9480   5.675   8.247   4.636
69195SOL     OW 9481   6.130   0.578   1.223
69195SOL    HW1 9482   6.112   0.659   1.271
69195SOL    HW2 9483   6.121   0.509   1.289
69196SOL     OW 9484   1.165  11.476  14.501
69196SOL    HW1 9485   1.129  11.556  14.464
69196SOL    HW2 9486   1.178  11.418  14.426
69197SOL     OW 9487   9.243  11.459   8.255
69197SOL    HW1 9488   9.271  11.370   8.233
69197SOL    HW2 9489   9.147  11.453   8.256
69198SOL     OW 9490   5.990  14.668  14.180
69198SOL    HW1 9491   6.009  14.695  14.270
69198SOL    HW2 9492   6.058  14.604  14.159
69199SOL     OW 9493   6.576   7.594  13.125
69199SOL    HW1 9494   6.632   7.531  13.170
69199SOL    HW2 9495   6.552   7.550  13.043
69200SOL     OW 9496   6.609   5.496   8.580
69200SOL    HW1 9497   6.701   5.475   8.601
69200SOL    HW2 9498   6.596   5.584   8.616
69201SOL     OW 9499  11.326  13.403  14.304
69201SOL    HW1 9500  11.330  13.436  14.214
69201SOL    HW2 9501  11.389  13.331  14.306
69202SOL     OW 9502   9.989  12.920   9.642
69202SOL    HW1 9503  10.003  12.974   9.720
69202SOL    HW2 9504   9.965  12.834   9.676
69203SOL     OW 9505   0.812   1.895  11.377
69203SOL    HW1 9506   0.882   1.960  11.371
69203SOL    HW2 9507   0.840   1.836  11.447
69204SOL     OW 9508  10.824  10.858   9.513
69204SOL    HW1 9509  10.825  10.949   9.541
69204SOL    HW2 9510  10.801  10.863   9.420
69205SOL     OW 9511   6.375   1.517   7.382
69205SOL    HW1 9512   6.326   1.457   7.326
69205SOL    HW2 9513   6.315   1.591   7.396
69206SOL     OW 9514   3.382  14.757  12.318
69206SOL    HW1 9515   3.450  14.696  12.346
69206SOL    HW2 9516   3.371  14.816  12.392
69207SOL     OW 9517   2.458   6.397   3.063
69207SOL    HW1 9518   2.373   6.418   3.104
69207SOL    HW2 9519   2.461   6.452   2.985
69208SOL     OW 9520   0.858   1.525   6.895
69208SOL    HW1 9521   0.884   1.612   6.866
69208SOL    HW2 9522   0.770   1.537   6.931
69209SOL     OW 9523   2.220   3.581   8.483
69209SOL    HW1 9524   2.162   3.530   8.427
69209SOL    HW2 9525   2.241   3.659   8.431
69210SOL     OW 9526   8.664   1.279   0.828
69210SOL    HW1 9527   8.690   1.318   0.912
69210SOL    HW2 9528   8.575   1.311   0.813
69211SOL     OW 9529   4.074   2.331  12.824
69211SOL    HW1 9530   3.989   2.302  12.793
69211SOL    HW2 9531   4.066   2.332  12.919
69212SOL     OW 9532  14.855   7.404   3.934
69212SOL    HW1 9533  14.820   7.491   3.918
69212SOL    HW2 9534  14.785   7.344   3.906
69213SOL     OW 9535   8.545   0.028   0.638
69213SOL    HW1 9536   8.515   0.087   0.569
69213SOL    HW2 9537   8.465  14.883   0.679
69214SOL     OW 9538  13.081   4.202  10.949
69214SOL    HW1 9539  13.167   4.201  10.991
69214SOL    HW2 9540  13.021   4.166  11.014
69215SOL     OW 9541   9.585   8.008   0.957
69215SOL    HW1 9542   9.535   7.937   0.916
69215SOL    HW2 9543   9.625   7.967   1.034
69216SOL     OW 9544   9.695   5.576  10.521
69216SOL    HW1 9545   9.778   5.531  10.540
69216SOL    HW2 9546   9.629   5.506  10.525
69217SOL     OW 9547   8.952   8.854  13.832
69217SOL    HW1 9548   8.890   8.924  13.854
69217SOL    HW2 9549   8.918   8.817  13.750
69218SOL     OW 9550  14.518  13.557   8.101
69218SOL    HW1 9551  14.612  13.537   8.101
69218SOL    HW2 9552  14.514  13.645   8.064
69219SOL     OW 9553  10.954   0.079   6.411
69219SOL    HW1 9554  10.938  14.879   6.448
69219SOL    HW2 9555  11.047   0.095   6.428
69220SOL     OW 9556   0.531   9.336  14.598
69220SOL    HW1 9557   0.514   9.296  14.683
69220SOL    HW2 9558   0.584   9.272  14.551
69221SOL     OW 9559   4.294   4.932   5.966
69221SOL    HW1 9560   4.230   4.993   6.002
69221SOL    HW2 9561   4.310   4.964   5.877
69222SOL     OW 9562  14.818   7.212  13.967
69222SOL    HW1 9563  14.728   7.192  13.941
69222SOL    HW2 9564  14.829   7.168  14.051
69223SOL     OW 9565   3.327   0.076   9.646
69223SOL    HW1 9566   3.316   0.012   9.716
69223SOL    HW2 9567   3.417   0.107   9.656
69224SOL     OW 9568   4.289  14.559  14.420
69224SOL    HW1 9569   4.196  14.581  14.422
69224SOL    HW2 9570   4.303  14.518  14.334
69225SOL     OW 9571   1.360   6.455   4.488
69225SOL    HW1 9572   1.449   6.491   4.496
69225SOL    HW2 9573   1.372   6.361   4.494
69226SOL     OW 9574   7.593  10.206   2.607
69226SOL    HW1 9575   7.659  10.152   2.564
69226SOL    HW2 9576   7.554  10.257   2.536
69227SOL     OW 9577  11.423   8.681   4.697
69227SOL    HW1 9578  11.339   8.728   4.696
69227SOL    HW2 9579  11.420   8.627   4.618
69228SOL     OW 9580  12.945   8.256  13.502
69228SOL    HW1 9581  13.009   8.243  13.431
69228SOL    HW2 9582  12.863   8.223  13.466
69229SOL     OW 9583   0.118   4.555   8.740
69229SOL    HW1 9584   0.059   4.557   8.816
69229SOL    HW2 9585   0.152   4.466   8.739
69230SOL     OW 9586   8.478   4.268   8.947
69230SOL    HW1 9587   8.480   4.238   9.038
69230SOL    HW2 9588   8.526   4.350   8.947
69231SOL     OW 9589   3.523   0.957  11.496
69231SOL    HW1 9590   3.510   1.052  11.492
69231SOL    HW2 9591   3.513   0.927  11.406
69232SOL     OW 9592   4.727   4.994   3.479
69232SOL    HW1 9593   4.665   5.061   3.451
69232SOL    HW2 9594   4.739   5.010   3.573
69233SOL     OW 9595  13.444   9.577   7.336
69233SOL    HW1 9596  13.483   9.500   7.376
69233SOL    HW2 9597  13.393   9.542   7.262
69234SOL     OW 9598   0.243   6.923   6.575
69234SOL    HW1 9599   0.204   6.996   6.623
69234SOL    HW2 9600   0.330   6.912   6.613
69235SOL     OW 9601  12.666  13.865   6.583
69235SOL    HW1 9602  12.725  13.835   6.513
69235SOL    HW2 9603  12.620  13.786   6.611
69236SOL     OW 9604   7.784   9.586   7.643
69236SOL    HW1 9605   7.761   9.656   7.582
69236SOL    HW2 9606   7.705   9.533   7.651
69237SOL     OW 9607  10.043   1.629   1.314
69237SOL    HW1 9608   9.992   1.605   1.237
69237SOL    HW2 9609   9.996   1.702   1.353
69238SOL     OW 9610   3.145   5.188   4.330
69238SOL    HW1 9611   3.077   5.225   4.386
69238SOL    HW2 9612   3.107   5.188   4.242
69239SOL     OW 9613   8.549   1.643  10.790
69239SOL    HW1 9614   8.498   1.571  10.753
69239SOL    HW2 9615   8.543   1.631  10.884
69240SOL     OW 9616   2.174   6.207  11.028
69240SOL    HW1 9617   2.212   6.132  11.074
69240SOL    HW2 9618   2.249   6.250  10.986
69241SOL     OW 9619  11.889   7.908   5.999
69241SOL    HW1 9620  11.926   7.936   6.083
69241SOL    HW2 9621  11.796   7.894   6.017
69242SOL     OW 9622  12.989   8.360  12.945
69242SOL    HW1 9623  12.904   8.323  12.919
69242SOL    HW2 9624  12.985   8.451  12.914
69243SOL     OW 9625   2.969   9.940   5.344
69243SOL    HW1 9626   2.892   9.914   5.396
69243SOL    HW2 9627   3.025   9.986   5.406
69244SOL     OW 9628   6.856  10.793   6.878
69244SOL    HW1 9629   6.937  10.836   6.851
69244SOL    HW2 9630   6.877  10.699   6.875
69245SOL     OW 9631  13.169  10.944  14.304
69245SOL    HW1 9632  13.212  10.916  14.385
69245SOL    HW2 9633  13.075  10.928  14.320
69246SOL     OW 9634   0.372   9.079  11.895
69246SOL    HW1 9635   0.313   9.053  11.825
69246SOL    HW2 9636   0.441   9.129  11.852
69247SOL     OW 9637  10.463   0.126   4.270
69247SOL    HW1 9638  10.406   0.062   4.226
69247SOL    HW2 9639  10.549   0.084   4.271
69248SOL     OW 9640  11.548  10.112   0.898
69248SOL    HW1 9641  11.628  10.076   0.938
69248SOL    HW2 9642  11.489  10.127   0.972
69249SOL     OW 9643   6.620  13.738  13.906
69249SOL    HW1 9644   6.620  13.722  14.000
69249SOL    HW2 9645   6.697  13.793  13.891
69250SOL     OW 9646   1.747   5.147  13.830
69250SOL    HW1 9647   1.776   5.235  13.806
69250SOL    HW2 9648   1.784   5.090  13.762
69251SOL     OW 9649   5.016   3.201  12.262
69251SOL    HW1 9650   5.044   3.241  12.180
69251SOL    HW2 9651   4.921   3.216  12.265
69252SOL     OW 9652   3.128  11.236   1.473
69252SOL    HW1 9653   3.033  11.233   1.466
69252SOL    HW2 9654   3.144  11.243   1.567
69253SOL     OW 9655   6.198   7.948  11.976
69253SOL    HW1 9656   6.138   8.021  11.964
69253SOL    HW2 9657   6.202   7.906  11.890
69254SOL     OW 9658  11.547   3.377   3.480
69254SOL    HW1 9659  11.485   3.392   3.409
69254SOL    HW2 9660  11.527   3.444   3.545
69255SOL     OW 9661   2.459   1.080   1.433
69255SOL    HW1 9662   2.436   1.001   1.383
69255SOL    HW2 9663   2.415   1.069   1.517
69256SOL     OW 9664   2.361   6.017  11.884
69256SOL    HW1 9665   2.411   5.938  11.863
69256SOL    HW2 9666   2.276   6.003  11.842
69257SOL     OW 9667   7.781   3.639   2.744
69257SOL    HW1 9668   7.696   3.635   2.788
69257SOL    HW2 9669   7.832   3.703   2.794
69258SOL     OW 9670   6.846   2.655   4.849
69258SOL    HW1 9671   6.896   2.591   4.797
69258SOL    HW2 9672   6.832   2.612   4.933
69259SOL     OW 9673   7.633   7.098  12.138
69259SOL    HW1 9674   7.583   7.167  12.094
69259SOL    HW2 9675   7.722   7.132  12.144
69260SOL     OW 9676  14.571   7.325   9.646
69260SOL    HW1 9677  14.514   7.287   9.712
69260SOL    HW2 9678  14.512   7.368   9.584
69261SOL     OW 9679  14.158   0.421  11.205
69261SOL    HW1 9680  14.118   0.376  11.130
69261SOL    HW2 9681  14.167   0.512  11.177
69262SOL     OW 9682   2.357   9.620   9.075
69262SOL    HW1 9683   2.377   9.528   9.054
69262SOL    HW2 9684   2.420   9.644   9.143
69263SOL     OW 9685   5.070   9.184   5.426
69263SOL    HW1 9686   5.053   9.149   5.339
69263SOL    HW2 9687   5.032   9.119   5.486
69264SOL     OW 9688   9.228   7.128   9.666
69264SOL    HW1 9689   9.261   7.131   9.576
69264SOL    HW2 9690   9.137   7.101   9.658
69265SOL     OW 9691  13.560  13.335  11.890
69265SOL    HW1 9692  13.526  13.268  11.831
69265SOL    HW2 9693  13.482  13.371  11.932
69266SOL     OW 9694  13.546   9.205  11.448
69266SOL    HW1 9695  13.560   9.110  11.449
69266SOL    HW2 9696  13.524   9.227  11.538
69267SOL     OW 9697   9.649   7.582   4.633
69267SOL    HW1 9698   9.597   7.598   4.711
69267SOL    HW2 9699   9.713   7.653   4.631
69268SOL     OW 9700   0.655   2.222  10.557
69268SOL    HW1 9701   0.576   2.274  10.568
69268SOL    HW2 9702   0.716   2.280  10.511
69269SOL     OW 9703   7.269  10.506   9.123
69269SOL    HW1 9704   7.324  10.435   9.154
69269SOL    HW2 9705   7.324  10.584   9.129
69270SOL     OW 9706  12.599   0.667   2.872
69270SOL    HW1 9707  12.663   0.632   2.935
69270SOL    HW2 9708  12.525   0.607   2.878
69271SOL     OW 9709  14.423   6.241  13.741
69271SOL    HW1 9710  14.346   6.299  13.741
69271SOL    HW2 9711  14.496   6.299  13.761
69272SOL     OW 9712  11.562  13.932  13.631
69272SOL    HW1 9713  11.626  13.987  13.677
69272SOL    HW2 9714  11.596  13.925  13.542
69273SOL     OW 9715  14.225   6.932   6.692
69273SOL    HW1 9716  14.190   7.020   6.710
69273SOL    HW2 9717  14.320   6.944   6.689
69274SOL     OW 9718   4.587   6.112  14.665
69274SOL    HW1 9719   4.592   6.047  14.595
69274SOL    HW2 9720   4.494   6.131  14.673
69275SOL     OW 9721  11.673   9.862   6.096
69275SOL    HW1 9722  11.599   9.862   6.035
69275SOL    HW2 9723  11.652   9.931   6.159
69276SOL     OW 9724  13.679   1.932   6.045
69276SOL    HW1 9725  13.620   1.858   6.051
69276SOL    HW2 9726  13.669   1.979   6.127
69277SOL     OW 9727   9.059  10.410   9.377
69277SOL    HW1 9728   9.108  10.330   9.357
69277SOL    HW2 9729   9.001  10.385   9.449
69278SOL     OW 9730   2.871   3.769   3.319
69278SOL    HW1 9731   2.859   3.729   3.405
69278SOL    HW2 9732   2.950   3.727   3.284
69279SOL     OW 9733   5.802   9.554   3.568
69279SOL    HW1 9734   5.836   9.641   3.592
69279SOL    HW2 9735   5.862   9.522   3.502
69280SOL     OW 9736   1.127   1.841  12.317
69280SOL    HW1 9737   1.221   1.856  12.311
69280SOL    HW2 9738   1.106   1.854  12.409
69281SOL     OW 9739   6.784   9.946   3.147
69281SOL    HW1 9740   6.708  10.004   3.139
69281SOL    HW2 9741   6.747   9.861   3.168
69282SOL     OW 9742  10.202   1.452   6.562
69282SOL    HW1 9743  10.136   1.507   6.520
69282SOL    HW2 9744  10.282   1.469   6.512
69283SOL     OW 9745   2.864   3.198  11.149
69283SOL    HW1 9746   2.908   3.216  11.232
69283SOL    HW2 9747   2.925   3.142  11.101
69284SOL     OW 9748   8.796   7.426   2.419
69284SOL    HW1 9749   8.766   7.343   2.382
69284SOL    HW2 9750   8.798   7.486   2.344
69285SOL     OW 9751   9.394   3.565   0.471
69285SOL    HW1 9752   9.351   3.519   0.543
69285SOL    HW2 9753   9.384   3.658   0.493
69286SOL     OW 9754  10.246  10.200   8.340
69286SOL    HW1 9755  10.281  10.145   8.411
69286SOL    HW2 9756  10.323  10.243   8.303
69287SOL     OW 9757  14.266   3.983   9.834
69287SOL    HW1 9758  14.178   4.000   9.800
69287SOL    HW2 9759  14.314   4.064   9.817
69288SOL     OW 9760   1.475   1.788   5.892
69288SOL    HW1 9761   1.552   1.804   5.945
69288SOL    HW2 9762   1.419   1.732   5.947
69289SOL     OW 9763  14.735   9.780   5.442
69289SOL    HW1 9764  14.822   9.815   5.424
69289SOL    HW2 9765  14.739   9.751   5.533
69290SOL     OW 9766   7.553   9.271   4.219
69290SOL    HW1 9767   7.541   9.358   4.181
69290SOL    HW2 9768   7.644   9.270   4.249
69291SOL     OW 9769  14.773   4.703   8.315
69291SOL    HW1 9770  14.726   4.774   8.272
69291SOL    HW2 9771  14.778   4.634   8.249
69292SOL     OW 9772  12.087  13.236   4.935
69292SOL    HW1 9773  12.079  13.141   4.925
69292SOL    HW2 9774  12.065  13.252   5.027
69293SOL     OW 9775   4.146   6.511   2.522
69293SOL    HW1 9776   4.199   6.492   2.600
69293SOL    HW2 9777   4.174   6.446   2.458
69294SOL     OW 9778   7.982  11.025  13.771
69294SOL    HW1 9779   8.052  11.067  13.721
69294SOL    HW2 9780   7.916  11.094  13.781
69295SOL     OW 9781   1.169   5.325  13.824
69295SOL    HW1 9782   1.141   5.303  13.912
69295SOL    HW2 9783   1.198   5.241  13.787
69296SOL     OW 9784   1.929   8.357   2.794
69296SOL    HW1 9785   1.908   8.439   2.839
69296SOL    HW2 9786   1.995   8.382   2.729
69297SOL     OW 9787   0.092   6.564   9.147
69297SOL    HW1 9788   0.070   6.626   9.077
69297SOL    HW2 9789   0.140   6.616   9.211
69298SOL     OW 9790  13.206   1.028   3.969
69298SOL    HW1 9791  13.293   1.007   4.002
69298SOL    HW2 9792  13.204   0.992   3.880
69299SOL     OW 9793   1.568   8.446   4.392
69299SOL    HW1 9794   1.656   8.446   4.429
69299SOL    HW2 9795   1.564   8.525   4.338
69300SOL     OW 9796   9.973   8.950  13.555
69300SOL    HW1 9797   9.992   8.880  13.493
69300SOL    HW2 9798  10.048   8.950  13.615
69301SOL     OW 9799  10.021  11.736   3.868
69301SOL    HW1 9800   9.999  11.763   3.957
69301SOL    HW2 9801  10.116  11.729   3.868
69302SOL     OW 9802   7.715  11.210   1.293
69302SOL    HW1 9803   7.667  11.216   1.376
69302SOL    HW2 9804   7.724  11.301   1.264
69303SOL     OW 9805   1.658   0.238  12.393
69303SOL    HW1 9806   1.617   0.153  12.409
69303SOL    HW2 9807   1.603   0.301  12.439
69304SOL     OW 9808  10.147   2.036  10.309
69304SOL    HW1 9809  10.100   2.119  10.321
69304SOL    HW2 9810  10.160   2.029  10.215
69305SOL     OW 9811  10.151  10.104  10.390
69305SOL    HW1 9812  10.229  10.049  10.380
69305SOL    HW2 9813  10.093  10.077  10.319
69306SOL     OW 9814  12.631  10.598   6.183
69306SOL    HW1 9815  12.547  10.621   6.143
69306SOL    HW2 9816  12.695  10.608   6.113
69307SOL     OW 9817  13.527   6.800  12.489
69307SOL    HW1 9818  13.459   6.866  12.504
69307SOL    HW2 9819  13.511   6.734  12.557
69308SOL     OW 9820   7.451  10.967   6.792
69308SOL    HW1 9821   7.525  10.917   6.826
69308SOL    HW2 9822   7.383  10.957   6.859
69309SOL     OW 9823  12.258   4.815   1.596
69309SOL    HW1 9824  12.293   4.874   1.662
69309SOL    HW2 9825  12.270   4.861   1.513
69310SOL     OW 9826  10.800   2.338   2.221
69310SOL    HW1 9827  10.742   2.292   2.281
69310SOL    HW2 9828  10.838   2.268   2.167
69311SOL     OW 9829   6.999   4.986  14.740
69311SOL    HW1 9830   7.008   4.945  14.826
69311SOL    HW2 9831   6.915   5.032  14.744
69312SOL     OW 9832   7.245  14.225  13.595
69312SOL    HW1 9833   7.273  14.149  13.544
69312SOL    HW2 9834   7.233  14.192  13.684
69313SOL     OW 9835   8.142   3.285   3.489
69313SOL    HW1 9836   8.234   3.310   3.495
69313SOL    HW2 9837   8.136   3.203   3.539
69314SOL     OW 9838   1.442  14.198   2.925
69314SOL    HW1 9839   1.508  14.267   2.918
69314SOL    HW2 9840   1.372  14.225   2.866
69315SOL     OW 9841   0.270   4.423   4.488
69315SOL    HW1 9842   0.314   4.372   4.421
69315SOL    HW2 9843   0.330   4.423   4.562
69316SOL     OW 9844  13.340   6.965   9.758
69316SOL    HW1 9845  13.301   6.946   9.672
69316SOL    HW2 9846  13.434   6.953   9.745
69317SOL     OW 9847  12.230  10.061   8.583
69317SOL    HW1 9848  12.153  10.089   8.534
69317SOL    HW2 9849  12.217   9.967   8.596
69318SOL     OW 9850  12.373   4.221  12.292
69318SOL    HW1 9851  12.439   4.288  12.311
69318SOL    HW2 9852  12.382   4.204  12.198
69319SOL     OW 9853  12.581   9.599   9.014
69319SOL    HW1 9854  12.580   9.651   9.094
69319SOL    HW2 9855  12.652   9.536   9.027
69320SOL     OW 9856  14.518  13.535   0.307
69320SOL    HW1 9857  14.447  13.524   0.243
69320SOL    HW2 9858  14.476  13.522   0.392
69321SOL     OW 9859   5.089   2.399  12.636
69321SOL    HW1 9860   5.060   2.485  12.665
69321SOL    HW2 9861   5.008   2.354  12.610
69322SOL     OW 9862  11.826  10.174   8.250
69322SOL    HW1 9863  11.835  10.269   8.236
69322SOL    HW2 9864  11.861  10.135   8.170
69323SOL     OW 9865  13.632   7.775  14.700
69323SOL    HW1 9866  13.597   7.861  14.726
69323SOL    HW2 9867  13.625   7.722  14.779
69324SOL     OW 9868   9.684   2.047   9.092
69324SOL    HW1 9869   9.706   2.079   9.180
69324SOL    HW2 9870   9.768   2.039   9.048
69325SOL     OW 9871   4.530  14.592  10.293
69325SOL    HW1 9872   4.583  14.639  10.358
69325SOL    HW2 9873   4.570  14.615  10.209
69326SOL     OW 9874  11.405  11.555   9.973
69326SOL    HW1 9875  11.386  11.635  10.023
69326SOL    HW2 9876  11.414  11.487  10.040
69327SOL     OW 9877  10.244  14.259   5.653
69327SOL    HW1 9878  10.222  14.279   5.744
69327SOL    HW2 9879  10.165  14.283   5.604
69328SOL     OW 9880   0.811   1.101  11.798
69328SOL    HW1 9881   0.763   1.119  11.717
69328SOL    HW2 9882   0.744   1.102  11.866
69329SOL     OW 9883   5.340   3.779  12.749
69329SOL    HW1 9884   5.369   3.796  12.839
69329SOL    HW2 9885   5.384   3.698  12.724
69330SOL     OW 9886  10.014   2.381   3.101
69330SOL    HW1 9887   9.933   2.432   3.109
69330SOL    HW2 9888  10.006   2.312   3.166
69331SOL     OW 9889   8.382   1.851  10.788
69331SOL    HW1 9890   8.433   1.771  10.778
69331SOL    HW2 9891   8.332   1.860  10.707
69332SOL     OW 9892  13.437   4.805   5.145
69332SOL    HW1 9893  13.353   4.767   5.121
69332SOL    HW2 9894  13.437   4.809   5.240
69333SOL     OW 9895   9.644   4.729   6.880
69333SOL    HW1 9896   9.716   4.758   6.825
69333SOL    HW2 9897   9.656   4.776   6.963
69334SOL     OW 9898  11.155  14.056   9.979
69334SOL    HW1 9899  11.156  14.113  10.056
69334SOL    HW2 9900  11.078  14.002   9.990
69335SOL     OW 9901  13.444   5.577   4.865
69335SOL    HW1 9902  13.391   5.536   4.933
69335SOL    HW2 9903  13.509   5.511   4.841
69336SOL     OW 9904  11.286   9.388   1.852
69336SOL    HW1 9905  11.232   9.343   1.917
69336SOL    HW2 9906  11.354   9.431   1.903
69337SOL     OW 9907  11.662  13.911   9.274
69337SOL    HW1 9908  11.743  13.890   9.322
69337SOL    HW2 9909  11.681  13.995   9.231
69338SOL     OW 9910   4.422  12.655   3.166
69338SOL    HW1 9911   4.506  12.612   3.177
69338SOL    HW2 9912   4.370  12.594   3.113
69339SOL     OW 9913  13.367   9.863  13.662
69339SOL    HW1 9914  13.286   9.813  13.662
69339SOL    HW2 9915  13.340   9.955  13.668
69340SOL     OW 9916  11.061   2.169   3.721
69340SOL    HW1 9917  11.132   2.158   3.784
69340SOL    HW2 9918  11.014   2.247   3.749
69341SOL     OW 9919  12.769  14.115   6.115
69341SOL    HW1 9920  12.848  14.083   6.158
69341SOL    HW2 9921  12.697  14.082   6.169
69342SOL     OW 9922   3.414   8.803   6.811
69342SOL    HW1 9923   3.343   8.843   6.761
69342SOL    HW2 9924   3.404   8.709   6.797
69343SOL     OW 9925   1.233   4.286   8.763
69343SOL    HW1 9926   1.176   4.212   8.785
69343SOL    HW2 9927   1.267   4.317   8.847
69344SOL     OW 9928  13.343  12.930   2.995
69344SOL    HW1 9929  13.281  12.864   2.965
69344SOL    HW2 9930  13.293  12.986   3.054
69345SOL     OW 9931   8.645  12.936   1.322
69345SOL    HW1 9932   8.590  13.000   1.276
69345SOL    HW2 9933   8.720  12.987   1.353
69346SOL     OW 9934   7.558   0.397   3.243
69346SOL    HW1 9935   7.575   0.305   3.264
69346SOL    HW2 9936   7.641   0.441   3.260
69347SOL     OW 9937   5.418   2.824   9.282
69347SOL    HW1 9938   5.414   2.879   9.360
69347SOL    HW2 9939   5.457   2.742   9.312
69348SOL     OW 9940  12.729   4.515   9.741
69348SOL    HW1 9941  12.759   4.424   9.743
69348SOL    HW2 9942  12.768   4.551   9.661
69349SOL     OW 9943   6.615  13.199   0.505
69349SOL    HW1 9944   6.571  13.128   0.553
69349SOL    HW2 9945   6.626  13.164   0.416
69350SOL     OW 9946  13.045  13.157  14.105
69350SOL    HW1 9947  12.987  13.229  14.083
69350SOL    HW2 9948  13.065  13.117  14.020
69351SOL     OW 9949   5.865   2.642   5.676
69351SOL    HW1 9950   5.911   2.713   5.632
69351SOL    HW2 9951   5.935   2.581   5.702
69352SOL     OW 9952   2.887   5.148  13.898
69352SOL    HW1 9953   2.877   5.138  13.804
69352SOL    HW2 9954   2.808   5.195  13.926
69353SOL     OW 9955   7.783  13.140  13.665
69353SOL    HW1 9956   7.842  13.147  13.741
69353SOL    HW2 9957   7.839  13.109  13.594
69354SOL     OW 9958   5.180  13.573   9.404
69354SOL    HW1 9959   5.089  13.584   9.431
69354SOL    HW2 9960   5.178  13.498   9.344
69355SOL     OW 9961   8.033  11.479   2.954
69355SOL    HW1 9962   8.120  11.479   2.913
69355SOL    HW2 9963   7.987  11.552   2.914
69356SOL     OW 9964   9.549  10.374   8.208
69356SOL    HW1 9965   9.529  10.335   8.123
69356SOL    HW2 9966   9.541  10.301   8.270
69357SOL     OW 9967   9.777   2.027  10.182
69357SOL    HW1 9968   9.807   2.117  10.169
69357SOL    HW2 9969   9.729   2.005  10.102
69358SOL     OW 9970   6.047   0.226   7.594
69358SOL    HW1 9971   6.001   0.210   7.512
69358SOL    HW2 9972   6.132   0.262   7.567
69359SOL     OW 9973  10.045   9.476  12.514
69359SOL    HW1 9974  10.000   9.504  12.435
69359SOL    HW2 9975  10.111   9.544  12.531
69360SOL     OW 9976   7.937   1.499  12.073
69360SOL    HW1 9977   7.847   1.530  12.067
69360SOL    HW2 9978   7.986   1.559  12.017
69361SOL     OW 9979   8.159  14.686   7.454
69361SOL    HW1 9980   8.207  14.737   7.520
69361SOL    HW2 9981   8.098  14.749   7.415
69362SOL     OW 9982   8.851  11.651   8.622
69362SOL    HW1 9983   8.777  11.598   8.652
69362SOL    HW2 9984   8.908  11.659   8.698
69363SOL     OW 9985   3.654  10.464   0.902
69363SOL    HW1 9986   3.580  10.460   0.841
69363SOL    HW2 9987   3.614  10.481   0.987
69364SOL     OW 9988   6.341   8.061   4.330
69364SOL    HW1 9989   6.313   7.972   4.309
69364SOL    HW2 9990   6.322   8.110   4.250
69365SOL     OW 9991   7.647  11.557   5.385
69365SOL    HW1 9992   7.639  11.478   5.332
69365SOL    HW2 9993   7.582  11.547   5.454
69366SOL     OW 9994   9.847   6.475   8.182
69366SOL    HW1 9995   9.870   6.402   8.124
69366SOL    HW2 9996   9.930   6.521   8.198
69367SOL     OW 9997   2.134   7.274   3.337
69367SOL    HW1 9998   2.067   7.316   3.283
69367SOL    HW2 9999   2.171   7.346   3.389
69368SOL     OW10000   6.663   0.186   1.895
69368SOL    HW110001   6.685   0.181   1.802
69368SOL    HW210002   6.695   0.271   1.923
69369SOL     OW10003   9.586   9.863  13.516
69369SOL    HW110004   9.678   9.887  13.518
69369SOL    HW210005   9.586   9.771  13.490
69370SOL     OW10006  13.473   8.527   2.321
69370SOL    HW110007  13.399   8.484   2.279
69370SOL    HW210008  13.492   8.602   2.265
69371SOL     OW10009   7.333   6.925   2.798
69371SOL    HW110010   7.348   6.970   2.715
69371SOL    HW210011   7.420   6.905   2.831
69372SOL     OW10012   5.481   2.518   5.961
69372SOL    HW110013   5.541   2.587   5.933
69372SOL    HW210014   5.533   2.437   5.956
69373SOL     OW10015   7.534  12.660   4.361
69373SOL    HW110016   7.471  12.714   4.408
69373SOL    HW210017   7.537  12.578   4.411
69374SOL     OW10018   0.248   2.207  10.742
69374SOL    HW110019   0.281   2.279  10.795
69374SOL    HW210020   0.207   2.148  10.806
69375SOL     OW10021   8.244   3.903  12.159
69375SOL    HW110022   8.190   3.885  12.083
69375SOL    HW210023   8.325   3.855  12.143
69376SOL     OW10024   8.989   2.506   7.546
69376SOL    HW110025   9.041   2.490   7.467
69376SOL    HW210026   9.054   2.527   7.613
69377SOL     OW10027  14.578   6.712   1.690
69377SOL    HW110028  14.580   6.805   1.709
69377SOL    HW210029  14.578   6.707   1.594
69378SOL     OW10030   9.403   0.045  12.585
69378SOL    HW110031   9.409  14.855  12.529
69378SOL    HW210032   9.320   0.035  12.632
69379SOL     OW10033   0.632   1.186   7.087
69379SOL    HW110034   0.710   1.204   7.034
69379SOL    HW210035   0.598   1.104   7.052
69380SOL     OW10036   9.871  10.574  14.458
69380SOL    HW110037   9.917  10.654  14.485
69380SOL    HW210038   9.786  10.580  14.500
69381SOL     OW10039   3.019  12.857   3.571
69381SOL    HW110040   3.077  12.933   3.582
69381SOL    HW210041   2.947  12.890   3.519
69382SOL     OW10042  14.840   2.738   4.704
69382SOL    HW110043   0.025   2.708   4.650
69382SOL    HW210044  14.883   2.788   4.774
69383SOL     OW10045   5.474  14.684   4.247
69383SOL    HW110046   5.422  14.764   4.235
69383SOL    HW210047   5.463  14.661   4.339
69384SOL     OW10048  14.235  11.701   8.442
69384SOL    HW110049  14.205  11.645   8.513
69384SOL    HW210050  14.196  11.787   8.461
69385SOL     OW10051  12.408  14.600  11.483
69385SOL    HW110052  12.407  14.516  11.529
69385SOL    HW210053  12.487  14.597  11.430
69386SOL     OW10054   6.063   9.302  13.715
69386SOL    HW110055   6.124   9.229  13.726
69386SOL    HW210056   6.097   9.351  13.640
69387SOL     OW10057  10.390   9.906  11.129
69387SOL    HW110058  10.485   9.913  11.121
69387SOL    HW210059  10.357   9.919  11.040
69388SOL     OW10060  11.264   9.611  10.672
69388SOL    HW110061  11.190   9.551  10.685
69388SOL    HW210062  11.226   9.687  10.627
69389SOL     OW10063   9.770   2.542   4.900
69389SOL    HW110064   9.720   2.564   4.978
69389SOL    HW210065   9.785   2.626   4.856
69390SOL     OW10066  11.324   2.157   9.730
69390SOL    HW110067  11.389   2.134   9.796
69390SOL    HW210068  11.284   2.238   9.761
69391SOL     OW10069   0.867  10.886   4.548
69391SOL    HW110070   0.872  10.940   4.627
69391SOL    HW210071   0.922  10.810   4.567
69392SOL     OW10072   7.420  12.687   5.155
69392SOL    HW110073   7.501  12.712   5.111
69392SOL    HW210074   7.434  12.714   5.246
69393SOL     OW10075   6.224  11.078   7.501
69393SOL    HW110076   6.170  11.155   7.483
69393SOL    HW210077   6.252  11.089   7.592
69394SOL     OW10078   7.151   8.751   7.268
69394SOL    HW110079   7.167   8.751   7.173
69394SOL    HW210080   7.234   8.725   7.306
69395SOL     OW10081   2.208   2.630   5.335
69395SOL    HW110082   2.211   2.680   5.416
69395SOL    HW210083   2.260   2.681   5.273
69396SOL     OW10084   0.666   0.846   7.862
69396SOL    HW110085   0.607   0.893   7.920
69396SOL    HW210086   0.610   0.789   7.811
69397SOL     OW10087   8.906  11.990   1.551
69397SOL    HW110088   8.881  11.899   1.534
69397SOL    HW210089   9.000  11.993   1.533
69398SOL     OW10090   3.686   2.305   2.388
69398SOL    HW110091   3.729   2.368   2.329
69398SOL    HW210092   3.755   2.243   2.411
69399SOL     OW10093  12.088  11.303   2.426
69399SOL    HW110094  12.066  11.379   2.372
69399SOL    HW210095  12.136  11.245   2.368
69400SOL     OW10096   7.839   9.438   0.444
69400SOL    HW110097   7.902   9.508   0.425
69400SOL    HW210098   7.822   9.446   0.538
69401SOL     OW10099   0.135   9.838   3.830
69401SOL    HW110100   0.091   9.921   3.811
69401SOL    HW210101   0.223   9.849   3.797
69402SOL     OW10102   0.756  11.978   2.305
69402SOL    HW110103   0.785  11.897   2.264
69402SOL    HW210104   0.744  12.039   2.231
69403SOL     OW10105   7.646   3.852   9.288
69403SOL    HW110106   7.552   3.860   9.277
69403SOL    HW210107   7.680   3.840   9.199
69404SOL     OW10108  13.261  11.429  14.613
69404SOL    HW110109  13.184  11.462  14.659
69404SOL    HW210110  13.334  11.448  14.672
69405SOL     OW10111  13.756   9.376   4.776
69405SOL    HW110112  13.717   9.367   4.689
69405SOL    HW210113  13.683   9.360   4.836
69406SOL     OW10114   6.234  13.528   6.315
69406SOL    HW110115   6.276  13.612   6.297
69406SOL    HW210116   6.292  13.463   6.275
69407SOL     OW10117   8.566  10.748  12.962
69407SOL    HW110118   8.599  10.677  12.906
69407SOL    HW210119   8.572  10.826  12.907
69408SOL     OW10120   9.970  13.225   4.106
69408SOL    HW110121   9.950  13.138   4.143
69408SOL    HW210122   9.950  13.286   4.177
69409SOL     OW10123  14.814   3.144   9.528
69409SOL    HW110124  14.826   3.136   9.433
69409SOL    HW210125  14.744   3.082   9.548
69410SOL     OW10126  10.330   6.242   6.247
69410SOL    HW110127  10.263   6.186   6.286
69410SOL    HW210128  10.281   6.316   6.210
69411SOL     OW10129   4.112   9.335   2.340
69411SOL    HW110130   4.194   9.363   2.298
69411SOL    HW210131   4.047   9.338   2.270
69412SOL     OW10132   6.084   7.389   0.750
69412SOL    HW110133   6.009   7.429   0.705
69412SOL    HW210134   6.053   7.301   0.774
69413SOL     OW10135   2.338  11.002  11.347
69413SOL    HW110136   2.262  10.945  11.339
69413SOL    HW210137   2.383  10.993  11.263
69414SOL     OW10138   7.639   7.056   1.441
69414SOL    HW110139   7.712   7.049   1.503
69414SOL    HW210140   7.657   6.988   1.376
69415SOL     OW10141   8.118   4.540   1.595
69415SOL    HW110142   8.177   4.489   1.540
69415SOL    HW210143   8.058   4.475   1.633
69416SOL     OW10144   6.383   3.462   1.420
69416SOL    HW110145   6.385   3.371   1.450
69416SOL    HW210146   6.412   3.513   1.495
69417SOL     OW10147   2.297   3.399   3.815
69417SOL    HW110148   2.202   3.387   3.806
69417SOL    HW210149   2.320   3.349   3.893
69418SOL     OW10150   2.339   6.539   8.012
69418SOL    HW110151   2.285   6.477   7.964
69418SOL    HW210152   2.400   6.574   7.947
69419SOL     OW10153   5.102  14.877   6.462
69419SOL    HW110154   5.050  14.802   6.436
69419SOL    HW210155   5.193  14.847   6.456
69420SOL     OW10156  13.794  14.860  14.016
69420SOL    HW110157  13.709   0.018  14.013
69420SOL    HW210158  13.819  14.864  14.108
69421SOL     OW10159   4.045   1.657  10.623
69421SOL    HW110160   4.125   1.656  10.571
69421SOL    HW210161   4.038   1.569  10.658
69422SOL     OW10162   6.468   3.152  11.648
69422SOL    HW110163   6.522   3.197  11.713
69422SOL    HW210164   6.472   3.208  11.571
69423SOL     OW10165  12.838   3.799   5.747
69423SOL    HW110166  12.850   3.785   5.840
69423SOL    HW210167  12.898   3.871   5.725
69424SOL     OW10168   3.265  10.290   0.150
69424SOL    HW110169   3.171  10.302   0.163
69424SOL    HW210170   3.281  10.320   0.061
69425SOL     OW10171   1.801   7.703  12.687
69425SOL    HW110172   1.722   7.650  12.700
69425SOL    HW210173   1.789   7.742  12.600
69426SOL     OW10174   8.317   9.486   4.143
69426SOL    HW110175   8.316   9.487   4.047
69426SOL    HW210176   8.227   9.506   4.168
69427SOL     OW10177   0.199   3.818   0.084
69427SOL    HW110178   0.172   3.876   0.013
69427SOL    HW210179   0.283   3.853   0.113
69428SOL     OW10180  12.769   3.362   2.209
69428SOL    HW110181  12.863   3.368   2.195
69428SOL    HW210182  12.734   3.444   2.176
69429SOL     OW10183  12.538   1.176   8.192
69429SOL    HW110184  12.609   1.233   8.223
69429SOL    HW210185  12.506   1.219   8.113
69430SOL     OW10186   7.102   5.958   2.500
69430SOL    HW110187   7.088   6.045   2.539
69430SOL    HW210188   7.155   5.975   2.422
69431SOL     OW10189   3.093  13.948  14.878
69431SOL    HW110190   3.169  13.919   0.040
69431SOL    HW210191   3.102  13.907  14.792
69432SOL     OW10192   9.250   1.208   6.934
69432SOL    HW110193   9.306   1.201   7.011
69432SOL    HW210194   9.162   1.193   6.967
69433SOL     OW10195   1.014  10.282   9.515
69433SOL    HW110196   1.085  10.333   9.553
69433SOL    HW210197   1.019  10.197   9.558
69434SOL     OW10198   6.384   0.180   8.335
69434SOL    HW110199   6.426   0.214   8.414
69434SOL    HW210200   6.455   0.135   8.289
69435SOL     OW10201   5.755   4.572   3.248
69435SOL    HW110202   5.828   4.511   3.248
69435SOL    HW210203   5.691   4.533   3.308
69436SOL     OW10204   1.246   2.538   4.509
69436SOL    HW110205   1.310   2.609   4.518
69436SOL    HW210206   1.212   2.524   4.597
69437SOL     OW10207   2.438   1.312   7.319
69437SOL    HW110208   2.507   1.263   7.274
69437SOL    HW210209   2.442   1.281   7.410
69438SOL     OW10210  10.545   4.041  13.665
69438SOL    HW110211  10.526   3.959  13.712
69438SOL    HW210212  10.639   4.037  13.647
69439SOL     OW10213   4.416   2.974   1.956
69439SOL    HW110214   4.339   3.030   1.948
69439SOL    HW210215   4.382   2.890   1.986
69440SOL     OW10216   8.165  11.129   7.624
69440SOL    HW110217   8.213  11.067   7.679
69440SOL    HW210218   8.224  11.203   7.614
69441SOL     OW10219  13.389   4.083   9.123
69441SOL    HW110220  13.298   4.093   9.093
69441SOL    HW210221  13.383   4.085   9.218
69442SOL     OW10222   9.046   0.458   4.949
69442SOL    HW110223   8.960   0.494   4.926
69442SOL    HW210224   9.027   0.376   4.995
69443SOL     OW10225   1.883   0.697   7.803
69443SOL    HW110226   1.977   0.690   7.818
69443SOL    HW210227   1.861   0.622   7.747
69444SOL     OW10228   4.577  12.895   3.421
69444SOL    HW110229   4.636  12.971   3.429
69444SOL    HW210230   4.543  12.901   3.332
69445SOL     OW10231   6.522   0.450   1.493
69445SOL    HW110232   6.490   0.368   1.456
69445SOL    HW210233   6.459   0.516   1.463
69446SOL     OW10234  12.924  13.051   4.712
69446SOL    HW110235  12.916  13.122   4.648
69446SOL    HW210236  12.997  13.079   4.768
69447SOL     OW10237  11.522   4.718   2.229
69447SOL    HW110238  11.469   4.797   2.226
69447SOL    HW210239  11.463   4.648   2.199
69448SOL     OW10240  14.182  14.869  14.667
69448SOL    HW110241  14.250  14.819  14.711
69448SOL    HW210242  14.182   0.066  14.712
69449SOL     OW10243  10.348   1.193   3.401
69449SOL    HW110244  10.396   1.136   3.462
69449SOL    HW210245  10.388   1.175   3.316
69450SOL     OW10246   3.969  13.939  10.722
69450SOL    HW110247   3.965  13.955  10.628
69450SOL    HW210248   3.879  13.948  10.752
69451SOL     OW10249   0.685  12.924   5.486
69451SOL    HW110250   0.764  12.975   5.473
69451SOL    HW210251   0.624  12.955   5.419
69452SOL     OW10252   9.305  10.153  10.668
69452SOL    HW110253   9.330  10.207  10.593
69452SOL    HW210254   9.387  10.136  10.713
69453SOL     OW10255   7.070   0.291   8.055
69453SOL    HW110256   7.076   0.384   8.075
69453SOL    HW210257   7.086   0.248   8.139
69454SOL     OW10258   8.106  12.986   3.562
69454SOL    HW110259   8.150  12.901   3.567
69454SOL    HW210260   8.013  12.965   3.563
69455SOL     OW10261   8.460  11.179  10.813
69455SOL    HW110262   8.479  11.250  10.874
69455SOL    HW210263   8.520  11.194  10.740
69456SOL     OW10264  10.847  10.729   1.237
69456SOL    HW110265  10.805  10.738   1.323
69456SOL    HW210266  10.843  10.636   1.218
69457SOL     OW10267   4.530   0.841   6.479
69457SOL    HW110268   4.439   0.810   6.483
69457SOL    HW210269   4.522   0.934   6.460
69458SOL     OW10270   7.401   5.800   1.692
69458SOL    HW110271   7.315   5.821   1.729
69458SOL    HW210272   7.455   5.779   1.768
69459SOL     OW10273   8.828   2.368  14.134
69459SOL    HW110274   8.821   2.336  14.044
69459SOL    HW210275   8.817   2.463  14.126
69460SOL     OW10276   3.563  12.822   8.567
69460SOL    HW110277   3.632  12.881   8.598
69460SOL    HW210278   3.602  12.735   8.570
69461SOL     OW10279  14.421  12.616   4.589
69461SOL    HW110280  14.474  12.576   4.658
69461SOL    HW210281  14.438  12.710   4.598
69462SOL     OW10282  10.114  14.416   4.666
69462SOL    HW110283  10.122  14.443   4.757
69462SOL    HW210284  10.197  14.372   4.646
69463SOL     OW10285   3.641  13.450   6.713
69463SOL    HW110286   3.680  13.386   6.772
69463SOL    HW210287   3.606  13.398   6.640
69464SOL     OW10288  14.195   9.543   3.286
69464SOL    HW110289  14.161   9.466   3.332
69464SOL    HW210290  14.168   9.530   3.195
69465SOL     OW10291   8.074   5.711   2.974
69465SOL    HW110292   8.091   5.690   2.883
69465SOL    HW210293   7.987   5.750   2.974
69466SOL     OW10294   4.274   4.464  13.068
69466SOL    HW110295   4.347   4.462  13.007
69466SOL    HW210296   4.210   4.524  13.029
69467SOL     OW10297   3.689   5.698   2.289
69467SOL    HW110298   3.618   5.754   2.256
69467SOL    HW210299   3.744   5.682   2.212
69468SOL     OW10300   4.019  11.189  10.335
69468SOL    HW110301   4.114  11.192  10.329
69468SOL    HW210302   3.999  11.222  10.423
69469SOL     OW10303  13.617   9.975  12.720
69469SOL    HW110304  13.575   9.914  12.780
69469SOL    HW210305  13.551  10.042  12.703
69470SOL     OW10306   0.880   2.119   3.635
69470SOL    HW110307   0.796   2.092   3.672
69470SOL    HW210308   0.877   2.215   3.636
69471SOL     OW10309  11.098   5.898   9.804
69471SOL    HW110310  11.190   5.918   9.820
69471SOL    HW210311  11.069   5.853   9.884
69472SOL     OW10312   8.775  11.769   1.883
69472SOL    HW110313   8.846  11.706   1.872
69472SOL    HW210314   8.817  11.850   1.911
69473SOL     OW10315   9.879   8.161   9.998
69473SOL    HW110316   9.799   8.129   9.955
69473SOL    HW210317   9.869   8.135  10.090
69474SOL     OW10318   2.115  13.238   4.380
69474SOL    HW110319   2.044  13.206   4.435
69474SOL    HW210320   2.190  13.244   4.438
69475SOL     OW10321   9.457  12.450  11.570
69475SOL    HW110322   9.488  12.538  11.549
69475SOL    HW210323   9.362  12.455  11.560
69476SOL     OW10324   1.998   9.941  11.600
69476SOL    HW110325   2.010  10.034  11.616
69476SOL    HW210326   2.084   9.910  11.571
69477SOL     OW10327  12.232   5.485  11.342
69477SOL    HW110328  12.224   5.574  11.376
69477SOL    HW210329  12.186   5.430  11.405
69478SOL     OW10330   4.538   8.059  12.899
69478SOL    HW110331   4.584   8.065  12.983
69478SOL    HW210332   4.580   8.124  12.844
69479SOL     OW10333   1.472  14.459  12.389
69479SOL    HW110334   1.448  14.533  12.334
69479SOL    HW210335   1.408  14.391  12.367
69480SOL     OW10336   5.826   8.748  13.444
69480SOL    HW110337   5.885   8.673  13.449
69480SOL    HW210338   5.763   8.733  13.514
69481SOL     OW10339  13.066  12.986   5.712
69481SOL    HW110340  13.109  13.051   5.656
69481SOL    HW210341  13.074  12.904   5.663
69482SOL     OW10342  10.767   7.171   6.245
69482SOL    HW110343  10.693   7.215   6.288
69482SOL    HW210344  10.836   7.237   6.244
69483SOL     OW10345  13.904   4.859   8.847
69483SOL    HW110346  13.969   4.920   8.810
69483SOL    HW210347  13.953   4.779   8.865
69484SOL     OW10348   2.625  12.766   7.395
69484SOL    HW110349   2.561  12.701   7.426
69484SOL    HW210350   2.572  12.830   7.347
69485SOL     OW10351   0.424   9.338   8.106
69485SOL    HW110352   0.469   9.415   8.073
69485SOL    HW210353   0.494   9.282   8.140
69486SOL     OW10354   5.527   0.990   4.395
69486SOL    HW110355   5.442   1.019   4.361
69486SOL    HW210356   5.574   0.960   4.317
69487SOL     OW10357   1.289   1.924   5.682
69487SOL    HW110358   1.329   1.959   5.603
69487SOL    HW210359   1.352   1.859   5.715
69488SOL     OW10360   0.595   1.993  11.793
69488SOL    HW110361   0.507   1.957  11.790
69488SOL    HW210362   0.636   1.949  11.867
69489SOL     OW10363  14.663   8.908  11.671
69489SOL    HW110364  14.635   8.818  11.654
69489SOL    HW210365  14.681   8.910  11.765
69490SOL     OW10366  14.037   8.781  12.401
69490SOL    HW110367  13.952   8.740  12.416
69490SOL    HW210368  14.018   8.872  12.381
69491SOL     OW10369  10.561   5.884  10.665
69491SOL    HW110370  10.611   5.885  10.747
69491SOL    HW210371  10.485   5.940  10.684
69492SOL     OW10372   7.939  13.963  13.470
69492SOL    HW110373   8.018  14.018  13.473
69492SOL    HW210374   7.890  13.988  13.548
69493SOL     OW10375   2.056   5.696   4.041
69493SOL    HW110376   2.087   5.614   4.080
69493SOL    HW210377   1.979   5.671   3.990
69494SOL     OW10378   1.957  14.533   7.419
69494SOL    HW110379   2.029  14.507   7.477
69494SOL    HW210380   1.996  14.596   7.358
69495SOL     OW10381   2.991   2.920  14.372
69495SOL    HW110382   3.051   2.847  14.358
69495SOL    HW210383   3.025   2.963  14.451
69496SOL     OW10384   6.137   7.877  14.110
69496SOL    HW110385   6.165   7.800  14.060
69496SOL    HW210386   6.178   7.866  14.196
69497SOL     OW10387   1.763   0.398   4.097
69497SOL    HW110388   1.851   0.423   4.126
69497SOL    HW210389   1.715   0.380   4.178
69498SOL     OW10390  12.833  12.922   7.294
69498SOL    HW110391  12.867  12.875   7.370
69498SOL    HW210392  12.745  12.949   7.319
69499SOL     OW10393   1.184   6.340   6.162
69499SOL    HW110394   1.238   6.264   6.143
69499SOL    HW210395   1.119   6.341   6.092
69500SOL     OW10396   7.395   2.826  12.638
69500SOL    HW110397   7.432   2.915  12.638
69500SOL    HW210398   7.322   2.831  12.700
69501SOL     OW10399   0.808   2.226   2.353
69501SOL    HW110400   0.858   2.189   2.426
69501SOL    HW210401   0.729   2.262   2.394
69502SOL     OW10402  13.453   2.892  13.808
69502SOL    HW110403  13.473   2.828  13.739
69502SOL    HW210404  13.446   2.975  13.762
69503SOL     OW10405   8.741   0.963   7.728
69503SOL    HW110406   8.726   1.045   7.680
69503SOL    HW210407   8.836   0.956   7.733
69504SOL     OW10408  14.462  13.320   8.722
69504SOL    HW110409  14.401  13.393   8.724
69504SOL    HW210410  14.515  13.330   8.801
69505SOL     OW10411   2.145  14.196  12.748
69505SOL    HW110412   2.098  14.220  12.668
69505SOL    HW210413   2.142  14.100  12.749
69506SOL     OW10414   7.014   3.998  11.659
69506SOL    HW110415   6.919   3.991  11.671
69506SOL    HW210416   7.051   3.960  11.739
69507SOL     OW10417   3.756  13.225   0.058
69507SOL    HW110418   3.702  13.147   0.048
69507SOL    HW210419   3.794  13.239  14.858
69508SOL     OW10420   7.104   1.091  13.236
69508SOL    HW110421   7.160   1.054  13.304
69508SOL    HW210422   7.141   1.177  13.218
69509SOL     OW10423   4.474   0.652   8.524
69509SOL    HW110424   4.454   0.586   8.457
69509SOL    HW210425   4.391   0.666   8.570
69510SOL     OW10426   7.887  13.501  11.867
69510SOL    HW110427   7.926  13.428  11.818
69510SOL    HW210428   7.798  13.508  11.834
69511SOL     OW10429  14.209   1.626   5.690
69511SOL    HW110430  14.207   1.602   5.783
69511SOL    HW210431  14.216   1.722   5.691
69512SOL     OW10432  10.910   5.090   6.250
69512SOL    HW110433  10.850   5.117   6.319
69512SOL    HW210434  10.858   5.034   6.193
69513SOL     OW10435   7.072   2.494   5.233
69513SOL    HW110436   7.047   2.496   5.141
69513SOL    HW210437   7.090   2.586   5.255
69514SOL     OW10438   7.162  12.156   8.272
69514SOL    HW110439   7.220  12.092   8.230
69514SOL    HW210440   7.152  12.226   8.207
69515SOL     OW10441  11.487   6.251  10.892
69515SOL    HW110442  11.413   6.294  10.935
69515SOL    HW210443  11.564   6.299  10.922
69516SOL     OW10444   9.848   7.317   0.822
69516SOL    HW110445   9.814   7.401   0.852
69516SOL    HW210446   9.941   7.332   0.808
69517SOL     OW10447   7.373   2.977  14.032
69517SOL    HW110448   7.367   2.925  14.112
69517SOL    HW210449   7.381   2.912  13.962
69518SOL     OW10450   5.787  13.658   2.025
69518SOL    HW110451   5.854  13.725   2.038
69518SOL    HW210452   5.811  13.615   1.943
69519SOL     OW10453  10.263   2.104   0.171
69519SOL    HW110454  10.256   2.158   0.250
69519SOL    HW210455  10.275   2.015   0.204
69520SOL     OW10456   3.292   2.546   4.338
69520SOL    HW110457   3.306   2.552   4.433
69520SOL    HW210458   3.280   2.453   4.321
69521SOL     OW10459  14.411  11.223  11.031
69521SOL    HW110460  14.361  11.290  11.077
69521SOL    HW210461  14.471  11.188  11.097
69522SOL     OW10462   5.930   4.337   6.314
69522SOL    HW110463   6.002   4.398   6.330
69522SOL    HW210464   5.850   4.389   6.330
69523SOL     OW10465   4.337  11.248  13.440
69523SOL    HW110466   4.257  11.298  13.419
69523SOL    HW210467   4.306  11.178  13.498
69524SOL     OW10468  11.080  13.959  12.549
69524SOL    HW110469  10.992  13.968  12.584
69524SOL    HW210470  11.093  13.865  12.540
69525SOL     OW10471   7.687   0.086   2.897
69525SOL    HW110472   7.683   0.104   2.803
69525SOL    HW210473   7.684   0.172   2.939
69526SOL     OW10474  13.166   2.401   7.248
69526SOL    HW110475  13.203   2.443   7.170
69526SOL    HW210476  13.204   2.449   7.322
69527SOL     OW10477   3.511  10.087   3.782
69527SOL    HW110478   3.573  10.046   3.721
69527SOL    HW210479   3.561  10.159   3.821
69528SOL     OW10480   7.638   7.968   0.789
69528SOL    HW110481   7.591   7.934   0.864
69528SOL    HW210482   7.571   7.981   0.722
69529SOL     OW10483   5.818  12.847  13.454
69529SOL    HW110484   5.812  12.852  13.358
69529SOL    HW210485   5.880  12.776  13.470
69530SOL     OW10486   7.909   1.867   4.501
69530SOL    HW110487   7.968   1.792   4.492
69530SOL    HW210488   7.941   1.930   4.435
69531SOL     OW10489  13.626   9.902  10.379
69531SOL    HW110490  13.688   9.925  10.309
69531SOL    HW210491  13.558   9.969  10.374
69532SOL     OW10492   1.279   2.859  11.584
69532SOL    HW110493   1.369   2.826  11.577
69532SOL    HW210494   1.275   2.901  11.670
69533SOL     OW10495  14.450   2.101   2.794
69533SOL    HW110496  14.481   2.185   2.828
69533SOL    HW210497  14.519   2.039   2.817
69534SOL     OW10498   2.345  13.267  14.111
69534SOL    HW110499   2.436  13.292  14.128
69534SOL    HW210500   2.293  13.342  14.140
69535SOL     OW10501   4.784   8.858   2.261
69535SOL    HW110502   4.805   8.823   2.348
69535SOL    HW210503   4.861   8.910   2.237
69536SOL     OW10504   1.816   8.674   1.205
69536SOL    HW110505   1.902   8.652   1.240
69536SOL    HW210506   1.781   8.739   1.265
69537SOL     OW10507  13.134   2.984   1.771
69537SOL    HW110508  13.205   3.048   1.783
69537SOL    HW210509  13.073   3.003   1.842
69538SOL     OW10510  10.780  11.257  13.436
69538SOL    HW110511  10.783  11.346  13.399
69538SOL    HW210512  10.716  11.211  13.382
69539SOL     OW10513   0.016  12.721   0.680
69539SOL    HW110514   0.088  12.750   0.736
69539SOL    HW210515   0.053  12.720   0.591
69540SOL     OW10516   4.358   7.189  11.062
69540SOL    HW110517   4.443   7.144  11.062
69540SOL    HW210518   4.380   7.281  11.051
69541SOL     OW10519  14.788  14.389   1.039
69541SOL    HW110520  14.837  14.386   1.121
69541SOL    HW210521  14.797  14.301   1.002
69542SOL     OW10522   7.918  13.916   4.014
69542SOL    HW110523   7.979  13.906   4.087
69542SOL    HW210524   7.899  14.010   4.010
69543SOL     OW10525   1.869  11.771   6.225
69543SOL    HW110526   1.813  11.805   6.294
69543SOL    HW210527   1.843  11.820   6.147
69544SOL     OW10528   3.532  12.024  10.274
69544SOL    HW110529   3.495  12.005  10.188
69544SOL    HW210530   3.461  12.002  10.335
69545SOL     OW10531   6.797  13.784   3.450
69545SOL    HW110532   6.733  13.782   3.520
69545SOL    HW210533   6.875  13.744   3.487
69546SOL     OW10534  12.867  12.720   8.565
69546SOL    HW110535  12.801  12.650   8.565
69546SOL    HW210536  12.940  12.685   8.514
69547SOL     OW10537   3.368  12.150  11.634
69547SOL    HW110538   3.448  12.198  11.654
69547SOL    HW210539   3.385  12.109  11.549
69548SOL     OW10540   5.155  13.669  14.331
69548SOL    HW110541   5.194  13.643  14.248
69548SOL    HW210542   5.062  13.682  14.312
69549SOL     OW10543   0.357   9.069  13.431
69549SOL    HW110544   0.291   9.031  13.488
69549SOL    HW210545   0.365   9.160  13.460
69550SOL     OW10546   8.162   6.822   7.794
69550SOL    HW110547   8.224   6.769   7.846
69550SOL    HW210548   8.161   6.907   7.838
69551SOL     OW10549   5.507   1.308   3.189
69551SOL    HW110550   5.461   1.360   3.254
69551SOL    HW210551   5.592   1.352   3.178
69552SOL     OW10552  14.840  11.268   9.661
69552SOL    HW110553  14.763  11.258   9.606
69552SOL    HW210554   0.025  11.234   9.607
69553SOL     OW10555  10.813   4.008  10.375
69553SOL    HW110556  10.842   4.086  10.328
69553SOL    HW210557  10.719   4.004  10.358
69554SOL     OW10558  10.336  13.125   7.182
69554SOL    HW110559  10.307  13.153   7.095
69554SOL    HW210560  10.267  13.066   7.213
69555SOL     OW10561   9.040   7.754  10.180
69555SOL    HW110562   9.070   7.692  10.114
69555SOL    HW210563   8.995   7.822  10.130
69556SOL     OW10564   4.880  12.121  12.115
69556SOL    HW110565   4.936  12.174  12.058
69556SOL    HW210566   4.902  12.030  12.092
69557SOL     OW10567   2.463  13.864   9.664
69557SOL    HW110568   2.422  13.811   9.732
69557SOL    HW210569   2.557  13.845   9.671
69558SOL     OW10570   8.973   6.757   0.634
69558SOL    HW110571   9.031   6.759   0.559
69558SOL    HW210572   9.026   6.722   0.705
69559SOL     OW10573  10.860   3.771   7.817
69559SOL    HW110574  10.800   3.840   7.788
69559SOL    HW210575  10.853   3.770   7.912
69560SOL     OW10576   3.442   8.114   2.478
69560SOL    HW110577   3.520   8.088   2.527
69560SOL    HW210578   3.435   8.050   2.407
69561SOL     OW10579  14.462   2.024  14.194
69561SOL    HW110580  14.382   1.976  14.173
69561SOL    HW210581  14.444   2.114  14.165
69562SOL     OW10582   2.386   4.163   5.514
69562SOL    HW110583   2.411   4.226   5.446
69562SOL    HW210584   2.291   4.161   5.511
69563SOL     OW10585  12.416   0.920   3.086
69563SOL    HW110586  12.395   0.963   3.168
69563SOL    HW210587  12.418   0.827   3.107
69564SOL     OW10588   1.271   5.252   9.894
69564SOL    HW110589   1.263   5.166   9.935
69564SOL    HW210590   1.193   5.299   9.925
69565SOL     OW10591  12.847  12.003   8.902
69565SOL    HW110592  12.914  11.956   8.951
69565SOL    HW210593  12.830  11.948   8.825
69566SOL     OW10594   6.012  10.737   2.815
69566SOL    HW110595   6.001  10.826   2.846
69566SOL    HW210596   6.079  10.699   2.873
69567SOL     OW10597  13.604  10.176  10.540
69567SOL    HW110598  13.687  10.206  10.577
69567SOL    HW210599  13.555  10.142  10.614
69568SOL     OW10600  11.183  13.348  13.625
69568SOL    HW110601  11.121  13.331  13.554
69568SOL    HW210602  11.241  13.271  13.626
69569SOL     OW10603   2.242   5.222   9.699
69569SOL    HW110604   2.165   5.197   9.751
69569SOL    HW210605   2.226   5.313   9.675
69570SOL     OW10606  13.539   5.181   5.529
69570SOL    HW110607  13.461   5.224   5.563
69570SOL    HW210608  13.532   5.090   5.557
69571SOL     OW10609   1.985  12.789   5.678
69571SOL    HW110610   1.988  12.714   5.618
69571SOL    HW210611   1.924  12.761   5.747
69572SOL     OW10612   0.251  10.884   0.738
69572SOL    HW110613   0.206  10.959   0.699
69572SOL    HW210614   0.325  10.922   0.785
69573SOL     OW10615   9.192   3.235   1.756
69573SOL    HW110616   9.227   3.297   1.819
69573SOL    HW210617   9.104   3.267   1.737
69574SOL     OW10618  12.284  11.246  12.851
69574SOL    HW110619  12.272  11.339  12.834
69574SOL    HW210620  12.314  11.210  12.768
69575SOL     OW10621   8.583  12.728   2.835
69575SOL    HW110622   8.488  12.745   2.838
69575SOL    HW210623   8.609  12.725   2.927
69576SOL     OW10624   8.440   6.169  12.439
69576SOL    HW110625   8.473   6.258  12.450
69576SOL    HW210626   8.510   6.123  12.393
69577SOL     OW10627   9.057   6.447   1.803
69577SOL    HW110628   8.968   6.478   1.820
69577SOL    HW210629   9.045   6.359   1.767
69578SOL     OW10630   0.223   7.476   5.588
69578SOL    HW110631   0.163   7.495   5.515
69578SOL    HW210632   0.304   7.522   5.564
69579SOL     OW10633   9.218   2.014  12.128
69579SOL    HW110634   9.308   2.046  12.130
69579SOL    HW210635   9.172   2.069  12.191
69580SOL     OW10636   3.870  11.223   7.322
69580SOL    HW110637   3.793  11.171   7.346
69580SOL    HW210638   3.866  11.300   7.379
69581SOL     OW10639   0.694   3.058  12.413
69581SOL    HW110640   0.697   3.069  12.318
69581SOL    HW210641   0.638   3.129  12.445
69582SOL     OW10642   3.692   0.805  14.859
69582SOL    HW110643   3.631   0.800  14.785
69582SOL    HW210644   3.655   0.746   0.038
69583SOL     OW10645   1.501   6.805   6.692
69583SOL    HW110646   1.564   6.738   6.720
69583SOL    HW210647   1.528   6.884   6.740
69584SOL     OW10648   6.391  12.271   7.969
69584SOL    HW110649   6.330  12.271   7.895
69584SOL    HW210650   6.473  12.306   7.933
69585SOL     OW10651  14.521   7.694  14.524
69585SOL    HW110652  14.435   7.682  14.564
69585SOL    HW210653  14.580   7.641  14.578
69586SOL     OW10654  11.746   5.237   1.056
69586SOL    HW110655  11.812   5.212   1.119
69586SOL    HW210656  11.796   5.258   0.976
69587SOL     OW10657   4.996  14.160   8.286
69587SOL    HW110658   5.080  14.114   8.282
69587SOL    HW210659   4.939  14.112   8.226
69588SOL     OW10660   0.614   1.764  11.231
69588SOL    HW110661   0.658   1.721  11.157
69588SOL    HW210662   0.683   1.815  11.273
69589SOL     OW10663   5.933   0.956  14.198
69589SOL    HW110664   5.949   1.009  14.276
69589SOL    HW210665   5.966   1.010  14.126
69590SOL     OW10666   3.477   6.452   0.313
69590SOL    HW110667   3.538   6.403   0.368
69590SOL    HW210668   3.528   6.475   0.235
69591SOL     OW10669   2.872   4.401  13.356
69591SOL    HW110670   2.847   4.381  13.446
69591SOL    HW210671   2.791   4.432  13.315
69592SOL     OW10672   3.044  11.595  10.458
69592SOL    HW110673   3.139  11.604  10.469
69592SOL    HW210674   3.007  11.668  10.508
69593SOL     OW10675   5.595   1.863  12.133
69593SOL    HW110676   5.613   1.836  12.223
69593SOL    HW210677   5.607   1.958  12.134
69594SOL     OW10678  13.228   9.109   3.264
69594SOL    HW110679  13.207   9.050   3.192
69594SOL    HW210680  13.185   9.191   3.241
69595SOL     OW10681  12.974   8.794  11.962
69595SOL    HW110682  12.903   8.734  11.939
69595SOL    HW210683  13.053   8.753  11.925
69596SOL     OW10684   2.513   9.447   6.012
69596SOL    HW110685   2.532   9.377   6.075
69596SOL    HW210686   2.427   9.480   6.038
69597SOL     OW10687   2.604   5.417   6.925
69597SOL    HW110688   2.551   5.349   6.883
69597SOL    HW210689   2.578   5.415   7.017
69598SOL     OW10690   1.435   6.211   6.977
69598SOL    HW110691   1.410   6.137   7.033
69598SOL    HW210692   1.383   6.285   7.010
69599SOL     OW10693  10.649  10.301   4.599
69599SOL    HW110694  10.699  10.356   4.539
69599SOL    HW210695  10.579  10.358   4.631
69600SOL     OW10696   6.659   6.160  14.084
69600SOL    HW110697   6.619   6.247  14.077
69600SOL    HW210698   6.683   6.153  14.176
69601SOL     OW10699   7.696  11.308   6.022
69601SOL    HW110700   7.767  11.275   6.077
69601SOL    HW210701   7.619  11.259   6.049
69602SOL     OW10702   0.435   1.209   3.595
69602SOL    HW110703   0.364   1.179   3.538
69602SOL    HW210704   0.429   1.304   3.592
69603SOL     OW10705   7.174   6.491   9.371
69603SOL    HW110706   7.145   6.581   9.360
69603SOL    HW210707   7.116   6.440   9.315
69604SOL     OW10708   0.337   9.066   7.081
69604SOL    HW110709   0.409   9.125   7.059
69604SOL    HW210710   0.271   9.081   7.013
69605SOL     OW10711  11.182   0.472   5.314
69605SOL    HW110712  11.107   0.472   5.373
69605SOL    HW210713  11.219   0.560   5.322
69606SOL     OW10714   9.196   6.440  10.690
69606SOL    HW110715   9.234   6.407  10.771
69606SOL    HW210716   9.265   6.428  10.624
69607SOL     OW10717   2.864   5.636   0.768
69607SOL    HW110718   2.859   5.714   0.823
69607SOL    HW210719   2.788   5.643   0.709
69608SOL     OW10720   7.417   7.744  13.360
69608SOL    HW110721   7.411   7.824  13.412
69608SOL    HW210722   7.454   7.773  13.277
69609SOL     OW10723  12.509   5.139   2.457
69609SOL    HW110724  12.464   5.091   2.526
69609SOL    HW210725  12.520   5.228   2.492
69610SOL     OW10726   4.683   9.847   7.546
69610SOL    HW110727   4.724   9.827   7.630
69610SOL    HW210728   4.756   9.854   7.485
69611SOL     OW10729  10.446  10.817   5.571
69611SOL    HW110730  10.366  10.870   5.573
69611SOL    HW210731  10.480  10.821   5.660
69612SOL     OW10732   8.097  10.671   0.433
69612SOL    HW110733   8.141  10.590   0.406
69612SOL    HW210734   8.014  10.642   0.471
69613SOL     OW10735   4.127   6.208   9.669
69613SOL    HW110736   4.048   6.224   9.617
69613SOL    HW210737   4.100   6.144   9.734
69614SOL     OW10738   0.925   3.459  13.344
69614SOL    HW110739   0.851   3.493  13.395
69614SOL    HW210740   1.003   3.483  13.395
69615SOL     OW10741   7.481   3.769   9.587
69615SOL    HW110742   7.405   3.817   9.555
69615SOL    HW210743   7.542   3.837   9.617
69616SOL     OW10744   8.599   8.892   9.059
69616SOL    HW110745   8.538   8.939   9.003
69616SOL    HW210746   8.549   8.818   9.092
69617SOL     OW10747  13.954   5.378   2.789
69617SOL    HW110748  13.973   5.444   2.855
69617SOL    HW210749  13.929   5.300   2.840
69618SOL     OW10750  14.622  13.661  13.202
69618SOL    HW110751  14.566  13.589  13.171
69618SOL    HW210752  14.570  13.739  13.189
69619SOL     OW10753   3.132   5.659   7.899
69619SOL    HW110754   3.154   5.746   7.865
69619SOL    HW210755   3.168   5.658   7.988
69620SOL     OW10756  11.611   2.566  12.700
69620SOL    HW110757  11.628   2.640  12.759
69620SOL    HW210758  11.694   2.519  12.696
69621SOL     OW10759  11.495   6.068  11.730
69621SOL    HW110760  11.447   5.985  11.736
69621SOL    HW210761  11.427   6.135  11.735
69622SOL     OW10762   5.135  11.185  13.706
69622SOL    HW110763   5.157  11.143  13.623
69622SOL    HW210764   5.101  11.115  13.761
69623SOL     OW10765   9.825   0.105   4.207
69623SOL    HW110766   9.741   0.151   4.203
69623SOL    HW210767   9.802   0.013   4.213
69624SOL     OW10768   1.580   1.942  13.076
69624SOL    HW110769   1.536   1.892  13.144
69624SOL    HW210770   1.565   2.034  13.100
69625SOL     OW10771   7.676   8.157   8.964
69625SOL    HW110772   7.689   8.171   9.058
69625SOL    HW210773   7.739   8.089   8.942
69626SOL     OW10774   8.409   4.332   0.840
69626SOL    HW110775   8.436   4.423   0.853
69626SOL    HW210776   8.355   4.312   0.917
69627SOL     OW10777   3.771   2.290   0.520
69627SOL    HW110778   3.856   2.259   0.489
69627SOL    HW210779   3.713   2.277   0.445
69628SOL     OW10780   6.533   9.000   7.841
69628SOL    HW110781   6.565   8.910   7.847
69628SOL    HW210782   6.605   9.054   7.873
69629SOL     OW10783  11.781   7.886   4.205
69629SOL    HW110784  11.719   7.937   4.153
69629SOL    HW210785  11.832   7.837   4.142
69630SOL     OW10786  10.888  14.051   0.349
69630SOL    HW110787  10.981  14.075   0.350
69630SOL    HW210788  10.863  14.049   0.441
69631SOL     OW10789  11.132  10.813   1.235
69631SOL    HW110790  11.143  10.903   1.267
69631SOL    HW210791  11.039  10.795   1.245
69632SOL     OW10792   7.057   1.027   2.464
69632SOL    HW110793   7.131   1.038   2.524
69632SOL    HW210794   6.990   1.086   2.498
69633SOL     OW10795   9.577   1.079  11.584
69633SOL    HW110796   9.560   0.995  11.543
69633SOL    HW210797   9.660   1.108  11.547
69634SOL     OW10798   2.703   4.969   7.471
69634SOL    HW110799   2.728   4.884   7.436
69634SOL    HW210800   2.680   5.021   7.394
69635SOL     OW10801   0.843   9.711  13.232
69635SOL    HW110802   0.771   9.673  13.182
69635SOL    HW210803   0.852   9.654  13.309
69636SOL     OW10804   5.950  11.189   4.553
69636SOL    HW110805   5.992  11.135   4.620
69636SOL    HW210806   5.859  11.197   4.582
69637SOL     OW10807  11.075   0.850   6.195
69637SOL    HW110808  11.076   0.755   6.207
69637SOL    HW210809  11.137   0.866   6.124
69638SOL     OW10810  11.064  14.430   2.210
69638SOL    HW110811  11.115  14.375   2.270
69638SOL    HW210812  11.129  14.466   2.150
69639SOL     OW10813  11.095   0.925  13.569
69639SOL    HW110814  11.124   0.955  13.483
69639SOL    HW210815  11.034   0.853  13.550
69640SOL     OW10816   3.975   7.651   0.739
69640SOL    HW110817   4.039   7.721   0.729
69640SOL    HW210818   3.926   7.651   0.657
69641SOL     OW10819   9.789   4.612  14.060
69641SOL    HW110820   9.810   4.536  14.114
69641SOL    HW210821   9.807   4.687  14.117
69642SOL     OW10822  13.022   8.951   6.702
69642SOL    HW110823  12.969   8.924   6.777
69642SOL    HW210824  12.959   8.973   6.634
69643SOL     OW10825   2.786   4.111  11.939
69643SOL    HW110826   2.872   4.068  11.936
69643SOL    HW210827   2.739   4.076  11.864
69644SOL     OW10828  10.156   9.431   0.240
69644SOL    HW110829  10.144   9.465   0.151
69644SOL    HW210830  10.068   9.401   0.265
69645SOL     OW10831   4.430   3.020   9.076
69645SOL    HW110832   4.337   3.035   9.094
69645SOL    HW210833   4.473   3.038   9.159
69646SOL     OW10834   7.757  10.178   0.552
69646SOL    HW110835   7.751  10.251   0.490
69646SOL    HW210836   7.669  10.168   0.586
69647SOL     OW10837  14.333  14.490   3.809
69647SOL    HW110838  14.319  14.436   3.887
69647SOL    HW210839  14.380  14.566   3.841
69648SOL     OW10840  14.312   4.097  13.924
69648SOL    HW110841  14.269   4.071  14.006
69648SOL    HW210842  14.403   4.071  13.936
69649SOL     OW10843  11.896   8.225   9.911
69649SOL    HW110844  11.939   8.207   9.828
69649SOL    HW210845  11.883   8.138   9.950
69650SOL     OW10846   0.813   7.400   7.559
69650SOL    HW110847   0.738   7.361   7.604
69650SOL    HW210848   0.880   7.332   7.559
69651SOL     OW10849  12.046  12.038   6.109
69651SOL    HW110850  12.032  11.974   6.179
69651SOL    HW210851  11.958  12.058   6.077
69652SOL     OW10852   9.598   4.050  12.507
69652SOL    HW110853   9.683   4.095  12.500
69652SOL    HW210854   9.578   4.050  12.600
69653SOL     OW10855  13.049   6.237   7.979
69653SOL    HW110856  12.989   6.310   7.992
69653SOL    HW210857  13.051   6.224   7.885
69654SOL     OW10858  13.830   9.826  12.062
69654SOL    HW110859  13.867   9.838  12.149
69654SOL    HW210860  13.846   9.733  12.042
69655SOL     OW10861   8.027  12.628   5.882
69655SOL    HW110862   7.988  12.714   5.870
69655SOL    HW210863   8.019  12.585   5.796
69656SOL     OW10864   9.555   0.625  14.277
69656SOL    HW110865   9.631   0.681  14.292
69656SOL    HW210866   9.568   0.592  14.188
69657SOL     OW10867   7.452   3.212  14.104
69657SOL    HW110868   7.433   3.126  14.065
69657SOL    HW210869   7.384   3.223  14.170
69658SOL     OW10870   9.470   3.394  14.566
69658SOL    HW110871   9.501   3.314  14.607
69658SOL    HW210872   9.544   3.455  14.574
69659SOL     OW10873   6.085  12.567   3.458
69659SOL    HW110874   6.134  12.542   3.536
69659SOL    HW210875   6.015  12.624   3.490
69660SOL     OW10876  11.189  13.497   3.021
69660SOL    HW110877  11.259  13.436   3.041
69660SOL    HW210878  11.224  13.583   3.046
69661SOL     OW10879   5.438   3.110   9.377
69661SOL    HW110880   5.370   3.147   9.321
69661SOL    HW210881   5.453   3.177   9.444
69662SOL     OW10882  13.220  12.864   8.520
69662SOL    HW110883  13.171  12.886   8.442
69662SOL    HW210884  13.153  12.837   8.584
69663SOL     OW10885  14.200  12.682   9.465
69663SOL    HW110886  14.248  12.661   9.385
69663SOL    HW210887  14.150  12.761   9.443
69664SOL     OW10888   3.168  11.046   6.392
69664SOL    HW110889   3.103  10.976   6.405
69664SOL    HW210890   3.125  11.125   6.425
69665SOL     OW10891   6.208   7.437  11.793
69665SOL    HW110892   6.190   7.396  11.708
69665SOL    HW210893   6.121   7.452  11.831
69666SOL     OW10894  11.779  13.507   0.577
69666SOL    HW110895  11.816  13.591   0.549
69666SOL    HW210896  11.812  13.493   0.665
69667SOL     OW10897  10.273   8.113  14.514
69667SOL    HW110898  10.347   8.075  14.467
69667SOL    HW210899  10.196   8.082  14.466
69668SOL     OW10900  11.978   8.541   9.337
69668SOL    HW110901  11.992   8.636   9.330
69668SOL    HW210902  11.972   8.511   9.247
69669SOL     OW10903   2.100   9.391   1.151
69669SOL    HW110904   2.038   9.421   1.084
69669SOL    HW210905   2.064   9.307   1.181
69670SOL     OW10906  14.023   5.079  14.062
69670SOL    HW110907  13.965   5.142  14.104
69670SOL    HW210908  13.973   4.998  14.059
69671SOL     OW10909   4.840   8.474  12.921
69671SOL    HW110910   4.772   8.468  12.989
69671SOL    HW210911   4.897   8.545  12.949
69672SOL     OW10912   2.417   2.678   1.490
69672SOL    HW110913   2.489   2.740   1.486
69672SOL    HW210914   2.458   2.593   1.476
69673SOL     OW10915   3.058   1.561   1.755
69673SOL    HW110916   3.142   1.573   1.800
69673SOL    HW210917   3.050   1.466   1.744
69674SOL     OW10918   3.805   7.228   5.251
69674SOL    HW110919   3.763   7.271   5.326
69674SOL    HW210920   3.748   7.247   5.177
69675SOL     OW10921   1.562   3.612  12.229
69675SOL    HW110922   1.570   3.548  12.299
69675SOL    HW210923   1.491   3.670  12.256
69676SOL     OW10924  11.978   0.923   8.353
69676SOL    HW110925  11.919   0.884   8.417
69676SOL    HW210926  12.036   0.979   8.405
69677SOL     OW10927  12.261  13.413   3.353
69677SOL    HW110928  12.262  13.442   3.444
69677SOL    HW210929  12.337  13.455   3.313
69678SOL     OW10930  12.978   3.063   7.822
69678SOL    HW110931  12.940   3.093   7.740
69678SOL    HW210932  13.072   3.052   7.803
69679SOL     OW10933   4.521  10.970  11.745
69679SOL    HW110934   4.615  10.982  11.738
69679SOL    HW210935   4.483  11.038  11.689
69680SOL     OW10936   9.206  10.895   8.144
69680SOL    HW110937   9.301  10.880   8.147
69680SOL    HW210938   9.196  10.977   8.097
69681SOL     OW10939   0.918  11.591  13.950
69681SOL    HW110940   0.956  11.640  13.877
69681SOL    HW210941   0.837  11.554  13.914
69682SOL     OW10942  12.298  14.132   5.064
69682SOL    HW110943  12.284  14.214   5.112
69682SOL    HW210944  12.230  14.073   5.095
69683SOL     OW10945   0.941   3.564   8.267
69683SOL    HW110946   0.947   3.587   8.174
69683SOL    HW210947   0.872   3.498   8.271
69684SOL     OW10948  10.328   5.426  10.551
69684SOL    HW110949  10.290   5.499  10.601
69684SOL    HW210950  10.304   5.348  10.600
69685SOL     OW10951   6.377  13.872   2.782
69685SOL    HW110952   6.295  13.907   2.748
69685SOL    HW210953   6.432  13.949   2.796
69686SOL     OW10954   4.412   1.695   6.111
69686SOL    HW110955   4.502   1.727   6.100
69686SOL    HW210956   4.359   1.749   6.053
69687SOL     OW10957   8.846   8.089   8.457
69687SOL    HW110958   8.941   8.083   8.463
69687SOL    HW210959   8.829   8.172   8.414
69688SOL     OW10960   7.127   0.951   6.128
69688SOL    HW110961   7.097   0.895   6.199
69688SOL    HW210962   7.222   0.937   6.124
69689SOL     OW10963  13.050   5.051   7.305
69689SOL    HW110964  13.016   5.050   7.394
69689SOL    HW210965  13.141   5.081   7.315
69690SOL     OW10966  12.920   8.762   8.093
69690SOL    HW110967  12.942   8.846   8.055
69690SOL    HW210968  12.976   8.699   8.047
69691SOL     OW10969   7.890  13.491   5.331
69691SOL    HW110970   7.976  13.488   5.372
69691SOL    HW210971   7.857  13.579   5.348
69692SOL     OW10972   6.777   3.803   1.163
69692SOL    HW110973   6.815   3.717   1.145
69692SOL    HW210974   6.683   3.790   1.155
69693SOL     OW10975  13.349  10.788   4.121
69693SOL    HW110976  13.323  10.761   4.209
69693SOL    HW210977  13.382  10.877   4.132
69694SOL     OW10978   9.052   6.461   6.669
69694SOL    HW110979   8.979   6.400   6.656
69694SOL    HW210980   9.021   6.543   6.632
69695SOL     OW10981  13.955   2.963  14.592
69695SOL    HW110982  13.980   3.011  14.514
69695SOL    HW210983  13.869   2.926  14.572
69696SOL     OW10984   0.384   3.834   0.409
69696SOL    HW110985   0.460   3.786   0.442
69696SOL    HW210986   0.345   3.874   0.486
69697SOL     OW10987   5.552   9.010   8.237
69697SOL    HW110988   5.531   9.067   8.163
69697SOL    HW210989   5.491   8.937   8.228
69698SOL     OW10990  13.141  13.418   8.316
69698SOL    HW110991  13.187  13.369   8.248
69698SOL    HW210992  13.154  13.366   8.396
69699SOL     OW10993  13.091   5.226   2.880
69699SOL    HW110994  13.108   5.321   2.873
69699SOL    HW210995  13.162   5.186   2.830
69700SOL     OW10996  10.140   4.217   9.473
69700SOL    HW110997  10.099   4.273   9.540
69700SOL    HW210998  10.093   4.134   9.478
69701SOL     OW10999   0.405   3.574  12.510
69701SOL    HW111000   0.477   3.578  12.447
69701SOL    HW211001   0.438   3.516  12.579
69702SOL     OW11002   6.591   6.614  11.153
69702SOL    HW111003   6.551   6.623  11.066
69702SOL    HW211004   6.637   6.530  11.149
69703SOL     OW11005  12.751  13.799   7.278
69703SOL    HW111006  12.767  13.764   7.190
69703SOL    HW211007  12.790  13.734   7.337
69704SOL     OW11008   3.575   0.119   7.472
69704SOL    HW111009   3.637   0.099   7.542
69704SOL    HW211010   3.516   0.044   7.470
69705SOL     OW11011   3.200   0.752   6.155
69705SOL    HW111012   3.284   0.726   6.115
69705SOL    HW211013   3.135   0.731   6.088
69706SOL     OW11014   4.706   7.391  13.027
69706SOL    HW111015   4.766   7.434  12.967
69706SOL    HW211016   4.751   7.310  13.052
69707SOL     OW11017   3.642   5.817  13.367
69707SOL    HW111018   3.714   5.862  13.411
69707SOL    HW211019   3.684   5.769  13.296
69708SOL     OW11020   8.273   2.665   6.467
69708SOL    HW111021   8.188   2.651   6.425
69708SOL    HW211022   8.255   2.656   6.561
69709SOL     OW11023   3.182  11.650  11.046
69709SOL    HW111024   3.098  11.629  11.087
69709SOL    HW211025   3.247  11.606  11.100
69710SOL     OW11026   1.690   5.100   5.874
69710SOL    HW111027   1.656   5.045   5.944
69710SOL    HW211028   1.621   5.165   5.859
69711SOL     OW11029   5.050   0.678  14.365
69711SOL    HW111030   5.096   0.613  14.417
69711SOL    HW211031   5.110   0.700  14.295
69712SOL     OW11032   8.330   2.248   9.963
69712SOL    HW111033   8.300   2.190   9.892
69712SOL    HW211034   8.257   2.307   9.980
69713SOL     OW11035   4.929  14.435   1.042
69713SOL    HW111036   5.012  14.438   1.088
69713SOL    HW211037   4.872  14.383   1.099
69714SOL     OW11038   3.794   4.659   7.620
69714SOL    HW111039   3.744   4.726   7.575
69714SOL    HW211040   3.737   4.630   7.691
69715SOL     OW11041   1.797  10.481  10.323
69715SOL    HW111042   1.724  10.511  10.269
69715SOL    HW211043   1.861  10.552  10.317
69716SOL     OW11044   3.013   2.237  12.535
69716SOL    HW111045   3.077   2.183  12.581
69716SOL    HW211046   3.030   2.326  12.565
69717SOL     OW11047   2.577   5.257   9.801
69717SOL    HW111048   2.549   5.256   9.710
69717SOL    HW211049   2.612   5.345   9.815
69718SOL     OW11050  11.597   3.319   4.762
69718SOL    HW111051  11.651   3.260   4.711
69718SOL    HW211052  11.508   3.307   4.728
69719SOL     OW11053   1.593   4.228  13.581
69719SOL    HW111054   1.631   4.192  13.501
69719SOL    HW211055   1.657   4.206  13.649
69720SOL     OW11056  10.742   6.949  11.792
69720SOL    HW111057  10.664   6.893  11.799
69720SOL    HW211058  10.736   7.008  11.867
69721SOL     OW11059   3.254   4.435   7.023
69721SOL    HW111060   3.273   4.382   6.945
69721SOL    HW211061   3.229   4.520   6.988
69722SOL     OW11062  12.526   7.122   6.988
69722SOL    HW111063  12.508   7.151   6.899
69722SOL    HW211064  12.589   7.050   6.977
69723SOL     OW11065   4.105   3.344   7.261
69723SOL    HW111066   4.048   3.339   7.339
69723SOL    HW211067   4.182   3.292   7.284
69724SOL     OW11068   8.010   1.477   5.619
69724SOL    HW111069   7.968   1.450   5.537
69724SOL    HW211070   8.099   1.443   5.613
69725SOL     OW11071   7.562  12.189  12.984
69725SOL    HW111072   7.651  12.163  12.960
69725SOL    HW211073   7.506  12.123  12.944
69726SOL     OW11074   2.238   6.658  10.514
69726SOL    HW111075   2.299   6.714  10.562
69726SOL    HW211076   2.224   6.704  10.431
69727SOL     OW11077   2.328   6.439   4.226
69727SOL    HW111078   2.413   6.459   4.266
69727SOL    HW211079   2.295   6.365   4.278
69728SOL     OW11080   3.421   9.320   6.976
69728SOL    HW111081   3.445   9.297   6.886
69728SOL    HW211082   3.467   9.403   6.993
69729SOL     OW11083   8.180   3.888   8.494
69729SOL    HW111084   8.218   3.800   8.500
69729SOL    HW211085   8.116   3.892   8.566
69730SOL     OW11086  11.166   4.358   5.354
69730SOL    HW111087  11.224   4.339   5.428
69730SOL    HW211088  11.224   4.375   5.281
69731SOL     OW11089   8.306   5.639   9.613
69731SOL    HW111090   8.380   5.690   9.581
69731SOL    HW211091   8.312   5.646   9.709
69732SOL     OW11092   5.654   4.341  13.138
69732SOL    HW111093   5.665   4.378  13.050
69732SOL    HW211094   5.687   4.409  13.197
69733SOL     OW11095   8.194   1.319  12.640
69733SOL    HW111096   8.155   1.399  12.604
69733SOL    HW211097   8.200   1.260  12.565
69734SOL     OW11098   3.698   3.686   6.325
69734SOL    HW111099   3.699   3.751   6.255
69734SOL    HW211100   3.739   3.730   6.400
69735SOL     OW11101   4.775   7.595  12.478
69735SOL    HW111102   4.740   7.665  12.533
69735SOL    HW211103   4.831   7.544  12.537
69736SOL     OW11104  12.294   3.027   3.278
69736SOL    HW111105  12.317   3.095   3.215
69736SOL    HW211106  12.296   2.946   3.226
69737SOL     OW11107   5.407  11.533   8.617
69737SOL    HW111108   5.443  11.478   8.547
69737SOL    HW211109   5.315  11.507   8.623
69738SOL     OW11110  13.741   0.718   8.882
69738SOL    HW111111  13.716   0.807   8.905
69738SOL    HW211112  13.791   0.728   8.800
69739SOL     OW11113   1.215  14.407   1.355
69739SOL    HW111114   1.230  14.501   1.359
69739SOL    HW211115   1.199  14.388   1.263
69740SOL     OW11116  13.716   0.202   3.388
69740SOL    HW111117  13.751   0.231   3.304
69740SOL    HW211118  13.663   0.125   3.366
69741SOL     OW11119   4.454   7.072   3.183
69741SOL    HW111120   4.527   7.097   3.127
69741SOL    HW211121   4.478   7.103   3.270
69742SOL     OW11122  13.635   9.330  12.899
69742SOL    HW111123  13.685   9.409  12.920
69742SOL    HW211124  13.702   9.261  12.890
69743SOL     OW11125  10.379  12.058   7.021
69743SOL    HW111126  10.390  11.965   7.043
69743SOL    HW211127  10.468  12.093   7.019
69744SOL     OW11128   2.847  11.357   9.610
69744SOL    HW111129   2.810  11.440   9.640
69744SOL    HW211130   2.889  11.378   9.526
69745SOL     OW11131  11.550   6.031   8.052
69745SOL    HW111132  11.567   6.094   7.982
69745SOL    HW211133  11.521   5.952   8.006
69746SOL     OW11134   8.433   8.200   8.112
69746SOL    HW111135   8.362   8.144   8.080
69746SOL    HW211136   8.473   8.150   8.184
69747SOL     OW11137   0.885   6.502   1.785
69747SOL    HW111138   0.892   6.558   1.708
69747SOL    HW211139   0.811   6.443   1.765
69748SOL     OW11140   2.459   6.404   5.610
69748SOL    HW111141   2.470   6.316   5.646
69748SOL    HW211142   2.441   6.389   5.517
69749SOL     OW11143  11.984  12.080  11.256
69749SOL    HW111144  11.970  11.988  11.277
69749SOL    HW211145  12.076  12.086  11.233
69750SOL     OW11146  11.542   9.799  13.215
69750SOL    HW111147  11.607   9.838  13.273
69750SOL    HW211148  11.583   9.799  13.129
69751SOL     OW11149  13.765   3.620  10.923
69751SOL    HW111150  13.740   3.616  11.015
69751SOL    HW211151  13.860   3.635  10.925
69752SOL     OW11152   3.160   9.047  14.320
69752SOL    HW111153   3.254   9.058  14.335
69752SOL    HW211154   3.144   8.954  14.334
69753SOL     OW11155  12.591   6.154   0.469
69753SOL    HW111156  12.533   6.208   0.524
69753SOL    HW211157  12.537   6.079   0.446
69754SOL     OW11158  10.748   2.977  13.998
69754SOL    HW111159  10.771   3.044  13.933
69754SOL    HW211160  10.658   2.997  14.022
69755SOL     OW11161  14.781   4.118   7.081
69755SOL    HW111162  14.817   4.060   7.013
69755SOL    HW211163  14.765   4.060   7.155
69756SOL     OW11164  12.733   4.868   2.296
69756SOL    HW111165  12.796   4.825   2.355
69756SOL    HW211166  12.681   4.795   2.261
69757SOL     OW11167   2.438  13.781  12.400
69757SOL    HW111168   2.418  13.863  12.445
69757SOL    HW211169   2.532  13.788  12.379
69758SOL     OW11170  13.065  12.243  12.434
69758SOL    HW111171  13.041  12.221  12.524
69758SOL    HW211172  12.991  12.212  12.381
69759SOL     OW11173   7.597   5.708   9.692
69759SOL    HW111174   7.504   5.697   9.709
69759SOL    HW211175   7.601   5.759   9.612
69760SOL     OW11176  11.046  12.169  10.638
69760SOL    HW111177  11.033  12.132  10.725
69760SOL    HW211178  11.013  12.258  10.645
69761SOL     OW11179   7.065  10.142   6.424
69761SOL    HW111180   7.124  10.104   6.359
69761SOL    HW211181   7.082  10.092   6.504
69762SOL     OW11182   3.926  13.536   1.863
69762SOL    HW111183   3.846  13.588   1.873
69762SOL    HW211184   3.994  13.589   1.905
69763SOL     OW11185  11.439  11.291  13.829
69763SOL    HW111186  11.355  11.319  13.864
69763SOL    HW211187  11.460  11.211  13.877
69764SOL     OW11188   2.234   3.305  14.781
69764SOL    HW111189   2.148   3.336  14.808
69764SOL    HW211190   2.221   3.212  14.762
69765SOL     OW11191   8.238   1.243  13.485
69765SOL    HW111192   8.313   1.288  13.447
69765SOL    HW211193   8.261   1.151  13.482
69766SOL     OW11194  13.048   0.446   4.601
69766SOL    HW111195  13.014   0.464   4.513
69766SOL    HW211196  13.036   0.352   4.612
69767SOL     OW11197   5.305   1.546   4.814
69767SOL    HW111198   5.315   1.469   4.759
69767SOL    HW211199   5.334   1.619   4.759
69768SOL     OW11200   7.688  12.280   8.011
69768SOL    HW111201   7.721  12.366   8.036
69768SOL    HW211202   7.623  12.258   8.077
69769SOL     OW11203   0.201  10.191  12.575
69769SOL    HW111204   0.295  10.189  12.558
69769SOL    HW211205   0.186  10.277  12.616
69770SOL     OW11206  13.874   9.730  10.363
69770SOL    HW111207  13.944   9.710  10.426
69770SOL    HW211208  13.813   9.656  10.371
69771SOL     OW11209   8.951  13.657   9.274
69771SOL    HW111210   8.982  13.596   9.340
69771SOL    HW211211   9.003  13.637   9.196
69772SOL     OW11212   6.813  13.360   8.716
69772SOL    HW111213   6.834  13.366   8.809
69772SOL    HW211214   6.719  13.377   8.711
69773SOL     OW11215  12.510   6.651   9.556
69773SOL    HW111216  12.514   6.637   9.461
69773SOL    HW211217  12.430   6.701   9.569
69774SOL     OW11218   2.867   0.027   8.776
69774SOL    HW111219   2.923  14.837   8.769
69774SOL    HW211220   2.919   0.091   8.824
69775SOL     OW11221   6.428  10.033   7.927
69775SOL    HW111222   6.336  10.049   7.949
69775SOL    HW211223   6.464  10.119   7.908
69776SOL     OW11224   8.113   9.121  10.833
69776SOL    HW111225   8.063   9.201  10.850
69776SOL    HW211226   8.199   9.138  10.870
69777SOL     OW11227   0.021  10.440   5.334
69777SOL    HW111228   0.041  10.499   5.261
69777SOL    HW211229   0.043  10.353   5.301
69778SOL     OW11230   7.077   3.264  12.635
69778SOL    HW111231   7.015   3.257  12.563
69778SOL    HW211232   7.025   3.244  12.713
69779SOL     OW11233   1.451   4.813   1.992
69779SOL    HW111234   1.546   4.810   2.000
69779SOL    HW211235   1.419   4.755   2.061
69780SOL     OW11236   7.565   1.467   9.341
69780SOL    HW111237   7.522   1.509   9.266
69780SOL    HW211238   7.596   1.383   9.307
69781SOL     OW11239   0.332   8.910   4.147
69781SOL    HW111240   0.303   8.849   4.078
69781SOL    HW211241   0.427   8.899   4.150
69782SOL     OW11242  14.825   9.441   2.139
69782SOL    HW111243  14.739   9.427   2.100
69782SOL    HW211244  14.851   9.356   2.173
69783SOL     OW11245   8.095   3.985   2.251
69783SOL    HW111246   8.124   3.974   2.161
69783SOL    HW211247   8.159   4.044   2.291
69784SOL     OW11248   7.208  10.356   9.902
69784SOL    HW111249   7.288  10.308   9.923
69784SOL    HW211250   7.160  10.360   9.984
69785SOL     OW11251  12.890   9.725  13.009
69785SOL    HW111252  12.886   9.631  13.026
69785SOL    HW211253  12.807   9.760  13.043
69786SOL     OW11254  13.006  13.796   9.062
69786SOL    HW111255  13.090  13.836   9.087
69786SOL    HW211256  12.972  13.759   9.143
69787SOL     OW11257   7.248   1.104  14.575
69787SOL    HW111258   7.179   1.107  14.509
69787SOL    HW211259   7.203   1.096  14.658
69788SOL     OW11260   8.572   2.326   2.849
69788SOL    HW111261   8.655   2.316   2.802
69788SOL    HW211262   8.579   2.410   2.894
69789SOL     OW11263   2.817   4.370  11.782
69789SOL    HW111264   2.737   4.372  11.835
69789SOL    HW211265   2.873   4.306  11.825
69790SOL     OW11266  12.176   5.549  10.690
69790SOL    HW111267  12.143   5.638  10.689
69790SOL    HW211268  12.098   5.494  10.683
69791SOL     OW11269   1.143  11.741  14.426
69791SOL    HW111270   1.127  11.813  14.487
69791SOL    HW211271   1.228  11.760  14.387
69792SOL     OW11272   8.035   5.449   9.778
69792SOL    HW111273   8.041   5.544   9.771
69792SOL    HW211274   8.051   5.430   9.870
69793SOL     OW11275   6.063   5.151  11.817
69793SOL    HW111276   6.030   5.241  11.823
69793SOL    HW211277   6.156   5.160  11.799
69794SOL     OW11278   1.565   6.207   0.385
69794SOL    HW111279   1.480   6.165   0.393
69794SOL    HW211280   1.600   6.209   0.474
69795SOL     OW11281  14.701   5.500   4.133
69795SOL    HW111282  14.616   5.468   4.162
69795SOL    HW211283  14.750   5.517   4.213
69796SOL     OW11284   6.420  13.808   3.937
69796SOL    HW111285   6.438  13.842   4.024
69796SOL    HW211286   6.443  13.715   3.943
69797SOL     OW11287   2.084   7.779   8.767
69797SOL    HW111288   2.104   7.831   8.844
69797SOL    HW211289   2.166   7.732   8.748
69798SOL     OW11290   1.346  12.626   5.299
69798SOL    HW111291   1.292  12.701   5.321
69798SOL    HW211292   1.409  12.659   5.235
69799SOL     OW11293  10.107  12.186   1.808
69799SOL    HW111294  10.099  12.092   1.792
69799SOL    HW211295  10.058  12.227   1.737
69800SOL     OW11296   0.567   5.640   6.724
69800SOL    HW111297   0.584   5.656   6.817
69800SOL    HW211298   0.491   5.695   6.704
69801SOL     OW11299   3.709   5.594   8.781
69801SOL    HW111300   3.756   5.657   8.836
69801SOL    HW211301   3.692   5.520   8.839
69802SOL     OW11302   5.176   8.850   7.034
69802SOL    HW111303   5.167   8.897   6.951
69802SOL    HW211304   5.264   8.874   7.066
69803SOL     OW11305   5.567   9.819   4.856
69803SOL    HW111306   5.622   9.807   4.934
69803SOL    HW211307   5.612   9.771   4.787
69804SOL     OW11308  14.374   9.247  10.980
69804SOL    HW111309  14.431   9.234  11.056
69804SOL    HW211310  14.345   9.159  10.957
69805SOL     OW11311   3.822   7.469   8.930
69805SOL    HW111312   3.844   7.485   8.838
69805SOL    HW211313   3.744   7.414   8.927
69806SOL     OW11314   7.457  11.911   1.573
69806SOL    HW111315   7.464  11.815   1.570
69806SOL    HW211316   7.516  11.936   1.645
69807SOL     OW11317  11.498  11.674  13.008
69807SOL    HW111318  11.580  11.626  13.004
69807SOL    HW211319  11.431  11.608  12.992
69808SOL     OW11320  10.671  11.729   1.843
69808SOL    HW111321  10.670  11.648   1.893
69808SOL    HW211322  10.613  11.788   1.890
69809SOL     OW11323   3.166   1.061   5.611
69809SOL    HW111324   3.194   1.146   5.579
69809SOL    HW211325   3.169   1.004   5.535
69810SOL     OW11326   7.214   8.477   6.401
69810SOL    HW111327   7.219   8.541   6.330
69810SOL    HW211328   7.287   8.500   6.459
69811SOL     OW11329   7.344   3.138   9.331
69811SOL    HW111330   7.273   3.186   9.289
69811SOL    HW211331   7.309   3.050   9.343
69812SOL     OW11332  11.159  14.701   4.083
69812SOL    HW111333  11.181  14.752   4.005
69812SOL    HW211334  11.178  14.610   4.059
69813SOL     OW11335   6.555  10.418  12.047
69813SOL    HW111336   6.597  10.340  12.010
69813SOL    HW211337   6.505  10.455  11.974
69814SOL     OW11338   0.199   6.146   5.968
69814SOL    HW111339   0.181   6.187   5.884
69814SOL    HW211340   0.113   6.120   6.001
69815SOL     OW11341   1.914   3.462   3.051
69815SOL    HW111342   1.883   3.376   3.080
69815SOL    HW211343   1.890   3.521   3.122
69816SOL     OW11344   4.427   2.710   4.416
69816SOL    HW111345   4.486   2.785   4.405
69816SOL    HW211346   4.376   2.732   4.494
69817SOL     OW11347   2.174   9.363   5.785
69817SOL    HW111348   2.126   9.386   5.864
69817SOL    HW211349   2.135   9.417   5.716
69818SOL     OW11350  10.452   0.943   4.628
69818SOL    HW111351  10.468   0.909   4.716
69818SOL    HW211352  10.529   0.918   4.578
69819SOL     OW11353   3.989  12.633  10.573
69819SOL    HW111354   4.030  12.654  10.657
69819SOL    HW211355   4.005  12.539  10.561
69820SOL     OW11356   0.196  12.702   6.737
69820SOL    HW111357   0.147  12.754   6.673
69820SOL    HW211358   0.246  12.766   6.787
69821SOL     OW11359   8.042  12.719   2.525
69821SOL    HW111360   7.985  12.717   2.601
69821SOL    HW211361   8.035  12.809   2.492
69822SOL     OW11362   2.132   2.575   5.023
69822SOL    HW111363   2.133   2.670   5.032
69822SOL    HW211364   2.087   2.559   4.941
69823SOL     OW11365   9.911   0.267  12.989
69823SOL    HW111366   9.900   0.186  13.039
69823SOL    HW211367  10.005   0.270  12.969
69824SOL     OW11368  10.050   5.946  14.871
69824SOL    HW111369  10.119   5.930   0.048
69824SOL    HW211370   9.972   5.963   0.037
69825SOL     OW11371  11.338   7.869  12.358
69825SOL    HW111372  11.400   7.825  12.299
69825SOL    HW211373  11.271   7.803  12.376
69826SOL     OW11374   3.413   5.884   1.585
69826SOL    HW111375   3.447   5.800   1.555
69826SOL    HW211376   3.424   5.942   1.510
69827SOL     OW11377   8.213  12.407  10.655
69827SOL    HW111378   8.167  12.484  10.689
69827SOL    HW211379   8.291  12.443  10.613
69828SOL     OW11380   4.505   8.749   9.365
69828SOL    HW111381   4.558   8.697   9.426
69828SOL    HW211382   4.418   8.709   9.370
69829SOL     OW11383  11.472   0.667   9.249
69829SOL    HW111384  11.546   0.718   9.283
69829SOL    HW211385  11.396   0.704   9.293
69830SOL     OW11386  13.620   8.143  11.015
69830SOL    HW111387  13.528   8.121  11.029
69830SOL    HW211388  13.645   8.193  11.093
69831SOL     OW11389   7.229   3.652   7.062
69831SOL    HW111390   7.180   3.589   7.010
69831SOL    HW211391   7.316   3.653   7.022
69832SOL     OW11392   1.014   2.924   3.525
69832SOL    HW111393   0.926   2.916   3.560
69832SOL    HW211394   1.038   3.016   3.540
69833SOL     OW11395   8.772   2.246  11.032
69833SOL    HW111396   8.679   2.223  11.024
69833SOL    HW211397   8.776   2.303  11.109
69834SOL     OW11398   3.554   7.670  10.708
69834SOL    HW111399   3.497   7.728  10.657
69834SOL    HW211400   3.617   7.638  10.644
69835SOL     OW11401   5.364   0.192  12.043
69835SOL    HW111402   5.445   0.201  11.992
69835SOL    HW211403   5.390   0.211  12.133
69836SOL     OW11404  13.669   9.117   1.611
69836SOL    HW111405  13.757   9.100   1.644
69836SOL    HW211406  13.618   9.040   1.637
69837SOL     OW11407   2.105   6.003   8.364
69837SOL    HW111408   2.119   5.928   8.306
69837SOL    HW211409   2.167   5.989   8.436
69838SOL     OW11410  11.507  13.560   7.365
69838SOL    HW111411  11.564  13.631   7.336
69838SOL    HW211412  11.437  13.557   7.299
69839SOL     OW11413   8.672   0.500  12.921
69839SOL    HW111414   8.659   0.593  12.903
69839SOL    HW211415   8.732   0.470  12.852
69840SOL     OW11416   9.480   7.717  12.364
69840SOL    HW111417   9.402   7.730  12.311
69840SOL    HW211418   9.553   7.738  12.306
69841SOL     OW11419  11.380   3.137   6.851
69841SOL    HW111420  11.440   3.199   6.894
69841SOL    HW211421  11.336   3.189   6.784
69842SOL     OW11422   7.596   3.062  14.364
69842SOL    HW111423   7.569   3.090  14.277
69842SOL    HW211424   7.592   2.967  14.361
69843SOL     OW11425   1.173   0.031   6.415
69843SOL    HW111426   1.225   0.031   6.335
69843SOL    HW211427   1.219   0.091   6.474
69844SOL     OW11428   3.498  10.633  10.314
69844SOL    HW111429   3.486  10.728  10.304
69844SOL    HW211430   3.421  10.605  10.365
69845SOL     OW11431  11.521   1.365   7.488
69845SOL    HW111432  11.584   1.393   7.554
69845SOL    HW211433  11.442   1.346   7.538
69846SOL     OW11434  14.062   3.887   8.923
69846SOL    HW111435  13.987   3.944   8.910
69846SOL    HW211436  14.138   3.941   8.902
69847SOL     OW11437   3.425  12.683   6.705
69847SOL    HW111438   3.391  12.719   6.787
69847SOL    HW211439   3.517  12.711   6.703
69848SOL     OW11440   1.685   9.699   5.200
69848SOL    HW111441   1.776   9.707   5.230
69848SOL    HW211442   1.633   9.736   5.271
69849SOL     OW11443   7.093   1.420   3.967
69849SOL    HW111444   7.024   1.466   3.920
69849SOL    HW211445   7.049   1.347   4.010
69850SOL     OW11446   1.463   0.940  11.025
69850SOL    HW111447   1.496   0.972  10.941
69850SOL    HW211448   1.458   0.845  11.015
69851SOL     OW11449   0.896   8.432   5.184
69851SOL    HW111450   0.975   8.485   5.177
69851SOL    HW211451   0.905   8.365   5.116
69852SOL     OW11452   4.353  14.243   0.317
69852SOL    HW111453   4.434  14.203   0.349
69852SOL    HW211454   4.285  14.180   0.340
69853SOL     OW11455   1.987   9.846   6.838
69853SOL    HW111456   2.025   9.762   6.865
69853SOL    HW211457   1.964   9.889   6.921
69854SOL     OW11458   4.315   5.673   8.568
69854SOL    HW111459   4.314   5.723   8.486
69854SOL    HW211460   4.271   5.591   8.546
69855SOL     OW11461   4.061   5.549   8.809
69855SOL    HW111462   4.153   5.549   8.834
69855SOL    HW211463   4.026   5.630   8.845
69856SOL     OW11464   3.821   5.027   3.689
69856SOL    HW111465   3.839   5.064   3.775
69856SOL    HW211466   3.726   5.014   3.688
69857SOL     OW11467   4.024   6.178  13.638
69857SOL    HW111468   4.013   6.268  13.669
69857SOL    HW211469   4.075   6.187  13.558
69858SOL     OW11470  10.729   8.692   9.813
69858SOL    HW111471  10.717   8.761   9.748
69858SOL    HW211472  10.680   8.722   9.890
69859SOL     OW11473  13.829   9.316  10.723
69859SOL    HW111474  13.883   9.393  10.744
69859SOL    HW211475  13.833   9.262  10.801
69860SOL     OW11476  11.899  13.796   2.984
69860SOL    HW111477  11.922  13.877   3.031
69860SOL    HW211478  11.870  13.736   3.052
69861SOL     OW11479   1.247   7.393   4.867
69861SOL    HW111480   1.207   7.365   4.949
69861SOL    HW211481   1.300   7.318   4.839
69862SOL     OW11482   1.961   9.485  10.565
69862SOL    HW111483   1.912   9.462  10.486
69862SOL    HW211484   1.926   9.570  10.590
69863SOL     OW11485   0.802   0.157   1.438
69863SOL    HW111486   0.838   0.108   1.364
69863SOL    HW211487   0.813   0.099   1.513
69864SOL     OW11488   9.101   2.033   5.678
69864SOL    HW111489   9.183   1.994   5.707
69864SOL    HW211490   9.051   1.960   5.640
69865SOL     OW11491   8.261   1.160   2.082
69865SOL    HW111492   8.214   1.090   2.037
69865SOL    HW211493   8.265   1.231   2.018
69866SOL     OW11494  14.367   2.027  10.389
69866SOL    HW111495  14.441   1.970  10.411
69866SOL    HW211496  14.334   1.994  10.306
69867SOL     OW11497   7.922   6.185  10.079
69867SOL    HW111498   7.845   6.159  10.129
69867SOL    HW211499   7.947   6.107  10.030
69868SOL     OW11500  12.505   1.644   5.800
69868SOL    HW111501  12.465   1.731   5.800
69868SOL    HW211502  12.431   1.584   5.810
69869SOL     OW11503   9.322   4.164   8.001
69869SOL    HW111504   9.253   4.152   7.936
69869SOL    HW211505   9.364   4.078   8.009
69870SOL     OW11506   6.453  13.996  13.796
69870SOL    HW111507   6.421  14.074  13.840
69870SOL    HW211508   6.435  13.925  13.857
69871SOL     OW11509   7.627   2.593   6.150
69871SOL    HW111510   7.657   2.539   6.224
69871SOL    HW211511   7.536   2.566   6.137
69872SOL     OW11512   0.517   8.412  13.647
69872SOL    HW111513   0.569   8.402  13.727
69872SOL    HW211514   0.579   8.404  13.575
69873SOL     OW11515  10.487   0.567   9.401
69873SOL    HW111516  10.514   0.658   9.389
69873SOL    HW211517  10.517   0.523   9.321
69874SOL     OW11518   3.472   7.039   3.129
69874SOL    HW111519   3.505   6.950   3.117
69874SOL    HW211520   3.429   7.060   3.046
69875SOL     OW11521   5.027  13.824  13.750
69875SOL    HW111522   5.109  13.872  13.758
69875SOL    HW211523   5.049  13.745  13.702
69876SOL     OW11524   3.469   2.575   9.724
69876SOL    HW111525   3.473   2.530   9.640
69876SOL    HW211526   3.517   2.518   9.784
69877SOL     OW11527   8.392  14.453  10.488
69877SOL    HW111528   8.443  14.523  10.447
69877SOL    HW211529   8.356  14.404  10.414
69878SOL     OW11530   9.742   9.999  12.091
69878SOL    HW111531   9.755  10.089  12.120
69878SOL    HW211532   9.672  10.005  12.026
69879SOL     OW11533  10.137   3.376   6.461
69879SOL    HW111534  10.193   3.339   6.529
69879SOL    HW211535  10.126   3.468   6.487
69880SOL     OW11536   1.984  10.511  11.180
69880SOL    HW111537   1.921  10.573  11.218
69880SOL    HW211538   2.055  10.567  11.148
69881SOL     OW11539  10.201  14.754   5.018
69881SOL    HW111540  10.239  14.803   4.945
69881SOL    HW211541  10.152  14.683   4.976
69882SOL     OW11542   8.377   5.187   6.740
69882SOL    HW111543   8.458   5.139   6.757
69882SOL    HW211544   8.396   5.241   6.664
69883SOL     OW11545  12.347   7.235   2.371
69883SOL    HW111546  12.265   7.204   2.332
69883SOL    HW211547  12.345   7.330   2.360
69884SOL     OW11548  14.468  13.272   6.553
69884SOL    HW111549  14.536  13.218   6.594
69884SOL    HW211550  14.433  13.218   6.483
69885SOL     OW11551  10.095  13.241   2.480
69885SOL    HW111552  10.012  13.262   2.523
69885SOL    HW211553  10.157  13.232   2.552
69886SOL     OW11554  10.200   3.585   3.007
69886SOL    HW111555  10.114   3.555   3.036
69886SOL    HW211556  10.181   3.652   2.941
69887SOL     OW11557  13.291   9.328  12.219
69887SOL    HW111558  13.208   9.365  12.249
69887SOL    HW211559  13.323   9.277  12.293
69888SOL     OW11560   0.335   6.774   0.846
69888SOL    HW111561   0.425   6.775   0.879
69888SOL    HW211562   0.321   6.684   0.817
69889SOL     OW11563   8.803   1.399   9.764
69889SOL    HW111564   8.720   1.353   9.763
69889SOL    HW211565   8.863   1.341   9.811
69890SOL     OW11566  12.442   7.212   0.220
69890SOL    HW111567  12.415   7.120   0.212
69890SOL    HW211568  12.535   7.211   0.199
69891SOL     OW11569   6.392   2.304  11.947
69891SOL    HW111570   6.336   2.379  11.926
69891SOL    HW211571   6.335   2.228  11.938
69892SOL     OW11572  13.540   1.942   8.284
69892SOL    HW111573  13.492   1.968   8.362
69892SOL    HW211574  13.625   1.984   8.293
69893SOL     OW11575   2.709  14.389   0.673
69893SOL    HW111576   2.700  14.390   0.578
69893SOL    HW211577   2.643  14.327   0.703
69894SOL     OW11578  14.745   9.638  11.939
69894SOL    HW111579  14.813   9.675  11.884
69894SOL    HW211580  14.663   9.672  11.903
69895SOL     OW11581  13.928  11.488  12.593
69895SOL    HW111582  13.868  11.416  12.572
69895SOL    HW211583  13.875  11.567  12.585
69896SOL     OW11584  11.977   7.614  10.514
69896SOL    HW111585  11.897   7.561  10.514
69896SOL    HW211586  12.024   7.585  10.436
69897SOL     OW11587   5.818  11.682  14.720
69897SOL    HW111588   5.821  11.777  14.731
69897SOL    HW211589   5.846  11.668  14.629
69898SOL     OW11590  10.800   5.333  14.330
69898SOL    HW111591  10.730   5.273  14.358
69898SOL    HW211592  10.863   5.331  14.403
69899SOL     OW11593   8.739   8.317  13.150
69899SOL    HW111594   8.766   8.406  13.128
69899SOL    HW211595   8.766   8.265  13.074
69900SOL     OW11596   0.393   4.342   3.181
69900SOL    HW111597   0.350   4.426   3.169
69900SOL    HW211598   0.342   4.298   3.249
69901SOL     OW11599   6.505  12.588   1.329
69901SOL    HW111600   6.546  12.601   1.415
69901SOL    HW211601   6.484  12.676   1.299
69902SOL     OW11602   4.377   0.348   9.950
69902SOL    HW111603   4.349   0.368   9.861
69902SOL    HW211604   4.304   0.376  10.005
69903SOL     OW11605  14.023   5.896   9.670
69903SOL    HW111606  14.023   5.961   9.600
69903SOL    HW211607  13.972   5.935   9.740
69904SOL     OW11608   6.118   5.897  13.969
69904SOL    HW111609   6.031   5.903  14.009
69904SOL    HW211610   6.166   5.837  14.026
69905SOL     OW11611   0.649   1.243  10.251
69905SOL    HW111612   0.704   1.191  10.310
69905SOL    HW211613   0.633   1.184  10.177
69906SOL     OW11614   9.799   5.954   0.144
69906SOL    HW111615   9.787   6.027   0.205
69906SOL    HW211616   9.809   5.877   0.200
69907SOL     OW11617   8.806   1.325   0.088
69907SOL    HW111618   8.877   1.386   0.107
69907SOL    HW211619   8.815   1.256   0.153
69908SOL     OW11620   7.460   0.861   8.344
69908SOL    HW111621   7.368   0.854   8.369
69908SOL    HW211622   7.472   0.953   8.321
69909SOL     OW11623  14.164   2.794  12.761
69909SOL    HW111624  14.177   2.759  12.672
69909SOL    HW211625  14.251   2.790  12.800
69910SOL     OW11626   7.595   7.003   4.629
69910SOL    HW111627   7.643   7.012   4.711
69910SOL    HW211628   7.533   7.076   4.629
69911SOL     OW11629  14.616   3.383   3.307
69911SOL    HW111630  14.530   3.356   3.341
69911SOL    HW211631  14.603   3.473   3.278
69912SOL     OW11632   4.886   8.707   7.245
69912SOL    HW111633   4.837   8.668   7.317
69912SOL    HW211634   4.821   8.719   7.176
69913SOL     OW11635   6.281   9.975   5.469
69913SOL    HW111636   6.353   9.941   5.521
69913SOL    HW211637   6.209   9.914   5.484
69914SOL     OW11638   9.594   6.117   1.768
69914SOL    HW111639   9.658   6.089   1.833
69914SOL    HW211640   9.517   6.063   1.785
69915SOL     OW11641  13.540  13.261   1.997
69915SOL    HW111642  13.605  13.247   2.066
69915SOL    HW211643  13.542  13.181   1.945
69916SOL     OW11644  13.137   4.676   4.341
69916SOL    HW111645  13.192   4.640   4.410
69916SOL    HW211646  13.199   4.713   4.278
69917SOL     OW11647   4.341  13.807   1.472
69917SOL    HW111648   4.354  13.868   1.545
69917SOL    HW211649   4.379  13.724   1.503
69918SOL     OW11650  13.818   3.837   3.801
69918SOL    HW111651  13.880   3.895   3.846
69918SOL    HW211652  13.735   3.850   3.848
69919SOL     OW11653   5.628   8.627   3.551
69919SOL    HW111654   5.590   8.689   3.613
69919SOL    HW211655   5.613   8.667   3.465
69920SOL     OW11656   3.882   2.683   1.283
69920SOL    HW111657   3.955   2.703   1.340
69920SOL    HW211658   3.912   2.609   1.230
69921SOL     OW11659   1.264  12.506  11.095
69921SOL    HW111660   1.294  12.416  11.088
69921SOL    HW211661   1.200  12.505  11.166
69922SOL     OW11662   1.551  14.747   0.597
69922SOL    HW111663   1.525  14.833   0.564
69922SOL    HW211664   1.578  14.764   0.688
69923SOL     OW11665  13.812   0.363   1.771
69923SOL    HW111666  13.846   0.325   1.852
69923SOL    HW211667  13.799   0.456   1.792
69924SOL     OW11668   9.939   1.374   8.288
69924SOL    HW111669   9.939   1.373   8.192
69924SOL    HW211670   9.935   1.282   8.313
69925SOL     OW11671   4.244  10.124   9.039
69925SOL    HW111672   4.180  10.145   8.971
69925SOL    HW211673   4.255  10.206   9.088
69926SOL     OW11674   3.492   4.762   1.478
69926SOL    HW111675   3.399   4.779   1.496
69926SOL    HW211676   3.493   4.673   1.442
69927SOL     OW11677  11.812  10.442   5.693
69927SOL    HW111678  11.753  10.517   5.691
69927SOL    HW211679  11.801  10.405   5.780
69928SOL     OW11680  10.186   6.104   5.059
69928SOL    HW111681  10.270   6.062   5.043
69928SOL    HW211682  10.207   6.183   5.108
69929SOL     OW11683  14.144  11.304   0.287
69929SOL    HW111684  14.049  11.300   0.294
69929SOL    HW211685  14.173  11.329   0.374
69930SOL     OW11686   6.002  13.557   5.090
69930SOL    HW111687   6.023  13.637   5.041
69930SOL    HW211688   6.087  13.518   5.110
69931SOL     OW11689   7.265  10.882   8.330
69931SOL    HW111690   7.272  10.977   8.338
69931SOL    HW211691   7.177  10.862   8.364
69932SOL     OW11692   6.593   8.027  14.712
69932SOL    HW111693   6.506   8.021  14.751
69932SOL    HW211694   6.576   8.032  14.618
69933SOL     OW11695   4.855   9.336  12.337
69933SOL    HW111696   4.919   9.337  12.408
69933SOL    HW211697   4.845   9.244  12.315
69934SOL     OW11698  14.459  12.317  10.224
69934SOL    HW111699  14.379  12.345  10.180
69934SOL    HW211700  14.437  12.317  10.317
69935SOL     OW11701  12.214   8.385   2.637
69935SOL    HW111702  12.149   8.454   2.629
69935SOL    HW211703  12.226   8.374   2.732
69936SOL     OW11704   0.746   7.442   1.833
69936SOL    HW111705   0.779   7.364   1.787
69936SOL    HW211706   0.732   7.413   1.923
69937SOL     OW11707   3.708   0.844   0.831
69937SOL    HW111708   3.753   0.768   0.868
69937SOL    HW211709   3.733   0.845   0.739
69938SOL     OW11710   4.925   7.598   9.692
69938SOL    HW111711   4.861   7.565   9.629
69938SOL    HW211712   4.998   7.629   9.638
69939SOL     OW11713  10.957   2.899  11.545
69939SOL    HW111714  10.887   2.963  11.558
69939SOL    HW211715  10.932   2.825  11.601
69940SOL     OW11716   5.533   4.509   4.187
69940SOL    HW111717   5.552   4.527   4.279
69940SOL    HW211718   5.518   4.595   4.149
69941SOL     OW11719  11.566  12.100   6.585
69941SOL    HW111720  11.658  12.120   6.596
69941SOL    HW211721  11.548  12.031   6.650
69942SOL     OW11722  11.215   0.482  12.696
69942SOL    HW111723  11.172   0.485  12.781
69942SOL    HW211724  11.299   0.441  12.713
69943SOL     OW11725   2.641   6.574   0.237
69943SOL    HW111726   2.546   6.581   0.251
69943SOL    HW211727   2.663   6.652   0.186
69944SOL     OW11728   7.510   4.749  11.537
69944SOL    HW111729   7.571   4.815  11.503
69944SOL    HW211730   7.554   4.665  11.522
69945SOL     OW11731   5.712   9.892  10.478
69945SOL    HW111732   5.669   9.842  10.409
69945SOL    HW211733   5.704   9.837  10.556
69946SOL     OW11734  10.720   5.851   5.460
69946SOL    HW111735  10.761   5.845   5.373
69946SOL    HW211736  10.650   5.916   5.449
69947SOL     OW11737   8.711   6.919   2.882
69947SOL    HW111738   8.785   6.922   2.943
69947SOL    HW211739   8.746   6.955   2.801
69948SOL     OW11740   8.257   4.556   3.033
69948SOL    HW111741   8.348   4.573   3.008
69948SOL    HW211742   8.244   4.463   3.014
69949SOL     OW11743   3.103   0.298   4.883
69949SOL    HW111744   3.184   0.340   4.911
69949SOL    HW211745   3.098   0.315   4.789
69950SOL     OW11746   1.897   7.629  11.977
69950SOL    HW111747   1.901   7.695  11.908
69950SOL    HW211748   1.982   7.585  11.973
69951SOL     OW11749  12.913  10.854   0.540
69951SOL    HW111750  12.896  10.948   0.548
69951SOL    HW211751  12.967  10.832   0.616
69952SOL     OW11752  12.490   7.430  14.036
69952SOL    HW111753  12.506   7.375  13.960
69952SOL    HW211754  12.563   7.411  14.095
69953SOL     OW11755  10.458   5.858   9.881
69953SOL    HW111756  10.419   5.938   9.917
69953SOL    HW211757  10.521   5.889   9.816
69954SOL     OW11758  10.533  10.728   0.199
69954SOL    HW111759  10.577  10.643   0.201
69954SOL    HW211760  10.462  10.717   0.136
69955SOL     OW11761   1.848   1.665  11.765
69955SOL    HW111762   1.773   1.694  11.713
69955SOL    HW211763   1.880   1.587  11.719
69956SOL     OW11764   3.509  11.576  10.048
69956SOL    HW111765   3.511  11.527  10.130
69956SOL    HW211766   3.597  11.613  10.040
69957SOL     OW11767   2.166   6.084   1.560
69957SOL    HW111768   2.110   6.114   1.488
69957SOL    HW211769   2.252   6.073   1.520
69958SOL     OW11770  10.005   6.733  13.342
69958SOL    HW111771  10.061   6.656  13.353
69958SOL    HW211772   9.918   6.704  13.369
69959SOL     OW11773  12.748   2.747   3.422
69959SOL    HW111774  12.836   2.761   3.387
69959SOL    HW211775  12.756   2.672   3.481
69960SOL     OW11776   2.343   3.948   4.805
69960SOL    HW111777   2.387   4.033   4.814
69960SOL    HW211778   2.277   3.963   4.737
69961SOL     OW11779  12.609   0.293   6.141
69961SOL    HW111780  12.644   0.349   6.073
69961SOL    HW211781  12.637   0.205   6.117
69962SOL     OW11782   7.845   2.494   3.995
69962SOL    HW111783   7.809   2.459   3.914
69962SOL    HW211784   7.913   2.556   3.967
69963SOL     OW11785   2.565   9.408   8.769
69963SOL    HW111786   2.610   9.455   8.840
69963SOL    HW211787   2.492   9.365   8.812
69964SOL     OW11788  10.484  14.712   6.274
69964SOL    HW111789  10.486  14.617   6.272
69964SOL    HW211790  10.397  14.734   6.307
69965SOL     OW11791   8.145   2.435   2.909
69965SOL    HW111792   8.122   2.476   2.826
69965SOL    HW211793   8.124   2.500   2.976
69966SOL     OW11794   7.712   0.673   0.458
69966SOL    HW111795   7.760   0.693   0.538
69966SOL    HW211796   7.757   0.598   0.421
69967SOL     OW11797   5.316  11.603  13.126
69967SOL    HW111798   5.303  11.519  13.170
69967SOL    HW211799   5.409  11.604  13.102
69968SOL     OW11800  11.522   1.160   9.878
69968SOL    HW111801  11.574   1.094   9.923
69968SOL    HW211802  11.451   1.179   9.939
69969SOL     OW11803   9.300   6.422   7.352
69969SOL    HW111804   9.250   6.474   7.414
69969SOL    HW211805   9.389   6.458   7.355
69970SOL     OW11806  14.210   5.628   5.034
69970SOL    HW111807  14.279   5.691   5.014
69970SOL    HW211808  14.129   5.681   5.033
69971SOL     OW11809  10.338   1.850  10.749
69971SOL    HW111810  10.304   1.861  10.660
69971SOL    HW211811  10.279   1.787  10.790
69972SOL     OW11812  14.758   0.750  10.379
69972SOL    HW111813  14.813   0.697  10.437
69972SOL    HW211814  14.798   0.740  10.293
69973SOL     OW11815   8.641   1.566  11.574
69973SOL    HW111816   8.646   1.485  11.523
69973SOL    HW211817   8.644   1.636  11.509
69974SOL     OW11818  10.567  14.838  11.043
69974SOL    HW111819  10.584  14.753  11.003
69974SOL    HW211820  10.578   0.013  10.971
69975SOL     OW11821   8.701   6.693   6.706
69975SOL    HW111822   8.795   6.713   6.703
69975SOL    HW211823   8.662   6.748   6.638
69976SOL     OW11824   1.026   0.699   5.283
69976SOL    HW111825   0.976   0.620   5.302
69976SOL    HW211826   0.960   0.766   5.266
69977SOL     OW11827  12.364  12.734   4.338
69977SOL    HW111828  12.445  12.696   4.301
69977SOL    HW211829  12.381  12.828   4.341
69978SOL     OW11830   1.990  11.954  12.734
69978SOL    HW111831   1.898  11.942  12.713
69978SOL    HW211832   2.002  12.049  12.735
69979SOL     OW11833  12.869   4.402  14.786
69979SOL    HW111834  12.822   4.320  14.800
69979SOL    HW211835  12.868   4.414  14.691
69980SOL     OW11836   8.831  13.891   8.498
69980SOL    HW111837   8.804  13.870   8.409
69980SOL    HW211838   8.753  13.932   8.537
69981SOL     OW11839   1.546   5.100  11.082
69981SOL    HW111840   1.597   5.166  11.128
69981SOL    HW211841   1.456   5.135  11.082
69982SOL     OW11842   2.120   1.856  10.348
69982SOL    HW111843   2.053   1.832  10.285
69982SOL    HW211844   2.172   1.923  10.303
69983SOL     OW11845  12.931   2.365   6.455
69983SOL    HW111846  12.972   2.382   6.370
69983SOL    HW211847  12.976   2.424   6.515
69984SOL     OW11848   4.322   1.962  14.733
69984SOL    HW111849   4.351   1.884  14.686
69984SOL    HW211850   4.388   2.029  14.710
69985SOL     OW11851  14.287  13.296  10.670
69985SOL    HW111852  14.362  13.343  10.633
69985SOL    HW211853  14.211  13.338  10.630
69986SOL     OW11854   9.679   4.921   2.919
69986SOL    HW111855   9.626   4.894   2.994
69986SOL    HW211856   9.620   4.975   2.866
69987SOL     OW11857   4.421   3.825   6.871
69987SOL    HW111858   4.423   3.764   6.797
69987SOL    HW211859   4.504   3.811   6.916
69988SOL     OW11860   2.387   5.490   2.498
69988SOL    HW111861   2.340   5.499   2.581
69988SOL    HW211862   2.477   5.516   2.517
69989SOL     OW11863   9.374  13.108   8.653
69989SOL    HW111864   9.339  13.175   8.712
69989SOL    HW211865   9.402  13.037   8.710
69990SOL     OW11866   3.886   0.413   4.616
69990SOL    HW111867   3.962   0.362   4.643
69990SOL    HW211868   3.874   0.392   4.524
69991SOL     OW11869   1.648   6.293   2.965
69991SOL    HW111870   1.588   6.366   2.947
69991SOL    HW211871   1.641   6.279   3.060
69992SOL     OW11872   8.442   2.077   4.826
69992SOL    HW111873   8.537   2.091   4.821
69992SOL    HW211874   8.420   2.098   4.917
69993SOL     OW11875   3.672  14.739   9.446
69993SOL    HW111876   3.617  14.817   9.438
69993SOL    HW211877   3.618  14.676   9.493
69994SOL     OW11878  12.869   4.555  11.061
69994SOL    HW111879  12.775   4.539  11.055
69994SOL    HW211880  12.902   4.537  10.973
69995SOL     OW11881  12.322   1.778   7.018
69995SOL    HW111882  12.249   1.835   7.043
69995SOL    HW211883  12.279   1.701   6.980
69996SOL     OW11884  13.673   6.371  13.973
69996SOL    HW111885  13.694   6.449  14.024
69996SOL    HW211886  13.649   6.404  13.886
69997SOL     OW11887  10.911   1.950   6.872
69997SOL    HW111888  10.820   1.923   6.864
69997SOL    HW211889  10.922   2.017   6.805
69998SOL     OW11890   5.935   4.113   4.570
69998SOL    HW111891   5.858   4.101   4.625
69998SOL    HW211892   5.951   4.207   4.572
69999SOL     OW11893  14.789   6.782   9.168
69999SOL    HW111894  14.771   6.701   9.216
69999SOL    HW211895  14.806   6.846   9.236
70000SOL     OW11896   8.784  14.425   2.440
70000SOL    HW111897   8.866  14.384   2.415
70000SOL    HW211898   8.731  14.423   2.359
70001SOL     OW11899   9.537  12.394  14.862
70001SOL    HW111900   9.477  12.322  14.843
70001SOL    HW211901   9.621  12.352  14.880
70002SOL     OW11902  11.267  14.585   6.458
70002SOL    HW111903  11.210  14.592   6.534
70002SOL    HW211904  11.281  14.490   6.447
70003SOL     OW11905  10.550  10.897  13.365
70003SOL    HW111906  10.635  10.853  13.367
70003SOL    HW211907  10.487  10.827  13.381
70004SOL     OW11908   7.263  11.831  13.726
70004SOL    HW111909   7.191  11.892  13.715
70004SOL    HW211910   7.228  11.747  13.696
70005SOL     OW11911   1.269  12.125   1.331
70005SOL    HW111912   1.337  12.057   1.320
70005SOL    HW211913   1.259  12.133   1.426
70006SOL     OW11914   2.801   2.468   8.128
70006SOL    HW111915   2.706   2.480   8.125
70006SOL    HW211916   2.824   2.484   8.219
70007SOL     OW11917   8.802   0.871   7.040
70007SOL    HW111918   8.724   0.923   7.021
70007SOL    HW211919   8.793   0.845   7.132
70008SOL     OW11920   8.966  13.699   6.170
70008SOL    HW111921   9.056  13.719   6.193
70008SOL    HW211922   8.915  13.726   6.247
70009SOL     OW11923  11.306   7.679   5.918
70009SOL    HW111924  11.232   7.619   5.917
70009SOL    HW211925  11.292   7.737   5.843
70010SOL     OW11926   0.095   0.945   6.751
70010SOL    HW111927   0.095   0.860   6.709
70010SOL    HW211928   0.181   0.951   6.794
70011SOL     OW11929   3.770   6.951   5.187
70011SOL    HW111930   3.779   7.045   5.207
70011SOL    HW211931   3.711   6.918   5.255
70012SOL     OW11932  14.860  10.602  14.466
70012SOL    HW111933  14.777  10.625  14.507
70012SOL    HW211934  14.839  10.592  14.373
70013SOL     OW11935  11.062   0.539  13.069
70013SOL    HW111936  11.118   0.583  13.134
70013SOL    HW211937  11.118   0.474  13.028
70014SOL     OW11938   5.593   2.146   1.153
70014SOL    HW111939   5.671   2.119   1.203
70014SOL    HW211940   5.624   2.153   1.063
70015SOL     OW11941  12.677   2.865   5.755
70015SOL    HW111942  12.735   2.793   5.778
70015SOL    HW211943  12.691   2.930   5.824
70016SOL     OW11944  14.629  10.039   9.035
70016SOL    HW111945  14.575  10.114   9.058
70016SOL    HW211946  14.650  10.052   8.942
70017SOL     OW11947  11.084   4.460   5.992
70017SOL    HW111948  11.040   4.386   6.034
70017SOL    HW211949  11.166   4.424   5.960
70018SOL     OW11950   6.795   4.720   4.603
70018SOL    HW111951   6.708   4.753   4.626
70018SOL    HW211952   6.825   4.673   4.681
70019SOL     OW11953  14.507   0.442   2.578
70019SOL    HW111954  14.503   0.447   2.483
70019SOL    HW211955  14.457   0.518   2.608
70020SOL     OW11956   1.641  14.475   8.024
70020SOL    HW111957   1.582  14.401   8.035
70020SOL    HW211958   1.717  14.439   7.977
70021SOL     OW11959   5.598   6.017   7.681
70021SOL    HW111960   5.534   6.075   7.640
70021SOL    HW211961   5.640   5.971   7.608
70022SOL     OW11962   8.196  14.784   8.199
70022SOL    HW111963   8.201  14.695   8.166
70022SOL    HW211964   8.102  14.802   8.205
70023SOL     OW11965   0.300   8.872  14.022
70023SOL    HW111966   0.310   8.777  14.023
70023SOL    HW211967   0.206   8.886  14.009
70024SOL     OW11968   7.546  10.152   9.400
70024SOL    HW111969   7.508  10.213   9.337
70024SOL    HW211970   7.556  10.070   9.352
70025SOL     OW11971   7.058  11.556   4.575
70025SOL    HW111972   7.101  11.607   4.507
70025SOL    HW211973   7.020  11.620   4.634
70026SOL     OW11974  10.745  10.908   4.408
70026SOL    HW111975  10.817  10.972   4.406
70026SOL    HW211976  10.768  10.849   4.480
70027SOL     OW11977   4.226   5.513   7.460
70027SOL    HW111978   4.149   5.456   7.459
70027SOL    HW211979   4.299   5.454   7.479
70028SOL     OW11980  10.072   8.300   5.303
70028SOL    HW111981  10.117   8.231   5.351
70028SOL    HW211982  10.131   8.375   5.307
70029SOL     OW11983   1.644   9.156  14.374
70029SOL    HW111984   1.674   9.149  14.284
70029SOL    HW211985   1.620   9.067  14.399
70030SOL     OW11986   0.570   4.098  13.393
70030SOL    HW111987   0.501   4.042  13.429
70030SOL    HW211988   0.633   4.037  13.355
70031SOL     OW11989  12.899   9.816   3.120
70031SOL    HW111990  12.932   9.776   3.039
70031SOL    HW211991  12.930   9.906   3.116
70032SOL     OW11992   3.761   4.967   0.140
70032SOL    HW111993   3.747   5.032   0.209
70032SOL    HW211994   3.700   4.896   0.160
70033SOL     OW11995  12.893   7.978   3.335
70033SOL    HW111996  12.893   8.063   3.291
70033SOL    HW211997  12.820   7.931   3.295
70034SOL     OW11998   6.581   3.765   9.557
70034SOL    HW111999   6.587   3.860   9.545
70034SOL    HW212000   6.537   3.755   9.642
70035SOL     OW12001   7.155   2.259  10.051
70035SOL    HW112002   7.101   2.207  10.111
70035SOL    HW212003   7.219   2.197  10.016
70036SOL     OW12004   7.259   2.941  12.905
70036SOL    HW112005   7.339   2.994  12.912
70036SOL    HW212006   7.205   2.969  12.978
70037SOL     OW12007   8.891   7.924   4.162
70037SOL    HW112008   8.815   7.876   4.129
70037SOL    HW212009   8.865   7.953   4.249
70038SOL     OW12010   0.602  13.091   8.807
70038SOL    HW112011   0.618  12.997   8.797
70038SOL    HW212012   0.509  13.097   8.829
70039SOL     OW12013   9.853  12.556   9.062
70039SOL    HW112014   9.784  12.608   9.022
70039SOL    HW212015   9.834  12.466   9.035
70040SOL     OW12016  12.476   7.898   0.904
70040SOL    HW112017  12.431   7.982   0.912
70040SOL    HW212018  12.502   7.877   0.994
70041SOL     OW12019   8.935   1.196  12.141
70041SOL    HW112020   8.932   1.140  12.063
70041SOL    HW212021   8.938   1.285  12.106
70042SOL     OW12022   4.921   1.783  11.527
70042SOL    HW112023   4.920   1.797  11.622
70042SOL    HW212024   4.914   1.870  11.489
70043SOL     OW12025   8.847  13.759   2.751
70043SOL    HW112026   8.764  13.749   2.797
70043SOL    HW212027   8.857  13.678   2.702
70044SOL     OW12028   6.374   5.963   5.773
70044SOL    HW112029   6.281   5.987   5.778
70044SOL    HW212030   6.382   5.917   5.690
70045SOL     OW12031   4.699   8.360   3.135
70045SOL    HW112032   4.672   8.412   3.060
70045SOL    HW212033   4.676   8.270   3.112
70046SOL     OW12034  14.118   3.819   5.819
70046SOL    HW112035  14.133   3.897   5.873
70046SOL    HW212036  14.054   3.768   5.868
70047SOL     OW12037   4.869   1.497   5.694
70047SOL    HW112038   4.885   1.492   5.600
70047SOL    HW212039   4.948   1.538   5.729
70048SOL     OW12040  13.572  10.166  14.761
70048SOL    HW112041  13.656  10.156  14.806
70048SOL    HW212042  13.507  10.132  14.822
70049SOL     OW12043  12.962   3.432   9.053
70049SOL    HW112044  12.967   3.402   9.144
70049SOL    HW212045  12.974   3.352   9.001
70050SOL     OW12046   2.658  11.945   5.078
70050SOL    HW112047   2.638  11.860   5.119
70050SOL    HW212048   2.733  11.926   5.022
70051SOL     OW12049   1.813   9.619   2.403
70051SOL    HW112050   1.876   9.691   2.396
70051SOL    HW212051   1.770   9.633   2.487
70052SOL     OW12052   2.532   1.197   9.893
70052SOL    HW112053   2.474   1.269   9.918
70052SOL    HW212054   2.609   1.239   9.855
70053SOL     OW12055  10.232   2.991  13.469
70053SOL    HW112056  10.208   3.062  13.529
70053SOL    HW212057  10.217   2.911  13.519
70054SOL     OW12058   0.003   2.981   1.137
70054SOL    HW112059   0.083   3.011   1.094
70054SOL    HW212060   0.015   2.887   1.147
70055SOL     OW12061   7.993  12.432  13.704
70055SOL    HW112062   7.946  12.369  13.759
70055SOL    HW212063   8.068  12.383  13.670
70056SOL     OW12064  14.071  10.394   4.435
70056SOL    HW112065  14.163  10.372   4.416
70056SOL    HW212066  14.068  10.489   4.432
70057SOL     OW12067  11.125   2.599   1.962
70057SOL    HW112068  11.083   2.533   1.906
70057SOL    HW212069  11.167   2.548   2.032
70058SOL     OW12070  14.214   7.512   2.278
70058SOL    HW112071  14.164   7.591   2.257
70058SOL    HW212072  14.227   7.517   2.373
70059SOL     OW12073  14.279   4.128   1.656
70059SOL    HW112074  14.336   4.052   1.649
70059SOL    HW212075  14.295   4.162   1.745
70060SOL     OW12076   0.543   9.457   0.093
70060SOL    HW112077   0.469   9.401   0.116
70060SOL    HW212078   0.606   9.398   0.053
70061SOL     OW12079   4.513   3.410   9.586
70061SOL    HW112080   4.547   3.321   9.595
70061SOL    HW212081   4.419   3.402   9.603
70062SOL     OW12082   2.781   3.661  14.844
70062SOL    HW112083   2.704   3.630   0.005
70062SOL    HW212084   2.756   3.750  14.816
70063SOL     OW12085  13.885   0.690   5.956
70063SOL    HW112086  13.856   0.728   5.873
70063SOL    HW212087  13.848   0.602   5.956
70064SOL     OW12088  10.613   1.343  10.911
70064SOL    HW112089  10.527   1.332  10.952
70064SOL    HW212090  10.594   1.383  10.826
70065SOL     OW12091   6.785  12.432  13.674
70065SOL    HW112092   6.756  12.355  13.625
70065SOL    HW212093   6.845  12.397  13.740
70066SOL     OW12094  13.718   6.185   1.898
70066SOL    HW112095  13.778   6.137   1.954
70066SOL    HW212096  13.746   6.277   1.906
70067SOL     OW12097   3.865   8.876   7.675
70067SOL    HW112098   3.924   8.924   7.731
70067SOL    HW212099   3.781   8.922   7.682
70068SOL     OW12100  14.175   8.702   2.439
70068SOL    HW112101  14.227   8.750   2.375
70068SOL    HW212102  14.130   8.635   2.388
70069SOL     OW12103  11.353   5.425   7.060
70069SOL    HW112104  11.359   5.401   7.152
70069SOL    HW212105  11.268   5.391   7.032
70070SOL     OW12106   2.609   4.793   4.164
70070SOL    HW112107   2.531   4.838   4.198
70070SOL    HW212108   2.636   4.736   4.236
70071SOL     OW12109   1.988   2.371  14.397
70071SOL    HW112110   1.900   2.407  14.388
70071SOL    HW212111   1.981   2.283  14.359
70072SOL     OW12112   8.511   6.552   7.587
70072SOL    HW112113   8.547   6.591   7.666
70072SOL    HW212114   8.416   6.558   7.597
70073SOL     OW12115   1.803  14.796   5.117
70073SOL    HW112116   1.867  14.764   5.053
70073SOL    HW212117   1.730  14.735   5.111
70074SOL     OW12118   2.717   2.907  14.768
70074SOL    HW112119   2.647   2.895  14.705
70074SOL    HW212120   2.705   2.995  14.802
70075SOL     OW12121   3.468   0.854  11.244
70075SOL    HW112122   3.471   0.759  11.234
70075SOL    HW212123   3.504   0.887  11.161
70076SOL     OW12124  11.901  10.107  14.793
70076SOL    HW112125  11.851  10.184  14.820
70076SOL    HW212126  11.992  10.138  14.788
70077SOL     OW12127   7.116   0.134   2.015
70077SOL    HW112128   7.142   0.095   2.098
70077SOL    HW212129   7.037   0.088   1.990
70078SOL     OW12130   6.595   5.304   5.505
70078SOL    HW112131   6.668   5.337   5.557
70078SOL    HW212132   6.616   5.327   5.415
70079SOL     OW12133  11.596   1.488   6.670
70079SOL    HW112134  11.528   1.436   6.627
70079SOL    HW212135  11.568   1.579   6.657
70080SOL     OW12136   7.109   6.420   6.532
70080SOL    HW112137   7.180   6.391   6.591
70080SOL    HW212138   7.062   6.487   6.582
70081SOL     OW12139   1.511  14.166   9.260
70081SOL    HW112140   1.578  14.097   9.258
70081SOL    HW212141   1.493  14.185   9.168
70082SOL     OW12142  10.066  14.407   2.509
70082SOL    HW112143  10.091  14.442   2.595
70082SOL    HW212144  10.107  14.466   2.446
70083SOL     OW12145   7.756   3.876   1.399
70083SOL    HW112146   7.785   3.806   1.341
70083SOL    HW212147   7.700   3.931   1.345
70084SOL     OW12148   9.092   8.182  13.323
70084SOL    HW112149   9.139   8.209  13.244
70084SOL    HW212150   9.008   8.149  13.291
70085SOL     OW12151   5.949   6.536   1.926
70085SOL    HW112152   5.919   6.588   1.852
70085SOL    HW212153   6.035   6.572   1.948
70086SOL     OW12154   2.280   3.623   7.523
70086SOL    HW112155   2.361   3.671   7.510
70086SOL    HW212156   2.242   3.660   7.603
70087SOL     OW12157   9.871   5.411   5.862
70087SOL    HW112158   9.845   5.497   5.895
70087SOL    HW212159   9.966   5.417   5.852
70088SOL     OW12160   7.800  13.054   2.237
70088SOL    HW112161   7.878  13.085   2.283
70088SOL    HW212162   7.834  13.021   2.153
70089SOL     OW12163   3.287   4.262   8.725
70089SOL    HW112164   3.336   4.187   8.693
70089SOL    HW212165   3.352   4.331   8.736
70090SOL     OW12166   4.288   6.744  10.663
70090SOL    HW112167   4.262   6.765  10.753
70090SOL    HW212168   4.367   6.796  10.648
70091SOL     OW12169   4.113  14.870   5.115
70091SOL    HW112170   4.081   0.010   5.201
70091SOL    HW212171   4.067  14.787   5.098
70092SOL     OW12172   1.156   3.753  10.832
70092SOL    HW112173   1.159   3.662  10.862
70092SOL    HW212174   1.176   3.805  10.909
70093SOL     OW12175  12.797   3.280  12.330
70093SOL    HW112176  12.829   3.368  12.308
70093SOL    HW212177  12.761   3.246  12.248
70094SOL     OW12178  14.122  14.841  13.344
70094SOL    HW112179  14.049  14.868  13.287
70094SOL    HW212180  14.107   0.001  13.425
70095SOL     OW12181   5.251  13.830   8.493
70095SOL    HW112182   5.263  13.909   8.440
70095SOL    HW212183   5.217  13.862   8.576
70096SOL     OW12184   6.274  11.119   1.556
70096SOL    HW112185   6.277  11.039   1.608
70096SOL    HW212186   6.356  11.119   1.506
70097SOL     OW12187  12.551   7.477   0.475
70097SOL    HW112188  12.623   7.413   0.473
70097SOL    HW212189  12.536   7.492   0.568
70098SOL     OW12190   4.548   0.138  13.896
70098SOL    HW112191   4.465   0.183  13.881
70098SOL    HW212192   4.523   0.047  13.917
70099SOL     OW12193   7.079  13.137  12.069
70099SOL    HW112194   7.083  13.231  12.087
70099SOL    HW212195   7.169  13.112  12.048
70100SOL     OW12196   2.003  13.367   8.270
70100SOL    HW112197   1.979  13.459   8.283
70100SOL    HW212198   2.098  13.365   8.284
70101SOL     OW12199  11.553  14.051   3.450
70101SOL    HW112200  11.524  14.088   3.533
70101SOL    HW212201  11.475  14.051   3.395
70102SOL     OW12202  13.744  13.030   9.349
70102SOL    HW112203  13.757  12.958   9.410
70102SOL    HW212204  13.739  12.988   9.263
70103SOL     OW12205  13.096  14.199  14.010
70103SOL    HW112206  13.065  14.163  13.927
70103SOL    HW212207  13.053  14.284  14.017
70104SOL     OW12208   0.291  11.564   8.341
70104SOL    HW112209   0.369  11.591   8.389
70104SOL    HW212210   0.227  11.633   8.358
70105SOL     OW12211   8.047   5.731   9.795
70105SOL    HW112212   8.109   5.686   9.852
70105SOL    HW212213   8.031   5.815   9.837
70106SOL     OW12214   3.475   4.145  14.070
70106SOL    HW112215   3.480   4.051  14.049
70106SOL    HW212216   3.561   4.179  14.045
70107SOL     OW12217   1.981  14.690   1.583
70107SOL    HW112218   1.993  14.631   1.657
70107SOL    HW212219   1.996  14.635   1.506
70108SOL     OW12220   0.643   7.858   9.499
70108SOL    HW112221   0.647   7.765   9.477
70108SOL    HW212222   0.602   7.898   9.422
70109SOL     OW12223   3.468   6.751   0.293
70109SOL    HW112224   3.468   6.656   0.307
70109SOL    HW212225   3.375   6.773   0.281
70110SOL     OW12226   7.205  12.374   8.135
70110SOL    HW112227   7.116  12.399   8.111
70110SOL    HW212228   7.259  12.401   8.061
70111SOL     OW12229   4.861  12.494   8.148
70111SOL    HW112230   4.934  12.444   8.182
70111SOL    HW212231   4.817  12.436   8.086
70112SOL     OW12232   1.357   7.096   8.301
70112SOL    HW112233   1.415   7.064   8.232
70112SOL    HW212234   1.307   7.019   8.328
70113SOL     OW12235   7.581  10.315   3.973
70113SOL    HW112236   7.533  10.391   4.007
70113SOL    HW212237   7.581  10.326   3.878
70114SOL     OW12238  10.199   3.483   3.311
70114SOL    HW112239  10.109   3.454   3.296
70114SOL    HW212240  10.222   3.533   3.233
70115SOL     OW12241   1.366   6.662   9.323
70115SOL    HW112242   1.432   6.597   9.300
70115SOL    HW212243   1.319   6.678   9.241
70116SOL     OW12244   6.089  10.703   8.842
70116SOL    HW112245   6.118  10.620   8.803
70116SOL    HW212246   6.144  10.713   8.920
70117SOL     OW12247   3.794   7.705  12.715
70117SOL    HW112248   3.785   7.679  12.623
70117SOL    HW212249   3.889   7.710  12.729
70118SOL     OW12250   0.345  13.095  12.368
70118SOL    HW112251   0.383  13.126  12.449
70118SOL    HW212252   0.253  13.121  12.372
70119SOL     OW12253   1.187   2.795  10.297
70119SOL    HW112254   1.195   2.858  10.369
70119SOL    HW212255   1.100   2.757  10.309
70120SOL     OW12256  10.510   8.053   1.427
70120SOL    HW112257  10.580   7.990   1.444
70120SOL    HW212258  10.542   8.135   1.464
70121SOL     OW12259   4.618   8.072  14.818
70121SOL    HW112260   4.557   8.109  14.755
70121SOL    HW212261   4.576   7.991  14.848
70122SOL     OW12262  11.222   3.751   5.264
70122SOL    HW112263  11.258   3.839   5.265
70122SOL    HW212264  11.286   3.698   5.312
70123SOL     OW12265   5.176   0.440   0.083
70123SOL    HW112266   5.214   0.369   0.030
70123SOL    HW212267   5.105   0.475   0.029
70124SOL     OW12268   0.157   1.099   4.325
70124SOL    HW112269   0.225   1.163   4.349
70124SOL    HW212270   0.075   1.149   4.327
70125SOL     OW12271   8.585  10.563   7.055
70125SOL    HW112272   8.568  10.470   7.067
70125SOL    HW212273   8.521  10.591   6.989
70126SOL     OW12274   8.544  13.539  12.534
70126SOL    HW112275   8.474  13.583  12.582
70126SOL    HW212276   8.539  13.448  12.561
70127SOL     OW12277   5.459  11.986   7.633
70127SOL    HW112278   5.367  12.012   7.637
70127SOL    HW212279   5.466  11.934   7.553
70128SOL     OW12280   7.322   1.578  13.035
70128SOL    HW112281   7.242   1.569  12.984
70128SOL    HW212282   7.389   1.534  12.983
70129SOL     OW12283   3.806   6.537   8.875
70129SOL    HW112284   3.787   6.628   8.899
70129SOL    HW212285   3.863   6.506   8.945
70130SOL     OW12286   0.608   7.581   4.968
70130SOL    HW112287   0.530   7.563   4.915
70130SOL    HW212288   0.673   7.517   4.939
70131SOL     OW12289   1.865   5.168   7.112
70131SOL    HW112290   1.916   5.230   7.059
70131SOL    HW212291   1.868   5.086   7.062
70132SOL     OW12292   4.755   8.331   7.203
70132SOL    HW112293   4.773   8.386   7.127
70132SOL    HW212294   4.835   8.281   7.216
70133SOL     OW12295   5.819   8.746  10.783
70133SOL    HW112296   5.749   8.682  10.795
70133SOL    HW212297   5.777   8.818  10.736
70134SOL     OW12298   7.545  13.774   4.383
70134SOL    HW112299   7.468  13.824   4.355
70134SOL    HW212300   7.591  13.833   4.443
70135SOL     OW12301  12.631  11.649   4.389
70135SOL    HW112302  12.594  11.736   4.374
70135SOL    HW212303  12.698  11.664   4.456
70136SOL     OW12304  10.241   8.424  11.132
70136SOL    HW112305  10.213   8.333  11.139
70136SOL    HW212306  10.333   8.423  11.157
70137SOL     OW12307   3.266   5.615   1.845
70137SOL    HW112308   3.187   5.611   1.792
70137SOL    HW212309   3.338   5.618   1.782
70138SOL     OW12310   4.747   9.447   1.582
70138SOL    HW112311   4.768   9.464   1.490
70138SOL    HW212312   4.828   9.467   1.629
70139SOL     OW12313  11.272  14.094  11.194
70139SOL    HW112314  11.354  14.139  11.215
70139SOL    HW212315  11.298  14.005  11.174
70140SOL     OW12316   3.544   3.504   4.566
70140SOL    HW112317   3.463   3.458   4.546
70140SOL    HW212318   3.607   3.472   4.501
70141SOL     OW12319   1.485   6.197  14.875
70141SOL    HW112320   1.492   6.287   0.018
70141SOL    HW212321   1.523   6.145   0.059
70142SOL     OW12322   8.196  14.690   3.193
70142SOL    HW112323   8.157  14.775   3.170
70142SOL    HW212324   8.274  14.684   3.137
70143SOL     OW12325  10.809   4.957   7.595
70143SOL    HW112326  10.722   4.997   7.587
70143SOL    HW212327  10.869   5.024   7.564
70144SOL     OW12328  11.164   4.262   2.012
70144SOL    HW112329  11.158   4.167   2.017
70144SOL    HW212330  11.100   4.287   1.945
70145SOL     OW12331   9.007  13.892   4.747
70145SOL    HW112332   8.948  13.949   4.697
70145SOL    HW212333   9.034  13.946   4.821
70146SOL     OW12334  10.809   3.807   7.359
70146SOL    HW112335  10.879   3.804   7.424
70146SOL    HW212336  10.849   3.775   7.278
70147SOL     OW12337   3.312   4.450   5.688
70147SOL    HW112338   3.261   4.462   5.608
70147SOL    HW212339   3.372   4.378   5.668
70148SOL     OW12340   0.632   5.868   3.583
70148SOL    HW112341   0.592   5.921   3.652
70148SOL    HW212342   0.698   5.925   3.543
70149SOL     OW12343  10.782  11.565   5.712
70149SOL    HW112344  10.706  11.622   5.721
70149SOL    HW212345  10.814  11.582   5.623
70150SOL     OW12346   5.989   8.534  11.301
70150SOL    HW112347   5.905   8.554  11.259
70150SOL    HW212348   6.052   8.529  11.229
70151SOL     OW12349   9.955   5.405   3.158
70151SOL    HW112350   9.985   5.417   3.068
70151SOL    HW212351   9.943   5.311   3.167
70152SOL     OW12352   1.063  13.788  12.413
70152SOL    HW112353   1.037  13.702  12.448
70152SOL    HW212354   1.083  13.771  12.321
70153SOL     OW12355   7.323   7.632  12.355
70153SOL    HW112356   7.331   7.545  12.315
70153SOL    HW212357   7.320   7.692  12.280
70154SOL     OW12358   9.602   4.171   9.749
70154SOL    HW112359   9.601   4.082   9.712
70154SOL    HW212360   9.690   4.180   9.786
70155SOL     OW12361   7.589  11.571   8.997
70155SOL    HW112362   7.649  11.557   9.071
70155SOL    HW212363   7.633  11.528   8.923
70156SOL     OW12364   3.889   5.529   5.567
70156SOL    HW112365   3.915   5.616   5.599
70156SOL    HW212366   3.858   5.544   5.478
70157SOL     OW12367   4.056   1.092   4.742
70157SOL    HW112368   3.979   1.100   4.799
70157SOL    HW212369   4.021   1.059   4.659
70158SOL     OW12370   8.008   2.481  12.761
70158SOL    HW112371   8.082   2.437  12.803
70158SOL    HW212372   7.995   2.433  12.679
70159SOL     OW12373  11.648   8.600   1.584
70159SOL    HW112374  11.727   8.560   1.620
70159SOL    HW212375  11.587   8.604   1.658
70160SOL     OW12376   0.863   2.003   9.808
70160SOL    HW112377   0.827   2.084   9.844
70160SOL    HW212378   0.846   1.937   9.875
70161SOL     OW12379  14.343   5.220  13.705
70161SOL    HW112380  14.276   5.158  13.734
70161SOL    HW212381  14.421   5.165  13.690
70162SOL     OW12382   4.006   7.998  12.868
70162SOL    HW112383   4.002   8.016  12.774
70162SOL    HW212384   4.002   7.902  12.874
70163SOL     OW12385   8.283  14.772  14.523
70163SOL    HW112386   8.258  14.860  14.494
70163SOL    HW212387   8.353  14.786  14.586
70164SOL     OW12388   7.123   4.548  11.568
70164SOL    HW112389   7.099   4.457  11.586
70164SOL    HW212390   7.130   4.588  11.655
70165SOL     OW12391   3.578   1.741   8.961
70165SOL    HW112392   3.553   1.828   8.990
70165SOL    HW212393   3.657   1.754   8.909
70166SOL     OW12394  12.176   5.636  13.823
70166SOL    HW112395  12.194   5.546  13.794
70166SOL    HW212396  12.256   5.684  13.801
70167SOL     OW12397   5.392  11.060   7.666
70167SOL    HW112398   5.356  11.149   7.666
70167SOL    HW212399   5.486  11.072   7.678
70168SOL     OW12400   1.743  12.674  10.592
70168SOL    HW112401   1.806  12.662  10.520
70168SOL    HW212402   1.659  12.689  10.548
70169SOL     OW12403  12.468   5.586   4.020
70169SOL    HW112404  12.441   5.576   3.929
70169SOL    HW212405  12.533   5.518   4.033
70170SOL     OW12406  13.077   2.207   7.412
70170SOL    HW112407  13.116   2.236   7.495
70170SOL    HW212408  13.121   2.259   7.345
70171SOL     OW12409  14.694  14.312  12.583
70171SOL    HW112410  14.715  14.345  12.496
70171SOL    HW212411  14.695  14.217  12.574
70172SOL     OW12412   0.857   7.201  11.744
70172SOL    HW112413   0.827   7.114  11.717
70172SOL    HW212414   0.947   7.207  11.712
70173SOL     OW12415  10.276   8.295   0.511
70173SOL    HW112416  10.185   8.271   0.496
70173SOL    HW212417  10.272   8.379   0.556
70174SOL     OW12418   8.455   2.992  12.692
70174SOL    HW112419   8.441   2.921  12.755
70174SOL    HW212420   8.393   2.974  12.621
70175SOL     OW12421  11.688   8.330   4.021
70175SOL    HW112422  11.749   8.375   3.962
70175SOL    HW212423  11.601   8.360   3.992
70176SOL     OW12424   0.619  10.158   9.531
70176SOL    HW112425   0.613  10.063   9.524
70176SOL    HW212426   0.540  10.184   9.578
70177SOL     OW12427  12.915   1.894   9.137
70177SOL    HW112428  12.918   1.809   9.181
70177SOL    HW212429  12.930   1.874   9.045
70178SOL     OW12430   0.240  14.668   7.547
70178SOL    HW112431   0.308  14.673   7.480
70178SOL    HW212432   0.203  14.756   7.552
70179SOL     OW12433  14.137   8.524   4.286
70179SOL    HW112434  14.055   8.519   4.236
70179SOL    HW212435  14.110   8.549   4.374
70180SOL     OW12436   4.813   1.596  11.354
70180SOL    HW112437   4.816   1.509  11.394
70180SOL    HW212438   4.855   1.654  11.418
70181SOL     OW12439  10.917   1.694   0.243
70181SOL    HW112440  10.975   1.621   0.219
70181SOL    HW212441  10.923   1.700   0.338
70182SOL     OW12442  11.603   1.282   1.628
70182SOL    HW112443  11.647   1.361   1.662
70182SOL    HW212444  11.675   1.226   1.598
70183SOL     OW12445   7.479   3.970  14.671
70183SOL    HW112446   7.483   4.016  14.755
70183SOL    HW212447   7.405   4.011  14.626
70184SOL     OW12448  12.674   6.701  13.867
70184SOL    HW112449  12.704   6.730  13.953
70184SOL    HW212450  12.649   6.781  13.822
70185SOL     OW12451   9.623   0.765   4.942
70185SOL    HW112452   9.557   0.696   4.951
70185SOL    HW212453   9.626   0.807   5.027
70186SOL     OW12454   7.958  14.140  13.723
70186SOL    HW112455   7.983  14.200  13.653
70186SOL    HW212456   7.999  14.177  13.802
70187SOL     OW12457   9.876  10.447   6.036
70187SOL    HW112458   9.846  10.404   6.117
70187SOL    HW212459   9.803  10.435   5.975
70188SOL     OW12460   5.911   2.991  12.723
70188SOL    HW112461   5.900   2.988  12.818
70188SOL    HW212462   5.852   3.061  12.694
70189SOL     OW12463   9.494   7.010   9.424
70189SOL    HW112464   9.465   7.081   9.366
70189SOL    HW212465   9.524   6.941   9.364
70190SOL     OW12466   8.069  14.497   3.720
70190SOL    HW112467   8.122  14.563   3.675
70190SOL    HW212468   8.036  14.542   3.798
70191SOL     OW12469   4.523  13.326  13.469
70191SOL    HW112470   4.591  13.357  13.529
70191SOL    HW212471   4.566  13.321  13.384
70192SOL     OW12472  10.528  14.882  13.623
70192SOL    HW112473  10.466  14.810  13.630
70192SOL    HW212474  10.487   0.066  13.672
70193SOL     OW12475  14.249   1.892   0.853
70193SOL    HW112476  14.171   1.944   0.872
70193SOL    HW212477  14.242   1.869   0.761
70194SOL     OW12478   7.000  10.785   5.210
70194SOL    HW112479   7.016  10.811   5.301
70194SOL    HW212480   7.052  10.706   5.197
70195SOL     OW12481  11.439   7.022   5.028
70195SOL    HW112482  11.423   6.929   5.009
70195SOL    HW212483  11.489   7.054   4.953
70196SOL     OW12484  10.933  12.533   8.446
70196SOL    HW112485  10.935  12.610   8.389
70196SOL    HW212486  10.875  12.557   8.518
70197SOL     OW12487  10.613   5.820  10.247
70197SOL    HW112488  10.534   5.847  10.200
70197SOL    HW212489  10.581   5.763  10.317
70198SOL     OW12490   1.637  12.327   3.580
70198SOL    HW112491   1.699  12.337   3.509
70198SOL    HW212492   1.585  12.250   3.557
70199SOL     OW12493  13.491  12.704   8.201
70199SOL    HW112494  13.551  12.630   8.190
70199SOL    HW212495  13.410  12.676   8.157
70200SOL     OW12496   6.877   2.365   5.670
70200SOL    HW112497   6.898   2.403   5.585
70200SOL    HW212498   6.923   2.421   5.733
70201SOL     OW12499  11.586   5.678   6.641
70201SOL    HW112500  11.565   5.660   6.549
70201SOL    HW212501  11.619   5.768   6.641
70202SOL     OW12502   2.700  10.041   6.206
70202SOL    HW112503   2.615  10.055   6.247
70202SOL    HW212504   2.702  10.105   6.135
70203SOL     OW12505   9.286   1.458   3.831
70203SOL    HW112506   9.368   1.457   3.782
70203SOL    HW212507   9.274   1.367   3.859
70204SOL     OW12508   6.723  13.512  11.619
70204SOL    HW112509   6.775  13.542  11.694
70204SOL    HW212510   6.673  13.438  11.654
70205SOL     OW12511   7.252  14.469  13.825
70205SOL    HW112512   7.247  14.374  13.840
70205SOL    HW212513   7.237  14.478  13.730
70206SOL     OW12514  11.183  10.650  13.836
70206SOL    HW112515  11.168  10.572  13.783
70206SOL    HW212516  11.225  10.712  13.776
70207SOL     OW12517   2.868   2.848   3.784
70207SOL    HW112518   2.926   2.784   3.743
70207SOL    HW212519   2.866   2.921   3.722
70208SOL     OW12520   6.424  12.211  12.666
70208SOL    HW112521   6.374  12.287  12.697
70208SOL    HW212522   6.502  12.248  12.625
70209SOL     OW12523  10.886   4.388   9.045
70209SOL    HW112524  10.918   4.314   8.993
70209SOL    HW212525  10.882   4.460   8.983
70210SOL     OW12526   4.014   4.857   0.342
70210SOL    HW112527   4.062   4.835   0.422
70210SOL    HW212528   3.947   4.918   0.371
70211SOL     OW12529   0.836   6.890  11.739
70211SOL    HW112530   0.803   6.890  11.650
70211SOL    HW212531   0.879   6.805  11.749
70212SOL     OW12532   3.978  12.001   6.886
70212SOL    HW112533   3.891  11.971   6.913
70212SOL    HW212534   4.003  11.942   6.814
70213SOL     OW12535   6.478   0.218  10.627
70213SOL    HW112536   6.534   0.268  10.688
70213SOL    HW212537   6.392   0.259  10.635
70214SOL     OW12538   2.386   1.458   2.132
70214SOL    HW112539   2.396   1.553   2.135
70214SOL    HW212540   2.292   1.444   2.123
70215SOL     OW12541   5.089   0.890  12.530
70215SOL    HW112542   5.181   0.876  12.552
70215SOL    HW212543   5.091   0.925  12.441
70216SOL     OW12544  14.436   3.728   5.849
70216SOL    HW112545  14.382   3.687   5.782
70216SOL    HW212546  14.483   3.656   5.891
70217SOL     OW12547   7.568   3.354   6.599
70217SOL    HW112548   7.557   3.264   6.630
70217SOL    HW212549   7.483   3.378   6.563
70218SOL     OW12550   3.993  14.263  12.629
70218SOL    HW112551   4.025  14.277  12.718
70218SOL    HW212552   4.046  14.190  12.597
70219SOL     OW12553  13.647   1.721   7.808
70219SOL    HW112554  13.688   1.740   7.892
70219SOL    HW212555  13.587   1.649   7.826
70220SOL     OW12556   1.689   2.522   2.062
70220SOL    HW112557   1.694   2.542   2.155
70220SOL    HW212558   1.779   2.499   2.037
70221SOL     OW12559   6.660  13.502   7.106
70221SOL    HW112560   6.728  13.550   7.059
70221SOL    HW212561   6.618  13.448   7.039
70222SOL     OW12562  11.544   2.431   5.894
70222SOL    HW112563  11.489   2.484   5.836
70222SOL    HW212564  11.482   2.387   5.952
70223SOL     OW12565   0.328   2.876  12.008
70223SOL    HW112566   0.267   2.805  11.989
70223SOL    HW212567   0.309   2.901  12.098
70224SOL     OW12568   5.144   4.057   0.247
70224SOL    HW112569   5.146   4.016   0.333
70224SOL    HW212570   5.207   4.005   0.195
70225SOL     OW12571   9.322   1.132  12.139
70225SOL    HW112572   9.337   1.057  12.195
70225SOL    HW212573   9.239   1.170  12.170
70226SOL     OW12574   3.950  14.268   3.764
70226SOL    HW112575   4.006  14.212   3.711
70226SOL    HW212576   3.983  14.357   3.749
70227SOL     OW12577   6.011   2.681   0.617
70227SOL    HW112578   6.026   2.752   0.555
70227SOL    HW212579   6.087   2.684   0.676
70228SOL     OW12580   0.096   6.432  10.633
70228SOL    HW112581   0.163   6.448  10.699
70228SOL    HW212582   0.040   6.365  10.671
70229SOL     OW12583   0.260  11.612   4.752
70229SOL    HW112584   0.302  11.572   4.827
70229SOL    HW212585   0.198  11.546   4.720
70230SOL     OW12586   7.229  10.738   2.122
70230SOL    HW112587   7.162  10.805   2.121
70230SOL    HW212588   7.254  10.730   2.214
70231SOL     OW12589   2.915   9.204   9.694
70231SOL    HW112590   2.891   9.296   9.684
70231SOL    HW212591   2.887   9.163   9.613
70232SOL     OW12592  10.759   2.816   1.505
70232SOL    HW112593  10.849   2.849   1.513
70232SOL    HW212594  10.729   2.848   1.420
70233SOL     OW12595  12.130  13.763   2.826
70233SOL    HW112596  12.043  13.777   2.863
70233SOL    HW212597  12.189  13.815   2.881
70234SOL     OW12598   2.046   9.850  11.952
70234SOL    HW112599   2.060   9.876  11.861
70234SOL    HW212600   2.108   9.779  11.967
70235SOL     OW12601   7.683   6.139  10.225
70235SOL    HW112602   7.644   6.225  10.237
70235SOL    HW212603   7.611   6.078  10.242
70236SOL     OW12604   7.068  13.273   6.379
70236SOL    HW112605   7.126  13.242   6.448
70236SOL    HW212606   7.113  13.349   6.342
70237SOL     OW12607  11.675  11.139   5.934
70237SOL    HW112608  11.729  11.184   6.000
70237SOL    HW212609  11.591  11.125   5.978
70238SOL     OW12610   4.173   7.108   5.911
70238SOL    HW112611   4.111   7.136   5.979
70238SOL    HW212612   4.206   7.190   5.874
70239SOL     OW12613   3.941  11.705   0.936
70239SOL    HW112614   3.878  11.670   0.998
70239SOL    HW212615   3.988  11.772   0.984
70240SOL     OW12616   5.258   6.037   1.960
70240SOL    HW112617   5.319   6.016   2.031
70240SOL    HW212618   5.206   5.958   1.949
70241SOL     OW12619   0.676   4.603  10.389
70241SOL    HW112620   0.725   4.627  10.467
70241SOL    HW212621   0.734   4.545  10.340
70242SOL     OW12622   3.330   1.021  11.796
70242SOL    HW112623   3.280   1.019  11.714
70242SOL    HW212624   3.326   0.931  11.829
70243SOL     OW12625   7.473   1.626   2.875
70243SOL    HW112626   7.554   1.583   2.847
70243SOL    HW212627   7.403   1.579   2.829
70244SOL     OW12628   4.249  12.965   2.531
70244SOL    HW112629   4.305  13.002   2.463
70244SOL    HW212630   4.263  13.021   2.607
70245SOL     OW12631   3.645  10.721  11.040
70245SOL    HW112632   3.653  10.759  10.953
70245SOL    HW212633   3.634  10.796  11.098
70246SOL     OW12634  12.348   9.685   7.353
70246SOL    HW112635  12.306   9.599   7.348
70246SOL    HW212636  12.348   9.706   7.447
70247SOL     OW12637   3.009   2.271   8.524
70247SOL    HW112638   3.050   2.250   8.608
70247SOL    HW212639   3.059   2.222   8.459
70248SOL     OW12640  10.673   8.642  10.501
70248SOL    HW112641  10.700   8.703  10.433
70248SOL    HW212642  10.720   8.561  10.481
70249SOL     OW12643  12.523   1.409  12.472
70249SOL    HW112644  12.428   1.404  12.482
70249SOL    HW212645  12.551   1.318  12.460
70250SOL     OW12646  13.676   3.032   1.891
70250SOL    HW112647  13.689   2.985   1.973
70250SOL    HW212648  13.704   2.971   1.823
70251SOL     OW12649  13.675   0.551  12.369
70251SOL    HW112650  13.654   0.479  12.309
70251SOL    HW212651  13.737   0.512  12.431
70252SOL     OW12652   4.675   6.469  14.020
70252SOL    HW112653   4.655   6.431  14.105
70252SOL    HW212654   4.610   6.539  14.009
70253SOL     OW12655  10.664   1.766   2.183
70253SOL    HW112656  10.723   1.839   2.203
70253SOL    HW212657  10.711   1.688   2.214
70254SOL     OW12658   2.136  13.579   2.944
70254SOL    HW112659   2.151  13.671   2.966
70254SOL    HW212660   2.163  13.571   2.853
70255SOL     OW12661  13.989   0.699  14.065
70255SOL    HW112662  14.044   0.723  13.991
70255SOL    HW212663  13.996   0.774  14.125
70256SOL     OW12664   4.362  13.688   3.686
70256SOL    HW112665   4.394  13.598   3.690
70256SOL    HW212666   4.287  13.689   3.745
70257SOL     OW12667   1.384   3.172   8.977
70257SOL    HW112668   1.325   3.217   9.036
70257SOL    HW212669   1.329   3.140   8.905
70258SOL     OW12670   0.442   0.133   7.537
70258SOL    HW112671   0.432   0.106   7.629
70258SOL    HW212672   0.503   0.069   7.500
70259SOL     OW12673   3.675   2.841  12.983
70259SOL    HW112674   3.655   2.878  12.897
70259SOL    HW212675   3.690   2.748  12.967
70260SOL     OW12676  14.753   5.900   8.870
70260SOL    HW112677  14.767   5.940   8.956
70260SOL    HW212678  14.768   5.807   8.884
70261SOL     OW12679  10.829   9.495   6.878
70261SOL    HW112680  10.918   9.460   6.874
70261SOL    HW212681  10.779   9.428   6.924
70262SOL     OW12682   6.025  14.508   5.178
70262SOL    HW112683   5.984  14.511   5.264
70262SOL    HW212684   5.963  14.459   5.124
70263SOL     OW12685   0.719   0.882   1.566
70263SOL    HW112686   0.731   0.830   1.487
70263SOL    HW212687   0.693   0.969   1.534
70264SOL     OW12688   5.030  10.801  10.988
70264SOL    HW112689   5.021  10.705  10.992
70264SOL    HW212690   5.112  10.815  10.941
70265SOL     OW12691  14.061   9.197   6.620
70265SOL    HW112692  13.993   9.157   6.566
70265SOL    HW212693  14.031   9.287   6.635
70266SOL     OW12694   6.712   7.730   9.037
70266SOL    HW112695   6.661   7.722   9.117
70266SOL    HW212696   6.713   7.641   9.001
70267SOL     OW12697   3.611   5.722  12.190
70267SOL    HW112698   3.675   5.681  12.132
70267SOL    HW212699   3.631   5.688  12.277
70268SOL     OW12700   1.198  10.680  11.630
70268SOL    HW112701   1.196  10.584  11.634
70268SOL    HW212702   1.149  10.702  11.551
70269SOL     OW12703   6.188   1.390   2.696
70269SOL    HW112704   6.238   1.453   2.645
70269SOL    HW212705   6.096   1.411   2.678
70270SOL     OW12706  10.358   1.994  11.709
70270SOL    HW112707  10.401   1.914  11.677
70270SOL    HW212708  10.268   1.968  11.725
70271SOL     OW12709   9.600   1.738   3.021
70271SOL    HW112710   9.539   1.784   3.078
70271SOL    HW212711   9.665   1.701   3.081
70272SOL     OW12712   6.622   5.932   4.080
70272SOL    HW112713   6.615   5.872   4.154
70272SOL    HW212714   6.537   5.925   4.035
70273SOL     OW12715   9.462   4.004  13.100
70273SOL    HW112716   9.548   4.004  13.143
70273SOL    HW212717   9.476   4.056  13.020
70274SOL     OW12718   8.052  11.791   8.192
70274SOL    HW112719   8.046  11.880   8.156
70274SOL    HW212720   8.006  11.736   8.129
70275SOL     OW12721   9.449  13.476   4.562
70275SOL    HW112722   9.462  13.493   4.469
70275SOL    HW212723   9.371  13.527   4.585
70276SOL     OW12724  13.817   3.156  12.495
70276SOL    HW112725  13.873   3.214  12.443
70276SOL    HW212726  13.740   3.208  12.514
70277SOL     OW12727   0.822  14.132  10.614
70277SOL    HW112728   0.747  14.084  10.650
70277SOL    HW212729   0.815  14.119  10.519
70278SOL     OW12730  11.883   6.994   9.192
70278SOL    HW112731  11.883   7.084   9.224
70278SOL    HW212732  11.826   6.947   9.252
70279SOL     OW12733   0.503  14.364   1.573
70279SOL    HW112734   0.461  14.444   1.605
70279SOL    HW212735   0.431  14.303   1.561
70280SOL     OW12736   0.461   7.612   5.490
70280SOL    HW112737   0.537   7.572   5.447
70280SOL    HW212738   0.499   7.662   5.563
70281SOL     OW12739   2.484  14.303   9.482
70281SOL    HW112740   2.432  14.252   9.420
70281SOL    HW212741   2.564  14.251   9.495
70282SOL     OW12742  14.478  11.376   7.259
70282SOL    HW112743  14.393  11.377   7.304
70282SOL    HW212744  14.489  11.466   7.227
70283SOL     OW12745   2.983   3.489  11.524
70283SOL    HW112746   3.029   3.418  11.478
70283SOL    HW212747   3.025   3.493  11.610
70284SOL     OW12748   6.516   6.393  14.047
70284SOL    HW112749   6.456   6.429  13.981
70284SOL    HW212750   6.536   6.468  14.104
70285SOL     OW12751   7.228  11.070   2.037
70285SOL    HW112752   7.233  11.036   1.948
70285SOL    HW212753   7.315  11.106   2.054
70286SOL     OW12754   1.231   9.678  13.488
70286SOL    HW112755   1.166   9.712  13.549
70286SOL    HW212756   1.292   9.750  13.476
70287SOL     OW12757  13.851  13.178   6.670
70287SOL    HW112758  13.898  13.262   6.664
70287SOL    HW212759  13.920  13.113   6.681
70288SOL     OW12760   3.231  12.707  14.755
70288SOL    HW112761   3.170  12.739  14.688
70288SOL    HW212762   3.297  12.776  14.761
70289SOL     OW12763  10.646   5.216   4.707
70289SOL    HW112764  10.717   5.218   4.770
70289SOL    HW212765  10.596   5.296   4.722
70290SOL     OW12766   8.511  13.036  11.658
70290SOL    HW112767   8.418  13.044  11.679
70290SOL    HW212768   8.554  13.024  11.743
70291SOL     OW12769   4.723   6.847  12.358
70291SOL    HW112770   4.733   6.808  12.271
70291SOL    HW212771   4.629   6.860  12.367
70292SOL     OW12772   0.392   5.177  10.715
70292SOL    HW112773   0.360   5.168  10.625
70292SOL    HW212774   0.320   5.220  10.762
70293SOL     OW12775   4.618  14.381   8.568
70293SOL    HW112776   4.703  14.354   8.534
70293SOL    HW212777   4.584  14.440   8.501
70294SOL     OW12778  13.983  14.541   5.272
70294SOL    HW112779  14.056  14.498   5.226
70294SOL    HW212780  13.995  14.517   5.364
70295SOL     OW12781   4.908   4.842   3.796
70295SOL    HW112782   4.855   4.904   3.746
70295SOL    HW212783   4.895   4.866   3.887
70296SOL     OW12784   0.971  10.973   6.465
70296SOL    HW112785   0.952  10.924   6.385
70296SOL    HW212786   0.945  11.063   6.445
70297SOL     OW12787  10.397  13.286   4.705
70297SOL    HW112788  10.399  13.200   4.746
70297SOL    HW212789  10.433  13.272   4.618
70298SOL     OW12790   0.750  13.206   9.661
70298SOL    HW112791   0.823  13.166   9.614
70298SOL    HW212792   0.717  13.138   9.719
70299SOL     OW12793   8.900  12.828   8.138
70299SOL    HW112794   8.966  12.819   8.070
70299SOL    HW212795   8.913  12.753   8.195
70300SOL     OW12796  11.199   2.577  11.621
70300SOL    HW112797  11.161   2.629  11.551
70300SOL    HW212798  11.124   2.549  11.673
70301SOL     OW12799  10.594   3.563   4.667
70301SOL    HW112800  10.684   3.580   4.639
70301SOL    HW212801  10.602   3.535   4.758
70302SOL     OW12802  12.641   1.856   3.112
70302SOL    HW112803  12.681   1.818   3.191
70302SOL    HW212804  12.566   1.905   3.144
70303SOL     OW12805  12.069  12.746   0.828
70303SOL    HW112806  12.042  12.658   0.855
70303SOL    HW212807  12.063  12.798   0.908
70304SOL     OW12808   9.129  12.071   7.388
70304SOL    HW112809   9.186  12.018   7.332
70304SOL    HW212810   9.186  12.140   7.422
70305SOL     OW12811   4.908  11.464   4.937
70305SOL    HW112812   4.945  11.527   4.876
70305SOL    HW212813   4.939  11.493   5.023
70306SOL     OW12814   9.089  14.620   2.389
70306SOL    HW112815   9.149  14.563   2.437
70306SOL    HW212816   9.084  14.582   2.301
70307SOL     OW12817  11.909   4.349  11.912
70307SOL    HW112818  11.910   4.444  11.921
70307SOL    HW212819  11.946   4.317  11.994
70308SOL     OW12820   4.887   6.189   3.823
70308SOL    HW112821   4.969   6.147   3.801
70308SOL    HW212822   4.906   6.240   3.901
70309SOL     OW12823   7.869  12.455   8.802
70309SOL    HW112824   7.822  12.372   8.814
70309SOL    HW212825   7.802  12.515   8.768
70310SOL     OW12826   5.067   2.808  13.191
70310SOL    HW112827   5.149   2.858  13.180
70310SOL    HW212828   5.094   2.717  13.185
70311SOL     OW12829   8.928   9.198  10.708
70311SOL    HW112830   8.836   9.188  10.683
70311SOL    HW212831   8.928   9.271  10.771
70312SOL     OW12832  14.114  14.315  14.729
70312SOL    HW112833  14.131  14.400  14.689
70312SOL    HW212834  14.188  14.300  14.787
70313SOL     OW12835   7.699   3.796  11.080
70313SOL    HW112836   7.786   3.819  11.113
70313SOL    HW212837   7.666   3.732  11.144
70314SOL     OW12838   8.740  11.986  14.385
70314SOL    HW112839   8.665  11.963  14.330
70314SOL    HW212840   8.802  12.026  14.325
70315SOL     OW12841   4.781   4.656   7.397
70315SOL    HW112842   4.688   4.649   7.419
70315SOL    HW212843   4.782   4.664   7.301
70316SOL     OW12844  10.287   4.754   4.795
70316SOL    HW112845  10.308   4.784   4.707
70316SOL    HW212846  10.279   4.659   4.788
70317SOL     OW12847   1.459  11.815  13.227
70317SOL    HW112848   1.486  11.851  13.143
70317SOL    HW212849   1.464  11.889  13.288
70318SOL     OW12850  12.932   6.902   4.128
70318SOL    HW112851  12.960   6.823   4.173
70318SOL    HW212852  12.890   6.955   4.195
70319SOL     OW12853   9.066  14.101  14.681
70319SOL    HW112854   9.149  14.072  14.718
70319SOL    HW212855   9.089  14.137  14.596
70320SOL     OW12856   3.255   3.866   0.422
70320SOL    HW112857   3.216   3.793   0.373
70320SOL    HW212858   3.337   3.830   0.456
70321SOL     OW12859  12.333   9.198   8.148
70321SOL    HW112860  12.283   9.263   8.099
70321SOL    HW212861  12.423   9.208   8.119
70322SOL     OW12862   7.932  12.549  14.071
70322SOL    HW112863   8.004  12.502  14.029
70322SOL    HW212864   7.975  12.606  14.134
70323SOL     OW12865   3.926   4.625  14.835
70323SOL    HW112866   3.975   4.653   0.024
70323SOL    HW212867   3.842   4.595  14.871
70324SOL     OW12868   1.714   3.331   1.642
70324SOL    HW112869   1.641   3.380   1.677
70324SOL    HW212870   1.682   3.241   1.633
70325SOL     OW12871   7.887   2.151  10.093
70325SOL    HW112872   7.911   2.063  10.066
70325SOL    HW212873   7.793   2.147  10.110
70326SOL     OW12874   1.633   1.939  11.291
70326SOL    HW112875   1.655   1.847  11.275
70326SOL    HW212876   1.694   1.988  11.236
70327SOL     OW12877   7.166  12.331   5.713
70327SOL    HW112878   7.164  12.235   5.720
70327SOL    HW212879   7.219  12.347   5.634
70328SOL     OW12880   0.031   5.720   7.299
70328SOL    HW112881   0.107   5.771   7.271
70328SOL    HW212882  14.866   5.710   7.220
70329SOL     OW12883   0.153  13.899  13.109
70329SOL    HW112884   0.157  13.924  13.202
70329SOL    HW212885   0.072  13.848  13.101
70330SOL     OW12886   8.194   6.398   4.437
70330SOL    HW112887   8.191   6.475   4.381
70330SOL    HW212888   8.284   6.366   4.429
70331SOL     OW12889   6.320   8.146   7.993
70331SOL    HW112890   6.390   8.203   7.960
70331SOL    HW212891   6.251   8.206   8.019
70332SOL     OW12892   6.085   4.840   7.725
70332SOL    HW112893   6.179   4.820   7.720
70332SOL    HW212894   6.081   4.935   7.722
70333SOL     OW12895  14.875  10.696   2.051
70333SOL    HW112896  14.857  10.635   2.122
70333SOL    HW212897   0.040  10.765   2.092
70334SOL     OW12898   3.918   2.912   0.718
70334SOL    HW112899   3.845   2.858   0.749
70334SOL    HW212900   3.973   2.925   0.795
70335SOL     OW12901  12.625  10.620   8.451
70335SOL    HW112902  12.546  10.612   8.505
70335SOL    HW212903  12.635  10.714   8.437
70336SOL     OW12904   2.449  13.604  13.697
70336SOL    HW112905   2.459  13.514  13.730
70336SOL    HW212906   2.505  13.657  13.753
70337SOL     OW12907   8.279  11.826   3.225
70337SOL    HW112908   8.266  11.829   3.131
70337SOL    HW212909   8.196  11.856   3.262
70338SOL     OW12910   7.539   0.070  14.854
70338SOL    HW112911   7.459   0.097  14.809
70338SOL    HW212912   7.589   0.022  14.788
70339SOL     OW12913   5.045   7.628  11.838
70339SOL    HW112914   5.019   7.551  11.889
70339SOL    HW212915   4.969   7.686  11.842
70340SOL     OW12916   7.207   0.823   5.191
70340SOL    HW112917   7.230   0.737   5.225
70340SOL    HW212918   7.128   0.808   5.138
70341SOL     OW12919   4.353   9.389   5.792
70341SOL    HW112920   4.318   9.474   5.767
70341SOL    HW212921   4.410   9.364   5.719
70342SOL     OW12922   0.522   3.969   5.257
70342SOL    HW112923   0.453   3.985   5.192
70342SOL    HW212924   0.603   3.994   5.213
70343SOL     OW12925  13.230   1.453  13.376
70343SOL    HW112926  13.293   1.417  13.314
70343SOL    HW212927  13.283   1.495  13.444
70344SOL     OW12928   2.150   1.822  12.375
70344SOL    HW112929   2.123   1.914  12.376
70344SOL    HW212930   2.153   1.797  12.467
70345SOL     OW12931   8.609   2.691   0.614
70345SOL    HW112932   8.585   2.777   0.648
70345SOL    HW212933   8.689   2.668   0.661
70346SOL     OW12934   6.929   5.893   9.352
70346SOL    HW112935   6.950   5.981   9.381
70346SOL    HW212936   6.835   5.885   9.365
70347SOL     OW12937  11.531  12.964  10.612
70347SOL    HW112938  11.498  12.885  10.656
70347SOL    HW212939  11.482  12.967  10.530
70348SOL     OW12940  12.109   7.890   6.839
70348SOL    HW112941  12.099   7.980   6.808
70348SOL    HW212942  12.059   7.887   6.921
70349SOL     OW12943   2.373   2.384   6.506
70349SOL    HW112944   2.401   2.473   6.485
70349SOL    HW212945   2.363   2.341   6.421
70350SOL     OW12946   6.370   3.943   4.444
70350SOL    HW112947   6.405   3.898   4.368
70350SOL    HW212948   6.423   4.022   4.452
70351SOL     OW12949   8.419   3.666   5.405
70351SOL    HW112950   8.502   3.642   5.364
70351SOL    HW212951   8.385   3.738   5.351
70352SOL     OW12952   1.841  14.603   2.959
70352SOL    HW112953   1.805  14.525   2.916
70352SOL    HW212954   1.930  14.578   2.983
70353SOL     OW12955   3.250   8.020   3.647
70353SOL    HW112956   3.247   7.957   3.575
70353SOL    HW212957   3.322   8.079   3.624
70354SOL     OW12958  10.206  10.085   6.896
70354SOL    HW112959  10.298  10.075   6.921
70354SOL    HW212960  10.157  10.066   6.975
70355SOL     OW12961   4.862   1.059   2.877
70355SOL    HW112962   4.852   0.999   2.951
70355SOL    HW212963   4.776   1.064   2.837
70356SOL     OW12964   6.240   8.892  13.085
70356SOL    HW112965   6.249   8.915  12.992
70356SOL    HW212966   6.150   8.862  13.093
70357SOL     OW12967   0.456   3.071   9.812
70357SOL    HW112968   0.470   3.018   9.733
70357SOL    HW212969   0.401   3.143   9.782
70358SOL     OW12970   5.602   9.137  12.142
70358SOL    HW112971   5.593   9.123  12.236
70358SOL    HW212972   5.689   9.176  12.132
70359SOL     OW12973  10.937   7.571   2.032
70359SOL    HW112974  10.901   7.612   2.111
70359SOL    HW212975  10.993   7.501   2.065
70360SOL     OW12976  11.181   8.207  12.148
70360SOL    HW112977  11.209   8.280  12.094
70360SOL    HW212978  11.246   8.200  12.217
70361SOL     OW12979  12.054  12.204   1.943
70361SOL    HW112980  12.040  12.161   1.859
70361SOL    HW212981  12.014  12.290   1.933
70362SOL     OW12982   4.333  10.689  14.783
70362SOL    HW112983   4.368  10.761  14.835
70362SOL    HW212984   4.383  10.612  14.812
70363SOL     OW12985   4.294  13.673   8.000
70363SOL    HW112986   4.235  13.747   8.012
70363SOL    HW212987   4.250  13.600   8.043
70364SOL     OW12988   7.629   7.326  12.651
70364SOL    HW112989   7.571   7.320  12.727
70364SOL    HW212990   7.639   7.236  12.621
70365SOL     OW12991   8.526   6.344  14.243
70365SOL    HW112992   8.507   6.308  14.156
70365SOL    HW212993   8.619   6.363  14.242
70366SOL     OW12994  13.094   1.217  10.396
70366SOL    HW112995  13.096   1.289  10.333
70366SOL    HW212996  13.175   1.168  10.378
70367SOL     OW12997   1.910   3.202   8.384
70367SOL    HW112998   1.925   3.164   8.471
70367SOL    HW212999   1.969   3.154   8.326
70368SOL     OW13000  11.269   8.526   2.461
70368SOL    HW113001  11.350   8.570   2.434
70368SOL    HW213002  11.214   8.597   2.493
70369SOL     OW13003   1.392  13.492  11.727
70369SOL    HW113004   1.440  13.445  11.659
70369SOL    HW213005   1.300  13.472  11.709
70370SOL     OW13006   4.637  10.690   9.435
70370SOL    HW113007   4.704  10.642   9.484
70370SOL    HW213008   4.590  10.739   9.502
70371SOL     OW13009   7.626  13.196   6.178
70371SOL    HW113010   7.697  13.257   6.196
70371SOL    HW213011   7.641  13.169   6.087
70372SOL     OW13012  13.157  11.198   6.392
70372SOL    HW113013  13.132  11.214   6.483
70372SOL    HW213014  13.147  11.104   6.380
70373SOL     OW13015   1.776  12.658   8.093
70373SOL    HW113016   1.789  12.602   8.169
70373SOL    HW213017   1.849  12.720   8.095
70374SOL     OW13018  11.620   6.940   0.374
70374SOL    HW113019  11.629   6.889   0.293
70374SOL    HW213020  11.607   6.875   0.443
70375SOL     OW13021  13.508   7.165  13.614
70375SOL    HW113022  13.566   7.088  13.612
70375SOL    HW213023  13.440   7.142  13.677
70376SOL     OW13024   9.019  10.648  14.021
70376SOL    HW113025   9.110  10.674  14.013
70376SOL    HW213026   8.971  10.730  14.034
70377SOL     OW13027  12.702   1.194   0.679
70377SOL    HW113028  12.673   1.107   0.706
70377SOL    HW213029  12.626   1.232   0.635
70378SOL     OW13030   7.255  12.762   4.720
70378SOL    HW113031   7.267  12.856   4.707
70378SOL    HW213032   7.340  12.731   4.751
70379SOL     OW13033   9.171   2.149  11.009
70379SOL    HW113034   9.115   2.159  11.085
70379SOL    HW213035   9.250   2.106  11.043
70380SOL     OW13036   3.929  12.228   0.859
70380SOL    HW113037   3.941  12.314   0.820
70380SOL    HW213038   3.964  12.237   0.948
70381SOL     OW13039   5.768   0.764   8.050
70381SOL    HW113040   5.747   0.697   7.985
70381SOL    HW213041   5.696   0.828   8.043
70382SOL     OW13042  11.165   7.947   8.375
70382SOL    HW113043  11.136   7.903   8.295
70382SOL    HW213044  11.088   7.949   8.431
70383SOL     OW13045   6.228   2.420   3.839
70383SOL    HW113046   6.302   2.479   3.827
70383SOL    HW213047   6.198   2.436   3.928
70384SOL     OW13048  10.679   2.937   4.948
70384SOL    HW113049  10.657   3.030   4.954
70384SOL    HW213050  10.596   2.892   4.963
70385SOL     OW13051   7.837  13.223   3.472
70385SOL    HW113052   7.786  13.285   3.524
70385SOL    HW213053   7.778  13.150   3.456
70386SOL     OW13054  14.145   0.390   8.097
70386SOL    HW113055  14.090   0.405   8.021
70386SOL    HW213056  14.084   0.388   8.171
70387SOL     OW13057  14.342   9.851  14.585
70387SOL    HW113058  14.381   9.911  14.522
70387SOL    HW213059  14.380   9.766  14.565
70388SOL     OW13060  11.899   0.946   3.529
70388SOL    HW113061  11.855   1.006   3.590
70388SOL    HW213062  11.831   0.926   3.464
70389SOL     OW13063  10.654  12.791   7.494
70389SOL    HW113064  10.671  12.868   7.549
70389SOL    HW213065  10.638  12.720   7.556
70390SOL     OW13066   6.418   5.382   5.740
70390SOL    HW113067   6.391   5.304   5.691
70390SOL    HW213068   6.458   5.439   5.675
70391SOL     OW13069  12.686  10.640   0.013
70391SOL    HW113070  12.612  10.628   0.072
70391SOL    HW213071  12.693  10.557  14.854
70392SOL     OW13072   1.706   7.980   3.540
70392SOL    HW113073   1.710   8.045   3.610
70392SOL    HW213074   1.613   7.978   3.515
70393SOL     OW13075  13.085   4.242  13.546
70393SOL    HW113076  13.028   4.304  13.592
70393SOL    HW213077  13.062   4.252  13.454
70394SOL     OW13078   3.083   9.124   9.077
70394SOL    HW113079   2.991   9.148   9.087
70394SOL    HW213080   3.115   9.114   9.166
70395SOL     OW13081  12.111   4.914  10.281
70395SOL    HW113082  12.130   4.999  10.320
70395SOL    HW213083  12.029   4.887  10.322
70396SOL     OW13084   3.647   4.290  13.885
70396SOL    HW113085   3.712   4.339  13.835
70396SOL    HW213086   3.663   4.198  13.861
70397SOL     OW13087  13.859   1.856   1.621
70397SOL    HW113088  13.765   1.855   1.636
70397SOL    HW213089  13.883   1.949   1.621
70398SOL     OW13090  10.151   5.223   0.033
70398SOL    HW113091  10.119   5.179  14.842
70398SOL    HW213092  10.072   5.236   0.087
70399SOL     OW13093  13.424   3.200   4.428
70399SOL    HW113094  13.422   3.274   4.489
70399SOL    HW213095  13.458   3.238   4.347
70400SOL     OW13096  14.281  11.173  10.658
70400SOL    HW113097  14.374  11.188  10.673
70400SOL    HW213098  14.252  11.126  10.736
70401SOL     OW13099   0.652   8.761   9.497
70401SOL    HW113100   0.679   8.815   9.422
70401SOL    HW213101   0.655   8.671   9.463
70402SOL     OW13102   3.975   0.133  10.537
70402SOL    HW113103   3.957   0.205  10.477
70402SOL    HW213104   3.963   0.171  10.624
70403SOL     OW13105  12.224   7.178   5.895
70403SOL    HW113106  12.293   7.153   5.833
70403SOL    HW213107  12.268   7.234   5.959
70404SOL     OW13108   7.428  10.520  13.320
70404SOL    HW113109   7.361  10.583  13.347
70404SOL    HW213110   7.489  10.517  13.394
70405SOL     OW13111   3.085  14.121   8.644
70405SOL    HW113112   3.004  14.074   8.663
70405SOL    HW213113   3.110  14.159   8.728
70406SOL     OW13114   1.145   3.989  12.750
70406SOL    HW113115   1.238   3.972  12.739
70406SOL    HW213116   1.141   4.075  12.793
70407SOL     OW13117   2.555   7.951   7.683
70407SOL    HW113118   2.636   7.950   7.733
70407SOL    HW213119   2.578   7.993   7.600
70408SOL     OW13120  14.495   1.593   4.225
70408SOL    HW113121  14.423   1.552   4.175
70408SOL    HW213122  14.559   1.616   4.158
70409SOL     OW13123   1.824   0.996   4.353
70409SOL    HW113124   1.827   0.991   4.449
70409SOL    HW213125   1.845   1.087   4.333
70410SOL     OW13126   6.148   3.414   5.993
70410SOL    HW113127   6.173   3.466   6.070
70410SOL    HW213128   6.231   3.394   5.951
70411SOL     OW13129   9.167   6.528   5.806
70411SOL    HW113130   9.120   6.593   5.754
70411SOL    HW213131   9.141   6.546   5.896
70412SOL     OW13132   1.730   9.628  11.022
70412SOL    HW113133   1.748   9.553  11.079
70412SOL    HW213134   1.798   9.692  11.044
70413SOL     OW13135  10.994  13.230   2.916
70413SOL    HW113136  11.046  13.253   2.992
70413SOL    HW213137  11.040  13.156   2.876
70414SOL     OW13138   9.080   7.282   4.258
70414SOL    HW113139   9.143   7.265   4.328
70414SOL    HW213140   9.130   7.332   4.193
70415SOL     OW13141   4.531   6.647  11.954
70415SOL    HW113142   4.586   6.627  11.879
70415SOL    HW213143   4.453   6.688  11.917
70416SOL     OW13144  10.416   2.032   8.068
70416SOL    HW113145  10.393   2.111   8.018
70416SOL    HW213146  10.371   1.961   8.022
70417SOL     OW13147   7.458   4.592   8.434
70417SOL    HW113148   7.499   4.657   8.491
70417SOL    HW213149   7.364   4.609   8.441
70418SOL     OW13150   7.670   6.174   2.153
70418SOL    HW113151   7.746   6.132   2.193
70418SOL    HW213152   7.690   6.178   2.059
70419SOL     OW13153   8.437  14.346  11.341
70419SOL    HW113154   8.396  14.311  11.262
70419SOL    HW213155   8.523  14.376  11.311
70420SOL     OW13156   6.284   5.532  14.842
70420SOL    HW113157   6.199   5.576  14.851
70420SOL    HW213158   6.327   5.580  14.771
70421SOL     OW13159   2.615   5.060   8.152
70421SOL    HW113160   2.686   5.090   8.096
70421SOL    HW213161   2.535   5.083   8.105
70422SOL     OW13162  12.650   5.460  14.375
70422SOL    HW113163  12.735   5.430  14.344
70422SOL    HW213164  12.587   5.423  14.312
70423SOL     OW13165  10.039   1.838  11.547
70423SOL    HW113166  10.131   1.834  11.519
70423SOL    HW213167  10.023   1.930  11.566
70424SOL     OW13168  12.594  10.258   1.371
70424SOL    HW113169  12.597  10.328   1.436
70424SOL    HW213170  12.590  10.304   1.287
70425SOL     OW13171   5.813   9.532   6.343
70425SOL    HW113172   5.756   9.518   6.267
70425SOL    HW213173   5.901   9.542   6.306
70426SOL     OW13174   4.123   0.376   7.152
70426SOL    HW113175   4.094   0.441   7.088
70426SOL    HW213176   4.061   0.385   7.225
70427SOL     OW13177   0.999   0.006  10.518
70427SOL    HW113178   0.923  14.853  10.477
70427SOL    HW213179   1.073  14.838  10.490
70428SOL     OW13180  14.390  11.685   0.909
70428SOL    HW113181  14.370  11.646   0.825
70428SOL    HW213182  14.449  11.758   0.889
70429SOL     OW13183  12.618  12.991   9.927
70429SOL    HW113184  12.597  12.922   9.863
70429SOL    HW213185  12.644  13.066   9.873
70430SOL     OW13186  11.546   5.677   4.637
70430SOL    HW113187  11.549   5.591   4.595
70430SOL    HW213188  11.632   5.688   4.676
70431SOL     OW13189  11.239   8.092   8.105
70431SOL    HW113190  11.329   8.061   8.093
70431SOL    HW213191  11.189   8.013   8.126
70432SOL     OW13192  14.782   8.356  11.029
70432SOL    HW113193  14.814   8.297  10.960
70432SOL    HW213194  14.857   8.412  11.050
70433SOL     OW13195  13.760   8.498   5.327
70433SOL    HW113196  13.821   8.497   5.401
70433SOL    HW213197  13.697   8.567   5.349
70434SOL     OW13198   3.497   2.419  12.912
70434SOL    HW113199   3.565   2.484  12.895
70434SOL    HW213200   3.419   2.455  12.871
70435SOL     OW13201   2.149  13.825   3.896
70435SOL    HW113202   2.068  13.872   3.915
70435SOL    HW213203   2.212  13.894   3.875
70436SOL     OW13204  12.180   8.976   4.478
70436SOL    HW113205  12.233   9.056   4.478
70436SOL    HW213206  12.181   8.948   4.569
70437SOL     OW13207  11.839   3.733   0.889
70437SOL    HW113208  11.882   3.659   0.846
70437SOL    HW213209  11.883   3.741   0.974
70438SOL     OW13210  12.407   6.827  12.941
70438SOL    HW113211  12.431   6.916  12.916
70438SOL    HW213212  12.431   6.821  13.034
70439SOL     OW13213  10.198   2.946  12.538
70439SOL    HW113214  10.277   2.902  12.505
70439SOL    HW213215  10.126   2.896  12.501
70440SOL     OW13216   5.342   4.600   3.847
70440SOL    HW113217   5.293   4.678   3.819
70440SOL    HW213218   5.298   4.527   3.802
70441SOL     OW13219  12.302  12.556   4.999
70441SOL    HW113220  12.397  12.556   4.985
70441SOL    HW213221  12.265  12.552   4.911
70442SOL     OW13222   0.253   5.351   9.918
70442SOL    HW113223   0.211   5.416   9.862
70442SOL    HW213224   0.248   5.270   9.869
70443SOL     OW13225  13.433  13.534   5.818
70443SOL    HW113226  13.449  13.607   5.759
70443SOL    HW213227  13.476  13.559   5.900
70444SOL     OW13228   9.609  13.502   4.816
70444SOL    HW113229   9.586  13.470   4.729
70444SOL    HW213230   9.529  13.492   4.867
70445SOL     OW13231  11.635   8.959  13.516
70445SOL    HW113232  11.680   8.928  13.437
70445SOL    HW213233  11.705   8.996  13.570
70446SOL     OW13234  10.670   4.537  13.716
70446SOL    HW113235  10.691   4.581  13.633
70446SOL    HW213236  10.579   4.509  13.705
70447SOL     OW13237   0.262   6.405   2.822
70447SOL    HW113238   0.268   6.463   2.898
70447SOL    HW213239   0.343   6.355   2.824
70448SOL     OW13240   6.597  13.099   2.748
70448SOL    HW113241   6.689  13.119   2.762
70448SOL    HW213242   6.594  13.054   2.664
70449SOL     OW13243   2.618   8.020   6.077
70449SOL    HW113244   2.630   8.110   6.107
70449SOL    HW213245   2.702   7.996   6.038
70450SOL     OW13246   4.524   4.062   4.301
70450SOL    HW113247   4.473   4.140   4.322
70450SOL    HW213248   4.460   3.998   4.269
70451SOL     OW13249   2.792   7.306   5.040
70451SOL    HW113250   2.841   7.382   5.008
70451SOL    HW213251   2.771   7.256   4.961
70452SOL     OW13252   1.712   1.461  10.468
70452SOL    HW113253   1.751   1.549  10.476
70452SOL    HW213254   1.646   1.458  10.538
70453SOL     OW13255   7.296   6.829  11.431
70453SOL    HW113256   7.238   6.901  11.406
70453SOL    HW213257   7.246   6.780  11.496
70454SOL     OW13258   0.374  13.414  12.175
70454SOL    HW113259   0.375  13.464  12.093
70454SOL    HW213260   0.324  13.469  12.236
70455SOL     OW13261  13.400   0.892   3.705
70455SOL    HW113262  13.494   0.880   3.691
70455SOL    HW213263  13.360   0.824   3.651
70456SOL     OW13264   8.376   9.656   8.837
70456SOL    HW113265   8.331   9.600   8.900
70456SOL    HW213266   8.310   9.722   8.813
70457SOL     OW13267   8.750   0.475   4.844
70457SOL    HW113268   8.777   0.466   4.753
70457SOL    HW213269   8.750   0.569   4.861
70458SOL     OW13270   8.530   7.566  13.638
70458SOL    HW113271   8.622   7.593  13.631
70458SOL    HW213272   8.534   7.480  13.679
70459SOL     OW13273  13.324  12.065  10.804
70459SOL    HW113274  13.401  12.122  10.807
70459SOL    HW213275  13.297  12.067  10.712
70460SOL     OW13276   7.085  14.749  14.856
70460SOL    HW113277   7.157  14.722   0.025
70460SOL    HW213278   7.023  14.792   0.027
70461SOL     OW13279   9.490   0.535   7.410
70461SOL    HW113280   9.547   0.567   7.479
70461SOL    HW213281   9.539   0.464   7.368
70462SOL     OW13282   7.616  10.655   7.126
70462SOL    HW113283   7.529  10.642   7.088
70462SOL    HW213284   7.616  10.602   7.205
70463SOL     OW13285   4.508  11.114   1.168
70463SOL    HW113286   4.585  11.152   1.126
70463SOL    HW213287   4.436  11.169   1.139
70464SOL     OW13288   7.273   9.917   9.440
70464SOL    HW113289   7.262   9.834   9.488
70464SOL    HW213290   7.367   9.929   9.434
70465SOL     OW13291  10.089   5.234   2.505
70465SOL    HW113292  10.072   5.327   2.521
70465SOL    HW213293  10.003   5.192   2.512
70466SOL     OW13294   3.901   0.750   3.710
70466SOL    HW113295   3.935   0.761   3.799
70466SOL    HW213296   3.840   0.823   3.698
70467SOL     OW13297   8.760   6.266   7.920
70467SOL    HW113298   8.739   6.293   7.830
70467SOL    HW213299   8.696   6.311   7.974
70468SOL     OW13300   9.928   8.074   7.553
70468SOL    HW113301   9.931   8.008   7.483
70468SOL    HW213302   9.855   8.131   7.528
70469SOL     OW13303   2.076   1.680   9.084
70469SOL    HW113304   1.996   1.729   9.101
70469SOL    HW213305   2.083   1.677   8.989
70470SOL     OW13306  11.770  10.686  11.292
70470SOL    HW113307  11.752  10.598  11.323
70470SOL    HW213308  11.818  10.728  11.364
70471SOL     OW13309  11.248   4.943   7.802
70471SOL    HW113310  11.241   4.849   7.784
70471SOL    HW213311  11.199   4.955   7.884
70472SOL     OW13312  11.707  13.415   8.015
70472SOL    HW113313  11.678  13.443   8.102
70472SOL    HW213314  11.717  13.496   7.965
70473SOL     OW13315   7.395   2.448   4.458
70473SOL    HW113316   7.377   2.444   4.552
70473SOL    HW213317   7.315   2.414   4.417
70474SOL     OW13318   4.509   5.859  13.156
70474SOL    HW113319   4.552   5.819  13.081
70474SOL    HW213320   4.571   5.926  13.186
70475SOL     OW13321   6.908   2.581   7.944
70475SOL    HW113322   6.834   2.592   8.005
70475SOL    HW213323   6.873   2.530   7.872
70476SOL     OW13324   1.433  11.300   6.452
70476SOL    HW113325   1.356  11.334   6.498
70476SOL    HW213326   1.479  11.378   6.420
70477SOL     OW13327   1.055   1.623  11.367
70477SOL    HW113328   1.041   1.585  11.280
70477SOL    HW213329   0.967   1.627  11.406
70478SOL     OW13330   1.568   7.131   1.985
70478SOL    HW113331   1.519   7.106   2.063
70478SOL    HW213332   1.560   7.226   1.980
70479SOL     OW13333   4.536   8.653   4.809
70479SOL    HW113334   4.456   8.606   4.784
70479SOL    HW213335   4.520   8.680   4.900
70480SOL     OW13336   6.412   7.121   6.392
70480SOL    HW113337   6.441   7.047   6.339
70480SOL    HW213338   6.397   7.084   6.479
70481SOL     OW13339   6.540  14.112  10.558
70481SOL    HW113340   6.558  14.024  10.524
70481SOL    HW213341   6.462  14.141  10.512
70482SOL     OW13342   0.185  14.790   9.551
70482SOL    HW113343   0.096  14.756   9.558
70482SOL    HW213344   0.183  14.845   9.473
70483SOL     OW13345   3.109  13.090  14.583
70483SOL    HW113346   3.043  13.160  14.584
70483SOL    HW213347   3.169  13.112  14.654
70484SOL     OW13348   3.121   9.606   7.449
70484SOL    HW113349   3.200   9.660   7.452
70484SOL    HW213350   3.057   9.659   7.402
70485SOL     OW13351  13.731   5.607   7.298
70485SOL    HW113352  13.781   5.686   7.277
70485SOL    HW213353  13.707   5.619   7.390
70486SOL     OW13354   7.743   4.519   6.611
70486SOL    HW113355   7.654   4.529   6.577
70486SOL    HW213356   7.797   4.505   6.534
70487SOL     OW13357  13.860   0.835  12.617
70487SOL    HW113358  13.797   0.904  12.639
70487SOL    HW213359  13.864   0.780  12.695
70488SOL     OW13360   5.207   5.894   6.074
70488SOL    HW113361   5.244   5.936   6.151
70488SOL    HW213362   5.123   5.937   6.061
70489SOL     OW13363   6.113   3.499   5.347
70489SOL    HW113364   6.046   3.436   5.323
70489SOL    HW213365   6.128   3.484   5.441
70490SOL     OW13366   0.567   8.339   4.388
70490SOL    HW113367   0.636   8.404   4.401
70490SOL    HW213368   0.609   8.255   4.405
70491SOL     OW13369  12.276   6.532  11.446
70491SOL    HW113370  12.345   6.533  11.512
70491SOL    HW213371  12.321   6.551  11.364
70492SOL     OW13372   6.234   7.741   8.663
70492SOL    HW113373   6.198   7.660   8.700
70492SOL    HW213374   6.201   7.742   8.573
70493SOL     OW13375   5.112   9.138  10.230
70493SOL    HW113376   5.109   9.178  10.143
70493SOL    HW213377   5.067   9.055  10.220
70494SOL     OW13378   0.217   6.080  14.106
70494SOL    HW113379   0.189   5.995  14.072
70494SOL    HW213380   0.311   6.069  14.123
70495SOL     OW13381   4.495   0.583   2.792
70495SOL    HW113382   4.447   0.596   2.710
70495SOL    HW213383   4.547   0.504   2.778
70496SOL     OW13384   8.073   9.796  10.153
70496SOL    HW113385   8.093   9.712  10.194
70496SOL    HW213386   8.098   9.784  10.061
70497SOL     OW13387  10.632   3.725  13.356
70497SOL    HW113388  10.541   3.756  13.361
70497SOL    HW213389  10.629   3.652  13.295
70498SOL     OW13390  10.541   6.315   1.280
70498SOL    HW113391  10.544   6.221   1.260
70498SOL    HW213392  10.628   6.334   1.316
70499SOL     OW13393  10.795  11.239   6.005
70499SOL    HW113394  10.783  11.285   5.922
70499SOL    HW213395  10.795  11.146   5.981
70500SOL     OW13396  11.358   8.007  10.054
70500SOL    HW113397  11.327   7.932  10.003
70500SOL    HW213398  11.300   8.008  10.131
70501SOL     OW13399   1.947   9.285   9.800
70501SOL    HW113400   2.002   9.264   9.876
70501SOL    HW213401   1.905   9.367   9.823
70502SOL     OW13402   7.409   6.234   1.150
70502SOL    HW113403   7.334   6.290   1.171
70502SOL    HW213404   7.486   6.285   1.177
70503SOL     OW13405  13.621   3.111  13.201
70503SOL    HW113406  13.703   3.161  13.200
70503SOL    HW213407  13.614   3.074  13.112
70504SOL     OW13408  10.915   5.665   3.381
70504SOL    HW113409  10.890   5.681   3.472
70504SOL    HW213410  10.979   5.733   3.361
70505SOL     OW13411   8.895   7.415   3.118
70505SOL    HW113412   8.905   7.384   3.028
70505SOL    HW213413   8.809   7.457   3.120
70506SOL     OW13414   1.120   4.050   6.276
70506SOL    HW113415   1.151   4.041   6.366
70506SOL    HW213416   1.102   3.961   6.248
70507SOL     OW13417  12.334   4.851   6.943
70507SOL    HW113418  12.292   4.852   7.028
70507SOL    HW213419  12.329   4.760   6.913
70508SOL     OW13420   8.459  13.799  14.582
70508SOL    HW113421   8.462  13.791  14.487
70508SOL    HW213422   8.550  13.808  14.609
70509SOL     OW13423   4.386  10.062   2.668
70509SOL    HW113424   4.430   9.978   2.678
70509SOL    HW213425   4.447  10.115   2.617
70510SOL     OW13426  11.537   2.964   4.817
70510SOL    HW113427  11.490   2.994   4.894
70510SOL    HW213428  11.618   2.927   4.851
70511SOL     OW13429   8.784   5.106   1.877
70511SOL    HW113430   8.773   5.025   1.927
70511SOL    HW213431   8.828   5.166   1.938
70512SOL     OW13432   2.933   2.903  11.926
70512SOL    HW113433   2.846   2.907  11.965
70512SOL    HW213434   2.970   2.821  11.958
70513SOL     OW13435  11.431   4.653  11.363
70513SOL    HW113436  11.391   4.566  11.374
70513SOL    HW213437  11.357   4.713  11.359
70514SOL     OW13438   5.486  14.450   4.474
70514SOL    HW113439   5.567  14.433   4.521
70514SOL    HW213440   5.500  14.409   4.388
70515SOL     OW13441   1.143  12.481   4.156
70515SOL    HW113442   1.052  12.454   4.146
70515SOL    HW213443   1.178  12.479   4.067
70516SOL     OW13444  10.283  14.869   4.091
70516SOL    HW113445  10.198   0.024   4.079
70516SOL    HW213446  10.327  14.880   4.006
70517SOL     OW13447   1.867   1.260   9.738
70517SOL    HW113448   1.941   1.237   9.795
70517SOL    HW213449   1.865   1.191   9.673
70518SOL     OW13450  13.364   6.514   0.458
70518SOL    HW113451  13.366   6.418   0.463
70518SOL    HW213452  13.436   6.536   0.398
70519SOL     OW13453   9.047   7.345   0.036
70519SOL    HW113454   9.020   7.283  14.855
70519SOL    HW213455   8.979   7.337   0.103
70520SOL     OW13456  12.795   9.698   3.852
70520SOL    HW113457  12.741   9.731   3.924
70520SOL    HW213458  12.782   9.603   3.854
70521SOL     OW13459   3.243   9.713  11.667
70521SOL    HW113460   3.189   9.783  11.703
70521SOL    HW213461   3.211   9.633  11.709
70522SOL     OW13462   2.361  14.363  13.204
70522SOL    HW113463   2.396  14.274  13.195
70522SOL    HW213464   2.293  14.368  13.137
70523SOL     OW13465   7.543   5.191   2.978
70523SOL    HW113466   7.629   5.220   3.009
70523SOL    HW213467   7.492   5.178   3.057
70524SOL     OW13468  14.608  13.897   5.621
70524SOL    HW113469  14.679  13.838   5.595
70524SOL    HW213470  14.632  13.925   5.710
70525SOL     OW13471   8.291   9.993   8.530
70525SOL    HW113472   8.257   9.945   8.605
70525SOL    HW213473   8.213  10.017   8.480
70526SOL     OW13474   1.652  10.009   0.551
70526SOL    HW113475   1.560  10.021   0.530
70526SOL    HW213476   1.690  10.097   0.544
70527SOL     OW13477   8.784  13.369  12.815
70527SOL    HW113478   8.809  13.461  12.809
70527SOL    HW213479   8.717  13.358  12.748
70528SOL     OW13480  11.380   7.820   9.709
70528SOL    HW113481  11.470   7.837   9.736
70528SOL    HW213482  11.341   7.907   9.700
70529SOL     OW13483   0.514  10.130  10.067
70529SOL    HW113484   0.420  10.115  10.055
70529SOL    HW213485   0.554  10.092   9.990
70530SOL     OW13486   2.399   2.228   7.115
70530SOL    HW113487   2.360   2.250   7.200
70530SOL    HW213488   2.332   2.250   7.051
70531SOL     OW13489   0.417   7.817  14.614
70531SOL    HW113490   0.424   7.723  14.599
70531SOL    HW213491   0.508   7.848  14.616
70532SOL     OW13492   4.411   2.623   0.907
70532SOL    HW113493   4.436   2.696   0.851
70532SOL    HW213494   4.319   2.606   0.885
70533SOL     OW13495   0.834   0.046  13.425
70533SOL    HW113496   0.902   0.094  13.379
70533SOL    HW213497   0.785   0.112  13.472
70534SOL     OW13498   4.412   4.045   8.687
70534SOL    HW113499   4.485   3.985   8.694
70534SOL    HW213500   4.451   4.129   8.661
70535SOL     OW13501  10.460  11.601   4.030
70535SOL    HW113502  10.540  11.629   4.075
70535SOL    HW213503  10.484  11.521   3.984
70536SOL     OW13504  13.275  10.453   3.827
70536SOL    HW113505  13.324  10.389   3.878
70536SOL    HW213506  13.292  10.429   3.736
70537SOL     OW13507  13.333   4.226   8.105
70537SOL    HW113508  13.263   4.164   8.082
70537SOL    HW213509  13.286   4.305   8.131
70538SOL     OW13510  10.480   3.930   6.185
70538SOL    HW113511  10.400   3.929   6.238
70538SOL    HW213512  10.464   3.865   6.116
70539SOL     OW13513  12.139  11.846   4.381
70539SOL    HW113514  12.234  11.856   4.371
70539SOL    HW213515  12.128  11.760   4.422
70540SOL     OW13516   9.960   8.864   5.486
70540SOL    HW113517  10.031   8.812   5.524
70540SOL    HW213518   9.898   8.876   5.558
70541SOL     OW13519   0.936   6.481   2.781
70541SOL    HW113520   0.981   6.565   2.769
70541SOL    HW213521   0.843   6.502   2.772
70542SOL     OW13522   9.446   8.182  10.878
70542SOL    HW113523   9.378   8.115  10.881
70542SOL    HW213524   9.453   8.213  10.968
70543SOL     OW13525   1.102  13.130   6.110
70543SOL    HW113526   1.162  13.204   6.113
70543SOL    HW213527   1.156  13.056   6.083
70544SOL     OW13528   5.555  10.253   3.660
70544SOL    HW113529   5.521  10.320   3.600
70544SOL    HW213530   5.497  10.178   3.647
70545SOL     OW13531   0.493   4.344   4.701
70545SOL    HW113532   0.493   4.286   4.777
70545SOL    HW213533   0.552   4.302   4.639
70546SOL     OW13534  11.006   4.327  12.223
70546SOL    HW113535  11.055   4.295  12.148
70546SOL    HW213536  10.997   4.250  12.280
70547SOL     OW13537   9.777  13.091  10.742
70547SOL    HW113538   9.744  13.128  10.825
70547SOL    HW213539   9.845  13.030  10.769
70548SOL     OW13540  11.133   7.219   2.202
70548SOL    HW113541  11.100   7.290   2.256
70548SOL    HW213542  11.160   7.261   2.120
70549SOL     OW13543  10.818  13.201  11.082
70549SOL    HW113544  10.799  13.136  11.150
70549SOL    HW213545  10.734  13.213  11.037
70550SOL     OW13546  10.076  14.520   2.828
70550SOL    HW113547  10.167  14.551   2.832
70550SOL    HW213548  10.054  14.501   2.919
70551SOL     OW13549   5.790  12.373  10.604
70551SOL    HW113550   5.847  12.442  10.571
70551SOL    HW213551   5.849  12.309  10.643
70552SOL     OW13552   3.725  10.744   4.359
70552SOL    HW113553   3.698  10.789   4.279
70552SOL    HW213554   3.750  10.656   4.329
70553SOL     OW13555  13.300   8.404   4.647
70553SOL    HW113556  13.338   8.356   4.573
70553SOL    HW213557  13.291   8.494   4.615
70554SOL     OW13558   4.063   8.063  11.031
70554SOL    HW113559   4.095   7.989  10.980
70554SOL    HW213560   4.126   8.072  11.102
70555SOL     OW13561  11.289  11.418   0.884
70555SOL    HW113562  11.350  11.460   0.823
70555SOL    HW213563  11.236  11.360   0.830
70556SOL     OW13564   3.109   4.018   6.342
70556SOL    HW113565   3.086   3.931   6.374
70556SOL    HW213566   3.088   4.016   6.249
70557SOL     OW13567  12.679  10.683   8.106
70557SOL    HW113568  12.668  10.588   8.102
70557SOL    HW213569  12.648  10.714   8.021
70558SOL     OW13570   0.463   9.286   0.306
70558SOL    HW113571   0.544   9.331   0.327
70558SOL    HW213572   0.475   9.197   0.340
70559SOL     OW13573   1.965   3.768   8.932
70559SOL    HW113574   1.972   3.738   9.023
70559SOL    HW213575   1.938   3.691   8.883
70560SOL     OW13576  14.266  14.229  10.498
70560SOL    HW113577  14.292  14.269  10.415
70560SOL    HW213578  14.175  14.256  10.510
70561SOL     OW13579   0.972  14.206   4.481
70561SOL    HW113580   0.921  14.131   4.451
70561SOL    HW213581   0.923  14.282   4.448
70562SOL     OW13582  11.789  13.642  11.888
70562SOL    HW113583  11.823  13.567  11.839
70562SOL    HW213584  11.702  13.657  11.851
70563SOL     OW13585  13.991   4.177  13.231
70563SOL    HW113586  13.984   4.159  13.137
70563SOL    HW213587  13.947   4.102  13.273
70564SOL     OW13588   5.134   3.073   7.303
70564SOL    HW113589   5.040   3.091   7.301
70564SOL    HW213590   5.168   3.132   7.370
70565SOL     OW13591   2.756  13.664   3.066
70565SOL    HW113592   2.683  13.625   3.018
70565SOL    HW213593   2.784  13.737   3.011
70566SOL     OW13594  13.452   1.018   1.201
70566SOL    HW113595  13.491   1.002   1.287
70566SOL    HW213596  13.526   1.043   1.145
70567SOL     OW13597   0.652   7.945  12.660
70567SOL    HW113598   0.634   8.003  12.586
70567SOL    HW213599   0.677   7.862  12.620
70568SOL     OW13600   8.677   6.864  14.395
70568SOL    HW113601   8.635   6.784  14.427
70568SOL    HW213602   8.666   6.927  14.466
70569SOL     OW13603   2.027  11.262   6.144
70569SOL    HW113604   2.041  11.336   6.203
70569SOL    HW213605   2.071  11.287   6.062
70570SOL     OW13606   5.329   5.233   4.424
70570SOL    HW113607   5.245   5.187   4.424
70570SOL    HW213608   5.374   5.200   4.345
70571SOL     OW13609  11.585  10.517  12.737
70571SOL    HW113610  11.491  10.517  12.756
70571SOL    HW213611  11.600  10.599  12.690
70572SOL     OW13612   2.301   2.208   2.875
70572SOL    HW113613   2.270   2.135   2.929
70572SOL    HW213614   2.220   2.252   2.847
70573SOL     OW13615   5.642   0.623   1.419
70573SOL    HW113616   5.631   0.563   1.345
70573SOL    HW213617   5.619   0.709   1.384
70574SOL     OW13618   4.016   4.978   9.684
70574SOL    HW113619   4.010   4.952   9.592
70574SOL    HW213620   3.935   4.946   9.723
70575SOL     OW13621  13.782   9.358   2.298
70575SOL    HW113622  13.712   9.397   2.246
70575SOL    HW213623  13.773   9.397   2.385
70576SOL     OW13624   6.626  14.551   8.099
70576SOL    HW113625   6.541  14.592   8.084
70576SOL    HW213626   6.654  14.521   8.012
70577SOL     OW13627   0.987   3.392  12.662
70577SOL    HW113628   1.046   3.377  12.589
70577SOL    HW213629   1.037   3.447  12.722
70578SOL     OW13630   0.089   3.426   5.793
70578SOL    HW113631   0.076   3.443   5.887
70578SOL    HW213632   0.178   3.455   5.776
70579SOL     OW13633   0.212   9.739   6.734
70579SOL    HW113634   0.145   9.771   6.672
70579SOL    HW213635   0.222   9.646   6.713
70580SOL     OW13636  14.201   5.989  14.381
70580SOL    HW113637  14.112   5.980  14.416
70580SOL    HW213638  14.227   5.900  14.358
70581SOL     OW13639   4.096  11.659  14.385
70581SOL    HW113640   4.015  11.666  14.335
70581SOL    HW213641   4.156  11.612  14.326
70582SOL     OW13642   1.660  14.707   8.199
70582SOL    HW113643   1.568  14.721   8.219
70582SOL    HW213644   1.661  14.630   8.142
70583SOL     OW13645   6.213  10.606   4.055
70583SOL    HW113646   6.126  10.583   4.089
70583SOL    HW213647   6.256  10.522   4.041
70584SOL     OW13648  12.221   4.185   7.946
70584SOL    HW113649  12.136   4.197   7.989
70584SOL    HW213650  12.204   4.202   7.854
70585SOL     OW13651   6.312   0.824   3.866
70585SOL    HW113652   6.229   0.849   3.906
70585SOL    HW213653   6.374   0.892   3.894
70586SOL     OW13654  10.894  10.846  11.182
70586SOL    HW113655  10.887  10.759  11.220
70586SOL    HW213656  10.987  10.869  11.192
70587SOL     OW13657   0.356   5.962   1.774
70587SOL    HW113658   0.367   5.981   1.681
70587SOL    HW213659   0.262   5.949   1.785
70588SOL     OW13660   0.864   6.709   1.096
70588SOL    HW113661   0.826   6.774   1.156
70588SOL    HW213662   0.958   6.718   1.108
70589SOL     OW13663   6.523   0.122   4.522
70589SOL    HW113664   6.546   0.210   4.554
70589SOL    HW213665   6.542   0.125   4.429
70590SOL     OW13666   3.608   6.874   6.488
70590SOL    HW113667   3.677   6.898   6.550
70590SOL    HW213668   3.578   6.958   6.453
70591SOL     OW13669   5.804  13.381  10.260
70591SOL    HW113670   5.819  13.339  10.176
70591SOL    HW213671   5.749  13.457  10.239
70592SOL     OW13672  10.808  13.171  12.215
70592SOL    HW113673  10.777  13.254  12.178
70592SOL    HW213674  10.849  13.126  12.142
70593SOL     OW13675   1.049  10.754   8.350
70593SOL    HW113676   1.095  10.670   8.356
70593SOL    HW213677   1.030  10.765   8.257
70594SOL     OW13678  13.791   6.997   1.254
70594SOL    HW113679  13.877   7.038   1.263
70594SOL    HW213680  13.809   6.907   1.229
70595SOL     OW13681   1.702  11.274   1.325
70595SOL    HW113682   1.711  11.324   1.406
70595SOL    HW213683   1.618  11.230   1.333
70596SOL     OW13684  10.106  10.884   6.607
70596SOL    HW113685  10.093  10.807   6.550
70596SOL    HW213686  10.031  10.882   6.666
70597SOL     OW13687   9.760   8.395   7.312
70597SOL    HW113688   9.735   8.480   7.348
70597SOL    HW213689   9.736   8.399   7.220
70598SOL     OW13690   2.910   3.632  12.184
70598SOL    HW113691   2.868   3.658  12.102
70598SOL    HW213692   2.953   3.712  12.215
70599SOL     OW13693   1.727  11.258   2.039
70599SOL    HW113694   1.793  11.282   1.974
70599SOL    HW213695   1.753  11.171   2.068
70600SOL     OW13696   4.717   8.208   0.344
70600SOL    HW113697   4.784   8.194   0.411
70600SOL    HW213698   4.641   8.160   0.375
70601SOL     OW13699   9.329  14.427   0.338
70601SOL    HW113700   9.360  14.484   0.268
70601SOL    HW213701   9.402  14.425   0.400
70602SOL     OW13702  13.258   6.089   4.360
70602SOL    HW113703  13.242   6.024   4.429
70602SOL    HW213704  13.354   6.095   4.355
70603SOL     OW13705   2.736   1.342   9.782
70603SOL    HW113706   2.797   1.407   9.816
70603SOL    HW213707   2.791   1.269   9.755
70604SOL     OW13708   1.307  13.929   6.940
70604SOL    HW113709   1.219  13.966   6.939
70604SOL    HW213710   1.295  13.836   6.921
70605SOL     OW13711   4.994   8.664   4.530
70605SOL    HW113712   4.921   8.607   4.507
70605SOL    HW213713   5.065   8.604   4.553
70606SOL     OW13714   0.660   6.721   8.530
70606SOL    HW113715   0.664   6.801   8.477
70606SOL    HW213716   0.727   6.664   8.492
70607SOL     OW13717  11.625  14.666   6.955
70607SOL    HW113718  11.542  14.651   7.001
70607SOL    HW213719  11.635  14.590   6.898
70608SOL     OW13720   4.545   6.297  12.514
70608SOL    HW113721   4.588   6.350  12.581
70608SOL    HW213722   4.520   6.360  12.446
70609SOL     OW13723  14.348   5.547  14.077
70609SOL    HW113724  14.381   5.598  14.003
70609SOL    HW213725  14.283   5.488  14.039
70610SOL     OW13726   6.594   3.107   9.554
70610SOL    HW113727   6.627   3.073   9.638
70610SOL    HW213728   6.522   3.164   9.578
70611SOL     OW13729   4.182   9.050  11.550
70611SOL    HW113730   4.181   9.078  11.458
70611SOL    HW213731   4.090   9.043  11.574
70612SOL     OW13732   6.306  12.519   8.391
70612SOL    HW113733   6.228  12.468   8.412
70612SOL    HW213734   6.287  12.557   8.305
70613SOL     OW13735   3.198  13.884   3.689
70613SOL    HW113736   3.215  13.920   3.776
70613SOL    HW213737   3.140  13.947   3.647
70614SOL     OW13738  12.269  12.566   5.280
70614SOL    HW113739  12.195  12.626   5.288
70614SOL    HW213740  12.285  12.560   5.186
70615SOL     OW13741   4.202   4.331  11.113
70615SOL    HW113742   4.229   4.239  11.113
70615SOL    HW213743   4.144   4.339  11.037
70616SOL     OW13744   4.945   5.243  12.440
70616SOL    HW113745   4.928   5.272  12.350
70616SOL    HW213746   4.955   5.324  12.490
70617SOL     OW13747   9.962   1.816   4.306
70617SOL    HW113748   9.962   1.900   4.351
70617SOL    HW213749   9.888   1.768   4.343
70618SOL     OW13750   3.243   0.104   3.608
70618SOL    HW113751   3.199   0.151   3.678
70618SOL    HW213752   3.208   0.143   3.527
70619SOL     OW13753   2.279   8.059  11.741
70619SOL    HW113754   2.188   8.067  11.768
70619SOL    HW213755   2.297   8.139  11.692
70620SOL     OW13756   5.703   2.349   1.683
70620SOL    HW113757   5.746   2.274   1.724
70620SOL    HW213758   5.761   2.423   1.702
70621SOL     OW13759   3.329   0.144   0.192
70621SOL    HW113760   3.306   0.113   0.104
70621SOL    HW213761   3.423   0.159   0.188
70622SOL     OW13762  11.374   2.424  11.949
70622SOL    HW113763  11.379   2.390  11.860
70622SOL    HW213764  11.398   2.349  12.004
70623SOL     OW13765   6.122   8.221   7.116
70623SOL    HW113766   6.071   8.200   7.194
70623SOL    HW213767   6.085   8.167   7.047
70624SOL     OW13768   8.532   7.424   7.115
70624SOL    HW113769   8.522   7.501   7.171
70624SOL    HW213770   8.458   7.428   7.054
70625SOL     OW13771  10.205  14.376   3.019
70625SOL    HW113772  10.202  14.385   3.114
70625SOL    HW213773  10.247  14.291   3.004
70626SOL     OW13774   6.011  12.063   2.570
70626SOL    HW113775   5.927  12.109   2.563
70626SOL    HW213776   6.075  12.132   2.587
70627SOL     OW13777   2.207  14.536  11.858
70627SOL    HW113778   2.144  14.508  11.792
70627SOL    HW213779   2.156  14.544  11.939
70628SOL     OW13780  11.015  11.984   4.761
70628SOL    HW113781  10.999  12.078   4.770
70628SOL    HW213782  11.046  11.957   4.848
70629SOL     OW13783   0.426   7.108   5.342
70629SOL    HW113784   0.395   7.127   5.254
70629SOL    HW213785   0.494   7.173   5.359
70630SOL     OW13786   3.668   2.616  12.819
70630SOL    HW113787   3.613   2.608  12.742
70630SOL    HW213788   3.757   2.624  12.784
70631SOL     OW13789   0.159   5.089  14.395
70631SOL    HW113790   0.085   5.048  14.439
70631SOL    HW213791   0.149   5.182  14.414
70632SOL     OW13792   7.438   8.263  12.588
70632SOL    HW113793   7.531   8.281  12.602
70632SOL    HW213794   7.421   8.184  12.639
70633SOL     OW13795  14.103   8.483   2.283
70633SOL    HW113796  14.088   8.502   2.190
70633SOL    HW213797  14.191   8.446   2.285
70634SOL     OW13798  13.219   1.361   8.090
70634SOL    HW113799  13.176   1.443   8.113
70634SOL    HW213800  13.185   1.340   8.003
70635SOL     OW13801   4.065   5.505   3.802
70635SOL    HW113802   4.125   5.557   3.857
70635SOL    HW213803   3.978   5.536   3.826
70636SOL     OW13804   6.012   3.536  13.092
70636SOL    HW113805   5.923   3.540  13.057
70636SOL    HW213806   6.041   3.447  13.072
70637SOL     OW13807   6.958   1.913  12.983
70637SOL    HW113808   6.968   2.008  12.983
70637SOL    HW213809   6.974   1.887  13.074
70638SOL     OW13810   0.251   3.163   3.240
70638SOL    HW113811   0.241   3.069   3.225
70638SOL    HW213812   0.308   3.193   3.169
70639SOL     OW13813   1.734  11.760  10.603
70639SOL    HW113814   1.721  11.778  10.510
70639SOL    HW213815   1.818  11.800  10.623
70640SOL     OW13816  11.552   1.683  13.474
70640SOL    HW113817  11.584   1.684  13.383
70640SOL    HW213818  11.568   1.771  13.506
70641SOL     OW13819  12.969   1.424  12.336
70641SOL    HW113820  13.034   1.407  12.268
70641SOL    HW213821  12.885   1.415  12.292
70642SOL     OW13822  10.724   7.914  14.639
70642SOL    HW113823  10.697   7.855  14.569
70642SOL    HW213824  10.651   7.913  14.701
70643SOL     OW13825  14.017   4.451   6.603
70643SOL    HW113826  14.007   4.359   6.628
70643SOL    HW213827  14.103   4.476   6.639
70644SOL     OW13828   1.854   0.616   5.393
70644SOL    HW113829   1.801   0.551   5.347
70644SOL    HW213830   1.912   0.651   5.326
70645SOL     OW13831   0.799  13.065   4.324
70645SOL    HW113832   0.764  13.153   4.307
70645SOL    HW213833   0.894  13.076   4.319
70646SOL     OW13834   2.159   2.113   4.277
70646SOL    HW113835   2.204   2.174   4.218
70646SOL    HW213836   2.181   2.026   4.244
70647SOL     OW13837  13.946   2.914   5.728
70647SOL    HW113838  14.024   2.918   5.783
70647SOL    HW213839  13.874   2.905   5.790
70648SOL     OW13840   7.814  14.202   4.821
70648SOL    HW113841   7.803  14.125   4.765
70648SOL    HW213842   7.793  14.171   4.909
70649SOL     OW13843   8.889   9.490   0.110
70649SOL    HW113844   8.867   9.563   0.168
70649SOL    HW213845   8.890   9.413   0.166
70650SOL     OW13846   9.610   5.706   6.149
70650SOL    HW113847   9.549   5.756   6.094
70650SOL    HW213848   9.624   5.762   6.226
70651SOL     OW13849  12.700   1.678  13.119
70651SOL    HW113850  12.747   1.716  13.044
70651SOL    HW213851  12.607   1.692  13.098
70652SOL     OW13852   2.085   4.710  12.427
70652SOL    HW113853   2.113   4.708  12.336
70652SOL    HW213854   2.037   4.792  12.436
70653SOL     OW13855  12.723  14.235  13.417
70653SOL    HW113856  12.728  14.290  13.339
70653SOL    HW213857  12.638  14.192  13.410
70654SOL     OW13858   9.015   9.248   0.248
70654SOL    HW113859   8.996   9.160   0.214
70654SOL    HW213860   9.087   9.279   0.193
70655SOL     OW13861   4.175   3.039   5.169
70655SOL    HW113862   4.091   3.081   5.187
70655SOL    HW213863   4.229   3.108   5.130
70656SOL     OW13864   5.931   0.384   0.989
70656SOL    HW113865   5.927   0.474   1.018
70656SOL    HW213866   5.893   0.386   0.901
70657SOL     OW13867  13.391  12.263   4.190
70657SOL    HW113868  13.417  12.209   4.264
70657SOL    HW213869  13.361  12.345   4.230
70658SOL     OW13870  11.698   6.073   9.970
70658SOL    HW113871  11.616   6.030   9.994
70658SOL    HW213872  11.761   6.001   9.959
70659SOL     OW13873   3.602   8.361   4.905
70659SOL    HW113874   3.667   8.292   4.917
70659SOL    HW213875   3.521   8.325   4.941
70660SOL     OW13876   1.385   0.411   3.095
70660SOL    HW113877   1.414   0.494   3.057
70660SOL    HW213878   1.289   0.414   3.091
70661SOL     OW13879   7.384   9.451  10.320
70661SOL    HW113880   7.334   9.410  10.390
70661SOL    HW213881   7.473   9.456  10.353
70662SOL     OW13882  14.638  10.040  13.558
70662SOL    HW113883  14.699  10.029  13.485
70662SOL    HW213884  14.567   9.979  13.540
70663SOL     OW13885  14.459  10.194  12.694
70663SOL    HW113886  14.376  10.213  12.650
70663SOL    HW213887  14.526  10.210  12.628
70664SOL     OW13888   0.007  14.043   6.638
70664SOL    HW113889  14.874  13.977   6.704
70664SOL    HW213890   0.012  13.994   6.556
70665SOL     OW13891   5.536   5.238  10.258
70665SOL    HW113892   5.496   5.255  10.173
70665SOL    HW213893   5.620   5.282  10.254
70666SOL     OW13894  14.179   8.099  11.548
70666SOL    HW113895  14.210   8.165  11.486
70666SOL    HW213896  14.248   8.032  11.548
70667SOL     OW13897   8.419   4.027  10.644
70667SOL    HW113898   8.373   3.954  10.685
70667SOL    HW213899   8.498   3.988  10.606
70668SOL     OW13900   5.877  13.339   3.796
70668SOL    HW113901   5.885  13.429   3.826
70668SOL    HW213902   5.815  13.299   3.857
70669SOL     OW13903   8.932   2.742   1.277
70669SOL    HW113904   9.022   2.713   1.293
70669SOL    HW213905   8.941   2.814   1.214
70670SOL     OW13906   1.630   9.455   6.107
70670SOL    HW113907   1.680   9.446   6.188
70670SOL    HW213908   1.681   9.517   6.054
70671SOL     OW13909   5.823   2.267  12.785
70671SOL    HW113910   5.895   2.212  12.816
70671SOL    HW213911   5.822   2.255  12.690
70672SOL     OW13912   3.156   3.061  12.631
70672SOL    HW113913   3.176   3.143  12.676
70672SOL    HW213914   3.135   3.088  12.542
70673SOL     OW13915   0.447  10.604  14.035
70673SOL    HW113916   0.509  10.674  14.056
70673SOL    HW213917   0.443  10.603  13.940
70674SOL     OW13918   4.952  14.167   3.905
70674SOL    HW113919   4.976  14.131   3.990
70674SOL    HW213920   4.881  14.228   3.924
70675SOL     OW13921   6.531  11.107   9.725
70675SOL    HW113922   6.484  11.084   9.645
70675SOL    HW213923   6.553  11.200   9.714
70676SOL     OW13924   6.678  14.479  10.692
70676SOL    HW113925   6.675  14.571  10.666
70676SOL    HW213926   6.769  14.464  10.718
70677SOL     OW13927  11.141   0.829  11.984
70677SOL    HW113928  11.167   0.738  12.001
70677SOL    HW213929  11.188   0.880  12.050
70678SOL     OW13930   2.481   0.678   7.454
70678SOL    HW113931   2.559   0.662   7.508
70678SOL    HW213932   2.461   0.770   7.469
70679SOL     OW13933   1.682   0.531   7.503
70679SOL    HW113934   1.722   0.482   7.574
70679SOL    HW213935   1.757   0.569   7.456
70680SOL     OW13936  10.929  14.717   6.527
70680SOL    HW113937  10.867  14.654   6.492
70680SOL    HW213938  10.878  14.768   6.591
70681SOL     OW13939   4.142   9.378  12.881
70681SOL    HW113940   4.150   9.426  12.799
70681SOL    HW213941   4.229   9.383  12.920
70682SOL     OW13942   9.497   4.253   6.804
70682SOL    HW113943   9.577   4.288   6.844
70682SOL    HW213944   9.528   4.205   6.727
70683SOL     OW13945  12.110   1.874  12.294
70683SOL    HW113946  12.098   1.931  12.218
70683SOL    HW213947  12.163   1.926  12.354
70684SOL     OW13948  14.086   8.004   5.453
70684SOL    HW113949  14.174   7.992   5.488
70684SOL    HW213950  14.092   8.085   5.401
70685SOL     OW13951   4.179   1.487  12.595
70685SOL    HW113952   4.168   1.544  12.671
70685SOL    HW213953   4.170   1.398  12.629
70686SOL     OW13954  12.824   3.501   7.206
70686SOL    HW113955  12.834   3.416   7.165
70686SOL    HW213956  12.742   3.536   7.171
70687SOL     OW13957  13.532  14.479   9.755
70687SOL    HW113958  13.604  14.497   9.695
70687SOL    HW213959  13.453  14.496   9.704
70688SOL     OW13960  11.727   8.044   1.120
70688SOL    HW113961  11.685   7.991   1.188
70688SOL    HW213962  11.810   7.999   1.103
70689SOL     OW13963   4.599  12.695  13.404
70689SOL    HW113964   4.577  12.685  13.311
70689SOL    HW213965   4.694  12.690  13.406
70690SOL     OW13966   0.557   1.072   4.888
70690SOL    HW113967   0.464   1.054   4.892
70690SOL    HW213968   0.563   1.167   4.876
70691SOL     OW13969   2.759   8.328   3.632
70691SOL    HW113970   2.802   8.381   3.698
70691SOL    HW213971   2.747   8.387   3.557
70692SOL     OW13972  10.408   2.279   4.747
70692SOL    HW113973  10.440   2.338   4.679
70692SOL    HW213974  10.473   2.285   4.817
70693SOL     OW13975   5.976   4.570   2.929
70693SOL    HW113976   6.047   4.582   2.992
70693SOL    HW213977   5.937   4.486   2.952
70694SOL     OW13978  12.713  12.235  14.150
70694SOL    HW113979  12.683  12.162  14.096
70694SOL    HW213980  12.757  12.194  14.224
70695SOL     OW13981  10.934   5.797   7.677
70695SOL    HW113982  10.846   5.831   7.695
70695SOL    HW213983  10.925   5.749   7.595
70696SOL     OW13984   9.768   7.363  11.596
70696SOL    HW113985   9.814   7.361  11.512
70696SOL    HW213986   9.683   7.403  11.576
70697SOL     OW13987   9.861  11.891  13.075
70697SOL    HW113988   9.774  11.852  13.063
70697SOL    HW213989   9.843  11.980  13.104
70698SOL     OW13990   7.748   0.405  11.443
70698SOL    HW113991   7.661   0.386  11.480
70698SOL    HW213992   7.809   0.384  11.514
70699SOL     OW13993   5.585  12.067  11.231
70699SOL    HW113994   5.516  12.032  11.176
70699SOL    HW213995   5.588  12.008  11.307
70700SOL     OW13996  14.243   3.448   0.248
70700SOL    HW113997  14.293   3.471   0.170
70700SOL    HW213998  14.163   3.407   0.215
70701SOL     OW13999   5.567   4.025  14.580
70701SOL    HW114000   5.628   3.969  14.533
70701SOL    HW214001   5.489   4.030  14.523
70702SOL     OW14002   7.385  12.960  10.408
70702SOL    HW114003   7.308  12.903  10.416
70702SOL    HW214004   7.430  12.927  10.330
70703SOL     OW14005  10.540   9.538   9.013
70703SOL    HW114006  10.570   9.545   9.103
70703SOL    HW214007  10.457   9.585   9.010
70704SOL     OW14008  14.728   1.371   3.216
70704SOL    HW114009  14.754   1.443   3.274
70704SOL    HW214010  14.768   1.393   3.132
70705SOL     OW14011  13.249   5.486   5.370
70705SOL    HW114012  13.258   5.542   5.447
70705SOL    HW214013  13.314   5.417   5.382
70706SOL     OW14014   0.230   8.398   0.724
70706SOL    HW114015   0.195   8.365   0.807
70706SOL    HW214016   0.191   8.341   0.657
70707SOL     OW14017   2.923   7.664   8.826
70707SOL    HW114018   2.897   7.593   8.885
70707SOL    HW214019   3.014   7.646   8.804
70708SOL     OW14020  12.730   5.971   6.470
70708SOL    HW114021  12.750   6.048   6.417
70708SOL    HW214022  12.804   5.962   6.530
70709SOL     OW14023  12.478   5.197   6.883
70709SOL    HW114024  12.442   5.114   6.852
70709SOL    HW214025  12.499   5.181   6.975
70710SOL     OW14026  11.978   5.425   7.854
70710SOL    HW114027  12.043   5.390   7.793
70710SOL    HW214028  11.951   5.508   7.814
70711SOL     OW14029   2.637  11.989   5.532
70711SOL    HW114030   2.633  11.900   5.495
70711SOL    HW214031   2.638  12.047   5.456
70712SOL     OW14032   9.340   2.489  10.083
70712SOL    HW114033   9.307   2.560  10.027
70712SOL    HW214034   9.287   2.413  10.059
70713SOL     OW14035   9.866   4.702   5.706
70713SOL    HW114036   9.868   4.756   5.785
70713SOL    HW214037   9.872   4.764   5.634
70714SOL     OW14038   3.168  11.054   8.749
70714SOL    HW114039   3.251  11.049   8.797
70714SOL    HW214040   3.194  11.068   8.658
70715SOL     OW14041  12.019  10.224   3.393
70715SOL    HW114042  12.112  10.217   3.415
70715SOL    HW214043  12.017  10.226   3.297
70716SOL     OW14044   4.040  14.285  11.924
70716SOL    HW114045   3.953  14.284  11.963
70716SOL    HW214046   4.041  14.208  11.867
70717SOL     OW14047   4.196   7.500   3.761
70717SOL    HW114048   4.190   7.595   3.755
70717SOL    HW214049   4.136   7.476   3.831
70718SOL     OW14050   3.338   1.214  11.272
70718SOL    HW114051   3.304   1.295  11.311
70718SOL    HW214052   3.426   1.205  11.311
70719SOL     OW14053   3.647   3.887   7.128
70719SOL    HW114054   3.582   3.879   7.058
70719SOL    HW214055   3.728   3.851   7.090
70720SOL     OW14056  10.272   5.367   1.042
70720SOL    HW114057  10.350   5.337   0.997
70720SOL    HW214058  10.234   5.433   0.985
70721SOL     OW14059   8.346  12.346   0.325
70721SOL    HW114060   8.382  12.321   0.240
70721SOL    HW214061   8.299  12.428   0.308
70722SOL     OW14062   8.386   7.714  10.538
70722SOL    HW114063   8.339   7.665  10.606
70722SOL    HW214064   8.374   7.662  10.459
70723SOL     OW14065   0.306   9.722   9.823
70723SOL    HW114066   0.229   9.735   9.767
70723SOL    HW214067   0.357   9.802   9.813
70724SOL     OW14068   2.938   3.881   0.524
70724SOL    HW114069   3.015   3.852   0.572
70724SOL    HW214070   2.933   3.976   0.540
70725SOL     OW14071   5.477   7.922  13.472
70725SOL    HW114072   5.500   7.889  13.559
70725SOL    HW214073   5.553   7.974  13.445
70726SOL     OW14074   0.546   8.760   8.723
70726SOL    HW114075   0.473   8.765   8.662
70726SOL    HW214076   0.525   8.685   8.779
70727SOL     OW14077  10.922   9.145   1.615
70727SOL    HW114078  10.979   9.114   1.685
70727SOL    HW214079  10.857   9.075   1.604
70728SOL     OW14080  13.136   9.081  14.866
70728SOL    HW114081  13.206   9.054  14.807
70728SOL    HW214082  13.077   9.134  14.812
70729SOL     OW14083  10.493   0.165   4.693
70729SOL    HW114084  10.565   0.197   4.638
70729SOL    HW214085  10.418   0.218   4.665
70730SOL     OW14086   1.869   4.113   3.594
70730SOL    HW114087   1.896   4.021   3.602
70730SOL    HW214088   1.936   4.162   3.640
70731SOL     OW14089   9.852  10.899   6.729
70731SOL    HW114090   9.773  10.917   6.780
70731SOL    HW214091   9.853  10.804   6.719
70732SOL     OW14092   8.541   4.252   9.273
70732SOL    HW114093   8.543   4.274   9.366
70732SOL    HW214094   8.619   4.199   9.259
70733SOL     OW14095   5.167  10.848   5.418
70733SOL    HW114096   5.245  10.902   5.430
70733SOL    HW214097   5.181  10.804   5.334
70734SOL     OW14098   5.312   9.004   7.635
70734SOL    HW114099   5.390   9.022   7.688
70734SOL    HW214100   5.314   8.909   7.621
70735SOL     OW14101   1.341  12.611   9.331
70735SOL    HW114102   1.274  12.620   9.399
70735SOL    HW214103   1.390  12.693   9.335
70736SOL     OW14104   1.862   8.733   8.875
70736SOL    HW114105   1.802   8.659   8.864
70736SOL    HW214106   1.822   8.805   8.827
70737SOL     OW14107  13.257   0.505   3.342
70737SOL    HW114108  13.316   0.432   3.359
70737SOL    HW214109  13.252   0.509   3.246
70738SOL     OW14110   1.004   2.658  12.616
70738SOL    HW114111   1.039   2.662  12.705
70738SOL    HW214112   0.909   2.656  12.627
70739SOL     OW14113  14.488   9.708   8.372
70739SOL    HW114114  14.473   9.707   8.466
70739SOL    HW214115  14.525   9.794   8.354
70740SOL     OW14116   8.287  11.681   7.621
70740SOL    HW114117   8.313  11.760   7.669
70740SOL    HW214118   8.256  11.714   7.536
70741SOL     OW14119   1.107   8.287  12.121
70741SOL    HW114120   1.148   8.320  12.201
70741SOL    HW214121   1.068   8.204  12.147
70742SOL     OW14122  12.883  14.635   6.043
70742SOL    HW114123  12.912  14.545   6.029
70742SOL    HW214124  12.790  14.627   6.063
70743SOL     OW14125   5.134  10.136   8.081
70743SOL    HW114126   5.193  10.144   8.156
70743SOL    HW214127   5.174  10.069   8.026
70744SOL     OW14128   1.700   2.302  13.618
70744SOL    HW114129   1.624   2.294  13.560
70744SOL    HW214130   1.774   2.278  13.563
70745SOL     OW14131   4.460  11.441   3.754
70745SOL    HW114132   4.390  11.424   3.817
70745SOL    HW214133   4.433  11.520   3.708
70746SOL     OW14134   1.046  13.617  13.970
70746SOL    HW114135   1.117  13.680  13.957
70746SOL    HW214136   1.088  13.544  14.016
70747SOL     OW14137   7.895  10.604   8.296
70747SOL    HW114138   7.944  10.646   8.226
70747SOL    HW214139   7.808  10.587   8.259
70748SOL     OW14140  10.356   2.472  14.131
70748SOL    HW114141  10.289   2.460  14.197
70748SOL    HW214142  10.433   2.427  14.165
70749SOL     OW14143  13.615   3.443   6.910
70749SOL    HW114144  13.557   3.512   6.880
70749SOL    HW214145  13.599   3.370   6.849
70750SOL     OW14146  13.823   7.952   6.776
70750SOL    HW114147  13.890   7.976   6.839
70750SOL    HW214148  13.774   7.881   6.818
70751SOL     OW14149   9.802   6.126  12.704
70751SOL    HW114150   9.879   6.153  12.754
70751SOL    HW214151   9.730   6.176  12.743
70752SOL     OW14152   2.497   2.206   7.427
70752SOL    HW114153   2.561   2.272   7.453
70752SOL    HW214154   2.548   2.135   7.389
70753SOL     OW14155   0.299   2.362   8.012
70753SOL    HW114156   0.292   2.454   7.984
70753SOL    HW214157   0.388   2.336   7.988
70754SOL     OW14158   8.146   3.561   2.507
70754SOL    HW114159   8.234   3.556   2.468
70754SOL    HW214160   8.101   3.627   2.454
70755SOL     OW14161  13.872   5.406   9.903
70755SOL    HW114162  13.932   5.380   9.833
70755SOL    HW214163  13.924   5.399   9.983
70756SOL     OW14164   4.166  13.893   0.193
70756SOL    HW114165   4.251  13.895   0.150
70756SOL    HW214166   4.135  13.802   0.182
70757SOL     OW14167   6.755   6.647  11.865
70757SOL    HW114168   6.701   6.694  11.929
70757SOL    HW214169   6.705   6.649  11.784
70758SOL     OW14170   3.288   8.726   2.128
70758SOL    HW114171   3.255   8.660   2.188
70758SOL    HW214172   3.356   8.681   2.077
70759SOL     OW14173   1.212   7.206   4.140
70759SOL    HW114174   1.152   7.199   4.215
70759SOL    HW214175   1.291   7.244   4.178
70760SOL     OW14176   7.241   9.431   4.250
70760SOL    HW114177   7.314   9.493   4.250
70760SOL    HW214178   7.279   9.350   4.285
70761SOL     OW14179   1.054   3.840   5.959
70761SOL    HW114180   1.033   3.803   5.874
70761SOL    HW214181   0.986   3.806   6.017
70762SOL     OW14182  11.099  13.555   1.174
70762SOL    HW114183  11.009  13.526   1.155
70762SOL    HW214184  11.139  13.480   1.219
70763SOL     OW14185  11.098   4.491   9.425
70763SOL    HW114186  11.132   4.468   9.511
70763SOL    HW214187  11.018   4.438   9.415
70764SOL     OW14188   5.287   4.391   3.495
70764SOL    HW114189   5.196   4.363   3.485
70764SOL    HW214190   5.282   4.482   3.522
70765SOL     OW14191   9.950   3.087  14.310
70765SOL    HW114192   9.986   3.071  14.398
70765SOL    HW214193  10.023   3.068  14.251
70766SOL     OW14194   8.290   1.143   8.193
70766SOL    HW114195   8.309   1.050   8.190
70766SOL    HW214196   8.346   1.182   8.126
70767SOL     OW14197   7.863   8.845  13.994
70767SOL    HW114198   7.951   8.807  13.990
70767SOL    HW214199   7.820   8.818  13.913
70768SOL     OW14200  14.465   6.272  14.155
70768SOL    HW114201  14.506   6.284  14.241
70768SOL    HW214202  14.409   6.349  14.145
70769SOL     OW14203   6.019   2.105   5.589
70769SOL    HW114204   6.044   2.070   5.675
70769SOL    HW214205   6.030   2.199   5.596
70770SOL     OW14206  14.033  13.840  14.476
70770SOL    HW114207  14.121  13.804  14.489
70770SOL    HW214208  13.986  13.772  14.429
70771SOL     OW14209   9.615   3.572   5.512
70771SOL    HW114210   9.593   3.571   5.419
70771SOL    HW214211   9.571   3.650   5.546
70772SOL     OW14212  11.932   8.283   5.065
70772SOL    HW114213  11.937   8.201   5.115
70772SOL    HW214214  12.000   8.273   4.998
70773SOL     OW14215   6.010   1.841   6.656
70773SOL    HW114216   5.950   1.831   6.730
70773SOL    HW214217   5.956   1.823   6.579
70774SOL     OW14218  14.884   9.931  13.033
70774SOL    HW114219  14.830   9.963  13.107
70774SOL    HW214220  14.838   9.853  13.002
70775SOL     OW14221  11.294   3.969   7.624
70775SOL    HW114222  11.315   4.014   7.706
70775SOL    HW214223  11.271   3.880   7.650
70776SOL     OW14224   2.051   2.909   2.136
70776SOL    HW114225   2.013   2.897   2.049
70776SOL    HW214226   2.013   2.839   2.189
70777SOL     OW14227   6.879   4.256  10.249
70777SOL    HW114228   6.892   4.297  10.335
70777SOL    HW214229   6.819   4.314  10.203
70778SOL     OW14230  11.399   5.078   8.416
70778SOL    HW114231  11.339   5.145   8.385
70778SOL    HW214232  11.371   4.998   8.372
70779SOL     OW14233  11.704   5.409   6.235
70779SOL    HW114234  11.772   5.374   6.177
70779SOL    HW214235  11.655   5.470   6.180
70780SOL     OW14236   0.316  12.301  14.805
70780SOL    HW114237   0.340  12.377  14.752
70780SOL    HW214238   0.280  12.339  14.885
70781SOL     OW14239   2.317   9.470  11.348
70781SOL    HW114240   2.369   9.549  11.335
70781SOL    HW214241   2.295   9.442  11.259
70782SOL     OW14242   4.758   7.085   0.639
70782SOL    HW114243   4.828   7.147   0.622
70782SOL    HW214244   4.751   7.082   0.734
70783SOL     OW14245   5.452  13.304   4.296
70783SOL    HW114246   5.452  13.395   4.327
70783SOL    HW214247   5.423  13.253   4.372
70784SOL     OW14248  14.251   5.727   8.879
70784SOL    HW114249  14.248   5.729   8.975
70784SOL    HW214250  14.194   5.799   8.852
70785SOL     OW14251  13.817   5.490   5.725
70785SOL    HW114252  13.733   5.509   5.684
70785SOL    HW214253  13.797   5.421   5.789
70786SOL     OW14254  11.181   6.943   7.549
70786SOL    HW114255  11.242   6.917   7.618
70786SOL    HW214256  11.113   6.875   7.551
70787SOL     OW14257  12.116   4.947   1.136
70787SOL    HW114258  12.039   4.993   1.170
70787SOL    HW214259  12.140   4.994   1.057
70788SOL     OW14260  10.551  14.329   1.039
70788SOL    HW114261  10.456  14.324   1.039
70788SOL    HW214262  10.571  14.420   1.062
70789SOL     OW14263  13.532   3.715  12.633
70789SOL    HW114264  13.474   3.766  12.689
70789SOL    HW214265  13.546   3.770  12.556
70790SOL     OW14266   2.075  11.937   3.589
70790SOL    HW114267   2.099  11.950   3.497
70790SOL    HW214268   1.979  11.933   3.588
70791SOL     OW14269  10.758   7.881   5.675
70791SOL    HW114270  10.785   7.954   5.730
70791SOL    HW214271  10.773   7.803   5.728
70792SOL     OW14272   1.376   1.363   6.047
70792SOL    HW114273   1.467   1.333   6.054
70792SOL    HW214274   1.383   1.456   6.027
70793SOL     OW14275   0.045   0.056   7.773
70793SOL    HW114276  14.869   0.127   7.767
70793SOL    HW214277   0.092   0.059   7.690
70794SOL     OW14278   3.439  14.437  14.016
70794SOL    HW114279   3.505  14.376  14.049
70794SOL    HW214280   3.395  14.470  14.095
70795SOL     OW14281   5.466   2.103   4.841
70795SOL    HW114282   5.509   2.109   4.927
70795SOL    HW214283   5.406   2.030   4.850
70796SOL     OW14284   4.638   8.840   4.170
70796SOL    HW114285   4.574   8.814   4.237
70796SOL    HW214286   4.594   8.908   4.120
70797SOL     OW14287   1.669  11.544  14.882
70797SOL    HW114288   1.750  11.530   0.044
70797SOL    HW214289   1.699  11.557  14.792
70798SOL     OW14290   7.668   1.898   2.871
70798SOL    HW114291   7.753   1.920   2.832
70798SOL    HW214292   7.691   1.849   2.950
70799SOL     OW14293   5.376   2.025   5.441
70799SOL    HW114294   5.419   2.095   5.392
70799SOL    HW214295   5.393   1.946   5.391
70800SOL     OW14296   5.715   9.351   2.577
70800SOL    HW114297   5.631   9.308   2.563
70800SOL    HW214298   5.775   9.308   2.516
70801SOL     OW14299  14.711  12.229   4.150
70801SOL    HW114300  14.631  12.177   4.145
70801SOL    HW214301  14.777  12.169   4.184
70802SOL     OW14302   0.738  14.034   7.662
70802SOL    HW114303   0.795  13.978   7.609
70802SOL    HW214304   0.667  14.059   7.603
70803SOL     OW14305  11.524  11.492   2.058
70803SOL    HW114306  11.556  11.431   1.992
70803SOL    HW214307  11.574  11.573   2.041
70804SOL     OW14308  14.126  13.569   0.816
70804SOL    HW114309  14.065  13.603   0.750
70804SOL    HW214310  14.143  13.644   0.873
70805SOL     OW14311   4.841   0.792   6.174
70805SOL    HW114312   4.903   0.719   6.165
70805SOL    HW214313   4.765   0.753   6.217
70806SOL     OW14314   7.221   8.877  11.876
70806SOL    HW114315   7.234   8.786  11.905
70806SOL    HW214316   7.200   8.869  11.783
70807SOL     OW14317   2.915  11.554   7.969
70807SOL    HW114318   2.952  11.573   8.056
70807SOL    HW214319   2.830  11.597   7.970
70808SOL     OW14320   9.760   9.240   0.178
70808SOL    HW114321   9.761   9.197   0.263
70808SOL    HW214322   9.831   9.199   0.129
70809SOL     OW14323   0.393  13.093  11.815
70809SOL    HW114324   0.408  13.102  11.909
70809SOL    HW214325   0.477  13.062  11.781
70810SOL     OW14326   7.783   1.509   8.591
70810SOL    HW114327   7.829   1.537   8.512
70810SOL    HW214328   7.823   1.425   8.614
70811SOL     OW14329  12.269   4.319  10.396
70811SOL    HW114330  12.320   4.383  10.347
70811SOL    HW214331  12.225   4.267  10.329
70812SOL     OW14332  10.821   0.006   9.382
70812SOL    HW114333  10.828   0.037   9.292
70812SOL    HW214334  10.888  14.826   9.389
70813SOL     OW14335  11.176   1.615  14.130
70813SOL    HW114336  11.149   1.676  14.061
70813SOL    HW214337  11.097   1.564  14.149
70814SOL     OW14338   8.339  13.053  11.283
70814SOL    HW114339   8.424  13.020  11.312
70814SOL    HW214340   8.283  13.046  11.361
70815SOL     OW14341   5.643   6.788   5.323
70815SOL    HW114342   5.610   6.798   5.234
70815SOL    HW214343   5.573   6.743   5.370
70816SOL     OW14344  13.997   5.846   0.440
70816SOL    HW114345  14.029   5.831   0.352
70816SOL    HW214346  13.901   5.843   0.432
70817SOL     OW14347   1.822   8.533  10.336
70817SOL    HW114348   1.735   8.571  10.327
70817SOL    HW214349   1.814   8.443  10.304
70818SOL     OW14350   4.884   7.996   8.954
70818SOL    HW114351   4.802   7.949   8.939
70818SOL    HW214352   4.949   7.950   8.900
70819SOL     OW14353  11.444   9.506  10.835
70819SOL    HW114354  11.391   9.494  10.914
70819SOL    HW214355  11.384   9.546  10.772
70820SOL     OW14356  11.730  13.509  13.234
70820SOL    HW114357  11.807  13.540  13.186
70820SOL    HW214358  11.764  13.450  13.301
70821SOL     OW14359   5.518   2.245  11.636
70821SOL    HW114360   5.479   2.199  11.562
70821SOL    HW214361   5.590   2.189  11.664
70822SOL     OW14362   8.603   0.267   6.838
70822SOL    HW114363   8.512   0.256   6.864
70822SOL    HW214364   8.638   0.178   6.833
70823SOL     OW14365   5.163   4.920   2.948
70823SOL    HW114366   5.110   4.872   2.884
70823SOL    HW214367   5.244   4.870   2.955
70824SOL     OW14368   0.546   6.123   0.637
70824SOL    HW114369   0.461   6.091   0.607
70824SOL    HW214370   0.574   6.059   0.701
70825SOL     OW14371   0.591  12.007   8.906
70825SOL    HW114372   0.517  11.976   8.853
70825SOL    HW214373   0.582  11.961   8.990
70826SOL     OW14374  10.155   8.995   6.684
70826SOL    HW114375  10.165   9.056   6.757
70826SOL    HW214376  10.116   9.048   6.614
70827SOL     OW14377   9.443   4.654   4.275
70827SOL    HW114378   9.353   4.667   4.245
70827SOL    HW214379   9.456   4.721   4.342
70828SOL     OW14380   6.628  10.807  12.605
70828SOL    HW114381   6.696  10.806  12.538
70828SOL    HW214382   6.675  10.808  12.688
70829SOL     OW14383  13.996   7.448  11.838
70829SOL    HW114384  13.953   7.437  11.753
70829SOL    HW214385  13.965   7.534  11.870
70830SOL     OW14386   7.159  14.594   5.393
70830SOL    HW114387   7.157  14.502   5.420
70830SOL    HW214388   7.241  14.627   5.429
70831SOL     OW14389   4.860  11.154   5.299
70831SOL    HW114390   4.953  11.171   5.313
70831SOL    HW214391   4.836  11.211   5.226
70832SOL     OW14392  13.929   1.614   2.087
70832SOL    HW114393  13.959   1.658   2.007
70832SOL    HW214394  13.851   1.661   2.113
70833SOL     OW14395   1.627   2.617   9.811
70833SOL    HW114396   1.653   2.675   9.883
70833SOL    HW214397   1.551   2.661   9.773
70834SOL     OW14398   4.424  12.200  13.288
70834SOL    HW114399   4.472  12.267  13.336
70834SOL    HW214400   4.490  12.160  13.231
70835SOL     OW14401  13.795   3.656  12.730
70835SOL    HW114402  13.842   3.725  12.683
70835SOL    HW214403  13.704   3.665  12.701
70836SOL     OW14404   2.855  13.761  14.042
70836SOL    HW114405   2.856  13.803  14.128
70836SOL    HW214406   2.900  13.824  13.985
70837SOL     OW14407  11.320  11.073  12.591
70837SOL    HW114408  11.358  11.146  12.640
70837SOL    HW214409  11.227  11.096  12.582
70838SOL     OW14410   2.134  10.804   7.860
70838SOL    HW114411   2.142  10.709   7.869
70838SOL    HW214412   2.206  10.839   7.913
70839SOL     OW14413   8.887  12.037   6.779
70839SOL    HW114414   8.862  11.945   6.769
70839SOL    HW214415   8.909  12.066   6.691
70840SOL     OW14416   8.466  11.641   1.251
70840SOL    HW114417   8.412  11.711   1.289
70840SOL    HW214418   8.454  11.567   1.310
70841SOL     OW14419  13.644  11.903   4.789
70841SOL    HW114420  13.667  11.860   4.707
70841SOL    HW214421  13.719  11.959   4.809
70842SOL     OW14422   8.401  14.746  14.275
70842SOL    HW114423   8.337  14.782  14.336
70842SOL    HW214424   8.463  14.698  14.330
70843SOL     OW14425   9.180   6.014  10.379
70843SOL    HW114426   9.168   6.108  10.396
70843SOL    HW214427   9.204   5.978  10.464
70844SOL     OW14428   6.982   5.949   8.564
70844SOL    HW114429   7.018   6.025   8.520
70844SOL    HW214430   6.887   5.956   8.550
70845SOL     OW14431  14.659   6.988   1.158
70845SOL    HW114432  14.677   7.017   1.248
70845SOL    HW214433  14.687   6.896   1.157
70846SOL     OW14434  12.652  13.399  14.058
70846SOL    HW114435  12.602  13.467  14.012
70846SOL    HW214436  12.586  13.339  14.092
70847SOL     OW14437   1.958   0.066   2.089
70847SOL    HW114438   1.981   0.159   2.091
70847SOL    HW214439   2.036   0.023   2.054
70848SOL     OW14440  10.686   5.382  12.681
70848SOL    HW114441  10.643   5.296  12.683
70848SOL    HW214442  10.704   5.398  12.588
70849SOL     OW14443  14.633   4.925  10.237
70849SOL    HW114444  14.590   4.999  10.195
70849SOL    HW214445  14.716   4.960  10.268
70850SOL     OW14446   5.721   3.479   0.478
70850SOL    HW114447   5.771   3.468   0.397
70850SOL    HW214448   5.674   3.562   0.467
70851SOL     OW14449  13.276  12.334   1.192
70851SOL    HW114450  13.236  12.403   1.246
70851SOL    HW214451  13.310  12.271   1.256
70852SOL     OW14452   8.790   8.520   8.680
70852SOL    HW114453   8.829   8.605   8.699
70852SOL    HW214454   8.784   8.517   8.584
70853SOL     OW14455   1.801  14.503  13.464
70853SOL    HW114456   1.837  14.420  13.495
70853SOL    HW214457   1.714  14.481  13.430
70854SOL     OW14458   1.408   0.961   4.554
70854SOL    HW114459   1.409   0.898   4.626
70854SOL    HW214460   1.358   0.918   4.485
70855SOL     OW14461   1.903   0.977   7.238
70855SOL    HW114462   1.906   0.961   7.143
70855SOL    HW214463   1.879   1.069   7.246
70856SOL     OW14464   9.957   9.681   6.324
70856SOL    HW114465   9.882   9.727   6.288
70856SOL    HW214466  10.024   9.686   6.255
70857SOL     OW14467   7.818   0.421   6.107
70857SOL    HW114468   7.856   0.366   6.176
70857SOL    HW214469   7.887   0.485   6.086
70858SOL     OW14470   7.482   2.942  10.400
70858SOL    HW114471   7.402   2.982  10.435
70858SOL    HW214472   7.465   2.930  10.307
70859SOL     OW14473   1.079  10.280   0.153
70859SOL    HW114474   0.996  10.265   0.200
70859SOL    HW214475   1.068  10.366   0.112
70860SOL     OW14476   0.226   7.338   5.114
70860SOL    HW114477   0.247   7.431   5.115
70860SOL    HW214478   0.144   7.333   5.066
70861SOL     OW14479   8.707  11.740   6.517
70861SOL    HW114480   8.723  11.814   6.459
70861SOL    HW214481   8.676  11.780   6.598
70862SOL     OW14482   4.145   6.426   9.832
70862SOL    HW114483   4.162   6.358   9.767
70862SOL    HW214484   4.121   6.379   9.911
70863SOL     OW14485   2.982   7.829   2.579
70863SOL    HW114486   3.068   7.848   2.540
70863SOL    HW214487   2.981   7.879   2.660
70864SOL     OW14488   8.129   3.189   1.896
70864SOL    HW114489   8.166   3.274   1.869
70864SOL    HW214490   8.045   3.211   1.935
70865SOL     OW14491  10.193   1.449  14.805
70865SOL    HW114492  10.152   1.459   0.004
70865SOL    HW214493  10.286   1.464  14.821
70866SOL     OW14494   1.993   8.307   2.104
70866SOL    HW114495   1.993   8.399   2.127
70866SOL    HW214496   2.078   8.293   2.061
70867SOL     OW14497   9.823   4.500   1.331
70867SOL    HW114498   9.780   4.424   1.292
70867SOL    HW214499   9.889   4.526   1.267
70868SOL     OW14500   4.340   2.394  14.178
70868SOL    HW114501   4.404   2.454  14.140
70868SOL    HW214502   4.391   2.321  14.211
70869SOL     OW14503   8.462  12.055   7.518
70869SOL    HW114504   8.420  12.002   7.450
70869SOL    HW214505   8.439  12.145   7.495
70870SOL     OW14506   0.113   7.324  10.695
70870SOL    HW114507   0.051   7.392  10.718
70870SOL    HW214508   0.153   7.354  10.614
70871SOL     OW14509   2.211   5.985  14.437
70871SOL    HW114510   2.244   6.075  14.437
70871SOL    HW214511   2.136   5.986  14.378
70872SOL     OW14512  10.952   7.286   6.445
70872SOL    HW114513  11.047   7.291   6.442
70872SOL    HW214514  10.922   7.350   6.380
70873SOL     OW14515   9.738   1.236   2.813
70873SOL    HW114516   9.706   1.325   2.795
70873SOL    HW214517   9.660   1.181   2.802
70874SOL     OW14518   1.621  13.400   1.825
70874SOL    HW114519   1.585  13.485   1.799
70874SOL    HW214520   1.692  13.421   1.885
70875SOL     OW14521   6.227   4.058   9.268
70875SOL    HW114522   6.145   4.107   9.261
70875SOL    HW214523   6.288   4.105   9.210
70876SOL     OW14524   9.148  12.623  14.612
70876SOL    HW114525   9.208  12.697  14.594
70876SOL    HW214526   9.182  12.584  14.692
70877SOL     OW14527   2.219   4.232   3.523
70877SOL    HW114528   2.225   4.144   3.486
70877SOL    HW214529   2.235   4.219   3.617
70878SOL     OW14530  13.427  11.608   1.157
70878SOL    HW114531  13.355  11.563   1.112
70878SOL    HW214532  13.472  11.538   1.205
70879SOL     OW14533   6.436   8.915   6.824
70879SOL    HW114534   6.480   8.903   6.740
70879SOL    HW214535   6.507   8.928   6.887
70880SOL     OW14536   7.541   2.776   4.733
70880SOL    HW114537   7.507   2.779   4.644
70880SOL    HW214538   7.476   2.822   4.785
70881SOL     OW14539   3.444  12.551   0.252
70881SOL    HW114540   3.365  12.502   0.230
70881SOL    HW214541   3.491  12.495   0.314
70882SOL     OW14542  12.578   4.363   1.912
70882SOL    HW114543  12.665   4.341   1.879
70882SOL    HW214544  12.591   4.442   1.965
70883SOL     OW14545   1.150  12.655  13.574
70883SOL    HW114546   1.070  12.700  13.600
70883SOL    HW214547   1.128  12.562  13.578
70884SOL     OW14548   1.580  10.706  14.629
70884SOL    HW114549   1.617  10.784  14.671
70884SOL    HW214550   1.556  10.735  14.541
70885SOL     OW14551   6.901   5.563   8.017
70885SOL    HW114552   6.820   5.524   7.985
70885SOL    HW214553   6.879   5.654   8.036
70886SOL     OW14554   2.620   5.920  13.274
70886SOL    HW114555   2.678   5.976  13.221
70886SOL    HW214556   2.532   5.948  13.249
70887SOL     OW14557   6.869   9.407   5.776
70887SOL    HW114558   6.920   9.464   5.719
70887SOL    HW214559   6.934   9.351   5.819
70888SOL     OW14560  10.051  11.153  14.325
70888SOL    HW114561  10.000  11.077  14.299
70888SOL    HW214562  10.062  11.144  14.420
70889SOL     OW14563   9.452  12.183   0.726
70889SOL    HW114564   9.493  12.110   0.678
70889SOL    HW214565   9.413  12.237   0.657
70890SOL     OW14566  11.366   7.308   5.935
70890SOL    HW114567  11.429   7.380   5.935
70890SOL    HW214568  11.397   7.249   5.866
70891SOL     OW14569   1.627  10.486  14.009
70891SOL    HW114570   1.603  10.455  14.096
70891SOL    HW214571   1.667  10.409  13.967
70892SOL     OW14572   9.680  13.164   1.228
70892SOL    HW114573   9.706  13.130   1.142
70892SOL    HW214574   9.706  13.256   1.227
70893SOL     OW14575  13.824  12.754   4.329
70893SOL    HW114576  13.831  12.686   4.396
70893SOL    HW214577  13.729  12.768   4.319
70894SOL     OW14578   2.018   4.627   4.545
70894SOL    HW114579   2.066   4.545   4.532
70894SOL    HW214580   1.932   4.599   4.579
70895SOL     OW14581   4.732   4.876   1.303
70895SOL    HW114582   4.812   4.927   1.301
70895SOL    HW214583   4.664   4.936   1.272
70896SOL     OW14584  13.389   5.521  11.526
70896SOL    HW114585  13.331   5.480  11.591
70896SOL    HW214586  13.336   5.590  11.487
70897SOL     OW14587   7.591   7.018  12.380
70897SOL    HW114588   7.594   7.045  12.289
70897SOL    HW214589   7.500   7.032  12.406
70898SOL     OW14590   0.768   2.861   1.709
70898SOL    HW114591   0.674   2.874   1.724
70898SOL    HW214592   0.793   2.933   1.651
70899SOL     OW14593   2.783  14.383   3.315
70899SOL    HW114594   2.744  14.298   3.335
70899SOL    HW214595   2.850  14.395   3.382
70900SOL     OW14596   5.668   9.870   8.210
70900SOL    HW114597   5.722   9.934   8.256
70900SOL    HW214598   5.725   9.794   8.197
70901SOL     OW14599  13.726   5.310   6.717
70901SOL    HW114600  13.772   5.323   6.800
70901SOL    HW214601  13.777   5.242   6.672
70902SOL     OW14602   5.525   2.789  13.728
70902SOL    HW114603   5.608   2.833  13.708
70902SOL    HW214604   5.468   2.859  13.761
70903SOL     OW14605   4.212   0.113   7.159
70903SOL    HW114606   4.169   0.198   7.159
70903SOL    HW214607   4.245   0.102   7.249
70904SOL     OW14608  12.967   3.853   8.288
70904SOL    HW114609  12.880   3.864   8.327
70904SOL    HW214610  13.024   3.832   8.362
70905SOL     OW14611  11.113  11.883  11.653
70905SOL    HW114612  11.169  11.896  11.729
70905SOL    HW214613  11.024  11.878  11.689
70906SOL     OW14614  10.456  13.191  11.856
70906SOL    HW114615  10.431  13.179  11.948
70906SOL    HW214616  10.387  13.147  11.806
70907SOL     OW14617   2.968  14.489  14.477
70907SOL    HW114618   2.979  14.415  14.417
70907SOL    HW214619   2.966  14.566  14.420
70908SOL     OW14620   6.992   0.910   3.228
70908SOL    HW114621   7.053   0.943   3.293
70908SOL    HW214622   7.007   0.964   3.150
70909SOL     OW14623  10.671   5.356   1.230
70909SOL    HW114624  10.765   5.365   1.244
70909SOL    HW214625  10.663   5.321   1.141
70910SOL     OW14626   7.664   3.461   1.112
70910SOL    HW114627   7.683   3.540   1.163
70910SOL    HW214628   7.589   3.421   1.156
70911SOL     OW14629   7.104   3.401   6.491
70911SOL    HW114630   7.194   3.421   6.464
70911SOL    HW214631   7.074   3.481   6.535
70912SOL     OW14632   2.168   4.279  11.298
70912SOL    HW114633   2.078   4.312  11.307
70912SOL    HW214634   2.204   4.330  11.226
70913SOL     OW14635  14.102   2.130   5.708
70913SOL    HW114636  14.084   2.162   5.797
70913SOL    HW214637  14.020   2.144   5.661
70914SOL     OW14638  14.705   0.288   7.527
70914SOL    HW114639  14.776   0.332   7.479
70914SOL    HW214640  14.653   0.245   7.459
70915SOL     OW14641   5.750   4.929  13.930
70915SOL    HW114642   5.754   4.856  13.992
70915SOL    HW214643   5.815   4.907  13.863
70916SOL     OW14644   2.091  14.016   4.400
70916SOL    HW114645   2.164  14.034   4.459
70916SOL    HW214646   2.130  13.964   4.329
70917SOL     OW14647   3.217   6.930   8.558
70917SOL    HW114648   3.123   6.949   8.560
70917SOL    HW214649   3.224   6.837   8.580
70918SOL     OW14650   0.493   0.317  12.852
70918SOL    HW114651   0.432   0.309  12.779
70918SOL    HW214652   0.503   0.227  12.884
70919SOL     OW14653   4.542  11.514  11.784
70919SOL    HW114654   4.481  11.511  11.710
70919SOL    HW214655   4.491  11.481  11.859
70920SOL     OW14656  10.019  14.047   0.440
70920SOL    HW114657   9.964  14.119   0.469
70920SOL    HW214658  10.060  14.014   0.519
70921SOL     OW14659  14.654  10.120  14.831
70921SOL    HW114660  14.676  10.213  14.835
70921SOL    HW214661  14.676  10.094  14.742
70922SOL     OW14662   2.397  10.215   8.346
70922SOL    HW114663   2.476  10.169   8.318
70922SOL    HW214664   2.408  10.304   8.314
70923SOL     OW14665   5.673   2.155  12.081
70923SOL    HW114666   5.767   2.169  12.075
70923SOL    HW214667   5.634   2.238  12.054
70924SOL     OW14668   6.413  12.219   6.269
70924SOL    HW114669   6.365  12.142   6.300
70924SOL    HW214670   6.347  12.273   6.225
70925SOL     OW14671   6.907   4.537   0.672
70925SOL    HW114672   6.973   4.550   0.740
70925SOL    HW214673   6.896   4.623   0.633
70926SOL     OW14674   6.385   8.702   3.345
70926SOL    HW114675   6.374   8.616   3.386
70926SOL    HW214676   6.309   8.711   3.287
70927SOL     OW14677  12.427   4.476  11.586
70927SOL    HW114678  12.449   4.396  11.635
70927SOL    HW214679  12.408   4.541  11.654
70928SOL     OW14680   1.028  11.458  10.447
70928SOL    HW114681   1.018  11.524  10.379
70928SOL    HW214682   1.088  11.394  10.410
70929SOL     OW14683   0.991  11.117  13.793
70929SOL    HW114684   1.054  11.046  13.778
70929SOL    HW214685   1.017  11.185  13.731
70930SOL     OW14686   6.122  13.656   7.716
70930SOL    HW114687   6.107  13.641   7.810
70930SOL    HW214688   6.052  13.716   7.690
70931SOL     OW14689  12.784   9.656   0.678
70931SOL    HW114690  12.829   9.736   0.649
70931SOL    HW214691  12.733   9.684   0.754
70932SOL     OW14692   5.592   4.332   7.732
70932SOL    HW114693   5.605   4.239   7.750
70932SOL    HW214694   5.665   4.375   7.777
70933SOL     OW14695   3.550  10.720  10.754
70933SOL    HW114696   3.474  10.705  10.697
70933SOL    HW214697   3.601  10.786  10.708
70934SOL     OW14698  13.884   7.455   2.097
70934SOL    HW114699  13.857   7.394   2.029
70934SOL    HW214700  13.964   7.416   2.133
70935SOL     OW14701   2.773   0.102   2.323
70935SOL    HW114702   2.694   0.144   2.291
70935SOL    HW214703   2.757   0.088   2.417
70936SOL     OW14704  12.376  12.149  12.845
70936SOL    HW114705  12.443  12.087  12.874
70936SOL    HW214706  12.306  12.093  12.811
70937SOL     OW14707  13.090   2.304   2.141
70937SOL    HW114708  13.138   2.317   2.059
70937SOL    HW214709  13.085   2.392   2.180
70938SOL     OW14710   6.671  12.846  13.195
70938SOL    HW114711   6.595  12.891  13.232
70938SOL    HW214712   6.702  12.789  13.266
70939SOL     OW14713   5.117  12.812   6.454
70939SOL    HW114714   5.082  12.748   6.517
70939SOL    HW214715   5.044  12.829   6.394
70940SOL     OW14716   3.386   1.498  11.655
70940SOL    HW114717   3.460   1.503  11.595
70940SOL    HW214718   3.392   1.411  11.693
70941SOL     OW14719  10.986   2.612   6.256
70941SOL    HW114720  10.961   2.687   6.310
70941SOL    HW214721  10.966   2.639   6.167
70942SOL     OW14722   3.572   3.910   9.210
70942SOL    HW114723   3.556   3.929   9.118
70942SOL    HW214724   3.661   3.942   9.226
70943SOL     OW14725   5.624   1.134   0.282
70943SOL    HW114726   5.707   1.170   0.314
70943SOL    HW214727   5.649   1.080   0.207
70944SOL     OW14728   9.070  11.264  11.964
70944SOL    HW114729   9.079  11.174  11.935
70944SOL    HW214730   9.070  11.316  11.884
70945SOL     OW14731  14.306  10.169   4.146
70945SOL    HW114732  14.296  10.207   4.234
70945SOL    HW214733  14.356  10.088   4.161
70946SOL     OW14734   6.461   4.866  14.234
70946SOL    HW114735   6.427   4.936  14.179
70946SOL    HW214736   6.412   4.788  14.206
70947SOL     OW14737  13.980   5.469   4.818
70947SOL    HW114738  14.003   5.383   4.854
70947SOL    HW214739  13.945   5.517   4.893
70948SOL     OW14740  14.268   6.686   5.875
70948SOL    HW114741  14.358   6.671   5.904
70948SOL    HW214742  14.265   6.652   5.786
70949SOL     OW14743   0.982   6.649   2.027
70949SOL    HW114744   1.020   6.730   1.991
70949SOL    HW214745   0.949   6.602   1.951
70950SOL     OW14746   3.480   8.489   4.272
70950SOL    HW114747   3.552   8.426   4.272
70950SOL    HW214748   3.453   8.494   4.364
70951SOL     OW14749   7.256   0.717   4.295
70951SOL    HW114750   7.211   0.655   4.238
70951SOL    HW214751   7.194   0.733   4.367
70952SOL     OW14752   0.577   5.889   4.333
70952SOL    HW114753   0.499   5.838   4.312
70952SOL    HW214754   0.553   5.980   4.314
70953SOL     OW14755   1.509   8.764   4.357
70953SOL    HW114756   1.519   8.854   4.326
70953SOL    HW214757   1.526   8.710   4.280
70954SOL     OW14758   5.459   3.550  12.713
70954SOL    HW114759   5.529   3.554  12.648
70954SOL    HW214760   5.494   3.496  12.783
70955SOL     OW14761   7.895  12.870   1.446
70955SOL    HW114762   7.893  12.931   1.519
70955SOL    HW214763   7.881  12.924   1.369
70956SOL     OW14764   7.184  10.434   4.866
70956SOL    HW114765   7.166  10.386   4.785
70956SOL    HW214766   7.155  10.375   4.935
70957SOL     OW14767  13.236   7.949  13.192
70957SOL    HW114768  13.203   7.927  13.105
70957SOL    HW214769  13.313   7.893  13.203
70958SOL     OW14770   8.162  10.712   6.774
70958SOL    HW114771   8.223  10.661   6.723
70958SOL    HW214772   8.078  10.666   6.765
70959SOL     OW14773   6.910  12.486   3.290
70959SOL    HW114774   6.932  12.465   3.380
70959SOL    HW214775   6.948  12.573   3.275
70960SOL     OW14776   7.636   7.897   8.282
70960SOL    HW114777   7.562   7.926   8.336
70960SOL    HW214778   7.680   7.831   8.336
70961SOL     OW14779   8.621   2.239  14.288
70961SOL    HW114780   8.680   2.302  14.246
70961SOL    HW214781   8.680   2.181  14.337
70962SOL     OW14782  12.756   9.634   5.322
70962SOL    HW114783  12.712   9.689   5.257
70962SOL    HW214784  12.827   9.592   5.275
70963SOL     OW14785   5.191  10.322  11.753
70963SOL    HW114786   5.250  10.280  11.815
70963SOL    HW214787   5.242  10.396  11.719
70964SOL     OW14788   6.652   0.677   5.508
70964SOL    HW114789   6.654   0.619   5.432
70964SOL    HW214790   6.632   0.619   5.581
70965SOL     OW14791  11.203   9.564   3.593
70965SOL    HW114792  11.293   9.556   3.626
70965SOL    HW214793  11.169   9.643   3.634
70966SOL     OW14794   2.760   3.932  13.124
70966SOL    HW114795   2.757   4.017  13.167
70966SOL    HW214796   2.675   3.893  13.144
70967SOL     OW14797   6.423  10.776   5.927
70967SOL    HW114798   6.340  10.728   5.927
70967SOL    HW214799   6.488  10.712   5.899
70968SOL     OW14800   8.069  12.681  14.270
70968SOL    HW114801   8.161  12.677  14.295
70968SOL    HW214802   8.021  12.676  14.353
70969SOL     OW14803  11.496   5.435  11.919
70969SOL    HW114804  11.529   5.357  11.964
70969SOL    HW214805  11.569   5.462  11.863
70970SOL     OW14806   4.454   3.266   4.212
70970SOL    HW114807   4.372   3.224   4.237
70970SOL    HW214808   4.451   3.269   4.116
70971SOL     OW14809   4.909  10.408   2.441
70971SOL    HW114810   4.943  10.478   2.497
70971SOL    HW214811   4.814  10.412   2.452
70972SOL     OW14812   7.296   8.965   3.641
70972SOL    HW114813   7.300   8.989   3.549
70972SOL    HW214814   7.334   9.041   3.687
70973SOL     OW14815  10.699  11.623  10.375
70973SOL    HW114816  10.746  11.634  10.292
70973SOL    HW214817  10.754  11.564  10.426
70974SOL     OW14818   2.234   5.647  11.861
70974SOL    HW114819   2.164   5.582  11.864
70974SOL    HW214820   2.190   5.730  11.883
70975SOL     OW14821   8.827   9.759   5.816
70975SOL    HW114822   8.833   9.694   5.886
70975SOL    HW214823   8.772   9.829   5.852
70976SOL     OW14824   0.952  12.723   9.911
70976SOL    HW114825   0.986  12.672   9.838
70976SOL    HW214826   0.946  12.813   9.878
70977SOL     OW14827  13.472   2.135  14.649
70977SOL    HW114828  13.482   2.188  14.728
70977SOL    HW214829  13.427   2.192  14.587
70978SOL     OW14830   4.606   2.030   3.511
70978SOL    HW114831   4.623   1.940   3.482
70978SOL    HW214832   4.512   2.041   3.501
70979SOL     OW14833  12.181   6.951   1.163
70979SOL    HW114834  12.125   6.875   1.182
70979SOL    HW214835  12.161   6.972   1.072
70980SOL     OW14836  13.883  11.129   1.821
70980SOL    HW114837  13.897  11.164   1.733
70980SOL    HW214838  13.874  11.035   1.808
70981SOL     OW14839  12.631   7.159   0.908
70981SOL    HW114840  12.621   7.230   0.845
70981SOL    HW214841  12.684   7.197   0.978
70982SOL     OW14842   3.566   4.315   5.996
70982SOL    HW114843   3.486   4.367   6.004
70982SOL    HW214844   3.625   4.371   5.945
70983SOL     OW14845   0.847   4.161   6.280
70983SOL    HW114846   0.892   4.200   6.205
70983SOL    HW214847   0.917   4.126   6.334
70984SOL     OW14848  11.917  13.296  14.507
70984SOL    HW114849  12.009  13.304  14.482
70984SOL    HW214850  11.915  13.222  14.569
70985SOL     OW14851   8.798   9.394  12.600
70985SOL    HW114852   8.889   9.421  12.586
70985SOL    HW214853   8.746   9.454  12.546
70986SOL     OW14854   9.751   0.818  10.874
70986SOL    HW114855   9.838   0.826  10.913
70986SOL    HW214856   9.692   0.817  10.949
70987SOL     OW14857   6.908   5.057   1.446
70987SOL    HW114858   6.876   5.072   1.357
70987SOL    HW214859   6.976   5.124   1.459
70988SOL     OW14860   9.886   8.303  11.108
70988SOL    HW114861   9.921   8.387  11.136
70988SOL    HW214862   9.885   8.308  11.012
70989SOL     OW14863   9.621   8.207   6.092
70989SOL    HW114864   9.716   8.200   6.087
70989SOL    HW214865   9.593   8.129   6.140
70990SOL     OW14866  13.384   4.342   9.028
70990SOL    HW114867  13.433   4.380   9.100
70990SOL    HW214868  13.402   4.248   9.033
70991SOL     OW14869  10.775  13.283   4.853
70991SOL    HW114870  10.785  13.188   4.846
70991SOL    HW214871  10.865  13.315   4.861
70992SOL     OW14872   8.888   2.127  13.558
70992SOL    HW114873   8.904   2.098  13.469
70992SOL    HW214874   8.869   2.047  13.607
70993SOL     OW14875   4.487   2.556   6.726
70993SOL    HW114876   4.471   2.590   6.814
70993SOL    HW214877   4.517   2.466   6.740
70994SOL     OW14878  14.102   5.696   1.504
70994SOL    HW114879  14.100   5.614   1.454
70994SOL    HW214880  14.142   5.671   1.588
70995SOL     OW14881  10.162   8.278  14.135
70995SOL    HW114882  10.226   8.208  14.150
70995SOL    HW214883  10.201   8.355  14.175
70996SOL     OW14884   1.950  12.263   5.981
70996SOL    HW114885   1.961  12.187   6.038
70996SOL    HW214886   1.866  12.301   6.007
70997SOL     OW14887  13.153   6.177   2.783
70997SOL    HW114888  13.147   6.093   2.828
70997SOL    HW214889  13.224   6.223   2.827
70998SOL     OW14890   4.524   2.151  11.140
70998SOL    HW114891   4.504   2.136  11.233
70998SOL    HW214892   4.534   2.064  11.103
70999SOL     OW14893  14.333   1.200   9.185
70999SOL    HW114894  14.243   1.227   9.201
70999SOL    HW214895  14.338   1.111   9.221
71000SOL     OW14896   1.802   3.193   9.806
71000SOL    HW114897   1.732   3.249   9.772
71000SOL    HW214898   1.827   3.138   9.732
71001SOL     OW14899  12.415   3.605  11.574
71001SOL    HW114900  12.490   3.577  11.521
71001SOL    HW214901  12.377   3.678  11.525
71002SOL     OW14902   6.253  10.258   8.962
71002SOL    HW114903   6.238  10.172   9.001
71002SOL    HW214904   6.341  10.282   8.991
71003SOL     OW14905   8.364  14.440  14.012
71003SOL    HW114906   8.406  14.359  14.041
71003SOL    HW214907   8.400  14.455  13.925
71004SOL     OW14908  10.713  11.285   8.052
71004SOL    HW114909  10.688  11.193   8.057
71004SOL    HW214910  10.764  11.293   7.972
71005SOL     OW14911   5.202  13.052   3.403
71005SOL    HW114912   5.188  13.145   3.416
71005SOL    HW214913   5.180  13.037   3.311
71006SOL     OW14914   5.570   6.710  11.053
71006SOL    HW114915   5.619   6.780  11.011
71006SOL    HW214916   5.636   6.648  11.082
71007SOL     OW14917  13.124  12.071   4.481
71007SOL    HW114918  13.098  12.098   4.392
71007SOL    HW214919  13.203  12.019   4.468
71008SOL     OW14920   3.029   0.844  14.849
71008SOL    HW114921   3.019   0.795   0.043
71008SOL    HW214922   2.967   0.917  14.858
71009SOL     OW14923   2.525   8.997   1.654
71009SOL    HW114924   2.577   8.918   1.640
71009SOL    HW214925   2.561   9.060   1.592
71010SOL     OW14926   0.311   7.017  10.103
71010SOL    HW114927   0.291   7.109  10.086
71010SOL    HW214928   0.295   6.973  10.020
71011SOL     OW14929  13.855  13.984   2.870
71011SOL    HW114930  13.899  14.023   2.946
71011SOL    HW214931  13.876  14.043   2.797
71012SOL     OW14932   2.078   9.164  10.973
71012SOL    HW114933   2.015   9.203  10.913
71012SOL    HW214934   2.030   9.091  11.014
71013SOL     OW14935  13.600   6.073  11.908
71013SOL    HW114936  13.547   6.063  11.829
71013SOL    HW214937  13.569   6.005  11.967
71014SOL     OW14938   4.913  13.496  10.038
71014SOL    HW114939   4.929  13.531  10.125
71014SOL    HW214940   4.824  13.462  10.042
71015SOL     OW14941   4.659  10.962   1.372
71015SOL    HW114942   4.638  11.024   1.302
71015SOL    HW214943   4.669  10.878   1.326
71016SOL     OW14944   5.478  10.353   7.711
71016SOL    HW114945   5.477  10.334   7.805
71016SOL    HW214946   5.567  10.332   7.683
71017SOL     OW14947   5.212  10.214   9.590
71017SOL    HW114948   5.253  10.224   9.504
71017SOL    HW214949   5.206  10.303   9.625
71018SOL     OW14950  14.087   7.629  12.173
71018SOL    HW114951  14.053   7.717  12.160
71018SOL    HW214952  14.010   7.572  12.173
71019SOL     OW14953  12.289   5.796   3.155
71019SOL    HW114954  12.307   5.708   3.122
71019SOL    HW214955  12.327   5.854   3.089
71020SOL     OW14956   4.651   6.112   8.769
71020SOL    HW114957   4.588   6.044   8.748
71020SOL    HW214958   4.711   6.071   8.832
71021SOL     OW14959  11.067   2.599   7.500
71021SOL    HW114960  11.053   2.525   7.559
71021SOL    HW214961  11.011   2.581   7.425
71022SOL     OW14962   6.055   2.020   3.950
71022SOL    HW114963   5.974   2.035   3.999
71022SOL    HW214964   6.032   2.038   3.859
71023SOL     OW14965   9.822   7.832  13.339
71023SOL    HW114966   9.839   7.767  13.270
71023SOL    HW214967   9.844   7.786  13.420
71024SOL     OW14968   2.716   5.933  14.221
71024SOL    HW114969   2.802   5.969  14.240
71024SOL    HW214970   2.701   5.869  14.290
71025SOL     OW14971  12.816   4.512   7.918
71025SOL    HW114972  12.817   4.607   7.924
71025SOL    HW214973  12.772   4.493   7.836
71026SOL     OW14974   0.530  11.618   6.767
71026SOL    HW114975   0.566  11.538   6.807
71026SOL    HW214976   0.578  11.689   6.809
71027SOL     OW14977   7.768   2.363   1.100
71027SOL    HW114978   7.715   2.284   1.106
71027SOL    HW214979   7.828   2.346   1.027
71028SOL     OW14980   0.339   4.905   9.111
71028SOL    HW114981   0.400   4.844   9.153
71028SOL    HW214982   0.272   4.849   9.072
71029SOL     OW14983   4.661  12.729  11.731
71029SOL    HW114984   4.627  12.814  11.704
71029SOL    HW214985   4.584  12.671  11.731
71030SOL     OW14986  13.689   8.629  13.639
71030SOL    HW114987  13.678   8.550  13.691
71030SOL    HW214988  13.623   8.689  13.673
71031SOL     OW14989   1.215   1.402   0.936
71031SOL    HW114990   1.176   1.421   1.021
71031SOL    HW214991   1.305   1.436   0.942
71032SOL     OW14992   7.792   7.727   7.707
71032SOL    HW114993   7.794   7.713   7.801
71032SOL    HW214994   7.711   7.777   7.692
71033SOL     OW14995  12.860   5.177   6.474
71033SOL    HW114996  12.858   5.191   6.569
71033SOL    HW214997  12.768   5.180   6.448
71034SOL     OW14998   3.850   5.473   7.871
71034SOL    HW114999   3.941   5.502   7.865
71034SOL    HW215000   3.856   5.383   7.905
71035SOL     OW15001   5.048   3.562  14.623
71035SOL    HW115002   5.063   3.557  14.529
71035SOL    HW215003   5.015   3.475  14.647
71036SOL     OW15004   7.401   9.466   9.585
71036SOL    HW115005   7.464   9.493   9.652
71036SOL    HW215006   7.451   9.464   9.504
71037SOL     OW15007   8.468  11.891   5.750
71037SOL    HW115008   8.491  11.983   5.737
71037SOL    HW215009   8.416  11.868   5.673
71038SOL     OW15010   3.377  10.094  12.371
71038SOL    HW115011   3.387  10.018  12.314
71038SOL    HW215012   3.399  10.062  12.458
71039SOL     OW15013   1.819  14.452  12.919
71039SOL    HW115014   1.797  14.394  12.991
71039SOL    HW215015   1.827  14.539  12.960
71040SOL     OW15016   9.026  10.777   8.456
71040SOL    HW115017   8.976  10.696   8.446
71040SOL    HW215018   9.116  10.752   8.432
71041SOL     OW15019   4.489   8.896   1.947
71041SOL    HW115020   4.502   8.803   1.925
71041SOL    HW215021   4.577   8.926   1.971
71042SOL     OW15022   6.617   7.125  10.349
71042SOL    HW115023   6.621   7.030  10.342
71042SOL    HW215024   6.702   7.150  10.387
71043SOL     OW15025   8.623   6.989   6.060
71043SOL    HW115026   8.597   7.080   6.048
71043SOL    HW215027   8.655   6.961   5.974
71044SOL     OW15028   8.154   8.112   7.473
71044SOL    HW115029   8.200   8.030   7.453
71044SOL    HW215030   8.211   8.157   7.535
71045SOL     OW15031  11.641   5.862  14.817
71045SOL    HW115032  11.649   5.907  14.733
71045SOL    HW215033  11.697   5.912  14.877
71046SOL     OW15034  12.948   6.068  12.246
71046SOL    HW115035  12.954   6.120  12.326
71046SOL    HW215036  12.960   6.130  12.175
71047SOL     OW15037  14.591  13.458   9.209
71047SOL    HW115038  14.582  13.383   9.268
71047SOL    HW215039  14.594  13.419   9.122
71048SOL     OW15040   3.016   9.569  13.449
71048SOL    HW115041   3.063   9.519  13.516
71048SOL    HW215042   2.927   9.577  13.483
71049SOL     OW15043  13.474  14.845   9.064
71049SOL    HW115044  13.518  14.764   9.038
71049SOL    HW215045  13.413  14.863   8.993
71050SOL     OW15046   2.710   7.700   3.783
71050SOL    HW115047   2.688   7.771   3.723
71050SOL    HW215048   2.767   7.642   3.733
71051SOL     OW15049   9.643  10.284   7.910
71051SOL    HW115050   9.726  10.274   7.863
71051SOL    HW215051   9.610  10.195   7.921
71052SOL     OW15052   2.457   6.514   2.817
71052SOL    HW115053   2.475   6.441   2.758
71052SOL    HW215054   2.380   6.557   2.780
71053SOL     OW15055  11.256   3.825   4.184
71053SOL    HW115056  11.208   3.746   4.207
71053SOL    HW215057  11.194   3.878   4.133
71054SOL     OW15058   8.614   6.426  13.159
71054SOL    HW115059   8.611   6.357  13.225
71054SOL    HW215060   8.527   6.466  13.161
71055SOL     OW15061   9.211   1.071   9.565
71055SOL    HW115062   9.296   1.039   9.533
71055SOL    HW215063   9.180   1.129   9.496
71056SOL     OW15064   0.695   8.684  13.379
71056SOL    HW115065   0.624   8.745  13.363
71056SOL    HW215066   0.724   8.657  13.292
71057SOL     OW15067   0.524  11.419  10.870
71057SOL    HW115068   0.497  11.503  10.907
71057SOL    HW215069   0.561  11.372  10.945
71058SOL     OW15070  11.675   4.049   7.292
71058SOL    HW115071  11.640   4.111   7.357
71058SOL    HW215072  11.770   4.057   7.301
71059SOL     OW15073  12.419  13.341  11.384
71059SOL    HW115074  12.356  13.290  11.435
71059SOL    HW215075  12.388  13.333  11.293
71060SOL     OW15076  12.478   9.438  12.458
71060SOL    HW115077  12.391   9.419  12.494
71060SOL    HW215078  12.461   9.477  12.373
71061SOL     OW15079   7.104   3.787   2.756
71061SOL    HW115080   7.091   3.798   2.850
71061SOL    HW215081   7.074   3.697   2.739
71062SOL     OW15082   0.243   7.354   9.618
71062SOL    HW115083   0.153   7.338   9.589
71062SOL    HW215084   0.296   7.341   9.540
71063SOL     OW15085  11.088   4.102  11.237
71063SOL    HW115086  11.132   4.149  11.307
71063SOL    HW215087  11.113   4.149  11.157
71064SOL     OW15088   0.714   8.413  13.434
71064SOL    HW115089   0.798   8.399  13.392
71064SOL    HW215090   0.686   8.500  13.405
71065SOL     OW15091   7.801  14.662   9.958
71065SOL    HW115092   7.867  14.596   9.977
71065SOL    HW215093   7.751  14.670  10.039
71066SOL     OW15094   9.748   9.987  10.761
71066SOL    HW115095   9.786   9.899  10.757
71066SOL    HW215096   9.823  10.046  10.761
71067SOL     OW15097   4.598   2.439  10.789
71067SOL    HW115098   4.603   2.359  10.737
71067SOL    HW215099   4.637   2.416  10.873
71068SOL     OW15100  10.548   9.474  14.091
71068SOL    HW115101  10.484   9.403  14.080
71068SOL    HW215102  10.584   9.461  14.178
71069SOL     OW15103   7.816   9.462   4.994
71069SOL    HW115104   7.886   9.517   4.959
71069SOL    HW215105   7.799   9.497   5.082
71070SOL     OW15106   9.631  12.021   2.890
71070SOL    HW115107   9.592  11.955   2.949
71070SOL    HW215108   9.579  12.100   2.906
71071SOL     OW15109   9.590  14.198   8.542
71071SOL    HW115110   9.667  14.143   8.556
71071SOL    HW215111   9.582  14.250   8.622
71072SOL     OW15112   1.564   5.819   8.929
71072SOL    HW115113   1.585   5.906   8.897
71072SOL    HW215114   1.471   5.807   8.906
71073SOL     OW15115   6.329   1.551   2.262
71073SOL    HW115116   6.311   1.459   2.282
71073SOL    HW215117   6.252   1.598   2.295
71074SOL     OW15118   8.632   0.625   1.078
71074SOL    HW115119   8.694   0.610   1.007
71074SOL    HW215120   8.588   0.541   1.090
71075SOL     OW15121   3.803   6.785  12.333
71075SOL    HW115122   3.750   6.803  12.411
71075SOL    HW215123   3.794   6.690  12.320
71076SOL     OW15124   8.691  14.293   3.758
71076SOL    HW115125   8.637  14.327   3.687
71076SOL    HW215126   8.645  14.214   3.786
71077SOL     OW15127  10.100   8.049  13.765
71077SOL    HW115128  10.112   7.960  13.733
71077SOL    HW215129  10.074   8.099  13.688
71078SOL     OW15130   9.794  10.273   1.400
71078SOL    HW115131   9.751  10.358   1.405
71078SOL    HW215132   9.888  10.293   1.402
71079SOL     OW15133   1.652   5.731   6.453
71079SOL    HW115134   1.746   5.719   6.443
71079SOL    HW215135   1.616   5.642   6.458
71080SOL     OW15136  12.294   1.634   5.618
71080SOL    HW115137  12.248   1.704   5.665
71080SOL    HW215138  12.278   1.555   5.670
71081SOL     OW15139   2.059  13.883   3.540
71081SOL    HW115140   2.121  13.932   3.486
71081SOL    HW215141   2.001  13.949   3.577
71082SOL     OW15142   2.086  12.388   3.690
71082SOL    HW115143   2.171  12.431   3.691
71082SOL    HW215144   2.091  12.325   3.619
71083SOL     OW15145   7.785   5.976   4.886
71083SOL    HW115146   7.704   5.924   4.884
71083SOL    HW215147   7.754   6.066   4.888
71084SOL     OW15148  11.823  12.971  11.282
71084SOL    HW115149  11.753  12.920  11.242
71084SOL    HW215150  11.873  12.908  11.333
71085SOL     OW15151   3.568   7.604   2.422
71085SOL    HW115152   3.590   7.592   2.515
71085SOL    HW215153   3.478   7.571   2.414
71086SOL     OW15154   0.240   1.779  10.662
71086SOL    HW115155   0.172   1.757  10.725
71086SOL    HW215156   0.320   1.741  10.698
71087SOL     OW15157   6.931   7.705   5.660
71087SOL    HW115158   6.869   7.767   5.698
71087SOL    HW215159   6.876   7.637   5.620
71088SOL     OW15160   9.941   3.879  10.087
71088SOL    HW115161   9.997   3.807  10.116
71088SOL    HW215162  10.002   3.946  10.057
71089SOL     OW15163   7.543  13.474   4.827
71089SOL    HW115164   7.520  13.471   4.920
71089SOL    HW215165   7.633  13.506   4.825
71090SOL     OW15166   5.985   7.759   7.628
71090SOL    HW115167   6.004   7.837   7.575
71090SOL    HW215168   5.914   7.715   7.581
71091SOL     OW15169  14.362   4.630   6.098
71091SOL    HW115170  14.364   4.538   6.072
71091SOL    HW215171  14.365   4.628   6.194
71092SOL     OW15172   7.857  10.326  12.593
71092SOL    HW115173   7.768  10.290  12.595
71092SOL    HW215174   7.913  10.248  12.596
71093SOL     OW15175   0.631   7.286   7.710
71093SOL    HW115176   0.597   7.197   7.709
71093SOL    HW215177   0.554   7.341   7.693
71094SOL     OW15178   3.354   9.350   2.771
71094SOL    HW115179   3.354   9.294   2.849
71094SOL    HW215180   3.446   9.359   2.748
71095SOL     OW15181   5.982   1.499   1.502
71095SOL    HW115182   6.059   1.538   1.462
71095SOL    HW215183   5.909   1.553   1.472
71096SOL     OW15184  12.169   7.652   9.463
71096SOL    HW115185  12.095   7.713   9.463
71096SOL    HW215186  12.132   7.569   9.494
71097SOL     OW15187   4.928   6.632   9.920
71097SOL    HW115188   4.915   6.583   9.839
71097SOL    HW215189   5.006   6.685   9.904
71098SOL     OW15190   2.142   6.800  10.262
71098SOL    HW115191   2.144   6.760  10.175
71098SOL    HW215192   2.199   6.876  10.255
71099SOL     OW15193  14.684   5.219  11.484
71099SOL    HW115194  14.746   5.234  11.413
71099SOL    HW215195  14.676   5.305  11.526
71100SOL     OW15196  13.494   5.489  13.043
71100SOL    HW115197  13.518   5.579  13.023
71100SOL    HW215198  13.440   5.496  13.122
71101SOL     OW15199   3.807   5.074  14.038
71101SOL    HW115200   3.737   5.130  14.004
71101SOL    HW215201   3.767   4.987  14.043
71102SOL     OW15202  12.566   0.209   9.391
71102SOL    HW115203  12.612   0.125   9.401
71102SOL    HW215204  12.530   0.227   9.478
71103SOL     OW15205   1.862  14.700   1.892
71103SOL    HW115206   1.825  14.626   1.940
71103SOL    HW215207   1.809  14.775   1.919
71104SOL     OW15208   2.701  10.048   1.439
71104SOL    HW115209   2.638   9.985   1.475
71104SOL    HW215210   2.763  10.063   1.510
71105SOL     OW15211   6.492  13.942   3.446
71105SOL    HW115212   6.557  13.892   3.496
71105SOL    HW215213   6.481  13.893   3.365
71106SOL     OW15214   5.322   1.278   2.958
71106SOL    HW115215   5.252   1.342   2.964
71106SOL    HW215216   5.371   1.288   3.039
71107SOL     OW15217   7.589   7.218  13.639
71107SOL    HW115218   7.639   7.256  13.712
71107SOL    HW215219   7.634   7.135  13.621
71108SOL     OW15220   2.591   0.245   5.573
71108SOL    HW115221   2.656   0.270   5.507
71108SOL    HW215222   2.642   0.213   5.647
71109SOL     OW15223   2.601   3.560   7.047
71109SOL    HW115224   2.567   3.477   7.012
71109SOL    HW215225   2.696   3.550   7.046
71110SOL     OW15226  14.525   7.365  14.839
71110SOL    HW115227  14.436   7.353  14.804
71110SOL    HW215228  14.518   7.344   0.044
71111SOL     OW15229  14.451  13.914   8.970
71111SOL    HW115230  14.488  13.940   8.885
71111SOL    HW215231  14.369  13.869   8.948
71112SOL     OW15232   2.569  10.238   0.906
71112SOL    HW115233   2.529  10.217   0.991
71112SOL    HW215234   2.561  10.158   0.855
71113SOL     OW15235  10.900   7.997   1.262
71113SOL    HW115236  10.977   8.049   1.283
71113SOL    HW215237  10.930   7.936   1.194
71114SOL     OW15238   4.825   9.922  13.536
71114SOL    HW115239   4.825   9.853  13.470
71114SOL    HW215240   4.888   9.987  13.504
71115SOL     OW15241   8.343   2.848  14.311
71115SOL    HW115242   8.429   2.868  14.348
71115SOL    HW215243   8.295   2.805  14.382
71116SOL     OW15244   9.112   9.766  14.085
71116SOL    HW115245   9.096   9.761  14.179
71116SOL    HW215246   9.169   9.842  14.074
71117SOL     OW15247   1.418  13.585   3.132
71117SOL    HW115248   1.496  13.573   3.187
71117SOL    HW215249   1.408  13.502   3.086
71118SOL     OW15250  14.417   5.084   6.052
71118SOL    HW115251  14.495   5.030   6.061
71118SOL    HW215252  14.404   5.123   6.138
71119SOL     OW15253  13.892   3.791  12.971
71119SOL    HW115254  13.854   3.740  12.900
71119SOL    HW215255  13.823   3.854  12.995
71120SOL     OW15256  14.016   5.773   3.696
71120SOL    HW115257  13.951   5.720   3.742
71120SOL    HW215258  13.966   5.818   3.627
71121SOL     OW15259   3.165  14.718   3.665
71121SOL    HW115260   3.204  14.805   3.664
71121SOL    HW215261   3.239  14.658   3.665
71122SOL     OW15262   4.153  11.822  12.695
71122SOL    HW115263   4.170  11.802  12.787
71122SOL    HW215264   4.240  11.837  12.657
71123SOL     OW15265   6.375   9.276   0.698
71123SOL    HW115266   6.298   9.240   0.654
71123SOL    HW215267   6.355   9.369   0.708
71124SOL     OW15268   2.900  13.240  14.734
71124SOL    HW115269   2.912  13.294  14.812
71124SOL    HW215270   2.914  13.150  14.764
71125SOL     OW15271  11.302   5.667  10.513
71125SOL    HW115272  11.381   5.649  10.563
71125SOL    HW215273  11.288   5.587  10.461
71126SOL     OW15274  13.399   8.001  14.389
71126SOL    HW115275  13.489   8.003  14.355
71126SOL    HW215276  13.356   7.932  14.339
71127SOL     OW15277   3.125  12.397   3.617
71127SOL    HW115278   3.058  12.461   3.642
71127SOL    HW215279   3.083  12.344   3.550
71128SOL     OW15280   9.431  14.331  11.075
71128SOL    HW115281   9.349  14.357  11.034
71128SOL    HW215282   9.455  14.249  11.032
71129SOL     OW15283   8.664   5.155   2.780
71129SOL    HW115284   8.691   5.174   2.869
71129SOL    HW215285   8.712   5.217   2.726
71130SOL     OW15286   1.792  10.706  13.006
71130SOL    HW115287   1.821  10.697  13.097
71130SOL    HW215288   1.784  10.616  12.974
71131SOL     OW15289  10.881  13.457   2.791
71131SOL    HW115290  10.803  13.449   2.845
71131SOL    HW215291  10.945  13.398   2.832
71132SOL     OW15292   0.547  12.914   5.725
71132SOL    HW115293   0.594  12.945   5.647
71132SOL    HW215294   0.599  12.841   5.757
71133SOL     OW15295   6.616   3.461  12.612
71133SOL    HW115296   6.637   3.447  12.704
71133SOL    HW215297   6.688   3.419  12.564
71134SOL     OW15298   3.860   8.585   6.426
71134SOL    HW115299   3.948   8.620   6.411
71134SOL    HW215300   3.867   8.492   6.401
71135SOL     OW15301   1.656  10.671   7.782
71135SOL    HW115302   1.702  10.749   7.813
71135SOL    HW215303   1.590  10.654   7.849
71136SOL     OW15304   2.339   0.164  13.634
71136SOL    HW115305   2.319   0.205  13.550
71136SOL    HW215306   2.319   0.231  13.699
71137SOL     OW15307   4.063   6.994   2.416
71137SOL    HW115308   3.979   7.013   2.374
71137SOL    HW215309   4.048   6.911   2.461
71138SOL     OW15310  14.050   7.693   3.690
71138SOL    HW115311  14.071   7.755   3.759
71138SOL    HW215312  13.959   7.668   3.707
71139SOL     OW15313   9.710   4.962   4.972
71139SOL    HW115314   9.744   5.045   5.005
71139SOL    HW215315   9.784   4.921   4.927
71140SOL     OW15316  12.301   8.531  13.415
71140SOL    HW115317  12.223   8.586  13.429
71140SOL    HW215318  12.292   8.461  13.480
71141SOL     OW15319  13.309  12.375  11.748
71141SOL    HW115320  13.233  12.334  11.709
71141SOL    HW215321  13.367  12.303  11.772
71142SOL     OW15322  14.039  13.212   1.585
71142SOL    HW115323  13.946  13.197   1.570
71142SOL    HW215324  14.049  13.307   1.587
71143SOL     OW15325   9.327   9.707  14.710
71143SOL    HW115326   9.330   9.641  14.641
71143SOL    HW215327   9.281   9.665  14.782
71144SOL     OW15328  12.526   8.898   6.324
71144SOL    HW115329  12.468   8.857   6.388
71144SOL    HW215330  12.495   8.864   6.240
71145SOL     OW15331   9.245   5.796  10.919
71145SOL    HW115332   9.288   5.760  10.840
71145SOL    HW215333   9.317   5.834  10.969
71146SOL     OW15334   9.510   8.871   6.664
71146SOL    HW115335   9.574   8.868   6.592
71146SOL    HW215336   9.563   8.865   6.743
71147SOL     OW15337   8.506   9.391   4.325
71147SOL    HW115338   8.532   9.482   4.320
71147SOL    HW215339   8.430   9.385   4.266
71148SOL     OW15340  10.736   9.419   3.060
71148SOL    HW115341  10.820   9.459   3.084
71148SOL    HW215342  10.703   9.472   2.988
71149SOL     OW15343  14.216   5.786   2.449
71149SOL    HW115344  14.298   5.740   2.431
71149SOL    HW215345  14.238   5.879   2.437
71150SOL     OW15346  10.920  11.001   7.076
71150SOL    HW115347  10.848  10.971   7.020
71150SOL    HW215348  10.995  11.008   7.017
71151SOL     OW15349   4.773   8.120   6.856
71151SOL    HW115350   4.854   8.165   6.832
71151SOL    HW215351   4.802   8.032   6.881
71152SOL     OW15352   3.299   9.976  11.006
71152SOL    HW115353   3.246  10.055  11.014
71152SOL    HW215354   3.259   9.926  10.935
71153SOL     OW15355  10.391   8.262   8.036
71153SOL    HW115356  10.436   8.325   7.979
71153SOL    HW215357  10.352   8.315   8.105
71154SOL     OW15358   8.303  11.291  13.464
71154SOL    HW115359   8.291  11.209  13.416
71154SOL    HW215360   8.221  11.302  13.512
71155SOL     OW15361   0.852   9.418  10.580
71155SOL    HW115362   0.764   9.445  10.606
71155SOL    HW215363   0.910   9.467  10.639
71156SOL     OW15364  10.160  12.171  10.921
71156SOL    HW115365  10.150  12.079  10.949
71156SOL    HW215366  10.131  12.222  10.997
71157SOL     OW15367  12.351   0.608   2.575
71157SOL    HW115368  12.377   0.561   2.496
71157SOL    HW215369  12.260   0.634   2.559
71158SOL     OW15370   7.455   3.473  11.746
71158SOL    HW115371   7.396   3.441  11.815
71158SOL    HW215372   7.507   3.397  11.721
71159SOL     OW15373  13.176  12.635  14.537
71159SOL    HW115374  13.265  12.604  14.556
71159SOL    HW215375  13.174  12.724  14.573
71160SOL     OW15376   9.155  10.862   0.197
71160SOL    HW115377   9.125  10.786   0.248
71160SOL    HW215378   9.238  10.886   0.237
71161SOL     OW15379   5.269  12.439  13.443
71161SOL    HW115380   5.293  12.471  13.529
71161SOL    HW215381   5.351  12.438  13.394
71162SOL     OW15382   4.423  10.805  14.155
71162SOL    HW115383   4.480  10.735  14.122
71162SOL    HW215384   4.354  10.759  14.201
71163SOL     OW15385  14.291   8.241   7.261
71163SOL    HW115386  14.350   8.215   7.332
71163SOL    HW215387  14.309   8.179   7.191
71164SOL     OW15388   1.625   2.293   7.626
71164SOL    HW115389   1.571   2.243   7.564
71164SOL    HW215390   1.591   2.269   7.712
71165SOL     OW15391   9.256  14.283   7.286
71165SOL    HW115392   9.317  14.320   7.222
71165SOL    HW215393   9.170  14.316   7.259
71166SOL     OW15394  12.821   1.261  12.678
71166SOL    HW115395  12.769   1.249  12.599
71166SOL    HW215396  12.903   1.215  12.661
71167SOL     OW15397  11.084  14.489  14.383
71167SOL    HW115398  11.025  14.416  14.398
71167SOL    HW215399  11.103  14.524  14.470
71168SOL     OW15400  14.081   0.908  11.080
71168SOL    HW115401  14.065   0.905  11.175
71168SOL    HW215402  14.119   0.823  11.060
71169SOL     OW15403   8.036   9.611   2.935
71169SOL    HW115404   8.083   9.576   2.858
71169SOL    HW215405   7.964   9.662   2.897
71170SOL     OW15406   8.691   1.102   9.946
71170SOL    HW115407   8.609   1.088   9.900
71170SOL    HW215408   8.678   1.184   9.995
71171SOL     OW15409  14.728   7.792   3.354
71171SOL    HW115410  14.810   7.765   3.314
71171SOL    HW215411  14.667   7.801   3.281
71172SOL     OW15412  11.088  13.555   5.165
71172SOL    HW115413  11.073  13.643   5.130
71172SOL    HW215414  11.008  13.507   5.143
71173SOL     OW15415   8.386  10.708  10.191
71173SOL    HW115416   8.340  10.767  10.131
71173SOL    HW215417   8.317  10.654  10.229
71174SOL     OW15418   0.040  12.468   5.255
71174SOL    HW115419   0.100  12.464   5.180
71174SOL    HW215420   0.069  12.398   5.313
71175SOL     OW15421  13.714   1.476   5.854
71175SOL    HW115422  13.747   1.548   5.908
71175SOL    HW215423  13.756   1.488   5.769
71176SOL     OW15424   5.122  11.124  11.325
71176SOL    HW115425   5.072  11.176  11.261
71176SOL    HW215426   5.093  11.157  11.410
71177SOL     OW15427  11.239   4.887   8.253
71177SOL    HW115428  11.179   4.951   8.292
71177SOL    HW215429  11.273   4.931   8.175
71178SOL     OW15430   6.597  14.756   9.798
71178SOL    HW115431   6.604  14.666   9.830
71178SOL    HW215432   6.584  14.746   9.703
71179SOL     OW15433   9.131   7.046  14.348
71179SOL    HW115434   9.067   7.083  14.409
71179SOL    HW215435   9.121   6.951  14.356
71180SOL     OW15436   9.660   8.644   3.359
71180SOL    HW115437   9.693   8.554   3.363
71180SOL    HW215438   9.732   8.698   3.393
71181SOL     OW15439   9.708   1.278   9.743
71181SOL    HW115440   9.655   1.355   9.725
71181SOL    HW215441   9.689   1.256   9.835
71182SOL     OW15442   2.175   1.718   4.052
71182SOL    HW115443   2.217   1.699   4.136
71182SOL    HW215444   2.180   1.636   4.004
71183SOL     OW15445   3.412  12.002   3.577
71183SOL    HW115446   3.326  12.012   3.535
71183SOL    HW215447   3.474  12.010   3.505
71184SOL     OW15448   7.721  13.035   8.677
71184SOL    HW115449   7.809  13.012   8.647
71184SOL    HW215450   7.690  13.101   8.615
71185SOL     OW15451  13.656  10.904   8.620
71185SOL    HW115452  13.702  10.939   8.544
71185SOL    HW215453  13.681  10.961   8.692
71186SOL     OW15454  14.408   6.369   5.216
71186SOL    HW115455  14.337   6.424   5.250
71186SOL    HW215456  14.477   6.432   5.193
71187SOL     OW15457  11.435   0.881   4.464
71187SOL    HW115458  11.449   0.857   4.556
71187SOL    HW215459  11.341   0.901   4.459
71188SOL     OW15460  12.436   8.930  10.717
71188SOL    HW115461  12.473   8.892  10.638
71188SOL    HW215462  12.478   9.016  10.724
71189SOL     OW15463  13.290   4.317   0.644
71189SOL    HW115464  13.246   4.399   0.622
71189SOL    HW215465  13.360   4.309   0.579
71190SOL     OW15466   5.115   6.805   0.182
71190SOL    HW115467   5.022   6.818   0.203
71190SOL    HW215468   5.153   6.772   0.263
71191SOL     OW15469  10.261  13.487   5.677
71191SOL    HW115470  10.265  13.393   5.696
71191SOL    HW215471  10.341  13.505   5.628
71192SOL     OW15472   1.894   7.615   6.605
71192SOL    HW115473   1.950   7.691   6.591
71192SOL    HW215474   1.924   7.578   6.688
71193SOL     OW15475   9.036   3.852  10.478
71193SOL    HW115476   8.946   3.846  10.510
71193SOL    HW215477   9.052   3.768  10.435
71194SOL     OW15478   0.694  12.769   4.970
71194SOL    HW115479   0.721  12.799   4.883
71194SOL    HW215480   0.776  12.755   5.017
71195SOL     OW15481   6.438  13.206   4.536
71195SOL    HW115482   6.353  13.206   4.490
71195SOL    HW215483   6.416  13.188   4.627
71196SOL     OW15484   1.837  13.025   7.336
71196SOL    HW115485   1.761  13.069   7.298
71196SOL    HW215486   1.879  12.982   7.261
71197SOL     OW15487   6.474   7.654  10.193
71197SOL    HW115488   6.385   7.618  10.186
71197SOL    HW215489   6.527   7.579  10.220
71198SOL     OW15490  13.176   0.254  12.673
71198SOL    HW115491  13.184   0.274  12.766
71198SOL    HW215492  13.167   0.340  12.631
71199SOL     OW15493   9.980   0.418  14.752
71199SOL    HW115494   9.993   0.351  14.685
71199SOL    HW215495   9.949   0.494  14.702
71200SOL     OW15496   9.578   8.945  12.896
71200SOL    HW115497   9.621   8.862  12.918
71200SOL    HW215498   9.607   8.964  12.807
71201SOL     OW15499  13.612   0.583   6.091
71201SOL    HW115500  13.626   0.506   6.147
71201SOL    HW215501  13.653   0.655   6.138
71202SOL     OW15502  11.324  11.024  10.784
71202SOL    HW115503  11.250  10.969  10.808
71202SOL    HW215504  11.294  11.113  10.800
71203SOL     OW15505   2.269   4.534   6.488
71203SOL    HW115506   2.335   4.530   6.418
71203SOL    HW215507   2.230   4.447   6.488
71204SOL     OW15508  12.682  14.838   9.417
71204SOL    HW115509  12.720  14.751   9.406
71204SOL    HW215510  12.605  14.823   9.472
71205SOL     OW15511  13.528   2.131   9.416
71205SOL    HW115512  13.459   2.159   9.355
71205SOL    HW215513  13.519   2.035   9.419
71206SOL     OW15514   6.862  10.163   0.989
71206SOL    HW115515   6.824  10.129   0.908
71206SOL    HW215516   6.827  10.252   0.997
71207SOL     OW15517   7.654   6.680  10.416
71207SOL    HW115518   7.580   6.619  10.420
71207SOL    HW215519   7.664   6.711  10.506
71208SOL     OW15520   3.316   3.682   7.866
71208SOL    HW115521   3.343   3.661   7.776
71208SOL    HW215522   3.381   3.747   7.895
71209SOL     OW15523   9.558  10.651   8.247
71209SOL    HW115524   9.586  10.663   8.338
71209SOL    HW215525   9.576  10.559   8.228
71210SOL     OW15526   2.739  14.729   9.417
71210SOL    HW115527   2.665  14.763   9.366
71210SOL    HW215528   2.705  14.722   9.506
71211SOL     OW15529   6.623  12.549   1.570
71211SOL    HW115530   6.713  12.538   1.601
71211SOL    HW215531   6.571  12.489   1.623
71212SOL     OW15532   0.772  14.356   8.120
71212SOL    HW115533   0.699  14.299   8.142
71212SOL    HW215534   0.842  14.297   8.094
71213SOL     OW15535   6.730   0.503   6.648
71213SOL    HW115536   6.645   0.480   6.686
71213SOL    HW215537   6.794   0.466   6.709
71214SOL     OW15538  10.797   0.628   4.689
71214SOL    HW115539  10.712   0.584   4.691
71214SOL    HW215540  10.828   0.624   4.779
71215SOL     OW15541  12.210   2.463   6.784
71215SOL    HW115542  12.240   2.402   6.717
71215SOL    HW215543  12.150   2.412   6.838
71216SOL     OW15544   9.925  11.522  11.013
71216SOL    HW115545   9.925  11.534  11.108
71216SOL    HW215546   9.904  11.608  10.978
71217SOL     OW15547   6.371  12.511  14.590
71217SOL    HW115548   6.457  12.536  14.557
71217SOL    HW215549   6.345  12.584  14.646
71218SOL     OW15550   7.797  12.502   2.171
71218SOL    HW115551   7.844  12.581   2.145
71218SOL    HW215552   7.762  12.522   2.259
71219SOL     OW15553  13.216   2.790   4.815
71219SOL    HW115554  13.295   2.781   4.867
71219SOL    HW215555  13.183   2.878   4.837
71220SOL     OW15556   8.046   0.632   8.233
71220SOL    HW115557   8.096   0.556   8.204
71220SOL    HW215558   7.954   0.605   8.226
71221SOL     OW15559   1.433  10.811   7.609
71221SOL    HW115560   1.376  10.734   7.607
71221SOL    HW215561   1.520  10.777   7.592
71222SOL     OW15562  10.935   4.208   8.690
71222SOL    HW115563  10.994   4.195   8.765
71222SOL    HW215564  10.917   4.119   8.659
71223SOL     OW15565   8.977   8.707   1.085
71223SOL    HW115566   8.999   8.628   1.134
71223SOL    HW215567   9.000   8.686   0.994
71224SOL     OW15568   0.110   5.211   7.587
71224SOL    HW115569   0.099   5.305   7.575
71224SOL    HW215570   0.171   5.202   7.660
71225SOL     OW15571   7.128  10.075  10.218
71225SOL    HW115572   7.050  10.086  10.164
71225SOL    HW215573   7.197  10.120  10.170
71226SOL     OW15574   3.566   9.986  10.934
71226SOL    HW115575   3.584   9.930  11.010
71226SOL    HW215576   3.473  10.008  10.943
71227SOL     OW15577   4.976   4.928  10.655
71227SOL    HW115578   4.917   4.944  10.581
71227SOL    HW215579   5.028   4.853  10.627
71228SOL     OW15580  10.457   8.014   7.957
71228SOL    HW115581  10.380   7.972   7.995
71228SOL    HW215582  10.436   8.108   7.957
71229SOL     OW15583  12.200   1.573   3.890
71229SOL    HW115584  12.195   1.665   3.862
71229SOL    HW215585  12.293   1.551   3.884
71230SOL     OW15586  11.209  12.334  13.917
71230SOL    HW115587  11.271  12.266  13.891
71230SOL    HW215588  11.214  12.336  14.013
71231SOL     OW15589   7.400   6.970   1.089
71231SOL    HW115590   7.355   7.045   1.127
71231SOL    HW215591   7.452   7.007   1.017
71232SOL     OW15592   6.405   6.308   9.736
71232SOL    HW115593   6.431   6.339   9.649
71232SOL    HW215594   6.398   6.213   9.727
71233SOL     OW15595  12.321   6.849   9.608
71233SOL    HW115596  12.253   6.850   9.675
71233SOL    HW215597  12.398   6.888   9.650
71234SOL     OW15598   9.771   5.979   1.490
71234SOL    HW115599   9.815   6.027   1.560
71234SOL    HW215600   9.706   6.041   1.456
71235SOL     OW15601   2.029   6.799  11.974
71235SOL    HW115602   2.053   6.760  12.059
71235SOL    HW215603   2.113   6.818  11.932
71236SOL     OW15604   0.166  12.699   3.929
71236SOL    HW115605   0.218  12.632   3.886
71236SOL    HW215606   0.100  12.649   3.978
71237SOL     OW15607  13.481   3.150   2.975
71237SOL    HW115608  13.550   3.212   2.999
71237SOL    HW215609  13.527   3.070   2.952
71238SOL     OW15610   0.507   0.385   2.359
71238SOL    HW115611   0.543   0.446   2.422
71238SOL    HW215612   0.421   0.361   2.394
71239SOL     OW15613  10.522   6.572  13.611
71239SOL    HW115614  10.486   6.590  13.698
71239SOL    HW215615  10.564   6.487  13.620
71240SOL     OW15616   7.942   0.330  12.233
71240SOL    HW115617   7.977   0.274  12.302
71240SOL    HW215618   7.860   0.288  12.207
71241SOL     OW15619  11.419  13.328   4.970
71241SOL    HW115620  11.424  13.264   4.898
71241SOL    HW215621  11.380  13.405   4.930
71242SOL     OW15622   4.360  13.738  10.878
71242SOL    HW115623   4.403  13.748  10.963
71242SOL    HW215624   4.267  13.728  10.898
71243SOL     OW15625   2.991   2.023   9.197
71243SOL    HW115626   3.055   2.002   9.129
71243SOL    HW215627   3.016   1.968   9.271
71244SOL     OW15628   5.098   7.126   9.930
71244SOL    HW115629   5.069   7.216   9.914
71244SOL    HW215630   5.060   7.075   9.858
71245SOL     OW15631  12.934  13.217   0.445
71245SOL    HW115632  13.011  13.188   0.493
71245SOL    HW215633  12.885  13.137   0.427
71246SOL     OW15634  13.362   0.016   4.146
71246SOL    HW115635  13.454   0.013   4.122
71246SOL    HW215636  13.360  14.872   4.237
71247SOL     OW15637  12.956  11.437  11.982
71247SOL    HW115638  12.933  11.449  11.890
71247SOL    HW215639  13.038  11.388  11.981
71248SOL     OW15640   9.668   1.623   2.006
71248SOL    HW115641   9.578   1.599   1.986
71248SOL    HW215642   9.721   1.557   1.962
71249SOL     OW15643   5.246   6.825  11.487
71249SOL    HW115644   5.318   6.787  11.437
71249SOL    HW215645   5.172   6.824  11.427
71250SOL     OW15646   9.665  13.656   8.888
71250SOL    HW115647   9.587  13.706   8.864
71250SOL    HW215648   9.720  13.718   8.935
71251SOL     OW15649   0.479   5.431   0.266
71251SOL    HW115650   0.481   5.418   0.171
71251SOL    HW215651   0.413   5.499   0.279
71252SOL     OW15652  10.581   3.206   8.981
71252SOL    HW115653  10.576   3.298   8.954
71252SOL    HW215654  10.672   3.181   8.962
71253SOL     OW15655   6.344  13.287   9.758
71253SOL    HW115656   6.391  13.295   9.841
71253SOL    HW215657   6.297  13.370   9.750
71254SOL     OW15658  14.031   6.425  10.320
71254SOL    HW115659  14.085   6.503  10.330
71254SOL    HW215660  13.941   6.458  10.317
71255SOL     OW15661   4.514  13.595   0.136
71255SOL    HW115662   4.553  13.537   0.071
71255SOL    HW215663   4.479  13.669   0.086
71256SOL     OW15664   7.961   0.939   4.215
71256SOL    HW115665   7.884   0.987   4.185
71256SOL    HW215666   7.952   0.936   4.310
71257SOL     OW15667  11.297  13.584   7.156
71257SOL    HW115668  11.341  13.534   7.087
71257SOL    HW215669  11.217  13.536   7.173
71258SOL     OW15670  14.463  12.477   1.612
71258SOL    HW115671  14.393  12.479   1.546
71258SOL    HW215672  14.440  12.547   1.673
71259SOL     OW15673   8.764   4.888   2.057
71259SOL    HW115674   8.853   4.854   2.062
71259SOL    HW215675   8.712   4.815   2.024
71260SOL     OW15676  11.750  11.557   2.462
71260SOL    HW115677  11.668  11.576   2.415
71260SOL    HW215678  11.816  11.549   2.393
71261SOL     OW15679  11.827   6.557  13.422
71261SOL    HW115680  11.871   6.562  13.507
71261SOL    HW215681  11.734   6.546  13.444
71262SOL     OW15682   9.302   5.506  14.636
71262SOL    HW115683   9.351   5.456  14.571
71262SOL    HW215684   9.354   5.585  14.650
71263SOL     OW15685  14.757  11.235  12.204
71263SOL    HW115686  14.788  11.308  12.258
71263SOL    HW215687  14.794  11.253  12.118
71264SOL     OW15688   1.850   7.295   4.764
71264SOL    HW115689   1.873   7.233   4.832
71264SOL    HW215690   1.934   7.334   4.738
71265SOL     OW15691   1.109   2.393   8.336
71265SOL    HW115692   1.162   2.358   8.407
71265SOL    HW215693   1.056   2.461   8.377
71266SOL     OW15694   4.827   2.673  12.447
71266SOL    HW115695   4.896   2.645  12.387
71266SOL    HW215696   4.764   2.602  12.447
71267SOL     OW15697  14.747   0.740   6.125
71267SOL    HW115698  14.712   0.708   6.208
71267SOL    HW215699  14.686   0.705   6.059
71268SOL     OW15700   5.075  11.494   7.452
71268SOL    HW115701   5.042  11.583   7.458
71268SOL    HW215702   5.010  11.447   7.400
71269SOL     OW15703   0.966   7.570   3.701
71269SOL    HW115704   0.877   7.538   3.715
71269SOL    HW215705   0.963   7.662   3.727
71270SOL     OW15706   0.234   5.571  11.202
71270SOL    HW115707   0.195   5.649  11.241
71270SOL    HW215708   0.326   5.573  11.230
71271SOL     OW15709   4.771   3.253   0.407
71271SOL    HW115710   4.825   3.268   0.484
71271SOL    HW215711   4.767   3.158   0.398
71272SOL     OW15712   8.114   2.183   5.560
71272SOL    HW115713   8.164   2.103   5.579
71272SOL    HW215714   8.097   2.178   5.466
71273SOL     OW15715  12.186   1.557   2.727
71273SOL    HW115716  12.123   1.499   2.684
71273SOL    HW215717  12.163   1.551   2.820
71274SOL     OW15718  13.523  11.278   4.309
71274SOL    HW115719  13.511  11.191   4.271
71274SOL    HW215720  13.618  11.288   4.316
71275SOL     OW15721  10.410   7.846   0.361
71275SOL    HW115722  10.494   7.801   0.352
71275SOL    HW215723  10.421   7.905   0.435
71276SOL     OW15724   6.912  12.383   5.934
71276SOL    HW115725   6.987  12.434   5.904
71276SOL    HW215726   6.842  12.447   5.945
71277SOL     OW15727   4.039  14.797   2.819
71277SOL    HW115728   4.001  14.709   2.823
71277SOL    HW215729   4.014  14.837   2.903
71278SOL     OW15730  11.062  14.316   4.633
71278SOL    HW115731  11.050  14.232   4.676
71278SOL    HW215732  11.001  14.375   4.677
71279SOL     OW15733  12.831  11.894   3.773
71279SOL    HW115734  12.867  11.905   3.861
71279SOL    HW215735  12.740  11.923   3.780
71280SOL     OW15736   4.305   6.274  14.740
71280SOL    HW115737   4.271   6.185  14.749
71280SOL    HW215738   4.254   6.313  14.670
71281SOL     OW15739   5.883   8.839   1.555
71281SOL    HW115740   5.941   8.886   1.614
71281SOL    HW215741   5.928   8.840   1.471
71282SOL     OW15742   1.432  11.965   4.247
71282SOL    HW115743   1.453  11.926   4.331
71282SOL    HW215744   1.378  11.900   4.202
71283SOL     OW15745   5.768   5.395   3.787
71283SOL    HW115746   5.794   5.435   3.704
71283SOL    HW215747   5.850   5.359   3.823
71284SOL     OW15748   9.123  14.616   5.014
71284SOL    HW115749   9.123  14.709   4.993
71284SOL    HW215750   9.164  14.611   5.101
71285SOL     OW15751   0.595   0.744  13.768
71285SOL    HW115752   0.582   0.692  13.688
71285SOL    HW215753   0.584   0.682  13.840
71286SOL     OW15754   7.087   3.451   6.064
71286SOL    HW115755   7.035   3.531   6.072
71286SOL    HW215756   7.177   3.479   6.079
71287SOL     OW15757   2.981   6.727   8.955
71287SOL    HW115758   2.994   6.813   8.996
71287SOL    HW215759   2.904   6.738   8.900
71288SOL     OW15760   5.364  10.789  13.631
71288SOL    HW115761   5.287  10.808  13.683
71288SOL    HW215762   5.438  10.814  13.686
71289SOL     OW15763   8.410   2.759  10.276
71289SOL    HW115764   8.434   2.672  10.246
71289SOL    HW215765   8.371   2.745  10.363
71290SOL     OW15766   5.452  13.123   6.479
71290SOL    HW115767   5.469  13.076   6.398
71290SOL    HW215768   5.358  13.115   6.493
71291SOL     OW15769   3.204  10.315   0.789
71291SOL    HW115770   3.163  10.368   0.857
71291SOL    HW215771   3.277  10.271   0.834
71292SOL     OW15772  10.150  10.415   7.964
71292SOL    HW115773  10.099  10.355   8.018
71292SOL    HW215774  10.241  10.386   7.974
71293SOL     OW15775  12.352   4.721   7.837
71293SOL    HW115776  12.375   4.638   7.795
71293SOL    HW215777  12.436   4.765   7.851
71294SOL     OW15778   3.137   2.243  11.304
71294SOL    HW115779   3.103   2.258  11.216
71294SOL    HW215780   3.228   2.273  11.301
71295SOL     OW15781  11.560   2.376  12.364
71295SOL    HW115782  11.474   2.338  12.345
71295SOL    HW215783  11.585   2.420  12.283
71296SOL     OW15784  14.381  12.547   2.459
71296SOL    HW115785  14.326  12.474   2.431
71296SOL    HW215786  14.326  12.625   2.446
71297SOL     OW15787   8.426   2.275  11.392
71297SOL    HW115788   8.354   2.214  11.407
71297SOL    HW215789   8.388   2.362  11.408
71298SOL     OW15790  10.547   6.066   2.502
71298SOL    HW115791  10.453   6.049   2.500
71298SOL    HW215792  10.572   6.050   2.593
71299SOL     OW15793  10.408  13.847   0.264
71299SOL    HW115794  10.378  13.936   0.243
71299SOL    HW215795  10.480  13.860   0.326
71300SOL     OW15796  13.829  11.507   9.749
71300SOL    HW115797  13.739  11.538   9.735
71300SOL    HW215798  13.824  11.412   9.739
71301SOL     OW15799  10.271   5.219  13.892
71301SOL    HW115800  10.229   5.140  13.858
71301SOL    HW215801  10.310   5.191  13.975
71302SOL     OW15802  11.334   0.704   0.010
71302SOL    HW115803  11.266   0.736   0.069
71302SOL    HW215804  11.300   0.621  14.865
71303SOL     OW15805   5.246   0.476   3.996
71303SOL    HW115806   5.273   0.394   3.954
71303SOL    HW215807   5.170   0.452   4.050
71304SOL     OW15808   7.050   5.654   5.720
71304SOL    HW115809   7.055   5.706   5.640
71304SOL    HW215810   7.054   5.563   5.691
71305SOL     OW15811   7.919   8.108   7.613
71305SOL    HW115812   7.991   8.122   7.551
71305SOL    HW215813   7.961   8.112   7.699
71306SOL     OW15814   5.871   7.911   1.842
71306SOL    HW115815   5.924   7.832   1.855
71306SOL    HW215816   5.842   7.935   1.930
71307SOL     OW15817   1.775  10.490   9.910
71307SOL    HW115818   1.824  10.557   9.959
71307SOL    HW215819   1.828  10.475   9.832
71308SOL     OW15820   1.802  14.118   0.584
71308SOL    HW115821   1.776  14.032   0.552
71308SOL    HW215822   1.840  14.162   0.508
71309SOL     OW15823   6.567   7.910   8.843
71309SOL    HW115824   6.559   8.005   8.846
71309SOL    HW215825   6.612   7.887   8.924
71310SOL     OW15826   6.864  14.077   0.313
71310SOL    HW115827   6.938  14.118   0.358
71310SOL    HW215828   6.853  13.992   0.357
71311SOL     OW15829   2.638   9.033   5.853
71311SOL    HW115830   2.708   8.995   5.906
71311SOL    HW215831   2.651   8.996   5.766
71312SOL     OW15832  12.289  12.470  14.392
71312SOL    HW115833  12.286  12.546  14.334
71312SOL    HW215834  12.290  12.394  14.333
71313SOL     OW15835  14.278   1.480  11.573
71313SOL    HW115836  14.189   1.450  11.591
71313SOL    HW215837  14.294   1.453  11.482
71314SOL     OW15838   1.522   0.694  10.516
71314SOL    HW115839   1.486   0.684  10.605
71314SOL    HW215840   1.509   0.786  10.495
71315SOL     OW15841   7.278  10.055  12.701
71315SOL    HW115842   7.356  10.047  12.756
71315SOL    HW215843   7.229   9.974  12.717
71316SOL     OW15844  14.667   4.203   9.478
71316SOL    HW115845  14.647   4.246   9.561
71316SOL    HW215846  14.633   4.114   9.489
71317SOL     OW15847  12.542  12.927   6.585
71317SOL    HW115848  12.619  12.893   6.539
71317SOL    HW215849  12.576  12.956   6.670
71318SOL     OW15850   4.470   0.679   0.853
71318SOL    HW115851   4.554   0.672   0.808
71318SOL    HW215852   4.470   0.767   0.890
71319SOL     OW15853  13.320  10.604   2.433
71319SOL    HW115854  13.254  10.672   2.419
71319SOL    HW215855  13.375  10.638   2.504
71320SOL     OW15856  11.017   3.947   1.799
71320SOL    HW115857  11.042   3.943   1.891
71320SOL    HW215858  10.925   3.920   1.798
71321SOL     OW15859   6.940   0.558  13.378
71321SOL    HW115860   6.941   0.622  13.449
71321SOL    HW215861   6.853   0.565  13.339
71322SOL     OW15862   6.353   1.994   0.783
71322SOL    HW115863   6.402   1.957   0.856
71322SOL    HW215864   6.343   1.922   0.722
71323SOL     OW15865  11.371   8.653   1.750
71323SOL    HW115866  11.425   8.728   1.774
71323SOL    HW215867  11.405   8.580   1.802
71324SOL     OW15868  10.124   7.712   8.997
71324SOL    HW115869  10.171   7.788   8.963
71324SOL    HW215870  10.035   7.720   8.963
71325SOL     OW15871   9.573   8.711  11.314
71325SOL    HW115872   9.624   8.695  11.234
71325SOL    HW215873   9.517   8.785  11.292
71326SOL     OW15874  10.755   6.110   4.019
71326SOL    HW115875  10.737   6.190   3.970
71326SOL    HW215876  10.830   6.132   4.074
71327SOL     OW15877   6.714   2.489  13.687
71327SOL    HW115878   6.619   2.484  13.700
71327SOL    HW215879   6.749   2.500  13.776
71328SOL     OW15880   3.767  13.760  12.804
71328SOL    HW115881   3.763  13.733  12.896
71328SOL    HW215882   3.845  13.815  12.799
71329SOL     OW15883   2.901   3.776  11.205
71329SOL    HW115884   2.978   3.832  11.216
71329SOL    HW215885   2.895   3.762  11.110
71330SOL     OW15886  11.601  10.925  14.423
71330SOL    HW115887  11.509  10.915  14.445
71330SOL    HW215888  11.645  10.856  14.472
71331SOL     OW15889   2.897   1.516   4.180
71331SOL    HW115890   2.954   1.466   4.238
71331SOL    HW215891   2.931   1.499   4.093
71332SOL     OW15892   1.384   9.590  11.988
71332SOL    HW115893   1.456   9.628  12.039
71332SOL    HW215894   1.364   9.657  11.922
71333SOL     OW15895  12.037   0.159  10.575
71333SOL    HW115896  12.024   0.170  10.481
71333SOL    HW215897  11.992   0.235  10.614
71334SOL     OW15898  13.004  12.672   6.955
71334SOL    HW115899  13.058  12.594   6.951
71334SOL    HW215900  13.045  12.733   6.894
71335SOL     OW15901   3.153   8.849   0.433
71335SOL    HW115902   3.140   8.756   0.453
71335SOL    HW215903   3.099   8.895   0.498
71336SOL     OW15904   8.740  10.176   9.425
71336SOL    HW115905   8.802  10.116   9.465
71336SOL    HW215906   8.777  10.194   9.338
71337SOL     OW15907  10.798   8.976  12.859
71337SOL    HW115908  10.795   8.976  12.763
71337SOL    HW215909  10.737   8.907  12.884
71338SOL     OW15910   6.811  12.109   7.047
71338SOL    HW115911   6.887  12.163   7.066
71338SOL    HW215912   6.757  12.162   6.988
71339SOL     OW15913   8.385   6.240   5.353
71339SOL    HW115914   8.354   6.265   5.267
71339SOL    HW215915   8.457   6.180   5.336
71340SOL     OW15916   3.064  13.730   5.606
71340SOL    HW115917   3.155  13.717   5.633
71340SOL    HW215918   3.041  13.649   5.560
71341SOL     OW15919   3.034   1.192  13.227
71341SOL    HW115920   3.005   1.250  13.296
71341SOL    HW215921   3.048   1.249  13.151
71342SOL     OW15922  12.604   2.642  12.295
71342SOL    HW115923  12.580   2.687  12.214
71342SOL    HW215924  12.686   2.683  12.321
71343SOL     OW15925  10.574   8.491  12.309
71343SOL    HW115926  10.597   8.522  12.397
71343SOL    HW215927  10.536   8.567  12.266
71344SOL     OW15928   9.385   5.422   9.613
71344SOL    HW115929   9.355   5.491   9.553
71344SOL    HW215930   9.393   5.467   9.698
71345SOL     OW15931  13.322   1.628  12.604
71345SOL    HW115932  13.275   1.706  12.576
71345SOL    HW215933  13.288   1.558  12.548
71346SOL     OW15934   9.967   0.010   4.648
71346SOL    HW115935   9.986  14.835   4.578
71346SOL    HW215936  10.045   0.065   4.653
71347SOL     OW15937   2.498   3.146  10.059
71347SOL    HW115938   2.441   3.163   9.984
71347SOL    HW215939   2.581   3.120  10.020
71348SOL     OW15940   1.388   0.071   3.871
71348SOL    HW115941   1.476   0.035   3.884
71348SOL    HW215942   1.338   0.001   3.830
71349SOL     OW15943   1.183  11.444  10.985
71349SOL    HW115944   1.131  11.462  10.907
71349SOL    HW215945   1.270  11.421  10.952
71350SOL     OW15946   9.169   5.414   3.971
71350SOL    HW115947   9.196   5.341   3.915
71350SOL    HW215948   9.109   5.375   4.035
71351SOL     OW15949   0.916  14.456   5.169
71351SOL    HW115950   0.848  14.444   5.102
71351SOL    HW215951   0.895  14.390   5.235
71352SOL     OW15952   7.311   5.064   8.184
71352SOL    HW115953   7.369   5.000   8.226
71352SOL    HW215954   7.320   5.046   8.090
71353SOL     OW15955  14.525   1.415   8.791
71353SOL    HW115956  14.503   1.478   8.859
71353SOL    HW215957  14.506   1.330   8.830
71354SOL     OW15958   0.838  10.792   0.459
71354SOL    HW115959   0.857  10.821   0.548
71354SOL    HW215960   0.774  10.854   0.426
71355SOL     OW15961  11.018   3.761   4.459
71355SOL    HW115962  10.923   3.769   4.470
71355SOL    HW215963  11.049   3.733   4.545
71356SOL     OW15964  11.371   9.397  14.877
71356SOL    HW115965  11.328   9.319   0.025
71356SOL    HW215966  11.368   9.460   0.062
71357SOL     OW15967   6.699   8.235  14.000
71357SOL    HW115968   6.647   8.222  13.921
71357SOL    HW215969   6.779   8.276  13.969
71358SOL     OW15970  12.232   9.420   2.080
71358SOL    HW115971  12.193   9.425   2.167
71358SOL    HW215972  12.206   9.334   2.046
71359SOL     OW15973  12.732  10.484   1.842
71359SOL    HW115974  12.687  10.400   1.845
71359SOL    HW215975  12.804  10.475   1.905
71360SOL     OW15976   3.957   2.906  12.320
71360SOL    HW115977   3.937   2.880  12.410
71360SOL    HW215978   4.049   2.934  12.323
71361SOL     OW15979   1.315   9.465   6.975
71361SOL    HW115980   1.240   9.405   6.978
71361SOL    HW215981   1.382   9.416   6.926
71362SOL     OW15982   1.794  13.109   6.789
71362SOL    HW115983   1.790  13.046   6.717
71362SOL    HW215984   1.716  13.164   6.776
71363SOL     OW15985   3.251   2.585  13.832
71363SOL    HW115986   3.201   2.506  13.813
71363SOL    HW215987   3.278   2.576  13.923
71364SOL     OW15988   7.730  14.758   6.976
71364SOL    HW115989   7.813  14.714   6.995
71364SOL    HW215990   7.665  14.713   7.030
71365SOL     OW15991   8.523   1.801   2.357
71365SOL    HW115992   8.500   1.894   2.358
71365SOL    HW215993   8.582   1.790   2.432
71366SOL     OW15994  13.582  11.292  12.825
71366SOL    HW115995  13.510  11.299  12.889
71366SOL    HW215996  13.538  11.274  12.742
71367SOL     OW15997  10.146   5.417  10.874
71367SOL    HW115998  10.161   5.497  10.925
71367SOL    HW215999  10.058   5.428  10.838
71368SOL     OW16000  10.354   3.026   5.893
71368SOL    HW116001  10.427   3.043   5.835
71368SOL    HW216002  10.336   2.932   5.882
71369SOL     OW16003  14.027  13.155  11.957
71369SOL    HW116004  13.939  13.187  11.979
71369SOL    HW216005  14.068  13.227  11.909
71370SOL     OW16006   6.132   9.532   6.814
71370SOL    HW116007   6.217   9.488   6.816
71370SOL    HW216008   6.150   9.620   6.845
71371SOL     OW16009  10.659   2.923   2.463
71371SOL    HW116010  10.677   2.846   2.409
71371SOL    HW216011  10.665   2.891   2.553
71372SOL     OW16012   3.549  13.503  11.019
71372SOL    HW116013   3.486  13.571  11.045
71372SOL    HW216014   3.497  13.441  10.968
71373SOL     OW16015  13.681   8.036  12.715
71373SOL    HW116016  13.611   8.057  12.653
71373SOL    HW216017  13.635   8.005  12.793
71374SOL     OW16018  12.459   1.977   1.161
71374SOL    HW116019  12.405   1.930   1.225
71374SOL    HW216020  12.491   2.054   1.209
71375SOL     OW16021  12.551   6.555  11.695
71375SOL    HW116022  12.512   6.475  11.731
71375SOL    HW216023  12.588   6.600  11.772
71376SOL     OW16024  11.338  11.989   3.157
71376SOL    HW116025  11.299  11.902   3.151
71376SOL    HW216026  11.267  12.045   3.187
71377SOL     OW16027   6.179   2.162   2.106
71377SOL    HW116028   6.227   2.096   2.155
71377SOL    HW216029   6.186   2.241   2.158
71378SOL     OW16030  13.422   1.184   3.252
71378SOL    HW116031  13.391   1.208   3.165
71378SOL    HW216032  13.481   1.255   3.277
71379SOL     OW16033   1.663   6.148   8.650
71379SOL    HW116034   1.657   6.229   8.599
71379SOL    HW216035   1.754   6.121   8.641
71380SOL     OW16036   4.345   3.199   3.532
71380SOL    HW116037   4.338   3.190   3.437
71380SOL    HW216038   4.289   3.130   3.567
71381SOL     OW16039   9.404  10.984  11.273
71381SOL    HW116040   9.448  10.902  11.295
71381SOL    HW216041   9.470  11.051  11.286
71382SOL     OW16042   5.242  12.587   0.571
71382SOL    HW116043   5.152  12.584   0.539
71382SOL    HW216044   5.292  12.627   0.500
71383SOL     OW16045   4.426   7.215   9.000
71383SOL    HW116046   4.441   7.149   9.068
71383SOL    HW216047   4.493   7.282   9.016
71384SOL     OW16048  10.251   7.449   2.841
71384SOL    HW116049  10.286   7.383   2.901
71384SOL    HW216050  10.327   7.502   2.816
71385SOL     OW16051   6.033  12.326  12.136
71385SOL    HW116052   6.047  12.279  12.054
71385SOL    HW216053   6.090  12.281  12.199
71386SOL     OW16054  12.113  13.978   4.157
71386SOL    HW116055  12.046  13.987   4.088
71386SOL    HW216056  12.064  13.951   4.234
71387SOL     OW16057   3.155  14.753  13.225
71387SOL    HW116058   3.186  14.699  13.298
71387SOL    HW216059   3.171  14.699  13.147
71388SOL     OW16060  14.449   7.828  10.715
71388SOL    HW116061  14.493   7.748  10.685
71388SOL    HW216062  14.496   7.899  10.671
71389SOL     OW16063   3.038  12.028   8.805
71389SOL    HW116064   3.063  11.947   8.760
71389SOL    HW216065   3.065  12.098   8.746
71390SOL     OW16066   2.278   4.548   5.277
71390SOL    HW116067   2.201   4.591   5.315
71390SOL    HW216068   2.324   4.617   5.231
71391SOL     OW16069   1.407  13.409   1.288
71391SOL    HW116070   1.353  13.346   1.240
71391SOL    HW216071   1.411  13.374   1.377
71392SOL     OW16072   5.073   6.987  11.661
71392SOL    HW116073   5.111   6.908  11.623
71392SOL    HW216074   5.054   6.964  11.752
71393SOL     OW16075  10.961   5.770   1.561
71393SOL    HW116076  11.034   5.793   1.503
71393SOL    HW216077  10.928   5.854   1.592
71394SOL     OW16078   3.118   1.669  11.854
71394SOL    HW116079   3.069   1.694  11.776
71394SOL    HW216080   3.128   1.574  11.848
71395SOL     OW16081   3.783   3.889   0.546
71395SOL    HW116082   3.813   3.844   0.466
71395SOL    HW216083   3.754   3.975   0.515
71396SOL     OW16084  13.759   8.717   3.050
71396SOL    HW116085  13.812   8.676   3.119
71396SOL    HW216086  13.814   8.713   2.972
71397SOL     OW16087  14.615  10.286   4.499
71397SOL    HW116088  14.600  10.231   4.576
71397SOL    HW216089  14.664  10.229   4.439
71398SOL     OW16090   3.628  11.394   4.815
71398SOL    HW116091   3.586  11.320   4.861
71398SOL    HW216092   3.585  11.471   4.851
71399SOL     OW16093   4.648   0.591  10.245
71399SOL    HW116094   4.725   0.593  10.302
71399SOL    HW216095   4.681   0.620  10.160
71400SOL     OW16096   5.100   3.229   0.061
71400SOL    HW116097   5.068   3.277   0.137
71400SOL    HW216098   5.036   3.160   0.046
71401SOL     OW16099  11.061   0.783  10.566
71401SOL    HW116100  11.014   0.767  10.485
71401SOL    HW216101  11.020   0.725  10.630
71402SOL     OW16102  10.739   1.633  11.820
71402SOL    HW116103  10.753   1.651  11.727
71402SOL    HW216104  10.654   1.589  11.824
71403SOL     OW16105  12.700   0.375  14.366
71403SOL    HW116106  12.711   0.368  14.272
71403SOL    HW216107  12.705   0.469  14.384
71404SOL     OW16108  12.211   6.233   1.952
71404SOL    HW116109  12.231   6.142   1.931
71404SOL    HW216110  12.192   6.274   1.868
71405SOL     OW16111   8.687   7.823   6.724
71405SOL    HW116112   8.695   7.799   6.631
71405SOL    HW216113   8.770   7.865   6.745
71406SOL     OW16114   7.864  14.477   9.381
71406SOL    HW116115   7.902  14.515   9.302
71406SOL    HW216116   7.932  14.485   9.447
71407SOL     OW16117   2.122   1.235   0.732
71407SOL    HW116118   2.103   1.159   0.786
71407SOL    HW216119   2.209   1.217   0.695
71408SOL     OW16120  11.314   4.660   8.418
71408SOL    HW116121  11.258   4.583   8.410
71408SOL    HW216122  11.279   4.723   8.355
71409SOL     OW16123   4.821   2.178   4.465
71409SOL    HW116124   4.730   2.184   4.495
71409SOL    HW216125   4.856   2.266   4.477
71410SOL     OW16126  12.537   6.307   4.049
71410SOL    HW116127  12.519   6.397   4.021
71410SOL    HW216128  12.478   6.253   3.997
71411SOL     OW16129   3.812   3.436   6.140
71411SOL    HW116130   3.738   3.388   6.103
71411SOL    HW216131   3.785   3.455   6.230
71412SOL     OW16132   6.849   6.936  14.753
71412SOL    HW116133   6.816   6.934  14.843
71412SOL    HW216134   6.855   6.844  14.728
71413SOL     OW16135  14.380   4.432   0.578
71413SOL    HW116136  14.407   4.513   0.621
71413SOL    HW216137  14.447   4.415   0.513
71414SOL     OW16138   9.420   6.775   7.228
71414SOL    HW116139   9.348   6.794   7.288
71414SOL    HW216140   9.415   6.845   7.163
71415SOL     OW16141   3.915   1.651   6.780
71415SOL    HW116142   4.011   1.649   6.786
71415SOL    HW216143   3.897   1.712   6.709
71416SOL     OW16144   9.068   3.373   7.734
71416SOL    HW116145   9.086   3.293   7.686
71416SOL    HW216146   9.089   3.443   7.672
71417SOL     OW16147   5.368   1.779   7.001
71417SOL    HW116148   5.336   1.712   6.940
71417SOL    HW216149   5.397   1.851   6.945
71418SOL     OW16150   6.908   7.583   8.063
71418SOL    HW116151   6.966   7.646   8.019
71418SOL    HW216152   6.877   7.526   7.992
71419SOL     OW16153   7.493   1.001  10.157
71419SOL    HW116154   7.563   0.949  10.118
71419SOL    HW216155   7.535   1.045  10.231
71420SOL     OW16156   9.324   4.905   1.897
71420SOL    HW116157   9.308   4.819   1.858
71420SOL    HW216158   9.358   4.958   1.825
71421SOL     OW16159  14.614   3.105  12.947
71421SOL    HW116160  14.571   3.144  13.023
71421SOL    HW216161  14.566   3.140  12.872
71422SOL     OW16162   5.276   9.506  14.681
71422SOL    HW116163   5.189   9.537  14.656
71422SOL    HW216164   5.301   9.447  14.610
71423SOL     OW16165   5.664  11.850   9.722
71423SOL    HW116166   5.744  11.893   9.693
71423SOL    HW216167   5.689  11.758   9.734
71424SOL     OW16168  13.334   9.329   2.261
71424SOL    HW116169  13.298   9.357   2.177
71424SOL    HW216170  13.426   9.356   2.257
71425SOL     OW16171  12.211  14.697   3.386
71425SOL    HW116172  12.272  14.771   3.378
71425SOL    HW216173  12.178  14.683   3.297
71426SOL     OW16174   8.675   1.519  14.309
71426SOL    HW116175   8.680   1.532  14.404
71426SOL    HW216176   8.746   1.457  14.289
71427SOL     OW16177  13.065  10.408   6.635
71427SOL    HW116178  13.094  10.321   6.662
71427SOL    HW216179  13.118  10.429   6.559
71428SOL     OW16180  11.934   0.932   9.284
71428SOL    HW116181  11.872   1.005   9.285
71428SOL    HW216182  12.016   0.968   9.317
71429SOL     OW16183   9.366   2.417   7.148
71429SOL    HW116184   9.276   2.392   7.128
71429SOL    HW216185   9.361   2.511   7.166
71430SOL     OW16186   4.347  11.212   2.312
71430SOL    HW116187   4.322  11.193   2.402
71430SOL    HW216188   4.435  11.251   2.319
71431SOL     OW16189   9.817  10.916  14.526
71431SOL    HW116190   9.728  10.901  14.495
71431SOL    HW216191   9.817  10.883  14.616
71432SOL     OW16192   2.678   1.262   3.802
71432SOL    HW116193   2.592   1.249   3.841
71432SOL    HW216194   2.737   1.272   3.876
71433SOL     OW16195  11.346  13.842  11.072
71433SOL    HW116196  11.272  13.822  11.014
71433SOL    HW216197  11.419  13.791  11.036
71434SOL     OW16198   9.568  12.513  13.715
71434SOL    HW116199   9.543  12.509  13.622
71434SOL    HW216200   9.534  12.431  13.752
71435SOL     OW16201   5.832   9.587   5.623
71435SOL    HW116202   5.845   9.642   5.701
71435SOL    HW216203   5.766   9.523   5.649
71436SOL     OW16204   2.444   3.877   7.807
71436SOL    HW116205   2.515   3.901   7.867
71436SOL    HW216206   2.487   3.851   7.726
71437SOL     OW16207   0.066  13.228   1.323
71437SOL    HW116208  14.867  13.205   1.356
71437SOL    HW216209   0.127  13.200   1.391
71438SOL     OW16210  12.340  11.070  13.626
71438SOL    HW116211  12.348  11.025  13.710
71438SOL    HW216212  12.315  11.001  13.564
71439SOL     OW16213  11.029  12.977   2.815
71439SOL    HW116214  10.974  12.908   2.851
71439SOL    HW216215  10.990  12.996   2.729
71440SOL     OW16216   2.303  14.288   9.081
71440SOL    HW116217   2.326  14.268   8.991
71440SOL    HW216218   2.305  14.383   9.087
71441SOL     OW16219   1.434  10.733   3.243
71441SOL    HW116220   1.371  10.673   3.204
71441SOL    HW216221   1.486  10.766   3.170
71442SOL     OW16222   4.388  11.489   0.823
71442SOL    HW116223   4.426  11.412   0.780
71442SOL    HW216224   4.322  11.454   0.882
71443SOL     OW16225   3.429   5.981   9.941
71443SOL    HW116226   3.511   5.943   9.975
71443SOL    HW216227   3.368   5.974  10.014
71444SOL     OW16228   4.624   4.095  12.290
71444SOL    HW116229   4.565   4.022  12.309
71444SOL    HW216230   4.663   4.072  12.205
71445SOL     OW16231   3.181   8.695  11.449
71445SOL    HW116232   3.267   8.679  11.486
71445SOL    HW216233   3.198   8.738  11.365
71446SOL     OW16234  10.974   6.845  11.119
71446SOL    HW116235  10.897   6.792  11.099
71446SOL    HW216236  11.036   6.825  11.049
71447SOL     OW16237   9.782   9.271  14.178
71447SOL    HW116238   9.822   9.225  14.252
71447SOL    HW216239   9.797   9.364  14.196
71448SOL     OW16240   6.671   5.578   6.162
71448SOL    HW116241   6.677   5.560   6.069
71448SOL    HW216242   6.583   5.615   6.174
71449SOL     OW16243   3.734  11.988   9.193
71449SOL    HW116244   3.823  11.960   9.174
71449SOL    HW216245   3.706  11.933   9.267
71450SOL     OW16246   9.463   8.491   6.377
71450SOL    HW116247   9.417   8.502   6.460
71450SOL    HW216248   9.396   8.499   6.310
71451SOL     OW16249   0.117   0.391   8.864
71451SOL    HW116250   0.096   0.298   8.874
71451SOL    HW216251   0.064   0.434   8.931
71452SOL     OW16252   0.423  13.437  10.387
71452SOL    HW116253   0.437  13.513  10.442
71452SOL    HW216254   0.470  13.366  10.431
71453SOL     OW16255   9.367   6.714   0.265
71453SOL    HW116256   9.380   6.787   0.204
71453SOL    HW216257   9.349   6.639   0.209
71454SOL     OW16258   8.690  13.314  14.610
71454SOL    HW116259   8.644  13.306  14.693
71454SOL    HW216260   8.663  13.237  14.559
71455SOL     OW16261   2.602   1.804  14.644
71455SOL    HW116262   2.537   1.869  14.672
71455SOL    HW216263   2.685   1.852  14.642
71456SOL     OW16264   7.007   0.029   4.021
71456SOL    HW116265   6.959   0.060   4.099
71456SOL    HW216266   7.093   0.003   4.055
71457SOL     OW16267   4.767   6.044   2.895
71457SOL    HW116268   4.700   5.983   2.865
71457SOL    HW216269   4.736   6.074   2.981
71458SOL     OW16270   1.791   4.106   6.556
71458SOL    HW116271   1.863   4.070   6.607
71458SOL    HW216272   1.732   4.032   6.542
71459SOL     OW16273   6.154   5.010   5.901
71459SOL    HW116274   6.070   5.004   5.946
71459SOL    HW216275   6.170   5.104   5.890
71460SOL     OW16276   8.059   6.916   9.349
71460SOL    HW116277   8.138   6.917   9.295
71460SOL    HW216278   8.044   7.007   9.371
71461SOL     OW16279  14.632   3.889   0.831
71461SOL    HW116280  14.620   3.903   0.925
71461SOL    HW216281  14.714   3.935   0.810
71462SOL     OW16282  10.441   4.678   7.288
71462SOL    HW116283  10.517   4.734   7.305
71462SOL    HW216284  10.438   4.619   7.364
71463SOL     OW16285  14.047  11.302  12.143
71463SOL    HW116286  14.027  11.371  12.079
71463SOL    HW216287  14.070  11.349  12.223
71464SOL     OW16288   5.192   3.573   9.159
71464SOL    HW116289   5.111   3.620   9.141
71464SOL    HW216290   5.255   3.641   9.183
71465SOL     OW16291   3.009   3.299   7.320
71465SOL    HW116292   3.048   3.315   7.406
71465SOL    HW216293   3.052   3.219   7.289
71466SOL     OW16294   1.485  12.192   7.100
71466SOL    HW116295   1.535  12.235   7.170
71466SOL    HW216296   1.521  12.103   7.096
71467SOL     OW16297  12.965   7.459  13.547
71467SOL    HW116298  12.883   7.447  13.594
71467SOL    HW216299  13.033   7.428  13.607
71468SOL     OW16300   0.801   7.537   7.326
71468SOL    HW116301   0.806   7.470   7.258
71468SOL    HW216302   0.781   7.488   7.406
71469SOL     OW16303   2.966  10.967   8.917
71469SOL    HW116304   2.955  11.057   8.948
71469SOL    HW216305   3.021  10.975   8.839
71470SOL     OW16306  10.797  13.576  10.386
71470SOL    HW116307  10.731  13.544  10.447
71470SOL    HW216308  10.861  13.620  10.442
71471SOL     OW16309  13.883  13.676   3.765
71471SOL    HW116310  13.845  13.712   3.684
71471SOL    HW216311  13.807  13.652   3.819
71472SOL     OW16312   3.115   2.553   3.314
71472SOL    HW116313   3.113   2.539   3.220
71472SOL    HW216314   3.064   2.633   3.328
71473SOL     OW16315  11.827  11.526  11.168
71473SOL    HW116316  11.742  11.552  11.201
71473SOL    HW216317  11.844  11.584  11.094
71474SOL     OW16318   7.661   1.312  14.875
71474SOL    HW116319   7.743   1.267  14.858
71474SOL    HW216320   7.678   1.369   0.063
71475SOL     OW16321   8.304  10.303  11.111
71475SOL    HW116322   8.379  10.289  11.052
71475SOL    HW216323   8.321  10.247  11.186
71476SOL     OW16324  14.263  12.126  10.374
71476SOL    HW116325  14.248  12.120  10.279
71476SOL    HW216326  14.330  12.061  10.392
71477SOL     OW16327   5.135  13.611   2.961
71477SOL    HW116328   5.099  13.676   2.901
71477SOL    HW216329   5.169  13.542   2.903
71478SOL     OW16330   8.131   7.700   2.832
71478SOL    HW116331   8.172   7.678   2.748
71478SOL    HW216332   8.154   7.792   2.846
71479SOL     OW16333  13.333  12.325  12.403
71479SOL    HW116334  13.262  12.291  12.457
71479SOL    HW216335  13.390  12.250  12.388
71480SOL     OW16336  14.127   1.431   4.220
71480SOL    HW116337  14.032   1.422   4.213
71480SOL    HW216338  14.141   1.480   4.300
71481SOL     OW16339   0.347   8.040  14.359
71481SOL    HW116340   0.436   8.035  14.392
71481SOL    HW216341   0.301   8.098  14.420
71482SOL     OW16342  13.644  12.488   3.885
71482SOL    HW116343  13.725  12.440   3.867
71482SOL    HW216344  13.607  12.444   3.961
71483SOL     OW16345   9.162   0.841  12.018
71483SOL    HW116346   9.234   0.812  11.962
71483SOL    HW216347   9.205   0.876  12.096
71484SOL     OW16348   2.963  14.677  14.296
71484SOL    HW116349   2.991  14.695  14.206
71484SOL    HW216350   2.935  14.762  14.330
71485SOL     OW16351   9.782  12.867   1.246
71485SOL    HW116352   9.788  12.955   1.283
71485SOL    HW216353   9.841  12.814   1.299
71486SOL     OW16354   7.960   4.854   1.870
71486SOL    HW116355   7.932   4.926   1.925
71486SOL    HW216356   7.913   4.866   1.788
71487SOL     OW16357   7.675   7.636  14.791
71487SOL    HW116358   7.594   7.625  14.840
71487SOL    HW216359   7.685   7.555  14.741
71488SOL     OW16360   3.397   7.439   2.873
71488SOL    HW116361   3.334   7.384   2.919
71488SOL    HW216362   3.440   7.490   2.942
71489SOL     OW16363   3.990   6.996   5.749
71489SOL    HW116364   3.939   6.931   5.798
71489SOL    HW216365   4.073   7.001   5.796
71490SOL     OW16366   7.745   3.137   6.867
71490SOL    HW116367   7.809   3.099   6.927
71490SOL    HW216368   7.721   3.220   6.907
71491SOL     OW16369  14.691   6.583  14.299
71491SOL    HW116370  14.691   6.638  14.377
71491SOL    HW216371  14.707   6.495  14.331
71492SOL     OW16372   0.612   3.081   8.577
71492SOL    HW116373   0.600   3.082   8.482
71492SOL    HW216374   0.643   3.169   8.599
71493SOL     OW16375  12.743  12.054   7.884
71493SOL    HW116376  12.837  12.062   7.868
71493SOL    HW216377  12.737  11.996   7.960
71494SOL     OW16378  10.933   6.622   1.648
71494SOL    HW116379  10.968   6.546   1.695
71494SOL    HW216380  10.961   6.610   1.558
71495SOL     OW16381  10.472   6.996  13.204
71495SOL    HW116382  10.390   6.968  13.245
71495SOL    HW216383  10.452   7.001  13.111
71496SOL     OW16384   8.835   0.259   3.227
71496SOL    HW116385   8.917   0.233   3.269
71496SOL    HW216386   8.827   0.201   3.152
71497SOL     OW16387  10.484   7.711   7.029
71497SOL    HW116388  10.539   7.788   7.015
71497SOL    HW216389  10.482   7.667   6.944
71498SOL     OW16390  14.378  13.276  14.146
71498SOL    HW116391  14.374  13.214  14.073
71498SOL    HW216392  14.471  13.290  14.160
71499SOL     OW16393   0.246   3.055   1.012
71499SOL    HW116394   0.310   2.986   0.995
71499SOL    HW216395   0.299   3.135   1.020
71500SOL     OW16396   6.421   0.685   0.908
71500SOL    HW116397   6.346   0.696   0.851
71500SOL    HW216398   6.403   0.603   0.955
71501SOL     OW16399   9.436   6.573  13.625
71501SOL    HW116400   9.401   6.539  13.542
71501SOL    HW216401   9.471   6.659  13.602
71502SOL     OW16402   0.140   8.987   4.886
71502SOL    HW116403   0.052   8.964   4.913
71502SOL    HW216404   0.169   8.914   4.831
71503SOL     OW16405   7.816  11.212   9.527
71503SOL    HW116406   7.872  11.141   9.496
71503SOL    HW216407   7.873  11.289   9.527
71504SOL     OW16408   8.257   4.001  14.082
71504SOL    HW116409   8.185   4.058  14.056
71504SOL    HW216410   8.233   3.915  14.047
71505SOL     OW16411   0.544   0.915  10.716
71505SOL    HW116412   0.581   0.978  10.778
71505SOL    HW216413   0.619   0.861  10.689
71506SOL     OW16414   7.218  11.930   8.796
71506SOL    HW116415   7.150  11.936   8.729
71506SOL    HW216416   7.300  11.940   8.748
71507SOL     OW16417  13.908   0.495   1.395
71507SOL    HW116418  13.936   0.522   1.308
71507SOL    HW216419  13.898   0.577   1.443
71508SOL     OW16420   0.163   9.483   4.795
71508SOL    HW116421   0.223   9.410   4.809
71508SOL    HW216422   0.147   9.483   4.700
71509SOL     OW16423  10.485   6.198  11.775
71509SOL    HW116424  10.489   6.131  11.707
71509SOL    HW216425  10.569   6.193  11.820
71510SOL     OW16426   8.526   2.897   4.477
71510SOL    HW116427   8.556   2.873   4.390
71510SOL    HW216428   8.531   2.993   4.479
71511SOL     OW16429  14.367   3.380  11.396
71511SOL    HW116430  14.438   3.373  11.460
71511SOL    HW216431  14.299   3.430  11.441
71512SOL     OW16432   2.196   5.069   3.014
71512SOL    HW116433   2.151   5.006   3.070
71512SOL    HW216434   2.234   5.015   2.944
71513SOL     OW16435   0.011   7.464  13.017
71513SOL    HW116436  14.829   7.399  13.011
71513SOL    HW216437   0.049   7.468  12.929
71514SOL     OW16438   6.592  11.597   9.762
71514SOL    HW116439   6.651  11.548   9.705
71514SOL    HW216440   6.640  11.607   9.844
71515SOL     OW16441   6.711   7.152   0.646
71515SOL    HW116442   6.666   7.164   0.730
71515SOL    HW216443   6.647   7.107   0.591
71516SOL     OW16444   7.976  11.690  10.696
71516SOL    HW116445   7.978  11.716  10.788
71516SOL    HW216446   8.035  11.751  10.652
71517SOL     OW16447   8.943   1.267   0.816
71517SOL    HW116448   8.990   1.185   0.800
71517SOL    HW216449   8.851   1.240   0.824
71518SOL     OW16450   3.202  12.015   7.466
71518SOL    HW116451   3.241  11.957   7.531
71518SOL    HW216452   3.243  12.100   7.481
71519SOL     OW16453  13.993   8.545  13.533
71519SOL    HW116454  13.906   8.585  13.526
71519SOL    HW216455  14.035   8.564  13.450
71520SOL     OW16456   9.014   9.787   4.554
71520SOL    HW116457   8.966   9.835   4.486
71520SOL    HW216458   9.105   9.816   4.544
71521SOL     OW16459   5.404   2.999   3.405
71521SOL    HW116460   5.477   2.987   3.465
71521SOL    HW216461   5.438   2.970   3.320
71522SOL     OW16462   0.149   4.665   7.308
71522SOL    HW116463   0.193   4.744   7.340
71522SOL    HW216464   0.187   4.593   7.358
71523SOL     OW16465   0.865   6.752   5.514
71523SOL    HW116466   0.929   6.801   5.566
71523SOL    HW216467   0.802   6.818   5.486
71524SOL     OW16468  13.036  10.577  10.218
71524SOL    HW116469  13.021  10.662  10.175
71524SOL    HW216470  12.954  10.530  10.208
71525SOL     OW16471  12.193   8.077   6.049
71525SOL    HW116472  12.195   7.982   6.032
71525SOL    HW216473  12.120   8.109   5.996
71526SOL     OW16474   6.080   2.463   9.458
71526SOL    HW116475   6.116   2.378   9.431
71526SOL    HW216476   6.006   2.441   9.514
71527SOL     OW16477   3.089  11.080  11.308
71527SOL    HW116478   3.066  11.008  11.366
71527SOL    HW216479   3.145  11.040  11.241
71528SOL     OW16480   5.880  14.091   4.962
71528SOL    HW116481   5.855  14.032   5.033
71528SOL    HW216482   5.953  14.048   4.919
71529SOL     OW16483  13.662   8.285   6.681
71529SOL    HW116484  13.697   8.374   6.677
71529SOL    HW216485  13.615   8.274   6.598
71530SOL     OW16486   3.885   1.862   2.561
71530SOL    HW116487   3.880   1.777   2.517
71530SOL    HW216488   3.804   1.868   2.611
71531SOL     OW16489  11.667   8.412   8.245
71531SOL    HW116490  11.616   8.331   8.242
71531SOL    HW216491  11.713   8.414   8.161
71532SOL     OW16492   3.757   9.093   2.328
71532SOL    HW116493   3.729   9.029   2.262
71532SOL    HW216494   3.699   9.168   2.315
71533SOL     OW16495   0.903   9.313   6.270
71533SOL    HW116496   0.883   9.384   6.208
71533SOL    HW216497   0.996   9.296   6.258
71534SOL     OW16498   0.596   2.518  12.277
71534SOL    HW116499   0.517   2.549  12.322
71534SOL    HW216500   0.580   2.537  12.185
71535SOL     OW16501   9.430  12.638   9.897
71535SOL    HW116502   9.447  12.570   9.962
71535SOL    HW216503   9.339  12.663   9.911
71536SOL     OW16504   0.391   7.562  10.876
71536SOL    HW116505   0.332   7.500  10.919
71536SOL    HW216506   0.456   7.583  10.943
71537SOL     OW16507   8.288   9.217   2.770
71537SOL    HW116508   8.229   9.198   2.698
71537SOL    HW216509   8.333   9.297   2.744
71538SOL     OW16510   0.730  10.869   7.809
71538SOL    HW116511   0.774  10.940   7.761
71538SOL    HW216512   0.725  10.797   7.747
71539SOL     OW16513  10.194   5.948   3.520
71539SOL    HW116514  10.274   6.000   3.526
71539SOL    HW216515  10.197   5.890   3.596
71540SOL     OW16516   8.656   4.438   1.078
71540SOL    HW116517   8.678   4.531   1.075
71540SOL    HW216518   8.632   4.423   1.169
71541SOL     OW16519  10.927  10.891   2.146
71541SOL    HW116520  10.853  10.849   2.191
71541SOL    HW216521  10.959  10.824   2.086
71542SOL     OW16522   7.913  10.983   1.668
71542SOL    HW116523   7.921  11.076   1.688
71542SOL    HW216524   7.883  10.980   1.577
71543SOL     OW16525   5.365   5.226   7.313
71543SOL    HW116526   5.352   5.221   7.408
71543SOL    HW216527   5.318   5.305   7.287
71544SOL     OW16528   2.003   6.939   7.289
71544SOL    HW116529   2.042   6.934   7.202
71544SOL    HW216530   2.010   6.850   7.324
71545SOL     OW16531   2.248  14.879   4.573
71545SOL    HW116532   2.276  14.803   4.521
71545SOL    HW216533   2.325   0.015   4.625
71546SOL     OW16534   2.617   8.903  13.047
71546SOL    HW116535   2.696   8.948  13.079
71546SOL    HW216536   2.621   8.913  12.952
71547SOL     OW16537   2.854   8.975   0.838
71547SOL    HW116538   2.765   8.999   0.862
71547SOL    HW216539   2.878   8.907   0.900
71548SOL     OW16540   0.629   1.648  12.744
71548SOL    HW116541   0.680   1.717  12.703
71548SOL    HW216542   0.689   1.607  12.807
71549SOL     OW16543   1.509   9.889   8.855
71549SOL    HW116544   1.568   9.955   8.891
71549SOL    HW216545   1.551   9.862   8.773
71550SOL     OW16546   8.080   6.494  13.512
71550SOL    HW116547   8.113   6.584  13.517
71550SOL    HW216548   7.985   6.504  13.503
71551SOL     OW16549   0.221   0.568   5.436
71551SOL    HW116550   0.206   0.599   5.347
71551SOL    HW216551   0.297   0.510   5.429
71552SOL     OW16552   7.761   0.152  10.127
71552SOL    HW116553   7.804   0.237  10.116
71552SOL    HW216554   7.731   0.151  10.217
71553SOL     OW16555   1.713   3.230   3.527
71553SOL    HW116556   1.757   3.157   3.483
71553SOL    HW216557   1.628   3.194   3.552
71554SOL     OW16558   5.849   9.195  10.622
71554SOL    HW116559   5.926   9.205  10.566
71554SOL    HW216560   5.879   9.142  10.696
71555SOL     OW16561   7.682   2.179   3.981
71555SOL    HW116562   7.700   2.244   3.912
71555SOL    HW216563   7.709   2.096   3.942
71556SOL     OW16564   5.231   9.788   7.248
71556SOL    HW116565   5.175   9.860   7.274
71556SOL    HW216566   5.320   9.821   7.261
71557SOL     OW16567  12.515  13.775   8.568
71557SOL    HW116568  12.421  13.762   8.558
71557SOL    HW216569  12.537  13.847   8.510
71558SOL     OW16570   2.561  11.262   2.270
71558SOL    HW116571   2.525  11.181   2.306
71558SOL    HW216572   2.485  11.319   2.259
71559SOL     OW16573   1.943   0.328   5.916
71559SOL    HW116574   1.963   0.358   5.827
71559SOL    HW216575   1.999   0.381   5.973
71560SOL     OW16576  12.999  10.197   9.237
71560SOL    HW116577  13.010  10.119   9.183
71560SOL    HW216578  13.024  10.270   9.180
71561SOL     OW16579  12.901   1.277   3.164
71561SOL    HW116580  12.842   1.246   3.232
71561SOL    HW216581  12.982   1.227   3.177
71562SOL     OW16582   5.388   8.718   6.282
71562SOL    HW116583   5.436   8.686   6.359
71562SOL    HW216584   5.420   8.663   6.210
71563SOL     OW16585   5.643  12.113  12.914
71563SOL    HW116586   5.641  12.206  12.938
71563SOL    HW216587   5.553  12.083  12.927
71564SOL     OW16588  14.117   5.063   4.653
71564SOL    HW116589  14.038   5.048   4.602
71564SOL    HW216590  14.086   5.087   4.740
71565SOL     OW16591  12.995  11.932  10.099
71565SOL    HW116592  13.007  11.895  10.186
71565SOL    HW216593  13.043  11.873  10.041
71566SOL     OW16594  10.673  10.497   5.539
71566SOL    HW116595  10.626  10.504   5.457
71566SOL    HW216596  10.606  10.508   5.607
71567SOL     OW16597   6.003  12.210  10.699
71567SOL    HW116598   6.099  12.210  10.702
71567SOL    HW216599   5.981  12.127  10.656
71568SOL     OW16600   3.593   9.825   8.926
71568SOL    HW116601   3.632   9.759   8.869
71568SOL    HW216602   3.642   9.817   9.008
71569SOL     OW16603  10.731   4.535   3.214
71569SOL    HW116604  10.753   4.609   3.157
71569SOL    HW216605  10.735   4.458   3.156
71570SOL     OW16606  14.643   7.817   1.442
71570SOL    HW116607  14.689   7.845   1.363
71570SOL    HW216608  14.566   7.873   1.447
71571SOL     OW16609   0.652   3.964   1.237
71571SOL    HW116610   0.662   3.878   1.196
71571SOL    HW216611   0.640   3.945   1.330
71572SOL     OW16612   9.084   6.854  13.510
71572SOL    HW116613   9.142   6.858  13.586
71572SOL    HW216614   9.054   6.944  13.498
71573SOL     OW16615  10.081   1.502  13.429
71573SOL    HW116616  10.162   1.544  13.402
71573SOL    HW216617  10.075   1.424  13.374
71574SOL     OW16618   5.148   9.590   5.807
71574SOL    HW116619   5.103   9.566   5.726
71574SOL    HW216620   5.080   9.586   5.874
71575SOL     OW16621   5.990   0.537  11.450
71575SOL    HW116622   6.076   0.499  11.468
71575SOL    HW216623   5.954   0.558  11.536
71576SOL     OW16624  14.212  10.655   4.883
71576SOL    HW116625  14.119  10.640   4.896
71576SOL    HW216626  14.244  10.683   4.969
71577SOL     OW16627  10.758  12.321  11.251
71577SOL    HW116628  10.825  12.252  11.249
71577SOL    HW216629  10.690  12.290  11.191
71578SOL     OW16630  14.149   9.577   9.374
71578SOL    HW116631  14.178   9.558   9.285
71578SOL    HW216632  14.088   9.506   9.395
71579SOL     OW16633   8.174   9.880   8.747
71579SOL    HW116634   8.189   9.955   8.804
71579SOL    HW216635   8.079   9.868   8.748
71580SOL     OW16636   1.525   6.431   3.634
71580SOL    HW116637   1.539   6.405   3.725
71580SOL    HW216638   1.594   6.385   3.585
71581SOL     OW16639   7.592   0.360   5.945
71581SOL    HW116640   7.674   0.380   5.990
71581SOL    HW216641   7.598   0.407   5.862
71582SOL     OW16642  10.478   4.742  13.881
71582SOL    HW116643  10.551   4.748  13.941
71582SOL    HW216644  10.469   4.830  13.845
71583SOL     OW16645   7.422   4.028  12.106
71583SOL    HW116646   7.473   3.947  12.112
71583SOL    HW216647   7.340   4.008  12.151
71584SOL     OW16648  12.859   4.315   0.714
71584SOL    HW116649  12.948   4.300   0.746
71584SOL    HW216650  12.825   4.385   0.769
71585SOL     OW16651   6.109  12.746   6.510
71585SOL    HW116652   6.060  12.678   6.555
71585SOL    HW216653   6.083  12.738   6.418
71586SOL     OW16654  11.185   4.623   7.467
71586SOL    HW116655  11.200   4.637   7.560
71586SOL    HW216656  11.095   4.651   7.452
71587SOL     OW16657   3.971  11.653   4.046
71587SOL    HW116658   3.880  11.661   4.018
71587SOL    HW216659   4.001  11.743   4.059
71588SOL     OW16660   6.839  13.745  10.411
71588SOL    HW116661   6.747  13.771  10.413
71588SOL    HW216662   6.881  13.797  10.479
71589SOL     OW16663  10.607   8.600   6.615
71589SOL    HW116664  10.593   8.534   6.547
71589SOL    HW216665  10.694   8.580   6.651
71590SOL     OW16666   3.322   7.480   1.277
71590SOL    HW116667   3.399   7.446   1.232
71590SOL    HW216668   3.268   7.403   1.294
71591SOL     OW16669   4.112   4.528   4.216
71591SOL    HW116670   4.114   4.617   4.181
71591SOL    HW216671   4.128   4.472   4.140
71592SOL     OW16672   1.476  14.034   5.554
71592SOL    HW116673   1.551  13.992   5.512
71592SOL    HW216674   1.457  14.110   5.498
71593SOL     OW16675  13.706   4.365   4.831
71593SOL    HW116676  13.721   4.284   4.782
71593SOL    HW216677  13.790   4.410   4.832
71594SOL     OW16678   3.642  14.341   0.164
71594SOL    HW116679   3.655  14.431   0.134
71594SOL    HW216680   3.559  14.343   0.212
71595SOL     OW16681  13.842   1.535   5.600
71595SOL    HW116682  13.913   1.598   5.609
71595SOL    HW216683  13.870   1.477   5.529
71596SOL     OW16684   3.474  13.427   7.189
71596SOL    HW116685   3.456  13.365   7.117
71596SOL    HW216686   3.453  13.377   7.268
71597SOL     OW16687   1.218   8.688  10.613
71597SOL    HW116688   1.155   8.760  10.608
71597SOL    HW216689   1.183   8.620  10.557
71598SOL     OW16690   6.302  13.311   5.623
71598SOL    HW116691   6.301  13.259   5.542
71598SOL    HW216692   6.330  13.398   5.594
71599SOL     OW16693   8.803  12.697   8.973
71599SOL    HW116694   8.770  12.607   8.969
71599SOL    HW216695   8.742  12.747   8.919
71600SOL     OW16696   7.852   9.009   4.506
71600SOL    HW116697   7.888   9.098   4.502
71600SOL    HW216698   7.928   8.952   4.494
71601SOL     OW16699  14.603   9.907   4.889
71601SOL    HW116700  14.665   9.843   4.853
71601SOL    HW216701  14.595   9.883   4.981
71602SOL     OW16702   8.895  10.179   7.236
71602SOL    HW116703   8.952  10.219   7.170
71602SOL    HW216704   8.896  10.086   7.215
71603SOL     OW16705   9.511   6.104  13.530
71603SOL    HW116706   9.590   6.114  13.584
71603SOL    HW216707   9.527   6.162  13.455
71604SOL     OW16708   1.614  10.525   6.407
71604SOL    HW116709   1.541  10.533   6.345
71604SOL    HW216710   1.681  10.583   6.372
71605SOL     OW16711   5.439   9.437   7.823
71605SOL    HW116712   5.449   9.530   7.802
71605SOL    HW216713   5.527   9.409   7.850
71606SOL     OW16714   2.693   7.523   1.754
71606SOL    HW116715   2.675   7.447   1.809
71606SOL    HW216716   2.622   7.585   1.774
71607SOL     OW16717   6.389   4.792  13.001
71607SOL    HW116718   6.401   4.739  13.079
71607SOL    HW216719   6.424   4.739  12.929
71608SOL     OW16720   2.964   9.154   5.788
71608SOL    HW116721   2.883   9.202   5.802
71608SOL    HW216722   2.956   9.076   5.843
71609SOL     OW16723   2.137  13.363   4.134
71609SOL    HW116724   2.066  13.425   4.122
71609SOL    HW216725   2.107  13.305   4.204
71610SOL     OW16726   2.910   7.856  14.767
71610SOL    HW116727   2.878   7.875  14.679
71610SOL    HW216728   3.004   7.873  14.763
71611SOL     OW16729  11.521   2.860   7.313
71611SOL    HW116730  11.497   2.858   7.221
71611SOL    HW216731  11.610   2.825   7.316
71612SOL     OW16732   9.760   2.085   6.272
71612SOL    HW116733   9.847   2.116   6.299
71612SOL    HW216734   9.718   2.161   6.234
71613SOL     OW16735  11.208  14.440   4.012
71613SOL    HW116736  11.221  14.401   3.926
71613SOL    HW216737  11.163  14.373   4.063
71614SOL     OW16738  11.239   2.145   3.490
71614SOL    HW116739  11.186   2.193   3.553
71614SOL    HW216740  11.236   2.054   3.519
71615SOL     OW16741   9.779   3.625  10.243
71615SOL    HW116742   9.771   3.544  10.293
71615SOL    HW216743   9.729   3.689  10.294
71616SOL     OW16744  14.866   0.877   8.243
71616SOL    HW116745   0.019   0.963   8.251
71616SOL    HW216746   0.021   0.837   8.167
71617SOL     OW16747  13.927  13.099  11.195
71617SOL    HW116748  13.994  13.152  11.153
71617SOL    HW216749  13.913  13.140  11.280
71618SOL     OW16750   4.781  12.766   0.169
71618SOL    HW116751   4.701  12.745   0.218
71618SOL    HW216752   4.830  12.684   0.168
71619SOL     OW16753   8.490   3.531  10.047
71619SOL    HW116754   8.483   3.608  10.104
71619SOL    HW216755   8.424   3.470  10.081
71620SOL     OW16756   9.478   6.675   6.374
71620SOL    HW116757   9.498   6.745   6.311
71620SOL    HW216758   9.454   6.600   6.320
71621SOL     OW16759   8.258  14.153   3.203
71621SOL    HW116760   8.247  14.075   3.149
71621SOL    HW216761   8.199  14.138   3.277
71622SOL     OW16762   4.953   0.196   6.289
71622SOL    HW116763   5.006   0.122   6.321
71622SOL    HW216764   4.925   0.242   6.368
71623SOL     OW16765  10.130   6.997  13.807
71623SOL    HW116766  10.069   7.066  13.834
71623SOL    HW216767  10.196   6.995  13.877
71624SOL     OW16768  10.627  11.079   6.179
71624SOL    HW116769  10.673  11.158   6.152
71624SOL    HW216770  10.577  11.106   6.257
71625SOL     OW16771  12.068   0.765   0.214
71625SOL    HW116772  12.037   0.856   0.213
71625SOL    HW216773  11.995   0.715   0.175
71626SOL     OW16774  11.236   5.005   5.762
71626SOL    HW116775  11.179   5.070   5.723
71626SOL    HW216776  11.218   5.009   5.856
71627SOL     OW16777  11.214   9.137  10.150
71627SOL    HW116778  11.161   9.151  10.072
71627SOL    HW216779  11.157   9.089  10.210
71628SOL     OW16780   1.501   3.959   9.456
71628SOL    HW116781   1.495   3.892   9.524
71628SOL    HW216782   1.432   3.936   9.394
71629SOL     OW16783   7.311   0.451  12.505
71629SOL    HW116784   7.258   0.378  12.476
71629SOL    HW216785   7.353   0.420  12.586
71630SOL     OW16786  12.829   4.157   4.621
71630SOL    HW116787  12.872   4.215   4.685
71630SOL    HW216788  12.785   4.217   4.560
71631SOL     OW16789  12.432   0.677   5.571
71631SOL    HW116790  12.454   0.613   5.504
71631SOL    HW216791  12.424   0.626   5.651
71632SOL     OW16792   4.870  13.935  11.247
71632SOL    HW116793   4.855  13.876  11.321
71632SOL    HW216794   4.872  13.878  11.170
71633SOL     OW16795   1.942   1.229   1.073
71633SOL    HW116796   1.864   1.189   1.036
71633SOL    HW216797   2.004   1.157   1.083
71634SOL     OW16798   9.306  11.095   0.873
71634SOL    HW116799   9.356  11.082   0.954
71634SOL    HW216800   9.214  11.097   0.902
71635SOL     OW16801   2.746   6.017   4.491
71635SOL    HW116802   2.717   6.108   4.494
71635SOL    HW216803   2.681   5.972   4.438
71636SOL     OW16804  13.635   4.898   1.077
71636SOL    HW116805  13.716   4.950   1.077
71636SOL    HW216806  13.661   4.812   1.108
71637SOL     OW16807   9.793   8.987  13.810
71637SOL    HW116808   9.830   8.966  13.725
71637SOL    HW216809   9.794   9.082  13.815
71638SOL     OW16810  11.326   4.850  14.727
71638SOL    HW116811  11.306   4.776  14.669
71638SOL    HW216812  11.364   4.809  14.805
71639SOL     OW16813   8.738   5.935   2.186
71639SOL    HW116814   8.692   5.876   2.247
71639SOL    HW216815   8.672   5.999   2.161
71640SOL     OW16816   2.118  13.106   3.323
71640SOL    HW116817   2.121  13.027   3.270
71640SOL    HW216818   2.080  13.172   3.266
71641SOL     OW16819   4.151   5.115   3.848
71641SOL    HW116820   4.062   5.133   3.878
71641SOL    HW216821   4.201   5.103   3.929
71642SOL     OW16822  10.391  12.178  12.729
71642SOL    HW116823  10.357  12.224  12.805
71642SOL    HW216824  10.332  12.203  12.657
71643SOL     OW16825   9.662  10.413   0.866
71643SOL    HW116826   9.695  10.491   0.911
71643SOL    HW216827   9.582  10.390   0.915
71644SOL     OW16828   3.462   9.034   0.163
71644SOL    HW116829   3.555   9.054   0.160
71644SOL    HW216830   3.419   9.119   0.178
71645SOL     OW16831   7.057  13.787  13.767
71645SOL    HW116832   7.064  13.737  13.849
71645SOL    HW216833   7.146  13.789  13.733
71646SOL     OW16834   1.802  13.587   9.651
71646SOL    HW116835   1.759  13.608   9.568
71646SOL    HW216836   1.894  13.610   9.637
71647SOL     OW16837   9.387   1.936  12.574
71647SOL    HW116838   9.430   1.991  12.508
71647SOL    HW216839   9.458   1.899  12.625
71648SOL     OW16840   9.003  11.640   3.564
71648SOL    HW116841   8.914  11.652   3.596
71648SOL    HW216842   9.056  11.628   3.643
71649SOL     OW16843   0.523   3.827   7.483
71649SOL    HW116844   0.611   3.865   7.490
71649SOL    HW216845   0.538   3.733   7.476
71650SOL     OW16846   1.324   9.343  10.512
71650SOL    HW116847   1.362   9.257  10.491
71650SOL    HW216848   1.252   9.353  10.450
71651SOL     OW16849  13.182  12.161   7.205
71651SOL    HW116850  13.213  12.191   7.290
71651SOL    HW216851  13.116  12.094   7.226
71652SOL     OW16852  13.253   8.227   6.859
71652SOL    HW116853  13.240   8.157   6.923
71652SOL    HW216854  13.229   8.187   6.775
71653SOL     OW16855   6.001   9.553   1.806
71653SOL    HW116856   5.999   9.642   1.842
71653SOL    HW216857   6.095   9.535   1.794
71654SOL     OW16858  10.743   3.269   4.158
71654SOL    HW116859  10.713   3.261   4.067
71654SOL    HW216860  10.665   3.253   4.210
71655SOL     OW16861  12.440   4.036   3.677
71655SOL    HW116862  12.484   4.049   3.593
71655SOL    HW216863  12.354   4.002   3.653
71656SOL     OW16864   4.817   5.788   7.574
71656SOL    HW116865   4.887   5.726   7.591
71656SOL    HW216866   4.858   5.859   7.525
71657SOL     OW16867   8.529  14.472   3.163
71657SOL    HW116868   8.513  14.558   3.125
71657SOL    HW216869   8.482  14.474   3.247
71658SOL     OW16870  13.947   5.557   9.575
71658SOL    HW116871  14.013   5.496   9.606
71658SOL    HW216872  13.994   5.617   9.517
71659SOL     OW16873   1.148   5.273   5.787
71659SOL    HW116874   1.150   5.292   5.881
71659SOL    HW216875   1.083   5.203   5.777
71660SOL     OW16876   1.784   9.955   3.214
71660SOL    HW116877   1.812   9.878   3.165
71660SOL    HW216878   1.865   9.990   3.251
71661SOL     OW16879   3.302  13.430  13.737
71661SOL    HW116880   3.395  13.435  13.714
71661SOL    HW216881   3.282  13.517  13.771
71662SOL     OW16882   8.532   6.253   8.798
71662SOL    HW116883   8.546   6.175   8.852
71662SOL    HW216884   8.438   6.253   8.780
71663SOL     OW16885  14.432   3.941   3.157
71663SOL    HW116886  14.387   3.965   3.239
71663SOL    HW216887  14.409   3.849   3.144
71664SOL     OW16888  13.628   9.646   1.184
71664SOL    HW116889  13.555   9.589   1.156
71664SOL    HW216890  13.674   9.594   1.250
71665SOL     OW16891   5.974   5.838   5.216
71665SOL    HW116892   5.914   5.825   5.142
71665SOL    HW216893   5.946   5.775   5.281
71666SOL     OW16894   7.870  11.540   0.687
71666SOL    HW116895   7.839  11.594   0.613
71666SOL    HW216896   7.948  11.497   0.654
71667SOL     OW16897   8.151  14.301   2.685
71667SOL    HW116898   8.066  14.277   2.723
71667SOL    HW216899   8.205  14.323   2.761
71668SOL     OW16900   0.851   5.320  10.139
71668SOL    HW116901   0.807   5.301  10.056
71668SOL    HW216902   0.829   5.411  10.158
71669SOL     OW16903   7.433  11.064  12.449
71669SOL    HW116904   7.364  11.053  12.515
71669SOL    HW216905   7.514  11.040  12.495
71670SOL     OW16906   3.931   8.798  10.550
71670SOL    HW116907   3.986   8.806  10.473
71670SOL    HW216908   3.845   8.830  10.521
71671SOL     OW16909   3.159  11.659   3.861
71671SOL    HW116910   3.208  11.600   3.804
71671SOL    HW216911   3.204  11.743   3.852
71672SOL     OW16912   0.697  12.023   1.670
71672SOL    HW116913   0.630  12.071   1.720
71672SOL    HW216914   0.750  11.980   1.736
71673SOL     OW16915   7.290  14.691   3.431
71673SOL    HW116916   7.239  14.612   3.414
71673SOL    HW216917   7.258  14.755   3.368
71674SOL     OW16918  13.449   3.302   5.419
71674SOL    HW116919  13.468   3.315   5.325
71674SOL    HW216920  13.514   3.238   5.447
71675SOL     OW16921   5.102  14.338  10.283
71675SOL    HW116922   5.057  14.387  10.214
71675SOL    HW216923   5.099  14.396  10.359
71676SOL     OW16924   5.855   2.687   1.161
71676SOL    HW116925   5.896   2.689   1.075
71676SOL    HW216926   5.770   2.647   1.146
71677SOL     OW16927   5.403  14.274   8.127
71677SOL    HW116928   5.495  14.295   8.144
71677SOL    HW216929   5.360  14.286   8.211
71678SOL     OW16930   1.219   1.540  14.213
71678SOL    HW116931   1.169   1.508  14.138
71678SOL    HW216932   1.295   1.482  14.217
71679SOL     OW16933   9.918   4.951   9.321
71679SOL    HW116934   9.976   4.875   9.315
71679SOL    HW216935   9.888   4.965   9.231
71680SOL     OW16936  13.682   6.766   9.501
71680SOL    HW116937  13.665   6.836   9.438
71680SOL    HW216938  13.598   6.723   9.512
71681SOL     OW16939   2.470   0.572  11.076
71681SOL    HW116940   2.491   0.606  11.163
71681SOL    HW216941   2.419   0.493  11.093
71682SOL     OW16942  11.328   4.127  13.456
71682SOL    HW116943  11.271   4.074  13.401
71682SOL    HW216944  11.292   4.215  13.449
71683SOL     OW16945  11.435   6.483  12.692
71683SOL    HW116946  11.459   6.451  12.779
71683SOL    HW216947  11.342   6.459  12.682
71684SOL     OW16948   7.318  10.311   3.464
71684SOL    HW116949   7.225  10.291   3.471
71684SOL    HW216950   7.357  10.276   3.544
71685SOL     OW16951   1.303   0.556  14.056
71685SOL    HW116952   1.379   0.613  14.067
71685SOL    HW216953   1.231   0.604  14.096
71686SOL     OW16954  10.069  14.651   9.624
71686SOL    HW116955  10.160  14.627   9.637
71686SOL    HW216956  10.072  14.722   9.559
71687SOL     OW16957   7.068   4.941  13.525
71687SOL    HW116958   7.141   4.944  13.463
71687SOL    HW216959   7.004   5.004  13.491
71688SOL     OW16960   4.341  13.425   6.517
71688SOL    HW116961   4.331  13.331   6.528
71688SOL    HW216962   4.427  13.445   6.554
71689SOL     OW16963   3.227  11.261  14.825
71689SOL    HW116964   3.306  11.224  14.787
71689SOL    HW216965   3.257  11.331  14.883
71690SOL     OW16966   6.219   4.879  11.659
71690SOL    HW116967   6.264   4.838  11.585
71690SOL    HW216968   6.176   4.955  11.621
71691SOL     OW16969   7.044   5.501  10.039
71691SOL    HW116970   7.045   5.458   9.953
71691SOL    HW216971   7.133   5.537  10.048
71692SOL     OW16972   1.795   9.297   0.377
71692SOL    HW116973   1.802   9.319   0.470
71692SOL    HW216974   1.703   9.308   0.356
71693SOL     OW16975  13.790   7.450   0.454
71693SOL    HW116976  13.799   7.488   0.367
71693SOL    HW216977  13.701   7.473   0.481
71694SOL     OW16978   8.083   9.781   7.482
71694SOL    HW116979   8.163   9.795   7.431
71694SOL    HW216980   8.068   9.687   7.478
71695SOL     OW16981   1.175   0.442  11.003
71695SOL    HW116982   1.168   0.424  10.910
71695SOL    HW216983   1.261   0.406  11.028
71696SOL     OW16984  14.033   8.165  13.012
71696SOL    HW116985  13.938   8.168  12.996
71696SOL    HW216986  14.072   8.189  12.927
71697SOL     OW16987   4.328   3.501  13.439
71697SOL    HW116988   4.423   3.491  13.442
71697SOL    HW216989   4.314   3.581  13.388
71698SOL     OW16990   5.320   5.589  13.961
71698SOL    HW116991   5.337   5.533  13.885
71698SOL    HW216992   5.226   5.580  13.976
71699SOL     OW16993  11.406   8.255   6.665
71699SOL    HW116994  11.483   8.218   6.708
71699SOL    HW216995  11.371   8.184   6.612
71700SOL     OW16996   9.571   2.042   9.759
71700SOL    HW116997   9.608   2.000   9.682
71700SOL    HW216998   9.536   2.125   9.728
71701SOL     OW16999  13.989   9.318   2.697
71701SOL    HW117000  14.004   9.270   2.779
71701SOL    HW217001  13.963   9.250   2.635
71702SOL     OW17002   8.727   5.973   0.421
71702SOL    HW117003   8.803   6.001   0.473
71702SOL    HW217004   8.655   6.028   0.451
71703SOL     OW17005   1.876   6.168   9.854
71703SOL    HW117006   1.813   6.231   9.818
71703SOL    HW217007   1.904   6.207   9.937
71704SOL     OW17008   5.764   3.764   7.684
71704SOL    HW117009   5.714   3.725   7.756
71704SOL    HW217010   5.805   3.689   7.640
71705SOL     OW17011   2.490   6.876   8.317
71705SOL    HW117012   2.427   6.815   8.279
71705SOL    HW217013   2.481   6.956   8.265
71706SOL     OW17014   0.190  12.374  11.030
71706SOL    HW117015   0.249  12.363  11.104
71706SOL    HW217016   0.137  12.450  11.053
71707SOL     OW17017  13.673  14.869   0.767
71707SOL    HW117018  13.704  14.855   0.856
71707SOL    HW217019  13.752  14.874   0.714
71708SOL     OW17020   3.879  11.710  14.236
71708SOL    HW117021   3.849  11.791  14.196
71708SOL    HW217022   3.881  11.646  14.164
71709SOL     OW17023   4.403   6.814  10.188
71709SOL    HW117024   4.474   6.877  10.180
71709SOL    HW217025   4.446   6.728  10.189
71710SOL     OW17026  13.657   3.161  10.264
71710SOL    HW117027  13.592   3.224  10.296
71710SOL    HW217028  13.740   3.191  10.302
71711SOL     OW17029   3.620   2.609  10.862
71711SOL    HW117030   3.700   2.624  10.912
71711SOL    HW217031   3.550   2.615  10.927
71712SOL     OW17032   5.743  13.790  11.338
71712SOL    HW117033   5.777  13.776  11.426
71712SOL    HW217034   5.738  13.702  11.300
71713SOL     OW17035   9.465   9.377  12.916
71713SOL    HW117036   9.433   9.298  12.871
71713SOL    HW217037   9.436   9.366  13.007
71714SOL     OW17038   9.519   2.250  13.704
71714SOL    HW117039   9.445   2.232  13.762
71714SOL    HW217040   9.539   2.343  13.719
71715SOL     OW17041  11.902   6.199   7.813
71715SOL    HW117042  11.835   6.229   7.751
71715SOL    HW217043  11.906   6.104   7.799
71716SOL     OW17044   3.051   0.035   8.008
71716SOL    HW117045   2.992  14.876   7.949
71716SOL    HW217046   3.011   0.026   8.095
71717SOL     OW17047  10.539   7.085   4.924
71717SOL    HW117048  10.456   7.043   4.899
71717SOL    HW217049  10.581   7.021   4.981
71718SOL     OW17050   0.112  12.090   9.705
71718SOL    HW117051   0.052  12.084   9.632
71718SOL    HW217052   0.126  12.185   9.717
71719SOL     OW17053  12.923   2.416   4.255
71719SOL    HW117054  12.917   2.420   4.350
71719SOL    HW217055  12.902   2.504   4.226
71720SOL     OW17056  11.393  14.846   9.518
71720SOL    HW117057  11.407  14.795   9.438
71720SOL    HW217058  11.371  14.781   9.585
71721SOL     OW17059   1.432  11.489   7.607
71721SOL    HW117060   1.351  11.537   7.586
71721SOL    HW217061   1.407  11.397   7.602
71722SOL     OW17062   1.365   3.535   7.248
71722SOL    HW117063   1.348   3.469   7.180
71722SOL    HW217064   1.323   3.499   7.326
71723SOL     OW17065   5.804   0.646   0.435
71723SOL    HW117066   5.798   0.697   0.516
71723SOL    HW217067   5.896   0.652   0.410
71724SOL     OW17068   5.559   1.869   1.785
71724SOL    HW117069   5.478   1.846   1.739
71724SOL    HW217070   5.587   1.951   1.745
71725SOL     OW17071   6.403  13.533  10.867
71725SOL    HW117072   6.344  13.468  10.905
71725SOL    HW217073   6.467  13.550  10.936
71726SOL     OW17074  13.847  14.762   8.658
71726SOL    HW117075  13.812  14.781   8.745
71726SOL    HW217076  13.824  14.839   8.606
71727SOL     OW17077  13.826   0.862   6.619
71727SOL    HW117078  13.817   0.768   6.633
71727SOL    HW217079  13.893   0.889   6.682
71728SOL     OW17080   0.684   6.993   7.954
71728SOL    HW117081   0.758   7.020   7.900
71728SOL    HW217082   0.608   7.005   7.898
71729SOL     OW17083   5.389  13.196   5.595
71729SOL    HW117084   5.348  13.119   5.634
71729SOL    HW217085   5.385  13.263   5.663
71730SOL     OW17086   7.733   1.232   2.636
71730SOL    HW117087   7.744   1.140   2.615
71730SOL    HW217088   7.737   1.277   2.552
71731SOL     OW17089   8.701  12.123   3.866
71731SOL    HW117090   8.753  12.180   3.923
71731SOL    HW217091   8.628  12.095   3.922
71732SOL     OW17092   3.603   4.401   5.314
71732SOL    HW117093   3.571   4.336   5.251
71732SOL    HW217094   3.665   4.352   5.369
71733SOL     OW17095   3.670   1.763  11.296
71733SOL    HW117096   3.757   1.724  11.281
71733SOL    HW217097   3.645   1.797  11.210
71734SOL     OW17098   8.459  11.354   1.809
71734SOL    HW117099   8.436  11.314   1.724
71734SOL    HW217100   8.545  11.318   1.830
71735SOL     OW17101   3.126   7.665   6.174
71735SOL    HW117102   3.076   7.619   6.107
71735SOL    HW217103   3.092   7.754   6.172
71736SOL     OW17104   1.955   8.531   8.652
71736SOL    HW117105   2.028   8.516   8.712
71736SOL    HW217106   1.901   8.453   8.660
71737SOL     OW17107   0.259  14.197  12.221
71737SOL    HW117108   0.221  14.218  12.306
71737SOL    HW217109   0.316  14.271  12.201
71738SOL     OW17110  10.749   9.492   8.836
71738SOL    HW117111  10.663   9.503   8.878
71738SOL    HW217112  10.728   9.477   8.744
71739SOL     OW17113  13.106   4.500   2.414
71739SOL    HW117114  13.080   4.414   2.445
71739SOL    HW217115  13.107   4.555   2.493
71740SOL     OW17116  14.281  11.852  11.686
71740SOL    HW117117  14.210  11.914  11.669
71740SOL    HW217118  14.358  11.907  11.700
71741SOL     OW17119   2.375  13.725   1.271
71741SOL    HW117120   2.296  13.760   1.232
71741SOL    HW217121   2.348  13.642   1.311
71742SOL     OW17122   7.550   8.647   3.940
71742SOL    HW117123   7.556   8.738   3.912
71742SOL    HW217124   7.640   8.614   3.934
71743SOL     OW17125  13.207   3.008  10.960
71743SOL    HW117126  13.257   2.967  10.889
71743SOL    HW217127  13.150   2.938  10.992
71744SOL     OW17128   7.413   4.018   9.149
71744SOL    HW117129   7.352   4.090   9.134
71744SOL    HW217130   7.397   3.957   9.077
71745SOL     OW17131   4.143  12.542  13.545
71745SOL    HW117132   4.051  12.536  13.519
71745SOL    HW217133   4.157  12.466  13.601
71746SOL     OW17134  12.473  10.744  14.611
71746SOL    HW117135  12.480  10.651  14.630
71746SOL    HW217136  12.472  10.750  14.516
71747SOL     OW17137  13.640   7.216   2.299
71747SOL    HW117138  13.587   7.216   2.219
71747SOL    HW217139  13.720   7.169   2.275
71748SOL     OW17140  14.033   9.694   2.096
71748SOL    HW117141  14.010   9.644   2.175
71748SOL    HW217142  13.966   9.762   2.091
71749SOL     OW17143   2.627   5.609   8.913
71749SOL    HW117144   2.717   5.578   8.913
71749SOL    HW217145   2.598   5.598   9.003
71750SOL     OW17146  10.699  10.240   8.780
71750SOL    HW117147  10.603  10.238   8.772
71750SOL    HW217148  10.716  10.206   8.868
71751SOL     OW17149   5.823   9.646   8.167
71751SOL    HW117150   5.757   9.612   8.226
71751SOL    HW217151   5.803   9.606   8.082
71752SOL     OW17152  11.821   7.422  11.601
71752SOL    HW117153  11.897   7.380  11.561
71752SOL    HW217154  11.765   7.446  11.527
71753SOL     OW17155   9.506   5.069  13.186
71753SOL    HW117156   9.464   5.067  13.100
71753SOL    HW217157   9.437   5.045  13.247
71754SOL     OW17158   7.535   1.905   0.527
71754SOL    HW117159   7.501   1.975   0.471
71754SOL    HW217160   7.462   1.844   0.535
71755SOL     OW17161   3.236   5.605   8.166
71755SOL    HW117162   3.270   5.572   8.249
71755SOL    HW217163   3.303   5.584   8.101
71756SOL     OW17164   8.850  12.444  12.036
71756SOL    HW117165   8.842  12.361  12.083
71756SOL    HW217166   8.854  12.510  12.105
71757SOL     OW17167  13.041   2.213  13.275
71757SOL    HW117168  12.996   2.242  13.195
71757SOL    HW217169  13.061   2.295  13.321
71758SOL     OW17170   4.240  12.438   4.503
71758SOL    HW117171   4.331  12.413   4.521
71758SOL    HW217172   4.237  12.453   4.409
71759SOL     OW17173   8.585   3.226  10.159
71759SOL    HW117174   8.518   3.190  10.218
71759SOL    HW217175   8.618   3.304  10.204
71760SOL     OW17176  11.785  13.657  11.114
71760SOL    HW117177  11.708  13.711  11.095
71760SOL    HW217178  11.810  13.620  11.030
71761SOL     OW17179  13.526   2.312   1.187
71761SOL    HW117180  13.597   2.254   1.158
71761SOL    HW217181  13.487   2.265   1.261
71762SOL     OW17182   1.160   7.680  10.989
71762SOL    HW117183   1.246   7.711  10.960
71762SOL    HW217184   1.099   7.716  10.925
71763SOL     OW17185   9.142   1.205  13.882
71763SOL    HW117186   9.123   1.291  13.846
71763SOL    HW217187   9.074   1.148  13.846
71764SOL     OW17188   7.949   2.840  10.110
71764SOL    HW117189   7.898   2.875  10.037
71764SOL    HW217190   8.039   2.860  10.087
71765SOL     OW17191   0.069   6.418   0.891
71765SOL    HW117192   0.010   6.348   0.862
71765SOL    HW217193   0.048   6.492   0.835
71766SOL     OW17194   5.646   4.418   7.472
71766SOL    HW117195   5.627   4.344   7.415
71766SOL    HW217196   5.630   4.385   7.560
71767SOL     OW17197   8.039  11.405   6.102
71767SOL    HW117198   7.994  11.475   6.054
71767SOL    HW217199   8.095  11.364   6.036
71768SOL     OW17200  12.627  12.632   3.427
71768SOL    HW117201  12.642  12.713   3.379
71768SOL    HW217202  12.640  12.563   3.362
71769SOL     OW17203   3.010   8.156   4.497
71769SOL    HW117204   2.963   8.232   4.529
71769SOL    HW217205   2.979   8.083   4.551
71770SOL     OW17206  14.174   7.329   6.624
71770SOL    HW117207  14.124   7.390   6.679
71770SOL    HW217208  14.107   7.277   6.579
71771SOL     OW17209   0.481  10.295   3.367
71771SOL    HW117210   0.421  10.370   3.377
71771SOL    HW217211   0.483  10.278   3.273
71772SOL     OW17212   4.970   8.659   2.396
71772SOL    HW117213   4.962   8.564   2.402
71772SOL    HW217214   4.996   8.686   2.484
71773SOL     OW17215   8.393   1.615  12.504
71773SOL    HW117216   8.445   1.691  12.526
71773SOL    HW217217   8.403   1.605  12.409
71774SOL     OW17218  11.769   2.453   0.169
71774SOL    HW117219  11.686   2.431   0.212
71774SOL    HW217220  11.824   2.489   0.238
71775SOL     OW17221   4.457   2.337   6.256
71775SOL    HW117222   4.499   2.378   6.332
71775SOL    HW217223   4.377   2.387   6.243
71776SOL     OW17224  11.347   5.780   8.924
71776SOL    HW117225  11.396   5.736   8.854
71776SOL    HW217226  11.320   5.863   8.885
71777SOL     OW17227   9.727   0.333   0.031
71777SOL    HW117228   9.726   0.418  14.873
71777SOL    HW217229   9.802   0.338   0.091
71778SOL     OW17230   4.822   0.101   8.142
71778SOL    HW117231   4.774   0.018   8.146
71778SOL    HW217232   4.873   0.096   8.062
71779SOL     OW17233  11.450   3.243   7.611
71779SOL    HW117234  11.546   3.251   7.611
71779SOL    HW217235  11.434   3.155   7.577
71780SOL     OW17236   5.774  13.018   3.011
71780SOL    HW117237   5.853  13.059   3.047
71780SOL    HW217238   5.763  12.939   3.064
71781SOL     OW17239   9.467   8.706   7.563
71781SOL    HW117240   9.499   8.620   7.589
71781SOL    HW217241   9.386   8.689   7.515
71782SOL     OW17242  11.318  13.037   9.755
71782SOL    HW117243  11.267  13.116   9.737
71782SOL    HW217244  11.294  13.013   9.844
71783SOL     OW17245  10.484   7.179   8.836
71783SOL    HW117246  10.432   7.104   8.808
71783SOL    HW217247  10.571   7.164   8.799
71784SOL     OW17248  13.247   8.227   6.298
71784SOL    HW117249  13.197   8.152   6.263
71784SOL    HW217250  13.333   8.190   6.318
71785SOL     OW17251   6.829  13.304   5.730
71785SOL    HW117252   6.797  13.222   5.767
71785SOL    HW217253   6.753  13.342   5.687
71786SOL     OW17254   9.420   5.271   3.309
71786SOL    HW117255   9.394   5.360   3.284
71786SOL    HW217256   9.403   5.218   3.231
71787SOL     OW17257   9.490   4.346  11.767
71787SOL    HW117258   9.577   4.376  11.738
71787SOL    HW217259   9.433   4.366  11.693
71788SOL     OW17260  12.797   9.321   9.584
71788SOL    HW117261  12.889   9.347   9.594
71788SOL    HW217262  12.749   9.403   9.576
71789SOL     OW17263   3.469   7.791   7.605
71789SOL    HW117264   3.445   7.828   7.520
71789SOL    HW217265   3.459   7.697   7.593
71790SOL     OW17266   9.297   0.310  13.894
71790SOL    HW117267   9.243   0.244  13.850
71790SOL    HW217268   9.387   0.279  13.882
71791SOL     OW17269   8.394  13.546   8.442
71791SOL    HW117270   8.336  13.478   8.476
71791SOL    HW217271   8.407  13.523   8.350
71792SOL     OW17272   5.181   5.517   5.170
71792SOL    HW117273   5.197   5.430   5.206
71792SOL    HW217274   5.090   5.535   5.190
71793SOL     OW17275   6.321   9.427   2.781
71793SOL    HW117276   6.318   9.339   2.744
71793SOL    HW217277   6.330   9.485   2.706
71794SOL     OW17278   3.889   7.529   5.675
71794SOL    HW117279   3.908   7.440   5.704
71794SOL    HW217280   3.825   7.562   5.739
71795SOL     OW17281   5.089   6.478   6.734
71795SOL    HW117282   5.075   6.573   6.731
71795SOL    HW217283   5.159   6.463   6.670
71796SOL     OW17284   6.447  14.800   5.403
71796SOL    HW117285   6.407  14.875   5.359
71796SOL    HW217286   6.399  14.724   5.370
71797SOL     OW17287   4.063   2.044  14.306
71797SOL    HW117288   4.057   2.000  14.391
71797SOL    HW217289   4.002   1.996  14.250
71798SOL     OW17290   2.723   4.201   2.005
71798SOL    HW117291   2.700   4.239   2.090
71798SOL    HW217292   2.758   4.114   2.026
71799SOL     OW17293   1.600   3.202  11.292
71799SOL    HW117294   1.688   3.171  11.273
71799SOL    HW217295   1.571   3.246  11.212
71800SOL     OW17296   9.108   6.697  10.638
71800SOL    HW117297   9.147   6.610  10.647
71800SOL    HW217298   9.029   6.684  10.587
71801SOL     OW17299  13.914   7.896  12.660
71801SOL    HW117300  13.825   7.926  12.678
71801SOL    HW217301  13.948   7.869  12.745
71802SOL     OW17302  12.865   1.016   8.294
71802SOL    HW117303  12.832   1.026   8.383
71802SOL    HW217304  12.956   0.988   8.305
71803SOL     OW17305   4.433  13.484   5.896
71803SOL    HW117306   4.408  13.391   5.899
71803SOL    HW217307   4.389  13.524   5.971
71804SOL     OW17308   8.658   0.056   5.916
71804SOL    HW117309   8.623  14.881   5.852
71804SOL    HW217310   8.594   0.127   5.918
71805SOL     OW17311   8.139  12.974   6.401
71805SOL    HW117312   8.092  12.991   6.483
71805SOL    HW217313   8.224  13.016   6.413
71806SOL     OW17314   5.534   5.413   5.113
71806SOL    HW117315   5.577   5.413   5.028
71806SOL    HW217316   5.443   5.391   5.093
71807SOL     OW17317   0.432   8.101   8.203
71807SOL    HW117318   0.395   8.055   8.278
71807SOL    HW217319   0.458   8.186   8.238
71808SOL     OW17320   0.560   6.958   7.385
71808SOL    HW117321   0.466   6.942   7.390
71808SOL    HW217322   0.575   6.989   7.296
71809SOL     OW17323  13.335  10.502   0.859
71809SOL    HW117324  13.287  10.437   0.808
71809SOL    HW217325  13.412  10.455   0.892
71810SOL     OW17326  12.616   9.228   7.620
71810SOL    HW117327  12.587   9.149   7.666
71810SOL    HW217328  12.657   9.282   7.688
71811SOL     OW17329  14.523  11.029   3.607
71811SOL    HW117330  14.590  10.977   3.653
71811SOL    HW217331  14.482  11.081   3.676
71812SOL     OW17332   6.816   3.424   8.503
71812SOL    HW117333   6.879   3.397   8.437
71812SOL    HW217334   6.785   3.342   8.543
71813SOL     OW17335   2.426   1.158  14.159
71813SOL    HW117336   2.495   1.097  14.132
71813SOL    HW217337   2.460   1.199  14.238
71814SOL     OW17338   0.482   7.562  11.585
71814SOL    HW117339   0.439   7.648  11.586
71814SOL    HW217340   0.485   7.535  11.677
71815SOL     OW17341   0.760   8.652  12.700
71815SOL    HW117342   0.764   8.627  12.607
71815SOL    HW217343   0.770   8.569  12.747
71816SOL     OW17344   4.017  13.407   0.899
71816SOL    HW117345   4.097  13.357   0.880
71816SOL    HW217346   4.046  13.476   0.958
71817SOL     OW17347  12.518   4.466   4.679
71817SOL    HW117348  12.500   4.382   4.721
71817SOL    HW217349  12.438   4.517   4.695
71818SOL     OW17350   4.172  10.432   4.345
71818SOL    HW117351   4.198  10.518   4.380
71818SOL    HW217352   4.161  10.447   4.251
71819SOL     OW17353   4.072   1.428   6.431
71819SOL    HW117354   4.129   1.452   6.358
71819SOL    HW217355   4.100   1.340   6.456
71820SOL     OW17356   0.717   4.140   3.981
71820SOL    HW117357   0.812   4.137   3.976
71820SOL    HW217358   0.695   4.232   3.968
71821SOL     OW17359   6.448   4.947   0.054
71821SOL    HW117360   6.408   4.975  14.859
71821SOL    HW217361   6.515   4.884   0.028
71822SOL     OW17362   7.145  12.783  10.515
71822SOL    HW117363   7.122  12.809  10.426
71822SOL    HW217364   7.199  12.705  10.505
71823SOL     OW17365   2.990   4.074  13.116
71823SOL    HW117366   2.927   4.003  13.107
71823SOL    HW217367   3.020   4.091  13.026
71824SOL     OW17368  14.658   7.508   5.843
71824SOL    HW117369  14.670   7.413   5.838
71824SOL    HW217370  14.677   7.529   5.935
71825SOL     OW17371   2.516  13.443   2.593
71825SOL    HW117372   2.577  13.400   2.534
71825SOL    HW217373   2.556  13.435   2.679
71826SOL     OW17374  14.498   7.761   6.564
71826SOL    HW117375  14.492   7.846   6.521
71826SOL    HW217376  14.543   7.705   6.501
71827SOL     OW17377   2.552   2.207   3.253
71827SOL    HW117378   2.458   2.198   3.272
71827SOL    HW217379   2.586   2.118   3.256
71828SOL     OW17380   8.059   5.880   1.257
71828SOL    HW117381   8.015   5.948   1.205
71828SOL    HW217382   8.152   5.890   1.236
71829SOL     OW17383  14.352   4.423   4.557
71829SOL    HW117384  14.368   4.495   4.496
71829SOL    HW217385  14.343   4.346   4.501
71830SOL     OW17386   0.430   8.949  13.014
71830SOL    HW117387   0.419   8.864  13.056
71830SOL    HW217388   0.493   8.995  13.070
71831SOL     OW17389  11.894  11.295   2.866
71831SOL    HW117390  11.956  11.228   2.838
71831SOL    HW217391  11.841  11.312   2.788
71832SOL     OW17392   3.323   0.490   7.990
71832SOL    HW117393   3.248   0.459   8.041
71832SOL    HW217394   3.382   0.415   7.985
71833SOL     OW17395   1.736   8.026   8.769
71833SOL    HW117396   1.768   8.041   8.858
71833SOL    HW217397   1.739   7.931   8.757
71834SOL     OW17398  13.612   2.074   7.143
71834SOL    HW117399  13.585   2.008   7.208
71834SOL    HW217400  13.603   2.030   7.059
71835SOL     OW17401   6.024  14.380   7.286
71835SOL    HW117402   5.987  14.313   7.344
71835SOL    HW217403   6.029  14.338   7.200
71836SOL     OW17404   7.732   2.188   3.526
71836SOL    HW117405   7.682   2.117   3.566
71836SOL    HW217406   7.672   2.227   3.463
71837SOL     OW17407   9.195   8.203   3.532
71837SOL    HW117408   9.157   8.218   3.445
71837SOL    HW217409   9.123   8.221   3.593
71838SOL     OW17410   9.931  13.625   0.321
71838SOL    HW117411   9.899  13.574   0.246
71838SOL    HW217412   9.919  13.567   0.396
71839SOL     OW17413   3.063  10.957   9.519
71839SOL    HW117414   3.116  10.935   9.596
71839SOL    HW217415   3.049  10.874   9.475
71840SOL     OW17416   3.355  14.706   9.250
71840SOL    HW117417   3.284  14.758   9.212
71840SOL    HW217418   3.397  14.764   9.313
71841SOL     OW17419   4.083  10.707   4.197
71841SOL    HW117420   4.118  10.647   4.132
71841SOL    HW217421   4.154  10.719   4.259
71842SOL     OW17422   1.553  13.260   8.022
71842SOL    HW117423   1.458  13.274   8.015
71842SOL    HW217424   1.578  13.221   7.938
71843SOL     OW17425   6.851   7.105  14.501
71843SOL    HW117426   6.911   7.111  14.576
71843SOL    HW217427   6.786   7.172  14.518
71844SOL     OW17428  12.578  10.751  13.960
71844SOL    HW117429  12.489  10.719  13.978
71844SOL    HW217430  12.635  10.680  13.987
71845SOL     OW17431  13.067  11.239   6.648
71845SOL    HW117432  13.021  11.323   6.640
71845SOL    HW217433  13.134  11.254   6.715
71846SOL     OW17434   2.408  14.162  14.780
71846SOL    HW117435   2.454  14.131  14.857
71846SOL    HW217436   2.473  14.162  14.711
71847SOL     OW17437   3.346   1.137  12.525
71847SOL    HW117438   3.350   1.227  12.559
71847SOL    HW217439   3.437   1.114  12.506
71848SOL     OW17440  11.147   6.475   9.480
71848SOL    HW117441  11.227   6.432   9.510
71848SOL    HW217442  11.164   6.496   9.388
71849SOL     OW17443  12.415   7.286  10.145
71849SOL    HW117444  12.395   7.279  10.239
71849SOL    HW217445  12.368   7.213  10.105
71850SOL     OW17446  12.255   9.712  13.421
71850SOL    HW117447  12.192   9.683  13.486
71850SOL    HW217448  12.331   9.739  13.472
71851SOL     OW17449   7.588   7.160  11.630
71851SOL    HW117450   7.570   7.079  11.581
71851SOL    HW217451   7.526   7.159  11.702
71852SOL     OW17452   5.990   8.594   4.706
71852SOL    HW117453   5.957   8.681   4.685
71852SOL    HW217454   6.073   8.610   4.750
71853SOL     OW17455   7.376  13.212  11.219
71853SOL    HW117456   7.428  13.151  11.271
71853SOL    HW217457   7.441  13.266  11.173
71854SOL     OW17458   2.641   2.845   1.501
71854SOL    HW117459   2.691   2.858   1.420
71854SOL    HW217460   2.705   2.856   1.571
71855SOL     OW17461  13.592  11.636   2.010
71855SOL    HW117462  13.609  11.686   1.930
71855SOL    HW217463  13.498  11.644   2.024
71856SOL     OW17464  10.297  11.180  10.820
71856SOL    HW117465  10.311  11.259  10.767
71856SOL    HW217466  10.378  11.130  10.809
71857SOL     OW17467   2.922  11.955  13.005
71857SOL    HW117468   2.907  12.039  12.961
71857SOL    HW217469   2.943  11.979  13.095
71858SOL     OW17470   6.220   9.166   2.047
71858SOL    HW117471   6.140   9.209   2.078
71858SOL    HW217472   6.190   9.088   2.000
71859SOL     OW17473   8.577  12.234  13.202
71859SOL    HW117474   8.617  12.182  13.272
71859SOL    HW217475   8.483  12.225  13.216
71860SOL     OW17476  10.168   3.682  10.310
71860SOL    HW117477  10.105   3.649  10.245
71860SOL    HW217478  10.231   3.610  10.320
71861SOL     OW17479   8.236   3.246   7.581
71861SOL    HW117480   8.167   3.231   7.645
71861SOL    HW217481   8.312   3.273   7.633
71862SOL     OW17482   5.090   1.191  10.021
71862SOL    HW117483   5.073   1.234  10.105
71862SOL    HW217484   5.142   1.254   9.972
71863SOL     OW17485  14.069   2.807   0.143
71863SOL    HW117486  14.158   2.840   0.132
71863SOL    HW217487  14.045   2.770   0.058
71864SOL     OW17488   8.618   0.915   6.729
71864SOL    HW117489   8.594   0.867   6.650
71864SOL    HW217490   8.707   0.886   6.749
71865SOL     OW17491  14.824  10.548  10.455
71865SOL    HW117492   0.015  10.535  10.509
71865SOL    HW217493  14.859  10.581  10.372
71866SOL     OW17494   1.083  14.073   0.403
71866SOL    HW117495   0.999  14.107   0.432
71866SOL    HW217496   1.087  13.985   0.439
71867SOL     OW17497   1.948   3.874  11.818
71867SOL    HW117498   1.951   3.963  11.852
71867SOL    HW217499   1.977   3.820  11.891
71868SOL     OW17500   9.962   7.799   8.228
71868SOL    HW117501   9.987   7.762   8.312
71868SOL    HW217502   9.984   7.731   8.164
71869SOL     OW17503  12.458  13.118   9.366
71869SOL    HW117504  12.495  13.049   9.421
71869SOL    HW217505  12.484  13.095   9.277
71870SOL     OW17506   6.932   3.877  11.938
71870SOL    HW117507   6.854   3.825  11.919
71870SOL    HW217508   6.982   3.825  12.001
71871SOL     OW17509  12.094  10.640   1.796
71871SOL    HW117510  12.018  10.698   1.805
71871SOL    HW217511  12.125  10.655   1.707
71872SOL     OW17512  13.242  13.682   1.143
71872SOL    HW117513  13.287  13.607   1.182
71872SOL    HW217514  13.306  13.753   1.147
71873SOL     OW17515   6.029  14.182   4.528
71873SOL    HW117516   5.956  14.153   4.582
71873SOL    HW217517   6.072  14.249   4.581
71874SOL     OW17518  14.547   9.385  10.535
71874SOL    HW117519  14.491   9.462  10.528
71874SOL    HW217520  14.636   9.420  10.530
71875SOL     OW17521   8.302   5.013   7.945
71875SOL    HW117522   8.288   5.106   7.927
71875SOL    HW217523   8.313   4.973   7.859
71876SOL     OW17524   1.694   7.654   0.941
71876SOL    HW117525   1.730   7.597   0.874
71876SOL    HW217526   1.606   7.620   0.957
71877SOL     OW17527   8.344  12.042   9.182
71877SOL    HW117528   8.430  12.039   9.223
71877SOL    HW217529   8.350  12.113   9.118
71878SOL     OW17530   5.555   3.903  12.598
71878SOL    HW117531   5.638   3.866  12.628
71878SOL    HW217532   5.488   3.846  12.634
71879SOL     OW17533   9.577   9.599   9.528
71879SOL    HW117534   9.637   9.528   9.551
71879SOL    HW217535   9.490   9.559   9.528
71880SOL     OW17536   4.674  11.208   3.385
71880SOL    HW117537   4.676  11.116   3.361
71880SOL    HW217538   4.694  11.255   3.303
71881SOL     OW17539  11.792   2.383  13.603
71881SOL    HW117540  11.743   2.301  13.602
71881SOL    HW217541  11.881   2.359  13.575
71882SOL     OW17542   3.756   4.597   4.251
71882SOL    HW117543   3.773   4.532   4.318
71882SOL    HW217544   3.830   4.590   4.190
71883SOL     OW17545   1.408  12.608   0.039
71883SOL    HW117546   1.463  12.565   0.104
71883SOL    HW217547   1.429  12.701   0.047
71884SOL     OW17548   4.408   9.080   5.969
71884SOL    HW117549   4.488   9.133   5.971
71884SOL    HW217550   4.337   9.143   5.984
71885SOL     OW17551   9.402   5.184   4.346
71885SOL    HW117552   9.370   5.263   4.390
71885SOL    HW217553   9.413   5.120   4.416
71886SOL     OW17554   9.392   7.833   5.998
71886SOL    HW117555   9.348   7.913   6.026
71886SOL    HW217556   9.420   7.851   5.908
71887SOL     OW17557  11.388   0.064   7.670
71887SOL    HW117558  11.324   0.053   7.600
71887SOL    HW217559  11.384  14.869   7.719
71888SOL     OW17560   1.261  13.260   2.522
71888SOL    HW117561   1.355  13.279   2.526
71888SOL    HW217562   1.230  13.310   2.447
71889SOL     OW17563   0.436  12.234  12.502
71889SOL    HW117564   0.348  12.212  12.471
71889SOL    HW217565   0.475  12.284  12.431
71890SOL     OW17566  10.449   5.141   9.322
71890SOL    HW117567  10.354   5.151   9.327
71890SOL    HW217568  10.483   5.204   9.386
71891SOL     OW17569  12.988   0.855  10.468
71891SOL    HW117570  13.075   0.880  10.437
71891SOL    HW217571  12.953   0.935  10.507
71892SOL     OW17572   6.425  13.480  10.587
71892SOL    HW117573   6.424  13.493  10.682
71892SOL    HW217574   6.508  13.434  10.570
71893SOL     OW17575   6.204   8.524   5.604
71893SOL    HW117576   6.267   8.584   5.645
71893SOL    HW217577   6.221   8.532   5.510
71894SOL     OW17578   9.570  11.865   7.231
71894SOL    HW117579   9.578  11.849   7.137
71894SOL    HW217580   9.566  11.778   7.271
71895SOL     OW17581   1.102  12.445   6.832
71895SOL    HW117582   1.154  12.451   6.752
71895SOL    HW217583   1.156  12.392   6.891
71896SOL     OW17584  11.790   3.873   4.032
71896SOL    HW117585  11.786   3.864   4.127
71896SOL    HW217586  11.841   3.952   4.017
71897SOL     OW17587   5.077   5.175   9.327
71897SOL    HW117588   5.070   5.203   9.418
71897SOL    HW217589   5.074   5.256   9.277
71898SOL     OW17590  11.076   0.291   4.559
71898SOL    HW117591  11.073   0.384   4.537
71898SOL    HW217592  11.102   0.288   4.651
71899SOL     OW17593   2.708   2.980  12.627
71899SOL    HW117594   2.758   2.905  12.595
71899SOL    HW217595   2.689   3.031  12.549
71900SOL     OW17596   5.099  11.661   8.931
71900SOL    HW117597   5.026  11.655   8.870
71900SOL    HW217598   5.117  11.755   8.939
71901SOL     OW17599   8.764  14.103   8.941
71901SOL    HW117600   8.748  14.037   8.874
71901SOL    HW217601   8.707  14.176   8.918
71902SOL     OW17602   5.800  11.166   2.495
71902SOL    HW117603   5.890  11.197   2.501
71902SOL    HW217604   5.772  11.192   2.408
71903SOL     OW17605   0.557   3.676   3.188
71903SOL    HW117606   0.561   3.724   3.105
71903SOL    HW217607   0.646   3.645   3.203
71904SOL     OW17608   7.678   7.889   6.387
71904SOL    HW117609   7.713   7.946   6.319
71904SOL    HW217610   7.636   7.949   6.450
71905SOL     OW17611  11.767   4.193   5.753
71905SOL    HW117612  11.785   4.284   5.731
71905SOL    HW217613  11.672   4.188   5.763
71906SOL     OW17614   0.187   9.285   0.303
71906SOL    HW117615   0.177   9.237   0.385
71906SOL    HW217616   0.281   9.284   0.286
71907SOL     OW17617   2.929   6.567   7.358
71907SOL    HW117618   2.959   6.583   7.268
71907SOL    HW217619   3.001   6.520   7.399
71908SOL     OW17620  14.109   2.030   9.162
71908SOL    HW117621  14.104   1.971   9.237
71908SOL    HW217622  14.058   1.987   9.094
71909SOL     OW17623  10.158   6.509   4.298
71909SOL    HW117624  10.073   6.525   4.258
71909SOL    HW217625  10.162   6.414   4.309
71910SOL     OW17626  11.764  14.254   0.335
71910SOL    HW117627  11.722  14.276   0.252
71910SOL    HW217628  11.858  14.261   0.316
71911SOL     OW17629   3.969  14.856   6.670
71911SOL    HW117630   3.921   0.015   6.739
71911SOL    HW217631   3.985   0.035   6.603
71912SOL     OW17632   0.283   0.112   5.663
71912SOL    HW117633   0.289   0.085   5.571
71912SOL    HW217634   0.374   0.121   5.691
71913SOL     OW17635   6.575  13.312  12.032
71913SOL    HW117636   6.533  13.397  12.027
71913SOL    HW217637   6.629  13.316  12.111
71914SOL     OW17638   2.502  12.707   4.956
71914SOL    HW117639   2.420  12.663   4.976
71914SOL    HW217640   2.476  12.795   4.928
71915SOL     OW17641  10.894   8.093   7.910
71915SOL    HW117642  10.981   8.104   7.871
71915SOL    HW217643  10.897   8.147   7.990
71916SOL     OW17644   7.783  11.341  14.406
71916SOL    HW117645   7.726  11.269  14.381
71916SOL    HW217646   7.746  11.373  14.489
71917SOL     OW17647   8.016   6.629  10.802
71917SOL    HW117648   8.010   6.635  10.707
71917SOL    HW217649   7.944   6.684  10.834
71918SOL     OW17650  14.692  14.561   4.846
71918SOL    HW117651  14.720  14.613   4.770
71918SOL    HW217652  14.774  14.526   4.882
71919SOL     OW17653  14.020  11.520   7.210
71919SOL    HW117654  13.926  11.503   7.214
71919SOL    HW217655  14.032  11.572   7.131
71920SOL     OW17656   1.167  14.851   4.299
71920SOL    HW117657   1.258  14.838   4.271
71920SOL    HW217658   1.115  14.808   4.232
71921SOL     OW17659   2.043  12.124   1.937
71921SOL    HW117660   2.015  12.110   1.847
71921SOL    HW217661   2.134  12.093   1.939
71922SOL     OW17662   9.600   8.302  14.110
71922SOL    HW117663   9.588   8.211  14.136
71922SOL    HW217664   9.516   8.326  14.070
71923SOL     OW17665  10.856   0.442   3.466
71923SOL    HW117666  10.907   0.515   3.433
71923SOL    HW217667  10.912   0.365   3.454
71924SOL     OW17668   0.174  14.847  12.985
71924SOL    HW117669   0.199  14.825  12.895
71924SOL    HW217670   0.086  14.812  12.994
71925SOL     OW17671   1.484   2.672  11.960
71925SOL    HW117672   1.528   2.754  11.984
71925SOL    HW217673   1.466   2.680  11.867
71926SOL     OW17674   2.713   6.239  14.002
71926SOL    HW117675   2.743   6.159  13.958
71926SOL    HW217676   2.745   6.230  14.092
71927SOL     OW17677   1.157   9.340   1.380
71927SOL    HW117678   1.248   9.344   1.408
71927SOL    HW217679   1.126   9.430   1.384
71928SOL     OW17680   0.549   6.073   2.192
71928SOL    HW117681   0.584   6.005   2.133
71928SOL    HW217682   0.469   6.035   2.227
71929SOL     OW17683   8.752   4.701   7.669
71929SOL    HW117684   8.707   4.777   7.706
71929SOL    HW217685   8.736   4.631   7.732
71930SOL     OW17686   6.832   1.768   3.510
71930SOL    HW117687   6.797   1.713   3.440
71930SOL    HW217688   6.838   1.855   3.471
71931SOL     OW17689   3.322   4.562   1.986
71931SOL    HW117690   3.307   4.652   1.958
71931SOL    HW217691   3.378   4.570   2.063
71932SOL     OW17692   3.389   0.532  13.950
71932SOL    HW117693   3.384   0.615  13.997
71932SOL    HW217694   3.474   0.495  13.976
71933SOL     OW17695  11.633   0.164   7.233
71933SOL    HW117696  11.626   0.215   7.313
71933SOL    HW217697  11.674   0.223   7.170
71934SOL     OW17698  13.166  13.794   6.589
71934SOL    HW117699  13.249  13.831   6.620
71934SOL    HW217700  13.191  13.711   6.548
71935SOL     OW17701   9.175  13.116   9.367
71935SOL    HW117702   9.217  13.031   9.349
71935SOL    HW217703   9.171  13.120   9.463
71936SOL     OW17704   8.478  11.156  13.216
71936SOL    HW117705   8.444  11.154  13.126
71936SOL    HW217706   8.406  11.122  13.269
71937SOL     OW17707   3.649  12.245   4.244
71937SOL    HW117708   3.587  12.245   4.171
71937SOL    HW217709   3.626  12.323   4.295
71938SOL     OW17710   2.199   6.993  12.737
71938SOL    HW117711   2.132   6.993  12.805
71938SOL    HW217712   2.152   7.014  12.656
71939SOL     OW17713   0.085  13.175   9.885
71939SOL    HW117714   0.040  13.250   9.846
71939SOL    HW217715   0.038  13.157   9.966
71940SOL     OW17716   8.701   8.508   1.096
71940SOL    HW117717   8.733   8.429   1.140
71940SOL    HW217718   8.692   8.572   1.167
71941SOL     OW17719   2.714  14.825   6.536
71941SOL    HW117720   2.709   0.022   6.492
71941SOL    HW217721   2.664  14.836   6.617
71942SOL     OW17722   2.295  14.376  10.662
71942SOL    HW117723   2.344  14.458  10.655
71942SOL    HW217724   2.282  14.364  10.756
71943SOL     OW17725   0.967   9.051   6.703
71943SOL    HW117726   0.872   9.043   6.713
71943SOL    HW217727   0.993   8.974   6.653
71944SOL     OW17728   4.777   6.388   8.021
71944SOL    HW117729   4.748   6.402   8.111
71944SOL    HW217730   4.865   6.424   8.018
71945SOL     OW17731   9.427   5.981   1.507
71945SOL    HW117732   9.464   5.893   1.502
71945SOL    HW217733   9.500   6.039   1.484
71946SOL     OW17734   6.201   3.766   3.448
71946SOL    HW117735   6.134   3.716   3.494
71946SOL    HW217736   6.278   3.761   3.504
71947SOL     OW17737   5.403   1.767   4.710
71947SOL    HW117738   5.492   1.761   4.743
71947SOL    HW217739   5.410   1.751   4.616
71948SOL     OW17740   7.816  10.923   2.251
71948SOL    HW117741   7.862  10.910   2.334
71948SOL    HW217742   7.876  10.974   2.198
71949SOL     OW17743   5.020   4.879   6.838
71949SOL    HW117744   5.058   4.800   6.800
71949SOL    HW217745   5.079   4.949   6.811
71950SOL     OW17746   1.769   5.441  13.800
71950SOL    HW117747   1.769   5.515  13.861
71950SOL    HW217748   1.714   5.470  13.728
71951SOL     OW17749  12.557  14.862   5.355
71951SOL    HW117750  12.617   0.018   5.415
71951SOL    HW217751  12.472  14.864   5.399
71952SOL     OW17752   3.832  12.587   1.872
71952SOL    HW117753   3.745  12.580   1.832
71952SOL    HW217754   3.830  12.524   1.944
71953SOL     OW17755   8.686  10.682  10.119
71953SOL    HW117756   8.594  10.694  10.144
71953SOL    HW217757   8.706  10.591  10.142
71954SOL     OW17758   3.252   8.009   5.357
71954SOL    HW117759   3.347   8.006   5.364
71954SOL    HW217760   3.232   8.102   5.346
71955SOL     OW17761   7.071  14.179   0.860
71955SOL    HW117762   6.998  14.230   0.894
71955SOL    HW217763   7.084  14.211   0.771
71956SOL     OW17764   4.298   6.540   9.260
71956SOL    HW117765   4.335   6.496   9.184
71956SOL    HW217766   4.265   6.469   9.315
71957SOL     OW17767   2.113   5.366  14.298
71957SOL    HW117768   2.022   5.349  14.321
71957SOL    HW217769   2.108   5.414  14.215
71958SOL     OW17770   4.107   7.055  14.570
71958SOL    HW117771   4.083   7.089  14.484
71958SOL    HW217772   4.197   7.025  14.560
71959SOL     OW17773   3.435   3.685  10.956
71959SOL    HW117774   3.356   3.660  10.908
71959SOL    HW217775   3.447   3.778  10.937
71960SOL     OW17776   1.833   5.569  10.804
71960SOL    HW117777   1.775   5.498  10.832
71960SOL    HW217778   1.811   5.642  10.861
71961SOL     OW17779   6.365   5.755   1.833
71961SOL    HW117780   6.452   5.722   1.851
71961SOL    HW217781   6.307   5.680   1.846
71962SOL     OW17782  11.401   9.581  11.827
71962SOL    HW117783  11.356   9.498  11.818
71962SOL    HW217784  11.489   9.558  11.858
71963SOL     OW17785   2.262   5.002  10.571
71963SOL    HW117786   2.348   5.021  10.609
71963SOL    HW217787   2.199   5.042  10.631
71964SOL     OW17788   5.022   6.443   2.159
71964SOL    HW117789   5.100   6.387   2.150
71964SOL    HW217790   5.037   6.490   2.242
71965SOL     OW17791   0.000   7.017   6.359
71965SOL    HW117792  14.857   7.041   6.446
71965SOL    HW217793  14.862   6.925   6.349
71966SOL     OW17794   1.309   0.662   6.348
71966SOL    HW117795   1.348   0.697   6.428
71966SOL    HW217796   1.222   0.701   6.344
71967SOL     OW17797  11.220   3.991   1.610
71967SOL    HW117798  11.170   3.964   1.687
71967SOL    HW217799  11.154   4.015   1.546
71968SOL     OW17800  13.271  12.341   6.739
71968SOL    HW117801  13.213  12.264   6.736
71968SOL    HW217802  13.359  12.304   6.742
71969SOL     OW17803   9.365  12.870   3.236
71969SOL    HW117804   9.320  12.787   3.217
71969SOL    HW217805   9.409  12.855   3.319
71970SOL     OW17806   3.690   2.165  13.655
71970SOL    HW117807   3.703   2.242  13.600
71970SOL    HW217808   3.607   2.128  13.626
71971SOL     OW17809   1.042   8.892  13.033
71971SOL    HW117810   0.963   8.898  12.979
71971SOL    HW217811   1.021   8.826  13.099
71972SOL     OW17812  13.476   6.113  10.960
71972SOL    HW117813  13.557   6.141  11.003
71972SOL    HW217814  13.475   6.018  10.970
71973SOL     OW17815   0.340   2.096   2.980
71973SOL    HW117816   0.433   2.074   2.973
71973SOL    HW217817   0.295   2.018   2.946
71974SOL     OW17818  14.651   5.470  11.632
71974SOL    HW117819  14.663   5.548  11.579
71974SOL    HW217820  14.695   5.490  11.715
71975SOL     OW17821   1.596   8.056   6.040
71975SOL    HW117822   1.536   8.116   6.083
71975SOL    HW217823   1.546   7.975   6.030
71976SOL     OW17824   7.093   0.377  14.661
71976SOL    HW117825   7.020   0.431  14.691
71976SOL    HW217826   7.153   0.439  14.618
71977SOL     OW17827   8.221   0.308   8.447
71977SOL    HW117828   8.280   0.379   8.474
71977SOL    HW217829   8.182   0.339   8.365
71978SOL     OW17830   4.685   7.669   1.131
71978SOL    HW117831   4.702   7.579   1.104
71978SOL    HW217832   4.671   7.717   1.050
71979SOL     OW17833  11.138   3.219   3.041
71979SOL    HW117834  11.198   3.195   2.971
71979SOL    HW217835  11.121   3.312   3.027
71980SOL     OW17836   2.211   8.198   5.225
71980SOL    HW117837   2.269   8.179   5.151
71980SOL    HW217838   2.128   8.222   5.183
71981SOL     OW17839   4.531   6.763  12.918
71981SOL    HW117840   4.508   6.752  13.010
71981SOL    HW217841   4.623   6.736  12.913
71982SOL     OW17842   6.137  12.270   4.834
71982SOL    HW117843   6.163  12.199   4.894
71982SOL    HW217844   6.095  12.225   4.761
71983SOL     OW17845   6.267  13.153   4.061
71983SOL    HW117846   6.195  13.110   4.107
71983SOL    HW217847   6.255  13.129   3.969
71984SOL     OW17848   8.196  11.401   3.546
71984SOL    HW117849   8.202  11.411   3.641
71984SOL    HW217850   8.212  11.308   3.530
71985SOL     OW17851   0.641   6.781   8.128
71985SOL    HW117852   0.728   6.769   8.165
71985SOL    HW217853   0.650   6.853   8.066
71986SOL     OW17854   3.936   5.799   7.390
71986SOL    HW117855   3.916   5.884   7.349
71986SOL    HW217856   3.986   5.752   7.323
71987SOL     OW17857  10.771   8.601  12.876
71987SOL    HW117858  10.703   8.553  12.924
71987SOL    HW217859  10.775   8.687  12.919
71988SOL     OW17860  11.346  14.016   2.371
71988SOL    HW117861  11.425  14.053   2.331
71988SOL    HW217862  11.335  13.931   2.328
71989SOL     OW17863   8.506   0.713  14.461
71989SOL    HW117864   8.427   0.762  14.482
71989SOL    HW217865   8.577   0.777  14.470
71990SOL     OW17866   7.202  12.021   4.350
71990SOL    HW117867   7.288  12.022   4.392
71990SOL    HW217868   7.150  11.961   4.405
71991SOL     OW17869   3.264   6.079   4.771
71991SOL    HW117870   3.213   6.128   4.835
71991SOL    HW217871   3.199   6.024   4.727
71992SOL     OW17872  11.505   8.202  14.853
71992SOL    HW117873  11.446   8.198   0.040
71992SOL    HW217874  11.537   8.293  14.852
71993SOL     OW17875   8.096   8.565   1.720
71993SOL    HW117876   8.019   8.553   1.664
71993SOL    HW217877   8.137   8.645   1.686
71994SOL     OW17878  11.150   3.945  12.849
71994SOL    HW117879  11.134   3.863  12.895
71994SOL    HW217880  11.140   4.013  12.916
71995SOL     OW17881   6.294   2.880  10.970
71995SOL    HW117882   6.280   2.925  10.887
71995SOL    HW217883   6.233   2.921  11.031
71996SOL     OW17884   5.877   9.899  14.291
71996SOL    HW117885   5.790   9.860  14.292
71996SOL    HW217886   5.937   9.824  14.285
71997SOL     OW17887   5.186  13.571   8.512
71997SOL    HW117888   5.212  13.658   8.481
71997SOL    HW217889   5.232  13.561   8.595
71998SOL     OW17890   7.915   1.381   9.603
71998SOL    HW117891   7.934   1.370   9.696
71998SOL    HW217892   7.860   1.460   9.598
71999SOL     OW17893   7.318  11.481   4.149
71999SOL    HW117894   7.329  11.417   4.078
71999SOL    HW217895   7.385  11.457   4.213
72000SOL     OW17896   4.460   1.215   1.035
72000SOL    HW117897   4.462   1.260   0.951
72000SOL    HW217898   4.373   1.175   1.039
72001SOL     OW17899  11.899  14.586   4.337
72001SOL    HW117900  11.814  14.549   4.314
72001SOL    HW217901  11.912  14.561   4.429
72002SOL     OW17902   4.070   1.519   2.606
72002SOL    HW117903   4.115   1.435   2.599
72002SOL    HW217904   4.045   1.524   2.698
72003SOL     OW17905  11.879   0.790  10.870
72003SOL    HW117906  11.842   0.815  10.785
72003SOL    HW217907  11.804   0.766  10.923
72004SOL     OW17908  11.366   4.913   6.634
72004SOL    HW117909  11.338   4.898   6.543
72004SOL    HW217910  11.286   4.938   6.680
72005SOL     OW17911   4.682   0.160  14.593
72005SOL    HW117912   4.670   0.089  14.529
72005SOL    HW217913   4.630   0.133  14.668
72006SOL     OW17914  13.468   8.918  11.445
72006SOL    HW117915  13.522   8.853  11.490
72006SOL    HW217916  13.448   8.878  11.360
72007SOL     OW17917   8.989   9.524   8.507
72007SOL    HW117918   8.954   9.528   8.418
72007SOL    HW217919   9.083   9.540   8.497
72008SOL     OW17920  13.794  11.572   6.273
72008SOL    HW117921  13.867  11.565   6.334
72008SOL    HW217922  13.745  11.491   6.285
72009SOL     OW17923   6.262  11.083  12.405
72009SOL    HW117924   6.254  11.098  12.500
72009SOL    HW217925   6.352  11.055  12.393
72010SOL     OW17926   6.881   9.688  10.162
72010SOL    HW117927   6.868   9.640  10.244
72010SOL    HW217928   6.839   9.634  10.095
72011SOL     OW17929   6.706   6.456   3.738
72011SOL    HW117930   6.787   6.493   3.702
72011SOL    HW217931   6.693   6.503   3.820
72012SOL     OW17932   9.182   3.421  13.318
72012SOL    HW117933   9.136   3.413  13.234
72012SOL    HW217934   9.144   3.499  13.358
72013SOL     OW17935  11.748   5.247   7.318
72013SOL    HW117936  11.827   5.252   7.373
72013SOL    HW217937  11.769   5.299   7.241
72014SOL     OW17938   1.221  12.582  10.205
72014SOL    HW117939   1.195  12.639  10.278
72014SOL    HW217940   1.316  12.580  10.208
72015SOL     OW17941  14.633   2.629   5.227
72015SOL    HW117942  14.610   2.593   5.313
72015SOL    HW217943  14.666   2.554   5.178
72016SOL     OW17944  12.975   3.164   3.339
72016SOL    HW117945  12.949   3.111   3.263
72016SOL    HW217946  12.895   3.212   3.362
72017SOL     OW17947   9.082   5.276   3.354
72017SOL    HW117948   9.142   5.313   3.418
72017SOL    HW217949   9.082   5.182   3.371
72018SOL     OW17950   6.634   6.118   5.716
72018SOL    HW117951   6.602   6.083   5.799
72018SOL    HW217952   6.555   6.133   5.664
72019SOL     OW17953   0.782   2.547   6.041
72019SOL    HW117954   0.820   2.470   6.083
72019SOL    HW217955   0.701   2.562   6.089
72020SOL     OW17956   7.237   4.579   9.490
72020SOL    HW117957   7.230   4.587   9.585
72020SOL    HW217958   7.214   4.666   9.457
72021SOL     OW17959   7.730   8.353  10.147
72021SOL    HW117960   7.639   8.367  10.120
72021SOL    HW217961   7.746   8.260  10.128
72022SOL     OW17962   0.593   9.742   4.380
72022SOL    HW117963   0.590   9.675   4.313
72022SOL    HW217964   0.544   9.705   4.454
72023SOL     OW17965   0.299   6.118   4.651
72023SOL    HW117966   0.231   6.053   4.634
72023SOL    HW217967   0.276   6.192   4.594
72024SOL     OW17968   9.530  11.257   7.046
72024SOL    HW117969   9.522  11.205   6.966
72024SOL    HW217970   9.576  11.199   7.108
72025SOL     OW17971  14.759   5.831   6.995
72025SOL    HW117972  14.776   5.736   6.995
72025SOL    HW217973  14.734   5.850   7.086
72026SOL     OW17974   8.149   7.208   2.191
72026SOL    HW117975   8.188   7.185   2.275
72026SOL    HW217976   8.060   7.234   2.213
72027SOL     OW17977  11.644   6.031   0.482
72027SOL    HW117978  11.722   6.014   0.534
72027SOL    HW217979  11.653   6.122   0.454
72028SOL     OW17980   6.576   8.628  14.814
72028SOL    HW117981   6.642   8.662  14.875
72028SOL    HW217982   6.583   8.533  14.821
72029SOL     OW17983  11.768   7.120   8.489
72029SOL    HW117984  11.708   7.194   8.483
72029SOL    HW217985  11.812   7.131   8.573
72030SOL     OW17986  14.178  14.710   6.280
72030SOL    HW117987  14.114  14.733   6.213
72030SOL    HW217988  14.233  14.643   6.239
72031SOL     OW17989   4.843  14.410  11.322
72031SOL    HW117990   4.937  14.420  11.308
72031SOL    HW217991   4.835  14.338  11.385
72032SOL     OW17992   5.356   7.534   7.794
72032SOL    HW117993   5.387   7.548   7.884
72032SOL    HW217994   5.292   7.464   7.802
72033SOL     OW17995  10.600   1.659  12.382
72033SOL    HW117996  10.592   1.676  12.288
72033SOL    HW217997  10.629   1.742  12.419
72034SOL     OW17998  13.116   3.233  14.476
72034SOL    HW117999  13.136   3.142  14.452
72034SOL    HW218000  13.182   3.284  14.429
72035SOL     OW18001   3.897   6.341   0.902
72035SOL    HW118002   3.934   6.271   0.956
72035SOL    HW218003   3.802   6.333   0.913
72036SOL     OW18004  11.775   9.801   3.021
72036SOL    HW118005  11.701   9.856   3.048
72036SOL    HW218006  11.843   9.862   2.995
72037SOL     OW18007  14.156  14.539   6.890
72037SOL    HW118008  14.186  14.579   6.808
72037SOL    HW218009  14.189  14.599   6.958
72038SOL     OW18010  10.849   8.218   3.438
72038SOL    HW118011  10.853   8.203   3.343
72038SOL    HW218012  10.893   8.141   3.475
72039SOL     OW18013   0.590   4.728   4.423
72039SOL    HW118014   0.578   4.638   4.393
72039SOL    HW218015   0.676   4.728   4.466
72040SOL     OW18016   0.146  14.409  12.776
72040SOL    HW118017   0.105  14.428  12.861
72040SOL    HW218018   0.114  14.477  12.718
72041SOL     OW18019  10.227  11.575  12.222
72041SOL    HW118020  10.142  11.590  12.182
72041SOL    HW218021  10.260  11.663  12.243
72042SOL     OW18022   2.097   0.640  14.081
72042SOL    HW118023   2.161   0.578  14.114
72042SOL    HW218024   2.022   0.587  14.055
72043SOL     OW18025  12.829  10.359   6.515
72043SOL    HW118026  12.904  10.381   6.571
72043SOL    HW218027  12.803  10.443   6.477
72044SOL     OW18028   4.161   8.559  14.147
72044SOL    HW118029   4.159   8.635  14.207
72044SOL    HW218030   4.212   8.590  14.072
72045SOL     OW18031   3.644   7.371  14.165
72045SOL    HW118032   3.705   7.297  14.168
72045SOL    HW218033   3.697   7.445  14.136
72046SOL     OW18034   0.395   9.894  10.403
72046SOL    HW118035   0.321   9.857  10.450
72046SOL    HW218036   0.358   9.966  10.352
72047SOL     OW18037   4.185   7.456  10.641
72047SOL    HW118038   4.281   7.460  10.635
72047SOL    HW218039   4.168   7.391  10.708
72048SOL     OW18040   3.537   8.332   8.624
72048SOL    HW118041   3.607   8.266   8.626
72048SOL    HW218042   3.473   8.296   8.563
72049SOL     OW18043  14.006  10.313   1.992
72049SOL    HW118044  14.090  10.320   2.037
72049SOL    HW218045  13.953  10.385   2.028
72050SOL     OW18046   9.429   6.662   3.656
72050SOL    HW118047   9.376   6.590   3.622
72050SOL    HW218048   9.519   6.637   3.635
72051SOL     OW18049   4.859  11.261  12.518
72051SOL    HW118050   4.819  11.295  12.438
72051SOL    HW218051   4.797  11.284  12.587
72052SOL     OW18052  10.644  11.320   2.384
72052SOL    HW118053  10.598  11.277   2.457
72052SOL    HW218054  10.618  11.412   2.391
72053SOL     OW18055   8.275  11.255   0.467
72053SOL    HW118056   8.305  11.166   0.448
72053SOL    HW218057   8.355  11.307   0.471
72054SOL     OW18058  11.016  11.208  13.318
72054SOL    HW118059  11.048  11.157  13.392
72054SOL    HW218060  10.924  11.225  13.338
72055SOL     OW18061  11.147   1.014   3.072
72055SOL    HW118062  11.184   0.986   2.988
72055SOL    HW218063  11.157   1.110   3.072
72056SOL     OW18064   9.565   7.172  13.199
72056SOL    HW118065   9.515   7.108  13.250
72056SOL    HW218066   9.531   7.257  13.227
72057SOL     OW18067  13.202   4.541   6.264
72057SOL    HW118068  13.144   4.477   6.305
72057SOL    HW218069  13.224   4.602   6.334
72058SOL     OW18070   6.301   0.778   6.337
72058SOL    HW118071   6.219   0.780   6.388
72058SOL    HW218072   6.273   0.778   6.246
72059SOL     OW18073  13.195   2.842  10.668
72059SOL    HW118074  13.282   2.822  10.704
72059SOL    HW218075  13.135   2.791  10.723
72060SOL     OW18076   5.926  13.836  13.149
72060SOL    HW118077   5.906  13.783  13.071
72060SOL    HW218078   5.997  13.789  13.193
72061SOL     OW18079  14.723   2.191   4.243
72061SOL    HW118080  14.740   2.168   4.152
72061SOL    HW218081  14.654   2.131   4.271
72062SOL     OW18082  12.657   8.904  11.118
72062SOL    HW118083  12.595   8.941  11.180
72062SOL    HW218084  12.644   8.809  11.125
72063SOL     OW18085   9.704  14.498  11.803
72063SOL    HW118086   9.692  14.474  11.895
72063SOL    HW218087   9.688  14.417  11.755
72064SOL     OW18088   9.529   4.924  14.529
72064SOL    HW118089   9.577   5.006  14.517
72064SOL    HW218090   9.564   4.887  14.610
72065SOL     OW18091  13.873   1.575   4.838
72065SOL    HW118092  13.838   1.496   4.797
72065SOL    HW218093  13.843   1.570   4.929
72066SOL     OW18094   3.988  10.650   6.036
72066SOL    HW118095   4.038  10.730   6.051
72066SOL    HW218096   4.002  10.597   6.114
72067SOL     OW18097   0.039  14.320   2.424
72067SOL    HW118098   0.078  14.276   2.500
72067SOL    HW218099   0.087  14.284   2.349
72068SOL     OW18100   0.995   9.306   4.751
72068SOL    HW118101   0.988   9.212   4.767
72068SOL    HW218102   0.922   9.344   4.799
72069SOL     OW18103   4.027   3.310   7.862
72069SOL    HW118104   4.102   3.369   7.853
72069SOL    HW218105   4.058   3.226   7.829
72070SOL     OW18106   0.023   5.712   3.941
72070SOL    HW118107  14.861   5.764   3.877
72070SOL    HW218108  14.881   5.622   3.927
72071SOL     OW18109  10.766   5.683   6.712
72071SOL    HW118110  10.777   5.717   6.624
72071SOL    HW218111  10.821   5.740   6.767
72072SOL     OW18112  12.200   6.599   3.346
72072SOL    HW118113  12.223   6.593   3.253
72072SOL    HW218114  12.182   6.508   3.371
72073SOL     OW18115   1.402   9.803   6.808
72073SOL    HW118116   1.425   9.710   6.807
72073SOL    HW218117   1.324   9.809   6.754
72074SOL     OW18118   8.860   5.780  14.316
72074SOL    HW118119   8.865   5.818  14.404
72074SOL    HW218120   8.929   5.713  14.314
72075SOL     OW18121   5.691   1.459   0.488
72075SOL    HW118122   5.770   1.418   0.454
72075SOL    HW218123   5.714   1.551   0.498
72076SOL     OW18124   9.662   9.481   7.876
72076SOL    HW118125   9.705   9.422   7.938
72076SOL    HW218126   9.684   9.446   7.790
72077SOL     OW18127   4.840   9.603  12.284
72077SOL    HW118128   4.783   9.670  12.322
72077SOL    HW218129   4.810   9.521  12.323
72078SOL     OW18130   2.176   5.012   4.043
72078SOL    HW118131   2.155   4.919   4.052
72078SOL    HW218132   2.164   5.048   4.131
72079SOL     OW18133   0.808   8.787   5.766
72079SOL    HW118134   0.797   8.692   5.769
72079SOL    HW218135   0.755   8.815   5.691
72080SOL     OW18136   8.066   7.906  10.555
72080SOL    HW118137   7.982   7.871  10.528
72080SOL    HW218138   8.082   7.867  10.641
72081SOL     OW18139   9.550   0.132   5.693
72081SOL    HW118140   9.501   0.170   5.620
72081SOL    HW218141   9.488   0.073   5.736
72082SOL     OW18142   4.340   3.311   2.889
72082SOL    HW118143   4.394   3.386   2.861
72082SOL    HW218144   4.291   3.344   2.964
72083SOL     OW18145   7.320   4.312  10.985
72083SOL    HW118146   7.282   4.286  11.069
72083SOL    HW218147   7.414   4.314  11.001
72084SOL     OW18148  14.305  14.846   1.576
72084SOL    HW118149  14.313  14.753   1.597
72084SOL    HW218150  14.334   0.004   1.656
72085SOL     OW18151   0.092   3.766   4.754
72085SOL    HW118152   0.032   3.745   4.826
72085SOL    HW218153   0.038   3.758   4.676
72086SOL     OW18154  14.709   7.587   6.682
72086SOL    HW118155  14.751   7.593   6.596
72086SOL    HW218156  14.672   7.674   6.697
72087SOL     OW18157  14.301   9.340  13.088
72087SOL    HW118158  14.307   9.267  13.026
72087SOL    HW218159  14.365   9.317  13.156
72088SOL     OW18160   5.542   9.021   5.913
72088SOL    HW118161   5.605   9.079   5.870
72088SOL    HW218162   5.590   8.984   5.987
72089SOL     OW18163   6.406  14.528   3.364
72089SOL    HW118164   6.414  14.498   3.274
72089SOL    HW218165   6.328  14.483   3.397
72090SOL     OW18166   3.275   1.544   8.472
72090SOL    HW118167   3.262   1.462   8.519
72090SOL    HW218168   3.271   1.612   8.540
72091SOL     OW18169   0.591  12.172  10.344
72091SOL    HW118170   0.686  12.185  10.340
72091SOL    HW218171   0.566  12.156  10.253
72092SOL     OW18172  13.516   4.986   9.731
72092SOL    HW118173  13.450   4.968   9.798
72092SOL    HW218174  13.520   5.082   9.726
72093SOL     OW18175   8.325   7.704  11.734
72093SOL    HW118176   8.394   7.765  11.762
72093SOL    HW218177   8.254   7.717  11.797
72094SOL     OW18178  13.598  12.090   7.334
72094SOL    HW118179  13.669  12.137   7.289
72094SOL    HW218180  13.555  12.040   7.264
72095SOL     OW18181   9.250   3.509  14.696
72095SOL    HW118182   9.176   3.507  14.635
72095SOL    HW218183   9.322   3.470  14.647
72096SOL     OW18184   8.196   0.068  11.727
72096SOL    HW118185   8.242   0.085  11.644
72096SOL    HW218186   8.182  14.861  11.728
72097SOL     OW18187  11.712   3.271   7.654
72097SOL    HW118188  11.744   3.326   7.725
72097SOL    HW218189  11.789   3.219   7.628
72098SOL     OW18190   7.858   8.368   0.965
72098SOL    HW118191   7.831   8.452   1.003
72098SOL    HW218192   7.776   8.326   0.940
72099SOL     OW18193   6.387   6.931   1.380
72099SOL    HW118194   6.443   7.008   1.390
72099SOL    HW218195   6.317   6.943   1.444
72100SOL     OW18196   7.563  13.663  11.211
72100SOL    HW118197   7.569  13.682  11.304
72100SOL    HW218198   7.637  13.710  11.172
72101SOL     OW18199   0.812  10.482  11.328
72101SOL    HW118200   0.810  10.578  11.327
72101SOL    HW218201   0.901  10.459  11.304
72102SOL     OW18202  12.457   4.814   7.435
72102SOL    HW118203  12.436   4.906   7.452
72102SOL    HW218204  12.436   4.801   7.343
72103SOL     OW18205   4.779   1.913   7.003
72103SOL    HW118206   4.865   1.929   7.040
72103SOL    HW218207   4.785   1.942   6.912
72104SOL     OW18208  14.884   1.473   5.032
72104SOL    HW118209  14.847   1.423   4.959
72104SOL    HW218210  14.873   1.564   5.006
72105SOL     OW18211  12.396  10.229   3.819
72105SOL    HW118212  12.308  10.262   3.800
72105SOL    HW218213  12.394  10.138   3.790
72106SOL     OW18214  10.568   0.003  10.568
72106SOL    HW118215  10.663  14.875  10.573
72106SOL    HW218216  10.559   0.077  10.508
72107SOL     OW18217   3.337   5.340   5.364
72107SOL    HW118218   3.415   5.290   5.389
72107SOL    HW218219   3.344   5.349   5.269
72108SOL     OW18220   1.299   1.975  10.742
72108SOL    HW118221   1.270   2.061  10.773
72108SOL    HW218222   1.376   1.956  10.795
72109SOL     OW18223   6.221   7.097   1.113
72109SOL    HW118224   6.299   7.041   1.117
72109SOL    HW218225   6.236   7.153   1.037
72110SOL     OW18226   6.651  11.774   8.883
72110SOL    HW118227   6.739  11.742   8.865
72110SOL    HW218228   6.616  11.798   8.798
72111SOL     OW18229   0.666  13.187   4.753
72111SOL    HW118230   0.716  13.269   4.748
72111SOL    HW218231   0.731  13.118   4.741
72112SOL     OW18232   5.047   1.014   8.916
72112SOL    HW118233   5.059   0.984   8.826
72112SOL    HW218234   5.133   1.007   8.956
72113SOL     OW18235   9.407   1.177   4.427
72113SOL    HW118236   9.482   1.148   4.478
72113SOL    HW218237   9.331   1.157   4.482
72114SOL     OW18238   7.018   3.536   2.752
72114SOL    HW118239   6.966   3.458   2.732
72114SOL    HW218240   7.087   3.504   2.811
72115SOL     OW18241  14.356   8.743   5.479
72115SOL    HW118242  14.429   8.695   5.518
72115SOL    HW218243  14.280   8.688   5.496
72116SOL     OW18244   1.511   5.160   1.879
72116SOL    HW118245   1.471   5.236   1.921
72116SOL    HW218246   1.594   5.193   1.843
72117SOL     OW18247   3.957  14.435  11.701
72117SOL    HW118248   3.997  14.394  11.778
72117SOL    HW218249   3.864  14.440  11.723
72118SOL     OW18250   7.634  12.863   3.070
72118SOL    HW118251   7.662  12.937   3.123
72118SOL    HW218252   7.612  12.901   2.985
72119SOL     OW18253   4.239   8.848  12.828
72119SOL    HW118254   4.159   8.871  12.781
72119SOL    HW218255   4.282   8.782  12.772
72120SOL     OW18256   3.440   6.572   4.845
72120SOL    HW118257   3.450   6.641   4.910
72120SOL    HW218258   3.410   6.496   4.895
72121SOL     OW18259   1.911   4.955   5.180
72121SOL    HW118260   1.932   4.951   5.273
72121SOL    HW218261   1.852   5.030   5.171
72122SOL     OW18262   6.033   2.407   3.082
72122SOL    HW118263   6.068   2.435   3.167
72122SOL    HW218264   5.973   2.477   3.057
72123SOL     OW18265  14.526   3.949   1.918
72123SOL    HW118266  14.609   3.992   1.936
72123SOL    HW218267  14.459   4.014   1.939
72124SOL     OW18268   9.698  14.179   9.878
72124SOL    HW118269   9.662  14.151   9.793
72124SOL    HW218270   9.742  14.262   9.859
72125SOL     OW18271   3.910  10.357   8.024
72125SOL    HW118272   3.970  10.358   7.949
72125SOL    HW218273   3.922  10.442   8.066
72126SOL     OW18274   9.727   5.286   4.237
72126SOL    HW118275   9.648   5.266   4.288
72126SOL    HW218276   9.702   5.272   4.146
72127SOL     OW18277   9.929   7.753   2.110
72127SOL    HW118278  10.004   7.769   2.053
72127SOL    HW218279   9.873   7.693   2.060
72128SOL     OW18280   7.629   1.964  13.105
72128SOL    HW118281   7.618   1.948  13.198
72128SOL    HW218282   7.637   2.060  13.098
72129SOL     OW18283  11.036  12.243   6.429
72129SOL    HW118284  11.035  12.231   6.524
72129SOL    HW218285  11.114  12.297   6.413
72130SOL     OW18286   0.056  14.044  14.394
72130SOL    HW118287   0.035  14.001  14.477
72130SOL    HW218288   0.094  14.128  14.419
72131SOL     OW18289  11.566   4.743   7.139
72131SOL    HW118290  11.613   4.702   7.212
72131SOL    HW218291  11.634   4.759   7.073
72132SOL     OW18292   3.153  14.582   7.473
72132SOL    HW118293   3.184  14.516   7.535
72132SOL    HW218294   3.142  14.661   7.526
72133SOL     OW18295   3.939   4.935  10.567
72133SOL    HW118296   3.986   4.878  10.506
72133SOL    HW218297   3.887   4.993  10.512
72134SOL     OW18298  14.400   4.962   7.902
72134SOL    HW118299  14.480   4.918   7.876
72134SOL    HW218300  14.330   4.916   7.855
72135SOL     OW18301   2.795   4.234  10.172
72135SOL    HW118302   2.826   4.315  10.213
72135SOL    HW218303   2.714   4.259  10.128
72136SOL     OW18304   3.562   6.553   3.658
72136SOL    HW118305   3.646   6.535   3.617
72136SOL    HW218306   3.580   6.552   3.752
72137SOL     OW18307  12.334  12.914   9.013
72137SOL    HW118308  12.279  12.881   9.085
72137SOL    HW218309  12.405  12.959   9.057
72138SOL     OW18310  10.385   4.241   1.860
72138SOL    HW118311  10.452   4.288   1.911
72138SOL    HW218312  10.357   4.170   1.918
72139SOL     OW18313   5.612  10.248   9.377
72139SOL    HW118314   5.616  10.289   9.291
72139SOL    HW218315   5.627  10.155   9.360
72140SOL     OW18316  11.916   4.554  12.670
72140SOL    HW118317  11.976   4.526  12.600
72140SOL    HW218318  11.935   4.495  12.743
72141SOL     OW18319   1.647   8.572   2.151
72141SOL    HW118320   1.611   8.655   2.121
72141SOL    HW218321   1.698   8.594   2.229
72142SOL     OW18322  10.276   4.166   7.021
72142SOL    HW118323  10.285   4.092   7.081
72142SOL    HW218324  10.347   4.225   7.046
72143SOL     OW18325  13.621   3.078   4.797
72143SOL    HW118326  13.576   2.994   4.801
72143SOL    HW218327  13.558   3.136   4.754
72144SOL     OW18328  12.371   0.053   8.498
72144SOL    HW118329  12.462   0.072   8.475
72144SOL    HW218330  12.375  14.854   8.540
72145SOL     OW18331   8.704  11.411  11.810
72145SOL    HW118332   8.757  11.469  11.755
72145SOL    HW218333   8.615  11.446  11.804
72146SOL     OW18334   4.820  10.970  12.291
72146SOL    HW118335   4.890  11.030  12.265
72146SOL    HW218336   4.820  10.903  12.224
72147SOL     OW18337   4.144   0.708   2.475
72147SOL    HW118338   4.070   0.647   2.485
72147SOL    HW218339   4.220   0.657   2.505
72148SOL     OW18340   0.439   8.360  13.278
72148SOL    HW118341   0.516   8.317  13.315
72148SOL    HW218342   0.473   8.409  13.204
72149SOL     OW18343  10.400   2.176   7.155
72149SOL    HW118344  10.422   2.227   7.077
72149SOL    HW218345  10.420   2.086   7.131
72150SOL     OW18346  13.582  14.137   7.523
72150SOL    HW118347  13.602  14.175   7.608
72150SOL    HW218348  13.494  14.168   7.503
72151SOL     OW18349   1.126   2.252  14.505
72151SOL    HW118350   1.097   2.173  14.460
72151SOL    HW218351   1.151   2.223  14.592
72152SOL     OW18352   6.745  11.938   8.155
72152SOL    HW118353   6.661  11.983   8.169
72152SOL    HW218354   6.766  11.955   8.063
72153SOL     OW18355   3.506  14.637  14.803
72153SOL    HW118356   3.558  14.638  14.884
72153SOL    HW218357   3.520  14.723  14.764
72154SOL     OW18358  12.798   9.216  10.052
72154SOL    HW118359  12.830   9.198   9.963
72154SOL    HW218360  12.867   9.269  10.092
72155SOL     OW18361  13.617  14.286   1.577
72155SOL    HW118362  13.669  14.332   1.511
72155SOL    HW218363  13.526  14.307   1.555
72156SOL     OW18364   7.815  13.358   5.952
72156SOL    HW118365   7.771  13.289   5.902
72156SOL    HW218366   7.907  13.353   5.924
72157SOL     OW18367   9.102   1.220  14.167
72157SOL    HW118368   9.196   1.239  14.169
72157SOL    HW218369   9.080   1.219  14.074
72158SOL     OW18370   5.601   7.633   8.511
72158SOL    HW118371   5.661   7.664   8.578
72158SOL    HW218372   5.586   7.708   8.454
72159SOL     OW18373  13.768  10.072   9.037
72159SOL    HW118374  13.834  10.140   9.048
72159SOL    HW218375  13.814   9.990   9.057
72160SOL     OW18376  10.281   4.918   9.180
72160SOL    HW118377  10.209   4.871   9.222
72160SOL    HW218378  10.311   4.980   9.246
72161SOL     OW18379  13.775  10.782   0.041
72161SOL    HW118380  13.836  10.771  14.855
72161SOL    HW218381  13.693  10.809  14.887
72162SOL     OW18382   9.232   4.270  10.041
72162SOL    HW118383   9.257   4.240   9.954
72162SOL    HW218384   9.233   4.192  10.095
72163SOL     OW18385   5.024   6.475   8.039
72163SOL    HW118386   5.088   6.428   7.986
72163SOL    HW218387   5.030   6.434   8.125
72164SOL     OW18388   7.159   4.060  12.600
72164SOL    HW118389   7.253   4.048  12.614
72164SOL    HW218390   7.121   3.974  12.617
72165SOL     OW18391   2.749   8.830   2.772
72165SOL    HW118392   2.815   8.812   2.705
72165SOL    HW218393   2.777   8.776   2.847
72166SOL     OW18394  11.875  14.840   5.837
72166SOL    HW118395  11.893  14.747   5.831
72166SOL    HW218396  11.811  14.857   5.768
72167SOL     OW18397   4.006  12.546   7.800
72167SOL    HW118398   4.010  12.592   7.884
72167SOL    HW218399   3.983  12.614   7.737
72168SOL     OW18400  12.334   1.752   9.196
72168SOL    HW118401  12.429   1.746   9.190
72168SOL    HW218402  12.301   1.683   9.139
72169SOL     OW18403   6.733   1.109   3.546
72169SOL    HW118404   6.758   1.086   3.636
72169SOL    HW218405   6.685   1.032   3.515
72170SOL     OW18406   9.410   6.079  10.122
72170SOL    HW118407   9.438   6.126  10.201
72170SOL    HW218408   9.471   6.005  10.117
72171SOL     OW18409  14.573   8.151   1.275
72171SOL    HW118410  14.607   8.099   1.202
72171SOL    HW218411  14.584   8.242   1.247
72172SOL     OW18412   9.195  13.541   3.147
72172SOL    HW118413   9.125  13.585   3.099
72172SOL    HW218414   9.154  13.461   3.181
72173SOL     OW18415  14.721   1.240   6.565
72173SOL    HW118416  14.699   1.333   6.564
72173SOL    HW218417  14.683   1.205   6.485
72174SOL     OW18418  10.688   8.711   0.512
72174SOL    HW118419  10.628   8.650   0.555
72174SOL    HW218420  10.770   8.702   0.560
72175SOL     OW18421   8.222   0.745  14.178
72175SOL    HW118422   8.218   0.840  14.179
72175SOL    HW218423   8.273   0.724  14.099
72176SOL     OW18424   1.722   5.749   9.382
72176SOL    HW118425   1.654   5.748   9.314
72176SOL    HW218426   1.759   5.837   9.377
72177SOL     OW18427   5.778  10.423  13.909
72177SOL    HW118428   5.793  10.493  13.972
72177SOL    HW218429   5.716  10.460  13.846
72178SOL     OW18430   6.467   6.932   2.797
72178SOL    HW118431   6.468   7.006   2.737
72178SOL    HW218432   6.458   6.855   2.740
72179SOL     OW18433   4.191   0.276   8.387
72179SOL    HW118434   4.230   0.203   8.434
72179SOL    HW218435   4.098   0.252   8.378
72180SOL     OW18436   4.352   5.248  12.768
72180SOL    HW118437   4.438   5.232  12.807
72180SOL    HW218438   4.316   5.321  12.818
72181SOL     OW18439  12.115   7.399   1.137
72181SOL    HW118440  12.208   7.412   1.118
72181SOL    HW218441  12.070   7.463   1.081
72182SOL     OW18442  10.042  13.878   9.992
72182SOL    HW118443  10.078  13.831  10.067
72182SOL    HW218444   9.959  13.835   9.974
72183SOL     OW18445   4.661   5.604  14.346
72183SOL    HW118446   4.754   5.610  14.327
72183SOL    HW218447   4.654   5.528  14.405
72184SOL     OW18448   9.803   4.145  13.377
72184SOL    HW118449   9.795   4.167  13.470
72184SOL    HW218450   9.855   4.064  13.376
72185SOL     OW18451  12.344  13.192   6.706
72185SOL    HW118452  12.382  13.251   6.641
72185SOL    HW218453  12.397  13.113   6.702
72186SOL     OW18454   8.105   1.768   3.590
72186SOL    HW118455   8.033   1.757   3.529
72186SOL    HW218456   8.176   1.804   3.537
72187SOL     OW18457   5.526   9.343  11.019
72187SOL    HW118458   5.454   9.302  10.972
72187SOL    HW218459   5.575   9.391  10.953
72188SOL     OW18460  12.326   8.047   8.017
72188SOL    HW118461  12.364   7.976   7.965
72188SOL    HW218462  12.287   8.003   8.093
72189SOL     OW18463   0.004   0.126   6.396
72189SOL    HW118464   0.096   0.104   6.411
72189SOL    HW218465   0.005   0.219   6.372
72190SOL     OW18466   6.240   8.694  14.468
72190SOL    HW118467   6.315   8.689  14.410
72190SOL    HW218468   6.174   8.742  14.418
72191SOL     OW18469   2.393   8.282   5.444
72191SOL    HW118470   2.424   8.198   5.477
72191SOL    HW218471   2.324   8.260   5.382
72192SOL     OW18472   0.789  11.584   6.157
72192SOL    HW118473   0.850  11.558   6.088
72192SOL    HW218474   0.754  11.668   6.128
72193SOL     OW18475   1.931   3.539  12.620
72193SOL    HW118476   1.913   3.632  12.606
72193SOL    HW218477   1.871   3.513  12.689
72194SOL     OW18478   5.988  14.651   8.097
72194SOL    HW118479   6.082  14.646   8.118
72194SOL    HW218480   5.955  14.721   8.153
72195SOL     OW18481   5.763   4.039   4.339
72195SOL    HW118482   5.757   3.985   4.418
72195SOL    HW218483   5.822   4.111   4.364
72196SOL     OW18484   2.136   3.998   4.574
72196SOL    HW118485   2.111   4.067   4.635
72196SOL    HW218486   2.100   4.026   4.490
72197SOL     OW18487  10.435   1.083  10.307
72197SOL    HW118488  10.442   1.178  10.305
72197SOL    HW218489  10.487   1.056  10.383
72198SOL     OW18490   3.331  13.889   7.834
72198SOL    HW118491   3.411  13.855   7.795
72198SOL    HW218492   3.348  13.983   7.847
72199SOL     OW18493   7.960   9.711   9.499
72199SOL    HW118494   7.926   9.640   9.445
72199SOL    HW218495   7.883   9.744   9.546
72200SOL     OW18496  10.193   8.988   0.032
72200SOL    HW118497  10.263   9.014   0.092
72200SOL    HW218498  10.216   8.899   0.006
72201SOL     OW18499   9.241   7.195  10.671
72201SOL    HW118500   9.196   7.111  10.679
72201SOL    HW218501   9.176   7.259  10.698
72202SOL     OW18502   0.545   7.972  13.508
72202SOL    HW118503   0.625   7.931  13.476
72202SOL    HW218504   0.497   7.996  13.428
72203SOL     OW18505   8.657   8.017   8.644
72203SOL    HW118506   8.734   8.052   8.600
72203SOL    HW218507   8.684   8.004   8.735
72204SOL     OW18508   6.978  10.130   0.091
72204SOL    HW118509   7.067  10.099   0.104
72204SOL    HW218510   6.923  10.060   0.128
72205SOL     OW18511   1.886   7.420   2.642
72205SOL    HW118512   1.965   7.401   2.591
72205SOL    HW218513   1.911   7.399   2.733
72206SOL     OW18514   4.160  10.469   5.476
72206SOL    HW118515   4.135  10.377   5.469
72206SOL    HW218516   4.222  10.482   5.405
72207SOL     OW18517  12.070   5.169   6.671
72207SOL    HW118518  12.080   5.169   6.575
72207SOL    HW218519  11.997   5.229   6.687
72208SOL     OW18520   5.817  12.688   4.305
72208SOL    HW118521   5.774  12.771   4.286
72208SOL    HW218522   5.856  12.700   4.391
72209SOL     OW18523  12.101  14.059   8.357
72209SOL    HW118524  12.025  14.003   8.365
72209SOL    HW218525  12.131  14.047   8.267
72210SOL     OW18526  13.386   8.327  12.423
72210SOL    HW118527  13.432   8.364  12.498
72210SOL    HW218528  13.412   8.382  12.349
72211SOL     OW18529   5.799   1.377  11.276
72211SOL    HW118530   5.770   1.312  11.340
72211SOL    HW218531   5.877   1.416  11.316
72212SOL     OW18532   2.446  10.360   4.464
72212SOL    HW118533   2.437  10.456   4.465
72212SOL    HW218534   2.409  10.334   4.380
72213SOL     OW18535   1.237   7.890  11.785
72213SOL    HW118536   1.169   7.906  11.720
72213SOL    HW218537   1.284   7.973  11.793
72214SOL     OW18538  12.882  11.827  10.592
72214SOL    HW118539  12.938  11.761  10.551
72214SOL    HW218540  12.843  11.874  10.519
72215SOL     OW18541   4.345   3.488   1.534
72215SOL    HW118542   4.334   3.538   1.453
72215SOL    HW218543   4.423   3.435   1.519
72216SOL     OW18544  11.492   6.449   1.449
72216SOL    HW118545  11.409   6.477   1.489
72216SOL    HW218546  11.555   6.450   1.521
72217SOL     OW18547  13.709   8.223  10.479
72217SOL    HW118548  13.675   8.308  10.453
72217SOL    HW218549  13.632   8.166  10.480
72218SOL     OW18550   6.950  14.749   6.546
72218SOL    HW118551   6.991  14.832   6.572
72218SOL    HW218552   6.882  14.734   6.612
72219SOL     OW18553   8.293   5.427  10.581
72219SOL    HW118554   8.342   5.348  10.606
72219SOL    HW218555   8.287   5.421  10.485
72220SOL     OW18556   0.433  13.636  10.616
72220SOL    HW118557   0.472  13.682  10.690
72220SOL    HW218558   0.371  13.576  10.656
72221SOL     OW18559   4.462  11.227   3.532
72221SOL    HW118560   4.455  11.317   3.564
72221SOL    HW218561   4.541  11.227   3.478
72222SOL     OW18562   8.816  12.537   1.053
72222SOL    HW118563   8.775  12.592   1.120
72222SOL    HW218564   8.908  12.533   1.079
72223SOL     OW18565   1.735  13.877   8.206
72223SOL    HW118566   1.788  13.836   8.138
72223SOL    HW218567   1.647  13.844   8.190
72224SOL     OW18568   4.887   6.399   3.606
72224SOL    HW118569   4.942   6.331   3.646
72224SOL    HW218570   4.949   6.468   3.582
72225SOL     OW18571  14.858  11.198  12.782
72225SOL    HW118572  14.780  11.210  12.728
72225SOL    HW218573  14.852  11.108  12.815
72226SOL     OW18574  11.650  12.333   3.211
72226SOL    HW118575  11.640  12.332   3.306
72226SOL    HW218576  11.560  12.330   3.178
72227SOL     OW18577   5.810   5.745   3.737
72227SOL    HW118578   5.884   5.686   3.723
72227SOL    HW218579   5.828   5.820   3.680
72228SOL     OW18580  13.727  11.464  11.187
72228SOL    HW118581  13.663  11.465  11.258
72228SOL    HW218582  13.701  11.391  11.132
72229SOL     OW18583  13.841   9.077  10.867
72229SOL    HW118584  13.802   9.071  10.955
72229SOL    HW218585  13.933   9.052  10.879
72230SOL     OW18586   4.883   8.631  11.545
72230SOL    HW118587   4.864   8.635  11.452
72230SOL    HW218588   4.975   8.607  11.549
72231SOL     OW18589   0.426   1.023   5.651
72231SOL    HW118590   0.438   1.117   5.660
72231SOL    HW218591   0.400   0.994   5.739
72232SOL     OW18592   5.723   7.130   0.391
72232SOL    HW118593   5.762   7.071   0.327
72232SOL    HW218594   5.774   7.211   0.383
72233SOL     OW18595   0.894   2.975   6.419
72233SOL    HW118596   0.824   2.970   6.354
72233SOL    HW218597   0.962   2.917   6.385
72234SOL     OW18598  13.431   0.117   8.698
72234SOL    HW118599  13.464   0.188   8.752
72234SOL    HW218600  13.409   0.047   8.760
72235SOL     OW18601  13.804   5.359   3.380
72235SOL    HW118602  13.814   5.448   3.346
72235SOL    HW218603  13.713   5.352   3.407
72236SOL     OW18604   1.141   4.678   0.948
72236SOL    HW118605   1.112   4.602   0.898
72236SOL    HW218606   1.061   4.717   0.981
72237SOL     OW18607   6.277   9.440   9.021
72237SOL    HW118608   6.368   9.422   9.046
72237SOL    HW218609   6.240   9.484   9.097
72238SOL     OW18610  13.164   2.273   0.697
72238SOL    HW118611  13.125   2.260   0.611
72238SOL    HW218612  13.235   2.335   0.682
72239SOL     OW18613  10.544   0.424  10.261
72239SOL    HW118614  10.508   0.512  10.262
72239SOL    HW218615  10.543   0.399  10.168
72240SOL     OW18616   1.873  12.296   9.405
72240SOL    HW118617   1.919  12.333   9.480
72240SOL    HW218618   1.940  12.287   9.337
72241SOL     OW18619   2.460   5.928   0.030
72241SOL    HW118620   2.411   5.955   0.108
72241SOL    HW218621   2.400   5.871  14.870
72242SOL     OW18622  11.577  13.104   9.865
72242SOL    HW118623  11.508  13.083   9.802
72242SOL    HW218624  11.536  13.165   9.926
72243SOL     OW18625   6.721   7.021  11.423
72243SOL    HW118626   6.686   6.944  11.469
72243SOL    HW218627   6.770   7.069  11.490
72244SOL     OW18628   6.839   0.985  14.807
72244SOL    HW118629   6.774   0.927  14.768
72244SOL    HW218630   6.805   1.074  14.793
72245SOL     OW18631  10.682   9.342   9.285
72245SOL    HW118632  10.592   9.315   9.302
72245SOL    HW218633  10.733   9.261   9.288
72246SOL     OW18634   9.343   2.880   0.388
72246SOL    HW118635   9.253   2.850   0.378
72246SOL    HW218636   9.360   2.930   0.308
72247SOL     OW18637   6.125   5.708  13.082
72247SOL    HW118638   6.092   5.621  13.103
72247SOL    HW218639   6.091   5.764  13.152
72248SOL     OW18640   1.836  11.113   3.623
72248SOL    HW118641   1.829  11.120   3.718
72248SOL    HW218642   1.779  11.182   3.589
72249SOL     OW18643   5.413   1.633   8.582
72249SOL    HW118644   5.413   1.692   8.657
72249SOL    HW218645   5.473   1.563   8.607
72250SOL     OW18646   3.294   7.587   2.173
72250SOL    HW118647   3.209   7.563   2.138
72250SOL    HW218648   3.293   7.555   2.263
72251SOL     OW18649   3.334   4.716  10.681
72251SOL    HW118650   3.240   4.731  10.685
72251SOL    HW218651   3.369   4.795  10.640
72252SOL     OW18652  10.315  12.666   4.316
72252SOL    HW118653  10.303  12.590   4.258
72252SOL    HW218654  10.366  12.631   4.389
72253SOL     OW18655   2.328  14.844   9.467
72253SOL    HW118656   2.364  14.756   9.478
72253SOL    HW218657   2.349  14.867   9.377
72254SOL     OW18658   1.147   1.054   2.548
72254SOL    HW118659   1.126   1.002   2.625
72254SOL    HW218660   1.156   1.144   2.581
72255SOL     OW18661  14.777   1.512   8.761
72255SOL    HW118662  14.808   1.549   8.843
72255SOL    HW218663  14.694   1.469   8.783
72256SOL     OW18664  11.276   3.464  12.141
72256SOL    HW118665  11.237   3.550  12.154
72256SOL    HW218666  11.296   3.460  12.048
72257SOL     OW18667   5.299  12.152   8.590
72257SOL    HW118668   5.295  12.057   8.588
72257SOL    HW218669   5.252  12.177   8.669
72258SOL     OW18670   0.910  12.555   3.858
72258SOL    HW118671   0.851  12.581   3.929
72258SOL    HW218672   0.964  12.632   3.843
72259SOL     OW18673  13.049   4.338   8.524
72259SOL    HW118674  13.095   4.421   8.530
72259SOL    HW218675  13.062   4.309   8.434
72260SOL     OW18676   4.709   9.574   0.791
72260SOL    HW118677   4.789   9.530   0.760
72260SOL    HW218678   4.734   9.611   0.876
72261SOL     OW18679   1.498   4.633   4.706
72261SOL    HW118680   1.499   4.695   4.633
72261SOL    HW218681   1.491   4.547   4.665
72262SOL     OW18682  12.807   3.657   9.013
72262SOL    HW118683  12.860   3.580   9.033
72262SOL    HW218684  12.718   3.623   9.003
72263SOL     OW18685  11.239  12.189   5.186
72263SOL    HW118686  11.254  12.136   5.108
72263SOL    HW218687  11.235  12.279   5.154
72264SOL     OW18688   9.622   5.920   7.752
72264SOL    HW118689   9.579   5.927   7.667
72264SOL    HW218690   9.578   5.847   7.795
72265SOL     OW18691  13.262  14.318   6.569
72265SOL    HW118692  13.217  14.242   6.532
72265SOL    HW218693  13.343  14.282   6.607
72266SOL     OW18694  10.288   8.520   3.654
72266SOL    HW118695  10.308   8.471   3.733
72266SOL    HW218696  10.277   8.454   3.586
72267SOL     OW18697  11.316   7.085  14.623
72267SOL    HW118698  11.394   7.109  14.573
72267SOL    HW218699  11.307   7.153  14.689
72268SOL     OW18700   5.290  13.051  14.850
72268SOL    HW118701   5.338  13.127  14.882
72268SOL    HW218702   5.284  12.993   0.038
72269SOL     OW18703   4.664   7.690   8.743
72269SOL    HW118704   4.654   7.659   8.653
72269SOL    HW218705   4.723   7.626   8.784
72270SOL     OW18706   4.533   2.586   9.791
72270SOL    HW118707   4.618   2.613   9.825
72270SOL    HW218708   4.469   2.633   9.845
72271SOL     OW18709  13.718  10.994   9.665
72271SOL    HW118710  13.627  11.013   9.691
72271SOL    HW218711  13.724  10.899   9.669
72272SOL     OW18712  11.479   8.929  14.408
72272SOL    HW118713  11.551   8.984  14.440
72272SOL    HW218714  11.407   8.947  14.468
72273SOL     OW18715  12.188   7.998   9.812
72273SOL    HW118716  12.248   8.071   9.796
72273SOL    HW218717  12.104   8.027   9.776
72274SOL     OW18718   2.522   2.966   2.012
72274SOL    HW118719   2.471   2.950   1.933
72274SOL    HW218720   2.590   2.899   2.011
72275SOL     OW18721   1.965   9.860   3.999
72275SOL    HW118722   2.022   9.794   4.039
72275SOL    HW218723   2.014   9.942   4.006
72276SOL     OW18724  12.903   5.331  13.154
72276SOL    HW118725  12.854   5.394  13.101
72276SOL    HW218726  12.995   5.352  13.138
72277SOL     OW18727   7.583  10.805  12.397
72277SOL    HW118728   7.509  10.865  12.406
72277SOL    HW218729   7.566  10.737  12.463
72278SOL     OW18730   5.411  11.596   4.667
72278SOL    HW118731   5.394  11.507   4.697
72278SOL    HW218732   5.330  11.623   4.623
72279SOL     OW18733   2.118  12.866   8.711
72279SOL    HW118734   2.191  12.846   8.652
72279SOL    HW218735   2.153  12.934   8.769
72280SOL     OW18736  14.662   8.788   0.177
72280SOL    HW118737  14.702   8.714   0.132
72280SOL    HW218738  14.727   8.816   0.241
72281SOL     OW18739  11.992  10.061  11.258
72281SOL    HW118740  11.960   9.972  11.242
72281SOL    HW218741  12.067  10.050  11.316
72282SOL     OW18742  10.787   7.755  10.627
72282SOL    HW118743  10.713   7.704  10.660
72282SOL    HW218744  10.771   7.844  10.660
72283SOL     OW18745   1.292   1.613   3.086
72283SOL    HW118746   1.212   1.637   3.037
72283SOL    HW218747   1.270   1.631   3.177
72284SOL     OW18748  12.698  12.079   5.184
72284SOL    HW118749  12.739  12.086   5.098
72284SOL    HW218750  12.752  12.134   5.241
72285SOL     OW18751   1.420   8.158  12.591
72285SOL    HW118752   1.498   8.136  12.540
72285SOL    HW218753   1.402   8.079  12.642
72286SOL     OW18754  14.334   9.207  10.296
72286SOL    HW118755  14.408   9.199  10.235
72286SOL    HW218756  14.374   9.211  10.382
72287SOL     OW18757   6.994   3.513   4.710
72287SOL    HW118758   7.065   3.563   4.750
72287SOL    HW218759   6.982   3.438   4.768
72288SOL     OW18760  10.271   7.231   5.032
72288SOL    HW118761  10.215   7.191   4.965
72288SOL    HW218762  10.215   7.240   5.109
72289SOL     OW18763   8.231   7.311   2.548
72289SOL    HW118764   8.219   7.269   2.633
72289SOL    HW218765   8.257   7.240   2.489
72290SOL     OW18766   1.576  11.264   7.962
72290SOL    HW118767   1.599  11.315   8.039
72290SOL    HW218768   1.509  11.315   7.918
72291SOL     OW18769   7.749   6.223   1.333
72291SOL    HW118770   7.675   6.253   1.385
72291SOL    HW218771   7.714   6.215   1.244
72292SOL     OW18772   4.436   3.877  10.838
72292SOL    HW118773   4.370   3.824  10.883
72292SOL    HW218774   4.504   3.891  10.903
72293SOL     OW18775   3.267  10.834  10.659
72293SOL    HW118776   3.263  10.923  10.624
72293SOL    HW218777   3.225  10.780  10.591
72294SOL     OW18778   7.393   2.540   5.192
72294SOL    HW118779   7.361   2.510   5.277
72294SOL    HW218780   7.395   2.462   5.137
72295SOL     OW18781   6.700   8.084   3.155
72295SOL    HW118782   6.734   8.150   3.094
72295SOL    HW218783   6.770   8.073   3.220
72296SOL     OW18784   6.826   3.039  14.644
72296SOL    HW118785   6.852   3.064  14.732
72296SOL    HW218786   6.743   2.993  14.655
72297SOL     OW18787   6.398   0.422  13.323
72297SOL    HW118788   6.363   0.477  13.253
72297SOL    HW218789   6.321   0.386  13.367
72298SOL     OW18790   7.235   1.343  10.787
72298SOL    HW118791   7.180   1.406  10.741
72298SOL    HW218792   7.210   1.352  10.879
72299SOL     OW18793  13.025   3.732  14.086
72299SOL    HW118794  13.079   3.764  14.158
72299SOL    HW218795  12.935   3.734  14.119
72300SOL     OW18796   3.518   8.441   3.578
72300SOL    HW118797   3.510   8.533   3.552
72300SOL    HW218798   3.601   8.412   3.540
72301SOL     OW18799   2.584  11.186   4.615
72301SOL    HW118800   2.608  11.279   4.617
72301SOL    HW218801   2.581  11.164   4.522
72302SOL     OW18802   3.744   8.762  10.207
72302SOL    HW118803   3.806   8.797  10.143
72302SOL    HW218804   3.664   8.746  10.158
72303SOL     OW18805   4.490   5.429   7.505
72303SOL    HW118806   4.537   5.500   7.460
72303SOL    HW218807   4.520   5.435   7.596
72304SOL     OW18808   1.004   2.872  14.326
72304SOL    HW118809   1.021   2.812  14.398
72304SOL    HW218810   1.091   2.897  14.295
72305SOL     OW18811   2.833  11.252   7.295
72305SOL    HW118812   2.757  11.205   7.330
72305SOL    HW218813   2.893  11.259   7.369
72306SOL     OW18814   0.849  14.461   7.299
72306SOL    HW118815   0.898  14.481   7.220
72306SOL    HW218816   0.878  14.373   7.323
72307SOL     OW18817   5.243   3.509  11.351
72307SOL    HW118818   5.285   3.578  11.402
72307SOL    HW218819   5.306   3.488  11.282
72308SOL     OW18820   7.495  11.958   5.607
72308SOL    HW118821   7.443  11.878   5.597
72308SOL    HW218822   7.563  11.951   5.540
72309SOL     OW18823   5.736   7.323   1.349
72309SOL    HW118824   5.675   7.317   1.422
72309SOL    HW218825   5.807   7.263   1.371
72310SOL     OW18826   0.138   7.286   5.378
72310SOL    HW118827   0.181   7.310   5.296
72310SOL    HW218828   0.203   7.231   5.423
72311SOL     OW18829  10.652   0.222   7.265
72311SOL    HW118830  10.666   0.316   7.252
72311SOL    HW218831  10.621   0.191   7.180
72312SOL     OW18832   6.074  11.202   3.647
72312SOL    HW118833   6.068  11.283   3.595
72312SOL    HW218834   6.121  11.227   3.726
72313SOL     OW18835   3.178  11.739  11.444
72313SOL    HW118836   3.196  11.707  11.533
72313SOL    HW218837   3.252  11.708  11.392
72314SOL     OW18838   6.371   6.456   9.208
72314SOL    HW118839   6.333   6.393   9.146
72314SOL    HW218840   6.316   6.534   9.198
72315SOL     OW18841  13.925   9.462   0.902
72315SOL    HW118842  13.857   9.519   0.865
72315SOL    HW218843  13.963   9.418   0.826
72316SOL     OW18844   3.924  14.397   5.360
72316SOL    HW118845   3.875  14.336   5.303
72316SOL    HW218846   4.015  14.383   5.336
72317SOL     OW18847   7.704   4.170   5.004
72317SOL    HW118848   7.623   4.173   5.055
72317SOL    HW218849   7.693   4.096   4.945
72318SOL     OW18850   3.642  11.441   7.300
72318SOL    HW118851   3.705  11.489   7.353
72318SOL    HW218852   3.659  11.349   7.318
72319SOL     OW18853   1.359   1.376  10.746
72319SOL    HW118854   1.271   1.353  10.715
72319SOL    HW218855   1.409   1.295  10.739
72320SOL     OW18856  14.394  14.876  13.332
72320SOL    HW118857  14.395   0.067  13.388
72320SOL    HW218858  14.307  14.839  13.346
72321SOL     OW18859  13.891  12.090   1.523
72321SOL    HW118860  13.848  12.100   1.608
72321SOL    HW218861  13.830  12.038   1.471
72322SOL     OW18862   4.058  10.052   8.584
72322SOL    HW118863   4.066  10.052   8.488
72322SOL    HW218864   4.133  10.000   8.614
72323SOL     OW18865  14.776   3.141   3.769
72323SOL    HW118866  14.798   3.229   3.799
72323SOL    HW218867  14.734   3.154   3.684
72324SOL     OW18868  11.045   5.862   5.124
72324SOL    HW118869  11.049   5.768   5.105
72324SOL    HW218870  11.135   5.892   5.114
72325SOL     OW18871  10.465   6.942   2.372
72325SOL    HW118872  10.394   6.952   2.309
72325SOL    HW218873  10.422   6.915   2.453
72326SOL     OW18874   9.866   1.579   9.583
72326SOL    HW118875   9.890   1.513   9.518
72326SOL    HW218876   9.775   1.599   9.565
72327SOL     OW18877   9.726   8.717   0.436
72327SOL    HW118878   9.680   8.754   0.361
72327SOL    HW218879   9.803   8.773   0.448
72328SOL     OW18880   0.544   2.823  13.281
72328SOL    HW118881   0.616   2.790  13.227
72328SOL    HW218882   0.565   2.796  13.370
72329SOL     OW18883  13.958   6.036   0.828
72329SOL    HW118884  13.909   5.962   0.792
72329SOL    HW218885  13.893   6.106   0.836
72330SOL     OW18886   1.518   0.411   3.943
72330SOL    HW118887   1.524   0.317   3.931
72330SOL    HW218888   1.585   0.431   4.009
72331SOL     OW18889   2.122  11.144   8.637
72331SOL    HW118890   2.111  11.110   8.726
72331SOL    HW218891   2.034  11.169   8.610
72332SOL     OW18892  11.686  14.327   8.919
72332SOL    HW118893  11.734  14.410   8.920
72332SOL    HW218894  11.629  14.333   8.843
72333SOL     OW18895  12.199   2.560  10.281
72333SOL    HW118896  12.281   2.609  10.270
72333SOL    HW218897  12.161   2.555  10.194
72334SOL     OW18898  12.070  11.957  10.923
72334SOL    HW118899  12.160  11.989  10.927
72334SOL    HW218900  12.024  12.020  10.867
72335SOL     OW18901   0.718   3.786   5.115
72335SOL    HW118902   0.741   3.878   5.127
72335SOL    HW218903   0.678   3.783   5.028
72336SOL     OW18904   5.791  14.086   3.035
72336SOL    HW118905   5.709  14.088   2.986
72336SOL    HW218906   5.782  14.155   3.100
72337SOL     OW18907   2.916   5.898  13.589
72337SOL    HW118908   2.957   5.893  13.676
72337SOL    HW218909   2.873   5.984  13.588
72338SOL     OW18910  13.691   0.103  12.677
72338SOL    HW118911  13.657   0.023  12.718
72338SOL    HW218912  13.648   0.174  12.723
72339SOL     OW18913  11.748   5.254   9.653
72339SOL    HW118914  11.762   5.302   9.572
72339SOL    HW218915  11.826   5.199   9.662
72340SOL     OW18916  12.588   7.862  14.675
72340SOL    HW118917  12.575   7.854  14.769
72340SOL    HW218918  12.590   7.772  14.642
72341SOL     OW18919  14.233  10.703   8.904
72341SOL    HW118920  14.271  10.704   8.817
72341SOL    HW218921  14.285  10.766   8.954
72342SOL     OW18922   1.113   3.515  11.788
72342SOL    HW118923   1.103   3.582  11.721
72342SOL    HW218924   1.183   3.459  11.756
72343SOL     OW18925  10.191   3.627   6.896
72343SOL    HW118926  10.285   3.612   6.899
72343SOL    HW218927  10.161   3.609   6.986
72344SOL     OW18928  14.075  13.583   4.806
72344SOL    HW118929  14.094  13.671   4.774
72344SOL    HW218930  14.157  13.535   4.793
72345SOL     OW18931   6.720  13.750   0.692
72345SOL    HW118932   6.780  13.716   0.758
72345SOL    HW218933   6.688  13.832   0.728
72346SOL     OW18934   2.944   9.904   2.216
72346SOL    HW118935   2.954   9.942   2.303
72346SOL    HW218936   2.871   9.843   2.224
72347SOL     OW18937   1.846  12.512   8.590
72347SOL    HW118938   1.822  12.431   8.635
72347SOL    HW218939   1.891  12.564   8.656
72348SOL     OW18940   0.663   3.710   1.152
72348SOL    HW118941   0.653   3.638   1.090
72348SOL    HW218942   0.634   3.675   1.236
72349SOL     OW18943   8.244   4.439   5.104
72349SOL    HW118944   8.266   4.530   5.124
72349SOL    HW218945   8.326   4.400   5.076
72350SOL     OW18946   1.369  12.972   8.543
72350SOL    HW118947   1.436  12.965   8.610
72350SOL    HW218948   1.316  12.893   8.553
72351SOL     OW18949  11.549  14.682   3.466
72351SOL    HW118950  11.460  14.717   3.461
72351SOL    HW218951  11.548  14.604   3.412
72352SOL     OW18952   7.326   9.026   0.744
72352SOL    HW118953   7.409   8.982   0.757
72352SOL    HW218954   7.348   9.109   0.701
72353SOL     OW18955  13.236  12.859  12.597
72353SOL    HW118956  13.296  12.928  12.626
72353SOL    HW218957  13.294  12.788  12.569
72354SOL     OW18958   3.150   9.374  14.391
72354SOL    HW118959   3.127   9.350  14.481
72354SOL    HW218960   3.070   9.357  14.341
72355SOL     OW18961   3.198  11.863  13.867
72355SOL    HW118962   3.223  11.951  13.893
72355SOL    HW218963   3.143  11.831  13.938
72356SOL     OW18964   5.411  13.528   5.801
72356SOL    HW118965   5.501  13.496   5.796
72356SOL    HW218966   5.400  13.553   5.893
72357SOL     OW18967  11.403   4.485   0.933
72357SOL    HW118968  11.425   4.392   0.927
72357SOL    HW218969  11.323   4.493   0.882
72358SOL     OW18970  14.712   7.612  11.820
72358SOL    HW118971  14.807   7.618  11.824
72358SOL    HW218972  14.682   7.703  11.813
72359SOL     OW18973   0.656  13.006  13.911
72359SOL    HW118974   0.615  13.082  13.952
72359SOL    HW218975   0.687  13.037  13.826
72360SOL     OW18976  12.706   5.364  12.818
72360SOL    HW118977  12.711   5.446  12.867
72360SOL    HW218978  12.680   5.299  12.882
72361SOL     OW18979  12.013   2.621  10.485
72361SOL    HW118980  11.947   2.553  10.473
72361SOL    HW218981  12.077   2.606  10.416
72362SOL     OW18982   4.960   9.532  14.040
72362SOL    HW118983   4.873   9.497  14.023
72362SOL    HW218984   5.009   9.459  14.078
72363SOL     OW18985   9.307  12.168   0.984
72363SOL    HW118986   9.300  12.072   0.981
72363SOL    HW218987   9.342  12.191   0.897
72364SOL     OW18988  13.587  14.294   5.865
72364SOL    HW118989  13.621  14.383   5.870
72364SOL    HW218990  13.492  14.304   5.860
72365SOL     OW18991  10.897  11.833   8.513
72365SOL    HW118992  10.976  11.801   8.469
72365SOL    HW218993  10.877  11.765   8.578
72366SOL     OW18994   5.902   7.992   7.807
72366SOL    HW118995   5.914   8.022   7.718
72366SOL    HW218996   5.982   7.944   7.828
72367SOL     OW18997   4.124  11.038   6.312
72367SOL    HW118998   4.047  11.038   6.370
72367SOL    HW218999   4.197  11.059   6.370
72368SOL     OW19000   1.976   8.089   4.606
72368SOL    HW119001   1.972   8.000   4.571
72368SOL    HW219002   1.891   8.101   4.648
72369SOL     OW19003   1.976  13.491   7.791
72369SOL    HW119004   2.060  13.524   7.822
72369SOL    HW219005   1.939  13.445   7.866
72370SOL     OW19006  12.945  11.707   6.518
72370SOL    HW119007  12.872  11.652   6.544
72370SOL    HW219008  13.010  11.695   6.588
72371SOL     OW19009   5.568  13.971   1.019
72371SOL    HW119010   5.514  14.049   1.026
72371SOL    HW219011   5.658  14.003   1.025
72372SOL     OW19012  14.109   9.924   8.004
72372SOL    HW119013  14.105   9.865   8.079
72372SOL    HW219014  14.202   9.942   7.992
72373SOL     OW19015  13.149   6.605  11.612
72373SOL    HW119016  13.099   6.639  11.686
72373SOL    HW219017  13.226   6.662  11.607
72374SOL     OW19018   6.160   1.946   6.023
72374SOL    HW119019   6.246   1.908   6.004
72374SOL    HW219020   6.135   1.910   6.108
72375SOL     OW19021   1.735   1.424  12.216
72375SOL    HW119022   1.734   1.335  12.251
72375SOL    HW219023   1.695   1.477  12.284
72376SOL     OW19024  12.894   3.416   4.942
72376SOL    HW119025  12.801   3.407   4.922
72376SOL    HW219026  12.900   3.493   4.998
72377SOL     OW19027   5.064   0.633   4.435
72377SOL    HW119028   5.154   0.663   4.449
72377SOL    HW219029   5.041   0.668   4.349
72378SOL     OW19030  11.966  10.817   1.306
72378SOL    HW119031  11.984  10.750   1.241
72378SOL    HW219032  11.904  10.876   1.263
72379SOL     OW19033   8.511   5.548   2.926
72379SOL    HW119034   8.458   5.577   3.000
72379SOL    HW219035   8.458   5.481   2.883
72380SOL     OW19036   4.905   4.007  11.157
72380SOL    HW119037   4.843   3.993  11.229
72380SOL    HW219038   4.876   4.088  11.116
72381SOL     OW19039   4.480   7.258   8.306
72381SOL    HW119040   4.503   7.215   8.224
72381SOL    HW219041   4.387   7.280   8.296
72382SOL     OW19042   4.225   7.930   8.590
72382SOL    HW119043   4.273   7.999   8.544
72382SOL    HW219044   4.287   7.897   8.655
72383SOL     OW19045   9.746  10.391   7.069
72383SOL    HW119046   9.824  10.411   7.119
72383SOL    HW219047   9.776  10.334   6.998
72384SOL     OW19048   1.957   1.589   5.870
72384SOL    HW119049   2.052   1.587   5.882
72384SOL    HW219050   1.946   1.615   5.778
72385SOL     OW19051   3.404  12.805  12.867
72385SOL    HW119052   3.311  12.785  12.876
72385SOL    HW219053   3.445  12.720  12.847
72386SOL     OW19054  10.563  12.551   9.204
72386SOL    HW119055  10.650  12.555   9.165
72386SOL    HW219056  10.516  12.488   9.149
72387SOL     OW19057   3.855   5.861  11.431
72387SOL    HW119058   3.837   5.795  11.364
72387SOL    HW219059   3.800   5.935  11.407
72388SOL     OW19060   7.418   4.348   4.489
72388SOL    HW119061   7.514   4.342   4.488
72388SOL    HW219062   7.392   4.296   4.565
72389SOL     OW19063   2.682   2.451   8.709
72389SOL    HW119064   2.672   2.542   8.734
72389SOL    HW219065   2.637   2.402   8.777
72390SOL     OW19066   3.388   5.766   5.705
72390SOL    HW119067   3.386   5.679   5.666
72390SOL    HW219068   3.444   5.757   5.782
72391SOL     OW19069  13.047   9.566  11.410
72391SOL    HW119070  13.018   9.476  11.425
72391SOL    HW219071  13.016   9.588  11.322
72392SOL     OW19072  10.792   4.582  12.972
72392SOL    HW119073  10.737   4.521  12.923
72392SOL    HW219074  10.737   4.658  12.987
72393SOL     OW19075   8.165   4.656   1.848
72393SOL    HW119076   8.125   4.740   1.874
72393SOL    HW219077   8.156   4.654   1.753
72394SOL     OW19078   4.339   6.708   0.959
72394SOL    HW119079   4.311   6.794   0.926
72394SOL    HW219080   4.345   6.653   0.881
72395SOL     OW19081  13.500   9.078   2.611
72395SOL    HW119082  13.458   9.152   2.655
72395SOL    HW219083  13.430   9.037   2.560
72396SOL     OW19084  11.806   2.096   3.025
72396SOL    HW119085  11.773   2.143   2.949
72396SOL    HW219086  11.792   2.156   3.099
72397SOL     OW19087  11.347   2.194   9.117
72397SOL    HW119088  11.390   2.163   9.038
72397SOL    HW219089  11.286   2.261   9.087
72398SOL     OW19090  11.613   4.925   0.873
72398SOL    HW119091  11.697   4.960   0.843
72398SOL    HW219092  11.621   4.830   0.861
72399SOL     OW19093  14.360   5.194   3.643
72399SOL    HW119094  14.295   5.249   3.600
72399SOL    HW219095  14.408   5.253   3.701
72400SOL     OW19096   9.327   8.169  14.235
72400SOL    HW119097   9.386   8.098  14.210
72400SOL    HW219098   9.298   8.206  14.152
72401SOL     OW19099   1.055  11.974   4.165
72401SOL    HW119100   1.020  12.033   4.098
72401SOL    HW219101   1.046  12.023   4.247
72402SOL     OW19102   7.994   2.308   8.783
72402SOL    HW119103   8.008   2.214   8.772
72402SOL    HW219104   8.041   2.331   8.863
72403SOL     OW19105  13.830   4.168  12.352
72403SOL    HW119106  13.866   4.100  12.296
72403SOL    HW219107  13.735   4.159  12.342
72404SOL     OW19108   8.557  13.014   3.467
72404SOL    HW119109   8.587  12.924   3.480
72404SOL    HW219110   8.637  13.066   3.466
72405SOL     OW19111   4.637  12.827   6.144
72405SOL    HW119112   4.658  12.738   6.115
72405SOL    HW219113   4.620  12.874   6.063
72406SOL     OW19114  12.843  11.473   4.103
72406SOL    HW119115  12.899  11.515   4.038
72406SOL    HW219116  12.801  11.545   4.149
72407SOL     OW19117  13.478   9.889   0.069
72407SOL    HW119118  13.555   9.850   0.026
72407SOL    HW219119  13.509   9.975   0.098
72408SOL     OW19120  14.702   2.372   3.915
72408SOL    HW119121  14.652   2.448   3.886
72408SOL    HW219122  14.749   2.402   3.992
72409SOL     OW19123   6.904   3.014   3.307
72409SOL    HW119124   6.834   2.994   3.245
72409SOL    HW219125   6.970   3.059   3.254
72410SOL     OW19126   0.472   9.823   3.990
72410SOL    HW119127   0.518   9.743   4.016
72410SOL    HW219128   0.488   9.830   3.896
72411SOL     OW19129   0.047  14.580   5.787
72411SOL    HW119130   0.108  14.520   5.830
72411SOL    HW219131   0.102  14.649   5.750
72412SOL     OW19132   1.015   7.223   7.565
72412SOL    HW119133   1.100   7.180   7.556
72412SOL    HW219134   0.959   7.176   7.502
72413SOL     OW19135  13.273   3.062   7.538
72413SOL    HW119136  13.234   3.144   7.508
72413SOL    HW219137  13.344   3.045   7.476
72414SOL     OW19138   7.616   3.960   8.789
72414SOL    HW119139   7.685   3.893   8.786
72414SOL    HW219140   7.641   4.021   8.719
72415SOL     OW19141   8.676  10.003   7.816
72415SOL    HW119142   8.705  10.089   7.846
72415SOL    HW219143   8.582  10.003   7.831
72416SOL     OW19144  10.762   6.281  12.996
72416SOL    HW119145  10.783   6.329  13.077
72416SOL    HW219146  10.740   6.193  13.025
72417SOL     OW19147  12.350   9.826   3.688
72417SOL    HW119148  12.415   9.832   3.618
72417SOL    HW219149  12.310   9.740   3.676
72418SOL     OW19150   8.050   2.265  13.332
72418SOL    HW119151   8.034   2.233  13.243
72418SOL    HW219152   8.145   2.266  13.340
72419SOL     OW19153   3.911   2.454   1.615
72419SOL    HW119154   3.817   2.451   1.601
72419SOL    HW219155   3.921   2.486   1.705
72420SOL     OW19156  12.639   1.044  10.672
72420SOL    HW119157  12.585   0.975  10.710
72420SOL    HW219158  12.728   1.022  10.697
72421SOL     OW19159   0.089  14.239   4.680
72421SOL    HW119160   0.138  14.184   4.741
72421SOL    HW219161   0.003  14.198   4.674
72422SOL     OW19162   7.605   4.850   7.682
72422SOL    HW119163   7.541   4.908   7.641
72422SOL    HW219164   7.689   4.893   7.669
72423SOL     OW19165   1.296   6.878   5.241
72423SOL    HW119166   1.255   6.936   5.177
72423SOL    HW219167   1.226   6.818   5.267
72424SOL     OW19168  14.519  14.241   5.726
72424SOL    HW119169  14.544  14.250   5.634
72424SOL    HW219170  14.457  14.168   5.727
72425SOL     OW19171  14.879  11.050   6.364
72425SOL    HW119172  14.832  10.988   6.308
72425SOL    HW219173  14.811  11.090   6.418
72426SOL     OW19174   7.521  11.746  13.726
72426SOL    HW119175   7.499  11.697  13.647
72426SOL    HW219176   7.439  11.789  13.750
72427SOL     OW19177   9.389   1.352  10.158
72427SOL    HW119178   9.481   1.356  10.182
72427SOL    HW219179   9.343   1.341  10.241
72428SOL     OW19180   8.541   5.918   5.920
72428SOL    HW119181   8.446   5.913   5.930
72428SOL    HW219182   8.567   5.995   5.972
72429SOL     OW19183   6.010   0.096   7.343
72429SOL    HW119184   5.991   0.096   7.249
72429SOL    HW219185   5.982   0.009   7.373
72430SOL     OW19186   9.287   4.999   1.197
72430SOL    HW119187   9.207   4.964   1.235
72430SOL    HW219188   9.349   5.001   1.270
72431SOL     OW19189  10.867   4.583  10.641
72431SOL    HW119190  10.959   4.562  10.657
72431SOL    HW219191  10.829   4.500  10.612
72432SOL     OW19192  10.571   9.855  10.578
72432SOL    HW119193  10.594   9.836  10.487
72432SOL    HW219194  10.654   9.849  10.625
72433SOL     OW19195   1.299  10.407   6.911
72433SOL    HW119196   1.296  10.319   6.873
72433SOL    HW219197   1.392  10.422   6.929
72434SOL     OW19198   5.969   0.782   0.133
72434SOL    HW119199   5.992   0.765   0.041
72434SOL    HW219200   5.878   0.813   0.129
72435SOL     OW19201   3.621   5.524   2.491
72435SOL    HW119202   3.634   5.592   2.425
72435SOL    HW219203   3.688   5.541   2.557
72436SOL     OW19204   9.127  11.602   3.805
72436SOL    HW119205   9.096  11.611   3.895
72436SOL    HW219206   9.222  11.592   3.813
72437SOL     OW19207   2.925   8.159   9.880
72437SOL    HW119208   2.842   8.113   9.886
72437SOL    HW219209   2.966   8.146   9.966
72438SOL     OW19210  11.173  12.049   0.344
72438SOL    HW119211  11.078  12.060   0.352
72438SOL    HW219212  11.205  12.133   0.312
72439SOL     OW19213   7.083   4.937   2.412
72439SOL    HW119214   7.086   4.895   2.498
72439SOL    HW219215   7.016   4.889   2.363
72440SOL     OW19216   8.429  12.452   3.416
72440SOL    HW119217   8.371  12.459   3.492
72440SOL    HW219218   8.373  12.472   3.341
72441SOL     OW19219   8.725  12.881   8.492
72441SOL    HW119220   8.769  12.956   8.452
72441SOL    HW219221   8.689  12.832   8.419
72442SOL     OW19222   3.376   9.301   9.034
72442SOL    HW119223   3.358   9.215   9.072
72442SOL    HW219224   3.308   9.358   9.069
72443SOL     OW19225   9.479   6.876   0.101
72443SOL    HW119226   9.540   6.936   0.144
72443SOL    HW219227   9.466   6.914   0.014
72444SOL     OW19228  11.101   3.680   2.475
72444SOL    HW119229  11.076   3.727   2.554
72444SOL    HW219230  11.194   3.700   2.463
72445SOL     OW19231  12.100   2.528  12.127
72445SOL    HW119232  12.153   2.593  12.080
72445SOL    HW219233  12.025   2.513  12.069
72446SOL     OW19234   4.746   3.577   7.888
72446SOL    HW119235   4.651   3.583   7.901
72446SOL    HW219236   4.756   3.515   7.816
72447SOL     OW19237   1.107  11.277   5.922
72447SOL    HW119238   1.196  11.287   5.957
72447SOL    HW219239   1.050  11.285   5.998
72448SOL     OW19240   4.801   2.233   7.824
72448SOL    HW119241   4.738   2.226   7.752
72448SOL    HW219242   4.748   2.224   7.904
72449SOL     OW19243   5.277   4.448  12.107
72449SOL    HW119244   5.336   4.374  12.122
72449SOL    HW219245   5.199   4.410  12.068
72450SOL     OW19246   3.237   2.865  14.670
72450SOL    HW119247   3.315   2.910  14.639
72450SOL    HW219248   3.164   2.922  14.645
72451SOL     OW19249   4.245  11.777   0.259
72451SOL    HW119250   4.307  11.844   0.291
72451SOL    HW219251   4.297  11.723   0.200
72452SOL     OW19252   8.018  13.657   3.628
72452SOL    HW119253   8.065  13.723   3.680
72452SOL    HW219254   8.086  13.619   3.572
72453SOL     OW19255   8.727  13.967   7.964
72453SOL    HW119256   8.745  14.030   7.895
72453SOL    HW219257   8.701  13.887   7.917
72454SOL     OW19258  10.267   8.493  13.222
72454SOL    HW119259  10.239   8.402  13.232
72454SOL    HW219260  10.243   8.516  13.132
72455SOL     OW19261   2.006   1.034   4.617
72455SOL    HW119262   1.945   1.028   4.691
72455SOL    HW219263   2.028   0.944   4.596
72456SOL     OW19264   9.808   5.940   8.281
72456SOL    HW119265   9.735   5.965   8.338
72456SOL    HW219266   9.886   5.950   8.335
72457SOL     OW19267   8.247  11.952   8.848
72457SOL    HW119268   8.164  11.995   8.826
72457SOL    HW219269   8.269  11.986   8.935
72458SOL     OW19270   2.126   9.945   1.839
72458SOL    HW119271   2.085   9.859   1.849
72458SOL    HW219272   2.195   9.946   1.905
72459SOL     OW19273   8.223   4.390   1.087
72459SOL    HW119274   8.204   4.478   1.056
72459SOL    HW219275   8.140   4.344   1.082
72460SOL     OW19276  12.255   1.875   8.313
72460SOL    HW119277  12.272   1.821   8.236
72460SOL    HW219278  12.205   1.949   8.279
72461SOL     OW19279   8.572   2.962  14.487
72461SOL    HW119280   8.528   3.047  14.479
72461SOL    HW219281   8.521   2.914  14.552
72462SOL     OW19282   2.214  10.823   0.415
72462SOL    HW119283   2.283  10.758   0.427
72462SOL    HW219284   2.245  10.901   0.462
72463SOL     OW19285  14.046  14.851   6.971
72463SOL    HW119286  13.973   0.006   6.925
72463SOL    HW219287  14.124   0.007   6.937
72464SOL     OW19288   0.785   5.363   3.020
72464SOL    HW119289   0.865   5.405   3.052
72464SOL    HW219290   0.816   5.289   2.968
72465SOL     OW19291   9.579   3.255   0.945
72465SOL    HW119292   9.549   3.345   0.936
72465SOL    HW219293   9.675   3.262   0.948
72466SOL     OW19294  13.986   4.009   8.184
72466SOL    HW119295  14.023   4.030   8.270
72466SOL    HW219296  14.001   4.088   8.132
72467SOL     OW19297   1.826  12.820  10.345
72467SOL    HW119298   1.734  12.846  10.337
72467SOL    HW219299   1.860  12.823  10.255
72468SOL     OW19300   4.130  13.905   3.637
72468SOL    HW119301   4.159  13.923   3.727
72468SOL    HW219302   4.171  13.973   3.584
72469SOL     OW19303  14.246   7.393   7.319
72469SOL    HW119304  14.183   7.451   7.277
72469SOL    HW219305  14.192   7.330   7.367
72470SOL     OW19306   6.129  11.124   0.067
72470SOL    HW119307   6.042  11.150   0.099
72470SOL    HW219308   6.190  11.161   0.132
72471SOL     OW19309  13.318   3.740  13.243
72471SOL    HW119310  13.385   3.783  13.190
72471SOL    HW219311  13.257   3.810  13.266
72472SOL     OW19312   4.213   9.246   8.463
72472SOL    HW119313   4.274   9.292   8.407
72472SOL    HW219314   4.165   9.187   8.404
72473SOL     OW19315  12.404   3.946  12.300
72473SOL    HW119316  12.404   4.042  12.300
72473SOL    HW219317  12.385   3.923  12.209
72474SOL     OW19318   2.560  13.630  10.151
72474SOL    HW119319   2.649  13.608  10.179
72474SOL    HW219320   2.538  13.708  10.201
72475SOL     OW19321  12.263  11.961   3.473
72475SOL    HW119322  12.171  11.953   3.447
72475SOL    HW219323  12.273  11.899   3.546
72476SOL     OW19324  13.684   7.204   5.532
72476SOL    HW119325  13.633   7.211   5.613
72476SOL    HW219326  13.754   7.268   5.542
72477SOL     OW19327  14.360   1.552  10.220
72477SOL    HW119328  14.358   1.552  10.124
72477SOL    HW219329  14.447   1.586  10.241
72478SOL     OW19330   5.319   3.681  13.449
72478SOL    HW119331   5.339   3.761  13.498
72478SOL    HW219332   5.396   3.625  13.461
72479SOL     OW19333   7.073   5.623   0.784
72479SOL    HW119334   7.030   5.539   0.797
72479SOL    HW219335   7.102   5.649   0.872
72480SOL     OW19336  13.203  13.912  11.054
72480SOL    HW119337  13.263  13.865  10.996
72480SOL    HW219338  13.138  13.950  10.996
72481SOL     OW19339   6.646   9.144   8.516
72481SOL    HW119340   6.637   9.227   8.563
72481SOL    HW219341   6.712   9.161   8.449
72482SOL     OW19342  12.966   5.581   6.329
72482SOL    HW119343  12.890   5.635   6.350
72482SOL    HW219344  12.972   5.584   6.234
72483SOL     OW19345   9.474  13.175   7.059
72483SOL    HW119346   9.478  13.230   6.981
72483SOL    HW219347   9.427  13.228   7.123
72484SOL     OW19348   3.272   7.919   5.641
72484SOL    HW119349   3.196   7.877   5.683
72484SOL    HW219350   3.279   7.875   5.557
72485SOL     OW19351   8.850   6.066  14.312
72485SOL    HW119352   8.912   6.089  14.243
72485SOL    HW219353   8.826   5.975  14.294
72486SOL     OW19354   4.201   3.509  11.851
72486SOL    HW119355   4.111   3.483  11.870
72486SOL    HW219356   4.199   3.537  11.760
72487SOL     OW19357   9.251  12.924   2.088
72487SOL    HW119358   9.267  13.018   2.075
72487SOL    HW219359   9.221  12.894   2.002
72488SOL     OW19360   2.725   8.233   7.168
72488SOL    HW119361   2.731   8.284   7.249
72488SOL    HW219362   2.815   8.228   7.137
72489SOL     OW19363   3.995   2.633   4.009
72489SOL    HW119364   4.004   2.624   4.103
72489SOL    HW219365   4.080   2.606   3.974
72490SOL     OW19366  11.768   9.468   7.723
72490SOL    HW119367  11.742   9.455   7.814
72490SOL    HW219368  11.754   9.383   7.682
72491SOL     OW19369   2.963   9.232   8.457
72491SOL    HW119370   2.880   9.264   8.493
72491SOL    HW219371   2.969   9.142   8.489
72492SOL     OW19372  10.762   5.329   2.568
72492SOL    HW119373  10.809   5.259   2.613
72492SOL    HW219374  10.703   5.284   2.507
72493SOL     OW19375  11.396  14.812   5.582
72493SOL    HW119376  11.307  14.838   5.557
72493SOL    HW219377  11.386  14.725   5.620
72494SOL     OW19378  10.568   8.321  10.615
72494SOL    HW119379  10.633   8.366  10.563
72494SOL    HW219380  10.617   8.281  10.687
72495SOL     OW19381   0.814   4.599   1.694
72495SOL    HW119382   0.903   4.576   1.719
72495SOL    HW219383   0.818   4.612   1.599
72496SOL     OW19384   1.785   9.596   5.950
72496SOL    HW119385   1.814   9.602   5.859
72496SOL    HW219386   1.714   9.660   5.956
72497SOL     OW19387  12.329   0.916   8.940
72497SOL    HW119388  12.260   0.864   8.982
72497SOL    HW219389  12.410   0.888   8.983
72498SOL     OW19390   3.200   4.580   0.510
72498SOL    HW119391   3.232   4.510   0.568
72498SOL    HW219392   3.107   4.588   0.531
72499SOL     OW19393   3.321   8.607   8.368
72499SOL    HW119394   3.281   8.677   8.316
72499SOL    HW219395   3.415   8.617   8.353
72500SOL     OW19396  13.807   2.852  10.185
72500SOL    HW119397  13.901   2.844  10.198
72500SOL    HW219398  13.797   2.930  10.130
72501SOL     OW19399   4.459   7.132   3.445
72501SOL    HW119400   4.468   7.060   3.507
72501SOL    HW219401   4.364   7.140   3.432
72502SOL     OW19402  11.199   9.291   1.065
72502SOL    HW119403  11.293   9.304   1.080
72502SOL    HW219404  11.166   9.254   1.147
72503SOL     OW19405   6.249   7.849   8.909
72503SOL    HW119406   6.302   7.808   8.977
72503SOL    HW219407   6.287   7.819   8.827
72504SOL     OW19408   0.191   1.126   6.305
72504SOL    HW119409   0.201   1.173   6.388
72504SOL    HW219410   0.098   1.107   6.299
72505SOL     OW19411   9.691   1.184   9.301
72505SOL    HW119412   9.726   1.272   9.317
72505SOL    HW219413   9.764   1.136   9.263
72506SOL     OW19414  11.613  10.535   5.917
72506SOL    HW119415  11.549  10.516   5.848
72506SOL    HW219416  11.607  10.461   5.976
72507SOL     OW19417   0.503   4.914   3.393
72507SOL    HW119418   0.414   4.890   3.416
72507SOL    HW219419   0.558   4.864   3.453
72508SOL     OW19420   9.324   9.944  12.527
72508SOL    HW119421   9.402   9.966  12.476
72508SOL    HW219422   9.303   9.854  12.501
72509SOL     OW19423   1.511  12.466   9.618
72509SOL    HW119424   1.551  12.489   9.535
72509SOL    HW219425   1.585  12.442   9.675
72510SOL     OW19426   7.159   6.162   1.994
72510SOL    HW119427   7.091   6.184   2.057
72510SOL    HW219428   7.241   6.170   2.043
72511SOL     OW19429   8.762  12.005  13.947
72511SOL    HW119430   8.816  12.031  13.872
72511SOL    HW219431   8.710  12.083  13.967
72512SOL     OW19432   7.971   8.645  11.342
72512SOL    HW119433   7.910   8.678  11.408
72512SOL    HW219434   8.046   8.703  11.348
72513SOL     OW19435   5.383  10.490   8.885
72513SOL    HW119436   5.297  10.530   8.870
72513SOL    HW219437   5.442  10.564   8.899
72514SOL     OW19438   1.079  10.571  12.560
72514SOL    HW119439   1.145  10.541  12.497
72514SOL    HW219440   1.090  10.514  12.636
72515SOL     OW19441   2.571   5.948  11.386
72515SOL    HW119442   2.606   6.015  11.444
72515SOL    HW219443   2.613   5.964  11.301
72516SOL     OW19444   4.357   2.685  10.501
72516SOL    HW119445   4.374   2.775  10.530
72516SOL    HW219446   4.276   2.661  10.544
72517SOL     OW19447   1.322  13.772   7.364
72517SOL    HW119448   1.250  13.709   7.363
72517SOL    HW219449   1.334  13.797   7.272
72518SOL     OW19450  10.923   1.302  14.522
72518SOL    HW119451  10.837   1.324  14.558
72518SOL    HW219452  10.982   1.369  14.557
72519SOL     OW19453   9.188   7.869   7.793
72519SOL    HW119454   9.207   7.892   7.702
72519SOL    HW219455   9.244   7.794   7.812
72520SOL     OW19456   8.023  10.019   1.499
72520SOL    HW119457   8.081   9.979   1.564
72520SOL    HW219458   7.999   9.946   1.441
72521SOL     OW19459   2.918   0.729   9.560
72521SOL    HW119460   2.836   0.775   9.544
72521SOL    HW219461   2.961   0.779   9.629
72522SOL     OW19462   5.355   9.025   3.634
72522SOL    HW119463   5.400   8.974   3.701
72522SOL    HW219464   5.308   9.093   3.684
72523SOL     OW19465   5.990  11.580  11.793
72523SOL    HW119466   6.026  11.537  11.871
72523SOL    HW219467   5.901  11.545  11.785
72524SOL     OW19468   8.968  12.299   7.160
72524SOL    HW119469   8.901  12.364   7.180
72524SOL    HW219470   8.933  12.216   7.193
72525SOL     OW19471  11.655   5.289  11.241
72525SOL    HW119472  11.629   5.329  11.159
72525SOL    HW219473  11.631   5.197  11.232
72526SOL     OW19474   1.821   7.781  10.321
72526SOL    HW119475   1.759   7.828  10.378
72526SOL    HW219476   1.770   7.759  10.244
72527SOL     OW19477   7.659   5.315   1.718
72527SOL    HW119478   7.644   5.222   1.699
72527SOL    HW219479   7.618   5.328   1.804
72528SOL     OW19480   5.794   9.183  11.369
72528SOL    HW119481   5.794   9.094  11.405
72528SOL    HW219482   5.715   9.188  11.316
72529SOL     OW19483  11.996   0.339   0.706
72529SOL    HW119484  11.918   0.394   0.716
72529SOL    HW219485  12.002   0.322   0.612
72530SOL     OW19486   3.838   6.081   6.347
72530SOL    HW119487   3.747   6.049   6.345
72530SOL    HW219488   3.831   6.170   6.381
72531SOL     OW19489   1.458   4.562   1.419
72531SOL    HW119490   1.518   4.544   1.347
72531SOL    HW219491   1.444   4.657   1.415
72532SOL     OW19492   6.240  14.775   0.262
72532SOL    HW119493   6.210  14.833   0.191
72532SOL    HW219494   6.255  14.834   0.336
72533SOL     OW19495   3.039   2.275   2.187
72533SOL    HW119496   3.001   2.272   2.275
72533SOL    HW219497   3.079   2.190   2.175
72534SOL     OW19498  14.696  13.291  10.054
72534SOL    HW119499  14.763  13.235  10.093
72534SOL    HW219500  14.727  13.380  10.071
72535SOL     OW19501   0.322   2.144   2.130
72535SOL    HW119502   0.307   2.239   2.127
72535SOL    HW219503   0.236   2.106   2.141
72536SOL     OW19504  12.904   8.631   7.505
72536SOL    HW119505  12.893   8.590   7.590
72536SOL    HW219506  12.835   8.697   7.501
72537SOL     OW19507   7.948  13.472   7.751
72537SOL    HW119508   7.871  13.417   7.736
72537SOL    HW219509   8.000  13.425   7.816
72538SOL     OW19510   5.325  11.339   4.233
72538SOL    HW119511   5.393  11.318   4.297
72538SOL    HW219512   5.269  11.261   4.231
72539SOL     OW19513   6.135   9.952   9.617
72539SOL    HW119514   6.211   9.967   9.562
72539SOL    HW219515   6.136  10.024   9.680
72540SOL     OW19516   5.670   1.639   6.616
72540SOL    HW119517   5.663   1.703   6.687
72540SOL    HW219518   5.639   1.686   6.539
72541SOL     OW19519   9.962   7.721   0.950
72541SOL    HW119520  10.051   7.690   0.968
72541SOL    HW219521   9.959   7.730   0.855
72542SOL     OW19522   6.142   7.828   5.880
72542SOL    HW119523   6.148   7.896   5.812
72542SOL    HW219524   6.172   7.748   5.837
72543SOL     OW19525  12.149   5.790   9.496
72543SOL    HW119526  12.070   5.736   9.498
72543SOL    HW219527  12.220   5.728   9.477
72544SOL     OW19528   4.590   6.122  10.427
72544SOL    HW119529   4.586   6.187  10.497
72544SOL    HW219530   4.499   6.115  10.397
72545SOL     OW19531   9.335   7.545  14.222
72545SOL    HW119532   9.245   7.548  14.191
72545SOL    HW219533   9.330   7.505  14.309
72546SOL     OW19534   1.457   2.039   4.337
72546SOL    HW119535   1.375   2.087   4.341
72546SOL    HW219536   1.519   2.101   4.298
72547SOL     OW19537  11.849  14.289  13.038
72547SOL    HW119538  11.760  14.255  13.048
72547SOL    HW219539  11.901  14.238  13.101
72548SOL     OW19540   6.459   8.072   5.374
72548SOL    HW119541   6.534   8.130   5.389
72548SOL    HW219542   6.458   8.058   5.280
72549SOL     OW19543   5.874   5.430   2.162
72549SOL    HW119544   5.891   5.508   2.214
72549SOL    HW219545   5.778   5.426   2.157
72550SOL     OW19546   1.323  13.614  10.740
72550SOL    HW119547   1.343  13.534  10.691
72550SOL    HW219548   1.359  13.599  10.827
72551SOL     OW19549  14.414   3.831   7.804
72551SOL    HW119550  14.482   3.775   7.843
72551SOL    HW219551  14.386   3.887   7.876
72552SOL     OW19552  10.042  13.660   6.767
72552SOL    HW119553  10.011  13.706   6.845
72552SOL    HW219554  10.008  13.711   6.694
72553SOL     OW19555   9.786   4.110   6.726
72553SOL    HW119556   9.797   4.085   6.818
72553SOL    HW219557   9.773   4.027   6.681
72554SOL     OW19558   4.306   3.119   4.728
72554SOL    HW119559   4.395   3.152   4.719
72554SOL    HW219560   4.315   3.024   4.721
72555SOL     OW19561   9.852   5.065   1.150
72555SOL    HW119562   9.813   5.027   1.071
72555SOL    HW219563   9.914   5.131   1.118
72556SOL     OW19564   7.624   1.084  11.107
72556SOL    HW119565   7.652   1.038  11.028
72556SOL    HW219566   7.600   1.015  11.169
72557SOL     OW19567   4.881  12.218   7.248
72557SOL    HW119568   4.787  12.207   7.241
72557SOL    HW219569   4.918  12.135   7.216
72558SOL     OW19570  13.998  12.474   1.318
72558SOL    HW119571  13.963  12.543   1.262
72558SOL    HW219572  13.958  12.393   1.284
72559SOL     OW19573  14.726  13.314   2.251
72559SOL    HW119574  14.686  13.356   2.175
72559SOL    HW219575  14.671  13.238   2.269
72560SOL     OW19576   6.503  11.554   7.503
72560SOL    HW119577   6.572  11.494   7.530
72560SOL    HW219578   6.454  11.573   7.583
72561SOL     OW19579  10.230  11.195   9.804
72561SOL    HW119580  10.220  11.289   9.788
72561SOL    HW219581  10.242  11.157   9.718
72562SOL     OW19582   9.499   3.071   2.742
72562SOL    HW119583   9.485   3.165   2.752
72562SOL    HW219584   9.411   3.033   2.745
72563SOL     OW19585  13.605   3.851   3.434
72563SOL    HW119586  13.585   3.939   3.401
72563SOL    HW219587  13.547   3.794   3.383
72564SOL     OW19588  10.891   0.653  12.887
72564SOL    HW119589  10.971   0.629  12.934
72564SOL    HW219590  10.820   0.639  12.950
72565SOL     OW19591   7.561  13.622   8.462
72565SOL    HW119592   7.594  13.668   8.539
72565SOL    HW219593   7.490  13.567   8.495
72566SOL     OW19594   0.769  11.879  11.800
72566SOL    HW119595   0.678  11.907  11.785
72566SOL    HW219596   0.767  11.784  11.786
72567SOL     OW19597   6.432   7.492   2.678
72567SOL    HW119598   6.514   7.541   2.677
72567SOL    HW219599   6.459   7.401   2.675
72568SOL     OW19600  13.590   6.904   9.288
72568SOL    HW119601  13.556   6.832   9.236
72568SOL    HW219602  13.623   6.967   9.224
72569SOL     OW19603   4.005  10.268   4.082
72569SOL    HW119604   3.945  10.199   4.111
72569SOL    HW219605   4.045  10.232   4.002
72570SOL     OW19606   0.015  14.043   1.523
72570SOL    HW119607   0.080  14.052   1.593
72570SOL    HW219608   0.061  14.073   1.445
72571SOL     OW19609  11.447  13.220   1.261
72571SOL    HW119610  11.483  13.287   1.319
72571SOL    HW219611  11.507  13.217   1.187
72572SOL     OW19612   1.719  13.550  10.496
72572SOL    HW119613   1.811  13.527  10.512
72572SOL    HW219614   1.676  13.536  10.580
72573SOL     OW19615  11.687   5.914   6.766
72573SOL    HW119616  11.592   5.923   6.772
72573SOL    HW219617  11.719   6.003   6.754
72574SOL     OW19618  12.676   7.071  12.488
72574SOL    HW119619  12.608   7.138  12.475
72574SOL    HW219620  12.756   7.112  12.457
72575SOL     OW19621   9.199  10.352   2.559
72575SOL    HW119622   9.172  10.260   2.569
72575SOL    HW219623   9.239  10.374   2.643
72576SOL     OW19624   9.335   1.656   5.480
72576SOL    HW119625   9.245   1.668   5.511
72576SOL    HW219626   9.340   1.710   5.401
72577SOL     OW19627   8.659   4.478   7.455
72577SOL    HW119628   8.619   4.458   7.371
72577SOL    HW219629   8.626   4.565   7.477
72578SOL     OW19630   1.724  12.655   5.920
72578SOL    HW119631   1.720  12.571   5.873
72578SOL    HW219632   1.669  12.714   5.868
72579SOL     OW19633   2.778  11.355   2.357
72579SOL    HW119634   2.691  11.334   2.323
72579SOL    HW219635   2.835  11.289   2.318
72580SOL     OW19636  13.261   5.934   5.264
72580SOL    HW119637  13.228   5.857   5.311
72580SOL    HW219638  13.280   5.997   5.333
72581SOL     OW19639  12.085   2.817   3.355
72581SOL    HW119640  12.115   2.907   3.369
72581SOL    HW219641  12.155   2.762   3.391
72582SOL     OW19642   2.100   6.638  12.189
72582SOL    HW119643   2.013   6.642  12.229
72582SOL    HW219644   2.150   6.580  12.247
72583SOL     OW19645   5.367   7.773   8.034
72583SOL    HW119646   5.286   7.787   7.986
72583SOL    HW219647   5.348   7.703   8.095
72584SOL     OW19648   1.057   8.042   8.581
72584SOL    HW119649   0.990   8.108   8.562
72584SOL    HW219650   1.110   8.081   8.651
72585SOL     OW19651   7.823   6.176   7.259
72585SOL    HW119652   7.884   6.141   7.323
72585SOL    HW219653   7.746   6.120   7.265
72586SOL     OW19654  13.248   1.732   3.951
72586SOL    HW119655  13.184   1.744   4.022
72586SOL    HW219656  13.331   1.761   3.989
72587SOL     OW19657  10.553   6.899   1.975
72587SOL    HW119658  10.543   6.973   2.035
72587SOL    HW219659  10.499   6.829   2.013
72588SOL     OW19660   5.189  10.765  14.453
72588SOL    HW119661   5.184  10.781  14.548
72588SOL    HW219662   5.153  10.677  14.443
72589SOL     OW19663   9.468   4.413  12.444
72589SOL    HW119664   9.408   4.397  12.371
72589SOL    HW219665   9.433   4.361  12.516
72590SOL     OW19666   7.173  14.235   1.931
72590SOL    HW119667   7.146  14.316   1.887
72590SOL    HW219668   7.140  14.165   1.875
72591SOL     OW19669   7.783   2.908  13.292
72591SOL    HW119670   7.844   2.915  13.218
72591SOL    HW219671   7.832   2.858  13.357
72592SOL     OW19672   4.277   3.800   8.105
72592SOL    HW119673   4.215   3.764   8.169
72592SOL    HW219674   4.246   3.889   8.089
72593SOL     OW19675   0.659   0.137  10.709
72593SOL    HW119676   0.694   0.184  10.633
72593SOL    HW219677   0.605   0.067  10.672
72594SOL     OW19678  11.948   1.484  14.321
72594SOL    HW119679  11.936   1.578  14.303
72594SOL    HW219680  11.974   1.447  14.237
72595SOL     OW19681   7.549   8.382   3.045
72595SOL    HW119682   7.547   8.324   3.121
72595SOL    HW219683   7.463   8.371   3.004
72596SOL     OW19684  11.376   1.819  14.820
72596SOL    HW119685  11.433   1.742  14.813
72596SOL    HW219686  11.421   1.886  14.768
72597SOL     OW19687  14.433   9.161   2.832
72597SOL    HW119688  14.487   9.137   2.756
72597SOL    HW219689  14.345   9.132   2.809
72598SOL     OW19690   0.639  10.034   7.101
72598SOL    HW119691   0.553  10.067   7.126
72598SOL    HW219692   0.649   9.952   7.150
72599SOL     OW19693   1.808   8.777  10.111
72599SOL    HW119694   1.804   8.739  10.023
72599SOL    HW219695   1.749   8.724  10.164
72600SOL     OW19696  11.331  10.336  14.657
72600SOL    HW119697  11.310  10.376  14.573
72600SOL    HW219698  11.413  10.289  14.642
72601SOL     OW19699   8.091  11.583  14.162
72601SOL    HW119700   8.033  11.640  14.111
72601SOL    HW219701   8.039  11.505  14.180
72602SOL     OW19702   0.402  13.021  12.131
72602SOL    HW119703   0.378  13.075  12.206
72602SOL    HW219704   0.494  13.041  12.116
72603SOL     OW19705   4.918   9.472   5.256
72603SOL    HW119706   4.975   9.395   5.251
72603SOL    HW219707   4.842   9.442   5.307
72604SOL     OW19708  13.386  12.197   9.658
72604SOL    HW119709  13.406  12.230   9.570
72604SOL    HW219710  13.460  12.224   9.712
72605SOL     OW19711   8.052   3.553   4.378
72605SOL    HW119712   8.146   3.571   4.373
72605SOL    HW219713   8.029   3.567   4.469
72606SOL     OW19714  14.083   3.491  11.447
72606SOL    HW119715  14.039   3.410  11.420
72606SOL    HW219716  14.016   3.559  11.436
72607SOL     OW19717  13.905  12.634   1.086
72607SOL    HW119718  13.932  12.725   1.070
72607SOL    HW219719  13.852  12.611   1.011
72608SOL     OW19720   5.788   8.145   2.035
72608SOL    HW119721   5.807   8.165   1.944
72608SOL    HW219722   5.759   8.229   2.072
72609SOL     OW19723  12.693   9.797   7.989
72609SOL    HW119724  12.661   9.716   8.029
72609SOL    HW219725  12.788   9.790   7.992
72610SOL     OW19726  10.920   4.213  10.904
72610SOL    HW119727  10.859   4.278  10.938
72610SOL    HW219728  10.875   4.129  10.917
72611SOL     OW19729   8.816  13.174   3.873
72611SOL    HW119730   8.726  13.206   3.878
72611SOL    HW219731   8.816  13.096   3.927
72612SOL     OW19732   0.130   8.317   9.794
72612SOL    HW119733   0.058   8.370   9.761
72612SOL    HW219734   0.109   8.227   9.766
72613SOL     OW19735  13.555  11.071   6.511
72613SOL    HW119736  13.586  11.134   6.576
72613SOL    HW219737  13.469  11.044   6.544
72614SOL     OW19738   4.900  10.741   6.636
72614SOL    HW119739   4.890  10.686   6.558
72614SOL    HW219740   4.993  10.735   6.658
72615SOL     OW19741   1.441   4.185   9.581
72615SOL    HW119742   1.491   4.247   9.528
72615SOL    HW219743   1.455   4.100   9.538
72616SOL     OW19744  11.646   6.171   4.958
72616SOL    HW119745  11.654   6.207   5.046
72616SOL    HW219746  11.581   6.227   4.915
72617SOL     OW19747   4.272  12.258   8.620
72617SOL    HW119748   4.246  12.279   8.710
72617SOL    HW219749   4.341  12.320   8.600
72618SOL     OW19750  11.880   3.824   2.634
72618SOL    HW119751  11.880   3.870   2.718
72618SOL    HW219752  11.820   3.874   2.579
72619SOL     OW19753  10.677  10.979  11.668
72619SOL    HW119754  10.761  11.011  11.634
72619SOL    HW219755  10.694  10.888  11.692
72620SOL     OW19756   1.404   1.622   4.036
72620SOL    HW119757   1.312   1.648   4.033
72620SOL    HW219758   1.413   1.557   3.966
72621SOL     OW19759   3.934   7.580   7.663
72621SOL    HW119760   3.896   7.611   7.580
72621SOL    HW219761   4.029   7.590   7.651
72622SOL     OW19762   4.509   7.436  13.697
72622SOL    HW119763   4.427   7.480  13.720
72622SOL    HW219764   4.538   7.479  13.617
72623SOL     OW19765   3.193  12.505  10.015
72623SOL    HW119766   3.234  12.428  10.056
72623SOL    HW219767   3.202  12.574  10.081
72624SOL     OW19768   5.963   4.674  10.725
72624SOL    HW119769   5.913   4.592  10.723
72624SOL    HW219770   6.005   4.678  10.639
72625SOL     OW19771  14.817  11.390   0.249
72625SOL    HW119772  14.864  11.423   0.172
72625SOL    HW219773  14.742  11.449   0.258
72626SOL     OW19774   6.113  11.593   1.116
72626SOL    HW119775   6.161  11.645   1.052
72626SOL    HW219776   6.095  11.510   1.071
72627SOL     OW19777   5.825   1.398  14.797
72627SOL    HW119778   5.890   1.355  14.853
72627SOL    HW219779   5.865   1.483  14.776
72628SOL     OW19780   8.548  14.746  10.713
72628SOL    HW119781   8.628  14.795  10.728
72628SOL    HW219782   8.536  14.693  10.792
72629SOL     OW19783   2.118   4.189   5.390
72629SOL    HW119784   2.053   4.121   5.370
72629SOL    HW219785   2.084   4.234   5.467
72630SOL     OW19786   3.373  13.011   0.552
72630SOL    HW119787   3.353  12.932   0.602
72630SOL    HW219788   3.321  13.003   0.472
72631SOL     OW19789   5.242  13.804   1.778
72631SOL    HW119790   5.261  13.809   1.685
72631SOL    HW219791   5.296  13.731   1.810
72632SOL     OW19792   4.919   7.889  12.761
72632SOL    HW119793   5.013   7.875  12.755
72632SOL    HW219794   4.905   7.919  12.851
72633SOL     OW19795  12.235   1.742   9.855
72633SOL    HW119796  12.217   1.699   9.939
72633SOL    HW219797  12.262   1.831   9.879
72634SOL     OW19798  13.918  14.733   9.572
72634SOL    HW119799  13.864  14.811   9.582
72634SOL    HW219800  14.002  14.756   9.611
72635SOL     OW19801   5.304  10.076   3.632
72635SOL    HW119802   5.213  10.089   3.605
72635SOL    HW219803   5.332   9.997   3.586
72636SOL     OW19804   2.616  13.193   8.974
72636SOL    HW119805   2.541  13.203   8.916
72636SOL    HW219806   2.679  13.259   8.944
72637SOL     OW19807   3.613  13.985   2.937
72637SOL    HW119808   3.649  13.896   2.932
72637SOL    HW219809   3.689  14.042   2.926
72638SOL     OW19810  11.963   4.242   8.532
72638SOL    HW119811  11.886   4.285   8.568
72638SOL    HW219812  11.936   4.210   8.446
72639SOL     OW19813   3.776  12.688  12.040
72639SOL    HW119814   3.751  12.766  11.991
72639SOL    HW219815   3.700  12.631  12.036
72640SOL     OW19816   0.899   6.213   6.443
72640SOL    HW119817   0.972   6.232   6.502
72640SOL    HW219818   0.858   6.135   6.480
72641SOL     OW19819  10.315   1.989  12.444
72641SOL    HW119820  10.274   2.025  12.366
72641SOL    HW219821  10.312   1.894  12.431
72642SOL     OW19822   0.850   7.022  14.221
72642SOL    HW119823   0.905   6.954  14.260
72642SOL    HW219824   0.906   7.099  14.213
72643SOL     OW19825  10.545  14.716   9.461
72643SOL    HW119826  10.598  14.643   9.492
72643SOL    HW219827  10.602  14.793   9.468
72644SOL     OW19828  10.403   9.892   1.378
72644SOL    HW119829  10.370   9.912   1.466
72644SOL    HW219830  10.473   9.829   1.392
72645SOL     OW19831  13.647   5.022   7.252
72645SOL    HW119832  13.676   5.113   7.256
72645SOL    HW219833  13.618   5.010   7.162
72646SOL     OW19834   0.769   2.306  11.429
72646SOL    HW119835   0.736   2.225  11.468
72646SOL    HW219836   0.752   2.296  11.335
72647SOL     OW19837   5.582   2.111   9.402
72647SOL    HW119838   5.487   2.112   9.402
72647SOL    HW219839   5.605   2.034   9.454
72648SOL     OW19840   4.467  13.025  10.717
72648SOL    HW119841   4.392  13.001  10.771
72648SOL    HW219842   4.462  13.120  10.709
72649SOL     OW19843   0.614   9.794   7.249
72649SOL    HW119844   0.614   9.732   7.176
72649SOL    HW219845   0.533   9.775   7.296
72650SOL     OW19846   2.655  13.334  13.512
72650SOL    HW119847   2.691  13.414  13.550
72650SOL    HW219848   2.635  13.358  13.421
72651SOL     OW19849  14.382   2.165   6.032
72651SOL    HW119850  14.286   2.168   6.027
72651SOL    HW219851  14.401   2.074   6.056
72652SOL     OW19852   4.237   2.274   0.768
72652SOL    HW119853   4.324   2.261   0.804
72652SOL    HW219854   4.207   2.186   0.746
72653SOL     OW19855   8.644  12.565   0.020
72653SOL    HW119856   8.652  12.635   0.085
72653SOL    HW219857   8.592  12.498   0.064
72654SOL     OW19858   3.530  13.458   2.575
72654SOL    HW119859   3.565  13.529   2.629
72654SOL    HW219860   3.473  13.409   2.635
72655SOL     OW19861   5.950   8.950  14.617
72655SOL    HW119862   5.869   9.000  14.624
72655SOL    HW219863   5.967   8.919  14.706
72656SOL     OW19864   9.803   0.991   6.328
72656SOL    HW119865   9.798   1.060   6.261
72656SOL    HW219866   9.820   1.039   6.409
72657SOL     OW19867  12.523  14.737   3.107
72657SOL    HW119868  12.573  14.818   3.120
72657SOL    HW219869  12.434  14.767   3.088
72658SOL     OW19870   7.441  11.487   8.105
72658SOL    HW119871   7.351  11.505   8.077
72658SOL    HW219872   7.495  11.520   8.033
72659SOL     OW19873   3.225   8.211   1.742
72659SOL    HW119874   3.262   8.146   1.682
72659SOL    HW219875   3.259   8.187   1.828
72660SOL     OW19876   7.986  12.106   4.623
72660SOL    HW119877   7.898  12.088   4.588
72660SOL    HW219878   8.046  12.070   4.557
72661SOL     OW19879   1.733   2.588   5.718
72661SOL    HW119880   1.793   2.629   5.656
72661SOL    HW219881   1.693   2.661   5.766
72662SOL     OW19882   4.481  13.260  14.277
72662SOL    HW119883   4.416  13.275  14.346
72662SOL    HW219884   4.511  13.170  14.292
72663SOL     OW19885  14.802   2.223  12.991
72663SOL    HW119886  14.829   2.195  12.904
72663SOL    HW219887  14.847   2.307  13.005
72664SOL     OW19888   6.356   8.845   9.731
72664SOL    HW119889   6.430   8.905   9.715
72664SOL    HW219890   6.324   8.824   9.644
72665SOL     OW19891   0.466  11.167   1.754
72665SOL    HW119892   0.433  11.216   1.829
72665SOL    HW219893   0.500  11.086   1.791
72666SOL     OW19894  12.345  11.273  10.933
72666SOL    HW119895  12.435  11.253  10.908
72666SOL    HW219896  12.324  11.207  11.000
72667SOL     OW19897   8.477  13.103   8.406
72667SOL    HW119898   8.533  13.131   8.478
72667SOL    HW219899   8.524  13.130   8.327
72668SOL     OW19900  11.199   3.806   7.003
72668SOL    HW119901  11.285   3.812   6.963
72668SOL    HW219902  11.147   3.875   6.961
72669SOL     OW19903  11.126   1.530   1.188
72669SOL    HW119904  11.160   1.446   1.218
72669SOL    HW219905  11.132   1.588   1.264
72670SOL     OW19906  13.067  14.405   1.592
72670SOL    HW119907  13.162  14.405   1.575
72670SOL    HW219908  13.051  14.487   1.638
72671SOL     OW19909   9.736   2.751  10.116
72671SOL    HW119910   9.693   2.758  10.202
72671SOL    HW219911   9.827   2.729  10.137
72672SOL     OW19912   1.621   9.060  11.712
72672SOL    HW119913   1.548   9.030  11.659
72672SOL    HW219914   1.663   8.980  11.744
72673SOL     OW19915   2.614   8.188  14.575
72673SOL    HW119916   2.606   8.283  14.566
72673SOL    HW219917   2.577   8.153  14.494
72674SOL     OW19918   4.383  12.987  12.429
72674SOL    HW119919   4.294  12.955  12.449
72674SOL    HW219920   4.438  12.943  12.493
72675SOL     OW19921  12.124  10.337  12.615
72675SOL    HW119922  12.131  10.329  12.519
72675SOL    HW219923  12.044  10.388  12.629
72676SOL     OW19924   4.504   6.911  10.543
72676SOL    HW119925   4.568   6.945  10.481
72676SOL    HW219926   4.462   6.989  10.579
72677SOL     OW19927  10.810   1.131   9.768
72677SOL    HW119928  10.840   1.220   9.790
72677SOL    HW219929  10.884   1.091   9.722
72678SOL     OW19930   0.791   9.713   8.130
72678SOL    HW119931   0.845   9.646   8.172
72678SOL    HW219932   0.748   9.759   8.203
72679SOL     OW19933   8.251   0.758   3.370
72679SOL    HW119934   8.272   0.689   3.307
72679SOL    HW219935   8.157   0.771   3.361
72680SOL     OW19936  13.549   5.176  14.006
72680SOL    HW119937  13.453   5.184  14.004
72680SOL    HW219938  13.581   5.254  13.960
72681SOL     OW19939  13.768   2.563  12.899
72681SOL    HW119940  13.681   2.524  12.885
72681SOL    HW219941  13.770   2.585  12.992
72682SOL     OW19942   7.957  10.506   6.269
72682SOL    HW119943   7.875  10.461   6.249
72682SOL    HW219944   7.974  10.561   6.193
72683SOL     OW19945  13.466  11.013   3.619
72683SOL    HW119946  13.436  10.944   3.559
72683SOL    HW219947  13.530  11.063   3.569
72684SOL     OW19948   9.617   6.006   7.465
72684SOL    HW119949   9.594   6.091   7.427
72684SOL    HW219950   9.561   5.944   7.418
72685SOL     OW19951   2.515  13.672   3.999
72685SOL    HW119952   2.489  13.637   4.084
72685SOL    HW219953   2.580  13.739   4.020
72686SOL     OW19954   4.937   2.723  11.377
72686SOL    HW119955   5.027   2.730  11.408
72686SOL    HW219956   4.891   2.678  11.448
72687SOL     OW19957   2.235   2.608  11.178
72687SOL    HW119958   2.193   2.528  11.210
72687SOL    HW219959   2.277   2.645  11.256
72688SOL     OW19960   6.826  13.912   8.113
72688SOL    HW119961   6.743  13.954   8.136
72688SOL    HW219962   6.893  13.968   8.154
72689SOL     OW19963   9.849   0.249   7.444
72689SOL    HW119964   9.903   0.312   7.493
72689SOL    HW219965   9.871   0.264   7.352
72690SOL     OW19966  10.926   5.519   5.307
72690SOL    HW119967  10.852   5.571   5.278
72690SOL    HW219968  11.003   5.565   5.273
72691SOL     OW19969   4.732   8.148   6.432
72691SOL    HW119970   4.770   8.235   6.425
72691SOL    HW219971   4.670   8.155   6.506
72692SOL     OW19972   6.964   9.187   9.148
72692SOL    HW119973   7.016   9.167   9.226
72692SOL    HW219974   7.024   9.174   9.075
72693SOL     OW19975   9.918   1.600  11.540
72693SOL    HW119976   9.828   1.604  11.571
72693SOL    HW219977   9.950   1.690  11.548
72694SOL     OW19978   8.307  11.600   4.511
72694SOL    HW119979   8.350  11.518   4.534
72694SOL    HW219980   8.340  11.622   4.424
72695SOL     OW19981   9.471  11.172   0.237
72695SOL    HW119982   9.546  11.232   0.234
72695SOL    HW219983   9.396  11.229   0.256
72696SOL     OW19984   3.663   8.742   5.243
72696SOL    HW119985   3.587   8.797   5.262
72696SOL    HW219986   3.659   8.729   5.148
72697SOL     OW19987   4.817   2.501   3.183
72697SOL    HW119988   4.816   2.537   3.094
72697SOL    HW219989   4.896   2.537   3.223
72698SOL     OW19990   0.992   8.624   1.498
72698SOL    HW119991   0.936   8.571   1.555
72698SOL    HW219992   1.080   8.612   1.532
72699SOL     OW19993   0.316  11.495   1.968
72699SOL    HW119994   0.295  11.478   1.877
72699SOL    HW219995   0.246  11.552   1.999
72700SOL     OW19996   5.906   7.298  12.014
72700SOL    HW119997   5.831   7.287  12.071
72700SOL    HW219998   5.887   7.246  11.936
72701SOL     OW19999  13.159   7.411  10.990
72701SOL    HW120000  13.089   7.394  11.052
72701SOL    HW220001  13.234   7.436  11.044
72702SOL     OW20002   1.934   9.145   2.212
72702SOL    HW120003   1.914   9.230   2.250
72702SOL    HW220004   1.850   9.111   2.183
72703SOL     OW20005  11.405   3.048   9.083
72703SOL    HW120006  11.362   2.972   9.122
72703SOL    HW220007  11.383   3.043   8.990
72704SOL     OW20008   3.362   9.069  14.022
72704SOL    HW120009   3.307   8.994  14.042
72704SOL    HW220010   3.431   9.034  13.966
72705SOL     OW20011  10.697   2.613  13.501
72705SOL    HW120012  10.675   2.662  13.422
72705SOL    HW220013  10.629   2.638  13.564
72706SOL     OW20014  14.066  13.518  14.460
72706SOL    HW120015  13.978  13.541  14.429
72706SOL    HW220016  14.055  13.504  14.554
72707SOL     OW20017   4.501  13.304  12.965
72707SOL    HW120018   4.507  13.212  12.939
72707SOL    HW220019   4.446  13.303  13.043
72708SOL     OW20020   4.520  13.392   3.373
72708SOL    HW120021   4.549  13.407   3.463
72708SOL    HW220022   4.455  13.322   3.380
72709SOL     OW20023  11.682   5.545  14.217
72709SOL    HW120024  11.763   5.575  14.175
72709SOL    HW220025  11.656   5.618  14.273
72710SOL     OW20026   4.548   6.351   1.782
72710SOL    HW120027   4.611   6.423   1.776
72710SOL    HW220028   4.579   6.298   1.855
72711SOL     OW20029  14.396  11.350   6.485
72711SOL    HW120030  14.334  11.385   6.549
72711SOL    HW220031  14.482  11.370   6.521
72712SOL     OW20032   1.051   0.809  13.050
72712SOL    HW120033   1.026   0.895  13.084
72712SOL    HW220034   0.968   0.764  13.035
72713SOL     OW20035   8.827   2.557   8.251
72713SOL    HW120036   8.779   2.637   8.229
72713SOL    HW220037   8.919   2.581   8.240
72714SOL     OW20038   5.941   9.427   4.780
72714SOL    HW120039   6.021   9.456   4.737
72714SOL    HW220040   5.970   9.393   4.865
72715SOL     OW20041   0.945   5.168   3.732
72715SOL    HW120042   0.909   5.254   3.751
72715SOL    HW220043   1.039   5.183   3.722
72716SOL     OW20044  10.206   8.837   9.359
72716SOL    HW120045  10.208   8.790   9.442
72716SOL    HW220046  10.113   8.844   9.337
72717SOL     OW20047  12.849   8.659  11.496
72717SOL    HW120048  12.804   8.625  11.573
72717SOL    HW220049  12.797   8.734  11.469
72718SOL     OW20050  12.845   9.032   2.154
72718SOL    HW120051  12.866   8.980   2.232
72718SOL    HW220052  12.885   9.118   2.171
72719SOL     OW20053   1.336   4.147   6.496
72719SOL    HW120054   1.421   4.160   6.455
72719SOL    HW220055   1.340   4.060   6.534
72720SOL     OW20056  10.037  14.747   5.250
72720SOL    HW120057   9.963  14.741   5.190
72720SOL    HW220058  10.114  14.751   5.193
72721SOL     OW20059   4.376  11.586  11.576
72721SOL    HW120060   4.341  11.616  11.493
72721SOL    HW220061   4.317  11.516  11.604
72722SOL     OW20062   9.745  12.432  10.707
72722SOL    HW120063   9.669  12.462  10.657
72722SOL    HW220064   9.818  12.483  10.673
72723SOL     OW20065  10.823   7.926   1.815
72723SOL    HW120066  10.896   7.865   1.827
72723SOL    HW220067  10.827   7.983   1.892
72724SOL     OW20068   3.690   2.234   1.754
72724SOL    HW120069   3.775   2.199   1.727
72724SOL    HW220070   3.699   2.247   1.849
72725SOL     OW20071   2.703   3.115   6.569
72725SOL    HW120072   2.770   3.123   6.636
72725SOL    HW220073   2.664   3.202   6.562
72726SOL     OW20074   6.884   3.241  12.847
72726SOL    HW120075   6.818   3.308  12.865
72726SOL    HW220076   6.834   3.162  12.825
72727SOL     OW20077   8.268   2.819  11.652
72727SOL    HW120078   8.279   2.763  11.575
72727SOL    HW220079   8.175   2.815  11.672
72728SOL     OW20080   0.287  13.022   3.796
72728SOL    HW120081   0.220  12.971   3.750
72728SOL    HW220082   0.350  13.045   3.728
72729SOL     OW20083   5.158   2.809   9.548
72729SOL    HW120084   5.089   2.852   9.598
72729SOL    HW220085   5.169   2.724   9.591
72730SOL     OW20086   3.790   6.958   9.905
72730SOL    HW120087   3.765   6.956   9.813
72730SOL    HW220088   3.878   6.997   9.905
72731SOL     OW20089  14.293  12.903   2.874
72731SOL    HW120090  14.293  12.844   2.949
72731SOL    HW220091  14.206  12.943   2.874
72732SOL     OW20092  10.399  14.307  14.714
72732SOL    HW120093  10.344  14.275  14.642
72732SOL    HW220094  10.381  14.247  14.786
72733SOL     OW20095   4.970  10.227   7.762
72733SOL    HW120096   5.035  10.157   7.763
72733SOL    HW220097   5.020  10.307   7.748
72734SOL     OW20098  10.242  12.404   2.564
72734SOL    HW120099  10.241  12.391   2.469
72734SOL    HW220100  10.169  12.464   2.581
72735SOL     OW20101   7.947   3.600   5.037
72735SOL    HW120102   7.989   3.587   5.122
72735SOL    HW220103   8.000   3.549   4.976
72736SOL     OW20104   2.504   8.786  14.070
72736SOL    HW120105   2.456   8.760  13.991
72736SOL    HW220106   2.560   8.711  14.090
72737SOL     OW20107  11.468  14.320   8.426
72737SOL    HW120108  11.442  14.407   8.456
72737SOL    HW220109  11.562  14.327   8.410
72738SOL     OW20110   9.886   9.535  14.249
72738SOL    HW120111   9.941   9.506  14.321
72738SOL    HW220112   9.926   9.616  14.218
72739SOL     OW20113  14.515   9.863   4.493
72739SOL    HW120114  14.464   9.805   4.549
72739SOL    HW220115  14.586   9.894   4.549
72740SOL     OW20116   4.322   0.097   7.464
72740SOL    HW120117   4.265   0.069   7.536
72740SOL    HW220118   4.388   0.029   7.457
72741SOL     OW20119  12.911   0.797  14.093
72741SOL    HW120120  12.819   0.788  14.069
72741SOL    HW220121  12.942   0.707  14.100
72742SOL     OW20122   9.293  11.385   7.128
72742SOL    HW120123   9.298  11.471   7.087
72742SOL    HW220124   9.335  11.326   7.066
72743SOL     OW20125   9.516   4.812   3.096
72743SOL    HW120126   9.470   4.797   3.178
72743SOL    HW220127   9.450   4.795   3.028
72744SOL     OW20128   4.296   9.584  11.723
72744SOL    HW120129   4.329   9.654  11.666
72744SOL    HW220130   4.203   9.602  11.731
72745SOL     OW20131   7.473   6.681  12.404
72745SOL    HW120132   7.394   6.695  12.352
72745SOL    HW220133   7.450   6.612  12.466
72746SOL     OW20134   4.517  14.276   4.674
72746SOL    HW120135   4.574  14.289   4.750
72746SOL    HW220136   4.431  14.255   4.711
72747SOL     OW20137  12.594   7.394  11.441
72747SOL    HW120138  12.640   7.362  11.364
72747SOL    HW220139  12.528   7.454  11.407
72748SOL     OW20140  10.290   6.582  12.865
72748SOL    HW120141  10.363   6.567  12.805
72748SOL    HW220142  10.243   6.499  12.867
72749SOL     OW20143   0.962  12.509   4.674
72749SOL    HW120144   0.986  12.600   4.658
72749SOL    HW220145   0.984  12.463   4.593
72750SOL     OW20146   1.041   3.086   0.076
72750SOL    HW120147   1.041   3.064  14.870
72750SOL    HW220148   0.961   3.138   0.088
72751SOL     OW20149   5.540   6.254  10.394
72751SOL    HW120150   5.574   6.289  10.312
72751SOL    HW220151   5.448   6.280  10.396
72752SOL     OW20152   6.578   9.098  13.328
72752SOL    HW120153   6.592   9.011  13.365
72752SOL    HW220154   6.518   9.141  13.390
72753SOL     OW20155  13.510   8.647   4.495
72753SOL    HW120156  13.513   8.556   4.468
72753SOL    HW220157  13.522   8.645   4.590
72754SOL     OW20158   1.559   9.197   5.147
72754SOL    HW120159   1.565   9.258   5.219
72754SOL    HW220160   1.645   9.155   5.143
72755SOL     OW20161  14.016   2.327  13.301
72755SOL    HW120162  14.036   2.357  13.390
72755SOL    HW220163  14.088   2.363  13.248
72756SOL     OW20164  11.451   0.809   4.733
72756SOL    HW120165  11.400   0.749   4.787
72756SOL    HW220166  11.517   0.845   4.792
72757SOL     OW20167   4.355   0.674  11.043
72757SOL    HW120168   4.345   0.769  11.041
72757SOL    HW220169   4.270   0.642  11.072
72758SOL     OW20170   4.553   4.683  10.496
72758SOL    HW120171   4.569   4.658  10.587
72758SOL    HW220172   4.458   4.687  10.488
72759SOL     OW20173  10.647   1.603  13.831
72759SOL    HW120174  10.579   1.588  13.766
72759SOL    HW220175  10.607   1.662  13.895
72760SOL     OW20176   0.610   2.695   6.878
72760SOL    HW120177   0.665   2.669   6.804
72760SOL    HW220178   0.569   2.614   6.907
72761SOL     OW20179  10.944   9.812   7.306
72761SOL    HW120180  10.914   9.790   7.218
72761SOL    HW220181  11.003   9.886   7.294
72762SOL     OW20182   7.792   0.822  13.370
72762SOL    HW120183   7.781   0.728  13.355
72762SOL    HW220184   7.802   0.860  13.282
72763SOL     OW20185   2.360   6.787  13.350
72763SOL    HW120186   2.267   6.770  13.366
72763SOL    HW220187   2.404   6.753  13.428
72764SOL     OW20188   4.478   7.458  10.259
72764SOL    HW120189   4.568   7.439  10.231
72764SOL    HW220190   4.469   7.412  10.343
72765SOL     OW20191   8.530   9.390   9.087
72765SOL    HW120192   8.439   9.363   9.093
72765SOL    HW220193   8.534   9.474   9.133
72766SOL     OW20194   2.843  14.171   1.169
72766SOL    HW120195   2.900  14.119   1.113
72766SOL    HW220196   2.838  14.257   1.127
72767SOL     OW20197  10.936  13.519   1.512
72767SOL    HW120198  10.885  13.596   1.487
72767SOL    HW220199  10.896  13.447   1.464
72768SOL     OW20200   7.900  11.815   0.244
72768SOL    HW120201   7.914  11.792   0.152
72768SOL    HW220202   7.856  11.899   0.241
72769SOL     OW20203   0.038   2.993   8.033
72769SOL    HW120204   0.089   3.006   8.112
72769SOL    HW220205   0.073   2.914   7.994
72770SOL     OW20206   9.200   2.917   6.197
72770SOL    HW120207   9.279   2.913   6.251
72770SOL    HW220208   9.224   2.871   6.117
72771SOL     OW20209   8.173   3.534  10.827
72771SOL    HW120210   8.266   3.557  10.824
72771SOL    HW220211   8.172   3.439  10.815
72772SOL     OW20212   2.993   5.151  13.058
72772SOL    HW120213   3.015   5.127  13.148
72772SOL    HW220214   3.059   5.215  13.033
72773SOL     OW20215   9.582  12.463   3.405
72773SOL    HW120216   9.654  12.415   3.445
72773SOL    HW220217   9.611  12.479   3.315
72774SOL     OW20218   2.476  10.497   3.505
72774SOL    HW120219   2.417  10.553   3.555
72774SOL    HW220220   2.496  10.547   3.426
72775SOL     OW20221   2.186   2.724   6.867
72775SOL    HW120222   2.217   2.699   6.954
72775SOL    HW220223   2.224   2.658   6.808
72776SOL     OW20224   7.545  10.858   1.215
72776SOL    HW120225   7.499  10.935   1.179
72776SOL    HW220226   7.495  10.836   1.294
72777SOL     OW20227   8.643  13.924  10.847
72777SOL    HW120228   8.669  13.832  10.851
72777SOL    HW220229   8.555  13.926  10.883
72778SOL     OW20230  11.051  10.681   5.928
72778SOL    HW120231  11.120  10.644   5.984
72778SOL    HW220232  11.065  10.640   5.842
72779SOL     OW20233   3.651  12.978  10.877
72779SOL    HW120234   3.680  13.052  10.931
72779SOL    HW220235   3.561  13.000  10.854
72780SOL     OW20236  10.499   6.699   6.982
72780SOL    HW120237  10.416   6.672   7.021
72780SOL    HW220238  10.492   6.673   6.890
72781SOL     OW20239   2.301   4.587   3.861
72781SOL    HW120240   2.390   4.623   3.860
72781SOL    HW220241   2.301   4.523   3.790
72782SOL     OW20242   7.713   9.266   0.235
72782SOL    HW120243   7.695   9.333   0.169
72782SOL    HW220244   7.753   9.314   0.307
72783SOL     OW20245   5.737  12.363  13.408
72783SOL    HW120246   5.740  12.279  13.363
72783SOL    HW220247   5.816  12.364  13.462
72784SOL     OW20248  10.883   6.450   1.102
72784SOL    HW120249  10.899   6.400   1.182
72784SOL    HW220250  10.936   6.529   1.112
72785SOL     OW20251  11.695   7.510  11.178
72785SOL    HW120252  11.742   7.472  11.104
72785SOL    HW220253  11.604   7.518  11.148
72786SOL     OW20254  12.417  12.863   7.718
72786SOL    HW120255  12.448  12.838   7.631
72786SOL    HW220256  12.366  12.787   7.748
72787SOL     OW20257   7.386   2.041  11.488
72787SOL    HW120258   7.325   1.997  11.547
72787SOL    HW220259   7.373   1.999  11.403
72788SOL     OW20260   1.399   3.683   2.265
72788SOL    HW120261   1.391   3.629   2.344
72788SOL    HW220262   1.435   3.624   2.200
72789SOL     OW20263   3.463  13.021   5.758
72789SOL    HW120264   3.376  13.062   5.761
72789SOL    HW220265   3.449  12.938   5.713
72790SOL     OW20266   6.085   2.801   1.570
72790SOL    HW120267   6.031   2.741   1.519
72790SOL    HW220268   6.158   2.747   1.601
72791SOL     OW20269   2.832   5.487   9.736
72791SOL    HW120270   2.779   5.521   9.664
72791SOL    HW220271   2.801   5.534   9.813
72792SOL     OW20272  11.224  14.630   2.513
72792SOL    HW120273  11.294  14.578   2.473
72792SOL    HW220274  11.253  14.646   2.602
72793SOL     OW20275  10.512   2.065  11.005
72793SOL    HW120276  10.429   2.081  10.960
72793SOL    HW220277  10.550   2.152  11.017
72794SOL     OW20278  14.767   1.841   9.313
72794SOL    HW120279  14.828   1.804   9.377
72794SOL    HW220280  14.821   1.895   9.256
72795SOL     OW20281   8.548   2.947   7.696
72795SOL    HW120282   8.480   2.928   7.760
72795SOL    HW220283   8.515   2.911   7.613
72796SOL     OW20284   4.133  12.145   9.381
72796SOL    HW120285   4.079  12.143   9.460
72796SOL    HW220286   4.205  12.085   9.399
72797SOL     OW20287   7.102  12.489  10.754
72797SOL    HW120288   7.064  12.509  10.669
72797SOL    HW220289   7.038  12.522  10.817
72798SOL     OW20290   5.609   5.297  14.135
72798SOL    HW120291   5.560   5.378  14.120
72798SOL    HW220292   5.645   5.307  14.224
72799SOL     OW20293   4.790   0.163  12.560
72799SOL    HW120294   4.756   0.233  12.615
72799SOL    HW220295   4.762   0.082  12.604
72800SOL     OW20296   5.295   1.303  10.482
72800SOL    HW120297   5.341   1.325  10.563
72800SOL    HW220298   5.207   1.279  10.510
72801SOL     OW20299  10.050   6.827   8.451
72801SOL    HW120300  10.051   6.737   8.420
72801SOL    HW220301   9.958   6.844   8.471
72802SOL     OW20302   7.937  13.491   6.484
72802SOL    HW120303   7.854  13.514   6.443
72802SOL    HW220304   7.979  13.431   6.423
72803SOL     OW20305   3.603   6.460  12.095
72803SOL    HW120306   3.626   6.499  12.179
72803SOL    HW220307   3.512   6.434  12.105
72804SOL     OW20308  11.589   0.923  13.120
72804SOL    HW120309  11.668   0.941  13.069
72804SOL    HW220310  11.517   0.954  13.065
72805SOL     OW20311   8.892   5.287  14.418
72805SOL    HW120312   8.854   5.209  14.459
72805SOL    HW220313   8.972   5.303  14.468
72806SOL     OW20314   6.451  13.978   6.090
72806SOL    HW120315   6.478  13.991   5.999
72806SOL    HW220316   6.359  14.004   6.091
72807SOL     OW20317   9.011   4.906  12.007
72807SOL    HW120318   9.069   4.833  11.986
72807SOL    HW220319   8.926   4.864  12.021
72808SOL     OW20320  13.241   4.624  11.404
72808SOL    HW120321  13.251   4.621  11.309
72808SOL    HW220322  13.234   4.717  11.424
72809SOL     OW20323   2.230   3.455   4.918
72809SOL    HW120324   2.217   3.548   4.938
72809SOL    HW220325   2.325   3.447   4.904
72810SOL     OW20326   5.171   2.198   5.841
72810SOL    HW120327   5.137   2.276   5.799
72810SOL    HW220328   5.252   2.178   5.795
72811SOL     OW20329  13.000   9.747   7.549
72811SOL    HW120330  12.968   9.773   7.462
72811SOL    HW220331  13.093   9.772   7.549
72812SOL     OW20332   7.495  14.070   7.512
72812SOL    HW120333   7.463  14.158   7.530
72812SOL    HW220334   7.455  14.015   7.579
72813SOL     OW20335   1.843  14.085   9.012
72813SOL    HW120336   1.807  14.144   8.947
72813SOL    HW220337   1.900  14.026   8.963
72814SOL     OW20338  11.636   3.575   8.891
72814SOL    HW120339  11.579   3.498   8.894
72814SOL    HW220340  11.636   3.601   8.799
72815SOL     OW20341  13.164   5.836   1.784
72815SOL    HW120342  13.076   5.865   1.809
72815SOL    HW220343  13.156   5.811   1.692
72816SOL     OW20344  14.077   0.785   1.087
72816SOL    HW120345  14.119   0.761   1.170
72816SOL    HW220346  14.023   0.861   1.108
72817SOL     OW20347  12.957   1.029   9.045
72817SOL    HW120348  12.992   0.947   9.080
72817SOL    HW220349  12.884   1.051   9.102
72818SOL     OW20350   2.256   1.921   2.613
72818SOL    HW120351   2.288   1.886   2.530
72818SOL    HW220352   2.330   1.972   2.648
72819SOL     OW20353  14.272  12.808   8.405
72819SOL    HW120354  14.230  12.857   8.475
72819SOL    HW220355  14.294  12.873   8.339
72820SOL     OW20356   6.186   8.557  12.915
72820SOL    HW120357   6.253   8.626  12.911
72820SOL    HW220358   6.103   8.604  12.907
72821SOL     OW20359  12.352   3.319  10.434
72821SOL    HW120360  12.390   3.237  10.400
72821SOL    HW220361  12.408   3.387  10.398
72822SOL     OW20362   3.180  14.738   2.517
72822SOL    HW120363   3.113  14.768   2.455
72822SOL    HW220364   3.131  14.705   2.592
72823SOL     OW20365   2.946   1.571   9.483
72823SOL    HW120366   2.871   1.614   9.440
72823SOL    HW220367   2.966   1.627   9.558
72824SOL     OW20368   4.882  10.962   0.715
72824SOL    HW120369   4.952  10.987   0.775
72824SOL    HW220370   4.926  10.922   0.640
72825SOL     OW20371   6.460  11.475   9.119
72825SOL    HW120372   6.556  11.466   9.118
72825SOL    HW220373   6.445  11.563   9.083
72826SOL     OW20374   1.950  11.162  14.084
72826SOL    HW120375   1.879  11.204  14.132
72826SOL    HW220376   2.000  11.234  14.045
72827SOL     OW20377  10.130   6.687   8.966
72827SOL    HW120378  10.185   6.649   8.897
72827SOL    HW220379  10.172   6.660   9.048
72828SOL     OW20380   0.542  12.814   9.123
72828SOL    HW120381   0.484  12.889   9.132
72828SOL    HW220382   0.624  12.851   9.090
72829SOL     OW20383   4.019  12.480   5.723
72829SOL    HW120384   4.051  12.532   5.649
72829SOL    HW220385   3.941  12.436   5.689
72830SOL     OW20386   8.902   2.801   6.782
72830SOL    HW120387   8.942   2.724   6.821
72830SOL    HW220388   8.975   2.861   6.766
72831SOL     OW20389   9.622   6.142  12.006
72831SOL    HW120390   9.613   6.077  12.075
72831SOL    HW220391   9.533   6.173  11.991
72832SOL     OW20392  14.587  13.781   1.084
72832SOL    HW120393  14.546  13.768   1.170
72832SOL    HW220394  14.632  13.698   1.067
72833SOL     OW20395  13.781  14.135   3.264
72833SOL    HW120396  13.832  14.108   3.340
72833SOL    HW220397  13.733  14.056   3.238
72834SOL     OW20398  11.770   6.076   1.180
72834SOL    HW120399  11.745   6.167   1.168
72834SOL    HW220400  11.697   6.025   1.145
72835SOL     OW20401   1.817   6.328   7.145
72835SOL    HW120402   1.793   6.267   7.215
72835SOL    HW220403   1.785   6.287   7.065
72836SOL     OW20404  10.239   5.703   6.477
72836SOL    HW120405  10.211   5.757   6.402
72836SOL    HW220406  10.333   5.716   6.483
72837SOL     OW20407   3.496  11.028  12.502
72837SOL    HW120408   3.460  10.992  12.421
72837SOL    HW220409   3.506  10.952  12.560
72838SOL     OW20410   5.266   2.317  13.885
72838SOL    HW120411   5.175   2.289  13.874
72838SOL    HW220412   5.268   2.358  13.972
72839SOL     OW20413   7.910  12.706   9.833
72839SOL    HW120414   7.974  12.773   9.809
72839SOL    HW220415   7.851  12.702   9.758
72840SOL     OW20416  12.079   7.813  11.680
72840SOL    HW120417  12.073   7.801  11.775
72840SOL    HW220418  12.123   7.734  11.649
72841SOL     OW20419  13.539   0.045  13.401
72841SOL    HW120420  13.577  14.849  13.374
72841SOL    HW220421  13.445   0.031  13.394
72842SOL     OW20422   3.129   4.219   5.380
72842SOL    HW120423   3.138   4.125   5.364
72842SOL    HW220424   3.054   4.226   5.439
72843SOL     OW20425   3.161  10.742   4.563
72843SOL    HW120426   3.157  10.817   4.503
72843SOL    HW220427   3.254  10.718   4.565
72844SOL     OW20428   7.857   7.941  14.590
72844SOL    HW120429   7.946   7.914  14.613
72844SOL    HW220430   7.863   8.035  14.577
72845SOL     OW20431   5.098   8.859  14.341
72845SOL    HW120432   5.175   8.809  14.368
72845SOL    HW220433   5.070   8.905  14.420
72846SOL     OW20434   7.521  14.841   9.299
72846SOL    HW120435   7.573   0.014   9.352
72846SOL    HW220436   7.585  14.775   9.269
72847SOL     OW20437  10.784   0.481  11.814
72847SOL    HW120438  10.868   0.521  11.792
72847SOL    HW220439  10.804   0.389  11.830
72848SOL     OW20440  13.265   2.247   6.395
72848SOL    HW120441  13.307   2.209   6.472
72848SOL    HW220442  13.203   2.180   6.365
72849SOL     OW20443   9.893  13.088   7.576
72849SOL    HW120444   9.807  13.101   7.615
72849SOL    HW220445   9.883  13.013   7.518
72850SOL     OW20446  14.264   3.855  10.110
72850SOL    HW120447  14.278   3.905  10.030
72850SOL    HW220448  14.225   3.773  10.081
72851SOL     OW20449   2.362   0.195   1.973
72851SOL    HW120450   2.414   0.232   2.045
72851SOL    HW220451   2.401   0.109   1.959
72852SOL     OW20452   7.791  13.858   6.831
72852SOL    HW120453   7.813  13.926   6.895
72852SOL    HW220454   7.853  13.788   6.848
72853SOL     OW20455   0.423  13.401   7.729
72853SOL    HW120456   0.482  13.476   7.725
72853SOL    HW220457   0.400  13.384   7.637
72854SOL     OW20458  13.644  12.183  11.572
72854SOL    HW120459  13.562  12.175  11.621
72854SOL    HW220460  13.686  12.261  11.608
72855SOL     OW20461   9.262  13.277  12.258
72855SOL    HW120462   9.350  13.309  12.279
72855SOL    HW220463   9.210  13.355  12.246
72856SOL     OW20464   4.659  14.605  12.856
72856SOL    HW120465   4.628  14.637  12.941
72856SOL    HW220466   4.653  14.510  12.863
72857SOL     OW20467   5.929  12.293   4.408
72857SOL    HW120468   5.866  12.328   4.345
72857SOL    HW220469   6.012  12.289   4.360
72858SOL     OW20470   6.415  14.099   3.055
72858SOL    HW120471   6.414  14.003   3.057
72858SOL    HW220472   6.445  14.121   2.967
72859SOL     OW20473   5.101   1.665   5.973
72859SOL    HW120474   5.079   1.580   6.011
72859SOL    HW220475   5.115   1.647   5.880
72860SOL     OW20476   5.294   2.954   2.976
72860SOL    HW120477   5.238   3.027   3.004
72860SOL    HW220478   5.235   2.895   2.929
72861SOL     OW20479   7.899   4.103   8.925
72861SOL    HW120480   7.970   4.159   8.957
72861SOL    HW220481   7.823   4.161   8.921
72862SOL     OW20482  13.287   2.098   0.404
72862SOL    HW120483  13.346   2.095   0.329
72862SOL    HW220484  13.313   2.023   0.457
72863SOL     OW20485  12.165  12.543   1.163
72863SOL    HW120486  12.086  12.571   1.209
72863SOL    HW220487  12.236  12.555   1.226
72864SOL     OW20488   6.268   7.212   2.984
72864SOL    HW120489   6.213   7.218   2.906
72864SOL    HW220490   6.241   7.287   3.038
72865SOL     OW20491   5.738   0.587   9.837
72865SOL    HW120492   5.715   0.604   9.746
72865SOL    HW220493   5.825   0.626   9.848
72866SOL     OW20494  14.454  10.107  11.598
72866SOL    HW120495  14.495  10.191  11.619
72866SOL    HW220496  14.459  10.058  11.680
72867SOL     OW20497  10.629   2.108  11.259
72867SOL    HW120498  10.556   2.127  11.318
72867SOL    HW220499  10.679   2.189  11.254
72868SOL     OW20500   8.139   5.822  10.728
72868SOL    HW120501   8.106   5.855  10.645
72868SOL    HW220502   8.132   5.896  10.789
72869SOL     OW20503  12.624  12.821   1.143
72869SOL    HW120504  12.580  12.890   1.192
72869SOL    HW220505  12.568  12.744   1.156
72870SOL     OW20506   6.718  13.901   6.153
72870SOL    HW120507   6.717  13.858   6.067
72870SOL    HW220508   6.626  13.915   6.174
72871SOL     OW20509   6.175   0.999  13.757
72871SOL    HW120510   6.247   0.993  13.695
72871SOL    HW220511   6.123   1.073  13.726
72872SOL     OW20512   8.859   8.862  10.215
72872SOL    HW120513   8.790   8.849  10.281
72872SOL    HW220514   8.937   8.821  10.254
72873SOL     OW20515   4.267  10.233   5.048
72873SOL    HW120516   4.285  10.143   5.075
72873SOL    HW220517   4.185  10.255   5.091
72874SOL     OW20518   7.202   7.704   7.824
72874SOL    HW120519   7.160   7.691   7.739
72874SOL    HW220520   7.143   7.764   7.871
72875SOL     OW20521   1.599   4.366  14.216
72875SOL    HW120522   1.529   4.346  14.278
72875SOL    HW220523   1.595   4.295  14.152
72876SOL     OW20524   9.405   5.939   4.130
72876SOL    HW120525   9.352   5.952   4.210
72876SOL    HW220526   9.487   5.985   4.148
72877SOL     OW20527  12.373   3.844   1.935
72877SOL    HW120528  12.459   3.857   1.894
72877SOL    HW220529  12.312   3.890   1.878
72878SOL     OW20530   3.578  14.565  10.296
72878SOL    HW120531   3.579  14.471  10.315
72878SOL    HW220532   3.544  14.571  10.206
72879SOL     OW20533   7.261   5.683   0.605
72879SOL    HW120534   7.189   5.686   0.668
72879SOL    HW220535   7.220   5.666   0.521
72880SOL     OW20536  10.365   3.430   6.691
72880SOL    HW120537  10.346   3.413   6.783
72880SOL    HW220538  10.457   3.407   6.680
72881SOL     OW20539   8.552   2.383   8.154
72881SOL    HW120540   8.553   2.323   8.228
72881SOL    HW220541   8.635   2.430   8.160
72882SOL     OW20542   7.842  12.439   4.579
72882SOL    HW120543   7.833  12.534   4.572
72882SOL    HW220544   7.926  12.419   4.537
72883SOL     OW20545   7.599   7.652  13.746
72883SOL    HW120546   7.574   7.742  13.767
72883SOL    HW220547   7.561   7.599  13.816
72884SOL     OW20548  11.907   6.593  12.145
72884SOL    HW120549  11.969   6.663  12.125
72884SOL    HW220550  11.886   6.605  12.238
72885SOL     OW20551   8.138  12.928  11.417
72885SOL    HW120552   8.145  12.843  11.460
72885SOL    HW220553   8.073  12.975  11.469
72886SOL     OW20554  12.607   1.106  12.429
72886SOL    HW120555  12.660   1.047  12.481
72886SOL    HW220556  12.546   1.049  12.381
72887SOL     OW20557  13.876   3.443  14.028
72887SOL    HW120558  13.799   3.392  14.054
72887SOL    HW220559  13.883   3.429  13.933
72888SOL     OW20560   1.524   8.254   2.309
72888SOL    HW120561   1.537   8.289   2.221
72888SOL    HW220562   1.611   8.259   2.350
72889SOL     OW20563   6.513  10.367  13.710
72889SOL    HW120564   6.574  10.300  13.743
72889SOL    HW220565   6.427  10.336  13.738
72890SOL     OW20566  10.505  11.310  13.891
72890SOL    HW120567  10.419  11.350  13.899
72890SOL    HW220568  10.533  11.331  13.802
72891SOL     OW20569  14.472   3.547  10.165
72891SOL    HW120570  14.407   3.490  10.206
72891SOL    HW220571  14.441   3.557  10.075
72892SOL     OW20572  13.475  11.701   0.388
72892SOL    HW120573  13.422  11.764   0.438
72892SOL    HW220574  13.556  11.748   0.368
72893SOL     OW20575   5.276   7.574   8.676
72893SOL    HW120576   5.293   7.600   8.585
72893SOL    HW220577   5.349   7.610   8.726
72894SOL     OW20578   6.599   9.192   7.125
72894SOL    HW120579   6.641   9.186   7.039
72894SOL    HW220580   6.662   9.241   7.178
72895SOL     OW20581  12.870  12.744   5.416
72895SOL    HW120582  12.938  12.681   5.438
72895SOL    HW220583  12.899  12.782   5.333
72896SOL     OW20584  11.680  10.337  13.911
72896SOL    HW120585  11.699  10.397  13.840
72896SOL    HW220586  11.604  10.287  13.881
72897SOL     OW20587  12.537  10.052   5.297
72897SOL    HW120588  12.446  10.043   5.268
72897SOL    HW220589  12.559  10.143   5.277
72898SOL     OW20590   3.328   0.248  12.212
72898SOL    HW120591   3.409   0.288  12.181
72898SOL    HW220592   3.317   0.171  12.156
72899SOL     OW20593  10.759   9.426  11.305
72899SOL    HW120594  10.819   9.480  11.357
72899SOL    HW220595  10.674   9.440  11.346
72900SOL     OW20596   9.884   4.375  10.667
72900SOL    HW120597   9.887   4.336  10.580
72900SOL    HW220598   9.974   4.400  10.686
72901SOL     OW20599  11.776   4.241   8.067
72901SOL    HW120600  11.750   4.319   8.117
72901SOL    HW220601  11.871   4.250   8.057
72902SOL     OW20602   2.882   4.518   4.544
72902SOL    HW120603   2.906   4.449   4.606
72902SOL    HW220604   2.880   4.598   4.597
72903SOL     OW20605   4.619  14.785   0.771
72903SOL    HW120606   4.681  14.713   0.775
72903SOL    HW220607   4.613  14.807   0.678
72904SOL     OW20608   0.667   4.098  12.694
72904SOL    HW120609   0.658   4.149  12.774
72904SOL    HW220610   0.748   4.049  12.706
72905SOL     OW20611   6.905  13.264   9.393
72905SOL    HW120612   6.917  13.350   9.433
72905SOL    HW220613   6.854  13.215   9.458
72906SOL     OW20614   5.789   6.537  11.166
72906SOL    HW120615   5.843   6.475  11.117
72906SOL    HW220616   5.849   6.606  11.192
72907SOL     OW20617   8.342   9.162   3.416
72907SOL    HW120618   8.312   9.084   3.369
72907SOL    HW220619   8.357   9.226   3.347
72908SOL     OW20620   3.168   9.541   8.317
72908SOL    HW120621   3.125   9.529   8.402
72908SOL    HW220622   3.258   9.513   8.331
72909SOL     OW20623   3.286   6.998  14.716
72909SOL    HW120624   3.335   6.934  14.664
72909SOL    HW220625   3.195   6.974  14.703
72910SOL     OW20626  12.429   7.414  13.308
72910SOL    HW120627  12.461   7.363  13.383
72910SOL    HW220628  12.484   7.493  13.308
72911SOL     OW20629   1.154  12.485   4.432
72911SOL    HW120630   1.174  12.497   4.339
72911SOL    HW220631   1.163  12.573   4.470
72912SOL     OW20632  12.464  14.786   9.571
72912SOL    HW120633  12.457  14.876   9.603
72912SOL    HW220634  12.393  14.740   9.615
72913SOL     OW20635   5.067  13.531  13.967
72913SOL    HW120636   4.978  13.551  13.995
72913SOL    HW220637   5.122  13.595  14.013
72914SOL     OW20638  11.601   5.127   8.222
72914SOL    HW120639  11.548   5.109   8.300
72914SOL    HW220640  11.564   5.071   8.154
72915SOL     OW20641  13.146   9.472   2.400
72915SOL    HW120642  13.240   9.452   2.404
72915SOL    HW220643  13.126   9.474   2.307
72916SOL     OW20644   9.202   2.072   2.034
72916SOL    HW120645   9.150   2.151   2.044
72916SOL    HW220646   9.243   2.079   1.948
72917SOL     OW20647  11.003  10.409   0.940
72917SOL    HW120648  10.971  10.319   0.932
72917SOL    HW220649  10.958  10.444   1.017
72918SOL     OW20650   2.103  13.648   9.569
72918SOL    HW120651   2.088  13.712   9.639
72918SOL    HW220652   2.158  13.581   9.610
72919SOL     OW20653   2.851   5.847   1.021
72919SOL    HW120654   2.867   5.755   1.043
72919SOL    HW220655   2.769   5.868   1.066
72920SOL     OW20656   0.428   2.653   7.939
72920SOL    HW120657   0.415   2.640   7.845
72920SOL    HW220658   0.495   2.721   7.945
72921SOL     OW20659  13.032   4.026   9.377
72921SOL    HW120660  13.124   4.052   9.374
72921SOL    HW220661  13.031   3.939   9.338
72922SOL     OW20662   2.781   0.037   1.936
72922SOL    HW120663   2.686   0.035   1.946
72922SOL    HW220664   2.811  14.840   1.969
72923SOL     OW20665   0.554   7.988   2.937
72923SOL    HW120666   0.526   8.066   2.889
72923SOL    HW220667   0.639   7.965   2.899
72924SOL     OW20668  12.980   0.240  10.762
72924SOL    HW120669  12.884   0.242  10.766
72924SOL    HW220670  13.007   0.323  10.803
72925SOL     OW20671   2.732   1.039  12.366
72925SOL    HW120672   2.693   1.089  12.438
72925SOL    HW220673   2.733   0.949  12.398
72926SOL     OW20674   4.862   2.853   3.394
72926SOL    HW120675   4.857   2.944   3.424
72926SOL    HW220676   4.947   2.846   3.351
72927SOL     OW20677   7.413   5.474   9.220
72927SOL    HW120678   7.395   5.435   9.135
72927SOL    HW220679   7.338   5.530   9.238
72928SOL     OW20680  10.210  10.318  13.096
72928SOL    HW120681  10.275  10.296  13.163
72928SOL    HW220682  10.252  10.386  13.043
72929SOL     OW20683   2.236   8.101   2.672
72929SOL    HW120684   2.309   8.145   2.716
72929SOL    HW220685   2.273   8.074   2.588
72930SOL     OW20686   1.170   2.753   8.360
72930SOL    HW120687   1.097   2.698   8.389
72930SOL    HW220688   1.169   2.746   8.264
72931SOL     OW20689   6.804  10.968   8.835
72931SOL    HW120690   6.889  10.997   8.869
72931SOL    HW220691   6.770  10.909   8.902
72932SOL     OW20692   5.824   9.909   4.654
72932SOL    HW120693   5.826  10.004   4.651
72932SOL    HW220694   5.796   9.883   4.566
72933SOL     OW20695  13.863   7.749  14.544
72933SOL    HW120696  13.937   7.808  14.559
72933SOL    HW220697  13.792   7.785  14.597
72934SOL     OW20698   6.889   5.633   4.368
72934SOL    HW120699   6.798   5.607   4.381
72934SOL    HW220700   6.905   5.617   4.275
72935SOL     OW20701  14.664   7.079  11.996
72935SOL    HW120702  14.597   7.010  11.991
72935SOL    HW220703  14.616   7.157  12.022
72936SOL     OW20704  11.130   0.723   5.664
72936SOL    HW120705  11.041   0.757   5.673
72936SOL    HW220706  11.167   0.770   5.589
72937SOL     OW20707   7.911   8.956  10.979
72937SOL    HW120708   7.948   8.996  10.900
72937SOL    HW220709   7.902   9.028  11.041
72938SOL     OW20710   2.269  13.590  11.356
72938SOL    HW120711   2.205  13.575  11.425
72938SOL    HW220712   2.350  13.552  11.390
72939SOL     OW20713   4.403   0.439   0.542
72939SOL    HW120714   4.328   0.496   0.564
72939SOL    HW220715   4.453   0.433   0.624
72940SOL     OW20716  10.298   8.989  10.682
72940SOL    HW120717  10.269   8.951  10.765
72940SOL    HW220718  10.351   9.065  10.708
72941SOL     OW20719   5.854   6.044  13.596
72941SOL    HW120720   5.759   6.039  13.594
72941SOL    HW220721   5.876   6.112  13.532
72942SOL     OW20722   8.427   8.656   0.941
72942SOL    HW120723   8.506   8.643   0.889
72942SOL    HW220724   8.455   8.710   1.015
72943SOL     OW20725   2.700  11.843   6.577
72943SOL    HW120726   2.708  11.763   6.526
72943SOL    HW220727   2.611  11.841   6.612
72944SOL     OW20728  12.144   9.223   4.224
72944SOL    HW120729  12.122   9.315   4.237
72944SOL    HW220730  12.214   9.206   4.288
72945SOL     OW20731   8.891   1.173  12.769
72945SOL    HW120732   8.969   1.118  12.769
72945SOL    HW220733   8.835   1.137  12.702
72946SOL     OW20734  11.055  10.740   0.155
72946SOL    HW120735  11.073  10.712   0.245
72946SOL    HW220736  11.069  10.835   0.157
72947SOL     OW20737   4.092   6.475  11.855
72947SOL    HW120738   4.090   6.444  11.946
72947SOL    HW220739   4.001   6.495  11.835
72948SOL     OW20740  12.894   1.319  12.064
72948SOL    HW120741  12.832   1.258  12.105
72948SOL    HW220742  12.876   1.312  11.971
72949SOL     OW20743  14.295   6.081   4.683
72949SOL    HW120744  14.286   6.148   4.616
72949SOL    HW220745  14.373   6.106   4.733
72950SOL     OW20746  12.964   9.317   7.563
72950SOL    HW120747  13.008   9.363   7.492
72950SOL    HW220748  13.031   9.257   7.598
72951SOL     OW20749   6.884   7.725  14.838
72951SOL    HW120750   6.941   7.742  14.764
72951SOL    HW220751   6.909   7.638  14.869
72952SOL     OW20752  13.166   0.761   7.066
72952SOL    HW120753  13.071   0.775   7.066
72952SOL    HW220754  13.189   0.755   7.158
72953SOL     OW20755   7.328   2.195   2.260
72953SOL    HW120756   7.367   2.111   2.235
72953SOL    HW220757   7.387   2.231   2.325
72954SOL     OW20758   2.184  11.596  12.960
72954SOL    HW120759   2.194  11.604  13.055
72954SOL    HW220760   2.089  11.586  12.947
72955SOL     OW20761   8.934   5.729  11.454
72955SOL    HW120762   8.970   5.817  11.466
72955SOL    HW220763   9.010   5.672  11.445
72956SOL     OW20764  10.127   3.934   6.908
72956SOL    HW120765  10.102   3.898   6.823
72956SOL    HW220766  10.098   4.025   6.906
72957SOL     OW20767   6.703  12.558   8.335
72957SOL    HW120768   6.638  12.501   8.378
72957SOL    HW220769   6.650  12.622   8.287
72958SOL     OW20770   0.932   5.683   5.869
72958SOL    HW120771   0.901   5.661   5.781
72958SOL    HW220772   0.881   5.759   5.895
72959SOL     OW20773   7.505  10.482   6.443
72959SOL    HW120774   7.468  10.397   6.466
72959SOL    HW220775   7.561  10.504   6.518
72960SOL     OW20776   9.873  10.112  10.039
72960SOL    HW120777   9.901  10.059  10.114
72960SOL    HW220778   9.846  10.047   9.973
72961SOL     OW20779  11.058   9.980  10.290
72961SOL    HW120780  10.977   9.993  10.240
72961SOL    HW220781  11.070  10.061  10.340
72962SOL     OW20782   8.277  11.866   1.712
72962SOL    HW120783   8.318  11.888   1.796
72962SOL    HW220784   8.328  11.793   1.678
72963SOL     OW20785  11.524   9.783   4.182
72963SOL    HW120786  11.603   9.816   4.141
72963SOL    HW220787  11.495   9.712   4.125
72964SOL     OW20788   7.971  11.542  14.635
72964SOL    HW120789   7.983  11.583  14.550
72964SOL    HW220790   8.059  11.534  14.672
72965SOL     OW20791   1.303   3.718   7.067
72965SOL    HW120792   1.298   3.649   7.133
72965SOL    HW220793   1.331   3.796   7.114
72966SOL     OW20794  12.398   7.583   7.701
72966SOL    HW120795  12.477   7.530   7.713
72966SOL    HW220796  12.408   7.621   7.613
72967SOL     OW20797   5.915  12.844   1.262
72967SOL    HW120798   5.918  12.916   1.198
72967SOL    HW220799   5.899  12.766   1.210
72968SOL     OW20800  14.797   3.568  14.310
72968SOL    HW120801  14.787   3.474  14.298
72968SOL    HW220802  14.843   3.597  14.232
72969SOL     OW20803   9.709   2.377   3.891
72969SOL    HW120804   9.775   2.376   3.822
72969SOL    HW220805   9.629   2.347   3.848
72970SOL     OW20806   4.801  13.134   8.703
72970SOL    HW120807   4.788  13.150   8.796
72970SOL    HW220808   4.761  13.210   8.660
72971SOL     OW20809   5.348  11.815  10.650
72971SOL    HW120810   5.364  11.828  10.743
72971SOL    HW220811   5.397  11.885  10.608
72972SOL     OW20812   6.086   9.077   3.239
72972SOL    HW120813   6.017   9.141   3.224
72972SOL    HW220814   6.063   9.037   3.323
72973SOL     OW20815   8.531   2.772   6.132
72973SOL    HW120816   8.514   2.805   6.220
72973SOL    HW220817   8.523   2.848   6.075
72974SOL     OW20818  13.021   1.390  10.201
72974SOL    HW120819  12.931   1.361  10.211
72974SOL    HW220820  13.037   1.387  10.107
72975SOL     OW20821  12.130  14.880  14.701
72975SOL    HW120822  12.050   0.033  14.733
72975SOL    HW220823  12.190   0.066  14.687
72976SOL     OW20824   1.367   3.491  14.674
72976SOL    HW120825   1.458   3.516  14.686
72976SOL    HW220826   1.347   3.436  14.750
72977SOL     OW20827  12.236   4.172   4.443
72977SOL    HW120828  12.302   4.159   4.374
72977SOL    HW220829  12.252   4.103   4.506
72978SOL     OW20830   5.528   7.124   2.735
72978SOL    HW120831   5.534   7.074   2.816
72978SOL    HW220832   5.532   7.216   2.762
72979SOL     OW20833  12.272  11.158   5.855
72979SOL    HW120834  12.202  11.223   5.856
72979SOL    HW220835  12.294  11.147   5.763
72980SOL     OW20836  10.995  10.401  11.868
72980SOL    HW120837  10.946  10.404  11.786
72980SOL    HW220838  11.056  10.328  11.858
72981SOL     OW20839  10.574   6.147   3.499
72981SOL    HW120840  10.632   6.071   3.511
72981SOL    HW220841  10.591   6.202   3.575
72982SOL     OW20842   6.819   3.433   3.701
72982SOL    HW120843   6.728   3.424   3.675
72982SOL    HW220844   6.831   3.528   3.714
72983SOL     OW20845  14.077  10.983   0.363
72983SOL    HW120846  14.136  10.975   0.287
72983SOL    HW220847  13.992  10.955   0.330
72984SOL     OW20848   5.134   5.092   6.771
72984SOL    HW120849   5.185   5.130   6.842
72984SOL    HW220850   5.176   5.125   6.691
72985SOL     OW20851   8.180   7.628  13.444
72985SOL    HW120852   8.207   7.551  13.393
72985SOL    HW220853   8.181   7.598  13.535
72986SOL     OW20854   2.334  12.972   3.046
72986SOL    HW120855   2.382  13.050   3.015
72986SOL    HW220856   2.402  12.905   3.054
72987SOL     OW20857   8.409  14.368   6.783
72987SOL    HW120858   8.390  14.278   6.808
72987SOL    HW220859   8.342  14.419   6.829
72988SOL     OW20860   5.019   2.203   9.677
72988SOL    HW120861   4.989   2.268   9.613
72988SOL    HW220862   4.993   2.119   9.641
72989SOL     OW20863   1.471  11.816   3.178
72989SOL    HW120864   1.477  11.863   3.095
72989SOL    HW220865   1.561  11.810   3.209
72990SOL     OW20866  10.947   7.382   3.838
72990SOL    HW120867  10.932   7.288   3.822
72990SOL    HW220868  10.909   7.397   3.924
72991SOL     OW20869  13.267  12.906  12.213
72991SOL    HW120870  13.343  12.896  12.270
72991SOL    HW220871  13.221  12.983  12.247
72992SOL     OW20872  14.777   8.370   6.713
72992SOL    HW120873  14.842   8.311   6.675
72992SOL    HW220874  14.718   8.392   6.641
72993SOL     OW20875   1.155   2.105   8.592
72993SOL    HW120876   1.085   2.118   8.656
72993SOL    HW220877   1.186   2.194   8.572
72994SOL     OW20878  10.528   8.698   3.213
72994SOL    HW120879  10.474   8.774   3.193
72994SOL    HW220880  10.618   8.729   3.204
72995SOL     OW20881   1.321  10.193   8.407
72995SOL    HW120882   1.407  10.192   8.364
72995SOL    HW220883   1.339  10.160   8.495
72996SOL     OW20884  13.259  13.938   6.295
72996SOL    HW120885  13.210  14.007   6.340
72996SOL    HW220886  13.324  13.908   6.358
72997SOL     OW20887   4.851   4.046   6.455
72997SOL    HW120888   4.901   3.991   6.515
72997SOL    HW220889   4.836   4.128   6.504
72998SOL     OW20890  13.644   3.530   4.606
72998SOL    HW120891  13.588   3.587   4.659
72998SOL    HW220892  13.657   3.578   4.524
72999SOL     OW20893   7.658   0.961  14.763
72999SOL    HW120894   7.730   0.955  14.700
72999SOL    HW220895   7.583   0.987  14.711
73000SOL     OW20896  14.249  13.473   7.111
73000SOL    HW120897  14.185  13.511   7.171
73000SOL    HW220898  14.277  13.546   7.056
73001SOL     OW20899   6.042  13.300   8.610
73001SOL    HW120900   6.116  13.360   8.614
73001SOL    HW220901   5.969  13.350   8.646
73002SOL     OW20902  10.038   1.878  12.069
73002SOL    HW120903   9.976   1.845  12.134
73002SOL    HW220904  10.111   1.816  12.072
73003SOL     OW20905   5.807  12.877   6.581
73003SOL    HW120906   5.732  12.897   6.637
73003SOL    HW220907   5.778  12.805   6.525
73004SOL     OW20908   3.869  13.572   7.482
73004SOL    HW120909   3.803  13.544   7.419
73004SOL    HW220910   3.903  13.491   7.519
73005SOL     OW20911   0.497  10.703   4.346
73005SOL    HW120912   0.476  10.725   4.255
73005SOL    HW220913   0.567  10.764   4.370
73006SOL     OW20914   4.532   3.218  12.351
73006SOL    HW120915   4.605   3.215  12.414
73006SOL    HW220916   4.524   3.310  12.327
73007SOL     OW20917  10.802   8.731   2.543
73007SOL    HW120918  10.715   8.771   2.540
73007SOL    HW220919  10.785   8.637   2.549
73008SOL     OW20920   5.461   6.643   4.700
73008SOL    HW120921   5.500   6.718   4.745
73008SOL    HW220922   5.389   6.616   4.756
73009SOL     OW20923   3.477   0.152   4.827
73009SOL    HW120924   3.494   0.189   4.913
73009SOL    HW220925   3.529   0.072   4.824
73010SOL     OW20926  11.619   3.997   8.000
73010SOL    HW120927  11.665   3.929   8.050
73010SOL    HW220928  11.589   4.058   8.067
73011SOL     OW20929  10.252   3.261  13.547
73011SOL    HW120930  10.169   3.244  13.501
73011SOL    HW220931  10.269   3.354  13.533
73012SOL     OW20932  14.315   6.970   3.843
73012SOL    HW120933  14.352   7.057   3.857
73012SOL    HW220934  14.273   6.948   3.927
73013SOL     OW20935  13.359  13.114   1.318
73013SOL    HW120936  13.279  13.108   1.370
73013SOL    HW220937  13.354  13.039   1.259
73014SOL     OW20938   3.946  13.569   4.492
73014SOL    HW120939   3.888  13.606   4.425
73014SOL    HW220940   3.892  13.566   4.571
73015SOL     OW20941   1.786  11.680  10.918
73015SOL    HW120942   1.844  11.631  10.860
73015SOL    HW220943   1.698  11.655  10.890
73016SOL     OW20944   4.131   8.603   8.579
73016SOL    HW120945   4.162   8.680   8.531
73016SOL    HW220946   4.044   8.627   8.610
73017SOL     OW20947  10.780  10.496   9.433
73017SOL    HW120948  10.697  10.525   9.396
73017SOL    HW220949  10.846  10.550   9.389
73018SOL     OW20950  14.402   2.816  12.881
73018SOL    HW120951  14.479   2.856  12.841
73018SOL    HW220952  14.369   2.883  12.942
73019SOL     OW20953   8.965   1.514  13.105
73019SOL    HW120954   8.937   1.424  13.122
73019SOL    HW220955   9.061   1.508  13.099
73020SOL     OW20956  12.685   1.418  11.646
73020SOL    HW120957  12.662   1.383  11.560
73020SOL    HW220958  12.654   1.509  11.644
73021SOL     OW20959   0.740   5.417   3.362
73021SOL    HW120960   0.799   5.474   3.312
73021SOL    HW220961   0.655   5.429   3.320
73022SOL     OW20962  13.503   8.176   1.684
73022SOL    HW120963  13.452   8.220   1.616
73022SOL    HW220964  13.495   8.083   1.664
73023SOL     OW20965   4.658  14.066   9.649
73023SOL    HW120966   4.671  14.079   9.555
73023SOL    HW220967   4.570  14.100   9.666
73024SOL     OW20968   9.976  13.215   9.546
73024SOL    HW120969  10.067  13.214   9.519
73024SOL    HW220970   9.955  13.123   9.565
73025SOL     OW20971   2.703   4.509  10.115
73025SOL    HW120972   2.751   4.584  10.148
73025SOL    HW220973   2.624   4.504  10.169
73026SOL     OW20974  12.531   4.809   9.688
73026SOL    HW120975  12.594   4.771   9.626
73026SOL    HW220976  12.585   4.857   9.751
73027SOL     OW20977   7.987   7.920   4.109
73027SOL    HW120978   8.058   7.973   4.074
73027SOL    HW220979   7.917   7.983   4.127
73028SOL     OW20980   7.022  13.047  13.222
73028SOL    HW120981   7.040  12.954  13.207
73028SOL    HW220982   6.947  13.067  13.167
73029SOL     OW20983   0.750   8.507   5.704
73029SOL    HW120984   0.661   8.540   5.695
73029SOL    HW220985   0.739   8.416   5.731
73030SOL     OW20986   3.138   3.998   0.940
73030SOL    HW120987   3.075   3.927   0.933
73030SOL    HW220988   3.123   4.036   1.027
73031SOL     OW20989   9.873  11.074  13.006
73031SOL    HW120990   9.804  11.056  13.071
73031SOL    HW220991   9.951  11.033  13.042
73032SOL     OW20992   2.652   0.121  11.483
73032SOL    HW120993   2.728   0.064  11.491
73032SOL    HW220994   2.687   0.209  11.487
73033SOL     OW20995  11.416   5.459  12.689
73033SOL    HW120996  11.461   5.380  12.658
73033SOL    HW220997  11.399   5.509  12.609
73034SOL     OW20998   4.453   4.765   6.703
73034SOL    HW120999   4.418   4.676   6.699
73034SOL    HW221000   4.537   4.757   6.748
73035SOL     OW21001   9.211  12.647   5.684
73035SOL    HW121002   9.116  12.639   5.699
73035SOL    HW221003   9.243  12.557   5.682
73036SOL     OW21004  10.582   9.831   1.802
73036SOL    HW121005  10.603   9.744   1.834
73036SOL    HW221006  10.529   9.816   1.724
73037SOL     OW21007   1.817  13.163   8.386
73037SOL    HW121008   1.871  13.230   8.345
73037SOL    HW221009   1.729  13.178   8.351
73038SOL     OW21010  11.828   3.293   6.657
73038SOL    HW121011  11.857   3.376   6.618
73038SOL    HW221012  11.907   3.239   6.660
73039SOL     OW21013  11.788   2.704   1.312
73039SOL    HW121014  11.714   2.687   1.370
73039SOL    HW221015  11.749   2.725   1.228
73040SOL     OW21016   4.824   4.959   4.706
73040SOL    HW121017   4.812   4.950   4.611
73040SOL    HW221018   4.913   4.993   4.716
73041SOL     OW21019   6.866   9.236  10.707
73041SOL    HW121020   6.937   9.177  10.733
73041SOL    HW221021   6.911   9.314  10.675
73042SOL     OW21022   6.347   3.912   6.835
73042SOL    HW121023   6.428   3.962   6.827
73042SOL    HW221024   6.291   3.966   6.891
73043SOL     OW21025   7.986   3.665   9.912
73043SOL    HW121026   7.959   3.751   9.881
73043SOL    HW221027   7.945   3.604   9.850
73044SOL     OW21028   7.028   6.509   9.942
73044SOL    HW121029   7.005   6.576  10.007
73044SOL    HW221030   7.099   6.548   9.891
73045SOL     OW21031   2.887   4.595   1.680
73045SOL    HW121032   2.967   4.563   1.639
73045SOL    HW221033   2.868   4.678   1.636
73046SOL     OW21034   5.885  13.878   1.460
73046SOL    HW121035   5.816  13.929   1.418
73046SOL    HW221036   5.878  13.791   1.421
73047SOL     OW21037   9.980   3.565  11.230
73047SOL    HW121038  10.016   3.653  11.217
73047SOL    HW221039  10.017   3.513  11.159
73048SOL     OW21040  13.842   1.132  11.786
73048SOL    HW121041  13.902   1.079  11.733
73048SOL    HW221042  13.805   1.070  11.849
73049SOL     OW21043   0.756  14.285   7.005
73049SOL    HW121044   0.834  14.249   7.046
73049SOL    HW221045   0.683  14.248   7.054
73050SOL     OW21046   9.889  11.741  10.533
73050SOL    HW121047   9.886  11.645  10.527
73050SOL    HW221048   9.802  11.765  10.564
73051SOL     OW21049   0.167   9.653   2.308
73051SOL    HW121050   0.161   9.558   2.311
73051SOL    HW221051   0.224   9.671   2.233
73052SOL     OW21052   7.255   4.700   8.931
73052SOL    HW121053   7.348   4.681   8.918
73052SOL    HW221054   7.216   4.687   8.845
73053SOL     OW21055   3.501  10.428   2.023
73053SOL    HW121056   3.548  10.504   1.991
73053SOL    HW221057   3.502  10.366   1.950
73054SOL     OW21058   1.926   5.744   2.103
73054SOL    HW121059   2.018   5.761   2.123
73054SOL    HW221060   1.911   5.789   2.020
73055SOL     OW21061   6.515   4.477  13.055
73055SOL    HW121062   6.482   4.542  13.118
73055SOL    HW221063   6.556   4.410  13.110
73056SOL     OW21064   2.612   9.432  12.460
73056SOL    HW121065   2.633   9.429  12.367
73056SOL    HW221066   2.526   9.475  12.464
73057SOL     OW21067  11.512  14.465   1.207
73057SOL    HW121068  11.588  14.426   1.166
73057SOL    HW221069  11.525  14.451   1.301
73058SOL     OW21070  12.622  10.237   4.788
73058SOL    HW121071  12.675  10.158   4.777
73058SOL    HW221072  12.686  10.308   4.793
73059SOL     OW21073  13.417   0.125  13.058
73059SOL    HW121074  13.381   0.109  12.971
73059SOL    HW221075  13.459   0.042  13.082
73060SOL     OW21076   2.471  13.946   6.937
73060SOL    HW121077   2.424  13.895   6.871
73060SOL    HW221078   2.553  13.971   6.894
73061SOL     OW21079   8.912  11.077   4.295
73061SOL    HW121080   8.988  11.018   4.298
73061SOL    HW221081   8.873  11.060   4.209
73062SOL     OW21082   6.219   4.731   6.618
73062SOL    HW121083   6.161   4.669   6.663
73062SOL    HW221084   6.253   4.786   6.688
73063SOL     OW21085   5.220   0.990  14.524
73063SOL    HW121086   5.264   0.947  14.451
73063SOL    HW221087   5.157   1.049  14.482
73064SOL     OW21088   6.374   3.738   0.207
73064SOL    HW121089   6.306   3.777   0.151
73064SOL    HW221090   6.327   3.674   0.261
73065SOL     OW21091  10.430   3.586  11.964
73065SOL    HW121092  10.518   3.593  12.002
73065SOL    HW221093  10.443   3.606  11.871
73066SOL     OW21094  10.033   1.628   5.728
73066SOL    HW121095  10.071   1.543   5.747
73066SOL    HW221096  10.108   1.684   5.707
73067SOL     OW21097   8.143   1.615  13.729
73067SOL    HW121098   8.225   1.649  13.764
73067SOL    HW221099   8.159   1.606  13.635
73068SOL     OW21100  14.734   5.365  13.057
73068SOL    HW121101  14.789   5.441  13.072
73068SOL    HW221102  14.689   5.383  12.974
73069SOL     OW21103  13.101  12.396  12.936
73069SOL    HW121104  13.187  12.360  12.956
73069SOL    HW221105  13.119  12.484  12.902
73070SOL     OW21106   4.433   1.313  12.811
73070SOL    HW121107   4.439   1.401  12.774
73070SOL    HW221108   4.476   1.320  12.897
73071SOL     OW21109   5.714  12.579   5.587
73071SOL    HW121110   5.721  12.592   5.493
73071SOL    HW221111   5.723  12.666   5.624
73072SOL     OW21112   0.884   4.670   9.717
73072SOL    HW121113   0.950   4.648   9.783
73072SOL    HW221114   0.920   4.636   9.635
73073SOL     OW21115  14.289   9.748   2.057
73073SOL    HW121116  14.293   9.819   2.121
73073SOL    HW221117  14.199   9.717   2.062
73074SOL     OW21118  11.512   1.562   6.070
73074SOL    HW121119  11.532   1.567   5.976
73074SOL    HW221120  11.584   1.609   6.112
73075SOL     OW21121   2.396  11.701  13.630
73075SOL    HW121122   2.321  11.722  13.575
73075SOL    HW221123   2.418  11.611  13.608
73076SOL     OW21124  10.609   6.467   1.052
73076SOL    HW121125  10.580   6.402   1.116
73076SOL    HW221126  10.702   6.450   1.040
73077SOL     OW21127   1.648   6.416   5.512
73077SOL    HW121128   1.594   6.385   5.440
73077SOL    HW221129   1.655   6.341   5.571
73078SOL     OW21130   0.940   4.212   4.437
73078SOL    HW121131   0.920   4.119   4.450
73078SOL    HW221132   0.881   4.241   4.368
73079SOL     OW21133   7.386   0.769   6.298
73079SOL    HW121134   7.465   0.715   6.295
73079SOL    HW221135   7.392   0.825   6.220
73080SOL     OW21136   3.065   3.206   2.089
73080SOL    HW121137   3.133   3.140   2.078
73080SOL    HW221138   3.111   3.290   2.082
73081SOL     OW21139   8.459   8.177   3.517
73081SOL    HW121140   8.477   8.098   3.567
73081SOL    HW221141   8.421   8.238   3.580
73082SOL     OW21142  10.056   0.176  14.108
73082SOL    HW121143   9.990   0.108  14.091
73082SOL    HW221144  10.097   0.149  14.190
73083SOL     OW21145   6.993  11.079   3.967
73083SOL    HW121146   7.027  11.064   3.879
73083SOL    HW221147   6.993  11.174   3.977
73084SOL     OW21148   6.340   6.172   3.787
73084SOL    HW121149   6.324   6.264   3.808
73084SOL    HW221150   6.430   6.170   3.754
73085SOL     OW21151   7.211   5.915   7.490
73085SOL    HW121152   7.199   5.903   7.396
73085SOL    HW221153   7.180   5.833   7.529
73086SOL     OW21154   3.754  14.432   1.587
73086SOL    HW121155   3.796  14.493   1.527
73086SOL    HW221156   3.814  14.426   1.661
73087SOL     OW21157   3.245   5.335  13.255
73087SOL    HW121158   3.316   5.282  13.218
73087SOL    HW221159   3.289   5.403  13.305
73088SOL     OW21160   8.862   4.595  10.378
73088SOL    HW121161   8.772   4.609  10.408
73088SOL    HW221162   8.857   4.596  10.283
73089SOL     OW21163   7.430   9.919  10.141
73089SOL    HW121164   7.486   9.913  10.218
73089SOL    HW221165   7.348   9.877  10.168
73090SOL     OW21166   9.183   8.091  10.884
73090SOL    HW121167   9.141   8.055  10.806
73090SOL    HW221168   9.159   8.184  10.884
73091SOL     OW21169   5.620  10.577   5.871
73091SOL    HW121170   5.663  10.644   5.923
73091SOL    HW221171   5.529  10.579   5.901
73092SOL     OW21172   6.283   9.738   0.508
73092SOL    HW121173   6.210   9.794   0.536
73092SOL    HW221174   6.351   9.800   0.480
73093SOL     OW21175   7.629   2.783  14.271
73093SOL    HW121176   7.678   2.702  14.287
73093SOL    HW221177   7.540   2.763  14.300
73094SOL     OW21178   2.456  13.881   9.037
73094SOL    HW121179   2.526  13.907   9.097
73094SOL    HW221180   2.415  13.963   9.011
73095SOL     OW21181   2.133   6.526  13.836
73095SOL    HW121182   2.054   6.473  13.840
73095SOL    HW221183   2.195   6.482  13.894
73096SOL     OW21184   9.986  11.726   3.309
73096SOL    HW121185  10.011  11.756   3.396
73096SOL    HW221186   9.917  11.662   3.324
73097SOL     OW21187   2.507   7.361   1.099
73097SOL    HW121188   2.527   7.333   1.188
73097SOL    HW221189   2.413   7.381   1.100
73098SOL     OW21190   2.379   8.576   6.495
73098SOL    HW121191   2.427   8.507   6.451
73098SOL    HW221192   2.398   8.655   6.445
73099SOL     OW21193  12.096  11.915   9.439
73099SOL    HW121194  12.004  11.898   9.457
73099SOL    HW221195  12.104  11.907   9.344
73100SOL     OW21196   7.292   1.649   7.764
73100SOL    HW121197   7.199   1.629   7.754
73100SOL    HW221198   7.333   1.614   7.685
73101SOL     OW21199  11.287   2.284   7.481
73101SOL    HW121200  11.291   2.295   7.386
73101SOL    HW221201  11.205   2.328   7.506
73102SOL     OW21202  10.649  10.930  14.135
73102SOL    HW121203  10.731  10.959  14.095
73102SOL    HW221204  10.591  11.006  14.128
73103SOL     OW21205   6.299   0.249   2.704
73103SOL    HW121206   6.282   0.261   2.611
73103SOL    HW221207   6.224   0.200   2.736
73104SOL     OW21208   5.539  10.461  12.145
73104SOL    HW121209   5.503  10.530  12.201
73104SOL    HW221210   5.633  10.478  12.142
73105SOL     OW21211   0.409  12.545   6.646
73105SOL    HW121212   0.335  12.591   6.686
73105SOL    HW221213   0.481  12.607   6.651
73106SOL     OW21214  14.388  12.283   9.300
73106SOL    HW121215  14.304  12.282   9.346
73106SOL    HW221216  14.453  12.299   9.369
73107SOL     OW21217   5.918   9.563   0.423
73107SOL    HW121218   5.994   9.537   0.371
73107SOL    HW221219   5.943   9.647   0.461
73108SOL     OW21220   6.861  13.444   1.146
73108SOL    HW121221   6.878  13.443   1.240
73108SOL    HW221222   6.907  13.366   1.113
73109SOL     OW21223   2.055   4.871  13.040
73109SOL    HW121224   2.123   4.937  13.054
73109SOL    HW221225   1.981   4.920  13.004
73110SOL     OW21226  10.603   5.605   6.929
73110SOL    HW121227  10.665   5.663   6.883
73110SOL    HW221228  10.552   5.565   6.859
73111SOL     OW21229  11.037   1.847  12.781
73111SOL    HW121230  11.067   1.938  12.784
73111SOL    HW221231  11.088   1.803  12.849
73112SOL     OW21232   5.624   4.906   0.128
73112SOL    HW121233   5.538   4.932   0.095
73112SOL    HW221234   5.632   4.949   0.213
73113SOL     OW21235   3.627  14.809   4.851
73113SOL    HW121236   3.592  14.746   4.914
73113SOL    HW221237   3.721  14.795   4.851
73114SOL     OW21238   5.766   9.551   0.725
73114SOL    HW121239   5.857   9.579   0.720
73114SOL    HW221240   5.764   9.465   0.684
73115SOL     OW21241   0.003   6.016   2.453
73115SOL    HW121242  14.851   6.077   2.516
73115SOL    HW221243   0.027   5.940   2.506
73116SOL     OW21244  10.674  12.739   2.368
73116SOL    HW121245  10.706  12.827   2.389
73116SOL    HW221246  10.695  12.687   2.446
73117SOL     OW21247  12.433  12.643   6.308
73117SOL    HW121248  12.470  12.721   6.266
73117SOL    HW221249  12.373  12.678   6.374
73118SOL     OW21250  10.149   8.252   9.563
73118SOL    HW121251  10.119   8.341   9.546
73118SOL    HW221252  10.131   8.205   9.481
73119SOL     OW21253   5.495   6.113  10.896
73119SOL    HW121254   5.569   6.174  10.893
73119SOL    HW221255   5.519   6.043  10.835
73120SOL     OW21256   1.551   7.700  13.426
73120SOL    HW121257   1.624   7.672  13.481
73120SOL    HW221258   1.482   7.724  13.487
73121SOL     OW21259   2.627  12.154   4.711
73121SOL    HW121260   2.627  12.216   4.784
73121SOL    HW221261   2.579  12.078   4.744
73122SOL     OW21262  12.853   0.921  11.456
73122SOL    HW121263  12.834   0.866  11.532
73122SOL    HW221264  12.768   0.936  11.416
73123SOL     OW21265   0.688   8.886   0.443
73123SOL    HW121266   0.646   8.802   0.462
73123SOL    HW221267   0.780   8.864   0.431
73124SOL     OW21268   0.779  14.619  11.909
73124SOL    HW121269   0.729  14.541  11.886
73124SOL    HW221270   0.864  14.605  11.867
73125SOL     OW21271  10.625   6.792   7.241
73125SOL    HW121272  10.640   6.798   7.147
73125SOL    HW221273  10.666   6.709   7.266
73126SOL     OW21274  13.940  10.583   4.985
73126SOL    HW121275  13.890  10.612   4.909
73126SOL    HW221276  13.898  10.501   5.011
73127SOL     OW21277  14.136  10.747   0.922
73127SOL    HW121278  14.228  10.721   0.922
73127SOL    HW221279  14.119  10.773   1.012
73128SOL     OW21280  14.507   9.859   6.121
73128SOL    HW121281  14.460   9.897   6.047
73128SOL    HW221282  14.588   9.824   6.083
73129SOL     OW21283   0.802   9.131   0.747
73129SOL    HW121284   0.781   9.058   0.806
73129SOL    HW221285   0.871   9.179   0.793
73130SOL     OW21286   3.797   3.041   4.779
73130SOL    HW121287   3.810   2.956   4.821
73130SOL    HW221288   3.868   3.096   4.813
73131SOL     OW21289   6.346   3.693   5.937
73131SOL    HW121290   6.278   3.658   5.880
73131SOL    HW221291   6.306   3.771   5.978
73132SOL     OW21292   2.630   0.376  13.598
73132SOL    HW121293   2.617   0.282  13.585
73132SOL    HW221294   2.654   0.384  13.690
73133SOL     OW21295   6.931  14.312   3.200
73133SOL    HW121296   6.858  14.335   3.257
73133SOL    HW221297   6.904  14.341   3.113
73134SOL     OW21298   3.242  13.681  13.130
73134SOL    HW121299   3.247  13.775  13.144
73134SOL    HW221300   3.213  13.645  13.214
73135SOL     OW21301   8.193  10.711   1.429
73135SOL    HW121302   8.124  10.649   1.404
73135SOL    HW221303   8.153  10.764   1.498
73136SOL     OW21304  14.490   2.112   3.123
73136SOL    HW121305  14.511   2.203   3.101
73136SOL    HW221306  14.450   2.077   3.043
73137SOL     OW21307   4.640  13.214  10.220
73137SOL    HW121308   4.689  13.134  10.199
73137SOL    HW221309   4.610  13.200  10.310
73138SOL     OW21310   5.032  11.422   9.504
73138SOL    HW121311   5.098  11.361   9.538
73138SOL    HW221312   4.981  11.448   9.580
73139SOL     OW21313   5.123  12.896   9.862
73139SOL    HW121314   5.197  12.839   9.842
73139SOL    HW221315   5.105  12.942   9.780
73140SOL     OW21316  13.880  10.120  14.271
73140SOL    HW121317  13.939  10.149  14.340
73140SOL    HW221318  13.936  10.068  14.213
73141SOL     OW21319   2.947   7.987  10.614
73141SOL    HW121320   3.030   7.961  10.653
73141SOL    HW221321   2.941   7.935  10.533
73142SOL     OW21322   8.286   8.066  14.060
73142SOL    HW121323   8.361   8.029  14.015
73142SOL    HW221324   8.215   8.004  14.044
73143SOL     OW21325   9.742   9.806   6.210
73143SOL    HW121326   9.729   9.805   6.116
73143SOL    HW221327   9.699   9.726   6.241
73144SOL     OW21328   9.843   9.675   9.786
73144SOL    HW121329   9.826   9.608   9.720
73144SOL    HW221330   9.782   9.654   9.857
73145SOL     OW21331   5.790   4.123   1.320
73145SOL    HW121332   5.837   4.206   1.308
73145SOL    HW221333   5.734   4.139   1.396
73146SOL     OW21334  13.647   9.073   7.857
73146SOL    HW121335  13.691   9.088   7.941
73146SOL    HW221336  13.637   8.978   7.851
73147SOL     OW21337   3.640   5.482   0.164
73147SOL    HW121338   3.588   5.474   0.244
73147SOL    HW221339   3.731   5.487   0.194
73148SOL     OW21340   8.442   4.482  11.128
73148SOL    HW121341   8.522   4.532  11.144
73148SOL    HW221342   8.402   4.472  11.214
73149SOL     OW21343  10.866  14.198   9.721
73149SOL    HW121344  10.918  14.277   9.738
73149SOL    HW221345  10.931  14.134   9.691
73150SOL     OW21346   3.007   9.671   3.245
73150SOL    HW121347   3.037   9.676   3.336
73150SOL    HW221348   2.911   9.675   3.252
73151SOL     OW21349  14.529   4.802   1.592
73151SOL    HW121350  14.507   4.785   1.683
73151SOL    HW221351  14.615   4.842   1.595
73152SOL     OW21352   9.150   6.971   8.564
73152SOL    HW121353   9.234   6.934   8.592
73152SOL    HW221354   9.117   7.016   8.642
73153SOL     OW21355   5.627  13.538  10.588
73153SOL    HW121356   5.603  13.630  10.576
73153SOL    HW221357   5.718  13.533  10.559
73154SOL     OW21358   6.221  14.156  13.415
73154SOL    HW121359   6.196  14.228  13.472
73154SOL    HW221360   6.161  14.163  13.340
73155SOL     OW21361   8.333   8.122  10.145
73155SOL    HW121362   8.295   8.119  10.233
73155SOL    HW221363   8.339   8.030  10.118
73156SOL     OW21364   6.173  13.120   6.072
73156SOL    HW121365   6.231  13.182   6.028
73156SOL    HW221366   6.087  13.134   6.033
73157SOL     OW21367  12.893   5.723   3.329
73157SOL    HW121368  12.820   5.783   3.347
73157SOL    HW221369  12.970   5.780   3.326
73158SOL     OW21370   2.185  11.058   6.642
73158SOL    HW121371   2.137  10.999   6.583
73158SOL    HW221372   2.155  11.036   6.729
73159SOL     OW21373  11.880  12.217  12.755
73159SOL    HW121374  11.858  12.273  12.680
73159SOL    HW221375  11.808  12.230  12.817
73160SOL     OW21376   8.085  11.040  14.615
73160SOL    HW121377   8.104  11.099  14.541
73160SOL    HW221378   7.990  11.045  14.626
73161SOL     OW21379   0.249  11.984   0.534
73161SOL    HW121380   0.192  11.996   0.458
73161SOL    HW221381   0.190  11.986   0.609
73162SOL     OW21382   3.007   3.111   0.063
73162SOL    HW121383   3.075   3.139   0.002
73162SOL    HW221384   2.944   3.183   0.065
73163SOL     OW21385   8.211   7.864  13.802
73163SOL    HW121386   8.191   7.824  13.717
73163SOL    HW221387   8.264   7.941  13.780
73164SOL     OW21388  10.334   5.369   1.342
73164SOL    HW121389  10.303   5.457   1.363
73164SOL    HW221390  10.341   5.367   1.247
73165SOL     OW21391   3.656   6.117  13.616
73165SOL    HW121392   3.732   6.074  13.576
73165SOL    HW221393   3.628   6.181  13.550
73166SOL     OW21394   9.027  10.485   9.132
73166SOL    HW121395   8.975  10.409   9.105
73166SOL    HW221396   9.052  10.465   9.223
73167SOL     OW21397   7.789   1.672   4.166
73167SOL    HW121398   7.858   1.735   4.187
73167SOL    HW221399   7.718   1.725   4.130
73168SOL     OW21400  12.876  13.180  12.395
73168SOL    HW121401  12.925  13.101  12.419
73168SOL    HW221402  12.787  13.149  12.379
73169SOL     OW21403   7.646   8.682   1.354
73169SOL    HW121404   7.589   8.758   1.367
73169SOL    HW221405   7.612   8.616   1.414
73170SOL     OW21406   3.584  10.891   3.306
73170SOL    HW121407   3.619  10.980   3.309
73170SOL    HW221408   3.656  10.839   3.270
73171SOL     OW21409   5.676  11.010   0.010
73171SOL    HW121410   5.720  11.080  14.849
73171SOL    HW221411   5.587  11.042   0.023
73172SOL     OW21412  10.219   7.810   5.723
73172SOL    HW121413  10.272   7.751   5.776
73172SOL    HW221414  10.198   7.758   5.645
73173SOL     OW21415   8.401   7.538   6.496
73173SOL    HW121416   8.332   7.595   6.462
73173SOL    HW221417   8.482   7.584   6.477
73174SOL     OW21418   1.380  10.966  11.413
73174SOL    HW121419   1.422  10.979  11.497
73174SOL    HW221420   1.345  11.051  11.389
73175SOL     OW21421   0.642   8.302   7.853
73175SOL    HW121422   0.622   8.284   7.762
73175SOL    HW221423   0.650   8.397   7.858
73176SOL     OW21424  12.020  11.507   7.528
73176SOL    HW121425  12.101  11.457   7.537
73176SOL    HW221426  12.030  11.580   7.588
73177SOL     OW21427  11.395  14.747  13.772
73177SOL    HW121428  11.319  14.803  13.756
73177SOL    HW221429  11.358  14.670  13.817
73178SOL     OW21430   3.010  10.121  12.578
73178SOL    HW121431   2.941  10.170  12.623
73178SOL    HW221432   3.077  10.187  12.558
73179SOL     OW21433  11.945  14.505  10.675
73179SOL    HW121434  11.961  14.487  10.583
73179SOL    HW221435  11.859  14.546  10.678
73180SOL     OW21436   5.967  11.146   3.977
73180SOL    HW121437   6.051  11.109   4.002
73180SOL    HW221438   5.906  11.115   4.043
73181SOL     OW21439  14.162   2.486   8.937
73181SOL    HW121440  14.094   2.420   8.927
73181SOL    HW221441  14.142   2.529   9.020
73182SOL     OW21442  12.269   1.272  13.336
73182SOL    HW121443  12.173   1.278  13.334
73182SOL    HW221444  12.293   1.242  13.249
73183SOL     OW21445   1.250   6.381   9.558
73183SOL    HW121446   1.274   6.442   9.627
73183SOL    HW221447   1.256   6.433   9.477
73184SOL     OW21448   1.782   2.563   2.847
73184SOL    HW121449   1.823   2.486   2.886
73184SOL    HW221450   1.852   2.628   2.841
73185SOL     OW21451   8.485   6.133   5.738
73185SOL    HW121452   8.474   6.166   5.649
73185SOL    HW221453   8.427   6.188   5.791
73186SOL     OW21454  11.043  13.049   5.573
73186SOL    HW121455  11.076  13.136   5.597
73186SOL    HW221456  11.029  13.005   5.657
73187SOL     OW21457  11.916  10.984  10.040
73187SOL    HW121458  11.920  10.994   9.945
73187SOL    HW221459  11.895  10.892  10.054
73188SOL     OW21460   7.334   8.705   3.705
73188SOL    HW121461   7.339   8.801   3.697
73188SOL    HW221462   7.254   8.690   3.757
73189SOL     OW21463   6.238   2.129  13.848
73189SOL    HW121464   6.308   2.187  13.879
73189SOL    HW221465   6.160   2.160  13.894
73190SOL     OW21466   6.279  11.986  10.106
73190SOL    HW121467   6.282  11.936  10.024
73190SOL    HW221468   6.206  11.947  10.154
73191SOL     OW21469   0.432  12.832  12.421
73191SOL    HW121470   0.525  12.853  12.417
73191SOL    HW221471   0.388  12.915  12.402
73192SOL     OW21472   0.743  14.676   0.086
73192SOL    HW121473   0.696  14.599   0.120
73192SOL    HW221474   0.709  14.749   0.138
73193SOL     OW21475   0.243  11.652   9.483
73193SOL    HW121476   0.256  11.600   9.404
73193SOL    HW221477   0.316  11.629   9.540
73194SOL     OW21478  10.219   3.378   4.587
73194SOL    HW121479  10.215   3.407   4.678
73194SOL    HW221480  10.138   3.327   4.575
73195SOL     OW21481   3.486   0.644   6.671
73195SOL    HW121482   3.552   0.702   6.634
73195SOL    HW221483   3.445   0.695   6.741
73196SOL     OW21484   2.717  14.623   7.762
73196SOL    HW121485   2.681  14.685   7.825
73196SOL    HW221486   2.696  14.537   7.798
73197SOL     OW21487  12.239  12.215   6.287
73197SOL    HW121488  12.334  12.201   6.287
73197SOL    HW221489  12.202  12.127   6.276
73198SOL     OW21490   8.825  12.042  12.792
73198SOL    HW121491   8.835  12.137  12.793
73198SOL    HW221492   8.796  12.020  12.880
73199SOL     OW21493   8.138  13.656  12.543
73199SOL    HW121494   8.047  13.650  12.573
73199SOL    HW221495   8.133  13.709  12.464
73200SOL     OW21496  11.843   9.426   7.346
73200SOL    HW121497  11.773   9.380   7.393
73200SOL    HW221498  11.845   9.513   7.386
73201SOL     OW21499  12.301   8.194   5.723
73201SOL    HW121500  12.213   8.225   5.746
73201SOL    HW221501  12.296   8.171   5.631
73202SOL     OW21502  10.723   4.958  14.604
73202SOL    HW121503  10.703   5.051  14.595
73202SOL    HW221504  10.783   4.939  14.532
73203SOL     OW21505   8.737  14.202  14.206
73203SOL    HW121506   8.710  14.154  14.128
73203SOL    HW221507   8.657  14.242  14.239
73204SOL     OW21508  11.113   0.057   9.524
73204SOL    HW121509  11.087   0.146   9.502
73204SOL    HW221510  11.184   0.066   9.587
73205SOL     OW21511   4.378  14.234   6.302
73205SOL    HW121512   4.441  14.297   6.268
73205SOL    HW221513   4.371  14.255   6.395
73206SOL     OW21514  12.018  11.475   0.363
73206SOL    HW121515  11.998  11.438   0.449
73206SOL    HW221516  12.048  11.400   0.311
73207SOL     OW21517   9.621   6.358   3.779
73207SOL    HW121518   9.645   6.289   3.841
73207SOL    HW221519   9.545   6.401   3.820
73208SOL     OW21520   4.802  10.356  14.074
73208SOL    HW121521   4.889  10.372  14.112
73208SOL    HW221522   4.786  10.263  14.090
73209SOL     OW21523  10.335  11.797   8.402
73209SOL    HW121524  10.282  11.732   8.356
73209SOL    HW221525  10.282  11.820   8.479
73210SOL     OW21526   3.662   2.306   0.249
73210SOL    HW121527   3.615   2.227   0.222
73210SOL    HW221528   3.657   2.364   0.172
73211SOL     OW21529   7.575   7.508   9.129
73211SOL    HW121530   7.669   7.508   9.108
73211SOL    HW221531   7.562   7.431   9.183
73212SOL     OW21532   7.473   7.544   4.678
73212SOL    HW121533   7.419   7.472   4.710
73212SOL    HW221534   7.417   7.592   4.617
73213SOL     OW21535   8.493  10.648   0.708
73213SOL    HW121536   8.553  10.668   0.636
73213SOL    HW221537   8.509  10.717   0.773
73214SOL     OW21538   5.891   7.702  12.186
73214SOL    HW121539   5.877   7.665  12.273
73214SOL    HW221540   5.967   7.759  12.195
73215SOL     OW21541  14.805   2.862   9.847
73215SOL    HW121542  14.828   2.782   9.893
73215SOL    HW221543   0.002   2.902   9.825
73216SOL     OW21544  10.577   0.894   4.893
73216SOL    HW121545  10.669   0.867   4.885
73216SOL    HW221546  10.571   0.932   4.981
73217SOL     OW21547  10.521   5.187  12.718
73217SOL    HW121548  10.439   5.192  12.670
73217SOL    HW221549  10.501   5.134  12.795
73218SOL     OW21550  11.350  10.654   1.316
73218SOL    HW121551  11.400  10.725   1.277
73218SOL    HW221552  11.259  10.679   1.304
73219SOL     OW21553   5.101   0.883   6.465
73219SOL    HW121554   5.026   0.934   6.434
73219SOL    HW221555   5.070   0.844   6.547
73220SOL     OW21556  13.758   5.746  10.338
73220SOL    HW121557  13.797   5.826  10.376
73220SOL    HW221558  13.833   5.694  10.310
73221SOL     OW21559  14.138   6.006  13.320
73221SOL    HW121560  14.154   6.078  13.258
73221SOL    HW221561  14.095   6.049  13.394
73222SOL     OW21562  14.691  11.798   7.070
73222SOL    HW121563  14.661  11.875   7.118
73222SOL    HW221564  14.729  11.833   6.990
73223SOL     OW21565  10.660  14.827   4.178
73223SOL    HW121566  10.737  14.792   4.224
73223SOL    HW221567  10.632  14.755   4.121
73224SOL     OW21568   6.379   2.946   9.771
73224SOL    HW121569   6.430   3.006   9.825
73224SOL    HW221570   6.411   2.859   9.794
73225SOL     OW21571   8.576  11.745   7.535
73225SOL    HW121572   8.506  11.800   7.500
73225SOL    HW221573   8.649  11.806   7.551
73226SOL     OW21574   4.373   7.387   4.069
73226SOL    HW121575   4.281   7.377   4.048
73226SOL    HW221576   4.401   7.299   4.094
73227SOL     OW21577   5.966   4.259   1.611
73227SOL    HW121578   5.915   4.196   1.559
73227SOL    HW221579   6.015   4.205   1.672
73228SOL     OW21580  14.396  14.303   1.642
73228SOL    HW121581  14.360  14.215   1.654
73228SOL    HW221582  14.459  14.295   1.571
73229SOL     OW21583  14.422   6.122   2.159
73229SOL    HW121584  14.328   6.114   2.178
73229SOL    HW221585  14.463   6.133   2.245
73230SOL     OW21586   7.804   4.801  14.604
73230SOL    HW121587   7.738   4.871  14.605
73230SOL    HW221588   7.852   4.813  14.686
73231SOL     OW21589  12.875   6.633   7.018
73231SOL    HW121590  12.907   6.556   6.971
73231SOL    HW221591  12.790   6.606   7.053
73232SOL     OW21592   8.289  11.348   9.551
73232SOL    HW121593   8.364  11.405   9.542
73232SOL    HW221594   8.275  11.312   9.464
73233SOL     OW21595   9.905  10.612  10.055
73233SOL    HW121596   9.811  10.618  10.067
73233SOL    HW221597   9.941  10.630  10.142
73234SOL     OW21598  14.043   0.527   2.592
73234SOL    HW121599  13.962   0.570   2.567
73234SOL    HW221600  14.103   0.542   2.520
73235SOL     OW21601  14.814   4.899   7.962
73235SOL    HW121602  14.763   4.837   7.911
73235SOL    HW221603  14.772   4.901   8.048
73236SOL     OW21604   3.314  10.622  13.819
73236SOL    HW121605   3.315  10.531  13.848
73236SOL    HW221606   3.319  10.617  13.724
73237SOL     OW21607   6.464   7.657   5.582
73237SOL    HW121608   6.418   7.639   5.664
73237SOL    HW221609   6.418   7.731   5.544
73238SOL     OW21610  13.766   2.612  10.056
73238SOL    HW121611  13.774   2.699  10.096
73238SOL    HW221612  13.688   2.574  10.096
73239SOL     OW21613  12.321  12.088  11.169
73239SOL    HW121614  12.279  12.165  11.133
73239SOL    HW221615  12.412  12.095  11.141
73240SOL     OW21616   1.883   0.530   7.163
73240SOL    HW121617   1.941   0.457   7.144
73240SOL    HW221618   1.910   0.561   7.250
73241SOL     OW21619   3.972   5.857  13.809
73241SOL    HW121620   3.900   5.917  13.823
73241SOL    HW221621   4.049   5.902  13.845
73242SOL     OW21622  10.007   9.307   6.847
73242SOL    HW121623  10.084   9.268   6.887
73242SOL    HW221624  10.030   9.399   6.835
73243SOL     OW21625  11.057  14.496  11.831
73243SOL    HW121626  11.039  14.402  11.838
73243SOL    HW221627  11.087  14.508  11.741
73244SOL     OW21628   2.154   3.458   2.114
73244SOL    HW121629   2.067   3.463   2.074
73244SOL    HW221630   2.146   3.389   2.180
73245SOL     OW21631   2.234   1.498   5.882
73245SOL    HW121632   2.273   1.537   5.960
73245SOL    HW221633   2.240   1.404   5.897
73246SOL     OW21634   3.003   7.333   8.731
73246SOL    HW121635   2.925   7.359   8.682
73246SOL    HW221636   2.969   7.296   8.812
73247SOL     OW21637   3.076   8.670   6.365
73247SOL    HW121638   3.158   8.718   6.364
73247SOL    HW221639   3.045   8.677   6.456
73248SOL     OW21640   8.941   3.371   9.337
73248SOL    HW121641   8.937   3.396   9.430
73248SOL    HW221642   8.858   3.401   9.301
73249SOL     OW21643  14.709  13.990   5.285
73249SOL    HW121644  14.676  14.063   5.233
73249SOL    HW221645  14.661  13.996   5.368
73250SOL     OW21646  12.278   8.639  12.823
73250SOL    HW121647  12.290   8.615  12.915
73250SOL    HW221648  12.222   8.570  12.787
73251SOL     OW21649   9.028   5.653   5.374
73251SOL    HW121650   9.115   5.614   5.373
73251SOL    HW221651   9.018   5.694   5.288
73252SOL     OW21652  12.861   8.702   5.622
73252SOL    HW121653  12.790   8.766   5.633
73252SOL    HW221654  12.921   8.721   5.694
73253SOL     OW21655   2.463  13.789   6.483
73253SOL    HW121656   2.552  13.752   6.485
73253SOL    HW221657   2.446  13.815   6.574
73254SOL     OW21658   4.814   1.989   0.176
73254SOL    HW121659   4.815   1.913   0.118
73254SOL    HW221660   4.737   1.975   0.232
73255SOL     OW21661  10.741  12.739  10.083
73255SOL    HW121662  10.782  12.709  10.165
73255SOL    HW221663  10.688  12.814  10.109
73256SOL     OW21664   6.049   5.133  12.756
73256SOL    HW121665   6.022   5.119  12.847
73256SOL    HW221666   6.005   5.063  12.708
73257SOL     OW21667   5.124   0.268  14.227
73257SOL    HW121668   5.047   0.314  14.262
73257SOL    HW221669   5.122   0.287  14.133
73258SOL     OW21670   9.931   1.484   4.688
73258SOL    HW121671   9.851   1.431   4.689
73258SOL    HW221672   9.901   1.574   4.698
73259SOL     OW21673   4.903  10.942   0.122
73259SOL    HW121674   4.858  10.917   0.203
73259SOL    HW221675   4.993  10.958   0.148
73260SOL     OW21676  11.968   2.272  13.179
73260SOL    HW121677  12.046   2.327  13.169
73260SOL    HW221678  11.905   2.309  13.116
73261SOL     OW21679   7.807  14.106   7.215
73261SOL    HW121680   7.879  14.160   7.248
73261SOL    HW221681   7.798  14.037   7.280
73262SOL     OW21682   4.502   7.861  11.810
73262SOL    HW121683   4.549   7.904  11.882
73262SOL    HW221684   4.572   7.827  11.754
73263SOL     OW21685   5.735   6.590  14.373
73263SOL    HW121686   5.818   6.548  14.353
73263SOL    HW221687   5.668   6.529  14.342
73264SOL     OW21688   0.095   4.606   6.256
73264SOL    HW121689   0.124   4.515   6.263
73264SOL    HW221690   0.080   4.620   6.163
73265SOL     OW21691   3.625  10.011   9.907
73265SOL    HW121692   3.662  10.022   9.819
73265SOL    HW221693   3.695   9.970   9.957
73266SOL     OW21694  12.497   4.537   8.665
73266SOL    HW121695  12.562   4.570   8.728
73266SOL    HW221696  12.524   4.575   8.581
73267SOL     OW21697   7.405   2.327   7.037
73267SOL    HW121698   7.475   2.371   6.989
73267SOL    HW221699   7.396   2.242   6.994
73268SOL     OW21700   9.918   1.563   6.379
73268SOL    HW121701   9.950   1.487   6.331
73268SOL    HW221702   9.911   1.632   6.313
73269SOL     OW21703   3.619  12.939   2.054
73269SOL    HW121704   3.599  12.912   1.964
73269SOL    HW221705   3.715  12.938   2.057
73270SOL     OW21706   2.576   6.793   0.875
73270SOL    HW121707   2.540   6.705   0.878
73270SOL    HW221708   2.531   6.840   0.944
73271SOL     OW21709  13.749  12.209  12.463
73271SOL    HW121710  13.813  12.180  12.397
73271SOL    HW221711  13.715  12.291  12.428
73272SOL     OW21712  14.069   7.754   1.980
73272SOL    HW121713  14.022   7.672   1.963
73272SOL    HW221714  14.006   7.823   1.959
73273SOL     OW21715   7.553   7.675  10.262
73273SOL    HW121716   7.623   7.643  10.205
73273SOL    HW221717   7.551   7.769  10.246
73274SOL     OW21718   5.616  12.194  14.668
73274SOL    HW121719   5.524  12.219  14.655
73274SOL    HW221720   5.612  12.111  14.714
73275SOL     OW21721  13.424  13.570   1.455
73275SOL    HW121722  13.499  13.607   1.501
73275SOL    HW221723  13.384  13.645   1.410
73276SOL     OW21724   2.598   9.211  10.025
73276SOL    HW121725   2.677   9.253  10.060
73276SOL    HW221726   2.597   9.236   9.933
73277SOL     OW21727  14.822   1.608   8.295
73277SOL    HW121728  14.728   1.600   8.311
73277SOL    HW221729  14.855   1.518   8.305
73278SOL     OW21730  13.485  13.963   2.540
73278SOL    HW121731  13.552  13.917   2.591
73278SOL    HW221732  13.504  13.939   2.449
73279SOL     OW21733   3.576  14.298   4.081
73279SOL    HW121734   3.520  14.269   4.153
73279SOL    HW221735   3.587  14.392   4.095
73280SOL     OW21736   8.728   3.004  13.735
73280SOL    HW121737   8.701   3.096  13.727
73280SOL    HW221738   8.664   2.965  13.794
73281SOL     OW21739   6.665   0.671  13.822
73281SOL    HW121740   6.660   0.762  13.850
73281SOL    HW221741   6.616   0.623  13.889
73282SOL     OW21742   5.894  11.455   8.632
73282SOL    HW121743   5.857  11.367   8.639
73282SOL    HW221744   5.819  11.514   8.642
73283SOL     OW21745   8.874   3.446  13.177
73283SOL    HW121746   8.939   3.446  13.107
73283SOL    HW221747   8.903   3.515  13.237
73284SOL     OW21748   9.571  11.386  10.730
73284SOL    HW121749   9.541  11.435  10.654
73284SOL    HW221750   9.551  11.295  10.708
73285SOL     OW21751   9.141   5.741   4.191
73285SOL    HW121752   9.181   5.707   4.111
73285SOL    HW221753   9.057   5.778   4.163
73286SOL     OW21754  11.294  11.927   8.621
73286SOL    HW121755  11.236  11.852   8.606
73286SOL    HW221756  11.379  11.900   8.587
73287SOL     OW21757  10.897  12.606   9.467
73287SOL    HW121758  10.940  12.535   9.420
73287SOL    HW221759  10.879  12.672   9.400
73288SOL     OW21760   3.161   4.545   1.677
73288SOL    HW121761   3.190   4.498   1.755
73288SOL    HW221762   3.158   4.479   1.608
73289SOL     OW21763   2.271   7.135   1.026
73289SOL    HW121764   2.276   7.186   1.107
73289SOL    HW221765   2.200   7.073   1.042
73290SOL     OW21766   4.478   8.545   1.146
73290SOL    HW121767   4.500   8.592   1.226
73290SOL    HW221768   4.504   8.455   1.162
73291SOL     OW21769   9.056   9.351  12.203
73291SOL    HW121770   9.027   9.270  12.162
73291SOL    HW221771   8.989   9.415  12.179
73292SOL     OW21772  10.153   0.185   7.071
73292SOL    HW121773  10.218   0.228   7.125
73292SOL    HW221774  10.148   0.096   7.105
73293SOL     OW21775   5.602   9.218   3.539
73293SOL    HW121776   5.538   9.147   3.537
73293SOL    HW221777   5.553   9.294   3.507
73294SOL     OW21778   9.563   7.334  10.433
73294SOL    HW121779   9.647   7.296  10.406
73294SOL    HW221780   9.584   7.424  10.458
73295SOL     OW21781   5.008   4.298   7.371
73295SOL    HW121782   5.063   4.235   7.323
73295SOL    HW221783   4.934   4.315   7.312
73296SOL     OW21784   5.653   3.442   6.407
73296SOL    HW121785   5.711   3.367   6.422
73296SOL    HW221786   5.575   3.403   6.367
73297SOL     OW21787   8.322  13.395  14.323
73297SOL    HW121788   8.386  13.425  14.388
73297SOL    HW221789   8.269  13.332  14.371
73298SOL     OW21790  10.881   7.089   2.177
73298SOL    HW121791  10.882   6.994   2.194
73298SOL    HW221792  10.972   7.116   2.191
73299SOL     OW21793   1.057  10.173   6.893
73299SOL    HW121794   1.141  10.162   6.848
73299SOL    HW221795   0.995  10.191   6.823
73300SOL     OW21796   5.808   5.974  12.693
73300SOL    HW121797   5.744   5.972  12.622
73300SOL    HW221798   5.777   5.909  12.755
73301SOL     OW21799   5.572   8.920  11.738
73301SOL    HW121800   5.663   8.948  11.746
73301SOL    HW221801   5.574   8.825  11.750
73302SOL     OW21802   7.611  11.285  11.060
73302SOL    HW121803   7.670  11.236  11.002
73302SOL    HW221804   7.541  11.224  11.081
73303SOL     OW21805   9.555   1.561   2.502
73303SOL    HW121806   9.509   1.629   2.552
73303SOL    HW221807   9.603   1.610   2.435
73304SOL     OW21808   5.960   4.020  14.498
73304SOL    HW121809   5.875   4.021  14.453
73304SOL    HW221810   5.969   4.109  14.533
73305SOL     OW21811   2.518   0.351   1.261
73305SOL    HW121812   2.610   0.364   1.286
73305SOL    HW221813   2.494   0.268   1.303
73306SOL     OW21814   0.152   0.753  11.366
73306SOL    HW121815   0.227   0.695  11.379
73306SOL    HW221816   0.190   0.840  11.358
73307SOL     OW21817  10.738   4.964   5.632
73307SOL    HW121818  10.662   4.992   5.581
73307SOL    HW221819  10.727   4.869   5.641
73308SOL     OW21820   6.656   1.544  12.938
73308SOL    HW121821   6.669   1.495  12.857
73308SOL    HW221822   6.739   1.590  12.953
73309SOL     OW21823   1.390   1.621  13.529
73309SOL    HW121824   1.393   1.539  13.481
73309SOL    HW221825   1.464   1.672  13.496
73310SOL     OW21826  11.873   4.272   2.594
73310SOL    HW121827  11.913   4.347   2.551
73310SOL    HW221828  11.943   4.234   2.647
73311SOL     OW21829   0.463   3.556   7.477
73311SOL    HW121830   0.520   3.482   7.455
73311SOL    HW221831   0.413   3.526   7.553
73312SOL     OW21832  10.432   3.079   1.585
73312SOL    HW121833  10.391   2.998   1.616
73312SOL    HW221834  10.455   3.060   1.494
73313SOL     OW21835   1.410   6.574   7.928
73313SOL    HW121836   1.463   6.516   7.981
73313SOL    HW221837   1.327   6.527   7.916
73314SOL     OW21838   7.746   7.061   0.086
73314SOL    HW121839   7.799   7.131   0.124
73314SOL    HW221840   7.745   6.993   0.154
73315SOL     OW21841   3.812   1.820   9.592
73315SOL    HW121842   3.905   1.805   9.578
73315SOL    HW221843   3.806   1.847   9.684
73316SOL     OW21844   4.257   4.521   2.754
73316SOL    HW121845   4.267   4.610   2.787
73316SOL    HW221846   4.344   4.482   2.762
73317SOL     OW21847   2.657  14.757   1.371
73317SOL    HW121848   2.735  14.806   1.346
73317SOL    HW221849   2.605  14.751   1.291
73318SOL     OW21850  12.858   8.804   9.454
73318SOL    HW121851  12.921   8.824   9.385
73318SOL    HW221852  12.857   8.883   9.508
73319SOL     OW21853   4.275  13.222   9.257
73319SOL    HW121854   4.280  13.187   9.346
73319SOL    HW221855   4.362  13.209   9.221
73320SOL     OW21856  13.144   6.678   7.590
73320SOL    HW121857  13.066   6.673   7.535
73320SOL    HW221858  13.186   6.593   7.581
73321SOL     OW21859   0.068  10.133  13.847
73321SOL    HW121860   0.072  10.074  13.923
73321SOL    HW221861  14.863  10.140  13.827
73322SOL     OW21862   5.144   0.656   8.173
73322SOL    HW121863   5.083   0.621   8.237
73322SOL    HW221864   5.166   0.743   8.205
73323SOL     OW21865   0.684   0.346  11.848
73323SOL    HW121866   0.599   0.316  11.881
73323SOL    HW221867   0.748   0.308  11.908
73324SOL     OW21868   3.164   6.919   1.121
73324SOL    HW121869   3.167   7.014   1.107
73324SOL    HW221870   3.101   6.888   1.055
73325SOL     OW21871  11.236   0.224   6.867
73325SOL    HW121872  11.250   0.172   6.947
73325SOL    HW221873  11.147   0.202   6.840
73326SOL     OW21874  12.937  14.189  11.750
73326SOL    HW121875  13.029  14.165  11.757
73326SOL    HW221876  12.935  14.260  11.686
73327SOL     OW21877   4.171   9.355  13.751
73327SOL    HW121878   4.196   9.447  13.753
73327SOL    HW221879   4.130   9.343  13.665
73328SOL     OW21880  11.100  13.905  13.683
73328SOL    HW121881  11.015  13.947  13.698
73328SOL    HW221882  11.103  13.835  13.749
73329SOL     OW21883   6.291   5.856   9.712
73329SOL    HW121884   6.379   5.892   9.708
73329SOL    HW221885   6.247   5.906   9.781
73330SOL     OW21886   7.407   6.438   1.415
73330SOL    HW121887   7.325   6.425   1.368
73330SOL    HW221888   7.384   6.422   1.507
73331SOL     OW21889  13.729   6.291  10.930
73331SOL    HW121890  13.751   6.227  10.862
73331SOL    HW221891  13.717   6.374  10.882
73332SOL     OW21892  14.783   2.273   5.504
73332SOL    HW121893  14.862   2.229   5.472
73332SOL    HW221894  14.740   2.208   5.559
73333SOL     OW21895   7.238   9.972  11.982
73333SOL    HW121896   7.214   9.961  11.890
73333SOL    HW221897   7.154   9.987  12.027
73334SOL     OW21898  10.776   0.596  13.137
73334SOL    HW121899  10.861   0.558  13.160
73334SOL    HW221900  10.789   0.691  13.147
73335SOL     OW21901   8.555   5.546  10.748
73335SOL    HW121902   8.525   5.508  10.665
73335SOL    HW221903   8.647   5.518  10.755
73336SOL     OW21904   6.206  12.305   3.988
73336SOL    HW121905   6.263  12.256   3.929
73336SOL    HW221906   6.246  12.392   3.993
73337SOL     OW21907   2.811  14.201   8.334
73337SOL    HW121908   2.806  14.154   8.417
73337SOL    HW221909   2.829  14.132   8.269
73338SOL     OW21910  14.033  10.012   6.863
73338SOL    HW121911  14.029  10.107   6.866
73338SOL    HW221912  14.053   9.985   6.952
73339SOL     OW21913   5.914   1.107   3.934
73339SOL    HW121914   5.895   1.117   3.841
73339SOL    HW221915   5.829   1.092   3.975
73340SOL     OW21916   6.421   2.362  14.507
73340SOL    HW121917   6.341   2.401  14.471
73340SOL    HW221918   6.399   2.270  14.522
73341SOL     OW21919  14.538   7.564   8.318
73341SOL    HW121920  14.444   7.546   8.319
73341SOL    HW221921  14.578   7.485   8.355
73342SOL     OW21922   3.761  14.255   9.721
73342SOL    HW121923   3.735  14.345   9.702
73342SOL    HW221924   3.756  14.249   9.817
73343SOL     OW21925  10.064  13.992   9.497
73343SOL    HW121926  10.025  13.906   9.486
73343SOL    HW221927  10.136  13.994   9.434
73344SOL     OW21928   1.564  10.216   2.273
73344SOL    HW121929   1.570  10.220   2.369
73344SOL    HW221930   1.654  10.228   2.243
73345SOL     OW21931   2.800  11.508  13.520
73345SOL    HW121932   2.866  11.447  13.553
73345SOL    HW221933   2.778  11.563  13.595
73346SOL     OW21934   9.840  12.492   9.908
73346SOL    HW121935   9.834  12.399   9.932
73346SOL    HW221936   9.808  12.496   9.818
73347SOL     OW21937   1.553   6.470  14.448
73347SOL    HW121938   1.643   6.498  14.468
73347SOL    HW221939   1.549   6.379  14.475
73348SOL     OW21940  13.362  10.658   9.944
73348SOL    HW121941  13.427  10.675  10.012
73348SOL    HW221942  13.359  10.562   9.937
73349SOL     OW21943   7.774   7.911   1.206
73349SOL    HW121944   7.705   7.918   1.140
73349SOL    HW221945   7.813   7.825   1.192
73350SOL     OW21946   0.599  13.997   8.737
73350SOL    HW121947   0.566  13.918   8.693
73350SOL    HW221948   0.607  13.971   8.829
73351SOL     OW21949   1.930   0.656   4.329
73351SOL    HW121950   1.988   0.710   4.382
73351SOL    HW221951   1.868   0.718   4.290
73352SOL     OW21952  11.644  13.320   2.231
73352SOL    HW121953  11.595  13.239   2.218
73352SOL    HW221954  11.585  13.376   2.281
73353SOL     OW21955   5.683  13.804   0.530
73353SOL    HW121956   5.772  13.805   0.496
73353SOL    HW221957   5.656  13.712   0.522
73354SOL     OW21958  11.764  10.907   9.428
73354SOL    HW121959  11.682  10.951   9.450
73354SOL    HW221960  11.738  10.826   9.386
73355SOL     OW21961   3.059   5.560   1.387
73355SOL    HW121962   3.063   5.464   1.394
73355SOL    HW221963   2.982   5.576   1.333
73356SOL     OW21964   2.715  12.070   4.276
73356SOL    HW121965   2.770  12.048   4.351
73356SOL    HW221966   2.757  12.145   4.235
73357SOL     OW21967  10.645   4.539   0.215
73357SOL    HW121968  10.734   4.506   0.221
73357SOL    HW221969  10.652   4.614   0.156
73358SOL     OW21970   1.023   7.650   4.529
73358SOL    HW121971   1.042   7.619   4.440
73358SOL    HW221972   1.028   7.571   4.583
73359SOL     OW21973   8.941  12.243   9.489
73359SOL    HW121974   9.027  12.201   9.480
73359SOL    HW221975   8.887  12.178   9.534
73360SOL     OW21976   8.188   2.145   7.303
73360SOL    HW121977   8.215   2.056   7.282
73360SOL    HW221978   8.257   2.177   7.362
73361SOL     OW21979  10.829   9.069   7.806
73361SOL    HW121980  10.874   9.002   7.754
73361SOL    HW221981  10.862   9.152   7.771
73362SOL     OW21982   6.271   1.529   0.745
73362SOL    HW121983   6.180   1.558   0.753
73362SOL    HW221984   6.313   1.560   0.825
73363SOL     OW21985  14.570   7.260  12.438
73363SOL    HW121986  14.490   7.256  12.490
73363SOL    HW221987  14.561   7.190  12.374
73364SOL     OW21988   2.303   4.524   1.715
73364SOL    HW121989   2.333   4.597   1.769
73364SOL    HW221990   2.210   4.517   1.734
73365SOL     OW21991   5.590  12.255  13.637
73365SOL    HW121992   5.659  12.285  13.697
73365SOL    HW221993   5.598  12.312  13.561
73366SOL     OW21994  12.191  14.708   3.919
73366SOL    HW121995  12.097  14.705   3.904
73366SOL    HW221996  12.223  14.775   3.857
73367SOL     OW21997  13.886   7.108   2.283
73367SOL    HW121998  13.927   7.068   2.360
73367SOL    HW221999  13.951   7.171   2.252
73368SOL     OW22000   7.176  11.532   9.518
73368SOL    HW122001   7.188  11.580   9.600
73368SOL    HW222002   7.265  11.516   9.486
73369SOL     OW22003  12.941  11.796  12.650
73369SOL    HW122004  12.887  11.717  12.646
73369SOL    HW222005  13.022  11.766  12.692
73370SOL     OW22006   7.369   2.449   5.783
73370SOL    HW122007   7.308   2.381   5.809
73370SOL    HW222008   7.387   2.497   5.864
73371SOL     OW22009  11.388   2.127  10.151
73371SOL    HW122010  11.296   2.102  10.146
73371SOL    HW222011  11.387   2.215  10.189
73372SOL     OW22012   1.785   3.985  11.475
73372SOL    HW122013   1.750   3.961  11.389
73372SOL    HW222014   1.821   4.073  11.463
73373SOL     OW22015   2.769   4.166  12.543
73373SOL    HW122016   2.750   4.202  12.630
73373SOL    HW222017   2.778   4.243  12.487
73374SOL     OW22018   6.752   5.015   0.287
73374SOL    HW122019   6.659   5.011   0.310
73374SOL    HW222020   6.754   5.061   0.202
73375SOL     OW22021   1.045   3.363   7.359
73375SOL    HW122022   0.959   3.337   7.394
73375SOL    HW222023   1.054   3.312   7.279
73376SOL     OW22024  13.504   3.544   5.581
73376SOL    HW122025  13.513   3.621   5.526
73376SOL    HW222026  13.513   3.469   5.522
73377SOL     OW22027   6.607   4.230  14.859
73377SOL    HW122028   6.512   4.237  14.867
73377SOL    HW222029   6.636   4.316  14.829
73378SOL     OW22030   1.712   8.703   4.632
73378SOL    HW122031   1.733   8.637   4.566
73378SOL    HW222032   1.630   8.673   4.670
73379SOL     OW22033   7.947  14.577   9.149
73379SOL    HW122034   7.973  14.669   9.158
73379SOL    HW222035   8.019  14.527   9.187
73380SOL     OW22036  10.057   5.557   9.429
73380SOL    HW122037   9.974   5.511   9.440
73380SOL    HW222038  10.037   5.631   9.372
73381SOL     OW22039   6.546   1.792   1.827
73381SOL    HW122040   6.523   1.717   1.882
73381SOL    HW222041   6.487   1.787   1.752
73382SOL     OW22042   6.685   3.636   8.303
73382SOL    HW122043   6.772   3.646   8.342
73382SOL    HW222044   6.664   3.544   8.316
73383SOL     OW22045  12.999   4.289   7.987
73383SOL    HW122046  12.952   4.362   7.947
73383SOL    HW222047  13.008   4.225   7.916
73384SOL     OW22048   9.790   5.881   5.767
73384SOL    HW122049   9.796   5.957   5.826
73384SOL    HW222050   9.864   5.890   5.708
73385SOL     OW22051   8.388   0.891   7.663
73385SOL    HW122052   8.425   0.804   7.651
73385SOL    HW222053   8.361   0.894   7.755
73386SOL     OW22054  13.302   6.001  12.586
73386SOL    HW122055  13.387   6.029  12.552
73386SOL    HW222056  13.291   5.912  12.553
73387SOL     OW22057  11.210   4.022   8.610
73387SOL    HW122058  11.115   4.027   8.602
73387SOL    HW222059  11.226   3.946   8.665
73388SOL     OW22060  13.757  11.188   3.960
73388SOL    HW122061  13.680  11.242   3.942
73388SOL    HW222062  13.720  11.106   3.994
73389SOL     OW22063   0.974  13.072   8.768
73389SOL    HW122064   0.964  13.067   8.673
73389SOL    HW222065   1.058  13.115   8.781
73390SOL     OW22066   8.756   9.933  14.583
73390SOL    HW122067   8.841   9.894  14.563
73390SOL    HW222068   8.777  10.015  14.628
73391SOL     OW22069  14.429  12.983   5.342
73391SOL    HW122070  14.407  12.910   5.399
73391SOL    HW222071  14.356  12.990   5.281
73392SOL     OW22072   1.494   1.683   6.649
73392SOL    HW122073   1.570   1.666   6.705
73392SOL    HW222074   1.531   1.694   6.561
73393SOL     OW22075   0.257   9.067   9.859
73393SOL    HW122076   0.265   8.984   9.813
73393SOL    HW222077   0.253   9.133   9.789
73394SOL     OW22078   0.219   5.899   3.951
73394SOL    HW122079   0.247   5.887   3.860
73394SOL    HW222080   0.142   5.843   3.960
73395SOL     OW22081  12.919  14.050   3.767
73395SOL    HW122082  12.886  14.121   3.822
73395SOL    HW222083  12.969  14.095   3.698
73396SOL     OW22084   3.637   3.260  12.613
73396SOL    HW122085   3.561   3.296  12.657
73396SOL    HW222086   3.698   3.334  12.607
73397SOL     OW22087   0.952   3.467   5.618
73397SOL    HW122088   0.925   3.555   5.590
73397SOL    HW222089   0.938   3.467   5.712
73398SOL     OW22090   5.546   0.080  14.806
73398SOL    HW122091   5.514   0.108   0.005
73398SOL    HW222092   5.558   0.162  14.758
73399SOL     OW22093   0.746  10.968   2.288
73399SOL    HW122094   0.670  11.016   2.254
73399SOL    HW222095   0.754  10.891   2.231
73400SOL     OW22096  10.208   8.883  12.611
73400SOL    HW122097  10.215   8.973  12.644
73400SOL    HW222098  10.120   8.855  12.634
73401SOL     OW22099   5.519  14.357   6.730
73401SOL    HW122100   5.483  14.444   6.715
73401SOL    HW222101   5.442  14.300   6.734
73402SOL     OW22102   5.882   9.515   5.163
73402SOL    HW122103   5.931   9.592   5.191
73402SOL    HW222104   5.947   9.458   5.123
73403SOL     OW22105  13.026   7.749  12.087
73403SOL    HW122106  13.021   7.803  12.008
73403SOL    HW222107  13.118   7.756  12.115
73404SOL     OW22108   6.988   3.860  10.173
73404SOL    HW122109   7.019   3.949  10.190
73404SOL    HW222110   7.056   3.822  10.117
73405SOL     OW22111   7.446   4.175   4.238
73405SOL    HW122112   7.542   4.176   4.228
73405SOL    HW222113   7.424   4.265   4.259
73406SOL     OW22114   7.405  10.058   8.476
73406SOL    HW122115   7.322  10.060   8.524
73406SOL    HW222116   7.408  10.142   8.431
73407SOL     OW22117  10.205   3.571  14.525
73407SOL    HW122118  10.297   3.585  14.503
73407SOL    HW222119  10.177   3.653  14.568
73408SOL     OW22120  14.298   7.451   0.999
73408SOL    HW122121  14.328   7.388   1.064
73408SOL    HW222122  14.216   7.415   0.966
73409SOL     OW22123  10.421  13.372   1.996
73409SOL    HW122124  10.462  13.436   1.937
73409SOL    HW222125  10.426  13.413   2.082
73410SOL     OW22126   1.485   8.963   4.870
73410SOL    HW122127   1.454   9.046   4.834
73410SOL    HW222128   1.549   8.932   4.806
73411SOL     OW22129  11.897  14.670   2.443
73411SOL    HW122130  11.909  14.757   2.405
73411SOL    HW222131  11.984  14.632   2.447
73412SOL     OW22132   3.014  13.260   0.986
73412SOL    HW122133   3.051  13.247   1.073
73412SOL    HW222134   2.919  13.258   1.000
73413SOL     OW22135   4.605  12.040   3.372
73413SOL    HW122136   4.572  12.129   3.358
73413SOL    HW222137   4.700  12.051   3.380
73414SOL     OW22138   3.780  14.141   9.357
73414SOL    HW122139   3.755  14.142   9.264
73414SOL    HW222140   3.869  14.107   9.357
73415SOL     OW22141   1.018  14.410   8.998
73415SOL    HW122142   1.107  14.390   8.970
73415SOL    HW222143   1.027  14.487   9.055
73416SOL     OW22144   4.062  13.704   7.131
73416SOL    HW122145   3.973  13.691   7.097
73416SOL    HW222146   4.104  13.619   7.122
73417SOL     OW22147   7.246   0.981  11.839
73417SOL    HW122148   7.272   0.945  11.755
73417SOL    HW222149   7.159   0.945  11.855
73418SOL     OW22150  11.500  10.072   9.742
73418SOL    HW122151  11.586  10.102   9.712
73418SOL    HW222152  11.514  10.048   9.833
73419SOL     OW22153   3.545  13.254  12.908
73419SOL    HW122154   3.463  13.303  12.906
73419SOL    HW222155   3.594  13.292  12.980
73420SOL     OW22156   9.768   3.849  11.913
73420SOL    HW122157   9.773   3.779  11.979
73420SOL    HW222158   9.811   3.924  11.955
73421SOL     OW22159   1.364   6.293   0.546
73421SOL    HW122160   1.334   6.250   0.626
73421SOL    HW222161   1.286   6.298   0.491
73422SOL     OW22162   4.545   8.218   6.991
73422SOL    HW122163   4.594   8.261   7.061
73422SOL    HW222164   4.611   8.167   6.943
73423SOL     OW22165  13.821   9.676   2.881
73423SOL    HW122166  13.885   9.725   2.829
73423SOL    HW222167  13.833   9.709   2.970
73424SOL     OW22168   3.487  14.765   6.555
73424SOL    HW122169   3.535  14.822   6.494
73424SOL    HW222170   3.502  14.804   6.641
73425SOL     OW22171  11.903  14.181   3.273
73425SOL    HW122172  11.846  14.145   3.341
73425SOL    HW222173  11.848  14.243   3.226
73426SOL     OW22174   0.627   9.141   1.965
73426SOL    HW122175   0.634   9.121   2.058
73426SOL    HW222176   0.619   9.055   1.923
73427SOL     OW22177  14.581   2.420  12.233
73427SOL    HW122178  14.659   2.405  12.288
73427SOL    HW222179  14.559   2.333  12.200
73428SOL     OW22180   4.142   5.723   6.206
73428SOL    HW122181   4.175   5.725   6.116
73428SOL    HW222182   4.148   5.813   6.236
73429SOL     OW22183   4.556   6.403   2.844
73429SOL    HW122184   4.623   6.354   2.892
73429SOL    HW222185   4.509   6.452   2.912
73430SOL     OW22186   2.501   3.537   6.368
73430SOL    HW122187   2.421   3.586   6.352
73430SOL    HW222188   2.535   3.519   6.280
73431SOL     OW22189   7.328  12.267   2.272
73431SOL    HW122190   7.326  12.288   2.365
73431SOL    HW222191   7.289  12.179   2.267
73432SOL     OW22192   1.440   8.697   6.554
73432SOL    HW122193   1.482   8.619   6.518
73432SOL    HW222194   1.426   8.677   6.647
73433SOL     OW22195   8.985   7.148  12.963
73433SOL    HW122196   8.971   7.154  13.057
73433SOL    HW222197   9.059   7.206  12.947
73434SOL     OW22198   2.561  11.753   2.140
73434SOL    HW122199   2.637  11.811   2.147
73434SOL    HW222200   2.577  11.684   2.205
73435SOL     OW22201   1.486   2.173   9.120
73435SOL    HW122202   1.490   2.260   9.159
73435SOL    HW222203   1.421   2.181   9.050
73436SOL     OW22204   3.244   8.720  10.516
73436SOL    HW122205   3.195   8.642  10.490
73436SOL    HW222206   3.333   8.704  10.485
73437SOL     OW22207  10.912   5.815   6.887
73437SOL    HW122208  10.945   5.788   6.973
73437SOL    HW222209  10.893   5.909   6.898
73438SOL     OW22210  14.309   0.115   6.071
73438SOL    HW122211  14.247   0.085   6.137
73438SOL    HW222212  14.392   0.073   6.094
73439SOL     OW22213   8.600  10.576  14.673
73439SOL    HW122214   8.542  10.544  14.604
73439SOL    HW222215   8.631  10.660  14.640
73440SOL     OW22216   5.970  12.268  14.058
73440SOL    HW122217   6.026  12.239  13.986
73440SOL    HW222218   5.881  12.266  14.022
73441SOL     OW22219   0.757   4.947  14.828
73441SOL    HW122220   0.823   4.936   0.010
73441SOL    HW222221   0.680   4.982  14.874
73442SOL     OW22222  10.787  14.183   4.188
73442SOL    HW122223  10.820  14.252   4.130
73442SOL    HW222224  10.818  14.208   4.275
73443SOL     OW22225   6.579  12.417   4.250
73443SOL    HW122226   6.578  12.513   4.247
73443SOL    HW222227   6.563  12.390   4.159
73444SOL     OW22228   7.136   4.300   1.445
73444SOL    HW122229   7.048   4.293   1.483
73444SOL    HW222230   7.195   4.298   1.519
73445SOL     OW22231   7.505   1.923  10.417
73445SOL    HW122232   7.509   1.888  10.506
73445SOL    HW222233   7.482   1.848  10.362
73446SOL     OW22234   4.913  11.392   6.245
73446SOL    HW122235   4.857  11.426   6.175
73446SOL    HW222236   4.927  11.466   6.303
73447SOL     OW22237   2.007   1.418   0.371
73447SOL    HW122238   1.997   1.513   0.373
73447SOL    HW222239   2.089   1.403   0.324
73448SOL     OW22240   6.353   2.452  13.196
73448SOL    HW122241   6.349   2.548  13.189
73448SOL    HW222242   6.434   2.429  13.150
73449SOL     OW22243   9.736  13.108   3.383
73449SOL    HW122244   9.658  13.162   3.393
73449SOL    HW222245   9.791  13.157   3.322
73450SOL     OW22246   9.746   3.546   1.513
73450SOL    HW122247   9.769   3.536   1.605
73450SOL    HW222248   9.731   3.456   1.482
73451SOL     OW22249  12.358   4.261   9.930
73451SOL    HW122250  12.333   4.259  10.022
73451SOL    HW222251  12.448   4.292   9.930
73452SOL     OW22252   5.383   3.277  11.119
73452SOL    HW122253   5.415   3.326  11.043
73452SOL    HW222254   5.447   3.207  11.131
73453SOL     OW22255   6.227   8.104   6.502
73453SOL    HW122256   6.176   8.103   6.421
73453SOL    HW222257   6.264   8.192   6.507
73454SOL     OW22258   4.741   8.548  11.199
73454SOL    HW122259   4.720   8.539  11.106
73454SOL    HW222260   4.713   8.465  11.238
73455SOL     OW22261  10.277   0.696   5.332
73455SOL    HW122262  10.199   0.666   5.379
73455SOL    HW222263  10.325   0.748   5.396
73456SOL     OW22264   0.788  10.612  11.967
73456SOL    HW122265   0.763  10.521  11.979
73456SOL    HW222266   0.873  10.620  12.010
73457SOL     OW22267  14.346   1.955   5.229
73457SOL    HW122268  14.263   2.002   5.236
73457SOL    HW222269  14.392   1.999   5.157
73458SOL     OW22270  10.077   6.233   2.593
73458SOL    HW122271  10.038   6.148   2.571
73458SOL    HW222272  10.144   6.212   2.658
73459SOL     OW22273  10.883   0.979   3.981
73459SOL    HW122274  10.909   0.937   4.063
73459SOL    HW222275  10.864   1.070   4.005
73460SOL     OW22276  10.860   1.852   1.825
73460SOL    HW122277  10.922   1.914   1.864
73460SOL    HW222278  10.875   1.860   1.731
73461SOL     OW22279   7.988   0.700   1.945
73461SOL    HW122280   7.980   0.607   1.928
73461SOL    HW222281   7.910   0.739   1.904
73462SOL     OW22282  14.222  10.274   5.179
73462SOL    HW122283  14.274  10.236   5.109
73462SOL    HW222284  14.245  10.367   5.178
73463SOL     OW22285  14.630   5.509  10.928
73463SOL    HW122286  14.613   5.418  10.904
73463SOL    HW222287  14.655   5.551  10.846
73464SOL     OW22288  12.905  12.274  14.424
73464SOL    HW122289  12.877  12.348  14.369
73464SOL    HW222290  12.945  12.316  14.501
73465SOL     OW22291  14.321   6.587   7.017
73465SOL    HW122292  14.304   6.658   7.079
73465SOL    HW222293  14.273   6.612   6.938
73466SOL     OW22294   5.548   7.540  12.813
73466SOL    HW122295   5.502   7.534  12.729
73466SOL    HW222296   5.585   7.628  12.815
73467SOL     OW22297   7.691  10.658   3.567
73467SOL    HW122298   7.653  10.637   3.482
73467SOL    HW222299   7.786  10.662   3.550
73468SOL     OW22300   1.641   1.606  14.064
73468SOL    HW122301   1.647   1.700  14.050
73468SOL    HW222302   1.700   1.568  13.999
73469SOL     OW22303  10.566  12.490  12.225
73469SOL    HW122304  10.547  12.396  12.233
73469SOL    HW222305  10.656  12.494  12.192
73470SOL     OW22306   9.659   9.299  14.732
73470SOL    HW122307   9.639   9.221  14.783
73470SOL    HW222308   9.602   9.293  14.656
73471SOL     OW22309   6.897  12.222  11.956
73471SOL    HW122310   6.919  12.278  11.882
73471SOL    HW222311   6.851  12.279  12.017
73472SOL     OW22312   4.078   3.341   6.076
73472SOL    HW122313   4.001   3.297   6.040
73472SOL    HW222314   4.067   3.432   6.051
73473SOL     OW22315   6.939   6.891   3.043
73473SOL    HW122316   6.966   6.906   3.133
73473SOL    HW222317   6.859   6.942   3.033
73474SOL     OW22318   4.997  10.192   2.926
73474SOL    HW122319   4.950  10.183   3.009
73474SOL    HW222320   5.083  10.225   2.951
73475SOL     OW22321  12.620   5.366   3.970
73475SOL    HW122322  12.706   5.379   4.010
73475SOL    HW222323  12.635   5.302   3.900
73476SOL     OW22324   9.598  13.479  14.365
73476SOL    HW122325   9.527  13.484  14.301
73476SOL    HW222326   9.657  13.551  14.342
73477SOL     OW22327   6.872   0.457   7.386
73477SOL    HW122328   6.780   0.475   7.406
73477SOL    HW222329   6.872   0.435   7.293
73478SOL     OW22330  11.746   5.960   9.030
73478SOL    HW122331  11.685   5.971   8.957
73478SOL    HW222332  11.709   6.013   9.101
73479SOL     OW22333  12.944  10.350   0.881
73479SOL    HW122334  13.009  10.393   0.826
73479SOL    HW222335  12.994  10.293   0.939
73480SOL     OW22336   1.187  13.565   8.325
73480SOL    HW122337   1.280  13.543   8.326
73480SOL    HW222338   1.145  13.493   8.372
73481SOL     OW22339  10.848   1.484  11.424
73481SOL    HW122340  10.808   1.492  11.338
73481SOL    HW222341  10.824   1.396  11.454
73482SOL     OW22342  10.300   6.043   5.623
73482SOL    HW122343  10.248   6.119   5.647
73482SOL    HW222344  10.253   5.968   5.661
73483SOL     OW22345  14.525  10.784  11.031
73483SOL    HW122346  14.450  10.732  11.001
73483SOL    HW222347  14.516  10.786  11.126
73484SOL     OW22348   6.402   8.964  11.124
73484SOL    HW122349   6.320   9.010  11.143
73484SOL    HW222350   6.396   8.883  11.175
73485SOL     OW22351   1.078   0.230  14.426
73485SOL    HW122352   1.081   0.323  14.404
73485SOL    HW222353   1.167   0.199  14.413
73486SOL     OW22354   8.786   1.693  10.141
73486SOL    HW122355   8.818   1.731  10.059
73486SOL    HW222356   8.771   1.769  10.198
73487SOL     OW22357  10.540   8.478   0.136
73487SOL    HW122358  10.499   8.395   0.161
73487SOL    HW222359  10.503   8.499   0.051
73488SOL     OW22360   7.846   0.418   4.783
73488SOL    HW122361   7.770   0.374   4.822
73488SOL    HW222362   7.884   0.469   4.855
73489SOL     OW22363   0.567  12.204  10.065
73489SOL    HW122364   0.510  12.200   9.989
73489SOL    HW222365   0.645  12.154  10.040
73490SOL     OW22366   8.091  12.973   3.020
73490SOL    HW122367   8.046  12.959   3.104
73490SOL    HW222368   8.038  12.924   2.957
73491SOL     OW22369   1.918   3.681   9.218
73491SOL    HW122370   1.906   3.587   9.231
73491SOL    HW222371   2.010   3.691   9.195
73492SOL     OW22372   6.673   1.084   4.099
73492SOL    HW122373   6.721   1.166   4.108
73492SOL    HW222374   6.581   1.110   4.093
73493SOL     OW22375  13.589  12.129   6.285
73493SOL    HW122376  13.502  12.145   6.250
73493SOL    HW222377  13.648  12.145   6.211
73494SOL     OW22378  13.531   8.232   4.657
73494SOL    HW122379  13.500   8.145   4.635
73494SOL    HW222380  13.503   8.246   4.747
73495SOL     OW22381   9.581  12.126  11.977
73495SOL    HW122382   9.618  12.058  11.921
73495SOL    HW222383   9.572  12.203  11.921
73496SOL     OW22384  13.296   3.902  10.344
73496SOL    HW122385  13.212   3.857  10.341
73496SOL    HW222386  13.345   3.866  10.270
73497SOL     OW22387  10.711   9.190  12.129
73497SOL    HW122388  10.627   9.178  12.172
73497SOL    HW222389  10.776   9.176  12.199
73498SOL     OW22390   7.488   1.832   2.651
73498SOL    HW122391   7.533   1.858   2.732
73498SOL    HW222392   7.490   1.736   2.653
73499SOL     OW22393  13.023   0.316   9.510
73499SOL    HW122394  12.995   0.232   9.545
73499SOL    HW222395  12.958   0.378   9.542
73500SOL     OW22396   7.469   9.489  12.362
73500SOL    HW122397   7.537   9.488  12.429
73500SOL    HW222398   7.463   9.398  12.332
73501SOL     OW22399   0.322   9.046   2.093
73501SOL    HW122400   0.372   8.970   2.123
73501SOL    HW222401   0.361   9.067   2.008
73502SOL     OW22402   9.587  12.638  13.940
73502SOL    HW122403   9.603  12.601  13.853
73502SOL    HW222404   9.620  12.573  14.001
73503SOL     OW22405   5.519   8.502   5.900
73503SOL    HW122406   5.459   8.499   5.975
73503SOL    HW222407   5.498   8.585   5.856
73504SOL     OW22408  11.813   7.247   9.304
73504SOL    HW122409  11.734   7.247   9.252
73504SOL    HW222410  11.875   7.302   9.256
73505SOL     OW22411   4.079   2.632   0.122
73505SOL    HW122412   4.101   2.695   0.053
73505SOL    HW222413   4.004   2.584   0.088
73506SOL     OW22414  14.084   6.078   7.938
73506SOL    HW122415  13.992   6.098   7.955
73506SOL    HW222416  14.117   6.154   7.891
73507SOL     OW22417  11.586   0.593   0.134
73507SOL    HW122418  11.593   0.501   0.106
73507SOL    HW222419  11.511   0.627   0.086
73508SOL     OW22420   4.316   0.029  13.120
73508SOL    HW122421   4.392   0.037  13.063
73508SOL    HW222422   4.353   0.013  13.207
73509SOL     OW22423   4.632  11.132  12.187
73509SOL    HW122424   4.593  11.074  12.122
73509SOL    HW222425   4.694  11.077  12.236
73510SOL     OW22426  13.620   1.195   5.388
73510SOL    HW122427  13.536   1.183   5.432
73510SOL    HW222428  13.682   1.211   5.458
73511SOL     OW22429   9.111   5.624   2.213
73511SOL    HW122430   9.136   5.656   2.300
73511SOL    HW222431   9.025   5.663   2.197
73512SOL     OW22432   4.930   3.469  13.775
73512SOL    HW122433   4.987   3.523  13.719
73512SOL    HW222434   4.947   3.379  13.746
73513SOL     OW22435  11.794   5.485   8.978
73513SOL    HW122436  11.785   5.577   9.003
73513SOL    HW222437  11.872   5.455   9.026
73514SOL     OW22438   1.087   6.055   6.010
73514SOL    HW122439   1.025   6.067   6.082
73514SOL    HW222440   1.126   5.969   6.025
73515SOL     OW22441   4.701   0.451  14.664
73515SOL    HW122442   4.683   0.368  14.620
73515SOL    HW222443   4.717   0.513  14.593
73516SOL     OW22444   7.488   1.279   4.739
73516SOL    HW122445   7.528   1.321   4.663
73516SOL    HW222446   7.457   1.351   4.793
73517SOL     OW22447   7.288   8.608   0.680
73517SOL    HW122448   7.200   8.642   0.663
73517SOL    HW222449   7.324   8.588   0.594
73518SOL     OW22450   3.931   9.806  13.967
73518SOL    HW122451   3.850   9.809  14.018
73518SOL    HW222452   3.998   9.780  14.030
73519SOL     OW22453   1.793   2.859   9.726
73519SOL    HW122454   1.707   2.820   9.740
73519SOL    HW222455   1.855   2.787   9.737
73520SOL     OW22456  12.579   1.307  10.710
73520SOL    HW122457  12.585   1.212  10.696
73520SOL    HW222458  12.652   1.343  10.658
73521SOL     OW22459   3.271   4.318   2.548
73521SOL    HW122460   3.204   4.376   2.511
73521SOL    HW222461   3.329   4.375   2.598
73522SOL     OW22462   3.132   1.576   3.171
73522SOL    HW122463   3.197   1.509   3.192
73522SOL    HW222464   3.111   1.560   3.079
73523SOL     OW22465   0.372   3.470   5.778
73523SOL    HW122466   0.389   3.389   5.731
73523SOL    HW222467   0.456   3.493   5.819
73524SOL     OW22468   0.728   5.671   3.742
73524SOL    HW122469   0.701   5.744   3.686
73524SOL    HW222470   0.755   5.602   3.681
73525SOL     OW22471  11.897   6.599  12.903
73525SOL    HW122472  11.811   6.595  12.944
73525SOL    HW222473  11.953   6.546  12.959
73526SOL     OW22474  12.576  11.066   0.098
73526SOL    HW122475  12.634  11.139   0.118
73526SOL    HW222476  12.623  10.989   0.132
73527SOL     OW22477   9.250  11.631   1.169
73527SOL    HW122478   9.272  11.663   1.257
73527SOL    HW222479   9.155  11.630   1.168
73528SOL     OW22480   2.455   2.781   3.826
73528SOL    HW122481   2.515   2.710   3.806
73528SOL    HW222482   2.408   2.753   3.905
73529SOL     OW22483   7.688   9.641   3.271
73529SOL    HW122484   7.641   9.558   3.267
73529SOL    HW222485   7.779   9.618   3.253
73530SOL     OW22486   0.632   8.370  10.550
73530SOL    HW122487   0.589   8.292  10.584
73530SOL    HW222488   0.593   8.383  10.463
73531SOL     OW22489   8.301   1.699   3.770
73531SOL    HW122490   8.238   1.714   3.699
73531SOL    HW222491   8.381   1.743   3.741
73532SOL     OW22492   6.451  11.361   6.388
73532SOL    HW122493   6.514  11.381   6.456
73532SOL    HW222494   6.465  11.428   6.321
73533SOL     OW22495  14.760   0.154   1.768
73533SOL    HW122496  14.851   0.133   1.746
73533SOL    HW222497  14.749   0.120   1.857
73534SOL     OW22498   6.985  14.661   5.598
73534SOL    HW122499   7.015  14.689   5.512
73534SOL    HW222500   7.044  14.704   5.660
73535SOL     OW22501  12.095   4.485   9.260
73535SOL    HW122502  12.060   4.528   9.182
73535SOL    HW222503  12.019   4.445   9.302
73536SOL     OW22504   7.865   2.757   3.273
73536SOL    HW122505   7.820   2.792   3.350
73536SOL    HW222506   7.794   2.739   3.211
73537SOL     OW22507  12.150  12.014   8.710
73537SOL    HW122508  12.163  12.047   8.799
73537SOL    HW222509  12.213  12.063   8.657
73538SOL     OW22510   9.867   7.076  11.017
73538SOL    HW122511   9.788   7.125  10.994
73538SOL    HW222512   9.851   7.048  11.107
73539SOL     OW22513  13.239   6.692  14.206
73539SOL    HW122514  13.188   6.669  14.127
73539SOL    HW222515  13.318   6.733  14.172
73540SOL     OW22516  11.282  10.321   6.025
73540SOL    HW122517  11.201  10.271   6.039
73540SOL    HW222518  11.352  10.264   6.056
73541SOL     OW22519   3.809  11.172   4.433
73541SOL    HW122520   3.767  11.200   4.352
73541SOL    HW222521   3.741  11.182   4.500
73542SOL     OW22522   3.102   2.079   2.872
73542SOL    HW122523   3.184   2.043   2.907
73542SOL    HW222524   3.127   2.123   2.791
73543SOL     OW22525   9.824   5.784   7.077
73543SOL    HW122526   9.742   5.738   7.064
73543SOL    HW222527   9.822   5.811   7.169
73544SOL     OW22528   3.219  13.006   3.000
73544SOL    HW122529   3.313  12.989   3.002
73544SOL    HW222530   3.193  13.007   3.092
73545SOL     OW22531   0.291  10.978   7.730
73545SOL    HW122532   0.216  10.970   7.672
73545SOL    HW222533   0.356  11.027   7.678
73546SOL     OW22534   3.850  12.350  11.362
73546SOL    HW122535   3.809  12.436  11.358
73546SOL    HW222536   3.777  12.289  11.362
73547SOL     OW22537   0.777   6.089  12.345
73547SOL    HW122538   0.819   6.140  12.414
73547SOL    HW222539   0.819   6.003  12.349
73548SOL     OW22540   2.528  11.321   1.475
73548SOL    HW122541   2.497  11.263   1.405
73548SOL    HW222542   2.521  11.268   1.555
73549SOL     OW22543  10.307   1.460   8.803
73549SOL    HW122544  10.272   1.497   8.884
73549SOL    HW222545  10.230   1.424   8.758
73550SOL     OW22546  12.896   9.373   4.498
73550SOL    HW122547  12.964   9.413   4.445
73550SOL    HW222548  12.934   9.366   4.586
73551SOL     OW22549  11.658   5.088   6.203
73551SOL    HW122550  11.682   5.009   6.252
73551SOL    HW222551  11.685   5.160   6.261
73552SOL     OW22552  13.224   7.834   3.827
73552SOL    HW122553  13.195   7.913   3.782
73552SOL    HW222554  13.292   7.797   3.770
73553SOL     OW22555  11.140   3.135   1.066
73553SOL    HW122556  11.146   3.226   1.095
73553SOL    HW222557  11.047   3.116   1.063
73554SOL     OW22558   0.695   7.608   1.474
73554SOL    HW122559   0.752   7.547   1.427
73554SOL    HW222560   0.650   7.656   1.406
73555SOL     OW22561   7.798   3.493  10.991
73555SOL    HW122562   7.817   3.583  10.963
73555SOL    HW222563   7.791   3.444  10.910
73556SOL     OW22564   8.720  11.606   3.394
73556SOL    HW122565   8.767  11.551   3.331
73556SOL    HW222566   8.717  11.554   3.474
73557SOL     OW22567  10.009   4.036   4.498
73557SOL    HW122568   9.948   4.048   4.572
73557SOL    HW222569   9.988   4.108   4.439
73558SOL     OW22570  12.709   0.434   5.907
73558SOL    HW122571  12.652   0.429   5.830
73558SOL    HW222572  12.754   0.518   5.898
73559SOL     OW22573   5.931   5.120   5.239
73559SOL    HW122574   6.001   5.070   5.199
73559SOL    HW222575   5.968   5.152   5.322
73560SOL     OW22576   8.036   7.457   5.611
73560SOL    HW122577   8.075   7.476   5.696
73560SOL    HW222578   8.021   7.543   5.572
73561SOL     OW22579   6.933   9.586   4.770
73561SOL    HW122580   6.987   9.559   4.844
73561SOL    HW222581   6.854   9.623   4.810
73562SOL     OW22582  10.465   9.153  12.986
73562SOL    HW122583  10.490   9.200  13.066
73562SOL    HW222584  10.403   9.087  13.016
73563SOL     OW22585   2.197   9.544   0.444
73563SOL    HW122586   2.221   9.472   0.502
73563SOL    HW222587   2.145   9.503   0.374
73564SOL     OW22588   8.761   8.074   0.660
73564SOL    HW122589   8.698   8.126   0.611
73564SOL    HW222590   8.782   8.127   0.737
73565SOL     OW22591   1.303   2.253   8.884
73565SOL    HW122592   1.208   2.244   8.898
73565SOL    HW222593   1.313   2.340   8.846
73566SOL     OW22594   3.662   1.895  10.997
73566SOL    HW122595   3.746   1.851  10.986
73566SOL    HW222596   3.675   1.954  11.072
73567SOL     OW22597   4.558   9.700   2.183
73567SOL    HW122598   4.470   9.665   2.172
73567SOL    HW222599   4.546   9.780   2.234
73568SOL     OW22600  14.479   2.895   2.666
73568SOL    HW122601  14.571   2.890   2.640
73568SOL    HW222602  14.435   2.937   2.592
73569SOL     OW22603  14.254   2.942   3.544
73569SOL    HW122604  14.161   2.940   3.566
73569SOL    HW222605  14.261   3.003   3.470
73570SOL     OW22606   9.433   7.707   3.867
73570SOL    HW122607   9.405   7.741   3.782
73570SOL    HW222608   9.509   7.653   3.848
73571SOL     OW22609  14.389  11.377  11.359
73571SOL    HW122610  14.431  11.293  11.373
73571SOL    HW222611  14.325  11.360  11.289
73572SOL     OW22612  12.528  11.527   9.593
73572SOL    HW122613  12.581  11.584   9.538
73572SOL    HW222614  12.456  11.498   9.537
73573SOL     OW22615   7.705  13.321   8.595
73573SOL    HW122616   7.618  13.281   8.594
73573SOL    HW222617   7.699  13.388   8.662
73574SOL     OW22618   8.139  11.093  11.252
73574SOL    HW122619   8.056  11.047  11.240
73574SOL    HW222620   8.176  11.099  11.163
73575SOL     OW22621   6.608  14.451   2.836
73575SOL    HW122622   6.525  14.421   2.801
73575SOL    HW222623   6.632  14.526   2.781
73576SOL     OW22624   8.939  10.688  10.247
73576SOL    HW122625   8.876  10.726  10.186
73576SOL    HW222626   8.900  10.701  10.333
73577SOL     OW22627   9.340  10.588   9.177
73577SOL    HW122628   9.379  10.501   9.177
73577SOL    HW222629   9.260  10.578   9.126
73578SOL     OW22630   4.290  10.525  14.239
73578SOL    HW122631   4.363  10.463  14.238
73578SOL    HW222632   4.230  10.493  14.172
73579SOL     OW22633  11.600   3.432   0.568
73579SOL    HW122634  11.507   3.407   0.560
73579SOL    HW222635  11.600   3.502   0.633
73580SOL     OW22636   4.984   5.612  12.257
73580SOL    HW122637   4.909   5.619  12.317
73580SOL    HW222638   5.041   5.685  12.282
73581SOL     OW22639   4.146   2.339  13.414
73581SOL    HW122640   4.106   2.411  13.463
73581SOL    HW222641   4.194   2.288  13.480
73582SOL     OW22642   1.584  10.478  10.965
73582SOL    HW122643   1.614  10.453  11.052
73582SOL    HW222644   1.647  10.438  10.905
73583SOL     OW22645  11.312  10.478  12.501
73583SOL    HW122646  11.295  10.386  12.480
73583SOL    HW222647  11.383  10.503  12.442
73584SOL     OW22648  10.424   7.680   2.249
73584SOL    HW122649  10.352   7.650   2.305
73584SOL    HW222650  10.479   7.732   2.308
73585SOL     OW22651  12.896   3.373   2.730
73585SOL    HW122652  12.900   3.318   2.652
73585SOL    HW222653  12.804   3.367   2.758
73586SOL     OW22654  10.186   7.795  13.643
73586SOL    HW122655  10.271   7.830  13.615
73586SOL    HW222656  10.164   7.730  13.576
73587SOL     OW22657  10.694   8.180  10.841
73587SOL    HW122658  10.668   8.206  10.929
73587SOL    HW222659  10.788   8.196  10.838
73588SOL     OW22660  13.347   8.275   7.519
73588SOL    HW122661  13.290   8.202   7.546
73588SOL    HW222662  13.375   8.251   7.431
73589SOL     OW22663   4.443   2.078   2.315
73589SOL    HW122664   4.537   2.092   2.328
73589SOL    HW222665   4.418   2.015   2.382
73590SOL     OW22666  10.065  14.501   0.838
73590SOL    HW122667  10.048  14.577   0.782
73590SOL    HW222668  10.122  14.535   0.907
73591SOL     OW22669  13.990   1.941   8.142
73591SOL    HW122670  14.016   1.872   8.203
73591SOL    HW222671  13.930   1.996   8.192
73592SOL     OW22672   6.410   3.147   9.323
73592SOL    HW122673   6.486   3.161   9.379
73592SOL    HW222674   6.345   3.108   9.382
73593SOL     OW22675   8.771   1.066   5.377
73593SOL    HW122676   8.818   1.061   5.460
73593SOL    HW222677   8.683   1.035   5.398
73594SOL     OW22678   4.568   0.263  10.503
73594SOL    HW122679   4.553   0.204  10.577
73594SOL    HW222680   4.629   0.329  10.536
73595SOL     OW22681   0.666  11.810   6.435
73595SOL    HW122682   0.632  11.852   6.356
73595SOL    HW222683   0.590  11.804   6.493
73596SOL     OW22684  12.697   4.272   1.077
73596SOL    HW122685  12.769   4.245   1.135
73596SOL    HW222686  12.737   4.338   1.019
73597SOL     OW22687   6.714   3.276  13.340
73597SOL    HW122688   6.756   3.257  13.423
73597SOL    HW222689   6.778   3.328  13.292
73598SOL     OW22690  11.162   9.885  11.342
73598SOL    HW122691  11.117   9.968  11.359
73598SOL    HW222692  11.202   9.862  11.426
73599SOL     OW22693   8.299   4.674   9.869
73599SOL    HW122694   8.326   4.735   9.800
73599SOL    HW222695   8.219   4.712   9.905
73600SOL     OW22696  11.163   1.202   9.934
73600SOL    HW122697  11.158   1.107   9.936
73600SOL    HW222698  11.103   1.228   9.864
73601SOL     OW22699   5.256   7.061  12.407
73601SOL    HW122700   5.244   7.082  12.314
73601SOL    HW222701   5.292   7.142  12.445
73602SOL     OW22702  11.229   4.412   0.090
73602SOL    HW122703  11.311   4.413   0.040
73602SOL    HW222704  11.238   4.485   0.152
73603SOL     OW22705   8.403  10.373   1.268
73603SOL    HW122706   8.431  10.291   1.309
73603SOL    HW222707   8.377  10.428   1.342
73604SOL     OW22708  14.007   9.211   9.698
73604SOL    HW122709  14.069   9.281   9.718
73604SOL    HW222710  13.923   9.242   9.733
73605SOL     OW22711   8.165   8.921   9.203
73605SOL    HW122712   8.149   8.934   9.110
73605SOL    HW222713   8.115   8.842   9.225
73606SOL     OW22714  12.998   5.900   8.926
73606SOL    HW122715  12.998   5.817   8.879
73606SOL    HW222716  12.905   5.921   8.938
73607SOL     OW22717  12.187   7.807  12.456
73607SOL    HW122718  12.199   7.781  12.547
73607SOL    HW222719  12.247   7.880  12.444
73608SOL     OW22720   3.004   9.307   3.273
73608SOL    HW122721   3.044   9.322   3.359
73608SOL    HW222722   3.061   9.354   3.212
73609SOL     OW22723  10.347  10.603   6.746
73609SOL    HW122724  10.403  10.652   6.686
73609SOL    HW222725  10.399  10.591   6.825
73610SOL     OW22726  13.209  11.737   8.916
73610SOL    HW122727  13.165  11.808   8.869
73610SOL    HW222728  13.290  11.776   8.949
73611SOL     OW22729   4.106   2.856   4.904
73611SOL    HW122730   4.014   2.860   4.928
73611SOL    HW222731   4.144   2.937   4.939
73612SOL     OW22732   7.643   6.360   2.347
73612SOL    HW122733   7.554   6.360   2.381
73612SOL    HW222734   7.645   6.288   2.284
73613SOL     OW22735   2.979   9.610  12.182
73613SOL    HW122736   2.973   9.540  12.116
73613SOL    HW222737   2.893   9.652  12.180
73614SOL     OW22738   0.842  13.424  13.563
73614SOL    HW122739   0.818  13.491  13.499
73614SOL    HW222740   0.765  13.367  13.568
73615SOL     OW22741   5.428   3.854  10.847
73615SOL    HW122742   5.450   3.764  10.825
73615SOL    HW222743   5.337   3.865  10.817
73616SOL     OW22744   5.493   4.756  13.317
73616SOL    HW122745   5.560   4.765  13.384
73616SOL    HW222746   5.457   4.668  13.331
73617SOL     OW22747  13.570   3.370  11.723
73617SOL    HW122748  13.640   3.345  11.662
73617SOL    HW222749  13.495   3.387  11.667
73618SOL     OW22750   8.453  11.720  13.915
73618SOL    HW122751   8.500  11.739  13.834
73618SOL    HW222752   8.442  11.805  13.958
73619SOL     OW22753   2.320   6.529  12.331
73619SOL    HW122754   2.344   6.460  12.269
73619SOL    HW222755   2.306   6.483  12.414
73620SOL     OW22756   0.819  13.589  12.879
73620SOL    HW122757   0.816  13.551  12.791
73620SOL    HW222758   0.728  13.616  12.896
73621SOL     OW22759   1.588  11.844  10.281
73621SOL    HW122760   1.520  11.901  10.245
73621SOL    HW222761   1.665  11.863  10.228
73622SOL     OW22762  10.782  11.004   8.088
73622SOL    HW122763  10.870  11.006   8.050
73622SOL    HW222764  10.744  10.921   8.059
73623SOL     OW22765   4.684   7.970  14.412
73623SOL    HW122766   4.613   7.935  14.465
73623SOL    HW222767   4.763   7.930  14.449
73624SOL     OW22768  10.748  10.957  10.997
73624SOL    HW122769  10.662  10.932  11.031
73624SOL    HW222770  10.810  10.921  11.060
73625SOL     OW22771   7.611   6.985   0.454
73625SOL    HW122772   7.621   6.954   0.544
73625SOL    HW222773   7.692   7.033   0.436
73626SOL     OW22774  12.979  12.461   8.216
73626SOL    HW122775  12.904  12.474   8.275
73626SOL    HW222776  12.948  12.395   8.154
73627SOL     OW22777   3.256   3.803   1.824
73627SOL    HW122778   3.168   3.767   1.835
73627SOL    HW222779   3.283   3.827   1.913
73628SOL     OW22780   3.966   9.021   6.253
73628SOL    HW122781   3.925   8.944   6.213
73628SOL    HW222782   3.901   9.091   6.245
73629SOL     OW22783   0.708  11.562  11.623
73629SOL    HW122784   0.745  11.505  11.556
73629SOL    HW222785   0.764  11.548  11.700
73630SOL     OW22786   1.121   8.038   3.309
73630SOL    HW122787   1.190   8.105   3.312
73630SOL    HW222788   1.106   8.023   3.216
73631SOL     OW22789   2.408   3.291   1.808
73631SOL    HW122790   2.372   3.328   1.727
73631SOL    HW222791   2.382   3.199   1.806
73632SOL     OW22792  11.238   6.690  14.292
73632SOL    HW122793  11.168   6.629  14.319
73632SOL    HW222794  11.232   6.762  14.355
73633SOL     OW22795  13.883   2.172   0.509
73633SOL    HW122796  13.893   2.084   0.546
73633SOL    HW222797  13.966   2.216   0.531
73634SOL     OW22798   2.381  11.234  11.474
73634SOL    HW122799   2.297  11.253  11.517
73634SOL    HW222800   2.374  11.142  11.448
73635SOL     OW22801   2.955  13.299  11.913
73635SOL    HW122802   3.004  13.306  11.995
73635SOL    HW222803   3.021  13.275  11.848
73636SOL     OW22804  12.863  13.910   5.557
73636SOL    HW122805  12.809  13.845   5.512
73636SOL    HW222806  12.868  13.878   5.647
73637SOL     OW22807   9.134  13.192  14.810
73637SOL    HW122808   9.203  13.251  14.781
73637SOL    HW222809   9.170  13.104  14.794
73638SOL     OW22810  12.840  12.213   6.237
73638SOL    HW122811  12.804  12.180   6.155
73638SOL    HW222812  12.858  12.306   6.220
73639SOL     OW22813   5.949  10.452  14.325
73639SOL    HW122814   5.962  10.547  14.316
73639SOL    HW222815   6.026  10.422  14.374
73640SOL     OW22816   3.965   0.997   3.215
73640SOL    HW122817   3.993   1.085   3.190
73640SOL    HW222818   3.875   1.009   3.245
73641SOL     OW22819  12.221  14.104   5.610
73641SOL    HW122820  12.300  14.129   5.563
73641SOL    HW222821  12.158  14.173   5.589
73642SOL     OW22822   1.535   4.087   3.154
73642SOL    HW122823   1.607   4.132   3.111
73642SOL    HW222824   1.572   4.054   3.236
73643SOL     OW22825   1.581   0.975  10.444
73643SOL    HW122826   1.621   0.925  10.372
73643SOL    HW222827   1.544   1.052  10.402
73644SOL     OW22828  14.851   8.251   1.591
73644SOL    HW122829   0.054   8.275   1.567
73644SOL    HW222830  14.860   8.172   1.643
73645SOL     OW22831  11.110   7.729   9.221
73645SOL    HW122832  11.042   7.797   9.221
73645SOL    HW222833  11.147   7.734   9.310
73646SOL     OW22834   4.884  10.916   5.943
73646SOL    HW122835   4.904  10.864   5.865
73646SOL    HW222836   4.892  11.007   5.914
73647SOL     OW22837   8.102   9.847   1.246
73647SOL    HW122838   8.008   9.833   1.262
73647SOL    HW222839   8.106   9.905   1.170
73648SOL     OW22840   4.480  12.493   4.996
73648SOL    HW122841   4.458  12.465   4.908
73648SOL    HW222842   4.399  12.484   5.046
73649SOL     OW22843   7.443   8.404   1.392
73649SOL    HW122844   7.509   8.448   1.445
73649SOL    HW222845   7.485   8.392   1.307
73650SOL     OW22846  13.417  10.888  12.051
73650SOL    HW122847  13.488  10.918  12.108
73650SOL    HW222848  13.353  10.851  12.111
73651SOL     OW22849  11.802   9.240   2.235
73651SOL    HW122850  11.797   9.335   2.241
73651SOL    HW222851  11.870   9.224   2.169
73652SOL     OW22852   0.566   9.636   0.320
73652SOL    HW122853   0.531   9.602   0.403
73652SOL    HW222854   0.529   9.578   0.254
73653SOL     OW22855   7.244   4.948   7.039
73653SOL    HW122856   7.289   4.871   7.004
73653SOL    HW222857   7.220   4.999   6.962
73654SOL     OW22858   1.936   5.530   8.779
73654SOL    HW122859   2.019   5.563   8.814
73654SOL    HW222860   1.872   5.546   8.848
73655SOL     OW22861   8.976  10.963  13.555
73655SOL    HW122862   9.043  10.904  13.588
73655SOL    HW222863   8.913  10.907  13.510
73656SOL     OW22864   4.173   2.913   6.166
73656SOL    HW122865   4.173   2.834   6.112
73656SOL    HW222866   4.266   2.935   6.175
73657SOL     OW22867  13.148   3.713   4.376
73657SOL    HW122868  13.117   3.786   4.430
73657SOL    HW222869  13.071   3.684   4.328
73658SOL     OW22870   2.754   2.426   5.468
73658SOL    HW122871   2.765   2.517   5.442
73658SOL    HW222872   2.666   2.422   5.506
73659SOL     OW22873   3.424   4.867  11.325
73659SOL    HW122874   3.420   4.900  11.415
73659SOL    HW222875   3.517   4.849  11.310
73660SOL     OW22876   5.888   8.292  14.696
73660SOL    HW122877   5.968   8.311  14.744
73660SOL    HW222878   5.839   8.374  14.699
73661SOL     OW22879   9.477   0.419  12.735
73661SOL    HW122880   9.470   0.352  12.804
73661SOL    HW222881   9.523   0.375  12.664
73662SOL     OW22882   8.756   1.553   1.164
73662SOL    HW122883   8.756   1.590   1.076
73662SOL    HW222884   8.844   1.570   1.197
73663SOL     OW22885  14.225  13.682  13.641
73663SOL    HW122886  14.237  13.773  13.667
73663SOL    HW222887  14.290  13.634  13.693
73664SOL     OW22888   4.149  10.357   1.267
73664SOL    HW122889   4.130  10.451   1.257
73664SOL    HW222890   4.218  10.341   1.203
73665SOL     OW22891   9.732   5.074   8.148
73665SOL    HW122892   9.692   5.114   8.071
73665SOL    HW222893   9.769   5.148   8.196
73666SOL     OW22894   0.767   4.583   2.849
73666SOL    HW122895   0.790   4.491   2.836
73666SOL    HW222896   0.680   4.593   2.811
73667SOL     OW22897  12.005  10.036   7.249
73667SOL    HW122898  12.037  10.125   7.233
73667SOL    HW222899  12.080   9.980   7.228
73668SOL     OW22900   9.585   5.332  13.244
73668SOL    HW122901   9.513   5.379  13.203
73668SOL    HW222902   9.562   5.240  13.235
73669SOL     OW22903   6.773   5.776   2.802
73669SOL    HW122904   6.819   5.852   2.838
73669SOL    HW222905   6.822   5.752   2.724
73670SOL     OW22906   0.120  14.634   1.639
73670SOL    HW122907   0.212  14.607   1.633
73670SOL    HW222908   0.087  14.626   1.549
73671SOL     OW22909   0.825   0.702  11.098
73671SOL    HW122910   0.803   0.611  11.119
73671SOL    HW222911   0.886   0.728  11.166
73672SOL     OW22912   0.460   5.353   1.653
73672SOL    HW122913   0.461   5.297   1.731
73672SOL    HW222914   0.432   5.438   1.684
73673SOL     OW22915  13.301  13.212   9.765
73673SOL    HW122916  13.263  13.282   9.712
73673SOL    HW222917  13.330  13.256   9.845
73674SOL     OW22918   6.778   9.571  12.182
73674SOL    HW122919   6.749   9.523  12.105
73674SOL    HW222920   6.774   9.663  12.155
73675SOL     OW22921   1.399   1.881   2.627
73675SOL    HW122922   1.486   1.844   2.612
73675SOL    HW222923   1.413   1.950   2.692
73676SOL     OW22924   2.558   4.473  10.781
73676SOL    HW122925   2.578   4.434  10.695
73676SOL    HW222926   2.468   4.448  10.799
73677SOL     OW22927  11.631   6.541   6.331
73677SOL    HW122928  11.612   6.605   6.262
73677SOL    HW222929  11.577   6.465   6.309
73678SOL     OW22930   2.316   5.240  10.350
73678SOL    HW122931   2.298   5.146  10.349
73678SOL    HW222932   2.364   5.256  10.269
73679SOL     OW22933   5.262   6.999   6.664
73679SOL    HW122934   5.350   7.033   6.675
73679SOL    HW222935   5.270   6.934   6.593
73680SOL     OW22936   1.219   6.032   9.844
73680SOL    HW122937   1.175   5.947   9.839
73680SOL    HW222938   1.281   6.023   9.917
73681SOL     OW22939   8.293   6.272   8.226
73681SOL    HW122940   8.288   6.259   8.131
73681SOL    HW222941   8.295   6.367   8.238
73682SOL     OW22942   7.162  10.837   1.078
73682SOL    HW122943   7.190  10.746   1.088
73682SOL    HW222944   7.155  10.871   1.167
73683SOL     OW22945   5.772  12.516   6.775
73683SOL    HW122946   5.800  12.442   6.722
73683SOL    HW222947   5.690  12.546   6.734
73684SOL     OW22948   9.839   7.057   5.398
73684SOL    HW122949   9.851   7.140   5.444
73684SOL    HW222950   9.745   7.053   5.380
73685SOL     OW22951   4.936   9.983   1.400
73685SOL    HW122952   4.915   9.895   1.432
73685SOL    HW222953   4.950   9.971   1.306
73686SOL     OW22954  11.643   0.773   8.244
73686SOL    HW122955  11.630   0.868   8.249
73686SOL    HW222956  11.571   0.737   8.294
73687SOL     OW22957  10.708  11.019  12.428
73687SOL    HW122958  10.664  11.001  12.511
73687SOL    HW222959  10.687  11.111  12.409
73688SOL     OW22960   1.620   4.444   5.394
73688SOL    HW122961   1.678   4.464   5.319
73688SOL    HW222962   1.533   4.469   5.364
73689SOL     OW22963   3.686   1.465  13.849
73689SOL    HW122964   3.745   1.409  13.798
73689SOL    HW222965   3.620   1.494  13.786
73690SOL     OW22966   8.215  13.418  10.866
73690SOL    HW122967   8.155  13.349  10.894
73690SOL    HW222968   8.193  13.493  10.922
73691SOL     OW22969  10.803   5.938   2.398
73691SOL    HW122970  10.859   6.015   2.396
73691SOL    HW222971  10.714   5.973   2.399
73692SOL     OW22972   7.939   1.650   8.774
73692SOL    HW122973   7.872   1.615   8.716
73692SOL    HW222974   7.892   1.713   8.829
73693SOL     OW22975  14.595  13.807   1.798
73693SOL    HW122976  14.600  13.761   1.882
73693SOL    HW222977  14.549  13.889   1.818
73694SOL     OW22978  13.629   1.786   1.223
73694SOL    HW122979  13.534   1.793   1.218
73694SOL    HW222980  13.646   1.736   1.303
73695SOL     OW22981   1.476  14.730   8.639
73695SOL    HW122982   1.519  14.730   8.724
73695SOL    HW222983   1.522  14.798   8.589
73696SOL     OW22984   4.224   5.398  12.222
73696SOL    HW122985   4.234   5.401  12.317
73696SOL    HW222986   4.133   5.370  12.209
73697SOL     OW22987  14.860  13.841   1.880
73697SOL    HW122988  14.824  13.772   1.824
73697SOL    HW222989   0.061  13.856   1.845
73698SOL     OW22990   6.165   1.524   1.154
73698SOL    HW122991   6.209   1.554   1.075
73698SOL    HW222992   6.084   1.483   1.123
73699SOL     OW22993   7.922   2.637   4.495
73699SOL    HW122994   7.982   2.568   4.466
73699SOL    HW222995   7.849   2.590   4.534
73700SOL     OW22996  11.906   4.993  14.055
73700SOL    HW122997  11.914   5.078  14.097
73700SOL    HW222998  11.994   4.956  14.057
73701SOL     OW22999   9.239   2.170   1.777
73701SOL    HW123000   9.204   2.258   1.792
73701SOL    HW223001   9.326   2.184   1.741
73702SOL     OW23002   6.501   2.384   7.246
73702SOL    HW123003   6.564   2.320   7.279
73702SOL    HW223004   6.459   2.341   7.172
73703SOL     OW23005   4.697   8.118  11.452
73703SOL    HW123006   4.656   8.032  11.440
73703SOL    HW223007   4.632   8.169  11.500
73704SOL     OW23008   1.387  14.309   8.030
73704SOL    HW123009   1.359  14.346   7.946
73704SOL    HW223010   1.325  14.345   8.094
73705SOL     OW23011   6.436   1.648   4.019
73705SOL    HW123012   6.468   1.662   4.108
73705SOL    HW223013   6.409   1.734   3.989
73706SOL     OW23014  11.172   4.384   9.673
73706SOL    HW123015  11.091   4.344   9.706
73706SOL    HW223016  11.230   4.388   9.748
73707SOL     OW23017   4.888   6.781  13.418
73707SOL    HW123018   4.906   6.688  13.432
73707SOL    HW223019   4.855   6.812  13.502
73708SOL     OW23020  14.287   6.688   2.888
73708SOL    HW123021  14.329   6.609   2.923
73708SOL    HW223022  14.196   6.681   2.914
73709SOL     OW23023  10.736   6.229   3.723
73709SOL    HW123024  10.810   6.288   3.711
73709SOL    HW223025  10.771   6.142   3.705
73710SOL     OW23026  14.191  14.824  12.392
73710SOL    HW123027  14.147   0.022  12.391
73710SOL    HW223028  14.261  14.832  12.327
73711SOL     OW23029  12.694   5.828   0.041
73711SOL    HW123030  12.729   5.871  14.851
73711SOL    HW223031  12.752   5.754   0.057
73712SOL     OW23032   9.890  14.372   9.262
73712SOL    HW123033   9.912  14.438   9.197
73712SOL    HW223034   9.902  14.416   9.346
73713SOL     OW23035  10.391   1.874   3.453
73713SOL    HW123036  10.463   1.912   3.502
73713SOL    HW223037  10.419   1.785   3.432
73714SOL     OW23038  14.037   1.127   0.146
73714SOL    HW123039  14.071   1.141   0.234
73714SOL    HW223040  13.985   1.047   0.153
73715SOL     OW23041   6.229   9.611  12.597
73715SOL    HW123042   6.276   9.581  12.519
73715SOL    HW223043   6.233   9.707  12.591
73716SOL     OW23044   0.302   4.700   5.395
73716SOL    HW123045   0.230   4.713   5.457
73716SOL    HW223046   0.265   4.720   5.310
73717SOL     OW23047   9.436   9.673  11.851
73717SOL    HW123048   9.425   9.740  11.919
73717SOL    HW223049   9.387   9.598  11.883
73718SOL     OW23050  11.944   1.819   1.765
73718SOL    HW123051  11.969   1.727   1.753
73718SOL    HW223052  11.887   1.818   1.842
73719SOL     OW23053   3.012  10.678  11.819
73719SOL    HW123054   3.107  10.670  11.803
73719SOL    HW223055   2.994  10.771  11.810
73720SOL     OW23056   9.857  11.683   4.098
73720SOL    HW123057   9.928  11.644   4.149
73720SOL    HW223058   9.799  11.609   4.077
73721SOL     OW23059  10.120   1.356   1.293
73721SOL    HW123060  10.141   1.312   1.375
73721SOL    HW223061  10.076   1.437   1.319
73722SOL     OW23062   3.341   9.247  12.291
73722SOL    HW123063   3.263   9.234  12.344
73722SOL    HW223064   3.410   9.198  12.336
73723SOL     OW23065   3.939   5.916   6.553
73723SOL    HW123066   3.964   5.830   6.518
73723SOL    HW223067   3.910   5.965   6.476
73724SOL     OW23068  13.535  10.686   5.298
73724SOL    HW123069  13.450  10.728   5.289
73724SOL    HW223070  13.598  10.758   5.297
73725SOL     OW23071  13.501   2.909   9.032
73725SOL    HW123072  13.428   2.854   9.060
73725SOL    HW223073  13.579   2.861   9.060
73726SOL     OW23074   0.497  14.249   2.838
73726SOL    HW123075   0.571  14.278   2.891
73726SOL    HW223076   0.501  14.154   2.841
73727SOL     OW23077  10.623   0.787   7.445
73727SOL    HW123078  10.689   0.719   7.455
73727SOL    HW223079  10.568   0.757   7.372
73728SOL     OW23080   6.282   2.568  13.831
73728SOL    HW123081   6.236   2.542  13.751
73728SOL    HW223082   6.375   2.566  13.806
73729SOL     OW23083   3.260  12.384   4.486
73729SOL    HW123084   3.185  12.423   4.531
73729SOL    HW223085   3.223  12.342   4.408
73730SOL     OW23086   9.585   7.004   1.663
73730SOL    HW123087   9.546   6.932   1.714
73730SOL    HW223088   9.509   7.050   1.626
73731SOL     OW23089   3.758   1.693   4.315
73731SOL    HW123090   3.776   1.763   4.378
73731SOL    HW223091   3.845   1.658   4.292
73732SOL     OW23092  10.253  11.237  14.744
73732SOL    HW123093  10.347  11.254  14.739
73732SOL    HW223094  10.212  11.315  14.708
73733SOL     OW23095  14.812   6.321   6.370
73733SOL    HW123096  14.767   6.313   6.286
73733SOL    HW223097  14.844   6.233   6.389
73734SOL     OW23098   4.688   7.815  12.138
73734SOL    HW123099   4.725   7.817  12.049
73734SOL    HW223100   4.680   7.908  12.162
73735SOL     OW23101   1.835  12.463   3.407
73735SOL    HW123102   1.917  12.417   3.391
73735SOL    HW223103   1.851  12.552   3.376
73736SOL     OW23104   9.630   2.371   1.591
73736SOL    HW123105   9.696   2.404   1.651
73736SOL    HW223106   9.653   2.278   1.579
73737SOL     OW23107   5.593   2.085   7.313
73737SOL    HW123108   5.600   2.162   7.256
73737SOL    HW223109   5.648   2.019   7.271
73738SOL     OW23110   4.691   1.811   5.998
73738SOL    HW123111   4.725   1.730   5.961
73738SOL    HW223112   4.706   1.877   5.930
73739SOL     OW23113   5.183   6.579  14.026
73739SOL    HW123114   5.275   6.603  14.037
73739SOL    HW223115   5.184   6.501  13.970
73740SOL     OW23116   2.968  10.591   9.709
73740SOL    HW123117   2.881  10.630   9.708
73740SOL    HW223118   2.975  10.551   9.795
73741SOL     OW23119   5.116   3.901  11.409
73741SOL    HW123120   5.085   3.837  11.473
73741SOL    HW223121   5.058   3.976  11.419
73742SOL     OW23122   9.141   6.842   4.109
73742SOL    HW123123   9.077   6.824   4.040
73742SOL    HW223124   9.224   6.852   4.062
73743SOL     OW23125  13.285   7.421   2.432
73743SOL    HW123126  13.324   7.373   2.505
73743SOL    HW223127  13.267   7.353   2.366
73744SOL     OW23128   0.555   0.238   7.984
73744SOL    HW123129   0.539   0.333   7.988
73744SOL    HW223130   0.610   0.220   8.060
73745SOL     OW23131   6.932   6.208  13.640
73745SOL    HW123132   6.872   6.245  13.575
73745SOL    HW223133   7.016   6.204  13.596
73746SOL     OW23134   9.503   2.639  13.384
73746SOL    HW123135   9.582   2.585  13.383
73746SOL    HW223136   9.530   2.720  13.342
73747SOL     OW23137   6.581   0.066   6.005
73747SOL    HW123138   6.603   0.134   5.941
73747SOL    HW223139   6.642   0.080   6.077
73748SOL     OW23140  10.242   8.019   9.901
73748SOL    HW123141  10.308   8.001   9.835
73748SOL    HW223142  10.251   7.948   9.964
73749SOL     OW23143  13.146  11.301   5.377
73749SOL    HW123144  13.222  11.333   5.426
73749SOL    HW223145  13.071  11.330   5.428
73750SOL     OW23146  11.072  12.368  13.674
73750SOL    HW123147  11.142  12.369  13.740
73750SOL    HW223148  11.080  12.452  13.629
73751SOL     OW23149  13.733   8.377   8.016
73751SOL    HW123150  13.763   8.297   8.060
73751SOL    HW223151  13.787   8.382   7.937
73752SOL     OW23152   1.290   6.906  10.978
73752SOL    HW123153   1.207   6.869  10.949
73752SOL    HW223154   1.332   6.937  10.897
73753SOL     OW23155  10.646  14.219  10.826
73753SOL    HW123156  10.645  14.314  10.812
73753SOL    HW223157  10.736  14.199  10.851
73754SOL     OW23158   3.752   8.638   0.618
73754SOL    HW123159   3.744   8.664   0.526
73754SOL    HW223160   3.701   8.558   0.625
73755SOL     OW23161  13.184  11.220   9.586
73755SOL    HW123162  13.102  11.172   9.597
73755SOL    HW223163  13.186  11.280   9.661
73756SOL     OW23164   0.765  12.525   7.276
73756SOL    HW123165   0.782  12.442   7.230
73756SOL    HW223166   0.814  12.517   7.358
73757SOL     OW23167   0.651  10.295  14.327
73757SOL    HW123168   0.572  10.346  14.313
73757SOL    HW223169   0.669  10.255  14.241
73758SOL     OW23170   3.846  10.036   1.163
73758SOL    HW123171   3.940  10.016   1.157
73758SOL    HW223172   3.843  10.130   1.179
73759SOL     OW23173   6.928  10.039   8.365
73759SOL    HW123174   6.940   9.963   8.308
73759SOL    HW223175   6.835  10.038   8.388
73760SOL     OW23176   7.539   0.839   4.052
73760SOL    HW123177   7.561   0.751   4.083
73760SOL    HW223178   7.479   0.825   3.979
73761SOL     OW23179  13.574   3.688   9.331
73761SOL    HW123180  13.632   3.761   9.314
73761SOL    HW223181  13.579   3.633   9.253
73762SOL     OW23182  12.153   8.702  12.522
73762SOL    HW123183  12.128   8.788  12.486
73762SOL    HW223184  12.125   8.706  12.613
73763SOL     OW23185   7.997   7.053   1.207
73763SOL    HW123186   7.918   7.107   1.219
73763SOL    HW223187   8.061   7.092   1.266
73764SOL     OW23188   2.084  11.593   5.411
73764SOL    HW123189   2.118  11.612   5.323
73764SOL    HW223190   2.144  11.638   5.470
73765SOL     OW23191   9.830   3.435   7.235
73765SOL    HW123192   9.840   3.488   7.315
73765SOL    HW223193   9.876   3.353   7.255
73766SOL     OW23194   7.941   6.807   1.711
73766SOL    HW123195   7.991   6.811   1.792
73766SOL    HW223196   7.851   6.791   1.739
73767SOL     OW23197   0.132   9.268  11.047
73767SOL    HW123198   0.213   9.226  11.076
73767SOL    HW223199   0.072   9.258  11.120
73768SOL     OW23200  10.351   4.038  10.146
73768SOL    HW123201  10.259   4.057  10.126
73768SOL    HW223202  10.390   4.016  10.062
73769SOL     OW23203   8.217   2.340   5.781
73769SOL    HW123204   8.297   2.295   5.808
73769SOL    HW223205   8.195   2.302   5.696
73770SOL     OW23206  12.108   3.946  12.132
73770SOL    HW123207  12.070   3.935  12.219
73770SOL    HW223208  12.122   3.857  12.100
73771SOL     OW23209   0.979   7.111   4.612
73771SOL    HW123210   1.000   7.103   4.519
73771SOL    HW223211   0.884   7.096   4.616
73772SOL     OW23212   1.100   2.691  10.625
73772SOL    HW123213   1.024   2.634  10.632
73772SOL    HW223214   1.156   2.648  10.559
73773SOL     OW23215   2.007   1.651   6.549
73773SOL    HW123216   2.039   1.686   6.466
73773SOL    HW223217   2.074   1.673   6.613
73774SOL     OW23218   9.025   9.807  13.060
73774SOL    HW123219   9.063   9.848  12.983
73774SOL    HW223220   9.035   9.872  13.130
73775SOL     OW23221   7.986   8.846   0.558
73775SOL    HW123222   7.962   8.938   0.545
73775SOL    HW223223   8.012   8.815   0.471
73776SOL     OW23224  11.237   2.600  12.527
73776SOL    HW123225  11.275   2.512  12.531
73776SOL    HW223226  11.311   2.659  12.538
73777SOL     OW23227   7.567   4.135  10.954
73777SOL    HW123228   7.553   4.180  10.872
73777SOL    HW223229   7.643   4.078  10.938
73778SOL     OW23230   8.469  12.152   9.878
73778SOL    HW123231   8.492  12.245   9.878
73778SOL    HW223232   8.468  12.127   9.786
73779SOL     OW23233   5.595   0.851   7.168
73779SOL    HW123234   5.536   0.923   7.191
73779SOL    HW223235   5.662   0.890   7.112
73780SOL     OW23236  13.494  14.244  12.279
73780SOL    HW123237  13.522  14.233  12.188
73780SOL    HW223238  13.412  14.293  12.273
73781SOL     OW23239   4.249  14.879   9.583
73781SOL    HW123240   4.292  14.861   9.666
73781SOL    HW223241   4.195  14.802   9.566
73782SOL     OW23242   1.169   7.486  13.010
73782SOL    HW123243   1.074   7.476  13.000
73782SOL    HW223244   1.206   7.411  12.963
73783SOL     OW23245   8.952   0.756  10.110
73783SOL    HW123246   8.883   0.813  10.144
73783SOL    HW223247   8.980   0.797  10.028
73784SOL     OW23248   0.503   0.005   1.417
73784SOL    HW123249   0.567   0.067   1.450
73784SOL    HW223250   0.422   0.055   1.411
73785SOL     OW23251   1.479   7.695   0.669
73785SOL    HW123252   1.448   7.666   0.755
73785SOL    HW223253   1.410   7.754   0.638
73786SOL     OW23254  13.828   0.569   2.295
73786SOL    HW123255  13.839   0.477   2.272
73786SOL    HW223256  13.808   0.569   2.388
73787SOL     OW23257   0.651   1.783   8.733
73787SOL    HW123258   0.558   1.759   8.730
73787SOL    HW223259   0.691   1.734   8.662
73788SOL     OW23260  10.130  12.620   0.660
73788SOL    HW123261  10.212  12.669   0.661
73788SOL    HW223262  10.104  12.614   0.752
73789SOL     OW23263  12.009  11.892   1.942
73789SOL    HW123264  11.946  11.833   1.901
73789SOL    HW223265  12.023  11.961   1.878
73790SOL     OW23266   7.268   1.911   6.566
73790SOL    HW123267   7.330   1.982   6.551
73790SOL    HW223268   7.315   1.849   6.622
73791SOL     OW23269  13.325  12.364   3.478
73791SOL    HW123270  13.254  12.413   3.436
73791SOL    HW223271  13.283  12.318   3.551
73792SOL     OW23272   0.472   4.965   4.788
73792SOL    HW123273   0.505   4.950   4.700
73792SOL    HW223274   0.523   4.906   4.843
73793SOL     OW23275   1.864   9.566   3.259
73793SOL    HW123276   1.933   9.574   3.324
73793SOL    HW223277   1.882   9.635   3.196
73794SOL     OW23278   8.276  14.695   3.698
73794SOL    HW123279   8.357  14.704   3.648
73794SOL    HW223280   8.299  14.722   3.787
73795SOL     OW23281   2.044   5.878   8.023
73795SOL    HW123282   2.100   5.813   7.980
73795SOL    HW223283   2.057   5.863   8.116
73796SOL     OW23284   2.273   4.735  10.532
73796SOL    HW123285   2.259   4.684  10.612
73796SOL    HW223286   2.263   4.826  10.560
73797SOL     OW23287   2.840   7.081   9.408
73797SOL    HW123288   2.754   7.074   9.449
73797SOL    HW223289   2.902   7.074   9.481
73798SOL     OW23290   0.151   9.273  12.134
73798SOL    HW123291   0.155   9.365  12.160
73798SOL    HW223292   0.152   9.224  12.216
73799SOL     OW23293  14.529   6.663   8.790
73799SOL    HW123294  14.585   6.586   8.790
73799SOL    HW223295  14.573   6.724   8.730
73800SOL     OW23296   2.178   0.382   9.768
73800SOL    HW123297   2.160   0.312   9.705
73800SOL    HW223298   2.091   0.412   9.794
73801SOL     OW23299   8.732   2.120  10.111
73801SOL    HW123300   8.763   2.047  10.058
73801SOL    HW223301   8.802   2.185  10.108
73802SOL     OW23302   2.591   0.665   1.363
73802SOL    HW123303   2.635   0.698   1.442
73802SOL    HW223304   2.576   0.572   1.380
73803SOL     OW23305   7.985   5.442   5.582
73803SOL    HW123306   8.076   5.450   5.555
73803SOL    HW223307   7.988   5.418   5.674
73804SOL     OW23308  11.029   2.377   2.371
73804SOL    HW123309  11.078   2.432   2.311
73804SOL    HW223310  10.938   2.388   2.344
73805SOL     OW23311  10.361  11.052   8.064
73805SOL    HW123312  10.332  11.016   8.148
73805SOL    HW223313  10.300  11.123   8.046
73806SOL     OW23314  13.132  12.142   4.208
73806SOL    HW123315  13.212  12.193   4.193
73806SOL    HW223316  13.061  12.207   4.204
73807SOL     OW23317  11.855   8.973   8.318
73807SOL    HW123318  11.850   9.064   8.287
73807SOL    HW223319  11.925   8.935   8.265
73808SOL     OW23320   2.512  10.523  14.596
73808SOL    HW123321   2.543  10.600  14.643
73808SOL    HW223322   2.529  10.542  14.504
73809SOL     OW23323  13.896  14.689   3.477
73809SOL    HW123324  13.943  14.634   3.415
73809SOL    HW223325  13.804  14.669   3.461
73810SOL     OW23326   1.963  11.259   4.373
73810SOL    HW123327   1.990  11.340   4.415
73810SOL    HW223328   1.869  11.253   4.391
73811SOL     OW23329  12.106   1.098   4.774
73811SOL    HW123330  12.124   1.188   4.803
73811SOL    HW223331  12.132   1.096   4.682
73812SOL     OW23332   2.696   6.710  14.185
73812SOL    HW123333   2.701   6.744  14.095
73812SOL    HW223334   2.682   6.616  14.174
73813SOL     OW23335   4.772  11.282   5.582
73813SOL    HW123336   4.738  11.226   5.513
73813SOL    HW223337   4.844  11.330   5.542
73814SOL     OW23338   4.203   6.608  12.983
73814SOL    HW123339   4.260   6.568  13.048
73814SOL    HW223340   4.236   6.575  12.899
73815SOL     OW23341   5.645   3.699   4.934
73815SOL    HW123342   5.731   3.726   4.967
73815SOL    HW223343   5.664   3.627   4.874
73816SOL     OW23344   6.424   3.906  13.512
73816SOL    HW123345   6.377   3.988  13.527
73816SOL    HW223346   6.406   3.853  13.589
73817SOL     OW23347   1.440   5.804   0.809
73817SOL    HW123348   1.477   5.888   0.838
73817SOL    HW223349   1.438   5.811   0.714
73818SOL     OW23350   9.453  14.330   3.144
73818SOL    HW123351   9.458  14.348   3.050
73818SOL    HW223352   9.515  14.258   3.158
73819SOL     OW23353   2.124   5.224   2.125
73819SOL    HW123354   2.084   5.265   2.202
73819SOL    HW223355   2.121   5.130   2.145
73820SOL     OW23356   0.286   8.489   8.486
73820SOL    HW123357   0.251   8.488   8.398
73820SOL    HW223358   0.210   8.507   8.542
73821SOL     OW23359   7.716   9.106   1.129
73821SOL    HW123360   7.671   9.050   1.192
73821SOL    HW223361   7.782   9.050   1.089
73822SOL     OW23362  12.108  11.877  13.046
73822SOL    HW123363  12.108  11.929  13.127
73822SOL    HW223364  12.101  11.942  12.977
73823SOL     OW23365  12.238  11.295   4.912
73823SOL    HW123366  12.189  11.378   4.912
73823SOL    HW223367  12.248  11.273   5.005
73824SOL     OW23368   7.152   6.905   4.226
73824SOL    HW123369   7.136   6.816   4.256
73824SOL    HW223370   7.074   6.954   4.253
73825SOL     OW23371  13.142   1.621   3.479
73825SOL    HW123372  13.077   1.682   3.513
73825SOL    HW223373  13.193   1.595   3.556
73826SOL     OW23374   2.316   0.896   4.674
73826SOL    HW123375   2.318   0.942   4.758
73826SOL    HW223376   2.324   0.965   4.608
73827SOL     OW23377   2.176   2.266   4.843
73827SOL    HW123378   2.251   2.230   4.890
73827SOL    HW223379   2.202   2.264   4.751
73828SOL     OW23380   1.184   5.723   6.977
73828SOL    HW123381   1.197   5.712   6.883
73828SOL    HW223382   1.197   5.635   7.013
73829SOL     OW23383  11.253   5.227   9.924
73829SOL    HW123384  11.174   5.269   9.958
73829SOL    HW223385  11.324   5.262   9.978
73830SOL     OW23386   8.987   3.406  13.854
73830SOL    HW123387   8.991   3.427  13.760
73830SOL    HW223388   9.027   3.482  13.897
73831SOL     OW23389   2.466   9.991  14.603
73831SOL    HW123390   2.397   9.985  14.537
73831SOL    HW223391   2.445   9.922  14.665
73832SOL     OW23392   2.586  14.102   1.205
73832SOL    HW123393   2.679  14.119   1.188
73832SOL    HW223394   2.575  14.009   1.187
73833SOL     OW23395   4.795   1.260   3.656
73833SOL    HW123396   4.827   1.347   3.634
73833SOL    HW223397   4.859   1.225   3.717
73834SOL     OW23398   1.522   7.682  14.462
73834SOL    HW123399   1.598   7.644  14.419
73834SOL    HW223400   1.483   7.609  14.511
73835SOL     OW23401   4.371   1.993  10.031
73835SOL    HW123402   4.419   2.024  10.107
73835SOL    HW223403   4.285   2.036  10.038
73836SOL     OW23404  12.150  10.771   8.098
73836SOL    HW123405  12.143  10.845   8.037
73836SOL    HW223406  12.188  10.700   8.046
73837SOL     OW23407   3.566  13.602   6.090
73837SOL    HW123408   3.600  13.539   6.026
73837SOL    HW223409   3.640  13.660   6.108
73838SOL     OW23410  14.216   4.071  14.472
73838SOL    HW123411  14.164   4.116  14.539
73838SOL    HW223412  14.151   4.037  14.411
73839SOL     OW23413   9.895  13.520   7.284
73839SOL    HW123414   9.930  13.451   7.340
73839SOL    HW223415   9.887  13.596   7.342
73840SOL     OW23416   7.515   0.458  12.217
73840SOL    HW123417   7.506   0.382  12.275
73840SOL    HW223418   7.609   0.476  12.217
73841SOL     OW23419  13.292   9.289   0.101
73841SOL    HW123420  13.273   9.205   0.059
73841SOL    HW223421  13.356   9.331   0.043
73842SOL     OW23422  10.028   5.633  13.282
73842SOL    HW123423   9.997   5.705  13.337
73842SOL    HW223424   9.948   5.585  13.259
73843SOL     OW23425   3.703  11.282   8.228
73843SOL    HW123426   3.769  11.350   8.238
73843SOL    HW223427   3.712  11.252   8.137
73844SOL     OW23428   3.213   7.479  13.974
73844SOL    HW123429   3.168   7.484  14.059
73844SOL    HW223430   3.235   7.386  13.965
73845SOL     OW23431   1.119   8.505  10.446
73845SOL    HW123432   1.028   8.510  10.476
73845SOL    HW223433   1.114   8.458  10.363
73846SOL     OW23434   4.713  12.078   2.258
73846SOL    HW123435   4.807  12.059   2.257
73846SOL    HW223436   4.696  12.121   2.174
73847SOL     OW23437   1.163  13.102   4.511
73847SOL    HW123438   1.118  13.020   4.492
73847SOL    HW223439   1.160  13.150   4.428
73848SOL     OW23440   1.896   3.506   2.026
73848SOL    HW123441   1.852   3.421   2.016
73848SOL    HW223442   1.948   3.516   1.947
73849SOL     OW23443   4.418  10.505   8.924
73849SOL    HW123444   4.406  10.481   9.016
73849SOL    HW223445   4.377  10.591   8.917
73850SOL     OW23446   9.314   4.159   4.670
73850SOL    HW123447   9.218   4.170   4.670
73850SOL    HW223448   9.348   4.248   4.682
73851SOL     OW23449   4.284   1.581   5.740
73851SOL    HW123450   4.261   1.661   5.787
73851SOL    HW223451   4.341   1.610   5.669
73852SOL     OW23452   9.935   9.503   0.907
73852SOL    HW123453   9.929   9.445   0.832
73852SOL    HW223454   9.871   9.468   0.969
73853SOL     OW23455   6.046  10.770   4.656
73853SOL    HW123456   6.022  10.733   4.741
73853SOL    HW223457   6.074  10.694   4.604
73854SOL     OW23458   4.217   2.486   8.370
73854SOL    HW123459   4.139   2.541   8.369
73854SOL    HW223460   4.280   2.535   8.422
73855SOL     OW23461   2.213  13.454   8.975
73855SOL    HW123462   2.166  13.422   9.052
73855SOL    HW223463   2.179  13.542   8.961
73856SOL     OW23464   4.355   8.632   3.381
73856SOL    HW123465   4.331   8.639   3.473
73856SOL    HW223466   4.451   8.633   3.381
73857SOL     OW23467   2.470   7.822  14.520
73857SOL    HW123468   2.552   7.816  14.568
73857SOL    HW223469   2.415   7.753  14.557
73858SOL     OW23470   7.491  11.862   2.606
73858SOL    HW123471   7.543  11.828   2.679
73858SOL    HW223472   7.449  11.941   2.641
73859SOL     OW23473   1.323   5.277   8.506
73859SOL    HW123474   1.394   5.228   8.548
73859SOL    HW223475   1.266   5.304   8.579
73860SOL     OW23476   0.662   9.774   5.302
73860SOL    HW123477   0.638   9.700   5.358
73860SOL    HW223478   0.739   9.812   5.344
73861SOL     OW23479   2.332   3.053   8.962
73861SOL    HW123480   2.345   3.102   8.880
73861SOL    HW223481   2.420   3.039   8.996
73862SOL     OW23482   9.155   7.732  11.130
73862SOL    HW123483   9.216   7.805  11.120
73862SOL    HW223484   9.084   7.767  11.183
73863SOL     OW23485   1.656   4.180  14.595
73863SOL    HW123486   1.715   4.236  14.544
73863SOL    HW223487   1.598   4.241  14.641
73864SOL     OW23488  11.156   6.012   4.755
73864SOL    HW123489  11.244   5.975   4.764
73864SOL    HW223490  11.170   6.098   4.716
73865SOL     OW23491   4.495   3.810  14.230
73865SOL    HW123492   4.557   3.750  14.273
73865SOL    HW223493   4.510   3.894  14.273
73866SOL     OW23494  12.450   8.163   4.324
73866SOL    HW123495  12.440   8.231   4.391
73866SOL    HW223496  12.505   8.204   4.257
73867SOL     OW23497   1.788   9.208  13.082
73867SOL    HW123498   1.835   9.221  12.999
73867SOL    HW223499   1.845   9.152  13.133
73868SOL     OW23500   1.260   7.713  14.660
73868SOL    HW123501   1.320   7.767  14.712
73868SOL    HW223502   1.259   7.755  14.574
73869SOL     OW23503   7.407   5.999   3.864
73869SOL    HW123504   7.439   5.916   3.829
73869SOL    HW223505   7.473   6.063   3.837
73870SOL     OW23506   1.364   5.796  11.892
73870SOL    HW123507   1.452   5.773  11.921
73870SOL    HW223508   1.351   5.885  11.924
73871SOL     OW23509  14.531   6.493  12.278
73871SOL    HW123510  14.611   6.509  12.228
73871SOL    HW223511  14.554   6.514  12.368
73872SOL     OW23512   4.374   1.185   5.388
73872SOL    HW123513   4.468   1.168   5.395
73872SOL    HW223514   4.355   1.175   5.295
73873SOL     OW23515  11.081   4.168   7.164
73873SOL    HW123516  11.172   4.141   7.177
73873SOL    HW223517  11.044   4.168   7.253
73874SOL     OW23518  13.785   4.321  14.027
73874SOL    HW123519  13.824   4.404  13.999
73874SOL    HW223520  13.739   4.343  14.109
73875SOL     OW23521   3.649   5.001  10.116
73875SOL    HW123522   3.583   4.970  10.055
73875SOL    HW223523   3.668   4.925  10.172
73876SOL     OW23524   7.386  11.731  13.055
73876SOL    HW123525   7.472  11.696  13.032
73876SOL    HW223526   7.397  11.826  13.053
73877SOL     OW23527   5.060   0.398  10.026
73877SOL    HW123528   5.052   0.318   9.974
73877SOL    HW223529   4.992   0.390  10.093
73878SOL     OW23530   4.766   8.815   7.973
73878SOL    HW123531   4.837   8.751   7.967
73878SOL    HW223532   4.743   8.818   8.066
73879SOL     OW23533   9.655   9.464   8.296
73879SOL    HW123534   9.730   9.490   8.243
73879SOL    HW223535   9.619   9.388   8.251
73880SOL     OW23536   0.871  12.633   0.992
73880SOL    HW123537   0.922  12.609   1.069
73880SOL    HW223538   0.887  12.727   0.981
73881SOL     OW23539  12.520   8.329   2.200
73881SOL    HW123540  12.487   8.353   2.286
73881SOL    HW223541  12.615   8.327   2.211
73882SOL     OW23542   0.813   7.143   5.823
73882SOL    HW123543   0.732   7.156   5.773
73882SOL    HW223544   0.877   7.115   5.757
73883SOL     OW23545   3.257  14.433  12.617
73883SOL    HW123546   3.239  14.353  12.667
73883SOL    HW223547   3.347  14.456  12.640
73884SOL     OW23548   2.857   1.669   2.816
73884SOL    HW123549   2.902   1.753   2.812
73884SOL    HW223550   2.811   1.662   2.732
73885SOL     OW23551   8.068   3.712   3.054
73885SOL    HW123552   8.012   3.640   3.084
73885SOL    HW223553   8.132   3.724   3.125
73886SOL     OW23554  10.906   9.256   4.902
73886SOL    HW123555  10.980   9.241   4.961
73886SOL    HW223556  10.934   9.328   4.847
73887SOL     OW23557   3.658   9.451   2.532
73887SOL    HW123558   3.564   9.449   2.515
73887SOL    HW223559   3.667   9.419   2.622
73888SOL     OW23560  13.055   5.150   4.495
73888SOL    HW123561  13.007   5.152   4.412
73888SOL    HW223562  13.145   5.130   4.470
73889SOL     OW23563   8.496   7.302   8.359
73889SOL    HW123564   8.455   7.226   8.317
73889SOL    HW223565   8.431   7.332   8.423
73890SOL     OW23566   5.518  14.562   0.553
73890SOL    HW123567   5.589  14.535   0.496
73890SOL    HW223568   5.537  14.654   0.574
73891SOL     OW23569   9.485  12.330   8.212
73891SOL    HW123570   9.469  12.266   8.143
73891SOL    HW223571   9.532  12.402   8.169
73892SOL     OW23572  10.233   8.501   1.954
73892SOL    HW123573  10.258   8.593   1.948
73892SOL    HW223574  10.249   8.465   1.867
73893SOL     OW23575  13.018   9.287  11.030
73893SOL    HW123576  12.958   9.213  11.030
73893SOL    HW223577  13.089   9.260  11.088
73894SOL     OW23578   1.227   9.930   2.256
73894SOL    HW123579   1.151   9.875   2.240
73894SOL    HW223580   1.294   9.896   2.196
73895SOL     OW23581   6.947   8.378  11.562
73895SOL    HW123582   6.927   8.393  11.654
73895SOL    HW223583   6.866   8.341  11.526
73896SOL     OW23584   7.013   7.506   1.782
73896SOL    HW123585   7.061   7.571   1.730
73896SOL    HW223586   6.968   7.558   1.850
73897SOL     OW23587   1.226   2.299   7.232
73897SOL    HW123588   1.160   2.245   7.276
73897SOL    HW223589   1.307   2.248   7.238
73898SOL     OW23590  10.357   4.709  10.301
73898SOL    HW123591  10.335   4.769  10.372
73898SOL    HW223592  10.428   4.655  10.336
73899SOL     OW23593   9.764  12.153   5.291
73899SOL    HW123594   9.694  12.213   5.316
73899SOL    HW223595   9.776  12.097   5.367
73900SOL     OW23596   4.554   1.842  12.348
73900SOL    HW123597   4.600   1.924  12.367
73900SOL    HW223598   4.623   1.780  12.325
73901SOL     OW23599  14.593   9.904   7.822
73901SOL    HW123600  14.676   9.923   7.778
73901SOL    HW223601  14.613   9.833   7.883
73902SOL     OW23602   3.096  12.759  13.123
73902SOL    HW123603   3.096  12.668  13.091
73902SOL    HW223604   3.182  12.770  13.162
73903SOL     OW23605   2.963   4.329   2.176
73903SOL    HW123606   2.961   4.404   2.116
73903SOL    HW223607   2.877   4.330   2.218
73904SOL     OW23608  13.667  11.753  10.493
73904SOL    HW123609  13.581  11.757  10.453
73904SOL    HW223610  13.700  11.666  10.471
73905SOL     OW23611   3.624   0.825   1.178
73905SOL    HW123612   3.607   0.839   1.085
73905SOL    HW223613   3.620   0.729   1.188
73906SOL     OW23614   5.038   8.718   2.662
73906SOL    HW123615   5.002   8.645   2.712
73906SOL    HW223616   4.984   8.793   2.687
73907SOL     OW23617  14.613   8.752   8.082
73907SOL    HW123618  14.556   8.819   8.045
73907SOL    HW223619  14.596   8.674   8.028
73908SOL     OW23620   9.213  12.892  10.505
73908SOL    HW123621   9.181  12.942  10.581
73908SOL    HW223622   9.133  12.861  10.462
73909SOL     OW23623  12.313  10.741   5.506
73909SOL    HW123624  12.305  10.650   5.479
73909SOL    HW223625  12.225  10.765   5.536
73910SOL     OW23626   1.963   2.363   9.322
73910SOL    HW123627   1.945   2.299   9.253
73910SOL    HW223628   2.010   2.313   9.389
73911SOL     OW23629  12.109  10.437   4.431
73911SOL    HW123630  12.096  10.532   4.438
73911SOL    HW223631  12.123  10.408   4.521
73912SOL     OW23632   9.241   3.165   3.471
73912SOL    HW123633   9.186   3.241   3.454
73912SOL    HW223634   9.327   3.201   3.490
73913SOL     OW23635  12.541  10.559  10.664
73913SOL    HW123636  12.627  10.600  10.673
73913SOL    HW223637  12.559  10.470  10.633
73914SOL     OW23638   1.531   8.200  11.618
73914SOL    HW123639   1.570   8.255  11.550
73914SOL    HW223640   1.437   8.210  11.606
73915SOL     OW23641   0.829   5.483   0.141
73915SOL    HW123642   0.778   5.492   0.060
73915SOL    HW223643   0.780   5.535   0.205
73916SOL     OW23644   2.346   9.853  12.566
73916SOL    HW123645   2.379   9.865  12.477
73916SOL    HW223646   2.397   9.914  12.619
73917SOL     OW23647   4.391   4.278   6.231
73917SOL    HW123648   4.440   4.281   6.313
73917SOL    HW223649   4.416   4.358   6.185
73918SOL     OW23650   9.105  14.255  13.708
73918SOL    HW123651   9.105  14.249  13.804
73918SOL    HW223652   9.119  14.165  13.679
73919SOL     OW23653  11.260   1.824   4.845
73919SOL    HW123654  11.170   1.847   4.865
73919SOL    HW223655  11.308   1.837   4.926
73920SOL     OW23656   0.096   1.084   8.060
73920SOL    HW123657   0.171   1.079   8.120
73920SOL    HW223658   0.031   1.135   8.108
73921SOL     OW23659  10.347   9.679  12.337
73921SOL    HW123660  10.354   9.760  12.285
73921SOL    HW223661  10.435   9.665  12.371
73922SOL     OW23662   7.997   5.139  11.200
73922SOL    HW123663   7.931   5.140  11.269
73922SOL    HW223664   8.070   5.189  11.234
73923SOL     OW23665   1.571   5.033  11.752
73923SOL    HW123666   1.582   5.104  11.688
73923SOL    HW223667   1.661   5.005  11.772
73924SOL     OW23668  12.004   2.150   6.034
73924SOL    HW123669  12.034   2.059   6.039
73924SOL    HW223670  11.913   2.147   6.063
73925SOL     OW23671   6.329  12.599   9.408
73925SOL    HW123672   6.334  12.662   9.479
73925SOL    HW223673   6.235  12.592   9.389
73926SOL     OW23674   8.887  11.877   3.122
73926SOL    HW123675   8.968  11.826   3.126
73926SOL    HW223676   8.849  11.869   3.209
73927SOL     OW23677   7.174   5.965   8.200
73927SOL    HW123678   7.203   6.039   8.147
73927SOL    HW223679   7.116   5.915   8.142
73928SOL     OW23680   2.549   5.269   7.588
73928SOL    HW123681   2.622   5.332   7.590
73928SOL    HW223682   2.522   5.267   7.496
73929SOL     OW23683   4.171  10.032   3.586
73929SOL    HW123684   4.234  10.104   3.589
73929SOL    HW223685   4.187   9.988   3.503
73930SOL     OW23686  10.156   6.476  12.306
73930SOL    HW123687  10.097   6.521  12.246
73930SOL    HW223688  10.116   6.390  12.318
73931SOL     OW23689  12.567   0.277   7.266
73931SOL    HW123690  12.557   0.192   7.309
73931SOL    HW223691  12.478   0.302   7.242
73932SOL     OW23692  11.925   9.955   1.901
73932SOL    HW123693  11.921   9.989   1.811
73932SOL    HW223694  11.836   9.922   1.917
73933SOL     OW23695   0.328   7.881   9.693
73933SOL    HW123696   0.277   7.807   9.661
73933SOL    HW223697   0.326   7.944   9.622
73934SOL     OW23698   2.925   8.045  12.268
73934SOL    HW123699   3.009   8.088  12.287
73934SOL    HW223700   2.946   7.982  12.199
73935SOL     OW23701  14.629   0.545   4.023
73935SOL    HW123702  14.585   0.465   4.051
73935SOL    HW223703  14.717   0.538   4.061
73936SOL     OW23704  10.549  10.410  13.072
73936SOL    HW123705  10.501  10.370  13.145
73936SOL    HW223706  10.483  10.418  13.002
73937SOL     OW23707   3.268  10.295  12.045
73937SOL    HW123708   3.257  10.354  11.970
73937SOL    HW223709   3.304  10.215  12.008
73938SOL     OW23710  10.299  12.374   0.757
73938SOL    HW123711  10.243  12.441   0.718
73938SOL    HW223712  10.353  12.342   0.685
73939SOL     OW23713   3.838   0.417   6.928
73939SOL    HW123714   3.829   0.345   6.990
73939SOL    HW223715   3.834   0.496   6.983
73940SOL     OW23716  11.351  13.766  11.327
73940SOL    HW123717  11.310  13.797  11.247
73940SOL    HW223718  11.335  13.672  11.327
73941SOL     OW23719   0.471   8.305   9.300
73941SOL    HW123720   0.549   8.347   9.336
73941SOL    HW223721   0.410   8.299   9.374
73942SOL     OW23722   2.410   9.546  12.113
73942SOL    HW123723   2.473   9.617  12.106
73942SOL    HW223724   2.435   9.499  12.192
73943SOL     OW23725  12.596   4.121   9.944
73943SOL    HW123726  12.527   4.101   9.880
73943SOL    HW223727  12.637   4.036   9.962
73944SOL     OW23728   0.077   2.280  12.021
73944SOL    HW123729   0.165   2.319  12.022
73944SOL    HW223730   0.032   2.326  11.950
73945SOL     OW23731   3.273  12.431  14.760
73945SOL    HW123732   3.359  12.438  14.718
73945SOL    HW223733   3.251  12.520  14.786
73946SOL     OW23734  11.315   3.363   7.388
73946SOL    HW123735  11.341   3.341   7.478
73946SOL    HW223736  11.233   3.412   7.399
73947SOL     OW23737  10.760   8.274   1.235
73947SOL    HW123738  10.732   8.189   1.199
73947SOL    HW223739  10.689   8.334   1.211
73948SOL     OW23740   8.996   2.794  13.377
73948SOL    HW123741   9.071   2.849  13.357
73948SOL    HW223742   9.013   2.760  13.465
73949SOL     OW23743   9.956   0.883  13.700
73949SOL    HW123744   9.906   0.893  13.619
73949SOL    HW223745   9.935   0.961  13.751
73950SOL     OW23746   6.386  10.811  11.739
73950SOL    HW123747   6.416  10.870  11.808
73950SOL    HW223748   6.415  10.853  11.658
73951SOL     OW23749  12.174  14.153  13.451
73951SOL    HW123750  12.159  14.147  13.545
73951SOL    HW223751  12.086  14.158  13.413
73952SOL     OW23752   7.246   1.100   2.644
73952SOL    HW123753   7.177   1.096   2.710
73952SOL    HW223754   7.327   1.111   2.694
73953SOL     OW23755   1.965   7.091   3.467
73953SOL    HW123756   1.997   7.153   3.401
73953SOL    HW223757   2.009   7.117   3.547
73954SOL     OW23758   9.335   7.811   3.619
73954SOL    HW123759   9.365   7.883   3.564
73954SOL    HW223760   9.359   7.732   3.570
73955SOL     OW23761  11.357   1.423   3.194
73955SOL    HW123762  11.405   1.483   3.137
73955SOL    HW223763  11.344   1.472   3.275
73956SOL     OW23764  11.021   8.153   1.791
73956SOL    HW123765  11.058   8.242   1.789
73956SOL    HW223766  10.927   8.167   1.800
73957SOL     OW23767   8.739   2.605   6.307
73957SOL    HW123768   8.646   2.586   6.321
73957SOL    HW223769   8.763   2.662   6.380
73958SOL     OW23770  14.008   4.833   9.909
73958SOL    HW123771  14.030   4.777   9.834
73958SOL    HW223772  13.915   4.853   9.897
73959SOL     OW23773   5.957   5.324   4.477
73959SOL    HW123774   5.955   5.312   4.572
73959SOL    HW223775   5.917   5.244   4.442
73960SOL     OW23776   9.537  12.241   7.624
73960SOL    HW123777   9.547  12.176   7.554
73960SOL    HW223778   9.445  12.235   7.649
73961SOL     OW23779  10.019  10.716   7.399
73961SOL    HW123780  10.025  10.788   7.462
73961SOL    HW223781  10.086  10.735   7.333
73962SOL     OW23782  11.333   9.544  11.117
73962SOL    HW123783  11.395   9.595  11.169
73962SOL    HW223784  11.248   9.563  11.156
73963SOL     OW23785   8.862   3.326  11.952
73963SOL    HW123786   8.911   3.407  11.945
73963SOL    HW223787   8.853   3.294  11.863
73964SOL     OW23788   2.795   5.172   6.777
73964SOL    HW123789   2.878   5.124   6.773
73964SOL    HW223790   2.820   5.262   6.799
73965SOL     OW23791  10.791   0.555   0.426
73965SOL    HW123792  10.813   0.574   0.335
73965SOL    HW223793  10.696   0.542   0.424
73966SOL     OW23794   7.084   1.074   2.844
73966SOL    HW123795   7.051   1.109   2.927
73966SOL    HW223796   7.017   1.012   2.815
73967SOL     OW23797   5.759   4.629   0.484
73967SOL    HW123798   5.841   4.677   0.492
73967SOL    HW223799   5.754   4.605   0.392
73968SOL     OW23800   5.674   9.550  11.926
73968SOL    HW123801   5.582   9.548  11.951
73968SOL    HW223802   5.674   9.586  11.837
73969SOL     OW23803   8.674  10.219   8.328
73969SOL    HW123804   8.612  10.219   8.402
73969SOL    HW223805   8.619  10.211   8.251
73970SOL     OW23806   3.275  14.747  11.263
73970SOL    HW123807   3.195  14.788  11.231
73970SOL    HW223808   3.340  14.818  11.262
73971SOL     OW23809   9.046   2.196   8.116
73971SOL    HW123810   8.987   2.176   8.189
73971SOL    HW223811   9.129   2.157   8.142
73972SOL     OW23812   8.101   4.765  12.802
73972SOL    HW123813   8.174   4.827  12.800
73972SOL    HW223814   8.116   4.707  12.727
73973SOL     OW23815  13.142   5.624   7.869
73973SOL    HW123816  13.169   5.533   7.852
73973SOL    HW223817  13.124   5.660   7.782
73974SOL     OW23818  14.689   5.792  11.576
73974SOL    HW123819  14.724   5.791  11.665
73974SOL    HW223820  14.763   5.817  11.521
73975SOL     OW23821  12.702   0.289   7.985
73975SOL    HW123822  12.733   0.375   7.959
73975SOL    HW223823  12.687   0.243   7.903
73976SOL     OW23824   6.146   9.514   4.637
73976SOL    HW123825   6.186   9.449   4.579
73976SOL    HW223826   6.220   9.562   4.674
73977SOL     OW23827  13.530  11.621   7.327
73977SOL    HW123828  13.569  11.699   7.286
73977SOL    HW223829  13.488  11.654   7.406
73978SOL     OW23830   8.776   8.686   3.012
73978SOL    HW123831   8.868   8.711   3.023
73978SOL    HW223832   8.740   8.755   2.956
73979SOL     OW23833   9.453   5.772   7.374
73979SOL    HW123834   9.471   5.732   7.288
73979SOL    HW223835   9.363   5.802   7.368
73980SOL     OW23836   9.642  11.276  11.740
73980SOL    HW123837   9.674  11.360  11.774
73980SOL    HW223838   9.575  11.249  11.804
73981SOL     OW23839   7.960   0.680   6.081
73981SOL    HW123840   7.926   0.690   6.169
73981SOL    HW223841   7.912   0.744   6.029
73982SOL     OW23842   1.517  13.004   3.313
73982SOL    HW123843   1.589  12.983   3.254
73982SOL    HW223844   1.505  12.924   3.365
73983SOL     OW23845   0.111   9.202   8.995
73983SOL    HW123846   0.166   9.196   9.074
73983SOL    HW223847   0.157   9.265   8.939
73984SOL     OW23848   2.550   0.482  14.817
73984SOL    HW123849   2.551   0.422  14.742
73984SOL    HW223850   2.638   0.522  14.816
73985SOL     OW23851  14.798   4.245   5.477
73985SOL    HW123852   0.001   4.262   5.503
73985SOL    HW223853  14.746   4.308   5.527
73986SOL     OW23854   7.682   3.514   4.200
73986SOL    HW123855   7.724   3.591   4.238
73986SOL    HW223856   7.724   3.440   4.242
73987SOL     OW23857  10.448   2.525   1.457
73987SOL    HW123858  10.510   2.515   1.385
73987SOL    HW223859  10.362   2.509   1.417
73988SOL     OW23860   0.402   0.664   6.136
73988SOL    HW123861   0.325   0.706   6.173
73988SOL    HW223862   0.409   0.699   6.047
73989SOL     OW23863  10.635  11.031   6.627
73989SOL    HW123864  10.546  11.013   6.656
73989SOL    HW223865  10.642  10.987   6.542
73990SOL     OW23866   2.140   9.705   9.281
73990SOL    HW123867   2.100   9.626   9.316
73990SOL    HW223868   2.222   9.676   9.241
73991SOL     OW23869  11.368   5.156  14.172
73991SOL    HW123870  11.411   5.126  14.252
73991SOL    HW223871  11.439   5.183  14.115
73992SOL     OW23872  12.991   6.083   3.895
73992SOL    HW123873  13.033   6.002   3.924
73992SOL    HW223874  12.920   6.096   3.958
73993SOL     OW23875   1.392  10.204   1.922
73993SOL    HW123876   1.339  10.149   1.863
73993SOL    HW223877   1.348  10.199   2.006
73994SOL     OW23878  13.160   5.595   4.091
73994SOL    HW123879  13.152   5.528   4.158
73994SOL    HW223880  13.072   5.602   4.053
73995SOL     OW23881  12.829   0.111   7.819
73995SOL    HW123882  12.893   0.182   7.827
73995SOL    HW223883  12.787   0.126   7.735
73996SOL     OW23884  10.269   3.021   8.284
73996SOL    HW123885  10.226   3.102   8.257
73996SOL    HW223886  10.291   2.976   8.202
73997SOL     OW23887   1.016   6.829  11.093
73997SOL    HW123888   1.075   6.845  11.166
73997SOL    HW223889   1.060   6.764  11.039
73998SOL     OW23890   8.802  12.676   6.572
73998SOL    HW123891   8.765  12.751   6.525
73998SOL    HW223892   8.740  12.605   6.556
73999SOL     OW23893  11.327  10.764   9.706
73999SOL    HW123894  11.329  10.707   9.784
73999SOL    HW223895  11.405  10.819   9.715
74000SOL     OW23896  10.654   3.284   2.374
74000SOL    HW123897  10.696   3.206   2.338
74000SOL    HW223898  10.722   3.350   2.375
74001SOL     OW23899  12.718   0.636  14.408
74001SOL    HW123900  12.751   0.633  14.498
74001SOL    HW223901  12.687   0.726  14.398
74002SOL     OW23902   7.918   8.518   1.482
74002SOL    HW123903   7.831   8.554   1.464
74002SOL    HW223904   7.978   8.572   1.432
74003SOL     OW23905  12.508   4.167   0.325
74003SOL    HW123906  12.512   4.081   0.283
74003SOL    HW223907  12.555   4.155   0.408
74004SOL     OW23908   8.451   4.662  12.280
74004SOL    HW123909   8.513   4.620  12.220
74004SOL    HW223910   8.426   4.743  12.236
74005SOL     OW23911   1.946   4.947   5.464
74005SOL    HW123912   1.882   4.959   5.535
74005SOL    HW223913   2.012   4.888   5.501
74006SOL     OW23914   8.797   1.687   9.796
74006SOL    HW123915   8.726   1.688   9.732
74006SOL    HW223916   8.827   1.596   9.797
74007SOL     OW23917  13.855   2.659   9.412
74007SOL    HW123918  13.828   2.710   9.336
74007SOL    HW223919  13.827   2.570   9.393
74008SOL     OW23920  10.516   8.448   5.981
74008SOL    HW123921  10.446   8.514   5.988
74008SOL    HW223922  10.519   8.427   5.887
74009SOL     OW23923  13.663   3.120   5.461
74009SOL    HW123924  13.714   3.125   5.542
74009SOL    HW223925  13.652   3.026   5.445
74010SOL     OW23926   2.747   0.079   5.753
74010SOL    HW123927   2.837   0.106   5.769
74010SOL    HW223928   2.722   0.031   5.831
74011SOL     OW23929   8.501   9.189   8.073
74011SOL    HW123930   8.558   9.121   8.036
74011SOL    HW223931   8.429   9.196   8.011
74012SOL     OW23932  13.067   2.691   7.149
74012SOL    HW123933  13.146   2.744   7.151
74012SOL    HW223934  13.001   2.743   7.195
74013SOL     OW23935   0.466  12.640   2.075
74013SOL    HW123936   0.444  12.730   2.051
74013SOL    HW223937   0.467  12.640   2.171
74014SOL     OW23938   4.155   3.728  10.706
74014SOL    HW123939   4.073   3.714  10.658
74014SOL    HW223940   4.150   3.818  10.737
74015SOL     OW23941   5.140  12.866  12.877
74015SOL    HW123942   5.174  12.916  12.951
74015SOL    HW223943   5.163  12.775  12.896
74016SOL     OW23944  11.115  14.356  10.399
74016SOL    HW123945  11.099  14.332  10.490
74016SOL    HW223946  11.179  14.427  10.404
74017SOL     OW23947   8.310  14.154   0.368
74017SOL    HW123948   8.365  14.099   0.423
74017SOL    HW223949   8.221  14.134   0.396
74018SOL     OW23950   5.844   7.427  13.807
74018SOL    HW123951   5.878   7.361  13.868
74018SOL    HW223952   5.869   7.511  13.846
74019SOL     OW23953   5.724  10.896   5.705
74019SOL    HW123954   5.814  10.902   5.739
74019SOL    HW223955   5.700  10.986   5.686
74020SOL     OW23956   5.319  10.760   2.289
74020SOL    HW123957   5.296  10.686   2.233
74020SOL    HW223958   5.327  10.834   2.229
74021SOL     OW23959   8.912   2.561  10.173
74021SOL    HW123960   8.918   2.477  10.128
74021SOL    HW223961   8.818   2.574  10.188
74022SOL     OW23962   2.559   3.474  12.333
74022SOL    HW123963   2.564   3.429  12.249
74022SOL    HW223964   2.486   3.432  12.378
74023SOL     OW23965  10.550   8.199   3.210
74023SOL    HW123966  10.497   8.236   3.139
74023SOL    HW223967  10.534   8.104   3.204
74024SOL     OW23968   9.724   1.202  12.187
74024SOL    HW123969   9.713   1.274  12.124
74024SOL    HW223970   9.641   1.154  12.183
74025SOL     OW23971   1.951   9.119  12.804
74025SOL    HW123972   2.021   9.109  12.868
74025SOL    HW223973   1.992   9.094  12.720
74026SOL     OW23974  12.852   6.340   5.890
74026SOL    HW123975  12.817   6.397   5.821
74026SOL    HW223976  12.938   6.376   5.909
74027SOL     OW23977   5.819   9.814   1.467
74027SOL    HW123978   5.741   9.857   1.432
74027SOL    HW223979   5.854   9.763   1.394
74028SOL     OW23980   3.749   0.266  10.081
74028SOL    HW123981   3.771   0.359  10.076
74028SOL    HW223982   3.761   0.243  10.173
74029SOL     OW23983  10.381   2.883   2.241
74029SOL    HW123984  10.429   2.930   2.172
74029SOL    HW223985  10.424   2.798   2.246
74030SOL     OW23986  10.064   7.816   6.310
74030SOL    HW123987   9.972   7.801   6.332
74030SOL    HW223988  10.061   7.857   6.223
74031SOL     OW23989   0.493  14.129   5.662
74031SOL    HW123990   0.585  14.114   5.684
74031SOL    HW223991   0.491  14.219   5.627
74032SOL     OW23992   9.926   8.167   5.989
74032SOL    HW123993   9.959   8.085   6.026
74032SOL    HW223994   9.966   8.170   5.901
74033SOL     OW23995  12.220  13.540  10.165
74033SOL    HW123996  12.221  13.623  10.214
74033SOL    HW223997  12.311  13.511  10.165
74034SOL     OW23998  10.702   3.885  12.708
74034SOL    HW123999  10.733   3.972  12.731
74034SOL    HW224000  10.606   3.891  12.715
74035SOL     OW24001  11.347   6.584   6.467
74035SOL    HW124002  11.389   6.541   6.542
74035SOL    HW224003  11.313   6.511   6.414
74036SOL     OW24004  13.016   4.260  14.236
74036SOL    HW124005  13.037   4.236  14.146
74036SOL    HW224006  13.000   4.176  14.280
74037SOL     OW24007   2.623   9.458   4.590
74037SOL    HW124008   2.670   9.428   4.668
74037SOL    HW224009   2.618   9.380   4.534
74038SOL     OW24010  10.760  14.472  12.409
74038SOL    HW124011  10.851  14.470  12.438
74038SOL    HW224012  10.763  14.518  12.325
74039SOL     OW24013   2.938   5.349   5.845
74039SOL    HW124014   2.991   5.401   5.906
74039SOL    HW224015   2.956   5.258   5.869
74040SOL     OW24016   0.756   5.827  10.301
74040SOL    HW124017   0.686   5.872  10.253
74040SOL    HW224018   0.826   5.891  10.308
74041SOL     OW24019   1.886   5.006   4.553
74041SOL    HW124020   1.868   4.914   4.575
74041SOL    HW224021   1.907   5.005   4.460
74042SOL     OW24022   6.348   1.905   3.933
74042SOL    HW124023   6.383   1.927   3.846
74042SOL    HW224024   6.273   1.963   3.943
74043SOL     OW24025   0.395  12.275   3.162
74043SOL    HW124026   0.444  12.238   3.089
74043SOL    HW224027   0.448  12.253   3.239
74044SOL     OW24028   2.161  13.002  10.476
74044SOL    HW124029   2.220  12.971  10.545
74044SOL    HW224030   2.082  13.028  10.523
74045SOL     OW24031   8.856  10.650   5.833
74045SOL    HW124032   8.933  10.630   5.886
74045SOL    HW224033   8.890  10.663   5.745
74046SOL     OW24034  13.546   4.478   0.730
74046SOL    HW124035  13.590   4.560   0.752
74046SOL    HW224036  13.508   4.494   0.643
74047SOL     OW24037   4.454   5.072   7.711
74047SOL    HW124038   4.386   5.075   7.644
74047SOL    HW224039   4.532   5.106   7.667
74048SOL     OW24040   7.733  12.181   5.976
74048SOL    HW124041   7.806  12.180   6.037
74048SOL    HW224042   7.770  12.148   5.893
74049SOL     OW24043   3.421  14.740   7.241
74049SOL    HW124044   3.491  14.683   7.209
74049SOL    HW224045   3.372  14.763   7.162
74050SOL     OW24046   0.246   9.123   8.528
74050SOL    HW124047   0.317   9.063   8.508
74050SOL    HW224048   0.190   9.121   8.450
74051SOL     OW24049  11.195   8.629   8.237
74051SOL    HW124050  11.121   8.585   8.196
74051SOL    HW224051  11.272   8.588   8.199
74052SOL     OW24052  10.740   0.853  13.192
74052SOL    HW124053  10.693   0.930  13.160
74052SOL    HW224054  10.777   0.882  13.276
74053SOL     OW24055   7.472   6.674   6.628
74053SOL    HW124056   7.540   6.699   6.690
74053SOL    HW224057   7.455   6.753   6.577
74054SOL     OW24058  13.434  11.791   7.567
74054SOL    HW124059  13.485  11.871   7.581
74054SOL    HW224060  13.344  11.815   7.591
74055SOL     OW24061  11.215  11.699  14.225
74055SOL    HW124062  11.248  11.761  14.290
74055SOL    HW224063  11.207  11.751  14.144
74056SOL     OW24064   3.094  12.747   5.566
74056SOL    HW124065   3.137  12.828   5.540
74056SOL    HW224066   3.014  12.745   5.512
74057SOL     OW24067  14.281  12.819   4.376
74057SOL    HW124068  14.298  12.766   4.298
74057SOL    HW224069  14.221  12.766   4.428
74058SOL     OW24070   7.410  12.575   2.309
74058SOL    HW124071   7.487  12.558   2.255
74058SOL    HW224072   7.415  12.511   2.380
74059SOL     OW24073   6.754   9.514  10.030
74059SOL    HW124074   6.669   9.483  10.061
74059SOL    HW224075   6.738   9.542   9.940
74060SOL     OW24076   6.004  14.268  13.608
74060SOL    HW124077   5.945  14.201  13.642
74060SOL    HW224078   5.947  14.333  13.567
74061SOL     OW24079   3.892   0.451   5.598
74061SOL    HW124080   3.858   0.364   5.577
74061SOL    HW224081   3.987   0.439   5.601
74062SOL     OW24082   6.124   7.329  11.580
74062SOL    HW124083   6.038   7.305  11.546
74062SOL    HW224084   6.186   7.294  11.516
74063SOL     OW24085   8.400   3.164  11.415
74063SOL    HW124086   8.411   3.178  11.321
74063SOL    HW224087   8.398   3.252  11.452
74064SOL     OW24088  12.112  10.217   2.811
74064SOL    HW124089  12.087  10.291   2.756
74064SOL    HW224090  12.157  10.156   2.752
74065SOL     OW24091   9.865   5.107   2.832
74065SOL    HW124092   9.798   5.039   2.841
74065SOL    HW224093   9.849   5.144   2.745
74066SOL     OW24094   6.035   5.375   2.773
74066SOL    HW124095   6.057   5.283   2.759
74066SOL    HW224096   6.053   5.389   2.866
74067SOL     OW24097   8.893   2.393  10.734
74067SOL    HW124098   8.819   2.444  10.701
74067SOL    HW224099   8.873   2.379  10.827
74068SOL     OW24100   5.974   8.883  12.072
74068SOL    HW124101   5.949   8.791  12.065
74068SOL    HW224102   6.065   8.885  12.043
74069SOL     OW24103   2.258  11.211   9.980
74069SOL    HW124104   2.205  11.263  10.040
74069SOL    HW224105   2.303  11.276   9.926
74070SOL     OW24106   7.926   0.579   2.915
74070SOL    HW124107   7.904   0.670   2.932
74070SOL    HW224108   7.976   0.551   2.992
74071SOL     OW24109  12.282  14.647  10.441
74071SOL    HW124110  12.366  14.690  10.454
74071SOL    HW224111  12.229  14.674  10.516
74072SOL     OW24112   7.695   5.898  13.055
74072SOL    HW124113   7.658   5.833  13.115
74072SOL    HW224114   7.702   5.852  12.972
74073SOL     OW24115   7.407   4.267  10.735
74073SOL    HW124116   7.412   4.176  10.707
74073SOL    HW224117   7.367   4.263  10.822
74074SOL     OW24118   0.715   2.341   8.742
74074SOL    HW124119   0.797   2.356   8.696
74074SOL    HW224120   0.694   2.426   8.782
74075SOL     OW24121  12.159   7.845   4.133
74075SOL    HW124122  12.210   7.925   4.123
74075SOL    HW224123  12.088   7.853   4.070
74076SOL     OW24124  10.773   8.870  12.349
74076SOL    HW124125  10.804   8.960  12.346
74076SOL    HW224126  10.780   8.839  12.259
74077SOL     OW24127  11.497  11.126   0.870
74077SOL    HW124128  11.494  11.040   0.829
74077SOL    HW224129  11.428  11.123   0.936
74078SOL     OW24130  12.403   6.553  14.800
74078SOL    HW124131  12.343   6.616  14.840
74078SOL    HW224132  12.427   6.593  14.716
74079SOL     OW24133  12.070   8.849   1.108
74079SOL    HW124134  11.999   8.879   1.164
74079SOL    HW224135  12.036   8.856   1.019
74080SOL     OW24136  11.916   6.493   7.130
74080SOL    HW124137  12.010   6.480   7.142
74080SOL    HW224138  11.907   6.528   7.042
74081SOL     OW24139   7.627  11.138  14.358
74081SOL    HW124140   7.651  11.045  14.364
74081SOL    HW224141   7.549  11.146  14.413
74082SOL     OW24142   3.354   4.444   8.456
74082SOL    HW124143   3.426   4.496   8.491
74082SOL    HW224144   3.277   4.472   8.506
74083SOL     OW24145  13.243  10.881  11.316
74083SOL    HW124146  13.251  10.791  11.347
74083SOL    HW224147  13.285  10.881  11.230
74084SOL     OW24148   8.530   6.036  10.601
74084SOL    HW124149   8.505   5.948  10.629
74084SOL    HW224150   8.529   6.033  10.506
74085SOL     OW24151   2.873   7.489   7.365
74085SOL    HW124152   2.916   7.407   7.392
74085SOL    HW224153   2.785   7.483   7.402
74086SOL     OW24154  12.525   9.392   4.610
74086SOL    HW124155  12.495   9.345   4.688
74086SOL    HW224156  12.558   9.324   4.552
74087SOL     OW24157   1.574   0.535  10.265
74087SOL    HW124158   1.599   0.584  10.186
74087SOL    HW224159   1.506   0.589  10.305
74088SOL     OW24160   7.317  10.105  13.141
74088SOL    HW124161   7.240  10.110  13.197
74088SOL    HW224162   7.382  10.058  13.193
74089SOL     OW24163  10.204  11.244   8.368
74089SOL    HW124164  10.183  11.273   8.279
74089SOL    HW224165  10.187  11.150   8.368
74090SOL     OW24166   5.514   8.357   3.487
74090SOL    HW124167   5.534   8.435   3.538
74090SOL    HW224168   5.590   8.345   3.431
74091SOL     OW24169  10.099   2.468   3.921
74091SOL    HW124170  10.057   2.508   3.997
74091SOL    HW224171  10.137   2.386   3.954
74092SOL     OW24172   5.562  13.461   5.106
74092SOL    HW124173   5.586  13.370   5.124
74092SOL    HW224174   5.471  13.456   5.076
74093SOL     OW24175  11.902   7.495   1.572
74093SOL    HW124176  11.918   7.554   1.498
74093SOL    HW224177  11.959   7.420   1.556
74094SOL     OW24178   7.123   7.704   3.302
74094SOL    HW124179   7.179   7.734   3.374
74094SOL    HW224180   7.043   7.674   3.344
74095SOL     OW24181   9.131  12.769   7.964
74095SOL    HW124182   9.186  12.792   7.888
74095SOL    HW224183   9.068  12.707   7.930
74096SOL     OW24184  13.671  10.861  11.853
74096SOL    HW124185  13.656  10.933  11.914
74096SOL    HW224186  13.584  10.828  11.833
74097SOL     OW24187   9.520  11.227  13.732
74097SOL    HW124188   9.562  11.312  13.732
74097SOL    HW224189   9.459  11.230  13.658
74098SOL     OW24190   4.916   3.845   8.834
74098SOL    HW124191   4.979   3.916   8.847
74098SOL    HW224192   4.970   3.767   8.822
74099SOL     OW24193   4.036   1.802  11.393
74099SOL    HW124194   4.059   1.888  11.429
74099SOL    HW224195   4.042   1.742  11.467
74100SOL     OW24196   0.599   9.330  11.829
74100SOL    HW124197   0.563   9.327  11.918
74100SOL    HW224198   0.692   9.311  11.839
74101SOL     OW24199   6.073  10.095   6.682
74101SOL    HW124200   6.055  10.081   6.775
74101SOL    HW224201   6.109  10.183   6.677
74102SOL     OW24202   0.214   2.796   6.972
74102SOL    HW124203   0.170   2.801   7.057
74102SOL    HW224204   0.158   2.739   6.920
74103SOL     OW24205   1.291   9.011  13.246
74103SOL    HW124206   1.294   9.079  13.179
74103SOL    HW224207   1.279   8.930  13.197
74104SOL     OW24208  10.714  14.798   6.094
74104SOL    HW124209  10.699  14.833   6.006
74104SOL    HW224210  10.627  14.795   6.134
74105SOL     OW24211   4.728   2.810   9.809
74105SOL    HW124212   4.704   2.832   9.720
74105SOL    HW224213   4.654   2.839   9.862
74106SOL     OW24214   9.402   6.231   0.544
74106SOL    HW124215   9.335   6.298   0.532
74106SOL    HW224216   9.410   6.222   0.639
74107SOL     OW24217   6.931   1.195  14.551
74107SOL    HW124218   6.974   1.192  14.466
74107SOL    HW224219   6.948   1.109  14.589
74108SOL     OW24220  13.930   5.311  11.990
74108SOL    HW124221  13.863   5.352  12.045
74108SOL    HW224222  14.009   5.362  12.006
74109SOL     OW24223  13.410   7.718  10.572
74109SOL    HW124224  13.485   7.741  10.626
74109SOL    HW224225  13.434   7.744  10.483
74110SOL     OW24226   9.734   2.135  14.696
74110SOL    HW124227   9.778   2.073  14.637
74110SOL    HW224228   9.792   2.211  14.698
74111SOL     OW24229   9.337   3.213   3.879
74111SOL    HW124230   9.285   3.290   3.903
74111SOL    HW224231   9.415   3.219   3.933
74112SOL     OW24232   8.268   1.328   4.000
74112SOL    HW124233   8.225   1.399   4.049
74112SOL    HW224234   8.240   1.342   3.910
74113SOL     OW24235  13.155   1.175   0.591
74113SOL    HW124236  13.119   1.263   0.577
74113SOL    HW224237  13.232   1.189   0.646
74114SOL     OW24238  13.668   1.901  14.220
74114SOL    HW124239  13.609   1.949  14.278
74114SOL    HW224240  13.745   1.881  14.274
74115SOL     OW24241  14.348  13.994   0.112
74115SOL    HW124242  14.373  14.013   0.022
74115SOL    HW224243  14.296  14.070   0.138
74116SOL     OW24244  14.359   9.990   6.939
74116SOL    HW124245  14.370   9.993   7.034
74116SOL    HW224246  14.318  10.074   6.917
74117SOL     OW24247   9.330  12.374   0.308
74117SOL    HW124248   9.298  12.334   0.389
74117SOL    HW224249   9.251  12.389   0.256
74118SOL     OW24250   4.074   8.850   9.460
74118SOL    HW124251   4.119   8.889   9.385
74118SOL    HW224252   4.032   8.924   9.504
74119SOL     OW24253   8.835  14.485   5.631
74119SOL    HW124254   8.828  14.474   5.536
74119SOL    HW224255   8.915  14.439   5.655
74120SOL     OW24256   2.813   2.745   5.449
74120SOL    HW124257   2.864   2.824   5.433
74120SOL    HW224258   2.747   2.744   5.379
74121SOL     OW24259   4.590  14.442   2.830
74121SOL    HW124260   4.587  14.444   2.926
74121SOL    HW224261   4.541  14.520   2.803
74122SOL     OW24262   0.710  14.077  10.236
74122SOL    HW124263   0.788  14.121  10.202
74122SOL    HW224264   0.744  13.999  10.280
74123SOL     OW24265   8.112   6.636   8.570
74123SOL    HW124266   8.199   6.636   8.610
74123SOL    HW224267   8.077   6.723   8.586
74124SOL     OW24268  12.799   8.558  13.077
74124SOL    HW124269  12.852   8.603  13.143
74124SOL    HW224270  12.823   8.600  12.995
74125SOL     OW24271  12.611   0.401   8.214
74125SOL    HW124272  12.626   0.347   8.136
74125SOL    HW224273  12.697   0.437   8.235
74126SOL     OW24274   9.163   6.582   7.785
74126SOL    HW124275   9.126   6.608   7.701
74126SOL    HW224276   9.129   6.494   7.800
74127SOL     OW24277   5.786   2.106   1.807
74127SOL    HW124278   5.839   2.033   1.777
74127SOL    HW224279   5.808   2.116   1.900
74128SOL     OW24280   7.602  11.953   0.270
74128SOL    HW124281   7.576  11.863   0.289
74128SOL    HW224282   7.678  11.968   0.326
74129SOL     OW24283  10.911   7.406   3.534
74129SOL    HW124284  10.900   7.373   3.623
74129SOL    HW224285  10.882   7.498   3.539
74130SOL     OW24286   2.093   7.053   3.132
74130SOL    HW124287   2.028   7.057   3.062
74130SOL    HW224288   2.083   7.137   3.178
74131SOL     OW24289   8.008   1.635   1.007
74131SOL    HW124290   7.942   1.629   0.938
74131SOL    HW224291   8.090   1.646   0.960
74132SOL     OW24292  12.529   0.936   6.694
74132SOL    HW124293  12.549   1.026   6.670
74132SOL    HW224294  12.576   0.922   6.777
74133SOL     OW24295   0.085   3.779  11.418
74133SOL    HW124296   0.102   3.808  11.508
74133SOL    HW224297   0.102   3.684  11.420
74134SOL     OW24298  10.168  12.588  13.259
74134SOL    HW124299  10.109  12.597  13.184
74134SOL    HW224300  10.254  12.614  13.225
74135SOL     OW24301  13.107   2.528  11.946
74135SOL    HW124302  13.189   2.575  11.960
74135SOL    HW224303  13.116   2.447  11.996
74136SOL     OW24304   8.325   6.615   6.172
74136SOL    HW124305   8.385   6.611   6.246
74136SOL    HW224306   8.307   6.708   6.161
74137SOL     OW24307   0.164  13.076   9.650
74137SOL    HW124308   0.144  13.125   9.730
74137SOL    HW224309   0.138  12.986   9.670
74138SOL     OW24310  11.305   4.989   0.610
74138SOL    HW124311  11.217   4.987   0.647
74138SOL    HW224312  11.330   4.897   0.602
74139SOL     OW24313   6.344  11.607   9.905
74139SOL    HW124314   6.328  11.573   9.993
74139SOL    HW224315   6.435  11.583   9.886
74140SOL     OW24316   8.117   9.962   0.968
74140SOL    HW124317   8.104  10.057   0.971
74140SOL    HW224318   8.068   9.933   0.891
74141SOL     OW24319   4.446  12.793   0.794
74141SOL    HW124320   4.427  12.813   0.886
74141SOL    HW224321   4.361  12.775   0.755
74142SOL     OW24322  13.649   2.468  13.565
74142SOL    HW124323  13.722   2.431  13.615
74142SOL    HW224324  13.615   2.393  13.516
74143SOL     OW24325   4.199   3.645  11.593
74143SOL    HW124326   4.230   3.569  11.543
74143SOL    HW224327   4.143   3.692  11.531
74144SOL     OW24328  12.364   8.236   9.735
74144SOL    HW124329  12.319   8.306   9.687
74144SOL    HW224330  12.387   8.276   9.818
74145SOL     OW24331   2.776   5.663   8.282
74145SOL    HW124332   2.859   5.695   8.247
74145SOL    HW224333   2.793   5.572   8.306
74146SOL     OW24334   3.767   8.432   3.425
74146SOL    HW124335   3.793   8.516   3.463
74146SOL    HW224336   3.848   8.397   3.388
74147SOL     OW24337  11.580  12.936   8.131
74147SOL    HW124338  11.631  13.014   8.153
74147SOL    HW224339  11.501  12.969   8.089
74148SOL     OW24340   2.444   0.169   3.350
74148SOL    HW124341   2.377   0.225   3.389
74148SOL    HW224342   2.395   0.111   3.291
74149SOL     OW24343   9.955  10.816   1.351
74149SOL    HW124344   9.913  10.851   1.273
74149SOL    HW224345  10.048  10.816   1.331
74150SOL     OW24346  13.414   5.720   1.827
74150SOL    HW124347  13.480   5.773   1.782
74150SOL    HW224348  13.331   5.751   1.790
74151SOL     OW24349  12.885  12.665   4.955
74151SOL    HW124350  12.798  12.696   4.981
74151SOL    HW224351  12.868  12.582   4.909
74152SOL     OW24352  11.508  12.644   9.399
74152SOL    HW124353  11.440  12.621   9.336
74152SOL    HW224354  11.474  12.722   9.444
74153SOL     OW24355  14.275   0.584  14.637
74153SOL    HW124356  14.246   0.662  14.592
74153SOL    HW224357  14.341   0.546  14.579
74154SOL     OW24358   0.862   0.263   5.890
74154SOL    HW124359   0.899   0.350   5.908
74154SOL    HW224360   0.914   0.230   5.817
74155SOL     OW24361  12.044   0.669   3.829
74155SOL    HW124362  11.963   0.620   3.839
74155SOL    HW224363  12.098   0.615   3.771
74156SOL     OW24364   1.636  12.977  13.900
74156SOL    HW124365   1.573  13.043  13.871
74156SOL    HW224366   1.705  13.027  13.943
74157SOL     OW24367  12.725   1.925  13.566
74157SOL    HW124368  12.784   1.869  13.615
74157SOL    HW224369  12.758   1.923  13.476
74158SOL     OW24370  13.386  11.739   6.199
74158SOL    HW124371  13.404  11.777   6.113
74158SOL    HW224372  13.295  11.763   6.218
74159SOL     OW24373  10.930   1.873  12.502
74159SOL    HW124374  10.838   1.871  12.474
74159SOL    HW224375  10.925   1.885  12.597
74160SOL     OW24376   0.411   8.463   3.660
74160SOL    HW124377   0.469   8.528   3.622
74160SOL    HW224378   0.467   8.412   3.719
74161SOL     OW24379  10.760   6.676  12.935
74161SOL    HW124380  10.774   6.685  13.030
74161SOL    HW224381  10.835   6.627  12.905
74162SOL     OW24382   5.513   1.750   8.837
74162SOL    HW124383   5.600   1.745   8.875
74162SOL    HW224384   5.494   1.843   8.831
74163SOL     OW24385   4.331   1.713   9.980
74163SOL    HW124386   4.313   1.807   9.986
74163SOL    HW224387   4.369   1.690  10.065
74164SOL     OW24388   1.545   6.044   3.443
74164SOL    HW124389   1.636   6.060   3.469
74164SOL    HW224390   1.529   6.107   3.373
74165SOL     OW24391   0.322   4.432  11.933
74165SOL    HW124392   0.379   4.367  11.892
74165SOL    HW224393   0.381   4.505  11.954
74166SOL     OW24394   4.200   1.673   2.382
74166SOL    HW124395   4.145   1.635   2.451
74166SOL    HW224396   4.152   1.654   2.301
74167SOL     OW24397   8.892   4.801  14.377
74167SOL    HW124398   8.979   4.838  14.392
74167SOL    HW224399   8.882   4.801  14.282
74168SOL     OW24400   8.267  13.458   3.681
74168SOL    HW124401   8.302  13.503   3.758
74168SOL    HW224402   8.263  13.366   3.707
74169SOL     OW24403  12.708  13.397   4.215
74169SOL    HW124404  12.794  13.412   4.255
74169SOL    HW224405  12.703  13.302   4.204
74170SOL     OW24406  13.233   7.875   7.285
74170SOL    HW124407  13.212   7.965   7.264
74170SOL    HW224408  13.280   7.842   7.208
74171SOL     OW24409   2.633  13.629  14.026
74171SOL    HW124410   2.600  13.701  13.973
74171SOL    HW224411   2.724  13.652  14.044
74172SOL     OW24412   0.389  11.183   8.223
74172SOL    HW124413   0.311  11.196   8.278
74172SOL    HW224414   0.463  11.198   8.282
74173SOL     OW24415   2.290   4.874  11.799
74173SOL    HW124416   2.224   4.808  11.776
74173SOL    HW224417   2.244   4.957  11.795
74174SOL     OW24418  13.241   0.101  13.384
74174SOL    HW124419  13.165   0.059  13.344
74174SOL    HW224420  13.242   0.068  13.474
74175SOL     OW24421   7.357   3.001  11.970
74175SOL    HW124422   7.275   2.956  11.953
74175SOL    HW224423   7.352   3.082  11.919
74176SOL     OW24424   2.246   9.561   8.552
74176SOL    HW124425   2.199   9.520   8.479
74176SOL    HW224426   2.191   9.545   8.628
74177SOL     OW24427  11.896  11.648   5.807
74177SOL    HW124428  11.834  11.593   5.759
74177SOL    HW224429  11.967  11.664   5.745
74178SOL     OW24430  11.023  10.682   8.301
74178SOL    HW124431  10.929  10.682   8.280
74178SOL    HW224432  11.048  10.590   8.301
74179SOL     OW24433   0.581   7.961   1.560
74179SOL    HW124434   0.508   7.970   1.499
74179SOL    HW224435   0.549   7.901   1.627
74180SOL     OW24436  13.516   0.787  13.009
74180SOL    HW124437  13.506   0.692  13.016
74180SOL    HW224438  13.477   0.821  13.089
74181SOL     OW24439  14.371  12.659  10.702
74181SOL    HW124440  14.281  12.627  10.699
74181SOL    HW224441  14.371  12.722  10.774
74182SOL     OW24442   8.674  14.319  14.578
74182SOL    HW124443   8.582  14.291  14.574
74182SOL    HW224444   8.684  14.377  14.503
74183SOL     OW24445   0.792  14.139   2.131
74183SOL    HW124446   0.722  14.141   2.066
74183SOL    HW224447   0.872  14.143   2.080
74184SOL     OW24448  12.525   8.493   9.959
74184SOL    HW124449  12.531   8.579  10.001
74184SOL    HW224450  12.553   8.508   9.869
74185SOL     OW24451  14.610  10.967   8.341
74185SOL    HW124452  14.631  11.013   8.422
74185SOL    HW224453  14.688  10.978   8.286
74186SOL     OW24454   5.272   8.983   4.235
74186SOL    HW124455   5.204   8.929   4.276
74186SOL    HW224456   5.242   9.073   4.248
74187SOL     OW24457   0.827   1.914   1.816
74187SOL    HW124458   0.860   1.989   1.866
74187SOL    HW224459   0.740   1.941   1.788
74188SOL     OW24460   8.615   1.913   8.464
74188SOL    HW124461   8.645   1.868   8.385
74188SOL    HW224462   8.537   1.865   8.491
74189SOL     OW24463   7.459   0.775   1.838
74189SOL    HW124464   7.371   0.807   1.855
74189SOL    HW224465   7.465   0.770   1.742
74190SOL     OW24466   9.839  11.295   6.346
74190SOL    HW124467   9.812  11.211   6.383
74190SOL    HW224468   9.906  11.328   6.405
74191SOL     OW24469   4.261  13.748   5.314
74191SOL    HW124470   4.275  13.839   5.289
74191SOL    HW224471   4.210  13.712   5.241
74192SOL     OW24472   9.799  14.716   4.250
74192SOL    HW124473   9.846  14.637   4.279
74192SOL    HW224474   9.766  14.693   4.163
74193SOL     OW24475   6.467   6.031   2.700
74193SOL    HW124476   6.427   5.998   2.780
74193SOL    HW224477   6.478   5.954   2.645
74194SOL     OW24478  14.344   8.803   5.205
74194SOL    HW124479  14.348   8.715   5.167
74194SOL    HW224480  14.354   8.789   5.299
74195SOL     OW24481   6.277  11.399   0.509
74195SOL    HW124482   6.331  11.465   0.553
74195SOL    HW224483   6.269  11.328   0.573
74196SOL     OW24484   8.835  10.911   0.458
74196SOL    HW124485   8.859  10.923   0.366
74196SOL    HW224486   8.912  10.870   0.498
74197SOL     OW24487   3.321  12.620  12.485
74197SOL    HW124488   3.273  12.625  12.568
74197SOL    HW224489   3.373  12.540  12.492
74198SOL     OW24490   5.664   1.067   4.031
74198SOL    HW124491   5.601   1.066   3.959
74198SOL    HW224492   5.646   0.987   4.080
74199SOL     OW24493   2.562   1.571  13.089
74199SOL    HW124494   2.510   1.648  13.114
74199SOL    HW224495   2.647   1.586  13.132
74200SOL     OW24496   2.575   9.694  10.108
74200SOL    HW124497   2.567   9.788  10.125
74200SOL    HW224498   2.494   9.657  10.143
74201SOL     OW24499   8.964   3.083  12.693
74201SOL    HW124500   8.968   3.027  12.616
74201SOL    HW224501   8.945   3.023  12.765
74202SOL     OW24502   1.390   6.789  12.681
74202SOL    HW124503   1.318   6.784  12.618
74202SOL    HW224504   1.370   6.721  12.745
74203SOL     OW24505   2.727   3.096   5.224
74203SOL    HW124506   2.718   3.051   5.140
74203SOL    HW224507   2.789   3.043   5.273
74204SOL     OW24508   5.443  11.042   4.917
74204SOL    HW124509   5.467  10.955   4.883
74204SOL    HW224510   5.520  11.096   4.901
74205SOL     OW24511  12.606  14.394   5.037
74205SOL    HW124512  12.641  14.335   5.103
74205SOL    HW224513  12.530  14.435   5.078
74206SOL     OW24514   5.052  13.004   4.411
74206SOL    HW124515   5.077  12.921   4.371
74206SOL    HW224516   5.108  13.069   4.369
74207SOL     OW24517  11.744  11.277  12.389
74207SOL    HW124518  11.793  11.319  12.318
74207SOL    HW224519  11.756  11.336  12.464
74208SOL     OW24520  10.517  13.710   3.050
74208SOL    HW124521  10.429  13.740   3.028
74208SOL    HW224522  10.503  13.628   3.098
74209SOL     OW24523  11.504   8.512   3.158
74209SOL    HW124524  11.575   8.449   3.158
74209SOL    HW224525  11.515   8.561   3.240
74210SOL     OW24526  12.777  14.853  11.263
74210SOL    HW124527  12.846  14.802  11.220
74210SOL    HW224528  12.730   0.007  11.192
74211SOL     OW24529   6.198   1.287   4.204
74211SOL    HW124530   6.222   1.379   4.220
74211SOL    HW224531   6.110   1.292   4.167
74212SOL     OW24532   7.070   7.244   2.221
74212SOL    HW124533   7.110   7.242   2.134
74212SOL    HW224534   6.976   7.239   2.204
74213SOL     OW24535   1.737   5.536   5.537
74213SOL    HW124536   1.731   5.624   5.574
74213SOL    HW224537   1.830   5.524   5.519
74214SOL     OW24538   3.003   4.736   9.108
74214SOL    HW124539   2.931   4.781   9.064
74214SOL    HW224540   3.064   4.807   9.132
74215SOL     OW24541   6.471   4.256   4.372
74215SOL    HW124542   6.503   4.338   4.410
74215SOL    HW224543   6.395   4.233   4.425
74216SOL     OW24544   6.119   1.785   0.889
74216SOL    HW124545   6.125   1.855   0.825
74216SOL    HW224546   6.054   1.815   0.952
74217SOL     OW24547  12.203  12.562   3.762
74217SOL    HW124548  12.252  12.485   3.731
74217SOL    HW224549  12.158  12.594   3.684
74218SOL     OW24550   6.692   5.460  10.685
74218SOL    HW124551   6.680   5.431  10.595
74218SOL    HW224552   6.784   5.488  10.689
74219SOL     OW24553   8.498  14.837   6.907
74219SOL    HW124554   8.588  14.865   6.889
74219SOL    HW224555   8.508  14.767   6.971
74220SOL     OW24556  10.908   1.115   3.011
74220SOL    HW124557  10.895   1.163   2.930
74220SOL    HW224558  10.993   1.073   3.000
74221SOL     OW24559   2.994   8.699   4.070
74221SOL    HW124560   2.923   8.760   4.047
74221SOL    HW224561   3.065   8.722   4.010
74222SOL     OW24562  11.915   5.121   0.135
74222SOL    HW124563  11.891   5.214   0.136
74222SOL    HW224564  12.006   5.119   0.164
74223SOL     OW24565  11.077  14.278   8.220
74223SOL    HW124566  11.123  14.349   8.176
74223SOL    HW224567  11.060  14.214   8.151
74224SOL     OW24568   5.868   3.894   4.832
74224SOL    HW124569   5.949   3.856   4.798
74224SOL    HW224570   5.859   3.855   4.919
74225SOL     OW24571   9.540  10.876  11.751
74225SOL    HW124572   9.580  10.811  11.808
74225SOL    HW224573   9.455  10.894  11.790
74226SOL     OW24574   9.430   2.360   2.751
74226SOL    HW124575   9.503   2.419   2.768
74226SOL    HW224576   9.472   2.279   2.720
74227SOL     OW24577   0.847   6.740   7.249
74227SOL    HW124578   0.883   6.821   7.214
74227SOL    HW224579   0.752   6.752   7.247
74228SOL     OW24580   4.199   8.534  13.365
74228SOL    HW124581   4.179   8.615  13.413
74228SOL    HW224582   4.286   8.548  13.329
74229SOL     OW24583   3.073  11.999   8.471
74229SOL    HW124584   3.037  11.921   8.513
74229SOL    HW224585   3.129  11.965   8.401
74230SOL     OW24586  10.555   8.694   2.326
74230SOL    HW124587  10.479   8.647   2.294
74230SOL    HW224588  10.537   8.710   2.418
74231SOL     OW24589   9.966  13.430  12.442
74231SOL    HW124590  10.043  13.387  12.404
74231SOL    HW224591   9.913  13.455  12.366
74232SOL     OW24592   3.521   6.071   0.856
74232SOL    HW124593   3.536   6.155   0.898
74232SOL    HW224594   3.528   6.089   0.762
74233SOL     OW24595   2.747  14.661  10.307
74233SOL    HW124596   2.740  14.570  10.335
74233SOL    HW224597   2.660  14.684  10.275
74234SOL     OW24598   0.142   0.175   1.005
74234SOL    HW124599   0.189   0.221   0.936
74234SOL    HW224600   0.200   0.179   1.081
74235SOL     OW24601  14.770   4.297   7.735
74235SOL    HW124602  14.827   4.332   7.803
74235SOL    HW224603  14.828   4.240   7.683
74236SOL     OW24604  10.156  12.709   9.444
74236SOL    HW124605  10.208  12.749   9.374
74236SOL    HW224606  10.216  12.645   9.483
74237SOL     OW24607   3.877   0.641   0.962
74237SOL    HW124608   3.887   0.549   0.935
74237SOL    HW224609   3.949   0.656   1.023
74238SOL     OW24610   4.274   1.331   3.338
74238SOL    HW124611   4.290   1.340   3.244
74238SOL    HW224612   4.307   1.243   3.360
74239SOL     OW24613   4.009  13.092   7.527
74239SOL    HW124614   3.997  13.020   7.589
74239SOL    HW224615   4.104  13.104   7.523
74240SOL     OW24616   4.148   9.377   8.713
74240SOL    HW124617   4.200   9.308   8.754
74240SOL    HW224618   4.138   9.349   8.622
74241SOL     OW24619   9.614  10.873   0.513
74241SOL    HW124620   9.640  10.781   0.522
74241SOL    HW224621   9.559  10.890   0.590
74242SOL     OW24622   7.935   5.044  10.156
74242SOL    HW124623   7.879   5.121  10.150
74242SOL    HW224624   8.021   5.078  10.180
74243SOL     OW24625   1.546   3.372   1.884
74243SOL    HW124626   1.471   3.313   1.877
74243SOL    HW224627   1.509   3.460   1.879
74244SOL     OW24628  12.625   6.953   4.269
74244SOL    HW124629  12.598   6.881   4.326
74244SOL    HW224630  12.655   7.021   4.329
74245SOL     OW24631   9.754   4.070   4.941
74245SOL    HW124632   9.781   3.987   4.983
74245SOL    HW224633   9.664   4.083   4.971
74246SOL     OW24634   9.524  11.367  14.499
74246SOL    HW124635   9.487  11.398  14.582
74246SOL    HW224636   9.599  11.314  14.525
74247SOL     OW24637   0.235  14.617   3.904
74247SOL    HW124638   0.255  14.584   3.991
74247SOL    HW224639   0.297  14.572   3.846
74248SOL     OW24640  13.449  12.930  12.912
74248SOL    HW124641  13.458  12.864  12.843
74248SOL    HW224642  13.513  12.904  12.979
74249SOL     OW24643   8.203   6.067   6.314
74249SOL    HW124644   8.127   6.015   6.291
74249SOL    HW224645   8.179   6.109   6.397
74250SOL     OW24646   6.129  13.688  12.397
74250SOL    HW124647   6.036  13.706  12.388
74250SOL    HW224648   6.146  13.697  12.491
74251SOL     OW24649   2.369  14.809   4.237
74251SOL    HW124650   2.411  14.867   4.174
74251SOL    HW224651   2.371  14.722   4.196
74252SOL     OW24652   2.705   8.874   8.247
74252SOL    HW124653   2.679   8.962   8.220
74252SOL    HW224654   2.702   8.822   8.167
74253SOL     OW24655  10.627  13.083   1.736
74253SOL    HW124656  10.576  13.004   1.717
74253SOL    HW224657  10.626  13.091   1.831
74254SOL     OW24658   6.465   3.200   5.343
74254SOL    HW124659   6.382   3.176   5.381
74254SOL    HW224660   6.455   3.183   5.249
74255SOL     OW24661  12.131   4.442   1.836
74255SOL    HW124662  12.142   4.395   1.753
74255SOL    HW224663  12.173   4.527   1.821
74256SOL     OW24664   0.630   1.138   4.600
74256SOL    HW124665   0.602   1.081   4.672
74256SOL    HW224666   0.725   1.133   4.601
74257SOL     OW24667   5.966   4.559   1.529
74257SOL    HW124668   6.003   4.484   1.574
74257SOL    HW224669   5.997   4.635   1.579
74258SOL     OW24670   0.327   0.139  14.130
74258SOL    HW124671   0.384   0.078  14.177
74258SOL    HW224672   0.246   0.091  14.116
74259SOL     OW24673   3.134   2.461   7.562
74259SOL    HW124674   3.195   2.511   7.615
74259SOL    HW224675   3.107   2.521   7.492
74260SOL     OW24676  14.717   3.581   2.108
74260SOL    HW124677  14.686   3.532   2.183
74260SOL    HW224678  14.644   3.582   2.047
74261SOL     OW24679   2.088   5.530   8.364
74261SOL    HW124680   2.148   5.468   8.405
74261SOL    HW224681   2.028   5.555   8.434
74262SOL     OW24682   0.755  10.324   2.696
74262SOL    HW124683   0.783  10.404   2.741
74262SOL    HW224684   0.788  10.253   2.750
74263SOL     OW24685   7.433  10.636   3.689
74263SOL    HW124686   7.502  10.675   3.635
74263SOL    HW224687   7.457  10.660   3.779
74264SOL     OW24688  11.748   6.981   8.907
74264SOL    HW124689  11.710   6.894   8.896
74264SOL    HW224690  11.805   6.973   8.983
74265SOL     OW24691   1.431   3.259   4.027
74265SOL    HW124692   1.466   3.297   4.107
74265SOL    HW224693   1.342   3.233   4.049
74266SOL     OW24694  13.320   1.605   2.345
74266SOL    HW124695  13.331   1.660   2.423
74266SOL    HW224696  13.333   1.516   2.377
74267SOL     OW24697   9.276   0.920  12.299
74267SOL    HW124698   9.288   0.868  12.378
74267SOL    HW224699   9.189   0.959  12.309
74268SOL     OW24700   9.320   4.429  11.969
74268SOL    HW124701   9.277   4.347  11.993
74268SOL    HW224702   9.379   4.405  11.898
74269SOL     OW24703   8.515   7.303  11.382
74269SOL    HW124704   8.557   7.251  11.313
74269SOL    HW224705   8.542   7.393  11.364
74270SOL     OW24706   7.016   0.349   9.456
74270SOL    HW124707   6.994   0.433   9.496
74270SOL    HW224708   7.000   0.285   9.524
74271SOL     OW24709   8.522   3.284   3.048
74271SOL    HW124710   8.611   3.251   3.059
74271SOL    HW224711   8.479   3.220   2.991
74272SOL     OW24712   9.446   9.801   7.040
74272SOL    HW124713   9.542   9.801   7.045
74272SOL    HW224714   9.418   9.847   7.119
74273SOL     OW24715   6.465   7.507   3.235
74273SOL    HW124716   6.444   7.470   3.150
74273SOL    HW224717   6.560   7.496   3.244
74274SOL     OW24718   2.521  10.317   0.111
74274SOL    HW124719   2.455  10.385   0.114
74274SOL    HW224720   2.493  10.258   0.042
74275SOL     OW24721   2.408  11.476   4.502
74275SOL    HW124722   2.371  11.496   4.588
74275SOL    HW224723   2.503  11.483   4.513
74276SOL     OW24724   1.861   5.397   7.512
74276SOL    HW124725   1.816   5.441   7.440
74276SOL    HW224726   1.908   5.467   7.557
74277SOL     OW24727  14.445  11.703  14.444
74277SOL    HW124728  14.387  11.732  14.514
74277SOL    HW224729  14.415  11.614  14.423
74278SOL     OW24730  11.392   8.377   2.182
74278SOL    HW124731  11.440   8.338   2.108
74278SOL    HW224732  11.323   8.314   2.201
74279SOL     OW24733   7.951   1.498   9.155
74279SOL    HW124734   7.981   1.420   9.109
74279SOL    HW224735   7.931   1.469   9.244
74280SOL     OW24736   4.331   1.896   5.420
74280SOL    HW124737   4.238   1.917   5.419
74280SOL    HW224738   4.340   1.823   5.480
74281SOL     OW24739   4.859  13.822   8.784
74281SOL    HW124740   4.873  13.741   8.834
74281SOL    HW224741   4.946  13.844   8.750
74282SOL     OW24742  14.022   2.040   4.638
74282SOL    HW124743  13.981   2.096   4.704
74282SOL    HW224744  14.040   1.958   4.685
74283SOL     OW24745   5.285  12.494  10.755
74283SOL    HW124746   5.363  12.485  10.699
74283SOL    HW224747   5.312  12.556  10.823
74284SOL     OW24748   0.699   3.056  11.050
74284SOL    HW124749   0.635   3.089  11.114
74284SOL    HW224750   0.764   3.010  11.103
74285SOL     OW24751  13.485  12.814   2.776
74285SOL    HW124752  13.437  12.876   2.721
74285SOL    HW224753  13.443  12.821   2.862
74286SOL     OW24754   7.660   9.646  13.371
74286SOL    HW124755   7.654   9.719  13.310
74286SOL    HW224756   7.697   9.684  13.451
74287SOL     OW24757   5.572   9.037   2.590
74287SOL    HW124758   5.647   8.979   2.606
74287SOL    HW224759   5.608   9.111   2.543
74288SOL     OW24760  11.975  12.582   7.136
74288SOL    HW124761  11.989  12.583   7.041
74288SOL    HW224762  11.895  12.532   7.149
74289SOL     OW24763  10.043   3.779   9.688
74289SOL    HW124764  10.113   3.737   9.738
74289SOL    HW224765  10.020   3.715   9.621
74290SOL     OW24766  14.199  11.654   2.891
74290SOL    HW124767  14.183  11.603   2.970
74290SOL    HW224768  14.294  11.663   2.887
74291SOL     OW24769  11.711  13.084   1.849
74291SOL    HW124770  11.741  13.041   1.930
74291SOL    HW224771  11.627  13.044   1.831
74292SOL     OW24772   3.177   5.014  14.405
74292SOL    HW124773   3.150   4.968  14.325
74292SOL    HW224774   3.183   4.946  14.471
74293SOL     OW24775   2.091  11.619  11.294
74293SOL    HW124776   2.133  11.620  11.207
74293SOL    HW224777   2.004  11.656  11.278
74294SOL     OW24778   8.394   3.701   2.583
74294SOL    HW124779   8.378   3.668   2.495
74294SOL    HW224780   8.441   3.630   2.627
74295SOL     OW24781   9.966   1.621  14.622
74295SOL    HW124782  10.043   1.586  14.666
74295SOL    HW224783   9.909   1.652  14.693
74296SOL     OW24784  14.435   4.214  14.483
74296SOL    HW124785  14.358   4.160  14.468
74296SOL    HW224786  14.452   4.207  14.577
74297SOL     OW24787  13.817  12.517  12.187
74297SOL    HW124788  13.747  12.555  12.240
74297SOL    HW224789  13.776  12.496  12.104
74298SOL     OW24790   7.245   0.358  11.900
74298SOL    HW124791   7.155   0.349  11.869
74298SOL    HW224792   7.298   0.318  11.831
74299SOL     OW24793  11.024   5.480   8.414
74299SOL    HW124794  10.976   5.445   8.339
74299SOL    HW224795  10.957   5.511   8.474
74300SOL     OW24796   2.690   8.584  11.429
74300SOL    HW124797   2.602   8.619  11.423
74300SOL    HW224798   2.747   8.658  11.409
74301SOL     OW24799  10.692   1.617   8.601
74301SOL    HW124800  10.699   1.609   8.506
74301SOL    HW224801  10.637   1.543   8.627
74302SOL     OW24802   9.716   4.599   1.014
74302SOL    HW124803   9.704   4.509   1.044
74302SOL    HW224804   9.627   4.632   1.000
74303SOL     OW24805  13.265  12.713   4.042
74303SOL    HW124806  13.279  12.805   4.021
74303SOL    HW224807  13.344  12.669   4.009
74304SOL     OW24808  11.989   7.462   6.868
74304SOL    HW124809  12.025   7.374   6.859
74304SOL    HW224810  12.048   7.518   6.818
74305SOL     OW24811  10.650  11.469   0.508
74305SOL    HW124812  10.639  11.540   0.571
74305SOL    HW224813  10.564  11.428   0.503
74306SOL     OW24814   8.567   9.668   4.330
74306SOL    HW124815   8.647   9.710   4.360
74306SOL    HW224816   8.501   9.738   4.328
74307SOL     OW24817   0.973   7.108  13.331
74307SOL    HW124818   0.967   7.201  13.353
74307SOL    HW224819   1.046   7.076  13.384
74308SOL     OW24820  12.112  12.949   6.472
74308SOL    HW124821  12.102  12.927   6.379
74308SOL    HW224822  12.105  13.044   6.475
74309SOL     OW24823   7.771   2.165   0.748
74309SOL    HW124824   7.841   2.214   0.791
74309SOL    HW224825   7.697   2.226   0.746
74310SOL     OW24826   3.729   7.226   9.396
74310SOL    HW124827   3.634   7.236   9.402
74310SOL    HW224828   3.752   7.266   9.312
74311SOL     OW24829   1.290   9.719   7.038
74311SOL    HW124830   1.350   9.763   6.979
74311SOL    HW224831   1.304   9.626   7.022
74312SOL     OW24832   1.627  13.225   4.713
74312SOL    HW124833   1.721  13.223   4.694
74312SOL    HW224834   1.618  13.292   4.780
74313SOL     OW24835  14.510  11.583  14.751
74313SOL    HW124836  14.593  11.588  14.797
74313SOL    HW224837  14.462  11.661  14.779
74314SOL     OW24838   4.481   7.607   1.677
74314SOL    HW124839   4.576   7.595   1.668
74314SOL    HW224840   4.469   7.702   1.681
74315SOL     OW24841   4.130   2.396   2.885
74315SOL    HW124842   4.175   2.415   2.968
74315SOL    HW224843   4.037   2.395   2.907
74316SOL     OW24844   6.816  10.351   0.123
74316SOL    HW124845   6.786  10.351   0.214
74316SOL    HW224846   6.865  10.269   0.114
74317SOL     OW24847   9.029   2.203  11.740
74317SOL    HW124848   9.040   2.206  11.835
74317SOL    HW224849   9.055   2.290  11.710
74318SOL     OW24850   3.442   5.426  11.545
74318SOL    HW124851   3.473   5.460  11.629
74318SOL    HW224852   3.389   5.350  11.568
74319SOL     OW24853  11.761   8.388  14.622
74319SOL    HW124854  11.707   8.387  14.701
74319SOL    HW224855  11.698   8.377  14.550
74320SOL     OW24856   7.232   9.618  10.994
74320SOL    HW124857   7.180   9.687  10.952
74320SOL    HW224858   7.248   9.554  10.924
74321SOL     OW24859   8.776   6.352   7.669
74321SOL    HW124860   8.809   6.308   7.591
74321SOL    HW224861   8.801   6.444   7.657
74322SOL     OW24862  11.970   2.405   9.646
74322SOL    HW124863  11.974   2.467   9.573
74322SOL    HW224864  12.044   2.347   9.633
74323SOL     OW24865   0.335   3.802   7.048
74323SOL    HW124866   0.281   3.753   6.986
74323SOL    HW224867   0.281   3.875   7.076
74324SOL     OW24868   5.485  13.537   0.800
74324SOL    HW124869   5.536  13.617   0.813
74324SOL    HW224870   5.403  13.567   0.762
74325SOL     OW24871   3.272   5.194   1.805
74325SOL    HW124872   3.332   5.132   1.764
74325SOL    HW224873   3.329   5.259   1.846
74326SOL     OW24874   0.948   5.324   8.009
74326SOL    HW124875   1.039   5.351   8.003
74326SOL    HW224876   0.943   5.244   7.956
74327SOL     OW24877   7.345   2.777   8.983
74327SOL    HW124878   7.423   2.738   8.945
74327SOL    HW224879   7.370   2.868   9.001
74328SOL     OW24880   7.704   0.688   7.047
74328SOL    HW124881   7.718   0.702   7.140
74328SOL    HW224882   7.649   0.610   7.042
74329SOL     OW24883   8.531   6.666   5.502
74329SOL    HW124884   8.494   6.737   5.553
74329SOL    HW224885   8.621   6.693   5.485
74330SOL     OW24886  13.308  13.647  10.745
74330SOL    HW124887  13.264  13.725  10.780
74330SOL    HW224888  13.238  13.583  10.734
74331SOL     OW24889   2.635   5.530   9.951
74331SOL    HW124890   2.596   5.615   9.930
74331SOL    HW224891   2.583   5.497  10.024
74332SOL     OW24892   3.007   1.680  14.050
74332SOL    HW124893   3.011   1.589  14.080
74332SOL    HW224894   2.944   1.679  13.978
74333SOL     OW24895   2.441  14.562  13.674
74333SOL    HW124896   2.370  14.505  13.704
74333SOL    HW224897   2.397  14.638  13.636
74334SOL     OW24898  11.160  13.580  10.219
74334SOL    HW124899  11.121  13.519  10.157
74334SOL    HW224900  11.235  13.533  10.257
74335SOL     OW24901   4.437   4.579   6.199
74335SOL    HW124902   4.503   4.576   6.268
74335SOL    HW224903   4.378   4.650   6.226
74336SOL     OW24904  13.654  14.281   2.663
74336SOL    HW124905  13.722  14.214   2.664
74336SOL    HW224906  13.684  14.348   2.724
74337SOL     OW24907   7.496   4.656   5.154
74337SOL    HW124908   7.491   4.693   5.242
74337SOL    HW224909   7.579   4.608   5.153
74338SOL     OW24910   2.255   0.648   8.161
74338SOL    HW124911   2.312   0.705   8.109
74338SOL    HW224912   2.315   0.589   8.207
74339SOL     OW24913  14.817   8.963  12.210
74339SOL    HW124914  14.756   8.890  12.219
74339SOL    HW224915  14.823   9.000  12.299
74340SOL     OW24916  12.504  12.424   8.435
74340SOL    HW124917  12.481  12.357   8.501
74340SOL    HW224918  12.420  12.465   8.413
74341SOL     OW24919  11.607  13.199   8.472
74341SOL    HW124920  11.617  13.103   8.472
74341SOL    HW224921  11.694  13.232   8.496
74342SOL     OW24922   3.326   8.083  10.472
74342SOL    HW124923   3.255   8.147  10.462
74342SOL    HW224924   3.329   8.038  10.388
74343SOL     OW24925  12.247  11.610   4.508
74343SOL    HW124926  12.336  11.622   4.539
74343SOL    HW224927  12.246  11.523   4.468
74344SOL     OW24928   8.692   7.245  11.891
74344SOL    HW124929   8.676   7.331  11.853
74344SOL    HW224930   8.733   7.195  11.821
74345SOL     OW24931   0.218   3.884   0.603
74345SOL    HW124932   0.196   3.971   0.636
74345SOL    HW224933   0.133   3.842   0.589
74346SOL     OW24934   5.744   8.246   8.964
74346SOL    HW124935   5.775   8.224   8.876
74346SOL    HW224936   5.819   8.288   9.006
74347SOL     OW24937   8.793   7.475   4.964
74347SOL    HW124938   8.853   7.513   4.900
74347SOL    HW224939   8.787   7.540   5.034
74348SOL     OW24940   5.062   5.922   2.228
74348SOL    HW124941   5.120   5.990   2.261
74348SOL    HW224942   5.112   5.841   2.234
74349SOL     OW24943   2.422   7.324   5.808
74349SOL    HW124944   2.418   7.417   5.787
74349SOL    HW224945   2.496   7.291   5.757
74350SOL     OW24946   9.845  10.567   5.387
74350SOL    HW124947   9.851  10.521   5.303
74350SOL    HW224948   9.826  10.498   5.450
74351SOL     OW24949   5.165  11.458   8.591
74351SOL    HW124950   5.099  11.449   8.523
74351SOL    HW224951   5.122  11.506   8.662
74352SOL     OW24952   4.493   5.465  10.340
74352SOL    HW124953   4.515   5.557  10.352
74352SOL    HW224954   4.403   5.457  10.373
74353SOL     OW24955   5.521  14.781  10.656
74353SOL    HW124956   5.495  14.691  10.678
74353SOL    HW224957   5.615  14.783  10.674
74354SOL     OW24958   0.782   6.919  14.553
74354SOL    HW124959   0.717   6.987  14.533
74354SOL    HW224960   0.859   6.944  14.501
74355SOL     OW24961   4.509   8.228   5.820
74355SOL    HW124962   4.565   8.297   5.856
74355SOL    HW224963   4.535   8.222   5.728
74356SOL     OW24964  13.638   5.686   7.954
74356SOL    HW124965  13.553   5.719   7.925
74356SOL    HW224966  13.624   5.593   7.970
74357SOL     OW24967  12.612  11.255  12.673
74357SOL    HW124968  12.672  11.193  12.631
74357SOL    HW224969  12.530  11.246  12.624
74358SOL     OW24970   8.652  13.440   4.316
74358SOL    HW124971   8.676  13.359   4.272
74358SOL    HW224972   8.709  13.444   4.392
74359SOL     OW24973  10.213   6.985  14.597
74359SOL    HW124974  10.139   6.941  14.640
74359SOL    HW224975  10.290   6.956  14.646
74360SOL     OW24976  14.814   4.885   1.324
74360SOL    HW124977  14.872   4.905   1.252
74360SOL    HW224978  14.846   4.938   1.397
74361SOL     OW24979   8.763   7.792  10.537
74361SOL    HW124980   8.791   7.876  10.501
74361SOL    HW224981   8.676   7.778  10.501
74362SOL     OW24982  13.759   8.334   4.172
74362SOL    HW124983  13.669   8.344   4.139
74362SOL    HW224984  13.806   8.292   4.100
74363SOL     OW24985   2.914   9.044   3.161
74363SOL    HW124986   2.935   9.023   3.070
74363SOL    HW224987   2.910   9.140   3.164
74364SOL     OW24988   7.860   4.645   0.524
74364SOL    HW124989   7.827   4.590   0.453
74364SOL    HW224990   7.906   4.716   0.479
74365SOL     OW24991   8.749  10.511   9.328
74365SOL    HW124992   8.761  10.416   9.319
74365SOL    HW224993   8.836  10.545   9.344
74366SOL     OW24994  13.304  10.777   9.162
74366SOL    HW124995  13.310  10.681   9.161
74366SOL    HW224996  13.394  10.806   9.146
74367SOL     OW24997  13.755   4.167   4.647
74367SOL    HW124998  13.838   4.120   4.654
74367SOL    HW224999  13.757   4.206   4.559
74368SOL     OW25000   7.294  14.887   1.321
74368SOL    HW125001   7.307   0.057   1.245
74368SOL    HW225002   7.268  14.803   1.283
74369SOL     OW25003  11.480  11.338   7.791
74369SOL    HW125004  11.443  11.379   7.869
74369SOL    HW225005  11.513  11.254   7.821
74370SOL     OW25006   0.676   4.996  10.417
74370SOL    HW125007   0.633   5.080  10.401
74370SOL    HW225008   0.635   4.936  10.354
74371SOL     OW25009   5.681  10.659   9.079
74371SOL    HW125010   5.595  10.684   9.046
74371SOL    HW225011   5.733  10.643   9.000
74372SOL     OW25012  10.270  13.023   5.961
74372SOL    HW125013  10.317  12.942   5.942
74372SOL    HW225014  10.332  13.076   6.011
74373SOL     OW25015   7.993   1.786   5.385
74373SOL    HW125016   7.949   1.849   5.328
74373SOL    HW225017   7.927   1.718   5.401
74374SOL     OW25018   3.511   4.801   0.305
74374SOL    HW125019   3.509   4.804   0.209
74374SOL    HW225020   3.467   4.882   0.331
74375SOL     OW25021   7.353   2.359   1.713
74375SOL    HW125022   7.295   2.341   1.787
74375SOL    HW225023   7.390   2.446   1.732
74376SOL     OW25024   2.507   9.928  10.501
74376SOL    HW125025   2.536   9.997  10.560
74376SOL    HW225026   2.576   9.922  10.435
74377SOL     OW25027  14.875   5.215  14.019
74377SOL    HW125028  14.830   5.259  13.947
74377SOL    HW225029  14.845   5.261  14.098
74378SOL     OW25030   4.926   3.368   7.357
74378SOL    HW125031   4.873   3.440   7.390
74378SOL    HW225032   5.016   3.398   7.367
74379SOL     OW25033  13.476   2.900   7.374
74379SOL    HW125034  13.545   2.848   7.416
74379SOL    HW225035  13.519   2.981   7.348
74380SOL     OW25036  10.741   3.859   4.493
74380SOL    HW125037  10.662   3.814   4.462
74380SOL    HW225038  10.748   3.936   4.437
74381SOL     OW25039   0.149   7.058   8.708
74381SOL    HW125040   0.101   7.122   8.760
74381SOL    HW225041   0.192   7.002   8.773
74382SOL     OW25042  10.263   5.037  14.406
74382SOL    HW125043  10.358   5.026  14.400
74382SOL    HW225044  10.241   5.092  14.331
74383SOL     OW25045   0.995  12.057   5.040
74383SOL    HW125046   0.908  12.097   5.045
74383SOL    HW225047   0.986  11.973   5.084
74384SOL     OW25048   2.504   7.342  13.276
74384SOL    HW125049   2.492   7.433  13.250
74384SOL    HW225050   2.456   7.292  13.210
74385SOL     OW25051   4.652   2.540  12.187
74385SOL    HW125052   4.689   2.621  12.151
74385SOL    HW225053   4.616   2.566  12.272
74386SOL     OW25054   0.815  10.981  14.826
74386SOL    HW125055   0.863  10.943   0.012
74386SOL    HW225056   0.839  10.927  14.751
74387SOL     OW25057  12.195  14.231   6.336
74387SOL    HW125058  12.284  14.241   6.371
74387SOL    HW225059  12.208  14.188   6.251
74388SOL     OW25060   6.548   3.401   7.838
74388SOL    HW125061   6.537   3.493   7.813
74388SOL    HW225062   6.463   3.375   7.873
74389SOL     OW25063  13.481   6.726  11.448
74389SOL    HW125064  13.518   6.802  11.402
74389SOL    HW225065  13.504   6.651  11.392
74390SOL     OW25066   4.836   1.237   9.926
74390SOL    HW125067   4.925   1.201   9.918
74390SOL    HW225068   4.809   1.214  10.015
74391SOL     OW25069   3.152   7.217   2.872
74391SOL    HW125070   3.196   7.150   2.925
74391SOL    HW225071   3.078   7.245   2.925
74392SOL     OW25072   3.074   2.768  13.653
74392SOL    HW125073   3.143   2.711  13.687
74392SOL    HW225074   3.040   2.721  13.576
74393SOL     OW25075  10.633   8.789   9.447
74393SOL    HW125076  10.647   8.695   9.442
74393SOL    HW225077  10.698   8.826   9.388
74394SOL     OW25078   8.820   4.425   3.974
74394SOL    HW125079   8.881   4.372   3.923
74394SOL    HW225080   8.747   4.442   3.915
74395SOL     OW25081   5.364   4.916   6.020
74395SOL    HW125082   5.373   4.924   5.926
74395SOL    HW225083   5.272   4.934   6.037
74396SOL     OW25084   0.556   4.460   7.090
74396SOL    HW125085   0.477   4.447   7.037
74396SOL    HW225086   0.549   4.550   7.122
74397SOL     OW25087  13.141  13.246   0.188
74397SOL    HW125088  13.047  13.235   0.197
74397SOL    HW225089  13.159  13.229   0.096
74398SOL     OW25090   6.578   8.320   0.619
74398SOL    HW125091   6.629   8.280   0.548
74398SOL    HW225092   6.499   8.352   0.576
74399SOL     OW25093   0.567  12.009   5.058
74399SOL    HW125094   0.625  12.069   5.012
74399SOL    HW225095   0.515  12.065   5.116
74400SOL     OW25096   2.611  14.171  11.784
74400SOL    HW125097   2.566  14.247  11.820
74400SOL    HW225098   2.682  14.207  11.731
74401SOL     OW25099   5.609   4.086   7.926
74401SOL    HW125100   5.539   4.148   7.943
74401SOL    HW225101   5.565   4.003   7.912
74402SOL     OW25102   9.165   1.367   4.261
74402SOL    HW125103   9.246   1.414   4.283
74402SOL    HW225104   9.095   1.425   4.290
74403SOL     OW25105   5.254   4.213   5.409
74403SOL    HW125106   5.197   4.277   5.452
74403SOL    HW225107   5.214   4.198   5.324
74404SOL     OW25108  14.508  13.560  12.493
74404SOL    HW125109  14.485  13.488  12.434
74404SOL    HW225110  14.454  13.545  12.571
74405SOL     OW25111   9.326   9.971   0.405
74405SOL    HW125112   9.312  10.065   0.418
74405SOL    HW225113   9.278   9.950   0.325
74406SOL     OW25114  10.576  11.326   9.772
74406SOL    HW125115  10.506  11.304   9.710
74406SOL    HW225116  10.592  11.245   9.820
74407SOL     OW25117  12.549  13.809  13.434
74407SOL    HW125118  12.547  13.764  13.350
74407SOL    HW225119  12.552  13.738  13.499
74408SOL     OW25120  11.624  11.707   4.628
74408SOL    HW125121  11.629  11.744   4.716
74408SOL    HW225122  11.650  11.616   4.639
74409SOL     OW25123   8.737   6.044  11.249
74409SOL    HW125124   8.726   6.120  11.307
74409SOL    HW225125   8.693   6.069  11.168
74410SOL     OW25126   6.155  14.549  13.379
74410SOL    HW125127   6.231  14.525  13.327
74410SOL    HW225128   6.158  14.645  13.385
74411SOL     OW25129  13.662  11.346   9.469
74411SOL    HW125130  13.665  11.271   9.528
74411SOL    HW225131  13.568  11.364   9.459
74412SOL     OW25132  11.809   8.525   6.359
74412SOL    HW125133  11.722   8.486   6.369
74412SOL    HW225134  11.869   8.459   6.395
74413SOL     OW25135   0.584  14.586   4.796
74413SOL    HW125136   0.629  14.669   4.814
74413SOL    HW225137   0.499  14.613   4.761
74414SOL     OW25138   3.474  14.378  11.413
74414SOL    HW125139   3.469  14.282  11.420
74414SOL    HW225140   3.553  14.394  11.361
74415SOL     OW25141   8.903   6.464  12.686
74415SOL    HW125142   8.845   6.428  12.753
74415SOL    HW225143   8.891   6.406  12.611
74416SOL     OW25144  13.967   9.283   5.054
74416SOL    HW125145  14.053   9.300   5.092
74416SOL    HW225146  13.981   9.295   4.960
74417SOL     OW25147   7.319   5.696   6.458
74417SOL    HW125148   7.315   5.731   6.369
74417SOL    HW225149   7.330   5.773   6.514
74418SOL     OW25150   0.574   9.357   3.465
74418SOL    HW125151   0.641   9.422   3.440
74418SOL    HW225152   0.543   9.387   3.550
74419SOL     OW25153  10.194  10.889   4.329
74419SOL    HW125154  10.163  10.934   4.251
74419SOL    HW225155  10.289  10.886   4.319
74420SOL     OW25156   0.369   0.612  12.384
74420SOL    HW125157   0.367   0.662  12.466
74420SOL    HW225158   0.437   0.546  12.398
74421SOL     OW25159   5.854  13.245   7.743
74421SOL    HW125160   5.877  13.152   7.753
74421SOL    HW225161   5.794  13.247   7.668
74422SOL     OW25162  10.100   9.452   9.113
74422SOL    HW125163  10.042   9.489   9.180
74422SOL    HW225164  10.099   9.358   9.130
74423SOL     OW25165  14.045   8.021  14.875
74423SOL    HW125166  14.069   8.024   0.080
74423SOL    HW225167  14.006   8.106  14.857
74424SOL     OW25168   4.875   9.483  12.023
74424SOL    HW125169   4.859   9.535  12.102
74424SOL    HW225170   4.811   9.412  12.028
74425SOL     OW25171   9.593   0.480   9.821
74425SOL    HW125172   9.628   0.479   9.910
74425SOL    HW225173   9.633   0.556   9.780
74426SOL     OW25174   1.076  13.351   8.448
74426SOL    HW125175   1.138  13.350   8.521
74426SOL    HW225176   1.073  13.260   8.419
74427SOL     OW25177   8.944  11.386  14.392
74427SOL    HW125178   9.024  11.391  14.445
74427SOL    HW225179   8.945  11.466  14.340
74428SOL     OW25180  10.272  10.965   1.348
74428SOL    HW125181  10.203  11.006   1.401
74428SOL    HW225182  10.353  10.994   1.389
74429SOL     OW25183   0.216  14.124   1.695
74429SOL    HW125184   0.223  14.062   1.768
74429SOL    HW225185   0.163  14.196   1.730
74430SOL     OW25186   0.030   4.200   4.793
74430SOL    HW125187   0.029   4.215   4.698
74430SOL    HW225188   0.098   4.134   4.806
74431SOL     OW25189   3.103  12.426  14.547
74431SOL    HW125190   3.146  12.490  14.490
74431SOL    HW225191   3.173  12.395  14.605
74432SOL     OW25192  11.377   5.641   1.980
74432SOL    HW125193  11.339   5.727   1.961
74432SOL    HW225194  11.378   5.636   2.076
74433SOL     OW25195  10.855  14.278   0.615
74433SOL    HW125196  10.882  14.188   0.601
74433SOL    HW225197  10.760  14.273   0.627
74434SOL     OW25198  12.832  10.840   9.130
74434SOL    HW125199  12.884  10.768   9.167
74434SOL    HW225200  12.897  10.898   9.090
74435SOL     OW25201   5.904   8.214   8.756
74435SOL    HW125202   5.880   8.171   8.674
74435SOL    HW225203   5.974   8.159   8.792
74436SOL     OW25204  10.619   9.050   2.155
74436SOL    HW125205  10.647   8.959   2.163
74436SOL    HW225206  10.682   9.089   2.094
74437SOL     OW25207   2.032   6.835   9.297
74437SOL    HW125208   2.103   6.800   9.243
74437SOL    HW225209   2.072   6.909   9.344
74438SOL     OW25210   6.933   5.196   1.796
74438SOL    HW125211   6.944   5.261   1.866
74438SOL    HW225212   6.843   5.165   1.806
74439SOL     OW25213  12.290   8.648   9.089
74439SOL    HW125214  12.265   8.555   9.082
74439SOL    HW225215  12.287   8.667   9.183
74440SOL     OW25216  11.982   1.730   9.298
74440SOL    HW125217  12.039   1.751   9.371
74440SOL    HW225218  11.929   1.808   9.285
74441SOL     OW25219  13.022  10.784   5.127
74441SOL    HW125220  12.973  10.717   5.175
74441SOL    HW225221  12.966  10.862   5.132
74442SOL     OW25222  13.964   1.585  10.968
74442SOL    HW125223  13.943   1.675  10.944
74442SOL    HW225224  13.883   1.552  11.006
74443SOL     OW25225   4.278   5.922  13.391
74443SOL    HW125226   4.370   5.897  13.382
74443SOL    HW225227   4.231   5.863  13.332
74444SOL     OW25228   0.668   6.907  12.273
74444SOL    HW125229   0.643   6.944  12.189
74444SOL    HW225230   0.614   6.828  12.281
74445SOL     OW25231   2.992   5.926  13.193
74445SOL    HW125232   2.927   5.964  13.134
74445SOL    HW225233   2.996   5.988  13.266
74446SOL     OW25234  12.401   2.400   2.111
74446SOL    HW125235  12.401   2.305   2.101
74446SOL    HW225236  12.483   2.428   2.070
74447SOL     OW25237   2.715  10.711   3.065
74447SOL    HW125238   2.693  10.795   3.024
74447SOL    HW225239   2.682  10.645   3.005
74448SOL     OW25240  13.573   9.322  10.584
74448SOL    HW125241  13.499   9.278  10.624
74448SOL    HW225242  13.643   9.315  10.649
74449SOL     OW25243   7.600   1.036  14.303
74449SOL    HW125244   7.633   1.116  14.263
74449SOL    HW225245   7.530   1.007  14.244
74450SOL     OW25246   1.468   4.349   8.195
74450SOL    HW125247   1.495   4.342   8.286
74450SOL    HW225248   1.378   4.315   8.193
74451SOL     OW25249   0.215  14.784  14.517
74451SOL    HW125250   0.163  14.839  14.458
74451SOL    HW225251   0.150  14.736  14.569
74452SOL     OW25252   6.813   5.318   0.351
74452SOL    HW125253   6.803   5.363   0.435
74452SOL    HW225254   6.903   5.336   0.324
74453SOL     OW25255   0.508   8.961   7.620
74453SOL    HW125256   0.578   9.025   7.634
74453SOL    HW225257   0.487   8.969   7.527
74454SOL     OW25258   3.844  10.072   3.983
74454SOL    HW125259   3.802  10.146   3.941
74454SOL    HW225260   3.780  10.001   3.977
74455SOL     OW25261  11.863   7.170   8.744
74455SOL    HW125262  11.793   7.112   8.776
74455SOL    HW225263  11.919   7.184   8.821
74456SOL     OW25264   8.563   9.774  14.442
74456SOL    HW125265   8.642   9.828  14.437
74456SOL    HW225266   8.560   9.742  14.532
74457SOL     OW25267   3.410  12.488   9.289
74457SOL    HW125268   3.395  12.528   9.203
74457SOL    HW225269   3.391  12.558   9.351
74458SOL     OW25270   6.637   4.519  10.490
74458SOL    HW125271   6.616   4.429  10.513
74458SOL    HW225272   6.566   4.546  10.432
74459SOL     OW25273   5.291   7.009   1.081
74459SOL    HW125274   5.357   6.996   1.013
74459SOL    HW225275   5.215   7.042   1.033
74460SOL     OW25276   1.935   9.360   7.455
74460SOL    HW125277   1.920   9.454   7.457
74460SOL    HW225278   1.852   9.321   7.481
74461SOL     OW25279   6.890  10.984   5.721
74461SOL    HW125280   6.886  10.889   5.717
74461SOL    HW225281   6.811  11.013   5.675
74462SOL     OW25282   5.610  11.270   9.443
74462SOL    HW125283   5.661  11.343   9.408
74462SOL    HW225284   5.525  11.277   9.400
74463SOL     OW25285   5.381   7.198  10.042
74463SOL    HW125286   5.450   7.185  10.107
74463SOL    HW225287   5.300   7.176  10.088
74464SOL     OW25288  13.467   6.097   9.374
74464SOL    HW125289  13.390   6.138   9.414
74464SOL    HW225290  13.524   6.076   9.448
74465SOL     OW25291   6.168   3.774  10.337
74465SOL    HW125292   6.214   3.690  10.347
74465SOL    HW225293   6.127   3.768  10.251
74466SOL     OW25294  14.443   5.154   7.556
74466SOL    HW125295  14.472   5.162   7.646
74466SOL    HW225296  14.428   5.060   7.544
74467SOL     OW25297  14.221  11.485   9.502
74467SOL    HW125298  14.133  11.461   9.473
74467SOL    HW225299  14.207  11.561   9.557
74468SOL     OW25300  14.004  13.495  10.249
74468SOL    HW125301  13.986  13.434  10.178
74468SOL    HW225302  14.044  13.570  10.207
74469SOL     OW25303  11.329  14.455  10.060
74469SOL    HW125304  11.411  14.446  10.107
74469SOL    HW225305  11.269  14.396  10.105
74470SOL     OW25306   2.783  10.277  12.653
74470SOL    HW125307   2.688  10.264  12.657
74470SOL    HW225308   2.793  10.368  12.625
74471SOL     OW25309   3.987   3.942   6.622
74471SOL    HW125310   3.987   4.038   6.626
74471SOL    HW225311   4.078   3.917   6.634
74472SOL     OW25312  11.727   7.183   1.909
74472SOL    HW125313  11.763   7.094   1.903
74472SOL    HW225314  11.632   7.170   1.916
74473SOL     OW25315  14.828  10.324   7.320
74473SOL    HW125316  14.771  10.400   7.332
74473SOL    HW225317  14.812  10.296   7.230
74474SOL     OW25318   9.687  14.804   1.331
74474SOL    HW125319   9.761  14.858   1.361
74474SOL    HW225320   9.626  14.804   1.404
74475SOL     OW25321   5.159   0.852  13.447
74475SOL    HW125322   5.150   0.824  13.355
74475SOL    HW225323   5.240   0.903  13.448
74476SOL     OW25324   9.098   9.518   4.714
74476SOL    HW125325   9.135   9.567   4.788
74476SOL    HW225326   9.162   9.529   4.644
74477SOL     OW25327  13.049   7.178  13.550
74477SOL    HW125328  13.086   7.215  13.470
74477SOL    HW225329  13.080   7.087  13.551
74478SOL     OW25330  14.146  13.976   8.239
74478SOL    HW125331  14.219  13.999   8.297
74478SOL    HW225332  14.133  13.882   8.254
74479SOL     OW25333  13.100   4.293   0.834
74479SOL    HW125334  13.172   4.297   0.770
74479SOL    HW225335  13.144   4.292   0.919
74480SOL     OW25336   3.958   0.933   2.808
74480SOL    HW125337   3.867   0.904   2.820
74480SOL    HW225338   3.965   0.952   2.715
74481SOL     OW25339   2.541  14.514   7.018
74481SOL    HW125340   2.577  14.545   7.101
74481SOL    HW225341   2.550  14.419   7.021
74482SOL     OW25342  12.134   1.706  12.599
74482SOL    HW125343  12.209   1.720  12.658
74482SOL    HW225344  12.161   1.747  12.517
74483SOL     OW25345   9.389   2.696  14.417
74483SOL    HW125346   9.442   2.761  14.371
74483SOL    HW225347   9.345   2.647  14.347
74484SOL     OW25348   4.222   8.802   8.432
74484SOL    HW125349   4.268   8.831   8.354
74484SOL    HW225350   4.254   8.860   8.502
74485SOL     OW25351   7.941   7.717   2.169
74485SOL    HW125352   7.968   7.783   2.106
74485SOL    HW225353   8.007   7.722   2.238
74486SOL     OW25354  14.152   3.334   1.991
74486SOL    HW125355  14.125   3.244   1.972
74486SOL    HW225356  14.071   3.385   1.985
74487SOL     OW25357  11.723   0.789  11.749
74487SOL    HW125358  11.810   0.821  11.773
74487SOL    HW225359  11.728   0.774  11.654
74488SOL     OW25360   9.451  12.576   0.497
74488SOL    HW125361   9.410  12.501   0.454
74488SOL    HW225362   9.385  12.607   0.559
74489SOL     OW25363  13.069   1.848   4.135
74489SOL    HW125364  13.017   1.926   4.115
74489SOL    HW225365  13.057   1.835   4.229
74490SOL     OW25366  11.734  11.509   6.266
74490SOL    HW125367  11.706  11.580   6.209
74490SOL    HW225368  11.749  11.550   6.351
74491SOL     OW25369   8.718   8.150  14.190
74491SOL    HW125370   8.776   8.081  14.158
74491SOL    HW225371   8.672   8.181  14.111
74492SOL     OW25372  12.219   1.981   9.120
74492SOL    HW125373  12.302   2.017   9.150
74492SOL    HW225374  12.225   1.888   9.137
74493SOL     OW25375   9.821  10.821   5.389
74493SOL    HW125376   9.733  10.848   5.417
74493SOL    HW225377   9.814  10.727   5.376
74494SOL     OW25378  12.730  11.734  14.543
74494SOL    HW125379  12.807  11.742  14.487
74494SOL    HW225380  12.750  11.660  14.601
74495SOL     OW25381   9.649   7.564  13.975
74495SOL    HW125382   9.739   7.568  13.943
74495SOL    HW225383   9.637   7.472  14.001
74496SOL     OW25384   0.410   4.991  12.159
74496SOL    HW125385   0.362   4.916  12.124
74496SOL    HW225386   0.476   4.952  12.216
74497SOL     OW25387   6.856   6.162  10.996
74497SOL    HW125388   6.926   6.108  11.030
74497SOL    HW225389   6.851   6.236  11.057
74498SOL     OW25390   9.690  14.436   7.300
74498SOL    HW125391   9.660  14.419   7.389
74498SOL    HW225392   9.732  14.355   7.273
74499SOL     OW25393   2.431  13.560  12.544
74499SOL    HW125394   2.420  13.640  12.493
74499SOL    HW225395   2.364  13.500  12.510
74500SOL     OW25396   6.642   0.415   1.153
74500SOL    HW125397   6.583   0.347   1.186
74500SOL    HW225398   6.583   0.480   1.115
74501SOL     OW25399   7.856   2.721  12.618
74501SOL    HW125400   7.807   2.675  12.549
74501SOL    HW225401   7.933   2.666  12.633
74502SOL     OW25402   9.972  11.604  14.301
74502SOL    HW125403   9.976  11.562  14.215
74502SOL    HW225404   9.897  11.663  14.295
74503SOL     OW25405   9.448   7.847   5.411
74503SOL    HW125406   9.440   7.831   5.317
74503SOL    HW225407   9.370   7.804   5.449
74504SOL     OW25408  14.046   4.583   3.438
74504SOL    HW125409  14.130   4.620   3.410
74504SOL    HW225410  13.980   4.629   3.386
74505SOL     OW25411   1.984  13.122   3.549
74505SOL    HW125412   1.923  13.196   3.555
74505SOL    HW225413   2.035  13.140   3.470
74506SOL     OW25414   9.140  12.927   5.839
74506SOL    HW125415   9.078  12.955   5.772
74506SOL    HW225416   9.193  12.860   5.795
74507SOL     OW25417   7.859  10.959   9.692
74507SOL    HW125418   7.871  10.903   9.768
74507SOL    HW225419   7.798  10.911   9.636
74508SOL     OW25420  12.435   0.984   4.402
74508SOL    HW125421  12.474   1.051   4.346
74508SOL    HW225422  12.477   0.902   4.376
74509SOL     OW25423   0.465   1.282   2.400
74509SOL    HW125424   0.383   1.239   2.422
74509SOL    HW225425   0.444   1.337   2.325
74510SOL     OW25426   1.047   8.426   1.316
74510SOL    HW125427   1.143   8.422   1.320
74510SOL    HW225428   1.025   8.514   1.347
74511SOL     OW25429  12.730   0.381   2.663
74511SOL    HW125430  12.741   0.384   2.758
74511SOL    HW225431  12.735   0.473   2.636
74512SOL     OW25432   6.389  14.184   0.170
74512SOL    HW125433   6.465  14.242   0.175
74512SOL    HW225434   6.400  14.136   0.089
74513SOL     OW25435   0.448  10.709   7.436
74513SOL    HW125436   0.390  10.711   7.360
74513SOL    HW225437   0.475  10.800   7.449
74514SOL     OW25438   2.433   1.138  10.924
74514SOL    HW125439   2.383   1.075  10.872
74514SOL    HW225440   2.377   1.158  10.999
74515SOL     OW25441  11.166   6.413  11.443
74515SOL    HW125442  11.203   6.495  11.409
74515SOL    HW225443  11.123   6.438  11.524
74516SOL     OW25444   6.384  10.254   2.028
74516SOL    HW125445   6.460  10.220   2.075
74516SOL    HW225446   6.342  10.314   2.089
74517SOL     OW25447  11.800   9.542   2.567
74517SOL    HW125448  11.757   9.459   2.584
74517SOL    HW225449  11.741   9.589   2.508
74518SOL     OW25450  12.599   7.119   9.045
74518SOL    HW125451  12.633   7.136   9.133
74518SOL    HW225452  12.573   7.027   9.046
74519SOL     OW25453  10.272  14.448   1.488
74519SOL    HW125454  10.180  14.420   1.494
74519SOL    HW225455  10.318  14.392   1.551
74520SOL     OW25456   4.935   1.619   0.134
74520SOL    HW125457   4.884   1.620   0.215
74520SOL    HW225458   4.994   1.694   0.142
74521SOL     OW25459   0.350   6.971  11.206
74521SOL    HW125460   0.374   7.050  11.255
74521SOL    HW225461   0.403   6.975  11.127
74522SOL     OW25462  12.020  12.730   7.405
74522SOL    HW125463  11.935  12.716   7.447
74522SOL    HW225464  11.998  12.760   7.317
74523SOL     OW25465  11.303   0.619   6.296
74523SOL    HW125466  11.214   0.592   6.272
74523SOL    HW225467  11.300   0.631   6.391
74524SOL     OW25468   6.358   9.315  14.304
74524SOL    HW125469   6.276   9.310  14.255
74524SOL    HW225470   6.411   9.243  14.268
74525SOL     OW25471   3.241   6.288   8.762
74525SOL    HW125472   3.261   6.194   8.759
74525SOL    HW225473   3.199   6.306   8.678
74526SOL     OW25474  10.951   2.822  10.463
74526SOL    HW125475  11.038   2.856  10.482
74526SOL    HW225476  10.967   2.733  10.430
74527SOL     OW25477  12.524   0.767  10.011
74527SOL    HW125478  12.554   0.768  10.102
74527SOL    HW225479  12.463   0.840  10.005
74528SOL     OW25480   9.119  14.059   1.603
74528SOL    HW125481   9.184  14.107   1.655
74528SOL    HW225482   9.120  14.101   1.517
74529SOL     OW25483   8.077   3.893  13.818
74529SOL    HW125484   8.116   3.934  13.741
74529SOL    HW225485   7.986   3.924  13.818
74530SOL     OW25486   3.275   3.531  13.924
74530SOL    HW125487   3.241   3.442  13.934
74530SOL    HW225488   3.326   3.546  14.003
74531SOL     OW25489   3.515   6.181  11.107
74531SOL    HW125490   3.482   6.184  11.017
74531SOL    HW225491   3.522   6.088  11.127
74532SOL     OW25492   3.838   9.733  11.356
74532SOL    HW125493   3.918   9.733  11.408
74532SOL    HW225494   3.844   9.653  11.303
74533SOL     OW25495   3.714  11.343   6.126
74533SOL    HW125496   3.672  11.279   6.184
74533SOL    HW225497   3.677  11.427   6.153
74534SOL     OW25498   9.827   2.720   9.797
74534SOL    HW125499   9.736   2.748   9.793
74534SOL    HW225500   9.869   2.782   9.858
74535SOL     OW25501   5.011   2.764  14.218
74535SOL    HW125502   5.047   2.838  14.267
74535SOL    HW225503   5.081   2.699  14.217
74536SOL     OW25504  13.688   9.381   0.603
74536SOL    HW125505  13.618   9.346   0.549
74536SOL    HW225506  13.655   9.373   0.693
74537SOL     OW25507  12.830   3.191   4.628
74537SOL    HW125508  12.782   3.158   4.552
74537SOL    HW225509  12.919   3.158   4.617
74538SOL     OW25510  11.779   1.588   9.770
74538SOL    HW125511  11.728   1.507   9.771
74538SOL    HW225512  11.812   1.594   9.680
74539SOL     OW25513  12.500  10.455  14.678
74539SOL    HW125514  12.519  10.362  14.665
74539SOL    HW225515  12.433  10.457  14.745
74540SOL     OW25516  11.298   6.954  12.266
74540SOL    HW125517  11.250   6.932  12.345
74540SOL    HW225518  11.377   6.998  12.297
74541SOL     OW25519  10.607   8.336   6.864
74541SOL    HW125520  10.676   8.327   6.798
74541SOL    HW225521  10.579   8.246   6.883
74542SOL     OW25522   1.413   6.020   8.610
74542SOL    HW125523   1.505   6.047   8.620
74542SOL    HW225524   1.385   6.061   8.528
74543SOL     OW25525   5.364   5.979   1.255
74543SOL    HW125526   5.272   5.988   1.280
74543SOL    HW225527   5.379   5.885   1.254
74544SOL     OW25528  12.297  13.058   2.913
74544SOL    HW125529  12.334  13.141   2.944
74544SOL    HW225530  12.227  13.085   2.854
74545SOL     OW25531   9.256   6.442   1.978
74545SOL    HW125532   9.190   6.478   1.919
74545SOL    HW225533   9.246   6.347   1.970
74546SOL     OW25534   2.453   2.582  12.001
74546SOL    HW125535   2.369   2.611  11.965
74546SOL    HW225536   2.432   2.549  12.088
74547SOL     OW25537   9.574  12.139   9.898
74547SOL    HW125538   9.570  12.168   9.807
74547SOL    HW225539   9.650  12.183   9.935
74548SOL     OW25540  11.401   6.908  13.442
74548SOL    HW125541  11.412   6.871  13.354
74548SOL    HW225542  11.486   6.895  13.484
74549SOL     OW25543  12.257  11.809  14.454
74549SOL    HW125544  12.181  11.808  14.397
74549SOL    HW225545  12.227  11.770  14.536
74550SOL     OW25546  12.757   2.743   0.222
74550SOL    HW125547  12.772   2.825   0.268
74550SOL    HW225548  12.833   2.689   0.244
74551SOL     OW25549  10.916   0.749   2.426
74551SOL    HW125550  10.965   0.811   2.481
74551SOL    HW225551  10.837   0.730   2.476
74552SOL     OW25552  10.809   8.425   4.457
74552SOL    HW125553  10.746   8.402   4.525
74552SOL    HW225554  10.759   8.474   4.392
74553SOL     OW25555   0.031   0.223   5.688
74553SOL    HW125556   0.114   0.176   5.687
74553SOL    HW225557  14.871   0.188   5.764
74554SOL     OW25558   5.580  13.022   2.846
74554SOL    HW125559   5.649  13.031   2.912
74554SOL    HW225560   5.622  12.978   2.773
74555SOL     OW25561   7.756   3.031   9.344
74555SOL    HW125562   7.716   2.944   9.346
74555SOL    HW225563   7.686   3.089   9.313
74556SOL     OW25564   9.308   7.206   4.418
74556SOL    HW125565   9.339   7.291   4.449
74556SOL    HW225566   9.342   7.143   4.482
74557SOL     OW25567   9.497  10.966   1.064
74557SOL    HW125568   9.553  11.041   1.081
74557SOL    HW225569   9.557  10.892   1.055
74558SOL     OW25570  10.941   9.067   9.426
74558SOL    HW125571  10.946   9.093   9.518
74558SOL    HW225572  11.021   9.015   9.412
74559SOL     OW25573  10.087   9.382   8.553
74559SOL    HW125574  10.165   9.383   8.498
74559SOL    HW225575  10.026   9.323   8.508
74560SOL     OW25576  12.388   4.000   7.312
74560SOL    HW125577  12.450   4.018   7.242
74560SOL    HW225578  12.399   3.906   7.331
74561SOL     OW25579   0.803   5.012   2.446
74561SOL    HW125580   0.814   5.088   2.503
74561SOL    HW225581   0.892   4.986   2.422
74562SOL     OW25582   7.293  10.826  13.732
74562SOL    HW125583   7.199  10.805  13.725
74562SOL    HW225584   7.307  10.841  13.825
74563SOL     OW25585   0.618   3.894  13.173
74563SOL    HW125586   0.671   3.893  13.093
74563SOL    HW225587   0.528   3.887  13.142
74564SOL     OW25588   7.734   9.805  11.980
74564SOL    HW125589   7.710   9.712  11.989
74564SOL    HW225590   7.789   9.822  12.057
74565SOL     OW25591  11.946  11.232   1.294
74565SOL    HW125592  11.938  11.313   1.345
74565SOL    HW225593  12.006  11.178   1.345
74566SOL     OW25594   6.326   3.914   2.568
74566SOL    HW125595   6.233   3.910   2.589
74566SOL    HW225596   6.370   3.912   2.653
74567SOL     OW25597   4.259  10.440  13.603
74567SOL    HW125598   4.251  10.380  13.677
74567SOL    HW225599   4.227  10.390  13.528
74568SOL     OW25600   2.368   4.066  13.763
74568SOL    HW125601   2.429   4.019  13.819
74568SOL    HW225602   2.396   4.158  13.768
74569SOL     OW25603  10.219  12.030   9.521
74569SOL    HW125604  10.280  12.030   9.595
74569SOL    HW225605  10.215  11.939   9.493
74570SOL     OW25606  10.447  14.614  10.542
74570SOL    HW125607  10.445  14.709  10.558
74570SOL    HW225608  10.487  14.606  10.456
74571SOL     OW25609  12.718   3.975   4.204
74571SOL    HW125610  12.684   4.062   4.184
74571SOL    HW225611  12.645   3.916   4.183
74572SOL     OW25612   4.867   2.378   6.021
74572SOL    HW125613   4.778   2.409   6.005
74572SOL    HW225614   4.923   2.450   5.990
74573SOL     OW25615   2.193   3.483   3.473
74573SOL    HW125616   2.199   3.434   3.391
74573SOL    HW225617   2.164   3.418   3.538
74574SOL     OW25618   0.249   9.136  12.900
74574SOL    HW125619   0.281   9.177  12.980
74574SOL    HW225620   0.274   9.044  12.908
74575SOL     OW25621   7.175   8.591   4.123
74575SOL    HW125622   7.268   8.580   4.144
74575SOL    HW225623   7.132   8.519   4.169
74576SOL     OW25624   4.810   5.282  12.950
74576SOL    HW125625   4.803   5.246  13.038
74576SOL    HW225626   4.736   5.243  12.903
74577SOL     OW25627  11.921  12.313  10.058
74577SOL    HW125628  11.865  12.266  10.119
74577SOL    HW225629  11.993  12.252  10.039
74578SOL     OW25630   0.915   7.198   2.239
74578SOL    HW125631   0.863   7.162   2.167
74578SOL    HW225632   0.956   7.276   2.202
74579SOL     OW25633  11.121   3.425   7.734
74579SOL    HW125634  11.139   3.416   7.827
74579SOL    HW225635  11.133   3.337   7.698
74580SOL     OW25636  11.348   3.121   3.499
74580SOL    HW125637  11.345   3.166   3.583
74580SOL    HW225638  11.316   3.186   3.436
74581SOL     OW25639   6.065   9.727   5.138
74581SOL    HW125640   6.134   9.781   5.176
74581SOL    HW225641   6.102   9.695   5.056
74582SOL     OW25642   5.556   1.230   9.045
74582SOL    HW125643   5.500   1.210   9.120
74582SOL    HW225644   5.510   1.191   8.971
74583SOL     OW25645   4.661   5.675   0.727
74583SOL    HW125646   4.722   5.611   0.764
74583SOL    HW225647   4.647   5.738   0.798
74584SOL     OW25648  10.064  13.097   0.358
74584SOL    HW125649  10.088  13.080   0.267
74584SOL    HW225650  10.143  13.077   0.408
74585SOL     OW25651  14.052  10.621  10.515
74585SOL    HW125652  14.061  10.634  10.420
74585SOL    HW225653  14.142  10.624  10.547
74586SOL     OW25654   4.470  10.643   6.201
74586SOL    HW125655   4.466  10.633   6.106
74586SOL    HW225656   4.564  10.640   6.221
74587SOL     OW25657   2.408   7.280  14.682
74587SOL    HW125658   2.346   7.271  14.755
74587SOL    HW225659   2.354   7.306  14.608
74588SOL     OW25660   6.907   8.775  12.219
74588SOL    HW125661   6.814   8.785  12.237
74588SOL    HW225662   6.946   8.753  12.303
74589SOL     OW25663  10.613  13.560  12.809
74589SOL    HW125664  10.629  13.556  12.715
74589SOL    HW225665  10.532  13.511  12.821
74590SOL     OW25666  12.096   0.911   6.970
74590SOL    HW125667  12.174   0.921   7.024
74590SOL    HW225668  12.025   0.897   7.032
74591SOL     OW25669  13.423   2.411  14.736
74591SOL    HW125670  13.329   2.410  14.754
74591SOL    HW225671  13.430   2.412  14.641
74592SOL     OW25672   6.482   7.195   1.391
74592SOL    HW125673   6.522   7.213   1.306
74592SOL    HW225674   6.513   7.266   1.447
74593SOL     OW25675   9.768  13.167   2.377
74593SOL    HW125676   9.819  13.208   2.446
74593SOL    HW225677   9.692  13.223   2.367
74594SOL     OW25678   6.528   6.025   4.916
74594SOL    HW125679   6.540   6.083   4.840
74594SOL    HW225680   6.554   6.079   4.991
74595SOL     OW25681   4.704   4.979  11.775
74595SOL    HW125682   4.742   5.058  11.736
74595SOL    HW225683   4.779   4.928  11.805
74596SOL     OW25684   1.361  12.653   1.785
74596SOL    HW125685   1.454  12.638   1.804
74596SOL    HW225686   1.354  12.747   1.774
74597SOL     OW25687   3.240   4.649   7.250
74597SOL    HW125688   3.232   4.581   7.182
74597SOL    HW225689   3.159   4.699   7.242
74598SOL     OW25690   0.056  14.572  13.506
74598SOL    HW125691   0.044  14.666  13.517
74598SOL    HW225692   0.134  14.551  13.557
74599SOL     OW25693   7.207   0.774  13.116
74599SOL    HW125694   7.283   0.716  13.107
74599SOL    HW225695   7.209   0.803  13.207
74600SOL     OW25696   8.702  14.313   5.125
74600SOL    HW125697   8.758  14.374   5.077
74600SOL    HW225698   8.727  14.226   5.092
74601SOL     OW25699   2.243  14.632   3.909
74601SOL    HW125700   2.211  14.553   3.952
74601SOL    HW225701   2.282  14.600   3.827
74602SOL     OW25702  12.111   3.789  14.193
74602SOL    HW125703  12.157   3.789  14.277
74602SOL    HW225704  12.158   3.853  14.141
74603SOL     OW25705  11.495   7.882   3.533
74603SOL    HW125706  11.542   7.821   3.477
74603SOL    HW225707  11.407   7.847   3.539
74604SOL     OW25708   6.222   3.738   9.461
74604SOL    HW125709   6.211   3.721   9.367
74604SOL    HW225710   6.221   3.652   9.502
74605SOL     OW25711   4.508  11.923  13.410
74605SOL    HW125712   4.568  11.879  13.350
74605SOL    HW225713   4.516  11.874  13.492
74606SOL     OW25714  10.013   5.828  13.483
74606SOL    HW125715  10.068   5.907  13.480
74606SOL    HW225716   9.985   5.821  13.574
74607SOL     OW25717   4.727   1.893   6.525
74607SOL    HW125718   4.736   1.800   6.544
74607SOL    HW225719   4.758   1.902   6.435
74608SOL     OW25720  14.762   1.083   3.268
74608SOL    HW125721  14.724   1.052   3.185
74608SOL    HW225722  14.750   1.178   3.264
74609SOL     OW25723   8.510   6.870  11.923
74609SOL    HW125724   8.453   6.943  11.898
74609SOL    HW225725   8.453   6.793  11.920
74610SOL     OW25726  10.285   1.862  13.820
74610SOL    HW125727  10.294   1.952  13.787
74610SOL    HW225728  10.362   1.850  13.877
74611SOL     OW25729   9.980  12.019   4.489
74611SOL    HW125730  10.031  12.037   4.567
74611SOL    HW225731   9.934  11.937   4.508
74612SOL     OW25732  12.146  12.979   7.936
74612SOL    HW125733  12.100  13.024   8.007
74612SOL    HW225734  12.147  12.887   7.963
74613SOL     OW25735   7.114   6.240   2.818
74613SOL    HW125736   7.206   6.222   2.837
74613SOL    HW225737   7.106   6.227   2.724
74614SOL     OW25738  10.672  11.741   1.026
74614SOL    HW125739  10.583  11.730   1.059
74614SOL    HW225740  10.726  11.691   1.087
74615SOL     OW25741   5.128   3.569  12.118
74615SOL    HW125742   5.168   3.656  12.126
74615SOL    HW225743   5.052   3.572  12.176
74616SOL     OW25744  12.867  13.293  12.945
74616SOL    HW125745  12.779  13.325  12.965
74616SOL    HW225746  12.852  13.217  12.888
74617SOL     OW25747   9.252   9.366   6.643
74617SOL    HW125748   9.186   9.375   6.575
74617SOL    HW225749   9.281   9.275   6.637
74618SOL     OW25750   1.583   2.532   6.171
74618SOL    HW125751   1.538   2.611   6.142
74618SOL    HW225752   1.582   2.474   6.095
74619SOL     OW25753   5.468   1.354   5.140
74619SOL    HW125754   5.450   1.312   5.224
74619SOL    HW225755   5.560   1.332   5.121
74620SOL     OW25756   3.591   7.573   3.057
74620SOL    HW125757   3.609   7.546   3.147
74620SOL    HW225758   3.674   7.558   3.011
74621SOL     OW25759  11.616   4.627   7.399
74621SOL    HW125760  11.579   4.659   7.482
74621SOL    HW225761  11.709   4.616   7.417
74622SOL     OW25762   3.059  10.854   5.354
74622SOL    HW125763   3.109  10.822   5.428
74622SOL    HW225764   3.065  10.786   5.287
74623SOL     OW25765   5.188   7.378   9.151
74623SOL    HW125766   5.246   7.441   9.194
74623SOL    HW225767   5.238   7.346   9.076
74624SOL     OW25768   6.185   2.183   6.412
74624SOL    HW125769   6.138   2.263   6.435
74624SOL    HW225770   6.195   2.136   6.494
74625SOL     OW25771   7.674   2.641   2.732
74625SOL    HW125772   7.751   2.684   2.694
74625SOL    HW225773   7.710   2.564   2.777
74626SOL     OW25774   8.844  11.192   7.155
74626SOL    HW125775   8.785  11.190   7.230
74626SOL    HW225776   8.809  11.128   7.093
74627SOL     OW25777   1.852   0.581   8.758
74627SOL    HW125778   1.923   0.632   8.719
74627SOL    HW225779   1.852   0.499   8.709
74628SOL     OW25780   2.791  14.167   9.920
74628SOL    HW125781   2.825  14.223   9.851
74628SOL    HW225782   2.696  14.175   9.914
74629SOL     OW25783   2.946   9.962   5.613
74629SOL    HW125784   3.041   9.964   5.622
74629SOL    HW225785   2.916   9.909   5.687
74630SOL     OW25786   2.160   5.300   5.307
74630SOL    HW125787   2.102   5.302   5.384
74630SOL    HW225788   2.198   5.212   5.309
74631SOL     OW25789   6.437   4.452  14.045
74631SOL    HW125790   6.496   4.377  14.033
74631SOL    HW225791   6.358   4.428  13.995
74632SOL     OW25792   5.734   9.750  10.680
74632SOL    HW125793   5.650   9.757  10.726
74632SOL    HW225794   5.793   9.712  10.745
74633SOL     OW25795   5.627   0.545   6.466
74633SOL    HW125796   5.599   0.453   6.469
74633SOL    HW225797   5.717   0.544   6.498
74634SOL     OW25798   8.843  12.333  12.416
74634SOL    HW125799   8.908  12.297  12.357
74634SOL    HW225800   8.893  12.364  12.492
74635SOL     OW25801  13.512  11.124   1.482
74635SOL    HW125802  13.433  11.077   1.454
74635SOL    HW225803  13.480  11.193   1.540
74636SOL     OW25804  11.831  14.683  13.703
74636SOL    HW125805  11.879  14.749  13.754
74636SOL    HW225806  11.896  14.650  13.641
74637SOL     OW25807   5.090   7.212  10.456
74637SOL    HW125808   5.144   7.145  10.497
74637SOL    HW225809   5.085   7.282  10.520
74638SOL     OW25810   7.110  14.162   0.344
74638SOL    HW125811   7.124  14.251   0.313
74638SOL    HW225812   7.155  14.107   0.280
74639SOL     OW25813  14.101  13.099  13.961
74639SOL    HW125814  14.079  13.149  13.882
74639SOL    HW225815  14.192  13.073  13.948
74640SOL     OW25816   1.061   9.922   1.607
74640SOL    HW125817   1.054   9.850   1.544
74640SOL    HW225818   1.029   9.999   1.560
74641SOL     OW25819   7.974   1.326   8.920
74641SOL    HW125820   7.983   1.410   8.875
74641SOL    HW225821   7.880   1.318   8.936
74642SOL     OW25822   6.425   5.246   8.780
74642SOL    HW125823   6.401   5.292   8.700
74642SOL    HW225824   6.385   5.160   8.771
74643SOL     OW25825   4.950  12.071   7.492
74643SOL    HW125826   4.910  12.014   7.426
74643SOL    HW225827   4.981  12.147   7.442
74644SOL     OW25828   9.629   7.490   0.095
74644SOL    HW125829   9.625   7.423   0.027
74644SOL    HW225830   9.542   7.488   0.136
74645SOL     OW25831   8.573   4.679   5.135
74645SOL    HW125832   8.541   4.754   5.085
74645SOL    HW225833   8.520   4.679   5.215
74646SOL     OW25834   1.633   8.971   4.654
74646SOL    HW125835   1.676   8.893   4.617
74646SOL    HW225836   1.611   9.024   4.578
74647SOL     OW25837  11.022   1.497  10.719
74647SOL    HW125838  11.098   1.521  10.666
74647SOL    HW225839  10.954   1.559  10.693
74648SOL     OW25840   2.895   4.632   6.151
74648SOL    HW125841   2.920   4.664   6.238
74648SOL    HW225842   2.800   4.628   6.154
74649SOL     OW25843   0.158  12.329   3.313
74649SOL    HW125844   0.187  12.318   3.404
74649SOL    HW225845   0.228  12.290   3.261
74650SOL     OW25846   2.907   3.287   1.540
74650SOL    HW125847   2.850   3.214   1.518
74650SOL    HW225848   2.898   3.296   1.635
74651SOL     OW25849   5.202  13.984   1.205
74651SOL    HW125850   5.155  14.003   1.286
74651SOL    HW225851   5.246  13.901   1.223
74652SOL     OW25852  13.461   4.262  13.609
74652SOL    HW125853  13.407   4.320  13.664
74652SOL    HW225854  13.479   4.186  13.665
74653SOL     OW25855   8.161   5.042   6.810
74653SOL    HW125856   8.121   5.094   6.879
74653SOL    HW225857   8.242   5.088   6.788
74654SOL     OW25858   5.480  14.487  13.754
74654SOL    HW125859   5.570  14.472  13.783
74654SOL    HW225860   5.443  14.400  13.743
74655SOL     OW25861   4.715   8.878   8.318
74655SOL    HW125862   4.791   8.821   8.301
74655SOL    HW225863   4.717   8.892   8.412
74656SOL     OW25864  13.934   2.799  14.045
74656SOL    HW125865  13.985   2.781  13.967
74656SOL    HW225866  13.853   2.838  14.013
74657SOL     OW25867   2.923   5.515  10.536
74657SOL    HW125868   2.949   5.519  10.444
74657SOL    HW225869   3.001   5.538  10.585
74658SOL     OW25870   3.624  13.692   3.179
74658SOL    HW125871   3.670  13.748   3.242
74658SOL    HW225872   3.536  13.684   3.214
74659SOL     OW25873   2.170   4.216   4.008
74659SOL    HW125874   2.234   4.157   4.048
74659SOL    HW225875   2.199   4.226   3.917
74660SOL     OW25876  11.097  10.312   4.266
74660SOL    HW125877  11.157  10.274   4.329
74660SOL    HW225878  11.059  10.238   4.219
74661SOL     OW25879   8.329  12.310   8.691
74661SOL    HW125880   8.365  12.285   8.605
74661SOL    HW225881   8.270  12.238   8.713
74662SOL     OW25882  10.602   8.224   4.317
74662SOL    HW125883  10.635   8.185   4.397
74662SOL    HW225884  10.554   8.154   4.273
74663SOL     OW25885  10.103   4.369   3.190
74663SOL    HW125886  10.102   4.297   3.126
74663SOL    HW225887  10.088   4.448   3.138
74664SOL     OW25888   5.165   6.282   6.936
74664SOL    HW125889   5.118   6.355   6.895
74664SOL    HW225890   5.223   6.250   6.867
74665SOL     OW25891   1.978   6.294   1.146
74665SOL    HW125892   2.030   6.355   1.198
74665SOL    HW225893   2.038   6.265   1.077
74666SOL     OW25894  10.099   7.508  10.230
74666SOL    HW125895  10.140   7.491  10.145
74666SOL    HW225896  10.059   7.595  10.220
74667SOL     OW25897  10.755   8.455  10.136
74667SOL    HW125898  10.753   8.549  10.157
74667SOL    HW225899  10.833   8.445  10.082
74668SOL     OW25900   5.912  11.693  14.123
74668SOL    HW125901   5.819  11.708  14.143
74668SOL    HW225902   5.958  11.752  14.182
74669SOL     OW25903   6.073   5.245   4.730
74669SOL    HW125904   5.983   5.229   4.758
74669SOL    HW225905   6.114   5.289   4.805
74670SOL     OW25906  10.040   3.514   2.098
74670SOL    HW125907  10.101   3.444   2.123
74670SOL    HW225908   9.957   3.469   2.086
74671SOL     OW25909   4.948   4.115  11.446
74671SOL    HW125910   4.944   4.134  11.540
74671SOL    HW225911   4.942   4.201  11.404
74672SOL     OW25912  10.067  14.640   4.516
74672SOL    HW125913  10.143  14.687   4.482
74672SOL    HW225914  10.104  14.576   4.577
74673SOL     OW25915   8.591  10.369   5.366
74673SOL    HW125916   8.579  10.405   5.454
74673SOL    HW225917   8.511  10.393   5.319
74674SOL     OW25918  11.100   4.176  10.582
74674SOL    HW125919  11.061   4.112  10.641
74674SOL    HW225920  11.169   4.218  10.633
74675SOL     OW25921  12.179  13.905  10.451
74675SOL    HW125922  12.201  13.993  10.482
74675SOL    HW225923  12.239  13.890  10.378
74676SOL     OW25924   2.755   3.590   1.136
74676SOL    HW125925   2.757   3.599   1.041
74676SOL    HW225926   2.792   3.503   1.153
74677SOL     OW25927   5.051  10.824   7.830
74677SOL    HW125928   5.027  10.863   7.746
74677SOL    HW225929   5.143  10.847   7.842
74678SOL     OW25930   3.626  10.052  13.964
74678SOL    HW125931   3.549  10.041  13.907
74678SOL    HW225932   3.630   9.970  14.013
74679SOL     OW25933   0.931   5.929  11.796
74679SOL    HW125934   1.002   5.866  11.790
74679SOL    HW225935   0.862   5.883  11.844
74680SOL     OW25936   0.505   1.592   8.540
74680SOL    HW125937   0.558   1.517   8.514
74680SOL    HW225938   0.417   1.573   8.508
74681SOL     OW25939   1.045   7.215   8.655
74681SOL    HW125940   0.958   7.194   8.620
74681SOL    HW225941   1.093   7.252   8.581
74682SOL     OW25942   5.054   0.018  10.914
74682SOL    HW125943   5.117  14.836  10.933
74682SOL    HW225944   5.091   0.096  10.955
74683SOL     OW25945  12.708   3.084  14.238
74683SOL    HW125946  12.748   3.151  14.293
74683SOL    HW225947  12.782   3.033  14.206
74684SOL     OW25948   3.048  14.126   6.395
74684SOL    HW125949   3.031  14.079   6.477
74684SOL    HW225950   3.135  14.096   6.367
74685SOL     OW25951   5.104   1.205  11.826
74685SOL    HW125952   5.042   1.148  11.872
74685SOL    HW225953   5.052   1.248  11.758
74686SOL     OW25954   3.445   3.439  12.723
74686SOL    HW125955   3.451   3.529  12.691
74686SOL    HW225956   3.489   3.440  12.808
74687SOL     OW25957   6.956   6.309  10.762
74687SOL    HW125958   6.936   6.259  10.842
74687SOL    HW225959   7.015   6.252  10.713
74688SOL     OW25960   8.179   7.840  13.254
74688SOL    HW125961   8.174   7.761  13.307
74688SOL    HW225962   8.158   7.911  13.315
74689SOL     OW25963  12.927  13.378   1.065
74689SOL    HW125964  12.833  13.369   1.050
74689SOL    HW225965  12.966  13.305   1.018
74690SOL     OW25966   9.323  13.922   9.185
74690SOL    HW125967   9.399  13.976   9.207
74690SOL    HW225968   9.249  13.967   9.225
74691SOL     OW25969   7.376  11.952   7.585
74691SOL    HW125970   7.414  12.038   7.601
74691SOL    HW225971   7.282  11.965   7.597
74692SOL     OW25972   6.723   6.596   9.711
74692SOL    HW125973   6.808   6.605   9.667
74692SOL    HW225974   6.687   6.514   9.678
74693SOL     OW25975   4.119  11.384   9.736
74693SOL    HW125976   4.200  11.423   9.769
74693SOL    HW225977   4.148  11.321   9.670
74694SOL     OW25978  13.939   7.684   5.246
74694SOL    HW125979  13.946   7.688   5.150
74694SOL    HW225980  13.848   7.660   5.262
74695SOL     OW25981   4.611   8.630  14.395
74695SOL    HW125982   4.692   8.591  14.362
74695SOL    HW225983   4.620   8.723  14.379
74696SOL     OW25984   3.279   8.835  12.491
74696SOL    HW125985   3.222   8.812  12.565
74696SOL    HW225986   3.234   8.909  12.450
74697SOL     OW25987   8.569   8.800  12.022
74697SOL    HW125988   8.623   8.778  11.946
74697SOL    HW225989   8.554   8.895  12.015
74698SOL     OW25990   4.781   8.394   5.844
74698SOL    HW125991   4.746   8.441   5.769
74698SOL    HW225992   4.875   8.387   5.826
74699SOL     OW25993  14.772   0.671   0.975
74699SOL    HW125994  14.682   0.697   0.993
74699SOL    HW225995  14.790   0.602   1.038
74700SOL     OW25996  13.609  12.976  10.784
74700SOL    HW125997  13.634  12.958  10.875
74700SOL    HW225998  13.607  12.890  10.742
74701SOL     OW25999  12.160   1.799   0.816
74701SOL    HW126000  12.252   1.790   0.794
74701SOL    HW226001  12.152   1.888   0.850
74702SOL     OW26002   3.599  11.911  11.470
74702SOL    HW126003   3.505  11.926  11.468
74702SOL    HW226004   3.612  11.830  11.421
74703SOL     OW26005   1.034   8.696   8.077
74703SOL    HW126006   1.076   8.673   7.994
74703SOL    HW226007   1.088   8.654   8.144
74704SOL     OW26008  11.835   7.725   2.446
74704SOL    HW126009  11.742   7.706   2.436
74704SOL    HW226010  11.851   7.713   2.540
74705SOL     OW26011  11.817  13.120   3.331
74705SOL    HW126012  11.875  13.056   3.289
74705SOL    HW226013  11.748  13.066   3.371
74706SOL     OW26014   9.717  14.629   3.780
74706SOL    HW126015   9.807  14.628   3.813
74706SOL    HW226016   9.677  14.551   3.817
74707SOL     OW26017  12.937   1.678   0.635
74707SOL    HW126018  12.936   1.616   0.708
74707SOL    HW226019  12.888   1.633   0.565
74708SOL     OW26020   8.261   3.194   5.141
74708SOL    HW126021   8.251   3.132   5.068
74708SOL    HW226022   8.222   3.149   5.216
74709SOL     OW26023   9.978  11.553   4.876
74709SOL    HW126024  10.067  11.534   4.905
74709SOL    HW226025   9.955  11.480   4.819
74710SOL     OW26026   1.995   5.307   5.073
74710SOL    HW126027   1.925   5.244   5.087
74710SOL    HW226028   2.041   5.312   5.157
74711SOL     OW26029  14.388   0.636   2.802
74711SOL    HW126030  14.314   0.684   2.764
74711SOL    HW226031  14.349   0.581   2.869
74712SOL     OW26032   1.777   9.542  12.328
74712SOL    HW126033   1.825   9.494  12.395
74712SOL    HW226034   1.844   9.587  12.277
74713SOL     OW26035   5.502  12.081  10.772
74713SOL    HW126036   5.458  12.161  10.801
74713SOL    HW226037   5.482  12.017  10.841
74714SOL     OW26038   2.037   5.735  14.701
74714SOL    HW126039   2.003   5.646  14.714
74714SOL    HW226040   1.998   5.763  14.618
74715SOL     OW26041  10.432  12.970   3.303
74715SOL    HW126042  10.352  12.956   3.252
74715SOL    HW226043  10.463  12.882   3.323
74716SOL     OW26044   5.684  13.252   8.633
74716SOL    HW126045   5.695  13.270   8.540
74716SOL    HW226046   5.643  13.166   8.637
74717SOL     OW26047  11.655  12.450   1.327
74717SOL    HW126048  11.678  12.374   1.380
74717SOL    HW226049  11.596  12.416   1.260
74718SOL     OW26050   8.242   2.406   6.796
74718SOL    HW126051   8.242   2.351   6.875
74718SOL    HW226052   8.220   2.346   6.725
74719SOL     OW26053   8.181   1.211   5.077
74719SOL    HW126054   8.251   1.200   5.142
74719SOL    HW226055   8.122   1.137   5.092
74720SOL     OW26056  10.735  13.531  13.996
74720SOL    HW126057  10.797  13.575  14.055
74720SOL    HW226058  10.672  13.598  13.972
74721SOL     OW26059  11.889   8.892   1.315
74721SOL    HW126060  11.899   8.987   1.321
74721SOL    HW226061  11.801   8.875   1.350
74722SOL     OW26062  13.320   2.662   9.713
74722SOL    HW126063  13.351   2.601   9.780
74722SOL    HW226064  13.391   2.666   9.649
74723SOL     OW26065   5.937  12.671  10.349
74723SOL    HW126066   5.989  12.590  10.345
74723SOL    HW226067   5.864  12.655  10.290
74724SOL     OW26068   1.006   1.801   4.692
74724SOL    HW126069   1.047   1.884   4.715
74724SOL    HW226070   1.076   1.751   4.649
74725SOL     OW26071  12.380   1.372   1.635
74725SOL    HW126072  12.466   1.400   1.665
74725SOL    HW226073  12.320   1.436   1.672
74726SOL     OW26074   4.339  10.796   9.808
74726SOL    HW126075   4.286  10.766   9.882
74726SOL    HW226076   4.307  10.746   9.734
74727SOL     OW26077   0.531  11.475  10.101
74727SOL    HW126078   0.507  11.562  10.131
74727SOL    HW226079   0.531  11.421  10.180
74728SOL     OW26080  12.844  12.038  14.605
74728SOL    HW126081  12.820  11.963  14.550
74728SOL    HW226082  12.838  12.114  14.548
74729SOL     OW26083   7.348   3.449   3.791
74729SOL    HW126084   7.437   3.477   3.811
74729SOL    HW226085   7.302   3.529   3.764
74730SOL     OW26086   3.395   8.252  12.829
74730SOL    HW126087   3.386   8.163  12.797
74730SOL    HW226088   3.354   8.251  12.916
74731SOL     OW26089  10.748  12.827   1.021
74731SOL    HW126090  10.661  12.867   1.012
74731SOL    HW226091  10.754  12.766   0.948
74732SOL     OW26092   1.553  13.887   7.964
74732SOL    HW126093   1.493  13.938   7.909
74732SOL    HW226094   1.496  13.825   8.010
74733SOL     OW26095   7.733   7.321   5.034
74733SOL    HW126096   7.793   7.306   5.107
74733SOL    HW226097   7.667   7.252   5.042
74734SOL     OW26098   5.097   4.805   2.263
74734SOL    HW126099   5.053   4.825   2.346
74734SOL    HW226100   5.052   4.859   2.198
74735SOL     OW26101  10.574   4.009   8.554
74735SOL    HW126102  10.607   4.041   8.470
74735SOL    HW226103  10.498   4.065   8.572
74736SOL     OW26104   1.010  14.622  13.314
74736SOL    HW126105   1.029  14.701  13.365
74736SOL    HW226106   1.025  14.550  13.376
74737SOL     OW26107   0.949   3.526   9.519
74737SOL    HW126108   0.858   3.504   9.497
74737SOL    HW226109   0.945   3.551   9.612
74738SOL     OW26110  10.404   5.653  14.266
74738SOL    HW126111  10.498   5.669  14.269
74738SOL    HW226112  10.394   5.580  14.204
74739SOL     OW26113   1.455   9.023   5.955
74739SOL    HW126114   1.453   9.112   5.920
74739SOL    HW226115   1.436   8.967   5.880
74740SOL     OW26116   8.184   7.221  10.466
74740SOL    HW126117   8.263   7.275  10.476
74740SOL    HW226118   8.142   7.224  10.553
74741SOL     OW26119  12.440  10.697   7.500
74741SOL    HW126120  12.500  10.622   7.491
74741SOL    HW226121  12.394  10.699   7.416
74742SOL     OW26122   4.335   0.398   7.556
74742SOL    HW126123   4.428   0.376   7.566
74742SOL    HW226124   4.294   0.315   7.531
74743SOL     OW26125   3.246  14.763   9.854
74743SOL    HW126126   3.163  14.808   9.870
74743SOL    HW226127   3.239  14.683   9.907
74744SOL     OW26128   3.946  13.383  10.876
74744SOL    HW126129   3.943  13.359  10.969
74744SOL    HW226130   4.031  13.352  10.846
74745SOL     OW26131  12.249   8.905   0.696
74745SOL    HW126132  12.236   8.823   0.744
74745SOL    HW226133  12.299   8.879   0.619
74746SOL     OW26134   3.932   9.587  12.347
74746SOL    HW126135   3.867   9.539  12.399
74746SOL    HW226136   4.015   9.542  12.365
74747SOL     OW26137  13.248   9.818   7.130
74747SOL    HW126138  13.272   9.819   7.223
74747SOL    HW226139  13.278   9.903   7.097
74748SOL     OW26140  13.173  11.108   2.579
74748SOL    HW126141  13.148  11.178   2.639
74748SOL    HW226142  13.163  11.146   2.492
74749SOL     OW26143  14.766   3.540   6.767
74749SOL    HW126144  14.803   3.477   6.828
74749SOL    HW226145  14.828   3.543   6.694
74750SOL     OW26146   2.271   4.195  10.050
74750SOL    HW126147   2.228   4.127  10.102
74750SOL    HW226148   2.272   4.272  10.107
74751SOL     OW26149   1.539  13.565   0.142
74751SOL    HW126150   1.502  13.653   0.137
74751SOL    HW226151   1.463  13.508   0.158
74752SOL     OW26152  10.940   1.528  13.827
74752SOL    HW126153  10.962   1.621  13.836
74752SOL    HW226154  10.848   1.522  13.850
74753SOL     OW26155  14.245  11.348  13.025
74753SOL    HW126156  14.299  11.280  13.067
74753SOL    HW226157  14.168  11.300  12.994
74754SOL     OW26158   4.692   7.825  12.629
74754SOL    HW126159   4.652   7.907  12.598
74754SOL    HW226160   4.771   7.853  12.675
74755SOL     OW26161   2.485  12.195   6.171
74755SOL    HW126162   2.462  12.267   6.229
74755SOL    HW226163   2.405  12.143   6.165
74756SOL     OW26164   1.277  13.247   1.076
74756SOL    HW126165   1.190  13.246   1.035
74756SOL    HW226166   1.297  13.155   1.093
74757SOL     OW26167  12.300  10.483   8.847
74757SOL    HW126168  12.213  10.445   8.839
74757SOL    HW226169  12.292  10.545   8.919
74758SOL     OW26170  14.652  10.555   4.571
74758SOL    HW126171  14.647  10.467   4.534
74758SOL    HW226172  14.668  10.612   4.496
74759SOL     OW26173   5.150   9.165   9.626
74759SOL    HW126174   5.074   9.137   9.677
74759SOL    HW226175   5.149   9.260   9.633
74760SOL     OW26176   3.982   0.909   9.522
74760SOL    HW126177   3.978   1.004   9.530
74760SOL    HW226178   3.894   0.879   9.545
74761SOL     OW26179   9.249   2.384  10.861
74761SOL    HW126180   9.244   2.393  10.766
74761SOL    HW226181   9.233   2.291  10.877
74762SOL     OW26182   1.922  11.690  12.651
74762SOL    HW126183   1.869  11.723  12.579
74762SOL    HW226184   1.975  11.764  12.678
74763SOL     OW26185  11.880   7.982  13.902
74763SOL    HW126186  11.851   7.934  13.980
74763SOL    HW226187  11.900   8.070  13.934
74764SOL     OW26188  13.338   6.895   4.202
74764SOL    HW126189  13.275   6.937   4.143
74764SOL    HW226190  13.359   6.812   4.160
74765SOL     OW26191   3.816   3.316   8.303
74765SOL    HW126192   3.804   3.296   8.210
74765SOL    HW226193   3.832   3.411   8.305
74766SOL     OW26194   9.150  13.838   1.049
74766SOL    HW126195   9.155  13.933   1.064
74766SOL    HW226196   9.242  13.811   1.040
74767SOL     OW26197   0.935  11.082   9.436
74767SOL    HW126198   0.853  11.053   9.476
74767SOL    HW226199   0.915  11.169   9.401
74768SOL     OW26200  10.583   2.093   1.037
74768SOL    HW126201  10.526   2.158   0.995
74768SOL    HW226202  10.534   2.062   1.112
74769SOL     OW26203   7.725  10.265  10.057
74769SOL    HW126204   7.683  10.244  10.141
74769SOL    HW226205   7.739  10.360  10.060
74770SOL     OW26206  10.136   3.711  12.469
74770SOL    HW126207  10.188   3.631  12.479
74770SOL    HW226208  10.121   3.718  12.375
74771SOL     OW26209   5.184  13.647  11.987
74771SOL    HW126210   5.186  13.737  11.952
74771SOL    HW226211   5.205  13.657  12.080
74772SOL     OW26212   7.658  11.460   7.691
74772SOL    HW126213   7.594  11.458   7.620
74772SOL    HW226214   7.613  11.506   7.762
74773SOL     OW26215  14.754   0.349  13.075
74773SOL    HW126216  14.828   0.288  13.080
74773SOL    HW226217  14.690   0.315  13.138
74774SOL     OW26218  11.186  11.436  11.316
74774SOL    HW126219  11.244  11.363  11.294
74774SOL    HW226220  11.224  11.472  11.397
74775SOL     OW26221   2.647  12.712   7.797
74775SOL    HW126222   2.602  12.777   7.742
74775SOL    HW226223   2.576  12.668   7.843
74776SOL     OW26224  12.365   6.423   0.796
74776SOL    HW126225  12.275   6.395   0.786
74776SOL    HW226226  12.406   6.403   0.712
74777SOL     OW26227  10.613   8.895   1.855
74777SOL    HW126228  10.708   8.885   1.844
74777SOL    HW226229  10.600   8.989   1.868
74778SOL     OW26230  13.788   2.765   1.050
74778SOL    HW126231  13.729   2.690   1.058
74778SOL    HW226232  13.826   2.756   0.962
74779SOL     OW26233   2.403   4.243  10.956
74779SOL    HW126234   2.331   4.242  10.893
74779SOL    HW226235   2.432   4.152  10.961
74780SOL     OW26236   5.690   3.546   1.145
74780SOL    HW126237   5.761   3.504   1.194
74780SOL    HW226238   5.628   3.574   1.212
74781SOL     OW26239   5.474   1.583   5.985
74781SOL    HW126240   5.386   1.616   6.003
74781SOL    HW226241   5.463   1.488   5.980
74782SOL     OW26242  14.807   6.614   5.973
74782SOL    HW126243  14.784   6.647   5.886
74782SOL    HW226244   0.013   6.631   5.981
74783SOL     OW26245   4.655  13.717   9.044
74783SOL    HW126246   4.657  13.689   9.136
74783SOL    HW226247   4.593  13.789   9.042
74784SOL     OW26248   8.748   7.611   2.244
74784SOL    HW126249   8.823   7.664   2.271
74784SOL    HW226250   8.689   7.673   2.201
74785SOL     OW26251   3.574   7.726  11.681
74785SOL    HW126252   3.597   7.675  11.603
74785SOL    HW226253   3.478   7.721  11.685
74786SOL     OW26254   1.700   5.250  13.396
74786SOL    HW126255   1.612   5.267  13.429
74786SOL    HW226256   1.720   5.161  13.425
74787SOL     OW26257   4.496   2.159  13.529
74787SOL    HW126258   4.545   2.218  13.587
74787SOL    HW226259   4.446   2.104  13.589
74788SOL     OW26260  14.089   3.422   0.500
74788SOL    HW126261  14.153   3.426   0.429
74788SOL    HW226262  14.138   3.451   0.577
74789SOL     OW26263  13.952   9.108   2.528
74789SOL    HW126264  14.039   9.091   2.491
74789SOL    HW226265  13.893   9.101   2.453
74790SOL     OW26266   6.630   9.945   8.653
74790SOL    HW126267   6.535   9.956   8.658
74790SOL    HW226268   6.642   9.855   8.621
74791SOL     OW26269   2.857   7.046  10.027
74791SOL    HW126270   2.924   7.025   9.962
74791SOL    HW226271   2.823   6.961  10.055
74792SOL     OW26272  14.039   2.440   7.849
74792SOL    HW126273  14.065   2.364   7.798
74792SOL    HW226274  13.946   2.451   7.831
74793SOL     OW26275   8.026  14.716  12.637
74793SOL    HW126276   8.069  14.719  12.723
74793SOL    HW226277   8.098  14.710  12.575
74794SOL     OW26278   0.662   4.258   8.939
74794SOL    HW126279   0.608   4.325   8.981
74794SOL    HW226280   0.600   4.189   8.915
74795SOL     OW26281   8.774  14.335  10.189
74795SOL    HW126282   8.853  14.303  10.146
74795SOL    HW226283   8.796  14.425  10.215
74796SOL     OW26284   9.597   7.444   4.210
74796SOL    HW126285   9.614   7.435   4.304
74796SOL    HW226286   9.549   7.527   4.203
74797SOL     OW26287   4.614   7.253  14.322
74797SOL    HW126288   4.544   7.242  14.258
74797SOL    HW226289   4.590   7.193  14.393
74798SOL     OW26290   2.544   9.625   6.270
74798SOL    HW126291   2.518   9.590   6.185
74798SOL    HW226292   2.614   9.687   6.250
74799SOL     OW26293   9.625   3.496  11.893
74799SOL    HW126294   9.694   3.559  11.873
74799SOL    HW226295   9.544   3.542  11.870
74800SOL     OW26296   7.293   4.392   4.985
74800SOL    HW126297   7.259   4.471   5.026
74800SOL    HW226298   7.247   4.387   4.901
74801SOL     OW26299   3.386   7.574   9.773
74801SOL    HW126300   3.471   7.555   9.814
74801SOL    HW226301   3.379   7.670   9.775
74802SOL     OW26302   4.209  11.716   9.802
74802SOL    HW126303   4.211  11.670   9.719
74802SOL    HW226304   4.286  11.773   9.800
74803SOL     OW26305  13.739   2.244  13.882
74803SOL    HW126306  13.705   2.317  13.933
74803SOL    HW226307  13.729   2.168  13.939
74804SOL     OW26308  13.522   4.122   0.084
74804SOL    HW126309  13.554   4.192   0.027
74804SOL    HW226310  13.487   4.167   0.160
74805SOL     OW26311  11.676   3.614   9.354
74805SOL    HW126312  11.665   3.519   9.348
74805SOL    HW226313  11.760   3.632   9.314
74806SOL     OW26314  11.479   2.735  12.514
74806SOL    HW126315  11.530   2.681  12.574
74806SOL    HW226316  11.544   2.780  12.461
74807SOL     OW26317   1.291   7.410   3.283
74807SOL    HW126318   1.218   7.352   3.259
74807SOL    HW226319   1.254   7.468   3.350
74808SOL     OW26320  14.182   4.889   1.709
74808SOL    HW126321  14.215   4.802   1.689
74808SOL    HW226322  14.173   4.932   1.623
74809SOL     OW26323   3.939   3.052  14.180
74809SOL    HW126324   3.847   3.046  14.154
74809SOL    HW226325   3.983   3.092  14.105
74810SOL     OW26326   4.520  12.129  14.067
74810SOL    HW126327   4.456  12.191  14.103
74810SOL    HW226328   4.487  12.108  13.980
74811SOL     OW26329  12.964  13.591   5.766
74811SOL    HW126330  13.048  13.632   5.786
74811SOL    HW226331  12.965  13.509   5.815
74812SOL     OW26332   5.237   5.374  10.725
74812SOL    HW126333   5.205   5.463  10.742
74812SOL    HW226334   5.286   5.382  10.643
74813SOL     OW26335   0.984  11.487   2.075
74813SOL    HW126336   0.923  11.414   2.086
74813SOL    HW226337   1.035  11.465   1.997
74814SOL     OW26338  10.148   5.710  14.610
74814SOL    HW126339  10.148   5.764  14.689
74814SOL    HW226340  10.223   5.742  14.559
74815SOL     OW26341   4.851  10.385  13.823
74815SOL    HW126342   4.919  10.448  13.847
74815SOL    HW226343   4.796  10.378  13.901
74816SOL     OW26344   0.703   7.344   0.237
74816SOL    HW126345   0.692   7.432   0.274
74816SOL    HW226346   0.796   7.339   0.216
74817SOL     OW26347  10.586  13.539   9.936
74817SOL    HW126348  10.633  13.510   9.858
74817SOL    HW226349  10.625  13.623   9.959
74818SOL     OW26350   1.220  14.679   9.557
74818SOL    HW126351   1.141  14.728   9.576
74818SOL    HW226352   1.280  14.742   9.517
74819SOL     OW26353   1.143  14.255   1.117
74819SOL    HW126354   1.164  14.162   1.107
74819SOL    HW226355   1.047  14.257   1.123
74820SOL     OW26356   1.616   9.309   2.396
74820SOL    HW126357   1.618   9.404   2.387
74820SOL    HW226358   1.525   9.284   2.381
74821SOL     OW26359  10.814  13.514   1.875
74821SOL    HW126360  10.829  13.449   1.806
74821SOL    HW226361  10.829  13.466   1.956
74822SOL     OW26362   3.811   6.439   6.103
74822SOL    HW126363   3.822   6.481   6.188
74822SOL    HW226364   3.889   6.385   6.093
74823SOL     OW26365   1.728   5.299   0.798
74823SOL    HW126366   1.718   5.260   0.885
74823SOL    HW226367   1.803   5.254   0.760
74824SOL     OW26368  13.117   2.761   2.121
74824SOL    HW126369  13.208   2.748   2.094
74824SOL    HW226370  13.068   2.692   2.075
74825SOL     OW26371   9.608   5.267   3.995
74825SOL    HW126372   9.570   5.353   3.976
74825SOL    HW226373   9.658   5.245   3.917
74826SOL     OW26374  14.317   9.816   0.257
74826SOL    HW126375  14.264   9.894   0.275
74826SOL    HW226376  14.404   9.850   0.236
74827SOL     OW26377   4.266  14.523   6.766
74827SOL    HW126378   4.270  14.612   6.731
74827SOL    HW226379   4.174  14.512   6.791
74828SOL     OW26380   2.362  10.154   8.904
74828SOL    HW126381   2.328  10.108   8.981
74828SOL    HW226382   2.295  10.141   8.837
74829SOL     OW26383   8.514   5.654  13.421
74829SOL    HW126384   8.462   5.574  13.414
74829SOL    HW226385   8.458   5.714  13.470
74830SOL     OW26386   6.209   6.142   0.651
74830SOL    HW126387   6.240   6.093   0.727
74830SOL    HW226388   6.257   6.103   0.577
74831SOL     OW26389   2.453   1.693  12.431
74831SOL    HW126390   2.385   1.654  12.376
74831SOL    HW226391   2.460   1.783  12.400
74832SOL     OW26392   0.957   2.483  11.042
74832SOL    HW126393   0.904   2.489  10.963
74832SOL    HW226394   1.046   2.469  11.009
74833SOL     OW26395   2.438   2.910  12.536
74833SOL    HW126396   2.378   2.864  12.596
74833SOL    HW226397   2.465   2.987  12.584
74834SOL     OW26398  11.886  12.100   4.077
74834SOL    HW126399  11.912  12.008   4.069
74834SOL    HW226400  11.968  12.147   4.085
74835SOL     OW26401   7.037   0.533   9.682
74835SOL    HW126402   7.076   0.600   9.625
74835SOL    HW226403   7.108   0.506   9.740
74836SOL     OW26404  10.436   0.226   0.202
74836SOL    HW126405  10.531   0.240   0.200
74836SOL    HW226406  10.412   0.209   0.111
74837SOL     OW26407  10.962   9.587   3.096
74837SOL    HW126408  11.002   9.586   3.183
74837SOL    HW226409  11.036   9.597   3.036
74838SOL     OW26410  11.516  10.917   0.685
74838SOL    HW126411  11.422  10.907   0.668
74838SOL    HW226412  11.549  10.827   0.694
74839SOL     OW26413  14.554   7.842  11.843
74839SOL    HW126414  14.557   7.804  11.931
74839SOL    HW226415  14.462   7.867  11.832
74840SOL     OW26416   3.530  14.800   8.641
74840SOL    HW126417   3.489  14.860   8.578
74840SOL    HW226418   3.466  14.731   8.654
74841SOL     OW26419  13.697   4.043   6.574
74841SOL    HW126420  13.664   4.112   6.631
74841SOL    HW226421  13.717   4.086   6.491
74842SOL     OW26422   1.470   6.920  10.571
74842SOL    HW126423   1.456   6.933  10.477
74842SOL    HW226424   1.464   6.825  10.584
74843SOL     OW26425  14.347  14.391   4.125
74843SOL    HW126426  14.324  14.324   4.060
74843SOL    HW226427  14.273  14.390   4.186
74844SOL     OW26428  13.484   0.709   2.614
74844SOL    HW126429  13.389   0.716   2.620
74844SOL    HW226430  13.508   0.644   2.680
74845SOL     OW26431   8.636   7.273  12.381
74845SOL    HW126432   8.696   7.233  12.444
74845SOL    HW226433   8.605   7.200  12.328
74846SOL     OW26434   0.911   0.370   9.311
74846SOL    HW126435   0.934   0.388   9.220
74846SOL    HW226436   0.867   0.450   9.341
74847SOL     OW26437   0.901  12.565  13.044
74847SOL    HW126438   0.858  12.650  13.036
74847SOL    HW226439   0.867  12.514  12.970
74848SOL     OW26440   6.365   2.900   6.038
74848SOL    HW126441   6.408   2.981   6.011
74848SOL    HW226442   6.349   2.852   5.957
74849SOL     OW26443   9.516   7.345  14.120
74849SOL    HW126444   9.479   7.256  14.115
74849SOL    HW226445   9.440   7.402  14.123
74850SOL     OW26446  10.686   9.781   9.751
74850SOL    HW126447  10.741   9.751   9.824
74850SOL    HW226448  10.744   9.838   9.700
74851SOL     OW26449   3.408   7.101   1.929
74851SOL    HW126450   3.393   7.184   1.884
74851SOL    HW226451   3.424   7.038   1.859
74852SOL     OW26452   7.427  12.155   0.718
74852SOL    HW126453   7.441  12.061   0.709
74852SOL    HW226454   7.343  12.171   0.675
74853SOL     OW26455  10.413  13.645  11.548
74853SOL    HW126456  10.390  13.704  11.476
74853SOL    HW226457  10.369  13.563  11.527
74854SOL     OW26458   6.017  14.756   1.725
74854SOL    HW126459   6.071  14.687   1.687
74854SOL    HW226460   6.039  14.835   1.675
74855SOL     OW26461   5.648   7.158   9.449
74855SOL    HW126462   5.572   7.166   9.392
74855SOL    HW226463   5.637   7.074   9.492
74856SOL     OW26464   3.103   3.063   8.115
74856SOL    HW126465   3.159   2.986   8.125
74856SOL    HW226466   3.116   3.090   8.024
74857SOL     OW26467   7.659   1.112   5.895
74857SOL    HW126468   7.601   1.053   5.846
74857SOL    HW226469   7.654   1.080   5.985
74858SOL     OW26470   0.806   6.673  11.999
74858SOL    HW126471   0.717   6.706  11.987
74858SOL    HW226472   0.851   6.698  11.919
74859SOL     OW26473  11.216   9.279   8.555
74859SOL    HW126474  11.279   9.351   8.554
74859SOL    HW226475  11.243   9.223   8.482
74860SOL     OW26476   5.531  14.682   1.392
74860SOL    HW126477   5.498  14.731   1.467
74860SOL    HW226478   5.569  14.749   1.335
74861SOL     OW26479  13.357   4.474   3.064
74861SOL    HW126480  13.264   4.488   3.047
74861SOL    HW226481  13.388   4.424   2.989
74862SOL     OW26482   5.561   9.181  11.223
74862SOL    HW126483   5.544   9.248  11.157
74862SOL    HW226484   5.475   9.146  11.245
74863SOL     OW26485  13.962   8.901   5.795
74863SOL    HW126486  14.044   8.855   5.811
74863SOL    HW226487  13.959   8.911   5.699
74864SOL     OW26488   6.316  14.331   8.887
74864SOL    HW126489   6.224  14.313   8.868
74864SOL    HW226490   6.315  14.366   8.977
74865SOL     OW26491   4.588   1.275   8.789
74865SOL    HW126492   4.569   1.185   8.759
74865SOL    HW226493   4.554   1.278   8.878
74866SOL     OW26494   3.275   2.293   4.228
74866SOL    HW126495   3.285   2.250   4.143
74866SOL    HW226496   3.215   2.236   4.276
74867SOL     OW26497   6.992   0.283  11.809
74867SOL    HW126498   6.910   0.258  11.852
74867SOL    HW226499   7.031   0.199  11.783
74868SOL     OW26500   6.461   2.123   6.311
74868SOL    HW126501   6.402   2.115   6.385
74868SOL    HW226502   6.477   2.034   6.282
74869SOL     OW26503   6.732   2.103  14.682
74869SOL    HW126504   6.814   2.060  14.657
74869SOL    HW226505   6.671   2.084  14.610
74870SOL     OW26506   5.562   0.746   6.294
74870SOL    HW126507   5.603   0.683   6.353
74870SOL    HW226508   5.471   0.717   6.287
74871SOL     OW26509   3.397  11.465   3.641
74871SOL    HW126510   3.461  11.524   3.679
74871SOL    HW226511   3.370  11.409   3.714
74872SOL     OW26512  10.484   1.937   7.036
74872SOL    HW126513  10.438   1.967   6.958
74872SOL    HW226514  10.541   1.867   7.004
74873SOL     OW26515   9.220  13.127  12.752
74873SOL    HW126516   9.208  13.208  12.703
74873SOL    HW226517   9.170  13.141  12.833
74874SOL     OW26518   6.551   1.380   2.008
74874SOL    HW126519   6.619   1.399   1.943
74874SOL    HW226520   6.531   1.464   2.048
74875SOL     OW26521   2.940   0.324   7.252
74875SOL    HW126522   2.982   0.398   7.297
74875SOL    HW226523   2.858   0.361   7.219
74876SOL     OW26524  13.432   4.873  14.333
74876SOL    HW126525  13.378   4.920  14.397
74876SOL    HW226526  13.521   4.883  14.366
74877SOL     OW26527  12.580   2.052   8.467
74877SOL    HW126528  12.673   2.057   8.443
74877SOL    HW226529  12.565   1.960   8.486
74878SOL     OW26530  10.318   8.939   4.043
74878SOL    HW126531  10.242   8.995   4.056
74878SOL    HW226532  10.376   8.959   4.117
74879SOL     OW26533   8.034   2.496   3.321
74879SOL    HW126534   8.022   2.578   3.369
74879SOL    HW226535   8.012   2.428   3.384
74880SOL     OW26536   8.035   0.251   4.245
74880SOL    HW126537   7.980   0.217   4.175
74880SOL    HW226538   8.044   0.178   4.307
74881SOL     OW26539   8.725   9.270  12.047
74881SOL    HW126540   8.741   9.364  12.050
74881SOL    HW226541   8.799   9.232  12.094
74882SOL     OW26542  13.949  14.619  14.824
74882SOL    HW126543  13.868  14.613  14.774
74882SOL    HW226544  14.018  14.617  14.757
74883SOL     OW26545   0.113  12.916   3.054
74883SOL    HW126546   0.173  12.976   3.009
74883SOL    HW226547   0.118  12.836   3.003
74884SOL     OW26548   2.348   5.892   4.108
74884SOL    HW126549   2.354   5.919   4.016
74884SOL    HW226550   2.397   5.810   4.112
74885SOL     OW26551  13.465  10.762   4.619
74885SOL    HW126552  13.542  10.769   4.675
74885SOL    HW226553  13.392  10.789   4.675
74886SOL     OW26554   1.225   8.551   0.834
74886SOL    HW126555   1.228   8.582   0.744
74886SOL    HW226556   1.310   8.510   0.848
74887SOL     OW26557   4.454  10.742   8.700
74887SOL    HW126558   4.499  10.802   8.759
74887SOL    HW226559   4.420  10.799   8.630
74888SOL     OW26560  12.506  14.073  13.470
74888SOL    HW126561  12.445  14.089  13.542
74888SOL    HW226562  12.508  13.978  13.461
74889SOL     OW26563   1.372   9.142   7.611
74889SOL    HW126564   1.398   9.055   7.582
74889SOL    HW226565   1.315   9.175   7.541
74890SOL     OW26566   0.238   4.828   1.391
74890SOL    HW126567   0.228   4.922   1.377
74890SOL    HW226568   0.315   4.804   1.339
74891SOL     OW26569   6.870   9.219  10.084
74891SOL    HW126570   6.903   9.309  10.078
74891SOL    HW226571   6.881   9.184   9.996
74892SOL     OW26572   7.295   6.124  10.730
74892SOL    HW126573   7.309   6.032  10.755
74892SOL    HW226574   7.214   6.122  10.678
74893SOL     OW26575   3.712  10.575  14.448
74893SOL    HW126576   3.773  10.517  14.494
74893SOL    HW226577   3.768  10.633  14.398
74894SOL     OW26578  11.924   4.822   1.435
74894SOL    HW126579  11.886   4.772   1.362
74894SOL    HW226580  11.981   4.760   1.480
74895SOL     OW26581   0.164   7.064  10.778
74895SOL    HW126582   0.121   7.146  10.755
74895SOL    HW226583   0.092   7.003  10.792
74896SOL     OW26584   6.147   4.761   0.656
74896SOL    HW126585   6.116   4.723   0.573
74896SOL    HW226586   6.125   4.696   0.722
74897SOL     OW26587  12.269  14.741   6.798
74897SOL    HW126588  12.315  14.771   6.877
74897SOL    HW226589  12.177  14.746   6.821
74898SOL     OW26590  13.705  11.480  10.443
74898SOL    HW126591  13.680  11.390  10.423
74898SOL    HW226592  13.739  11.477  10.532
74899SOL     OW26593   9.746  13.153  12.211
74899SOL    HW126594   9.723  13.086  12.276
74899SOL    HW226595   9.761  13.232  12.263
74900SOL     OW26596   6.970   5.124   5.498
74900SOL    HW126597   6.906   5.116   5.569
74900SOL    HW226598   6.950   5.207   5.455
74901SOL     OW26599   0.229  13.381  13.542
74901SOL    HW126600   0.298  13.432  13.500
74901SOL    HW226601   0.265  13.358  13.628
74902SOL     OW26602   1.940   2.073   9.714
74902SOL    HW126603   1.849   2.089   9.740
74902SOL    HW226604   1.989   2.074   9.796
74903SOL     OW26605   6.008  12.943  12.314
74903SOL    HW126606   5.986  12.945  12.407
74903SOL    HW226607   6.080  12.880  12.308
74904SOL     OW26608   9.321  14.008   4.647
74904SOL    HW126609   9.327  14.093   4.692
74904SOL    HW226610   9.240  14.013   4.597
74905SOL     OW26611   7.066   3.143   2.450
74905SOL    HW126612   7.053   3.048   2.454
74905SOL    HW226613   7.123   3.156   2.374
74906SOL     OW26614   3.830  13.751   6.455
74906SOL    HW126615   3.810  13.659   6.438
74906SOL    HW226616   3.791  13.798   6.382
74907SOL     OW26617   3.331  13.268   9.369
74907SOL    HW126618   3.331  13.262   9.464
74907SOL    HW226619   3.321  13.178   9.338
74908SOL     OW26620   8.691   8.969  11.109
74908SOL    HW126621   8.680   8.874  11.108
74908SOL    HW226622   8.743   8.986  11.188
74909SOL     OW26623   5.238  12.623   3.184
74909SOL    HW126624   5.282  12.698   3.145
74909SOL    HW226625   5.300  12.591   3.250
74910SOL     OW26626   5.375  13.641  14.481
74910SOL    HW126627   5.285  13.635  14.450
74910SOL    HW226628   5.409  13.721  14.439
74911SOL     OW26629   2.023   3.645   0.406
74911SOL    HW126630   2.001   3.554   0.424
74911SOL    HW226631   1.977   3.694   0.475
74912SOL     OW26632  11.297   2.830   8.846
74912SOL    HW126633  11.385   2.820   8.808
74912SOL    HW226634  11.251   2.887   8.784
74913SOL     OW26635   9.911   8.948  14.699
74913SOL    HW126636   9.853   8.954  14.623
74913SOL    HW226637   9.925   8.854  14.711
74914SOL     OW26638  11.422   8.787  13.220
74914SOL    HW126639  11.334   8.825  13.217
74914SOL    HW226640  11.408   8.696  13.248
74915SOL     OW26641   7.720  12.456   7.536
74915SOL    HW126642   7.716  12.375   7.589
74915SOL    HW226643   7.647  12.449   7.475
74916SOL     OW26644   3.701   4.040  12.345
74916SOL    HW126645   3.752   3.959  12.348
74916SOL    HW226646   3.620   4.016  12.300
74917SOL     OW26647   9.494  12.769   2.712
74917SOL    HW126648   9.460  12.708   2.647
74917SOL    HW226649   9.504  12.716   2.791
74918SOL     OW26650   2.519  10.777   6.491
74918SOL    HW126651   2.447  10.727   6.529
74918SOL    HW226652   2.595  10.720   6.497
74919SOL     OW26653   7.051  10.884   4.395
74919SOL    HW126654   7.141  10.917   4.395
74919SOL    HW226655   7.059  10.795   4.362
74920SOL     OW26656   5.386   1.645   0.346
74920SOL    HW126657   5.316   1.685   0.295
74920SOL    HW226658   5.462   1.701   0.330
74921SOL     OW26659  14.448   9.050   4.619
74921SOL    HW126660  14.466   8.960   4.645
74921SOL    HW226661  14.458   9.101   4.699
74922SOL     OW26662  14.537   7.737  12.097
74922SOL    HW126663  14.478   7.666  12.124
74922SOL    HW226664  14.620   7.716  12.140
74923SOL     OW26665  11.394  13.831   7.138
74923SOL    HW126666  11.428  13.836   7.048
74923SOL    HW226667  11.346  13.748   7.141
74924SOL     OW26668  12.190   2.287  10.797
74924SOL    HW126669  12.099   2.294  10.767
74924SOL    HW226670  12.242   2.296  10.717
74925SOL     OW26671   0.942   2.145   1.974
74925SOL    HW126672   0.871   2.129   2.036
74925SOL    HW226673   1.016   2.171   2.028
74926SOL     OW26674   4.989   0.683   4.193
74926SOL    HW126675   4.986   0.761   4.137
74926SOL    HW226676   4.987   0.609   4.132
74927SOL     OW26677  10.304   0.625   4.503
74927SOL    HW126678  10.219   0.597   4.470
74927SOL    HW226679  10.294   0.624   4.598
74928SOL     OW26680   3.459   8.838   3.221
74928SOL    HW126681   3.429   8.847   3.311
74928SOL    HW226682   3.379   8.828   3.169
74929SOL     OW26683   6.718  12.175  10.937
74929SOL    HW126684   6.665  12.131  11.003
74929SOL    HW226685   6.753  12.252  10.981
74930SOL     OW26686   6.435   6.433   0.870
74930SOL    HW126687   6.372   6.477   0.813
74930SOL    HW226688   6.517   6.433   0.820
74931SOL     OW26689   6.771   7.093   1.449
74931SOL    HW126690   6.750   7.085   1.542
74931SOL    HW226691   6.820   7.175   1.443
74932SOL     OW26692  10.975   6.137   3.033
74932SOL    HW126693  10.896   6.168   2.988
74932SOL    HW226694  10.956   6.046   3.054
74933SOL     OW26695   5.650   4.508   5.473
74933SOL    HW126696   5.600   4.561   5.411
74933SOL    HW226697   5.583   4.468   5.529
74934SOL     OW26698  14.749   4.579   7.630
74934SOL    HW126699  14.785   4.494   7.654
74934SOL    HW226700  14.678   4.559   7.569
74935SOL     OW26701   6.867   2.870   6.529
74935SOL    HW126702   6.786   2.841   6.571
74935SOL    HW226703   6.897   2.793   6.480
74936SOL     OW26704   1.078   9.548   1.570
74936SOL    HW126705   1.027   9.472   1.598
74936SOL    HW226706   1.115   9.583   1.650
74937SOL     OW26707   0.770   5.917   8.098
74937SOL    HW126708   0.810   5.831   8.104
74937SOL    HW226709   0.748   5.940   8.188
74938SOL     OW26710   6.785   1.253  10.736
74938SOL    HW126711   6.705   1.212  10.703
74938SOL    HW226712   6.816   1.194  10.805
74939SOL     OW26713   3.749  14.464  10.632
74939SOL    HW126714   3.668  14.478  10.681
74939SOL    HW226715   3.769  14.550  10.594
74940SOL     OW26716   8.292   8.031   9.823
74940SOL    HW126717   8.221   7.970   9.806
74940SOL    HW226718   8.346   7.989   9.889
74941SOL     OW26719   9.873   5.762   3.694
74941SOL    HW126720   9.835   5.679   3.722
74941SOL    HW226721   9.807   5.827   3.717
74942SOL     OW26722   0.390   7.129  13.145
74942SOL    HW126723   0.432   7.127  13.059
74942SOL    HW226724   0.459   7.162  13.204
74943SOL     OW26725   5.071   7.791   1.632
74943SOL    HW126726   4.999   7.801   1.694
74943SOL    HW226727   5.118   7.874   1.636
74944SOL     OW26728   1.816   4.803   4.189
74944SOL    HW126729   1.894   4.826   4.240
74944SOL    HW226730   1.847   4.800   4.099
74945SOL     OW26731   5.580   6.859   6.869
74945SOL    HW126732   5.578   6.945   6.826
74945SOL    HW226733   5.672   6.845   6.891
74946SOL     OW26734  13.173  14.427   8.505
74946SOL    HW126735  13.218  14.460   8.428
74946SOL    HW226736  13.082  14.417   8.478
74947SOL     OW26737  14.582  10.887   5.608
74947SOL    HW126738  14.491  10.908   5.627
74947SOL    HW226739  14.623  10.875   5.694
74948SOL     OW26740  11.804  10.479   2.005
74948SOL    HW126741  11.879  10.528   2.038
74948SOL    HW226742  11.834  10.388   2.003
74949SOL     OW26743   6.716   8.861   2.250
74949SOL    HW126744   6.639   8.848   2.305
74949SOL    HW226745   6.737   8.954   2.260
74950SOL     OW26746   0.457  10.069   7.383
74950SOL    HW126747   0.390  10.071   7.314
74950SOL    HW226748   0.416  10.019   7.454
74951SOL     OW26749  10.391   8.650  11.700
74951SOL    HW126750  10.441   8.718  11.656
74951SOL    HW226751  10.383   8.580  11.635
74952SOL     OW26752   6.533  12.757   8.208
74952SOL    HW126753   6.458  12.706   8.179
74952SOL    HW226754   6.542  12.826   8.141
74953SOL     OW26755   9.041   0.097   6.122
74953SOL    HW126756   9.036   0.158   6.048
74953SOL    HW226757   9.068   0.014   6.083
74954SOL     OW26758   3.541   5.222  12.389
74954SOL    HW126759   3.522   5.243  12.298
74954SOL    HW226760   3.629   5.256  12.403
74955SOL     OW26761   6.586  13.258  11.006
74955SOL    HW126762   6.538  13.180  10.978
74955SOL    HW226763   6.553  13.276  11.094
74956SOL     OW26764   3.874   7.703  11.760
74956SOL    HW126765   3.862   7.690  11.666
74956SOL    HW226766   3.800   7.657  11.800
74957SOL     OW26767  13.068   6.611  12.712
74957SOL    HW126768  12.983   6.567  12.708
74957SOL    HW226769  13.118   6.559  12.775
74958SOL     OW26770   8.237   6.416   2.748
74958SOL    HW126771   8.217   6.497   2.701
74958SOL    HW226772   8.270   6.446   2.833
74959SOL     OW26773   5.488  14.035   3.566
74959SOL    HW126774   5.480  14.123   3.529
74959SOL    HW226775   5.432  14.036   3.643
74960SOL     OW26776   3.354   8.771  13.696
74960SOL    HW126777   3.432   8.813  13.733
74960SOL    HW226778   3.287   8.782  13.764
74961SOL     OW26779  12.744   4.982   3.517
74961SOL    HW126780  12.753   4.886   3.518
74961SOL    HW226781  12.662   4.998   3.469
74962SOL     OW26782   2.961   1.435   5.775
74962SOL    HW126783   2.938   1.526   5.758
74962SOL    HW226784   3.035   1.418   5.716
74963SOL     OW26785   1.207   2.720   2.923
74963SOL    HW126786   1.230   2.813   2.924
74963SOL    HW226787   1.115   2.718   2.898
74964SOL     OW26788  13.412   5.409   0.874
74964SOL    HW126789  13.334   5.354   0.876
74964SOL    HW226790  13.384   5.493   0.910
74965SOL     OW26791  10.311   0.606   3.284
74965SOL    HW126792  10.286   0.673   3.347
74965SOL    HW226793  10.372   0.651   3.225
74966SOL     OW26794  10.132  11.027   8.689
74966SOL    HW126795  10.119  10.974   8.610
74966SOL    HW226796  10.086  11.109   8.670
74967SOL     OW26797   6.813  14.337  12.849
74967SOL    HW126798   6.794  14.294  12.933
74967SOL    HW226799   6.908  14.347  12.848
74968SOL     OW26800  14.647   3.197   3.540
74968SOL    HW126801  14.552   3.205   3.537
74968SOL    HW226802  14.675   3.209   3.449
74969SOL     OW26803   5.866   8.992   5.007
74969SOL    HW126804   5.778   9.022   4.983
74969SOL    HW226805   5.892   9.052   5.077
74970SOL     OW26806  14.196   2.523   0.198
74970SOL    HW126807  14.240   2.526   0.283
74970SOL    HW226808  14.145   2.604   0.194
74971SOL     OW26809   6.766  10.557  10.075
74971SOL    HW126810   6.829  10.627  10.094
74971SOL    HW226811   6.684  10.590  10.110
74972SOL     OW26812   3.779   9.592   9.347
74972SOL    HW126813   3.755   9.499   9.345
74972SOL    HW226814   3.754   9.621   9.434
74973SOL     OW26815   9.958  14.559  11.662
74973SOL    HW126816   9.911  14.476  11.662
74973SOL    HW226817   9.890  14.626  11.658
74974SOL     OW26818   9.643   3.676  10.470
74974SOL    HW126819   9.665   3.613  10.538
74974SOL    HW226820   9.587   3.740  10.514
74975SOL     OW26821   9.374   3.212  13.120
74975SOL    HW126822   9.420   3.296  13.113
74975SOL    HW226823   9.382   3.188  13.212
74976SOL     OW26824  12.955   7.747   4.713
74976SOL    HW126825  13.018   7.694   4.665
74976SOL    HW226826  12.908   7.685   4.768
74977SOL     OW26827  10.226  11.329   8.114
74977SOL    HW126828  10.207  11.370   8.030
74977SOL    HW226829  10.313  11.361   8.137
74978SOL     OW26830   2.348   9.552   4.508
74978SOL    HW126831   2.269   9.506   4.478
74978SOL    HW226832   2.399   9.485   4.552
74979SOL     OW26833  11.539   6.320   5.431
74979SOL    HW126834  11.572   6.254   5.370
74979SOL    HW226835  11.615   6.377   5.447
74980SOL     OW26836   5.746   3.602   2.304
74980SOL    HW126837   5.671   3.660   2.315
74980SOL    HW226838   5.724   3.549   2.228
74981SOL     OW26839  13.558  11.520   8.918
74981SOL    HW126840  13.501  11.481   8.985
74981SOL    HW226841  13.637  11.467   8.921
74982SOL     OW26842  11.073   8.583   6.829
74982SOL    HW126843  11.138   8.538   6.775
74982SOL    HW226844  11.013   8.514   6.856
74983SOL     OW26845   4.397  13.781   9.856
74983SOL    HW126846   4.352  13.864   9.862
74983SOL    HW226847   4.414  13.756   9.947
74984SOL     OW26848   3.661   7.505   6.053
74984SOL    HW126849   3.717   7.535   6.124
74984SOL    HW226850   3.572   7.518   6.085
74985SOL     OW26851   4.699   5.296   7.967
74985SOL    HW126852   4.700   5.337   8.053
74985SOL    HW226853   4.784   5.254   7.959
74986SOL     OW26854   1.063   9.788   8.410
74986SOL    HW126855   1.088   9.850   8.342
74986SOL    HW226856   0.998   9.833   8.462
74987SOL     OW26857   4.385   2.112   3.379
74987SOL    HW126858   4.346   2.191   3.416
74987SOL    HW226859   4.441   2.145   3.308
74988SOL     OW26860  13.811   6.874   8.840
74988SOL    HW126861  13.899   6.884   8.804
74988SOL    HW226862  13.795   6.955   8.887
74989SOL     OW26863  10.893   6.416   2.318
74989SOL    HW126864  10.978   6.457   2.331
74989SOL    HW226865  10.843   6.479   2.266
74990SOL     OW26866   7.728   2.367   3.766
74990SOL    HW126867   7.700   2.437   3.706
74990SOL    HW226868   7.731   2.289   3.711
74991SOL     OW26869   2.010  11.519  10.442
74991SOL    HW126870   1.938  11.475  10.487
74991SOL    HW226871   2.088  11.491  10.489
74992SOL     OW26872  10.778   4.132   2.757
74992SOL    HW126873  10.776   4.036   2.755
74992SOL    HW226874  10.863   4.155   2.718
74993SOL     OW26875   7.551   3.110   8.068
74993SOL    HW126876   7.487   3.079   8.004
74993SOL    HW226877   7.591   3.030   8.103
74994SOL     OW26878  14.125  13.046  13.457
74994SOL    HW126879  14.120  13.127  13.509
74994SOL    HW226880  14.035  13.033  13.426
74995SOL     OW26881   5.703   1.666  13.970
74995SOL    HW126882   5.677   1.720  13.896
74995SOL    HW226883   5.795   1.688  13.984
74996SOL     OW26884   8.147   0.157   9.214
74996SOL    HW126885   8.064   0.191   9.249
74996SOL    HW226886   8.170   0.218   9.144
74997SOL     OW26887   7.890   8.466   9.959
74997SOL    HW126888   7.825   8.505   9.901
74997SOL    HW226889   7.840   8.434  10.034
74998SOL     OW26890   4.760   7.212  11.343
74998SOL    HW126891   4.666   7.197  11.337
74998SOL    HW226892   4.775   7.290  11.290
74999SOL     OW26893   4.929  13.376  12.292
74999SOL    HW126894   4.964  13.423  12.368
74999SOL    HW226895   4.846  13.339  12.322
75000SOL     OW26896   7.127   1.298   6.703
75000SOL    HW126897   7.175   1.218   6.684
75000SOL    HW226898   7.164   1.364   6.643
75001SOL     OW26899   6.702   7.905   8.250
75001SOL    HW126900   6.618   7.951   8.240
75001SOL    HW226901   6.719   7.867   8.164
75002SOL     OW26902   2.894   5.515   2.446
75002SOL    HW126903   2.936   5.554   2.369
75002SOL    HW226904   2.922   5.570   2.519
75003SOL     OW26905  13.107   1.873   6.045
75003SOL    HW126906  13.094   1.898   5.954
75003SOL    HW226907  13.060   1.791   6.055
75004SOL     OW26908   3.561   3.372  12.960
75004SOL    HW126909   3.561   3.293  13.014
75004SOL    HW226910   3.613   3.436  13.010
75005SOL     OW26911   0.668   2.067   1.388
75005SOL    HW126912   0.605   2.130   1.355
75005SOL    HW226913   0.630   2.035   1.470
75006SOL     OW26914  13.100  14.080   4.224
75006SOL    HW126915  13.051  14.056   4.303
75006SOL    HW226916  13.149  14.001   4.201
75007SOL     OW26917   0.563  11.143   2.195
75007SOL    HW126918   0.512  11.168   2.118
75007SOL    HW226919   0.502  11.156   2.268
75008SOL     OW26920   7.421   1.577   9.136
75008SOL    HW126921   7.405   1.663   9.177
75008SOL    HW226922   7.402   1.591   9.043
75009SOL     OW26923   5.470   1.896   3.640
75009SOL    HW126924   5.380   1.887   3.671
75009SOL    HW226925   5.505   1.970   3.690
75010SOL     OW26926  11.015   0.481   1.077
75010SOL    HW126927  11.007   0.418   1.149
75010SOL    HW226928  11.013   0.427   0.998
75011SOL     OW26929   2.569  12.706  12.706
75011SOL    HW126930   2.502  12.765  12.740
75011SOL    HW226931   2.646  12.722  12.760
75012SOL     OW26932  11.977   2.204   8.463
75012SOL    HW126933  12.021   2.119   8.469
75012SOL    HW226934  11.884   2.183   8.459
75013SOL     OW26935   9.404  14.519  14.153
75013SOL    HW126936   9.464  14.473  14.095
75013SOL    HW226937   9.408  14.472  14.236
75014SOL     OW26938  10.721   9.009  10.723
75014SOL    HW126939  10.809   8.978  10.745
75014SOL    HW226940  10.668   8.930  10.720
75015SOL     OW26941   7.848   5.511   1.928
75015SOL    HW126942   7.850   5.467   2.013
75015SOL    HW226943   7.906   5.458   1.873
75016SOL     OW26944  14.575   4.297   7.995
75016SOL    HW126945  14.603   4.211   8.028
75016SOL    HW226946  14.541   4.280   7.908
75017SOL     OW26947  14.341  12.247   5.787
75017SOL    HW126948  14.279  12.296   5.839
75017SOL    HW226949  14.322  12.155   5.807
75018SOL     OW26950   2.719   2.635   1.786
75018SOL    HW126951   2.627   2.616   1.805
75018SOL    HW226952   2.732   2.605   1.696
75019SOL     OW26953   5.972   2.237  10.629
75019SOL    HW126954   6.056   2.190  10.635
75019SOL    HW226955   5.916   2.194  10.693
75020SOL     OW26956  10.793   8.375   9.433
75020SOL    HW126957  10.760   8.417   9.512
75020SOL    HW226958  10.792   8.444   9.367
75021SOL     OW26959   9.206  10.692  10.207
75021SOL    HW126960   9.224  10.658  10.119
75021SOL    HW226961   9.113  10.674  10.221
75022SOL     OW26962   8.629   2.372   5.798
75022SOL    HW126963   8.718   2.404   5.784
75022SOL    HW226964   8.595   2.426   5.869
75023SOL     OW26965  11.990   3.240   2.263
75023SOL    HW126966  12.011   3.218   2.172
75023SOL    HW226967  11.928   3.312   2.256
75024SOL     OW26968   3.012   9.504   7.683
75024SOL    HW126969   2.925   9.522   7.645
75024SOL    HW226970   3.073   9.526   7.613
75025SOL     OW26971   4.508  11.524  10.239
75025SOL    HW126972   4.428  11.474  10.255
75025SOL    HW226973   4.484  11.588  10.173
75026SOL     OW26974   8.917   5.638   9.517
75026SOL    HW126975   8.894   5.627   9.425
75026SOL    HW226976   8.963   5.722   9.521
75027SOL     OW26977  10.779  12.238   3.374
75027SOL    HW126978  10.835  12.197   3.440
75027SOL    HW226979  10.833  12.308   3.337
75028SOL     OW26980  13.363  10.281  10.463
75028SOL    HW126981  13.452  10.266  10.495
75028SOL    HW226982  13.345  10.209  10.403
75029SOL     OW26983  12.051   5.230  12.264
75029SOL    HW126984  12.002   5.296  12.215
75029SOL    HW226985  11.985   5.181  12.312
75030SOL     OW26986   3.947  13.616  14.361
75030SOL    HW126987   3.920  13.551  14.297
75030SOL    HW226988   3.864  13.647  14.399
75031SOL     OW26989  14.835   1.215   8.890
75031SOL    HW126990  14.841   1.214   8.794
75031SOL    HW226991  14.782   1.138   8.911
75032SOL     OW26992   0.087  10.293  13.650
75032SOL    HW126993   0.093  10.238  13.729
75032SOL    HW226994  14.887  10.330  13.653
75033SOL     OW26995   7.959   2.340   2.663
75033SOL    HW126996   7.921   2.298   2.740
75033SOL    HW226997   7.919   2.296   2.589
75034SOL     OW26998  10.244   2.135   5.259
75034SOL    HW126999  10.252   2.224   5.295
75034SOL    HW227000  10.293   2.138   5.178
75035SOL     OW27001  13.362   8.631  10.555
75035SOL    HW127002  13.450   8.595  10.545
75035SOL    HW227003  13.364   8.676  10.640
75036SOL     OW27004  10.534   7.581   5.142
75036SOL    HW127005  10.521   7.492   5.173
75036SOL    HW227006  10.609   7.576   5.082
75037SOL     OW27007   7.989   9.347  10.843
75037SOL    HW127008   8.021   9.423  10.892
75037SOL    HW227009   7.901   9.372  10.815
75038SOL     OW27010   7.028   9.409   6.389
75038SOL    HW127011   7.013   9.501   6.410
75038SOL    HW227012   7.000   9.362   6.468
75039SOL     OW27013   6.135   8.823  11.095
75039SOL    HW127014   6.169   8.876  11.022
75039SOL    HW227015   6.158   8.873  11.173
75040SOL     OW27016   1.668   2.578  13.475
75040SOL    HW127017   1.667   2.482  13.486
75040SOL    HW227018   1.760   2.601  13.473
75041SOL     OW27019  10.337   5.098   1.750
75041SOL    HW127020  10.262   5.135   1.796
75041SOL    HW227021  10.391   5.060   1.820
75042SOL     OW27022  12.716   3.505  10.734
75042SOL    HW127023  12.632   3.551  10.732
75042SOL    HW227024  12.781   3.574  10.748
75043SOL     OW27025   7.189   8.063   3.554
75043SOL    HW127026   7.185   8.135   3.491
75043SOL    HW227027   7.097   8.043   3.573
75044SOL     OW27028   8.924   8.286   1.211
75044SOL    HW127029   8.952   8.204   1.171
75044SOL    HW227030   8.836   8.268   1.244
75045SOL     OW27031  14.145  14.721  13.850
75045SOL    HW127032  14.151  14.683  13.762
75045SOL    HW227033  14.120  14.647  13.906
75046SOL     OW27034   2.580   9.939   5.790
75046SOL    HW127035   2.505   9.927   5.848
75046SOL    HW227036   2.619  10.022   5.818
75047SOL     OW27037   2.323   6.016   2.881
75047SOL    HW127038   2.410   6.030   2.920
75047SOL    HW227039   2.330   5.934   2.833
75048SOL     OW27040  11.616  14.769   0.872
75048SOL    HW127041  11.689  14.824   0.899
75048SOL    HW227042  11.602  14.790   0.780
75049SOL     OW27043  14.506  14.581   5.236
75049SOL    HW127044  14.464  14.600   5.320
75049SOL    HW227045  14.596  14.613   5.246
75050SOL     OW27046   6.452   0.978  14.335
75050SOL    HW127047   6.403   0.898  14.313
75050SOL    HW227048   6.539   0.964  14.297
75051SOL     OW27049   2.438  12.334  11.798
75051SOL    HW127050   2.424  12.250  11.841
75051SOL    HW227051   2.468  12.392  11.868
75052SOL     OW27052   1.170  14.425  11.045
75052SOL    HW127053   1.087  14.389  11.074
75052SOL    HW227054   1.174  14.404  10.952
75053SOL     OW27055   5.171  11.673   3.783
75053SOL    HW127056   5.161  11.694   3.876
75053SOL    HW227057   5.129  11.587   3.773
75054SOL     OW27058   7.718  12.297   7.748
75054SOL    HW127059   7.809  12.276   7.771
75054SOL    HW227060   7.678  12.323   7.831
75055SOL     OW27061   5.234   9.624   3.357
75055SOL    HW127062   5.256   9.682   3.430
75055SOL    HW227063   5.142   9.642   3.339
75056SOL     OW27064  14.143   2.367   5.080
75056SOL    HW127065  14.182   2.453   5.065
75056SOL    HW227066  14.050   2.379   5.063
75057SOL     OW27067  14.059   7.527   8.013
75057SOL    HW127068  14.061   7.536   7.917
75057SOL    HW227069  13.973   7.562   8.038
75058SOL     OW27070   6.223   2.960  14.715
75058SOL    HW127071   6.172   2.892  14.671
75058SOL    HW227072   6.282   2.912  14.773
75059SOL     OW27073   2.193   3.289   2.448
75059SOL    HW127074   2.245   3.260   2.523
75059SOL    HW227075   2.256   3.333   2.391
75060SOL     OW27076   6.066  14.866  13.310
75060SOL    HW127077   6.146  14.821  13.338
75060SOL    HW227078   6.005  14.857  13.383
75061SOL     OW27079  12.370   0.509  12.283
75061SOL    HW127080  12.301   0.471  12.228
75061SOL    HW227081  12.420   0.434  12.315
75062SOL     OW27082   7.685   4.770   0.724
75062SOL    HW127083   7.599   4.785   0.684
75062SOL    HW227084   7.739   4.735   0.653
75063SOL     OW27085   0.530  14.232   0.045
75063SOL    HW127086   0.532  14.181  14.852
75063SOL    HW227087   0.596  14.191   0.101
75064SOL     OW27088   3.968   5.136   1.638
75064SOL    HW127089   3.917   5.055   1.644
75064SOL    HW227090   4.047   5.112   1.590
75065SOL     OW27091   1.823   8.228   7.818
75065SOL    HW127092   1.835   8.222   7.723
75065SOL    HW227093   1.864   8.312   7.841
75066SOL     OW27094  10.878  11.132   9.892
75066SOL    HW127095  10.959  11.094   9.926
75066SOL    HW227096  10.820  11.057   9.878
75067SOL     OW27097  11.516  11.904  12.223
75067SOL    HW127098  11.477  11.816  12.227
75067SOL    HW227099  11.586  11.896  12.159
75068SOL     OW27100   0.196   9.351   1.218
75068SOL    HW127101   0.122   9.398   1.181
75068SOL    HW227102   0.156   9.283   1.272
75069SOL     OW27103   9.802   2.025  10.675
75069SOL    HW127104   9.842   2.092  10.619
75069SOL    HW227105   9.765   2.075  10.749
75070SOL     OW27106   6.047  12.206   3.735
75070SOL    HW127107   6.088  12.179   3.817
75070SOL    HW227108   6.070  12.137   3.673
75071SOL     OW27109   8.332   3.470   5.568
75071SOL    HW127110   8.348   3.522   5.490
75071SOL    HW227111   8.237   3.456   5.569
75072SOL     OW27112  11.696   9.833   0.377
75072SOL    HW127113  11.608   9.814   0.343
75072SOL    HW227114  11.755   9.795   0.313
75073SOL     OW27115   1.017  11.960   9.344
75073SOL    HW127116   1.102  12.000   9.326
75073SOL    HW227117   0.990  11.922   9.261
75074SOL     OW27118   6.845  14.393   2.952
75074SOL    HW127119   6.897  14.462   2.911
75074SOL    HW227120   6.756  14.407   2.918
75075SOL     OW27121   4.164  12.049   0.573
75075SOL    HW127122   4.161  12.143   0.592
75075SOL    HW227123   4.164  12.044   0.477
75076SOL     OW27124   2.825  12.323   0.429
75076SOL    HW127125   2.907  12.352   0.390
75076SOL    HW227126   2.826  12.359   0.518
75077SOL     OW27127   7.793  12.207  13.516
75077SOL    HW127128   7.754  12.162  13.591
75077SOL    HW227129   7.745  12.289  13.508
75078SOL     OW27130   6.777  14.237   2.645
75078SOL    HW127131   6.833  14.187   2.705
75078SOL    HW227132   6.715  14.282   2.702
75079SOL     OW27133   9.008   7.802   9.775
75079SOL    HW127134   9.087   7.786   9.724
75079SOL    HW227135   8.957   7.721   9.769
75080SOL     OW27136   2.256   8.862  14.234
75080SOL    HW127137   2.291   8.948  14.213
75080SOL    HW227138   2.289   8.805  14.165
75081SOL     OW27139   4.880   4.317  12.271
75081SOL    HW127140   4.866   4.265  12.350
75081SOL    HW227141   4.813   4.385  12.275
75082SOL     OW27142   0.325   3.446   5.314
75082SOL    HW127143   0.372   3.528   5.328
75082SOL    HW227144   0.235   3.465   5.342
75083SOL     OW27145   4.345   2.295   8.193
75083SOL    HW127146   4.329   2.368   8.253
75083SOL    HW227147   4.373   2.223   8.250
75084SOL     OW27148   1.194   5.675  12.158
75084SOL    HW127149   1.226   5.650  12.072
75084SOL    HW227150   1.137   5.751  12.142
75085SOL     OW27151   4.128  13.027  10.636
75085SOL    HW127152   4.048  13.011  10.686
75085SOL    HW227153   4.146  12.944  10.591
75086SOL     OW27154   2.115   9.600  10.957
75086SOL    HW127155   2.151   9.596  10.868
75086SOL    HW227156   2.022   9.579  10.946
75087SOL     OW27157   4.654  14.127  11.158
75087SOL    HW127158   4.659  14.087  11.071
75087SOL    HW227159   4.721  14.082  11.209
75088SOL     OW27160  10.001   9.211   4.980
75088SOL    HW127161   9.993   9.288   5.037
75088SOL    HW227162   9.925   9.215   4.922
75089SOL     OW27163  13.053   1.714   0.097
75089SOL    HW127164  13.023   1.636   0.144
75089SOL    HW227165  13.051   1.689   0.005
75090SOL     OW27166   2.249   0.662   1.770
75090SOL    HW127167   2.342   0.640   1.764
75090SOL    HW227168   2.245   0.729   1.838
75091SOL     OW27169   1.954   5.004  11.177
75091SOL    HW127170   1.897   4.984  11.102
75091SOL    HW227171   2.008   5.077  11.148
75092SOL     OW27172   5.437   1.564   2.062
75092SOL    HW127173   5.369   1.630   2.074
75092SOL    HW227174   5.392   1.489   2.023
75093SOL     OW27175   4.639   9.685   8.146
75093SOL    HW127176   4.589   9.603   8.153
75093SOL    HW227177   4.583   9.744   8.097
75094SOL     OW27178   6.733   1.714   5.764
75094SOL    HW127179   6.646   1.674   5.754
75094SOL    HW227180   6.737   1.781   5.695
75095SOL     OW27181   0.570   0.711   4.884
75095SOL    HW127182   0.594   0.622   4.856
75095SOL    HW227183   0.506   0.740   4.820
75096SOL     OW27184   3.154   6.422   5.169
75096SOL    HW127185   3.071   6.468   5.157
75096SOL    HW227186   3.192   6.463   5.246
75097SOL     OW27187   1.754  13.787   4.419
75097SOL    HW127188   1.694  13.776   4.493
75097SOL    HW227189   1.804  13.866   4.441
75098SOL     OW27190   8.163   1.926  11.265
75098SOL    HW127191   8.192   2.012  11.236
75098SOL    HW227192   8.179   1.869  11.189
75099SOL     OW27193  13.663  10.321   9.774
75099SOL    HW127194  13.643  10.406   9.736
75099SOL    HW227195  13.759  10.314   9.768
75100SOL     OW27196   8.608   0.900  13.564
75100SOL    HW127197   8.540   0.956  13.601
75100SOL    HW227198   8.634   0.843  13.636
75101SOL     OW27199   7.374   6.049  13.033
75101SOL    HW127200   7.445   5.997  12.994
75101SOL    HW227201   7.392   6.138  13.004
75102SOL     OW27202  11.541   0.077   0.662
75102SOL    HW127203  11.476   0.143   0.639
75102SOL    HW227204  11.603   0.124   0.717
75103SOL     OW27205  12.388   7.576   0.232
75103SOL    HW127206  12.303   7.533   0.227
75103SOL    HW227207  12.401   7.590   0.326
75104SOL     OW27208   3.932   8.105   0.572
75104SOL    HW127209   3.840   8.132   0.578
75104SOL    HW227210   3.971   8.165   0.509
75105SOL     OW27211  13.704  12.504   1.545
75105SOL    HW127212  13.730  12.445   1.616
75105SOL    HW227213  13.717  12.592   1.581
75106SOL     OW27214   4.829   6.768   2.365
75106SOL    HW127215   4.743   6.807   2.351
75106SOL    HW227216   4.884   6.806   2.296
75107SOL     OW27217   8.859  10.405   5.433
75107SOL    HW127218   8.776  10.389   5.389
75107SOL    HW227219   8.906  10.464   5.374
75108SOL     OW27220   7.142   8.788  11.586
75108SOL    HW127221   7.047   8.803  11.581
75108SOL    HW227222   7.178   8.836  11.512
75109SOL     OW27223   8.114  11.032  10.606
75109SOL    HW127224   8.155  11.091  10.543
75109SOL    HW227225   8.043  10.991  10.558
75110SOL     OW27226   3.673  11.340   8.940
75110SOL    HW127227   3.652  11.262   8.992
75110SOL    HW227228   3.696  11.406   9.005
75111SOL     OW27229   6.551   5.918   3.132
75111SOL    HW127230   6.518   6.006   3.150
75111SOL    HW227231   6.535   5.905   3.039
75112SOL     OW27232   3.431   6.138   0.200
75112SOL    HW127233   3.462   6.207   0.141
75112SOL    HW227234   3.441   6.176   0.287
75113SOL     OW27235   6.520  10.010  12.030
75113SOL    HW127236   6.545  10.076  11.965
75113SOL    HW227237   6.430   9.987  12.007
75114SOL     OW27238   2.338   3.190   2.667
75114SOL    HW127239   2.423   3.154   2.645
75114SOL    HW227240   2.307   3.136   2.740
75115SOL     OW27241   7.885   5.674   1.614
75115SOL    HW127242   7.872   5.680   1.708
75115SOL    HW227243   7.893   5.580   1.597
75116SOL     OW27244  13.986   2.356   0.084
75116SOL    HW127245  14.032   2.273   0.073
75116SOL    HW227246  14.054   2.418   0.112
75117SOL     OW27247   9.434   8.549   4.172
75117SOL    HW127248   9.450   8.633   4.215
75117SOL    HW227249   9.420   8.488   4.244
75118SOL     OW27250   2.626   8.298   8.731
75118SOL    HW127251   2.587   8.378   8.766
75118SOL    HW227252   2.716   8.298   8.764
75119SOL     OW27253   3.214   5.262   3.331
75119SOL    HW127254   3.242   5.207   3.259
75119SOL    HW227255   3.198   5.348   3.292
75120SOL     OW27256   1.463   1.506   2.770
75120SOL    HW127257   1.490   1.598   2.771
75120SOL    HW227258   1.487   1.473   2.857
75121SOL     OW27259  10.073  11.469  14.054
75121SOL    HW127260  10.147  11.508  14.008
75121SOL    HW227261   9.996  11.495  14.002
75122SOL     OW27262   2.962   5.213  14.397
75122SOL    HW127263   2.957   5.174  14.484
75122SOL    HW227264   3.042   5.176  14.359
75123SOL     OW27265   9.614  12.586  14.348
75123SOL    HW127266   9.576  12.558  14.432
75123SOL    HW227267   9.579  12.673  14.334
75124SOL     OW27268   4.791  10.812  10.211
75124SOL    HW127269   4.726  10.757  10.255
75124SOL    HW227270   4.870  10.758  10.208
75125SOL     OW27271  12.889   5.656   0.853
75125SOL    HW127272  12.961   5.655   0.915
75125SOL    HW227273  12.812   5.632   0.905
75126SOL     OW27274   7.124  13.790  14.356
75126SOL    HW127275   7.079  13.709  14.382
75126SOL    HW227276   7.056  13.844  14.316
75127SOL     OW27277   6.120  11.472   7.467
75127SOL    HW127278   6.158  11.459   7.380
75127SOL    HW227279   6.179  11.427   7.527
75128SOL     OW27280  14.289   7.497   6.413
75128SOL    HW127281  14.236   7.504   6.493
75128SOL    HW227282  14.270   7.410   6.379
75129SOL     OW27283   0.186   2.578   4.734
75129SOL    HW127284   0.210   2.517   4.664
75129SOL    HW227285   0.215   2.534   4.814
75130SOL     OW27286  14.305   2.617   8.356
75130SOL    HW127287  14.299   2.530   8.395
75130SOL    HW227288  14.327   2.601   8.264
75131SOL     OW27289  10.288   2.645   3.868
75131SOL    HW127290  10.232   2.569   3.855
75131SOL    HW227291  10.327   2.661   3.782
75132SOL     OW27292   0.234  14.429  13.681
75132SOL    HW127293   0.261  14.368  13.613
75132SOL    HW227294   0.311  14.482  13.698
75133SOL     OW27295   4.155   6.053  13.859
75133SOL    HW127296   4.231   6.022  13.810
75133SOL    HW227297   4.138   6.140  13.824
75134SOL     OW27298  10.442  10.859   8.340
75134SOL    HW127299  10.461  10.778   8.387
75134SOL    HW227300  10.403  10.917   8.406
75135SOL     OW27301  12.780   9.348   1.275
75135SOL    HW127302  12.692   9.310   1.276
75135SOL    HW227303  12.839   9.274   1.262
75136SOL     OW27304  13.170   5.868   0.224
75136SOL    HW127305  13.133   5.922   0.154
75136SOL    HW227306  13.261   5.853   0.198
75137SOL     OW27307   5.358  13.308   8.599
75137SOL    HW127308   5.284  13.326   8.542
75137SOL    HW227309   5.429  13.285   8.539
75138SOL     OW27310  11.526   6.111   2.217
75138SOL    HW127311  11.484   6.064   2.289
75138SOL    HW227312  11.599   6.157   2.258
75139SOL     OW27313  13.539   6.767   2.917
75139SOL    HW127314  13.532   6.782   3.011
75139SOL    HW227315  13.594   6.838   2.884
75140SOL     OW27316   9.785  14.658   2.350
75140SOL    HW127317   9.860  14.717   2.351
75140SOL    HW227318   9.722  14.699   2.410
75141SOL     OW27319   4.723   6.588   0.597
75141SOL    HW127320   4.711   6.621   0.686
75141SOL    HW227321   4.813   6.612   0.574
75142SOL     OW27322   4.775   2.630  14.192
75142SOL    HW127323   4.824   2.712  14.187
75142SOL    HW227324   4.841   2.562  14.185
75143SOL     OW27325   8.131   7.795  11.915
75143SOL    HW127326   8.051   7.848  11.909
75143SOL    HW227327   8.118   7.741  11.993
75144SOL     OW27328  13.465   9.333  12.652
75144SOL    HW127329  13.437   9.424  12.663
75144SOL    HW227330  13.512   9.313  12.733
75145SOL     OW27331   7.319   1.470   1.149
75145SOL    HW127332   7.326   1.397   1.211
75145SOL    HW227333   7.376   1.445   1.076
75146SOL     OW27334   1.145  10.779   3.789
75146SOL    HW127335   1.096  10.780   3.871
75146SOL    HW227336   1.223  10.727   3.808
75147SOL     OW27337   6.273   5.871  10.196
75147SOL    HW127338   6.263   5.966  10.207
75147SOL    HW227339   6.368   5.857  10.200
75148SOL     OW27340  10.011   8.005   9.695
75148SOL    HW127341  10.057   8.008   9.779
75148SOL    HW227342  10.062   8.061   9.637
75149SOL     OW27343   4.733   4.405  13.086
75149SOL    HW127344   4.731   4.407  13.181
75149SOL    HW227345   4.826   4.398  13.064
75150SOL     OW27346   3.710   8.351   4.382
75150SOL    HW127347   3.709   8.257   4.363
75150SOL    HW227348   3.646   8.361   4.453
75151SOL     OW27349   8.197  14.427   1.956
75151SOL    HW127350   8.245  14.406   2.036
75151SOL    HW227351   8.108  14.446   1.985
75152SOL     OW27352   2.567   6.427   8.367
75152SOL    HW127353   2.608   6.513   8.356
75152SOL    HW227354   2.636   6.364   8.348
75153SOL     OW27355  12.232   9.741   9.589
75153SOL    HW127356  12.210   9.806   9.655
75153SOL    HW227357  12.189   9.661   9.619
75154SOL     OW27358   8.910   6.057   1.968
75154SOL    HW127359   8.907   5.961   1.968
75154SOL    HW227360   8.818   6.084   1.973
75155SOL     OW27361   7.385   2.640   1.776
75155SOL    HW127362   7.364   2.698   1.850
75155SOL    HW227363   7.305   2.641   1.722
75156SOL     OW27364   7.884   2.618  10.239
75156SOL    HW127365   7.922   2.686  10.183
75156SOL    HW227366   7.791   2.620  10.220
75157SOL     OW27367  10.407   5.698   5.141
75157SOL    HW127368  10.447   5.612   5.126
75157SOL    HW227369  10.468   5.760   5.101
75158SOL     OW27370   6.629  12.003   3.307
75158SOL    HW127371   6.607  12.007   3.214
75158SOL    HW227372   6.581  12.077   3.346
75159SOL     OW27373   3.565   7.229  12.063
75159SOL    HW127374   3.640   7.245  12.120
75159SOL    HW227375   3.540   7.316  12.032
75160SOL     OW27376  10.597  10.722   7.290
75160SOL    HW127377  10.588  10.627   7.276
75160SOL    HW227378  10.581  10.760   7.204
75161SOL     OW27379   8.550   6.415  12.422
75161SOL    HW127380   8.501   6.497  12.435
75161SOL    HW227381   8.638   6.443  12.397
75162SOL     OW27382   4.429   8.182  14.650
75162SOL    HW127383   4.426   8.276  14.666
75162SOL    HW227384   4.406   8.172  14.557
75163SOL     OW27385   2.491  10.711   2.283
75163SOL    HW127386   2.453  10.735   2.368
75163SOL    HW227387   2.522  10.793   2.246
75164SOL     OW27388   5.171  14.348   7.002
75164SOL    HW127389   5.232  14.380   7.069
75164SOL    HW227390   5.101  14.306   7.052
75165SOL     OW27391   7.263  12.584   1.705
75165SOL    HW127392   7.348  12.543   1.723
75165SOL    HW227393   7.199  12.516   1.722
75166SOL     OW27394   2.375   4.240   1.887
75166SOL    HW127395   2.460   4.198   1.883
75166SOL    HW227396   2.380   4.312   1.824
75167SOL     OW27397   7.263   6.120  10.374
75167SOL    HW127398   7.171   6.136  10.356
75167SOL    HW227399   7.283   6.038  10.330
75168SOL     OW27400   6.958   2.172   0.558
75168SOL    HW127401   6.934   2.080   0.558
75168SOL    HW227402   6.995   2.188   0.645
75169SOL     OW27403  12.562   0.399   3.067
75169SOL    HW127404  12.546   0.463   3.136
75169SOL    HW227405  12.474   0.376   3.035
75170SOL     OW27406   3.030   4.571   4.238
75170SOL    HW127407   3.114   4.569   4.192
75170SOL    HW227408   3.053   4.567   4.331
75171SOL     OW27409  13.428   7.183   1.018
75171SOL    HW127410  13.492   7.113   1.030
75171SOL    HW227411  13.426   7.198   0.924
75172SOL     OW27412   4.082   6.511   6.189
75172SOL    HW127413   4.050   6.600   6.205
75172SOL    HW227414   4.085   6.470   6.275
75173SOL     OW27415   4.171   9.647   8.008
75173SOL    HW127416   4.133   9.700   7.938
75173SOL    HW227417   4.171   9.557   7.973
75174SOL     OW27418  11.195   5.794   2.497
75174SOL    HW127419  11.233   5.741   2.567
75174SOL    HW227420  11.109   5.821   2.531
75175SOL     OW27421   6.057  12.446  14.697
75175SOL    HW127422   6.051  12.488  14.611
75175SOL    HW227423   5.998  12.496  14.753
75176SOL     OW27424   0.553   8.743   7.260
75176SOL    HW127425   0.617   8.724   7.328
75176SOL    HW227426   0.604   8.779   7.188
75177SOL     OW27427  10.324   5.877   2.243
75177SOL    HW127428  10.304   5.789   2.211
75177SOL    HW227429  10.317   5.870   2.338
75178SOL     OW27430   6.781  12.797   0.370
75178SOL    HW127431   6.797  12.774   0.278
75178SOL    HW227432   6.860  12.770   0.416
75179SOL     OW27433   8.469  14.875   2.865
75179SOL    HW127434   8.513   0.070   2.888
75179SOL    HW227435   8.460  14.879   2.769
75180SOL     OW27436  11.456  11.420   1.635
75180SOL    HW127437  11.493  11.507   1.618
75180SOL    HW227438  11.509  11.361   1.582
75181SOL     OW27439   8.703   0.884   8.317
75181SOL    HW127440   8.659   0.799   8.316
75181SOL    HW227441   8.694   0.916   8.227
75182SOL     OW27442  11.213   7.030   0.384
75182SOL    HW127443  11.255   7.070   0.460
75182SOL    HW227444  11.158   7.099   0.347
75183SOL     OW27445   9.705   0.273   3.951
75183SOL    HW127446   9.662   0.276   4.037
75183SOL    HW227447   9.641   0.230   3.894
75184SOL     OW27448  11.497  10.956   4.247
75184SOL    HW127449  11.475  11.042   4.282
75184SOL    HW227450  11.589  10.944   4.269
75185SOL     OW27451   1.666  10.539   0.435
75185SOL    HW127452   1.675  10.634   0.443
75185SOL    HW227453   1.665  10.507   0.525
75186SOL     OW27454   9.841   0.714  10.588
75186SOL    HW127455   9.806   0.770  10.657
75186SOL    HW227456   9.901   0.654  10.633
75187SOL     OW27457  12.958  10.122  10.024
75187SOL    HW127458  13.019  10.145   9.954
75187SOL    HW227459  13.011  10.122  10.103
75188SOL     OW27460   6.373   0.687  11.414
75188SOL    HW127461   6.435   0.616  11.400
75188SOL    HW227462   6.379   0.706  11.507
75189SOL     OW27463  13.638   2.565  12.232
75189SOL    HW127464  13.689   2.582  12.311
75189SOL    HW227465  13.549   2.593  12.254
75190SOL     OW27466   7.364   9.735  11.637
75190SOL    HW127467   7.406   9.809  11.593
75190SOL    HW227468   7.272   9.740  11.611
75191SOL     OW27469   1.351  11.240  11.312
75191SOL    HW127470   1.259  11.212  11.307
75191SOL    HW227471   1.389  11.212  11.229
75192SOL     OW27472  14.346   3.811   7.545
75192SOL    HW127473  14.374   3.832   7.634
75192SOL    HW227474  14.300   3.889   7.515
75193SOL     OW27475   6.396   3.805   0.571
75193SOL    HW127476   6.302   3.821   0.572
75193SOL    HW227477   6.434   3.889   0.545
75194SOL     OW27478   9.883   0.068  12.473
75194SOL    HW127479   9.820   0.123  12.426
75194SOL    HW227480   9.966   0.083  12.427
75195SOL     OW27481  14.705   1.949   5.065
75195SOL    HW127482  14.615   1.982   5.059
75195SOL    HW227483  14.712   1.915   5.155
75196SOL     OW27484   8.960   6.264  10.709
75196SOL    HW127485   8.889   6.259  10.645
75196SOL    HW227486   8.934   6.204  10.779
75197SOL     OW27487  11.271   1.258   3.443
75197SOL    HW127488  11.315   1.234   3.361
75197SOL    HW227489  11.189   1.299   3.416
75198SOL     OW27490   6.611  12.889  14.241
75198SOL    HW127491   6.649  12.976  14.232
75198SOL    HW227492   6.684  12.830  14.220
75199SOL     OW27493   5.959   8.087   1.146
75199SOL    HW127494   5.981   8.172   1.108
75199SOL    HW227495   5.889   8.106   1.208
75200SOL     OW27496  10.513   4.841   2.258
75200SOL    HW127497  10.446   4.774   2.246
75200SOL    HW227498  10.474   4.920   2.221
75201SOL     OW27499   0.734  12.404   0.949
75201SOL    HW127500   0.797  12.475   0.963
75201SOL    HW227501   0.669  12.441   0.890
75202SOL     OW27502   9.296   3.971  14.584
75202SOL    HW127503   9.211   3.952  14.622
75202SOL    HW227504   9.341   3.887  14.579
75203SOL     OW27505   5.825   9.140   7.309
75203SOL    HW127506   5.758   9.080   7.342
75203SOL    HW227507   5.823   9.215   7.368
75204SOL     OW27508   9.599  12.953   4.785
75204SOL    HW127509   9.608  12.880   4.723
75204SOL    HW227510   9.526  13.005   4.751
75205SOL     OW27511   3.336  13.048   9.734
75205SOL    HW127512   3.325  13.143   9.724
75205SOL    HW227513   3.423  13.038   9.773
75206SOL     OW27514   5.388   8.143  13.324
75206SOL    HW127515   5.441   8.106  13.254
75206SOL    HW227516   5.397   8.081  13.397
75207SOL     OW27517   5.584   7.505   0.787
75207SOL    HW127518   5.502   7.527   0.743
75207SOL    HW227519   5.587   7.409   0.787
75208SOL     OW27520  12.057   8.891  11.321
75208SOL    HW127521  12.059   8.890  11.226
75208SOL    HW227522  12.098   8.974  11.345
75209SOL     OW27523  10.871  11.091   1.562
75209SOL    HW127524  10.838  11.003   1.546
75209SOL    HW227525  10.894  11.092   1.654
75210SOL     OW27526   2.204   3.072   7.382
75210SOL    HW127527   2.271   3.135   7.355
75210SOL    HW227528   2.128   3.126   7.404
75211SOL     OW27529  10.842   6.741  12.296
75211SOL    HW127530  10.782   6.668  12.279
75211SOL    HW227531  10.925   6.714  12.257
75212SOL     OW27532   0.407   4.716  11.517
75212SOL    HW127533   0.319   4.731  11.553
75212SOL    HW227534   0.413   4.778  11.444
75213SOL     OW27535   1.251   4.888  12.090
75213SOL    HW127536   1.230   4.798  12.113
75213SOL    HW227537   1.217   4.940  12.163
75214SOL     OW27538   5.365   8.144   3.605
75214SOL    HW127539   5.421   8.219   3.586
75214SOL    HW227540   5.394   8.076   3.544
75215SOL     OW27541   4.257  12.998   9.932
75215SOL    HW127542   4.218  12.960   9.853
75215SOL    HW227543   4.309  13.072   9.900
75216SOL     OW27544   3.940   6.451  13.750
75216SOL    HW127545   3.861   6.445  13.696
75216SOL    HW227546   3.907   6.453  13.840
75217SOL     OW27547   6.143   0.693  14.459
75217SOL    HW127548   6.080   0.668  14.391
75217SOL    HW227549   6.194   0.764  14.419
75218SOL     OW27550   5.706   3.955  13.489
75218SOL    HW127551   5.629   3.958  13.546
75218SOL    HW227552   5.679   4.001  13.410
75219SOL     OW27553  10.601   8.748  10.746
75219SOL    HW127554  10.610   8.721  10.654
75219SOL    HW227555  10.625   8.670  10.796
75220SOL     OW27556  12.376  12.792   8.099
75220SOL    HW127557  12.410  12.853   8.034
75220SOL    HW227558  12.449  12.777   8.160
75221SOL     OW27559   7.021  13.629   3.001
75221SOL    HW127560   6.951  13.693   3.011
75221SOL    HW227561   6.977  13.545   2.991
75222SOL     OW27562  11.730  12.855  12.743
75222SOL    HW127563  11.641  12.879  12.715
75222SOL    HW227564  11.721  12.832  12.835
75223SOL     OW27565  10.426   3.763  13.770
75223SOL    HW127566  10.483   3.713  13.711
75223SOL    HW227567  10.349   3.783  13.718
75224SOL     OW27568   2.057  11.298   1.193
75224SOL    HW127569   2.007  11.378   1.178
75224SOL    HW227570   2.147  11.320   1.167
75225SOL     OW27571  10.261  10.043  13.255
75225SOL    HW127572  10.302   9.990  13.323
75225SOL    HW227573  10.193   9.987  13.217
75226SOL     OW27574  11.311  11.181   7.177
75226SOL    HW127575  11.247  11.207   7.244
75226SOL    HW227576  11.396  11.200   7.217
75227SOL     OW27577   2.405   4.120   7.055
75227SOL    HW127578   2.368   4.032   7.067
75227SOL    HW227579   2.481   4.106   6.998
75228SOL     OW27580   9.307   4.731   7.341
75228SOL    HW127581   9.355   4.805   7.303
75228SOL    HW227582   9.229   4.770   7.380
75229SOL     OW27583   2.708   3.363   9.685
75229SOL    HW127584   2.667   3.326   9.764
75229SOL    HW227585   2.720   3.287   9.627
75230SOL     OW27586   1.637   8.436  13.163
75230SOL    HW127587   1.650   8.482  13.080
75230SOL    HW227588   1.610   8.348  13.137
75231SOL     OW27589  10.960  10.680   1.989
75231SOL    HW127590  10.910  10.608   2.028
75231SOL    HW227591  11.006  10.641   1.915
75232SOL     OW27592   6.222   3.184   0.319
75232SOL    HW127593   6.184   3.097   0.303
75232SOL    HW227594   6.209   3.199   0.412
75233SOL     OW27595   1.054  10.718   0.305
75233SOL    HW127596   1.072  10.630   0.337
75233SOL    HW227597   0.988  10.752   0.365
75234SOL     OW27598   2.474   5.221  11.063
75234SOL    HW127599   2.498   5.245  11.153
75234SOL    HW227600   2.556   5.228  11.014
75235SOL     OW27601  11.236   6.255   7.687
75235SOL    HW127602  11.178   6.192   7.644
75235SOL    HW227603  11.192   6.275   7.770
75236SOL     OW27604  13.430  10.094   0.769
75236SOL    HW127605  13.354  10.036   0.763
75236SOL    HW227606  13.471  10.071   0.852
75237SOL     OW27607   5.724  12.613   0.267
75237SOL    HW127608   5.807  12.565   0.264
75237SOL    HW227609   5.734  12.682   0.201
75238SOL     OW27610   4.105   8.335   4.025
75238SOL    HW127611   4.074   8.420   3.995
75238SOL    HW227612   4.033   8.301   4.079
75239SOL     OW27613  14.752   4.499  12.774
75239SOL    HW127614  14.697   4.422  12.769
75239SOL    HW227615  14.734   4.537  12.860
75240SOL     OW27616   5.636  13.050  12.704
75240SOL    HW127617   5.561  13.065  12.647
75240SOL    HW227618   5.637  12.956  12.718
75241SOL     OW27619   6.637  10.032   3.833
75241SOL    HW127620   6.729  10.041   3.806
75241SOL    HW227621   6.622   9.938   3.835
75242SOL     OW27622   6.706  11.303   9.633
75242SOL    HW127623   6.795  11.269   9.643
75242SOL    HW227624   6.708  11.352   9.550
75243SOL     OW27625   6.558  12.237   3.556
75243SOL    HW127626   6.535  12.222   3.464
75243SOL    HW227627   6.492  12.188   3.605
75244SOL     OW27628  13.712   7.718  13.092
75244SOL    HW127629  13.774   7.658  13.049
75244SOL    HW227630  13.763   7.758  13.162
75245SOL     OW27631   0.403   5.986   6.540
75245SOL    HW127632   0.366   6.073   6.521
75245SOL    HW227633   0.420   5.948   6.453
75246SOL     OW27634  10.514   1.809   2.422
75246SOL    HW127635  10.474   1.895   2.413
75246SOL    HW227636  10.534   1.782   2.333
75247SOL     OW27637   0.725   5.705  12.592
75247SOL    HW127638   0.779   5.630  12.619
75247SOL    HW227639   0.759   5.729  12.506
75248SOL     OW27640   5.376   2.572  12.657
75248SOL    HW127641   5.400   2.482  12.637
75248SOL    HW227642   5.390   2.581  12.751
75249SOL     OW27643   4.869   6.002   7.405
75249SOL    HW127644   4.853   6.084   7.451
75249SOL    HW227645   4.956   6.012   7.367
75250SOL     OW27646   1.737   0.262  13.868
75250SOL    HW127647   1.706   0.349  13.846
75250SOL    HW227648   1.751   0.219  13.783
75251SOL     OW27649   7.666  14.668   9.123
75251SOL    HW127650   7.757  14.648   9.100
75251SOL    HW227651   7.621  14.674   9.039
75252SOL     OW27652   9.115   1.132   4.148
75252SOL    HW127653   9.128   1.215   4.193
75252SOL    HW227654   9.023   1.110   4.164
75253SOL     OW27655  14.282   5.340  10.651
75253SOL    HW127656  14.318   5.312  10.735
75253SOL    HW227657  14.193   5.306  10.651
75254SOL     OW27658  13.928   7.191   7.131
75254SOL    HW127659  13.880   7.128   7.076
75254SOL    HW227660  13.859   7.247   7.168
75255SOL     OW27661  13.490   5.321   3.473
75255SOL    HW127662  13.461   5.349   3.386
75255SOL    HW227663  13.488   5.225   3.468
75256SOL     OW27664  13.451  11.171   2.197
75256SOL    HW127665  13.517  11.157   2.265
75256SOL    HW227666  13.492  11.232   2.136
75257SOL     OW27667   1.455   3.696   5.200
75257SOL    HW127668   1.535   3.720   5.153
75257SOL    HW227669   1.486   3.645   5.275
75258SOL     OW27670  13.100   6.583   8.416
75258SOL    HW127671  13.014   6.554   8.446
75258SOL    HW227672  13.125   6.519   8.349
75259SOL     OW27673   8.046  13.789  11.253
75259SOL    HW127674   8.077  13.870  11.214
75259SOL    HW227675   8.043  13.806  11.347
75260SOL     OW27676   4.751  14.505   5.060
75260SOL    HW127677   4.836  14.476   5.092
75260SOL    HW227678   4.766  14.594   5.028
75261SOL     OW27679   1.137   6.653  10.224
75261SOL    HW127680   1.078   6.709  10.276
75261SOL    HW227681   1.168   6.587  10.286
75262SOL     OW27682   4.059   7.929  12.104
75262SOL    HW127683   4.067   7.865  12.032
75262SOL    HW227684   4.029   8.009  12.061
75263SOL     OW27685   9.708   8.097   4.419
75263SOL    HW127686   9.739   8.093   4.328
75263SOL    HW227687   9.685   8.189   4.432
75264SOL     OW27688  11.207   8.504  12.626
75264SOL    HW127689  11.192   8.545  12.541
75264SOL    HW227690  11.123   8.465  12.650
75265SOL     OW27691  14.287   1.189   8.014
75265SOL    HW127692  14.365   1.148   7.977
75265SOL    HW227693  14.221   1.120   8.014
75266SOL     OW27694   9.032  11.076   8.349
75266SOL    HW127695   9.098  11.121   8.297
75266SOL    HW227696   9.026  10.989   8.310
75267SOL     OW27697   2.123  13.865   1.197
75267SOL    HW127698   2.101  13.913   1.277
75267SOL    HW227699   2.067  13.787   1.199
75268SOL     OW27700   5.213   5.213  11.475
75268SOL    HW127701   5.282   5.185  11.415
75268SOL    HW227702   5.158   5.272  11.422
75269SOL     OW27703   6.858   1.639  11.430
75269SOL    HW127704   6.785   1.680  11.384
75269SOL    HW227705   6.929   1.640  11.366
75270SOL     OW27706   7.961   6.852   2.989
75270SOL    HW127707   8.044   6.804   2.992
75270SOL    HW227708   7.903   6.802   3.046
75271SOL     OW27709  12.257   4.661  12.016
75271SOL    HW127710  12.261   4.581  12.070
75271SOL    HW227711  12.164   4.678  12.005
75272SOL     OW27712   8.424   6.305  10.713
75272SOL    HW127713   8.331   6.313  10.734
75272SOL    HW227714   8.437   6.212  10.698
75273SOL     OW27715   8.151   4.988  12.372
75273SOL    HW127716   8.164   4.972  12.278
75273SOL    HW227717   8.074   4.936  12.395
75274SOL     OW27718   2.379   5.512  10.756
75274SOL    HW127719   2.419   5.477  10.677
75274SOL    HW227720   2.439   5.580  10.786
75275SOL     OW27721   7.001   2.822   9.519
75275SOL    HW127722   6.909   2.810   9.493
75275SOL    HW227723   7.051   2.804   9.439
75276SOL     OW27724   6.065  11.263   2.160
75276SOL    HW127725   6.000  11.198   2.134
75276SOL    HW227726   6.046  11.340   2.107
75277SOL     OW27727  10.610  14.590  10.305
75277SOL    HW127728  10.697  14.559  10.332
75277SOL    HW227729  10.622  14.683  10.287
75278SOL     OW27730  11.867  10.327   2.326
75278SOL    HW127731  11.882  10.415   2.292
75278SOL    HW227732  11.789  10.335   2.381
75279SOL     OW27733  14.326  10.453   3.075
75279SOL    HW127734  14.409  10.450   3.123
75279SOL    HW227735  14.338  10.396   3.000
75280SOL     OW27736   8.722   8.889   8.820
75280SOL    HW127737   8.702   8.896   8.913
75280SOL    HW227738   8.680   8.966   8.781
75281SOL     OW27739  13.977  10.416  13.468
75281SOL    HW127740  13.885  10.431  13.449
75281SOL    HW227741  13.978  10.332  13.515
75282SOL     OW27742   6.718  11.733   7.479
75282SOL    HW127743   6.763  11.672   7.421
75282SOL    HW227744   6.626  11.724   7.457
75283SOL     OW27745   8.752   4.853   0.378
75283SOL    HW127746   8.675   4.906   0.360
75283SOL    HW227747   8.754   4.789   0.306
75284SOL     OW27748   9.632  11.684  10.888
75284SOL    HW127749   9.571  11.629  10.938
75284SOL    HW227750   9.698  11.711  10.953
75285SOL     OW27751   6.024   7.758   6.774
75285SOL    HW127752   6.112   7.753   6.810
75285SOL    HW227753   5.968   7.721   6.842
75286SOL     OW27754   3.063   5.068   0.585
75286SOL    HW127755   3.104   5.009   0.648
75286SOL    HW227756   2.977   5.030   0.569
75287SOL     OW27757   0.500   3.562   7.060
75287SOL    HW127758   0.464   3.634   7.007
75287SOL    HW227759   0.424   3.508   7.081
75288SOL     OW27760  14.184   1.877   0.573
75288SOL    HW127761  14.158   1.791   0.542
75288SOL    HW227762  14.213   1.924   0.495
75289SOL     OW27763  11.715  13.110   5.388
75289SOL    HW127764  11.621  13.091   5.388
75289SOL    HW227765  11.720  13.205   5.379
75290SOL     OW27766   8.460   5.536   4.000
75290SOL    HW127767   8.411   5.554   4.080
75290SOL    HW227768   8.416   5.589   3.933
75291SOL     OW27769   0.795  13.760   3.623
75291SOL    HW127770   0.869  13.751   3.564
75291SOL    HW227771   0.812  13.839   3.673
75292SOL     OW27772  14.289  10.432   8.623
75292SOL    HW127773  14.226  10.377   8.577
75292SOL    HW227774  14.262  10.522   8.601
75293SOL     OW27775  14.668  10.397   4.840
75293SOL    HW127776  14.592  10.341   4.824
75293SOL    HW227777  14.677  10.450   4.761
75294SOL     OW27778  13.753  11.611   5.382
75294SOL    HW127779  13.770  11.519   5.358
75294SOL    HW227780  13.753  11.657   5.298
75295SOL     OW27781  13.289  12.676  13.202
75295SOL    HW127782  13.327  12.763  13.213
75295SOL    HW227783  13.244  12.659  13.285
75296SOL     OW27784   2.868   7.642   0.665
75296SOL    HW127785   2.901   7.603   0.584
75296SOL    HW227786   2.853   7.567   0.723
75297SOL     OW27787   9.901  11.244   8.064
75297SOL    HW127788   9.984  11.221   8.107
75297SOL    HW227789   9.861  11.159   8.044
75298SOL     OW27790   3.056   5.601   1.640
75298SOL    HW127791   3.062   5.615   1.545
75298SOL    HW227792   2.964   5.617   1.660
75299SOL     OW27793  11.802   2.432   6.404
75299SOL    HW127794  11.855   2.441   6.325
75299SOL    HW227795  11.717   2.402   6.372
75300SOL     OW27796   7.842   1.218  12.097
75300SOL    HW127797   7.895   1.297  12.107
75300SOL    HW227798   7.756   1.250  12.070
75301SOL     OW27799  13.240   6.421   8.164
75301SOL    HW127800  13.292   6.377   8.231
75301SOL    HW227801  13.149   6.407   8.191
75302SOL     OW27802   5.337   3.600   2.515
75302SOL    HW127803   5.277   3.675   2.520
75302SOL    HW227804   5.286   3.527   2.549
75303SOL     OW27805   7.669   5.362   9.162
75303SOL    HW127806   7.714   5.447   9.163
75303SOL    HW227807   7.581   5.381   9.193
75304SOL     OW27808  10.315   2.699  13.908
75304SOL    HW127809  10.409   2.677  13.909
75304SOL    HW227810  10.278   2.649  13.980
75305SOL     OW27811   0.459  12.017   2.080
75305SOL    HW127812   0.539  12.067   2.065
75305SOL    HW227813   0.427  11.996   1.992
75306SOL     OW27814   5.840   4.007   9.113
75306SOL    HW127815   5.894   3.929   9.096
75306SOL    HW227816   5.889   4.056   9.179
75307SOL     OW27817   9.516   0.887  13.834
75307SOL    HW127818   9.503   0.982  13.837
75307SOL    HW227819   9.450   0.856  13.771
75308SOL     OW27820  14.184   4.104  14.161
75308SOL    HW127821  14.272   4.136  14.181
75308SOL    HW227822  14.178   4.020  14.207
75309SOL     OW27823   3.425   5.323   1.427
75309SOL    HW127824   3.352   5.267   1.455
75309SOL    HW227825   3.503   5.278   1.459
75310SOL     OW27826   7.616  14.214   9.744
75310SOL    HW127827   7.649  14.124   9.745
75310SOL    HW227828   7.539  14.212   9.801
75311SOL     OW27829   7.655  12.966   5.719
75311SOL    HW127830   7.571  12.949   5.761
75311SOL    HW227831   7.642  12.938   5.628
75312SOL     OW27832  13.630   7.420  13.182
75312SOL    HW127833  13.623   7.459  13.094
75312SOL    HW227834  13.628   7.326  13.166
75313SOL     OW27835  12.261  10.857   2.040
75313SOL    HW127836  12.272  10.762   2.032
75313SOL    HW227837  12.178  10.868   2.086
75314SOL     OW27838   8.471   2.784  12.062
75314SOL    HW127839   8.465   2.879  12.054
75314SOL    HW227840   8.416   2.751  11.991
75315SOL     OW27841   8.238   5.699   1.784
75315SOL    HW127842   8.194   5.658   1.858
75315SOL    HW227843   8.289   5.770   1.823
75316SOL     OW27844  12.034   7.849   1.907
75316SOL    HW127845  12.030   7.754   1.897
75316SOL    HW227846  11.942   7.876   1.915
75317SOL     OW27847   4.171   4.807  11.004
75317SOL    HW127848   4.115   4.812  11.081
75317SOL    HW227849   4.203   4.896  10.992
75318SOL     OW27850   0.142   1.230   7.222
75318SOL    HW127851   0.113   1.140   7.239
75318SOL    HW227852   0.127   1.276   7.304
75319SOL     OW27853   0.775   5.601  13.988
75319SOL    HW127854   0.855   5.588  13.937
75319SOL    HW227855   0.805   5.602  14.079
75320SOL     OW27856  12.546   6.000   8.693
75320SOL    HW127857  12.615   5.933   8.692
75320SOL    HW227858  12.583   6.072   8.742
75321SOL     OW27859   1.572  12.290   2.947
75321SOL    HW127860   1.582  12.235   3.024
75321SOL    HW227861   1.620  12.370   2.968
75322SOL     OW27862   1.180   0.458   0.643
75322SOL    HW127863   1.158   0.431   0.553
75322SOL    HW227864   1.221   0.381   0.681
75323SOL     OW27865   0.901   1.158   6.085
75323SOL    HW127866   0.856   1.239   6.109
75323SOL    HW227867   0.989   1.186   6.059
75324SOL     OW27868   7.069   3.574   7.781
75324SOL    HW127869   6.974   3.562   7.777
75324SOL    HW227870   7.087   3.646   7.720
75325SOL     OW27871  11.116  14.442   5.482
75325SOL    HW127872  11.200  14.474   5.450
75325SOL    HW227873  11.058  14.519   5.480
75326SOL     OW27874  14.523   1.942   3.791
75326SOL    HW127875  14.499   1.850   3.798
75326SOL    HW227876  14.566   1.949   3.705
75327SOL     OW27877   5.952  13.697  11.940
75327SOL    HW127878   5.939  13.648  12.021
75327SOL    HW227879   5.958  13.630  11.872
75328SOL     OW27880  10.569  14.682  13.013
75328SOL    HW127881  10.578  14.758  12.956
75328SOL    HW227882  10.646  14.687  13.071
75329SOL     OW27883  12.590  13.427  13.023
75329SOL    HW127884  12.501  13.457  13.042
75329SOL    HW227885  12.646  13.494  13.063
75330SOL     OW27886  10.430   6.084   8.546
75330SOL    HW127887  10.428   5.999   8.591
75330SOL    HW227888  10.494   6.136   8.594
75331SOL     OW27889   0.070   0.979   7.256
75331SOL    HW127890   0.018   0.951   7.181
75331SOL    HW227891   0.093   0.898   7.301
75332SOL     OW27892   1.837   6.712   2.034
75332SOL    HW127893   1.802   6.713   1.944
75332SOL    HW227894   1.820   6.801   2.067
75333SOL     OW27895   6.170  11.189   4.409
75333SOL    HW127896   6.081  11.165   4.436
75333SOL    HW227897   6.158  11.266   4.354
75334SOL     OW27898   7.691   9.193  10.297
75334SOL    HW127899   7.596   9.197  10.296
75334SOL    HW227900   7.713   9.102  10.277
75335SOL     OW27901  14.577   9.867   6.805
75335SOL    HW127902  14.633   9.896   6.732
75335SOL    HW227903  14.493   9.909   6.789
75336SOL     OW27904   4.854   9.603   2.001
75336SOL    HW127905   4.799   9.675   1.970
75336SOL    HW227906   4.923   9.645   2.051
75337SOL     OW27907  12.102   2.903  14.396
75337SOL    HW127908  12.075   2.861  14.315
75337SOL    HW227909  12.025   2.951  14.426
75338SOL     OW27910   8.228   9.795   3.023
75338SOL    HW127911   8.314   9.767   2.991
75338SOL    HW227912   8.166   9.739   2.976
75339SOL     OW27913   8.115  10.933   6.914
75339SOL    HW127914   8.056  10.964   6.846
75339SOL    HW227915   8.160  10.858   6.875
75340SOL     OW27916  11.735   0.278   5.419
75340SOL    HW127917  11.718   0.339   5.491
75340SOL    HW227918  11.665   0.213   5.427
75341SOL     OW27919   4.985   8.360   9.536
75341SOL    HW127920   4.933   8.391   9.462
75341SOL    HW227921   5.065   8.413   9.533
75342SOL     OW27922   8.242  10.595   3.944
75342SOL    HW127923   8.332  10.583   3.973
75342SOL    HW227924   8.221  10.686   3.966
75343SOL     OW27925   2.594   3.458   2.575
75343SOL    HW127926   2.603   3.363   2.584
75343SOL    HW227927   2.555   3.470   2.488
75344SOL     OW27928   4.473   3.156  13.450
75344SOL    HW127929   4.542   3.206  13.405
75344SOL    HW227930   4.508   3.067  13.453
75345SOL     OW27931   7.148   3.525   5.728
75345SOL    HW127932   7.147   3.434   5.698
75345SOL    HW227933   7.095   3.572   5.663
75346SOL     OW27934   6.726   5.884  13.737
75346SOL    HW127935   6.791   5.929  13.790
75346SOL    HW227936   6.674   5.954  13.697
75347SOL     OW27937  12.515   4.863   5.464
75347SOL    HW127938  12.453   4.855   5.391
75347SOL    HW227939  12.470   4.919   5.527
75348SOL     OW27940   5.588  14.528   5.746
75348SOL    HW127941   5.520  14.586   5.712
75348SOL    HW227942   5.561  14.510   5.836
75349SOL     OW27943   5.523   4.618  12.068
75349SOL    HW127944   5.568   4.556  12.011
75349SOL    HW227945   5.430   4.599  12.056
75350SOL     OW27946  12.992   3.308  11.016
75350SOL    HW127947  13.026   3.369  11.081
75350SOL    HW227948  13.015   3.221  11.051
75351SOL     OW27949  12.164   7.469   8.729
75351SOL    HW127950  12.154   7.527   8.654
75351SOL    HW227951  12.084   7.482   8.780
75352SOL     OW27952   4.842  10.069   4.729
75352SOL    HW127953   4.778  10.100   4.792
75352SOL    HW227954   4.815   9.979   4.709
75353SOL     OW27955   4.795   5.069   0.831
75353SOL    HW127956   4.730   5.101   0.767
75353SOL    HW227957   4.758   4.987   0.863
75354SOL     OW27958   1.348   8.302  14.782
75354SOL    HW127959   1.346   8.232  14.716
75354SOL    HW227960   1.439   8.306  14.811
75355SOL     OW27961   0.914   1.457   6.355
75355SOL    HW127962   0.953   1.509   6.426
75355SOL    HW227963   0.944   1.501   6.275
75356SOL     OW27964   0.057  10.125  12.344
75356SOL    HW127965   0.081  10.161  12.430
75356SOL    HW227966   0.125  10.157  12.285
75357SOL     OW27967  13.013  10.411   8.071
75357SOL    HW127968  13.047  10.414   8.161
75357SOL    HW227969  13.065  10.476   8.024
75358SOL     OW27970  13.401   0.775   2.972
75358SOL    HW127971  13.434   0.855   2.930
75358SOL    HW227972  13.480   0.730   3.001
75359SOL     OW27973  10.446  10.718  12.798
75359SOL    HW127974  10.381  10.759  12.741
75359SOL    HW227975  10.530  10.736  12.756
75360SOL     OW27976   3.618  14.336   6.125
75360SOL    HW127977   3.698  14.300   6.087
75360SOL    HW227978   3.648  14.385   6.202
75361SOL     OW27979   8.353   3.875  11.183
75361SOL    HW127980   8.370   3.945  11.120
75361SOL    HW227981   8.296   3.914  11.249
75362SOL     OW27982   6.129  11.405   4.236
75362SOL    HW127983   6.064  11.439   4.174
75362SOL    HW227984   6.173  11.335   4.188
75363SOL     OW27985   2.587  13.056   1.293
75363SOL    HW127986   2.512  13.081   1.346
75363SOL    HW227987   2.652  13.124   1.308
75364SOL     OW27988   6.293   2.415  14.067
75364SOL    HW127989   6.256   2.469  14.137
75364SOL    HW227990   6.304   2.476  13.994
75365SOL     OW27991   4.859  11.377   7.317
75365SOL    HW127992   4.794  11.431   7.272
75365SOL    HW227993   4.807  11.312   7.364
75366SOL     OW27994   4.374   8.137   5.246
75366SOL    HW127995   4.307   8.102   5.304
75366SOL    HW227996   4.445   8.072   5.249
75367SOL     OW27997   5.392   1.571  14.518
75367SOL    HW127998   5.379   1.653  14.567
75367SOL    HW227999   5.472   1.585  14.468
75368SOL     OW28000  10.135   7.682  12.869
75368SOL    HW128001  10.148   7.709  12.960
75368SOL    HW228002  10.059   7.731  12.840
75369SOL     OW28003   6.409   7.193   6.961
75369SOL    HW128004   6.442   7.232   7.042
75369SOL    HW228005   6.441   7.251   6.892
75370SOL     OW28006  10.509  12.815   6.233
75370SOL    HW128007  10.516  12.845   6.324
75370SOL    HW228008  10.600  12.801   6.205
75371SOL     OW28009   5.568   3.391   1.439
75371SOL    HW128010   5.642   3.398   1.499
75371SOL    HW228011   5.560   3.297   1.422
75372SOL     OW28012   5.583   1.140   5.624
75372SOL    HW128013   5.621   1.094   5.699
75372SOL    HW228014   5.578   1.074   5.555
75373SOL     OW28015   8.311   9.764   1.424
75373SOL    HW128016   8.262   9.798   1.349
75373SOL    HW228017   8.365   9.837   1.452
75374SOL     OW28018  13.202   5.576   2.318
75374SOL    HW128019  13.206   5.615   2.231
75374SOL    HW228020  13.286   5.599   2.358
75375SOL     OW28021   8.540   2.257  10.466
75375SOL    HW128022   8.544   2.224  10.376
75375SOL    HW228023   8.572   2.185  10.520
75376SOL     OW28024  10.397   2.215   1.580
75376SOL    HW128025  10.311   2.180   1.555
75376SOL    HW228026  10.401   2.301   1.538
75377SOL     OW28027   7.302   0.336   5.213
75377SOL    HW128028   7.360   0.260   5.228
75377SOL    HW228029   7.300   0.346   5.118
75378SOL     OW28030   1.288   1.405   7.849
75378SOL    HW128031   1.205   1.360   7.859
75378SOL    HW228032   1.331   1.361   7.776
75379SOL     OW28033   6.565   9.864  10.758
75379SOL    HW128034   6.571   9.911  10.841
75379SOL    HW228035   6.508   9.789  10.776
75380SOL     OW28036   9.542  11.341  11.000
75380SOL    HW128037   9.577  11.363  10.913
75380SOL    HW228038   9.470  11.281  10.982
75381SOL     OW28039   3.605   9.474   8.988
75381SOL    HW128040   3.693   9.438   8.999
75381SOL    HW228041   3.547   9.409   9.028
75382SOL     OW28042   4.412   7.060   5.609
75382SOL    HW128043   4.349   7.027   5.545
75382SOL    HW228044   4.359   7.099   5.678
75383SOL     OW28045   3.700   4.649  12.401
75383SOL    HW128046   3.680   4.707  12.327
75383SOL    HW228047   3.644   4.573  12.388
75384SOL     OW28048  12.761   7.105  10.571
75384SOL    HW128049  12.852   7.117  10.598
75384SOL    HW228050  12.757   7.014  10.540
75385SOL     OW28051   9.216   1.815   6.710
75385SOL    HW128052   9.168   1.769   6.642
75385SOL    HW228053   9.197   1.908   6.694
75386SOL     OW28054  11.816  12.591  12.652
75386SOL    HW128055  11.790  12.682  12.668
75386SOL    HW228056  11.904  12.585  12.689
75387SOL     OW28057  14.419   1.729  14.181
75387SOL    HW128058  14.423   1.693  14.093
75387SOL    HW228059  14.332   1.768  14.188
75388SOL     OW28060  13.526  12.486   9.643
75388SOL    HW128061  13.600  12.426   9.635
75388SOL    HW228062  13.494  12.497   9.553
75389SOL     OW28063   6.496   7.631   1.570
75389SOL    HW128064   6.589   7.653   1.564
75389SOL    HW228065   6.457   7.671   1.493
75390SOL     OW28066  14.006  10.131   9.918
75390SOL    HW128067  13.927  10.080   9.933
75390SOL    HW228068  14.078  10.069   9.931
75391SOL     OW28069  14.612  12.873   7.268
75391SOL    HW128070  14.612  12.822   7.349
75391SOL    HW228071  14.652  12.957   7.292
75392SOL     OW28072   8.697   8.084  12.386
75392SOL    HW128073   8.608   8.099  12.418
75392SOL    HW228074   8.726   8.004  12.430
75393SOL     OW28075   6.375   8.407   9.790
75393SOL    HW128076   6.359   8.483   9.847
75393SOL    HW228077   6.471   8.399   9.789
75394SOL     OW28078   9.334   4.405  11.550
75394SOL    HW128079   9.257   4.357  11.523
75394SOL    HW228080   9.320   4.494  11.518
75395SOL     OW28081   7.619  13.223  10.911
75395SOL    HW128082   7.594  13.293  10.972
75395SOL    HW228083   7.537  13.198  10.868
75396SOL     OW28084   2.218   2.527   3.702
75396SOL    HW128085   2.216   2.477   3.784
75396SOL    HW228086   2.306   2.564   3.698
75397SOL     OW28087  11.627   3.141  12.170
75397SOL    HW128088  11.699   3.193  12.134
75397SOL    HW228089  11.562   3.138  12.101
75398SOL     OW28090   0.879   1.036  13.031
75398SOL    HW128091   0.948   1.056  12.968
75398SOL    HW228092   0.801   1.019  12.977
75399SOL     OW28093   6.448   2.123   3.118
75399SOL    HW128094   6.467   2.194   3.179
75399SOL    HW228095   6.372   2.078   3.156
75400SOL     OW28096  12.400  10.763  11.479
75400SOL    HW128097  12.482  10.799  11.443
75400SOL    HW228098  12.428  10.686  11.529
75401SOL     OW28099   5.142   9.276  11.416
75401SOL    HW128100   5.207   9.318  11.473
75401SOL    HW228101   5.111   9.200  11.466
75402SOL     OW28102   0.758  12.684   0.345
75402SOL    HW128103   0.751  12.716   0.255
75402SOL    HW228104   0.838  12.631   0.345
75403SOL     OW28105   9.168   5.449   3.546
75403SOL    HW128106   9.220   5.519   3.506
75403SOL    HW228107   9.174   5.465   3.640
75404SOL     OW28108   7.117  10.001   9.859
75404SOL    HW128109   7.113  10.057   9.781
75404SOL    HW228110   7.066  10.049   9.925
75405SOL     OW28111   3.160   2.499   6.462
75405SOL    HW128112   3.244   2.462   6.434
75405SOL    HW228113   3.121   2.533   6.381
75406SOL     OW28114  13.639  13.420   5.589
75406SOL    HW128115  13.646  13.441   5.496
75406SOL    HW228116  13.723  13.446   5.626
75407SOL     OW28117   1.192  14.499  11.965
75407SOL    HW128118   1.172  14.582  11.922
75407SOL    HW228119   1.288  14.494  11.964
75408SOL     OW28120   8.374   5.877  13.570
75408SOL    HW128121   8.291   5.905  13.609
75408SOL    HW228122   8.375   5.918  13.484
75409SOL     OW28123   0.185   6.300   4.476
75409SOL    HW128124   0.134   6.323   4.398
75409SOL    HW228125   0.148   6.354   4.546
75410SOL     OW28126  11.720   3.495   9.843
75410SOL    HW128127  11.689   3.582   9.815
75410SOL    HW228128  11.814   3.497   9.826
75411SOL     OW28129   1.288   8.965   8.257
75411SOL    HW128130   1.303   9.036   8.320
75411SOL    HW228131   1.229   8.905   8.303
75412SOL     OW28132   7.642   7.119   9.075
75412SOL    HW128133   7.580   7.082   9.137
75412SOL    HW228134   7.589   7.142   8.998
75413SOL     OW28135  11.225   1.167   0.431
75413SOL    HW128136  11.290   1.169   0.361
75413SOL    HW228137  11.208   1.073   0.444
75414SOL     OW28138   6.114   4.025   4.128
75414SOL    HW128139   6.076   4.077   4.057
75414SOL    HW228140   6.073   4.061   4.208
75415SOL     OW28141   2.154  12.229   7.581
75415SOL    HW128142   2.219  12.298   7.591
75415SOL    HW228143   2.197  12.162   7.529
75416SOL     OW28144   3.874   9.656   6.664
75416SOL    HW128145   3.779   9.653   6.662
75416SOL    HW228146   3.901   9.565   6.674
75417SOL     OW28147  12.129   7.580   2.883
75417SOL    HW128148  12.210   7.630   2.875
75417SOL    HW228149  12.079   7.602   2.805
75418SOL     OW28150   9.696   6.659   6.573
75418SOL    HW128151   9.699   6.564   6.571
75418SOL    HW228152   9.665   6.685   6.486
75419SOL     OW28153   4.581   0.098   8.640
75419SOL    HW128154   4.644   0.108   8.569
75419SOL    HW228155   4.635   0.091   8.719
75420SOL     OW28156   7.061   8.360   4.219
75420SOL    HW128157   7.002   8.322   4.284
75420SOL    HW228158   7.067   8.294   4.150
75421SOL     OW28159   6.776  11.493  13.696
75421SOL    HW128160   6.709  11.545  13.740
75421SOL    HW228161   6.830  11.557  13.650
75422SOL     OW28162   7.965   1.740   6.807
75422SOL    HW128163   8.031   1.776   6.748
75422SOL    HW228164   7.954   1.807   6.874
75423SOL     OW28165  14.370   2.811  13.667
75423SOL    HW128166  14.400   2.758  13.740
75423SOL    HW228167  14.317   2.752  13.613
75424SOL     OW28168   8.041   4.351   4.176
75424SOL    HW128169   8.104   4.303   4.123
75424SOL    HW228170   8.039   4.438   4.137
75425SOL     OW28171  12.651  12.487   3.179
75425SOL    HW128172  12.607  12.402   3.171
75425SOL    HW228173  12.743  12.468   3.165
75426SOL     OW28174   3.248   7.942   8.897
75426SOL    HW128175   3.205   7.948   8.812
75426SOL    HW228176   3.202   8.006   8.951
75427SOL     OW28177  13.932  11.722   9.577
75427SOL    HW128178  13.899  11.805   9.613
75427SOL    HW228179  13.857  11.663   9.579
75428SOL     OW28180   8.926   1.960  14.700
75428SOL    HW128181   8.898   1.915  14.620
75428SOL    HW228182   8.874   1.921  14.770
75429SOL     OW28183   8.682   4.575   0.722
75429SOL    HW128184   8.670   4.574   0.627
75429SOL    HW228185   8.716   4.488   0.743
75430SOL     OW28186  12.526  11.198   5.385
75430SOL    HW128187  12.453  11.201   5.446
75430SOL    HW228188  12.573  11.118   5.408
75431SOL     OW28189   8.552  10.880  12.459
75431SOL    HW128190   8.627  10.821  12.450
75431SOL    HW228191   8.505  10.872  12.376
75432SOL     OW28192   1.290   6.706  13.326
75432SOL    HW128193   1.225   6.753  13.377
75432SOL    HW228194   1.365   6.765  13.322
75433SOL     OW28195   8.061   6.475   3.703
75433SOL    HW128196   8.053   6.530   3.780
75433SOL    HW228197   8.102   6.531   3.637
75434SOL     OW28198   8.728   2.117   0.201
75434SOL    HW128199   8.737   2.114   0.296
75434SOL    HW228200   8.780   2.043   0.169
75435SOL     OW28201   1.108   5.688   9.928
75435SOL    HW128202   1.030   5.743   9.939
75435SOL    HW228203   1.143   5.679  10.016
75436SOL     OW28204  12.466   9.728  13.619
75436SOL    HW128205  12.457   9.790  13.691
75436SOL    HW228206  12.559   9.703  13.620
75437SOL     OW28207   4.431  14.593  13.078
75437SOL    HW128208   4.371  14.564  13.147
75437SOL    HW228209   4.515  14.605  13.122
75438SOL     OW28210   4.181   8.097  13.093
75438SOL    HW128211   4.136   8.163  13.145
75438SOL    HW228212   4.134   8.095  13.010
75439SOL     OW28213  14.365  10.046   2.587
75439SOL    HW128214  14.326   9.960   2.573
75439SOL    HW228215  14.298  10.107   2.557
75440SOL     OW28216   2.843  10.116  13.361
75440SOL    HW128217   2.906  10.178  13.322
75440SOL    HW228218   2.898  10.052  13.406
75441SOL     OW28219   4.076   6.186   8.930
75441SOL    HW128220   3.981   6.179   8.920
75441SOL    HW228221   4.089   6.193   9.025
75442SOL     OW28222   6.255   9.323  10.239
75442SOL    HW128223   6.281   9.253  10.179
75442SOL    HW228224   6.305   9.306  10.319
75443SOL     OW28225   5.222   8.399   0.624
75443SOL    HW128226   5.222   8.488   0.589
75443SOL    HW228227   5.181   8.346   0.555
75444SOL     OW28228   1.375   1.655   6.107
75444SOL    HW128229   1.334   1.670   6.192
75444SOL    HW228230   1.464   1.689   6.117
75445SOL     OW28231   2.432   3.454   9.859
75445SOL    HW128232   2.447   3.519   9.927
75445SOL    HW228233   2.388   3.502   9.789
75446SOL     OW28234   5.654  10.043  13.516
75446SOL    HW128235   5.606   9.976  13.566
75446SOL    HW228236   5.672  10.002  13.432
75447SOL     OW28237   7.817   5.803   8.300
75447SOL    HW128238   7.750   5.871   8.299
75447SOL    HW228239   7.777   5.730   8.346
75448SOL     OW28240   0.736   1.314   3.502
75448SOL    HW128241   0.653   1.270   3.520
75448SOL    HW228242   0.803   1.248   3.520
75449SOL     OW28243   4.405   7.385   6.010
75449SOL    HW128244   4.469   7.456   6.023
75449SOL    HW228245   4.439   7.312   6.062
75450SOL     OW28246   7.524   9.787   1.767
75450SOL    HW128247   7.615   9.763   1.785
75450SOL    HW228248   7.486   9.804   1.853
75451SOL     OW28249  11.364  11.959  13.168
75451SOL    HW128250  11.377  12.041  13.215
75451SOL    HW228251  11.393  11.978  13.078
75452SOL     OW28252  13.298  12.731   6.379
75452SOL    HW128253  13.347  12.784   6.442
75452SOL    HW228254  13.258  12.662   6.431
75453SOL     OW28255   3.789   4.118  12.843
75453SOL    HW128256   3.719   4.079  12.790
75453SOL    HW228257   3.788   4.069  12.925
75454SOL     OW28258   3.712  10.248  12.465
75454SOL    HW128259   3.666  10.286  12.540
75454SOL    HW228260   3.723  10.322  12.405
75455SOL     OW28261   3.183   0.835  11.968
75455SOL    HW128262   3.169   0.870  12.056
75455SOL    HW228263   3.220   0.747  11.983
75456SOL     OW28264   5.444   8.431  10.677
75456SOL    HW128265   5.382   8.413  10.747
75456SOL    HW228266   5.484   8.346  10.657
75457SOL     OW28267   9.997   3.231  10.096
75457SOL    HW128268   9.924   3.225  10.035
75457SOL    HW228269  10.031   3.320  10.084
75458SOL     OW28270  10.637  11.274   8.715
75458SOL    HW128271  10.555  11.227   8.727
75458SOL    HW228272  10.633  11.310   8.627
75459SOL     OW28273   4.535  14.146   3.131
75459SOL    HW128274   4.626  14.145   3.160
75459SOL    HW228275   4.490  14.090   3.194
75460SOL     OW28276  11.324  12.808  10.439
75460SOL    HW128277  11.312  12.899  10.411
75460SOL    HW228278  11.249  12.790  10.495
75461SOL     OW28279   9.168   6.423   5.277
75461SOL    HW128280   9.118   6.402   5.355
75461SOL    HW228281   9.105   6.468   5.220
75462SOL     OW28282  12.545  13.111  14.550
75462SOL    HW128283  12.539  13.021  14.582
75462SOL    HW228284  12.627  13.114  14.500
75463SOL     OW28285   7.371   0.956  12.967
75463SOL    HW128286   7.298   0.908  13.006
75463SOL    HW228287   7.353   0.955  12.873
75464SOL     OW28288   6.173   1.640  11.653
75464SOL    HW128289   6.121   1.709  11.611
75464SOL    HW228290   6.111   1.594  11.710
75465SOL     OW28291   2.859   0.347  13.359
75465SOL    HW128292   2.793   0.377  13.422
75465SOL    HW228293   2.863   0.252  13.371
75466SOL     OW28294   8.905  10.309   6.960
75466SOL    HW128295   8.935  10.336   6.874
75466SOL    HW228296   8.827  10.257   6.943
75467SOL     OW28297   8.353  10.801   5.809
75467SOL    HW128298   8.412  10.821   5.737
75467SOL    HW228299   8.308  10.721   5.782
75468SOL     OW28300  11.045  12.897   3.538
75468SOL    HW128301  11.015  12.968   3.594
75468SOL    HW228302  11.131  12.873   3.574
75469SOL     OW28303   7.319   0.380   4.117
75469SOL    HW128304   7.229   0.388   4.148
75469SOL    HW228305   7.323   0.435   4.038
75470SOL     OW28306  13.391   2.798   6.367
75470SOL    HW128307  13.369   2.718   6.414
75470SOL    HW228308  13.437   2.852   6.431
75471SOL     OW28309   8.047  10.952   1.278
75471SOL    HW128310   8.094  10.960   1.361
75471SOL    HW228311   8.084  10.875   1.236
75472SOL     OW28312  12.595  13.871   9.938
75472SOL    HW128313  12.547  13.944   9.976
75472SOL    HW228314  12.681  13.874   9.980
75473SOL     OW28315   3.105  12.150   4.912
75473SOL    HW128316   3.155  12.149   4.994
75473SOL    HW228317   3.017  12.177   4.938
75474SOL     OW28318  12.506   7.102  10.776
75474SOL    HW128319  12.536   7.087  10.686
75474SOL    HW228320  12.524   7.195  10.792
75475SOL     OW28321   5.224   8.966  12.623
75475SOL    HW128322   5.196   9.015  12.701
75475SOL    HW228323   5.154   8.983  12.559
75476SOL     OW28324  14.363   7.317   0.599
75476SOL    HW128325  14.410   7.380   0.653
75476SOL    HW228326  14.270   7.334   0.617
75477SOL     OW28327   1.043  12.532  11.265
75477SOL    HW128328   1.045  12.445  11.305
75477SOL    HW228329   0.970  12.577  11.308
75478SOL     OW28330  14.033   0.501  14.245
75478SOL    HW128331  13.999   0.569  14.187
75478SOL    HW228332  14.007   0.419  14.205
75479SOL     OW28333   6.506   4.682   1.676
75479SOL    HW128334   6.491   4.607   1.618
75479SOL    HW228335   6.479   4.651   1.763
75480SOL     OW28336  12.601  11.420   2.529
75480SOL    HW128337  12.536  11.478   2.490
75480SOL    HW228338  12.616  11.456   2.617
75481SOL     OW28339   7.895   4.551  10.603
75481SOL    HW128340   7.960   4.555  10.674
75481SOL    HW228341   7.820   4.507  10.642
75482SOL     OW28342  10.300   0.022   3.364
75482SOL    HW128343  10.395   0.026   3.366
75482SOL    HW228344  10.271   0.099   3.412
75483SOL     OW28345   5.274   5.368   2.001
75483SOL    HW128346   5.344   5.411   1.952
75483SOL    HW228347   5.214   5.438   2.025
75484SOL     OW28348   0.107   9.990   2.576
75484SOL    HW128349   0.029  10.045   2.563
75484SOL    HW228350   0.177  10.053   2.594
75485SOL     OW28351  12.606   6.119   8.211
75485SOL    HW128352  12.629   6.172   8.287
75485SOL    HW228353  12.588   6.032   8.246
75486SOL     OW28354   0.400  11.635   9.141
75486SOL    HW128355   0.402  11.714   9.195
75486SOL    HW228356   0.470  11.647   9.077
75487SOL     OW28357   2.140  10.498   5.119
75487SOL    HW128358   2.048  10.474   5.129
75487SOL    HW228359   2.156  10.495   5.025
75488SOL     OW28360   6.542   5.946  13.492
75488SOL    HW128361   6.537   6.038  13.468
75488SOL    HW228362   6.489   5.938  13.571
75489SOL     OW28363   5.843  14.073  13.670
75489SOL    HW128364   5.897  14.006  13.713
75489SOL    HW228365   5.759  14.029  13.655
75490SOL     OW28366   3.299   0.970  14.155
75490SOL    HW128367   3.211   0.965  14.194
75490SOL    HW228368   3.337   1.050  14.193
75491SOL     OW28369  12.939   8.132   6.231
75491SOL    HW128370  12.856   8.177   6.220
75491SOL    HW228371  12.997   8.170   6.165
75492SOL     OW28372   5.828   7.466   5.633
75492SOL    HW128373   5.750   7.514   5.604
75492SOL    HW228374   5.858   7.512   5.711
75493SOL     OW28375   4.652  12.946   6.939
75493SOL    HW128376   4.735  12.948   6.987
75493SOL    HW228377   4.632  13.039   6.923
75494SOL     OW28378  11.082   9.119   9.907
75494SOL    HW128379  11.116   9.163   9.829
75494SOL    HW228380  10.987   9.132   9.903
75495SOL     OW28381   9.724  10.627   0.587
75495SOL    HW128382   9.653  10.564   0.595
75495SOL    HW228383   9.804  10.574   0.591
75496SOL     OW28384   8.236   7.862   8.351
75496SOL    HW128385   8.201   7.949   8.332
75496SOL    HW228386   8.182   7.829   8.422
75497SOL     OW28387   5.238   7.065   8.192
75497SOL    HW128388   5.322   7.110   8.183
75497SOL    HW228389   5.227   7.052   8.286
75498SOL     OW28390   6.011  14.769  14.469
75498SOL    HW128391   5.923  14.735  14.483
75498SOL    HW228392   6.069  14.698  14.497
75499SOL     OW28393  11.301  14.699   9.187
75499SOL    HW128394  11.298  14.668   9.278
75499SOL    HW228395  11.247  14.637   9.139
75500SOL     OW28396   6.376   7.847  11.408
75500SOL    HW128397   6.401   7.835  11.316
75500SOL    HW228398   6.333   7.933  11.410
75501SOL     OW28399   8.423  14.392   4.844
75501SOL    HW128400   8.342  14.357   4.881
75501SOL    HW228401   8.411  14.386   4.750
75502SOL     OW28402  14.568  10.807  11.296
75502SOL    HW128403  14.507  10.839  11.362
75502SOL    HW228404  14.636  10.760  11.345
75503SOL     OW28405   7.174   3.254   4.327
75503SOL    HW128406   7.197   3.184   4.388
75503SOL    HW228407   7.142   3.324   4.383
75504SOL     OW28408   3.478   3.948  12.199
75504SOL    HW128409   3.453   4.032  12.159
75504SOL    HW228410   3.511   3.896  12.126
75505SOL     OW28411   8.660  13.487  12.297
75505SOL    HW128412   8.622  13.497  12.384
75505SOL    HW228413   8.721  13.560  12.289
75506SOL     OW28414  14.865   2.318   8.912
75506SOL    HW128415  14.831   2.267   8.986
75506SOL    HW228416  14.812   2.289   8.837
75507SOL     OW28417  11.382   5.753   5.018
75507SOL    HW128418  11.340   5.693   4.956
75507SOL    HW228419  11.388   5.836   4.972
75508SOL     OW28420   0.233   9.934  11.259
75508SOL    HW128421   0.313   9.887  11.237
75508SOL    HW228422   0.247  10.023  11.225
75509SOL     OW28423   3.737   8.651   4.397
75509SOL    HW128424   3.761   8.674   4.487
75509SOL    HW228425   3.676   8.578   4.407
75510SOL     OW28426   4.747   4.741   4.851
75510SOL    HW128427   4.790   4.776   4.929
75510SOL    HW228428   4.786   4.790   4.778
75511SOL     OW28429   4.157   0.229  12.512
75511SOL    HW128430   4.213   0.241  12.435
75511SOL    HW228431   4.158   0.314  12.556
75512SOL     OW28432   8.766  12.688   9.309
75512SOL    HW128433   8.821  12.646   9.243
75512SOL    HW228434   8.678  12.656   9.291
75513SOL     OW28435  13.012   7.192  14.282
75513SOL    HW128436  13.045   7.165  14.368
75513SOL    HW228437  12.972   7.113  14.246
75514SOL     OW28438   8.836   0.605   6.966
75514SOL    HW128439   8.803   0.673   7.025
75514SOL    HW228440   8.866   0.535   7.024
75515SOL     OW28441   0.086  14.844   0.307
75515SOL    HW128442   0.071  14.837   0.213
75515SOL    HW228443   0.026  14.781   0.346
75516SOL     OW28444   1.859   9.610  12.036
75516SOL    HW128445   1.914   9.533  12.024
75516SOL    HW228446   1.919   9.684  12.028
75517SOL     OW28447  13.661   9.925   6.437
75517SOL    HW128448  13.614   9.928   6.521
75517SOL    HW228449  13.716   9.847   6.443
75518SOL     OW28450   0.983  11.822  14.154
75518SOL    HW128451   0.983  11.770  14.234
75518SOL    HW228452   1.044  11.777  14.096
75519SOL     OW28453   4.544   0.137   7.137
75519SOL    HW128454   4.563   0.194   7.212
75519SOL    HW228455   4.516   0.197   7.068
75520SOL     OW28456   0.755  14.447  12.857
75520SOL    HW128457   0.755  14.352  12.864
75520SOL    HW228458   0.665  14.473  12.877
75521SOL     OW28459   1.925  13.483  14.243
75521SOL    HW128460   1.998  13.487  14.182
75521SOL    HW228461   1.953  13.421  14.310
75522SOL     OW28462   6.233  13.811   6.731
75522SOL    HW128463   6.237  13.766   6.646
75522SOL    HW228464   6.318  13.853   6.740
75523SOL     OW28465   1.082   8.452  14.030
75523SOL    HW128466   1.139   8.395  14.082
75523SOL    HW228467   1.010   8.396  14.003
75524SOL     OW28468  10.243   2.457  10.214
75524SOL    HW128469  10.256   2.524  10.281
75524SOL    HW228470  10.310   2.391  10.233
75525SOL     OW28471   7.858  12.171   8.449
75525SOL    HW128472   7.836  12.259   8.417
75525SOL    HW228473   7.950  12.159   8.423
75526SOL     OW28474   3.791   5.727  10.745
75526SOL    HW128475   3.707   5.680  10.747
75526SOL    HW228476   3.851   5.670  10.793
75527SOL     OW28477   5.517  14.719   9.176
75527SOL    HW128478   5.591  14.737   9.235
75527SOL    HW228479   5.500  14.804   9.134
75528SOL     OW28480   0.917  14.714   5.258
75528SOL    HW128481   0.954  14.754   5.179
75528SOL    HW228482   0.897  14.624   5.232
75529SOL     OW28483   6.224   2.209  13.105
75529SOL    HW128484   6.261   2.133  13.151
75529SOL    HW228485   6.231   2.281  13.168
75530SOL     OW28486  13.071   4.483   1.929
75530SOL    HW128487  13.042   4.537   1.855
75530SOL    HW228488  13.114   4.545   1.989
75531SOL     OW28489   6.578   2.944  14.706
75531SOL    HW128490   6.568   2.941  14.802
75531SOL    HW228491   6.510   3.005  14.678
75532SOL     OW28492   9.709   1.747   0.394
75532SOL    HW128493   9.709   1.841   0.373
75532SOL    HW228494   9.797   1.717   0.371
75533SOL     OW28495  11.046   3.276  11.892
75533SOL    HW128496  11.071   3.358  11.934
75533SOL    HW228497  11.011   3.302  11.807
75534SOL     OW28498   5.836   6.009   2.886
75534SOL    HW128499   5.857   6.009   2.792
75534SOL    HW228500   5.832   6.102   2.909
75535SOL     OW28501  11.100  13.921   2.818
75535SOL    HW128502  11.020  13.873   2.797
75535SOL    HW228503  11.072  14.012   2.824
75536SOL     OW28504   2.772   7.079   8.725
75536SOL    HW128505   2.752   7.156   8.673
75536SOL    HW228506   2.805   7.114   8.808
75537SOL     OW28507   7.873   7.565  10.380
75537SOL    HW128508   7.845   7.650  10.412
75537SOL    HW228509   7.828   7.555  10.295
75538SOL     OW28510   4.718  14.013   0.113
75538SOL    HW128511   4.724  13.946   0.046
75538SOL    HW228512   4.745  14.094   0.070
75539SOL     OW28513   1.313  11.777   5.588
75539SOL    HW128514   1.397  11.804   5.550
75539SOL    HW228515   1.299  11.689   5.553
75540SOL     OW28516   7.382   7.972   0.706
75540SOL    HW128517   7.422   7.939   0.625
75540SOL    HW228518   7.290   7.985   0.684
75541SOL     OW28519  13.763   7.687   4.744
75541SOL    HW128520  13.690   7.749   4.739
75541SOL    HW228521  13.762   7.641   4.660
75542SOL     OW28522   5.842  10.198   4.678
75542SOL    HW128523   5.832  10.248   4.759
75542SOL    HW228524   5.934  10.211   4.653
75543SOL     OW28525  13.455   1.134   8.081
75543SOL    HW128526  13.466   1.119   7.987
75543SOL    HW228527  13.381   1.194   8.088
75544SOL     OW28528   8.582  11.402  12.597
75544SOL    HW128529   8.623  11.333  12.545
75544SOL    HW228530   8.631  11.481  12.574
75545SOL     OW28531   5.255   9.289   4.679
75545SOL    HW128532   5.333   9.343   4.666
75545SOL    HW228533   5.285   9.200   4.659
75546SOL     OW28534   2.988  12.084  11.482
75546SOL    HW128535   2.971  12.016  11.417
75546SOL    HW228536   2.961  12.045  11.565
75547SOL     OW28537   2.772  13.370   6.817
75547SOL    HW128538   2.822  13.357   6.897
75547SOL    HW228539   2.819  13.320   6.750
75548SOL     OW28540  12.972   6.745   1.791
75548SOL    HW128541  12.923   6.804   1.734
75548SOL    HW228542  12.906   6.687   1.829
75549SOL     OW28543  13.003   3.942   4.494
75549SOL    HW128544  12.934   3.876   4.491
75549SOL    HW228545  12.958   4.022   4.522
75550SOL     OW28546   3.362   7.809   0.662
75550SOL    HW128547   3.455   7.829   0.674
75550SOL    HW228548   3.356   7.714   0.677
75551SOL     OW28549   0.374   5.362  13.002
75551SOL    HW128550   0.404   5.420  13.072
75551SOL    HW228551   0.423   5.391  12.924
75552SOL     OW28552   5.520   9.829   1.981
75552SOL    HW128553   5.585   9.806   2.048
75552SOL    HW228554   5.466   9.896   2.022
75553SOL     OW28555   1.460   6.286  12.851
75553SOL    HW128556   1.377   6.300  12.896
75553SOL    HW228557   1.520   6.257  12.921
75554SOL     OW28558  13.026  10.856  10.194
75554SOL    HW128559  12.957  10.890  10.251
75554SOL    HW228560  13.092  10.926  10.193
75555SOL     OW28561  13.080   0.891   7.611
75555SOL    HW128562  13.057   0.885   7.519
75555SOL    HW228563  13.096   0.800   7.638
75556SOL     OW28564  12.804  12.322   8.071
75556SOL    HW128565  12.756  12.260   8.015
75556SOL    HW228566  12.738  12.355   8.132
75557SOL     OW28567   1.711   9.172  10.514
75557SOL    HW128568   1.709   9.127  10.598
75557SOL    HW228569   1.797   9.153  10.478
75558SOL     OW28570   3.405   8.253   0.272
75558SOL    HW128571   3.336   8.278   0.334
75558SOL    HW228572   3.382   8.295   0.190
75559SOL     OW28573   4.452  11.817  10.573
75559SOL    HW128574   4.462  11.799  10.667
75559SOL    HW228575   4.360  11.798  10.555
75560SOL     OW28576  12.084   2.158   3.705
75560SOL    HW128577  12.149   2.207   3.655
75560SOL    HW228578  12.080   2.204   3.789
75561SOL     OW28579   0.412  13.784  13.941
75561SOL    HW128580   0.497  13.757  13.906
75561SOL    HW228581   0.355  13.788  13.864
75562SOL     OW28582   6.272   0.728   0.702
75562SOL    HW128583   6.232   0.812   0.680
75562SOL    HW228584   6.347   0.721   0.644
75563SOL     OW28585   7.736   7.976  13.259
75563SOL    HW128586   7.722   7.933  13.343
75563SOL    HW228587   7.801   7.921  13.214
75564SOL     OW28588   0.075  12.193  13.771
75564SOL    HW128589   0.101  12.256  13.705
75564SOL    HW228590  14.877  12.224  13.802
75565SOL     OW28591   2.691  14.460  13.698
75565SOL    HW128592   2.745  14.539  13.690
75565SOL    HW228593   2.602  14.491  13.686
75566SOL     OW28594   5.534   0.024   8.774
75566SOL    HW128595   5.571   0.057   8.856
75566SOL    HW228596   5.610  14.882   8.724
75567SOL     OW28597   4.532   0.236  13.511
75567SOL    HW128598   4.513   0.325  13.540
75567SOL    HW228599   4.610   0.244  13.456
75568SOL     OW28600   9.752   7.342  13.763
75568SOL    HW128601   9.802   7.351  13.844
75568SOL    HW228602   9.809   7.377  13.695
75569SOL     OW28603   6.319   7.870  12.444
75569SOL    HW128604   6.353   7.953  12.478
75569SOL    HW228605   6.244   7.850  12.499
75570SOL     OW28606   8.164   8.689   5.527
75570SOL    HW128607   8.152   8.606   5.572
75570SOL    HW228608   8.132   8.674   5.438
75571SOL     OW28609   8.113   0.558  12.310
75571SOL    HW128610   8.063   0.602  12.241
75571SOL    HW228611   8.082   0.468  12.309
75572SOL     OW28612  11.324  10.115   8.446
75572SOL    HW128613  11.371  10.057   8.507
75572SOL    HW228614  11.391  10.147   8.386
75573SOL     OW28615   0.791  11.748   8.323
75573SOL    HW128616   0.786  11.746   8.228
75573SOL    HW228617   0.884  11.745   8.343
75574SOL     OW28618  11.714   1.508   1.727
75574SOL    HW128619  11.661   1.555   1.791
75574SOL    HW228620  11.794   1.484   1.773
75575SOL     OW28621   8.448  11.113  12.317
75575SOL    HW128622   8.500  11.056  12.261
75575SOL    HW228623   8.472  11.087  12.406
75576SOL     OW28624  11.580  12.602  14.180
75576SOL    HW128625  11.657  12.659  14.188
75576SOL    HW228626  11.563  12.574  14.270
75577SOL     OW28627   8.690  11.131   6.453
75577SOL    HW128628   8.676  11.040   6.428
75577SOL    HW228629   8.767  11.158   6.403
75578SOL     OW28630  11.022  14.879   7.280
75578SOL    HW128631  10.984   0.077   7.303
75578SOL    HW228632  10.953  14.816   7.302
75579SOL     OW28633   5.545   8.004   4.643
75579SOL    HW128634   5.627   7.954   4.648
75579SOL    HW228635   5.488   7.963   4.709
75580SOL     OW28636  12.601   4.232   4.234
75580SOL    HW128637  12.622   4.287   4.309
75580SOL    HW228638  12.506   4.235   4.227
75581SOL     OW28639  12.274   2.445  11.358
75581SOL    HW128640  12.250   2.534  11.331
75581SOL    HW228641  12.193   2.395  11.349
75582SOL     OW28642   8.074   7.727   8.631
75582SOL    HW128643   8.118   7.810   8.650
75582SOL    HW228644   8.063   7.686   8.717
75583SOL     OW28645  12.069   9.081   0.405
75583SOL    HW128646  12.000   9.018   0.428
75583SOL    HW228647  12.147   9.027   0.394
75584SOL     OW28648  12.649   5.005   1.108
75584SOL    HW128649  12.567   5.052   1.100
75584SOL    HW228650  12.652   4.978   1.200
75585SOL     OW28651   6.296   6.483  11.270
75585SOL    HW128652   6.336   6.443  11.192
75585SOL    HW228653   6.281   6.410  11.330
75586SOL     OW28654   7.711   0.132   5.843
75586SOL    HW128655   7.651   0.191   5.887
75586SOL    HW228656   7.798   0.168   5.861
75587SOL     OW28657   4.919   2.835   2.640
75587SOL    HW128658   4.901   2.741   2.641
75587SOL    HW228659   4.916   2.860   2.548
75588SOL     OW28660   5.273   5.502   7.873
75588SOL    HW128661   5.341   5.451   7.916
75588SOL    HW228662   5.228   5.548   7.944
75589SOL     OW28663   4.159  12.746   6.232
75589SOL    HW128664   4.155  12.711   6.321
75589SOL    HW228665   4.108  12.827   6.235
75590SOL     OW28666   3.290   5.805   9.679
75590SOL    HW128667   3.312   5.897   9.671
75590SOL    HW228668   3.373   5.760   9.692
75591SOL     OW28669  13.143   3.954  13.310
75591SOL    HW128670  13.178   4.026  13.257
75591SOL    HW228671  13.048   3.966  13.306
75592SOL     OW28672   5.146   1.528   4.123
75592SOL    HW128673   5.057   1.495   4.116
75592SOL    HW228674   5.136   1.618   4.155
75593SOL     OW28675   5.267  10.149   7.374
75593SOL    HW128676   5.345  10.119   7.421
75593SOL    HW228677   5.241  10.229   7.419
75594SOL     OW28678   3.946  14.571  12.089
75594SOL    HW128679   3.952  14.612  12.175
75594SOL    HW228680   3.870  14.514  12.095
75595SOL     OW28681   1.227  10.283   7.868
75595SOL    HW128682   1.146  10.327   7.893
75595SOL    HW228683   1.201  10.219   7.802
75596SOL     OW28684  13.342   8.214   2.858
75596SOL    HW128685  13.431   8.227   2.826
75596SOL    HW228686  13.310   8.302   2.876
75597SOL     OW28687   6.822  10.783  14.379
75597SOL    HW128688   6.787  10.721  14.315
75597SOL    HW228689   6.841  10.862  14.329
75598SOL     OW28690   3.751   9.427  10.843
75598SOL    HW128691   3.819   9.472  10.893
75598SOL    HW228692   3.763   9.457  10.753
75599SOL     OW28693  10.609   3.641  10.267
75599SOL    HW128694  10.627   3.734  10.262
75599SOL    HW228695  10.682   3.600  10.220
75600SOL     OW28696   8.531   9.978   9.831
75600SOL    HW128697   8.527  10.038   9.905
75600SOL    HW228698   8.488   9.898   9.863
75601SOL     OW28699   4.477   7.456   7.081
75601SOL    HW128700   4.543   7.436   7.148
75601SOL    HW228701   4.394   7.445   7.126
75602SOL     OW28702  12.483   9.061   6.733
75602SOL    HW128703  12.464   9.133   6.793
75602SOL    HW228704  12.437   9.085   6.652
75603SOL     OW28705  14.110   3.178   4.272
75603SOL    HW128706  14.069   3.101   4.309
75603SOL    HW228707  14.168   3.144   4.203
75604SOL     OW28708   0.383   2.158   0.604
75604SOL    HW128709   0.328   2.219   0.555
75604SOL    HW228710   0.460   2.209   0.628
75605SOL     OW28711  11.574  12.724  14.838
75605SOL    HW128712  11.569  12.692   0.040
75605SOL    HW228713  11.535  12.654  14.785
75606SOL     OW28714   1.913  13.811   2.416
75606SOL    HW128715   1.821  13.830   2.436
75606SOL    HW228716   1.958  13.819   2.500
75607SOL     OW28717  14.805  14.798  12.925
75607SOL    HW128718  14.760  14.875  12.959
75607SOL    HW228719  14.743  14.726  12.938
75608SOL     OW28720  10.732   7.575   0.053
75608SOL    HW128721  10.757   7.540  14.855
75608SOL    HW228722  10.736   7.500   0.112
75609SOL     OW28723  12.066   1.598  12.280
75609SOL    HW128724  12.090   1.596  12.188
75609SOL    HW228725  12.063   1.691  12.302
75610SOL     OW28726  11.825   8.519   8.892
75610SOL    HW128727  11.799   8.610   8.902
75610SOL    HW228728  11.766   8.484   8.826
75611SOL     OW28729   1.893   7.848   5.078
75611SOL    HW128730   1.987   7.861   5.092
75611SOL    HW228731   1.871   7.774   5.134
75612SOL     OW28732  11.585   5.676   1.548
75612SOL    HW128733  11.614   5.657   1.637
75612SOL    HW228734  11.499   5.635   1.542
75613SOL     OW28735   0.479   0.055  12.947
75613SOL    HW128736   0.397   0.020  12.981
75613SOL    HW228737   0.546   0.023  13.007
75614SOL     OW28738   4.114  14.652   9.630
75614SOL    HW128739   4.040  14.713   9.623
75614SOL    HW228740   4.099  14.605   9.712
75615SOL     OW28741   5.540  13.083   6.183
75615SOL    HW128742   5.552  13.109   6.091
75615SOL    HW228743   5.447  13.062   6.190
75616SOL     OW28744  14.297  13.289   9.801
75616SOL    HW128745  14.340  13.226   9.743
75616SOL    HW228746  14.332  13.270   9.888
75617SOL     OW28747   1.905   2.665   6.993
75617SOL    HW128748   1.873   2.608   7.063
75617SOL    HW228749   2.000   2.670   7.010
75618SOL     OW28750  12.308   2.283   1.550
75618SOL    HW128751  12.362   2.349   1.593
75618SOL    HW228752  12.220   2.298   1.585
75619SOL     OW28753  13.870  11.279  14.142
75619SOL    HW128754  13.881  11.198  14.192
75619SOL    HW228755  13.959  11.311  14.129
75620SOL     OW28756   2.756  11.509   6.009
75620SOL    HW128757   2.760  11.584   5.950
75620SOL    HW228758   2.751  11.433   5.951
75621SOL     OW28759  14.754  11.312   5.720
75621SOL    HW128760  14.793  11.247   5.662
75621SOL    HW228761  14.799  11.394   5.701
75622SOL     OW28762   2.697  10.240   3.351
75622SOL    HW128763   2.689  10.187   3.272
75622SOL    HW228764   2.616  10.223   3.399
75623SOL     OW28765   8.668   3.550   0.432
75623SOL    HW128766   8.762   3.567   0.422
75623SOL    HW228767   8.629   3.586   0.352
75624SOL     OW28768   6.564   0.969   7.255
75624SOL    HW128769   6.598   0.994   7.169
75624SOL    HW228770   6.475   0.938   7.238
75625SOL     OW28771   6.469  14.238   4.196
75625SOL    HW128772   6.388  14.206   4.157
75625SOL    HW228773   6.451  14.242   4.290
75626SOL     OW28774   7.109   1.820   3.084
75626SOL    HW128775   7.203   1.800   3.077
75626SOL    HW228776   7.069   1.776   3.009
75627SOL     OW28777  14.483   5.526   6.894
75627SOL    HW128778  14.398   5.483   6.885
75627SOL    HW228779  14.499   5.567   6.809
75628SOL     OW28780  14.556   5.189   1.481
75628SOL    HW128781  14.545   5.111   1.427
75628SOL    HW228782  14.468   5.212   1.509
75629SOL     OW28783   1.846   3.610  13.970
75629SOL    HW128784   1.869   3.667  14.044
75629SOL    HW228785   1.815   3.670  13.902
75630SOL     OW28786  10.200   4.056   0.976
75630SOL    HW128787  10.202   4.151   0.971
75630SOL    HW228788  10.183   4.037   1.068
75631SOL     OW28789   6.414  10.816   7.164
75631SOL    HW128790   6.485  10.852   7.110
75631SOL    HW228791   6.408  10.877   7.238
75632SOL     OW28792   7.745   4.929  13.999
75632SOL    HW128793   7.752   4.834  13.991
75632SOL    HW228794   7.655   4.944  14.029
75633SOL     OW28795   6.452   3.435   2.779
75633SOL    HW128796   6.377   3.376   2.783
75633SOL    HW228797   6.433   3.494   2.707
75634SOL     OW28798   5.176   8.949  12.262
75634SOL    HW128799   5.166   8.869  12.314
75634SOL    HW228800   5.087   8.983  12.253
75635SOL     OW28801   7.325  12.576   8.651
75635SOL    HW128802   7.396  12.542   8.597
75635SOL    HW228803   7.246  12.554   8.603
75636SOL     OW28804   3.224   1.000   3.853
75636SOL    HW128805   3.143   1.039   3.885
75636SOL    HW228806   3.223   1.014   3.759
75637SOL     OW28807   3.826  12.114  13.551
75637SOL    HW128808   3.811  12.195  13.501
75637SOL    HW228809   3.887  12.064  13.497
75638SOL     OW28810   9.068   5.840  10.199
75638SOL    HW128811   8.983   5.884  10.189
75638SOL    HW228812   9.115   5.894  10.262
75639SOL     OW28813   1.798  13.106   0.006
75639SOL    HW128814   1.834  13.116  14.805
75639SOL    HW228815   1.704  13.120  14.882
75640SOL     OW28816   4.328  11.987   5.488
75640SOL    HW128817   4.401  12.037   5.453
75640SOL    HW228818   4.351  11.972   5.580
75641SOL     OW28819  10.088   5.171   5.879
75641SOL    HW128820  10.000   5.178   5.915
75641SOL    HW228821  10.085   5.223   5.798
75642SOL     OW28822  10.584   2.305  10.899
75642SOL    HW128823  10.559   2.271  10.813
75642SOL    HW228824  10.606   2.397  10.883
75643SOL     OW28825  13.361  14.291   7.440
75643SOL    HW128826  13.297  14.244   7.387
75643SOL    HW228827  13.311  14.361   7.482
75644SOL     OW28828   7.716  11.394   0.897
75644SOL    HW128829   7.781  11.324   0.890
75644SOL    HW228830   7.740  11.456   0.828
75645SOL     OW28831  11.690   8.351  10.147
75645SOL    HW128832  11.637   8.272  10.142
75645SOL    HW228833  11.721   8.365  10.058
75646SOL     OW28834   9.483   1.361   8.085
75646SOL    HW128835   9.432   1.345   8.006
75646SOL    HW228836   9.479   1.456   8.097
75647SOL     OW28837   2.625  10.958   0.961
75647SOL    HW128838   2.643  10.924   0.873
75647SOL    HW228839   2.679  10.905   1.019
75648SOL     OW28840  13.303   5.834   8.707
75648SOL    HW128841  13.377   5.854   8.650
75648SOL    HW228842  13.331   5.861   8.794
75649SOL     OW28843   0.975   2.986   0.807
75649SOL    HW128844   1.066   3.013   0.822
75649SOL    HW228845   0.939   2.976   0.895
75650SOL     OW28846  13.158   6.402  10.436
75650SOL    HW128847  13.140   6.468  10.368
75650SOL    HW228848  13.071   6.376  10.467
75651SOL     OW28849  13.180   9.335  11.638
75651SOL    HW128850  13.137   9.407  11.683
75651SOL    HW228851  13.131   9.257  11.665
75652SOL     OW28852  12.470   3.556  12.835
75652SOL    HW128853  12.405   3.621  12.809
75652SOL    HW228854  12.539   3.563  12.769
75653SOL     OW28855   6.793  14.082  10.650
75653SOL    HW128856   6.788  14.007  10.709
75653SOL    HW228857   6.702  14.097  10.622
75654SOL     OW28858  11.129   9.615   9.581
75654SOL    HW128859  11.190   9.603   9.508
75654SOL    HW228860  11.042   9.603   9.541
75655SOL     OW28861   7.488   7.864  11.341
75655SOL    HW128862   7.566   7.883  11.393
75655SOL    HW228863   7.522   7.833  11.257
75656SOL     OW28864   5.494  14.365   2.696
75656SOL    HW128865   5.481  14.400   2.607
75656SOL    HW228866   5.549  14.430   2.739
75657SOL     OW28867  10.674   5.658  13.500
75657SOL    HW128868  10.583   5.687  13.487
75657SOL    HW228869  10.698   5.617  13.417
75658SOL     OW28870  12.330  12.456  12.263
75658SOL    HW128871  12.426  12.461  12.257
75658SOL    HW228872  12.314  12.417  12.349
75659SOL     OW28873   9.811   4.056   6.977
75659SOL    HW128874   9.889   4.106   7.002
75659SOL    HW228875   9.836   3.965   6.993
75660SOL     OW28876  11.445   0.972   2.264
75660SOL    HW128877  11.412   0.883   2.251
75660SOL    HW228878  11.389   1.027   2.208
75661SOL     OW28879  12.295   8.824   8.326
75661SOL    HW128880  12.250   8.770   8.391
75661SOL    HW228881  12.386   8.827   8.355
75662SOL     OW28882   2.912  12.060  12.045
75662SOL    HW128883   2.850  11.991  12.069
75662SOL    HW228884   2.954  12.084  12.127
75663SOL     OW28885   5.575   2.096   8.202
75663SOL    HW128886   5.531   2.044   8.134
75663SOL    HW228887   5.508   2.155   8.234
75664SOL     OW28888   5.139   4.993   3.213
75664SOL    HW128889   5.129   5.008   3.120
75664SOL    HW228890   5.084   5.059   3.255
75665SOL     OW28891   4.571   8.674  14.676
75665SOL    HW128892   4.631   8.717  14.737
75665SOL    HW228893   4.615   8.680  14.591
75666SOL     OW28894   6.345   9.210   1.611
75666SOL    HW128895   6.371   9.125   1.574
75666SOL    HW228896   6.389   9.214   1.695
75667SOL     OW28897  14.813  13.349   9.755
75667SOL    HW128898  14.833  13.410   9.684
75667SOL    HW228899  14.718  13.356   9.767
75668SOL     OW28900   3.250  10.186   5.722
75668SOL    HW128901   3.232  10.092   5.715
75668SOL    HW228902   3.332  10.198   5.673
75669SOL     OW28903  14.559   1.393  14.129
75669SOL    HW128904  14.651   1.380  14.107
75669SOL    HW228905  14.522   1.435  14.051
75670SOL     OW28906   3.808   3.267  13.346
75670SOL    HW128907   3.791   3.240  13.256
75670SOL    HW228908   3.867   3.343  13.337
75671SOL     OW28909   8.552  12.101   3.454
75671SOL    HW128910   8.461  12.115   3.427
75671SOL    HW228911   8.582  12.029   3.398
75672SOL     OW28912   9.499  13.659   1.185
75672SOL    HW128913   9.483  13.566   1.200
75672SOL    HW228914   9.504  13.668   1.090
75673SOL     OW28915  12.110   3.174   5.753
75673SOL    HW128916  12.150   3.252   5.790
75673SOL    HW228917  12.044   3.149   5.818
75674SOL     OW28918  11.406   9.980  10.887
75674SOL    HW128919  11.373   9.893  10.863
75674SOL    HW228920  11.389   9.987  10.981
75675SOL     OW28921  10.948   8.441  14.689
75675SOL    HW128922  10.920   8.451  14.780
75675SOL    HW228923  11.008   8.367  14.690
75676SOL     OW28924  14.590   4.334   5.647
75676SOL    HW128925  14.525   4.346   5.716
75676SOL    HW228926  14.598   4.420   5.606
75677SOL     OW28927   8.526  12.382  10.321
75677SOL    HW128928   8.542  12.450  10.256
75677SOL    HW228929   8.530  12.300  10.272
75678SOL     OW28930  10.331   9.169  12.180
75678SOL    HW128931  10.351   9.089  12.228
75678SOL    HW228932  10.384   9.236  12.224
75679SOL     OW28933   5.364  12.007   5.057
75679SOL    HW128934   5.434  11.947   5.081
75679SOL    HW228935   5.380  12.085   5.110
75680SOL     OW28936   0.077  11.754   8.757
75680SOL    HW128937   0.035  11.833   8.724
75680SOL    HW228938   0.030  11.682   8.715
75681SOL     OW28939   7.617   5.969   3.141
75681SOL    HW128940   7.529   5.954   3.175
75681SOL    HW228941   7.604   6.025   3.064
75682SOL     OW28942   7.012   6.543   7.516
75682SOL    HW128943   7.031   6.613   7.454
75682SOL    HW228944   7.023   6.462   7.465
75683SOL     OW28945   1.771   1.664   7.654
75683SOL    HW128946   1.681   1.669   7.685
75683SOL    HW228947   1.808   1.750   7.676
75684SOL     OW28948  10.300   1.477   8.256
75684SOL    HW128949  10.241   1.475   8.331
75684SOL    HW228950  10.346   1.561   8.264
75685SOL     OW28951  12.400  12.010   0.452
75685SOL    HW128952  12.418  12.012   0.546
75685SOL    HW228953  12.440  11.929   0.422
75686SOL     OW28954  10.828   3.664  12.872
75686SOL    HW128955  10.797   3.753  12.853
75686SOL    HW228956  10.868   3.634  12.791
75687SOL     OW28957   9.473  14.316   9.025
75687SOL    HW128958   9.469  14.226   8.992
75687SOL    HW228959   9.414  14.365   8.969
75688SOL     OW28960   8.561  14.104   1.681
75688SOL    HW128961   8.628  14.162   1.718
75688SOL    HW228962   8.484  14.159   1.672
75689SOL     OW28963   0.245   0.783   8.521
75689SOL    HW128964   0.153   0.773   8.545
75689SOL    HW228965   0.292   0.779   8.604
75690SOL     OW28966  11.948   3.178  13.389
75690SOL    HW128967  11.861   3.202  13.419
75690SOL    HW228968  12.008   3.212  13.455
75691SOL     OW28969   6.193   4.521   5.388
75691SOL    HW128970   6.168   4.593   5.330
75691SOL    HW228971   6.169   4.442   5.340
75692SOL     OW28972   9.214   1.610  13.798
75692SOL    HW128973   9.153   1.680  13.822
75692SOL    HW228974   9.251   1.580  13.881
75693SOL     OW28975   5.346  14.786  14.649
75693SOL    HW128976   5.274  14.847  14.640
75693SOL    HW228977   5.405  14.827  14.712
75694SOL     OW28978   6.999   3.225  12.297
75694SOL    HW128979   7.014   3.217  12.203
75694SOL    HW228980   6.982   3.135  12.326
75695SOL     OW28981  11.018   2.634  12.005
75695SOL    HW128982  10.935   2.596  12.034
75695SOL    HW228983  11.033   2.707  12.066
75696SOL     OW28984  10.396  11.581   0.802
75696SOL    HW128985  10.322  11.545   0.753
75696SOL    HW228986  10.439  11.505   0.840
75697SOL     OW28987   8.256   6.533   1.612
75697SOL    HW128988   8.264   6.605   1.675
75697SOL    HW228989   8.219   6.461   1.663
75698SOL     OW28990   9.617  12.430   5.271
75698SOL    HW128991   9.649  12.460   5.186
75698SOL    HW228992   9.544  12.371   5.250
75699SOL     OW28993   8.538   9.578   7.821
75699SOL    HW128994   8.543   9.602   7.913
75699SOL    HW228995   8.444   9.569   7.803
75700SOL     OW28996   8.134   9.795  10.807
75700SOL    HW128997   8.105   9.885  10.793
75700SOL    HW228998   8.230   9.800  10.806
75701SOL     OW28999  13.874   5.243  13.600
75701SOL    HW129000  13.917   5.315  13.646
75701SOL    HW229001  13.943   5.178  13.587
75702SOL     OW29002   9.324   7.533   0.688
75702SOL    HW129003   9.302   7.613   0.641
75702SOL    HW229004   9.399   7.557   0.742
75703SOL     OW29005  12.482   6.919  14.594
75703SOL    HW129006  12.487   6.824  14.598
75703SOL    HW229007  12.390   6.939  14.613
75704SOL     OW29008   1.345   2.262  12.320
75704SOL    HW129009   1.280   2.332  12.326
75704SOL    HW229010   1.294   2.184  12.299
75705SOL     OW29011  14.859   0.157   2.068
75705SOL    HW129012   0.016   0.176   2.150
75705SOL    HW229013   0.028   0.194   2.000
75706SOL     OW29014  13.914   5.762   6.828
75706SOL    HW129015  13.972   5.756   6.752
75706SOL    HW229016  13.846   5.824   6.802
75707SOL     OW29017  14.850   2.250   7.113
75707SOL    HW129018  14.808   2.166   7.095
75707SOL    HW229019   0.056   2.230   7.115
75708SOL     OW29020  13.924   5.158   2.925
75708SOL    HW129021  13.869   5.082   2.909
75708SOL    HW229022  14.013   5.128   2.903
75709SOL     OW29023   0.694   9.178   4.273
75709SOL    HW129024   0.728   9.249   4.328
75709SOL    HW229025   0.704   9.209   4.183
75710SOL     OW29026   8.241  12.635   6.828
75710SOL    HW129027   8.248  12.657   6.735
75710SOL    HW229028   8.307  12.567   6.842
75711SOL     OW29029  14.380   6.508   7.939
75711SOL    HW129030  14.418   6.430   7.980
75711SOL    HW229031  14.345   6.559   8.012
75712SOL     OW29032   2.480  14.467   0.968
75712SOL    HW129033   2.402  14.523   0.977
75712SOL    HW229034   2.456  14.385   1.011
75713SOL     OW29035   6.149   6.279   7.227
75713SOL    HW129036   6.062   6.312   7.250
75713SOL    HW229037   6.195   6.273   7.310
75714SOL     OW29038  10.200  13.135   8.953
75714SOL    HW129039  10.241  13.207   9.001
75714SOL    HW229040  10.173  13.174   8.870
75715SOL     OW29041  10.776   1.454   1.458
75715SOL    HW129042  10.801   1.392   1.390
75715SOL    HW229043  10.859   1.483   1.497
75716SOL     OW29044   4.123   7.857   7.845
75716SOL    HW129045   4.080   7.891   7.924
75716SOL    HW229046   4.059   7.869   7.775
75717SOL     OW29047  13.243  14.378  12.245
75717SOL    HW129048  13.179  14.435  12.289
75717SOL    HW229049  13.233  14.398  12.152
75718SOL     OW29050   0.273  11.941   9.536
75718SOL    HW129051   0.214  11.867   9.523
75718SOL    HW229052   0.227  11.998   9.597
75719SOL     OW29053   5.696   0.092  12.422
75719SOL    HW129054   5.781   0.137  12.414
75719SOL    HW229055   5.682   0.052  12.337
75720SOL     OW29056   1.642   8.465   7.527
75720SOL    HW129057   1.648   8.370   7.516
75720SOL    HW229058   1.634   8.478   7.621
75721SOL     OW29059  10.944   0.905   3.390
75721SOL    HW129060  10.909   0.986   3.354
75721SOL    HW229061  10.993   0.932   3.468
75722SOL     OW29062   0.187  11.397  13.856
75722SOL    HW129063   0.175  11.488  13.881
75722SOL    HW229064   0.206  11.351  13.938
75723SOL     OW29065   3.723  12.771  12.903
75723SOL    HW129066   3.633  12.741  12.888
75723SOL    HW229067   3.714  12.860  12.936
75724SOL     OW29068   0.886  10.143  14.758
75724SOL    HW129069   0.851  10.231  14.775
75724SOL    HW229070   0.819  10.100  14.706
75725SOL     OW29071   9.852   8.220  14.240
75725SOL    HW129072   9.813   8.219  14.153
75725SOL    HW229073   9.933   8.270  14.230
75726SOL     OW29074   6.105  13.988   4.800
75726SOL    HW129075   6.176  14.052   4.811
75726SOL    HW229076   6.095  13.979   4.705
75727SOL     OW29077   3.571   7.439   8.628
75727SOL    HW129078   3.499   7.466   8.685
75727SOL    HW229079   3.637   7.508   8.638
75728SOL     OW29080  14.220  13.038  10.628
75728SOL    HW129081  14.149  13.019  10.690
75728SOL    HW229082  14.237  13.132  10.640
75729SOL     OW29083   1.285   7.370  13.456
75729SOL    HW129084   1.314   7.371  13.365
75729SOL    HW229085   1.197   7.406  13.454
75730SOL     OW29086   7.808   7.862   0.066
75730SOL    HW129087   7.781   7.776   0.033
75730SOL    HW229088   7.901   7.868   0.043
75731SOL     OW29089  10.838  13.730   0.741
75731SOL    HW129090  10.920  13.686   0.717
75731SOL    HW229091  10.846  13.744   0.836
75732SOL     OW29092   1.580  11.582   8.800
75732SOL    HW129093   1.527  11.515   8.842
75732SOL    HW229094   1.540  11.593   8.713
75733SOL     OW29095   2.942  10.948  11.780
75733SOL    HW129096   2.969  11.040  11.777
75733SOL    HW229097   2.856  10.950  11.823
75734SOL     OW29098   5.449   1.294   5.948
75734SOL    HW129099   5.387   1.291   5.875
75734SOL    HW229100   5.415   1.230   6.010
75735SOL     OW29101   2.504   9.628   4.762
75735SOL    HW129102   2.551   9.577   4.696
75735SOL    HW229103   2.462   9.563   4.818
75736SOL     OW29104   1.699  13.067   9.728
75736SOL    HW129105   1.752  13.147   9.723
75736SOL    HW229106   1.692  13.050   9.822
75737SOL     OW29107   9.852  12.464  11.214
75737SOL    HW129108   9.900  12.507  11.284
75737SOL    HW229109   9.795  12.401  11.258
75738SOL     OW29110  10.707  11.024   8.374
75738SOL    HW129111  10.744  10.994   8.291
75738SOL    HW229112  10.623  10.978   8.380
75739SOL     OW29113   0.607   6.327  12.848
75739SOL    HW129114   0.647   6.399  12.897
75739SOL    HW229115   0.514   6.336  12.865
75740SOL     OW29116   3.381   6.069   3.129
75740SOL    HW129117   3.422   6.071   3.215
75740SOL    HW229118   3.377   6.160   3.101
75741SOL     OW29119   5.630   0.369   2.668
75741SOL    HW129120   5.692   0.317   2.617
75741SOL    HW229121   5.547   0.361   2.621
75742SOL     OW29122   2.752   8.009  10.254
75742SOL    HW129123   2.673   8.011  10.200
75742SOL    HW229124   2.726   8.053  10.335
75743SOL     OW29125   6.699   5.628  14.782
75743SOL    HW129126   6.635   5.583  14.727
75743SOL    HW229127   6.784   5.597  14.751
75744SOL     OW29128  10.301   0.283  11.328
75744SOL    HW129129  10.295   0.341  11.403
75744SOL    HW229130  10.324   0.340  11.255
75745SOL     OW29131   0.985   8.141   0.119
75745SOL    HW129132   0.942   8.131   0.204
75745SOL    HW229133   0.919   8.182   0.064
75746SOL     OW29134   4.414   9.089   1.518
75746SOL    HW129135   4.494   9.037   1.532
75746SOL    HW229136   4.368   9.085   1.602
75747SOL     OW29137  13.081   5.177   0.500
75747SOL    HW129138  13.114   5.169   0.410
75747SOL    HW229139  12.987   5.159   0.492
75748SOL     OW29140   4.460  12.927   1.404
75748SOL    HW129141   4.385  12.904   1.459
75748SOL    HW229142   4.516  12.850   1.406
75749SOL     OW29143  12.358   2.333  14.448
75749SOL    HW129144  12.383   2.340  14.540
75749SOL    HW229145  12.353   2.238  14.432
75750SOL     OW29146  10.159   4.366  11.048
75750SOL    HW129147  10.125   4.359  10.959
75750SOL    HW229148  10.101   4.428  11.091
75751SOL     OW29149  10.495   0.211   5.944
75751SOL    HW129150  10.590   0.213   5.956
75751SOL    HW229151  10.475   0.121   5.920
75752SOL     OW29152  11.834   7.211   5.193
75752SOL    HW129153  11.755   7.175   5.154
75752SOL    HW229154  11.892   7.228   5.119
75753SOL     OW29155  13.636   4.495   3.414
75753SOL    HW129156  13.640   4.513   3.320
75753SOL    HW229157  13.559   4.439   3.425
75754SOL     OW29158  12.074  10.572  14.189
75754SOL    HW129159  12.116  10.560  14.104
75754SOL    HW229160  12.048  10.484  14.216
75755SOL     OW29161  10.363  11.322   6.742
75755SOL    HW129162  10.367  11.318   6.646
75755SOL    HW229163  10.448  11.357   6.768
75756SOL     OW29164  14.692   1.874   2.553
75756SOL    HW129165  14.678   1.910   2.641
75756SOL    HW229166  14.625   1.917   2.499
75757SOL     OW29167   5.913   8.723  10.498
75757SOL    HW129168   5.986   8.710  10.559
75757SOL    HW229169   5.847   8.661  10.526
75758SOL     OW29170  13.288   6.830   5.577
75758SOL    HW129171  13.381   6.852   5.588
75758SOL    HW229172  13.253   6.899   5.522
75759SOL     OW29173   5.874   6.612  10.383
75759SOL    HW129174   5.868   6.624  10.288
75759SOL    HW229175   5.785   6.629  10.415
75760SOL     OW29176   2.766   1.967   3.266
75760SOL    HW129177   2.798   2.044   3.312
75760SOL    HW229178   2.828   1.897   3.290
75761SOL     OW29179   1.507  12.640  11.553
75761SOL    HW129180   1.512  12.652  11.458
75761SOL    HW229181   1.478  12.725  11.587
75762SOL     OW29182   5.088  10.725   4.147
75762SOL    HW129183   5.001  10.739   4.184
75762SOL    HW229184   5.138  10.686   4.219
75763SOL     OW29185   1.698  13.963   9.207
75763SOL    HW129186   1.757  13.895   9.237
75763SOL    HW229187   1.750  14.015   9.146
75764SOL     OW29188  12.526   9.774   9.206
75764SOL    HW129189  12.504   9.863   9.179
75764SOL    HW229190  12.441   9.733   9.224
75765SOL     OW29191  12.754   0.199  13.559
75765SOL    HW129192  12.774   0.293  13.566
75765SOL    HW229193  12.757   0.181  13.466
75766SOL     OW29194   9.475   8.896  13.555
75766SOL    HW129195   9.485   8.991  13.543
75766SOL    HW229196   9.564   8.864  13.567
75767SOL     OW29197   1.720   1.874   8.149
75767SOL    HW129198   1.640   1.845   8.105
75767SOL    HW229199   1.691   1.898   8.237
75768SOL     OW29200   8.893   0.151   9.096
75768SOL    HW129201   8.834   0.079   9.117
75768SOL    HW229202   8.860   0.186   9.013
75769SOL     OW29203  11.094   8.986   7.399
75769SOL    HW129204  11.035   8.954   7.467
75769SOL    HW229205  11.101   8.913   7.337
75770SOL     OW29206  14.588   6.209   4.999
75770SOL    HW129207  14.644   6.286   5.012
75770SOL    HW229208  14.548   6.224   4.913
75771SOL     OW29209   3.990   8.661   4.250
75771SOL    HW129210   3.939   8.640   4.329
75771SOL    HW229211   4.009   8.576   4.211
75772SOL     OW29212   5.627   9.972   9.366
75772SOL    HW129213   5.628   9.924   9.449
75772SOL    HW229214   5.718   9.967   9.335
75773SOL     OW29215   9.886   3.782   1.423
75773SOL    HW129216   9.975   3.778   1.390
75773SOL    HW229217   9.858   3.691   1.427
75774SOL     OW29218   3.435   9.835   3.001
75774SOL    HW129219   3.425   9.853   3.094
75774SOL    HW229220   3.406   9.744   2.991
75775SOL     OW29221   5.704   3.325   8.752
75775SOL    HW129222   5.767   3.259   8.726
75775SOL    HW229223   5.620   3.294   8.717
75776SOL     OW29224   4.151  14.456   2.175
75776SOL    HW129225   4.142  14.541   2.218
75776SOL    HW229226   4.243  14.435   2.183
75777SOL     OW29227  10.662   2.854  12.855
75777SOL    HW129228  10.618   2.770  12.848
75777SOL    HW229229  10.749   2.839  12.818
75778SOL     OW29230   7.307   6.364   0.124
75778SOL    HW129231   7.377   6.423   0.097
75778SOL    HW229232   7.351   6.281   0.142
75779SOL     OW29233   0.420   2.686  12.598
75779SOL    HW129234   0.330   2.674  12.626
75779SOL    HW229235   0.414   2.697  12.503
75780SOL     OW29236  13.665   1.980   5.410
75780SOL    HW129237  13.602   1.972   5.339
75780SOL    HW229238  13.662   2.072   5.436
75781SOL     OW29239   9.226   5.604   4.774
75781SOL    HW129240   9.261   5.687   4.806
75781SOL    HW229241   9.302   5.558   4.739
75782SOL     OW29242   3.574   7.073   0.185
75782SOL    HW129243   3.603   7.131   0.255
75782SOL    HW229244   3.652   7.024   0.160
75783SOL     OW29245   4.194   7.581   7.519
75783SOL    HW129246   4.177   7.635   7.442
75783SOL    HW229247   4.257   7.633   7.570
75784SOL     OW29248   4.092   0.294  12.191
75784SOL    HW129249   4.171   0.344  12.168
75784SOL    HW229250   4.020   0.344  12.152
75785SOL     OW29251   5.597   0.292   9.449
75785SOL    HW129252   5.541   0.219   9.475
75785SOL    HW229253   5.541   0.349   9.397
75786SOL     OW29254  13.375   7.758   3.377
75786SOL    HW129255  13.446   7.707   3.415
75786SOL    HW229256  13.387   7.749   3.282
75787SOL     OW29257   4.939   8.846   5.362
75787SOL    HW129258   4.963   8.836   5.270
75787SOL    HW229259   4.896   8.764   5.385
75788SOL     OW29260  13.347   6.990   0.394
75788SOL    HW129261  13.351   6.914   0.452
75788SOL    HW229262  13.417   6.976   0.331
75789SOL     OW29263   8.972   6.993   2.973
75789SOL    HW129264   8.994   6.928   3.040
75789SOL    HW229265   8.978   6.945   2.890
75790SOL     OW29266  11.814   3.097   8.269
75790SOL    HW129267  11.732   3.133   8.237
75790SOL    HW229268  11.789   3.038   8.340
75791SOL     OW29269   4.791  11.753   5.143
75791SOL    HW129270   4.765  11.782   5.055
75791SOL    HW229271   4.711  11.718   5.181
75792SOL     OW29272   5.633  11.014   1.985
75792SOL    HW129273   5.722  11.010   1.950
75792SOL    HW229274   5.643  10.996   2.079
75793SOL     OW29275  12.051  11.617   9.437
75793SOL    HW129276  12.126  11.558   9.448
75793SOL    HW229277  12.033  11.650   9.525
75794SOL     OW29278  12.013  14.261   9.138
75794SOL    HW129279  12.035  14.346   9.100
75794SOL    HW229280  12.010  14.276   9.233
75795SOL     OW29281  14.127  11.531  13.623
75795SOL    HW129282  14.052  11.479  13.654
75795SOL    HW229283  14.097  11.621  13.626
75796SOL     OW29284   2.947  13.524   5.233
75796SOL    HW129285   2.898  13.455   5.188
75796SOL    HW229286   3.032  13.485   5.252
75797SOL     OW29287  12.249   1.972   5.414
75797SOL    HW129288  12.205   2.002   5.493
75797SOL    HW229289  12.293   2.050   5.380
75798SOL     OW29290   4.519   9.117  11.983
75798SOL    HW129291   4.469   9.181  11.931
75798SOL    HW229292   4.455   9.080  12.043
75799SOL     OW29293  12.196   8.664  13.658
75799SOL    HW129294  12.243   8.744  13.635
75799SOL    HW229295  12.240   8.632  13.737
75800SOL     OW29296   9.047   9.703   1.784
75800SOL    HW129297   9.042   9.624   1.837
75800SOL    HW229298   9.036   9.673   1.694
75801SOL     OW29299  10.916   6.884   1.079
75801SOL    HW129300  10.888   6.808   1.129
75801SOL    HW229301  10.966   6.936   1.142
75802SOL     OW29302   6.007   6.229   1.270
75802SOL    HW129303   5.991   6.135   1.271
75802SOL    HW229304   5.961   6.260   1.192
75803SOL     OW29305   2.039   1.705   1.885
75803SOL    HW129306   2.084   1.701   1.801
75803SOL    HW229307   1.971   1.771   1.873
75804SOL     OW29308   1.659  10.234   6.937
75804SOL    HW129309   1.595  10.303   6.954
75804SOL    HW229310   1.606  10.156   6.917
75805SOL     OW29311   4.143   5.513  13.106
75805SOL    HW129312   4.050   5.492  13.106
75805SOL    HW229313   4.171   5.500  13.015
75806SOL     OW29314   5.577   1.893   9.903
75806SOL    HW129315   5.573   1.803   9.936
75806SOL    HW229316   5.573   1.884   9.808
75807SOL     OW29317  10.366   2.651  11.233
75807SOL    HW129318  10.433   2.644  11.301
75807SOL    HW229319  10.407   2.613  11.155
75808SOL     OW29320   9.944   6.373   9.951
75808SOL    HW129321   9.934   6.460   9.914
75808SOL    HW229322   9.874   6.321   9.911
75809SOL     OW29323   1.726  12.379   4.390
75809SOL    HW129324   1.673  12.386   4.310
75809SOL    HW229325   1.758  12.468   4.405
75810SOL     OW29326   6.104   4.295   5.239
75810SOL    HW129327   6.030   4.301   5.300
75810SOL    HW229328   6.145   4.211   5.260
75811SOL     OW29329   7.679   8.328  11.479
75811SOL    HW129330   7.594   8.291  11.504
75811SOL    HW229331   7.657   8.408  11.432
75812SOL     OW29332  10.559  12.861   0.077
75812SOL    HW129333  10.603  12.792   0.028
75812SOL    HW229334  10.588  12.943   0.035
75813SOL     OW29335  12.881   6.503   9.238
75813SOL    HW129336  12.889   6.567   9.309
75813SOL    HW229337  12.971   6.479   9.217
75814SOL     OW29338  10.848   0.174   3.815
75814SOL    HW129339  10.863   0.108   3.747
75814SOL    HW229340  10.796   0.128   3.882
75815SOL     OW29341   3.567   9.384   1.828
75815SOL    HW129342   3.471   9.382   1.820
75815SOL    HW229343   3.583   9.405   1.920
75816SOL     OW29344   1.589   4.516   1.890
75816SOL    HW129345   1.666   4.502   1.834
75816SOL    HW229346   1.519   4.469   1.846
75817SOL     OW29347   5.613   5.976  12.512
75817SOL    HW129348   5.546   5.913  12.537
75817SOL    HW229349   5.610   5.980  12.417
75818SOL     OW29350  13.592   1.023  13.766
75818SOL    HW129351  13.619   1.003  13.677
75818SOL    HW229352  13.499   1.048  13.758
75819SOL     OW29353   2.902  10.851  13.092
75819SOL    HW129354   2.867  10.850  13.003
75819SOL    HW229355   2.947  10.935  13.099
75820SOL     OW29356  14.429   8.703   4.525
75820SOL    HW129357  14.478   8.665   4.452
75820SOL    HW229358  14.496   8.742   4.582
75821SOL     OW29359   6.446   1.240   3.525
75821SOL    HW129360   6.470   1.165   3.471
75821SOL    HW229361   6.530   1.279   3.550
75822SOL     OW29362   9.132  13.908   7.727
75822SOL    HW129363   9.095  13.996   7.725
75822SOL    HW229364   9.078  13.860   7.790
75823SOL     OW29365   6.491  11.445  12.495
75823SOL    HW129366   6.534  11.529  12.506
75823SOL    HW229367   6.410  11.453  12.545
75824SOL     OW29368   8.427  13.108   0.155
75824SOL    HW129369   8.498  13.053   0.188
75824SOL    HW229370   8.349  13.053   0.164
75825SOL     OW29371   4.065  13.497   4.062
75825SOL    HW129372   4.053  13.413   4.107
75825SOL    HW229373   3.990  13.550   4.090
75826SOL     OW29374   5.548   1.818   5.397
75826SOL    HW129375   5.592   1.894   5.434
75826SOL    HW229376   5.565   1.747   5.459
75827SOL     OW29377   6.805  12.912   6.478
75827SOL    HW129378   6.853  12.879   6.403
75827SOL    HW229379   6.825  12.851   6.549
75828SOL     OW29380   6.503  11.433  11.845
75828SOL    HW129381   6.532  11.342  11.838
75828SOL    HW229382   6.422  11.429  11.896
75829SOL     OW29383   3.848   5.568  12.042
75829SOL    HW129384   3.777   5.521  11.997
75829SOL    HW229385   3.914   5.583  11.974
75830SOL     OW29386   4.407   6.129  14.051
75830SOL    HW129387   4.345   6.061  14.078
75830SOL    HW229388   4.493   6.089  14.063
75831SOL     OW29389   9.921   5.242   7.064
75831SOL    HW129390   9.883   5.224   6.978
75831SOL    HW229391   9.994   5.301   7.045
75832SOL     OW29392   4.548  14.342   5.654
75832SOL    HW129393   4.564  14.302   5.569
75832SOL    HW229394   4.544  14.436   5.636
75833SOL     OW29395   5.846  10.135  14.416
75833SOL    HW129396   5.871  10.044  14.396
75833SOL    HW229397   5.876  10.186  14.341
75834SOL     OW29398  10.275   4.214   6.733
75834SOL    HW129399  10.338   4.148   6.704
75834SOL    HW229400  10.283   4.215   6.828
75835SOL     OW29401  14.811   4.068   0.595
75835SOL    HW129402  14.848   4.027   0.516
75835SOL    HW229403   0.000   4.094   0.647
75836SOL     OW29404  10.795   8.632  14.588
75836SOL    HW129405  10.845   8.552  14.607
75836SOL    HW229406  10.860   8.702  14.589
75837SOL     OW29407   7.936   2.201   1.946
75837SOL    HW129408   7.904   2.280   1.989
75837SOL    HW229409   8.022   2.226   1.912
75838SOL     OW29410  14.651   7.169  13.197
75838SOL    HW129411  14.714   7.111  13.154
75838SOL    HW229412  14.701   7.248  13.216
75839SOL     OW29413   8.700   5.219  10.818
75839SOL    HW129414   8.794   5.205  10.817
75839SOL    HW229415   8.685   5.273  10.895
75840SOL     OW29416  12.274   1.322   7.685
75840SOL    HW129417  12.313   1.244   7.725
75840SOL    HW229418  12.182   1.297   7.671
75841SOL     OW29419   4.295   9.141   7.909
75841SOL    HW129420   4.309   9.060   7.860
75841SOL    HW229421   4.310   9.117   8.000
75842SOL     OW29422   4.149  14.091   6.206
75842SOL    HW129423   4.071  14.140   6.235
75842SOL    HW229424   4.222  14.148   6.230
75843SOL     OW29425   9.070  13.146  13.398
75843SOL    HW129426   9.139  13.209  13.415
75843SOL    HW229427   9.097  13.066  13.443
75844SOL     OW29428   7.953  10.585   3.465
75844SOL    HW129429   7.940  10.491   3.454
75844SOL    HW229430   7.931  10.621   3.379
75845SOL     OW29431   5.560   6.972  10.444
75845SOL    HW129432   5.587   6.923  10.522
75845SOL    HW229433   5.496   6.915  10.401
75846SOL     OW29434   5.698  11.527   1.238
75846SOL    HW129435   5.765  11.458   1.236
75846SOL    HW229436   5.748  11.607   1.257
75847SOL     OW29437   8.684   0.698   7.786
75847SOL    HW129438   8.709   0.650   7.707
75847SOL    HW229439   8.710   0.788   7.770
75848SOL     OW29440   6.002   4.076   3.805
75848SOL    HW129441   5.973   3.994   3.765
75848SOL    HW229442   5.935   4.096   3.871
75849SOL     OW29443   2.418   7.051   5.785
75849SOL    HW129444   2.416   7.144   5.808
75849SOL    HW229445   2.337   7.015   5.821
75850SOL     OW29446   2.068   8.661   1.607
75850SOL    HW129447   2.111   8.721   1.545
75850SOL    HW229448   2.005   8.613   1.554
75851SOL     OW29449   6.688   5.123   1.864
75851SOL    HW129450   6.648   5.209   1.878
75851SOL    HW229451   6.616   5.068   1.833
75852SOL     OW29452   2.127  12.057   7.868
75852SOL    HW129453   2.048  12.089   7.825
75852SOL    HW229454   2.184  12.031   7.796
75853SOL     OW29455  13.783   8.034   0.518
75853SOL    HW129456  13.709   8.000   0.569
75853SOL    HW229457  13.748   8.047   0.430
75854SOL     OW29458   2.446   9.820   9.856
75854SOL    HW129459   2.367   9.839   9.907
75854SOL    HW229460   2.516   9.867   9.901
75855SOL     OW29461  12.167  12.870   4.042
75855SOL    HW129462  12.116  12.791   4.024
75855SOL    HW229463  12.148  12.929   3.969
75856SOL     OW29464   2.116  12.297  13.357
75856SOL    HW129465   2.168  12.377  13.362
75856SOL    HW229466   2.181  12.228  13.341
75857SOL     OW29467   3.012  10.645   5.790
75857SOL    HW129468   2.921  10.622   5.810
75857SOL    HW229469   3.056  10.561   5.777
75858SOL     OW29470  11.035   1.009  10.206
75858SOL    HW129471  11.038   0.924  10.250
75858SOL    HW229472  11.040   0.987  10.113
75859SOL     OW29473   5.841   1.072   3.309
75859SOL    HW129474   5.888   1.098   3.388
75859SOL    HW229475   5.750   1.061   3.338
75860SOL     OW29476  12.332  10.527   2.964
75860SOL    HW129477  12.404  10.571   2.919
75860SOL    HW229478  12.346  10.434   2.946
75861SOL     OW29479   9.652  14.574   7.905
75861SOL    HW129480   9.640  14.479   7.904
75861SOL    HW229481   9.682  14.596   7.817
75862SOL     OW29482  12.912   0.064   4.144
75862SOL    HW129483  12.881   0.039   4.057
75862SOL    HW229484  12.905  14.870   4.195
75863SOL     OW29485   6.872  12.296  13.353
75863SOL    HW129486   6.891  12.355  13.280
75863SOL    HW229487   6.788  12.325  13.387
75864SOL     OW29488   6.055   9.303   4.406
75864SOL    HW129489   6.117   9.297   4.478
75864SOL    HW229490   6.106   9.282   4.328
75865SOL     OW29491   4.530  10.802  13.754
75865SOL    HW129492   4.474  10.730  13.783
75865SOL    HW229493   4.494  10.827  13.669
75866SOL     OW29494   7.727   9.002   1.958
75866SOL    HW129495   7.762   8.916   1.933
75866SOL    HW229496   7.644   8.982   2.002
75867SOL     OW29497  13.172   6.119   7.102
75867SOL    HW129498  13.219   6.095   7.023
75867SOL    HW229499  13.138   6.207   7.084
75868SOL     OW29500   6.594  11.481   6.819
75868SOL    HW129501   6.658  11.540   6.859
75868SOL    HW229502   6.564  11.529   6.741
75869SOL     OW29503   6.175   6.835  13.431
75869SOL    HW129504   6.184   6.745  13.460
75869SOL    HW229505   6.085   6.859  13.452
75870SOL     OW29506   6.654  13.445   8.379
75870SOL    HW129507   6.633  13.533   8.409
75870SOL    HW229508   6.652  13.451   8.283
75871SOL     OW29509   8.309  13.120   3.416
75871SOL    HW129510   8.400  13.101   3.438
75871SOL    HW229511   8.258  13.056   3.465
75872SOL     OW29512   8.243   1.555  10.963
75872SOL    HW129513   8.264   1.461  10.957
75872SOL    HW229514   8.166   1.565  10.907
75873SOL     OW29515   0.838   2.672   6.402
75873SOL    HW129516   0.885   2.670   6.319
75873SOL    HW229517   0.746   2.678   6.376
75874SOL     OW29518   7.594  13.200  14.751
75874SOL    HW129519   7.545  13.281  14.735
75874SOL    HW229520   7.651  13.222  14.825
75875SOL     OW29521   3.079   2.715  11.601
75875SOL    HW129522   3.122   2.630  11.612
75875SOL    HW229523   2.986   2.697  11.617
75876SOL     OW29524   2.212   7.428   2.969
75876SOL    HW129525   2.202   7.435   3.064
75876SOL    HW229526   2.128   7.456   2.934
75877SOL     OW29527   8.753   2.349   4.686
75877SOL    HW129528   8.708   2.354   4.601
75877SOL    HW229529   8.700   2.402   4.745
75878SOL     OW29530  14.404   9.746  12.113
75878SOL    HW129531  14.323   9.798  12.112
75878SOL    HW229532  14.464   9.797  12.168
75879SOL     OW29533   3.439   4.554   0.858
75879SOL    HW129534   3.445   4.647   0.835
75879SOL    HW229535   3.523   4.518   0.830
75880SOL     OW29536   3.570  14.756   3.012
75880SOL    HW129537   3.587  14.666   2.984
75880SOL    HW229538   3.603  14.811   2.941
75881SOL     OW29539   6.833  10.245   7.433
75881SOL    HW129540   6.928  10.231   7.428
75881SOL    HW229541   6.817  10.262   7.526
75882SOL     OW29542   0.256   2.358  12.759
75882SOL    HW129543   0.307   2.322  12.831
75882SOL    HW229544   0.181   2.400  12.802
75883SOL     OW29545   2.222   3.668   4.371
75883SOL    HW129546   2.152   3.708   4.421
75883SOL    HW229547   2.252   3.595   4.424
75884SOL     OW29548   3.956   5.292   6.408
75884SOL    HW129549   3.928   5.353   6.340
75884SOL    HW229550   3.924   5.207   6.379
75885SOL     OW29551  12.530   5.396   2.537
75885SOL    HW129552  12.555   5.395   2.629
75885SOL    HW229553  12.481   5.477   2.526
75886SOL     OW29554   2.042   5.922   4.168
75886SOL    HW129555   2.138   5.929   4.172
75886SOL    HW229556   2.026   5.839   4.124
75887SOL     OW29557   4.025   8.071  12.584
75887SOL    HW129558   4.105   8.020  12.569
75887SOL    HW229559   3.973   8.059  12.505
75888SOL     OW29560   0.265  12.756   0.855
75888SOL    HW129561   0.271  12.694   0.928
75888SOL    HW229562   0.325  12.721   0.789
75889SOL     OW29563  11.860  12.086   5.936
75889SOL    HW129564  11.870  12.117   5.846
75889SOL    HW229565  11.843  11.992   5.928
75890SOL     OW29566   0.152   8.639  13.519
75890SOL    HW129567   0.216   8.638  13.591
75890SOL    HW229568   0.152   8.549  13.487
75891SOL     OW29569   3.341   0.151  13.337
75891SOL    HW129570   3.257   0.161  13.292
75891SOL    HW229571   3.380   0.072  13.298
75892SOL     OW29572   9.497   2.020   5.885
75892SOL    HW129573   9.586   2.024   5.919
75892SOL    HW229574   9.454   2.097   5.922
75893SOL     OW29575  14.307   7.363   5.463
75893SOL    HW129576  14.397   7.394   5.475
75893SOL    HW229577  14.288   7.381   5.371
75894SOL     OW29578   6.677   8.329   3.364
75894SOL    HW129579   6.662   8.261   3.299
75894SOL    HW229580   6.657   8.411   3.318
75895SOL     OW29581   2.233   0.910   2.390
75895SOL    HW129582   2.264   0.926   2.301
75895SOL    HW229583   2.298   0.953   2.446
75896SOL     OW29584   4.807   8.025   1.661
75896SOL    HW129585   4.847   7.950   1.706
75896SOL    HW229586   4.879   8.088   1.652
75897SOL     OW29587   3.692   3.281   7.613
75897SOL    HW129588   3.636   3.304   7.688
75897SOL    HW229589   3.774   3.252   7.652
75898SOL     OW29590   1.892  12.890   8.405
75898SOL    HW129591   1.928  12.872   8.319
75898SOL    HW229592   1.862  12.981   8.401
75899SOL     OW29593   2.213  10.329  10.235
75899SOL    HW129594   2.246  10.253  10.283
75899SOL    HW229595   2.194  10.296  10.147
75900SOL     OW29596   5.390   3.108   0.307
75900SOL    HW129597   5.420   3.122   0.396
75900SOL    HW229598   5.306   3.154   0.302
75901SOL     OW29599   7.585   3.849   8.090
75901SOL    HW129600   7.564   3.933   8.051
75901SOL    HW229601   7.505   3.823   8.136
75902SOL     OW29602   6.302   5.796  12.499
75902SOL    HW129603   6.374   5.846  12.461
75902SOL    HW229604   6.283   5.728  12.434
75903SOL     OW29605   3.243   6.473   9.185
75903SOL    HW129606   3.259   6.564   9.160
75903SOL    HW229607   3.303   6.457   9.258
75904SOL     OW29608   5.824   1.452   5.968
75904SOL    HW129609   5.769   1.390   6.015
75904SOL    HW229610   5.804   1.437   5.876
75905SOL     OW29611  14.095   0.440   0.161
75905SOL    HW129612  14.161   0.426   0.094
75905SOL    HW229613  14.126   0.515   0.212
75906SOL     OW29614  11.046   5.746   1.097
75906SOL    HW129615  10.953   5.765   1.092
75906SOL    HW229616  11.063   5.688   1.023
75907SOL     OW29617   0.700   1.594   0.785
75907SOL    HW129618   0.695   1.499   0.797
75907SOL    HW229619   0.774   1.621   0.839
75908SOL     OW29620   9.259   9.896   4.545
75908SOL    HW129621   9.274   9.930   4.634
75908SOL    HW229622   9.277   9.970   4.488
75909SOL     OW29623  13.981  13.997  10.445
75909SOL    HW129624  14.055  13.964  10.496
75909SOL    HW229625  14.021  14.039  10.369
75910SOL     OW29626  12.908   9.710   8.152
75910SOL    HW129627  12.952   9.781   8.106
75910SOL    HW229628  12.911   9.736   8.244
75911SOL     OW29629   7.215   2.680   3.820
75911SOL    HW129630   7.151   2.747   3.796
75911SOL    HW229631   7.187   2.601   3.774
75912SOL     OW29632   6.492   8.499  13.829
75912SOL    HW129633   6.431   8.468  13.896
75912SOL    HW229634   6.457   8.465  13.746
75913SOL     OW29635   8.487   4.203  11.284
75913SOL    HW129636   8.465   4.146  11.210
75913SOL    HW229637   8.583   4.210  11.281
75914SOL     OW29638   5.890   1.962   0.206
75914SOL    HW129639   5.942   2.028   0.251
75914SOL    HW229640   5.941   1.940   0.128
75915SOL     OW29641   1.495   0.398   0.246
75915SOL    HW129642   1.415   0.346   0.235
75915SOL    HW229643   1.508   0.401   0.341
75916SOL     OW29644   4.565   4.320   6.448
75916SOL    HW129645   4.659   4.310   6.429
75916SOL    HW229646   4.562   4.337   6.542
75917SOL     OW29647   1.562   9.311  13.511
75917SOL    HW129648   1.532   9.223  13.491
75917SOL    HW229649   1.481   9.360  13.528
75918SOL     OW29650   4.727  10.202  11.796
75918SOL    HW129651   4.685  10.249  11.868
75918SOL    HW229652   4.820  10.204  11.817
75919SOL     OW29653   8.545   3.434   8.830
75919SOL    HW129654   8.601   3.472   8.762
75919SOL    HW229655   8.480   3.384   8.781
75920SOL     OW29656   6.386   9.635   2.602
75920SOL    HW129657   6.335   9.691   2.543
75920SOL    HW229658   6.454   9.598   2.545
75921SOL     OW29659   3.460  13.347   1.992
75921SOL    HW129660   3.426  13.348   2.081
75921SOL    HW229661   3.553  13.326   2.002
75922SOL     OW29662   6.093  11.926  13.659
75922SOL    HW129663   6.111  11.956  13.570
75922SOL    HW229664   6.001  11.950  13.675
75923SOL     OW29665  12.394   5.419  10.794
75923SOL    HW129666  12.383   5.428  10.889
75923SOL    HW229667  12.322   5.471  10.757
75924SOL     OW29668  10.464  11.894   5.263
75924SOL    HW129669  10.538  11.943   5.297
75924SOL    HW229670  10.451  11.927   5.174
75925SOL     OW29671  11.933   7.895   7.084
75925SOL    HW129672  11.939   7.971   7.141
75925SOL    HW229673  11.839   7.882   7.070
75926SOL     OW29674   4.244  13.925   5.732
75926SOL    HW129675   4.230  13.987   5.804
75926SOL    HW229676   4.282  13.847   5.775
75927SOL     OW29677   7.194  12.215  14.224
75927SOL    HW129678   7.242  12.182  14.148
75927SOL    HW229679   7.147  12.292  14.192
75928SOL     OW29680  11.625   6.276   4.564
75928SOL    HW129681  11.679   6.285   4.485
75928SOL    HW229682  11.627   6.183   4.584
75929SOL     OW29683  10.751   6.336   0.785
75929SOL    HW129684  10.773   6.338   0.692
75929SOL    HW229685  10.836   6.338   0.830
75930SOL     OW29686   0.420   1.979   7.266
75930SOL    HW129687   0.474   2.004   7.191
75930SOL    HW229688   0.376   2.060   7.292
75931SOL     OW29689  11.066   2.944   2.164
75931SOL    HW129690  11.131   2.945   2.093
75931SOL    HW229691  10.983   2.962   2.120
75932SOL     OW29692   1.889   2.686   2.555
75932SOL    HW129693   1.951   2.623   2.592
75932SOL    HW229694   1.803   2.645   2.566
75933SOL     OW29695  12.217   3.077  11.393
75933SOL    HW129696  12.288   3.142  11.398
75933SOL    HW229697  12.226   3.038  11.306
75934SOL     OW29698  13.120   7.135   4.482
75934SOL    HW129699  13.112   7.079   4.559
75934SOL    HW229700  13.083   7.219   4.509
75935SOL     OW29701   3.686   4.197  13.222
75935SOL    HW129702   3.655   4.209  13.312
75935SOL    HW229703   3.660   4.278  13.177
75936SOL     OW29704   9.049   3.053   3.221
75936SOL    HW129705   8.959   3.083   3.236
75936SOL    HW229706   9.103   3.112   3.274
75937SOL     OW29707   5.646   0.997   0.020
75937SOL    HW129708   5.613   0.913  14.877
75937SOL    HW229709   5.684   1.037  14.828
75938SOL     OW29710  13.487   2.293   7.056
75938SOL    HW129711  13.532   2.211   7.075
75938SOL    HW229712  13.482   2.338   7.141
75939SOL     OW29713   6.622   7.641  13.953
75939SOL    HW129714   6.704   7.610  13.989
75939SOL    HW229715   6.645   7.722  13.907
75940SOL     OW29716   7.649  14.031   5.738
75940SOL    HW129717   7.689  14.114   5.762
75940SOL    HW229718   7.689  13.967   5.797
75941SOL     OW29719  13.997   3.440   2.819
75941SOL    HW129720  14.052   3.510   2.854
75941SOL    HW229721  13.933   3.423   2.888
75942SOL     OW29722   8.654  13.660   4.656
75942SOL    HW129723   8.585  13.597   4.638
75942SOL    HW229724   8.672  13.650   4.749
75943SOL     OW29725   5.424  13.626   1.829
75943SOL    HW129726   5.483  13.651   1.758
75943SOL    HW229727   5.479  13.575   1.889
75944SOL     OW29728  10.433   7.989  10.108
75944SOL    HW129729  10.461   8.044  10.181
75944SOL    HW229730  10.512   7.977  10.055
75945SOL     OW29731   4.219   3.802   2.543
75945SOL    HW129732   4.282   3.866   2.576
75945SOL    HW229733   4.271   3.743   2.488
75946SOL     OW29734   4.892   7.817  14.504
75946SOL    HW129735   4.978   7.842  14.471
75946SOL    HW229736   4.860   7.752  14.441
75947SOL     OW29737   1.571  13.791  13.884
75947SOL    HW129738   1.585  13.703  13.849
75947SOL    HW229739   1.617  13.849  13.824
75948SOL     OW29740   1.196   0.018   3.535
75948SOL    HW129741   1.116  14.857   3.514
75948SOL    HW229742   1.240   0.028   3.450
75949SOL     OW29743  11.878   7.426   2.271
75949SOL    HW129744  11.805   7.488   2.270
75949SOL    HW229745  11.915   7.435   2.359
75950SOL     OW29746  13.084  11.046   7.445
75950SOL    HW129747  13.154  11.109   7.463
75950SOL    HW229748  13.085  11.037   7.350
75951SOL     OW29749   4.749  11.955  10.970
75951SOL    HW129750   4.805  11.895  10.920
75951SOL    HW229751   4.727  12.025  10.909
75952SOL     OW29752  12.274   6.087   4.935
75952SOL    HW129753  12.219   6.163   4.955
75952SOL    HW229754  12.314   6.107   4.851
75953SOL     OW29755  11.461  11.357   8.329
75953SOL    HW129756  11.528  11.410   8.372
75953SOL    HW229757  11.421  11.306   8.400
75954SOL     OW29758   0.413   3.239   6.886
75954SOL    HW129759   0.429   3.239   6.980
75954SOL    HW229760   0.364   3.158   6.870
75955SOL     OW29761   3.214   4.116   3.370
75955SOL    HW129762   3.272   4.186   3.339
75955SOL    HW229763   3.132   4.161   3.393
75956SOL     OW29764   3.283   6.627  12.569
75956SOL    HW129765   3.268   6.693  12.501
75956SOL    HW229766   3.223   6.650  12.639
75957SOL     OW29767  13.820   2.663   9.087
75957SOL    HW129768  13.894   2.697   9.037
75957SOL    HW229769  13.785   2.739   9.133
75958SOL     OW29770   8.927   4.815   1.059
75958SOL    HW129771   8.972   4.868   1.125
75958SOL    HW229772   8.974   4.833   0.978
75959SOL     OW29773  12.124  10.869   9.303
75959SOL    HW129774  12.070  10.909   9.234
75959SOL    HW229775  12.208  10.916   9.298
75960SOL     OW29776   2.133  10.405   7.591
75960SOL    HW129777   2.184  10.419   7.512
75960SOL    HW229778   2.077  10.330   7.571
75961SOL     OW29779   8.751   4.909   6.990
75961SOL    HW129780   8.698   4.898   6.912
75961SOL    HW229781   8.747   4.824   7.035
75962SOL     OW29782  13.071   9.095   7.670
75962SOL    HW129783  13.141   9.088   7.734
75962SOL    HW229784  13.014   9.021   7.687
75963SOL     OW29785   4.127   1.253  14.453
75963SOL    HW129786   4.181   1.181  14.486
75963SOL    HW229787   4.051   1.254  14.511
75964SOL     OW29788   0.799   1.947   5.836
75964SOL    HW129789   0.876   1.934   5.781
75964SOL    HW229790   0.744   2.009   5.788
75965SOL     OW29791   2.152   6.294   2.334
75965SOL    HW129792   2.199   6.346   2.268
75965SOL    HW229793   2.221   6.260   2.391
75966SOL     OW29794   0.506   3.964   3.904
75966SOL    HW129795   0.543   4.050   3.921
75966SOL    HW229796   0.468   3.937   3.988
75967SOL     OW29797   0.521   6.263  11.913
75967SOL    HW129798   0.570   6.225  11.986
75967SOL    HW229799   0.551   6.214  11.836
75968SOL     OW29800  10.429  12.860   1.771
75968SOL    HW129801  10.399  12.844   1.860
75968SOL    HW229802  10.349  12.867   1.719
75969SOL     OW29803   1.929  14.416   4.701
75969SOL    HW129804   1.938  14.454   4.788
75969SOL    HW229805   1.873  14.477   4.654
75970SOL     OW29806   8.158   4.801   5.750
75970SOL    HW129807   8.101   4.750   5.807
75970SOL    HW229808   8.100   4.837   5.684
75971SOL     OW29809   3.769  10.513   8.267
75971SOL    HW129810   3.836  10.445   8.273
75971SOL    HW229811   3.722  10.493   8.186
75972SOL     OW29812   7.811  13.569   9.280
75972SOL    HW129813   7.793  13.653   9.323
75972SOL    HW229814   7.789  13.503   9.346
75973SOL     OW29815   6.858   8.116  10.426
75973SOL    HW129816   6.868   8.104  10.332
75973SOL    HW229817   6.938   8.162  10.453
75974SOL     OW29818   1.593   8.260   4.914
75974SOL    HW129819   1.650   8.274   4.990
75974SOL    HW229820   1.531   8.192   4.943
75975SOL     OW29821   6.596  13.258   9.960
75975SOL    HW129822   6.582  13.350   9.936
75975SOL    HW229823   6.686  13.239   9.933
75976SOL     OW29824  14.187  10.837   1.175
75976SOL    HW129825  14.123  10.872   1.235
75976SOL    HW229826  14.266  10.825   1.228
75977SOL     OW29827   2.728   4.646   6.844
75977SOL    HW129828   2.689   4.581   6.785
75977SOL    HW229829   2.655   4.704   6.867
75978SOL     OW29830  14.455   3.054  14.162
75978SOL    HW129831  14.478   3.132  14.112
75978SOL    HW229832  14.377   3.079  14.211
75979SOL     OW29833   8.367   8.145   4.686
75979SOL    HW129834   8.322   8.193   4.755
75979SOL    HW229835   8.339   8.054   4.697
75980SOL     OW29836   2.445  10.008   6.602
75980SOL    HW129837   2.351   9.989   6.599
75980SOL    HW229838   2.468  10.025   6.511
75981SOL     OW29839   2.892   3.144   2.520
75981SOL    HW129840   2.840   3.076   2.563
75981SOL    HW229841   2.900   3.114   2.429
75982SOL     OW29842   9.643   0.283   7.724
75982SOL    HW129843   9.686   0.356   7.767
75982SOL    HW229844   9.676   0.205   7.769
75983SOL     OW29845   9.759   4.737   1.756
75983SOL    HW129846   9.673   4.769   1.785
75983SOL    HW229847   9.753   4.738   1.661
75984SOL     OW29848   1.103   8.472   8.432
75984SOL    HW129849   1.156   8.425   8.496
75984SOL    HW229850   1.127   8.434   8.348
75985SOL     OW29851   9.591   3.317  10.786
75985SOL    HW129852   9.610   3.226  10.811
75985SOL    HW229853   9.538   3.309  10.707
75986SOL     OW29854   4.004   8.304   9.996
75986SOL    HW129855   4.017   8.347   9.911
75986SOL    HW229856   3.909   8.301  10.007
75987SOL     OW29857  14.798  10.977   0.017
75987SOL    HW129858  14.747  10.896   0.022
75987SOL    HW229859  14.791  11.014   0.105
75988SOL     OW29860   8.678  10.584   8.198
75988SOL    HW129861   8.638  10.544   8.120
75988SOL    HW229862   8.604  10.618   8.248
75989SOL     OW29863  11.910   1.987   5.771
75989SOL    HW129864  11.870   1.901   5.784
75989SOL    HW229865  11.881   2.039   5.846
75990SOL     OW29866   5.695   7.439   9.141
75990SOL    HW129867   5.646   7.372   9.094
75990SOL    HW229868   5.783   7.436   9.102
75991SOL     OW29869   6.434  11.647   4.620
75991SOL    HW129870   6.443  11.723   4.562
75991SOL    HW229871   6.444  11.571   4.563
75992SOL     OW29872   5.944   5.259  10.945
75992SOL    HW129873   6.004   5.244  10.872
75992SOL    HW229874   5.989   5.323  11.000
75993SOL     OW29875  11.730  11.527  12.981
75993SOL    HW129876  11.821  11.556  12.984
75993SOL    HW229877  11.732  11.445  12.932
75994SOL     OW29878   2.002  10.711   0.617
75994SOL    HW129879   2.019  10.773   0.687
75994SOL    HW229880   2.011  10.763   0.537
75995SOL     OW29881   5.919  13.626   0.872
75995SOL    HW129882   5.905  13.718   0.848
75995SOL    HW229883   6.014  13.614   0.870
75996SOL     OW29884   3.489   0.646   1.887
75996SOL    HW129885   3.489   0.636   1.792
75996SOL    HW229886   3.408   0.601   1.915
75997SOL     OW29887   1.522   2.200  13.150
75997SOL    HW129888   1.558   2.286  13.130
75997SOL    HW229889   1.428   2.209  13.135
75998SOL     OW29890  14.559  10.477   0.043
75998SOL    HW129891  14.643  10.433   0.034
75998SOL    HW229892  14.548  10.489   0.137
75999SOL     OW29893  10.991  14.766   5.786
75999SOL    HW129894  11.036  14.831   5.839
75999SOL    HW229895  10.986  14.688   5.842
76000SOL     OW29896   4.108   4.788   4.085
76000SOL    HW129897   4.041   4.854   4.108
76000SOL    HW229898   4.132   4.808   3.995
76001SOL     OW29899  12.815  10.458   7.201
76001SOL    HW129900  12.809  10.521   7.129
76001SOL    HW229901  12.906  10.465   7.230
76002SOL     OW29902   2.260   0.464   7.086
76002SOL    HW129903   2.180   0.464   7.034
76002SOL    HW229904   2.330   0.450   7.023
76003SOL     OW29905  10.062  13.417   2.247
76003SOL    HW129906  10.065  13.355   2.320
76003SOL    HW229907  10.109  13.495   2.280
76004SOL     OW29908   9.599   2.136   3.639
76004SOL    HW129909   9.549   2.207   3.679
76004SOL    HW229910   9.601   2.068   3.707
76005SOL     OW29911  14.229   9.168  14.679
76005SOL    HW129912  14.189   9.160  14.592
76005SOL    HW229913  14.154   9.181  14.738
76006SOL     OW29914   4.568   7.781  14.828
76006SOL    HW129915   4.522   7.770  14.745
76006SOL    HW229916   4.657   7.750  14.809
76007SOL     OW29917   3.654   4.980  10.723
76007SOL    HW129918   3.740   4.968  10.685
76007SOL    HW229919   3.670   4.987  10.817
76008SOL     OW29920   7.343   6.301   9.785
76008SOL    HW129921   7.400   6.338   9.718
76008SOL    HW229922   7.257   6.297   9.745
76009SOL     OW29923  12.776   9.100   4.614
76009SOL    HW129924  12.749   9.106   4.706
76009SOL    HW229925  12.871   9.115   4.616
76010SOL     OW29926   9.553   9.531   1.807
76010SOL    HW129927   9.544   9.546   1.901
76010SOL    HW229928   9.555   9.619   1.769
76011SOL     OW29929   5.882  11.190   0.882
76011SOL    HW129930   5.850  11.208   0.793
76011SOL    HW229931   5.908  11.098   0.880
76012SOL     OW29932   1.053   1.795   8.139
76012SOL    HW129933   1.111   1.848   8.194
76012SOL    HW229934   1.106   1.720   8.114
76013SOL     OW29935   4.856   8.834  13.391
76013SOL    HW129936   4.820   8.921  13.371
76013SOL    HW229937   4.833   8.820  13.483
76014SOL     OW29938   4.030   0.816   1.539
76014SOL    HW129939   3.978   0.893   1.565
76014SOL    HW229940   4.116   0.852   1.516
76015SOL     OW29941   2.902  14.602  11.816
76015SOL    HW129942   2.967  14.667  11.844
76015SOL    HW229943   2.825  14.654  11.792
76016SOL     OW29944   7.959  14.539   8.250
76016SOL    HW129945   7.982  14.625   8.284
76016SOL    HW229946   7.977  14.544   8.156
76017SOL     OW29947   4.517   9.839   1.455
76017SOL    HW129948   4.526   9.746   1.435
76017SOL    HW229949   4.436   9.865   1.412
76018SOL     OW29950  10.864  11.472   0.918
76018SOL    HW129951  10.822  11.540   0.866
76018SOL    HW229952  10.943  11.514   0.952
76019SOL     OW29953   2.931  13.382  11.146
76019SOL    HW129954   2.855  13.336  11.179
76019SOL    HW229955   3.006  13.328  11.173
76020SOL     OW29956  10.987  14.790   4.783
76020SOL    HW129957  10.917  14.737   4.821
76020SOL    HW229958  11.049  14.804   4.854
76021SOL     OW29959  13.716   0.909   4.251
76021SOL    HW129960  13.742   0.862   4.330
76021SOL    HW229961  13.623   0.887   4.240
76022SOL     OW29962  14.643  14.784  11.042
76022SOL    HW129963  14.637  14.875  11.071
76022SOL    HW229964  14.586  14.736  11.103
76023SOL     OW29965   6.041  14.109   1.614
76023SOL    HW129966   6.010  14.045   1.550
76023SOL    HW229967   5.980  14.101   1.688
76024SOL     OW29968   6.450  10.137   3.485
76024SOL    HW129969   6.530  10.100   3.449
76024SOL    HW229970   6.396  10.156   3.408
76025SOL     OW29971  10.838  13.469   5.039
76025SOL    HW129972  10.782  13.402   5.001
76025SOL    HW229973  10.823  13.547   4.985
76026SOL     OW29974   2.540   3.521  14.140
76026SOL    HW129975   2.603   3.450  14.129
76026SOL    HW229976   2.504   3.508  14.228
76027SOL     OW29977   0.801   9.918   5.936
76027SOL    HW129978   0.744   9.913   5.859
76027SOL    HW229979   0.743   9.898   6.010
76028SOL     OW29980   4.544   1.789   2.989
76028SOL    HW129981   4.603   1.736   2.935
76028SOL    HW229982   4.510   1.728   3.054
76029SOL     OW29983  12.520  13.577  11.749
76029SOL    HW129984  12.608  13.582  11.785
76029SOL    HW229985  12.523  13.504  11.687
76030SOL     OW29986   9.064   9.355   5.549
76030SOL    HW129987   9.059   9.299   5.627
76030SOL    HW229988   9.113   9.303   5.486
76031SOL     OW29989   4.565   6.388  11.037
76031SOL    HW129990   4.544   6.323  11.104
76031SOL    HW229991   4.648   6.359  11.000
76032SOL     OW29992   4.462   2.042   5.234
76032SOL    HW129993   4.417   2.012   5.313
76032SOL    HW229994   4.523   2.109   5.265
76033SOL     OW29995   7.241   2.498   7.177
76033SOL    HW129996   7.264   2.472   7.266
76033SOL    HW229997   7.293   2.442   7.120
76034SOL     OW29998   7.454   7.451  13.601
76034SOL    HW129999   7.520   7.512  13.634
76034SOL    HW230000   7.491   7.364  13.615
76035SOL     OW30001   1.710  14.256   3.612
76035SOL    HW130002   1.777  14.294   3.668
76035SOL    HW230003   1.729  14.291   3.525
76036SOL     OW30004   5.469  11.954  14.392
76036SOL    HW130005   5.434  12.043  14.399
76036SOL    HW230006   5.564  11.964  14.400
76037SOL     OW30007   9.408   1.876  10.209
76037SOL    HW130008   9.375   1.950  10.158
76037SOL    HW230009   9.342   1.808  10.196
76038SOL     OW30010  11.604   4.264   6.359
76038SOL    HW130011  11.637   4.179   6.389
76038SOL    HW230012  11.634   4.326   6.426
76039SOL     OW30013  11.177   3.807   5.645
76039SOL    HW130014  11.108   3.789   5.709
76039SOL    HW230015  11.150   3.890   5.605
76040SOL     OW30016  14.381   0.196  13.489
76040SOL    HW130017  14.305   0.238  13.530
76040SOL    HW230018  14.446   0.266  13.483
76041SOL     OW30019   2.541  11.413  11.293
76041SOL    HW130020   2.500  11.359  11.361
76041SOL    HW230021   2.635  11.404  11.307
76042SOL     OW30022   3.696   0.490   2.324
76042SOL    HW130023   3.645   0.488   2.404
76042SOL    HW230024   3.653   0.427   2.266
76043SOL     OW30025   4.070   9.581   2.743
76043SOL    HW130026   4.088   9.672   2.766
76043SOL    HW230027   4.013   9.586   2.666
76044SOL     OW30028   2.379  12.851   8.586
76044SOL    HW130029   2.362  12.760   8.563
76044SOL    HW230030   2.396  12.894   8.502
76045SOL     OW30031   4.300   8.368   3.266
76045SOL    HW130032   4.355   8.302   3.307
76045SOL    HW230033   4.331   8.452   3.301
76046SOL     OW30034   6.726   6.873  14.448
76046SOL    HW130035   6.787   6.946  14.459
76046SOL    HW230036   6.775   6.807  14.400
76047SOL     OW30037   2.181   5.750   8.258
76047SOL    HW130038   2.259   5.746   8.312
76047SOL    HW230039   2.132   5.671   8.281
76048SOL     OW30040  11.083   4.943  10.139
76048SOL    HW130041  11.063   5.037  10.139
76048SOL    HW230042  11.128   4.928  10.055
76049SOL     OW30043   2.317   6.157   2.113
76049SOL    HW130044   2.325   6.082   2.054
76049SOL    HW230045   2.332   6.234   2.057
76050SOL     OW30046   3.320  11.116   9.685
76050SOL    HW130047   3.349  11.035   9.642
76050SOL    HW230048   3.231  11.096   9.714
76051SOL     OW30049  12.144   3.724   1.344
76051SOL    HW130050  12.137   3.633   1.373
76051SOL    HW230051  12.238   3.739   1.334
76052SOL     OW30052   1.013   1.590  11.088
76052SOL    HW130053   1.094   1.603  11.039
76052SOL    HW230054   0.977   1.508  11.055
76053SOL     OW30055  12.632   5.487  10.090
76053SOL    HW130056  12.698   5.539  10.044
76053SOL    HW230057  12.636   5.517  10.181
76054SOL     OW30058  10.600   4.323   2.681
76054SOL    HW130059  10.668   4.263   2.711
76054SOL    HW230060  10.518   4.280   2.706
76055SOL     OW30061   8.001  13.595  10.008
76055SOL    HW130062   7.974  13.504  10.024
76055SOL    HW230063   8.095  13.595  10.024
76056SOL     OW30064   9.177  11.028   9.221
76056SOL    HW130065   9.236  10.953   9.221
76056SOL    HW230066   9.200  11.077   9.142
76057SOL     OW30067  11.017  12.954  11.500
76057SOL    HW130068  11.074  12.977  11.573
76057SOL    HW230069  11.050  12.869  11.470
76058SOL     OW30070   4.207  11.080   3.535
76058SOL    HW130071   4.250  11.008   3.490
76058SOL    HW230072   4.277  11.145   3.547
76059SOL     OW30073   8.820   2.309   5.278
76059SOL    HW130074   8.732   2.342   5.295
76059SOL    HW230075   8.838   2.250   5.351
76060SOL     OW30076  12.271  14.168   4.797
76060SOL    HW130077  12.266  14.161   4.892
76060SOL    HW230078  12.364  14.183   4.778
76061SOL     OW30079   6.121   4.457   0.709
76061SOL    HW130080   6.170   4.465   0.627
76061SOL    HW230081   6.030   4.446   0.682
76062SOL     OW30082  14.754   4.322   0.950
76062SOL    HW130083  14.759   4.398   0.892
76062SOL    HW230084  14.798   4.351   1.030
76063SOL     OW30085   7.576  12.863  11.544
76063SOL    HW130086   7.636  12.901  11.480
76063SOL    HW230087   7.513  12.932  11.562
76064SOL     OW30088   9.458   1.623   8.141
76064SOL    HW130089   9.456   1.692   8.074
76064SOL    HW230090   9.476   1.670   8.222
76065SOL     OW30091   8.650   9.910   1.093
76065SOL    HW130092   8.571   9.950   1.130
76065SOL    HW230093   8.712   9.909   1.166
76066SOL     OW30094   0.754   8.517   8.647
76066SOL    HW130095   0.764   8.448   8.713
76066SOL    HW230096   0.680   8.569   8.678
76067SOL     OW30097  13.027   5.435   3.820
76067SOL    HW130098  12.978   5.382   3.758
76067SOL    HW230099  13.062   5.372   3.883
76068SOL     OW30100   0.109   2.389  11.605
76068SOL    HW130101   0.085   2.481  11.621
76068SOL    HW230102   0.204   2.387  11.617
76069SOL     OW30103  13.458  13.374  10.760
76069SOL    HW130104  13.427  13.460  10.733
76069SOL    HW230105  13.415  13.312  10.701
76070SOL     OW30106  13.903   1.314   6.287
76070SOL    HW130107  13.885   1.253   6.359
76070SOL    HW230108  13.864   1.273   6.210
76071SOL     OW30109  10.857   2.825   0.171
76071SOL    HW130110  10.933   2.792   0.219
76071SOL    HW230111  10.782   2.787   0.216
76072SOL     OW30112   4.314   7.678   0.984
76072SOL    HW130113   4.355   7.629   1.055
76072SOL    HW230114   4.343   7.634   0.904
76073SOL     OW30115  10.633   2.087   9.098
76073SOL    HW130116  10.550   2.041   9.107
76073SOL    HW230117  10.620   2.169   9.145
76074SOL     OW30118   0.807   1.907   5.255
76074SOL    HW130119   0.892   1.930   5.219
76074SOL    HW230120   0.783   1.827   5.208
76075SOL     OW30121  13.321  12.810   4.947
76075SOL    HW130122  13.301  12.752   4.873
76075SOL    HW230123  13.266  12.779   5.018
76076SOL     OW30124   8.336  10.420   6.871
76076SOL    HW130125   8.260  10.416   6.929
76076SOL    HW230126   8.350  10.330   6.842
76077SOL     OW30127   7.770   7.145  14.612
76077SOL    HW130128   7.722   7.063  14.605
76077SOL    HW230129   7.800   7.148  14.703
76078SOL     OW30130  12.777   0.267  14.834
76078SOL    HW130131  12.692   0.310  14.818
76078SOL    HW230132  12.762   0.214   0.024
76079SOL     OW30133  11.922   4.085   4.965
76079SOL    HW130134  11.917   4.133   4.882
76079SOL    HW230135  11.835   4.096   5.003
76080SOL     OW30136   9.787   2.907   9.063
76080SOL    HW130137   9.866   2.953   9.037
76080SOL    HW230138   9.816   2.817   9.081
76081SOL     OW30139   4.344  13.449   4.028
76081SOL    HW130140   4.377  13.491   4.107
76081SOL    HW230141   4.250  13.472   4.026
76082SOL     OW30142  13.129  10.009   9.555
76082SOL    HW130143  13.187  10.043   9.487
76082SOL    HW230144  13.043  10.045   9.533
76083SOL     OW30145   4.051   0.999   4.244
76083SOL    HW130146   4.123   1.046   4.204
76083SOL    HW230147   3.977   1.012   4.185
76084SOL     OW30148  14.199   6.494  11.099
76084SOL    HW130149  14.220   6.464  11.187
76084SOL    HW230150  14.162   6.417  11.056
76085SOL     OW30151   3.177   8.008  13.594
76085SOL    HW130152   3.183   8.054  13.677
76085SOL    HW230153   3.166   8.078  13.529
76086SOL     OW30154   2.849   6.246   0.966
76086SOL    HW130155   2.942   6.255   0.947
76086SOL    HW230156   2.817   6.183   0.902
76087SOL     OW30157   1.172   4.933  11.829
76087SOL    HW130158   1.218   5.013  11.854
76087SOL    HW230159   1.200   4.868  11.893
76088SOL     OW30160   6.585   5.562   8.144
76088SOL    HW130161   6.630   5.529   8.067
76088SOL    HW230162   6.571   5.655   8.125
76089SOL     OW30163  11.520  13.089  11.520
76089SOL    HW130164  11.547  13.043  11.440
76089SOL    HW230165  11.588  13.067  11.584
76090SOL     OW30166  14.377   4.474  12.360
76090SOL    HW130167  14.397   4.382  12.377
76090SOL    HW230168  14.282   4.476  12.348
76091SOL     OW30169   1.846   1.716  14.256
76091SOL    HW130170   1.796   1.797  14.263
76091SOL    HW230171   1.888   1.722  14.170
76092SOL     OW30172  10.174   5.569  12.148
76092SOL    HW130173  10.102   5.535  12.094
76092SOL    HW230174  10.139   5.568  12.237
76093SOL     OW30175   9.444   7.514  12.814
76093SOL    HW130176   9.412   7.604  12.822
76093SOL    HW230177   9.387   7.474  12.749
76094SOL     OW30178  11.174   2.531   7.092
76094SOL    HW130179  11.159   2.442   7.060
76094SOL    HW230180  11.227   2.572   7.024
76095SOL     OW30181   2.425   9.044   3.612
76095SOL    HW130182   2.371   8.974   3.649
76095SOL    HW230183   2.484   9.069   3.683
76096SOL     OW30184   1.046   5.605   2.954
76096SOL    HW130185   1.136   5.636   2.960
76096SOL    HW230186   1.040   5.567   2.866
76097SOL     OW30187  11.868   0.343   9.290
76097SOL    HW130188  11.779   0.310   9.298
76097SOL    HW230189  11.899   0.309   9.205
76098SOL     OW30190   8.682   3.184   2.649
76098SOL    HW130191   8.590   3.171   2.630
76098SOL    HW230192   8.719   3.096   2.651
76099SOL     OW30193   4.971  14.188   6.317
76099SOL    HW130194   4.889  14.183   6.266
76099SOL    HW230195   5.009  14.100   6.309
76100SOL     OW30196   2.532   8.921   4.367
76100SOL    HW130197   2.548   9.013   4.386
76100SOL    HW230198   2.572   8.874   4.439
76101SOL     OW30199   1.046   1.178   9.987
76101SOL    HW130200   1.128   1.196   9.941
76101SOL    HW230201   1.043   1.083   9.995
76102SOL     OW30202   4.764   5.323   2.538
76102SOL    HW130203   4.743   5.317   2.631
76102SOL    HW230204   4.749   5.235   2.504
76103SOL     OW30205  14.296   8.236   6.376
76103SOL    HW130206  14.342   8.216   6.295
76103SOL    HW230207  14.300   8.155   6.426
76104SOL     OW30208   7.414  12.602   4.086
76104SOL    HW130209   7.399  12.630   4.177
76104SOL    HW230210   7.385  12.510   4.085
76105SOL     OW30211   0.660  13.735  11.310
76105SOL    HW130212   0.717  13.812  11.313
76105SOL    HW230213   0.571  13.771  11.319
76106SOL     OW30214  14.386   6.039   9.409
76106SOL    HW130215  14.302   6.057   9.366
76106SOL    HW230216  14.367   6.046   9.503
76107SOL     OW30217   5.334   0.721  11.215
76107SOL    HW130218   5.254   0.686  11.177
76107SOL    HW230219   5.380   0.764  11.142
76108SOL     OW30220   8.641  11.368   5.757
76108SOL    HW130221   8.617  11.276   5.770
76108SOL    HW230222   8.696  11.368   5.679
76109SOL     OW30223  12.729  14.427   0.468
76109SOL    HW130224  12.810  14.458   0.428
76109SOL    HW230225  12.692  14.366   0.404
76110SOL     OW30226   5.261   2.995  10.238
76110SOL    HW130227   5.330   2.999  10.171
76110SOL    HW230228   5.233   2.904  10.237
76111SOL     OW30229   9.410   3.192  13.774
76111SOL    HW130230   9.388   3.106  13.738
76111SOL    HW230231   9.372   3.192  13.862
76112SOL     OW30232   9.426  10.074   0.754
76112SOL    HW130233   9.484  10.089   0.829
76112SOL    HW230234   9.382  10.159   0.742
76113SOL     OW30235  10.529   8.809   2.597
76113SOL    HW130236  10.548   8.802   2.691
76113SOL    HW230237  10.489   8.896   2.587
76114SOL     OW30238  13.412  13.924  10.341
76114SOL    HW130239  13.407  13.831  10.364
76114SOL    HW230240  13.447  13.925  10.252
76115SOL     OW30241   8.523   4.461  14.769
76115SOL    HW130242   8.456   4.504  14.717
76115SOL    HW230243   8.602   4.467  14.715
76116SOL     OW30244   4.587   4.889   0.036
76116SOL    HW130245   4.522   4.905   0.104
76116SOL    HW230246   4.664   4.859   0.083
76117SOL     OW30247  12.033   5.169   0.668
76117SOL    HW130248  12.069   5.120   0.594
76117SOL    HW230249  12.010   5.254   0.632
76118SOL     OW30250  13.203   1.074  11.501
76118SOL    HW130251  13.167   0.985  11.499
76118SOL    HW230252  13.186   1.108  11.413
76119SOL     OW30253  13.711   1.321   9.436
76119SOL    HW130254  13.692   1.293   9.526
76119SOL    HW230255  13.637   1.290   9.385
76120SOL     OW30256   7.298   0.339   3.119
76120SOL    HW130257   7.263   0.356   3.207
76120SOL    HW230258   7.392   0.353   3.128
76121SOL     OW30259   1.285   8.806   3.118
76121SOL    HW130260   1.220   8.833   3.054
76121SOL    HW230261   1.265   8.857   3.196
76122SOL     OW30262   6.355   5.208   0.771
76122SOL    HW130263   6.271   5.248   0.750
76122SOL    HW230264   6.353   5.196   0.866
76123SOL     OW30265   2.292  11.881   7.994
76123SOL    HW130266   2.365  11.853   7.938
76123SOL    HW230267   2.257  11.959   7.950
76124SOL     OW30268  12.740   8.331  12.854
76124SOL    HW130269  12.679   8.380  12.909
76124SOL    HW230270  12.712   8.348  12.765
76125SOL     OW30271   0.446   2.934   2.578
76125SOL    HW130272   0.441   2.995   2.651
76125SOL    HW230273   0.415   2.851   2.614
76126SOL     OW30274   1.037   0.500   6.502
76126SOL    HW130275   1.113   0.524   6.555
76126SOL    HW230276   1.054   0.409   6.477
76127SOL     OW30277  10.806  13.072   7.474
76127SOL    HW130278  10.784  13.069   7.381
76127SOL    HW230279  10.900  13.089   7.476
76128SOL     OW30280   3.316  10.439   2.221
76128SOL    HW130281   3.288  10.357   2.263
76128SOL    HW230282   3.383  10.412   2.159
76129SOL     OW30283  14.073   3.526   9.172
76129SOL    HW130284  14.161   3.537   9.208
76129SOL    HW230285  14.015   3.541   9.247
76130SOL     OW30286   4.439  14.563  11.560
76130SOL    HW130287   4.500  14.554  11.487
76130SOL    HW230288   4.353  14.577  11.518
76131SOL     OW30289  13.127   2.892  12.846
76131SOL    HW130290  13.161   2.803  12.851
76131SOL    HW230291  13.109   2.906  12.753
76132SOL     OW30292   3.329  11.543   7.836
76132SOL    HW130293   3.357  11.523   7.747
76132SOL    HW230294   3.237  11.569   7.827
76133SOL     OW30295  10.556  12.626  14.630
76133SOL    HW130296  10.513  12.704  14.594
76133SOL    HW230297  10.624  12.661  14.688
76134SOL     OW30298  13.776   4.420  10.109
76134SOL    HW130299  13.843   4.408  10.176
76134SOL    HW230300  13.826   4.431  10.028
76135SOL     OW30301   7.717   4.245   9.900
76135SOL    HW130302   7.658   4.316   9.926
76135SOL    HW230303   7.764   4.279   9.824
76136SOL     OW30304  12.711  10.649   5.675
76136SOL    HW130305  12.776  10.591   5.636
76136SOL    HW230306  12.627  10.614   5.646
76137SOL     OW30307   0.981  11.261  11.075
76137SOL    HW130308   1.014  11.201  11.009
76137SOL    HW230309   1.051  11.326  11.085
76138SOL     OW30310  14.846  12.350  14.095
76138SOL    HW130311  14.774  12.400  14.133
76138SOL    HW230312  14.812  12.317  14.012
76139SOL     OW30313   4.918   8.999  12.222
76139SOL    HW130314   4.848   8.940  12.193
76139SOL    HW230315   4.939   9.051  12.145
76140SOL     OW30316  12.864  12.449   0.316
76140SOL    HW130317  12.824  12.519   0.264
76140SOL    HW230318  12.802  12.435   0.388
76141SOL     OW30319  13.577  11.711   2.539
76141SOL    HW130320  13.596  11.744   2.452
76141SOL    HW230321  13.641  11.641   2.553
76142SOL     OW30322  10.649   9.187  10.515
76142SOL    HW130323  10.553   9.187  10.515
76142SOL    HW230324  10.673   9.126  10.585
76143SOL     OW30325   4.941   6.534   9.094
76143SOL    HW130326   4.989   6.592   9.153
76143SOL    HW230327   4.981   6.549   9.009
76144SOL     OW30328  14.023   0.986   8.110
76144SOL    HW130329  13.947   1.022   8.064
76144SOL    HW230330  14.061   0.924   8.047
76145SOL     OW30331  10.170   1.479  10.206
76145SOL    HW130332  10.214   1.428  10.138
76145SOL    HW230333  10.093   1.516  10.162
76146SOL     OW30334   8.057   2.759   5.705
76146SOL    HW130335   7.964   2.740   5.711
76146SOL    HW230336   8.099   2.692   5.759
76147SOL     OW30337   2.057   3.631   0.114
76147SOL    HW130338   2.022   3.546   0.088
76147SOL    HW230339   2.033   3.639   0.206
76148SOL     OW30340   8.335   3.159  12.258
76148SOL    HW130341   8.294   3.229  12.309
76148SOL    HW230342   8.334   3.192  12.168
76149SOL     OW30343   6.038   5.521  12.694
76149SOL    HW130344   6.089   5.498  12.616
76149SOL    HW230345   5.978   5.447  12.705
76150SOL     OW30346  12.826  11.372   6.775
76150SOL    HW130347  12.809  11.406   6.863
76150SOL    HW230348  12.817  11.277   6.784
76151SOL     OW30349   1.746  13.093  12.262
76151SOL    HW130350   1.790  13.075  12.345
76151SOL    HW230351   1.801  13.050  12.196
76152SOL     OW30352  13.405  10.983   2.479
76152SOL    HW130353  13.370  11.035   2.551
76152SOL    HW230354  13.463  11.043   2.432
76153SOL     OW30355  10.924   7.208  13.648
76153SOL    HW130356  10.937   7.249  13.562
76153SOL    HW230357  10.958   7.119  13.638
76154SOL     OW30358   1.105   8.048   1.622
76154SOL    HW130359   1.037   7.989   1.654
76154SOL    HW230360   1.137   8.094   1.700
76155SOL     OW30361   1.445  13.457   8.338
76155SOL    HW130362   1.464  13.378   8.288
76155SOL    HW230363   1.512  13.458   8.406
76156SOL     OW30364   9.192   5.860   2.100
76156SOL    HW130365   9.153   5.788   2.150
76156SOL    HW230366   9.216   5.821   2.016
76157SOL     OW30367   1.779   8.937  10.880
76157SOL    HW130368   1.819   8.916  10.795
76157SOL    HW230369   1.695   8.976  10.857
76158SOL     OW30370   6.496   3.096   2.859
76158SOL    HW130371   6.487   3.171   2.801
76158SOL    HW230372   6.449   3.120   2.939
76159SOL     OW30373  10.100   3.461   8.394
76159SOL    HW130374  10.102   3.553   8.418
76159SOL    HW230375  10.152   3.417   8.463
76160SOL     OW30376   4.793   0.964  11.627
76160SOL    HW130377   4.849   0.930  11.557
76160SOL    HW230378   4.718   0.905  11.628
76161SOL     OW30379   6.769   6.551   8.552
76161SOL    HW130380   6.816   6.609   8.492
76161SOL    HW230381   6.820   6.470   8.553
76162SOL     OW30382  13.883   5.737   8.072
76162SOL    HW130383  13.806   5.709   8.023
76162SOL    HW230384  13.866   5.828   8.095
76163SOL     OW30385   2.138   6.716   5.065
76163SOL    HW130386   2.131   6.641   5.005
76163SOL    HW230387   2.086   6.692   5.141
76164SOL     OW30388   6.185   5.695   9.491
76164SOL    HW130389   6.213   5.750   9.565
76164SOL    HW230390   6.248   5.713   9.422
76165SOL     OW30391  14.357  11.164  11.694
76165SOL    HW130392  14.275  11.116  11.704
76165SOL    HW230393  14.331  11.256  11.700
76166SOL     OW30394  13.513  13.953   9.095
76166SOL    HW130395  13.550  13.899   9.024
76166SOL    HW230396  13.538  14.042   9.072
76167SOL     OW30397  13.549  11.785   8.743
76167SOL    HW130398  13.631  11.833   8.726
76167SOL    HW230399  13.577  11.706   8.789
76168SOL     OW30400   1.762   4.131   9.380
76168SOL    HW130401   1.784   4.063   9.316
76168SOL    HW230402   1.683   4.097   9.423
76169SOL     OW30403   2.370   7.579  14.570
76169SOL    HW130404   2.437   7.512  14.554
76169SOL    HW230405   2.291   7.546  14.527
76170SOL     OW30406   2.313   6.233  14.372
76170SOL    HW130407   2.357   6.247  14.456
76170SOL    HW230408   2.383   6.201  14.314
76171SOL     OW30409   3.228   3.919  14.694
76171SOL    HW130410   3.271   4.004  14.701
76171SOL    HW230411   3.300   3.857  14.679
76172SOL     OW30412   4.868   1.887   7.995
76172SOL    HW130413   4.951   1.846   7.969
76172SOL    HW230414   4.836   1.929   7.916
76173SOL     OW30415  10.673  13.158   0.025
76173SOL    HW130416  10.721  13.179  14.832
76173SOL    HW230417  10.594  13.211   0.020
76174SOL     OW30418   6.644  13.252  13.350
76174SOL    HW130419   6.642  13.313  13.423
76174SOL    HW230420   6.682  13.172  13.386
76175SOL     OW30421  12.202  13.193   3.599
76175SOL    HW130422  12.111  13.200   3.629
76175SOL    HW230423  12.197  13.136   3.522
76176SOL     OW30424   2.259  13.542   2.669
76176SOL    HW130425   2.321  13.514   2.602
76176SOL    HW230426   2.173  13.530   2.630
76177SOL     OW30427   3.298   8.406   0.087
76177SOL    HW130428   3.343   8.488   0.108
76177SOL    HW230429   3.209   8.432   0.065
76178SOL     OW30430   0.868  11.286   0.862
76178SOL    HW130431   0.926  11.303   0.787
76178SOL    HW230432   0.780  11.294   0.825
76179SOL     OW30433   4.897   2.665   9.549
76179SOL    HW130434   4.961   2.661   9.620
76179SOL    HW230435   4.837   2.735   9.575
76180SOL     OW30436   4.568   5.077   5.951
76180SOL    HW130437   4.571   5.153   5.893
76180SOL    HW230438   4.481   5.039   5.935
76181SOL     OW30439   4.793   3.668   1.681
76181SOL    HW130440   4.861   3.659   1.748
76181SOL    HW230441   4.840   3.703   1.605
76182SOL     OW30442   4.575   6.763  10.896
76182SOL    HW130443   4.500   6.801  10.851
76182SOL    HW230444   4.540   6.729  10.978
76183SOL     OW30445   0.019   2.120  13.227
76183SOL    HW130446  14.843   2.053  13.251
76183SOL    HW230447   0.002   2.138  13.134
76184SOL     OW30448  11.183  13.799   9.593
76184SOL    HW130449  11.229  13.716   9.599
76184SOL    HW230450  11.139  13.797   9.508
76185SOL     OW30451   9.971  10.683  10.572
76185SOL    HW130452   9.954  10.774  10.550
76185SOL    HW230453   9.894  10.654  10.620
76186SOL     OW30454   2.307   4.991  13.779
76186SOL    HW130455   2.269   5.049  13.713
76186SOL    HW230456   2.345   5.051  13.844
76187SOL     OW30457   6.325   6.878   3.461
76187SOL    HW130458   6.382   6.925   3.401
76187SOL    HW230459   6.297   6.944   3.525
76188SOL     OW30460   6.616   9.067   2.667
76188SOL    HW130461   6.680   9.134   2.692
76188SOL    HW230462   6.666   8.986   2.662
76189SOL     OW30463   1.100   3.150   6.896
76189SOL    HW130464   1.103   3.054   6.897
76189SOL    HW230465   1.072   3.171   6.807
76190SOL     OW30466   4.847  12.028   8.697
76190SOL    HW130467   4.843  11.999   8.788
76190SOL    HW230468   4.908  11.968   8.655
76191SOL     OW30469   7.416   4.083   2.628
76191SOL    HW130470   7.377   4.111   2.711
76191SOL    HW230471   7.510   4.097   2.639
76192SOL     OW30472   3.011   5.980   3.202
76192SOL    HW130473   2.978   5.900   3.160
76192SOL    HW230474   2.981   5.974   3.293
76193SOL     OW30475   8.000   3.604   4.644
76193SOL    HW130476   7.972   3.517   4.672
76193SOL    HW230477   8.091   3.611   4.675
76194SOL     OW30478   5.927   6.792  11.218
76194SOL    HW130479   5.883   6.854  11.277
76194SOL    HW230480   5.984   6.741  11.275
76195SOL     OW30481  14.848   8.859   9.778
76195SOL    HW130482   0.054   8.844   9.761
76195SOL    HW230483  14.845   8.894   9.867
76196SOL     OW30484   4.110   9.622  10.383
76196SOL    HW130485   4.135   9.673  10.460
76196SOL    HW230486   4.105   9.532  10.414
76197SOL     OW30487  10.063   6.909   1.455
76197SOL    HW130488   9.993   6.935   1.514
76197SOL    HW230489  10.063   6.976   1.386
76198SOL     OW30490   2.817  13.554  10.227
76198SOL    HW130491   2.797  13.467  10.191
76198SOL    HW230492   2.909  13.568  10.204
76199SOL     OW30493   6.736   4.263   9.168
76199SOL    HW130494   6.809   4.288   9.112
76199SOL    HW230495   6.667   4.238   9.107
76200SOL     OW30496   1.974   6.478  11.807
76200SOL    HW130497   1.950   6.547  11.745
76200SOL    HW230498   1.892   6.456  11.851
76201SOL     OW30499   5.679   1.069   8.464
76201SOL    HW130500   5.736   1.141   8.490
76201SOL    HW230501   5.591   1.096   8.492
76202SOL     OW30502  14.211  11.854  12.947
76202SOL    HW130503  14.141  11.814  12.999
76202SOL    HW230504  14.280  11.788  12.944
76203SOL     OW30505  13.234   1.322   0.882
76203SOL    HW130506  13.280   1.378   0.945
76203SOL    HW230507  13.268   1.348   0.797
76204SOL     OW30508   0.369   9.144  10.209
76204SOL    HW130509   0.364   9.051  10.188
76204SOL    HW230510   0.295   9.160  10.268
76205SOL     OW30511  14.520   4.592   8.385
76205SOL    HW130512  14.601   4.642   8.400
76205SOL    HW230513  14.471   4.601   8.467
76206SOL     OW30514   0.856  10.693  11.017
76206SOL    HW130515   0.839  10.651  10.933
76206SOL    HW230516   0.860  10.786  10.998
76207SOL     OW30517  14.848  12.580  13.841
76207SOL    HW130518  14.843  12.543  13.929
76207SOL    HW230519   0.046  12.550  13.808
76208SOL     OW30520   9.375   0.151  14.224
76208SOL    HW130521   9.358   0.082  14.159
76208SOL    HW230522   9.462   0.129  14.257
76209SOL     OW30523   2.598  11.717   8.950
76209SOL    HW130524   2.668  11.658   8.976
76209SOL    HW230525   2.545  11.728   9.029
76210SOL     OW30526   9.725   5.826  12.753
76210SOL    HW130527   9.732   5.902  12.696
76210SOL    HW230528   9.644   5.841  12.802
76211SOL     OW30529  11.013   7.232  11.482
76211SOL    HW130530  10.942   7.168  11.492
76211SOL    HW230531  11.073   7.191  11.419
76212SOL     OW30532   0.623   8.095  14.345
76212SOL    HW130533   0.663   8.147  14.276
76212SOL    HW230534   0.679   8.109  14.422
76213SOL     OW30535   1.022  10.701   1.977
76213SOL    HW130536   1.089  10.754   1.935
76213SOL    HW230537   1.067  10.655   2.048
76214SOL     OW30538  13.051  11.329   1.826
76214SOL    HW130539  13.096  11.244   1.830
76214SOL    HW230540  13.047  11.358   1.917
76215SOL     OW30541   7.198  13.775   0.223
76215SOL    HW130542   7.216  13.869   0.225
76215SOL    HW230543   7.224  13.744   0.310
76216SOL     OW30544  11.019  10.289  14.244
76216SOL    HW130545  11.034  10.277  14.150
76216SOL    HW230546  10.969  10.212  14.270
76217SOL     OW30547   7.264   9.359   2.337
76217SOL    HW130548   7.360   9.353   2.342
76217SOL    HW230549   7.237   9.280   2.291
76218SOL     OW30550   3.455  14.209  13.369
76218SOL    HW130551   3.426  14.237  13.455
76218SOL    HW230552   3.514  14.277  13.339
76219SOL     OW30553   2.556   1.903   7.332
76219SOL    HW130554   2.567   1.809   7.316
76219SOL    HW230555   2.617   1.945   7.271
76220SOL     OW30556  14.404  13.090   1.103
76220SOL    HW130557  14.491  13.053   1.086
76220SOL    HW230558  14.421  13.177   1.139
76221SOL     OW30559   8.170  10.855   0.901
76221SOL    HW130560   8.219  10.833   0.980
76221SOL    HW230561   8.224  10.920   0.856
76222SOL     OW30562   3.846  10.334   1.678
76222SOL    HW130563   3.811  10.285   1.752
76222SOL    HW230564   3.771  10.346   1.619
76223SOL     OW30565   6.929  12.731   3.900
76223SOL    HW130566   6.989  12.669   3.940
76223SOL    HW230567   6.880  12.679   3.836
76224SOL     OW30568  10.086  13.078   2.753
76224SOL    HW130569  10.144  13.153   2.740
76224SOL    HW230570  10.022  13.109   2.818
76225SOL     OW30571   5.264   8.227  10.502
76225SOL    HW130572   5.340   8.275  10.535
76225SOL    HW230573   5.262   8.247  10.408
76226SOL     OW30574   4.741   7.207   0.312
76226SOL    HW130575   4.714   7.296   0.288
76226SOL    HW230576   4.676   7.178   0.376
76227SOL     OW30577   4.403   5.448  12.579
76227SOL    HW130578   4.362   5.408  12.655
76227SOL    HW230579   4.332   5.494  12.535
76228SOL     OW30580   1.248  12.316   0.548
76228SOL    HW130581   1.268  12.354   0.634
76228SOL    HW230582   1.333  12.308   0.505
76229SOL     OW30583  11.805  13.988   5.754
76229SOL    HW130584  11.898  14.006   5.745
76229SOL    HW230585  11.792  13.974   5.848
76230SOL     OW30586   6.433   0.384   9.600
76230SOL    HW130587   6.337   0.379   9.607
76230SOL    HW230588   6.451   0.476   9.580
76231SOL     OW30589   9.055  11.418   7.770
76231SOL    HW130590   9.011  11.415   7.685
76231SOL    HW230591   9.112  11.340   7.769
76232SOL     OW30592   5.809   6.478  13.491
76232SOL    HW130593   5.749   6.528  13.545
76232SOL    HW230594   5.874   6.542  13.462
76233SOL     OW30595   2.082  13.377   5.930
76233SOL    HW130596   2.122  13.449   5.979
76233SOL    HW230597   2.106  13.299   5.980
76234SOL     OW30598   2.834   2.040   7.401
76234SOL    HW130599   2.828   1.971   7.467
76234SOL    HW230600   2.924   2.072   7.409
76235SOL     OW30601   4.115   5.039  11.818
76235SOL    HW130602   4.175   4.968  11.838
76235SOL    HW230603   4.040   4.996  11.778
76236SOL     OW30604  10.490   5.201  11.087
76236SOL    HW130605  10.466   5.228  10.999
76236SOL    HW230606  10.413   5.154  11.120
76237SOL     OW30607   8.326  10.680   9.093
76237SOL    HW130608   8.318  10.654   9.002
76237SOL    HW230609   8.420  10.685   9.108
76238SOL     OW30610  11.454   4.634   9.128
76238SOL    HW130611  11.464   4.651   9.222
76238SOL    HW230612  11.519   4.691   9.086
76239SOL     OW30613   4.643  14.748   4.387
76239SOL    HW130614   4.683  14.675   4.435
76239SOL    HW230615   4.556  14.717   4.364
76240SOL     OW30616   8.395   5.315   6.492
76240SOL    HW130617   8.439   5.396   6.464
76240SOL    HW230618   8.305   5.325   6.461
76241SOL     OW30619   4.036   8.975   5.786
76241SOL    HW130620   4.050   8.893   5.738
76241SOL    HW230621   4.070   8.957   5.874
76242SOL     OW30622   2.611  11.603   7.929
76242SOL    HW130623   2.604  11.695   7.903
76242SOL    HW230624   2.576  11.600   8.018
76243SOL     OW30625   4.451   4.222   6.793
76243SOL    HW130626   4.386   4.239   6.861
76243SOL    HW230627   4.498   4.305   6.783
76244SOL     OW30628   7.721  11.949   8.949
76244SOL    HW130629   7.769  11.866   8.939
76244SOL    HW230630   7.729  11.992   8.864
76245SOL     OW30631  11.559  13.711  10.938
76245SOL    HW130632  11.587  13.740  10.851
76245SOL    HW230633  11.513  13.629  10.922
76246SOL     OW30634  10.833   0.425  10.409
76246SOL    HW130635  10.837   0.425  10.313
76246SOL    HW230636  10.782   0.347  10.431
76247SOL     OW30637   1.942   5.328   2.318
76247SOL    HW130638   1.893   5.398   2.361
76247SOL    HW230639   1.960   5.265   2.387
76248SOL     OW30640  12.669   1.785  11.816
76248SOL    HW130641  12.622   1.789  11.733
76248SOL    HW230642  12.757   1.817  11.796
76249SOL     OW30643  14.668   7.808   8.712
76249SOL    HW130644  14.706   7.790   8.626
76249SOL    HW230645  14.641   7.900   8.707
76250SOL     OW30646  13.904   1.328   1.251
76250SOL    HW130647  13.815   1.297   1.264
76250SOL    HW230648  13.896   1.400   1.189
76251SOL     OW30649   5.551   0.008   7.320
76251SOL    HW130650   5.533   0.003   7.226
76251SOL    HW230651   5.535   0.099   7.344
76252SOL     OW30652   9.984   3.406   0.805
76252SOL    HW130653  10.001   3.433   0.715
76252SOL    HW230654  10.018   3.478   0.858
76253SOL     OW30655   0.747   1.319   8.010
76253SOL    HW130656   0.807   1.250   8.038
76253SOL    HW230657   0.679   1.273   7.961
76254SOL     OW30658   6.290  11.856   1.509
76254SOL    HW130659   6.269  11.818   1.594
76254SOL    HW230660   6.281  11.951   1.522
76255SOL     OW30661   2.892   6.765   4.272
76255SOL    HW130662   2.945   6.800   4.343
76255SOL    HW230663   2.826   6.833   4.255
76256SOL     OW30664   1.793   3.640  11.734
76256SOL    HW130665   1.725   3.634  11.801
76256SOL    HW230666   1.848   3.713  11.762
76257SOL     OW30667   6.847   9.983   9.514
76257SOL    HW130668   6.928   9.958   9.559
76257SOL    HW230669   6.807  10.048   9.572
76258SOL     OW30670  12.720   9.052   4.887
76258SOL    HW130671  12.706   9.043   4.982
76258SOL    HW230672  12.725   8.962   4.855
76259SOL     OW30673   3.888   7.029  12.246
76259SOL    HW130674   3.835   6.958  12.284
76259SOL    HW230675   3.868   7.026  12.153
76260SOL     OW30676  14.440   8.852   6.232
76260SOL    HW130677  14.430   8.904   6.152
76260SOL    HW230678  14.483   8.771   6.204
76261SOL     OW30679   4.461  11.929   5.954
76261SOL    HW130680   4.497  11.944   6.042
76261SOL    HW230681   4.490  11.841   5.931
76262SOL     OW30682  11.032  13.138  14.047
76262SOL    HW130683  10.977  13.142  14.125
76262SOL    HW230684  10.993  13.201  13.986
76263SOL     OW30685   6.702   1.241  12.456
76263SOL    HW130686   6.744   1.264  12.373
76263SOL    HW230687   6.766   1.187  12.502
76264SOL     OW30688   0.391   8.309  12.627
76264SOL    HW130689   0.407   8.222  12.592
76264SOL    HW230690   0.345   8.355  12.557
76265SOL     OW30691  12.194   8.307   0.734
76265SOL    HW130692  12.269   8.364   0.753
76265SOL    HW230693  12.216   8.265   0.651
76266SOL     OW30694  10.301   0.420  13.131
76266SOL    HW130695  10.249   0.348  13.167
76266SOL    HW230696  10.237   0.489  13.114
76267SOL     OW30697   3.724   9.485  10.090
76267SOL    HW130698   3.637   9.524  10.096
76267SOL    HW230699   3.734   9.463   9.998
76268SOL     OW30700  13.398   3.645   4.189
76268SOL    HW130701  13.391   3.737   4.217
76268SOL    HW230702  13.310   3.622   4.160
76269SOL     OW30703   3.442   7.265   9.254
76269SOL    HW130704   3.355   7.234   9.279
76269SOL    HW230705   3.459   7.338   9.313
76270SOL     OW30706   2.795   9.365   4.793
76270SOL    HW130707   2.773   9.276   4.819
76270SOL    HW230708   2.802   9.414   4.875
76271SOL     OW30709   1.417   5.368   3.071
76271SOL    HW130710   1.421   5.454   3.112
76271SOL    HW230711   1.423   5.385   2.977
76272SOL     OW30712  11.105   4.271   8.197
76272SOL    HW130713  11.080   4.276   8.104
76272SOL    HW230714  11.085   4.181   8.222
76273SOL     OW30715  14.479  13.671   1.606
76273SOL    HW130716  14.506  13.716   1.686
76273SOL    HW230717  14.385  13.686   1.600
76274SOL     OW30718  11.118  14.067   9.685
76274SOL    HW130719  11.133  14.091   9.777
76274SOL    HW230720  11.113  13.972   9.686
76275SOL     OW30721   1.958   4.804  13.829
76275SOL    HW130722   1.929   4.880  13.779
76275SOL    HW230723   1.881   4.748  13.833
76276SOL     OW30724   3.407  13.402   4.790
76276SOL    HW130725   3.481  13.356   4.829
76276SOL    HW230726   3.434  13.494   4.788
76277SOL     OW30727   0.333   7.668  10.623
76277SOL    HW130728   0.344   7.658  10.717
76277SOL    HW230729   0.301   7.582  10.594
76278SOL     OW30730   3.827  12.704  14.132
76278SOL    HW130731   3.831  12.686  14.038
76278SOL    HW230732   3.826  12.618  14.173
76279SOL     OW30733   2.600  14.058   1.764
76279SOL    HW130734   2.681  14.106   1.748
76279SOL    HW230735   2.579  14.076   1.855
76280SOL     OW30736  10.508   4.536  10.785
76280SOL    HW130737  10.493   4.450  10.824
76280SOL    HW230738  10.496   4.522  10.691
76281SOL     OW30739   1.307   4.109   4.687
76281SOL    HW130740   1.269   4.168   4.752
76281SOL    HW230741   1.275   4.022   4.712
76282SOL     OW30742   5.225  10.567  12.962
76282SOL    HW130743   5.315  10.579  12.930
76282SOL    HW230744   5.171  10.615  12.899
76283SOL     OW30745  13.509   6.967   3.881
76283SOL    HW130746  13.467   7.052   3.864
76283SOL    HW230747  13.484   6.912   3.807
76284SOL     OW30748   6.319   1.041   2.923
76284SOL    HW130749   6.412   1.026   2.936
76284SOL    HW230750   6.314   1.103   2.850
76285SOL     OW30751  14.347  14.097  11.037
76285SOL    HW130752  14.391  14.182  11.040
76285SOL    HW230753  14.351  14.064  11.127
76286SOL     OW30754   6.634   6.239   6.366
76286SOL    HW130755   6.728   6.246   6.350
76286SOL    HW230756   6.610   6.152   6.335
76287SOL     OW30757   6.665   8.726   9.963
76287SOL    HW130758   6.592   8.673   9.932
76287SOL    HW230759   6.658   8.725  10.058
76288SOL     OW30760   9.480   8.586   4.625
76288SOL    HW130761   9.446   8.615   4.540
76288SOL    HW230762   9.558   8.535   4.603
76289SOL     OW30763   6.324   1.213   7.515
76289SOL    HW130764   6.364   1.189   7.431
76289SOL    HW230765   6.314   1.129   7.561
76290SOL     OW30766  13.058   9.089   4.605
76290SOL    HW130767  13.120   9.028   4.644
76290SOL    HW230768  13.083   9.174   4.639
76291SOL     OW30769   8.080  11.208  14.402
76291SOL    HW130770   8.134  11.283  14.426
76291SOL    HW230771   7.990  11.238  14.414
76292SOL     OW30772   3.518   8.533   6.754
76292SOL    HW130773   3.577   8.482   6.808
76292SOL    HW230774   3.576   8.588   6.700
76293SOL     OW30775   4.583  10.069   3.728
76293SOL    HW130776   4.632  10.061   3.809
76293SOL    HW230777   4.503  10.018   3.743
76294SOL     OW30778   2.384   0.153  11.584
76294SOL    HW130779   2.354   0.237  11.551
76294SOL    HW230780   2.476   0.147  11.556
76295SOL     OW30781  12.812   7.383  11.243
76295SOL    HW130782  12.795   7.467  11.285
76295SOL    HW230783  12.901   7.361  11.268
76296SOL     OW30784   4.129   2.685   6.550
76296SOL    HW130785   4.142   2.593   6.528
76296SOL    HW230786   4.216   2.717   6.574
76297SOL     OW30787  13.998  10.417   7.141
76297SOL    HW130788  13.988  10.437   7.048
76297SOL    HW230789  14.038  10.495   7.179
76298SOL     OW30790  11.881  11.137  13.082
76298SOL    HW130791  11.834  11.061  13.117
76298SOL    HW230792  11.873  11.204  13.150
76299SOL     OW30793   7.552   2.731  12.869
76299SOL    HW130794   7.531   2.758  12.780
76299SOL    HW230795   7.542   2.811  12.921
76300SOL     OW30796  10.256  10.777   3.916
76300SOL    HW130797  10.178  10.747   3.962
76300SOL    HW230798  10.325  10.774   3.981
76301SOL     OW30799  11.980   5.693   1.182
76301SOL    HW130800  11.964   5.719   1.272
76301SOL    HW230801  11.894   5.689   1.141
76302SOL     OW30802   9.373   7.974   8.081
76302SOL    HW130803   9.300   7.945   8.136
76302SOL    HW230804   9.332   7.997   7.997
76303SOL     OW30805   9.248  14.258   4.790
76303SOL    HW130806   9.273  14.348   4.769
76303SOL    HW230807   9.153  14.261   4.802
76304SOL     OW30808   2.781  14.619   8.882
76304SOL    HW130809   2.689  14.628   8.857
76304SOL    HW230810   2.791  14.677   8.957
76305SOL     OW30811  12.609   1.598   5.074
76305SOL    HW130812  12.627   1.662   5.142
76305SOL    HW230813  12.632   1.643   4.992
76306SOL     OW30814   8.600   6.088   4.211
76306SOL    HW130815   8.521   6.070   4.261
76306SOL    HW230816   8.608   6.014   4.151
76307SOL     OW30817   5.418  10.878   7.090
76307SOL    HW130818   5.349  10.936   7.123
76307SOL    HW230819   5.493  10.896   7.146
76308SOL     OW30820  11.120  12.589   3.805
76308SOL    HW130821  11.160  12.608   3.720
76308SOL    HW230822  11.081  12.672   3.832
76309SOL     OW30823  13.988   3.794  11.098
76309SOL    HW130824  13.989   3.871  11.155
76309SOL    HW230825  14.059   3.739  11.132
76310SOL     OW30826   1.548   9.914   8.559
76310SOL    HW130827   1.549   9.887   8.468
76310SOL    HW230828   1.468   9.877   8.595
76311SOL     OW30829   2.171   2.831   5.521
76311SOL    HW130830   2.247   2.842   5.577
76311SOL    HW230831   2.186   2.891   5.448
76312SOL     OW30832   7.816   8.385   3.353
76312SOL    HW130833   7.817   8.346   3.266
76312SOL    HW230834   7.883   8.454   3.349
76313SOL     OW30835   7.349   8.095  14.090
76313SOL    HW130836   7.266   8.140  14.105
76313SOL    HW230837   7.413   8.145  14.139
76314SOL     OW30838   5.708   0.647   8.315
76314SOL    HW130839   5.774   0.676   8.252
76314SOL    HW230840   5.752   0.578   8.365
76315SOL     OW30841  12.252   1.364   6.374
76315SOL    HW130842  12.218   1.362   6.464
76315SOL    HW230843  12.234   1.276   6.340
76316SOL     OW30844  11.039   2.326  14.508
76316SOL    HW130845  11.098   2.337  14.433
76316SOL    HW230846  11.009   2.415  14.527
76317SOL     OW30847   9.133   8.813   8.832
76317SOL    HW130848   9.065   8.787   8.770
76317SOL    HW230849   9.122   8.754   8.906
76318SOL     OW30850   9.770  13.441  10.539
76318SOL    HW130851   9.751  13.523  10.492
76318SOL    HW230852   9.816  13.387  10.474
76319SOL     OW30853  10.189   4.409   0.124
76319SOL    HW130854  10.169   4.381   0.035
76319SOL    HW230855  10.278   4.377   0.140
76320SOL     OW30856  13.838  11.636   2.652
76320SOL    HW130857  13.870  11.726   2.652
76320SOL    HW230858  13.901  11.588   2.598
76321SOL     OW30859  13.150   4.599  14.199
76321SOL    HW130860  13.187   4.566  14.117
76321SOL    HW230861  13.081   4.536  14.221
76322SOL     OW30862   2.035   8.781  11.372
76322SOL    HW130863   2.041   8.874  11.352
76322SOL    HW230864   2.024   8.777  11.467
76323SOL     OW30865  11.292  10.448  14.410
76323SOL    HW130866  11.383  10.439  14.382
76323SOL    HW230867  11.241  10.398  14.346
76324SOL     OW30868   4.140   0.191   5.318
76324SOL    HW130869   4.180   0.180   5.404
76324SOL    HW230870   4.208   0.169   5.256
76325SOL     OW30871   2.733  13.770   9.203
76325SOL    HW130872   2.672  13.829   9.248
76325SOL    HW230873   2.726  13.687   9.251
76326SOL     OW30874   4.013   8.155   7.954
76326SOL    HW130875   3.958   8.092   8.001
76326SOL    HW230876   3.987   8.240   7.990
76327SOL     OW30877  10.328   5.502   6.791
76327SOL    HW130878  10.339   5.568   6.723
76327SOL    HW230879  10.400   5.441   6.777
76328SOL     OW30880  13.846   5.034   5.897
76328SOL    HW130881  13.927   5.030   5.846
76328SOL    HW230882  13.843   5.124   5.929
76329SOL     OW30883  13.844  14.760  10.489
76329SOL    HW130884  13.811  14.797  10.571
76329SOL    HW230885  13.860  14.836  10.433
76330SOL     OW30886  10.431  10.568   3.522
76330SOL    HW130887  10.363  10.506   3.547
76330SOL    HW230888  10.439  10.626   3.599
76331SOL     OW30889  10.495   2.127   0.007
76331SOL    HW130890  10.551   2.051  14.882
76331SOL    HW230891  10.417   2.093   0.050
76332SOL     OW30892  12.065   1.177   2.234
76332SOL    HW130893  12.063   1.091   2.276
76332SOL    HW230894  12.142   1.219   2.271
76333SOL     OW30895   2.843   9.266  13.400
76333SOL    HW130896   2.831   9.259  13.305
76333SOL    HW230897   2.913   9.330  13.411
76334SOL     OW30898   2.141   1.522   6.993
76334SOL    HW130899   2.202   1.466   6.946
76334SOL    HW230900   2.177   1.527   7.082
76335SOL     OW30901  10.343  11.960  13.608
76335SOL    HW130902  10.391  11.887  13.647
76335SOL    HW230903  10.295  11.921  13.535
76336SOL     OW30904   6.378   9.657   1.000
76336SOL    HW130905   6.297   9.606   1.005
76336SOL    HW230906   6.416   9.648   1.087
76337SOL     OW30907  12.413  10.133   7.526
76337SOL    HW130908  12.451  10.156   7.442
76337SOL    HW230909  12.478  10.076   7.567
76338SOL     OW30910   8.945  12.568   6.924
76338SOL    HW130911   8.892  12.498   6.885
76338SOL    HW230912   8.932  12.557   7.018
76339SOL     OW30913   8.412  11.794  10.499
76339SOL    HW130914   8.479  11.775  10.564
76339SOL    HW230915   8.458  11.842  10.431
76340SOL     OW30916   0.951   7.640   2.751
76340SOL    HW130917   1.015   7.596   2.806
76340SOL    HW230918   1.003   7.696   2.693
76341SOL     OW30919   2.905   6.221   0.480
76341SOL    HW130920   2.837   6.167   0.440
76341SOL    HW230921   2.915   6.184   0.568
76342SOL     OW30922  12.722  12.741   1.566
76342SOL    HW130923  12.743  12.647   1.564
76342SOL    HW230924  12.803  12.784   1.537
76343SOL     OW30925   8.129   0.735   1.586
76343SOL    HW130926   8.042   0.767   1.610
76343SOL    HW230927   8.173   0.811   1.548
76344SOL     OW30928  14.189   2.564  13.132
76344SOL    HW130929  14.202   2.550  13.038
76344SOL    HW230930  14.253   2.506  13.174
76345SOL     OW30931   8.791  13.545   2.547
76345SOL    HW130932   8.729  13.614   2.521
76345SOL    HW230933   8.750  13.464   2.517
76346SOL     OW30934   2.425   6.341  12.144
76346SOL    HW130935   2.372   6.263  12.130
76346SOL    HW230936   2.411   6.394  12.066
76347SOL     OW30937   2.157  13.548   6.176
76347SOL    HW130938   2.115  13.614   6.231
76347SOL    HW230939   2.216  13.598   6.120
76348SOL     OW30940   4.050  12.969  11.112
76348SOL    HW130941   4.037  13.015  11.029
76348SOL    HW230942   4.019  12.880  11.096
76349SOL     OW30943  14.044  12.087   9.124
76349SOL    HW130944  13.971  12.138   9.157
76349SOL    HW230945  14.107  12.084   9.196
76350SOL     OW30946  11.499  10.105  10.660
76350SOL    HW130947  11.448  10.046  10.717
76350SOL    HW230948  11.588  10.099  10.694
76351SOL     OW30949  11.161   0.528   0.217
76351SOL    HW130950  11.247   0.487   0.217
76351SOL    HW230951  11.102   0.461   0.182
76352SOL     OW30952   8.007   3.770  12.587
76352SOL    HW130953   7.966   3.833  12.528
76352SOL    HW230954   8.100   3.791  12.583
76353SOL     OW30955   3.145   5.468  10.897
76353SOL    HW130956   3.204   5.416  10.842
76353SOL    HW230957   3.068   5.413  10.909
76354SOL     OW30958  10.841  13.314   6.850
76354SOL    HW130959  10.816  13.368   6.924
76354SOL    HW230960  10.790  13.348   6.776
76355SOL     OW30961   5.683   8.707   0.116
76355SOL    HW130962   5.636   8.675   0.193
76355SOL    HW230963   5.688   8.802   0.128
76356SOL     OW30964  14.717  14.238   8.187
76356SOL    HW130965  14.732  14.332   8.195
76356SOL    HW230966  14.646  14.231   8.124
76357SOL     OW30967   5.035   2.135   5.181
76357SOL    HW130968   5.116   2.104   5.139
76357SOL    HW230969   4.965   2.106   5.123
76358SOL     OW30970   2.422   1.965  10.390
76358SOL    HW130971   2.370   1.896  10.432
76358SOL    HW230972   2.357   2.021  10.347
76359SOL     OW30973   7.009   6.949   4.506
76359SOL    HW130974   6.981   6.862   4.533
76359SOL    HW230975   6.934   6.985   4.458
76360SOL     OW30976   0.769  12.873  12.707
76360SOL    HW130977   0.730  12.803  12.655
76360SOL    HW230978   0.720  12.871  12.790
76361SOL     OW30979   1.117   2.729  11.177
76361SOL    HW130980   1.132   2.731  11.083
76361SOL    HW230981   1.137   2.639  11.203
76362SOL     OW30982   3.221  12.388  11.741
76362SOL    HW130983   3.253  12.438  11.667
76362SOL    HW230984   3.243  12.297  11.720
76363SOL     OW30985   6.215   1.688  12.025
76363SOL    HW130986   6.128   1.719  12.000
76363SOL    HW230987   6.238   1.740  12.102
76364SOL     OW30988  10.637  10.774   0.590
76364SOL    HW130989  10.714  10.725   0.619
76364SOL    HW230990  10.639  10.855   0.642
76365SOL     OW30991   7.084   6.074   8.959
76365SOL    HW130992   7.128   6.158   8.969
76365SOL    HW230993   7.121   6.019   9.029
76366SOL     OW30994  12.926  12.041   5.801
76366SOL    HW130995  12.953  12.020   5.890
76366SOL    HW230996  12.861  11.974   5.780
76367SOL     OW30997   7.452   1.568  13.428
76367SOL    HW130998   7.441   1.614  13.511
76367SOL    HW230999   7.469   1.477  13.454
76368SOL     OW31000   7.988   3.117   7.133
76368SOL    HW131001   8.049   3.043   7.137
76368SOL    HW231002   8.039   3.188   7.094
76369SOL     OW31003   4.565  12.642  13.145
76369SOL    HW131004   4.494  12.620  13.084
76369SOL    HW231005   4.643  12.648  13.091
76370SOL     OW31006  14.726   8.786   6.511
76370SOL    HW131007  14.811   8.808   6.475
76370SOL    HW231008  14.746   8.745   6.596
76371SOL     OW31009   6.439   9.823   0.116
76371SOL    HW131010   6.381   9.892   0.148
76371SOL    HW231011   6.430   9.827   0.021
76372SOL     OW31012   1.394   9.189  12.805
76372SOL    HW131013   1.406   9.199  12.711
76372SOL    HW231014   1.464   9.131  12.833
76373SOL     OW31015   4.670  12.191   6.921
76373SOL    HW131016   4.626  12.107   6.908
76373SOL    HW231017   4.601  12.256   6.909
76374SOL     OW31018  13.240  11.331   3.947
76374SOL    HW131019  13.201  11.372   3.869
76374SOL    HW231020  13.170  11.276   3.982
76375SOL     OW31021   8.950   9.438   6.225
76375SOL    HW131022   9.021   9.464   6.283
76375SOL    HW231023   8.935   9.345   6.246
76376SOL     OW31024  12.856   2.103   8.464
76376SOL    HW131025  12.846   2.102   8.559
76376SOL    HW231026  12.886   2.014   8.442
76377SOL     OW31027  13.941  12.895   2.613
76377SOL    HW131028  13.853  12.858   2.614
76377SOL    HW231029  13.946  12.945   2.532
76378SOL     OW31030  14.219   7.230  13.944
76378SOL    HW131031  14.197   7.219  13.852
76378SOL    HW231032  14.194   7.147  13.984
76379SOL     OW31033  11.065   5.715   9.146
76379SOL    HW131034  11.127   5.695   9.076
76379SOL    HW231035  11.037   5.805   9.128
76380SOL     OW31036   7.209  12.177   0.582
76380SOL    HW131037   7.183  12.259   0.540
76380SOL    HW231038   7.183  12.109   0.520
76381SOL     OW31039   5.701   0.487   8.889
76381SOL    HW131040   5.764   0.544   8.845
76381SOL    HW231041   5.626   0.483   8.830
76382SOL     OW31042   2.763   7.628  14.474
76382SOL    HW131043   2.685   7.573  14.485
76382SOL    HW231044   2.829   7.588  14.531
76383SOL     OW31045   3.568  13.854   3.626
76383SOL    HW131046   3.571  13.934   3.678
76383SOL    HW231047   3.586  13.784   3.689
76384SOL     OW31048   4.781   7.049  13.341
76384SOL    HW131049   4.813   6.968  13.381
76384SOL    HW231050   4.691   7.057  13.373
76385SOL     OW31051  10.061   6.422   0.896
76385SOL    HW131052  10.056   6.414   0.801
76385SOL    HW231053   9.970   6.426   0.925
76386SOL     OW31054   4.512   8.303   1.248
76386SOL    HW131055   4.591   8.296   1.302
76386SOL    HW231056   4.495   8.214   1.217
76387SOL     OW31057   3.957  10.908  10.711
76387SOL    HW131058   3.906  10.842  10.665
76387SOL    HW231059   4.038  10.916  10.660
76388SOL     OW31060   1.579  10.355   5.106
76388SOL    HW131061   1.521  10.392   5.039
76388SOL    HW231062   1.656  10.326   5.058
76389SOL     OW31063   3.350  13.732   5.684
76389SOL    HW131064   3.349  13.726   5.780
76389SOL    HW231065   3.381  13.821   5.666
76390SOL     OW31066   7.631  11.195  14.709
76390SOL    HW131067   7.544  11.205  14.748
76390SOL    HW231068   7.660  11.285  14.691
76391SOL     OW31069   2.436   9.835  11.837
76391SOL    HW131070   2.411   9.920  11.872
76391SOL    HW231071   2.368   9.775  11.868
76392SOL     OW31072   1.167   4.375   6.820
76392SOL    HW131073   1.100   4.391   6.753
76392SOL    HW231074   1.250   4.391   6.775
76393SOL     OW31075   2.185   1.323   7.836
76393SOL    HW131076   2.150   1.402   7.877
76393SOL    HW231077   2.247   1.355   7.771
76394SOL     OW31078  11.623   5.737  11.848
76394SOL    HW131079  11.680   5.766  11.777
76394SOL    HW231080  11.568   5.812  11.867
76395SOL     OW31081   0.896  14.843   9.137
76395SOL    HW131082   0.825  14.780   9.134
76395SOL    HW231083   0.871   0.016   9.208
76396SOL     OW31084   4.763   3.973   2.122
76396SOL    HW131085   4.777   4.012   2.208
76396SOL    HW231086   4.767   4.046   2.061
76397SOL     OW31087   4.217   1.219   8.730
76397SOL    HW131088   4.263   1.162   8.791
76397SOL    HW231089   4.264   1.302   8.734
76398SOL     OW31090   1.334   4.177  13.376
76398SOL    HW131091   1.351   4.270  13.390
76398SOL    HW231092   1.373   4.133  13.451
76399SOL     OW31093   3.052  11.559   3.605
76399SOL    HW131094   2.993  11.618   3.651
76399SOL    HW231095   3.113  11.617   3.560
76400SOL     OW31096  12.770  14.430   7.974
76400SOL    HW131097  12.729  14.501   8.023
76400SOL    HW231098  12.855  14.419   8.015
76401SOL     OW31099   5.545  10.568   4.655
76401SOL    HW131100   5.458  10.564   4.614
76401SOL    HW231101   5.530  10.537   4.744
76402SOL     OW31102  12.372   5.889   4.027
76402SOL    HW131103  12.413   5.804   4.041
76402SOL    HW231104  12.378   5.904   3.933
76403SOL     OW31105   7.978   5.409  12.378
76403SOL    HW131106   8.044   5.459  12.331
76403SOL    HW231107   7.897   5.424  12.329
76404SOL     OW31108   0.738   0.824   5.698
76404SOL    HW131109   0.693   0.897   5.656
76404SOL    HW231110   0.772   0.860   5.780
76405SOL     OW31111   0.714  13.922  14.517
76405SOL    HW131112   0.668  13.969  14.588
76405SOL    HW231113   0.805  13.920  14.545
76406SOL     OW31114   8.126  13.974   7.758
76406SOL    HW131115   8.133  13.977   7.662
76406SOL    HW231116   8.094  13.885   7.777
76407SOL     OW31117  11.101   8.619   4.358
76407SOL    HW131118  11.053   8.586   4.282
76407SOL    HW231119  11.041   8.680   4.401
76408SOL     OW31120   2.841  12.676   6.835
76408SOL    HW131121   2.906  12.722   6.781
76408SOL    HW231122   2.868  12.695   6.925
76409SOL     OW31123   3.088  12.712  11.614
76409SOL    HW131124   3.049  12.760  11.687
76409SOL    HW231125   3.089  12.621  11.643
76410SOL     OW31126   0.438  10.398  11.554
76410SOL    HW131127   0.347  10.422  11.538
76410SOL    HW231128   0.487  10.438  11.482
76411SOL     OW31129   2.547   3.637   8.466
76411SOL    HW131130   2.502   3.692   8.401
76411SOL    HW231131   2.511   3.666   8.550
76412SOL     OW31132   3.868   2.797  11.982
76412SOL    HW131133   3.890   2.881  11.941
76412SOL    HW231134   3.950   2.748  11.979
76413SOL     OW31135   8.092  10.458   8.508
76413SOL    HW131136   8.032  10.521   8.549
76413SOL    HW231137   8.173  10.507   8.497
76414SOL     OW31138   9.247  11.197   4.761
76414SOL    HW131139   9.189  11.273   4.754
76414SOL    HW231140   9.319  11.227   4.817
76415SOL     OW31141   0.043   6.752   6.613
76415SOL    HW131142   0.064   6.689   6.682
76415SOL    HW231143   0.128   6.780   6.579
76416SOL     OW31144   0.255  11.927   2.697
76416SOL    HW131145   0.183  11.876   2.735
76416SOL    HW231146   0.331  11.869   2.704
76417SOL     OW31147  14.217   6.553   5.636
76417SOL    HW131148  14.121   6.547   5.644
76417SOL    HW231149  14.243   6.468   5.601
76418SOL     OW31150  10.897   2.492  13.656
76418SOL    HW131151  10.898   2.433  13.581
76418SOL    HW231152  10.827   2.555  13.636
76419SOL     OW31153   1.640   1.884  13.976
76419SOL    HW131154   1.553   1.873  13.937
76419SOL    HW231155   1.657   1.977  13.970
76420SOL     OW31156   9.591   7.056   5.404
76420SOL    HW131157   9.531   7.120   5.366
76420SOL    HW231158   9.574   7.060   5.498
76421SOL     OW31159   9.041   0.799   7.315
76421SOL    HW131160   9.039   0.895   7.319
76421SOL    HW231161   8.948   0.773   7.313
76422SOL     OW31162  10.671   8.858   0.012
76422SOL    HW131163  10.641   8.864   0.103
76422SOL    HW231164  10.606   8.802  14.857
76423SOL     OW31165   0.749  13.383   0.558
76423SOL    HW131166   0.770  13.302   0.511
76423SOL    HW231167   0.823  13.441   0.539
76424SOL     OW31168   9.817  12.554  13.600
76424SOL    HW131169   9.862  12.621  13.651
76424SOL    HW231170   9.734  12.540  13.647
76425SOL     OW31171   2.192  13.833   3.052
76425SOL    HW131172   2.244  13.891   2.998
76425SOL    HW231173   2.246  13.815   3.129
76426SOL     OW31174   9.836   7.819   6.873
76426SOL    HW131175   9.907   7.827   6.937
76426SOL    HW231176   9.793   7.905   6.875
76427SOL     OW31177   2.804   9.159   1.179
76427SOL    HW131178   2.743   9.122   1.115
76427SOL    HW231179   2.814   9.251   1.152
76428SOL     OW31180   2.370  14.612   9.935
76428SOL    HW131181   2.393  14.565   9.854
76428SOL    HW231182   2.277  14.634   9.924
76429SOL     OW31183   0.291   8.749   2.431
76429SOL    HW131184   0.220   8.801   2.395
76429SOL    HW231185   0.319   8.798   2.509
76430SOL     OW31186  11.430   8.355  12.556
76430SOL    HW131187  11.357   8.407  12.587
76430SOL    HW231188  11.390   8.293  12.495
76431SOL     OW31189   9.632  10.645   0.161
76431SOL    HW131190   9.549  10.633   0.206
76431SOL    HW231191   9.641  10.739   0.150
76432SOL     OW31192   3.953   4.487   7.509
76432SOL    HW131193   3.906   4.557   7.554
76432SOL    HW231194   4.012   4.532   7.449
76433SOL     OW31195  11.061  14.006  10.856
76433SOL    HW131196  11.083  13.913  10.849
76433SOL    HW231197  11.021  14.015  10.943
76434SOL     OW31198  12.351   5.270   3.676
76434SOL    HW131199  12.297   5.193   3.660
76434SOL    HW231200  12.322   5.335   3.612
76435SOL     OW31201   7.018   1.238   1.249
76435SOL    HW131202   7.010   1.294   1.172
76435SOL    HW231203   6.959   1.165   1.232
76436SOL     OW31204   7.487   0.475   0.331
76436SOL    HW131205   7.467   0.386   0.358
76436SOL    HW231206   7.580   0.485   0.349
76437SOL     OW31207   1.004   8.792   3.176
76437SOL    HW131208   0.944   8.860   3.145
76437SOL    HW231209   1.023   8.817   3.267
76438SOL     OW31210  12.769   2.417  12.635
76438SOL    HW131211  12.777   2.323  12.619
76438SOL    HW231212  12.858   2.445  12.655
76439SOL     OW31213   3.279   6.608   6.943
76439SOL    HW131214   3.258   6.568   7.027
76439SOL    HW231215   3.271   6.702   6.958
76440SOL     OW31216   8.376   6.651  12.449
76440SOL    HW131217   8.422   6.709  12.388
76440SOL    HW231218   8.352   6.707  12.522
76441SOL     OW31219   1.621   8.518   0.597
76441SOL    HW131220   1.567   8.507   0.675
76441SOL    HW231221   1.577   8.466   0.529
76442SOL     OW31222  11.883  10.558   6.788
76442SOL    HW131223  11.967  10.539   6.829
76442SOL    HW231224  11.900  10.632   6.730
76443SOL     OW31225  12.558   2.122  12.669
76443SOL    HW131226  12.539   2.157  12.756
76443SOL    HW231227  12.487   2.155  12.614
76444SOL     OW31228   7.651   5.106   9.129
76444SOL    HW131229   7.655   5.200   9.147
76444SOL    HW231230   7.647   5.101   9.034
76445SOL     OW31231   2.764  14.825  11.727
76445SOL    HW131232   2.778   0.029  11.703
76445SOL    HW231233   2.708  14.791  11.658
76446SOL     OW31234   9.097   2.397   4.840
76446SOL    HW131235   9.138   2.378   4.756
76446SOL    HW231236   9.169   2.426   4.896
76447SOL     OW31237   8.916   2.380   0.663
76447SOL    HW131238   8.967   2.415   0.735
76447SOL    HW231239   8.825   2.393   0.690
76448SOL     OW31240  10.193  10.009  11.402
76448SOL    HW131241  10.255  10.029  11.332
76448SOL    HW231242  10.128   9.952  11.361
76449SOL     OW31243   4.581   8.794  13.890
76449SOL    HW131244   4.643   8.802  13.962
76449SOL    HW231245   4.524   8.870  13.897
76450SOL     OW31246   7.390   5.648   8.579
76450SOL    HW131247   7.357   5.590   8.511
76450SOL    HW231248   7.334   5.631   8.654
76451SOL     OW31249  14.699  14.069   3.868
76451SOL    HW131250  14.678  14.030   3.953
76451SOL    HW231251  14.615  14.103   3.836
76452SOL     OW31252  12.840   5.087   7.135
76452SOL    HW131253  12.801   5.060   7.218
76452SOL    HW231254  12.934   5.091   7.152
76453SOL     OW31255  13.673   5.715  13.801
76453SOL    HW131256  13.633   5.783  13.854
76453SOL    HW231257  13.745   5.759  13.755
76454SOL     OW31258   7.468   6.613  14.163
76454SOL    HW131259   7.465   6.543  14.228
76454SOL    HW231260   7.524   6.579  14.093
76455SOL     OW31261  13.165  13.529   3.239
76455SOL    HW131262  13.149  13.443   3.277
76455SOL    HW231263  13.213  13.511   3.158
76456SOL     OW31264  10.147  13.614   4.806
76456SOL    HW131265  10.055  13.593   4.819
76456SOL    HW231266  10.183  13.619   4.895
76457SOL     OW31267  14.844   2.762  12.403
76457SOL    HW131268  14.827   2.691  12.465
76457SOL    HW231269  14.869   2.837  12.458
76458SOL     OW31270   7.458   2.190  12.305
76458SOL    HW131271   7.466   2.210  12.399
76458SOL    HW231272   7.423   2.270  12.267
76459SOL     OW31273  12.982   2.561  13.863
76459SOL    HW131274  13.052   2.627  13.864
76459SOL    HW231275  12.901   2.611  13.870
76460SOL     OW31276   2.792   8.454   6.647
76460SOL    HW131277   2.820   8.458   6.555
76460SOL    HW231278   2.734   8.379   6.651
76461SOL     OW31279  11.177  12.915   1.786
76461SOL    HW131280  11.150  12.841   1.840
76461SOL    HW231281  11.104  12.976   1.790
76462SOL     OW31282   1.533  11.390   1.544
76462SOL    HW131283   1.556  11.364   1.633
76462SOL    HW231284   1.570  11.477   1.533
76463SOL     OW31285  14.532   7.164  12.760
76463SOL    HW131286  14.571   7.127  12.681
76463SOL    HW231287  14.545   7.259  12.751
76464SOL     OW31288  10.973   3.028   3.134
76464SOL    HW131289  10.904   3.034   3.068
76464SOL    HW231290  11.041   3.088   3.102
76465SOL     OW31291   3.359  12.022   0.674
76465SOL    HW131292   3.297  11.966   0.720
76465SOL    HW231293   3.438  11.968   0.665
76466SOL     OW31294  13.462   3.353  10.433
76466SOL    HW131295  13.424   3.293  10.497
76466SOL    HW231296  13.393   3.417  10.415
76467SOL     OW31297   0.838   5.870  11.224
76467SOL    HW131298   0.781   5.890  11.299
76467SOL    HW231299   0.807   5.929  11.155
76468SOL     OW31300   3.563   5.500   6.250
76468SOL    HW131301   3.529   5.506   6.161
76468SOL    HW231302   3.520   5.571   6.297
76469SOL     OW31303   7.349  10.167  10.076
76469SOL    HW131304   7.390  10.081  10.078
76469SOL    HW231305   7.408  10.223  10.127
76470SOL     OW31306  10.309   6.466   1.273
76470SOL    HW131307  10.386   6.409   1.276
76470SOL    HW231308  10.323   6.529   1.344
76471SOL     OW31309   0.077  13.359  10.949
76471SOL    HW131310   0.087  13.268  10.922
76471SOL    HW231311  14.879  13.385  10.913
76472SOL     OW31312   8.802   3.346   7.155
76472SOL    HW131313   8.803   3.359   7.250
76472SOL    HW231314   8.845   3.262   7.142
76473SOL     OW31315  12.151   6.040   5.264
76473SOL    HW131316  12.213   5.967   5.260
76473SOL    HW231317  12.075   6.004   5.309
76474SOL     OW31318  14.352   6.827  12.581
76474SOL    HW131319  14.347   6.731  12.573
76474SOL    HW231320  14.378   6.857  12.494
76475SOL     OW31321  11.998   1.252  13.323
76475SOL    HW131322  11.967   1.184  13.263
76475SOL    HW231323  11.973   1.221  13.410
76476SOL     OW31324   0.664   1.563   7.086
76476SOL    HW131325   0.637   1.494   7.147
76476SOL    HW231326   0.654   1.644   7.136
76477SOL     OW31327   2.802  13.533   6.242
76477SOL    HW131328   2.741  13.461   6.230
76477SOL    HW231329   2.813  13.571   6.155
76478SOL     OW31330  12.313   0.364   3.916
76478SOL    HW131331  12.228   0.331   3.944
76478SOL    HW231332  12.317   0.452   3.951
76479SOL     OW31333   9.062   2.838   0.363
76479SOL    HW131334   8.971   2.808   0.367
76479SOL    HW231335   9.057   2.925   0.324
76480SOL     OW31336  11.470   9.942   2.831
76480SOL    HW131337  11.425   9.861   2.854
76480SOL    HW231338  11.407   9.991   2.779
76481SOL     OW31339   1.748  10.795   8.969
76481SOL    HW131340   1.739  10.873   9.024
76481SOL    HW231341   1.670  10.743   8.987
76482SOL     OW31342   0.526   2.817  11.795
76482SOL    HW131343   0.542   2.869  11.874
76482SOL    HW231344   0.611   2.781  11.771
76483SOL     OW31345  12.922  10.574   9.508
76483SOL    HW131346  12.831  10.555   9.533
76483SOL    HW231347  12.966  10.595   9.590
76484SOL     OW31348   7.508  12.876   9.593
76484SOL    HW131349   7.492  12.960   9.551
76484SOL    HW231350   7.470  12.811   9.533
76485SOL     OW31351   4.074   1.103   3.759
76485SOL    HW131352   3.989   1.125   3.798
76485SOL    HW231353   4.052   1.071   3.672
76486SOL     OW31354  13.948   1.638  12.085
76486SOL    HW131355  14.001   1.633  12.164
76486SOL    HW231356  13.907   1.551  12.078
76487SOL     OW31357   1.214   8.017  14.879
76487SOL    HW131358   1.129   8.035   0.032
76487SOL    HW231359   1.258   7.957   0.051
76488SOL     OW31360   9.521   0.058  10.869
76488SOL    HW131361   9.597   0.006  10.894
76488SOL    HW231362   9.459  14.881  10.834
76489SOL     OW31363  10.234  11.859   4.307
76489SOL    HW131364  10.202  11.770   4.319
76489SOL    HW231365  10.329  11.851   4.313
76490SOL     OW31366   7.766  10.508   8.940
76490SOL    HW131367   7.724  10.465   8.866
76490SOL    HW231368   7.851  10.536   8.907
76491SOL     OW31369   1.188   0.204   9.047
76491SOL    HW131370   1.233   0.123   9.069
76491SOL    HW231371   1.202   0.261   9.123
76492SOL     OW31372   0.633  14.699   9.633
76492SOL    HW131373   0.539  14.683   9.638
76492SOL    HW231374   0.646  14.786   9.669
76493SOL     OW31375   3.889   8.322  12.591
76493SOL    HW131376   3.952   8.250  12.600
76493SOL    HW231377   3.832   8.313  12.668
76494SOL     OW31378   0.963   2.775  12.215
76494SOL    HW131379   1.050   2.803  12.245
76494SOL    HW231380   0.911   2.773  12.295
76495SOL     OW31381  14.459   0.444   7.814
76495SOL    HW131382  14.432   0.479   7.899
76495SOL    HW231383  14.451   0.349   7.824
76496SOL     OW31384   7.963   3.964   9.871
76496SOL    HW131385   8.014   4.042   9.893
76496SOL    HW231386   7.928   3.933   9.955
76497SOL     OW31387   5.918   3.282   5.375
76497SOL    HW131388   5.872   3.362   5.400
76497SOL    HW231389   5.848   3.219   5.356
76498SOL     OW31390   5.066   6.431   1.013
76498SOL    HW131391   5.078   6.420   0.919
76498SOL    HW231392   4.972   6.444   1.024
76499SOL     OW31393  12.225   3.306   3.495
76499SOL    HW131394  12.149   3.262   3.457
76499SOL    HW231395  12.287   3.235   3.514
76500SOL     OW31396   5.773   7.425   4.400
76500SOL    HW131397   5.761   7.412   4.306
76500SOL    HW231398   5.868   7.420   4.412
76501SOL     OW31399  11.213   0.370  11.367
76501SOL    HW131400  11.260   0.336  11.444
76501SOL    HW231401  11.133   0.407  11.403
76502SOL     OW31402  11.384   9.051   6.328
76502SOL    HW131403  11.379   9.092   6.414
76502SOL    HW231404  11.477   9.032   6.316
76503SOL     OW31405  10.427  11.978  10.788
76503SOL    HW131406  10.486  11.904  10.771
76503SOL    HW231407  10.341  11.938  10.801
76504SOL     OW31408   7.648   5.336   1.145
76504SOL    HW131409   7.567   5.326   1.095
76504SOL    HW231410   7.631   5.289   1.227
76505SOL     OW31411   7.367   4.367  14.553
76505SOL    HW131412   7.276   4.384  14.578
76505SOL    HW231413   7.367   4.375  14.458
76506SOL     OW31414   1.200   7.928   9.604
76506SOL    HW131415   1.170   8.019   9.609
76506SOL    HW231416   1.120   7.876   9.615
76507SOL     OW31417  13.590   8.067  10.767
76507SOL    HW131418  13.618   8.149  10.727
76507SOL    HW231419  13.610   8.077  10.860
76508SOL     OW31420   1.293  12.298  13.885
76508SOL    HW131421   1.375  12.249  13.879
76508SOL    HW231422   1.224  12.230  13.886
76509SOL     OW31423  12.414   3.701   8.181
76509SOL    HW131424  12.359   3.764   8.134
76509SOL    HW231425  12.389   3.616   8.145
76510SOL     OW31426   5.016   2.175   0.800
76510SOL    HW131427   4.995   2.259   0.842
76510SOL    HW231428   5.002   2.110   0.869
76511SOL     OW31429   6.273   5.616  10.859
76511SOL    HW131430   6.350   5.561  10.874
76511SOL    HW231431   6.268   5.626  10.764
76512SOL     OW31432   8.636   6.697   2.327
76512SOL    HW131433   8.678   6.666   2.408
76512SOL    HW231434   8.548   6.660   2.330
76513SOL     OW31435  14.096   4.708   7.291
76513SOL    HW131436  14.127   4.643   7.227
76513SOL    HW231437  14.016   4.744   7.251
76514SOL     OW31438  11.110   9.805  11.815
76514SOL    HW131439  11.158   9.772  11.891
76514SOL    HW231440  11.085   9.894  11.839
76515SOL     OW31441   1.965   0.751   7.035
76515SOL    HW131442   2.011   0.796   7.107
76515SOL    HW231443   1.919   0.679   7.078
76516SOL     OW31444  14.403   0.245  12.439
76516SOL    HW131445  14.417   0.287  12.524
76516SOL    HW231446  14.319   0.279  12.409
76517SOL     OW31447  11.722   2.035   9.540
76517SOL    HW131448  11.642   2.087   9.542
76517SOL    HW231449  11.780   2.077   9.603
76518SOL     OW31450  13.613  12.899   5.984
76518SOL    HW131451  13.609  12.899   6.079
76518SOL    HW231452  13.640  12.988   5.961
76519SOL     OW31453  10.466  11.912   8.197
76519SOL    HW131454  10.440  12.003   8.188
76519SOL    HW231455  10.422  11.883   8.277
76520SOL     OW31456   2.526  14.483   0.035
76520SOL    HW131457   2.537  14.510  14.831
76520SOL    HW231458   2.441  14.518   0.061
76521SOL     OW31459  11.820   9.935  13.689
76521SOL    HW131460  11.828   9.914  13.596
76521SOL    HW231461  11.910   9.946  13.719
76522SOL     OW31462   9.631   2.388  11.567
76522SOL    HW131463   9.558   2.414  11.511
76522SOL    HW231464   9.591   2.333  11.635
76523SOL     OW31465   4.218   1.261   4.893
76523SOL    HW131466   4.197   1.187   4.836
76523SOL    HW231467   4.165   1.333   4.860
76524SOL     OW31468   2.595   8.573   7.093
76524SOL    HW131469   2.553   8.489   7.078
76524SOL    HW231470   2.660   8.580   7.023
76525SOL     OW31471   3.766   9.793   4.274
76525SOL    HW131472   3.825   9.867   4.260
76525SOL    HW231473   3.782   9.735   4.200
76526SOL     OW31474   9.615  11.223   0.565
76526SOL    HW131475   9.576  11.184   0.487
76526SOL    HW231476   9.542  11.270   0.606
76527SOL     OW31477   7.487  10.286   8.904
76527SOL    HW131478   7.570  10.315   8.864
76527SOL    HW231479   7.422  10.346   8.868
76528SOL     OW31480   6.102   5.916  12.173
76528SOL    HW131481   6.101   5.996  12.226
76528SOL    HW231482   6.194   5.902  12.151
76529SOL     OW31483   8.938   9.195   4.382
76529SOL    HW131484   8.852   9.212   4.343
76529SOL    HW231485   8.937   9.243   4.465
76530SOL     OW31486  11.357  10.727   3.309
76530SOL    HW131487  11.409  10.742   3.388
76530SOL    HW231488  11.288  10.666   3.337
76531SOL     OW31489   9.117  12.363   5.346
76531SOL    HW131490   9.151  12.421   5.415
76531SOL    HW231491   9.172  12.382   5.270
76532SOL     OW31492   7.078   3.829   3.020
76532SOL    HW131493   7.150   3.768   3.036
76532SOL    HW231494   7.062   3.870   3.105
76533SOL     OW31495   9.305   6.870   6.593
76533SOL    HW131496   9.396   6.858   6.621
76533SOL    HW231497   9.280   6.786   6.556
76534SOL     OW31498  12.191   2.047   6.418
76534SOL    HW131499  12.220   1.990   6.347
76534SOL    HW231500  12.141   2.116   6.374
76535SOL     OW31501   9.466  12.119  14.740
76535SOL    HW131502   9.407  12.092  14.811
76535SOL    HW231503   9.538  12.055  14.743
76536SOL     OW31504   5.167   4.325   8.584
76536SOL    HW131505   5.112   4.248   8.569
76536SOL    HW231506   5.234   4.321   8.516
76537SOL     OW31507  12.874   0.136   8.882
76537SOL    HW131508  12.786   0.163   8.907
76537SOL    HW231509  12.894   0.188   8.804
76538SOL     OW31510   6.350   3.449  12.236
76538SOL    HW131511   6.307   3.527  12.202
76538SOL    HW231512   6.333   3.382  12.170
76539SOL     OW31513  10.990  10.360  13.272
76539SOL    HW131514  10.938  10.421  13.325
76539SOL    HW231515  10.958  10.373  13.183
76540SOL     OW31516  14.295   8.579   8.063
76540SOL    HW131517  14.302   8.669   8.032
76540SOL    HW231518  14.349   8.577   8.142
76541SOL     OW31519   5.071   1.509  10.181
76541SOL    HW131520   5.145   1.524  10.241
76541SOL    HW231521   5.037   1.423  10.208
76542SOL     OW31522   8.158   3.283  11.294
76542SOL    HW131523   8.141   3.273  11.388
76542SOL    HW231524   8.141   3.375  11.277
76543SOL     OW31525   3.313   5.894   3.508
76543SOL    HW131526   3.267   5.821   3.466
76543SOL    HW231527   3.355   5.855   3.584
76544SOL     OW31528  14.363   4.887  11.353
76544SOL    HW131529  14.454   4.860  11.356
76544SOL    HW231530  14.325   4.853  11.433
76545SOL     OW31531  12.906   1.127   3.722
76545SOL    HW131532  12.905   1.201   3.660
76545SOL    HW231533  12.995   1.094   3.719
76546SOL     OW31534  10.974   6.021   7.075
76546SOL    HW131535  10.907   6.086   7.095
76546SOL    HW231536  11.054   6.072   7.063
76547SOL     OW31537   4.213   8.358  13.582
76547SOL    HW131538   4.198   8.419  13.509
76547SOL    HW231539   4.232   8.414  13.657
76548SOL     OW31540   4.969  12.530   5.155
76548SOL    HW131541   5.007  12.579   5.082
76548SOL    HW231542   4.874  12.543   5.146
76549SOL     OW31543  13.636   0.426  14.158
76549SOL    HW131544  13.644   0.501  14.098
76549SOL    HW231545  13.543   0.403  14.155
76550SOL     OW31546   8.504  14.865   7.263
76550SOL    HW131547   8.427  14.887   7.315
76550SOL    HW231548   8.564   0.051   7.276
76551SOL     OW31549  13.895   5.265   5.037
76551SOL    HW131550  13.913   5.302   5.123
76551SOL    HW231551  13.814   5.214   5.048
76552SOL     OW31552   8.146   5.201  14.267
76552SOL    HW131553   8.082   5.186  14.336
76552SOL    HW231554   8.166   5.295  14.274
76553SOL     OW31555   0.934  12.980  10.338
76553SOL    HW131556   0.887  13.060  10.313
76553SOL    HW231557   0.894  12.954  10.421
76554SOL     OW31558   7.489   2.299   7.899
76554SOL    HW131559   7.447   2.295   7.813
76554SOL    HW231560   7.451   2.224   7.946
76555SOL     OW31561   9.722   8.468   4.741
76555SOL    HW131562   9.807   8.447   4.701
76555SOL    HW231563   9.730   8.559   4.767
76556SOL     OW31564   0.081   5.992   1.764
76556SOL    HW131565   0.061   5.949   1.847
76556SOL    HW231566   0.030   5.944   1.699
76557SOL     OW31567  12.199  11.246  14.649
76557SOL    HW131568  12.252  11.217  14.724
76557SOL    HW231569  12.262  11.253  14.577
76558SOL     OW31570  13.386  14.568   1.455
76558SOL    HW131571  13.397  14.485   1.501
76558SOL    HW231572  13.464  14.619   1.477
76559SOL     OW31573   6.259  11.774   0.977
76559SOL    HW131574   6.214  11.726   0.907
76559SOL    HW231575   6.342  11.802   0.938
76560SOL     OW31576  13.993   5.190   9.688
76560SOL    HW131577  14.058   5.251   9.723
76560SOL    HW231578  13.990   5.119   9.751
76561SOL     OW31579  11.095  12.343  14.535
76561SOL    HW131580  11.165  12.311  14.592
76561SOL    HW231581  11.071  12.267  14.482
76562SOL     OW31582  10.444   5.395   7.044
76562SOL    HW131583  10.371   5.369   6.987
76562SOL    HW231584  10.494   5.457   6.991
76563SOL     OW31585   4.507   7.117  11.424
76563SOL    HW131586   4.485   7.064  11.347
76563SOL    HW231587   4.473   7.067  11.498
76564SOL     OW31588   6.753  11.359   2.195
76564SOL    HW131589   6.681  11.369   2.257
76564SOL    HW231590   6.827  11.329   2.249
76565SOL     OW31591   8.563   8.585   4.380
76565SOL    HW131592   8.527   8.671   4.400
76565SOL    HW231593   8.651   8.602   4.347
76566SOL     OW31594   8.055   5.078  10.916
76566SOL    HW131595   8.040   5.075  11.010
76566SOL    HW231596   7.971   5.104  10.878
76567SOL     OW31597   8.140  14.246  14.572
76567SOL    HW131598   8.234  14.255  14.556
76567SOL    HW231599   8.135  14.190  14.650
76568SOL     OW31600   7.288   2.892  14.286
76568SOL    HW131601   7.340   2.856  14.358
76568SOL    HW231602   7.220   2.944  14.330
76569SOL     OW31603   4.366  11.307   9.889
76569SOL    HW131604   4.408  11.221   9.882
76569SOL    HW231605   4.303  11.298   9.960
76570SOL     OW31606   3.770  10.064   2.476
76570SOL    HW131607   3.714  10.000   2.433
76570SOL    HW231608   3.852  10.016   2.492
76571SOL     OW31609  10.809  12.833  12.885
76571SOL    HW131610  10.729  12.781  12.885
76571SOL    HW231611  10.879  12.770  12.903
76572SOL     OW31612   2.464   1.902   0.121
76572SOL    HW131613   2.394   1.956   0.083
76572SOL    HW231614   2.440   1.893   0.213
76573SOL     OW31615   1.517  12.957  13.555
76573SOL    HW131616   1.446  12.992  13.610
76573SOL    HW231617   1.498  12.863  13.548
76574SOL     OW31618   7.257   0.638  12.766
76574SOL    HW131619   7.265   0.619  12.672
76574SOL    HW231620   7.275   0.555  12.809
76575SOL     OW31621  13.718   8.219   8.553
76575SOL    HW131622  13.748   8.265   8.631
76575SOL    HW231623  13.797   8.205   8.501
76576SOL     OW31624   4.711   6.919   4.904
76576SOL    HW131625   4.776   6.864   4.948
76576SOL    HW231626   4.750   7.007   4.904
76577SOL     OW31627  11.498  10.423   1.306
76577SOL    HW131628  11.467  10.360   1.370
76577SOL    HW231629  11.450  10.503   1.324
76578SOL     OW31630   8.249  12.168  11.401
76578SOL    HW131631   8.202  12.207  11.327
76578SOL    HW231632   8.193  12.096  11.431
76579SOL     OW31633  10.060  14.529   9.916
76579SOL    HW131634  10.095  14.488   9.837
76579SOL    HW231635  10.088  14.471   9.987
76580SOL     OW31636  12.508  11.413   8.135
76580SOL    HW131637  12.460  11.343   8.179
76580SOL    HW231638  12.570  11.368   8.078
76581SOL     OW31639  13.551   5.041   4.870
76581SOL    HW131640  13.624   4.985   4.894
76581SOL    HW231641  13.588   5.105   4.809
76582SOL     OW31642  13.364   2.821   3.501
76582SOL    HW131643  13.287   2.830   3.445
76582SOL    HW231644  13.335   2.849   3.587
76583SOL     OW31645   5.863   7.944  10.746
76583SOL    HW131646   5.946   7.922  10.788
76583SOL    HW231647   5.882   7.940  10.652
76584SOL     OW31648   2.695  12.681  14.397
76584SOL    HW131649   2.673  12.658  14.306
76584SOL    HW231650   2.706  12.596  14.440
76585SOL     OW31651  13.773   6.683   7.590
76585SOL    HW131652  13.797   6.600   7.631
76585SOL    HW231653  13.691   6.708   7.632
76586SOL     OW31654   3.807  12.883   1.262
76586SOL    HW131655   3.811  12.823   1.188
76586SOL    HW231656   3.891  12.930   1.260
76587SOL     OW31657   8.210  12.024   2.360
76587SOL    HW131658   8.187  12.076   2.283
76587SOL    HW231659   8.232  11.938   2.324
76588SOL     OW31660   0.141   3.860  12.657
76588SOL    HW131661   0.221   3.847  12.607
76588SOL    HW231662   0.150   3.804  12.734
76589SOL     OW31663   0.549   6.632  13.405
76589SOL    HW131664   0.603   6.671  13.474
76589SOL    HW231665   0.549   6.697  13.335
76590SOL     OW31666  14.167  12.136   9.814
76590SOL    HW131667  14.144  12.197   9.743
76590SOL    HW231668  14.237  12.082   9.777
76591SOL     OW31669  13.773  10.669   1.454
76591SOL    HW131670  13.741  10.744   1.403
76591SOL    HW231671  13.850  10.702   1.499
76592SOL     OW31672   4.511  10.143   9.898
76592SOL    HW131673   4.596  10.159   9.858
76592SOL    HW231674   4.522  10.062   9.947
76593SOL     OW31675   7.707   7.529   6.714
76593SOL    HW131676   7.638   7.481   6.759
76593SOL    HW231677   7.687   7.519   6.621
76594SOL     OW31678  13.465   4.881   1.380
76594SOL    HW131679  13.468   4.971   1.413
76594SOL    HW231680  13.417   4.886   1.298
76595SOL     OW31681   7.172   3.077   2.086
76595SOL    HW131682   7.085   3.070   2.126
76595SOL    HW231683   7.198   2.987   2.069
76596SOL     OW31684  12.533  14.728  10.429
76596SOL    HW131685  12.531  14.816  10.391
76596SOL    HW231686  12.580  14.675  10.364
76597SOL     OW31687   1.872   8.462   0.743
76597SOL    HW131688   1.803   8.482   0.680
76597SOL    HW231689   1.952   8.460   0.690
76598SOL     OW31690  11.419  10.878   2.730
76598SOL    HW131691  11.490  10.940   2.709
76598SOL    HW231692  11.464  10.794   2.739
76599SOL     OW31693   0.235   8.659   4.038
76599SOL    HW131694   0.192   8.574   4.030
76599SOL    HW231695   0.164   8.721   4.052
76600SOL     OW31696  13.384   8.923   6.312
76600SOL    HW131697  13.339   8.895   6.392
76600SOL    HW231698  13.475   8.896   6.325
76601SOL     OW31699  10.037   9.625   2.334
76601SOL    HW131700  10.083   9.643   2.415
76601SOL    HW231701  10.071   9.689   2.272
76602SOL     OW31702  14.428   6.636  13.525
76602SOL    HW131703  14.438   6.672  13.613
76602SOL    HW231704  14.513   6.650  13.483
76603SOL     OW31705   1.805   7.439   1.660
76603SOL    HW131706   1.784   7.464   1.570
76603SOL    HW231707   1.804   7.521   1.708
76604SOL     OW31708   6.970  10.225  12.067
76604SOL    HW131709   6.881  10.248  12.094
76604SOL    HW231710   6.999  10.162  12.134
76605SOL     OW31711   0.394   0.416   8.097
76605SOL    HW131712   0.329   0.366   8.048
76605SOL    HW231713   0.354   0.501   8.111
76606SOL     OW31714   9.261   5.120  11.314
76606SOL    HW131715   9.255   5.097  11.407
76606SOL    HW231716   9.281   5.213  11.314
76607SOL     OW31717  10.103   4.734  12.186
76607SOL    HW131718  10.067   4.777  12.264
76607SOL    HW231719  10.080   4.794  12.114
76608SOL     OW31720   5.654   2.892   0.860
76608SOL    HW131721   5.650   2.878   0.765
76608SOL    HW231722   5.603   2.820   0.897
76609SOL     OW31723  12.585   8.542   4.195
76609SOL    HW131724  12.535   8.505   4.123
76609SOL    HW231725  12.666   8.574   4.154
76610SOL     OW31726   8.583   6.984   4.606
76610SOL    HW131727   8.562   6.893   4.630
76610SOL    HW231728   8.528   7.002   4.530
76611SOL     OW31729   0.882   4.796   6.573
76611SOL    HW131730   0.805   4.820   6.624
76611SOL    HW231731   0.944   4.867   6.588
76612SOL     OW31732   3.403  13.996   4.907
76612SOL    HW131733   3.425  13.957   4.991
76612SOL    HW231734   3.307  13.992   4.903
76613SOL     OW31735   0.609   2.379   9.627
76613SOL    HW131736   0.700   2.357   9.608
76613SOL    HW231737   0.612   2.420   9.714
76614SOL     OW31738   5.022  12.891   6.749
76614SOL    HW131739   4.953  12.846   6.797
76614SOL    HW231740   4.994  12.982   6.746
76615SOL     OW31741   4.991   4.985  14.833
76615SOL    HW131742   4.981   4.986   0.041
76615SOL    HW231743   5.020   4.896  14.813
76616SOL     OW31744  12.946   0.788   3.901
76616SOL    HW131745  12.944   0.881   3.877
76616SOL    HW231746  13.036   0.773   3.930
76617SOL     OW31747  11.411   6.581  12.273
76617SOL    HW131748  11.469   6.646  12.311
76617SOL    HW231749  11.422   6.503  12.328
76618SOL     OW31750   0.790   1.027   7.691
76618SOL    HW131751   0.731   0.977   7.747
76618SOL    HW231752   0.870   0.975   7.688
76619SOL     OW31753   3.070  14.425   5.467
76619SOL    HW131754   3.014  14.411   5.391
76619SOL    HW231755   3.053  14.515   5.494
76620SOL     OW31756  14.530   9.182   2.455
76620SOL    HW131757  14.438   9.206   2.461
76620SOL    HW231758  14.548   9.177   2.361
76621SOL     OW31759  10.779   7.497   8.179
76621SOL    HW131760  10.695   7.463   8.210
76621SOL    HW231761  10.757   7.548   8.102
76622SOL     OW31762   4.413   5.300  11.864
76622SOL    HW131763   4.339   5.291  11.804
76622SOL    HW231764   4.475   5.356  11.817
76623SOL     OW31765   5.519   0.685   2.640
76623SOL    HW131766   5.594   0.720   2.592
76623SOL    HW231767   5.464   0.645   2.572
76624SOL     OW31768   7.387   5.186  14.411
76624SOL    HW131769   7.304   5.168  14.455
76624SOL    HW231770   7.444   5.219  14.480
76625SOL     OW31771   4.779  14.334   7.877
76625SOL    HW131772   4.862  14.293   7.901
76625SOL    HW231773   4.777  14.331   7.782
76626SOL     OW31774   7.833   5.521  12.147
76626SOL    HW131775   7.859   5.456  12.082
76626SOL    HW231776   7.738   5.513  12.152
76627SOL     OW31777   6.175   9.967  11.719
76627SOL    HW131778   6.246  10.013  11.674
76627SOL    HW231779   6.109   9.954  11.651
76628SOL     OW31780   6.701   9.923  10.112
76628SOL    HW131781   6.771   9.859  10.127
76628SOL    HW231782   6.633   9.900  10.175
76629SOL     OW31783   6.303  10.150  11.546
76629SOL    HW131784   6.391  10.134  11.510
76629SOL    HW231785   6.306  10.240  11.578
76630SOL     OW31786  14.477   8.842   0.966
76630SOL    HW131787  14.450   8.787   0.894
76630SOL    HW231788  14.473   8.931   0.931
76631SOL     OW31789   6.272   6.249  13.221
76631SOL    HW131790   6.249   6.320  13.161
76631SOL    HW231791   6.198   6.188  13.214
76632SOL     OW31792  11.364   8.549   4.971
76632SOL    HW131793  11.338   8.591   4.889
76632SOL    HW231794  11.405   8.619   5.023
76633SOL     OW31795  10.798  12.879   8.752
76633SOL    HW131796  10.758  12.921   8.676
76633SOL    HW231797  10.866  12.940   8.780
76634SOL     OW31798   7.367   6.003   3.243
76634SOL    HW131799   7.299   5.974   3.303
76634SOL    HW231800   7.431   6.048   3.299
76635SOL     OW31801  12.226   2.643   1.196
76635SOL    HW131802  12.169   2.633   1.273
76635SOL    HW231803  12.241   2.737   1.189
76636SOL     OW31804  12.690   6.198  13.404
76636SOL    HW131805  12.606   6.203  13.359
76636SOL    HW231806  12.754   6.223  13.338
76637SOL     OW31807   5.961   2.662  10.798
76637SOL    HW131808   5.947   2.662  10.704
76637SOL    HW231809   6.040   2.609  10.810
76638SOL     OW31810   2.997   4.316   1.440
76638SOL    HW131811   3.081   4.313   1.484
76638SOL    HW231812   2.934   4.335   1.509
76639SOL     OW31813  14.224   8.829   4.347
76639SOL    HW131814  14.236   8.924   4.348
76639SOL    HW231815  14.302   8.795   4.391
76640SOL     OW31816  14.007  10.638   4.452
76640SOL    HW131817  13.953  10.717   4.459
76640SOL    HW231818  14.078  10.653   4.514
76641SOL     OW31819   8.817  13.711  12.156
76641SOL    HW131820   8.904  13.689  12.124
76641SOL    HW231821   8.757  13.686  12.085
76642SOL     OW31822   2.031   0.396  12.738
76642SOL    HW131823   1.991   0.465  12.685
76642SOL    HW231824   2.041   0.435  12.824
76643SOL     OW31825  12.131  14.272  10.984
76643SOL    HW131826  12.109  14.179  10.989
76643SOL    HW231827  12.049  14.317  11.005
76644SOL     OW31828   1.272   4.042  13.125
76644SOL    HW131829   1.313   4.111  13.177
76644SOL    HW231830   1.190   4.080  13.095
76645SOL     OW31831  10.729   1.046  12.690
76645SOL    HW131832  10.766   0.964  12.655
76645SOL    HW231833  10.804   1.090  12.730
76646SOL     OW31834   3.174  12.540   6.714
76646SOL    HW131835   3.262  12.579   6.712
76646SOL    HW231836   3.142  12.547   6.624
76647SOL     OW31837  13.828   4.764   2.236
76647SOL    HW131838  13.875   4.689   2.199
76647SOL    HW231839  13.771   4.725   2.303
76648SOL     OW31840  14.259   1.081   1.676
76648SOL    HW131841  14.330   1.017   1.675
76648SOL    HW231842  14.239   1.093   1.769
76649SOL     OW31843   3.867   0.770   5.013
76649SOL    HW131844   3.837   0.691   4.967
76649SOL    HW231845   3.871   0.743   5.105
76650SOL     OW31846   9.029   7.800   8.462
76650SOL    HW131847   9.040   7.892   8.482
76650SOL    HW231848   9.028   7.756   8.547
76651SOL     OW31849   7.082   1.652  12.417
76651SOL    HW131850   7.080   1.738  12.458
76651SOL    HW231851   7.124   1.595  12.482
76652SOL     OW31852   5.435   4.337   9.983
76652SOL    HW131853   5.525   4.337  10.015
76652SOL    HW231854   5.390   4.400  10.040
76653SOL     OW31855   1.805   1.448  14.348
76653SOL    HW131856   1.787   1.540  14.326
76653SOL    HW231857   1.741   1.427  14.416
76654SOL     OW31858   5.747   9.028  11.051
76654SOL    HW131859   5.707   8.941  11.043
76654SOL    HW231860   5.716   9.061  11.135
76655SOL     OW31861   7.067  11.917  13.419
76655SOL    HW131862   6.994  11.939  13.361
76655SOL    HW231863   7.134  11.880  13.361
76656SOL     OW31864   8.752   8.101  12.976
76656SOL    HW131865   8.666   8.114  12.935
76656SOL    HW231866   8.812   8.093  12.902
76657SOL     OW31867  11.414   2.237  10.753
76657SOL    HW131868  11.452   2.152  10.730
76657SOL    HW231869  11.384   2.273  10.669
76658SOL     OW31870   4.860   8.155   0.610
76658SOL    HW131871   4.806   8.232   0.625
76658SOL    HW231872   4.907   8.141   0.693
76659SOL     OW31873  11.243   5.314   8.364
76659SOL    HW131874  11.261   5.372   8.291
76659SOL    HW231875  11.226   5.372   8.438
76660SOL     OW31876  11.142  11.452   2.662
76660SOL    HW131877  11.179  11.527   2.616
76660SOL    HW231878  11.208  11.383   2.654
76661SOL     OW31879   3.930   5.454   2.268
76661SOL    HW131880   3.918   5.476   2.360
76661SOL    HW231881   4.010   5.401   2.266
76662SOL     OW31882   6.441   3.856   5.304
76662SOL    HW131883   6.453   3.767   5.270
76662SOL    HW231884   6.423   3.910   5.227
76663SOL     OW31885   0.107  12.259   5.436
76663SOL    HW131886   0.122  12.167   5.412
76663SOL    HW231887   0.020  12.260   5.476
76664SOL     OW31888   7.719   1.047   4.153
76664SOL    HW131889   7.675   1.055   4.238
76664SOL    HW231890   7.667   0.983   4.105
76665SOL     OW31891   1.437  11.399  10.896
76665SOL    HW131892   1.532  11.398  10.888
76665SOL    HW231893   1.406  11.435  10.813
76666SOL     OW31894  12.028  12.847   0.075
76666SOL    HW131895  12.028  12.941   0.097
76666SOL    HW231896  12.112  12.833   0.031
76667SOL     OW31897   7.577   6.059  12.655
76667SOL    HW131898   7.564   6.125  12.587
76667SOL    HW231899   7.594   5.978  12.607
76668SOL     OW31900   1.224   2.283   3.599
76668SOL    HW131901   1.205   2.377   3.606
76668SOL    HW231902   1.186   2.245   3.678
76669SOL     OW31903   3.725   2.130   8.544
76669SOL    HW131904   3.719   2.208   8.489
76669SOL    HW231905   3.671   2.065   8.499
76670SOL     OW31906   3.591  12.950   6.131
76670SOL    HW131907   3.626  12.916   6.048
76670SOL    HW231908   3.527  13.016   6.104
76671SOL     OW31909   9.815   1.841   1.929
76671SOL    HW131910   9.741   1.786   1.955
76671SOL    HW231911   9.886   1.779   1.910
76672SOL     OW31912   4.390  11.364   6.493
76672SOL    HW131913   4.379  11.373   6.588
76672SOL    HW231914   4.329  11.427   6.455
76673SOL     OW31915   3.465  12.554   5.098
76673SOL    HW131916   3.473  12.474   5.046
76673SOL    HW231917   3.476  12.525   5.188
76674SOL     OW31918  14.327   0.620   9.533
76674SOL    HW131919  14.280   0.595   9.613
76674SOL    HW231920  14.418   0.598   9.551
76675SOL     OW31921  10.616  10.484   7.943
76675SOL    HW131922  10.534  10.444   7.971
76675SOL    HW231923  10.614  10.572   7.979
76676SOL     OW31924  11.512  14.454   8.717
76676SOL    HW131925  11.446  14.388   8.695
76676SOL    HW231926  11.461  14.533   8.736
76677SOL     OW31927  14.764   8.556   2.964
76677SOL    HW131928  14.721   8.514   2.889
76677SOL    HW231929  14.723   8.515   3.040
76678SOL     OW31930   0.000  11.414   7.630
76678SOL    HW131931  14.807  11.448   7.590
76678SOL    HW231932   0.070  11.466   7.589
76679SOL     OW31933   2.198   5.711   6.646
76679SOL    HW131934   2.265   5.717   6.713
76679SOL    HW231935   2.233   5.762   6.572
76680SOL     OW31936  12.370  14.341   3.916
76680SOL    HW131937  12.443  14.310   3.862
76680SOL    HW231938  12.410  14.365   3.999
76681SOL     OW31939   2.499   1.420   3.376
76681SOL    HW131940   2.468   1.369   3.301
76681SOL    HW231941   2.543   1.356   3.432
76682SOL     OW31942   0.826   3.465   1.440
76682SOL    HW131943   0.753   3.441   1.382
76682SOL    HW231944   0.853   3.382   1.480
76683SOL     OW31945   3.108   6.262  12.245
76683SOL    HW131946   3.170   6.321  12.287
76683SOL    HW231947   3.147   6.176  12.253
76684SOL     OW31948   9.840  13.703   3.694
76684SOL    HW131949   9.839  13.616   3.735
76684SOL    HW231950   9.752  13.737   3.709
76685SOL     OW31951  10.828   6.260   9.433
76685SOL    HW131952  10.861   6.269   9.344
76685SOL    HW231953  10.900   6.219   9.481
76686SOL     OW31954  11.709  13.052   0.416
76686SOL    HW131955  11.723  13.127   0.473
76686SOL    HW231956  11.797  13.016   0.402
76687SOL     OW31957  14.276   2.933   1.823
76687SOL    HW131958  14.294   2.996   1.893
76687SOL    HW231959  14.356   2.931   1.772
76688SOL     OW31960   5.632   1.698   3.909
76688SOL    HW131961   5.661   1.789   3.916
76688SOL    HW231962   5.606   1.674   3.997
76689SOL     OW31963   8.503   7.107   7.952
76689SOL    HW131964   8.576   7.168   7.949
76689SOL    HW231965   8.510   7.056   7.871
76690SOL     OW31966   4.920  11.127   6.327
76690SOL    HW131967   4.848  11.119   6.390
76690SOL    HW231968   4.928  11.221   6.311
76691SOL     OW31969  12.577  12.910   1.737
76691SOL    HW131970  12.626  12.841   1.691
76691SOL    HW231971  12.612  12.992   1.702
76692SOL     OW31972   3.416   3.955   4.725
76692SOL    HW131973   3.398   3.862   4.740
76692SOL    HW231974   3.483   3.977   4.790
76693SOL     OW31975   9.936   4.386   9.616
76693SOL    HW131976   9.917   4.479   9.628
76693SOL    HW231977   9.874   4.341   9.672
76694SOL     OW31978  10.705   4.308   1.760
76694SOL    HW131979  10.661   4.245   1.703
76694SOL    HW231980  10.710   4.263   1.845
76695SOL     OW31981  11.287  14.677   9.703
76695SOL    HW131982  11.216  14.613   9.696
76695SOL    HW231983  11.286  14.704   9.795
76696SOL     OW31984   7.303  11.283   3.924
76696SOL    HW131985   7.295  11.224   3.850
76696SOL    HW231986   7.289  11.227   4.001
76697SOL     OW31987   7.338   5.834   8.391
76697SOL    HW131988   7.300   5.863   8.308
76697SOL    HW231989   7.291   5.754   8.412
76698SOL     OW31990   5.077  12.146  14.464
76698SOL    HW131991   5.119  12.217  14.415
76698SOL    HW231992   5.078  12.072  14.403
76699SOL     OW31993   5.554   0.232   6.711
76699SOL    HW131994   5.472   0.183   6.710
76699SOL    HW231995   5.527   0.324   6.713
76700SOL     OW31996   4.881  13.398   9.759
76700SOL    HW131997   4.788  13.393   9.736
76700SOL    HW231998   4.884  13.462   9.830
76701SOL     OW31999   1.851  13.062   0.610
76701SOL    HW132000   1.837  13.068   0.705
76701SOL    HW232001   1.946  13.064   0.600
76702SOL     OW32002  14.517   3.069   9.323
76702SOL    HW132003  14.457   3.136   9.289
76702SOL    HW232004  14.604   3.103   9.305
76703SOL     OW32005   5.009   5.297   3.807
76703SOL    HW132006   5.070   5.367   3.784
76703SOL    HW232007   5.063   5.219   3.814
76704SOL     OW32008   6.715  12.589   2.404
76704SOL    HW132009   6.766  12.663   2.370
76704SOL    HW232010   6.737  12.586   2.497
76705SOL     OW32011   9.255   1.204   1.695
76705SOL    HW132012   9.238   1.264   1.768
76705SOL    HW232013   9.192   1.230   1.627
76706SOL     OW32014   4.716   4.052  10.556
76706SOL    HW132015   4.798   4.078  10.515
76706SOL    HW232016   4.697   4.122  10.619
76707SOL     OW32017   8.139   2.119   9.221
76707SOL    HW132018   8.160   2.038   9.176
76707SOL    HW232019   8.050   2.105   9.255
76708SOL     OW32020   4.907  11.825  10.779
76708SOL    HW132021   4.939  11.814  10.690
76708SOL    HW232022   4.905  11.736  10.816
76709SOL     OW32023   5.302  14.089   4.473
76709SOL    HW132024   5.394  14.074   4.454
76709SOL    HW232025   5.268  14.004   4.501
76710SOL     OW32026  14.227   6.982   0.524
76710SOL    HW132027  14.284   6.922   0.573
76710SOL    HW232028  14.143   6.976   0.569
76711SOL     OW32029   0.798   5.233   7.002
76711SOL    HW132030   0.705   5.241   7.022
76711SOL    HW232031   0.833   5.321   7.018
76712SOL     OW32032   7.306  10.278   4.173
76712SOL    HW132033   7.319  10.319   4.258
76712SOL    HW232034   7.333  10.345   4.109
76713SOL     OW32035  11.071   8.845   6.672
76713SOL    HW132036  11.054   8.811   6.585
76713SOL    HW232037  11.118   8.775   6.717
76714SOL     OW32038   5.065  10.500  10.930
76714SOL    HW132039   5.131  10.503  10.860
76714SOL    HW232040   4.998  10.441  10.897
76715SOL     OW32041   6.482  11.108  14.368
76715SOL    HW132042   6.431  11.059  14.433
76715SOL    HW232043   6.515  11.184  14.416
76716SOL     OW32044   8.254  10.398   6.483
76716SOL    HW132045   8.332  10.399   6.539
76716SOL    HW232046   8.223  10.308   6.488
76717SOL     OW32047   4.586   5.513   4.106
76717SOL    HW132048   4.550   5.477   4.187
76717SOL    HW232049   4.532   5.474   4.036
76718SOL     OW32050  10.138   6.040   7.726
76718SOL    HW132051  10.085   6.076   7.656
76718SOL    HW232052  10.082   5.974   7.767
76719SOL     OW32053  12.517   0.127   3.789
76719SOL    HW132054  12.566   0.110   3.709
76719SOL    HW232055  12.494   0.220   3.783
76720SOL     OW32056  14.420  12.854   5.777
76720SOL    HW132057  14.447  12.925   5.720
76720SOL    HW232058  14.328  12.872   5.797
76721SOL     OW32059  14.308   7.885   8.151
76721SOL    HW132060  14.373   7.915   8.087
76721SOL    HW232061  14.239   7.846   8.097
76722SOL     OW32062   1.657   4.138  11.865
76722SOL    HW132063   1.752   4.142  11.881
76722SOL    HW232064   1.623   4.216  11.909
76723SOL     OW32065   4.559   3.469   3.129
76723SOL    HW132066   4.587   3.386   3.090
76723SOL    HW232067   4.539   3.525   3.054
76724SOL     OW32068   4.292  14.748   0.187
76724SOL    HW132069   4.213  14.702   0.159
76724SOL    HW232070   4.354  14.678   0.209
76725SOL     OW32071   3.491  13.848   3.937
76725SOL    HW132072   3.539  13.929   3.921
76725SOL    HW232073   3.551  13.793   3.987
76726SOL     OW32074   5.398  13.395  10.221
76726SOL    HW132075   5.428  13.478  10.182
76726SOL    HW232076   5.352  13.351  10.149
76727SOL     OW32077   9.732   5.411  14.209
76727SOL    HW132078   9.772   5.486  14.164
76727SOL    HW232079   9.790   5.337  14.189
76728SOL     OW32080  13.759   0.267   1.324
76728SOL    HW132081  13.680   0.285   1.272
76728SOL    HW232082  13.797   0.354   1.340
76729SOL     OW32083  11.256  10.189   1.914
76729SOL    HW132084  11.351  10.180   1.904
76729SOL    HW232085  11.220  10.108   1.879
76730SOL     OW32086   3.755   2.399   6.215
76730SOL    HW132087   3.705   2.321   6.239
76730SOL    HW232088   3.689   2.467   6.205
76731SOL     OW32089   8.342  13.788  12.954
76731SOL    HW132090   8.318  13.749  12.870
76731SOL    HW232091   8.425  13.746  12.978
76732SOL     OW32092  10.070   6.303   2.326
76732SOL    HW132093  10.075   6.292   2.420
76732SOL    HW232094   9.982   6.338   2.310
76733SOL     OW32095   0.581  13.692   0.835
76733SOL    HW132096   0.641  13.705   0.908
76733SOL    HW232097   0.580  13.597   0.820
76734SOL     OW32098   2.280   9.092   1.572
76734SOL    HW132099   2.347   9.038   1.614
76734SOL    HW232100   2.327   9.172   1.546
76735SOL     OW32101  11.252  14.528  13.857
76735SOL    HW132102  11.205  14.491  13.784
76735SOL    HW232103  11.221  14.480  13.934
76736SOL     OW32104   9.031   6.369   5.529
76736SOL    HW132105   9.074   6.406   5.606
76736SOL    HW232106   8.938   6.389   5.542
76737SOL     OW32107   7.511   5.296   5.913
76737SOL    HW132108   7.509   5.381   5.955
76737SOL    HW232109   7.453   5.241   5.967
76738SOL     OW32110  13.567   7.228  11.350
76738SOL    HW132111  13.600   7.318  11.351
76738SOL    HW232112  13.532   7.216  11.262
76739SOL     OW32113   9.529  14.791   5.395
76739SOL    HW132114   9.520  14.813   5.303
76739SOL    HW232115   9.445  14.752   5.419
76740SOL     OW32116   0.543   5.458  12.794
76740SOL    HW132117   0.633   5.491  12.799
76740SOL    HW232118   0.504   5.508  12.722
76741SOL     OW32119   8.091   0.493  14.109
76741SOL    HW132120   8.145   0.569  14.129
76741SOL    HW232121   8.080   0.496  14.014
76742SOL     OW32122   8.178  12.505  10.288
76742SOL    HW132123   8.252  12.534  10.342
76742SOL    HW232124   8.218  12.468  10.210
76743SOL     OW32125  10.239   5.665  10.414
76743SOL    HW132126  10.263   5.572  10.411
76743SOL    HW232127  10.191   5.679  10.333
76744SOL     OW32128   4.132   3.054   7.096
76744SOL    HW132129   4.124   2.992   7.023
76744SOL    HW232130   4.052   3.106   7.091
76745SOL     OW32131   1.052   3.125  11.028
76745SOL    HW132132   1.075   3.062  10.959
76745SOL    HW232133   1.094   3.092  11.107
76746SOL     OW32134   1.050   4.404  14.688
76746SOL    HW132135   1.127   4.437  14.734
76746SOL    HW232136   1.056   4.309  14.696
76747SOL     OW32137  13.122   2.107   1.171
76747SOL    HW132138  13.132   2.171   1.100
76747SOL    HW232139  13.174   2.032   1.143
76748SOL     OW32140   9.480   9.731   8.160
76748SOL    HW132141   9.506   9.808   8.110
76748SOL    HW232142   9.499   9.754   8.251
76749SOL     OW32143   1.630   9.803  13.087
76749SOL    HW132144   1.591   9.843  13.010
76749SOL    HW232145   1.660   9.717  13.057
76750SOL     OW32146   8.444   8.515   2.489
76750SOL    HW132147   8.441   8.426   2.524
76750SOL    HW232148   8.482   8.567   2.559
76751SOL     OW32149   3.028   3.549   1.993
76751SOL    HW132150   2.981   3.618   1.946
76751SOL    HW232151   2.978   3.537   2.074
76752SOL     OW32152   5.839  14.836  11.685
76752SOL    HW132153   5.806  14.849  11.596
76752SOL    HW232154   5.762  14.813  11.736
76753SOL     OW32155   1.843  14.072  10.752
76753SOL    HW132156   1.930  14.057  10.790
76753SOL    HW232157   1.859  14.073  10.657
76754SOL     OW32158  14.313  12.089   5.131
76754SOL    HW132159  14.350  12.004   5.154
76754SOL    HW232160  14.348  12.148   5.198
76755SOL     OW32161  10.073  13.917   2.472
76755SOL    HW132162  10.015  13.992   2.465
76755SOL    HW232163  10.151  13.951   2.516
76756SOL     OW32164   3.076   9.924  11.716
76756SOL    HW132165   3.000   9.983  11.715
76756SOL    HW232166   3.145   9.975  11.758
76757SOL     OW32167  12.061   1.588   7.562
76757SOL    HW132168  12.109   1.617   7.640
76757SOL    HW232169  12.015   1.667   7.533
76758SOL     OW32170   1.381  12.463   8.045
76758SOL    HW132171   1.431  12.536   8.008
76758SOL    HW232172   1.428  12.439   8.125
76759SOL     OW32173   0.030   7.790  11.642
76759SOL    HW132174   0.060   7.783  11.551
76759SOL    HW232175   0.076   7.721  11.688
76760SOL     OW32176   0.257  12.778   5.917
76760SOL    HW132177   0.288  12.838   5.985
76760SOL    HW232178   0.240  12.834   5.841
76761SOL     OW32179  12.650   1.739   4.217
76761SOL    HW132180  12.731   1.790   4.212
76761SOL    HW232181  12.586   1.790   4.167
76762SOL     OW32182   9.834   3.897  12.840
76762SOL    HW132183   9.841   3.870  12.932
76762SOL    HW232184   9.918   3.940  12.821
76763SOL     OW32185  14.158   3.851   2.036
76763SOL    HW132186  14.152   3.936   1.992
76763SOL    HW232187  14.173   3.788   1.966
76764SOL     OW32188   6.663   4.165   5.631
76764SOL    HW132189   6.686   4.204   5.715
76764SOL    HW232190   6.709   4.218   5.566
76765SOL     OW32191  10.205   4.834   9.670
76765SOL    HW132192  10.247   4.915   9.699
76765SOL    HW232193  10.277   4.772   9.658
76766SOL     OW32194  10.703  13.539   8.006
76766SOL    HW132195  10.791  13.532   8.043
76766SOL    HW232196  10.657  13.599   8.064
76767SOL     OW32197   0.248   5.677   7.690
76767SOL    HW132198   0.186   5.624   7.640
76767SOL    HW232199   0.196   5.713   7.762
76768SOL     OW32200  10.549   7.698  10.334
76768SOL    HW132201  10.510   7.614  10.356
76768SOL    HW232202  10.571   7.691  10.241
76769SOL     OW32203  13.518  12.740   4.412
76769SOL    HW132204  13.559  12.792   4.481
76769SOL    HW232205  13.445  12.793   4.382
76770SOL     OW32206   6.457  12.264  13.027
76770SOL    HW132207   6.416  12.177  13.028
76770SOL    HW232208   6.430  12.302  12.943
76771SOL     OW32209   0.297   5.278  11.918
76771SOL    HW132210   0.278   5.287  11.825
76771SOL    HW232211   0.290   5.184  11.936
76772SOL     OW32212   5.620   6.641  10.471
76772SOL    HW132213   5.530   6.640  10.438
76772SOL    HW232214   5.610   6.643  10.566
76773SOL     OW32215   7.972   3.831  11.182
76773SOL    HW132216   7.969   3.829  11.277
76773SOL    HW232217   7.992   3.922  11.160
76774SOL     OW32218   4.419  14.713  11.842
76774SOL    HW132219   4.342  14.662  11.865
76774SOL    HW232220   4.467  14.658  11.780
76775SOL     OW32221  10.597   6.830   4.299
76775SOL    HW132222  10.502   6.839   4.301
76775SOL    HW232223  10.621   6.848   4.209
76776SOL     OW32224  12.517  14.102  13.094
76776SOL    HW132225  12.431  14.092  13.055
76776SOL    HW232226  12.516  14.189  13.134
76777SOL     OW32227   5.282  10.547   6.614
76777SOL    HW132228   5.276  10.454   6.637
76777SOL    HW232229   5.297  10.591   6.698
76778SOL     OW32230   8.430  12.999   9.633
76778SOL    HW132231   8.434  12.904   9.629
76778SOL    HW232232   8.468  13.029   9.550
76779SOL     OW32233   9.916   8.405   4.506
76779SOL    HW132234   9.879   8.481   4.462
76779SOL    HW232235   9.863   8.331   4.477
76780SOL     OW32236  12.410  12.928  10.976
76780SOL    HW132237  12.488  12.984  10.978
76780SOL    HW232238  12.369  12.941  11.061
76781SOL     OW32239  13.448   0.552   5.592
76781SOL    HW132240  13.517   0.569   5.656
76781SOL    HW232241  13.490   0.566   5.507
76782SOL     OW32242   4.527   4.413  11.838
76782SOL    HW132243   4.609   4.368  11.859
76782SOL    HW232244   4.460   4.346  11.849
76783SOL     OW32245   1.170   8.473   6.424
76783SOL    HW132246   1.080   8.501   6.412
76783SOL    HW232247   1.222   8.554   6.418
76784SOL     OW32248  10.584   0.132  14.727
76784SOL    HW132249  10.588   0.227  14.715
76784SOL    HW232250  10.665   0.110  14.773
76785SOL     OW32251   1.915   3.977   1.982
76785SOL    HW132252   2.010   3.990   1.986
76785SOL    HW232253   1.900   3.894   2.027
76786SOL     OW32254  10.112   2.961   0.803
76786SOL    HW132255  10.103   2.874   0.764
76786SOL    HW232256  10.190   2.998   0.763
76787SOL     OW32257   5.988   3.241   4.798
76787SOL    HW132258   6.044   3.164   4.809
76787SOL    HW232259   6.011   3.298   4.871
76788SOL     OW32260   3.429  11.110   5.719
76788SOL    HW132261   3.370  11.178   5.688
76788SOL    HW232262   3.514  11.153   5.726
76789SOL     OW32263  12.925  13.281   6.632
76789SOL    HW132264  12.935  13.222   6.557
76789SOL    HW232265  12.873  13.354   6.598
76790SOL     OW32266  11.205  11.949   6.272
76790SOL    HW132267  11.220  11.864   6.231
76790SOL    HW232268  11.293  11.978   6.299
76791SOL     OW32269  14.043   4.879   6.628
76791SOL    HW132270  13.975   4.942   6.651
76791SOL    HW232271  14.065   4.835   6.711
76792SOL     OW32272  12.354  14.220   2.335
76792SOL    HW132273  12.333  14.142   2.387
76792SOL    HW232274  12.448  14.214   2.320
76793SOL     OW32275  13.335  11.914   4.436
76793SOL    HW132276  13.326  11.877   4.348
76793SOL    HW232277  13.408  11.976   4.429
76794SOL     OW32278  13.294  10.024   1.242
76794SOL    HW132279  13.360  10.092   1.255
76794SOL    HW232280  13.297   9.972   1.322
76795SOL     OW32281   7.376   8.237  13.841
76795SOL    HW132282   7.368   8.148  13.874
76795SOL    HW232283   7.420   8.285  13.910
76796SOL     OW32284  10.897   4.610   8.895
76796SOL    HW132285  10.897   4.689   8.949
76796SOL    HW232286  10.860   4.637   8.811
76797SOL     OW32287   3.153   8.414   1.352
76797SOL    HW132288   3.207   8.335   1.350
76797SOL    HW232289   3.071   8.387   1.392
76798SOL     OW32290   2.229   4.347  10.741
76798SOL    HW132291   2.210   4.425  10.794
76798SOL    HW232292   2.149   4.295  10.745
76799SOL     OW32293   8.527   6.662  11.460
76799SOL    HW132294   8.495   6.585  11.507
76799SOL    HW232295   8.482   6.736  11.501
76800SOL     OW32296   9.716   1.993   4.737
76800SOL    HW132297   9.791   1.941   4.707
76800SOL    HW232298   9.755   2.076   4.766
76801SOL     OW32299  14.862  13.667   7.639
76801SOL    HW132300  14.878  13.597   7.576
76801SOL    HW232301  14.875  13.747   7.589
76802SOL     OW32302  10.120  10.772   3.661
76802SOL    HW132303  10.066  10.843   3.696
76802SOL    HW232304  10.185  10.755   3.729
76803SOL     OW32305   2.744  13.960  11.049
76803SOL    HW132306   2.767  13.976  11.141
76803SOL    HW232307   2.823  13.922  11.010
76804SOL     OW32308   4.264  14.793   5.593
76804SOL    HW132309   4.337  14.795   5.531
76804SOL    HW232310   4.281  14.717   5.648
76805SOL     OW32311   3.304   9.732   9.586
76805SOL    HW132312   3.271   9.644   9.601
76805SOL    HW232313   3.352   9.754   9.667
76806SOL     OW32314  11.900   6.796   6.495
76806SOL    HW132315  11.866   6.712   6.462
76806SOL    HW232316  11.851   6.862   6.446
76807SOL     OW32317  10.775   7.043  14.035
76807SOL    HW132318  10.869   7.053  14.047
76807SOL    HW232319  10.747   6.988  14.108
76808SOL     OW32320  13.895  14.525  10.351
76808SOL    HW132321  13.822  14.507  10.292
76808SOL    HW232322  13.861  14.590  10.412
76809SOL     OW32323   4.439   9.552   6.794
76809SOL    HW132324   4.397   9.605   6.726
76809SOL    HW232325   4.424   9.462   6.766
76810SOL     OW32326   9.254   2.529  12.871
76810SOL    HW132327   9.251   2.572  12.957
76810SOL    HW232328   9.184   2.571  12.821
76811SOL     OW32329   9.454   7.845   0.595
76811SOL    HW132330   9.489   7.933   0.603
76811SOL    HW232331   9.433   7.836   0.502
76812SOL     OW32332  10.444   7.552  12.567
76812SOL    HW132333  10.438   7.522  12.476
76812SOL    HW232334  10.440   7.472  12.619
76813SOL     OW32335  12.848   1.607   5.437
76813SOL    HW132336  12.914   1.622   5.505
76813SOL    HW232337  12.776   1.563   5.483
76814SOL     OW32338   2.466   6.000  13.779
76814SOL    HW132339   2.526   5.988  13.851
76814SOL    HW232340   2.520   5.990  13.700
76815SOL     OW32341   3.248  13.372   5.677
76815SOL    HW132342   3.239  13.291   5.727
76815SOL    HW232343   3.218  13.440   5.736
76816SOL     OW32344  14.675  14.079   1.208
76816SOL    HW132345  14.666  14.123   1.124
76816SOL    HW232346  14.614  14.005   1.203
76817SOL     OW32347  12.355   6.258  14.830
76817SOL    HW132348  12.279   6.238  14.774
76817SOL    HW232349  12.358   6.354  14.833
76818SOL     OW32350  14.786   0.712   9.225
76818SOL    HW132351  14.870   0.725   9.182
76818SOL    HW232352  14.756   0.800   9.246
76819SOL     OW32353   7.958  11.781  10.946
76819SOL    HW132354   7.913  11.838  10.884
76819SOL    HW232355   7.888  11.730  10.987
76820SOL     OW32356   5.157  11.424  10.908
76820SOL    HW132357   5.074  11.448  10.950
76820SOL    HW232358   5.159  11.476  10.828
76821SOL     OW32359  13.333   4.009   5.123
76821SOL    HW132360  13.284   3.954   5.184
76821SOL    HW232361  13.337   3.958   5.042
76822SOL     OW32362   8.301   1.207   5.741
76822SOL    HW132363   8.349   1.124   5.739
76822SOL    HW232364   8.344   1.258   5.809
76823SOL     OW32365   4.287   9.725  13.312
76823SOL    HW132366   4.309   9.761  13.398
76823SOL    HW232367   4.329   9.785  13.250
76824SOL     OW32368   3.865  10.938   1.382
76824SOL    HW132369   3.930  10.954   1.449
76824SOL    HW232370   3.907  10.876   1.322
76825SOL     OW32371   2.384   8.604  10.557
76825SOL    HW132372   2.315   8.538  10.560
76825SOL    HW232373   2.444   8.578  10.628
76826SOL     OW32374  10.194   3.320   9.868
76826SOL    HW132375  10.250   3.337   9.944
76826SOL    HW232376  10.160   3.231   9.883
76827SOL     OW32377  12.487   2.567   1.146
76827SOL    HW132378  12.484   2.473   1.128
76827SOL    HW232379  12.395   2.591   1.159
76828SOL     OW32380   5.619   0.938   0.587
76828SOL    HW132381   5.613   0.862   0.645
76828SOL    HW232382   5.568   0.914   0.510
76829SOL     OW32383   9.308  12.517  14.069
76829SOL    HW132384   9.400  12.494  14.054
76829SOL    HW232385   9.302  12.530  14.164
76830SOL     OW32386  11.768  14.025   9.867
76830SOL    HW132387  11.694  14.034   9.807
76830SOL    HW232388  11.746  13.950   9.922
76831SOL     OW32389   2.930   5.224   8.753
76831SOL    HW132390   2.949   5.231   8.659
76831SOL    HW232391   2.836   5.241   8.759
76832SOL     OW32392   3.446   8.555   3.171
76832SOL    HW132393   3.408   8.467   3.168
76832SOL    HW232394   3.383   8.607   3.221
76833SOL     OW32395  14.614   6.893  10.482
76833SOL    HW132396  14.543   6.839  10.516
76833SOL    HW232397  14.653   6.841  10.412
76834SOL     OW32398  10.819   2.937  12.484
76834SOL    HW132399  10.834   2.898  12.397
76834SOL    HW232400  10.906   2.944  12.522
76835SOL     OW32401   1.842  10.206   2.466
76835SOL    HW132402   1.930  10.217   2.502
76835SOL    HW232403   1.852  10.143   2.396
76836SOL     OW32404   0.803   2.596  10.589
76836SOL    HW132405   0.789   2.531  10.520
76836SOL    HW232406   0.769   2.677  10.553
76837SOL     OW32407  13.169   0.484   7.016
76837SOL    HW132408  13.243   0.500   7.074
76837SOL    HW232409  13.146   0.571   6.981
76838SOL     OW32410   1.606   4.153   1.268
76838SOL    HW132411   1.628   4.124   1.179
76838SOL    HW232412   1.511   4.154   1.270
76839SOL     OW32413   5.951   9.568  12.328
76839SOL    HW132414   6.030   9.577  12.274
76839SOL    HW232415   5.886   9.530  12.269
76840SOL     OW32416   5.658  14.786  13.873
76840SOL    HW132417   5.591  14.735  13.919
76840SOL    HW232418   5.737  14.732  13.877
76841SOL     OW32419   6.845   7.119   0.408
76841SOL    HW132420   6.762   7.112   0.362
76841SOL    HW232421   6.822   7.137   0.499
76842SOL     OW32422   2.036   2.778   3.730
76842SOL    HW132423   1.962   2.830   3.760
76842SOL    HW232424   2.086   2.760   3.810
76843SOL     OW32425   6.736   2.515   9.070
76843SOL    HW132426   6.736   2.432   9.024
76843SOL    HW232427   6.652   2.555   9.047
76844SOL     OW32428  10.379   6.230   0.167
76844SOL    HW132429  10.284   6.235   0.156
76844SOL    HW232430  10.392   6.184   0.249
76845SOL     OW32431  11.667   8.763   8.311
76845SOL    HW132432  11.631   8.764   8.222
76845SOL    HW232433  11.731   8.835   8.312
76846SOL     OW32434   7.297  12.628   7.385
76846SOL    HW132435   7.238  12.606   7.313
76846SOL    HW232436   7.271  12.717   7.410
76847SOL     OW32437  13.787  10.393  10.300
76847SOL    HW132438  13.780  10.464  10.235
76847SOL    HW232439  13.876  10.360  10.290
76848SOL     OW32440   3.678   2.609  13.207
76848SOL    HW132441   3.755   2.612  13.265
76848SOL    HW232442   3.603   2.607  13.267
76849SOL     OW32443  14.827   2.814   0.708
76849SOL    HW132444  14.880   2.794   0.785
76849SOL    HW232445  14.844   2.741   0.648
76850SOL     OW32446  14.105  10.596  12.571
76850SOL    HW132447  14.172  10.601  12.639
76850SOL    HW232448  14.074  10.686  12.561
76851SOL     OW32449   6.762   1.344   4.599
76851SOL    HW132450   6.811   1.424   4.618
76851SOL    HW232451   6.681   1.375   4.559
76852SOL     OW32452   3.782   2.845   5.418
76852SOL    HW132453   3.816   2.781   5.356
76852SOL    HW232454   3.745   2.793   5.489
76853SOL     OW32455   9.850  10.953  14.264
76853SOL    HW132456   9.905  10.876  14.251
76853SOL    HW232457   9.847  10.964  14.359
76854SOL     OW32458   4.282   8.771  11.243
76854SOL    HW132459   4.246   8.683  11.238
76854SOL    HW232460   4.376   8.759  11.239
76855SOL     OW32461  10.501  12.940   1.001
76855SOL    HW132462  10.508  13.034   0.985
76855SOL    HW232463  10.409  12.919   0.981
76856SOL     OW32464   5.503  13.257   8.209
76856SOL    HW132465   5.482  13.229   8.120
76856SOL    HW232466   5.423  13.296   8.242
76857SOL     OW32467   8.033  10.648   3.726
76857SOL    HW132468   7.977  10.719   3.756
76857SOL    HW232469   7.998  10.624   3.640
76858SOL     OW32470   8.679   6.806  11.046
76858SOL    HW132471   8.740   6.799  11.120
76858SOL    HW232472   8.645   6.717  11.034
76859SOL     OW32473   6.627   6.456   6.702
76859SOL    HW132474   6.621   6.451   6.607
76859SOL    HW232475   6.537   6.468   6.731
76860SOL     OW32476   6.002   9.923   3.231
76860SOL    HW132477   5.907   9.911   3.223
76860SOL    HW232478   6.039   9.839   3.202
76861SOL     OW32479  12.409  14.460   4.206
76861SOL    HW132480  12.456  14.533   4.166
76861SOL    HW232481  12.340  14.501   4.258
76862SOL     OW32482   1.586   2.672   4.205
76862SOL    HW132483   1.530   2.631   4.271
76862SOL    HW232484   1.567   2.625   4.124
76863SOL     OW32485   5.534  10.591  12.418
76863SOL    HW132486   5.540  10.686  12.402
76863SOL    HW232487   5.616  10.568  12.461
76864SOL     OW32488  10.226  13.180  13.925
76864SOL    HW132489  10.264  13.260  13.962
76864SOL    HW232490  10.276  13.109  13.966
76865SOL     OW32491   2.137   0.005  13.046
76865SOL    HW132492   2.118   0.091  13.083
76865SOL    HW232493   2.232  14.885  13.050
76866SOL     OW32494   5.734   0.962   8.982
76866SOL    HW132495   5.700   1.047   9.009
76866SOL    HW232496   5.828   0.977   8.968
76867SOL     OW32497  14.656   7.116   9.226
76867SOL    HW132498  14.640   7.118   9.321
76867SOL    HW232499  14.748   7.142   9.217
76868SOL     OW32500  11.358   2.173  14.504
76868SOL    HW132501  11.380   2.214  14.421
76868SOL    HW232502  11.382   2.238  14.570
76869SOL     OW32503  10.825  11.619   3.224
76869SOL    HW132504  10.768  11.564   3.170
76869SOL    HW232505  10.780  11.703   3.228
76870SOL     OW32506   5.406  13.748   1.068
76870SOL    HW132507   5.349  13.744   0.991
76870SOL    HW232508   5.446  13.835   1.063
76871SOL     OW32509   7.745   1.949   2.349
76871SOL    HW132510   7.818   1.887   2.356
76871SOL    HW232511   7.730   1.957   2.255
76872SOL     OW32512   2.658  14.666   5.323
76872SOL    HW132513   2.578  14.635   5.280
76872SOL    HW232514   2.633  14.676   5.415
76873SOL     OW32515   9.802  14.062   3.666
76873SOL    HW132516   9.781  14.155   3.671
76873SOL    HW232517   9.836  14.050   3.578
76874SOL     OW32518   3.733   9.952   1.408
76874SOL    HW132519   3.792   9.964   1.334
76874SOL    HW232520   3.784   9.902   1.472
76875SOL     OW32521   0.090   2.836  11.186
76875SOL    HW132522   0.160   2.855  11.249
76875SOL    HW232523   0.035   2.914  11.187
76876SOL     OW32524   4.692   2.582   0.911
76876SOL    HW132525   4.633   2.535   0.852
76876SOL    HW232526   4.768   2.525   0.920
76877SOL     OW32527   2.659   2.090   8.548
76877SOL    HW132528   2.752   2.091   8.528
76877SOL    HW232529   2.618   2.138   8.477
76878SOL     OW32530   3.304   3.365   8.163
76878SOL    HW132531   3.311   3.417   8.243
76878SOL    HW232532   3.328   3.276   8.190
76879SOL     OW32533  13.331   5.139   0.002
76879SOL    HW132534  13.406   5.199  14.885
76879SOL    HW232535  13.335   5.102   0.090
76880SOL     OW32536   7.550   7.205   9.708
76880SOL    HW132537   7.473   7.188   9.654
76880SOL    HW232538   7.578   7.293   9.684
76881SOL     OW32539   9.149   6.111   9.941
76881SOL    HW132540   9.111   6.048   9.879
76881SOL    HW232541   9.158   6.062  10.022
76882SOL     OW32542  10.653   5.354  13.789
76882SOL    HW132543  10.695   5.441  13.788
76882SOL    HW232544  10.697   5.307  13.860
76883SOL     OW32545  14.027   7.693   9.417
76883SOL    HW132546  13.999   7.779   9.448
76883SOL    HW232547  14.093   7.711   9.351
76884SOL     OW32548  13.653  13.552  12.818
76884SOL    HW132549  13.605  13.596  12.889
76884SOL    HW232550  13.743  13.585  12.826
76885SOL     OW32551   7.553  11.798   9.867
76885SOL    HW132552   7.491  11.833   9.931
76885SOL    HW232553   7.529  11.841   9.784
76886SOL     OW32554  13.960   7.951   2.358
76886SOL    HW132555  13.875   7.936   2.316
76886SOL    HW232556  13.940   8.007   2.433
76887SOL     OW32557   0.447  10.246   2.062
76887SOL    HW132558   0.400  10.232   2.144
76887SOL    HW232559   0.394  10.311   2.015
76888SOL     OW32560   0.148   9.932   5.826
76888SOL    HW132561   0.177   9.865   5.764
76888SOL    HW232562   0.161   9.893   5.912
76889SOL     OW32563   2.678   7.717   4.732
76889SOL    HW132564   2.668   7.627   4.761
76889SOL    HW232565   2.679   7.712   4.636
76890SOL     OW32566   7.910   4.435   8.750
76890SOL    HW132567   7.827   4.388   8.759
76890SOL    HW232568   7.967   4.374   8.702
76891SOL     OW32569   9.801   7.326   8.057
76891SOL    HW132570   9.804   7.389   8.129
76891SOL    HW232571   9.868   7.261   8.080
76892SOL     OW32572   7.179  14.168  12.894
76892SOL    HW132573   7.256  14.201  12.848
76892SOL    HW232574   7.215  14.120  12.969
76893SOL     OW32575  11.598  10.718  12.228
76893SOL    HW132576  11.647  10.730  12.147
76893SOL    HW232577  11.610  10.800  12.276
76894SOL     OW32578   6.779   4.639   9.656
76894SOL    HW132579   6.860   4.611   9.615
76894SOL    HW232580   6.719   4.566   9.643
76895SOL     OW32581  13.773   7.256  10.001
76895SOL    HW132582  13.823   7.175  10.009
76895SOL    HW232583  13.762   7.268   9.907
76896SOL     OW32584   9.002   9.840  11.496
76896SOL    HW132585   9.060   9.771  11.529
76896SOL    HW232586   9.053   9.883  11.428
76897SOL     OW32587   1.674   1.860   9.474
76897SOL    HW132588   1.658   1.946   9.436
76897SOL    HW232589   1.640   1.865   9.563
76898SOL     OW32590  12.490   8.207   9.025
76898SOL    HW132591  12.462   8.241   9.109
76898SOL    HW232592  12.566   8.152   9.045
76899SOL     OW32593  14.254  12.445  10.104
76899SOL    HW132594  14.165  12.411  10.095
76899SOL    HW232595  14.244  12.540  10.101
76900SOL     OW32596  10.618   7.361  10.687
76900SOL    HW132597  10.636   7.398  10.774
76900SOL    HW232598  10.704   7.343  10.649
76901SOL     OW32599  12.241   5.824   2.451
76901SOL    HW132600  12.162   5.879   2.446
76901SOL    HW232601  12.310   5.878   2.412
76902SOL     OW32602  12.856   2.579   6.103
76902SOL    HW132603  12.820   2.668   6.094
76902SOL    HW232604  12.915   2.586   6.178
76903SOL     OW32605  11.749  12.788  14.285
76903SOL    HW132606  11.843  12.799  14.291
76903SOL    HW232607  11.713  12.856  14.343
76904SOL     OW32608  13.174   8.129   5.043
76904SOL    HW132609  13.133   8.044   5.029
76904SOL    HW232610  13.223   8.119   5.124
76905SOL     OW32611  14.743   4.348   6.351
76905SOL    HW132612  14.824   4.298   6.360
76905SOL    HW232613  14.710   4.325   6.264
76906SOL     OW32614  13.476  12.911   9.512
76906SOL    HW132615  13.480  12.884   9.603
76906SOL    HW232616  13.540  12.855   9.467
76907SOL     OW32617   0.562   0.075   6.731
76907SOL    HW132618   0.566   0.103   6.822
76907SOL    HW232619   0.567  14.867   6.735
76908SOL     OW32620   5.321  14.162   3.396
76908SOL    HW132621   5.315  14.116   3.312
76908SOL    HW232622   5.355  14.248   3.373
76909SOL     OW32623  12.002  11.613  12.370
76909SOL    HW132624  11.911  11.640  12.360
76909SOL    HW232625  12.017  11.612  12.464
76910SOL     OW32626  14.783   2.248   3.201
76910SOL    HW132627  14.842   2.287   3.265
76910SOL    HW232628  14.837   2.236   3.123
76911SOL     OW32629  12.770  10.457  12.043
76911SOL    HW132630  12.808  10.419  11.963
76911SOL    HW232631  12.846  10.474  12.100
76912SOL     OW32632   2.413   6.556  10.250
76912SOL    HW132633   2.440   6.560  10.341
76912SOL    HW232634   2.490   6.521  10.204
76913SOL     OW32635   1.067   9.760   0.650
76913SOL    HW132636   1.000   9.694   0.671
76913SOL    HW232637   1.087   9.746   0.558
76914SOL     OW32638   7.974   1.437   5.335
76914SOL    HW132639   8.070   1.436   5.329
76914SOL    HW232640   7.946   1.356   5.293
76915SOL     OW32641   0.242   2.355   0.480
76915SOL    HW132642   0.173   2.330   0.419
76915SOL    HW232643   0.297   2.416   0.429
76916SOL     OW32644   3.340   3.799  13.531
76916SOL    HW132645   3.265   3.838  13.577
76916SOL    HW232646   3.325   3.820  13.439
76917SOL     OW32647  10.612   5.811  11.793
76917SOL    HW132648  10.544   5.746  11.808
76917SOL    HW232649  10.680   5.791  11.858
76918SOL     OW32650  11.670   8.484   2.650
76918SOL    HW132651  11.605   8.550   2.674
76918SOL    HW232652  11.709   8.458   2.734
76919SOL     OW32653  11.827   6.902  14.821
76919SOL    HW132654  11.839   6.877  14.730
76919SOL    HW232655  11.909   6.877  14.864
76920SOL     OW32656   7.832   5.392  13.149
76920SOL    HW132657   7.798   5.326  13.210
76920SOL    HW232658   7.888   5.343  13.089
76921SOL     OW32659   3.171   3.950   5.336
76921SOL    HW132660   3.081   3.925   5.358
76921SOL    HW232661   3.225   3.890   5.387
76922SOL     OW32662   7.595   8.848   8.936
76922SOL    HW132663   7.501   8.834   8.938
76922SOL    HW232664   7.632   8.770   8.978
76923SOL     OW32665   8.775   3.418  13.595
76923SOL    HW132666   8.695   3.407  13.544
76923SOL    HW232667   8.756   3.491  13.654
76924SOL     OW32668   5.103   1.817   4.275
76924SOL    HW132669   5.133   1.901   4.309
76924SOL    HW232670   5.029   1.792   4.331
76925SOL     OW32671  11.107  10.506   3.105
76925SOL    HW132672  11.068  10.428   3.143
76925SOL    HW232673  11.127  10.562   3.179
76926SOL     OW32674   6.269   4.786   8.336
76926SOL    HW132675   6.211   4.859   8.312
76926SOL    HW232676   6.261   4.724   8.264
76927SOL     OW32677   9.396   0.588  12.242
76927SOL    HW132678   9.410   0.494  12.239
76927SOL    HW232679   9.318   0.600  12.297
76928SOL     OW32680  12.197   6.320   2.698
76928SOL    HW132681  12.259   6.393   2.712
76928SOL    HW232682  12.182   6.320   2.604
76929SOL     OW32683   3.011  13.920   8.912
76929SOL    HW132684   3.054  13.908   8.997
76929SOL    HW232685   3.065  13.871   8.850
76930SOL     OW32686   7.577   2.485   7.487
76930SOL    HW132687   7.575   2.578   7.464
76930SOL    HW232688   7.609   2.483   7.577
76931SOL     OW32689  11.332  10.183  11.599
76931SOL    HW132690  11.425  10.173  11.619
76931SOL    HW232691  11.310  10.272  11.630
76932SOL     OW32692  13.140   7.285  11.972
76932SOL    HW132693  13.144   7.295  12.067
76932SOL    HW232694  13.126   7.191  11.958
76933SOL     OW32695   3.501   2.390   9.515
76933SOL    HW132696   3.453   2.360   9.438
76933SOL    HW232697   3.521   2.310   9.564
76934SOL     OW32698   7.997   0.687  14.568
76934SOL    HW132699   8.070   0.659  14.624
76934SOL    HW232700   7.919   0.652  14.612
76935SOL     OW32701   5.815   1.179   0.931
76935SOL    HW132702   5.889   1.150   0.877
76935SOL    HW232703   5.849   1.256   0.978
76936SOL     OW32704  12.534  10.537   5.067
76936SOL    HW132705  12.561  10.559   4.978
76936SOL    HW232706  12.593  10.588   5.123
76937SOL     OW32707   9.334  13.673   9.039
76937SOL    HW132708   9.246  13.637   9.042
76937SOL    HW232709   9.334  13.743   9.105
76938SOL     OW32710  10.033  12.126   8.681
76938SOL    HW132711   9.990  12.195   8.632
76938SOL    HW232712  10.125  12.132   8.654
76939SOL     OW32713   1.984   9.414   6.021
76939SOL    HW132714   1.953   9.323   6.017
76939SOL    HW232715   1.916   9.464   5.975
76940SOL     OW32716  10.758   2.622   5.627
76940SOL    HW132717  10.725   2.588   5.711
76940SOL    HW232718  10.690   2.683   5.598
76941SOL     OW32719  13.464  11.157   6.993
76941SOL    HW132720  13.548  11.139   6.951
76941SOL    HW232721  13.425  11.071   7.007
76942SOL     OW32722  12.298  11.066   7.551
76942SOL    HW132723  12.241  10.993   7.575
76942SOL    HW232724  12.384  11.040   7.583
76943SOL     OW32725   2.156   0.238   5.522
76943SOL    HW132726   2.073   0.195   5.541
76943SOL    HW232727   2.204   0.234   5.605
76944SOL     OW32728   2.668  13.577  10.858
76944SOL    HW132729   2.692  13.493  10.896
76944SOL    HW232730   2.608  13.616  10.923
76945SOL     OW32731   0.844  10.396   6.784
76945SOL    HW132732   0.822  10.426   6.872
76945SOL    HW232733   0.803  10.310   6.777
76946SOL     OW32734   6.733  13.096   5.871
76946SOL    HW132735   6.660  13.133   5.921
76946SOL    HW232736   6.705  13.006   5.852
76947SOL     OW32737   6.720   6.997  13.340
76947SOL    HW132738   6.673   7.079  13.357
76947SOL    HW232739   6.667   6.930  13.382
76948SOL     OW32740   2.672   8.487   3.918
76948SOL    HW132741   2.597   8.529   3.876
76948SOL    HW232742   2.741   8.492   3.853
76949SOL     OW32743  12.811   6.009  13.549
76949SOL    HW132744  12.742   6.064  13.512
76949SOL    HW232745  12.795   5.922  13.513
76950SOL     OW32746   0.016   1.122  11.109
76950SOL    HW132747  14.876   1.148  11.198
76950SOL    HW232748   0.044   1.204  11.068
76951SOL     OW32749   2.417  12.930   0.819
76951SOL    HW132750   2.345  12.992   0.827
76951SOL    HW232751   2.375  12.845   0.812
76952SOL     OW32752   0.529  10.544  11.829
76952SOL    HW132753   0.461  10.610  11.845
76952SOL    HW232754   0.604  10.572  11.881
76953SOL     OW32755  10.454   9.497  14.830
76953SOL    HW132756  10.461   9.579  14.879
76953SOL    HW232757  10.365   9.498  14.795
76954SOL     OW32758   3.321  14.155  12.790
76954SOL    HW132759   3.382  14.093  12.829
76954SOL    HW232760   3.325  14.232  12.848
76955SOL     OW32761   7.074  13.742   4.228
76955SOL    HW132762   7.091  13.656   4.267
76955SOL    HW232763   7.041  13.723   4.140
76956SOL     OW32764   1.734  13.577   5.314
76956SOL    HW132765   1.737  13.502   5.373
76956SOL    HW232766   1.774  13.648   5.364
76957SOL     OW32767  11.053   6.025  12.233
76957SOL    HW132768  11.102   6.103  12.208
76957SOL    HW232769  11.048   5.973  12.153
76958SOL     OW32770   3.297  10.663   8.539
76958SOL    HW132771   3.365  10.596   8.548
76958SOL    HW232772   3.341  10.737   8.499
76959SOL     OW32773   4.774   6.697   3.241
76959SOL    HW132774   4.784   6.674   3.149
76959SOL    HW232775   4.686   6.734   3.247
76960SOL     OW32776   7.763   7.269   4.042
76960SOL    HW132777   7.787   7.313   4.123
76960SOL    HW232778   7.725   7.185   4.071
76961SOL     OW32779   6.814  13.387   7.327
76961SOL    HW132780   6.764  13.455   7.282
76961SOL    HW232781   6.753  13.314   7.335
76962SOL     OW32782   3.218   0.956   2.967
76962SOL    HW132783   3.236   1.048   2.988
76962SOL    HW232784   3.207   0.914   3.053
76963SOL     OW32785   5.678   7.001   3.337
76963SOL    HW132786   5.614   6.949   3.385
76963SOL    HW232787   5.755   6.945   3.330
76964SOL     OW32788   8.918   0.879   1.301
76964SOL    HW132789   8.879   0.792   1.300
76964SOL    HW232790   8.942   0.893   1.393
76965SOL     OW32791  11.228   9.123   0.481
76965SOL    HW132792  11.243   9.043   0.431
76965SOL    HW232793  11.276   9.110   0.562
76966SOL     OW32794   3.610  14.063   5.925
76966SOL    HW132795   3.538  14.003   5.948
76966SOL    HW232796   3.567  14.133   5.876
76967SOL     OW32797   2.360  13.936  14.441
76967SOL    HW132798   2.393  13.872  14.504
76967SOL    HW232799   2.265  13.927  14.445
76968SOL     OW32800   3.128   7.527   4.409
76968SOL    HW132801   3.086   7.584   4.474
76968SOL    HW232802   3.085   7.549   4.327
76969SOL     OW32803  11.582   2.674   9.261
76969SOL    HW132804  11.504   2.665   9.316
76969SOL    HW232805  11.605   2.767   9.268
76970SOL     OW32806  14.511   8.167   0.323
76970SOL    HW132807  14.587   8.118   0.357
76970SOL    HW232808  14.550   8.234   0.267
76971SOL     OW32809  13.444   6.270   4.151
76971SOL    HW132810  13.355   6.282   4.185
76971SOL    HW232811  13.433   6.264   4.056
76972SOL     OW32812   1.816   1.418   6.216
76972SOL    HW132813   1.898   1.392   6.174
76972SOL    HW232814   1.748   1.370   6.168
76973SOL     OW32815   2.840   9.212  12.385
76973SOL    HW132816   2.930   9.201  12.355
76973SOL    HW232817   2.801   9.125  12.376
76974SOL     OW32818  12.645   6.418  11.105
76974SOL    HW132819  12.694   6.349  11.149
76974SOL    HW232820  12.709   6.459  11.046
76975SOL     OW32821  13.387  14.082  12.469
76975SOL    HW132822  13.433  14.134  12.403
76975SOL    HW232823  13.294  14.093  12.447
76976SOL     OW32824   5.489  10.824  13.895
76976SOL    HW132825   5.512  10.914  13.919
76976SOL    HW232826   5.394  10.823  13.895
76977SOL     OW32827   2.829   1.298   6.553
76977SOL    HW132828   2.776   1.363   6.507
76977SOL    HW232829   2.886   1.260   6.486
76978SOL     OW32830   5.064  10.318   1.041
76978SOL    HW132831   4.969  10.314   1.052
76978SOL    HW232832   5.097  10.336   1.129
76979SOL     OW32833   2.862   9.934  13.824
76979SOL    HW132834   2.937   9.965  13.772
76979SOL    HW232835   2.837  10.010  13.876
76980SOL     OW32836  12.148  11.534  11.040
76980SOL    HW132837  12.100  11.452  11.032
76980SOL    HW232838  12.235  11.514  11.004
76981SOL     OW32839  10.821  11.499  14.419
76981SOL    HW132840  10.905  11.458  14.399
76981SOL    HW232841  10.804  11.474  14.510
76982SOL     OW32842   9.796  10.707   5.697
76982SOL    HW132843   9.872  10.699   5.639
76982SOL    HW232844   9.726  10.739   5.641
76983SOL     OW32845  10.519   5.613   1.990
76983SOL    HW132846  10.547   5.611   1.899
76983SOL    HW232847  10.547   5.699   2.023
76984SOL     OW32848   9.662  11.878   9.983
76984SOL    HW132849   9.638  11.815  10.052
76984SOL    HW232850   9.598  11.948   9.991
76985SOL     OW32851   8.150  12.497   2.355
76985SOL    HW132852   8.098  12.551   2.415
76985SOL    HW232853   8.100  12.415   2.347
76986SOL     OW32854  14.368   3.749   4.250
76986SOL    HW132855  14.440   3.807   4.227
76986SOL    HW232856  14.315   3.799   4.312
76987SOL     OW32857   1.822  14.626   2.288
76987SOL    HW132858   1.839  14.534   2.270
76987SOL    HW232859   1.909  14.665   2.296
76988SOL     OW32860   5.551   8.375   2.360
76988SOL    HW132861   5.469   8.404   2.321
76988SOL    HW232862   5.534   8.286   2.390
76989SOL     OW32863  13.410  12.113   7.015
76989SOL    HW132864  13.447  12.201   7.001
76989SOL    HW232865  13.338  12.127   7.076
76990SOL     OW32866   8.427   7.102   6.885
76990SOL    HW132867   8.450   7.165   6.816
76990SOL    HW232868   8.509   7.057   6.905
76991SOL     OW32869   5.824   2.647  14.811
76991SOL    HW132870   5.842   2.693  14.729
76991SOL    HW232871   5.733   2.667  14.831
76992SOL     OW32872  10.128   2.050   2.470
76992SOL    HW132873  10.122   2.128   2.415
76992SOL    HW232874  10.076   1.984   2.424
76993SOL     OW32875   9.012   1.484  10.013
76993SOL    HW132876   8.984   1.557   9.959
76993SOL    HW232877   9.060   1.525  10.085
76994SOL     OW32878   8.461   9.704   0.210
76994SOL    HW132879   8.489   9.614   0.195
76994SOL    HW232880   8.518   9.756   0.152
76995SOL     OW32881   9.917   3.308   6.004
76995SOL    HW132882   9.983   3.351   5.950
76995SOL    HW232883   9.919   3.216   5.976
76996SOL     OW32884  11.348   1.533   3.469
76996SOL    HW132885  11.291   1.609   3.478
76996SOL    HW232886  11.341   1.487   3.552
76997SOL     OW32887   2.030   4.717   0.819
76997SOL    HW132888   2.122   4.719   0.846
76997SOL    HW232889   1.981   4.714   0.901
76998SOL     OW32890   0.972   2.579   4.373
76998SOL    HW132891   1.065   2.560   4.385
76998SOL    HW232892   0.969   2.669   4.341
76999SOL     OW32893   2.832   1.572   1.201
76999SOL    HW132894   2.903   1.603   1.257
76999SOL    HW232895   2.752   1.600   1.246
77000SOL     OW32896  13.494  11.178   9.263
77000SOL    HW132897  13.495  11.264   9.304
77000SOL    HW232898  13.584  11.146   9.272
77001SOL     OW32899  14.085   8.884  13.053
77001SOL    HW132900  14.035   8.823  13.107
77001SOL    HW232901  14.050   8.873  12.965
77002SOL     OW32902   6.559  11.832  11.389
77002SOL    HW132903   6.638  11.782  11.412
77002SOL    HW232904   6.558  11.904  11.452
77003SOL     OW32905   8.625   5.354   4.729
77003SOL    HW132906   8.585   5.302   4.798
77003SOL    HW232907   8.551   5.389   4.679
77004SOL     OW32908   5.170   9.771   0.788
77004SOL    HW132909   5.217   9.690   0.766
77004SOL    HW232910   5.209   9.800   0.870
77005SOL     OW32911  14.763   0.180  11.137
77005SOL    HW132912  14.722   0.259  11.102
77005SOL    HW232913  14.850   0.209  11.166
77006SOL     OW32914   9.244   4.754   0.839
77006SOL    HW132915   9.157   4.792   0.847
77006SOL    HW232916   9.304   4.825   0.865
77007SOL     OW32917   3.449  14.418   3.144
77007SOL    HW132918   3.391  14.344   3.158
77007SOL    HW232919   3.485  14.438   3.230
77008SOL     OW32920   8.868   0.295   4.500
77008SOL    HW132921   8.938   0.301   4.436
77008SOL    HW232922   8.838   0.385   4.511
77009SOL     OW32923   3.952   5.602  13.663
77009SOL    HW132924   3.980   5.689  13.692
77009SOL    HW232925   3.872   5.585  13.713
77010SOL     OW32926   6.784   6.457  10.623
77010SOL    HW132927   6.848   6.400  10.663
77010SOL    HW232928   6.823   6.483  10.539
77011SOL     OW32929   7.663  14.460   4.842
77011SOL    HW132930   7.708  14.382   4.809
77011SOL    HW232931   7.690  14.530   4.783
77012SOL     OW32932  14.069  12.263   5.939
77012SOL    HW132933  14.049  12.242   5.847
77012SOL    HW232934  14.081  12.179   5.981
77013SOL     OW32935   4.502  11.606  12.174
77013SOL    HW132936   4.526  11.517  12.149
77013SOL    HW232937   4.459  11.596  12.259
77014SOL     OW32938   3.034   9.963   3.288
77014SOL    HW132939   3.072   9.970   3.376
77014SOL    HW232940   3.031   9.869   3.271
77015SOL     OW32941  12.860   6.309  14.009
77015SOL    HW132942  12.902   6.237  14.056
77015SOL    HW232943  12.837   6.271  13.924
77016SOL     OW32944   7.587   3.725   4.603
77016SOL    HW132945   7.611   3.633   4.591
77016SOL    HW232946   7.670   3.772   4.592
77017SOL     OW32947  12.853   3.024   4.037
77017SOL    HW132948  12.927   3.084   4.032
77017SOL    HW232949  12.788   3.071   4.089
77018SOL     OW32950   1.237  13.038  13.612
77018SOL    HW132951   1.174  13.108  13.593
77018SOL    HW232952   1.186  12.973  13.662
77019SOL     OW32953   4.524  13.897  14.490
77019SOL    HW132954   4.593  13.961  14.473
77019SOL    HW232955   4.518  13.846  14.409
77020SOL     OW32956   8.638  13.300   0.312
77020SOL    HW132957   8.600  13.273   0.396
77020SOL    HW232958   8.583  13.373   0.283
77021SOL     OW32959   7.207   9.132   8.322
77021SOL    HW132960   7.267   9.175   8.260
77021SOL    HW232961   7.198   9.043   8.288
77022SOL     OW32962   8.635   6.710  13.068
77022SOL    HW132963   8.591   6.764  13.134
77022SOL    HW232964   8.676   6.639  13.117
77023SOL     OW32965   6.703  12.180  10.075
77023SOL    HW132966   6.696  12.275  10.065
77023SOL    HW232967   6.624  12.146  10.033
77024SOL     OW32968   8.118   4.428  11.050
77024SOL    HW132969   8.197   4.386  11.083
77024SOL    HW232970   8.100   4.498  11.113
77025SOL     OW32971   6.074  10.372   0.764
77025SOL    HW132972   5.999  10.419   0.801
77025SOL    HW232973   6.036  10.320   0.693
77026SOL     OW32974   7.278  10.405  12.466
77026SOL    HW132975   7.206  10.441  12.517
77026SOL    HW232976   7.272  10.451  12.382
77027SOL     OW32977  14.062  13.412  12.868
77027SOL    HW132978  14.135  13.354  12.846
77027SOL    HW232979  13.987  13.353  12.878
77028SOL     OW32980   6.096   3.916   4.437
77028SOL    HW132981   6.033   3.978   4.474
77028SOL    HW232982   6.181   3.958   4.449
77029SOL     OW32983  14.310  12.522  13.678
77029SOL    HW132984  14.253  12.581  13.727
77029SOL    HW232985  14.289  12.537  13.586
77030SOL     OW32986   6.170   9.249   6.152
77030SOL    HW132987   6.143   9.239   6.061
77030SOL    HW232988   6.245   9.190   6.161
77031SOL     OW32989  13.805   4.159   2.899
77031SOL    HW132990  13.895   4.140   2.870
77031SOL    HW232991  13.749   4.107   2.842
77032SOL     OW32992  10.728  11.209   7.523
77032SOL    HW132993  10.692  11.128   7.557
77032SOL    HW232994  10.664  11.276   7.546
77033SOL     OW32995  11.151  13.876  13.314
77033SOL    HW132996  11.168  13.960  13.270
77033SOL    HW232997  11.154  13.811  13.244
77034SOL     OW32998   5.179   2.251   3.687
77034SOL    HW132999   5.226   2.203   3.618
77034SOL    HW233000   5.093   2.268   3.649
77035SOL     OW33001  11.891   8.013  13.174
77035SOL    HW133002  11.981   7.984  13.185
77035SOL    HW233003  11.840   7.958  13.235
77036SOL     OW33004   1.837  10.520  14.763
77036SOL    HW133005   1.779  10.492  14.692
77036SOL    HW233006   1.780  10.566  14.824
77037SOL     OW33007  12.502  12.196   7.156
77037SOL    HW133008  12.473  12.133   7.222
77037SOL    HW233009  12.450  12.175   7.078
77038SOL     OW33010  12.626  11.590   5.882
77038SOL    HW133011  12.622  11.544   5.965
77038SOL    HW233012  12.644  11.681   5.905
77039SOL     OW33013   4.856  14.778   3.477
77039SOL    HW133014   4.937  14.730   3.498
77039SOL    HW233015   4.827  14.814   3.561
77040SOL     OW33016   6.196   1.969  13.497
77040SOL    HW133017   6.238   1.894  13.537
77040SOL    HW233018   6.219   1.964  13.404
77041SOL     OW33019   5.727   5.362   5.824
77041SOL    HW133020   5.709   5.441   5.876
77041SOL    HW233021   5.652   5.306   5.840
77042SOL     OW33022  11.939   7.242  11.249
77042SOL    HW133023  12.013   7.298  11.272
77042SOL    HW233024  11.868   7.303  11.229
77043SOL     OW33025   8.740  12.097   9.706
77043SOL    HW133026   8.765  12.021   9.758
77043SOL    HW233027   8.647  12.084   9.687
77044SOL     OW33028   1.090   4.741   1.568
77044SOL    HW133029   1.076   4.673   1.633
77044SOL    HW233030   1.015   4.735   1.509
77045SOL     OW33031   0.189  12.551  13.468
77045SOL    HW133032   0.212  12.643  13.478
77045SOL    HW233033   0.099  12.545  13.500
77046SOL     OW33034   6.794   6.710   4.805
77046SOL    HW133035   6.803   6.720   4.900
77046SOL    HW233036   6.701   6.722   4.788
77047SOL     OW33037   7.908  10.809  14.206
77047SOL    HW133038   7.990  10.847  14.236
77047SOL    HW233039   7.899  10.840  14.116
77048SOL     OW33040   6.453  12.510  12.217
77048SOL    HW133041   6.446  12.600  12.250
77048SOL    HW233042   6.512  12.466  12.278
77049SOL     OW33043  13.332   2.427  13.350
77049SOL    HW133044  13.358   2.506  13.303
77049SOL    HW233045  13.249   2.451  13.392
77050SOL     OW33046  11.240  10.404  10.119
77050SOL    HW133047  11.207  10.422  10.207
77050SOL    HW233048  11.161  10.398  10.064
77051SOL     OW33049  10.846   6.252   2.569
77051SOL    HW133050  10.769   6.216   2.612
77051SOL    HW233051  10.812   6.296   2.491
77052SOL     OW33052   8.154   0.871   5.408
77052SOL    HW133053   8.158   0.816   5.486
77052SOL    HW233054   8.174   0.959   5.439
77053SOL     OW33055   2.860  13.551   1.639
77053SOL    HW133056   2.905  13.618   1.587
77053SOL    HW233057   2.853  13.589   1.727
77054SOL     OW33058   0.502   0.425   5.366
77054SOL    HW133059   0.558   0.412   5.442
77054SOL    HW233060   0.501   0.520   5.352
77055SOL     OW33061  12.793   6.584   1.891
77055SOL    HW133062  12.708   6.569   1.933
77055SOL    HW233063  12.851   6.518   1.929
77056SOL     OW33064   2.532   3.888  11.696
77056SOL    HW133065   2.586   3.967  11.692
77056SOL    HW233066   2.593   3.816  11.684
77057SOL     OW33067   3.636   2.292   7.958
77057SOL    HW133068   3.699   2.336   7.901
77057SOL    HW233069   3.684   2.215   7.990
77058SOL     OW33070  14.178   2.339   8.167
77058SOL    HW133071  14.252   2.304   8.117
77058SOL    HW233072  14.177   2.433   8.147
77059SOL     OW33073   6.863   1.631   7.463
77059SOL    HW133074   6.792   1.571   7.487
77059SOL    HW233075   6.884   1.609   7.372
77060SOL     OW33076  12.361   8.964  11.225
77060SOL    HW133077  12.406   8.894  11.273
77060SOL    HW233078  12.366   8.937  11.134
77061SOL     OW33079   2.053  14.593  13.332
77061SOL    HW133080   2.046  14.685  13.358
77061SOL    HW233081   1.964  14.559  13.340
77062SOL     OW33082   2.669   0.256   3.199
77062SOL    HW133083   2.749   0.243   3.250
77062SOL    HW233084   2.600   0.223   3.256
77063SOL     OW33085  12.940   8.504   6.367
77063SOL    HW133086  12.930   8.598   6.351
77063SOL    HW233087  13.035   8.489   6.361
77064SOL     OW33088   4.426  11.814  12.515
77064SOL    HW133089   4.450  11.904  12.535
77064SOL    HW233090   4.502  11.762  12.540
77065SOL     OW33091   5.489  12.456  13.292
77065SOL    HW133092   5.578  12.449  13.329
77065SOL    HW233093   5.491  12.535  13.239
77066SOL     OW33094   4.283   8.268   2.655
77066SOL    HW133095   4.307   8.203   2.722
77066SOL    HW233096   4.334   8.243   2.578
77067SOL     OW33097  13.857   8.443   4.401
77067SOL    HW133098  13.837   8.397   4.320
77067SOL    HW233099  13.921   8.386   4.445
77068SOL     OW33100   5.650   3.217  13.745
77068SOL    HW133101   5.683   3.131  13.722
77068SOL    HW233102   5.567   3.225  13.697
77069SOL     OW33103   1.511   5.764   5.451
77069SOL    HW133104   1.467   5.832   5.502
77069SOL    HW233105   1.588   5.808   5.415
77070SOL     OW33106   8.568   3.010   3.764
77070SOL    HW133107   8.643   2.972   3.718
77070SOL    HW233108   8.597   3.019   3.854
77071SOL     OW33109  13.066   4.722   7.025
77071SOL    HW133110  13.006   4.673   7.081
77071SOL    HW233111  13.127   4.656   6.991
77072SOL     OW33112   2.652   6.679   9.056
77072SOL    HW133113   2.584   6.662   8.991
77072SOL    HW233114   2.688   6.593   9.076
77073SOL     OW33115  13.988   1.154   7.786
77073SOL    HW133116  13.893   1.148   7.777
77073SOL    HW233117  14.001   1.212   7.861
77074SOL     OW33118   9.783   4.954  13.784
77074SOL    HW133119   9.789   4.864  13.753
77074SOL    HW233120   9.815   4.950  13.874
77075SOL     OW33121   4.675   5.598   3.028
77075SOL    HW133122   4.745   5.663   3.017
77075SOL    HW233123   4.717   5.525   3.074
77076SOL     OW33124   7.869   4.171  10.970
77076SOL    HW133125   7.965   4.180  10.966
77076SOL    HW233126   7.849   4.095  10.915
77077SOL     OW33127  14.535  12.708   8.091
77077SOL    HW133128  14.452  12.681   8.130
77077SOL    HW233129  14.511  12.751   8.009
77078SOL     OW33130  14.528   1.083   7.932
77078SOL    HW133131  14.578   1.164   7.942
77078SOL    HW233132  14.552   1.030   8.008
77079SOL     OW33133   2.590  13.217   5.122
77079SOL    HW133134   2.561  13.279   5.189
77079SOL    HW233135   2.586  13.267   5.040
77080SOL     OW33136   4.490   7.674   0.206
77080SOL    HW133137   4.412   7.635   0.168
77080SOL    HW233138   4.516   7.742   0.145
77081SOL     OW33139   8.784  12.611   2.705
77081SOL    HW133140   8.758  12.519   2.711
77081SOL    HW233141   8.715  12.659   2.752
77082SOL     OW33142  13.254   1.375   7.209
77082SOL    HW133143  13.197   1.364   7.285
77082SOL    HW233144  13.305   1.454   7.228
77083SOL     OW33145   7.899   8.188  13.577
77083SOL    HW133146   7.811   8.157  13.597
77083SOL    HW233147   7.907   8.178  13.482
77084SOL     OW33148   7.105   4.537   6.108
77084SOL    HW133149   7.026   4.482   6.110
77084SOL    HW233150   7.130   4.545   6.200
77085SOL     OW33151   6.367   4.798   2.084
77085SOL    HW133152   6.348   4.891   2.079
77085SOL    HW233153   6.295   4.755   2.038
77086SOL     OW33154   8.510  12.422  10.712
77086SOL    HW133155   8.474  12.356  10.771
77086SOL    HW233156   8.557  12.483  10.769
77087SOL     OW33157   4.511   3.447   8.052
77087SOL    HW133158   4.571   3.432   8.124
77087SOL    HW233159   4.473   3.361   8.033
77088SOL     OW33160  12.997   7.819   5.239
77088SOL    HW133161  13.003   7.892   5.300
77088SOL    HW233162  12.932   7.848   5.174
77089SOL     OW33163  13.006   7.056  13.281
77089SOL    HW133164  13.020   7.061  13.186
77089SOL    HW233165  12.917   7.090  13.293
77090SOL     OW33166   6.634  14.589  12.988
77090SOL    HW133167   6.551  14.568  12.947
77090SOL    HW233168   6.675  14.653  12.929
77091SOL     OW33169   3.731  14.765  14.046
77091SOL    HW133170   3.636  14.768  14.040
77091SOL    HW233171   3.761  14.799  13.962
77092SOL     OW33172   1.479   6.919   7.340
77092SOL    HW133173   1.455   6.920   7.432
77092SOL    HW233174   1.412   6.864   7.298
77093SOL     OW33175   9.727  13.334   6.699
77093SOL    HW133176   9.798  13.370   6.646
77093SOL    HW233177   9.725  13.241   6.676
77094SOL     OW33178   4.775   4.814  13.664
77094SOL    HW133179   4.850   4.760  13.690
77094SOL    HW233180   4.732   4.837  13.746
77095SOL     OW33181   0.313   5.032   5.198
77095SOL    HW133182   0.313   4.943   5.164
77095SOL    HW233183   0.253   5.030   5.272
77096SOL     OW33184   9.414  10.839   9.083
77096SOL    HW133185   9.384  10.858   8.994
77096SOL    HW233186   9.367  10.759   9.107
77097SOL     OW33187   8.736   7.137  10.166
77097SOL    HW133188   8.827   7.160  10.185
77097SOL    HW233189   8.708   7.084  10.241
77098SOL     OW33190  11.453  10.489   0.590
77098SOL    HW133191  11.391  10.488   0.663
77098SOL    HW233192  11.484  10.399   0.584
77099SOL     OW33193   8.299   6.746   4.944
77099SOL    HW133194   8.334   6.739   5.032
77099SOL    HW233195   8.231   6.812   4.950
77100SOL     OW33196   1.193   2.932   6.247
77100SOL    HW133197   1.126   2.872   6.213
77100SOL    HW233198   1.189   3.007   6.187
77101SOL     OW33199   7.222   9.876   7.240
77101SOL    HW133200   7.171   9.944   7.195
77101SOL    HW233201   7.173   9.795   7.225
77102SOL     OW33202  14.385  10.198  13.616
77102SOL    HW133203  14.448  10.148  13.564
77102SOL    HW233204  14.423  10.200  13.704
77103SOL     OW33205  13.207   9.002  11.434
77103SOL    HW133206  13.142   9.043  11.490
77103SOL    HW233207  13.285   8.994  11.489
77104SOL     OW33208  12.655   2.550   4.539
77104SOL    HW133209  12.693   2.482   4.595
77104SOL    HW233210  12.599   2.503   4.477
77105SOL     OW33211  13.123   6.863  12.017
77105SOL    HW133212  13.189   6.875  12.086
77105SOL    HW233213  13.053   6.924  12.039
77106SOL     OW33214   2.442   7.917   8.010
77106SOL    HW133215   2.394   7.872   7.940
77106SOL    HW233216   2.381   7.983   8.043
77107SOL     OW33217  11.143  12.653   8.599
77107SOL    HW133218  11.213  12.676   8.538
77107SOL    HW233219  11.088  12.592   8.550
77108SOL     OW33220   8.914   1.962   0.518
77108SOL    HW133221   8.872   1.968   0.604
77108SOL    HW233222   8.874   2.033   0.467
77109SOL     OW33223   5.519   7.222   1.500
77109SOL    HW133224   5.525   7.153   1.567
77109SOL    HW233225   5.425   7.233   1.486
77110SOL     OW33226   0.163   9.689  12.495
77110SOL    HW133227   0.161   9.777  12.533
77110SOL    HW233228   0.251   9.679  12.461
77111SOL     OW33229   2.917   9.818   9.026
77111SOL    HW133230   2.948   9.907   9.010
77111SOL    HW233231   2.992   9.763   9.002
77112SOL     OW33232   6.037   0.834   6.477
77112SOL    HW133233   5.971   0.843   6.408
77112SOL    HW233234   6.032   0.915   6.526
77113SOL     OW33235   4.747  12.448  11.832
77113SOL    HW133236   4.777  12.475  11.919
77113SOL    HW233237   4.807  12.379  11.806
77114SOL     OW33238   6.778   7.102   4.743
77114SOL    HW133239   6.725   7.180   4.727
77114SOL    HW233240   6.730   7.031   4.700
77115SOL     OW33241   6.320   1.983   5.321
77115SOL    HW133242   6.290   1.910   5.375
77115SOL    HW233243   6.307   2.061   5.376
77116SOL     OW33244   0.551   4.195  11.340
77116SOL    HW133245   0.565   4.290  11.347
77116SOL    HW233246   0.638   4.159  11.324
77117SOL     OW33247  13.467   6.355   8.030
77117SOL    HW133248  13.398   6.398   8.080
77117SOL    HW233249  13.437   6.265   8.019
77118SOL     OW33250  10.151   6.057   1.134
77118SOL    HW133251  10.129   6.141   1.174
77118SOL    HW233252  10.173   6.000   1.208
77119SOL     OW33253  10.223   1.296   4.352
77119SOL    HW133254  10.157   1.362   4.373
77119SOL    HW233255  10.274   1.287   4.432
77120SOL     OW33256  12.690  10.257  11.744
77120SOL    HW133257  12.669  10.220  11.658
77120SOL    HW233258  12.756  10.323  11.726
77121SOL     OW33259   5.589  12.176   8.091
77121SOL    HW133260   5.521  12.136   8.145
77121SOL    HW233261   5.648  12.218   8.155
77122SOL     OW33262   7.060  13.358  11.803
77122SOL    HW133263   6.992  13.293  11.784
77122SOL    HW233264   7.115  13.358  11.724
77123SOL     OW33265  10.497   4.340   9.028
77123SOL    HW133266  10.562   4.300   8.970
77123SOL    HW233267  10.415   4.334   8.980
77124SOL     OW33268   9.063   9.943   9.128
77124SOL    HW133269   9.089   9.870   9.071
77124SOL    HW233270   9.008   9.998   9.073
77125SOL     OW33271  10.898   3.422   8.997
77125SOL    HW133272  10.837   3.495   8.988
77125SOL    HW233273  10.864   3.372   9.072
77126SOL     OW33274  12.428   8.475   8.022
77126SOL    HW133275  12.396   8.466   8.111
77126SOL    HW233276  12.412   8.567   7.999
77127SOL     OW33277  14.441   3.313   7.353
77127SOL    HW133278  14.521   3.305   7.301
77127SOL    HW233279  14.445   3.402   7.389
77128SOL     OW33280   0.605   9.564  10.551
77128SOL    HW133281   0.556   9.533  10.474
77128SOL    HW233282   0.673   9.620  10.515
77129SOL     OW33283   6.590  11.193   6.617
77129SOL    HW133284   6.552  11.113   6.654
77129SOL    HW233285   6.682  11.172   6.603
77130SOL     OW33286  13.622   7.008   9.782
77130SOL    HW133287  13.597   6.990   9.691
77130SOL    HW233288  13.637   7.102   9.785
77131SOL     OW33289   7.339   1.056  10.946
77131SOL    HW133290   7.384   0.971  10.952
77131SOL    HW233291   7.256   1.036  10.903
77132SOL     OW33292   9.022  12.489  14.042
77132SOL    HW133293   9.004  12.574  14.003
77132SOL    HW233294   9.117  12.481  14.041
77133SOL     OW33295   5.343   3.034  13.971
77133SOL    HW133296   5.256   3.004  13.995
77133SOL    HW233297   5.353   3.010  13.879
77134SOL     OW33298   0.212  13.909   0.913
77134SOL    HW133299   0.145  13.852   0.876
77134SOL    HW233300   0.293  13.884   0.868
77135SOL     OW33301  10.929  12.822   3.250
77135SOL    HW133302  10.877  12.817   3.330
77135SOL    HW233303  10.979  12.903   3.258
77136SOL     OW33304   4.362  10.573  11.917
77136SOL    HW133305   4.397  10.627  11.988
77136SOL    HW233306   4.337  10.635  11.849
77137SOL     OW33307   9.814   4.525   5.394
77137SOL    HW133308   9.811   4.611   5.353
77137SOL    HW233309   9.722   4.496   5.396
77138SOL     OW33310   8.164  14.186   7.950
77138SOL    HW133311   8.144  14.119   7.884
77138SOL    HW233312   8.087  14.188   8.006
77139SOL     OW33313   9.072   2.938   5.230
77139SOL    HW133314   9.031   3.013   5.188
77139SOL    HW233315   9.042   2.863   5.178
77140SOL     OW33316   0.182   9.751   8.430
77140SOL    HW133317   0.251   9.763   8.365
77140SOL    HW233318   0.218   9.790   8.510
77141SOL     OW33319   1.206   4.690  10.782
77141SOL    HW133320   1.133   4.740  10.820
77141SOL    HW233321   1.279   4.752  10.782
77142SOL     OW33322  12.395   8.571   2.044
77142SOL    HW133323  12.391   8.565   1.949
77142SOL    HW233324  12.467   8.513   2.069
77143SOL     OW33325   9.362  12.933   6.569
77143SOL    HW133326   9.433  12.930   6.633
77143SOL    HW233327   9.393  12.996   6.503
77144SOL     OW33328   1.351   8.282   6.025
77144SOL    HW133329   1.306   8.354   6.070
77144SOL    HW233330   1.340   8.301   5.932
77145SOL     OW33331   6.386   2.720   4.055
77145SOL    HW133332   6.386   2.794   4.116
77145SOL    HW233333   6.313   2.665   4.084
77146SOL     OW33334   5.264  14.244  12.834
77146SOL    HW133335   5.353  14.214  12.815
77146SOL    HW233336   5.207  14.185  12.784
77147SOL     OW33337   6.771   1.410  14.597
77147SOL    HW133338   6.808   1.322  14.599
77147SOL    HW233339   6.676   1.397  14.604
77148SOL     OW33340   6.738  12.782  11.752
77148SOL    HW133341   6.686  12.717  11.705
77148SOL    HW233342   6.751  12.853  11.690
77149SOL     OW33343   7.160  10.817  13.214
77149SOL    HW133344   7.207  10.789  13.292
77149SOL    HW233345   7.068  10.822  13.242
77150SOL     OW33346   5.517  13.161   5.068
77150SOL    HW133347   5.572  13.176   5.145
77150SOL    HW233348   5.430  13.144   5.104
77151SOL     OW33349   8.631  12.418   9.421
77151SOL    HW133350   8.592  12.491   9.373
77151SOL    HW233351   8.637  12.449   9.511
77152SOL     OW33352   4.202   3.493   2.390
77152SOL    HW133353   4.202   3.579   2.347
77152SOL    HW233354   4.256   3.505   2.468
77153SOL     OW33355   1.122   0.442  11.826
77153SOL    HW133356   1.105   0.450  11.732
77153SOL    HW233357   1.193   0.378  11.832
77154SOL     OW33358  12.492   0.660  12.517
77154SOL    HW133359  12.556   0.709  12.466
77154SOL    HW233360  12.445   0.607  12.452
77155SOL     OW33361  10.940   8.357   7.676
77155SOL    HW133362  11.020   8.340   7.626
77155SOL    HW233363  10.960   8.328   7.765
77156SOL     OW33364   5.620  13.866  13.016
77156SOL    HW133365   5.692  13.846  12.956
77156SOL    HW233366   5.639  13.814  13.094
77157SOL     OW33367   3.930  10.408   3.361
77157SOL    HW133368   3.876  10.377   3.288
77157SOL    HW233369   3.870  10.408   3.436
77158SOL     OW33370  13.630   9.721   5.862
77158SOL    HW133371  13.681   9.756   5.935
77158SOL    HW233372  13.542   9.755   5.875
77159SOL     OW33373   1.712   0.179   7.429
77159SOL    HW133374   1.691   0.256   7.377
77159SOL    HW233375   1.664   0.191   7.511
77160SOL     OW33376   7.651   6.020   8.615
77160SOL    HW133377   7.634   5.940   8.565
77160SOL    HW233378   7.723   6.062   8.568
77161SOL     OW33379  12.536   9.418   4.255
77161SOL    HW133380  12.573   9.338   4.293
77161SOL    HW233381  12.589   9.488   4.292
77162SOL     OW33382   3.694   2.135   7.380
77162SOL    HW133383   3.684   2.189   7.301
77162SOL    HW233384   3.707   2.198   7.451
77163SOL     OW33385   7.882  13.664   0.814
77163SOL    HW133386   7.899  13.620   0.897
77163SOL    HW233387   7.868  13.593   0.752
77164SOL     OW33388   3.745  14.882   0.665
77164SOL    HW133389   3.704  14.796   0.678
77164SOL    HW233390   3.763  14.886   0.571
77165SOL     OW33391   3.701   1.992   7.790
77165SOL    HW133392   3.794   2.013   7.789
77165SOL    HW233393   3.692   1.922   7.725
77166SOL     OW33394   2.950  11.627   8.277
77166SOL    HW133395   2.888  11.699   8.284
77166SOL    HW233396   3.001  11.632   8.358
77167SOL     OW33397   6.037   9.456  10.865
77167SOL    HW133398   6.008   9.546  10.853
77167SOL    HW233399   6.015   9.436  10.956
77168SOL     OW33400   8.890   2.476   5.804
77168SOL    HW133401   8.867   2.510   5.717
77168SOL    HW233402   8.852   2.539   5.865
77169SOL     OW33403  14.853   9.229  13.976
77169SOL    HW133404  14.810   9.194  13.898
77169SOL    HW233405   0.041   9.278  13.942
77170SOL     OW33406   0.608   1.412   6.325
77170SOL    HW133407   0.680   1.413   6.387
77170SOL    HW233408   0.649   1.395   6.240
77171SOL     OW33409   2.805   7.442  13.940
77171SOL    HW133410   2.862   7.509  13.902
77171SOL    HW233411   2.833   7.361  13.898
77172SOL     OW33412  12.120   4.733   3.288
77172SOL    HW133413  12.209   4.711   3.314
77172SOL    HW233414  12.069   4.655   3.310
77173SOL     OW33415   8.678   4.511   0.450
77173SOL    HW133416   8.682   4.581   0.384
77173SOL    HW233417   8.668   4.431   0.399
77174SOL     OW33418   0.459   8.950   8.447
77174SOL    HW133419   0.410   8.880   8.489
77174SOL    HW233420   0.550   8.936   8.475
77175SOL     OW33421  13.986  10.792   9.514
77175SOL    HW133422  14.031  10.711   9.537
77175SOL    HW233423  14.057  10.855   9.499
77176SOL     OW33424   1.469   9.742   6.151
77176SOL    HW133425   1.411   9.704   6.217
77176SOL    HW233426   1.557   9.722   6.181
77177SOL     OW33427   7.624   5.190   1.385
77177SOL    HW133428   7.547   5.153   1.342
77177SOL    HW233429   7.645   5.128   1.454
77178SOL     OW33430   7.050  11.750   9.701
77178SOL    HW133431   6.986  11.802   9.750
77178SOL    HW233432   7.070  11.803   9.624
77179SOL     OW33433  12.728   5.381  13.367
77179SOL    HW133434  12.742   5.407  13.276
77179SOL    HW233435  12.663   5.311  13.363
77180SOL     OW33436   9.129  12.401   3.330
77180SOL    HW133437   9.196  12.427   3.393
77180SOL    HW233438   9.048  12.397   3.382
77181SOL     OW33439   6.708   2.232  10.412
77181SOL    HW133440   6.732   2.297  10.479
77181SOL    HW233441   6.663   2.283  10.345
77182SOL     OW33442  12.378  14.458   0.094
77182SOL    HW133443  12.318  14.423   0.028
77182SOL    HW233444  12.357  14.410   0.174
77183SOL     OW33445   3.942  10.841  11.674
77183SOL    HW133446   3.963  10.933  11.659
77183SOL    HW233447   3.868  10.843  11.734
77184SOL     OW33448   2.271   8.442   2.423
77184SOL    HW133449   2.279   8.512   2.359
77184SOL    HW233450   2.340   8.379   2.399
77185SOL     OW33451   7.814   9.510   1.197
77185SOL    HW133452   7.833   9.577   1.131
77185SOL    HW233453   7.896   9.461   1.205
77186SOL     OW33454   6.384   3.941   2.308
77186SOL    HW133455   6.467   3.896   2.295
77186SOL    HW233456   6.370   3.939   2.402
77187SOL     OW33457  12.226   3.832   3.107
77187SOL    HW133458  12.195   3.744   3.088
77187SOL    HW233459  12.290   3.820   3.177
77188SOL     OW33460   1.297  10.405   2.850
77188SOL    HW133461   1.278  10.497   2.831
77188SOL    HW233462   1.309  10.365   2.764
77189SOL     OW33463  12.105   1.877  13.221
77189SOL    HW133464  12.198   1.853  13.226
77189SOL    HW233465  12.105   1.965  13.184
77190SOL     OW33466   9.934  10.370  11.382
77190SOL    HW133467   9.848  10.402  11.356
77190SOL    HW233468   9.972  10.442  11.432
77191SOL     OW33469  10.608   5.600  14.614
77191SOL    HW133470  10.572   5.513  14.634
77191SOL    HW233471  10.651   5.589  14.529
77192SOL     OW33472   5.588   1.400   9.366
77192SOL    HW133473   5.669   1.425   9.320
77192SOL    HW233474   5.519   1.445   9.318
77193SOL     OW33475  10.593   6.104   5.680
77193SOL    HW133476  10.503   6.075   5.666
77193SOL    HW233477  10.635   6.090   5.595
77194SOL     OW33478   3.798  14.856   2.564
77194SOL    HW133479   3.886  14.869   2.527
77194SOL    HW233480   3.739   0.005   2.498
77195SOL     OW33481  11.407   2.865   9.682
77195SOL    HW133482  11.465   2.789   9.684
77195SOL    HW233483  11.462   2.938   9.713
77196SOL     OW33484  13.174   6.612   1.862
77196SOL    HW133485  13.140   6.562   1.936
77196SOL    HW233486  13.097   6.654   1.824
77197SOL     OW33487   9.713   8.446  10.766
77197SOL    HW133488   9.740   8.364  10.725
77197SOL    HW233489   9.626   8.428  10.802
77198SOL     OW33490   2.128   5.159   0.990
77198SOL    HW133491   2.125   5.109   1.072
77198SOL    HW233492   2.222   5.173   0.974
77199SOL     OW33493  14.683   1.793  12.059
77199SOL    HW133494  14.697   1.706  12.021
77199SOL    HW233495  14.635   1.777  12.140
77200SOL     OW33496   9.452   9.896   0.038
77200SOL    HW133497   9.402   9.973   0.012
77200SOL    HW233498   9.416   9.825  14.872
77201SOL     OW33499  12.501   9.777   9.558
77201SOL    HW133500  12.506   9.866   9.523
77201SOL    HW233501  12.411   9.750   9.544
77202SOL     OW33502   1.284   1.938   8.214
77202SOL    HW133503   1.344   1.934   8.289
77202SOL    HW233504   1.278   2.032   8.194
77203SOL     OW33505   8.066  13.328   1.224
77203SOL    HW133506   8.049  13.252   1.168
77203SOL    HW233507   8.032  13.304   1.309
77204SOL     OW33508   7.582   0.386   0.900
77204SOL    HW133509   7.514   0.428   0.847
77204SOL    HW233510   7.598   0.448   0.971
77205SOL     OW33511  11.836   9.087   3.011
77205SOL    HW133512  11.807   9.129   3.092
77205SOL    HW233513  11.929   9.111   3.004
77206SOL     OW33514  10.842  10.858  10.766
77206SOL    HW133515  10.766  10.836  10.711
77206SOL    HW233516  10.804  10.886  10.849
77207SOL     OW33517   1.928   8.368  10.759
77207SOL    HW133518   1.845   8.369  10.710
77207SOL    HW233519   1.916   8.434  10.827
77208SOL     OW33520  12.398  11.700   2.186
77208SOL    HW133521  12.489  11.722   2.167
77208SOL    HW233522  12.379  11.624   2.131
77209SOL     OW33523   6.824  11.676  11.437
77209SOL    HW133524   6.854  11.672  11.528
77209SOL    HW233525   6.798  11.586  11.416
77210SOL     OW33526   1.444   0.948   9.579
77210SOL    HW133527   1.465   0.965   9.671
77210SOL    HW233528   1.348   0.953   9.574
77211SOL     OW33529   3.701   4.941   1.522
77211SOL    HW133530   3.640   4.873   1.494
77211SOL    HW233531   3.767   4.894   1.573
77212SOL     OW33532   0.777  13.099   5.886
77212SOL    HW133533   0.789  13.004   5.889
77212SOL    HW233534   0.793  13.129   5.975
77213SOL     OW33535   3.745   8.652   7.546
77213SOL    HW133536   3.772   8.628   7.457
77213SOL    HW233537   3.788   8.736   7.562
77214SOL     OW33538  10.065   6.194  10.631
77214SOL    HW133539  10.150   6.213  10.590
77214SOL    HW233540  10.061   6.254  10.705
77215SOL     OW33541   8.939   6.997  11.008
77215SOL    HW133542   9.009   7.001  11.072
77215SOL    HW233543   8.941   6.907  10.976
77216SOL     OW33544   6.108   7.495   4.817
77216SOL    HW133545   6.041   7.468   4.880
77216SOL    HW233546   6.058   7.523   4.740
77217SOL     OW33547   5.992   2.480   3.377
77217SOL    HW133548   5.959   2.447   3.460
77217SOL    HW233549   5.949   2.565   3.366
77218SOL     OW33550   6.374  11.005   8.016
77218SOL    HW133551   6.419  11.059   8.082
77218SOL    HW233552   6.433  10.931   8.001
77219SOL     OW33553  13.469  14.397   8.588
77219SOL    HW133554  13.377  14.424   8.580
77219SOL    HW233555  13.485  14.344   8.510
77220SOL     OW33556  10.770  11.282   0.695
77220SOL    HW133557  10.824  11.349   0.738
77220SOL    HW233558  10.736  11.325   0.617
77221SOL     OW33559  11.794   3.299  10.361
77221SOL    HW133560  11.794   3.289  10.266
77221SOL    HW233561  11.886   3.288  10.386
77222SOL     OW33562   6.659   4.096  13.628
77222SOL    HW133563   6.564   4.097  13.616
77222SOL    HW233564   6.672   4.053  13.713
77223SOL     OW33565  13.509  10.858  13.981
77223SOL    HW133566  13.524  10.765  13.963
77223SOL    HW233567  13.414  10.867  13.979
77224SOL     OW33568   0.727  12.420   8.975
77224SOL    HW133569   0.769  12.367   8.906
77224SOL    HW233570   0.800  12.463   9.019
77225SOL     OW33571   9.659  12.940  14.517
77225SOL    HW133572   9.703  12.884  14.580
77225SOL    HW233573   9.713  12.934  14.438
77226SOL     OW33574  10.363   7.913  11.817
77226SOL    HW133575  10.455   7.922  11.842
77226SOL    HW233576  10.365   7.875  11.729
77227SOL     OW33577   5.113   5.383  14.032
77227SOL    HW133578   5.042   5.423  13.981
77227SOL    HW233579   5.108   5.290  14.010
77228SOL     OW33580  10.459  11.887  14.501
77228SOL    HW133581  10.513  11.808  14.503
77228SOL    HW233582  10.401  11.878  14.576
77229SOL     OW33583  14.635   6.265   1.897
77229SOL    HW133584  14.687   6.340   1.867
77229SOL    HW233585  14.693   6.219   1.958
77230SOL     OW33586  14.632   2.808   8.564
77230SOL    HW133587  14.541   2.835   8.572
77230SOL    HW233588  14.648   2.801   8.470
77231SOL     OW33589  13.343  14.857  10.863
77231SOL    HW133590  13.252  14.882  10.849
77231SOL    HW233591  13.368  14.811  10.783
77232SOL     OW33592  11.999   4.077   7.662
77232SOL    HW133593  12.004   4.006   7.599
77232SOL    HW233594  11.916   4.063   7.707
77233SOL     OW33595   2.155  14.057  12.203
77233SOL    HW133596   2.194  14.046  12.115
77233SOL    HW233597   2.228  14.041  12.263
77234SOL     OW33598   2.451  13.891  13.425
77234SOL    HW133599   2.434  13.798  13.434
77234SOL    HW233600   2.365  13.931  13.415
77235SOL     OW33601   9.929  12.725  13.911
77235SOL    HW133602   9.890  12.773  13.984
77235SOL    HW233603   9.925  12.787  13.837
77236SOL     OW33604   3.819  10.828  14.384
77236SOL    HW133605   3.808  10.923  14.373
77236SOL    HW233606   3.868  10.819  14.466
77237SOL     OW33607   6.459   6.272   2.528
77237SOL    HW133608   6.511   6.272   2.447
77237SOL    HW233609   6.458   6.181   2.557
77238SOL     OW33610  12.990   1.297   7.124
77238SOL    HW133611  13.081   1.327   7.124
77238SOL    HW233612  12.984   1.236   7.050
77239SOL     OW33613   4.223   3.151   9.477
77239SOL    HW133614   4.157   3.131   9.543
77239SOL    HW233615   4.194   3.234   9.438
77240SOL     OW33616   8.916   2.183   7.878
77240SOL    HW133617   8.967   2.185   7.959
77240SOL    HW233618   8.856   2.109   7.889
77241SOL     OW33619   2.094   8.492   0.570
77241SOL    HW133620   2.122   8.450   0.489
77241SOL    HW233621   2.100   8.586   0.553
77242SOL     OW33622   1.608   9.333  11.670
77242SOL    HW133623   1.632   9.242  11.684
77242SOL    HW233624   1.538   9.329  11.604
77243SOL     OW33625   1.583   9.430   4.111
77243SOL    HW133626   1.576   9.364   4.180
77243SOL    HW233627   1.501   9.479   4.116
77244SOL     OW33628   2.904   3.647   5.604
77244SOL    HW133629   2.941   3.661   5.691
77244SOL    HW233630   2.972   3.677   5.544
77245SOL     OW33631   7.347   0.174  14.044
77245SOL    HW133632   7.254   0.173  14.063
77245SOL    HW233633   7.353   0.199  13.951
77246SOL     OW33634   7.321  10.712   5.576
77246SOL    HW133635   7.309  10.629   5.623
77246SOL    HW233636   7.413  10.734   5.590
77247SOL     OW33637   6.337   0.474   5.331
77247SOL    HW133638   6.404   0.460   5.265
77247SOL    HW233639   6.257   0.489   5.281
77248SOL     OW33640   6.046  11.346   8.018
77248SOL    HW133641   6.027  11.324   7.927
77248SOL    HW233642   6.047  11.442   8.020
77249SOL     OW33643  14.879   6.638   0.578
77249SOL    HW133644  14.874   6.640   0.674
77249SOL    HW233645   0.002   6.730   0.553
77250SOL     OW33646   5.016  10.405   7.340
77250SOL    HW133647   5.076  10.380   7.411
77250SOL    HW233648   4.957  10.330   7.331
77251SOL     OW33649   7.654   4.815   5.729
77251SOL    HW133650   7.704   4.897   5.730
77251SOL    HW233651   7.569   4.838   5.766
77252SOL     OW33652  11.033   0.625  10.038
77252SOL    HW133653  10.957   0.578  10.003
77252SOL    HW233654  11.100   0.616   9.970
77253SOL     OW33655   5.195   6.087   2.708
77253SOL    HW133656   5.100   6.074   2.715
77253SOL    HW233657   5.205   6.181   2.695
77254SOL     OW33658   8.499   9.901   9.365
77254SOL    HW133659   8.476   9.845   9.439
77254SOL    HW233660   8.592   9.917   9.376
77255SOL     OW33661   1.230  14.701  10.745
77255SOL    HW133662   1.296  14.635  10.723
77255SOL    HW233663   1.175  14.706  10.667
77256SOL     OW33664   6.785   2.110  10.750
77256SOL    HW133665   6.749   2.052  10.683
77256SOL    HW233666   6.725   2.103  10.823
77257SOL     OW33667  12.119   5.035   7.676
77257SOL    HW133668  12.127   4.979   7.752
77257SOL    HW233669  12.038   5.007   7.633
77258SOL     OW33670   0.696  12.818  13.588
77258SOL    HW133671   0.608  12.793  13.559
77258SOL    HW233672   0.738  12.735  13.610
77259SOL     OW33673   8.241   5.319   0.660
77259SOL    HW133674   8.329   5.358   0.662
77259SOL    HW233675   8.184   5.387   0.695
77260SOL     OW33676  12.753   0.813   6.585
77260SOL    HW133677  12.661   0.824   6.606
77260SOL    HW233678  12.758   0.827   6.490
77261SOL     OW33679   4.544  10.993   8.202
77261SOL    HW133680   4.615  11.052   8.175
77261SOL    HW233681   4.497  10.974   8.122
77262SOL     OW33682  13.287   3.903   2.308
77262SOL    HW133683  13.352   3.973   2.310
77262SOL    HW233684  13.324   3.834   2.363
77263SOL     OW33685  13.709   6.792   0.907
77263SOL    HW133686  13.714   6.789   0.811
77263SOL    HW233687  13.777   6.730   0.936
77264SOL     OW33688   7.954   5.783  12.026
77264SOL    HW133689   7.915   5.850  12.082
77264SOL    HW233690   7.955   5.704  12.080
77265SOL     OW33691   7.008   4.910   1.714
77265SOL    HW133692   7.002   5.004   1.731
77265SOL    HW233693   6.921   4.885   1.683
77266SOL     OW33694   0.207   1.922   6.947
77266SOL    HW133695   0.165   1.878   6.873
77266SOL    HW233696   0.294   1.946   6.915
77267SOL     OW33697  12.290   1.603  14.310
77267SOL    HW133698  12.335   1.591  14.227
77267SOL    HW233699  12.229   1.529  14.316
77268SOL     OW33700  14.047  12.142   5.040
77268SOL    HW133701  14.134  12.136   5.079
77268SOL    HW233702  14.014  12.227   5.069
77269SOL     OW33703   3.732  13.252   0.699
77269SOL    HW133704   3.638  13.235   0.695
77269SOL    HW233705   3.759  13.217   0.784
77270SOL     OW33706   8.124   0.063   9.531
77270SOL    HW133707   8.130   0.009   9.610
77270SOL    HW233708   8.039   0.039   9.493
77271SOL     OW33709   2.607  10.892   7.823
77271SOL    HW133710   2.653  10.812   7.796
77271SOL    HW233711   2.664  10.931   7.890
77272SOL     OW33712   6.963  11.521  12.664
77272SOL    HW133713   6.883  11.506  12.713
77272SOL    HW233714   6.979  11.440  12.617
77273SOL     OW33715  13.695  14.759  12.288
77273SOL    HW133716  13.775  14.796  12.251
77273SOL    HW233717  13.631  14.830  12.285
77274SOL     OW33718   1.652   9.901   2.384
77274SOL    HW133719   1.704   9.834   2.428
77274SOL    HW233720   1.593   9.934   2.452
77275SOL     OW33721   8.118   2.806   0.997
77275SOL    HW133722   8.190   2.868   0.990
77275SOL    HW233723   8.160   2.721   1.007
77276SOL     OW33724  13.160   0.181   8.627
77276SOL    HW133725  13.219   0.122   8.675
77276SOL    HW233726  13.216   0.256   8.604
77277SOL     OW33727   9.124   4.658   4.561
77277SOL    HW133728   9.185   4.604   4.512
77277SOL    HW233729   9.112   4.737   4.507
77278SOL     OW33730  12.281  13.344   5.962
77278SOL    HW133731  12.197  13.346   5.916
77278SOL    HW233732  12.322  13.263   5.932
77279SOL     OW33733   4.540   3.803   9.657
77279SOL    HW133734   4.447   3.810   9.682
77279SOL    HW233735   4.572   3.728   9.707
77280SOL     OW33736   0.321   5.798   6.748
77280SOL    HW133737   0.326   5.840   6.662
77280SOL    HW233738   0.256   5.850   6.795
77281SOL     OW33739   6.559  11.236  11.313
77281SOL    HW133740   6.610  11.307  11.353
77281SOL    HW233741   6.536  11.268  11.226
77282SOL     OW33742  11.813  13.304   6.557
77282SOL    HW133743  11.864  13.377   6.523
77282SOL    HW233744  11.861  13.226   6.530
77283SOL     OW33745  14.557  10.396   6.479
77283SOL    HW133746  14.616  10.421   6.408
77283SOL    HW233747  14.602  10.324   6.524
77284SOL     OW33748  12.287   9.559   4.271
77284SOL    HW133749  12.255   9.571   4.182
77284SOL    HW233750  12.360   9.498   4.262
77285SOL     OW33751   8.128   6.910   5.976
77285SOL    HW133752   8.143   6.965   5.899
77285SOL    HW233753   8.078   6.965   6.036
77286SOL     OW33754   3.419  11.894   8.589
77286SOL    HW133755   3.385  11.945   8.662
77286SOL    HW233756   3.369  11.925   8.513
77287SOL     OW33757   4.170   4.104  12.495
77287SOL    HW133758   4.196   4.039  12.560
77287SOL    HW233759   4.089   4.142  12.529
77288SOL     OW33760   3.078   6.890  13.948
77288SOL    HW133761   3.124   6.841  13.879
77288SOL    HW233762   3.098   6.843  14.028
77289SOL     OW33763  12.058   2.694   5.973
77289SOL    HW133764  11.995   2.683   5.902
77289SOL    HW233765  12.037   2.779   6.011
77290SOL     OW33766  13.923   8.749   7.343
77290SOL    HW133767  13.989   8.818   7.331
77290SOL    HW233768  13.859   8.787   7.403
77291SOL     OW33769   5.910   9.901   7.406
77291SOL    HW133770   5.996   9.868   7.432
77291SOL    HW233771   5.923   9.935   7.317
77292SOL     OW33772   9.820  11.544   3.499
77292SOL    HW133773   9.827  11.542   3.594
77292SOL    HW233774   9.808  11.452   3.474
77293SOL     OW33775   0.816   8.705   6.308
77293SOL    HW133776   0.723   8.724   6.291
77293SOL    HW233777   0.843   8.652   6.233
77294SOL     OW33778   4.742   6.013   9.343
77294SOL    HW133779   4.687   5.946   9.386
77294SOL    HW233780   4.787   5.966   9.273
77295SOL     OW33781   9.372   6.906   3.530
77295SOL    HW133782   9.399   6.836   3.589
77295SOL    HW233783   9.356   6.981   3.587
77296SOL     OW33784   7.603   0.716   0.209
77296SOL    HW133785   7.647   0.711   0.293
77296SOL    HW233786   7.613   0.808   0.183
77297SOL     OW33787   3.273  13.571   0.909
77297SOL    HW133788   3.308  13.525   0.986
77297SOL    HW233789   3.334  13.644   0.896
77298SOL     OW33790  14.616  10.773   0.063
77298SOL    HW133791  14.615  10.697   0.004
77298SOL    HW233792  14.545  10.756   0.125
77299SOL     OW33793  10.381   9.823   3.091
77299SOL    HW133794  10.426   9.748   3.129
77299SOL    HW233795  10.450   9.884   3.067
77300SOL     OW33796  14.741   8.566   0.854
77300SOL    HW133797  14.668   8.522   0.897
77300SOL    HW233798  14.760   8.642   0.908
77301SOL     OW33799  12.938   2.825   4.587
77301SOL    HW133800  13.000   2.753   4.590
77301SOL    HW233801  12.898   2.827   4.674
77302SOL     OW33802   2.927   0.644  10.001
77302SOL    HW133803   2.949   0.562  10.046
77302SOL    HW233804   2.924   0.709  10.071
77303SOL     OW33805   0.386   4.632   2.442
77303SOL    HW133806   0.452   4.619   2.374
77303SOL    HW233807   0.393   4.725   2.464
77304SOL     OW33808  13.430   3.075   5.098
77304SOL    HW133809  13.408   3.165   5.121
77304SOL    HW233810  13.482   3.082   5.018
77305SOL     OW33811   6.928   7.791  12.051
77305SOL    HW133812   6.889   7.726  12.110
77305SOL    HW233813   6.902   7.762  11.964
77306SOL     OW33814   9.016  14.019   8.976
77306SOL    HW133815   9.013  13.927   8.948
77306SOL    HW233816   8.927  14.051   8.963
77307SOL     OW33817   6.514   9.957   5.119
77307SOL    HW133818   6.531  10.049   5.140
77307SOL    HW233819   6.599   9.922   5.093
77308SOL     OW33820   6.700   2.837   5.814
77308SOL    HW133821   6.782   2.873   5.849
77308SOL    HW233822   6.650   2.914   5.786
77309SOL     OW33823   4.438   3.149   7.098
77309SOL    HW133824   4.496   3.074   7.106
77309SOL    HW233825   4.390   3.134   7.016
77310SOL     OW33826   9.451  12.355   1.992
77310SOL    HW133827   9.367  12.381   2.030
77310SOL    HW233828   9.458  12.262   2.011
77311SOL     OW33829   8.642  14.666   3.826
77311SOL    HW133830   8.671  14.607   3.756
77311SOL    HW233831   8.622  14.748   3.781
77312SOL     OW33832  12.864   3.523   6.644
77312SOL    HW133833  12.908   3.439   6.661
77312SOL    HW233834  12.878   3.573   6.725
77313SOL     OW33835   8.232   0.937   1.428
77313SOL    HW133836   8.200   1.027   1.417
77313SOL    HW233837   8.272   0.916   1.343
77314SOL     OW33838   8.716   4.784   3.608
77314SOL    HW133839   8.673   4.701   3.587
77314SOL    HW233840   8.764   4.807   3.529
77315SOL     OW33841   8.977   8.746   7.974
77315SOL    HW133842   8.890   8.709   7.961
77315SOL    HW233843   8.993   8.740   8.068
77316SOL     OW33844   3.491   4.747   6.848
77316SOL    HW133845   3.561   4.758   6.784
77316SOL    HW233846   3.489   4.653   6.866
77317SOL     OW33847   3.429  13.251   8.664
77317SOL    HW133848   3.438  13.164   8.702
77317SOL    HW233849   3.441  13.310   8.739
77318SOL     OW33850   6.071  12.679   6.239
77318SOL    HW133851   6.003  12.721   6.187
77318SOL    HW233852   6.153  12.714   6.204
77319SOL     OW33853   7.577   1.403   4.469
77319SOL    HW133854   7.616   1.476   4.516
77319SOL    HW233855   7.620   1.405   4.383
77320SOL     OW33856   3.888   9.955   0.618
77320SOL    HW133857   3.821   9.980   0.554
77320SOL    HW233858   3.938   9.886   0.576
77321SOL     OW33859  13.892   8.179   2.540
77321SOL    HW133860  13.920   8.185   2.631
77321SOL    HW233861  13.807   8.135   2.544
77322SOL     OW33862   5.331   8.764   0.368
77322SOL    HW133863   5.258   8.799   0.318
77322SOL    HW233864   5.294   8.744   0.454
77323SOL     OW33865   1.921   5.873   7.168
77323SOL    HW133866   1.843   5.899   7.218
77323SOL    HW233867   1.886   5.819   7.097
77324SOL     OW33868   1.942   7.258  10.403
77324SOL    HW133869   2.035   7.261  10.386
77324SOL    HW233870   1.907   7.339  10.364
77325SOL     OW33871  11.921  13.360   0.341
77325SOL    HW133872  11.859  13.399   0.403
77325SOL    HW233873  11.918  13.417   0.264
77326SOL     OW33874   5.703  12.678   6.154
77326SOL    HW133875   5.615  12.708   6.132
77326SOL    HW233876   5.700  12.658   6.248
77327SOL     OW33877  14.701  12.778   9.967
77327SOL    HW133878  14.628  12.836   9.989
77327SOL    HW233879  14.663  12.690   9.969
77328SOL     OW33880  14.617   3.235   3.998
77328SOL    HW133881  14.673   3.292   3.944
77328SOL    HW233882  14.667   3.153   4.004
77329SOL     OW33883  12.324  10.481  10.295
77329SOL    HW133884  12.312  10.458  10.387
77329SOL    HW233885  12.236  10.477  10.258
77330SOL     OW33886   0.308   9.086   6.066
77330SOL    HW133887   0.354   9.101   6.149
77330SOL    HW233888   0.378   9.076   6.001
77331SOL     OW33889   7.252   0.891   3.630
77331SOL    HW133890   7.263   0.952   3.703
77331SOL    HW233891   7.327   0.832   3.638
77332SOL     OW33892   8.122   0.699   0.419
77332SOL    HW133893   8.205   0.728   0.380
77332SOL    HW233894   8.148   0.661   0.503
77333SOL     OW33895  12.368   6.936  10.973
77333SOL    HW133896  12.374   6.952  10.879
77333SOL    HW233897  12.458   6.918  10.999
77334SOL     OW33898   2.073   0.920  10.405
77334SOL    HW133899   2.109   1.008  10.414
77334SOL    HW233900   1.992   0.932  10.356
77335SOL     OW33901   6.929   8.812   3.755
77335SOL    HW133902   7.002   8.781   3.808
77335SOL    HW233903   6.859   8.748   3.771
77336SOL     OW33904  12.481  10.661   1.856
77336SOL    HW133905  12.562  10.611   1.867
77336SOL    HW233906  12.416  10.614   1.910
77337SOL     OW33907   0.885  13.513  14.379
77337SOL    HW133908   0.979  13.509  14.366
77337SOL    HW233909   0.849  13.459  14.308
77338SOL     OW33910   1.141   5.932   8.264
77338SOL    HW133911   1.131   5.839   8.282
77338SOL    HW233912   1.216   5.937   8.204
77339SOL     OW33913   9.961   7.993  10.948
77339SOL    HW133914  10.050   7.957  10.957
77339SOL    HW233915   9.975   8.087  10.936
77340SOL     OW33916   2.862  14.736   4.527
77340SOL    HW133917   2.908  14.688   4.596
77340SOL    HW233918   2.794  14.786   4.572
77341SOL     OW33919   4.908  10.461   6.888
77341SOL    HW133920   4.818  10.460   6.920
77341SOL    HW233921   4.953  10.524   6.945
77342SOL     OW33922  11.422   3.498   2.156
77342SOL    HW133923  11.456   3.458   2.236
77342SOL    HW233924  11.334   3.462   2.147
77343SOL     OW33925   3.169   9.072   8.160
77343SOL    HW133926   3.119   9.147   8.127
77343SOL    HW233927   3.177   9.014   8.084
77344SOL     OW33928   4.998   3.816   7.058
77344SOL    HW133929   4.939   3.749   7.023
77344SOL    HW233930   5.084   3.774   7.058
77345SOL     OW33931  11.351   7.847   2.940
77345SOL    HW133932  11.405   7.916   2.980
77345SOL    HW233933  11.396   7.766   2.962
77346SOL     OW33934  10.510  10.428   1.956
77346SOL    HW133935  10.508  10.350   1.899
77346SOL    HW233936  10.421  10.434   1.991
77347SOL     OW33937   7.834   9.901   9.175
77347SOL    HW133938   7.834   9.988   9.214
77347SOL    HW233939   7.916   9.861   9.206
77348SOL     OW33940   6.255  14.774   2.700
77348SOL    HW133941   6.314  14.735   2.765
77348SOL    HW233942   6.293  14.860   2.682
77349SOL     OW33943   8.954   8.315   1.825
77349SOL    HW133944   9.017   8.383   1.799
77349SOL    HW233945   8.959   8.250   1.755
77350SOL     OW33946  10.009   5.629   4.426
77350SOL    HW133947   9.934   5.569   4.426
77350SOL    HW233948  10.085   5.572   4.433
77351SOL     OW33949   6.122   1.308   9.494
77351SOL    HW133950   6.135   1.310   9.399
77351SOL    HW233951   6.046   1.364   9.509
77352SOL     OW33952   5.655  10.993   4.381
77352SOL    HW133953   5.573  10.950   4.358
77352SOL    HW233954   5.700  10.929   4.436
77353SOL     OW33955  13.588   3.154   6.450
77353SOL    HW133956  13.560   3.245   6.435
77353SOL    HW233957  13.611   3.121   6.363
77354SOL     OW33958   6.628   5.245  10.440
77354SOL    HW133959   6.640   5.175  10.376
77354SOL    HW233960   6.668   5.322  10.400
77355SOL     OW33961   2.971   8.756  13.349
77355SOL    HW133962   2.965   8.848  13.374
77355SOL    HW233963   2.891   8.740  13.299
77356SOL     OW33964   2.844   5.898   7.647
77356SOL    HW133965   2.923   5.923   7.696
77356SOL    HW233966   2.810   5.822   7.695
77357SOL     OW33967   8.117   6.007   9.914
77357SOL    HW133968   8.209   5.981   9.918
77357SOL    HW233969   8.098   6.013   9.820
77358SOL     OW33970  14.789   4.515  12.124
77358SOL    HW133971  14.836   4.560  12.053
77358SOL    HW233972  14.701   4.554  12.123
77359SOL     OW33973   3.308   4.159   8.417
77359SOL    HW133974   3.316   4.253   8.432
77359SOL    HW233975   3.377   4.121   8.472
77360SOL     OW33976  11.902   2.798  13.196
77360SOL    HW133977  11.926   2.708  13.219
77360SOL    HW233978  11.985   2.845  13.189
77361SOL     OW33979  10.130   4.009   8.393
77361SOL    HW133980  10.110   4.101   8.406
77361SOL    HW233981  10.047   3.971   8.363
77362SOL     OW33982   4.135   9.795  14.173
77362SOL    HW133983   4.195   9.807  14.100
77362SOL    HW233984   4.111   9.702  14.169
77363SOL     OW33985  11.409   2.389  14.298
77363SOL    HW133986  11.424   2.373  14.205
77363SOL    HW233987  11.486   2.437  14.327
77364SOL     OW33988   0.586   0.462   6.167
77364SOL    HW133989   0.504   0.511   6.162
77364SOL    HW233990   0.609   0.464   6.259
77365SOL     OW33991   8.923   2.921  12.931
77365SOL    HW133992   9.006   2.958  12.962
77365SOL    HW233993   8.938   2.826  12.932
77366SOL     OW33994   5.633   1.716   7.911
77366SOL    HW133995   5.650   1.627   7.883
77366SOL    HW233996   5.624   1.710   8.006
77367SOL     OW33997  13.303   2.263   8.315
77367SOL    HW133998  13.234   2.306   8.366
77367SOL    HW233999  13.349   2.208   8.378
77368SOL     OW34000  12.311   1.559   6.181
77368SOL    HW134001  12.220   1.583   6.163
77368SOL    HW234002  12.305   1.478   6.231
77369SOL     OW34003   2.231   7.553   9.401
77369SOL    HW134004   2.280   7.556   9.483
77369SOL    HW234005   2.145   7.588   9.423
77370SOL     OW34006   1.716   7.832  12.466
77370SOL    HW134007   1.691   7.895  12.533
77370SOL    HW234008   1.656   7.848  12.393
77371SOL     OW34009  12.582   4.818   2.716
77371SOL    HW134010  12.548   4.813   2.806
77371SOL    HW234011  12.521   4.766   2.664
77372SOL     OW34012  12.186   4.809   2.208
77372SOL    HW134013  12.244   4.759   2.266
77372SOL    HW234014  12.106   4.820   2.258
77373SOL     OW34015  13.196   7.297   1.057
77373SOL    HW134016  13.165   7.297   1.148
77373SOL    HW234017  13.284   7.259   1.062
77374SOL     OW34018   7.012   6.270   5.304
77374SOL    HW134019   6.969   6.351   5.332
77374SOL    HW234020   6.940   6.212   5.279
77375SOL     OW34021   3.121   6.467   4.187
77375SOL    HW134022   3.177   6.491   4.261
77375SOL    HW234023   3.053   6.534   4.186
77376SOL     OW34024   1.188   1.604   1.655
77376SOL    HW134025   1.133   1.629   1.730
77376SOL    HW234026   1.270   1.576   1.695
77377SOL     OW34027   5.972  12.187  14.752
77377SOL    HW134028   5.966  12.274  14.714
77377SOL    HW234029   5.978  12.202  14.847
77378SOL     OW34030   4.961  12.004   4.050
77378SOL    HW134031   4.993  11.914   4.045
77378SOL    HW234032   4.873  11.999   4.011
77379SOL     OW34033   4.097   4.384   9.938
77379SOL    HW134034   4.173   4.421   9.892
77379SOL    HW234035   4.129   4.363  10.026
77380SOL     OW34036   3.137   6.603   0.404
77380SOL    HW134037   3.168   6.519   0.439
77380SOL    HW234038   3.044   6.588   0.386
77381SOL     OW34039  13.302  10.755   1.271
77381SOL    HW134040  13.227  10.754   1.211
77381SOL    HW234041  13.317  10.662   1.291
77382SOL     OW34042  12.155  12.333   8.657
77382SOL    HW134043  12.222  12.281   8.612
77382SOL    HW234044  12.197  12.359   8.739
77383SOL     OW34045   3.633   8.931   2.095
77383SOL    HW134046   3.626   8.933   1.999
77383SOL    HW234047   3.549   8.896   2.125
77384SOL     OW34048  11.612   0.471   8.409
77384SOL    HW134049  11.598   0.529   8.483
77384SOL    HW234050  11.690   0.420   8.432
77385SOL     OW34051   2.703   3.858   6.254
77385SOL    HW134052   2.668   3.775   6.221
77385SOL    HW234053   2.722   3.909   6.174
77386SOL     OW34054  11.594  12.490  12.559
77386SOL    HW134055  11.676  12.533  12.582
77386SOL    HW234056  11.620  12.412  12.509
77387SOL     OW34057   3.088  11.895   4.403
77387SOL    HW134058   3.158  11.948   4.441
77387SOL    HW234059   3.007  11.936   4.435
77388SOL     OW34060   4.455   5.192   2.476
77388SOL    HW134061   4.473   5.151   2.561
77388SOL    HW234062   4.452   5.286   2.495
77389SOL     OW34063   3.724   4.792  14.029
77389SOL    HW134064   3.648   4.779  14.087
77389SOL    HW234065   3.783   4.719  14.051
77390SOL     OW34066  11.309  12.074   2.723
77390SOL    HW134067  11.388  12.036   2.761
77390SOL    HW234068  11.315  12.054   2.629
77391SOL     OW34069  12.751  12.780   8.836
77391SOL    HW134070  12.798  12.744   8.761
77391SOL    HW234071  12.674  12.724   8.845
77392SOL     OW34072  13.354   0.112   2.521
77392SOL    HW134073  13.343   0.133   2.428
77392SOL    HW234074  13.353   0.016   2.525
77393SOL     OW34075  12.221   0.871   5.876
77393SOL    HW134076  12.218   0.909   5.788
77393SOL    HW234077  12.145   0.909   5.921
77394SOL     OW34078   6.469   0.829   5.908
77394SOL    HW134079   6.555   0.839   5.867
77394SOL    HW234080   6.487   0.792   5.994
77395SOL     OW34081   1.771  12.699  12.355
77395SOL    HW134082   1.691  12.647  12.371
77395SOL    HW234083   1.739  12.788  12.343
77396SOL     OW34084   4.398  11.656   3.595
77396SOL    HW134085   4.430  11.699   3.516
77396SOL    HW234086   4.307  11.686   3.604
77397SOL     OW34087   3.617   2.230   4.482
77397SOL    HW134088   3.567   2.186   4.412
77397SOL    HW234089   3.581   2.318   4.485
77398SOL     OW34090   5.393  10.449   2.395
77398SOL    HW134091   5.387  10.425   2.303
77398SOL    HW234092   5.464  10.513   2.399
77399SOL     OW34093  11.717   0.230   2.455
77399SOL    HW134094  11.685   0.303   2.508
77399SOL    HW234095  11.660   0.230   2.377
77400SOL     OW34096   0.358   9.451   2.288
77400SOL    HW134097   0.364   9.517   2.357
77400SOL    HW234098   0.447   9.415   2.282
77401SOL     OW34099  11.089   7.137  13.226
77401SOL    HW134100  11.044   7.102  13.303
77401SOL    HW234101  11.032   7.114  13.153
77402SOL     OW34102   5.181  14.608  12.017
77402SOL    HW134103   5.098  14.560  12.015
77402SOL    HW234104   5.219  14.587  12.102
77403SOL     OW34105  12.424   5.739  14.225
77403SOL    HW134106  12.346   5.779  14.188
77403SOL    HW234107  12.392   5.688  14.300
77404SOL     OW34108   2.393   6.644   9.567
77404SOL    HW134109   2.396   6.731   9.526
77404SOL    HW234110   2.426   6.585   9.499
77405SOL     OW34111   7.609  14.386   1.879
77405SOL    HW134112   7.674  14.340   1.932
77405SOL    HW234113   7.653  14.465   1.849
77406SOL     OW34114  13.209  13.010   9.494
77406SOL    HW134115  13.258  12.946   9.443
77406SOL    HW234116  13.249  13.008   9.581
77407SOL     OW34117   2.186  11.344   1.508
77407SOL    HW134118   2.272  11.331   1.467
77407SOL    HW234119   2.134  11.271   1.476
77408SOL     OW34120  12.023  11.078  14.546
77408SOL    HW134121  12.092  11.138  14.574
77408SOL    HW234122  12.034  11.073  14.451
77409SOL     OW34123   1.496  13.540   2.638
77409SOL    HW134124   1.509  13.450   2.668
77409SOL    HW234125   1.404  13.558   2.656
77410SOL     OW34126   8.304  11.921   2.037
77410SOL    HW134127   8.240  11.864   2.081
77410SOL    HW234128   8.373  11.862   2.008
77411SOL     OW34129  12.724  12.900  12.493
77411SOL    HW134130  12.643  12.947  12.511
77411SOL    HW234131  12.698  12.809  12.484
77412SOL     OW34132   0.077  12.910   2.005
77412SOL    HW134133   0.020  12.981   2.034
77412SOL    HW234134   0.054  12.897   1.913
77413SOL     OW34135  12.844  10.272   8.203
77413SOL    HW134136  12.763  10.315   8.177
77413SOL    HW234137  12.909  10.303   8.141
77414SOL     OW34138   5.093  13.813   2.757
77414SOL    HW134139   5.070  13.899   2.791
77414SOL    HW234140   5.186  13.820   2.737
77415SOL     OW34141  14.759  14.385  12.307
77415SOL    HW134142  14.792  14.403  12.219
77415SOL    HW234143  14.702  14.309  12.297
77416SOL     OW34144   5.999   2.231   5.890
77416SOL    HW134145   6.055   2.235   5.967
77416SOL    HW234146   5.953   2.315   5.888
77417SOL     OW34147  12.453   7.692   1.933
77417SOL    HW134148  12.480   7.664   1.846
77417SOL    HW234149  12.509   7.643   1.993
77418SOL     OW34150  12.414   0.643  12.969
77418SOL    HW134151  12.440   0.573  12.908
77418SOL    HW234152  12.435   0.724  12.924
77419SOL     OW34153   7.849   9.719   4.077
77419SOL    HW134154   7.794   9.797   4.083
77419SOL    HW234155   7.915   9.741   4.011
77420SOL     OW34156  10.564   9.856   0.592
77420SOL    HW134157  10.618   9.879   0.516
77420SOL    HW234158  10.621   9.869   0.667
77421SOL     OW34159   2.292   3.341   8.244
77421SOL    HW134160   2.272   3.252   8.218
77421SOL    HW234161   2.207   3.385   8.249
77422SOL     OW34162   3.488   9.353   8.224
77422SOL    HW134163   3.496   9.262   8.253
77422SOL    HW234164   3.577   9.377   8.197
77423SOL     OW34165  13.860   6.755  12.521
77423SOL    HW134166  13.794   6.688  12.503
77423SOL    HW234167  13.944   6.712  12.501
77424SOL     OW34168  10.004   1.139   7.735
77424SOL    HW134169   9.994   1.048   7.707
77424SOL    HW234170   9.915   1.166   7.759
77425SOL     OW34171  14.336   4.479   2.488
77425SOL    HW134172  14.428   4.457   2.497
77425SOL    HW234173  14.310   4.513   2.573
77426SOL     OW34174   3.940   1.907   4.444
77426SOL    HW134175   3.907   1.980   4.497
77426SOL    HW234176   4.012   1.945   4.394
77427SOL     OW34177   8.565   6.052   1.186
77427SOL    HW134178   8.545   6.146   1.184
77427SOL    HW234179   8.635   6.042   1.122
77428SOL     OW34180   7.194  11.851  11.468
77428SOL    HW134181   7.158  11.803  11.394
77428SOL    HW234182   7.288  11.858  11.450
77429SOL     OW34183   0.625   9.175   7.174
77429SOL    HW134184   0.657   9.235   7.241
77429SOL    HW234185   0.633   9.088   7.213
77430SOL     OW34186  12.764  11.728   4.124
77430SOL    HW134187  12.726  11.767   4.203
77430SOL    HW234188  12.855  11.756   4.124
77431SOL     OW34189   9.225   9.190  10.700
77431SOL    HW134190   9.135   9.169  10.726
77431SOL    HW234191   9.279   9.155  10.771
77432SOL     OW34192  11.837   3.181  14.863
77432SOL    HW134193  11.845   3.193   0.070
77432SOL    HW234194  11.904   3.116  14.841
77433SOL     OW34195   3.626   3.062   1.366
77433SOL    HW134196   3.547   3.081   1.315
77433SOL    HW234197   3.673   2.997   1.313
77434SOL     OW34198  13.218   7.698  12.435
77434SOL    HW134199  13.312   7.717  12.444
77434SOL    HW234200  13.215   7.606  12.407
77435SOL     OW34201   0.099  12.084   3.733
77435SOL    HW134202   0.171  12.020   3.727
77435SOL    HW234203   0.093  12.103   3.826
77436SOL     OW34204   8.007   6.259   2.828
77436SOL    HW134205   8.084   6.314   2.814
77436SOL    HW234206   8.022   6.218   2.913
77437SOL     OW34207  10.820  13.306  11.455
77437SOL    HW134208  10.814  13.338  11.546
77437SOL    HW234209  10.855  13.380  11.406
77438SOL     OW34210   7.151   5.085   0.794
77438SOL    HW134211   7.226   5.056   0.847
77438SOL    HW234212   7.138   5.014   0.731
77439SOL     OW34213   3.927   0.558   9.538
77439SOL    HW134214   3.980   0.523   9.466
77439SOL    HW234215   3.987   0.612   9.589
77440SOL     OW34216   5.664  10.756   5.420
77440SOL    HW134217   5.756  10.753   5.394
77440SOL    HW234218   5.628  10.831   5.371
77441SOL     OW34219   1.462  14.166  12.174
77441SOL    HW134220   1.387  14.208  12.217
77441SOL    HW234221   1.437  14.074  12.167
77442SOL     OW34222   2.684   1.104   8.555
77442SOL    HW134223   2.622   1.158   8.604
77442SOL    HW234224   2.709   1.035   8.617
77443SOL     OW34225   7.380   8.130  10.372
77443SOL    HW134226   7.445   8.169  10.431
77443SOL    HW234227   7.382   8.037  10.392
77444SOL     OW34228   6.586   1.265  10.441
77444SOL    HW134229   6.651   1.235  10.379
77444SOL    HW234230   6.584   1.361  10.431
77445SOL     OW34231   7.815   7.403   9.899
77445SOL    HW134232   7.860   7.319   9.908
77445SOL    HW234233   7.847   7.438   9.816
77446SOL     OW34234  12.331   9.212   5.726
77446SOL    HW134235  12.296   9.280   5.784
77446SOL    HW234236  12.358   9.260   5.648
77447SOL     OW34237   8.836   3.826   7.983
77447SOL    HW134238   8.814   3.878   7.905
77447SOL    HW234239   8.756   3.827   8.036
77448SOL     OW34240   5.735   2.896   9.924
77448SOL    HW134241   5.731   2.803   9.944
77448SOL    HW234242   5.758   2.899   9.831
77449SOL     OW34243   7.926   1.702   0.146
77449SOL    HW134244   8.009   1.729   0.187
77449SOL    HW234245   7.858   1.739   0.203
77450SOL     OW34246  10.809   0.532  12.231
77450SOL    HW134247  10.741   0.543  12.166
77450SOL    HW234248  10.769   0.481  12.301
77451SOL     OW34249  14.786  12.833   6.747
77451SOL    HW134250  14.821  12.748   6.772
77451SOL    HW234251  14.818  12.893   6.815
77452SOL     OW34252  10.986  10.552  10.265
77452SOL    HW134253  11.045  10.576  10.193
77452SOL    HW234254  10.903  10.595  10.243
77453SOL     OW34255   0.606   8.917  14.111
77453SOL    HW134256   0.635   8.826  14.119
77453SOL    HW234257   0.528   8.913  14.056
77454SOL     OW34258   6.062  10.600   6.996
77454SOL    HW134259   6.015  10.520   6.972
77454SOL    HW234260   5.995  10.668   6.995
77455SOL     OW34261   3.463   9.672  14.278
77455SOL    HW134262   3.458   9.644  14.187
77455SOL    HW234263   3.372   9.678  14.307
77456SOL     OW34264   2.155   5.868   1.881
77456SOL    HW134265   2.117   5.955   1.871
77456SOL    HW234266   2.246   5.879   1.853
77457SOL     OW34267  11.685  10.973   8.162
77457SOL    HW134268  11.610  10.956   8.218
77457SOL    HW234269  11.687  11.068   8.152
77458SOL     OW34270  10.988  14.551   4.298
77458SOL    HW134271  11.054  14.602   4.251
77458SOL    HW234272  11.002  14.571   4.390
77459SOL     OW34273   8.178   5.284  13.950
77459SOL    HW134274   8.219   5.223  13.888
77459SOL    HW234275   8.087   5.255  13.957
77460SOL     OW34276  12.422  11.840   6.416
77460SOL    HW134277  12.445  11.759   6.462
77460SOL    HW234278  12.328  11.849   6.430
77461SOL     OW34279   6.908   9.260   4.616
77461SOL    HW134280   6.858   9.224   4.543
77461SOL    HW234281   6.967   9.324   4.576
77462SOL     OW34282   9.944   7.126  12.456
77462SOL    HW134283   9.924   7.046  12.407
77462SOL    HW234284   9.859   7.171  12.463
77463SOL     OW34285   0.371   0.306   3.886
77463SOL    HW134286   0.340   0.216   3.886
77463SOL    HW234287   0.344   0.341   3.971
77464SOL     OW34288   7.864   5.313   0.347
77464SOL    HW134289   7.949   5.290   0.384
77464SOL    HW234290   7.856   5.260   0.268
77465SOL     OW34291   0.233   2.154   7.123
77465SOL    HW134292   0.279   2.217   7.066
77465SOL    HW234293   0.230   2.074   7.072
77466SOL     OW34294   6.050   5.361   3.040
77466SOL    HW134295   5.970   5.310   3.025
77466SOL    HW234296   6.063   5.360   3.135
77467SOL     OW34297   3.713   0.729   8.465
77467SOL    HW134298   3.754   0.681   8.394
77467SOL    HW234299   3.766   0.710   8.542
77468SOL     OW34300   9.323   4.007   5.931
77468SOL    HW134301   9.402   3.952   5.930
77468SOL    HW234302   9.280   3.985   6.013
77469SOL     OW34303   4.164   9.506   5.194
77469SOL    HW134304   4.160   9.462   5.279
77469SOL    HW234305   4.205   9.590   5.212
77470SOL     OW34306   9.979   8.707  12.610
77470SOL    HW134307  10.027   8.713  12.528
77470SOL    HW234308   9.903   8.764  12.598
77471SOL     OW34309   6.686   9.162  10.261
77471SOL    HW134310   6.766   9.181  10.211
77471SOL    HW234311   6.718   9.132  10.346
77472SOL     OW34312   1.960   1.091   3.451
77472SOL    HW134313   2.024   1.026   3.422
77472SOL    HW234314   1.879   1.068   3.407
77473SOL     OW34315   2.600  12.190   0.533
77473SOL    HW134316   2.514  12.231   0.520
77473SOL    HW234317   2.662  12.263   0.534
77474SOL     OW34318   4.908   5.092  12.660
77474SOL    HW134319   4.918   5.172  12.712
77474SOL    HW234320   4.940   5.116  12.573
77475SOL     OW34321   7.361   1.524   5.605
77475SOL    HW134322   7.378   1.617   5.620
77475SOL    HW234323   7.289   1.523   5.542
77476SOL     OW34324  10.797  13.461   0.587
77476SOL    HW134325  10.764  13.389   0.533
77476SOL    HW234326  10.816  13.421   0.672
77477SOL     OW34327  12.083  11.407   6.186
77477SOL    HW134328  12.059  11.315   6.200
77477SOL    HW234329  12.144  11.405   6.112
77478SOL     OW34330   6.081   0.734  12.707
77478SOL    HW134331   6.007   0.783  12.741
77478SOL    HW234332   6.054   0.707  12.619
77479SOL     OW34333  13.921   4.700  14.264
77479SOL    HW134334  13.856   4.649  14.313
77479SOL    HW234335  13.946   4.770  14.323
77480SOL     OW34336   8.847   2.428  14.732
77480SOL    HW134337   8.924   2.394  14.686
77480SOL    HW234338   8.799   2.477  14.665
77481SOL     OW34339   8.646   4.343   0.244
77481SOL    HW134340   8.575   4.301   0.196
77481SOL    HW234341   8.721   4.337   0.185
77482SOL     OW34342  14.017  12.680  12.228
77482SOL    HW134343  14.038  12.728  12.148
77482SOL    HW234344  13.958  12.611  12.199
77483SOL     OW34345   5.747   4.198  11.308
77483SOL    HW134346   5.715   4.270  11.254
77483SOL    HW234347   5.834   4.227  11.337
77484SOL     OW34348   1.387  14.652   9.102
77484SOL    HW134349   1.374  14.708   9.026
77484SOL    HW234350   1.410  14.713   9.173
77485SOL     OW34351  12.059   2.910   7.529
77485SOL    HW134352  12.147   2.948   7.529
77485SOL    HW234353  12.049   2.872   7.442
77486SOL     OW34354  12.450   8.809  13.459
77486SOL    HW134355  12.467   8.721  13.425
77486SOL    HW234356  12.403   8.853  13.388
77487SOL     OW34357  10.993   9.547  11.729
77487SOL    HW134358  11.014   9.636  11.757
77487SOL    HW234359  11.039   9.491  11.790
77488SOL     OW34360   4.886   3.323   7.689
77488SOL    HW134361   4.840   3.342   7.607
77488SOL    HW234362   4.910   3.230   7.681
77489SOL     OW34363  10.071  12.354   2.971
77489SOL    HW134364  10.009  12.310   2.913
77489SOL    HW234365  10.109  12.283   3.022
77490SOL     OW34366  12.734   3.870  12.206
77490SOL    HW134367  12.678   3.793  12.196
77490SOL    HW234368  12.736   3.909  12.118
77491SOL     OW34369   7.788   9.498   2.815
77491SOL    HW134370   7.722   9.547   2.766
77491SOL    HW234371   7.835   9.449   2.748
77492SOL     OW34372  11.315   5.573   7.772
77492SOL    HW134373  11.378   5.624   7.823
77492SOL    HW234374  11.300   5.624   7.693
77493SOL     OW34375  13.329  11.564   1.714
77493SOL    HW134376  13.403  11.625   1.722
77493SOL    HW234377  13.261  11.601   1.771
77494SOL     OW34378   7.874   3.173   0.942
77494SOL    HW134379   7.847   3.101   0.999
77494SOL    HW234380   7.792   3.217   0.918
77495SOL     OW34381  11.670   7.314   3.635
77495SOL    HW134382  11.595   7.369   3.612
77495SOL    HW234383  11.635   7.251   3.698
77496SOL     OW34384   9.993   2.626   6.336
77496SOL    HW134385  10.029   2.715   6.330
77496SOL    HW234386  10.002   2.590   6.248
77497SOL     OW34387   5.879   5.449   1.709
77497SOL    HW134388   5.819   5.524   1.712
77497SOL    HW234389   5.886   5.428   1.616
77498SOL     OW34390   1.608  12.810   5.748
77498SOL    HW134391   1.531  12.790   5.695
77498SOL    HW234392   1.597  12.902   5.772
77499SOL     OW34393   6.748   6.188   5.082
77499SOL    HW134394   6.827   6.176   5.030
77499SOL    HW234395   6.744   6.283   5.097
77500SOL     OW34396  12.562  13.290   7.818
77500SOL    HW134397  12.491  13.270   7.879
77500SOL    HW234398  12.548  13.383   7.796
77501SOL     OW34399   1.028   7.417  11.458
77501SOL    HW134400   0.937   7.429  11.487
77501SOL    HW234401   1.050   7.328  11.486
77502SOL     OW34402  11.655  14.321  10.732
77502SOL    HW134403  11.680  14.374  10.656
77502SOL    HW234404  11.644  14.385  10.803
77503SOL     OW34405  13.538   9.612   2.872
77503SOL    HW134406  13.499   9.663   2.943
77503SOL    HW234407  13.633   9.622   2.884
77504SOL     OW34408   6.540   7.053  13.099
77504SOL    HW134409   6.511   7.026  13.011
77504SOL    HW234410   6.582   6.975  13.135
77505SOL     OW34411   9.663  11.468   0.424
77505SOL    HW134412   9.674  11.412   0.501
77505SOL    HW234413   9.687  11.411   0.350
77506SOL     OW34414  12.912   1.642  11.992
77506SOL    HW134415  12.847   1.687  12.046
77506SOL    HW234416  12.898   1.549  12.010
77507SOL     OW34417   7.145   7.148   5.349
77507SOL    HW134418   7.175   7.168   5.437
77507SOL    HW234419   7.076   7.212   5.332
77508SOL     OW34420   3.989   6.749   0.892
77508SOL    HW134421   3.945   6.815   0.946
77508SOL    HW234422   3.981   6.781   0.803
77509SOL     OW34423  12.748   5.700   6.405
77509SOL    HW134424  12.755   5.786   6.446
77509SOL    HW234425  12.654   5.690   6.388
77510SOL     OW34426  10.993  10.812  13.938
77510SOL    HW134427  11.045  10.741  13.902
77510SOL    HW234428  10.944  10.773  14.010
77511SOL     OW34429   2.414  11.488   2.563
77511SOL    HW134430   2.348  11.459   2.626
77511SOL    HW234431   2.498  11.470   2.606
77512SOL     OW34432   3.884   9.660   2.533
77512SOL    HW134433   3.826   9.586   2.549
77512SOL    HW234434   3.834   9.718   2.475
77513SOL     OW34435   4.733   9.665   4.262
77513SOL    HW134436   4.811   9.721   4.252
77513SOL    HW234437   4.687   9.674   4.178
77514SOL     OW34438   6.225   8.847   6.278
77514SOL    HW134439   6.283   8.905   6.229
77514SOL    HW234440   6.248   8.860   6.370
77515SOL     OW34441  13.245  11.041   1.301
77515SOL    HW134442  13.183  11.089   1.356
77515SOL    HW234443  13.243  10.952   1.335
77516SOL     OW34444   9.731   4.609  13.219
77516SOL    HW134445   9.663   4.661  13.263
77516SOL    HW234446   9.795   4.589  13.288
77517SOL     OW34447  10.945  10.483   2.466
77517SOL    HW134448  10.958  10.567   2.510
77517SOL    HW234449  10.996  10.421   2.517
77518SOL     OW34450   3.502   0.054   3.202
77518SOL    HW134451   3.579   0.099   3.240
77518SOL    HW234452   3.536   0.011   3.124
77519SOL     OW34453   4.245   8.065   5.621
77519SOL    HW134454   4.236   8.151   5.580
77519SOL    HW234455   4.155   8.038   5.639
77520SOL     OW34456   1.229  11.762   7.015
77520SOL    HW134457   1.264  11.699   7.078
77520SOL    HW234458   1.153  11.800   7.060
77521SOL     OW34459   2.170  12.407   2.006
77521SOL    HW134460   2.202  12.447   2.086
77521SOL    HW234461   2.229  12.333   1.990
77522SOL     OW34462  12.687   7.836   3.254
77522SOL    HW134463  12.600   7.817   3.218
77522SOL    HW234464  12.724   7.750   3.274
77523SOL     OW34465   4.271  14.298  11.024
77523SOL    HW134466   4.191  14.331  11.062
77523SOL    HW234467   4.330  14.284  11.098
77524SOL     OW34468  10.993  11.540  13.098
77524SOL    HW134469  11.027  11.470  13.042
77524SOL    HW234470  10.910  11.565  13.058
77525SOL     OW34471  14.206   4.181   2.129
77525SOL    HW134472  14.176   4.119   2.196
77525SOL    HW234473  14.282   4.224   2.168
77526SOL     OW34474   1.179   5.781   5.945
77526SOL    HW134475   1.188   5.718   6.016
77526SOL    HW234476   1.105   5.749   5.893
77527SOL     OW34477   5.181   6.117  11.398
77527SOL    HW134478   5.131   6.096  11.319
77527SOL    HW234479   5.190   6.034  11.444
77528SOL     OW34480  10.939  14.317  13.660
77528SOL    HW134481  10.885  14.239  13.670
77528SOL    HW234482  10.985  14.304  13.577
77529SOL     OW34483   6.984   0.587   1.507
77529SOL    HW134484   6.971   0.564   1.599
77529SOL    HW234485   6.901   0.564   1.464
77530SOL     OW34486   3.017  10.225   3.158
77530SOL    HW134487   3.106  10.246   3.129
77530SOL    HW234488   3.025  10.140   3.202
77531SOL     OW34489   8.638   9.648  11.415
77531SOL    HW134490   8.617   9.630  11.324
77531SOL    HW234491   8.678   9.736  11.413
77532SOL     OW34492  13.977  12.472   0.179
77532SOL    HW134493  14.006  12.408   0.243
77532SOL    HW234494  13.929  12.421   0.114
77533SOL     OW34495  12.547   3.938   3.115
77533SOL    HW134496  12.508   3.913   3.199
77533SOL    HW234497  12.484   3.998   3.076
77534SOL     OW34498   8.538   6.537  10.640
77534SOL    HW134499   8.497   6.451  10.633
77534SOL    HW234500   8.631   6.521  10.623
77535SOL     OW34501  10.917   8.045   4.896
77535SOL    HW134502  11.007   8.077   4.895
77535SOL    HW234503  10.915   7.983   4.970
77536SOL     OW34504   5.527   6.817   3.493
77536SOL    HW134505   5.544   6.758   3.567
77536SOL    HW234506   5.512   6.760   3.419
77537SOL     OW34507  11.916   2.899   3.016
77537SOL    HW134508  11.967   2.818   3.017
77537SOL    HW234509  11.882   2.907   3.105
77538SOL     OW34510   1.365   8.411   1.262
77538SOL    HW134511   1.354   8.351   1.188
77538SOL    HW234512   1.455   8.444   1.251
77539SOL     OW34513   9.638  10.590   6.925
77539SOL    HW134514   9.571  10.537   6.881
77539SOL    HW234515   9.675  10.532   6.991
77540SOL     OW34516   5.744  14.404  12.109
77540SOL    HW134517   5.806  14.408  12.036
77540SOL    HW234518   5.740  14.311  12.131
77541SOL     OW34519   8.278  10.641   3.106
77541SOL    HW134520   8.353  10.656   3.163
77541SOL    HW234521   8.219  10.585   3.157
77542SOL     OW34522  10.165   8.996   2.401
77542SOL    HW134523  10.169   9.076   2.349
77542SOL    HW234524  10.152   9.027   2.491
77543SOL     OW34525   1.388   1.547   0.705
77543SOL    HW134526   1.327   1.617   0.681
77543SOL    HW234527   1.355   1.470   0.658
77544SOL     OW34528  11.855  10.431   4.623
77544SOL    HW134529  11.896  10.352   4.588
77544SOL    HW234530  11.775  10.441   4.572
77545SOL     OW34531  12.514  12.404   2.521
77545SOL    HW134532  12.496  12.408   2.615
77545SOL    HW234533  12.429  12.416   2.479
77546SOL     OW34534  12.790   1.229  14.349
77546SOL    HW134535  12.855   1.297  14.366
77546SOL    HW234536  12.842   1.151  14.329
77547SOL     OW34537   7.570   4.844   1.379
77547SOL    HW134538   7.564   4.748   1.386
77547SOL    HW234539   7.491   4.876   1.420
77548SOL     OW34540   4.116   8.410   8.834
77548SOL    HW134541   4.025   8.380   8.839
77548SOL    HW234542   4.122   8.452   8.749
77549SOL     OW34543   8.303   7.082   9.001
77549SOL    HW134544   8.224   7.135   8.989
77549SOL    HW234545   8.353   7.095   8.921
77550SOL     OW34546   1.756   4.119   8.423
77550SOL    HW134547   1.686   4.118   8.358
77550SOL    HW234548   1.712   4.098   8.506
77551SOL     OW34549   8.602   2.002   5.092
77551SOL    HW134550   8.570   2.058   5.163
77551SOL    HW234551   8.634   2.063   5.026
77552SOL     OW34552  14.337   1.967   1.498
77552SOL    HW134553  14.263   1.907   1.498
77552SOL    HW234554  14.360   1.977   1.590
77553SOL     OW34555   4.674  13.234   4.040
77553SOL    HW134556   4.749  13.198   4.089
77553SOL    HW234557   4.641  13.305   4.095
77554SOL     OW34558  11.710  12.887   0.663
77554SOL    HW134559  11.791  12.931   0.690
77554SOL    HW234560  11.690  12.923   0.577
77555SOL     OW34561   9.499  14.593   2.138
77555SOL    HW134562   9.428  14.646   2.103
77555SOL    HW234563   9.457  14.512   2.167
77556SOL     OW34564  14.315   5.474   5.534
77556SOL    HW134565  14.235   5.491   5.584
77556SOL    HW234566  14.384   5.518   5.584
77557SOL     OW34567   7.465   8.058   8.426
77557SOL    HW134568   7.469   8.154   8.427
77557SOL    HW234569   7.484   8.032   8.516
77558SOL     OW34570   6.249   2.349   5.847
77558SOL    HW134571   6.324   2.309   5.892
77558SOL    HW234572   6.187   2.276   5.834
77559SOL     OW34573  10.011  10.115  11.825
77559SOL    HW134574   9.977  10.051  11.888
77559SOL    HW234575   9.986  10.080  11.739
77560SOL     OW34576  12.240  11.767   5.620
77560SOL    HW134577  12.219  11.774   5.713
77560SOL    HW234578  12.332  11.791   5.613
77561SOL     OW34579  12.835  14.635   6.990
77561SOL    HW134580  12.830  14.564   6.926
77561SOL    HW234581  12.929  14.653   6.998
77562SOL     OW34582   1.407   2.076   7.263
77562SOL    HW134583   1.365   1.990   7.271
77562SOL    HW234584   1.414   2.107   7.354
77563SOL     OW34585  10.133   2.871   2.140
77563SOL    HW134586  10.104   2.780   2.145
77563SOL    HW234587  10.217   2.871   2.186
77564SOL     OW34588   0.541   1.956   4.558
77564SOL    HW134589   0.484   2.018   4.513
77564SOL    HW234590   0.539   1.983   4.649
77565SOL     OW34591   6.720   5.806   0.943
77565SOL    HW134592   6.758   5.874   0.887
77565SOL    HW234593   6.684   5.855   1.018
77566SOL     OW34594   3.313  14.270   8.068
77566SOL    HW134595   3.393  14.313   8.099
77566SOL    HW234596   3.281  14.327   7.998
77567SOL     OW34597   6.628   4.767   7.038
77567SOL    HW134598   6.661   4.802   7.121
77567SOL    HW234599   6.707   4.737   6.992
77568SOL     OW34600   1.410   7.322   3.035
77568SOL    HW134601   1.467   7.245   3.038
77568SOL    HW234602   1.390   7.341   3.127
77569SOL     OW34603   6.656  11.758  10.557
77569SOL    HW134604   6.614  11.717  10.633
77569SOL    HW234605   6.678  11.684  10.500
77570SOL     OW34606   9.469   0.548   1.574
77570SOL    HW134607   9.501   0.529   1.662
77570SOL    HW234608   9.430   0.465   1.545
77571SOL     OW34609  12.870   5.685  13.759
77571SOL    HW134610  12.791   5.738  13.758
77571SOL    HW234611  12.940   5.745  13.786
77572SOL     OW34612  10.383   7.028  10.092
77572SOL    HW134613  10.339   6.942  10.093
77572SOL    HW234614  10.423   7.033  10.005
77573SOL     OW34615   9.613   4.476   3.228
77573SOL    HW134616   9.698   4.431   3.218
77573SOL    HW234617   9.632   4.550   3.285
77574SOL     OW34618   5.482   0.407   0.861
77574SOL    HW134619   5.443   0.344   0.922
77574SOL    HW234620   5.429   0.400   0.782
77575SOL     OW34621  14.038  10.752   2.890
77575SOL    HW134622  13.957  10.731   2.936
77575SOL    HW234623  14.009  10.784   2.804
77576SOL     OW34624   8.459  12.216   4.999
77576SOL    HW134625   8.512  12.137   4.986
77576SOL    HW234626   8.372  12.192   4.968
77577SOL     OW34627  13.842   0.879   9.975
77577SOL    HW134628  13.831   0.910   9.885
77577SOL    HW234629  13.936   0.864   9.985
77578SOL     OW34630   7.527   8.699  12.153
77578SOL    HW134631   7.434   8.721  12.156
77578SOL    HW234632   7.561   8.749  12.079
77579SOL     OW34633   4.970  14.072  13.376
77579SOL    HW134634   4.980  14.141  13.441
77579SOL    HW234635   4.908  14.011  13.415
77580SOL     OW34636  13.227   2.785  10.228
77580SOL    HW134637  13.297   2.820  10.173
77580SOL    HW234638  13.248   2.819  10.316
77581SOL     OW34639  11.153   9.285   9.695
77581SOL    HW134640  11.103   9.281   9.614
77581SOL    HW234641  11.244   9.293   9.666
77582SOL     OW34642   2.120   7.530   1.731
77582SOL    HW134643   2.153   7.619   1.742
77582SOL    HW234644   2.138   7.509   1.640
77583SOL     OW34645  10.916  11.604   7.077
77583SOL    HW134646  10.986  11.581   7.016
77583SOL    HW234647  10.857  11.660   7.027
77584SOL     OW34648  12.438   7.927   2.755
77584SOL    HW134649  12.410   7.838   2.730
77584SOL    HW234650  12.423   7.979   2.676
77585SOL     OW34651   5.047  11.681   7.859
77585SOL    HW134652   4.984  11.687   7.787
77585SOL    HW234653   4.998  11.642   7.931
77586SOL     OW34654   1.646  11.141   8.525
77586SOL    HW134655   1.683  11.225   8.551
77586SOL    HW234656   1.721  11.082   8.518
77587SOL     OW34657   6.599   0.853   9.977
77587SOL    HW134658   6.639   0.899  10.050
77587SOL    HW234659   6.540   0.789  10.018
77588SOL     OW34660  10.479   7.977  12.674
77588SOL    HW134661  10.400   7.990  12.726
77588SOL    HW234662  10.459   7.903  12.617
77589SOL     OW34663   1.692   8.825   5.705
77589SOL    HW134664   1.596   8.835   5.708
77589SOL    HW234665   1.710   8.752   5.763
77590SOL     OW34666  11.983   9.200   8.756
77590SOL    HW134667  12.044   9.274   8.757
77590SOL    HW234668  11.907   9.232   8.708
77591SOL     OW34669  11.055   4.016   0.914
77591SOL    HW134670  10.962   4.035   0.928
77591SOL    HW234671  11.063   3.923   0.935
77592SOL     OW34672   4.358   3.588  10.569
77592SOL    HW134673   4.353   3.603  10.474
77592SOL    HW234674   4.297   3.652  10.606
77593SOL     OW34675   9.091   4.268   8.437
77593SOL    HW134676   9.019   4.220   8.478
77593SOL    HW234677   9.093   4.237   8.346
77594SOL     OW34678   4.192   8.317   9.071
77594SOL    HW134679   4.227   8.401   9.101
77594SOL    HW234680   4.192   8.325   8.975
77595SOL     OW34681   2.321   0.418   1.103
77595SOL    HW134682   2.384   0.437   1.034
77595SOL    HW234683   2.373   0.380   1.174
77596SOL     OW34684  13.521  12.111   4.415
77596SOL    HW134685  13.585  12.066   4.360
77596SOL    HW234686  13.569  12.136   4.494
77597SOL     OW34687   7.211  12.878   3.678
77597SOL    HW134688   7.245  12.797   3.716
77597SOL    HW234689   7.211  12.863   3.584
77598SOL     OW34690   8.045  10.104  11.762
77598SOL    HW134691   8.072  10.043  11.693
77598SOL    HW234692   7.998  10.050  11.825
77599SOL     OW34693  12.944   6.910   0.922
77599SOL    HW134694  12.943   6.916   1.017
77599SOL    HW234695  12.945   7.000   0.891
77600SOL     OW34696  10.338   6.140  12.001
77600SOL    HW134697  10.357   6.048  12.014
77600SOL    HW234698  10.386   6.165  11.923
77601SOL     OW34699   4.923   1.103  11.235
77601SOL    HW134700   4.938   1.044  11.308
77601SOL    HW234701   4.970   1.063  11.161
77602SOL     OW34702   9.123  14.217   7.769
77602SOL    HW134703   9.174  14.252   7.842
77602SOL    HW234704   9.122  14.288   7.705
77603SOL     OW34705   8.110   0.652  12.598
77603SOL    HW134706   8.185   0.660  12.657
77603SOL    HW234707   8.148   0.627  12.514
77604SOL     OW34708   6.910   1.846   1.811
77604SOL    HW134709   6.938   1.826   1.721
77604SOL    HW234710   6.984   1.820   1.865
77605SOL     OW34711   0.112   9.628   2.004
77605SOL    HW134712   0.071   9.655   1.923
77605SOL    HW234713   0.061   9.553   2.033
77606SOL     OW34714  13.857   0.333   9.904
77606SOL    HW134715  13.914   0.318   9.979
77606SOL    HW234716  13.777   0.284   9.923
77607SOL     OW34717   5.771   8.350  13.236
77607SOL    HW134718   5.701   8.290  13.210
77607SOL    HW234719   5.828   8.354  13.159
77608SOL     OW34720  14.446   5.204   1.050
77608SOL    HW134721  14.539   5.191   1.069
77608SOL    HW234722  14.411   5.244   1.129
77609SOL     OW34723  12.086   2.279   4.419
77609SOL    HW134724  12.167   2.240   4.452
77609SOL    HW234725  12.055   2.219   4.352
77610SOL     OW34726  11.034  14.850  12.992
77610SOL    HW134727  10.985   0.000  13.065
77610SOL    HW234728  10.987  14.770  12.970
77611SOL     OW34729   3.064   6.317   0.127
77611SOL    HW134730   2.976   6.353   0.121
77611SOL    HW234731   3.052   6.226   0.152
77612SOL     OW34732   3.301  11.994   8.896
77612SOL    HW134733   3.220  12.030   8.861
77612SOL    HW234734   3.296  12.011   8.990
77613SOL     OW34735  13.529  10.393   7.541
77613SOL    HW134736  13.544  10.348   7.624
77613SOL    HW234737  13.564  10.333   7.475
77614SOL     OW34738   2.149  12.814  14.763
77614SOL    HW134739   2.142  12.801  14.858
77614SOL    HW234740   2.210  12.746  14.734
77615SOL     OW34741   7.545   3.339   8.889
77615SOL    HW134742   7.478   3.399   8.922
77615SOL    HW234743   7.520   3.323   8.798
77616SOL     OW34744   9.206   2.768   4.430
77616SOL    HW134745   9.257   2.849   4.440
77616SOL    HW234746   9.125   2.784   4.478
77617SOL     OW34747   5.410   7.141   6.001
77617SOL    HW134748   5.333   7.113   5.952
77617SOL    HW234749   5.477   7.155   5.934
77618SOL     OW34750   2.632  10.590   0.707
77618SOL    HW134751   2.635  10.549   0.794
77618SOL    HW234752   2.600  10.521   0.649
77619SOL     OW34753   1.419   0.948   8.010
77619SOL    HW134754   1.491   0.941   7.948
77619SOL    HW234755   1.421   1.039   8.038
77620SOL     OW34756   8.548   4.537   2.331
77620SOL    HW134757   8.610   4.553   2.260
77620SOL    HW234758   8.600   4.547   2.411
77621SOL     OW34759   8.342  14.325  10.156
77621SOL    HW134760   8.276  14.367  10.100
77621SOL    HW234761   8.412  14.301  10.095
77622SOL     OW34762   2.174   4.494   6.851
77622SOL    HW134763   2.098   4.463   6.800
77622SOL    HW234764   2.170   4.443   6.932
77623SOL     OW34765  11.763   6.702   7.222
77623SOL    HW134766  11.813   6.774   7.184
77623SOL    HW234767  11.812   6.624   7.199
77624SOL     OW34768  11.788   0.290  10.773
77624SOL    HW134769  11.714   0.317  10.828
77624SOL    HW234770  11.748   0.250  10.696
77625SOL     OW34771  11.369   6.174  12.471
77625SOL    HW134772  11.299   6.227  12.510
77625SOL    HW234773  11.362   6.192  12.377
77626SOL     OW34774   0.974  14.041  10.884
77626SOL    HW134775   0.888  14.029  10.924
77626SOL    HW234776   0.955  14.058  10.791
77627SOL     OW34777  13.929   0.656   7.412
77627SOL    HW134778  13.943   0.609   7.495
77627SOL    HW234779  13.947   0.590   7.345
77628SOL     OW34780   6.924   7.182  10.741
77628SOL    HW134781   6.925   7.277  10.751
77628SOL    HW234782   6.971   7.150  10.818
77629SOL     OW34783   5.754   5.318   8.641
77629SOL    HW134784   5.770   5.346   8.551
77629SOL    HW234785   5.742   5.399   8.690
77630SOL     OW34786  11.712   2.455   8.383
77630SOL    HW134787  11.774   2.400   8.333
77630SOL    HW234788  11.738   2.545   8.363
77631SOL     OW34789   8.772   4.224  13.998
77631SOL    HW134790   8.862   4.240  14.027
77631SOL    HW234791   8.729   4.181  14.072
77632SOL     OW34792   3.306   2.970   1.055
77632SOL    HW134793   3.390   3.011   1.075
77632SOL    HW234794   3.256   2.977   1.136
77633SOL     OW34795   5.620   6.925   0.528
77633SOL    HW134796   5.704   6.899   0.565
77633SOL    HW234797   5.642   6.971   0.447
77634SOL     OW34798   0.797   0.744   0.986
77634SOL    HW134799   0.874   0.699   1.023
77634SOL    HW234800   0.822   0.837   0.987
77635SOL     OW34801   1.056   7.485   2.429
77635SOL    HW134802   1.129   7.546   2.424
77635SOL    HW234803   1.055   7.455   2.520
77636SOL     OW34804   8.684  13.907  10.391
77636SOL    HW134805   8.640  13.978  10.344
77636SOL    HW234806   8.765  13.946  10.423
77637SOL     OW34807   0.215   6.080   5.401
77637SOL    HW134808   0.253   6.000   5.436
77637SOL    HW234809   0.134   6.052   5.358
77638SOL     OW34810   4.155  11.366   8.951
77638SOL    HW134811   4.078  11.326   8.910
77638SOL    HW234812   4.135  11.367   9.044
77639SOL     OW34813   3.582  10.481   8.018
77639SOL    HW134814   3.625  10.567   8.026
77639SOL    HW234815   3.634  10.434   7.953
77640SOL     OW34816  13.617   9.222   4.315
77640SOL    HW134817  13.657   9.294   4.266
77640SOL    HW234818  13.689   9.184   4.365
77641SOL     OW34819   2.777  10.573   8.338
77641SOL    HW134820   2.850  10.516   8.362
77641SOL    HW234821   2.708  10.551   8.401
77642SOL     OW34822  13.502  12.999   5.563
77642SOL    HW134823  13.548  13.060   5.621
77642SOL    HW234824  13.480  12.924   5.620
77643SOL     OW34825  11.947   5.703   5.600
77643SOL    HW134826  11.901   5.623   5.628
77643SOL    HW234827  12.018   5.713   5.663
77644SOL     OW34828  10.448  11.120   1.138
77644SOL    HW134829  10.515  11.052   1.149
77644SOL    HW234830  10.366  11.076   1.161
77645SOL     OW34831   9.380   8.903  11.246
77645SOL    HW134832   9.321   8.845  11.294
77645SOL    HW234833   9.335   8.987  11.245
77646SOL     OW34834   1.087  12.774   4.532
77646SOL    HW134835   1.180  12.762   4.514
77646SOL    HW234836   1.046  12.775   4.445
77647SOL     OW34837   9.089  10.177  10.426
77647SOL    HW134838   9.161  10.229  10.391
77647SOL    HW234839   9.110  10.167  10.519
77648SOL     OW34840   2.525  14.699   7.560
77648SOL    HW134841   2.593  14.653   7.608
77648SOL    HW234842   2.481  14.753   7.626
77649SOL     OW34843   8.916  10.880   7.559
77649SOL    HW134844   8.939  10.860   7.650
77649SOL    HW234845   8.873  10.801   7.527
77650SOL     OW34846  13.545  10.561   9.665
77650SOL    HW134847  13.588  10.561   9.579
77650SOL    HW234848  13.538  10.653   9.689
77651SOL     OW34849  11.317   3.857   3.005
77651SOL    HW134850  11.354   3.889   2.923
77651SOL    HW234851  11.288   3.936   3.051
77652SOL     OW34852   8.118   8.019   4.730
77652SOL    HW134853   8.122   8.104   4.685
77652SOL    HW234854   8.032   8.020   4.774
77653SOL     OW34855   0.438   4.023  10.497
77653SOL    HW134856   0.477   3.977  10.571
77653SOL    HW234857   0.506   4.083  10.466
77654SOL     OW34858   8.301   9.716  14.324
77654SOL    HW134859   8.303   9.623  14.300
77654SOL    HW234860   8.388   9.733  14.362
77655SOL     OW34861  10.045   3.195   6.206
77655SOL    HW134862   9.988   3.260   6.164
77655SOL    HW234863  10.093   3.244   6.273
77656SOL     OW34864   0.199  11.139  10.346
77656SOL    HW134865   0.142  11.101  10.279
77656SOL    HW234866   0.167  11.229  10.355
77657SOL     OW34867   4.314  12.129   0.066
77657SOL    HW134868   4.263  12.189   0.012
77657SOL    HW234869   4.319  12.049   0.013
77658SOL     OW34870  13.559   9.062   8.904
77658SOL    HW134871  13.540   8.971   8.881
77658SOL    HW234872  13.563   9.062   9.000
77659SOL     OW34873  14.717   1.892   5.333
77659SOL    HW134874  14.731   1.813   5.385
77659SOL    HW234875  14.761   1.962   5.381
77660SOL     OW34876   1.480   7.966  13.834
77660SOL    HW134877   1.475   8.061  13.844
77660SOL    HW234878   1.513   7.935  13.919
77661SOL     OW34879  10.317   3.370  10.118
77661SOL    HW134880  10.408   3.360  10.089
77661SOL    HW234881  10.322   3.376  10.213
77662SOL     OW34882   0.574   0.214  14.467
77662SOL    HW134883   0.569   0.128  14.426
77662SOL    HW234884   0.664   0.219  14.501
77663SOL     OW34885  14.342   5.893  12.795
77663SOL    HW134886  14.355   5.987  12.779
77663SOL    HW234887  14.357   5.883  12.889
77664SOL     OW34888   4.550   2.497   4.738
77664SOL    HW134889   4.557   2.527   4.647
77664SOL    HW234890   4.457   2.475   4.748
77665SOL     OW34891  11.731   0.749  11.484
77665SOL    HW134892  11.825   0.755  11.465
77665SOL    HW234893  11.688   0.776  11.403
77666SOL     OW34894   0.245   8.515   6.322
77666SOL    HW134895   0.295   8.555   6.393
77666SOL    HW234896   0.179   8.580   6.300
77667SOL     OW34897  13.280   2.494  10.226
77667SOL    HW134898  13.234   2.577  10.237
77667SOL    HW234899  13.269   2.449  10.309
77668SOL     OW34900  14.066   7.604   7.499
77668SOL    HW134901  13.981   7.622   7.458
77668SOL    HW234902  14.115   7.685   7.491
77669SOL     OW34903  10.187  11.740   9.853
77669SOL    HW134904  10.217  11.822   9.891
77669SOL    HW234905  10.103  11.763   9.811
77670SOL     OW34906   4.729   2.994   2.724
77670SOL    HW134907   4.752   3.086   2.707
77670SOL    HW234908   4.802   2.944   2.688
77671SOL     OW34909   9.071   8.707   2.788
77671SOL    HW134910   8.979   8.724   2.770
77671SOL    HW234911   9.110   8.793   2.799
77672SOL     OW34912   4.958  13.761  14.618
77672SOL    HW134913   5.009  13.682  14.600
77672SOL    HW234914   4.880  13.729  14.664
77673SOL     OW34915   6.085   9.916  10.954
77673SOL    HW134916   6.029   9.895  11.029
77673SOL    HW234917   6.159   9.963  10.991
77674SOL     OW34918  10.749  12.749  14.775
77674SOL    HW134919  10.709  12.834  14.754
77674SOL    HW234920  10.834  12.751  14.732
77675SOL     OW34921  14.660  14.033  12.177
77675SOL    HW134922  14.755  14.025  12.162
77675SOL    HW234923  14.636  13.954  12.225
77676SOL     OW34924  10.918  14.475   7.675
77676SOL    HW134925  10.969  14.459   7.595
77676SOL    HW234926  10.978  14.525   7.731
77677SOL     OW34927   3.972   2.616   8.390
77677SOL    HW134928   3.914   2.667   8.446
77677SOL    HW234929   3.926   2.610   8.306
77678SOL     OW34930   3.896   0.701   2.026
77678SOL    HW134931   3.829   0.751   1.979
77678SOL    HW234932   3.934   0.644   1.960
77679SOL     OW34933   4.558   8.360   4.613
77679SOL    HW134934   4.559   8.266   4.632
77679SOL    HW234935   4.590   8.401   4.694
77680SOL     OW34936  12.379   5.004  14.747
77680SOL    HW134937  12.418   5.070  14.688
77680SOL    HW234938  12.288   4.997  14.718
77681SOL     OW34939   3.071   7.688   4.167
77681SOL    HW134940   3.023   7.763   4.131
77681SOL    HW234941   3.114   7.649   4.091
77682SOL     OW34942  12.646   3.958   5.142
77682SOL    HW134943  12.634   4.046   5.105
77682SOL    HW234944  12.621   3.898   5.072
77683SOL     OW34945   6.831   4.642   6.754
77683SOL    HW134946   6.772   4.715   6.737
77683SOL    HW234947   6.874   4.664   6.837
77684SOL     OW34948   7.952   9.608   8.529
77684SOL    HW134949   8.027   9.559   8.496
77684SOL    HW234950   7.876   9.559   8.497
77685SOL     OW34951   3.238   6.482   2.619
77685SOL    HW134952   3.221   6.399   2.573
77685SOL    HW234953   3.231   6.548   2.550
77686SOL     OW34954  11.914  11.021   3.924
77686SOL    HW134955  11.973  10.947   3.939
77686SOL    HW234956  11.946  11.089   3.982
77687SOL     OW34957   7.235   9.171  10.053
77687SOL    HW134958   7.183   9.247  10.029
77687SOL    HW234959   7.174   9.097  10.047
77688SOL     OW34960   7.490   3.614   7.855
77688SOL    HW134961   7.498   3.558   7.932
77688SOL    HW234962   7.470   3.554   7.784
77689SOL     OW34963   1.821  11.574   1.408
77689SOL    HW134964   1.830  11.553   1.315
77689SOL    HW234965   1.911  11.585   1.439
77690SOL     OW34966   2.780  14.597  11.203
77690SOL    HW134967   2.696  14.621  11.243
77690SOL    HW234968   2.786  14.653  11.125
77691SOL     OW34969   2.593   4.314  14.052
77691SOL    HW134970   2.629   4.292  14.137
77691SOL    HW234971   2.530   4.384  14.069
77692SOL     OW34972   9.847   1.769   2.522
77692SOL    HW134973   9.874   1.677   2.520
77692SOL    HW234974   9.773   1.771   2.583
77693SOL     OW34975  10.694  14.333   4.811
77693SOL    HW134976  10.789  14.324   4.800
77693SOL    HW234977  10.664  14.246   4.837
77694SOL     OW34978   7.802  12.573  10.693
77694SOL    HW134979   7.711  12.585  10.720
77694SOL    HW234980   7.804  12.604  10.602
77695SOL     OW34981   0.105   8.553  13.930
77695SOL    HW134982   0.050   8.529  13.855
77695SOL    HW234983   0.043   8.589  13.994
77696SOL     OW34984   4.611   7.814   9.629
77696SOL    HW134985   4.686   7.802   9.571
77696SOL    HW234986   4.589   7.907   9.621
77697SOL     OW34987   4.390   4.364   7.969
77697SOL    HW134988   4.480   4.370   7.937
77697SOL    HW234989   4.355   4.285   7.928
77698SOL     OW34990   9.056   0.245  10.257
77698SOL    HW134991   9.024   0.319  10.205
77698SOL    HW234992   9.134   0.279  10.301
77699SOL     OW34993   3.749   9.755  13.246
77699SOL    HW134994   3.699   9.686  13.202
77699SOL    HW234995   3.821   9.710  13.290
77700SOL     OW34996   1.492   5.404  11.385
77700SOL    HW134997   1.448   5.487  11.368
77700SOL    HW234998   1.542   5.387  11.306
77701SOL     OW34999   3.186  11.296  11.913
77701SOL    HW135000   3.206  11.319  11.823
77701SOL    HW235001   3.165  11.379  11.955
77702SOL     OW35002   6.020   6.532   0.177
77702SOL    HW135003   5.953   6.542   0.110
77702SOL    HW235004   6.102   6.550   0.132
77703SOL     OW35005  13.115   3.435   2.448
77703SOL    HW135006  13.199   3.421   2.493
77703SOL    HW235007  13.095   3.350   2.408
77704SOL     OW35008   2.643   7.693   2.992
77704SOL    HW135009   2.596   7.616   2.959
77704SOL    HW235010   2.725   7.658   3.027
77705SOL     OW35011   0.341   5.178   0.679
77705SOL    HW135012   0.341   5.168   0.584
77705SOL    HW235013   0.264   5.131   0.708
77706SOL     OW35014   6.546  12.092  11.549
77706SOL    HW135015   6.610  12.103  11.479
77706SOL    HW235016   6.553  12.172  11.601
77707SOL     OW35017   6.838  10.089   3.661
77707SOL    HW135018   6.772  10.059   3.599
77707SOL    HW235019   6.888  10.155   3.613
77708SOL     OW35020  14.665  12.366  14.512
77708SOL    HW135021  14.759  12.365  14.494
77708SOL    HW235022  14.653  12.436  14.576
77709SOL     OW35023  12.909   4.020   1.240
77709SOL    HW135024  12.935   3.963   1.313
77709SOL    HW235025  12.988   4.069   1.218
77710SOL     OW35026   1.498   9.498   0.329
77710SOL    HW135027   1.507   9.404   0.312
77710SOL    HW235028   1.574   9.520   0.382
77711SOL     OW35029   8.261   1.081   7.499
77711SOL    HW135030   8.322   1.030   7.553
77711SOL    HW235031   8.215   1.016   7.446
77712SOL     OW35032  14.633   5.641   7.549
77712SOL    HW135033  14.637   5.550   7.579
77712SOL    HW235034  14.557   5.645   7.492
77713SOL     OW35035  13.561   6.043   5.802
77713SOL    HW135036  13.485   6.006   5.757
77713SOL    HW235037  13.559   6.136   5.780
77714SOL     OW35038  13.285   6.546  10.671
77714SOL    HW135039  13.214   6.607  10.692
77714SOL    HW235040  13.255   6.501  10.592
77715SOL     OW35041   0.724  14.231   4.338
77715SOL    HW135042   0.714  14.318   4.378
77715SOL    HW235043   0.650  14.224   4.278
77716SOL     OW35044   7.685   3.592   6.300
77716SOL    HW135045   7.760   3.587   6.242
77716SOL    HW235046   7.627   3.656   6.259
77717SOL     OW35047   1.541   3.842  10.082
77717SOL    HW135048   1.446   3.841  10.073
77717SOL    HW235049   1.574   3.828   9.993
77718SOL     OW35050   6.883  13.202   4.167
77718SOL    HW135051   6.840  13.117   4.161
77718SOL    HW235052   6.821  13.257   4.216
77719SOL     OW35053   0.483   5.785   4.015
77719SOL    HW135054   0.462   5.877   4.027
77719SOL    HW235055   0.399   5.740   4.028
77720SOL     OW35056   8.318   4.741  13.067
77720SOL    HW135057   8.299   4.647  13.065
77720SOL    HW235058   8.373   4.756  12.990
77721SOL     OW35059   0.742   1.064   3.837
77721SOL    HW135060   0.729   1.150   3.877
77721SOL    HW235061   0.666   1.052   3.780
77722SOL     OW35062  14.558   2.891   1.754
77722SOL    HW135063  14.521   2.964   1.704
77722SOL    HW235064  14.648   2.919   1.774
77723SOL     OW35065   0.024  10.502   8.297
77723SOL    HW135066   0.000  10.565   8.229
77723SOL    HW235067   0.119  10.508   8.302
77724SOL     OW35068   5.490   0.292   1.663
77724SOL    HW135069   5.422   0.247   1.714
77724SOL    HW235070   5.462   0.383   1.661
77725SOL     OW35071  11.944   3.778  11.375
77725SOL    HW135072  11.967   3.815  11.289
77725SOL    HW235073  11.954   3.852  11.435
77726SOL     OW35074   2.507   7.423  12.729
77726SOL    HW135075   2.589   7.464  12.703
77726SOL    HW235076   2.531   7.366  12.802
77727SOL     OW35077   6.576   6.518   3.315
77727SOL    HW135078   6.511   6.448   3.311
77727SOL    HW235079   6.555   6.567   3.395
77728SOL     OW35080  14.792   7.162   0.565
77728SOL    HW135081  14.866   7.203   0.611
77728SOL    HW235082  14.773   7.221   0.493
77729SOL     OW35083   3.422   0.403   1.405
77729SOL    HW135084   3.328   0.403   1.385
77729SOL    HW235085   3.464   0.415   1.320
77730SOL     OW35086   4.400  12.116  11.735
77730SOL    HW135087   4.493  12.112  11.716
77730SOL    HW235088   4.391  12.183  11.802
77731SOL     OW35089   2.467   7.697   1.829
77731SOL    HW135090   2.447   7.615   1.874
77731SOL    HW235091   2.429   7.687   1.742
77732SOL     OW35092  10.043   5.976   9.917
77732SOL    HW135093  10.029   5.993  10.010
77732SOL    HW235094  10.041   5.880   9.909
77733SOL     OW35095   3.889   4.434   8.858
77733SOL    HW135096   3.867   4.358   8.913
77733SOL    HW235097   3.819   4.497   8.877
77734SOL     OW35098   9.498  10.658  13.810
77734SOL    HW135099   9.522  10.728  13.750
77734SOL    HW235100   9.468  10.587  13.753
77735SOL     OW35101   1.057   8.640   5.922
77735SOL    HW135102   0.990   8.590   5.968
77735SOL    HW235103   1.061   8.724   5.969
77736SOL     OW35104   9.810   5.752   6.558
77736SOL    HW135105   9.895   5.790   6.582
77736SOL    HW235106   9.765   5.822   6.510
77737SOL     OW35107  10.585   0.810  12.303
77737SOL    HW135108  10.671   0.817  12.263
77737SOL    HW235109  10.577   0.718  12.327
77738SOL     OW35110   6.917   5.111   3.440
77738SOL    HW135111   6.905   5.203   3.464
77738SOL    HW235112   6.836   5.087   3.395
77739SOL     OW35113   2.829  12.205   7.565
77739SOL    HW135114   2.834  12.219   7.471
77739SOL    HW235115   2.884  12.128   7.581
77740SOL     OW35116   0.327   4.379   9.116
77740SOL    HW135117   0.263   4.321   9.076
77740SOL    HW235118   0.286   4.409   9.197
77741SOL     OW35119   7.523  11.929  14.453
77741SOL    HW135120   7.567  11.995  14.506
77741SOL    HW235121   7.551  11.948  14.363
77742SOL     OW35122   1.198  12.377   9.230
77742SOL    HW135123   1.269  12.434   9.259
77742SOL    HW235124   1.119  12.430   9.240
77743SOL     OW35125   7.124   4.950   7.647
77743SOL    HW135126   7.057   4.983   7.707
77743SOL    HW235127   7.132   4.857   7.670
77744SOL     OW35128   5.553   2.592   5.039
77744SOL    HW135129   5.586   2.507   5.010
77744SOL    HW235130   5.556   2.648   4.962
77745SOL     OW35131  14.800   0.950   5.710
77745SOL    HW135132  14.848   1.010   5.653
77745SOL    HW235133  14.820   0.863   5.675
77746SOL     OW35134   3.684   2.458   2.759
77746SOL    HW135135   3.634   2.378   2.777
77746SOL    HW235136   3.775   2.434   2.777
77747SOL     OW35137  13.826  13.237   2.823
77747SOL    HW135138  13.882  13.311   2.801
77747SOL    HW235139  13.834  13.229   2.918
77748SOL     OW35140   3.515   7.628   8.141
77748SOL    HW135141   3.458   7.553   8.157
77748SOL    HW235142   3.485   7.664   8.058
77749SOL     OW35143   2.035  12.254   1.032
77749SOL    HW135144   2.031  12.170   1.077
77749SOL    HW235145   2.120  12.255   0.988
77750SOL     OW35146   2.652   6.698   5.101
77750SOL    HW135147   2.698   6.766   5.149
77750SOL    HW235148   2.559   6.718   5.115
77751SOL     OW35149   8.886  10.953   0.198
77751SOL    HW135150   8.975  10.946   0.164
77751SOL    HW235151   8.835  10.989   0.125
77752SOL     OW35152   2.134  12.930  14.189
77752SOL    HW135153   2.188  12.937  14.110
77752SOL    HW235154   2.179  12.985  14.254
77753SOL     OW35155   2.787  11.543   0.073
77753SOL    HW135156   2.752  11.508   0.155
77753SOL    HW235157   2.766  11.475   0.008
77754SOL     OW35158   7.799   4.970  11.736
77754SOL    HW135159   7.837   4.916  11.667
77754SOL    HW235160   7.861   5.042  11.747
77755SOL     OW35161  12.292   5.773   1.354
77755SOL    HW135162  12.378   5.738   1.375
77755SOL    HW235163  12.234   5.697   1.352
77756SOL     OW35164   5.965   4.458  12.084
77756SOL    HW135165   5.929   4.544  12.062
77756SOL    HW235166   5.914   4.429  12.159
77757SOL     OW35167   1.138  13.604   3.313
77757SOL    HW135168   1.211  13.642   3.363
77757SOL    HW235169   1.130  13.515   3.349
77758SOL     OW35170  14.432   8.766   9.622
77758SOL    HW135171  14.366   8.726   9.566
77758SOL    HW235172  14.390   8.846   9.654
77759SOL     OW35173   2.498  13.584   8.043
77759SOL    HW135174   2.497  13.534   7.962
77759SOL    HW235175   2.528  13.523   8.110
77760SOL     OW35176  10.227   8.742   5.527
77760SOL    HW135177  10.322   8.728   5.518
77760SOL    HW235178  10.189   8.696   5.452
77761SOL     OW35179  13.443   9.223  11.714
77761SOL    HW135180  13.372   9.279  11.684
77761SOL    HW235181  13.426   9.210  11.807
77762SOL     OW35182  11.714   5.120   8.749
77762SOL    HW135183  11.690   5.056   8.681
77762SOL    HW235184  11.796   5.157   8.718
77763SOL     OW35185  12.543   3.796   9.382
77763SOL    HW135186  12.450   3.815   9.378
77763SOL    HW235187  12.585   3.875   9.348
77764SOL     OW35188   6.014  13.244  13.608
77764SOL    HW135189   6.099  13.208  13.630
77764SOL    HW235190   5.971  13.257  13.693
77765SOL     OW35191   2.967   0.036  14.390
77765SOL    HW135192   3.050   0.021  14.435
77765SOL    HW235193   2.911   0.079  14.455
77766SOL     OW35194   8.238  13.406  13.187
77766SOL    HW135195   8.244  13.354  13.267
77766SOL    HW235196   8.329  13.426  13.165
77767SOL     OW35197   5.209   4.295   1.971
77767SOL    HW135198   5.212   4.382   1.932
77767SOL    HW235199   5.144   4.248   1.918
77768SOL     OW35200   7.382   6.490  12.045
77768SOL    HW135201   7.404   6.437  11.967
77768SOL    HW235202   7.435   6.452  12.115
77769SOL     OW35203  13.732   9.950   0.888
77769SOL    HW135204  13.650   9.987   0.921
77769SOL    HW235205  13.733   9.973   0.795
77770SOL     OW35206   2.964   8.843   9.197
77770SOL    HW135207   2.989   8.822   9.287
77770SOL    HW235208   3.005   8.928   9.180
77771SOL     OW35209  14.404   3.548   7.507
77771SOL    HW135210  14.317   3.521   7.536
77771SOL    HW235211  14.399   3.643   7.502
77772SOL     OW35212   9.800   3.991  12.261
77772SOL    HW135213   9.838   3.991  12.349
77772SOL    HW235214   9.754   4.074  12.254
77773SOL     OW35215  11.506   3.127   8.375
77773SOL    HW135216  11.493   3.132   8.280
77773SOL    HW235217  11.419   3.109   8.410
77774SOL     OW35218   1.528   8.491   5.652
77774SOL    HW135219   1.541   8.414   5.709
77774SOL    HW235220   1.592   8.481   5.583
77775SOL     OW35221   4.008   0.593   1.786
77775SOL    HW135222   4.100   0.574   1.768
77775SOL    HW235223   3.995   0.682   1.750
77776SOL     OW35224  12.823   2.284   5.576
77776SOL    HW135225  12.886   2.350   5.546
77776SOL    HW235226  12.866   2.200   5.558
77777SOL     OW35227   7.043  11.700   6.010
77777SOL    HW135228   7.026  11.737   6.096
77777SOL    HW235229   6.978  11.630   6.001
77778SOL     OW35230   3.237  13.573   8.511
77778SOL    HW135231   3.322  13.532   8.494
77778SOL    HW235232   3.211  13.609   8.426
77779SOL     OW35233   1.669  13.193  14.571
77779SOL    HW135234   1.598  13.136  14.601
77779SOL    HW235235   1.738  13.132  14.543
77780SOL     OW35236  10.957   0.947   4.260
77780SOL    HW135237  10.964   0.923   4.353
77780SOL    HW235238  10.940   1.041   4.260
77781SOL     OW35239  13.865   0.867   5.150
77781SOL    HW135240  13.869   0.921   5.071
77781SOL    HW235241  13.861   0.777   5.118
77782SOL     OW35242   8.287   6.884  13.638
77782SOL    HW135243   8.306   6.977  13.645
77782SOL    HW235244   8.242   6.862  13.720
77783SOL     OW35245  12.950  11.668  10.857
77783SOL    HW135246  12.947  11.737  10.923
77783SOL    HW235247  12.929  11.713  10.775
77784SOL     OW35248   9.040  10.759  11.633
77784SOL    HW135249   8.998  10.844  11.624
77784SOL    HW235250   9.077  10.740  11.546
77785SOL     OW35251  13.036  12.817  14.160
77785SOL    HW135252  12.968  12.883  14.162
77785SOL    HW235253  13.012  12.759  14.087
77786SOL     OW35254  10.640   3.619   3.134
77786SOL    HW135255  10.580   3.692   3.151
77786SOL    HW235256  10.721   3.645   3.178
77787SOL     OW35257   3.192   5.868  10.095
77787SOL    HW135258   3.121   5.842  10.154
77787SOL    HW235259   3.227   5.948  10.134
77788SOL     OW35260  14.646   1.807  13.672
77788SOL    HW135261  14.648   1.810  13.767
77788SOL    HW235262  14.696   1.885  13.644
77789SOL     OW35263   0.675   6.968   5.540
77789SOL    HW135264   0.607   6.906   5.515
77789SOL    HW235265   0.631   7.033   5.595
77790SOL     OW35266  10.970   2.571   3.726
77790SOL    HW135267  10.942   2.498   3.781
77790SOL    HW235268  11.043   2.536   3.674
77791SOL     OW35269  13.070  13.008   1.434
77791SOL    HW135270  13.010  12.999   1.360
77791SOL    HW235271  13.013  13.025   1.509
77792SOL     OW35272  12.966  10.178   4.947
77792SOL    HW135273  12.905  10.246   4.977
77792SOL    HW235274  12.926  10.144   4.867
77793SOL     OW35275   3.898  10.464   9.696
77793SOL    HW135276   3.870  10.386   9.745
77793SOL    HW235277   3.821  10.489   9.644
77794SOL     OW35278   2.359   1.195  13.533
77794SOL    HW135279   2.287   1.249  13.565
77794SOL    HW235280   2.415   1.181  13.610
77795SOL     OW35281   1.370   7.091   0.606
77795SOL    HW135282   1.377   7.070   0.512
77795SOL    HW235283   1.456   7.070   0.642
77796SOL     OW35284  12.318  11.311   1.032
77796SOL    HW135285  12.305  11.368   1.108
77796SOL    HW235286  12.255  11.240   1.044
77797SOL     OW35287   5.138   8.015   0.298
77797SOL    HW135288   5.177   7.977   0.219
77797SOL    HW235289   5.050   8.040   0.271
77798SOL     OW35290  11.554   5.656   0.122
77798SOL    HW135291  11.464   5.629   0.104
77798SOL    HW235292  11.570   5.729   0.061
77799SOL     OW35293   1.875  13.043   3.772
77799SOL    HW135294   1.842  12.954   3.761
77799SOL    HW235295   1.918  13.062   3.689
77800SOL     OW35296   9.982   2.648   5.798
77800SOL    HW135297   9.897   2.608   5.777
77800SOL    HW235298   9.986   2.726   5.742
77801SOL     OW35299   7.213  11.730   8.062
77801SOL    HW135300   7.251  11.656   8.014
77801SOL    HW235301   7.141  11.760   8.006
77802SOL     OW35302   9.574  13.539   3.160
77802SOL    HW135303   9.507  13.586   3.210
77802SOL    HW235304   9.543  13.541   3.070
77803SOL     OW35305   2.753   1.016   4.248
77803SOL    HW135306   2.678   0.965   4.279
77803SOL    HW235307   2.780   0.972   4.167
77804SOL     OW35308  14.590  10.496  11.200
77804SOL    HW135309  14.622  10.585  11.188
77804SOL    HW235310  14.567  10.491  11.293
77805SOL     OW35311  13.612   8.658   6.454
77805SOL    HW135312  13.617   8.699   6.541
77805SOL    HW235313  13.618   8.731   6.393
77806SOL     OW35314   0.361   4.519  13.046
77806SOL    HW135315   0.357   4.467  13.126
77806SOL    HW235316   0.289   4.581  13.054
77807SOL     OW35317  11.045   3.812   1.366
77807SOL    HW135318  10.963   3.805   1.414
77807SOL    HW235319  11.064   3.906   1.365
77808SOL     OW35320   9.334  10.329  14.342
77808SOL    HW135321   9.364  10.310  14.431
77808SOL    HW235322   9.414  10.347  14.293
77809SOL     OW35323   2.838   0.956  12.687
77809SOL    HW135324   2.899   1.006  12.740
77809SOL    HW235325   2.752   0.973  12.727
77810SOL     OW35326   0.311   3.658  10.731
77810SOL    HW135327   0.344   3.584  10.781
77810SOL    HW235328   0.242   3.696  10.786
77811SOL     OW35329  10.211  10.178  12.022
77811SOL    HW135330  10.211  10.274  12.027
77811SOL    HW235331  10.132  10.157  11.972
77812SOL     OW35332  11.005   6.420  10.985
77812SOL    HW135333  10.940   6.443  10.919
77812SOL    HW235334  10.971   6.339  11.025
77813SOL     OW35335   0.762  10.417   8.991
77813SOL    HW135336   0.797  10.441   8.905
77813SOL    HW235337   0.745  10.323   8.984
77814SOL     OW35338  11.109   3.759  11.185
77814SOL    HW135339  11.109   3.666  11.205
77814SOL    HW235340  11.026   3.791  11.218
77815SOL     OW35341  13.946   8.338   1.772
77815SOL    HW135342  13.888   8.401   1.816
77815SOL    HW235343  13.895   8.257   1.768
77816SOL     OW35344   2.752   4.101   9.118
77816SOL    HW135345   2.842   4.133   9.127
77816SOL    HW235346   2.758   4.031   9.053
77817SOL     OW35347   4.276   4.698  10.491
77817SOL    HW135348   4.252   4.787  10.466
77817SOL    HW235349   4.230   4.683  10.573
77818SOL     OW35350  10.581  10.584   5.798
77818SOL    HW135351  10.601  10.563   5.889
77818SOL    HW235352  10.569  10.679   5.797
77819SOL     OW35353   5.919   9.119   2.516
77819SOL    HW135354   5.988   9.177   2.485
77819SOL    HW235355   5.943   9.098   2.606
77820SOL     OW35356   4.309  12.077   2.448
77820SOL    HW135357   4.401  12.054   2.458
77820SOL    HW235358   4.264  12.028   2.517
77821SOL     OW35359   1.740   7.451   2.359
77821SOL    HW135360   1.826   7.470   2.396
77821SOL    HW235361   1.728   7.357   2.372
77822SOL     OW35362   7.310   4.728   7.329
77822SOL    HW135363   7.298   4.634   7.315
77822SOL    HW235364   7.395   4.748   7.289
77823SOL     OW35365   7.716  10.064   4.909
77823SOL    HW135366   7.791  10.074   4.850
77823SOL    HW235367   7.754  10.059   4.996
77824SOL     OW35368   4.848   1.699  12.533
77824SOL    HW135369   4.845   1.611  12.571
77824SOL    HW235370   4.856   1.685  12.439
77825SOL     OW35371   6.550  12.839   1.549
77825SOL    HW135372   6.639  12.859   1.520
77825SOL    HW235373   6.551  12.744   1.564
77826SOL     OW35374  10.954  11.661   4.570
77826SOL    HW135375  10.928  11.667   4.478
77826SOL    HW235376  11.034  11.714   4.575
77827SOL     OW35377   8.448   8.040  12.133
77827SOL    HW135378   8.458   8.131  12.161
77827SOL    HW235379   8.409   8.046  12.045
77828SOL     OW35380   7.892   9.228   7.979
77828SOL    HW135381   7.972   9.279   7.993
77828SOL    HW235382   7.828   9.293   7.949
77829SOL     OW35383   4.681   5.295   3.402
77829SOL    HW135384   4.604   5.303   3.458
77829SOL    HW235385   4.733   5.373   3.422
77830SOL     OW35386  10.604   5.729   1.733
77830SOL    HW135387  10.628   5.681   1.653
77830SOL    HW235388  10.533   5.787   1.705
77831SOL     OW35389  12.454  11.854   4.394
77831SOL    HW135390  12.445  11.848   4.489
77831SOL    HW235391  12.488  11.943   4.379
77832SOL     OW35392   1.369   9.484   2.274
77832SOL    HW135393   1.306   9.550   2.243
77832SOL    HW235394   1.424   9.531   2.337
77833SOL     OW35395   1.929   2.230   1.482
77833SOL    HW135396   1.942   2.302   1.420
77833SOL    HW235397   1.933   2.272   1.568
77834SOL     OW35398  11.189   0.657   1.370
77834SOL    HW135399  11.240   0.631   1.294
77834SOL    HW235400  11.251   0.653   1.443
77835SOL     OW35401  11.292   2.356  11.487
77835SOL    HW135402  11.253   2.438  11.520
77835SOL    HW235403  11.288   2.365  11.392
77836SOL     OW35404   7.731   2.948  12.144
77836SOL    HW135405   7.763   2.870  12.190
77836SOL    HW235406   7.799   2.968  12.080
77837SOL     OW35407   2.658   1.817   6.670
77837SOL    HW135408   2.607   1.799   6.749
77837SOL    HW235409   2.703   1.899   6.689
77838SOL     OW35410   6.934  13.423  13.392
77838SOL    HW135411   6.911  13.376  13.313
77838SOL    HW235412   6.850  13.447  13.432
77839SOL     OW35413   6.672   0.740   8.827
77839SOL    HW135414   6.662   0.741   8.923
77839SOL    HW235415   6.710   0.825   8.806
77840SOL     OW35416   2.197   6.132   8.898
77840SOL    HW135417   2.184   6.205   8.958
77840SOL    HW235418   2.157   6.057   8.943
77841SOL     OW35419  13.320   1.676  13.061
77841SOL    HW135420  13.361   1.590  13.055
77841SOL    HW235421  13.226   1.658  13.062
77842SOL     OW35422   9.721   2.767   1.225
77842SOL    HW135423   9.762   2.839   1.272
77842SOL    HW235424   9.730   2.790   1.132
77843SOL     OW35425  12.590  12.538   2.861
77843SOL    HW135426  12.602  12.579   2.947
77843SOL    HW235427  12.517  12.478   2.873
77844SOL     OW35428   9.693   4.071   6.353
77844SOL    HW135429   9.706   4.018   6.273
77844SOL    HW235430   9.781   4.100   6.377
77845SOL     OW35431   1.481   6.481   6.501
77845SOL    HW135432   1.388   6.459   6.509
77845SOL    HW235433   1.481   6.562   6.449
77846SOL     OW35434  13.592   7.079  10.889
77846SOL    HW135435  13.578   7.134  10.812
77846SOL    HW235436  13.621   7.140  10.957
77847SOL     OW35437   8.014   2.791   9.233
77847SOL    HW135438   7.926   2.761   9.213
77847SOL    HW235439   8.049   2.820   9.148
77848SOL     OW35440   1.174   1.667   7.459
77848SOL    HW135441   1.133   1.582   7.472
77848SOL    HW235442   1.268   1.649   7.464
77849SOL     OW35443   9.728  13.737  12.305
77849SOL    HW135444   9.695  13.726  12.394
77849SOL    HW235445   9.716  13.830  12.286
77850SOL     OW35446  13.193   0.391  13.948
77850SOL    HW135447  13.240   0.410  13.867
77850SOL    HW235448  13.188   0.295  13.951
77851SOL     OW35449   5.807  10.674   9.661
77851SOL    HW135450   5.793  10.650   9.570
77851SOL    HW235451   5.773  10.600   9.711
77852SOL     OW35452  13.302   9.729   7.544
77852SOL    HW135453  13.355   9.652   7.560
77852SOL    HW235454  13.363   9.794   7.508
77853SOL     OW35455   4.075  11.680   4.564
77853SOL    HW135456   4.077  11.629   4.645
77853SOL    HW235457   4.014  11.633   4.507
77854SOL     OW35458   8.001   0.543  13.855
77854SOL    HW135459   8.057   0.534  13.778
77854SOL    HW235460   7.956   0.626  13.843
77855SOL     OW35461   1.451   3.937   3.568
77855SOL    HW135462   1.530   3.920   3.620
77855SOL    HW235463   1.444   3.862   3.509
77856SOL     OW35464  13.885   3.104   0.251
77856SOL    HW135465  13.880   3.086   0.345
77856SOL    HW235466  13.798   3.082   0.218
77857SOL     OW35467   4.704  13.257  12.024
77857SOL    HW135468   4.750  13.341  12.027
77857SOL    HW235469   4.773  13.191  12.031
77858SOL     OW35470   8.654   4.933   5.600
77858SOL    HW135471   8.621   4.879   5.672
77858SOL    HW235472   8.706   4.873   5.546
77859SOL     OW35473   1.384   1.959  14.349
77859SOL    HW135474   1.410   1.956  14.441
77859SOL    HW235475   1.406   1.872  14.316
77860SOL     OW35476  11.022   6.215   1.933
77860SOL    HW135477  11.002   6.186   2.021
77860SOL    HW235478  11.087   6.153   1.901
77861SOL     OW35479   1.818  11.127  11.574
77861SOL    HW135480   1.725  11.108  11.560
77861SOL    HW235481   1.856  11.042  11.593
77862SOL     OW35482  10.517  11.812   4.389
77862SOL    HW135483  10.587  11.877   4.387
77862SOL    HW235484  10.552  11.740   4.442
77863SOL     OW35485  13.899  14.024   9.583
77863SOL    HW135486  13.874  14.022   9.491
77863SOL    HW235487  13.880  14.114   9.611
77864SOL     OW35488  13.356   5.042   0.286
77864SOL    HW135489  13.385   5.125   0.325
77864SOL    HW235490  13.405   4.975   0.332
77865SOL     OW35491   6.018   4.432  11.191
77865SOL    HW135492   6.031   4.474  11.106
77865SOL    HW235493   6.090   4.369  11.197
77866SOL     OW35494   7.130   3.433   1.310
77866SOL    HW135495   7.173   3.517   1.325
77866SOL    HW235496   7.059   3.431   1.375
77867SOL     OW35497  10.663  13.724  10.222
77867SOL    HW135498  10.725  13.759  10.158
77867SOL    HW235499  10.713  13.658  10.270
77868SOL     OW35500   9.515   5.333   4.987
77868SOL    HW135501   9.569   5.317   5.064
77868SOL    HW235502   9.555   5.409   4.945
77869SOL     OW35503   0.079  11.040   3.094
77869SOL    HW135504  14.871  11.053   3.093
77869SOL    HW235505   0.103  11.042   3.186
77870SOL     OW35506   0.042  11.310   6.237
77870SOL    HW135507   0.031  11.282   6.147
77870SOL    HW235508  14.883  11.244   6.289
77871SOL     OW35509  10.284  13.114  11.566
77871SOL    HW135510  10.250  13.057  11.635
77871SOL    HW235511  10.206  13.154  11.527
77872SOL     OW35512   6.677  10.377   1.268
77872SOL    HW135513   6.766  10.346   1.283
77872SOL    HW235514   6.622  10.301   1.289
77873SOL     OW35515  12.321  11.625   1.817
77873SOL    HW135516  12.348  11.548   1.767
77873SOL    HW235517  12.272  11.590   1.891
77874SOL     OW35518  13.103   8.619   6.668
77874SOL    HW135519  13.013   8.586   6.661
77874SOL    HW235520  13.152   8.565   6.606
77875SOL     OW35521  12.575  11.094   3.310
77875SOL    HW135522  12.616  11.041   3.377
77875SOL    HW235523  12.535  11.167   3.357
77876SOL     OW35524  14.520   7.927   0.541
77876SOL    HW135525  14.435   7.904   0.503
77876SOL    HW235526  14.527   7.871   0.619
77877SOL     OW35527  11.726   5.721   0.329
77877SOL    HW135528  11.676   5.683   0.256
77877SOL    HW235529  11.666   5.785   0.368
77878SOL     OW35530   0.921   2.952   1.474
77878SOL    HW135531   0.885   2.877   1.426
77878SOL    HW235532   1.001   2.918   1.514
77879SOL     OW35533   0.806   0.586   9.472
77879SOL    HW135534   0.735   0.621   9.526
77879SOL    HW235535   0.874   0.563   9.535
77880SOL     OW35536   2.159   3.403   0.957
77880SOL    HW135537   2.131   3.482   1.002
77880SOL    HW235538   2.083   3.346   0.959
77881SOL     OW35539  13.654   6.945   6.717
77881SOL    HW135540  13.702   6.872   6.677
77881SOL    HW235541  13.562   6.919   6.708
77882SOL     OW35542   5.246   2.097  11.058
77882SOL    HW135543   5.267   2.021  11.003
77882SOL    HW235544   5.226   2.059  11.144
77883SOL     OW35545   1.004  12.190   3.982
77883SOL    HW135546   0.962  12.164   3.900
77883SOL    HW235547   1.071  12.253   3.956
77884SOL     OW35548   9.759  12.512   2.825
77884SOL    HW135549   9.733  12.561   2.903
77884SOL    HW235550   9.806  12.576   2.771
77885SOL     OW35551   6.070   6.291   3.580
77885SOL    HW135552   6.110   6.344   3.648
77885SOL    HW235553   6.108   6.204   3.590
77886SOL     OW35554  11.687   8.167   6.177
77886SOL    HW135555  11.752   8.115   6.224
77886SOL    HW235556  11.629   8.201   6.245
77887SOL     OW35557   5.646   1.036  14.431
77887SOL    HW135558   5.648   1.102  14.362
77887SOL    HW235559   5.593   1.075  14.501
77888SOL     OW35560   2.212   2.126   0.208
77888SOL    HW135561   2.297   2.141   0.251
77888SOL    HW235562   2.187   2.212   0.175
77889SOL     OW35563  10.297   6.117   1.676
77889SOL    HW135564  10.361   6.184   1.651
77889SOL    HW235565  10.236   6.162   1.734
77890SOL     OW35566  14.257   4.412   8.323
77890SOL    HW135567  14.231   4.504   8.322
77890SOL    HW235568  14.290   4.398   8.412
77891SOL     OW35569  14.292  10.585  10.916
77891SOL    HW135570  14.234  10.509  10.920
77891SOL    HW235571  14.332  10.581  10.829
77892SOL     OW35572   8.155   6.690   0.397
77892SOL    HW135573   8.171   6.640   0.318
77892SOL    HW235574   8.228   6.669   0.455
77893SOL     OW35575   5.282   7.291   5.728
77893SOL    HW135576   5.355   7.230   5.722
77893SOL    HW235577   5.205   7.236   5.740
77894SOL     OW35578   4.594   0.998   7.018
77894SOL    HW135579   4.677   1.000   7.065
77894SOL    HW235580   4.601   0.924   6.958
77895SOL     OW35581   3.858   9.554   3.410
77895SOL    HW135582   3.929   9.556   3.346
77895SOL    HW235583   3.790   9.501   3.369
77896SOL     OW35584   0.729  10.288   2.193
77896SOL    HW135585   0.713  10.300   2.099
77896SOL    HW235586   0.819  10.318   2.206
77897SOL     OW35587   7.347  13.908   5.915
77897SOL    HW135588   7.380  13.876   5.832
77897SOL    HW235589   7.422  13.952   5.955
77898SOL     OW35590  14.667   0.620   8.353
77898SOL    HW135591  14.739   0.625   8.290
77898SOL    HW235592  14.663   0.528   8.378
77899SOL     OW35593   3.681   9.671   2.081
77899SOL    HW135594   3.753   9.616   2.113
77899SOL    HW235595   3.607   9.610   2.073
77900SOL     OW35596  13.604  10.039   2.661
77900SOL    HW135597  13.621  10.012   2.752
77900SOL    HW235598  13.610  10.135   2.664
77901SOL     OW35599   5.194   8.531   9.385
77901SOL    HW135600   5.148   8.509   9.303
77901SOL    HW235601   5.263   8.465   9.391
77902SOL     OW35602   3.059  12.861   9.447
77902SOL    HW135603   3.080  12.775   9.484
77902SOL    HW235604   3.004  12.841   9.371
77903SOL     OW35605  13.661  10.096   8.260
77903SOL    HW135606  13.637  10.188   8.248
77903SOL    HW235607  13.633  10.054   8.179
77904SOL     OW35608   9.200   8.583  11.955
77904SOL    HW135609   9.211   8.491  11.981
77904SOL    HW235610   9.131   8.616  12.012
77905SOL     OW35611   1.199   5.103  11.244
77905SOL    HW135612   1.237   5.131  11.327
77905SOL    HW235613   1.105   5.118  11.254
77906SOL     OW35614   3.590   2.107  14.144
77906SOL    HW135615   3.670   2.155  14.126
77906SOL    HW235616   3.610   2.055  14.222
77907SOL     OW35617  11.504   2.517   7.244
77907SOL    HW135618  11.522   2.450   7.310
77907SOL    HW235619  11.433   2.569   7.282
77908SOL     OW35620  10.773   6.101   9.773
77908SOL    HW135621  10.856   6.102   9.723
77908SOL    HW235622  10.738   6.013   9.759
77909SOL     OW35623   4.338  11.730   1.306
77909SOL    HW135624   4.340  11.650   1.358
77909SOL    HW235625   4.380  11.705   1.223
77910SOL     OW35626   9.283  13.669   8.660
77910SOL    HW135627   9.188  13.657   8.665
77910SOL    HW235628   9.299  13.698   8.570
77911SOL     OW35629  11.520   1.977  14.629
77911SOL    HW135630  11.451   2.011  14.572
77911SOL    HW235631  11.601   2.004  14.587
77912SOL     OW35632   4.328  11.097   6.732
77912SOL    HW135633   4.331  11.097   6.636
77912SOL    HW235634   4.284  11.179   6.755
77913SOL     OW35635  14.569  14.685   9.426
77913SOL    HW135636  14.542  14.610   9.373
77913SOL    HW235637  14.489  14.715   9.469
77914SOL     OW35638  11.003   8.515   7.361
77914SOL    HW135639  10.908   8.505   7.358
77914SOL    HW235640  11.027   8.487   7.450
77915SOL     OW35641  13.731  13.848   1.924
77915SOL    HW135642  13.701  13.937   1.907
77915SOL    HW235643  13.652  13.802   1.954
77916SOL     OW35644   2.848   9.423  14.555
77916SOL    HW135645   2.830   9.512  14.524
77916SOL    HW235646   2.763   9.390  14.585
77917SOL     OW35647   9.231   7.384   6.610
77917SOL    HW135648   9.265   7.391   6.521
77917SOL    HW235649   9.143   7.348   6.599
77918SOL     OW35650   5.938   5.356   1.107
77918SOL    HW135651   5.949   5.369   1.013
77918SOL    HW235652   6.025   5.330   1.138
77919SOL     OW35653   5.210   8.541   3.616
77919SOL    HW135654   5.196   8.551   3.710
77919SOL    HW235655   5.142   8.480   3.588
77920SOL     OW35656   9.293   8.350   0.450
77920SOL    HW135657   9.313   8.264   0.411
77920SOL    HW235658   9.269   8.330   0.541
77921SOL     OW35659   4.030  13.993   9.467
77921SOL    HW135660   4.078  14.076   9.475
77921SOL    HW235661   3.968  13.994   9.540
77922SOL     OW35662   8.763   6.178   4.416
77922SOL    HW135663   8.778   6.264   4.377
77922SOL    HW235664   8.715   6.129   4.349
77923SOL     OW35665   1.897  13.493   3.029
77923SOL    HW135666   1.978  13.531   2.994
77923SOL    HW235667   1.840  13.485   2.953
77924SOL     OW35668   4.833  13.649  14.138
77924SOL    HW135669   4.848  13.710  14.211
77924SOL    HW235670   4.814  13.705  14.063
77925SOL     OW35671   6.540   2.835   9.320
77925SOL    HW135672   6.467   2.785   9.284
77925SOL    HW235673   6.527   2.924   9.287
77926SOL     OW35674   7.814   1.465  10.420
77926SOL    HW135675   7.751   1.472  10.349
77926SOL    HW235676   7.882   1.529  10.399
77927SOL     OW35677  12.985   9.106  12.110
77927SOL    HW135678  12.987   9.071  12.199
77927SOL    HW235679  12.896   9.089  12.080
77928SOL     OW35680   4.186   6.628  12.445
77928SOL    HW135681   4.266   6.674  12.470
77928SOL    HW235682   4.121   6.657  12.508
77929SOL     OW35683   2.170   0.954   3.360
77929SOL    HW135684   2.215   0.869   3.357
77929SOL    HW235685   2.198   0.993   3.443
77930SOL     OW35686   7.168  10.538  13.928
77930SOL    HW135687   7.079  10.510  13.951
77930SOL    HW235688   7.178  10.513  13.836
77931SOL     OW35689   9.179   5.598   6.137
77931SOL    HW135690   9.111   5.530   6.137
77931SOL    HW235691   9.164   5.648   6.057
77932SOL     OW35692  11.228   3.823   0.307
77932SOL    HW135693  11.268   3.846   0.223
77932SOL    HW235694  11.144   3.784   0.282
77933SOL     OW35695   1.624   0.983   1.799
77933SOL    HW135696   1.540   0.943   1.778
77933SOL    HW235697   1.633   0.972   1.894
77934SOL     OW35698   9.466   4.452  11.225
77934SOL    HW135699   9.538   4.439  11.286
77934SOL    HW235700   9.507   4.453  11.139
77935SOL     OW35701   8.066   5.901  11.593
77935SOL    HW135702   7.989   5.904  11.536
77935SOL    HW235703   8.138   5.929  11.537
77936SOL     OW35704  13.965   6.373  11.608
77936SOL    HW135705  13.934   6.420  11.685
77936SOL    HW235706  13.908   6.295  11.604
77937SOL     OW35707   7.712   8.913   8.678
77937SOL    HW135708   7.676   8.888   8.763
77937SOL    HW235709   7.635   8.927   8.623
77938SOL     OW35710   1.960   2.459  13.200
77938SOL    HW135711   1.990   2.519  13.131
77938SOL    HW235712   2.024   2.469  13.270
77939SOL     OW35713  13.417  14.482   9.462
77939SOL    HW135714  13.390  14.543   9.393
77939SOL    HW235715  13.504  14.452   9.435
77940SOL     OW35716   8.929   1.826   9.124
77940SOL    HW135717   9.010   1.852   9.166
77940SOL    HW235718   8.929   1.874   9.041
77941SOL     OW35719  11.916  13.383   1.267
77941SOL    HW135720  11.849  13.441   1.229
77941SOL    HW235721  11.942  13.427   1.348
77942SOL     OW35722   3.836   5.642  14.406
77942SOL    HW135723   3.904   5.627  14.341
77942SOL    HW235724   3.861   5.587  14.480
77943SOL     OW35725  11.945   4.760  14.743
77943SOL    HW135726  11.977   4.825  14.680
77943SOL    HW235727  11.921   4.685  14.689
77944SOL     OW35728   7.556   5.643  13.906
77944SOL    HW135729   7.610   5.716  13.933
77944SOL    HW235730   7.610   5.594  13.844
77945SOL     OW35731   3.981   6.165   6.116
77945SOL    HW135732   3.930   6.127   6.188
77945SOL    HW235733   4.072   6.155   6.143
77946SOL     OW35734   7.608   4.061   3.164
77946SOL    HW135735   7.635   4.113   3.239
77946SOL    HW235736   7.517   4.037   3.183
77947SOL     OW35737   7.825   7.119  12.887
77947SOL    HW135738   7.786   7.056  12.827
77947SOL    HW235739   7.760   7.190  12.893
77948SOL     OW35740   6.750  13.536  12.074
77948SOL    HW135741   6.701  13.596  12.129
77948SOL    HW235742   6.774  13.463  12.132
77949SOL     OW35743   9.696   3.301  10.008
77949SOL    HW135744   9.749   3.366   9.962
77949SOL    HW235745   9.607   3.336  10.004
77950SOL     OW35746   2.970   9.298   2.766
77950SOL    HW135747   3.052   9.254   2.739
77950SOL    HW235748   2.918   9.228   2.806
77951SOL     OW35749  11.504   0.460   5.878
77951SOL    HW135750  11.496   0.467   5.973
77951SOL    HW235751  11.413   0.458   5.846
77952SOL     OW35752  11.679  14.858   2.171
77952SOL    HW135753  11.754  14.868   2.229
77952SOL    HW235754  11.604  14.853   2.230
77953SOL     OW35755  10.165  12.616  10.236
77953SOL    HW135756  10.125  12.594  10.152
77953SOL    HW235757  10.210  12.699  10.221
77954SOL     OW35758   2.076  13.915   5.969
77954SOL    HW135759   2.080  13.870   5.885
77954SOL    HW235760   2.021  13.992   5.952
77955SOL     OW35761   8.169   4.089   9.424
77955SOL    HW135762   8.081   4.105   9.389
77955SOL    HW235763   8.220   4.060   9.348
77956SOL     OW35764   9.075   8.575   0.042
77956SOL    HW135765   9.021   8.595   0.118
77956SOL    HW235766   9.034   8.623  14.857
77957SOL     OW35767   1.733   6.973   0.096
77957SOL    HW135768   1.673   7.046   0.081
77957SOL    HW235769   1.737   6.965   0.192
77958SOL     OW35770   5.386   1.250   7.022
77958SOL    HW135771   5.474   1.273   6.993
77958SOL    HW235772   5.360   1.178   6.965
77959SOL     OW35773   0.104  10.474   6.655
77959SOL    HW135774   0.190  10.517   6.655
77959SOL    HW235775   0.061  10.506   6.576
77960SOL     OW35776  13.075   6.288  10.924
77960SOL    HW135777  13.131   6.249  10.858
77960SOL    HW235778  13.120   6.273  11.007
77961SOL     OW35779   1.630  11.485   5.125
77961SOL    HW135780   1.667  11.494   5.213
77961SOL    HW235781   1.666  11.558   5.076
77962SOL     OW35782  10.429   8.052   3.485
77962SOL    HW135783  10.439   8.022   3.395
77962SOL    HW235784  10.388   8.138   3.478
77963SOL     OW35785   5.662   6.113   1.020
77963SOL    HW135786   5.729   6.056   0.983
77963SOL    HW235787   5.642   6.074   1.106
77964SOL     OW35788   2.663   0.902   2.373
77964SOL    HW135789   2.729   0.967   2.348
77964SOL    HW235790   2.584   0.954   2.389
77965SOL     OW35791   5.853   1.542   4.772
77965SOL    HW135792   5.901   1.463   4.745
77965SOL    HW235793   5.807   1.570   4.693
77966SOL     OW35794  14.459   8.163  10.295
77966SOL    HW135795  14.492   8.206  10.374
77966SOL    HW235796  14.372   8.132  10.320
77967SOL     OW35797  12.186  13.537  13.678
77967SOL    HW135798  12.221  13.449  13.666
77967SOL    HW235799  12.102  13.523  13.722
77968SOL     OW35800  10.880  14.620   8.042
77968SOL    HW135801  10.934  14.630   7.963
77968SOL    HW235802  10.882  14.706   8.083
77969SOL     OW35803   3.463   1.409   3.647
77969SOL    HW135804   3.409   1.390   3.571
77969SOL    HW235805   3.436   1.497   3.674
77970SOL     OW35806  12.753  14.021  11.572
77970SOL    HW135807  12.662  14.041  11.594
77970SOL    HW235808  12.803  14.095  11.607
77971SOL     OW35809   2.989  11.904  14.118
77971SOL    HW135810   2.988  11.809  14.134
77971SOL    HW235811   3.000  11.942  14.205
77972SOL     OW35812   4.328   0.215   6.466
77972SOL    HW135813   4.381   0.151   6.513
77972SOL    HW235814   4.352   0.299   6.504
77973SOL     OW35815   8.140   1.549   7.532
77973SOL    HW135816   8.069   1.574   7.473
77973SOL    HW235817   8.176   1.469   7.493
77974SOL     OW35818  13.757   1.528  13.856
77974SOL    HW135819  13.706   1.447  13.860
77974SOL    HW235820  13.739   1.572  13.939
77975SOL     OW35821  13.639  12.733   9.378
77975SOL    HW135822  13.687  12.650   9.372
77975SOL    HW235823  13.649  12.773   9.291
77976SOL     OW35824  11.716   6.637   3.920
77976SOL    HW135825  11.695   6.567   3.858
77976SOL    HW235826  11.812   6.640   3.921
77977SOL     OW35827   5.315  12.165   2.857
77977SOL    HW135828   5.235  12.180   2.907
77977SOL    HW235829   5.323  12.070   2.853
77978SOL     OW35830   9.351   4.433   7.770
77978SOL    HW135831   9.294   4.361   7.797
77978SOL    HW235832   9.323   4.454   7.681
77979SOL     OW35833  13.299   5.499  11.984
77979SOL    HW135834  13.357   5.487  11.908
77979SOL    HW235835  13.354   5.544  12.048
77980SOL     OW35836  11.316   7.470  11.693
77980SOL    HW135837  11.387   7.533  11.705
77980SOL    HW235838  11.338   7.425  11.611
77981SOL     OW35839  10.579   5.480  10.821
77981SOL    HW135840  10.501   5.532  10.801
77981SOL    HW235841  10.552   5.390  10.806
77982SOL     OW35842   5.870   6.452  14.781
77982SOL    HW135843   5.900   6.542  14.780
77982SOL    HW235844   5.939   6.403  14.737
77983SOL     OW35845   0.090   4.920   6.123
77983SOL    HW135846   0.148   4.846   6.139
77983SOL    HW235847   0.060   4.948   6.210
77984SOL     OW35848   3.232   3.522   9.620
77984SOL    HW135849   3.241   3.547   9.712
77984SOL    HW235850   3.138   3.529   9.602
77985SOL     OW35851  13.133   5.259   8.403
77985SOL    HW135852  13.159   5.172   8.434
77985SOL    HW235853  13.176   5.268   8.318
77986SOL     OW35854  11.781   8.776  14.516
77986SOL    HW135855  11.794   8.786  14.421
77986SOL    HW235856  11.850   8.716  14.544
77987SOL     OW35857  10.704   7.551  13.742
77987SOL    HW135858  10.738   7.558  13.653
77987SOL    HW235859  10.687   7.457  13.753
77988SOL     OW35860   9.929   0.949  13.210
77988SOL    HW135861   9.969   1.020  13.161
77988SOL    HW235862   9.883   0.992  13.282
77989SOL     OW35863   7.057   4.746   9.848
77989SOL    HW135864   7.069   4.794   9.930
77989SOL    HW235865   7.145   4.734   9.813
77990SOL     OW35866   6.096  10.040   1.219
77990SOL    HW135867   6.165  10.081   1.167
77990SOL    HW235868   6.036  10.111   1.239
77991SOL     OW35869  10.644  14.700   1.789
77991SOL    HW135870  10.635  14.688   1.694
77991SOL    HW235871  10.657  14.612   1.823
77992SOL     OW35872  14.133  10.711   9.837
77992SOL    HW135873  14.163  10.682   9.923
77992SOL    HW235874  14.074  10.784   9.855
77993SOL     OW35875   4.445  11.372   8.344
77993SOL    HW135876   4.448  11.383   8.249
77993SOL    HW235877   4.509  11.304   8.362
77994SOL     OW35878   1.850  10.912  10.886
77994SOL    HW135879   1.888  10.828  10.910
77994SOL    HW235880   1.756  10.894  10.876
77995SOL     OW35881   6.138   7.523   8.496
77995SOL    HW135882   6.223   7.503   8.535
77995SOL    HW235883   6.074   7.489   8.559
77996SOL     OW35884   2.124   3.048  14.680
77996SOL    HW135885   2.053   2.993  14.715
77996SOL    HW235886   2.120   3.034  14.586
77997SOL     OW35887  11.347  13.661   6.069
77997SOL    HW135888  11.405  13.669   5.993
77997SOL    HW235889  11.282  13.730   6.057
77998SOL     OW35890  14.233   0.263   4.016
77998SOL    HW135891  14.224   0.296   3.926
77998SOL    HW235892  14.166   0.195   4.024
77999SOL     OW35893   3.794   5.708  11.179
77999SOL    HW135894   3.786   5.636  11.116
77999SOL    HW235895   3.867   5.760  11.147
78000SOL     OW35896   3.099  10.274   5.458
78000SOL    HW135897   3.081  10.363   5.486
78000SOL    HW235898   3.190  10.276   5.428
78001SOL     OW35899   7.430   7.234  13.879
78001SOL    HW135900   7.464   7.233  13.789
78001SOL    HW235901   7.355   7.174  13.877
78002SOL     OW35902   3.173   5.365  12.243
78002SOL    HW135903   3.175   5.453  12.282
78002SOL    HW235904   3.145   5.380  12.153
78003SOL     OW35905   7.046   1.417   1.049
78003SOL    HW135906   7.067   1.378   0.964
78003SOL    HW235907   7.125   1.467   1.072
78004SOL     OW35908   2.116   4.129   6.152
78004SOL    HW135909   2.089   4.093   6.237
78004SOL    HW235910   2.188   4.072   6.124
78005SOL     OW35911  11.022  11.437   4.932
78005SOL    HW135912  10.977  11.518   4.957
78005SOL    HW235913  11.091  11.427   4.997
78006SOL     OW35914   5.744   9.082  13.594
78006SOL    HW135915   5.829   9.050  13.564
78006SOL    HW235916   5.765   9.145  13.663
78007SOL     OW35917  13.264   5.607   8.257
78007SOL    HW135918  13.185   5.560   8.284
78007SOL    HW235919  13.334   5.542   8.262
78008SOL     OW35920   3.705   3.545   5.513
78008SOL    HW135921   3.790   3.578   5.542
78008SOL    HW235922   3.711   3.450   5.522
78009SOL     OW35923   6.330  12.819   5.882
78009SOL    HW135924   6.306  12.857   5.967
78009SOL    HW235925   6.283  12.873   5.818
78010SOL     OW35926   5.732   9.496   6.634
78010SOL    HW135927   5.734   9.525   6.542
78010SOL    HW235928   5.818   9.458   6.649
78011SOL     OW35929   4.006   4.660   3.014
78011SOL    HW135930   4.066   4.732   2.997
78011SOL    HW235931   4.044   4.613   3.087
78012SOL     OW35932   7.280  11.313   1.071
78012SOL    HW135933   7.367  11.274   1.081
78012SOL    HW235934   7.233  11.251   1.015
78013SOL     OW35935  11.644   2.538  10.722
78013SOL    HW135936  11.668   2.587  10.801
78013SOL    HW235937  11.560   2.576  10.696
78014SOL     OW35938   0.245  14.173   5.822
78014SOL    HW135939   0.209  14.084   5.829
78014SOL    HW235940   0.332  14.160   5.785
78015SOL     OW35941  11.630   9.289   1.669
78015SOL    HW135942  11.576   9.213   1.649
78015SOL    HW235943  11.678   9.307   1.588
78016SOL     OW35944   7.326   2.797   9.502
78016SOL    HW135945   7.369   2.763   9.424
78016SOL    HW235946   7.233   2.782   9.488
78017SOL     OW35947   4.871   2.914   7.910
78017SOL    HW135948   4.881   2.851   7.839
78017SOL    HW235949   4.821   2.867   7.977
78018SOL     OW35950   8.496  14.217   8.199
78018SOL    HW135951   8.587  14.225   8.168
78018SOL    HW235952   8.477  14.124   8.193
78019SOL     OW35953   6.362  11.620   8.113
78019SOL    HW135954   6.353  11.553   8.045
78019SOL    HW235955   6.272  11.638   8.140
78020SOL     OW35956  12.890  12.159   2.299
78020SOL    HW135957  12.807  12.203   2.318
78020SOL    HW235958  12.914  12.118   2.383
78021SOL     OW35959   5.242   7.567   2.686
78021SOL    HW135960   5.231   7.472   2.677
78021SOL    HW235961   5.205   7.588   2.772
78022SOL     OW35962   5.917  12.218   9.602
78022SOL    HW135963   5.911  12.123   9.607
78022SOL    HW235964   5.952  12.236   9.515
78023SOL     OW35965  12.354   0.843   2.229
78023SOL    HW135966  12.443   0.809   2.225
78023SOL    HW235967  12.356   0.923   2.176
78024SOL     OW35968  11.554   5.437   4.444
78024SOL    HW135969  11.460   5.419   4.449
78024SOL    HW235970  11.595   5.363   4.489
78025SOL     OW35971   6.091  10.172   6.955
78025SOL    HW135972   6.177  10.154   6.993
78025SOL    HW235973   6.038  10.204   7.028
78026SOL     OW35974  14.494   1.132  14.004
78026SOL    HW135975  14.500   1.045  14.044
78026SOL    HW235976  14.548   1.188  14.060
78027SOL     OW35977   8.973  12.161  10.717
78027SOL    HW135978   8.930  12.142  10.634
78027SOL    HW235979   8.945  12.091  10.775
78028SOL     OW35980   3.687  11.138  13.012
78028SOL    HW135981   3.781  11.153  13.021
78028SOL    HW235982   3.680  11.047  12.982
78029SOL     OW35983   4.755   0.210   1.652
78029SOL    HW135984   4.748   0.289   1.706
78029SOL    HW235985   4.768   0.139   1.716
78030SOL     OW35986  12.104   3.955   5.099
78030SOL    HW135987  12.079   3.970   5.190
78030SOL    HW235988  12.032   3.991   5.048
78031SOL     OW35989   7.976   6.638   5.334
78031SOL    HW135990   8.062   6.681   5.333
78031SOL    HW235991   7.935   6.666   5.251
78032SOL     OW35992   1.501  10.840   3.506
78032SOL    HW135993   1.437  10.800   3.448
78032SOL    HW235994   1.450  10.872   3.580
78033SOL     OW35995   4.016   9.152  13.926
78033SOL    HW135996   4.061   9.068  13.935
78033SOL    HW235997   4.072   9.204  13.869
78034SOL     OW35998   1.115   2.428   0.258
78034SOL    HW135999   1.136   2.380   0.178
78034SOL    HW236000   1.127   2.520   0.235
78035SOL     OW36001  11.608   0.739  14.570
78035SOL    HW136002  11.658   0.764  14.648
78035SOL    HW236003  11.673   0.738  14.499
78036SOL     OW36004   7.043  14.433   7.023
78036SOL    HW136005   7.126  14.388   7.009
78036SOL    HW236006   7.050  14.513   6.971
78037SOL     OW36007   5.247   1.298   6.567
78037SOL    HW136008   5.176   1.359   6.586
78037SOL    HW236009   5.327   1.350   6.577
78038SOL     OW36010   4.544   2.713   1.150
78038SOL    HW136011   4.573   2.674   1.068
78038SOL    HW236012   4.466   2.664   1.174
78039SOL     OW36013  12.938  11.201  11.349
78039SOL    HW136014  12.990  11.215  11.427
78039SOL    HW236015  12.994  11.229  11.277
78040SOL     OW36016   6.891   3.053   7.586
78040SOL    HW136017   6.947   2.975   7.580
78040SOL    HW236018   6.927   3.103   7.660
78041SOL     OW36019   3.611  10.248  10.418
78041SOL    HW136020   3.529  10.216  10.380
78041SOL    HW236021   3.652  10.170  10.456
78042SOL     OW36022   6.075   9.373   7.100
78042SOL    HW136023   6.064   9.283   7.132
78042SOL    HW236024   6.014   9.379   7.026
78043SOL     OW36025   3.798   5.093   2.453
78043SOL    HW136026   3.886   5.113   2.483
78043SOL    HW236027   3.742   5.111   2.529
78044SOL     OW36028   2.161   5.344   3.903
78044SOL    HW136029   2.184   5.251   3.904
78044SOL    HW236030   2.075   5.347   3.863
78045SOL     OW36031  13.439   5.067   0.581
78045SOL    HW136032  13.468   5.078   0.672
78045SOL    HW236033  13.518   5.078   0.529
78046SOL     OW36034  11.063   5.486   0.232
78046SOL    HW136035  11.156   5.499   0.252
78046SOL    HW236036  11.052   5.391   0.227
78047SOL     OW36037   5.056  11.248   1.570
78047SOL    HW136038   5.026  11.236   1.660
78047SOL    HW236039   5.148  11.219   1.571
78048SOL     OW36040   2.173   6.134  10.153
78048SOL    HW136041   2.111   6.062  10.149
78048SOL    HW236042   2.233   6.118  10.080
78049SOL     OW36043   6.305   9.541  11.867
78049SOL    HW136044   6.368   9.595  11.914
78049SOL    HW236045   6.342   9.453  11.871
78050SOL     OW36046   0.708  14.199   9.822
78050SOL    HW136047   0.786  14.145   9.834
78050SOL    HW236048   0.700  14.207   9.727
78051SOL     OW36049  11.137   5.261   2.348
78051SOL    HW136050  11.194   5.298   2.281
78051SOL    HW236051  11.091   5.336   2.385
78052SOL     OW36052  13.211   2.365   2.639
78052SOL    HW136053  13.183   2.299   2.703
78052SOL    HW236054  13.133   2.417   2.621
78053SOL     OW36055  14.742   6.143   9.638
78053SOL    HW136056  14.705   6.219   9.593
78053SOL    HW236057  14.830   6.171   9.663
78054SOL     OW36058   6.904  13.633   8.188
78054SOL    HW136059   6.869  13.720   8.169
78054SOL    HW236060   6.838  13.572   8.156
78055SOL     OW36061   7.120  12.986   9.682
78055SOL    HW136062   7.136  12.897   9.650
78055SOL    HW236063   7.161  13.043   9.617
78056SOL     OW36064  12.966   8.251   0.350
78056SOL    HW136065  13.054   8.214   0.340
78056SOL    HW236066  12.916   8.181   0.392
78057SOL     OW36067   0.703   0.844   2.091
78057SOL    HW136068   0.774   0.813   2.035
78057SOL    HW236069   0.626   0.845   2.035
78058SOL     OW36070  13.613   8.093   6.110
78058SOL    HW136071  13.550   8.088   6.038
78058SOL    HW236072  13.632   8.187   6.119
78059SOL     OW36073   3.700  13.858   9.532
78059SOL    HW136074   3.654  13.885   9.611
78059SOL    HW236075   3.714  13.938   9.483
78060SOL     OW36076  14.165   9.496  12.735
78060SOL    HW136077  14.116   9.432  12.786
78060SOL    HW236078  14.106   9.570  12.724
78061SOL     OW36079  10.118   5.190   9.652
78061SOL    HW136080  10.028   5.219   9.643
78061SOL    HW236081  10.140   5.153   9.566
78062SOL     OW36082   9.122   4.572   5.049
78062SOL    HW136083   9.136   4.546   4.957
78062SOL    HW236084   9.135   4.667   5.049
78063SOL     OW36085   2.063  11.880  11.374
78063SOL    HW136086   2.135  11.905  11.433
78063SOL    HW236087   2.031  11.797  11.410
78064SOL     OW36088   2.666  13.688   4.294
78064SOL    HW136089   2.592  13.723   4.344
78064SOL    HW236090   2.632  13.607   4.255
78065SOL     OW36091   7.363   3.461   6.429
78065SOL    HW136092   7.350   3.555   6.419
78065SOL    HW236093   7.418   3.436   6.355
78066SOL     OW36094   7.189   8.880  13.792
78066SOL    HW136095   7.214   8.803  13.740
78066SOL    HW236096   7.110   8.852  13.839
78067SOL     OW36097   2.672   0.851   9.299
78067SOL    HW136098   2.633   0.882   9.381
78067SOL    HW236099   2.616   0.778   9.273
78068SOL     OW36100   8.507   8.074  14.527
78068SOL    HW136101   8.590   8.065  14.480
78068SOL    HW236102   8.440   8.072  14.458
78069SOL     OW36103  11.494   1.678   2.036
78069SOL    HW136104  11.500   1.592   1.995
78069SOL    HW236105  11.573   1.724   2.006
78070SOL     OW36106   6.771   0.775   4.532
78070SOL    HW136107   6.834   0.824   4.587
78070SOL    HW236108   6.689   0.822   4.543
78071SOL     OW36109  13.568  11.624  14.849
78071SOL    HW136110  13.497  11.580   0.009
78071SOL    HW236111  13.567  11.583  14.762
78072SOL     OW36112   7.078   4.548   5.771
78072SOL    HW136113   7.042   4.613   5.831
78072SOL    HW236114   7.116   4.600   5.700
78073SOL     OW36115   6.225  14.576   3.017
78073SOL    HW136116   6.179  14.660   3.031
78073SOL    HW236117   6.204  14.525   3.095
78074SOL     OW36118   8.763  14.593  14.533
78074SOL    HW136119   8.824  14.641  14.589
78074SOL    HW236120   8.783  14.624  14.444
78075SOL     OW36121   8.008   9.261  11.761
78075SOL    HW136122   8.004   9.182  11.706
78075SOL    HW236123   8.101   9.284  11.763
78076SOL     OW36124   6.913  12.368   9.799
78076SOL    HW136125   6.960  12.289   9.824
78076SOL    HW236126   6.821  12.341   9.794
78077SOL     OW36127  14.673   8.736   5.521
78077SOL    HW136128  14.676   8.818   5.472
78077SOL    HW236129  14.727   8.675   5.470
78078SOL     OW36130  11.165  13.867   6.099
78078SOL    HW136131  11.124  13.873   6.186
78078SOL    HW236132  11.147  13.952   6.059
78079SOL     OW36133   6.131  11.305   8.623
78079SOL    HW136134   6.047  11.347   8.642
78079SOL    HW236135   6.196  11.371   8.645
78080SOL     OW36136   6.432   4.330   3.635
78080SOL    HW136137   6.505   4.302   3.691
78080SOL    HW236138   6.356   4.329   3.693
78081SOL     OW36139   2.499   1.193  12.480
78081SOL    HW136140   2.488   1.272  12.533
78081SOL    HW236141   2.444   1.127  12.524
78082SOL     OW36142  13.924   3.884  12.644
78082SOL    HW136143  13.885   3.963  12.608
78082SOL    HW236144  14.012   3.911  12.671
78083SOL     OW36145  14.544   3.888   0.167
78083SOL    HW136146  14.464   3.897   0.219
78083SOL    HW236147  14.607   3.946   0.208
78084SOL     OW36148   3.007  14.671   9.380
78084SOL    HW136149   2.912  14.680   9.380
78084SOL    HW236150   3.037  14.740   9.440
78085SOL     OW36151  13.838   9.009  13.847
78085SOL    HW136152  13.842   9.105  13.843
78085SOL    HW236153  13.746   8.989  13.830
78086SOL     OW36154   1.341   4.827  14.747
78086SOL    HW136155   1.354   4.772  14.824
78086SOL    HW236156   1.381   4.778  14.675
78087SOL     OW36157   8.843  11.471   6.602
78087SOL    HW136158   8.784  11.419   6.547
78087SOL    HW236159   8.922  11.481   6.549
78088SOL     OW36160   6.692  10.326   2.333
78088SOL    HW136161   6.622  10.267   2.305
78088SOL    HW236162   6.672  10.409   2.291
78089SOL     OW36163   3.613   3.106  10.014
78089SOL    HW136164   3.624   3.182   9.957
78089SOL    HW236165   3.632   3.030   9.959
78090SOL     OW36166   0.570   5.873   0.306
78090SOL    HW136167   0.638   5.926   0.347
78090SOL    HW236168   0.495   5.932   0.298
78091SOL     OW36169   2.125   4.621  12.162
78091SOL    HW136170   2.049   4.661  12.119
78091SOL    HW236171   2.142   4.541  12.111
78092SOL     OW36172   4.832  13.044   5.904
78092SOL    HW136173   4.873  13.033   5.818
78092SOL    HW236174   4.796  12.958   5.925
78093SOL     OW36175   0.979   6.915   9.593
78093SOL    HW136176   0.990   6.973   9.668
78093SOL    HW236177   0.914   6.851   9.621
78094SOL     OW36178   0.092   4.257  10.168
78094SOL    HW136179   0.080   4.188  10.102
78094SOL    HW236180   0.008   4.261  10.213
78095SOL     OW36181  14.270  14.747   5.816
78095SOL    HW136182  14.188  14.793   5.831
78095SOL    HW236183  14.311  14.742   5.903
78096SOL     OW36184   2.349   8.152   4.256
78096SOL    HW136185   2.339   8.119   4.167
78096SOL    HW236186   2.300   8.234   4.256
78097SOL     OW36187  13.905   1.663  11.637
78097SOL    HW136188  13.981   1.680  11.693
78097SOL    HW236189  13.917   1.573  11.607
78098SOL     OW36190   6.125   0.770  10.336
78098SOL    HW136191   6.118   0.717  10.257
78098SOL    HW236192   6.094   0.713  10.407
78099SOL     OW36193  13.650   2.865   5.531
78099SOL    HW136194  13.566   2.833   5.564
78099SOL    HW236195  13.708   2.862   5.607
78100SOL     OW36196  11.875  12.280   2.380
78100SOL    HW136197  11.924  12.258   2.459
78100SOL    HW236198  11.802  12.335   2.412
78101SOL     OW36199   7.624   1.945  11.091
78101SOL    HW136200   7.633   1.855  11.059
78101SOL    HW236201   7.707   1.963  11.134
78102SOL     OW36202   1.662  14.277   2.070
78102SOL    HW136203   1.611  14.232   2.138
78102SOL    HW236204   1.666  14.214   1.998
78103SOL     OW36205  12.316   8.580   4.543
78103SOL    HW136206  12.401   8.548   4.513
78103SOL    HW236207  12.266   8.501   4.563
78104SOL     OW36208   6.720  14.693   3.974
78104SOL    HW136209   6.734  14.779   3.935
78104SOL    HW236210   6.703  14.635   3.899
78105SOL     OW36211   1.144   3.883  14.216
78105SOL    HW136212   1.143   3.841  14.130
78105SOL    HW236213   1.147   3.977  14.197
78106SOL     OW36214  12.349   5.501  11.082
78106SOL    HW136215  12.285   5.502  11.153
78106SOL    HW236216  12.356   5.593  11.055
78107SOL     OW36217   5.327   0.964   9.355
78107SOL    HW136218   5.244   0.942   9.398
78107SOL    HW236219   5.382   0.887   9.369
78108SOL     OW36220   9.521   2.723   6.243
78108SOL    HW136221   9.595   2.744   6.187
78108SOL    HW236222   9.497   2.805   6.285
78109SOL     OW36223   7.897  13.653   5.786
78109SOL    HW136224   7.989  13.629   5.793
78109SOL    HW236225   7.853  13.571   5.762
78110SOL     OW36226   5.263   6.303   7.349
78110SOL    HW136227   5.307   6.358   7.414
78110SOL    HW236228   5.171   6.302   7.376
78111SOL     OW36229  12.892  14.832   0.410
78111SOL    HW136230  12.942  14.804   0.487
78111SOL    HW236231  12.801  14.820   0.435
78112SOL     OW36232   0.150  13.212   7.250
78112SOL    HW136233   0.110  13.259   7.324
78112SOL    HW236234   0.089  13.224   7.178
78113SOL     OW36235   2.672  10.942   8.746
78113SOL    HW136236   2.745  10.949   8.684
78113SOL    HW236237   2.686  10.859   8.791
78114SOL     OW36238   4.080  11.386  13.052
78114SOL    HW136239   3.997  11.408  13.011
78114SOL    HW236240   4.056  11.354  13.139
78115SOL     OW36241   2.797   2.187   5.692
78115SOL    HW136242   2.727   2.160   5.633
78115SOL    HW236243   2.814   2.278   5.668
78116SOL     OW36244   2.514   5.373  12.812
78116SOL    HW136245   2.533   5.391  12.720
78116SOL    HW236246   2.589   5.320  12.842
78117SOL     OW36247  12.429   7.584   4.705
78117SOL    HW136248  12.470   7.578   4.619
78117SOL    HW236249  12.351   7.529   4.699
78118SOL     OW36250   5.251   8.429  11.756
78118SOL    HW136251   5.254   8.524  11.748
78118SOL    HW236252   5.217   8.399  11.672
78119SOL     OW36253  13.034   4.794  14.704
78119SOL    HW136254  12.964   4.751  14.753
78119SOL    HW236255  13.023   4.887  14.723
78120SOL     OW36256  10.864   4.395  12.525
78120SOL    HW136257  10.895   4.308  12.551
78120SOL    HW236258  10.882   4.451  12.600
78121SOL     OW36259   9.008   9.145   1.825
78121SOL    HW136260   9.057   9.071   1.860
78121SOL    HW236261   9.070   9.219   1.831
78122SOL     OW36262   4.752   2.477   7.919
78122SOL    HW136263   4.769   2.387   7.893
78122SOL    HW236264   4.662   2.477   7.953
78123SOL     OW36265  14.324   3.933  13.418
78123SOL    HW136266  14.313   3.997  13.348
78123SOL    HW236267  14.306   3.981  13.499
78124SOL     OW36268   6.860   6.481  12.058
78124SOL    HW136269   6.840   6.544  11.988
78124SOL    HW236270   6.948   6.506  12.088
78125SOL     OW36271   8.519   3.402  11.759
78125SOL    HW136272   8.608   3.412  11.726
78125SOL    HW236273   8.463   3.419  11.683
78126SOL     OW36274   7.906   9.880   6.823
78126SOL    HW136275   7.917   9.901   6.730
78126SOL    HW236276   7.970   9.812   6.840
78127SOL     OW36277   3.114   5.704   2.520
78127SOL    HW136278   3.173   5.743   2.585
78127SOL    HW236279   3.159   5.623   2.494
78128SOL     OW36280  12.470   4.221   1.292
78128SOL    HW136281  12.550   4.179   1.263
78128SOL    HW236282  12.489   4.315   1.291
78129SOL     OW36283   5.381   8.133   3.952
78129SOL    HW136284   5.451   8.192   3.921
78129SOL    HW236285   5.419   8.045   3.945
78130SOL     OW36286   0.464   9.390   8.568
78130SOL    HW136287   0.547   9.382   8.615
78130SOL    HW236288   0.425   9.303   8.572
78131SOL     OW36289   0.683   4.465   3.363
78131SOL    HW136290   0.632   4.455   3.282
78131SOL    HW236291   0.645   4.542   3.406
78132SOL     OW36292   1.158  13.011   5.719
78132SOL    HW136293   1.075  13.054   5.697
78132SOL    HW236294   1.146  12.981   5.809
78133SOL     OW36295   2.328   4.434   2.119
78133SOL    HW136296   2.333   4.366   2.051
78133SOL    HW236297   2.247   4.413   2.167
78134SOL     OW36298   9.453  10.556  12.118
78134SOL    HW136299   9.405  10.482  12.154
78134SOL    HW236300   9.421  10.632  12.167
78135SOL     OW36301   1.612   7.106   5.105
78135SOL    HW136302   1.689   7.151   5.071
78135SOL    HW236303   1.609   7.024   5.056
78136SOL     OW36304  12.487   9.528  13.159
78136SOL    HW136305  12.446   9.468  13.221
78136SOL    HW236306  12.572   9.488  13.139
78137SOL     OW36307   7.838   8.083   0.245
78137SOL    HW136308   7.849   8.144   0.171
78137SOL    HW236309   7.832   7.997   0.204
78138SOL     OW36310   7.362   8.407  14.105
78138SOL    HW136311   7.304   8.437  14.175
78138SOL    HW236312   7.376   8.484  14.050
78139SOL     OW36313  11.711   5.597  12.983
78139SOL    HW136314  11.645   5.585  12.915
78139SOL    HW236315  11.765   5.670  12.952
78140SOL     OW36316   4.466  12.439   7.236
78140SOL    HW136317   4.485  12.529   7.211
78140SOL    HW236318   4.378  12.423   7.202
78141SOL     OW36319   1.552   8.991   4.022
78141SOL    HW136320   1.631   9.029   4.060
78141SOL    HW236321   1.511   9.063   3.975
78142SOL     OW36322   1.531  10.291   9.490
78142SOL    HW136323   1.545  10.376   9.448
78142SOL    HW236324   1.540  10.308   9.584
78143SOL     OW36325   0.009   7.801   2.605
78143SOL    HW136326   0.101   7.811   2.581
78143SOL    HW236327   0.011   7.749   2.685
78144SOL     OW36328  14.876   4.508  14.284
78144SOL    HW136329   0.039   4.584  14.313
78144SOL    HW236330  14.865   4.455  14.363
78145SOL     OW36331  10.443   6.445  11.283
78145SOL    HW136332  10.486   6.501  11.348
78145SOL    HW236333  10.377   6.501  11.242
78146SOL     OW36334  13.401   1.399  12.797
78146SOL    HW136335  13.463   1.423  12.866
78146SOL    HW236336  13.382   1.481  12.752
78147SOL     OW36337   3.421   6.641  11.460
78147SOL    HW136338   3.498   6.694  11.481
78147SOL    HW236339   3.377   6.691  11.391
78148SOL     OW36340  13.242  14.160   0.563
78148SOL    HW136341  13.225  14.103   0.488
78148SOL    HW236342  13.169  14.144   0.622
78149SOL     OW36343  11.504   6.920  11.457
78149SOL    HW136344  11.524   6.860  11.529
78149SOL    HW236345  11.432   6.975  11.489
78150SOL     OW36346   1.583  12.485  12.581
78150SOL    HW136347   1.512  12.517  12.637
78150SOL    HW236348   1.647  12.448  12.642
78151SOL     OW36349  12.554  14.282  10.602
78151SOL    HW136350  12.556  14.326  10.687
78151SOL    HW236351  12.472  14.310  10.562
78152SOL     OW36352   7.818   1.334   3.052
78152SOL    HW136353   7.879   1.260   3.046
78152SOL    HW236354   7.875   1.410   3.064
78153SOL     OW36355   6.078   8.596   8.973
78153SOL    HW136356   6.159   8.638   9.003
78153SOL    HW236357   6.009   8.641   9.021
78154SOL     OW36358   5.387   0.659   9.833
78154SOL    HW136359   5.436   0.733   9.866
78154SOL    HW236360   5.300   0.668   9.872
78155SOL     OW36361   7.289   7.432   2.101
78155SOL    HW136362   7.212   7.387   2.067
78155SOL    HW236363   7.362   7.398   2.049
78156SOL     OW36364  11.658   5.280   0.640
78156SOL    HW136365  11.584   5.244   0.689
78156SOL    HW236366  11.640   5.374   0.635
78157SOL     OW36367   4.837   5.941   5.501
78157SOL    HW136368   4.775   5.879   5.539
78157SOL    HW236369   4.827   5.931   5.406
78158SOL     OW36370  14.231   9.950   3.885
78158SOL    HW136371  14.245  10.029   3.833
78158SOL    HW236372  14.165   9.976   3.950
78159SOL     OW36373  13.754  11.111  11.949
78159SOL    HW136374  13.837  11.071  11.922
78159SOL    HW236375  13.712  11.137  11.867
78160SOL     OW36376   5.594  14.014   9.380
78160SOL    HW136377   5.501  13.996   9.370
78160SOL    HW236378   5.635  13.928   9.388
78161SOL     OW36379  13.249   3.446   0.877
78161SOL    HW136380  13.240   3.359   0.839
78161SOL    HW236381  13.340   3.471   0.861
78162SOL     OW36382   1.553   2.335   9.979
78162SOL    HW136383   1.470   2.300  10.013
78162SOL    HW236384   1.531   2.423   9.949
78163SOL     OW36385   3.225   4.603   8.134
78163SOL    HW136386   3.178   4.538   8.186
78163SOL    HW236387   3.198   4.584   8.044
78164SOL     OW36388   1.753   5.965   4.139
78164SOL    HW136389   1.726   5.895   4.199
78164SOL    HW236390   1.823   6.010   4.185
78165SOL     OW36391   9.049  13.344   8.886
78165SOL    HW136392   9.090  13.269   8.930
78165SOL    HW236393   9.110  13.365   8.815
78166SOL     OW36394  14.037   4.166   9.780
78166SOL    HW136395  14.045   4.234   9.847
78166SOL    HW236396  13.976   4.103   9.818
78167SOL     OW36397  11.608  12.192   4.629
78167SOL    HW136398  11.613  12.259   4.560
78167SOL    HW236399  11.550  12.229   4.695
78168SOL     OW36400   4.135   0.317   4.627
78168SOL    HW136401   4.141   0.227   4.658
78168SOL    HW236402   4.206   0.363   4.673
78169SOL     OW36403   4.516   3.289   3.938
78169SOL    HW136404   4.527   3.319   3.848
78169SOL    HW236405   4.596   3.314   3.982
78170SOL     OW36406  11.726  14.389  13.721
78170SOL    HW136407  11.632  14.380  13.736
78170SOL    HW236408  11.745  14.480  13.741
78171SOL     OW36409   4.153   7.517   3.277
78171SOL    HW136410   4.204   7.584   3.322
78171SOL    HW236411   4.090   7.486   3.343
78172SOL     OW36412   4.190   9.667   0.653
78172SOL    HW136413   4.266   9.610   0.638
78172SOL    HW236414   4.116   9.607   0.658
78173SOL     OW36415   8.900   8.877   7.738
78173SOL    HW136416   8.944   8.807   7.786
78173SOL    HW236417   8.915   8.955   7.791
78174SOL     OW36418   5.065  11.709  13.219
78174SOL    HW136419   5.082  11.770  13.291
78174SOL    HW236420   5.151  11.692  13.181
78175SOL     OW36421   5.906  10.260   2.395
78175SOL    HW136422   5.842  10.190   2.383
78175SOL    HW236423   5.942  10.244   2.482
78176SOL     OW36424  12.590  11.406   1.618
78176SOL    HW136425  12.549  11.439   1.539
78176SOL    HW236426  12.674  11.453   1.623
78177SOL     OW36427  13.981  12.384   5.116
78177SOL    HW136428  13.892  12.367   5.148
78177SOL    HW236429  14.023  12.432   5.187
78178SOL     OW36430   9.443   4.822   4.477
78178SOL    HW136431   9.415   4.791   4.563
78178SOL    HW236432   9.405   4.909   4.469
78179SOL     OW36433   8.775  14.583   3.536
78179SOL    HW136434   8.802  14.651   3.475
78179SOL    HW236435   8.828  14.507   3.512
78180SOL     OW36436   8.717  10.763  11.949
78180SOL    HW136437   8.748  10.676  11.926
78180SOL    HW236438   8.628  10.750  11.982
78181SOL     OW36439  13.544   0.260  11.766
78181SOL    HW136440  13.636   0.256  11.738
78181SOL    HW236441  13.540   0.197  11.839
78182SOL     OW36442   0.970  10.686  14.392
78182SOL    HW136443   1.045  10.679  14.333
78182SOL    HW236444   0.932  10.598  14.392
78183SOL     OW36445  10.784   0.080   0.007
78183SOL    HW136446  10.723   0.013   0.037
78183SOL    HW236447  10.863   0.032  14.870
78184SOL     OW36448   2.406   7.471   4.757
78184SOL    HW136449   2.499   7.449   4.764
78184SOL    HW236450   2.368   7.440   4.840
78185SOL     OW36451   4.534   8.102  10.564
78185SOL    HW136452   4.533   8.198  10.565
78185SOL    HW236453   4.443   8.078  10.544
78186SOL     OW36454   3.447   4.027   8.658
78186SOL    HW136455   3.533   4.060   8.683
78186SOL    HW236456   3.445   3.936   8.689
78187SOL     OW36457  13.370   9.020   0.389
78187SOL    HW136458  13.304   9.026   0.458
78187SOL    HW236459  13.321   9.001   0.309
78188SOL     OW36460  11.246   4.247  11.012
78188SOL    HW136461  11.176   4.278  10.954
78188SOL    HW236462  11.297   4.326  11.031
78189SOL     OW36463   2.365  12.645   6.575
78189SOL    HW136464   2.361  12.713   6.642
78189SOL    HW236465   2.355  12.563   6.622
78190SOL     OW36466   3.939  11.724   4.975
78190SOL    HW136467   3.885  11.803   4.966
78190SOL    HW236468   3.877  11.657   5.004
78191SOL     OW36469   5.293   8.782   1.430
78191SOL    HW136470   5.341   8.707   1.395
78191SOL    HW236471   5.361   8.848   1.446
78192SOL     OW36472  12.669  12.190  10.003
78192SOL    HW136473  12.623  12.140  10.071
78192SOL    HW236474  12.761  12.167  10.014
78193SOL     OW36475  11.003  12.432   0.953
78193SOL    HW136476  11.093  12.415   0.925
78193SOL    HW236477  10.950  12.376   0.897
78194SOL     OW36478   0.976   5.878  13.786
78194SOL    HW136479   0.949   5.933  13.712
78194SOL    HW236480   0.962   5.933  13.863
78195SOL     OW36481   5.982   5.811  10.682
78195SOL    HW136482   6.052   5.814  10.616
78195SOL    HW236483   6.015   5.862  10.755
78196SOL     OW36484   7.347  14.525  14.792
78196SOL    HW136485   7.330  14.602  14.847
78196SOL    HW236486   7.318  14.552  14.705
78197SOL     OW36487   5.871   8.027   4.755
78197SOL    HW136488   5.893   8.055   4.844
78197SOL    HW236489   5.845   8.107   4.710
78198SOL     OW36490   9.311   2.194  12.641
78198SOL    HW136491   9.306   2.199  12.736
78198SOL    HW236492   9.314   2.100  12.621
78199SOL     OW36493   4.600  12.901   4.555
78199SOL    HW136494   4.518  12.930   4.593
78199SOL    HW236495   4.586  12.808   4.533
78200SOL     OW36496   6.042   6.210   0.230
78200SOL    HW136497   6.040   6.138   0.294
78200SOL    HW236498   6.039   6.289   0.282
78201SOL     OW36499   4.352   9.460   0.614
78201SOL    HW136500   4.309   9.376   0.634
78201SOL    HW236501   4.429   9.461   0.671
78202SOL     OW36502   6.734   7.757   1.582
78202SOL    HW136503   6.695   7.843   1.565
78202SOL    HW236504   6.817   7.777   1.626
78203SOL     OW36505  14.761   9.466   6.701
78203SOL    HW136506  14.707   9.497   6.629
78203SOL    HW236507  14.700   9.420   6.759
78204SOL     OW36508   8.099  12.419   6.036
78204SOL    HW136509   8.073  12.361   5.964
78204SOL    HW236510   8.080  12.507   6.004
78205SOL     OW36511  11.890   4.455   1.663
78205SOL    HW136512  11.940   4.510   1.602
78205SOL    HW236513  11.800   4.463   1.634
78206SOL     OW36514   9.531   8.138   0.649
78206SOL    HW136515   9.620   8.134   0.685
78206SOL    HW236516   9.544   8.151   0.555
78207SOL     OW36517  10.499   7.199  12.142
78207SOL    HW136518  10.511   7.160  12.055
78207SOL    HW236519  10.552   7.145  12.200
78208SOL     OW36520   4.872  11.121   9.557
78208SOL    HW136521   4.843  11.107   9.647
78208SOL    HW236522   4.967  11.105   9.559
78209SOL     OW36523   6.382   5.135   5.610
78209SOL    HW136524   6.446   5.132   5.539
78209SOL    HW236525   6.397   5.055   5.659
78210SOL     OW36526   4.239   6.549   7.886
78210SOL    HW136527   4.244   6.638   7.921
78210SOL    HW236528   4.192   6.499   7.953
78211SOL     OW36529  14.758   6.517  12.693
78211SOL    HW136530  14.807   6.436  12.675
78211SOL    HW236531  14.744   6.516  12.788
78212SOL     OW36532  10.528   8.488  11.219
78212SOL    HW136533  10.609   8.493  11.270
78212SOL    HW236534  10.499   8.579  11.212
78213SOL     OW36535   7.733  10.295  11.983
78213SOL    HW136536   7.792  10.309  12.056
78213SOL    HW236537   7.782  10.326  11.906
78214SOL     OW36538  11.096   3.461   5.718
78214SOL    HW136539  11.028   3.498   5.773
78214SOL    HW236540  11.167   3.439   5.778
78215SOL     OW36541  13.551  11.991   9.246
78215SOL    HW136542  13.534  11.963   9.156
78215SOL    HW236543  13.475  12.045   9.269
78216SOL     OW36544   1.440   3.320   8.660
78216SOL    HW136545   1.356   3.275   8.673
78216SOL    HW236546   1.506   3.255   8.685
78217SOL     OW36547   1.788   4.681   7.813
78217SOL    HW136548   1.761   4.766   7.849
78217SOL    HW236549   1.724   4.619   7.847
78218SOL     OW36550   0.228   3.141  13.173
78218SOL    HW136551   0.293   3.071  13.168
78218SOL    HW236552   0.271   3.217  13.135
78219SOL     OW36553  11.292  14.686   2.065
78219SOL    HW136554  11.286  14.619   1.997
78219SOL    HW236555  11.201  14.707   2.087
78220SOL     OW36556   4.192   6.659  13.881
78220SOL    HW136557   4.159   6.721  13.947
78220SOL    HW236558   4.193   6.575  13.926
78221SOL     OW36559  11.240   0.411  10.538
78221SOL    HW136560  11.250   0.329  10.587
78221SOL    HW236561  11.152   0.406  10.502
78222SOL     OW36562   0.852  12.225  12.469
78222SOL    HW136563   0.817  12.284  12.402
78222SOL    HW236564   0.872  12.144  12.423
78223SOL     OW36565   2.339   9.345   9.965
78223SOL    HW136566   2.388   9.415   9.924
78223SOL    HW236567   2.404   9.294  10.013
78224SOL     OW36568  12.572   7.700   5.151
78224SOL    HW136569  12.515   7.722   5.224
78224SOL    HW236570  12.594   7.608   5.163
78225SOL     OW36571  12.045   6.290   5.456
78225SOL    HW136572  12.081   6.211   5.416
78225SOL    HW236573  12.044   6.354   5.385
78226SOL     OW36574  14.077   6.620  12.156
78226SOL    HW136575  14.126   6.586  12.081
78226SOL    HW236576  14.015   6.682  12.118
78227SOL     OW36577   1.367   0.189  14.511
78227SOL    HW136578   1.454   0.201  14.549
78227SOL    HW236579   1.359   0.260  14.446
78228SOL     OW36580  11.507   4.212  13.028
78228SOL    HW136581  11.425   4.254  13.001
78228SOL    HW236582  11.480   4.128  13.065
78229SOL     OW36583   0.699   0.676  10.732
78229SOL    HW136584   0.748   0.627  10.798
78229SOL    HW236585   0.759   0.683  10.658
78230SOL     OW36586   5.376  11.049  11.277
78230SOL    HW136587   5.293  11.090  11.300
78230SOL    HW236588   5.439  11.121  11.274
78231SOL     OW36589   3.378   2.847   5.354
78231SOL    HW136590   3.282   2.851   5.358
78231SOL    HW236591   3.395   2.778   5.289
78232SOL     OW36592   3.838   2.294  10.819
78232SOL    HW136593   3.795   2.302  10.734
78232SOL    HW236594   3.882   2.378  10.831
78233SOL     OW36595  12.490  11.330   8.974
78233SOL    HW136596  12.518  11.257   8.918
78233SOL    HW236597  12.397  11.313   8.990
78234SOL     OW36598   0.719   9.833   0.614
78234SOL    HW136599   0.779   9.866   0.682
78234SOL    HW236600   0.672   9.910   0.584
78235SOL     OW36601  14.089   9.921  14.690
78235SOL    HW136602  14.125   9.972  14.762
78235SOL    HW236603  14.166   9.888  14.643
78236SOL     OW36604  12.468  11.743   8.360
78236SOL    HW136605  12.529  11.680   8.398
78236SOL    HW236606  12.443  11.800   8.434
78237SOL     OW36607  13.865  11.121   3.699
78237SOL    HW136608  13.839  11.159   3.783
78237SOL    HW236609  13.880  11.028   3.719
78238SOL     OW36610   5.392   7.253  14.010
78238SOL    HW136611   5.447   7.175  13.998
78238SOL    HW236612   5.427   7.294  14.089
78239SOL     OW36613   6.417   5.821  13.060
78239SOL    HW136614   6.327   5.809  13.030
78239SOL    HW236615   6.450   5.732  13.073
78240SOL     OW36616   1.431   5.116  14.826
78240SOL    HW136617   1.519   5.098  14.795
78240SOL    HW236618   1.383   5.034  14.813
78241SOL     OW36619  10.886   0.240   4.323
78241SOL    HW136620  10.920   0.176   4.261
78241SOL    HW236621  10.942   0.232   4.400
78242SOL     OW36622   7.597   8.041  10.819
78242SOL    HW136623   7.536   8.052  10.892
78242SOL    HW236624   7.684   8.056  10.857
78243SOL     OW36625  13.365   0.518   9.794
78243SOL    HW136626  13.422   0.581   9.749
78243SOL    HW236627  13.341   0.455   9.726
78244SOL     OW36628   9.935   7.047   6.134
78244SOL    HW136629  10.004   7.102   6.172
78244SOL    HW236630   9.982   6.981   6.084
78245SOL     OW36631   8.412   7.048   8.747
78245SOL    HW136632   8.447   7.039   8.658
78245SOL    HW236633   8.321   7.018   8.740
78246SOL     OW36634  11.382   3.152  12.369
78246SOL    HW136635  11.475   3.132  12.363
78246SOL    HW236636  11.339   3.067  12.371
78247SOL     OW36637   0.841   2.455  12.173
78247SOL    HW136638   0.751   2.464  12.205
78247SOL    HW236639   0.859   2.537  12.128
78248SOL     OW36640   4.340   0.232   9.185
78248SOL    HW136641   4.245   0.227   9.192
78248SOL    HW236642   4.373   0.164   9.243
78249SOL     OW36643  13.882   5.288  13.138
78249SOL    HW136644  13.948   5.283  13.069
78249SOL    HW236645  13.918   5.350  13.201
78250SOL     OW36646   3.522   5.760   9.065
78250SOL    HW136647   3.503   5.794   8.977
78250SOL    HW236648   3.533   5.839   9.119
78251SOL     OW36649   2.962   7.260  14.636
78251SOL    HW136650   2.909   7.204  14.580
78251SOL    HW236651   2.911   7.270  14.716
78252SOL     OW36652  11.508  12.111   9.515
78252SOL    HW136653  11.594  12.139   9.483
78252SOL    HW236654  11.480  12.044   9.452
78253SOL     OW36655   7.988  13.326   7.430
78253SOL    HW136656   7.994  13.397   7.494
78253SOL    HW236657   7.895  13.322   7.407
78254SOL     OW36658   8.847   9.988   8.260
78254SOL    HW136659   8.795   9.932   8.203
78254SOL    HW236660   8.785  10.051   8.296
78255SOL     OW36661   3.751   2.901   1.208
78255SOL    HW136662   3.790   2.818   1.236
78255SOL    HW236663   3.714   2.881   1.121
78256SOL     OW36664  11.673  14.205   4.463
78256SOL    HW136665  11.585  14.231   4.435
78256SOL    HW236666  11.731  14.235   4.393
78257SOL     OW36667   4.181   8.646  13.726
78257SOL    HW136668   4.097   8.613  13.758
78257SOL    HW236669   4.237   8.649  13.804
78258SOL     OW36670   3.044  11.451   3.288
78258SOL    HW136671   3.113  11.473   3.226
78258SOL    HW236672   3.010  11.367   3.258
78259SOL     OW36673   1.036   5.738   6.430
78259SOL    HW136674   1.062   5.648   6.411
78259SOL    HW236675   0.942   5.732   6.449
78260SOL     OW36676   5.200  13.452  13.750
78260SOL    HW136677   5.159  13.511  13.688
78260SOL    HW236678   5.142  13.452  13.826
78261SOL     OW36679   4.310   6.389   0.422
78261SOL    HW136680   4.237   6.450   0.431
78261SOL    HW236681   4.296   6.348   0.336
78262SOL     OW36682  10.892   5.319  12.838
78262SOL    HW136683  10.883   5.325  12.933
78262SOL    HW236684  10.804   5.333  12.804
78263SOL     OW36685  14.271   4.801   4.311
78263SOL    HW136686  14.355   4.777   4.272
78263SOL    HW236687  14.262   4.895   4.293
78264SOL     OW36688   3.979   4.557  13.420
78264SOL    HW136689   3.942   4.471  13.400
78264SOL    HW236690   3.999   4.595  13.334
78265SOL     OW36691   6.235  12.756   4.720
78265SOL    HW136692   6.322  12.772   4.759
78265SOL    HW236693   6.215  12.665   4.743
78266SOL     OW36694   3.143   4.542   8.579
78266SOL    HW136695   3.158   4.630   8.614
78266SOL    HW236696   3.082   4.555   8.507
78267SOL     OW36697  10.130  12.766   7.780
78267SOL    HW136698  10.194  12.832   7.810
78267SOL    HW236699  10.146  12.759   7.685
78268SOL     OW36700   8.999   9.710  10.171
78268SOL    HW136701   8.949   9.741  10.095
78268SOL    HW236702   9.009   9.787  10.226
78269SOL     OW36703   8.425   3.640  10.795
78269SOL    HW136704   8.492   3.664  10.732
78269SOL    HW236705   8.470   3.643  10.880
78270SOL     OW36706   9.736   0.268  10.669
78270SOL    HW136707   9.815   0.221  10.693
78270SOL    HW236708   9.761   0.319  10.592
78271SOL     OW36709  13.661   8.458   3.880
78271SOL    HW136710  13.601   8.492   3.947
78271SOL    HW236711  13.704   8.537   3.845
78272SOL     OW36712   9.466   3.638   8.969
78272SOL    HW136713   9.381   3.680   8.983
78272SOL    HW236714   9.482   3.645   8.875
78273SOL     OW36715  12.200  10.977  12.461
78273SOL    HW136716  12.167  10.888  12.454
78273SOL    HW236717  12.224  11.001  12.372
78274SOL     OW36718  14.843  14.057  11.407
78274SOL    HW136719  14.818  14.127  11.467
78274SOL    HW236720   0.050  14.052  11.415
78275SOL     OW36721   7.969  14.590   3.955
78275SOL    HW136722   7.998  14.640   4.031
78275SOL    HW236723   7.895  14.638   3.920
78276SOL     OW36724  10.806  11.825  13.457
78276SOL    HW136725  10.773  11.812  13.368
78276SOL    HW236726  10.727  11.840  13.509
78277SOL     OW36727   0.150   2.987   8.696
78277SOL    HW136728   0.067   3.014   8.659
78277SOL    HW236729   0.214   3.047   8.658
78278SOL     OW36730   2.642  11.093  11.438
78278SOL    HW136731   2.637  11.174  11.488
78278SOL    HW236732   2.556  11.052  11.450
78279SOL     OW36733   3.437   7.942   6.919
78279SOL    HW136734   3.505   8.009   6.925
78279SOL    HW236735   3.473   7.876   6.861
78280SOL     OW36736   1.913   7.152   6.577
78280SOL    HW136737   1.948   7.066   6.599
78280SOL    HW236738   1.913   7.200   6.659
78281SOL     OW36739   3.098   2.146   2.424
78281SOL    HW136740   3.098   2.070   2.367
78281SOL    HW236741   3.027   2.129   2.487
78282SOL     OW36742   7.453  11.029   5.928
78282SOL    HW136743   7.543  10.998   5.940
78282SOL    HW236744   7.443  11.035   5.833
78283SOL     OW36745  10.620  13.572   3.441
78283SOL    HW136746  10.577  13.487   3.453
78283SOL    HW236747  10.550  13.636   3.453
78284SOL     OW36748  11.833  11.913   0.605
78284SOL    HW136749  11.860  11.824   0.584
78284SOL    HW236750  11.884  11.936   0.682
78285SOL     OW36751  11.871  12.178   8.924
78285SOL    HW136752  11.854  12.251   8.866
78285SOL    HW236753  11.842  12.101   8.876
78286SOL     OW36754   1.097   5.324   9.024
78286SOL    HW136755   1.032   5.259   8.997
78286SOL    HW236756   1.131   5.292   9.107
78287SOL     OW36757   2.348   6.169   4.689
78287SOL    HW136758   2.357   6.080   4.723
78287SOL    HW236759   2.423   6.216   4.725
78288SOL     OW36760   2.920   6.306   4.813
78288SOL    HW136761   2.980   6.305   4.888
78288SOL    HW236762   2.909   6.214   4.789
78289SOL     OW36763  13.244   3.065  13.404
78289SOL    HW136764  13.192   2.994  13.366
78289SOL    HW236765  13.190   3.099  13.476
78290SOL     OW36766   9.089   4.911  11.222
78290SOL    HW136767   9.146   4.977  11.262
78290SOL    HW236768   9.064   4.854  11.294
78291SOL     OW36769   5.008  11.670   2.637
78291SOL    HW136770   5.024  11.648   2.546
78291SOL    HW236771   4.916  11.699   2.639
78292SOL     OW36772   1.780   1.692   3.401
78292SOL    HW136773   1.825   1.680   3.485
78292SOL    HW236774   1.717   1.620   3.398
78293SOL     OW36775   7.720   5.499   6.500
78293SOL    HW136776   7.753   5.460   6.419
78293SOL    HW236777   7.739   5.434   6.568
78294SOL     OW36778   6.554   7.790   3.370
78294SOL    HW136779   6.465   7.756   3.374
78294SOL    HW236780   6.605   7.720   3.330
78295SOL     OW36781   6.032  10.409   4.164
78295SOL    HW136782   6.077  10.429   4.247
78295SOL    HW236783   5.939  10.421   4.184
78296SOL     OW36784   7.273  10.061   0.902
78296SOL    HW136785   7.268  10.151   0.868
78296SOL    HW236786   7.206  10.058   0.970
78297SOL     OW36787   3.688  14.651  12.868
78297SOL    HW136788   3.705  14.659  12.962
78297SOL    HW236789   3.735  14.724  12.829
78298SOL     OW36790   8.474   1.138   6.607
78298SOL    HW136791   8.522   1.077   6.661
78298SOL    HW236792   8.540   1.178   6.550
78299SOL     OW36793   6.404   0.282   3.384
78299SOL    HW136794   6.396   0.325   3.469
78299SOL    HW236795   6.315   0.259   3.360
78300SOL     OW36796  13.628   0.780   7.684
78300SOL    HW136797  13.626   0.696   7.637
78300SOL    HW236798  13.559   0.772   7.750
78301SOL     OW36799   3.769   1.042  10.168
78301SOL    HW136800   3.726   0.973  10.219
78301SOL    HW236801   3.720   1.045  10.086
78302SOL     OW36802  11.698  10.615   1.750
78302SOL    HW136803  11.714  10.539   1.806
78302SOL    HW236804  11.606  10.638   1.768
78303SOL     OW36805   3.401  14.356  10.738
78303SOL    HW136806   3.365  14.276  10.701
78303SOL    HW236807   3.377  14.352  10.831
78304SOL     OW36808   6.069   8.158  14.115
78304SOL    HW136809   5.991   8.153  14.170
78304SOL    HW236810   6.090   8.067  14.095
78305SOL     OW36811   2.191   0.743   0.265
78305SOL    HW136812   2.241   0.675   0.220
78305SOL    HW236813   2.255   0.788   0.320
78306SOL     OW36814   9.197   1.224   6.348
78306SOL    HW136815   9.268   1.242   6.286
78306SOL    HW236816   9.241   1.187   6.424
78307SOL     OW36817   1.913  13.843   9.346
78307SOL    HW136818   1.998  13.800   9.358
78307SOL    HW236819   1.910  13.910   9.414
78308SOL     OW36820   0.153   1.125   0.888
78308SOL    HW136821   0.149   1.214   0.924
78308SOL    HW236822   0.087   1.076   0.937
78309SOL     OW36823   3.341   7.455   0.186
78309SOL    HW136824   3.393   7.378   0.166
78309SOL    HW236825   3.392   7.528   0.149
78310SOL     OW36826   8.318   3.712  11.821
78310SOL    HW136827   8.363   3.721  11.737
78310SOL    HW236828   8.265   3.633  11.812
78311SOL     OW36829  13.335  13.064   7.267
78311SOL    HW136830  13.275  12.990   7.271
78311SOL    HW236831  13.303  13.116   7.193
78312SOL     OW36832  11.636  14.294  12.797
78312SOL    HW136833  11.643  14.258  12.886
78312SOL    HW236834  11.569  14.362  12.805
78313SOL     OW36835   1.175   9.761  11.046
78313SOL    HW136836   1.143   9.712  11.122
78313SOL    HW236837   1.256   9.717  11.022
78314SOL     OW36838  10.334   2.506   8.771
78314SOL    HW136839  10.279   2.515   8.693
78314SOL    HW236840  10.271   2.491   8.842
78315SOL     OW36841  12.500   5.995   9.171
78315SOL    HW136842  12.508   6.087   9.148
78315SOL    HW236843  12.420   5.966   9.126
78316SOL     OW36844   0.036  12.232   6.546
78316SOL    HW136845   0.094  12.297   6.505
78316SOL    HW236846   0.073  12.219   6.633
78317SOL     OW36847   6.481  12.585   3.060
78317SOL    HW136848   6.527  12.649   3.005
78317SOL    HW236849   6.541  12.569   3.133
78318SOL     OW36850  14.672   2.106   3.969
78318SOL    HW136851  14.685   2.191   3.927
78318SOL    HW236852  14.613   2.059   3.910
78319SOL     OW36853  12.363   9.686  14.679
78319SOL    HW136854  12.304   9.617  14.651
78319SOL    HW236855  12.391   9.659  14.767
78320SOL     OW36856   8.473   2.201   0.833
78320SOL    HW136857   8.536   2.269   0.854
78320SOL    HW236858   8.483   2.135   0.902
78321SOL     OW36859   9.238   0.447   7.439
78321SOL    HW136860   9.171   0.500   7.483
78321SOL    HW236861   9.313   0.506   7.429
78322SOL     OW36862   6.588   2.090   3.689
78322SOL    HW136863   6.504   2.044   3.688
78322SOL    HW236864   6.565   2.182   3.701
78323SOL     OW36865   2.266   4.796   0.937
78323SOL    HW136866   2.355   4.784   0.904
78323SOL    HW236867   2.247   4.888   0.922
78324SOL     OW36868   4.265  12.244   1.230
78324SOL    HW136869   4.267  12.155   1.195
78324SOL    HW236870   4.312  12.238   1.313
78325SOL     OW36871   0.646   3.480  10.575
78325SOL    HW136872   0.661   3.484  10.669
78325SOL    HW236873   0.560   3.439  10.566
78326SOL     OW36874   9.870  12.299   8.556
78326SOL    HW136875   9.798  12.341   8.602
78326SOL    HW236876   9.830  12.259   8.479
78327SOL     OW36877   7.202   3.681   1.349
78327SOL    HW136878   7.261   3.738   1.398
78327SOL    HW236879   7.166   3.737   1.280
78328SOL     OW36880  14.322   6.152  11.777
78328SOL    HW136881  14.378   6.096  11.830
78328SOL    HW236882  14.240   6.157  11.825
78329SOL     OW36883   4.303   8.214   5.985
78329SOL    HW136884   4.356   8.222   6.065
78329SOL    HW236885   4.363   8.235   5.914
78330SOL     OW36886   1.255  14.490   7.833
78330SOL    HW136887   1.162  14.514   7.842
78330SOL    HW236888   1.297  14.568   7.797
78331SOL     OW36889  10.628  14.171   9.838
78331SOL    HW136890  10.652  14.181   9.930
78331SOL    HW236891  10.705  14.200   9.790
78332SOL     OW36892  12.264   1.715   3.455
78332SOL    HW136893  12.357   1.721   3.474
78332SOL    HW236894  12.231   1.804   3.469
78333SOL     OW36895  11.098  13.234   6.052
78333SOL    HW136896  11.075  13.161   5.994
78333SOL    HW236897  11.169  13.199   6.106
78334SOL     OW36898   5.140   7.113   5.908
78334SOL    HW136899   5.046   7.093   5.903
78334SOL    HW236900   5.144   7.201   5.946
78335SOL     OW36901  12.664   9.039  10.206
78335SOL    HW136902  12.655   8.974  10.136
78335SOL    HW236903  12.697   9.117  10.162
78336SOL     OW36904  14.204  14.724  10.841
78336SOL    HW136905  14.293  14.750  10.819
78336SOL    HW236906  14.151  14.756  10.768
78337SOL     OW36907   2.911  14.677   3.731
78337SOL    HW136908   2.990  14.660   3.679
78337SOL    HW236909   2.939  14.665   3.822
78338SOL     OW36910   6.289   5.846  11.625
78338SOL    HW136911   6.267   5.766  11.673
78338SOL    HW236912   6.319   5.815  11.539
78339SOL     OW36913   5.076  10.929   7.518
78339SOL    HW136914   5.137  10.970   7.456
78339SOL    HW236915   5.009  10.996   7.533
78340SOL     OW36916   5.670   4.075   6.940
78340SOL    HW136917   5.748   4.063   6.994
78340SOL    HW236918   5.682   4.162   6.901
78341SOL     OW36919   6.529   3.790   7.096
78341SOL    HW136920   6.494   3.856   7.155
78341SOL    HW236921   6.532   3.833   7.010
78342SOL     OW36922   7.042  14.720   9.057
78342SOL    HW136923   7.098  14.667   9.000
78342SOL    HW236924   6.969  14.662   9.080
78343SOL     OW36925   1.516   7.355  11.735
78343SOL    HW136926   1.569   7.284  11.773
78343SOL    HW236927   1.554   7.367  11.648
78344SOL     OW36928  11.235  10.891   0.699
78344SOL    HW136929  11.210  10.808   0.658
78344SOL    HW236930  11.209  10.882   0.790
78345SOL     OW36931   9.339   5.755   6.679
78345SOL    HW136932   9.338   5.698   6.602
78345SOL    HW236933   9.432   5.763   6.701
78346SOL     OW36934  13.058  13.717   3.581
78346SOL    HW136935  13.007  13.794   3.555
78346SOL    HW236936  13.149  13.745   3.571
78347SOL     OW36937   2.270   4.021   7.966
78347SOL    HW136938   2.306   4.012   8.055
78347SOL    HW236939   2.310   3.951   7.916
78348SOL     OW36940   4.732   2.754   4.984
78348SOL    HW136941   4.682   2.673   4.987
78348SOL    HW236942   4.748   2.775   5.076
78349SOL     OW36943   3.487  11.634   5.128
78349SOL    HW136944   3.502  11.630   5.034
78349SOL    HW236945   3.574  11.649   5.166
78350SOL     OW36946  12.011   5.450   9.578
78350SOL    HW136947  11.947   5.402   9.524
78350SOL    HW236948  12.096   5.417   9.549
78351SOL     OW36949   0.047   1.866   6.183
78351SOL    HW136950   0.075   1.958   6.186
78351SOL    HW236951   0.124   1.817   6.213
78352SOL     OW36952   3.589  11.948  12.867
78352SOL    HW136953   3.581  12.040  12.891
78352SOL    HW236954   3.673  11.942  12.821
78353SOL     OW36955   0.049  11.688   7.888
78353SOL    HW136956   0.005  11.619   7.939
78353SOL    HW236957   0.140  11.661   7.885
78354SOL     OW36958   7.696  11.582  11.676
78354SOL    HW136959   7.682  11.659  11.730
78354SOL    HW236960   7.724  11.513  11.737
78355SOL     OW36961  11.596   0.660   5.530
78355SOL    HW136962  11.551   0.739   5.499
78355SOL    HW236963  11.641   0.688   5.610
78356SOL     OW36964   7.335  10.248  14.151
78356SOL    HW136965   7.277  10.261  14.226
78356SOL    HW236966   7.372  10.335  14.135
78357SOL     OW36967   3.339   2.511   4.989
78357SOL    HW136968   3.388   2.430   4.993
78357SOL    HW236969   3.259   2.488   4.942
78358SOL     OW36970   9.723   5.569   7.685
78358SOL    HW136971   9.646   5.586   7.631
78358SOL    HW236972   9.745   5.477   7.666
78359SOL     OW36973  14.642   8.060  13.141
78359SOL    HW136974  14.651   8.154  13.128
78359SOL    HW236975  14.646   8.022  13.054
78360SOL     OW36976  12.580  12.610  13.079
78360SOL    HW136977  12.565  12.652  13.163
78360SOL    HW236978  12.496  12.613  13.034
78361SOL     OW36979  13.944   2.071   9.700
78361SOL    HW136980  13.970   2.091   9.791
78361SOL    HW236981  14.011   2.113   9.647
78362SOL     OW36982  14.576   3.403   6.587
78362SOL    HW136983  14.639   3.460   6.632
78362SOL    HW236984  14.553   3.337   6.652
78363SOL     OW36985  11.724   7.268   0.109
78363SOL    HW136986  11.800   7.223   0.146
78363SOL    HW236987  11.649   7.235   0.159
78364SOL     OW36988   2.016  13.786   9.782
78364SOL    HW136989   2.047  13.863   9.829
78364SOL    HW236990   1.930  13.768   9.818
78365SOL     OW36991   2.831   1.733  11.209
78365SOL    HW136992   2.913   1.726  11.159
78365SOL    HW236993   2.846   1.807  11.268
78366SOL     OW36994   4.415  13.016   1.820
78366SOL    HW136995   4.440  13.067   1.897
78366SOL    HW236996   4.332  12.976   1.845
78367SOL     OW36997   6.293   8.415   0.570
78367SOL    HW136998   6.264   8.447   0.485
78367SOL    HW236999   6.228   8.348   0.594
78368SOL     OW37000   5.898   4.732   4.753
78368SOL    HW137001   5.873   4.766   4.667
78368SOL    HW237002   5.968   4.791   4.782
78369SOL     OW37003   7.687   1.467   2.797
78369SOL    HW137004   7.701   1.408   2.871
78369SOL    HW237005   7.704   1.414   2.719
78370SOL     OW37006   2.413   4.555   5.780
78370SOL    HW137007   2.498   4.550   5.737
78370SOL    HW237008   2.395   4.649   5.788
78371SOL     OW37009  13.620  14.079   1.956
78371SOL    HW137010  13.569  14.103   2.033
78371SOL    HW237011  13.636  14.162   1.911
78372SOL     OW37012   5.132   9.530   0.143
78372SOL    HW137013   5.190   9.507   0.070
78372SOL    HW237014   5.046   9.500   0.115
78373SOL     OW37015   8.976   4.063  10.919
78373SOL    HW137016   8.885   4.031  10.922
78373SOL    HW237017   8.973   4.147  10.965
78374SOL     OW37018   4.638   1.718  11.931
78374SOL    HW137019   4.551   1.706  11.967
78374SOL    HW237020   4.631   1.796  11.875
78375SOL     OW37021  11.717   8.560   4.927
78375SOL    HW137022  11.764   8.560   5.011
78375SOL    HW237023  11.649   8.494   4.939
78376SOL     OW37024   2.658  13.456  12.710
78376SOL    HW137025   2.630  13.505  12.632
78376SOL    HW237026   2.700  13.521  12.765
78377SOL     OW37027   9.930   7.843   3.457
78377SOL    HW137028   9.962   7.933   3.470
78377SOL    HW237029   9.841   7.844   3.493
78378SOL     OW37030   9.859   3.658   3.931
78378SOL    HW137031   9.828   3.620   3.849
78378SOL    HW237032   9.838   3.751   3.923
78379SOL     OW37033  12.415   7.974   1.594
78379SOL    HW137034  12.335   7.983   1.644
78379SOL    HW237035  12.395   8.012   1.509
78380SOL     OW37036   4.706  14.815   6.343
78380SOL    HW137037   4.755  14.778   6.417
78380SOL    HW237038   4.625  14.847   6.381
78381SOL     OW37039  12.497   5.600   6.600
78381SOL    HW137040  12.529   5.601   6.510
78381SOL    HW237041  12.428   5.667   6.601
78382SOL     OW37042   4.092   7.211   5.290
78382SOL    HW137043   4.101   7.306   5.284
78382SOL    HW237044   3.998   7.196   5.303
78383SOL     OW37045  12.302   6.861   8.606
78383SOL    HW137046  12.207   6.867   8.614
78383SOL    HW237047  12.324   6.775   8.641
78384SOL     OW37048   6.106  10.251   3.948
78384SOL    HW137049   6.065  10.305   4.015
78384SOL    HW237050   6.097  10.161   3.982
78385SOL     OW37051   0.293  13.485   7.378
78385SOL    HW137052   0.384  13.508   7.394
78385SOL    HW237053   0.266  13.542   7.305
78386SOL     OW37054   7.829   5.587   0.321
78386SOL    HW137055   7.831   5.492   0.316
78386SOL    HW237056   7.900   5.610   0.381
78387SOL     OW37057  10.794  10.054   7.817
78387SOL    HW137058  10.780  10.141   7.779
78387SOL    HW237059  10.889  10.041   7.810
78388SOL     OW37060   4.697  13.272   5.256
78388SOL    HW137061   4.669  13.231   5.175
78388SOL    HW237062   4.693  13.366   5.238
78389SOL     OW37063   7.011  14.109  13.300
78389SOL    HW137064   7.040  14.041  13.238
78389SOL    HW237065   7.021  14.068  13.386
78390SOL     OW37066  10.174  13.625   0.658
78390SOL    HW137067  10.194  13.622   0.564
78390SOL    HW237068  10.122  13.704   0.669
78391SOL     OW37069   7.790   8.764   9.282
78391SOL    HW137070   7.885   8.750   9.282
78391SOL    HW237071   7.753   8.681   9.311
78392SOL     OW37072   5.559   0.873   1.347
78392SOL    HW137073   5.583   0.932   1.275
78392SOL    HW237074   5.593   0.917   1.425
78393SOL     OW37075   7.099   8.215  13.252
78393SOL    HW137076   7.177   8.248  13.296
78393SOL    HW237077   7.038   8.289  13.250
78394SOL     OW37078   9.211   5.634   8.085
78394SOL    HW137079   9.150   5.662   8.152
78394SOL    HW237080   9.184   5.681   8.006
78395SOL     OW37081   3.188  14.536  10.840
78395SOL    HW137082   3.216  14.601  10.776
78395SOL    HW237083   3.117  14.579  10.889
78396SOL     OW37084  11.740   2.714   7.580
78396SOL    HW137085  11.762   2.741   7.490
78396SOL    HW237086  11.788   2.632   7.593
78397SOL     OW37087   4.163  12.465  10.226
78397SOL    HW137088   4.247  12.463  10.180
78397SOL    HW237089   4.131  12.554  10.213
78398SOL     OW37090   2.648   7.674  13.058
78398SOL    HW137091   2.586   7.684  12.986
78398SOL    HW237092   2.714   7.613  13.026
78399SOL     OW37093   5.529   6.288   6.536
78399SOL    HW137094   5.612   6.329   6.514
78399SOL    HW237095   5.548   6.234   6.612
78400SOL     OW37096   1.031   0.658   1.143
78400SOL    HW137097   1.104   0.715   1.167
78400SOL    HW237098   1.066   0.602   1.074
78401SOL     OW37099   5.724   1.556   3.702
78401SOL    HW137100   5.797   1.613   3.677
78401SOL    HW237101   5.673   1.608   3.764
78402SOL     OW37102   5.223   3.275   5.933
78402SOL    HW137103   5.280   3.211   5.891
78402SOL    HW237104   5.276   3.355   5.937
78403SOL     OW37105   2.435   8.530   3.158
78403SOL    HW137106   2.467   8.611   3.120
78403SOL    HW237107   2.340   8.538   3.155
78404SOL     OW37108  14.725   2.117  13.554
78404SOL    HW137109  14.775   2.194  13.525
78404SOL    HW237110  14.728   2.057  13.480
78405SOL     OW37111   1.782  14.607   5.464
78405SOL    HW137112   1.796  14.587   5.557
78405SOL    HW237113   1.857  14.568   5.420
78406SOL     OW37114   7.321   8.652  13.697
78406SOL    HW137115   7.334   8.561  13.669
78406SOL    HW237116   7.409   8.683  13.718
78407SOL     OW37117   1.147  11.451   4.605
78407SOL    HW137118   1.182  11.533   4.639
78407SOL    HW237119   1.054  11.453   4.627
78408SOL     OW37120   9.519  11.866   1.625
78408SOL    HW137121   9.501  11.958   1.643
78408SOL    HW237122   9.613  11.862   1.611
78409SOL     OW37123   8.722   4.985  13.130
78409SOL    HW137124   8.636   4.974  13.170
78409SOL    HW237125   8.783   4.971  13.202
78410SOL     OW37126   5.632   4.286   5.223
78410SOL    HW137127   5.568   4.356   5.211
78410SOL    HW237128   5.601   4.236   5.299
78411SOL     OW37129  13.494  14.824   6.811
78411SOL    HW137130  13.428  14.860   6.871
78411SOL    HW237131  13.447  14.756   6.763
78412SOL     OW37132   0.257  10.894  12.392
78412SOL    HW137133   0.259  10.873  12.298
78412SOL    HW237134   0.164  10.906  12.412
78413SOL     OW37135   4.816   6.713   1.429
78413SOL    HW137136   4.886   6.688   1.489
78413SOL    HW237137   4.837   6.668   1.348
78414SOL     OW37138  11.737  10.063   6.685
78414SOL    HW137139  11.804  10.025   6.742
78414SOL    HW237140  11.664  10.084   6.744
78415SOL     OW37141   9.970   8.823   0.177
78415SOL    HW137142   9.894   8.765   0.184
78415SOL    HW237143   9.986   8.852   0.267
78416SOL     OW37144   3.603   2.188   3.400
78416SOL    HW137145   3.611   2.239   3.319
78416SOL    HW237146   3.692   2.182   3.434
78417SOL     OW37147   7.170   3.017  10.459
78417SOL    HW137148   7.157   3.000  10.366
78417SOL    HW237149   7.143   3.108  10.470
78418SOL     OW37150  12.410   1.579   7.697
78418SOL    HW137151  12.444   1.591   7.786
78418SOL    HW237152  12.345   1.509   7.706
78419SOL     OW37153   3.926   2.976   0.045
78419SOL    HW137154   3.988   2.921  14.885
78419SOL    HW237155   3.868   2.914   0.089
78420SOL     OW37156   6.281   5.226   2.179
78420SOL    HW137157   6.293   5.320   2.169
78420SOL    HW237158   6.203   5.217   2.233
78421SOL     OW37159   4.497  10.393   0.612
78421SOL    HW137160   4.515  10.427   0.525
78421SOL    HW237161   4.404  10.411   0.626
78422SOL     OW37162  14.737   4.478   9.320
78422SOL    HW137163  14.666   4.427   9.282
78422SOL    HW237164  14.705   4.505   9.406
78423SOL     OW37165  12.396   0.926   4.901
78423SOL    HW137166  12.313   0.927   4.949
78423SOL    HW237167  12.463   0.909   4.968
78424SOL     OW37168  11.065   2.983  11.128
78424SOL    HW137169  11.069   3.078  11.115
78424SOL    HW237170  11.157   2.955  11.130
78425SOL     OW37171  12.584  14.251  11.441
78425SOL    HW137172  12.549  14.164  11.418
78425SOL    HW237173  12.522  14.285  11.505
78426SOL     OW37174  12.809  11.961  12.889
78426SOL    HW137175  12.845  11.912  12.814
78426SOL    HW237176  12.875  11.950  12.957
78427SOL     OW37177  13.323   2.588   8.106
78427SOL    HW137178  13.232   2.615   8.088
78427SOL    HW237179  13.327   2.579   8.201
78428SOL     OW37180   4.326  13.310  13.198
78428SOL    HW137181   4.274  13.390  13.186
78428SOL    HW237182   4.272  13.255  13.255
78429SOL     OW37183   4.890   2.053   2.626
78429SOL    HW137184   4.852   2.020   2.708
78429SOL    HW237185   4.878   1.981   2.564
78430SOL     OW37186  11.995   8.689  10.892
78430SOL    HW137187  11.917   8.726  10.851
78430SOL    HW237188  12.035   8.635  10.823
78431SOL     OW37189   9.565  14.416  14.356
78431SOL    HW137190   9.575  14.509  14.379
78431SOL    HW237191   9.649  14.393  14.316
78432SOL     OW37192   1.144   5.573   9.330
78432SOL    HW137193   1.225   5.620   9.310
78432SOL    HW237194   1.153   5.489   9.285
78433SOL     OW37195   8.146   2.874   9.460
78433SOL    HW137196   8.100   2.825   9.392
78433SOL    HW237197   8.092   2.951   9.475
78434SOL     OW37198   2.963   0.734  10.483
78434SOL    HW137199   3.024   0.668  10.516
78434SOL    HW237200   2.890   0.731  10.544
78435SOL     OW37201  10.282   6.724   9.371
78435SOL    HW137202  10.191   6.717   9.400
78435SOL    HW237203  10.331   6.741   9.452
78436SOL     OW37204   7.445   1.889   4.509
78436SOL    HW137205   7.500   1.859   4.437
78436SOL    HW237206   7.500   1.880   4.587
78437SOL     OW37207   2.168   3.973   2.080
78437SOL    HW137208   2.170   3.901   2.143
78437SOL    HW237209   2.135   4.047   2.130
78438SOL     OW37210  10.567  11.871  13.954
78438SOL    HW137211  10.600  11.852  14.041
78438SOL    HW237212  10.607  11.955  13.931
78439SOL     OW37213  12.505  13.630   9.994
78439SOL    HW137214  12.534  13.721   9.984
78439SOL    HW237215  12.513  13.612  10.087
78440SOL     OW37216  10.447   9.322   3.928
78440SOL    HW137217  10.413   9.318   4.018
78440SOL    HW237218  10.542   9.318   3.939
78441SOL     OW37219   0.375   6.632   4.643
78441SOL    HW137220   0.326   6.666   4.568
78441SOL    HW237221   0.461   6.609   4.607
78442SOL     OW37222   4.716  14.533   4.559
78442SOL    HW137223   4.664  14.467   4.512
78442SOL    HW237224   4.772  14.481   4.617
78443SOL     OW37225   8.281   4.592  14.579
78443SOL    HW137226   8.246   4.527  14.639
78443SOL    HW237227   8.319   4.540  14.507
78444SOL     OW37228   0.311   3.157   0.735
78444SOL    HW137229   0.345   3.127   0.820
78444SOL    HW237230   0.271   3.079   0.697
78445SOL     OW37231   7.172   4.661  13.984
78445SOL    HW137232   7.155   4.714  13.907
78445SOL    HW237233   7.095   4.673  14.039
78446SOL     OW37234   7.302  14.469  10.264
78446SOL    HW137235   7.227  14.411  10.275
78446SOL    HW237236   7.362  14.421  10.207
78447SOL     OW37237   2.582   0.531  13.386
78447SOL    HW137238   2.545   0.613  13.419
78447SOL    HW237239   2.606   0.483  13.466
78448SOL     OW37240   8.170  10.742  14.833
78448SOL    HW137241   8.157  10.767  14.742
78448SOL    HW237242   8.160  10.647  14.834
78449SOL     OW37243   1.963  13.805  14.023
78449SOL    HW137244   1.878  13.835  14.056
78449SOL    HW237245   1.987  13.871  13.958
78450SOL     OW37246  11.328   2.458  10.987
78450SOL    HW137247  11.234   2.441  10.987
78450SOL    HW237248  11.359   2.420  10.904
78451SOL     OW37249  12.392   7.316   5.396
78451SOL    HW137250  12.312   7.290   5.352
78451SOL    HW237251  12.448   7.238   5.394
78452SOL     OW37252  14.073   2.589   7.195
78452SOL    HW137253  14.057   2.505   7.238
78452SOL    HW237254  14.021   2.586   7.115
78453SOL     OW37255   0.080  11.494   5.779
78453SOL    HW137256   0.063  11.570   5.835
78453SOL    HW237257   0.165  11.513   5.739
78454SOL     OW37258   2.495   2.137   0.678
78454SOL    HW137259   2.552   2.161   0.605
78454SOL    HW237260   2.550   2.083   0.735
78455SOL     OW37261   5.453   4.841   7.562
78455SOL    HW137262   5.360   4.862   7.558
78455SOL    HW237263   5.459   4.752   7.527
78456SOL     OW37264  13.592  13.592   0.765
78456SOL    HW137265  13.508  13.552   0.743
78456SOL    HW237266  13.615  13.642   0.687
78457SOL     OW37267   8.618   7.850   5.386
78457SOL    HW137268   8.617   7.756   5.406
78457SOL    HW237269   8.573   7.891   5.459
78458SOL     OW37270   6.080   9.334   2.429
78458SOL    HW137271   6.169   9.352   2.397
78458SOL    HW237272   6.052   9.417   2.468
78459SOL     OW37273   7.232   9.996   5.702
78459SOL    HW137274   7.172   9.965   5.634
78459SOL    HW237275   7.298  10.047   5.655
78460SOL     OW37276  13.501   4.492   5.575
78460SOL    HW137277  13.471   4.499   5.484
78460SOL    HW237278  13.497   4.398   5.595
78461SOL     OW37279   1.056   0.709  14.832
78461SOL    HW137280   1.134   0.672  14.874
78461SOL    HW237281   1.065   0.804  14.844
78462SOL     OW37282  12.831   5.576   0.363
78462SOL    HW137283  12.809   5.483   0.367
78462SOL    HW237284  12.919   5.577   0.325
78463SOL     OW37285  13.053   4.433  10.785
78463SOL    HW137286  13.141   4.470  10.782
78463SOL    HW237287  13.058   4.365  10.852
78464SOL     OW37288   8.292  12.137   6.019
78464SOL    HW137289   8.204  12.162   6.047
78464SOL    HW237290   8.315  12.063   6.075
78465SOL     OW37291   1.614   9.812  10.567
78465SOL    HW137292   1.550   9.881  10.583
78465SOL    HW237293   1.576   9.734  10.606
78466SOL     OW37294   9.141  11.768   6.346
78466SOL    HW137295   9.081  11.799   6.414
78466SOL    HW237296   9.104  11.684   6.319
78467SOL     OW37297   0.174   9.534   9.992
78467SOL    HW137298   0.136   9.465   9.938
78467SOL    HW237299   0.205   9.599   9.929
78468SOL     OW37300   6.364  14.820   7.432
78468SOL    HW137301   6.432  14.758   7.408
78468SOL    HW237302   6.285  14.767   7.442
78469SOL     OW37303  12.846   6.023   4.579
78469SOL    HW137304  12.848   5.984   4.492
78469SOL    HW237305  12.934   6.058   4.591
78470SOL     OW37306   5.183   7.721  11.027
78470SOL    HW137307   5.269   7.716  11.068
78470SOL    HW237308   5.123   7.689  11.094
78471SOL     OW37309   0.313   1.922  12.260
78471SOL    HW137310   0.296   1.857  12.328
78471SOL    HW237311   0.398   1.960  12.283
78472SOL     OW37312   6.887   8.769   8.681
78472SOL    HW137313   6.952   8.703   8.703
78472SOL    HW237314   6.803   8.728   8.703
78473SOL     OW37315   5.228   1.444   9.542
78473SOL    HW137316   5.313   1.401   9.553
78473SOL    HW237317   5.249   1.536   9.527
78474SOL     OW37318  12.621   1.290   4.720
78474SOL    HW137319  12.538   1.258   4.753
78474SOL    HW237320  12.653   1.220   4.663
78475SOL     OW37321   7.208   4.027  10.498
78475SOL    HW137322   7.253   4.092  10.444
78475SOL    HW237323   7.249   4.034  10.584
78476SOL     OW37324  12.189  11.451   1.504
78476SOL    HW137325  12.246  11.404   1.565
78476SOL    HW237326  12.232  11.441   1.419
78477SOL     OW37327  12.859   6.420   7.960
78477SOL    HW137328  12.830   6.500   7.916
78477SOL    HW237329  12.836   6.349   7.899
78478SOL     OW37330   7.405   2.244   4.773
78478SOL    HW137331   7.373   2.177   4.832
78478SOL    HW237332   7.381   2.327   4.815
78479SOL     OW37333  12.480   2.505  13.076
78479SOL    HW137334  12.469   2.585  13.023
78479SOL    HW237335  12.535   2.448  13.022
78480SOL     OW37336  11.533  12.709   5.826
78480SOL    HW137337  11.518  12.700   5.920
78480SOL    HW237338  11.465  12.655   5.786
78481SOL     OW37339   5.169   1.157   1.900
78481SOL    HW137340   5.146   1.152   1.993
78481SOL    HW237341   5.144   1.072   1.864
78482SOL     OW37342   9.761   3.049   2.425
78482SOL    HW137343   9.752   3.141   2.448
78482SOL    HW237344   9.751   3.047   2.330
78483SOL     OW37345   8.366  11.718   0.905
78483SOL    HW137346   8.375  11.776   0.981
78483SOL    HW237347   8.418  11.761   0.837
78484SOL     OW37348   6.472   9.559  11.583
78484SOL    HW137349   6.431   9.583  11.500
78484SOL    HW237350   6.399   9.547  11.643
78485SOL     OW37351   6.481   8.497   8.074
78485SOL    HW137352   6.536   8.569   8.042
78485SOL    HW237353   6.477   8.437   8.000
78486SOL     OW37354  10.827  13.879   9.729
78486SOL    HW137355  10.773  13.947   9.688
78486SOL    HW237356  10.868  13.834   9.655
78487SOL     OW37357  11.693   9.635   7.521
78487SOL    HW137358  11.723   9.716   7.564
78487SOL    HW237359  11.705   9.567   7.588
78488SOL     OW37360  13.220   6.372   0.874
78488SOL    HW137361  13.216   6.312   0.800
78488SOL    HW237362  13.153   6.341   0.935
78489SOL     OW37363  10.268   6.064  12.928
78489SOL    HW137364  10.193   6.124  12.933
78489SOL    HW237365  10.232   5.983  12.894
78490SOL     OW37366   1.087   3.569   0.678
78490SOL    HW137367   1.080   3.474   0.683
78490SOL    HW237368   1.171   3.589   0.718
78491SOL     OW37369   5.164   2.420  11.295
78491SOL    HW137370   5.228   2.414  11.224
78491SOL    HW237371   5.197   2.488  11.353
78492SOL     OW37372  10.953  14.615   6.874
78492SOL    HW137373  10.917  14.532   6.906
78492SOL    HW237374  10.909  14.629   6.790
78493SOL     OW37375   8.174   4.984   4.690
78493SOL    HW137376   8.264   4.972   4.662
78493SOL    HW237377   8.122   4.975   4.610
78494SOL     OW37378   3.289   2.576   9.032
78494SOL    HW137379   3.269   2.618   8.948
78494SOL    HW237380   3.370   2.528   9.016
78495SOL     OW37381   3.888   3.770   3.830
78495SOL    HW137382   3.905   3.745   3.739
78495SOL    HW237383   3.975   3.775   3.871
78496SOL     OW37384   8.744   2.833   4.702
78496SOL    HW137385   8.766   2.740   4.697
78496SOL    HW237386   8.650   2.836   4.682
78497SOL     OW37387   4.567   4.092  14.852
78497SOL    HW137388   4.569   4.077  14.758
78497SOL    HW237389   4.628   4.165  14.866
78498SOL     OW37390  13.539   4.928   1.780
78498SOL    HW137391  13.445   4.947   1.774
78498SOL    HW237392  13.566   4.967   1.863
78499SOL     OW37393   5.689   5.883   8.324
78499SOL    HW137394   5.657   5.844   8.243
78499SOL    HW237395   5.631   5.957   8.341
78500SOL     OW37396   7.205   3.789  14.635
78500SOL    HW137397   7.209   3.880  14.604
78500SOL    HW237398   7.238   3.738  14.562
78501SOL     OW37399   9.463   0.246  14.614
78501SOL    HW137400   9.396   0.178  14.618
78501SOL    HW237401   9.428   0.310  14.551
78502SOL     OW37402   2.468  10.403   5.281
78502SOL    HW137403   2.536  10.458   5.319
78502SOL    HW237404   2.483  10.409   5.186
78503SOL     OW37405  14.424  11.252   2.901
78503SOL    HW137406  14.373  11.262   2.821
78503SOL    HW237407  14.502  11.305   2.887
78504SOL     OW37408   8.779   3.683   8.950
78504SOL    HW137409   8.814   3.599   8.980
78504SOL    HW237410   8.689   3.684   8.983
78505SOL     OW37411   6.638  14.477   5.611
78505SOL    HW137412   6.608  14.446   5.526
78505SOL    HW237413   6.562  14.522   5.648
78506SOL     OW37414   8.879  12.931  14.108
78506SOL    HW137415   8.855  12.930  14.200
78506SOL    HW237416   8.942  13.003  14.100
78507SOL     OW37417  11.756   9.899  14.847
78507SOL    HW137418  11.677   9.952  14.856
78507SOL    HW237419  11.823   9.961  14.817
78508SOL     OW37420  14.842   2.481   2.554
78508SOL    HW137421  14.769   2.511   2.500
78508SOL    HW237422  14.807   2.477   2.643
78509SOL     OW37423   9.419   6.046   6.521
78509SOL    HW137424   9.384   6.134   6.533
78509SOL    HW237425   9.454   6.021   6.606
78510SOL     OW37426  14.530   2.825   6.327
78510SOL    HW137427  14.624   2.833   6.342
78510SOL    HW237428  14.499   2.915   6.323
78511SOL     OW37429   3.647   1.149  14.443
78511SOL    HW137430   3.573   1.124  14.498
78511SOL    HW237431   3.658   1.242  14.459
78512SOL     OW37432   4.056  14.334   8.246
78512SOL    HW137433   3.979  14.351   8.301
78512SOL    HW237434   4.130  14.368   8.297
78513SOL     OW37435  12.701  11.290   0.123
78513SOL    HW137436  12.717  11.305   0.216
78513SOL    HW237437  12.677  11.376   0.088
78514SOL     OW37438  14.615   6.820  13.093
78514SOL    HW137439  14.665   6.899  13.113
78514SOL    HW237440  14.583   6.833  13.004
78515SOL     OW37441   6.274   6.393   2.349
78515SOL    HW137442   6.329   6.344   2.410
78515SOL    HW237443   6.292   6.485   2.369
78516SOL     OW37444   2.406   1.581  14.656
78516SOL    HW137445   2.485   1.633  14.669
78516SOL    HW237446   2.353   1.599  14.735
78517SOL     OW37447  12.231  13.576  12.460
78517SOL    HW137448  12.260  13.653  12.410
78517SOL    HW237449  12.312  13.529  12.480
78518SOL     OW37450  10.827   9.732   6.627
78518SOL    HW137451  10.799   9.750   6.717
78518SOL    HW237452  10.843   9.819   6.590
78519SOL     OW37453  14.265   4.081   5.692
78519SOL    HW137454  14.238   3.999   5.734
78519SOL    HW237455  14.352   4.099   5.727
78520SOL     OW37456   6.306   2.960   5.504
78520SOL    HW137457   6.275   2.870   5.505
78520SOL    HW237458   6.260   3.000   5.429
78521SOL     OW37459   5.836  12.916   0.451
78521SOL    HW137460   5.928  12.937   0.439
78521SOL    HW237461   5.837  12.830   0.494
78522SOL     OW37462   3.074  10.923  11.525
78522SOL    HW137463   3.149  10.946  11.581
78522SOL    HW237464   2.997  10.938  11.581
78523SOL     OW37465   6.908   5.240   4.409
78523SOL    HW137466   6.964   5.308   4.371
78523SOL    HW237467   6.901   5.174   4.340
78524SOL     OW37468   9.034   4.175   4.734
78524SOL    HW137469   9.031   4.144   4.824
78524SOL    HW237470   9.006   4.100   4.682
78525SOL     OW37471   4.319   0.559  13.237
78525SOL    HW137472   4.380   0.633  13.244
78525SOL    HW237473   4.260   0.584  13.165
78526SOL     OW37474  10.093   0.852   1.779
78526SOL    HW137475  10.056   0.883   1.697
78526SOL    HW237476  10.140   0.927   1.814
78527SOL     OW37477   7.812  11.644   1.499
78527SOL    HW137478   7.821  11.660   1.405
78527SOL    HW237479   7.721  11.616   1.509
78528SOL     OW37480   9.507  11.907   4.605
78528SOL    HW137481   9.463  11.895   4.521
78528SOL    HW237482   9.581  11.846   4.602
78529SOL     OW37483   3.721  11.645   1.101
78529SOL    HW137484   3.654  11.614   1.163
78529SOL    HW237485   3.681  11.719   1.057
78530SOL     OW37486  12.519   4.778  12.058
78530SOL    HW137487  12.533   4.804  11.967
78530SOL    HW237488  12.451   4.711  12.055
78531SOL     OW37489  12.166  11.723   0.128
78531SOL    HW137490  12.234  11.656   0.136
78531SOL    HW237491  12.117  11.697   0.049
78532SOL     OW37492  12.230   9.199   9.841
78532SOL    HW137493  12.229   9.172   9.749
78532SOL    HW237494  12.138   9.213   9.864
78533SOL     OW37495   6.604   4.974   1.506
78533SOL    HW137496   6.695   4.958   1.532
78533SOL    HW237497   6.563   5.010   1.584
78534SOL     OW37498  13.935   9.661  12.677
78534SOL    HW137499  13.911   9.654  12.769
78534SOL    HW237500  13.874   9.725  12.641
78535SOL     OW37501   9.604   0.996   8.325
78535SOL    HW137502   9.513   0.972   8.308
78535SOL    HW237503   9.610   1.005   8.420
78536SOL     OW37504   1.334   6.780   6.919
78536SOL    HW137505   1.323   6.787   6.824
78536SOL    HW237506   1.427   6.795   6.933
78537SOL     OW37507   6.161   0.400  10.016
78537SOL    HW137508   6.174   0.322  10.070
78537SOL    HW237509   6.097   0.374   9.950
78538SOL     OW37510   7.373   3.483  10.149
78538SOL    HW137511   7.454   3.478  10.098
78538SOL    HW237512   7.364   3.577  10.169
78539SOL     OW37513  13.214   5.398   3.216
78539SOL    HW137514  13.272   5.326   3.192
78539SOL    HW237515  13.127   5.369   3.190
78540SOL     OW37516   2.707  10.696   9.723
78540SOL    HW137517   2.655  10.673   9.800
78540SOL    HW237518   2.663  10.773   9.686
78541SOL     OW37519   8.262   8.939   0.481
78541SOL    HW137520   8.190   8.923   0.542
78541SOL    HW237521   8.336   8.962   0.538
78542SOL     OW37522   6.332   8.390  11.697
78542SOL    HW137523   6.422   8.387  11.731
78542SOL    HW237524   6.341   8.434  11.612
78543SOL     OW37525  14.706  13.248   3.970
78543SOL    HW137526  14.798  13.225   3.965
78543SOL    HW237527  14.680  13.223   4.058
78544SOL     OW37528   6.735   7.806  13.312
78544SOL    HW137529   6.720   7.795  13.405
78544SOL    HW237530   6.693   7.730  13.271
78545SOL     OW37531   0.590   3.106   2.261
78545SOL    HW137532   0.611   3.015   2.282
78545SOL    HW237533   0.510   3.125   2.311
78546SOL     OW37534  10.658   2.859   4.056
78546SOL    HW137535  10.698   2.912   4.124
78546SOL    HW237536  10.732   2.816   4.012
78547SOL     OW37537   3.859   1.605   5.809
78547SOL    HW137538   3.893   1.689   5.779
78547SOL    HW237539   3.892   1.541   5.746
78548SOL     OW37540  10.797  13.288   4.233
78548SOL    HW137541  10.802  13.326   4.145
78548SOL    HW237542  10.888  13.281   4.261
78549SOL     OW37543   8.021   6.588   7.149
78549SOL    HW137544   8.049   6.607   7.238
78549SOL    HW237545   7.927   6.569   7.157
78550SOL     OW37546   6.979   8.950  14.221
78550SOL    HW137547   7.055   8.978  14.170
78550SOL    HW237548   7.008   8.872  14.269
78551SOL     OW37549   6.788  14.214  10.005
78551SOL    HW137550   6.726  14.205  10.077
78551SOL    HW237551   6.863  14.160  10.029
78552SOL     OW37552  13.409   3.116   8.013
78552SOL    HW137553  13.458   3.167   7.949
78552SOL    HW237554  13.336   3.079   7.964
78553SOL     OW37555   1.262  10.529   0.156
78553SOL    HW137556   1.236  10.496   0.242
78553SOL    HW237557   1.181  10.534   0.106
78554SOL     OW37558  12.310   8.543   1.701
78554SOL    HW137559  12.402   8.518   1.691
78554SOL    HW237560  12.294   8.602   1.627
78555SOL     OW37561   8.329  10.967   6.070
78555SOL    HW137562   8.333  10.945   5.977
78555SOL    HW237563   8.420  10.982   6.095
78556SOL     OW37564   6.267   2.530   3.429
78556SOL    HW137565   6.172   2.520   3.420
78556SOL    HW237566   6.285   2.618   3.396
78557SOL     OW37567   2.084  13.563   3.824
78557SOL    HW137568   2.136  13.642   3.835
78557SOL    HW237569   2.016  13.569   3.890
78558SOL     OW37570   0.968   8.592   1.925
78558SOL    HW137571   0.999   8.559   1.840
78558SOL    HW237572   1.038   8.568   1.986
78559SOL     OW37573   7.585  13.403   0.538
78559SOL    HW137574   7.650  13.355   0.486
78559SOL    HW237575   7.510  13.413   0.480
78560SOL     OW37576   4.366   7.608   5.214
78560SOL    HW137577   4.406   7.687   5.178
78560SOL    HW237578   4.437   7.543   5.214
78561SOL     OW37579   2.201   8.725  12.552
78561SOL    HW137580   2.121   8.682  12.524
78561SOL    HW237581   2.238   8.762  12.472
78562SOL     OW37582  13.405  12.214  13.874
78562SOL    HW137583  13.367  12.202  13.962
78562SOL    HW237584  13.496  12.239  13.891
78563SOL     OW37585   1.982   8.623   2.266
78563SOL    HW137586   2.060   8.631   2.321
78563SOL    HW237587   1.920   8.574   2.319
78564SOL     OW37588   0.171  10.129  10.944
78564SOL    HW137589   0.207  10.058  10.891
78564SOL    HW237590   0.154  10.199  10.882
78565SOL     OW37591  13.138  14.119   6.441
78565SOL    HW137592  13.089  14.065   6.503
78565SOL    HW237593  13.072  14.157   6.384
78566SOL     OW37594  10.241  11.969   1.267
78566SOL    HW137595  10.181  11.955   1.193
78566SOL    HW237596  10.296  12.042   1.239
78567SOL     OW37597   4.254   3.092  13.796
78567SOL    HW137598   4.340   3.081  13.837
78567SOL    HW237599   4.266   3.162  13.732
78568SOL     OW37600  10.340   2.626   0.865
78568SOL    HW137601  10.406   2.694   0.854
78568SOL    HW237602  10.338   2.608   0.959
78569SOL     OW37603   3.812  14.631  14.570
78569SOL    HW137604   3.778  14.651  14.483
78569SOL    HW237605   3.901  14.598  14.554
78570SOL     OW37606   2.360  12.544  14.574
78570SOL    HW137607   2.277  12.513  14.611
78570SOL    HW237608   2.348  12.533  14.479
78571SOL     OW37609   6.418  10.552   8.333
78571SOL    HW137610   6.507  10.555   8.366
78571SOL    HW237611   6.413  10.470   8.284
78572SOL     OW37612   5.941  13.025   8.621
78572SOL    HW137613   5.932  13.119   8.639
78572SOL    HW237614   6.024  13.017   8.575
78573SOL     OW37615   2.944   7.526  14.661
78573SOL    HW137616   3.028   7.571  14.671
78573SOL    HW237617   2.964   7.434  14.680
78574SOL     OW37618   7.714   0.702   4.534
78574SOL    HW137619   7.757   0.617   4.525
78574SOL    HW237620   7.659   0.709   4.456
78575SOL     OW37621  11.929  14.477   8.314
78575SOL    HW137622  11.970  14.417   8.377
78575SOL    HW237623  11.849  14.431   8.287
78576SOL     OW37624   1.052   9.686  14.791
78576SOL    HW137625   1.034   9.780  14.789
78576SOL    HW237626   1.144   9.679  14.765
78577SOL     OW37627  13.498   3.705   3.655
78577SOL    HW137628  13.523   3.757   3.578
78577SOL    HW237629  13.580   3.665   3.684
78578SOL     OW37630   9.588  10.046  11.568
78578SOL    HW137631   9.654  10.094  11.517
78578SOL    HW237632   9.526  10.015  11.502
78579SOL     OW37633   9.630   2.421   8.269
78579SOL    HW137634   9.605   2.500   8.220
78579SOL    HW237635   9.723   2.433   8.287
78580SOL     OW37636  10.608   1.660   9.013
78580SOL    HW137637  10.684   1.695   8.967
78580SOL    HW237638  10.614   1.697   9.101
78581SOL     OW37639  11.040   8.003  12.924
78581SOL    HW137640  11.064   8.093  12.947
78581SOL    HW237641  11.057   7.953  13.003
78582SOL     OW37642   2.055  10.913  12.580
78582SOL    HW137643   2.125  10.965  12.540
78582SOL    HW237644   2.082  10.822  12.566
78583SOL     OW37645   9.073   4.431   6.042
78583SOL    HW137646   9.066   4.526   6.036
78583SOL    HW237647   8.995   4.404   6.090
78584SOL     OW37648   9.348   4.357   1.459
78584SOL    HW137649   9.277   4.295   1.448
78584SOL    HW237650   9.310   4.430   1.508
78585SOL     OW37651   8.412   8.860   1.831
78585SOL    HW137652   8.462   8.908   1.898
78585SOL    HW237653   8.429   8.768   1.850
78586SOL     OW37654   5.600   3.721   6.605
78586SOL    HW137655   5.688   3.715   6.567
78586SOL    HW237656   5.615   3.719   6.700
78587SOL     OW37657   3.407   5.829  14.145
78587SOL    HW137658   3.492   5.813  14.185
78587SOL    HW237659   3.361   5.886  14.207
78588SOL     OW37660   0.067   0.346   7.357
78588SOL    HW137661   0.123   0.423   7.358
78588SOL    HW237662   0.006   0.360   7.285
78589SOL     OW37663   8.239   2.070  12.472
78589SOL    HW137664   8.199   2.146  12.430
78589SOL    HW237665   8.285   2.106  12.548
78590SOL     OW37666  10.451   9.721   6.828
78590SOL    HW137667  10.391   9.711   6.902
78590SOL    HW237668  10.394   9.716   6.751
78591SOL     OW37669   3.377   7.711   7.912
78591SOL    HW137670   3.306   7.686   7.853
78591SOL    HW237671   3.351   7.796   7.947
78592SOL     OW37672   1.477   9.338   3.449
78592SOL    HW137673   1.490   9.351   3.355
78592SOL    HW237674   1.474   9.426   3.486
78593SOL     OW37675   1.874   8.243   0.533
78593SOL    HW137676   1.807   8.217   0.470
78593SOL    HW237677   1.872   8.339   0.531
78594SOL     OW37678  12.161  11.743   2.880
78594SOL    HW137679  12.085  11.721   2.827
78594SOL    HW237680  12.230  11.763   2.817
78595SOL     OW37681  13.207  12.865   5.939
78595SOL    HW137682  13.148  12.914   5.882
78595SOL    HW237683  13.234  12.929   6.006
78596SOL     OW37684   7.577   0.936   2.305
78596SOL    HW137685   7.647   0.948   2.241
78596SOL    HW237686   7.624   0.918   2.387
78597SOL     OW37687  11.937   5.097   1.261
78597SOL    HW137688  11.988   5.076   1.338
78597SOL    HW237689  11.851   5.123   1.295
78598SOL     OW37690   9.099  14.672   8.824
78598SOL    HW137691   9.050  14.654   8.904
78598SOL    HW237692   9.036  14.659   8.753
78599SOL     OW37693   3.962  12.093   4.981
78599SOL    HW137694   3.881  12.043   4.972
78599SOL    HW237695   4.021  12.053   4.917
78600SOL     OW37696   0.904   6.720   8.110
78600SOL    HW137697   0.944   6.645   8.066
78600SOL    HW237698   0.911   6.791   8.046
78601SOL     OW37699   1.124   4.166  14.775
78601SOL    HW137700   1.178   4.092  14.744
78601SOL    HW237701   1.132   4.163  14.870
78602SOL     OW37702   9.284   1.659   9.481
78602SOL    HW137703   9.288   1.626   9.571
78602SOL    HW237704   9.200   1.628   9.447
78603SOL     OW37705  11.875  11.476  14.471
78603SOL    HW137706  11.876  11.514  14.383
78603SOL    HW237707  11.844  11.387  14.457
78604SOL     OW37708   6.300  12.336  11.741
78604SOL    HW137709   6.298  12.259  11.799
78604SOL    HW237710   6.393  12.357  11.734
78605SOL     OW37711  12.127  12.789   4.692
78605SOL    HW137712  12.135  12.742   4.609
78605SOL    HW237713  12.040  12.828   4.689
78606SOL     OW37714  12.041   3.690   9.236
78606SOL    HW137715  12.003   3.617   9.188
78606SOL    HW237716  12.104   3.729   9.176
78607SOL     OW37717  13.355   9.433   4.642
78607SOL    HW137718  13.339   9.439   4.736
78607SOL    HW237719  13.447   9.409   4.634
78608SOL     OW37720   9.147   0.223   2.552
78608SOL    HW137721   9.178   0.191   2.637
78608SOL    HW237722   9.141   0.145   2.498
78609SOL     OW37723   5.451   9.586   3.765
78609SOL    HW137724   5.461   9.502   3.810
78609SOL    HW237725   5.484   9.570   3.676
78610SOL     OW37726  14.425  11.827   6.039
78610SOL    HW137727  14.497  11.874   5.998
78610SOL    HW237728  14.426  11.740   6.000
78611SOL     OW37729   4.207  14.128  10.668
78611SOL    HW137730   4.278  14.072  10.637
78611SOL    HW237731   4.137  14.067  10.692
78612SOL     OW37732   7.057  10.957   8.085
78612SOL    HW137733   7.097  11.031   8.039
78612SOL    HW237734   7.120  10.885   8.074
78613SOL     OW37735   4.166   7.649   6.656
78613SOL    HW137736   4.257   7.677   6.660
78613SOL    HW237737   4.119   7.708   6.714
78614SOL     OW37738   6.225   6.498  13.062
78614SOL    HW137739   6.192   6.485  12.973
78614SOL    HW237740   6.240   6.593  13.068
78615SOL     OW37741   6.789   6.889   0.924
78615SOL    HW137742   6.863   6.906   0.982
78615SOL    HW237743   6.725   6.842   0.978
78616SOL     OW37744  10.019   3.531  10.119
78616SOL    HW137745   9.941   3.554  10.170
78616SOL    HW237746   9.984   3.503  10.034
78617SOL     OW37747   7.698   3.783   6.772
78617SOL    HW137748   7.676   3.722   6.701
78617SOL    HW237749   7.793   3.792   6.767
78618SOL     OW37750  13.850  11.384   4.553
78618SOL    HW137751  13.841  11.347   4.466
78618SOL    HW237752  13.831  11.312   4.612
78619SOL     OW37753   5.471   7.455  14.817
78619SOL    HW137754   5.527   7.444  14.740
78619SOL    HW237755   5.468   7.368  14.857
78620SOL     OW37756   8.304   2.944   3.142
78620SOL    HW137757   8.296   2.885   3.068
78620SOL    HW237758   8.271   2.894   3.217
78621SOL     OW37759   2.932   8.903  12.107
78621SOL    HW137760   2.933   8.914  12.012
78621SOL    HW237761   2.855   8.848  12.124
78622SOL     OW37762   8.340   4.184   8.333
78622SOL    HW137763   8.246   4.193   8.314
78622SOL    HW237764   8.360   4.093   8.310
78623SOL     OW37765   8.044   8.505  12.173
78623SOL    HW137766   8.092   8.425  12.151
78623SOL    HW237767   8.047   8.510  12.268
78624SOL     OW37768  10.697  14.166   6.601
78624SOL    HW137769  10.722  14.242   6.547
78624SOL    HW237770  10.619  14.131   6.558
78625SOL     OW37771   0.489   4.954   0.760
78625SOL    HW137772   0.421   4.890   0.742
78625SOL    HW237773   0.448   5.039   0.744
78626SOL     OW37774   0.625  13.916   0.657
78626SOL    HW137775   0.692  13.967   0.703
78626SOL    HW237776   0.598  13.850   0.721
78627SOL     OW37777   5.518   7.921   3.836
78627SOL    HW137778   5.513   7.829   3.864
78627SOL    HW237779   5.477   7.921   3.749
78628SOL     OW37780   3.572  11.616   7.634
78628SOL    HW137781   3.639  11.554   7.662
78628SOL    HW237782   3.494  11.563   7.622
78629SOL     OW37783   4.333   0.864  13.974
78629SOL    HW137784   4.242   0.886  13.995
78629SOL    HW237785   4.385   0.912  14.039
78630SOL     OW37786   4.930   3.745   6.407
78630SOL    HW137787   4.855   3.763   6.464
78630SOL    HW237788   4.979   3.676   6.454
78631SOL     OW37789   1.654   8.055  12.032
78631SOL    HW137790   1.591   8.084  12.098
78631SOL    HW237791   1.739   8.086  12.064
78632SOL     OW37792  11.558   5.924   5.470
78632SOL    HW137793  11.467   5.901   5.488
78632SOL    HW237794  11.599   5.841   5.445
78633SOL     OW37795   4.585  11.144   5.346
78633SOL    HW137796   4.662  11.105   5.304
78633SOL    HW237797   4.512  11.118   5.291
78634SOL     OW37798  12.479  11.001   7.079
78634SOL    HW137799  12.550  11.064   7.094
78634SOL    HW237800  12.524  10.923   7.044
78635SOL     OW37801   9.765   5.832  13.719
78635SOL    HW137802   9.677   5.841  13.756
78635SOL    HW237803   9.759   5.755  13.662
78636SOL     OW37804   7.265   9.556   3.079
78636SOL    HW137805   7.275   9.596   2.992
78636SOL    HW237806   7.248   9.629   3.138
78637SOL     OW37807   9.571  12.202   9.043
78637SOL    HW137808   9.577  12.115   9.003
78637SOL    HW237809   9.491  12.198   9.096
78638SOL     OW37810   3.883   8.305   5.708
78638SOL    HW137811   3.921   8.361   5.641
78638SOL    HW237812   3.936   8.225   5.707
78639SOL     OW37813   0.524  11.093   7.626
78639SOL    HW137814   0.589  11.153   7.664
78639SOL    HW237815   0.575  11.035   7.569
78640SOL     OW37816   7.792   0.528   8.200
78640SOL    HW137817   7.750   0.593   8.144
78640SOL    HW237818   7.729   0.514   8.271
78641SOL     OW37819   8.255   7.324   0.211
78641SOL    HW137820   8.169   7.284   0.197
78641SOL    HW237821   8.309   7.292   0.139
78642SOL     OW37822   3.667  13.285   9.799
78642SOL    HW137823   3.605  13.337   9.851
78642SOL    HW237824   3.751  13.330   9.809
78643SOL     OW37825  11.429   6.923   5.764
78643SOL    HW137826  11.444   6.908   5.857
78643SOL    HW237827  11.363   6.858   5.740
78644SOL     OW37828  12.239  13.112  11.949
78644SOL    HW137829  12.254  13.206  11.960
78644SOL    HW237830  12.307  13.070  12.002
78645SOL     OW37831  11.914   4.812  12.195
78645SOL    HW137832  11.905   4.907  12.207
78645SOL    HW237833  11.939   4.779  12.281
78646SOL     OW37834  12.222   9.344   5.930
78646SOL    HW137835  12.155   9.315   5.992
78646SOL    HW237836  12.275   9.406   5.980
78647SOL     OW37837  11.430   3.633  10.807
78647SOL    HW137838  11.454   3.683  10.885
78647SOL    HW237839  11.509   3.582  10.786
78648SOL     OW37840   8.994   9.571   8.784
78648SOL    HW137841   9.066   9.509   8.795
78648SOL    HW237842   8.978   9.572   8.690
78649SOL     OW37843   6.885   3.695   3.683
78649SOL    HW137844   6.940   3.717   3.607
78649SOL    HW237845   6.838   3.776   3.703
78650SOL     OW37846   1.962   5.991  13.918
78650SOL    HW137847   1.893   5.942  13.873
78650SOL    HW237848   1.991   6.056  13.854
78651SOL     OW37849  13.628   6.320  13.434
78651SOL    HW137850  13.647   6.405  13.394
78651SOL    HW237851  13.573   6.275  13.369
78652SOL     OW37852   6.829   2.676   4.014
78652SOL    HW137853   6.868   2.757   3.980
78652SOL    HW237854   6.812   2.695   4.107
78653SOL     OW37855   8.928  12.484   2.037
78653SOL    HW137856   8.891  12.518   1.955
78653SOL    HW237857   8.854  12.441   2.080
78654SOL     OW37858   6.348   6.174  12.749
78654SOL    HW137859   6.376   6.088  12.719
78654SOL    HW237860   6.427   6.212  12.787
78655SOL     OW37861   6.410   1.906  11.470
78655SOL    HW137862   6.337   1.914  11.409
78655SOL    HW237863   6.390   1.968  11.540
78656SOL     OW37864   3.019  13.685   0.623
78656SOL    HW137865   3.019  13.604   0.672
78656SOL    HW237866   2.938  13.683   0.572
78657SOL     OW37867   9.551   1.478   4.297
78657SOL    HW137868   9.570   1.385   4.297
78657SOL    HW237869   9.544   1.501   4.204
78658SOL     OW37870   5.280   4.543  11.724
78658SOL    HW137871   5.353   4.605  11.718
78658SOL    HW237872   5.320   4.461  11.753
78659SOL     OW37873   2.260   6.940   5.484
78659SOL    HW137874   2.260   7.018   5.538
78659SOL    HW237875   2.171   6.936   5.448
78660SOL     OW37876  11.501  14.255   4.184
78660SOL    HW137877  11.467  14.248   4.273
78660SOL    HW237878  11.478  14.171   4.143
78661SOL     OW37879   3.532   1.388  14.578
78661SOL    HW137880   3.516   1.445  14.503
78661SOL    HW237881   3.445   1.367  14.611
78662SOL     OW37882   2.845   6.287   2.797
78662SOL    HW137883   2.937   6.274   2.775
78662SOL    HW237884   2.799   6.216   2.752
78663SOL     OW37885   6.594   4.281   2.809
78663SOL    HW137886   6.511   4.283   2.761
78663SOL    HW237887   6.612   4.187   2.821
78664SOL     OW37888   5.632  13.294  13.403
78664SOL    HW137889   5.593  13.207  13.408
78664SOL    HW237890   5.726  13.278  13.397
78665SOL     OW37891  11.145   3.509   2.243
78665SOL    HW137892  11.147   3.431   2.299
78665SOL    HW237893  11.149   3.582   2.304
78666SOL     OW37894   9.393   5.428  10.044
78666SOL    HW137895   9.329   5.482  10.090
78666SOL    HW237896   9.439   5.489   9.986
78667SOL     OW37897   2.542  12.826  10.974
78667SOL    HW137898   2.524  12.900  10.916
78667SOL    HW237899   2.492  12.845  11.053
78668SOL     OW37900   6.855   1.348   6.318
78668SOL    HW137901   6.776   1.300   6.342
78668SOL    HW237902   6.853   1.353   6.223
78669SOL     OW37903  14.178  12.335   7.471
78669SOL    HW137904  14.241  12.303   7.535
78669SOL    HW237905  14.101  12.279   7.482
78670SOL     OW37906   1.901  12.549  14.509
78670SOL    HW137907   1.954  12.629  14.507
78670SOL    HW237908   1.901  12.518  14.418
78671SOL     OW37909   4.527  12.647   4.457
78671SOL    HW137910   4.589  12.577   4.439
78671SOL    HW237911   4.499  12.678   4.371
78672SOL     OW37912  11.823   0.597  14.404
78672SOL    HW137913  11.825   0.530  14.335
78672SOL    HW237914  11.873   0.559  14.476
78673SOL     OW37915   7.651   8.571   9.838
78673SOL    HW137916   7.652   8.666   9.854
78673SOL    HW237917   7.650   8.563   9.743
78674SOL     OW37918   7.513  10.920   5.250
78674SOL    HW137919   7.446  10.852   5.260
78674SOL    HW237920   7.555  10.926   5.335
78675SOL     OW37921   3.111   4.909   5.950
78675SOL    HW137922   3.188   4.963   5.969
78675SOL    HW237923   3.140   4.852   5.878
78676SOL     OW37924  14.706   1.087  14.358
78676SOL    HW137925  14.761   1.040  14.296
78676SOL    HW237926  14.680   1.167  14.312
78677SOL     OW37927   5.173   0.039  11.434
78677SOL    HW137928   5.198  14.836  11.453
78677SOL    HW237929   5.133   0.070  11.515
78678SOL     OW37930   4.146  10.961  10.121
78678SOL    HW137931   4.114  11.007  10.044
78678SOL    HW237932   4.114  11.013  10.195
78679SOL     OW37933   1.551   8.285  10.406
78679SOL    HW137934   1.548   8.196  10.370
78679SOL    HW237935   1.528   8.341  10.332
78680SOL     OW37936   7.956   9.380  12.139
78680SOL    HW137937   7.902   9.458  12.148
78680SOL    HW237938   7.907   9.323  12.079
78681SOL     OW37939   6.849   2.549   6.142
78681SOL    HW137940   6.811   2.465   6.170
78681SOL    HW237941   6.775   2.597   6.105
78682SOL     OW37942   2.381  14.274   1.122
78682SOL    HW137943   2.461  14.222   1.129
78682SOL    HW237944   2.310  14.211   1.134
78683SOL     OW37945   2.863   6.674   1.102
78683SOL    HW137946   2.808   6.620   1.046
78683SOL    HW237947   2.949   6.632   1.099
78684SOL     OW37948  12.792   5.449   6.132
78684SOL    HW137949  12.735   5.525   6.119
78684SOL    HW237950  12.792   5.435   6.227
78685SOL     OW37951   9.100   8.009   8.778
78685SOL    HW137952   9.173   7.998   8.718
78685SOL    HW237953   9.057   8.089   8.749
78686SOL     OW37954   1.436   2.018  11.100
78686SOL    HW137955   1.477   1.993  11.183
78686SOL    HW237956   1.439   1.939  11.047
78687SOL     OW37957   4.707  14.565  13.136
78687SOL    HW137958   4.782  14.617  13.107
78687SOL    HW237959   4.746  14.495  13.189
78688SOL     OW37960  13.811  13.754   8.632
78688SOL    HW137961  13.731  13.708   8.609
78688SOL    HW237962  13.817  13.746   8.727
78689SOL     OW37963  12.785   7.611  11.364
78689SOL    HW137964  12.730   7.661  11.305
78689SOL    HW237965  12.740   7.614  11.448
78690SOL     OW37966  11.996   4.718  14.363
78690SOL    HW137967  11.935   4.789  14.384
78690SOL    HW237968  11.989   4.708  14.268
78691SOL     OW37969   4.821  10.948  10.676
78691SOL    HW137970   4.894  10.956  10.738
78691SOL    HW237971   4.812  10.853  10.661
78692SOL     OW37972  10.080   1.656  11.225
78692SOL    HW137973  10.101   1.664  11.318
78692SOL    HW237974  10.099   1.742  11.188
78693SOL     OW37975  14.212   3.498   6.346
78693SOL    HW137976  14.229   3.506   6.252
78693SOL    HW237977  14.124   3.533   6.357
78694SOL     OW37978  11.648   3.800   2.303
78694SOL    HW137979  11.743   3.802   2.311
78694SOL    HW237980  11.631   3.753   2.222
78695SOL     OW37981  13.751  10.079   2.899
78695SOL    HW137982  13.843  10.081   2.927
78695SOL    HW237983  13.745  10.147   2.831
78696SOL     OW37984   7.223   2.493  12.643
78696SOL    HW137985   7.225   2.564  12.579
78696SOL    HW237986   7.245   2.414  12.594
78697SOL     OW37987   7.447   7.871   0.448
78697SOL    HW137988   7.518   7.933   0.433
78697SOL    HW237989   7.380   7.895   0.384
78698SOL     OW37990   7.425  13.296   4.366
78698SOL    HW137991   7.389  13.380   4.338
78698SOL    HW237992   7.350  13.247   4.399
78699SOL     OW37993   4.563   3.584   1.221
78699SOL    HW137994   4.492   3.547   1.169
78699SOL    HW237995   4.579   3.518   1.289
78700SOL     OW37996   4.643   0.700   1.314
78700SOL    HW137997   4.635   0.645   1.236
78700SOL    HW237998   4.721   0.667   1.359
78701SOL     OW37999   4.341  13.083   4.539
78701SOL    HW138000   4.343  13.161   4.483
78701SOL    HW238001   4.297  13.017   4.486
78702SOL     OW38002   2.927   2.957   5.342
78702SOL    HW138003   2.989   2.906   5.291
78702SOL    HW238004   2.981   3.014   5.396
78703SOL     OW38005   0.688   8.656  14.128
78703SOL    HW138006   0.783   8.668  14.127
78703SOL    HW238007   0.674   8.578  14.181
78704SOL     OW38008   2.111   4.085   5.664
78704SOL    HW138009   2.136   4.003   5.705
78704SOL    HW238010   2.081   4.140   5.736
78705SOL     OW38011   7.241   1.351   4.930
78705SOL    HW138012   7.160   1.371   4.978
78705SOL    HW238013   7.248   1.256   4.933
78706SOL     OW38014   9.496   2.898   1.657
78706SOL    HW138015   9.450   2.830   1.608
78706SOL    HW238016   9.557   2.850   1.713
78707SOL     OW38017   5.747   3.696  13.707
78707SOL    HW138018   5.751   3.600  13.717
78707SOL    HW238019   5.815   3.717  13.644
78708SOL     OW38020   0.085  12.574  14.585
78708SOL    HW138021   0.087  12.501  14.523
78708SOL    HW238022  14.881  12.579  14.614
78709SOL     OW38023   3.909   1.590   0.724
78709SOL    HW138024   3.905   1.639   0.641
78709SOL    HW238025   3.987   1.623   0.767
78710SOL     OW38026   5.150  12.706   2.655
78710SOL    HW138027   5.155  12.630   2.713
78710SOL    HW238028   5.090  12.765   2.699
78711SOL     OW38029  12.007   8.590   2.609
78711SOL    HW138030  12.086   8.644   2.619
78711SOL    HW238031  11.960   8.630   2.536
78712SOL     OW38032  10.982  13.038  10.825
78712SOL    HW138033  10.999  13.130  10.847
78712SOL    HW238034  10.887  13.030  10.827
78713SOL     OW38035   7.047  10.638   0.776
78713SOL    HW138036   7.049  10.583   0.698
78713SOL    HW238037   7.082  10.723   0.747
78714SOL     OW38038   5.739   5.986  13.098
78714SOL    HW138039   5.676   6.058  13.105
78714SOL    HW238040   5.695   5.920  13.044
78715SOL     OW38041   5.404   7.397   7.548
78715SOL    HW138042   5.384   7.452   7.624
78715SOL    HW238043   5.361   7.314   7.566
78716SOL     OW38044   2.582   3.967   0.611
78716SOL    HW138045   2.491   3.953   0.635
78716SOL    HW238046   2.599   4.059   0.635
78717SOL     OW38047   8.369   5.573   2.537
78717SOL    HW138048   8.392   5.561   2.445
78717SOL    HW238049   8.430   5.517   2.585
78718SOL     OW38050   0.549  14.189  13.798
78718SOL    HW138051   0.467  14.213  13.842
78718SOL    HW238052   0.611  14.174  13.870
78719SOL     OW38053  13.301  14.563   7.102
78719SOL    HW138054  13.349  14.510   7.038
78719SOL    HW238055  13.278  14.500   7.171
78720SOL     OW38056   7.460   4.568   5.724
78720SOL    HW138057   7.478   4.549   5.816
78720SOL    HW238058   7.544   4.556   5.680
78721SOL     OW38059  11.262   3.440   8.628
78721SOL    HW138060  11.336   3.474   8.678
78721SOL    HW238061  11.217   3.518   8.596
78722SOL     OW38062  12.409   4.780   2.971
78722SOL    HW138063  12.314   4.783   2.982
78722SOL    HW238064  12.444   4.782   3.060
78723SOL     OW38065   4.831   5.427  11.291
78723SOL    HW138066   4.821   5.400  11.382
78723SOL    HW238067   4.921   5.405  11.269
78724SOL     OW38068  12.361   4.773  10.639
78724SOL    HW138069  12.337   4.826  10.715
78724SOL    HW238070  12.391   4.836  10.574
78725SOL     OW38071  10.151   9.963   4.274
78725SOL    HW138072  10.181  10.040   4.323
78725SOL    HW238073  10.222   9.945   4.212
78726SOL     OW38074   2.391  11.416  10.931
78726SOL    HW138075   2.409  11.453  10.844
78726SOL    HW238076   2.454  11.344  10.940
78727SOL     OW38077   7.309   7.350   3.606
78727SOL    HW138078   7.362   7.410   3.658
78727SOL    HW238079   7.232   7.401   3.581
78728SOL     OW38080  12.315   3.648   6.805
78728SOL    HW138081  12.329   3.701   6.726
78728SOL    HW238082  12.290   3.562   6.771
78729SOL     OW38083  11.301   3.864  10.448
78729SOL    HW138084  11.261   3.825  10.370
78729SOL    HW238085  11.319   3.954  10.423
78730SOL     OW38086   7.837  12.523  11.322
78730SOL    HW138087   7.868  12.468  11.250
78730SOL    HW238088   7.878  12.486  11.400
78731SOL     OW38089   6.509  12.712   0.125
78731SOL    HW138090   6.421  12.694   0.090
78731SOL    HW238091   6.500  12.796   0.170
78732SOL     OW38092   5.884   4.695   6.524
78732SOL    HW138093   5.886   4.708   6.618
78732SOL    HW238094   5.912   4.779   6.487
78733SOL     OW38095   5.626   9.408   3.040
78733SOL    HW138096   5.708   9.453   3.061
78733SOL    HW238097   5.599   9.447   2.957
78734SOL     OW38098   1.995   0.065   0.045
78734SOL    HW138099   1.976  14.874   0.097
78734SOL    HW238100   1.909   0.094   0.014
78735SOL     OW38101   4.313   2.223   4.601
78735SOL    HW138102   4.280   2.297   4.653
78735SOL    HW238103   4.292   2.246   4.510
78736SOL     OW38104   5.323   0.728   4.448
78736SOL    HW138105   5.403   0.708   4.497
78736SOL    HW238106   5.293   0.811   4.485
78737SOL     OW38107   9.806   2.079  11.185
78737SOL    HW138108   9.747   2.090  11.110
78737SOL    HW238109   9.770   2.005  11.233
78738SOL     OW38110  10.737   1.640  14.228
78738SOL    HW138111  10.679   1.707  14.195
78738SOL    HW238112  10.680   1.580  14.277
78739SOL     OW38113   2.122   8.010   4.036
78739SOL    HW138114   2.037   8.021   3.994
78739SOL    HW238115   2.185   8.036   3.970
78740SOL     OW38116   0.040  14.408   9.608
78740SOL    HW138117   0.009  14.497   9.589
78740SOL    HW238118   0.121  14.400   9.558
78741SOL     OW38119  14.683  10.085   5.843
78741SOL    HW138120  14.634  10.004   5.836
78741SOL    HW238121  14.753  10.066   5.906
78742SOL     OW38122   8.180   7.034   4.388
78742SOL    HW138123   8.125   7.069   4.458
78742SOL    HW238124   8.264   7.078   4.398
78743SOL     OW38125   0.982   9.266   3.001
78743SOL    HW138126   0.969   9.289   3.093
78743SOL    HW238127   0.894   9.261   2.965
78744SOL     OW38128   9.558  10.090   4.689
78744SOL    HW138129   9.563   9.994   4.685
78744SOL    HW238130   9.610  10.120   4.615
78745SOL     OW38131  11.309   5.836  11.764
78745SOL    HW138132  11.310   5.802  11.854
78745SOL    HW238133  11.265   5.768  11.714
78746SOL     OW38134  10.735  12.446   8.080
78746SOL    HW138135  10.671  12.377   8.064
78746SOL    HW238136  10.703  12.522   8.031
78747SOL     OW38137   2.851   2.883   6.432
78747SOL    HW138138   2.802   2.959   6.462
78747SOL    HW238139   2.804   2.853   6.355
78748SOL     OW38140   5.070  11.796  12.436
78748SOL    HW138141   5.017  11.876  12.436
78748SOL    HW238142   5.006  11.725  12.436
78749SOL     OW38143   4.296   4.917  14.602
78749SOL    HW138144   4.329   4.856  14.536
78749SOL    HW238145   4.318   4.876  14.686
78750SOL     OW38146   6.791   1.972   9.470
78750SOL    HW138147   6.800   1.977   9.375
78750SOL    HW238148   6.785   1.878   9.489
78751SOL     OW38149   6.763   2.465   3.861
78751SOL    HW138150   6.749   2.435   3.951
78751SOL    HW238151   6.775   2.560   3.869
78752SOL     OW38152   7.696   0.971   1.496
78752SOL    HW138153   7.775   0.920   1.477
78752SOL    HW238154   7.629   0.906   1.514
78753SOL     OW38155   3.712   1.098   7.621
78753SOL    HW138156   3.628   1.145   7.612
78753SOL    HW238157   3.778   1.167   7.616
78754SOL     OW38158   8.103   4.282   2.110
78754SOL    HW138159   8.168   4.226   2.150
78754SOL    HW238160   8.133   4.371   2.128
78755SOL     OW38161   3.017   6.102   7.490
78755SOL    HW138162   3.078   6.029   7.482
78755SOL    HW238163   2.933   6.061   7.510
78756SOL     OW38164   8.298  11.320   7.206
78756SOL    HW138165   8.363  11.332   7.137
78756SOL    HW238166   8.259  11.235   7.187
78757SOL     OW38167   8.217   7.418  10.110
78757SOL    HW138168   8.305   7.414  10.074
78757SOL    HW238169   8.165   7.458  10.040
78758SOL     OW38170  14.130  14.628  10.199
78758SOL    HW138171  14.077  14.620  10.278
78758SOL    HW238172  14.152  14.538  10.175
78759SOL     OW38173   2.348  11.263  13.180
78759SOL    HW138174   2.339  11.261  13.084
78759SOL    HW238175   2.266  11.225  13.212
78760SOL     OW38176   9.447   5.172   8.874
78760SOL    HW138177   9.433   5.097   8.932
78760SOL    HW238178   9.502   5.137   8.804
78761SOL     OW38179  12.618  11.472   6.112
78761SOL    HW138180  12.594  11.391   6.067
78761SOL    HW238181  12.613  11.450   6.205
78762SOL     OW38182   6.766   1.109  13.895
78762SOL    HW138183   6.749   1.100  13.989
78762SOL    HW238184   6.680   1.116  13.855
78763SOL     OW38185   1.582   7.071  10.031
78763SOL    HW138186   1.665   7.034  10.059
78763SOL    HW238187   1.528   6.995  10.010
78764SOL     OW38188   8.757   9.941   3.904
78764SOL    HW138189   8.775   9.951   3.810
78764SOL    HW238190   8.830   9.889   3.937
78765SOL     OW38191  10.293   1.553   5.599
78765SOL    HW138192  10.385   1.536   5.581
78765SOL    HW238193  10.248   1.537   5.516
78766SOL     OW38194   4.157   1.270   8.455
78766SOL    HW138195   4.143   1.365   8.452
78766SOL    HW238196   4.148   1.248   8.548
78767SOL     OW38197   0.034   6.308  14.171
78767SOL    HW138198   0.067   6.398  14.172
78767SOL    HW238199   0.107   6.256  14.137
78768SOL     OW38200   2.032  10.425   9.484
78768SOL    HW138201   2.031  10.485   9.409
78768SOL    HW238202   1.943  10.427   9.517
78769SOL     OW38203  13.468   7.557   1.012
78769SOL    HW138204  13.494   7.601   1.093
78769SOL    HW238205  13.542   7.569   0.953
78770SOL     OW38206  14.159  13.324   0.325
78770SOL    HW138207  14.096  13.394   0.344
78770SOL    HW238208  14.182  13.288   0.411
78771SOL     OW38209   5.144  14.290   1.658
78771SOL    HW138210   5.076  14.258   1.717
78771SOL    HW238211   5.099  14.354   1.603
78772SOL     OW38212   8.041   6.409   8.413
78772SOL    HW138213   8.070   6.490   8.455
78772SOL    HW238214   8.006   6.437   8.329
78773SOL     OW38215   8.954  10.882   6.797
78773SOL    HW138216   9.014  10.851   6.865
78773SOL    HW238217   8.867  10.860   6.830
78774SOL     OW38218  14.393  10.738  10.307
78774SOL    HW138219  14.337  10.806  10.343
78774SOL    HW238220  14.438  10.701  10.382
78775SOL     OW38221   8.562  12.681   1.899
78775SOL    HW138222   8.599  12.769   1.907
78775SOL    HW238223   8.554  12.650   1.989
78776SOL     OW38224   5.045   5.193   8.760
78776SOL    HW138225   5.006   5.143   8.687
78776SOL    HW238226   5.001   5.278   8.757
78777SOL     OW38227   7.136   3.155   3.153
78777SOL    HW138228   7.177   3.142   3.067
78777SOL    HW238229   7.078   3.231   3.141
78778SOL     OW38230  13.910  13.883   6.847
78778SOL    HW138231  13.900  13.833   6.766
78778SOL    HW238232  13.821  13.895   6.879
78779SOL     OW38233   4.459  10.390  10.484
78779SOL    HW138234   4.379  10.426  10.445
78779SOL    HW238235   4.468  10.303  10.446
78780SOL     OW38236  11.742   5.860   5.122
78780SOL    HW138237  11.721   5.923   5.053
78780SOL    HW238238  11.657   5.824   5.149
78781SOL     OW38239   0.348  10.371  13.739
78781SOL    HW138240   0.253  10.381  13.737
78781SOL    HW238241   0.382  10.456  13.712
78782SOL     OW38242   8.459  11.599   9.218
78782SOL    HW138243   8.534  11.579   9.162
78782SOL    HW238244   8.497  11.609   9.305
78783SOL     OW38245  11.706  12.405   4.081
78783SOL    HW138246  11.627  12.362   4.115
78783SOL    HW238247  11.763  12.414   4.158
78784SOL     OW38248   2.948  11.627  14.164
78784SOL    HW138249   2.951  11.552  14.105
78784SOL    HW238250   3.039  11.653  14.175
78785SOL     OW38251   3.533  14.610  10.027
78785SOL    HW138252   3.607  14.637   9.974
78785SOL    HW238253   3.479  14.688  10.036
78786SOL     OW38254   2.692   8.068   4.842
78786SOL    HW138255   2.775   8.078   4.889
78786SOL    HW238256   2.673   8.155   4.809
78787SOL     OW38257  14.421  14.202  12.807
78787SOL    HW138258  14.446  14.286  12.845
78787SOL    HW238259  14.395  14.223  12.717
78788SOL     OW38260   7.002   8.797  14.558
78788SOL    HW138261   7.009   8.785  14.653
78788SOL    HW238262   6.925   8.747  14.533
78789SOL     OW38263   1.344  10.047   7.134
78789SOL    HW138264   1.292  10.127   7.147
78789SOL    HW238265   1.388  10.033   7.218
78790SOL     OW38266   8.770   2.305   1.322
78790SOL    HW138267   8.685   2.348   1.323
78790SOL    HW238268   8.792   2.293   1.414
78791SOL     OW38269   6.178   3.842   0.040
78791SOL    HW138270   6.169   3.786  14.850
78791SOL    HW238271   6.098   3.893   0.043
78792SOL     OW38272   1.416   0.371   2.514
78792SOL    HW138273   1.433   0.367   2.608
78792SOL    HW238274   1.363   0.450   2.502
78793SOL     OW38275  12.565  14.366  13.211
78793SOL    HW138276  12.500  14.348  13.279
78793SOL    HW238277  12.620  14.435  13.248
78794SOL     OW38278   5.659   9.200   4.952
78794SOL    HW138279   5.709   9.241   5.022
78794SOL    HW238280   5.585   9.259   4.937
78795SOL     OW38281  13.936   4.179   9.148
78795SOL    HW138282  13.899   4.163   9.061
78795SOL    HW238283  14.025   4.208   9.131
78796SOL     OW38284   2.517   9.995   0.786
78796SOL    HW138285   2.552   9.913   0.821
78796SOL    HW238286   2.497   9.974   0.694
78797SOL     OW38287   9.941   3.070  10.316
78797SOL    HW138288   9.976   3.147  10.272
78797SOL    HW238289   9.849   3.067  10.293
78798SOL     OW38290   4.195  11.351   0.577
78798SOL    HW138291   4.267  11.320   0.632
78798SOL    HW238292   4.145  11.410   0.633
78799SOL     OW38293  10.014   2.955   1.748
78799SOL    HW138294   9.968   3.004   1.679
78799SOL    HW238295  10.092   2.921   1.704
78800SOL     OW38296   3.819   5.704   6.073
78800SOL    HW138297   3.893   5.686   6.015
78800SOL    HW238298   3.801   5.797   6.061
78801SOL     OW38299   0.253   8.436   2.472
78801SOL    HW138300   0.175   8.403   2.427
78801SOL    HW238301   0.243   8.531   2.472
78802SOL     OW38302   4.319   8.717  14.760
78802SOL    HW138303   4.410   8.692  14.742
78802SOL    HW238304   4.276   8.636  14.785
78803SOL     OW38305   8.235   1.200   2.594
78803SOL    HW138306   8.188   1.271   2.550
78803SOL    HW238307   8.168   1.134   2.610
78804SOL     OW38308   6.569   3.152  13.132
78804SOL    HW138309   6.603   3.214  13.195
78804SOL    HW238310   6.639   3.087  13.121
78805SOL     OW38311   3.701   5.972   5.996
78805SOL    HW138312   3.723   5.936   5.910
78805SOL    HW238313   3.650   6.051   5.976
78806SOL     OW38314   6.219   6.431  10.386
78806SOL    HW138315   6.171   6.511  10.406
78806SOL    HW238316   6.220   6.427  10.291
78807SOL     OW38317   6.369   5.173   4.365
78807SOL    HW138318   6.415   5.111   4.308
78807SOL    HW238319   6.429   5.248   4.372
78808SOL     OW38320  13.481  12.270  10.553
78808SOL    HW138321  13.564  12.305  10.585
78808SOL    HW238322  13.497  12.176  10.541
78809SOL     OW38323   5.767  10.357   8.805
78809SOL    HW138324   5.751  10.451   8.812
78809SOL    HW238325   5.684  10.316   8.829
78810SOL     OW38326   9.959   2.858   2.757
78810SOL    HW138327   9.992   2.945   2.735
78810SOL    HW238328   9.864   2.870   2.765
78811SOL     OW38329   8.378   1.353   1.675
78811SOL    HW138330   8.313   1.282   1.670
78811SOL    HW238331   8.330   1.431   1.647
78812SOL     OW38332   6.406   1.728   8.523
78812SOL    HW138333   6.409   1.721   8.618
78812SOL    HW238334   6.328   1.781   8.505
78813SOL     OW38335   3.606   5.708   4.714
78813SOL    HW138336   3.699   5.718   4.691
78813SOL    HW238337   3.559   5.747   4.641
78814SOL     OW38338  14.137   2.042  11.269
78814SOL    HW138339  14.198   1.976  11.302
78814SOL    HW238340  14.179   2.125  11.291
78815SOL     OW38341   0.425  12.039  13.632
78815SOL    HW138342   0.447  12.028  13.540
78815SOL    HW238343   0.471  12.119  13.658
78816SOL     OW38344  12.035   2.037  14.584
78816SOL    HW138345  12.031   2.126  14.547
78816SOL    HW238346  12.066   1.983  14.511
78817SOL     OW38347   3.721   9.982   0.398
78817SOL    HW138348   3.756   9.916   0.338
78817SOL    HW238349   3.626   9.972   0.392
78818SOL     OW38350   0.478  11.941  14.299
78818SOL    HW138351   0.516  11.856  14.278
78818SOL    HW238352   0.549  12.004  14.284
78819SOL     OW38353  10.607   1.851   1.924
78819SOL    HW138354  10.639   1.832   2.012
78819SOL    HW238355  10.686   1.856   1.870
78820SOL     OW38356   3.940   4.165   1.188
78820SOL    HW138357   3.966   4.089   1.137
78820SOL    HW238358   3.874   4.132   1.249
78821SOL     OW38359   0.595   9.887   2.504
78821SOL    HW138360   0.581   9.931   2.588
78821SOL    HW238361   0.564   9.949   2.439
78822SOL     OW38362  12.008   9.680  13.934
78822SOL    HW138363  11.993   9.677  14.028
78822SOL    HW238364  11.928   9.643  13.896
78823SOL     OW38365   9.585  11.258   8.115
78823SOL    HW138366   9.607  11.197   8.186
78823SOL    HW238367   9.667  11.267   8.066
78824SOL     OW38368   2.514   6.077   6.855
78824SOL    HW138369   2.506   5.993   6.900
78824SOL    HW238370   2.603   6.107   6.876
78825SOL     OW38371   8.966   6.305   4.773
78825SOL    HW138372   8.930   6.220   4.748
78825SOL    HW238373   8.890   6.357   4.798
78826SOL     OW38374   9.723   3.813   6.210
78826SOL    HW138375   9.788   3.779   6.149
78826SOL    HW238376   9.657   3.744   6.216
78827SOL     OW38377   3.074   4.495  10.473
78827SOL    HW138378   3.114   4.571  10.430
78827SOL    HW238379   2.980   4.513  10.469
78828SOL     OW38380   4.089   3.990  10.428
78828SOL    HW138381   4.039   4.013  10.506
78828SOL    HW238382   4.149   4.063  10.415
78829SOL     OW38383   0.695   7.928   4.023
78829SOL    HW138384   0.759   7.901   3.958
78829SOL    HW238385   0.643   7.850   4.041
78830SOL     OW38386  13.183   3.076   4.764
78830SOL    HW138387  13.202   3.169   4.750
78830SOL    HW238388  13.094   3.074   4.801
78831SOL     OW38389  10.094   3.864   6.646
78831SOL    HW138390  10.036   3.872   6.571
78831SOL    HW238391  10.155   3.793   6.622
78832SOL     OW38392  14.406   5.565  10.548
78832SOL    HW138393  14.448   5.583  10.632
78832SOL    HW238394  14.361   5.482  10.561
78833SOL     OW38395  14.278   2.878  12.319
78833SOL    HW138396  14.318   2.803  12.276
78833SOL    HW238397  14.340   2.950  12.305
78834SOL     OW38398  10.454   2.874  13.664
78834SOL    HW138399  10.393   2.802  13.651
78834SOL    HW238400  10.513   2.843  13.732
78835SOL     OW38401   7.320   1.019   4.101
78835SOL    HW138402   7.408   0.983   4.106
78835SOL    HW238403   7.263   0.946   4.127
78836SOL     OW38404   5.122   4.337   0.169
78836SOL    HW138405   5.128   4.339   0.264
78836SOL    HW238406   5.061   4.266   0.150
78837SOL     OW38407   0.486   6.361  10.200
78837SOL    HW138408   0.421   6.424  10.231
78837SOL    HW238409   0.509   6.310  10.278
78838SOL     OW38410   6.159   0.966  13.341
78838SOL    HW138411   6.212   0.960  13.262
78838SOL    HW238412   6.157   0.877  13.376
78839SOL     OW38413   4.381  14.792  10.541
78839SOL    HW138414   4.420  14.741  10.612
78839SOL    HW238415   4.455  14.832  10.497
78840SOL     OW38416   4.984  13.183  13.291
78840SOL    HW138417   5.035  13.237  13.351
78840SOL    HW238418   4.985  13.096  13.330
78841SOL     OW38419   2.916   8.076  13.820
78841SOL    HW138420   2.822   8.081  13.805
78841SOL    HW238421   2.952   8.153  13.776
78842SOL     OW38422  11.182   0.673  12.343
78842SOL    HW138423  11.110   0.645  12.399
78842SOL    HW238424  11.204   0.761  12.374
78843SOL     OW38425   3.446   2.041  10.519
78843SOL    HW138426   3.361   1.998  10.509
78843SOL    HW238427   3.455   2.054  10.613
78844SOL     OW38428   9.958  10.162   0.847
78844SOL    HW138429   9.887  10.227   0.854
78844SOL    HW238430   9.913  10.081   0.823
78845SOL     OW38431   1.190   5.405  10.552
78845SOL    HW138432   1.184   5.324  10.501
78845SOL    HW238433   1.110   5.407  10.604
78846SOL     OW38434  14.459   1.855   8.119
78846SOL    HW138435  14.555   1.856   8.116
78846SOL    HW238436  14.437   1.900   8.200
78847SOL     OW38437  13.192   9.366   8.244
78847SOL    HW138438  13.169   9.447   8.198
78847SOL    HW238439  13.275   9.385   8.286
78848SOL     OW38440   9.216   0.579  14.870
78848SOL    HW138441   9.291   0.520  14.872
78848SOL    HW238442   9.221   0.627   0.066
78849SOL     OW38443  14.234   8.814   5.812
78849SOL    HW138444  14.308   8.870   5.837
78849SOL    HW238445  14.268   8.725   5.820
78850SOL     OW38446  13.107   6.846  13.705
78850SOL    HW138447  13.047   6.773  13.718
78850SOL    HW238448  13.122   6.849  13.611
78851SOL     OW38449   3.835   1.587   2.479
78851SOL    HW138450   3.926   1.571   2.505
78851SOL    HW238451   3.785   1.517   2.520
78852SOL     OW38452   2.509   4.746   2.695
78852SOL    HW138453   2.463   4.697   2.626
78852SOL    HW238454   2.600   4.720   2.687
78853SOL     OW38455   7.110  14.302   5.486
78853SOL    HW138456   7.157  14.343   5.558
78853SOL    HW238457   7.083  14.217   5.521
78854SOL     OW38458  10.828  10.405  13.067
78854SOL    HW138459  10.847  10.481  13.013
78854SOL    HW238460  10.733  10.392  13.057
78855SOL     OW38461   4.440  11.309  13.943
78855SOL    HW138462   4.489  11.239  13.900
78855SOL    HW238463   4.501  11.383  13.944
78856SOL     OW38464  13.432   7.564   4.651
78856SOL    HW138465  13.461   7.561   4.743
78856SOL    HW238466  13.367   7.494   4.644
78857SOL     OW38467  12.785   0.575  10.813
78857SOL    HW138468  12.807   0.626  10.891
78857SOL    HW238469  12.718   0.626  10.769
78858SOL     OW38470  12.786   2.135   0.869
78858SOL    HW138471  12.770   2.186   0.948
78858SOL    HW238472  12.832   2.057   0.899
78859SOL     OW38473  14.632   9.501  13.093
78859SOL    HW138474  14.549   9.549  13.095
78859SOL    HW238475  14.615   9.427  13.036
78860SOL     OW38476  12.088  10.127   5.068
78860SOL    HW138477  12.001  10.144   5.104
78860SOL    HW238478  12.115  10.212   5.031
78861SOL     OW38479  10.029   9.873   6.792
78861SOL    HW138480  10.001   9.867   6.884
78861SOL    HW238481  10.119   9.904   6.797
78862SOL     OW38482   8.412  12.228  12.521
78862SOL    HW138483   8.433  12.157  12.460
78862SOL    HW238484   8.473  12.298  12.498
78863SOL     OW38485   0.353   6.793  10.874
78863SOL    HW138486   0.367   6.724  10.938
78863SOL    HW238487   0.389   6.872  10.915
78864SOL     OW38488   5.460  12.747   6.094
78864SOL    HW138489   5.401  12.687   6.049
78864SOL    HW238490   5.446  12.832   6.052
78865SOL     OW38491   7.454   9.298   6.170
78865SOL    HW138492   7.409   9.217   6.194
78865SOL    HW238493   7.526   9.306   6.232
78866SOL     OW38494  14.348   9.158  12.860
78866SOL    HW138495  14.378   9.068  12.854
78866SOL    HW238496  14.257   9.155  12.830
78867SOL     OW38497   8.396   2.890   7.235
78867SOL    HW138498   8.398   2.922   7.325
78867SOL    HW238499   8.309   2.913   7.203
78868SOL     OW38500   9.790   2.819   4.216
78868SOL    HW138501   9.883   2.839   4.212
78868SOL    HW238502   9.768   2.787   4.129
78869SOL     OW38503   6.584   9.929   6.592
78869SOL    HW138504   6.567  10.021   6.610
78869SOL    HW238505   6.517   9.905   6.528
78870SOL     OW38506   2.186   1.737   1.173
78870SOL    HW138507   2.167   1.689   1.253
78870SOL    HW238508   2.188   1.829   1.200
78871SOL     OW38509   2.179   9.216   9.000
78871SOL    HW138510   2.130   9.138   9.027
78871SOL    HW238511   2.270   9.196   9.022
78872SOL     OW38512   2.666   8.115  11.098
78872SOL    HW138513   2.719   8.130  11.020
78872SOL    HW238514   2.708   8.168  11.166
78873SOL     OW38515  14.848  14.308  10.951
78873SOL    HW138516   0.002  14.388  10.919
78873SOL    HW238517   0.033  14.247  10.966
78874SOL     OW38518   0.270   9.463  10.939
78874SOL    HW138519   0.222   9.385  10.966
78874SOL    HW238520   0.346   9.467  10.997
78875SOL     OW38521  14.099  10.631  14.756
78875SOL    HW138522  14.151  10.587  14.824
78875SOL    HW238523  14.059  10.559  14.707
78876SOL     OW38524   5.954   0.439   3.823
78876SOL    HW138525   6.021   0.483   3.771
78876SOL    HW238526   6.002   0.397   3.894
78877SOL     OW38527   0.702  14.792  10.323
78877SOL    HW138528   0.732  14.750  10.404
78877SOL    HW238529   0.622  14.838  10.348
78878SOL     OW38530  13.224   6.756   2.954
78878SOL    HW138531  13.288   6.823   2.978
78878SOL    HW238532  13.151   6.771   3.014
78879SOL     OW38533   9.968   2.159   3.236
78879SOL    HW138534   9.884   2.120   3.259
78879SOL    HW238535  10.032   2.110   3.288
78880SOL     OW38536  13.875  10.287   5.674
78880SOL    HW138537  13.839  10.221   5.615
78880SOL    HW238538  13.968  10.290   5.653
78881SOL     OW38539   6.791   6.986   1.701
78881SOL    HW138540   6.882   6.994   1.671
78881SOL    HW238541   6.771   7.071   1.739
78882SOL     OW38542   2.888   4.382   8.953
78882SOL    HW138543   2.979   4.412   8.959
78882SOL    HW238544   2.894   4.294   8.916
78883SOL     OW38545  10.701  10.443   9.976
78883SOL    HW138546  10.697  10.502  10.051
78883SOL    HW238547  10.750  10.367  10.007
78884SOL     OW38548   0.232  13.226   0.565
78884SOL    HW138549   0.231  13.318   0.590
78884SOL    HW238550   0.173  13.184   0.627
78885SOL     OW38551   4.596   0.254   7.384
78885SOL    HW138552   4.540   0.182   7.413
78885SOL    HW238553   4.635   0.288   7.465
78886SOL     OW38554   6.838   4.324   0.988
78886SOL    HW138555   6.888   4.342   0.909
78886SOL    HW238556   6.901   4.329   1.059
78887SOL     OW38557   4.314   4.853  11.901
78887SOL    HW138558   4.341   4.885  11.987
78887SOL    HW238559   4.372   4.896  11.839
78888SOL     OW38560   7.809   0.390   3.482
78888SOL    HW138561   7.845   0.478   3.482
78888SOL    HW238562   7.859   0.344   3.550
78889SOL     OW38563   2.483  10.252   5.792
78889SOL    HW138564   2.486  10.347   5.777
78889SOL    HW238565   2.462  10.215   5.706
78890SOL     OW38566   9.466   2.576   5.749
78890SOL    HW138567   9.415   2.591   5.828
78890SOL    HW238568   9.401   2.568   5.679
78891SOL     OW38569   2.277   2.165   5.155
78891SOL    HW138570   2.290   2.258   5.171
78891SOL    HW238571   2.196   2.144   5.201
78892SOL     OW38572   7.949   3.237  13.454
78892SOL    HW138573   7.964   3.159  13.507
78892SOL    HW238574   7.939   3.308  13.517
78893SOL     OW38575  14.616   7.435   4.183
78893SOL    HW138576  14.535   7.487   4.188
78893SOL    HW238577  14.686   7.497   4.202
78894SOL     OW38578  13.789   3.859   7.070
78894SOL    HW138579  13.748   3.891   6.990
78894SOL    HW238580  13.865   3.809   7.040
78895SOL     OW38581  14.429   7.247   2.809
78895SOL    HW138582  14.474   7.180   2.862
78895SOL    HW238583  14.466   7.330   2.840
78896SOL     OW38584   0.546   2.196  14.660
78896SOL    HW138585   0.482   2.181  14.591
78896SOL    HW238586   0.618   2.137  14.640
78897SOL     OW38587   3.415   4.642   1.102
78897SOL    HW138588   3.374   4.602   1.025
78897SOL    HW238589   3.342   4.678   1.152
78898SOL     OW38590  10.914   9.861   5.202
78898SOL    HW138591  10.934   9.783   5.149
78898SOL    HW238592  10.825   9.845   5.233
78899SOL     OW38593  14.877   6.017  10.828
78899SOL    HW138594  14.814   5.991  10.895
78899SOL    HW238595   0.041   5.938  10.811
78900SOL     OW38596  13.539  10.897  14.493
78900SOL    HW138597  13.616  10.846  14.515
78900SOL    HW238598  13.533  10.892  14.398
78901SOL     OW38599   9.812   3.630  11.754
78901SOL    HW138600   9.760   3.650  11.677
78901SOL    HW238601   9.829   3.714  11.795
78902SOL     OW38602  13.418   9.189   3.881
78902SOL    HW138603  13.474   9.263   3.856
78902SOL    HW238604  13.480   9.122   3.911
78903SOL     OW38605   5.250   5.072  14.061
78903SOL    HW138606   5.204   4.997  14.098
78903SOL    HW238607   5.188   5.112  14.000
78904SOL     OW38608   5.468   5.575   7.182
78904SOL    HW138609   5.524   5.648   7.155
78904SOL    HW238610   5.415   5.611   7.253
78905SOL     OW38611   9.517  14.199  12.826
78905SOL    HW138612   9.432  14.160  12.846
78905SOL    HW238613   9.579  14.128  12.838
78906SOL     OW38614  11.107   1.377   9.328
78906SOL    HW138615  11.093   1.453   9.385
78906SOL    HW238616  11.018   1.347   9.307
78907SOL     OW38617   0.236   2.594   4.095
78907SOL    HW138618   0.250   2.653   4.169
78907SOL    HW238619   0.320   2.593   4.050
78908SOL     OW38620   2.388   1.139   3.792
78908SOL    HW138621   2.440   1.073   3.839
78908SOL    HW238622   2.298   1.108   3.801
78909SOL     OW38623   5.556   0.547   9.106
78909SOL    HW138624   5.471   0.511   9.081
78909SOL    HW238625   5.618   0.509   9.044
78910SOL     OW38626  12.110  11.616  13.602
78910SOL    HW138627  12.063  11.699  13.602
78910SOL    HW238628  12.184  11.630  13.543
78911SOL     OW38629   7.731  10.910   6.089
78911SOL    HW138630   7.742  10.920   5.995
78911SOL    HW238631   7.818  10.927   6.126
78912SOL     OW38632  14.527   9.903   3.325
78912SOL    HW138633  14.606   9.921   3.376
78912SOL    HW238634  14.474   9.847   3.381
78913SOL     OW38635   3.769   3.517   6.989
78913SOL    HW138636   3.840   3.453   6.978
78913SOL    HW238637   3.813   3.596   7.022
78914SOL     OW38638   8.786   4.038   7.717
78914SOL    HW138639   8.827   4.050   7.631
78914SOL    HW238640   8.709   4.094   7.715
78915SOL     OW38641   1.271   0.820   4.371
78915SOL    HW138642   1.205   0.797   4.437
78915SOL    HW238643   1.223   0.820   4.288
78916SOL     OW38644  11.129  13.240  11.437
78916SOL    HW138645  11.177  13.168  11.477
78916SOL    HW238646  11.065  13.198  11.380
78917SOL     OW38647  14.420  13.295  10.041
78917SOL    HW138648  14.396  13.357  10.110
78917SOL    HW238649  14.515  13.299  10.037
78918SOL     OW38650   2.530  11.726  10.437
78918SOL    HW138651   2.440  11.760  10.432
78918SOL    HW238652   2.523  11.635  10.410
78919SOL     OW38653   9.203   9.443   9.201
78919SOL    HW138654   9.205   9.499   9.278
78919SOL    HW238655   9.160   9.496   9.134
78920SOL     OW38656   3.519   1.536   5.182
78920SOL    HW138657   3.531   1.466   5.246
78920SOL    HW238658   3.519   1.492   5.097
78921SOL     OW38659  11.062  14.078   5.905
78921SOL    HW138660  10.969  14.084   5.928
78921SOL    HW238661  11.066  14.112   5.815
78922SOL     OW38662   4.424   1.563   7.300
78922SOL    HW138663   4.489   1.511   7.348
78922SOL    HW238664   4.368   1.498   7.257
78923SOL     OW38665  12.727   0.355   3.432
78923SOL    HW138666  12.794   0.423   3.430
78923SOL    HW238667  12.752   0.294   3.362
78924SOL     OW38668   7.725  11.704   2.694
78924SOL    HW138669   7.697  11.665   2.777
78924SOL    HW238670   7.780  11.637   2.653
78925SOL     OW38671  10.032   9.887  11.220
78925SOL    HW138672   9.955   9.906  11.167
78925SOL    HW238673  10.100   9.864  11.157
78926SOL     OW38674  12.362   3.313   6.977
78926SOL    HW138675  12.304   3.362   6.919
78926SOL    HW238676  12.450   3.336   6.947
78927SOL     OW38677   7.626  12.032  14.239
78927SOL    HW138678   7.609  12.022  14.146
78927SOL    HW238679   7.719  12.057  14.244
78928SOL     OW38680   3.388  14.701   7.892
78928SOL    HW138681   3.460  14.711   7.830
78928SOL    HW238682   3.339  14.783   7.885
78929SOL     OW38683   5.788   8.528   7.313
78929SOL    HW138684   5.784   8.461   7.244
78929SOL    HW238685   5.715   8.586   7.294
78930SOL     OW38686   4.291  13.133  10.384
78930SOL    HW138687   4.241  13.120  10.465
78930SOL    HW238688   4.340  13.214  10.398
78931SOL     OW38689   7.280   7.135   4.243
78931SOL    HW138690   7.240   7.048   4.242
78931SOL    HW238691   7.206   7.196   4.246
78932SOL     OW38692  12.928   4.998   9.992
78932SOL    HW138693  12.952   4.955   9.910
78932SOL    HW238694  12.842   5.037   9.975
78933SOL     OW38695  11.495  10.686   6.226
78933SOL    HW138696  11.569  10.654   6.278
78933SOL    HW238697  11.533  10.751   6.167
78934SOL     OW38698  13.908   8.888   0.686
78934SOL    HW138699  13.888   8.829   0.614
78934SOL    HW238700  13.878   8.974   0.655
78935SOL     OW38701   5.321  12.894   4.082
78935SOL    HW138702   5.370  12.920   4.004
78935SOL    HW238703   5.388  12.868   4.146
78936SOL     OW38704   8.447   7.487   3.825
78936SOL    HW138705   8.467   7.569   3.780
78936SOL    HW238706   8.422   7.513   3.913
78937SOL     OW38707  11.560  10.985   1.637
78937SOL    HW138708  11.531  10.894   1.634
78937SOL    HW238709  11.480  11.035   1.654
78938SOL     OW38710   1.581   2.443   1.255
78938SOL    HW138711   1.669   2.425   1.222
78938SOL    HW238712   1.535   2.485   1.183
78939SOL     OW38713  14.766  11.602   2.343
78939SOL    HW138714  14.766  11.549   2.423
78939SOL    HW238715  14.822  11.677   2.364
78940SOL     OW38716  13.325  13.900   2.153
78940SOL    HW138717  13.331  13.995   2.163
78940SOL    HW238718  13.250  13.874   2.206
78941SOL     OW38719   9.595   6.984   6.635
78941SOL    HW138720   9.677   6.934   6.639
78941SOL    HW238721   9.539   6.942   6.701
78942SOL     OW38722   7.795  11.647   3.192
78942SOL    HW138723   7.798  11.616   3.102
78942SOL    HW238724   7.854  11.722   3.194
78943SOL     OW38725   5.672  10.053   7.195
78943SOL    HW138726   5.687  10.130   7.140
78943SOL    HW238727   5.713   9.981   7.147
78944SOL     OW38728   9.399   3.212   8.164
78944SOL    HW138729   9.383   3.119   8.175
78944SOL    HW238730   9.314   3.253   8.179
78945SOL     OW38731   5.373   2.655  12.935
78945SOL    HW138732   5.305   2.719  12.957
78945SOL    HW238733   5.451   2.688  12.979
78946SOL     OW38734   2.955   2.711  10.937
78946SOL    HW138735   2.950   2.775  10.866
78946SOL    HW238736   2.864   2.698  10.964
78947SOL     OW38737   0.282   2.342  11.311
78947SOL    HW138738   0.334   2.263  11.327
78947SOL    HW238739   0.322   2.382  11.234
78948SOL     OW38740   5.677   1.757   9.189
78948SOL    HW138741   5.746   1.816   9.219
78948SOL    HW238742   5.696   1.743   9.096
78949SOL     OW38743  12.717   7.836   8.405
78949SOL    HW138744  12.786   7.801   8.349
78949SOL    HW238745  12.760   7.903   8.458
78950SOL     OW38746  11.634  11.011   2.678
78950SOL    HW138747  11.730  11.015   2.675
78950SOL    HW238748  11.607  11.019   2.586
78951SOL     OW38749  12.673   7.543   3.887
78951SOL    HW138750  12.623   7.620   3.859
78951SOL    HW238751  12.704   7.565   3.975
78952SOL     OW38752  12.757   4.172  13.238
78952SOL    HW138753  12.777   4.084  13.205
78952SOL    HW238754  12.680   4.160  13.294
78953SOL     OW38755   1.835  12.111   2.326
78953SOL    HW138756   1.784  12.130   2.404
78953SOL    HW238757   1.919  12.081   2.359
78954SOL     OW38758  14.601   1.446   7.199
78954SOL    HW138759  14.629   1.440   7.108
78954SOL    HW238760  14.617   1.359   7.235
78955SOL     OW38761  14.036   1.336   8.003
78955SOL    HW138762  14.047   1.411   7.945
78955SOL    HW238763  14.123   1.321   8.039
78956SOL     OW38764   4.962   3.176   4.916
78956SOL    HW138765   4.878   3.157   4.874
78956SOL    HW238766   5.003   3.091   4.928
78957SOL     OW38767   4.436  13.694  13.109
78957SOL    HW138768   4.368  13.640  13.068
78957SOL    HW238769   4.456  13.760  13.043
78958SOL     OW38770   9.710   1.494  14.221
78958SOL    HW138771   9.729   1.579  14.259
78958SOL    HW238772   9.734   1.431  14.289
78959SOL     OW38773   2.061   3.247   0.267
78959SOL    HW138774   2.077   3.162   0.308
78959SOL    HW238775   2.016   3.298   0.335
78960SOL     OW38776  13.496   0.013  11.652
78960SOL    HW138777  13.476   0.094  11.698
78960SOL    HW238778  13.415  14.877  11.608
78961SOL     OW38779   9.243   9.594   4.979
78961SOL    HW138780   9.316   9.531   4.978
78961SOL    HW238781   9.212   9.593   5.070
78962SOL     OW38782   8.066   0.048   1.931
78962SOL    HW138783   8.071   0.101   1.851
78962SOL    HW238784   8.156   0.039   1.959
78963SOL     OW38785   2.434   2.750  14.089
78963SOL    HW138786   2.389   2.759  14.173
78963SOL    HW238787   2.366   2.722  14.028
78964SOL     OW38788   7.000  12.119   4.865
78964SOL    HW138789   6.988  12.073   4.782
78964SOL    HW238790   6.912  12.140   4.895
78965SOL     OW38791  13.025   6.659   6.314
78965SOL    HW138792  13.046   6.570   6.343
78965SOL    HW238793  12.930   6.665   6.320
78966SOL     OW38794   7.492   6.290  13.903
78966SOL    HW138795   7.519   6.313  13.992
78966SOL    HW238796   7.489   6.195  13.903
78967SOL     OW38797   2.408   6.623   0.081
78967SOL    HW138798   2.501   6.641   0.067
78967SOL    HW238799   2.382   6.681   0.152
78968SOL     OW38800  12.020   3.801  14.580
78968SOL    HW138801  11.986   3.740  14.646
78968SOL    HW238802  12.106   3.765  14.556
78969SOL     OW38803  14.295   1.548  13.571
78969SOL    HW138804  14.337   1.515  13.492
78969SOL    HW238805  14.311   1.642  13.569
78970SOL     OW38806   2.690   9.047   0.118
78970SOL    HW138807   2.624   8.978   0.108
78970SOL    HW238808   2.735   9.025   0.200
78971SOL     OW38809  14.602   8.348   2.035
78971SOL    HW138810  14.537   8.297   1.986
78971SOL    HW238811  14.679   8.350   1.978
78972SOL     OW38812   1.246   7.354  11.725
78972SOL    HW138813   1.239   7.342  11.630
78972SOL    HW238814   1.340   7.359  11.741
78973SOL     OW38815   3.645   9.948   6.105
78973SOL    HW138816   3.551   9.961   6.091
78973SOL    HW238817   3.686   9.984   6.026
78974SOL     OW38818   7.783  13.156   4.661
78974SOL    HW138819   7.740  13.089   4.608
78974SOL    HW238820   7.720  13.228   4.666
78975SOL     OW38821   3.007   8.115   3.779
78975SOL    HW138822   2.965   8.198   3.804
78975SOL    HW238823   3.095   8.140   3.750
78976SOL     OW38824  14.419   4.426   0.122
78976SOL    HW138825  14.427   4.518   0.094
78976SOL    HW238826  14.482   4.418   0.194
78977SOL     OW38827   1.954   9.774  12.277
78977SOL    HW138828   2.013   9.774  12.353
78977SOL    HW238829   1.891   9.844  12.296
78978SOL     OW38830   1.552   3.895  13.983
78978SOL    HW138831   1.540   3.990  13.992
78978SOL    HW238832   1.467   3.862  13.954
78979SOL     OW38833   2.370   7.372  14.108
78979SOL    HW138834   2.444   7.366  14.169
78979SOL    HW238835   2.411   7.384  14.022
78980SOL     OW38836   2.819  10.250   7.329
78980SOL    HW138837   2.876  10.240   7.253
78980SOL    HW238838   2.858  10.322   7.379
78981SOL     OW38839  10.643   8.198   9.738
78981SOL    HW138840  10.618   8.232   9.824
78981SOL    HW238841  10.677   8.274   9.691
78982SOL     OW38842   8.723   4.201   5.091
78982SOL    HW138843   8.684   4.133   5.145
78982SOL    HW238844   8.814   4.207   5.120
78983SOL     OW38845   3.437  12.321  10.496
78983SOL    HW138846   3.434  12.408  10.534
78983SOL    HW238847   3.523  12.316  10.452
78984SOL     OW38848  10.891  13.070   8.583
78984SOL    HW138849  10.967  13.015   8.602
78984SOL    HW238850  10.921  13.128   8.514
78985SOL     OW38851   9.638   0.957  11.861
78985SOL    HW138852   9.594   0.900  11.925
78985SOL    HW238853   9.584   1.036  11.859
78986SOL     OW38854   9.563   4.146  11.208
78986SOL    HW138855   9.565   4.059  11.249
78986SOL    HW238856   9.534   4.205  11.277
78987SOL     OW38857  10.949   8.388   9.966
78987SOL    HW138858  10.936   8.297   9.940
78987SOL    HW238859  11.043   8.396   9.981
78988SOL     OW38860  11.777  12.587   1.025
78988SOL    HW138861  11.744  12.658   0.970
78988SOL    HW238862  11.736  12.602   1.110
78989SOL     OW38863   1.342  13.522   9.579
78989SOL    HW138864   1.345  13.427   9.566
78989SOL    HW238865   1.248  13.543   9.576
78990SOL     OW38866  10.241  10.465   1.600
78990SOL    HW138867  10.291  10.540   1.633
78990SOL    HW238868  10.305  10.412   1.552
78991SOL     OW38869  10.435  13.203   1.285
78991SOL    HW138870  10.503  13.140   1.309
78991SOL    HW238871  10.353  13.160   1.309
78992SOL     OW38872   1.407  10.007  14.225
78992SOL    HW138873   1.341   9.955  14.271
78992SOL    HW238874   1.470   9.942  14.193
78993SOL     OW38875   9.263   4.992   0.270
78993SOL    HW138876   9.187   5.046   0.293
78993SOL    HW238877   9.232   4.902   0.275
78994SOL     OW38878   1.801   4.078   8.839
78994SOL    HW138879   1.855   4.146   8.880
78994SOL    HW238880   1.716   4.120   8.827
78995SOL     OW38881   9.155   2.739   1.965
78995SOL    HW138882   9.097   2.805   1.927
78995SOL    HW238883   9.184   2.686   1.891
78996SOL     OW38884   6.279  10.123  11.087
78996SOL    HW138885   6.341  10.161  11.149
78996SOL    HW238886   6.196  10.166  11.107
78997SOL     OW38887   9.000   7.729  14.436
78997SOL    HW138888   9.071   7.665  14.426
78997SOL    HW238889   8.963   7.710  14.522
78998SOL     OW38890  11.730   3.697  13.848
78998SOL    HW138891  11.822   3.672  13.855
78998SOL    HW238892  11.729   3.789  13.871
78999SOL     OW38893   9.672   5.778   0.818
78999SOL    HW138894   9.614   5.780   0.894
78999SOL    HW238895   9.619   5.812   0.746
79000SOL     OW38896  14.375  10.440   3.484
79000SOL    HW138897  14.437  10.513   3.483
79000SOL    HW238898  14.322  10.452   3.405
79001SOL     OW38899   4.950   0.000   0.684
79001SOL    HW138900   4.910   0.035   0.764
79001SOL    HW238901   5.033   0.047   0.677
79002SOL     OW38902   1.548   4.750   2.489
79002SOL    HW138903   1.556   4.654   2.481
79002SOL    HW238904   1.623   4.784   2.440
79003SOL     OW38905   5.372   6.167  14.046
79003SOL    HW138906   5.341   6.236  14.104
79003SOL    HW238907   5.467   6.176  14.048
79004SOL     OW38908   4.220   9.306   5.993
79004SOL    HW138909   4.127   9.294   5.974
79004SOL    HW238910   4.256   9.343   5.913
79005SOL     OW38911   5.032   8.341  12.014
79005SOL    HW138912   4.958   8.326  11.956
79005SOL    HW238913   5.084   8.261  12.008
79006SOL     OW38914   6.039  10.316   1.291
79006SOL    HW138915   6.114  10.374   1.280
79006SOL    HW238916   5.978  10.342   1.223
79007SOL     OW38917   7.508  11.607   5.747
79007SOL    HW138918   7.441  11.658   5.792
79007SOL    HW238919   7.466  11.523   5.729
79008SOL     OW38920   8.337  14.553   1.560
79008SOL    HW138921   8.265  14.493   1.578
79008SOL    HW238922   8.358  14.593   1.645
79009SOL     OW38923  14.412   2.127   4.110
79009SOL    HW138924  14.407   2.044   4.159
79009SOL    HW238925  14.497   2.124   4.066
79010SOL     OW38926  10.580   3.384  11.136
79010SOL    HW138927  10.534   3.343  11.208
79010SOL    HW238928  10.511   3.416  11.077
79011SOL     OW38929   8.394   9.289  11.216
79011SOL    HW138930   8.464   9.305  11.279
79011SOL    HW238931   8.340   9.368  11.220
79012SOL     OW38932   2.396   6.420  10.590
79012SOL    HW138933   2.482   6.460  10.571
79012SOL    HW238934   2.334   6.493  10.584
79013SOL     OW38935   3.898   9.342  11.519
79013SOL    HW138936   3.805   9.321  11.508
79013SOL    HW238937   3.900   9.399  11.596
79014SOL     OW38938   5.086  11.017  12.745
79014SOL    HW138939   5.100  11.112  12.754
79014SOL    HW238940   5.040  11.008  12.661
79015SOL     OW38941   2.468   7.227  10.061
79015SOL    HW138942   2.428   7.305  10.101
79015SOL    HW238943   2.561   7.235  10.082
79016SOL     OW38944  11.646   4.615  14.717
79016SOL    HW138945  11.634   4.693  14.663
79016SOL    HW238946  11.727   4.575  14.685
79017SOL     OW38947   5.416   3.069   2.076
79017SOL    HW138948   5.488   3.008   2.088
79017SOL    HW238949   5.414   3.087   1.982
79018SOL     OW38950   7.207  12.779  13.151
79018SOL    HW138951   7.221  12.789  13.245
79018SOL    HW238952   7.261  12.847  13.111
79019SOL     OW38953   9.642  10.924  13.481
79019SOL    HW138954   9.615  10.962  13.397
79019SOL    HW238955   9.641  10.830  13.466
79020SOL     OW38956  14.087  10.934   4.722
79020SOL    HW138957  14.093  10.946   4.628
79020SOL    HW238958  14.177  10.914   4.750
79021SOL     OW38959  13.146  12.296   9.797
79021SOL    HW138960  13.201  12.225   9.765
79021SOL    HW238961  13.080  12.307   9.728
79022SOL     OW38962  13.355  12.554  14.805
79022SOL    HW138963  13.436  12.555  14.857
79022SOL    HW238964  13.385  12.557  14.714
79023SOL     OW38965   1.049   7.781  12.458
79023SOL    HW138966   1.070   7.706  12.514
79023SOL    HW238967   1.014   7.741  12.378
79024SOL     OW38968   8.272   7.323   3.446
79024SOL    HW138969   8.334   7.368   3.388
79024SOL    HW238970   8.233   7.255   3.391
79025SOL     OW38971   5.609   0.239  11.903
79025SOL    HW138972   5.613   0.285  11.819
79025SOL    HW238973   5.643   0.302  11.967
79026SOL     OW38974  11.947   1.684   0.951
79026SOL    HW138975  11.985   1.650   1.032
79026SOL    HW238976  12.022   1.711   0.899
79027SOL     OW38977   8.375   5.865   1.127
79027SOL    HW138978   8.419   5.792   1.172
79027SOL    HW238979   8.440   5.935   1.128
79028SOL     OW38980   1.019   1.514   6.608
79028SOL    HW138981   1.082   1.495   6.678
79028SOL    HW238982   1.024   1.609   6.596
79029SOL     OW38983   8.264  12.503  12.952
79029SOL    HW138984   8.257  12.571  12.885
79029SOL    HW238985   8.262  12.551  13.035
79030SOL     OW38986   2.876   3.151  12.161
79030SOL    HW138987   2.807   3.197  12.113
79030SOL    HW238988   2.958   3.186  12.125
79031SOL     OW38989  10.629   1.381   2.194
79031SOL    HW138990  10.713   1.421   2.169
79031SOL    HW238991  10.589   1.445   2.253
79032SOL     OW38992   5.856  12.649   0.575
79032SOL    HW138993   5.903  12.626   0.495
79032SOL    HW238994   5.897  12.595   0.643
79033SOL     OW38995   1.068  14.421   5.652
79033SOL    HW138996   1.163  14.411   5.652
79033SOL    HW238997   1.046  14.438   5.744
79034SOL     OW38998  13.288   9.616   8.528
79034SOL    HW138999  13.234   9.695   8.524
79034SOL    HW239000  13.226   9.547   8.551
79035SOL     OW39001   5.412  10.187   2.482
79035SOL    HW139002   5.400  10.281   2.475
79035SOL    HW239003   5.344  10.149   2.426
79036SOL     OW39004   9.296  14.012  14.374
79036SOL    HW139005   9.366  14.012  14.439
79036SOL    HW239006   9.341  14.020  14.290
79037SOL     OW39007   3.864  14.880   0.191
79037SOL    HW139008   3.817   0.018   0.271
79037SOL    HW239009   3.841   0.060   0.127
79038SOL     OW39010  11.483  11.603  11.341
79038SOL    HW139011  11.461  11.573  11.253
79038SOL    HW239012  11.502  11.696  11.330
79039SOL     OW39013  12.642   1.793   2.702
79039SOL    HW139014  12.636   1.735   2.778
79039SOL    HW239015  12.724   1.841   2.713
79040SOL     OW39016   0.976  11.950   9.616
79040SOL    HW139017   1.006  11.952   9.525
79040SOL    HW239018   0.881  11.952   9.610
79041SOL     OW39019   2.404   6.176  11.322
79041SOL    HW139020   2.470   6.186  11.253
79041SOL    HW239021   2.421   6.089  11.359
79042SOL     OW39022   8.731   4.597  14.526
79042SOL    HW139023   8.774   4.665  14.476
79042SOL    HW239024   8.689   4.541  14.460
79043SOL     OW39025   6.192  10.338  10.491
79043SOL    HW139026   6.133  10.409  10.516
79043SOL    HW239027   6.144  10.288  10.425
79044SOL     OW39028  10.312   5.727  13.638
79044SOL    HW139029  10.257   5.654  13.609
79044SOL    HW239030  10.369   5.744  13.563
79045SOL     OW39031  13.805   2.424   4.203
79045SOL    HW139032  13.745   2.392   4.135
79045SOL    HW239033  13.750   2.479   4.259
79046SOL     OW39034  10.651   2.991   0.749
79046SOL    HW139035  10.648   3.029   0.661
79046SOL    HW239036  10.726   3.032   0.791
79047SOL     OW39037   0.187   6.624  13.224
79047SOL    HW139038   0.245   6.576  13.284
79047SOL    HW239039   0.126   6.670  13.282
79048SOL     OW39040   2.030   5.593   9.478
79048SOL    HW139041   1.935   5.591   9.492
79048SOL    HW239042   2.054   5.684   9.489
79049SOL     OW39043   7.485  12.662  14.052
79049SOL    HW139044   7.550  12.614  14.001
79049SOL    HW239045   7.405  12.610  14.043
79050SOL     OW39046   4.424   0.859   1.324
79050SOL    HW139047   4.445   0.923   1.256
79050SOL    HW239048   4.501   0.802   1.328
79051SOL     OW39049   6.689  11.453   6.533
79051SOL    HW139050   6.777  11.419   6.519
79051SOL    HW239051   6.655  11.402   6.606
79052SOL     OW39052  12.995   3.387   1.326
79052SOL    HW139053  12.984   3.430   1.241
79052SOL    HW239054  13.084   3.413   1.353
79053SOL     OW39055  13.870   7.176   8.729
79053SOL    HW139056  13.787   7.215   8.702
79053SOL    HW239057  13.893   7.116   8.658
79054SOL     OW39058   1.680   2.535   8.290
79054SOL    HW139059   1.749   2.594   8.259
79054SOL    HW239060   1.607   2.593   8.311
79055SOL     OW39061   4.342   6.915   2.933
79055SOL    HW139062   4.313   7.004   2.954
79055SOL    HW239063   4.425   6.928   2.886
79056SOL     OW39064  10.172   5.515  14.847
79056SOL    HW139065  10.246   5.557  14.803
79056SOL    HW239066  10.191   5.421  14.841
79057SOL     OW39067   9.089   2.676   8.174
79057SOL    HW139068   9.159   2.611   8.177
79057SOL    HW239069   9.090   2.709   8.084
79058SOL     OW39070   9.049   1.343   8.772
79058SOL    HW139071   9.085   1.431   8.783
79058SOL    HW239072   9.061   1.301   8.857
79059SOL     OW39073   5.246   3.830   1.085
79059SOL    HW139074   5.178   3.766   1.106
79059SOL    HW239075   5.266   3.814   0.993
79060SOL     OW39076   4.616  12.840   4.927
79060SOL    HW139077   4.672  12.762   4.931
79060SOL    HW239078   4.528  12.805   4.918
79061SOL     OW39079   0.206   5.301  12.260
79061SOL    HW139080   0.218   5.238  12.331
79061SOL    HW239081   0.147   5.367  12.297
79062SOL     OW39082   5.119   2.767  13.965
79062SOL    HW139083   5.074   2.821  13.900
79062SOL    HW239084   5.080   2.792  14.048
79063SOL     OW39085  14.873   7.963  12.366
79063SOL    HW139086   0.027   8.044  12.396
79063SOL    HW239087  14.779   7.979  12.377
79064SOL     OW39088   0.026   5.182  11.752
79064SOL    HW139089  14.825   5.163  11.719
79064SOL    HW239090   0.040   5.118  11.821
79065SOL     OW39091   3.219   8.599   9.726
79065SOL    HW139092   3.153   8.665   9.751
79065SOL    HW239093   3.258   8.572   9.809
79066SOL     OW39094   4.605  11.783  11.842
79066SOL    HW139095   4.558  11.701  11.856
79066SOL    HW239096   4.698  11.758  11.841
79067SOL     OW39097   1.185   2.647   0.890
79067SOL    HW139098   1.095   2.678   0.881
79067SOL    HW239099   1.190   2.571   0.831
79068SOL     OW39100  11.151   2.522  10.184
79068SOL    HW139101  11.119   2.517  10.274
79068SOL    HW239102  11.073   2.539  10.131
79069SOL     OW39103   5.074   0.501   3.776
79069SOL    HW139104   5.149   0.467   3.726
79069SOL    HW239105   5.106   0.503   3.866
79070SOL     OW39106  13.121  12.485  10.266
79070SOL    HW139107  13.051  12.466  10.204
79070SOL    HW239108  13.187  12.417  10.249
79071SOL     OW39109   9.970  11.937   1.442
79071SOL    HW139110  10.043  11.995   1.422
79071SOL    HW239111   9.896  11.995   1.459
79072SOL     OW39112  14.708  14.625   0.655
79072SOL    HW139113  14.732  14.647   0.565
79072SOL    HW239114  14.667  14.539   0.649
79073SOL     OW39115   6.276  10.714   1.917
79073SOL    HW139116   6.219  10.654   1.869
79073SOL    HW239117   6.237  10.721   2.004
79074SOL     OW39118  12.182  11.663   7.316
79074SOL    HW139119  12.246  11.592   7.305
79074SOL    HW239120  12.112  11.625   7.369
79075SOL     OW39121  13.428   8.808  12.140
79075SOL    HW139122  13.481   8.884  12.164
79075SOL    HW239123  13.392   8.830  12.054
79076SOL     OW39124   8.570   0.208   1.474
79076SOL    HW139125   8.537   0.135   1.527
79076SOL    HW239126   8.506   0.278   1.488
79077SOL     OW39127   1.077   7.369  13.703
79077SOL    HW139128   1.052   7.383  13.794
79077SOL    HW239129   1.127   7.287  13.704
79078SOL     OW39130   4.461   4.157   8.271
79078SOL    HW139131   4.395   4.131   8.207
79078SOL    HW239132   4.412   4.174   8.351
79079SOL     OW39133   1.700  13.670  11.087
79079SOL    HW139134   1.612  13.661  11.122
79079SOL    HW239135   1.694  13.634  10.998
79080SOL     OW39136  14.844   0.751  10.127
79080SOL    HW139137  14.813   0.834  10.092
79080SOL    HW239138  14.828   0.688  10.058
79081SOL     OW39139  13.780   6.202   0.508
79081SOL    HW139140  13.867   6.198   0.468
79081SOL    HW239141  13.777   6.125   0.566
79082SOL     OW39142   6.285   5.523   8.181
79082SOL    HW139143   6.357   5.468   8.214
79082SOL    HW239144   6.225   5.531   8.254
79083SOL     OW39145  13.432  11.249  11.831
79083SOL    HW139146  13.495  11.290  11.890
79083SOL    HW239147  13.481  11.181  11.786
79084SOL     OW39148   4.877   0.164   9.196
79084SOL    HW139149   4.791   0.165   9.154
79084SOL    HW239150   4.895   0.071   9.211
79085SOL     OW39151   2.283  12.152   5.126
79085SOL    HW139152   2.290  12.068   5.173
79085SOL    HW239153   2.224  12.204   5.180
79086SOL     OW39154   9.295   2.521   2.194
79086SOL    HW139155   9.366   2.505   2.132
79086SOL    HW239156   9.218   2.532   2.139
79087SOL     OW39157  14.183   3.281  13.887
79087SOL    HW139158  14.184   3.198  13.840
79087SOL    HW239159  14.090   3.304  13.894
79088SOL     OW39160   2.508   2.239   1.881
79088SOL    HW139161   2.568   2.301   1.923
79088SOL    HW239162   2.529   2.154   1.921
79089SOL     OW39163   9.059   2.392   4.094
79089SOL    HW139164   9.124   2.428   4.154
79089SOL    HW239165   8.990   2.356   4.151
79090SOL     OW39166  10.520   2.682   5.124
79090SOL    HW139167  10.540   2.636   5.205
79090SOL    HW239168  10.424   2.679   5.118
79091SOL     OW39169   7.995   7.318  12.400
79091SOL    HW139170   8.085   7.328  12.433
79091SOL    HW239171   7.948   7.277  12.473
79092SOL     OW39172   8.443  14.797   1.007
79092SOL    HW139173   8.414  14.791   0.916
79092SOL    HW239174   8.416  14.715   1.047
79093SOL     OW39175   6.984   2.881   3.690
79093SOL    HW139176   6.978   2.972   3.658
79093SOL    HW239177   6.920   2.834   3.637
79094SOL     OW39178   5.187  10.437  10.205
79094SOL    HW139179   5.174  10.343  10.219
79094SOL    HW239180   5.233  10.466  10.283
79095SOL     OW39181   8.772   3.165  12.961
79095SOL    HW139182   8.782   3.239  12.902
79095SOL    HW239183   8.835   3.100  12.929
79096SOL     OW39184   1.576  13.856   3.508
79096SOL    HW139185   1.641  13.818   3.449
79096SOL    HW239186   1.619  13.854   3.594
79097SOL     OW39187  13.295  14.716  12.331
79097SOL    HW139188  13.277  14.809  12.317
79097SOL    HW239189  13.352  14.714  12.408
79098SOL     OW39190   4.860   4.698  10.510
79098SOL    HW139191   4.917   4.634  10.551
79098SOL    HW239192   4.786   4.647  10.477
79099SOL     OW39193   3.668   9.321  14.353
79099SOL    HW139194   3.588   9.372  14.339
79099SOL    HW239195   3.653   9.275  14.436
79100SOL     OW39196  10.077  14.203  10.469
79100SOL    HW139197   9.984  14.224  10.475
79100SOL    HW239198  10.121  14.268  10.523
79101SOL     OW39199   5.565   9.767  11.420
79101SOL    HW139200   5.552   9.858  11.448
79101SOL    HW239201   5.477   9.735  11.401
79102SOL     OW39202  13.433  10.197   3.291
79102SOL    HW139203  13.482  10.136   3.235
79102SOL    HW239204  13.501  10.242   3.341
79103SOL     OW39205   9.379  11.302   5.576
79103SOL    HW139206   9.456  11.345   5.539
79103SOL    HW239207   9.354  11.236   5.511
79104SOL     OW39208   2.717  12.190  11.517
79104SOL    HW139209   2.770  12.155  11.589
79104SOL    HW239210   2.738  12.133  11.443
79105SOL     OW39211  11.728  14.009   2.566
79105SOL    HW139212  11.823  14.019   2.565
79105SOL    HW239213  11.708  13.971   2.651
79106SOL     OW39214  10.476   8.291  12.137
79106SOL    HW139215  10.467   8.353  12.064
79106SOL    HW239216  10.498   8.347  12.212
79107SOL     OW39217   7.611   1.472   8.145
79107SOL    HW139218   7.530   1.468   8.095
79107SOL    HW239219   7.675   1.509   8.084
79108SOL     OW39220   2.346  12.547  14.313
79108SOL    HW139221   2.437  12.567  14.289
79108SOL    HW239222   2.305  12.521  14.230
79109SOL     OW39223  11.547   4.738   4.206
79109SOL    HW139224  11.629   4.735   4.157
79109SOL    HW239225  11.567   4.789   4.284
79110SOL     OW39226   0.832  14.051   1.502
79110SOL    HW139227   0.747  14.092   1.487
79110SOL    HW239228   0.843  14.050   1.597
79111SOL     OW39229   8.721  13.778  14.711
79111SOL    HW139230   8.679  13.698  14.742
79111SOL    HW239231   8.808  13.777  14.751
79112SOL     OW39232   9.506  13.319  11.430
79112SOL    HW139233   9.417  13.350  11.412
79112SOL    HW239234   9.519  13.246  11.370
79113SOL     OW39235   7.384  11.613   4.455
79113SOL    HW139236   7.440  11.605   4.378
79113SOL    HW239237   7.368  11.523   4.483
79114SOL     OW39238  10.231   7.242   2.254
79114SOL    HW139239  10.244   7.153   2.223
79114SOL    HW239240  10.206   7.292   2.176
79115SOL     OW39241  14.389   4.375   4.835
79115SOL    HW139242  14.355   4.374   4.746
79115SOL    HW239243  14.449   4.450   4.838
79116SOL     OW39244   7.748   0.529   3.821
79116SOL    HW139245   7.757   0.615   3.861
79116SOL    HW239246   7.779   0.541   3.731
79117SOL     OW39247  14.225  10.761   2.347
79117SOL    HW139248  14.174  10.716   2.281
79117SOL    HW239249  14.186  10.736   2.431
79118SOL     OW39250   1.185   9.361   0.585
79118SOL    HW139251   1.247   9.389   0.653
79118SOL    HW239252   1.215   9.273   0.561
79119SOL     OW39253   4.690   3.342   0.144
79119SOL    HW139254   4.717   3.315   0.232
79119SOL    HW239255   4.594   3.335   0.145
79120SOL     OW39256   8.457   0.009   2.591
79120SOL    HW139257   8.537  14.849   2.567
79120SOL    HW239258   8.387  14.849   2.547
79121SOL     OW39259   3.035   1.656   3.881
79121SOL    HW139260   3.128   1.669   3.899
79121SOL    HW239261   3.027   1.562   3.864
79122SOL     OW39262   9.105   0.090   7.606
79122SOL    HW139263   9.113  14.882   7.616
79122SOL    HW239264   9.185   0.116   7.560
79123SOL     OW39265  11.760  12.785   6.853
79123SOL    HW139266  11.769  12.868   6.807
79123SOL    HW239267  11.745  12.721   6.783
79124SOL     OW39268   5.028   8.938  13.653
79124SOL    HW139269   5.094   8.939  13.583
79124SOL    HW239270   5.040   8.853  13.696
79125SOL     OW39271   8.091  11.700   8.922
79125SOL    HW139272   8.088  11.716   9.016
79125SOL    HW239273   8.150  11.767   8.888
79126SOL     OW39274  13.174  13.736   2.325
79126SOL    HW139275  13.103  13.793   2.354
79126SOL    HW239276  13.143  13.699   2.242
79127SOL     OW39277   0.366   3.783   4.277
79127SOL    HW139278   0.458   3.797   4.255
79127SOL    HW239279   0.317   3.832   4.212
79128SOL     OW39280   3.771   9.479   0.073
79128SOL    HW139281   3.735   9.413   0.014
79128SOL    HW239282   3.695   9.512   0.122
79129SOL     OW39283  12.011   1.275  12.591
79129SOL    HW139284  11.990   1.194  12.544
79129SOL    HW239285  11.947   1.277  12.663
79130SOL     OW39286   4.725   4.228  10.225
79130SOL    HW139287   4.716   4.323  10.212
79130SOL    HW239288   4.780   4.200  10.152
79131SOL     OW39289   2.487   1.310   4.741
79131SOL    HW139290   2.401   1.321   4.782
79131SOL    HW239291   2.536   1.254   4.801
79132SOL     OW39292   9.540   8.020   2.321
79132SOL    HW139293   9.600   8.045   2.251
79132SOL    HW239294   9.593   8.021   2.400
79133SOL     OW39295  12.079   1.657  11.365
79133SOL    HW139296  12.020   1.719  11.409
79133SOL    HW239297  12.078   1.579  11.421
79134SOL     OW39298  11.794   9.604  13.774
79134SOL    HW139299  11.754   9.528  13.816
79134SOL    HW239300  11.730   9.632  13.708
79135SOL     OW39301  13.563  12.622  13.839
79135SOL    HW139302  13.546  12.690  13.904
79135SOL    HW239303  13.643  12.650  13.795
79136SOL     OW39304  11.668  14.279  14.602
79136SOL    HW139305  11.626  14.361  14.628
79136SOL    HW239306  11.632  14.260  14.515
79137SOL     OW39307   7.509  13.179   9.412
79137SOL    HW139308   7.420  13.208   9.431
79137SOL    HW239309   7.559  13.259   9.397
79138SOL     OW39310  14.600  10.664   8.181
79138SOL    HW139311  14.601  10.746   8.132
79138SOL    HW239312  14.690  10.632   8.177
79139SOL     OW39313   1.703   5.950   6.837
79139SOL    HW139314   1.697   6.036   6.879
79139SOL    HW239315   1.796   5.934   6.827
79140SOL     OW39316   7.410   0.066   8.549
79140SOL    HW139317   7.350   0.070   8.623
79140SOL    HW239318   7.427   0.157   8.526
79141SOL     OW39319  10.787  12.279  10.788
79141SOL    HW139320  10.777  12.363  10.832
79141SOL    HW239321  10.698  12.248  10.774
79142SOL     OW39322   0.212  10.689  11.678
79142SOL    HW139323   0.300  10.727  11.680
79142SOL    HW239324   0.157  10.754  11.723
79143SOL     OW39325   9.612   7.944   4.139
79143SOL    HW139326   9.530   7.994   4.130
79143SOL    HW239327   9.681   8.009   4.129
79144SOL     OW39328   5.519   9.027   6.429
79144SOL    HW139329   5.580   8.992   6.494
79144SOL    HW239330   5.570   9.091   6.380
79145SOL     OW39331  12.039   7.237  11.578
79145SOL    HW139332  12.027   7.143  11.594
79145SOL    HW239333  12.016   7.279  11.661
79146SOL     OW39334   2.267   9.380   5.120
79146SOL    HW139335   2.242   9.302   5.169
79146SOL    HW239336   2.204   9.447   5.147
79147SOL     OW39337   4.706   7.181  10.518
79147SOL    HW139338   4.689   7.214  10.606
79147SOL    HW239339   4.760   7.249  10.477
79148SOL     OW39340  14.079   8.810   3.053
79148SOL    HW139341  14.082   8.718   3.082
79148SOL    HW239342  14.096   8.806   2.959
79149SOL     OW39343  14.360  13.046   6.680
79149SOL    HW139344  14.450  13.018   6.664
79149SOL    HW239345  14.369  13.118   6.743
79150SOL     OW39346  12.928   7.761   5.925
79150SOL    HW139347  12.917   7.855   5.916
79150SOL    HW239348  12.947   7.730   5.836
79151SOL     OW39349   4.510   3.203   8.222
79151SOL    HW139350   4.439   3.263   8.198
79151SOL    HW239351   4.507   3.134   8.157
79152SOL     OW39352   7.184  13.444   3.616
79152SOL    HW139353   7.237  13.372   3.582
79152SOL    HW239354   7.119  13.401   3.671
79153SOL     OW39355   8.744   5.880   7.245
79153SOL    HW139356   8.795   5.878   7.164
79153SOL    HW239357   8.706   5.968   7.248
79154SOL     OW39358   9.020  10.884   6.319
79154SOL    HW139359   9.059  10.848   6.398
79154SOL    HW239360   9.093  10.893   6.258
79155SOL     OW39361   5.924   6.858  13.542
79155SOL    HW139362   5.955   6.826  13.626
79155SOL    HW239363   5.908   6.951  13.556
79156SOL     OW39364  11.014   3.584  13.296
79156SOL    HW139365  10.955   3.553  13.365
79156SOL    HW239366  10.962   3.646  13.246
79157SOL     OW39367   9.921   9.377  12.822
79157SOL    HW139368   9.840   9.327  12.814
79157SOL    HW239369   9.990   9.314  12.800
79158SOL     OW39370  14.166  13.590   2.975
79158SOL    HW139371  14.185  13.507   2.931
79158SOL    HW239372  14.201  13.579   3.063
79159SOL     OW39373   0.753  14.730   3.136
79159SOL    HW139374   0.842  14.752   3.110
79159SOL    HW239375   0.719  14.811   3.175
79160SOL     OW39376   4.221   6.299   8.241
79160SOL    HW139377   4.273   6.257   8.309
79160SOL    HW239378   4.258   6.266   8.159
79161SOL     OW39379  10.824   9.983   6.526
79161SOL    HW139380  10.851   9.956   6.438
79161SOL    HW239381  10.743  10.031   6.512
79162SOL     OW39382   1.496  13.987   0.690
79162SOL    HW139383   1.549  13.994   0.611
79162SOL    HW239384   1.535  13.913   0.738
79163SOL     OW39385  10.584   6.420  13.974
79163SOL    HW139386  10.504   6.455  13.933
79163SOL    HW239387  10.650   6.487  13.958
79164SOL     OW39388   9.218   3.510   6.426
79164SOL    HW139389   9.217   3.465   6.510
79164SOL    HW239390   9.289   3.574   6.434
79165SOL     OW39391  13.774  13.377   9.119
79165SOL    HW139392  13.680  13.356   9.114
79165SOL    HW239393  13.778  13.450   9.181
79166SOL     OW39394  14.044   8.657   3.856
79166SOL    HW139395  14.058   8.617   3.942
79166SOL    HW239396  13.958   8.699   3.863
79167SOL     OW39397   1.981  13.176   9.852
79167SOL    HW139398   2.028  13.216   9.925
79167SOL    HW239399   2.042  13.178   9.779
79168SOL     OW39400   4.235   2.102   2.836
79168SOL    HW139401   4.254   2.188   2.798
79168SOL    HW239402   4.317   2.074   2.876
79169SOL     OW39403  13.352   8.639   4.824
79169SOL    HW139404  13.445   8.660   4.812
79169SOL    HW239405  13.340   8.556   4.778
79170SOL     OW39406   0.648   0.040   3.990
79170SOL    HW139407   0.617   0.066   3.903
79170SOL    HW239408   0.660  14.833   3.984
79171SOL     OW39409  13.546   7.000   3.367
79171SOL    HW139410  13.471   7.056   3.386
79171SOL    HW239411  13.591   7.043   3.294
79172SOL     OW39412   0.341   3.527  12.155
79172SOL    HW139413   0.358   3.621  12.148
79172SOL    HW239414   0.407   3.495  12.216
79173SOL     OW39415   3.280  11.150   8.491
79173SOL    HW139416   3.231  11.205   8.429
79173SOL    HW239417   3.363  11.195   8.503
79174SOL     OW39418   1.965   2.198   3.721
79174SOL    HW139419   2.056   2.176   3.701
79174SOL    HW239420   1.963   2.294   3.716
79175SOL     OW39421   4.259   2.321  10.012
79175SOL    HW139422   4.333   2.335  10.072
79175SOL    HW239423   4.212   2.404  10.012
79176SOL     OW39424  14.532  14.115   7.788
79176SOL    HW139425  14.598  14.133   7.721
79176SOL    HW239426  14.457  14.081   7.740
79177SOL     OW39427   3.565   6.520  10.178
79177SOL    HW139428   3.597   6.603  10.141
79177SOL    HW239429   3.611   6.512  10.261
79178SOL     OW39430  11.663   2.923   2.230
79178SOL    HW139431  11.677   2.986   2.159
79178SOL    HW239432  11.637   2.977   2.304
79179SOL     OW39433   5.137   1.710  11.372
79179SOL    HW139434   5.061   1.712  11.430
79179SOL    HW239435   5.173   1.622  11.384
79180SOL     OW39436   6.647   4.292  11.300
79180SOL    HW139437   6.577   4.333  11.249
79180SOL    HW239438   6.724   4.347  11.284
79181SOL     OW39439   2.915   6.408   5.479
79181SOL    HW139440   2.877   6.432   5.563
79181SOL    HW239441   2.929   6.492   5.434
79182SOL     OW39442  12.905  14.248  10.642
79182SOL    HW139443  12.999  14.241  10.625
79182SOL    HW239444  12.883  14.340  10.624
79183SOL     OW39445  13.382   7.432   9.045
79183SOL    HW139446  13.441   7.414   8.971
79183SOL    HW239447  13.296   7.438   9.005
79184SOL     OW39448   9.533  10.762   3.492
79184SOL    HW139449   9.467  10.831   3.493
79184SOL    HW239450   9.595  10.790   3.425
79185SOL     OW39451  12.936   7.205   4.918
79185SOL    HW139452  12.847   7.237   4.936
79185SOL    HW239453  12.993   7.269   4.960
79186SOL     OW39454   1.779  11.859  10.063
79186SOL    HW139455   1.792  11.764  10.071
79186SOL    HW239456   1.722  11.869   9.986
79187SOL     OW39457  13.530   3.002   1.062
79187SOL    HW139458  13.588   3.059   1.113
79187SOL    HW239459  13.489   3.060   0.999
79188SOL     OW39460   4.144   4.014  11.505
79188SOL    HW139461   4.114   3.925  11.487
79188SOL    HW239462   4.236   4.014  11.478
79189SOL     OW39463   8.663   6.278  11.744
79189SOL    HW139464   8.709   6.306  11.665
79189SOL    HW239465   8.677   6.349  11.806
79190SOL     OW39466  12.143  11.410   3.319
79190SOL    HW139467  12.100  11.491   3.291
79190SOL    HW239468  12.221  11.439   3.367
79191SOL     OW39469   8.894  12.847   3.742
79191SOL    HW139470   8.811  12.799   3.742
79191SOL    HW239471   8.924  12.842   3.651
79192SOL     OW39472  11.154  13.345   9.184
79192SOL    HW139473  11.237  13.374   9.147
79192SOL    HW239474  11.099  13.327   9.108
79193SOL     OW39475   0.823   7.988   7.458
79193SOL    HW139476   0.793   7.943   7.379
79193SOL    HW239477   0.803   7.926   7.529
79194SOL     OW39478  14.718  12.765   3.719
79194SOL    HW139479  14.631  12.749   3.683
79194SOL    HW239480  14.752  12.677   3.739
79195SOL     OW39481   9.503  11.411  10.472
79195SOL    HW139482   9.481  11.435  10.382
79195SOL    HW239483   9.576  11.349  10.463
79196SOL     OW39484  14.641   0.440   6.523
79196SOL    HW139485  14.682   0.527   6.520
79196SOL    HW239486  14.562   0.449   6.470
79197SOL     OW39487  11.211   0.200   3.314
79197SOL    HW139488  11.220   0.178   3.222
79197SOL    HW239489  11.217   0.296   3.317
79198SOL     OW39490   4.595  10.889   9.226
79198SOL    HW139491   4.617  10.815   9.282
79198SOL    HW239492   4.678  10.936   9.215
79199SOL     OW39493  11.118   7.314  13.839
79199SOL    HW139494  11.038   7.307  13.787
79199SOL    HW239495  11.088   7.334  13.928
79200SOL     OW39496   2.356  10.535   2.083
79200SOL    HW139497   2.390  10.602   2.142
79200SOL    HW239498   2.375  10.568   1.995
79201SOL     OW39499   6.553  14.700   0.245
79201SOL    HW139500   6.479  14.645   0.271
79201SOL    HW239501   6.610  14.701   0.323
79202SOL     OW39502   2.224   6.881  10.982
79202SOL    HW139503   2.145   6.911  10.939
79202SOL    HW239504   2.266   6.823  10.919
79203SOL     OW39505   4.869   9.432   9.713
79203SOL    HW139506   4.841   9.366   9.650
79203SOL    HW239507   4.824   9.407   9.794
79204SOL     OW39508   2.429   0.847   0.444
79204SOL    HW139509   2.375   0.842   0.523
79204SOL    HW239510   2.515   0.874   0.475
79205SOL     OW39511  11.536   1.864   3.522
79205SOL    HW139512  11.589   1.911   3.586
79205SOL    HW239513  11.581   1.780   3.510
79206SOL     OW39514  12.870   5.717   2.422
79206SOL    HW139515  12.862   5.774   2.345
79206SOL    HW239516  12.873   5.629   2.386
79207SOL     OW39517  14.143   1.881  14.730
79207SOL    HW139518  14.122   1.838  14.813
79207SOL    HW239519  14.224   1.838  14.700
79208SOL     OW39520   5.188  12.255   0.674
79208SOL    HW139521   5.122  12.273   0.607
79208SOL    HW239522   5.170  12.317   0.744
79209SOL     OW39523   0.284   2.016  14.778
79209SOL    HW139524   0.378   2.008  14.762
79209SOL    HW239525   0.276   2.026  14.873
79210SOL     OW39526   9.693   5.640  13.542
79210SOL    HW139527   9.688   5.548  13.514
79210SOL    HW239528   9.662   5.690  13.466
79211SOL     OW39529  12.620  10.272   0.122
79211SOL    HW139530  12.704  10.305   0.155
79211SOL    HW239531  12.619  10.180   0.147
79212SOL     OW39532   0.957   1.925  10.304
79212SOL    HW139533   1.009   1.881  10.371
79212SOL    HW239534   0.891   1.860  10.278
79213SOL     OW39535   3.447  10.324  14.434
79213SOL    HW139536   3.410  10.246  14.475
79213SOL    HW239537   3.426  10.395  14.495
79214SOL     OW39538   1.115   7.407  11.986
79214SOL    HW139539   1.126   7.389  11.893
79214SOL    HW239540   1.196   7.450  12.013
79215SOL     OW39541  11.347   5.571  14.087
79215SOL    HW139542  11.410   5.535  14.024
79215SOL    HW239543  11.320   5.654  14.049
79216SOL     OW39544  11.809  11.457  12.606
79216SOL    HW139545  11.740  11.523  12.614
79216SOL    HW239546  11.795  11.399  12.681
79217SOL     OW39547   4.215   2.736   5.594
79217SOL    HW139548   4.225   2.644   5.568
79217SOL    HW239549   4.279   2.782   5.540
79218SOL     OW39550   5.970   6.089   1.642
79218SOL    HW139551   6.055   6.053   1.618
79218SOL    HW239552   5.991   6.161   1.702
79219SOL     OW39553   6.523  12.961   0.599
79219SOL    HW139554   6.582  12.960   0.674
79219SOL    HW239555   6.504  12.869   0.581
79220SOL     OW39556   2.040  14.256   9.343
79220SOL    HW139557   1.967  14.318   9.352
79220SOL    HW239558   2.117  14.305   9.372
79221SOL     OW39559   9.348   7.931   2.533
79221SOL    HW139560   9.402   7.946   2.456
79221SOL    HW239561   9.410   7.916   2.604
79222SOL     OW39562   7.442   3.755  11.275
79222SOL    HW139563   7.376   3.743  11.206
79222SOL    HW239564   7.504   3.684  11.260
79223SOL     OW39565   5.331   6.663   9.503
79223SOL    HW139566   5.377   6.629   9.426
79223SOL    HW239567   5.339   6.594   9.569
79224SOL     OW39568  11.897   5.920  13.234
79224SOL    HW139569  11.804   5.898  13.236
79224SOL    HW239570  11.941   5.843  13.268
79225SOL     OW39571   4.206   8.038   9.993
79225SOL    HW139572   4.278   7.980   9.967
79225SOL    HW239573   4.249   8.117  10.024
79226SOL     OW39574   9.086   9.721  13.674
79226SOL    HW139575   9.158   9.746  13.616
79226SOL    HW239576   9.125   9.658  13.735
79227SOL     OW39577  12.619   6.045   5.498
79227SOL    HW139578  12.583   6.123   5.540
79227SOL    HW239579  12.709   6.069   5.475
79228SOL     OW39580   6.404   0.175  12.093
79228SOL    HW139581   6.332   0.210  12.041
79228SOL    HW239582   6.467   0.247  12.099
79229SOL     OW39583   4.381   4.562   5.683
79229SOL    HW139584   4.382   4.645   5.635
79229SOL    HW239585   4.419   4.583   5.768
79230SOL     OW39586   7.766  14.452  11.303
79230SOL    HW139587   7.689  14.469  11.358
79230SOL    HW239588   7.729  14.433  11.217
79231SOL     OW39589  10.136   5.456   6.565
79231SOL    HW139590  10.040   5.462   6.565
79231SOL    HW239591  10.165   5.546   6.576
79232SOL     OW39592  12.170   3.358  10.178
79232SOL    HW139593  12.087   3.365  10.131
79232SOL    HW239594  12.232   3.326  10.112
79233SOL     OW39595   9.813  12.189   3.086
79233SOL    HW139596   9.891  12.217   3.135
79233SOL    HW239597   9.818  12.094   3.086
79234SOL     OW39598   4.875   6.525   2.463
79234SOL    HW139599   4.879   6.551   2.555
79234SOL    HW239600   4.855   6.606   2.416
79235SOL     OW39601   4.284   2.975   9.875
79235SOL    HW139602   4.277   2.898   9.818
79235SOL    HW239603   4.194   2.999   9.894
79236SOL     OW39604   4.066  12.122   5.573
79236SOL    HW139605   4.147  12.079   5.543
79236SOL    HW239606   4.063  12.204   5.524
79237SOL     OW39607   3.904   8.555   6.766
79237SOL    HW139608   3.993   8.543   6.731
79237SOL    HW239609   3.854   8.588   6.692
79238SOL     OW39610   8.210   7.939   2.935
79238SOL    HW139611   8.207   7.962   3.027
79238SOL    HW239612   8.298   7.904   2.922
79239SOL     OW39613   4.059   9.870  12.906
79239SOL    HW139614   4.010   9.826  12.975
79239SOL    HW239615   4.020   9.957  12.900
79240SOL     OW39616   0.549  13.853   8.055
79240SOL    HW139617   0.633  13.889   8.026
79240SOL    HW239618   0.567  13.813   8.139
79241SOL     OW39619   0.297  11.355   2.672
79241SOL    HW139620   0.348  11.396   2.602
79241SOL    HW239621   0.225  11.310   2.626
79242SOL     OW39622   3.475   7.556   6.977
79242SOL    HW139623   3.455   7.595   7.062
79242SOL    HW239624   3.568   7.571   6.964
79243SOL     OW39625  11.486   7.731   5.309
79243SOL    HW139626  11.509   7.799   5.373
79243SOL    HW239627  11.398   7.753   5.281
79244SOL     OW39628   1.707   8.597   5.868
79244SOL    HW139629   1.655   8.522   5.837
79244SOL    HW239630   1.672   8.616   5.955
79245SOL     OW39631  11.869   2.454   3.654
79245SOL    HW139632  11.803   2.486   3.715
79245SOL    HW239633  11.859   2.509   3.576
79246SOL     OW39634   0.761   6.814   4.827
79246SOL    HW139635   0.724   6.900   4.846
79246SOL    HW239636   0.767   6.771   4.912
79247SOL     OW39637  13.409   0.686   1.712
79247SOL    HW139638  13.414   0.676   1.617
79247SOL    HW239639  13.445   0.604   1.747
79248SOL     OW39640   6.247   5.779  14.252
79248SOL    HW139641   6.246   5.704  14.192
79248SOL    HW239642   6.310   5.754  14.320
79249SOL     OW39643  12.450   4.288   0.616
79249SOL    HW139644  12.483   4.374   0.642
79249SOL    HW239645  12.412   4.302   0.529
79250SOL     OW39646   0.290   4.674   2.119
79250SOL    HW139647   0.359   4.741   2.122
79250SOL    HW239648   0.234   4.701   2.046
79251SOL     OW39649  12.192   3.479   0.945
79251SOL    HW139650  12.203   3.395   0.991
79251SOL    HW239651  12.214   3.459   0.854
79252SOL     OW39652   6.469  13.021  14.033
79252SOL    HW139653   6.536  12.995  14.097
79252SOL    HW239654   6.463  13.116  14.042
79253SOL     OW39655   9.260   1.763   0.827
79253SOL    HW139656   9.218   1.749   0.743
79253SOL    HW239657   9.295   1.677   0.851
79254SOL     OW39658   3.885   0.123   2.290
79254SOL    HW139659   3.812   0.061   2.288
79254SOL    HW239660   3.962   0.070   2.268
79255SOL     OW39661   2.075   8.221   0.783
79255SOL    HW139662   1.992   8.180   0.806
79255SOL    HW239663   2.056   8.273   0.705
79256SOL     OW39664  14.065   8.492  13.983
79256SOL    HW139665  14.108   8.409  14.006
79256SOL    HW239666  13.980   8.487  14.027
79257SOL     OW39667   2.419   7.388  13.634
79257SOL    HW139668   2.512   7.410  13.620
79257SOL    HW239669   2.405   7.401  13.727
79258SOL     OW39670   4.716   4.036   3.321
79258SOL    HW139671   4.788   4.094   3.294
79258SOL    HW239672   4.678   4.080   3.397
79259SOL     OW39673   4.772   0.777   8.925
79259SOL    HW139674   4.821   0.755   9.004
79259SOL    HW239675   4.703   0.712   8.920
79260SOL     OW39676   9.881   3.347   6.748
79260SOL    HW139677   9.953   3.296   6.786
79260SOL    HW239678   9.836   3.384   6.823
79261SOL     OW39679  12.612  11.695  11.203
79261SOL    HW139680  12.601  11.634  11.130
79261SOL    HW239681  12.597  11.782  11.165
79262SOL     OW39682   0.960  12.152   2.589
79262SOL    HW139683   1.006  12.184   2.666
79262SOL    HW239684   1.030  12.127   2.528
79263SOL     OW39685  13.484   7.811   5.156
79263SOL    HW139686  13.446   7.893   5.186
79263SOL    HW239687  13.413   7.748   5.160
79264SOL     OW39688   9.693   5.312   2.335
79264SOL    HW139689   9.704   5.400   2.300
79264SOL    HW239690   9.599   5.297   2.334
79265SOL     OW39691   6.017  13.959   2.899
79265SOL    HW139692   6.019  13.876   2.946
79265SOL    HW239693   5.950  14.010   2.945
79266SOL     OW39694  11.225   2.284   4.869
79266SOL    HW139695  11.314   2.263   4.895
79266SOL    HW239696  11.225   2.276   4.773
79267SOL     OW39697   8.705   9.092   9.771
79267SOL    HW139698   8.767   9.158   9.740
79267SOL    HW239699   8.636   9.142   9.814
79268SOL     OW39700  11.108   8.197   9.389
79268SOL    HW139701  11.017   8.170   9.377
79268SOL    HW239702  11.102   8.283   9.430
79269SOL     OW39703   6.099   9.546   8.617
79269SOL    HW139704   6.116   9.452   8.613
79269SOL    HW239705   6.173   9.587   8.571
79270SOL     OW39706   3.491   7.049   4.552
79270SOL    HW139707   3.455   7.085   4.633
79270SOL    HW239708   3.487   7.122   4.490
79271SOL     OW39709  13.106  14.409   3.765
79271SOL    HW139710  13.029  14.465   3.777
79271SOL    HW239711  13.086  14.330   3.815
79272SOL     OW39712  13.167  11.636   4.803
79272SOL    HW139713  13.128  11.577   4.739
79272SOL    HW239714  13.232  11.687   4.753
79273SOL     OW39715  13.400  12.202   9.373
79273SOL    HW139716  13.423  12.294   9.361
79273SOL    HW239717  13.312  12.194   9.336
79274SOL     OW39718  14.521  13.612   4.090
79274SOL    HW139719  14.501  13.518   4.086
79274SOL    HW239720  14.436  13.655   4.087
79275SOL     OW39721  10.530   0.737   3.525
79275SOL    HW139722  10.500   0.787   3.602
79275SOL    HW239723  10.554   0.804   3.461
79276SOL     OW39724   2.492  13.262  12.581
79276SOL    HW139725   2.409  13.255  12.627
79276SOL    HW239726   2.546  13.318  12.637
79277SOL     OW39727   2.149  10.686   4.184
79277SOL    HW139728   2.212  10.755   4.163
79277SOL    HW239729   2.170  10.660   4.273
79278SOL     OW39730  12.480   3.645  10.743
79278SOL    HW139731  12.412   3.582  10.766
79278SOL    HW239732  12.487   3.703  10.819
79279SOL     OW39733   5.221   9.521   1.497
79279SOL    HW139734   5.221   9.602   1.549
79279SOL    HW239735   5.156   9.466   1.540
79280SOL     OW39736   9.126   5.450   7.798
79280SOL    HW139737   9.031   5.455   7.790
79280SOL    HW239738   9.146   5.358   7.784
79281SOL     OW39739  13.854   6.772   6.050
79281SOL    HW139740  13.895   6.686   6.040
79281SOL    HW239741  13.906   6.816   6.117
79282SOL     OW39742  13.137   3.357   7.145
79282SOL    HW139743  13.128   3.450   7.125
79282SOL    HW239744  13.231   3.339   7.134
79283SOL     OW39745   6.501   7.374   3.010
79283SOL    HW139746   6.552   7.395   2.931
79283SOL    HW239747   6.435   7.312   2.980
79284SOL     OW39748   6.210   0.646   3.391
79284SOL    HW139749   6.304   0.637   3.402
79284SOL    HW239750   6.182   0.562   3.355
79285SOL     OW39751   0.135   1.979   0.805
79285SOL    HW139752   0.087   2.053   0.843
79285SOL    HW239753   0.214   2.019   0.769
79286SOL     OW39754  14.768   4.864   2.017
79286SOL    HW139755  14.757   4.959   2.025
79286SOL    HW239756  14.679   4.830   2.020
79287SOL     OW39757   1.882   6.693   4.908
79287SOL    HW139758   1.802   6.663   4.866
79287SOL    HW239759   1.940   6.617   4.906
79288SOL     OW39760   6.076   4.599   4.208
79288SOL    HW139761   5.993   4.645   4.201
79288SOL    HW239762   6.113   4.628   4.291
79289SOL     OW39763  10.477  10.529   6.242
79289SOL    HW139764  10.486  10.624   6.231
79289SOL    HW239765  10.409  10.519   6.308
79290SOL     OW39766   0.510   8.381  11.624
79290SOL    HW139767   0.571   8.328  11.675
79290SOL    HW239768   0.559   8.408  11.547
79291SOL     OW39769  14.358   8.191   8.253
79291SOL    HW139770  14.311   8.158   8.177
79291SOL    HW239771  14.427   8.246   8.217
79292SOL     OW39772  14.513   1.898   9.254
79292SOL    HW139773  14.489   1.866   9.167
79292SOL    HW239774  14.602   1.866   9.268
79293SOL     OW39775   6.333  12.584   8.128
79293SOL    HW139776   6.282  12.652   8.084
79293SOL    HW239777   6.303  12.502   8.089
79294SOL     OW39778   7.500   3.516  13.654
79294SOL    HW139779   7.486   3.505  13.748
79294SOL    HW239780   7.464   3.603  13.634
79295SOL     OW39781   3.254  10.190   2.324
79295SOL    HW139782   3.335  10.140   2.331
79295SOL    HW239783   3.216  10.164   2.240
79296SOL     OW39784  14.147  13.247   5.912
79296SOL    HW139785  14.203  13.217   5.841
79296SOL    HW239786  14.208  13.265   5.985
79297SOL     OW39787   6.380  11.857   6.889
79297SOL    HW139788   6.321  11.865   6.964
79297SOL    HW239789   6.406  11.947   6.869
79298SOL     OW39790   9.292   0.678   9.811
79298SOL    HW139791   9.223   0.741   9.831
79298SOL    HW239792   9.373   0.726   9.825
79299SOL     OW39793   8.971  13.851  14.779
79299SOL    HW139794   9.028  13.780  14.749
79299SOL    HW239795   9.017  13.931  14.754
79300SOL     OW39796   7.498  14.354   3.889
79300SOL    HW139797   7.415  14.321   3.923
79300SOL    HW239798   7.539  14.398   3.964
79301SOL     OW39799   9.995   4.440  13.850
79301SOL    HW139800  10.024   4.377  13.916
79301SOL    HW239801  10.060   4.511  13.855
79302SOL     OW39802   6.446  14.829  10.067
79302SOL    HW139803   6.363  14.867  10.039
79302SOL    HW239804   6.477  14.781   9.990
79303SOL     OW39805   4.535  12.962   7.896
79303SOL    HW139806   4.544  13.043   7.846
79303SOL    HW239807   4.606  12.965   7.961
79304SOL     OW39808   1.699   4.208   5.198
79304SOL    HW139809   1.649   4.236   5.275
79304SOL    HW239810   1.787   4.243   5.212
79305SOL     OW39811   2.318   2.418  10.801
79305SOL    HW139812   2.313   2.365  10.722
79305SOL    HW239813   2.252   2.486  10.789
79306SOL     OW39814   4.756   7.005  13.822
79306SOL    HW139815   4.764   7.023  13.915
79306SOL    HW239816   4.677   7.051  13.795
79307SOL     OW39817  14.261   4.768   4.851
79307SOL    HW139818  14.256   4.861   4.827
79307SOL    HW239819  14.172   4.735   4.839
79308SOL     OW39820   3.720   7.462   1.780
79308SOL    HW139821   3.649   7.487   1.839
79308SOL    HW239822   3.682   7.467   1.693
79309SOL     OW39823   4.643   9.892   9.946
79309SOL    HW139824   4.637   9.859  10.036
79309SOL    HW239825   4.730   9.930   9.940
79310SOL     OW39826   6.983  10.130  10.614
79310SOL    HW139827   6.976  10.122  10.519
79310SOL    HW239828   6.896  10.158  10.642
79311SOL     OW39829   8.731   8.537   7.409
79311SOL    HW139830   8.823   8.543   7.384
79311SOL    HW239831   8.727   8.462   7.469
79312SOL     OW39832   0.513   9.619   9.604
79312SOL    HW139833   0.453   9.596   9.675
79312SOL    HW239834   0.475   9.698   9.566
79313SOL     OW39835   7.991   5.220  10.560
79313SOL    HW139836   7.906   5.262  10.554
79313SOL    HW239837   7.993   5.181  10.648
79314SOL     OW39838   7.647   3.328   0.878
79314SOL    HW139839   7.558   3.300   0.895
79314SOL    HW239840   7.667   3.391   0.947
79315SOL     OW39841  12.162  12.253  14.597
79315SOL    HW139842  12.236  12.193  14.586
79315SOL    HW239843  12.187  12.331  14.548
79316SOL     OW39844   7.230  12.045  10.247
79316SOL    HW139845   7.223  12.112  10.315
79316SOL    HW239846   7.141  12.035  10.213
79317SOL     OW39847   7.735  14.213   5.944
79317SOL    HW139848   7.747  14.257   6.029
79317SOL    HW239849   7.756  14.280   5.880
79318SOL     OW39850   4.471  12.373   4.764
79318SOL    HW139851   4.484  12.370   4.670
79318SOL    HW239852   4.538  12.314   4.799
79319SOL     OW39853   1.717   3.582   7.107
79319SOL    HW139854   1.715   3.616   7.196
79319SOL    HW239855   1.796   3.528   7.104
79320SOL     OW39856   0.318   6.883  12.195
79320SOL    HW139857   0.363   6.812  12.241
79320SOL    HW239858   0.243   6.903  12.251
79321SOL     OW39859   6.024  13.529  11.721
79321SOL    HW139860   6.118  13.513  11.711
79321SOL    HW239861   5.993  13.456  11.775
79322SOL     OW39862   3.367   0.727  13.091
79322SOL    HW139863   3.380   0.683  13.175
79322SOL    HW239864   3.272   0.744  13.087
79323SOL     OW39865  13.683   2.307   9.908
79323SOL    HW139866  13.751   2.364   9.873
79323SOL    HW239867  13.722   2.267   9.985
79324SOL     OW39868   2.868   5.217   9.751
79324SOL    HW139869   2.916   5.223   9.668
79324SOL    HW239870   2.867   5.307   9.785
79325SOL     OW39871   0.913  10.131   7.164
79325SOL    HW139872   0.826  10.107   7.132
79325SOL    HW239873   0.970  10.123   7.087
79326SOL     OW39874   6.384   9.284   4.122
79326SOL    HW139875   6.402   9.331   4.204
79326SOL    HW239876   6.466   9.239   4.102
79327SOL     OW39877   4.347   1.868   0.379
79327SOL    HW139878   4.350   1.819   0.297
79327SOL    HW239879   4.400   1.817   0.440
79328SOL     OW39880  13.794   4.269   8.312
79328SOL    HW139881  13.713   4.239   8.270
79328SOL    HW239882  13.853   4.288   8.239
79329SOL     OW39883   0.956   4.321  14.422
79329SOL    HW139884   0.923   4.373  14.349
79329SOL    HW239885   0.941   4.375  14.499
79330SOL     OW39886  11.018   2.893   1.471
79330SOL    HW139887  11.038   2.956   1.540
79330SOL    HW239888  11.072   2.920   1.397
79331SOL     OW39889   9.943   3.452   8.737
79331SOL    HW139890   9.913   3.366   8.707
79331SOL    HW239891   9.927   3.510   8.662
79332SOL     OW39892   2.068  14.828  11.706
79332SOL    HW139893   2.083  14.867  11.793
79332SOL    HW239894   1.974  14.837  11.691
79333SOL     OW39895  14.291  14.321   8.405
79333SOL    HW139896  14.340  14.400   8.384
79333SOL    HW239897  14.222  14.317   8.338
79334SOL     OW39898  13.767   3.450   2.192
79334SOL    HW139899  13.692   3.413   2.145
79334SOL    HW239900  13.777   3.393   2.268
79335SOL     OW39901  14.223  12.250   4.267
79335SOL    HW139902  14.213  12.202   4.349
79335SOL    HW239903  14.170  12.202   4.204
79336SOL     OW39904  10.937   5.923   2.644
79336SOL    HW139905  10.873   5.928   2.573
79336SOL    HW239906  10.888   5.885   2.717
79337SOL     OW39907   3.163  11.242   1.733
79337SOL    HW139908   3.166  11.320   1.788
79337SOL    HW239909   3.254  11.212   1.728
79338SOL     OW39910   5.331   3.386   1.768
79338SOL    HW139911   5.381   3.316   1.810
79338SOL    HW239912   5.314   3.355   1.680
79339SOL     OW39913   8.686   1.660  13.614
79339SOL    HW139914   8.669   1.589  13.675
79339SOL    HW239915   8.714   1.616  13.533
79340SOL     OW39916  12.652   5.822   3.104
79340SOL    HW139917  12.599   5.841   3.027
79340SOL    HW239918  12.650   5.904   3.155
79341SOL     OW39919   6.750   5.204   0.854
79341SOL    HW139920   6.684   5.225   0.920
79341SOL    HW239921   6.709   5.137   0.799
79342SOL     OW39922  14.331   2.389   9.265
79342SOL    HW139923  14.345   2.420   9.355
79342SOL    HW239924  14.344   2.294   9.270
79343SOL     OW39925   2.615  13.199   3.985
79343SOL    HW139926   2.533  13.207   3.935
79343SOL    HW239927   2.586  13.195   4.077
79344SOL     OW39928  14.789   6.329   5.800
79344SOL    HW139929  14.811   6.238   5.782
79344SOL    HW239930  14.829   6.378   5.729
79345SOL     OW39931   2.962  11.165  10.983
79345SOL    HW139932   3.022  11.093  10.963
79345SOL    HW239933   2.983  11.233  10.918
79346SOL     OW39934  12.160   8.433   6.789
79346SOL    HW139935  12.164   8.506   6.728
79346SOL    HW239936  12.239   8.442   6.842
79347SOL     OW39937   1.152   7.070   5.098
79347SOL    HW139938   1.113   7.023   5.024
79347SOL    HW239939   1.231   7.110   5.061
79348SOL     OW39940   8.345  13.967  13.712
79348SOL    HW139941   8.273  13.916  13.674
79348SOL    HW239942   8.302  14.023  13.777
79349SOL     OW39943   4.336   0.374   1.468
79349SOL    HW139944   4.268   0.335   1.412
79349SOL    HW239945   4.340   0.316   1.544
79350SOL     OW39946   7.402   6.756  12.106
79350SOL    HW139947   7.491   6.791  12.103
79350SOL    HW239948   7.410   6.669  12.067
79351SOL     OW39949  11.625  10.151   6.437
79351SOL    HW139950  11.639  10.143   6.531
79351SOL    HW239951  11.564  10.225   6.428
79352SOL     OW39952  13.542   3.584  13.337
79352SOL    HW139953  13.474   3.629  13.288
79352SOL    HW239954  13.613   3.648  13.345
79353SOL     OW39955   3.827   8.356   3.724
79353SOL    HW139956   3.861   8.374   3.637
79353SOL    HW239957   3.864   8.426   3.779
79354SOL     OW39958   4.384   0.105   2.956
79354SOL    HW139959   4.443   0.043   2.912
79354SOL    HW239960   4.349   0.057   3.030
79355SOL     OW39961   7.099  14.474   8.232
79355SOL    HW139962   7.153  14.539   8.277
79355SOL    HW239963   7.011  14.486   8.269
79356SOL     OW39964  14.694   3.887  14.407
79356SOL    HW139965  14.619   3.915  14.459
79356SOL    HW239966  14.659   3.871  14.320
79357SOL     OW39967   5.347  12.621  10.988
79357SOL    HW139968   5.414  12.679  10.951
79357SOL    HW239969   5.351  12.636  11.082
79358SOL     OW39970   6.625  12.230  13.552
79358SOL    HW139971   6.658  12.143  13.534
79358SOL    HW239972   6.595  12.264  13.468
79359SOL     OW39973   8.532   7.007   3.667
79359SOL    HW139974   8.622   7.011   3.696
79359SOL    HW239975   8.495   7.092   3.691
79360SOL     OW39976  12.570  12.300  12.595
79360SOL    HW139977  12.661  12.300  12.567
79360SOL    HW239978  12.563  12.225  12.654
79361SOL     OW39979  13.432  12.072   8.068
79361SOL    HW139980  13.356  12.034   8.112
79361SOL    HW239981  13.424  12.166   8.084
79362SOL     OW39982   7.956   1.941   8.336
79362SOL    HW139983   7.896   1.988   8.278
79362SOL    HW239984   7.899   1.906   8.405
79363SOL     OW39985   2.778   1.615  14.569
79363SOL    HW139986   2.705   1.672  14.592
79363SOL    HW239987   2.785   1.622  14.474
79364SOL     OW39988   7.948  12.413   1.398
79364SOL    HW139989   7.963  12.498   1.440
79364SOL    HW239990   7.933  12.353   1.471
79365SOL     OW39991   8.836  12.088  13.703
79365SOL    HW139992   8.921  12.132  13.703
79365SOL    HW239993   8.778  12.148  13.655
79366SOL     OW39994  11.003   4.362   6.652
79366SOL    HW139995  11.080   4.309   6.631
79366SOL    HW239996  11.007   4.373   6.748
79367SOL     OW39997   2.886  10.985  12.106
79367SOL    HW139998   2.859  11.064  12.153
79367SOL    HW239999   2.808  10.958  12.058
79368SOL     OW40000   7.404  11.643  13.463
79368SOL    HW140001   7.425  11.552  13.443
79368SOL    HW240002   7.319  11.658  13.422
79369SOL     OW40003   4.980   4.914   2.510
79369SOL    HW140004   4.915   4.984   2.506
79369SOL    HW240005   4.947   4.854   2.576
79370SOL     OW40006   6.097   6.645  11.344
79370SOL    HW140007   6.175   6.604  11.306
79370SOL    HW240008   6.128   6.681  11.427
79371SOL     OW40009   7.728   4.620   1.494
79371SOL    HW140010   7.783   4.687   1.451
79371SOL    HW240011   7.674   4.670   1.555
79372SOL     OW40012   3.110   1.119   8.356
79372SOL    HW140013   3.028   1.164   8.376
79372SOL    HW240014   3.102   1.034   8.401
79373SOL     OW40015  13.363  12.946   1.785
79373SOL    HW140016  13.280  12.972   1.826
79373SOL    HW240017  13.405  13.029   1.763
79374SOL     OW40018  13.224  11.538   7.486
79374SOL    HW140019  13.280  11.524   7.562
79374SOL    HW240020  13.208  11.633   7.485
79375SOL     OW40021  14.209   3.831   2.786
79375SOL    HW140022  14.131   3.819   2.840
79375SOL    HW240023  14.281   3.799   2.841
79376SOL     OW40024   4.527  10.489  13.501
79376SOL    HW140025   4.435  10.483  13.524
79376SOL    HW240026   4.544  10.412  13.448
79377SOL     OW40027   2.762   1.916   7.730
79377SOL    HW140028   2.847   1.958   7.716
79377SOL    HW240029   2.704   1.987   7.754
79378SOL     OW40030  12.387   1.808  10.441
79378SOL    HW140031  12.331   1.808  10.363
79378SOL    HW240032  12.330   1.778  10.511
79379SOL     OW40033   4.676   2.226   7.156
79379SOL    HW140034   4.619   2.248   7.230
79379SOL    HW240035   4.639   2.146   7.120
79380SOL     OW40036   3.114   4.803   2.815
79380SOL    HW140037   3.135   4.833   2.727
79380SOL    HW240038   3.064   4.722   2.801
79381SOL     OW40039   5.849  12.614   7.296
79381SOL    HW140040   5.912  12.622   7.367
79381SOL    HW240041   5.902  12.614   7.216
79382SOL     OW40042  11.347  12.404   3.129
79382SOL    HW140043  11.351  12.499   3.116
79382SOL    HW240044  11.369  12.368   3.044
79383SOL     OW40045  12.119   0.120   9.616
79383SOL    HW140046  12.097   0.198   9.564
79383SOL    HW240047  12.034   0.086   9.645
79384SOL     OW40048   0.848   6.284   5.392
79384SOL    HW140049   0.896   6.206   5.419
79384SOL    HW240050   0.898   6.357   5.427
79385SOL     OW40051   5.672   4.931   2.920
79385SOL    HW140052   5.585   4.948   2.883
79385SOL    HW240053   5.661   4.940   3.014
79386SOL     OW40054  13.399   6.537   3.462
79386SOL    HW140055  13.312   6.534   3.501
79386SOL    HW240056  13.448   6.468   3.507
79387SOL     OW40057   7.670   7.216   1.759
79387SOL    HW140058   7.725   7.153   1.714
79387SOL    HW240059   7.630   7.267   1.688
79388SOL     OW40060  10.790  13.470   7.045
79388SOL    HW140061  10.852  13.469   7.118
79388SOL    HW240062  10.715  13.420   7.077
79389SOL     OW40063  10.377  13.731   7.270
79389SOL    HW140064  10.318  13.771   7.333
79389SOL    HW240065  10.320  13.698   7.200
79390SOL     OW40066   0.454  13.207   6.483
79390SOL    HW140067   0.531  13.193   6.539
79390SOL    HW240068   0.458  13.300   6.459
79391SOL     OW40069   9.155  10.974  12.504
79391SOL    HW140070   9.062  10.950  12.507
79391SOL    HW240071   9.192  10.933  12.582
79392SOL     OW40072  11.580   5.425  10.543
79392SOL    HW140073  11.595   5.505  10.593
79392SOL    HW240074  11.620   5.442  10.458
79393SOL     OW40075  14.561   1.650   3.221
79393SOL    HW140076  14.600   1.721   3.271
79393SOL    HW240077  14.541   1.582   3.285
79394SOL     OW40078   8.755  14.697  10.134
79394SOL    HW140079   8.815  14.661  10.200
79394SOL    HW240080   8.737  14.786  10.164
79395SOL     OW40081   1.426  13.725  13.312
79395SOL    HW140082   1.447  13.635  13.292
79395SOL    HW240083   1.403  13.765  13.228
79396SOL     OW40084   0.065  13.290   9.463
79396SOL    HW140085   0.057  13.373   9.509
79396SOL    HW240086   0.112  13.233   9.524
79397SOL     OW40087   1.244   6.953   6.005
79397SOL    HW140088   1.267   6.888   5.938
79397SOL    HW240089   1.283   7.034   5.973
79398SOL     OW40090   0.341   0.240   0.827
79398SOL    HW140091   0.357   0.163   0.772
79398SOL    HW240092   0.382   0.312   0.780
79399SOL     OW40093  10.785   6.619   4.944
79399SOL    HW140094  10.804   6.554   4.876
79399SOL    HW240095  10.693   6.603   4.967
79400SOL     OW40096  12.799   8.222  14.243
79400SOL    HW140097  12.736   8.247  14.176
79400SOL    HW240098  12.759   8.147  14.287
79401SOL     OW40099   2.047   3.701  11.990
79401SOL    HW140100   1.983   3.665  12.051
79401SOL    HW240101   2.113   3.633  11.980
79402SOL     OW40102   6.987  10.953   2.024
79402SOL    HW140103   7.062  11.012   2.029
79402SOL    HW240104   6.911  11.010   2.024
79403SOL     OW40105  11.889  10.050   9.404
79403SOL    HW140106  11.854   9.990   9.470
79403SOL    HW240107  11.867  10.137   9.438
79404SOL     OW40108   6.792   5.242  11.503
79404SOL    HW140109   6.742   5.166  11.534
79404SOL    HW240110   6.823   5.216  11.416
79405SOL     OW40111   0.567   2.138  11.178
79405SOL    HW140112   0.639   2.200  11.165
79405SOL    HW240113   0.529   2.129  11.090
79406SOL     OW40114   0.755  11.313   2.121
79406SOL    HW140115   0.696  11.386   2.105
79406SOL    HW240116   0.700  11.235   2.115
79407SOL     OW40117  14.349  12.078   3.455
79407SOL    HW140118  14.366  12.004   3.514
79407SOL    HW240119  14.293  12.137   3.505
79408SOL     OW40120   7.823  13.959   1.983
79408SOL    HW140121   7.860  14.047   1.994
79408SOL    HW240122   7.743  13.972   1.932
79409SOL     OW40123   9.695   8.412  13.392
79409SOL    HW140124   9.610   8.368  13.388
79409SOL    HW240125   9.687   8.471  13.467
79410SOL     OW40126  14.101   3.731   7.603
79410SOL    HW140127  14.188   3.750   7.569
79410SOL    HW240128  14.084   3.640   7.579
79411SOL     OW40129  13.435   5.911   6.975
79411SOL    HW140130  13.517   5.921   7.024
79411SOL    HW240131  13.399   5.828   7.005
79412SOL     OW40132  12.881   3.512   0.467
79412SOL    HW140133  12.938   3.499   0.542
79412SOL    HW240134  12.887   3.430   0.418
79413SOL     OW40135  14.277   8.175   0.208
79413SOL    HW140136  14.305   8.206   0.122
79413SOL    HW240137  14.358   8.157   0.255
79414SOL     OW40138   4.716   6.784   4.033
79414SOL    HW140139   4.799   6.735   4.037
79414SOL    HW240140   4.653   6.727   4.077
79415SOL     OW40141   3.975  12.036  10.050
79415SOL    HW140142   3.908  12.099  10.078
79415SOL    HW240143   4.056  12.069  10.088
79416SOL     OW40144   3.598   2.387  13.890
79416SOL    HW140145   3.640   2.473  13.900
79416SOL    HW240146   3.669   2.330  13.860
79417SOL     OW40147  14.634   8.392   3.985
79417SOL    HW140148  14.700   8.431   3.928
79417SOL    HW240149  14.685   8.356   4.058
79418SOL     OW40150   0.542   4.271  14.837
79418SOL    HW140151   0.519   4.217  14.761
79418SOL    HW240152   0.529   4.361  14.807
79419SOL     OW40153   1.277  11.357   2.544
79419SOL    HW140154   1.314  11.404   2.469
79419SOL    HW240155   1.332  11.385   2.618
79420SOL     OW40156   9.970   5.990   3.931
79420SOL    HW140157  10.063   5.978   3.949
79420SOL    HW240158   9.932   5.904   3.948
79421SOL     OW40159   2.906   3.315   4.420
79421SOL    HW140160   2.866   3.400   4.440
79421SOL    HW240161   2.899   3.266   4.502
79422SOL     OW40162   4.360  10.123  13.585
79422SOL    HW140163   4.451  10.102  13.607
79422SOL    HW240164   4.309  10.082  13.655
79423SOL     OW40165   8.438  12.839   6.987
79423SOL    HW140166   8.519  12.829   6.937
79423SOL    HW240167   8.400  12.751   6.989
79424SOL     OW40168  14.554   1.568   8.341
79424SOL    HW140169  14.503   1.624   8.398
79424SOL    HW240170  14.501   1.489   8.330
79425SOL     OW40171  13.303  14.243   6.196
79425SOL    HW140172  13.237  14.242   6.127
79425SOL    HW240173  13.253  14.254   6.277
79426SOL     OW40174   5.937   1.822   6.940
79426SOL    HW140175   6.030   1.811   6.964
79426SOL    HW240176   5.893   1.751   6.986
79427SOL     OW40177   3.871  14.204  11.262
79427SOL    HW140178   3.825  14.121  11.256
79427SOL    HW240179   3.932  14.192  11.335
79428SOL     OW40180  11.794  12.219   1.641
79428SOL    HW140181  11.818  12.310   1.622
79428SOL    HW240182  11.735  12.225   1.716
79429SOL     OW40183  13.306   9.240   6.254
79429SOL    HW140184  13.336   9.149   6.245
79429SOL    HW240185  13.212   9.236   6.232
79430SOL     OW40186  14.040   5.373   8.049
79430SOL    HW140187  13.990   5.314   8.106
79430SOL    HW240188  14.096   5.423   8.108
79431SOL     OW40189  10.400   0.726   0.215
79431SOL    HW140190  10.380   0.706   0.123
79431SOL    HW240191  10.342   0.800   0.236
79432SOL     OW40192   2.764  10.406   2.502
79432SOL    HW140193   2.738  10.352   2.577
79432SOL    HW240194   2.860  10.399   2.500
79433SOL     OW40195   5.041   6.536  13.287
79433SOL    HW140196   4.996   6.456  13.260
79433SOL    HW240197   5.048   6.530  13.382
79434SOL     OW40198  10.683   5.387  11.939
79434SOL    HW140199  10.688   5.303  11.984
79434SOL    HW240200  10.761   5.389  11.884
79435SOL     OW40201  12.073   0.240   7.195
79435SOL    HW140202  12.025   0.180   7.252
79435SOL    HW240203  12.013   0.256   7.122
79436SOL     OW40204  11.858   3.112   1.997
79436SOL    HW140205  11.807   3.192   2.014
79436SOL    HW240206  11.886   3.121   1.906
79437SOL     OW40207   1.355  12.353   3.345
79437SOL    HW140208   1.290  12.300   3.299
79437SOL    HW240209   1.326  12.351   3.437
79438SOL     OW40210   5.126  14.332   2.225
79438SOL    HW140211   5.084  14.247   2.210
79438SOL    HW240212   5.181  14.346   2.148
79439SOL     OW40213   2.677   1.256  13.711
79439SOL    HW140214   2.606   1.223  13.766
79439SOL    HW240215   2.752   1.200  13.733
79440SOL     OW40216   6.891   5.431   0.060
79440SOL    HW140217   6.827   5.398  14.884
79440SOL    HW240218   6.839   5.470   0.130
79441SOL     OW40219  11.569   2.282   3.818
79441SOL    HW140220  11.619   2.272   3.899
79441SOL    HW240221  11.597   2.209   3.763
79442SOL     OW40222   7.665   6.832  12.040
79442SOL    HW140223   7.750   6.792  12.053
79442SOL    HW240224   7.674   6.921  12.075
79443SOL     OW40225  13.447   0.584   4.123
79443SOL    HW140226  13.370   0.530   4.142
79443SOL    HW240227  13.442   0.656   4.186
79444SOL     OW40228   1.774  10.226  10.455
79444SOL    HW140229   1.719  10.172  10.398
79444SOL    HW240230   1.794  10.304  10.402
79445SOL     OW40231   7.910   3.807  11.956
79445SOL    HW140232   7.941   3.768  11.875
79445SOL    HW240233   7.950   3.755  12.025
79446SOL     OW40234  10.595  12.179   6.446
79446SOL    HW140235  10.517  12.175   6.500
79446SOL    HW240236  10.578  12.250   6.384
79447SOL     OW40237  10.075  14.156  10.014
79447SOL    HW140238  10.014  14.092   9.979
79447SOL    HW240239  10.157  14.108  10.025
79448SOL     OW40240   9.976   4.672   8.856
79448SOL    HW140241  10.044   4.739   8.857
79448SOL    HW240242   9.999   4.613   8.928
79449SOL     OW40243  10.194   4.411   1.784
79449SOL    HW140244  10.215   4.461   1.863
79449SOL    HW240245  10.271   4.356   1.769
79450SOL     OW40246  12.637  11.362  13.927
79450SOL    HW140247  12.693  11.431  13.890
79450SOL    HW240248  12.654  11.367  14.021
79451SOL     OW40249   0.347   1.039   9.994
79451SOL    HW140250   0.326   0.999  10.078
79451SOL    HW240251   0.374   0.965   9.939
79452SOL     OW40252   6.687   5.612   0.166
79452SOL    HW140253   6.759   5.655   0.211
79452SOL    HW240254   6.701   5.630   0.073
79453SOL     OW40255  14.713   7.079  13.636
79453SOL    HW140256  14.782   7.015  13.654
79453SOL    HW240257  14.650   7.066  13.706
79454SOL     OW40258  12.211  12.178   9.289
79454SOL    HW140259  12.120  12.196   9.265
79454SOL    HW240260  12.208  12.161   9.383
79455SOL     OW40261  11.903  12.048   1.082
79455SOL    HW140262  11.819  12.024   1.123
79455SOL    HW240263  11.888  12.135   1.045
79456SOL     OW40264  11.316  13.164   1.737
79456SOL    HW140265  11.235  13.198   1.698
79456SOL    HW240266  11.326  13.214   1.818
79457SOL     OW40267   2.867   0.022   8.245
79457SOL    HW140268   2.848   0.039   8.337
79457SOL    HW240269   2.849   0.105   8.200
79458SOL     OW40270   3.677  10.521  10.452
79458SOL    HW140271   3.640  10.432  10.457
79458SOL    HW240272   3.607  10.574  10.415
79459SOL     OW40273   6.130  11.464   2.387
79459SOL    HW140274   6.114  11.402   2.457
79459SOL    HW240275   6.201  11.426   2.336
79460SOL     OW40276   3.808  14.577   2.511
79460SOL    HW140277   3.870  14.507   2.535
79460SOL    HW240278   3.854  14.658   2.534
79461SOL     OW40279   0.355   5.945  10.964
79461SOL    HW140280   0.323   5.927  11.053
79461SOL    HW240281   0.386   5.860  10.933
79462SOL     OW40282  13.764   9.968   9.882
79462SOL    HW140283  13.680  10.014   9.872
79462SOL    HW240284  13.740   9.882   9.916
79463SOL     OW40285   9.974   0.098  11.562
79463SOL    HW140286   9.910   0.027  11.567
79463SOL    HW240287   9.935   0.169  11.614
79464SOL     OW40288   3.073   7.097   7.103
79464SOL    HW140289   3.162   7.130   7.096
79464SOL    HW240290   3.076   7.010   7.063
79465SOL     OW40291  14.525   4.955   1.351
79465SOL    HW140292  14.498   4.890   1.416
79465SOL    HW240293  14.617   4.936   1.335
79466SOL     OW40294   9.716  10.470   1.791
79466SOL    HW140295   9.711  10.374   1.789
79466SOL    HW240296   9.790  10.491   1.734
79467SOL     OW40297   7.132   5.931   3.390
79467SOL    HW140298   7.079   5.968   3.319
79467SOL    HW240299   7.100   5.841   3.398
79468SOL     OW40300  10.530   9.248   7.428
79468SOL    HW140301  10.514   9.316   7.494
79468SOL    HW240302  10.621   9.220   7.444
79469SOL     OW40303   5.805   7.922  11.303
79469SOL    HW140304   5.887   7.953  11.342
79469SOL    HW240305   5.821   7.925  11.209
79470SOL     OW40306  11.949  12.484  14.226
79470SOL    HW140307  11.967  12.396  14.259
79470SOL    HW240308  11.928  12.535  14.305
79471SOL     OW40309   9.888   1.739  12.259
79471SOL    HW140310   9.796   1.728  12.282
79471SOL    HW240311   9.934   1.738  12.343
79472SOL     OW40312   3.202  14.782   3.975
79472SOL    HW140313   3.118  14.746   3.948
79472SOL    HW240314   3.257  14.775   3.897
79473SOL     OW40315   5.630  10.817   4.878
79473SOL    HW140316   5.662  10.736   4.919
79473SOL    HW240317   5.684  10.886   4.917
79474SOL     OW40318  14.398   5.460   7.996
79474SOL    HW140319  14.484   5.417   8.003
79474SOL    HW240320  14.337   5.388   7.978
79475SOL     OW40321  10.339   2.998   7.314
79475SOL    HW140322  10.370   2.945   7.388
79475SOL    HW240323  10.334   2.936   7.241
79476SOL     OW40324   3.319  13.872   6.707
79476SOL    HW140325   3.357  13.950   6.665
79476SOL    HW240326   3.313  13.896   6.800
79477SOL     OW40327  13.393  11.207  12.409
79477SOL    HW140328  13.481  11.188  12.441
79477SOL    HW240329  13.336  11.149  12.460
79478SOL     OW40330  10.893   2.604  10.958
79478SOL    HW140331  10.800   2.590  10.975
79478SOL    HW240332  10.896   2.673  10.891
79479SOL     OW40333   3.987   9.473  11.966
79479SOL    HW140334   4.074   9.500  11.994
79479SOL    HW240335   3.927   9.515  12.027
79480SOL     OW40336   2.107   0.998   0.273
79480SOL    HW140337   2.118   0.908   0.244
79480SOL    HW240338   2.012   1.012   0.271
79481SOL     OW40339   1.445   3.709   1.342
79481SOL    HW140340   1.443   3.614   1.331
79481SOL    HW240341   1.531   3.727   1.381
79482SOL     OW40342  10.835   1.139   0.643
79482SOL    HW140343  10.914   1.106   0.686
79482SOL    HW240344  10.806   1.066   0.588
79483SOL     OW40345   9.030  10.045  14.341
79483SOL    HW140346   9.101  10.032  14.277
79483SOL    HW240347   8.961  10.088  14.290
79484SOL     OW40348  12.914   8.671  13.286
79484SOL    HW140349  12.920   8.593  13.340
79484SOL    HW240350  12.881   8.739  13.345
79485SOL     OW40351  13.903   2.483  14.153
79485SOL    HW140352  13.896   2.566  14.201
79485SOL    HW240353  13.961   2.429  14.207
79486SOL     OW40354  13.976   2.757  13.558
79486SOL    HW140355  14.060   2.731  13.520
79486SOL    HW240356  13.910   2.715  13.503
79487SOL     OW40357  10.532   4.543   7.587
79487SOL    HW140358  10.595   4.599   7.542
79487SOL    HW240359  10.547   4.456   7.550
79488SOL     OW40360   0.078   0.348   5.068
79488SOL    HW140361  14.878   0.363   5.104
79488SOL    HW240362   0.130   0.321   5.143
79489SOL     OW40363   2.347  13.923  10.105
79489SOL    HW140364   2.324  14.015  10.097
79489SOL    HW240365   2.409  13.920  10.178
79490SOL     OW40366  13.199  12.770   2.800
79490SOL    HW140367  13.153  12.806   2.725
79490SOL    HW240368  13.201  12.676   2.784
79491SOL     OW40369   9.986  13.104   9.830
79491SOL    HW140370   9.910  13.152   9.862
79491SOL    HW240371  10.052  13.112   9.899
79492SOL     OW40372   7.208  12.752   0.098
79492SOL    HW140373   7.227  12.660   0.115
79492SOL    HW240374   7.279  12.800   0.142
79493SOL     OW40375   3.488   8.815   9.809
79493SOL    HW140376   3.462   8.763   9.733
79493SOL    HW240377   3.442   8.898   9.798
79494SOL     OW40378   6.190   1.715   2.966
79494SOL    HW140379   6.242   1.641   2.997
79494SOL    HW240380   6.256   1.779   2.937
79495SOL     OW40381  14.153  11.587  10.542
79495SOL    HW140382  14.125  11.630  10.461
79495SOL    HW240383  14.134  11.494  10.527
79496SOL     OW40384   5.684  11.339   6.921
79496SOL    HW140385   5.589  11.332   6.909
79496SOL    HW240386   5.722  11.293   6.846
79497SOL     OW40387   3.759  11.572   5.144
79497SOL    HW140388   3.728  11.482   5.131
79497SOL    HW240389   3.816  11.567   5.221
79498SOL     OW40390   9.213  10.356   7.660
79498SOL    HW140391   9.180  10.356   7.571
79498SOL    HW240392   9.138  10.382   7.714
79499SOL     OW40393   8.900   5.195   6.367
79499SOL    HW140394   8.937   5.134   6.431
79499SOL    HW240395   8.965   5.266   6.361
79500SOL     OW40396  14.050  12.113   3.337
79500SOL    HW140397  14.079  12.167   3.263
79500SOL    HW240398  14.054  12.172   3.412
79501SOL     OW40399   7.740   9.579   9.798
79501SOL    HW140400   7.771   9.654   9.747
79501SOL    HW240401   7.653   9.605   9.828
79502SOL     OW40402  11.124   9.861   2.552
79502SOL    HW140403  11.035   9.892   2.532
79502SOL    HW240404  11.162   9.841   2.466
79503SOL     OW40405   4.494   9.515   5.192
79503SOL    HW140406   4.446   9.591   5.159
79503SOL    HW240407   4.507   9.533   5.285
79504SOL     OW40408   3.987   1.595   2.050
79504SOL    HW140409   4.002   1.684   2.018
79504SOL    HW240410   3.995   1.540   1.972
79505SOL     OW40411   5.882  12.240   2.059
79505SOL    HW140412   5.796  12.198   2.059
79505SOL    HW240413   5.926  12.204   2.136
79506SOL     OW40414   7.007  12.864   3.063
79506SOL    HW140415   6.979  12.919   3.137
79506SOL    HW240416   7.063  12.797   3.103
79507SOL     OW40417  12.010   2.912   0.505
79507SOL    HW140418  11.992   2.948   0.418
79507SOL    HW240419  12.022   2.989   0.560
79508SOL     OW40420  11.915  10.140   5.501
79508SOL    HW140421  12.005  10.140   5.533
79508SOL    HW240422  11.899  10.230   5.473
79509SOL     OW40423   7.207   8.755  10.003
79509SOL    HW140424   7.284   8.761   9.946
79509SOL    HW240425   7.140   8.807   9.959
79510SOL     OW40426   8.862   3.873   7.040
79510SOL    HW140427   8.939   3.851   7.093
79510SOL    HW240428   8.875   3.965   7.016
79511SOL     OW40429   6.928  12.544   8.169
79511SOL    HW140430   6.977  12.527   8.249
79511SOL    HW240431   6.838  12.561   8.198
79512SOL     OW40432   1.240   1.282   1.758
79512SOL    HW140433   1.208   1.223   1.826
79512SOL    HW240434   1.287   1.350   1.805
79513SOL     OW40435  12.638   6.872  13.146
79513SOL    HW140436  12.611   6.948  13.095
79513SOL    HW240437  12.708   6.832  13.096
79514SOL     OW40438   0.007  14.542   2.242
79514SOL    HW140439  14.886  14.473   2.307
79514SOL    HW240440   0.084  14.517   2.190
79515SOL     OW40441   8.687   6.459   1.600
79515SOL    HW140442   8.677   6.366   1.579
79515SOL    HW240443   8.624   6.503   1.543
79516SOL     OW40444   2.532   1.836   3.232
79516SOL    HW140445   2.565   1.746   3.241
79516SOL    HW240446   2.609   1.891   3.246
79517SOL     OW40447  13.170   9.000   1.719
79517SOL    HW140448  13.157   8.974   1.810
79517SOL    HW240449  13.144   9.092   1.716
79518SOL     OW40450  13.002   2.360  14.079
79518SOL    HW140451  12.908   2.344  14.082
79518SOL    HW240452  13.015   2.407  13.996
79519SOL     OW40453   6.469   6.659   6.310
79519SOL    HW140454   6.393   6.648   6.367
79519SOL    HW240455   6.537   6.605   6.350
79520SOL     OW40456   9.962   8.339   3.628
79520SOL    HW140457   9.963   8.417   3.684
79520SOL    HW240458   9.904   8.278   3.674
79521SOL     OW40459   3.970   8.062   5.693
79521SOL    HW140460   4.017   8.067   5.777
79521SOL    HW240461   3.904   7.995   5.707
79522SOL     OW40462   9.162   5.592  11.995
79522SOL    HW140463   9.195   5.636  11.917
79522SOL    HW240464   9.112   5.659  12.041
79523SOL     OW40465   2.609   8.941   1.934
79523SOL    HW140466   2.558   8.966   2.012
79523SOL    HW240467   2.560   8.978   1.861
79524SOL     OW40468   1.739  12.200   2.606
79524SOL    HW140469   1.807  12.267   2.616
79524SOL    HW240470   1.657  12.249   2.604
79525SOL     OW40471   9.706   7.907   3.584
79525SOL    HW140472   9.705   8.002   3.579
79525SOL    HW240473   9.661   7.887   3.667
79526SOL     OW40474  12.521   1.356  13.434
79526SOL    HW140475  12.448   1.318  13.386
79526SOL    HW240476  12.491   1.360  13.525
79527SOL     OW40477   8.526   5.219   2.427
79527SOL    HW140478   8.461   5.272   2.382
79527SOL    HW240479   8.570   5.170   2.357
79528SOL     OW40480  14.481   8.564   8.270
79528SOL    HW140481  14.490   8.580   8.364
79528SOL    HW240482  14.507   8.647   8.229
79529SOL     OW40483   0.725  10.594   4.686
79529SOL    HW140484   0.811  10.575   4.648
79529SOL    HW240485   0.663  10.575   4.615
79530SOL     OW40486   5.910   5.462   7.562
79530SOL    HW140487   5.885   5.436   7.473
79530SOL    HW240488   5.831   5.502   7.598
79531SOL     OW40489   0.713   2.280   3.032
79531SOL    HW140490   0.729   2.344   3.102
79531SOL    HW240491   0.685   2.333   2.957
79532SOL     OW40492   6.774  11.927   3.636
79532SOL    HW140493   6.799  11.861   3.701
79532SOL    HW240494   6.720  11.879   3.574
79533SOL     OW40495   2.514  11.070   9.822
79533SOL    HW140496   2.461  11.148   9.837
79533SOL    HW240497   2.592  11.101   9.776
79534SOL     OW40498   9.871   4.583   1.941
79534SOL    HW140499   9.831   4.632   1.869
79534SOL    HW240500   9.834   4.621   2.020
79535SOL     OW40501  13.458   6.235   4.643
79535SOL    HW140502  13.532   6.277   4.599
79535SOL    HW240503  13.464   6.143   4.616
79536SOL     OW40504  11.815  10.689   4.851
79536SOL    HW140505  11.766  10.709   4.771
79536SOL    HW240506  11.759  10.721   4.921
79537SOL     OW40507   4.384   1.167   7.028
79537SOL    HW140508   4.449   1.099   7.008
79537SOL    HW240509   4.407   1.196   7.116
79538SOL     OW40510  10.757   5.427  11.060
79538SOL    HW140511  10.810   5.505  11.075
79538SOL    HW240512  10.694   5.453  10.993
79539SOL     OW40513   1.411   6.638   3.135
79539SOL    HW140514   1.505   6.652   3.137
79539SOL    HW240515   1.374   6.725   3.125
79540SOL     OW40516   1.134   6.433  13.225
79540SOL    HW140517   1.226   6.408  13.238
79540SOL    HW240518   1.128   6.522  13.259
79541SOL     OW40519   4.386  13.540   0.784
79541SOL    HW140520   4.466  13.567   0.828
79541SOL    HW240521   4.372  13.606   0.716
79542SOL     OW40522   6.247   7.179  11.407
79542SOL    HW140523   6.237   7.179  11.312
79542SOL    HW240524   6.251   7.086  11.431
79543SOL     OW40525  14.456  13.984   5.409
79543SOL    HW140526  14.506  13.962   5.488
79543SOL    HW240527  14.443  13.900   5.364
79544SOL     OW40528   2.642   3.218   0.800
79544SOL    HW140529   2.662   3.256   0.714
79544SOL    HW240530   2.727   3.206   0.842
79545SOL     OW40531   8.032   8.670   9.230
79545SOL    HW140532   8.110   8.618   9.251
79545SOL    HW240533   7.993   8.625   9.155
79546SOL     OW40534   8.570   3.445   7.364
79546SOL    HW140535   8.657   3.408   7.376
79546SOL    HW240536   8.511   3.381   7.405
79547SOL     OW40537  12.948   3.799   1.858
79547SOL    HW140538  12.968   3.706   1.848
79547SOL    HW240539  12.917   3.826   1.771
79548SOL     OW40540   1.939   7.377   3.182
79548SOL    HW140541   1.960   7.450   3.124
79548SOL    HW240542   1.850   7.395   3.213
79549SOL     OW40543   9.682   1.205   1.743
79549SOL    HW140544   9.747   1.270   1.718
79549SOL    HW240545   9.706   1.180   1.832
79550SOL     OW40546  12.876   9.546  13.484
79550SOL    HW140547  12.954   9.591  13.453
79550SOL    HW240548  12.887   9.455  13.455
79551SOL     OW40549   1.849   6.280  14.797
79551SOL    HW140550   1.925   6.283  14.740
79551SOL    HW240551   1.827   6.187  14.802
79552SOL     OW40552  11.518   8.142   5.737
79552SOL    HW140553  11.529   8.047   5.732
79552SOL    HW240554  11.607   8.176   5.741
79553SOL     OW40555  11.491  10.379  11.903
79553SOL    HW140556  11.434  10.412  11.834
79553SOL    HW240557  11.431  10.354  11.974
79554SOL     OW40558  10.687   4.093   4.812
79554SOL    HW140559  10.699   4.122   4.721
79554SOL    HW240560  10.609   4.141   4.842
79555SOL     OW40561  14.399  12.582  14.428
79555SOL    HW140562  14.393  12.492  14.396
79555SOL    HW240563  14.397  12.572  14.524
79556SOL     OW40564   4.373   6.445   7.179
79556SOL    HW140565   4.371   6.454   7.274
79556SOL    HW240566   4.424   6.365   7.164
79557SOL     OW40567   5.952   3.109  13.963
79557SOL    HW140568   6.043   3.080  13.972
79557SOL    HW240569   5.958   3.193  13.918
79558SOL     OW40570   2.425   5.880   1.910
79558SOL    HW140571   2.479   5.801   1.910
79558SOL    HW240572   2.487   5.951   1.891
79559SOL     OW40573  10.629   5.626   1.486
79559SOL    HW140574  10.563   5.562   1.461
79559SOL    HW240575  10.705   5.606   1.430
79560SOL     OW40576   9.062  10.087   4.785
79560SOL    HW140577   9.156  10.095   4.766
79560SOL    HW240578   9.019  10.133   4.712
79561SOL     OW40579  11.043   4.466  12.863
79561SOL    HW140580  11.107   4.481  12.932
79561SOL    HW240581  10.959   4.491  12.901
79562SOL     OW40582   9.662   8.635   6.239
79562SOL    HW140583   9.673   8.613   6.146
79562SOL    HW240584   9.609   8.563   6.274
79563SOL     OW40585   3.815  13.491   6.193
79563SOL    HW140586   3.827  13.470   6.286
79563SOL    HW240587   3.889  13.449   6.149
79564SOL     OW40588   7.035   1.206   3.658
79564SOL    HW140589   7.036   1.111   3.642
79564SOL    HW240590   7.104   1.220   3.722
79565SOL     OW40591   4.941  12.250  14.134
79565SOL    HW140592   4.906  12.339  14.133
79565SOL    HW240593   4.874  12.198  14.178
79566SOL     OW40594   8.475  11.468   8.006
79566SOL    HW140595   8.502  11.514   7.926
79566SOL    HW240596   8.380  11.477   8.007
79567SOL     OW40597   6.391  12.703   5.143
79567SOL    HW140598   6.481  12.688   5.171
79567SOL    HW240599   6.369  12.627   5.089
79568SOL     OW40600  10.620  12.325   9.849
79568SOL    HW140601  10.613  12.391   9.780
79568SOL    HW240602  10.700  12.349   9.897
79569SOL     OW40603  11.768  13.017   6.713
79569SOL    HW140604  11.675  13.037   6.720
79569SOL    HW240605  11.802  13.081   6.650
79570SOL     OW40606   5.055   6.005  11.718
79570SOL    HW140607   4.970   5.985  11.757
79570SOL    HW240608   5.044   6.092  11.680
79571SOL     OW40609   2.599   1.784   2.542
79571SOL    HW140610   2.527   1.789   2.479
79571SOL    HW240611   2.648   1.706   2.516
79572SOL     OW40612   2.322  11.899  13.887
79572SOL    HW140613   2.409  11.905  13.926
79572SOL    HW240614   2.328  11.827  13.825
79573SOL     OW40615  11.509  10.979  10.536
79573SOL    HW140616  11.467  10.994  10.620
79573SOL    HW240617  11.562  11.057  10.521
79574SOL     OW40618   5.296   9.428  10.086
79574SOL    HW140619   5.300   9.493  10.016
79574SOL    HW240620   5.224   9.370  10.062
79575SOL     OW40621   6.031  11.723   6.125
79575SOL    HW140622   6.022  11.631   6.099
79575SOL    HW240623   5.953  11.766   6.091
79576SOL     OW40624   4.048   9.548  14.167
79576SOL    HW140625   4.025   9.483  14.233
79576SOL    HW240626   3.975   9.548  14.106
79577SOL     OW40627   1.342  11.239   5.324
79577SOL    HW140628   1.336  11.305   5.393
79577SOL    HW240629   1.365  11.158   5.371
79578SOL     OW40630   3.298   8.149   4.508
79578SOL    HW140631   3.209   8.115   4.517
79578SOL    HW240632   3.287   8.230   4.457
79579SOL     OW40633   5.173  12.596   4.564
79579SOL    HW140634   5.196  12.503   4.564
79579SOL    HW240635   5.145  12.614   4.474
79580SOL     OW40636  13.898   0.033   7.581
79580SOL    HW140637  13.822   0.007   7.632
79580SOL    HW240638  13.901  14.858   7.509
79581SOL     OW40639  12.468   5.159  10.137
79581SOL    HW140640  12.527   5.185  10.208
79581SOL    HW240641  12.499   5.207  10.060
79582SOL     OW40642   7.222  14.205   5.255
79582SOL    HW140643   7.304  14.189   5.301
79582SOL    HW240644   7.168  14.252   5.318
79583SOL     OW40645   5.357   8.653   3.402
79583SOL    HW140646   5.314   8.640   3.486
79583SOL    HW240647   5.346   8.746   3.383
79584SOL     OW40648  12.505  14.261   2.621
79584SOL    HW140649  12.528  14.353   2.630
79584SOL    HW240650  12.568  14.226   2.559
79585SOL     OW40651   7.940   1.968   2.776
79585SOL    HW140652   8.009   2.025   2.741
79585SOL    HW240653   7.985   1.885   2.794
79586SOL     OW40654   4.277   8.085  10.467
79586SOL    HW140655   4.317   8.110  10.384
79586SOL    HW240656   4.196   8.136  10.471
79587SOL     OW40657   8.317   1.801  11.056
79587SOL    HW140658   8.332   1.845  10.972
79587SOL    HW240659   8.302   1.709  11.032
79588SOL     OW40660   8.246  13.507   9.993
79588SOL    HW140661   8.234  13.430  10.049
79588SOL    HW240662   8.259  13.472   9.905
79589SOL     OW40663   2.898  13.528  12.789
79589SOL    HW140664   2.961  13.601  12.792
79589SOL    HW240665   2.923  13.478  12.711
79590SOL     OW40666  14.167  14.404   7.510
79590SOL    HW140667  14.138  14.335   7.451
79590SOL    HW240668  14.090  14.459   7.523
79591SOL     OW40669   3.151  13.856  14.140
79591SOL    HW140670   3.095  13.800  14.193
79591SOL    HW240671   3.099  13.934  14.125
79592SOL     OW40672  13.908  11.662  10.953
79592SOL    HW140673  13.847  11.692  10.885
79592SOL    HW240674  13.994  11.671  10.913
79593SOL     OW40675  14.203   2.873   5.570
79593SOL    HW140676  14.122   2.872   5.620
79593SOL    HW240677  14.191   2.943   5.506
79594SOL     OW40678  10.112   1.650   3.770
79594SOL    HW140679  10.177   1.634   3.701
79594SOL    HW240680  10.029   1.621   3.731
79595SOL     OW40681  14.863  13.351  11.419
79595SOL    HW140682  14.862  13.445  11.438
79595SOL    HW240683   0.041  13.340  11.350
79596SOL     OW40684  12.671  11.155   6.504
79596SOL    HW140685  12.661  11.132   6.597
79596SOL    HW240686  12.686  11.071   6.460
79597SOL     OW40687  12.245  12.442  10.276
79597SOL    HW140688  12.163  12.470  10.236
79597SOL    HW240689  12.284  12.522  10.310
79598SOL     OW40690  12.886  11.274  13.589
79598SOL    HW140691  12.882  11.244  13.498
79598SOL    HW240692  12.799  11.256  13.625
79599SOL     OW40693  12.599  11.096   1.876
79599SOL    HW140694  12.642  11.175   1.908
79599SOL    HW240695  12.578  11.115   1.784
79600SOL     OW40696   0.664   5.076   6.359
79600SOL    HW140697   0.686   5.166   6.381
79600SOL    HW240698   0.580   5.060   6.404
79601SOL     OW40699  14.385   7.938  14.807
79601SOL    HW140700  14.310   7.944  14.748
79601SOL    HW240701  14.381   7.848  14.841
79602SOL     OW40702  12.154  10.335  14.519
79602SOL    HW140703  12.168  10.430  14.529
79602SOL    HW240704  12.221  10.308  14.457
79603SOL     OW40705   4.648   1.059   1.147
79603SOL    HW140706   4.644   1.098   1.234
79603SOL    HW240707   4.579   1.103   1.098
79604SOL     OW40708   8.025   6.832  12.706
79604SOL    HW140709   7.938   6.795  12.718
79604SOL    HW240710   8.084   6.772  12.753
79605SOL     OW40711  14.435   7.180   3.363
79605SOL    HW140712  14.377   7.200   3.437
79605SOL    HW240713  14.488   7.107   3.393
79606SOL     OW40714   2.953   9.156  11.697
79606SOL    HW140715   2.971   9.068  11.662
79606SOL    HW240716   2.859   9.168  11.684
79607SOL     OW40717   5.879   7.301  12.365
79607SOL    HW140718   5.956   7.351  12.337
79607SOL    HW240719   5.806   7.341  12.317
79608SOL     OW40720  11.902  10.670  13.400
79608SOL    HW140721  11.947  10.601  13.449
79608SOL    HW240722  11.920  10.750  13.450
79609SOL     OW40723  13.805  10.450   1.291
79609SOL    HW140724  13.756  10.473   1.212
79609SOL    HW240725  13.792  10.524   1.349
79610SOL     OW40726   9.776   5.816  10.403
79610SOL    HW140727   9.832   5.770  10.341
79610SOL    HW240728   9.725   5.747  10.446
79611SOL     OW40729   2.680  14.292  13.221
79611SOL    HW140730   2.644  14.209  13.189
79611SOL    HW240731   2.604  14.350  13.228
79612SOL     OW40732   5.686  12.176   1.181
79612SOL    HW140733   5.666  12.086   1.207
79612SOL    HW240734   5.606  12.206   1.138
79613SOL     OW40735   3.291   5.209  10.096
79613SOL    HW140736   3.262   5.183  10.009
79613SOL    HW240737   3.213   5.204  10.151
79614SOL     OW40738   5.462  14.048  13.254
79614SOL    HW140739   5.416  13.993  13.318
79614SOL    HW240740   5.538  13.995  13.227
79615SOL     OW40741   5.207   7.162  14.646
79615SOL    HW140742   5.195   7.067  14.642
79615SOL    HW240743   5.126   7.197  14.610
79616SOL     OW40744   5.637  11.863   2.270
79616SOL    HW140745   5.695  11.938   2.286
79616SOL    HW240746   5.628  11.859   2.175
79617SOL     OW40747   2.167   1.958   1.338
79617SOL    HW140748   2.115   2.014   1.281
79617SOL    HW240749   2.204   2.017   1.403
79618SOL     OW40750  12.003   8.653  14.053
79618SOL    HW140751  12.080   8.644  13.997
79618SOL    HW240752  12.028   8.718  14.118
79619SOL     OW40753   9.539   2.763  11.351
79619SOL    HW140754   9.580   2.704  11.415
79619SOL    HW240755   9.596   2.840  11.350
79620SOL     OW40756  13.141   6.795   6.053
79620SOL    HW140757  13.067   6.779   5.993
79620SOL    HW240758  13.118   6.746   6.132
79621SOL     OW40759   0.253  12.486   2.933
79621SOL    HW140760   0.236  12.394   2.953
79621SOL    HW240761   0.314  12.484   2.859
79622SOL     OW40762  14.780  14.695  11.531
79622SOL    HW140763  14.723  14.688  11.608
79622SOL    HW240764  14.726  14.739  11.465
79623SOL     OW40765  11.472   2.646   3.065
79623SOL    HW140766  11.528   2.613   3.136
79623SOL    HW240767  11.530   2.648   2.989
79624SOL     OW40768   5.304   5.098   9.698
79624SOL    HW140769   5.272   5.064   9.614
79624SOL    HW240770   5.397   5.076   9.699
79625SOL     OW40771   5.519   8.073  14.689
79625SOL    HW140772   5.430   8.108  14.698
79625SOL    HW240773   5.522   8.035  14.602
79626SOL     OW40774   6.527  10.889   0.681
79626SOL    HW140775   6.598  10.925   0.733
79626SOL    HW240776   6.484  10.826   0.739
79627SOL     OW40777   5.459   9.919   7.297
79627SOL    HW140778   5.438   9.975   7.372
79627SOL    HW240779   5.531   9.964   7.253
79628SOL     OW40780   1.094   0.300  12.187
79628SOL    HW140781   1.154   0.240  12.231
79628SOL    HW240782   1.136   0.321  12.104
79629SOL     OW40783   0.708   7.996   8.482
79629SOL    HW140784   0.684   7.930   8.417
79629SOL    HW240785   0.771   8.052   8.438
79630SOL     OW40786  10.056   9.009  10.270
79630SOL    HW140787  10.093   8.944  10.330
79630SOL    HW240788  10.024   9.078  10.328
79631SOL     OW40789   2.184   0.431   0.259
79631SOL    HW140790   2.124   0.496   0.294
79631SOL    HW240791   2.230   0.476   0.188
79632SOL     OW40792   8.463   7.272   7.619
79632SOL    HW140793   8.472   7.182   7.650
79632SOL    HW240794   8.397   7.266   7.549
79633SOL     OW40795  14.257  10.917   0.593
79633SOL    HW140796  14.186  10.909   0.657
79633SOL    HW240797  14.213  10.944   0.512
79634SOL     OW40798   7.544   4.476   3.837
79634SOL    HW140799   7.639   4.463   3.842
79634SOL    HW240800   7.512   4.449   3.923
79635SOL     OW40801   6.532  11.597  11.610
79635SOL    HW140802   6.517  11.530  11.676
79635SOL    HW240803   6.562  11.673  11.659
79636SOL     OW40804  14.691  10.630   9.451
79636SOL    HW140805  14.743  10.678   9.387
79636SOL    HW240806  14.686  10.688   9.527
79637SOL     OW40807   6.139   8.399   6.777
79637SOL    HW140808   6.161   8.404   6.684
79637SOL    HW240809   6.135   8.306   6.796
79638SOL     OW40810   5.950   2.792   2.493
79638SOL    HW140811   6.033   2.748   2.471
79638SOL    HW240812   5.883   2.727   2.472
79639SOL     OW40813   7.485   5.706  10.854
79639SOL    HW140814   7.548   5.678  10.919
79639SOL    HW240815   7.524   5.784  10.814
79640SOL     OW40816   2.168   3.973   7.417
79640SOL    HW140817   2.260   3.976   7.443
79640SOL    HW240818   2.170   3.951   7.324
79641SOL     OW40819  12.940   7.916  12.991
79641SOL    HW140820  12.911   7.911  13.082
79641SOL    HW240821  12.886   7.985  12.952
79642SOL     OW40822   8.129   8.178  10.635
79642SOL    HW140823   8.079   8.106  10.595
79642SOL    HW240824   8.146   8.239  10.564
79643SOL     OW40825  13.819   5.491   9.071
79643SOL    HW140826  13.897   5.473   9.018
79643SOL    HW240827  13.760   5.536   9.010
79644SOL     OW40828   5.482   1.438   6.566
79644SOL    HW140829   5.528   1.511   6.608
79644SOL    HW240830   5.530   1.422   6.485
79645SOL     OW40831   3.521   1.476   8.001
79645SOL    HW140832   3.546   1.404   8.059
79645SOL    HW240833   3.437   1.506   8.036
79646SOL     OW40834   3.734   9.697   6.099
79646SOL    HW140835   3.713   9.790   6.109
79646SOL    HW240836   3.682   9.669   6.023
79647SOL     OW40837   1.614   6.178  12.095
79647SOL    HW140838   1.675   6.114  12.133
79647SOL    HW240839   1.630   6.259  12.143
79648SOL     OW40840   6.354  13.757  10.705
79648SOL    HW140841   6.387  13.695  10.770
79648SOL    HW240842   6.290  13.810  10.753
79649SOL     OW40843  10.596  14.019  13.054
79649SOL    HW140844  10.681  14.049  13.086
79649SOL    HW240845  10.553  13.980  13.130
79650SOL     OW40846  12.254   1.521   5.904
79650SOL    HW140847  12.283   1.535   5.995
79650SOL    HW240848  12.169   1.563   5.900
79651SOL     OW40849  12.140   2.382   8.328
79651SOL    HW140850  12.184   2.416   8.406
79651SOL    HW240851  12.065   2.333   8.362
79652SOL     OW40852   9.046  13.412   9.531
79652SOL    HW140853   8.985  13.381   9.465
79652SOL    HW240854   9.036  13.351   9.604
79653SOL     OW40855   6.352   3.525   8.188
79653SOL    HW140856   6.292   3.465   8.233
79653SOL    HW240857   6.435   3.477   8.185
79654SOL     OW40858   6.256  12.387   5.286
79654SOL    HW140859   6.172  12.418   5.322
79654SOL    HW240860   6.252  12.411   5.194
79655SOL     OW40861   3.616   3.062   3.707
79655SOL    HW140862   3.652   2.975   3.726
79655SOL    HW240863   3.539   3.044   3.652
79656SOL     OW40864  14.571   3.981   2.306
79656SOL    HW140865  14.512   4.020   2.370
79656SOL    HW240866  14.522   3.908   2.270
79657SOL     OW40867   9.140   6.307  10.363
79657SOL    HW140868   9.048   6.329  10.381
79657SOL    HW240869   9.155   6.338  10.273
79658SOL     OW40870   5.854   0.887   6.258
79658SOL    HW140871   5.761   0.866   6.250
79658SOL    HW240872   5.866   0.965   6.203
79659SOL     OW40873  11.496   1.716   6.388
79659SOL    HW140874  11.482   1.766   6.308
79659SOL    HW240875  11.518   1.781   6.454
79660SOL     OW40876  10.972  10.872  13.150
79660SOL    HW140877  11.006  10.934  13.086
79660SOL    HW240878  11.049  10.833  13.191
79661SOL     OW40879   6.312   6.677   2.353
79661SOL    HW140880   6.342   6.711   2.269
79661SOL    HW240881   6.272   6.752   2.396
79662SOL     OW40882  10.167   6.173  13.761
79662SOL    HW140883  10.164   6.106  13.693
79662SOL    HW240884  10.240   6.146  13.818
79663SOL     OW40885   5.856   5.442   1.423
79663SOL    HW140886   5.900   5.422   1.340
79663SOL    HW240887   5.823   5.358   1.454
79664SOL     OW40888  11.702  11.613   5.355
79664SOL    HW140889  11.619  11.568   5.366
79664SOL    HW240890  11.730  11.590   5.266
79665SOL     OW40891   7.872   6.699   5.076
79665SOL    HW140892   7.784   6.736   5.068
79665SOL    HW240893   7.880   6.640   5.001
79666SOL     OW40894   0.648  10.043   0.444
79666SOL    HW140895   0.737  10.013   0.422
79666SOL    HW240896   0.621  10.094   0.368
79667SOL     OW40897   3.753   6.478  13.551
79667SOL    HW140898   3.791   6.563  13.527
79667SOL    HW240899   3.659   6.497  13.561
79668SOL     OW40900  10.825   7.271   9.379
79668SOL    HW140901  10.873   7.257   9.298
79668SOL    HW240902  10.848   7.360   9.407
79669SOL     OW40903   6.934  14.619   3.620
79669SOL    HW140904   6.843  14.605   3.645
79669SOL    HW240905   6.965  14.532   3.594
79670SOL     OW40906   1.698   0.134  11.448
79670SOL    HW140907   1.717   0.228  11.450
79670SOL    HW240908   1.772   0.096  11.402
79671SOL     OW40909   0.572   6.076   3.206
79671SOL    HW140910   0.538   6.069   3.116
79671SOL    HW240911   0.567   5.987   3.241
79672SOL     OW40912   7.803   6.225  10.466
79672SOL    HW140913   7.799   6.190  10.377
79672SOL    HW240914   7.871   6.291  10.463
79673SOL     OW40915  14.178  12.815   5.547
79673SOL    HW140916  14.124  12.757   5.600
79673SOL    HW240917  14.126  12.833   5.469
79674SOL     OW40918   2.926   4.209  11.322
79674SOL    HW140919   2.971   4.292  11.305
79674SOL    HW240920   2.859   4.231  11.387
79675SOL     OW40921   0.707   2.868   4.261
79675SOL    HW140922   0.654   2.921   4.320
79675SOL    HW240923   0.695   2.909   4.175
79676SOL     OW40924  14.836   2.544  13.333
79676SOL    HW140925   0.017   2.608  13.354
79676SOL    HW240926  14.841   2.535  13.237
79677SOL     OW40927  11.796  12.320   2.838
79677SOL    HW140928  11.791  12.262   2.762
79677SOL    HW240929  11.732  12.388   2.821
79678SOL     OW40930   4.340  10.926  11.125
79678SOL    HW140931   4.249  10.928  11.094
79678SOL    HW240932   4.375  10.844  11.089
79679SOL     OW40933   5.602  13.518   7.992
79679SOL    HW140934   5.524  13.553   7.949
79679SOL    HW240935   5.589  13.424   7.992
79680SOL     OW40936  10.699  10.461   1.652
79680SOL    HW140937  10.771  10.462   1.588
79680SOL    HW240938  10.657  10.547   1.641
79681SOL     OW40939   4.889   0.120   0.921
79681SOL    HW140940   4.871   0.068   0.999
79681SOL    HW240941   4.805   0.160   0.898
79682SOL     OW40942   4.950   8.300   2.113
79682SOL    HW140943   5.019   8.346   2.065
79682SOL    HW240944   4.991   8.218   2.141
79683SOL     OW40945   2.114   6.900   8.590
79683SOL    HW140946   2.034   6.853   8.612
79683SOL    HW240947   2.170   6.835   8.547
79684SOL     OW40948   8.581  12.421  12.410
79684SOL    HW140949   8.672  12.390  12.408
79684SOL    HW240950   8.585  12.509  12.373
79685SOL     OW40951   2.577   6.591  10.891
79685SOL    HW140952   2.574   6.606  10.985
79685SOL    HW240953   2.652   6.533  10.878
79686SOL     OW40954  10.893  10.275   1.740
79686SOL    HW140955  10.875  10.193   1.787
79686SOL    HW240956  10.807  10.318   1.735
79687SOL     OW40957  11.982  11.012   3.633
79687SOL    HW140958  11.912  11.021   3.697
79687SOL    HW240959  12.005  10.919   3.635
79688SOL     OW40960   9.240  12.766   3.490
79688SOL    HW140961   9.312  12.825   3.511
79688SOL    HW240962   9.275  12.678   3.505
79689SOL     OW40963   9.238   8.688   4.381
79689SOL    HW140964   9.292   8.739   4.321
79689SOL    HW240965   9.195   8.754   4.436
79690SOL     OW40966  11.643  14.150   6.438
79690SOL    HW140967  11.684  14.231   6.406
79690SOL    HW240968  11.628  14.098   6.359
79691SOL     OW40969   0.847   2.687   8.717
79691SOL    HW140970   0.854   2.773   8.676
79691SOL    HW240971   0.894   2.695   8.799
79692SOL     OW40972   4.325   5.712   9.018
79692SOL    HW140973   4.235   5.738   8.997
79692SOL    HW240974   4.346   5.644   8.954
79693SOL     OW40975   0.852   0.761  10.508
79693SOL    HW140976   0.852   0.834  10.570
79693SOL    HW240977   0.940   0.723  10.515
79694SOL     OW40978  11.582   8.836   2.589
79694SOL    HW140979  11.528   8.785   2.648
79694SOL    HW240980  11.627   8.899   2.646
79695SOL     OW40981  14.633  11.484   7.530
79695SOL    HW140982  14.686  11.506   7.454
79695SOL    HW240983  14.545  11.469   7.494
79696SOL     OW40984   0.785  11.252   2.440
79696SOL    HW140985   0.777  11.236   2.345
79696SOL    HW240986   0.858  11.195   2.467
79697SOL     OW40987  12.825  14.100   8.383
79697SOL    HW140988  12.906  14.050   8.384
79697SOL    HW240989  12.846  14.179   8.332
79698SOL     OW40990   0.645   6.798  14.262
79698SOL    HW140991   0.719   6.748  14.295
79698SOL    HW240992   0.682   6.881  14.234
79699SOL     OW40993   4.743  13.282   5.984
79699SOL    HW140994   4.698  13.308   5.903
79699SOL    HW240995   4.785  13.199   5.962
79700SOL     OW40996   3.391  11.294   6.754
79700SOL    HW140997   3.367  11.264   6.842
79700SOL    HW240998   3.465  11.353   6.769
79701SOL     OW40999  13.363  10.821   3.127
79701SOL    HW141000  13.268  10.829   3.115
79701SOL    HW241001  13.400  10.882   3.064
79702SOL     OW41002  11.638   7.319   1.486
79702SOL    HW141003  11.554   7.351   1.456
79702SOL    HW241004  11.698   7.334   1.413
79703SOL     OW41005   6.784   3.655   8.648
79703SOL    HW141006   6.811   3.599   8.576
79703SOL    HW241007   6.692   3.632   8.664
79704SOL     OW41008   4.793  11.203  14.005
79704SOL    HW141009   4.823  11.147  14.077
79704SOL    HW241010   4.810  11.152  13.926
79705SOL     OW41011   4.428  14.508  14.627
79705SOL    HW141012   4.368  14.513  14.553
79705SOL    HW241013   4.372  14.488  14.702
79706SOL     OW41014   6.731   3.534   6.929
79706SOL    HW141015   6.730   3.443   6.898
79706SOL    HW241016   6.798   3.535   6.997
79707SOL     OW41017   2.627   1.133  10.339
79707SOL    HW141018   2.593   1.212  10.297
79707SOL    HW241019   2.679   1.165  10.413
79708SOL     OW41020   5.144   8.332   9.879
79708SOL    HW141021   5.085   8.272   9.925
79708SOL    HW241022   5.232   8.306   9.908
79709SOL     OW41023  11.457   5.677  14.317
79709SOL    HW141024  11.422   5.627  14.242
79709SOL    HW241025  11.387   5.673  14.382
79710SOL     OW41026   3.045   0.554  13.955
79710SOL    HW141027   3.039   0.514  13.869
79710SOL    HW241028   3.099   0.631  13.942
79711SOL     OW41029   8.930  11.728   9.520
79711SOL    HW141030   9.007  11.670   9.520
79711SOL    HW241031   8.883  11.705   9.440
79712SOL     OW41032   9.805   3.661   9.389
79712SOL    HW141033   9.894   3.697   9.390
79712SOL    HW241034   9.774   3.674   9.300
79713SOL     OW41035   6.741  14.505   6.779
79713SOL    HW141036   6.830  14.537   6.797
79713SOL    HW241037   6.697  14.578   6.737
79714SOL     OW41038   5.875   7.480  14.879
79714SOL    HW141039   5.900   7.403   0.042
79714SOL    HW241040   5.851   7.546   0.056
79715SOL     OW41041  11.357   7.625   7.658
79715SOL    HW141042  11.394   7.584   7.579
79715SOL    HW241043  11.272   7.658   7.629
79716SOL     OW41044   6.430  14.469  11.830
79716SOL    HW141045   6.498  14.452  11.764
79716SOL    HW241046   6.367  14.525  11.785
79717SOL     OW41047   1.084   9.270   6.953
79717SOL    HW141048   1.097   9.210   6.879
79717SOL    HW241049   1.010   9.325   6.926
79718SOL     OW41050  13.765   0.272  11.389
79718SOL    HW141051  13.825   0.343  11.410
79718SOL    HW241052  13.791   0.200  11.447
79719SOL     OW41053  13.155   3.139   2.612
79719SOL    HW141054  13.114   3.053   2.606
79719SOL    HW241055  13.161   3.169   2.521
79720SOL     OW41056   5.709  11.047   1.490
79720SOL    HW141057   5.800  11.018   1.492
79720SOL    HW241058   5.712  11.135   1.528
79721SOL     OW41059   4.710   1.766   0.040
79721SOL    HW141060   4.626   1.770   0.086
79721SOL    HW241061   4.752   1.688   0.074
79722SOL     OW41062   1.585   7.836  14.109
79722SOL    HW141063   1.620   7.925  14.115
79722SOL    HW241064   1.516   7.833  14.175
79723SOL     OW41065   4.303  14.554   7.996
79723SOL    HW141066   4.381  14.516   7.955
79723SOL    HW241067   4.335  14.596   8.075
79724SOL     OW41068  14.862   3.066   4.702
79724SOL    HW141069   0.049   3.055   4.643
79724SOL    HW241070  14.879   3.004   4.773
79725SOL     OW41071  11.575  14.313   5.454
79725SOL    HW141072  11.555  14.225   5.488
79725SOL    HW241073  11.530  14.317   5.370
79726SOL     OW41074  13.395   6.697   0.184
79726SOL    HW141075  13.429   6.780   0.151
79726SOL    HW241076  13.309   6.718   0.219
79727SOL     OW41077   5.679   4.143  12.701
79727SOL    HW141078   5.698   4.151  12.795
79727SOL    HW241079   5.650   4.052  12.690
79728SOL     OW41080   6.458   5.460   9.414
79728SOL    HW141081   6.516   5.448   9.489
79728SOL    HW241082   6.400   5.384   9.415
79729SOL     OW41083   5.203  11.955  14.246
79729SOL    HW141084   5.268  11.972  14.314
79729SOL    HW241085   5.236  11.999  14.168
79730SOL     OW41086   9.639   8.687  12.885
79730SOL    HW141087   9.711   8.624  12.877
79730SOL    HW241088   9.616   8.685  12.978
79731SOL     OW41089   1.336   9.880   8.099
79731SOL    HW141090   1.361   9.957   8.049
79731SOL    HW241091   1.259   9.908   8.149
79732SOL     OW41092   2.221  14.565   1.041
79732SOL    HW141093   2.215  14.502   1.113
79732SOL    HW241094   2.132  14.571   1.008
79733SOL     OW41095   0.623  13.374  12.278
79733SOL    HW141096   0.534  13.386  12.246
79733SOL    HW241097   0.668  13.456  12.256
79734SOL     OW41098  10.242  11.167  12.863
79734SOL    HW141099  10.146  11.171  12.869
79734SOL    HW241100  10.258  11.111  12.787
79735SOL     OW41101   2.168   4.749   4.017
79735SOL    HW141102   2.216   4.700   3.951
79735SOL    HW241103   2.076   4.725   4.003
79736SOL     OW41104   8.034   4.684   8.746
79736SOL    HW141105   8.029   4.695   8.841
79736SOL    HW241106   7.970   4.615   8.727
79737SOL     OW41107   1.508   4.371   4.595
79737SOL    HW141108   1.505   4.375   4.500
79737SOL    HW241109   1.463   4.290   4.617
79738SOL     OW41110  12.481   4.533  14.157
79738SOL    HW141111  12.395   4.526  14.199
79738SOL    HW241112  12.539   4.481  14.213
79739SOL     OW41113   0.455  13.105   1.573
79739SOL    HW141114   0.362  13.081   1.576
79739SOL    HW241115   0.479  13.092   1.481
79740SOL     OW41116   2.089  13.004  13.120
79740SOL    HW141117   2.132  12.923  13.147
79740SOL    HW241118   2.157  13.071  13.129
79741SOL     OW41119   6.364   5.417   8.521
79741SOL    HW141120   6.457   5.439   8.521
79741SOL    HW241121   6.320   5.501   8.512
79742SOL     OW41122  11.054  11.278  13.059
79742SOL    HW141123  11.064  11.200  13.006
79742SOL    HW241124  11.017  11.247  13.142
79743SOL     OW41125   4.437   6.049   7.596
79743SOL    HW141126   4.476   6.087   7.675
79743SOL    HW241127   4.356   6.008   7.627
79744SOL     OW41128  11.624   4.345   2.657
79744SOL    HW141129  11.709   4.331   2.616
79744SOL    HW241130  11.568   4.277   2.621
79745SOL     OW41131  10.448  14.124   1.199
79745SOL    HW141132  10.452  14.030   1.217
79745SOL    HW241133  10.535  14.156   1.221
79746SOL     OW41134  11.743   4.762   2.350
79746SOL    HW141135  11.803   4.806   2.289
79746SOL    HW241136  11.666   4.742   2.298
79747SOL     OW41137   3.570   6.695   5.612
79747SOL    HW141138   3.617   6.677   5.694
79747SOL    HW241139   3.507   6.624   5.605
79748SOL     OW41140  11.522   0.715   7.628
79748SOL    HW141141  11.595   0.774   7.608
79748SOL    HW241142  11.466   0.767   7.686
79749SOL     OW41143  12.292   3.071   8.216
79749SOL    HW141144  12.359   3.006   8.194
79749SOL    HW241145  12.292   3.130   8.140
79750SOL     OW41146  10.586   5.174   3.853
79750SOL    HW141147  10.658   5.232   3.877
79750SOL    HW241148  10.617   5.087   3.879
79751SOL     OW41149   3.219  13.166   5.837
79751SOL    HW141150   3.252  13.206   5.918
79751SOL    HW241151   3.176  13.085   5.866
79752SOL     OW41152   1.303   0.622   2.535
79752SOL    HW141153   1.329   0.699   2.586
79752SOL    HW241154   1.324   0.645   2.444
79753SOL     OW41155   8.342   4.892   9.699
79753SOL    HW141156   8.391   4.928   9.625
79753SOL    HW241157   8.394   4.916   9.776
79754SOL     OW41158   7.927  14.170   8.114
79754SOL    HW141159   7.850  14.216   8.148
79754SOL    HW241160   7.918  14.081   8.145
79755SOL     OW41161   2.056  11.772   4.288
79755SOL    HW141162   2.032  11.835   4.357
79755SOL    HW241163   1.974  11.729   4.265
79756SOL     OW41164   5.792   2.564   6.525
79756SOL    HW141165   5.859   2.497   6.533
79756SOL    HW241166   5.836   2.637   6.480
79757SOL     OW41167  10.948   3.262   3.831
79757SOL    HW141168  10.934   3.357   3.833
79757SOL    HW241169  10.907   3.234   3.749
79758SOL     OW41170   2.031   2.127  14.226
79758SOL    HW141171   2.124   2.108  14.212
79758SOL    HW241172   1.989   2.104  14.144
79759SOL     OW41173   3.315  10.347  14.738
79759SOL    HW141174   3.236  10.401  14.728
79759SOL    HW241175   3.383  10.409  14.766
79760SOL     OW41176   6.354   9.610   0.260
79760SOL    HW141177   6.379   9.689   0.212
79760SOL    HW241178   6.348   9.639   0.351
79761SOL     OW41179   7.663  14.809  14.643
79761SOL    HW141180   7.679  14.725  14.601
79761SOL    HW241181   7.750  14.840  14.668
79762SOL     OW41182   8.648   1.057  12.900
79762SOL    HW141183   8.626   1.145  12.930
79762SOL    HW241184   8.723   1.070  12.842
79763SOL     OW41185  14.719   7.874   7.542
79763SOL    HW141186  14.794   7.918   7.583
79763SOL    HW241187  14.757   7.824   7.470
79764SOL     OW41188  11.603  14.110   7.642
79764SOL    HW141189  11.688  14.155   7.642
79764SOL    HW241190  11.548  14.163   7.585
79765SOL     OW41191   1.940  13.713   0.971
79765SOL    HW141192   1.940  13.769   1.048
79765SOL    HW241193   1.945  13.774   0.897
79766SOL     OW41194  14.512   1.596   1.781
79766SOL    HW141195  14.506   1.500   1.779
79766SOL    HW241196  14.422   1.626   1.790
79767SOL     OW41197   6.782   8.498   4.063
79767SOL    HW141198   6.711   8.544   4.018
79767SOL    HW241199   6.829   8.567   4.110
79768SOL     OW41200   8.976  14.256   4.796
79768SOL    HW141201   8.959  14.340   4.838
79768SOL    HW241202   8.973  14.192   4.867
79769SOL     OW41203   3.857   6.084   2.135
79769SOL    HW141204   3.866   6.075   2.230
79769SOL    HW241205   3.873   5.997   2.100
79770SOL     OW41206  12.470   1.749   5.455
79770SOL    HW141207  12.414   1.700   5.515
79770SOL    HW241208  12.427   1.835   5.447
79771SOL     OW41209  11.521  14.289   6.100
79771SOL    HW141210  11.428  14.312   6.091
79771SOL    HW241211  11.520  14.200   6.135
79772SOL     OW41212   8.343  11.460   8.994
79772SOL    HW141213   8.425  11.412   8.999
79772SOL    HW241214   8.349  11.526   9.063
79773SOL     OW41215   2.608   7.459   8.135
79773SOL    HW141216   2.549   7.453   8.060
79773SOL    HW241217   2.660   7.379   8.131
79774SOL     OW41218   0.619  14.165  14.663
79774SOL    HW141219   0.539  14.148  14.614
79774SOL    HW241220   0.650  14.249  14.629
79775SOL     OW41221   7.626  13.438   5.648
79775SOL    HW141222   7.697  13.374   5.655
79775SOL    HW241223   7.566  13.399   5.584
79776SOL     OW41224   6.579   6.154  12.010
79776SOL    HW141225   6.624   6.109  11.939
79776SOL    HW241226   6.648   6.175  12.073
79777SOL     OW41227   3.226  12.023   0.957
79777SOL    HW141228   3.171  12.102   0.967
79777SOL    HW241229   3.310  12.056   0.925
79778SOL     OW41230   2.038  13.604  12.385
79778SOL    HW141231   2.036  13.662  12.460
79778SOL    HW241232   1.948  13.603  12.352
79779SOL     OW41233   4.813   3.427  11.676
79779SOL    HW141234   4.815   3.435  11.580
79779SOL    HW241235   4.722   3.404  11.696
79780SOL     OW41236   1.759   5.593   2.808
79780SOL    HW141237   1.845   5.629   2.784
79780SOL    HW241238   1.709   5.596   2.726
79781SOL     OW41239   1.934   8.386   4.696
79781SOL    HW141240   1.927   8.296   4.727
79781SOL    HW241241   1.922   8.440   4.775
79782SOL     OW41242   5.360   9.694   2.696
79782SOL    HW141243   5.298   9.642   2.646
79782SOL    HW241244   5.385   9.766   2.638
79783SOL     OW41245   9.811  13.660  14.297
79783SOL    HW141246   9.874  13.689  14.363
79783SOL    HW241247   9.848  13.578  14.264
79784SOL     OW41248   7.397   2.140   7.342
79784SOL    HW141249   7.389   2.235   7.334
79784SOL    HW241250   7.312   2.112   7.376
79785SOL     OW41251   2.666   1.660  13.522
79785SOL    HW141252   2.673   1.751  13.552
79785SOL    HW241253   2.745   1.617  13.556
79786SOL     OW41254  10.782   7.049   7.135
79786SOL    HW141255  10.804   7.138   7.161
79786SOL    HW241256  10.693   7.054   7.100
79787SOL     OW41257   0.035   2.296  13.453
79787SOL    HW141258  14.883   2.370  13.406
79787SOL    HW241259   0.066   2.237  13.384
79788SOL     OW41260  13.254   8.976   8.768
79788SOL    HW141261  13.305   8.914   8.821
79788SOL    HW241262  13.214   9.035   8.832
79789SOL     OW41263   5.872   3.779   5.072
79789SOL    HW141264   5.951   3.736   5.104
79789SOL    HW241265   5.851   3.844   5.140
79790SOL     OW41266  11.169   3.282   2.702
79790SOL    HW141267  11.232   3.350   2.678
79790SOL    HW241268  11.090   3.304   2.652
79791SOL     OW41269   5.588  13.772   1.476
79791SOL    HW141270   5.603  13.704   1.410
79791SOL    HW241271   5.636  13.848   1.444
79792SOL     OW41272   8.224  10.979   6.613
79792SOL    HW141273   8.292  10.911   6.615
79792SOL    HW241274   8.154  10.940   6.560
79793SOL     OW41275   3.938  10.095  12.348
79793SOL    HW141276   3.888  10.043  12.284
79793SOL    HW241277   3.871  10.135  12.403
79794SOL     OW41278  13.894   3.236  10.413
79794SOL    HW141279  13.937   3.296  10.352
79794SOL    HW241280  13.958   3.166  10.427
79795SOL     OW41281  11.520   7.174   0.261
79795SOL    HW141282  11.495   7.243   0.323
79795SOL    HW241283  11.550   7.102   0.316
79796SOL     OW41284   6.732   1.640  12.595
79796SOL    HW141285   6.815   1.680  12.623
79796SOL    HW241286   6.735   1.644  12.500
79797SOL     OW41287   6.695  10.025   3.437
79797SOL    HW141288   6.726  10.052   3.351
79797SOL    HW241289   6.649   9.943   3.421
79798SOL     OW41290   1.221   3.538   0.365
79798SOL    HW141291   1.142   3.485   0.377
79798SOL    HW241292   1.291   3.474   0.354
79799SOL     OW41293   4.773   7.480   5.424
79799SOL    HW141294   4.736   7.568   5.432
79799SOL    HW241295   4.857   7.485   5.470
79800SOL     OW41296  13.252  13.503   6.506
79800SOL    HW141297  13.308  13.489   6.429
79800SOL    HW241298  13.243  13.416   6.545
79801SOL     OW41299   5.584   7.368   2.861
79801SOL    HW141300   5.557   7.427   2.931
79801SOL    HW241301   5.597   7.425   2.785
79802SOL     OW41302  11.055   2.944  12.604
79802SOL    HW141303  11.143   2.971  12.629
79802SOL    HW241304  11.058   2.848  12.605
79803SOL     OW41305   1.312   1.066   3.535
79803SOL    HW141306   1.274   1.064   3.623
79803SOL    HW241307   1.324   0.974   3.511
79804SOL     OW41308   2.356  14.096   8.770
79804SOL    HW141309   2.324  14.072   8.682
79804SOL    HW241310   2.435  14.043   8.782
79805SOL     OW41311   3.568   2.833   7.754
79805SOL    HW141312   3.648   2.781   7.749
79805SOL    HW241313   3.571   2.889   7.677
79806SOL     OW41314   2.638   2.751   5.240
79806SOL    HW141315   2.552   2.710   5.241
79806SOL    HW241316   2.645   2.791   5.153
79807SOL     OW41317   2.992   1.951  14.072
79807SOL    HW141318   3.054   1.982  14.006
79807SOL    HW241319   2.997   1.856  14.067
79808SOL     OW41320  11.416   7.459  10.318
79808SOL    HW141321  11.361   7.401  10.370
79808SOL    HW241322  11.429   7.412  10.236
79809SOL     OW41323   2.825   5.663  12.530
79809SOL    HW141324   2.733   5.676  12.554
79809SOL    HW241325   2.846   5.739  12.476
79810SOL     OW41326   1.537   5.994  10.475
79810SOL    HW141327   1.586   6.018  10.554
79810SOL    HW241328   1.534   5.898  10.477
79811SOL     OW41329   1.580   4.242  10.999
79811SOL    HW141330   1.525   4.206  10.930
79811SOL    HW241331   1.665   4.199  10.987
79812SOL     OW41332   3.674   7.087  14.265
79812SOL    HW141333   3.691   7.054  14.177
79812SOL    HW241334   3.579   7.101  14.268
79813SOL     OW41335   4.519   6.405   6.124
79813SOL    HW141336   4.433   6.412   6.082
79813SOL    HW241337   4.500   6.387   6.216
79814SOL     OW41338   0.810   3.984  12.310
79814SOL    HW141339   0.887   4.026  12.270
79814SOL    HW241340   0.842   3.949  12.393
79815SOL     OW41341  14.351  10.934   3.845
79815SOL    HW141342  14.382  10.844   3.830
79815SOL    HW241343  14.257  10.929   3.829
79816SOL     OW41344   0.840   8.244   2.771
79816SOL    HW141345   0.916   8.196   2.738
79816SOL    HW241346   0.832   8.216   2.862
79817SOL     OW41347  12.563   6.350   3.437
79817SOL    HW141348  12.615   6.302   3.373
79817SOL    HW241349  12.493   6.290   3.461
79818SOL     OW41350  11.100   4.338  14.734
79818SOL    HW141351  11.021   4.392  14.727
79818SOL    HW241352  11.130   4.351  14.824
79819SOL     OW41353   0.151   8.186  12.467
79819SOL    HW141354   0.194   8.201  12.383
79819SOL    HW241355   0.102   8.267  12.484
79820SOL     OW41356   5.758   9.229   4.708
79820SOL    HW141357   5.815   9.303   4.727
79820SOL    HW241358   5.716   9.208   4.791
79821SOL     OW41359   7.281   3.444   0.956
79821SOL    HW141360   7.364   3.467   0.998
79821SOL    HW241361   7.284   3.488   0.872
79822SOL     OW41362   2.972   9.321  12.855
79822SOL    HW141363   2.963   9.362  12.768
79822SOL    HW241364   2.967   9.395  12.916
79823SOL     OW41365   9.383   8.588  10.206
79823SOL    HW141366   9.339   8.514  10.164
79823SOL    HW241367   9.421   8.550  10.285
79824SOL     OW41368   0.300   1.334   8.048
79824SOL    HW141369   0.281   1.318   8.141
79824SOL    HW241370   0.292   1.429   8.039
79825SOL     OW41371  11.211   6.903   8.310
79825SOL    HW141372  11.164   6.948   8.381
79825SOL    HW241373  11.303   6.921   8.328
79826SOL     OW41374   7.560  11.256  12.295
79826SOL    HW141375   7.486  11.201  12.321
79826SOL    HW241376   7.602  11.279  12.377
79827SOL     OW41377   1.042  14.701   6.496
79827SOL    HW141378   1.077  14.694   6.585
79827SOL    HW241379   1.094  14.770   6.455
79828SOL     OW41380   5.841   1.849   1.953
79828SOL    HW141381   5.768   1.883   1.902
79828SOL    HW241382   5.803   1.830   2.039
79829SOL     OW41383   7.595   3.164  10.781
79829SOL    HW141384   7.607   3.179  10.687
79829SOL    HW241385   7.500   3.157  10.792
79830SOL     OW41386  13.401   3.806  10.107
79830SOL    HW141387  13.490   3.803  10.143
79830SOL    HW241388  13.410   3.770  10.019
79831SOL     OW41389   4.598   8.162   5.013
79831SOL    HW141390   4.537   8.092   4.994
79831SOL    HW241391   4.668   8.152   4.949
79832SOL     OW41392   3.795   7.478  10.250
79832SOL    HW141393   3.839   7.511  10.172
79832SOL    HW241394   3.829   7.390  10.261
79833SOL     OW41395   9.461   8.050   1.640
79833SOL    HW141396   9.480   7.960   1.666
79833SOL    HW241397   9.375   8.068   1.677
79834SOL     OW41398   7.510  13.894   1.478
79834SOL    HW141399   7.445  13.888   1.409
79834SOL    HW241400   7.517  13.805   1.512
79835SOL     OW41401  11.039   0.200  14.053
79835SOL    HW141402  11.116   0.257  14.056
79835SOL    HW241403  10.990   0.230  13.976
79836SOL     OW41404   5.591  10.074  11.983
79836SOL    HW141405   5.673  10.106  12.020
79836SOL    HW241406   5.588   9.981  12.009
79837SOL     OW41407  12.551   9.086   0.969
79837SOL    HW141408  12.470   9.045   0.996
79837SOL    HW241409  12.540   9.103   0.876
79838SOL     OW41410   9.802   9.612   8.120
79838SOL    HW141411   9.799   9.559   8.041
79838SOL    HW241412   9.866   9.680   8.101
79839SOL     OW41413  13.427   3.716  14.881
79839SOL    HW141414  13.393   3.634   0.029
79839SOL    HW241415  13.499   3.740   0.052
79840SOL     OW41416   9.678   9.510  11.266
79840SOL    HW141417   9.716   9.491  11.180
79840SOL    HW241418   9.677   9.605  11.271
79841SOL     OW41419  14.152   5.365   6.576
79841SOL    HW141420  14.214   5.301   6.542
79841SOL    HW241421  14.067   5.335   6.543
79842SOL     OW41422   5.595   4.679  10.462
79842SOL    HW141423   5.546   4.601  10.487
79842SOL    HW241424   5.533   4.751  10.471
79843SOL     OW41425   5.996  13.011   7.460
79843SOL    HW141426   6.082  12.978   7.436
79843SOL    HW241427   5.950  13.023   7.377
79844SOL     OW41428  12.935  12.987   1.125
79844SOL    HW141429  12.941  12.900   1.085
79844SOL    HW241430  12.990  13.043   1.071
79845SOL     OW41431  11.937   6.304   0.559
79845SOL    HW141432  11.852   6.283   0.518
79845SOL    HW241433  11.997   6.240   0.521
79846SOL     OW41434   4.258  10.131   6.759
79846SOL    HW141435   4.197  10.169   6.695
79846SOL    HW241436   4.204  10.112   6.835
79847SOL     OW41437   7.779   6.208   0.955
79847SOL    HW141438   7.741   6.122   0.935
79847SOL    HW241439   7.870   6.189   0.978
79848SOL     OW41440  12.589   2.200  11.659
79848SOL    HW141441  12.646   2.126  11.639
79848SOL    HW241442  12.516   2.192  11.598
79849SOL     OW41443  13.275   3.956  11.429
79849SOL    HW141444  13.293   3.935  11.337
79849SOL    HW241445  13.268   4.051  11.431
79850SOL     OW41446   5.521  12.093   5.301
79850SOL    HW141447   5.462  12.032   5.347
79850SOL    HW241448   5.587  12.116   5.367
79851SOL     OW41449   0.589  11.611  12.695
79851SOL    HW141450   0.505  11.617  12.740
79851SOL    HW241451   0.588  11.683  12.632
79852SOL     OW41452   5.637  11.612   4.831
79852SOL    HW141453   5.561  11.598   4.774
79852SOL    HW241454   5.667  11.524   4.853
79853SOL     OW41455   2.588   6.864   2.501
79853SOL    HW141456   2.609   6.859   2.594
79853SOL    HW241457   2.638   6.939   2.469
79854SOL     OW41458  14.581   4.176   4.817
79854SOL    HW141459  14.616   4.202   4.732
79854SOL    HW241460  14.499   4.223   4.825
79855SOL     OW41461  13.111   2.465   1.696
79855SOL    HW141462  13.121   2.467   1.601
79855SOL    HW241463  13.175   2.529   1.728
79856SOL     OW41464   9.878   4.189  10.881
79856SOL    HW141465   9.855   4.131  10.808
79856SOL    HW241466   9.866   4.278  10.846
79857SOL     OW41467   7.389   9.610   5.655
79857SOL    HW141468   7.329   9.612   5.581
79857SOL    HW241469   7.335   9.629   5.731
79858SOL     OW41470  12.526  12.336   1.497
79858SOL    HW141471  12.591  12.349   1.427
79858SOL    HW241472  12.473  12.262   1.466
79859SOL     OW41473   7.932   2.650   0.868
79859SOL    HW141474   7.960   2.635   0.778
79859SOL    HW241475   7.994   2.714   0.903
79860SOL     OW41476  12.793  13.196  11.892
79860SOL    HW141477  12.826  13.170  11.806
79860SOL    HW241478  12.870  13.193  11.949
79861SOL     OW41479   5.347   7.046  11.624
79861SOL    HW141480   5.402   7.007  11.556
79861SOL    HW241481   5.264   6.998  11.618
79862SOL     OW41482   9.601  13.960   1.402
79862SOL    HW141483   9.597  14.053   1.382
79862SOL    HW241484   9.649  13.956   1.485
79863SOL     OW41485   2.022  14.565   3.653
79863SOL    HW141486   2.076  14.540   3.578
79863SOL    HW241487   1.983  14.648   3.628
79864SOL     OW41488   4.756  14.803   1.046
79864SOL    HW141489   4.711  14.767   1.122
79864SOL    HW241490   4.711  14.765   0.971
79865SOL     OW41491   5.441  13.113  10.944
79865SOL    HW141492   5.450  13.200  10.904
79865SOL    HW241493   5.509  13.060  10.901
79866SOL     OW41494   0.314   6.353   0.413
79866SOL    HW141495   0.354   6.274   0.375
79866SOL    HW241496   0.354   6.425   0.366
79867SOL     OW41497  11.176  14.049  11.844
79867SOL    HW141498  11.106  14.079  11.787
79867SOL    HW241499  11.139  14.055  11.933
79868SOL     OW41500   9.655  11.734   6.639
79868SOL    HW141501   9.571  11.689   6.627
79868SOL    HW241502   9.696  11.688   6.712
79869SOL     OW41503   0.695  11.721   1.914
79869SOL    HW141504   0.709  11.642   1.862
79869SOL    HW241505   0.618  11.763   1.875
79870SOL     OW41506  13.157   8.416   5.595
79870SOL    HW141507  13.133   8.508   5.586
79870SOL    HW241508  13.233   8.405   5.537
79871SOL     OW41509   9.015   3.927   1.548
79871SOL    HW141510   9.104   3.938   1.512
79871SOL    HW241511   8.962   3.991   1.501
79872SOL     OW41512  10.577  11.091  10.758
79872SOL    HW141513  10.616  11.058  10.839
79872SOL    HW241514  10.635  11.161  10.730
79873SOL     OW41515   0.226  10.195  10.274
79873SOL    HW141516   0.191  10.180  10.186
79873SOL    HW241517   0.289  10.266  10.263
79874SOL     OW41518   5.022   6.705  14.224
79874SOL    HW141519   5.066   6.700  14.309
79874SOL    HW241520   5.081   6.662  14.163
79875SOL     OW41521   8.231   6.147  10.374
79875SOL    HW141522   8.200   6.129  10.462
79875SOL    HW241523   8.185   6.084  10.318
79876SOL     OW41524   6.934  13.292   8.212
79876SOL    HW141525   7.006  13.329   8.262
79876SOL    HW241526   6.970  13.280   8.124
79877SOL     OW41527  13.789   8.444  13.254
79877SOL    HW141528  13.884   8.435  13.258
79877SOL    HW241529  13.766   8.417  13.165
79878SOL     OW41530   9.572   9.104   6.080
79878SOL    HW141531   9.523   9.063   6.009
79878SOL    HW241532   9.529   9.189   6.093
79879SOL     OW41533   8.123   4.736   7.305
79879SOL    HW141534   8.102   4.820   7.263
79879SOL    HW241535   8.117   4.671   7.235
79880SOL     OW41536   5.777   8.641   3.224
79880SOL    HW141537   5.719   8.568   3.245
79880SOL    HW241538   5.737   8.717   3.266
79881SOL     OW41539   3.520   4.079   2.315
79881SOL    HW141540   3.425   4.090   2.316
79881SOL    HW241541   3.554   4.156   2.361
79882SOL     OW41542   9.163  11.750   8.513
79882SOL    HW141543   9.225  11.687   8.551
79882SOL    HW241544   9.104  11.696   8.460
79883SOL     OW41545   1.437   0.162  11.484
79883SOL    HW141546   1.388   0.098  11.433
79883SOL    HW241547   1.526   0.127  11.489
79884SOL     OW41548   1.088  13.937   1.511
79884SOL    HW141549   1.075  13.842   1.505
79884SOL    HW241550   1.003  13.974   1.486
79885SOL     OW41551   4.077   2.070   3.047
79885SOL    HW141552   4.151   2.054   3.105
79885SOL    HW241553   4.115   2.074   2.959
79886SOL     OW41554   6.322  12.998   2.075
79886SOL    HW141555   6.413  13.020   2.096
79886SOL    HW241556   6.329  12.943   1.996
79887SOL     OW41557   2.889  13.484   3.261
79887SOL    HW141558   2.835  13.552   3.222
79887SOL    HW241559   2.836  13.448   3.332
79888SOL     OW41560   9.676   4.092   3.574
79888SOL    HW141561   9.713   4.152   3.510
79888SOL    HW241562   9.585   4.119   3.582
79889SOL     OW41563   3.875   3.375   5.805
79889SOL    HW141564   3.796   3.395   5.855
79889SOL    HW241565   3.916   3.303   5.852
79890SOL     OW41566  11.360   9.033   1.904
79890SOL    HW141567  11.417   9.091   1.954
79890SOL    HW241568  11.416   8.959   1.879
79891SOL     OW41569   0.569   9.866  10.192
79891SOL    HW141570   0.513   9.879  10.269
79891SOL    HW241571   0.535   9.928  10.127
79892SOL     OW41572   4.310   2.186   9.790
79892SOL    HW141573   4.395   2.150   9.818
79892SOL    HW241574   4.286   2.247   9.860
79893SOL     OW41575   9.553   3.237  12.540
79893SOL    HW141576   9.648   3.229  12.524
79893SOL    HW241577   9.518   3.150  12.520
79894SOL     OW41578   2.627  10.946  12.986
79894SOL    HW141579   2.545  10.952  13.035
79894SOL    HW241580   2.673  10.872  13.026
79895SOL     OW41581   8.415  10.986   8.130
79895SOL    HW141582   8.436  11.042   8.056
79895SOL    HW241583   8.320  10.978   8.128
79896SOL     OW41584   1.272   7.553   5.780
79896SOL    HW141585   1.216   7.621   5.817
79896SOL    HW241586   1.313   7.512   5.856
79897SOL     OW41587   6.875   6.674   8.017
79897SOL    HW141588   6.955   6.627   7.994
79897SOL    HW241589   6.863   6.737   7.945
79898SOL     OW41590  11.157  14.223   2.401
79898SOL    HW141591  11.219  14.151   2.414
79898SOL    HW241592  11.178  14.285   2.472
79899SOL     OW41593  14.480  10.231   5.483
79899SOL    HW141594  14.545  10.169   5.514
79899SOL    HW241595  14.501  10.313   5.527
79900SOL     OW41596   3.384   6.331   9.659
79900SOL    HW141597   3.362   6.246   9.699
79900SOL    HW241598   3.324   6.337   9.584
79901SOL     OW41599  10.022  13.484   4.487
79901SOL    HW141600   9.977  13.487   4.403
79901SOL    HW241601  10.112  13.511   4.467
79902SOL     OW41602   3.211  10.582   3.122
79902SOL    HW141603   3.122  10.614   3.129
79902SOL    HW241604   3.221  10.521   3.195
79903SOL     OW41605   8.116   1.680  10.679
79903SOL    HW141606   8.175   1.742  10.637
79903SOL    HW241607   8.080   1.728  10.754
79904SOL     OW41608  11.052   5.955   9.390
79904SOL    HW141609  11.020   5.962   9.300
79904SOL    HW241610  11.146   5.939   9.380
79905SOL     OW41611   0.250   4.589   4.159
79905SOL    HW141612   0.319   4.554   4.103
79905SOL    HW241613   0.285   4.673   4.190
79906SOL     OW41614   3.788   9.618   1.369
79906SOL    HW141615   3.876   9.626   1.331
79906SOL    HW241616   3.804   9.592   1.460
79907SOL     OW41617   2.705   1.755  12.497
79907SOL    HW141618   2.718   1.850  12.506
79907SOL    HW241619   2.610   1.744  12.495
79908SOL     OW41620   5.500  13.815  14.311
79908SOL    HW141621   5.501  13.764  14.231
79908SOL    HW241622   5.493  13.906  14.282
79909SOL     OW41623   6.952   0.836   8.852
79909SOL    HW141624   6.943   0.757   8.799
79909SOL    HW241625   6.876   0.889   8.829
79910SOL     OW41626   3.460   8.734   4.148
79910SOL    HW141627   3.440   8.653   4.195
79910SOL    HW241628   3.521   8.781   4.205
79911SOL     OW41629  11.549   9.600  10.548
79911SOL    HW141630  11.454   9.609  10.557
79911SOL    HW241631  11.584   9.675  10.596
79912SOL     OW41632   5.081   4.085   6.744
79912SOL    HW141633   5.104   4.108   6.654
79912SOL    HW241634   5.009   4.023   6.736
79913SOL     OW41635   7.855  11.655  12.625
79913SOL    HW141636   7.893  11.568  12.615
79913SOL    HW241637   7.786  11.645  12.691
79914SOL     OW41638   6.519  14.280  10.782
79914SOL    HW141639   6.511  14.227  10.703
79914SOL    HW241640   6.562  14.360  10.754
79915SOL     OW41641   8.463  10.975   7.367
79915SOL    HW141642   8.555  10.960   7.390
79915SOL    HW241643   8.457  11.069   7.351
79916SOL     OW41644   8.659   1.987   3.393
79916SOL    HW141645   8.751   1.996   3.417
79916SOL    HW241646   8.637   2.069   3.349
79917SOL     OW41647   6.190  10.020   7.472
79917SOL    HW141648   6.153   9.989   7.390
79917SOL    HW241649   6.223   9.941   7.515
79918SOL     OW41650  14.603   2.513  11.183
79918SOL    HW141651  14.607   2.505  11.279
79918SOL    HW241652  14.539   2.582  11.168
79919SOL     OW41653   4.759   7.191   3.392
79919SOL    HW141654   4.707   7.266   3.364
79919SOL    HW241655   4.771   7.205   3.486
79920SOL     OW41656   0.767  11.489   6.445
79920SOL    HW141657   0.740  11.577   6.471
79920SOL    HW241658   0.753  11.487   6.350
79921SOL     OW41659  12.819   1.078   1.036
79921SOL    HW141660  12.881   1.020   0.991
79921SOL    HW241661  12.734   1.035   1.025
79922SOL     OW41662   0.755  11.244   3.526
79922SOL    HW141663   0.756  11.339   3.536
79922SOL    HW241664   0.663  11.223   3.510
79923SOL     OW41665  14.027  13.326   0.878
79923SOL    HW141666  14.087  13.399   0.866
79923SOL    HW241667  13.940  13.366   0.874
79924SOL     OW41668   5.740   3.258   2.880
79924SOL    HW141669   5.716   3.246   2.971
79924SOL    HW241670   5.776   3.173   2.853
79925SOL     OW41671   2.124   9.090  10.705
79925SOL    HW141672   2.140   9.101  10.799
79925SOL    HW241673   2.184   9.020  10.679
79926SOL     OW41674  12.718   6.451   9.574
79926SOL    HW141675  12.626   6.480   9.575
79926SOL    HW241676  12.718   6.373   9.519
79927SOL     OW41677  11.037  13.529  11.275
79927SOL    HW141678  11.008  13.447  11.234
79927SOL    HW241679  10.995  13.598  11.224
79928SOL     OW41680  10.956  14.795   7.655
79928SOL    HW141681  10.935  14.750   7.573
79928SOL    HW241682  10.889  14.766   7.717
79929SOL     OW41683   1.879   7.891   7.860
79929SOL    HW141684   1.835   7.901   7.775
79929SOL    HW241685   1.960   7.941   7.850
79930SOL     OW41686   6.913   0.098  10.094
79930SOL    HW141687   6.919   0.065  10.004
79930SOL    HW241688   6.828   0.068  10.125
79931SOL     OW41689   4.988  14.386   3.671
79931SOL    HW141690   4.900  14.357   3.698
79931SOL    HW241691   5.014  14.325   3.602
79932SOL     OW41692   5.615   1.318   4.190
79932SOL    HW141693   5.662   1.260   4.130
79932SOL    HW241694   5.523   1.299   4.175
79933SOL     OW41695   6.108   1.141   3.037
79933SOL    HW141696   6.106   1.099   3.123
79933SOL    HW241697   6.184   1.103   2.994
79934SOL     OW41698   5.463  12.411   1.766
79934SOL    HW141699   5.393  12.429   1.703
79934SOL    HW241700   5.418  12.403   1.850
79935SOL     OW41701   5.867   8.168   9.382
79935SOL    HW141702   5.909   8.105   9.323
79935SOL    HW241703   5.890   8.254   9.346
79936SOL     OW41704   2.610  14.535   3.735
79936SOL    HW141705   2.625  14.457   3.681
79936SOL    HW241706   2.633  14.608   3.678
79937SOL     OW41707  13.640   8.331   0.920
79937SOL    HW141708  13.585   8.268   0.874
79937SOL    HW241709  13.683   8.380   0.850
79938SOL     OW41710   1.848   8.486   4.463
79938SOL    HW141711   1.879   8.424   4.529
79938SOL    HW241712   1.925   8.505   4.409
79939SOL     OW41713   0.783   1.610   8.922
79939SOL    HW141714   0.877   1.610   8.903
79939SOL    HW241715   0.747   1.677   8.865
79940SOL     OW41716   6.200  14.546  14.557
79940SOL    HW141717   6.255  14.570  14.483
79940SOL    HW241718   6.227  14.604  14.628
79941SOL     OW41719   2.409  12.405   4.707
79941SOL    HW141720   2.353  12.359   4.770
79941SOL    HW241721   2.348  12.457   4.654
79942SOL     OW41722  13.647   5.011   6.440
79942SOL    HW141723  13.666   4.965   6.358
79942SOL    HW241724  13.565   4.973   6.472
79943SOL     OW41725  14.667   9.505   2.732
79943SOL    HW141726  14.720   9.465   2.800
79943SOL    HW241727  14.608   9.565   2.778
79944SOL     OW41728   0.319  14.201   3.092
79944SOL    HW141729   0.311  14.287   3.050
79944SOL    HW241730   0.286  14.215   3.180
79945SOL     OW41731   8.637   9.910   4.866
79945SOL    HW141732   8.696   9.982   4.884
79945SOL    HW241733   8.549   9.948   4.872
79946SOL     OW41734  12.326   6.774   9.927
79946SOL    HW141735  12.232   6.786   9.911
79946SOL    HW241736  12.330   6.722  10.008
79947SOL     OW41737   1.881   7.469   8.428
79947SOL    HW141738   1.795   7.453   8.389
79947SOL    HW241739   1.882   7.562   8.448
79948SOL     OW41740   3.495   7.905   7.340
79948SOL    HW141741   3.539   7.890   7.256
79948SOL    HW241742   3.553   7.963   7.388
79949SOL     OW41743  13.070   9.103   2.655
79949SOL    HW141744  13.106   9.124   2.569
79949SOL    HW241745  13.096   9.176   2.711
79950SOL     OW41746   2.189  12.975   5.618
79950SOL    HW141747   2.212  13.023   5.539
79950SOL    HW241748   2.141  12.898   5.587
79951SOL     OW41749  10.465  11.914   8.654
79951SOL    HW141750  10.402  11.850   8.686
79951SOL    HW241751  10.412  11.983   8.615
79952SOL     OW41752   6.733  12.184   8.755
79952SOL    HW141753   6.647  12.227   8.755
79952SOL    HW241754   6.724  12.114   8.691
79953SOL     OW41755   4.829  13.031   4.589
79953SOL    HW141756   4.904  12.988   4.546
79953SOL    HW241757   4.754  12.976   4.565
79954SOL     OW41758   8.721   1.871   0.882
79954SOL    HW141759   8.751   1.949   0.835
79954SOL    HW241760   8.727   1.801   0.817
79955SOL     OW41761   1.997  10.816   2.237
79955SOL    HW141762   1.941  10.887   2.205
79955SOL    HW241763   1.978  10.742   2.180
79956SOL     OW41764   6.456   4.907  10.449
79956SOL    HW141765   6.548   4.909  10.421
79956SOL    HW241766   6.456   4.951  10.534
79957SOL     OW41767   3.105  12.252   0.462
79957SOL    HW141768   3.056  12.212   0.390
79957SOL    HW241769   3.134  12.178   0.516
79958SOL     OW41770  11.224   1.071   2.127
79958SOL    HW141771  11.135   1.050   2.099
79958SOL    HW241772  11.273   1.080   2.045
79959SOL     OW41773   8.778   5.560   0.404
79959SOL    HW141774   8.780   5.486   0.465
79959SOL    HW241775   8.746   5.523   0.322
79960SOL     OW41776   7.434  10.201   7.053
79960SOL    HW141777   7.343  10.227   7.037
79960SOL    HW241778   7.484  10.280   7.035
79961SOL     OW41779   0.101   5.709   6.070
79961SOL    HW141780   0.050   5.693   6.149
79961SOL    HW241781   0.151   5.628   6.057
79962SOL     OW41782   8.830   4.401  12.148
79962SOL    HW141783   8.790   4.336  12.206
79962SOL    HW241784   8.764   4.469  12.138
79963SOL     OW41785  13.221  11.487   0.560
79963SOL    HW141786  13.299  11.493   0.615
79963SOL    HW241787  13.253  11.451   0.477
79964SOL     OW41788  11.758  13.037  12.285
79964SOL    HW141789  11.697  12.978  12.328
79964SOL    HW241790  11.710  13.120  12.279
79965SOL     OW41791   5.967  11.256  12.916
79965SOL    HW141792   5.946  11.185  12.977
79965SOL    HW241793   6.044  11.225  12.869
79966SOL     OW41794  12.037  14.223   0.513
79966SOL    HW141795  12.119  14.248   0.556
79966SOL    HW241796  12.047  14.253   0.423
79967SOL     OW41797   6.928   2.143  13.136
79967SOL    HW141798   7.017   2.169  13.113
79967SOL    HW241799   6.919   2.169  13.228
79968SOL     OW41800  13.526  11.340   2.915
79968SOL    HW141801  13.524  11.346   3.011
79968SOL    HW241802  13.465  11.407   2.886
79969SOL     OW41803  11.836   5.390   0.020
79969SOL    HW141804  11.929   5.379   0.005
79969SOL    HW241805  11.823   5.485   0.021
79970SOL     OW41806   9.930   6.118   0.657
79970SOL    HW141807   9.876   6.177   0.605
79970SOL    HW241808   9.905   6.030   0.629
79971SOL     OW41809   0.570   9.293   7.541
79971SOL    HW141810   0.628   9.369   7.548
79971SOL    HW241811   0.624   9.219   7.568
79972SOL     OW41812  13.072   2.425   5.838
79972SOL    HW141813  13.155   2.386   5.814
79972SOL    HW241814  13.022   2.429   5.757
79973SOL     OW41815  14.413   8.922   1.210
79973SOL    HW141816  14.371   8.846   1.249
79973SOL    HW241817  14.436   8.894   1.122
79974SOL     OW41818   3.518   9.807   2.496
79974SOL    HW141819   3.575   9.735   2.522
79974SOL    HW241820   3.459   9.819   2.571
79975SOL     OW41821  10.847   3.660   9.859
79975SOL    HW141822  10.850   3.606   9.781
79975SOL    HW241823  10.845   3.750   9.826
79976SOL     OW41824   0.199  11.479   2.238
79976SOL    HW141825   0.107  11.501   2.230
79976SOL    HW241826   0.222  11.439   2.153
79977SOL     OW41827  13.524   9.122   9.988
79977SOL    HW141828  13.444   9.168  10.013
79977SOL    HW241829  13.494   9.041   9.949
79978SOL     OW41830   7.777   0.446  14.037
79978SOL    HW141831   7.847   0.418  13.977
79978SOL    HW241832   7.697   0.437  13.985
79979SOL     OW41833   1.191   3.580   6.395
79979SOL    HW141834   1.241   3.598   6.474
79979SOL    HW241835   1.256   3.554   6.330
79980SOL     OW41836  10.658   7.359  13.197
79980SOL    HW141837  10.567   7.386  13.193
79980SOL    HW241838  10.708   7.436  13.169
79981SOL     OW41839  10.312   4.547   1.998
79981SOL    HW141840  10.313   4.573   2.090
79981SOL    HW241841  10.400   4.514   1.981
79982SOL     OW41842  11.892  14.324   1.292
79982SOL    HW141843  11.906  14.284   1.378
79982SOL    HW241844  11.830  14.266   1.248
79983SOL     OW41845  11.062  10.605  11.339
79983SOL    HW141846  11.146  10.567  11.314
79983SOL    HW241847  11.078  10.644  11.425
79984SOL     OW41848   9.890   4.771   3.481
79984SOL    HW141849   9.962   4.727   3.437
79984SOL    HW241850   9.882   4.855   3.437
79985SOL     OW41851   6.563   5.304   2.930
79985SOL    HW141852   6.574   5.247   2.853
79985SOL    HW241853   6.618   5.380   2.911
79986SOL     OW41854   8.431   3.196  11.150
79986SOL    HW141855   8.338   3.212  11.167
79986SOL    HW241856   8.456   3.263  11.086
79987SOL     OW41857   0.624   7.361   6.547
79987SOL    HW141858   0.615   7.266   6.535
79987SOL    HW241859   0.550   7.398   6.498
79988SOL     OW41860   0.673   8.242  11.814
79988SOL    HW141861   0.683   8.251  11.909
79988SOL    HW241862   0.745   8.184  11.788
79989SOL     OW41863  12.632   0.497  13.116
79989SOL    HW141864  12.723   0.524  13.125
79989SOL    HW241865  12.588   0.574  13.079
79990SOL     OW41866  12.009  10.078  13.870
79990SOL    HW141867  11.997  10.156  13.925
79990SOL    HW241868  12.061  10.018  13.923
79991SOL     OW41869   4.779   0.828   8.358
79991SOL    HW141870   4.830   0.900   8.395
79991SOL    HW241871   4.789   0.837   8.263
79992SOL     OW41872   1.719  13.331  13.831
79992SOL    HW141873   1.763  13.248  13.813
79992SOL    HW241874   1.785  13.384  13.876
79993SOL     OW41875  11.991  12.215   6.923
79993SOL    HW141876  11.897  12.216   6.905
79993SOL    HW241877  12.025  12.293   6.880
79994SOL     OW41878  10.546   0.941   2.334
79994SOL    HW141879  10.600   0.873   2.373
79994SOL    HW241880  10.608   1.009   2.307
79995SOL     OW41881  13.873  12.022  10.277
79995SOL    HW141882  13.855  12.115  10.290
79995SOL    HW241883  13.903  11.991  10.363
79996SOL     OW41884   7.590  10.981  11.358
79996SOL    HW141885   7.598  11.015  11.269
79996SOL    HW241886   7.667  11.013  11.403
79997SOL     OW41887  11.801   0.084   4.229
79997SOL    HW141888  11.756   0.108   4.148
79997SOL    HW241889  11.826   0.168   4.268
79998SOL     OW41890   0.916   1.375   2.003
79998SOL    HW141891   0.898   1.306   2.066
79998SOL    HW241892   1.001   1.410   2.029
79999SOL     OW41893  11.562   1.660   7.759
79999SOL    HW141894  11.644   1.620   7.731
79999SOL    HW241895  11.551   1.633   7.850
80000SOL     OW41896   7.238   3.090   8.864
80000SOL    HW141897   7.162   3.037   8.891
80000SOL    HW241898   7.217   3.178   8.893
80001SOL     OW41899  14.182   1.780   5.961
80001SOL    HW141900  14.145   1.844   6.022
80001SOL    HW241901  14.193   1.828   5.879
80002SOL     OW41902  10.444   1.035   9.244
80002SOL    HW141903  10.484   1.106   9.295
80002SOL    HW241904  10.456   1.062   9.153
80003SOL     OW41905   8.132   0.885   8.230
80003SOL    HW141906   8.113   0.791   8.240
80003SOL    HW241907   8.049   0.928   8.247
80004SOL     OW41908   0.317   8.833   3.736
80004SOL    HW141909   0.342   8.742   3.751
80004SOL    HW241910   0.372   8.861   3.663
80005SOL     OW41911   1.867   5.021  13.597
80005SOL    HW141912   1.923   5.068  13.535
80005SOL    HW241913   1.792   4.992  13.544
80006SOL     OW41914   8.046  10.589   0.814
80006SOL    HW141915   8.067  10.678   0.844
80006SOL    HW241916   8.012  10.601   0.725
80007SOL     OW41917   9.178  13.415   2.095
80007SOL    HW141918   9.108  13.447   2.039
80007SOL    HW241919   9.203  13.490   2.148
80008SOL     OW41920   9.039  11.585   0.295
80008SOL    HW141921   9.038  11.670   0.249
80008SOL    HW241922   9.016  11.522   0.227
80009SOL     OW41923  10.965  12.318   2.187
80009SOL    HW141924  10.963  12.276   2.101
80009SOL    HW241925  11.012  12.401   2.172
80010SOL     OW41926   3.442   4.682   0.527
80010SOL    HW141927   3.452   4.728   0.444
80010SOL    HW241928   3.351   4.652   0.527
80011SOL     OW41929   6.059   2.532   9.160
80011SOL    HW141930   6.091   2.620   9.142
80011SOL    HW241931   6.085   2.515   9.251
80012SOL     OW41932  13.460  10.697   8.553
80012SOL    HW141933  13.481  10.606   8.574
80012SOL    HW241934  13.541  10.745   8.569
80013SOL     OW41935   8.211   5.437  14.734
80013SOL    HW141936   8.126   5.478  14.722
80013SOL    HW241937   8.272   5.495  14.688
80014SOL     OW41938  14.019  14.864  10.107
80014SOL    HW141939  14.065   0.012  10.031
80014SOL    HW241940  14.050  14.774  10.114
80015SOL     OW41941  11.098  14.268   5.682
80015SOL    HW141942  11.097  14.341   5.620
80015SOL    HW241943  11.015  14.222   5.667
80016SOL     OW41944   3.840   0.180  14.886
80016SOL    HW141945   3.913   0.169  14.824
80016SOL    HW241946   3.832   0.275   0.009
80017SOL     OW41947  14.360   0.413   6.806
80017SOL    HW141948  14.298   0.351   6.846
80017SOL    HW241949  14.437   0.359   6.786
80018SOL     OW41950   0.611   6.887  13.266
80018SOL    HW141951   0.678   6.947  13.234
80018SOL    HW241952   0.528   6.928  13.242
80019SOL     OW41953  13.758   5.816   9.573
80019SOL    HW141954  13.786   5.862   9.494
80019SOL    HW241955  13.837   5.771   9.604
80020SOL     OW41956   6.925   0.319  11.278
80020SOL    HW141957   6.963   0.247  11.227
80020SOL    HW241958   6.999   0.374  11.301
80021SOL     OW41959   3.921   3.498  10.681
80021SOL    HW141960   3.841   3.533  10.720
80021SOL    HW241961   3.902   3.494  10.588
80022SOL     OW41962   9.930   4.451  11.497
80022SOL    HW141963   9.898   4.431  11.409
80022SOL    HW241964   9.983   4.530  11.486
80023SOL     OW41965  12.818   9.204   4.138
80023SOL    HW141966  12.753   9.233   4.203
80023SOL    HW241967  12.892   9.263   4.150
80024SOL     OW41968   3.613  12.966   0.711
80024SOL    HW141969   3.565  12.989   0.631
80024SOL    HW241970   3.545  12.959   0.778
80025SOL     OW41971   6.618  10.930   5.329
80025SOL    HW141972   6.636  11.006   5.384
80025SOL    HW241973   6.623  10.855   5.389
80026SOL     OW41974  13.769  14.494   9.616
80026SOL    HW141975  13.800  14.584   9.612
80026SOL    HW241976  13.848  14.442   9.633
80027SOL     OW41977   4.289  14.122   8.568
80027SOL    HW141978   4.380  14.139   8.544
80027SOL    HW241979   4.243  14.111   8.485
80028SOL     OW41980   0.582   5.139  10.184
80028SOL    HW141981   0.646   5.131  10.114
80028SOL    HW241982   0.523   5.064  10.171
80029SOL     OW41983  13.909  11.309  10.060
80029SOL    HW141984  13.906  11.399  10.090
80029SOL    HW241985  13.965  11.311   9.982
80030SOL     OW41986   8.304  14.644   2.582
80030SOL    HW141987   8.277  14.641   2.673
80030SOL    HW241988   8.375  14.580   2.576
80031SOL     OW41989   3.856   9.982   2.128
80031SOL    HW141990   3.920   9.981   2.057
80031SOL    HW241991   3.773  10.001   2.086
80032SOL     OW41992   2.708  12.157   2.915
80032SOL    HW141993   2.732  12.247   2.894
80032SOL    HW241994   2.792  12.114   2.933
80033SOL     OW41995   0.514  10.050   0.908
80033SOL    HW141996   0.528  10.050   1.003
80033SOL    HW241997   0.419  10.048   0.897
80034SOL     OW41998  13.151   1.912   9.355
80034SOL    HW141999  13.152   1.949   9.443
80034SOL    HW242000  13.102   1.977   9.303
80035SOL     OW42001   7.116  12.810  11.922
80035SOL    HW142002   7.142  12.759  11.845
80035SOL    HW242003   7.137  12.900  11.900
80036SOL     OW42004  10.373  13.743  14.011
80036SOL    HW142005  10.323  13.744  13.930
80036SOL    HW242006  10.463  13.762  13.984
80037SOL     OW42007  12.955   8.908   4.293
80037SOL    HW142008  12.962   8.977   4.359
80037SOL    HW242009  13.042   8.903   4.255
80038SOL     OW42010   2.406   9.288  14.142
80038SOL    HW142011   2.415   9.196  14.168
80038SOL    HW242012   2.311   9.302  14.134
80039SOL     OW42013  12.795   1.122  14.618
80039SOL    HW142014  12.802   1.212  14.652
80039SOL    HW242015  12.821   1.129  14.527
80040SOL     OW42016   1.712   1.128   8.349
80040SOL    HW142017   1.720   1.056   8.411
80040SOL    HW242018   1.801   1.161   8.339
80041SOL     OW42019   9.597  14.005  13.787
80041SOL    HW142020   9.683  14.041  13.809
80041SOL    HW242021   9.582  14.033  13.696
80042SOL     OW42022  11.539  13.554   6.949
80042SOL    HW142023  11.561  13.470   6.988
80042SOL    HW242024  11.612  13.612   6.971
80043SOL     OW42025   6.975  14.010   6.409
80043SOL    HW142026   7.013  14.098   6.402
80043SOL    HW242027   6.943  14.005   6.499
80044SOL     OW42028  13.988   4.800  11.693
80044SOL    HW142029  13.961   4.846  11.614
80044SOL    HW242030  13.930   4.724  11.698
80045SOL     OW42031  14.633   7.175   6.017
80045SOL    HW142032  14.719   7.180   6.059
80045SOL    HW242033  14.652   7.187   5.924
80046SOL     OW42034   1.688   3.447   7.988
80046SOL    HW142035   1.736   3.529   8.000
80046SOL    HW242036   1.612   3.471   7.936
80047SOL     OW42037   6.599  10.493  10.725
80047SOL    HW142038   6.545  10.422  10.689
80047SOL    HW242039   6.569  10.501  10.816
80048SOL     OW42040   2.713   4.963   3.985
80048SOL    HW142041   2.804   4.976   4.009
80048SOL    HW242042   2.676   4.911   4.057
80049SOL     OW42043   0.530   8.661  10.228
80049SOL    HW142044   0.478   8.598  10.278
80049SOL    HW242045   0.621   8.643  10.254
80050SOL     OW42046   5.917  14.045   8.527
80050SOL    HW142047   5.958  14.130   8.516
80050SOL    HW242048   5.991  13.984   8.537
80051SOL     OW42049  14.564  12.886  11.501
80051SOL    HW142050  14.605  12.960  11.547
80051SOL    HW242051  14.603  12.808  11.540
80052SOL     OW42052   8.779  13.318   3.606
80052SOL    HW142053   8.791  13.245   3.546
80052SOL    HW242054   8.788  13.279   3.693
80053SOL     OW42055  11.157   3.012   4.304
80053SOL    HW142056  11.145   3.063   4.224
80053SOL    HW242057  11.120   3.067   4.373
80054SOL     OW42058   2.683  13.400   2.825
80054SOL    HW142059   2.724  13.354   2.898
80054SOL    HW242060   2.756  13.426   2.769
80055SOL     OW42061   3.593  12.991   4.907
80055SOL    HW142062   3.607  12.897   4.912
80055SOL    HW242063   3.505  13.005   4.942
80056SOL     OW42064   0.483  13.367   9.565
80056SOL    HW142065   0.468  13.373   9.659
80056SOL    HW242066   0.470  13.457   9.532
80057SOL     OW42067   9.607   6.671  13.938
80057SOL    HW142068   9.668   6.680  14.011
80057SOL    HW242069   9.626   6.585  13.902
80058SOL     OW42070   2.732   9.539  10.301
80058SOL    HW142071   2.797   9.610  10.302
80058SOL    HW242072   2.656   9.578  10.259
80059SOL     OW42073   6.901  14.883   3.620
80059SOL    HW142074   6.909  14.788   3.619
80059SOL    HW242075   6.861   0.018   3.537
80060SOL     OW42076   1.868   6.718   2.963
80060SOL    HW142077   1.877   6.654   2.893
80060SOL    HW242078   1.812   6.675   3.028
80061SOL     OW42079   3.221   0.022   4.921
80061SOL    HW142080   3.288   0.027   4.853
80061SOL    HW242081   3.169   0.101   4.909
80062SOL     OW42082   9.852   1.379   1.969
80062SOL    HW142083   9.914   1.451   1.953
80062SOL    HW242084   9.908   1.305   1.992
80063SOL     OW42085   0.724   0.659  11.487
80063SOL    HW142086   0.809   0.681  11.449
80063SOL    HW242087   0.664   0.723  11.450
80064SOL     OW42088  11.241  14.778  14.390
80064SOL    HW142089  11.287  14.699  14.361
80064SOL    HW242090  11.150  14.763  14.364
80065SOL     OW42091   4.876  14.856  11.844
80065SOL    HW142092   4.962  14.819  11.864
80065SOL    HW242093   4.855   0.021  11.922
80066SOL     OW42094   6.860   4.506   3.722
80066SOL    HW142095   6.817   4.511   3.636
80066SOL    HW242096   6.899   4.592   3.733
80067SOL     OW42097   2.878  11.504  11.392
80067SOL    HW142098   2.885  11.499  11.488
80067SOL    HW242099   2.879  11.413  11.363
80068SOL     OW42100   3.053  10.363   8.209
80068SOL    HW142101   3.133  10.356   8.261
80068SOL    HW242102   3.058  10.450   8.170
80069SOL     OW42103   0.125   7.016   2.821
80069SOL    HW142104   0.144   6.923   2.837
80069SOL    HW242105   0.207   7.052   2.790
80070SOL     OW42106   7.290   0.136  13.498
80070SOL    HW142107   7.255   0.225  13.496
80070SOL    HW242108   7.259   0.100  13.581
80071SOL     OW42109   8.460  11.426  12.967
80071SOL    HW142110   8.447  11.425  12.872
80071SOL    HW242111   8.380  11.388  13.003
80072SOL     OW42112  10.199   6.443   0.454
80072SOL    HW142113  10.294   6.448   0.459
80072SOL    HW242114  10.176   6.363   0.501
80073SOL     OW42115  13.338   2.273   4.275
80073SOL    HW142116  13.312   2.365   4.264
80073SOL    HW242117  13.393   2.255   4.199
80074SOL     OW42118  13.561  11.794   2.212
80074SOL    HW142119  13.563  11.726   2.145
80074SOL    HW242120  13.570  11.876   2.163
80075SOL     OW42121   1.235   8.068   6.452
80075SOL    HW142122   1.154   8.089   6.406
80075SOL    HW242123   1.296   8.138   6.426
80076SOL     OW42124  13.228   4.632   5.090
80076SOL    HW142125  13.195   4.721   5.084
80076SOL    HW242126  13.155   4.577   5.063
80077SOL     OW42127   9.115   9.913  14.580
80077SOL    HW142128   9.086   9.972  14.510
80077SOL    HW242129   9.160   9.842  14.535
80078SOL     OW42130   6.491   8.342  14.346
80078SOL    HW142131   6.518   8.298  14.426
80078SOL    HW242132   6.568   8.389  14.317
80079SOL     OW42133   7.906   3.005  11.163
80079SOL    HW142134   7.827   3.056  11.183
80079SOL    HW242135   7.873   2.919  11.137
80080SOL     OW42136   5.920  10.924   0.865
80080SOL    HW142137   5.868  10.898   0.789
80080SOL    HW242138   5.998  10.868   0.861
80081SOL     OW42139  10.101  12.207  11.712
80081SOL    HW142140  10.054  12.283  11.677
80081SOL    HW242141  10.042  12.170  11.777
80082SOL     OW42142   5.842  13.161  14.666
80082SOL    HW142143   5.777  13.171  14.736
80082SOL    HW242144   5.857  13.250  14.634
80083SOL     OW42145   6.028  11.902  11.058
80083SOL    HW142146   6.021  11.936  11.147
80083SOL    HW242147   6.000  11.975  11.003
80084SOL     OW42148   9.083  14.578   6.995
80084SOL    HW142149   9.051  14.509   7.054
80084SOL    HW242150   9.164  14.608   7.035
80085SOL     OW42151  11.603   2.602   6.719
80085SOL    HW142152  11.646   2.565   6.796
80085SOL    HW242153  11.664   2.588   6.647
80086SOL     OW42154   2.442  12.355   3.108
80086SOL    HW142155   2.463  12.271   3.067
80086SOL    HW242156   2.527  12.391   3.133
80087SOL     OW42157   8.794  10.257   9.168
80087SOL    HW142158   8.804  10.169   9.132
80087SOL    HW242159   8.755  10.308   9.097
80088SOL     OW42160  13.058   7.187  13.003
80088SOL    HW142161  13.045   7.192  12.909
80088SOL    HW242162  13.001   7.255  13.039
80089SOL     OW42163   0.605  11.969   8.116
80089SOL    HW142164   0.526  11.955   8.168
80089SOL    HW242165   0.670  12.001   8.178
80090SOL     OW42166   9.068   1.825  11.460
80090SOL    HW142167   9.080   1.886  11.532
80090SOL    HW242168   9.043   1.743  11.502
80091SOL     OW42169  14.465   3.576   7.194
80091SOL    HW142170  14.422   3.497   7.161
80091SOL    HW242171  14.461   3.567   7.290
80092SOL     OW42172   7.256   0.286   4.929
80092SOL    HW142173   7.284   0.373   4.955
80092SOL    HW242174   7.313   0.264   4.855
80093SOL     OW42175   8.653   2.539  14.532
80093SOL    HW142176   8.644   2.577  14.445
80093SOL    HW242177   8.604   2.456  14.528
80094SOL     OW42178   1.839   0.644   8.372
80094SOL    HW142179   1.778   0.716   8.356
80094SOL    HW242180   1.782   0.570   8.395
80095SOL     OW42181   9.657   0.236  13.127
80095SOL    HW142182   9.601   0.313  13.137
80095SOL    HW242183   9.737   0.269  13.086
80096SOL     OW42184   9.248   1.091   0.091
80096SOL    HW142185   9.232   1.101  14.885
80096SOL    HW242186   9.183   1.026   0.119
80097SOL     OW42187   5.006   1.895   3.344
80097SOL    HW142188   4.980   1.987   3.350
80097SOL    HW242189   5.007   1.864   3.434
80098SOL     OW42190   8.881   2.112   1.690
80098SOL    HW142191   8.806   2.171   1.691
80098SOL    HW242192   8.869   2.057   1.768
80099SOL     OW42193   3.210   0.873  11.351
80099SOL    HW142194   3.294   0.836  11.325
80099SOL    HW242195   3.165   0.893  11.269
80100SOL     OW42196   1.603  11.529   6.993
80100SOL    HW142197   1.612  11.479   7.074
80100SOL    HW242198   1.523  11.496   6.953
80101SOL     OW42199   1.467   1.492   1.724
80101SOL    HW142200   1.519   1.418   1.694
80101SOL    HW242201   1.529   1.549   1.768
80102SOL     OW42202  10.746   5.187  10.339
80102SOL    HW142203  10.806   5.121  10.374
80102SOL    HW242204  10.669   5.182  10.396
80103SOL     OW42205   7.352   7.710   8.989
80103SOL    HW142206   7.423   7.652   9.016
80103SOL    HW242207   7.282   7.650   8.961
80104SOL     OW42208   3.732   3.495   1.907
80104SOL    HW142209   3.648   3.513   1.948
80104SOL    HW242210   3.797   3.531   1.967
80105SOL     OW42211  13.338  11.360  10.670
80105SOL    HW142212  13.427  11.381  10.699
80105SOL    HW242213  13.283  11.427  10.711
80106SOL     OW42214   3.231   9.138   2.592
80106SOL    HW142215   3.247   9.228   2.620
80106SOL    HW242216   3.319   9.101   2.579
80107SOL     OW42217   1.128  12.712   7.819
80107SOL    HW142218   1.190  12.767   7.866
80107SOL    HW242219   1.183  12.655   7.765
80108SOL     OW42220  11.591   1.657   6.993
80108SOL    HW142221  11.545   1.577   6.967
80108SOL    HW242222  11.587   1.657   7.088
80109SOL     OW42223   7.992  12.372   7.765
80109SOL    HW142224   7.986  12.466   7.746
80109SOL    HW242225   8.059  12.366   7.833
80110SOL     OW42226   6.354  11.762  11.226
80110SOL    HW142227   6.405  11.776  11.305
80110SOL    HW242228   6.263  11.773  11.253
80111SOL     OW42229  10.983   8.779   1.356
80111SOL    HW142230  10.915   8.762   1.422
80111SOL    HW242231  11.056   8.722   1.382
80112SOL     OW42232  11.361   1.358  11.263
80112SOL    HW142233  11.296   1.356  11.193
80112SOL    HW242234  11.358   1.448  11.297
80113SOL     OW42235   1.600   7.994   1.974
80113SOL    HW142236   1.674   8.055   1.969
80113SOL    HW242237   1.585   7.966   1.884
80114SOL     OW42238   1.875  14.716   8.843
80114SOL    HW142239   1.889  14.640   8.786
80114SOL    HW242240   1.942  14.779   8.817
80115SOL     OW42241  11.387   9.622   4.912
80115SOL    HW142242  11.390   9.715   4.934
80115SOL    HW242243  11.441   9.580   4.980
80116SOL     OW42244   1.181   3.722   0.906
80116SOL    HW142245   1.101   3.771   0.885
80116SOL    HW242246   1.173   3.704   1.000
80117SOL     OW42247   0.406  11.234   7.355
80117SOL    HW142248   0.423  11.149   7.395
80117SOL    HW242249   0.312  11.246   7.364
80118SOL     OW42250   3.205   0.097   7.629
80118SOL    HW142251   3.153   0.082   7.551
80118SOL    HW242252   3.273   0.030   7.626
80119SOL     OW42253   0.588   2.904  11.516
80119SOL    HW142254   0.673   2.922  11.557
80119SOL    HW242255   0.544   2.846  11.579
80120SOL     OW42256   7.256   7.040   0.132
80120SOL    HW142257   7.277   7.133   0.120
80120SOL    HW242258   7.165   7.040   0.162
80121SOL     OW42259   1.525   3.234   4.935
80121SOL    HW142260   1.514   3.240   5.030
80121SOL    HW242261   1.487   3.149   4.912
80122SOL     OW42262   9.001   2.263   9.232
80122SOL    HW142263   9.019   2.227   9.145
80122SOL    HW242264   8.912   2.234   9.252
80123SOL     OW42265   1.141  11.184  12.771
80123SOL    HW142266   1.126  11.277  12.758
80123SOL    HW242267   1.067  11.141  12.730
80124SOL     OW42268   1.855   5.542   0.720
80124SOL    HW142269   1.801   5.565   0.645
80124SOL    HW242270   1.809   5.470   0.762
80125SOL     OW42271  10.266   7.652   0.186
80125SOL    HW142272  10.209   7.592   0.235
80125SOL    HW242273  10.307   7.707   0.252
80126SOL     OW42274   4.130   1.101  14.812
80126SOL    HW142275   4.178   1.024  14.843
80126SOL    HW242276   4.043   1.067  14.790
80127SOL     OW42277   8.882   5.094  14.739
80127SOL    HW142278   8.856   5.082  14.647
80127SOL    HW242279   8.815   5.151  14.775
80128SOL     OW42280   3.803   5.940   9.862
80128SOL    HW142281   3.735   6.007   9.854
80128SOL    HW242282   3.853   5.947   9.781
80129SOL     OW42283   4.756  11.798  12.779
80129SOL    HW142284   4.825  11.838  12.832
80129SOL    HW242285   4.756  11.706  12.805
80130SOL     OW42286  12.017   0.181  13.651
80130SOL    HW142287  12.002   0.139  13.736
80130SOL    HW242288  12.112   0.189  13.644
80131SOL     OW42289   3.286   1.274   5.508
80131SOL    HW142290   3.290   1.281   5.604
80131SOL    HW242291   3.223   1.341   5.482
80132SOL     OW42292  11.605   3.756  14.214
80132SOL    HW142293  11.560   3.679  14.248
80132SOL    HW242294  11.694   3.726  14.196
80133SOL     OW42295   6.195   9.784   8.266
80133SOL    HW142296   6.123   9.842   8.292
80133SOL    HW242297   6.274   9.838   8.277
80134SOL     OW42298   0.244   4.366   2.166
80134SOL    HW142299   0.318   4.336   2.218
80134SOL    HW242300   0.258   4.460   2.156
80135SOL     OW42301   1.441   2.112   5.550
80135SOL    HW142302   1.377   2.175   5.515
80135SOL    HW242303   1.503   2.099   5.479
80136SOL     OW42304  10.652   4.604   3.475
80136SOL    HW142305  10.583   4.662   3.444
80136SOL    HW242306  10.695   4.573   3.395
80137SOL     OW42307   6.430   6.184  10.934
80137SOL    HW142308   6.490   6.227  10.874
80137SOL    HW242309   6.350   6.172  10.883
80138SOL     OW42310  13.162   7.574   2.170
80138SOL    HW142311  13.242   7.556   2.218
80138SOL    HW242312  13.127   7.488   2.148
80139SOL     OW42313  12.536   4.723   8.128
80139SOL    HW142314  12.536   4.630   8.108
80139SOL    HW242315  12.610   4.736   8.187
80140SOL     OW42316  13.203   3.816   6.135
80140SOL    HW142317  13.179   3.740   6.187
80140SOL    HW242318  13.125   3.870   6.133
80141SOL     OW42319   6.071   3.996  13.819
80141SOL    HW142320   6.083   3.905  13.790
80141SOL    HW242321   5.987   3.995  13.865
80142SOL     OW42322  14.832  13.272   4.698
80142SOL    HW142323   0.006  13.343   4.717
80142SOL    HW242324  14.786  13.256   4.781
80143SOL     OW42325  13.804   8.479   5.070
80143SOL    HW142326  13.797   8.500   5.163
80143SOL    HW242327  13.719   8.440   5.048
80144SOL     OW42328  13.972   0.120   8.966
80144SOL    HW142329  14.064   0.145   8.955
80144SOL    HW242330  13.949   0.149   9.054
80145SOL     OW42331  13.670   3.133   9.596
80145SOL    HW142332  13.620   3.156   9.674
80145SOL    HW242333  13.728   3.207   9.581
80146SOL     OW42334   4.699  11.777   9.890
80146SOL    HW142335   4.705  11.873   9.883
80146SOL    HW242336   4.781  11.751   9.932
80147SOL     OW42337   1.448   9.970  11.073
80147SOL    HW142338   1.408   9.884  11.062
80147SOL    HW242339   1.400  10.010  11.145
80148SOL     OW42340   9.857   5.771  10.997
80148SOL    HW142341   9.783   5.753  11.055
80148SOL    HW242342   9.838   5.858  10.961
80149SOL     OW42343   7.181   9.769   4.237
80149SOL    HW142344   7.177   9.766   4.333
80149SOL    HW242345   7.117   9.835   4.213
80150SOL     OW42346   1.798   0.885   7.611
80150SOL    HW142347   1.832   0.848   7.692
80150SOL    HW242348   1.858   0.956   7.590
80151SOL     OW42349   5.400  12.421  12.528
80151SOL    HW142350   5.351  12.461  12.457
80151SOL    HW242351   5.441  12.343  12.490
80152SOL     OW42352  13.905  13.416  13.293
80152SOL    HW142353  13.823  13.367  13.297
80152SOL    HW242354  13.899  13.478  13.365
80153SOL     OW42355   8.907   3.468   3.818
80153SOL    HW142356   8.885   3.550   3.862
80153SOL    HW242357   8.997   3.450   3.843
80154SOL     OW42358   0.522   4.877   2.047
80154SOL    HW142359   0.552   4.828   2.124
80154SOL    HW242360   0.588   4.859   1.980
80155SOL     OW42361   4.838   8.959   8.617
80155SOL    HW142362   4.910   8.938   8.558
80155SOL    HW242363   4.844   9.054   8.628
80156SOL     OW42364   8.795  14.577  11.752
80156SOL    HW142365   8.731  14.601  11.818
80156SOL    HW242366   8.874  14.626  11.777
80157SOL     OW42367  13.248   4.850   1.127
80157SOL    HW142368  13.251   4.893   1.042
80157SOL    HW242369  13.160   4.813   1.133
80158SOL     OW42370  12.003   9.538   0.065
80158SOL    HW142371  12.062   9.464   0.078
80158SOL    HW242372  11.979   9.534  14.860
80159SOL     OW42373  11.780  13.481   9.001
80159SOL    HW142374  11.816  13.570   8.997
80159SOL    HW242375  11.831  13.438   9.069
80160SOL     OW42376   4.881   8.604   5.574
80160SOL    HW142377   4.894   8.684   5.626
80160SOL    HW242378   4.817   8.628   5.508
80161SOL     OW42379  11.802   2.751   7.322
80161SOL    HW142380  11.765   2.725   7.238
80161SOL    HW242381  11.882   2.800   7.300
80162SOL     OW42382   1.663   8.975   6.141
80162SOL    HW142383   1.727   8.926   6.090
80162SOL    HW242384   1.593   8.995   6.079
80163SOL     OW42385   4.023   0.594  14.880
80163SOL    HW142386   4.023   0.668  14.820
80163SOL    HW242387   4.046   0.632   0.078
80164SOL     OW42388   8.772   6.202   8.458
80164SOL    HW142389   8.820   6.198   8.375
80164SOL    HW242390   8.681   6.219   8.433
80165SOL     OW42391   3.844   9.125  10.158
80165SOL    HW142392   3.811   9.037  10.143
80165SOL    HW242393   3.807   9.150  10.243
80166SOL     OW42394  13.025  10.019  11.021
80166SOL    HW142395  13.108  10.033  11.067
80166SOL    HW242396  12.999  10.106  10.991
80167SOL     OW42397  13.831   4.839   9.099
80167SOL    HW142398  13.848   4.746   9.083
80167SOL    HW242399  13.836   4.879   9.012
80168SOL     OW42400   5.784  11.107  10.848
80168SOL    HW142401   5.818  11.170  10.785
80168SOL    HW242402   5.779  11.025  10.800
80169SOL     OW42403   7.807  13.350   4.197
80169SOL    HW142404   7.790  13.432   4.244
80169SOL    HW242405   7.770  13.365   4.110
80170SOL     OW42406  11.942  13.479   4.481
80170SOL    HW142407  11.875  13.460   4.547
80170SOL    HW242408  12.018  13.427   4.507
80171SOL     OW42409   1.193  11.987   0.361
80171SOL    HW142410   1.106  12.025   0.345
80171SOL    HW242411   1.197  11.912   0.301
80172SOL     OW42412   2.594  11.943  11.371
80172SOL    HW142413   2.548  11.860  11.359
80172SOL    HW242414   2.573  11.994  11.292
80173SOL     OW42415  12.370   6.744   2.282
80173SOL    HW142416  12.352   6.833   2.250
80173SOL    HW242417  12.354   6.687   2.207
80174SOL     OW42418   0.731   1.975  12.389
80174SOL    HW142419   0.810   2.027  12.407
80174SOL    HW242420   0.665   2.040  12.365
80175SOL     OW42421   6.049   3.944   2.649
80175SOL    HW142422   6.018   4.025   2.607
80175SOL    HW242423   5.980   3.880   2.632
80176SOL     OW42424  10.348   7.856   4.031
80176SOL    HW142425  10.308   7.804   4.100
80176SOL    HW242426  10.327   7.946   4.054
80177SOL     OW42427   1.661   5.119   4.324
80177SOL    HW142428   1.610   5.050   4.281
80177SOL    HW242429   1.748   5.081   4.333
80178SOL     OW42430   7.593   2.956   0.890
80178SOL    HW142431   7.665   2.931   0.832
80178SOL    HW242432   7.628   2.946   0.978
80179SOL     OW42433  13.837   4.189   3.901
80179SOL    HW142434  13.811   4.220   3.815
80179SOL    HW242435  13.932   4.176   3.894
80180SOL     OW42436  12.763   9.911   6.891
80180SOL    HW142437  12.846   9.886   6.851
80180SOL    HW242438  12.784   9.987   6.946
80181SOL     OW42439   7.485   8.132  12.337
80181SOL    HW142440   7.456   8.203  12.395
80181SOL    HW242441   7.567   8.164  12.299
80182SOL     OW42442  14.202  12.361   6.781
80182SOL    HW142443  14.130  12.310   6.746
80182SOL    HW242444  14.229  12.314   6.860
80183SOL     OW42445  10.974  12.451  12.685
80183SOL    HW142446  10.912  12.489  12.747
80183SOL    HW242447  10.962  12.503  12.605
80184SOL     OW42448   8.960   3.346   4.123
80184SOL    HW142449   8.866   3.333   4.131
80184SOL    HW242450   8.994   3.260   4.099
80185SOL     OW42451   4.217   4.815  12.621
80185SOL    HW142452   4.303   4.775  12.638
80185SOL    HW242453   4.238   4.901  12.583
80186SOL     OW42454  11.082   7.623  12.379
80186SOL    HW142455  11.118   7.568  12.448
80186SOL    HW242456  11.026   7.686  12.424
80187SOL     OW42457   8.569  12.075   7.959
80187SOL    HW142458   8.651  12.030   7.979
80187SOL    HW242459   8.509  12.048   8.028
80188SOL     OW42460  13.795  10.587   5.793
80188SOL    HW142461  13.869  10.566   5.736
80188SOL    HW242462  13.778  10.506   5.841
80189SOL     OW42463   1.011   4.815   3.107
80189SOL    HW142464   1.042   4.747   3.047
80189SOL    HW242465   0.927   4.782   3.138
80190SOL     OW42466   7.701   6.712  12.927
80190SOL    HW142467   7.606   6.703  12.915
80190SOL    HW242468   7.737   6.711  12.839
80191SOL     OW42469  14.399   0.214  11.339
80191SOL    HW142470  14.433   0.278  11.276
80191SOL    HW242471  14.314   0.189  11.304
80192SOL     OW42472   7.968  10.345   3.936
80192SOL    HW142473   7.899  10.405   3.910
80192SOL    HW242474   7.937  10.259   3.907
80193SOL     OW42475  12.564   0.463  13.682
80193SOL    HW142476  12.559   0.486  13.589
80193SOL    HW242477  12.649   0.421  13.692
80194SOL     OW42478   4.500   4.604  12.117
80194SOL    HW142479   4.530   4.531  12.063
80194SOL    HW242480   4.530   4.682  12.071
80195SOL     OW42481  12.786   1.631   1.262
80195SOL    HW142482  12.736   1.603   1.339
80195SOL    HW242483  12.877   1.629   1.290
80196SOL     OW42484   7.704   6.875  14.767
80196SOL    HW142485   7.709   6.945  14.833
80196SOL    HW242486   7.610   6.860  14.755
80197SOL     OW42487   7.302   7.274   1.353
80197SOL    HW142488   7.274   7.349   1.406
80197SOL    HW242489   7.297   7.200   1.413
80198SOL     OW42490   1.979   9.103   0.446
80198SOL    HW142491   1.893   9.141   0.431
80198SOL    HW242492   2.034   9.176   0.474
80199SOL     OW42493   0.621  11.844  11.336
80199SOL    HW142494   0.673  11.919  11.365
80199SOL    HW242495   0.683  11.787  11.291
80200SOL     OW42496   5.442   8.798  14.128
80200SOL    HW142497   5.512   8.738  14.102
80200SOL    HW242498   5.384   8.745  14.183
80201SOL     OW42499   8.966   3.417   9.589
80201SOL    HW142500   9.037   3.480   9.602
80201SOL    HW242501   8.958   3.374   9.674
80202SOL     OW42502   6.934  14.233   9.386
80202SOL    HW142503   7.008  14.280   9.347
80202SOL    HW242504   6.895  14.296   9.446
80203SOL     OW42505   4.358   8.728  12.585
80203SOL    HW142506   4.337   8.635  12.575
80203SOL    HW242507   4.453   8.729  12.595
80204SOL     OW42508   0.834  13.686  11.803
80204SOL    HW142509   0.855  13.601  11.843
80204SOL    HW242510   0.831  13.747  11.876
80205SOL     OW42511   7.552   7.898  14.096
80205SOL    HW142512   7.626   7.959  14.091
80205SOL    HW242513   7.475   7.955  14.106
80206SOL     OW42514   4.973  13.384   5.385
80206SOL    HW142515   4.983  13.345   5.472
80206SOL    HW242516   4.879  13.400   5.377
80207SOL     OW42517   4.270   6.413   2.237
80207SOL    HW142518   4.354   6.451   2.261
80207SOL    HW242519   4.220   6.487   2.202
80208SOL     OW42520   8.484   5.742  10.121
80208SOL    HW142521   8.574   5.759  10.150
80208SOL    HW242522   8.432   5.743  10.202
80209SOL     OW42523   3.403   8.912   7.521
80209SOL    HW142524   3.314   8.909   7.555
80209SOL    HW242525   3.421   8.823   7.491
80210SOL     OW42526   5.548   2.443   1.277
80210SOL    HW142527   5.503   2.369   1.235
80210SOL    HW242528   5.478   2.501   1.304
80211SOL     OW42529  10.123  11.098   9.312
80211SOL    HW142530  10.204  11.126   9.272
80211SOL    HW242531  10.070  11.064   9.239
80212SOL     OW42532   5.935  11.330   0.128
80212SOL    HW142533   5.843  11.305   0.116
80212SOL    HW242534   5.968  11.343   0.040
80213SOL     OW42535  10.328   9.856  10.848
80213SOL    HW142536  10.350   9.778  10.797
80213SOL    HW242537  10.325   9.927  10.783
80214SOL     OW42538   9.628  11.640  14.421
80214SOL    HW142539   9.582  11.556  14.422
80214SOL    HW242540   9.580  11.693  14.358
80215SOL     OW42541   1.424   3.443   6.282
80215SOL    HW142542   1.454   3.381   6.347
80215SOL    HW242543   1.446   3.403   6.198
80216SOL     OW42544   5.153   6.214   5.251
80216SOL    HW142545   5.069   6.260   5.258
80216SOL    HW242546   5.135   6.143   5.190
80217SOL     OW42547   1.280  11.763   0.247
80217SOL    HW142548   1.252  11.700   0.180
80217SOL    HW242549   1.288  11.711   0.327
80218SOL     OW42550   4.939   1.567   3.789
80218SOL    HW142551   5.033   1.553   3.777
80218SOL    HW242552   4.906   1.580   3.700
80219SOL     OW42553   3.187  13.824   2.798
80219SOL    HW142554   3.239  13.824   2.718
80219SOL    HW242555   3.234  13.766   2.858
80220SOL     OW42556   2.632   5.001   6.927
80220SOL    HW142557   2.556   4.968   6.878
80220SOL    HW242558   2.688   5.040   6.860
80221SOL     OW42559   8.913   5.846  14.004
80221SOL    HW142560   8.972   5.780  14.039
80221SOL    HW242561   8.905   5.912  14.074
80222SOL     OW42562   0.039  12.498   7.287
80222SOL    HW142563   0.118  12.509   7.233
80222SOL    HW242564  14.855  12.491   7.224
80223SOL     OW42565   6.623   0.339   6.336
80223SOL    HW142566   6.572   0.391   6.397
80223SOL    HW242567   6.586   0.359   6.250
80224SOL     OW42568   2.570  14.569  11.603
80224SOL    HW142569   2.580  14.497  11.665
80224SOL    HW242570   2.532  14.640  11.654
80225SOL     OW42571  12.268   4.838   7.211
80225SOL    HW142572  12.185   4.810   7.250
80225SOL    HW242573  12.294   4.914   7.263
80226SOL     OW42574   7.065   6.440   7.117
80226SOL    HW142575   7.064   6.384   7.195
80226SOL    HW242576   7.157   6.463   7.106
80227SOL     OW42577  12.051   5.186   8.048
80227SOL    HW142578  12.092   5.243   7.982
80227SOL    HW242579  11.958   5.209   8.045
80228SOL     OW42580  10.073   0.510   9.089
80228SOL    HW142581  10.142   0.461   9.043
80228SOL    HW242582  10.094   0.499   9.181
80229SOL     OW42583   3.272   3.478   2.139
80229SOL    HW142584   3.248   3.526   2.218
80229SOL    HW242585   3.212   3.512   2.072
80230SOL     OW42586  12.359   2.628   4.329
80230SOL    HW142587  12.405   2.548   4.354
80230SOL    HW242588  12.328   2.664   4.413
80231SOL     OW42589   8.950   6.737   0.223
80231SOL    HW142590   8.857   6.727   0.242
80231SOL    HW242591   8.992   6.661   0.264
80232SOL     OW42592  13.324  13.497  12.001
80232SOL    HW142593  13.266  13.430  11.965
80232SOL    HW242594  13.301  13.577  11.954
80233SOL     OW42595   9.221   9.697   7.782
80233SOL    HW142596   9.273   9.776   7.765
80233SOL    HW242597   9.274   9.646   7.843
80234SOL     OW42598  11.575  11.221   9.929
80234SOL    HW142599  11.644  11.194   9.869
80234SOL    HW242600  11.502  11.245   9.871
80235SOL     OW42601   8.523   8.552   1.832
80235SOL    HW142602   8.589   8.485   1.815
80235SOL    HW242603   8.491   8.531   1.920
80236SOL     OW42604   8.796  10.708  12.292
80236SOL    HW142605   8.749  10.775  12.243
80236SOL    HW242606   8.756  10.626  12.265
80237SOL     OW42607   5.710  12.016   6.619
80237SOL    HW142608   5.619  11.992   6.636
80237SOL    HW242609   5.752  11.934   6.591
80238SOL     OW42610   8.803   6.689   7.043
80238SOL    HW142611   8.789   6.629   6.970
80238SOL    HW242612   8.862   6.642   7.102
80239SOL     OW42613   9.675   4.414  10.120
80239SOL    HW142614   9.656   4.323  10.099
80239SOL    HW242615   9.598   4.462  10.090
80240SOL     OW42616   1.063   6.971   0.111
80240SOL    HW142617   1.064   7.040   0.177
80240SOL    HW242618   1.026   7.014   0.033
80241SOL     OW42619   9.131  13.137  12.458
80241SOL    HW142620   9.168  13.181  12.381
80241SOL    HW242621   9.117  13.208  12.521
80242SOL     OW42622   7.672   9.509   6.703
80242SOL    HW142623   7.617   9.439   6.738
80242SOL    HW242624   7.678   9.573   6.773
80243SOL     OW42625   6.168   3.691   2.971
80243SOL    HW142626   6.191   3.662   3.059
80243SOL    HW242627   6.123   3.774   2.984
80244SOL     OW42628   2.855  11.224  11.331
80244SOL    HW142629   2.936  11.178  11.306
80244SOL    HW242630   2.797  11.155  11.363
80245SOL     OW42631  10.196  13.586   7.877
80245SOL    HW142632  10.208  13.651   7.807
80245SOL    HW242633  10.264  13.521   7.860
80246SOL     OW42634   0.188   7.234  12.699
80246SOL    HW142635   0.245   7.267  12.630
80246SOL    HW242636   0.171   7.143  12.674
80247SOL     OW42637  14.273   2.620   2.808
80247SOL    HW142638  14.356   2.586   2.842
80247SOL    HW242639  14.243   2.681   2.875
80248SOL     OW42640   2.473  11.381   8.541
80248SOL    HW142641   2.507  11.438   8.609
80248SOL    HW242642   2.516  11.296   8.556
80249SOL     OW42643   1.255  14.432   8.817
80249SOL    HW142644   1.348  14.410   8.824
80249SOL    HW242645   1.254  14.527   8.805
80250SOL     OW42646   8.982   2.725  11.581
80250SOL    HW142647   8.969   2.713  11.675
80250SOL    HW242648   9.065   2.682  11.562
80251SOL     OW42649  14.288   3.439   9.880
80251SOL    HW142650  14.230   3.385   9.826
80251SOL    HW242651  14.325   3.503   9.819
80252SOL     OW42652  11.920   8.473   4.613
80252SOL    HW142653  11.908   8.568   4.609
80252SOL    HW242654  11.990   8.455   4.551
80253SOL     OW42655   2.411  12.382  10.161
80253SOL    HW142656   2.435  12.321  10.231
80253SOL    HW242657   2.325  12.352  10.131
80254SOL     OW42658  10.838  13.094  13.384
80254SOL    HW142659  10.895  13.050  13.320
80254SOL    HW242660  10.767  13.131  13.331
80255SOL     OW42661   5.027   5.942  14.336
80255SOL    HW142662   5.012   5.867  14.394
80255SOL    HW242663   4.939   5.969  14.308
80256SOL     OW42664   4.025   2.279   2.651
80256SOL    HW142665   4.068   2.335   2.715
80256SOL    HW242666   3.964   2.226   2.702
80257SOL     OW42667   2.995   3.300  10.367
80257SOL    HW142668   3.083   3.284  10.402
80257SOL    HW242669   2.943   3.228  10.400
80258SOL     OW42670   5.964   9.151   9.791
80258SOL    HW142671   6.022   9.089   9.836
80258SOL    HW242672   5.898   9.173   9.856
80259SOL     OW42673  10.517   0.006   6.764
80259SOL    HW142674  10.448  14.827   6.769
80259SOL    HW242675  10.527   0.023   6.670
80260SOL     OW42676   8.924   0.111   2.975
80260SOL    HW142677   9.019   0.121   2.981
80260SOL    HW242678   8.911   0.040   2.912
80261SOL     OW42679   1.088   3.990   9.176
80261SOL    HW142680   1.029   3.955   9.110
80261SOL    HW242681   1.083   4.085   9.165
80262SOL     OW42682   0.278   6.410  14.464
80262SOL    HW142683   0.342   6.467  14.508
80262SOL    HW242684   0.193   6.436  14.500
80263SOL     OW42685   0.214   5.951   1.159
80263SOL    HW142686   0.132   5.954   1.109
80263SOL    HW242687   0.188   5.926   1.248
80264SOL     OW42688  13.056  13.146  14.557
80264SOL    HW142689  13.117  13.183  14.493
80264SOL    HW242690  13.025  13.222  14.606
80265SOL     OW42691   0.546   3.470   2.699
80265SOL    HW142692   0.555   3.401   2.764
80265SOL    HW242693   0.543   3.424   2.615
80266SOL     OW42694   8.773   4.151  10.524
80266SOL    HW142695   8.745   4.209  10.595
80266SOL    HW242696   8.863   4.127  10.547
80267SOL     OW42697  13.848   7.926   2.931
80267SOL    HW142698  13.897   8.002   2.961
80267SOL    HW242699  13.758   7.956   2.924
80268SOL     OW42700   7.835  14.733   5.810
80268SOL    HW142701   7.845  14.730   5.715
80268SOL    HW242702   7.769  14.801   5.825
80269SOL     OW42703   7.087   2.705  14.611
80269SOL    HW142704   7.094   2.790  14.568
80269SOL    HW242705   7.085   2.642  14.539
80270SOL     OW42706   5.745  13.962  13.351
80270SOL    HW142707   5.765  13.918  13.434
80270SOL    HW242708   5.813  13.932  13.291
80271SOL     OW42709   6.224   3.054  13.998
80271SOL    HW142710   6.267   3.115  13.937
80271SOL    HW242711   6.249   3.086  14.085
80272SOL     OW42712  12.483   0.472  12.771
80272SOL    HW142713  12.488   0.495  12.678
80272SOL    HW242714  12.440   0.386  12.773
80273SOL     OW42715  14.190   9.877  12.143
80273SOL    HW142716  14.106   9.841  12.172
80273SOL    HW242717  14.167   9.957  12.097
80274SOL     OW42718   6.850   8.166  12.322
80274SOL    HW142719   6.829   8.073  12.317
80274SOL    HW242720   6.945   8.169  12.332
80275SOL     OW42721   6.596  13.795  10.001
80275SOL    HW142722   6.571  13.872  10.051
80275SOL    HW242723   6.670  13.758  10.049
80276SOL     OW42724   4.003   7.078   0.879
80276SOL    HW142725   4.053   7.105   0.801
80276SOL    HW242726   4.056   7.108   0.953
80277SOL     OW42727  11.647   4.047   6.519
80277SOL    HW142728  11.700   3.991   6.463
80277SOL    HW242729  11.581   3.989   6.555
80278SOL     OW42730   3.416   6.347   3.368
80278SOL    HW142731   3.415   6.347   3.272
80278SOL    HW242732   3.330   6.315   3.393
80279SOL     OW42733  13.311  14.453  13.797
80279SOL    HW142734  13.340  14.399  13.871
80279SOL    HW242735  13.248  14.514  13.836
80280SOL     OW42736   6.767  10.534   8.351
80280SOL    HW142737   6.783  10.581   8.270
80280SOL    HW242738   6.746  10.602   8.415
80281SOL     OW42739  10.848   2.527  14.578
80281SOL    HW142740  10.833   2.612  14.618
80281SOL    HW242741  10.779   2.471  14.612
80282SOL     OW42742  13.631   0.786  10.829
80282SOL    HW142743  13.711   0.797  10.881
80282SOL    HW242744  13.599   0.875  10.815
80283SOL     OW42745   5.074   9.931   8.809
80283SOL    HW142746   5.132   9.870   8.764
80283SOL    HW242747   4.987   9.911   8.774
80284SOL     OW42748  10.338   2.191   9.971
80284SOL    HW142749  10.306   2.102   9.982
80284SOL    HW242750  10.362   2.219  10.059
80285SOL     OW42751   7.430   9.166  10.234
80285SOL    HW142752   7.356   9.175  10.173
80285SOL    HW242753   7.390   9.168  10.321
80286SOL     OW42754   0.635  10.571  13.064
80286SOL    HW142755   0.547  10.535  13.061
80286SOL    HW242756   0.623  10.663  13.086
80287SOL     OW42757   5.007   7.097   4.399
80287SOL    HW142758   5.055   7.145   4.467
80287SOL    HW242759   4.998   7.008   4.435
80288SOL     OW42760  14.009   2.015   0.901
80288SOL    HW142761  14.064   2.092   0.912
80288SOL    HW242762  13.986   1.988   0.990
80289SOL     OW42763   5.115  11.757   9.254
80289SOL    HW142764   5.052  11.819   9.291
80289SOL    HW242765   5.064  11.679   9.236
80290SOL     OW42766  10.865   8.059  13.395
80290SOL    HW142767  10.846   8.056  13.302
80290SOL    HW242768  10.898   8.148  13.410
80291SOL     OW42769   6.872   8.111   8.859
80291SOL    HW142770   6.879   8.071   8.946
80291SOL    HW242771   6.785   8.152   8.859
80292SOL     OW42772   9.232   8.241  10.174
80292SOL    HW142773   9.192   8.186  10.107
80292SOL    HW242774   9.158   8.286  10.215
80293SOL     OW42775  10.003  10.413   7.125
80293SOL    HW142776  10.083  10.459   7.101
80293SOL    HW242777  10.024  10.371   7.208
80294SOL     OW42778   8.199   8.295   0.728
80294SOL    HW142779   8.163   8.236   0.794
80294SOL    HW242780   8.194   8.247   0.646
80295SOL     OW42781  10.392   3.433   0.167
80295SOL    HW142782  10.408   3.367   0.099
80295SOL    HW242783  10.363   3.383   0.243
80296SOL     OW42784  12.385  14.603   6.156
80296SOL    HW142785  12.304  14.574   6.114
80296SOL    HW242786  12.362  14.688   6.195
80297SOL     OW42787  11.048  11.550   9.667
80297SOL    HW142788  10.979  11.603   9.709
80297SOL    HW242789  11.028  11.460   9.693
80298SOL     OW42790   7.316   1.124   9.638
80298SOL    HW142791   7.258   1.130   9.714
80298SOL    HW242792   7.262   1.154   9.565
80299SOL     OW42793   4.143   6.874   0.444
80299SOL    HW142794   4.206   6.892   0.513
80299SOL    HW242795   4.061   6.911   0.475
80300SOL     OW42796  10.427  11.768   0.304
80300SOL    HW142797  10.398  11.746   0.393
80300SOL    HW242798  10.517  11.799   0.315
80301SOL     OW42799  10.623   2.365  14.717
80301SOL    HW142800  10.538   2.320  14.715
80301SOL    HW242801  10.609   2.439  14.775
80302SOL     OW42802  13.922  13.319  11.656
80302SOL    HW142803  13.996  13.349  11.708
80302SOL    HW242804  13.851  13.379  11.679
80303SOL     OW42805   8.972  13.596  11.766
80303SOL    HW142806   8.992  13.514  11.811
80303SOL    HW242807   8.931  13.569  11.683
80304SOL     OW42808   8.149  14.567  10.845
80304SOL    HW142809   8.203  14.511  10.791
80304SOL    HW242810   8.192  14.653  10.842
80305SOL     OW42811  14.385   8.394  10.683
80305SOL    HW142812  14.402   8.456  10.754
80305SOL    HW242813  14.290   8.383  10.683
80306SOL     OW42814   4.919   1.204   5.739
80306SOL    HW142815   4.901   1.295   5.715
80306SOL    HW242816   5.007   1.187   5.703
80307SOL     OW42817   6.708  10.154   9.679
80307SOL    HW142818   6.727  10.205   9.758
80307SOL    HW242819   6.618  10.123   9.692
80308SOL     OW42820  11.582   6.420   6.863
80308SOL    HW142821  11.560   6.422   6.770
80308SOL    HW242822  11.581   6.512   6.890
80309SOL     OW42823   9.657   8.808   6.892
80309SOL    HW142824   9.641   8.725   6.939
80309SOL    HW242825   9.664   8.874   6.961
80310SOL     OW42826   2.236  13.436   9.705
80310SOL    HW142827   2.295  13.439   9.629
80310SOL    HW242828   2.293  13.453   9.780
80311SOL     OW42829   9.096  11.275  11.355
80311SOL    HW142830   9.170  11.299  11.299
80311SOL    HW242831   9.045  11.355  11.364
80312SOL     OW42832   8.970   5.495   1.816
80312SOL    HW142833   8.877   5.515   1.818
80312SOL    HW242834   8.987   5.451   1.899
80313SOL     OW42835  11.801  10.085   2.761
80313SOL    HW142836  11.764  10.165   2.797
80313SOL    HW242837  11.851  10.046   2.833
80314SOL     OW42838   0.467   8.459   2.648
80314SOL    HW142839   0.401   8.457   2.579
80314SOL    HW242840   0.444   8.386   2.705
80315SOL     OW42841   9.064   6.607  13.328
80315SOL    HW142842   9.072   6.645  13.241
80315SOL    HW242843   9.068   6.681  13.387
80316SOL     OW42844  14.355  13.103   2.017
80316SOL    HW142845  14.356  13.155   1.937
80316SOL    HW242846  14.265  13.108   2.048
80317SOL     OW42847   6.036   6.838  13.030
80317SOL    HW142848   6.071   6.918  12.991
80317SOL    HW242849   5.971   6.870  13.093
80318SOL     OW42850   9.258  13.126   8.970
80318SOL    HW142851   9.321  13.197   8.982
80318SOL    HW242852   9.311  13.050   8.949
80319SOL     OW42853  10.080  13.140   4.886
80319SOL    HW142854  10.165  13.098   4.900
80319SOL    HW242855  10.090  13.189   4.805
80320SOL     OW42856   0.628  14.736  10.656
80320SOL    HW142857   0.701  14.740  10.717
80320SOL    HW242858   0.556  14.699  10.706
80321SOL     OW42859   7.613  14.573   4.041
80321SOL    HW142860   7.637  14.544   4.129
80321SOL    HW242861   7.676  14.642   4.021
80322SOL     OW42862  14.413   0.631   0.357
80322SOL    HW142863  14.353   0.705   0.352
80322SOL    HW242864  14.461   0.633   0.275
80323SOL     OW42865  10.115  13.434  14.129
80323SOL    HW142866  10.159  13.377  14.192
80323SOL    HW242867  10.170  13.430  14.051
80324SOL     OW42868   0.188   4.765   5.132
80324SOL    HW142869   0.098   4.791   5.152
80324SOL    HW242870   0.183   4.723   5.046
80325SOL     OW42871   9.201  14.589   5.855
80325SOL    HW142872   9.138  14.634   5.912
80325SOL    HW242873   9.168  14.602   5.767
80326SOL     OW42874   0.707  12.719  14.652
80326SOL    HW142875   0.766  12.649  14.681
80326SOL    HW242876   0.628  12.707  14.704
80327SOL     OW42877  11.324   6.651   8.416
80327SOL    HW142878  11.299   6.635   8.326
80327SOL    HW242879  11.247   6.628   8.468
80328SOL     OW42880   3.020   2.164   1.310
80328SOL    HW142881   3.015   2.251   1.269
80328SOL    HW242882   3.037   2.104   1.238
80329SOL     OW42883   7.137   1.715  11.313
80329SOL    HW142884   7.095   1.679  11.235
80329SOL    HW242885   7.137   1.810  11.299
80330SOL     OW42886   3.353   6.687   3.911
80330SOL    HW142887   3.412   6.759   3.934
80330SOL    HW242888   3.338   6.641   3.993
80331SOL     OW42889   7.724  10.228   3.273
80331SOL    HW142890   7.708  10.241   3.179
80331SOL    HW242891   7.682  10.145   3.293
80332SOL     OW42892   8.417  12.242   7.324
80332SOL    HW142893   8.396  12.311   7.387
80332SOL    HW242894   8.424  12.288   7.240
80333SOL     OW42895  11.678  11.811   5.527
80333SOL    HW142896  11.650  11.874   5.460
80333SOL    HW242897  11.704  11.733   5.477
80334SOL     OW42898   7.030   7.348  12.203
80334SOL    HW142899   6.939   7.350  12.233
80334SOL    HW242900   7.079   7.388  12.274
80335SOL     OW42901   9.306   4.356   8.911
80335SOL    HW142902   9.312   4.348   8.816
80335SOL    HW242903   9.279   4.447   8.926
80336SOL     OW42904   8.528   7.929   0.896
80336SOL    HW142905   8.437   7.939   0.870
80336SOL    HW242906   8.573   8.003   0.855
80337SOL     OW42907   3.048  13.389   9.332
80337SOL    HW142908   3.124  13.427   9.288
80337SOL    HW242909   3.016  13.322   9.272
80338SOL     OW42910   9.105  13.397   6.878
80338SOL    HW142911   9.067  13.343   6.810
80338SOL    HW242912   9.065  13.484   6.865
80339SOL     OW42913   9.314  11.168   7.774
80339SOL    HW142914   9.335  11.075   7.763
80339SOL    HW242915   9.252  11.187   7.704
80340SOL     OW42916   6.444   9.825   5.758
80340SOL    HW142917   6.464   9.824   5.665
80340SOL    HW242918   6.464   9.736   5.788
80341SOL     OW42919   8.468   4.552   5.390
80341SOL    HW142920   8.432   4.545   5.479
80341SOL    HW242921   8.402   4.602   5.342
80342SOL     OW42922  13.373   8.831   8.552
80342SOL    HW142923  13.418   8.916   8.547
80342SOL    HW242924  13.299   8.847   8.610
80343SOL     OW42925  14.681   7.650   7.089
80343SOL    HW142926  14.617   7.654   7.018
80343SOL    HW242927  14.629   7.654   7.169
80344SOL     OW42928  10.294   2.093   4.211
80344SOL    HW142929  10.267   2.057   4.127
80344SOL    HW242930  10.366   2.152   4.191
80345SOL     OW42931   9.999  12.634   4.863
80345SOL    HW142932   9.922  12.583   4.841
80345SOL    HW242933   9.966  12.703   4.922
80346SOL     OW42934  10.034   2.257   4.968
80346SOL    HW142935   9.941   2.237   4.965
80346SOL    HW242936  10.077   2.171   4.977
80347SOL     OW42937   9.875  13.696   7.724
80347SOL    HW142938   9.931  13.749   7.781
80347SOL    HW242939   9.849  13.622   7.779
80348SOL     OW42940   5.886   4.736   8.822
80348SOL    HW142941   5.951   4.806   8.814
80348SOL    HW242942   5.851   4.725   8.734
80349SOL     OW42943   4.968  11.430   4.143
80349SOL    HW142944   4.938  11.341   4.165
80349SOL    HW242945   4.991  11.469   4.227
80350SOL     OW42946  12.081   0.649   2.576
80350SOL    HW142947  12.030   0.580   2.619
80350SOL    HW242948  12.039   0.661   2.491
80351SOL     OW42949   5.036   5.655   0.205
80351SOL    HW142950   5.034   5.742   0.243
80351SOL    HW242951   5.128   5.631   0.202
80352SOL     OW42952  11.315  11.096   1.670
80352SOL    HW142953  11.263  11.173   1.694
80352SOL    HW242954  11.250  11.029   1.647
80353SOL     OW42955  14.445  14.053   1.961
80353SOL    HW142956  14.483  14.023   2.043
80353SOL    HW242957  14.514  14.104   1.919
80354SOL     OW42958   9.937  14.201   6.054
80354SOL    HW142959   9.863  14.255   6.026
80354SOL    HW242960  10.014  14.247   6.019
80355SOL     OW42961  11.476   9.378   6.514
80355SOL    HW142962  11.547   9.369   6.451
80355SOL    HW242963  11.511   9.435   6.583
80356SOL     OW42964   1.806  11.030   0.630
80356SOL    HW142965   1.834  10.998   0.544
80356SOL    HW242966   1.882  11.078   0.664
80357SOL     OW42967  14.226   3.681   3.723
80357SOL    HW142968  14.292   3.745   3.748
80357SOL    HW242969  14.172   3.670   3.802
80358SOL     OW42970  13.343   4.072  14.705
80358SOL    HW142971  13.401   4.078  14.630
80358SOL    HW242972  13.401   4.054  14.779
80359SOL     OW42973   1.282  13.149   4.746
80359SOL    HW142974   1.244  13.236   4.756
80359SOL    HW242975   1.248  13.117   4.663
80360SOL     OW42976   8.975   4.638   3.579
80360SOL    HW142977   8.933   4.617   3.496
80360SOL    HW242978   8.902   4.659   3.638
80361SOL     OW42979  11.908   5.418  13.072
80361SOL    HW142980  11.829   5.471  13.058
80361SOL    HW242981  11.966   5.442  13.000
80362SOL     OW42982   0.982   2.107   2.672
80362SOL    HW142983   0.957   2.090   2.763
80362SOL    HW242984   1.077   2.123   2.675
80363SOL     OW42985  12.541  11.555   8.564
80363SOL    HW142986  12.592  11.518   8.636
80363SOL    HW242987  12.486  11.622   8.605
80364SOL     OW42988  13.302   0.410   8.546
80364SOL    HW142989  13.268   0.489   8.503
80364SOL    HW242990  13.367   0.376   8.484
80365SOL     OW42991   1.288  12.062   3.888
80365SOL    HW142992   1.283  11.991   3.952
80365SOL    HW242993   1.285  12.142   3.940
80366SOL     OW42994   6.222   6.195   4.476
80366SOL    HW142995   6.166   6.162   4.546
80366SOL    HW242996   6.243   6.285   4.502
80367SOL     OW42997   2.678   7.412   4.721
80367SOL    HW142998   2.703   7.331   4.766
80367SOL    HW242999   2.689   7.391   4.628
80368SOL     OW43000   0.729   7.813  13.401
80368SOL    HW143001   0.815   7.828  13.363
80368SOL    HW243002   0.718   7.718  13.399
80369SOL     OW43003   1.844   1.358  11.677
80369SOL    HW143004   1.759   1.315  11.680
80369SOL    HW243005   1.872   1.353  11.586
80370SOL     OW43006   1.869  13.405   3.626
80370SOL    HW143007   1.908  13.469   3.567
80370SOL    HW243008   1.935  13.392   3.694
80371SOL     OW43009   8.095   6.636   9.801
80371SOL    HW143010   8.095   6.577   9.726
80371SOL    HW243011   8.024   6.698   9.783
80372SOL     OW43012   0.767   0.757   4.594
80372SOL    HW143013   0.761   0.795   4.506
80372SOL    HW243014   0.821   0.679   4.582
80373SOL     OW43015   9.661  14.543   9.344
80373SOL    HW143016   9.729  14.541   9.410
80373SOL    HW243017   9.630  14.453   9.338
80374SOL     OW43018   6.998   9.106  11.039
80374SOL    HW143019   6.918   9.053  11.028
80374SOL    HW243020   7.032   9.115  10.950
80375SOL     OW43021   3.867   0.193   3.858
80375SOL    HW143022   3.884   0.167   3.948
80375SOL    HW243023   3.953   0.203   3.818
80376SOL     OW43024  13.903  11.930  14.583
80376SOL    HW143025  13.949  11.998  14.534
80376SOL    HW243026  13.922  11.949  14.675
80377SOL     OW43027   1.750  14.690  13.931
80377SOL    HW143028   1.674  14.637  13.907
80377SOL    HW243029   1.790  14.714  13.847
80378SOL     OW43030   8.096   0.091   0.562
80378SOL    HW143031   8.127   0.005   0.535
80378SOL    HW243032   8.105   0.091   0.657
80379SOL     OW43033   5.301   5.405   1.574
80379SOL    HW143034   5.316   5.460   1.651
80379SOL    HW243035   5.383   5.410   1.525
80380SOL     OW43036   5.271  12.938   0.768
80380SOL    HW143037   5.262  12.869   0.833
80380SOL    HW243038   5.185  12.942   0.725
80381SOL     OW43039   9.384   0.472  10.128
80381SOL    HW143040   9.469   0.433  10.148
80381SOL    HW243041   9.397   0.566  10.143
80382SOL     OW43042  10.083   4.636  14.629
80382SOL    HW143043  10.057   4.544  14.625
80382SOL    HW243044  10.089   4.664  14.538
80383SOL     OW43045   6.612   0.251  10.388
80383SOL    HW143046   6.557   0.231  10.464
80383SOL    HW243047   6.595   0.344  10.370
80384SOL     OW43048  12.063   1.182   7.612
80384SOL    HW143049  12.036   1.123   7.542
80384SOL    HW243050  12.060   1.127   7.691
80385SOL     OW43051  11.894  11.788  10.736
80385SOL    HW143052  11.982  11.754  10.717
80385SOL    HW243053  11.859  11.728  10.802
80386SOL     OW43054  13.133   7.369  11.296
80386SOL    HW143055  13.138   7.459  11.329
80386SOL    HW243056  13.097   7.319  11.368
80387SOL     OW43057   1.056   0.798  12.410
80387SOL    HW143058   1.114   0.792  12.335
80387SOL    HW243059   0.969   0.814  12.372
80388SOL     OW43060   1.426  13.107   7.009
80388SOL    HW143061   1.409  13.200   6.998
80388SOL    HW243062   1.378  13.065   6.938
80389SOL     OW43063  10.456   4.888   5.812
80389SOL    HW143064  10.545   4.889   5.776
80389SOL    HW243065  10.418   4.972   5.786
80390SOL     OW43066   4.286   2.090   1.683
80390SOL    HW143067   4.303   2.173   1.729
80390SOL    HW243068   4.335   2.098   1.602
80391SOL     OW43069  12.402  13.711   3.514
80391SOL    HW143070  12.341  13.658   3.564
80391SOL    HW243071  12.438  13.773   3.577
80392SOL     OW43072  13.039  12.413  14.657
80392SOL    HW143073  13.114  12.360  14.687
80392SOL    HW243074  13.078  12.495  14.628
80393SOL     OW43075   5.024   0.646   3.523
80393SOL    HW143076   5.013   0.602   3.607
80393SOL    HW243077   4.942   0.629   3.476
80394SOL     OW43078   0.520   4.542   1.127
80394SOL    HW143079   0.549   4.476   1.190
80394SOL    HW243080   0.585   4.537   1.056
80395SOL     OW43081   9.196   9.862   2.854
80395SOL    HW143082   9.254   9.891   2.925
80395SOL    HW243083   9.110   9.895   2.879
80396SOL     OW43084   3.691  14.220   8.107
80396SOL    HW143085   3.619  14.220   8.171
80396SOL    HW243086   3.663  14.282   8.040
80397SOL     OW43087   7.056  13.871   0.729
80397SOL    HW143088   7.009  13.927   0.790
80397SOL    HW243089   7.124  13.927   0.691
80398SOL     OW43090   2.312   1.412   4.955
80398SOL    HW143091   2.248   1.367   5.009
80398SOL    HW243092   2.354   1.474   5.015
80399SOL     OW43093   9.857  12.285   6.586
80399SOL    HW143094   9.892  12.347   6.650
80399SOL    HW243095   9.763  12.288   6.599
80400SOL     OW43096   9.026   8.259  11.373
80400SOL    HW143097   8.936   8.228  11.377
80400SOL    HW243098   9.046   8.286  11.463
80401SOL     OW43099  12.480   3.846   4.125
80401SOL    HW143100  12.412   3.798   4.172
80401SOL    HW243101  12.516   3.783   4.063
80402SOL     OW43102  13.094   5.449   7.129
80402SOL    HW143103  13.071   5.380   7.067
80402SOL    HW243104  13.177   5.421   7.167
80403SOL     OW43105  10.488   3.559   3.765
80403SOL    HW143106  10.402   3.557   3.723
80403SOL    HW243107  10.543   3.504   3.710
80404SOL     OW43108   5.593   8.317  11.652
80404SOL    HW143109   5.528   8.334  11.720
80404SOL    HW243110   5.660   8.264  11.696
80405SOL     OW43111   2.657   4.856   4.819
80405SOL    HW143112   2.649   4.893   4.731
80405SOL    HW243113   2.615   4.770   4.813
80406SOL     OW43114   8.011  11.876   2.456
80406SOL    HW143115   8.053  11.792   2.442
80406SOL    HW243116   8.081  11.940   2.444
80407SOL     OW43117  13.604  13.825  14.316
80407SOL    HW143118  13.585  13.919  14.317
80407SOL    HW243119  13.544  13.788  14.380
80408SOL     OW43120   2.713   4.350   2.267
80408SOL    HW143121   2.659   4.301   2.329
80408SOL    HW243122   2.666   4.433   2.255
80409SOL     OW43123  10.637   7.155   0.279
80409SOL    HW143124  10.684   7.199   0.208
80409SOL    HW243125  10.545   7.167   0.258
80410SOL     OW43126   6.550   7.695  11.976
80410SOL    HW143127   6.586   7.703  12.064
80410SOL    HW243128   6.455   7.689  11.988
80411SOL     OW43129  10.844   4.410  11.945
80411SOL    HW143130  10.929   4.422  11.989
80411SOL    HW243131  10.800   4.343  11.998
80412SOL     OW43132   4.397  10.203   8.814
80412SOL    HW143133   4.463  10.272   8.804
80412SOL    HW243134   4.325  10.244   8.862
80413SOL     OW43135   4.439   7.929   4.461
80413SOL    HW143136   4.474   7.902   4.375
80413SOL    HW243137   4.356   7.972   4.440
80414SOL     OW43138   0.778  14.199  12.406
80414SOL    HW143139   0.822  14.274  12.447
80414SOL    HW243140   0.849  14.139  12.383
80415SOL     OW43141   5.544  11.298   3.537
80415SOL    HW143142   5.496  11.297   3.619
80415SOL    HW243143   5.565  11.391   3.522
80416SOL     OW43144   7.444  10.467   0.713
80416SOL    HW143145   7.386  10.447   0.786
80416SOL    HW243146   7.527  10.491   0.755
80417SOL     OW43147   8.803   0.062   7.877
80417SOL    HW143148   8.887   0.046   7.833
80417SOL    HW243149   8.798   0.157   7.887
80418SOL     OW43150   4.479   6.036   6.904
80418SOL    HW143151   4.464   6.101   6.836
80418SOL    HW243152   4.424   5.962   6.879
80419SOL     OW43153   1.069   5.538  12.361
80419SOL    HW143154   1.136   5.585  12.310
80419SOL    HW243155   1.118   5.478  12.417
80420SOL     OW43156  12.301   9.021  14.505
80420SOL    HW143157  12.224   9.061  14.546
80420SOL    HW243158  12.317   9.073  14.426
80421SOL     OW43159   1.739  10.756  12.579
80421SOL    HW143160   1.680  10.767  12.654
80421SOL    HW243161   1.716  10.829  12.520
80422SOL     OW43162  12.670   2.755  10.448
80422SOL    HW143163  12.717   2.835  10.472
80422SOL    HW243164  12.736   2.686  10.450
80423SOL     OW43165  12.991  13.742  12.319
80423SOL    HW143166  12.962  13.769  12.232
80423SOL    HW243167  13.054  13.672  12.303
80424SOL     OW43168   7.200  14.684   6.987
80424SOL    HW143169   7.254  14.750   7.030
80424SOL    HW243170   7.252  14.654   6.913
80425SOL     OW43171   8.133  14.102  12.166
80425SOL    HW143172   8.113  14.175  12.108
80425SOL    HW243173   8.129  14.025  12.109
80426SOL     OW43174  11.851   8.253   6.611
80426SOL    HW143175  11.816   8.336   6.643
80426SOL    HW243176  11.788   8.188   6.641
80427SOL     OW43177  11.127   7.145  12.006
80427SOL    HW143178  11.113   7.112  12.094
80427SOL    HW243179  11.081   7.084  11.949
80428SOL     OW43180   0.607   4.919   2.888
80428SOL    HW143181   0.623   4.876   2.972
80428SOL    HW243182   0.694   4.925   2.847
80429SOL     OW43183   0.492   0.684   5.278
80429SOL    HW143184   0.442   0.728   5.348
80429SOL    HW243185   0.541   0.755   5.236
80430SOL     OW43186  10.622  11.986   1.258
80430SOL    HW143187  10.686  11.922   1.289
80430SOL    HW243188  10.547  11.933   1.230
80431SOL     OW43189   2.632   0.662   3.024
80431SOL    HW143190   2.677   0.674   2.940
80431SOL    HW243191   2.663   0.577   3.056
80432SOL     OW43192   6.726  13.575  11.310
80432SOL    HW143193   6.685  13.611  11.389
80432SOL    HW243194   6.799  13.522  11.343
80433SOL     OW43195   5.634  10.512   8.450
80433SOL    HW143196   5.656  10.604   8.437
80433SOL    HW243197   5.540  10.507   8.432
80434SOL     OW43198  13.119   8.799   3.454
80434SOL    HW143199  13.078   8.868   3.505
80434SOL    HW243200  13.047   8.741   3.430
80435SOL     OW43201   5.528   7.106   6.733
80435SOL    HW143202   5.475   7.165   6.787
80435SOL    HW243203   5.608   7.155   6.715
80436SOL     OW43204   6.075   5.394   3.317
80436SOL    HW143205   6.066   5.427   3.407
80436SOL    HW243206   6.000   5.336   3.305
80437SOL     OW43207   6.368   4.726   0.314
80437SOL    HW143208   6.404   4.815   0.322
80437SOL    HW243209   6.298   4.735   0.249
80438SOL     OW43210   5.585   4.339   4.450
80438SOL    HW143211   5.561   4.254   4.414
80438SOL    HW243212   5.529   4.349   4.528
80439SOL     OW43213   4.720   7.461   0.778
80439SOL    HW143214   4.796   7.502   0.819
80439SOL    HW243215   4.650   7.470   0.842
80440SOL     OW43216  12.519  11.841  13.121
80440SOL    HW143217  12.453  11.780  13.087
80440SOL    HW243218  12.539  11.898  13.046
80441SOL     OW43219   1.655  12.109  10.705
80441SOL    HW143220   1.688  12.066  10.784
80441SOL    HW243221   1.586  12.167  10.736
80442SOL     OW43222   4.757   7.149   0.918
80442SOL    HW143223   4.846   7.171   0.946
80442SOL    HW243224   4.713   7.234   0.909
80443SOL     OW43225  12.264  13.944  14.706
80443SOL    HW143226  12.195  13.920  14.768
80443SOL    HW243227  12.317  13.865  14.698
80444SOL     OW43228   4.553  14.118   7.666
80444SOL    HW143229   4.625  14.180   7.652
80444SOL    HW243230   4.504  14.154   7.740
80445SOL     OW43231   0.090   0.230   9.410
80445SOL    HW143232   0.172   0.183   9.393
80445SOL    HW243233   0.022   0.175   9.373
80446SOL     OW43234   0.466  12.439   1.174
80446SOL    HW143235   0.504  12.407   1.256
80446SOL    HW243236   0.494  12.530   1.168
80447SOL     OW43237   0.864   1.448   4.819
80447SOL    HW143238   0.892   1.514   4.883
80447SOL    HW243239   0.938   1.389   4.811
80448SOL     OW43240  14.848  12.721   9.460
80448SOL    HW143241   0.054  12.731   9.442
80448SOL    HW243242  14.814  12.810   9.464
80449SOL     OW43243   6.969   7.471   9.167
80449SOL    HW143244   6.932   7.389   9.136
80449SOL    HW243245   7.050   7.445   9.211
80450SOL     OW43246   4.071   1.131   7.267
80450SOL    HW143247   4.016   1.208   7.283
80450SOL    HW243248   4.161   1.162   7.277
80451SOL     OW43249   1.264   0.901  14.468
80451SOL    HW143250   1.258   0.925  14.561
80451SOL    HW243251   1.282   0.807  14.469
80452SOL     OW43252   3.888  14.632   6.874
80452SOL    HW143253   3.959  14.635   6.938
80452SOL    HW243254   3.871  14.724   6.853
80453SOL     OW43255   5.575  10.423  13.231
80453SOL    HW143256   5.599  10.514  13.251
80453SOL    HW243257   5.553  10.386  13.317
80454SOL     OW43258  10.623   0.979   3.287
80454SOL    HW143259  10.578   0.988   3.203
80454SOL    HW243260  10.693   1.045   3.284
80455SOL     OW43261   2.454  12.278   7.847
80455SOL    HW143262   2.548  12.289   7.835
80455SOL    HW243263   2.414  12.346   7.792
80456SOL     OW43264  12.751   9.096   8.064
80456SOL    HW143265  12.806   9.059   7.996
80456SOL    HW243266  12.796   9.176   8.091
80457SOL     OW43267   3.825   5.101   7.884
80457SOL    HW143268   3.784   5.130   7.965
80457SOL    HW243269   3.801   5.008   7.877
80458SOL     OW43270   6.887   0.736  11.263
80458SOL    HW143271   6.809   0.699  11.221
80458SOL    HW243272   6.919   0.801  11.201
80459SOL     OW43273   3.035  11.039   2.075
80459SOL    HW143274   3.031  11.008   1.984
80459SOL    HW243275   3.109  10.991   2.113
80460SOL     OW43276   1.965  10.146   6.701
80460SOL    HW143277   1.993  10.076   6.760
80460SOL    HW243278   1.969  10.226   6.754
80461SOL     OW43279   6.941   9.079  13.822
80461SOL    HW143280   6.923   8.985  13.828
80461SOL    HW243281   6.865   9.121  13.860
80462SOL     OW43282  13.254  12.765   2.094
80462SOL    HW143283  13.193  12.826   2.053
80462SOL    HW243284  13.229  12.680   2.059
80463SOL     OW43285  10.961   7.686   8.544
80463SOL    HW143286  10.938   7.680   8.637
80463SOL    HW243287  11.051   7.653   8.539
80464SOL     OW43288   8.786  12.532   5.333
80464SOL    HW143289   8.872  12.491   5.331
80464SOL    HW243290   8.752  12.513   5.420
80465SOL     OW43291   3.807   4.033   6.839
80465SOL    HW143292   3.735   4.058   6.782
80465SOL    HW243293   3.874   3.998   6.781
80466SOL     OW43294   0.291   8.368  13.962
80466SOL    HW143295   0.242   8.289  13.937
80466SOL    HW243296   0.230   8.440  13.945
80467SOL     OW43297   6.079   0.269  10.399
80467SOL    HW143298   6.011   0.204  10.415
80467SOL    HW243299   6.032   0.343  10.360
80468SOL     OW43300  14.075   0.316  10.974
80468SOL    HW143301  14.069   0.267  10.892
80468SOL    HW243302  13.993   0.297  11.020
80469SOL     OW43303  13.640   4.870   6.199
80469SOL    HW143304  13.570   4.883   6.135
80469SOL    HW243305  13.698   4.806   6.159
80470SOL     OW43306   1.469   7.360   7.014
80470SOL    HW143307   1.445   7.274   7.051
80470SOL    HW243308   1.423   7.363   6.931
80471SOL     OW43309   9.970  10.010   9.564
80471SOL    HW143310   9.920  10.044   9.491
80471SOL    HW243311  10.012  10.088   9.603
80472SOL     OW43312   8.835   8.681   6.621
80472SOL    HW143313   8.845   8.643   6.534
80472SOL    HW243314   8.886   8.624   6.678
80473SOL     OW43315  12.793  13.392   4.964
80473SOL    HW143316  12.878  13.424   4.935
80473SOL    HW243317  12.745  13.374   4.884
80474SOL     OW43318  10.369   4.717   0.707
80474SOL    HW143319  10.280   4.753   0.705
80474SOL    HW243320  10.370   4.650   0.638
80475SOL     OW43321   9.593   6.716   9.573
80475SOL    HW143322   9.611   6.622   9.567
80475SOL    HW243323   9.506   6.721   9.613
80476SOL     OW43324  12.985   9.183  14.150
80476SOL    HW143325  12.982   9.226  14.235
80476SOL    HW243326  13.059   9.122  14.156
80477SOL     OW43327   4.742   0.435   6.262
80477SOL    HW143328   4.816   0.421   6.203
80477SOL    HW243329   4.700   0.515   6.230
80478SOL     OW43330   8.472  10.209   8.493
80478SOL    HW143331   8.429  10.132   8.530
80478SOL    HW243332   8.405  10.250   8.439
80479SOL     OW43333   5.098  11.049   0.848
80479SOL    HW143334   5.065  11.111   0.914
80479SOL    HW243335   5.112  10.968   0.897
80480SOL     OW43336   1.906   4.468  11.582
80480SOL    HW143337   1.831   4.484  11.524
80480SOL    HW243338   1.968   4.538  11.561
80481SOL     OW43339   8.549  13.151   4.924
80481SOL    HW143340   8.553  13.095   4.846
80481SOL    HW243341   8.494  13.103   4.985
80482SOL     OW43342  12.507   4.519   6.449
80482SOL    HW143343  12.477   4.430   6.468
80482SOL    HW243344  12.582   4.532   6.506
80483SOL     OW43345   1.627   6.750  11.623
80483SOL    HW143346   1.580   6.824  11.584
80483SOL    HW243347   1.676   6.789  11.696
80484SOL     OW43348   6.991   9.226   3.448
80484SOL    HW143349   7.046   9.263   3.379
80484SOL    HW243350   6.943   9.155   3.405
80485SOL     OW43351   9.774   3.721   6.473
80485SOL    HW143352   9.705   3.744   6.536
80485SOL    HW243353   9.752   3.771   6.394
80486SOL     OW43354   5.297   1.900  10.411
80486SOL    HW143355   5.356   1.852  10.470
80486SOL    HW243356   5.356   1.951  10.356
80487SOL     OW43357   4.490   0.524   3.962
80487SOL    HW143358   4.540   0.605   3.973
80487SOL    HW243359   4.430   0.522   4.036
80488SOL     OW43360  13.699   8.330   1.200
80488SOL    HW143361  13.778   8.277   1.204
80488SOL    HW243362  13.693   8.357   1.109
80489SOL     OW43363   9.216   1.338  12.470
80489SOL    HW143364   9.179   1.418  12.431
80489SOL    HW243365   9.258   1.368  12.550
80490SOL     OW43366   9.143   5.932  14.505
80490SOL    HW143367   9.072   5.871  14.484
80490SOL    HW243368   9.175   5.961  14.420
80491SOL     OW43369   3.736  14.440   7.690
80491SOL    HW143370   3.702  14.492   7.763
80491SOL    HW243371   3.674  14.369   7.680
80492SOL     OW43372   7.611  14.662   6.308
80492SOL    HW143373   7.580  14.597   6.371
80492SOL    HW243374   7.655  14.728   6.361
80493SOL     OW43375  13.112  13.240  10.062
80493SOL    HW143376  13.182  13.183  10.093
80493SOL    HW243377  13.155  13.322  10.039
80494SOL     OW43378   5.881  10.817   0.343
80494SOL    HW143379   5.954  10.757   0.353
80494SOL    HW243380   5.844  10.796   0.257
80495SOL     OW43381  13.163   7.360   1.508
80495SOL    HW143382  13.196   7.300   1.575
80495SOL    HW243383  13.238   7.375   1.450
80496SOL     OW43384   6.555   8.546   4.954
80496SOL    HW143385   6.572   8.558   4.861
80496SOL    HW243386   6.632   8.501   4.988
80497SOL     OW43387  12.536   1.049   8.735
80497SOL    HW143388  12.482   0.998   8.674
80497SOL    HW243389  12.596   0.985   8.773
80498SOL     OW43390   9.119   0.659   5.258
80498SOL    HW143391   9.208   0.675   5.226
80498SOL    HW243392   9.066   0.728   5.218
80499SOL     OW43393   0.008   5.178   7.256
80499SOL    HW143394  14.862   5.211   7.340
80499SOL    HW243395   0.032   5.087   7.274
80500SOL     OW43396  12.413  11.123   2.063
80500SOL    HW143397  12.492  11.126   2.009
80500SOL    HW243398  12.380  11.034   2.051
80501SOL     OW43399   5.433   3.645   3.711
80501SOL    HW143400   5.484   3.680   3.637
80501SOL    HW243401   5.495   3.641   3.783
80502SOL     OW43402  14.530   6.116  11.960
80502SOL    HW143403  14.532   6.033  12.009
80502SOL    HW243404  14.522   6.183  12.028
80503SOL     OW43405   8.803   1.179   9.566
80503SOL    HW143406   8.864   1.144   9.632
80503SOL    HW243407   8.716   1.159   9.601
80504SOL     OW43408   5.646  10.015   5.642
80504SOL    HW143409   5.662   9.995   5.734
80504SOL    HW243410   5.552  10.006   5.631
80505SOL     OW43411  10.044   9.481   7.183
80505SOL    HW143412  10.052   9.447   7.271
80505SOL    HW243413  10.134   9.483   7.150
80506SOL     OW43414   4.879   2.436   4.458
80506SOL    HW143415   4.841   2.520   4.483
80506SOL    HW243416   4.974   2.449   4.467
80507SOL     OW43417   8.223   5.803   7.189
80507SOL    HW143418   8.178   5.785   7.271
80507SOL    HW243419   8.238   5.717   7.150
80508SOL     OW43420   5.176   0.106  13.028
80508SOL    HW143421   5.094   0.153  13.016
80508SOL    HW243422   5.218   0.149  13.103
80509SOL     OW43423  12.797   0.363   2.945
80509SOL    HW143424  12.715   0.389   2.987
80509SOL    HW243425  12.834   0.297   3.003
80510SOL     OW43426   6.074  13.615   8.945
80510SOL    HW143427   6.000  13.592   8.888
80510SOL    HW243428   6.142  13.645   8.885
80511SOL     OW43429   1.607  13.771  11.987
80511SOL    HW143430   1.529  13.823  11.969
80511SOL    HW243431   1.600  13.748  12.079
80512SOL     OW43432  10.729  11.872  11.726
80512SOL    HW143433  10.639  11.839  11.734
80512SOL    HW243434  10.722  11.949  11.669
80513SOL     OW43435  12.661   0.826  10.262
80513SOL    HW143436  12.673   0.755  10.325
80513SOL    HW243437  12.604   0.888  10.308
80514SOL     OW43438   4.317   7.646  10.405
80514SOL    HW143439   4.322   7.721  10.345
80514SOL    HW243440   4.379   7.583  10.370
80515SOL     OW43441   4.835   9.242   8.675
80515SOL    HW143442   4.796   9.304   8.614
80515SOL    HW243443   4.847   9.291   8.756
80516SOL     OW43444   6.082  14.590   3.260
80516SOL    HW143445   5.986  14.597   3.257
80516SOL    HW243446   6.107  14.648   3.332
80517SOL     OW43447   5.415   7.509   1.740
80517SOL    HW143448   5.454   7.516   1.827
80517SOL    HW243449   5.327   7.546   1.750
80518SOL     OW43450  10.766   5.184  10.898
80518SOL    HW143451  10.676   5.158  10.876
80518SOL    HW243452  10.755   5.251  10.965
80519SOL     OW43453   1.802  12.145   1.268
80519SOL    HW143454   1.845  12.198   1.335
80519SOL    HW243455   1.851  12.063   1.266
80520SOL     OW43456   4.599   2.523   5.040
80520SOL    HW143457   4.684   2.480   5.053
80520SOL    HW243458   4.544   2.456   5.000
80521SOL     OW43459  14.518  13.820   7.662
80521SOL    HW143460  14.502  13.729   7.688
80521SOL    HW243461  14.432  13.862   7.669
80522SOL     OW43462   0.545   5.526   7.304
80522SOL    HW143463   0.631   5.527   7.262
80522SOL    HW243464   0.563   5.533   7.397
80523SOL     OW43465   0.835   6.533   3.334
80523SOL    HW143466   0.752   6.522   3.288
80523SOL    HW243467   0.901   6.541   3.265
80524SOL     OW43468  10.594  12.476   6.374
80524SOL    HW143469  10.652  12.547   6.346
80524SOL    HW243470  10.550  12.509   6.452
80525SOL     OW43471   1.874   3.635   7.698
80525SOL    HW143472   1.826   3.684   7.765
80525SOL    HW243473   1.947   3.693   7.674
80526SOL     OW43474  12.188   4.264  10.655
80526SOL    HW143475  12.133   4.341  10.647
80526SOL    HW243476  12.231   4.255  10.570
80527SOL     OW43477   2.029   0.637   2.412
80527SOL    HW143478   1.935   0.629   2.427
80527SOL    HW243479   2.053   0.721   2.453
80528SOL     OW43480   5.976  11.036  10.411
80528SOL    HW143481   5.987  10.952  10.455
80528SOL    HW243482   6.061  11.055  10.373
80529SOL     OW43483   3.513  11.267  10.251
80529SOL    HW143484   3.423  11.288  10.276
80529SOL    HW243485   3.552  11.230  10.330
80530SOL     OW43486  12.793   4.200   9.031
80530SOL    HW143487  12.703   4.180   9.007
80530SOL    HW243488  12.833   4.231   8.949
80531SOL     OW43489   2.155   5.529  13.605
80531SOL    HW143490   2.215   5.490  13.541
80531SOL    HW243491   2.196   5.612  13.630
80532SOL     OW43492   7.253  10.300   4.489
80532SOL    HW143493   7.291  10.375   4.534
80532SOL    HW243494   7.165  10.329   4.464
80533SOL     OW43495   2.186   6.437  10.105
80533SOL    HW143496   2.253   6.492  10.145
80533SOL    HW243497   2.212   6.348  10.128
80534SOL     OW43498  13.248   3.923   0.749
80534SOL    HW143499  13.314   3.984   0.716
80534SOL    HW243500  13.165   3.956   0.715
80535SOL     OW43501  14.129  12.504  10.736
80535SOL    HW143502  14.074  12.485  10.812
80535SOL    HW243503  14.172  12.421  10.716
80536SOL     OW43504   5.181   2.116   6.299
80536SOL    HW143505   5.109   2.178   6.293
80536SOL    HW243506   5.155   2.043   6.243
80537SOL     OW43507   9.789   5.975  13.399
80537SOL    HW143508   9.851   5.902  13.400
80537SOL    HW243509   9.833   6.043  13.348
80538SOL     OW43510  10.157  11.340  11.250
80538SOL    HW143511  10.209  11.332  11.330
80538SOL    HW243512  10.076  11.294  11.270
80539SOL     OW43513   2.800   5.106   5.190
80539SOL    HW143514   2.874   5.166   5.183
80539SOL    HW243515   2.777   5.107   5.283
80540SOL     OW43516   5.442   2.417   9.071
80540SOL    HW143517   5.517   2.476   9.064
80540SOL    HW243518   5.373   2.458   9.018
80541SOL     OW43519   3.694   0.737  11.557
80541SOL    HW143520   3.637   0.810  11.533
80541SOL    HW243521   3.769   0.745  11.499
80542SOL     OW43522   8.406  12.154  11.632
80542SOL    HW143523   8.322  12.191  11.658
80542SOL    HW243524   8.429  12.200  11.551
80543SOL     OW43525  11.383   8.273   0.906
80543SOL    HW143526  11.410   8.304   0.992
80543SOL    HW243527  11.458   8.223   0.874
80544SOL     OW43528  13.820  13.222   0.399
80544SOL    HW143529  13.739  13.248   0.355
80544SOL    HW243530  13.888  13.228   0.331
80545SOL     OW43531   4.844   1.305  14.252
80545SOL    HW143532   4.770   1.346  14.206
80545SOL    HW243533   4.919   1.361  14.232
80546SOL     OW43534   1.224   6.260   4.876
80546SOL    HW143535   1.262   6.331   4.825
80546SOL    HW243536   1.141   6.240   4.833
80547SOL     OW43537   2.116   2.149   0.561
80547SOL    HW143538   2.181   2.218   0.573
80547SOL    HW243539   2.165   2.075   0.524
80548SOL     OW43540   0.587  12.573   9.259
80548SOL    HW143541   0.546  12.653   9.227
80548SOL    HW243542   0.558  12.505   9.198
80549SOL     OW43543  13.278  14.691  13.032
80549SOL    HW143544  13.197  14.709  13.080
80549SOL    HW243545  13.290  14.597  13.041
80550SOL     OW43546  11.854  11.370   9.852
80550SOL    HW143547  11.774  11.423   9.859
80550SOL    HW243548  11.918  11.416   9.907
80551SOL     OW43549  13.987   5.436  10.213
80551SOL    HW143550  14.001   5.451  10.306
80551SOL    HW243551  13.956   5.346  10.207
80552SOL     OW43552  10.581   0.734  10.606
80552SOL    HW143553  10.508   0.796  10.614
80552SOL    HW243554  10.601   0.733  10.512
80553SOL     OW43555  11.463  11.019   6.591
80553SOL    HW143556  11.477  10.981   6.504
80553SOL    HW243557  11.548  11.052   6.617
80554SOL     OW43558   8.151   3.594   5.999
80554SOL    HW143559   8.227   3.600   6.058
80554SOL    HW243560   8.101   3.673   6.017
80555SOL     OW43561  10.695   1.692  14.616
80555SOL    HW143562  10.723   1.616  14.667
80555SOL    HW243563  10.773   1.717  14.566
80556SOL     OW43564   5.037   3.471  14.355
80556SOL    HW143565   5.052   3.379  14.377
80556SOL    HW243566   4.983   3.468  14.276
80557SOL     OW43567  13.914   1.891   8.962
80557SOL    HW143568  13.952   1.829   8.900
80557SOL    HW243569  13.919   1.846   9.047
80558SOL     OW43570  10.495   3.872  11.872
80558SOL    HW143571  10.474   3.824  11.792
80558SOL    HW243572  10.583   3.841  11.896
80559SOL     OW43573  11.561   5.731  12.750
80559SOL    HW143574  11.541   5.709  12.659
80559SOL    HW243575  11.615   5.810  12.744
80560SOL     OW43576   8.075   0.357   6.353
80560SOL    HW143577   8.041   0.303   6.424
80560SOL    HW243578   8.121   0.296   6.295
80561SOL     OW43579  11.861   1.182   2.539
80561SOL    HW143580  11.819   1.131   2.608
80561SOL    HW243581  11.792   1.199   2.476
80562SOL     OW43582   9.458  12.518   7.538
80562SOL    HW143583   9.442  12.445   7.597
80562SOL    HW243584   9.549  12.506   7.510
80563SOL     OW43585   0.373   0.587  12.663
80563SOL    HW143586   0.329   0.505  12.642
80563SOL    HW243587   0.311   0.635  12.718
80564SOL     OW43588   9.591  12.808  11.319
80564SOL    HW143589   9.496  12.810  11.333
80564SOL    HW243590   9.601  12.776  11.230
80565SOL     OW43591  14.579  13.860   0.822
80565SOL    HW143592  14.503  13.816   0.784
80565SOL    HW243593  14.576  13.836   0.915
80566SOL     OW43594   9.481   7.650   3.259
80566SOL    HW143595   9.502   7.603   3.339
80566SOL    HW243596   9.387   7.639   3.248
80567SOL     OW43597   1.321   0.875   3.036
80567SOL    HW143598   1.290   0.931   3.108
80567SOL    HW243599   1.365   0.935   2.976
80568SOL     OW43600   4.857   0.065  10.476
80568SOL    HW143601   4.850   0.042  10.568
80568SOL    HW243602   4.871   0.159  10.475
80569SOL     OW43603   3.358   3.660  11.531
80569SOL    HW143604   3.348   3.566  11.545
80569SOL    HW243605   3.312   3.678  11.449
80570SOL     OW43606   4.687  12.915  12.755
80570SOL    HW143607   4.724  13.003  12.744
80570SOL    HW243608   4.608  12.916  12.701
80571SOL     OW43609   1.178  12.776   8.569
80571SOL    HW143610   1.150  12.720   8.497
80571SOL    HW243611   1.157  12.726   8.648
80572SOL     OW43612  13.192  13.590   7.685
80572SOL    HW143613  13.243  13.665   7.716
80572SOL    HW243614  13.101  13.619   7.690
80573SOL     OW43615   0.750   2.215   9.937
80573SOL    HW143616   0.655   2.228   9.937
80573SOL    HW243617   0.769   2.177  10.023
80574SOL     OW43618  14.771  13.028   2.519
80574SOL    HW143619  14.820  12.955   2.482
80574SOL    HW243620  14.716  12.989   2.586
80575SOL     OW43621  11.845  12.547  10.847
80575SOL    HW143622  11.824  12.473  10.790
80575SOL    HW243623  11.785  12.616  10.818
80576SOL     OW43624  13.356   8.861   3.678
80576SOL    HW143625  13.294   8.862   3.605
80576SOL    HW243626  13.324   8.793   3.736
80577SOL     OW43627  12.289   2.865   3.886
80577SOL    HW143628  12.314   2.929   3.953
80577SOL    HW243629  12.273   2.918   3.808
80578SOL     OW43630  11.116   2.258  12.041
80578SOL    HW143631  11.135   2.300  12.125
80578SOL    HW243632  11.200   2.221  12.014
80579SOL     OW43633   8.901  11.617   0.558
80579SOL    HW143634   8.929  11.615   0.467
80579SOL    HW243635   8.983  11.612   0.608
80580SOL     OW43636   0.457  13.847  10.440
80580SOL    HW143637   0.463  13.839  10.345
80580SOL    HW243638   0.491  13.763  10.473
80581SOL     OW43639   0.594   2.510  11.971
80581SOL    HW143640   0.655   2.579  11.996
80581SOL    HW243641   0.600   2.505  11.875
80582SOL     OW43642   6.386  11.030  13.111
80582SOL    HW143643   6.340  11.062  13.189
80582SOL    HW243644   6.466  11.082  13.107
80583SOL     OW43645  11.393   9.376   8.185
80583SOL    HW143646  11.356   9.305   8.237
80583SOL    HW243647  11.463   9.335   8.135
80584SOL     OW43648   9.605   6.548  10.040
80584SOL    HW143649   9.613   6.620   9.977
80584SOL    HW243650   9.589   6.471   9.985
80585SOL     OW43651  12.531   0.714  10.704
80585SOL    HW143652  12.477   0.747  10.776
80585SOL    HW243653  12.483   0.639  10.670
80586SOL     OW43654  11.823   1.187   9.085
80586SOL    HW143655  11.749   1.217   9.137
80586SOL    HW243656  11.844   1.261   9.029
80587SOL     OW43657   5.934   9.443   0.003
80587SOL    HW143658   5.956   9.371  14.832
80587SOL    HW243659   6.009   9.451   0.062
80588SOL     OW43660   6.882  14.110   2.884
80588SOL    HW143661   6.852  14.170   2.953
80588SOL    HW243662   6.944  14.053   2.928
80589SOL     OW43663   3.946   8.587  11.421
80589SOL    HW143664   4.011   8.519  11.406
80589SOL    HW243665   3.987   8.647  11.483
80590SOL     OW43666  13.601  12.832  13.567
80590SOL    HW143667  13.522  12.804  13.614
80590SOL    HW243668  13.662  12.759  13.579
80591SOL     OW43669   6.677  10.753   6.599
80591SOL    HW143670   6.683  10.702   6.679
80591SOL    HW243671   6.751  10.724   6.546
80592SOL     OW43672   0.634  14.632   7.577
80592SOL    HW143673   0.608  14.540   7.568
80592SOL    HW243674   0.703  14.631   7.643
80593SOL     OW43675  12.608  14.809  13.658
80593SOL    HW143676  12.581  14.729  13.614
80593SOL    HW243677  12.540  14.873  13.637
80594SOL     OW43678  10.148   9.191   7.182
80594SOL    HW143679  10.116   9.126   7.120
80594SOL    HW243680  10.238   9.163   7.201
80595SOL     OW43681   6.464  12.758   2.708
80595SOL    HW143682   6.549  12.798   2.690
80595SOL    HW243683   6.480  12.695   2.778
80596SOL     OW43684   3.292   9.062   6.717
80596SOL    HW143685   3.245   9.091   6.795
80596SOL    HW243686   3.245   8.985   6.687
80597SOL     OW43687   8.547   5.021  12.663
80597SOL    HW143688   8.621   5.035  12.721
80597SOL    HW243689   8.526   4.928  12.672
80598SOL     OW43690   6.040   7.350   4.516
80598SOL    HW143691   6.099   7.317   4.447
80598SOL    HW243692   6.077   7.435   4.540
80599SOL     OW43693  14.877   9.490   7.308
80599SOL    HW143694   0.006   9.409   7.259
80599SOL    HW243695  14.858   9.556   7.241
80600SOL     OW43696   7.657  11.547   9.845
80600SOL    HW143697   7.679  11.530   9.754
80600SOL    HW243698   7.605  11.628   9.843
80601SOL     OW43699   4.203  10.772   7.209
80601SOL    HW143700   4.268  10.737   7.149
80601SOL    HW243701   4.135  10.809   7.153
80602SOL     OW43702   1.384   4.767  11.343
80602SOL    HW143703   1.350   4.782  11.255
80602SOL    HW243704   1.306   4.748  11.396
80603SOL     OW43705  10.167  14.395   7.484
80603SOL    HW143706  10.135  14.306   7.469
80603SOL    HW243707  10.087  14.446   7.501
80604SOL     OW43708   6.063  13.709  11.230
80604SOL    HW143709   6.078  13.803  11.244
80604SOL    HW243710   6.043  13.702  11.137
80605SOL     OW43711  12.169   9.809   0.665
80605SOL    HW143712  12.201   9.898   0.650
80605SOL    HW243713  12.177   9.797   0.759
80606SOL     OW43714   4.214  11.586   8.282
80606SOL    HW143715   4.270  11.523   8.328
80606SOL    HW243716   4.276  11.647   8.241
80607SOL     OW43717  13.321   4.109   9.379
80607SOL    HW143718  13.342   4.080   9.468
80607SOL    HW243719  13.312   4.204   9.387
80608SOL     OW43720   3.403  10.131   0.855
80608SOL    HW143721   3.483  10.097   0.895
80608SOL    HW243722   3.405  10.097   0.765
80609SOL     OW43723  10.785  11.081   2.679
80609SOL    HW143724  10.823  11.168   2.690
80609SOL    HW243725  10.800  11.059   2.587
80610SOL     OW43726   6.499   5.242  12.823
80610SOL    HW143727   6.513   5.205  12.736
80610SOL    HW243728   6.420   5.294  12.814
80611SOL     OW43729   4.215  11.137   1.048
80611SOL    HW143730   4.172  11.073   1.106
80611SOL    HW243731   4.191  11.108   0.960
80612SOL     OW43732   6.359  11.209   4.597
80612SOL    HW143733   6.329  11.290   4.636
80612SOL    HW243734   6.305  11.198   4.519
80613SOL     OW43735  12.472   7.777   0.044
80613SOL    HW143736  12.490   7.702   0.101
80613SOL    HW243737  12.468   7.851   0.104
80614SOL     OW43738   9.496   7.423  12.382
80614SOL    HW143739   9.503   7.518  12.397
80614SOL    HW243740   9.404   7.403  12.397
80615SOL     OW43741   4.968  11.306  10.410
80615SOL    HW143742   4.899  11.321  10.346
80615SOL    HW243743   4.982  11.211  10.409
80616SOL     OW43744   8.987   4.430   6.903
80616SOL    HW143745   8.899   4.415   6.940
80616SOL    HW243746   8.985   4.521   6.873
80617SOL     OW43747   7.590   8.295   0.519
80617SOL    HW143748   7.529   8.296   0.593
80617SOL    HW243749   7.657   8.359   0.544
80618SOL     OW43750   2.164   6.982   8.919
80618SOL    HW143751   2.175   7.053   8.982
80618SOL    HW243752   2.070   6.963   8.921
80619SOL     OW43753   6.410   5.733   2.597
80619SOL    HW143754   6.340   5.724   2.660
80619SOL    HW243755   6.474   5.667   2.622
80620SOL     OW43756   3.337   6.630   9.671
80620SOL    HW143757   3.243   6.619   9.655
80620SOL    HW243758   3.373   6.542   9.664
80621SOL     OW43759  11.995   7.947   1.115
80621SOL    HW143760  12.027   7.953   1.025
80621SOL    HW243761  12.073   7.958   1.169
80622SOL     OW43762  14.785   8.911   4.929
80622SOL    HW143763  14.745   8.826   4.909
80622SOL    HW243764  14.728   8.974   4.885
80623SOL     OW43765  12.346   9.918   7.184
80623SOL    HW143766  12.418   9.887   7.129
80623SOL    HW243767  12.333   9.848   7.248
80624SOL     OW43768  12.103  12.052   8.977
80624SOL    HW143769  12.031  12.112   8.956
80624SOL    HW243770  12.069  11.997   9.047
80625SOL     OW43771  11.477   8.907  11.278
80625SOL    HW143772  11.556   8.961  11.282
80625SOL    HW243773  11.509   8.817  11.281
80626SOL     OW43774   9.866   0.264  11.739
80626SOL    HW143775   9.819   0.229  11.815
80626SOL    HW243776   9.863   0.359  11.751
80627SOL     OW43777  14.282   6.880   1.712
80627SOL    HW143778  14.363   6.930   1.718
80627SOL    HW243779  14.259   6.861   1.803
80628SOL     OW43780   6.904   9.224  12.248
80628SOL    HW143781   6.917   9.319  12.256
80628SOL    HW243782   6.984   9.192  12.207
80629SOL     OW43783   5.104   2.791   2.872
80629SOL    HW143784   5.058   2.816   2.792
80629SOL    HW243785   5.171   2.729   2.843
80630SOL     OW43786   9.099   7.136  13.824
80630SOL    HW143787   9.119   7.207  13.885
80630SOL    HW243788   9.038   7.174  13.762
80631SOL     OW43789   8.365   7.477   7.813
80631SOL    HW143790   8.443   7.521   7.847
80631SOL    HW243791   8.395   7.389   7.790
80632SOL     OW43792   1.185   6.268  11.563
80632SOL    HW143793   1.251   6.271  11.493
80632SOL    HW243794   1.233   6.292  11.642
80633SOL     OW43795   8.073  10.645  13.487
80633SOL    HW143796   8.081  10.558  13.448
80633SOL    HW243797   8.126  10.702  13.430
80634SOL     OW43798  11.731   9.142   6.794
80634SOL    HW143799  11.646   9.112   6.761
80634SOL    HW243800  11.793   9.074   6.766
80635SOL     OW43801  13.656   3.948   4.473
80635SOL    HW143802  13.644   3.854   4.457
80635SOL    HW243803  13.736   3.954   4.525
80636SOL     OW43804   9.419  11.584  11.999
80636SOL    HW143805   9.352  11.521  11.975
80636SOL    HW243806   9.402  11.604  12.091
80637SOL     OW43807   2.762  11.165   3.938
80637SOL    HW143808   2.762  11.177   3.843
80637SOL    HW243809   2.788  11.074   3.951
80638SOL     OW43810   6.869  13.711   5.790
80638SOL    HW143811   6.860  13.628   5.837
80638SOL    HW243812   6.782  13.751   5.796
80639SOL     OW43813   6.648  13.898   4.937
80639SOL    HW143814   6.679  13.986   4.957
80639SOL    HW243815   6.634  13.898   4.842
80640SOL     OW43816   5.361   8.106   4.480
80640SOL    HW143817   5.412   8.051   4.541
80640SOL    HW243818   5.380   8.070   4.394
80641SOL     OW43819  10.062  11.346   9.433
80641SOL    HW143820  10.099  11.258   9.423
80641SOL    HW243821   9.972  11.331   9.462
80642SOL     OW43822   7.907  13.144   4.368
80642SOL    HW143823   7.883  13.220   4.315
80642SOL    HW243824   8.000  13.155   4.386
80643SOL     OW43825   7.241   7.647  10.065
80643SOL    HW143826   7.265   7.668  10.155
80643SOL    HW243827   7.256   7.553  10.057
80644SOL     OW43828  11.306   6.983   5.441
80644SOL    HW143829  11.336   6.988   5.531
80644SOL    HW243830  11.266   6.896   5.433
80645SOL     OW43831   9.716   9.789   7.051
80645SOL    HW143832   9.809   9.810   7.052
80645SOL    HW243833   9.705   9.733   6.974
80646SOL     OW43834  11.613  14.696   5.982
80646SOL    HW143835  11.622  14.767   6.045
80646SOL    HW243836  11.521  14.697   5.957
80647SOL     OW43837   2.366   1.899   9.447
80647SOL    HW143838   2.436   1.934   9.391
80647SOL    HW243839   2.289   1.949   9.424
80648SOL     OW43840   4.923   8.608   7.672
80648SOL    HW143841   4.913   8.689   7.621
80648SOL    HW243842   4.959   8.545   7.609
80649SOL     OW43843   3.982   2.379   6.723
80649SOL    HW143844   4.072   2.355   6.701
80649SOL    HW243845   3.987   2.472   6.742
80650SOL     OW43846  10.105  12.510   6.369
80650SOL    HW143847  10.082  12.588   6.419
80650SOL    HW243848  10.188  12.533   6.327
80651SOL     OW43849  11.309  11.054   4.770
80651SOL    HW143850  11.310  10.964   4.738
80651SOL    HW243851  11.387  11.062   4.825
80652SOL     OW43852  14.391   1.820  13.568
80652SOL    HW143853  14.405   1.826  13.474
80652SOL    HW243854  14.478   1.805  13.605
80653SOL     OW43855   8.142   3.847   3.721
80653SOL    HW143856   8.070   3.786   3.706
80653SOL    HW243857   8.139   3.907   3.646
80654SOL     OW43858   8.408   1.418  11.279
80654SOL    HW143859   8.484   1.365  11.303
80654SOL    HW243860   8.434   1.463  11.198
80655SOL     OW43861   6.520   5.389   1.506
80655SOL    HW143862   6.610   5.397   1.472
80655SOL    HW243863   6.530   5.398   1.601
80656SOL     OW43864   3.712   8.937  12.033
80656SOL    HW143865   3.669   8.971  11.955
80656SOL    HW243866   3.798   8.908  12.002
80657SOL     OW43867  13.285   7.284   8.770
80657SOL    HW143868  13.272   7.237   8.852
80657SOL    HW243869  13.242   7.229   8.704
80658SOL     OW43870  13.107   3.712   9.507
80658SOL    HW143871  13.072   3.650   9.442
80658SOL    HW243872  13.182   3.752   9.464
80659SOL     OW43873  14.069   8.568   1.625
80659SOL    HW143874  14.016   8.534   1.553
80659SOL    HW243875  14.021   8.542   1.704
80660SOL     OW43876   0.238   3.995  11.348
80660SOL    HW143877   0.270   4.006  11.437
80660SOL    HW243878   0.175   3.923  11.354
80661SOL     OW43879  11.578   6.723  14.594
80661SOL    HW143880  11.520   6.654  14.560
80661SOL    HW243881  11.537   6.750  14.676
80662SOL     OW43882   3.545   3.796  10.272
80662SOL    HW143883   3.549   3.892  10.269
80662SOL    HW243884   3.515   3.776  10.360
80663SOL     OW43885  12.042   7.150   1.297
80663SOL    HW143886  12.072   7.231   1.253
80663SOL    HW243887  12.098   7.082   1.260
80664SOL     OW43888   6.018  13.933   3.707
80664SOL    HW143889   5.936  13.966   3.669
80664SOL    HW243890   6.079  13.931   3.633
80665SOL     OW43891   2.875  14.512   2.403
80665SOL    HW143892   2.810  14.563   2.451
80665SOL    HW243893   2.830  14.430   2.382
80666SOL     OW43894   1.718   9.799   7.224
80666SOL    HW143895   1.777   9.871   7.246
80666SOL    HW243896   1.644   9.810   7.284
80667SOL     OW43897   4.515  11.357   3.027
80667SOL    HW143898   4.493  11.287   3.088
80667SOL    HW243899   4.439  11.363   2.969
80668SOL     OW43900  10.822  13.263   8.198
80668SOL    HW143901  10.753  13.273   8.264
80668SOL    HW243902  10.903  13.281   8.244
80669SOL     OW43903   1.508  11.003   3.167
80669SOL    HW143904   1.482  10.958   3.247
80669SOL    HW243905   1.565  10.942   3.122
80670SOL     OW43906   7.374   8.663   2.993
80670SOL    HW143907   7.393   8.630   3.080
80670SOL    HW243908   7.457   8.701   2.963
80671SOL     OW43909   6.666  11.982   2.678
80671SOL    HW143910   6.649  11.922   2.604
80671SOL    HW243911   6.625  11.939   2.753
80672SOL     OW43912   7.165   4.674  13.076
80672SOL    HW143913   7.091   4.725  13.045
80672SOL    HW243914   7.188   4.617  13.002
80673SOL     OW43915  10.418  13.916  14.245
80673SOL    HW143916  10.409  13.843  14.184
80673SOL    HW243917  10.342  13.971  14.227
80674SOL     OW43918   6.605   9.681  13.264
80674SOL    HW143919   6.634   9.724  13.184
80674SOL    HW243920   6.528   9.730  13.291
80675SOL     OW43921   1.889   0.053  10.468
80675SOL    HW143922   1.813  14.886  10.489
80675SOL    HW243923   1.901   0.042  10.373
80676SOL     OW43924   3.314   4.292   1.887
80676SOL    HW143925   3.263   4.246   1.955
80676SOL    HW243926   3.312   4.384   1.914
80677SOL     OW43927  13.419   2.717   2.062
80677SOL    HW143928  13.426   2.661   2.140
80677SOL    HW243929  13.488   2.781   2.072
80678SOL     OW43930   8.680   9.864  11.728
80678SOL    HW143931   8.659   9.858  11.822
80678SOL    HW243932   8.772   9.888  11.725
80679SOL     OW43933   3.820   9.477  11.155
80679SOL    HW143934   3.844   9.385  11.150
80679SOL    HW243935   3.730   9.477  11.188
80680SOL     OW43936   9.759   6.167   2.754
80680SOL    HW143937   9.782   6.180   2.846
80680SOL    HW243938   9.817   6.227   2.706
80681SOL     OW43939   2.024   6.998  10.523
80681SOL    HW143940   1.943   6.947  10.531
80681SOL    HW243941   2.001   7.074  10.470
80682SOL     OW43942  14.122   2.787   2.988
80682SOL    HW143943  14.120   2.722   3.058
80682SOL    HW243944  14.210   2.825   2.992
80683SOL     OW43945   7.826   8.755   2.275
80683SOL    HW143946   7.873   8.698   2.214
80683SOL    HW243947   7.829   8.708   2.358
80684SOL     OW43948   4.591   3.153   1.597
80684SOL    HW143949   4.597   3.059   1.611
80684SOL    HW243950   4.613   3.166   1.505
80685SOL     OW43951   8.193   2.630   7.896
80685SOL    HW143952   8.231   2.550   7.861
80685SOL    HW243953   8.264   2.671   7.946
80686SOL     OW43954   5.618   8.739   7.276
80686SOL    HW143955   5.608   8.776   7.363
80686SOL    HW243956   5.582   8.805   7.217
80687SOL     OW43957   5.503  10.324  13.011
80687SOL    HW143958   5.424  10.288  13.053
80687SOL    HW243959   5.545  10.375  13.079
80688SOL     OW43960   6.849  12.801   1.378
80688SOL    HW143961   6.882  12.866   1.317
80688SOL    HW243962   6.919  12.735   1.383
80689SOL     OW43963   1.457   4.725   5.626
80689SOL    HW143964   1.401   4.753   5.554
80689SOL    HW243965   1.474   4.633   5.609
80690SOL     OW43966  14.758  11.726   5.008
80690SOL    HW143967  14.749  11.643   5.055
80690SOL    HW243968  14.716  11.710   4.923
80691SOL     OW43969   3.777  11.792   2.890
80691SOL    HW143970   3.826  11.827   2.816
80691SOL    HW243971   3.704  11.744   2.851
80692SOL     OW43972  13.452   3.941  14.410
80692SOL    HW143973  13.488   3.908  14.492
80692SOL    HW243974  13.475   3.875  14.345
80693SOL     OW43975  13.804   0.645   0.429
80693SOL    HW143976  13.897   0.671   0.428
80693SOL    HW243977  13.794   0.595   0.509
80694SOL     OW43978   8.590   5.618  11.620
80694SOL    HW143979   8.662   5.669  11.657
80694SOL    HW243980   8.522   5.620  11.686
80695SOL     OW43981   9.634   8.060   6.846
80695SOL    HW143982   9.560   8.000   6.855
80695SOL    HW243983   9.653   8.087   6.935
80696SOL     OW43984  14.362  10.192  10.294
80696SOL    HW143985  14.352  10.111  10.243
80696SOL    HW243986  14.438  10.235  10.254
80697SOL     OW43987   1.719   1.846  12.584
80697SOL    HW143988   1.812   1.826  12.597
80697SOL    HW243989   1.695   1.899  12.659
80698SOL     OW43990   7.909  14.398   7.814
80698SOL    HW143991   7.929  14.305   7.821
80698SOL    HW243992   7.815  14.401   7.800
80699SOL     OW43993   1.021   4.127  10.401
80699SOL    HW143994   1.059   4.098  10.318
80699SOL    HW243995   0.986   4.214  10.382
80700SOL     OW43996  10.754  12.294  12.482
80700SOL    HW143997  10.816  12.291  12.410
80700SOL    HW243998  10.770  12.214  12.532
80701SOL     OW43999   6.681   3.154   3.358
80701SOL    HW144000   6.739   3.225   3.333
80701SOL    HW244001   6.740   3.083   3.384
80702SOL     OW44002   1.508  11.727  12.547
80702SOL    HW144003   1.483  11.638  12.574
80702SOL    HW244004   1.551  11.714  12.462
80703SOL     OW44005   7.428   1.010   5.741
80703SOL    HW144006   7.422   1.105   5.748
80703SOL    HW244007   7.415   0.992   5.648
80704SOL     OW44008   1.356  11.648   9.913
80704SOL    HW144009   1.285  11.607   9.863
80704SOL    HW244010   1.314  11.722   9.957
80705SOL     OW44011   7.283   3.245   7.660
80705SOL    HW144012   7.191   3.264   7.643
80705SOL    HW244013   7.305   3.174   7.600
80706SOL     OW44014  12.465  14.622   2.288
80706SOL    HW144015  12.516  14.700   2.266
80706SOL    HW244016  12.518  14.577   2.354
80707SOL     OW44017   6.371   7.137   2.612
80707SOL    HW144018   6.293   7.128   2.666
80707SOL    HW244019   6.340   7.178   2.531
80708SOL     OW44020   7.513   8.842   0.701
80708SOL    HW144021   7.577   8.867   0.634
80708SOL    HW244022   7.436   8.815   0.652
80709SOL     OW44023  11.316   4.157   6.893
80709SOL    HW144024  11.356   4.169   6.979
80709SOL    HW244025  11.386   4.177   6.830
80710SOL     OW44026   3.902  14.608   4.438
80710SOL    HW144027   3.857  14.542   4.385
80710SOL    HW244028   3.859  14.605   4.523
80711SOL     OW44029   2.866  13.687  11.647
80711SOL    HW144030   2.805  13.702  11.720
80711SOL    HW244031   2.949  13.724  11.677
80712SOL     OW44032   9.351  10.170  12.063
80712SOL    HW144033   9.446  10.183  12.060
80712SOL    HW244034   9.321  10.233  12.129
80713SOL     OW44035   3.992   0.043   3.055
80713SOL    HW144036   4.077   0.026   3.095
80713SOL    HW244037   3.928   0.003   3.114
80714SOL     OW44038  13.067   5.491   9.383
80714SOL    HW144039  13.032   5.559   9.325
80714SOL    HW244040  13.116   5.539   9.450
80715SOL     OW44041   6.750  12.453  11.338
80715SOL    HW144042   6.692  12.527  11.320
80715SOL    HW244043   6.815  12.487  11.399
80716SOL     OW44044   9.172  12.621   9.835
80716SOL    HW144045   9.182  12.570   9.755
80716SOL    HW244046   9.102  12.683   9.817
80717SOL     OW44047   3.768  10.886   8.262
80717SOL    HW144048   3.776  10.852   8.172
80717SOL    HW244049   3.749  10.808   8.315
80718SOL     OW44050  11.644   2.523  14.369
80718SOL    HW144051  11.658   2.489  14.458
80718SOL    HW244052  11.715   2.586  14.357
80719SOL     OW44053   2.023   3.830   0.632
80719SOL    HW144054   2.094   3.781   0.674
80719SOL    HW244055   1.981   3.878   0.703
80720SOL     OW44056   6.896   8.225   2.763
80720SOL    HW144057   6.831   8.160   2.738
80720SOL    HW244058   6.934   8.254   2.680
80721SOL     OW44059  13.418  14.668  14.859
80721SOL    HW144060  13.375  14.664  14.774
80721SOL    HW244061  13.419  14.761  14.881
80722SOL     OW44062   6.259   1.631   1.878
80722SOL    HW144063   6.182   1.579   1.856
80722SOL    HW244064   6.294   1.660   1.794
80723SOL     OW44065  14.410   0.224   4.933
80723SOL    HW144066  14.387   0.196   4.844
80723SOL    HW244067  14.371   0.311   4.941
80724SOL     OW44068  10.346   8.141   3.743
80724SOL    HW144069  10.280   8.071   3.739
80724SOL    HW244070  10.370   8.156   3.652
80725SOL     OW44071   3.079   3.857   4.317
80725SOL    HW144072   3.156   3.907   4.341
80725SOL    HW244073   3.103   3.812   4.236
80726SOL     OW44074   8.968   8.338   6.657
80726SOL    HW144075   8.916   8.369   6.582
80726SOL    HW244076   8.943   8.395   6.729
80727SOL     OW44077   8.132  12.659   3.004
80727SOL    HW144078   8.099  12.569   3.010
80727SOL    HW244079   8.053  12.713   2.994
80728SOL     OW44080  12.585   4.834   1.811
80728SOL    HW144081  12.580   4.877   1.897
80728SOL    HW244082  12.678   4.817   1.798
80729SOL     OW44083  11.326   1.702   6.861
80729SOL    HW144084  11.291   1.643   6.928
80729SOL    HW244085  11.391   1.754   6.907
80730SOL     OW44086  14.309   1.382   1.553
80730SOL    HW144087  14.260   1.415   1.629
80730SOL    HW244088  14.263   1.302   1.527
80731SOL     OW44089   5.006   0.465  12.632
80731SOL    HW144090   5.001   0.484  12.725
80731SOL    HW244091   4.926   0.502  12.595
80732SOL     OW44092  10.515   1.617  10.511
80732SOL    HW144093  10.538   1.664  10.590
80732SOL    HW244094  10.496   1.685  10.447
80733SOL     OW44095  12.387  10.342   8.187
80733SOL    HW144096  12.397  10.273   8.253
80733SOL    HW244097  12.357  10.418   8.236
80734SOL     OW44098  10.018   8.276  13.485
80734SOL    HW144099  10.031   8.225  13.405
80734SOL    HW244100   9.956   8.224  13.537
80735SOL     OW44101   0.912   1.700   0.364
80735SOL    HW144102   0.949   1.752   0.435
80735SOL    HW244103   0.850   1.759   0.320
80736SOL     OW44104   8.970   3.208   4.668
80736SOL    HW144105   9.013   3.289   4.694
80736SOL    HW244106   9.004   3.190   4.580
80737SOL     OW44107   7.631   5.764   8.521
80737SOL    HW144108   7.677   5.710   8.586
80737SOL    HW244109   7.541   5.732   8.521
80738SOL     OW44110   2.624   4.504   5.608
80738SOL    HW144111   2.560   4.490   5.538
80738SOL    HW244112   2.686   4.432   5.598
80739SOL     OW44113  12.631   0.782   8.296
80739SOL    HW144114  12.558   0.843   8.285
80739SOL    HW244115  12.684   0.820   8.366
80740SOL     OW44116   2.929   0.476  14.417
80740SOL    HW144117   2.982   0.527  14.355
80740SOL    HW244118   2.981   0.475  14.497
80741SOL     OW44119   3.938  12.911   9.461
80741SOL    HW144120   3.859  12.862   9.436
80741SOL    HW244121   3.916  12.947   9.547
80742SOL     OW44122   7.019  11.470   0.126
80742SOL    HW144123   6.970  11.388   0.125
80742SOL    HW244124   7.001  11.508   0.212
80743SOL     OW44125   3.957  12.176   8.926
80743SOL    HW144126   4.035  12.185   8.980
80743SOL    HW244127   3.899  12.247   8.956
80744SOL     OW44128  13.902   4.673   1.284
80744SOL    HW144129  13.932   4.745   1.229
80744SOL    HW244130  13.944   4.595   1.248
80745SOL     OW44131   9.210   8.897   1.831
80745SOL    HW144132   9.296   8.936   1.811
80745SOL    HW244133   9.216   8.874   1.924
80746SOL     OW44134   1.829  11.021   6.587
80746SOL    HW144135   1.738  10.992   6.587
80746SOL    HW244136   1.828  11.103   6.538
80747SOL     OW44137   3.279   1.254  12.268
80747SOL    HW144138   3.252   1.186  12.330
80747SOL    HW244139   3.349   1.213  12.218
80748SOL     OW44140   7.071   6.125   0.923
80748SOL    HW144141   7.074   6.044   0.974
80748SOL    HW244142   7.160   6.135   0.888
80749SOL     OW44143  11.823   7.927  12.915
80749SOL    HW144144  11.729   7.942  12.918
80749SOL    HW244145  11.855   7.962  12.998
80750SOL     OW44146   1.059   9.902   3.025
80750SOL    HW144147   1.058   9.969   3.093
80750SOL    HW244148   1.081   9.949   2.945
80751SOL     OW44149   4.565   2.893  13.477
80751SOL    HW144150   4.523   2.827  13.533
80751SOL    HW244151   4.596   2.844  13.401
80752SOL     OW44152  12.393  11.391  13.820
80752SOL    HW144153  12.344  11.433  13.891
80752SOL    HW244154  12.472  11.356  13.862
80753SOL     OW44155   4.241  11.887   4.481
80753SOL    HW144156   4.177  11.834   4.527
80753SOL    HW244157   4.323  11.873   4.528
80754SOL     OW44158  13.908  12.746   4.034
80754SOL    HW144159  13.877  12.745   4.124
80754SOL    HW244160  13.961  12.667   4.025
80755SOL     OW44161   4.100   2.045   8.454
80755SOL    HW144162   4.062   2.130   8.475
80755SOL    HW244163   4.080   1.990   8.530
80756SOL     OW44164   8.297   3.651   8.443
80756SOL    HW144165   8.338   3.567   8.465
80756SOL    HW244166   8.248   3.634   8.363
80757SOL     OW44167  12.180   7.093   8.102
80757SOL    HW144168  12.096   7.082   8.148
80757SOL    HW244169  12.244   7.099   8.172
80758SOL     OW44170  14.066  10.190  13.612
80758SOL    HW144171  14.158  10.208  13.631
80758SOL    HW244172  14.025  10.182  13.699
80759SOL     OW44173   4.306  10.833   6.795
80759SOL    HW144174   4.288  10.798   6.708
80759SOL    HW244175   4.326  10.926   6.780
80760SOL     OW44176   5.040   2.539   0.708
80760SOL    HW144177   5.095   2.610   0.675
80760SOL    HW244178   4.953   2.556   0.672
80761SOL     OW44179   0.756   6.571   9.356
80761SOL    HW144180   0.831   6.511   9.356
80761SOL    HW244181   0.795   6.657   9.343
80762SOL     OW44182   4.385  11.668   6.829
80762SOL    HW144183   4.476  11.648   6.809
80762SOL    HW244184   4.371  11.756   6.794
80763SOL     OW44185   8.683  10.675   0.489
80763SOL    HW144186   8.654  10.654   0.400
80763SOL    HW244187   8.726  10.760   0.481
80764SOL     OW44188   4.750   7.530  11.781
80764SOL    HW144189   4.814   7.481  11.834
80764SOL    HW244190   4.666   7.490  11.803
80765SOL     OW44191   8.735   8.637   1.426
80765SOL    HW144192   8.782   8.557   1.448
80765SOL    HW244193   8.800   8.706   1.434
80766SOL     OW44194   0.672  12.915   1.879
80766SOL    HW144195   0.600  12.903   1.817
80766SOL    HW244196   0.631  12.904   1.965
80767SOL     OW44197   6.686   4.488  10.960
80767SOL    HW144198   6.737   4.540  11.022
80767SOL    HW244199   6.742   4.413  10.939
80768SOL     OW44200  13.476   7.112   7.233
80768SOL    HW144201  13.487   7.178   7.301
80768SOL    HW244202  13.426   7.041   7.276
80769SOL     OW44203   8.531   1.180   4.985
80769SOL    HW144204   8.589   1.147   4.917
80769SOL    HW244205   8.479   1.248   4.942
80770SOL     OW44206   2.844   5.380   5.576
80770SOL    HW144207   2.919   5.378   5.517
80770SOL    HW244208   2.881   5.355   5.661
80771SOL     OW44209   0.558  13.430   7.960
80771SOL    HW144210   0.541  13.357   8.021
80771SOL    HW244211   0.501  13.413   7.886
80772SOL     OW44212   9.713   4.439  11.658
80772SOL    HW144213   9.792   4.417  11.609
80772SOL    HW244214   9.740   4.509  11.718
80773SOL     OW44215   7.753   2.673   9.603
80773SOL    HW144216   7.672   2.683   9.653
80773SOL    HW244217   7.727   2.690   9.513
80774SOL     OW44218  10.504   5.243   2.877
80774SOL    HW144219  10.535   5.156   2.854
80774SOL    HW244220  10.479   5.283   2.794
80775SOL     OW44221   4.857   9.918   3.215
80775SOL    HW144222   4.889   9.921   3.124
80775SOL    HW244223   4.900   9.993   3.257
80776SOL     OW44224   7.150   9.780  14.044
80776SOL    HW144225   7.183   9.869  14.054
80776SOL    HW244226   7.055   9.789  14.054
80777SOL     OW44227   4.168  11.606   7.432
80777SOL    HW144228   4.141  11.670   7.367
80777SOL    HW244229   4.166  11.653   7.515
80778SOL     OW44230  11.998   6.021   8.565
80778SOL    HW144231  12.061   5.985   8.628
80778SOL    HW244232  12.048   6.028   8.483
80779SOL     OW44233  10.455  11.840   3.028
80779SOL    HW144234  10.416  11.774   3.086
80779SOL    HW244235  10.418  11.923   3.058
80780SOL     OW44236   7.307   2.315  10.390
80780SOL    HW144237   7.363   2.331  10.466
80780SOL    HW244238   7.364   2.267  10.329
80781SOL     OW44239   1.850   6.876   2.358
80781SOL    HW144240   1.881   6.961   2.389
80781SOL    HW244241   1.755   6.887   2.350
80782SOL     OW44242  10.362   4.249   8.309
80782SOL    HW144243  10.373   4.273   8.217
80782SOL    HW244244  10.268   4.260   8.326
80783SOL     OW44245   2.061  14.201  13.120
80783SOL    HW144246   2.101  14.278  13.078
80783SOL    HW244247   1.990  14.176  13.061
80784SOL     OW44248  13.756   2.068  14.726
80784SOL    HW144249  13.660   2.070  14.723
80784SOL    HW244250  13.780   1.985  14.686
80785SOL     OW44251   1.119   7.979   3.027
80785SOL    HW144252   1.071   7.992   2.946
80785SOL    HW244253   1.211   7.982   3.002
80786SOL     OW44254   4.555  10.300  13.309
80786SOL    HW144255   4.492  10.276  13.241
80786SOL    HW244256   4.636  10.319  13.261
80787SOL     OW44257   2.975   9.899   7.947
80787SOL    HW144258   3.040   9.850   7.898
80787SOL    HW244259   2.983   9.867   8.037
80788SOL     OW44260   0.486  12.160  12.094
80788SOL    HW144261   0.434  12.082  12.113
80788SOL    HW244262   0.494  12.205  12.179
80789SOL     OW44263  13.564   2.464   7.998
80789SOL    HW144264  13.541   2.372   8.012
80789SOL    HW244265  13.497   2.513   8.046
80790SOL     OW44266  14.092   2.206   1.113
80790SOL    HW144267  14.128   2.263   1.045
80790SOL    HW244268  14.163   2.197   1.177
80791SOL     OW44269  11.707   8.120   7.360
80791SOL    HW144270  11.680   8.187   7.423
80791SOL    HW244271  11.709   8.166   7.276
80792SOL     OW44272   0.157   3.689  12.891
80792SOL    HW144273   0.111   3.708  12.973
80792SOL    HW244274   0.162   3.594  12.888
80793SOL     OW44275  13.085   1.549   6.784
80793SOL    HW144276  13.178   1.531   6.792
80793SOL    HW244277  13.044   1.462   6.778
80794SOL     OW44278   0.185   2.094   4.828
80794SOL    HW144279   0.248   2.068   4.760
80794SOL    HW244280   0.099   2.080   4.788
80795SOL     OW44281  10.320  10.813   1.952
80795SOL    HW144282  10.304  10.900   1.917
80795SOL    HW244283  10.233  10.778   1.969
80796SOL     OW44284  13.552  11.970   1.994
80796SOL    HW144285  13.525  12.050   2.040
80796SOL    HW244286  13.518  11.982   1.905
80797SOL     OW44287  11.872   7.974  10.721
80797SOL    HW144288  11.782   7.995  10.746
80797SOL    HW244289  11.920   7.969  10.804
80798SOL     OW44290   8.004   5.297   1.808
80798SOL    HW144291   8.035   5.292   1.898
80798SOL    HW244292   8.052   5.229   1.761
80799SOL     OW44293   1.893   5.954  11.108
80799SOL    HW144294   1.825   6.020  11.117
80799SOL    HW244295   1.934   5.950  11.195
80800SOL     OW44296   9.452   2.318   3.799
80800SOL    HW144297   9.375   2.275   3.835
80800SOL    HW244298   9.417   2.392   3.749
80801SOL     OW44299  14.303  11.521   8.953
80801SOL    HW144300  14.266  11.610   8.953
80801SOL    HW244301  14.255  11.476   9.022
80802SOL     OW44302   7.554   3.690   8.996
80802SOL    HW144303   7.479   3.740   8.964
80802SOL    HW244304   7.629   3.749   8.986
80803SOL     OW44305  12.541   3.160  14.039
80803SOL    HW144306  12.604   3.148  14.110
80803SOL    HW244307  12.492   3.078  14.037
80804SOL     OW44308  12.401  12.134   5.716
80804SOL    HW144309  12.363  12.147   5.803
80804SOL    HW244310  12.328  12.104   5.662
80805SOL     OW44311   2.869   5.654   3.673
80805SOL    HW144312   2.879   5.671   3.579
80805SOL    HW244313   2.875   5.740   3.714
80806SOL     OW44314  13.982  11.876  12.762
80806SOL    HW144315  14.015  11.851  12.848
80806SOL    HW244316  13.951  11.966  12.773
80807SOL     OW44317   7.250   4.633   1.567
80807SOL    HW144318   7.237   4.667   1.656
80807SOL    HW244319   7.164   4.601   1.541
80808SOL     OW44320   0.774   2.138  10.879
80808SOL    HW144321   0.796   2.051  10.913
80808SOL    HW244322   0.683   2.152  10.905
80809SOL     OW44323  11.304   0.013  11.468
80809SOL    HW144324  11.227   0.037  11.417
80809SOL    HW244325  11.272  14.835  11.530
80810SOL     OW44326   7.776   3.311   3.156
80810SOL    HW144327   7.836   3.237   3.170
80810SOL    HW244328   7.693   3.269   3.133
80811SOL     OW44329   5.922  14.446   1.671
80811SOL    HW144330   5.850  14.506   1.649
80811SOL    HW244331   5.920  14.439   1.766
80812SOL     OW44332   2.750   3.991  10.872
80812SOL    HW144333   2.788   4.067  10.915
80812SOL    HW244334   2.680   3.962  10.931
80813SOL     OW44335   8.590   3.299   9.049
80813SOL    HW144336   8.578   3.365   8.980
80813SOL    HW244337   8.535   3.226   9.022
80814SOL     OW44338  10.646   9.681   9.222
80814SOL    HW144339  10.658   9.775   9.227
80814SOL    HW244340  10.574   9.663   9.284
80815SOL     OW44341  12.957   4.835  11.025
80815SOL    HW144342  12.966   4.888  11.104
80815SOL    HW244343  12.915   4.754  11.054
80816SOL     OW44344   2.919   8.448   3.809
80816SOL    HW144345   3.006   8.409   3.816
80816SOL    HW244346   2.936   8.540   3.788
80817SOL     OW44347   5.605   7.673  10.849
80817SOL    HW144348   5.651   7.653  10.931
80817SOL    HW244349   5.550   7.596  10.833
80818SOL     OW44350   3.826   8.133   3.042
80818SOL    HW144351   3.787   8.046   3.038
80818SOL    HW244352   3.784   8.175   3.117
80819SOL     OW44353  11.394  10.925  12.370
80819SOL    HW144354  11.324  10.965  12.318
80819SOL    HW244355  11.382  10.962  12.458
80820SOL     OW44356  12.728  14.654  12.760
80820SOL    HW144357  12.705  14.623  12.848
80820SOL    HW244358  12.753  14.574  12.713
80821SOL     OW44359  14.722   0.450   0.204
80821SOL    HW144360  14.776   0.471   0.280
80821SOL    HW244361  14.769   0.380   0.159
80822SOL     OW44362   7.742   3.906   1.669
80822SOL    HW144363   7.741   3.891   1.575
80822SOL    HW244364   7.700   3.991   1.681
80823SOL     OW44365   3.309   9.596   4.198
80823SOL    HW144366   3.403   9.587   4.210
80823SOL    HW244367   3.282   9.657   4.267
80824SOL     OW44368   1.857   2.650   5.218
80824SOL    HW144369   1.784   2.616   5.270
80824SOL    HW244370   1.817   2.683   5.138
80825SOL     OW44371   6.027   7.542  11.966
80825SOL    HW144372   5.981   7.462  11.990
80825SOL    HW244373   5.964   7.612  11.985
80826SOL     OW44374  10.827   7.178  10.015
80826SOL    HW144375  10.800   7.262   9.979
80826SOL    HW244376  10.760   7.116   9.985
80827SOL     OW44377   4.960   4.498  11.088
80827SOL    HW144378   5.022   4.532  11.024
80827SOL    HW244379   4.901   4.571  11.107
80828SOL     OW44380   0.721   2.412   3.434
80828SOL    HW144381   0.781   2.450   3.370
80828SOL    HW244382   0.768   2.418   3.517
80829SOL     OW44383   8.648   5.049   6.156
80829SOL    HW144384   8.732   5.088   6.177
80829SOL    HW244385   8.619   5.008   6.238
80830SOL     OW44386  12.912   3.705  12.980
80830SOL    HW144387  12.893   3.652  12.902
80830SOL    HW244388  12.924   3.641  13.050
80831SOL     OW44389  11.499   6.343   4.780
80831SOL    HW144390  11.541   6.331   4.695
80831SOL    HW244391  11.505   6.437   4.796
80832SOL     OW44392   1.688   1.490   5.885
80832SOL    HW144393   1.775   1.484   5.925
80832SOL    HW244394   1.658   1.579   5.905
80833SOL     OW44395   7.256   8.816  10.267
80833SOL    HW144396   7.349   8.796  10.252
80833SOL    HW244397   7.218   8.817  10.180
80834SOL     OW44398  10.603  13.847   0.462
80834SOL    HW144399  10.588  13.784   0.533
80834SOL    HW244400  10.681  13.814   0.417
80835SOL     OW44401  12.728  10.817   2.936
80835SOL    HW144402  12.705  10.756   2.866
80835SOL    HW244403  12.691  10.778   3.015
80836SOL     OW44404   9.617   5.316  11.798
80836SOL    HW144405   9.693   5.350  11.751
80836SOL    HW244406   9.576   5.256  11.735
80837SOL     OW44407  10.396   8.740   8.360
80837SOL    HW144408  10.442   8.696   8.290
80837SOL    HW244409  10.309   8.758   8.325
80838SOL     OW44410  12.527   4.587   5.588
80838SOL    HW144411  12.568   4.670   5.612
80838SOL    HW244412  12.488   4.556   5.670
80839SOL     OW44413  13.722   7.442   1.438
80839SOL    HW144414  13.806   7.406   1.466
80839SOL    HW244415  13.678   7.370   1.392
80840SOL     OW44416   6.362   4.964   0.611
80840SOL    HW144417   6.353   5.040   0.669
80840SOL    HW244418   6.293   4.904   0.639
80841SOL     OW44419   2.371   9.319   1.204
80841SOL    HW144420   2.383   9.239   1.152
80841SOL    HW244421   2.278   9.340   1.194
80842SOL     OW44422   9.667   1.686   2.265
80842SOL    HW144423   9.670   1.781   2.270
80842SOL    HW244424   9.661   1.667   2.172
80843SOL     OW44425  11.800   6.805   9.371
80843SOL    HW144426  11.856   6.797   9.294
80843SOL    HW244427  11.762   6.718   9.383
80844SOL     OW44428   5.033  10.034   1.153
80844SOL    HW144429   4.998  10.095   1.089
80844SOL    HW244430   5.108  10.079   1.191
80845SOL     OW44431   3.923   4.086   7.946
80845SOL    HW144432   3.863   4.157   7.926
80845SOL    HW244433   4.008   4.118   7.914
80846SOL     OW44434   2.784   2.616   7.597
80846SOL    HW144435   2.732   2.695   7.580
80846SOL    HW244436   2.837   2.604   7.518
80847SOL     OW44437  11.337  11.808   4.916
80847SOL    HW144438  11.361  11.717   4.933
80847SOL    HW244439  11.411  11.844   4.867
80848SOL     OW44440   7.507   3.873   0.385
80848SOL    HW144441   7.476   3.911   0.303
80848SOL    HW244442   7.498   3.942   0.450
80849SOL     OW44443  11.771  11.559  10.890
80849SOL    HW144444  11.786  11.473  10.930
80849SOL    HW244445  11.772  11.542  10.796
80850SOL     OW44446   6.406   7.212   9.989
80850SOL    HW144447   6.383   7.126   9.951
80850SOL    HW244448   6.330   7.267   9.970
80851SOL     OW44449  12.756   3.456  14.299
80851SOL    HW144450  12.813   3.388  14.334
80851SOL    HW244451  12.675   3.448  14.348
80852SOL     OW44452   5.025   2.884   8.976
80852SOL    HW144453   5.083   2.830   9.030
80852SOL    HW244454   4.938   2.850   8.992
80853SOL     OW44455   0.344  10.791   8.787
80853SOL    HW144456   0.283  10.864   8.785
80853SOL    HW244457   0.349  10.760   8.696
80854SOL     OW44458  11.008   7.503  11.385
80854SOL    HW144459  11.064   7.438  11.427
80854SOL    HW244460  10.990   7.467  11.298
80855SOL     OW44461  11.942   3.017   9.313
80855SOL    HW144462  11.948   3.090   9.250
80855SOL    HW244463  11.931   2.940   9.258
80856SOL     OW44464   9.083   1.826   8.691
80856SOL    HW144465   9.107   1.914   8.662
80856SOL    HW244466   9.052   1.782   8.611
80857SOL     OW44467  10.135   0.225   4.681
80857SOL    HW144468  10.207   0.254   4.625
80857SOL    HW244469  10.084   0.305   4.697
80858SOL     OW44470   8.175   2.183  11.899
80858SOL    HW144471   8.187   2.169  11.805
80858SOL    HW244472   8.186   2.277  11.910
80859SOL     OW44473   8.704   8.139   5.252
80859SOL    HW144474   8.620   8.095   5.242
80859SOL    HW244475   8.685   8.231   5.234
80860SOL     OW44476   5.559   4.575   3.672
80860SOL    HW144477   5.495   4.568   3.743
80860SOL    HW244478   5.566   4.669   3.656
80861SOL     OW44479   8.515   1.265   7.897
80861SOL    HW144480   8.582   1.331   7.880
80861SOL    HW244481   8.562   1.182   7.894
80862SOL     OW44482  10.215  10.516   6.458
80862SOL    HW144483  10.122  10.535   6.445
80862SOL    HW244484  10.258  10.601   6.450
80863SOL     OW44485  13.166   0.263   5.777
80863SOL    HW144486  13.187   0.331   5.841
80863SOL    HW244487  13.073   0.243   5.791
80864SOL     OW44488   3.345   8.984   2.101
80864SOL    HW144489   3.307   8.899   2.126
80864SOL    HW244490   3.319   9.043   2.171
80865SOL     OW44491   7.237   8.977   4.837
80865SOL    HW144492   7.297   8.966   4.763
80865SOL    HW244493   7.253   9.066   4.867
80866SOL     OW44494   3.822  10.540  11.153
80866SOL    HW144495   3.885  10.551  11.083
80866SOL    HW244496   3.773  10.622  11.155
80867SOL     OW44497   6.797  12.932   0.031
80867SOL    HW144498   6.881  12.975   0.044
80867SOL    HW244499   6.812  12.840   0.052
80868SOL     OW44500   8.982  13.857  12.463
80868SOL    HW144501   9.039  13.931  12.484
80868SOL    HW244502   8.953  13.874  12.373
80869SOL     OW44503  13.824  13.894   1.007
80869SOL    HW144504  13.731  13.916   1.016
80869SOL    HW244505  13.841  13.896   0.913
80870SOL     OW44506   5.548   7.173  11.260
80870SOL    HW144507   5.556   7.102  11.323
80870SOL    HW244508   5.459   7.205  11.271
80871SOL     OW44509  14.696  14.728   7.221
80871SOL    HW144510  14.609  14.725   7.181
80871SOL    HW244511  14.753  14.688   7.155
80872SOL     OW44512   2.305   2.283   6.257
80872SOL    HW144513   2.348   2.266   6.173
80872SOL    HW244514   2.215   2.305   6.234
80873SOL     OW44515  11.193   6.894   3.417
80873SOL    HW144516  11.266   6.931   3.467
80873SOL    HW244517  11.115   6.925   3.462
80874SOL     OW44518   7.172  10.267   6.983
80874SOL    HW144519   7.148  10.278   6.892
80874SOL    HW244520   7.120  10.332   7.030
80875SOL     OW44521   0.096   6.718  10.890
80875SOL    HW144522   0.100   6.637  10.838
80875SOL    HW244523   0.187   6.750  10.891
80876SOL     OW44524   2.322   5.818  14.190
80876SOL    HW144525   2.370   5.897  14.213
80876SOL    HW244526   2.274   5.795  14.270
80877SOL     OW44527  10.136   2.737  11.078
80877SOL    HW144528  10.049   2.730  11.117
80877SOL    HW244529  10.196   2.717  11.150
80878SOL     OW44530  13.608  14.664   5.761
80878SOL    HW144531  13.604  14.602   5.688
80878SOL    HW244532  13.526  14.712   5.755
80879SOL     OW44533  11.597   4.989   6.779
80879SOL    HW144534  11.574   5.054   6.845
80879SOL    HW244535  11.514   4.965   6.738
80880SOL     OW44536  10.083   6.375   0.035
80880SOL    HW144537  10.041   6.321   0.101
80880SOL    HW244538  10.098   6.459   0.079
80881SOL     OW44539   8.748  13.480   7.018
80881SOL    HW144540   8.806  13.456   7.091
80881SOL    HW244541   8.708  13.397   6.991
80882SOL     OW44542   8.491   7.001   7.687
80882SOL    HW144543   8.546   6.945   7.634
80882SOL    HW244544   8.404   6.994   7.648
80883SOL     OW44545   3.049   6.871  11.428
80883SOL    HW144546   2.973   6.925  11.449
80883SOL    HW244547   3.085   6.846  11.513
80884SOL     OW44548  13.288   5.415   9.252
80884SOL    HW144549  13.196   5.439   9.267
80884SOL    HW244550  13.325   5.406   9.340
80885SOL     OW44551  11.763   1.747  12.150
80885SOL    HW144552  11.669   1.760  12.138
80885SOL    HW244553  11.803   1.820  12.103
80886SOL     OW44554   6.326   2.643   1.505
80886SOL    HW144555   6.375   2.714   1.463
80886SOL    HW244556   6.390   2.572   1.512
80887SOL     OW44557   2.849  10.738   6.699
80887SOL    HW144558   2.783  10.771   6.759
80887SOL    HW244559   2.908  10.811   6.684
80888SOL     OW44560  11.037  12.593   1.646
80888SOL    HW144561  11.097  12.551   1.707
80888SOL    HW244562  11.077  12.581   1.560
80889SOL     OW44563  12.447   4.861  10.019
80889SOL    HW144564  12.357   4.887  10.002
80889SOL    HW244565  12.500   4.922   9.967
80890SOL     OW44566   6.392   2.451   1.849
80890SOL    HW144567   6.486   2.434   1.860
80890SOL    HW244568   6.356   2.369   1.816
80891SOL     OW44569   1.725  11.373  11.670
80891SOL    HW144570   1.632  11.362  11.650
80891SOL    HW244571   1.765  11.291  11.644
80892SOL     OW44572   9.611   1.748  11.898
80892SOL    HW144573   9.683   1.720  11.954
80892SOL    HW244574   9.637   1.835  11.867
80893SOL     OW44575  10.126  11.651  14.872
80893SOL    HW144576  10.059  11.716   0.002
80893SOL    HW244577  10.139  11.606   0.069
80894SOL     OW44578   7.465  12.612   8.964
80894SOL    HW144579   7.377  12.579   8.948
80894SOL    HW244580   7.505  12.549   9.023
80895SOL     OW44581  11.421   1.218  14.271
80895SOL    HW144582  11.404   1.301  14.228
80895SOL    HW244583  11.516   1.217  14.287
80896SOL     OW44584   8.261   0.005   6.345
80896SOL    HW144585   8.197   0.022   6.275
80896SOL    HW244586   8.255  14.799   6.361
80897SOL     OW44587  11.766   5.463   6.718
80897SOL    HW144588  11.835   5.503   6.771
80897SOL    HW244589  11.706   5.535   6.699
80898SOL     OW44590   8.294   9.091  12.244
80898SOL    HW144591   8.227   9.111  12.179
80898SOL    HW244592   8.248   9.038  12.309
80899SOL     OW44593   9.382   4.344   6.154
80899SOL    HW144594   9.387   4.437   6.176
80899SOL    HW244595   9.454   4.304   6.202
80900SOL     OW44596  13.480   6.441   2.254
80900SOL    HW144597  13.436   6.437   2.169
80900SOL    HW244598  13.411   6.467   2.315
80901SOL     OW44599   1.284   5.617   6.157
80901SOL    HW144600   1.310   5.534   6.117
80901SOL    HW244601   1.188   5.610   6.164
80902SOL     OW44602   5.196  12.807  14.054
80902SOL    HW144603   5.211  12.877  13.990
80902SOL    HW244604   5.206  12.850  14.139
80903SOL     OW44605   3.158   5.709  13.148
80903SOL    HW144606   3.214   5.744  13.078
80903SOL    HW244607   3.093   5.777  13.163
80904SOL     OW44608   9.198  14.424   1.688
80904SOL    HW144609   9.114  14.412   1.643
80904SOL    HW244610   9.219  14.516   1.675
80905SOL     OW44611  14.240   8.259   8.676
80905SOL    HW144612  14.184   8.325   8.636
80905SOL    HW244613  14.321   8.262   8.627
80906SOL     OW44614   7.215  12.810   8.680
80906SOL    HW144615   7.124  12.801   8.706
80906SOL    HW244616   7.251  12.722   8.686
80907SOL     OW44617  10.195   4.259   3.436
80907SOL    HW144618  10.124   4.278   3.498
80907SOL    HW244619  10.161   4.288   3.351
80908SOL     OW44620  13.460  11.252   7.286
80908SOL    HW144621  13.508  11.217   7.211
80908SOL    HW244622  13.424  11.335   7.255
80909SOL     OW44623   0.528   0.411   8.581
80909SOL    HW144624   0.434   0.401   8.599
80909SOL    HW244625   0.540   0.372   8.495
80910SOL     OW44626   3.639  14.197   0.517
80910SOL    HW144627   3.630  14.229   0.607
80910SOL    HW244628   3.638  14.102   0.525
80911SOL     OW44629  14.460  12.611  10.432
80911SOL    HW144630  14.404  12.652  10.366
80911SOL    HW244631  14.445  12.661  10.512
80912SOL     OW44632  11.726   4.042   2.505
80912SOL    HW144633  11.669   4.111   2.471
80912SOL    HW244634  11.801   4.089   2.541
80913SOL     OW44635  12.371   7.780   9.763
80913SOL    HW144636  12.309   7.848   9.792
80913SOL    HW244637  12.319   7.700   9.764
80914SOL     OW44638  14.088   7.771  13.422
80914SOL    HW144639  14.087   7.791  13.516
80914SOL    HW244640  14.180   7.759  13.401
80915SOL     OW44641   2.136   2.890   5.085
80915SOL    HW144642   2.190   2.948   5.031
80915SOL    HW244643   2.143   2.925   5.173
80916SOL     OW44644   8.938  13.927   9.615
80916SOL    HW144645   9.023  13.964   9.590
80916SOL    HW244646   8.955  13.833   9.623
80917SOL     OW44647   5.209   1.501   6.319
80917SOL    HW144648   5.177   1.523   6.406
80917SOL    HW244649   5.131   1.472   6.271
80918SOL     OW44650   8.154   0.317   6.636
80918SOL    HW144651   8.226   0.283   6.583
80918SOL    HW244652   8.075   0.288   6.591
80919SOL     OW44653   4.123   9.449  11.408
80919SOL    HW144654   4.047   9.406  11.448
80919SOL    HW244655   4.100   9.542  11.407
80920SOL     OW44656   7.059   5.192   6.609
80920SOL    HW144657   6.988   5.135   6.579
80920SOL    HW244658   7.018   5.278   6.620
80921SOL     OW44659  10.942  11.971   8.058
80921SOL    HW144660  10.877  12.002   7.995
80921SOL    HW244661  10.891  11.940   8.133
80922SOL     OW44662  11.771   4.199   2.856
80922SOL    HW144663  11.703   4.236   2.799
80922SOL    HW244664  11.736   4.206   2.944
80923SOL     OW44665  13.934  13.702   2.817
80923SOL    HW144666  13.902  13.791   2.835
80923SOL    HW244667  13.991  13.682   2.891
80924SOL     OW44668   3.785  13.905  10.292
80924SOL    HW144669   3.731  13.932  10.217
80924SOL    HW244670   3.828  13.824  10.263
80925SOL     OW44671   7.763   1.760  11.421
80925SOL    HW144672   7.713   1.817  11.480
80925SOL    HW244673   7.839   1.733  11.473
80926SOL     OW44674   4.301  11.942   9.439
80926SOL    HW144675   4.390  11.911   9.426
80926SOL    HW244676   4.264  11.884   9.505
80927SOL     OW44677   7.206   9.155  13.753
80927SOL    HW144678   7.249   9.074  13.726
80927SOL    HW244679   7.118   9.128  13.779
80928SOL     OW44680  11.766   4.420   8.260
80928SOL    HW144681  11.696   4.447   8.319
80928SOL    HW244682  11.843   4.468   8.290
80929SOL     OW44683  12.644   1.196   1.460
80929SOL    HW144684  12.656   1.288   1.484
80929SOL    HW244685  12.550   1.185   1.451
80930SOL     OW44686   7.749   4.291   4.609
80930SOL    HW144687   7.810   4.320   4.677
80930SOL    HW244688   7.796   4.305   4.527
80931SOL     OW44689   9.416   7.832   0.321
80931SOL    HW144690   9.486   7.769   0.306
80931SOL    HW244691   9.343   7.801   0.267
80932SOL     OW44692   3.958  14.232   5.783
80932SOL    HW144693   4.051  14.207   5.787
80932SOL    HW244694   3.959  14.327   5.794
80933SOL     OW44695   5.284  11.958   8.005
80933SOL    HW144696   5.196  11.942   8.040
80933SOL    HW244697   5.292  11.897   7.932
80934SOL     OW44698   7.118   4.956   3.282
80934SOL    HW144699   7.063   5.022   3.325
80934SOL    HW244700   7.059   4.881   3.269
80935SOL     OW44701   9.904  10.727  13.931
80935SOL    HW144702   9.961  10.755  14.003
80935SOL    HW244703   9.938  10.641  13.907
80936SOL     OW44704   4.771  13.171   3.269
80936SOL    HW144705   4.824  13.247   3.296
80936SOL    HW244706   4.709  13.207   3.206
80937SOL     OW44707   1.414   7.009   5.808
80937SOL    HW144708   1.477   6.944   5.778
80937SOL    HW244709   1.406   7.070   5.735
80938SOL     OW44710   7.607   5.292   3.857
80938SOL    HW144711   7.554   5.242   3.794
80938SOL    HW244712   7.611   5.236   3.934
80939SOL     OW44713  12.526   7.608  10.948
80939SOL    HW144714  12.562   7.525  10.979
80939SOL    HW244715  12.576   7.629  10.869
80940SOL     OW44716  13.367  12.524   5.117
80940SOL    HW144717  13.324  12.453   5.070
80940SOL    HW244718  13.398  12.583   5.048
80941SOL     OW44719  14.036  10.149   5.996
80941SOL    HW144720  13.979  10.090   5.947
80941SOL    HW244721  14.060  10.100   6.075
80942SOL     OW44722   8.453  14.463   5.193
80942SOL    HW144723   8.532  14.433   5.148
80942SOL    HW244724   8.381  14.432   5.139
80943SOL     OW44725   7.313   2.438   0.541
80943SOL    HW144726   7.300   2.438   0.636
80943SOL    HW244727   7.394   2.486   0.527
80944SOL     OW44728   1.962   7.210   8.878
80944SOL    HW144729   2.038   7.178   8.829
80944SOL    HW244730   1.986   7.199   8.970
80945SOL     OW44731   4.820  10.480  11.207
80945SOL    HW144732   4.823  10.563  11.161
80945SOL    HW244733   4.836  10.414  11.140
80946SOL     OW44734   1.071   3.410  10.278
80946SOL    HW144735   1.099   3.319  10.270
80946SOL    HW244736   1.108   3.440  10.361
80947SOL     OW44737  14.346   9.485   2.147
80947SOL    HW144738  14.437   9.473   2.173
80947SOL    HW244739  14.341   9.575   2.116
80948SOL     OW44740   3.647  12.307   1.068
80948SOL    HW144741   3.620  12.318   1.159
80948SOL    HW244742   3.728  12.256   1.073
80949SOL     OW44743  11.816   3.561   7.202
80949SOL    HW144744  11.778   3.525   7.282
80949SOL    HW244745  11.793   3.498   7.134
80950SOL     OW44746  10.277  12.807   0.945
80950SOL    HW144747  10.206  12.869   0.958
80950SOL    HW244748  10.239  12.722   0.967
80951SOL     OW44749   2.248  12.502  14.035
80951SOL    HW144750   2.265  12.414  14.068
80951SOL    HW244751   2.237  12.491  13.941
80952SOL     OW44752   2.894   4.291  10.826
80952SOL    HW144753   2.827   4.295  10.894
80952SOL    HW244754   2.851   4.323  10.747
80953SOL     OW44755   9.612  14.874   1.600
80953SOL    HW144756   9.698   0.021   1.622
80953SOL    HW244757   9.593  14.810   1.668
80954SOL     OW44758   7.953   7.532   1.453
80954SOL    HW144759   8.044   7.548   1.426
80954SOL    HW244760   7.959   7.515   1.547
80955SOL     OW44761   3.788   6.774   7.304
80955SOL    HW144762   3.704   6.744   7.340
80955SOL    HW244763   3.844   6.697   7.305
80956SOL     OW44764  13.515  13.840  12.457
80956SOL    HW144765  13.552  13.819  12.543
80956SOL    HW244766  13.464  13.919  12.472
80957SOL     OW44767  10.211  12.792   4.747
80957SOL    HW144768  10.243  12.717   4.798
80957SOL    HW244769  10.126  12.813   4.785
80958SOL     OW44770  12.224   3.170   0.879
80958SOL    HW144771  12.294   3.221   0.839
80958SOL    HW244772  12.163   3.153   0.807
80959SOL     OW44773  14.553  10.827   7.279
80959SOL    HW144774  14.510  10.887   7.218
80959SOL    HW244775  14.489  10.814   7.349
80960SOL     OW44776   0.714   6.818  13.563
80960SOL    HW144777   0.675   6.893  13.518
80960SOL    HW244778   0.792   6.853  13.605
80961SOL     OW44779  14.270  10.945   3.537
80961SOL    HW144780  14.270  10.851   3.555
80961SOL    HW244781  14.361  10.972   3.552
80962SOL     OW44782  13.594  10.629  13.795
80962SOL    HW144783  13.592  10.667  13.707
80962SOL    HW244784  13.539  10.552  13.790
80963SOL     OW44785   4.653   8.889  11.041
80963SOL    HW144786   4.735   8.938  11.047
80963SOL    HW244787   4.586   8.953  11.067
80964SOL     OW44788  11.999  13.997   3.102
80964SOL    HW144789  12.083  14.043   3.101
80964SOL    HW244790  11.946  14.046   3.165
80965SOL     OW44791   1.523   6.893   9.422
80965SOL    HW144792   1.466   6.821   9.398
80965SOL    HW244793   1.605   6.877   9.375
80966SOL     OW44794   9.594   6.051   4.552
80966SOL    HW144795   9.666   6.112   4.569
80966SOL    HW244796   9.518   6.107   4.538
80967SOL     OW44797  12.089  13.277   0.081
80967SOL    HW144798  12.082  13.253  14.876
80967SOL    HW244799  12.119  13.198   0.125
80968SOL     OW44800  12.842   6.388  10.103
80968SOL    HW144801  12.922   6.342  10.080
80968SOL    HW244802  12.799   6.404  10.018
80969SOL     OW44803   0.380   2.412   9.369
80969SOL    HW144804   0.318   2.381   9.303
80969SOL    HW244805   0.439   2.338   9.383
80970SOL     OW44806   9.894   9.441  13.595
80970SOL    HW144807   9.836   9.474  13.663
80970SOL    HW244808   9.868   9.350  13.583
80971SOL     OW44809   6.467  10.299   2.768
80971SOL    HW144810   6.520  10.349   2.829
80971SOL    HW244811   6.382  10.344   2.767
80972SOL     OW44812  12.002   2.265   5.401
80972SOL    HW144813  12.057   2.279   5.323
80972SOL    HW244814  11.920   2.231   5.366
80973SOL     OW44815   0.915  12.355   5.655
80973SOL    HW144816   0.987  12.307   5.613
80973SOL    HW244817   0.891  12.301   5.731
80974SOL     OW44818   4.756   0.490  10.612
80974SOL    HW144819   4.669   0.529  10.604
80974SOL    HW244820   4.781   0.505  10.704
80975SOL     OW44821   4.442   3.463   3.392
80975SOL    HW144822   4.460   3.470   3.298
80975SOL    HW244823   4.424   3.370   3.406
80976SOL     OW44824   0.066   2.898   4.901
80976SOL    HW144825   0.046   2.858   4.985
80976SOL    HW244826   0.162   2.895   4.895
80977SOL     OW44827  11.582  12.321  10.871
80977SOL    HW144828  11.550  12.269  10.798
80977SOL    HW244829  11.507  12.327  10.930
80978SOL     OW44830   1.096  11.443  12.731
80978SOL    HW144831   1.061  11.517  12.780
80978SOL    HW244832   1.046  11.442  12.649
80979SOL     OW44833   2.136   2.642   8.053
80979SOL    HW144834   2.219   2.632   8.101
80979SOL    HW244835   2.138   2.731   8.019
80980SOL     OW44836  11.451   7.485   9.079
80980SOL    HW144837  11.455   7.581   9.077
80980SOL    HW244838  11.407   7.462   8.997
80981SOL     OW44839   7.020   6.724   7.284
80981SOL    HW144840   7.113   6.744   7.290
80981SOL    HW244841   6.977   6.809   7.282
80982SOL     OW44842  13.399   1.146   4.241
80982SOL    HW144843  13.316   1.177   4.278
80982SOL    HW244844  13.466   1.194   4.290
80983SOL     OW44845  10.755   0.909   0.956
80983SOL    HW144846  10.797   0.988   0.988
80983SOL    HW244847  10.820   0.840   0.969
80984SOL     OW44848   4.973  11.039   6.709
80984SOL    HW144849   5.063  11.063   6.688
80984SOL    HW244850   4.970  10.944   6.696
80985SOL     OW44851   0.824   5.424  12.638
80985SOL    HW144852   0.745   5.380  12.606
80985SOL    HW244853   0.885   5.352  12.659
80986SOL     OW44854   2.140  12.697   6.996
80986SOL    HW144855   2.065  12.699   6.937
80986SOL    HW244856   2.102  12.688   7.083
80987SOL     OW44857   9.421   0.067   6.588
80987SOL    HW144858   9.369  14.882   6.623
80987SOL    HW244859   9.509   0.053   6.624
80988SOL     OW44860   9.366   9.365   2.861
80988SOL    HW144861   9.302   9.432   2.839
80988SOL    HW244862   9.348   9.293   2.801
80989SOL     OW44863   2.999   9.948  10.803
80989SOL    HW144864   2.964   9.990  10.881
80989SOL    HW244865   3.033  10.020  10.750
80990SOL     OW44866  10.230  13.096   9.961
80990SOL    HW144867  10.263  13.147   9.888
80990SOL    HW244868  10.282  13.016   9.960
80991SOL     OW44869   0.202   0.063   3.296
80991SOL    HW144870   0.141   0.026   3.231
80991SOL    HW244871   0.147   0.116   3.353
80992SOL     OW44872  13.898   9.315   7.744
80992SOL    HW144873  13.905   9.271   7.659
80992SOL    HW244874  13.829   9.268   7.790
80993SOL     OW44875  11.834  12.324   4.309
80993SOL    HW144876  11.751  12.294   4.348
80993SOL    HW244877  11.896  12.255   4.330
80994SOL     OW44878   4.909  14.471   9.552
80994SOL    HW144879   4.813  14.477   9.548
80994SOL    HW244880   4.925  14.390   9.602
80995SOL     OW44881   7.853   7.555  12.405
80995SOL    HW144882   7.892   7.468  12.415
80995SOL    HW244883   7.798   7.548  12.327
80996SOL     OW44884  11.069   0.456   8.143
80996SOL    HW144885  11.033   0.401   8.212
80996SOL    HW244886  11.163   0.440   8.145
80997SOL     OW44887   1.252   8.523   5.528
80997SOL    HW144888   1.259   8.449   5.588
80997SOL    HW244889   1.331   8.517   5.474
80998SOL     OW44890  10.589   4.430   0.954
80998SOL    HW144891  10.669   4.482   0.956
80998SOL    HW244892  10.562   4.432   0.862
80999SOL     OW44893   4.614  10.045  10.697
80999SOL    HW144894   4.542   9.986  10.717
80999SOL    HW244895   4.615  10.051  10.602
81000SOL     OW44896   4.773   7.595  14.361
81000SOL    HW144897   4.838   7.534  14.326
81000SOL    HW244898   4.723   7.542  14.423
81001SOL     OW44899   1.884   9.462  13.420
81001SOL    HW144900   1.819   9.530  13.405
81001SOL    HW244901   1.833   9.384  13.443
81002SOL     OW44902  13.166   1.660   7.288
81002SOL    HW144903  13.179   1.754   7.301
81002SOL    HW244904  13.107   1.654   7.213
81003SOL     OW44905  13.947   3.375  10.128
81003SOL    HW144906  13.881   3.434  10.091
81003SOL    HW244907  13.955   3.305  10.064
81004SOL     OW44908   2.335   5.448   3.163
81004SOL    HW144909   2.430   5.436   3.170
81004SOL    HW244910   2.303   5.441   3.253
81005SOL     OW44911   3.117   2.898   4.942
81005SOL    HW144912   3.117   2.806   4.915
81005SOL    HW244913   3.027   2.927   4.929
81006SOL     OW44914   4.331  13.763   1.774
81006SOL    HW144915   4.325  13.858   1.769
81006SOL    HW244916   4.334  13.744   1.868
81007SOL     OW44917   8.133  10.012  12.825
81007SOL    HW144918   8.144   9.994  12.919
81007SOL    HW244919   8.039  10.006  12.810
81008SOL     OW44920   0.292  10.870   2.059
81008SOL    HW144921   0.360  10.827   2.007
81008SOL    HW244922   0.296  10.825   2.144
81009SOL     OW44923  13.852  14.594   9.240
81009SOL    HW144924  13.934  14.569   9.283
81009SOL    HW244925  13.836  14.684   9.269
81010SOL     OW44926   0.791  12.440  11.773
81010SOL    HW144927   0.711  12.430  11.824
81010SOL    HW244928   0.778  12.384  11.697
81011SOL     OW44929   5.180   0.444   6.993
81011SOL    HW144930   5.123   0.521   6.995
81011SOL    HW244931   5.170   0.408   6.905
81012SOL     OW44932   9.378   2.675   7.895
81012SOL    HW144933   9.388   2.727   7.975
81012SOL    HW244934   9.381   2.584   7.925
81013SOL     OW44935   8.321  10.908   1.705
81013SOL    HW144936   8.383  10.929   1.775
81013SOL    HW244937   8.334  10.814   1.690
81014SOL     OW44938   7.753   6.161  14.690
81014SOL    HW144939   7.801   6.088  14.728
81014SOL    HW244940   7.751   6.228  14.759
81015SOL     OW44941   2.261   7.306  11.820
81015SOL    HW144942   2.306   7.268  11.895
81015SOL    HW244943   2.320   7.291  11.746
81016SOL     OW44944   4.467   0.133   4.266
81016SOL    HW144945   4.466   0.097   4.355
81016SOL    HW244946   4.427   0.219   4.274
81017SOL     OW44947   7.433   9.216   0.943
81017SOL    HW144948   7.397   9.152   1.005
81017SOL    HW244949   7.409   9.301   0.980
81018SOL     OW44950   4.616   3.874   2.514
81018SOL    HW144951   4.687   3.876   2.578
81018SOL    HW244952   4.622   3.787   2.474
81019SOL     OW44953  10.968   1.021  14.237
81019SOL    HW144954  11.018   1.099  14.260
81019SOL    HW244955  11.033   0.960  14.201
81020SOL     OW44956   3.631   7.223  11.331
81020SOL    HW144957   3.548   7.233  11.377
81020SOL    HW244958   3.611   7.240  11.239
81021SOL     OW44959   1.028   7.308   9.697
81021SOL    HW144960   1.059   7.258   9.621
81021SOL    HW244961   1.086   7.384   9.700
81022SOL     OW44962  10.823   8.666   7.911
81022SOL    HW144963  10.917   8.677   7.899
81022SOL    HW244964  10.815   8.603   7.982
81023SOL     OW44965   7.736   7.832   9.475
81023SOL    HW144966   7.678   7.770   9.430
81023SOL    HW244967   7.811   7.778   9.502
81024SOL     OW44968  13.220   8.541   9.793
81024SOL    HW144969  13.150   8.587   9.839
81024SOL    HW244970  13.290   8.606   9.785
81025SOL     OW44971   4.102   5.669  10.580
81025SOL    HW144972   4.080   5.640  10.492
81025SOL    HW244973   4.113   5.588  10.630
81026SOL     OW44974   6.075   6.431   0.417
81026SOL    HW144975   6.170   6.419   0.407
81026SOL    HW244976   6.048   6.480   0.340
81027SOL     OW44977   7.278   7.924   4.073
81027SOL    HW144978   7.197   7.966   4.100
81027SOL    HW244979   7.300   7.964   3.990
81028SOL     OW44980   4.781  10.656  10.671
81028SOL    HW144981   4.702  10.613  10.638
81028SOL    HW244982   4.791  10.624  10.760
81029SOL     OW44983  11.860   3.910   3.128
81029SOL    HW144984  11.929   3.938   3.188
81029SOL    HW244985  11.784   3.895   3.184
81030SOL     OW44986   9.902   6.992   7.351
81030SOL    HW144987   9.853   7.003   7.432
81030SOL    HW244988   9.871   7.062   7.293
81031SOL     OW44989  11.493  14.549  12.904
81031SOL    HW144990  11.499  14.498  12.984
81031SOL    HW244991  11.495  14.640  12.934
81032SOL     OW44992  13.596   5.732  12.372
81032SOL    HW144993  13.617   5.782  12.293
81032SOL    HW244994  13.678   5.731  12.422
81033SOL     OW44995   3.105   9.382   6.724
81033SOL    HW144996   3.108   9.308   6.784
81033SOL    HW244997   3.050   9.352   6.652
81034SOL     OW44998   3.844   2.238  13.044
81034SOL    HW144999   3.918   2.298  13.049
81034SOL    HW245000   3.774   2.281  13.093
81035SOL     OW45001  14.380   4.163  11.450
81035SOL    HW145002  14.455   4.128  11.401
81035SOL    HW245003  14.417   4.191  11.533
81036SOL     OW45004   0.263   7.456  14.189
81036SOL    HW145005   0.196   7.468  14.256
81036SOL    HW245006   0.226   7.495  14.110
81037SOL     OW45007  13.717   3.071   4.078
81037SOL    HW145008  13.664   3.147   4.101
81037SOL    HW245009  13.783   3.105   4.018
81038SOL     OW45010  10.093   7.651  14.811
81038SOL    HW145011  10.152   7.687  14.878
81038SOL    HW245012  10.010   7.639  14.857
81039SOL     OW45013   7.166   1.347   7.879
81039SOL    HW145014   7.179   1.384   7.966
81039SOL    HW245015   7.153   1.423   7.822
81040SOL     OW45016   2.650   7.753  12.338
81040SOL    HW145017   2.713   7.708  12.282
81040SOL    HW245018   2.565   7.723  12.307
81041SOL     OW45019  10.679   5.228  14.556
81041SOL    HW145020  10.598   5.273  14.582
81041SOL    HW245021  10.749   5.283  14.592
81042SOL     OW45022   3.429   0.418  11.441
81042SOL    HW145023   3.476   0.469  11.375
81042SOL    HW245024   3.491   0.412  11.514
81043SOL     OW45025   9.814   0.713  12.643
81043SOL    HW145026   9.799   0.656  12.718
81043SOL    HW245027   9.747   0.687  12.579
81044SOL     OW45028   1.107  11.550   2.628
81044SOL    HW145029   1.067  11.508   2.704
81044SOL    HW245030   1.164  11.483   2.590
81045SOL     OW45031   7.631   2.817   9.407
81045SOL    HW145032   7.565   2.757   9.371
81045SOL    HW245033   7.581   2.892   9.439
81046SOL     OW45034   9.222   8.688   2.485
81046SOL    HW145035   9.223   8.721   2.395
81046SOL    HW245036   9.182   8.759   2.535
81047SOL     OW45037   5.516   5.948   3.743
81047SOL    HW145038   5.557   5.864   3.721
81047SOL    HW245039   5.585   6.012   3.731
81048SOL     OW45040   6.236   6.674   4.782
81048SOL    HW145041   6.195   6.692   4.867
81048SOL    HW245042   6.197   6.591   4.754
81049SOL     OW45043   6.420   0.412   2.482
81049SOL    HW145044   6.436   0.477   2.551
81049SOL    HW245045   6.475   0.337   2.507
81050SOL     OW45046  10.504  10.541   6.954
81050SOL    HW145047  10.476  10.500   7.036
81050SOL    HW245048  10.547  10.622   6.982
81051SOL     OW45049   5.537   8.745   8.424
81051SOL    HW145050   5.628   8.714   8.427
81051SOL    HW245051   5.520   8.761   8.331
81052SOL     OW45052   8.863   7.000   0.312
81052SOL    HW145053   8.924   7.071   0.332
81052SOL    HW245054   8.917   6.921   0.311
81053SOL     OW45055  10.896  13.857   7.549
81053SOL    HW145056  10.840  13.934   7.555
81053SOL    HW245057  10.905  13.842   7.455
81054SOL     OW45058   1.029   2.142   9.575
81054SOL    HW145059   1.058   2.140   9.484
81054SOL    HW245060   1.106   2.111   9.624
81055SOL     OW45061   5.726   9.085  14.670
81055SOL    HW145062   5.737   9.156  14.732
81055SOL    HW245063   5.634   9.062  14.675
81056SOL     OW45064   0.230   7.282  10.052
81056SOL    HW145065   0.285   7.355  10.081
81056SOL    HW245066   0.141   7.311  10.074
81057SOL     OW45067   5.525   2.222   6.666
81057SOL    HW145068   5.447   2.200   6.613
81057SOL    HW245069   5.516   2.317   6.681
81058SOL     OW45070   2.783  13.499   9.261
81058SOL    HW145071   2.872  13.495   9.296
81058SOL    HW245072   2.735  13.432   9.310
81059SOL     OW45073  14.381  11.920  13.577
81059SOL    HW145074  14.345  11.859  13.512
81059SOL    HW245075  14.434  11.981  13.526
81060SOL     OW45076   9.077  12.202  12.301
81060SOL    HW145077   9.172  12.203  12.295
81060SOL    HW245078   9.048  12.151  12.225
81061SOL     OW45079   2.775  10.265   5.424
81061SOL    HW145080   2.776  10.238   5.332
81061SOL    HW245081   2.861  10.240   5.457
81062SOL     OW45082   5.702  14.354   8.192
81062SOL    HW145083   5.739  14.440   8.170
81062SOL    HW245084   5.662  14.367   8.279
81063SOL     OW45085   7.889   4.400   1.988
81063SOL    HW145086   7.964   4.399   2.048
81063SOL    HW245087   7.830   4.333   2.023
81064SOL     OW45088   1.557   0.222   2.157
81064SOL    HW145089   1.462   0.213   2.163
81064SOL    HW245090   1.584   0.152   2.098
81065SOL     OW45091  10.956  13.518  11.969
81065SOL    HW145092  10.870  13.480  11.985
81065SOL    HW245093  10.939  13.611  11.954
81066SOL     OW45094   7.390   3.216   2.343
81066SOL    HW145095   7.325   3.178   2.284
81066SOL    HW245096   7.405   3.304   2.308
81067SOL     OW45097  14.169   2.124   0.056
81067SOL    HW145098  14.190   2.052   0.116
81067SOL    HW245099  14.154   2.081  14.859
81068SOL     OW45100   7.170   3.855  12.184
81068SOL    HW145101   7.105   3.797  12.144
81068SOL    HW245102   7.226   3.796  12.235
81069SOL     OW45103   8.134   7.776   2.329
81069SOL    HW145104   8.137   7.856   2.382
81069SOL    HW245105   8.171   7.709   2.386
81070SOL     OW45106   2.282   9.012  13.624
81070SOL    HW145107   2.306   8.972  13.708
81070SOL    HW245108   2.364   9.049  13.591
81071SOL     OW45109   7.533   8.849   2.869
81071SOL    HW145110   7.625   8.831   2.850
81071SOL    HW245111   7.529   8.944   2.881
81072SOL     OW45112   3.961   7.906   4.661
81072SOL    HW145113   3.896   7.837   4.654
81072SOL    HW245114   3.916   7.977   4.707
81073SOL     OW45115   9.373   5.506  13.641
81073SOL    HW145116   9.406   5.474  13.557
81073SOL    HW245117   9.400   5.598  13.644
81074SOL     OW45118  13.940   8.705   9.314
81074SOL    HW145119  13.990   8.778   9.350
81074SOL    HW245120  13.855   8.709   9.358
81075SOL     OW45121   5.640   6.426   5.326
81075SOL    HW145122   5.574   6.454   5.263
81075SOL    HW245123   5.607   6.342   5.359
81076SOL     OW45124   4.488   6.747   8.639
81076SOL    HW145125   4.535   6.663   8.642
81076SOL    HW245126   4.470   6.760   8.546
81077SOL     OW45127  11.391   2.603  10.495
81077SOL    HW145128  11.425   2.621  10.408
81077SOL    HW245129  11.422   2.676  10.549
81078SOL     OW45130   1.445   2.711  10.237
81078SOL    HW145131   1.368   2.753  10.276
81078SOL    HW245132   1.496   2.783  10.200
81079SOL     OW45133   5.754  12.704  10.700
81079SOL    HW145134   5.690  12.708  10.629
81079SOL    HW245135   5.715  12.645  10.764
81080SOL     OW45136   4.508   6.014  12.840
81080SOL    HW145137   4.573   6.043  12.904
81080SOL    HW245138   4.473   6.096  12.803
81081SOL     OW45139   4.660   8.384   1.686
81081SOL    HW145140   4.705   8.450   1.739
81081SOL    HW245141   4.568   8.391   1.712
81082SOL     OW45142   0.900   2.481   7.518
81082SOL    HW145143   0.809   2.500   7.540
81082SOL    HW245144   0.900   2.466   7.423
81083SOL     OW45145  10.827  10.756   7.427
81083SOL    HW145146  10.748  10.731   7.380
81083SOL    HW245147  10.837  10.690   7.495
81084SOL     OW45148  11.997   5.689   6.035
81084SOL    HW145149  11.961   5.607   6.003
81084SOL    HW245150  11.964   5.755   5.974
81085SOL     OW45151  12.245  11.397  10.575
81085SOL    HW145152  12.339  11.398  10.594
81085SOL    HW245153  12.236  11.345  10.496
81086SOL     OW45154  14.324   0.784  12.465
81086SOL    HW145155  14.286   0.826  12.542
81086SOL    HW245156  14.414   0.817  12.461
81087SOL     OW45157  13.202   3.855   0.247
81087SOL    HW145158  13.186   3.943   0.282
81087SOL    HW245159  13.289   3.832   0.280
81088SOL     OW45160   5.070  13.127  13.041
81088SOL    HW145161   4.995  13.080  13.005
81088SOL    HW245162   5.045  13.147  13.131
81089SOL     OW45163  12.040   8.425   4.850
81089SOL    HW145164  12.126   8.459   4.825
81089SOL    HW245165  11.984   8.442   4.775
81090SOL     OW45166  14.135  12.099   5.405
81090SOL    HW145167  14.132  12.007   5.431
81090SOL    HW245168  14.066  12.107   5.339
81091SOL     OW45169   0.567   0.899   5.115
81091SOL    HW145170   0.519   0.982   5.115
81091SOL    HW245171   0.570   0.873   5.023
81092SOL     OW45172   1.074  10.137   5.311
81092SOL    HW145173   0.999  10.171   5.359
81092SOL    HW245174   1.037  10.105   5.229
81093SOL     OW45175  10.246   3.315   8.609
81093SOL    HW145176  10.337   3.303   8.582
81093SOL    HW245177  10.237   3.264   8.689
81094SOL     OW45178   7.195  14.204   3.133
81094SOL    HW145179   7.236  14.260   3.066
81094SOL    HW245180   7.116  14.252   3.159
81095SOL     OW45181   2.192  13.206  12.599
81095SOL    HW145182   2.227  13.276  12.543
81095SOL    HW245183   2.097  13.216  12.593
81096SOL     OW45184   6.479   8.406   5.393
81096SOL    HW145185   6.493   8.496   5.422
81096SOL    HW245186   6.559   8.360   5.416
81097SOL     OW45187   4.933  13.300   1.272
81097SOL    HW145188   4.910  13.260   1.188
81097SOL    HW245189   4.977  13.382   1.248
81098SOL     OW45190  11.208   5.582   5.434
81098SOL    HW145191  11.177   5.549   5.519
81098SOL    HW245192  11.198   5.677   5.440
81099SOL     OW45193  13.358  14.745   5.768
81099SOL    HW145194  13.318  14.714   5.849
81099SOL    HW245195  13.363  14.840   5.778
81100SOL     OW45196   6.742   4.446   3.100
81100SOL    HW145197   6.716   4.361   3.135
81100SOL    HW245198   6.676   4.507   3.132
81101SOL     OW45199   6.262   7.175  14.885
81101SOL    HW145200   6.331   7.133  14.834
81101SOL    HW245201   6.242   7.255  14.837
81102SOL     OW45202   6.398   2.163   4.330
81102SOL    HW145203   6.406   2.136   4.238
81102SOL    HW245204   6.469   2.117   4.374
81103SOL     OW45205   3.068  10.408  10.701
81103SOL    HW145206   3.129  10.473  10.735
81103SOL    HW245207   2.982  10.439  10.729
81104SOL     OW45208  10.990   0.058   8.819
81104SOL    HW145209  10.955   0.147   8.810
81104SOL    HW245210  10.918   0.001   8.793
81105SOL     OW45211  13.795   0.714   8.389
81105SOL    HW145212  13.843   0.662   8.324
81105SOL    HW245213  13.703   0.699   8.368
81106SOL     OW45214   2.611  14.184   6.274
81106SOL    HW145215   2.566  14.203   6.357
81106SOL    HW245216   2.701  14.211   6.290
81107SOL     OW45217  10.963   9.269   5.887
81107SOL    HW145218  10.966   9.173   5.882
81107SOL    HW245219  11.050   9.297   5.861
81108SOL     OW45220   0.168  11.507   1.439
81108SOL    HW145221   0.170  11.601   1.423
81108SOL    HW245222   0.101  11.473   1.379
81109SOL     OW45223   1.721   9.315   0.684
81109SOL    HW145224   1.699   9.310   0.777
81109SOL    HW245225   1.694   9.404   0.658
81110SOL     OW45226  13.599   9.647  13.889
81110SOL    HW145227  13.523   9.607  13.931
81110SOL    HW245228  13.622   9.586  13.818
81111SOL     OW45229   4.754  12.281   2.833
81111SOL    HW145230   4.696  12.347   2.796
81111SOL    HW245231   4.832  12.283   2.777
81112SOL     OW45232  10.867  10.537   5.332
81112SOL    HW145233  10.820  10.531   5.416
81112SOL    HW245234  10.809  10.493   5.270
81113SOL     OW45235   8.007   2.217   3.528
81113SOL    HW145236   8.016   2.208   3.622
81113SOL    HW245237   7.913   2.212   3.512
81114SOL     OW45238  14.449   1.876   5.512
81114SOL    HW145239  14.526   1.919   5.549
81114SOL    HW245240  14.459   1.889   5.417
81115SOL     OW45241   5.565   0.891  14.024
81115SOL    HW145242   5.641   0.947  14.009
81115SOL    HW245243   5.496   0.928  13.969
81116SOL     OW45244   2.536   5.469   7.189
81116SOL    HW145245   2.552   5.409   7.262
81116SOL    HW245246   2.441   5.469   7.179
81117SOL     OW45247   2.996   8.298  11.526
81117SOL    HW145248   3.088   8.313  11.507
81117SOL    HW245249   2.977   8.211  11.490
81118SOL     OW45250  14.826   4.874  13.142
81118SOL    HW145251  14.862   4.955  13.179
81118SOL    HW245252   0.014   4.817  13.130
81119SOL     OW45253   9.531   1.384   5.295
81119SOL    HW145254   9.559   1.466   5.337
81119SOL    HW245255   9.546   1.398   5.202
81120SOL     OW45256   8.893   7.129  14.734
81120SOL    HW145257   8.916   7.036  14.739
81120SOL    HW245258   8.808   7.135  14.779
81121SOL     OW45259   0.848  12.697  11.392
81121SOL    HW145260   0.779  12.662  11.449
81121SOL    HW245261   0.900  12.753  11.449
81122SOL     OW45262   7.652   7.826  11.707
81122SOL    HW145263   7.647   7.896  11.642
81122SOL    HW245264   7.709   7.760  11.666
81123SOL     OW45265   8.879   0.371  12.792
81123SOL    HW145266   8.974   0.365  12.806
81123SOL    HW245267   8.869   0.371  12.697
81124SOL     OW45268  13.524  11.256   4.828
81124SOL    HW145269  13.561  11.342   4.851
81124SOL    HW245270  13.453  11.276   4.768
81125SOL     OW45271   9.628  12.699   1.128
81125SOL    HW145272   9.692  12.628   1.122
81125SOL    HW245273   9.673  12.767   1.178
81126SOL     OW45274  12.145  14.863  11.441
81126SOL    HW145275  12.103  14.829  11.519
81126SOL    HW245276  12.087   0.045  11.411
81127SOL     OW45277   2.593  10.078  11.610
81127SOL    HW145278   2.563  10.114  11.526
81127SOL    HW245279   2.593   9.984  11.597
81128SOL     OW45280   1.283   9.647  13.217
81128SOL    HW145281   1.323   9.560  13.213
81128SOL    HW245282   1.233   9.647  13.298
81129SOL     OW45283  13.673   1.647  11.185
81129SOL    HW145284  13.660   1.673  11.094
81129SOL    HW245285  13.762   1.675  11.206
81130SOL     OW45286   8.823   5.256   4.954
81130SOL    HW145287   8.804   5.162   4.956
81130SOL    HW245288   8.902   5.263   4.901
81131SOL     OW45289   1.145   3.286   8.201
81131SOL    HW145290   1.178   3.197   8.209
81131SOL    HW245291   1.123   3.312   8.290
81132SOL     OW45292   2.264  10.647  11.143
81132SOL    HW145293   2.299  10.622  11.229
81132SOL    HW245294   2.242  10.739  11.152
81133SOL     OW45295  14.521   6.285   6.771
81133SOL    HW145296  14.441   6.285   6.822
81133SOL    HW245297  14.536   6.193   6.750
81134SOL     OW45298   6.509   3.687   9.804
81134SOL    HW145299   6.520   3.604   9.850
81134SOL    HW245300   6.445   3.736   9.857
81135SOL     OW45301   6.577  12.595  11.632
81135SOL    HW145302   6.527  12.528  11.585
81135SOL    HW245303   6.572  12.568  11.724
81136SOL     OW45304   7.064  10.763   9.155
81136SOL    HW145305   6.984  10.806   9.182
81136SOL    HW245306   7.036  10.676   9.127
81137SOL     OW45307   4.054  11.069   2.204
81137SOL    HW145308   4.042  11.027   2.119
81137SOL    HW245309   4.137  11.117   2.196
81138SOL     OW45310  14.580  12.321   8.474
81138SOL    HW145311  14.488  12.310   8.497
81138SOL    HW245312  14.607  12.401   8.520
81139SOL     OW45313   4.992   9.403   4.905
81139SOL    HW145314   4.978   9.495   4.928
81139SOL    HW245315   5.043   9.368   4.978
81140SOL     OW45316   0.604   8.325   4.118
81140SOL    HW145317   0.670   8.391   4.095
81140SOL    HW245318   0.530   8.375   4.152
81141SOL     OW45319   9.270   6.265   6.598
81141SOL    HW145320   9.203   6.255   6.665
81141SOL    HW245321   9.303   6.354   6.610
81142SOL     OW45322   9.067   7.255   0.412
81142SOL    HW145323   9.137   7.272   0.475
81142SOL    HW245324   9.112   7.225   0.334
81143SOL     OW45325  13.218   6.067  11.932
81143SOL    HW145326  13.228   6.149  11.979
81143SOL    HW245327  13.188   6.005  11.998
81144SOL     OW45328   3.932   4.990   0.766
81144SOL    HW145329   3.888   4.964   0.846
81144SOL    HW245330   3.999   5.053   0.794
81145SOL     OW45331   9.645  13.283  13.561
81145SOL    HW145332   9.580  13.351  13.577
81145SOL    HW245333   9.728  13.330  13.552
81146SOL     OW45334   7.978   7.475  13.063
81146SOL    HW145335   8.051   7.521  13.022
81146SOL    HW245336   7.984   7.385  13.031
81147SOL     OW45337   6.498   3.630  10.586
81147SOL    HW145338   6.530   3.590  10.505
81147SOL    HW245339   6.445   3.704  10.557
81148SOL     OW45340   3.502   7.259   0.003
81148SOL    HW145341   3.522   7.190   0.067
81148SOL    HW245342   3.585   7.303  14.876
81149SOL     OW45343   0.917   1.770   3.673
81149SOL    HW145344   0.894   1.801   3.760
81149SOL    HW245345   0.848   1.707   3.651
81150SOL     OW45346   9.276  12.897  10.131
81150SOL    HW145347   9.367  12.909  10.105
81150SOL    HW245348   9.273  12.810  10.171
81151SOL     OW45349   2.056   1.065  11.300
81151SOL    HW145350   2.055   1.071  11.396
81151SOL    HW245351   1.985   1.005  11.279
81152SOL     OW45352   6.804   8.834  12.480
81152SOL    HW145353   6.829   8.756  12.530
81152SOL    HW245354   6.852   8.906  12.521
81153SOL     OW45355  12.018   3.678  11.705
81153SOL    HW145356  12.077   3.753  11.714
81153SOL    HW245357  11.931   3.716  11.695
81154SOL     OW45358   7.416   4.649  11.907
81154SOL    HW145359   7.489   4.711  11.909
81154SOL    HW245360   7.349   4.690  11.961
81155SOL     OW45361   4.149  14.658   1.370
81155SOL    HW145362   4.152  14.725   1.302
81155SOL    HW245363   4.208  14.589   1.339
81156SOL     OW45364   3.954  10.643   8.413
81156SOL    HW145365   3.885  10.584   8.382
81156SOL    HW245366   4.035  10.602   8.382
81157SOL     OW45367  13.482  10.969  10.288
81157SOL    HW145368  13.469  10.908  10.215
81157SOL    HW245369  13.410  10.951  10.348
81158SOL     OW45370  12.224   2.449  11.020
81158SOL    HW145371  12.254   2.398  11.095
81158SOL    HW245372  12.197   2.384  10.955
81159SOL     OW45373   3.124  11.702   8.835
81159SOL    HW145374   3.154  11.729   8.921
81159SOL    HW245375   3.083  11.616   8.849
81160SOL     OW45376   4.386  11.911   6.665
81160SOL    HW145377   4.422  11.862   6.591
81160SOL    HW245378   4.339  11.984   6.625
81161SOL     OW45379   3.182  14.520   8.181
81161SOL    HW145380   3.165  14.445   8.239
81161SOL    HW245381   3.159  14.489   8.094
81162SOL     OW45382   2.994  11.305   4.192
81162SOL    HW145383   3.075  11.256   4.177
81162SOL    HW245384   2.991  11.370   4.123
81163SOL     OW45385   4.028   5.432   9.164
81163SOL    HW145386   4.051   5.378   9.088
81163SOL    HW245387   4.103   5.424   9.222
81164SOL     OW45388   3.500   7.799   1.758
81164SOL    HW145389   3.564   7.813   1.688
81164SOL    HW245390   3.552   7.796   1.838
81165SOL     OW45391   9.026   9.086  12.412
81165SOL    HW145392   9.109   9.040  12.400
81165SOL    HW245393   9.051   9.173  12.442
81166SOL     OW45394   8.434   7.473   4.624
81166SOL    HW145395   8.506   7.522   4.665
81166SOL    HW245396   8.373   7.455   4.696
81167SOL     OW45397  11.455  13.727   3.676
81167SOL    HW145398  11.400  13.781   3.619
81167SOL    HW245399  11.403  13.715   3.755
81168SOL     OW45400   1.821   2.351   1.723
81168SOL    HW145401   1.822   2.446   1.737
81168SOL    HW245402   1.733   2.323   1.748
81169SOL     OW45403  10.022   8.430   9.926
81169SOL    HW145404  10.103   8.381   9.941
81169SOL    HW245405   9.976   8.379   9.859
81170SOL     OW45406   9.652   5.326   5.243
81170SOL    HW145407   9.703   5.247   5.261
81170SOL    HW245408   9.592   5.334   5.317
81171SOL     OW45409   6.278   1.170   0.509
81171SOL    HW145410   6.246   1.257   0.530
81171SOL    HW245411   6.331   1.182   0.430
81172SOL     OW45412  12.690   3.243  12.088
81172SOL    HW145413  12.737   3.261  12.006
81172SOL    HW245414  12.604   3.211  12.060
81173SOL     OW45415   6.761   3.313   9.654
81173SOL    HW145416   6.844   3.265   9.654
81173SOL    HW245417   6.703   3.263   9.597
81174SOL     OW45418   6.456   1.081   2.376
81174SOL    HW145419   6.375   1.098   2.328
81174SOL    HW245420   6.501   1.165   2.379
81175SOL     OW45421  11.160  12.542  10.298
81175SOL    HW145422  11.170  12.536  10.393
81175SOL    HW245423  11.144  12.635  10.282
81176SOL     OW45424   4.697  12.848   2.656
81176SOL    HW145425   4.704  12.942   2.645
81176SOL    HW245426   4.759  12.812   2.592
81177SOL     OW45427   2.954   6.547   4.538
81177SOL    HW145428   2.886   6.597   4.494
81177SOL    HW245429   2.942   6.568   4.631
81178SOL     OW45430   2.521  10.588  12.124
81178SOL    HW145431   2.447  10.571  12.066
81178SOL    HW245432   2.596  10.548  12.079
81179SOL     OW45433  12.957   6.848  11.499
81179SOL    HW145434  12.893   6.918  11.501
81179SOL    HW245435  12.929   6.792  11.427
81180SOL     OW45436  11.366  12.413  14.382
81180SOL    HW145437  11.309  12.390  14.455
81180SOL    HW245438  11.450  12.433  14.423
81181SOL     OW45439   8.516   5.701  14.061
81181SOL    HW145440   8.510   5.795  14.078
81181SOL    HW245441   8.503   5.693  13.967
81182SOL     OW45442   3.321  14.390   5.615
81182SOL    HW145443   3.309  14.473   5.662
81182SOL    HW245444   3.244  14.385   5.557
81183SOL     OW45445  10.645  13.753   4.294
81183SOL    HW145446  10.717  13.775   4.352
81183SOL    HW245447  10.658  13.809   4.217
81184SOL     OW45448   4.475   6.014  12.461
81184SOL    HW145449   4.549   5.954  12.450
81184SOL    HW245450   4.514   6.101  12.454
81185SOL     OW45451  11.966   7.333   9.913
81185SOL    HW145452  11.956   7.411   9.858
81185SOL    HW245453  11.922   7.356   9.994
81186SOL     OW45454  12.114   4.998   3.325
81186SOL    HW145455  12.038   5.022   3.271
81186SOL    HW245456  12.126   4.905   3.309
81187SOL     OW45457  12.666   4.123   0.671
81187SOL    HW145458  12.590   4.181   0.668
81187SOL    HW245459  12.737   4.177   0.706
81188SOL     OW45460  11.934   5.479   8.124
81188SOL    HW145461  11.937   5.473   8.028
81188SOL    HW245462  12.026   5.468   8.150
81189SOL     OW45463   3.722   0.359   6.506
81189SOL    HW145464   3.709   0.366   6.412
81189SOL    HW245465   3.634   0.370   6.543
81190SOL     OW45466  14.852   6.978   5.620
81190SOL    HW145467  14.773   6.946   5.663
81190SOL    HW245468  14.881   7.051   5.674
81191SOL     OW45469  12.144   5.572  10.141
81191SOL    HW145470  12.194   5.581  10.221
81191SOL    HW245471  12.208   5.546  10.075
81192SOL     OW45472  12.765  12.494   6.545
81192SOL    HW145473  12.849  12.451   6.533
81192SOL    HW245474  12.737  12.519   6.457
81193SOL     OW45475  10.819   6.407   9.683
81193SOL    HW145476  10.845   6.394   9.592
81193SOL    HW245477  10.778   6.325   9.709
81194SOL     OW45478   2.205   4.337   7.072
81194SOL    HW145479   2.250   4.386   7.141
81194SOL    HW245480   2.261   4.262   7.055
81195SOL     OW45481  11.064   3.536   3.800
81195SOL    HW145482  11.110   3.568   3.723
81195SOL    HW245483  10.972   3.534   3.775
81196SOL     OW45484   6.232   0.253   6.291
81196SOL    HW145485   6.138   0.240   6.279
81196SOL    HW245486   6.271   0.216   6.212
81197SOL     OW45487  14.373   6.858   5.216
81197SOL    HW145488  14.313   6.839   5.288
81197SOL    HW245489  14.439   6.790   5.221
81198SOL     OW45490   9.412   4.882  10.972
81198SOL    HW145491   9.382   4.808  10.920
81198SOL    HW245492   9.420   4.955  10.910
81199SOL     OW45493  11.329   6.767   9.569
81199SOL    HW145494  11.339   6.854   9.607
81199SOL    HW245495  11.295   6.714   9.641
81200SOL     OW45496   3.491   6.044   7.715
81200SOL    HW145497   3.405   6.008   7.691
81200SOL    HW245498   3.471   6.127   7.759
81201SOL     OW45499   3.384   0.485  10.571
81201SOL    HW145500   3.348   0.507  10.485
81201SOL    HW245501   3.473   0.520  10.569
81202SOL     OW45502   9.214   6.151   6.881
81202SOL    HW145503   9.264   6.081   6.922
81202SOL    HW245504   9.279   6.219   6.862
81203SOL     OW45505   7.826   1.959   3.851
81203SOL    HW145506   7.757   1.893   3.856
81203SOL    HW245507   7.906   1.912   3.871
81204SOL     OW45508   4.757   0.939  13.668
81204SOL    HW145509   4.833   0.970  13.619
81204SOL    HW245510   4.793   0.870  13.724
81205SOL     OW45511   1.034   1.525  12.280
81205SOL    HW145512   0.997   1.551  12.364
81205SOL    HW245513   1.017   1.599  12.222
81206SOL     OW45514   7.023  13.059   5.941
81206SOL    HW145515   6.939  13.062   5.895
81206SOL    HW245516   7.038  12.966   5.959
81207SOL     OW45517   0.427   0.762   3.504
81207SOL    HW145518   0.427   0.685   3.559
81207SOL    HW245519   0.483   0.739   3.430
81208SOL     OW45520  10.477  12.991  11.209
81208SOL    HW145521  10.558  12.942  11.195
81208SOL    HW245522  10.491  13.037  11.291
81209SOL     OW45523   0.145   8.401   4.036
81209SOL    HW145524   0.070   8.365   4.083
81209SOL    HW245525   0.188   8.325   3.998
81210SOL     OW45526  10.245   4.954   7.049
81210SOL    HW145527  10.214   4.918   6.965
81210SOL    HW245528  10.168   4.954   7.105
81211SOL     OW45529  13.193   0.496   9.970
81211SOL    HW145530  13.255   0.512  10.041
81211SOL    HW245531  13.247   0.498   9.891
81212SOL     OW45532   7.693  11.979   5.398
81212SOL    HW145533   7.749  11.930   5.339
81212SOL    HW245534   7.610  11.989   5.351
81213SOL     OW45535   9.030   5.399  14.663
81213SOL    HW145536   9.021   5.387  14.758
81213SOL    HW245537   9.117   5.438  14.652
81214SOL     OW45538   2.501   2.467   4.873
81214SOL    HW145539   2.588   2.428   4.877
81214SOL    HW245540   2.442   2.392   4.865
81215SOL     OW45541   4.426   2.306   4.959
81215SOL    HW145542   4.386   2.297   5.045
81215SOL    HW245543   4.435   2.216   4.927
81216SOL     OW45544  13.819   6.123   7.997
81216SOL    HW145545  13.801   6.185   8.068
81216SOL    HW245546  13.747   6.061   8.000
81217SOL     OW45547   5.042  11.307   7.914
81217SOL    HW145548   5.026  11.252   7.991
81217SOL    HW245549   5.127  11.347   7.931
81218SOL     OW45550  14.439   1.399   4.438
81218SOL    HW145551  14.492   1.459   4.385
81218SOL    HW245552  14.493   1.322   4.450
81219SOL     OW45553  12.327   9.151   6.536
81219SOL    HW145554  12.283   9.191   6.461
81219SOL    HW245555  12.260   9.151   6.605
81220SOL     OW45556  14.678   1.012  14.623
81220SOL    HW145557  14.677   1.085  14.561
81220SOL    HW245558  14.770   0.991  14.636
81221SOL     OW45559   2.944   1.063  14.620
81221SOL    HW145560   2.949   0.973  14.588
81221SOL    HW245561   3.035   1.089  14.633
81222SOL     OW45562   6.750   2.418   0.871
81222SOL    HW145563   6.705   2.479   0.814
81222SOL    HW245564   6.702   2.336   0.861
81223SOL     OW45565  14.052  11.746   5.202
81223SOL    HW145566  14.033  11.711   5.288
81223SOL    HW245567  14.135  11.705   5.177
81224SOL     OW45568   3.325   9.206   0.727
81224SOL    HW145569   3.258   9.199   0.794
81224SOL    HW245570   3.335   9.300   0.712
81225SOL     OW45571  14.271   9.037   6.584
81225SOL    HW145572  14.272   8.980   6.662
81225SOL    HW245573  14.207   9.105   6.605
81226SOL     OW45574  11.257  12.495   1.817
81226SOL    HW145575  11.183  12.519   1.872
81226SOL    HW245576  11.333  12.531   1.862
81227SOL     OW45577   2.824   6.186   9.216
81227SOL    HW145578   2.746   6.165   9.165
81227SOL    HW245579   2.892   6.204   9.151
81228SOL     OW45580   4.426  12.627   0.054
81228SOL    HW145581   4.492  12.606  14.875
81228SOL    HW245582   4.470  12.688   0.113
81229SOL     OW45583   3.966   1.423   9.479
81229SOL    HW145584   4.048   1.466   9.505
81229SOL    HW245585   3.901   1.455   9.541
81230SOL     OW45586  10.662  13.383  14.515
81230SOL    HW145587  10.680  13.377  14.421
81230SOL    HW245588  10.686  13.473  14.538
81231SOL     OW45589   7.527  12.776   7.478
81231SOL    HW145590   7.556  12.784   7.387
81231SOL    HW245591   7.474  12.697   7.480
81232SOL     OW45592   3.403   4.829   4.887
81232SOL    HW145593   3.486   4.847   4.931
81232SOL    HW245594   3.410   4.873   4.802
81233SOL     OW45595  12.392   3.195  11.640
81233SOL    HW145596  12.482   3.219  11.661
81233SOL    HW245597  12.375   3.237  11.556
81234SOL     OW45598  10.519   3.632   8.371
81234SOL    HW145599  10.463   3.703   8.343
81234SOL    HW245600  10.520   3.571   8.298
81235SOL     OW45601  13.376   2.921   8.454
81235SOL    HW145602  13.344   2.974   8.381
81235SOL    HW245603  13.333   2.958   8.531
81236SOL     OW45604   2.080   8.790  10.202
81236SOL    HW145605   1.987   8.782  10.179
81236SOL    HW245606   2.086   8.750  10.289
81237SOL     OW45607  11.601   5.318  14.339
81237SOL    HW145608  11.600   5.406  14.301
81237SOL    HW245609  11.688   5.309  14.376
81238SOL     OW45610  12.334   8.808   9.824
81238SOL    HW145611  12.257   8.773   9.780
81238SOL    HW245612  12.385   8.849   9.754
81239SOL     OW45613   0.112   6.747   2.845
81239SOL    HW145614   0.152   6.752   2.759
81239SOL    HW245615   0.034   6.692   2.833
81240SOL     OW45616   8.663  11.766   4.018
81240SOL    HW145617   8.611  11.706   4.070
81240SOL    HW245618   8.602  11.802   3.953
81241SOL     OW45619   3.021   2.678  14.714
81241SOL    HW145620   3.059   2.605  14.666
81241SOL    HW245621   3.092   2.741  14.721
81242SOL     OW45622   9.312   0.944   1.644
81242SOL    HW145623   9.312   1.030   1.688
81242SOL    HW245624   9.358   0.887   1.705
81243SOL     OW45625   7.279   3.192   6.620
81243SOL    HW145626   7.224   3.265   6.591
81243SOL    HW245627   7.266   3.188   6.715
81244SOL     OW45628   3.755   4.073   1.355
81244SOL    HW145629   3.720   4.082   1.443
81244SOL    HW245630   3.682   4.040   1.303
81245SOL     OW45631   9.656   9.180   6.357
81245SOL    HW145632   9.630   9.089   6.373
81245SOL    HW245633   9.579   9.232   6.381
81246SOL     OW45634   1.141   2.706   0.177
81246SOL    HW145635   1.232   2.720   0.204
81246SOL    HW245636   1.093   2.781   0.212
81247SOL     OW45637   4.293   2.903   3.526
81247SOL    HW145638   4.326   2.868   3.443
81247SOL    HW245639   4.360   2.881   3.590
81248SOL     OW45640  13.930  14.728  11.459
81248SOL    HW145641  13.976  14.787  11.399
81248SOL    HW245642  13.843  14.768  11.469
81249SOL     OW45643   1.866   8.308  14.099
81249SOL    HW145644   1.782   8.353  14.098
81249SOL    HW245645   1.927   8.368  14.056
81250SOL     OW45646   7.974   5.187   6.641
81250SOL    HW145647   8.058   5.212   6.678
81250SOL    HW245648   7.955   5.254   6.575
81251SOL     OW45649  12.681   3.838   7.397
81251SOL    HW145650  12.596   3.794   7.386
81251SOL    HW245651  12.665   3.904   7.464
81252SOL     OW45652   1.658  13.155   7.798
81252SOL    HW145653   1.609  13.097   7.741
81252SOL    HW245654   1.748  13.153   7.763
81253SOL     OW45655  10.206  11.936   6.817
81253SOL    HW145656  10.239  11.964   6.902
81253SOL    HW245657  10.284  11.922   6.764
81254SOL     OW45658   6.035   9.640   6.551
81254SOL    HW145659   6.033   9.590   6.632
81254SOL    HW245660   6.105   9.601   6.500
81255SOL     OW45661  12.691   9.540  14.676
81255SOL    HW145662  12.760   9.598  14.645
81255SOL    HW245663  12.709   9.528  14.769
81256SOL     OW45664  11.983  12.503   5.126
81256SOL    HW145665  11.905  12.464   5.164
81256SOL    HW245666  11.964  12.597   5.123
81257SOL     OW45667   6.133   2.728   8.901
81257SOL    HW145668   6.215   2.777   8.913
81257SOL    HW245669   6.074   2.764   8.967
81258SOL     OW45670   7.912   8.462   5.217
81258SOL    HW145671   7.861   8.535   5.183
81258SOL    HW245672   7.855   8.421   5.282
81259SOL     OW45673   1.955   6.765  12.693
81259SOL    HW145674   2.002   6.776  12.611
81259SOL    HW245675   1.931   6.854  12.720
81260SOL     OW45676  13.404  11.307   1.140
81260SOL    HW145677  13.351  11.341   1.211
81260SOL    HW245678  13.376  11.215   1.131
81261SOL     OW45679  10.216  12.486   3.661
81261SOL    HW145680  10.143  12.541   3.632
81261SOL    HW245681  10.209  12.408   3.607
81262SOL     OW45682   4.861  14.171  11.990
81262SOL    HW145683   4.908  14.217  11.921
81262SOL    HW245684   4.878  14.222  12.069
81263SOL     OW45685   7.445  13.252   8.633
81263SOL    HW145686   7.406  13.186   8.576
81263SOL    HW245687   7.421  13.224   8.721
81264SOL     OW45688   8.484  11.892   5.313
81264SOL    HW145689   8.432  11.936   5.246
81264SOL    HW245690   8.424  11.882   5.387
81265SOL     OW45691   0.552   3.168  10.344
81265SOL    HW145692   0.641   3.196  10.365
81265SOL    HW245693   0.559   3.133  10.256
81266SOL     OW45694   4.108   0.563   1.435
81266SOL    HW145695   4.116   0.651   1.472
81266SOL    HW245696   4.166   0.510   1.489
81267SOL     OW45697   5.614  11.685   9.007
81267SOL    HW145698   5.681  11.621   8.985
81267SOL    HW245699   5.545  11.634   9.050
81268SOL     OW45700   1.554   8.539  13.816
81268SOL    HW145701   1.470   8.572  13.847
81268SOL    HW245702   1.546   8.538  13.720
81269SOL     OW45703  11.839  13.045   6.406
81269SOL    HW145704  11.753  13.011   6.384
81269SOL    HW245705  11.899  12.972   6.389
81270SOL     OW45706   3.111   7.236   5.566
81270SOL    HW145707   3.050   7.166   5.587
81270SOL    HW245708   3.191   7.214   5.615
81271SOL     OW45709   0.721   5.625   9.462
81271SOL    HW145710   0.634   5.644   9.497
81271SOL    HW245711   0.781   5.646   9.534
81272SOL     OW45712   9.239   7.614  10.058
81272SOL    HW145713   9.302   7.618   9.986
81272SOL    HW245714   9.293   7.601  10.136
81273SOL     OW45715   2.222  13.800   5.058
81273SOL    HW145716   2.245  13.795   4.965
81273SOL    HW245717   2.134  13.764   5.063
81274SOL     OW45718   6.781   7.008  11.159
81274SOL    HW145719   6.754   6.988  11.249
81274SOL    HW245720   6.876   7.001  11.161
81275SOL     OW45721   8.010   3.936   8.745
81275SOL    HW145722   7.952   3.985   8.804
81275SOL    HW245723   8.097   3.949   8.782
81276SOL     OW45724   1.664  14.085   2.654
81276SOL    HW145725   1.583  14.038   2.676
81276SOL    HW245726   1.690  14.051   2.568
81277SOL     OW45727  10.785   9.371   6.385
81277SOL    HW145728  10.807   9.286   6.423
81277SOL    HW245729  10.797   9.358   6.291
81278SOL     OW45730   9.694   5.537   1.279
81278SOL    HW145731   9.686   5.633   1.272
81278SOL    HW245732   9.777   5.517   1.236
81279SOL     OW45733  12.093  11.673   2.116
81279SOL    HW145734  12.180  11.649   2.147
81279SOL    HW245735  12.109  11.736   2.046
81280SOL     OW45736  11.290   1.557  13.173
81280SOL    HW145737  11.343   1.625  13.132
81280SOL    HW245738  11.262   1.501  13.101
81281SOL     OW45739  11.996   6.960   4.312
81281SOL    HW145740  12.089   6.959   4.289
81281SOL    HW245741  11.973   6.867   4.321
81282SOL     OW45742   1.874   7.172   4.070
81282SOL    HW145743   1.826   7.098   4.108
81282SOL    HW245744   1.959   7.135   4.046
81283SOL     OW45745  12.584   5.128   1.360
81283SOL    HW145746  12.567   5.196   1.425
81283SOL    HW245747  12.535   5.155   1.283
81284SOL     OW45748   4.124   1.105  13.371
81284SOL    HW145749   4.060   1.040  13.341
81284SOL    HW245750   4.208   1.061  13.366
81285SOL     OW45751  12.061   3.806   5.980
81285SOL    HW145752  12.111   3.766   5.908
81285SOL    HW245753  12.072   3.745   6.053
81286SOL     OW45754  12.354  11.658  13.499
81286SOL    HW145755  12.426  11.604  13.531
81286SOL    HW245756  12.361  11.652  13.404
81287SOL     OW45757  10.466   1.496  13.607
81287SOL    HW145758  10.512   1.481  13.524
81287SOL    HW245759  10.376   1.470  13.590
81288SOL     OW45760  13.170  13.317   6.216
81288SOL    HW145761  13.074  13.321   6.216
81288SOL    HW245762  13.197  13.381   6.150
81289SOL     OW45763   8.368  12.235   8.428
81289SOL    HW145764   8.286  12.198   8.393
81289SOL    HW245765   8.434  12.212   8.363
81290SOL     OW45766   3.331   1.072   2.044
81290SOL    HW145767   3.332   0.977   2.059
81290SOL    HW245768   3.283   1.083   1.962
81291SOL     OW45769  10.148   7.774   4.630
81291SOL    HW145770  10.237   7.755   4.600
81291SOL    HW245771  10.152   7.864   4.661
81292SOL     OW45772  12.390   3.389   1.827
81292SOL    HW145773  12.314   3.415   1.776
81292SOL    HW245774  12.387   3.293   1.827
81293SOL     OW45775   3.342   8.891   1.166
81293SOL    HW145776   3.315   8.812   1.213
81293SOL    HW245777   3.262   8.923   1.125
81294SOL     OW45778   5.429   2.557   0.310
81294SOL    HW145779   5.335   2.548   0.322
81294SOL    HW245780   5.452   2.639   0.355
81295SOL     OW45781  14.597  12.015   1.794
81295SOL    HW145782  14.679  11.998   1.840
81295SOL    HW245783  14.608  12.103   1.757
81296SOL     OW45784   0.726   4.981   5.705
81296SOL    HW145785   0.691   4.931   5.779
81296SOL    HW245786   0.741   4.915   5.637
81297SOL     OW45787   7.653  10.311   1.573
81297SOL    HW145788   7.646  10.401   1.606
81297SOL    HW245789   7.634  10.319   1.480
81298SOL     OW45790   7.526   4.018  11.300
81298SOL    HW145791   7.442   4.062  11.289
81298SOL    HW245792   7.510   3.929  11.269
81299SOL     OW45793   3.127   1.273   1.288
81299SOL    HW145794   3.113   1.187   1.248
81299SOL    HW245795   3.074   1.333   1.236
81300SOL     OW45796   3.135   3.010   1.639
81300SOL    HW145797   3.164   2.923   1.613
81300SOL    HW245798   3.216   3.061   1.649
81301SOL     OW45799  11.046   0.571  11.827
81301SOL    HW145800  11.103   0.620  11.767
81301SOL    HW245801  11.081   0.591  11.914
81302SOL     OW45802  11.906   9.148  13.519
81302SOL    HW145803  11.953   9.066  13.534
81302SOL    HW245804  11.972   9.216  13.528
81303SOL     OW45805   8.626   5.944   1.429
81303SOL    HW145806   8.594   5.988   1.351
81303SOL    HW245807   8.547   5.926   1.481
81304SOL     OW45808   4.861   0.204   2.107
81304SOL    HW145809   4.797   0.160   2.162
81304SOL    HW245810   4.902   0.269   2.164
81305SOL     OW45811   8.051  11.215   5.290
81305SOL    HW145812   7.981  11.199   5.354
81305SOL    HW245813   8.004  11.239   5.210
81306SOL     OW45814   8.890   2.530   8.584
81306SOL    HW145815   8.967   2.535   8.527
81306SOL    HW245816   8.889   2.614   8.630
81307SOL     OW45817   9.957   5.216  12.891
81307SOL    HW145818   9.882   5.275  12.887
81307SOL    HW245819   9.921   5.134  12.924
81308SOL     OW45820   6.992   7.673   3.993
81308SOL    HW145821   7.038   7.712   3.919
81308SOL    HW245822   6.990   7.742   4.060
81309SOL     OW45823  13.971   9.983   1.095
81309SOL    HW145824  14.008   9.895   1.095
81309SOL    HW245825  13.884   9.972   1.058
81310SOL     OW45826  13.539   8.422  12.611
81310SOL    HW145827  13.541   8.457  12.700
81310SOL    HW245828  13.626   8.385  12.598
81311SOL     OW45829   2.926  14.266   5.174
81311SOL    HW145830   2.868  14.301   5.242
81311SOL    HW245831   2.872  14.266   5.095
81312SOL     OW45832   8.040   5.390   8.709
81312SOL    HW145833   7.975   5.371   8.777
81312SOL    HW245834   8.120   5.349   8.741
81313SOL     OW45835   3.713   9.730   8.084
81313SOL    HW145836   3.705   9.707   7.991
81313SOL    HW245837   3.799   9.696   8.110
81314SOL     OW45838   0.240   5.032   9.363
81314SOL    HW145839   0.212   5.121   9.339
81314SOL    HW245840   0.261   4.991   9.279
81315SOL     OW45841   7.068   1.987   8.733
81315SOL    HW145842   6.992   1.972   8.678
81315SOL    HW245843   7.117   1.905   8.729
81316SOL     OW45844  13.320   1.444   9.074
81316SOL    HW145845  13.290   1.530   9.103
81316SOL    HW245846  13.337   1.454   8.981
81317SOL     OW45847   4.696   0.423   8.400
81317SOL    HW145848   4.761   0.419   8.330
81317SOL    HW245849   4.724   0.497   8.454
81318SOL     OW45850   3.937   9.997  10.591
81318SOL    HW145851   3.975   9.982  10.678
81318SOL    HW245852   3.845  10.019  10.608
81319SOL     OW45853   0.680   5.530   7.605
81319SOL    HW145854   0.639   5.446   7.582
81319SOL    HW245855   0.709   5.518   7.695
81320SOL     OW45856  11.804  11.879   3.414
81320SOL    HW145857  11.789  11.830   3.333
81320SOL    HW245858  11.834  11.813   3.477
81321SOL     OW45859  11.225   1.673   1.464
81321SOL    HW145860  11.318   1.655   1.476
81321SOL    HW245861  11.221   1.768   1.450
81322SOL     OW45862   9.200  10.381   6.704
81322SOL    HW145863   9.223  10.289   6.697
81322SOL    HW245864   9.184  10.409   6.614
81323SOL     OW45865   5.459   8.918  14.510
81323SOL    HW145866   5.414   8.837  14.485
81323SOL    HW245867   5.546   8.910  14.471
81324SOL     OW45868   0.144   0.768   9.107
81324SOL    HW145869   0.127   0.861   9.092
81324SOL    HW245870   0.220   0.767   9.165
81325SOL     OW45871  10.133  14.170  14.445
81325SOL    HW145872  10.107  14.085  14.411
81325SOL    HW245873  10.116  14.165  14.539
81326SOL     OW45874  10.523  13.200  14.073
81326SOL    HW145875  10.570  13.120  14.097
81326SOL    HW245876  10.519  13.197  13.977
81327SOL     OW45877   7.651   2.531   7.753
81327SOL    HW145878   7.612   2.454   7.794
81327SOL    HW245879   7.676   2.587   7.826
81328SOL     OW45880   3.212   9.981   9.817
81328SOL    HW145881   3.280   9.915   9.797
81328SOL    HW245882   3.250  10.033   9.888
81329SOL     OW45883   9.083   2.249   3.462
81329SOL    HW145884   9.142   2.298   3.405
81329SOL    HW245885   9.137   2.222   3.536
81330SOL     OW45886   4.590   5.485   0.544
81330SOL    HW145887   4.600   5.561   0.602
81330SOL    HW245888   4.516   5.507   0.488
81331SOL     OW45889  11.649   8.481   7.030
81331SOL    HW145890  11.563   8.489   6.987
81331SOL    HW245891  11.711   8.508   6.962
81332SOL     OW45892  14.149   9.884   4.393
81332SOL    HW145893  14.110   9.945   4.455
81332SOL    HW245894  14.133   9.797   4.430
81333SOL     OW45895   6.561   7.877   1.115
81333SOL    HW145896   6.542   7.943   1.181
81333SOL    HW245897   6.537   7.917   1.032
81334SOL     OW45898   9.813   9.612   6.543
81334SOL    HW145899   9.872   9.632   6.469
81334SOL    HW245900   9.772   9.529   6.520
81335SOL     OW45901  10.112   6.815  11.160
81335SOL    HW145902  10.135   6.886  11.101
81335SOL    HW245903  10.022   6.792  11.137
81336SOL     OW45904   2.744   6.641  11.421
81336SOL    HW145905   2.733   6.736  11.416
81336SOL    HW245906   2.768   6.624  11.512
81337SOL     OW45907   8.971  11.826   7.494
81337SOL    HW145908   8.953  11.878   7.417
81337SOL    HW245909   9.050  11.777   7.473
81338SOL     OW45910   0.229  10.290   7.302
81338SOL    HW145911   0.256  10.278   7.393
81338SOL    HW245912   0.133  10.288   7.305
81339SOL     OW45913  14.637   2.011  11.895
81339SOL    HW145914  14.650   1.918  11.912
81339SOL    HW245915  14.542   2.021  11.888
81340SOL     OW45916   4.443  14.467  13.547
81340SOL    HW145917   4.513  14.486  13.610
81340SOL    HW245918   4.448  14.538  13.483
81341SOL     OW45919  11.953   6.951  14.132
81341SOL    HW145920  11.903   7.032  14.123
81341SOL    HW245921  12.044   6.978  14.118
81342SOL     OW45922   6.768  13.305   6.265
81342SOL    HW145923   6.861  13.280   6.261
81342SOL    HW245924   6.761  13.378   6.203
81343SOL     OW45925   3.717   1.338   2.562
81343SOL    HW145926   3.624   1.362   2.560
81343SOL    HW245927   3.731   1.303   2.650
81344SOL     OW45928  14.330   1.606   6.780
81344SOL    HW145929  14.244   1.571   6.802
81344SOL    HW245930  14.391   1.542   6.817
81345SOL     OW45931   2.585   2.253   8.324
81345SOL    HW145932   2.639   2.316   8.371
81345SOL    HW245933   2.580   2.287   8.234
81346SOL     OW45934  13.860   4.377  12.213
81346SOL    HW145935  13.835   4.297  12.258
81346SOL    HW245936  13.817   4.447  12.263
81347SOL     OW45937   1.324  13.319   5.780
81347SOL    HW145938   1.243  13.317   5.831
81347SOL    HW245939   1.298  13.352   5.694
81348SOL     OW45940   9.572  13.892   2.645
81348SOL    HW145941   9.594  13.865   2.734
81348SOL    HW245942   9.479  13.916   2.650
81349SOL     OW45943   1.104   8.068   0.696
81349SOL    HW145944   1.030   8.015   0.725
81349SOL    HW245945   1.069   8.121   0.624
81350SOL     OW45946   1.425  11.305   5.603
81350SOL    HW145947   1.400  11.358   5.679
81350SOL    HW245948   1.411  11.215   5.630
81351SOL     OW45949   1.087   4.751   8.740
81351SOL    HW145950   1.135   4.818   8.691
81351SOL    HW245951   1.124   4.668   8.709
81352SOL     OW45952   0.189   6.256  11.572
81352SOL    HW145953   0.221   6.329  11.519
81352SOL    HW245954   0.164   6.296  11.655
81353SOL     OW45955  10.538   3.638   2.172
81353SOL    HW145956  10.468   3.628   2.236
81353SOL    HW245957  10.607   3.579   2.202
81354SOL     OW45958   5.404   3.582  13.830
81354SOL    HW145959   5.414   3.498  13.874
81354SOL    HW245960   5.358   3.638  13.893
81355SOL     OW45961   3.904  11.217  14.520
81355SOL    HW145962   3.999  11.211  14.534
81355SOL    HW245963   3.867  11.209  14.608
81356SOL     OW45964   0.675  12.176  14.168
81356SOL    HW145965   0.742  12.198  14.103
81356SOL    HW245966   0.599  12.149  14.116
81357SOL     OW45967   2.477   3.480  14.416
81357SOL    HW145968   2.423   3.552  14.448
81357SOL    HW245969   2.567   3.505  14.437
81358SOL     OW45970   8.511  13.495   3.042
81358SOL    HW145971   8.460  13.547   2.980
81358SOL    HW245972   8.446  13.443   3.089
81359SOL     OW45973   8.110   0.199  13.525
81359SOL    HW145974   8.129   0.276  13.579
81359SOL    HW245975   8.096   0.235  13.437
81360SOL     OW45976   0.132   5.003   0.763
81360SOL    HW145977   0.162   4.948   0.691
81360SOL    HW245978   0.063   4.951   0.806
81361SOL     OW45979  13.340   9.072  13.063
81361SOL    HW145980  13.315   9.093  13.153
81361SOL    HW245981  13.366   8.980  13.066
81362SOL     OW45982   3.203   6.296   6.264
81362SOL    HW145983   3.134   6.357   6.291
81362SOL    HW245984   3.166   6.250   6.188
81363SOL     OW45985   3.916   1.187   6.183
81363SOL    HW145986   3.994   1.214   6.134
81363SOL    HW245987   3.866   1.268   6.195
81364SOL     OW45988   2.167   1.692   8.815
81364SOL    HW145989   2.100   1.761   8.813
81364SOL    HW245990   2.159   1.649   8.730
81365SOL     OW45991  11.728   1.566   8.734
81365SOL    HW145992  11.664   1.504   8.700
81365SOL    HW245993  11.675   1.635   8.774
81366SOL     OW45994  10.050   6.671  14.425
81366SOL    HW145995  10.047   6.641  14.516
81366SOL    HW245996  10.043   6.592  14.373
81367SOL     OW45997   1.396   3.603   5.534
81367SOL    HW145998   1.408   3.577   5.625
81367SOL    HW245999   1.484   3.604   5.497
81368SOL     OW46000   1.161  10.237   1.144
81368SOL    HW146001   1.193  10.214   1.057
81368SOL    HW246002   1.220  10.191   1.205
81369SOL     OW46003   7.069   1.791   9.217
81369SOL    HW146004   7.076   1.779   9.123
81369SOL    HW246005   7.069   1.703   9.253
81370SOL     OW46006   6.191   7.483   0.282
81370SOL    HW146007   6.118   7.543   0.263
81370SOL    HW246008   6.201   7.488   0.377
81371SOL     OW46009   5.671   5.744   6.358
81371SOL    HW146010   5.698   5.657   6.389
81371SOL    HW246011   5.590   5.728   6.310
81372SOL     OW46012   6.359   6.949   4.505
81372SOL    HW146013   6.416   6.987   4.572
81372SOL    HW246014   6.396   6.862   4.490
81373SOL     OW46015  11.955   4.084  10.016
81373SOL    HW146016  11.942   4.005   9.964
81373SOL    HW246017  11.896   4.148   9.977
81374SOL     OW46018   3.958   3.638   7.598
81374SOL    HW146019   4.036   3.654   7.650
81374SOL    HW246020   3.888   3.686   7.644
81375SOL     OW46021  11.041   6.441   2.801
81375SOL    HW146022  11.131   6.444   2.832
81375SOL    HW246023  11.029   6.351   2.770
81376SOL     OW46024   4.912   0.509  13.360
81376SOL    HW146025   4.988   0.562  13.383
81376SOL    HW246026   4.940   0.458  13.284
81377SOL     OW46027   4.072   2.460  11.359
81377SOL    HW146028   4.090   2.368  11.374
81377SOL    HW246029   4.066   2.469  11.264
81378SOL     OW46030  13.122   8.186   3.406
81378SOL    HW146031  13.203   8.195   3.457
81378SOL    HW246032  13.148   8.132   3.331
81379SOL     OW46033  11.223   2.962   1.268
81379SOL    HW146034  11.317   2.976   1.282
81379SOL    HW246035  11.199   3.028   1.203
81380SOL     OW46036   9.362  14.205   0.560
81380SOL    HW146037   9.395  14.116   0.546
81380SOL    HW246038   9.267  14.197   0.552
81381SOL     OW46039   9.754   4.743   2.736
81381SOL    HW146040   9.738   4.793   2.816
81381SOL    HW246041   9.693   4.670   2.741
81382SOL     OW46042   7.360   3.004   8.601
81382SOL    HW146043   7.305   3.013   8.679
81382SOL    HW246044   7.300   2.971   8.534
81383SOL     OW46045  12.313   7.679  13.952
81383SOL    HW146046  12.250   7.651  14.019
81383SOL    HW246047  12.295   7.623  13.877
81384SOL     OW46048   5.074   6.431  14.417
81384SOL    HW146049   5.096   6.373  14.490
81384SOL    HW246050   5.031   6.373  14.353
81385SOL     OW46051   3.250   7.869   0.416
81385SOL    HW146052   3.271   7.852   0.508
81385SOL    HW246053   3.156   7.855   0.409
81386SOL     OW46054   7.854   7.779  13.107
81386SOL    HW146055   7.921   7.711  13.111
81386SOL    HW246056   7.846   7.800  13.014
81387SOL     OW46057   6.008  11.888   8.413
81387SOL    HW146058   6.072  11.873   8.344
81387SOL    HW246059   5.954  11.960   8.381
81388SOL     OW46060   5.994   8.980  13.614
81388SOL    HW146061   6.027   8.927  13.541
81388SOL    HW246062   6.071   9.025  13.648
81389SOL     OW46063   7.268   6.831  11.809
81389SOL    HW146064   7.283   6.838  11.903
81389SOL    HW246065   7.353   6.808  11.773
81390SOL     OW46066   5.760   7.523   6.000
81390SOL    HW146067   5.687   7.549   6.057
81390SOL    HW246068   5.788   7.605   5.959
81391SOL     OW46069   6.592   7.566  14.484
81391SOL    HW146070   6.519   7.520  14.527
81391SOL    HW246071   6.590   7.533  14.394
81392SOL     OW46072   0.980   5.758  14.834
81392SOL    HW146073   0.912   5.693  14.818
81392SOL    HW246074   1.059   5.720  14.796
81393SOL     OW46075   3.483   0.317   1.866
81393SOL    HW146076   3.464   0.362   1.948
81393SOL    HW246077   3.465   0.382   1.798
81394SOL     OW46078   4.304   5.789   1.723
81394SOL    HW146079   4.308   5.694   1.740
81394SOL    HW246080   4.380   5.825   1.768
81395SOL     OW46081   8.445   4.927   3.075
81395SOL    HW146082   8.443   5.012   3.119
81395SOL    HW246083   8.420   4.864   3.143
81396SOL     OW46084  14.426   7.527   3.969
81396SOL    HW146085  14.378   7.606   3.995
81396SOL    HW246086  14.471   7.552   3.889
81397SOL     OW46087   5.817   5.353  13.942
81397SOL    HW146088   5.906   5.355  13.977
81397SOL    HW246089   5.761   5.354  14.019
81398SOL     OW46090   7.146  10.103   8.594
81398SOL    HW146091   7.123  10.031   8.653
81398SOL    HW246092   7.082  10.098   8.523
81399SOL     OW46093   3.236  14.785   5.181
81399SOL    HW146094   3.261  14.822   5.097
81399SOL    HW246095   3.180  14.710   5.159
81400SOL     OW46096   8.038   0.363   9.547
81400SOL    HW146097   8.039   0.357   9.642
81400SOL    HW246098   8.129   0.382   9.523
81401SOL     OW46099   0.204  10.286   5.153
81401SOL    HW146100   0.173  10.197   5.138
81401SOL    HW246101   0.149  10.341   5.097
81402SOL     OW46102  12.187   4.941  14.059
81402SOL    HW146103  12.236   5.002  14.114
81402SOL    HW246104  12.244   4.864  14.052
81403SOL     OW46105   0.953   2.927   8.112
81403SOL    HW146106   0.966   2.999   8.051
81403SOL    HW246107   1.012   2.858   8.081
81404SOL     OW46108   0.458   8.289   2.863
81404SOL    HW146109   0.381   8.335   2.896
81404SOL    HW246110   0.531   8.327   2.911
81405SOL     OW46111   7.898   5.635   5.407
81405SOL    HW146112   7.963   5.617   5.340
81405SOL    HW246113   7.927   5.585   5.483
81406SOL     OW46114  10.546  14.092  12.195
81406SOL    HW146115  10.575  14.073  12.106
81406SOL    HW246116  10.484  14.022  12.216
81407SOL     OW46117   5.807  12.924   5.714
81407SOL    HW146118   5.724  12.881   5.693
81407SOL    HW246119   5.850  12.864   5.775
81408SOL     OW46120   0.435  12.205  14.561
81408SOL    HW146121   0.499  12.272  14.585
81408SOL    HW246122   0.398  12.177  14.645
81409SOL     OW46123   3.017   5.701   8.952
81409SOL    HW146124   3.052   5.691   9.041
81409SOL    HW246125   3.005   5.612   8.921
81410SOL     OW46126   8.986   3.800   6.821
81410SOL    HW146127   8.920   3.834   6.761
81410SOL    HW246128   8.936   3.774   6.898
81411SOL     OW46129   6.029   0.706   5.921
81411SOL    HW146130   6.018   0.778   5.859
81411SOL    HW246131   6.019   0.627   5.868
81412SOL     OW46132  13.190   1.506  11.212
81412SOL    HW146133  13.129   1.468  11.149
81412SOL    HW246134  13.276   1.479  11.181
81413SOL     OW46135   6.530   2.338   4.895
81413SOL    HW146136   6.623   2.343   4.920
81413SOL    HW246137   6.511   2.244   4.896
81414SOL     OW46138   2.198  11.290   3.193
81414SOL    HW146139   2.150  11.319   3.116
81414SOL    HW246140   2.235  11.205   3.169
81415SOL     OW46141  12.381  14.432   9.602
81415SOL    HW146142  12.374  14.363   9.668
81415SOL    HW246143  12.434  14.393   9.532
81416SOL     OW46144  11.431   5.036   3.021
81416SOL    HW146145  11.513   4.989   3.009
81416SOL    HW246146  11.443   5.117   2.972
81417SOL     OW46147  11.641  11.761  10.600
81417SOL    HW146148  11.672  11.671  10.604
81417SOL    HW246149  11.716  11.814  10.627
81418SOL     OW46150   4.022   5.715   7.627
81418SOL    HW146151   4.006   5.751   7.540
81418SOL    HW246152   4.091   5.650   7.614
81419SOL     OW46153  11.724  13.348   3.912
81419SOL    HW146154  11.716  13.423   3.854
81419SOL    HW246155  11.813  13.351   3.945
81420SOL     OW46156  11.295  10.625  14.773
81420SOL    HW146157  11.223  10.578  14.815
81420SOL    HW246158  11.373  10.600  14.823
81421SOL     OW46159  11.168  14.433   5.879
81421SOL    HW146160  11.087  14.483   5.872
81421SOL    HW246161  11.148  14.349   5.836
81422SOL     OW46162   6.745   1.126  10.003
81422SOL    HW146163   6.750   1.058  10.071
81422SOL    HW246164   6.661   1.168  10.019
81423SOL     OW46165   0.599   2.945   6.995
81423SOL    HW146166   0.577   2.861   6.954
81423SOL    HW246167   0.636   2.997   6.924
81424SOL     OW46168   3.379  14.873   0.833
81424SOL    HW146169   3.321  14.825   0.773
81424SOL    HW246170   3.406   0.063   0.783
81425SOL     OW46171   8.900   0.604   1.292
81425SOL    HW146172   8.815   0.564   1.314
81425SOL    HW246173   8.962   0.532   1.296
81426SOL     OW46174   4.777   8.067   3.119
81426SOL    HW146175   4.836   8.040   3.048
81426SOL    HW246176   4.809   8.020   3.196
81427SOL     OW46177   1.226   4.910   6.287
81427SOL    HW146178   1.250   4.835   6.342
81427SOL    HW246179   1.146   4.945   6.327
81428SOL     OW46180  10.332  10.749   6.002
81428SOL    HW146181  10.273  10.686   6.042
81428SOL    HW246182  10.292  10.769   5.917
81429SOL     OW46183   5.164   5.851   4.028
81429SOL    HW146184   5.126   5.788   3.966
81429SOL    HW246185   5.246   5.810   4.056
81430SOL     OW46186  14.440  10.751   1.790
81430SOL    HW146187  14.458  10.844   1.778
81430SOL    HW246188  14.380  10.747   1.864
81431SOL     OW46189   6.884  13.034   1.217
81431SOL    HW146190   6.794  13.059   1.198
81431SOL    HW246191   6.936  13.083   1.153
81432SOL     OW46192  13.877   7.569   1.085
81432SOL    HW146193  13.839   7.522   1.159
81432SOL    HW246194  13.801   7.605   1.038
81433SOL     OW46195   9.311   9.556   0.605
81433SOL    HW146196   9.296   9.650   0.613
81433SOL    HW246197   9.241   9.516   0.657
81434SOL     OW46198   2.421  11.617   8.689
81434SOL    HW146199   2.457  11.565   8.761
81434SOL    HW246200   2.419  11.706   8.722
81435SOL     OW46201  10.103   1.464  12.955
81435SOL    HW146202  10.141   1.535  12.903
81435SOL    HW246203  10.126   1.385  12.907
81436SOL     OW46204   7.600  12.612  11.649
81436SOL    HW146205   7.533  12.591  11.585
81436SOL    HW246206   7.612  12.707  11.642
81437SOL     OW46207  10.699   2.677   2.365
81437SOL    HW146208  10.618   2.634   2.337
81437SOL    HW246209  10.750   2.687   2.284
81438SOL     OW46210  14.188   0.175   3.730
81438SOL    HW146211  14.117   0.178   3.665
81438SOL    HW246212  14.201   0.082   3.746
81439SOL     OW46213   1.136   8.161  13.713
81439SOL    HW146214   1.131   8.247  13.670
81439SOL    HW246215   1.186   8.107  13.652
81440SOL     OW46216   7.188  11.019   7.748
81440SOL    HW146217   7.253  11.063   7.694
81440SOL    HW246218   7.107  11.068   7.734
81441SOL     OW46219   8.397   9.769   1.796
81441SOL    HW146220   8.416   9.681   1.763
81441SOL    HW246221   8.422   9.766   1.888
81442SOL     OW46222   3.664  14.722   5.437
81442SOL    HW146223   3.573  14.694   5.446
81442SOL    HW246224   3.660  14.798   5.378
81443SOL     OW46225   8.312   6.785   9.730
81443SOL    HW146226   8.233   6.743   9.763
81443SOL    HW246227   8.313   6.765   9.636
81444SOL     OW46228  11.271   2.157   0.635
81444SOL    HW146229  11.267   2.074   0.682
81444SOL    HW246230  11.205   2.147   0.566
81445SOL     OW46231   0.779   2.321  11.151
81445SOL    HW146232   0.861   2.273  11.140
81445SOL    HW246233   0.803   2.412  11.134
81446SOL     OW46234  12.299   8.150  12.941
81446SOL    HW146235  12.361   8.111  13.003
81446SOL    HW246236  12.353   8.194  12.877
81447SOL     OW46237   5.625   7.660   9.295
81447SOL    HW146238   5.641   7.572   9.262
81447SOL    HW246239   5.661   7.659   9.383
81448SOL     OW46240  12.640  14.558  13.014
81448SOL    HW146241  12.580  14.630  13.031
81448SOL    HW246242  12.603  14.484  13.063
81449SOL     OW46243   9.033  14.380   1.496
81449SOL    HW146244   9.061  14.313   1.433
81449SOL    HW246245   9.043  14.463   1.449
81450SOL     OW46246   5.517   7.836   2.440
81450SOL    HW146247   5.581   7.773   2.474
81450SOL    HW246248   5.506   7.899   2.510
81451SOL     OW46249   4.502  14.158   8.373
81451SOL    HW146250   4.531  14.145   8.282
81451SOL    HW246251   4.562  14.223   8.408
81452SOL     OW46252   9.659  14.367   7.593
81452SOL    HW146253   9.745  14.333   7.620
81452SOL    HW246254   9.599  14.336   7.660
81453SOL     OW46255   8.629   4.355   8.092
81453SOL    HW146256   8.667   4.300   8.161
81453SOL    HW246257   8.540   4.321   8.081
81454SOL     OW46258  10.677   0.675   6.988
81454SOL    HW146259  10.645   0.737   6.922
81454SOL    HW246260  10.772   0.675   6.977
81455SOL     OW46261   0.044   1.192  13.107
81455SOL    HW146262   0.132   1.159  13.125
81455SOL    HW246263   0.032   1.178  13.013
81456SOL     OW46264   3.824   3.753  11.073
81456SOL    HW146265   3.759   3.692  11.036
81456SOL    HW246266   3.878   3.779  10.999
81457SOL     OW46267   9.411   2.841   1.231
81457SOL    HW146268   9.465   2.762   1.218
81457SOL    HW246269   9.457   2.910   1.184
81458SOL     OW46270   2.897   8.496   5.548
81458SOL    HW146271   2.941   8.421   5.589
81458SOL    HW246272   2.806   8.468   5.537
81459SOL     OW46273  14.802  14.106   6.122
81459SOL    HW146274  14.791  14.198   6.098
81459SOL    HW246275  14.883  14.103   6.173
81460SOL     OW46276   8.599   9.906   6.979
81460SOL    HW146277   8.509   9.888   6.949
81460SOL    HW246278   8.625   9.828   7.027
81461SOL     OW46279   1.820   8.445   0.287
81461SOL    HW146280   1.728   8.420   0.294
81461SOL    HW246281   1.823   8.536   0.316
81462SOL     OW46282   1.114   5.315   5.023
81462SOL    HW146283   1.040   5.281   5.074
81462SOL    HW246284   1.092   5.293   4.932
81463SOL     OW46285   9.556  14.799  11.941
81463SOL    HW146286   9.516  14.859  11.878
81463SOL    HW246287   9.483  14.769  11.996
81464SOL     OW46288   1.606   2.933  12.199
81464SOL    HW146289   1.680   2.911  12.257
81464SOL    HW246290   1.555   2.996  12.249
81465SOL     OW46291  11.719   6.977   7.757
81465SOL    HW146292  11.766   6.904   7.797
81465SOL    HW246293  11.782   7.017   7.698
81466SOL     OW46294   6.668   5.555  12.565
81466SOL    HW146295   6.672   5.633  12.620
81466SOL    HW246296   6.706   5.583  12.481
81467SOL     OW46297  14.405   4.643   2.870
81467SOL    HW146298  14.384   4.551   2.882
81467SOL    HW246299  14.484   4.657   2.922
81468SOL     OW46300   1.577   2.561   1.550
81468SOL    HW146301   1.566   2.475   1.590
81468SOL    HW246302   1.567   2.545   1.456
81469SOL     OW46303  13.283  14.238   1.880
81469SOL    HW146304  13.257  14.153   1.846
81469SOL    HW246305  13.272  14.230   1.975
81470SOL     OW46306  14.843   9.195   3.366
81470SOL    HW146307  14.805   9.268   3.318
81470SOL    HW246308  14.868   9.132   3.299
81471SOL     OW46309   6.769   6.756   5.952
81471SOL    HW146310   6.786   6.796   5.867
81471SOL    HW246311   6.853   6.759   5.998
81472SOL     OW46312  13.520   1.128   6.316
81472SOL    HW146313  13.577   1.083   6.378
81472SOL    HW246314  13.577   1.153   6.244
81473SOL     OW46315   4.363   8.585   0.608
81473SOL    HW146316   4.403   8.499   0.604
81473SOL    HW246317   4.288   8.579   0.549
81474SOL     OW46318   9.647  13.868   6.560
81474SOL    HW146319   9.670  13.952   6.520
81474SOL    HW246320   9.620  13.891   6.649
81475SOL     OW46321   4.624   9.745   6.175
81475SOL    HW146322   4.655   9.695   6.250
81475SOL    HW246323   4.531   9.759   6.192
81476SOL     OW46324  13.723   2.712   5.332
81476SOL    HW146325  13.811   2.736   5.302
81476SOL    HW246326  13.705   2.773   5.403
81477SOL     OW46327   4.863   8.111  14.653
81477SOL    HW146328   4.789   8.056  14.681
81477SOL    HW246329   4.826   8.199  14.648
81478SOL     OW46330   5.992  13.776   8.239
81478SOL    HW146331   6.038  13.779   8.322
81478SOL    HW246332   6.008  13.688   8.205
81479SOL     OW46333   4.985   4.784   2.792
81479SOL    HW146334   4.942   4.757   2.873
81479SOL    HW246335   4.975   4.709   2.733
81480SOL     OW46336   5.680  12.903  10.314
81480SOL    HW146337   5.767  12.942  10.311
81480SOL    HW246338   5.664  12.871  10.225
81481SOL     OW46339   8.533   7.339   5.420
81481SOL    HW146340   8.488   7.418   5.388
81481SOL    HW246341   8.606   7.327   5.359
81482SOL     OW46342  12.200   0.375  11.865
81482SOL    HW146343  12.207   0.304  11.801
81482SOL    HW246344  12.141   0.438  11.824
81483SOL     OW46345  14.518   3.518   6.027
81483SOL    HW146346  14.577   3.521   6.102
81483SOL    HW246347  14.431   3.527   6.065
81484SOL     OW46348   6.273   0.263   2.136
81484SOL    HW146349   6.344   0.287   2.195
81484SOL    HW246350   6.219   0.342   2.130
81485SOL     OW46351   0.775  12.985  14.461
81485SOL    HW146352   0.699  12.928  14.442
81485SOL    HW246353   0.831  12.931  14.517
81486SOL     OW46354   1.944   9.546   4.923
81486SOL    HW146355   1.989   9.536   4.839
81486SOL    HW246356   1.919   9.456   4.947
81487SOL     OW46357   1.946   1.957   3.121
81487SOL    HW146358   1.963   1.977   3.213
81487SOL    HW246359   1.868   1.901   3.122
81488SOL     OW46360   5.800  10.635   8.838
81488SOL    HW146361   5.884  10.677   8.851
81488SOL    HW246362   5.761  10.682   8.764
81489SOL     OW46363   7.375  11.308   1.897
81489SOL    HW146364   7.399  11.289   1.987
81489SOL    HW246365   7.404  11.231   1.848
81490SOL     OW46366   1.709   4.395   9.775
81490SOL    HW146367   1.801   4.370   9.782
81490SOL    HW246368   1.683   4.365   9.688
81491SOL     OW46369   1.065   3.827   3.726
81491SOL    HW146370   1.071   3.815   3.821
81491SOL    HW246371   0.976   3.857   3.711
81492SOL     OW46372   3.367  11.610  11.643
81492SOL    HW146373   3.368  11.698  11.682
81492SOL    HW246374   3.459  11.592  11.623
81493SOL     OW46375   8.505   6.143  10.991
81493SOL    HW146376   8.562   6.208  10.949
81493SOL    HW246377   8.487   6.079  10.922
81494SOL     OW46378   5.205  12.814   5.688
81494SOL    HW146379   5.216  12.798   5.594
81494SOL    HW246380   5.270  12.758   5.730
81495SOL     OW46381   6.014   8.021   3.678
81495SOL    HW146382   5.921   8.043   3.682
81495SOL    HW246383   6.029   7.967   3.756
81496SOL     OW46384  13.080   3.729  10.320
81496SOL    HW146385  13.035   3.733  10.404
81496SOL    HW246386  13.009   3.718  10.256
81497SOL     OW46387   5.582   3.538  10.428
81497SOL    HW146388   5.540   3.618  10.460
81497SOL    HW246389   5.510   3.475  10.420
81498SOL     OW46390   5.576  10.481   0.850
81498SOL    HW146391   5.504  10.475   0.913
81498SOL    HW246392   5.606  10.572   0.858
81499SOL     OW46393   6.800  10.633   5.456
81499SOL    HW146394   6.844  10.588   5.528
81499SOL    HW246395   6.852  10.613   5.379
81500SOL     OW46396   7.332   5.205   0.545
81500SOL    HW146397   7.380   5.250   0.475
81500SOL    HW246398   7.386   5.217   0.623
81501SOL     OW46399   2.928  12.157   4.086
81501SOL    HW146400   2.981  12.131   4.011
81501SOL    HW246401   2.849  12.195   4.047
81502SOL     OW46402   5.138   9.428  12.034
81502SOL    HW146403   5.135   9.383  11.949
81502SOL    HW246404   5.052   9.471  12.041
81503SOL     OW46405   0.060  10.437   4.933
81503SOL    HW146406  14.860  10.462   4.905
81503SOL    HW246407   0.112  10.518   4.925
81504SOL     OW46408   5.561  11.318   7.612
81504SOL    HW146409   5.579  11.264   7.689
81504SOL    HW246410   5.586  11.263   7.538
81505SOL     OW46411  10.184   2.574   8.556
81505SOL    HW146412  10.222   2.625   8.484
81505SOL    HW246413  10.156   2.492   8.514
81506SOL     OW46414  13.557   3.469   8.335
81506SOL    HW146415  13.490   3.538   8.333
81506SOL    HW246416  13.615   3.495   8.407
81507SOL     OW46417  11.507  13.542   1.676
81507SOL    HW146418  11.533  13.457   1.710
81507SOL    HW246419  11.411  13.538   1.670
81508SOL     OW46420  11.886   2.496   3.350
81508SOL    HW146421  11.906   2.406   3.325
81508SOL    HW246422  11.964   2.546   3.326
81509SOL     OW46423  11.241  10.429  11.666
81509SOL    HW146424  11.148  10.439  11.683
81509SOL    HW246425  11.265  10.508  11.617
81510SOL     OW46426   4.395  10.872   0.089
81510SOL    HW146427   4.451  10.879   0.166
81510SOL    HW246428   4.378  10.963   0.064
81511SOL     OW46429   6.728  14.720   5.795
81511SOL    HW146430   6.815  14.723   5.755
81511SOL    HW246431   6.670  14.757   5.729
81512SOL     OW46432   8.194   1.166  12.363
81512SOL    HW146433   8.173   1.238  12.303
81512SOL    HW246434   8.139   1.094  12.334
81513SOL     OW46435  14.866   3.756  13.084
81513SOL    HW146436  14.858   3.815  13.159
81513SOL    HW246437  14.833   3.672  13.115
81514SOL     OW46438   5.910   0.028   4.166
81514SOL    HW146439   5.827  14.876   4.193
81514SOL    HW246440   5.964  14.841   4.139
81515SOL     OW46441  14.056   9.951  11.774
81515SOL    HW146442  14.091   9.862  11.773
81515SOL    HW246443  13.992   9.951  11.846
81516SOL     OW46444  11.385  11.186   8.530
81516SOL    HW146445  11.306  11.206   8.581
81516SOL    HW246446  11.375  11.094   8.506
81517SOL     OW46447   3.716  13.362  12.232
81517SOL    HW146448   3.686  13.273  12.254
81517SOL    HW246449   3.765  13.351  12.151
81518SOL     OW46450   0.369   3.243   4.471
81518SOL    HW146451   0.297   3.297   4.437
81518SOL    HW246452   0.405   3.294   4.543
81519SOL     OW46453  13.850   3.183   5.639
81519SOL    HW146454  13.919   3.180   5.573
81519SOL    HW246455  13.896   3.171   5.722
81520SOL     OW46456  10.119   3.207  11.318
81520SOL    HW146457  10.200   3.161  11.338
81520SOL    HW246458  10.145   3.299  11.308
81521SOL     OW46459   1.313   5.795   5.100
81521SOL    HW146460   1.378   5.750   5.046
81521SOL    HW246461   1.264   5.725   5.142
81522SOL     OW46462   4.926   0.440  13.651
81522SOL    HW146463   4.855   0.448  13.588
81522SOL    HW246464   4.896   0.372  13.711
81523SOL     OW46465   9.712   1.004   3.720
81523SOL    HW146466   9.710   0.945   3.796
81523SOL    HW246467   9.631   1.054   3.726
81524SOL     OW46468  11.746  12.304   6.271
81524SOL    HW146469  11.664  12.341   6.240
81524SOL    HW246470  11.814  12.362   6.237
81525SOL     OW46471  14.716   5.223   6.108
81525SOL    HW146472  14.739   5.137   6.074
81525SOL    HW246473  14.793   5.277   6.091
81526SOL     OW46474   6.522  14.117   2.748
81526SOL    HW146475   6.528  14.106   2.653
81526SOL    HW246476   6.479  14.202   2.759
81527SOL     OW46477   8.046   5.003   5.579
81527SOL    HW146478   7.963   5.041   5.548
81527SOL    HW246479   8.113   5.052   5.532
81528SOL     OW46480   6.516  13.310  11.354
81528SOL    HW146481   6.512  13.405  11.349
81528SOL    HW246482   6.425  13.282  11.350
81529SOL     OW46483  13.490   2.530   0.247
81529SOL    HW146484  13.575   2.487   0.258
81529SOL    HW246485  13.435   2.490   0.314
81530SOL     OW46486   6.294   2.978  13.189
81530SOL    HW146487   6.366   3.041  13.199
81530SOL    HW246488   6.216   3.031  13.180
81531SOL     OW46489   3.912  12.007   1.757
81531SOL    HW146490   3.819  12.022   1.779
81531SOL    HW246491   3.918  11.913   1.742
81532SOL     OW46492   3.461   1.855   2.002
81532SOL    HW146493   3.407   1.899   1.936
81532SOL    HW246494   3.549   1.890   1.988
81533SOL     OW46495  14.710  14.872  11.331
81533SOL    HW146496  14.615  14.870  11.321
81533SOL    HW246497  14.737   0.063  11.282
81534SOL     OW46498   7.325   1.254   0.467
81534SOL    HW146499   7.393   1.193   0.437
81534SOL    HW246500   7.292   1.293   0.386
81535SOL     OW46501   5.803  13.471   4.362
81535SOL    HW146502   5.779  13.382   4.336
81535SOL    HW246503   5.878  13.493   4.306
81536SOL     OW46504  10.429   4.484   4.910
81536SOL    HW146505  10.475   4.401   4.899
81536SOL    HW246506  10.336   4.461   4.904
81537SOL     OW46507   9.103   6.735  13.077
81537SOL    HW146508   9.121   6.789  13.000
81537SOL    HW246509   9.151   6.654  13.062
81538SOL     OW46510   5.996  13.104   3.140
81538SOL    HW146511   5.963  13.081   3.227
81538SOL    HW246512   6.089  13.082   3.142
81539SOL     OW46513   2.294   4.019   9.802
81539SOL    HW146514   2.317   4.093   9.746
81539SOL    HW246515   2.262   4.058   9.883
81540SOL     OW46516   4.508  12.321   4.505
81540SOL    HW146517   4.589  12.357   4.468
81540SOL    HW246518   4.479  12.256   4.440
81541SOL     OW46519   9.216   0.906  10.285
81541SOL    HW146520   9.206   0.954  10.203
81541SOL    HW246521   9.297   0.856  10.274
81542SOL     OW46522   7.893   2.895  13.046
81542SOL    HW146523   7.850   2.830  12.990
81542SOL    HW246524   7.969   2.924  12.996
81543SOL     OW46525  13.472   9.435   6.402
81543SOL    HW146526  13.413   9.368   6.369
81543SOL    HW246527  13.462   9.508   6.341
81544SOL     OW46528  14.662   6.512   2.097
81544SOL    HW146529  14.742   6.475   2.134
81544SOL    HW246530  14.679   6.518   2.003
81545SOL     OW46531   2.924  14.058   2.120
81545SOL    HW146532   2.892  14.102   2.042
81545SOL    HW246533   2.989  13.996   2.087
81546SOL     OW46534  10.302   3.603   2.609
81546SOL    HW146535  10.244   3.554   2.668
81546SOL    HW246536  10.386   3.605   2.653
81547SOL     OW46537  13.919  11.161  14.529
81547SOL    HW146538  14.001  11.202  14.554
81547SOL    HW246539  13.856  11.233  14.527
81548SOL     OW46540   5.125   1.296   5.967
81548SOL    HW146541   5.092   1.266   5.882
81548SOL    HW246542   5.203   1.243   5.983
81549SOL     OW46543  11.020   8.254   8.372
81549SOL    HW146544  10.994   8.181   8.316
81549SOL    HW246545  11.061   8.213   8.448
81550SOL     OW46546  11.239  12.743   2.085
81550SOL    HW146547  11.325  12.745   2.127
81550SOL    HW246548  11.180  12.712   2.154
81551SOL     OW46549   9.276   8.675   9.410
81551SOL    HW146550   9.269   8.600   9.469
81551SOL    HW246551   9.339   8.649   9.343
81552SOL     OW46552   5.634  10.678  13.268
81552SOL    HW146553   5.709  10.737  13.273
81552SOL    HW246554   5.563  10.726  13.309
81553SOL     OW46555   3.385  10.416   3.878
81553SOL    HW146556   3.373  10.343   3.939
81553SOL    HW246557   3.415  10.488   3.934
81554SOL     OW46558   1.526   2.323   1.618
81554SOL    HW146559   1.548   2.247   1.564
81554SOL    HW246560   1.430   2.324   1.620
81555SOL     OW46561  12.845   8.738  13.818
81555SOL    HW146562  12.854   8.712  13.910
81555SOL    HW246563  12.930   8.719  13.779
81556SOL     OW46564   4.343   2.313   1.812
81556SOL    HW146565   4.387   2.279   1.890
81556SOL    HW246566   4.365   2.406   1.812
81557SOL     OW46567   3.595   4.121   2.054
81557SOL    HW146568   3.674   4.174   2.063
81557SOL    HW246569   3.564   4.109   2.144
81558SOL     OW46570   1.317  13.324  13.680
81558SOL    HW146571   1.229  13.359  13.696
81558SOL    HW246572   1.310  13.279  13.595
81559SOL     OW46573   4.616   5.549   8.817
81559SOL    HW146574   4.666   5.616   8.769
81559SOL    HW246575   4.649   5.555   8.907
81560SOL     OW46576  11.003   6.106   8.065
81560SOL    HW146577  10.991   6.201   8.073
81560SOL    HW246578  11.007   6.091   7.970
81561SOL     OW46579   7.922   7.426   0.381
81561SOL    HW146580   8.010   7.461   0.396
81561SOL    HW246581   7.863   7.499   0.404
81562SOL     OW46582   2.268   8.115   6.497
81562SOL    HW146583   2.207   8.188   6.489
81562SOL    HW246584   2.295   8.097   6.407
81563SOL     OW46585   2.927   6.800   9.357
81563SOL    HW146586   2.874   6.746   9.297
81563SOL    HW246587   2.864   6.860   9.396
81564SOL     OW46588   7.190   0.818   9.616
81564SOL    HW146589   7.272   0.867   9.612
81564SOL    HW246590   7.198   0.753   9.547
81565SOL     OW46591   7.323   6.913  14.332
81565SOL    HW146592   7.242   6.919  14.383
81565SOL    HW246593   7.295   6.884  14.245
81566SOL     OW46594   1.029   1.702   1.857
81566SOL    HW146595   0.948   1.753   1.852
81566SOL    HW246596   1.020   1.651   1.938
81567SOL     OW46597   5.486   6.591  12.054
81567SOL    HW146598   5.441   6.674  12.036
81567SOL    HW246599   5.577   6.606  12.029
81568SOL     OW46600   2.677   9.815   0.921
81568SOL    HW146601   2.741   9.886   0.923
81568SOL    HW246602   2.730   9.736   0.907
81569SOL     OW46603  12.124  12.032  13.315
81569SOL    HW146604  12.195  12.085  13.351
81569SOL    HW246605  12.084  12.089  13.248
81570SOL     OW46606   5.699   7.299   1.693
81570SOL    HW146607   5.697   7.394   1.704
81570SOL    HW246608   5.625   7.280   1.636
81571SOL     OW46609  11.279  13.335   0.539
81571SOL    HW146610  11.221  13.273   0.584
81571SOL    HW246611  11.305  13.397   0.606
81572SOL     OW46612   0.580  14.274  10.414
81572SOL    HW146613   0.496  14.228  10.411
81572SOL    HW246614   0.645  14.206  10.393
81573SOL     OW46615  13.567   9.659   8.592
81573SOL    HW146616  13.597   9.663   8.682
81573SOL    HW246617  13.476   9.629   8.597
81574SOL     OW46618  13.559   9.042   9.196
81574SOL    HW146619  13.468   9.014   9.197
81574SOL    HW246620  13.588   9.033   9.287
81575SOL     OW46621   6.269  10.400   0.937
81575SOL    HW146622   6.208  10.378   0.867
81575SOL    HW246623   6.249  10.337   1.007
81576SOL     OW46624   8.885   3.356   2.693
81576SOL    HW146625   8.849   3.268   2.691
81576SOL    HW246626   8.957   3.352   2.756
81577SOL     OW46627   7.341   7.887  13.060
81577SOL    HW146628   7.260   7.890  13.110
81577SOL    HW246629   7.391   7.963  13.090
81578SOL     OW46630   7.322   4.689   9.777
81578SOL    HW146631   7.399   4.701   9.720
81578SOL    HW246632   7.325   4.597   9.802
81579SOL     OW46633   5.156   1.349  14.340
81579SOL    HW146634   5.232   1.305  14.300
81579SOL    HW246635   5.148   1.309  14.426
81580SOL     OW46636  14.176  11.207   1.569
81580SOL    HW146637  14.255  11.249   1.535
81580SOL    HW246638  14.202  11.117   1.586
81581SOL     OW46639  11.720   0.065   8.473
81581SOL    HW146640  11.723   0.028   8.384
81581SOL    HW246641  11.632   0.045   8.505
81582SOL     OW46642   1.417   7.916   8.551
81582SOL    HW146643   1.501   7.943   8.587
81582SOL    HW246644   1.406   7.969   8.472
81583SOL     OW46645   5.510  13.629   9.034
81583SOL    HW146646   5.507  13.574   8.956
81583SOL    HW246647   5.569  13.584   9.094
81584SOL     OW46648   5.476  10.008   3.289
81584SOL    HW146649   5.551  10.057   3.256
81584SOL    HW246650   5.483   9.922   3.247
81585SOL     OW46651   7.661   5.402  14.149
81585SOL    HW146652   7.589   5.464  14.141
81585SOL    HW246653   7.736   5.455  14.176
81586SOL     OW46654   8.248   0.908   9.704
81586SOL    HW146655   8.240   0.982   9.644
81586SOL    HW246656   8.217   0.832   9.654
81587SOL     OW46657  10.129   3.100   1.934
81587SOL    HW146658  10.143   3.053   2.016
81587SOL    HW246659  10.090   3.036   1.875
81588SOL     OW46660   3.126   7.531   8.301
81588SOL    HW146661   3.031   7.538   8.306
81588SOL    HW246662   3.150   7.476   8.375
81589SOL     OW46663  11.114   7.849  11.210
81589SOL    HW146664  11.209   7.840  11.206
81589SOL    HW246665  11.091   7.816  11.297
81590SOL     OW46666   2.509   8.577   4.335
81590SOL    HW146667   2.578   8.537   4.282
81590SOL    HW246668   2.537   8.668   4.345
81591SOL     OW46669   6.814  10.719   1.179
81591SOL    HW146670   6.828  10.794   1.236
81591SOL    HW246671   6.862  10.648   1.221
81592SOL     OW46672   6.133   8.876   1.416
81592SOL    HW146673   6.132   8.878   1.511
81592SOL    HW246674   6.222   8.900   1.392
81593SOL     OW46675  13.739   4.508   3.943
81593SOL    HW146676  13.819   4.469   3.977
81593SOL    HW246677  13.765   4.593   3.908
81594SOL     OW46678   6.039   6.164   5.622
81594SOL    HW146679   5.963   6.108   5.607
81594SOL    HW246680   6.085   6.122   5.695
81595SOL     OW46681   0.957   0.899  10.208
81595SOL    HW146682   0.905   0.819  10.218
81595SOL    HW246683   0.960   0.915  10.114
81596SOL     OW46684   3.707   2.432   9.170
81596SOL    HW146685   3.789   2.447   9.123
81596SOL    HW246686   3.733   2.385   9.249
81597SOL     OW46687   6.769   4.309  12.932
81597SOL    HW146688   6.821   4.240  12.890
81597SOL    HW246689   6.714   4.264  12.996
81598SOL     OW46690   9.868   8.389   1.163
81598SOL    HW146691   9.858   8.461   1.100
81598SOL    HW246692   9.795   8.330   1.143
81599SOL     OW46693   6.582   5.470   3.583
81599SOL    HW146694   6.636   5.485   3.505
81599SOL    HW246695   6.559   5.378   3.579
81600SOL     OW46696   1.180   8.685  11.278
81600SOL    HW146697   1.136   8.767  11.254
81600SOL    HW246698   1.230   8.661  11.199
81601SOL     OW46699   4.646   5.175   7.541
81601SOL    HW146700   4.725   5.226   7.562
81601SOL    HW246701   4.596   5.231   7.482
81602SOL     OW46702   0.129   0.868   8.805
81602SOL    HW146703   0.134   0.773   8.813
81602SOL    HW246704   0.099   0.897   8.891
81603SOL     OW46705   9.394   2.330   4.320
81603SOL    HW146706   9.351   2.412   4.296
81603SOL    HW246707   9.400   2.281   4.238
81604SOL     OW46708   1.958  14.108   1.990
81604SOL    HW146709   1.946  14.200   1.965
81604SOL    HW246710   2.052  14.093   1.980
81605SOL     OW46711   4.550  10.490   4.919
81605SOL    HW146712   4.476  10.496   4.858
81605SOL    HW246713   4.512  10.451   4.998
81606SOL     OW46714   1.245  14.172   4.561
81606SOL    HW146715   1.161  14.169   4.514
81606SOL    HW246716   1.225  14.135   4.647
81607SOL     OW46717   6.088   7.137  13.806
81607SOL    HW146718   6.046   7.085  13.737
81607SOL    HW246719   6.167   7.088  13.828
81608SOL     OW46720   6.843   4.181   4.509
81608SOL    HW146721   6.872   4.170   4.419
81608SOL    HW246722   6.774   4.115   4.521
81609SOL     OW46723  13.172  13.827  14.735
81609SOL    HW146724  13.136  13.869  14.657
81609SOL    HW246725  13.192  13.900  14.795
81610SOL     OW46726  11.685   4.690   0.190
81610SOL    HW146727  11.746   4.752   0.230
81610SOL    HW246728  11.655   4.734   0.111
81611SOL     OW46729   6.317   9.527   1.849
81611SOL    HW146730   6.366   9.494   1.774
81611SOL    HW246731   6.322   9.623   1.840
81612SOL     OW46732   8.775   2.323  11.470
81612SOL    HW146733   8.755   2.327  11.564
81612SOL    HW246734   8.851   2.381  11.460
81613SOL     OW46735   3.710   5.212   9.470
81613SOL    HW146736   3.701   5.148   9.399
81613SOL    HW246737   3.638   5.191   9.530
81614SOL     OW46738  11.920   0.077   6.967
81614SOL    HW146739  11.971   0.133   6.909
81614SOL    HW246740  11.930  14.876   6.930
81615SOL     OW46741  10.727  12.668  13.632
81615SOL    HW146742  10.725  12.624  13.546
81615SOL    HW246743  10.728  12.596  13.695
81616SOL     OW46744  12.997   9.045   8.619
81616SOL    HW146745  13.075   9.028   8.672
81616SOL    HW246746  13.031   9.060   8.530
81617SOL     OW46747   3.089   3.857  13.599
81617SOL    HW146748   3.049   3.918  13.537
81617SOL    HW246749   3.064   3.891  13.685
81618SOL     OW46750  14.534   6.218   8.329
81618SOL    HW146751  14.618   6.210   8.285
81618SOL    HW246752  14.556   6.244   8.418
81619SOL     OW46753   5.948   9.319   9.578
81619SOL    HW146754   5.927   9.255   9.647
81619SOL    HW246755   6.043   9.330   9.584
81620SOL     OW46756   8.331  14.520   8.338
81620SOL    HW146757   8.423  14.540   8.320
81620SOL    HW246758   8.288  14.529   8.254
81621SOL     OW46759  14.841   8.491   0.315
81621SOL    HW146760  14.799   8.548   0.380
81621SOL    HW246761   0.015   8.438   0.367
81622SOL     OW46762   8.431   5.607   8.582
81622SOL    HW146763   8.344   5.647   8.574
81622SOL    HW246764   8.427   5.530   8.524
81623SOL     OW46765   9.758  13.402   8.978
81623SOL    HW146766   9.725  13.381   9.066
81623SOL    HW246767   9.703  13.473   8.948
81624SOL     OW46768   3.214   4.913   0.943
81624SOL    HW146769   3.273   4.983   0.917
81624SOL    HW246770   3.135   4.927   0.890
81625SOL     OW46771  13.972  12.777   8.082
81625SOL    HW146772  13.934  12.706   8.031
81625SOL    HW246773  13.896  12.828   8.112
81626SOL     OW46774  10.703  14.211  13.433
81626SOL    HW146775  10.768  14.149  13.468
81626SOL    HW246776  10.751  14.294  13.427
81627SOL     OW46777  10.079  11.331   1.525
81627SOL    HW146778  10.013  11.350   1.592
81627SOL    HW246779  10.161  11.362   1.562
81628SOL     OW46780  13.971   0.345   0.887
81628SOL    HW146781  14.041   0.280   0.883
81628SOL    HW246782  13.915   0.325   0.812
81629SOL     OW46783   9.960   2.454   7.485
81629SOL    HW146784   9.975   2.361   7.470
81629SOL    HW246785  10.042   2.486   7.523
81630SOL     OW46786  12.107   3.092   2.470
81630SOL    HW146787  12.048   3.144   2.416
81630SOL    HW246788  12.193   3.131   2.456
81631SOL     OW46789  10.760   8.004   6.343
81631SOL    HW146790  10.714   7.947   6.280
81631SOL    HW246791  10.850   8.006   6.312
81632SOL     OW46792   3.415  10.899   9.489
81632SOL    HW146793   3.373  10.814   9.499
81632SOL    HW246794   3.411  10.916   9.395
81633SOL     OW46795   6.224   8.039  14.550
81633SOL    HW146796   6.271   8.053  14.468
81633SOL    HW246797   6.138   8.076  14.535
81634SOL     OW46798  14.468   7.806   2.138
81634SOL    HW146799  14.474   7.712   2.123
81634SOL    HW246800  14.406   7.837   2.072
81635SOL     OW46801  11.461   7.352  13.985
81635SOL    HW146802  11.523   7.363  13.912
81635SOL    HW246803  11.431   7.261  13.976
81636SOL     OW46804  11.227  12.244  10.421
81636SOL    HW146805  11.162  12.207  10.480
81636SOL    HW246806  11.232  12.182  10.349
81637SOL     OW46807   1.856  12.745   0.572
81637SOL    HW146808   1.858  12.840   0.561
81637SOL    HW246809   1.868  12.732   0.665
81638SOL     OW46810  10.626   7.549  10.895
81638SOL    HW146811  10.708   7.584  10.930
81638SOL    HW246812  10.565   7.623  10.899
81639SOL     OW46813   8.562  11.309   8.984
81639SOL    HW146814   8.657  11.298   8.988
81639SOL    HW246815   8.528  11.224   9.011
81640SOL     OW46816  13.976   3.813   0.519
81640SOL    HW146817  13.957   3.734   0.570
81640SOL    HW246818  14.067   3.834   0.541
81641SOL     OW46819   1.388   2.760   4.676
81641SOL    HW146820   1.400   2.846   4.715
81641SOL    HW246821   1.477   2.724   4.670
81642SOL     OW46822   2.276  14.038  11.522
81642SOL    HW146823   2.325  14.023  11.441
81642SOL    HW246824   2.330  13.998  11.590
81643SOL     OW46825  11.631   6.237  13.365
81643SOL    HW146826  11.625   6.260  13.272
81643SOL    HW246827  11.540   6.233  13.395
81644SOL     OW46828   0.495   3.009   3.023
81644SOL    HW146829   0.497   3.056   3.106
81644SOL    HW246830   0.566   3.049   2.972
81645SOL     OW46831  12.860   7.622   0.229
81645SOL    HW146832  12.865   7.647   0.137
81645SOL    HW246833  12.782   7.667   0.262
81646SOL     OW46834   5.777  12.145  11.490
81646SOL    HW146835   5.707  12.080  11.490
81646SOL    HW246836   5.737  12.225  11.456
81647SOL     OW46837   3.697  12.833   4.125
81647SOL    HW146838   3.792  12.834   4.129
81647SOL    HW246839   3.669  12.906   4.180
81648SOL     OW46840  12.803  13.929   7.701
81648SOL    HW146841  12.711  13.913   7.724
81648SOL    HW246842  12.798  13.987   7.625
81649SOL     OW46843   4.897   1.872  10.683
81649SOL    HW146844   4.949   1.799  10.650
81649SOL    HW246845   4.833   1.890  10.615
81650SOL     OW46846   4.568   4.701   9.991
81650SOL    HW146847   4.630   4.772  10.009
81650SOL    HW246848   4.537   4.719   9.902
81651SOL     OW46849  10.683   5.060   3.106
81651SOL    HW146850  10.708   4.975   3.070
81651SOL    HW246851  10.725   5.123   3.048
81652SOL     OW46852   0.924  11.613   0.101
81652SOL    HW146853   0.872  11.544   0.059
81652SOL    HW246854   0.928  11.587   0.193
81653SOL     OW46855   7.458  14.887   9.025
81653SOL    HW146856   7.465  14.859   9.116
81653SOL    HW246857   7.530   0.062   9.013
81654SOL     OW46858   3.535   8.538   9.324
81654SOL    HW146859   3.512   8.449   9.350
81654SOL    HW246860   3.604   8.526   9.259
81655SOL     OW46861  10.567   6.720   3.048
81655SOL    HW146862  10.567   6.684   2.960
81655SOL    HW246863  10.615   6.803   3.041
81656SOL     OW46864   8.487  10.126  10.068
81656SOL    HW146865   8.410  10.183  10.065
81656SOL    HW246866   8.485  10.088  10.156
81657SOL     OW46867  10.700   0.226   0.205
81657SOL    HW146868  10.754   0.193   0.277
81657SOL    HW246869  10.727   0.176   0.129
81658SOL     OW46870   1.090  12.760   5.355
81658SOL    HW146871   1.008  12.739   5.312
81658SOL    HW246872   1.090  12.707   5.435
81659SOL     OW46873  12.058   8.046   4.802
81659SOL    HW146874  12.012   8.130   4.805
81659SOL    HW246875  12.086   8.037   4.711
81660SOL     OW46876  11.696   7.071   4.130
81660SOL    HW146877  11.625   7.134   4.116
81660SOL    HW246878  11.663   6.990   4.091
81661SOL     OW46879   9.624  13.394   9.561
81661SOL    HW146880   9.585  13.368   9.644
81661SOL    HW246881   9.658  13.482   9.576
81662SOL     OW46882  14.706   8.530   4.486
81662SOL    HW146883  14.677   8.582   4.411
81662SOL    HW246884  14.649   8.454   4.486
81663SOL     OW46885   7.622   8.451  13.661
81663SOL    HW146886   7.694   8.440  13.723
81663SOL    HW246887   7.647   8.527  13.609
81664SOL     OW46888  13.437   1.993   2.316
81664SOL    HW146889  13.391   1.971   2.236
81664SOL    HW246890  13.372   1.981   2.385
81665SOL     OW46891   5.650   4.843   3.585
81665SOL    HW146892   5.727   4.795   3.555
81665SOL    HW246893   5.684   4.902   3.652
81666SOL     OW46894   2.274   8.524   9.097
81666SOL    HW146895   2.362   8.487   9.087
81666SOL    HW246896   2.254   8.512   9.190
81667SOL     OW46897   5.824  11.859   5.182
81667SOL    HW146898   5.884  11.873   5.109
81667SOL    HW246899   5.875  11.884   5.259
81668SOL     OW46900   3.821   7.405  13.230
81668SOL    HW146901   3.856   7.473  13.287
81668SOL    HW246902   3.791   7.451  13.153
81669SOL     OW46903   2.507  10.344  11.344
81669SOL    HW146904   2.580  10.284  11.360
81669SOL    HW246905   2.549  10.427  11.319
81670SOL     OW46906   1.051   1.561   9.721
81670SOL    HW146907   0.981   1.616   9.686
81670SOL    HW246908   1.089   1.612   9.792
81671SOL     OW46909   6.906   7.698   3.471
81671SOL    HW146910   6.886   7.700   3.565
81671SOL    HW246911   6.825   7.667   3.430
81672SOL     OW46912   4.222   7.086  14.261
81672SOL    HW146913   4.276   7.055  14.334
81672SOL    HW246914   4.247   7.178  14.249
81673SOL     OW46915   0.465   5.293   1.977
81673SOL    HW146916   0.437   5.205   1.953
81673SOL    HW246917   0.526   5.280   2.050
81674SOL     OW46918  14.497  13.826  14.261
81674SOL    HW146919  14.446  13.905  14.244
81674SOL    HW246920  14.541  13.844  14.344
81675SOL     OW46921   5.287  10.945   3.564
81675SOL    HW146922   5.258  10.879   3.500
81675SOL    HW246923   5.255  11.028   3.529
81676SOL     OW46924   1.330   8.338  10.546
81676SOL    HW146925   1.403   8.356  10.487
81676SOL    HW246926   1.258   8.391  10.513
81677SOL     OW46927   4.602   1.092  13.998
81677SOL    HW146928   4.605   1.165  13.937
81677SOL    HW246929   4.538   1.118  14.065
81678SOL     OW46930   2.602   7.225  12.901
81678SOL    HW146931   2.686   7.241  12.944
81678SOL    HW246932   2.605   7.133  12.876
81679SOL     OW46933   9.846   5.192   6.783
81679SOL    HW146934   9.838   5.099   6.760
81679SOL    HW246935   9.934   5.216   6.755
81680SOL     OW46936  10.243   6.598   1.026
81680SOL    HW146937  10.258   6.544   1.104
81680SOL    HW246938  10.208   6.537   0.962
81681SOL     OW46939   6.055  13.921   8.837
81681SOL    HW146940   6.085  13.830   8.842
81681SOL    HW246941   6.087  13.960   8.919
81682SOL     OW46942   3.830  12.935   6.898
81682SOL    HW146943   3.925  12.938   6.890
81682SOL    HW246944   3.808  13.002   6.962
81683SOL     OW46945  11.943   5.395   7.498
81683SOL    HW146946  11.873   5.423   7.557
81683SOL    HW246947  12.016   5.453   7.519
81684SOL     OW46948   3.731   1.851   1.598
81684SOL    HW146949   3.735   1.883   1.688
81684SOL    HW246950   3.672   1.776   1.601
81685SOL     OW46951  13.723  10.113   0.529
81685SOL    HW146952  13.686  10.027   0.548
81685SOL    HW246953  13.733  10.154   0.615
81686SOL     OW46954   8.388  14.524   8.911
81686SOL    HW146955   8.483  14.534   8.901
81686SOL    HW246956   8.377  14.436   8.947
81687SOL     OW46957   9.628  10.344   6.179
81687SOL    HW146958   9.710  10.318   6.222
81687SOL    HW246959   9.571  10.372   6.251
81688SOL     OW46960   1.992  10.048  10.441
81688SOL    HW146961   2.008  10.069  10.348
81688SOL    HW246962   1.922  10.107  10.467
81689SOL     OW46963   1.174  12.894  11.985
81689SOL    HW146964   1.139  12.809  12.011
81689SOL    HW246965   1.101  12.955  11.996
81690SOL     OW46966  14.592  12.977  14.188
81690SOL    HW146967  14.614  12.995  14.280
81690SOL    HW246968  14.676  12.953  14.148
81691SOL     OW46969   2.217   9.420  14.434
81691SOL    HW146970   2.175   9.348  14.388
81691SOL    HW246971   2.197   9.405  14.526
81692SOL     OW46972   9.429  10.373   0.993
81692SOL    HW146973   9.366  10.443   1.013
81692SOL    HW246974   9.377  10.293   0.991
81693SOL     OW46975   9.852  11.630  14.578
81693SOL    HW146976   9.759  11.612  14.561
81693SOL    HW246977   9.897  11.600  14.500
81694SOL     OW46978   2.190  12.976  12.768
81694SOL    HW146979   2.101  12.972  12.803
81694SOL    HW246980   2.197  13.063  12.729
81695SOL     OW46981   5.888   4.025  12.444
81695SOL    HW146982   5.843   3.945  12.416
81695SOL    HW246983   5.960   3.994  12.500
81696SOL     OW46984  13.152   6.502   9.213
81696SOL    HW146985  13.202   6.583   9.227
81696SOL    HW246986  13.201   6.456   9.145
81697SOL     OW46987   3.444   6.467   5.588
81697SOL    HW146988   3.399   6.394   5.545
81697SOL    HW246989   3.451   6.439   5.680
81698SOL     OW46990   9.213   1.233   5.658
81698SOL    HW146991   9.228   1.310   5.713
81698SOL    HW246992   9.250   1.257   5.573
81699SOL     OW46993   7.933   1.266   8.599
81699SOL    HW146994   7.972   1.207   8.664
81699SOL    HW246995   8.007   1.319   8.568
81700SOL     OW46996   9.704   0.712   5.581
81700SOL    HW146997   9.799   0.705   5.573
81700SOL    HW246998   9.688   0.716   5.675
81701SOL     OW46999  11.407  11.825   8.194
81701SOL    HW147000  11.427  11.808   8.286
81701SOL    HW247001  11.328  11.879   8.196
81702SOL     OW47002   0.724   4.610   4.163
81702SOL    HW147003   0.665   4.588   4.236
81702SOL    HW247004   0.720   4.705   4.158
81703SOL     OW47005   6.596   6.858   4.227
81703SOL    HW147006   6.557   6.945   4.238
81703SOL    HW247007   6.554   6.804   4.293
81704SOL     OW47008   8.570   2.789   9.623
81704SOL    HW147009   8.490   2.761   9.668
81704SOL    HW247010   8.590   2.875   9.661
81705SOL     OW47011   3.941   4.873   1.180
81705SOL    HW147012   3.886   4.871   1.102
81705SOL    HW247013   3.880   4.857   1.253
81706SOL     OW47014   8.616   8.048  11.873
81706SOL    HW147015   8.601   8.136  11.907
81706SOL    HW247016   8.698   8.054  11.824
81707SOL     OW47017   3.245   6.105   4.222
81707SOL    HW147018   3.324   6.141   4.263
81707SOL    HW247019   3.173   6.139   4.275
81708SOL     OW47020   1.271  13.460   4.372
81708SOL    HW147021   1.272  13.549   4.406
81708SOL    HW247022   1.327  13.411   4.431
81709SOL     OW47023  12.673   4.398   4.440
81709SOL    HW147024  12.755   4.446   4.455
81709SOL    HW247025  12.610   4.440   4.498
81710SOL     OW47026   7.311  12.960   2.911
81710SOL    HW147027   7.286  13.008   2.990
81710SOL    HW247028   7.379  13.014   2.871
81711SOL     OW47029   7.328  13.368   2.767
81711SOL    HW147030   7.326  13.442   2.706
81711SOL    HW247031   7.274  13.301   2.725
81712SOL     OW47032   8.167   7.774   7.832
81712SOL    HW147033   8.180   7.863   7.798
81712SOL    HW247034   8.209   7.775   7.918
81713SOL     OW47035   9.230   1.849   1.093
81713SOL    HW147036   9.137   1.826   1.099
81713SOL    HW247037   9.246   1.856   0.999
81714SOL     OW47038  12.152   4.449   4.129
81714SOL    HW147039  12.135   4.429   4.221
81714SOL    HW247040  12.144   4.544   4.124
81715SOL     OW47041  13.823  10.803   9.293
81715SOL    HW147042  13.861  10.806   9.381
81715SOL    HW247043  13.782  10.717   9.288
81716SOL     OW47044  13.904  10.926  12.164
81716SOL    HW147045  13.832  10.864  12.162
81716SOL    HW247046  13.979  10.878  12.128
81717SOL     OW47047   5.701   3.450   6.779
81717SOL    HW147048   5.630   3.385   6.778
81717SOL    HW247049   5.695   3.493   6.694
81718SOL     OW47050   9.565   3.872  11.325
81718SOL    HW147051   9.629   3.885  11.395
81718SOL    HW247052   9.582   3.784  11.293
81719SOL     OW47053   8.475  11.374   7.417
81719SOL    HW147054   8.415  11.374   7.342
81719SOL    HW247055   8.550  11.425   7.387
81720SOL     OW47056   8.242  13.466   4.797
81720SOL    HW147057   8.229  13.476   4.892
81720SOL    HW247058   8.158  13.435   4.764
81721SOL     OW47059   7.638   4.514  12.200
81721SOL    HW147060   7.633   4.483  12.291
81721SOL    HW247061   7.630   4.435  12.147
81722SOL     OW47062   9.104   2.050   0.050
81722SOL    HW147063   9.128   2.142   0.040
81722SOL    HW247064   9.087   2.020  14.849
81723SOL     OW47065  11.327  10.304   8.833
81723SOL    HW147066  11.371  10.222   8.809
81723SOL    HW247067  11.362  10.368   8.772
81724SOL     OW47068   5.765  14.677   3.920
81724SOL    HW147069   5.741  14.711   3.834
81724SOL    HW247070   5.860  14.681   3.923
81725SOL     OW47071   5.682   5.540  12.375
81725SOL    HW147072   5.604   5.549  12.321
81725SOL    HW247073   5.737   5.615  12.352
81726SOL     OW47074   4.595   4.332  14.194
81726SOL    HW147075   4.505   4.357  14.176
81726SOL    HW247076   4.640   4.415  14.212
81727SOL     OW47077  10.763  10.028   4.872
81727SOL    HW147078  10.677  10.059   4.900
81727SOL    HW247079  10.822  10.051   4.944
81728SOL     OW47080   8.258   8.148  13.064
81728SOL    HW147081   8.353   8.152  13.078
81728SOL    HW247082   8.248   8.097  12.984
81729SOL     OW47083  13.516  13.825   0.915
81729SOL    HW147084  13.534  13.733   0.896
81729SOL    HW247085  13.467  13.855   0.839
81730SOL     OW47086  11.743   9.765   6.534
81730SOL    HW147087  11.762   9.859   6.528
81730SOL    HW247088  11.828   9.723   6.526
81731SOL     OW47089   9.031   9.629  10.784
81731SOL    HW147090   8.999   9.608  10.697
81731SOL    HW247091   8.991   9.563  10.841
81732SOL     OW47092   5.477   6.730  11.341
81732SOL    HW147093   5.485   6.639  11.369
81732SOL    HW247094   5.470   6.726  11.246
81733SOL     OW47095   9.554   5.988   4.803
81733SOL    HW147096   9.621   6.027   4.859
81733SOL    HW247097   9.591   5.991   4.715
81734SOL     OW47098  11.698  13.378   3.296
81734SOL    HW147099  11.758  13.304   3.286
81734SOL    HW247100  11.622  13.341   3.341
81735SOL     OW47101  11.301   2.198   3.905
81735SOL    HW147102  11.337   2.227   3.822
81735SOL    HW247103  11.352   2.244   3.971
81736SOL     OW47104   9.424   8.122  12.571
81736SOL    HW147105   9.335   8.099  12.598
81736SOL    HW247106   9.470   8.140  12.653
81737SOL     OW47107   0.944  13.829  11.345
81737SOL    HW147108   0.909  13.768  11.409
81737SOL    HW247109   1.031  13.851  11.378
81738SOL     OW47110   1.792   7.273   4.401
81738SOL    HW147111   1.870   7.220   4.420
81738SOL    HW247112   1.826   7.358   4.374
81739SOL     OW47113   9.869   6.165   2.092
81739SOL    HW147114   9.838   6.208   2.171
81739SOL    HW247115   9.945   6.114   2.120
81740SOL     OW47116   1.082   2.132  13.898
81740SOL    HW147117   1.109   2.197  13.963
81740SOL    HW247118   1.033   2.183  13.833
81741SOL     OW47119   4.298   5.558   3.259
81741SOL    HW147120   4.342   5.529   3.180
81741SOL    HW247121   4.313   5.487   3.322
81742SOL     OW47122   5.197  11.598   4.241
81742SOL    HW147123   5.239  11.523   4.199
81742SOL    HW247124   5.158  11.561   4.321
81743SOL     OW47125   0.296  11.613   5.218
81743SOL    HW147126   0.387  11.587   5.234
81743SOL    HW247127   0.300  11.671   5.142
81744SOL     OW47128  11.637   8.118  13.037
81744SOL    HW147129  11.569   8.146  12.976
81744SOL    HW247130  11.611   8.030  13.064
81745SOL     OW47131   3.437  11.607   9.282
81745SOL    HW147132   3.450  11.512   9.273
81745SOL    HW247133   3.436  11.640   9.192
81746SOL     OW47134   6.511   0.156   4.233
81746SOL    HW147135   6.549   0.068   4.244
81746SOL    HW247136   6.586   0.210   4.210
81747SOL     OW47137  14.220   9.660   6.484
81747SOL    HW147138  14.242   9.688   6.396
81747SOL    HW247139  14.200   9.740   6.531
81748SOL     OW47140   8.323   4.973   1.394
81748SOL    HW147141   8.297   4.882   1.408
81748SOL    HW247142   8.240   5.021   1.385
81749SOL     OW47143  13.690  10.756  12.868
81749SOL    HW147144  13.694  10.677  12.922
81749SOL    HW247145  13.625  10.811  12.912
81750SOL     OW47146   3.669   6.806  10.879
81750SOL    HW147147   3.754   6.772  10.906
81750SOL    HW247148   3.674   6.814  10.784
81751SOL     OW47149  11.748  13.055   4.349
81751SOL    HW147150  11.749  13.071   4.444
81751SOL    HW247151  11.797  13.128   4.312
81752SOL     OW47152   1.665  11.252  11.266
81752SOL    HW147153   1.731  11.261  11.334
81752SOL    HW247154   1.674  11.331  11.213
81753SOL     OW47155   5.133  14.520   3.889
81753SOL    HW147156   5.108  14.483   3.804
81753SOL    HW247157   5.058  14.502   3.945
81754SOL     OW47158   7.434   0.779  13.791
81754SOL    HW147159   7.369   0.742  13.850
81754SOL    HW247160   7.516   0.776  13.841
81755SOL     OW47161   5.797   8.576   8.431
81755SOL    HW147162   5.885   8.538   8.430
81755SOL    HW247163   5.806   8.659   8.384
81756SOL     OW47164  11.681   8.659  10.039
81756SOL    HW147165  11.753   8.721  10.023
81756SOL    HW247166  11.690   8.594   9.970
81757SOL     OW47167  10.845   2.100   7.413
81757SOL    HW147168  10.824   2.047   7.336
81757SOL    HW247169  10.877   2.037   7.477
81758SOL     OW47170   8.431  12.873   9.130
81758SOL    HW147171   8.353  12.921   9.103
81758SOL    HW247172   8.502  12.915   9.081
81759SOL     OW47173   1.143   2.887   5.173
81759SOL    HW147174   1.105   2.909   5.258
81759SOL    HW247175   1.096   2.943   5.111
81760SOL     OW47176  14.559   8.516   5.629
81760SOL    HW147177  14.639   8.465   5.637
81760SOL    HW247178  14.587   8.602   5.597
81761SOL     OW47179   0.888   8.098   7.868
81761SOL    HW147180   0.809   8.112   7.921
81761SOL    HW247181   0.913   8.008   7.887
81762SOL     OW47182   6.935   3.332  11.632
81762SOL    HW147183   6.985   3.410  11.658
81762SOL    HW247184   6.949   3.326  11.537
81763SOL     OW47185   0.995   5.612   0.745
81763SOL    HW147186   0.926   5.546   0.757
81763SOL    HW247187   1.012   5.613   0.651
81764SOL     OW47188   8.783  10.249  12.040
81764SOL    HW147189   8.783  10.220  11.949
81764SOL    HW247190   8.778  10.168  12.091
81765SOL     OW47191  14.553  10.607  10.527
81765SOL    HW147192  14.595  10.627  10.611
81765SOL    HW247193  14.623  10.567  10.475
81766SOL     OW47194  10.296  12.219  13.845
81766SOL    HW147195  10.379  12.230  13.891
81766SOL    HW247196  10.322  12.203  13.754
81767SOL     OW47197   0.954   8.694  14.151
81767SOL    HW147198   0.989   8.627  14.093
81767SOL    HW247199   1.024   8.709  14.215
81768SOL     OW47200  13.283  10.264   4.921
81768SOL    HW147201  13.228  10.342   4.926
81768SOL    HW247202  13.348  10.275   4.990
81769SOL     OW47203  10.829   5.639   7.488
81769SOL    HW147204  10.868   5.552   7.480
81769SOL    HW247205  10.735   5.625   7.476
81770SOL     OW47206  12.061  10.892   4.849
81770SOL    HW147207  12.005  10.827   4.808
81770SOL    HW247208  12.056  10.968   4.792
81771SOL     OW47209  14.071   1.610   8.859
81771SOL    HW147210  14.069   1.520   8.827
81771SOL    HW247211  14.131   1.606   8.934
81772SOL     OW47212   9.575   6.893   1.216
81772SOL    HW147213   9.647   6.835   1.240
81772SOL    HW247214   9.501   6.862   1.268
81773SOL     OW47215   1.795   7.204   0.944
81773SOL    HW147216   1.710   7.162   0.957
81773SOL    HW247217   1.833   7.211   1.032
81774SOL     OW47218   7.946  11.621  13.157
81774SOL    HW147219   7.910  11.697  13.204
81774SOL    HW247220   8.016  11.658  13.103
81775SOL     OW47221  10.567  10.663   2.484
81775SOL    HW147222  10.478  10.668   2.519
81775SOL    HW247223  10.602  10.582   2.522
81776SOL     OW47224   7.299  13.751  12.739
81776SOL    HW147225   7.344  13.832  12.715
81776SOL    HW247226   7.290  13.756  12.834
81777SOL     OW47227  12.651   2.874   9.022
81777SOL    HW147228  12.619   2.842   9.106
81777SOL    HW247229  12.607   2.819   8.957
81778SOL     OW47230   7.801   5.474   5.787
81778SOL    HW147231   7.760   5.547   5.741
81778SOL    HW247232   7.737   5.403   5.781
81779SOL     OW47233  11.691   9.818   9.035
81779SOL    HW147234  11.760   9.766   8.994
81779SOL    HW247235  11.664   9.766   9.111
81780SOL     OW47236  10.170  11.548   0.660
81780SOL    HW147237  10.133  11.627   0.619
81780SOL    HW247238  10.148  11.477   0.600
81781SOL     OW47239  12.759   4.979   7.765
81781SOL    HW147240  12.791   4.895   7.797
81781SOL    HW247241  12.675   4.991   7.810
81782SOL     OW47242  14.482   5.234  11.132
81782SOL    HW147243  14.566   5.210  11.171
81782SOL    HW247244  14.446   5.300  11.191
81783SOL     OW47245   2.277   2.862   4.377
81783SOL    HW147246   2.254   2.940   4.327
81783SOL    HW247247   2.194   2.825   4.404
81784SOL     OW47248   1.494  14.060   1.005
81784SOL    HW147249   1.488  14.034   0.913
81784SOL    HW247250   1.410  14.034   1.043
81785SOL     OW47251   2.170   3.115   9.361
81785SOL    HW147252   2.175   3.095   9.455
81785SOL    HW247253   2.252   3.160   9.342
81786SOL     OW47254   3.192   8.793  13.943
81786SOL    HW147255   3.273   8.751  13.972
81786SOL    HW247256   3.125   8.761  14.004
81787SOL     OW47257  11.439  13.211   5.207
81787SOL    HW147258  11.446  13.248   5.119
81787SOL    HW247259  11.358  13.248   5.242
81788SOL     OW47260   4.106   5.356   9.912
81788SOL    HW147261   4.135   5.368   9.822
81788SOL    HW247262   4.094   5.261   9.921
81789SOL     OW47263  13.723   2.876   5.875
81789SOL    HW147264  13.678   2.960   5.879
81789SOL    HW247265  13.685   2.824   5.946
81790SOL     OW47266   3.449   5.796   4.518
81790SOL    HW147267   3.426   5.841   4.437
81790SOL    HW247268   3.366   5.766   4.554
81791SOL     OW47269  10.264   2.487   4.591
81791SOL    HW147270  10.181   2.517   4.628
81791SOL    HW247271  10.279   2.402   4.632
81792SOL     OW47272   4.508   9.116  14.210
81792SOL    HW147273   4.442   9.052  14.182
81792SOL    HW247274   4.461   9.199  14.211
81793SOL     OW47275   1.406   5.933   9.544
81793SOL    HW147276   1.352   6.006   9.514
81793SOL    HW247277   1.347   5.879   9.596
81794SOL     OW47278   2.467   7.511  10.201
81794SOL    HW147279   2.561   7.504  10.187
81794SOL    HW247280   2.456   7.498  10.295
81795SOL     OW47281  10.031   1.210   6.542
81795SOL    HW147282   9.949   1.256   6.559
81795SOL    HW247283  10.063   1.246   6.459
81796SOL     OW47284   1.480   4.511   6.590
81796SOL    HW147285   1.503   4.595   6.630
81796SOL    HW247286   1.561   4.483   6.546
81797SOL     OW47287   3.198  10.574   2.015
81797SOL    HW147288   3.235  10.529   2.091
81797SOL    HW247289   3.104  10.577   2.033
81798SOL     OW47290   1.517   2.530   3.529
81798SOL    HW147291   1.517   2.448   3.579
81798SOL    HW247292   1.432   2.530   3.485
81799SOL     OW47293   5.419  10.193  14.131
81799SOL    HW147294   5.499  10.142  14.118
81799SOL    HW247295   5.447  10.269  14.183
81800SOL     OW47296   6.388   2.860   1.777
81800SOL    HW147297   6.377   2.870   1.872
81800SOL    HW247298   6.375   2.767   1.760
81801SOL     OW47299   6.638  11.762   4.141
81801SOL    HW147300   6.657  11.669   4.128
81801SOL    HW247301   6.592  11.788   4.061
81802SOL     OW47302   7.153   3.343  10.408
81802SOL    HW147303   7.185   3.371  10.493
81802SOL    HW247304   7.109   3.420  10.372
81803SOL     OW47305   2.682   0.714   6.029
81803SOL    HW147306   2.670   0.790   6.086
81803SOL    HW247307   2.617   0.725   5.959
81804SOL     OW47308   3.948   0.788   4.716
81804SOL    HW147309   3.968   0.787   4.623
81804SOL    HW247310   4.030   0.817   4.758
81805SOL     OW47311  11.944  12.386   0.685
81805SOL    HW147312  11.921  12.294   0.703
81805SOL    HW247313  11.980  12.418   0.768
81806SOL     OW47314   7.976   9.364   1.472
81806SOL    HW147315   8.009   9.378   1.384
81806SOL    HW247316   8.046   9.315   1.516
81807SOL     OW47317  14.550  12.019   8.295
81807SOL    HW147318  14.494  12.033   8.219
81807SOL    HW247319  14.566  12.107   8.330
81808SOL     OW47320  13.296   6.003   8.267
81808SOL    HW147321  13.345   6.017   8.186
81808SOL    HW247322  13.344   5.934   8.313
81809SOL     OW47323   5.287  11.590   7.320
81809SOL    HW147324   5.230  11.531   7.371
81809SOL    HW247325   5.231  11.664   7.299
81810SOL     OW47326   7.778   5.608   2.693
81810SOL    HW147327   7.696   5.612   2.743
81810SOL    HW247328   7.841   5.569   2.754
81811SOL     OW47329  11.358   6.206   2.565
81811SOL    HW147330  11.266   6.230   2.568
81811SOL    HW247331  11.404   6.286   2.540
81812SOL     OW47332  14.700   9.426  11.675
81812SOL    HW147333  14.791   9.432  11.703
81812SOL    HW247334  14.679   9.333  11.683
81813SOL     OW47335   6.270  13.591   4.891
81813SOL    HW147336   6.365  13.582   4.893
81813SOL    HW247337   6.247  13.634   4.973
81814SOL     OW47338  10.824   2.761   5.998
81814SOL    HW147339  10.808   2.854   6.014
81814SOL    HW247340  10.755   2.734   5.938
81815SOL     OW47341  14.014  11.590   5.702
81815SOL    HW147342  14.072  11.520   5.672
81815SOL    HW247343  13.942  11.545   5.746
81816SOL     OW47344  11.566   1.719   8.927
81816SOL    HW147345  11.531   1.700   9.014
81816SOL    HW247346  11.614   1.801   8.938
81817SOL     OW47347   7.947   0.178   6.492
81817SOL    HW147348   7.912   0.119   6.425
81817SOL    HW247349   7.872   0.196   6.549
81818SOL     OW47350  12.468   2.116   2.109
81818SOL    HW147351  12.542   2.137   2.166
81818SOL    HW247352  12.507   2.085   2.028
81819SOL     OW47353   7.158  13.197   2.564
81819SOL    HW147354   7.118  13.116   2.531
81819SOL    HW247355   7.222  13.221   2.498
81820SOL     OW47356   4.196   1.403   4.191
81820SOL    HW147357   4.288   1.422   4.172
81820SOL    HW247358   4.157   1.387   4.106
81821SOL     OW47359   5.483   2.385   2.030
81821SOL    HW147360   5.564   2.437   2.034
81821SOL    HW247361   5.427   2.422   2.097
81822SOL     OW47362   1.921   8.774   2.045
81822SOL    HW147363   1.899   8.727   1.965
81822SOL    HW247364   1.917   8.707   2.114
81823SOL     OW47365  11.751   1.060   1.505
81823SOL    HW147366  11.816   1.039   1.438
81823SOL    HW247367  11.667   1.036   1.466
81824SOL     OW47368   9.276   2.060  10.596
81824SOL    HW147369   9.324   2.114  10.533
81824SOL    HW247370   9.186   2.093  10.592
81825SOL     OW47371   3.648  11.037  14.559
81825SOL    HW147372   3.706  11.113  14.553
81825SOL    HW247373   3.695  10.974  14.612
81826SOL     OW47374   7.066   7.036   1.654
81826SOL    HW147375   7.092   6.978   1.582
81826SOL    HW247376   7.133   7.022   1.721
81827SOL     OW47377   1.878  12.920  12.896
81827SOL    HW147378   1.818  12.871  12.839
81827SOL    HW247379   1.830  12.932  12.977
81828SOL     OW47380   7.100  13.377   0.863
81828SOL    HW147381   7.057  13.308   0.914
81828SOL    HW247382   7.186  13.385   0.903
81829SOL     OW47383   8.763  10.487  10.948
81829SOL    HW147384   8.800  10.548  11.011
81829SOL    HW247385   8.722  10.542  10.882
81830SOL     OW47386   0.052   2.825  10.489
81830SOL    HW147387   0.070   2.916  10.511
81830SOL    HW247388  14.885   2.792  10.561
81831SOL     OW47389   6.908   8.834  11.481
81831SOL    HW147390   6.880   8.893  11.410
81831SOL    HW247391   6.871   8.749  11.458
81832SOL     OW47392   2.442  12.630   7.958
81832SOL    HW147393   2.463  12.553   8.012
81832SOL    HW247394   2.371  12.674   8.006
81833SOL     OW47395   7.108   2.680   3.483
81833SOL    HW147396   7.019   2.672   3.516
81833SOL    HW247397   7.160   2.625   3.541
81834SOL     OW47398  11.561   7.868   5.783
81834SOL    HW147399  11.568   7.782   5.742
81834SOL    HW247400  11.600   7.857   5.870
81835SOL     OW47401  12.512   4.762   9.368
81835SOL    HW147402  12.433   4.736   9.321
81835SOL    HW247403  12.563   4.681   9.377
81836SOL     OW47404  12.549   8.712   3.858
81836SOL    HW147405  12.534   8.621   3.833
81836SOL    HW247406  12.643   8.725   3.845
81837SOL     OW47407   3.803  10.901  10.273
81837SOL    HW147408   3.825  10.981  10.225
81837SOL    HW247409   3.788  10.836  10.205
81838SOL     OW47410   7.771   4.243   3.997
81838SOL    HW147411   7.737   4.264   4.084
81838SOL    HW247412   7.803   4.327   3.963
81839SOL     OW47413   2.654   6.410   3.687
81839SOL    HW147414   2.659   6.431   3.781
81839SOL    HW247415   2.745   6.404   3.658
81840SOL     OW47416   8.109   9.512   2.650
81840SOL    HW147417   8.032   9.461   2.625
81840SOL    HW247418   8.172   9.498   2.579
81841SOL     OW47419   7.203  13.695   3.819
81841SOL    HW147420   7.206  13.646   3.737
81841SOL    HW247421   7.246  13.638   3.883
81842SOL     OW47422   1.483  14.057   5.187
81842SOL    HW147423   1.578  14.074   5.183
81842SOL    HW247424   1.473  13.971   5.147
81843SOL     OW47425   8.520  13.134   0.567
81843SOL    HW147426   8.509  13.213   0.620
81843SOL    HW247427   8.550  13.068   0.629
81844SOL     OW47428   0.665   0.433   6.439
81844SOL    HW147429   0.721   0.476   6.504
81844SOL    HW247430   0.623   0.362   6.486
81845SOL     OW47431   0.909   8.186   5.947
81845SOL    HW147432   0.883   8.273   5.916
81845SOL    HW247433   0.974   8.203   6.015
81846SOL     OW47434   4.894   3.600   2.079
81846SOL    HW147435   4.867   3.508   2.074
81846SOL    HW247436   4.923   3.611   2.170
81847SOL     OW47437  10.563   5.729   4.834
81847SOL    HW147438  10.522   5.738   4.748
81847SOL    HW247439  10.566   5.634   4.850
81848SOL     OW47440   2.881   2.480   2.749
81848SOL    HW147441   2.910   2.568   2.775
81848SOL    HW247442   2.854   2.438   2.830
81849SOL     OW47443   9.434  10.755   5.807
81849SOL    HW147444   9.385  10.817   5.753
81849SOL    HW247445   9.499  10.717   5.748
81850SOL     OW47446   4.742   6.660   6.319
81850SOL    HW147447   4.836   6.670   6.307
81850SOL    HW247448   4.731   6.570   6.350
81851SOL     OW47449   9.930   5.149  13.482
81851SOL    HW147450   9.843   5.137  13.519
81851SOL    HW247451   9.988   5.157  13.558
81852SOL     OW47452   2.682  10.156  14.185
81852SOL    HW147453   2.695  10.165  14.090
81852SOL    HW247454   2.762  10.113  14.216
81853SOL     OW47455   5.036   4.596   5.115
81853SOL    HW147456   4.980   4.627   5.187
81853SOL    HW247457   4.994   4.515   5.086
81854SOL     OW47458   6.264   4.947   5.426
81854SOL    HW147459   6.346   4.996   5.432
81854SOL    HW247460   6.217   4.967   5.507
81855SOL     OW47461  11.925   9.143  13.022
81855SOL    HW147462  11.906   9.143  13.116
81855SOL    HW247463  11.839   9.146  12.980
81856SOL     OW47464  12.372   1.139   6.086
81856SOL    HW147465  12.419   1.106   6.009
81856SOL    HW247466  12.333   1.061   6.125
81857SOL     OW47467  12.205  13.618   1.390
81857SOL    HW147468  12.110  13.609   1.398
81857SOL    HW247469  12.224  13.706   1.422
81858SOL     OW47470  12.282   2.733   6.134
81858SOL    HW147471  12.232   2.676   6.076
81858SOL    HW247472  12.348   2.676   6.173
81859SOL     OW47473  13.668   3.886   3.063
81859SOL    HW147474  13.594   3.827   3.049
81859SOL    HW247475  13.638   3.945   3.133
81860SOL     OW47476   7.349   0.404  14.185
81860SOL    HW147477   7.434   0.431  14.220
81860SOL    HW247478   7.352   0.309  14.184
81861SOL     OW47479   4.999   7.182   9.526
81861SOL    HW147480   4.918   7.169   9.478
81861SOL    HW247481   5.031   7.094   9.546
81862SOL     OW47482   8.316   0.280   6.877
81862SOL    HW147483   8.279   0.325   6.802
81862SOL    HW247484   8.303   0.187   6.858
81863SOL     OW47485  11.502   6.638   2.934
81863SOL    HW147486  11.513   6.720   2.983
81863SOL    HW247487  11.590   6.602   2.927
81864SOL     OW47488   3.926  12.175  14.610
81864SOL    HW147489   3.928  12.082  14.589
81864SOL    HW247490   3.845  12.187  14.659
81865SOL     OW47491   9.133  14.868  10.730
81865SOL    HW147492   9.146   0.066  10.690
81865SOL    HW247493   9.176  14.807  10.670
81866SOL     OW47494   6.532  10.076   4.647
81866SOL    HW147495   6.605  10.069   4.709
81866SOL    HW247496   6.454  10.064   4.700
81867SOL     OW47497   8.292   8.767  14.884
81867SOL    HW147498   8.284   8.694  14.822
81867SOL    HW247499   8.381   8.757   0.032
81868SOL     OW47500   8.879   5.330   3.722
81868SOL    HW147501   8.890   5.410   3.774
81868SOL    HW247502   8.850   5.264   3.786
81869SOL     OW47503   8.466   1.246  12.303
81869SOL    HW147504   8.381   1.204  12.313
81869SOL    HW247505   8.446   1.329  12.260
81870SOL     OW47506   1.869   4.215   2.546
81870SOL    HW147507   1.890   4.305   2.572
81870SOL    HW247508   1.773   4.211   2.548
81871SOL     OW47509   3.373   7.880  13.274
81871SOL    HW147510   3.295   7.868  13.219
81871SOL    HW247511   3.446   7.859  13.216
81872SOL     OW47512  10.065  13.065  13.764
81872SOL    HW147513   9.984  13.114  13.749
81872SOL    HW247514  10.116  13.120  13.823
81873SOL     OW47515  11.757  12.728  12.310
81873SOL    HW147516  11.845  12.728  12.347
81873SOL    HW247517  11.727  12.638  12.320
81874SOL     OW47518  11.919  11.338  14.109
81874SOL    HW147519  11.843  11.334  14.167
81874SOL    HW247520  11.942  11.431  14.106
81875SOL     OW47521   0.542   0.076   5.780
81875SOL    HW147522   0.526   0.017   5.853
81875SOL    HW247523   0.560   0.161   5.821
81876SOL     OW47524   0.960   4.327   7.994
81876SOL    HW147525   0.910   4.246   7.983
81876SOL    HW247526   0.995   4.344   7.907
81877SOL     OW47527  11.544   7.275   4.045
81877SOL    HW147528  11.537   7.364   4.010
81877SOL    HW247529  11.521   7.218   3.971
81878SOL     OW47530  13.851  12.218   7.042
81878SOL    HW147531  13.872  12.215   7.135
81878SOL    HW247532  13.772  12.273   7.037
81879SOL     OW47533   0.699   8.700  14.503
81879SOL    HW147534   0.653   8.632  14.453
81879SOL    HW247535   0.653   8.781  14.479
81880SOL     OW47536   7.874   6.791   0.285
81880SOL    HW147537   7.809   6.735   0.327
81880SOL    HW247538   7.945   6.798   0.349
81881SOL     OW47539   7.673   6.742  10.676
81881SOL    HW147540   7.678   6.655  10.715
81881SOL    HW247541   7.745   6.791  10.716
81882SOL     OW47542  11.485   4.585  10.801
81882SOL    HW147543  11.463   4.675  10.778
81882SOL    HW247544  11.575   4.573  10.769
81883SOL     OW47545   3.198  10.860   3.314
81883SOL    HW147546   3.152  10.859   3.398
81883SOL    HW247547   3.181  10.774   3.277
81884SOL     OW47548   7.127  11.588  13.741
81884SOL    HW147549   7.192  11.526  13.775
81884SOL    HW247550   7.083  11.622  13.819
81885SOL     OW47551  11.332   5.490   8.167
81885SOL    HW147552  11.341   5.489   8.072
81885SOL    HW247553  11.388   5.562   8.196
81886SOL     OW47554   0.824   7.692   6.607
81886SOL    HW147555   0.833   7.597   6.594
81886SOL    HW247556   0.820   7.702   6.702
81887SOL     OW47557  11.496   7.950   5.490
81887SOL    HW147558  11.464   8.041   5.490
81887SOL    HW247559  11.590   7.958   5.503
81888SOL     OW47560   2.441  10.214  13.180
81888SOL    HW147561   2.407  10.129  13.150
81888SOL    HW247562   2.504  10.192  13.249
81889SOL     OW47563   7.327   7.872   2.867
81889SOL    HW147564   7.393   7.831   2.811
81889SOL    HW247565   7.376   7.931   2.923
81890SOL     OW47566   1.053   2.097   0.705
81890SOL    HW147567   0.962   2.081   0.730
81890SOL    HW247568   1.048   2.125   0.614
81891SOL     OW47569  10.932   5.480   6.482
81891SOL    HW147570  11.019   5.453   6.511
81891SOL    HW247571  10.949   5.541   6.409
81892SOL     OW47572  14.139   4.405   1.922
81892SOL    HW147573  14.139   4.310   1.931
81892SOL    HW247574  14.070   4.423   1.858
81893SOL     OW47575  14.420   8.066   1.496
81893SOL    HW147576  14.467   8.092   1.416
81893SOL    HW247577  14.423   8.144   1.551
81894SOL     OW47578   1.966  14.371   1.886
81894SOL    HW147579   2.022  14.353   1.810
81894SOL    HW247580   1.975  14.465   1.899
81895SOL     OW47581   9.790   4.817   1.205
81895SOL    HW147582   9.762   4.806   1.114
81895SOL    HW247583   9.840   4.899   1.205
81896SOL     OW47584   4.767   3.123  11.607
81896SOL    HW147585   4.842   3.084  11.563
81896SOL    HW247586   4.715   3.162  11.535
81897SOL     OW47587   6.831   5.361   6.273
81897SOL    HW147588   6.874   5.367   6.188
81897SOL    HW247589   6.790   5.447   6.285
81898SOL     OW47590   4.572  13.925   0.943
81898SOL    HW147591   4.566  13.994   0.877
81898SOL    HW247592   4.660  13.933   0.979
81899SOL     OW47593   1.034   6.464  11.397
81899SOL    HW147594   1.069   6.545  11.436
81899SOL    HW247595   1.035   6.401  11.469
81900SOL     OW47596   0.005   5.331   1.864
81900SOL    HW147597  14.860   5.306   1.778
81900SOL    HW247598  14.821   5.381   1.903
81901SOL     OW47599  10.272   3.540  13.627
81901SOL    HW147600  10.339   3.554  13.694
81901SOL    HW247601  10.321   3.516  13.548
81902SOL     OW47602  13.969   7.917   8.144
81902SOL    HW147603  13.969   7.889   8.235
81902SOL    HW247604  13.904   7.861   8.102
81903SOL     OW47605  11.748  10.934  13.209
81903SOL    HW147606  11.792  10.858  13.246
81903SOL    HW247607  11.659  10.930  13.245
81904SOL     OW47608   0.924  13.621   2.314
81904SOL    HW147609   0.848  13.675   2.339
81904SOL    HW247610   0.911  13.604   2.221
81905SOL     OW47611  14.488  13.193   5.697
81905SOL    HW147612  14.475  13.255   5.768
81905SOL    HW247613  14.401  13.184   5.656
81906SOL     OW47614   4.102   5.578   6.630
81906SOL    HW147615   4.091   5.557   6.723
81906SOL    HW247616   4.160   5.510   6.596
81907SOL     OW47617  13.324   3.113   1.360
81907SOL    HW147618  13.297   3.023   1.379
81907SOL    HW247619  13.419   3.112   1.369
81908SOL     OW47620   9.232   8.718  11.397
81908SOL    HW147621   9.246   8.692  11.488
81908SOL    HW247622   9.195   8.640  11.355
81909SOL     OW47623   2.313   9.316   8.295
81909SOL    HW147624   2.227   9.355   8.280
81909SOL    HW247625   2.370   9.358   8.231
81910SOL     OW47626  10.240   7.302   1.604
81910SOL    HW147627  10.165   7.260   1.647
81910SOL    HW247628  10.288   7.230   1.564
81911SOL     OW47629  11.139   4.552  12.621
81911SOL    HW147630  11.177   4.639  12.635
81911SOL    HW247631  11.097   4.530  12.704
81912SOL     OW47632   0.057   4.142   4.165
81912SOL    HW147633   0.042   4.093   4.247
81912SOL    HW247634   0.033   4.232   4.187
81913SOL     OW47635   2.683   1.548  12.796
81913SOL    HW147636   2.675   1.643  12.805
81913SOL    HW247637   2.641   1.512  12.874
81914SOL     OW47638  14.538  14.734   0.870
81914SOL    HW147639  14.558  14.685   0.949
81914SOL    HW247640  14.590  14.693   0.801
81915SOL     OW47641   7.154   8.642   9.483
81915SOL    HW147642   7.088   8.584   9.522
81915SOL    HW247643   7.164   8.611   9.393
81916SOL     OW47644   9.803   7.340  10.130
81916SOL    HW147645   9.815   7.345  10.224
81916SOL    HW247646   9.811   7.247  10.109
81917SOL     OW47647   3.304  11.683   7.339
81917SOL    HW147648   3.308  11.752   7.405
81917SOL    HW247649   3.214  11.684   7.307
81918SOL     OW47650   8.531   9.365   2.142
81918SOL    HW147651   8.472   9.304   2.098
81918SOL    HW247652   8.480   9.445   2.151
81919SOL     OW47653   7.006   7.234   0.808
81919SOL    HW147654   7.032   7.144   0.825
81919SOL    HW247655   6.936   7.251   0.872
81920SOL     OW47656  11.488  12.897  12.621
81920SOL    HW147657  11.445  12.970  12.577
81920SOL    HW247658  11.499  12.830  12.553
81921SOL     OW47659  10.833   8.252   2.873
81921SOL    HW147660  10.886   8.207   2.806
81921SOL    HW247661  10.743   8.224   2.854
81922SOL     OW47662  14.277  12.478   2.708
81922SOL    HW147663  14.325  12.531   2.646
81922SOL    HW247664  14.193  12.522   2.718
81923SOL     OW47665   6.936   0.541  14.043
81923SOL    HW147666   7.001   0.599  14.004
81923SOL    HW247667   6.984   0.491  14.108
81924SOL     OW47668  11.705   1.730   6.137
81924SOL    HW147669  11.631   1.787   6.117
81924SOL    HW247670  11.774   1.789   6.167
81925SOL     OW47671   1.796  13.513   1.981
81925SOL    HW147672   1.832  13.538   2.066
81925SOL    HW247673   1.770  13.596   1.941
81926SOL     OW47674   9.813  12.847   0.163
81926SOL    HW147675   9.838  12.922   0.109
81926SOL    HW247676   9.891  12.829   0.215
81927SOL     OW47677   6.867   1.560   3.687
81927SOL    HW147678   6.858   1.632   3.625
81927SOL    HW247679   6.825   1.485   3.644
81928SOL     OW47680  11.084   0.481   2.754
81928SOL    HW147681  11.119   0.432   2.680
81928SOL    HW247682  11.003   0.521   2.721
81929SOL     OW47683  13.439   0.949  12.381
81929SOL    HW147684  13.395   0.991  12.455
81929SOL    HW247685  13.397   0.986  12.304
81930SOL     OW47686  12.517  12.438   4.567
81930SOL    HW147687  12.537  12.529   4.586
81930SOL    HW247688  12.542  12.427   4.475
81931SOL     OW47689  14.502   5.862  10.779
81931SOL    HW147690  14.458   5.842  10.861
81931SOL    HW247691  14.577   5.803  10.777
81932SOL     OW47692   0.715  13.402   5.608
81932SOL    HW147693   0.791  13.354   5.643
81932SOL    HW247694   0.683  13.346   5.537
81933SOL     OW47695   5.790  10.103   1.252
81933SOL    HW147696   5.832  10.120   1.336
81933SOL    HW247697   5.701  10.073   1.275
81934SOL     OW47698   4.354  10.092   0.281
81934SOL    HW147699   4.343  10.006   0.322
81934SOL    HW247700   4.266  10.126   0.273
81935SOL     OW47701   9.258   8.746   6.965
81935SOL    HW147702   9.185   8.721   7.023
81935SOL    HW247703   9.285   8.832   6.997
81936SOL     OW47704   6.736   0.282   1.626
81936SOL    HW147705   6.646   0.279   1.593
81936SOL    HW247706   6.738   0.362   1.680
81937SOL     OW47707   0.607   7.884  11.762
81937SOL    HW147708   0.541   7.934  11.810
81937SOL    HW247709   0.558   7.839  11.694
81938SOL     OW47710   7.143   0.411   4.345
81938SOL    HW147711   7.069   0.471   4.342
81938SOL    HW247712   7.163   0.401   4.438
81939SOL     OW47713   1.019  11.110   7.856
81939SOL    HW147714   1.034  11.198   7.820
81939SOL    HW247715   0.960  11.068   7.794
81940SOL     OW47716   8.122   3.410  11.738
81940SOL    HW147717   8.128   3.320  11.770
81940SOL    HW247718   8.030   3.435  11.752
81941SOL     OW47719   2.337   8.092  10.964
81941SOL    HW147720   2.251   8.091  10.922
81941SOL    HW247721   2.395   8.130  10.898
81942SOL     OW47722   4.360   3.300  13.649
81942SOL    HW147723   4.407   3.236  13.595
81942SOL    HW247724   4.334   3.369  13.588
81943SOL     OW47725   4.448   5.053   4.556
81943SOL    HW147726   4.517   5.086   4.498
81943SOL    HW247727   4.414   4.976   4.512
81944SOL     OW47728  12.198  13.774   6.251
81944SOL    HW147729  12.236  13.855   6.216
81944SOL    HW247730  12.153  13.735   6.176
81945SOL     OW47731  14.134   4.137  11.259
81945SOL    HW147732  14.180   4.157  11.341
81945SOL    HW247733  14.204   4.114  11.197
81946SOL     OW47734   2.502   7.345   7.343
81946SOL    HW147735   2.500   7.427   7.294
81946SOL    HW247736   2.411   7.315   7.344
81947SOL     OW47737   7.092   0.437   7.713
81947SOL    HW147738   7.057   0.357   7.672
81947SOL    HW247739   7.023   0.464   7.774
81948SOL     OW47740  14.306   6.282  10.587
81948SOL    HW147741  14.311   6.238  10.502
81948SOL    HW247742  14.366   6.233  10.643
81949SOL     OW47743  13.985  10.680   0.560
81949SOL    HW147744  13.941  10.606   0.603
81949SOL    HW247745  14.063  10.641   0.521
81950SOL     OW47746   2.811   5.265   8.000
81950SOL    HW147747   2.820   5.230   7.911
81950SOL    HW247748   2.895   5.308   8.017
81951SOL     OW47749   5.760   8.474   5.783
81951SOL    HW147750   5.706   8.466   5.861
81951SOL    HW247751   5.712   8.426   5.715
81952SOL     OW47752  10.051   6.515   5.339
81952SOL    HW147753  10.128   6.516   5.397
81952SOL    HW247754  10.023   6.606   5.335
81953SOL     OW47755   5.054   4.765   3.375
81953SOL    HW147756   4.959   4.769   3.390
81953SOL    HW247757   5.071   4.833   3.310
81954SOL     OW47758   2.062   3.125   7.904
81954SOL    HW147759   2.069   3.220   7.913
81954SOL    HW247760   1.986   3.101   7.957
81955SOL     OW47761   2.622   4.995  10.340
81955SOL    HW147762   2.644   5.049  10.416
81955SOL    HW247763   2.706   4.964  10.307
81956SOL     OW47764  11.857   9.773  14.636
81956SOL    HW147765  11.804   9.800  14.711
81956SOL    HW247766  11.885   9.684  14.657
81957SOL     OW47767   2.103   6.899   4.321
81957SOL    HW147768   2.044   6.829   4.348
81957SOL    HW247769   2.188   6.873   4.355
81958SOL     OW47770   3.081  10.803  14.673
81958SOL    HW147771   3.071  10.823  14.766
81958SOL    HW247772   3.027  10.725  14.660
81959SOL     OW47773   0.610   2.028   2.961
81959SOL    HW147774   0.624   2.115   2.998
81959SOL    HW247775   0.600   2.043   2.867
81960SOL     OW47776   7.694   9.764   2.997
81960SOL    HW147777   7.677   9.726   3.084
81960SOL    HW247778   7.628   9.831   2.987
81961SOL     OW47779   2.979   9.014  13.394
81961SOL    HW147780   2.953   9.035  13.304
81961SOL    HW247781   2.977   9.098  13.440
81962SOL     OW47782  13.829   1.823   9.236
81962SOL    HW147783  13.826   1.762   9.310
81962SOL    HW247784  13.803   1.907   9.274
81963SOL     OW47785  12.665   3.426   3.980
81963SOL    HW147786  12.601   3.374   3.930
81963SOL    HW247787  12.656   3.515   3.945
81964SOL     OW47788   6.659   0.261  14.145
81964SOL    HW147789   6.575   0.291  14.181
81964SOL    HW247790   6.706   0.225  14.220
81965SOL     OW47791   7.643   5.862   6.921
81965SOL    HW147792   7.657   5.910   6.840
81965SOL    HW247793   7.594   5.923   6.977
81966SOL     OW47794  13.609   3.124  11.874
81966SOL    HW147795  13.633   3.068  11.800
81966SOL    HW247796  13.591   3.209  11.835
81967SOL     OW47797   2.846  11.429   9.210
81967SOL    HW147798   2.911  11.427   9.280
81967SOL    HW247799   2.763  11.407   9.253
81968SOL     OW47800  10.281  14.564   7.233
81968SOL    HW147801  10.244  14.515   7.307
81968SOL    HW247802  10.326  14.639   7.273
81969SOL     OW47803   3.355   3.285   4.341
81969SOL    HW147804   3.385   3.208   4.389
81969SOL    HW247805   3.303   3.250   4.269
81970SOL     OW47806   9.201   5.723   7.820
81970SOL    HW147807   9.296   5.736   7.822
81970SOL    HW247808   9.191   5.629   7.805
81971SOL     OW47809  11.937   1.347   7.828
81971SOL    HW147810  11.959   1.310   7.743
81971SOL    HW247811  11.904   1.272   7.879
81972SOL     OW47812   0.263  11.419  11.287
81972SOL    HW147813   0.210  11.419  11.367
81972SOL    HW247814   0.288  11.511  11.276
81973SOL     OW47815   0.935   1.052  12.527
81973SOL    HW147816   0.954   1.040  12.434
81973SOL    HW247817   0.989   0.988  12.572
81974SOL     OW47818   5.856  13.049  10.942
81974SOL    HW147819   5.884  13.131  10.901
81974SOL    HW247820   5.892  12.981  10.885
81975SOL     OW47821   5.632   3.506   9.460
81975SOL    HW147822   5.709   3.549   9.423
81975SOL    HW247823   5.574   3.578   9.485
81976SOL     OW47824   0.776   2.678   6.654
81976SOL    HW147825   0.797   2.771   6.666
81976SOL    HW247826   0.791   2.662   6.561
81977SOL     OW47827  14.217   1.079  14.835
81977SOL    HW147828  14.166   1.031  14.770
81977SOL    HW247829  14.157   1.092   0.021
81978SOL     OW47830   2.079   5.379  10.439
81978SOL    HW147831   2.057   5.433  10.363
81978SOL    HW247832   2.154   5.326  10.409
81979SOL     OW47833   9.349  12.789  14.596
81979SOL    HW147834   9.416  12.848  14.561
81979SOL    HW247835   9.306  12.841  14.664
81980SOL     OW47836   2.440  12.428   4.042
81980SOL    HW147837   2.502  12.423   4.115
81980SOL    HW247838   2.361  12.385   4.074
81981SOL     OW47839   1.689   2.368   4.042
81981SOL    HW147840   1.727   2.281   4.053
81981SOL    HW247841   1.699   2.386   3.948
81982SOL     OW47842  13.295  13.198   4.451
81982SOL    HW147843  13.283  13.272   4.391
81982SOL    HW247844  13.381  13.212   4.490
81983SOL     OW47845  14.247   6.523  11.953
81983SOL    HW147846  14.334   6.563  11.959
81983SOL    HW247847  14.247   6.480  11.867
81984SOL     OW47848  10.790   5.477   4.922
81984SOL    HW147849  10.756   5.390   4.946
81984SOL    HW247850  10.793   5.476   4.826
81985SOL     OW47851   2.469   5.213   7.250
81985SOL    HW147852   2.399   5.278   7.263
81985SOL    HW247853   2.441   5.138   7.302
81986SOL     OW47854  12.497   7.527   5.706
81986SOL    HW147855  12.542   7.600   5.747
81986SOL    HW247856  12.508   7.454   5.767
81987SOL     OW47857   8.207  11.352   1.862
81987SOL    HW147858   8.213  11.358   1.957
81987SOL    HW247859   8.296  11.367   1.831
81988SOL     OW47860   9.411   3.625   5.048
81988SOL    HW147861   9.457   3.608   4.966
81988SOL    HW247862   9.327   3.663   5.022
81989SOL     OW47863  13.612   0.197   9.943
81989SOL    HW147864  13.542   0.210  10.006
81989SOL    HW247865  13.645   0.109   9.961
81990SOL     OW47866  13.220  12.008   2.556
81990SOL    HW147867  13.262  11.995   2.471
81990SOL    HW247868  13.276  12.073   2.601
81991SOL     OW47869   9.346  12.751   8.539
81991SOL    HW147870   9.251  12.757   8.543
81991SOL    HW247871   9.363  12.665   8.500
81992SOL     OW47872  12.819   1.969   2.003
81992SOL    HW147873  12.895   1.980   1.945
81992SOL    HW247874  12.837   2.026   2.077
81993SOL     OW47875  13.373   9.798   5.942
81993SOL    HW147876  13.351   9.890   5.929
81993SOL    HW247877  13.360   9.783   6.036
81994SOL     OW47878  11.210   5.025   1.546
81994SOL    HW147879  11.129   4.992   1.507
81994SOL    HW247880  11.188   5.040   1.638
81995SOL     OW47881   0.452   7.535   3.152
81995SOL    HW147882   0.457   7.622   3.113
81995SOL    HW247883   0.406   7.548   3.235
81996SOL     OW47884   5.768  14.857   2.401
81996SOL    HW147885   5.822  14.817   2.333
81996SOL    HW247886   5.791   0.062   2.399
81997SOL     OW47887   7.668   3.166  12.557
81997SOL    HW147888   7.693   3.149  12.466
81997SOL    HW247889   7.707   3.093  12.606
81998SOL     OW47890  12.739   6.159   8.834
81998SOL    HW147891  12.781   6.176   8.750
81998SOL    HW247892  12.725   6.245   8.872
81999SOL     OW47893   9.288  14.669  14.816
81999SOL    HW147894   9.258  14.686   0.018
81999SOL    HW247895   9.260  14.579  14.798
82000SOL     OW47896   3.564   8.515   7.731
82000SOL    HW147897   3.615   8.524   7.651
82000SOL    HW247898   3.616   8.560   7.798
82001SOL     OW47899  12.534   9.812   1.401
82001SOL    HW147900  12.572   9.779   1.482
82001SOL    HW247901  12.451   9.853   1.429
82002SOL     OW47902   2.890  14.199   1.436
82002SOL    HW147903   2.918  14.289   1.421
82002SOL    HW247904   2.854  14.171   1.352
82003SOL     OW47905   0.058  10.841   6.175
82003SOL    HW147906   0.077  10.930   6.204
82003SOL    HW247907  14.853  10.841   6.153
82004SOL     OW47908   5.053  13.898   5.201
82004SOL    HW147909   5.067  13.944   5.283
82004SOL    HW247910   5.070  13.806   5.221
82005SOL     OW47911  10.886   6.712  10.764
82005SOL    HW147912  10.964   6.678  10.721
82005SOL    HW247913  10.830   6.635  10.776
82006SOL     OW47914   3.366   2.762   9.263
82006SOL    HW147915   3.271   2.758   9.252
82006SOL    HW247916   3.380   2.773   9.357
82007SOL     OW47917   8.194  14.432   5.754
82007SOL    HW147918   8.143  14.420   5.834
82007SOL    HW247919   8.282  14.403   5.777
82008SOL     OW47920   2.066   0.493   6.900
82008SOL    HW147921   2.019   0.574   6.922
82008SOL    HW247922   2.002   0.441   6.851
82009SOL     OW47923  13.606   5.368   4.965
82009SOL    HW147924  13.656   5.312   4.905
82009SOL    HW247925  13.563   5.306   5.024
82010SOL     OW47926   5.859   7.043   1.099
82010SOL    HW147927   5.769   7.018   1.120
82010SOL    HW247928   5.910   6.964   1.120
82011SOL     OW47929  12.502   6.554   7.991
82011SOL    HW147930  12.540   6.466   7.997
82011SOL    HW247931  12.559   6.601   7.930
82012SOL     OW47932   9.848  13.868   5.297
82012SOL    HW147933   9.908  13.793   5.295
82012SOL    HW247934   9.860  13.910   5.211
82013SOL     OW47935  14.225  14.816   7.441
82013SOL    HW147936  14.166  14.771   7.381
82013SOL    HW247937  14.288  14.749   7.468
82014SOL     OW47938   5.952   1.600  13.333
82014SOL    HW147939   6.010   1.525  13.339
82014SOL    HW247940   5.943   1.632  13.423
82015SOL     OW47941   1.491  12.319   1.400
82015SOL    HW147942   1.464  12.250   1.340
82015SOL    HW247943   1.497  12.276   1.485
82016SOL     OW47944   0.779   5.383   1.220
82016SOL    HW147945   0.866   5.343   1.228
82016SOL    HW247946   0.788   5.467   1.266
82017SOL     OW47947  12.090  10.019  11.921
82017SOL    HW147948  12.002  10.049  11.898
82017SOL    HW247949  12.083   9.924  11.924
82018SOL     OW47950   6.530   4.576   8.124
82018SOL    HW147951   6.535   4.669   8.150
82018SOL    HW247952   6.449   4.570   8.074
82019SOL     OW47953   2.829  13.025   3.442
82019SOL    HW147954   2.880  13.010   3.362
82019SOL    HW247955   2.738  13.021   3.413
82020SOL     OW47956   7.821  11.014  14.614
82020SOL    HW147957   7.756  11.084  14.627
82020SOL    HW247958   7.800  10.977  14.529
82021SOL     OW47959   4.088   0.319   0.752
82021SOL    HW147960   4.158   0.356   0.807
82021SOL    HW247961   4.009   0.330   0.804
82022SOL     OW47962   9.258  13.706  12.352
82022SOL    HW147963   9.262  13.767  12.279
82022SOL    HW247964   9.217  13.627  12.316
82023SOL     OW47965   3.836  12.830   1.714
82023SOL    HW147966   3.902  12.792   1.655
82023SOL    HW247967   3.846  12.781   1.796
82024SOL     OW47968  10.617   2.595  11.418
82024SOL    HW147969  10.633   2.509  11.457
82024SOL    HW247970  10.608   2.654  11.493
82025SOL     OW47971   0.005  12.872   4.184
82025SOL    HW147972  14.870  12.896   4.094
82025SOL    HW247973   0.100  12.880   4.188
82026SOL     OW47974   3.238  14.572   0.776
82026SOL    HW147975   3.260  14.522   0.697
82026SOL    HW247976   3.201  14.654   0.743
82027SOL     OW47977   1.510   2.078   1.448
82027SOL    HW147978   1.458   2.005   1.415
82027SOL    HW247979   1.591   2.075   1.397
82028SOL     OW47980   2.293   2.186   3.296
82028SOL    HW147981   2.288   2.204   3.390
82028SOL    HW247982   2.213   2.222   3.260
82029SOL     OW47983   0.705   3.052  13.572
82029SOL    HW147984   0.770   3.116  13.543
82029SOL    HW247985   0.757   2.984  13.615
82030SOL     OW47986   0.466   3.489   9.825
82030SOL    HW147987   0.455   3.584   9.814
82030SOL    HW247988   0.410   3.468   9.900
82031SOL     OW47989   8.960   3.599   7.370
82031SOL    HW147990   8.901   3.665   7.334
82031SOL    HW247991   8.904   3.527   7.398
82032SOL     OW47992   3.101   4.353  12.126
82032SOL    HW147993   3.054   4.412  12.066
82032SOL    HW247994   3.165   4.410  12.170
82033SOL     OW47995   3.896   7.278   2.639
82033SOL    HW147996   3.956   7.203   2.638
82033SOL    HW247997   3.887   7.299   2.732
82034SOL     OW47998   5.290   9.187   3.816
82034SOL    HW147999   5.211   9.230   3.783
82034SOL    HW248000   5.354   9.257   3.826
82035SOL     OW48001   8.411  11.406  14.356
82035SOL    HW148002   8.428  11.315  14.331
82035SOL    HW248003   8.411  11.454  14.273
82036SOL     OW48004  14.831   9.651   0.472
82036SOL    HW148005  14.805   9.586   0.407
82036SOL    HW248006  14.806   9.735   0.433
82037SOL     OW48007  14.795  10.899   4.124
82037SOL    HW148008  14.879  10.940   4.101
82037SOL    HW248009  14.734  10.972   4.131
82038SOL     OW48010  10.643   6.683  10.037
82038SOL    HW148011  10.631   6.691  10.131
82038SOL    HW248012  10.729   6.643  10.027
82039SOL     OW48013   1.634   4.720   6.780
82039SOL    HW148014   1.700   4.723   6.711
82039SOL    HW248015   1.556   4.757   6.739
82040SOL     OW48016   4.945   4.629   1.607
82040SOL    HW148017   4.979   4.607   1.520
82040SOL    HW248018   4.856   4.660   1.591
82041SOL     OW48019  10.497  14.563  14.764
82041SOL    HW148020  10.454  14.478  14.752
82041SOL    HW248021  10.585  14.551  14.729
82042SOL     OW48022   2.999   7.003  14.839
82042SOL    HW148023   2.941   7.003  14.763
82042SOL    HW248024   2.948   7.042   0.022
82043SOL     OW48025   0.712   7.457  14.266
82043SOL    HW148026   0.727   7.395  14.338
82043SOL    HW248027   0.628   7.498  14.287
82044SOL     OW48028  12.058   2.006   8.141
82044SOL    HW148029  12.086   2.098   8.133
82044SOL    HW248030  11.967   2.011   8.170
82045SOL     OW48031   6.462   6.701  12.247
82045SOL    HW148032   6.395   6.672  12.308
82045SOL    HW248033   6.540   6.651  12.271
82046SOL     OW48034  14.711  13.260   1.432
82046SOL    HW148035  14.704  13.346   1.473
82046SOL    HW248036  14.649  13.263   1.359
82047SOL     OW48037   3.004  10.526   3.834
82047SOL    HW148038   3.076  10.508   3.774
82047SOL    HW248039   2.941  10.577   3.782
82048SOL     OW48040   7.335  10.378   0.072
82048SOL    HW148041   7.264  10.358   0.134
82048SOL    HW248042   7.291  10.390  14.875
82049SOL     OW48043   3.203   2.071   0.411
82049SOL    HW148044   3.156   2.089   0.492
82049SOL    HW248045   3.135   2.069   0.344
82050SOL     OW48046  14.878   4.327   2.840
82050SOL    HW148047  14.851   4.382   2.767
82050SOL    HW248048   0.073   4.366   2.870
82051SOL     OW48049  12.440   3.188   6.720
82051SOL    HW148050  12.481   3.107   6.752
82051SOL    HW248051  12.395   3.162   6.640
82052SOL     OW48052   3.049  14.419   9.340
82052SOL    HW148053   3.032  14.410   9.246
82052SOL    HW248054   3.030  14.511   9.359
82053SOL     OW48055   4.624  11.357  10.003
82053SOL    HW148056   4.634  11.436  10.057
82053SOL    HW248057   4.530  11.354   9.983
82054SOL     OW48058   9.965  14.631  11.142
82054SOL    HW148059   9.877  14.600  11.166
82054SOL    HW248060   9.962  14.725  11.158
82055SOL     OW48061  14.229   4.074   7.020
82055SOL    HW148062  14.303   4.046   6.968
82055SOL    HW248063  14.176   3.995   7.032
82056SOL     OW48064   6.881   5.147   5.885
82056SOL    HW148065   6.975   5.157   5.870
82056SOL    HW248066   6.844   5.139   5.797
82057SOL     OW48067   1.148   6.505   0.711
82057SOL    HW148068   1.105   6.566   0.651
82057SOL    HW248069   1.085   6.434   0.722
82058SOL     OW48070   8.867   7.912   5.412
82058SOL    HW148071   8.900   7.881   5.328
82058SOL    HW248072   8.772   7.909   5.403
82059SOL     OW48073  12.154   8.833   0.300
82059SOL    HW148074  12.225   8.822   0.363
82059SOL    HW248075  12.091   8.765   0.322
82060SOL     OW48076  13.973   5.972  10.878
82060SOL    HW148077  14.040   5.904  10.868
82060SOL    HW248078  13.897   5.937  10.832
82061SOL     OW48079   8.386   4.080   0.638
82061SOL    HW148080   8.297   4.092   0.670
82061SOL    HW248081   8.407   4.163   0.595
82062SOL     OW48082  13.904  11.319   8.107
82062SOL    HW148083  13.984  11.267   8.124
82062SOL    HW248084  13.865  11.278   8.030
82063SOL     OW48085   9.945   1.456   7.634
82063SOL    HW148086   9.891   1.415   7.566
82063SOL    HW248087   9.885   1.512   7.682
82064SOL     OW48088  11.930   2.832   9.945
82064SOL    HW148089  12.010   2.871   9.981
82064SOL    HW248090  11.952   2.810   9.855
82065SOL     OW48091   7.230   8.642  12.562
82065SOL    HW148092   7.293   8.581  12.524
82065SOL    HW248093   7.156   8.641  12.501
82066SOL     OW48094   4.765   5.575  12.411
82066SOL    HW148095   4.707   5.501  12.392
82066SOL    HW248096   4.822   5.544  12.481
82067SOL     OW48097  11.389   1.924  12.508
82067SOL    HW148098  11.349   2.001  12.548
82067SOL    HW248099  11.357   1.851  12.561
82068SOL     OW48100   9.897   2.092   0.903
82068SOL    HW148101   9.815   2.050   0.876
82068SOL    HW248102   9.966   2.038   0.865
82069SOL     OW48103   5.484   4.538   2.758
82069SOL    HW148104   5.496   4.530   2.853
82069SOL    HW248105   5.557   4.591   2.729
82070SOL     OW48106   5.979  11.952   7.217
82070SOL    HW148107   6.033  11.987   7.146
82070SOL    HW248108   5.942  11.872   7.182
82071SOL     OW48109   2.162   3.225  10.261
82071SOL    HW148110   2.249   3.264  10.254
82071SOL    HW248111   2.105   3.284  10.210
82072SOL     OW48112   2.607   5.291   2.978
82072SOL    HW148113   2.549   5.330   2.912
82072SOL    HW248114   2.605   5.353   3.051
82073SOL     OW48115   7.477   5.518   3.859
82073SOL    HW148116   7.537   5.444   3.871
82073SOL    HW248117   7.404   5.499   3.918
82074SOL     OW48118  11.348   9.268   4.667
82074SOL    HW148119  11.333   9.178   4.641
82074SOL    HW248120  11.262   9.299   4.697
82075SOL     OW48121   6.667   6.002   6.256
82075SOL    HW148122   6.577   5.982   6.231
82075SOL    HW248123   6.707   5.917   6.272
82076SOL     OW48124   4.493   6.589   2.462
82076SOL    HW148125   4.562   6.654   2.479
82076SOL    HW248126   4.512   6.557   2.374
82077SOL     OW48127  10.356   3.144   6.341
82077SOL    HW148128  10.422   3.166   6.275
82077SOL    HW248129  10.384   3.058   6.374
82078SOL     OW48130   5.215   0.374  12.269
82078SOL    HW148131   5.293   0.341  12.313
82078SOL    HW248132   5.245   0.400  12.182
82079SOL     OW48133   3.539   9.991  10.256
82079SOL    HW148134   3.480   9.990  10.331
82079SOL    HW248135   3.591   9.911  10.266
82080SOL     OW48136   5.272   2.403  12.969
82080SOL    HW148137   5.310   2.488  12.946
82080SOL    HW248138   5.222   2.377  12.892
82081SOL     OW48139   8.231  14.725   5.752
82081SOL    HW148140   8.243  14.731   5.847
82081SOL    HW248141   8.186  14.642   5.739
82082SOL     OW48142  10.215   3.966  12.193
82082SOL    HW148143  10.273   3.940  12.265
82082SOL    HW248144  10.226   3.896  12.127
82083SOL     OW48145  13.183  11.830   0.922
82083SOL    HW148146  13.259  11.885   0.904
82083SOL    HW248147  13.162  11.789   0.838
82084SOL     OW48148  12.479  10.557  11.663
82084SOL    HW148149  12.565  10.521  11.682
82084SOL    HW248150  12.421  10.516  11.726
82085SOL     OW48151  11.837   5.659   3.175
82085SOL    HW148152  11.818   5.745   3.139
82085SOL    HW248153  11.751   5.625   3.200
82086SOL     OW48154   4.155   5.708   0.380
82086SOL    HW148155   4.226   5.643   0.380
82086SOL    HW248156   4.199   5.791   0.360
82087SOL     OW48157  12.849   9.099  12.837
82087SOL    HW148158  12.916   9.156  12.799
82087SOL    HW248159  12.791   9.159  12.885
82088SOL     OW48160  14.773  11.375   6.855
82088SOL    HW148161  14.843  11.309   6.852
82088SOL    HW248162  14.807  11.442   6.916
82089SOL     OW48163   4.630   1.632   7.901
82089SOL    HW148164   4.712   1.642   7.854
82089SOL    HW248165   4.651   1.654   7.992
82090SOL     OW48166   6.736  11.992  10.320
82090SOL    HW148167   6.817  12.008  10.368
82090SOL    HW248168   6.733  12.062  10.255
82091SOL     OW48169   2.250   5.118   9.439
82091SOL    HW148170   2.256   5.147   9.530
82091SOL    HW248171   2.329   5.067   9.425
82092SOL     OW48172  12.594   8.548  13.368
82092SOL    HW148173  12.518   8.524  13.315
82092SOL    HW248174  12.649   8.601  13.310
82093SOL     OW48175  10.950  11.752   1.813
82093SOL    HW148176  10.972  11.747   1.906
82093SOL    HW248177  10.855  11.740   1.809
82094SOL     OW48178   3.891  11.921  10.921
82094SOL    HW148179   3.878  11.846  10.864
82094SOL    HW248180   3.828  11.986  10.890
82095SOL     OW48181  13.899   6.449   0.855
82095SOL    HW148182  13.856   6.364   0.852
82095SOL    HW248183  13.953   6.452   0.776
82096SOL     OW48184   4.521   2.882   1.595
82096SOL    HW148185   4.440   2.866   1.547
82096SOL    HW248186   4.514   2.828   1.673
82097SOL     OW48187   0.881   8.204   1.349
82097SOL    HW148188   0.835   8.226   1.430
82097SOL    HW248189   0.924   8.286   1.323
82098SOL     OW48190  10.720   2.923   1.150
82098SOL    HW148191  10.664   2.853   1.183
82098SOL    HW248192  10.778   2.880   1.087
82099SOL     OW48193   3.128   0.849   6.679
82099SOL    HW148194   3.109   0.823   6.589
82099SOL    HW248195   3.148   0.942   6.674
82100SOL     OW48196   4.182   2.839   9.626
82100SOL    HW148197   4.138   2.794   9.554
82100SOL    HW248198   4.124   2.912   9.648
82101SOL     OW48199   6.442   5.322   0.225
82101SOL    HW148200   6.372   5.260   0.204
82101SOL    HW248201   6.444   5.325   0.321
82102SOL     OW48202   1.941  14.006  12.366
82102SOL    HW148203   2.014  14.035  12.312
82102SOL    HW248204   1.979  13.942  12.427
82103SOL     OW48205  12.897   7.843  10.764
82103SOL    HW148206  12.962   7.783  10.799
82103SOL    HW248207  12.946   7.924  10.747
82104SOL     OW48208   2.839   1.509   8.681
82104SOL    HW148209   2.746   1.529   8.679
82104SOL    HW248210   2.857   1.472   8.595
82105SOL     OW48211  13.554   0.385   1.155
82105SOL    HW148212  13.481   0.355   1.209
82105SOL    HW248213  13.534   0.476   1.135
82106SOL     OW48214   7.584   4.789  12.135
82106SOL    HW148215   7.605   4.695  12.132
82106SOL    HW248216   7.531   4.799  12.214
82107SOL     OW48217   9.829   8.375   9.360
82107SOL    HW148218   9.767   8.435   9.402
82107SOL    HW248219   9.908   8.428   9.346
82108SOL     OW48220  13.761   0.146   8.785
82108SOL    HW148221  13.681   0.178   8.827
82108SOL    HW248222  13.829   0.160   8.850
82109SOL     OW48223   0.030  12.737  13.274
82109SOL    HW148224   0.015  12.696  13.189
82109SOL    HW248225  14.832  12.775  13.298
82110SOL     OW48226   1.300   9.130  13.480
82110SOL    HW148227   1.304   9.085  13.396
82110SOL    HW248228   1.351   9.075  13.540
82111SOL     OW48229   2.859  14.137  11.259
82111SOL    HW148230   2.920  14.206  11.231
82111SOL    HW248231   2.773  14.170  11.234
82112SOL     OW48232  11.671   9.175   0.859
82112SOL    HW148233  11.726   9.173   0.781
82112SOL    HW248234  11.733   9.191   0.931
82113SOL     OW48235   9.188   9.774   4.118
82113SOL    HW148236   9.209   9.848   4.176
82113SOL    HW248237   9.261   9.771   4.056
82114SOL     OW48238   0.120   8.477  11.127
82114SOL    HW148239   0.180   8.522  11.068
82114SOL    HW248240   0.163   8.481  11.212
82115SOL     OW48241  12.945   1.872   0.813
82115SOL    HW148242  12.916   1.821   0.889
82115SOL    HW248243  12.968   1.806   0.747
82116SOL     OW48244   3.960   3.784   9.397
82116SOL    HW148245   4.010   3.855   9.356
82116SOL    HW248246   3.910   3.826   9.466
82117SOL     OW48247   8.008   0.885   6.974
82117SOL    HW148248   7.940   0.820   6.988
82117SOL    HW248249   8.070   0.870   7.045
82118SOL     OW48250  14.514  10.367   3.762
82118SOL    HW148251  14.433  10.357   3.813
82118SOL    HW248252  14.494  10.325   3.678
82119SOL     OW48253   0.479  12.504   4.230
82119SOL    HW148254   0.384  12.511   4.232
82119SOL    HW248255   0.509  12.557   4.304
82120SOL     OW48256   8.637   2.764  12.434
82120SOL    HW148257   8.654   2.858  12.422
82120SOL    HW248258   8.720   2.729  12.466
82121SOL     OW48259  14.611   9.405   7.060
82121SOL    HW148260  14.679   9.454   7.106
82121SOL    HW248261  14.562   9.471   7.011
82122SOL     OW48262   2.319  12.521   2.628
82122SOL    HW148263   2.282  12.441   2.590
82122SOL    HW248264   2.407  12.528   2.591
82123SOL     OW48265   5.679   4.528  13.964
82123SOL    HW148266   5.668   4.589  14.037
82123SOL    HW248267   5.771   4.538  13.938
82124SOL     OW48268   2.674   4.318   1.787
82124SOL    HW148269   2.711   4.270   1.861
82124SOL    HW248270   2.705   4.270   1.710
82125SOL     OW48271  12.455   8.305  14.160
82125SOL    HW148272  12.402   8.323  14.237
82125SOL    HW248273  12.515   8.379  14.154
82126SOL     OW48274   5.733  10.588  10.061
82126SOL    HW148275   5.785  10.542  10.127
82126SOL    HW248276   5.778  10.672  10.051
82127SOL     OW48277  13.378   2.276   1.415
82127SOL    HW148278  13.403   2.352   1.467
82127SOL    HW248279  13.290   2.295   1.383
82128SOL     OW48280   8.057   4.293   9.593
82128SOL    HW148281   8.098   4.255   9.515
82128SOL    HW248282   8.106   4.374   9.608
82129SOL     OW48283   5.699  13.337  12.690
82129SOL    HW148284   5.714  13.243  12.698
82129SOL    HW248285   5.604  13.347  12.685
82130SOL     OW48286   1.201  10.519   8.386
82130SOL    HW148287   1.203  10.424   8.380
82130SOL    HW248288   1.284  10.548   8.347
82131SOL     OW48289  13.753  13.967   3.998
82131SOL    HW148290  13.793  14.010   3.922
82131SOL    HW248291  13.790  14.013   4.074
82132SOL     OW48292  12.255   4.044   9.745
82132SOL    HW148293  12.341   4.012   9.718
82132SOL    HW248294  12.274   4.120   9.800
82133SOL     OW48295  11.072  10.001   5.376
82133SOL    HW148296  11.024  10.083   5.365
82133SOL    HW248297  11.017   9.936   5.331
82134SOL     OW48298   9.702  10.633   7.620
82134SOL    HW148299   9.647  10.605   7.694
82134SOL    HW248300   9.786  10.656   7.660
82135SOL     OW48301   6.140   4.745   4.431
82135SOL    HW148302   6.124   4.817   4.491
82135SOL    HW248303   6.227   4.763   4.394
82136SOL     OW48304   1.161   6.661   9.142
82136SOL    HW148305   1.122   6.582   9.105
82136SOL    HW248306   1.160   6.724   9.070
82137SOL     OW48307  14.593   8.833   0.597
82137SOL    HW148308  14.606   8.891   0.672
82137SOL    HW248309  14.536   8.764   0.630
82138SOL     OW48310   8.503   5.028   8.130
82138SOL    HW148311   8.443   5.020   8.056
82138SOL    HW248312   8.565   5.096   8.104
82139SOL     OW48313  10.450   8.021   1.788
82139SOL    HW148314  10.448   7.950   1.853
82139SOL    HW248315  10.515   7.993   1.724
82140SOL     OW48316  13.341  14.629  14.574
82140SOL    HW148317  13.323  14.569  14.502
82140SOL    HW248318  13.284  14.704  14.558
82141SOL     OW48319  11.033  10.715   9.883
82141SOL    HW148320  10.966  10.780   9.861
82141SOL    HW248321  11.026  10.650   9.813
82142SOL     OW48322  11.483  12.132  12.947
82142SOL    HW148323  11.464  12.062  12.884
82142SOL    HW248324  11.575  12.122  12.967
82143SOL     OW48325   3.595   0.476  13.267
82143SOL    HW148326   3.501   0.489  13.277
82143SOL    HW248327   3.620   0.421  13.342
82144SOL     OW48328   7.403   9.434  10.033
82144SOL    HW148329   7.386   9.421  10.126
82144SOL    HW248330   7.319   9.419   9.991
82145SOL     OW48331  14.221   0.698   1.899
82145SOL    HW148332  14.299   0.723   1.948
82145SOL    HW248333  14.149   0.738   1.948
82146SOL     OW48334   9.326   7.935  11.074
82146SOL    HW148335   9.280   7.969  10.998
82146SOL    HW248336   9.323   8.006  11.138
82147SOL     OW48337  14.606   0.126   3.721
82147SOL    HW148338  14.694   0.141   3.687
82147SOL    HW248339  14.599   0.031   3.729
82148SOL     OW48340   0.390   8.408   9.001
82148SOL    HW148341   0.397   8.502   9.019
82148SOL    HW248342   0.403   8.366   9.085
82149SOL     OW48343  12.339   4.438   6.098
82149SOL    HW148344  12.278   4.510   6.114
82149SOL    HW248345  12.359   4.444   6.005
82150SOL     OW48346  10.122   2.848   5.336
82150SOL    HW148347  10.155   2.865   5.248
82150SOL    HW248348  10.041   2.899   5.342
82151SOL     OW48349   1.682  12.552   5.458
82151SOL    HW148350   1.594  12.513   5.456
82151SOL    HW248351   1.675  12.628   5.400
82152SOL     OW48352   0.858   7.341   2.685
82152SOL    HW148353   0.858   7.431   2.718
82152SOL    HW248354   0.939   7.303   2.719
82153SOL     OW48355  13.212   0.691   2.687
82153SOL    HW148356  13.234   0.722   2.775
82153SOL    HW248357  13.150   0.756   2.654
82154SOL     OW48358  13.329   8.272   1.910
82154SOL    HW148359  13.302   8.218   1.985
82154SOL    HW248360  13.387   8.215   1.859
82155SOL     OW48361  12.637  11.148  10.870
82155SOL    HW148362  12.726  11.145  10.906
82155SOL    HW248363  12.644  11.097  10.789
82156SOL     OW48364   8.017   2.556   9.396
82156SOL    HW148365   8.041   2.640   9.356
82156SOL    HW248366   8.073   2.550   9.473
82157SOL     OW48367   7.331   1.064   3.153
82157SOL    HW148368   7.381   1.098   3.080
82157SOL    HW248369   7.313   1.141   3.208
82158SOL     OW48370   6.665  11.139  13.064
82158SOL    HW148371   6.681  11.101  12.977
82158SOL    HW248372   6.706  11.226  13.059
82159SOL     OW48373   0.333   8.820  11.462
82159SOL    HW148374   0.424   8.842  11.481
82159SOL    HW248375   0.311   8.753  11.526
82160SOL     OW48376   0.457   0.071   4.561
82160SOL    HW148377   0.383   0.083   4.620
82160SOL    HW248378   0.528   0.120   4.602
82161SOL     OW48379  14.310   2.185  13.429
82161SOL    HW148380  14.275   2.125  13.363
82161SOL    HW248381  14.265   2.161  13.510
82162SOL     OW48382   4.263   7.225   9.419
82162SOL    HW148383   4.264   7.132   9.397
82162SOL    HW248384   4.334   7.235   9.482
82163SOL     OW48385   4.290   2.826   4.093
82163SOL    HW148386   4.370   2.855   4.137
82163SOL    HW248387   4.281   2.886   4.019
82164SOL     OW48388  12.956   8.576   4.113
82164SOL    HW148389  12.940   8.583   4.019
82164SOL    HW248390  12.965   8.666   4.144
82165SOL     OW48391   4.647  13.650   2.009
82165SOL    HW148392   4.731  13.648   2.053
82165SOL    HW248393   4.649  13.575   1.950
82166SOL     OW48394   0.472   3.784   9.784
82166SOL    HW148395   0.515   3.849   9.840
82166SOL    HW248396   0.389   3.765   9.828
82167SOL     OW48397  13.465   0.862   6.227
82167SOL    HW148398  13.398   0.915   6.184
82167SOL    HW248399  13.486   0.908   6.308
82168SOL     OW48400   4.783   5.283  10.930
82168SOL    HW148401   4.728   5.254  10.857
82168SOL    HW248402   4.798   5.376  10.913
82169SOL     OW48403  14.366   4.326   8.557
82169SOL    HW148404  14.342   4.234   8.549
82169SOL    HW248405  14.425   4.328   8.632
82170SOL     OW48406   3.191   1.466   4.109
82170SOL    HW148407   3.227   1.458   4.197
82170SOL    HW248408   3.239   1.539   4.069
82171SOL     OW48409   9.396   7.877   9.502
82171SOL    HW148410   9.417   7.968   9.478
82171SOL    HW248411   9.450   7.824   9.444
82172SOL     OW48412   3.506  13.472   9.351
82172SOL    HW148413   3.442  13.401   9.343
82172SOL    HW248414   3.476  13.523   9.427
82173SOL     OW48415   8.587   7.224   2.539
82173SOL    HW148416   8.546   7.298   2.495
82173SOL    HW248417   8.515   7.176   2.578
82174SOL     OW48418   8.731   3.272  11.498
82174SOL    HW148419   8.688   3.188  11.480
82174SOL    HW248420   8.786   3.253  11.575
82175SOL     OW48421   2.308  10.418   6.134
82175SOL    HW148422   2.276  10.494   6.182
82175SOL    HW248423   2.280  10.432   6.044
82176SOL     OW48424  11.228  13.106   1.018
82176SOL    HW148425  11.174  13.028   1.031
82176SOL    HW248426  11.295  13.079   0.955
82177SOL     OW48427   5.821  14.283  10.221
82177SOL    HW148428   5.876  14.356  10.194
82177SOL    HW248429   5.760  14.271  10.148
82178SOL     OW48430  11.035   3.912   5.971
82178SOL    HW148431  11.003   3.853   6.039
82178SOL    HW248432  10.965   3.913   5.906
82179SOL     OW48433  13.991   4.176   6.588
82179SOL    HW148434  14.008   4.085   6.564
82179SOL    HW248435  13.908   4.172   6.636
82180SOL     OW48436   4.194  13.593   6.673
82180SOL    HW148437   4.163  13.673   6.631
82180SOL    HW248438   4.220  13.536   6.600
82181SOL     OW48439   0.525   1.965  10.390
82181SOL    HW148440   0.545   2.058  10.398
82181SOL    HW248441   0.550   1.928  10.475
82182SOL     OW48442   9.054   2.090   9.817
82182SOL    HW148443   9.008   2.171   9.795
82182SOL    HW248444   9.038   2.032   9.743
82183SOL     OW48445   7.964   4.354   3.504
82183SOL    HW148446   7.938   4.265   3.528
82183SOL    HW248447   7.907   4.375   3.430
82184SOL     OW48448   7.629  11.649  12.836
82184SOL    HW148449   7.676  11.578  12.879
82184SOL    HW248450   7.547  11.609  12.805
82185SOL     OW48451   7.703   1.496   2.078
82185SOL    HW148452   7.643   1.559   2.039
82185SOL    HW248453   7.703   1.518   2.171
82186SOL     OW48454   1.716   9.051   2.109
82186SOL    HW148455   1.706   9.088   2.022
82186SOL    HW248456   1.654   8.978   2.111
82187SOL     OW48457   6.022   9.155  10.423
82187SOL    HW148458   6.103   9.104  10.434
82187SOL    HW248459   5.958   9.091  10.391
82188SOL     OW48460  11.207  10.581   4.888
82188SOL    HW148461  11.119  10.618   4.899
82188SOL    HW248462  11.192  10.486   4.885
82189SOL     OW48463   7.196   6.639  13.236
82189SOL    HW148464   7.204   6.704  13.306
82189SOL    HW248465   7.187   6.556  13.281
82190SOL     OW48466   8.087  14.597  10.517
82190SOL    HW148467   8.067  14.646  10.438
82190SOL    HW248468   8.179  14.618  10.536
82191SOL     OW48469   9.038  11.363   7.236
82191SOL    HW148470   8.975  11.308   7.188
82191SOL    HW248471   9.122  11.346   7.193
82192SOL     OW48472   9.085  11.855  13.768
82192SOL    HW148473   9.019  11.824  13.706
82192SOL    HW248474   9.059  11.946  13.787
82193SOL     OW48475   4.514   5.853   0.547
82193SOL    HW148476   4.590   5.795   0.542
82193SOL    HW248477   4.465   5.821   0.623
82194SOL     OW48478   1.801   6.096   2.325
82194SOL    HW148479   1.806   6.188   2.351
82194SOL    HW248480   1.883   6.079   2.279
82195SOL     OW48481   9.430   2.796   6.831
82195SOL    HW148482   9.352   2.808   6.778
82195SOL    HW248483   9.486   2.870   6.810
82196SOL     OW48484  10.743  10.061  13.445
82196SOL    HW148485  10.788  10.025  13.368
82196SOL    HW248486  10.689  10.132  13.410
82197SOL     OW48487   4.805   6.106  13.435
82197SOL    HW148488   4.814   6.195  13.470
82197SOL    HW248489   4.884   6.060  13.465
82198SOL     OW48490   8.619   9.481   3.148
82198SOL    HW148491   8.641   9.498   3.240
82198SOL    HW248492   8.660   9.553   3.100
82199SOL     OW48493   9.633   6.737  10.888
82199SOL    HW148494   9.599   6.648  10.884
82199SOL    HW248495   9.562   6.788  10.927
82200SOL     OW48496   4.771  14.805   1.675
82200SOL    HW148497   4.852  14.766   1.707
82200SOL    HW248498   4.780  14.804   1.580
82201SOL     OW48499  14.852   7.340   9.274
82201SOL    HW148500  14.878   7.432   9.272
82201SOL    HW248501   0.025   7.296   9.214
82202SOL     OW48502   4.142  10.404   2.968
82202SOL    HW148503   4.218  10.459   2.947
82202SOL    HW248504   4.180  10.319   2.991
82203SOL     OW48505   9.678   7.691   6.424
82203SOL    HW148506   9.622   7.697   6.346
82203SOL    HW248507   9.617   7.668   6.495
82204SOL     OW48508   3.623  12.369  10.828
82204SOL    HW148509   3.648  12.423  10.902
82204SOL    HW248510   3.706  12.335  10.794
82205SOL     OW48511   2.838   7.694   2.251
82205SOL    HW148512   2.771   7.642   2.206
82205SOL    HW248513   2.904   7.630   2.278
82206SOL     OW48514   0.277   3.713   5.678
82206SOL    HW148515   0.360   3.747   5.644
82206SOL    HW248516   0.300   3.628   5.715
82207SOL     OW48517   6.053   3.395   9.293
82207SOL    HW148518   6.134   3.440   9.270
82207SOL    HW248519   6.082   3.320   9.345
82208SOL     OW48520   3.401  14.110   6.592
82208SOL    HW148521   3.440  14.125   6.678
82208SOL    HW248522   3.336  14.180   6.582
82209SOL     OW48523  13.965   1.315  14.374
82209SOL    HW148524  14.013   1.308  14.291
82209SOL    HW248525  13.995   1.241  14.425
82210SOL     OW48526   9.168   7.665   1.814
82210SOL    HW148527   9.117   7.685   1.893
82210SOL    HW248528   9.106   7.677   1.742
82211SOL     OW48529   4.002   7.443   5.451
82211SOL    HW148530   3.925   7.401   5.487
82211SOL    HW248531   4.037   7.496   5.523
82212SOL     OW48532   0.390   0.045   4.159
82212SOL    HW148533   0.348   0.038   4.073
82212SOL    HW248534   0.470   0.095   4.141
82213SOL     OW48535   6.079   7.737   6.146
82213SOL    HW148536   6.080   7.758   6.053
82213SOL    HW248537   6.121   7.812   6.189
82214SOL     OW48538  13.681   7.278   4.622
82214SOL    HW148539  13.674   7.185   4.647
82214SOL    HW248540  13.661   7.280   4.529
82215SOL     OW48541   3.789   9.072   3.691
82215SOL    HW148542   3.868   9.103   3.735
82215SOL    HW248543   3.764   9.143   3.633
82216SOL     OW48544  10.599  12.152   7.161
82216SOL    HW148545  10.676  12.202   7.187
82216SOL    HW248546  10.525  12.200   7.199
82217SOL     OW48547   7.410  13.944   5.608
82217SOL    HW148548   7.502  13.952   5.634
82217SOL    HW248549   7.398  13.850   5.591
82218SOL     OW48550   4.327  14.597   3.639
82218SOL    HW148551   4.411  14.574   3.679
82218SOL    HW248552   4.339  14.580   3.546
82219SOL     OW48553   8.445   2.173  13.855
82219SOL    HW148554   8.427   2.121  13.778
82219SOL    HW248555   8.358   2.195  13.890
82220SOL     OW48556   3.046   2.969  13.271
82220SOL    HW148557   3.027   3.059  13.298
82220SOL    HW248558   3.031   2.968  13.177
82221SOL     OW48559   4.072   3.018   2.128
82221SOL    HW148560   4.014   2.942   2.138
82221SOL    HW248561   4.052   3.073   2.204
82222SOL     OW48562   9.480   7.418   3.716
82222SOL    HW148563   9.553   7.472   3.746
82222SOL    HW248564   9.458   7.363   3.791
82223SOL     OW48565   0.759   9.573   5.137
82223SOL    HW148566   0.720   9.630   5.203
82223SOL    HW248567   0.725   9.485   5.158
82224SOL     OW48568  10.352   2.669   0.319
82224SOL    HW148569  10.333   2.663   0.413
82224SOL    HW248570  10.272   2.706   0.282
82225SOL     OW48571  13.770   2.659  13.432
82225SOL    HW148572  13.738   2.667  13.342
82225SOL    HW248573  13.711   2.597  13.474
82226SOL     OW48574   8.735   3.777  10.590
82226SOL    HW148575   8.742   3.687  10.559
82226SOL    HW248576   8.702   3.826  10.514
82227SOL     OW48577  12.721   0.122   0.776
82227SOL    HW148578  12.765   0.143   0.694
82227SOL    HW248579  12.792   0.112   0.840
82228SOL     OW48580  14.040   1.388   2.759
82228SOL    HW148581  14.001   1.351   2.838
82228SOL    HW248582  14.097   1.459   2.791
82229SOL     OW48583   1.774   7.241   6.349
82229SOL    HW148584   1.810   7.178   6.287
82229SOL    HW248585   1.822   7.225   6.430
82230SOL     OW48586   8.587  14.362  10.868
82230SOL    HW148587   8.567  14.438  10.923
82230SOL    HW248588   8.614  14.294  10.930
82231SOL     OW48589  12.865   5.702   5.182
82231SOL    HW148590  12.778   5.686   5.218
82231SOL    HW248591  12.883   5.793   5.202
82232SOL     OW48592   7.858   2.299   5.308
82232SOL    HW148593   7.899   2.259   5.232
82232SOL    HW248594   7.844   2.390   5.283
82233SOL     OW48595   6.660   3.568   4.444
82233SOL    HW148596   6.638   3.524   4.526
82233SOL    HW248597   6.742   3.526   4.416
82234SOL     OW48598  12.290   5.170  12.370
82234SOL    HW148599  12.204   5.190  12.333
82234SOL    HW248600  12.319   5.254  12.407
82235SOL     OW48601   3.672   4.882   1.916
82235SOL    HW148602   3.602   4.898   1.852
82235SOL    HW248603   3.680   4.964   1.964
82236SOL     OW48604  13.044  11.863  11.462
82236SOL    HW148605  12.998  11.803  11.403
82236SOL    HW248606  13.065  11.809  11.539
82237SOL     OW48607  12.667  14.619  11.390
82237SOL    HW148608  12.704  14.688  11.335
82237SOL    HW248609  12.714  14.540  11.364
82238SOL     OW48610  13.337   2.659  12.961
82238SOL    HW148611  13.374   2.571  12.958
82238SOL    HW248612  13.257   2.655  12.909
82239SOL     OW48613   7.294  11.271   9.229
82239SOL    HW148614   7.316  11.199   9.169
82239SOL    HW248615   7.283  11.229   9.314
82240SOL     OW48616  13.929  10.574   0.837
82240SOL    HW148617  14.003  10.619   0.877
82240SOL    HW248618  13.955  10.482   0.836
82241SOL     OW48619   6.035   1.365   8.347
82241SOL    HW148620   6.048   1.314   8.267
82241SOL    HW248621   5.992   1.445   8.317
82242SOL     OW48622   4.348   2.191  14.515
82242SOL    HW148623   4.401   2.269  14.503
82242SOL    HW248624   4.263   2.213  14.476
82243SOL     OW48625   5.149  10.677   8.889
82243SOL    HW148626   5.165  10.771   8.885
82243SOL    HW248627   5.056  10.667   8.872
82244SOL     OW48628   7.898  13.239   9.121
82244SOL    HW148629   7.899  13.153   9.079
82244SOL    HW248630   7.930  13.299   9.054
82245SOL     OW48631   0.570  12.404  14.030
82245SOL    HW148632   0.551  12.376  14.119
82245SOL    HW248633   0.582  12.499  14.036
82246SOL     OW48634  12.934   7.428  10.546
82246SOL    HW148635  13.001   7.490  10.576
82246SOL    HW248636  12.912   7.457  10.458
82247SOL     OW48637  14.237  13.185  12.419
82247SOL    HW148638  14.250  13.103  12.466
82247SOL    HW248639  14.170  13.166  12.354
82248SOL     OW48640   1.839   9.484   8.612
82248SOL    HW148641   1.816   9.399   8.649
82248SOL    HW248642   1.816   9.477   8.519
82249SOL     OW48643   4.158   1.774  12.530
82249SOL    HW148644   4.122   1.791  12.443
82249SOL    HW248645   4.236   1.721  12.514
82250SOL     OW48646   1.576   5.027   2.580
82250SOL    HW148647   1.509   5.075   2.629
82250SOL    HW248648   1.528   4.956   2.536
82251SOL     OW48649  12.185  10.146  10.824
82251SOL    HW148650  12.279  10.133  10.825
82251SOL    HW248651  12.153  10.085  10.757
82252SOL     OW48652   5.226   7.891  11.782
82252SOL    HW148653   5.158   7.951  11.752
82252SOL    HW248654   5.308   7.937  11.763
82253SOL     OW48655  11.406   3.509   3.907
82253SOL    HW148656  11.495   3.529   3.935
82253SOL    HW248657  11.377   3.586   3.859
82254SOL     OW48658   9.504   8.239  10.055
82254SOL    HW148659   9.425   8.271  10.098
82254SOL    HW248660   9.550   8.319  10.026
82255SOL     OW48661   8.438   9.727   9.895
82255SOL    HW148662   8.481   9.707   9.978
82255SOL    HW248663   8.391   9.647   9.873
82256SOL     OW48664  12.544   7.058  11.607
82256SOL    HW148665  12.517   7.064  11.699
82256SOL    HW248666  12.466   7.083  11.558
82257SOL     OW48667  12.423   8.847   4.123
82257SOL    HW148668  12.514   8.876   4.131
82257SOL    HW248669  12.428   8.769   4.068
82258SOL     OW48670   1.440  12.780   9.677
82258SOL    HW148671   1.533  12.795   9.692
82258SOL    HW248672   1.429  12.787   9.582
82259SOL     OW48673   4.359  10.601   2.941
82259SOL    HW148674   4.312  10.632   2.863
82259SOL    HW248675   4.341  10.668   3.007
82260SOL     OW48676   0.862   0.112  14.569
82260SOL    HW148677   0.894   0.027  14.601
82260SOL    HW248678   0.939   0.154  14.530
82261SOL     OW48679  10.637  11.502   3.612
82261SOL    HW148680  10.726  11.473   3.590
82261SOL    HW248681  10.639  11.597   3.602
82262SOL     OW48682   3.803   0.194   5.543
82262SOL    HW148683   3.861   0.118   5.543
82262SOL    HW248684   3.726   0.167   5.592
82263SOL     OW48685  12.392  11.269  14.457
82263SOL    HW148686  12.321  11.260  14.393
82263SOL    HW248687  12.427  11.357  14.442
82264SOL     OW48688   2.583   8.902   4.858
82264SOL    HW148689   2.670   8.864   4.843
82264SOL    HW248690   2.550   8.856   4.935
82265SOL     OW48691   0.266   3.444   1.736
82265SOL    HW148692   0.309   3.500   1.800
82265SOL    HW248693   0.193   3.497   1.703
82266SOL     OW48694  12.264   7.035   6.382
82266SOL    HW148695  12.252   7.095   6.455
82266SOL    HW248696  12.239   6.950   6.416
82267SOL     OW48697  13.585  11.384  12.008
82267SOL    HW148698  13.528  11.405  12.082
82267SOL    HW248699  13.662  11.343  12.047
82268SOL     OW48700   3.385   8.638  10.933
82268SOL    HW148701   3.393   8.730  10.958
82268SOL    HW248702   3.475   8.604  10.937
82269SOL     OW48703   4.113  13.082   1.724
82269SOL    HW148704   4.074  13.117   1.644
82269SOL    HW248705   4.115  13.155   1.785
82270SOL     OW48706   4.544   3.685  10.264
82270SOL    HW148707   4.543   3.778  10.285
82270SOL    HW248708   4.600   3.646  10.330
82271SOL     OW48709   3.735   7.978   9.188
82271SOL    HW148710   3.789   7.919   9.135
82271SOL    HW248711   3.727   7.934   9.272
82272SOL     OW48712   4.105   9.516   5.523
82272SOL    HW148713   4.108   9.610   5.503
82272SOL    HW248714   4.065   9.510   5.609
82273SOL     OW48715   3.697   1.534  10.924
82273SOL    HW148716   3.619   1.523  10.978
82273SOL    HW248717   3.695   1.461  10.862
82274SOL     OW48718   3.273   8.983   1.834
82274SOL    HW148719   3.288   9.001   1.927
82274SOL    HW248720   3.226   9.060   1.802
82275SOL     OW48721  12.340   5.036   4.017
82275SOL    HW148722  12.348   4.941   4.011
82275SOL    HW248723  12.412   5.063   4.074
82276SOL     OW48724   4.398   0.193  14.445
82276SOL    HW148725   4.373   0.103  14.423
82276SOL    HW248726   4.434   0.186  14.534
82277SOL     OW48727   7.167  12.747  12.623
82277SOL    HW148728   7.217  12.827  12.639
82277SOL    HW248729   7.161  12.704  12.708
82278SOL     OW48730   1.125   3.442   2.245
82278SOL    HW148731   1.132   3.520   2.190
82278SOL    HW248732   1.096   3.373   2.186
82279SOL     OW48733   8.614   7.806   0.592
82279SOL    HW148734   8.531   7.850   0.608
82279SOL    HW248735   8.635   7.763   0.675
82280SOL     OW48736   8.990   5.036   8.422
82280SOL    HW148737   9.050   5.025   8.496
82280SOL    HW248738   8.995   4.953   8.375
82281SOL     OW48739   9.769   8.035   4.675
82281SOL    HW148740   9.840   8.094   4.698
82281SOL    HW248741   9.755   8.048   4.581
82282SOL     OW48742  14.198   5.295  14.700
82282SOL    HW148743  14.138   5.232  14.742
82282SOL    HW248744  14.235   5.345  14.772
82283SOL     OW48745   0.856   5.422   2.476
82283SOL    HW148746   0.821   5.359   2.539
82283SOL    HW248747   0.796   5.496   2.481
82284SOL     OW48748  13.990   2.673  10.933
82284SOL    HW148749  14.008   2.624  10.852
82284SOL    HW248750  13.953   2.607  10.992
82285SOL     OW48751   7.254   3.236   7.915
82285SOL    HW148752   7.277   3.147   7.939
82285SOL    HW248753   7.288   3.247   7.826
82286SOL     OW48754  12.093  10.772   9.941
82286SOL    HW148755  12.143  10.809   9.868
82286SOL    HW248756  12.009  10.818   9.938
82287SOL     OW48757  11.992  13.665  13.509
82287SOL    HW148758  12.042  13.716  13.446
82287SOL    HW248759  12.057  13.609  13.552
82288SOL     OW48760   1.190  12.087   2.235
82288SOL    HW148761   1.124  12.151   2.209
82288SOL    HW248762   1.272  12.121   2.200
82289SOL     OW48763   4.973   6.089   3.446
82289SOL    HW148764   4.904   6.065   3.507
82289SOL    HW248765   5.025   6.155   3.492
82290SOL     OW48766   9.810  12.290   7.171
82290SOL    HW148767   9.791  12.228   7.100
82290SOL    HW248768   9.900  12.272   7.195
82291SOL     OW48769  14.509  12.551   5.523
82291SOL    HW148770  14.454  12.601   5.584
82291SOL    HW248771  14.465  12.561   5.438
82292SOL     OW48772  13.426   8.840   5.328
82292SOL    HW148773  13.388   8.784   5.260
82292SOL    HW248774  13.499   8.790   5.363
82293SOL     OW48775   3.080   9.419   3.501
82293SOL    HW148776   3.156   9.476   3.511
82293SOL    HW248777   3.092   9.351   3.567
82294SOL     OW48778   9.339  10.755   6.628
82294SOL    HW148779   9.374  10.816   6.563
82294SOL    HW248780   9.245  10.756   6.615
82295SOL     OW48781   2.356   8.138   3.540
82295SOL    HW148782   2.292   8.070   3.518
82295SOL    HW248783   2.378   8.179   3.456
82296SOL     OW48784   2.692   2.835  13.242
82296SOL    HW148785   2.752   2.818  13.315
82296SOL    HW248786   2.728   2.912  13.199
82297SOL     OW48787  11.160  11.848   5.929
82297SOL    HW148788  11.066  11.864   5.926
82297SOL    HW248789  11.173  11.794   6.008
82298SOL     OW48790   8.927   1.856   4.889
82298SOL    HW148791   8.939   1.765   4.916
82298SOL    HW248792   8.939   1.855   4.794
82299SOL     OW48793   5.292   2.819   5.331
82299SOL    HW148794   5.302   2.745   5.391
82299SOL    HW248795   5.204   2.808   5.294
82300SOL     OW48796   3.512   0.925   5.725
82300SOL    HW148797   3.537   0.877   5.804
82300SOL    HW248798   3.474   0.859   5.668
82301SOL     OW48799   1.480   8.155  14.155
82301SOL    HW148800   1.478   8.183  14.247
82301SOL    HW248801   1.572   8.155  14.132
82302SOL     OW48802   7.887   1.185   5.230
82302SOL    HW148803   7.804   1.177   5.182
82302SOL    HW248804   7.931   1.101   5.215
82303SOL     OW48805   1.946  13.543   7.284
82303SOL    HW148806   2.022  13.493   7.256
82303SOL    HW248807   1.978  13.596   7.357
82304SOL     OW48808   3.326  13.142   6.624
82304SOL    HW148809   3.310  13.209   6.558
82304SOL    HW248810   3.307  13.059   6.579
82305SOL     OW48811   4.017   7.882   9.395
82305SOL    HW148812   3.939   7.920   9.436
82305SOL    HW248813   4.081   7.875   9.466
82306SOL     OW48814   3.592  11.475  12.815
82306SOL    HW148815   3.680  11.456  12.846
82306SOL    HW248816   3.565  11.394  12.770
82307SOL     OW48817  11.529   3.489   4.240
82307SOL    HW148818  11.549   3.458   4.151
82307SOL    HW248819  11.491   3.413   4.283
82308SOL     OW48820   9.908   6.253   9.602
82308SOL    HW148821   9.868   6.225   9.519
82308SOL    HW248822   9.928   6.346   9.589
82309SOL     OW48823   4.532   1.864   4.385
82309SOL    HW148824   4.515   1.939   4.328
82309SOL    HW248825   4.627   1.858   4.390
82310SOL     OW48826   2.857   5.486  11.387
82310SOL    HW148827   2.900   5.483  11.473
82310SOL    HW248828   2.893   5.411  11.340
82311SOL     OW48829   6.125   9.634   9.417
82311SOL    HW148830   6.192   9.565   9.414
82311SOL    HW248831   6.175   9.715   9.430
82312SOL     OW48832   3.649   6.453   0.592
82312SOL    HW148833   3.585   6.524   0.599
82312SOL    HW248834   3.598   6.376   0.570
82313SOL     OW48835   9.232   1.575   1.437
82313SOL    HW148836   9.223   1.553   1.529
82313SOL    HW248837   9.323   1.552   1.415
82314SOL     OW48838   9.003   5.019   6.538
82314SOL    HW148839   9.045   5.058   6.615
82314SOL    HW248840   9.042   4.932   6.531
82315SOL     OW48841   6.443   5.542   7.171
82315SOL    HW148842   6.353   5.529   7.140
82315SOL    HW248843   6.436   5.607   7.240
82316SOL     OW48844  10.736   9.807  12.516
82316SOL    HW148845  10.764   9.871  12.451
82316SOL    HW248846  10.685   9.857  12.580
82317SOL     OW48847  12.099  13.038   9.653
82317SOL    HW148848  12.044  12.962   9.631
82317SOL    HW248849  12.153  13.008   9.726
82318SOL     OW48850   8.150   4.507   6.697
82318SOL    HW148851   8.220   4.505   6.762
82318SOL    HW248852   8.075   4.467   6.741
82319SOL     OW48853   3.834   6.069   1.660
82319SOL    HW148854   3.897   6.126   1.616
82319SOL    HW248855   3.885   5.994   1.690
82320SOL     OW48856   4.561   5.094  14.105
82320SOL    HW148857   4.586   5.034  14.176
82320SOL    HW248858   4.583   5.048  14.025
82321SOL     OW48859   1.675  14.164   1.808
82321SOL    HW148860   1.617  14.116   1.748
82321SOL    HW248861   1.754  14.180   1.757
82322SOL     OW48862   9.876  14.868  14.593
82322SOL    HW148863   9.802   0.040  14.575
82322SOL    HW248864   9.846  14.816  14.668
82323SOL     OW48865   2.492   5.353   5.881
82323SOL    HW148866   2.424   5.320   5.821
82323SOL    HW248867   2.476   5.447   5.887
82324SOL     OW48868   4.875   8.816   6.978
82324SOL    HW148869   4.934   8.747   6.949
82324SOL    HW248870   4.933   8.878   7.024
82325SOL     OW48871   7.534   6.131   6.433
82325SOL    HW148872   7.563   6.217   6.462
82325SOL    HW248873   7.535   6.137   6.337
82326SOL     OW48874   2.885   5.208  13.329
82326SOL    HW148875   2.894   5.302  13.340
82326SOL    HW248876   2.801   5.197  13.285
82327SOL     OW48877   8.715   9.846   1.631
82327SOL    HW148878   8.694   9.938   1.649
82327SOL    HW248879   8.807   9.837   1.656
82328SOL     OW48880  14.445   1.801  14.735
82328SOL    HW148881  14.420   1.876  14.789
82328SOL    HW248882  14.532   1.777  14.767
82329SOL     OW48883   7.267   5.478  11.718
82329SOL    HW148884   7.186   5.426  11.718
82329SOL    HW248885   7.280   5.502  11.810
82330SOL     OW48886   0.666  12.429   1.724
82330SOL    HW148887   0.756  12.427   1.758
82330SOL    HW248888   0.613  12.395   1.796
82331SOL     OW48889   2.569   7.491   8.829
82331SOL    HW148890   2.493   7.432   8.827
82331SOL    HW248891   2.557   7.544   8.908
82332SOL     OW48892  11.645   2.768  13.483
82332SOL    HW148893  11.735   2.801  13.478
82332SOL    HW248894  11.592   2.836  13.442
82333SOL     OW48895   4.954   3.009  14.885
82333SOL    HW148896   4.916   2.929   0.033
82333SOL    HW248897   4.974   2.987  14.794
82334SOL     OW48898  11.870   6.422   9.822
82334SOL    HW148899  11.863   6.371   9.903
82334SOL    HW248900  11.964   6.428   9.806
82335SOL     OW48901  11.641   2.403   9.263
82335SOL    HW148902  11.601   2.485   9.234
82335SOL    HW248903  11.637   2.406   9.358
82336SOL     OW48904  11.006   3.673   5.451
82336SOL    HW148905  11.054   3.679   5.533
82336SOL    HW248906  11.058   3.723   5.388
82337SOL     OW48907   4.088   4.595   0.608
82337SOL    HW148908   4.043   4.567   0.528
82337SOL    HW248909   4.069   4.526   0.672
82338SOL     OW48910   8.032  11.116   8.272
82338SOL    HW148911   8.056  11.208   8.283
82338SOL    HW248912   7.971  11.099   8.344
82339SOL     OW48913  13.934   9.858  14.382
82339SOL    HW148914  13.912   9.936  14.433
82339SOL    HW248915  14.011   9.884  14.330
82340SOL     OW48916   8.315   4.430  12.311
82340SOL    HW148917   8.323   4.413  12.405
82340SOL    HW248918   8.333   4.524  12.302
82341SOL     OW48919   0.897   3.506  11.935
82341SOL    HW148920   0.967   3.516  11.870
82341SOL    HW248921   0.936   3.533  12.018
82342SOL     OW48922   9.001   9.149   0.730
82342SOL    HW148923   8.924   9.190   0.771
82342SOL    HW248924   9.018   9.202   0.653
82343SOL     OW48925   8.204  14.418  12.891
82343SOL    HW148926   8.228  14.472  12.816
82343SOL    HW248927   8.111  14.433  12.903
82344SOL     OW48928   0.051   2.020   9.969
82344SOL    HW148929  14.845   2.024   9.990
82344SOL    HW248930   0.055   2.031   9.874
82345SOL     OW48931   5.884   4.835   9.829
82345SOL    HW148932   5.970   4.869   9.802
82345SOL    HW248933   5.899   4.741   9.842
82346SOL     OW48934   0.977   6.198  11.792
82346SOL    HW148935   0.954   6.105  11.790
82346SOL    HW248936   1.068   6.201  11.764
82347SOL     OW48937   6.319   4.581   9.075
82347SOL    HW148938   6.250   4.525   9.112
82347SOL    HW248939   6.306   4.575   8.980
82348SOL     OW48940   7.466  12.562   5.623
82348SOL    HW148941   7.471  12.494   5.556
82348SOL    HW248942   7.555  12.571   5.656
82349SOL     OW48943  14.750   6.481   3.255
82349SOL    HW148944  14.667   6.465   3.301
82349SOL    HW248945  14.739   6.567   3.214
82350SOL     OW48946   0.309  12.589   4.714
82350SOL    HW148947   0.268  12.668   4.750
82350SOL    HW248948   0.237  12.527   4.703
82351SOL     OW48949   8.276   4.561   3.625
82351SOL    HW148950   8.328   4.516   3.557
82351SOL    HW248951   8.292   4.510   3.704
82352SOL     OW48952  10.706   2.373  12.872
82352SOL    HW148953  10.780   2.426  12.903
82352SOL    HW248954  10.666   2.339  12.952
82353SOL     OW48955   2.132   4.709   1.276
82353SOL    HW148956   2.135   4.648   1.203
82353SOL    HW248957   2.206   4.684   1.331
82354SOL     OW48958  12.345  14.415   1.072
82354SOL    HW148959  12.375  14.491   1.021
82354SOL    HW248960  12.362  14.340   1.015
82355SOL     OW48961   7.321  13.898  13.383
82355SOL    HW148962   7.379  13.830  13.418
82355SOL    HW248963   7.281  13.937  13.460
82356SOL     OW48964   6.270  14.441   4.412
82356SOL    HW148965   6.205  14.374   4.434
82356SOL    HW248966   6.220  14.523   4.416
82357SOL     OW48967   8.305  11.849   9.617
82357SOL    HW148968   8.350  11.927   9.650
82357SOL    HW248969   8.308  11.786   9.689
82358SOL     OW48970  12.417   9.297  13.301
82358SOL    HW148971  12.323   9.280  13.305
82358SOL    HW248972  12.457   9.211  13.290
82359SOL     OW48973   8.944  10.512  12.595
82359SOL    HW148974   8.994  10.499  12.676
82359SOL    HW248975   8.892  10.591  12.612
82360SOL     OW48976   6.167   5.199   3.991
82360SOL    HW148977   6.200   5.207   4.081
82360SOL    HW248978   6.246   5.186   3.938
82361SOL     OW48979  13.968  14.333   6.996
82361SOL    HW148980  14.018  14.393   6.940
82361SOL    HW248981  13.979  14.247   6.955
82362SOL     OW48982  14.680   5.763   2.897
82362SOL    HW148983  14.671   5.693   2.832
82362SOL    HW248984  14.755   5.738   2.950
82363SOL     OW48985   4.391   2.116  10.431
82363SOL    HW148986   4.311   2.072  10.461
82363SOL    HW248987   4.444   2.047  10.392
82364SOL     OW48988   2.406   3.442  13.651
82364SOL    HW148989   2.449   3.526  13.636
82364SOL    HW248990   2.381   3.443  13.743
82365SOL     OW48991   5.598   8.187   9.270
82365SOL    HW148992   5.557   8.101   9.258
82365SOL    HW248993   5.681   8.167   9.315
82366SOL     OW48994  10.793  13.501  14.868
82366SOL    HW148995  10.727  13.486  14.800
82366SOL    HW248996  10.745  13.495   0.063
82367SOL     OW48997   6.728  13.613   2.135
82367SOL    HW148998   6.677  13.542   2.174
82367SOL    HW248999   6.713  13.688   2.192
82368SOL     OW49000  13.849  14.379   3.342
82368SOL    HW149001  13.805  14.304   3.303
82368SOL    HW249002  13.936  14.380   3.302
82369SOL     OW49003  13.680   5.588   8.413
82369SOL    HW149004  13.640   5.538   8.342
82369SOL    HW249005  13.769   5.608   8.382
82370SOL     OW49006   8.444   6.298  14.534
82370SOL    HW149007   8.482   6.299  14.447
82370SOL    HW249008   8.352   6.277  14.521
82371SOL     OW49009  10.901  14.242  14.769
82371SOL    HW149010  10.891  14.152  14.799
82371SOL    HW249011  10.874  14.296  14.843
82372SOL     OW49012   0.364  12.527   7.678
82372SOL    HW149013   0.307  12.453   7.700
82372SOL    HW249014   0.445  12.487   7.648
82373SOL     OW49015   7.601   9.778   5.744
82373SOL    HW149016   7.683   9.738   5.717
82373SOL    HW249017   7.533   9.724   5.704
82374SOL     OW49018   3.808   7.181  12.825
82374SOL    HW149019   3.838   7.149  12.910
82374SOL    HW249020   3.767   7.105  12.783
82375SOL     OW49021   6.746  12.296   2.442
82375SOL    HW149022   6.760  12.290   2.536
82375SOL    HW249023   6.779  12.383   2.418
82376SOL     OW49024  13.965   5.072  14.761
82376SOL    HW149025  13.925   5.024  14.834
82376SOL    HW249026  14.022   5.008  14.718
82377SOL     OW49027  12.417   6.794  13.634
82377SOL    HW149028  12.365   6.769  13.710
82377SOL    HW249029  12.372   6.870  13.597
82378SOL     OW49030   2.397  10.594   5.513
82378SOL    HW149031   2.348  10.567   5.436
82378SOL    HW249032   2.466  10.528   5.522
82379SOL     OW49033  10.397   2.922   7.641
82379SOL    HW149034  10.433   2.843   7.601
82379SOL    HW249035  10.456   2.941   7.714
82380SOL     OW49036   0.603  10.234   1.454
82380SOL    HW149037   0.686  10.283   1.452
82380SOL    HW249038   0.626  10.150   1.495
82381SOL     OW49039  13.299  14.444   0.097
82381SOL    HW149040  13.303  14.444   0.192
82381SOL    HW249041  13.317  14.534   0.071
82382SOL     OW49042  13.421  13.644   4.205
82382SOL    HW149043  13.508  13.665   4.171
82382SOL    HW249044  13.372  13.725   4.197
82383SOL     OW49045   8.115  11.610   6.535
82383SOL    HW149046   8.069  11.527   6.550
82383SOL    HW249047   8.204  11.594   6.566
82384SOL     OW49048   4.016   1.067   9.170
82384SOL    HW149049   3.998   1.141   9.112
82384SOL    HW249050   3.944   1.069   9.234
82385SOL     OW49051  11.221   7.334   3.586
82385SOL    HW149052  11.276   7.370   3.516
82385SOL    HW249053  11.225   7.399   3.656
82386SOL     OW49054   3.419  14.118  11.465
82386SOL    HW149055   3.353  14.121  11.534
82386SOL    HW249056   3.369  14.101  11.385
82387SOL     OW49057   3.178   4.674  10.160
82387SOL    HW149058   3.255   4.684  10.216
82387SOL    HW249059   3.110   4.726  10.204
82388SOL     OW49060   1.277  10.390  10.829
82388SOL    HW149061   1.190  10.386  10.792
82388SOL    HW249062   1.334  10.415  10.756
82389SOL     OW49063  10.222   5.006  11.882
82389SOL    HW149064  10.142   4.955  11.893
82389SOL    HW249065  10.292   4.942  11.883
82390SOL     OW49066  10.404   5.988   1.964
82390SOL    HW149067  10.430   5.960   2.052
82390SOL    HW249068  10.486   6.016   1.922
82391SOL     OW49069  10.923   3.426   0.830
82391SOL    HW149070  10.883   3.405   0.914
82391SOL    HW249071  10.918   3.521   0.824
82392SOL     OW49072   1.491  10.049  14.688
82392SOL    HW149073   1.468  10.141  14.701
82392SOL    HW249074   1.433  10.001  14.747
82393SOL     OW49075   7.435   9.420   2.676
82393SOL    HW149076   7.365   9.484   2.691
82393SOL    HW249077   7.469   9.401   2.763
82394SOL     OW49078   7.377   6.501  13.457
82394SOL    HW149079   7.429   6.474  13.533
82394SOL    HW249080   7.433   6.483  13.382
82395SOL     OW49081   0.835   7.190  10.850
82395SOL    HW149082   0.910   7.190  10.790
82395SOL    HW249083   0.832   7.279  10.885
82396SOL     OW49084  14.299   2.538  13.825
82396SOL    HW149085  14.293   2.443  13.815
82396SOL    HW249086  14.393   2.555  13.835
82397SOL     OW49087   7.348   8.991  13.971
82397SOL    HW149088   7.292   8.964  13.898
82397SOL    HW249089   7.429   9.022  13.928
82398SOL     OW49090   0.978   8.230   0.528
82398SOL    HW149091   0.917   8.162   0.502
82398SOL    HW249092   0.983   8.288   0.451
82399SOL     OW49093  14.354   7.269   6.837
82399SOL    HW149094  14.309   7.229   6.912
82399SOL    HW249095  14.284   7.282   6.772
82400SOL     OW49096   1.869  14.155  12.826
82400SOL    HW149097   1.939  14.111  12.778
82400SOL    HW249098   1.900  14.244  12.838
82401SOL     OW49099   6.714   6.150   2.896
82401SOL    HW149100   6.654   6.094   2.845
82401SOL    HW249101   6.662   6.179   2.971
82402SOL     OW49102   3.548   4.357  14.679
82402SOL    HW149103   3.630   4.382  14.637
82402SOL    HW249104   3.507   4.439  14.704
82403SOL     OW49105  14.656   8.223   3.561
82403SOL    HW149106  14.734   8.263   3.524
82403SOL    HW249107  14.593   8.295   3.567
82404SOL     OW49108  11.554   9.644   6.325
82404SOL    HW149109  11.557   9.726   6.373
82404SOL    HW249110  11.611   9.585   6.374
82405SOL     OW49111  13.456  11.198  14.250
82405SOL    HW149112  13.405  11.189  14.169
82405SOL    HW249113  13.479  11.108  14.273
82406SOL     OW49114   6.781   2.577   0.250
82406SOL    HW149115   6.806   2.491   0.286
82406SOL    HW249116   6.850   2.636   0.281
82407SOL     OW49117  12.701   6.944   2.746
82407SOL    HW149118  12.795   6.945   2.763
82407SOL    HW249119  12.694   6.951   2.650
82408SOL     OW49120   5.718  14.503   2.457
82408SOL    HW149121   5.718  14.594   2.486
82408SOL    HW249122   5.717  14.452   2.538
82409SOL     OW49123  14.085   5.675  10.919
82409SOL    HW149124  14.018   5.611  10.893
82409SOL    HW249125  14.155   5.664  10.855
82410SOL     OW49126   0.548   2.401   6.975
82410SOL    HW149127   0.461   2.381   6.940
82410SOL    HW249128   0.607   2.345   6.926
82411SOL     OW49129   0.351   7.767   2.358
82411SOL    HW149130   0.321   7.827   2.290
82411SOL    HW249131   0.424   7.720   2.317
82412SOL     OW49132   9.081   2.904   7.673
82412SOL    HW149133   8.998   2.944   7.700
82412SOL    HW249134   9.073   2.893   7.579
82413SOL     OW49135   3.772   9.184   3.957
82413SOL    HW149136   3.848   9.190   4.013
82413SOL    HW249137   3.793   9.115   3.894
82414SOL     OW49138  13.103   8.333   1.226
82414SOL    HW149139  13.084   8.427   1.229
82414SOL    HW249140  13.197   8.329   1.207
82415SOL     OW49141   8.496   3.562   4.572
82415SOL    HW149142   8.550   3.489   4.602
82415SOL    HW249143   8.554   3.638   4.575
82416SOL     OW49144   1.565  11.717   9.742
82416SOL    HW149145   1.495  11.724   9.807
82416SOL    HW249146   1.533  11.651   9.680
82417SOL     OW49147   1.433  10.346   4.870
82417SOL    HW149148   1.433  10.413   4.802
82417SOL    HW249149   1.347  10.305   4.863
82418SOL     OW49150   5.329  12.963   1.369
82418SOL    HW149151   5.410  12.958   1.319
82418SOL    HW249152   5.332  12.887   1.427
82419SOL     OW49153   9.703   1.195   1.059
82419SOL    HW149154   9.779   1.195   1.002
82419SOL    HW249155   9.667   1.106   1.052
82420SOL     OW49156   7.455   8.326   8.397
82420SOL    HW149157   7.459   8.406   8.345
82420SOL    HW249158   7.371   8.332   8.443
82421SOL     OW49159   5.083  12.393  13.934
82421SOL    HW149160   5.175  12.405  13.959
82421SOL    HW249161   5.044  12.348  14.009
82422SOL     OW49162   8.440  11.227  12.746
82422SOL    HW149163   8.507  11.277  12.700
82422SOL    HW249164   8.357  11.270  12.721
82423SOL     OW49165   4.272  10.685   2.346
82423SOL    HW149166   4.307  10.769   2.317
82423SOL    HW249167   4.314  10.621   2.288
82424SOL     OW49168   7.614   2.176   5.275
82424SOL    HW149169   7.695   2.226   5.286
82424SOL    HW249170   7.597   2.138   5.361
82425SOL     OW49171   5.108   5.030   4.438
82425SOL    HW149172   5.143   4.942   4.451
82425SOL    HW249173   5.022   5.027   4.478
82426SOL     OW49174   7.011   5.324   0.823
82426SOL    HW149175   7.064   5.244   0.825
82426SOL    HW249176   6.921   5.295   0.834
82427SOL     OW49177   1.653  13.767   7.687
82427SOL    HW149178   1.660  13.705   7.760
82427SOL    HW249179   1.560  13.788   7.682
82428SOL     OW49180   9.073   7.133   9.990
82428SOL    HW149181   9.168   7.135   9.983
82428SOL    HW249182   9.054   7.180  10.071
82429SOL     OW49183   7.154   4.240   7.205
82429SOL    HW149184   7.122   4.264   7.292
82429SOL    HW249185   7.076   4.244   7.149
82430SOL     OW49186  14.662   4.219  14.834
82430SOL    HW149187  14.584   4.238  14.781
82430SOL    HW249188  14.635   4.235   0.037
82431SOL     OW49189  14.144   6.773  11.777
82431SOL    HW149190  14.059   6.812  11.756
82431SOL    HW249191  14.123   6.685  11.810
82432SOL     OW49192   4.432   3.831  11.574
82432SOL    HW149193   4.357   3.773  11.588
82432SOL    HW249194   4.501   3.773  11.541
82433SOL     OW49195   7.290   0.115   2.340
82433SOL    HW149196   7.344   0.036   2.342
82433SOL    HW249197   7.352   0.187   2.350
82434SOL     OW49198  12.906   3.521   9.376
82434SOL    HW149199  12.941   3.435   9.400
82434SOL    HW249200  12.813   3.506   9.361
82435SOL     OW49201   4.310  12.375   9.226
82435SOL    HW149202   4.233  12.332   9.265
82435SOL    HW249203   4.277  12.459   9.195
82436SOL     OW49204  13.307   3.498   3.779
82436SOL    HW149205  13.357   3.558   3.724
82436SOL    HW249206  13.241   3.462   3.721
82437SOL     OW49207   7.669   2.166   7.052
82437SOL    HW149208   7.597   2.206   7.101
82437SOL    HW249209   7.634   2.155   6.963
82438SOL     OW49210   0.294   4.270   0.906
82438SOL    HW149211   0.374   4.247   0.953
82438SOL    HW249212   0.225   4.266   0.973
82439SOL     OW49213   8.594   8.273   3.252
82439SOL    HW149214   8.621   8.344   3.194
82439SOL    HW249215   8.505   8.295   3.278
82440SOL     OW49216   0.335   0.779   9.551
82440SOL    HW149217   0.282   0.737   9.618
82440SOL    HW249218   0.293   0.864   9.536
82441SOL     OW49219   2.271  14.373   2.680
82441SOL    HW149220   2.340  14.439   2.683
82441SOL    HW249221   2.263  14.350   2.588
82442SOL     OW49222   9.710   2.728   3.689
82442SOL    HW149223   9.729   2.655   3.630
82442SOL    HW249224   9.790   2.781   3.689
82443SOL     OW49225   2.678   0.180  10.563
82443SOL    HW149226   2.630   0.229  10.629
82443SOL    HW249227   2.760   0.156  10.606
82444SOL     OW49228   5.315   4.218   0.839
82444SOL    HW149229   5.328   4.308   0.869
82444SOL    HW249230   5.321   4.165   0.918
82445SOL     OW49231  11.692   9.020   4.595
82445SOL    HW149232  11.672   9.042   4.504
82445SOL    HW249233  11.664   9.097   4.645
82446SOL     OW49234   0.670  13.830   8.440
82446SOL    HW149235   0.593  13.824   8.497
82446SOL    HW249236   0.636  13.808   8.353
82447SOL     OW49237   1.939   6.457  12.937
82447SOL    HW149238   2.001   6.425  12.872
82447SOL    HW249239   1.857   6.411  12.916
82448SOL     OW49240   0.378   7.272   1.766
82448SOL    HW149241   0.366   7.357   1.809
82448SOL    HW249242   0.468   7.247   1.788
82449SOL     OW49243   9.222   7.336   2.123
82449SOL    HW149244   9.310   7.357   2.156
82449SOL    HW249245   9.238   7.295   2.038
82450SOL     OW49246   9.562   2.739   3.020
82450SOL    HW149247   9.614   2.763   3.096
82450SOL    HW249248   9.478   2.783   3.033
82451SOL     OW49249   0.577  11.633   2.364
82451SOL    HW149250   0.664  11.625   2.402
82451SOL    HW249251   0.585  11.594   2.276
82452SOL     OW49252  10.338   2.742   4.523
82452SOL    HW149253  10.416   2.768   4.572
82452SOL    HW249254  10.334   2.647   4.533
82453SOL     OW49255   0.454  10.717   0.121
82453SOL    HW149256   0.453  10.782   0.191
82453SOL    HW249257   0.364  10.713   0.090
82454SOL     OW49258  10.314   3.993   5.878
82454SOL    HW149259  10.260   4.070   5.863
82454SOL    HW249260  10.253   3.925   5.905
82455SOL     OW49261  14.392  12.610   8.709
82455SOL    HW149262  14.458  12.603   8.640
82455SOL    HW249263  14.309  12.608   8.662
82456SOL     OW49264   3.806   4.663  13.615
82456SOL    HW149265   3.886   4.636  13.569
82456SOL    HW249266   3.830   4.743  13.661
82457SOL     OW49267   1.920  12.289   4.601
82457SOL    HW149268   2.001  12.258   4.561
82457SOL    HW249269   1.860  12.303   4.527
82458SOL     OW49270   1.900   4.514   4.296
82458SOL    HW149271   1.904   4.609   4.280
82458SOL    HW249272   1.983   4.481   4.261
82459SOL     OW49273   6.105  13.157   1.916
82459SOL    HW149274   6.039  13.220   1.946
82459SOL    HW249275   6.183  13.178   1.966
82460SOL     OW49276  13.261  10.920   2.745
82460SOL    HW149277  13.244  10.994   2.687
82460SOL    HW249278  13.178  10.906   2.791
82461SOL     OW49279   5.500  12.248  13.999
82461SOL    HW149280   5.545  12.240  14.084
82461SOL    HW249281   5.427  12.307  14.017
82462SOL     OW49282  13.091   0.915  13.733
82462SOL    HW149283  13.155   0.942  13.666
82462SOL    HW249284  13.030   0.988  13.738
82463SOL     OW49285   7.412   5.171   9.500
82463SOL    HW149286   7.441   5.146   9.412
82463SOL    HW249287   7.457   5.254   9.517
82464SOL     OW49288   7.771   6.674   0.040
82464SOL    HW149289   7.754   6.751  14.873
82464SOL    HW249290   7.814   6.710   0.118
82465SOL     OW49291   1.824  13.770   3.393
82465SOL    HW149292   1.864  13.795   3.310
82465SOL    HW249293   1.898  13.753   3.451
82466SOL     OW49294  10.985   7.527   6.284
82466SOL    HW149295  11.079   7.544   6.281
82466SOL    HW249296  10.966   7.481   6.202
82467SOL     OW49297  13.759   5.216  12.758
82467SOL    HW149298  13.739   5.237  12.850
82467SOL    HW249299  13.681   5.243  12.710
82468SOL     OW49300   2.018   4.787   8.596
82468SOL    HW149301   2.018   4.835   8.513
82468SOL    HW249302   1.939   4.734   8.594
82469SOL     OW49303  13.232  10.623   3.541
82469SOL    HW149304  13.198  10.573   3.467
82469SOL    HW249305  13.290  10.562   3.586
82470SOL     OW49306  10.265  10.241   4.432
82470SOL    HW149307  10.316  10.164   4.457
82470SOL    HW249308  10.328  10.299   4.390
82471SOL     OW49309  13.875  13.484  11.079
82471SOL    HW149310  13.875  13.579  11.081
82471SOL    HW249311  13.802  13.461  11.021
82472SOL     OW49312   1.251  12.307   7.050
82472SOL    HW149313   1.321  12.241   7.054
82472SOL    HW249314   1.249  12.344   7.138
82473SOL     OW49315   8.292   3.580  12.277
82473SOL    HW149316   8.258   3.517  12.341
82473SOL    HW249317   8.214   3.622  12.241
82474SOL     OW49318  11.259   3.653   4.856
82474SOL    HW149319  11.351   3.670   4.838
82474SOL    HW249320  11.231   3.595   4.785
82475SOL     OW49321   5.351   4.930  11.862
82475SOL    HW149322   5.326   4.970  11.945
82475SOL    HW249323   5.446   4.936  11.860
82476SOL     OW49324  12.629  12.745  14.172
82476SOL    HW149325  12.661  12.655  14.173
82476SOL    HW249326  12.538  12.738  14.202
82477SOL     OW49327   8.895   4.163   6.459
82477SOL    HW149328   8.945   4.198   6.533
82477SOL    HW249329   8.812   4.134   6.498
82478SOL     OW49330   8.757   0.113  14.641
82478SOL    HW149331   8.736   0.205  14.657
82478SOL    HW249332   8.707   0.090  14.562
82479SOL     OW49333   2.769   6.150   6.805
82479SOL    HW149334   2.765   6.134   6.711
82479SOL    HW249335   2.839   6.091   6.836
82480SOL     OW49336   7.920   7.835   0.772
82480SOL    HW149337   7.951   7.909   0.825
82480SOL    HW249338   7.826   7.852   0.762
82481SOL     OW49339  10.539   7.214  10.230
82481SOL    HW149340  10.584   7.246  10.152
82481SOL    HW249341  10.468   7.160  10.196
82482SOL     OW49342   6.389   8.384  11.048
82482SOL    HW149343   6.461   8.447  11.047
82482SOL    HW249344   6.310   8.437  11.058
82483SOL     OW49345   4.960   8.835  11.283
82483SOL    HW149346   4.890   8.771  11.277
82483SOL    HW249347   4.915   8.919  11.298
82484SOL     OW49348  14.881   3.058  12.021
82484SOL    HW149349   0.060   3.112  12.064
82484SOL    HW249350  14.859   2.991  12.086
82485SOL     OW49351   9.559   2.702   4.524
82485SOL    HW149352   9.600   2.786   4.505
82485SOL    HW249353   9.527   2.671   4.440
82486SOL     OW49354   4.787   0.609   0.777
82486SOL    HW149355   4.870   0.563   0.768
82486SOL    HW249356   4.721   0.540   0.781
82487SOL     OW49357  12.007  12.323   5.377
82487SOL    HW149358  11.924  12.301   5.419
82487SOL    HW249359  12.011  12.419   5.381
82488SOL     OW49360   0.605   1.739   4.404
82488SOL    HW149361   0.582   1.804   4.470
82488SOL    HW249362   0.648   1.669   4.453
82489SOL     OW49363  10.834  13.149   7.172
82489SOL    HW149364  10.773  13.219   7.194
82489SOL    HW249365  10.794  13.105   7.097
82490SOL     OW49366  12.698   4.057   0.024
82490SOL    HW149367  12.764   4.027   0.087
82490SOL    HW249368  12.653   4.128   0.070
82491SOL     OW49369  14.498  14.003   8.205
82491SOL    HW149370  14.518  14.086   8.162
82491SOL    HW249371  14.455  14.029   8.287
82492SOL     OW49372   7.797   6.850   6.643
82492SOL    HW149373   7.838   6.918   6.696
82492SOL    HW249374   7.831   6.768   6.678
82493SOL     OW49375   6.063   7.344   1.531
82493SOL    HW149376   6.070   7.299   1.447
82493SOL    HW249377   5.981   7.394   1.524
82494SOL     OW49378   6.001  10.393   3.162
82494SOL    HW149379   5.978  10.483   3.139
82494SOL    HW249380   6.047  10.401   3.246
82495SOL     OW49381   1.540   7.386  14.294
82495SOL    HW149382   1.562   7.298  14.323
82495SOL    HW249383   1.590   7.444  14.353
82496SOL     OW49384   3.080  11.858   0.375
82496SOL    HW149385   3.008  11.915   0.347
82496SOL    HW249386   3.146  11.867   0.307
82497SOL     OW49387  14.408   1.985   9.548
82497SOL    HW149388  14.502   1.987   9.527
82497SOL    HW249389  14.369   2.049   9.489
82498SOL     OW49390   0.473   7.745   8.432
82498SOL    HW149391   0.552   7.744   8.377
82498SOL    HW249392   0.500   7.705   8.514
82499SOL     OW49393  14.186  12.739  13.759
82499SOL    HW149394  14.248  12.790  13.707
82499SOL    HW249395  14.109  12.795  13.767
82500SOL     OW49396   8.647   8.147   4.652
82500SOL    HW149397   8.553   8.135   4.640
82500SOL    HW249398   8.654   8.213   4.721
82501SOL     OW49399   1.111   8.962  14.193
82501SOL    HW149400   1.028   8.952  14.240
82501SOL    HW249401   1.170   9.004  14.255
82502SOL     OW49402   3.670  12.218  14.742
82502SOL    HW149403   3.600  12.279  14.717
82502SOL    HW249404   3.632  12.131  14.729
82503SOL     OW49405   9.265   3.922   1.463
82503SOL    HW149406   9.314   3.988   1.512
82503SOL    HW249407   9.295   3.839   1.500
82504SOL     OW49408   5.633   0.574  12.342
82504SOL    HW149409   5.642   0.566  12.437
82504SOL    HW249410   5.700   0.638  12.317
82505SOL     OW49411   4.232   9.305  14.135
82505SOL    HW149412   4.298   9.350  14.188
82505SOL    HW249413   4.169   9.374  14.113
82506SOL     OW49414   3.088   2.259   3.078
82506SOL    HW149415   3.079   2.192   3.010
82506SOL    HW249416   3.178   2.251   3.108
82507SOL     OW49417  11.591   4.762   2.636
82507SOL    HW149418  11.621   4.842   2.679
82507SOL    HW249419  11.663   4.735   2.580
82508SOL     OW49420   2.531  11.585   1.050
82508SOL    HW149421   2.610  11.585   1.104
82508SOL    HW249422   2.529  11.672   1.011
82509SOL     OW49423   9.259  14.103  12.821
82509SOL    HW149424   9.272  14.113  12.916
82509SOL    HW249425   9.235  14.011  12.811
82510SOL     OW49426   6.183   8.276  13.015
82510SOL    HW149427   6.190   8.364  12.977
82510SOL    HW249428   6.090   8.265  13.032
82511SOL     OW49429  12.833   6.162   2.096
82511SOL    HW149430  12.910   6.132   2.144
82511SOL    HW249431  12.759   6.139   2.153
82512SOL     OW49432   9.759   2.478   4.253
82512SOL    HW149433   9.801   2.392   4.246
82512SOL    HW249434   9.674   2.468   4.210
82513SOL     OW49435   9.102  10.579   1.490
82513SOL    HW149436   9.134  10.666   1.515
82513SOL    HW249437   9.124  10.523   1.564
82514SOL     OW49438  14.528  13.840   9.798
82514SOL    HW149439  14.492  13.894   9.869
82514SOL    HW249440  14.531  13.752   9.834
82515SOL     OW49441   3.600   3.444  11.394
82515SOL    HW149442   3.645   3.528  11.379
82515SOL    HW249443   3.564   3.451  11.482
82516SOL     OW49444  11.503   7.264  10.920
82516SOL    HW149445  11.566   7.235  10.986
82516SOL    HW249446  11.463   7.184  10.886
82517SOL     OW49447   7.096  10.213   1.099
82517SOL    HW149448   7.015  10.168   1.077
82517SOL    HW249449   7.079  10.305   1.080
82518SOL     OW49450   4.153  13.692  12.597
82518SOL    HW149451   4.136  13.774  12.551
82518SOL    HW249452   4.233  13.658  12.557
82519SOL     OW49453  14.291   3.037  10.764
82519SOL    HW149454  14.272   3.113  10.819
82519SOL    HW249455  14.380   3.052  10.733
82520SOL     OW49456  11.118   7.149   9.389
82520SOL    HW149457  11.085   7.107   9.469
82520SOL    HW249458  11.053   7.128   9.322
82521SOL     OW49459  11.856  14.381  10.999
82521SOL    HW149460  11.772  14.406  10.960
82521SOL    HW249461  11.889  14.462  11.039
82522SOL     OW49462   4.488   3.609  14.851
82522SOL    HW149463   4.580   3.594  14.873
82522SOL    HW249464   4.473   3.556  14.773
82523SOL     OW49465   6.861   9.176   1.466
82523SOL    HW149466   6.861   9.123   1.386
82523SOL    HW249467   6.798   9.246   1.448
82524SOL     OW49468   5.761   7.693   0.719
82524SOL    HW149469   5.677   7.653   0.740
82524SOL    HW249470   5.824   7.620   0.719
82525SOL     OW49471  11.388  11.383  13.567
82525SOL    HW149472  11.379  11.358  13.659
82525SOL    HW249473  11.353  11.472  13.563
82526SOL     OW49474   6.710   5.076   0.620
82526SOL    HW149475   6.745   5.161   0.590
82526SOL    HW249476   6.621   5.073   0.584
82527SOL     OW49477   3.559   1.406   8.631
82527SOL    HW149478   3.517   1.320   8.636
82527SOL    HW249479   3.632   1.400   8.693
82528SOL     OW49480   6.284   8.229   4.092
82528SOL    HW149481   6.203   8.277   4.104
82528SOL    HW249482   6.351   8.296   4.079
82529SOL     OW49483   8.691  13.462  13.938
82529SOL    HW149484   8.676  13.368  13.949
82529SOL    HW249485   8.645  13.502  14.011
82530SOL     OW49486  11.099  11.071  13.818
82530SOL    HW149487  11.148  10.996  13.852
82530SOL    HW249488  11.042  11.097  13.890
82531SOL     OW49489   6.160   6.749   1.757
82531SOL    HW149490   6.210   6.677   1.718
82531SOL    HW249491   6.212   6.827   1.737
82532SOL     OW49492   8.517   3.562   1.466
82532SOL    HW149493   8.483   3.605   1.387
82532SOL    HW249494   8.590   3.509   1.434
82533SOL     OW49495   9.012  13.331  11.944
82533SOL    HW149496   8.982  13.259  11.887
82533SOL    HW249497   9.093  13.297  11.983
82534SOL     OW49498   5.736  14.762   2.885
82534SOL    HW149499   5.689  14.807   2.955
82534SOL    HW249500   5.826  14.794   2.893
82535SOL     OW49501   1.191  13.957   6.535
82535SOL    HW149502   1.245  13.970   6.613
82535SOL    HW249503   1.139  14.037   6.529
82536SOL     OW49504   8.667   8.916   4.529
82536SOL    HW149505   8.667   8.989   4.592
82536SOL    HW249506   8.581   8.918   4.489
82537SOL     OW49507   8.347  13.633  12.702
82537SOL    HW149508   8.267  13.651  12.653
82537SOL    HW249509   8.331  13.549  12.745
82538SOL     OW49510   8.449   1.864   0.852
82538SOL    HW149511   8.543   1.873   0.866
82538SOL    HW249512   8.427   1.779   0.891
82539SOL     OW49513   3.065   3.999  14.174
82539SOL    HW149514   3.089   3.987  14.266
82539SOL    HW249515   3.103   4.083  14.150
82540SOL     OW49516  11.996   3.257  12.059
82540SOL    HW149517  11.931   3.209  12.110
82540SOL    HW249518  12.017   3.199  11.985
82541SOL     OW49519   4.993   1.232   2.711
82541SOL    HW149520   5.076   1.185   2.712
82541SOL    HW249521   4.935   1.181   2.767
82542SOL     OW49522   3.643   1.132  14.756
82542SOL    HW149523   3.570   1.072  14.742
82542SOL    HW249524   3.610   1.217  14.726
82543SOL     OW49525  14.071  11.908  13.381
82543SOL    HW149526  13.985  11.866  13.389
82543SOL    HW249527  14.133  11.838  13.402
82544SOL     OW49528   6.346   5.905   1.434
82544SOL    HW149529   6.356   5.816   1.402
82544SOL    HW249530   6.334   5.958   1.355
82545SOL     OW49531   7.105   6.232   2.537
82545SOL    HW149532   7.013   6.258   2.532
82545SOL    HW249533   7.147   6.282   2.466
82546SOL     OW49534   9.607  13.169   3.044
82546SOL    HW149535   9.618  13.206   3.132
82546SOL    HW249536   9.595  13.075   3.059
82547SOL     OW49537   9.495  13.655  12.457
82547SOL    HW149538   9.418  13.693  12.415
82547SOL    HW249539   9.482  13.671  12.550
82548SOL     OW49540  11.618  13.909   8.258
82548SOL    HW149541  11.683  13.924   8.189
82548SOL    HW249542  11.666  13.922   8.339
82549SOL     OW49543  11.606   0.001   4.411
82549SOL    HW149544  11.658  14.858   4.485
82549SOL    HW249545  11.670   0.034   4.348
82550SOL     OW49546   5.767   9.834   2.099
82550SOL    HW149547   5.750   9.919   2.058
82550SOL    HW249548   5.840   9.849   2.159
82551SOL     OW49549   1.917   6.487   6.140
82551SOL    HW149550   1.999   6.447   6.113
82551SOL    HW249551   1.859   6.478   6.065
82552SOL     OW49552   3.234  13.599  11.340
82552SOL    HW149553   3.301  13.647  11.290
82552SOL    HW249554   3.151  13.636  11.309
82553SOL     OW49555   2.309   5.842   4.456
82553SOL    HW149556   2.242   5.910   4.451
82553SOL    HW249557   2.260   5.760   4.451
82554SOL     OW49558  10.471  11.756  13.694
82554SOL    HW149559  10.547  11.704  13.667
82554SOL    HW249560  10.501  11.804  13.771
82555SOL     OW49561  13.859   9.304  11.328
82555SOL    HW149562  13.878   9.385  11.376
82555SOL    HW249563  13.817   9.247  11.393
82556SOL     OW49564   9.034   9.312   0.506
82556SOL    HW149565   8.982   9.391   0.519
82556SOL    HW249566   9.004   9.277   0.422
82557SOL     OW49567   2.493   0.907  10.267
82557SOL    HW149568   2.530   0.990  10.299
82557SOL    HW249569   2.536   0.893  10.183
82558SOL     OW49570  12.038  10.735   8.874
82558SOL    HW149571  11.966  10.698   8.926
82558SOL    HW249572  12.082  10.796   8.934
82559SOL     OW49573  10.798   6.752   7.891
82559SOL    HW149574  10.869   6.810   7.863
82559SOL    HW249575  10.738   6.809   7.938
82560SOL     OW49576   2.673  12.359  12.761
82560SOL    HW149577   2.736  12.332  12.693
82560SOL    HW249578   2.648  12.277  12.804
82561SOL     OW49579   7.754   1.823  12.036
82561SOL    HW149580   7.691   1.831  12.108
82561SOL    HW249581   7.739   1.736  12.000
82562SOL     OW49582   1.348   3.615   3.667
82562SOL    HW149583   1.261   3.579   3.653
82562SOL    HW249584   1.398   3.544   3.706
82563SOL     OW49585  11.748   7.397   7.730
82563SOL    HW149586  11.665   7.432   7.762
82563SOL    HW249587  11.792   7.365   7.809
82564SOL     OW49588   3.261   9.466  12.183
82564SOL    HW149589   3.289   9.384  12.224
82564SOL    HW249590   3.179   9.445  12.139
82565SOL     OW49591   4.607  12.736   9.343
82565SOL    HW149592   4.515  12.717   9.361
82565SOL    HW249593   4.634  12.670   9.280
82566SOL     OW49594  14.703  10.890   7.488
82566SOL    HW149595  14.680  10.866   7.397
82566SOL    HW249596  14.649  10.966   7.507
82567SOL     OW49597  11.631  10.720  11.675
82567SOL    HW149598  11.598  10.806  11.647
82567SOL    HW249599  11.714  10.711  11.628
82568SOL     OW49600  13.491   9.467   6.730
82568SOL    HW149601  13.482   9.541   6.790
82568SOL    HW249602  13.401   9.445   6.706
82569SOL     OW49603  12.068   1.055  13.814
82569SOL    HW149604  11.996   1.115  13.833
82569SOL    HW249605  12.029   0.989  13.756
82570SOL     OW49606   0.621   9.194  14.858
82570SOL    HW149607   0.687   9.146  14.809
82570SOL    HW249608   0.549   9.132  14.870
82571SOL     OW49609   8.053  12.606  12.533
82571SOL    HW149610   8.075  12.639  12.620
82571SOL    HW249611   8.127  12.549  12.510
82572SOL     OW49612  10.870   7.388  12.313
82572SOL    HW149613  10.844   7.390  12.221
82572SOL    HW249614  10.891   7.479  12.335
82573SOL     OW49615   2.092   0.915   4.247
82573SOL    HW149616   2.003   0.923   4.211
82573SOL    HW249617   2.103   0.992   4.302
82574SOL     OW49618   3.594   8.859   5.933
82574SOL    HW149619   3.511   8.907   5.932
82574SOL    HW249620   3.595   8.811   5.851
82575SOL     OW49621   3.074   6.722  10.024
82575SOL    HW149622   3.010   6.757   9.961
82575SOL    HW249623   3.053   6.766  10.106
82576SOL     OW49624  13.034  13.949   8.337
82576SOL    HW149625  13.114  13.980   8.294
82576SOL    HW249626  13.051  13.857   8.356
82577SOL     OW49627  14.787   9.398   3.142
82577SOL    HW149628  14.793   9.329   3.076
82577SOL    HW249629  14.828   9.474   3.102
82578SOL     OW49630   3.247  13.215   4.631
82578SOL    HW149631   3.163  13.255   4.610
82578SOL    HW249632   3.285  13.272   4.698
82579SOL     OW49633   1.307  14.264   1.563
82579SOL    HW149634   1.279  14.327   1.497
82579SOL    HW249635   1.295  14.179   1.522
82580SOL     OW49636  10.867   0.882  12.023
82580SOL    HW149637  10.962   0.873  12.025
82580SOL    HW249638  10.835   0.793  12.006
82581SOL     OW49639   4.985  11.781   5.781
82581SOL    HW149640   5.061  11.723   5.785
82581SOL    HW249641   4.918  11.729   5.737
82582SOL     OW49642   3.905   8.391   7.453
82582SOL    HW149643   3.906   8.339   7.533
82582SOL    HW249644   3.994   8.382   7.418
82583SOL     OW49645  10.707   7.200  14.869
82583SOL    HW149646  10.641   7.243  14.815
82583SOL    HW249647  10.686   7.107  14.862
82584SOL     OW49648   0.654   8.623   5.171
82584SOL    HW149649   0.615   8.682   5.236
82584SOL    HW249650   0.727   8.582   5.216
82585SOL     OW49651   5.201  13.044  11.481
82585SOL    HW149652   5.192  13.034  11.386
82585SOL    HW249653   5.121  13.005  11.517
82586SOL     OW49654   9.636  10.274   8.948
82586SOL    HW149655   9.613  10.364   8.922
82586SOL    HW249656   9.710  10.284   9.007
82587SOL     OW49657   2.669  14.294   1.585
82587SOL    HW149658   2.670  14.331   1.674
82587SOL    HW249659   2.760  14.302   1.556
82588SOL     OW49660  12.082   3.540  10.659
82588SOL    HW149661  12.034   3.476  10.712
82588SOL    HW249662  12.169   3.543  10.698
82589SOL     OW49663  13.218  11.920   3.062
82589SOL    HW149664  13.288  11.982   3.082
82589SOL    HW249665  13.185  11.892   3.147
82590SOL     OW49666  13.000   9.842  11.752
82590SOL    HW149667  12.962   9.884  11.829
82590SOL    HW249668  12.939   9.772  11.730
82591SOL     OW49669   0.213  10.272   4.788
82591SOL    HW149670   0.144  10.325   4.830
82591SOL    HW249671   0.247  10.217   4.858
82592SOL     OW49672   4.144   7.804   3.649
82592SOL    HW149673   4.193   7.786   3.729
82592SOL    HW249674   4.159   7.898   3.633
82593SOL     OW49675  11.666  11.872   6.716
82593SOL    HW149676  11.634  11.889   6.804
82593SOL    HW249677  11.759  11.850   6.728
82594SOL     OW49678   0.657   0.677   3.361
82594SOL    HW149679   0.641   0.584   3.347
82594SOL    HW249680   0.724   0.701   3.298
82595SOL     OW49681   9.894   0.921  11.334
82595SOL    HW149682   9.809   0.931  11.376
82595SOL    HW249683   9.899   0.995  11.273
82596SOL     OW49684  11.093  12.374  10.100
82596SOL    HW149685  11.106  12.433  10.174
82596SOL    HW249686  11.181  12.340  10.081
82597SOL     OW49687   9.712   8.452   7.000
82597SOL    HW149688   9.621   8.479   7.007
82597SOL    HW249689   9.728   8.446   6.905
82598SOL     OW49690  12.389   5.812   5.850
82598SOL    HW149691  12.475   5.839   5.817
82598SOL    HW249692  12.371   5.871   5.922
82599SOL     OW49693   8.832  13.881   3.118
82599SOL    HW149694   8.924  13.857   3.105
82599SOL    HW249695   8.800  13.816   3.181
82600SOL     OW49696   7.276  11.335   3.251
82600SOL    HW149697   7.262  11.424   3.284
82600SOL    HW249698   7.349  11.343   3.190
82601SOL     OW49699  13.924   2.470   2.462
82601SOL    HW149700  13.858   2.489   2.396
82601SOL    HW249701  13.952   2.555   2.494
82602SOL     OW49702   1.881   6.328  12.213
82602SOL    HW149703   1.875   6.419  12.239
82602SOL    HW249704   1.943   6.289  12.274
82603SOL     OW49705   7.928   2.756   2.670
82603SOL    HW149706   7.979   2.678   2.644
82603SOL    HW249707   7.992   2.827   2.667
82604SOL     OW49708  10.114   2.173   1.664
82604SOL    HW149709  10.116   2.106   1.595
82604SOL    HW249710  10.155   2.250   1.623
82605SOL     OW49711  13.131   4.879   6.012
82605SOL    HW149712  13.075   4.934   6.067
82605SOL    HW249713  13.093   4.886   5.924
82606SOL     OW49714   1.874   2.662   4.242
82606SOL    HW149715   1.779   2.652   4.249
82606SOL    HW249716   1.896   2.729   4.306
82607SOL     OW49717  12.248  11.338   6.410
82607SOL    HW149718  12.197  11.358   6.332
82607SOL    HW249719  12.334  11.377   6.392
82608SOL     OW49720   6.043  10.268  10.278
82608SOL    HW149721   5.988  10.189  10.283
82608SOL    HW249722   6.086  10.262  10.193
82609SOL     OW49723   9.786   0.050   5.403
82609SOL    HW149724   9.753   0.138   5.390
82609SOL    HW249725   9.708  14.884   5.418
82610SOL     OW49726   5.880   9.419  11.811
82610SOL    HW149727   5.888   9.514  11.804
82610SOL    HW249728   5.819   9.405  11.883
82611SOL     OW49729   3.271  12.793   0.959
82611SOL    HW149730   3.309  12.758   1.039
82611SOL    HW249731   3.328  12.866   0.935
82612SOL     OW49732  10.339  12.635   5.790
82612SOL    HW149733  10.306  12.646   5.879
82612SOL    HW249734  10.412  12.697   5.783
82613SOL     OW49735  12.444   4.267   8.061
82613SOL    HW149736  12.368   4.242   8.008
82613SOL    HW249737  12.441   4.208   8.136
82614SOL     OW49738   3.169   2.296   0.870
82614SOL    HW149739   3.202   2.382   0.844
82614SOL    HW249740   3.230   2.266   0.937
82615SOL     OW49741   8.407   6.704   8.618
82615SOL    HW149742   8.479   6.659   8.572
82615SOL    HW249743   8.410   6.793   8.583
82616SOL     OW49744   2.295   2.193  10.642
82616SOL    HW149745   2.241   2.114  10.641
82616SOL    HW249746   2.263   2.245  10.568
82617SOL     OW49747  10.794  10.231   2.996
82617SOL    HW149748  10.804  10.307   2.939
82617SOL    HW249749  10.844  10.252   3.075
82618SOL     OW49750  13.706   4.808   7.879
82618SOL    HW149751  13.726   4.753   7.954
82618SOL    HW249752  13.716   4.898   7.911
82619SOL     OW49753   6.626   3.718   5.910
82619SOL    HW149754   6.617   3.807   5.877
82619SOL    HW249755   6.539   3.694   5.941
82620SOL     OW49756   9.945   6.386   8.779
82620SOL    HW149757   9.918   6.335   8.702
82620SOL    HW249758  10.040   6.391   8.772
82621SOL     OW49759   6.762   4.793   1.644
82621SOL    HW149760   6.765   4.752   1.558
82621SOL    HW249761   6.670   4.785   1.671
82622SOL     OW49762  10.715   2.542  14.339
82622SOL    HW149763  10.769   2.530  14.417
82622SOL    HW249764  10.755   2.615  14.293
82623SOL     OW49765   2.955   8.296   3.378
82623SOL    HW149766   2.860   8.291   3.372
82623SOL    HW249767   2.986   8.253   3.298
82624SOL     OW49768  10.435   6.964   6.350
82624SOL    HW149769  10.445   7.059   6.349
82624SOL    HW249770  10.427   6.942   6.443
82625SOL     OW49771   8.602  12.851  13.427
82625SOL    HW149772   8.547  12.922  13.459
82625SOL    HW249773   8.668  12.895  13.374
82626SOL     OW49774   8.986   7.734   3.048
82626SOL    HW149775   8.974   7.653   2.999
82626SOL    HW249776   8.964   7.804   2.986
82627SOL     OW49777  14.118   7.007   7.273
82627SOL    HW149778  14.039   6.996   7.221
82627SOL    HW249779  14.088   7.048   7.354
82628SOL     OW49780   7.360  10.862  14.006
82628SOL    HW149781   7.342  10.823  14.092
82628SOL    HW249782   7.372  10.955  14.024
82629SOL     OW49783   1.938   7.888  13.962
82629SOL    HW149784   1.879   7.882  13.887
82629SOL    HW249785   2.003   7.953  13.936
82630SOL     OW49786   9.838   5.092   6.030
82630SOL    HW149787   9.757   5.139   6.008
82630SOL    HW249788   9.857   5.119   6.119
82631SOL     OW49789   2.452  12.892   8.833
82631SOL    HW149790   2.542  12.877   8.859
82631SOL    HW249791   2.448  12.866   8.741
82632SOL     OW49792   8.530   0.531   0.191
82632SOL    HW149793   8.626   0.530   0.187
82632SOL    HW249794   8.503   0.470   0.122
82633SOL     OW49795  10.425   1.468   1.989
82633SOL    HW149796  10.481   1.521   2.046
82633SOL    HW249797  10.484   1.403   1.951
82634SOL     OW49798   5.443   7.715   0.465
82634SOL    HW149799   5.446   7.664   0.384
82634SOL    HW249800   5.520   7.773   0.459
82635SOL     OW49801   1.273   0.797  14.181
82635SOL    HW149802   1.358   0.799  14.226
82635SOL    HW249803   1.210   0.820  14.249
82636SOL     OW49804  11.453  14.344  13.804
82636SOL    HW149805  11.425  14.428  13.841
82636SOL    HW249806  11.372  14.293  13.800
82637SOL     OW49807   2.503   6.833  12.036
82637SOL    HW149808   2.592   6.863  12.021
82637SOL    HW249809   2.475   6.879  12.115
82638SOL     OW49810  10.844  14.507   9.002
82638SOL    HW149811  10.938  14.496   9.018
82638SOL    HW249812  10.809  14.418   9.010
82639SOL     OW49813   3.093  13.482   4.330
82639SOL    HW149814   3.051  13.420   4.270
82639SOL    HW249815   3.025  13.545   4.352
82640SOL     OW49816   2.248  12.019  10.712
82640SOL    HW149817   2.266  12.097  10.765
82640SOL    HW249818   2.317  11.957  10.738
82641SOL     OW49819  11.610   4.318  13.323
82641SOL    HW149820  11.593   4.229  13.353
82641SOL    HW249821  11.646   4.307  13.235
82642SOL     OW49822   7.324  11.051   5.069
82642SOL    HW149823   7.317  10.998   4.990
82642SOL    HW249824   7.387  11.003   5.124
82643SOL     OW49825  10.363   6.843   9.141
82643SOL    HW149826  10.333   6.816   9.228
82643SOL    HW249827  10.451   6.804   9.133
82644SOL     OW49828  10.036  12.916   3.958
82644SOL    HW149829   9.954  12.886   3.997
82644SOL    HW249830  10.017  13.006   3.929
82645SOL     OW49831   2.061  13.435   9.211
82645SOL    HW149832   2.114  13.365   9.251
82645SOL    HW249833   2.087  13.514   9.258
82646SOL     OW49834  14.711  13.751  12.452
82646SOL    HW149835  14.663  13.674  12.484
82646SOL    HW249836  14.748  13.722  12.368
82647SOL     OW49837  10.809  11.409  12.729
82647SOL    HW149838  10.826  11.385  12.638
82647SOL    HW249839  10.788  11.327  12.772
82648SOL     OW49840   8.778   3.767   7.261
82648SOL    HW149841   8.789   3.828   7.188
82648SOL    HW249842   8.684   3.749   7.262
82649SOL     OW49843  11.487   0.537  10.515
82649SOL    HW149844  11.493   0.556  10.609
82649SOL    HW249845  11.406   0.487  10.507
82650SOL     OW49846  11.099   1.410   6.735
82650SOL    HW149847  11.164   1.442   6.797
82650SOL    HW249848  11.050   1.343   6.783
82651SOL     OW49849   1.951  12.915   2.694
82651SOL    HW149850   2.016  12.857   2.735
82651SOL    HW249851   1.903  12.858   2.633
82652SOL     OW49852   1.578  14.196   4.808
82652SOL    HW149853   1.574  14.237   4.722
82652SOL    HW249854   1.666  14.158   4.812
82653SOL     OW49855   8.029   1.329   0.610
82653SOL    HW149856   7.994   1.418   0.599
82653SOL    HW249857   8.110   1.329   0.559
82654SOL     OW49858   6.411  10.623   2.361
82654SOL    HW149859   6.481  10.607   2.298
82654SOL    HW249860   6.403  10.718   2.366
82655SOL     OW49861  10.575   7.206  11.584
82655SOL    HW149862  10.601   7.296  11.566
82655SOL    HW249863  10.635   7.153  11.531
82656SOL     OW49864   0.620   4.675   6.839
82656SOL    HW149865   0.710   4.667   6.871
82656SOL    HW249866   0.625   4.648   6.747
82657SOL     OW49867  14.451   1.943   6.141
82657SOL    HW149868  14.444   2.008   6.211
82657SOL    HW249869  14.526   1.889   6.166
82658SOL     OW49870  13.596   3.167   6.763
82658SOL    HW149871  13.540   3.177   6.686
82658SOL    HW249872  13.555   3.097   6.814
82659SOL     OW49873  14.695   2.708  11.397
82659SOL    HW149874  14.655   2.734  11.314
82659SOL    HW249875  14.701   2.789  11.447
82660SOL     OW49876   0.148  13.407   8.422
82660SOL    HW149877   0.078  13.472   8.430
82660SOL    HW249878   0.147  13.381   8.330
82661SOL     OW49879   1.890   3.670   1.056
82661SOL    HW149880   1.802   3.673   1.016
82661SOL    HW249881   1.895   3.584   1.097
82662SOL     OW49882  12.456   0.432   5.751
82662SOL    HW149883  12.431   0.494   5.819
82662SOL    HW249884  12.396   0.358   5.763
82663SOL     OW49885   6.239   9.509  13.120
82663SOL    HW149886   6.249   9.477  13.030
82663SOL    HW249887   6.319   9.560  13.136
82664SOL     OW49888   4.268  12.998   5.392
82664SOL    HW149889   4.254  12.976   5.300
82664SOL    HW249890   4.290  13.092   5.390
82665SOL     OW49891   3.932  10.304  14.489
82665SOL    HW149892   3.926  10.222  14.439
82665SOL    HW249893   3.882  10.286  14.569
82666SOL     OW49894  13.396   3.051   0.558
82666SOL    HW149895  13.357   3.001   0.487
82666SOL    HW249896  13.358   3.138   0.550
82667SOL     OW49897   9.097   2.478  11.146
82667SOL    HW149898   9.155   2.404  11.134
82667SOL    HW249899   9.082   2.512  11.058
82668SOL     OW49900  12.343  10.670   6.009
82668SOL    HW149901  12.252  10.682   6.035
82668SOL    HW249902  12.370  10.756   5.974
82669SOL     OW49903   9.156  14.716   0.157
82669SOL    HW149904   9.211  14.729   0.235
82669SOL    HW249905   9.068  14.738   0.187
82670SOL     OW49906   4.067   5.454   6.870
82670SOL    HW149907   4.129   5.382   6.860
82670SOL    HW249908   3.986   5.412   6.898
82671SOL     OW49909   1.521   5.238  11.982
82671SOL    HW149910   1.520   5.144  11.965
82671SOL    HW249911   1.542   5.245  12.075
82672SOL     OW49912  10.986  13.538   4.706
82672SOL    HW149913  10.912  13.590   4.674
82672SOL    HW249914  10.995  13.466   4.644
82673SOL     OW49915   0.338   6.766   4.869
82673SOL    HW149916   0.391   6.711   4.812
82673SOL    HW249917   0.272   6.805   4.811
82674SOL     OW49918   3.077   8.164  10.943
82674SOL    HW149919   3.145   8.230  10.955
82674SOL    HW249920   3.112   8.106  10.875
82675SOL     OW49921   0.572  13.607   3.637
82675SOL    HW149922   0.509  13.634   3.570
82675SOL    HW249923   0.654  13.649   3.612
82676SOL     OW49924   2.366   0.461  12.082
82676SOL    HW149925   2.335   0.537  12.131
82676SOL    HW249926   2.295   0.443  12.020
82677SOL     OW49927   4.296  13.381   0.522
82677SOL    HW149928   4.340  13.349   0.601
82677SOL    HW249929   4.367  13.393   0.458
82678SOL     OW49930  12.118   6.609  13.617
82678SOL    HW149931  12.193   6.591  13.674
82678SOL    HW249932  12.078   6.523  13.603
82679SOL     OW49933  14.435   8.640  12.892
82679SOL    HW149934  14.489   8.648  12.971
82679SOL    HW249935  14.490   8.592  12.830
82680SOL     OW49936   8.845  12.263  10.092
82680SOL    HW149937   8.868  12.274  10.000
82680SOL    HW249938   8.920  12.296  10.140
82681SOL     OW49939  12.551  13.217   2.266
82681SOL    HW149940  12.489  13.171   2.209
82681SOL    HW249941  12.634  13.213   2.218
82682SOL     OW49942   1.448   9.832   1.560
82682SOL    HW149943   1.530   9.854   1.604
82682SOL    HW249944   1.410   9.763   1.615
82683SOL     OW49945   4.293  12.863  13.250
82683SOL    HW149946   4.282  12.776  13.213
82683SOL    HW249947   4.278  12.922  13.176
82684SOL     OW49948   7.994  14.156   3.766
82684SOL    HW149949   7.959  14.190   3.849
82684SOL    HW249950   7.925  14.172   3.702
82685SOL     OW49951  12.702   8.467   9.242
82685SOL    HW149952  12.727   8.471   9.150
82685SOL    HW249953  12.641   8.393   9.247
82686SOL     OW49954   1.096   2.577   5.983
82686SOL    HW149955   1.168   2.569   5.920
82686SOL    HW249956   1.031   2.514   5.953
82687SOL     OW49957   1.635   6.648   1.172
82687SOL    HW149958   1.602   6.701   1.099
82687SOL    HW249959   1.730   6.659   1.168
82688SOL     OW49960  10.087   3.364   8.959
82688SOL    HW149961  10.054   3.384   8.871
82688SOL    HW249962  10.021   3.399   9.018
82689SOL     OW49963  10.272   8.378   1.709
82689SOL    HW149964  10.343   8.349   1.652
82689SOL    HW249965  10.265   8.472   1.693
82690SOL     OW49966   3.388  14.436   4.968
82690SOL    HW149967   3.326  14.498   4.929
82690SOL    HW249968   3.430  14.395   4.892
82691SOL     OW49969  10.426   0.071  14.520
82691SOL    HW149970  10.456   0.090  14.609
82691SOL    HW249971  10.336   0.041  14.530
82692SOL     OW49972  13.310   3.361   6.562
82692SOL    HW149973  13.277   3.335   6.648
82692SOL    HW249974  13.346   3.449   6.577
82693SOL     OW49975   2.096   8.266   1.555
82693SOL    HW149976   2.004   8.278   1.534
82693SOL    HW249977   2.110   8.171   1.548
82694SOL     OW49978  13.639  13.193   2.225
82694SOL    HW149979  13.563  13.146   2.262
82694SOL    HW249980  13.680  13.234   2.301
82695SOL     OW49981  10.024   2.145  11.917
82695SOL    HW149982  10.035   2.070  11.974
82695SOL    HW249983   9.953   2.196  11.958
82696SOL     OW49984  12.752   9.447   8.300
82696SOL    HW149985  12.821   9.483   8.356
82696SOL    HW249986  12.798   9.388   8.241
82697SOL     OW49987   0.665  14.662   9.112
82697SOL    HW149988   0.588  14.617   9.146
82697SOL    HW249989   0.701  14.602   9.046
82698SOL     OW49990   3.605  10.929  13.241
82698SOL    HW149991   3.658  11.005  13.264
82698SOL    HW249992   3.518  10.948  13.274
82699SOL     OW49993  12.821   2.495   0.011
82699SOL    HW149994  12.739   2.447   0.022
82699SOL    HW249995  12.796   2.579  14.860
82700SOL     OW49996  11.754   3.516  12.822
82700SOL    HW149997  11.707   3.486  12.745
82700SOL    HW249998  11.694   3.501  12.895
82701SOL     OW49999  11.669   0.375  11.785
82701SOL    HW150000  11.599   0.362  11.848
82701SOL    HW250001  11.654   0.308  11.718
82702SOL     OW50002  11.207   7.738   2.562
82702SOL    HW150003  11.289   7.717   2.609
82702SOL    HW250004  11.153   7.660   2.573
82703SOL     OW50005  14.850   6.094   6.081
82703SOL    HW150006  14.840   6.069   6.173
82703SOL    HW250007  14.810   6.180   6.075
82704SOL     OW50008   2.344   4.687   9.264
82704SOL    HW150009   2.343   4.778   9.235
82704SOL    HW250010   2.287   4.685   9.340
82705SOL     OW50011  14.035   4.322  10.885
82705SOL    HW150012  14.019   4.336  10.978
82705SOL    HW250013  13.949   4.304  10.848
82706SOL     OW50014   7.205  12.162   6.705
82706SOL    HW150015   7.173  12.102   6.773
82706SOL    HW250016   7.140  12.155   6.635
82707SOL     OW50017  13.995   0.833   8.937
82707SOL    HW150018  14.042   0.826   8.854
82707SOL    HW250019  13.908   0.865   8.911
82708SOL     OW50020  14.644  13.644   7.091
82708SOL    HW150021  14.576  13.626   7.157
82708SOL    HW250022  14.597  13.642   7.007
82709SOL     OW50023   5.563   7.901   3.537
82709SOL    HW150024   5.529   7.814   3.558
82709SOL    HW250025   5.566   7.903   3.441
82710SOL     OW50026   5.715   0.582  14.878
82710SOL    HW150027   5.717   0.547   0.079
82710SOL    HW250028   5.688   0.508  14.824
82711SOL     OW50029   3.913  12.174   1.442
82711SOL    HW150030   4.008  12.164   1.451
82711SOL    HW250031   3.894  12.144   1.353
82712SOL     OW50032   6.660  13.779   7.942
82712SOL    HW150033   6.720  13.753   7.873
82712SOL    HW250034   6.707  13.847   7.991
82713SOL     OW50035   0.072  11.378  10.340
82713SOL    HW150036  14.873  11.349  10.310
82713SOL    HW250037   0.062  11.388  10.435
82714SOL     OW50038   8.647  10.660   1.172
82714SOL    HW150039   8.585  10.684   1.241
82714SOL    HW250040   8.680  10.744   1.140
82715SOL     OW50041  14.002  11.479   6.851
82715SOL    HW150042  13.925  11.471   6.794
82715SOL    HW250043  13.986  11.559   6.901
82716SOL     OW50044   4.319  13.462   1.693
82716SOL    HW150045   4.312  13.555   1.713
82716SOL    HW250046   4.389  13.430   1.750
82717SOL     OW50047   5.898   3.905   6.961
82717SOL    HW150048   5.978   3.877   6.916
82717SOL    HW250049   5.846   3.825   6.969
82718SOL     OW50050   9.064   4.114   0.117
82718SOL    HW150051   9.022   4.119   0.202
82718SOL    HW250052   9.102   4.026   0.114
82719SOL     OW50053   5.874   4.113   2.509
82719SOL    HW150054   5.781   4.100   2.525
82719SOL    HW250055   5.882   4.205   2.484
82720SOL     OW50056   6.551   0.586   7.362
82720SOL    HW150057   6.620   0.639   7.403
82720SOL    HW250058   6.598   0.525   7.306
82721SOL     OW50059  11.406   6.252   7.469
82721SOL    HW150060  11.446   6.338   7.471
82721SOL    HW250061  11.319   6.265   7.507
82722SOL     OW50062   6.851   1.510   3.333
82722SOL    HW150063   6.811   1.542   3.253
82722SOL    HW250064   6.923   1.454   3.304
82723SOL     OW50065   2.865  14.399   7.897
82723SOL    HW150066   2.920  14.321   7.892
82723SOL    HW250067   2.845  14.409   7.990
82724SOL     OW50068   9.713   2.468   7.571
82724SOL    HW150069   9.679   2.380   7.553
82724SOL    HW250070   9.795   2.472   7.522
82725SOL     OW50071  12.206   5.316   7.701
82725SOL    HW150072  12.164   5.233   7.678
82725SOL    HW250073  12.300   5.297   7.701
82726SOL     OW50074   8.913  13.873   1.913
82726SOL    HW150075   8.998  13.845   1.878
82726SOL    HW250076   8.926  13.877   2.007
82727SOL     OW50077  11.537   4.303  11.933
82727SOL    HW150078  11.570   4.230  11.880
82727SOL    HW250079  11.461   4.268  11.979
82728SOL     OW50080   9.021  14.324   5.736
82728SOL    HW150081   8.989  14.239   5.708
82728SOL    HW250082   9.045  14.312   5.828
82729SOL     OW50083   1.562   0.384   6.620
82729SOL    HW150084   1.576   0.479   6.628
82729SOL    HW250085   1.570   0.351   6.709
82730SOL     OW50086   4.694   3.807   6.880
82730SOL    HW150087   4.687   3.814   6.785
82730SOL    HW250088   4.741   3.886   6.907
82731SOL     OW50089   8.817   7.585   9.830
82731SOL    HW150090   8.774   7.523   9.889
82731SOL    HW250091   8.757   7.659   9.825
82732SOL     OW50092  10.030   0.435   0.883
82732SOL    HW150093   9.967   0.371   0.917
82732SOL    HW250094  10.110   0.420   0.933
82733SOL     OW50095  13.231  13.564  14.759
82733SOL    HW150096  13.253  13.566  14.852
82733SOL    HW250097  13.199  13.652  14.741
82734SOL     OW50098   2.944  13.801   6.420
82734SOL    HW150099   2.963  13.822   6.511
82734SOL    HW250100   2.857  13.837   6.405
82735SOL     OW50101   3.722   2.417  10.607
82735SOL    HW150102   3.698   2.509  10.598
82735SOL    HW250103   3.761   2.394  10.523
82736SOL     OW50104  12.024  10.347   9.397
82736SOL    HW150105  12.016  10.443   9.391
82736SOL    HW250106  12.071  10.323   9.317
82737SOL     OW50107   3.002  13.937   4.287
82737SOL    HW150108   3.091  13.956   4.315
82737SOL    HW250109   2.952  14.015   4.311
82738SOL     OW50110   9.773  14.567  11.373
82738SOL    HW150111   9.753  14.660  11.360
82738SOL    HW250112   9.707  14.521  11.321
82739SOL     OW50113   7.913   5.221   0.073
82739SOL    HW150114   8.004   5.253   0.078
82739SOL    HW250115   7.912   5.167  14.881
82740SOL     OW50116   5.483  13.097   3.109
82740SOL    HW150117   5.448  13.135   3.029
82740SOL    HW250118   5.491  13.004   3.090
82741SOL     OW50119   3.669  14.646  14.318
82741SOL    HW150120   3.667  14.741  14.323
82741SOL    HW250121   3.702  14.627  14.230
82742SOL     OW50122  14.254  12.680  12.364
82742SOL    HW150123  14.331  12.628  12.342
82742SOL    HW250124  14.182  12.636  12.319
82743SOL     OW50125   0.153   1.074   1.249
82743SOL    HW150126   0.205   0.994   1.234
82743SOL    HW250127   0.209   1.145   1.218
82744SOL     OW50128  11.238   2.989  10.117
82744SOL    HW150129  11.298   3.034  10.176
82744SOL    HW250130  11.276   2.902  10.106
82745SOL     OW50131  11.494  10.951   7.930
82745SOL    HW150132  11.531  10.883   7.986
82745SOL    HW250133  11.427  10.993   7.984
82746SOL     OW50134   5.644  10.733   2.394
82746SOL    HW150135   5.584  10.771   2.330
82746SOL    HW250136   5.705  10.803   2.415
82747SOL     OW50137   1.334   9.130   3.674
82747SOL    HW150138   1.278   9.204   3.653
82747SOL    HW250139   1.417   9.169   3.703
82748SOL     OW50140  14.464   2.659  10.579
82748SOL    HW150141  14.522   2.731  10.555
82748SOL    HW250142  14.521   2.583  10.584
82749SOL     OW50143  11.623  11.274  14.751
82749SOL    HW150144  11.573  11.314  14.822
82749SOL    HW250145  11.707  11.320  14.750
82750SOL     OW50146  13.647   2.023   2.086
82750SOL    HW150147  13.571   1.965   2.091
82750SOL    HW250148  13.695   2.007   2.168
82751SOL     OW50149  11.369   1.753   7.427
82751SOL    HW150150  11.341   1.678   7.480
82751SOL    HW250151  11.317   1.826   7.459
82752SOL     OW50152  12.040   6.121   8.042
82752SOL    HW150153  11.982   6.064   8.091
82752SOL    HW250154  11.983   6.165   7.978
82753SOL     OW50155  12.254   5.155   6.206
82753SOL    HW150156  12.274   5.069   6.169
82753SOL    HW250157  12.303   5.216   6.152
82754SOL     OW50158   8.666   4.423   4.581
82754SOL    HW150159   8.644   4.390   4.668
82754SOL    HW250160   8.687   4.516   4.594
82755SOL     OW50161  14.059  11.976  11.588
82755SOL    HW150162  14.114  12.037  11.540
82755SOL    HW250163  14.034  11.910  11.524
82756SOL     OW50164   4.454  11.679   9.992
82756SOL    HW150165   4.521  11.651   9.929
82756SOL    HW250166   4.482  11.767  10.019
82757SOL     OW50167   9.979  14.259   7.953
82757SOL    HW150168   9.888  14.282   7.972
82757SOL    HW250169   9.981  14.242   7.859
82758SOL     OW50170   0.634   3.289   6.228
82758SOL    HW150171   0.620   3.213   6.284
82758SOL    HW250172   0.546   3.322   6.210
82759SOL     OW50173  11.481   8.681   2.791
82759SOL    HW150174  11.483   8.731   2.872
82759SOL    HW250175  11.425   8.606   2.810
82760SOL     OW50176  13.429   4.989  12.053
82760SOL    HW150177  13.446   4.995  12.147
82760SOL    HW250178  13.500   4.934  12.020
82761SOL     OW50179   7.546  10.672  10.350
82761SOL    HW150180   7.464  10.623  10.359
82761SOL    HW250181   7.573  10.689  10.440
82762SOL     OW50182  14.645  14.582  12.998
82762SOL    HW150183  14.552  14.595  12.977
82762SOL    HW250184  14.648  14.586  13.093
82763SOL     OW50185  10.226   2.072   3.347
82763SOL    HW150186  10.246   2.098   3.257
82763SOL    HW250187  10.302   2.023   3.375
82764SOL     OW50188   5.691   0.028   3.465
82764SOL    HW150189   5.681   0.118   3.497
82764SOL    HW250190   5.656  14.861   3.536
82765SOL     OW50191   2.931   4.754   4.673
82765SOL    HW150192   2.844   4.795   4.666
82765SOL    HW250193   2.992   4.827   4.675
82766SOL     OW50194  14.534   0.461   5.751
82766SOL    HW150195  14.444   0.437   5.732
82766SOL    HW250196  14.570   0.387   5.799
82767SOL     OW50197   1.844  10.961   6.166
82767SOL    HW150198   1.819  10.954   6.074
82767SOL    HW250199   1.940  10.964   6.164
82768SOL     OW50200   0.398   1.427   2.165
82768SOL    HW150201   0.303   1.427   2.171
82768SOL    HW250202   0.419   1.503   2.111
82769SOL     OW50203   0.268  11.128  13.737
82769SOL    HW150204   0.318  11.195  13.784
82769SOL    HW250205   0.324  11.106  13.662
82770SOL     OW50206   4.167   7.270   0.106
82770SOL    HW150207   4.181   7.292   0.014
82770SOL    HW250208   4.249   7.294   0.149
82771SOL     OW50209   1.170   6.132   9.552
82771SOL    HW150210   1.189   6.225   9.554
82771SOL    HW250211   1.155   6.108   9.643
82772SOL     OW50212   0.471   9.001  12.404
82772SOL    HW150213   0.403   9.068  12.405
82772SOL    HW250214   0.523   9.020  12.326
82773SOL     OW50215   7.976  10.703   2.711
82773SOL    HW150216   8.049  10.660   2.754
82773SOL    HW250217   7.944  10.639   2.648
82774SOL     OW50218  11.427   1.872   2.529
82774SOL    HW150219  11.435   1.960   2.493
82774SOL    HW250220  11.373   1.883   2.608
82775SOL     OW50221   2.715  13.345  10.407
82775SOL    HW150222   2.807  13.319  10.402
82775SOL    HW250223   2.667  13.270  10.372
82776SOL     OW50224   9.670  11.986   0.904
82776SOL    HW150225   9.715  12.066   0.929
82776SOL    HW250226   9.654  11.996   0.810
82777SOL     OW50227  14.108   9.306   3.405
82777SOL    HW150228  14.038   9.250   3.437
82777SOL    HW250229  14.179   9.296   3.469
82778SOL     OW50230   5.409   9.199  11.971
82778SOL    HW150231   5.472   9.155  12.029
82778SOL    HW250232   5.361   9.128  11.929
82779SOL     OW50233   1.758  10.855   3.459
82779SOL    HW150234   1.666  10.847   3.486
82779SOL    HW250235   1.767  10.947   3.436
82780SOL     OW50236   4.457   6.405   5.405
82780SOL    HW150237   4.472   6.311   5.407
82780SOL    HW250238   4.517   6.437   5.337
82781SOL     OW50239   2.603   5.195   6.573
82781SOL    HW150240   2.645   5.172   6.656
82781SOL    HW250241   2.595   5.290   6.575
82782SOL     OW50242   8.938  10.115   8.757
82782SOL    HW150243   9.023  10.072   8.755
82782SOL    HW250244   8.883  10.065   8.697
82783SOL     OW50245   4.149   5.014   2.462
82783SOL    HW150246   4.122   4.933   2.504
82783SOL    HW250247   4.213   4.987   2.396
82784SOL     OW50248  14.394  14.682  12.607
82784SOL    HW150249  14.314  14.662  12.558
82784SOL    HW250250  14.464  14.643  12.555
82785SOL     OW50251   4.077   0.496   4.221
82785SOL    HW150252   4.155   0.551   4.228
82785SOL    HW250253   4.062   0.486   4.127
82786SOL     OW50254   3.861  11.451   7.457
82786SOL    HW150255   3.843  11.466   7.550
82786SOL    HW250256   3.937  11.506   7.437
82787SOL     OW50257   1.028   6.631   6.850
82787SOL    HW150258   1.070   6.715   6.870
82787SOL    HW250259   1.059   6.610   6.762
82788SOL     OW50260  11.339   5.588   6.766
82788SOL    HW150261  11.324   5.650   6.837
82788SOL    HW250262  11.413   5.625   6.718
82789SOL     OW50263  12.630   1.749  14.278
82789SOL    HW150264  12.661   1.822  14.224
82789SOL    HW250265  12.703   1.687  14.278
82790SOL     OW50266  11.906   8.831   9.682
82790SOL    HW150267  11.838   8.802   9.620
82790SOL    HW250268  11.886   8.923   9.699
82791SOL     OW50269   3.032   4.636   2.582
82791SOL    HW150270   3.056   4.590   2.501
82791SOL    HW250271   3.086   4.714   2.582
82792SOL     OW50272   7.710  10.771   0.194
82792SOL    HW150273   7.765  10.704   0.154
82792SOL    HW250274   7.624  10.730   0.204
82793SOL     OW50275   2.384   2.749   5.167
82793SOL    HW150276   2.373   2.737   5.072
82793SOL    HW250277   2.391   2.844   5.178
82794SOL     OW50278   0.704   9.974   2.933
82794SOL    HW150279   0.612   9.965   2.907
82794SOL    HW250280   0.739   9.885   2.928
82795SOL     OW50281  12.920  10.466   2.028
82795SOL    HW150282  12.994  10.405   2.024
82795SOL    HW250283  12.934  10.516   2.108
82796SOL     OW50284   0.577   4.587   0.549
82796SOL    HW150285   0.661   4.632   0.556
82796SOL    HW250286   0.560   4.583   0.455
82797SOL     OW50287   3.744   6.837   4.951
82797SOL    HW150288   3.776   6.903   4.889
82797SOL    HW250289   3.757   6.876   5.037
82798SOL     OW50290   2.354  13.786   6.764
82798SOL    HW150291   2.401  13.703   6.761
82798SOL    HW250292   2.261  13.762   6.768
82799SOL     OW50293   7.114   4.180   8.716
82799SOL    HW150294   7.181   4.165   8.649
82799SOL    HW250295   7.059   4.249   8.679
82800SOL     OW50296   9.125   0.857  14.024
82800SOL    HW150297   9.213   0.891  14.039
82800SOL    HW250298   9.115   0.788  14.089
82801SOL     OW50299   3.408   6.333   5.012
82801SOL    HW150300   3.322   6.327   5.055
82801SOL    HW250301   3.471   6.330   5.084
82802SOL     OW50302   2.411   4.509   3.192
82802SOL    HW150303   2.376   4.519   3.103
82802SOL    HW250304   2.360   4.571   3.245
82803SOL     OW50305  10.480  12.076  13.150
82803SOL    HW150306  10.552  12.027  13.111
82803SOL    HW250307  10.496  12.073  13.244
82804SOL     OW50308   5.305  12.685   6.655
82804SOL    HW150309   5.313  12.699   6.561
82804SOL    HW250310   5.287  12.772   6.691
82805SOL     OW50311   1.890   2.505   3.730
82805SOL    HW150312   1.844   2.576   3.774
82805SOL    HW250313   1.983   2.523   3.745
82806SOL     OW50314   7.854   7.560  14.506
82806SOL    HW150315   7.926   7.585  14.449
82806SOL    HW250316   7.865   7.615  14.584
82807SOL     OW50317   7.358  14.795   0.505
82807SOL    HW150318   7.413  14.800   0.583
82807SOL    HW250319   7.269  14.795   0.539
82808SOL     OW50320   8.235   0.633  10.972
82808SOL    HW150321   8.273   0.647  10.886
82808SOL    HW250322   8.281   0.693  11.030
82809SOL     OW50323   3.787   7.852   3.043
82809SOL    HW150324   3.869   7.808   3.066
82809SOL    HW250325   3.759   7.811   2.962
82810SOL     OW50326   4.691  14.222   1.751
82810SOL    HW150327   4.775  14.195   1.787
82810SOL    HW250328   4.658  14.288   1.812
82811SOL     OW50329   6.382  10.926  13.757
82811SOL    HW150330   6.327  10.989  13.805
82811SOL    HW250331   6.414  10.866  13.824
82812SOL     OW50332  10.251   6.889  10.757
82812SOL    HW150333  10.164   6.929  10.761
82812SOL    HW250334  10.243   6.822  10.688
82813SOL     OW50335   0.169  13.488   9.998
82813SOL    HW150336   0.161  13.561   9.937
82813SOL    HW250337   0.246  13.440   9.968
82814SOL     OW50338   9.812   9.900   0.497
82814SOL    HW150339   9.719   9.880   0.489
82814SOL    HW250340   9.856   9.823   0.462
82815SOL     OW50341   1.230  11.837  12.543
82815SOL    HW150342   1.316  11.801  12.563
82815SOL    HW250343   1.194  11.777  12.477
82816SOL     OW50344  11.603   6.859  13.852
82816SOL    HW150345  11.661   6.911  13.796
82816SOL    HW250346  11.659   6.825  13.921
82817SOL     OW50347  13.224   8.116  13.626
82817SOL    HW150348  13.208   8.036  13.576
82817SOL    HW250349  13.137   8.151  13.644
82818SOL     OW50350  12.694   5.071   5.631
82818SOL    HW150351  12.662   4.987   5.664
82818SOL    HW250352  12.728   5.051   5.544
82819SOL     OW50353  10.098   2.323   8.484
82819SOL    HW150354  10.118   2.230   8.474
82819SOL    HW250355  10.014   2.334   8.440
82820SOL     OW50356   7.926  11.731  14.881
82820SOL    HW150357   7.857  11.676  14.843
82820SOL    HW250358   8.003  11.713  14.828
82821SOL     OW50359   9.159   9.926   1.402
82821SOL    HW150360   9.121   9.848   1.443
82821SOL    HW250361   9.108   9.937   1.322
82822SOL     OW50362   4.953  12.528   9.904
82822SOL    HW150363   4.904  12.603   9.936
82822SOL    HW250364   5.001  12.561   9.827
82823SOL     OW50365  14.100   4.072   1.901
82823SOL    HW150366  14.132   4.121   1.977
82823SOL    HW250367  14.009   4.097   1.892
82824SOL     OW50368   9.692   8.619   2.077
82824SOL    HW150369   9.651   8.705   2.082
82824SOL    HW250370   9.625   8.558   2.110
82825SOL     OW50371   8.571  13.876   7.318
82825SOL    HW150372   8.588  13.821   7.242
82825SOL    HW250373   8.517  13.822   7.375
82826SOL     OW50374   0.435  14.211  13.006
82826SOL    HW150375   0.415  14.217  12.913
82826SOL    HW250376   0.349  14.205  13.049
82827SOL     OW50377  13.526   7.843  13.249
82827SOL    HW150378  13.535   7.936  13.271
82827SOL    HW250379  13.611   7.806  13.270
82828SOL     OW50380   0.795  10.590  10.779
82828SOL    HW150381   0.756  10.508  10.752
82828SOL    HW250382   0.858  10.610  10.710
82829SOL     OW50383  14.084   7.287   2.203
82829SOL    HW150384  14.134   7.245   2.134
82829SOL    HW250385  14.139   7.360   2.232
82830SOL     OW50386   1.482  14.550   4.424
82830SOL    HW150387   1.543  14.574   4.355
82830SOL    HW250388   1.436  14.631   4.445
82831SOL     OW50389   9.311   0.466   6.444
82831SOL    HW150390   9.382   0.500   6.389
82831SOL    HW250391   9.263   0.406   6.387
82832SOL     OW50392   0.243   6.902   8.893
82832SOL    HW150393   0.329   6.860   8.886
82832SOL    HW250394   0.242   6.938   8.982
82833SOL     OW50395   2.283   0.721   4.357
82833SOL    HW150396   2.237   0.805   4.354
82833SOL    HW250397   2.298   0.706   4.451
82834SOL     OW50398   2.771   4.003   2.721
82834SOL    HW150399   2.708   3.968   2.785
82834SOL    HW250400   2.724   4.003   2.638
82835SOL     OW50401   4.168   5.864   0.042
82835SOL    HW150402   4.193   5.876   0.133
82835SOL    HW250403   4.163   5.769   0.030
82836SOL     OW50404  12.693   9.313   3.606
82836SOL    HW150405  12.712   9.373   3.678
82836SOL    HW250406  12.767   9.321   3.547
82837SOL     OW50407   8.480   8.773   7.306
82837SOL    HW150408   8.436   8.857   7.323
82837SOL    HW250409   8.540   8.792   7.234
82838SOL     OW50410  13.232   6.277   1.996
82838SOL    HW150411  13.168   6.337   2.035
82838SOL    HW250412  13.200   6.262   1.907
82839SOL     OW50413   7.726  13.266  12.160
82839SOL    HW150414   7.669  13.337  12.130
82839SOL    HW250415   7.812  13.307  12.172
82840SOL     OW50416  13.327  10.524   1.404
82840SOL    HW150417  13.345  10.432   1.389
82840SOL    HW250418  13.244  10.524   1.453
82841SOL     OW50419   8.755   6.757  11.318
82841SOL    HW150420   8.679   6.723  11.365
82841SOL    HW250421   8.821   6.770  11.385
82842SOL     OW50422  10.316   3.677  11.208
82842SOL    HW150423  10.390   3.673  11.147
82842SOL    HW250424  10.291   3.586  11.221
82843SOL     OW50425   3.683  12.015   4.636
82843SOL    HW150426   3.630  12.087   4.669
82843SOL    HW250427   3.631  11.937   4.654
82844SOL     OW50428   5.732  12.451  14.662
82844SOL    HW150429   5.705  12.359  14.658
82844SOL    HW250430   5.748  12.467  14.755
82845SOL     OW50431  12.714   3.476  14.636
82845SOL    HW150432  12.623   3.446  14.632
82845SOL    HW250433  12.762   3.401  14.672
82846SOL     OW50434   1.982   1.419   7.334
82846SOL    HW150435   2.070   1.401   7.300
82846SOL    HW250436   1.980   1.515   7.343
82847SOL     OW50437   8.931   9.696   5.581
82847SOL    HW150438   9.020   9.712   5.611
82847SOL    HW250439   8.877   9.711   5.659
82848SOL     OW50440  13.543   4.434   6.502
82848SOL    HW150441  13.558   4.493   6.576
82848SOL    HW250442  13.626   4.434   6.454
82849SOL     OW50443   1.022  13.670   1.522
82849SOL    HW150444   0.992  13.606   1.457
82849SOL    HW250445   0.951  13.674   1.586
82850SOL     OW50446  11.363   6.815   9.004
82850SOL    HW150447  11.421   6.745   9.033
82850SOL    HW250448  11.311   6.837   9.082
82851SOL     OW50449   0.139  13.071   8.140
82851SOL    HW150450   0.104  13.004   8.199
82851SOL    HW250451   0.091  13.059   8.059
82852SOL     OW50452   7.869  14.564  11.591
82852SOL    HW150453   7.931  14.491  11.588
82852SOL    HW250454   7.888  14.615  11.513
82853SOL     OW50455  10.333  10.553  14.469
82853SOL    HW150456  10.323  10.648  14.480
82853SOL    HW250457  10.292  10.535  14.385
82854SOL     OW50458   6.416  13.698   8.044
82854SOL    HW150459   6.498  13.715   7.999
82854SOL    HW250460   6.351  13.750   7.996
82855SOL     OW50461   5.177   7.359  10.245
82855SOL    HW150462   5.226   7.432  10.283
82855SOL    HW250463   5.138   7.316  10.321
82856SOL     OW50464   5.389  13.419   5.407
82856SOL    HW150465   5.349  13.488   5.460
82856SOL    HW250466   5.362  13.338   5.449
82857SOL     OW50467  14.447   4.424   4.083
82857SOL    HW150468  14.438   4.351   4.022
82857SOL    HW250469  14.384   4.489   4.052
82858SOL     OW50470   6.650   6.886   4.590
82858SOL    HW150471   6.683   6.798   4.574
82858SOL    HW250472   6.580   6.875   4.654
82859SOL     OW50473  14.262  10.827   8.197
82859SOL    HW150474  14.298  10.769   8.264
82859SOL    HW250475  14.327  10.828   8.127
82860SOL     OW50476   4.379  12.751   4.683
82860SOL    HW150477   4.337  12.812   4.622
82860SOL    HW250478   4.417  12.684   4.627
82861SOL     OW50479   3.045   2.419  14.343
82861SOL    HW150480   2.971   2.415  14.282
82861SOL    HW250481   3.114   2.368  14.301
82862SOL     OW50482  11.638   0.147  13.638
82862SOL    HW150483  11.723   0.184  13.612
82862SOL    HW250484  11.600   0.113  13.557
82863SOL     OW50485   0.265  12.732   9.883
82863SOL    HW150486   0.321  12.654   9.887
82863SOL    HW250487   0.326  12.805   9.875
82864SOL     OW50488  11.432  10.744   4.923
82864SOL    HW150489  11.346  10.718   4.956
82864SOL    HW250490  11.467  10.665   4.883
82865SOL     OW50491  12.318   7.411   6.940
82865SOL    HW150492  12.329   7.480   7.005
82865SOL    HW250493  12.399   7.415   6.888
82866SOL     OW50494  13.472   5.829   2.171
82866SOL    HW150495  13.437   5.915   2.148
82866SOL    HW250496  13.509   5.841   2.258
82867SOL     OW50497  12.679  10.882  14.198
82867SOL    HW150498  12.621  10.956  14.181
82867SOL    HW250499  12.666  10.824  14.123
82868SOL     OW50500   9.337  11.885   9.186
82868SOL    HW150501   9.412  11.881   9.246
82868SOL    HW250502   9.292  11.966   9.210
82869SOL     OW50503   1.435   5.127   1.129
82869SOL    HW150504   1.409   5.123   1.221
82869SOL    HW250505   1.406   5.043   1.092
82870SOL     OW50506   3.536   3.937  14.738
82870SOL    HW150507   3.539   4.010  14.677
82870SOL    HW250508   3.611   3.951  14.797
82871SOL     OW50509  12.540   5.970  12.187
82871SOL    HW150510  12.596   6.021  12.130
82871SOL    HW250511  12.598   5.905  12.227
82872SOL     OW50512  13.991   9.529   7.530
82872SOL    HW150513  14.076   9.557   7.564
82872SOL    HW250514  13.959   9.466   7.595
82873SOL     OW50515  13.466   9.272   1.461
82873SOL    HW150516  13.502   9.226   1.537
82873SOL    HW250517  13.533   9.336   1.437
82874SOL     OW50518   7.658   7.781   2.975
82874SOL    HW150519   7.627   7.818   3.058
82874SOL    HW250520   7.676   7.689   2.995
82875SOL     OW50521   9.640   3.815   0.126
82875SOL    HW150522   9.619   3.908   0.114
82875SOL    HW250523   9.709   3.816   0.192
82876SOL     OW50524   3.993   0.239   0.503
82876SOL    HW150525   4.038   0.266   0.583
82876SOL    HW250526   3.972   0.147   0.518
82877SOL     OW50527   5.167   5.745   6.400
82877SOL    HW150528   5.124   5.661   6.385
82877SOL    HW250529   5.097   5.809   6.392
82878SOL     OW50530  13.425   9.334   5.647
82878SOL    HW150531  13.447   9.254   5.695
82878SOL    HW250532  13.425   9.403   5.713
82879SOL     OW50533   3.758  11.125   7.945
82879SOL    HW150534   3.689  11.060   7.933
82879SOL    HW250535   3.834  11.075   7.974
82880SOL     OW50536  14.157   8.411  10.104
82880SOL    HW150537  14.211   8.332  10.109
82880SOL    HW250538  14.067   8.380  10.115
82881SOL     OW50539  13.187   2.155   2.824
82881SOL    HW150540  13.263   2.101   2.847
82881SOL    HW250541  13.116   2.121   2.879
82882SOL     OW50542   6.589   8.020  11.239
82882SOL    HW150543   6.592   8.019  11.335
82882SOL    HW250544   6.666   8.070  11.213
82883SOL     OW50545  12.344   0.319   3.428
82883SOL    HW150546  12.414   0.349   3.486
82883SOL    HW250547  12.341   0.224   3.441
82884SOL     OW50548   1.717   2.950   0.393
82884SOL    HW150549   1.624   2.966   0.377
82884SOL    HW250550   1.718   2.874   0.452
82885SOL     OW50551   0.832   5.221   0.089
82885SOL    HW150552   0.809   5.313   0.104
82885SOL    HW250553   0.874   5.220   0.003
82886SOL     OW50554   8.645   7.314   6.757
82886SOL    HW150555   8.615   7.404   6.767
82886SOL    HW250556   8.581   7.274   6.697
82887SOL     OW50557   7.299   1.264   5.306
82887SOL    HW150558   7.265   1.309   5.229
82887SOL    HW250559   7.226   1.265   5.368
82888SOL     OW50560  12.181   2.123  10.155
82888SOL    HW150561  12.100   2.173  10.166
82888SOL    HW250562  12.248   2.174  10.201
82889SOL     OW50563   0.435   4.289   7.265
82889SOL    HW150564   0.510   4.331   7.223
82889SOL    HW250565   0.457   4.195   7.263
82890SOL     OW50566   4.978  10.244   3.643
82890SOL    HW150567   4.958  10.156   3.610
82890SOL    HW250568   4.893  10.289   3.645
82891SOL     OW50569  11.687   9.988   1.467
82891SOL    HW150570  11.768   9.979   1.516
82891SOL    HW250571  11.642   9.905   1.480
82892SOL     OW50572   7.729   0.437  12.665
82892SOL    HW150573   7.656   0.399  12.715
82892SOL    HW250574   7.689   0.509  12.616
82893SOL     OW50575   2.230  12.352   8.505
82893SOL    HW150576   2.255  12.444   8.507
82893SOL    HW250577   2.192  12.339   8.418
82894SOL     OW50578  13.186   4.197   3.582
82894SOL    HW150579  13.190   4.115   3.532
82894SOL    HW250580  13.093   4.215   3.590
82895SOL     OW50581   0.355   1.331  13.707
82895SOL    HW150582   0.430   1.282  13.739
82895SOL    HW250583   0.366   1.333  13.612
82896SOL     OW50584  10.788   4.244   3.408
82896SOL    HW150585  10.769   4.285   3.324
82896SOL    HW250586  10.719   4.276   3.467
82897SOL     OW50587   8.944  13.592   6.591
82897SOL    HW150588   9.007  13.523   6.571
82897SOL    HW250589   8.957  13.610   6.684
82898SOL     OW50590   7.095   2.166   8.511
82898SOL    HW150591   7.157   2.227   8.553
82898SOL    HW250592   7.083   2.096   8.576
82899SOL     OW50593   0.233  14.582   5.472
82899SOL    HW150594   0.326  14.604   5.469
82899SOL    HW250595   0.202  14.617   5.555
82900SOL     OW50596   2.974   3.142   9.823
82900SOL    HW150597   3.046   3.136   9.762
82900SOL    HW250598   2.959   3.236   9.834
82901SOL     OW50599   2.744   9.923   7.268
82901SOL    HW150600   2.686   9.922   7.191
82901SOL    HW250601   2.743  10.015   7.296
82902SOL     OW50602   1.950  13.710  11.864
82902SOL    HW150603   2.036  13.722  11.824
82902SOL    HW250604   1.956  13.754  11.948
82903SOL     OW50605  11.145   9.682   7.830
82903SOL    HW150606  11.063   9.634   7.847
82903SOL    HW250607  11.176   9.707   7.917
82904SOL     OW50608   6.984   9.871   4.697
82904SOL    HW150609   7.003   9.780   4.674
82904SOL    HW250610   6.972   9.915   4.613
82905SOL     OW50611  12.840  11.684   4.615
82905SOL    HW150612  12.784  11.725   4.680
82905SOL    HW250613  12.822  11.590   4.624
82906SOL     OW50614  13.767   7.862   6.121
82906SOL    HW150615  13.707   7.797   6.084
82906SOL    HW250616  13.719   7.945   6.114
82907SOL     OW50617   7.199   3.757  10.440
82907SOL    HW150618   7.215   3.727  10.529
82907SOL    HW250619   7.189   3.852  10.449
82908SOL     OW50620   3.364  12.622   8.582
82908SOL    HW150621   3.421  12.692   8.551
82908SOL    HW250622   3.385  12.613   8.676
82909SOL     OW50623   8.898  13.922  13.064
82909SOL    HW150624   8.958  13.855  13.096
82909SOL    HW250625   8.908  13.920  12.968
82910SOL     OW50626  14.886   3.955  13.281
82910SOL    HW150627  14.878   4.000  13.365
82910SOL    HW250628   0.085   3.980  13.248
82911SOL     OW50629  12.488  10.042   4.396
82911SOL    HW150630  12.404  10.024   4.353
82911SOL    HW250631  12.475  10.126   4.440
82912SOL     OW50632   5.841  12.509   2.967
82912SOL    HW150633   5.791  12.562   2.905
82912SOL    HW250634   5.919  12.562   2.985
82913SOL     OW50635   1.953   1.661   6.126
82913SOL    HW150636   1.918   1.591   6.182
82913SOL    HW250637   1.943   1.628   6.037
82914SOL     OW50638   1.268   7.539   6.337
82914SOL    HW150639   1.188   7.527   6.284
82914SOL    HW250640   1.331   7.479   6.298
82915SOL     OW50641  14.867   7.364   0.145
82915SOL    HW150642   0.017   7.276   0.157
82915SOL    HW250643  14.807   7.374   0.218
82916SOL     OW50644   4.711   7.503   2.612
82916SOL    HW150645   4.641   7.567   2.599
82916SOL    HW250646   4.668   7.418   2.598
82917SOL     OW50647   2.880   8.610  10.091
82917SOL    HW150648   2.897   8.636  10.182
82917SOL    HW250649   2.787   8.587  10.090
82918SOL     OW50650  11.675   7.602   3.360
82918SOL    HW150651  11.598   7.622   3.307
82918SOL    HW250652  11.640   7.566   3.441
82919SOL     OW50653  11.582   1.114   4.174
82919SOL    HW150654  11.563   1.080   4.086
82919SOL    HW250655  11.631   1.043   4.217
82920SOL     OW50656   6.075   6.701  12.542
82920SOL    HW150657   6.018   6.736  12.473
82920SOL    HW250658   6.015   6.662  12.605
82921SOL     OW50659  12.805   5.598   4.913
82921SOL    HW150660  12.833   5.647   4.991
82921SOL    HW250661  12.712   5.582   4.928
82922SOL     OW50662   8.829   5.835   6.618
82922SOL    HW150663   8.915   5.832   6.659
82922SOL    HW250664   8.779   5.897   6.671
82923SOL     OW50665  13.202   1.834   1.079
82923SOL    HW150666  13.265   1.819   1.149
82923SOL    HW250667  13.151   1.753   1.074
82924SOL     OW50668   2.419   1.920   0.393
82924SOL    HW150669   2.361   1.979   0.442
82924SOL    HW250670   2.408   1.835   0.435
82925SOL     OW50671   3.886  12.714   7.254
82925SOL    HW150672   3.943  12.649   7.212
82925SOL    HW250673   3.946  12.784   7.280
82926SOL     OW50674  11.604  14.063   5.585
82926SOL    HW150675  11.531  14.019   5.628
82926SOL    HW250676  11.678  14.051   5.643
82927SOL     OW50677  14.850  10.111   5.357
82927SOL    HW150678  14.788  10.162   5.306
82927SOL    HW250679  14.795  10.055   5.412
82928SOL     OW50680  13.182   0.711  13.487
82928SOL    HW150681  13.104   0.693  13.539
82928SOL    HW250682  13.255   0.696  13.548
82929SOL     OW50683   4.450   7.306   5.020
82929SOL    HW150684   4.504   7.346   5.088
82929SOL    HW250685   4.471   7.212   5.024
82930SOL     OW50686   3.305  13.091   2.569
82930SOL    HW150687   3.264  13.008   2.543
82930SOL    HW250688   3.395  13.084   2.536
82931SOL     OW50689  12.090  10.889   8.326
82931SOL    HW150690  12.120  10.823   8.264
82931SOL    HW250691  12.012  10.850   8.366
82932SOL     OW50692  11.338  11.537   6.743
82932SOL    HW150693  11.361  11.622   6.705
82932SOL    HW250694  11.382  11.473   6.687
82933SOL     OW50695   1.008  13.837  10.565
82933SOL    HW150696   1.087  13.805  10.523
82933SOL    HW250697   1.022  13.822  10.658
82934SOL     OW50698  10.972   3.487   6.474
82934SOL    HW150699  11.010   3.570   6.443
82934SOL    HW250700  10.878   3.498   6.464
82935SOL     OW50701   0.457   8.562  12.761
82935SOL    HW150702   0.515   8.637  12.748
82935SOL    HW250703   0.419   8.545  12.675
82936SOL     OW50704   8.452   5.009   2.802
82936SOL    HW150705   8.446   4.981   2.893
82936SOL    HW250706   8.537   5.054   2.797
82937SOL     OW50707   8.327  14.352   2.185
82937SOL    HW150708   8.387  14.426   2.196
82937SOL    HW250709   8.382  14.275   2.196
82938SOL     OW50710   2.568   0.972   8.801
82938SOL    HW150711   2.631   1.004   8.865
82938SOL    HW250712   2.484   1.009   8.829
82939SOL     OW50713   8.105   6.202  10.612
82939SOL    HW150714   8.091   6.270  10.546
82939SOL    HW250715   8.093   6.247  10.696
82940SOL     OW50716   7.507  14.222   0.789
82940SOL    HW150717   7.412  14.221   0.801
82940SOL    HW250718   7.542  14.236   0.877
82941SOL     OW50719   9.380  12.869   7.837
82941SOL    HW150720   9.470  12.856   7.870
82941SOL    HW250721   9.365  12.794   7.780
82942SOL     OW50722   9.293   1.959  13.701
82942SOL    HW150723   9.219   2.014  13.726
82942SOL    HW250724   9.341   1.944  13.783
82943SOL     OW50725  11.695   2.714   4.576
82943SOL    HW150726  11.605   2.727   4.606
82943SOL    HW250727  11.695   2.626   4.538
82944SOL     OW50728  13.037   2.147   0.510
82944SOL    HW150729  13.114   2.125   0.457
82944SOL    HW250730  12.963   2.133   0.452
82945SOL     OW50731   3.602   4.060  11.327
82945SOL    HW150732   3.545   4.108  11.268
82945SOL    HW250733   3.543   4.022  11.392
82946SOL     OW50734   0.074   9.614   3.960
82946SOL    HW150735   0.144   9.565   3.918
82946SOL    HW250736   0.073   9.698   3.914
82947SOL     OW50737   5.704   2.563  14.057
82947SOL    HW150738   5.678   2.534  14.144
82947SOL    HW250739   5.622   2.586  14.013
82948SOL     OW50740   0.644   7.180   4.175
82948SOL    HW150741   0.675   7.099   4.134
82948SOL    HW250742   0.686   7.182   4.261
82949SOL     OW50743   3.607   7.088  10.659
82949SOL    HW150744   3.601   7.171  10.611
82949SOL    HW250745   3.698   7.060  10.646
82950SOL     OW50746   7.969   0.811   3.398
82950SOL    HW150747   7.914   0.887   3.380
82950SOL    HW250748   7.941   0.745   3.334
82951SOL     OW50749   3.036   7.156   8.345
82951SOL    HW150750   3.127   7.131   8.328
82951SOL    HW250751   3.030   7.247   8.315
82952SOL     OW50752  10.422  12.348   5.560
82952SOL    HW150753  10.362  12.284   5.521
82952SOL    HW250754  10.398  12.350   5.653
82953SOL     OW50755   9.133   0.741   4.316
82953SOL    HW150756   9.078   0.811   4.281
82953SOL    HW250757   9.125   0.669   4.253
82954SOL     OW50758  13.864   0.594   5.600
82954SOL    HW150759  13.854   0.687   5.579
82954SOL    HW250760  13.790   0.576   5.658
82955SOL     OW50761   6.051   4.959   8.774
82955SOL    HW150762   6.061   4.956   8.869
82955SOL    HW250763   6.007   5.042   8.757
82956SOL     OW50764  10.713   8.397  11.681
82956SOL    HW150765  10.791   8.347  11.705
82956SOL    HW250766  10.651   8.332  11.649
82957SOL     OW50767  14.494  14.374  11.173
82957SOL    HW150768  14.467  14.441  11.235
82957SOL    HW250769  14.584  14.352  11.198
82958SOL     OW50770  12.475   7.856   7.851
82958SOL    HW150771  12.409   7.808   7.800
82958SOL    HW250772  12.489   7.937   7.802
82959SOL     OW50773   9.447   3.060   4.114
82959SOL    HW150774   9.496   2.988   4.075
82959SOL    HW250775   9.505   3.135   4.107
82960SOL     OW50776  12.386  11.890   4.661
82960SOL    HW150777  12.387  11.886   4.757
82960SOL    HW250778  12.425  11.975   4.641
82961SOL     OW50779  11.429  11.710   9.710
82961SOL    HW150780  11.479  11.790   9.701
82961SOL    HW250781  11.354  11.734   9.765
82962SOL     OW50782   2.580   1.847   8.663
82962SOL    HW150783   2.491   1.881   8.677
82962SOL    HW250784   2.609   1.887   8.581
82963SOL     OW50785  11.910   5.822  12.505
82963SOL    HW150786  11.908   5.735  12.465
82963SOL    HW250787  11.859   5.812  12.586
82964SOL     OW50788  14.480  11.112   7.719
82964SOL    HW150789  14.543  11.097   7.790
82964SOL    HW250790  14.410  11.163   7.759
82965SOL     OW50791   4.190  12.158  12.161
82965SOL    HW150792   4.238  12.152  12.243
82965SOL    HW250793   4.191  12.251  12.139
82966SOL     OW50794   3.156   0.747   0.556
82966SOL    HW150795   3.107   0.751   0.638
82966SOL    HW250796   3.248   0.750   0.582
82967SOL     OW50797   5.299  10.125  14.700
82967SOL    HW150798   5.363  10.158  14.763
82967SOL    HW250799   5.269  10.042  14.737
82968SOL     OW50800  11.581   0.225  12.140
82968SOL    HW150801  11.518   0.210  12.211
82968SOL    HW250802  11.595   0.320  12.139
82969SOL     OW50803   9.760   0.136   7.957
82969SOL    HW150804   9.824   0.137   8.028
82969SOL    HW250805   9.804   0.090   7.886
82970SOL     OW50806   4.348   2.152   1.401
82970SOL    HW150807   4.372   2.218   1.336
82970SOL    HW250808   4.253   2.160   1.410
82971SOL     OW50809  11.435   9.922   7.153
82971SOL    HW150810  11.426  10.007   7.109
82971SOL    HW250811  11.406   9.858   7.088
82972SOL     OW50812   7.146   5.698   5.978
82972SOL    HW150813   7.086   5.693   5.903
82972SOL    HW250814   7.145   5.790   6.003
82973SOL     OW50815  10.598   1.432   7.179
82973SOL    HW150816  10.544   1.357   7.154
82973SOL    HW250817  10.640   1.404   7.261
82974SOL     OW50818  10.374   4.697   6.306
82974SOL    HW150819  10.287   4.737   6.311
82974SOL    HW250820  10.357   4.603   6.309
82975SOL     OW50821   2.662   1.804   0.442
82975SOL    HW150822   2.731   1.867   0.462
82975SOL    HW250823   2.600   1.853   0.387
82976SOL     OW50824   8.844   3.200  10.318
82976SOL    HW150825   8.840   3.253  10.238
82976SOL    HW250826   8.892   3.122  10.292
82977SOL     OW50827   4.108   9.157  10.212
82977SOL    HW150828   4.016   9.162  10.186
82977SOL    HW250829   4.156   9.158  10.129
82978SOL     OW50830   5.277   2.016   5.068
82978SOL    HW150831   5.371   2.032   5.073
82978SOL    HW250832   5.255   2.024   4.976
82979SOL     OW50833  12.180   6.702   4.333
82979SOL    HW150834  12.208   6.755   4.258
82979SOL    HW250835  12.181   6.763   4.407
82980SOL     OW50836   6.896   1.221   1.965
82980SOL    HW150837   6.972   1.277   1.954
82980SOL    HW250838   6.910   1.178   2.050
82981SOL     OW50839  14.613  13.172   1.877
82981SOL    HW150840  14.585  13.107   1.942
82981SOL    HW250841  14.611  13.255   1.923
82982SOL     OW50842   4.194   0.836   0.815
82982SOL    HW150843   4.222   0.795   0.896
82982SOL    HW250844   4.107   0.870   0.835
82983SOL     OW50845   4.714  14.317   4.883
82983SOL    HW150846   4.714  14.233   4.929
82983SOL    HW250847   4.727  14.382   4.952
82984SOL     OW50848   7.575   3.127   4.957
82984SOL    HW150849   7.532   3.108   5.040
82984SOL    HW250850   7.665   3.096   4.969
82985SOL     OW50851  13.006   8.340   7.646
82985SOL    HW150852  13.025   8.266   7.703
82985SOL    HW250853  12.968   8.406   7.704
82986SOL     OW50854   6.902   6.959   7.254
82986SOL    HW150855   6.840   6.970   7.326
82986SOL    HW250856   6.900   7.042   7.207
82987SOL     OW50857   5.528  12.587   7.416
82987SOL    HW150858   5.597  12.625   7.362
82987SOL    HW250859   5.570  12.572   7.501
82988SOL     OW50860  14.695  13.612  14.187
82988SOL    HW150861  14.663  13.525  14.210
82988SOL    HW250862  14.626  13.672  14.215
82989SOL     OW50863   8.688  12.916   1.646
82989SOL    HW150864   8.632  12.844   1.617
82989SOL    HW250865   8.665  12.988   1.587
82990SOL     OW50866  12.962  14.353  14.400
82990SOL    HW150867  12.900  14.408  14.353
82990SOL    HW250868  12.919  14.268  14.407
82991SOL     OW50869   2.129   2.414  14.710
82991SOL    HW150870   2.130   2.482  14.778
82991SOL    HW250871   2.190   2.446  14.644
82992SOL     OW50872   3.126   5.297   0.410
82992SOL    HW150873   3.099   5.231   0.474
82992SOL    HW250874   3.098   5.380   0.447
82993SOL     OW50875   6.561   1.525  11.268
82993SOL    HW150876   6.628   1.587  11.239
82993SOL    HW250877   6.522   1.566  11.345
82994SOL     OW50878   3.220  13.717   0.441
82994SOL    HW150879   3.139  13.730   0.491
82994SOL    HW250880   3.271  13.655   0.492
82995SOL     OW50881  14.004   1.414  10.143
82995SOL    HW150882  14.068   1.431  10.074
82995SOL    HW250883  14.019   1.484  10.207
82996SOL     OW50884   3.532  11.759  12.217
82996SOL    HW150885   3.536  11.690  12.151
82996SOL    HW250886   3.553  11.839  12.169
82997SOL     OW50887  13.250   0.806  14.436
82997SOL    HW150888  13.227   0.883  14.489
82997SOL    HW250889  13.239   0.836  14.346
82998SOL     OW50890   4.211   5.575   0.026
82998SOL    HW150891   4.278   5.519  14.873
82998SOL    HW250892   4.128   5.532   0.006
82999SOL     OW50893   5.495   6.392   4.984
82999SOL    HW150894   5.570   6.343   5.018
82999SOL    HW250895   5.531   6.443   4.912
83000SOL     OW50896   6.232   7.387   5.177
83000SOL    HW150897   6.272   7.393   5.263
83000SOL    HW250898   6.243   7.475   5.139
83001SOL     OW50899  14.511  14.242   3.340
83001SOL    HW150900  14.570  14.169   3.321
83001SOL    HW250901  14.455  14.249   3.263
83002SOL     OW50902  11.257  12.260   1.668
83002SOL    HW150903  11.194  12.230   1.603
83002SOL    HW250904  11.220  12.342   1.702
83003SOL     OW50905   0.778   4.102   2.499
83003SOL    HW150906   0.819   4.052   2.569
83003SOL    HW250907   0.849   4.158   2.465
83004SOL     OW50908  14.636  12.525   7.140
83004SOL    HW150909  14.635  12.486   7.052
83004SOL    HW250910  14.544  12.522   7.168
83005SOL     OW50911   4.336   6.161   6.056
83005SOL    HW150912   4.337   6.128   6.146
83005SOL    HW250913   4.290   6.245   6.060
83006SOL     OW50914   4.420  12.478  10.158
83006SOL    HW150915   4.490  12.440  10.212
83006SOL    HW250916   4.465  12.506  10.078
83007SOL     OW50917   5.689   8.277  10.043
83007SOL    HW150918   5.715   8.194  10.003
83007SOL    HW250919   5.707   8.265  10.137
83008SOL     OW50920   5.448  10.719   5.673
83008SOL    HW150921   5.407  10.680   5.750
83008SOL    HW250922   5.375  10.747   5.618
83009SOL     OW50923   4.746  11.490   3.776
83009SOL    HW150924   4.710  11.578   3.783
83009SOL    HW250925   4.673  11.432   3.797
83010SOL     OW50926   6.235   4.313  11.742
83010SOL    HW150927   6.193   4.256  11.678
83010SOL    HW250928   6.188   4.297  11.824
83011SOL     OW50929  11.204   1.674   0.206
83011SOL    HW150930  11.176   1.760   0.175
83011SOL    HW250931  11.221   1.686   0.299
83012SOL     OW50932  13.170   6.672   8.153
83012SOL    HW150933  13.166   6.678   8.248
83012SOL    HW250934  13.191   6.581   8.135
83013SOL     OW50935  14.619   5.328   8.090
83013SOL    HW150936  14.583   5.366   8.170
83013SOL    HW250937  14.697   5.381   8.071
83014SOL     OW50938   1.565   9.702   6.559
83014SOL    HW150939   1.619   9.673   6.485
83014SOL    HW250940   1.621   9.693   6.635
83015SOL     OW50941   5.053  12.139   2.285
83015SOL    HW150942   5.120  12.083   2.323
83015SOL    HW250943   5.083  12.228   2.304
83016SOL     OW50944  10.521   4.086   2.202
83016SOL    HW150945  10.429   4.092   2.176
83016SOL    HW250946  10.519   4.090   2.298
83017SOL     OW50947   7.826   2.182   2.927
83017SOL    HW150948   7.828   2.196   3.022
83017SOL    HW250949   7.891   2.113   2.911
83018SOL     OW50950   2.952   1.565   0.061
83018SOL    HW150951   2.926   1.587   0.150
83018SOL    HW250952   2.881   1.509   0.029
83019SOL     OW50953  10.169   7.975   1.761
83019SOL    HW150954  10.263   7.984   1.775
83019SOL    HW250955  10.135   8.064   1.762
83020SOL     OW50956  12.336   0.168   1.120
83020SOL    HW150957  12.431   0.167   1.131
83020SOL    HW250958  12.310   0.076   1.125
83021SOL     OW50959  12.568   6.595   5.981
83021SOL    HW150960  12.614   6.639   5.909
83021SOL    HW250961  12.521   6.523   5.939
83022SOL     OW50962   4.182  10.723   8.870
83022SOL    HW150963   4.249  10.756   8.810
83022SOL    HW250964   4.137  10.655   8.821
83023SOL     OW50965   4.096  11.695   2.601
83023SOL    HW150966   4.034  11.704   2.529
83023SOL    HW250967   4.147  11.617   2.578
83024SOL     OW50968  11.464   9.099   1.583
83024SOL    HW150969  11.386   9.106   1.638
83024SOL    HW250970  11.490   9.007   1.588
83025SOL     OW50971   5.320   3.078   4.828
83025SOL    HW150972   5.278   3.060   4.744
83025SOL    HW250973   5.251   3.063   4.893
83026SOL     OW50974  11.071   8.856  10.800
83026SOL    HW150975  11.135   8.811  10.854
83026SOL    HW250976  11.012   8.898  10.862
83027SOL     OW50977   4.716   8.783  12.986
83027SOL    HW150978   4.777   8.828  12.927
83027SOL    HW250979   4.773   8.737  13.048
83028SOL     OW50980   8.205   2.983   9.709
83028SOL    HW150981   8.120   2.968   9.668
83028SOL    HW250982   8.255   2.904   9.688
83029SOL     OW50983   9.938   2.954  13.969
83029SOL    HW150984   9.968   2.870  14.004
83029SOL    HW250985   9.972   3.020  14.030
83030SOL     OW50986  10.452   8.305   2.222
83030SOL    HW150987  10.477   8.301   2.130
83030SOL    HW250988  10.473   8.395   2.249
83031SOL     OW50989   3.990   4.091   8.939
83031SOL    HW150990   4.057   4.046   8.888
83031SOL    HW250991   4.025   4.094   9.028
83032SOL     OW50992   8.762   6.809  13.306
83032SOL    HW150993   8.827   6.747  13.272
83032SOL    HW250994   8.737   6.773  13.391
83033SOL     OW50995   4.684   7.533   8.152
83033SOL    HW150996   4.590   7.541   8.134
83033SOL    HW250997   4.688   7.484   8.233
83034SOL     OW50998  11.345   5.138   8.690
83034SOL    HW150999  11.316   5.049   8.708
83034SOL    HW251000  11.381   5.134   8.601
83035SOL     OW51001   9.480   1.947   8.917
83035SOL    HW151002   9.390   1.968   8.943
83035SOL    HW251003   9.534   2.011   8.964
83036SOL     OW51004   9.988  11.532   2.096
83036SOL    HW151005  10.074  11.517   2.135
83036SOL    HW251006   9.927  11.526   2.170
83037SOL     OW51007   5.657   6.027  14.858
83037SOL    HW151008   5.718   6.081   0.019
83037SOL    HW251009   5.580   6.082  14.844
83038SOL     OW51010   4.911  13.560   1.754
83038SOL    HW151011   4.877  13.480   1.793
83038SOL    HW251012   4.866  13.566   1.670
83039SOL     OW51013  13.326   6.189  10.508
83039SOL    HW151014  13.262   6.260  10.506
83039SOL    HW251015  13.383   6.206  10.433
83040SOL     OW51016   3.618   7.956  10.904
83040SOL    HW151017   3.691   7.895  10.895
83040SOL    HW251018   3.655   8.031  10.951
83041SOL     OW51019   9.625   8.694  12.544
83041SOL    HW151020   9.643   8.636  12.618
83041SOL    HW251021   9.613   8.636  12.470
83042SOL     OW51022   8.008   9.763   3.502
83042SOL    HW151023   8.096   9.755   3.465
83042SOL    HW251024   7.973   9.674   3.500
83043SOL     OW51025  10.423  10.253   8.760
83043SOL    HW151026  10.376  10.337   8.766
83043SOL    HW251027  10.368  10.192   8.809
83044SOL     OW51028   8.729  11.269  12.420
83044SOL    HW151029   8.769  11.199  12.368
83044SOL    HW251030   8.749  11.349  12.371
83045SOL     OW51031   4.089   8.886   6.496
83045SOL    HW151032   4.116   8.818   6.434
83045SOL    HW251033   4.020   8.934   6.450
83046SOL     OW51034   4.195   6.021   4.702
83046SOL    HW151035   4.211   5.926   4.704
83046SOL    HW251036   4.268   6.059   4.750
83047SOL     OW51037   7.491   7.451   6.935
83047SOL    HW151038   7.431   7.407   6.875
83047SOL    HW251039   7.504   7.388   7.006
83048SOL     OW51040  13.425  11.431  12.288
83048SOL    HW151041  13.429  11.364  12.356
83048SOL    HW251042  13.332  11.436  12.264
83049SOL     OW51043   8.226  14.282   5.317
83049SOL    HW151044   8.220  14.274   5.412
83049SOL    HW251045   8.202  14.373   5.300
83050SOL     OW51046   1.939   4.271   7.097
83050SOL    HW151047   2.024   4.312   7.080
83050SOL    HW251048   1.927   4.210   7.025
83051SOL     OW51049   9.981  13.577  13.780
83051SOL    HW151050   9.943  13.535  13.858
83051SOL    HW251051   9.931  13.657  13.769
83052SOL     OW51052  12.204   4.066   5.558
83052SOL    HW151053  12.135   4.057   5.624
83052SOL    HW251054  12.216   3.978   5.523
83053SOL     OW51055  11.599   5.825   6.155
83053SOL    HW151056  11.561   5.761   6.214
83053SOL    HW251057  11.680   5.853   6.199
83054SOL     OW51058   3.191   2.508   9.770
83054SOL    HW151059   3.276   2.546   9.750
83054SOL    HW251060   3.144   2.577   9.817
83055SOL     OW51061   9.325  12.841   5.551
83055SOL    HW151062   9.285  12.760   5.582
83055SOL    HW251063   9.401  12.855   5.607
83056SOL     OW51064   2.596   3.831   7.145
83056SOL    HW151065   2.547   3.872   7.216
83056SOL    HW251066   2.595   3.738   7.165
83057SOL     OW51067  14.847   8.635   9.418
83057SOL    HW151068  14.790   8.624   9.494
83057SOL    HW251069   0.029   8.570   9.429
83058SOL     OW51070   7.438   9.266   8.504
83058SOL    HW151071   7.406   9.280   8.415
83058SOL    HW251072   7.441   9.171   8.514
83059SOL     OW51073   5.782   5.356   5.214
83059SOL    HW151074   5.835   5.277   5.202
83059SOL    HW251075   5.695   5.330   5.185
83060SOL     OW51076   4.977  14.505   6.167
83060SOL    HW151077   4.883  14.516   6.158
83060SOL    HW251078   5.000  14.554   6.246
83061SOL     OW51079  11.058   6.071  10.679
83061SOL    HW151080  11.058   5.989  10.631
83061SOL    HW251081  11.121   6.057  10.750
83062SOL     OW51082  14.306   0.712   5.091
83062SOL    HW151083  14.242   0.750   5.151
83062SOL    HW251084  14.382   0.770   5.095
83063SOL     OW51085   3.289   2.471  10.140
83063SOL    HW151086   3.242   2.552  10.162
83063SOL    HW251087   3.377   2.501  10.118
83064SOL     OW51088   6.854   5.009   6.536
83064SOL    HW151089   6.806   5.002   6.454
83064SOL    HW251090   6.812   4.946   6.595
83065SOL     OW51091   3.455  10.122   3.311
83065SOL    HW151092   3.423  10.044   3.356
83065SOL    HW251093   3.467  10.186   3.381
83066SOL     OW51094  11.609   9.373  11.714
83066SOL    HW151095  11.556   9.404  11.640
83066SOL    HW251096  11.655   9.297  11.679
83067SOL     OW51097  12.027   4.352   8.074
83067SOL    HW151098  12.046   4.343   8.167
83067SOL    HW251099  12.062   4.438   8.050
83068SOL     OW51100   2.806   4.497   8.092
83068SOL    HW151101   2.826   4.536   8.008
83068SOL    HW251102   2.805   4.403   8.076
83069SOL     OW51103  12.698   5.762  11.909
83069SOL    HW151104  12.727   5.829  11.847
83069SOL    HW251105  12.634   5.806  11.964
83070SOL     OW51106   2.466   7.209   9.249
83070SOL    HW151107   2.462   7.276   9.318
83070SOL    HW251108   2.405   7.141   9.278
83071SOL     OW51109   0.922   0.487  10.149
83071SOL    HW151110   0.995   0.497  10.209
83071SOL    HW251111   0.963   0.478  10.063
83072SOL     OW51112  14.343  10.311  11.167
83072SOL    HW151113  14.417  10.371  11.169
83072SOL    HW251114  14.360  10.249  11.238
83073SOL     OW51115   6.960   2.101   9.835
83073SOL    HW151116   6.978   2.129   9.925
83073SOL    HW251117   6.871   2.134   9.817
83074SOL     OW51118   7.742   0.266   5.569
83074SOL    HW151119   7.670   0.309   5.616
83074SOL    HW251120   7.812   0.258   5.634
83075SOL     OW51121   5.921   6.729   2.141
83075SOL    HW151122   5.938   6.802   2.081
83075SOL    HW251123   6.008   6.695   2.162
83076SOL     OW51124  12.408  11.846   6.092
83076SOL    HW151125  12.345  11.795   6.142
83076SOL    HW251126  12.490  11.836   6.140
83077SOL     OW51127  14.076  10.319  11.883
83077SOL    HW151128  14.079  10.415  11.874
83077SOL    HW251129  13.995  10.294  11.839
83078SOL     OW51130   5.673   7.720  13.283
83078SOL    HW151131   5.749   7.707  13.340
83078SOL    HW251132   5.653   7.633  13.249
83079SOL     OW51133   1.786   7.891   4.819
83079SOL    HW151134   1.744   7.806   4.805
83079SOL    HW251135   1.837   7.880   4.899
83080SOL     OW51136   8.650  14.339  10.604
83080SOL    HW151137   8.664  14.338  10.699
83080SOL    HW251138   8.627  14.430  10.584
83081SOL     OW51139   7.253   8.848   6.007
83081SOL    HW151140   7.160   8.835   6.025
83081SOL    HW251141   7.297   8.775   6.051
83082SOL     OW51142  13.225   7.065   9.434
83082SOL    HW151143  13.307   7.071   9.484
83082SOL    HW251144  13.250   7.090   9.345
83083SOL     OW51145   0.350  13.466   0.849
83083SOL    HW151146   0.327  13.417   0.928
83083SOL    HW251147   0.290  13.434   0.782
83084SOL     OW51148   2.662  11.518  12.505
83084SOL    HW151149   2.572  11.541  12.529
83084SOL    HW251150   2.712  11.525  12.586
83085SOL     OW51151  11.536   3.972   0.350
83085SOL    HW151152  11.611   3.920   0.378
83085SOL    HW251153  11.482   3.911   0.300
83086SOL     OW51154   1.020  14.179   6.533
83086SOL    HW151155   1.023  14.256   6.476
83086SOL    HW251156   0.929  14.177   6.564
83087SOL     OW51157   0.016   6.339   2.045
83087SOL    HW151158   0.052   6.320   1.958
83087SOL    HW251159   0.091   6.366   2.097
83088SOL     OW51160   9.619   4.235   3.959
83088SOL    HW151161   9.704   4.252   3.919
83088SOL    HW251162   9.623   4.144   3.988
83089SOL     OW51163  11.683  12.204   1.886
83089SOL    HW151164  11.622  12.130   1.884
83089SOL    HW251165  11.729  12.194   1.969
83090SOL     OW51166   1.258   9.410   3.210
83090SOL    HW151167   1.167   9.381   3.217
83090SOL    HW251168   1.259   9.495   3.254
83091SOL     OW51169  14.732   0.025   9.577
83091SOL    HW151170  14.732  14.862   9.659
83091SOL    HW251171  14.753  14.848   9.509
83092SOL     OW51172   9.001   3.805   5.854
83092SOL    HW151173   8.938   3.832   5.921
83092SOL    HW251174   9.046   3.729   5.893
83093SOL     OW51175   5.593   3.846  13.187
83093SOL    HW151176   5.525   3.816  13.248
83093SOL    HW251177   5.610   3.936  13.212
83094SOL     OW51178   9.984  14.689  10.883
83094SOL    HW151179   9.989  14.661  10.975
83094SOL    HW251180  10.037  14.624  10.836
83095SOL     OW51181  13.916  11.186  10.352
83095SOL    HW151182  13.936  11.236  10.273
83095SOL    HW251183  13.951  11.099  10.335
83096SOL     OW51184   8.576  12.677  14.205
83096SOL    HW151185   8.585  12.727  14.286
83096SOL    HW251186   8.647  12.613  14.208
83097SOL     OW51187  12.074   0.592   1.451
83097SOL    HW151188  12.156   0.564   1.409
83097SOL    HW251189  12.043   0.513   1.496
83098SOL     OW51190   8.425  14.647  11.727
83098SOL    HW151191   8.338  14.678  11.703
83098SOL    HW251192   8.428  14.557  11.695
83099SOL     OW51193  11.171  12.253   3.937
83099SOL    HW151194  11.140  12.164   3.954
83099SOL    HW251195  11.264  12.242   3.915
83100SOL     OW51196  12.257   3.255  13.067
83100SOL    HW151197  12.267   3.259  12.972
83100SOL    HW251198  12.346   3.238  13.100
83101SOL     OW51199  14.423   7.898  12.523
83101SOL    HW151200  14.416   7.826  12.586
83101SOL    HW251201  14.402   7.976  12.574
83102SOL     OW51202  14.444  11.282   9.833
83102SOL    HW151203  14.497  11.355   9.800
83102SOL    HW251204  14.395  11.320   9.906
83103SOL     OW51205   4.304   7.954   7.573
83103SOL    HW151206   4.318   7.868   7.613
83103SOL    HW251207   4.366   8.012   7.616
83104SOL     OW51208   5.212   1.206   8.672
83104SOL    HW151209   5.210   1.112   8.689
83104SOL    HW251210   5.236   1.245   8.756
83105SOL     OW51211   8.009  12.397  14.568
83105SOL    HW151212   8.066  12.326  14.597
83105SOL    HW251213   7.959  12.421  14.646
83106SOL     OW51214   8.642   7.829   4.071
83106SOL    HW151215   8.640   7.774   3.992
83106SOL    HW251216   8.587   7.904   4.050
83107SOL     OW51217   6.367   5.458   2.709
83107SOL    HW151218   6.451   5.460   2.663
83107SOL    HW251219   6.359   5.368   2.741
83108SOL     OW51220   2.028   1.421  14.594
83108SOL    HW151221   1.949   1.382  14.632
83108SOL    HW251222   2.089   1.347  14.585
83109SOL     OW51223   9.163  14.173   8.802
83109SOL    HW151224   9.106  14.128   8.863
83109SOL    HW251225   9.250  14.136   8.818
83110SOL     OW51226   0.975   0.034   7.683
83110SOL    HW151227   0.939  14.884   7.602
83110SOL    HW251228   0.912   0.101   7.709
83111SOL     OW51229  12.941  14.105  10.864
83111SOL    HW151230  12.905  14.158  10.793
83111SOL    HW251231  12.866  14.059  10.900
83112SOL     OW51232  11.144   6.660   1.853
83112SOL    HW151233  11.078   6.719   1.817
83112SOL    HW251234  11.142   6.584   1.795
83113SOL     OW51235  12.461   3.126   1.495
83113SOL    HW151236  12.468   3.081   1.411
83113SOL    HW251237  12.532   3.191   1.494
83114SOL     OW51238   8.595   8.504   8.897
83114SOL    HW151239   8.685   8.525   8.922
83114SOL    HW251240   8.599   8.487   8.803
83115SOL     OW51241   4.979   2.599   0.289
83115SOL    HW151242   4.907   2.611   0.351
83115SOL    HW251243   4.938   2.601   0.203
83116SOL     OW51244   7.673   9.028   0.548
83116SOL    HW151245   7.614   9.058   0.480
83116SOL    HW251246   7.760   9.038   0.511
83117SOL     OW51247   7.255   5.414   1.696
83117SOL    HW151248   7.256   5.500   1.740
83117SOL    HW251249   7.337   5.411   1.647
83118SOL     OW51250   9.964  12.739   8.693
83118SOL    HW151251  10.006  12.783   8.767
83118SOL    HW251252   9.884  12.790   8.678
83119SOL     OW51253   4.949   9.165   8.255
83119SOL    HW151254   4.877   9.225   8.271
83119SOL    HW251255   4.963   9.168   8.161
83120SOL     OW51256   6.329   6.826   6.021
83120SOL    HW151257   6.325   6.784   6.106
83120SOL    HW251258   6.293   6.914   6.036
83121SOL     OW51259   2.300  12.185   8.046
83121SOL    HW151260   2.354  12.213   7.972
83121SOL    HW251261   2.217  12.157   8.007
83122SOL     OW51262   3.597   9.606   9.627
83122SOL    HW151263   3.600   9.532   9.688
83122SOL    HW251264   3.520   9.589   9.572
83123SOL     OW51265  13.583  13.501   3.549
83123SOL    HW151266  13.489  13.483   3.540
83123SOL    HW251267  13.616  13.428   3.602
83124SOL     OW51268  11.101   1.046   3.600
83124SOL    HW151269  11.116   1.078   3.689
83124SOL    HW251270  11.116   1.122   3.544
83125SOL     OW51271   1.369   7.669   7.784
83125SOL    HW151272   1.373   7.575   7.804
83125SOL    HW251273   1.307   7.676   7.712
83126SOL     OW51274  13.700   1.763   3.896
83126SOL    HW151275  13.755   1.697   3.939
83126SOL    HW251276  13.708   1.743   3.803
83127SOL     OW51277  13.310   7.714  11.244
83127SOL    HW151278  13.220   7.727  11.273
83127SOL    HW251279  13.326   7.787  11.183
83128SOL     OW51280   6.980  14.172  11.090
83128SOL    HW151281   6.967  14.078  11.103
83128SOL    HW251282   7.042  14.197  11.158
83129SOL     OW51283  10.972  10.506   1.441
83129SOL    HW151284  10.952  10.451   1.366
83129SOL    HW251285  11.031  10.452   1.495
83130SOL     OW51286   2.791   7.130  10.594
83130SOL    HW151287   2.847   7.069  10.643
83130SOL    HW251288   2.778   7.087  10.510
83131SOL     OW51289   8.304  11.635  10.261
83131SOL    HW151290   8.334  11.685  10.337
83131SOL    HW251291   8.234  11.688  10.224
83132SOL     OW51292   5.129  14.108   5.041
83132SOL    HW151293   5.101  14.055   4.966
83132SOL    HW251294   5.114  14.052   5.117
83133SOL     OW51295   5.771  14.874  13.134
83133SOL    HW151296   5.863  14.861  13.110
83133SOL    HW251297   5.722  14.851  13.055
83134SOL     OW51298   3.610  12.766   5.296
83134SOL    HW151299   3.587  12.673   5.301
83134SOL    HW251300   3.699  12.767   5.261
83135SOL     OW51301   5.106   7.702  11.518
83135SOL    HW151302   5.037   7.668  11.463
83135SOL    HW251303   5.091   7.796  11.521
83136SOL     OW51304   2.466   6.399   2.559
83136SOL    HW151305   2.507   6.321   2.520
83136SOL    HW251306   2.430   6.447   2.485
83137SOL     OW51307  13.634   9.556   8.337
83137SOL    HW151308  13.597   9.618   8.274
83137SOL    HW251309  13.615   9.596   8.423
83138SOL     OW51310  10.469   7.755  12.916
83138SOL    HW151311  10.471   7.694  12.989
83138SOL    HW251312  10.547   7.810  12.929
83139SOL     OW51313  11.332   8.427   9.558
83139SOL    HW151314  11.363   8.479   9.633
83139SOL    HW251315  11.239   8.414   9.575
83140SOL     OW51316   8.579  14.536   2.193
83140SOL    HW151317   8.624  14.556   2.111
83140SOL    HW251318   8.542  14.620   2.221
83141SOL     OW51319   4.355   7.006   6.499
83141SOL    HW151320   4.419   6.937   6.479
83141SOL    HW251321   4.405   7.087   6.495
83142SOL     OW51322   2.489   3.683   2.734
83142SOL    HW151323   2.506   3.612   2.672
83142SOL    HW251324   2.460   3.639   2.814
83143SOL     OW51325   1.810   7.762   8.730
83143SOL    HW151326   1.896   7.802   8.740
83143SOL    HW251327   1.817   7.676   8.772
83144SOL     OW51328   2.848  11.805  11.752
83144SOL    HW151329   2.912  11.735  11.768
83144SOL    HW251330   2.839  11.807  11.657
83145SOL     OW51331  11.772  11.218   8.078
83145SOL    HW151332  11.802  11.187   7.993
83145SOL    HW251333  11.846  11.203   8.137
83146SOL     OW51334   3.947   3.280   4.866
83146SOL    HW151335   4.029   3.307   4.907
83146SOL    HW251336   3.912   3.360   4.826
83147SOL     OW51337   7.803   7.284   3.223
83147SOL    HW151338   7.812   7.288   3.318
83147SOL    HW251339   7.787   7.375   3.197
83148SOL     OW51340   0.816   3.238   6.009
83148SOL    HW151341   0.843   3.155   5.970
83148SOL    HW251342   0.784   3.214   6.096
83149SOL     OW51343   4.056  12.229   6.588
83149SOL    HW151344   3.978  12.246   6.641
83149SOL    HW251345   4.058  12.300   6.525
83150SOL     OW51346   6.601   1.332  14.038
83150SOL    HW151347   6.516   1.327  13.994
83150SOL    HW251348   6.637   1.416  14.011
83151SOL     OW51349  13.489   3.918  11.616
83151SOL    HW151350  13.424   3.926  11.547
83151SOL    HW251351  13.534   3.836  11.598
83152SOL     OW51352  13.609   0.251   5.666
83152SOL    HW151353  13.686   0.194   5.663
83152SOL    HW251354  13.643   0.334   5.701
83153SOL     OW51355   9.810   9.857   6.660
83153SOL    HW151356   9.892   9.850   6.709
83153SOL    HW251357   9.800   9.772   6.618
83154SOL     OW51358   1.422   0.175   8.431
83154SOL    HW151359   1.427   0.271   8.434
83154SOL    HW251360   1.425   0.148   8.522
83155SOL     OW51361   6.737  11.738   6.605
83155SOL    HW151362   6.695  11.800   6.545
83155SOL    HW251363   6.701  11.653   6.581
83156SOL     OW51364  13.965   5.146  10.284
83156SOL    HW151365  13.991   5.214  10.346
83156SOL    HW251366  13.955   5.067  10.338
83157SOL     OW51367   0.341  11.829  10.866
83157SOL    HW151368   0.382  11.791  10.788
83157SOL    HW251369   0.257  11.784  10.872
83158SOL     OW51370   4.167   8.768   9.941
83158SOL    HW151371   4.115   8.733   9.869
83158SOL    HW251372   4.221   8.695   9.969
83159SOL     OW51373   2.844   6.928  13.339
83159SOL    HW151374   2.896   6.910  13.260
83159SOL    HW251375   2.753   6.916  13.310
83160SOL     OW51376  14.164   9.189   0.410
83160SOL    HW151377  14.207   9.272   0.431
83160SOL    HW251378  14.217   9.122   0.453
83161SOL     OW51379  10.818  13.531  10.933
83161SOL    HW151380  10.741  13.585  10.913
83161SOL    HW251381  10.782  13.444  10.951
83162SOL     OW51382   0.375   4.689   0.725
83162SOL    HW151383   0.450   4.645   0.683
83162SOL    HW251384   0.312   4.619   0.739
83163SOL     OW51385  10.711  11.421   9.533
83163SOL    HW151386  10.639  11.387   9.480
83163SOL    HW251387  10.686  11.400   9.623
83164SOL     OW51388   6.267   1.261   6.130
83164SOL    HW151389   6.237   1.239   6.218
83164SOL    HW251390   6.222   1.343   6.109
83165SOL     OW51391   5.525   6.843   4.142
83165SOL    HW151392   5.462   6.788   4.187
83165SOL    HW251393   5.478   6.874   4.064
83166SOL     OW51394   2.349   3.478  12.825
83166SOL    HW151395   2.405   3.474  12.903
83166SOL    HW251396   2.387   3.548  12.772
83167SOL     OW51397  13.421  13.934  11.570
83167SOL    HW151398  13.461  14.018  11.593
83167SOL    HW251399  13.479  13.897  11.504
83168SOL     OW51400  13.089   0.625   5.216
83168SOL    HW151401  13.068   0.540   5.253
83168SOL    HW251402  13.069   0.688   5.286
83169SOL     OW51403  12.482   1.541   9.713
83169SOL    HW151404  12.550   1.485   9.676
83169SOL    HW251405  12.400   1.505   9.679
83170SOL     OW51406  12.922  12.811  14.470
83170SOL    HW151407  12.943  12.791  14.561
83170SOL    HW251408  13.006  12.818  14.427
83171SOL     OW51409  11.549   5.226   5.049
83171SOL    HW151410  11.598   5.298   5.009
83171SOL    HW251411  11.462   5.233   5.012
83172SOL     OW51412   2.852  11.174  10.320
83172SOL    HW151413   2.880  11.237  10.254
83172SOL    HW251414   2.765  11.147  10.292
83173SOL     OW51415   3.800  11.901  14.506
83173SOL    HW151416   3.795  11.823  14.560
83173SOL    HW251417   3.867  11.880  14.440
83174SOL     OW51418   4.374  12.558  12.992
83174SOL    HW151419   4.335  12.609  12.921
83174SOL    HW251420   4.315  12.571  13.066
83175SOL     OW51421   4.655   5.967   3.208
83175SOL    HW151422   4.719   5.902   3.235
83175SOL    HW251423   4.571   5.921   3.210
83176SOL     OW51424  10.726   7.856   7.367
83176SOL    HW151425  10.780   7.905   7.429
83176SOL    HW251426  10.637   7.889   7.381
83177SOL     OW51427   2.261   7.176  13.311
83177SOL    HW151428   2.329   7.136  13.364
83177SOL    HW251429   2.299   7.185  13.224
83178SOL     OW51430   4.865   3.564  11.195
83178SOL    HW151431   4.781   3.610  11.190
83178SOL    HW251432   4.876   3.526  11.108
83179SOL     OW51433  13.161   2.101   3.520
83179SOL    HW151434  13.160   2.079   3.613
83179SOL    HW251435  13.238   2.156   3.508
83180SOL     OW51436   9.334   3.112  10.930
83180SOL    HW151437   9.273   3.082  10.862
83180SOL    HW251438   9.349   3.204  10.910
83181SOL     OW51439   9.866  11.786  10.996
83181SOL    HW151440   9.870  11.835  11.079
83181SOL    HW251441   9.852  11.853  10.930
83182SOL     OW51442   1.587  13.800   4.640
83182SOL    HW151443   1.539  13.883   4.649
83182SOL    HW251444   1.571  13.754   4.722
83183SOL     OW51445   1.743   3.263   6.009
83183SOL    HW151446   1.763   3.279   6.101
83183SOL    HW251447   1.828   3.267   5.965
83184SOL     OW51448   5.163  12.335  14.282
83184SOL    HW151449   5.153  12.429  14.275
83184SOL    HW251450   5.099  12.299  14.221
83185SOL     OW51451  12.267   0.012   3.721
83185SOL    HW151452  12.234  14.879   3.633
83185SOL    HW251453  12.361   0.025   3.708
83186SOL     OW51454  11.970  11.092   9.497
83186SOL    HW151455  11.956  11.148   9.421
83186SOL    HW251456  11.907  11.020   9.486
83187SOL     OW51457  11.570   5.634   5.742
83187SOL    HW151458  11.568   5.729   5.729
83187SOL    HW251459  11.629   5.602   5.674
83188SOL     OW51460   0.542   3.593   8.112
83188SOL    HW151461   0.601   3.665   8.092
83188SOL    HW251462   0.537   3.592   8.208
83189SOL     OW51463  12.884  14.145   9.030
83189SOL    HW151464  12.837  14.085   8.972
83189SOL    HW251465  12.976  14.129   9.010
83190SOL     OW51466  12.941   0.697   1.656
83190SOL    HW151467  12.968   0.774   1.605
83190SOL    HW251468  13.009   0.689   1.723
83191SOL     OW51469  13.198   5.696   2.044
83191SOL    HW151470  13.152   5.708   1.961
83191SOL    HW251471  13.276   5.750   2.036
83192SOL     OW51472  10.723  11.405  11.360
83192SOL    HW151473  10.657  11.428  11.426
83192SOL    HW251474  10.674  11.397  11.278
83193SOL     OW51475   7.775  10.142  14.870
83193SOL    HW151476   7.827  10.215  14.835
83193SOL    HW251477   7.841  10.079   0.014
83194SOL     OW51478  12.019   2.572  13.331
83194SOL    HW151479  12.047   2.654  13.372
83194SOL    HW251480  12.101   2.530  13.303
83195SOL     OW51481   9.302   1.594   8.603
83195SOL    HW151482   9.216   1.635   8.599
83195SOL    HW251483   9.310   1.547   8.519
83196SOL     OW51484   9.217   9.472  14.271
83196SOL    HW151485   9.279   9.449  14.201
83196SOL    HW251486   9.131   9.472  14.228
83197SOL     OW51487   0.611   1.109   1.481
83197SOL    HW151488   0.569   1.120   1.566
83197SOL    HW251489   0.642   1.197   1.458
83198SOL     OW51490  12.926   7.119   9.442
83198SOL    HW151491  12.912   7.189   9.378
83198SOL    HW251492  13.021   7.106   9.442
83199SOL     OW51493   1.476  14.089  13.072
83199SOL    HW151494   1.417  14.055  13.140
83199SOL    HW251495   1.476  14.022  13.004
83200SOL     OW51496   9.038   9.908   5.344
83200SOL    HW151497   9.052   9.924   5.437
83200SOL    HW251498   9.126   9.899   5.307
83201SOL     OW51499   5.194   8.639  11.588
83201SOL    HW151500   5.179   8.669  11.498
83201SOL    HW251501   5.224   8.717  11.634
83202SOL     OW51502   6.173  14.132   0.537
83202SOL    HW151503   6.164  14.221   0.501
83202SOL    HW251504   6.268  14.119   0.544
83203SOL     OW51505  12.715   1.129  12.132
83203SOL    HW151506  12.671   1.095  12.055
83203SOL    HW251507  12.657   1.107  12.205
83204SOL     OW51508   5.552   8.277   0.017
83204SOL    HW151509   5.564   8.199  14.850
83204SOL    HW251510   5.537   8.243   0.105
83205SOL     OW51511  14.089  11.810  11.137
83205SOL    HW151512  14.035  11.738  11.170
83205SOL    HW251513  14.155  11.766  11.082
83206SOL     OW51514   3.100   6.023  10.938
83206SOL    HW151515   3.061   6.108  10.961
83206SOL    HW251516   3.178   6.017  10.994
83207SOL     OW51517   1.830   1.959  13.316
83207SOL    HW151518   1.808   1.972  13.409
83207SOL    HW251519   1.843   2.048  13.283
83208SOL     OW51520  11.308   0.030   0.417
83208SOL    HW151521  11.336   0.107   0.368
83208SOL    HW251522  11.242   0.062   0.478
83209SOL     OW51523  14.548   4.625  12.192
83209SOL    HW151524  14.526   4.627  12.099
83209SOL    HW251525  14.468   4.595  12.235
83210SOL     OW51526   5.490  12.423   3.668
83210SOL    HW151527   5.516  12.337   3.701
83210SOL    HW251528   5.442  12.404   3.587
83211SOL     OW51529  10.850   2.897   1.961
83211SOL    HW151530  10.874   2.965   1.897
83211SOL    HW251531  10.843   2.817   1.910
83212SOL     OW51532  13.205   0.692   3.887
83212SOL    HW151533  13.291   0.731   3.900
83212SOL    HW251534  13.207   0.612   3.939
83213SOL     OW51535  11.028  12.582   5.378
83213SOL    HW151536  11.030  12.677   5.365
83213SOL    HW251537  10.938  12.558   5.357
83214SOL     OW51538  13.900   9.941   0.113
83214SOL    HW151539  13.826   9.907   0.163
83214SOL    HW251540  13.977   9.901   0.154
83215SOL     OW51541   7.002  11.815   4.123
83215SOL    HW151542   7.029  11.732   4.083
83215SOL    HW251543   6.945  11.789   4.196
83216SOL     OW51544   8.029   2.708  14.736
83216SOL    HW151545   7.968   2.752  14.795
83216SOL    HW251546   7.989   2.623  14.718
83217SOL     OW51547   0.330   8.743   8.552
83217SOL    HW151548   0.236   8.756   8.544
83217SOL    HW251549   0.342   8.649   8.539
83218SOL     OW51550   3.764   3.973   3.255
83218SOL    HW151551   3.735   3.988   3.345
83218SOL    HW251552   3.697   3.916   3.217
83219SOL     OW51553   1.625   8.604   4.137
83219SOL    HW151554   1.670   8.527   4.104
83219SOL    HW251555   1.552   8.617   4.075
83220SOL     OW51556   3.604   6.474   3.940
83220SOL    HW151557   3.533   6.414   3.916
83220SOL    HW251558   3.571   6.521   4.017
83221SOL     OW51559   8.431   1.181   1.325
83221SOL    HW151560   8.498   1.165   1.392
83221SOL    HW251561   8.438   1.275   1.307
83222SOL     OW51562   6.069   6.675  14.062
83222SOL    HW151563   6.156   6.699  14.033
83222SOL    HW251564   6.020   6.757  14.063
83223SOL     OW51565   1.911  10.360  10.733
83223SOL    HW151566   1.896  10.424  10.663
83223SOL    HW251567   1.823  10.332  10.759
83224SOL     OW51568   2.298   0.711   7.221
83224SOL    HW151569   2.324   0.631   7.175
83224SOL    HW251570   2.337   0.703   7.308
83225SOL     OW51571  12.476   6.905   4.680
83225SOL    HW151572  12.556   6.902   4.628
83225SOL    HW251573  12.505   6.934   4.766
83226SOL     OW51574   9.522   8.867   8.915
83226SOL    HW151575   9.517   8.774   8.936
83226SOL    HW251576   9.488   8.911   8.992
83227SOL     OW51577  10.182   9.607   6.176
83227SOL    HW151578  10.155   9.630   6.088
83227SOL    HW251579  10.149   9.518   6.189
83228SOL     OW51580   7.177   1.060   2.047
83228SOL    HW151581   7.250   1.015   2.089
83228SOL    HW251582   7.107   1.060   2.113
83229SOL     OW51583   9.333  10.385  12.526
83229SOL    HW151584   9.326  10.370  12.620
83229SOL    HW251585   9.298  10.473  12.513
83230SOL     OW51586  12.479   6.637   4.000
83230SOL    HW151587  12.420   6.620   4.074
83230SOL    HW251588  12.455   6.725   3.970
83231SOL     OW51589   1.584   4.062   7.887
83231SOL    HW151590   1.623   4.032   7.805
83231SOL    HW251591   1.643   4.029   7.955
83232SOL     OW51592   6.049   5.397   7.960
83232SOL    HW151593   5.976   5.342   7.987
83232SOL    HW251594   6.032   5.482   8.001
83233SOL     OW51595   3.813  12.837  10.045
83233SOL    HW151596   3.795  12.926  10.075
83233SOL    HW251597   3.844  12.791  10.122
83234SOL     OW51598   1.808   2.914   3.850
83234SOL    HW151599   1.722   2.950   3.870
83234SOL    HW251600   1.869   2.986   3.864
83235SOL     OW51601   7.120  14.066   9.044
83235SOL    HW151602   7.176  14.005   8.996
83235SOL    HW251603   7.169  14.086   9.123
83236SOL     OW51604   0.888   8.954  14.349
83236SOL    HW151605   0.866   9.030  14.295
83236SOL    HW251606   0.842   8.881  14.309
83237SOL     OW51607  13.149  11.492  12.253
83237SOL    HW151608  13.066  11.449  12.271
83237SOL    HW251609  13.125  11.576  12.214
83238SOL     OW51610  11.444   0.568  11.573
83238SOL    HW151611  11.381   0.599  11.638
83238SOL    HW251612  11.501   0.508  11.621
83239SOL     OW51613   5.014   8.709   9.524
83239SOL    HW151614   5.043   8.727   9.614
83239SOL    HW251615   5.077   8.646   9.491
83240SOL     OW51616   7.237   3.506   5.085
83240SOL    HW151617   7.306   3.563   5.118
83240SOL    HW251618   7.158   3.559   5.088
83241SOL     OW51619  14.165   9.398  10.577
83241SOL    HW151620  14.240   9.446  10.542
83241SOL    HW251621  14.094   9.417  10.516
83242SOL     OW51622   4.651   8.863   3.370
83242SOL    HW151623   4.724   8.910   3.409
83242SOL    HW251624   4.672   8.771   3.383
83243SOL     OW51625   1.167   4.110   5.956
83243SOL    HW151626   1.234   4.121   6.025
83243SOL    HW251627   1.116   4.034   5.985
83244SOL     OW51628   9.307   5.543   0.962
83244SOL    HW151629   9.232   5.548   1.021
83244SOL    HW251630   9.374   5.599   1.002
83245SOL     OW51631   9.684   3.982   1.415
83245SOL    HW151632   9.733   4.052   1.459
83245SOL    HW251633   9.740   3.905   1.421
83246SOL     OW51634  13.261   5.504   6.484
83246SOL    HW151635  13.226   5.419   6.460
83246SOL    HW251636  13.281   5.547   6.401
83247SOL     OW51637   5.640  12.186   1.914
83247SOL    HW151638   5.560  12.237   1.906
83247SOL    HW251639   5.693  12.213   1.839
83248SOL     OW51640  10.017   8.198  11.336
83248SOL    HW151641   9.955   8.228  11.270
83248SOL    HW251642  10.099   8.184  11.287
83249SOL     OW51643   6.796   2.316   7.452
83249SOL    HW151644   6.868   2.259   7.479
83249SOL    HW251645   6.735   2.258   7.407
83250SOL     OW51646   5.470   2.695   0.958
83250SOL    HW151647   5.546   2.644   0.984
83250SOL    HW251648   5.418   2.635   0.905
83251SOL     OW51649   0.498   9.030  13.753
83251SOL    HW151650   0.405   9.053  13.756
83251SOL    HW251651   0.543   9.113  13.771
83252SOL     OW51652   9.141   3.261  10.132
83252SOL    HW151653   9.110   3.213  10.208
83252SOL    HW251654   9.156   3.350  10.164
83253SOL     OW51655  13.839   6.119  11.509
83253SOL    HW151656  13.875   6.156  11.429
83253SOL    HW251657  13.869   6.028  11.509
83254SOL     OW51658   9.038  10.365   1.047
83254SOL    HW151659   9.081  10.279   1.045
83254SOL    HW251660   9.087  10.415   1.113
83255SOL     OW51661  12.225  10.967   1.140
83255SOL    HW151662  12.180  11.044   1.175
83255SOL    HW251663  12.172  10.940   1.066
83256SOL     OW51664  12.371   7.285  11.184
83256SOL    HW151665  12.451   7.280  11.132
83256SOL    HW251666  12.334   7.197  11.181
83257SOL     OW51667  12.330   2.971   9.787
83257SOL    HW151668  12.417   2.964   9.826
83257SOL    HW251669  12.321   2.892   9.734
83258SOL     OW51670   1.715   9.926   2.120
83258SOL    HW151671   1.657   9.944   2.194
83258SOL    HW251672   1.803   9.945   2.154
83259SOL     OW51673   2.378  13.298   7.453
83259SOL    HW151674   2.342  13.326   7.369
83259SOL    HW251675   2.457  13.351   7.464
83260SOL     OW51676   4.898   8.721   3.755
83260SOL    HW151677   4.930   8.790   3.812
83260SOL    HW251678   4.871   8.651   3.814
83261SOL     OW51679  12.857   4.294  11.905
83261SOL    HW151680  12.897   4.380  11.891
83261SOL    HW251681  12.929   4.239  11.937
83262SOL     OW51682   8.529  14.606  10.955
83262SOL    HW151683   8.476  14.622  11.033
83262SOL    HW251684   8.616  14.638  10.978
83263SOL     OW51685   5.479   6.378   2.142
83263SOL    HW151686   5.553   6.434   2.117
83263SOL    HW251687   5.520   6.299   2.177
83264SOL     OW51688   2.725   7.719   4.452
83264SOL    HW151689   2.696   7.653   4.389
83264SOL    HW251690   2.662   7.790   4.442
83265SOL     OW51691  12.734  13.798   9.335
83265SOL    HW151692  12.656  13.843   9.368
83265SOL    HW251693  12.785  13.777   9.413
83266SOL     OW51694   7.131  13.217  10.694
83266SOL    HW151695   7.217  13.178  10.709
83266SOL    HW251696   7.149  13.303  10.656
83267SOL     OW51697   4.174  10.595   3.707
83267SOL    HW151698   4.250  10.626   3.756
83267SOL    HW251699   4.100  10.643   3.745
83268SOL     OW51700   5.528   4.020   0.400
83268SOL    HW151701   5.455   3.961   0.380
83268SOL    HW251702   5.495   4.107   0.378
83269SOL     OW51703  11.206   8.691   0.341
83269SOL    HW151704  11.149   8.709   0.416
83269SOL    HW251705  11.267   8.765   0.339
83270SOL     OW51706   6.365   6.980   3.072
83270SOL    HW151707   6.326   7.063   3.048
83270SOL    HW251708   6.362   6.927   2.992
83271SOL     OW51709   8.979   1.975  13.337
83271SOL    HW151710   8.989   1.915  13.411
83271SOL    HW251711   8.942   1.921  13.267
83272SOL     OW51712   2.182  13.307   8.618
83272SOL    HW151713   2.108  13.257   8.652
83272SOL    HW251714   2.209  13.261   8.539
83273SOL     OW51715   7.966   8.113   3.417
83273SOL    HW151716   7.995   8.058   3.490
83273SOL    HW251717   7.943   8.197   3.457
83274SOL     OW51718   2.938   3.289   9.466
83274SOL    HW151719   3.000   3.229   9.506
83274SOL    HW251720   2.910   3.346   9.538
83275SOL     OW51721   2.589   2.338  12.404
83275SOL    HW151722   2.499   2.361  12.381
83275SOL    HW251723   2.639   2.357  12.325
83276SOL     OW51724   4.536   0.946   0.874
83276SOL    HW151725   4.543   1.042   0.873
83276SOL    HW251726   4.494   0.925   0.791
83277SOL     OW51727  10.893  13.059   1.634
83277SOL    HW151728  10.819  13.028   1.687
83277SOL    HW251729  10.895  13.001   1.559
83278SOL     OW51730   3.927   1.890  12.668
83278SOL    HW151731   3.973   1.834  12.605
83278SOL    HW251732   3.948   1.979  12.640
83279SOL     OW51733  12.531   6.830   8.359
83279SOL    HW151734  12.510   6.895   8.292
83279SOL    HW251735  12.528   6.879   8.441
83280SOL     OW51736   3.634   9.805   7.095
83280SOL    HW151737   3.713   9.805   7.041
83280SOL    HW251738   3.586   9.883   7.067
83281SOL     OW51739   1.219  12.797   0.588
83281SOL    HW151740   1.142  12.840   0.551
83281SOL    HW251741   1.188  12.758   0.669
83282SOL     OW51742   5.286  10.820   8.325
83282SOL    HW151743   5.224  10.749   8.341
83282SOL    HW251744   5.255  10.892   8.380
83283SOL     OW51745   7.108  11.141  11.537
83283SOL    HW151746   7.194  11.169  11.569
83283SOL    HW251747   7.055  11.221  11.538
83284SOL     OW51748   2.545   3.703   1.575
83284SOL    HW151749   2.552   3.773   1.640
83284SOL    HW251750   2.556   3.622   1.625
83285SOL     OW51751  10.932  14.508   8.267
83285SOL    HW151752  10.976  14.426   8.245
83285SOL    HW251753  10.907  14.546   8.182
83286SOL     OW51754   4.693  10.170  14.841
83286SOL    HW151755   4.650  10.085  14.849
83286SOL    HW251756   4.657  10.222   0.025
83287SOL     OW51757   8.908  14.231   1.710
83287SOL    HW151758   8.967  14.253   1.638
83287SOL    HW251759   8.908  14.136   1.714
83288SOL     OW51760   6.373   9.251   7.296
83288SOL    HW151761   6.351   9.159   7.284
83288SOL    HW251762   6.466   9.257   7.272
83289SOL     OW51763   2.986  11.123   2.482
83289SOL    HW151764   2.965  11.062   2.553
83289SOL    HW251765   3.047  11.185   2.521
83290SOL     OW51766  12.730  10.901   2.444
83290SOL    HW151767  12.782  10.910   2.364
83290SOL    HW251768  12.792  10.871   2.510
83291SOL     OW51769   7.832  12.980   6.116
83291SOL    HW151770   7.921  13.011   6.135
83291SOL    HW251771   7.788  12.979   6.201
83292SOL     OW51772   2.940  13.450  10.609
83292SOL    HW151773   2.913  13.409  10.691
83292SOL    HW251774   2.997  13.386  10.567
83293SOL     OW51775   3.232   9.777   4.413
83293SOL    HW151776   3.257   9.765   4.505
83293SOL    HW251777   3.137   9.786   4.415
83294SOL     OW51778  13.396   7.824   0.454
83294SOL    HW151779  13.438   7.746   0.418
83294SOL    HW251780  13.466   7.889   0.457
83295SOL     OW51781   2.763   7.621   3.322
83295SOL    HW151782   2.820   7.602   3.247
83295SOL    HW251783   2.793   7.707   3.352
83296SOL     OW51784   0.213   2.044   4.532
83296SOL    HW151785   0.137   1.999   4.569
83296SOL    HW251786   0.255   1.979   4.476
83297SOL     OW51787   4.054   1.274   9.002
83297SOL    HW151788   4.041   1.363   8.970
83297SOL    HW251789   4.148   1.257   8.989
83298SOL     OW51790   8.590   0.519   5.117
83298SOL    HW151791   8.510   0.505   5.067
83298SOL    HW251792   8.612   0.611   5.102
83299SOL     OW51793   7.289   3.799   6.737
83299SOL    HW151794   7.299   3.883   6.782
83299SOL    HW251795   7.337   3.737   6.791
83300SOL     OW51796   6.291  10.303   0.579
83300SOL    HW151797   6.246  10.338   0.656
83300SOL    HW251798   6.275  10.208   0.583
83301SOL     OW51799   9.453  11.928  11.485
83301SOL    HW151800   9.489  11.898  11.568
83301SOL    HW251801   9.450  12.023  11.492
83302SOL     OW51802   1.991  14.126  14.634
83302SOL    HW151803   1.932  14.181  14.582
83302SOL    HW251804   1.936  14.088  14.701
83303SOL     OW51805   9.788   2.423   5.426
83303SOL    HW151806   9.795   2.516   5.404
83303SOL    HW251807   9.772   2.421   5.520
83304SOL     OW51808   2.270  10.821   5.472
83304SOL    HW151809   2.334  10.750   5.477
83304SOL    HW251810   2.200  10.786   5.417
83305SOL     OW51811   7.990   6.317   1.236
83305SOL    HW151812   8.054   6.265   1.284
83305SOL    HW251813   7.906   6.276   1.254
83306SOL     OW51814  13.821   7.723  13.756
83306SOL    HW151815  13.826   7.781  13.832
83306SOL    HW251816  13.758   7.764  13.698
83307SOL     OW51817   4.654  12.203   6.536
83307SOL    HW151818   4.675  12.284   6.490
83307SOL    HW251819   4.571  12.174   6.499
83308SOL     OW51820   4.267  14.442  14.829
83308SOL    HW151821   4.183  14.461  14.788
83308SOL    HW251822   4.255  14.358  14.873
83309SOL     OW51823   1.799  10.744  13.506
83309SOL    HW151824   1.863  10.726  13.575
83309SOL    HW251825   1.741  10.809  13.545
83310SOL     OW51826  14.173   9.069   4.618
83310SOL    HW151827  14.135   8.984   4.595
83310SOL    HW251828  14.249   9.047   4.672
83311SOL     OW51829   1.815   0.780   6.735
83311SOL    HW151830   1.738   0.757   6.787
83311SOL    HW251831   1.873   0.825   6.796
83312SOL     OW51832   3.725   7.841   8.621
83312SOL    HW151833   3.674   7.777   8.572
83312SOL    HW251834   3.688   7.839   8.709
83313SOL     OW51835   0.005   0.214   0.192
83313SOL    HW151836   0.022   0.140   0.250
83313SOL    HW251837  14.849   0.176   0.116
83314SOL     OW51838   9.497   8.807   3.540
83314SOL    HW151839   9.414   8.761   3.530
83314SOL    HW251840   9.559   8.755   3.489
83315SOL     OW51841  10.923   6.237   5.176
83315SOL    HW151842  10.887   6.189   5.101
83315SOL    HW251843  10.969   6.312   5.137
83316SOL     OW51844   0.924   4.212   2.052
83316SOL    HW151845   0.911   4.185   1.961
83316SOL    HW251846   1.019   4.214   2.063
83317SOL     OW51847   8.524   5.723  11.187
83317SOL    HW151848   8.520   5.784  11.112
83317SOL    HW251849   8.555   5.777  11.259
83318SOL     OW51850   1.994   1.336   4.559
83318SOL    HW151851   1.909   1.340   4.514
83318SOL    HW251852   1.994   1.249   4.600
83319SOL     OW51853   6.839   5.785   6.273
83319SOL    HW151854   6.817   5.692   6.278
83319SOL    HW251855   6.878   5.796   6.186
83320SOL     OW51856   7.498  13.687   1.994
83320SOL    HW151857   7.403  13.700   1.990
83320SOL    HW251858   7.518  13.637   1.915
83321SOL     OW51859   0.961   2.088  13.296
83321SOL    HW151860   0.950   2.066  13.203
83321SOL    HW251861   0.872   2.109  13.326
83322SOL     OW51862   7.761   4.279   6.754
83322SOL    HW151863   7.851   4.257   6.731
83322SOL    HW251864   7.748   4.366   6.715
83323SOL     OW51865   7.400  13.850   8.003
83323SOL    HW151866   7.478  13.798   8.023
83323SOL    HW251867   7.328  13.803   8.044
83324SOL     OW51868   4.708   3.904  14.501
83324SOL    HW151869   4.742   3.848  14.571
83324SOL    HW251870   4.670   3.979  14.546
83325SOL     OW51871  10.922   1.320   6.941
83325SOL    HW151872  10.841   1.278   6.971
83325SOL    HW251873  10.947   1.378   7.014
83326SOL     OW51874  14.113  12.125   0.095
83326SOL    HW151875  14.085  12.168   0.176
83326SOL    HW251876  14.196  12.082   0.118
83327SOL     OW51877   4.247  13.862  12.820
83327SOL    HW151878   4.257  13.781  12.770
83327SOL    HW251879   4.328  13.871  12.870
83328SOL     OW51880  10.436  13.855   1.278
83328SOL    HW151881  10.474  13.786   1.224
83328SOL    HW251882  10.372  13.810   1.333
83329SOL     OW51883   5.230   8.903   5.251
83329SOL    HW151884   5.255   8.907   5.343
83329SOL    HW251885   5.249   8.814   5.224
83330SOL     OW51886  14.414  12.597   2.952
83330SOL    HW151887  14.397  12.586   2.859
83330SOL    HW251888  14.449  12.512   2.980
83331SOL     OW51889   8.623   2.281   0.000
83331SOL    HW151890   8.683   2.229   0.054
83331SOL    HW251891   8.681   2.335  14.833
83332SOL     OW51892   2.773   7.754  13.648
83332SOL    HW151893   2.836   7.724  13.713
83332SOL    HW251894   2.825   7.799  13.581
83333SOL     OW51895  10.048   0.575  11.170
83333SOL    HW151896  10.016   0.499  11.217
83333SOL    HW251897  10.072   0.638  11.238
83334SOL     OW51898   7.811   9.170   2.834
83334SOL    HW151899   7.836   9.078   2.821
83334SOL    HW251900   7.853   9.195   2.916
83335SOL     OW51901  13.275   6.633  13.223
83335SOL    HW151902  13.323   6.712  13.246
83335SOL    HW251903  13.278   6.630  13.128
83336SOL     OW51904  11.949  10.470  12.997
83336SOL    HW151905  11.868  10.432  12.962
83336SOL    HW251906  11.931  10.564  13.002
83337SOL     OW51907  10.106  13.711  14.203
83337SOL    HW151908  10.166  13.700  14.277
83337SOL    HW251909  10.093  13.622  14.169
83338SOL     OW51910   5.659  12.557   3.828
83338SOL    HW151911   5.745  12.551   3.786
83338SOL    HW251912   5.597  12.538   3.758
83339SOL     OW51913  14.392  10.658   3.780
83339SOL    HW151914  14.442  10.577   3.783
83339SOL    HW251915  14.309  10.634   3.739
83340SOL     OW51916   6.198   0.609   8.148
83340SOL    HW151917   6.166   0.519   8.153
83340SOL    HW251918   6.135   0.654   8.093
83341SOL     OW51919   6.693   1.243   5.689
83341SOL    HW151920   6.745   1.171   5.651
83341SOL    HW251921   6.612   1.201   5.717
83342SOL     OW51922   1.293   1.898   9.351
83342SOL    HW151923   1.308   1.828   9.288
83342SOL    HW251924   1.285   1.978   9.298
83343SOL     OW51925   0.699   7.779   1.898
83343SOL    HW151926   0.751   7.699   1.897
83343SOL    HW251927   0.636   7.768   1.826
83344SOL     OW51928   6.753  10.944  14.819
83344SOL    HW151929   6.847  10.936  14.806
83344SOL    HW251930   6.715  10.927  14.733
83345SOL     OW51931  14.383   4.516   9.783
83345SOL    HW151932  14.352   4.535   9.694
83345SOL    HW251933  14.402   4.602   9.820
83346SOL     OW51934   2.897   4.900   9.353
83346SOL    HW151935   2.939   4.828   9.401
83346SOL    HW251936   2.970   4.955   9.325
83347SOL     OW51937  11.457  13.028  11.239
83347SOL    HW151938  11.493  12.999  11.155
83347SOL    HW251939  11.462  12.951  11.296
83348SOL     OW51940   5.424  12.759  13.425
83348SOL    HW151941   5.401  12.734  13.335
83348SOL    HW251942   5.376  12.841  13.440
83349SOL     OW51943  11.475   3.274  10.983
83349SOL    HW151944  11.417   3.340  11.020
83349SOL    HW251945  11.540   3.324  10.934
83350SOL     OW51946   0.262  14.441   9.471
83350SOL    HW151947   0.234  14.489   9.393
83350SOL    HW251948   0.317  14.371   9.438
83351SOL     OW51949   4.721   2.652   4.462
83351SOL    HW151950   4.649   2.623   4.406
83351SOL    HW251951   4.792   2.672   4.401
83352SOL     OW51952   0.389   7.434  11.846
83352SOL    HW151953   0.340   7.362  11.887
83352SOL    HW251954   0.479   7.400  11.839
83353SOL     OW51955  13.206   5.157  11.456
83353SOL    HW151956  13.129   5.179  11.403
83353SOL    HW251957  13.194   5.207  11.538
83354SOL     OW51958   9.873  10.093   3.626
83354SOL    HW151959   9.942  10.079   3.562
83354SOL    HW251960   9.816  10.017   3.618
83355SOL     OW51961  14.783   8.573  10.316
83355SOL    HW151962  14.692   8.575  10.344
83355SOL    HW251963  14.788   8.636  10.245
83356SOL     OW51964   4.231   7.951  13.378
83356SOL    HW151965   4.168   7.978  13.312
83356SOL    HW251966   4.281   8.030  13.398
83357SOL     OW51967   3.329   1.195  13.470
83357SOL    HW151968   3.404   1.236  13.512
83357SOL    HW251969   3.356   1.184  13.378
83358SOL     OW51970  12.620  12.195   8.575
83358SOL    HW151971  12.641  12.120   8.631
83358SOL    HW251972  12.704  12.239   8.562
83359SOL     OW51973   8.151  10.330   2.716
83359SOL    HW151974   8.187  10.242   2.716
83359SOL    HW251975   8.229  10.387   2.714
83360SOL     OW51976   6.134   8.367  14.791
83360SOL    HW151977   6.188   8.431  14.838
83360SOL    HW251978   6.153   8.382  14.698
83361SOL     OW51979   9.812  14.317  14.024
83361SOL    HW151980   9.808  14.412  14.020
83361SOL    HW251981   9.836  14.290  13.935
83362SOL     OW51982   9.133  11.731   6.975
83362SOL    HW151983   9.216  11.685   6.989
83362SOL    HW251984   9.099  11.692   6.894
83363SOL     OW51985   1.656   6.040   6.091
83363SOL    HW151986   1.609   5.956   6.090
83363SOL    HW251987   1.715   6.033   6.167
83364SOL     OW51988   2.273   8.279  14.775
83364SOL    HW151989   2.239   8.294  14.686
83364SOL    HW251990   2.328   8.356  14.792
83365SOL     OW51991  12.603  11.809  14.859
83365SOL    HW151992  12.545  11.845   0.039
83365SOL    HW251993  12.590  11.866  14.783
83366SOL     OW51994  14.887   5.463  12.331
83366SOL    HW151995  14.886   5.555  12.358
83366SOL    HW251996  14.805   5.453  12.282
83367SOL     OW51997   6.231   4.896   4.075
83367SOL    HW151998   6.283   4.859   4.146
83367SOL    HW251999   6.294   4.939   4.018
83368SOL     OW52000   2.521   8.005  10.112
83368SOL    HW152001   2.456   7.990  10.180
83368SOL    HW252002   2.471   8.030  10.035
83369SOL     OW52003   8.116  10.745   9.354
83369SOL    HW152004   8.191  10.695   9.386
83369SOL    HW252005   8.136  10.760   9.261
83370SOL     OW52006   4.745  12.491   4.361
83370SOL    HW152007   4.765  12.562   4.300
83370SOL    HW252008   4.755  12.411   4.308
83371SOL     OW52009  12.926  12.804  10.898
83371SOL    HW152010  12.870  12.779  10.824
83371SOL    HW252011  13.000  12.849  10.857
83372SOL     OW52012   5.203   0.434   3.118
83372SOL    HW152013   5.213   0.497   3.189
83372SOL    HW252014   5.112   0.444   3.090
83373SOL     OW52015   0.146   9.067   0.482
83373SOL    HW152016   0.198   8.987   0.469
83373SOL    HW252017   0.055   9.039   0.472
83374SOL     OW52018  10.517   0.152  12.276
83374SOL    HW152019  10.476   0.067  12.293
83374SOL    HW252020  10.447   0.203  12.235
83375SOL     OW52021   2.115   0.348  10.516
83375SOL    HW152022   2.108   0.440  10.543
83375SOL    HW252023   2.198   0.318  10.553
83376SOL     OW52024  11.668   4.923   8.504
83376SOL    HW152025  11.711   4.856   8.557
83376SOL    HW252026  11.575   4.905   8.513
83377SOL     OW52027  10.457  14.555   0.171
83377SOL    HW152028  10.362  14.557   0.174
83377SOL    HW252029  10.477  14.533   0.080
83378SOL     OW52030   8.586   4.572   3.874
83378SOL    HW152031   8.618   4.588   3.786
83378SOL    HW252032   8.507   4.518   3.861
83379SOL     OW52033   1.262   2.193   9.305
83379SOL    HW152034   1.341   2.230   9.266
83379SOL    HW252035   1.262   2.226   9.395
83380SOL     OW52036   8.688   7.066   9.662
83380SOL    HW152037   8.651   7.085   9.576
83380SOL    HW252038   8.637   6.991   9.694
83381SOL     OW52039  12.113   2.926   1.687
83381SOL    HW152040  12.080   2.855   1.742
83381SOL    HW252041  12.082   2.906   1.599
83382SOL     OW52042  10.135   4.151   8.133
83382SOL    HW152043  10.083   4.082   8.173
83382SOL    HW252044  10.087   4.232   8.155
83383SOL     OW52045   4.684   1.977   0.824
83383SOL    HW152046   4.762   2.032   0.831
83383SOL    HW252047   4.716   1.888   0.839
83384SOL     OW52048   6.968   7.761   8.287
83384SOL    HW152049   6.877   7.790   8.295
83384SOL    HW252050   6.964   7.686   8.228
83385SOL     OW52051   6.341   2.433   6.225
83385SOL    HW152052   6.375   2.405   6.140
83385SOL    HW252053   6.364   2.362   6.285
83386SOL     OW52054  12.881  12.300   8.702
83386SOL    HW152055  12.872  12.232   8.769
83386SOL    HW252056  12.884  12.382   8.751
83387SOL     OW52057   7.823   0.439   3.224
83387SOL    HW152058   7.811   0.396   3.308
83387SOL    HW252059   7.851   0.368   3.165
83388SOL     OW52060  10.347  11.910   2.225
83388SOL    HW152061  10.273  11.895   2.168
83388SOL    HW252062  10.308  11.923   2.312
83389SOL     OW52063   0.235   0.902   5.920
83389SOL    HW152064   0.140   0.917   5.923
83389SOL    HW252065   0.246   0.838   5.850
83390SOL     OW52066   0.405   4.503   8.631
83390SOL    HW152067   0.381   4.572   8.569
83390SOL    HW252068   0.345   4.431   8.612
83391SOL     OW52069  14.753  12.003  10.472
83391SOL    HW152070  14.769  12.021  10.380
83391SOL    HW252071  14.749  12.089  10.513
83392SOL     OW52072   0.108   6.432   3.341
83392SOL    HW152073   0.125   6.448   3.434
83392SOL    HW252074   0.017   6.460   3.328
83393SOL     OW52075   1.649  11.405  13.119
83393SOL    HW152076   1.641  11.421  13.025
83393SOL    HW252077   1.632  11.311  13.129
83394SOL     OW52078  11.718  12.497   9.307
83394SOL    HW152079  11.801  12.488   9.356
83394SOL    HW252080  11.669  12.562   9.358
83395SOL     OW52081  10.511  12.747  12.813
83395SOL    HW152082  10.462  12.712  12.887
83395SOL    HW252083  10.495  12.684  12.742
83396SOL     OW52084  10.790   2.814   7.707
83396SOL    HW152085  10.849   2.769   7.646
83396SOL    HW252086  10.832   2.899   7.722
83397SOL     OW52087   4.450   3.635   7.175
83397SOL    HW152088   4.519   3.687   7.133
83397SOL    HW252089   4.409   3.696   7.236
83398SOL     OW52090  11.306   8.874  13.788
83398SOL    HW152091  11.327   8.904  13.699
83398SOL    HW252092  11.318   8.779  13.785
83399SOL     OW52093   1.488  14.789  11.017
83399SOL    HW152094   1.521  14.742  10.941
83399SOL    HW252095   1.397  14.760  11.025
83400SOL     OW52096   0.308  13.554   1.740
83400SOL    HW152097   0.231  13.511   1.702
83400SOL    HW252098   0.368  13.482   1.762
83401SOL     OW52099   5.787   1.548   1.221
83401SOL    HW152100   5.746   1.597   1.149
83401SOL    HW252101   5.801   1.613   1.290
83402SOL     OW52102  14.067   4.582  13.691
83402SOL    HW152103  14.073   4.597  13.596
83402SOL    HW252104  13.992   4.524  13.702
83403SOL     OW52105   6.934  11.579   2.998
83403SOL    HW152106   6.910  11.554   3.087
83403SOL    HW252107   7.027  11.599   3.002
83404SOL     OW52108  10.027   0.519   7.372
83404SOL    HW152109   9.976   0.472   7.306
83404SOL    HW252110   9.993   0.609   7.369
83405SOL     OW52111   7.897   4.846  11.503
83405SOL    HW152112   7.827   4.837  11.438
83405SOL    HW252113   7.917   4.757  11.530
83406SOL     OW52114   1.016   5.109   2.671
83406SOL    HW152115   1.066   5.150   2.601
83406SOL    HW252116   1.049   5.019   2.674
83407SOL     OW52117  12.003   3.529  12.695
83407SOL    HW152118  11.922   3.525  12.744
83407SOL    HW252119  12.045   3.444  12.710
83408SOL     OW52120   4.456  10.746   8.331
83408SOL    HW152121   4.459  10.826   8.279
83408SOL    HW252122   4.414  10.682   8.274
83409SOL     OW52123  11.776   7.019  11.688
83409SOL    HW152124  11.734   6.945  11.731
83409SOL    HW252125  11.818   6.982  11.610
83410SOL     OW52126  11.888   7.225  10.369
83410SOL    HW152127  11.973   7.200  10.405
83410SOL    HW252128  11.836   7.249  10.446
83411SOL     OW52129   7.331  10.477   1.717
83411SOL    HW152130   7.419  10.490   1.754
83411SOL    HW252131   7.273  10.525   1.776
83412SOL     OW52132   5.544  13.599   3.391
83412SOL    HW152133   5.596  13.594   3.311
83412SOL    HW252134   5.492  13.679   3.381
83413SOL     OW52135   1.033  13.787  13.033
83413SOL    HW152136   0.996  13.866  12.994
83413SOL    HW252137   0.966  13.720  13.021
83414SOL     OW52138   0.795  11.171  12.446
83414SOL    HW152139   0.787  11.151  12.353
83414SOL    HW252140   0.753  11.256  12.457
83415SOL     OW52141   7.751   5.693  13.378
83415SOL    HW152142   7.755   5.598  13.380
83415SOL    HW252143   7.833   5.719  13.336
83416SOL     OW52144   6.024   0.807  11.149
83416SOL    HW152145   5.957   0.751  11.187
83416SOL    HW252146   5.980   0.890  11.133
83417SOL     OW52147   3.233   2.789   3.688
83417SOL    HW152148   3.218   2.766   3.780
83417SOL    HW252149   3.327   2.777   3.676
83418SOL     OW52150   7.525   7.621   9.419
83418SOL    HW152151   7.431   7.629   9.432
83418SOL    HW252152   7.534   7.562   9.345
83419SOL     OW52153   7.806   9.383  14.089
83419SOL    HW152154   7.804   9.287  14.085
83419SOL    HW252155   7.716   9.409  14.107
83420SOL     OW52156  12.760  10.567   5.954
83420SOL    HW152157  12.804  10.484   5.936
83420SOL    HW252158  12.723  10.594   5.870
83421SOL     OW52159   7.647   3.472   5.946
83421SOL    HW152160   7.730   3.430   5.966
83421SOL    HW252161   7.582   3.402   5.952
83422SOL     OW52162   9.151   1.989   4.104
83422SOL    HW152163   9.068   2.019   4.067
83422SOL    HW252164   9.163   1.901   4.070
83423SOL     OW52165   7.996   4.173  13.493
83423SOL    HW152166   7.910   4.140  13.520
83423SOL    HW252167   8.059   4.117  13.539
83424SOL     OW52168   8.054   1.690  14.343
83424SOL    HW152169   8.034   1.598  14.361
83424SOL    HW252170   8.029   1.736  14.423
83425SOL     OW52171   9.509   9.656  10.909
83425SOL    HW152172   9.503   9.740  10.955
83425SOL    HW252173   9.506   9.679  10.816
83426SOL     OW52174   2.357   5.287  14.423
83426SOL    HW152175   2.282   5.307  14.367
83426SOL    HW252176   2.337   5.199  14.458
83427SOL     OW52177   6.336  10.735   9.377
83427SOL    HW152178   6.354  10.643   9.361
83427SOL    HW252179   6.421  10.778   9.372
83428SOL     OW52180   7.152   1.180   9.840
83428SOL    HW152181   7.074   1.235   9.832
83428SOL    HW252182   7.122   1.101   9.884
83429SOL     OW52183   8.207   4.404  10.504
83429SOL    HW152184   8.119   4.424  10.474
83429SOL    HW252185   8.244   4.348  10.436
83430SOL     OW52186   9.083  10.002   6.991
83430SOL    HW152187   9.158   9.947   6.968
83430SOL    HW252188   9.008   9.958   6.951
83431SOL     OW52189  12.026  13.456   9.166
83431SOL    HW152190  12.012  13.496   9.252
83431SOL    HW252191  12.113  13.485   9.140
83432SOL     OW52192   8.418   0.908   9.104
83432SOL    HW152193   8.442   0.839   9.043
83432SOL    HW252194   8.482   0.977   9.089
83433SOL     OW52195  13.405   0.125  12.616
83433SOL    HW152196  13.460   0.201  12.636
83433SOL    HW252197  13.316   0.159  12.620
83434SOL     OW52198   2.684   1.622   4.924
83434SOL    HW152199   2.658   1.710   4.893
83434SOL    HW252200   2.658   1.620   5.016
83435SOL     OW52201   7.923   4.374   5.752
83435SOL    HW152202   7.998   4.380   5.811
83435SOL    HW252203   7.879   4.293   5.778
83436SOL     OW52204  11.881  12.579   8.870
83436SOL    HW152205  11.897  12.627   8.789
83436SOL    HW252206  11.869  12.488   8.843
83437SOL     OW52207   1.797   8.697   2.695
83437SOL    HW152208   1.875   8.754   2.692
83437SOL    HW252209   1.810   8.643   2.772
83438SOL     OW52210   7.511   1.284   8.861
83438SOL    HW152211   7.567   1.265   8.936
83438SOL    HW252212   7.545   1.228   8.791
83439SOL     OW52213   2.311   3.803   0.392
83439SOL    HW152214   2.396   3.819   0.351
83439SOL    HW252215   2.296   3.710   0.379
83440SOL     OW52216   4.641   3.952  10.304
83440SOL    HW152217   4.631   3.966  10.398
83440SOL    HW252218   4.680   4.033  10.272
83441SOL     OW52219  10.411   3.218   7.664
83441SOL    HW152220  10.420   3.130   7.627
83441SOL    HW252221  10.500   3.244   7.686
83442SOL     OW52222   5.805   6.596   5.533
83442SOL    HW152223   5.763   6.546   5.603
83442SOL    HW252224   5.738   6.602   5.465
83443SOL     OW52225   3.696   9.101   9.709
83443SOL    HW152226   3.622   9.156   9.736
83443SOL    HW252227   3.772   9.143   9.751
83444SOL     OW52228   5.787   8.254   2.496
83444SOL    HW152229   5.716   8.308   2.461
83444SOL    HW252230   5.864   8.279   2.445
83445SOL     OW52231   0.177  11.968   6.282
83445SOL    HW152232   0.141  11.947   6.196
83445SOL    HW252233   0.210  12.057   6.273
83446SOL     OW52234  14.505  13.527  12.204
83446SOL    HW152235  14.414  13.535  12.233
83446SOL    HW252236  14.527  13.613  12.168
83447SOL     OW52237   0.088  12.108  12.707
83447SOL    HW152238   0.016  12.049  12.731
83447SOL    HW252239   0.100  12.093  12.613
83448SOL     OW52240  13.754  11.698  12.596
83448SOL    HW152241  13.669  11.700  12.641
83448SOL    HW252242  13.806  11.764  12.641
83449SOL     OW52243  13.338   4.509   3.339
83449SOL    HW152244  13.319   4.582   3.397
83449SOL    HW252245  13.355   4.549   3.254
83450SOL     OW52246   1.370   0.475   2.129
83450SOL    HW152247   1.327   0.405   2.178
83450SOL    HW252248   1.307   0.499   2.061
83451SOL     OW52249   1.392  11.001   7.421
83451SOL    HW152250   1.425  10.939   7.486
83451SOL    HW252251   1.465  11.060   7.403
83452SOL     OW52252  13.218  14.554  12.621
83452SOL    HW152253  13.277  14.629  12.623
83452SOL    HW252254  13.151  14.578  12.558
83453SOL     OW52255   0.081   1.523  14.417
83453SOL    HW152256  14.875   1.545  14.411
83453SOL    HW252257   0.095   1.459  14.346
83454SOL     OW52258   0.379   4.164  12.275
83454SOL    HW152259   0.337   4.106  12.211
83454SOL    HW252260   0.467   4.128  12.286
83455SOL     OW52261   6.212   8.211   3.733
83455SOL    HW152262   6.277   8.178   3.795
83455SOL    HW252263   6.171   8.132   3.697
83456SOL     OW52264   9.729   3.950  13.187
83456SOL    HW152265   9.807   3.968  13.239
83456SOL    HW252266   9.685   3.878  13.232
83457SOL     OW52267   7.873  14.070   3.301
83457SOL    HW152268   7.781  14.093   3.316
83457SOL    HW252269   7.883  14.074   3.206
83458SOL     OW52270  13.834   4.556   1.535
83458SOL    HW152271  13.876   4.603   1.463
83458SOL    HW252272  13.771   4.618   1.572
83459SOL     OW52273  13.550  12.321   3.678
83459SOL    HW152274  13.484  12.353   3.616
83459SOL    HW252275  13.572  12.397   3.731
83460SOL     OW52276   6.244   0.079   0.060
83460SOL    HW152277   6.249   0.106  14.855
83460SOL    HW252278   6.328   0.106   0.097
83461SOL     OW52279  11.630   4.608   0.663
83461SOL    HW152280  11.676   4.580   0.742
83461SOL    HW252281  11.696   4.652   0.609
83462SOL     OW52282  12.881   2.195   8.729
83462SOL    HW152283  12.853   2.272   8.679
83462SOL    HW252284  12.878   2.224   8.821
83463SOL     OW52285   3.595  10.007  13.380
83463SOL    HW152286   3.520   9.996  13.322
83463SOL    HW252287   3.627  10.095  13.360
83464SOL     OW52288  10.706   5.610   5.137
83464SOL    HW152289  10.624   5.561   5.141
83464SOL    HW252290  10.749   5.578   5.058
83465SOL     OW52291   5.483   0.226   8.468
83465SOL    HW152292   5.566   0.241   8.513
83465SOL    HW252293   5.448   0.146   8.508
83466SOL     OW52294   2.048   6.671  10.773
83466SOL    HW152295   2.091   6.700  10.693
83466SOL    HW252296   2.066   6.577  10.777
83467SOL     OW52297   6.222  10.340  12.077
83467SOL    HW152298   6.193  10.346  12.168
83467SOL    HW252299   6.317  10.346  12.081
83468SOL     OW52300   5.201   5.130  12.647
83468SOL    HW152301   5.176   5.148  12.738
83468SOL    HW252302   5.217   5.036  12.645
83469SOL     OW52303   8.441   6.507   4.850
83469SOL    HW152304   8.396   6.591   4.862
83469SOL    HW252305   8.389   6.461   4.783
83470SOL     OW52306   5.553   6.297   3.520
83470SOL    HW152307   5.583   6.216   3.561
83470SOL    HW252308   5.508   6.268   3.441
83471SOL     OW52309   3.409   8.299  14.747
83471SOL    HW152310   3.371   8.356  14.814
83471SOL    HW252311   3.341   8.233  14.731
83472SOL     OW52312   2.996  12.815   6.225
83472SOL    HW152313   2.963  12.757   6.157
83472SOL    HW252314   3.040  12.757   6.287
83473SOL     OW52315   5.480   4.938  10.503
83473SOL    HW152316   5.543   4.999  10.541
83473SOL    HW252317   5.401   4.948  10.557
83474SOL     OW52318   3.929  14.799   9.520
83474SOL    HW152319   3.964  14.799   9.431
83474SOL    HW252320   3.837  14.775   9.509
83475SOL     OW52321   7.390   2.764   5.010
83475SOL    HW152322   7.314   2.768   4.952
83475SOL    HW252323   7.380   2.681   5.057
83476SOL     OW52324   1.608   6.923  11.996
83476SOL    HW152325   1.652   6.853  12.045
83476SOL    HW252326   1.551   6.964  12.061
83477SOL     OW52327   6.595  10.850   9.366
83477SOL    HW152328   6.563  10.940   9.376
83477SOL    HW252329   6.603  10.817   9.456
83478SOL     OW52330  14.095  13.825   5.332
83478SOL    HW152331  14.164  13.760   5.321
83478SOL    HW252332  14.037  13.787   5.399
83479SOL     OW52333   1.809   0.082   4.095
83479SOL    HW152334   1.802   0.147   4.165
83479SOL    HW252335   1.902   0.064   4.087
83480SOL     OW52336   3.924   9.712   7.471
83480SOL    HW152337   3.908   9.619   7.485
83480SOL    HW252338   4.001   9.714   7.413
83481SOL     OW52339   1.847  10.553   4.400
83481SOL    HW152340   1.812  10.467   4.423
83481SOL    HW252341   1.809  10.573   4.314
83482SOL     OW52342   2.168   7.745  11.724
83482SOL    HW152343   2.118   7.748  11.642
83482SOL    HW252344   2.259   7.749  11.696
83483SOL     OW52345   2.085  13.617   3.546
83483SOL    HW152346   2.078  13.711   3.562
83483SOL    HW252347   2.098  13.578   3.633
83484SOL     OW52348   3.026   8.375  11.214
83484SOL    HW152349   3.064   8.343  11.133
83484SOL    HW252350   3.067   8.323  11.283
83485SOL     OW52351   4.026  11.340   9.194
83485SOL    HW152352   3.988  11.253   9.198
83485SOL    HW252353   3.955  11.397   9.164
83486SOL     OW52354  13.906   3.874   4.579
83486SOL    HW152355  13.988   3.911   4.547
83486SOL    HW252356  13.931   3.792   4.622
83487SOL     OW52357  11.547  13.460   4.400
83487SOL    HW152358  11.543  13.377   4.353
83487SOL    HW252359  11.603  13.516   4.346
83488SOL     OW52360  13.001  13.892   2.023
83488SOL    HW152361  13.018  13.806   2.060
83488SOL    HW252362  12.959  13.875   1.939
83489SOL     OW52363   0.682   7.898   9.834
83489SOL    HW152364   0.648   7.910   9.922
83489SOL    HW252365   0.647   7.972   9.784
83490SOL     OW52366  11.451  12.610   0.415
83490SOL    HW152367  11.364  12.591   0.452
83490SOL    HW252368  11.504  12.534   0.437
83491SOL     OW52369   7.429   7.746   3.702
83491SOL    HW152370   7.514   7.762   3.742
83491SOL    HW252371   7.431   7.653   3.679
83492SOL     OW52372   0.938   8.224   6.507
83492SOL    HW152373   0.931   8.320   6.508
83492SOL    HW252374   0.892   8.196   6.586
83493SOL     OW52375  11.734  12.193   9.386
83493SOL    HW152376  11.749  12.275   9.338
83493SOL    HW252377  11.699  12.133   9.320
83494SOL     OW52378   9.126   0.747   2.746
83494SOL    HW152379   9.151   0.838   2.726
83494SOL    HW252380   9.031   0.750   2.754
83495SOL     OW52381   8.335  14.031  12.827
83495SOL    HW152382   8.334  13.937  12.849
83495SOL    HW252383   8.252  14.064  12.861
83496SOL     OW52384   5.915   5.115   1.439
83496SOL    HW152385   5.880   5.027   1.449
83496SOL    HW252386   5.978   5.108   1.367
83497SOL     OW52387  13.273   6.715   6.840
83497SOL    HW152388  13.337   6.688   6.906
83497SOL    HW252389  13.320   6.779   6.786
83498SOL     OW52390  14.265   5.054   0.898
83498SOL    HW152391  14.333   5.073   0.963
83498SOL    HW252392  14.201   5.124   0.910
83499SOL     OW52393   1.310   1.439   4.505
83499SOL    HW152394   1.397   1.425   4.468
83499SOL    HW252395   1.277   1.351   4.522
83500SOL     OW52396  12.535  12.931   7.305
83500SOL    HW152397  12.473  12.991   7.263
83500SOL    HW252398  12.497  12.914   7.391
83501SOL     OW52399  14.262   7.178   5.808
83501SOL    HW152400  14.236   7.097   5.852
83501SOL    HW252401  14.180   7.227   5.796
83502SOL     OW52402   9.138   0.705   9.373
83502SOL    HW152403   9.227   0.723   9.403
83502SOL    HW252404   9.141   0.717   9.278
83503SOL     OW52405  13.845  12.669   3.101
83503SOL    HW152406  13.808  12.753   3.125
83503SOL    HW252407  13.784  12.633   3.036
83504SOL     OW52408   9.632  14.771   0.299
83504SOL    HW152409   9.556  14.778   0.358
83504SOL    HW252410   9.624  14.847   0.241
83505SOL     OW52411   6.476  13.810   4.457
83505SOL    HW152412   6.423  13.780   4.531
83505SOL    HW252413   6.437  13.768   4.381
83506SOL     OW52414   6.464   7.404  12.435
83506SOL    HW152415   6.436   7.327  12.485
83506SOL    HW252416   6.456   7.376  12.343
83507SOL     OW52417  13.877   8.283   3.862
83507SOL    HW152418  13.854   8.197   3.827
83507SOL    HW252419  13.798   8.336   3.849
83508SOL     OW52420   4.607  11.527  13.923
83508SOL    HW152421   4.634  11.545  13.832
83508SOL    HW252422   4.687  11.503  13.968
83509SOL     OW52423   2.868  11.701  12.272
83509SOL    HW152424   2.890  11.610  12.288
83509SOL    HW252425   2.912  11.750  12.341
83510SOL     OW52426   1.722  14.857   8.460
83510SOL    HW152427   1.814  14.875   8.442
83510SOL    HW252428   1.675   0.005   8.385
83511SOL     OW52429   4.664  14.808   3.290
83511SOL    HW152430   4.716  14.779   3.365
83511SOL    HW252431   4.718  14.875   3.248
83512SOL     OW52432  14.408  14.016   4.530
83512SOL    HW152433  14.337  14.072   4.499
83512SOL    HW252434  14.394  14.010   4.625
83513SOL     OW52435   7.737   0.746   5.029
83513SOL    HW152436   7.751   0.794   4.948
83513SOL    HW252437   7.649   0.707   5.019
83514SOL     OW52438  12.895   1.047   9.465
83514SOL    HW152439  12.969   1.095   9.430
83514SOL    HW252440  12.934   0.973   9.511
83515SOL     OW52441   5.131  11.394   6.808
83515SOL    HW152442   5.089  11.419   6.725
83515SOL    HW252443   5.060  11.396   6.872
83516SOL     OW52444  10.396   5.124  12.277
83516SOL    HW152445  10.403   5.033  12.306
83516SOL    HW252446  10.479   5.163  12.304
83517SOL     OW52447   7.041   9.298   5.118
83517SOL    HW152448   7.061   9.236   5.188
83517SOL    HW252449   7.051   9.384   5.158
83518SOL     OW52450   8.040   1.851   1.226
83518SOL    HW152451   7.966   1.859   1.286
83518SOL    HW252452   8.020   1.773   1.174
83519SOL     OW52453  11.678   3.367   7.073
83519SOL    HW152454  11.699   3.295   7.014
83519SOL    HW252455  11.591   3.395   7.047
83520SOL     OW52456  10.879   0.073   7.004
83520SOL    HW152457  10.935   0.009   7.047
83520SOL    HW252458  10.926   0.156   7.013
83521SOL     OW52459   9.720   1.868   6.430
83521SOL    HW152460   9.724   1.941   6.368
83521SOL    HW252461   9.792   1.885   6.491
83522SOL     OW52462   9.244   4.984   3.806
83522SOL    HW152463   9.181   5.056   3.799
83522SOL    HW252464   9.324   5.026   3.838
83523SOL     OW52465   9.813   8.424   3.411
83523SOL    HW152466   9.888   8.409   3.468
83523SOL    HW252467   9.833   8.374   3.331
83524SOL     OW52468   1.100   7.010   2.206
83524SOL    HW152469   1.054   7.086   2.240
83524SOL    HW252470   1.074   6.938   2.262
83525SOL     OW52471   9.521   3.494   2.580
83525SOL    HW152472   9.471   3.551   2.521
83525SOL    HW252473   9.579   3.554   2.627
83526SOL     OW52474   3.080  10.997   7.307
83526SOL    HW152475   3.043  11.033   7.227
83526SOL    HW252476   3.004  10.971   7.359
83527SOL     OW52477  10.734  12.302  13.055
83527SOL    HW152478  10.722  12.352  12.974
83527SOL    HW252479  10.682  12.350  13.120
83528SOL     OW52480  11.594   4.036   5.999
83528SOL    HW152481  11.557   3.960   5.954
83528SOL    HW252482  11.683   4.010   6.021
83529SOL     OW52483   0.201   2.517  10.542
83529SOL    HW152484   0.199   2.567  10.461
83529SOL    HW252485   0.114   2.529  10.580
83530SOL     OW52486   4.011  12.268   1.818
83530SOL    HW152487   3.980  12.177   1.817
83530SOL    HW252488   3.971  12.305   1.896
83531SOL     OW52489  10.157   4.712   1.873
83531SOL    HW152490  10.095   4.640   1.869
83531SOL    HW252491  10.237   4.673   1.910
83532SOL     OW52492   5.799  14.371   4.082
83532SOL    HW152493   5.858  14.399   4.152
83532SOL    HW252494   5.857  14.341   4.013
83533SOL     OW52495  10.275  13.458   1.635
83533SOL    HW152496  10.203  13.476   1.696
83533SOL    HW252497  10.309  13.373   1.661
83534SOL     OW52498   8.198   7.756   4.205
83534SOL    HW152499   8.127   7.814   4.176
83534SOL    HW252500   8.224   7.791   4.290
83535SOL     OW52501  11.248   5.503  12.017
83535SOL    HW152502  11.319   5.460  11.969
83535SOL    HW252503  11.191   5.431  12.045
83536SOL     OW52504   1.556   6.808   5.215
83536SOL    HW152505   1.548   6.740   5.283
83536SOL    HW252506   1.465   6.828   5.192
83537SOL     OW52507  14.720  11.420   1.059
83537SOL    HW152508  14.631  11.446   1.082
83537SOL    HW252509  14.745  11.479   0.988
83538SOL     OW52510   8.393   1.651   5.728
83538SOL    HW152511   8.396   1.586   5.657
83538SOL    HW252512   8.378   1.600   5.807
83539SOL     OW52513  13.004   2.705   7.660
83539SOL    HW152514  13.033   2.742   7.577
83539SOL    HW252515  12.920   2.664   7.641
83540SOL     OW52516  12.886   7.474   9.986
83540SOL    HW152517  12.903   7.556   9.938
83540SOL    HW252518  12.792   7.460   9.978
83541SOL     OW52519   1.113  11.401   6.358
83541SOL    HW152520   1.057  11.341   6.407
83541SOL    HW252521   1.160  11.450   6.425
83542SOL     OW52522   6.334   8.557   2.980
83542SOL    HW152523   6.414   8.565   3.031
83542SOL    HW252524   6.293   8.644   2.984
83543SOL     OW52525  11.870  11.475   8.582
83543SOL    HW152526  11.897  11.383   8.579
83543SOL    HW252527  11.930  11.519   8.522
83544SOL     OW52528   9.358  11.932   8.360
83544SOL    HW152529   9.283  11.898   8.408
83544SOL    HW252530   9.378  11.863   8.296
83545SOL     OW52531  10.156   3.097   8.983
83545SOL    HW152532  10.121   3.070   8.898
83545SOL    HW252533  10.122   3.186   8.995
83546SOL     OW52534   0.785   1.384  13.987
83546SOL    HW152535   0.839   1.315  14.026
83546SOL    HW252536   0.786   1.365  13.893
83547SOL     OW52537   1.457  11.545  11.673
83547SOL    HW152538   1.548  11.513  11.673
83547SOL    HW252539   1.458  11.619  11.612
83548SOL     OW52540  10.687   8.442   9.689
83548SOL    HW152541  10.591   8.439   9.697
83548SOL    HW252542  10.714   8.513   9.747
83549SOL     OW52543   4.024   8.896   7.238
83549SOL    HW152544   4.117   8.872   7.226
83549SOL    HW252545   3.986   8.886   7.151
83550SOL     OW52546   2.927   2.440   9.095
83550SOL    HW152547   2.934   2.533   9.076
83550SOL    HW252548   2.834   2.420   9.086
83551SOL     OW52549   6.292   4.266   4.041
83551SOL    HW152550   6.338   4.200   4.092
83551SOL    HW252551   6.355   4.338   4.032
83552SOL     OW52552  11.557   3.205  10.094
83552SOL    HW152553  11.609   3.127  10.078
83552SOL    HW252554  11.496   3.179  10.163
83553SOL     OW52555  13.277   5.567   8.618
83553SOL    HW152556  13.294   5.661   8.633
83553SOL    HW252557  13.182   5.561   8.609
83554SOL     OW52558   4.752   0.194   0.598
83554SOL    HW152559   4.832   0.146   0.577
83554SOL    HW252560   4.684   0.150   0.546
83555SOL     OW52561  12.546   1.301   0.294
83555SOL    HW152562  12.501   1.238   0.238
83555SOL    HW252563  12.518   1.278   0.383
83556SOL     OW52564   8.985   0.221   6.832
83556SOL    HW152565   9.041   0.225   6.754
83556SOL    HW252566   8.901   0.256   6.802
83557SOL     OW52567   6.577   8.043  11.523
83557SOL    HW152568   6.487   8.073  11.535
83557SOL    HW252569   6.581   7.959  11.568
83558SOL     OW52570   3.635   5.321   0.718
83558SOL    HW152571   3.649   5.308   0.812
83558SOL    HW252572   3.560   5.381   0.713
83559SOL     OW52573   4.712   7.070   2.345
83559SOL    HW152574   4.654   6.996   2.324
83559SOL    HW252575   4.660   7.125   2.403
83560SOL     OW52576  12.961   8.867   7.763
83560SOL    HW152577  13.022   8.804   7.724
83560SOL    HW252578  12.883   8.862   7.708
83561SOL     OW52579   6.453  13.793   9.139
83561SOL    HW152580   6.523  13.736   9.107
83561SOL    HW252581   6.398  13.735   9.193
83562SOL     OW52582  10.692   5.909   3.566
83562SOL    HW152583  10.754   5.880   3.632
83562SOL    HW252584  10.636   5.833   3.550
83563SOL     OW52585   3.200  13.922   0.667
83563SOL    HW152586   3.156  13.837   0.664
83563SOL    HW252587   3.290  13.903   0.640
83564SOL     OW52588   5.746  13.527   8.405
83564SOL    HW152589   5.738  13.436   8.377
83564SOL    HW252590   5.739  13.578   8.324
83565SOL     OW52591   1.280   6.016  14.526
83565SOL    HW152592   1.352   6.046  14.582
83565SOL    HW252593   1.321   5.998  14.442
83566SOL     OW52594  10.033  11.073   0.544
83566SOL    HW152595   9.968  11.049   0.477
83566SOL    HW252596   9.994  11.042   0.626
83567SOL     OW52597   7.423   1.513   7.953
83567SOL    HW152598   7.478   1.453   7.902
83567SOL    HW252599   7.394   1.579   7.890
83568SOL     OW52600  13.761   9.798   9.190
83568SOL    HW152601  13.779   9.711   9.226
83568SOL    HW252602  13.763   9.855   9.267
83569SOL     OW52603  11.952  11.325   5.579
83569SOL    HW152604  12.000  11.299   5.658
83569SOL    HW252605  11.921  11.242   5.542
83570SOL     OW52606   7.127  14.481   2.606
83570SOL    HW152607   7.114  14.533   2.527
83570SOL    HW252608   7.084  14.397   2.587
83571SOL     OW52609  11.603   4.770   7.636
83571SOL    HW152610  11.685   4.798   7.677
83571SOL    HW252611  11.561   4.715   7.703
83572SOL     OW52612  12.471   1.655   0.708
83572SOL    HW152613  12.466   1.679   0.801
83572SOL    HW252614  12.391   1.604   0.692
83573SOL     OW52615  13.266   2.227  12.746
83573SOL    HW152616  13.249   2.139  12.778
83573SOL    HW252617  13.355   2.246  12.774
83574SOL     OW52618  13.176  11.118   3.410
83574SOL    HW152619  13.241  11.048   3.402
83574SOL    HW252620  13.210  11.189   3.356
83575SOL     OW52621   9.179   6.165  12.358
83575SOL    HW152622   9.131   6.228  12.413
83575SOL    HW252623   9.260   6.210  12.336
83576SOL     OW52624   9.298  12.142   9.967
83576SOL    HW152625   9.380  12.160   9.921
83576SOL    HW252626   9.301  12.049   9.987
83577SOL     OW52627  11.423   4.171   0.793
83577SOL    HW152628  11.396   4.160   0.702
83577SOL    HW252629  11.384   4.096   0.838
83578SOL     OW52630   7.411   1.697  11.131
83578SOL    HW152631   7.344   1.704  11.199
83578SOL    HW252632   7.361   1.698  11.049
83579SOL     OW52633   4.438   8.999   9.472
83579SOL    HW152634   4.458   8.911   9.441
83579SOL    HW252635   4.389   8.986   9.554
83580SOL     OW52636  11.222   6.134  12.901
83580SOL    HW152637  11.270   6.088  12.831
83580SOL    HW252638  11.131   6.106  12.889
83581SOL     OW52639   9.709  12.240   6.898
83581SOL    HW152640   9.724  12.152   6.861
83581SOL    HW252641   9.685  12.293   6.822
83582SOL     OW52642   9.581   6.324   6.500
83582SOL    HW152643   9.519   6.394   6.522
83582SOL    HW252644   9.609   6.289   6.585
83583SOL     OW52645   6.659   9.228  12.145
83583SOL    HW152646   6.751   9.228  12.168
83583SOL    HW252647   6.644   9.143  12.104
83584SOL     OW52648   5.897   6.697  14.565
83584SOL    HW152649   5.835   6.642  14.518
83584SOL    HW252650   5.870   6.787  14.544
83585SOL     OW52651   3.223  13.352   6.507
83585SOL    HW152652   3.146  13.389   6.463
83585SOL    HW252653   3.237  13.409   6.583
83586SOL     OW52654   7.970   6.151   4.757
83586SOL    HW152655   7.920   6.188   4.830
83586SOL    HW252656   7.937   6.062   4.748
83587SOL     OW52657   4.361   7.883  13.820
83587SOL    HW152658   4.444   7.837  13.813
83587SOL    HW252659   4.330   7.863  13.908
83588SOL     OW52660  10.830   8.286   6.705
83588SOL    HW152661  10.834   8.355   6.639
83588SOL    HW252662  10.902   8.227   6.682
83589SOL     OW52663   8.474   9.828   7.652
83589SOL    HW152664   8.390   9.839   7.697
83589SOL    HW252665   8.513   9.750   7.692
83590SOL     OW52666   8.144  13.241  14.503
83590SOL    HW152667   8.134  13.154  14.465
83590SOL    HW252668   8.062  13.255  14.550
83591SOL     OW52669   5.666   1.180   7.922
83591SOL    HW152670   5.719   1.145   7.994
83591SOL    HW252671   5.600   1.233   7.965
83592SOL     OW52672  10.966   0.523   9.619
83592SOL    HW152673  10.945   0.605   9.575
83592SOL    HW252674  10.881   0.479   9.629
83593SOL     OW52675   7.772   4.166   5.794
83593SOL    HW152676   7.743   4.168   5.703
83593SOL    HW252677   7.778   4.073   5.815
83594SOL     OW52678   8.839   8.387  13.452
83594SOL    HW152679   8.896   8.402  13.376
83594SOL    HW252680   8.788   8.310  13.428
83595SOL     OW52681  11.978   7.523   6.150
83595SOL    HW152682  11.967   7.441   6.197
83595SOL    HW252683  11.929   7.511   6.069
83596SOL     OW52684   0.301   3.937  13.849
83596SOL    HW152685   0.234   3.981  13.901
83596SOL    HW252686   0.253   3.874  13.797
83597SOL     OW52687   5.193  10.469   0.462
83597SOL    HW152688   5.273  10.501   0.421
83597SOL    HW252689   5.209  10.477   0.556
83598SOL     OW52690  10.221   8.509   0.659
83598SOL    HW152691  10.226   8.603   0.675
83598SOL    HW252692  10.210   8.471   0.746
83599SOL     OW52693   6.780  13.571   6.159
83599SOL    HW152694   6.830  13.543   6.082
83599SOL    HW252695   6.839  13.630   6.206
83600SOL     OW52696   5.820  11.224  10.533
83600SOL    HW152697   5.740  11.237  10.482
83600SOL    HW252698   5.872  11.163  10.482
83601SOL     OW52699   7.510  13.892   0.755
83601SOL    HW152700   7.594  13.929   0.731
83601SOL    HW252701   7.530  13.827   0.822
83602SOL     OW52702  10.124  14.365   8.929
83602SOL    HW152703  10.139  14.426   9.001
83602SOL    HW252704  10.198  14.378   8.870
83603SOL     OW52705   2.417   5.973   9.422
83603SOL    HW152706   2.443   6.065   9.431
83603SOL    HW252707   2.372   5.969   9.338
83604SOL     OW52708  12.489   0.938   7.941
83604SOL    HW152709  12.517   0.946   7.850
83604SOL    HW252710  12.570   0.926   7.990
83605SOL     OW52711   7.956  13.399   1.972
83605SOL    HW152712   8.013  13.412   2.048
83605SOL    HW252713   7.958  13.483   1.926
83606SOL     OW52714   7.411   5.314  12.882
83606SOL    HW152715   7.381   5.233  12.924
83606SOL    HW252716   7.330   5.363  12.865
83607SOL     OW52717   3.412   6.495   8.826
83607SOL    HW152718   3.366   6.578   8.814
83607SOL    HW252719   3.351   6.429   8.795
83608SOL     OW52720   5.862  10.677   3.999
83608SOL    HW152721   5.897  10.594   3.965
83608SOL    HW252722   5.877  10.671   4.094
83609SOL     OW52723  12.503   5.075  11.858
83609SOL    HW152724  12.467   5.112  11.939
83609SOL    HW252725  12.578   5.132  11.838
83610SOL     OW52726   5.448   7.075   5.687
83610SOL    HW152727   5.528   7.054   5.735
83610SOL    HW252728   5.464   7.041   5.599
83611SOL     OW52729  13.825  10.150  13.134
83611SOL    HW152730  13.828  10.055  13.122
83611SOL    HW252731  13.796  10.162  13.224
83612SOL     OW52732   1.365   2.230   2.655
83612SOL    HW152733   1.400   2.230   2.566
83612SOL    HW252734   1.339   2.321   2.671
83613SOL     OW52735  10.389  13.602   8.375
83613SOL    HW152736  10.358  13.511   8.379
83613SOL    HW252737  10.391  13.622   8.281
83614SOL     OW52738  11.624  14.574   7.508
83614SOL    HW152739  11.543  14.534   7.476
83614SOL    HW252740  11.643  14.528   7.590
83615SOL     OW52741   4.859   0.967   7.564
83615SOL    HW152742   4.927   0.908   7.597
83615SOL    HW252743   4.819   1.004   7.643
83616SOL     OW52744   2.697  12.705  10.263
83616SOL    HW152745   2.710  12.751  10.181
83616SOL    HW252746   2.603  12.688  10.267
83617SOL     OW52747  13.627  13.898   3.208
83617SOL    HW152748  13.659  13.808   3.197
83617SOL    HW252749  13.568  13.911   3.134
83618SOL     OW52750   7.954   1.127  11.861
83618SOL    HW152751   8.036   1.162  11.897
83618SOL    HW252752   7.890   1.139  11.931
83619SOL     OW52753   2.063   3.046  10.432
83619SOL    HW152754   1.969   3.060  10.445
83619SOL    HW252755   2.088   3.112  10.368
83620SOL     OW52756   6.452   8.439   4.001
83620SOL    HW152757   6.423   8.469   3.915
83620SOL    HW252758   6.434   8.514   4.059
83621SOL     OW52759  12.516  11.988  12.584
83621SOL    HW152760  12.453  12.033  12.527
83621SOL    HW252761  12.576  11.943  12.524
83622SOL     OW52762   7.610  12.039  13.704
83622SOL    HW152763   7.523  12.067  13.674
83622SOL    HW252764   7.612  11.945  13.688
83623SOL     OW52765   4.819   8.286  14.089
83623SOL    HW152766   4.823   8.288  14.185
83623SOL    HW252767   4.807   8.193  14.068
83624SOL     OW52768  10.528   1.563   3.836
83624SOL    HW152769  10.454   1.514   3.872
83624SOL    HW252770  10.540   1.528   3.748
83625SOL     OW52771   8.327   8.130   4.997
83625SOL    HW152772   8.378   8.101   5.072
83625SOL    HW252773   8.290   8.214   5.024
83626SOL     OW52774   2.595   0.847   0.121
83626SOL    HW152775   2.690   0.857   0.130
83626SOL    HW252776   2.571   0.784   0.190
83627SOL     OW52777   0.356   9.555  10.674
83627SOL    HW152778   0.320   9.504  10.746
83627SOL    HW252779   0.434   9.506  10.647
83628SOL     OW52780   0.336   9.621   3.020
83628SOL    HW152781   0.333   9.594   3.112
83628SOL    HW252782   0.428   9.614   2.995
83629SOL     OW52783  11.325   9.701   1.748
83629SOL    HW152784  11.340   9.639   1.677
83629SOL    HW252785  11.250   9.666   1.795
83630SOL     OW52786   4.444  11.452   4.945
83630SOL    HW152787   4.418  11.393   5.016
83630SOL    HW252788   4.410  11.538   4.972
83631SOL     OW52789   5.713   6.887  11.789
83631SOL    HW152790   5.707   6.798  11.825
83631SOL    HW252791   5.770   6.878  11.713
83632SOL     OW52792   6.148   9.698  11.718
83632SOL    HW152793   6.212   9.642  11.763
83632SOL    HW252794   6.174   9.787  11.742
83633SOL     OW52795   9.330  12.670  10.728
83633SOL    HW152796   9.235  12.677  10.741
83633SOL    HW252797   9.356  12.754  10.689
83634SOL     OW52798   5.819  10.142   4.142
83634SOL    HW152799   5.799  10.235   4.154
83634SOL    HW252800   5.769  10.117   4.065
83635SOL     OW52801  14.227  12.229  10.779
83635SOL    HW152802  14.184  12.144  10.784
83635SOL    HW252803  14.315  12.210  10.748
83636SOL     OW52804  12.453  13.574   7.255
83636SOL    HW152805  12.443  13.481   7.273
83636SOL    HW252806  12.485  13.578   7.164
83637SOL     OW52807  12.293  12.829   3.486
83637SOL    HW152808  12.340  12.756   3.528
83637SOL    HW252809  12.362  12.882   3.447
83638SOL     OW52810  10.398  14.801   5.987
83638SOL    HW152811  10.384  14.749   5.908
83638SOL    HW252812  10.330  14.771   6.047
83639SOL     OW52813   8.567   1.928   7.678
83639SOL    HW152814   8.622   1.936   7.756
83639SOL    HW252815   8.605   1.989   7.615
83640SOL     OW52816   7.591  13.168   4.204
83640SOL    HW152817   7.647  13.231   4.159
83640SOL    HW252818   7.529  13.222   4.253
83641SOL     OW52819   6.328  11.559   5.917
83641SOL    HW152820   6.262  11.523   5.859
83641SOL    HW252821   6.306  11.652   5.925
83642SOL     OW52822   0.545   3.313   1.675
83642SOL    HW152823   0.598   3.380   1.718
83642SOL    HW252824   0.455   3.340   1.690
83643SOL     OW52825   3.465   1.982   9.018
83643SOL    HW152826   3.495   1.985   8.927
83643SOL    HW252827   3.495   2.066   9.055
83644SOL     OW52828   1.451  11.503   8.507
83644SOL    HW152829   1.470  11.433   8.444
83644SOL    HW252830   1.395  11.564   8.459
83645SOL     OW52831  10.682   8.482   2.600
83645SOL    HW152832  10.663   8.405   2.546
83645SOL    HW252833  10.640   8.463   2.684
83646SOL     OW52834   1.132  13.578   3.951
83646SOL    HW152835   1.114  13.553   4.041
83646SOL    HW252836   1.186  13.656   3.958
83647SOL     OW52837   5.866   9.234  14.442
83647SOL    HW152838   5.813   9.156  14.454
83647SOL    HW252839   5.826   9.279  14.367
83648SOL     OW52840   0.441   7.327   6.893
83648SOL    HW152841   0.362   7.362   6.852
83648SOL    HW252842   0.418   7.317   6.985
83649SOL     OW52843   0.058  13.062   9.290
83649SOL    HW152844  14.863  13.036   9.331
83649SOL    HW252845   0.082  13.144   9.333
83650SOL     OW52846  11.070   5.218   6.489
83650SOL    HW152847  10.992   5.234   6.437
83650SOL    HW252848  11.037   5.199   6.577
83651SOL     OW52849   0.855   8.308   0.755
83651SOL    HW152850   0.780   8.257   0.725
83651SOL    HW252851   0.918   8.303   0.684
83652SOL     OW52852   4.900   5.849  13.312
83652SOL    HW152853   4.981   5.873  13.267
83652SOL    HW252854   4.856   5.790  13.251
83653SOL     OW52855   4.211   4.979   7.161
83653SOL    HW152856   4.216   5.073   7.180
83653SOL    HW252857   4.231   4.973   7.067
83654SOL     OW52858   0.986  10.881  14.096
83654SOL    HW152859   0.970  10.869  14.002
83654SOL    HW252860   1.042  10.806  14.120
83655SOL     OW52861  14.718   0.572  10.816
83655SOL    HW152862  14.690   0.663  10.828
83655SOL    HW252863  14.773   0.574  10.738
83656SOL     OW52864   5.090   8.508   1.758
83656SOL    HW152865   5.155   8.574   1.734
83656SOL    HW252866   5.116   8.430   1.709
83657SOL     OW52867  14.476  10.251  13.888
83657SOL    HW152868  14.469  10.337  13.847
83657SOL    HW252869  14.529  10.265  13.966
83658SOL     OW52870  13.122   3.527   5.143
83658SOL    HW152871  13.213   3.554   5.128
83658SOL    HW252872  13.071   3.607   5.132
83659SOL     OW52873  13.812   6.042  13.176
83659SOL    HW152874  13.843   5.954  13.153
83659SOL    HW252875  13.799   6.039  13.271
83660SOL     OW52876   6.508   1.735  10.032
83660SOL    HW152877   6.498   1.741   9.937
83660SOL    HW252878   6.590   1.781  10.050
83661SOL     OW52879   5.251   0.003  10.647
83661SOL    HW152880   5.336  14.851  10.668
83661SOL    HW252881   5.191  14.852  10.711
83662SOL     OW52882  13.819   7.523   7.000
83662SOL    HW152883  13.865   7.518   6.916
83662SOL    HW252884  13.810   7.617   7.016
83663SOL     OW52885   0.088  12.842  10.136
83663SOL    HW152886   0.158  12.776  10.132
83663SOL    HW252887   0.015  12.802  10.089
83664SOL     OW52888  14.231   2.632  13.525
83664SOL    HW152889  14.224   2.549  13.571
83664SOL    HW252890  14.294   2.615  13.455
83665SOL     OW52891   6.436   3.821   1.084
83665SOL    HW152892   6.479   3.874   1.151
83665SOL    HW252893   6.355   3.790   1.126
83666SOL     OW52894   2.272   5.071   5.335
83666SOL    HW152895   2.265   5.017   5.413
83666SOL    HW252896   2.362   5.058   5.304
83667SOL     OW52897   9.126   0.484   3.051
83667SOL    HW152898   9.083   0.492   2.965
83667SOL    HW252899   9.205   0.537   3.042
83668SOL     OW52900  12.107  12.238   2.211
83668SOL    HW152901  12.082  12.221   2.120
83668SOL    HW252902  12.025  12.243   2.259
83669SOL     OW52903  14.623  10.823  10.179
83669SOL    HW152904  14.529  10.801  10.177
83669SOL    HW252905  14.637  10.871  10.098
83670SOL     OW52906  13.841   6.896   3.132
83670SOL    HW152907  13.903   6.844   3.081
83670SOL    HW252908  13.800   6.832   3.191
83671SOL     OW52909   1.211  10.250   9.289
83671SOL    HW152910   1.247  10.210   9.368
83671SOL    HW252911   1.118  10.230   9.293
83672SOL     OW52912  11.984  13.702   4.326
83672SOL    HW152913  11.978  13.644   4.402
83672SOL    HW252914  11.977  13.790   4.363
83673SOL     OW52915  11.371   3.525   6.856
83673SOL    HW152916  11.376   3.620   6.859
83673SOL    HW252917  11.374   3.498   6.948
83674SOL     OW52918   2.238   1.304   8.738
83674SOL    HW152919   2.227   1.374   8.673
83674SOL    HW252920   2.311   1.252   8.705
83675SOL     OW52921  13.563   8.212   0.427
83675SOL    HW152922  13.566   8.199   0.333
83675SOL    HW252923  13.582   8.305   0.439
83676SOL     OW52924  11.743  10.440   4.357
83676SOL    HW152925  11.675  10.476   4.300
83676SOL    HW252926  11.782  10.369   4.306
83677SOL     OW52927  13.020  14.393   5.411
83677SOL    HW152928  12.960  14.319   5.425
83677SOL    HW252929  13.000  14.424   5.323
83678SOL     OW52930   7.995   2.774  11.666
83678SOL    HW152931   7.998   2.786  11.571
83678SOL    HW252932   7.901   2.770  11.687
83679SOL     OW52933  14.747  11.173   2.309
83679SOL    HW152934  14.755  11.267   2.291
83679SOL    HW252935  14.659  11.164   2.347
83680SOL     OW52936  14.592  11.531   9.649
83680SOL    HW152937  14.675  11.548   9.694
83680SOL    HW252938  14.597  11.584   9.569
83681SOL     OW52939   8.471   2.855   2.416
83681SOL    HW152940   8.482   2.937   2.465
83681SOL    HW252941   8.442   2.883   2.329
83682SOL     OW52942   1.188  11.822   5.232
83682SOL    HW152943   1.220  11.893   5.176
83682SOL    HW252944   1.253  11.753   5.224
83683SOL     OW52945   0.561   5.703  10.645
83683SOL    HW152946   0.468   5.698  10.667
83683SOL    HW252947   0.577   5.795  10.627
83684SOL     OW52948  14.750  10.102   4.381
83684SOL    HW152949  14.772  10.034   4.317
83684SOL    HW252950  14.722  10.053   4.459
83685SOL     OW52951  12.810   5.277   0.320
83685SOL    HW152952  12.819   5.186   0.347
83685SOL    HW252953  12.730   5.279   0.268
83686SOL     OW52954   6.822   6.545   6.256
83686SOL    HW152955   6.838   6.600   6.179
83686SOL    HW252956   6.909   6.521   6.287
83687SOL     OW52957   9.399   9.646  12.333
83687SOL    HW152958   9.383   9.554  12.312
83687SOL    HW252959   9.381   9.692  12.251
83688SOL     OW52960   0.686  10.972   0.331
83688SOL    HW152961   0.746  11.043   0.355
83688SOL    HW252962   0.653  10.997   0.244
83689SOL     OW52963  12.032   3.478   2.048
83689SOL    HW152964  12.074   3.554   2.008
83689SOL    HW252965  12.097   3.408   2.040
83690SOL     OW52966   9.312   0.477   8.234
83690SOL    HW152967   9.272   0.404   8.281
83690SOL    HW252968   9.391   0.497   8.284
83691SOL     OW52969   8.904   1.778  13.116
83691SOL    HW152970   8.816   1.745  13.132
83691SOL    HW252971   8.947   1.710  13.065
83692SOL     OW52972  13.867   9.131   3.398
83692SOL    HW152973  13.827   9.167   3.319
83692SOL    HW252974  13.901   9.046   3.371
83693SOL     OW52975   5.749   1.885   8.311
83693SOL    HW152976   5.741   1.960   8.253
83693SOL    HW252977   5.668   1.836   8.298
83694SOL     OW52978   5.132   9.942   9.118
83694SOL    HW152979   5.053   9.896   9.145
83694SOL    HW252980   5.130   9.940   9.022
83695SOL     OW52981  11.342  12.356   9.962
83695SOL    HW152982  11.364  12.295   9.891
83695SOL    HW252983  11.414  12.418   9.964
83696SOL     OW52984   9.079  14.102   1.025
83696SOL    HW152985   9.016  14.112   0.954
83696SOL    HW252986   9.033  14.134   1.102
83697SOL     OW52987  13.147   2.312  11.095
83697SOL    HW152988  13.205   2.367  11.147
83697SOL    HW252989  13.085   2.276  11.158
83698SOL     OW52990   7.722  14.691  14.091
83698SOL    HW152991   7.694  14.641  14.168
83698SOL    HW252992   7.693  14.780  14.108
83699SOL     OW52993   9.246   0.657  12.713
83699SOL    HW152994   9.212   0.592  12.775
83699SOL    HW252995   9.335   0.675  12.743
83700SOL     OW52996   4.612   0.979   4.715
83700SOL    HW152997   4.584   1.045   4.651
83700SOL    HW252998   4.704   0.999   4.731
83701SOL     OW52999   3.275   7.914   1.229
83701SOL    HW153000   3.264   7.832   1.279
83701SOL    HW253001   3.242   7.893   1.142
83702SOL     OW53002   0.294   2.296   5.675
83702SOL    HW153003   0.367   2.358   5.684
83702SOL    HW253004   0.295   2.271   5.583
83703SOL     OW53005   2.671   7.072   7.632
83703SOL    HW153006   2.739   7.039   7.572
83703SOL    HW253007   2.716   7.080   7.716
83704SOL     OW53008  11.405   5.465  14.618
83704SOL    HW153009  11.481   5.518  14.641
83704SOL    HW253010  11.440   5.378  14.600
83705SOL     OW53011   6.777   9.451  11.893
83705SOL    HW153012   6.692   9.466  11.851
83705SOL    HW253013   6.841   9.468  11.824
83706SOL     OW53014  14.419   0.035   8.758
83706SOL    HW153015  14.333  14.884   8.776
83706SOL    HW253016  14.400   0.123   8.727
83707SOL     OW53017   8.895   9.879   2.682
83707SOL    HW153018   8.920   9.868   2.774
83707SOL    HW253019   8.827   9.946   2.684
83708SOL     OW53020   1.264   3.476   7.485
83708SOL    HW153021   1.314   3.436   7.556
83708SOL    HW253022   1.193   3.415   7.468
83709SOL     OW53023   9.265  12.612   3.155
83709SOL    HW153024   9.332  12.602   3.088
83709SOL    HW253025   9.245  12.522   3.183
83710SOL     OW53026   1.429  12.826  12.094
83710SOL    HW153027   1.482  12.904  12.083
83710SOL    HW253028   1.345  12.848  12.053
83711SOL     OW53029  12.396  13.720  10.307
83711SOL    HW153030  12.398  13.625  10.319
83711SOL    HW253031  12.484  13.749  10.330
83712SOL     OW53032   0.756   3.885  13.417
83712SOL    HW153033   0.733   3.875  13.325
83712SOL    HW253034   0.680   3.852  13.465
83713SOL     OW53035   6.989  12.202  14.436
83713SOL    HW153036   7.063  12.183  14.377
83713SOL    HW253037   6.962  12.291  14.412
83714SOL     OW53038   4.393   3.772   4.541
83714SOL    HW153039   4.353   3.854   4.569
83714SOL    HW253040   4.448   3.745   4.615
83715SOL     OW53041  14.247   2.653   9.213
83715SOL    HW153042  14.329   2.689   9.248
83715SOL    HW253043  14.263   2.559   9.207
83716SOL     OW53044   0.970  14.386   1.565
83716SOL    HW153045   0.916  14.430   1.500
83716SOL    HW253046   1.060  14.403   1.538
83717SOL     OW53047   5.366   3.007  14.705
83717SOL    HW153048   5.448   3.056  14.710
83717SOL    HW253049   5.305   3.066  14.661
83718SOL     OW53050   5.383   5.059   0.486
83718SOL    HW153051   5.372   5.132   0.546
83718SOL    HW253052   5.296   5.043   0.450
83719SOL     OW53053   3.266   7.126  12.852
83719SOL    HW153054   3.216   7.206  12.865
83719SOL    HW253055   3.233   7.091  12.768
83720SOL     OW53056   2.113   1.070  13.163
83720SOL    HW153057   2.089   0.988  13.205
83720SOL    HW253058   2.041   1.087  13.102
83721SOL     OW53059  11.267  11.186  11.264
83721SOL    HW153060  11.249  11.205  11.172
83721SOL    HW253061  11.362  11.179  11.269
83722SOL     OW53062   6.295   8.310   8.269
83722SOL    HW153063   6.247   8.385   8.236
83722SOL    HW253064   6.237   8.235   8.252
83723SOL     OW53065   3.060   8.728   4.922
83723SOL    HW153066   3.126   8.776   4.973
83723SOL    HW253067   3.073   8.636   4.945
83724SOL     OW53068   6.533  11.706   4.882
83724SOL    HW153069   6.500  11.695   4.793
83724SOL    HW253070   6.628  11.690   4.874
83725SOL     OW53071   3.931   2.337   6.463
83725SOL    HW153072   3.844   2.319   6.426
83725SOL    HW253073   3.921   2.323   6.557
83726SOL     OW53074   2.711   5.199   5.438
83726SOL    HW153075   2.617   5.208   5.457
83726SOL    HW253076   2.754   5.256   5.503
83727SOL     OW53077   3.425   4.826   3.964
83727SOL    HW153078   3.400   4.877   4.041
83727SOL    HW253079   3.517   4.807   3.977
83728SOL     OW53080  10.104  13.573   9.421
83728SOL    HW153081  10.017  13.605   9.446
83728SOL    HW253082  10.141  13.540   9.502
83729SOL     OW53083   1.075   7.166   5.371
83729SOL    HW153084   1.097   7.253   5.339
83729SOL    HW253085   1.103   7.107   5.301
83730SOL     OW53086   5.801  14.837   7.659
83730SOL    HW153087   5.721  14.802   7.699
83730SOL    HW253088   5.866  14.832   7.728
83731SOL     OW53089   2.942  13.613  10.970
83731SOL    HW153090   2.858  13.605  10.926
83731SOL    HW253091   2.927  13.576  11.057
83732SOL     OW53092  11.265   1.831  13.637
83732SOL    HW153093  11.180   1.821  13.595
83732SOL    HW253094  11.315   1.886  13.576
83733SOL     OW53095  10.416  10.957   4.910
83733SOL    HW153096  10.493  11.009   4.934
83733SOL    HW253097  10.342  11.012   4.936
83734SOL     OW53098   5.593  13.859  11.729
83734SOL    HW153099   5.673  13.887  11.684
83734SOL    HW253100   5.581  13.768  11.703
83735SOL     OW53101   2.144  11.052   8.267
83735SOL    HW153102   2.185  11.130   8.305
83735SOL    HW253103   2.149  11.065   8.172
83736SOL     OW53104  13.887   3.479   8.224
83736SOL    HW153105  13.910   3.390   8.252
83736SOL    HW253106  13.924   3.536   8.291
83737SOL     OW53107   6.090   4.888   2.856
83737SOL    HW153108   6.179   4.875   2.823
83737SOL    HW253109   6.044   4.807   2.836
83738SOL     OW53110   1.383   0.023   9.211
83738SOL    HW153111   1.473   0.043   9.237
83738SOL    HW253112   1.334   0.019   9.293
83739SOL     OW53113   8.411  11.630   8.596
83739SOL    HW153114   8.365  11.587   8.668
83739SOL    HW253115   8.407  11.723   8.618
83740SOL     OW53116   3.520  13.799   7.315
83740SOL    HW153117   3.510  13.894   7.306
83740SOL    HW253118   3.501  13.765   7.227
83741SOL     OW53119  10.805   3.051  11.697
83741SOL    HW153120  10.726   3.099  11.674
83741SOL    HW253121  10.873   3.118  11.706
83742SOL     OW53122   8.225  11.420   0.203
83742SOL    HW153123   8.281  11.354   0.244
83742SOL    HW253124   8.137  11.381   0.203
83743SOL     OW53125   9.852  10.296   5.210
83743SOL    HW153126   9.804  10.344   5.143
83743SOL    HW253127   9.791  10.228   5.239
83744SOL     OW53128   3.473   1.039  13.816
83744SOL    HW153129   3.543   1.052  13.880
83744SOL    HW253130   3.514   0.991  13.745
83745SOL     OW53131   6.348   6.389   6.549
83745SOL    HW153132   6.379   6.357   6.633
83745SOL    HW253133   6.399   6.340   6.484
83746SOL     OW53134   7.235   2.257   6.170
83746SOL    HW153135   7.281   2.271   6.252
83746SOL    HW253136   7.295   2.204   6.117
83747SOL     OW53137   1.604  13.437   3.967
83747SOL    HW153138   1.618  13.347   3.940
83747SOL    HW253139   1.532  13.432   4.031
83748SOL     OW53140   3.196   2.030  14.877
83748SOL    HW153141   3.130   2.070   0.047
83748SOL    HW253142   3.152   1.953  14.841
83749SOL     OW53143  12.951  11.809  14.392
83749SOL    HW153144  13.021  11.837  14.451
83749SOL    HW253145  12.980  11.724  14.359
83750SOL     OW53146   2.892   7.612   3.037
83750SOL    HW153147   2.901   7.532   2.984
83750SOL    HW253148   2.979   7.652   3.036
83751SOL     OW53149  11.163  12.788  12.428
83751SOL    HW153150  11.252  12.750  12.427
83751SOL    HW253151  11.149  12.819  12.339
83752SOL     OW53152  12.445   0.544  14.500
83752SOL    HW153153  12.517   0.533  14.439
83752SOL    HW253154  12.452   0.636  14.529
83753SOL     OW53155   9.414   8.574  14.614
83753SOL    HW153156   9.402   8.499  14.556
83753SOL    HW253157   9.421   8.536  14.701
83754SOL     OW53158  12.625   1.125   3.836
83754SOL    HW153159  12.615   1.110   3.930
83754SOL    HW253160  12.709   1.084   3.814
83755SOL     OW53161   5.683   8.881  13.781
83755SOL    HW153162   5.687   8.941  13.708
83755SOL    HW253163   5.619   8.815  13.754
83756SOL     OW53164   3.859  10.278   1.273
83756SOL    HW153165   3.945  10.294   1.233
83756SOL    HW253166   3.818  10.364   1.278
83757SOL     OW53167   3.786   5.727   7.767
83757SOL    HW153168   3.786   5.645   7.816
83757SOL    HW253169   3.863   5.721   7.711
83758SOL     OW53170   4.090  10.314   9.873
83758SOL    HW153171   4.167  10.370   9.886
83758SOL    HW253172   4.099  10.280   9.784
83759SOL     OW53173   5.084   9.927   3.945
83759SOL    HW153174   5.114   9.901   3.858
83759SOL    HW253175   5.158   9.975   3.983
83760SOL     OW53176   2.863   1.316  11.574
83760SOL    HW153177   2.818   1.244  11.530
83760SOL    HW253178   2.835   1.395  11.528
83761SOL     OW53179   3.206   2.516   8.470
83761SOL    HW153180   3.255   2.562   8.538
83761SOL    HW253181   3.183   2.432   8.509
83762SOL     OW53182   5.249  14.689   7.988
83762SOL    HW153183   5.224  14.752   8.055
83762SOL    HW253184   5.229  14.603   8.026
83763SOL     OW53185   3.109  14.161  13.487
83763SOL    HW153186   3.024  14.185  13.525
83763SOL    HW253187   3.173  14.208  13.540
83764SOL     OW53188   8.722   9.667   9.547
83764SOL    HW153189   8.761   9.750   9.575
83764SOL    HW253190   8.629   9.686   9.535
83765SOL     OW53191  12.520   2.851   0.477
83765SOL    HW153192  12.614   2.861   0.494
83765SOL    HW253193  12.492   2.782   0.536
83766SOL     OW53194   2.848  11.792   1.124
83766SOL    HW153195   2.877  11.725   1.186
83766SOL    HW253196   2.917  11.795   1.058
83767SOL     OW53197   5.834   1.247  13.511
83767SOL    HW153198   5.772   1.198  13.564
83767SOL    HW253199   5.789   1.261  13.428
83768SOL     OW53200  14.389  11.837  10.762
83768SOL    HW153201  14.456  11.905  10.770
83768SOL    HW253202  14.426  11.774  10.700
83769SOL     OW53203  11.232  13.824  11.722
83769SOL    HW153204  11.239  13.901  11.779
83769SOL    HW253205  11.196  13.756  11.778
83770SOL     OW53206   8.069   9.869   5.946
83770SOL    HW153207   8.017   9.790   5.936
83770SOL    HW253208   8.144   9.857   5.888
83771SOL     OW53209  13.390   5.581   6.866
83771SOL    HW153210  13.296   5.564   6.860
83771SOL    HW253211  13.410   5.574   6.960
83772SOL     OW53212   9.060   3.156  13.724
83772SOL    HW153213   9.052   3.230  13.784
83772SOL    HW253214   9.009   3.182  13.647
83773SOL     OW53215  12.291   8.480  10.509
83773SOL    HW153216  12.278   8.415  10.440
83773SOL    HW253217  12.359   8.538  10.476
83774SOL     OW53218  13.259   3.655   1.720
83774SOL    HW153219  13.260   3.559   1.716
83774SOL    HW253220  13.176   3.676   1.763
83775SOL     OW53221   3.632   9.628   0.610
83775SOL    HW153222   3.667   9.559   0.553
83775SOL    HW253223   3.676   9.614   0.694
83776SOL     OW53224  12.221   8.491   0.223
83776SOL    HW153225  12.190   8.544   0.150
83776SOL    HW253226  12.212   8.401   0.192
83777SOL     OW53227  12.831   9.869   8.996
83777SOL    HW153228  12.772   9.821   8.938
83777SOL    HW253229  12.820   9.827   9.082
83778SOL     OW53230   2.897   7.927   5.078
83778SOL    HW153231   2.914   7.859   5.144
83778SOL    HW253232   2.976   7.926   5.023
83779SOL     OW53233   5.277   0.196  13.622
83779SOL    HW153234   5.367   0.176  13.596
83779SOL    HW253235   5.265   0.149  13.704
83780SOL     OW53236  14.229  14.809   2.143
83780SOL    HW153237  14.208  14.827   2.234
83780SOL    HW253238  14.153  14.840   2.094
83781SOL     OW53239  10.187   4.564   6.526
83781SOL    HW153240  10.123   4.627   6.494
83781SOL    HW253241  10.211   4.512   6.449
83782SOL     OW53242   0.258   1.827  13.493
83782SOL    HW153243   0.180   1.773  13.510
83782SOL    HW253244   0.224   1.904  13.447
83783SOL     OW53245  11.675   8.197   0.239
83783SOL    HW153246  11.658   8.139   0.313
83783SOL    HW253247  11.614   8.167   0.171
83784SOL     OW53248  14.698  13.814   8.280
83784SOL    HW153249  14.761  13.885   8.292
83784SOL    HW253250  14.615  13.859   8.261
83785SOL     OW53251   7.785   7.335  13.809
83785SOL    HW153252   7.827   7.287  13.880
83785SOL    HW253253   7.794   7.427  13.832
83786SOL     OW53254  14.706   2.873  12.842
83786SOL    HW153255  14.679   2.959  12.876
83786SOL    HW253256  14.778   2.847  12.899
83787SOL     OW53257   6.934   1.605   7.208
83787SOL    HW153258   7.019   1.647   7.199
83787SOL    HW253259   6.878   1.653   7.147
83788SOL     OW53260   5.422   1.800   8.366
83788SOL    HW153261   5.451   1.872   8.421
83788SOL    HW253262   5.404   1.728   8.426
83789SOL     OW53263   9.573   9.265   4.613
83789SOL    HW153264   9.486   9.291   4.585
83789SOL    HW253265   9.575   9.170   4.601
83790SOL     OW53266  13.090   4.256   2.186
83790SOL    HW153267  13.033   4.184   2.158
83790SOL    HW253268  13.046   4.293   2.262
83791SOL     OW53269   5.854   1.002  13.227
83791SOL    HW153270   5.886   0.916  13.199
83791SOL    HW253271   5.934   1.052  13.245
83792SOL     OW53272  12.463   3.938   2.379
83792SOL    HW153273  12.450   3.905   2.468
83792SOL    HW253274  12.391   3.899   2.328
83793SOL     OW53275   3.991  11.467  14.878
83793SOL    HW153276   3.960  11.511  14.799
83793SOL    HW253277   3.999  11.537   0.055
83794SOL     OW53278   6.946   5.889   4.004
83794SOL    HW153279   7.026   5.913   3.958
83794SOL    HW253280   6.953   5.934   4.088
83795SOL     OW53281   6.584   2.639   0.405
83795SOL    HW153282   6.554   2.730   0.408
83795SOL    HW253283   6.650   2.638   0.336
83796SOL     OW53284  13.304  10.054   5.955
83796SOL    HW153285  13.268  10.105   6.027
83796SOL    HW253286  13.236  10.058   5.887
83797SOL     OW53287  12.607   5.134   3.793
83797SOL    HW153288  12.549   5.198   3.751
83797SOL    HW253289  12.580   5.050   3.755
83798SOL     OW53290  10.629   8.785   9.058
83798SOL    HW153291  10.636   8.805   8.965
83798SOL    HW253292  10.674   8.857   9.102
83799SOL     OW53293  11.645  14.374  11.640
83799SOL    HW153294  11.705  14.360  11.566
83799SOL    HW253295  11.563  14.332  11.612
83800SOL     OW53296  11.908   2.362  10.719
83800SOL    HW153297  11.900   2.456  10.706
83800SOL    HW253298  11.865   2.346  10.804
83801SOL     OW53299   8.616   5.429   7.472
83801SOL    HW153300   8.696   5.376   7.471
83801SOL    HW253301   8.624   5.485   7.395
83802SOL     OW53302  14.777   8.420   9.674
83802SOL    HW153303  14.735   8.409   9.759
83802SOL    HW253304  14.756   8.509   9.648
83803SOL     OW53305   8.351   5.060   2.106
83803SOL    HW153306   8.257   5.041   2.108
83803SOL    HW253307   8.382   5.021   2.024
83804SOL     OW53308  10.251   0.218   8.490
83804SOL    HW153309  10.156   0.213   8.486
83804SOL    HW253310  10.269   0.276   8.565
83805SOL     OW53311   7.883  12.151  10.626
83805SOL    HW153312   7.943  12.127  10.555
83805SOL    HW253313   7.839  12.230  10.595
83806SOL     OW53314   8.514  13.918   4.265
83806SOL    HW153315   8.589  13.864   4.241
83806SOL    HW253316   8.477  13.946   4.181
83807SOL     OW53317   3.251   6.469   7.380
83807SOL    HW153318   3.272   6.430   7.295
83807SOL    HW253319   3.316   6.538   7.391
83808SOL     OW53320   1.936   0.576   6.294
83808SOL    HW153321   1.923   0.569   6.388
83808SOL    HW253322   1.849   0.597   6.259
83809SOL     OW53323   2.957   9.335   6.501
83809SOL    HW153324   2.971   9.420   6.458
83809SOL    HW253325   2.996   9.271   6.442
83810SOL     OW53326   2.770  13.178   4.858
83810SOL    HW153327   2.702  13.127   4.814
83810SOL    HW253328   2.847  13.121   4.857
83811SOL     OW53329   6.109   1.497  14.628
83811SOL    HW153330   6.095   1.572  14.686
83811SOL    HW253331   6.034   1.499  14.569
83812SOL     OW53332   5.462  14.114   8.756
83812SOL    HW153333   5.499  14.149   8.836
83812SOL    HW253334   5.532  14.060   8.718
83813SOL     OW53335   7.150  11.861  14.246
83813SOL    HW153336   7.118  11.818  14.325
83813SOL    HW253337   7.232  11.817  14.226
83814SOL     OW53338   6.338   3.633   8.485
83814SOL    HW153339   6.382   3.687   8.419
83814SOL    HW253340   6.251   3.670   8.492
83815SOL     OW53341   7.492   3.005   2.822
83815SOL    HW153342   7.489   2.913   2.794
83815SOL    HW253343   7.575   3.038   2.788
83816SOL     OW53344   9.523   0.488   1.849
83816SOL    HW153345   9.455   0.441   1.897
83816SOL    HW253346   9.596   0.494   1.911
83817SOL     OW53347  14.239   5.180  11.466
83817SOL    HW153348  14.310   5.179  11.530
83817SOL    HW253349  14.243   5.093  11.425
83818SOL     OW53350   4.128   9.755   0.937
83818SOL    HW153351   4.206   9.721   0.981
83818SOL    HW253352   4.147   9.744   0.843
83819SOL     OW53353  10.607  10.022   3.006
83819SOL    HW153354  10.645  10.110   3.014
83819SOL    HW253355  10.677   9.963   3.033
83820SOL     OW53356   5.083   8.173  10.707
83820SOL    HW153357   5.104   8.119  10.784
83820SOL    HW253358   5.161   8.166  10.651
83821SOL     OW53359   0.007  13.177   8.556
83821SOL    HW153360  14.879  13.237   8.629
83821SOL    HW253361   0.048  13.230   8.489
83822SOL     OW53362   7.550   6.410  13.646
83822SOL    HW153363   7.565   6.333  13.702
83822SOL    HW253364   7.615   6.401  13.577
83823SOL     OW53365   2.332   6.066  12.379
83823SOL    HW153366   2.332   6.101  12.289
83823SOL    HW253367   2.418   6.089  12.414
83824SOL     OW53368  10.752   9.395  13.074
83824SOL    HW153369  10.700   9.389  13.154
83824SOL    HW253370  10.804   9.315  13.073
83825SOL     OW53371   8.376  12.588  10.482
83825SOL    HW153372   8.425  12.510  10.456
83825SOL    HW253373   8.435  12.634  10.542
83826SOL     OW53374  13.709   5.098   7.887
83826SOL    HW153375  13.775   5.166   7.902
83826SOL    HW253376  13.692   5.102   7.793
83827SOL     OW53377  12.294   0.650  13.243
83827SOL    HW153378  12.360   0.717  13.258
83827SOL    HW253379  12.323   0.605  13.163
83828SOL     OW53380   5.970   0.649  14.265
83828SOL    HW153381   5.916   0.720  14.229
83828SOL    HW253382   5.910   0.575  14.274
83829SOL     OW53383  14.819   3.159  10.211
83829SOL    HW153384  14.740   3.158  10.264
83829SOL    HW253385  14.821   3.072  10.170
83830SOL     OW53386  10.931   9.671   3.837
83830SOL    HW153387  10.853   9.634   3.877
83830SOL    HW253388  10.899   9.746   3.786
83831SOL     OW53389  11.963   9.129  11.634
83831SOL    HW153390  11.981   9.219  11.604
83831SOL    HW253391  11.942   9.081  11.554
83832SOL     OW53392   3.714  10.516  10.843
83832SOL    HW153393   3.739  10.520  10.935
83832SOL    HW253394   3.680  10.603  10.824
83833SOL     OW53395   3.060   8.577  11.675
83833SOL    HW153396   2.966   8.578  11.655
83833SOL    HW253397   3.101   8.622  11.601
83834SOL     OW53398   3.083  13.796  11.782
83834SOL    HW153399   3.165  13.843  11.766
83834SOL    HW253400   3.039  13.847  11.850
83835SOL     OW53401   6.559   4.481   1.216
83835SOL    HW153402   6.566   4.388   1.195
83835SOL    HW253403   6.520   4.520   1.138
83836SOL     OW53404  12.382   0.491  11.339
83836SOL    HW153405  12.385   0.474  11.245
83836SOL    HW253406  12.344   0.411  11.376
83837SOL     OW53407  11.670   0.093   3.917
83837SOL    HW153408  11.745   0.129   3.870
83837SOL    HW253409  11.624   0.039   3.852
83838SOL     OW53410  13.435  13.250   7.446
83838SOL    HW153411  13.442  13.208   7.532
83838SOL    HW253412  13.389  13.186   7.392
83839SOL     OW53413   5.584   4.892  11.601
83839SOL    HW153414   5.534   4.906  11.521
83839SOL    HW253415   5.675   4.900  11.574
83840SOL     OW53416   0.255  11.566  10.318
83840SOL    HW153417   0.299  11.557  10.402
83840SOL    HW253418   0.197  11.490  10.313
83841SOL     OW53419   1.926   3.908   1.721
83841SOL    HW153420   1.928   3.981   1.659
83841SOL    HW253421   1.929   3.949   1.807
83842SOL     OW53422   9.046   8.889   4.519
83842SOL    HW153423   8.978   8.930   4.573
83842SOL    HW253424   9.022   8.912   4.429
83843SOL     OW53425   3.597  12.045  14.389
83843SOL    HW153426   3.638  12.094  14.317
83843SOL    HW253427   3.661  11.978  14.411
83844SOL     OW53428   4.709  10.255  10.191
83844SOL    HW153429   4.758  10.185  10.148
83844SOL    HW253430   4.753  10.266  10.275
83845SOL     OW53431   7.978   3.103   9.093
83845SOL    HW153432   7.924   3.091   9.171
83845SOL    HW253433   7.915   3.112   9.021
83846SOL     OW53434   7.856   0.054  10.576
83846SOL    HW153435   7.903   0.136  10.560
83846SOL    HW253436   7.779   0.079  10.627
83847SOL     OW53437   8.542   9.745   5.616
83847SOL    HW153438   8.467   9.685   5.618
83847SOL    HW253439   8.592   9.724   5.695
83848SOL     OW53440   5.883  13.465   5.349
83848SOL    HW153441   5.910  13.373   5.345
83848SOL    HW253442   5.923  13.505   5.272
83849SOL     OW53443  13.801   0.033  14.287
83849SOL    HW153444  13.725   0.048  14.343
83849SOL    HW253445  13.861  14.870  14.342
83850SOL     OW53446   1.558  12.725  12.941
83850SOL    HW153447   1.484  12.732  12.880
83850SOL    HW253448   1.521  12.744  13.027
83851SOL     OW53449   5.866   0.581   6.634
83851SOL    HW153450   5.930   0.606   6.568
83851SOL    HW253451   5.918   0.556   6.710
83852SOL     OW53452   8.237   5.032   0.017
83852SOL    HW153453   8.227   5.105   0.078
83852SOL    HW253454   8.241   5.073  14.818
83853SOL     OW53455   1.800   5.505  11.982
83853SOL    HW153456   1.749   5.426  11.966
83853SOL    HW253457   1.744   5.576  11.951
83854SOL     OW53458  10.945   8.820   3.419
83854SOL    HW153459  10.918   8.891   3.477
83854SOL    HW253460  10.873   8.757   3.424
83855SOL     OW53461   7.948   2.084  10.978
83855SOL    HW153462   7.894   2.159  10.956
83855SOL    HW253463   7.915   2.054  11.063
83856SOL     OW53464   0.367  13.890   6.528
83856SOL    HW153465   0.457  13.911   6.553
83856SOL    HW253466   0.326  13.976   6.513
83857SOL     OW53467   9.293   1.523   1.751
83857SOL    HW153468   9.336   1.512   1.836
83857SOL    HW253469   9.215   1.575   1.770
83858SOL     OW53470  10.162   0.862  10.830
83858SOL    HW153471  10.179   0.956  10.830
83858SOL    HW253472  10.149   0.839  10.738
83859SOL     OW53473  11.941   1.189  14.164
83859SOL    HW153474  11.986   1.241  14.097
83859SOL    HW253475  12.002   1.119  14.185
83860SOL     OW53476   2.325   6.407   1.441
83860SOL    HW153477   2.311   6.498   1.467
83860SOL    HW253478   2.323   6.357   1.523
83861SOL     OW53479  12.164  13.729   4.856
83861SOL    HW153480  12.167  13.734   4.760
83861SOL    HW253481  12.202  13.811   4.886
83862SOL     OW53482  10.393   0.678   1.674
83862SOL    HW153483  10.341   0.719   1.605
83862SOL    HW253484  10.409   0.589   1.643
83863SOL     OW53485   1.241  11.266   4.102
83863SOL    HW153486   1.235  11.260   4.007
83863SOL    HW253487   1.151  11.261   4.133
83864SOL     OW53488   2.323  10.312  12.498
83864SOL    HW153489   2.238  10.320  12.542
83864SOL    HW253490   2.347  10.402  12.476
83865SOL     OW53491   9.077   1.882   5.172
83865SOL    HW153492   9.007   1.817   5.172
83865SOL    HW253493   9.074   1.921   5.085
83866SOL     OW53494  12.181   5.941  12.079
83866SOL    HW153495  12.106   5.943  12.020
83866SOL    HW253496  12.144   5.955  12.166
83867SOL     OW53497   3.021   4.687  10.737
83867SOL    HW153498   2.975   4.765  10.706
83867SOL    HW253499   3.010   4.623  10.667
83868SOL     OW53500  11.187   4.499   1.416
83868SOL    HW153501  11.253   4.438   1.383
83868SOL    HW253502  11.234   4.551   1.482
83869SOL     OW53503  13.868   1.554   7.516
83869SOL    HW153504  13.928   1.584   7.447
83869SOL    HW253505  13.883   1.613   7.589
83870SOL     OW53506   7.430   3.583  14.843
83870SOL    HW153507   7.448   3.624   0.040
83870SOL    HW253508   7.502   3.612  14.786
83871SOL     OW53509   4.010   4.600   7.955
83871SOL    HW153510   3.925   4.621   7.991
83871SOL    HW253511   4.073   4.632   8.019
83872SOL     OW53512  10.185   2.011   4.915
83872SOL    HW153513  10.193   1.958   4.995
83872SOL    HW253514  10.181   1.948   4.844
83873SOL     OW53515  13.867   8.637   8.122
83873SOL    HW153516  13.796   8.631   8.186
83873SOL    HW253517  13.866   8.552   8.077
83874SOL     OW53518  14.259   9.669  14.140
83874SOL    HW153519  14.232   9.577  14.138
83874SOL    HW253520  14.345   9.667  14.181
83875SOL     OW53521   2.749   6.664  12.318
83875SOL    HW153522   2.689   6.590  12.310
83875SOL    HW253523   2.723   6.707  12.400
83876SOL     OW53524  14.701   1.686  10.647
83876SOL    HW153525  14.765   1.646  10.589
83876SOL    HW253526  14.731   1.662  10.735
83877SOL     OW53527   9.084  14.223   5.991
83877SOL    HW153528   9.170  14.254   6.020
83877SOL    HW253529   9.079  14.133   6.024
83878SOL     OW53530   6.930   8.485  11.821
83878SOL    HW153531   6.874   8.557  11.793
83878SOL    HW253532   6.923   8.484  11.916
83879SOL     OW53533   5.911   1.856   7.981
83879SOL    HW153534   5.862   1.924   7.934
83879SOL    HW253535   5.847   1.786   7.994
83880SOL     OW53536   4.249   6.521  10.157
83880SOL    HW153537   4.325   6.462  10.155
83880SOL    HW253538   4.254   6.568  10.074
83881SOL     OW53539   1.227   2.485  14.680
83881SOL    HW153540   1.314   2.519  14.701
83881SOL    HW253541   1.235   2.390  14.688
83882SOL     OW53542  13.835  10.168   0.000
83882SOL    HW153543  13.807  10.204   0.084
83882SOL    HW253544  13.858  10.077   0.019
83883SOL     OW53545   1.119  12.071  13.858
83883SOL    HW153546   1.183  12.003  13.879
83883SOL    HW253547   1.112  12.068  13.763
83884SOL     OW53548   7.099   7.819   2.156
83884SOL    HW153549   7.114   7.881   2.085
83884SOL    HW253550   7.187   7.788   2.180
83885SOL     OW53551  10.504  10.016   0.944
83885SOL    HW153552  10.528  10.084   1.006
83885SOL    HW253553  10.422   9.981   0.978
83886SOL     OW53554  11.019   8.920   9.077
83886SOL    HW153555  11.047   8.840   9.031
83886SOL    HW253556  11.101   8.956   9.112
83887SOL     OW53557   1.802   5.370   8.606
83887SOL    HW153558   1.811   5.283   8.645
83887SOL    HW253559   1.858   5.426   8.659
83888SOL     OW53560   6.572   7.792  11.609
83888SOL    HW153561   6.499   7.751  11.656
83888SOL    HW253562   6.557   7.768  11.518
83889SOL     OW53563  13.524   5.455  10.628
83889SOL    HW153564  13.484   5.371  10.650
83889SOL    HW253565  13.488   5.516  10.692
83890SOL     OW53566   7.048   4.951   8.460
83890SOL    HW153567   6.983   4.917   8.521
83890SOL    HW253568   7.091   4.874   8.425
83891SOL     OW53569   2.294   0.860  13.747
83891SOL    HW153570   2.312   0.824  13.834
83891SOL    HW253571   2.201   0.842  13.732
83892SOL     OW53572   9.661   0.638  11.607
83892SOL    HW153573   9.587   0.698  11.601
83892SOL    HW253574   9.739   0.694  11.599
83893SOL     OW53575  12.262   5.494   5.203
83893SOL    HW153576  12.356   5.487   5.183
83893SOL    HW253577  12.219   5.490   5.118
83894SOL     OW53578   5.154   4.614   6.067
83894SOL    HW153579   5.063   4.609   6.095
83894SOL    HW253580   5.185   4.698   6.102
83895SOL     OW53581  10.542   5.155   5.468
83895SOL    HW153582  10.541   5.246   5.498
83895SOL    HW253583  10.486   5.108   5.530
83896SOL     OW53584  12.456   3.191  11.957
83896SOL    HW153585  12.478   3.211  11.866
83896SOL    HW253586  12.377   3.242  11.975
83897SOL     OW53587  12.964  12.551   8.757
83897SOL    HW153588  12.969  12.607   8.834
83897SOL    HW253589  12.957  12.612   8.683
83898SOL     OW53590   1.207   5.516   5.686
83898SOL    HW153591   1.196   5.425   5.716
83898SOL    HW253592   1.148   5.566   5.741
83899SOL     OW53593   3.232   7.863   1.772
83899SOL    HW153594   3.309   7.807   1.775
83899SOL    HW253595   3.243   7.925   1.844
83900SOL     OW53596   2.460   0.478  12.863
83900SOL    HW153597   2.423   0.397  12.898
83900SOL    HW253598   2.438   0.476  12.769
83901SOL     OW53599   9.252   1.472  14.422
83901SOL    HW153600   9.299   1.426  14.492
83901SOL    HW253601   9.295   1.558  14.418
83902SOL     OW53602   0.412   3.949   2.295
83902SOL    HW153603   0.353   3.996   2.236
83902SOL    HW253604   0.384   3.976   2.383
83903SOL     OW53605   8.427  12.959  10.726
83903SOL    HW153606   8.403  12.964  10.819
83903SOL    HW253607   8.353  12.998  10.680
83904SOL     OW53608   5.375  14.604   2.144
83904SOL    HW153609   5.321  14.659   2.201
83904SOL    HW253610   5.456  14.655   2.131
83905SOL     OW53611   7.613  14.727  10.742
83905SOL    HW153612   7.577  14.813  10.720
83905SOL    HW253613   7.702  14.728  10.705
83906SOL     OW53614  12.135   6.169   1.179
83906SOL    HW153615  12.053   6.164   1.129
83906SOL    HW253616  12.196   6.213   1.120
83907SOL     OW53617  11.467   8.302   7.690
83907SOL    HW153618  11.424   8.308   7.775
83907SOL    HW253619  11.441   8.217   7.656
83908SOL     OW53620   3.068   9.160  14.081
83908SOL    HW153621   3.101   9.128  14.165
83908SOL    HW253622   3.016   9.237  14.104
83909SOL     OW53623   2.543   4.919  12.445
83909SOL    HW153624   2.573   4.873  12.368
83909SOL    HW253625   2.621   4.964  12.478
83910SOL     OW53626   2.233  14.838   3.510
83910SOL    HW153627   2.141  14.844   3.538
83910SOL    HW253628   2.231  14.853   3.416
83911SOL     OW53629   4.463  12.872   8.301
83911SOL    HW153630   4.543  12.924   8.295
83911SOL    HW253631   4.395  12.929   8.265
83912SOL     OW53632   0.855  14.435  13.656
83912SOL    HW153633   0.936  14.473  13.623
83912SOL    HW253634   0.786  14.488  13.617
83913SOL     OW53635  10.010   0.292   3.122
83913SOL    HW153636  10.023   0.330   3.208
83913SOL    HW253637   9.923   0.321   3.095
83914SOL     OW53638  12.871   8.678  14.106
83914SOL    HW153639  12.846   8.750  14.165
83914SOL    HW253640  12.869   8.600  14.162
83915SOL     OW53641   9.070   9.377   8.164
83915SOL    HW153642   9.046   9.368   8.072
83915SOL    HW253643   9.104   9.466   8.171
83916SOL     OW53644   5.385  14.044   1.875
83916SOL    HW153645   5.362  13.951   1.864
83916SOL    HW253646   5.405  14.074   1.787
83917SOL     OW53647  10.835   7.277  13.404
83917SOL    HW153648  10.781   7.216  13.454
83917SOL    HW253649  10.783   7.299  13.327
83918SOL     OW53650   1.180   5.004   8.967
83918SOL    HW153651   1.143   4.944   8.902
83918SOL    HW253652   1.119   4.999   9.041
83919SOL     OW53653   6.138   2.008  10.650
83919SOL    HW153654   6.060   1.958  10.625
83919SOL    HW253655   6.182   1.953  10.715
83920SOL     OW53656  10.156   9.964   7.822
83920SOL    HW153657  10.126   9.904   7.890
83920SOL    HW253658  10.177   9.908   7.748
83921SOL     OW53659  10.318   2.441  11.881
83921SOL    HW153660  10.333   2.509  11.814
83921SOL    HW253661  10.369   2.366  11.850
83922SOL     OW53662  14.870   5.771   1.558
83922SOL    HW153663   0.059   5.717   1.578
83922SOL    HW253664   0.018   5.844   1.507
83923SOL     OW53665  13.570   4.087  13.387
83923SOL    HW153666  13.554   4.140  13.465
83923SOL    HW253667  13.496   4.106  13.329
83924SOL     OW53668   4.428   6.314  13.521
83924SOL    HW153669   4.423   6.277  13.609
83924SOL    HW253670   4.353   6.277  13.475
83925SOL     OW53671   4.867   2.135   1.744
83925SOL    HW153672   4.881   2.053   1.791
83925SOL    HW253673   4.930   2.196   1.783
83926SOL     OW53674   4.927   0.552  14.868
83926SOL    HW153675   4.869   0.541  14.792
83926SOL    HW253676   4.876   0.519   0.055
83927SOL     OW53677  10.565   8.219   2.809
83927SOL    HW153678  10.480   8.177   2.803
83927SOL    HW253679  10.546   8.312   2.814
83928SOL     OW53680  11.975   5.700   0.438
83928SOL    HW153681  11.957   5.718   0.530
83928SOL    HW253682  11.889   5.685   0.399
83929SOL     OW53683   2.819   4.205   3.842
83929SOL    HW153684   2.846   4.202   3.934
83929SOL    HW253685   2.853   4.124   3.805
83930SOL     OW53686   8.219   4.853  10.567
83930SOL    HW153687   8.150   4.817  10.622
83930SOL    HW253688   8.235   4.941  10.602
83931SOL     OW53689   6.044   3.187   6.179
83931SOL    HW153690   6.092   3.209   6.100
83931SOL    HW253691   5.958   3.226   6.167
83932SOL     OW53692   4.416   4.659  11.037
83932SOL    HW153693   4.324   4.681  11.021
83932SOL    HW253694   4.457   4.743  11.059
83933SOL     OW53695  12.215  12.870   1.907
83933SOL    HW153696  12.210  12.774   1.902
83933SOL    HW253697  12.212  12.889   2.001
83934SOL     OW53698   7.998   2.462   9.925
83934SOL    HW153699   8.073   2.462   9.985
83934SOL    HW253700   7.922   2.458   9.983
83935SOL     OW53701   7.323   8.777   5.766
83935SOL    HW153702   7.300   8.825   5.845
83935SOL    HW253703   7.402   8.729   5.789
83936SOL     OW53704   7.846  10.599   0.050
83936SOL    HW153705   7.831  10.674  14.881
83936SOL    HW253706   7.925  10.558   0.014
83937SOL     OW53707  14.684  12.332   3.880
83937SOL    HW153708  14.680  12.307   3.972
83937SOL    HW253709  14.600  12.374   3.863
83938SOL     OW53710   3.989   1.790  11.668
83938SOL    HW153711   4.004   1.787  11.763
83938SOL    HW253712   3.894   1.776  11.659
83939SOL     OW53713   7.842   1.939   9.429
83939SOL    HW153714   7.876   1.877   9.364
83939SOL    HW253715   7.832   2.021   9.381
83940SOL     OW53716   9.472   2.335   9.378
83940SOL    HW153717   9.528   2.388   9.434
83940SOL    HW253718   9.397   2.391   9.358
83941SOL     OW53719   8.946   4.976  10.970
83941SOL    HW153720   8.959   5.013  11.057
83941SOL    HW253721   8.983   4.888  10.975
83942SOL     OW53722  11.869  13.186   6.976
83942SOL    HW153723  11.954  13.150   6.950
83942SOL    HW253724  11.805  13.133   6.929
83943SOL     OW53725   7.382  10.936  11.541
83943SOL    HW153726   7.410  10.956  11.631
83943SOL    HW253727   7.458  10.956  11.487
83944SOL     OW53728   7.764   6.418   9.497
83944SOL    HW153729   7.728   6.506   9.511
83944SOL    HW253730   7.825   6.429   9.424
83945SOL     OW53731   9.525   5.900  13.853
83945SOL    HW153732   9.435   5.926  13.875
83945SOL    HW253733   9.574   5.982  13.855
83946SOL     OW53734   7.872   2.176   9.299
83946SOL    HW153735   7.868   2.248   9.235
83946SOL    HW253736   7.839   2.214   9.380
83947SOL     OW53737   7.369   8.039  12.724
83947SOL    HW153738   7.384   7.945  12.714
83947SOL    HW253739   7.278   8.052  12.696
83948SOL     OW53740   8.855  12.708   2.452
83948SOL    HW153741   8.818  12.660   2.526
83948SOL    HW253742   8.784  12.712   2.388
83949SOL     OW53743  11.708   9.693   6.977
83949SOL    HW153744  11.677   9.604   6.997
83949SOL    HW253745  11.693   9.742   7.057
83950SOL     OW53746  12.674  11.441   5.349
83950SOL    HW153747  12.591  11.487   5.356
83950SOL    HW253748  12.650  11.349   5.337
83951SOL     OW53749   0.359  10.985   2.883
83951SOL    HW153750   0.412  11.060   2.858
83951SOL    HW253751   0.389  10.962   2.971
83952SOL     OW53752   1.664   2.126   8.919
83952SOL    HW153753   1.625   2.149   9.003
83952SOL    HW253754   1.737   2.187   8.908
83953SOL     OW53755   4.071   2.846  12.965
83953SOL    HW153756   4.115   2.872  13.045
83953SOL    HW253757   4.142   2.814  12.908
83954SOL     OW53758   4.205  12.462   5.056
83954SOL    HW153759   4.133  12.512   5.017
83954SOL    HW253760   4.162  12.394   5.108
83955SOL     OW53761   8.811   0.163   0.460
83955SOL    HW153762   8.832   0.208   0.542
83955SOL    HW253763   8.717   0.176   0.449
83956SOL     OW53764   6.748   6.682   2.971
83956SOL    HW153765   6.754   6.759   2.915
83956SOL    HW253766   6.756   6.716   3.060
83957SOL     OW53767   7.298   9.447   6.011
83957SOL    HW153768   7.240   9.390   5.961
83957SOL    HW253769   7.361   9.388   6.051
83958SOL     OW53770  13.045   0.915  11.786
83958SOL    HW153771  12.972   0.854  11.777
83958SOL    HW253772  13.028   0.961  11.868
83959SOL     OW53773   3.936   6.508   7.036
83959SOL    HW153774   3.854   6.556   7.031
83959SOL    HW253775   3.914   6.421   7.000
83960SOL     OW53776  13.273   0.923  13.921
83960SOL    HW153777  13.287   1.006  13.876
83960SOL    HW253778  13.189   0.891  13.889
83961SOL     OW53779  13.482   7.179  10.448
83961SOL    HW153780  13.492   7.235  10.524
83961SOL    HW253781  13.519   7.229  10.376
83962SOL     OW53782   9.342  10.272   9.419
83962SOL    HW153783   9.303  10.216   9.485
83962SOL    HW253784   9.297  10.249   9.338
83963SOL     OW53785   0.920   8.656  11.883
83963SOL    HW153786   0.868   8.603  11.944
83963SOL    HW253787   0.989   8.694  11.938
83964SOL     OW53788   4.944   5.151   3.037
83964SOL    HW153789   4.913   5.083   2.978
83964SOL    HW253790   5.009   5.199   2.985
83965SOL     OW53791  13.313   9.212   2.808
83965SOL    HW153792  13.232   9.240   2.851
83965SOL    HW253793  13.363   9.169   2.878
83966SOL     OW53794  10.891   0.248   6.196
83966SOL    HW153795  10.957   0.205   6.249
83966SOL    HW253796  10.941   0.287   6.123
83967SOL     OW53797   5.700  10.158   3.143
83967SOL    HW153798   5.795  10.161   3.151
83967SOL    HW253799   5.679  10.065   3.134
83968SOL     OW53800  12.451   6.105  10.045
83968SOL    HW153801  12.384   6.062  10.098
83968SOL    HW253802  12.518   6.132  10.107
83969SOL     OW53803   1.240  11.981  10.983
83969SOL    HW153804   1.321  12.028  11.001
83969SOL    HW253805   1.269  11.892  10.962
83970SOL     OW53806  13.111   0.876   5.997
83970SOL    HW153807  13.174   0.927   6.047
83970SOL    HW253808  13.118   0.909   5.907
83971SOL     OW53809  12.098  12.536   5.546
83971SOL    HW153810  12.173  12.560   5.493
83971SOL    HW253811  12.071  12.618   5.588
83972SOL     OW53812  11.942   0.401   8.023
83972SOL    HW153813  11.996   0.351   8.084
83972SOL    HW253814  11.872   0.437   8.076
83973SOL     OW53815   0.545   6.766   1.675
83973SOL    HW153816   0.627   6.798   1.713
83973SOL    HW253817   0.482   6.836   1.692
83974SOL     OW53818  13.224  14.784   1.618
83974SOL    HW153819  13.276  14.850   1.572
83974SOL    HW253820  13.250  14.701   1.577
83975SOL     OW53821   0.184   2.832  10.755
83975SOL    HW153822   0.236   2.903  10.794
83975SOL    HW253823   0.174   2.769  10.826
83976SOL     OW53824   4.443   2.631  11.244
83976SOL    HW153825   4.426   2.549  11.197
83976SOL    HW253826   4.525   2.664  11.206
83977SOL     OW53827   1.555   2.673   9.111
83977SOL    HW153828   1.614   2.745   9.131
83977SOL    HW253829   1.469   2.703   9.140
83978SOL     OW53830  14.251   6.101   5.026
83978SOL    HW153831  14.242   6.165   4.956
83978SOL    HW253832  14.217   6.145   5.104
83979SOL     OW53833   1.346   6.119  13.213
83979SOL    HW153834   1.425   6.111  13.159
83979SOL    HW253835   1.379   6.144  13.299
83980SOL     OW53836   8.115   0.436   7.922
83980SOL    HW153837   8.193   0.418   7.870
83980SOL    HW253838   8.047   0.382   7.882
83981SOL     OW53839   5.691  10.136   0.996
83981SOL    HW153840   5.749  10.078   1.045
83981SOL    HW253841   5.657  10.198   1.061
83982SOL     OW53842   0.591  11.570   3.919
83982SOL    HW153843   0.557  11.563   4.008
83982SOL    HW253844   0.686  11.576   3.930
83983SOL     OW53845   0.016   5.687   9.739
83983SOL    HW153846   0.043   5.771   9.776
83983SOL    HW253847   0.097   5.636   9.735
83984SOL     OW53848  10.373   1.292  11.020
83984SOL    HW153849  10.351   1.254  11.105
83984SOL    HW253850  10.347   1.384  11.027
83985SOL     OW53851  14.232   8.485   7.127
83985SOL    HW153852  14.275   8.420   7.183
83985SOL    HW253853  14.196   8.435   7.054
83986SOL     OW53854  14.109   8.407   6.217
83986SOL    HW153855  14.097   8.364   6.302
83986SOL    HW253856  14.199   8.384   6.192
83987SOL     OW53857   2.148  11.796  14.819
83987SOL    HW153858   2.053  11.810  14.820
83987SOL    HW253859   2.159  11.703  14.838
83988SOL     OW53860  11.750   5.314   4.086
83988SOL    HW153861  11.743   5.324   3.991
83988SOL    HW253862  11.818   5.377   4.112
83989SOL     OW53863   1.583   4.677  11.695
83989SOL    HW153864   1.542   4.701  11.778
83989SOL    HW253865   1.584   4.581  11.696
83990SOL     OW53866  10.320   7.002   5.962
83990SOL    HW153867  10.306   6.924   5.908
83990SOL    HW253868  10.413   7.002   5.981
83991SOL     OW53869   8.025   7.300  11.867
83991SOL    HW153870   8.039   7.225  11.925
83991SOL    HW253871   8.020   7.375  11.926
83992SOL     OW53872  11.153   3.453   4.031
83992SOL    HW153873  11.122   3.471   3.942
83992SOL    HW253874  11.245   3.481   4.031
83993SOL     OW53875   1.948   5.784  10.444
83993SOL    HW153876   1.917   5.699  10.476
83993SOL    HW253877   2.040   5.769  10.421
83994SOL     OW53878  12.170   7.084   2.598
83994SOL    HW153879  12.131   7.115   2.516
83994SOL    HW253880  12.233   7.152   2.621
83995SOL     OW53881   4.990   9.743  10.382
83995SOL    HW153882   5.064   9.684  10.370
83995SOL    HW253883   4.948   9.713  10.463
83996SOL     OW53884  10.658  10.585   9.757
83996SOL    HW153885  10.669  10.559   9.849
83996SOL    HW253886  10.747  10.585   9.722
83997SOL     OW53887  14.668   3.451   0.684
83997SOL    HW153888  14.755   3.426   0.717
83997SOL    HW253889  14.680   3.461   0.590
83998SOL     OW53890  13.396   4.279   5.835
83998SOL    HW153891  13.402   4.231   5.753
83998SOL    HW253892  13.333   4.349   5.818
83999SOL     OW53893   5.769  13.409   1.587
83999SOL    HW153894   5.706  13.480   1.573
83999SOL    HW253895   5.733  13.336   1.536
84000SOL     OW53896   5.366   4.358  13.710
84000SOL    HW153897   5.298   4.388  13.771
84000SOL    HW253898   5.413   4.290  13.759
84001SOL     OW53899   1.827   2.078   0.649
84001SOL    HW153900   1.748   2.072   0.596
84001SOL    HW253901   1.896   2.103   0.588
84002SOL     OW53902   8.506   5.601   7.188
84002SOL    HW153903   8.431   5.593   7.129
84002SOL    HW253904   8.528   5.694   7.186
84003SOL     OW53905   8.710   3.842   2.507
84003SOL    HW153906   8.649   3.838   2.433
84003SOL    HW253907   8.781   3.781   2.483
84004SOL     OW53908   0.884   5.437   4.260
84004SOL    HW153909   0.804   5.486   4.242
84004SOL    HW253910   0.902   5.389   4.180
84005SOL     OW53911  12.529  13.750   2.826
84005SOL    HW153912  12.459  13.796   2.872
84005SOL    HW253913  12.537  13.795   2.742
84006SOL     OW53914  13.589   2.100   7.501
84006SOL    HW153915  13.532   2.024   7.515
84006SOL    HW253916  13.675   2.062   7.487
84007SOL     OW53917  12.080  13.013  10.756
84007SOL    HW153918  12.043  12.996  10.842
84007SOL    HW253919  12.166  12.971  10.757
84008SOL     OW53920   1.649   2.283  14.755
84008SOL    HW153921   1.744   2.285  14.741
84008SOL    HW253922   1.614   2.246  14.674
84009SOL     OW53923   4.130  12.866  13.715
84009SOL    HW153924   4.107  12.805  13.786
84009SOL    HW253925   4.180  12.812  13.653
84010SOL     OW53926  10.957  11.777   0.663
84010SOL    HW153927  10.927  11.842   0.726
84010SOL    HW253928  10.964  11.825   0.580
84011SOL     OW53929   8.648  14.067  12.964
84011SOL    HW153930   8.689  13.980  12.966
84011SOL    HW253931   8.575  14.060  13.026
84012SOL     OW53932  10.096  11.268   4.051
84012SOL    HW153933  10.000  11.273   4.061
84012SOL    HW253934  10.112  11.293   3.960
84013SOL     OW53935  12.843   5.512   6.626
84013SOL    HW153936  12.820   5.557   6.545
84013SOL    HW253937  12.787   5.434   6.627
84014SOL     OW53938   6.569   2.324  12.262
84014SOL    HW153939   6.509   2.397  12.246
84014SOL    HW253940   6.548   2.295  12.351
84015SOL     OW53941   0.471  12.862   9.747
84015SOL    HW153942   0.498  12.916   9.672
84015SOL    HW253943   0.545  12.868   9.807
84016SOL     OW53944  10.718   8.431   8.081
84016SOL    HW153945  10.652   8.385   8.134
84016SOL    HW253946  10.736   8.371   8.009
84017SOL     OW53947   3.589   3.909   1.874
84017SOL    HW153948   3.612   3.971   1.943
84017SOL    HW253949   3.510   3.945   1.834
84018SOL     OW53950  12.751  12.005   8.363
84018SOL    HW153951  12.694  11.996   8.440
84018SOL    HW253952  12.815  12.072   8.389
84019SOL     OW53953   8.771   3.534  10.503
84019SOL    HW153954   8.743   3.510  10.415
84019SOL    HW253955   8.843   3.473  10.523
84020SOL     OW53956   9.271  13.673   2.253
84020SOL    HW153957   9.278  13.687   2.347
84020SOL    HW253958   9.358  13.642   2.227
84021SOL     OW53959   6.411  12.435   6.466
84021SOL    HW153960   6.396  12.508   6.405
84021SOL    HW253961   6.431  12.360   6.409
84022SOL     OW53962   3.357   8.985   3.939
84022SOL    HW153963   3.417   9.014   4.008
84022SOL    HW253964   3.400   9.008   3.857
84023SOL     OW53965   1.754  14.066   5.099
84023SOL    HW153966   1.827  14.039   5.155
84023SOL    HW253967   1.791  14.131   5.040
84024SOL     OW53968   2.493   9.111   5.508
84024SOL    HW153969   2.472   9.105   5.601
84024SOL    HW253970   2.436   9.180   5.475
84025SOL     OW53971  10.090  10.251   5.355
84025SOL    HW153972  10.005  10.265   5.314
84025SOL    HW253973  10.071  10.242   5.448
84026SOL     OW53974  13.446   0.108   8.030
84026SOL    HW153975  13.383   0.085   8.099
84026SOL    HW253976  13.413   0.065   7.951
84027SOL     OW53977  14.082   7.501   3.181
84027SOL    HW153978  14.129   7.476   3.101
84027SOL    HW253979  14.077   7.420   3.232
84028SOL     OW53980  13.168   4.309  14.776
84028SOL    HW153981  13.088   4.310  14.723
84028SOL    HW253982  13.228   4.253  14.728
84029SOL     OW53983   1.514  11.909  12.184
84029SOL    HW153984   1.443  11.929  12.245
84029SOL    HW253985   1.544  11.994  12.153
84030SOL     OW53986   1.746   3.175  11.670
84030SOL    HW153987   1.800   3.252  11.691
84030SOL    HW253988   1.691   3.163  11.748
84031SOL     OW53989   2.491  14.782   0.530
84031SOL    HW153990   2.547  14.722   0.480
84031SOL    HW253991   2.553  14.839   0.576
84032SOL     OW53992  13.954  12.631  11.199
84032SOL    HW153993  13.922  12.588  11.278
84032SOL    HW253994  14.009  12.702  11.231
84033SOL     OW53995  12.084  11.322   2.070
84033SOL    HW153996  12.045  11.263   2.005
84033SOL    HW253997  12.046  11.295   2.153
84034SOL     OW53998   1.774   1.387   4.420
84034SOL    HW153999   1.694   1.337   4.406
84034SOL    HW254000   1.760   1.469   4.373
84035SOL     OW54001   7.932   9.191  12.334
84035SOL    HW154002   7.898   9.221  12.419
84035SOL    HW254003   7.936   9.270  12.281
84036SOL     OW54004   1.445   3.106   7.771
84036SOL    HW154005   1.480   3.133   7.856
84036SOL    HW254006   1.521   3.070   7.725
84037SOL     OW54007  10.037   7.665   7.499
84037SOL    HW154008  10.123   7.697   7.470
84037SOL    HW254009  10.039   7.671   7.594
84038SOL     OW54010   3.333   5.102  14.730
84038SOL    HW154011   3.279   5.168  14.686
84038SOL    HW254012   3.423   5.131  14.716
84039SOL     OW54013  13.525   3.123   9.833
84039SOL    HW154014  13.505   3.109   9.925
84039SOL    HW254015  13.506   3.038   9.792
84040SOL     OW54016   0.867  12.159   3.043
84040SOL    HW154017   0.940  12.211   3.075
84040SOL    HW254018   0.838  12.203   2.964
84041SOL     OW54019   2.170   7.371   0.908
84041SOL    HW154020   2.171   7.282   0.943
84041SOL    HW254021   2.113   7.367   0.832
84042SOL     OW54022   7.948  13.150  14.882
84042SOL    HW154023   7.992  13.120   0.074
84042SOL    HW254024   7.995  13.107  14.810
84043SOL     OW54025  11.286   2.818   4.111
84043SOL    HW154026  11.326   2.742   4.154
84043SOL    HW254027  11.277   2.883   4.181
84044SOL     OW54028   2.363   1.949  10.822
84044SOL    HW154029   2.377   2.042  10.804
84044SOL    HW254030   2.268   1.938  10.824
84045SOL     OW54031  11.232   0.040   7.103
84045SOL    HW154032  11.163   0.006   7.160
84045SOL    HW254033  11.312   0.036   7.156
84046SOL     OW54034   9.500   5.426   2.639
84046SOL    HW154035   9.490   5.369   2.715
84046SOL    HW254036   9.469   5.373   2.566
84047SOL     OW54037   5.944   5.211   8.801
84047SOL    HW154038   5.934   5.276   8.871
84047SOL    HW254039   5.887   5.243   8.731
84048SOL     OW54040   1.996   6.020  14.200
84048SOL    HW154041   1.937   6.080  14.246
84048SOL    HW254042   1.991   6.046  14.109
84049SOL     OW54043   4.410   4.675  13.370
84049SOL    HW154044   4.353   4.747  13.340
84049SOL    HW254045   4.499   4.707  13.355
84050SOL     OW54046  10.949   6.278   9.211
84050SOL    HW154047  11.020   6.342   9.201
84050SOL    HW254048  10.886   6.301   9.143
84051SOL     OW54049   4.725   4.386   0.194
84051SOL    HW154050   4.675   4.401   0.114
84051SOL    HW254051   4.765   4.300   0.183
84052SOL     OW54052   0.045   5.415  13.674
84052SOL    HW154053   0.121   5.433  13.730
84052SOL    HW254054   0.030   5.496  13.627
84053SOL     OW54055   1.338  10.915   2.275
84053SOL    HW154056   1.292  10.888   2.354
84053SOL    HW254057   1.268  10.926   2.210
84054SOL     OW54058   5.070   4.292   1.723
84054SOL    HW154059   5.071   4.196   1.727
84054SOL    HW254060   4.984   4.316   1.756
84055SOL     OW54061   7.344   9.461   1.048
84055SOL    HW154062   7.284   9.530   1.020
84055SOL    HW254063   7.308   9.431   1.132
84056SOL     OW54064   0.306   7.457   6.141
84056SOL    HW154065   0.284   7.377   6.094
84056SOL    HW254066   0.371   7.501   6.087
84057SOL     OW54067   2.220  11.629  11.066
84057SOL    HW154068   2.243  11.701  11.007
84057SOL    HW254069   2.273  11.555  11.035
84058SOL     OW54070  11.663  14.131   9.471
84058SOL    HW154071  11.746  14.133   9.423
84058SOL    HW254072  11.632  14.041   9.462
84059SOL     OW54073   3.783   1.273   4.786
84059SOL    HW154074   3.724   1.232   4.723
84059SOL    HW254075   3.799   1.206   4.852
84060SOL     OW54076   3.394  13.167   8.147
84060SOL    HW154077   3.447  13.101   8.191
84060SOL    HW254078   3.345  13.209   8.218
84061SOL     OW54079  13.965   5.307   4.364
84061SOL    HW154080  13.928   5.221   4.349
84061SOL    HW254081  13.914   5.366   4.309
84062SOL     OW54082   5.603   2.927   7.090
84062SOL    HW154083   5.594   2.953   6.999
84062SOL    HW254084   5.697   2.912   7.102
84063SOL     OW54085   9.458   9.170   8.866
84063SOL    HW154086   9.466   9.153   8.773
84063SOL    HW254087   9.393   9.107   8.897
84064SOL     OW54088  11.549  12.318   4.390
84064SOL    HW154089  11.483  12.388   4.392
84064SOL    HW254090  11.539  12.278   4.304
84065SOL     OW54091   2.887   2.143   4.829
84065SOL    HW154092   2.856   2.120   4.742
84065SOL    HW254093   2.966   2.195   4.815
84066SOL     OW54094   8.730   3.927   0.517
84066SOL    HW154095   8.801   3.865   0.500
84066SOL    HW254096   8.774   4.008   0.545
84067SOL     OW54097   2.912  14.835   0.696
84067SOL    HW154098   2.912  14.780   0.775
84067SOL    HW254099   2.909   0.037   0.729
84068SOL     OW54100  10.813   0.672  11.485
84068SOL    HW154101  10.896   0.629  11.506
84068SOL    HW254102  10.807   0.667  11.389
84069SOL     OW54103   4.405   0.993   4.893
84069SOL    HW154104   4.484   0.990   4.840
84069SOL    HW254105   4.338   0.951   4.840
84070SOL     OW54106  11.662   1.398   3.269
84070SOL    HW154107  11.629   1.308   3.272
84070SOL    HW254108  11.610   1.440   3.200
84071SOL     OW54109  14.413   5.400   9.482
84071SOL    HW154110  14.437   5.318   9.525
84071SOL    HW254111  14.317   5.400   9.484
84072SOL     OW54112  11.610  12.455   2.685
84072SOL    HW154113  11.572  12.403   2.614
84072SOL    HW254114  11.650  12.530   2.641
84073SOL     OW54115   7.854   4.813   7.579
84073SOL    HW154116   7.899   4.733   7.605
84073SOL    HW254117   7.781   4.783   7.525
84074SOL     OW54118  12.581   8.743   8.754
84074SOL    HW154119  12.608   8.766   8.843
84074SOL    HW254120  12.652   8.776   8.699
84075SOL     OW54121   7.611   9.795   1.123
84075SOL    HW154122   7.563   9.766   1.046
84075SOL    HW254123   7.671   9.862   1.091
84076SOL     OW54124  10.235   7.845  11.291
84076SOL    HW154125  10.160   7.787  11.286
84076SOL    HW254126  10.311   7.787  11.288
84077SOL     OW54127   3.709  14.115   4.415
84077SOL    HW154128   3.793  14.121   4.371
84077SOL    HW254129   3.714  14.033   4.464
84078SOL     OW54130   9.992   8.519  14.145
84078SOL    HW154131  10.087   8.520  14.149
84078SOL    HW254132   9.970   8.593  14.089
84079SOL     OW54133  14.134  12.237   2.596
84079SOL    HW154134  14.212  12.241   2.651
84079SOL    HW254135  14.160  12.277   2.513
84080SOL     OW54136  13.111  10.178   1.074
84080SOL    HW154137  13.029  10.130   1.066
84080SOL    HW254138  13.178  10.111   1.086
84081SOL     OW54139   3.508   3.003  11.949
84081SOL    HW154140   3.553   3.012  12.033
84081SOL    HW254141   3.499   3.093  11.916
84082SOL     OW54142   0.149   9.268   2.241
84082SOL    HW154143   0.215   9.337   2.240
84082SOL    HW254144   0.171   9.212   2.166
84083SOL     OW54145   7.351   1.539   5.916
84083SOL    HW154146   7.308   1.504   5.994
84083SOL    HW254147   7.283   1.536   5.848
84084SOL     OW54148   9.953   9.148  11.809
84084SOL    HW154149   9.917   9.085  11.747
84084SOL    HW254150   9.918   9.233  11.782
84085SOL     OW54151  11.357  14.321   6.468
84085SOL    HW154152  11.433  14.354   6.516
84085SOL    HW254153  11.346  14.232   6.502
84086SOL     OW54154   1.459  11.109   9.415
84086SOL    HW154155   1.366  11.093   9.428
84086SOL    HW254156   1.499  11.022   9.418
84087SOL     OW54157  10.926   2.688  10.092
84087SOL    HW154158  10.885   2.707  10.008
84087SOL    HW254159  10.873   2.737  10.155
84088SOL     OW54160   1.707  11.186  13.475
84088SOL    HW154161   1.789  11.228  13.500
84088SOL    HW254162   1.644  11.214  13.542
84089SOL     OW54163  14.434   6.555   9.386
84089SOL    HW154164  14.440   6.520   9.297
84089SOL    HW254165  14.359   6.614   9.383
84090SOL     OW54166  12.264   8.466   9.643
84090SOL    HW154167  12.344   8.512   9.668
84090SOL    HW254168  12.193   8.521   9.675
84091SOL     OW54169   6.425   6.001  13.743
84091SOL    HW154170   6.330   5.995  13.732
84091SOL    HW254171   6.440   5.989  13.836
84092SOL     OW54172   3.315   3.372   1.352
84092SOL    HW154173   3.261   3.370   1.430
84092SOL    HW254174   3.405   3.383   1.385
84093SOL     OW54175   7.545   9.673   1.375
84093SOL    HW154176   7.600   9.595   1.386
84093SOL    HW254177   7.552   9.695   1.283
84094SOL     OW54178  14.802  13.928   4.289
84094SOL    HW154179  14.748  13.964   4.218
84094SOL    HW254180  14.744  13.933   4.366
84095SOL     OW54181   8.965   3.524   0.361
84095SOL    HW154182   9.012   3.466   0.422
84095SOL    HW254183   9.034   3.573   0.316
84096SOL     OW54184   0.392   9.879  11.973
84096SOL    HW154185   0.346   9.927  11.904
84096SOL    HW254186   0.326   9.821  12.010
84097SOL     OW54187  14.654  14.330   0.104
84097SOL    HW154188  14.577  14.277   0.083
84097SOL    HW254189  14.709  14.273   0.158
84098SOL     OW54190  12.342   2.835  12.902
84098SOL    HW154191  12.326   2.791  12.986
84098SOL    HW254192  12.434   2.815  12.883
84099SOL     OW54193  12.933   1.600   9.187
84099SOL    HW154194  12.930   1.505   9.197
84099SOL    HW254195  12.873   1.618   9.116
84100SOL     OW54196   6.361   5.822   8.231
84100SOL    HW154197   6.291   5.853   8.173
84100SOL    HW254198   6.440   5.825   8.178
84101SOL     OW54199  11.640  11.228   1.523
84101SOL    HW154200  11.624  11.135   1.533
84101SOL    HW254201  11.609  11.248   1.434
84102SOL     OW54202  13.606  11.484  14.616
84102SOL    HW154203  13.589  11.414  14.553
84102SOL    HW254204  13.668  11.446  14.678
84103SOL     OW54205   0.135   9.968   2.266
84103SOL    HW154206   0.205   9.920   2.221
84103SOL    HW254207   0.140   9.939   2.357
84104SOL     OW54208   1.387   3.952   1.486
84104SOL    HW154209   1.420   3.895   1.417
84104SOL    HW254210   1.455   4.019   1.496
84105SOL     OW54211   6.745   6.353  11.208
84105SOL    HW154212   6.772   6.365  11.299
84105SOL    HW254213   6.656   6.319  11.213
84106SOL     OW54214   6.068   2.190   8.606
84106SOL    HW154215   5.988   2.210   8.655
84106SOL    HW254216   6.038   2.175   8.516
84107SOL     OW54217   4.357  10.679  11.541
84107SOL    HW154218   4.431  10.717  11.495
84107SOL    HW254219   4.350  10.729  11.622
84108SOL     OW54220  10.690  14.284   8.091
84108SOL    HW154221  10.613  14.333   8.119
84108SOL    HW254222  10.713  14.323   8.007
84109SOL     OW54223   0.646  10.827   7.085
84109SOL    HW154224   0.579  10.759   7.075
84109SOL    HW254225   0.701  10.818   7.007
84110SOL     OW54226   4.198  11.063   3.983
84110SOL    HW154227   4.158  11.076   4.069
84110SOL    HW254228   4.124  11.061   3.923
84111SOL     OW54229   7.829   7.059   6.199
84111SOL    HW154230   7.750   7.091   6.157
84111SOL    HW254231   7.797   7.003   6.270
84112SOL     OW54232   0.799   1.910  13.681
84112SOL    HW154233   0.712   1.925  13.645
84112SOL    HW254234   0.797   1.951  13.767
84113SOL     OW54235  13.808   1.828   9.688
84113SOL    HW154236  13.725   1.817   9.734
84113SOL    HW254237  13.824   1.922   9.689
84114SOL     OW54238   7.742   8.964   9.468
84114SOL    HW154239   7.648   8.974   9.484
84114SOL    HW254240   7.749   8.895   9.401
84115SOL     OW54241   8.187  14.550   8.087
84115SOL    HW154242   8.230  14.502   8.016
84115SOL    HW254243   8.124  14.607   8.043
84116SOL     OW54244   6.008  13.379  13.018
84116SOL    HW154245   6.017  13.314  13.088
84116SOL    HW254246   5.913  13.395  13.012
84117SOL     OW54247  14.422   0.339   3.045
84117SOL    HW154248  14.512   0.370   3.030
84117SOL    HW254249  14.421   0.313   3.137
84118SOL     OW54250   1.621   8.199  13.644
84118SOL    HW154251   1.558   8.148  13.593
84118SOL    HW254252   1.570   8.233  13.717
84119SOL     OW54253   2.439  11.867   1.629
84119SOL    HW154254   2.451  11.815   1.709
84119SOL    HW254255   2.517  11.849   1.576
84120SOL     OW54256   5.707   6.319  13.694
84120SOL    HW154257   5.747   6.361  13.618
84120SOL    HW254258   5.675   6.235  13.661
84121SOL     OW54259   8.234   1.742   4.033
84121SOL    HW154260   8.307   1.726   4.092
84121SOL    HW254261   8.270   1.727   3.946
84122SOL     OW54262   0.183  12.855  13.456
84122SOL    HW154263   0.115  12.821  13.398
84122SOL    HW254264   0.136  12.914  13.515
84123SOL     OW54265   5.779  12.381  12.704
84123SOL    HW154266   5.810  12.294  12.726
84123SOL    HW254267   5.709  12.399  12.767
84124SOL     OW54268  13.546   0.910  14.839
84124SOL    HW154269  13.480   0.959  14.790
84124SOL    HW254270  13.500   0.884   0.032
84125SOL     OW54271   5.542   0.751  13.685
84125SOL    HW154272   5.587   0.796  13.613
84125SOL    HW254273   5.493   0.821  13.730
84126SOL     OW54274   2.914  11.501   6.646
84126SOL    HW154275   2.854  11.484   6.719
84126SOL    HW254276   2.994  11.531   6.688
84127SOL     OW54277   7.619  14.481  13.120
84127SOL    HW154278   7.705  14.453  13.150
84127SOL    HW254279   7.628  14.576  13.107
84128SOL     OW54280   6.832  14.043   2.167
84128SOL    HW154281   6.765  14.109   2.149
84128SOL    HW254282   6.784  13.970   2.205
84129SOL     OW54283   0.361   2.118   5.867
84129SOL    HW154284   0.348   2.190   5.805
84129SOL    HW254285   0.419   2.057   5.822
84130SOL     OW54286   9.844   1.651  11.061
84130SOL    HW154287   9.872   1.642  11.152
84130SOL    HW254288   9.777   1.719  11.063
84131SOL     OW54289   8.835   3.676   2.716
84131SOL    HW154290   8.745   3.648   2.702
84131SOL    HW254291   8.837   3.767   2.687
84132SOL     OW54292   4.833   5.541   4.566
84132SOL    HW154293   4.905   5.584   4.614
84132SOL    HW254294   4.768   5.522   4.633
84133SOL     OW54295  14.828  10.791   4.377
84133SOL    HW154296  14.800  10.793   4.286
84133SOL    HW254297  14.858  10.880   4.395
84134SOL     OW54298  14.796   3.016   3.998
84134SOL    HW154299  14.860   2.947   4.015
84134SOL    HW254300  14.804   3.032   3.903
84135SOL     OW54301  14.119   7.279   5.068
84135SOL    HW154302  14.096   7.296   4.977
84135SOL    HW254303  14.126   7.184   5.074
84136SOL     OW54304   4.011   7.978   1.419
84136SOL    HW154305   4.058   7.917   1.476
84136SOL    HW254306   3.992   8.053   1.475
84137SOL     OW54307   5.325   8.455   2.243
84137SOL    HW154308   5.300   8.423   2.156
84137SOL    HW254309   5.258   8.421   2.302
84138SOL     OW54310   3.528  12.330   1.970
84138SOL    HW154311   3.481  12.355   1.890
84138SOL    HW254312   3.459  12.317   2.035
84139SOL     OW54313   2.091   2.589  12.635
84139SOL    HW154314   2.055   2.596  12.547
84139SOL    HW254315   2.042   2.654  12.686
84140SOL     OW54316   9.624  14.544   9.068
84140SOL    HW154317   9.624  14.563   9.162
84140SOL    HW254318   9.565  14.469   9.058
84141SOL     OW54319   1.753  13.407   5.975
84141SOL    HW154320   1.843  13.382   5.993
84141SOL    HW254321   1.753  13.433   5.883
84142SOL     OW54322  13.684  10.792   2.322
84142SOL    HW154323  13.750  10.782   2.253
84142SOL    HW254324  13.718  10.862   2.377
84143SOL     OW54325   4.119  14.018   8.382
84143SOL    HW154326   4.039  14.015   8.435
84143SOL    HW254327   4.087  14.029   8.292
84144SOL     OW54328  13.682  14.720   6.557
84144SOL    HW154329  13.617  14.654   6.532
84144SOL    HW254330  13.635  14.803   6.551
84145SOL     OW54331   9.284  14.590  10.741
84145SOL    HW154332   9.236  14.634  10.672
84145SOL    HW254333   9.368  14.565  10.701
84146SOL     OW54334   0.950   0.916   8.862
84146SOL    HW154335   0.856   0.929   8.878
84146SOL    HW254336   0.976   0.993   8.811
84147SOL     OW54337   3.115  12.149   4.635
84147SOL    HW154338   3.129  12.106   4.719
84147SOL    HW254339   3.196  12.133   4.586
84148SOL     OW54340  12.917  11.059   0.932
84148SOL    HW154341  12.836  11.069   0.882
84148SOL    HW254342  12.895  11.089   1.020
84149SOL     OW54343  10.313   5.900  12.684
84149SOL    HW154344  10.377   5.932  12.621
84149SOL    HW254345  10.333   5.947  12.765
84150SOL     OW54346  13.655   0.487   7.113
84150SOL    HW154347  13.566   0.514   7.137
84150SOL    HW254348  13.643   0.425   7.041
84151SOL     OW54349   8.673  13.053   6.004
84151SOL    HW154350   8.742  13.077   5.942
84151SOL    HW254351   8.595  13.040   5.948
84152SOL     OW54352   2.099   2.086  12.413
84152SOL    HW154353   2.004   2.085  12.421
84152SOL    HW254354   2.127   2.160  12.468
84153SOL     OW54355  10.823  12.300   7.256
84153SOL    HW154356  10.808  12.395   7.255
84153SOL    HW254357  10.911  12.290   7.291
84154SOL     OW54358  12.928   9.398   3.501
84154SOL    HW154359  13.010   9.406   3.549
84154SOL    HW254360  12.931   9.311   3.462
84155SOL     OW54361   4.669  10.112  14.256
84155SOL    HW154362   4.760  10.140  14.241
84155SOL    HW254363   4.676  10.020  14.279
84156SOL     OW54364   3.812   4.330   6.757
84156SOL    HW154365   3.728   4.374   6.739
84156SOL    HW254366   3.798   4.286   6.841
84157SOL     OW54367   9.728  14.570   5.790
84157SOL    HW154368   9.743  14.476   5.803
84157SOL    HW254369   9.806  14.600   5.744
84158SOL     OW54370   0.609   9.012   2.699
84158SOL    HW154371   0.515   9.026   2.691
84158SOL    HW254372   0.626   8.932   2.651
84159SOL     OW54373  12.740  13.839   4.633
84159SOL    HW154374  12.759  13.924   4.672
84159SOL    HW254375  12.705  13.860   4.546
84160SOL     OW54376  13.297  11.100  11.480
84160SOL    HW154377  13.273  11.019  11.434
84160SOL    HW254378  13.391  11.092  11.495
84161SOL     OW54379   3.421   6.638   0.621
84161SOL    HW154380   3.366   6.688   0.561
84161SOL    HW254381   3.451   6.702   0.686
84162SOL     OW54382   5.236  11.028   6.864
84162SOL    HW154383   5.189  11.042   6.946
84162SOL    HW254384   5.221  10.936   6.843
84163SOL     OW54385  12.186  11.201   5.359
84163SOL    HW154386  12.204  11.113   5.327
84163SOL    HW254387  12.111  11.231   5.306
84164SOL     OW54388   5.038   0.776   3.194
84164SOL    HW154389   5.084   0.855   3.223
84164SOL    HW254390   5.080   0.705   3.241
84165SOL     OW54391   8.512   5.684  11.946
84165SOL    HW154392   8.489   5.755  11.887
84165SOL    HW254393   8.444   5.618  11.932
84166SOL     OW54394   2.737  14.530   0.899
84166SOL    HW154395   2.649  14.520   0.936
84166SOL    HW254396   2.731  14.490   0.813
84167SOL     OW54397  10.420   9.391   5.714
84167SOL    HW154398  10.348   9.454   5.708
84167SOL    HW254399  10.473   9.406   5.636
84168SOL     OW54400   9.633  11.058  10.005
84168SOL    HW154401   9.717  11.019   9.981
84168SOL    HW254402   9.578  11.044   9.929
84169SOL     OW54403  13.138   3.400   6.331
84169SOL    HW154404  13.181   3.340   6.270
84169SOL    HW254405  13.193   3.400   6.408
84170SOL     OW54406   0.343   0.375   7.574
84170SOL    HW154407   0.360   0.281   7.573
84170SOL    HW254408   0.418   0.413   7.529
84171SOL     OW54409   8.707  12.781   0.187
84171SOL    HW154410   8.637  12.831   0.229
84171SOL    HW254411   8.783  12.838   0.191
84172SOL     OW54412  10.740   0.336   9.656
84172SOL    HW154413  10.666   0.353   9.715
84172SOL    HW254414  10.700   0.304   9.575
84173SOL     OW54415  12.996   6.686   7.305
84173SOL    HW154416  12.961   6.662   7.220
84173SOL    HW254417  13.083   6.646   7.308
84174SOL     OW54418   5.622   6.156   9.900
84174SOL    HW154419   5.540   6.179   9.856
84174SOL    HW254420   5.676   6.234   9.892
84175SOL     OW54421   7.398   9.813   0.938
84175SOL    HW154422   7.408   9.764   0.857
84175SOL    HW254423   7.347   9.890   0.914
84176SOL     OW54424  10.357   9.066  13.409
84176SOL    HW154425  10.403   9.129  13.463
84176SOL    HW254426  10.274   9.110  13.387
84177SOL     OW54427  11.604  13.642   3.334
84177SOL    HW154428  11.664  13.569   3.348
84177SOL    HW254429  11.517  13.602   3.332
84178SOL     OW54430  13.640   5.566  14.539
84178SOL    HW154431  13.727   5.603  14.555
84178SOL    HW254432  13.657   5.481  14.499
84179SOL     OW54433  11.359   8.429   2.848
84179SOL    HW154434  11.288   8.444   2.910
84179SOL    HW254435  11.414   8.362   2.889
84180SOL     OW54436   3.299   7.580  14.480
84180SOL    HW154437   3.277   7.572  14.573
84180SOL    HW254438   3.279   7.671  14.459
84181SOL     OW54439   7.114  14.064  10.840
84181SOL    HW154440   7.040  14.122  10.820
84181SOL    HW254441   7.078  13.999  10.901
84182SOL     OW54442  10.560   6.653   8.949
84182SOL    HW154443  10.646   6.661   8.907
84182SOL    HW254444  10.570   6.693   9.035
84183SOL     OW54445  11.293   3.148   8.860
84183SOL    HW154446  11.259   3.096   8.787
84183SOL    HW254447  11.241   3.229   8.859
84184SOL     OW54448   8.471   6.971  10.972
84184SOL    HW154449   8.529   6.904  11.007
84184SOL    HW254450   8.412   6.992  11.045
84185SOL     OW54451  10.058  13.231   3.861
84185SOL    HW154452  10.147  13.266   3.870
84185SOL    HW254453  10.015  13.254   3.943
84186SOL     OW54454   1.965   7.071   2.588
84186SOL    HW154455   2.017   7.150   2.574
84186SOL    HW254456   2.021   7.015   2.643
84187SOL     OW54457   0.409   9.464   5.844
84187SOL    HW154458   0.353   9.483   5.769
84187SOL    HW254459   0.347   9.440   5.914
84188SOL     OW54460  12.163   9.192  13.231
84188SOL    HW154461  12.175   9.170  13.139
84188SOL    HW254462  12.081   9.240  13.234
84189SOL     OW54463   2.178   1.214  12.249
84189SOL    HW154464   2.217   1.206  12.162
84189SOL    HW254465   2.153   1.306  12.255
84190SOL     OW54466   8.545   5.818   9.590
84190SOL    HW154467   8.607   5.837   9.661
84190SOL    HW254468   8.491   5.896   9.584
84191SOL     OW54469  13.456   4.490   0.473
84191SOL    HW154470  13.377   4.543   0.468
84191SOL    HW254471  13.488   4.487   0.383
84192SOL     OW54472   3.247   0.470  10.101
84192SOL    HW154473   3.276   0.490  10.012
84192SOL    HW254474   3.175   0.408  10.089
84193SOL     OW54475   1.971  11.267   5.384
84193SOL    HW154476   1.888  11.298   5.419
84193SOL    HW254477   2.010  11.217   5.456
84194SOL     OW54478  10.723   6.915  14.850
84194SOL    HW154479  10.785   6.887  14.783
84194SOL    HW254480  10.737   6.854   0.035
84195SOL     OW54481   0.010   8.867  13.619
84195SOL    HW154482   0.036   8.927  13.549
84195SOL    HW254483   0.054   8.785  13.598
84196SOL     OW54484  11.954   9.774   6.976
84196SOL    HW154485  11.973   9.833   6.903
84196SOL    HW254486  11.865   9.744   6.961
84197SOL     OW54487   0.061   3.180   8.341
84197SOL    HW154488  14.882   3.180   8.272
84197SOL    HW254489   0.040   3.257   8.394
84198SOL     OW54490   3.470   6.399   2.103
84198SOL    HW154491   3.509   6.312   2.111
84198SOL    HW254492   3.519   6.441   2.033
84199SOL     OW54493   8.525  10.279  14.542
84199SOL    HW154494   8.607  10.320  14.516
84199SOL    HW254495   8.458  10.344  14.519
84200SOL     OW54496   9.148  12.990   6.722
84200SOL    HW154497   9.136  12.895   6.729
84200SOL    HW254498   9.225  13.000   6.666
84201SOL     OW54499   9.341  11.348   0.011
84201SOL    HW154500   9.290  11.425  14.872
84201SOL    HW254501   9.275  11.286   0.042
84202SOL     OW54502   9.022   4.638   7.652
84202SOL    HW154503   8.927   4.643   7.664
84202SOL    HW254504   9.036   4.555   7.607
84203SOL     OW54505  13.308   8.475   8.587
84203SOL    HW154506  13.276   8.532   8.656
84203SOL    HW254507  13.277   8.388   8.611
84204SOL     OW54508   8.224  12.265   7.935
84204SOL    HW154509   8.318  12.259   7.919
84204SOL    HW254510   8.187  12.186   7.897
84205SOL     OW54511   1.319   3.454   2.418
84205SOL    HW154512   1.244   3.458   2.358
84205SOL    HW254513   1.353   3.365   2.409
84206SOL     OW54514   5.415   7.954   4.908
84206SOL    HW154515   5.367   8.023   4.862
84206SOL    HW254516   5.392   7.966   5.000
84207SOL     OW54517   1.843  12.958   6.083
84207SOL    HW154518   1.819  13.028   6.145
84207SOL    HW254519   1.839  13.000   5.997
84208SOL     OW54520  13.508  13.445   1.765
84208SOL    HW154521  13.484  13.537   1.753
84208SOL    HW254522  13.524  13.436   1.859
84209SOL     OW54523   9.467   8.392   2.903
84209SOL    HW154524   9.477   8.303   2.869
84209SOL    HW254525   9.376   8.415   2.885
84210SOL     OW54526   2.186   6.967  14.732
84210SOL    HW154527   2.117   7.008  14.784
84210SOL    HW254528   2.202   7.029  14.661
84211SOL     OW54529   3.338  10.420   1.329
84211SOL    HW154530   3.350  10.345   1.270
84211SOL    HW254531   3.270  10.392   1.390
84212SOL     OW54532  12.997   9.976   3.839
84212SOL    HW154533  12.919   9.946   3.793
84212SOL    HW254534  13.061   9.906   3.826
84213SOL     OW54535   7.072   6.983  12.020
84213SOL    HW154536   7.060   7.078  12.022
84213SOL    HW254537   7.097   6.965  11.929
84214SOL     OW54538   9.888   8.347   9.702
84214SOL    HW154539   9.964   8.304   9.664
84214SOL    HW254540   9.823   8.278   9.711
84215SOL     OW54541  13.455   1.948  13.485
84215SOL    HW154542  13.505   1.888  13.430
84215SOL    HW254543  13.400   1.997  13.424
84216SOL     OW54544  10.913   6.448  13.304
84216SOL    HW154545  10.940   6.481  13.390
84216SOL    HW254546  10.906   6.526  13.249
84217SOL     OW54547  13.510  10.969   2.956
84217SOL    HW154548  13.483  10.938   2.870
84217SOL    HW254549  13.602  10.943   2.963
84218SOL     OW54550   9.609  10.270  12.132
84218SOL    HW154551   9.617  10.325  12.054
84218SOL    HW254552   9.667  10.309  12.196
84219SOL     OW54553   4.563   0.568   6.683
84219SOL    HW154554   4.517   0.578   6.599
84219SOL    HW254555   4.593   0.477   6.683
84220SOL     OW54556  11.773   6.110   8.433
84220SOL    HW154557  11.829   6.063   8.495
84220SOL    HW254558  11.689   6.117   8.477
84221SOL     OW54559  12.742   5.910   8.956
84221SOL    HW154560  12.662   5.912   9.009
84221SOL    HW254561  12.736   5.988   8.900
84222SOL     OW54562   8.811  11.879   9.211
84222SOL    HW154563   8.888  11.933   9.225
84222SOL    HW254564   8.837  11.792   9.241
84223SOL     OW54565   5.127   8.293   2.339
84223SOL    HW154566   5.036   8.322   2.346
84223SOL    HW254567   5.122   8.200   2.321
84224SOL     OW54568  11.218   2.026   7.251
84224SOL    HW154569  11.186   1.939   7.227
84224SOL    HW254570  11.243   2.019   7.343
84225SOL     OW54571   5.296  11.188   8.663
84225SOL    HW154572   5.390  11.203   8.650
84225SOL    HW254573   5.257  11.275   8.657
84226SOL     OW54574   0.719   4.344  11.821
84226SOL    HW154575   0.707   4.411  11.888
84226SOL    HW254576   0.758   4.391  11.747
84227SOL     OW54577   3.774   5.681   9.567
84227SOL    HW154578   3.861   5.721   9.575
84227SOL    HW254579   3.790   5.596   9.526
84228SOL     OW54580   0.059  13.752  10.267
84228SOL    HW154581   0.131  13.759  10.330
84228SOL    HW254582   0.097  13.780  10.184
84229SOL     OW54583  12.902   2.923   3.178
84229SOL    HW154584  12.919   2.961   3.091
84229SOL    HW254585  12.939   2.835   3.172
84230SOL     OW54586  12.947   8.400   9.589
84230SOL    HW154587  12.852   8.412   9.595
84230SOL    HW254588  12.971   8.358   9.672
84231SOL     OW54589   2.888   7.921   2.355
84231SOL    HW154590   2.923   7.910   2.444
84231SOL    HW254591   2.863   7.832   2.328
84232SOL     OW54592   1.067   6.895   1.927
84232SOL    HW154593   1.161   6.887   1.909
84232SOL    HW254594   1.061   6.969   1.987
84233SOL     OW54595  11.758   7.145   2.376
84233SOL    HW154596  11.813   7.204   2.325
84233SOL    HW254597  11.711   7.202   2.437
84234SOL     OW54598  12.745  14.487   0.903
84234SOL    HW154599  12.668  14.446   0.863
84234SOL    HW254600  12.819  14.458   0.849
84235SOL     OW54601  14.171   9.187   7.218
84235SOL    HW154602  14.182   9.183   7.123
84235SOL    HW254603  14.247   9.238   7.249
84236SOL     OW54604   4.820   2.231  13.423
84236SOL    HW154605   4.819   2.193  13.511
84236SOL    HW254606   4.750   2.295  13.424
84237SOL     OW54607  12.347   6.152  13.635
84237SOL    HW154608  12.413   6.184  13.695
84237SOL    HW254609  12.354   6.209  13.558
84238SOL     OW54610   1.922  10.330   5.199
84238SOL    HW154611   2.016  10.325   5.214
84238SOL    HW254612   1.896  10.240   5.179
84239SOL     OW54613   5.713   6.408   4.200
84239SOL    HW154614   5.796   6.432   4.159
84239SOL    HW254615   5.664   6.363   4.132
84240SOL     OW54616  14.822  12.332  12.709
84240SOL    HW154617  14.838  12.384  12.630
84240SOL    HW254618   0.004  12.266  12.709
84241SOL     OW54619   5.384  10.938  11.549
84241SOL    HW154620   5.422  10.994  11.482
84241SOL    HW254621   5.408  10.849  11.523
84242SOL     OW54622   7.718  12.950   6.385
84242SOL    HW154623   7.780  12.883   6.415
84242SOL    HW254624   7.753  13.032   6.419
84243SOL     OW54625   3.702   3.789   2.733
84243SOL    HW154626   3.790   3.752   2.743
84243SOL    HW254627   3.701   3.826   2.645
84244SOL     OW54628   0.438  13.926   5.169
84244SOL    HW154629   0.440  13.988   5.242
84244SOL    HW254630   0.530  13.914   5.145
84245SOL     OW54631   5.526  13.779   9.873
84245SOL    HW154632   5.496  13.857   9.825
84245SOL    HW254633   5.550  13.717   9.804
84246SOL     OW54634  14.600  12.634   7.444
84246SOL    HW154635  14.585  12.550   7.400
84246SOL    HW254636  14.520  12.650   7.494
84247SOL     OW54637   7.210  12.471  12.302
84247SOL    HW154638   7.283  12.495  12.359
84247SOL    HW254639   7.142  12.535  12.322
84248SOL     OW54640  12.486   1.625   3.932
84248SOL    HW154641  12.522   1.632   3.844
84248SOL    HW254642  12.553   1.579   3.982
84249SOL     OW54643  10.980  10.087   4.097
84249SOL    HW154644  10.981  10.133   4.013
84249SOL    HW254645  10.890  10.056   4.107
84250SOL     OW54646   2.443  13.106   4.728
84250SOL    HW154647   2.471  13.078   4.816
84250SOL    HW254648   2.352  13.078   4.722
84251SOL     OW54649   5.585   4.493   8.079
84251SOL    HW154650   5.536   4.544   8.015
84251SOL    HW254651   5.671   4.479   8.038
84252SOL     OW54652   9.288   8.649  13.106
84252SOL    HW154653   9.213   8.608  13.148
84252SOL    HW254654   9.338   8.688  13.178
84253SOL     OW54655   0.543  13.552   5.732
84253SOL    HW154656   0.606  13.489   5.696
84253SOL    HW254657   0.470  13.498   5.763
84254SOL     OW54658  12.494  14.084   3.290
84254SOL    HW154659  12.422  14.070   3.352
84254SOL    HW254660  12.460  14.149   3.229
84255SOL     OW54661  12.220   6.259  11.397
84255SOL    HW154662  12.134   6.292  11.421
84255SOL    HW254663  12.279   6.333  11.411
84256SOL     OW54664   4.923  10.995  10.424
84256SOL    HW154665   4.899  10.955  10.508
84256SOL    HW254666   4.856  10.966  10.363
84257SOL     OW54667   5.336  12.445   7.183
84257SOL    HW154668   5.398  12.447   7.110
84257SOL    HW254669   5.319  12.537   7.203
84258SOL     OW54670   0.042   9.570   2.985
84258SOL    HW154671   0.056   9.508   2.914
84258SOL    HW254672   0.130   9.596   3.013
84259SOL     OW54673   4.613   1.571   5.832
84259SOL    HW154674   4.539   1.518   5.801
84259SOL    HW254675   4.687   1.542   5.779
84260SOL     OW54676   5.603  12.630   3.109
84260SOL    HW154677   5.615  12.535   3.114
84260SOL    HW254678   5.671  12.666   3.166
84261SOL     OW54679   7.225   6.357   6.092
84261SOL    HW154680   7.299   6.414   6.073
84261SOL    HW254681   7.182   6.345   6.007
84262SOL     OW54682  14.767  12.085  10.216
84262SOL    HW154683  14.691  12.045  10.173
84262SOL    HW254684  14.757  12.179  10.199
84263SOL     OW54685   8.885  13.936   9.353
84263SOL    HW154686   8.894  13.925   9.448
84263SOL    HW254687   8.877  13.847   9.319
84264SOL     OW54688   4.172  10.392  12.771
84264SOL    HW154689   4.239  10.343  12.724
84264SOL    HW254690   4.090  10.366  12.730
84265SOL     OW54691   6.868   4.816   8.049
84265SOL    HW154692   6.879   4.749   7.981
84265SOL    HW254693   6.940   4.802   8.109
84266SOL     OW54694  10.268   5.578   3.098
84266SOL    HW154695  10.266   5.537   3.184
84266SOL    HW254696  10.320   5.657   3.110
84267SOL     OW54697   7.398   4.515  10.409
84267SOL    HW154698   7.339   4.580  10.448
84267SOL    HW254699   7.409   4.545  10.318
84268SOL     OW54700   1.646   0.581   6.307
84268SOL    HW154701   1.587   0.609   6.377
84268SOL    HW254702   1.645   0.486   6.311
84269SOL     OW54703   2.288   2.826   2.299
84269SOL    HW154704   2.360   2.846   2.358
84269SOL    HW254705   2.244   2.910   2.284
84270SOL     OW54706   7.415  14.660   1.713
84270SOL    HW154707   7.391  14.576   1.753
84270SOL    HW254708   7.332  14.702   1.694
84271SOL     OW54709  11.995   0.347  10.940
84271SOL    HW154710  12.044   0.414  10.892
84271SOL    HW254711  11.919   0.328  10.885
84272SOL     OW54712   3.190   8.642  14.743
84272SOL    HW154713   3.166   8.715  14.685
84272SOL    HW254714   3.109   8.592  14.753
84273SOL     OW54715   2.164   6.823   7.729
84273SOL    HW154716   2.176   6.769   7.652
84273SOL    HW254717   2.077   6.800   7.763
84274SOL     OW54718   2.222   0.080  10.870
84274SOL    HW154719   2.227   0.161  10.818
84274SOL    HW254720   2.133   0.048  10.857
84275SOL     OW54721  10.461   9.127  11.599
84275SOL    HW154722  10.474   9.154  11.689
84275SOL    HW254723  10.371   9.094  11.596
84276SOL     OW54724   5.272   6.810   6.484
84276SOL    HW154725   5.338   6.755   6.526
84276SOL    HW254726   5.288   6.800   6.390
84277SOL     OW54727   7.683  14.317   8.598
84277SOL    HW154728   7.738  14.288   8.525
84277SOL    HW254729   7.718  14.403   8.622
84278SOL     OW54730   9.116  11.095   0.556
84278SOL    HW154731   9.065  11.105   0.636
84278SOL    HW254732   9.062  11.131   0.487
84279SOL     OW54733   0.593   2.966  14.155
84279SOL    HW154734   0.638   2.973  14.070
84279SOL    HW254735   0.508   2.927  14.133
84280SOL     OW54736  12.870  11.382   8.990
84280SOL    HW154737  12.878  11.295   9.029
84280SOL    HW254738  12.959  11.404   8.962
84281SOL     OW54739   1.564   5.305   5.279
84281SOL    HW154740   1.515   5.366   5.336
84281SOL    HW254741   1.501   5.277   5.214
84282SOL     OW54742   2.719  10.277   7.902
84282SOL    HW154743   2.718  10.262   7.808
84282SOL    HW254744   2.775  10.208   7.937
84283SOL     OW54745  11.218   8.441   7.855
84283SOL    HW154746  11.152   8.399   7.910
84283SOL    HW254747  11.298   8.390   7.869
84284SOL     OW54748   3.649   1.877  12.013
84284SOL    HW154749   3.626   1.791  12.049
84284SOL    HW254750   3.630   1.869  11.920
84285SOL     OW54751   1.588   9.786  14.152
84285SOL    HW154752   1.635   9.848  14.096
84285SOL    HW254753   1.649   9.766  14.222
84286SOL     OW54754  11.476   2.270   3.418
84286SOL    HW154755  11.446   2.354   3.453
84286SOL    HW254756  11.406   2.208   3.440
84287SOL     OW54757  13.823   7.696  11.438
84287SOL    HW154758  13.834   7.766  11.375
84287SOL    HW254759  13.733   7.706  11.470
84288SOL     OW54760   4.541   3.403  11.701
84288SOL    HW154761   4.529   3.313  11.731
84288SOL    HW254762   4.460   3.424  11.654
84289SOL     OW54763   9.066  10.567  11.846
84289SOL    HW154764   9.068  10.618  11.765
84289SOL    HW254765   8.977  10.579  11.879
84290SOL     OW54766  13.362   6.931   6.716
84290SOL    HW154767  13.353   6.984   6.795
84290SOL    HW254768  13.372   6.994   6.645
84291SOL     OW54769   8.692   7.616   5.190
84291SOL    HW154770   8.721   7.580   5.274
84291SOL    HW254771   8.690   7.711   5.203
84292SOL     OW54772   1.240   7.597  13.653
84292SOL    HW154773   1.173   7.529  13.667
84292SOL    HW254774   1.315   7.549  13.618
84293SOL     OW54775   3.286   2.926   4.212
84293SOL    HW154776   3.279   2.994   4.145
84293SOL    HW254777   3.303   2.845   4.164
84294SOL     OW54778   4.811   6.187   7.840
84294SOL    HW154779   4.879   6.129   7.876
84294SOL    HW254780   4.810   6.261   7.901
84295SOL     OW54781  12.112   5.770   7.930
84295SOL    HW154782  12.185   5.735   7.879
84295SOL    HW254783  12.154   5.826   7.997
84296SOL     OW54784   5.688  14.029   7.984
84296SOL    HW154785   5.670  14.115   7.946
84296SOL    HW254786   5.753  14.045   8.052
84297SOL     OW54787   6.883   5.707   0.317
84297SOL    HW154788   6.907   5.797   0.338
84297SOL    HW254789   6.953   5.654   0.356
84298SOL     OW54790   3.330   2.812   2.604
84298SOL    HW154791   3.280   2.866   2.542
84298SOL    HW254792   3.386   2.874   2.650
84299SOL     OW54793   3.211   0.014   4.597
84299SOL    HW154794   3.244   0.023   4.507
84299SOL    HW254795   3.124   0.055   4.594
84300SOL     OW54796  13.757   1.974  11.140
84300SOL    HW154797  13.775   2.004  11.229
84300SOL    HW254798  13.664   1.953  11.140
84301SOL     OW54799   9.667  12.446   3.096
84301SOL    HW154800   9.715  12.365   3.078
84301SOL    HW254801   9.734  12.506   3.129
84302SOL     OW54802  13.883   3.321   9.057
84302SOL    HW154803  13.840   3.248   9.103
84302SOL    HW254804  13.945   3.357   9.121
84303SOL     OW54805   6.846  10.603  13.636
84303SOL    HW154806   6.820  10.517  13.603
84303SOL    HW254807   6.767  10.639  13.674
84304SOL     OW54808   9.523   7.175   3.254
84304SOL    HW154809   9.616   7.195   3.242
84304SOL    HW254810   9.515   7.083   3.229
84305SOL     OW54811   6.593   2.735  14.446
84305SOL    HW154812   6.625   2.782  14.523
84305SOL    HW254813   6.509   2.775  14.426
84306SOL     OW54814   0.278  12.169  12.898
84306SOL    HW154815   0.225  12.183  12.977
84306SOL    HW254816   0.215  12.142  12.831
84307SOL     OW54817  12.694   0.619   6.915
84307SOL    HW154818  12.668   0.707   6.944
84307SOL    HW254819  12.773   0.634   6.864
84308SOL     OW54820   6.755   7.807   2.440
84308SOL    HW154821   6.795   7.883   2.399
84308SOL    HW254822   6.814   7.734   2.418
84309SOL     OW54823  12.197   1.806   2.597
84309SOL    HW154824  12.199   1.849   2.683
84309SOL    HW254825  12.196   1.712   2.617
84310SOL     OW54826  14.329  11.514   8.671
84310SOL    HW154827  14.299  11.507   8.762
84310SOL    HW254828  14.310  11.428   8.633
84311SOL     OW54829   0.112   9.351   5.891
84311SOL    HW154830   0.045   9.373   5.955
84311SOL    HW254831   0.101   9.416   5.822
84312SOL     OW54832   8.694   1.600   2.148
84312SOL    HW154833   8.686   1.595   2.052
84312SOL    HW254834   8.604   1.589   2.179
84313SOL     OW54835   8.663  12.144   8.409
84313SOL    HW154836   8.615  12.098   8.477
84313SOL    HW254837   8.738  12.088   8.390
84314SOL     OW54838   4.240   7.221   4.381
84314SOL    HW154839   4.332   7.239   4.362
84314SOL    HW254840   4.242   7.168   4.461
84315SOL     OW54841   5.371   6.363   9.141
84315SOL    HW154842   5.419   6.384   9.061
84315SOL    HW254843   5.381   6.268   9.150
84316SOL     OW54844   9.123   3.614   9.666
84316SOL    HW154845   9.075   3.696   9.652
84316SOL    HW254846   9.208   3.641   9.701
84317SOL     OW54847   0.540   7.848   4.980
84317SOL    HW154848   0.536   7.830   4.887
84317SOL    HW254849   0.569   7.765   5.019
84318SOL     OW54850  10.693  14.004  10.475
84318SOL    HW154851  10.737  13.934  10.522
84318SOL    HW254852  10.764  14.060  10.443
84319SOL     OW54853   0.820   0.038   2.005
84319SOL    HW154854   0.794  14.870   1.931
84319SOL    HW254855   0.764   0.009   2.077
84320SOL     OW54856   2.183  14.367  13.425
84320SOL    HW154857   2.143  14.447  13.392
84320SOL    HW254858   2.249  14.345  13.360
84321SOL     OW54859  10.333   3.717   4.912
84321SOL    HW154860  10.427   3.727   4.927
84321SOL    HW254861  10.293   3.793   4.953
84322SOL     OW54862  12.691   6.447   2.330
84322SOL    HW154863  12.718   6.529   2.371
84322SOL    HW254864  12.732   6.379   2.383
84323SOL     OW54865   8.831   0.327   3.813
84323SOL    HW154866   8.916   0.330   3.770
84323SOL    HW254867   8.811   0.418   3.833
84324SOL     OW54868   9.262   2.306   4.580
84324SOL    HW154869   9.320   2.283   4.508
84324SOL    HW254870   9.179   2.261   4.560
84325SOL     OW54871  10.476  14.647   7.705
84325SOL    HW154872  10.510  14.643   7.794
84325SOL    HW254873  10.534  14.708   7.659
84326SOL     OW54874   1.976   3.364   0.001
84326SOL    HW154875   1.977   3.316   0.084
84326SOL    HW254876   1.886   3.360  14.858
84327SOL     OW54877  10.962   6.032  13.261
84327SOL    HW154878  10.995   5.968  13.325
84327SOL    HW254879  11.028   6.033  13.192
84328SOL     OW54880   8.546   2.493   6.027
84328SOL    HW154881   8.471   2.455   6.073
84328SOL    HW254882   8.549   2.584   6.057
84329SOL     OW54883  10.155  12.208  14.544
84329SOL    HW154884  10.244  12.196  14.577
84329SOL    HW254885  10.152  12.299  14.516
84330SOL     OW54886   7.427  14.315   1.474
84330SOL    HW154887   7.448  14.400   1.436
84330SOL    HW254888   7.484  14.253   1.430
84331SOL     OW54889   9.173  13.091   2.847
84331SOL    HW154890   9.098  13.052   2.803
84331SOL    HW254891   9.249  13.053   2.803
84332SOL     OW54892   4.615  12.641  12.036
84332SOL    HW154893   4.554  12.639  12.110
84332SOL    HW254894   4.565  12.604  11.963
84333SOL     OW54895   9.017  11.876  10.477
84333SOL    HW154896   9.024  11.894  10.383
84333SOL    HW254897   8.979  11.955  10.514
84334SOL     OW54898   0.913   2.182   1.449
84334SOL    HW154899   0.975   2.114   1.477
84334SOL    HW254900   0.828   2.139   1.450
84335SOL     OW54901   8.299   0.150  14.740
84335SOL    HW154902   8.249   0.188  14.813
84335SOL    HW254903   8.279   0.207  14.665
84336SOL     OW54904   3.918   6.027   5.269
84336SOL    HW154905   3.973   6.059   5.340
84336SOL    HW254906   3.904   6.103   5.213
84337SOL     OW54907   0.218   8.367   1.520
84337SOL    HW154908   0.193   8.415   1.440
84337SOL    HW254909   0.312   8.381   1.527
84338SOL     OW54910  11.516  14.095   1.383
84338SOL    HW154911  11.556  14.029   1.326
84338SOL    HW254912  11.448  14.135   1.329
84339SOL     OW54913   4.944   9.374   2.860
84339SOL    HW154914   4.988   9.335   2.935
84339SOL    HW254915   5.010   9.374   2.790
84340SOL     OW54916   6.926   5.189   2.600
84340SOL    HW154917   6.870   5.113   2.613
84340SOL    HW254918   6.972   5.172   2.518
84341SOL     OW54919   7.459   9.446   8.135
84341SOL    HW154920   7.416   9.455   8.050
84341SOL    HW254921   7.512   9.366   8.127
84342SOL     OW54922   9.456  12.611   0.849
84342SOL    HW154923   9.508  12.540   0.811
84342SOL    HW254924   9.478  12.688   0.796
84343SOL     OW54925   6.065   4.764  10.097
84343SOL    HW154926   6.155   4.750  10.069
84343SOL    HW254927   6.013   4.708  10.039
84344SOL     OW54928   8.888   1.857   8.135
84344SOL    HW154929   8.980   1.843   8.114
84344SOL    HW254930   8.852   1.901   8.058
84345SOL     OW54931   1.539  10.368   7.364
84345SOL    HW154932   1.475  10.324   7.419
84345SOL    HW254933   1.525  10.461   7.381
84346SOL     OW54934  11.265  13.142   0.197
84346SOL    HW154935  11.330  13.201   0.235
84346SOL    HW254936  11.275  13.153   0.103
84347SOL     OW54937   9.881   1.787  12.856
84347SOL    HW154938   9.965   1.779  12.900
84347SOL    HW254939   9.816   1.766  12.923
84348SOL     OW54940  13.116  12.271  14.238
84348SOL    HW154941  13.113  12.358  14.276
84348SOL    HW254942  13.047  12.222  14.283
84349SOL     OW54943   2.430  13.723   6.047
84349SOL    HW154944   2.406  13.716   6.140
84349SOL    HW254945   2.387  13.803   6.017
84350SOL     OW54946  13.214  13.169   3.803
84350SOL    HW154947  13.142  13.223   3.836
84350SOL    HW254948  13.274  13.161   3.876
84351SOL     OW54949   6.133  12.778   4.482
84351SOL    HW154950   6.152  12.715   4.411
84351SOL    HW254951   6.196  12.756   4.550
84352SOL     OW54952   9.210   0.340   6.989
84352SOL    HW154953   9.248   0.422   6.957
84352SOL    HW254954   9.147   0.314   6.923
84353SOL     OW54955   1.683   6.370   9.741
84353SOL    HW154956   1.667   6.464   9.743
84353SOL    HW254957   1.596   6.330   9.748
84354SOL     OW54958   9.896  14.845   0.214
84354SOL    HW154959   9.918  14.851   0.121
84354SOL    HW254960   9.809  14.805   0.216
84355SOL     OW54961   4.537   7.346  14.816
84355SOL    HW154962   4.443   7.352  14.801
84355SOL    HW254963   4.545   7.303   0.014
84356SOL     OW54964   8.812  11.866   3.398
84356SOL    HW154965   8.799  11.883   3.491
84356SOL    HW254966   8.797  11.772   3.388
84357SOL     OW54967   9.786  14.011  10.170
84357SOL    HW154968   9.866  13.994  10.218
84357SOL    HW254969   9.764  13.927  10.129
84358SOL     OW54970  12.462   3.842  10.214
84358SOL    HW154971  12.369   3.859  10.231
84358SOL    HW254972  12.501   3.837  10.301
84359SOL     OW54973   7.871  10.666   4.935
84359SOL    HW154974   7.820  10.638   4.858
84359SOL    HW254975   7.918  10.588   4.963
84360SOL     OW54976  10.364  12.742   0.254
84360SOL    HW154977  10.439  12.752   0.194
84360SOL    HW254978  10.400  12.762   0.340
84361SOL     OW54979   5.134   2.543  13.153
84361SOL    HW154980   5.140   2.487  13.231
84361SOL    HW254981   5.190   2.499  13.089
84362SOL     OW54982   6.485  14.304   4.695
84362SOL    HW154983   6.444  14.218   4.696
84362SOL    HW254984   6.554  14.298   4.628
84363SOL     OW54985   7.724  11.020   0.312
84363SOL    HW154986   7.810  11.055   0.289
84363SOL    HW254987   7.719  10.935   0.269
84364SOL     OW54988  12.569  11.935  14.465
84364SOL    HW154989  12.611  11.859  14.504
84364SOL    HW254990  12.598  11.934  14.373
84365SOL     OW54991  13.373  13.260   7.787
84365SOL    HW154992  13.299  13.213   7.749
84365SOL    HW254993  13.396  13.210   7.865
84366SOL     OW54994   6.553   5.697  13.848
84366SOL    HW154995   6.519   5.656  13.768
84366SOL    HW254996   6.603   5.772  13.818
84367SOL     OW54997   4.812   8.196  13.114
84367SOL    HW154998   4.722   8.166  13.099
84367SOL    HW254999   4.803   8.288  13.139
84368SOL     OW55000  12.070  13.031   2.549
84368SOL    HW155001  12.114  12.964   2.601
84368SOL    HW255002  12.098  13.114   2.588
84369SOL     OW55003  13.772   7.546  11.049
84369SOL    HW155004  13.867   7.541  11.041
84369SOL    HW255005  13.742   7.585  10.967
84370SOL     OW55006   3.953  11.573   5.315
84370SOL    HW155007   3.933  11.644   5.376
84370SOL    HW255008   4.036  11.599   5.274
84371SOL     OW55009   7.811  13.133   7.052
84371SOL    HW155010   7.775  13.134   7.141
84371SOL    HW255011   7.828  13.225   7.032
84372SOL     OW55012   6.197   1.788   7.054
84372SOL    HW155013   6.250   1.708   7.051
84372SOL    HW255014   6.232   1.844   6.985
84373SOL     OW55015   5.915   1.695   3.114
84373SOL    HW155016   5.984   1.721   3.053
84373SOL    HW255017   5.959   1.691   3.199
84374SOL     OW55018   7.725   5.527   3.513
84374SOL    HW155019   7.682   5.606   3.480
84374SOL    HW255020   7.763   5.555   3.597
84375SOL     OW55021   0.921   9.717   4.556
84375SOL    HW155022   0.944   9.790   4.614
84375SOL    HW255023   1.003   9.669   4.544
84376SOL     OW55024  13.016  11.566   8.500
84376SOL    HW155025  13.052  11.496   8.446
84376SOL    HW255026  12.960  11.616   8.441
84377SOL     OW55027   4.110   4.400   5.408
84377SOL    HW155028   4.170   4.468   5.437
84377SOL    HW255029   4.126   4.391   5.314
84378SOL     OW55030   4.539   9.279   5.062
84378SOL    HW155031   4.627   9.282   5.026
84378SOL    HW255032   4.530   9.360   5.111
84379SOL     OW55033   5.818   2.464   8.360
84379SOL    HW155034   5.768   2.504   8.289
84379SOL    HW255035   5.896   2.428   8.317
84380SOL     OW55036   4.965  14.301   5.135
84380SOL    HW155037   5.023  14.235   5.097
84380SOL    HW255038   4.917  14.255   5.203
84381SOL     OW55039  13.557   2.296  11.303
84381SOL    HW155040  13.568   2.232  11.374
84381SOL    HW255041  13.646   2.318  11.276
84382SOL     OW55042   3.786  11.462   2.319
84382SOL    HW155043   3.773  11.373   2.285
84382SOL    HW255044   3.737  11.518   2.258
84383SOL     OW55045   8.740   1.220  12.328
84383SOL    HW155046   8.648   1.220  12.303
84383SOL    HW255047   8.788   1.205  12.246
84384SOL     OW55048  12.265   5.706  10.367
84384SOL    HW155049  12.313   5.668  10.440
84384SOL    HW255050  12.216   5.779  10.405
84385SOL     OW55051   0.376   1.448   7.221
84385SOL    HW155052   0.361   1.538   7.190
84385SOL    HW255053   0.316   1.395   7.169
84386SOL     OW55054   4.989  10.152  11.788
84386SOL    HW155055   5.058  10.216  11.769
84386SOL    HW255056   5.028  10.092  11.851
84387SOL     OW55057   8.960  12.745   3.493
84387SOL    HW155058   9.053  12.768   3.492
84387SOL    HW255059   8.959  12.649   3.495
84388SOL     OW55060   2.737   6.999   0.796
84388SOL    HW155061   2.716   7.032   0.709
84388SOL    HW255062   2.683   6.920   0.806
84389SOL     OW55063   3.686  11.232   7.670
84389SOL    HW155064   3.627  11.182   7.726
84389SOL    HW255065   3.768  11.237   7.721
84390SOL     OW55066   4.480   6.188   1.564
84390SOL    HW155067   4.509   6.219   1.650
84390SOL    HW255068   4.468   6.267   1.512
84391SOL     OW55069  14.831  10.470   2.823
84391SOL    HW155070   0.002  10.407   2.866
84391SOL    HW255071  14.755  10.474   2.881
84392SOL     OW55072  11.313  12.270   6.182
84392SOL    HW155073  11.291  12.219   6.104
84392SOL    HW255074  11.294  12.211   6.255
84393SOL     OW55075   7.648  11.091   6.282
84393SOL    HW155076   7.716  11.154   6.306
84393SOL    HW255077   7.586  11.141   6.230
84394SOL     OW55078  11.248   2.398   9.842
84394SOL    HW155079  11.236   2.493   9.848
84394SOL    HW255080  11.173   2.361   9.889
84395SOL     OW55081   0.031   0.202   3.447
84395SOL    HW155082  14.843   0.145   3.457
84395SOL    HW255083  14.885   0.290   3.462
84396SOL     OW55084   3.179   7.782   5.195
84396SOL    HW155085   3.206   7.757   5.107
84396SOL    HW255086   3.206   7.873   5.203
84397SOL     OW55087   8.833   6.760   1.161
84397SOL    HW155088   8.873   6.673   1.172
84397SOL    HW255089   8.860   6.809   1.238
84398SOL     OW55090  13.994   4.397   4.801
84398SOL    HW155091  14.017   4.451   4.726
84398SOL    HW255092  14.005   4.307   4.771
84399SOL     OW55093   9.049   1.163   3.112
84399SOL    HW155094   9.078   1.181   3.201
84399SOL    HW255095   9.112   1.099   3.079
84400SOL     OW55096   8.733  11.141   2.182
84400SOL    HW155097   8.796  11.143   2.109
84400SOL    HW255098   8.780  11.096   2.252
84401SOL     OW55099   4.249  13.429   1.410
84401SOL    HW155100   4.156  13.426   1.431
84401SOL    HW255101   4.292  13.448   1.494
84402SOL     OW55102   6.993   7.439  14.453
84402SOL    HW155103   6.912   7.481  14.424
84402SOL    HW255104   7.062   7.483  14.404
84403SOL     OW55105  10.032  12.076   4.214
84403SOL    HW155106   9.965  12.032   4.162
84403SOL    HW255107  10.033  12.029   4.297
84404SOL     OW55108   4.790   9.181  10.220
84404SOL    HW155109   4.811   9.108  10.161
84404SOL    HW255110   4.717   9.149  10.273
84405SOL     OW55111  10.484   0.733   6.731
84405SOL    HW155112  10.559   0.713   6.675
84405SOL    HW255113  10.414   0.759   6.671
84406SOL     OW55114   1.571   6.048   0.863
84406SOL    HW155115   1.520   6.128   0.869
84406SOL    HW255116   1.630   6.051   0.938
84407SOL     OW55117   6.457   7.574   5.103
84407SOL    HW155118   6.476   7.527   5.185
84407SOL    HW255119   6.387   7.635   5.125
84408SOL     OW55120   4.625   4.470   4.190
84408SOL    HW155121   4.635   4.384   4.148
84408SOL    HW255122   4.654   4.456   4.280
84409SOL     OW55123  13.071   6.425   0.080
84409SOL    HW155124  13.115   6.377   0.010
84409SOL    HW255125  13.025   6.358   0.131
84410SOL     OW55126   7.087   8.284  10.408
84410SOL    HW155127   7.146   8.288  10.484
84410SOL    HW255128   7.134   8.231  10.344
84411SOL     OW55129  14.210  11.592   9.945
84411SOL    HW155130  14.256  11.650  10.005
84411SOL    HW255131  14.227  11.504   9.979
84412SOL     OW55132   1.406   7.332   8.849
84412SOL    HW155133   1.447   7.417   8.865
84412SOL    HW255134   1.477   7.276   8.819
84413SOL     OW55135   8.931  12.794  12.893
84413SOL    HW155136   8.874  12.721  12.918
84413SOL    HW255137   9.013  12.752  12.866
84414SOL     OW55138   3.962  11.671   6.277
84414SOL    HW155139   3.919  11.646   6.195
84414SOL    HW255140   3.890  11.682   6.340
84415SOL     OW55141   8.534  11.549   7.753
84415SOL    HW155142   8.512  11.580   7.665
84415SOL    HW255143   8.569  11.461   7.739
84416SOL     OW55144   1.703  11.466  10.603
84416SOL    HW155145   1.770  11.528  10.633
84416SOL    HW255146   1.629  11.521  10.576
84417SOL     OW55147  14.798  10.773   7.153
84417SOL    HW155148  14.816  10.690   7.199
84417SOL    HW255149  14.707  10.792   7.174
84418SOL     OW55150   3.631  13.901  14.122
84418SOL    HW155151   3.638  13.850  14.203
84418SOL    HW255152   3.704  13.964  14.128
84419SOL     OW55153  14.163  13.968   3.858
84419SOL    HW155154  14.148  13.900   3.924
84419SOL    HW255155  14.200  13.922   3.783
84420SOL     OW55156   0.546  12.340   5.797
84420SOL    HW155157   0.543  12.382   5.883
84420SOL    HW255158   0.486  12.266   5.804
84421SOL     OW55159   5.789   0.457  14.269
84421SOL    HW155160   5.793   0.394  14.341
84421SOL    HW255161   5.715   0.514  14.291
84422SOL     OW55162   0.310   2.748   1.476
84422SOL    HW155163   0.272   2.821   1.428
84422SOL    HW255164   0.269   2.752   1.562
84423SOL     OW55165  10.491   7.314   7.446
84423SOL    HW155166  10.529   7.374   7.381
84423SOL    HW255167  10.478   7.232   7.398
84424SOL     OW55168   8.591   7.048   0.252
84424SOL    HW155169   8.594   7.068   0.158
84424SOL    HW255170   8.682   7.033   0.276
84425SOL     OW55171   3.649   5.816  14.791
84425SOL    HW155172   3.735   5.777  14.806
84425SOL    HW255173   3.654   5.903  14.832
84426SOL     OW55174   5.574   5.314   6.261
84426SOL    HW155175   5.652   5.292   6.311
84426SOL    HW255176   5.531   5.230   6.245
84427SOL     OW55177  14.434   9.342  14.662
84427SOL    HW155178  14.406   9.429  14.632
84427SOL    HW255179  14.353   9.293  14.673
84428SOL     OW55180   6.927   8.926  11.983
84428SOL    HW155181   6.926   8.872  12.061
84428SOL    HW255182   6.855   8.892  11.929
84429SOL     OW55183   3.241   7.698   8.535
84429SOL    HW155184   3.179   7.739   8.595
84429SOL    HW255185   3.186   7.653   8.471
84430SOL     OW55186  14.577  13.897  11.748
84430SOL    HW155187  14.494  13.857  11.773
84430SOL    HW255188  14.573  13.902  11.652
84431SOL     OW55189   9.991  10.547   1.686
84431SOL    HW155190  10.079  10.516   1.666
84431SOL    HW255191   9.942  10.537   1.605
84432SOL     OW55192  12.933   2.959  14.196
84432SOL    HW155193  12.985   3.034  14.166
84432SOL    HW255194  12.918   2.907  14.117
84433SOL     OW55195  10.943   4.588   5.782
84433SOL    HW155196  10.990   4.551   5.857
84433SOL    HW255197  10.892   4.515   5.747
84434SOL     OW55198   2.463  13.108   0.250
84434SOL    HW155199   2.418  13.110   0.334
84434SOL    HW255200   2.556  13.102   0.272
84435SOL     OW55201  14.742   9.486   7.830
84435SOL    HW155202  14.741   9.451   7.741
84435SOL    HW255203  14.793   9.567   7.823
84436SOL     OW55204  10.074   4.304   1.481
84436SOL    HW155205  10.086   4.339   1.570
84436SOL    HW255206  10.114   4.370   1.424
84437SOL     OW55207   3.786  10.911   7.289
84437SOL    HW155208   3.771  10.825   7.251
84437SOL    HW255209   3.764  10.900   7.381
84438SOL     OW55210   2.572   6.424   9.779
84438SOL    HW155211   2.646   6.467   9.736
84438SOL    HW255212   2.612   6.350   9.826
84439SOL     OW55213   0.858   0.557   5.073
84439SOL    HW155214   0.854   0.652   5.070
84439SOL    HW255215   0.829   0.534   5.161
84440SOL     OW55216   4.492   1.929  11.623
84440SOL    HW155217   4.575   1.945  11.669
84440SOL    HW255218   4.435   2.000  11.652
84441SOL     OW55219   5.035   8.929  10.523
84441SOL    HW155220   4.955   8.907  10.475
84441SOL    HW255221   5.100   8.867  10.490
84442SOL     OW55222   9.790   9.384   7.627
84442SOL    HW155223   9.755   9.390   7.538
84442SOL    HW255224   9.825   9.295   7.633
84443SOL     OW55225  14.102   0.479  13.839
84443SOL    HW155226  14.078   0.568  13.811
84443SOL    HW255227  14.018   0.434  13.851
84444SOL     OW55228   9.897  11.812  14.856
84444SOL    HW155229   9.927  11.808  14.765
84444SOL    HW255230   9.879  11.905  14.871
84445SOL     OW55231   1.700  10.928   0.877
84445SOL    HW155232   1.675  10.848   0.830
84445SOL    HW255233   1.758  10.973   0.816
84446SOL     OW55234   1.209  10.353   6.199
84446SOL    HW155235   1.187  10.403   6.121
84446SOL    HW255236   1.304  10.340   6.195
84447SOL     OW55237   5.912   9.065   4.416
84447SOL    HW155238   5.997   9.027   4.392
84447SOL    HW255239   5.930   9.159   4.422
84448SOL     OW55240  11.994   1.425   1.627
84448SOL    HW155241  11.999   1.331   1.642
84448SOL    HW255242  12.032   1.464   1.706
84449SOL     OW55243  14.029  11.811   4.628
84449SOL    HW155244  14.045  11.869   4.703
84449SOL    HW255245  14.011  11.726   4.668
84450SOL     OW55246   1.654  10.621   5.568
84450SOL    HW155247   1.690  10.572   5.494
84450SOL    HW255248   1.559  10.614   5.558
84451SOL     OW55249  12.205  13.167   9.419
84451SOL    HW155250  12.298  13.146   9.404
84451SOL    HW255251  12.193  13.157   9.514
84452SOL     OW55252   0.296   3.560   4.496
84452SOL    HW155253   0.380   3.538   4.536
84452SOL    HW255254   0.318   3.618   4.423
84453SOL     OW55255   0.702   7.607   0.328
84453SOL    HW155256   0.674   7.698   0.321
84453SOL    HW255257   0.669   7.577   0.412
84454SOL     OW55258   9.368  10.859   9.391
84454SOL    HW155259   9.439  10.875   9.329
84454SOL    HW255260   9.353  10.944   9.433
84455SOL     OW55261  13.195   9.035   4.179
84455SOL    HW155262  13.254   9.079   4.240
84455SOL    HW255263  13.198   9.089   4.100
84456SOL     OW55264  12.220   5.254   3.253
84456SOL    HW155265  12.201   5.318   3.322
84456SOL    HW255266  12.200   5.169   3.292
84457SOL     OW55267   6.802   7.446  13.776
84457SOL    HW155268   6.753   7.452  13.858
84457SOL    HW255269   6.888   7.412  13.803
84458SOL     OW55270   7.746   5.244  10.132
84458SOL    HW155271   7.740   5.333  10.095
84458SOL    HW255272   7.655   5.215  10.138
84459SOL     OW55273   9.652   1.658   6.889
84459SOL    HW155274   9.620   1.734   6.937
84459SOL    HW255275   9.747   1.672   6.883
84460SOL     OW55276  11.884   9.071   0.700
84460SOL    HW155277  11.888   8.994   0.757
84460SOL    HW255278  11.973   9.105   0.699
84461SOL     OW55279   0.444   5.607  12.542
84461SOL    HW155280   0.508   5.672  12.571
84461SOL    HW255281   0.473   5.581  12.455
84462SOL     OW55282   9.480  13.198   3.353
84462SOL    HW155283   9.385  13.193   3.339
84462SOL    HW255284   9.498  13.292   3.362
84463SOL     OW55285   1.201   6.196   0.773
84463SOL    HW155286   1.127   6.251   0.749
84463SOL    HW255287   1.169   6.106   0.766
84464SOL     OW55288   9.518  10.219   0.200
84464SOL    HW155289   9.464  10.294   0.174
84464SOL    HW255290   9.501  10.209   0.294
84465SOL     OW55291   5.856   5.326  12.659
84465SOL    HW155292   5.912   5.255  12.690
84465SOL    HW255293   5.842   5.307  12.566
84466SOL     OW55294  14.046   2.467  12.389
84466SOL    HW155295  13.992   2.398  12.351
84466SOL    HW255296  14.014   2.476  12.479
84467SOL     OW55297   4.806   4.586   3.806
84467SOL    HW155298   4.886   4.539   3.780
84467SOL    HW255299   4.833   4.677   3.811
84468SOL     OW55300  10.027   4.756  13.605
84468SOL    HW155301  10.002   4.678  13.554
84468SOL    HW255302   9.950   4.774  13.660
84469SOL     OW55303  10.922   3.096   7.656
84469SOL    HW155304  10.914   3.103   7.561
84469SOL    HW255305  11.013   3.072   7.671
84470SOL     OW55306   1.183   7.001  12.289
84470SOL    HW155307   1.121   7.069  12.262
84470SOL    HW255308   1.226   7.037  12.366
84471SOL     OW55309   6.853   7.276  11.030
84471SOL    HW155310   6.823   7.206  11.090
84471SOL    HW255311   6.948   7.276  11.040
84472SOL     OW55312   1.694  13.910  14.317
84472SOL    HW155313   1.668  13.943  14.403
84472SOL    HW255314   1.627  13.846  14.294
84473SOL     OW55315  12.091   9.343   8.028
84473SOL    HW155316  12.106   9.409   8.096
84473SOL    HW255317  12.003   9.361   7.995
84474SOL     OW55318   0.032   6.141  11.373
84474SOL    HW155319   0.113   6.138  11.322
84474SOL    HW255320   0.050   6.204  11.442
84475SOL     OW55321  13.611  12.806  14.040
84475SOL    HW155322  13.525  12.843  14.056
84475SOL    HW255323  13.670  12.882  14.036
84476SOL     OW55324   4.532   9.246  13.129
84476SOL    HW155325   4.565   9.191  13.200
84476SOL    HW255326   4.459   9.295  13.169
84477SOL     OW55327   1.307  12.738   1.408
84477SOL    HW155328   1.232  12.779   1.450
84477SOL    HW255329   1.348  12.687   1.478
84478SOL     OW55330  14.773  10.320   8.851
84478SOL    HW155331  14.832  10.393   8.833
84478SOL    HW255332  14.733  10.341   8.935
84479SOL     OW55333  12.954  10.796  12.826
84479SOL    HW155334  12.954  10.769  12.918
84479SOL    HW255335  12.963  10.714  12.777
84480SOL     OW55336  11.671   2.023   3.716
84480SOL    HW155337  11.718   1.955   3.764
84480SOL    HW255338  11.739   2.073   3.672
84481SOL     OW55339   2.408   2.299  13.850
84481SOL    HW155340   2.414   2.394  13.854
84481SOL    HW255341   2.492   2.271  13.813
84482SOL     OW55342   9.342   7.385   4.836
84482SOL    HW155343   9.385   7.462   4.873
84482SOL    HW255344   9.388   7.310   4.876
84483SOL     OW55345   6.700   2.784   6.920
84483SOL    HW155346   6.704   2.705   6.974
84483SOL    HW255347   6.677   2.854   6.981
84484SOL     OW55348   1.096   8.880   8.805
84484SOL    HW155349   1.109   8.898   8.899
84484SOL    HW255350   1.076   8.786   8.801
84485SOL     OW55351   3.943   5.642  12.290
84485SOL    HW155352   3.887   5.633  12.213
84485SOL    HW255353   3.961   5.552  12.317
84486SOL     OW55354   2.628  11.176   7.452
84486SOL    HW155355   2.564  11.148   7.518
84486SOL    HW255356   2.574  11.210   7.381
84487SOL     OW55357   8.219   2.575   1.072
84487SOL    HW155358   8.277   2.590   1.147
84487SOL    HW255359   8.228   2.481   1.054
84488SOL     OW55360  14.473   1.333   1.807
84488SOL    HW155361  14.557   1.289   1.797
84488SOL    HW255362  14.409   1.268   1.778
84489SOL     OW55363  13.922   6.494   3.633
84489SOL    HW155364  13.925   6.581   3.672
84489SOL    HW255365  13.900   6.510   3.541
84490SOL     OW55366   4.507  11.635  14.490
84490SOL    HW155367   4.531  11.573  14.560
84490SOL    HW255368   4.411  11.637  14.492
84491SOL     OW55369   0.141  11.718   2.030
84491SOL    HW155370   0.122  11.789   2.092
84491SOL    HW255371   0.056  11.694   1.994
84492SOL     OW55372   5.599   1.145   6.565
84492SOL    HW155373   5.534   1.103   6.509
84492SOL    HW255374   5.561   1.231   6.584
84493SOL     OW55375   1.419   8.816   9.232
84493SOL    HW155376   1.451   8.833   9.321
84493SOL    HW255377   1.339   8.765   9.244
84494SOL     OW55378   2.335   9.165   7.324
84494SOL    HW155379   2.403   9.171   7.391
84494SOL    HW255380   2.259   9.128   7.370
84495SOL     OW55381  10.603   9.501   8.056
84495SOL    HW155382  10.591   9.481   7.963
84495SOL    HW255383  10.582   9.420   8.101
84496SOL     OW55384  12.722   0.572   0.369
84496SOL    HW155385  12.735   0.640   0.303
84496SOL    HW255386  12.640   0.595   0.412
84497SOL     OW55387  10.762  12.759   0.759
84497SOL    HW155388  10.739  12.786   0.671
84497SOL    HW255389  10.705  12.684   0.777
84498SOL     OW55390   4.646   7.474   0.272
84498SOL    HW155391   4.729   7.502   0.234
84498SOL    HW255392   4.584   7.542   0.246
84499SOL     OW55393  11.081   2.395  14.045
84499SOL    HW155394  10.991   2.411  14.018
84499SOL    HW255395  11.083   2.414  14.138
84500SOL     OW55396   3.931  10.406   4.561
84500SOL    HW155397   3.936  10.435   4.470
84500SOL    HW255398   3.961  10.481   4.612
84501SOL     OW55399  10.579   0.792  14.530
84501SOL    HW155400  10.624   0.728  14.474
84501SOL    HW255401  10.495   0.751  14.550
84502SOL     OW55402   4.216  13.998   5.229
84502SOL    HW155403   4.129  14.023   5.261
84502SOL    HW255404   4.267  14.079   5.235
84503SOL     OW55405  13.621   6.891   2.290
84503SOL    HW155406  13.649   6.900   2.198
84503SOL    HW255407  13.695   6.851   2.334
84504SOL     OW55408  10.122   2.559   2.357
84504SOL    HW155409  10.205   2.606   2.351
84504SOL    HW255410  10.075   2.601   2.429
84505SOL     OW55411   3.284  14.838   0.390
84505SOL    HW155412   3.295   0.025   0.331
84505SOL    HW255413   3.205  14.794   0.359
84506SOL     OW55414   7.904   0.159   3.171
84506SOL    HW155415   7.854   0.144   3.252
84506SOL    HW255416   7.979   0.100   3.178
84507SOL     OW55417  11.800   0.920  12.921
84507SOL    HW155418  11.890   0.915  12.890
84507SOL    HW255419  11.758   0.986  12.865
84508SOL     OW55420   6.958   9.897  12.770
84508SOL    HW155421   6.987   9.811  12.739
84508SOL    HW255422   7.006   9.910  12.852
84509SOL     OW55423  13.343  12.251   3.931
84509SOL    HW155424  13.418  12.213   3.887
84509SOL    HW255425  13.357  12.233   4.024
84510SOL     OW55426   7.197  12.441  11.995
84510SOL    HW155427   7.217  12.496  12.071
84510SOL    HW255428   7.196  12.351  12.030
84511SOL     OW55429   3.309   6.598   2.251
84511SOL    HW155430   3.339   6.508   2.240
84511SOL    HW255431   3.323   6.639   2.165
84512SOL     OW55432   5.334   8.083   7.109
84512SOL    HW155433   5.363   8.021   7.042
84512SOL    HW255434   5.404   8.083   7.174
84513SOL     OW55435  13.940   0.365   6.257
84513SOL    HW155436  13.991   0.309   6.315
84513SOL    HW255437  13.976   0.452   6.269
84514SOL     OW55438   1.145   5.909   0.724
84514SOL    HW155439   1.229   5.898   0.679
84514SOL    HW255440   1.079   5.900   0.655
84515SOL     OW55441   8.553   6.754   1.677
84515SOL    HW155442   8.470   6.719   1.711
84515SOL    HW255443   8.534   6.846   1.658
84516SOL     OW55444   3.861  10.942   6.551
84516SOL    HW155445   3.772  10.912   6.532
84516SOL    HW255446   3.858  11.036   6.539
84517SOL     OW55447   4.336   9.456  13.242
84517SOL    HW155448   4.374   9.429  13.325
84517SOL    HW255449   4.294   9.540  13.262
84518SOL     OW55450   5.801   8.867   9.371
84518SOL    HW155451   5.837   8.932   9.432
84518SOL    HW255452   5.869   8.800   9.365
84519SOL     OW55453   1.441   4.410   2.813
84519SOL    HW155454   1.420   4.427   2.904
84519SOL    HW255455   1.443   4.497   2.772
84520SOL     OW55456   0.044   5.740  10.856
84520SOL    HW155457  14.873   5.703  10.789
84520SOL    HW255458   0.019   5.695  10.936
84521SOL     OW55459  12.537   8.509   9.685
84521SOL    HW155460  12.573   8.435   9.636
84521SOL    HW255461  12.567   8.586   9.637
84522SOL     OW55462   3.579  10.970  10.636
84522SOL    HW155463   3.607  11.026  10.563
84522SOL    HW255464   3.485  10.960  10.623
84523SOL     OW55465  10.862  13.111  13.675
84523SOL    HW155466  10.845  13.105  13.581
84523SOL    HW255467  10.935  13.052  13.690
84524SOL     OW55468   4.664   7.322   4.789
84524SOL    HW155469   4.620   7.239   4.774
84524SOL    HW255470   4.672   7.360   4.701
84525SOL     OW55471   5.156   8.075   9.381
84525SOL    HW155472   5.105   8.068   9.301
84525SOL    HW255473   5.091   8.087   9.450
84526SOL     OW55474   0.577   2.464  13.955
84526SOL    HW155475   0.607   2.387  13.907
84526SOL    HW255476   0.482   2.455  13.959
84527SOL     OW55477   5.959   5.945  11.627
84527SOL    HW155478   5.893   5.878  11.646
84527SOL    HW255479   6.009   5.953  11.708
84528SOL     OW55480   7.475   1.954   6.059
84528SOL    HW155481   7.477   1.878   6.001
84528SOL    HW255482   7.463   2.029   6.001
84529SOL     OW55483  12.621   2.385  12.891
84529SOL    HW155484  12.630   2.392  12.796
84529SOL    HW255485  12.561   2.313  12.905
84530SOL     OW55486   4.501   6.650  11.136
84530SOL    HW155487   4.531   6.577  11.082
84530SOL    HW255488   4.433   6.612  11.192
84531SOL     OW55489  12.439   9.088  14.264
84531SOL    HW155490  12.515   9.031  14.253
84531SOL    HW255491  12.443   9.149  14.191
84532SOL     OW55492  11.791   8.957  12.518
84532SOL    HW155493  11.725   8.911  12.466
84532SOL    HW255494  11.770   8.933  12.609
84533SOL     OW55495   0.029   3.555   4.490
84533SOL    HW155496   0.120   3.541   4.516
84533SOL    HW255497   0.036   3.589   4.401
84534SOL     OW55498   7.489   4.442   6.241
84534SOL    HW155499   7.447   4.356   6.245
84534SOL    HW255500   7.484   4.475   6.331
84535SOL     OW55501  12.393   2.913   7.774
84535SOL    HW155502  12.340   2.990   7.756
84535SOL    HW255503  12.482   2.939   7.749
84536SOL     OW55504   9.838   4.545  11.230
84536SOL    HW155505   9.797   4.510  11.151
84536SOL    HW255506   9.773   4.606  11.265
84537SOL     OW55507   0.775   8.960  10.056
84537SOL    HW155508   0.743   8.965  10.147
84537SOL    HW255509   0.695   8.950  10.004
84538SOL     OW55510  12.503  14.782   6.622
84538SOL    HW155511  12.416  14.793   6.659
84538SOL    HW255512  12.501  14.694   6.584
84539SOL     OW55513  11.829   7.009   1.443
84539SOL    HW155514  11.886   7.053   1.380
84539SOL    HW255515  11.743   7.007   1.401
84540SOL     OW55516   9.777  14.028  14.467
84540SOL    HW155517   9.787  14.108  14.414
84540SOL    HW255518   9.860  13.982  14.457
84541SOL     OW55519  11.345  12.984   9.016
84541SOL    HW155520  11.327  12.896   9.049
84541SOL    HW255521  11.397  12.969   8.937
84542SOL     OW55522   2.802  10.554   8.722
84542SOL    HW155523   2.815  10.461   8.742
84542SOL    HW255524   2.759  10.590   8.800
84543SOL     OW55525   5.432  12.602   3.401
84543SOL    HW155526   5.429  12.691   3.367
84543SOL    HW255527   5.458  12.611   3.493
84544SOL     OW55528   8.830   5.484   0.830
84544SOL    HW155529   8.816   5.540   0.906
84544SOL    HW255530   8.845   5.545   0.758
84545SOL     OW55531   7.516   4.439   1.771
84545SOL    HW155532   7.523   4.455   1.865
84545SOL    HW255533   7.550   4.518   1.730
84546SOL     OW55534   1.587   3.035  12.944
84546SOL    HW155535   1.576   2.989  13.028
84546SOL    HW255536   1.681   3.051  12.938
84547SOL     OW55537   3.576  11.764   4.543
84547SOL    HW155538   3.553  11.744   4.452
84547SOL    HW255539   3.572  11.679   4.588
84548SOL     OW55540   0.607   6.167  14.881
84548SOL    HW155541   0.665   6.092  14.868
84548SOL    HW255542   0.665   6.238   0.022
84549SOL     OW55543  11.954   7.686  11.043
84549SOL    HW155544  12.047   7.671  11.056
84549SOL    HW255545  11.914   7.600  11.053
84550SOL     OW55546   5.846   1.704   7.154
84550SOL    HW155547   5.867   1.685   7.246
84550SOL    HW255548   5.752   1.721   7.155
84551SOL     OW55549  10.670   6.014   7.935
84551SOL    HW155550  10.591   6.065   7.953
84551SOL    HW255551  10.717   6.011   8.018
84552SOL     OW55552   4.774  14.843  11.571
84552SOL    HW155553   4.863  14.863  11.601
84552SOL    HW255554   4.725  14.828  11.652
84553SOL     OW55555   9.081  12.781   4.200
84553SOL    HW155556   9.070  12.757   4.108
84553SOL    HW255557   9.168  12.822   4.203
84554SOL     OW55558   3.229   7.336   2.072
84554SOL    HW155559   3.258   7.306   1.986
84554SOL    HW255560   3.305   7.324   2.128
84555SOL     OW55561   7.212   9.318  10.593
84555SOL    HW155562   7.194   9.244  10.534
84555SOL    HW255563   7.131   9.369  10.593
84556SOL     OW55564   9.714   8.779  13.561
84556SOL    HW155565   9.801   8.819  13.569
84556SOL    HW255566   9.726   8.688  13.588
84557SOL     OW55567   6.573   9.595   9.349
84557SOL    HW155568   6.579   9.677   9.301
84557SOL    HW255569   6.661   9.580   9.383
84558SOL     OW55570   0.192   6.623   6.021
84558SOL    HW155571   0.240   6.612   6.103
84558SOL    HW255572   0.240   6.569   5.958
84559SOL     OW55573  14.651  10.419   9.091
84559SOL    HW155574  14.573  10.462   9.125
84559SOL    HW255575  14.718  10.435   9.158
84560SOL     OW55576   1.834  10.389  12.830
84560SOL    HW155577   1.813  10.302  12.796
84560SOL    HW255578   1.790  10.393  12.915
84561SOL     OW55579   5.684   9.306  14.834
84561SOL    HW155580   5.760   9.362  14.819
84561SOL    HW255581   5.611   9.367  14.842
84562SOL     OW55582   0.604   6.072   6.737
84562SOL    HW155583   0.606   6.156   6.691
84562SOL    HW255584   0.526   6.028   6.703
84563SOL     OW55585  11.364   1.195   2.693
84563SOL    HW155586  11.408   1.251   2.629
84563SOL    HW255587  11.362   1.247   2.773
84564SOL     OW55588   0.650   0.763   2.791
84564SOL    HW155589   0.616   0.825   2.856
84564SOL    HW255590   0.588   0.770   2.718
84565SOL     OW55591   1.319   7.714   3.001
84565SOL    HW155592   1.381   7.746   3.066
84565SOL    HW255593   1.327   7.774   2.927
84566SOL     OW55594   7.681   0.846  10.836
84566SOL    HW155595   7.678   0.753  10.859
84566SOL    HW255596   7.614   0.855  10.767
84567SOL     OW55597  12.866   1.768   7.805
84567SOL    HW155598  12.820   1.733   7.881
84567SOL    HW255599  12.959   1.751   7.823
84568SOL     OW55600  12.668   3.677   4.713
84568SOL    HW155601  12.659   3.583   4.730
84568SOL    HW255602  12.736   3.683   4.646
84569SOL     OW55603   7.572   4.929   8.221
84569SOL    HW155604   7.560   4.996   8.153
84569SOL    HW255605   7.664   4.936   8.245
84570SOL     OW55606   4.445  12.713   4.161
84570SOL    HW155607   4.527  12.670   4.137
84570SOL    HW255608   4.379  12.671   4.105
84571SOL     OW55609  11.425   4.179   5.511
84571SOL    HW155610  11.390   4.104   5.463
84571SOL    HW255611  11.428   4.149   5.602
84572SOL     OW55612   5.019   0.005   3.706
84572SOL    HW155613   5.032  14.800   3.683
84572SOL    HW255614   4.941   0.006   3.761
84573SOL     OW55615   1.518   2.096   2.172
84573SOL    HW155616   1.473   2.120   2.091
84573SOL    HW255617   1.610   2.093   2.147
84574SOL     OW55618   6.107   1.001  12.067
84574SOL    HW155619   6.192   1.036  12.044
84574SOL    HW255620   6.055   1.077  12.093
84575SOL     OW55621   4.143  10.250   6.167
84575SOL    HW155622   4.164  10.197   6.244
84575SOL    HW255623   4.218  10.309   6.158
84576SOL     OW55624   7.706  14.400   1.444
84576SOL    HW155625   7.733  14.359   1.362
84576SOL    HW255626   7.648  14.471   1.418
84577SOL     OW55627   6.289   7.775   3.943
84577SOL    HW155628   6.361   7.827   3.908
84577SOL    HW255629   6.210   7.825   3.922
84578SOL     OW55630   1.367   7.009   0.358
84578SOL    HW155631   1.313   6.932   0.376
84578SOL    HW255632   1.414   6.988   0.278
84579SOL     OW55633   1.089   4.876  10.302
84579SOL    HW155634   1.003   4.861  10.263
84579SOL    HW255635   1.123   4.788  10.320
84580SOL     OW55636   7.092   5.091   2.192
84580SOL    HW155637   7.013   5.051   2.155
84580SOL    HW255638   7.109   5.041   2.272
84581SOL     OW55639   6.647   3.991   6.610
84581SOL    HW155640   6.593   4.027   6.540
84581SOL    HW255641   6.655   3.898   6.590
84582SOL     OW55642   7.429  14.746  14.147
84582SOL    HW155643   7.445  14.745  14.053
84582SOL    HW255644   7.481  14.820  14.179
84583SOL     OW55645   7.814   1.654   5.694
84583SOL    HW155646   7.746   1.637   5.630
84583SOL    HW255647   7.872   1.578   5.689
84584SOL     OW55648  12.098  11.976  10.235
84584SOL    HW155649  12.172  11.953  10.179
84584SOL    HW255650  12.085  11.899  10.291
84585SOL     OW55651   9.378  13.353  14.867
84585SOL    HW155652   9.364  13.305   0.061
84585SOL    HW255653   9.345  13.441  14.885
84586SOL     OW55654  14.208   0.393   9.863
84586SOL    HW155655  14.179   0.477   9.826
84586SOL    HW255656  14.276   0.417   9.926
84587SOL     OW55657  11.977   7.377   9.160
84587SOL    HW155658  11.983   7.473   9.163
84587SOL    HW255659  12.049   7.347   9.214
84588SOL     OW55660  14.354   2.558  11.966
84588SOL    HW155661  14.274   2.527  12.008
84588SOL    HW255662  14.387   2.626  12.025
84589SOL     OW55663   3.946   3.746  11.913
84589SOL    HW155664   3.866   3.790  11.886
84589SOL    HW255665   3.934   3.655  11.883
84590SOL     OW55666   1.602  14.863   9.680
84590SOL    HW155667   1.688   0.010   9.655
84590SOL    HW255668   1.565  14.829   9.599
84591SOL     OW55669   8.414   5.043  12.939
84591SOL    HW155670   8.406   5.089  12.856
84591SOL    HW255671   8.480   4.976  12.925
84592SOL     OW55672   0.672   5.339   8.420
84592SOL    HW155673   0.657   5.427   8.455
84592SOL    HW255674   0.637   5.342   8.331
84593SOL     OW55675   0.300  10.376   0.374
84593SOL    HW155676   0.284  10.406   0.285
84593SOL    HW255677   0.329  10.455   0.421
84594SOL     OW55678   2.896   5.590  10.059
84594SOL    HW155679   2.802   5.575  10.058
84594SOL    HW255680   2.905   5.682  10.032
84595SOL     OW55681   3.890  11.169   6.415
84595SOL    HW155682   3.946  11.216   6.353
84595SOL    HW255683   3.801  11.184   6.383
84596SOL     OW55684  11.891  13.463   5.641
84596SOL    HW155685  11.815  13.419   5.679
84596SOL    HW255686  11.852  13.536   5.591
84597SOL     OW55687   0.349   7.462   1.503
84597SOL    HW155688   0.358   7.373   1.536
84597SOL    HW255689   0.254   7.477   1.503
84598SOL     OW55690  14.147   2.938   0.544
84598SOL    HW155691  14.153   3.016   0.489
84598SOL    HW255692  14.079   2.885   0.504
84599SOL     OW55693   5.203  13.342   7.728
84599SOL    HW155694   5.168  13.259   7.761
84599SOL    HW255695   5.177  13.344   7.636
84600SOL     OW55696  10.731  13.647   2.666
84600SOL    HW155697  10.796  13.581   2.689
84600SOL    HW255698  10.781  13.718   2.625
84601SOL     OW55699  10.711   6.892   5.038
84601SOL    HW155700  10.806   6.904   5.033
84601SOL    HW255701  10.694   6.812   4.987
84602SOL     OW55702  11.896  10.127   7.015
84602SOL    HW155703  11.813  10.153   7.055
84602SOL    HW255704  11.933  10.063   7.075
84603SOL     OW55705   2.086   3.402  10.638
84603SOL    HW155706   2.143   3.325  10.635
84603SOL    HW255707   1.998   3.368  10.624
84604SOL     OW55708  10.210   9.986   5.346
84604SOL    HW155709  10.227   9.974   5.440
84604SOL    HW255710  10.155  10.064   5.342
84605SOL     OW55711   1.630   1.837  10.031
84605SOL    HW155712   1.586   1.871   9.953
84605SOL    HW255713   1.716   1.809  10.000
84606SOL     OW55714   9.515   4.684  14.059
84606SOL    HW155715   9.582   4.621  14.033
84606SOL    HW255716   9.564   4.762  14.085
84607SOL     OW55717   9.794   5.269  13.916
84607SOL    HW155718   9.741   5.347  13.896
84607SOL    HW255719   9.874   5.304  13.954
84608SOL     OW55720   7.732   4.196   1.760
84608SOL    HW155721   7.653   4.243   1.788
84608SOL    HW255722   7.773   4.254   1.696
84609SOL     OW55723   6.065  12.264   9.376
84609SOL    HW155724   6.010  12.225   9.308
84609SOL    HW255725   6.068  12.357   9.353
84610SOL     OW55726   0.072   5.630   0.163
84610SOL    HW155727   0.125   5.685   0.105
84610SOL    HW255728   0.028   5.569   0.104
84611SOL     OW55729   4.081   6.238   2.785
84611SOL    HW155730   4.109   6.310   2.728
84611SOL    HW255731   4.161   6.212   2.831
84612SOL     OW55732  10.116  13.359   7.084
84612SOL    HW155733  10.134  13.317   7.000
84612SOL    HW255734  10.052  13.302   7.126
84613SOL     OW55735   5.105   7.963  10.484
84613SOL    HW155736   5.009   7.971  10.482
84613SOL    HW255737   5.137   8.053  10.479
84614SOL     OW55738   3.568  12.164   7.713
84614SOL    HW155739   3.556  12.096   7.779
84614SOL    HW255740   3.513  12.237   7.743
84615SOL     OW55741  12.664   0.994  13.444
84615SOL    HW155742  12.741   0.941  13.428
84615SOL    HW255743  12.648   1.040  13.362
84616SOL     OW55744   3.584   5.407   7.841
84616SOL    HW155745   3.674   5.439   7.846
84616SOL    HW255746   3.566   5.403   7.747
84617SOL     OW55747   1.008  12.557   0.340
84617SOL    HW155748   1.003  12.501   0.263
84617SOL    HW255749   1.041  12.641   0.306
84618SOL     OW55750   4.091   5.710   2.213
84618SOL    HW155751   4.031   5.660   2.268
84618SOL    HW255752   4.178   5.676   2.235
84619SOL     OW55753  13.151  12.680   3.492
84619SOL    HW155754  13.115  12.615   3.431
84619SOL    HW255755  13.143  12.763   3.446
84620SOL     OW55756   3.948   8.358  10.750
84620SOL    HW155757   4.019   8.338  10.688
84620SOL    HW255758   3.906   8.436  10.712
84621SOL     OW55759   2.158   5.243   7.912
84621SOL    HW155760   2.128   5.164   7.867
84621SOL    HW255761   2.149   5.312   7.847
84622SOL     OW55762  13.324   8.146   2.164
84622SOL    HW155763  13.376   8.074   2.200
84622SOL    HW255764  13.252   8.102   2.118
84623SOL     OW55765   1.553   5.265   3.517
84623SOL    HW155766   1.529   5.251   3.426
84623SOL    HW255767   1.550   5.178   3.556
84624SOL     OW55768   4.977  10.321   9.996
84624SOL    HW155769   4.940  10.351  10.079
84624SOL    HW255770   4.901  10.304   9.941
84625SOL     OW55771   5.773   3.892   1.570
84625SOL    HW155772   5.825   3.890   1.490
84625SOL    HW255773   5.734   3.979   1.571
84626SOL     OW55774  10.165   3.164   9.493
84626SOL    HW155775  10.173   3.232   9.426
84626SOL    HW255776  10.252   3.159   9.532
84627SOL     OW55777   8.596   7.046   1.081
84627SOL    HW155778   8.514   7.095   1.082
84627SOL    HW255779   8.585   6.978   1.148
84628SOL     OW55780   8.770  11.391   9.738
84628SOL    HW155781   8.844  11.391   9.799
84628SOL    HW255782   8.743  11.300   9.733
84629SOL     OW55783  10.400   8.111   9.053
84629SOL    HW155784  10.346   8.071   8.985
84629SOL    HW255785  10.375   8.064   9.133
84630SOL     OW55786   3.485   5.670   3.903
84630SOL    HW155787   3.542   5.602   3.868
84630SOL    HW255788   3.484   5.655   3.998
84631SOL     OW55789   1.773  10.110   3.827
84631SOL    HW155790   1.781  10.016   3.836
84631SOL    HW255791   1.747  10.124   3.736
84632SOL     OW55792   4.042  13.426   5.275
84632SOL    HW155793   4.016  13.359   5.339
84632SOL    HW255794   3.986  13.501   5.295
84633SOL     OW55795  12.442   2.554   0.485
84633SOL    HW155796  12.352   2.545   0.517
84633SOL    HW255797  12.492   2.490   0.535
84634SOL     OW55798   7.469   6.516   8.099
84634SOL    HW155799   7.540   6.529   8.161
84634SOL    HW255800   7.466   6.597   8.047
84635SOL     OW55801   3.234  14.444  10.484
84635SOL    HW155802   3.141  14.433  10.500
84635SOL    HW255803   3.275  14.369  10.529
84636SOL     OW55804   7.480  12.091   7.055
84636SOL    HW155805   7.554  12.031   7.058
84636SOL    HW255806   7.410  12.042   7.012
84637SOL     OW55807   6.203   8.697   3.566
84637SOL    HW155808   6.112   8.680   3.542
84637SOL    HW255809   6.244   8.725   3.484
84638SOL     OW55810  11.977   7.863   4.982
84638SOL    HW155811  11.996   7.915   4.904
84638SOL    HW255812  11.954   7.777   4.947
84639SOL     OW55813   7.088   2.467  12.930
84639SOL    HW155814   7.100   2.489  12.838
84639SOL    HW255815   7.144   2.530  12.976
84640SOL     OW55816   3.040   3.699   9.960
84640SOL    HW155817   3.134   3.689   9.945
84640SOL    HW255818   3.033   3.718  10.054
84641SOL     OW55819   6.637  12.772  12.858
84641SOL    HW155820   6.702  12.798  12.923
84641SOL    HW255821   6.560  12.824  12.879
84642SOL     OW55822   4.860   1.423   4.002
84642SOL    HW155823   4.776   1.453   4.037
84642SOL    HW255824   4.873   1.475   3.922
84643SOL     OW55825   9.917   6.946   5.725
84643SOL    HW155826   9.966   6.912   5.650
84643SOL    HW255827   9.829   6.910   5.714
84644SOL     OW55828  10.439   5.358  14.628
84644SOL    HW155829  10.421   5.323  14.715
84644SOL    HW255830  10.354   5.357  14.583
84645SOL     OW55831   3.077   2.692  12.131
84645SOL    HW155832   3.008   2.754  12.157
84645SOL    HW255833   3.115   2.662  12.214
84646SOL     OW55834   9.469   3.863  11.906
84646SOL    HW155835   9.510   3.894  11.826
84646SOL    HW255836   9.535   3.879  11.974
84647SOL     OW55837   2.443   8.930  10.978
84647SOL    HW155838   2.385   8.994  10.938
84647SOL    HW255839   2.507   8.909  10.910
84648SOL     OW55840  11.197   9.563  14.173
84648SOL    HW155841  11.246   9.644  14.161
84648SOL    HW255842  11.149   9.575  14.255
84649SOL     OW55843   3.843   1.280  14.213
84649SOL    HW155844   3.813   1.340  14.280
84649SOL    HW255845   3.830   1.193  14.250
84650SOL     OW55846   1.075   0.401   3.051
84650SOL    HW155847   1.103   0.488   3.079
84650SOL    HW255848   1.026   0.417   2.970
84651SOL     OW55849   3.941  12.895  14.724
84651SOL    HW155850   4.031  12.874  14.749
84651SOL    HW255851   3.891  12.816  14.747
84652SOL     OW55852   0.382  13.360   8.594
84652SOL    HW155853   0.442  13.345   8.520
84652SOL    HW255854   0.296  13.371   8.553
84653SOL     OW55855   9.754  11.968   3.340
84653SOL    HW155856   9.757  11.900   3.407
84653SOL    HW255857   9.663  11.969   3.311
84654SOL     OW55858   4.634  14.789  10.113
84654SOL    HW155859   4.689  14.738  10.053
84654SOL    HW255860   4.581  14.844  10.056
84655SOL     OW55861   2.737  13.688   5.738
84655SOL    HW155862   2.759  13.641   5.657
84655SOL    HW255863   2.667  13.636   5.778
84656SOL     OW55864   0.826  12.861   3.106
84656SOL    HW155865   0.744  12.902   3.077
84656SOL    HW255866   0.813  12.844   3.199
84657SOL     OW55867  13.598   1.205   6.967
84657SOL    HW155868  13.547   1.154   7.029
84657SOL    HW255869  13.670   1.241   7.020
84658SOL     OW55870  14.809  12.056   1.528
84658SOL    HW155871  14.828  11.965   1.505
84658SOL    HW255872  14.789  12.053   1.622
84659SOL     OW55873   8.796  12.980  12.281
84659SOL    HW155874   8.707  13.007  12.260
84659SOL    HW255875   8.849  13.013  12.208
84660SOL     OW55876   5.299  10.507  12.503
84660SOL    HW155877   5.385  10.526  12.466
84660SOL    HW255878   5.316  10.482  12.594
84661SOL     OW55879   2.184   0.863   1.949
84661SOL    HW155880   2.164   0.953   1.924
84661SOL    HW255881   2.224   0.870   2.035
84662SOL     OW55882  11.622   5.140  11.908
84662SOL    HW155883  11.707   5.123  11.948
84662SOL    HW255884  11.599   5.059  11.863
84663SOL     OW55885  13.869   2.640   3.397
84663SOL    HW155886  13.795   2.689   3.362
84663SOL    HW255887  13.893   2.579   3.328
84664SOL     OW55888  13.249  11.532   0.952
84664SOL    HW155889  13.192  11.461   0.981
84664SOL    HW255890  13.197  11.611   0.966
84665SOL     OW55891   6.367   0.577   4.002
84665SOL    HW155892   6.372   0.646   3.936
84665SOL    HW255893   6.326   0.618   4.078
84666SOL     OW55894   0.448   8.765  10.634
84666SOL    HW155895   0.476   8.686  10.679
84666SOL    HW255896   0.459   8.835  10.698
84667SOL     OW55897   4.559   8.389  10.479
84667SOL    HW155898   4.649   8.360  10.494
84667SOL    HW255899   4.562   8.484  10.492
84668SOL     OW55900  13.585   7.709  14.064
84668SOL    HW155901  13.624   7.776  14.006
84668SOL    HW255902  13.649   7.698  14.134
84669SOL     OW55903   4.106   9.884   6.189
84669SOL    HW155904   4.070   9.938   6.118
84669SOL    HW255905   4.171   9.829   6.147
84670SOL     OW55906   1.513   0.055  10.152
84670SOL    HW155907   1.557   0.099  10.224
84670SOL    HW255908   1.556   0.088  10.074
84671SOL     OW55909   0.301  13.586   9.428
84671SOL    HW155910   0.284  13.659   9.367
84671SOL    HW255911   0.216  13.569   9.469
84672SOL     OW55912   6.475   4.162  11.752
84672SOL    HW155913   6.483   4.152  11.847
84672SOL    HW255914   6.394   4.211  11.740
84673SOL     OW55915   2.511   6.523   8.623
84673SOL    HW155916   2.596   6.544   8.661
84673SOL    HW255917   2.532   6.481   8.539
84674SOL     OW55918   0.358  10.771   6.742
84674SOL    HW155919   0.413  10.693   6.749
84674SOL    HW255920   0.419  10.844   6.746
84675SOL     OW55921   8.992   4.282  11.138
84675SOL    HW155922   9.003   4.377  11.129
84675SOL    HW255923   9.075   4.252  11.175
84676SOL     OW55924   2.675  14.626  12.668
84676SOL    HW155925   2.666  14.717  12.697
84676SOL    HW255926   2.764  14.602  12.690
84677SOL     OW55927  14.243   6.035   0.397
84677SOL    HW155928  14.212   5.954   0.356
84677SOL    HW255929  14.264   6.010   0.487
84678SOL     OW55930  10.108   3.844  14.642
84678SOL    HW155931  10.031   3.896  14.621
84678SOL    HW255932  10.090   3.806  14.728
84679SOL     OW55933   2.812   5.687   7.847
84679SOL    HW155934   2.748   5.626   7.881
84679SOL    HW255935   2.885   5.683   7.909
84680SOL     OW55936   6.179  14.712   0.844
84680SOL    HW155937   6.148  14.658   0.771
84680SOL    HW255938   6.101  14.760   0.872
84681SOL     OW55939   3.879  10.944  14.675
84681SOL    HW155940   3.825  10.956  14.753
84681SOL    HW255941   3.952  10.890  14.705
84682SOL     OW55942  14.403   9.856  10.477
84682SOL    HW155943  14.485   9.898  10.451
84682SOL    HW255944  14.377   9.903  10.557
84683SOL     OW55945  10.355   2.624   8.036
84683SOL    HW155946  10.333   2.717   8.040
84683SOL    HW255947  10.394   2.605   8.121
84684SOL     OW55948   5.915  14.158   7.434
84684SOL    HW155949   5.855  14.151   7.508
84684SOL    HW255950   6.000  14.133   7.470
84685SOL     OW55951   4.083   1.941   0.424
84685SOL    HW155952   4.173   1.907   0.421
84685SOL    HW255953   4.058   1.951   0.332
84686SOL     OW55954   3.562  12.182   9.105
84686SOL    HW155955   3.624  12.125   9.151
84686SOL    HW255956   3.600  12.193   9.017
84687SOL     OW55957   3.342   6.631  11.085
84687SOL    HW155958   3.304   6.696  11.144
84687SOL    HW255959   3.271   6.568  11.070
84688SOL     OW55960  13.696   1.361   3.596
84688SOL    HW155961  13.697   1.267   3.577
84688SOL    HW255962  13.625   1.395   3.542
84689SOL     OW55963   0.273   3.673   1.357
84689SOL    HW155964   0.265   3.580   1.336
84689SOL    HW255965   0.199   3.713   1.312
84690SOL     OW55966   9.736  11.272  12.067
84690SOL    HW155967   9.709  11.181  12.050
84690SOL    HW255968   9.738  11.278  12.163
84691SOL     OW55969  14.264  11.881   7.144
84691SOL    HW155970  14.209  11.878   7.067
84691SOL    HW255971  14.260  11.973   7.173
84692SOL     OW55972  12.411   8.431   1.002
84692SOL    HW155973  12.502   8.403   0.993
84692SOL    HW255974  12.409   8.477   1.086
84693SOL     OW55975   8.566   2.785   1.328
84693SOL    HW155976   8.516   2.831   1.395
84693SOL    HW255977   8.576   2.848   1.256
84694SOL     OW55978  14.334  14.001   3.491
84694SOL    HW155979  14.429  14.007   3.481
84694SOL    HW255980  14.321  13.938   3.562
84695SOL     OW55981   9.174   4.349   7.086
84695SOL    HW155982   9.189   4.412   7.156
84695SOL    HW255983   9.108   4.389   7.030
84696SOL     OW55984  13.600   2.130   6.528
84696SOL    HW155985  13.657   2.054   6.533
84696SOL    HW255986  13.546   2.124   6.607
84697SOL     OW55987   9.503  12.363   9.684
84697SOL    HW155988   9.573  12.423   9.711
84697SOL    HW255989   9.427  12.420   9.669
84698SOL     OW55990   4.995   4.255   8.813
84698SOL    HW155991   5.035   4.263   8.899
84698SOL    HW255992   5.055   4.301   8.754
84699SOL     OW55993  14.839  10.535   2.303
84699SOL    HW155994   0.002  10.555   2.383
84699SOL    HW255995  14.748  10.548   2.329
84700SOL     OW55996   4.013  14.429  14.467
84700SOL    HW155997   3.956  14.362  14.505
84700SOL    HW255998   3.980  14.440  14.377
84701SOL     OW55999  10.908   9.850   8.328
84701SOL    HW156000  10.964   9.788   8.375
84701SOL    HW256001  10.873   9.799   8.255
84702SOL     OW56002   6.037  11.028  10.954
84702SOL    HW156003   6.076  11.108  10.918
84702SOL    HW256004   5.945  11.033  10.930
84703SOL     OW56005  10.857   1.501   7.547
84703SOL    HW156006  10.920   1.536   7.484
84703SOL    HW256007  10.899   1.422   7.581
84704SOL     OW56008   7.536   5.920  10.354
84704SOL    HW156009   7.481   5.948  10.428
84704SOL    HW256010   7.622   5.904  10.393
84705SOL     OW56011   2.028  10.448  13.866
84705SOL    HW156012   1.995  10.436  13.777
84705SOL    HW256013   1.973  10.392  13.920
84706SOL     OW56014  14.674   7.634  14.022
84706SOL    HW156015  14.614   7.566  14.052
84706SOL    HW256016  14.732   7.650  14.096
84707SOL     OW56017   4.797   4.622   9.452
84707SOL    HW156018   4.786   4.664   9.367
84707SOL    HW256019   4.813   4.530   9.432
84708SOL     OW56020  13.327   1.767   2.572
84708SOL    HW156021  13.305   1.856   2.545
84708SOL    HW256022  13.288   1.757   2.658
84709SOL     OW56023  12.884   3.935   6.715
84709SOL    HW156024  12.962   3.903   6.670
84709SOL    HW256025  12.902   3.920   6.808
84710SOL     OW56026   6.969   1.650  12.169
84710SOL    HW156027   7.002   1.636  12.257
84710SOL    HW256028   7.046   1.642  12.112
84711SOL     OW56029   0.085   4.187   9.488
84711SOL    HW156030   0.012   4.247   9.471
84711SOL    HW256031   0.154   4.243   9.524
84712SOL     OW56032  12.897  13.598   7.444
84712SOL    HW156033  12.873  13.506   7.445
84712SOL    HW256034  12.922  13.618   7.534
84713SOL     OW56035   3.530   3.099   6.569
84713SOL    HW156036   3.457   3.148   6.606
84713SOL    HW256037   3.603   3.114   6.629
84714SOL     OW56038   1.251   2.995   0.872
84714SOL    HW156039   1.342   3.018   0.891
84714SOL    HW256040   1.257   2.914   0.821
84715SOL     OW56041   2.329   9.885   9.346
84715SOL    HW156042   2.376   9.949   9.399
84715SOL    HW256043   2.256   9.856   9.401
84716SOL     OW56044   2.280  14.232  10.445
84716SOL    HW156045   2.279  14.284  10.525
84716SOL    HW256046   2.323  14.288  10.380
84717SOL     OW56047   5.599   4.878  10.873
84717SOL    HW156048   5.509   4.862  10.901
84717SOL    HW256049   5.594   4.956  10.819
84718SOL     OW56050  14.725   1.955  12.970
84718SOL    HW156051  14.717   2.051  12.964
84718SOL    HW256052  14.666   1.921  12.903
84719SOL     OW56053  13.156   1.143  11.234
84719SOL    HW156054  13.135   1.209  11.168
84719SOL    HW256055  13.246   1.117  11.214
84720SOL     OW56056  14.735   1.927  13.261
84720SOL    HW156057  14.713   1.845  13.304
84720SOL    HW256058  14.670   1.936  13.191
84721SOL     OW56059  11.928   7.061   6.882
84721SOL    HW156060  11.858   7.126   6.870
84721SOL    HW256061  12.008   7.113   6.886
84722SOL     OW56062   6.228   1.351   7.717
84722SOL    HW156063   6.200   1.269   7.758
84722SOL    HW256064   6.283   1.323   7.644
84723SOL     OW56065  12.561   6.316   7.409
84723SOL    HW156066  12.581   6.228   7.442
84723SOL    HW256067  12.556   6.306   7.314
84724SOL     OW56068   0.687   4.117  12.052
84724SOL    HW156069   0.776   4.109  12.086
84724SOL    HW256070   0.663   4.208  12.069
84725SOL     OW56071   7.505  10.199  12.268
84725SOL    HW156072   7.541  10.163  12.187
84725SOL    HW256073   7.418  10.159  12.275
84726SOL     OW56074   2.045   2.011  11.464
84726SOL    HW156075   2.062   2.098  11.429
84726SOL    HW256076   2.040   1.954  11.388
84727SOL     OW56077   7.904  13.462   8.401
84727SOL    HW156078   7.989  13.500   8.422
84727SOL    HW256079   7.876  13.420   8.483
84728SOL     OW56080   5.562   8.665  13.580
84728SOL    HW156081   5.556   8.580  13.537
84728SOL    HW256082   5.502   8.721  13.531
84729SOL     OW56083   2.293   7.165  12.528
84729SOL    HW156084   2.354   7.189  12.459
84729SOL    HW256085   2.336   7.191  12.609
84730SOL     OW56086   8.104   5.359   2.548
84730SOL    HW156087   8.177   5.339   2.607
84730SOL    HW256088   8.029   5.370   2.606
84731SOL     OW56089   0.869   1.849  10.886
84731SOL    HW156090   0.958   1.821  10.867
84731SOL    HW256091   0.833   1.781  10.943
84732SOL     OW56092   0.180  11.951   3.048
84732SOL    HW156093   0.248  11.913   3.103
84732SOL    HW256094   0.214  12.037   3.023
84733SOL     OW56095   2.773  13.570  13.591
84733SOL    HW156096   2.826  13.602  13.517
84733SOL    HW256097   2.737  13.650  13.630
84734SOL     OW56098  11.957   9.977   3.005
84734SOL    HW156099  11.984  10.031   3.079
84734SOL    HW256100  12.014  10.005   2.933
84735SOL     OW56101   2.931  10.792   6.398
84735SOL    HW156102   2.890  10.863   6.447
84735SOL    HW256103   2.879  10.785   6.318
84736SOL     OW56104   1.216   3.925   4.206
84736SOL    HW156105   1.266   3.898   4.283
84736SOL    HW256106   1.257   4.008   4.179
84737SOL     OW56107  10.766  11.568  13.943
84737SOL    HW156108  10.801  11.598  14.027
84737SOL    HW256109  10.702  11.635  13.918
84738SOL     OW56110   2.429   9.252   3.117
84738SOL    HW156111   2.492   9.181   3.125
84738SOL    HW256112   2.443   9.305   3.195
84739SOL     OW56113  10.385   1.087  10.039
84739SOL    HW156114  10.459   1.084   9.978
84739SOL    HW256115  10.422   1.060  10.123
84740SOL     OW56116   2.920   3.791  14.587
84740SOL    HW156117   2.998   3.738  14.607
84740SOL    HW256118   2.951   3.856  14.525
84741SOL     OW56119  12.278   2.629   3.449
84741SOL    HW156120  12.372   2.644   3.449
84741SOL    HW256121  12.250   2.649   3.539
84742SOL     OW56122   7.368   0.525  10.920
84742SOL    HW156123   7.385   0.447  10.972
84742SOL    HW256124   7.321   0.493  10.843
84743SOL     OW56125   2.567   5.424   9.552
84743SOL    HW156126   2.619   5.472   9.487
84743SOL    HW256127   2.486   5.402   9.506
84744SOL     OW56128  12.140   0.160   3.140
84744SOL    HW156129  12.048   0.166   3.115
84744SOL    HW256130  12.169   0.075   3.106
84745SOL     OW56131  12.656  14.501   2.727
84745SOL    HW156132  12.697  14.500   2.813
84745SOL    HW256133  12.661  14.593   2.699
84746SOL     OW56134   4.449  14.649   3.206
84746SOL    HW156135   4.517  14.594   3.168
84746SOL    HW256136   4.497  14.722   3.246
84747SOL     OW56137   8.545   1.329   8.548
84747SOL    HW156138   8.481   1.366   8.487
84747SOL    HW256139   8.615   1.298   8.491
84748SOL     OW56140  10.668  12.395   6.116
84748SOL    HW156141  10.647  12.391   6.210
84748SOL    HW256142  10.725  12.320   6.101
84749SOL     OW56143   7.052   9.532   4.030
84749SOL    HW156144   7.011   9.617   4.043
84749SOL    HW256145   7.076   9.503   4.117
84750SOL     OW56146   8.669  11.826  12.721
84750SOL    HW156147   8.692  11.919  12.715
84750SOL    HW256148   8.677  11.806  12.814
84751SOL     OW56149  14.045   6.375  10.618
84751SOL    HW156150  14.129   6.348  10.580
84751SOL    HW256151  14.067   6.449  10.674
84752SOL     OW56152   3.225  10.634   4.950
84752SOL    HW156153   3.287  10.683   4.895
84752SOL    HW256154   3.144  10.632   4.898
84753SOL     OW56155  13.545   5.457  11.819
84753SOL    HW156156  13.500   5.373  11.810
84753SOL    HW256157  13.551   5.491  11.730
84754SOL     OW56158   2.084  14.736   7.220
84754SOL    HW156159   2.081  14.709   7.129
84754SOL    HW256160   2.001  14.782   7.234
84755SOL     OW56161   7.711   8.566  10.370
84755SOL    HW156162   7.803   8.590  10.380
84755SOL    HW256163   7.712   8.491  10.311
84756SOL     OW56164  13.348  13.712   3.344
84756SOL    HW156165  13.430  13.692   3.300
84756SOL    HW256166  13.284  13.654   3.304
84757SOL     OW56167  11.041   8.446   2.939
84757SOL    HW156168  11.085   8.391   3.003
84757SOL    HW256169  10.963   8.397   2.914
84758SOL     OW56170   2.140   9.784   1.380
84758SOL    HW156171   2.164   9.716   1.318
84758SOL    HW256172   2.179   9.864   1.345
84759SOL     OW56173   4.921  11.102   0.399
84759SOL    HW156174   4.961  11.027   0.443
84759SOL    HW256175   4.885  11.155   0.470
84760SOL     OW56176   2.088  11.719   7.927
84760SOL    HW156177   2.158  11.771   7.966
84760SOL    HW256178   2.008  11.757   7.962
84761SOL     OW56179  13.508  13.512  10.144
84761SOL    HW156180  13.583  13.519  10.203
84761SOL    HW256181  13.545  13.526  10.057
84762SOL     OW56182   4.555   9.752   0.613
84762SOL    HW156183   4.620   9.820   0.594
84762SOL    HW256184   4.600   9.692   0.672
84763SOL     OW56185   5.666  13.795  14.583
84763SOL    HW156186   5.593  13.809  14.522
84763SOL    HW256187   5.672  13.700  14.592
84764SOL     OW56188  10.542  10.932   4.612
84764SOL    HW156189  10.597  10.914   4.688
84764SOL    HW256190  10.603  10.932   4.538
84765SOL     OW56191   3.363   0.869  10.411
84765SOL    HW156192   3.437   0.829  10.457
84765SOL    HW256193   3.369   0.835  10.321
84766SOL     OW56194   6.339  13.360   3.061
84766SOL    HW156195   6.369  13.271   3.041
84766SOL    HW256196   6.392  13.387   3.136
84767SOL     OW56197   8.994  11.793   4.380
84767SOL    HW156198   9.006  11.847   4.302
84767SOL    HW256199   9.020  11.705   4.352
84768SOL     OW56200  12.562   7.962   5.063
84768SOL    HW156201  12.468   7.976   5.060
84768SOL    HW256202  12.572   7.873   5.095
84769SOL     OW56203  14.686   1.224  14.857
84769SOL    HW156204  14.703   1.152   0.031
84769SOL    HW256205  14.591   1.222  14.845
84770SOL     OW56206   7.685   4.335  11.784
84770SOL    HW156207   7.703   4.393  11.709
84770SOL    HW256208   7.591   4.344  11.798
84771SOL     OW56209  14.144   8.051   4.960
84771SOL    HW156210  14.121   8.096   5.041
84771SOL    HW256211  14.061   8.014   4.929
84772SOL     OW56212   2.492   1.290   8.600
84772SOL    HW156213   2.527   1.376   8.623
84772SOL    HW256214   2.446   1.304   8.517
84773SOL     OW56215   5.342   7.577   5.156
84773SOL    HW156216   5.415   7.519   5.136
84773SOL    HW256217   5.329   7.628   5.076
84774SOL     OW56218   9.919   7.863   9.486
84774SOL    HW156219   9.942   7.881   9.577
84774SOL    HW256220   9.877   7.944   9.456
84775SOL     OW56221   3.094  14.543  11.607
84775SOL    HW156222   3.036  14.513  11.537
84775SOL    HW256223   3.104  14.636  11.591
84776SOL     OW56224  12.651  12.538   1.859
84776SOL    HW156225  12.619  12.449   1.873
84776SOL    HW256226  12.708  12.555   1.934
84777SOL     OW56227   9.439   6.256  12.285
84777SOL    HW156228   9.481   6.291  12.207
84777SOL    HW256229   9.485   6.299  12.358
84778SOL     OW56230   8.910   5.543   8.988
84778SOL    HW156231   8.989   5.530   8.937
84778SOL    HW256232   8.848   5.478   8.954
84779SOL     OW56233   8.678   6.026  12.869
84779SOL    HW156234   8.679   6.102  12.811
84779SOL    HW256235   8.592   5.987  12.856
84780SOL     OW56236  14.480   4.499  10.477
84780SOL    HW156237  14.575   4.503  10.480
84780SOL    HW256238  14.452   4.587  10.454
84781SOL     OW56239  10.808   5.164   4.439
84781SOL    HW156240  10.722   5.196   4.466
84781SOL    HW256241  10.789   5.098   4.372
84782SOL     OW56242   7.071   5.364   2.148
84782SOL    HW156243   7.059   5.271   2.164
84782SOL    HW256244   7.147   5.388   2.202
84783SOL     OW56245  10.687   8.954   3.676
84783SOL    HW156246  10.739   9.016   3.624
84783SOL    HW256247  10.633   8.908   3.611
84784SOL     OW56248   9.313   4.049   8.756
84784SOL    HW156249   9.236   4.037   8.701
84784SOL    HW256250   9.382   4.075   8.695
84785SOL     OW56251  13.844  12.600   7.896
84785SOL    HW156252  13.900  12.635   7.826
84785SOL    HW256253  13.755  12.627   7.870
84786SOL     OW56254  14.446   0.393   0.501
84786SOL    HW156255  14.397   0.457   0.449
84786SOL    HW256256  14.482   0.444   0.573
84787SOL     OW56257   5.013   0.573   6.177
84787SOL    HW156258   5.073   0.534   6.114
84787SOL    HW256259   5.010   0.511   6.250
84788SOL     OW56260  10.963  13.509   8.972
84788SOL    HW156261  10.918  13.463   9.044
84788SOL    HW256262  10.892  13.540   8.916
84789SOL     OW56263   7.735   0.843   2.548
84789SOL    HW156264   7.786   0.771   2.584
84789SOL    HW256265   7.653   0.842   2.598
84790SOL     OW56266   6.666   8.920   4.627
84790SOL    HW156267   6.571   8.916   4.626
84790SOL    HW256268   6.691   8.929   4.535
84791SOL     OW56269   0.078   8.615   1.072
84791SOL    HW156270  14.884   8.663   1.057
84791SOL    HW256271   0.071   8.538   1.016
84792SOL     OW56272  11.794   0.793  12.414
84792SOL    HW156273  11.791   0.700  12.393
84792SOL    HW256274  11.703   0.821  12.408
84793SOL     OW56275  10.240   1.084   1.849
84793SOL    HW156276  10.259   1.144   1.776
84793SOL    HW256277  10.315   1.025   1.851
84794SOL     OW56278  12.016   2.350   3.899
84794SOL    HW156279  11.991   2.400   3.977
84794SOL    HW256280  11.947   2.368   3.835
84795SOL     OW56281  13.159  14.795  10.474
84795SOL    HW156282  13.097  14.742  10.524
84795SOL    HW256283  13.179  14.743  10.396
84796SOL     OW56284  10.827   3.804   5.297
84796SOL    HW156285  10.883   3.777   5.370
84796SOL    HW256286  10.853   3.895   5.279
84797SOL     OW56287   2.953   3.018   7.578
84797SOL    HW156288   3.016   2.946   7.585
84797SOL    HW256289   3.002   3.088   7.535
84798SOL     OW56290  13.469   1.960   5.239
84798SOL    HW156291  13.396   1.900   5.224
84798SOL    HW256292  13.481   2.005   5.155
84799SOL     OW56293   2.709   5.368   2.618
84799SOL    HW156294   2.801   5.376   2.644
84799SOL    HW256295   2.692   5.446   2.565
84800SOL     OW56296  10.710   3.577  12.013
84800SOL    HW156297  10.762   3.546  12.087
84800SOL    HW256298  10.719   3.672  12.016
84801SOL     OW56299   8.998  14.215  10.906
84801SOL    HW156300   9.012  14.232  10.813
84801SOL    HW256301   9.047  14.134  10.923
84802SOL     OW56302   8.110   0.307  14.886
84802SOL    HW156303   8.092   0.364   0.073
84802SOL    HW256304   8.121   0.367  14.812
84803SOL     OW56305   1.741   7.555  13.827
84803SOL    HW156306   1.691   7.562  13.908
84803SOL    HW256307   1.735   7.462  13.803
84804SOL     OW56308   7.183   9.637   5.816
84804SOL    HW156309   7.121   9.707   5.835
84804SOL    HW256310   7.213   9.608   5.903
84805SOL     OW56311   4.259   9.814   8.215
84805SOL    HW156312   4.338   9.863   8.191
84805SOL    HW256313   4.233   9.770   8.134
84806SOL     OW56314   2.283   6.146  13.925
84806SOL    HW156315   2.321   6.127  13.839
84806SOL    HW256316   2.188   6.136  13.911
84807SOL     OW56317   1.526  14.570   1.139
84807SOL    HW156318   1.490  14.490   1.177
84807SOL    HW256319   1.467  14.639   1.169
84808SOL     OW56320   1.518  11.877   0.081
84808SOL    HW156321   1.469  11.925   0.149
84808SOL    HW256322   1.450  11.834   0.029
84809SOL     OW56323   2.912   1.930   0.772
84809SOL    HW156324   2.833   1.956   0.818
84809SOL    HW256325   2.932   1.843   0.807
84810SOL     OW56326  14.860   8.704  12.105
84810SOL    HW156327  14.881   8.727  12.196
84810SOL    HW256328  14.829   8.614  12.110
84811SOL     OW56329   2.681  13.619  14.517
84811SOL    HW156330   2.691  13.540  14.571
84811SOL    HW256331   2.665  13.585  14.429
84812SOL     OW56332  11.050  10.785   3.214
84812SOL    HW156333  11.030  10.751   3.301
84812SOL    HW256334  10.981  10.849   3.196
84813SOL     OW56335   0.547   6.482  12.472
84813SOL    HW156336   0.456   6.502  12.492
84813SOL    HW256337   0.543   6.419  12.401
84814SOL     OW56338   3.178   4.318   8.082
84814SOL    HW156339   3.152   4.226   8.090
84814SOL    HW256340   3.117   4.355   8.018
84815SOL     OW56341   5.091   3.429   7.816
84815SOL    HW156342   5.012   3.384   7.786
84815SOL    HW256343   5.088   3.420   7.912
84816SOL     OW56344   3.176  12.236   2.026
84816SOL    HW156345   3.224  12.219   1.945
84816SOL    HW256346   3.236  12.289   2.079
84817SOL     OW56347  11.676   0.725   5.793
84817SOL    HW156348  11.711   0.771   5.869
84817SOL    HW256349  11.606   0.669   5.829
84818SOL     OW56350   7.989   6.962   3.300
84818SOL    HW156351   7.910   6.914   3.275
84818SOL    HW256352   7.983   6.968   3.396
84819SOL     OW56353  13.528   5.977   9.617
84819SOL    HW156354  13.585   5.901   9.610
84819SOL    HW256355  13.440   5.940   9.620
84820SOL     OW56356   4.229  13.488   7.098
84820SOL    HW156357   4.282  13.521   7.026
84820SOL    HW256358   4.247  13.394   7.100
84821SOL     OW56359   1.781  11.075  14.821
84821SOL    HW156360   1.709  11.049  14.763
84821SOL    HW256361   1.738  11.108   0.012
84822SOL     OW56362  11.030  11.025   5.225
84822SOL    HW156363  10.973  11.102   5.227
84822SOL    HW256364  11.038  11.000   5.317
84823SOL     OW56365  11.291   1.686   5.688
84823SOL    HW156366  11.331   1.772   5.682
84823SOL    HW256367  11.294   1.651   5.599
84824SOL     OW56368  11.051  11.173  10.879
84824SOL    HW156369  11.032  11.254  10.927
84824SOL    HW256370  11.040  11.103  10.943
84825SOL     OW56371   3.277   7.225  14.502
84825SOL    HW156372   3.308   7.288  14.438
84825SOL    HW256373   3.182   7.237  14.504
84826SOL     OW56374   1.271   8.629   4.287
84826SOL    HW156375   1.183   8.659   4.311
84826SOL    HW256376   1.329   8.674   4.349
84827SOL     OW56377  11.321   5.996   4.284
84827SOL    HW156378  11.280   6.056   4.347
84827SOL    HW256379  11.413   6.022   4.284
84828SOL     OW56380  10.589   3.357   6.274
84828SOL    HW156381  10.603   3.284   6.214
84828SOL    HW256382  10.503   3.392   6.249
84829SOL     OW56383  14.118  12.378   8.864
84829SOL    HW156384  14.079  12.459   8.831
84829SOL    HW256385  14.110  12.385   8.960
84830SOL     OW56386  11.819   4.754   4.563
84830SOL    HW156387  11.769   4.696   4.621
84830SOL    HW256388  11.831   4.703   4.483
84831SOL     OW56389  10.203   0.091   9.119
84831SOL    HW156390  10.253   0.049   9.049
84831SOL    HW256391  10.121   0.043   9.122
84832SOL     OW56392   0.798  13.494   4.016
84832SOL    HW156393   0.753  13.424   4.064
84832SOL    HW256394   0.865  13.525   4.076
84833SOL     OW56395   5.623   4.029  10.665
84833SOL    HW156396   5.656   4.045  10.753
84833SOL    HW256397   5.540   3.983  10.677
84834SOL     OW56398   0.949   6.080   7.965
84834SOL    HW156399   0.931   6.173   7.981
84834SOL    HW256400   0.888   6.033   8.022
84835SOL     OW56401   6.198   4.369  13.892
84835SOL    HW156402   6.186   4.300  13.957
84835SOL    HW256403   6.162   4.333  13.811
84836SOL     OW56404   2.037   5.453  11.852
84836SOL    HW156405   1.955   5.492  11.883
84836SOL    HW256406   2.016   5.361  11.838
84837SOL     OW56407  10.624   1.152   5.325
84837SOL    HW156408  10.561   1.093   5.285
84837SOL    HW256409  10.699   1.151   5.266
84838SOL     OW56410  13.356   5.728  13.830
84838SOL    HW156411  13.413   5.788  13.878
84838SOL    HW256412  13.367   5.753  13.738
84839SOL     OW56413  12.604  11.231  13.593
84839SOL    HW156414  12.591  11.195  13.505
84839SOL    HW256415  12.557  11.170  13.651
84840SOL     OW56416   0.814   3.904   3.441
84840SOL    HW156417   0.728   3.940   3.461
84840SOL    HW256418   0.875   3.959   3.490
84841SOL     OW56419   3.316   1.992   3.010
84841SOL    HW156420   3.282   1.911   3.049
84841SOL    HW256421   3.399   2.006   3.056
84842SOL     OW56422   5.399   8.237   9.937
84842SOL    HW156423   5.425   8.150   9.905
84842SOL    HW256424   5.479   8.273   9.976
84843SOL     OW56425   3.333   7.509   2.428
84843SOL    HW156426   3.283   7.491   2.507
84843SOL    HW256427   3.334   7.426   2.381
84844SOL     OW56428   9.851  10.824   8.279
84844SOL    HW156429   9.910  10.872   8.220
84844SOL    HW256430   9.875  10.732   8.268
84845SOL     OW56431  11.522   3.327  13.364
84845SOL    HW156432  11.604   3.294  13.402
84845SOL    HW256433  11.517   3.418  13.393
84846SOL     OW56434  13.297   4.073   8.413
84846SOL    HW156435  13.233   4.060   8.483
84846SOL    HW256436  13.309   4.168   8.410
84847SOL     OW56437  11.526  13.630   4.735
84847SOL    HW156438  11.488  13.594   4.655
84847SOL    HW256439  11.585  13.562   4.767
84848SOL     OW56440   0.699   4.106   5.960
84848SOL    HW156441   0.767   4.152   6.009
84848SOL    HW256442   0.673   4.168   5.891
84849SOL     OW56443  12.693  12.340   6.779
84849SOL    HW156444  12.722  12.411   6.723
84849SOL    HW256445  12.728  12.261   6.737
84850SOL     OW56446   4.167  10.358  13.854
84850SOL    HW156447   4.222  10.282  13.874
84850SOL    HW256448   4.169  10.411  13.934
84851SOL     OW56449  14.025   2.087   3.300
84851SOL    HW156450  14.095   2.022   3.307
84851SOL    HW256451  13.983   2.068   3.216
84852SOL     OW56452  13.224   3.019   4.134
84852SOL    HW156453  13.292   3.047   4.072
84852SOL    HW256454  13.214   3.093   4.193
84853SOL     OW56455   5.804  12.925  11.913
84853SOL    HW156456   5.892  12.920  11.876
84853SOL    HW256457   5.759  12.991  11.860
84854SOL     OW56458   5.777   9.407  12.156
84854SOL    HW156459   5.846   9.346  12.133
84854SOL    HW256460   5.753   9.449  12.073
84855SOL     OW56461   2.566   2.491   3.359
84855SOL    HW156462   2.625   2.520   3.428
84855SOL    HW256463   2.604   2.409   3.327
84856SOL     OW56464  14.313   7.058   7.827
84856SOL    HW156465  14.233   7.055   7.879
84856SOL    HW256466  14.362   7.132   7.863
84857SOL     OW56467   9.293  11.094   5.422
84857SOL    HW156468   9.351  11.020   5.405
84857SOL    HW256469   9.219  11.081   5.362
84858SOL     OW56470   5.967   1.107  14.411
84858SOL    HW156471   6.049   1.124  14.456
84858SOL    HW256472   5.903   1.096  14.481
84859SOL     OW56473   3.452  13.625  10.419
84859SOL    HW156474   3.367  13.600  10.383
84859SOL    HW256475   3.442  13.612  10.514
84860SOL     OW56476   8.440  14.411   6.495
84860SOL    HW156477   8.457  14.415   6.589
84860SOL    HW256478   8.395  14.327   6.482
84861SOL     OW56479   4.141  14.292  14.056
84861SOL    HW156480   4.231  14.325  14.059
84861SOL    HW256481   4.150  14.197  14.057
84862SOL     OW56482   0.197   8.507  12.843
84862SOL    HW156483   0.230   8.595  12.861
84862SOL    HW256484   0.272   8.461  12.804
84863SOL     OW56485  11.198   9.798  10.463
84863SOL    HW156486  11.203   9.881  10.416
84863SOL    HW256487  11.251   9.738  10.410
84864SOL     OW56488   4.659  10.199   6.857
84864SOL    HW156489   4.611  10.121   6.829
84864SOL    HW256490   4.718  10.218   6.784
84865SOL     OW56491   3.731   9.074   5.425
84865SOL    HW156492   3.729   9.141   5.492
84865SOL    HW256493   3.729   9.122   5.342
84866SOL     OW56494  10.612   5.974   7.074
84866SOL    HW156495  10.678   5.964   7.143
84866SOL    HW256496  10.660   6.012   7.000
84867SOL     OW56497   6.915   8.198   4.394
84867SOL    HW156498   6.959   8.141   4.458
84867SOL    HW256499   6.823   8.200   4.423
84868SOL     OW56500   6.159   8.058   5.196
84868SOL    HW156501   6.238   8.097   5.233
84868SOL    HW256502   6.103   8.042   5.272
84869SOL     OW56503  13.325  12.641   1.000
84869SOL    HW156504  13.383  12.608   1.068
84869SOL    HW256505  13.358  12.602   0.919
84870SOL     OW56506  10.521   7.154   5.644
84870SOL    HW156507  10.616   7.143   5.634
84870SOL    HW256508  10.512   7.212   5.720
84871SOL     OW56509   4.936   3.114  10.874
84871SOL    HW156510   4.947   3.030  10.830
84871SOL    HW256511   4.939   3.093  10.967
84872SOL     OW56512   8.692  11.419   0.841
84872SOL    HW156513   8.691  11.448   0.750
84872SOL    HW256514   8.675  11.499   0.892
84873SOL     OW56515  11.200  11.998   8.194
84873SOL    HW156516  11.133  11.991   8.125
84873SOL    HW256517  11.164  12.063   8.255
84874SOL     OW56518  10.372  13.160  13.137
84874SOL    HW156519  10.420  13.236  13.168
84874SOL    HW256520  10.299  13.196  13.087
84875SOL     OW56521   8.311   1.226   0.503
84875SOL    HW156522   8.252   1.228   0.427
84875SOL    HW256523   8.384   1.172   0.474
84876SOL     OW56524   7.933   3.714   6.606
84876SOL    HW156525   7.872   3.764   6.551
84876SOL    HW256526   8.014   3.764   6.602
84877SOL     OW56527  11.967   1.320  14.551
84877SOL    HW156528  11.923   1.375  14.617
84877SOL    HW256529  11.961   1.371  14.470
84878SOL     OW56530   9.956  12.917   6.330
84878SOL    HW156531   9.931  12.861   6.256
84878SOL    HW256532  10.050  12.931   6.319
84879SOL     OW56533   1.749  10.247   0.478
84879SOL    HW156534   1.728  10.264   0.386
84879SOL    HW256535   1.780  10.332   0.510
84880SOL     OW56536   1.216   4.561   4.376
84880SOL    HW156537   1.193   4.483   4.425
84880SOL    HW256538   1.140   4.579   4.321
84881SOL     OW56539   9.934  11.872   6.729
84881SOL    HW156540  10.027  11.885   6.750
84881SOL    HW256541   9.922  11.914   6.644
84882SOL     OW56542  10.958  11.145   4.942
84882SOL    HW156543  10.965  11.229   4.895
84882SOL    HW256544  10.926  11.169   5.029
84883SOL     OW56545  12.081   4.455   9.677
84883SOL    HW156546  12.073   4.497   9.762
84883SOL    HW256547  12.049   4.521   9.615
84884SOL     OW56548   6.304  10.623  11.526
84884SOL    HW156549   6.382  10.638  11.580
84884SOL    HW256550   6.290  10.706  11.481
84885SOL     OW56551   0.639  10.471   0.599
84885SOL    HW156552   0.625  10.411   0.672
84885SOL    HW256553   0.551  10.494   0.570
84886SOL     OW56554   4.793   6.052  14.297
84886SOL    HW156555   4.757   6.076  14.382
84886SOL    HW256556   4.718   6.048  14.238
84887SOL     OW56557   4.585   0.879   1.937
84887SOL    HW156558   4.588   0.975   1.945
84887SOL    HW256559   4.637   0.848   2.011
84888SOL     OW56560   9.302  14.484   6.077
84888SOL    HW156561   9.255  14.532   6.010
84888SOL    HW256562   9.395  14.495   6.055
84889SOL     OW56563  12.561  14.380   5.423
84889SOL    HW156564  12.585  14.465   5.386
84889SOL    HW256565  12.513  14.400   5.503
84890SOL     OW56566   7.643   0.109   6.963
84890SOL    HW156567   7.678   0.147   7.043
84890SOL    HW256568   7.677   0.019   6.962
84891SOL     OW56569  10.362  14.412  10.254
84891SOL    HW156570  10.270  14.387  10.253
84891SOL    HW256571  10.394  14.382  10.339
84892SOL     OW56572  14.223  10.074   8.301
84892SOL    HW156573  14.228  10.039   8.390
84892SOL    HW256574  14.139  10.043   8.267
84893SOL     OW56575   6.521   0.680   1.989
84893SOL    HW156576   6.456   0.722   1.932
84893SOL    HW256577   6.468   0.632   2.053
84894SOL     OW56578   8.401   4.014  13.460
84894SOL    HW156579   8.385   3.956  13.385
84894SOL    HW256580   8.487   3.988  13.492
84895SOL     OW56581   8.321  11.791   1.400
84895SOL    HW156582   8.234  11.777   1.438
84895SOL    HW256583   8.351  11.873   1.440
84896SOL     OW56584   1.276   8.408   3.714
84896SOL    HW156585   1.221   8.331   3.699
84896SOL    HW256586   1.330   8.384   3.790
84897SOL     OW56587   4.097  12.849  12.300
84897SOL    HW156588   4.164  12.902  12.257
84897SOL    HW256589   4.077  12.780  12.237
84898SOL     OW56590  14.803  12.352   9.930
84898SOL    HW156591  14.874  12.301   9.890
84898SOL    HW256592  14.812  12.335  10.024
84899SOL     OW56593   3.064   5.319   0.127
84899SOL    HW156594   3.021   5.234   0.133
84899SOL    HW256595   3.120   5.323   0.205
84900SOL     OW56596   8.826  11.896   6.283
84900SOL    HW156597   8.882  11.952   6.230
84900SOL    HW256598   8.782  11.839   6.220
84901SOL     OW56599   7.682   2.918  10.867
84901SOL    HW156600   7.611   2.867  10.828
84901SOL    HW256601   7.665   3.008  10.838
84902SOL     OW56602  12.031   8.478  10.281
84902SOL    HW156603  12.033   8.385  10.261
84902SOL    HW256604  11.956   8.489  10.339
84903SOL     OW56605   3.054   9.893   7.654
84903SOL    HW156606   2.978   9.839   7.674
84903SOL    HW256607   3.040   9.973   7.703
84904SOL     OW56608   5.434  11.894   0.368
84904SOL    HW156609   5.452  11.859   0.455
84904SOL    HW256610   5.444  11.818   0.310
84905SOL     OW56611   0.808  12.776   2.358
84905SOL    HW156612   0.899  12.759   2.331
84905SOL    HW256613   0.797  12.870   2.345
84906SOL     OW56614   3.741   3.622   8.134
84906SOL    HW156615   3.656   3.658   8.160
84906SOL    HW256616   3.751   3.646   8.042
84907SOL     OW56617  14.058   1.561   6.811
84907SOL    HW156618  14.015   1.505   6.747
84907SOL    HW256619  14.094   1.501   6.876
84908SOL     OW56620  10.085   9.150   9.649
84908SOL    HW156621  10.039   9.210   9.708
84908SOL    HW256622  10.087   9.067   9.697
84909SOL     OW56623  11.888   1.650   2.565
84909SOL    HW156624  11.805   1.684   2.598
84909SOL    HW256625  11.913   1.709   2.495
84910SOL     OW56626   5.207  12.388  12.274
84910SOL    HW156627   5.262  12.312  12.255
84910SOL    HW256628   5.151  12.360  12.346
84911SOL     OW56629   7.166  10.522  14.340
84911SOL    HW156630   7.105  10.485  14.275
84911SOL    HW256631   7.109  10.559  14.407
84912SOL     OW56632  11.217   8.148  13.612
84912SOL    HW156633  11.248   8.090  13.681
84912SOL    HW256634  11.125   8.163  13.633
84913SOL     OW56635   9.096  10.258   6.331
84913SOL    HW156636   9.187  10.286   6.319
84913SOL    HW256637   9.044  10.336   6.313
84914SOL     OW56638   2.348  13.100   0.001
84914SOL    HW156639   2.394  13.027  14.847
84914SOL    HW256640   2.393  13.112   0.085
84915SOL     OW56641  12.346   1.604   8.976
84915SOL    HW156642  12.388   1.657   8.908
84915SOL    HW256643  12.410   1.535   8.996
84916SOL     OW56644  13.835   7.395   5.109
84916SOL    HW156645  13.786   7.360   5.035
84916SOL    HW256646  13.924   7.362   5.098
84917SOL     OW56647   8.502   3.913   9.056
84917SOL    HW156648   8.424   3.931   9.108
84917SOL    HW256649   8.495   3.820   9.033
84918SOL     OW56650   0.536   1.966  14.848
84918SOL    HW156651   0.607   1.969  14.783
84918SOL    HW256652   0.574   2.003   0.040
84919SOL     OW56653   7.324  13.520   0.946
84919SOL    HW156654   7.364  13.570   0.875
84919SOL    HW256655   7.387  13.525   1.018
84920SOL     OW56656   0.359   0.589  13.100
84920SOL    HW156657   0.453   0.592  13.085
84920SOL    HW256658   0.336   0.496  13.098
84921SOL     OW56659  11.589   7.428   6.280
84921SOL    HW156660  11.649   7.382   6.221
84921SOL    HW256661  11.525   7.363   6.305
84922SOL     OW56662  13.710   8.703  12.824
84922SOL    HW156663  13.754   8.658  12.897
84922SOL    HW256664  13.617   8.685  12.838
84923SOL     OW56665   5.972   3.730   1.183
84923SOL    HW156666   6.050   3.678   1.201
84923SOL    HW256667   5.900   3.666   1.183
84924SOL     OW56668  14.649   4.775   8.844
84924SOL    HW156669  14.692   4.837   8.786
84924SOL    HW256670  14.558   4.774   8.815
84925SOL     OW56671  14.865   4.051  12.858
84925SOL    HW156672  14.815   4.061  12.940
84925SOL    HW256673   0.046   3.988  12.880
84926SOL     OW56674  13.391   0.021   4.717
84926SOL    HW156675  13.423   0.086   4.655
84926SOL    HW256676  13.342   0.071   4.782
84927SOL     OW56677   7.458  11.091   9.106
84927SOL    HW156678   7.542  11.108   9.150
84927SOL    HW256679   7.419  11.020   9.157
84928SOL     OW56680   0.460  10.900  12.037
84928SOL    HW156681   0.424  10.982  12.005
84928SOL    HW256682   0.384  10.843  12.050
84929SOL     OW56683   8.392  14.122  14.532
84929SOL    HW156684   8.467  14.127  14.592
84929SOL    HW256685   8.330  14.064  14.577
84930SOL     OW56686   0.033  14.423   9.876
84930SOL    HW156687   0.011  14.453   9.788
84930SOL    HW256688  14.875  14.339   9.884
84931SOL     OW56689  12.662  11.403  10.315
84931SOL    HW156690  12.595  11.363  10.259
84931SOL    HW256691  12.707  11.465  10.258
84932SOL     OW56692   2.823   9.134   3.469
84932SOL    HW156693   2.786   9.169   3.550
84932SOL    HW256694   2.870   9.208   3.430
84933SOL     OW56695   3.707   0.444  13.845
84933SOL    HW156696   3.654   0.481  13.775
84933SOL    HW256697   3.798   0.460  13.819
84934SOL     OW56698  10.771   0.316   1.539
84934SOL    HW156699  10.823   0.266   1.603
84934SOL    HW256700  10.796   0.407   1.556
84935SOL     OW56701   8.930   7.081  10.500
84935SOL    HW156702   8.835   7.092  10.497
84935SOL    HW256703   8.943   6.999  10.547
84936SOL     OW56704   0.275   8.772   5.539
84936SOL    HW156705   0.280   8.841   5.473
84936SOL    HW256706   0.205   8.801   5.598
84937SOL     OW56707   3.009   0.683  11.422
84937SOL    HW156708   3.073   0.754  11.430
84937SOL    HW256709   2.966   0.681  11.508
84938SOL     OW56710   7.955   5.853  14.002
84938SOL    HW156711   7.982   5.804  14.079
84938SOL    HW256712   8.033   5.901  13.975
84939SOL     OW56713   4.219  14.000  12.198
84939SOL    HW156714   4.308  14.007  12.232
84939SOL    HW256715   4.224  13.929  12.133
84940SOL     OW56716   5.715   0.664   9.320
84940SOL    HW156717   5.804   0.673   9.287
84940SOL    HW256718   5.681   0.585   9.277
84941SOL     OW56719   1.464   3.518   7.849
84941SOL    HW156720   1.373   3.508   7.876
84941SOL    HW256721   1.468   3.604   7.806
84942SOL     OW56722   9.970   0.958  12.687
84942SOL    HW156723   9.895   1.016  12.694
84942SOL    HW256724   9.939   0.885  12.634
84943SOL     OW56725   4.390   3.939   9.457
84943SOL    HW156726   4.378   3.938   9.552
84943SOL    HW256727   4.400   3.847   9.433
84944SOL     OW56728  10.948   8.331   0.415
84944SOL    HW156729  10.948   8.235   0.409
84944SOL    HW256730  10.964   8.361   0.326
84945SOL     OW56731   1.665  13.692   1.787
84945SOL    HW156732   1.741  13.750   1.791
84945SOL    HW256733   1.615  13.723   1.712
84946SOL     OW56734   6.428   0.540   2.202
84946SOL    HW156735   6.343   0.565   2.237
84946SOL    HW256736   6.457   0.468   2.259
84947SOL     OW56737   3.398   7.776  10.508
84947SOL    HW156738   3.452   7.835  10.456
84947SOL    HW256739   3.372   7.707  10.447
84948SOL     OW56740  12.398   0.374   5.088
84948SOL    HW156741  12.349   0.300   5.123
84948SOL    HW256742  12.386   0.444   5.152
84949SOL     OW56743  13.751  12.710   0.869
84949SOL    HW156744  13.785  12.798   0.852
84949SOL    HW256745  13.657  12.717   0.851
84950SOL     OW56746  11.775   3.703   4.806
84950SOL    HW156747  11.720   3.779   4.822
84950SOL    HW256748  11.849   3.736   4.755
84951SOL     OW56749   4.299   4.275   9.098
84951SOL    HW156750   4.353   4.206   9.059
84951SOL    HW256751   4.316   4.352   9.044
84952SOL     OW56752  11.309   3.390   6.452
84952SOL    HW156753  11.374   3.430   6.394
84952SOL    HW256754  11.225   3.424   6.421
84953SOL     OW56755  12.466   8.840   7.300
84953SOL    HW156756  12.504   8.864   7.216
84953SOL    HW256757  12.373   8.857   7.291
84954SOL     OW56758  11.402  13.969   9.465
84954SOL    HW156759  11.369  13.920   9.390
84954SOL    HW256760  11.331  13.966   9.529
84955SOL     OW56761   7.493  12.182  10.272
84955SOL    HW156762   7.509  12.159  10.363
84955SOL    HW256763   7.409  12.141  10.251
84956SOL     OW56764   8.826   4.478  10.907
84956SOL    HW156765   8.898   4.527  10.946
84956SOL    HW256766   8.868   4.405  10.862
84957SOL     OW56767   8.933  14.494   6.139
84957SOL    HW156768   8.885  14.435   6.081
84957SOL    HW256769   8.922  14.456   6.226
84958SOL     OW56770  10.792  11.923   0.871
84958SOL    HW156771  10.775  12.006   0.916
84958SOL    HW256772  10.737  11.859   0.915
84959SOL     OW56773   2.084  14.523   3.253
84959SOL    HW156774   2.006  14.573   3.230
84959SOL    HW256775   2.070  14.436   3.214
84960SOL     OW56776   3.930  11.663  10.740
84960SOL    HW156777   4.017  11.698  10.760
84960SOL    HW256778   3.942  11.613  10.659
84961SOL     OW56779   1.525   7.448   3.743
84961SOL    HW156780   1.459   7.380   3.761
84961SOL    HW256781   1.596   7.428   3.804
84962SOL     OW56782  13.027  13.871  12.552
84962SOL    HW156783  13.003  13.820  12.474
84962SOL    HW256784  13.064  13.806  12.612
84963SOL     OW56785   8.812   5.724  12.315
84963SOL    HW156786   8.825   5.786  12.386
84963SOL    HW256787   8.867   5.649  12.338
84964SOL     OW56788  13.963   9.836   3.972
84964SOL    HW156789  13.993   9.913   4.021
84964SOL    HW256790  13.982   9.856   3.880
84965SOL     OW56791   5.287   5.937   4.755
84965SOL    HW156792   5.341   5.867   4.791
84965SOL    HW256793   5.320   6.016   4.797
84966SOL     OW56794  10.559   8.251  12.604
84966SOL    HW156795  10.549   8.159  12.626
84966SOL    HW256796  10.469   8.285  12.600
84967SOL     OW56797   7.574   8.077   2.796
84967SOL    HW156798   7.627   8.111   2.868
84967SOL    HW256799   7.485   8.107   2.815
84968SOL     OW56800   6.228  10.725  12.391
84968SOL    HW156801   6.317  10.758  12.378
84968SOL    HW256802   6.171  10.801  12.380
84969SOL     OW56803   3.568  12.162   6.217
84969SOL    HW156804   3.663  12.160   6.207
84969SOL    HW256805   3.545  12.074   6.245
84970SOL     OW56806  10.139   5.209   1.529
84970SOL    HW156807  10.079   5.135   1.520
84970SOL    HW256808  10.083   5.284   1.548
84971SOL     OW56809   3.371   3.721   7.255
84971SOL    HW156810   3.454   3.674   7.246
84971SOL    HW256811   3.397   3.814   7.252
84972SOL     OW56812  13.981  10.408   8.225
84972SOL    HW156813  13.913  10.388   8.162
84972SOL    HW256814  14.057  10.356   8.196
84973SOL     OW56815  11.949   1.755   4.303
84973SOL    HW156816  11.871   1.749   4.249
84973SOL    HW256817  11.930   1.700   4.379
84974SOL     OW56818   0.599   7.459   8.982
84974SOL    HW156819   0.587   7.428   8.892
84974SOL    HW256820   0.679   7.512   8.979
84975SOL     OW56821   3.714   8.000  12.711
84975SOL    HW156822   3.743   7.915  12.743
84975SOL    HW256823   3.669   7.981  12.628
84976SOL     OW56824  14.267   0.759  10.433
84976SOL    HW156825  14.286   0.851  10.416
84976SOL    HW256826  14.319   0.711  10.368
84977SOL     OW56827  10.933   5.743   0.253
84977SOL    HW156828  10.878   5.749   0.175
84977SOL    HW256829  10.974   5.657   0.248
84978SOL     OW56830   5.522  12.720   2.266
84978SOL    HW156831   5.607  12.764   2.266
84978SOL    HW256832   5.465  12.776   2.318
84979SOL     OW56833  13.162   9.881   1.041
84979SOL    HW156834  13.235   9.859   0.983
84979SOL    HW256835  13.199   9.879   1.129
84980SOL     OW56836  12.352   0.235   6.568
84980SOL    HW156837  12.427   0.188   6.532
84980SOL    HW256838  12.322   0.180   6.641
84981SOL     OW56839  11.018  12.658  13.014
84981SOL    HW156840  10.967  12.644  13.094
84981SOL    HW256841  11.099  12.608  13.029
84982SOL     OW56842   9.392  10.392   1.469
84982SOL    HW156843   9.397  10.322   1.534
84982SOL    HW256844   9.421  10.470   1.515
84983SOL     OW56845   1.220   3.322  13.301
84983SOL    HW156846   1.218   3.408  13.343
84983SOL    HW256847   1.199   3.261  13.372
84984SOL     OW56848   9.525   7.610   2.529
84984SOL    HW156849   9.595   7.587   2.591
84984SOL    HW256850   9.567   7.670   2.467
84985SOL     OW56851  14.811   0.766  13.505
84985SOL    HW156852  14.750   0.773  13.432
84985SOL    HW256853  14.783   0.689  13.553
84986SOL     OW56854   9.090   6.228  11.244
84986SOL    HW156855   9.100   6.164  11.173
84986SOL    HW256856   9.170   6.219  11.296
84987SOL     OW56857   9.472  13.384  12.039
84987SOL    HW156858   9.479  13.294  12.072
84987SOL    HW256859   9.550  13.397  11.986
84988SOL     OW56860   9.988   5.685   6.867
84988SOL    HW156861   9.935   5.712   6.941
84988SOL    HW256862  10.047   5.758   6.851
84989SOL     OW56863   5.515   3.169   0.561
84989SOL    HW156864   5.570   3.245   0.545
84989SOL    HW256865   5.520   3.155   0.656
84990SOL     OW56866   2.354   3.278  12.396
84990SOL    HW156867   2.348   3.288  12.491
84990SOL    HW256868   2.265   3.257  12.369
84991SOL     OW56869   6.078   2.232  10.254
84991SOL    HW156870   6.129   2.191  10.324
84991SOL    HW256871   6.144   2.260  10.190
84992SOL     OW56872   4.550   8.917  11.421
84992SOL    HW156873   4.475   8.889  11.473
84992SOL    HW256874   4.554   8.855  11.349
84993SOL     OW56875   2.859  11.313  13.797
84993SOL    HW156876   2.812  11.380  13.845
84993SOL    HW256877   2.931  11.359  13.754
84994SOL     OW56878  14.847  13.706   5.605
84994SOL    HW156879   0.027  13.678   5.544
84994SOL    HW256880  14.873  13.669   5.689
84995SOL     OW56881   7.472  12.517  14.703
84995SOL    HW156882   7.480  12.493  14.795
84995SOL    HW256883   7.485  12.612  14.701
84996SOL     OW56884   5.377   7.281   8.674
84996SOL    HW156885   5.336   7.334   8.742
84996SOL    HW256886   5.441   7.228   8.720
84997SOL     OW56887  13.338   1.583   2.085
84997SOL    HW156888  13.270   1.527   2.048
84997SOL    HW256889  13.325   1.578   2.180
84998SOL     OW56890   5.826   5.539  12.974
84998SOL    HW156891   5.860   5.628  12.968
84998SOL    HW256892   5.776   5.527  12.893
84999SOL     OW56893   1.383  11.927   9.442
84999SOL    HW156894   1.373  11.918   9.537
84999SOL    HW256895   1.321  11.996   9.419
85000SOL     OW56896   3.679  14.394  11.237
85000SOL    HW156897   3.749  14.332  11.256
85000SOL    HW256898   3.656  14.377  11.146
85001SOL     OW56899   9.872  14.036  11.754
85001SOL    HW156900   9.793  14.007  11.799
85001SOL    HW256901   9.841  14.072  11.671
85002SOL     OW56902   2.984   6.074   1.291
85002SOL    HW156903   2.987   6.050   1.198
85002SOL    HW256904   2.982   6.170   1.290
85003SOL     OW56905   4.188   3.759  12.114
85003SOL    HW156906   4.129   3.834  12.114
85003SOL    HW256907   4.152   3.699  12.048
85004SOL     OW56908  11.754   1.286  10.054
85004SOL    HW156909  11.662   1.277  10.080
85004SOL    HW256910  11.750   1.306   9.960
85005SOL     OW56911  13.300  13.302   8.123
85005SOL    HW156912  13.260  13.222   8.089
85005SOL    HW256913  13.326  13.350   8.045
85006SOL     OW56914  10.804  12.520   9.068
85006SOL    HW156915  10.812  12.437   9.113
85006SOL    HW256916  10.864  12.513   8.994
85007SOL     OW56917   3.401   3.777  10.514
85007SOL    HW156918   3.313   3.811  10.526
85007SOL    HW256919   3.393   3.683  10.531
85008SOL     OW56920   0.083   1.685   3.239
85008SOL    HW156921   0.133   1.728   3.309
85008SOL    HW256922   0.014   1.638   3.285
85009SOL     OW56923   3.600  12.910   7.984
85009SOL    HW156924   3.626  12.980   8.044
85009SOL    HW256925   3.660  12.919   7.910
85010SOL     OW56926  11.984   9.787   7.640
85010SOL    HW156927  12.056   9.849   7.651
85010SOL    HW256928  11.975   9.777   7.546
85011SOL     OW56929  11.616   8.559  11.052
85011SOL    HW156930  11.661   8.478  11.029
85011SOL    HW256931  11.599   8.602  10.969
85012SOL     OW56932   5.194  12.655   7.720
85012SOL    HW156933   5.200  12.617   7.633
85012SOL    HW256934   5.208  12.581   7.779
85013SOL     OW56935   6.373   1.778   0.626
85013SOL    HW156936   6.384   1.688   0.657
85013SOL    HW256937   6.455   1.799   0.583
85014SOL     OW56938   4.894  12.203   4.570
85014SOL    HW156939   4.932  12.152   4.498
85014SOL    HW256940   4.824  12.254   4.530
85015SOL     OW56941  11.953  12.701  14.025
85015SOL    HW156942  11.976  12.765  14.093
85015SOL    HW256943  11.964  12.616  14.067
85016SOL     OW56944   4.625   8.998   0.217
85016SOL    HW156945   4.588   9.087   0.217
85016SOL    HW256946   4.705   9.006   0.165
85017SOL     OW56947  10.921  14.698  10.413
85017SOL    HW156948  10.983  14.629  10.436
85017SOL    HW256949  10.974  14.768  10.376
85018SOL     OW56950   2.707   3.534  12.800
85018SOL    HW156951   2.658   3.547  12.719
85018SOL    HW256952   2.643   3.498  12.861
85019SOL     OW56953   3.552   3.113  13.069
85019SOL    HW156954   3.507   3.032  13.093
85019SOL    HW256955   3.645   3.090  13.069
85020SOL     OW56956  13.594  10.960  10.982
85020SOL    HW156957  13.514  10.921  10.947
85020SOL    HW256958  13.664  10.930  10.925
85021SOL     OW56959  14.414   3.487  11.830
85021SOL    HW156960  14.431   3.401  11.869
85021SOL    HW256961  14.414   3.470  11.735
85022SOL     OW56962   2.209   0.457  10.106
85022SOL    HW156963   2.182   0.533  10.158
85022SOL    HW256964   2.281   0.489  10.052
85023SOL     OW56965   3.229   2.843   4.640
85023SOL    HW156966   3.300   2.875   4.696
85023SOL    HW256967   3.202   2.919   4.588
85024SOL     OW56968   6.471   9.462   5.194
85024SOL    HW156969   6.541   9.491   5.135
85024SOL    HW256970   6.511   9.392   5.246
85025SOL     OW56971   6.979   8.416   3.880
85025SOL    HW156972   7.038   8.491   3.889
85025SOL    HW256973   6.903   8.438   3.934
85026SOL     OW56974  14.160   9.572   7.780
85026SOL    HW156975  14.202   9.604   7.860
85026SOL    HW256976  14.085   9.630   7.768
85027SOL     OW56977   4.669   9.101   6.888
85027SOL    HW156978   4.639   9.145   6.968
85027SOL    HW256979   4.762   9.123   6.882
85028SOL     OW56980   3.253   5.500   4.442
85028SOL    HW156981   3.270   5.455   4.360
85028SOL    HW256982   3.183   5.449   4.483
85029SOL     OW56983   1.893   3.878  12.153
85029SOL    HW156984   1.910   3.809  12.088
85029SOL    HW256985   1.964   3.941  12.139
85030SOL     OW56986  11.163  14.189   9.405
85030SOL    HW156987  11.239  14.241   9.431
85030SOL    HW256988  11.141  14.137   9.482
85031SOL     OW56989  10.342   1.826   1.888
85031SOL    HW156990  10.434   1.851   1.896
85031SOL    HW256991  10.339   1.764   1.816
85032SOL     OW56992   4.858  11.079  10.067
85032SOL    HW156993   4.830  10.987  10.069
85032SOL    HW256994   4.929  11.083  10.131
85033SOL     OW56995   9.790   7.022   2.268
85033SOL    HW156996   9.723   7.010   2.200
85033SOL    HW256997   9.820   7.112   2.258
85034SOL     OW56998   6.785   3.338  12.424
85034SOL    HW156999   6.857   3.310  12.368
85034SOL    HW257000   6.707   3.330  12.369
85035SOL     OW57001   3.867  10.370   2.080
85035SOL    HW157002   3.882  10.457   2.117
85035SOL    HW257003   3.889  10.310   2.152
85036SOL     OW57004   8.664   6.042  13.623
85036SOL    HW157005   8.683   5.980  13.693
85036SOL    HW257006   8.643   5.986  13.548
85037SOL     OW57007  13.620   2.778   0.292
85037SOL    HW157008  13.587   2.692   0.268
85037SOL    HW257009  13.609   2.831   0.212
85038SOL     OW57010   2.032   7.319  10.775
85038SOL    HW157011   1.983   7.339  10.695
85038SOL    HW257012   2.092   7.249  10.749
85039SOL     OW57013  12.194  13.165   3.291
85039SOL    HW157014  12.276  13.119   3.275
85039SOL    HW257015  12.221  13.253   3.318
85040SOL     OW57016   1.275  10.167  10.247
85040SOL    HW157017   1.224  10.125  10.316
85040SOL    HW257018   1.324  10.236  10.291
85041SOL     OW57019   1.511   5.071  10.141
85041SOL    HW157020   1.490   5.162  10.163
85041SOL    HW257021   1.442   5.044  10.080
85042SOL     OW57022   9.778   3.618   3.322
85042SOL    HW157023   9.815   3.690   3.373
85042SOL    HW257024   9.744   3.557   3.389
85043SOL     OW57025  10.037   0.906   5.687
85043SOL    HW157026  10.062   0.948   5.606
85043SOL    HW257027  10.042   0.812   5.669
85044SOL     OW57028   6.991  11.396  13.247
85044SOL    HW157029   6.966  11.304  13.242
85044SOL    HW257030   7.085  11.395  13.264
85045SOL     OW57031  14.200   8.383   1.314
85045SOL    HW157032  14.214   8.316   1.247
85045SOL    HW257033  14.242   8.348   1.393
85046SOL     OW57034  10.792   0.489  14.138
85046SOL    HW157035  10.715   0.432  14.149
85046SOL    HW257036  10.810   0.485  14.044
85047SOL     OW57037  12.452   5.682   7.099
85047SOL    HW157038  12.482   5.602   7.057
85047SOL    HW257039  12.465   5.750   7.032
85048SOL     OW57040   9.274  12.629  12.141
85048SOL    HW157041   9.264  12.572  12.065
85048SOL    HW257042   9.239  12.713  12.113
85049SOL     OW57043   3.534   2.457   3.294
85049SOL    HW157044   3.514   2.550   3.285
85049SOL    HW257045   3.480   2.426   3.367
85050SOL     OW57046   6.248  13.498   4.089
85050SOL    HW157047   6.235  13.532   4.001
85050SOL    HW257048   6.278  13.408   4.076
85051SOL     OW57049   2.428   8.638   9.763
85051SOL    HW157050   2.523   8.642   9.748
85051SOL    HW257051   2.419   8.643   9.858
85052SOL     OW57052  13.242  14.823   8.888
85052SOL    HW157053  13.202  14.737   8.889
85052SOL    HW257054  13.176  14.881   8.928
85053SOL     OW57055   6.830   3.547  14.190
85053SOL    HW157056   6.903   3.586  14.239
85053SOL    HW257057   6.753   3.564  14.245
85054SOL     OW57058   1.128   0.197  11.379
85054SOL    HW157059   1.131   0.181  11.284
85054SOL    HW257060   1.099   0.114  11.416
85055SOL     OW57061  13.659   4.656   5.052
85055SOL    HW157062  13.602   4.581   5.037
85055SOL    HW257063  13.602   4.722   5.091
85056SOL     OW57064   5.069   8.362   8.266
85056SOL    HW157065   5.162   8.370   8.288
85056SOL    HW257066   5.042   8.278   8.304
85057SOL     OW57067   1.377   3.619  10.402
85057SOL    HW157068   1.425   3.658  10.475
85057SOL    HW257069   1.390   3.524  10.412
85058SOL     OW57070   1.459   3.002   4.824
85058SOL    HW157071   1.537   2.948   4.813
85058SOL    HW257072   1.411   2.960   4.895
85059SOL     OW57073  10.069  11.379   6.493
85059SOL    HW157074  10.097  11.309   6.553
85059SOL    HW257075  10.131  11.374   6.420
85060SOL     OW57076  11.405   4.409   8.207
85060SOL    HW157077  11.312   4.388   8.215
85060SOL    HW257078  11.406   4.498   8.172
85061SOL     OW57079   7.948   0.933   5.958
85061SOL    HW157080   7.936   0.934   5.863
85061SOL    HW257081   7.980   1.021   5.978
85062SOL     OW57082   2.025   8.855  13.953
85062SOL    HW157083   1.935   8.825  13.954
85062SOL    HW257084   2.070   8.801  14.017
85063SOL     OW57085   7.396   5.211  13.266
85063SOL    HW157086   7.491   5.219  13.280
85063SOL    HW257087   7.388   5.182  13.175
85064SOL     OW57088   8.128  13.293   6.724
85064SOL    HW157089   8.147  13.200   6.736
85064SOL    HW257090   8.199  13.326   6.668
85065SOL     OW57091   2.974   7.911   8.418
85065SOL    HW157092   2.956   7.824   8.454
85065SOL    HW257093   3.034   7.894   8.345
85066SOL     OW57094   1.279   6.620  12.049
85066SOL    HW157095   1.363   6.664  12.037
85066SOL    HW257096   1.218   6.690  12.071
85067SOL     OW57097  10.546  14.400   5.393
85067SOL    HW157098  10.563  14.493   5.403
85067SOL    HW257099  10.451  14.391   5.406
85068SOL     OW57100   2.213   9.666   4.909
85068SOL    HW157101   2.152   9.607   4.954
85068SOL    HW257102   2.237   9.730   4.975
85069SOL     OW57103   5.356   0.607   2.437
85069SOL    HW157104   5.318   0.526   2.402
85069SOL    HW257105   5.371   0.662   2.359
85070SOL     OW57106   5.892   1.171   9.256
85070SOL    HW157107   5.890   1.266   9.250
85070SOL    HW257108   5.815   1.148   9.308
85071SOL     OW57109   0.940   4.871   2.040
85071SOL    HW157110   0.850   4.885   2.008
85071SOL    HW257111   0.930   4.852   2.133
85072SOL     OW57112   8.066   0.850   0.706
85072SOL    HW157113   8.010   0.926   0.696
85072SOL    HW257114   8.155   0.885   0.702
85073SOL     OW57115   1.430   6.988   1.335
85073SOL    HW157116   1.474   6.916   1.379
85073SOL    HW257117   1.337   6.971   1.349
85074SOL     OW57118   2.799   3.571  13.850
85074SOL    HW157119   2.802   3.485  13.808
85074SOL    HW257120   2.891   3.595  13.860
85075SOL     OW57121   4.758   6.906   8.619
85075SOL    HW157122   4.729   6.851   8.546
85075SOL    HW257123   4.845   6.874   8.641
85076SOL     OW57124  12.903   9.611   5.734
85076SOL    HW157125  12.892   9.669   5.809
85076SOL    HW257126  12.988   9.569   5.748
85077SOL     OW57127   4.190  12.190  10.192
85077SOL    HW157128   4.192  12.273  10.240
85077SOL    HW257129   4.281  12.175  10.166
85078SOL     OW57130  12.451  14.594   1.518
85078SOL    HW157131  12.545  14.584   1.533
85078SOL    HW257132  12.425  14.512   1.474
85079SOL     OW57133  12.726   3.611  10.423
85079SOL    HW157134  12.814   3.576  10.440
85079SOL    HW257135  12.671   3.534  10.414
85080SOL     OW57136   9.434  11.973  10.225
85080SOL    HW157137   9.478  12.057  10.212
85080SOL    HW257138   9.464  11.943  10.310
85081SOL     OW57139   9.578   1.243   3.235
85081SOL    HW157140   9.611   1.168   3.186
85081SOL    HW257141   9.569   1.312   3.170
85082SOL     OW57142   5.745   8.055   3.691
85082SOL    HW157143   5.672   8.084   3.746
85082SOL    HW257144   5.704   7.996   3.627
85083SOL     OW57145  12.529   5.167   7.139
85083SOL    HW157146  12.578   5.233   7.188
85083SOL    HW257147  12.438   5.195   7.145
85084SOL     OW57148   6.854   9.594   5.252
85084SOL    HW157149   6.848   9.526   5.318
85084SOL    HW257150   6.948   9.603   5.235
85085SOL     OW57151  11.934  13.079   0.690
85085SOL    HW157152  11.997  13.092   0.761
85085SOL    HW257153  11.971  13.128   0.617
85086SOL     OW57154   1.051  10.544   9.817
85086SOL    HW157155   1.015  10.631   9.836
85086SOL    HW257156   1.065  10.504   9.903
85087SOL     OW57157   3.482   5.751   6.397
85087SOL    HW157158   3.494   5.816   6.328
85087SOL    HW257159   3.402   5.779   6.442
85088SOL     OW57160   6.006   5.082   9.373
85088SOL    HW157161   5.941   5.120   9.314
85088SOL    HW257162   6.027   5.152   9.434
85089SOL     OW57163  11.699   6.460   1.652
85089SOL    HW157164  11.722   6.542   1.696
85089SOL    HW257165  11.782   6.415   1.640
85090SOL     OW57166  11.524   9.869   4.630
85090SOL    HW157167  11.579   9.801   4.591
85090SOL    HW257168  11.581   9.912   4.694
85091SOL     OW57169   4.179   3.778   0.720
85091SOL    HW157170   4.231   3.701   0.698
85091SOL    HW257171   4.159   3.819   0.636
85092SOL     OW57172   6.828   1.088  10.948
85092SOL    HW157173   6.875   1.027  11.004
85092SOL    HW257174   6.749   1.109  10.998
85093SOL     OW57175   1.908   5.712  14.469
85093SOL    HW157176   1.827   5.663  14.477
85093SOL    HW257177   1.928   5.711  14.375
85094SOL     OW57178  13.965   5.400  13.410
85094SOL    HW157179  14.051   5.365  13.433
85094SOL    HW257180  13.904   5.330  13.433
85095SOL     OW57181   8.784   1.286   8.743
85095SOL    HW157182   8.745   1.327   8.666
85095SOL    HW257183   8.877   1.312   8.739
85096SOL     OW57184  14.392   3.584   3.266
85096SOL    HW157185  14.349   3.630   3.338
85096SOL    HW257186  14.324   3.527   3.231
85097SOL     OW57187  13.787  14.135  10.985
85097SOL    HW157188  13.808  14.078  10.911
85097SOL    HW257189  13.871  14.173  11.010
85098SOL     OW57190   1.939   7.928   2.515
85098SOL    HW157191   1.847   7.924   2.539
85098SOL    HW257192   1.946   7.873   2.437
85099SOL     OW57193   4.639   3.809   7.133
85099SOL    HW157194   4.679   3.840   7.052
85099SOL    HW257195   4.702   3.832   7.201
85100SOL     OW57196  13.273  11.877  14.122
85100SOL    HW157197  13.186  11.860  14.087
85100SOL    HW257198  13.315  11.790  14.126
85101SOL     OW57199  11.304  13.679   3.913
85101SOL    HW157200  11.222  13.634   3.931
85101SOL    HW257201  11.371  13.622   3.950
85102SOL     OW57202  12.202   6.322  12.783
85102SOL    HW157203  12.164   6.251  12.835
85102SOL    HW257204  12.256   6.371  12.845
85103SOL     OW57205   6.788   9.009  12.865
85103SOL    HW157206   6.819   8.977  12.949
85103SOL    HW257207   6.831   9.094  12.853
85104SOL     OW57208   0.265   2.494  10.186
85104SOL    HW157209   0.241   2.580  10.220
85104SOL    HW257210   0.332   2.462  10.246
85105SOL     OW57211   4.304   8.895   4.153
85105SOL    HW157212   4.317   8.801   4.154
85105SOL    HW257213   4.242   8.912   4.223
85106SOL     OW57214  13.148  11.680  12.778
85106SOL    HW157215  13.171  11.606  12.722
85106SOL    HW257216  13.136  11.641  12.865
85107SOL     OW57217  12.060  12.254   1.357
85107SOL    HW157218  12.111  12.275   1.278
85107SOL    HW257219  12.124  12.254   1.428
85108SOL     OW57220  11.577   0.214  13.902
85108SOL    HW157221  11.589   0.204  13.808
85108SOL    HW257222  11.482   0.210  13.915
85109SOL     OW57223   8.856   6.720   8.195
85109SOL    HW157224   8.898   6.660   8.133
85109SOL    HW257225   8.927   6.775   8.227
85110SOL     OW57226   4.215   8.218  14.143
85110SOL    HW157227   4.221   8.294  14.200
85110SOL    HW257228   4.122   8.212  14.121
85111SOL     OW57229  14.839  11.978   4.738
85111SOL    HW157230   0.042  12.003   4.759
85111SOL    HW257231  14.844  11.948   4.647
85112SOL     OW57232   4.265   2.855  12.245
85112SOL    HW157233   4.309   2.848  12.160
85112SOL    HW257234   4.331   2.830  12.309
85113SOL     OW57235  13.620  11.981   3.076
85113SOL    HW157236  13.708  11.986   3.113
85113SOL    HW257237  13.626  12.027   2.993
85114SOL     OW57238   7.515  12.861  13.480
85114SOL    HW157239   7.572  12.917  13.427
85114SOL    HW257240   7.427  12.888  13.456
85115SOL     OW57241   0.363  11.457   2.435
85115SOL    HW157242   0.303  11.461   2.361
85115SOL    HW257243   0.440  11.507   2.407
85116SOL     OW57244  10.219  14.083  14.111
85116SOL    HW157245  10.132  14.064  14.076
85116SOL    HW257246  10.237  14.173  14.082
85117SOL     OW57247   0.969  12.297   1.734
85117SOL    HW157248   0.919  12.362   1.783
85117SOL    HW257249   1.058  12.332   1.732
85118SOL     OW57250  10.104   8.155   4.491
85118SOL    HW157251  10.073   8.219   4.555
85118SOL    HW257252  10.086   8.195   4.406
85119SOL     OW57253   7.585   0.809   9.162
85119SOL    HW157254   7.655   0.762   9.207
85119SOL    HW257255   7.550   0.869   9.228
85120SOL     OW57256   0.776   5.577   7.913
85120SOL    HW157257   0.692   5.620   7.931
85120SOL    HW257258   0.828   5.591   7.992
85121SOL     OW57259  12.143  10.972   8.979
85121SOL    HW157260  12.215  10.942   8.923
85121SOL    HW257261  12.186  10.997   9.061
85122SOL     OW57262  11.391   0.251   1.780
85122SOL    HW157263  11.373   0.297   1.698
85122SOL    HW257264  11.448   0.178   1.755
85123SOL     OW57265   2.256   5.923   9.193
85123SOL    HW157266   2.170   5.937   9.153
85123SOL    HW257267   2.283   5.837   9.162
85124SOL     OW57268   3.183  13.505   6.011
85124SOL    HW157269   3.146  13.579   6.060
85124SOL    HW257270   3.113  13.439   6.011
85125SOL     OW57271   0.156   4.737  13.063
85125SOL    HW157272   0.143   4.738  12.968
85125SOL    HW257273   0.208   4.815  13.081
85126SOL     OW57274   7.905   8.218  13.299
85126SOL    HW157275   7.841   8.288  13.314
85126SOL    HW257276   7.852   8.141  13.279
85127SOL     OW57277   9.071  10.056   1.623
85127SOL    HW157278   9.100  10.146   1.634
85127SOL    HW257279   9.095  10.034   1.532
85128SOL     OW57280  14.511  14.255   8.032
85128SOL    HW157281  14.421  14.286   8.046
85128SOL    HW257282  14.509  14.216   7.944
85129SOL     OW57283   6.003   3.713   5.733
85129SOL    HW157284   6.016   3.799   5.691
85129SOL    HW257285   5.992   3.733   5.826
85130SOL     OW57286   1.412   4.563   0.696
85130SOL    HW157287   1.491   4.604   0.659
85130SOL    HW257288   1.431   4.554   0.789
85131SOL     OW57289   6.483   1.499   9.015
85131SOL    HW157290   6.412   1.534   9.069
85131SOL    HW257291   6.474   1.404   9.023
85132SOL     OW57292  14.359   2.383  13.237
85132SOL    HW157293  14.435   2.351  13.188
85132SOL    HW257294  14.340   2.314  13.301
85133SOL     OW57295  12.783  12.008   0.756
85133SOL    HW157296  12.831  11.930   0.783
85133SOL    HW257297  12.692  11.989   0.779
85134SOL     OW57298  14.732  14.412   9.290
85134SOL    HW157299  14.795  14.345   9.264
85134SOL    HW257300  14.672  14.419   9.216
85135SOL     OW57301  12.631   7.772   3.570
85135SOL    HW157302  12.565   7.734   3.513
85135SOL    HW257303  12.652   7.857   3.531
85136SOL     OW57304  10.071   8.424   7.721
85136SOL    HW157305  10.043   8.419   7.813
85136SOL    HW257306  10.124   8.346   7.707
85137SOL     OW57307   3.478  11.094   1.546
85137SOL    HW157308   3.554  11.114   1.492
85137SOL    HW257309   3.412  11.063   1.484
85138SOL     OW57310   1.820   3.740   7.978
85138SOL    HW157311   1.778   3.785   8.051
85138SOL    HW257312   1.860   3.809   7.926
85139SOL     OW57313   9.211  13.013   6.992
85139SOL    HW157314   9.302  13.041   6.982
85139SOL    HW257315   9.177  13.011   6.902
85140SOL     OW57316   9.745   0.490   1.465
85140SOL    HW157317   9.807   0.441   1.411
85140SOL    HW257318   9.730   0.434   1.541
85141SOL     OW57319  14.838   5.018   7.531
85141SOL    HW157320  14.882   5.094   7.570
85141SOL    HW257321  14.881   4.942   7.571
85142SOL     OW57322   1.559  13.404   9.202
85142SOL    HW157323   1.588  13.418   9.112
85142SOL    HW257324   1.471  13.440   9.206
85143SOL     OW57325  10.674   7.268   4.741
85143SOL    HW157326  10.638   7.357   4.737
85143SOL    HW257327  10.629   7.228   4.816
85144SOL     OW57328   8.695   6.752  12.669
85144SOL    HW157329   8.701   6.837  12.712
85144SOL    HW257330   8.750   6.694  12.722
85145SOL     OW57331   4.031   3.625   7.313
85145SOL    HW157332   4.025   3.608   7.407
85145SOL    HW257333   4.074   3.546   7.277
85146SOL     OW57334   4.821   4.025   7.052
85146SOL    HW157335   4.850   4.107   7.091
85146SOL    HW257336   4.901   3.987   7.014
85147SOL     OW57337   9.789   6.405   6.714
85147SOL    HW157338   9.818   6.314   6.721
85147SOL    HW257339   9.868   6.455   6.693
85148SOL     OW57340  12.234  10.313   1.974
85148SOL    HW157341  12.208  10.319   2.065
85148SOL    HW257342  12.213  10.223   1.948
85149SOL     OW57343   3.473  14.865   3.557
85149SOL    HW157344   3.467  14.812   3.477
85149SOL    HW257345   3.385   0.015   3.568
85150SOL     OW57346   2.537  13.471   4.815
85150SOL    HW157347   2.464  13.426   4.857
85150SOL    HW257348   2.554  13.420   4.736
85151SOL     OW57349   4.223  11.530   2.355
85151SOL    HW157350   4.312  11.508   2.383
85151SOL    HW257351   4.167  11.467   2.399
85152SOL     OW57352   3.623  11.150   0.142
85152SOL    HW157353   3.631  11.072   0.088
85152SOL    HW257354   3.607  11.221   0.079
85153SOL     OW57355   2.123   6.383   5.086
85153SOL    HW157356   2.205   6.432   5.092
85153SOL    HW257357   2.114   6.340   5.172
85154SOL     OW57358  11.556   4.480  13.969
85154SOL    HW157359  11.571   4.418  14.040
85154SOL    HW257360  11.559   4.566  14.010
85155SOL     OW57361  10.364   1.512   9.733
85155SOL    HW157362  10.326   1.427   9.714
85155SOL    HW257363  10.452   1.492   9.766
85156SOL     OW57364  13.166  13.770  11.548
85156SOL    HW157365  13.173  13.683  11.508
85156SOL    HW257366  13.256  13.794  11.571
85157SOL     OW57367   4.118   2.577   1.216
85157SOL    HW157368   4.118   2.507   1.280
85157SOL    HW257369   4.128   2.533   1.132
85158SOL     OW57370  10.359   7.859  12.312
85158SOL    HW157371  10.452   7.833  12.313
85158SOL    HW257372  10.331   7.849  12.403
85159SOL     OW57373   8.009   6.049   7.674
85159SOL    HW157374   7.919   6.017   7.672
85159SOL    HW257375   8.048   6.007   7.750
85160SOL     OW57376   5.588  12.194   7.786
85160SOL    HW157377   5.600  12.141   7.864
85160SOL    HW257378   5.568  12.131   7.717
85161SOL     OW57379   5.460   2.750  10.459
85161SOL    HW157380   5.489   2.807  10.388
85161SOL    HW257381   5.448   2.664  10.418
85162SOL     OW57382  13.514   1.110   6.702
85162SOL    HW157383  13.600   1.108   6.660
85162SOL    HW257384  13.528   1.157   6.784
85163SOL     OW57385  11.983  12.475   1.617
85163SOL    HW157386  12.060  12.529   1.598
85163SOL    HW257387  11.985  12.463   1.712
85164SOL     OW57388   2.978  12.647   2.270
85164SOL    HW157389   2.944  12.734   2.287
85164SOL    HW257390   2.942  12.624   2.184
85165SOL     OW57391   4.193  14.856  13.592
85165SOL    HW157392   4.156  14.813  13.669
85165SOL    HW257393   4.287  14.862  13.610
85166SOL     OW57394   8.479   1.828  14.720
85166SOL    HW157395   8.553   1.860  14.771
85166SOL    HW257396   8.461   1.899  14.658
85167SOL     OW57397   6.471  14.628   3.597
85167SOL    HW157398   6.461  14.564   3.526
85167SOL    HW257399   6.420  14.704   3.568
85168SOL     OW57400   3.942   5.145   5.245
85168SOL    HW157401   3.857   5.178   5.216
85168SOL    HW257402   3.992   5.134   5.163
85169SOL     OW57403  12.601  11.536   0.933
85169SOL    HW157404  12.606  11.463   0.871
85169SOL    HW257405  12.513  11.572   0.922
85170SOL     OW57406   1.355   7.791  11.996
85170SOL    HW157407   1.448   7.768  11.990
85170SOL    HW257408   1.330   7.815  11.907
85171SOL     OW57409  13.704   6.728  12.240
85171SOL    HW157410  13.644   6.661  12.208
85171SOL    HW257411  13.676   6.745  12.330
85172SOL     OW57412   5.076  11.758  11.468
85172SOL    HW157413   5.116  11.844  11.454
85172SOL    HW257414   5.150  11.699  11.486
85173SOL     OW57415  11.414  14.443  10.420
85173SOL    HW157416  11.416  14.538  10.415
85173SOL    HW257417  11.485  14.414  10.362
85174SOL     OW57418   7.873   6.282   6.296
85174SOL    HW157419   7.872   6.300   6.390
85174SOL    HW257420   7.870   6.368   6.255
85175SOL     OW57421   0.820  13.674  14.585
85175SOL    HW157422   0.866  13.637  14.510
85175SOL    HW257423   0.735  13.702  14.550
85176SOL     OW57424   7.467  12.545  13.099
85176SOL    HW157425   7.468  12.472  13.161
85176SOL    HW257426   7.555  12.582  13.104
85177SOL     OW57427   0.423   1.600  14.600
85177SOL    HW157428   0.376   1.525  14.637
85177SOL    HW257429   0.447   1.653  14.677
85178SOL     OW57430  13.598  12.648   7.804
85178SOL    HW157431  13.588  12.742   7.789
85178SOL    HW257432  13.559  12.608   7.726
85179SOL     OW57433   9.769  12.256  13.520
85179SOL    HW157434   9.728  12.342  13.508
85179SOL    HW257435   9.760  12.239  13.614
85180SOL     OW57436  12.258  12.213   1.523
85180SOL    HW157437  12.229  12.191   1.611
85180SOL    HW257438  12.294  12.131   1.488
85181SOL     OW57439   6.059   0.166  14.177
85181SOL    HW157440   6.025   0.189  14.090
85181SOL    HW257441   6.000   0.097  14.207
85182SOL     OW57442   9.159  14.155   1.340
85182SOL    HW157443   9.221  14.095   1.299
85182SOL    HW257444   9.156  14.231   1.281
85183SOL     OW57445  13.792  14.767   0.986
85183SOL    HW157446  13.855  14.705   0.949
85183SOL    HW257447  13.827  14.788   1.073
85184SOL     OW57448   5.270  10.480   9.675
85184SOL    HW157449   5.352  10.504   9.632
85184SOL    HW257450   5.291  10.479   9.768
85185SOL     OW57451  12.918   3.601  13.244
85185SOL    HW157452  12.830   3.624  13.276
85185SOL    HW257453  12.975   3.618  13.319
85186SOL     OW57454   2.448   4.407  13.014
85186SOL    HW157455   2.425   4.338  13.076
85186SOL    HW257456   2.425   4.488  13.060
85187SOL     OW57457   9.593  10.755   4.582
85187SOL    HW157458   9.565  10.708   4.661
85187SOL    HW257459   9.618  10.685   4.521
85188SOL     OW57460  14.750  14.217   9.939
85188SOL    HW157461  14.742  14.188  10.029
85188SOL    HW257462  14.738  14.138   9.886
85189SOL     OW57463   0.586   6.634   0.049
85189SOL    HW157464   0.528   6.659  14.865
85189SOL    HW257465   0.664   6.599   0.006
85190SOL     OW57466   3.690  14.822  12.407
85190SOL    HW157467   3.658   0.008  12.354
85190SOL    HW257468   3.621  14.807  12.472
85191SOL     OW57469   9.276   9.859   0.666
85191SOL    HW157470   9.296   9.899   0.581
85191SOL    HW257471   9.318   9.916   0.730
85192SOL     OW57472   0.122   9.171   0.056
85192SOL    HW157473   0.146   9.224   0.131
85192SOL    HW257474   0.037   9.132   0.079
85193SOL     OW57475   5.895   5.378   7.301
85193SOL    HW157476   5.818   5.325   7.285
85193SOL    HW257477   5.876   5.462   7.260
85194SOL     OW57478   8.728   9.784   4.616
85194SOL    HW157479   8.740   9.865   4.567
85194SOL    HW257480   8.695   9.812   4.701
85195SOL     OW57481   3.787  12.147  10.320
85195SOL    HW157482   3.698  12.133  10.291
85195SOL    HW257483   3.794  12.242  10.330
85196SOL     OW57484   6.441  13.648   0.709
85196SOL    HW157485   6.509  13.715   0.713
85196SOL    HW257486   6.433  13.617   0.800
85197SOL     OW57487  12.900   5.314   1.081
85197SOL    HW157488  12.863   5.275   1.001
85197SOL    HW257489  12.845   5.390   1.098
85198SOL     OW57490   7.986  13.751   7.792
85198SOL    HW157491   7.988  13.664   7.752
85198SOL    HW257492   7.893  13.768   7.807
85199SOL     OW57493  13.753   6.225   0.844
85199SOL    HW157494  13.720   6.264   0.763
85199SOL    HW257495  13.678   6.229   0.904
85200SOL     OW57496   8.751   8.411   2.640
85200SOL    HW157497   8.772   8.425   2.733
85200SOL    HW257498   8.726   8.497   2.608
85201SOL     OW57499   7.279   6.856   5.797
85201SOL    HW157500   7.365   6.889   5.772
85201SOL    HW257501   7.297   6.784   5.858
85202SOL     OW57502   8.253  10.556   8.850
85202SOL    HW157503   8.269  10.463   8.836
85202SOL    HW257504   8.325  10.600   8.805
85203SOL     OW57505   2.016  12.616  12.494
85203SOL    HW157506   2.028  12.523  12.478
85203SOL    HW257507   1.928  12.635  12.461
85204SOL     OW57508  10.843  10.618  12.513
85204SOL    HW157509  10.880  10.540  12.554
85204SOL    HW257510  10.912  10.651  12.456
85205SOL     OW57511   2.105   7.641   3.925
85205SOL    HW157512   2.069   7.552   3.927
85205SOL    HW257513   2.200   7.630   3.934
85206SOL     OW57514   7.954   7.518  11.423
85206SOL    HW157515   7.991   7.498  11.509
85206SOL    HW257516   7.981   7.444  11.368
85207SOL     OW57517   9.502  13.959   3.000
85207SOL    HW157518   9.572  13.901   2.970
85207SOL    HW257519   9.548  14.038   3.030
85208SOL     OW57520   2.435   4.935   9.636
85208SOL    HW157521   2.394   5.017   9.661
85208SOL    HW257522   2.528   4.950   9.651
85209SOL     OW57523   9.859  13.749   0.761
85209SOL    HW157524   9.796  13.699   0.812
85209SOL    HW257525   9.939  13.746   0.813
85210SOL     OW57526   4.187   9.857   6.919
85210SOL    HW157527   4.200   9.775   6.968
85210SOL    HW257528   4.128   9.832   6.848
85211SOL     OW57529   3.216  12.112  14.307
85211SOL    HW157530   3.123  12.100  14.323
85211SOL    HW257531   3.250  12.022  14.301
85212SOL     OW57532  14.162  12.944   5.829
85212SOL    HW157533  14.103  12.876   5.796
85212SOL    HW257534  14.154  12.938   5.924
85213SOL     OW57535   9.643  12.552   5.004
85213SOL    HW157536   9.653  12.641   4.970
85213SOL    HW257537   9.706  12.500   4.953
85214SOL     OW57538   9.555   2.669   7.656
85214SOL    HW157539   9.573   2.578   7.634
85214SOL    HW257540   9.508   2.665   7.739
85215SOL     OW57541   4.236  12.526   2.951
85215SOL    HW157542   4.250  12.455   3.013
85215SOL    HW257543   4.141  12.531   2.941
85216SOL     OW57544  13.631   0.681   9.927
85216SOL    HW157545  13.694   0.739   9.969
85216SOL    HW257546  13.573   0.652   9.997
85217SOL     OW57547  11.872   8.760  13.532
85217SOL    HW157548  11.900   8.669  13.538
85217SOL    HW257549  11.824   8.776  13.614
85218SOL     OW57550  13.688   1.495   6.859
85218SOL    HW157551  13.760   1.463   6.914
85218SOL    HW257552  13.609   1.466   6.904
85219SOL     OW57553   2.922  12.475  13.024
85219SOL    HW157554   2.855  12.464  13.092
85219SOL    HW257555   3.001  12.436  13.062
85220SOL     OW57556  12.507   5.184   9.045
85220SOL    HW157557  12.454   5.194   8.966
85220SOL    HW257558  12.507   5.090   9.064
85221SOL     OW57559   4.455  13.199   2.375
85221SOL    HW157560   4.488  13.169   2.460
85221SOL    HW257561   4.495  13.286   2.364
85222SOL     OW57562   4.687   6.150  11.708
85222SOL    HW157563   4.610   6.193  11.746
85222SOL    HW257564   4.669   6.147  11.614
85223SOL     OW57565  10.806   7.674   9.767
85223SOL    HW157566  10.767   7.758   9.743
85223SOL    HW257567  10.900   7.689   9.763
85224SOL     OW57568  12.580  11.602   3.949
85224SOL    HW157569  12.503  11.594   4.005
85224SOL    HW257570  12.641  11.656   3.999
85225SOL     OW57571  11.722   3.334   9.551
85225SOL    HW157572  11.806   3.296   9.523
85225SOL    HW257573  11.746   3.402   9.614
85226SOL     OW57574   9.680  13.426   7.551
85226SOL    HW157575   9.772  13.400   7.548
85226SOL    HW257576   9.679  13.517   7.523
85227SOL     OW57577   9.535   9.071  14.291
85227SOL    HW157578   9.580   9.055  14.208
85227SOL    HW257579   9.456   9.017  14.286
85228SOL     OW57580   8.886   8.189   9.130
85228SOL    HW157581   8.842   8.211   9.212
85228SOL    HW257582   8.913   8.273   9.093
85229SOL     OW57583   2.412   9.315   1.468
85229SOL    HW157584   2.393   9.329   1.375
85229SOL    HW257585   2.481   9.379   1.488
85230SOL     OW57586   5.192   5.187   0.135
85230SOL    HW157587   5.153   5.239   0.064
85230SOL    HW257588   5.130   5.116   0.149
85231SOL     OW57589  11.713  14.155   3.968
85231SOL    HW157590  11.619  14.142   3.951
85231SOL    HW257591  11.751  14.068   3.959
85232SOL     OW57592   3.143   7.267   1.347
85232SOL    HW157593   3.051   7.257   1.370
85232SOL    HW257594   3.191   7.251   1.428
85233SOL     OW57595   6.020   1.414   0.353
85233SOL    HW157596   5.986   1.503   0.351
85233SOL    HW257597   6.100   1.419   0.405
85234SOL     OW57598  10.371  10.689  13.362
85234SOL    HW157599  10.380  10.602  13.323
85234SOL    HW257600  10.290  10.684  13.413
85235SOL     OW57601  13.654   7.816  10.683
85235SOL    HW157602  13.628   7.908  10.681
85235SOL    HW257603  13.634   7.787  10.772
85236SOL     OW57604   0.360  13.858   2.109
85236SOL    HW157605   0.354  13.866   2.014
85236SOL    HW257606   0.422  13.787   2.124
85237SOL     OW57607   3.643   9.137   3.019
85237SOL    HW157608   3.737   9.155   3.027
85237SOL    HW257609   3.636   9.042   3.029
85238SOL     OW57610  13.887   0.510   3.925
85238SOL    HW157611  13.839   0.584   3.961
85238SOL    HW257612  13.973   0.546   3.903
85239SOL     OW57613   5.994   7.750   4.944
85239SOL    HW157614   5.996   7.722   5.036
85239SOL    HW257615   6.058   7.821   4.939
85240SOL     OW57616   5.715   7.520   3.343
85240SOL    HW157617   5.666   7.472   3.410
85240SOL    HW257618   5.735   7.455   3.276
85241SOL     OW57619  11.975  13.166   1.425
85241SOL    HW157620  11.896  13.177   1.478
85241SOL    HW257621  11.956  13.211   1.343
85242SOL     OW57622  14.335   8.723  10.543
85242SOL    HW157623  14.421   8.765  10.552
85242SOL    HW257624  14.284   8.784  10.489
85243SOL     OW57625  14.589  13.344   7.052
85243SOL    HW157626  14.569  13.351   7.145
85243SOL    HW257627  14.600  13.435   7.023
85244SOL     OW57628   0.597  12.951  10.356
85244SOL    HW157629   0.533  12.886  10.384
85244SOL    HW257630   0.671  12.901  10.323
85245SOL     OW57631  10.016   4.303  14.335
85245SOL    HW157632   9.989   4.298  14.243
85245SOL    HW257633  10.110   4.288  14.333
85246SOL     OW57634  13.925   1.334  12.126
85246SOL    HW157635  13.902   1.289  12.044
85246SOL    HW257636  13.925   1.265  12.192
85247SOL     OW57637   8.664   7.945   1.451
85247SOL    HW157638   8.665   8.018   1.390
85247SOL    HW257639   8.583   7.955   1.500
85248SOL     OW57640   7.762   5.567  13.723
85248SOL    HW157641   7.800   5.654  13.733
85248SOL    HW257642   7.816   5.524  13.657
85249SOL     OW57643   4.367   6.288   4.496
85249SOL    HW157644   4.354   6.195   4.478
85249SOL    HW257645   4.285   6.329   4.470
85250SOL     OW57646  14.832   4.839  11.695
85250SOL    HW157647  14.804   4.764  11.643
85250SOL    HW257648  14.765   4.906  11.678
85251SOL     OW57649  11.903   4.376  10.620
85251SOL    HW157650  11.841   4.338  10.558
85251SOL    HW257651  11.924   4.462  10.583
85252SOL     OW57652   3.181  10.816   9.064
85252SOL    HW157653   3.087  10.813   9.046
85252SOL    HW257654   3.222  10.794   8.980
85253SOL     OW57655   2.187   3.321   7.060
85253SOL    HW157656   2.186   3.250   6.997
85253SOL    HW257657   2.255   3.296   7.123
85254SOL     OW57658  14.497   5.527  10.027
85254SOL    HW157659  14.405   5.550  10.040
85254SOL    HW257660  14.507   5.521   9.932
85255SOL     OW57661  14.864  12.748  10.965
85255SOL    HW157662  14.791  12.796  10.928
85255SOL    HW257663   0.041  12.742  10.894
85256SOL     OW57664  11.822  10.973   1.607
85256SOL    HW157665  11.812  10.967   1.512
85256SOL    HW257666  11.732  10.982   1.640
85257SOL     OW57667   3.049   3.103   3.045
85257SOL    HW157668   3.003   3.184   3.023
85257SOL    HW257669   3.033   3.045   2.970
85258SOL     OW57670  11.006   3.250  11.088
85258SOL    HW157671  10.922   3.268  11.046
85258SOL    HW257672  11.056   3.332  11.080
85259SOL     OW57673  13.752   9.178   8.427
85259SOL    HW157674  13.772   9.247   8.490
85259SOL    HW257675  13.837   9.139   8.407
85260SOL     OW57676   7.175   9.618   4.961
85260SOL    HW157677   7.158   9.587   5.050
85260SOL    HW257678   7.266   9.647   4.963
85261SOL     OW57679   0.331  13.429  13.792
85261SOL    HW157680   0.427  13.420  13.796
85261SOL    HW257681   0.301  13.392  13.875
85262SOL     OW57682   4.634   1.263  10.920
85262SOL    HW157683   4.596   1.350  10.933
85262SOL    HW257684   4.682   1.245  11.000
85263SOL     OW57685  11.781   2.188   2.524
85263SOL    HW157686  11.828   2.143   2.594
85263SOL    HW257687  11.692   2.153   2.529
85264SOL     OW57688   8.669   6.410   9.014
85264SOL    HW157689   8.669   6.364   8.930
85264SOL    HW257690   8.717   6.491   8.997
85265SOL     OW57691   3.633   5.971   7.447
85265SOL    HW157692   3.630   6.066   7.436
85265SOL    HW257693   3.596   5.955   7.534
85266SOL     OW57694   4.177   4.272  11.635
85266SOL    HW157695   4.156   4.190  11.592
85266SOL    HW257696   4.203   4.331  11.564
85267SOL     OW57697   1.546  10.203  12.151
85267SOL    HW157698   1.595  10.123  12.168
85267SOL    HW257699   1.529  10.241  12.237
85268SOL     OW57700   5.115   0.926   9.967
85268SOL    HW157701   5.088   0.920   9.875
85268SOL    HW257702   5.093   1.016   9.993
85269SOL     OW57703  11.347   4.707  12.702
85269SOL    HW157704  11.313   4.786  12.745
85269SOL    HW257705  11.408   4.740  12.637
85270SOL     OW57706   3.230   7.207   1.106
85270SOL    HW157707   3.199   7.225   1.195
85270SOL    HW257708   3.321   7.237   1.106
85271SOL     OW57709   7.266   1.084   6.641
85271SOL    HW157710   7.331   1.029   6.599
85271SOL    HW257711   7.190   1.081   6.583
85272SOL     OW57712  10.979   0.354  10.154
85272SOL    HW157713  10.934   0.378  10.073
85272SOL    HW257714  10.971   0.259  10.159
85273SOL     OW57715   9.416  13.162  14.093
85273SOL    HW157716   9.455  13.084  14.054
85273SOL    HW257717   9.345  13.186  14.034
85274SOL     OW57718  12.075   4.227   3.690
85274SOL    HW157719  12.074   4.248   3.783
85274SOL    HW257720  12.099   4.309   3.647
85275SOL     OW57721  12.928   9.500   6.781
85275SOL    HW157722  12.878   9.422   6.805
85275SOL    HW257723  12.996   9.507   6.848
85276SOL     OW57724   7.002   4.692   3.225
85276SOL    HW157725   7.058   4.616   3.209
85276SOL    HW257726   6.956   4.706   3.142
85277SOL     OW57727  13.007   3.383  12.944
85277SOL    HW157728  13.077   3.444  12.963
85277SOL    HW257729  13.048   3.314  12.892
85278SOL     OW57730   9.736   1.486   6.109
85278SOL    HW157731   9.696   1.497   6.023
85278SOL    HW257732   9.817   1.536   6.104
85279SOL     OW57733   6.221   6.924  14.692
85279SOL    HW157734   6.317   6.927  14.685
85279SOL    HW257735   6.190   6.975  14.617
85280SOL     OW57736   2.000   2.183  13.559
85280SOL    HW157737   2.067   2.135  13.510
85280SOL    HW257738   1.993   2.135  13.642
85281SOL     OW57739  12.344  12.328  10.547
85281SOL    HW157740  12.309  12.346  10.460
85281SOL    HW257741  12.266  12.318  10.602
85282SOL     OW57742   9.168  10.975  10.233
85282SOL    HW157743   9.229  11.032  10.186
85282SOL    HW257744   9.194  10.886  10.209
85283SOL     OW57745   8.988  14.556   3.982
85283SOL    HW157746   8.971  14.520   3.895
85283SOL    HW257747   9.048  14.630   3.967
85284SOL     OW57748  12.573  13.052  10.688
85284SOL    HW157749  12.557  13.146  10.702
85284SOL    HW257750  12.511  13.028  10.619
85285SOL     OW57751   3.867   8.222   7.689
85285SOL    HW157752   3.796   8.236   7.751
85285SOL    HW257753   3.946   8.237   7.739
85286SOL     OW57754  12.999   0.398   3.509
85286SOL    HW157755  13.088   0.415   3.478
85286SOL    HW257756  12.970   0.479   3.549
85287SOL     OW57757  12.484  14.043   6.672
85287SOL    HW157758  12.552  13.991   6.630
85287SOL    HW257759  12.501  14.133   6.644
85288SOL     OW57760  10.304   3.331   5.327
85288SOL    HW157761  10.247   3.285   5.264
85288SOL    HW257762  10.352   3.395   5.274
85289SOL     OW57763   0.971   1.010   8.399
85289SOL    HW157764   0.936   0.961   8.325
85289SOL    HW257765   0.956   1.102   8.376
85290SOL     OW57766  13.699  14.581  13.779
85290SOL    HW157767  13.628  14.624  13.731
85290SOL    HW257768  13.666  14.575  13.869
85291SOL     OW57769   3.255  13.547  13.376
85291SOL    HW157770   3.209  13.464  13.365
85291SOL    HW257771   3.214  13.586  13.454
85292SOL     OW57772   6.241   9.462  12.865
85292SOL    HW157773   6.237   9.518  12.788
85292SOL    HW257774   6.284   9.382  12.834
85293SOL     OW57775  13.867   4.583   9.065
85293SOL    HW157776  13.958   4.576   9.036
85293SOL    HW257777  13.825   4.506   9.027
85294SOL     OW57778   2.361   7.858   3.827
85294SOL    HW157779   2.419   7.815   3.890
85294SOL    HW257780   2.344   7.791   3.761
85295SOL     OW57781   2.879  12.060   4.526
85295SOL    HW157782   2.806  12.095   4.576
85295SOL    HW257783   2.957  12.103   4.563
85296SOL     OW57784   7.295   5.233   5.734
85296SOL    HW157785   7.234   5.243   5.806
85296SOL    HW257786   7.380   5.261   5.769
85297SOL     OW57787   6.928   9.491   8.534
85297SOL    HW157788   6.983   9.413   8.536
85297SOL    HW257789   6.873   9.484   8.612
85298SOL     OW57790   6.881  11.077   0.156
85298SOL    HW157791   6.960  11.024   0.155
85298SOL    HW257792   6.832  11.050   0.078
85299SOL     OW57793   2.804   1.462   8.398
85299SOL    HW157794   2.847   1.533   8.350
85299SOL    HW257795   2.714   1.462   8.367
85300SOL     OW57796  11.569   2.470   5.094
85300SOL    HW157797  11.633   2.413   5.050
85300SOL    HW257798  11.518   2.508   5.023
85301SOL     OW57799   5.867   4.714   9.125
85301SOL    HW157800   5.957   4.747   9.125
85301SOL    HW257801   5.841   4.714   9.033
85302SOL     OW57802   6.352  11.509   4.356
85302SOL    HW157803   6.397  11.428   4.334
85302SOL    HW257804   6.263  11.498   4.323
85303SOL     OW57805   3.685  10.153   6.611
85303SOL    HW157806   3.640  10.227   6.570
85303SOL    HW257807   3.668  10.079   6.552
85304SOL     OW57808  14.110   1.764   3.889
85304SOL    HW157809  14.033   1.708   3.897
85304SOL    HW257810  14.097   1.832   3.954
85305SOL     OW57811   1.559  11.413   0.620
85305SOL    HW157812   1.524  11.334   0.577
85305SOL    HW257813   1.495  11.434   0.687
85306SOL     OW57814   9.230  11.680   7.327
85306SOL    HW157815   9.250  11.764   7.286
85306SOL    HW257816   9.145  11.655   7.290
85307SOL     OW57817   1.309  12.182   9.408
85307SOL    HW157818   1.252  12.203   9.334
85307SOL    HW257819   1.263  12.217   9.484
85308SOL     OW57820  12.465   0.172   2.759
85308SOL    HW157821  12.476   0.125   2.676
85308SOL    HW257822  12.469   0.104   2.825
85309SOL     OW57823  13.852   7.420   6.431
85309SOL    HW157824  13.843   7.509   6.397
85309SOL    HW257825  13.927   7.384   6.383
85310SOL     OW57826   0.814  10.606   1.278
85310SOL    HW157827   0.805  10.607   1.182
85310SOL    HW257828   0.776  10.689   1.306
85311SOL     OW57829   9.855   2.363   9.119
85311SOL    HW157830   9.844   2.331   9.030
85311SOL    HW257831   9.936   2.323   9.150
85312SOL     OW57832  10.068   2.868   6.330
85312SOL    HW157833  10.107   2.918   6.402
85312SOL    HW257834  10.119   2.893   6.253
85313SOL     OW57835   6.183   1.204  11.260
85313SOL    HW157836   6.214   1.122  11.221
85313SOL    HW257837   6.134   1.177  11.338
85314SOL     OW57838   0.965  12.545   7.492
85314SOL    HW157839   1.013  12.549   7.574
85314SOL    HW257840   1.026  12.579   7.427
85315SOL     OW57841   6.280  12.472   0.043
85315SOL    HW157842   6.284  12.543  14.866
85315SOL    HW257843   6.196  12.428   0.026
85316SOL     OW57844   3.447  12.232   2.552
85316SOL    HW157845   3.402  12.312   2.578
85316SOL    HW257846   3.538  12.259   2.538
85317SOL     OW57847   7.696   2.154  14.849
85317SOL    HW157848   7.664   2.124  14.764
85317SOL    HW257849   7.768   2.213  14.828
85318SOL     OW57850   4.144   2.460   5.730
85318SOL    HW157851   4.084   2.509   5.674
85318SOL    HW257852   4.095   2.381   5.754
85319SOL     OW57853  12.943  13.126   8.146
85319SOL    HW157854  12.885  13.126   8.221
85319SOL    HW257855  12.899  13.181   8.081
85320SOL     OW57856   3.006   9.503   8.606
85320SOL    HW157857   3.003   9.423   8.658
85320SOL    HW257858   2.924   9.548   8.626
85321SOL     OW57859   9.265   0.371  10.364
85321SOL    HW157860   9.305   0.413  10.287
85321SOL    HW257861   9.296   0.423  10.438
85322SOL     OW57862  14.238   9.651   8.234
85322SOL    HW157863  14.322   9.669   8.276
85322SOL    HW257864  14.261   9.599   8.157
85323SOL     OW57865   0.033   1.667   8.993
85323SOL    HW157866   0.117   1.695   9.030
85323SOL    HW257867   0.014   1.585   9.038
85324SOL     OW57868   9.642   4.277  14.602
85324SOL    HW157869   9.595   4.214  14.656
85324SOL    HW257870   9.665   4.228  14.522
85325SOL     OW57871  12.226  10.869  10.771
85325SOL    HW157872  12.267  10.828  10.695
85325SOL    HW257873  12.209  10.797  10.832
85326SOL     OW57874   5.396   3.998   3.999
85326SOL    HW157875   5.312   3.997   4.045
85326SOL    HW257876   5.413   4.091   3.983
85327SOL     OW57877   3.849   7.530   8.671
85327SOL    HW157878   3.933   7.494   8.642
85327SOL    HW257879   3.837   7.608   8.616
85328SOL     OW57880  14.579  14.312  10.919
85328SOL    HW157881  14.674  14.322  10.920
85328SOL    HW257882  14.549  14.350  11.002
85329SOL     OW57883   2.441  12.637  12.187
85329SOL    HW157884   2.447  12.733  12.189
85329SOL    HW257885   2.470  12.609  12.273
85330SOL     OW57886  10.475   8.970   6.205
85330SOL    HW157887  10.431   8.984   6.289
85330SOL    HW257888  10.525   9.050   6.191
85331SOL     OW57889   3.716  10.403   8.755
85331SOL    HW157890   3.735  10.400   8.849
85331SOL    HW257891   3.753  10.323   8.720
85332SOL     OW57892   2.552   7.294   8.439
85332SOL    HW157893   2.494   7.248   8.499
85332SOL    HW257894   2.494   7.333   8.374
85333SOL     OW57895   4.884  14.669  12.541
85333SOL    HW157896   4.956  14.732  12.547
85333SOL    HW257897   4.807  14.718  12.570
85334SOL     OW57898   5.866   2.583   0.197
85334SOL    HW157899   5.847   2.668   0.237
85334SOL    HW257900   5.843   2.594   0.105
85335SOL     OW57901   7.954   6.770   9.072
85335SOL    HW157902   7.879   6.725   9.033
85335SOL    HW257903   7.932   6.863   9.068
85336SOL     OW57904  11.976   6.779   9.613
85336SOL    HW157905  11.941   6.843   9.552
85336SOL    HW257906  11.905   6.715   9.624
85337SOL     OW57907   2.046  12.510  12.768
85337SOL    HW157908   2.052  12.547  12.680
85337SOL    HW257909   2.085  12.577  12.825
85338SOL     OW57910   3.700  14.757   8.398
85338SOL    HW157911   3.658  14.787   8.479
85338SOL    HW257912   3.628  14.732   8.341
85339SOL     OW57913  13.327   8.974  10.437
85339SOL    HW157914  13.397   8.914  10.461
85339SOL    HW257915  13.268   8.974  10.512
85340SOL     OW57916   1.088   1.620   3.980
85340SOL    HW157917   1.090   1.699   4.035
85340SOL    HW257918   1.004   1.624   3.934
85341SOL     OW57919   8.704   4.763  10.756
85341SOL    HW157920   8.771   4.712  10.801
85341SOL    HW257921   8.632   4.769  10.819
85342SOL     OW57922   9.126   8.381  10.748
85342SOL    HW157923   9.041   8.379  10.704
85342SOL    HW257924   9.112   8.438  10.824
85343SOL     OW57925   8.974  10.967  10.430
85343SOL    HW157926   8.925  10.887  10.447
85343SOL    HW257927   9.045  10.939  10.372
85344SOL     OW57928   4.914   0.850   8.673
85344SOL    HW157929   4.881   0.825   8.587
85344SOL    HW257930   4.845   0.822   8.734
85345SOL     OW57931   5.904   3.802  13.018
85345SOL    HW157932   5.919   3.776  13.109
85345SOL    HW257933   5.929   3.894  13.014
85346SOL     OW57934  11.045   2.424  10.846
85346SOL    HW157935  11.004   2.493  10.898
85346SOL    HW257936  11.108   2.471  10.791
85347SOL     OW57937  14.176   7.480  12.654
85347SOL    HW157938  14.084   7.498  12.634
85347SOL    HW257939  14.225   7.530  12.589
85348SOL     OW57940   0.310   7.755   1.946
85348SOL    HW157941   0.236   7.798   1.989
85348SOL    HW257942   0.387   7.801   1.979
85349SOL     OW57943   0.008  13.969   2.130
85349SOL    HW157944  14.879  13.939   2.041
85349SOL    HW257945   0.075  14.037   2.121
85350SOL     OW57946  11.067   9.637  11.226
85350SOL    HW157947  11.108   9.720  11.253
85350SOL    HW257948  11.000   9.621  11.293
85351SOL     OW57949  14.597   4.753  14.749
85351SOL    HW157950  14.660   4.722  14.684
85351SOL    HW257951  14.583   4.677  14.806
85352SOL     OW57952   1.477   0.132   5.747
85352SOL    HW157953   1.444   0.144   5.658
85352SOL    HW257954   1.449   0.211   5.794
85353SOL     OW57955   2.569   9.961  10.044
85353SOL    HW157956   2.627   9.985  10.117
85353SOL    HW257957   2.506  10.032  10.039
85354SOL     OW57958  12.823   4.540   0.902
85354SOL    HW157959  12.791   4.629   0.917
85354SOL    HW257960  12.910   4.538   0.941
85355SOL     OW57961   1.975  10.277   8.318
85355SOL    HW157962   2.025  10.236   8.248
85355SOL    HW257963   1.896  10.224   8.325
85356SOL     OW57964  14.224   9.083   6.964
85356SOL    HW157965  14.256   9.024   6.896
85356SOL    HW257966  14.300   9.137   6.986
85357SOL     OW57967   2.990   3.386  12.310
85357SOL    HW157968   2.948   3.421  12.388
85357SOL    HW257969   2.985   3.457  12.246
85358SOL     OW57970  12.262  14.750   7.764
85358SOL    HW157971  12.328  14.760   7.696
85358SOL    HW257972  12.229  14.839   7.779
85359SOL     OW57973   6.369   3.587   2.581
85359SOL    HW157974   6.349   3.611   2.490
85359SOL    HW257975   6.288   3.608   2.629
85360SOL     OW57976   8.420   8.754  12.814
85360SOL    HW157977   8.339   8.741  12.764
85360SOL    HW257978   8.484   8.782  12.748
85361SOL     OW57979   0.398   5.713   6.388
85361SOL    HW157980   0.309   5.727   6.421
85361SOL    HW257981   0.411   5.618   6.394
85362SOL     OW57982   5.590  11.033   3.847
85362SOL    HW157983   5.647  10.988   3.910
85362SOL    HW257984   5.513  10.977   3.840
85363SOL     OW57985   1.653   6.540  12.462
85363SOL    HW157986   1.648   6.453  12.502
85363SOL    HW257987   1.568   6.552  12.420
85364SOL     OW57988   1.219  12.024   0.638
85364SOL    HW157989   1.292  11.988   0.586
85364SOL    HW257990   1.235  12.118   0.641
85365SOL     OW57991  14.283   2.887   6.991
85365SOL    HW157992  14.194   2.911   7.016
85365SOL    HW257993  14.275   2.796   6.960
85366SOL     OW57994   8.540  12.389   0.515
85366SOL    HW157995   8.507  12.380   0.426
85366SOL    HW257996   8.610  12.454   0.508
85367SOL     OW57997  11.492   3.412   9.943
85367SOL    HW157998  11.577   3.438   9.908
85367SOL    HW257999  11.513   3.350  10.013
85368SOL     OW58000  13.560   7.032  14.162
85368SOL    HW158001  13.630   7.079  14.207
85368SOL    HW258002  13.539   7.086  14.086
85369SOL     OW58003   9.513   1.753   6.235
85369SOL    HW158004   9.593   1.776   6.283
85369SOL    HW258005   9.453   1.825   6.254
85370SOL     OW58006   5.824   5.498  10.238
85370SOL    HW158007   5.841   5.404  10.251
85370SOL    HW258008   5.879   5.541  10.304
85371SOL     OW58009  13.277  14.297   5.287
85371SOL    HW158010  13.272  14.234   5.216
85371SOL    HW258011  13.186  14.311   5.314
85372SOL     OW58012  12.156   7.886  13.853
85372SOL    HW158013  12.065   7.881  13.884
85372SOL    HW258014  12.203   7.823  13.908
85373SOL     OW58015   8.001  11.591   6.847
85373SOL    HW158016   8.017  11.510   6.798
85373SOL    HW258017   7.973  11.653   6.780
85374SOL     OW58018   4.741  11.246   5.081
85374SOL    HW158019   4.650  11.242   5.049
85374SOL    HW258020   4.781  11.316   5.030
85375SOL     OW58021   3.682   3.274  14.272
85375SOL    HW158022   3.657   3.198  14.219
85375SOL    HW258023   3.711   3.339  14.209
85376SOL     OW58024   1.900   7.241  11.003
85376SOL    HW158025   1.984   7.255  10.959
85376SOL    HW258026   1.896   7.146  11.017
85377SOL     OW58027  14.028   6.489   0.502
85377SOL    HW158028  13.951   6.492   0.446
85377SOL    HW258029  14.026   6.402   0.541
85378SOL     OW58030  12.610   5.736   9.785
85378SOL    HW158031  12.679   5.732   9.852
85378SOL    HW258032  12.529   5.725   9.834
85379SOL     OW58033  14.151   2.249  12.950
85379SOL    HW158034  14.059   2.252  12.975
85379SOL    HW258035  14.178   2.340  12.945
85380SOL     OW58036   8.670  13.648  10.844
85380SOL    HW158037   8.719  13.606  10.774
85380SOL    HW258038   8.578  13.640  10.818
85381SOL     OW58039  11.210   3.775   8.189
85381SOL    HW158040  11.154   3.705   8.223
85381SOL    HW258041  11.297   3.735   8.183
85382SOL     OW58042  10.977   6.970  10.003
85382SOL    HW158043  11.017   6.958  10.089
85382SOL    HW258044  10.920   7.046  10.014
85383SOL     OW58045   9.542   2.474   0.111
85383SOL    HW158046   9.517   2.557   0.150
85383SOL    HW258047   9.483   2.463   0.037
85384SOL     OW58048   9.661   5.800  14.078
85384SOL    HW158049   9.753   5.818  14.060
85384SOL    HW258050   9.618   5.801  13.993
85385SOL     OW58051  14.549   7.389  10.159
85385SOL    HW158052  14.549   7.381  10.254
85385SOL    HW258053  14.591   7.309  10.128
85386SOL     OW58054   3.282  12.675   2.108
85386SOL    HW158055   3.313  12.586   2.127
85386SOL    HW258056   3.324  12.697   2.024
85387SOL     OW58057   2.912   5.830  12.279
85387SOL    HW158058   2.832   5.859  12.233
85387SOL    HW258059   2.930   5.744  12.241
85388SOL     OW58060   6.331   0.826   7.185
85388SOL    HW158061   6.239   0.855   7.186
85388SOL    HW258062   6.337   0.769   7.108
85389SOL     OW58063  13.498   7.649  12.033
85389SOL    HW158064  13.459   7.736  12.023
85389SOL    HW258065  13.447   7.593  11.974
85390SOL     OW58066  14.005   4.258   4.139
85390SOL    HW158067  14.070   4.246   4.070
85390SOL    HW258068  13.988   4.352   4.140
85391SOL     OW58069   9.985   3.352   1.774
85391SOL    HW158070  10.055   3.388   1.718
85391SOL    HW258071  10.031   3.294   1.835
85392SOL     OW58072   7.263   4.603  12.162
85392SOL    HW158073   7.240   4.518  12.199
85392SOL    HW258074   7.189   4.626  12.107
85393SOL     OW58075  14.012  14.155   3.082
85393SOL    HW158076  13.950  14.180   3.150
85393SOL    HW258077  14.098  14.173   3.120
85394SOL     OW58078  14.002  11.640   5.445
85394SOL    HW158079  13.910  11.628   5.423
85394SOL    HW258080  14.005  11.632   5.541
85395SOL     OW58081   1.410   5.447  13.773
85395SOL    HW158082   1.326   5.411  13.802
85395SOL    HW258083   1.398   5.465  13.679
85396SOL     OW58084   1.980   7.550   5.824
85396SOL    HW158085   1.952   7.640   5.807
85396SOL    HW258086   1.931   7.523   5.901
85397SOL     OW58087   7.844  10.595   0.489
85397SOL    HW158088   7.790  10.672   0.509
85397SOL    HW258089   7.782  10.523   0.481
85398SOL     OW58090   7.499   8.959   3.904
85398SOL    HW158091   7.467   9.030   3.849
85398SOL    HW258092   7.446   8.963   3.983
85399SOL     OW58093   0.542   5.742  14.369
85399SOL    HW158094   0.557   5.678  14.299
85399SOL    HW258095   0.489   5.695  14.434
85400SOL     OW58096  13.793   3.408   0.980
85400SOL    HW158097  13.878   3.391   1.020
85400SOL    HW258098  13.749   3.467   1.041
85401SOL     OW58099   8.640   5.202   5.594
85401SOL    HW158100   8.676   5.233   5.678
85401SOL    HW258101   8.672   5.112   5.587
85402SOL     OW58102   0.149   3.517   0.544
85402SOL    HW158103   0.245   3.510   0.549
85402SOL    HW258104   0.132   3.610   0.556
85403SOL     OW58105   0.243   9.271   8.749
85403SOL    HW158106   0.225   9.227   8.666
85403SOL    HW258107   0.202   9.357   8.741
85404SOL     OW58108  11.372   5.508  12.970
85404SOL    HW158109  11.362   5.603  12.978
85404SOL    HW258110  11.374   5.492  12.876
85405SOL     OW58111   7.000   4.458   4.331
85405SOL    HW158112   6.934   4.492   4.270
85405SOL    HW258113   7.072   4.522   4.327
85406SOL     OW58114  11.960   9.093   2.442
85406SOL    HW158115  11.895   9.145   2.394
85406SOL    HW258116  11.976   9.017   2.385
85407SOL     OW58117   3.246  11.295   6.049
85407SOL    HW158118   3.154  11.279   6.031
85407SOL    HW258119   3.249  11.317   6.142
85408SOL     OW58120   4.271   9.147   6.345
85408SOL    HW158121   4.195   9.091   6.331
85408SOL    HW258122   4.291   9.138   6.438
85409SOL     OW58123   5.803  11.037  12.078
85409SOL    HW158124   5.851  11.080  12.149
85409SOL    HW258125   5.842  10.950  12.073
85410SOL     OW58126   6.485   8.350  11.993
85410SOL    HW158127   6.576   8.351  12.023
85410SOL    HW258128   6.452   8.263  12.015
85411SOL     OW58129   9.808   1.256  10.624
85411SOL    HW158130   9.752   1.334  10.629
85411SOL    HW258131   9.747   1.183  10.621
85412SOL     OW58132   3.203  12.009  10.026
85412SOL    HW158133   3.223  12.072  10.095
85412SOL    HW258134   3.286  11.963  10.011
85413SOL     OW58135   0.746  10.240   4.605
85413SOL    HW158136   0.691  10.304   4.559
85413SOL    HW258137   0.804  10.205   4.538
85414SOL     OW58138   1.808  11.696   4.169
85414SOL    HW158139   1.732  11.638   4.169
85414SOL    HW258140   1.796  11.752   4.092
85415SOL     OW58141  12.599  13.631   1.784
85415SOL    HW158142  12.601  13.600   1.694
85415SOL    HW258143  12.646  13.564   1.834
85416SOL     OW58144   3.205   8.627   8.630
85416SOL    HW158145   3.254   8.709   8.627
85416SOL    HW258146   3.207   8.594   8.540
85417SOL     OW58147   8.095   8.505   3.262
85417SOL    HW158148   8.168   8.505   3.324
85417SOL    HW258149   8.097   8.418   3.222
85418SOL     OW58150   3.411  12.145   0.439
85418SOL    HW158151   3.412  12.129   0.533
85418SOL    HW258152   3.336  12.094   0.406
85419SOL     OW58153  14.098   7.528   1.351
85419SOL    HW158154  14.130   7.469   1.283
85419SOL    HW258155  14.061   7.471   1.418
85420SOL     OW58156   4.145   1.711  14.163
85420SOL    HW158157   4.132   1.728  14.256
85420SOL    HW258158   4.240   1.702  14.153
85421SOL     OW58159   7.491  10.019  12.867
85421SOL    HW158160   7.520   9.979  12.950
85421SOL    HW258161   7.518   9.957  12.800
85422SOL     OW58162  14.205  10.755   1.935
85422SOL    HW158163  14.114  10.730   1.919
85422SOL    HW258164  14.200  10.831   1.993
85423SOL     OW58165  12.724   6.519   0.988
85423SOL    HW158166  12.791   6.586   0.977
85423SOL    HW258167  12.715   6.479   0.902
85424SOL     OW58168  10.694   2.686   8.879
85424SOL    HW158169  10.703   2.767   8.928
85424SOL    HW258170  10.729   2.706   8.792
85425SOL     OW58171   0.481  10.608  13.713
85425SOL    HW158172   0.516  10.557  13.639
85425SOL    HW258173   0.540  10.684  13.719
85426SOL     OW58174   6.557   6.862   1.774
85426SOL    HW158175   6.536   6.822   1.690
85426SOL    HW258176   6.643   6.901   1.761
85427SOL     OW58177   8.873  10.402   8.264
85427SOL    HW158178   8.821  10.323   8.278
85427SOL    HW258179   8.810  10.468   8.234
85428SOL     OW58180   1.365   9.799  12.238
85428SOL    HW158181   1.419   9.773  12.313
85428SOL    HW258182   1.409   9.761  12.163
85429SOL     OW58183   9.731  10.346   5.546
85429SOL    HW158184   9.764  10.263   5.513
85429SOL    HW258185   9.636  10.341   5.534
85430SOL     OW58186   1.283   5.395  12.637
85430SOL    HW158187   1.328   5.449  12.572
85430SOL    HW258188   1.220   5.455  12.678
85431SOL     OW58189   5.165  14.461   4.808
85431SOL    HW158190   5.194  14.431   4.721
85431SOL    HW258191   5.151  14.555   4.797
85432SOL     OW58192  13.999   6.912  12.315
85432SOL    HW158193  13.960   6.842  12.367
85432SOL    HW258194  13.933   6.932  12.249
85433SOL     OW58195   4.445   2.666   9.405
85433SOL    HW158196   4.525   2.630   9.367
85433SOL    HW258197   4.399   2.591   9.442
85434SOL     OW58198  12.118  14.532  10.094
85434SOL    HW158199  12.143  14.612  10.141
85434SOL    HW258200  12.112  14.559  10.002
85435SOL     OW58201   1.813   0.803   9.564
85435SOL    HW158202   1.867   0.732   9.531
85435SOL    HW258203   1.742   0.812   9.500
85436SOL     OW58204   9.533  12.097   4.928
85436SOL    HW158205   9.471  12.030   4.897
85436SOL    HW258206   9.570  12.134   4.848
85437SOL     OW58207  10.101   7.131  10.619
85437SOL    HW158208  10.061   7.184  10.688
85437SOL    HW258209  10.194   7.129  10.642
85438SOL     OW58210   9.135   9.562   4.260
85438SOL    HW158211   9.159   9.637   4.207
85438SOL    HW258212   9.111   9.494   4.197
85439SOL     OW58213   0.148  13.345   8.159
85439SOL    HW158214   0.158  13.254   8.130
85439SOL    HW258215   0.179  13.398   8.085
85440SOL     OW58216  12.196  11.482   1.209
85440SOL    HW158217  12.104  11.469   1.185
85440SOL    HW258218  12.223  11.559   1.158
85441SOL     OW58219  13.036   1.847  14.494
85441SOL    HW158220  13.102   1.878  14.555
85441SOL    HW258221  12.955   1.842  14.546
85442SOL     OW58222   7.996   0.193   7.823
85442SOL    HW158223   7.915   0.177   7.871
85442SOL    HW258224   8.057   0.125   7.853
85443SOL     OW58225   5.846  13.680   7.923
85443SOL    HW158226   5.929  13.641   7.952
85443SOL    HW258227   5.785  13.606   7.921
85444SOL     OW58228  11.674   9.821  10.989
85444SOL    HW158229  11.639   9.766  11.059
85444SOL    HW258230  11.686   9.907  11.031
85445SOL     OW58231   2.566   3.058  10.686
85445SOL    HW158232   2.528   3.126  10.630
85445SOL    HW258233   2.593   3.105  10.765
85446SOL     OW58234  11.824   1.129   7.053
85446SOL    HW158235  11.752   1.093   7.106
85446SOL    HW258236  11.784   1.145   6.968
85447SOL     OW58237   2.758  14.506   9.773
85447SOL    HW158238   2.790  14.428   9.728
85447SOL    HW258239   2.785  14.494   9.864
85448SOL     OW58240   5.602   2.430  12.882
85448SOL    HW158241   5.510   2.404  12.870
85448SOL    HW258242   5.652   2.355  12.852
85449SOL     OW58243  12.335  12.549   3.359
85449SOL    HW158244  12.413  12.604   3.350
85449SOL    HW258245  12.273  12.586   3.296
85450SOL     OW58246  12.389   5.396  12.547
85450SOL    HW158247  12.393   5.348  12.629
85450SOL    HW258248  12.441   5.475  12.562
85451SOL     OW58249  14.223   4.608   9.551
85451SOL    HW158250  14.186   4.593   9.464
85451SOL    HW258251  14.296   4.669   9.535
85452SOL     OW58252  10.710  12.555   6.804
85452SOL    HW158253  10.694  12.468   6.841
85452SOL    HW258254  10.772  12.539   6.733
85453SOL     OW58255   0.809  13.766   9.631
85453SOL    HW158256   0.790  13.672   9.623
85453SOL    HW258257   0.777  13.789   9.718
85454SOL     OW58258   0.218   2.186   1.319
85454SOL    HW158259   0.137   2.158   1.362
85454SOL    HW258260   0.208   2.157   1.228
85455SOL     OW58261  13.973   3.597  10.368
85455SOL    HW158262  13.946   3.688  10.370
85455SOL    HW258263  13.893   3.547  10.383
85456SOL     OW58264   9.112   0.582   4.534
85456SOL    HW158265   9.114   0.655   4.471
85456SOL    HW258266   9.203   0.553   4.540
85457SOL     OW58267   6.138  11.185  14.705
85457SOL    HW158268   6.143  11.160  14.797
85457SOL    HW258269   6.091  11.269  14.705
85458SOL     OW58270  14.207   0.670  11.025
85458SOL    HW158271  14.303   0.675  11.017
85458SOL    HW258272  14.179   0.630  10.942
85459SOL     OW58273  11.659  13.718   1.502
85459SOL    HW158274  11.606  13.683   1.430
85459SOL    HW258275  11.612  13.691   1.581
85460SOL     OW58276   6.661  14.497   7.832
85460SOL    HW158277   6.625  14.430   7.773
85460SOL    HW258278   6.695  14.565   7.774
85461SOL     OW58279  14.283   5.474   3.730
85461SOL    HW158280  14.209   5.507   3.679
85461SOL    HW258281  14.272   5.513   3.817
85462SOL     OW58282   9.117   0.790   5.701
85462SOL    HW158283   9.107   0.867   5.644
85462SOL    HW258284   9.094   0.822   5.788
85463SOL     OW58285   5.111   4.224   6.072
85463SOL    HW158286   5.070   4.163   6.133
85463SOL    HW258287   5.037   4.265   6.026
85464SOL     OW58288  12.631  12.739  10.609
85464SOL    HW158289  12.711  12.767  10.565
85464SOL    HW258290  12.612  12.810  10.671
85465SOL     OW58291   0.413   6.191   1.950
85465SOL    HW158292   0.387   6.107   1.913
85465SOL    HW258293   0.460   6.169   2.031
85466SOL     OW58294   0.212   2.728  10.312
85466SOL    HW158295   0.268   2.798  10.279
85466SOL    HW258296   0.151   2.771  10.372
85467SOL     OW58297   8.626   7.790  13.295
85467SOL    HW158298   8.556   7.795  13.231
85467SOL    HW258299   8.700   7.752  13.247
85468SOL     OW58300  14.850  13.320   3.663
85468SOL    HW158301  14.886  13.264   3.732
85468SOL    HW258302   0.029  13.387   3.649
85469SOL     OW58303   9.382  12.260  10.537
85469SOL    HW158304   9.421  12.176  10.561
85469SOL    HW258305   9.349  12.296  10.619
85470SOL     OW58306  10.059   7.187   5.239
85470SOL    HW158307   9.974   7.230   5.228
85470SOL    HW258308  10.058   7.154   5.328
85471SOL     OW58309  13.678   1.628   9.904
85471SOL    HW158310  13.707   1.714   9.935
85471SOL    HW258311  13.693   1.570   9.979
85472SOL     OW58312  10.325  14.767  14.819
85472SOL    HW158313  10.402  14.711  14.810
85472SOL    HW258314  10.251  14.708  14.806
85473SOL     OW58315  11.724   9.007   8.565
85473SOL    HW158316  11.767   8.973   8.487
85473SOL    HW258317  11.646   8.954   8.575
85474SOL     OW58318   1.933   8.272   5.147
85474SOL    HW158319   1.952   8.241   5.059
85474SOL    HW258320   1.837   8.277   5.151
85475SOL     OW58321   5.804   9.296   6.084
85475SOL    HW158322   5.868   9.332   6.023
85475SOL    HW258323   5.733   9.360   6.085
85476SOL     OW58324   9.159   2.075   9.036
85476SOL    HW158325   9.201   2.000   9.078
85476SOL    HW258326   9.216   2.149   9.056
85477SOL     OW58327   5.300   0.035   4.635
85477SOL    HW158328   5.280   0.032   4.729
85477SOL    HW258329   5.345  14.839   4.618
85478SOL     OW58330   3.640   7.685   5.832
85478SOL    HW158331   3.652   7.612   5.892
85478SOL    HW258332   3.552   7.718   5.851
85479SOL     OW58333   4.224   8.347   5.465
85479SOL    HW158334   4.288   8.416   5.445
85479SOL    HW258335   4.140   8.385   5.441
85480SOL     OW58336   5.403   1.439  13.973
85480SOL    HW158337   5.387   1.345  13.977
85480SOL    HW258338   5.332   1.474  13.920
85481SOL     OW58339   9.891   0.530  11.797
85481SOL    HW158340   9.969   0.519  11.851
85481SOL    HW258341   9.866   0.622  11.808
85482SOL     OW58342   9.812  14.544   0.362
85482SOL    HW158343   9.782  14.630   0.391
85482SOL    HW258344   9.732  14.491   0.359
85483SOL     OW58345   5.579   7.081  12.723
85483SOL    HW158346   5.555   7.015  12.788
85483SOL    HW258347   5.663   7.052  12.689
85484SOL     OW58348   7.869   9.433  13.658
85484SOL    HW158349   7.821   9.482  13.724
85484SOL    HW258350   7.866   9.487  13.579
85485SOL     OW58351   3.883   4.923   3.323
85485SOL    HW158352   3.809   4.936   3.264
85485SOL    HW258353   3.859   4.845   3.374
85486SOL     OW58354   7.613  11.673   2.234
85486SOL    HW158355   7.655  11.596   2.196
85486SOL    HW258356   7.686  11.734   2.251
85487SOL     OW58357  12.597   9.786   2.155
85487SOL    HW158358  12.603   9.706   2.103
85487SOL    HW258359  12.541   9.844   2.104
85488SOL     OW58360  14.766  11.414   5.131
85488SOL    HW158361  14.861  11.411   5.134
85488SOL    HW258362  14.743  11.383   5.043
85489SOL     OW58363   5.544   7.752   2.015
85489SOL    HW158364   5.495   7.767   2.095
85489SOL    HW258365   5.558   7.839   1.978
85490SOL     OW58366  10.261   5.652   1.474
85490SOL    HW158367  10.290   5.685   1.560
85490SOL    HW258368  10.166   5.650   1.480
85491SOL     OW58369   5.244   9.744   1.151
85491SOL    HW158370   5.292   9.802   1.092
85491SOL    HW258371   5.184   9.802   1.198
85492SOL     OW58372  13.137   2.785   9.339
85492SOL    HW158373  13.099   2.706   9.300
85492SOL    HW258374  13.062   2.840   9.361
85493SOL     OW58375   9.641   0.584  14.026
85493SOL    HW158376   9.683   0.658  13.982
85493SOL    HW258377   9.712   0.543  14.076
85494SOL     OW58378  14.091   0.851   8.662
85494SOL    HW158379  14.131   0.924   8.615
85494SOL    HW258380  14.148   0.776   8.646
85495SOL     OW58381   4.822   7.213   8.915
85495SOL    HW158382   4.890   7.200   8.849
85495SOL    HW258383   4.774   7.130   8.916
85496SOL     OW58384   0.434   4.347   5.375
85496SOL    HW158385   0.491   4.423   5.383
85496SOL    HW258386   0.426   4.332   5.281
85497SOL     OW58387   5.019   1.082   1.174
85497SOL    HW158388   4.951   1.068   1.240
85497SOL    HW258389   4.970   1.099   1.093
85498SOL     OW58390   4.468   0.418   4.285
85498SOL    HW158391   4.394   0.478   4.273
85498SOL    HW258392   4.545   0.475   4.282
85499SOL     OW58393   8.261   6.687   1.397
85499SOL    HW158394   8.241   6.611   1.451
85499SOL    HW258395   8.181   6.739   1.397
85500SOL     OW58396   7.384   0.236   0.486
85500SOL    HW158397   7.460   0.233   0.544
85500SOL    HW258398   7.349   0.147   0.488
85501SOL     OW58399  10.730  10.665  10.246
85501SOL    HW158400  10.638  10.675  10.223
85501SOL    HW258401  10.733  10.684  10.340
85502SOL     OW58402   1.537  11.249  13.676
85502SOL    HW158403   1.590  11.251  13.756
85502SOL    HW258404   1.448  11.272  13.706
85503SOL     OW58405  10.540  10.286   4.260
85503SOL    HW158406  10.555  10.216   4.324
85503SOL    HW258407  10.476  10.249   4.199
85504SOL     OW58408   2.600   6.283   0.214
85504SOL    HW158409   2.629   6.374   0.214
85504SOL    HW258410   2.667   6.236   0.165
85505SOL     OW58411  14.612   8.687  13.853
85505SOL    HW158412  14.520   8.680  13.878
85505SOL    HW258413  14.661   8.645  13.924
85506SOL     OW58414   2.032   0.827  13.765
85506SOL    HW158415   1.992   0.854  13.848
85506SOL    HW258416   1.958   0.811  13.706
85507SOL     OW58417  13.010  14.742   9.436
85507SOL    HW158418  13.022  14.648   9.451
85507SOL    HW258419  13.085  14.767   9.382
85508SOL     OW58420  11.301  14.052  14.743
85508SOL    HW158421  11.272  14.021  14.658
85508SOL    HW258422  11.355  13.980  14.777
85509SOL     OW58423   7.536  10.991   9.790
85509SOL    HW158424   7.580  10.919   9.744
85509SOL    HW258425   7.455  10.951   9.824
85510SOL     OW58426   1.598   2.925  10.156
85510SOL    HW158427   1.693   2.917  10.162
85510SOL    HW258428   1.583   2.982  10.080
85511SOL     OW58429   2.540   5.541  11.380
85511SOL    HW158430   2.604   5.611  11.396
85511SOL    HW258431   2.459   5.573  11.419
85512SOL     OW58432  13.000   0.119   0.697
85512SOL    HW158433  13.074   0.148   0.749
85512SOL    HW258434  13.025   0.032   0.665
85513SOL     OW58435   0.199   1.303  10.193
85513SOL    HW158436   0.220   1.210  10.182
85513SOL    HW258437   0.282   1.348  10.179
85514SOL     OW58438  11.037   8.794  14.571
85514SOL    HW158439  11.085   8.714  14.594
85514SOL    HW258440  11.091   8.836  14.505
85515SOL     OW58441  12.528   5.593   5.011
85515SOL    HW158442  12.557   5.668   5.065
85515SOL    HW258443  12.476   5.633   4.941
85516SOL     OW58444   8.876   3.786   1.917
85516SOL    HW158445   8.970   3.771   1.908
85516SOL    HW258446   8.842   3.778   1.828
85517SOL     OW58447   1.418   8.687   2.455
85517SOL    HW158448   1.491   8.747   2.467
85517SOL    HW258449   1.387   8.669   2.544
85518SOL     OW58450   7.061  12.291   1.395
85518SOL    HW158451   7.118  12.229   1.350
85518SOL    HW258452   6.974  12.253   1.387
85519SOL     OW58453   8.758   0.567   5.473
85519SOL    HW158454   8.684   0.523   5.431
85519SOL    HW258455   8.720   0.612   5.548
85520SOL     OW58456   8.254   8.741   2.090
85520SOL    HW158457   8.193   8.814   2.073
85520SOL    HW258458   8.199   8.663   2.085
85521SOL     OW58459  14.343  14.255   9.894
85521SOL    HW158460  14.386  14.178   9.932
85521SOL    HW258461  14.292  14.220   9.821
85522SOL     OW58462  13.413   1.138  13.364
85522SOL    HW158463  13.364   1.219  13.348
85522SOL    HW258464  13.488   1.165  13.417
85523SOL     OW58465   1.162  12.311   5.555
85523SOL    HW158466   1.232  12.346   5.610
85523SOL    HW258467   1.187  12.219   5.541
85524SOL     OW58468  14.448  10.496  14.674
85524SOL    HW158469  14.419  10.406  14.656
85524SOL    HW258470  14.483  10.491  14.763
85525SOL     OW58471   0.245  11.974   4.360
85525SOL    HW158472   0.285  11.901   4.311
85525SOL    HW258473   0.215  11.934   4.441
85526SOL     OW58474   0.434   3.927  11.171
85526SOL    HW158475   0.374   3.953  11.241
85526SOL    HW258476   0.498   3.870  11.214
85527SOL     OW58477   1.547   4.736  10.120
85527SOL    HW158478   1.483   4.787  10.170
85527SOL    HW258479   1.543   4.648  10.157
85528SOL     OW58480   0.822   6.521   4.963
85528SOL    HW158481   0.834   6.431   4.995
85528SOL    HW258482   0.749   6.514   4.901
85529SOL     OW58483   2.490   3.806  12.029
85529SOL    HW158484   2.549   3.790  11.955
85529SOL    HW258485   2.420   3.742  12.018
85530SOL     OW58486   8.704   5.778  10.412
85530SOL    HW158487   8.722   5.842  10.343
85530SOL    HW258488   8.777   5.716  10.408
85531SOL     OW58489   7.184   0.217   5.866
85531SOL    HW158490   7.220   0.292   5.818
85531SOL    HW258491   7.253   0.151   5.864
85532SOL     OW58492   5.872   3.336   9.619
85532SOL    HW158493   5.782   3.368   9.611
85532SOL    HW258494   5.866   3.243   9.598
85533SOL     OW58495   8.347   8.088   8.599
85533SOL    HW158496   8.437   8.084   8.631
85533SOL    HW258497   8.351   8.150   8.526
85534SOL     OW58498  13.899   0.862   0.220
85534SOL    HW158499  13.910   0.832   0.310
85534SOL    HW258500  13.889   0.781   0.169
85535SOL     OW58501  14.858   3.478   6.050
85535SOL    HW158502  14.803   3.552   6.024
85535SOL    HW258503  14.801   3.402   6.043
85536SOL     OW58504   6.741   0.939  13.516
85536SOL    HW158505   6.779   0.947  13.429
85536SOL    HW258506   6.647   0.925  13.501
85537SOL     OW58507   9.215   4.877   6.782
85537SOL    HW158508   9.237   4.817   6.853
85537SOL    HW258509   9.266   4.846   6.707
85538SOL     OW58510  12.076   8.364   6.106
85538SOL    HW158511  12.062   8.459   6.101
85538SOL    HW258512  12.078   8.345   6.200
85539SOL     OW58513   0.969  13.401   8.902
85539SOL    HW158514   1.057  13.436   8.912
85539SOL    HW258515   0.962  13.379   8.809
85540SOL     OW58516   4.474   5.744  12.096
85540SOL    HW158517   4.520   5.761  12.179
85540SOL    HW258518   4.473   5.829  12.052
85541SOL     OW58519   8.762  13.703   6.405
85541SOL    HW158520   8.807  13.647   6.468
85541SOL    HW258521   8.779  13.792   6.437
85542SOL     OW58522   9.171   2.898  14.343
85542SOL    HW158523   9.266   2.900  14.341
85542SOL    HW258524   9.145   2.894  14.251
85543SOL     OW58525  14.693   2.762  10.366
85543SOL    HW158526  14.780   2.769  10.406
85543SOL    HW258527  14.699   2.815  10.287
85544SOL     OW58528  11.664   1.750   9.492
85544SOL    HW158529  11.681   1.845   9.496
85544SOL    HW258530  11.746   1.712   9.463
85545SOL     OW58531   4.909   7.541   3.769
85545SOL    HW158532   4.985   7.534   3.710
85545SOL    HW258533   4.841   7.580   3.716
85546SOL     OW58534   9.671   7.315   5.833
85546SOL    HW158535   9.672   7.269   5.917
85546SOL    HW258536   9.645   7.404   5.855
85547SOL     OW58537   8.657  11.507   4.854
85547SOL    HW158538   8.659  11.417   4.885
85547SOL    HW258539   8.624  11.558   4.929
85548SOL     OW58540  13.556  11.668   1.432
85548SOL    HW158541  13.469  11.685   1.396
85548SOL    HW258542  13.565  11.573   1.430
85549SOL     OW58543  13.244   3.050  12.279
85549SOL    HW158544  13.201   3.102  12.347
85549SOL    HW258545  13.172   3.014  12.227
85550SOL     OW58546   7.857   5.412  12.838
85550SOL    HW158547   7.903   5.351  12.896
85550SOL    HW258548   7.923   5.477  12.815
85551SOL     OW58549   1.891   3.874  11.067
85551SOL    HW158550   1.950   3.850  11.138
85551SOL    HW258551   1.944   3.865  10.988
85552SOL     OW58552   1.429  14.159   0.002
85552SOL    HW158553   1.392  14.071  14.883
85552SOL    HW258554   1.353  14.216   0.011
85553SOL     OW58555  10.917  14.547   0.542
85553SOL    HW158556  10.988  14.562   0.604
85553SOL    HW258557  10.890  14.457   0.557
85554SOL     OW58558   5.199   6.215   8.020
85554SOL    HW158559   5.136   6.157   7.976
85554SOL    HW258560   5.265   6.156   8.056
85555SOL     OW58561  11.279  10.259   9.718
85555SOL    HW158562  11.326  10.285   9.639
85555SOL    HW258563  11.327  10.184   9.751
85556SOL     OW58564   8.697   5.383   1.280
85556SOL    HW158565   8.742   5.401   1.197
85556SOL    HW258566   8.623   5.328   1.256
85557SOL     OW58567  10.476  10.664   3.785
85557SOL    HW158568  10.521  10.639   3.865
85557SOL    HW258569  10.395  10.707   3.814
85558SOL     OW58570  13.462   5.580   6.098
85558SOL    HW158571  13.472   5.517   6.169
85558SOL    HW258572  13.551   5.603   6.073
85559SOL     OW58573   2.689   0.596   5.585
85559SOL    HW158574   2.729   0.660   5.525
85559SOL    HW258575   2.762   0.540   5.611
85560SOL     OW58576   5.214  10.285  13.092
85560SOL    HW158577   5.203  10.258  13.183
85560SOL    HW258578   5.205  10.380  13.094
85561SOL     OW58579  11.863   6.655   5.138
85561SOL    HW158580  11.782   6.682   5.095
85561SOL    HW258581  11.908   6.737   5.158
85562SOL     OW58582  12.538  11.396  10.573
85562SOL    HW158583  12.608  11.422  10.632
85562SOL    HW258584  12.568  11.422  10.486
85563SOL     OW58585   6.424   9.421   8.434
85563SOL    HW158586   6.397   9.511   8.456
85563SOL    HW258587   6.495   9.402   8.495
85564SOL     OW58588  13.747  11.588   3.926
85564SOL    HW158589  13.738  11.598   3.831
85564SOL    HW258590  13.662  11.616   3.961
85565SOL     OW58591  14.279   1.892   2.583
85565SOL    HW158592  14.271   1.858   2.672
85565SOL    HW258593  14.197   1.939   2.568
85566SOL     OW58594   2.961  14.647   3.985
85566SOL    HW158595   2.954  14.558   4.019
85566SOL    HW258596   2.934  14.703   4.058
85567SOL     OW58597   3.852   7.176   5.592
85567SOL    HW158598   3.769   7.169   5.641
85567SOL    HW258599   3.899   7.096   5.615
85568SOL     OW58600   6.693   7.495   9.515
85568SOL    HW158601   6.723   7.582   9.489
85568SOL    HW258602   6.654   7.458   9.436
85569SOL     OW58603   4.252   5.382   5.544
85569SOL    HW158604   4.226   5.437   5.471
85569SOL    HW258605   4.222   5.294   5.520
85570SOL     OW58606   3.802   5.591  12.823
85570SOL    HW158607   3.860   5.653  12.779
85570SOL    HW258608   3.839   5.581  12.911
85571SOL     OW58609   7.148   7.409  10.639
85571SOL    HW158610   7.180   7.499  10.632
85571SOL    HW258611   7.055   7.419  10.661
85572SOL     OW58612   1.662   6.637  12.726
85572SOL    HW158613   1.719   6.561  12.733
85572SOL    HW258614   1.635   6.639  12.634
85573SOL     OW58615   0.462   1.218   4.364
85573SOL    HW158616   0.446   1.162   4.288
85573SOL    HW258617   0.520   1.167   4.420
85574SOL     OW58618  11.811   8.140   9.093
85574SOL    HW158619  11.887   8.097   9.132
85574SOL    HW258620  11.752   8.068   9.070
85575SOL     OW58621   9.596   5.875  14.455
85575SOL    HW158622   9.687   5.904  14.464
85575SOL    HW258623   9.594   5.789  14.496
85576SOL     OW58624  14.831   0.630   3.151
85576SOL    HW158625  14.840   0.676   3.235
85576SOL    HW258626  14.782   0.692   3.095
85577SOL     OW58627   3.059  12.800   4.679
85577SOL    HW158628   2.999  12.749   4.624
85577SOL    HW258629   3.132  12.823   4.620
85578SOL     OW58630   2.561   6.301   4.817
85578SOL    HW158631   2.633   6.338   4.765
85578SOL    HW258632   2.598   6.294   4.905
85579SOL     OW58633  11.835   0.596   5.075
85579SOL    HW158634  11.772   0.633   5.137
85579SOL    HW258635  11.862   0.513   5.115
85580SOL     OW58636  13.165  14.279  10.563
85580SOL    HW158637  13.189  14.232  10.484
85580SOL    HW258638  13.227  14.249  10.629
85581SOL     OW58639   4.510  10.538   4.082
85581SOL    HW158640   4.535  10.538   4.174
85581SOL    HW258641   4.497  10.446   4.061
85582SOL     OW58642  10.342   4.184   7.897
85582SOL    HW158643  10.269   4.146   7.945
85582SOL    HW258644  10.380   4.248   7.957
85583SOL     OW58645  10.770   5.845   7.289
85583SOL    HW158646  10.850   5.845   7.341
85583SOL    HW258647  10.756   5.753   7.267
85584SOL     OW58648   7.023   9.520  11.748
85584SOL    HW158649   7.081   9.452  11.783
85584SOL    HW258650   7.030   9.593  11.809
85585SOL     OW58651   0.344  11.818   7.494
85585SOL    HW158652   0.370  11.830   7.585
85585SOL    HW258653   0.375  11.897   7.450
85586SOL     OW58654  14.807  11.465   2.114
85586SOL    HW158655  14.730  11.444   2.062
85586SOL    HW258656  14.773  11.517   2.187
85587SOL     OW58657   8.287   8.032  11.894
85587SOL    HW158658   8.349   8.004  11.826
85587SOL    HW258659   8.225   7.959  11.902
85588SOL     OW58660   8.908  12.080   0.451
85588SOL    HW158661   8.836  12.107   0.507
85588SOL    HW258662   8.979  12.058   0.512
85589SOL     OW58663   9.836   4.726  12.372
85589SOL    HW158664   9.769   4.779  12.329
85589SOL    HW258665   9.910   4.784  12.382
85590SOL     OW58666  12.740  14.486   6.249
85590SOL    HW158667  12.810  14.500   6.313
85590SOL    HW258668  12.780  14.434   6.180
85591SOL     OW58669   6.497  13.915   6.783
85591SOL    HW158670   6.577  13.864   6.771
85591SOL    HW258671   6.522  13.985   6.843
85592SOL     OW58672   5.170   0.402   1.214
85592SOL    HW158673   5.086   0.401   1.168
85592SOL    HW258674   5.222   0.334   1.171
85593SOL     OW58675  12.774   1.719  13.376
85593SOL    HW158676  12.867   1.706  13.359
85593SOL    HW258677  12.731   1.694  13.294
85594SOL     OW58678   3.328  14.229   2.022
85594SOL    HW158679   3.307  14.222   1.929
85594SOL    HW258680   3.291  14.151   2.062
85595SOL     OW58681  14.787   0.705   7.595
85595SOL    HW158682  14.786   0.700   7.500
85595SOL    HW258683  14.695   0.692   7.621
85596SOL     OW58684   3.212   5.429   2.440
85596SOL    HW158685   3.158   5.407   2.364
85596SOL    HW258686   3.156   5.409   2.515
85597SOL     OW58687   2.717   0.350   6.027
85597SOL    HW158688   2.640   0.377   5.976
85597SOL    HW258689   2.790   0.398   5.987
85598SOL     OW58690  13.032   6.616  13.339
85598SOL    HW158691  13.115   6.609  13.293
85598SOL    HW258692  13.046   6.688  13.401
85599SOL     OW58693  13.254   2.431  13.669
85599SOL    HW158694  13.330   2.377  13.653
85599SOL    HW258695  13.256   2.448  13.763
85600SOL     OW58696   9.864   4.185   9.842
85600SOL    HW158697   9.896   4.261   9.891
85600SOL    HW258698   9.944   4.142   9.811
85601SOL     OW58699   3.113   5.637  14.061
85601SOL    HW158700   3.075   5.555  14.030
85601SOL    HW258701   3.102   5.634  14.156
85602SOL     OW58702   1.802  12.093  12.464
85602SOL    HW158703   1.720  12.067  12.507
85602SOL    HW258704   1.795  12.188  12.455
85603SOL     OW58705  12.407   6.035  12.923
85603SOL    HW158706  12.462   6.037  13.001
85603SOL    HW258707  12.439   6.107  12.869
85604SOL     OW58708  13.386   7.290  12.597
85604SOL    HW158709  13.451   7.360  12.587
85604SOL    HW258710  13.363   7.291  12.690
85605SOL     OW58711  14.011   5.325   6.889
85605SOL    HW158712  14.045   5.299   6.804
85605SOL    HW258713  14.085   5.316   6.949
85606SOL     OW58714   2.968   0.509   8.311
85606SOL    HW158715   3.009   0.507   8.397
85606SOL    HW258716   2.886   0.460   8.322
85607SOL     OW58717   8.267  11.401  14.625
85607SOL    HW158718   8.318  11.356  14.692
85607SOL    HW258719   8.324  11.402  14.548
85608SOL     OW58720   0.019   6.304   1.531
85608SOL    HW158721  14.818   6.290   1.565
85608SOL    HW258722   0.064   6.352   1.600
85609SOL     OW58723  13.191   2.757  13.339
85609SOL    HW158724  13.181   2.739  13.432
85609SOL    HW258725  13.274   2.714  13.315
85610SOL     OW58726  14.751   2.649  12.690
85610SOL    HW158727  14.715   2.708  12.756
85610SOL    HW258728  14.675   2.607  12.651
85611SOL     OW58729   9.262   7.102  12.263
85611SOL    HW158730   9.350   7.131  12.239
85611SOL    HW258731   9.253   7.016  12.223
85612SOL     OW58732  13.294   1.079   8.586
85612SOL    HW158733  13.234   1.040   8.650
85612SOL    HW258734  13.378   1.037   8.604
85613SOL     OW58735  10.342   2.210   2.727
85613SOL    HW158736  10.387   2.129   2.703
85613SOL    HW258737  10.260   2.181   2.768
85614SOL     OW58738  11.600   1.784   6.662
85614SOL    HW158739  11.662   1.794   6.734
85614SOL    HW258740  11.613   1.862   6.608
85615SOL     OW58741   4.585   2.111   9.561
85615SOL    HW158742   4.598   2.156   9.645
85615SOL    HW258743   4.673   2.084   9.535
85616SOL     OW58744   7.056  13.522  12.843
85616SOL    HW158745   7.112  13.509  12.766
85616SOL    HW258746   7.023  13.611  12.835
85617SOL     OW58747  11.021   5.318   6.160
85617SOL    HW158748  11.000   5.239   6.210
85617SOL    HW258749  10.977   5.306   6.076
85618SOL     OW58750   2.691   9.498   5.016
85618SOL    HW158751   2.607   9.475   4.975
85618SOL    HW258752   2.670   9.510   5.108
85619SOL     OW58753   0.645  10.980   2.534
85619SOL    HW158754   0.562  10.983   2.486
85619SOL    HW258755   0.712  10.979   2.466
85620SOL     OW58756   3.158  14.798  11.533
85620SOL    HW158757   3.207  14.791  11.615
85620SOL    HW258758   3.225  14.793  11.464
85621SOL     OW58759  12.494   4.971  12.226
85621SOL    HW158760  12.449   5.045  12.185
85621SOL    HW258761  12.508   4.908  12.155
85622SOL     OW58762  13.910   0.117  12.135
85622SOL    HW158763  13.847   0.189  12.130
85622SOL    HW258764  13.944   0.108  12.046
85623SOL     OW58765   1.114   3.302  14.347
85623SOL    HW158766   1.200   3.271  14.374
85623SOL    HW258767   1.053   3.256  14.405
85624SOL     OW58768   1.742  12.420  12.050
85624SOL    HW158769   1.787  12.421  11.965
85624SOL    HW258770   1.813  12.412  12.114
85625SOL     OW58771  13.102   9.005   3.830
85625SOL    HW158772  13.192   8.981   3.808
85625SOL    HW258773  13.056   9.006   3.747
85626SOL     OW58774   9.819   4.674   4.563
85626SOL    HW158775   9.789   4.717   4.483
85626SOL    HW258776   9.744   4.679   4.623
85627SOL     OW58777   2.462  11.231   3.597
85627SOL    HW158778   2.456  11.239   3.692
85627SOL    HW258779   2.550  11.261   3.576
85628SOL     OW58780   7.083   4.211   6.853
85628SOL    HW158781   6.994   4.220   6.817
85628SOL    HW258782   7.102   4.296   6.892
85629SOL     OW58783  10.773  12.023   7.023
85629SOL    HW158784  10.802  12.079   6.951
85629SOL    HW258785  10.705  12.074   7.067
85630SOL     OW58786  11.195  13.160  14.320
85630SOL    HW158787  11.225  13.250  14.322
85630SOL    HW258788  11.142  13.154  14.240
85631SOL     OW58789  11.034   9.671   1.472
85631SOL    HW158790  10.999   9.760   1.471
85631SOL    HW258791  11.027   9.643   1.563
85632SOL     OW58792  10.344   1.349  12.737
85632SOL    HW158793  10.274   1.301  12.694
85632SOL    HW258794  10.357   1.426  12.682
85633SOL     OW58795   7.479   0.632  14.358
85633SOL    HW158796   7.533   0.660  14.284
85633SOL    HW258797   7.513   0.684  14.432
85634SOL     OW58798   2.287  10.950  12.092
85634SOL    HW158799   2.266  11.032  12.138
85634SOL    HW258800   2.310  10.889  12.162
85635SOL     OW58801  10.221   5.297   5.154
85635SOL    HW158802  10.132   5.316   5.182
85635SOL    HW258803  10.248   5.222   5.206
85636SOL     OW58804   6.224   1.900   8.343
85636SOL    HW158805   6.199   1.865   8.258
85636SOL    HW258806   6.284   1.972   8.324
85637SOL     OW58807   7.040   4.839   1.428
85637SOL    HW158808   6.980   4.913   1.419
85637SOL    HW258809   7.081   4.851   1.513
85638SOL     OW58810  14.459   1.340   9.579
85638SOL    HW158811  14.482   1.263   9.630
85638SOL    HW258812  14.368   1.325   9.553
85639SOL     OW58813  11.342   4.027   5.282
85639SOL    HW158814  11.301   4.069   5.206
85639SOL    HW258815  11.435   4.047   5.274
85640SOL     OW58816  14.836   7.919  11.210
85640SOL    HW158817  14.802   7.952  11.128
85640SOL    HW258818  14.882   7.993  11.249
85641SOL     OW58819   1.792   6.037   3.632
85641SOL    HW158820   1.865   6.004   3.581
85641SOL    HW258821   1.819   6.024   3.723
85642SOL     OW58822   2.813   3.095   9.280
85642SOL    HW158823   2.729   3.141   9.279
85642SOL    HW258824   2.859   3.132   9.356
85643SOL     OW58825   3.687   1.649   8.410
85643SOL    HW158826   3.695   1.568   8.360
85643SOL    HW258827   3.776   1.667   8.442
85644SOL     OW58828  10.910   8.678  14.219
85644SOL    HW158829  10.873   8.738  14.282
85644SOL    HW258830  11.002   8.703  14.213
85645SOL     OW58831   6.850   2.421   3.609
85645SOL    HW158832   6.822   2.430   3.700
85645SOL    HW258833   6.864   2.511   3.579
85646SOL     OW58834  12.628   4.780   4.892
85646SOL    HW158835  12.681   4.848   4.934
85646SOL    HW258836  12.677   4.699   4.906
85647SOL     OW58837  10.932   4.538   6.475
85647SOL    HW158838  10.846   4.510   6.443
85647SOL    HW258839  10.957   4.470   6.538
85648SOL     OW58840   7.580   5.640   4.674
85648SOL    HW158841   7.574   5.712   4.611
85648SOL    HW258842   7.618   5.568   4.624
85649SOL     OW58843   7.473   4.639  10.161
85649SOL    HW158844   7.526   4.700  10.111
85649SOL    HW258845   7.394   4.627  10.109
85650SOL     OW58846  13.612  14.107   0.698
85650SOL    HW158847  13.579  14.197   0.703
85650SOL    HW258848  13.538  14.053   0.725
85651SOL     OW58849  12.307  13.459   4.296
85651SOL    HW158850  12.380  13.400   4.314
85651SOL    HW258851  12.302  13.516   4.372
85652SOL     OW58852   7.313   9.585  13.631
85652SOL    HW158853   7.399   9.550  13.652
85652SOL    HW258854   7.274   9.520  13.572
85653SOL     OW58855   7.735   3.420  12.179
85653SOL    HW158856   7.719   3.359  12.107
85653SOL    HW258857   7.782   3.368  12.244
85654SOL     OW58858  13.708   2.328   3.939
85654SOL    HW158859  13.694   2.318   3.845
85654SOL    HW258860  13.750   2.247   3.966
85655SOL     OW58861  12.561   7.120  12.218
85655SOL    HW158862  12.569   7.196  12.161
85655SOL    HW258863  12.516   7.153  12.296
85656SOL     OW58864  14.177   9.923   9.951
85656SOL    HW158865  14.256   9.873   9.930
85656SOL    HW258866  14.125   9.863  10.004
85657SOL     OW58867   3.611  11.089  11.047
85657SOL    HW158868   3.658  11.015  11.010
85657SOL    HW258869   3.676  11.160  11.049
85658SOL     OW58870   5.355   0.663   1.166
85658SOL    HW158871   5.370   0.743   1.116
85658SOL    HW258872   5.272   0.628   1.132
85659SOL     OW58873   8.768  11.831   7.005
85659SOL    HW158874   8.715  11.911   6.998
85659SOL    HW258875   8.732  11.786   7.082
85660SOL     OW58876   5.851   6.855   6.989
85660SOL    HW158877   5.910   6.806   7.047
85660SOL    HW258878   5.830   6.935   7.038
85661SOL     OW58879   8.074   4.572  10.794
85661SOL    HW158880   8.162   4.606  10.809
85661SOL    HW258881   8.060   4.508  10.864
85662SOL     OW58882   0.332  14.381  11.175
85662SOL    HW158883   0.284  14.461  11.153
85662SOL    HW258884   0.285  14.312  11.129
85663SOL     OW58885  10.258   8.226   7.333
85663SOL    HW158886  10.169   8.243   7.302
85663SOL    HW258887  10.307   8.203   7.254
85664SOL     OW58888  11.935   6.905   5.222
85664SOL    HW158889  11.940   6.928   5.129
85664SOL    HW258890  11.917   6.987   5.267
85665SOL     OW58891  13.813  13.286  14.586
85665SOL    HW158892  13.720  13.303  14.595
85665SOL    HW258893  13.855  13.354  14.640
85666SOL     OW58894   8.505   5.281   3.906
85666SOL    HW158895   8.527   5.234   3.986
85666SOL    HW258896   8.463   5.361   3.936
85667SOL     OW58897   5.030   8.973  14.066
85667SOL    HW158898   5.068   8.939  14.148
85667SOL    HW258899   5.077   8.927  13.997
85668SOL     OW58900  10.604   1.228   4.793
85668SOL    HW158901  10.609   1.136   4.816
85668SOL    HW258902  10.586   1.273   4.875
85669SOL     OW58903  10.980   3.031   9.337
85669SOL    HW158904  10.944   3.112   9.376
85669SOL    HW258905  11.063   3.018   9.382
85670SOL     OW58906  14.320   4.526  13.815
85670SOL    HW158907  14.272   4.479  13.884
85670SOL    HW258908  14.254   4.548  13.750
85671SOL     OW58909   2.772  12.848   1.167
85671SOL    HW158910   2.699  12.846   1.105
85671SOL    HW258911   2.741  12.904   1.239
85672SOL     OW58912  13.974  11.063   5.611
85672SOL    HW158913  13.981  11.015   5.529
85672SOL    HW258914  13.919  11.138   5.591
85673SOL     OW58915  10.423  13.951  10.387
85673SOL    HW158916  10.413  13.958  10.482
85673SOL    HW258917  10.518  13.950  10.373
85674SOL     OW58918   9.780   2.064  14.277
85674SOL    HW158919   9.758   2.112  14.198
85674SOL    HW258920   9.728   2.105  14.346
85675SOL     OW58921   3.242  14.145  11.225
85675SOL    HW158922   3.196  14.227  11.205
85675SOL    HW258923   3.173  14.080  11.237
85676SOL     OW58924  11.009   5.890  11.669
85676SOL    HW158925  10.947   5.957  11.641
85676SOL    HW258926  11.035   5.917  11.757
85677SOL     OW58927   4.415   7.513   0.756
85677SOL    HW158928   4.468   7.465   0.692
85677SOL    HW258929   4.325   7.495   0.730
85678SOL     OW58930   3.576   3.038   7.516
85678SOL    HW158931   3.603   3.125   7.545
85678SOL    HW258932   3.643   3.012   7.454
85679SOL     OW58933  14.480   5.971  14.884
85679SOL    HW158934  14.564   5.973  14.839
85679SOL    HW258935  14.421   6.023  14.829
85680SOL     OW58936   0.140   4.602   3.223
85680SOL    HW158937   0.137   4.507   3.211
85680SOL    HW258938   0.049   4.628   3.236
85681SOL     OW58939  12.245   9.248   3.974
85681SOL    HW158940  12.202   9.241   4.059
85681SOL    HW258941  12.243   9.341   3.953
85682SOL     OW58942  10.661   0.387   2.326
85682SOL    HW158943  10.654   0.341   2.242
85682SOL    HW258944  10.752   0.373   2.354
85683SOL     OW58945   7.649   9.820  11.465
85683SOL    HW158946   7.701   9.812  11.385
85683SOL    HW258947   7.700   9.774  11.531
85684SOL     OW58948   9.637   4.404   1.597
85684SOL    HW158949   9.694   4.478   1.578
85684SOL    HW258950   9.549   4.440   1.595
85685SOL     OW58951  11.683  10.523   7.286
85685SOL    HW158952  11.677  10.613   7.320
85685SOL    HW258953  11.665  10.468   7.362
85686SOL     OW58954   0.516   0.587   9.045
85686SOL    HW158955   0.455   0.585   9.119
85686SOL    HW258956   0.472   0.538   8.976
85687SOL     OW58957   1.898  13.563  13.918
85687SOL    HW158958   1.902  13.653  13.950
85687SOL    HW258959   1.982  13.525  13.943
85688SOL     OW58960   8.431  13.796  11.348
85688SOL    HW158961   8.504  13.753  11.393
85688SOL    HW258962   8.414  13.740  11.272
85689SOL     OW58963   8.161   6.945   5.544
85689SOL    HW158964   8.181   7.037   5.561
85689SOL    HW258965   8.067   6.938   5.561
85690SOL     OW58966   6.175   3.072   6.667
85690SOL    HW158967   6.190   3.070   6.573
85690SOL    HW258968   6.111   3.002   6.683
85691SOL     OW58969   7.302  10.079   4.654
85691SOL    HW158970   7.295  10.155   4.597
85691SOL    HW258971   7.357  10.109   4.727
85692SOL     OW58972   3.375  10.745   5.741
85692SOL    HW158973   3.379  10.819   5.802
85692SOL    HW258974   3.463  10.709   5.740
85693SOL     OW58975  14.389  10.218   0.881
85693SOL    HW158976  14.423  10.221   0.971
85693SOL    HW258977  14.370  10.125   0.866
85694SOL     OW58978   9.850  10.734   7.170
85694SOL    HW158979   9.893  10.670   7.113
85694SOL    HW258980   9.894  10.725   7.254
85695SOL     OW58981   7.984  14.107  10.101
85695SOL    HW158982   7.922  14.040  10.073
85695SOL    HW258983   8.058  14.098  10.041
85696SOL     OW58984  12.769   8.951   1.112
85696SOL    HW158985  12.702   8.980   1.051
85696SOL    HW258986  12.778   9.024   1.175
85697SOL     OW58987   9.696   8.112  11.165
85697SOL    HW158988   9.763   8.169  11.126
85697SOL    HW258989   9.729   8.024  11.148
85698SOL     OW58990  12.335   0.655   3.145
85698SOL    HW158991  12.404   0.621   3.202
85698SOL    HW258992  12.278   0.580   3.130
85699SOL     OW58993   3.221   0.315   2.165
85699SOL    HW158994   3.150   0.313   2.229
85699SOL    HW258995   3.179   0.302   2.081
85700SOL     OW58996   0.755   0.696   9.029
85700SOL    HW158997   0.671   0.655   9.046
85700SOL    HW258998   0.768   0.685   8.934
85701SOL     OW58999   1.298   7.969   4.538
85701SOL    HW159000   1.335   7.985   4.626
85701SOL    HW259001   1.353   7.900   4.501
85702SOL     OW59002   5.462   2.936  12.649
85702SOL    HW159003   5.425   2.852  12.620
85702SOL    HW259004   5.455   2.933  12.744
85703SOL     OW59005   3.978   7.595  10.052
85703SOL    HW159006   4.059   7.545  10.065
85703SOL    HW259007   3.973   7.607   9.957
85704SOL     OW59008   0.319  10.039   5.621
85704SOL    HW159009   0.374   9.961   5.619
85704SOL    HW259010   0.268  10.032   5.702
85705SOL     OW59011   4.404   6.476   9.616
85705SOL    HW159012   4.355   6.430   9.548
85705SOL    HW259013   4.456   6.542   9.568
85706SOL     OW59014  10.883   9.599   9.450
85706SOL    HW159015  10.878   9.550   9.368
85706SOL    HW259016  10.817   9.557   9.506
85707SOL     OW59017   2.067  12.589   3.163
85707SOL    HW159018   2.046  12.509   3.115
85707SOL    HW259019   2.147  12.568   3.211
85708SOL     OW59020   2.729   5.151  11.470
85708SOL    HW159021   2.810   5.107  11.496
85708SOL    HW259022   2.696   5.189  11.551
85709SOL     OW59023   5.131   1.879  12.862
85709SOL    HW159024   5.131   1.974  12.854
85709SOL    HW259025   5.199   1.861  12.928
85710SOL     OW59026  11.773   3.332   3.309
85710SOL    HW159027  11.716   3.380   3.369
85710SOL    HW259028  11.729   3.248   3.295
85711SOL     OW59029   5.427   9.161   0.101
85711SOL    HW159030   5.409   9.088   0.042
85711SOL    HW259031   5.450   9.233   0.043
85712SOL     OW59032   4.940  14.389   4.648
85712SOL    HW159033   5.010  14.433   4.695
85712SOL    HW259034   4.922  14.310   4.700
85713SOL     OW59035   4.970   2.388  14.225
85713SOL    HW159036   4.965   2.335  14.305
85713SOL    HW259037   5.064   2.390  14.204
85714SOL     OW59038   9.418   0.960   3.411
85714SOL    HW159039   9.426   1.041   3.462
85714SOL    HW259040   9.497   0.957   3.358
85715SOL     OW59041   4.380  13.720   2.057
85715SOL    HW159042   4.472  13.725   2.032
85715SOL    HW259043   4.374  13.772   2.138
85716SOL     OW59044  11.237  13.450   2.718
85716SOL    HW159045  11.291  13.521   2.682
85716SOL    HW259046  11.214  13.480   2.806
85717SOL     OW59047   6.047  11.775   1.905
85717SOL    HW159048   6.137  11.782   1.876
85717SOL    HW259049   6.039  11.685   1.937
85718SOL     OW59050  14.056  10.231  11.107
85718SOL    HW159051  14.142  10.242  11.147
85718SOL    HW259052  14.072  10.181  11.027
85719SOL     OW59053   7.995   8.980   7.992
85719SOL    HW159054   7.989   9.076   7.988
85719SOL    HW259055   8.007   8.953   7.901
85720SOL     OW59056   3.178   7.142  13.988
85720SOL    HW159057   3.191   7.186  13.904
85720SOL    HW259058   3.134   7.060  13.966
85721SOL     OW59059   8.676  10.514  13.224
85721SOL    HW159060   8.599  10.485  13.274
85721SOL    HW259061   8.749  10.467  13.263
85722SOL     OW59062   7.742   9.691  12.673
85722SOL    HW159063   7.760   9.737  12.755
85722SOL    HW259064   7.648   9.706  12.658
85723SOL     OW59065   6.349   6.310  14.659
85723SOL    HW159066   6.279   6.368  14.628
85723SOL    HW259067   6.312   6.222  14.651
85724SOL     OW59068   3.133  10.146   1.212
85724SOL    HW159069   3.152  10.054   1.230
85724SOL    HW259070   3.042  10.157   1.241
85725SOL     OW59071  13.594   0.286   3.631
85725SOL    HW159072  13.638   0.233   3.565
85725SOL    HW259073  13.662   0.308   3.694
85726SOL     OW59074   1.947  10.375   6.081
85726SOL    HW159075   1.880  10.351   6.017
85726SOL    HW259076   2.025  10.394   6.029
85727SOL     OW59077   2.484  14.245   3.969
85727SOL    HW159078   2.553  14.311   3.962
85727SOL    HW259079   2.427  14.262   3.895
85728SOL     OW59080  14.767   7.085   2.697
85728SOL    HW159081  14.788   7.176   2.720
85728SOL    HW259082  14.845   7.035   2.723
85729SOL     OW59083   7.517  14.011   8.578
85729SOL    HW159084   7.454  13.956   8.531
85729SOL    HW259085   7.556  14.066   8.510
85730SOL     OW59086  12.525  14.796  11.085
85730SOL    HW159087  12.505  14.835  11.170
85730SOL    HW259088  12.457  14.729  11.073
85731SOL     OW59089  10.065   7.143   1.753
85731SOL    HW159090  10.077   7.082   1.826
85731SOL    HW259091  10.007   7.096   1.693
85732SOL     OW59092  11.781  12.662   3.623
85732SOL    HW159093  11.847  12.625   3.681
85732SOL    HW259094  11.818  12.652   3.535
85733SOL     OW59095  11.100   3.747   2.765
85733SOL    HW159096  11.109   3.685   2.838
85733SOL    HW259097  11.030   3.806   2.792
85734SOL     OW59098   7.719  14.349  11.608
85734SOL    HW159099   7.670  14.348  11.526
85734SOL    HW259100   7.769  14.430  11.606
85735SOL     OW59101  10.324   9.488  14.364
85735SOL    HW159102  10.228   9.485  14.362
85735SOL    HW259103  10.348   9.424  14.431
85736SOL     OW59104   6.804  10.965   9.153
85736SOL    HW159105   6.760  10.982   9.236
85736SOL    HW259106   6.733  10.944   9.092
85737SOL     OW59107   6.699   8.015   0.268
85737SOL    HW159108   6.731   7.987   0.182
85737SOL    HW259109   6.605   8.027   0.256
85738SOL     OW59110   9.987   3.502   9.562
85738SOL    HW159111   9.973   3.408   9.552
85738SOL    HW259112   9.940   3.541   9.488
85739SOL     OW59113   4.632   5.838   2.077
85739SOL    HW159114   4.583   5.826   1.996
85739SOL    HW259115   4.715   5.878   2.050
85740SOL     OW59116  11.889   8.372   0.116
85740SOL    HW159117  11.857   8.451   0.072
85740SOL    HW259118  11.810   8.323   0.139
85741SOL     OW59119   2.701   4.162   5.496
85741SOL    HW159120   2.629   4.210   5.454
85741SOL    HW259121   2.676   4.158   5.588
85742SOL     OW59122  10.419   1.871   4.688
85742SOL    HW159123  10.408   1.930   4.614
85742SOL    HW259124  10.502   1.896   4.728
85743SOL     OW59125   1.027  12.466   6.479
85743SOL    HW159126   1.045  12.377   6.451
85743SOL    HW259127   1.110  12.499   6.512
85744SOL     OW59128   5.844   0.424  13.522
85744SOL    HW159129   5.758   0.400  13.488
85744SOL    HW259130   5.870   0.499  13.468
85745SOL     OW59131   5.668  14.424   7.278
85745SOL    HW159132   5.674  14.347   7.221
85745SOL    HW259133   5.648  14.497   7.218
85746SOL     OW59134  10.387   5.297   2.635
85746SOL    HW159135  10.433   5.329   2.557
85746SOL    HW259136  10.351   5.376   2.676
85747SOL     OW59137  10.917   9.308  10.646
85747SOL    HW159138  10.915   9.403  10.655
85747SOL    HW259139  10.825   9.282  10.646
85748SOL     OW59140   7.386  13.089   2.230
85748SOL    HW159141   7.396  13.002   2.191
85748SOL    HW259142   7.292  13.108   2.224
85749SOL     OW59143  10.753  10.176  12.178
85749SOL    HW159144  10.714  10.188  12.265
85749SOL    HW259145  10.703  10.105  12.138
85750SOL     OW59146  14.298  12.063   0.663
85750SOL    HW159147  14.253  11.987   0.628
85750SOL    HW259148  14.229  12.128   0.675
85751SOL     OW59149  13.196  11.998   5.580
85751SOL    HW159150  13.108  11.994   5.618
85751SOL    HW259151  13.182  11.996   5.486
85752SOL     OW59152   6.682   1.731   1.202
85752SOL    HW159153   6.703   1.644   1.236
85752SOL    HW259154   6.758   1.755   1.149
85753SOL     OW59155   5.849   1.214   6.414
85753SOL    HW159156   5.800   1.285   6.372
85753SOL    HW259157   5.783   1.168   6.467
85754SOL     OW59158   6.291   4.231   6.296
85754SOL    HW159159   6.301   4.280   6.214
85754SOL    HW259160   6.232   4.285   6.349
85755SOL     OW59161   6.440   7.780   1.791
85755SOL    HW159162   6.411   7.867   1.762
85755SOL    HW259163   6.451   7.730   1.711
85756SOL     OW59164   0.926   5.074  11.890
85756SOL    HW159165   1.001   5.023  11.861
85756SOL    HW259166   0.916   5.052  11.983
85757SOL     OW59167  11.157   1.574   2.693
85757SOL    HW159168  11.086   1.607   2.748
85757SOL    HW259169  11.118   1.501   2.646
85758SOL     OW59170   1.630   7.350   8.343
85758SOL    HW159171   1.579   7.329   8.421
85758SOL    HW259172   1.617   7.444   8.330
85759SOL     OW59173   6.493   9.049   8.230
85759SOL    HW159174   6.412   9.063   8.278
85759SOL    HW259175   6.537   8.978   8.278
85760SOL     OW59176   6.322  11.473   7.027
85760SOL    HW159177   6.394  11.528   7.056
85760SOL    HW259178   6.355  11.429   6.948
85761SOL     OW59179   8.955   9.083  10.066
85761SOL    HW159180   8.932   9.007  10.118
85761SOL    HW259181   8.880   9.142  10.075
85762SOL     OW59182   4.581   4.810   2.883
85762SOL    HW159183   4.568   4.841   2.972
85762SOL    HW259184   4.616   4.721   2.894
85763SOL     OW59185  11.583  13.673   5.880
85763SOL    HW159186  11.581  13.679   5.785
85763SOL    HW259187  11.640  13.598   5.898
85764SOL     OW59188   1.116  12.613   8.771
85764SOL    HW159189   1.095  12.682   8.834
85764SOL    HW259190   1.186  12.563   8.814
85765SOL     OW59191   2.798   9.912  12.902
85765SOL    HW159192   2.845   9.995  12.900
85765SOL    HW259193   2.756   9.910  12.988
85766SOL     OW59194   7.718  10.762   2.849
85766SOL    HW159195   7.681  10.795   2.768
85766SOL    HW259196   7.811  10.752   2.830
85767SOL     OW59197  14.647   5.277   9.247
85767SOL    HW159198  14.686   5.227   9.175
85767SOL    HW259199  14.691   5.362   9.243
85768SOL     OW59200   5.774   3.119  10.295
85768SOL    HW159201   5.742   3.030  10.309
85768SOL    HW259202   5.699   3.167  10.260
85769SOL     OW59203  12.817   2.869  11.949
85769SOL    HW159204  12.878   2.911  11.888
85769SOL    HW259205  12.835   2.775  11.940
85770SOL     OW59206   5.411   7.630   0.216
85770SOL    HW159207   5.364   7.651   0.135
85770SOL    HW259208   5.357   7.563   0.258
85771SOL     OW59209  10.421   9.645   4.437
85771SOL    HW159210  10.438   9.724   4.488
85771SOL    HW259211  10.387   9.582   4.500
85772SOL     OW59212   3.026   2.849   7.148
85772SOL    HW159213   2.989   2.922   7.198
85772SOL    HW259214   3.110   2.882   7.117
85773SOL     OW59215   2.150   7.556  14.766
85773SOL    HW159216   2.215   7.567  14.696
85773SOL    HW259217   2.186   7.486  14.821
85774SOL     OW59218  12.409   9.205   6.190
85774SOL    HW159219  12.378   9.161   6.111
85774SOL    HW259220  12.460   9.280   6.159
85775SOL     OW59221   8.655   1.886   6.930
85775SOL    HW159222   8.621   1.813   6.879
85775SOL    HW259223   8.649   1.961   6.871
85776SOL     OW59224   4.889  11.214   5.922
85776SOL    HW159225   4.905  11.304   5.892
85776SOL    HW259226   4.797  11.213   5.949
85777SOL     OW59227  10.427   6.799   9.925
85777SOL    HW159228  10.451   6.800   9.833
85777SOL    HW259229  10.495   6.747   9.967
85778SOL     OW59230  12.511   7.285  12.473
85778SOL    HW159231  12.423   7.296  12.509
85778SOL    HW259232  12.564   7.349  12.520
85779SOL     OW59233   3.239   5.201   1.097
85779SOL    HW159234   3.313   5.152   1.132
85779SOL    HW259235   3.260   5.215   1.004
85780SOL     OW59236  11.230   8.883   0.947
85780SOL    HW159237  11.278   8.840   0.877
85780SOL    HW259238  11.177   8.949   0.903
85781SOL     OW59239  11.636   8.205   3.711
85781SOL    HW159240  11.673   8.284   3.751
85781SOL    HW259241  11.713   8.157   3.679
85782SOL     OW59242   2.269  10.283   2.047
85782SOL    HW159243   2.306  10.364   2.083
85782SOL    HW259244   2.277  10.294   1.952
85783SOL     OW59245   0.159   1.960   8.929
85783SOL    HW159246   0.110   1.991   8.853
85783SOL    HW259247   0.197   1.877   8.900
85784SOL     OW59248   3.782  13.728   2.968
85784SOL    HW159249   3.747  13.720   3.056
85784SOL    HW259250   3.712  13.696   2.911
85785SOL     OW59251   6.529   4.617   9.847
85785SOL    HW159252   6.537   4.660   9.761
85785SOL    HW259253   6.566   4.680   9.908
85786SOL     OW59254  13.586   0.945   4.572
85786SOL    HW159255  13.521   1.013   4.554
85786SOL    HW259256  13.567   0.917   4.661
85787SOL     OW59257   8.433   9.005  14.009
85787SOL    HW159258   8.364   9.068  14.027
85787SOL    HW259259   8.389   8.936  13.959
85788SOL     OW59260  11.297  10.834   6.380
85788SOL    HW159261  11.324  10.787   6.458
85788SOL    HW259262  11.357  10.804   6.312
85789SOL     OW59263   5.168   0.260  10.993
85789SOL    HW159264   5.113   0.337  10.976
85789SOL    HW259265   5.251   0.280  10.949
85790SOL     OW59266   7.971   1.816  10.862
85790SOL    HW159267   7.970   1.901  10.907
85790SOL    HW259268   7.923   1.758  10.921
85791SOL     OW59269   4.275   9.251  12.283
85791SOL    HW159270   4.364   9.236  12.250
85791SOL    HW259271   4.275   9.213  12.370
85792SOL     OW59272   6.884   9.110  12.510
85792SOL    HW159273   6.880   9.182  12.447
85792SOL    HW259274   6.912   9.150  12.592
85793SOL     OW59275   7.292  13.827   6.958
85793SOL    HW159276   7.351  13.761   6.922
85793SOL    HW259277   7.237  13.779   7.020
85794SOL     OW59278  14.392  11.631   2.222
85794SOL    HW159279  14.368  11.640   2.130
85794SOL    HW259280  14.466  11.690   2.234
85795SOL     OW59281   0.571  11.719   5.022
85795SOL    HW159282   0.517  11.706   4.944
85795SOL    HW259283   0.542  11.802   5.058
85796SOL     OW59284   0.237   8.919  12.066
85796SOL    HW159285   0.291   8.986  12.024
85796SOL    HW259286   0.161   8.967  12.100
85797SOL     OW59287   7.884  12.373  12.963
85797SOL    HW159288   7.813  12.412  12.912
85797SOL    HW259289   7.851  12.286  12.988
85798SOL     OW59290   1.649   4.491   8.034
85798SOL    HW159291   1.594   4.434   8.086
85798SOL    HW259292   1.652   4.449   7.948
85799SOL     OW59293   9.952   2.804   3.565
85799SOL    HW159294   9.995   2.726   3.528
85799SOL    HW259295   9.996   2.819   3.649
85800SOL     OW59296   0.430   1.462  10.678
85800SOL    HW159297   0.437   1.423  10.591
85800SOL    HW259298   0.459   1.553  10.667
85801SOL     OW59299   2.447   3.066  13.422
85801SOL    HW159300   2.522   3.050  13.366
85801SOL    HW259301   2.438   3.161  13.424
85802SOL     OW59302   2.304   6.180   7.125
85802SOL    HW159303   2.378   6.148   7.073
85802SOL    HW259304   2.252   6.102   7.144
85803SOL     OW59305   7.550   7.554   8.845
85803SOL    HW159306   7.515   7.483   8.792
85803SOL    HW259307   7.594   7.510   8.918
85804SOL     OW59308   3.716   4.842   3.961
85804SOL    HW159309   3.778   4.899   4.007
85804SOL    HW259310   3.749   4.753   3.976
85805SOL     OW59311   1.245   0.216  11.672
85805SOL    HW159312   1.220   0.300  11.633
85805SOL    HW259313   1.324   0.191  11.624
85806SOL     OW59314  13.649   2.480   7.409
85806SOL    HW159315  13.643   2.571   7.440
85806SOL    HW259316  13.567   2.440   7.437
85807SOL     OW59317  10.660  12.552  13.385
85807SOL    HW159318  10.580  12.604  13.384
85807SOL    HW259319  10.629  12.461  13.390
85808SOL     OW59320   9.126   9.608   5.237
85808SOL    HW159321   9.041   9.635   5.202
85808SOL    HW259322   9.107   9.580   5.326
85809SOL     OW59323  10.045   3.880  11.242
85809SOL    HW159324  10.020   3.971  11.223
85809SOL    HW259325  10.138   3.876  11.218
85810SOL     OW59326   1.534   6.704   8.963
85810SOL    HW159327   1.445   6.738   8.968
85810SOL    HW259328   1.566   6.733   8.878
85811SOL     OW59329   8.524   0.695   1.918
85811SOL    HW159330   8.567   0.611   1.903
85811SOL    HW259331   8.430   0.675   1.916
85812SOL     OW59332   9.577   2.776  13.683
85812SOL    HW159333   9.543   2.686  13.689
85812SOL    HW259334   9.653   2.776  13.741
85813SOL     OW59335   8.433   1.402  10.076
85813SOL    HW159336   8.428   1.401   9.981
85813SOL    HW259337   8.511   1.350  10.096
85814SOL     OW59338   1.178  12.074   1.085
85814SOL    HW159339   1.251  12.038   1.035
85814SOL    HW259340   1.212  12.084   1.174
85815SOL     OW59341   1.568   3.347   6.730
85815SOL    HW159342   1.621   3.276   6.766
85815SOL    HW259343   1.563   3.411   6.801
85816SOL     OW59344  14.434   4.329   2.864
85816SOL    HW159345  14.341   4.352   2.870
85816SOL    HW259346  14.447   4.261   2.930
85817SOL     OW59347   4.631   1.604   2.262
85817SOL    HW159348   4.551   1.571   2.302
85817SOL    HW259349   4.702   1.566   2.315
85818SOL     OW59350   7.596   3.304   8.300
85818SOL    HW159351   7.601   3.377   8.238
85818SOL    HW259352   7.581   3.227   8.245
85819SOL     OW59353   6.113  14.621   1.178
85819SOL    HW159354   6.026  14.654   1.155
85819SOL    HW259355   6.157  14.696   1.219
85820SOL     OW59356  13.298   4.926   9.887
85820SOL    HW159357  13.254   4.994   9.939
85820SOL    HW259358  13.231   4.894   9.827
85821SOL     OW59359   7.682   4.255   3.337
85821SOL    HW159360   7.628   4.296   3.405
85821SOL    HW259361   7.696   4.324   3.273
85822SOL     OW59362  10.556   7.408   3.594
85822SOL    HW159363  10.591   7.319   3.601
85822SOL    HW259364  10.554   7.425   3.500
85823SOL     OW59365   3.716  10.665   5.702
85823SOL    HW159366   3.789  10.614   5.667
85823SOL    HW259367   3.714  10.646   5.795
85824SOL     OW59368  10.023   7.061   6.466
85824SOL    HW159369   9.934   7.044   6.436
85824SOL    HW259370  10.068   7.096   6.388
85825SOL     OW59371   2.605   9.265   9.757
85825SOL    HW159372   2.535   9.218   9.712
85825SOL    HW259373   2.603   9.353   9.719
85826SOL     OW59374   2.244   6.207   7.387
85826SOL    HW159375   2.153   6.238   7.394
85826SOL    HW259376   2.255   6.188   7.294
85827SOL     OW59377   3.662   5.011   7.229
85827SOL    HW159378   3.669   4.930   7.179
85827SOL    HW259379   3.729   5.068   7.193
85828SOL     OW59380  11.524   6.708  12.031
85828SOL    HW159381  11.501   6.668  12.115
85828SOL    HW259382  11.481   6.793  12.033
85829SOL     OW59383   9.680  11.664  13.835
85829SOL    HW159384   9.674  11.736  13.898
85829SOL    HW259385   9.606  11.677  13.776
85830SOL     OW59386   8.663   9.379  11.393
85830SOL    HW159387   8.607   9.322  11.445
85830SOL    HW259388   8.645   9.467  11.427
85831SOL     OW59389   6.683   5.106   5.224
85831SOL    HW159390   6.640   5.190   5.238
85831SOL    HW259391   6.769   5.128   5.187
85832SOL     OW59392  11.750   8.539   0.759
85832SOL    HW159393  11.766   8.493   0.841
85832SOL    HW259394  11.682   8.487   0.715
85833SOL     OW59395   6.997   3.329   7.393
85833SOL    HW159396   7.065   3.396   7.386
85833SOL    HW259397   6.992   3.309   7.486
85834SOL     OW59398  13.491  13.267   8.561
85834SOL    HW159399  13.398  13.250   8.580
85834SOL    HW259400  13.494  13.279   8.467
85835SOL     OW59401   1.705   7.305  10.112
85835SOL    HW159402   1.645   7.237  10.080
85835SOL    HW259403   1.709   7.369  10.042
85836SOL     OW59404   6.955   2.864   2.771
85836SOL    HW159405   7.034   2.825   2.807
85836SOL    HW259406   6.963   2.957   2.790
85837SOL     OW59407   7.268  11.552   1.841
85837SOL    HW159408   7.267  11.468   1.887
85837SOL    HW259409   7.360  11.571   1.826
85838SOL     OW59410   9.398  13.407   9.013
85838SOL    HW159411   9.386  13.378   9.104
85838SOL    HW259412   9.388  13.502   9.016
85839SOL     OW59413  10.736   0.561  10.843
85839SOL    HW159414  10.746   0.651  10.811
85839SOL    HW259415  10.641   0.551  10.855
85840SOL     OW59416  14.079   0.198   7.415
85840SOL    HW159417  14.157   0.144   7.401
85840SOL    HW259418  14.010   0.136   7.440
85841SOL     OW59419  10.561   0.421  13.176
85841SOL    HW159420  10.622   0.494  13.162
85841SOL    HW259421  10.475   0.456  13.152
85842SOL     OW59422   4.754   1.205   6.298
85842SOL    HW159423   4.837   1.170   6.265
85842SOL    HW259424   4.698   1.209   6.220
85843SOL     OW59425   6.738   8.454  14.337
85843SOL    HW159426   6.772   8.486  14.421
85843SOL    HW259427   6.758   8.524  14.275
85844SOL     OW59428   0.122  12.949   5.430
85844SOL    HW159429   0.091  13.016   5.369
85844SOL    HW259430   0.125  12.869   5.378
85845SOL     OW59431   9.030   4.426   0.894
85845SOL    HW159432   9.065   4.474   0.968
85845SOL    HW259433   8.981   4.354   0.934
85846SOL     OW59434   1.854  14.112   8.623
85846SOL    HW159435   1.917  14.063   8.676
85846SOL    HW259436   1.812  14.171   8.685
85847SOL     OW59437  10.554   7.450  13.457
85847SOL    HW159438  10.545   7.360  13.427
85847SOL    HW259439  10.648   7.462  13.468
85848SOL     OW59440  13.270   4.573  13.368
85848SOL    HW159441  13.345   4.520  13.342
85848SOL    HW259442  13.295   4.610  13.453
85849SOL     OW59443   5.752  10.040   3.893
85849SOL    HW159444   5.705   9.971   3.845
85849SOL    HW259445   5.827  10.061   3.836
85850SOL     OW59446  11.148   8.155   0.851
85850SOL    HW159447  11.089   8.181   0.922
85850SOL    HW259448  11.221   8.217   0.856
85851SOL     OW59449  14.554   2.915   8.074
85851SOL    HW159450  14.511   2.992   8.112
85851SOL    HW259451  14.483   2.860   8.042
85852SOL     OW59452   0.976  14.702  10.238
85852SOL    HW159453   1.052  14.760  10.238
85852SOL    HW259454   0.901  14.762  10.236
85853SOL     OW59455   0.389   6.593   8.979
85853SOL    HW159456   0.459   6.619   9.039
85853SOL    HW259457   0.365   6.505   9.007
85854SOL     OW59458   4.545  12.820  11.411
85854SOL    HW159459   4.627  12.772  11.411
85854SOL    HW259460   4.482  12.760  11.371
85855SOL     OW59461   5.314   1.817   2.792
85855SOL    HW159462   5.361   1.870   2.857
85855SOL    HW259463   5.376   1.748   2.768
85856SOL     OW59464   4.896   9.662   8.928
85856SOL    HW159465   4.924   9.574   8.900
85856SOL    HW259466   4.884   9.710   8.846
85857SOL     OW59467   3.359   6.700   2.014
85857SOL    HW159468   3.451   6.681   2.032
85857SOL    HW259469   3.361   6.758   1.938
85858SOL     OW59470  12.083   9.011   7.049
85858SOL    HW159471  12.133   8.971   7.120
85858SOL    HW259472  12.039   9.086   7.089
85859SOL     OW59473   7.337   8.625   6.157
85859SOL    HW159474   7.425   8.588   6.169
85859SOL    HW259475   7.327   8.686   6.230
85860SOL     OW59476   4.407   6.049   5.828
85860SOL    HW159477   4.502   6.037   5.823
85860SOL    HW259478   4.394   6.102   5.907
85861SOL     OW59479  12.645   2.634   2.342
85861SOL    HW159480  12.557   2.666   2.324
85861SOL    HW259481  12.633   2.542   2.365
85862SOL     OW59482  11.118   5.702   2.252
85862SOL    HW159483  11.074   5.618   2.245
85862SOL    HW259484  11.138   5.711   2.346
85863SOL     OW59485   5.008   0.411  14.558
85863SOL    HW159486   4.953   0.462  14.498
85863SOL    HW259487   5.090   0.399  14.512
85864SOL     OW59488  11.906   3.612   3.980
85864SOL    HW159489  11.884   3.605   3.887
85864SOL    HW259490  11.875   3.699   4.006
85865SOL     OW59491  10.044  12.598   2.629
85865SOL    HW159492  10.070  12.689   2.616
85865SOL    HW259493   9.959  12.591   2.586
85866SOL     OW59494   7.709   1.527  13.962
85866SOL    HW159495   7.685   1.443  13.922
85866SOL    HW259496   7.732   1.506  14.052
85867SOL     OW59497   5.299  13.926   4.169
85867SOL    HW159498   5.281  14.020   4.164
85867SOL    HW259499   5.385  13.916   4.128
85868SOL     OW59500   6.938  11.115   2.696
85868SOL    HW159501   6.868  11.051   2.690
85868SOL    HW259502   6.914  11.170   2.770
85869SOL     OW59503   9.035   0.878   5.053
85869SOL    HW159504   9.079   0.915   4.976
85869SOL    HW259505   8.942   0.888   5.035
85870SOL     OW59506   1.702   0.957   5.108
85870SOL    HW159507   1.656   0.875   5.128
85870SOL    HW259508   1.635   1.015   5.073
85871SOL     OW59509   6.249   8.292   1.375
85871SOL    HW159510   6.167   8.253   1.405
85871SOL    HW259511   6.314   8.263   1.439
85872SOL     OW59512   9.028  11.022  14.308
85872SOL    HW159513   8.938  11.053  14.311
85872SOL    HW259514   9.081  11.101  14.304
85873SOL     OW59515  12.257  13.712   8.551
85873SOL    HW159516  12.173  13.755   8.539
85873SOL    HW259517  12.242  13.621   8.525
85874SOL     OW59518  11.355   1.553   5.466
85874SOL    HW159519  11.431   1.594   5.424
85874SOL    HW259520  11.308   1.511   5.394
85875SOL     OW59521  10.556   7.177  13.401
85875SOL    HW159522  10.560   7.095  13.353
85875SOL    HW259523  10.463   7.196  13.409
85876SOL     OW59524   3.980   1.126  10.313
85876SOL    HW159525   4.037   1.181  10.259
85876SOL    HW259526   3.901   1.113  10.261
85877SOL     OW59527  14.707   8.214  11.268
85877SOL    HW159528  14.648   8.168  11.208
85877SOL    HW259529  14.740   8.288  11.217
85878SOL     OW59530   3.626  10.688   8.444
85878SOL    HW159531   3.574  10.629   8.497
85878SOL    HW259532   3.678  10.631   8.387
85879SOL     OW59533  13.830   4.566  14.494
85879SOL    HW159534  13.746   4.520  14.490
85879SOL    HW259535  13.822   4.625  14.569
85880SOL     OW59536   7.349   6.348  11.803
85880SOL    HW159537   7.315   6.419  11.749
85880SOL    HW259538   7.373   6.280  11.741
85881SOL     OW59539  12.903  10.418  14.777
85881SOL    HW159540  12.920  10.511  14.764
85881SOL    HW259541  12.969  10.391  14.841
85882SOL     OW59542   1.263  11.892  10.047
85882SOL    HW159543   1.232  11.859  10.132
85882SOL    HW259544   1.336  11.949  10.070
85883SOL     OW59545  10.833   7.247  14.335
85883SOL    HW159546  10.761   7.213  14.388
85883SOL    HW259547  10.912   7.220  14.381
85884SOL     OW59548   0.526   9.992   8.780
85884SOL    HW159549   0.475  10.069   8.801
85884SOL    HW259550   0.468   9.939   8.725
85885SOL     OW59551  11.969  10.876   2.069
85885SOL    HW159552  11.945  10.809   2.133
85885SOL    HW259553  11.933  10.843   1.986
85886SOL     OW59554  14.846   5.200   4.273
85886SOL    HW159555  14.872   5.192   4.365
85886SOL    HW259556   0.040   5.191   4.224
85887SOL     OW59557   0.063   8.281  14.223
85887SOL    HW159558   0.133   8.220  14.244
85887SOL    HW259559   0.035   8.256  14.135
85888SOL     OW59560   2.618   6.549  10.493
85888SOL    HW159561   2.685   6.564  10.426
85888SOL    HW259562   2.649   6.599  10.569
85889SOL     OW59563   2.479  13.682   7.665
85889SOL    HW159564   2.557  13.724   7.626
85889SOL    HW259565   2.421  13.667   7.590
85890SOL     OW59566  12.163   1.236  10.580
85890SOL    HW159567  12.154   1.142  10.596
85890SOL    HW259568  12.192   1.272  10.664
85891SOL     OW59569   0.836   0.604   2.929
85891SOL    HW159570   0.870   0.542   2.864
85891SOL    HW259571   0.784   0.666   2.877
85892SOL     OW59572  10.093   5.578   5.335
85892SOL    HW159573  10.170   5.531   5.367
85892SOL    HW259574  10.118   5.670   5.339
85893SOL     OW59575   0.986   5.057   5.811
85893SOL    HW159576   0.907   5.011   5.785
85893SOL    HW259577   1.058   4.997   5.788
85894SOL     OW59578   7.852  10.646  12.070
85894SOL    HW159579   7.845  10.630  11.976
85894SOL    HW259580   7.943  10.625  12.091
85895SOL     OW59581   1.345   3.440  11.166
85895SOL    HW159582   1.391   3.381  11.106
85895SOL    HW259583   1.255   3.443  11.132
85896SOL     OW59584  13.412  10.176  11.722
85896SOL    HW159585  13.346  10.108  11.712
85896SOL    HW259586  13.494  10.133  11.697
85897SOL     OW59587  11.971   2.063  13.939
85897SOL    HW159588  12.030   2.004  13.890
85897SOL    HW259589  11.888   2.016  13.941
85898SOL     OW59590   4.382   1.665  12.031
85898SOL    HW159591   4.367   1.571  12.025
85898SOL    HW259592   4.298   1.700  12.064
85899SOL     OW59593   0.946  13.343  12.990
85899SOL    HW159594   0.945  13.345  13.086
85899SOL    HW259595   0.927  13.433  12.964
85900SOL     OW59596   1.659  13.721  12.659
85900SOL    HW159597   1.621  13.793  12.709
85900SOL    HW259598   1.584  13.665  12.637
85901SOL     OW59599   2.486  14.572   2.132
85901SOL    HW159600   2.443  14.578   2.218
85901SOL    HW259601   2.571  14.533   2.151
85902SOL     OW59602  11.091   2.072  10.212
85902SOL    HW159603  11.033   2.025  10.152
85902SOL    HW259604  11.063   2.044  10.299
85903SOL     OW59605  14.789  11.113   7.227
85903SOL    HW159606  14.708  11.146   7.187
85903SOL    HW259607  14.760  11.056   7.298
85904SOL     OW59608   0.724   9.323   5.229
85904SOL    HW159609   0.785   9.303   5.300
85904SOL    HW259610   0.694   9.237   5.199
85905SOL     OW59611  13.913   7.595  12.970
85905SOL    HW159612  13.973   7.541  13.022
85905SOL    HW259613  13.907   7.550  12.885
85906SOL     OW59614   1.905   2.399   8.352
85906SOL    HW159615   1.949   2.466   8.405
85906SOL    HW259616   1.812   2.420   8.359
85907SOL     OW59617  12.714   5.009   6.682
85907SOL    HW159618  12.670   5.094   6.688
85907SOL    HW259619  12.766   5.004   6.762
85908SOL     OW59620  14.561  14.796  11.703
85908SOL    HW159621  14.480  14.769  11.746
85908SOL    HW259622  14.551   0.003  11.689
85909SOL     OW59623   2.535   2.382   9.756
85909SOL    HW159624   2.552   2.415   9.667
85909SOL    HW259625   2.568   2.292   9.754
85910SOL     OW59626   2.228   4.538  11.137
85910SOL    HW159627   2.222   4.631  11.156
85910SOL    HW259628   2.322   4.521  11.131
85911SOL     OW59629   2.228   1.674   4.329
85911SOL    HW159630   2.205   1.670   4.422
85911SOL    HW259631   2.301   1.612   4.320
85912SOL     OW59632   0.769   6.786   6.871
85912SOL    HW159633   0.814   6.703   6.881
85912SOL    HW259634   0.836   6.852   6.886
85913SOL     OW59635   9.839   4.881  14.161
85913SOL    HW159636   9.924   4.924  14.151
85913SOL    HW259637   9.775   4.951  14.151
85914SOL     OW59638   8.370  12.678   9.946
85914SOL    HW159639   8.320  12.757   9.969
85914SOL    HW259640   8.432  12.668  10.018
85915SOL     OW59641   3.889   4.009   4.443
85915SOL    HW159642   3.808   4.040   4.402
85915SOL    HW259643   3.860   3.947   4.510
85916SOL     OW59644   7.993   9.097   8.706
85916SOL    HW159645   8.029   9.022   8.754
85916SOL    HW259646   7.937   9.142   8.769
85917SOL     OW59647   9.829   5.785   3.372
85917SOL    HW159648   9.906   5.813   3.323
85917SOL    HW259649   9.862   5.759   3.458
85918SOL     OW59650  10.753   9.558   1.529
85918SOL    HW159651  10.702   9.479   1.510
85918SOL    HW259652  10.845   9.530   1.523
85919SOL     OW59653   8.354  14.132   6.362
85919SOL    HW159654   8.321  14.075   6.431
85919SOL    HW259655   8.286  14.131   6.294
85920SOL     OW59656  11.424  13.858   1.857
85920SOL    HW159657  11.406  13.776   1.811
85920SOL    HW259658  11.486  13.905   1.801
85921SOL     OW59659   7.112   8.038   0.054
85921SOL    HW159660   7.042   7.974   0.062
85921SOL    HW259661   7.128   8.069   0.143
85922SOL     OW59662  11.271   3.297   3.789
85922SOL    HW159663  11.182   3.330   3.774
85922SOL    HW259664  11.319   3.374   3.819
85923SOL     OW59665  12.223  11.938  12.231
85923SOL    HW159666  12.200  12.000  12.300
85923SOL    HW259667  12.289  11.881  12.272
85924SOL     OW59668   7.450   2.741  14.767
85924SOL    HW159669   7.371   2.762  14.816
85924SOL    HW259670   7.521   2.747  14.831
85925SOL     OW59671  11.101   0.469  13.500
85925SOL    HW159672  11.130   0.517  13.423
85925SOL    HW259673  11.182   0.447  13.546
85926SOL     OW59674   7.798   7.017   7.190
85926SOL    HW159675   7.822   7.088   7.131
85926SOL    HW259676   7.703   7.009   7.181
85927SOL     OW59677  11.756   5.373   4.652
85927SOL    HW159678  11.842   5.414   4.664
85927SOL    HW259679  11.775   5.283   4.626
85928SOL     OW59680  11.054   1.341   5.974
85928SOL    HW159681  11.086   1.331   6.064
85928SOL    HW259682  11.002   1.422   5.976
85929SOL     OW59683   9.632   8.880   0.233
85929SOL    HW159684   9.538   8.869   0.222
85929SOL    HW259685   9.671   8.842   0.155
85930SOL     OW59686   0.082   8.136  12.818
85930SOL    HW159687   0.010   8.160  12.759
85930SOL    HW259688   0.110   8.220  12.855
85931SOL     OW59689   0.637   9.586  12.327
85931SOL    HW159690   0.655   9.508  12.274
85931SOL    HW259691   0.696   9.653  12.293
85932SOL     OW59692   9.958   1.650   6.858
85932SOL    HW159693   9.914   1.653   6.773
85932SOL    HW259694   9.994   1.561   6.862
85933SOL     OW59695   9.421   3.648   6.653
85933SOL    HW159696   9.482   3.638   6.725
85933SOL    HW259697   9.335   3.650   6.694
85934SOL     OW59698   8.929  10.394  13.280
85934SOL    HW159699   9.021  10.394  13.306
85934SOL    HW259700   8.917  10.312  13.234
85935SOL     OW59701   1.885   7.113   4.985
85935SOL    HW159702   1.935   7.095   4.906
85935SOL    HW259703   1.907   7.041   5.044
85936SOL     OW59704   9.016  12.809   7.574
85936SOL    HW159705   9.035  12.740   7.638
85936SOL    HW259706   8.921  12.807   7.565
85937SOL     OW59707   7.234  13.514  12.598
85937SOL    HW159708   7.260  13.595  12.643
85937SOL    HW259709   7.225  13.540  12.506
85938SOL     OW59710   8.456  11.627   9.506
85938SOL    HW159711   8.407  11.708   9.520
85938SOL    HW259712   8.539  11.641   9.552
85939SOL     OW59713  10.647  14.246   6.248
85939SOL    HW159714  10.630  14.156   6.275
85939SOL    HW259715  10.700  14.283   6.319
85940SOL     OW59716   8.944   5.821  13.549
85940SOL    HW159717   9.010   5.887  13.528
85940SOL    HW259718   8.867   5.846  13.497
85941SOL     OW59719   3.065   6.521  14.056
85941SOL    HW159720   3.110   6.575  13.991
85941SOL    HW259721   2.993   6.480  14.008
85942SOL     OW59722   1.510   0.937   5.382
85942SOL    HW159723   1.482   0.876   5.314
85942SOL    HW259724   1.498   0.888   5.464
85943SOL     OW59725   1.069   9.507   9.819
85943SOL    HW159726   1.030   9.494   9.733
85943SOL    HW259727   0.995   9.509   9.880
85944SOL     OW59728   5.041   9.354   1.322
85944SOL    HW159729   5.094   9.342   1.242
85944SOL    HW259730   5.086   9.424   1.369
85945SOL     OW59731   5.890  13.893   7.732
85945SOL    HW159732   5.853  13.981   7.741
85945SOL    HW259733   5.875  13.852   7.817
85946SOL     OW59734   2.453   1.319   3.117
85946SOL    HW159735   2.475   1.247   3.057
85946SOL    HW259736   2.417   1.387   3.060
85947SOL     OW59737  12.338   8.293  13.559
85947SOL    HW159738  12.282   8.230  13.604
85947SOL    HW259739  12.402   8.319  13.625
85948SOL     OW59740   7.609   6.273  14.162
85948SOL    HW159741   7.591   6.183  14.188
85948SOL    HW259742   7.604   6.323  14.243
85949SOL     OW59743   5.000   3.909   3.137
85949SOL    HW159744   4.994   3.852   3.213
85949SOL    HW259745   5.008   3.849   3.063
85950SOL     OW59746   7.523  11.246  12.014
85950SOL    HW159747   7.509  11.333  11.976
85950SOL    HW259748   7.545  11.263  12.105
85951SOL     OW59749   4.407   1.709  11.494
85951SOL    HW159750   4.441   1.741  11.410
85951SOL    HW259751   4.424   1.780  11.555
85952SOL     OW59752  12.767   6.229   7.784
85952SOL    HW159753  12.797   6.140   7.803
85952SOL    HW259754  12.702   6.218   7.715
85953SOL     OW59755   6.591  11.739  13.287
85953SOL    HW159756   6.510  11.691  13.307
85953SOL    HW259757   6.661  11.676  13.306
85954SOL     OW59758   2.275   5.539  14.542
85954SOL    HW159759   2.332   5.606  14.504
85954SOL    HW259760   2.304   5.457  14.502
85955SOL     OW59761   0.976   0.241   9.691
85955SOL    HW159762   0.924   0.209   9.617
85955SOL    HW259763   0.968   0.173   9.757
85956SOL     OW59764   5.514   2.982   4.169
85956SOL    HW159765   5.491   3.060   4.120
85956SOL    HW259766   5.507   2.910   4.106
85957SOL     OW59767   3.343   6.324  13.018
85957SOL    HW159768   3.253   6.343  12.991
85957SOL    HW259769   3.334   6.284  13.104
85958SOL     OW59770  14.821  11.299   0.750
85958SOL    HW159771  14.770  11.369   0.708
85958SOL    HW259772  14.800  11.308   0.843
85959SOL     OW59773  12.335  12.481   6.689
85959SOL    HW159774  12.301  12.562   6.651
85959SOL    HW259775  12.404  12.509   6.748
85960SOL     OW59776  10.937   4.716   7.565
85960SOL    HW159777  10.913   4.806   7.540
85960SOL    HW259778  10.871   4.661   7.524
85961SOL     OW59779   4.288   3.540   0.635
85961SOL    HW159780   4.271   3.451   0.606
85961SOL    HW259781   4.302   3.590   0.554
85962SOL     OW59782  14.800   2.408   0.579
85962SOL    HW159783  14.827   2.488   0.533
85962SOL    HW259784  14.731   2.437   0.639
85963SOL     OW59785   0.147  14.333   7.297
85963SOL    HW159786   0.166  14.401   7.233
85963SOL    HW259787   0.088  14.375   7.360
85964SOL     OW59788   4.077  10.013   1.605
85964SOL    HW159789   3.997   9.961   1.598
85964SOL    HW259790   4.061  10.074   1.677
85965SOL     OW59791   7.719  14.148   8.912
85965SOL    HW159792   7.764  14.225   8.878
85965SOL    HW259793   7.632  14.151   8.870
85966SOL     OW59794   9.729   8.453   1.455
85966SOL    HW159795   9.798   8.511   1.487
85966SOL    HW259796   9.775   8.385   1.406
85967SOL     OW59797  12.442   6.576   4.461
85967SOL    HW159798  12.395   6.535   4.388
85967SOL    HW259799  12.373   6.610   4.518
85968SOL     OW59800   8.407   4.440   3.411
85968SOL    HW159801   8.436   4.355   3.379
85968SOL    HW259802   8.330   4.460   3.358
85969SOL     OW59803   3.490   7.591   4.057
85969SOL    HW159804   3.453   7.529   3.994
85969SOL    HW259805   3.554   7.641   4.007
85970SOL     OW59806   5.523  10.074   1.396
85970SOL    HW159807   5.544  10.079   1.489
85970SOL    HW259808   5.477   9.991   1.386
85971SOL     OW59809  10.163   4.616  11.818
85971SOL    HW159810  10.096   4.678  11.844
85971SOL    HW259811  10.233   4.628  11.883
85972SOL     OW59812  14.029   9.460  10.302
85972SOL    HW159813  13.941   9.456  10.341
85972SOL    HW259814  14.012   9.470  10.208
85973SOL     OW59815   1.345   0.801   6.074
85973SOL    HW159816   1.254   0.827   6.087
85973SOL    HW259817   1.362   0.737   6.144
85974SOL     OW59818  12.127  10.666  11.555
85974SOL    HW159819  12.216  10.689  11.526
85974SOL    HW259820  12.119  10.573  11.532
85975SOL     OW59821   1.322   9.607   9.162
85975SOL    HW159822   1.360   9.693   9.178
85975SOL    HW259823   1.325   9.597   9.066
85976SOL     OW59824   9.879   2.912   5.250
85976SOL    HW159825   9.791   2.941   5.274
85976SOL    HW259826   9.898   2.957   5.167
85977SOL     OW59827   5.386  14.480   0.820
85977SOL    HW159828   5.419  14.467   0.731
85977SOL    HW259829   5.310  14.422   0.826
85978SOL     OW59830   0.457  13.956   4.864
85978SOL    HW159831   0.548  13.946   4.837
85978SOL    HW259832   0.455  13.924   4.954
85979SOL     OW59833   8.364  13.582  12.242
85979SOL    HW159834   8.415  13.508  12.208
85979SOL    HW259835   8.425  13.631  12.296
85980SOL     OW59836  12.384   3.467   2.318
85980SOL    HW159837  12.413   3.385   2.278
85980SOL    HW259838  12.379   3.529   2.245
85981SOL     OW59839   9.666   2.771   3.323
85981SOL    HW159840   9.659   2.793   3.416
85981SOL    HW259841   9.648   2.677   3.319
85982SOL     OW59842   3.358   9.752   6.402
85982SOL    HW159843   3.294   9.811   6.442
85982SOL    HW259844   3.353   9.672   6.455
85983SOL     OW59845  13.414   1.850   9.049
85983SOL    HW159846  13.385   1.761   9.071
85983SOL    HW259847  13.485   1.838   8.986
85984SOL     OW59848   7.251   1.335   7.581
85984SOL    HW159849   7.198   1.310   7.505
85984SOL    HW259850   7.218   1.282   7.653
85985SOL     OW59851   8.030   9.284   7.503
85985SOL    HW159852   8.039   9.366   7.454
85985SOL    HW259853   8.073   9.219   7.448
85986SOL     OW59854   0.836  13.507   6.747
85986SOL    HW159855   0.785  13.479   6.823
85986SOL    HW259856   0.866  13.425   6.708
85987SOL     OW59857  13.624  10.146   3.655
85987SOL    HW159858  13.543  10.152   3.705
85987SOL    HW259859  13.692  10.133   3.721
85988SOL     OW59860  13.004   7.354   5.710
85988SOL    HW159861  12.998   7.367   5.805
85988SOL    HW259862  12.935   7.291   5.690
85989SOL     OW59863   8.377  10.855   9.579
85989SOL    HW159864   8.329  10.774   9.595
85989SOL    HW259865   8.417  10.876   9.664
85990SOL     OW59866   4.086   9.567   3.240
85990SOL    HW159867   4.058   9.523   3.160
85990SOL    HW259868   4.174   9.533   3.256
85991SOL     OW59869  10.510   2.516   8.571
85991SOL    HW159870  10.462   2.495   8.651
85991SOL    HW259871  10.586   2.457   8.573
85992SOL     OW59872  11.372   7.276   8.161
85992SOL    HW159873  11.459   7.286   8.120
85992SOL    HW259874  11.391   7.239   8.247
85993SOL     OW59875   7.070  10.023   7.077
85993SOL    HW159876   7.093  10.113   7.055
85993SOL    HW259877   7.067   9.977   6.993
85994SOL     OW59878  13.245   6.395   3.233
85994SOL    HW159879  13.268   6.426   3.321
85994SOL    HW259880  13.328   6.373   3.192
85995SOL     OW59881   9.480   7.210   0.086
85995SOL    HW159882   9.412   7.166   0.035
85995SOL    HW259883   9.563   7.178   0.049
85996SOL     OW59884   8.824   5.576   4.857
85996SOL    HW159885   8.858   5.490   4.834
85996SOL    HW259886   8.743   5.584   4.808
85997SOL     OW59887  12.001  10.331   0.963
85997SOL    HW159888  11.941  10.369   0.898
85997SOL    HW259889  11.955  10.340   1.046
85998SOL     OW59890   2.137   0.010   0.783
85998SOL    HW159891   2.147   0.058   0.865
85998SOL    HW259892   2.107  14.810   0.809
85999SOL     OW59893   5.281  12.689   9.792
85999SOL    HW159894   5.319  12.610   9.830
85999SOL    HW259895   5.202  12.658   9.748
86000SOL     OW59896   4.257  14.481   8.607
86000SOL    HW159897   4.290  14.472   8.518
86000SOL    HW259898   4.168  14.515   8.597
86001SOL     OW59899   0.639   7.537  13.261
86001SOL    HW159900   0.546   7.560  13.259
86001SOL    HW259901   0.661   7.520  13.170
86002SOL     OW59902   6.890   4.185   7.623
86002SOL    HW159903   6.881   4.262   7.567
86002SOL    HW259904   6.984   4.180   7.643
86003SOL     OW59905  10.387  13.292   0.001
86003SOL    HW159906  10.390  13.228   0.073
86003SOL    HW259907  10.312  13.265  14.836
86004SOL     OW59908   8.578   7.637   5.576
86004SOL    HW159909   8.582   7.645   5.671
86004SOL    HW259910   8.488   7.661   5.554
86005SOL     OW59911   1.987   1.036  10.753
86005SOL    HW159912   2.081   1.017  10.752
86005SOL    HW259913   1.954   0.998  10.672
86006SOL     OW59914   8.271  10.459   6.003
86006SOL    HW159915   8.262  10.410   5.921
86006SOL    HW259916   8.293  10.393   6.069
86007SOL     OW59917   0.825   0.567   6.037
86007SOL    HW159918   0.753   0.594   6.095
86007SOL    HW259919   0.863   0.490   6.080
86008SOL     OW59920   3.075  13.671   7.263
86008SOL    HW159921   3.162  13.669   7.304
86008SOL    HW259922   3.093  13.670   7.169
86009SOL     OW59923   3.968   6.942  10.233
86009SOL    HW159924   4.033   6.872  10.238
86009SOL    HW259925   3.885   6.900  10.256
86010SOL     OW59926   7.770   6.370  13.498
86010SOL    HW159927   7.760   6.306  13.428
86010SOL    HW259928   7.797   6.451  13.453
86011SOL     OW59929   3.048   3.223   1.303
86011SOL    HW159930   3.114   3.286   1.276
86011SOL    HW259931   3.004   3.265   1.377
86012SOL     OW59932  11.184  12.453  14.188
86012SOL    HW159933  11.261  12.441  14.244
86012SOL    HW259934  11.119  12.392  14.223
86013SOL     OW59935  10.460  10.909   4.275
86013SOL    HW159936  10.526  10.919   4.344
86013SOL    HW259937  10.479  10.980   4.213
86014SOL     OW59938   5.124   1.179  13.067
86014SOL    HW159939   5.198   1.131  13.029
86014SOL    HW259940   5.089   1.119  13.133
86015SOL     OW59941  12.035   0.192   3.810
86015SOL    HW159942  12.025   0.097   3.810
86015SOL    HW259943  12.126   0.207   3.786
86016SOL     OW59944   9.119   2.857  11.827
86016SOL    HW159945   9.161   2.943  11.816
86016SOL    HW259946   9.180   2.795  11.787
86017SOL     OW59947  10.066   6.898   1.969
86017SOL    HW159948   9.984   6.943   1.991
86017SOL    HW259949  10.046   6.851   1.888
86018SOL     OW59950  10.450   9.659   0.812
86018SOL    HW159951  10.516   9.716   0.852
86018SOL    HW259952  10.445   9.687   0.721
86019SOL     OW59953   3.174  12.656  11.249
86019SOL    HW159954   3.147  12.671  11.158
86019SOL    HW259955   3.104  12.603  11.287
86020SOL     OW59956   1.241  11.204   0.839
86020SOL    HW159957   1.304  11.157   0.894
86020SOL    HW259958   1.274  11.294   0.837
86021SOL     OW59959  13.698   5.832   4.867
86021SOL    HW159960  13.692   5.880   4.950
86021SOL    HW259961  13.740   5.749   4.891
86022SOL     OW59962  12.390   8.616  11.356
86022SOL    HW159963  12.394   8.522  11.372
86022SOL    HW259964  12.297   8.638  11.361
86023SOL     OW59965   8.534   0.829   5.024
86023SOL    HW159966   8.519   0.875   4.942
86023SOL    HW259967   8.447   0.820   5.063
86024SOL     OW59968   3.917   0.244  14.250
86024SOL    HW159969   3.920   0.218  14.342
86024SOL    HW259970   4.008   0.261  14.227
86025SOL     OW59971   0.827   6.606  14.386
86025SOL    HW159972   0.844   6.521  14.345
86025SOL    HW259973   0.886   6.609  14.461
86026SOL     OW59974   9.841   3.456  12.539
86026SOL    HW159975   9.816   3.536  12.585
86026SOL    HW259976   9.799   3.464  12.453
86027SOL     OW59977   6.366   9.221   8.849
86027SOL    HW159978   6.306   9.278   8.896
86027SOL    HW259979   6.312   9.147   8.821
86028SOL     OW59980   9.661   9.806   5.952
86028SOL    HW159981   9.624   9.878   5.900
86028SOL    HW259982   9.593   9.739   5.950
86029SOL     OW59983  14.009   1.668   9.805
86029SOL    HW159984  14.071   1.627   9.745
86029SOL    HW259985  13.943   1.708   9.747
86030SOL     OW59986   6.209   6.042   3.575
86030SOL    HW159987   6.164   5.964   3.542
86030SOL    HW259988   6.200   6.037   3.670
86031SOL     OW59989   7.731   8.608   1.074
86031SOL    HW159990   7.660   8.665   1.044
86031SOL    HW259991   7.722   8.608   1.170
86032SOL     OW59992   7.447  11.230   6.122
86032SOL    HW159993   7.364  11.272   6.146
86032SOL    HW259994   7.423  11.169   6.052
86033SOL     OW59995  13.844  12.408  13.710
86033SOL    HW159996  13.894  12.473  13.759
86033SOL    HW259997  13.909  12.343  13.684
86034SOL     OW59998  13.087  10.626  14.285
86034SOL    HW159999  13.092  10.630  14.380
86034SOL    HW260000  13.047  10.709  14.260
86035SOL     OW60001   5.238   8.111   4.788
86035SOL    HW160002   5.249   8.204   4.770
86035SOL    HW260003   5.166   8.107   4.851
86036SOL     OW60004   2.233   7.449  12.156
86036SOL    HW160005   2.159   7.389  12.165
86036SOL    HW260006   2.214   7.498  12.076
86037SOL     OW60007   6.272   9.036  11.527
86037SOL    HW160008   6.336   9.107  11.526
86037SOL    HW260009   6.256   9.019  11.620
86038SOL     OW60010   0.144  10.852  13.795
86038SOL    HW160011   0.079  10.855  13.725
86038SOL    HW260012   0.183  10.939  13.795
86039SOL     OW60013   6.031   1.152   3.518
86039SOL    HW160014   6.106   1.154   3.578
86039SOL    HW260015   5.980   1.229   3.540
86040SOL     OW60016  14.195   4.226   4.407
86040SOL    HW160017  14.117   4.274   4.378
86040SOL    HW260018  14.221   4.174   4.330
86041SOL     OW60019  13.090  14.597   8.999
86041SOL    HW160020  13.059  14.555   8.918
86041SOL    HW260021  13.094  14.526   9.063
86042SOL     OW60022  13.600  11.144  11.646
86042SOL    HW160023  13.596  11.061  11.597
86042SOL    HW260024  13.647  11.203  11.588
86043SOL     OW60025  10.892   0.774   2.127
86043SOL    HW160026  10.892   0.753   2.221
86043SOL    HW260027  10.982   0.798   2.108
86044SOL     OW60028  14.762  12.334   2.551
86044SOL    HW160029  14.725  12.304   2.635
86044SOL    HW260030  14.692  12.321   2.488
86045SOL     OW60031   6.346   3.145   5.704
86045SOL    HW160032   6.263   3.184   5.732
86045SOL    HW260033   6.321   3.084   5.634
86046SOL     OW60034  11.916   2.916   6.075
86046SOL    HW160035  11.888   2.985   6.014
86046SOL    HW260036  11.895   2.951   6.162
86047SOL     OW60037  13.619  13.437  13.574
86047SOL    HW160038  13.679  13.370  13.541
86047SOL    HW260039  13.677  13.510  13.597
86048SOL     OW60040  12.255   0.777   7.651
86048SOL    HW160041  12.338   0.730   7.661
86048SOL    HW260042  12.222   0.786   7.740
86049SOL     OW60043  10.814  13.966  10.988
86049SOL    HW160044  10.793  14.058  11.000
86049SOL    HW260045  10.730  13.924  10.967
86050SOL     OW60046   6.349   0.499   6.147
86050SOL    HW160047   6.290   0.564   6.109
86050SOL    HW260048   6.292   0.427   6.175
86051SOL     OW60049   6.794  11.308   4.233
86051SOL    HW160050   6.878  11.275   4.264
86051SOL    HW260051   6.799  11.300   4.137
86052SOL     OW60052   5.030   5.951  11.004
86052SOL    HW160053   5.121   5.978  11.017
86052SOL    HW260054   5.009   5.979  10.915
86053SOL     OW60055   2.639  14.012  12.321
86053SOL    HW160056   2.650  13.989  12.229
86053SOL    HW260057   2.726  14.040  12.350
86054SOL     OW60058  12.416   5.936  14.543
86054SOL    HW160059  12.364   5.869  14.498
86054SOL    HW260060  12.470   5.974  14.474
86055SOL     OW60061   7.804   1.075  10.556
86055SOL    HW160062   7.843   1.157  10.584
86055SOL    HW260063   7.844   1.008  10.611
86056SOL     OW60064  10.635  14.775   7.479
86056SOL    HW160065  10.713  14.823   7.451
86056SOL    HW260066  10.655  14.684   7.460
86057SOL     OW60067   2.551   3.380   7.700
86057SOL    HW160068   2.582   3.299   7.741
86057SOL    HW260069   2.535   3.439   7.774
86058SOL     OW60070   7.024  13.167   6.765
86058SOL    HW160071   7.102  13.201   6.723
86058SOL    HW260072   6.968  13.138   6.693
86059SOL     OW60073   3.185  12.475   0.642
86059SOL    HW160074   3.121  12.543   0.661
86059SOL    HW260075   3.142  12.418   0.578
86060SOL     OW60076  11.811   5.423  11.863
86060SOL    HW160077  11.890   5.451  11.816
86060SOL    HW260078  11.803   5.486  11.935
86061SOL     OW60079   4.734   5.048   2.499
86061SOL    HW160080   4.708   5.029   2.409
86061SOL    HW260081   4.656   5.031   2.551
86062SOL     OW60082   2.058  13.879   8.024
86062SOL    HW160083   2.022  13.965   8.043
86062SOL    HW260084   1.982  13.824   8.004
86063SOL     OW60085  13.599   7.931   5.729
86063SOL    HW160086  13.684   7.907   5.767
86063SOL    HW260087  13.537   7.921   5.801
86064SOL     OW60088   1.117   0.675  10.664
86064SOL    HW160089   1.138   0.677  10.570
86064SOL    HW260090   1.144   0.588  10.693
86065SOL     OW60091   6.943   7.562  13.574
86065SOL    HW160092   6.904   7.509  13.644
86065SOL    HW260093   6.996   7.499  13.524
86066SOL     OW60094   4.323   0.865  11.920
86066SOL    HW160095   4.299   0.896  11.833
86066SOL    HW260096   4.419   0.864  11.918
86067SOL     OW60097  14.633  10.095  14.551
86067SOL    HW160098  14.637  10.045  14.469
86067SOL    HW260099  14.660  10.183  14.527
86068SOL     OW60100   0.885  13.992   7.425
86068SOL    HW160101   0.951  13.947   7.478
86068SOL    HW260102   0.830  13.922   7.390
86069SOL     OW60103  11.566   4.491   8.411
86069SOL    HW160104  11.518   4.420   8.368
86069SOL    HW260105  11.508   4.566   8.405
86070SOL     OW60106  12.746  14.202   3.436
86070SOL    HW160107  12.695  14.143   3.380
86070SOL    HW260108  12.794  14.143   3.495
86071SOL     OW60109   9.676   6.136  13.934
86071SOL    HW160110   9.679   6.222  13.893
86071SOL    HW260111   9.762   6.125  13.973
86072SOL     OW60112  10.999  11.324   7.904
86072SOL    HW160113  11.018  11.410   7.940
86072SOL    HW260114  11.029  11.262   7.971
86073SOL     OW60115   9.261   1.201  13.508
86073SOL    HW160116   9.254   1.289  13.546
86073SOL    HW260117   9.171   1.170  13.503
86074SOL     OW60118   3.790   8.232   0.861
86074SOL    HW160119   3.839   8.249   0.942
86074SOL    HW260120   3.855   8.245   0.791
86075SOL     OW60121   5.349  10.485   8.433
86075SOL    HW160122   5.300  10.433   8.498
86075SOL    HW260123   5.381  10.420   8.370
86076SOL     OW60124   8.878   5.595  14.779
86076SOL    HW160125   8.924   5.524  14.735
86076SOL    HW260126   8.830   5.640  14.709
86077SOL     OW60127   5.161   1.081  13.756
86077SOL    HW160128   5.097   1.089  13.686
86077SOL    HW260129   5.108   1.073  13.836
86078SOL     OW60130  13.115   2.397  13.078
86078SOL    HW160131  13.039   2.427  13.028
86078SOL    HW260132  13.137   2.472  13.133
86079SOL     OW60133  12.834  12.134   0.521
86079SOL    HW160134  12.794  12.097   0.599
86079SOL    HW260135  12.784  12.214   0.504
86080SOL     OW60136   3.999   3.797   3.557
86080SOL    HW160137   4.044   3.863   3.505
86080SOL    HW260138   3.961   3.737   3.493
86081SOL     OW60139   0.545   5.569   5.733
86081SOL    HW160140   0.634   5.594   5.755
86081SOL    HW260141   0.549   5.474   5.720
86082SOL     OW60142   8.380   8.283   9.803
86082SOL    HW160143   8.350   8.194   9.790
86082SOL    HW260144   8.300   8.334   9.814
86083SOL     OW60145  14.767   8.724   5.855
86083SOL    HW160146  14.717   8.741   5.776
86083SOL    HW260147  14.856   8.755   5.835
86084SOL     OW60148   8.276  14.109   3.669
86084SOL    HW160149   8.238  14.088   3.584
86084SOL    HW260150   8.203  14.141   3.721
86085SOL     OW60151   6.413   2.951   6.762
86085SOL    HW160152   6.342   3.013   6.749
86085SOL    HW260153   6.374   2.880   6.812
86086SOL     OW60154   3.376   9.500  12.743
86086SOL    HW160155   3.308   9.483  12.808
86086SOL    HW260156   3.343   9.574  12.692
86087SOL     OW60157  11.084  12.109  12.986
86087SOL    HW160158  11.104  12.031  13.037
86087SOL    HW260159  11.070  12.178  13.052
86088SOL     OW60160  13.840   3.542   6.746
86088SOL    HW160161  13.770   3.509   6.802
86088SOL    HW260162  13.841   3.636   6.760
86089SOL     OW60163   6.385  11.664   2.572
86089SOL    HW160164   6.424  11.750   2.554
86089SOL    HW260165   6.295  11.671   2.540
86090SOL     OW60166   1.869   1.079  12.905
86090SOL    HW160167   1.947   1.076  12.850
86090SOL    HW260168   1.875   1.001  12.959
86091SOL     OW60169  13.983   0.889   2.458
86091SOL    HW160170  13.996   0.980   2.484
86091SOL    HW260171  13.890   0.873   2.475
86092SOL     OW60172   7.298   9.125   3.413
86092SOL    HW160173   7.393   9.121   3.404
86092SOL    HW260174   7.282   9.209   3.457
86093SOL     OW60175  12.146  10.515  13.419
86093SOL    HW160176  12.074  10.470  13.374
86093SOL    HW260177  12.191  10.564  13.350
86094SOL     OW60178  13.816   5.953   4.360
86094SOL    HW160179  13.894   6.009   4.353
86094SOL    HW260180  13.745   6.009   4.328
86095SOL     OW60181  11.427   0.003   5.021
86095SOL    HW160182  11.494   0.070   5.035
86095SOL    HW260183  11.475  14.814   4.991
86096SOL     OW60184   4.548   2.220   3.057
86096SOL    HW160185   4.624   2.173   3.092
86096SOL    HW260186   4.527   2.176   2.975
86097SOL     OW60187   4.064   0.663   9.018
86097SOL    HW160188   3.973   0.639   9.000
86097SOL    HW260189   4.085   0.617   9.099
86098SOL     OW60190   1.592   4.400  11.681
86098SOL    HW160191   1.595   4.378  11.588
86098SOL    HW260192   1.588   4.316  11.726
86099SOL     OW60193  14.237   6.212   8.148
86099SOL    HW160194  14.309   6.177   8.095
86099SOL    HW260195  14.274   6.291   8.189
86100SOL     OW60196   3.516   5.348   0.965
86100SOL    HW160197   3.452   5.402   1.011
86100SOL    HW260198   3.587   5.336   1.027
86101SOL     OW60199   7.835   5.090   7.519
86101SOL    HW160200   7.820   5.112   7.427
86101SOL    HW260201   7.864   4.999   7.517
86102SOL     OW60202   3.292  10.262  11.238
86102SOL    HW160203   3.344  10.183  11.251
86102SOL    HW260204   3.353  10.325  11.197
86103SOL     OW60205  13.529   5.004  12.635
86103SOL    HW160206  13.445   4.960  12.643
86103SOL    HW260207  13.546   5.038  12.723
86104SOL     OW60208   6.178  13.120   8.891
86104SOL    HW160209   6.116  13.116   8.964
86104SOL    HW260210   6.203  13.212   8.886
86105SOL     OW60211   4.261   7.143   8.055
86105SOL    HW160212   4.218   7.204   7.993
86105SOL    HW260213   4.354   7.164   8.047
86106SOL     OW60214  13.685  13.114   3.564
86106SOL    HW160215  13.696  13.036   3.510
86106SOL    HW260216  13.727  13.184   3.514
86107SOL     OW60217  12.861   2.520   7.336
86107SOL    HW160218  12.823   2.503   7.423
86107SOL    HW260219  12.955   2.520   7.352
86108SOL     OW60220   5.552   9.592   9.628
86108SOL    HW160221   5.614   9.544   9.683
86108SOL    HW260222   5.466   9.558   9.653
86109SOL     OW60223  11.999  10.693   1.067
86109SOL    HW160224  11.920  10.656   1.027
86109SOL    HW260225  12.070  10.670   1.007
86110SOL     OW60226  11.031   0.228  13.500
86110SOL    HW160227  11.056   0.320  13.493
86110SOL    HW260228  10.941   0.230  13.534
86111SOL     OW60229   6.043   8.365   3.520
86111SOL    HW160230   6.103   8.309   3.570
86111SOL    HW260231   6.048   8.450   3.565
86112SOL     OW60232  13.226  10.768   6.756
86112SOL    HW160233  13.192  10.755   6.845
86112SOL    HW260234  13.231  10.679   6.720
86113SOL     OW60235   1.484  10.714   9.774
86113SOL    HW160236   1.460  10.708   9.681
86113SOL    HW260237   1.411  10.762   9.814
86114SOL     OW60238   7.759   1.968   2.069
86114SOL    HW160239   7.756   1.883   2.027
86114SOL    HW260240   7.805   2.025   2.007
86115SOL     OW60241  12.872   7.384  13.943
86115SOL    HW160242  12.949   7.359  13.892
86115SOL    HW260243  12.891   7.473  13.972
86116SOL     OW60244   7.558   9.022   3.186
86116SOL    HW160245   7.542   9.103   3.234
86116SOL    HW260246   7.516   9.036   3.101
86117SOL     OW60247  13.952   8.574   9.085
86117SOL    HW160248  13.942   8.654   9.033
86117SOL    HW260249  13.945   8.604   9.176
86118SOL     OW60250  10.567   2.833  10.221
86118SOL    HW160251  10.577   2.919  10.180
86118SOL    HW260252  10.581   2.770  10.151
86119SOL     OW60253  14.811  12.822   8.092
86119SOL    HW160254  14.778  12.912   8.087
86119SOL    HW260255  14.733  12.768   8.106
86120SOL     OW60256   1.234   1.945   7.607
86120SOL    HW160257   1.231   1.940   7.702
86120SOL    HW260258   1.203   1.860   7.577
86121SOL     OW60259   3.059   9.056  13.820
86121SOL    HW160260   3.086   9.090  13.906
86121SOL    HW260261   3.091   8.966  13.819
86122SOL     OW60262  12.195   3.116   3.753
86122SOL    HW160263  12.101   3.127   3.744
86122SOL    HW260264  12.227   3.104   3.664
86123SOL     OW60265   4.066   8.298  13.255
86123SOL    HW160266   4.119   8.377  13.256
86123SOL    HW260267   3.993   8.316  13.315
86124SOL     OW60268   7.091  12.586   1.397
86124SOL    HW160269   7.182  12.558   1.386
86124SOL    HW260270   7.041  12.504   1.400
86125SOL     OW60271   5.787   2.999  13.364
86125SOL    HW160272   5.754   3.085  13.390
86125SOL    HW260273   5.878   3.014  13.338
86126SOL     OW60274   3.139   7.855   7.596
86126SOL    HW160275   3.187   7.773   7.613
86126SOL    HW260276   3.141   7.901   7.680
86127SOL     OW60277   8.692   3.885   8.649
86127SOL    HW160278   8.690   3.960   8.709
86127SOL    HW260279   8.604   3.883   8.611
86128SOL     OW60280   7.816   2.161   7.834
86128SOL    HW160281   7.790   2.176   7.743
86128SOL    HW260282   7.744   2.110   7.871
86129SOL     OW60283  10.225   5.817   0.528
86129SOL    HW160284  10.298   5.773   0.485
86129SOL    HW260285  10.149   5.761   0.511
86130SOL     OW60286   5.205   2.228   8.437
86130SOL    HW160287   5.229   2.298   8.375
86130SOL    HW260288   5.227   2.147   8.391
86131SOL     OW60289  11.243  11.460   9.527
86131SOL    HW160290  11.176  11.502   9.580
86131SOL    HW260291  11.236  11.502   9.442
86132SOL     OW60292   0.751   2.546   5.750
86132SOL    HW160293   0.763   2.551   5.845
86132SOL    HW260294   0.793   2.625   5.716
86133SOL     OW60295   0.602   9.046   3.768
86133SOL    HW160296   0.695   9.057   3.750
86133SOL    HW260297   0.565   9.013   3.686
86134SOL     OW60298  14.752  12.505   7.774
86134SOL    HW160299  14.788  12.554   7.700
86134SOL    HW260300  14.827  12.487   7.830
86135SOL     OW60301   2.265  12.589   3.344
86135SOL    HW160302   2.204  12.602   3.417
86135SOL    HW260303   2.312  12.509   3.366
86136SOL     OW60304   8.032  11.239  13.531
86136SOL    HW160305   8.016  11.148  13.508
86136SOL    HW260306   8.008  11.288  13.452
86137SOL     OW60307   0.803  14.470   1.146
86137SOL    HW160308   0.815  14.506   1.234
86137SOL    HW260309   0.866  14.399   1.141
86138SOL     OW60310   9.283   2.708  11.391
86138SOL    HW160311   9.221   2.763  11.344
86138SOL    HW260312   9.367   2.754  11.382
86139SOL     OW60313   9.842  14.318   3.165
86139SOL    HW160314   9.786  14.396   3.163
86139SOL    HW260315   9.863  14.306   3.257
86140SOL     OW60316  13.866   1.494   1.055
86140SOL    HW160317  13.917   1.478   0.975
86140SOL    HW260318  13.778   1.515   1.024
86141SOL     OW60319   8.602   4.643  10.425
86141SOL    HW160320   8.568   4.591  10.498
86141SOL    HW260321   8.526   4.689  10.391
86142SOL     OW60322  13.639   3.912   6.860
86142SOL    HW160323  13.568   3.948   6.808
86142SOL    HW260324  13.719   3.943   6.817
86143SOL     OW60325   2.561  12.200   0.843
86143SOL    HW160326   2.641  12.244   0.815
86143SOL    HW260327   2.577  12.107   0.825
86144SOL     OW60328   8.118   5.109   6.344
86144SOL    HW160329   8.155   5.120   6.256
86144SOL    HW260330   8.129   5.195   6.385
86145SOL     OW60331   5.492  14.197  13.720
86145SOL    HW160332   5.504  14.192  13.625
86145SOL    HW260333   5.496  14.106  13.750
86146SOL     OW60334  13.485  10.149   7.774
86146SOL    HW160335  13.577  10.123   7.777
86146SOL    HW260336  13.437  10.070   7.799
86147SOL     OW60337   5.924   0.976   7.884
86147SOL    HW160338   5.924   0.922   7.805
86147SOL    HW260339   5.869   0.928   7.945
86148SOL     OW60340   6.917  13.228  14.699
86148SOL    HW160341   6.867  13.239  14.780
86148SOL    HW260342   7.001  13.271  14.716
86149SOL     OW60343   4.615  13.779   6.514
86149SOL    HW160344   4.553  13.840   6.474
86149SOL    HW260345   4.595  13.695   6.473
86150SOL     OW60346   2.449   0.758  13.523
86150SOL    HW160347   2.437   0.765  13.618
86150SOL    HW260348   2.382   0.815  13.486
86151SOL     OW60349   3.482   3.090   0.406
86151SOL    HW160350   3.522   3.149   0.343
86151SOL    HW260351   3.550   3.026   0.427
86152SOL     OW60352  10.600  10.625  11.913
86152SOL    HW160353  10.627  10.540  11.948
86152SOL    HW260354  10.511  10.611  11.881
86153SOL     OW60355   4.392   0.613   3.050
86153SOL    HW160356   4.430   0.588   2.966
86153SOL    HW260357   4.305   0.573   3.049
86154SOL     OW60358   2.900   9.472  11.298
86154SOL    HW160359   2.927   9.561  11.324
86154SOL    HW260360   2.914   9.469  11.204
86155SOL     OW60361   3.717   2.432   4.754
86155SOL    HW160362   3.711   2.363   4.820
86155SOL    HW260363   3.806   2.467   4.764
86156SOL     OW60364  12.180   7.322   7.280
86156SOL    HW160365  12.235   7.268   7.223
86156SOL    HW260366  12.208   7.299   7.369
86157SOL     OW60367  12.344   6.370  10.648
86157SOL    HW160368  12.361   6.371  10.743
86157SOL    HW260369  12.352   6.462  10.622
86158SOL     OW60370  14.438  11.185   8.860
86158SOL    HW160371  14.449  11.090   8.872
86158SOL    HW260372  14.465  11.224   8.943
86159SOL     OW60373   7.874   0.755   3.929
86159SOL    HW160374   7.880   0.765   4.024
86159SOL    HW260375   7.954   0.708   3.905
86160SOL     OW60376   9.510   1.703   5.878
86160SOL    HW160377   9.599   1.701   5.842
86160SOL    HW260378   9.522   1.730   5.969
86161SOL     OW60379  12.424   9.054  10.317
86161SOL    HW160380  12.370   9.006  10.253
86161SOL    HW260381  12.509   9.061  10.274
86162SOL     OW60382   0.429  11.867   9.297
86162SOL    HW160383   0.425  11.962   9.288
86162SOL    HW260384   0.383  11.849   9.380
86163SOL     OW60385   4.869   4.169   1.073
86163SOL    HW160386   4.794   4.185   1.130
86163SOL    HW260387   4.848   4.086   1.030
86164SOL     OW60388   6.203  11.323   3.144
86164SOL    HW160389   6.198  11.404   3.093
86164SOL    HW260390   6.113  11.306   3.171
86165SOL     OW60391   9.015  13.538   3.862
86165SOL    HW160392   9.003  13.628   3.831
86165SOL    HW260393   9.013  13.485   3.783
86166SOL     OW60394   5.149   7.653  13.528
86166SOL    HW160395   5.096   7.724  13.491
86166SOL    HW260396   5.111   7.573  13.491
86167SOL     OW60397  14.089   4.801   4.046
86167SOL    HW160398  14.174   4.758   4.056
86167SOL    HW260399  14.110   4.889   4.015
86168SOL     OW60400   5.037   1.280   0.668
86168SOL    HW160401   5.076   1.208   0.718
86168SOL    HW260402   5.100   1.352   0.676
86169SOL     OW60403  12.256   0.359  14.020
86169SOL    HW160404  12.227   0.443  13.985
86169SOL    HW260405  12.352   0.363  14.017
86170SOL     OW60406  12.778   4.087   5.571
86170SOL    HW160407  12.746   4.136   5.647
86170SOL    HW260408  12.779   4.151   5.500
86171SOL     OW60409   1.819   3.081   8.028
86171SOL    HW160410   1.759   3.059   7.957
86171SOL    HW260411   1.794   3.170   8.052
86172SOL     OW60412   2.968   6.744   4.946
86172SOL    HW160413   2.932   6.822   4.987
86172SOL    HW260414   3.034   6.712   5.008
86173SOL     OW60415  13.602   2.893   6.575
86173SOL    HW160416  13.609   2.986   6.557
86173SOL    HW260417  13.675   2.874   6.635
86174SOL     OW60418   1.212  13.277   9.650
86174SOL    HW160419   1.118  13.287   9.668
86174SOL    HW260420   1.246  13.230   9.726
86175SOL     OW60421   8.692   3.343   4.208
86175SOL    HW160422   8.634   3.284   4.160
86175SOL    HW260423   8.658   3.431   4.189
86176SOL     OW60424   7.183  13.365   1.868
86176SOL    HW160425   7.253  13.307   1.836
86176SOL    HW260426   7.184  13.440   1.808
86177SOL     OW60427  10.208  11.478   7.510
86177SOL    HW160428  10.186  11.534   7.583
86177SOL    HW260429  10.284  11.519   7.469
86178SOL     OW60430   5.231  10.940   8.556
86178SOL    HW160431   5.147  10.924   8.600
86178SOL    HW260432   5.250  11.032   8.575
86179SOL     OW60433   2.684   3.053   7.500
86179SOL    HW160434   2.764   3.011   7.533
86179SOL    HW260435   2.623   3.050   7.574
86180SOL     OW60436   6.397  13.986   3.735
86180SOL    HW160437   6.418  13.930   3.810
86180SOL    HW260438   6.383  13.924   3.663
86181SOL     OW60439   6.604   1.526   0.737
86181SOL    HW160440   6.665   1.505   0.807
86181SOL    HW260441   6.520   1.492   0.767
86182SOL     OW60442  12.627   6.820  12.454
86182SOL    HW160443  12.658   6.909  12.471
86182SOL    HW260444  12.578   6.826  12.372
86183SOL     OW60445   1.082  11.378   7.793
86183SOL    HW160446   1.030  11.457   7.777
86183SOL    HW260447   1.154  11.384   7.730
86184SOL     OW60448  13.676   4.256   4.113
86184SOL    HW160449  13.592   4.268   4.069
86184SOL    HW260450  13.736   4.230   4.043
86185SOL     OW60451  13.485   0.764   0.195
86185SOL    HW160452  13.548   0.737   0.261
86185SOL    HW260453  13.414   0.699   0.201
86186SOL     OW60454  14.246  13.964   8.625
86186SOL    HW160455  14.197  14.040   8.659
86186SOL    HW260456  14.192  13.889   8.650
86187SOL     OW60457   6.756   4.276   2.072
86187SOL    HW160458   6.825   4.257   2.136
86187SOL    HW260459   6.783   4.359   2.033
86188SOL     OW60460  11.549  11.476   7.571
86188SOL    HW160461  11.469  11.507   7.529
86188SOL    HW260462  11.519  11.442   7.656
86189SOL     OW60463   3.245   3.343  10.009
86189SOL    HW160464   3.324   3.383  10.045
86189SOL    HW260465   3.277   3.285   9.940
86190SOL     OW60466  12.333   4.179   2.326
86190SOL    HW160467  12.329   4.158   2.232
86190SOL    HW260468  12.379   4.105   2.364
86191SOL     OW60469  10.403  13.491   3.195
86191SOL    HW160470  10.336  13.545   3.235
86191SOL    HW260471  10.439  13.439   3.267
86192SOL     OW60472   2.420   0.107   7.090
86192SOL    HW160473   2.390   0.091   7.180
86192SOL    HW260474   2.375   0.041   7.038
86193SOL     OW60475   0.751   9.894   9.468
86193SOL    HW160476   0.807   9.972   9.467
86193SOL    HW260477   0.785   9.841   9.540
86194SOL     OW60478   9.456  12.134   1.562
86194SOL    HW160479   9.443  12.171   1.475
86194SOL    HW260480   9.481  12.209   1.616
86195SOL     OW60481   0.670   6.655   0.881
86195SOL    HW160482   0.617   6.590   0.927
86195SOL    HW260483   0.735   6.683   0.946
86196SOL     OW60484   5.241  11.080   7.374
86196SOL    HW160485   5.241  11.138   7.298
86196SOL    HW260486   5.273  11.134   7.446
86197SOL     OW60487  13.539  10.899   9.144
86197SOL    HW160488  13.614  10.912   9.085
86197SOL    HW260489  13.507  10.988   9.160
86198SOL     OW60490   4.079   6.557   9.064
86198SOL    HW160491   4.157   6.518   9.024
86198SOL    HW260492   4.085   6.650   9.043
86199SOL     OW60493  14.837   8.657   3.467
86199SOL    HW160494  14.810   8.741   3.503
86199SOL    HW260495   0.043   8.668   3.447
86200SOL     OW60496   5.340   8.614   6.893
86200SOL    HW160497   5.398   8.579   6.826
86200SOL    HW260498   5.389   8.605   6.975
86201SOL     OW60499   0.255  12.582   1.054
86201SOL    HW160500   0.333  12.538   1.088
86201SOL    HW260501   0.188  12.514   1.049
86202SOL     OW60502   2.706   1.762   1.422
86202SOL    HW160503   2.660   1.739   1.503
86202SOL    HW260504   2.662   1.840   1.390
86203SOL     OW60505   9.822  14.158  12.522
86203SOL    HW160506   9.891  14.130  12.463
86203SOL    HW260507   9.765  14.082  12.531
86204SOL     OW60508   8.005  14.335  13.526
86204SOL    HW160509   8.050  14.262  13.483
86204SOL    HW260510   8.072  14.403  13.532
86205SOL     OW60511   6.072   9.287   5.862
86205SOL    HW160512   6.004   9.242   5.812
86205SOL    HW260513   6.154   9.257   5.823
86206SOL     OW60514  13.905  13.750   8.920
86206SOL    HW160515  13.836  13.741   8.985
86206SOL    HW260516  13.950  13.665   8.922
86207SOL     OW60517   7.784  13.537   3.302
86207SOL    HW160518   7.867  13.525   3.257
86207SOL    HW260519   7.795  13.619   3.350
86208SOL     OW60520   6.684   0.832   3.736
86208SOL    HW160521   6.747   0.768   3.769
86208SOL    HW260522   6.705   0.912   3.784
86209SOL     OW60523  11.445  14.629  12.634
86209SOL    HW160524  11.399  14.554  12.597
86209SOL    HW260525  11.452  14.609  12.727
86210SOL     OW60526   3.957  11.728  12.214
86210SOL    HW160527   4.029  11.775  12.258
86210SOL    HW260528   4.000  11.658  12.165
86211SOL     OW60529  13.425   6.087  13.727
86211SOL    HW160530  13.445   6.115  13.638
86211SOL    HW260531  13.330   6.079  13.729
86212SOL     OW60532  12.559   7.651   1.229
86212SOL    HW160533  12.626   7.611   1.174
86212SOL    HW260534  12.532   7.580   1.288
86213SOL     OW60535  10.302   8.791   8.752
86213SOL    HW160536  10.374   8.730   8.771
86213SOL    HW260537  10.328   8.832   8.669
86214SOL     OW60538   6.091  13.304   7.386
86214SOL    HW160539   6.003  13.273   7.406
86214SOL    HW260540   6.121  13.247   7.315
86215SOL     OW60541  11.029   9.679  12.260
86215SOL    HW160542  11.106   9.637  12.222
86215SOL    HW260543  11.050   9.690  12.353
86216SOL     OW60544  13.533   3.414   6.353
86216SOL    HW160545  13.468   3.458   6.408
86216SOL    HW260546  13.615   3.424   6.402
86217SOL     OW60547  13.725   6.130   1.247
86217SOL    HW160548  13.743   6.205   1.191
86217SOL    HW260549  13.793   6.135   1.315
86218SOL     OW60550   8.457   1.809   4.822
86218SOL    HW160551   8.468   1.737   4.884
86218SOL    HW260552   8.435   1.884   4.876
86219SOL     OW60553  13.009   2.692  13.145
86219SOL    HW160554  12.929   2.652  13.180
86219SOL    HW260555  13.060   2.716  13.222
86220SOL     OW60556  11.886  13.438  13.715
86220SOL    HW160557  11.850  13.463  13.630
86220SOL    HW260558  11.896  13.343  13.711
86221SOL     OW60559   2.562  11.849  11.812
86221SOL    HW160560   2.656  11.854  11.801
86221SOL    HW260561   2.549  11.782  11.879
86222SOL     OW60562   5.250  10.774   6.249
86222SOL    HW160563   5.341  10.804   6.242
86222SOL    HW260564   5.198  10.850   6.224
86223SOL     OW60565   2.975  11.560   1.977
86223SOL    HW160566   2.951  11.482   2.026
86223SOL    HW260567   2.997  11.625   2.044
86224SOL     OW60568   2.659  11.888  10.607
86224SOL    HW160569   2.615  11.843  10.535
86224SOL    HW260570   2.606  11.967  10.621
86225SOL     OW60571   4.479  12.668   2.559
86225SOL    HW160572   4.401  12.716   2.586
86225SOL    HW260573   4.551  12.713   2.604
86226SOL     OW60574   0.396   0.671  11.675
86226SOL    HW160575   0.409   0.626  11.758
86226SOL    HW260576   0.303   0.695  11.675
86227SOL     OW60577   1.209  12.725   7.420
86227SOL    HW160578   1.250  12.678   7.493
86227SOL    HW260579   1.214  12.817   7.446
86228SOL     OW60580   5.409  11.408   5.002
86228SOL    HW160581   5.336  11.348   4.986
86228SOL    HW260582   5.478  11.378   4.943
86229SOL     OW60583   0.501  14.410  10.840
86229SOL    HW160584   0.475  14.329  10.797
86229SOL    HW260585   0.535  14.465  10.770
86230SOL     OW60586  12.219  10.026   1.945
86230SOL    HW160587  12.274  10.015   1.867
86230SOL    HW260588  12.129  10.022   1.913
86231SOL     OW60589   8.494   6.177  12.084
86231SOL    HW160590   8.446   6.096  12.105
86231SOL    HW260591   8.562   6.182  12.151
86232SOL     OW60592   5.097   6.632   9.316
86232SOL    HW160593   5.184   6.634   9.357
86232SOL    HW260594   5.081   6.723   9.290
86233SOL     OW60595  12.149  14.793   6.531
86233SOL    HW160596  12.197  14.795   6.614
86233SOL    HW260597  12.111  14.706   6.528
86234SOL     OW60598  14.239   3.533  10.339
86234SOL    HW160599  14.230   3.447  10.297
86234SOL    HW260600  14.150   3.562  10.354
86235SOL     OW60601   7.825   1.056   3.358
86235SOL    HW160602   7.793   1.052   3.268
86235SOL    HW260603   7.756   1.014   3.409
86236SOL     OW60604   9.754  13.550   0.078
86236SOL    HW160605   9.701  13.533   0.000
86236SOL    HW260606   9.716  13.630   0.115
86237SOL     OW60607  11.373  12.719   8.998
86237SOL    HW160608  11.460  12.754   8.981
86237SOL    HW260609  11.357  12.656   8.929
86238SOL     OW60610   4.537  10.584   3.320
86238SOL    HW160611   4.523  10.665   3.272
86238SOL    HW260612   4.481  10.592   3.398
86239SOL     OW60613   3.962   3.540   2.099
86239SOL    HW160614   3.991   3.603   2.165
86239SOL    HW260615   3.920   3.470   2.149
86240SOL     OW60616  13.173  12.009  12.299
86240SOL    HW160617  13.206  12.083  12.351
86240SOL    HW260618  13.089  11.987  12.339
86241SOL     OW60619  13.432   9.926  11.991
86241SOL    HW160620  13.338   9.913  11.997
86241SOL    HW260621  13.462   9.857  11.932
86242SOL     OW60622   0.309   2.622   9.546
86242SOL    HW160623   0.348   2.545   9.505
86242SOL    HW260624   0.216   2.617   9.524
86243SOL     OW60625   7.962  12.124  10.008
86243SOL    HW160626   8.030  12.159   9.951
86243SOL    HW260627   7.939  12.040   9.969
86244SOL     OW60628  10.356   8.910   5.966
86244SOL    HW160629  10.392   8.929   6.053
86244SOL    HW260630  10.355   8.995   5.921
86245SOL     OW60631   7.514  12.434   8.516
86245SOL    HW160632   7.514  12.360   8.576
86245SOL    HW260633   7.607  12.459   8.509
86246SOL     OW60634   5.421   0.631   7.650
86246SOL    HW160635   5.335   0.641   7.609
86246SOL    HW260636   5.434   0.536   7.655
86247SOL     OW60637  10.389   6.216   7.664
86247SOL    HW160638  10.338   6.220   7.583
86247SOL    HW260639  10.330   6.176   7.728
86248SOL     OW60640   2.234   8.342   0.389
86248SOL    HW160641   2.270   8.256   0.411
86248SOL    HW260642   2.195   8.330   0.302
86249SOL     OW60643   9.972  13.581   8.112
86249SOL    HW160644   9.904  13.640   8.080
86249SOL    HW260645  10.033  13.573   8.038
86250SOL     OW60646   4.294  14.249  12.011
86250SOL    HW160647   4.286  14.154  12.017
86250SOL    HW260648   4.206  14.278  11.985
86251SOL     OW60649   0.755   0.915   9.463
86251SOL    HW160650   0.808   0.867   9.400
86251SOL    HW260651   0.773   1.007   9.444
86252SOL     OW60652   7.688  11.237   1.968
86252SOL    HW160653   7.740  11.157   1.978
86252SOL    HW260654   7.608  11.207   1.924
86253SOL     OW60655   4.173   1.441   8.056
86253SOL    HW160656   4.170   1.415   8.147
86253SOL    HW260657   4.264   1.468   8.042
86254SOL     OW60658  14.220  13.618   9.557
86254SOL    HW160659  14.185  13.576   9.635
86254SOL    HW260660  14.294  13.562   9.531
86255SOL     OW60661   9.661   6.722  11.564
86255SOL    HW160662   9.697   6.724  11.652
86255SOL    HW260663   9.667   6.812  11.533
86256SOL     OW60664   5.419   8.208   5.805
86256SOL    HW160665   5.441   8.301   5.808
86256SOL    HW260666   5.504   8.163   5.804
86257SOL     OW60667   3.033   3.612   6.280
86257SOL    HW160668   2.958   3.557   6.256
86257SOL    HW260669   3.081   3.624   6.198
86258SOL     OW60670   3.193   1.839   2.629
86258SOL    HW160671   3.255   1.911   2.635
86258SOL    HW260672   3.118   1.867   2.682
86259SOL     OW60673   7.114   2.975  11.100
86259SOL    HW160674   7.069   3.038  11.157
86259SOL    HW260675   7.047   2.949  11.037
86260SOL     OW60676   6.311   5.182  13.272
86260SOL    HW160677   6.266   5.123  13.212
86260SOL    HW260678   6.352   5.248  13.216
86261SOL     OW60679   5.895   1.685   6.119
86261SOL    HW160680   5.843   1.765   6.117
86261SOL    HW260681   5.862   1.633   6.046
86262SOL     OW60682  11.626   9.747   7.238
86262SOL    HW160683  11.552   9.805   7.220
86262SOL    HW260684  11.596   9.693   7.312
86263SOL     OW60685   3.540   7.012   1.156
86263SOL    HW160686   3.510   6.985   1.242
86263SOL    HW260687   3.584   7.096   1.170
86264SOL     OW60688  12.364   2.496  13.392
86264SOL    HW160689  12.443   2.444  13.375
86264SOL    HW260690  12.355   2.496  13.487
86265SOL     OW60691  10.181  11.148   2.156
86265SOL    HW160692  10.161  11.119   2.068
86265SOL    HW260693  10.257  11.206   2.146
86266SOL     OW60694   0.311   9.208   3.849
86266SOL    HW160695   0.271   9.222   3.763
86266SOL    HW260696   0.366   9.131   3.838
86267SOL     OW60697   7.686   6.621   0.417
86267SOL    HW160698   7.625   6.659   0.480
86267SOL    HW260699   7.667   6.527   0.420
86268SOL     OW60700   8.316  11.236  11.722
86268SOL    HW160701   8.271  11.224  11.638
86268SOL    HW260702   8.256  11.198  11.786
86269SOL     OW60703   6.755   1.874   7.612
86269SOL    HW160704   6.681   1.879   7.552
86269SOL    HW260705   6.774   1.781   7.618
86270SOL     OW60706   4.118   4.202   1.953
86270SOL    HW160707   4.104   4.232   1.863
86270SOL    HW260708   4.207   4.229   1.974
86271SOL     OW60709  11.478  14.149   7.876
86271SOL    HW160710  11.451  14.072   7.925
86271SOL    HW260711  11.526  14.114   7.801
86272SOL     OW60712   5.527  13.837   4.046
86272SOL    HW160713   5.562  13.775   4.109
86272SOL    HW260714   5.570  13.816   3.963
86273SOL     OW60715   3.426   7.814   5.878
86273SOL    HW160716   3.405   7.859   5.796
86273SOL    HW260717   3.388   7.869   5.946
86274SOL     OW60718   0.372   3.110   4.112
86274SOL    HW160719   0.430   3.146   4.179
86274SOL    HW260720   0.323   3.041   4.158
86275SOL     OW60721  11.885   9.159   6.494
86275SOL    HW160722  11.906   9.226   6.558
86275SOL    HW260723  11.886   9.077   6.543
86276SOL     OW60724  13.434   3.977   0.552
86276SOL    HW160725  13.497   3.937   0.612
86276SOL    HW260726  13.462   3.948   0.465
86277SOL     OW60727  11.632  11.055  11.879
86277SOL    HW160728  11.718  11.015  11.889
86277SOL    HW260729  11.606  11.033  11.789
86278SOL     OW60730   6.524  11.766   2.844
86278SOL    HW160731   6.597  11.718   2.804
86278SOL    HW260732   6.446  11.721   2.812
86279SOL     OW60733   2.645   0.243   9.118
86279SOL    HW160734   2.678   0.271   9.032
86279SOL    HW260735   2.702   0.287   9.180
86280SOL     OW60736   9.081  11.690   3.044
86280SOL    HW160737   9.119  11.736   2.969
86280SOL    HW260738   9.147  11.625   3.068
86281SOL     OW60739  14.258   5.185  13.138
86281SOL    HW160740  14.308   5.187  13.056
86281SOL    HW260741  14.289   5.262  13.186
86282SOL     OW60742   3.652   9.378   2.789
86282SOL    HW160743   3.661   9.284   2.770
86282SOL    HW260744   3.705   9.391   2.868
86283SOL     OW60745   4.233   4.417  11.390
86283SOL    HW160746   4.317   4.396  11.431
86283SOL    HW260747   4.241   4.380  11.302
86284SOL     OW60748   6.123   6.411   0.685
86284SOL    HW160749   6.160   6.324   0.699
86284SOL    HW260750   6.128   6.425   0.591
86285SOL     OW60751  11.913   5.932   5.905
86285SOL    HW160752  11.869   5.890   5.831
86285SOL    HW260753  11.967   6.001   5.865
86286SOL     OW60754   7.300  10.626   9.454
86286SOL    HW160755   7.269  10.587   9.536
86286SOL    HW260756   7.264  10.715   9.455
86287SOL     OW60757  10.867   7.137   3.762
86287SOL    HW160758  10.879   7.093   3.846
86287SOL    HW260759  10.781   7.109   3.732
86288SOL     OW60760  14.120   9.417   6.991
86288SOL    HW160761  14.101   9.415   7.084
86288SOL    HW260762  14.036   9.442   6.950
86289SOL     OW60763   3.216  11.822  14.569
86289SOL    HW160764   3.285  11.843  14.506
86289SOL    HW260765   3.203  11.727  14.560
86290SOL     OW60766  10.269   1.800   6.724
86290SOL    HW160767  10.199   1.758   6.774
86290SOL    HW260768  10.231   1.817   6.638
86291SOL     OW60769   7.512  11.653   8.365
86291SOL    HW160770   7.487  11.631   8.454
86291SOL    HW260771   7.505  11.571   8.317
86292SOL     OW60772   4.236   2.613   9.756
86292SOL    HW160773   4.223   2.694   9.706
86292SOL    HW260774   4.261   2.548   9.691
86293SOL     OW60775   8.966   4.059   9.317
86293SOL    HW160776   8.887   4.065   9.263
86293SOL    HW260777   8.948   4.113   9.393
86294SOL     OW60778   0.498   1.928   5.071
86294SOL    HW160779   0.515   2.022   5.069
86294SOL    HW260780   0.585   1.888   5.084
86295SOL     OW60781   5.491   1.456  12.303
86295SOL    HW160782   5.403   1.494  12.300
86295SOL    HW260783   5.520   1.472  12.393
86296SOL     OW60784   7.017   1.214   8.296
86296SOL    HW160785   7.080   1.233   8.366
86296SOL    HW260786   6.966   1.295   8.287
86297SOL     OW60787   9.215   3.768  13.897
86297SOL    HW160788   9.150   3.830  13.864
86297SOL    HW260789   9.260   3.816  13.967
86298SOL     OW60790  12.712   9.514   8.593
86298SOL    HW160791  12.656   9.519   8.516
86298SOL    HW260792  12.733   9.421   8.601
86299SOL     OW60793   9.060   2.338   7.338
86299SOL    HW160794   9.023   2.255   7.368
86299SOL    HW260795   9.083   2.322   7.246
86300SOL     OW60796  11.269  13.824   9.265
86300SOL    HW160797  11.215  13.752   9.231
86300SOL    HW260798  11.205  13.888   9.295
86301SOL     OW60799   1.503   1.228  11.017
86301SOL    HW160800   1.505   1.132  11.023
86301SOL    HW260801   1.424   1.253  11.066
86302SOL     OW60802   7.862  10.986   8.517
86302SOL    HW160803   7.774  10.995   8.480
86302SOL    HW260804   7.865  11.049   8.588
86303SOL     OW60805  10.540  13.559  11.236
86303SOL    HW160806  10.603  13.511  11.182
86303SOL    HW260807  10.549  13.518  11.323
86304SOL     OW60808   3.713  10.255  13.344
86304SOL    HW160809   3.775  10.244  13.272
86304SOL    HW260810   3.758  10.312  13.406
86305SOL     OW60811  10.412   1.878   1.263
86305SOL    HW160812  10.396   1.811   1.329
86305SOL    HW260813  10.467   1.943   1.308
86306SOL     OW60814   5.375   2.584  10.086
86306SOL    HW160815   5.296   2.623  10.123
86306SOL    HW260816   5.444   2.607  10.149
86307SOL     OW60817   2.222   0.031   3.244
86307SOL    HW160818   2.167   0.110   3.246
86307SOL    HW260819   2.210  14.883   3.156
86308SOL     OW60820   6.830   9.799  11.235
86308SOL    HW160821   6.888   9.875  11.240
86308SOL    HW260822   6.890   9.724  11.229
86309SOL     OW60823   9.641  13.416   2.054
86309SOL    HW160824   9.692  13.337   2.075
86309SOL    HW260825   9.598  13.395   1.972
86310SOL     OW60826   1.795   2.794   9.107
86310SOL    HW160827   1.859   2.723   9.114
86310SOL    HW260828   1.813   2.849   9.184
86311SOL     OW60829  13.775  10.632  13.970
86311SOL    HW160830  13.712  10.620  13.899
86311SOL    HW260831  13.860  10.634  13.926
86312SOL     OW60832   0.124   3.487  11.858
86312SOL    HW160833   0.208   3.524  11.831
86312SOL    HW260834   0.102   3.534  11.939
86313SOL     OW60835   5.714   6.474   6.539
86313SOL    HW160836   5.700   6.504   6.629
86313SOL    HW260837   5.800   6.432   6.541
86314SOL     OW60838  10.515  10.467   7.234
86314SOL    HW160839  10.447  10.407   7.263
86314SOL    HW260840  10.597  10.427   7.262
86315SOL     OW60841   7.022  14.118   5.037
86315SOL    HW160842   7.095  14.126   4.976
86315SOL    HW260843   7.064  14.110   5.123
86316SOL     OW60844  14.849  10.466   0.711
86316SOL    HW160845   0.020  10.511   0.772
86316SOL    HW260846   0.017  10.402   0.667
86317SOL     OW60847   1.688   5.052   9.294
86317SOL    HW160848   1.752   5.116   9.325
86317SOL    HW260849   1.712   5.035   9.203
86318SOL     OW60850  13.356   8.396   0.685
86318SOL    HW160851  13.321   8.426   0.768
86318SOL    HW260852  13.413   8.323   0.707
86319SOL     OW60853   5.808  12.749   9.822
86319SOL    HW160854   5.899  12.728   9.840
86319SOL    HW260855   5.758  12.685   9.873
86320SOL     OW60856   7.170   3.524  13.204
86320SOL    HW160857   7.154   3.537  13.110
86320SOL    HW260858   7.265   3.530  13.213
86321SOL     OW60859  12.995  13.070  13.820
86321SOL    HW160860  12.997  13.138  13.752
86321SOL    HW260861  13.073  13.017  13.804
86322SOL     OW60862  10.215  11.398  11.799
86322SOL    HW160863  10.124  11.388  11.828
86322SOL    HW260864  10.225  11.491  11.781
86323SOL     OW60865   2.718  11.095   5.608
86323SOL    HW160866   2.649  11.029   5.612
86323SOL    HW260867   2.798  11.047   5.633
86324SOL     OW60868   5.690  14.773   9.377
86324SOL    HW160869   5.753  14.836   9.411
86324SOL    HW260870   5.649  14.735   9.455
86325SOL     OW60871  14.525   8.424   1.001
86325SOL    HW160872  14.497   8.342   0.961
86325SOL    HW260873  14.446   8.478   1.004
86326SOL     OW60874  11.319  14.624  12.090
86326SOL    HW160875  11.357  14.703  12.052
86326SOL    HW260876  11.394  14.567  12.108
86327SOL     OW60877  13.084   9.626   5.481
86327SOL    HW160878  13.124   9.713   5.488
86327SOL    HW260879  13.027   9.619   5.557
86328SOL     OW60880   6.001  11.031   4.748
86328SOL    HW160881   5.995  10.944   4.708
86328SOL    HW260882   6.059  11.019   4.824
86329SOL     OW60883   6.578  14.764   8.707
86329SOL    HW160884   6.533  14.688   8.744
86329SOL    HW260885   6.588  14.743   8.614
86330SOL     OW60886  12.261   0.416   9.843
86330SOL    HW160887  12.345   0.394   9.803
86330SOL    HW260888  12.259   0.511   9.845
86331SOL     OW60889   0.676  14.776   7.113
86331SOL    HW160890   0.646  14.688   7.091
86331SOL    HW260891   0.648  14.790   7.203
86332SOL     OW60892   5.499   7.047  10.955
86332SOL    HW160893   5.554   7.125  10.962
86332SOL    HW260894   5.467   7.033  11.044
86333SOL     OW60895   1.995   9.126   3.821
86333SOL    HW160896   1.942   9.065   3.771
86333SOL    HW260897   2.040   9.179   3.756
86334SOL     OW60898   0.752   6.348   9.033
86334SOL    HW160899   0.847   6.360   9.044
86334SOL    HW260900   0.716   6.367   9.119
86335SOL     OW60901   6.460   3.911  13.006
86335SOL    HW160902   6.406   3.839  13.039
86335SOL    HW260903   6.468   3.894  12.912
86336SOL     OW60904  12.290  11.811   7.504
86336SOL    HW160905  12.253  11.749   7.441
86336SOL    HW260906  12.225  11.814   7.575
86337SOL     OW60907   9.576   6.842   4.661
86337SOL    HW160908   9.521   6.840   4.740
86337SOL    HW260909   9.522   6.800   4.594
86338SOL     OW60910  12.459   2.057   4.733
86338SOL    HW160911  12.550   2.051   4.706
86338SOL    HW260912  12.455   2.139   4.783
86339SOL     OW60913   7.543   6.258  12.454
86339SOL    HW160914   7.491   6.302  12.522
86339SOL    HW260915   7.544   6.320  12.381
86340SOL     OW60916  14.774   8.966  11.928
86340SOL    HW160917  14.814   8.947  12.012
86340SOL    HW260918  14.802   9.056  11.909
86341SOL     OW60919   6.337   6.426   2.708
86341SOL    HW160920   6.352   6.390   2.795
86341SOL    HW260921   6.388   6.370   2.650
86342SOL     OW60922   2.770   6.416  10.803
86342SOL    HW160923   2.861   6.389  10.792
86342SOL    HW260924   2.719   6.344  10.767
86343SOL     OW60925   2.349   2.186   4.069
86343SOL    HW160926   2.431   2.161   4.111
86343SOL    HW260927   2.331   2.116   4.007
86344SOL     OW60928  14.774   3.920   2.538
86344SOL    HW160929  14.848   3.867   2.567
86344SOL    HW260930  14.774   3.911   2.443
86345SOL     OW60931   1.260  12.617   5.882
86345SOL    HW160932   1.256  12.703   5.924
86345SOL    HW260933   1.220  12.557   5.945
86346SOL     OW60934   5.871   5.615   3.141
86346SOL    HW160935   5.946   5.579   3.095
86346SOL    HW260936   5.826   5.669   3.075
86347SOL     OW60937  12.878   4.848  12.294
86347SOL    HW160938  12.861   4.776  12.233
86347SOL    HW260939  12.824   4.828  12.370
86348SOL     OW60940  14.757  11.329  14.223
86348SOL    HW160941  14.690  11.307  14.289
86348SOL    HW260942  14.809  11.249  14.215
86349SOL     OW60943   8.728   8.726   8.410
86349SOL    HW160944   8.663   8.681   8.355
86349SOL    HW260945   8.696   8.815   8.417
86350SOL     OW60946   1.495  12.750   5.080
86350SOL    HW160947   1.464  12.839   5.061
86350SOL    HW260948   1.572  12.740   5.024
86351SOL     OW60949   0.508   2.020  10.675
86351SOL    HW160950   0.425   2.066  10.663
86351SOL    HW260951   0.573   2.078  10.634
86352SOL     OW60952   0.512   9.262   6.945
86352SOL    HW160953   0.567   9.237   7.020
86352SOL    HW260954   0.463   9.339   6.976
86353SOL     OW60955  10.703   0.883   2.973
86353SOL    HW160956  10.761   0.824   2.926
86353SOL    HW260957  10.755   0.963   2.986
86354SOL     OW60958   5.921  13.172   4.892
86354SOL    HW160959   6.013  13.153   4.873
86354SOL    HW260960   5.899  13.247   4.836
86355SOL     OW60961  13.569   1.487  12.072
86355SOL    HW160962  13.542   1.395  12.072
86355SOL    HW260963  13.637   1.493  12.005
86356SOL     OW60964   4.128   1.302   4.445
86356SOL    HW160965   4.220   1.309   4.472
86356SOL    HW260966   4.124   1.348   4.361
86357SOL     OW60967   2.272   9.129   2.733
86357SOL    HW160968   2.350   9.092   2.692
86357SOL    HW260969   2.232   9.056   2.780
86358SOL     OW60970   9.913   7.761  13.920
86358SOL    HW160971   9.998   7.717  13.910
86358SOL    HW260972   9.910   7.785  14.013
86359SOL     OW60973   4.962  12.829   6.240
86359SOL    HW160974   4.876  12.871   6.236
86359SOL    HW260975   4.972  12.786   6.155
86360SOL     OW60976  13.307   5.340   8.784
86360SOL    HW160977  13.383   5.368   8.836
86360SOL    HW260978  13.294   5.410   8.720
86361SOL     OW60979   7.976   0.603   3.612
86361SOL    HW160980   8.009   0.692   3.601
86361SOL    HW260981   8.055   0.550   3.627
86362SOL     OW60982  13.759   9.267   9.185
86362SOL    HW160983  13.714   9.336   9.138
86362SOL    HW260984  13.690   9.220   9.232
86363SOL     OW60985  14.615  11.999   0.214
86363SOL    HW160986  14.675  11.934   0.250
86363SOL    HW260987  14.658  12.030   0.134
86364SOL     OW60988   3.858  11.093  14.283
86364SOL    HW160989   3.936  11.102  14.228
86364SOL    HW260990   3.880  11.141  14.363
86365SOL     OW60991  12.815   5.298  12.183
86365SOL    HW160992  12.740   5.340  12.140
86365SOL    HW260993  12.880   5.289  12.114
86366SOL     OW60994  12.017   7.505  13.914
86366SOL    HW160995  12.063   7.552  13.983
86366SOL    HW260996  11.930   7.545  13.911
86367SOL     OW60997   9.801   3.955   2.629
86367SOL    HW160998   9.780   3.979   2.539
86367SOL    HW260999   9.818   4.038   2.673
86368SOL     OW61000  12.644   8.866   0.722
86368SOL    HW161001  12.605   8.859   0.810
86368SOL    HW261002  12.616   8.786   0.678
86369SOL     OW61003  12.457  13.283   7.305
86369SOL    HW161004  12.403  13.262   7.230
86369SOL    HW261005  12.434  13.219   7.372
86370SOL     OW61006   0.177   5.758  14.007
86370SOL    HW161007   0.217   5.689  13.954
86370SOL    HW261008   0.089   5.767  13.972
86371SOL     OW61009   2.781   3.392   8.017
86371SOL    HW161010   2.836   3.361   7.945
86371SOL    HW261011   2.714   3.324   8.026
86372SOL     OW61012   1.075   4.734   9.310
86372SOL    HW161013   1.093   4.825   9.333
86372SOL    HW261014   0.985   4.734   9.278
86373SOL     OW61015   6.189  12.901   5.186
86373SOL    HW161016   6.102  12.879   5.152
86373SOL    HW261017   6.235  12.817   5.190
86374SOL     OW61018  12.042  13.363   2.362
86374SOL    HW161019  12.128  13.381   2.400
86374SOL    HW261020  12.042  13.414   2.280
86375SOL     OW61021  10.119   2.837   3.013
86375SOL    HW161022  10.030   2.830   2.979
86375SOL    HW261023  10.143   2.747   3.036
86376SOL     OW61024   4.204   1.769   1.197
86376SOL    HW161025   4.112   1.746   1.211
86376SOL    HW261026   4.248   1.742   1.278
86377SOL     OW61027   4.310  14.421   5.985
86377SOL    HW161028   4.233  14.371   6.015
86377SOL    HW261029   4.365  14.429   6.063
86378SOL     OW61030  13.028   2.521  11.445
86378SOL    HW161031  13.042   2.560  11.531
86378SOL    HW261032  13.108   2.542  11.395
86379SOL     OW61033   3.300   4.102   1.306
86379SOL    HW161034   3.359   4.138   1.240
86379SOL    HW261035   3.253   4.032   1.261
86380SOL     OW61036   9.835   3.681   8.604
86380SOL    HW161037   9.829   3.752   8.539
86380SOL    HW261038   9.755   3.690   8.656
86381SOL     OW61039   1.810   8.074   0.022
86381SOL    HW161040   1.851   8.099  14.826
86381SOL    HW261041   1.871   8.105   0.089
86382SOL     OW61042   6.950  11.536   0.980
86382SOL    HW161043   6.963  11.449   0.944
86382SOL    HW261044   6.886  11.524   1.050
86383SOL     OW61045  10.182   8.504  12.431
86383SOL    HW161046  10.145   8.443  12.367
86383SOL    HW261047  10.137   8.586  12.416
86384SOL     OW61048   3.759  11.925   3.842
86384SOL    HW161049   3.807  11.946   3.922
86384SOL    HW261050   3.690  11.992   3.837
86385SOL     OW61051   6.916   1.023   0.865
86385SOL    HW161052   6.951   1.082   0.797
86385SOL    HW261053   6.868   1.081   0.924
86386SOL     OW61054   5.831   1.457   6.759
86386SOL    HW161055   5.781   1.513   6.700
86386SOL    HW261056   5.768   1.428   6.825
86387SOL     OW61057   0.908   2.155   7.383
86387SOL    HW161058   0.944   2.243   7.369
86387SOL    HW261059   0.815   2.169   7.398
86388SOL     OW61060   1.126   5.988   3.153
86388SOL    HW161061   1.140   5.898   3.123
86388SOL    HW261062   1.040   6.012   3.117
86389SOL     OW61063  11.216   7.281  14.194
86389SOL    HW161064  11.259   7.365  14.210
86389SOL    HW261065  11.125   7.304  14.175
86390SOL     OW61066  12.332  12.162   8.568
86390SOL    HW161067  12.311  12.139   8.477
86390SOL    HW261068  12.427  12.169   8.569
86391SOL     OW61069   6.226   3.779   7.183
86391SOL    HW161070   6.268   3.779   7.097
86391SOL    HW261071   6.187   3.692   7.191
86392SOL     OW61072   3.392   4.022   6.412
86392SOL    HW161073   3.301   4.002   6.388
86392SOL    HW261074   3.432   4.053   6.331
86393SOL     OW61075   0.727  11.503   1.757
86393SOL    HW161076   0.683  11.424   1.725
86393SOL    HW261077   0.771  11.538   1.679
86394SOL     OW61078   6.359   1.169   4.400
86394SOL    HW161079   6.291   1.174   4.333
86394SOL    HW261080   6.335   1.094   4.454
86395SOL     OW61081  13.450   5.315  10.101
86395SOL    HW161082  13.536   5.284  10.072
86395SOL    HW261083  13.465   5.347  10.190
86396SOL     OW61084   9.474   5.257   7.949
86396SOL    HW161085   9.427   5.288   8.026
86396SOL    HW261086   9.412   5.268   7.877
86397SOL     OW61087   5.336   9.360   3.553
86397SOL    HW161088   5.260   9.315   3.516
86397SOL    HW261089   5.299   9.439   3.594
86398SOL     OW61090   8.938  14.511   7.740
86398SOL    HW161091   8.895  14.466   7.812
86398SOL    HW261092   9.016  14.458   7.722
86399SOL     OW61093   2.043  11.294   5.108
86399SOL    HW161094   2.082  11.208   5.092
86399SOL    HW261095   2.016  11.291   5.200
86400SOL     OW61096   9.841  12.152   9.404
86400SOL    HW161097   9.880  12.216   9.344
86400SOL    HW261098   9.790  12.205   9.465
86401SOL     OW61099   2.452   6.848  12.721
86401SOL    HW161100   2.418   6.762  12.695
86401SOL    HW261101   2.382   6.909  12.697
86402SOL     OW61102  11.289   5.597   1.515
86402SOL    HW161103  11.240   5.653   1.455
86402SOL    HW261104  11.267   5.630   1.602
86403SOL     OW61105   2.135  12.565  11.308
86403SOL    HW161106   2.230  12.561  11.294
86403SOL    HW261107   2.123  12.633  11.374
86404SOL     OW61108  12.309   5.887  14.785
86404SOL    HW161109  12.239   5.939  14.824
86404SOL    HW261110  12.344   5.942  14.715
86405SOL     OW61111   6.698   5.278  13.770
86405SOL    HW161112   6.746   5.361  13.782
86405SOL    HW261113   6.745   5.234  13.699
86406SOL     OW61114  13.752   2.447   1.512
86406SOL    HW161115  13.697   2.411   1.443
86406SOL    HW261116  13.829   2.480   1.466
86407SOL     OW61117   6.361  12.052   3.660
86407SOL    HW161118   6.368  12.008   3.745
86407SOL    HW261119   6.312  11.991   3.605
86408SOL     OW61120  12.686  10.564   9.629
86408SOL    HW161121  12.701  10.539   9.721
86408SOL    HW261122  12.603  10.522   9.606
86409SOL     OW61123   4.861   1.817   1.220
86409SOL    HW161124   4.947   1.833   1.259
86409SOL    HW261125   4.879   1.761   1.145
86410SOL     OW61126  11.507   9.490  13.946
86410SOL    HW161127  11.449   9.433  13.894
86410SOL    HW261128  11.594   9.475  13.910
86411SOL     OW61129  12.528  11.307   4.597
86411SOL    HW161130  12.478  11.271   4.523
86411SOL    HW261131  12.464  11.362   4.643
86412SOL     OW61132   8.961   2.246  12.871
86412SOL    HW161133   9.056   2.235  12.861
86412SOL    HW261134   8.946   2.234  12.965
86413SOL     OW61135   0.639  14.357   8.756
86413SOL    HW161136   0.662  14.432   8.811
86413SOL    HW261137   0.652  14.281   8.812
86414SOL     OW61138   8.614  11.684  12.286
86414SOL    HW161139   8.679  11.643  12.229
86414SOL    HW261140   8.531  11.643  12.262
86415SOL     OW61141   9.595  10.309  11.842
86415SOL    HW161142   9.590  10.215  11.857
86415SOL    HW261143   9.509  10.332  11.806
86416SOL     OW61144   5.014   6.025   7.960
86416SOL    HW161145   4.994   5.962   8.030
86416SOL    HW261146   5.071   5.976   7.900
86417SOL     OW61147   9.662   4.947  11.957
86417SOL    HW161148   9.603   5.010  11.998
86417SOL    HW261149   9.619   4.862  11.969
86418SOL     OW61150   7.444   0.300  11.132
86418SOL    HW161151   7.365   0.265  11.174
86418SOL    HW261152   7.462   0.380  11.180
86419SOL     OW61153   9.830   6.587   7.800
86419SOL    HW161154   9.803   6.497   7.779
86419SOL    HW261155   9.770   6.642   7.751
86420SOL     OW61156   6.247   3.713  12.276
86420SOL    HW161157   6.203   3.740  12.195
86420SOL    HW261158   6.338   3.738  12.263
86421SOL     OW61159  13.009   6.034   8.169
86421SOL    HW161160  12.999   6.104   8.104
86421SOL    HW261161  13.096   6.048   8.205
86422SOL     OW61162  14.414   6.076   8.982
86422SOL    HW161163  14.411   6.172   8.980
86422SOL    HW261164  14.410   6.049   8.890
86423SOL     OW61165   5.541   3.635   2.992
86423SOL    HW161166   5.623   3.635   2.942
86423SOL    HW261167   5.541   3.551   3.037
86424SOL     OW61168   9.647   2.610  12.105
86424SOL    HW161169   9.592   2.608  12.027
86424SOL    HW261170   9.635   2.524  12.146
86425SOL     OW61171  10.040   5.185  10.970
86425SOL    HW161172  10.117   5.239  10.947
86425SOL    HW261173  10.076   5.097  10.982
86426SOL     OW61174   8.748   3.900  12.507
86426SOL    HW161175   8.811   3.930  12.573
86426SOL    HW261176   8.784   3.817  12.476
86427SOL     OW61177   5.474   7.582  10.551
86427SOL    HW161178   5.473   7.497  10.594
86427SOL    HW261179   5.480   7.645  10.622
86428SOL     OW61180  14.041   6.872   8.148
86428SOL    HW161181  14.064   6.918   8.068
86428SOL    HW261182  13.953   6.904   8.169
86429SOL     OW61183   9.283  13.600   9.769
86429SOL    HW161184   9.317  13.536   9.831
86429SOL    HW261185   9.190  13.605   9.788
86430SOL     OW61186  11.679   4.421   5.161
86430SOL    HW161187  11.605   4.456   5.211
86430SOL    HW261188  11.751   4.420   5.224
86431SOL     OW61189   5.429   5.031   2.823
86431SOL    HW161190   5.345   5.022   2.779
86431SOL    HW261191   5.467   5.110   2.785
86432SOL     OW61192  11.906  10.836   5.269
86432SOL    HW161193  11.919  10.912   5.214
86432SOL    HW261194  11.811  10.832   5.284
86433SOL     OW61195   1.872   2.875  11.818
86433SOL    HW161196   1.895   2.783  11.807
86433SOL    HW261197   1.897   2.916  11.735
86434SOL     OW61198  14.737   5.922   4.703
86434SOL    HW161199  14.715   5.869   4.780
86434SOL    HW261200  14.724   6.013   4.732
86435SOL     OW61201  13.059   9.611  13.806
86435SOL    HW161202  13.092   9.559  13.879
86435SOL    HW261203  12.989   9.558  13.768
86436SOL     OW61204   1.154   3.515   5.413
86436SOL    HW161205   1.095   3.479   5.479
86436SOL    HW261206   1.232   3.542   5.463
86437SOL     OW61207  10.288   3.674   1.706
86437SOL    HW161208  10.318   3.645   1.792
86437SOL    HW261209  10.233   3.750   1.724
86438SOL     OW61210  11.031  13.393  12.378
86438SOL    HW161211  11.059  13.359  12.464
86438SOL    HW261212  11.104  13.449  12.350
86439SOL     OW61213   8.119   5.097   9.417
86439SOL    HW161214   8.049   5.126   9.360
86439SOL    HW261215   8.109   5.149   9.497
86440SOL     OW61216   1.691   5.714   8.713
86440SOL    HW161217   1.667   5.776   8.782
86440SOL    HW261218   1.637   5.637   8.730
86441SOL     OW61219   0.121  10.152  13.339
86441SOL    HW161220   0.118  10.246  13.357
86441SOL    HW261221   0.203  10.139  13.291
86442SOL     OW61222   9.382   7.706  11.932
86442SOL    HW161223   9.361   7.689  12.024
86442SOL    HW261224   9.414   7.796  11.931
86443SOL     OW61225   5.606   0.303  11.291
86443SOL    HW161226   5.531   0.361  11.303
86443SOL    HW261227   5.607   0.283  11.197
86444SOL     OW61228   5.239   2.985  13.708
86444SOL    HW161229   5.243   3.063  13.653
86444SOL    HW261230   5.162   2.999  13.763
86445SOL     OW61231   1.474  11.134   0.994
86445SOL    HW161232   1.492  11.207   1.053
86445SOL    HW261233   1.506  11.057   1.040
86446SOL     OW61234  14.576   6.814   9.511
86446SOL    HW161235  14.502   6.846   9.460
86446SOL    HW261236  14.647   6.875   9.492
86447SOL     OW61237  10.045   1.269   1.030
86447SOL    HW161238  10.126   1.294   1.074
86447SOL    HW261239  10.073   1.221   0.952
86448SOL     OW61240   4.886   1.613   3.525
86448SOL    HW161241   4.958   1.603   3.463
86448SOL    HW261242   4.815   1.652   3.474
86449SOL     OW61243   3.173  14.834   5.943
86449SOL    HW161244   3.085  14.856   5.973
86449SOL    HW261245   3.180  14.874   5.856
86450SOL     OW61246  14.103   7.924  12.000
86450SOL    HW161247  14.176   7.921  12.063
86450SOL    HW261248  14.130   7.991  11.936
86451SOL     OW61249  12.314  12.296  14.164
86451SOL    HW161250  12.381  12.246  14.117
86451SOL    HW261251  12.300  12.373  14.108
86452SOL     OW61252  14.118  11.323  10.484
86452SOL    HW161253  14.154  11.273  10.557
86452SOL    HW261254  14.057  11.263  10.441
86453SOL     OW61255  12.479  10.941   1.472
86453SOL    HW161256  12.544  10.949   1.403
86453SOL    HW261257  12.422  10.869   1.443
86454SOL     OW61258  11.892   8.260  12.987
86454SOL    HW161259  11.949   8.209  13.045
86454SOL    HW261260  11.804   8.227  13.006
86455SOL     OW61261  12.556  11.527  12.707
86455SOL    HW161262  12.593  11.442  12.685
86455SOL    HW261263  12.604  11.589  12.652
86456SOL     OW61264  11.247   4.004  14.752
86456SOL    HW161265  11.274   4.024  14.662
86456SOL    HW261266  11.151   4.004  14.747
86457SOL     OW61267   3.220   8.739   3.902
86457SOL    HW161268   3.267   8.818   3.929
86457SOL    HW261269   3.284   8.668   3.915
86458SOL     OW61270  13.762  10.891   6.695
86458SOL    HW161271  13.742  10.812   6.645
86458SOL    HW261272  13.855  10.884   6.716
86459SOL     OW61273   7.246  13.926   2.065
86459SOL    HW161274   7.238  13.887   2.152
86459SOL    HW261275   7.341  13.930   2.049
86460SOL     OW61276   7.313   0.127  10.128
86460SOL    HW161277   7.251   0.134  10.056
86460SOL    HW261278   7.399   0.136  10.087
86461SOL     OW61279  10.991   5.668   6.296
86461SOL    HW161280  10.914   5.720   6.275
86461SOL    HW261281  11.063   5.712   6.250
86462SOL     OW61282   1.398   9.456   1.375
86462SOL    HW161283   1.363   9.541   1.349
86462SOL    HW261284   1.464   9.477   1.441
86463SOL     OW61285   5.317  14.369  12.191
86463SOL    HW161286   5.266  14.293  12.219
86463SOL    HW261287   5.282  14.441  12.243
86464SOL     OW61288   6.415   3.850   8.339
86464SOL    HW161289   6.509   3.852   8.324
86464SOL    HW261290   6.383   3.934   8.308
86465SOL     OW61291   8.389  12.858   6.587
86465SOL    HW161292   8.448  12.906   6.645
86465SOL    HW261293   8.394  12.905   6.503
86466SOL     OW61294   0.072   9.853   3.358
86466SOL    HW161295  14.883   9.817   3.403
86466SOL    HW261296   0.042   9.868   3.268
86467SOL     OW61297   4.955   3.851   6.732
86467SOL    HW161298   4.996   3.766   6.718
86467SOL    HW261299   4.862   3.835   6.716
86468SOL     OW61300   8.268   3.624   7.798
86468SOL    HW161301   8.355   3.652   7.769
86468SOL    HW261302   8.210   3.696   7.771
86469SOL     OW61303   4.303  10.119   4.165
86469SOL    HW161304   4.253  10.157   4.093
86469SOL    HW261305   4.238  10.103   4.234
86470SOL     OW61306  12.345   9.743  12.535
86470SOL    HW161307  12.344   9.659  12.581
86470SOL    HW261308  12.394   9.801  12.593
86471SOL     OW61309   3.252   5.064   5.055
86471SOL    HW161310   3.219   5.047   4.967
86471SOL    HW261311   3.343   5.036   5.053
86472SOL     OW61312   7.901  12.744   0.697
86472SOL    HW161313   7.825  12.770   0.644
86472SOL    HW261314   7.886  12.784   0.782
86473SOL     OW61315   8.018  14.123   0.378
86473SOL    HW161316   7.941  14.077   0.413
86473SOL    HW261317   8.008  14.213   0.408
86474SOL     OW61318  11.533  14.453  12.134
86474SOL    HW161319  11.533  14.426  12.043
86474SOL    HW261320  11.617  14.499  12.145
86475SOL     OW61321   7.720  12.059   8.709
86475SOL    HW161322   7.719  12.147   8.746
86475SOL    HW261323   7.729  12.074   8.614
86476SOL     OW61324   2.888  13.583   5.972
86476SOL    HW161325   2.911  13.498   5.936
86476SOL    HW261326   2.848  13.630   5.899
86477SOL     OW61327   9.701  11.506  11.892
86477SOL    HW161328   9.732  11.467  11.973
86477SOL    HW261329   9.610  11.529  11.909
86478SOL     OW61330   5.745  14.157  12.196
86478SOL    HW161331   5.779  14.083  12.145
86478SOL    HW261332   5.655  14.131  12.218
86479SOL     OW61333   7.748   0.127  13.366
86479SOL    HW161334   7.759   0.032  13.361
86479SOL    HW261335   7.663   0.144  13.324
86480SOL     OW61336   8.267   8.164   1.550
86480SOL    HW161337   8.215   8.207   1.618
86480SOL    HW261338   8.243   8.209   1.469
86481SOL     OW61339  11.422   3.964  13.126
86481SOL    HW161340  11.400   3.873  13.105
86481SOL    HW261341  11.345   3.997  13.171
86482SOL     OW61342  14.681   1.773   6.176
86482SOL    HW161343  14.688   1.680   6.196
86482SOL    HW261344  14.766   1.810   6.200
86483SOL     OW61345  12.655   0.446   1.149
86483SOL    HW161346  12.633   0.538   1.163
86483SOL    HW261347  12.654   0.408   1.237
86484SOL     OW61348   2.585   0.156  10.296
86484SOL    HW161349   2.599   0.157  10.390
86484SOL    HW261350   2.503   0.205  10.284
86485SOL     OW61351   5.301   8.001  10.240
86485SOL    HW161352   5.242   7.964  10.305
86485SOL    HW261353   5.309   7.933  10.173
86486SOL     OW61354   4.783  14.636   4.093
86486SOL    HW161355   4.872  14.669   4.107
86486SOL    HW261356   4.731  14.715   4.078
86487SOL     OW61357  11.508   0.708  10.735
86487SOL    HW161358  11.580   0.771  10.745
86487SOL    HW261359  11.462   0.712  10.819
86488SOL     OW61360   8.521   3.694   7.304
86488SOL    HW161361   8.480   3.685   7.218
86488SOL    HW261362   8.537   3.604   7.332
86489SOL     OW61363   7.806   7.544   1.997
86489SOL    HW161364   7.850   7.594   2.066
86489SOL    HW261365   7.797   7.606   1.924
86490SOL     OW61366   8.906   3.980  14.190
86490SOL    HW161367   8.865   3.974  14.104
86490SOL    HW261368   8.946   4.067  14.192
86491SOL     OW61369   5.241   0.398   8.467
86491SOL    HW161370   5.311   0.333   8.467
86491SOL    HW261371   5.185   0.374   8.540
86492SOL     OW61372   2.406   3.013   1.452
86492SOL    HW161373   2.372   3.081   1.510
86492SOL    HW261374   2.468   2.964   1.506
86493SOL     OW61375   8.501   4.878   1.034
86493SOL    HW161376   8.459   4.807   1.082
86493SOL    HW261377   8.551   4.925   1.101
86494SOL     OW61378   6.042  13.839   7.246
86494SOL    HW161379   5.950  13.848   7.272
86494SOL    HW261380   6.074  13.767   7.299
86495SOL     OW61381   5.811   7.259  11.445
86495SOL    HW161382   5.854   7.283  11.362
86495SOL    HW261383   5.718   7.274  11.428
86496SOL     OW61384  11.184  13.758  10.885
86496SOL    HW161385  11.254  13.747  10.820
86496SOL    HW261386  11.143  13.672  10.891
86497SOL     OW61387   2.969   9.727   4.453
86497SOL    HW161388   2.894   9.772   4.492
86497SOL    HW261389   2.979   9.648   4.505
86498SOL     OW61390   6.478   6.854  12.505
86498SOL    HW161391   6.502   6.886  12.418
86498SOL    HW261392   6.508   6.763  12.506
86499SOL     OW61393   8.484   3.871   0.016
86499SOL    HW161394   8.483   3.822  14.821
86499SOL    HW261395   8.550   3.939   0.002
86500SOL     OW61396   1.629  11.505   6.410
86500SOL    HW161397   1.668  11.544   6.332
86500SOL    HW261398   1.643  11.570   6.479
86501SOL     OW61399  11.863   4.895  10.386
86501SOL    HW161400  11.821   4.934  10.309
86501SOL    HW261401  11.805   4.915  10.459
86502SOL     OW61402   9.751   4.648   9.343
86502SOL    HW161403   9.674   4.593   9.357
86502SOL    HW261404   9.735   4.690   9.259
86503SOL     OW61405   0.560   4.303  13.942
86503SOL    HW161406   0.637   4.290  13.997
86503SOL    HW261407   0.487   4.270  13.994
86504SOL     OW61408   8.705   0.824   0.195
86504SOL    HW161409   8.733   0.736   0.167
86504SOL    HW261410   8.648   0.854   0.124
86505SOL     OW61411  13.011   3.275   9.376
86505SOL    HW161412  13.088   3.249   9.426
86505SOL    HW261413  13.024   3.236   9.290
86506SOL     OW61414   4.628  13.616   8.175
86506SOL    HW161415   4.696  13.661   8.226
86506SOL    HW261416   4.569  13.579   8.241
86507SOL     OW61417   2.926   7.698   6.888
86507SOL    HW161418   2.978   7.778   6.889
86507SOL    HW261419   2.977   7.635   6.939
86508SOL     OW61420  11.795  11.924  14.528
86508SOL    HW161421  11.773  11.973  14.449
86508SOL    HW261422  11.742  11.845  14.522
86509SOL     OW61423  10.227  13.732  13.727
86509SOL    HW161424  10.159  13.665  13.731
86509SOL    HW261425  10.201  13.797  13.793
86510SOL     OW61426  14.049   6.822   0.747
86510SOL    HW161427  14.015   6.800   0.660
86510SOL    HW261428  13.979   6.795   0.807
86511SOL     OW61429  11.415   1.597   2.792
86511SOL    HW161430  11.470   1.612   2.715
86511SOL    HW261431  11.329   1.575   2.757
86512SOL     OW61432  10.066   4.569   3.359
86512SOL    HW161433  10.137   4.532   3.412
86512SOL    HW261434  10.081   4.533   3.271
86513SOL     OW61435   1.283   3.310   5.257
86513SOL    HW161436   1.223   3.376   5.290
86513SOL    HW261437   1.291   3.247   5.329
86514SOL     OW61438   7.661   5.213  13.322
86514SOL    HW161439   7.680   5.292  13.372
86514SOL    HW261440   7.646   5.145  13.387
86515SOL     OW61441   0.105   3.958   8.929
86515SOL    HW161442   0.164   3.883   8.926
86515SOL    HW261443   0.020   3.920   8.952
86516SOL     OW61444  13.671  14.614   6.032
86516SOL    HW161445  13.648  14.669   5.958
86516SOL    HW261446  13.593  14.560   6.046
86517SOL     OW61447  11.521   6.327   6.181
86517SOL    HW161448  11.531   6.279   6.099
86517SOL    HW261449  11.503   6.259   6.246
86518SOL     OW61450   6.268   1.262   2.259
86518SOL    HW161451   6.274   1.263   2.163
86518SOL    HW261452   6.177   1.281   2.277
86519SOL     OW61453   3.793   0.791   2.359
86519SOL    HW161454   3.747   0.726   2.306
86519SOL    HW261455   3.767   0.769   2.449
86520SOL     OW61456  10.565   0.688  10.031
86520SOL    HW161457  10.481   0.682  10.076
86520SOL    HW261458  10.611   0.759  10.075
86521SOL     OW61459   7.554   6.886  13.433
86521SOL    HW161460   7.572   6.890  13.339
86521SOL    HW261461   7.463   6.915  13.441
86522SOL     OW61462   2.495   2.464   5.573
86522SOL    HW161463   2.476   2.523   5.646
86522SOL    HW261464   2.411   2.423   5.553
86523SOL     OW61465  14.017   2.480   0.862
86523SOL    HW161466  14.057   2.402   0.822
86523SOL    HW261467  13.926   2.478   0.833
86524SOL     OW61468  11.577   7.638   4.236
86524SOL    HW161469  11.622   7.599   4.161
86524SOL    HW261470  11.639   7.627   4.308
86525SOL     OW61471   7.303   5.459   2.284
86525SOL    HW161472   7.282   5.510   2.362
86525SOL    HW261473   7.302   5.522   2.212
86526SOL     OW61474   1.532  11.894   7.224
86526SOL    HW161475   1.447  11.937   7.236
86526SOL    HW261476   1.516  11.802   7.245
86527SOL     OW61477   9.722   2.134   7.953
86527SOL    HW161478   9.762   2.193   7.888
86527SOL    HW261479   9.788   2.066   7.965
86528SOL     OW61480  13.067   7.031  11.767
86528SOL    HW161481  13.161   7.015  11.763
86528SOL    HW261482  13.027   6.944  11.766
86529SOL     OW61483  13.168   1.511  11.981
86529SOL    HW161484  13.221   1.523  11.902
86529SOL    HW261485  13.084   1.553  11.960
86530SOL     OW61486  14.040   1.984   7.790
86530SOL    HW161487  14.074   1.972   7.879
86530SOL    HW261488  14.034   2.078   7.779
86531SOL     OW61489   9.351   7.003   2.313
86531SOL    HW161490   9.354   6.912   2.343
86531SOL    HW261491   9.373   7.054   2.390
86532SOL     OW61492   7.920   6.349   3.351
86532SOL    HW161493   7.998   6.402   3.330
86532SOL    HW261494   7.953   6.259   3.355
86533SOL     OW61495  11.658   9.026   7.935
86533SOL    HW161496  11.751   9.044   7.949
86533SOL    HW261497  11.656   8.955   7.871
86534SOL     OW61498   3.311   4.897   4.259
86534SOL    HW161499   3.236   4.897   4.200
86534SOL    HW261500   3.290   4.831   4.325
86535SOL     OW61501  10.547   5.069  14.370
86535SOL    HW161502  10.584   5.127  14.436
86535SOL    HW261503  10.600   4.990  14.375
86536SOL     OW61504   5.489   9.611   1.411
86536SOL    HW161505   5.410   9.561   1.392
86536SOL    HW261506   5.524   9.570   1.491
86537SOL     OW61507   9.271   7.722  12.188
86537SOL    HW161508   9.244   7.637  12.222
86537SOL    HW261509   9.195   7.754  12.140
86538SOL     OW61510   1.841  11.171   3.196
86538SOL    HW161511   1.904  11.140   3.261
86538SOL    HW261512   1.774  11.216   3.248
86539SOL     OW61513   1.595  13.077  11.183
86539SOL    HW161514   1.531  13.028  11.131
86539SOL    HW261515   1.662  13.103  11.120
86540SOL     OW61516  14.460   0.075   7.116
86540SOL    HW161517  14.532   0.070   7.054
86540SOL    HW261518  14.501   0.101   7.199
86541SOL     OW61519   3.758  12.061   7.381
86541SOL    HW161520   3.685  12.019   7.428
86541SOL    HW261521   3.830  11.999   7.388
86542SOL     OW61522   2.001   4.973  12.437
86542SOL    HW161523   1.915   4.947  12.472
86542SOL    HW261524   2.001   5.068  12.441
86543SOL     OW61525  10.996   8.354   5.868
86543SOL    HW161526  11.029   8.335   5.956
86543SOL    HW261527  10.911   8.394   5.883
86544SOL     OW61528   0.229  11.827   3.586
86544SOL    HW161529   0.170  11.775   3.641
86544SOL    HW261530   0.315  11.787   3.600
86545SOL     OW61531   1.090  13.494   8.049
86545SOL    HW161532   1.151  13.502   8.122
86545SOL    HW261533   1.044  13.579   8.047
86546SOL     OW61534   2.413  12.862   3.672
86546SOL    HW161535   2.390  12.925   3.741
86546SOL    HW261536   2.509  12.870   3.665
86547SOL     OW61537   2.779  12.875  12.565
86547SOL    HW161538   2.798  12.941  12.632
86547SOL    HW261539   2.733  12.806  12.612
86548SOL     OW61540   3.658   3.175  13.735
86548SOL    HW161541   3.651   3.157  13.641
86548SOL    HW261542   3.607   3.255  13.748
86549SOL     OW61543   5.755   1.322   3.517
86549SOL    HW161544   5.685   1.330   3.452
86549SOL    HW261545   5.761   1.409   3.557
86550SOL     OW61546  10.601  10.575  14.414
86550SOL    HW161547  10.520  10.541  14.452
86550SOL    HW261548  10.668  10.513  14.441
86551SOL     OW61549   8.096  14.293  10.269
86551SOL    HW161550   8.043  14.218  10.241
86551SOL    HW261551   8.184  14.274  10.236
86552SOL     OW61552  14.347  13.707   4.593
86552SOL    HW161553  14.281  13.775   4.582
86552SOL    HW261554  14.320  13.659   4.672
86553SOL     OW61555   1.893   9.522   6.582
86553SOL    HW161556   1.936   9.458   6.639
86553SOL    HW261557   1.859   9.588   6.642
86554SOL     OW61558  14.883   4.611   4.428
86554SOL    HW161559  14.870   4.676   4.359
86554SOL    HW261560   0.068   4.646   4.480
86555SOL     OW61561   4.025   3.122  10.884
86555SOL    HW161562   4.097   3.168  10.839
86555SOL    HW261563   3.949   3.177  10.869
86556SOL     OW61564  12.833   9.016   6.540
86556SOL    HW161565  12.788   9.075   6.479
86556SOL    HW261566  12.790   9.031   6.624
86557SOL     OW61567   0.111   7.421   1.704
86557SOL    HW161568   0.176   7.413   1.773
86557SOL    HW261569   0.078   7.332   1.692
86558SOL     OW61570   1.415   6.246   0.973
86558SOL    HW161571   1.345   6.248   0.908
86558SOL    HW261572   1.374   6.206   1.050
86559SOL     OW61573  10.858  13.988  13.931
86559SOL    HW161574  10.835  13.895  13.928
86559SOL    HW261575  10.861  14.009  14.025
86560SOL     OW61576   8.569   3.711   8.439
86560SOL    HW161577   8.486   3.746   8.471
86560SOL    HW261578   8.549   3.620   8.415
86561SOL     OW61579   1.603  14.678  10.779
86561SOL    HW161580   1.680  14.636  10.817
86561SOL    HW261581   1.562  14.610  10.727
86562SOL     OW61582  12.240  13.665   4.056
86562SOL    HW161583  12.213  13.606   4.127
86562SOL    HW261584  12.166  13.666   3.996
86563SOL     OW61585   7.499   1.354  12.953
86563SOL    HW161586   7.508   1.284  13.018
86563SOL    HW261587   7.511   1.310  12.869
86564SOL     OW61588  11.454   3.094   3.764
86564SOL    HW161589  11.416   3.014   3.800
86564SOL    HW261590  11.388   3.161   3.783
86565SOL     OW61591   0.241   2.113   3.754
86565SOL    HW161592   0.249   2.149   3.843
86565SOL    HW261593   0.152   2.079   3.750
86566SOL     OW61594  14.703   6.924   2.951
86566SOL    HW161595  14.796   6.906   2.939
86566SOL    HW261596  14.697   7.019   2.958
86567SOL     OW61597   5.159  12.775   4.277
86567SOL    HW161598   5.145  12.681   4.275
86567SOL    HW261599   5.230  12.790   4.215
86568SOL     OW61600   4.312   5.083  12.562
86568SOL    HW161601   4.326   5.133  12.642
86568SOL    HW261602   4.393   5.093  12.513
86569SOL     OW61603   4.503   6.004   0.163
86569SOL    HW161604   4.516   6.095   0.137
86569SOL    HW261605   4.493   5.957   0.080
86570SOL     OW61606  11.082   7.592   8.253
86570SOL    HW161607  11.057   7.596   8.345
86570SOL    HW261608  11.073   7.500   8.229
86571SOL     OW61609   8.059   4.265   9.067
86571SOL    HW161610   8.140   4.299   9.104
86571SOL    HW261611   8.002   4.252   9.143
86572SOL     OW61612   0.699  12.446   0.556
86572SOL    HW161613   0.713  12.385   0.628
86572SOL    HW261614   0.785  12.487   0.542
86573SOL     OW61615  11.060  14.060   2.195
86573SOL    HW161616  11.087  14.124   2.261
86573SOL    HW261617  11.105  13.979   2.219
86574SOL     OW61618   1.160   0.635  10.383
86574SOL    HW161619   1.200   0.701  10.326
86574SOL    HW261620   1.177   0.552  10.338
86575SOL     OW61621   0.506   9.165   5.888
86575SOL    HW161622   0.496   9.134   5.798
86575SOL    HW261623   0.597   9.194   5.894
86576SOL     OW61624   3.870   4.541  12.593
86576SOL    HW161625   3.935   4.495  12.539
86576SOL    HW261626   3.799   4.561  12.532
86577SOL     OW61627   3.283   8.650   5.761
86577SOL    HW161628   3.349   8.682   5.699
86577SOL    HW261629   3.329   8.646   5.845
86578SOL     OW61630   8.864   1.710   5.139
86578SOL    HW161631   8.799   1.647   5.108
86578SOL    HW261632   8.816   1.768   5.198
86579SOL     OW61633  14.563   3.802   6.460
86579SOL    HW161634  14.628   3.852   6.509
86579SOL    HW261635  14.482   3.811   6.510
86580SOL     OW61636   4.118   6.167   6.570
86580SOL    HW161637   4.077   6.084   6.596
86580SOL    HW261638   4.157   6.200   6.651
86581SOL     OW61639   2.921   2.385   2.452
86581SOL    HW161640   2.855   2.441   2.410
86581SOL    HW261641   2.945   2.432   2.531
86582SOL     OW61642  13.215   7.503   4.395
86582SOL    HW161643  13.265   7.425   4.419
86582SOL    HW261644  13.128   7.488   4.432
86583SOL     OW61645   6.654   7.680   2.679
86583SOL    HW161646   6.695   7.712   2.599
86583SOL    HW261647   6.721   7.624   2.719
86584SOL     OW61648   4.732   4.347   7.623
86584SOL    HW161649   4.805   4.384   7.672
86584SOL    HW261650   4.772   4.277   7.570
86585SOL     OW61651  11.523   7.574   3.599
86585SOL    HW161652  11.437   7.606   3.626
86585SOL    HW261653  11.585   7.627   3.649
86586SOL     OW61654  10.071   8.694   9.922
86586SOL    HW161655  10.145   8.685   9.981
86586SOL    HW261656  10.026   8.609   9.926
86587SOL     OW61657  10.598  11.515   7.634
86587SOL    HW161658  10.615  11.521   7.728
86587SOL    HW261659  10.683  11.529   7.593
86588SOL     OW61660  13.776   4.612  11.670
86588SOL    HW161661  13.690   4.609  11.628
86588SOL    HW261662  13.760   4.583  11.760
86589SOL     OW61663  12.049  13.188   2.000
86589SOL    HW161664  11.955  13.198   2.017
86589SOL    HW261665  12.086  13.165   2.085
86590SOL     OW61666   3.699   0.453  11.239
86590SOL    HW161667   3.688   0.481  11.148
86590SOL    HW261668   3.790   0.475  11.260
86591SOL     OW61669   2.656   8.981   9.808
86591SOL    HW161670   2.697   9.067   9.797
86591SOL    HW261671   2.578   8.984   9.753
86592SOL     OW61672   7.930   7.402   1.095
86592SOL    HW161673   7.862   7.374   1.156
86592SOL    HW261674   7.902   7.367   1.010
86593SOL     OW61675   4.528   5.929   9.981
86593SOL    HW161676   4.536   5.919   9.886
86593SOL    HW261677   4.569   5.851  10.018
86594SOL     OW61678  12.812  11.117   1.399
86594SOL    HW161679  12.785  11.025   1.401
86594SOL    HW261680  12.766  11.158   1.472
86595SOL     OW61681  10.394   8.010  13.290
86595SOL    HW161682  10.400   7.965  13.374
86595SOL    HW261683  10.337   8.085  13.305
86596SOL     OW61684   7.624  10.411  12.920
86596SOL    HW161685   7.549  10.463  12.891
86596SOL    HW261686   7.617  10.411  13.015
86597SOL     OW61687  14.288   3.995   6.287
86597SOL    HW161688  14.259   4.078   6.325
86597SOL    HW261689  14.287   3.933   6.360
86598SOL     OW61690   6.210   5.482  10.317
86598SOL    HW161691   6.201   5.572  10.348
86598SOL    HW261692   6.273   5.486  10.246
86599SOL     OW61693   7.154   6.347   1.283
86599SOL    HW161694   7.099   6.423   1.264
86599SOL    HW261695   7.096   6.272   1.271
86600SOL     OW61696  11.152   4.879   9.865
86600SOL    HW161697  11.185   4.859   9.777
86600SOL    HW261698  11.231   4.905   9.914
86601SOL     OW61699   2.787   9.737   6.956
86601SOL    HW161700   2.853   9.693   6.902
86601SOL    HW261701   2.816   9.722   7.046
86602SOL     OW61702   0.844  12.251  11.584
86602SOL    HW161703   0.917  12.289  11.534
86602SOL    HW261704   0.808  12.185  11.526
86603SOL     OW61705   2.002   8.545  13.028
86603SOL    HW161706   2.097   8.542  13.038
86603SOL    HW261707   1.971   8.580  13.111
86604SOL     OW61708   0.551   9.620   9.944
86604SOL    HW161709   0.463   9.637   9.913
86604SOL    HW261710   0.548   9.530   9.978
86605SOL     OW61711  13.081   4.781   2.988
86605SOL    HW161712  13.011   4.845   2.970
86605SOL    HW261713  13.154   4.810   2.933
86606SOL     OW61714   0.768   7.475   9.559
86606SOL    HW161715   0.686   7.476   9.511
86606SOL    HW261716   0.745   7.502   9.648
86607SOL     OW61717  11.257   6.810   2.854
86607SOL    HW161718  11.217   6.764   2.927
86607SOL    HW261719  11.334   6.758   2.831
86608SOL     OW61720  11.792  14.487   7.756
86608SOL    HW161721  11.836  14.418   7.705
86608SOL    HW261722  11.851  14.503   7.830
86609SOL     OW61723  12.021   4.208  12.141
86609SOL    HW161724  12.070   4.128  12.160
86609SOL    HW261725  11.930   4.179  12.137
86610SOL     OW61726   7.906   7.577  13.964
86610SOL    HW161727   7.838   7.597  14.029
86610SOL    HW261728   7.977   7.538  14.015
86611SOL     OW61729   1.895  12.785  13.213
86611SOL    HW161730   1.814  12.833  13.232
86611SOL    HW261731   1.960  12.854  13.199
86612SOL     OW61732  10.025   5.537   3.383
86612SOL    HW161733  10.004   5.497   3.298
86612SOL    HW261734  10.043   5.463   3.441
86613SOL     OW61735   3.364   6.079  12.045
86613SOL    HW161736   3.302   6.010  12.069
86613SOL    HW261737   3.434   6.071  12.109
86614SOL     OW61738   3.924   5.616   1.727
86614SOL    HW161739   3.922   5.526   1.760
86614SOL    HW261740   3.831   5.639   1.718
86615SOL     OW61741  10.135  14.558   2.256
86615SOL    HW161742  10.208  14.514   2.213
86615SOL    HW261743  10.164  14.649   2.264
86616SOL     OW61744   6.649  11.280   8.501
86616SOL    HW161745   6.651  11.185   8.517
86616SOL    HW261746   6.741  11.304   8.489
86617SOL     OW61747   0.919  13.208   3.282
86617SOL    HW161748   1.006  13.182   3.254
86617SOL    HW261749   0.901  13.288   3.232
86618SOL     OW61750   9.298   4.017   3.861
86618SOL    HW161751   9.225   3.984   3.913
86618SOL    HW261752   9.258   4.047   3.779
86619SOL     OW61753   4.785  10.102  13.799
86619SOL    HW161754   4.831  10.055  13.730
86619SOL    HW261755   4.809  10.193  13.787
86620SOL     OW61756   3.347  10.102  10.015
86620SOL    HW161757   3.422  10.098   9.955
86620SOL    HW261758   3.384  10.081  10.101
86621SOL     OW61759   3.560   0.214   8.895
86621SOL    HW161760   3.535   0.130   8.934
86621SOL    HW261761   3.646   0.234   8.933
86622SOL     OW61762   9.339   8.473  14.859
86622SOL    HW161763   9.326   8.514   0.058
86622SOL    HW261764   9.252   8.473  14.820
86623SOL     OW61765   1.954   5.488  12.963
86623SOL    HW161766   1.927   5.428  12.894
86623SOL    HW261767   1.908   5.458  13.041
86624SOL     OW61768   7.617   5.642   0.992
86624SOL    HW161769   7.619   5.634   1.088
86624SOL    HW261770   7.707   5.622   0.965
86625SOL     OW61771  14.453   7.128   0.461
86625SOL    HW161772  14.417   7.206   0.502
86625SOL    HW261773  14.391   7.059   0.483
86626SOL     OW61774  11.460  12.830  11.962
86626SOL    HW161775  11.433  12.864  11.876
86626SOL    HW261776  11.554  12.810  11.951
86627SOL     OW61777  10.260  12.865   8.133
86627SOL    HW161778  10.289  12.884   8.044
86627SOL    HW261779  10.296  12.935   8.186
86628SOL     OW61780   8.925   4.316   0.437
86628SOL    HW161781   8.893   4.230   0.463
86628SOL    HW261782   8.942   4.362   0.519
86629SOL     OW61783  12.432  12.746   6.893
86629SOL    HW161784  12.450  12.703   6.977
86629SOL    HW261785  12.494  12.706   6.832
86630SOL     OW61786   5.094  14.165   3.524
86630SOL    HW161787   5.179  14.153   3.481
86630SOL    HW261788   5.104  14.122   3.608
86631SOL     OW61789   0.883   3.090   2.928
86631SOL    HW161790   0.935   3.156   2.882
86631SOL    HW261791   0.928   3.008   2.910
86632SOL     OW61792   9.252   1.902   7.356
86632SOL    HW161793   9.289   1.989   7.345
86632SOL    HW261794   9.200   1.888   7.277
86633SOL     OW61795  12.176  11.124  11.176
86633SOL    HW161796  12.225  11.089  11.251
86633SOL    HW261797  12.144  11.047  11.130
86634SOL     OW61798   6.302  14.444   3.744
86634SOL    HW161799   6.359  14.507   3.700
86634SOL    HW261800   6.361  14.376   3.776
86635SOL     OW61801   0.935  11.897  13.203
86635SOL    HW161802   0.892  11.840  13.139
86635SOL    HW261803   0.991  11.839  13.254
86636SOL     OW61804   9.666   8.564   3.854
86636SOL    HW161805   9.760   8.567   3.834
86636SOL    HW261806   9.654   8.479   3.896
86637SOL     OW61807  12.947  12.233   3.560
86637SOL    HW161808  12.972  12.298   3.494
86637SOL    HW261809  12.939  12.151   3.512
86638SOL     OW61810  14.471   9.901   5.845
86638SOL    HW161811  14.490   9.826   5.790
86638SOL    HW261812  14.413   9.956   5.792
86639SOL     OW61813   6.759   5.087  13.974
86639SOL    HW161814   6.758   5.150  13.902
86639SOL    HW261815   6.695   5.020  13.948
86640SOL     OW61816   0.085   7.634  13.223
86640SOL    HW161817   0.024   7.630  13.297
86640SOL    HW261818   0.052   7.569  13.161
86641SOL     OW61819   1.866   7.000   0.357
86641SOL    HW161820   1.934   6.932   0.349
86641SOL    HW261821   1.911   7.074   0.397
86642SOL     OW61822   1.241  10.687   5.771
86642SOL    HW161823   1.173  10.753   5.753
86642SOL    HW261824   1.260  10.649   5.685
86643SOL     OW61825  11.993   8.412   7.860
86643SOL    HW161826  12.050   8.356   7.914
86643SOL    HW261827  11.997   8.373   7.773
86644SOL     OW61828   2.151   1.820   3.508
86644SOL    HW161829   2.174   1.868   3.429
86644SOL    HW261830   2.208   1.743   3.508
86645SOL     OW61831   3.030   1.717   0.448
86645SOL    HW161832   2.963   1.731   0.515
86645SOL    HW261833   3.093   1.787   0.462
86646SOL     OW61834   7.085   2.802   7.473
86646SOL    HW161835   7.038   2.740   7.528
86646SOL    HW261836   7.177   2.781   7.487
86647SOL     OW61837   4.451  14.368   9.810
86647SOL    HW161838   4.437  14.450   9.857
86647SOL    HW261839   4.405  14.302   9.862
86648SOL     OW61840   4.324  10.909   1.886
86648SOL    HW161841   4.326  11.000   1.917
86648SOL    HW261842   4.271  10.913   1.806
86649SOL     OW61843  13.705  10.972   2.581
86649SOL    HW161844  13.771  10.907   2.603
86649SOL    HW261845  13.711  11.038   2.650
86650SOL     OW61846   3.665   5.801   3.028
86650SOL    HW161847   3.678   5.888   3.067
86650SOL    HW261848   3.718   5.803   2.948
86651SOL     OW61849   4.121   5.451   4.183
86651SOL    HW161850   4.026   5.451   4.197
86651SOL    HW261851   4.158   5.420   4.265
86652SOL     OW61852   9.772  12.102  11.552
86652SOL    HW161853   9.856  12.124  11.512
86652SOL    HW261854   9.706  12.128  11.488
86653SOL     OW61855  10.085   6.071  12.026
86653SOL    HW161856  10.172   6.103  12.004
86653SOL    HW261857  10.080   5.984  11.986
86654SOL     OW61858   1.922   4.941   6.956
86654SOL    HW161859   1.868   4.863   6.969
86654SOL    HW261860   1.904   4.968   6.866
86655SOL     OW61861  12.484   0.323  11.889
86655SOL    HW161862  12.445   0.240  11.863
86655SOL    HW261863  12.424   0.389  11.854
86656SOL     OW61864   9.386   0.500  10.592
86656SOL    HW161865   9.377   0.445  10.670
86656SOL    HW261866   9.475   0.533  10.597
86657SOL     OW61867   9.006   4.454  10.582
86657SOL    HW161868   8.924   4.412  10.608
86657SOL    HW261869   8.987   4.488  10.494
86658SOL     OW61870  13.186   8.708   6.887
86658SOL    HW161871  13.110   8.759   6.915
86658SOL    HW261872  13.160   8.672   6.802
86659SOL     OW61873   5.992  13.537   2.185
86659SOL    HW161874   5.956  13.618   2.222
86659SOL    HW261875   6.063  13.514   2.246
86660SOL     OW61876   2.868  11.130  14.015
86660SOL    HW161877   2.866  11.193  13.943
86660SOL    HW261878   2.776  11.115  14.037
86661SOL     OW61879   5.030   2.031   9.937
86661SOL    HW161880   5.060   1.966   9.873
86661SOL    HW261881   5.031   2.114   9.890
86662SOL     OW61882   4.135   5.415  14.523
86662SOL    HW161883   4.167   5.326  14.534
86662SOL    HW261884   4.050   5.416  14.567
86663SOL     OW61885   8.217   3.834   5.000
86663SOL    HW161886   8.286   3.770   4.980
86663SOL    HW261887   8.262   3.918   5.004
86664SOL     OW61888   3.645   9.886   3.989
86664SOL    HW161889   3.693   9.807   4.013
86664SOL    HW261890   3.634   9.879   3.894
86665SOL     OW61891   7.752   6.972   3.884
86665SOL    HW161892   7.663   6.964   3.849
86665SOL    HW261893   7.759   6.903   3.949
86666SOL     OW61894   4.860   3.749  11.980
86666SOL    HW161895   4.808   3.670  11.963
86666SOL    HW261896   4.920   3.755  11.905
86667SOL     OW61897  14.817   2.407   6.630
86667SOL    HW161898  14.785   2.450   6.551
86667SOL    HW261899  14.751   2.427   6.696
86668SOL     OW61900   9.288  10.784  11.467
86668SOL    HW161901   9.349  10.745  11.529
86668SOL    HW261902   9.311  10.746  11.382
86669SOL     OW61903   6.672   6.013   0.307
86669SOL    HW161904   6.738   6.073   0.341
86669SOL    HW261905   6.676   5.937   0.366
86670SOL     OW61906   8.435  13.945   6.080
86670SOL    HW161907   8.388  13.881   6.133
86670SOL    HW261908   8.367  13.986   6.026
86671SOL     OW61909  11.251  10.818   4.696
86671SOL    HW161910  11.241  10.772   4.612
86671SOL    HW261911  11.242  10.749   4.762
86672SOL     OW61912  12.302   0.284  13.720
86672SOL    HW161913  12.347   0.365  13.699
86672SOL    HW261914  12.351   0.248  13.795
86673SOL     OW61915   3.653  12.675   0.163
86673SOL    HW161916   3.659  12.682   0.067
86673SOL    HW261917   3.574  12.623   0.178
86674SOL     OW61918   4.704   4.363   5.351
86674SOL    HW161919   4.736   4.273   5.348
86674SOL    HW261920   4.681   4.377   5.443
86675SOL     OW61921  14.189  12.430   5.598
86675SOL    HW161922  14.162  12.343   5.627
86675SOL    HW261923  14.140  12.445   5.517
86676SOL     OW61924  12.294   4.676   9.235
86676SOL    HW161925  12.243   4.595   9.233
86676SOL    HW261926  12.236   4.741   9.194
86677SOL     OW61927   3.332  10.311   7.505
86677SOL    HW161928   3.407  10.250   7.502
86677SOL    HW261929   3.255  10.254   7.499
86678SOL     OW61930  11.008   2.647   4.940
86678SOL    HW161931  11.063   2.720   4.911
86678SOL    HW261932  10.942   2.638   4.871
86679SOL     OW61933   4.586   0.659  11.316
86679SOL    HW161934   4.603   0.606  11.238
86679SOL    HW261935   4.575   0.596  11.387
86680SOL     OW61936   4.989   8.774   8.205
86680SOL    HW161937   5.075   8.799   8.241
86680SOL    HW261938   4.993   8.802   8.114
86681SOL     OW61939   0.732  13.254   1.351
86681SOL    HW161940   0.698  13.343   1.364
86681SOL    HW261941   0.726  13.240   1.257
86682SOL     OW61942  11.403  11.556   4.904
86682SOL    HW161943  11.489  11.514   4.907
86682SOL    HW261944  11.354  11.505   4.839
86683SOL     OW61945  12.754   8.170   5.640
86683SOL    HW161946  12.738   8.233   5.710
86683SOL    HW261947  12.685   8.105   5.650
86684SOL     OW61948   9.817  11.057   2.047
86684SOL    HW161949   9.852  10.986   2.101
86684SOL    HW261950   9.767  11.013   1.979
86685SOL     OW61951  11.252   4.193   9.470
86685SOL    HW161952  11.315   4.265   9.464
86685SOL    HW261953  11.189   4.222   9.535
86686SOL     OW61954  13.987  11.608   2.172
86686SOL    HW161955  13.914  11.619   2.232
86686SOL    HW261956  13.949  11.566   2.095
86687SOL     OW61957   7.581   3.230   1.424
86687SOL    HW161958   7.629   3.181   1.357
86687SOL    HW261959   7.489   3.212   1.405
86688SOL     OW61960  12.728   9.515   4.790
86688SOL    HW161961  12.780   9.571   4.732
86688SOL    HW261962  12.716   9.434   4.739
86689SOL     OW61963   1.413   8.245   5.569
86689SOL    HW161964   1.470   8.175   5.534
86689SOL    HW261965   1.354   8.200   5.629
86690SOL     OW61966   0.162   4.201   0.193
86690SOL    HW161967   0.141   4.253   0.271
86690SOL    HW261968   0.257   4.201   0.189
86691SOL     OW61969   2.822  12.195   9.514
86691SOL    HW161970   2.840  12.103   9.528
86691SOL    HW261971   2.762  12.219   9.584
86692SOL     OW61972   0.515  14.662   3.573
86692SOL    HW161973   0.591  14.621   3.532
86692SOL    HW261974   0.526  14.645   3.667
86693SOL     OW61975   1.359   9.209   4.021
86693SOL    HW161976   1.382   9.247   3.936
86693SOL    HW261977   1.272   9.242   4.040
86694SOL     OW61978   6.608   8.263   1.612
86694SOL    HW161979   6.670   8.266   1.685
86694SOL    HW261980   6.608   8.353   1.578
86695SOL     OW61981   1.603  10.931   5.531
86695SOL    HW161982   1.675  10.966   5.584
86695SOL    HW261983   1.611  10.836   5.539
86696SOL     OW61984  13.885   9.001   9.565
86696SOL    HW161985  13.946   8.964   9.502
86696SOL    HW261986  13.937   9.063   9.616
86697SOL     OW61987  12.279   7.669  11.023
86697SOL    HW161988  12.361   7.646  10.979
86697SOL    HW261989  12.285   7.763  11.038
86698SOL     OW61990   5.478  12.666  13.139
86698SOL    HW161991   5.544  12.725  13.103
86698SOL    HW261992   5.398  12.685  13.091
86699SOL     OW61993   7.463   7.237   4.619
86699SOL    HW161994   7.528   7.308   4.616
86699SOL    HW261995   7.380   7.279   4.596
86700SOL     OW61996   3.338   5.398   1.981
86700SOL    HW161997   3.330   5.481   1.935
86700SOL    HW261998   3.412   5.410   2.041
86701SOL     OW61999   0.043   4.574   1.874
86701SOL    HW162000   0.103   4.607   1.807
86701SOL    HW262001   0.058   4.480   1.876
86702SOL     OW62002  12.895  10.319  13.589
86702SOL    HW162003  12.800  10.315  13.587
86702SOL    HW262004  12.922  10.232  13.621
86703SOL     OW62005  12.219   7.585   8.252
86703SOL    HW162006  12.166   7.538   8.188
86703SOL    HW262007  12.305   7.545   8.246
86704SOL     OW62008  10.972  10.810   0.475
86704SOL    HW162009  10.946  10.818   0.567
86704SOL    HW262010  10.954  10.895   0.437
86705SOL     OW62011   7.314  13.880   9.886
86705SOL    HW162012   7.318  13.786   9.903
86705SOL    HW262013   7.303  13.886   9.791
86706SOL     OW62014  10.532  11.177  14.737
86706SOL    HW162015  10.515  11.157  14.829
86706SOL    HW262016  10.565  11.095  14.701
86707SOL     OW62017   7.453   8.935   4.660
86707SOL    HW162018   7.504   8.989   4.720
86707SOL    HW262019   7.490   8.954   4.574
86708SOL     OW62020  11.185   1.907   6.650
86708SOL    HW162021  11.239   1.829   6.661
86708SOL    HW262022  11.102   1.885   6.693
86709SOL     OW62023  13.727   3.129  12.236
86709SOL    HW162024  13.634   3.144  12.216
86709SOL    HW262025  13.727   3.099  12.327
86710SOL     OW62026  10.848   4.022   3.171
86710SOL    HW162027  10.782   4.027   3.240
86710SOL    HW262028  10.932   4.029   3.218
86711SOL     OW62029   1.630   2.935   8.913
86711SOL    HW162030   1.604   3.011   8.965
86711SOL    HW262031   1.718   2.913   8.946
86712SOL     OW62032  13.435  11.927   8.984
86712SOL    HW162033  13.457  11.887   8.900
86712SOL    HW262034  13.405  12.015   8.962
86713SOL     OW62035   5.317  13.585   3.882
86713SOL    HW162036   5.308  13.526   3.808
86713SOL    HW262037   5.378  13.540   3.941
86714SOL     OW62038   5.799  14.169   4.676
86714SOL    HW162039   5.768  14.080   4.660
86714SOL    HW262040   5.823  14.170   4.768
86715SOL     OW62041  12.624   6.335   5.719
86715SOL    HW162042  12.536   6.318   5.685
86715SOL    HW262043  12.674   6.365   5.643
86716SOL     OW62044   0.017   7.804   7.334
86716SOL    HW162045   0.068   7.800   7.253
86716SOL    HW262046   0.055   7.735   7.388
86717SOL     OW62047   0.287   6.134   3.772
86717SOL    HW162048   0.369   6.085   3.779
86717SOL    HW262049   0.246   6.101   3.692
86718SOL     OW62050   5.824   2.842  14.599
86718SOL    HW162051   5.733   2.866  14.579
86718SOL    HW262052   5.862   2.818  14.515
86719SOL     OW62053   2.086  10.726  13.623
86719SOL    HW162054   2.084  10.655  13.687
86719SOL    HW262055   2.098  10.681  13.539
86720SOL     OW62056   1.124  11.581   2.284
86720SOL    HW162057   1.092  11.579   2.194
86720SOL    HW262058   1.220  11.579   2.275
86721SOL     OW62059   1.782   4.050   5.654
86721SOL    HW162060   1.824   3.981   5.706
86721SOL    HW262061   1.852   4.113   5.638
86722SOL     OW62062   6.588   6.528   4.596
86722SOL    HW162063   6.576   6.519   4.690
86722SOL    HW262064   6.647   6.457   4.572
86723SOL     OW62065   4.982   1.050   4.601
86723SOL    HW162066   4.965   1.009   4.516
86723SOL    HW262067   4.931   1.131   4.600
86724SOL     OW62068   4.827   1.568   1.843
86724SOL    HW162069   4.741   1.611   1.849
86724SOL    HW262070   4.878   1.606   1.914
86725SOL     OW62071   2.383   5.541   0.083
86725SOL    HW162072   2.476   5.552   0.065
86725SOL    HW262073   2.365   5.601   0.156
86726SOL     OW62074   2.267   3.294   5.952
86726SOL    HW162075   2.293   3.354   5.883
86726SOL    HW262076   2.303   3.209   5.925
86727SOL     OW62077   0.188   2.462  14.685
86727SOL    HW162078   0.110   2.408  14.673
86727SOL    HW262079   0.187   2.521  14.610
86728SOL     OW62080   1.599   5.493   0.563
86728SOL    HW162081   1.506   5.515   0.564
86728SOL    HW262082   1.611   5.435   0.638
86729SOL     OW62083  14.776   0.546   9.932
86729SOL    HW162084  14.769   0.450   9.937
86729SOL    HW262085  14.698   0.572   9.883
86730SOL     OW62086   1.203  10.242  11.311
86730SOL    HW162087   1.261  10.299  11.260
86730SOL    HW262088   1.119  10.287  11.312
86731SOL     OW62089   6.741  13.063  12.554
86731SOL    HW162090   6.680  12.990  12.559
86731SOL    HW262091   6.826  13.025  12.578
86732SOL     OW62092  14.594   3.181   8.451
86732SOL    HW162093  14.568   3.273   8.455
86732SOL    HW262094  14.513   3.132   8.468
86733SOL     OW62095  12.075   8.860   3.148
86733SOL    HW162096  11.993   8.881   3.192
86733SOL    HW262097  12.126   8.810   3.212
86734SOL     OW62098  11.421   8.186   8.788
86734SOL    HW162099  11.458   8.250   8.849
86734SOL    HW262100  11.388   8.116   8.844
86735SOL     OW62101  13.768  11.121  10.733
86735SOL    HW162102  13.732  11.061  10.668
86735SOL    HW262103  13.805  11.063  10.800
86736SOL     OW62104  12.543  14.263  11.178
86736SOL    HW162105  12.564  14.289  11.267
86736SOL    HW262106  12.463  14.311  11.157
86737SOL     OW62107  12.266   4.169   9.359
86737SOL    HW162108  12.228   4.200   9.441
86737SOL    HW262109  12.337   4.231   9.340
86738SOL     OW62110   9.359   4.755  12.518
86738SOL    HW162111   9.374   4.841  12.478
86738SOL    HW262112   9.300   4.711  12.458
86739SOL     OW62113   1.039   7.346   0.948
86739SOL    HW162114   1.004   7.269   0.992
86739SOL    HW262115   1.120   7.315   0.907
86740SOL     OW62116   2.760   1.310  12.589
86740SOL    HW162117   2.740   1.229  12.636
86740SOL    HW262118   2.698   1.374  12.625
86741SOL     OW62119   1.230   4.851  11.118
86741SOL    HW162120   1.186   4.863  11.034
86741SOL    HW262121   1.233   4.939  11.156
86742SOL     OW62122   8.730  13.546   9.736
86742SOL    HW162123   8.791  13.584   9.800
86742SOL    HW262124   8.650  13.531   9.785
86743SOL     OW62125   8.643   0.499   1.339
86743SOL    HW162126   8.607   0.586   1.323
86743SOL    HW262127   8.604   0.444   1.271
86744SOL     OW62128   0.608   7.647   1.175
86744SOL    HW162129   0.631   7.698   1.098
86744SOL    HW262130   0.649   7.562   1.161
86745SOL     OW62131   3.597  13.392   8.165
86745SOL    HW162132   3.563  13.422   8.249
86745SOL    HW262133   3.522  13.349   8.124
86746SOL     OW62134   3.264   2.682   5.591
86746SOL    HW162135   3.198   2.613   5.591
86746SOL    HW262136   3.213   2.763   5.594
86747SOL     OW62137   8.681   4.872   7.888
86747SOL    HW162138   8.651   4.798   7.942
86747SOL    HW262139   8.709   4.937   7.952
86748SOL     OW62140   6.933   8.521  12.089
86748SOL    HW162141   7.017   8.483  12.112
86748SOL    HW262142   6.934   8.608  12.129
86749SOL     OW62143   5.676   0.807  14.262
86749SOL    HW162144   5.627   0.841  14.187
86749SOL    HW262145   5.750   0.866  14.271
86750SOL     OW62146   7.195   7.358  13.127
86750SOL    HW162147   7.221   7.370  13.218
86750SOL    HW262148   7.160   7.444  13.101
86751SOL     OW62149   8.632  13.554   6.234
86751SOL    HW162150   8.644  13.592   6.147
86751SOL    HW262151   8.684  13.609   6.292
86752SOL     OW62152   0.251   9.489   2.684
86752SOL    HW162153   0.213   9.454   2.603
86752SOL    HW262154   0.233   9.582   2.681
86753SOL     OW62155   4.419   4.651  12.742
86753SOL    HW162156   4.465   4.598  12.807
86753SOL    HW262157   4.424   4.599  12.662
86754SOL     OW62158  11.671   0.675   8.876
86754SOL    HW162159  11.702   0.733   8.946
86754SOL    HW262160  11.589   0.638   8.910
86755SOL     OW62161   1.040   2.426   5.066
86755SOL    HW162162   1.068   2.384   4.985
86755SOL    HW262163   0.986   2.359   5.110
86756SOL     OW62164   0.718   0.295   2.629
86756SOL    HW162165   0.661   0.370   2.608
86756SOL    HW262166   0.788   0.299   2.564
86757SOL     OW62167   7.559   4.492   2.094
86757SOL    HW162168   7.603   4.551   2.155
86757SOL    HW262169   7.466   4.499   2.117
86758SOL     OW62170   7.197   2.226  13.956
86758SOL    HW162171   7.214   2.140  13.917
86758SOL    HW262172   7.119   2.258  13.910
86759SOL     OW62173  10.676   6.967   9.928
86759SOL    HW162174  10.649   6.963   9.836
86759SOL    HW262175  10.664   6.878   9.961
86760SOL     OW62176   0.375   9.408   6.210
86760SOL    HW162177   0.375   9.316   6.238
86760SOL    HW262178   0.458   9.418   6.162
86761SOL     OW62179   3.992   1.718   6.124
86761SOL    HW162180   4.017   1.701   6.215
86761SOL    HW262181   4.063   1.772   6.089
86762SOL     OW62182   7.459   6.975  11.218
86762SOL    HW162183   7.482   6.944  11.306
86762SOL    HW262184   7.439   6.895  11.170
86763SOL     OW62185   3.399  11.307   8.053
86763SOL    HW162186   3.355  11.383   8.015
86763SOL    HW262187   3.371  11.306   8.144
86764SOL     OW62188   1.773   0.792  13.682
86764SOL    HW162189   1.758   0.722  13.618
86764SOL    HW262190   1.693   0.793  13.735
86765SOL     OW62191  14.436   6.371   5.826
86765SOL    HW162192  14.508   6.434   5.824
86765SOL    HW262193  14.416   6.353   5.734
86766SOL     OW62194   1.585   7.339   1.225
86766SOL    HW162195   1.591   7.251   1.189
86766SOL    HW262196   1.496   7.367   1.206
86767SOL     OW62197  12.017  14.827   2.795
86767SOL    HW162198  12.056  14.859   2.713
86767SOL    HW262199  12.033  14.733   2.794
86768SOL     OW62200   7.622   0.594   4.115
86768SOL    HW162201   7.716   0.581   4.121
86768SOL    HW262202   7.592   0.528   4.053
86769SOL     OW62203  12.086   6.000  10.945
86769SOL    HW162204  12.050   6.046  10.870
86769SOL    HW262205  12.087   6.065  11.015
86770SOL     OW62206  13.759   5.393  14.865
86770SOL    HW162207  13.786   5.360  14.779
86770SOL    HW262208  13.829   5.452   0.004
86771SOL     OW62209   1.784  10.966   7.112
86771SOL    HW162210   1.827  11.041   7.152
86771SOL    HW262211   1.810  10.970   7.020
86772SOL     OW62212  10.518   6.499   6.716
86772SOL    HW162213  10.513   6.421   6.771
86772SOL    HW262214  10.498   6.467   6.628
86773SOL     OW62215  10.495  13.050  13.458
86773SOL    HW162216  10.402  13.071  13.450
86773SOL    HW262217  10.503  13.010  13.545
86774SOL     OW62218  13.178   3.575   4.034
86774SOL    HW162219  13.093   3.615   4.020
86774SOL    HW262220  13.207   3.549   3.946
86775SOL     OW62221   3.909   6.746   0.242
86775SOL    HW162222   3.940   6.766   0.330
86775SOL    HW262223   3.893   6.831   0.202
86776SOL     OW62224   4.213   1.565  12.867
86776SOL    HW162225   4.305   1.573  12.841
86776SOL    HW262226   4.209   1.602  12.955
86777SOL     OW62227   9.966   6.589   5.958
86777SOL    HW162228   9.935   6.542   6.035
86777SOL    HW262229   9.917   6.671   5.959
86778SOL     OW62230  11.629   4.246  14.165
86778SOL    HW162231  11.609   4.173  14.224
86778SOL    HW262232  11.658   4.205  14.084
86779SOL     OW62233   4.431   1.318   4.722
86779SOL    HW162234   4.356   1.311   4.780
86779SOL    HW262235   4.507   1.314   4.780
86780SOL     OW62236   9.557   6.892  10.368
86780SOL    HW162237   9.476   6.882  10.418
86780SOL    HW262238   9.626   6.889  10.434
86781SOL     OW62239   1.401   6.477   7.080
86781SOL    HW162240   1.482   6.519   7.110
86781SOL    HW262241   1.396   6.496   6.987
86782SOL     OW62242   2.051   7.858   7.200
86782SOL    HW162243   1.975   7.816   7.160
86782SOL    HW262244   2.091   7.788   7.253
86783SOL     OW62245  10.001   2.984   4.249
86783SOL    HW162246  10.081   3.013   4.206
86783SOL    HW262247  10.029   2.957   4.336
86784SOL     OW62248   1.886  11.884  14.459
86784SOL    HW162249   1.823  11.847  14.398
86784SOL    HW262250   1.961  11.825  14.456
86785SOL     OW62251  12.115   6.774  13.385
86785SOL    HW162252  12.105   6.695  13.439
86785SOL    HW262253  12.028   6.813  13.383
86786SOL     OW62254   5.699   5.769  11.971
86786SOL    HW162255   5.670   5.684  11.938
86786SOL    HW262256   5.788   5.754  12.004
86787SOL     OW62257   7.033   6.273   7.353
86787SOL    HW162258   7.063   6.223   7.429
86787SOL    HW262259   6.940   6.249   7.345
86788SOL     OW62260   8.097   5.238   8.103
86788SOL    HW162261   8.124   5.247   8.194
86788SOL    HW262262   8.160   5.291   8.054
86789SOL     OW62263   3.663   4.749  11.314
86789SOL    HW162264   3.706   4.713  11.237
86789SOL    HW262265   3.668   4.679  11.379
86790SOL     OW62266   8.829   8.535  11.926
86790SOL    HW162267   8.759   8.581  11.879
86790SOL    HW262268   8.837   8.451  11.880
86791SOL     OW62269   7.423   1.194  14.847
86791SOL    HW162270   7.399   1.222  14.759
86791SOL    HW262271   7.512   1.228  14.859
86792SOL     OW62272   1.195   2.247  11.964
86792SOL    HW162273   1.244   2.216  11.888
86792SOL    HW262274   1.228   2.336  11.980
86793SOL     OW62275  14.045   1.171  13.724
86793SOL    HW162276  14.081   1.097  13.772
86793SOL    HW262277  14.107   1.185  13.652
86794SOL     OW62278  10.218  12.892   5.498
86794SOL    HW162279  10.126  12.881   5.522
86794SOL    HW262280  10.252  12.803   5.489
86795SOL     OW62281  10.066   2.554   3.478
86795SOL    HW162282  10.009   2.515   3.544
86795SOL    HW262283  10.049   2.502   3.399
86796SOL     OW62284   6.678  11.347   7.060
86796SOL    HW162285   6.597  11.358   7.108
86796SOL    HW262286   6.651  11.327   6.971
86797SOL     OW62287  12.981   7.520   1.647
86797SOL    HW162288  13.044   7.494   1.580
86797SOL    HW262289  12.933   7.593   1.608
86798SOL     OW62290  10.118  14.076   8.996
86798SOL    HW162291  10.115  14.165   8.963
86798SOL    HW262292  10.103  14.021   8.919
86799SOL     OW62293   7.789   4.761   9.747
86799SOL    HW162294   7.881   4.765   9.773
86799SOL    HW262295   7.790   4.721   9.660
86800SOL     OW62296   0.775  14.542   3.391
86800SOL    HW162297   0.855  14.490   3.399
86800SOL    HW262298   0.789  14.593   3.311
86801SOL     OW62299   0.016  11.494  14.387
86801SOL    HW162300  14.866  11.581  14.374
86801SOL    HW262301  14.845  11.435  14.340
86802SOL     OW62302   3.343   9.126   7.354
86802SOL    HW162303   3.355   9.182   7.431
86802SOL    HW262304   3.376   9.041   7.382
86803SOL     OW62305   0.909  11.678  14.705
86803SOL    HW162306   0.958  11.742  14.756
86803SOL    HW262307   0.897  11.720  14.620
86804SOL     OW62308  11.398   7.373   1.382
86804SOL    HW162309  11.305   7.361   1.402
86804SOL    HW262310  11.399   7.434   1.309
86805SOL     OW62311   2.174   5.578   5.199
86805SOL    HW162312   2.125   5.612   5.274
86805SOL    HW262313   2.145   5.488   5.189
86806SOL     OW62314   4.084  13.733   9.980
86806SOL    HW162315   4.155  13.669   9.985
86806SOL    HW262316   4.027  13.700   9.910
86807SOL     OW62317   9.009  11.932  14.745
86807SOL    HW162318   9.047  11.887  14.669
86807SOL    HW262319   8.981  11.861  14.803
86808SOL     OW62320   1.426   9.801   3.726
86808SOL    HW162321   1.407   9.892   3.703
86808SOL    HW262322   1.441   9.803   3.821
86809SOL     OW62323  12.087  11.681   0.991
86809SOL    HW162324  12.029  11.608   1.009
86809SOL    HW262325  12.032  11.745   0.946
86810SOL     OW62326   9.670   4.878   8.356
86810SOL    HW162327   9.680   4.929   8.276
86810SOL    HW262328   9.760   4.864   8.387
86811SOL     OW62329  13.752  11.679   1.124
86811SOL    HW162330  13.797  11.757   1.157
86811SOL    HW262331  13.673  11.712   1.081
86812SOL     OW62332   1.137   6.649  10.941
86812SOL    HW162333   1.231   6.633  10.951
86812SOL    HW262334   1.100   6.563  10.922
86813SOL     OW62335   5.347  11.627   1.716
86813SOL    HW162336   5.378  11.653   1.803
86813SOL    HW262337   5.426  11.608   1.667
86814SOL     OW62338  11.916   0.219  12.687
86814SOL    HW162339  11.910   0.221  12.592
86814SOL    HW262340  11.993   0.164  12.705
86815SOL     OW62341   2.836   7.975  14.501
86815SOL    HW162342   2.757   8.014  14.465
86815SOL    HW262343   2.889   7.952  14.425
86816SOL     OW62344  11.751   8.141  11.396
86816SOL    HW162345  11.680   8.104  11.343
86816SOL    HW262346  11.714   8.221  11.432
86817SOL     OW62347   6.716  13.351  10.208
86817SOL    HW162348   6.733  13.285  10.141
86817SOL    HW262349   6.622  13.368  10.201
86818SOL     OW62350   8.970   6.016  12.918
86818SOL    HW162351   9.011   6.053  12.840
86818SOL    HW262352   8.892   5.971  12.885
86819SOL     OW62353   0.721  10.146   6.811
86819SOL    HW162354   0.708  10.125   6.903
86819SOL    HW262355   0.683  10.072   6.764
86820SOL     OW62356  13.179  13.728   8.022
86820SOL    HW162357  13.097  13.776   8.033
86820SOL    HW262358  13.196  13.731   7.928
86821SOL     OW62359   2.527   7.119   8.203
86821SOL    HW162360   2.485   7.178   8.265
86821SOL    HW262361   2.615   7.154   8.192
86822SOL     OW62362   5.368   7.276   5.368
86822SOL    HW162363   5.425   7.321   5.430
86822SOL    HW262364   5.423   7.206   5.332
86823SOL     OW62365  14.590   7.379   3.299
86823SOL    HW162366  14.543   7.308   3.344
86823SOL    HW262367  14.531   7.454   3.305
86824SOL     OW62368   6.206   7.223  10.848
86824SOL    HW162369   6.187   7.139  10.807
86824SOL    HW262370   6.252   7.273  10.781
86825SOL     OW62371   8.747   8.483  13.681
86825SOL    HW162372   8.794   8.460  13.601
86825SOL    HW262373   8.664   8.436  13.674
86826SOL     OW62374  14.636   7.233   3.066
86826SOL    HW162375  14.722   7.198   3.091
86826SOL    HW262376  14.598   7.263   3.149
86827SOL     OW62377   5.269   3.216  12.546
86827SOL    HW162378   5.317   3.219  12.463
86827SOL    HW262379   5.287   3.129  12.581
86828SOL     OW62380   5.140   4.115  14.034
86828SOL    HW162381   5.178   4.038  13.990
86828SOL    HW262382   5.165   4.104  14.125
86829SOL     OW62383   3.295   8.545  11.236
86829SOL    HW162384   3.283   8.636  11.208
86829SOL    HW262385   3.246   8.538  11.317
86830SOL     OW62386  12.807   7.509   6.011
86830SOL    HW162387  12.862   7.434   6.032
86830SOL    HW262388  12.869   7.581   5.995
86831SOL     OW62389  14.673  13.949   4.550
86831SOL    HW162390  14.709  14.010   4.615
86831SOL    HW262391  14.585  13.982   4.533
86832SOL     OW62392   5.254  12.749   0.964
86832SOL    HW162393   5.249  12.666   0.916
86832SOL    HW262394   5.300  12.726   1.045
86833SOL     OW62395   3.247   2.936   6.233
86833SOL    HW162396   3.250   3.024   6.270
86833SOL    HW262397   3.296   2.882   6.295
86834SOL     OW62398  14.072  10.657  13.155
86834SOL    HW162399  13.978  10.670  13.166
86834SOL    HW262400  14.086  10.660  13.060
86835SOL     OW62401   1.460   9.047   4.274
86835SOL    HW162402   1.456   9.006   4.188
86835SOL    HW262403   1.541   9.098   4.272
86836SOL     OW62404  12.739   1.943   1.165
86836SOL    HW162405  12.816   1.897   1.132
86836SOL    HW262406  12.677   1.941   1.092
86837SOL     OW62407  14.511   7.079  13.421
86837SOL    HW162408  14.575   7.089  13.492
86837SOL    HW262409  14.562   7.089  13.341
86838SOL     OW62410   2.561  14.050  14.053
86838SOL    HW162411   2.592  14.126  14.004
86838SOL    HW262412   2.466  14.058  14.053
86839SOL     OW62413  11.381   7.346  11.186
86839SOL    HW162414  11.424   7.334  11.102
86839SOL    HW262415  11.351   7.437  11.186
86840SOL     OW62416   5.643   2.469  12.508
86840SOL    HW162417   5.608   2.389  12.547
86840SOL    HW262418   5.679   2.518  12.582
86841SOL     OW62419  13.408   3.888  13.002
86841SOL    HW162420  13.459   3.941  12.940
86841SOL    HW262421  13.341   3.947  13.034
86842SOL     OW62422   6.498  11.904   5.693
86842SOL    HW162423   6.540  11.920   5.608
86842SOL    HW262424   6.558  11.944   5.756
86843SOL     OW62425  10.856  10.749   4.627
86843SOL    HW162426  10.774  10.768   4.673
86843SOL    HW262427  10.920  10.734   4.697
86844SOL     OW62428  10.230   4.232   4.402
86844SOL    HW162429  10.211   4.271   4.487
86844SOL    HW262430  10.147   4.234   4.355
86845SOL     OW62431   1.536   1.475   0.919
86845SOL    HW162432   1.510   1.505   0.832
86845SOL    HW262433   1.565   1.385   0.905
86846SOL     OW62434   6.744   3.077  11.091
86846SOL    HW162435   6.713   3.055  11.179
86846SOL    HW262436   6.664   3.075  11.037
86847SOL     OW62437   5.225   0.472  12.019
86847SOL    HW162438   5.300   0.457  11.961
86847SOL    HW262439   5.200   0.563  12.003
86848SOL     OW62440  14.718   8.445   1.400
86848SOL    HW162441  14.758   8.359   1.409
86848SOL    HW262442  14.714   8.460   1.305
86849SOL     OW62443   0.024  12.662  10.564
86849SOL    HW162444  14.864  12.605  10.624
86849SOL    HW262445   0.112  12.625  10.559
86850SOL     OW62446   1.743   1.902   5.662
86850SOL    HW162447   1.786   1.945   5.588
86850SOL    HW262448   1.656   1.879   5.630
86851SOL     OW62449   6.029  13.287  11.471
86851SOL    HW162450   6.002  13.379  11.479
86851SOL    HW262451   6.064  13.265  11.557
86852SOL     OW62452  14.526  12.078   6.742
86852SOL    HW162453  14.459  12.014   6.717
86852SOL    HW262454  14.502  12.158   6.695
86853SOL     OW62455   3.640   5.854   1.303
86853SOL    HW162456   3.604   5.922   1.360
86853SOL    HW262457   3.567   5.829   1.247
86854SOL     OW62458  12.255   1.369   2.322
86854SOL    HW162459  12.309   1.407   2.392
86854SOL    HW262460  12.274   1.422   2.245
86855SOL     OW62461   4.951   4.442  14.862
86855SOL    HW162462   5.018   4.407   0.033
86855SOL    HW262463   4.936   4.372  14.798
86856SOL     OW62464  14.849   7.630   9.548
86856SOL    HW162465  14.769   7.683   9.554
86856SOL    HW262466  14.827   7.548   9.593
86857SOL     OW62467   9.483  10.575   1.657
86857SOL    HW162468   9.411  10.597   1.717
86857SOL    HW262469   9.558  10.561   1.714
86858SOL     OW62470  10.506   4.675   3.947
86858SOL    HW162471  10.457   4.608   3.900
86858SOL    HW262472  10.446   4.706   4.015
86859SOL     OW62473  14.406   2.213   8.071
86859SOL    HW162474  14.460   2.141   8.041
86859SOL    HW262475  14.462   2.261   8.132
86860SOL     OW62476   4.983   7.846   1.371
86860SOL    HW162477   5.024   7.855   1.457
86860SOL    HW262478   5.057   7.846   1.310
86861SOL     OW62479   1.699   6.008  12.560
86861SOL    HW162480   1.605   6.018  12.548
86861SOL    HW262481   1.718   6.052  12.643
86862SOL     OW62482   9.074  12.379  11.324
86862SOL    HW162483   9.148  12.333  11.363
86862SOL    HW262484   9.045  12.323  11.252
86863SOL     OW62485   4.810  13.032   4.887
86863SOL    HW162486   4.730  12.982   4.905
86863SOL    HW262487   4.815  13.035   4.791
86864SOL     OW62488   0.089  12.167  14.657
86864SOL    HW162489   0.024  12.164  14.587
86864SOL    HW262490   0.164  12.212  14.618
86865SOL     OW62491  14.133   0.988   7.612
86865SOL    HW162492  14.080   1.037   7.674
86865SOL    HW262493  14.173   0.918   7.663
86866SOL     OW62494  10.322   0.732   6.500
86866SOL    HW162495  10.392   0.691   6.449
86866SOL    HW262496  10.313   0.820   6.463
86867SOL     OW62497   4.194   8.925  12.121
86867SOL    HW162498   4.262   8.865  12.090
86867SOL    HW262499   4.192   8.912  12.216
86868SOL     OW62500  12.186   2.045  11.211
86868SOL    HW162501  12.193   2.084  11.298
86868SOL    HW262502  12.265   1.992  11.203
86869SOL     OW62503  12.943  13.691   7.709
86869SOL    HW162504  12.923  13.785   7.711
86869SOL    HW262505  12.864  13.649   7.741
86870SOL     OW62506  11.999  10.761  12.765
86870SOL    HW162507  11.932  10.782  12.830
86870SOL    HW262508  12.056  10.837  12.764
86871SOL     OW62509   6.517  14.185   8.799
86871SOL    HW162510   6.458  14.249   8.841
86871SOL    HW262511   6.537  14.123   8.869
86872SOL     OW62512  10.483   8.668  13.467
86872SOL    HW162513  10.501   8.687  13.559
86872SOL    HW262514  10.394   8.634  13.466
86873SOL     OW62515   4.550   8.720  11.233
86873SOL    HW162516   4.536   8.743  11.142
86873SOL    HW262517   4.613   8.648  11.231
86874SOL     OW62518   9.822  11.246   6.818
86874SOL    HW162519   9.798  11.156   6.836
86874SOL    HW262520   9.882  11.270   6.889
86875SOL     OW62521   4.669   2.786   5.522
86875SOL    HW162522   4.595   2.846   5.510
86875SOL    HW262523   4.720   2.826   5.593
86876SOL     OW62524   2.765  14.261   3.018
86876SOL    HW162525   2.770  14.166   3.004
86876SOL    HW262526   2.820  14.276   3.096
86877SOL     OW62527   9.598   7.906   4.890
86877SOL    HW162528   9.672   7.966   4.878
86877SOL    HW262529   9.522   7.964   4.895
86878SOL     OW62530   0.345   1.004   8.755
86878SOL    HW162531   0.402   0.957   8.816
86878SOL    HW262532   0.257   0.970   8.772
86879SOL     OW62533   7.268   8.054  14.452
86879SOL    HW162534   7.282   8.138  14.496
86879SOL    HW262535   7.177   8.032  14.471
86880SOL     OW62536   1.744   9.141   7.992
86880SOL    HW162537   1.709   9.202   7.927
86880SOL    HW262538   1.668   9.113   8.043
86881SOL     OW62539   6.560  12.665  11.335
86881SOL    HW162540   6.485  12.709  11.295
86881SOL    HW262541   6.524  12.620  11.412
86882SOL     OW62542   2.869   1.999   0.502
86882SOL    HW162543   2.878   1.991   0.597
86882SOL    HW262544   2.829   2.085   0.489
86883SOL     OW62545   6.384   2.627  10.132
86883SOL    HW162546   6.474   2.643  10.160
86883SOL    HW262547   6.330   2.664  10.202
86884SOL     OW62548  11.553   9.930   9.475
86884SOL    HW162549  11.491   9.958   9.407
86884SOL    HW262550  11.549   9.998   9.541
86885SOL     OW62551   3.383   9.213   2.995
86885SOL    HW162552   3.356   9.152   3.064
86885SOL    HW262553   3.479   9.212   2.998
86886SOL     OW62554   1.584  12.423  11.668
86886SOL    HW162555   1.671  12.426  11.709
86886SOL    HW262556   1.574  12.508  11.626
86887SOL     OW62557   3.947   0.130   8.023
86887SOL    HW162558   3.975   0.042   7.994
86887SOL    HW262559   4.029   0.177   8.037
86888SOL     OW62560   3.785   5.540   3.438
86888SOL    HW162561   3.849   5.546   3.367
86888SOL    HW262562   3.789   5.449   3.466
86889SOL     OW62563  12.872   1.069  10.825
86889SOL    HW162564  12.925   0.996  10.858
86889SOL    HW262565  12.909   1.089  10.739
86890SOL     OW62566  14.810   9.325   4.970
86890SOL    HW162567   0.015   9.297   4.972
86890SOL    HW262568  14.795   9.352   4.880
86891SOL     OW62569   1.604   6.717   3.749
86891SOL    HW162570   1.607   6.739   3.842
86891SOL    HW262571   1.572   6.626   3.748
86892SOL     OW62572   3.517   6.927   3.933
86892SOL    HW162573   3.603   6.916   3.974
86892SOL    HW262574   3.536   6.938   3.840
86893SOL     OW62575  12.521  11.373  14.189
86893SOL    HW162576  12.492  11.426  14.115
86893SOL    HW262577  12.519  11.432  14.264
86894SOL     OW62578  11.910   4.175   1.307
86894SOL    HW162579  11.940   4.147   1.393
86894SOL    HW262580  11.901   4.093   1.257
86895SOL     OW62581   6.245   5.189  13.551
86895SOL    HW162582   6.263   5.203  13.458
86895SOL    HW262583   6.329   5.158  13.587
86896SOL     OW62584   2.274   0.708  12.175
86896SOL    HW162585   2.351   0.755  12.144
86896SOL    HW262586   2.206   0.775  12.181
86897SOL     OW62587   4.122  11.544  12.467
86897SOL    HW162588   4.059  11.560  12.536
86897SOL    HW262589   4.147  11.631  12.437
86898SOL     OW62590  12.800  14.639   6.568
86898SOL    HW162591  12.712  14.604   6.554
86898SOL    HW262592  12.841  14.578   6.630
86899SOL     OW62593  11.236   1.262   5.037
86899SOL    HW162594  11.148   1.257   5.074
86899SOL    HW262595  11.227   1.318   4.961
86900SOL     OW62596   9.370   9.990  13.371
86900SOL    HW162597   9.458   9.960  13.396
86900SOL    HW262598   9.343  10.046  13.444
86901SOL     OW62599   0.172   3.330   8.035
86901SOL    HW162600   0.231   3.255   8.025
86901SOL    HW262601   0.168   3.368   7.947
86902SOL     OW62602   9.578   8.672   2.599
86902SOL    HW162603   9.518   8.604   2.570
86902SOL    HW262604   9.604   8.646   2.687
86903SOL     OW62605   5.904   9.931   1.027
86903SOL    HW162606   5.951   9.973   1.099
86903SOL    HW262607   5.854   9.861   1.067
86904SOL     OW62608  14.810   3.518   8.236
86904SOL    HW162609  14.768   3.583   8.293
86904SOL    HW262610  14.826   3.443   8.294
86905SOL     OW62611  14.268  10.387  12.099
86905SOL    HW162612  14.308  10.461  12.146
86905SOL    HW262613  14.202  10.428  12.043
86906SOL     OW62614   5.317   2.305  12.547
86906SOL    HW162615   5.232   2.337  12.576
86906SOL    HW262616   5.303   2.279  12.456
86907SOL     OW62617   5.255   8.413  14.493
86907SOL    HW162618   5.168   8.451  14.497
86907SOL    HW262619   5.286   8.414  14.583
86908SOL     OW62620   9.185   8.497   8.822
86908SOL    HW162621   9.277   8.475   8.808
86908SOL    HW262622   9.187   8.565   8.890
86909SOL     OW62623   6.471   8.979  10.808
86909SOL    HW162624   6.450   9.045  10.873
86909SOL    HW262625   6.405   8.910  10.822
86910SOL     OW62626   1.082  12.089   9.114
86910SOL    HW162627   1.035  12.061   9.036
86910SOL    HW262628   1.135  12.163   9.085
86911SOL     OW62629   8.305  13.703   2.931
86911SOL    HW162630   8.362  13.697   2.854
86911SOL    HW262631   8.230  13.647   2.910
86912SOL     OW62632   1.552   4.725   6.318
86912SOL    HW162633   1.470   4.707   6.364
86912SOL    HW262634   1.567   4.819   6.331
86913SOL     OW62635  14.047   9.574   2.676
86913SOL    HW162636  14.039   9.482   2.704
86913SOL    HW262637  14.087   9.569   2.589
86914SOL     OW62638  11.569   0.700   5.135
86914SOL    HW162639  11.567   0.607   5.158
86914SOL    HW262640  11.519   0.743   5.205
86915SOL     OW62641  11.014   4.274  10.345
86915SOL    HW162642  11.025   4.357  10.391
86915SOL    HW262643  11.028   4.207  10.413
86916SOL     OW62644  12.646   2.828  10.908
86916SOL    HW162645  12.578   2.761  10.912
86916SOL    HW262646  12.599   2.909  10.892
86917SOL     OW62647   9.390  13.671   3.302
86917SOL    HW162648   9.306  13.657   3.258
86917SOL    HW262649   9.367  13.686   3.394
86918SOL     OW62650   5.505   4.622   1.512
86918SOL    HW162651   5.485   4.596   1.422
86918SOL    HW262652   5.424   4.606   1.559
86919SOL     OW62653   2.011  10.106   0.501
86919SOL    HW162654   1.921  10.127   0.523
86919SOL    HW262655   2.046  10.186   0.461
86920SOL     OW62656   0.471   3.426   4.681
86920SOL    HW162657   0.443   3.480   4.755
86920SOL    HW262658   0.555   3.389   4.710
86921SOL     OW62659  10.787   4.903  11.844
86921SOL    HW162660  10.712   4.845  11.832
86921SOL    HW262661  10.781   4.967  11.773
86922SOL     OW62662   2.386  13.390   9.450
86922SOL    HW162663   2.318  13.323   9.456
86922SOL    HW262664   2.412  13.390   9.358
86923SOL     OW62665  10.572  12.160   2.667
86923SOL    HW162666  10.557  12.179   2.575
86923SOL    HW262667  10.512  12.088   2.686
86924SOL     OW62668   3.743   9.550   5.349
86924SOL    HW162669   3.719   9.500   5.270
86924SOL    HW262670   3.749   9.485   5.418
86925SOL     OW62671  12.397   1.490  12.722
86925SOL    HW162672  12.332   1.483  12.652
86925SOL    HW262673  12.466   1.430  12.696
86926SOL     OW62674  14.454   2.462   9.023
86926SOL    HW162675  14.373   2.427   8.985
86926SOL    HW262676  14.445   2.447   9.117
86927SOL     OW62677  11.582   6.390   8.486
86927SOL    HW162678  11.642   6.450   8.531
86927SOL    HW262679  11.495   6.424   8.505
86928SOL     OW62680  14.151   2.875   6.600
86928SOL    HW162681  14.106   2.791   6.595
86928SOL    HW262682  14.164   2.901   6.509
86929SOL     OW62683   0.522   6.659   3.152
86929SOL    HW162684   0.492   6.725   3.214
86929SOL    HW262685   0.615   6.679   3.138
86930SOL     OW62686   9.798   0.045   8.619
86930SOL    HW162687   9.804   0.022   8.526
86930SOL    HW262688   9.735   0.118   8.622
86931SOL     OW62689   3.461   8.839   0.526
86931SOL    HW162690   3.379   8.811   0.567
86931SOL    HW262691   3.502   8.896   0.591
86932SOL     OW62692   3.934   2.154   1.682
86932SOL    HW162693   3.969   2.229   1.635
86932SOL    HW262694   3.992   2.143   1.757
86933SOL     OW62695   7.280  13.062  13.024
86933SOL    HW162696   7.256  13.043  12.933
86933SOL    HW262697   7.292  13.156  13.027
86934SOL     OW62698   7.925  14.478   2.498
86934SOL    HW162699   8.020  14.470   2.500
86934SOL    HW262700   7.893  14.396   2.535
86935SOL     OW62701  11.941  10.658   4.414
86935SOL    HW162702  11.944  10.623   4.325
86935SOL    HW262703  11.853  10.636   4.445
86936SOL     OW62704   2.461   1.555  11.841
86936SOL    HW162705   2.467   1.650  11.854
86936SOL    HW262706   2.452   1.519  11.929
86937SOL     OW62707   9.335  10.848   7.349
86937SOL    HW162708   9.410  10.852   7.409
86937SOL    HW262709   9.374  10.826   7.264
86938SOL     OW62710  12.167   6.712   6.190
86938SOL    HW162711  12.178   6.740   6.281
86938SOL    HW262712  12.212   6.779   6.139
86939SOL     OW62713   1.177  10.947   7.041
86939SOL    HW162714   1.204  10.857   7.027
86939SOL    HW262715   1.082  10.942   7.052
86940SOL     OW62716   0.511   8.375  10.325
86940SOL    HW162717   0.419   8.400  10.330
86940SOL    HW262718   0.514   8.306  10.260
86941SOL     OW62719   9.178   9.002  10.334
86941SOL    HW162720   9.265   8.984  10.298
86941SOL    HW262721   9.136   8.916  10.338
86942SOL     OW62722  14.593   5.282   9.689
86942SOL    HW162723  14.630   5.318   9.609
86942SOL    HW262724  14.641   5.201   9.704
86943SOL     OW62725   8.596  13.367  13.310
86943SOL    HW162726   8.684  13.349  13.277
86943SOL    HW262727   8.574  13.290  13.362
86944SOL     OW62728  10.048   0.497  13.860
86944SOL    HW162729  10.116   0.444  13.818
86944SOL    HW262730  10.077   0.507  13.951
86945SOL     OW62731   4.715   7.188   3.939
86945SOL    HW162732   4.736   7.185   3.846
86945SOL    HW262733   4.753   7.270   3.970
86946SOL     OW62734   5.827   0.110   1.839
86946SOL    HW162735   5.786   0.071   1.761
86946SOL    HW262736   5.886   0.176   1.803
86947SOL     OW62737   9.314   9.568   7.049
86947SOL    HW162738   9.300   9.567   7.144
86947SOL    HW262739   9.367   9.646   7.034
86948SOL     OW62740   7.881  12.308   0.954
86948SOL    HW162741   7.850  12.327   1.042
86948SOL    HW262742   7.971  12.276   0.966
86949SOL     OW62743   0.990  13.415   1.375
86949SOL    HW162744   0.902  13.391   1.349
86949SOL    HW262745   1.015  13.350   1.441
86950SOL     OW62746  11.239  14.277   0.749
86950SOL    HW162747  11.248  14.358   0.799
86950SOL    HW262748  11.216  14.306   0.660
86951SOL     OW62749   7.014   5.320   7.036
86951SOL    HW162750   6.990   5.324   7.128
86951SOL    HW262751   6.983   5.403   6.999
86952SOL     OW62752   2.834   5.451   6.753
86952SOL    HW162753   2.756   5.455   6.808
86952SOL    HW262754   2.809   5.494   6.671
86953SOL     OW62755   0.297  13.931   7.578
86953SOL    HW162756   0.211  13.892   7.564
86953SOL    HW262757   0.324  13.900   7.665
86954SOL     OW62758  10.621   1.418   0.334
86954SOL    HW162759  10.696   1.388   0.386
86954SOL    HW262760  10.582   1.337   0.300
86955SOL     OW62761  10.207  14.317  13.067
86955SOL    HW162762  10.227  14.238  13.017
86955SOL    HW262763  10.280  14.377  13.048
86956SOL     OW62764  10.964   2.305  11.091
86956SOL    HW162765  10.952   2.294  10.997
86956SOL    HW262766  10.992   2.219  11.122
86957SOL     OW62767   9.237  14.833   5.407
86957SOL    HW162768   9.200   0.002   5.339
86957SOL    HW262769   9.274   0.006   5.471
86958SOL     OW62770   3.810  12.921   4.678
86958SOL    HW162771   3.715  12.909   4.681
86958SOL    HW262772   3.823  13.016   4.675
86959SOL     OW62773   0.587  12.407  11.927
86959SOL    HW162774   0.574  12.315  11.952
86959SOL    HW262775   0.500  12.435  11.899
86960SOL     OW62776  11.804   0.467   1.315
86960SOL    HW162777  11.815   0.561   1.300
86960SOL    HW262778  11.848   0.426   1.241
86961SOL     OW62779   6.752   6.542   6.912
86961SOL    HW162780   6.729   6.508   6.826
86961SOL    HW262781   6.723   6.475   6.974
86962SOL     OW62782  10.434  13.798   6.442
86962SOL    HW162783  10.530  13.794   6.438
86962SOL    HW262784  10.410  13.735   6.510
86963SOL     OW62785  13.731   0.732   2.949
86963SOL    HW162786  13.791   0.795   2.908
86963SOL    HW262787  13.724   0.762   3.040
86964SOL     OW62788   6.646  13.951   8.365
86964SOL    HW162789   6.663  14.026   8.423
86964SOL    HW262790   6.553  13.959   8.343
86965SOL     OW62791   5.055   9.910  11.195
86965SOL    HW162792   5.131   9.857  11.217
86965SOL    HW262793   5.071   9.994  11.238
86966SOL     OW62794   8.699  10.107   4.648
86966SOL    HW162795   8.617  10.072   4.613
86966SOL    HW262796   8.672  10.181   4.702
86967SOL     OW62797   5.419  14.367   3.794
86967SOL    HW162798   5.430  14.275   3.817
86967SOL    HW262799   5.373  14.405   3.869
86968SOL     OW62800  13.109   4.971  13.265
86968SOL    HW162801  13.053   5.039  13.302
86968SOL    HW262802  13.166   4.944  13.337
86969SOL     OW62803   0.711  12.808   4.706
86969SOL    HW162804   0.663  12.726   4.690
86969SOL    HW262805   0.719  12.848   4.619
86970SOL     OW62806   9.888   6.460   1.169
86970SOL    HW162807   9.798   6.427   1.164
86970SOL    HW262808   9.893   6.527   1.101
86971SOL     OW62809   8.525   3.322   7.702
86971SOL    HW162810   8.524   3.282   7.789
86971SOL    HW262811   8.523   3.416   7.719
86972SOL     OW62812  10.476   5.944   0.978
86972SOL    HW162813  10.458   5.947   1.072
86972SOL    HW262814  10.479   6.036   0.952
86973SOL     OW62815   8.632   3.352  12.282
86973SOL    HW162816   8.583   3.389  12.208
86973SOL    HW262817   8.566   3.312  12.338
86974SOL     OW62818   9.144   3.750   0.308
86974SOL    HW162819   9.085   3.765   0.234
86974SOL    HW262820   9.232   3.767   0.273
86975SOL     OW62821   2.864   0.802   5.479
86975SOL    HW162822   2.823   0.885   5.504
86975SOL    HW262823   2.888   0.814   5.387
86976SOL     OW62824   4.390   8.404   1.763
86976SOL    HW162825   4.313   8.434   1.811
86976SOL    HW262826   4.357   8.337   1.703
86977SOL     OW62827  12.535   7.119  13.044
86977SOL    HW162828  12.598   7.153  12.981
86977SOL    HW262829  12.473   7.190  13.058
86978SOL     OW62830   4.027   2.178   7.264
86978SOL    HW162831   4.038   2.089   7.298
86978SOL    HW262832   4.026   2.234   7.342
86979SOL     OW62833   6.573  13.676  12.265
86979SOL    HW162834   6.562  13.611  12.334
86979SOL    HW262835   6.494  13.730  12.270
86980SOL     OW62836  12.399   9.481   9.815
86980SOL    HW162837  12.322   9.458   9.868
86980SOL    HW262838  12.388   9.429   9.735
86981SOL     OW62839   7.575   5.157   8.064
86981SOL    HW162840   7.655   5.208   8.054
86981SOL    HW262841   7.516   5.189   7.995
86982SOL     OW62842  10.394   8.429   9.689
86982SOL    HW162843  10.405   8.427   9.594
86982SOL    HW262844  10.315   8.377   9.705
86983SOL     OW62845  13.150   7.304   8.510
86983SOL    HW162846  13.225   7.255   8.476
86983SOL    HW262847  13.110   7.344   8.432
86984SOL     OW62848   5.996   2.442   3.683
86984SOL    HW162849   6.048   2.397   3.749
86984SOL    HW262850   6.029   2.532   3.683
86985SOL     OW62851   2.841   9.603   0.851
86985SOL    HW162852   2.782   9.528   0.857
86985SOL    HW262853   2.844   9.624   0.757
86986SOL     OW62854   1.749  14.388   0.901
86986SOL    HW162855   1.702  14.386   0.818
86986SOL    HW262856   1.687  14.354   0.965
86987SOL     OW62857   7.788   8.561  11.843
86987SOL    HW162858   7.716   8.599  11.792
86987SOL    HW262859   7.854   8.538  11.777
86988SOL     OW62860  12.489  11.132  11.946
86988SOL    HW162861  12.578  11.097  11.940
86988SOL    HW262862  12.501  11.226  11.961
86989SOL     OW62863  12.504   5.617   5.445
86989SOL    HW162864  12.506   5.523   5.462
86989SOL    HW262865  12.428   5.649   5.495
86990SOL     OW62866   3.997   8.724   5.287
86990SOL    HW162867   4.050   8.804   5.286
86990SOL    HW262868   3.923   8.744   5.230
86991SOL     OW62869  11.485   4.554   7.782
86991SOL    HW162870  11.438   4.541   7.700
86991SOL    HW262871  11.499   4.465   7.816
86992SOL     OW62872  13.264   6.050   6.824
86992SOL    HW162873  13.315   6.004   6.890
86992SOL    HW262874  13.190   5.993   6.807
86993SOL     OW62875   8.553  12.161  10.835
86993SOL    HW162876   8.642  12.158  10.869
86993SOL    HW262877   8.562  12.137  10.742
86994SOL     OW62878  14.642   3.244  12.205
86994SOL    HW162879  14.733   3.258  12.177
86994SOL    HW262880  14.633   3.297  12.284
86995SOL     OW62881   9.941  10.870   2.204
86995SOL    HW162882   9.887  10.807   2.250
86995SOL    HW262883  10.013  10.889   2.265
86996SOL     OW62884   6.060  10.918   7.091
86996SOL    HW162885   6.070  10.959   7.177
86996SOL    HW262886   5.984  10.961   7.053
86997SOL     OW62887   3.486   1.584  13.707
86997SOL    HW162888   3.457   1.589  13.615
86997SOL    HW262889   3.420   1.634  13.755
86998SOL     OW62890   9.654   0.143  14.196
86998SOL    HW162891   9.715   0.203  14.237
86998SOL    HW262892   9.616   0.193  14.123
86999SOL     OW62893  10.191  14.272  12.447
86999SOL    HW162894  10.117  14.312  12.493
86999SOL    HW262895  10.186  14.179  12.470
87000SOL     OW62896   0.187   4.275  12.984
87000SOL    HW162897   0.255   4.304  13.044
87000SOL    HW262898   0.174   4.348  12.924
87001SOL     OW62899  10.277   6.952  11.409
87001SOL    HW162900  10.237   6.938  11.495
87001SOL    HW262901  10.246   6.879  11.356
87002SOL     OW62902   5.536   2.568   3.749
87002SOL    HW162903   5.550   2.568   3.654
87002SOL    HW262904   5.609   2.620   3.783
87003SOL     OW62905   4.977   4.744  11.488
87003SOL    HW162906   5.047   4.759  11.552
87003SOL    HW262907   4.989   4.653  11.460
87004SOL     OW62908   0.406  14.208   4.729
87004SOL    HW162909   0.358  14.140   4.683
87004SOL    HW262910   0.454  14.162   4.797
87005SOL     OW62911  14.884   9.176   5.298
87005SOL    HW162912   0.051   9.171   5.220
87005SOL    HW262913  14.795   9.181   5.264
87006SOL     OW62914  13.055   1.987  13.431
87006SOL    HW162915  13.112   2.019  13.501
87006SOL    HW262916  13.042   2.062  13.373
87007SOL     OW62917  11.192   8.106   7.848
87007SOL    HW162918  11.223   8.108   7.938
87007SOL    HW262919  11.221   8.021   7.814
87008SOL     OW62920  14.799  13.581   0.565
87008SOL    HW162921  14.743  13.649   0.529
87008SOL    HW262922  14.741  13.526   0.617
87009SOL     OW62923  13.420   7.518   7.317
87009SOL    HW162924  13.357   7.486   7.253
87009SOL    HW262925  13.435   7.444   7.375
87010SOL     OW62926   2.850   0.438   2.720
87010SOL    HW162927   2.799   0.366   2.684
87010SOL    HW262928   2.884   0.405   2.803
87011SOL     OW62929   6.542  12.217   6.026
87011SOL    HW162930   6.589  12.299   6.014
87011SOL    HW262931   6.484  12.233   6.101
87012SOL     OW62932   0.207   1.017   9.517
87012SOL    HW162933   0.205   1.110   9.494
87012SOL    HW262934   0.119   0.985   9.497
87013SOL     OW62935   2.714   0.252  12.294
87013SOL    HW162936   2.678   0.244  12.206
87013SOL    HW262937   2.670   0.183  12.345
87014SOL     OW62938   7.982  11.887   6.195
87014SOL    HW162939   7.944  11.828   6.130
87014SOL    HW262940   7.921  11.961   6.197
87015SOL     OW62941   7.016   3.972   4.637
87015SOL    HW162942   6.968   4.054   4.636
87015SOL    HW262943   7.032   3.952   4.545
87016SOL     OW62944   3.750   0.169  11.680
87016SOL    HW162945   3.774   0.083  11.646
87016SOL    HW262946   3.725   0.219  11.602
87017SOL     OW62947  14.303   8.343   5.461
87017SOL    HW162948  14.339   8.255   5.474
87017SOL    HW262949  14.357   8.380   5.391
87018SOL     OW62950  14.645  11.402   2.852
87018SOL    HW162951  14.724  11.362   2.887
87018SOL    HW262952  14.672  11.490   2.826
87019SOL     OW62953  12.815   7.453   6.828
87019SOL    HW162954  12.868   7.374   6.838
87019SOL    HW262955  12.729   7.420   6.801
87020SOL     OW62956   9.618  14.424   6.534
87020SOL    HW162957   9.707  14.435   6.567
87020SOL    HW262958   9.562  14.459   6.604
87021SOL     OW62959   5.683   8.473  13.735
87021SOL    HW162960   5.776   8.497  13.740
87021SOL    HW262961   5.642   8.549  13.694
87022SOL     OW62962   6.927   9.820   8.181
87022SOL    HW162963   6.862   9.833   8.112
87022SOL    HW262964   6.941   9.726   8.183
87023SOL     OW62965  11.576  12.704  10.426
87023SOL    HW162966  11.557  12.653  10.504
87023SOL    HW262967  11.490  12.732  10.394
87024SOL     OW62968   3.312   1.907  10.805
87024SOL    HW162969   3.294   1.872  10.718
87024SOL    HW262970   3.312   2.002  10.794
87025SOL     OW62971   7.921   2.231   8.276
87025SOL    HW162972   7.883   2.252   8.361
87025SOL    HW262973   7.943   2.315   8.237
87026SOL     OW62974   5.441   5.785  14.531
87026SOL    HW162975   5.460   5.780  14.438
87026SOL    HW262976   5.380   5.713  14.547
87027SOL     OW62977   7.217   1.047   8.182
87027SOL    HW162978   7.158   1.122   8.176
87027SOL    HW262979   7.304   1.086   8.193
87028SOL     OW62980   1.371   2.751   1.495
87028SOL    HW162981   1.449   2.701   1.520
87028SOL    HW262982   1.335   2.702   1.421
87029SOL     OW62983   9.074   7.017   1.567
87029SOL    HW162984   9.099   6.990   1.656
87029SOL    HW262985   9.122   7.098   1.553
87030SOL     OW62986   0.585   6.256   5.994
87030SOL    HW162987   0.659   6.210   6.034
87030SOL    HW262988   0.552   6.195   5.928
87031SOL     OW62989   7.244   8.036   5.819
87031SOL    HW162990   7.195   8.023   5.900
87031SOL    HW262991   7.294   8.116   5.835
87032SOL     OW62992   4.661   8.750   6.318
87032SOL    HW162993   4.627   8.819   6.375
87032SOL    HW262994   4.617   8.763   6.234
87033SOL     OW62995   7.455   9.836   4.607
87033SOL    HW162996   7.517   9.847   4.535
87033SOL    HW262997   7.423   9.925   4.625
87034SOL     OW62998   0.779   0.419  14.628
87034SOL    HW162999   0.819   0.337  14.602
87034SOL    HW263000   0.804   0.481  14.560
87035SOL     OW63001   1.431   5.706  10.732
87035SOL    HW163002   1.345   5.735  10.704
87035SOL    HW263003   1.461   5.648  10.662
87036SOL     OW63004   2.431  11.258  12.361
87036SOL    HW163005   2.515  11.272  12.405
87036SOL    HW263006   2.453  11.244  12.269
87037SOL     OW63007  13.981  10.557   6.619
87037SOL    HW163008  13.995  10.597   6.533
87037SOL    HW263009  13.966  10.464   6.600
87038SOL     OW63010  11.383   1.137   1.672
87038SOL    HW163011  11.414   1.047   1.663
87038SOL    HW263012  11.462   1.190   1.666
87039SOL     OW63013  14.322   9.729   1.785
87039SOL    HW163014  14.306   9.736   1.879
87039SOL    HW263015  14.406   9.683   1.779
87040SOL     OW63016   9.456   8.567   9.242
87040SOL    HW163017   9.453   8.472   9.251
87040SOL    HW263018   9.436   8.583   9.149
87041SOL     OW63019  10.245   9.906   4.010
87041SOL    HW163020  10.160   9.866   4.026
87041SOL    HW263021  10.251   9.915   3.915
87042SOL     OW63022  12.630   0.666   9.520
87042SOL    HW163023  12.542   0.655   9.483
87042SOL    HW263024  12.615   0.711   9.603
87043SOL     OW63025   3.019   7.731   1.957
87043SOL    HW163026   3.069   7.679   1.894
87043SOL    HW263027   2.977   7.667   2.014
87044SOL     OW63028   8.935   9.348   3.917
87044SOL    HW163029   8.949   9.256   3.892
87044SOL    HW263030   9.023   9.385   3.920
87045SOL     OW63031  10.808   1.182   1.331
87045SOL    HW163032  10.870   1.127   1.282
87045SOL    HW263033  10.787   1.130   1.409
87046SOL     OW63034  10.151  12.396  10.508
87046SOL    HW163035  10.232  12.420  10.464
87046SOL    HW263036  10.111  12.330  10.450
87047SOL     OW63037  12.461   7.605   9.321
87047SOL    HW163038  12.430   7.599   9.231
87047SOL    HW263039  12.384   7.589   9.375
87048SOL     OW63040   9.110   6.577  12.781
87048SOL    HW163041   9.027   6.549  12.743
87048SOL    HW263042   9.114   6.532  12.866
87049SOL     OW63043   8.931  10.135   8.038
87049SOL    HW163044   8.921  10.067   8.105
87049SOL    HW263045   8.846  10.177   8.034
87050SOL     OW63046  10.233   1.647   3.222
87050SOL    HW163047  10.230   1.694   3.139
87050SOL    HW263048  10.183   1.567   3.206
87051SOL     OW63049   7.110  14.350  11.779
87051SOL    HW163050   7.126  14.287  11.849
87051SOL    HW263051   7.025  14.389  11.800
87052SOL     OW63052  13.360   5.101  11.067
87052SOL    HW163053  13.292   5.137  11.010
87052SOL    HW263054  13.439   5.149  11.043
87053SOL     OW63055   3.608   8.207   5.214
87053SOL    HW163056   3.574   8.293   5.238
87053SOL    HW263057   3.622   8.162   5.297
87054SOL     OW63058   1.660   5.270   5.533
87054SOL    HW163059   1.678   5.358   5.566
87054SOL    HW263060   1.645   5.282   5.439
87055SOL     OW63061   6.606   6.619   1.936
87055SOL    HW163062   6.693   6.655   1.922
87055SOL    HW263063   6.548   6.675   1.884
87056SOL     OW63064  14.640  12.273   1.655
87056SOL    HW163065  14.562  12.329   1.659
87056SOL    HW263066  14.684  12.299   1.574
87057SOL     OW63067   6.791  10.635   4.110
87057SOL    HW163068   6.810  10.635   4.204
87057SOL    HW263069   6.706  10.592   4.103
87058SOL     OW63070  12.162   3.937  11.798
87058SOL    HW163071  12.202   3.967  11.879
87058SOL    HW263072  12.091   3.998  11.782
87059SOL     OW63073   6.740   9.334   1.907
87059SOL    HW163074   6.803   9.337   1.980
87059SOL    HW263075   6.794   9.344   1.829
87060SOL     OW63076  11.474   0.959  10.958
87060SOL    HW163077  11.388   0.920  10.941
87060SOL    HW263078  11.465   0.998  11.045
87061SOL     OW63079   3.219  14.688   5.707
87061SOL    HW163080   3.187  14.667   5.795
87061SOL    HW263081   3.143  14.723   5.661
87062SOL     OW63082  14.740   5.263   2.850
87062SOL    HW163083  14.666   5.260   2.910
87062SOL    HW263084  14.742   5.175   2.811
87063SOL     OW63085   6.028   4.235  11.931
87063SOL    HW163086   6.005   4.317  11.975
87063SOL    HW263087   5.994   4.245  11.842
87064SOL     OW63088  10.077  11.590   3.085
87064SOL    HW163089   9.988  11.569   3.056
87064SOL    HW263090  10.064  11.640   3.166
87065SOL     OW63091  10.041   3.052  14.591
87065SOL    HW163092   9.947   3.038  14.606
87065SOL    HW263093  10.065   3.122  14.651
87066SOL     OW63094  13.491   5.553   2.375
87066SOL    HW163095  13.566   5.591   2.331
87066SOL    HW263096  13.503   5.576   2.467
87067SOL     OW63097   5.853  11.611   4.319
87067SOL    HW163098   5.845  11.595   4.225
87067SOL    HW263099   5.935  11.658   4.328
87068SOL     OW63100  12.259   7.591  11.653
87068SOL    HW163101  12.284   7.500  11.669
87068SOL    HW263102  12.340   7.635  11.630
87069SOL     OW63103  10.698  12.198   7.476
87069SOL    HW163104  10.682  12.104   7.482
87069SOL    HW263105  10.743  12.209   7.392
87070SOL     OW63106   1.064  11.616  11.208
87070SOL    HW163107   1.083  11.583  11.296
87070SOL    HW263108   1.131  11.575  11.153
87071SOL     OW63109  11.740   0.526   8.158
87071SOL    HW163110  11.722   0.616   8.185
87071SOL    HW263111  11.680   0.473   8.210
87072SOL     OW63112   0.312   8.897   6.537
87072SOL    HW163113   0.388   8.839   6.531
87072SOL    HW263114   0.294   8.904   6.631
87073SOL     OW63115  10.841  11.051   8.659
87073SOL    HW163116  10.845  11.134   8.611
87073SOL    HW263117  10.809  11.075   8.746
87074SOL     OW63118  10.690   5.127   5.239
87074SOL    HW163119  10.642   5.128   5.322
87074SOL    HW263120  10.777   5.160   5.262
87075SOL     OW63121   3.420   2.637  14.110
87075SOL    HW163122   3.472   2.711  14.141
87075SOL    HW263123   3.450   2.562  14.162
87076SOL     OW63124   3.414   2.797  11.787
87076SOL    HW163125   3.408   2.709  11.823
87076SOL    HW263126   3.465   2.847  11.851
87077SOL     OW63127   5.278   9.087   7.356
87077SOL    HW163128   5.289   9.080   7.450
87077SOL    HW263129   5.197   9.039   7.337
87078SOL     OW63130   5.212   1.887   8.732
87078SOL    HW163131   5.241   1.814   8.787
87078SOL    HW263132   5.192   1.847   8.648
87079SOL     OW63133   5.645   8.899   1.687
87079SOL    HW163134   5.738   8.888   1.669
87079SOL    HW263135   5.643   8.954   1.766
87080SOL     OW63136   2.449   0.998   6.493
87080SOL    HW163137   2.404   1.077   6.462
87080SOL    HW263138   2.387   0.957   6.553
87081SOL     OW63139   4.837   5.622   4.086
87081SOL    HW163140   4.751   5.581   4.091
87081SOL    HW263141   4.895   5.562   4.132
87082SOL     OW63142   3.656   4.932  10.457
87082SOL    HW163143   3.601   4.931  10.535
87082SOL    HW263144   3.678   4.840  10.443
87083SOL     OW63145  12.535   6.712   1.045
87083SOL    HW163146  12.598   6.642   1.027
87083SOL    HW263147  12.451   6.667   1.052
87084SOL     OW63148  11.312   5.340   4.535
87084SOL    HW163149  11.281   5.255   4.505
87084SOL    HW263150  11.275   5.349   4.623
87085SOL     OW63151   0.164   3.917   3.182
87085SOL    HW163152   0.244   3.904   3.233
87085SOL    HW263153   0.193   3.908   3.091
87086SOL     OW63154   3.352  13.718   6.319
87086SOL    HW163155   3.291  13.690   6.251
87086SOL    HW263156   3.335  13.811   6.330
87087SOL     OW63157   7.697   9.671   7.392
87087SOL    HW163158   7.767   9.651   7.330
87087SOL    HW263159   7.665   9.757   7.364
87088SOL     OW63160   5.865   1.131   2.515
87088SOL    HW163161   5.862   1.057   2.576
87088SOL    HW263162   5.776   1.166   2.517
87089SOL     OW63163   7.054   8.322   1.039
87089SOL    HW163164   6.967   8.281   1.036
87089SOL    HW263165   7.066   8.345   1.131
87090SOL     OW63166  14.270   2.252   2.636
87090SOL    HW163167  14.311   2.216   2.714
87090SOL    HW263168  14.233   2.176   2.591
87091SOL     OW63169  11.641   3.875   3.341
87091SOL    HW163170  11.614   3.937   3.273
87091SOL    HW263171  11.559   3.843   3.378
87092SOL     OW63172   6.019   7.131   3.216
87092SOL    HW163173   6.096   7.186   3.233
87092SOL    HW263174   6.051   7.063   3.157
87093SOL     OW63175  13.054   0.808   9.168
87093SOL    HW163176  13.105   0.727   9.179
87093SOL    HW263177  13.095   0.869   9.229
87094SOL     OW63178  13.200  12.345   3.740
87094SOL    HW163179  13.269  12.321   3.802
87094SOL    HW263180  13.120  12.311   3.778
87095SOL     OW63181   6.090   8.193   6.279
87095SOL    HW163182   6.011   8.234   6.243
87095SOL    HW263183   6.162   8.235   6.234
87096SOL     OW63184  12.221   7.527  13.733
87096SOL    HW163185  12.130   7.506  13.755
87096SOL    HW263186  12.232   7.493  13.645
87097SOL     OW63187   0.751   9.687   1.147
87097SOL    HW163188   0.805   9.636   1.208
87097SOL    HW263189   0.809   9.707   1.074
87098SOL     OW63190   6.690   2.017   6.527
87098SOL    HW163191   6.639   2.077   6.582
87098SOL    HW263192   6.677   2.050   6.438
87099SOL     OW63193   1.845  14.272  14.476
87099SOL    HW163194   1.757  14.237  14.466
87099SOL    HW263195   1.890  14.250  14.395
87100SOL     OW63196   0.409  11.879   0.834
87100SOL    HW163197   0.319  11.848   0.843
87100SOL    HW263198   0.463  11.800   0.844
87101SOL     OW63199   1.803  13.614  12.197
87101SOL    HW163200   1.786  13.544  12.134
87101SOL    HW263201   1.865  13.672  12.153
87102SOL     OW63202   8.111   2.829   7.138
87102SOL    HW163203   8.163   2.817   7.059
87102SOL    HW263204   8.096   2.740   7.170
87103SOL     OW63205   1.692   3.864  11.244
87103SOL    HW163206   1.675   3.770  11.256
87103SOL    HW263207   1.749   3.868  11.167
87104SOL     OW63208   8.839  14.185  11.744
87104SOL    HW163209   8.753  14.205  11.779
87104SOL    HW263210   8.889  14.152  11.818
87105SOL     OW63211  10.128   5.469   6.969
87105SOL    HW163212  10.202   5.486   6.911
87105SOL    HW263213  10.065   5.539   6.950
87106SOL     OW63214   0.617   5.200   3.476
87106SOL    HW163215   0.567   5.139   3.421
87106SOL    HW263216   0.673   5.247   3.415
87107SOL     OW63217   7.936   7.478   1.711
87107SOL    HW163218   7.922   7.410   1.776
87107SOL    HW263219   8.008   7.530   1.746
87108SOL     OW63220   0.472  13.046   9.531
87108SOL    HW163221   0.433  13.112   9.473
87108SOL    HW263222   0.424  13.054   9.613
87109SOL     OW63223   0.906   6.465   7.964
87109SOL    HW163224   0.882   6.484   7.873
87109SOL    HW263225   0.845   6.396   7.991
87110SOL     OW63226  13.732   9.205   9.831
87110SOL    HW163227  13.673   9.145   9.877
87110SOL    HW263228  13.766   9.263   9.899
87111SOL     OW63229   8.274   6.893   8.426
87111SOL    HW163230   8.282   6.873   8.333
87111SOL    HW263231   8.287   6.988   8.431
87112SOL     OW63232   8.183   0.082   3.160
87112SOL    HW163233   8.179   0.080   3.255
87112SOL    HW263234   8.277   0.089   3.140
87113SOL     OW63235   5.307  11.022   2.169
87113SOL    HW163236   5.272  11.046   2.255
87113SOL    HW263237   5.287  11.097   2.113
87114SOL     OW63238   3.778   4.012   5.513
87114SOL    HW163239   3.788   4.000   5.607
87114SOL    HW263240   3.796   4.105   5.498
87115SOL     OW63241   5.838   5.764   7.700
87115SOL    HW163242   5.837   5.859   7.704
87115SOL    HW263243   5.916   5.738   7.750
87116SOL     OW63244   5.759  11.234  14.354
87116SOL    HW163245   5.795  11.282  14.429
87116SOL    HW263246   5.836  11.210  14.302
87117SOL     OW63247   1.792   4.231  13.783
87117SOL    HW163248   1.851   4.158  13.799
87117SOL    HW263249   1.830   4.304  13.831
87118SOL     OW63250  12.525   9.278  10.479
87118SOL    HW163251  12.494   9.196  10.439
87118SOL    HW263252  12.563   9.327  10.406
87119SOL     OW63253  13.555   0.335  12.764
87119SOL    HW163254  13.546   0.423  12.728
87119SOL    HW263255  13.615   0.345  12.838
87120SOL     OW63256  10.999  13.612   2.416
87120SOL    HW163257  11.013  13.530   2.464
87120SOL    HW263258  11.073  13.617   2.355
87121SOL     OW63259   9.995   3.242   4.641
87121SOL    HW163260  10.043   3.180   4.695
87121SOL    HW263261   9.909   3.201   4.628
87122SOL     OW63262   7.126  14.592   0.632
87122SOL    HW163263   7.109  14.602   0.538
87122SOL    HW263264   7.114  14.499   0.649
87123SOL     OW63265  10.082   4.598   7.143
87123SOL    HW163266  10.007   4.643   7.104
87123SOL    HW263267  10.044   4.521   7.185
87124SOL     OW63268   1.303  10.423   0.664
87124SOL    HW163269   1.396  10.413   0.681
87124SOL    HW263270   1.280  10.509   0.700
87125SOL     OW63271  10.189   1.850   1.111
87125SOL    HW163272  10.278   1.852   1.147
87125SOL    HW263273  10.182   1.764   1.069
87126SOL     OW63274   0.789   9.135  14.174
87126SOL    HW163275   0.770   9.228  14.160
87126SOL    HW263276   0.712   9.089  14.141
87127SOL     OW63277   3.691  14.419   6.758
87127SOL    HW163278   3.644  14.435   6.677
87127SOL    HW263279   3.672  14.495   6.813
87128SOL     OW63280   1.035   6.528   5.810
87128SOL    HW163281   1.005   6.480   5.887
87128SOL    HW263282   1.003   6.477   5.736
87129SOL     OW63283   7.621   9.288   9.902
87129SOL    HW163284   7.547   9.330   9.946
87129SOL    HW263285   7.698   9.329   9.941
87130SOL     OW63286  11.318   5.699   3.371
87130SOL    HW163287  11.335   5.775   3.315
87130SOL    HW263288  11.301   5.627   3.310
87131SOL     OW63289   4.364   0.090  12.764
87131SOL    HW163290   4.379   0.046  12.680
87131SOL    HW263291   4.446   0.080  12.812
87132SOL     OW63292   5.861   5.793   0.725
87132SOL    HW163293   5.853   5.818   0.817
87132SOL    HW263294   5.955   5.777   0.713
87133SOL     OW63295   8.831   8.858   9.710
87133SOL    HW163296   8.896   8.899   9.653
87133SOL    HW263297   8.782   8.932   9.746
87134SOL     OW63298   7.509   0.096  13.691
87134SOL    HW163299   7.530   0.005  13.709
87134SOL    HW263300   7.414   0.102  13.707
87135SOL     OW63301  13.428   2.389  13.877
87135SOL    HW163302  13.518   2.398  13.909
87135SOL    HW263303  13.407   2.297  13.891
87136SOL     OW63304   8.807   6.246  13.879
87136SOL    HW163305   8.833   6.308  13.811
87136SOL    HW263306   8.875   6.179  13.878
87137SOL     OW63307   3.994  10.718   6.468
87137SOL    HW163308   3.942  10.796   6.487
87137SOL    HW263309   3.930  10.646   6.466
87138SOL     OW63310   0.812  11.623   1.547
87138SOL    HW163311   0.737  11.677   1.520
87138SOL    HW263312   0.878  11.686   1.575
87139SOL     OW63313  14.016   5.031   2.406
87139SOL    HW163314  13.942   5.046   2.347
87139SOL    HW263315  14.060   5.115   2.410
87140SOL     OW63316   3.450   2.588   1.788
87140SOL    HW163317   3.471   2.656   1.724
87140SOL    HW263318   3.408   2.636   1.860
87141SOL     OW63319   8.061  10.050  10.697
87141SOL    HW163320   8.061  10.066  10.603
87141SOL    HW263321   8.086  10.134  10.735
87142SOL     OW63322  14.800   2.045   0.221
87142SOL    HW163323  14.822   2.053   0.128
87142SOL    HW263324  14.739   1.972   0.225
87143SOL     OW63325   8.606   9.635   9.211
87143SOL    HW163326   8.581   9.682   9.131
87143SOL    HW263327   8.693   9.668   9.231
87144SOL     OW63328  14.065   3.375   6.739
87144SOL    HW163329  14.145   3.404   6.694
87144SOL    HW263330  13.999   3.440   6.715
87145SOL     OW63331   1.340  12.715   4.407
87145SOL    HW163332   1.393  12.697   4.484
87145SOL    HW263333   1.358  12.806   4.386
87146SOL     OW63334  13.865   0.022   0.556
87146SOL    HW163335  13.939  14.850   0.546
87146SOL    HW263336  13.904   0.109   0.559
87147SOL     OW63337   9.126   5.632  14.051
87147SOL    HW163338   9.170   5.547  14.049
87147SOL    HW263339   9.129   5.662  13.960
87148SOL     OW63340  11.894   6.522   6.384
87148SOL    HW163341  11.933   6.509   6.298
87148SOL    HW263342  11.800   6.531   6.368
87149SOL     OW63343   7.412  10.393   8.369
87149SOL    HW163344   7.432  10.484   8.347
87149SOL    HW263345   7.361  10.399   8.450
87150SOL     OW63346  12.497   8.622   1.207
87150SOL    HW163347  12.511   8.684   1.135
87150SOL    HW263348  12.455   8.674   1.276
87151SOL     OW63349   7.481   5.663   1.472
87151SOL    HW163350   7.448   5.714   1.546
87151SOL    HW263351   7.476   5.572   1.502
87152SOL     OW63352   1.323   8.104  14.399
87152SOL    HW163353   1.269   8.059  14.463
87152SOL    HW263354   1.365   8.175  14.448
87153SOL     OW63355   8.880   8.030   2.853
87153SOL    HW163356   8.901   7.938   2.835
87153SOL    HW263357   8.808   8.026   2.917
87154SOL     OW63358   2.366   2.888   7.505
87154SOL    HW163359   2.373   2.934   7.589
87154SOL    HW263360   2.312   2.945   7.451
87155SOL     OW63361   0.535  10.462  12.230
87155SOL    HW163362   0.568  10.546  12.262
87155SOL    HW263363   0.603  10.431  12.170
87156SOL     OW63364   5.967   3.344   5.065
87156SOL    HW163365   5.937   3.302   5.146
87156SOL    HW263366   5.945   3.436   5.076
87157SOL     OW63367   8.711   5.597  13.706
87157SOL    HW163368   8.617   5.582  13.707
87157SOL    HW263369   8.722   5.687  13.735
87158SOL     OW63370   6.581   5.587  13.123
87158SOL    HW163371   6.642   5.624  13.059
87158SOL    HW263372   6.633   5.575  13.202
87159SOL     OW63373  10.638  14.040  14.404
87159SOL    HW163374  10.631  14.134  14.421
87159SOL    HW263375  10.562  14.019  14.350
87160SOL     OW63376   0.093   8.109   2.054
87160SOL    HW163377   0.031   8.160   2.105
87160SOL    HW263378   0.178   8.147   2.076
87161SOL     OW63379   4.230  12.343   4.005
87161SOL    HW163380   4.142  12.316   4.031
87161SOL    HW263381   4.226  12.350   3.910
87162SOL     OW63382   7.408   3.864  11.523
87162SOL    HW163383   7.395   3.954  11.492
87162SOL    HW263384   7.439   3.816  11.446
87163SOL     OW63385   7.037   5.837  10.686
87163SOL    HW163386   7.121   5.792  10.689
87163SOL    HW263387   6.995   5.815  10.769
87164SOL     OW63388   1.100   1.106   0.856
87164SOL    HW163389   1.106   1.193   0.817
87164SOL    HW263390   1.100   1.121   0.950
87165SOL     OW63391  13.895  13.317  13.791
87165SOL    HW163392  13.837  13.374  13.841
87165SOL    HW263393  13.853  13.232  13.793
87166SOL     OW63394   3.450  12.789  11.229
87166SOL    HW163395   3.418  12.879  11.223
87166SOL    HW263396   3.371  12.735  11.219
87167SOL     OW63397  14.644   2.961   1.017
87167SOL    HW163398  14.658   2.999   0.930
87167SOL    HW263399  14.724   2.981   1.065
87168SOL     OW63400   2.342   9.766  13.178
87168SOL    HW163401   2.271   9.830  13.184
87168SOL    HW263402   2.300   9.685  13.149
87169SOL     OW63403   4.113   7.258   9.174
87169SOL    HW163404   4.100   7.339   9.126
87169SOL    HW263405   4.167   7.282   9.249
87170SOL     OW63406   2.656  13.097  10.638
87170SOL    HW163407   2.680  13.151  10.562
87170SOL    HW263408   2.615  13.019  10.599
87171SOL     OW63409   6.113  12.464   7.939
87171SOL    HW163410   6.056  12.540   7.946
87171SOL    HW263411   6.082  12.418   7.861
87172SOL     OW63412  11.046   4.131   3.318
87172SOL    HW163413  10.977   4.196   3.333
87172SOL    HW263414  11.109   4.146   3.389
87173SOL     OW63415  11.778  14.005   0.444
87173SOL    HW163416  11.748  14.086   0.401
87173SOL    HW263417  11.797  14.032   0.534
87174SOL     OW63418   5.101   4.392   3.777
87174SOL    HW163419   5.081   4.340   3.700
87174SOL    HW263420   5.033   4.369   3.840
87175SOL     OW63421  10.387  14.228   0.442
87175SOL    HW163422  10.321  14.278   0.489
87175SOL    HW263423  10.358  14.137   0.449
87176SOL     OW63424   6.446   5.024   8.493
87176SOL    HW163425   6.511   5.089   8.520
87176SOL    HW263426   6.387   5.016   8.567
87177SOL     OW63427  10.777   1.909  11.355
87177SOL    HW163428  10.822   1.868  11.281
87177SOL    HW263429  10.720   1.975  11.315
87178SOL     OW63430  11.567   2.922   6.820
87178SOL    HW163431  11.480   2.963   6.828
87178SOL    HW263432  11.552   2.848   6.761
87179SOL     OW63433  11.348  11.635   0.333
87179SOL    HW163434  11.314  11.546   0.327
87179SOL    HW263435  11.423  11.637   0.274
87180SOL     OW63436   6.202   3.252   2.398
87180SOL    HW163437   6.142   3.326   2.387
87180SOL    HW263438   6.173   3.209   2.478
87181SOL     OW63439  10.419   4.944   4.347
87181SOL    HW163440  10.425   4.961   4.441
87181SOL    HW263441  10.507   4.958   4.314
87182SOL     OW63442   7.755   3.487   3.401
87182SOL    HW163443   7.763   3.424   3.329
87182SOL    HW263444   7.761   3.572   3.359
87183SOL     OW63445   1.818  11.615   1.863
87183SOL    HW163446   1.757  11.608   1.938
87183SOL    HW263447   1.761  11.631   1.788
87184SOL     OW63448   9.580   0.920   2.170
87184SOL    HW163449   9.617   0.988   2.225
87184SOL    HW263450   9.578   0.842   2.225
87185SOL     OW63451  10.945   1.498  14.206
87185SOL    HW163452  10.874   1.560  14.221
87185SOL    HW263453  10.903   1.422  14.166
87186SOL     OW63454  11.593  12.409   8.206
87186SOL    HW163455  11.641  12.358   8.271
87186SOL    HW263456  11.502  12.383   8.216
87187SOL     OW63457  13.860   2.806   2.962
87187SOL    HW163458  13.956   2.804   2.958
87187SOL    HW263459  13.834   2.734   2.905
87188SOL     OW63460  12.322  12.470  13.956
87188SOL    HW163461  12.402  12.516  13.929
87188SOL    HW263462  12.251  12.517  13.912
87189SOL     OW63463   9.364  12.425   7.307
87189SOL    HW163464   9.389  12.471   7.387
87189SOL    HW263465   9.447  12.389   7.274
87190SOL     OW63466   8.107   6.306  11.964
87190SOL    HW163467   8.093   6.217  11.931
87190SOL    HW263468   8.059   6.362  11.902
87191SOL     OW63469   8.316   3.313  12.018
87191SOL    HW163470   8.369   3.392  12.030
87191SOL    HW263471   8.321   3.295  11.924
87192SOL     OW63472  10.313  10.016   9.410
87192SOL    HW163473  10.268  10.076   9.468
87192SOL    HW263474  10.371   9.966   9.468
87193SOL     OW63475   8.939   3.734   2.411
87193SOL    HW163476   9.021   3.707   2.453
87193SOL    HW263477   8.952   3.716   2.318
87194SOL     OW63478  10.432   6.970   3.520
87194SOL    HW163479  10.392   6.910   3.583
87194SOL    HW263480  10.446   6.916   3.442
87195SOL     OW63481  10.016   6.878  12.145
87195SOL    HW163482   9.987   6.911  12.060
87195SOL    HW263483  10.085   6.939  12.173
87196SOL     OW63484  11.998   6.944   8.257
87196SOL    HW163485  11.955   7.006   8.316
87196SOL    HW263486  12.048   6.887   8.314
87197SOL     OW63487   0.119  10.333   3.816
87197SOL    HW163488   0.031  10.370   3.829
87197SOL    HW263489   0.104  10.238   3.813
87198SOL     OW63490   5.405  10.827   1.450
87198SOL    HW163491   5.380  10.743   1.488
87198SOL    HW263492   5.452  10.871   1.520
87199SOL     OW63493  13.715   4.155   9.715
87199SOL    HW163494  13.804   4.173   9.745
87199SOL    HW263495  13.665   4.139   9.795
87200SOL     OW63496  12.541  14.187   3.730
87200SOL    HW163497  12.555  14.252   3.661
87200SOL    HW263498  12.621  14.189   3.782
87201SOL     OW63499  12.253  13.516   3.646
87201SOL    HW163500  12.205  13.550   3.721
87201SOL    HW263501  12.301  13.441   3.679
87202SOL     OW63502  13.768   5.381   0.845
87202SOL    HW163503  13.751   5.423   0.929
87202SOL    HW263504  13.683   5.373   0.803
87203SOL     OW63505  11.897  10.934  12.217
87203SOL    HW163506  11.807  10.963  12.208
87203SOL    HW263507  11.949  11.015  12.218
87204SOL     OW63508  10.477   8.524  14.751
87204SOL    HW163509  10.559   8.507  14.705
87204SOL    HW263510  10.410   8.481  14.698
87205SOL     OW63511  10.960   5.112   9.220
87205SOL    HW163512  11.044   5.125   9.263
87205SOL    HW263513  10.907   5.187   9.247
87206SOL     OW63514   0.979   4.539   4.236
87206SOL    HW163515   0.890   4.537   4.271
87206SOL    HW263516   0.968   4.538   4.141
87207SOL     OW63517  12.483   0.746   1.434
87207SOL    HW163518  12.541   0.784   1.499
87207SOL    HW263519  12.414   0.812   1.421
87208SOL     OW63520  10.050   5.586   2.913
87208SOL    HW163521  10.126   5.595   2.971
87208SOL    HW263522  10.016   5.675   2.905
87209SOL     OW63523   7.277   9.695  10.227
87209SOL    HW163524   7.272   9.752  10.304
87209SOL    HW263525   7.327   9.620  10.256
87210SOL     OW63526  14.358   7.873   9.198
87210SOL    HW163527  14.404   7.955   9.178
87210SOL    HW263528  14.265   7.897   9.195
87211SOL     OW63529   6.511   1.168   0.342
87211SOL    HW163530   6.577   1.187   0.408
87211SOL    HW263531   6.543   1.089   0.298
87212SOL     OW63532  10.678   7.436   2.341
87212SOL    HW163533  10.594   7.430   2.387
87212SOL    HW263534  10.693   7.349   2.305
87213SOL     OW63535  11.981   7.383   2.554
87213SOL    HW163536  12.027   7.464   2.532
87213SOL    HW263537  12.032   7.346   2.627
87214SOL     OW63538   1.065  10.933  14.506
87214SOL    HW163539   1.024  10.866  14.450
87214SOL    HW263540   1.075  10.890  14.590
87215SOL     OW63541  11.879   3.160  14.175
87215SOL    HW163542  11.786   3.140  14.162
87215SOL    HW263543  11.880   3.251  14.204
87216SOL     OW63544   9.535   0.190  11.111
87216SOL    HW163545   9.551   0.123  11.045
87216SOL    HW263546   9.446   0.221  11.092
87217SOL     OW63547   2.998   4.038  10.100
87217SOL    HW163548   2.959   4.115  10.142
87217SOL    HW263549   2.945   3.965  10.130
87218SOL     OW63550   9.882   7.146  13.172
87218SOL    HW163551   9.925   7.171  13.090
87218SOL    HW263552   9.851   7.057  13.157
87219SOL     OW63553   8.612   8.721   4.115
87219SOL    HW163554   8.524   8.739   4.147
87219SOL    HW263555   8.662   8.801   4.134
87220SOL     OW63556   9.020   7.398  11.592
87220SOL    HW163557   9.055   7.395  11.681
87220SOL    HW263558   8.968   7.478  11.590
87221SOL     OW63559   3.433   8.607  14.467
87221SOL    HW163560   3.448   8.702  14.469
87221SOL    HW263561   3.340   8.597  14.488
87222SOL     OW63562   5.778  11.923  13.434
87222SOL    HW163563   5.811  12.009  13.407
87222SOL    HW263564   5.786  11.924  13.530
87223SOL     OW63565   3.944   9.471   6.472
87223SOL    HW163566   3.919   9.557   6.506
87223SOL    HW263567   3.938   9.480   6.377
87224SOL     OW63568   1.793   6.294   7.777
87224SOL    HW163569   1.705   6.268   7.806
87224SOL    HW263570   1.852   6.251   7.838
87225SOL     OW63571   1.935   2.369  10.271
87225SOL    HW163572   1.867   2.425  10.234
87225SOL    HW263573   2.002   2.429  10.302
87226SOL     OW63574   9.189   8.183   4.233
87226SOL    HW163575   9.136   8.158   4.309
87226SOL    HW263576   9.169   8.276   4.219
87227SOL     OW63577   3.789   6.189  12.691
87227SOL    HW163578   3.759   6.099  12.704
87227SOL    HW263579   3.744   6.239  12.760
87228SOL     OW63580   3.851   4.642   6.234
87228SOL    HW163581   3.770   4.618   6.189
87228SOL    HW263582   3.919   4.593   6.187
87229SOL     OW63583  10.960  12.186  13.932
87229SOL    HW163584  11.033  12.246  13.917
87229SOL    HW263585  10.958  12.130  13.854
87230SOL     OW63586  12.624  13.402   2.018
87230SOL    HW163587  12.615  13.321   1.968
87230SOL    HW263588  12.541  13.412   2.064
87231SOL     OW63589   4.526  11.854   2.235
87231SOL    HW163590   4.549  11.943   2.263
87231SOL    HW263591   4.609  11.808   2.230
87232SOL     OW63592  11.823  10.813  12.451
87232SOL    HW163593  11.839  10.833  12.359
87232SOL    HW263594  11.905  10.772  12.481
87233SOL     OW63595   9.916   0.143   5.936
87233SOL    HW163596   9.907   0.107   5.848
87233SOL    HW263597  10.006   0.175   5.940
87234SOL     OW63598   3.470   8.223   9.868
87234SOL    HW163599   3.423   8.300   9.899
87234SOL    HW263600   3.438   8.209   9.779
87235SOL     OW63601  10.443   7.547   8.533
87235SOL    HW163602  10.426   7.584   8.619
87235SOL    HW263603  10.538   7.552   8.523
87236SOL     OW63604   7.033  13.459   5.495
87236SOL    HW163605   6.979  13.536   5.514
87236SOL    HW263606   7.070  13.435   5.580
87237SOL     OW63607   5.424   6.370   2.538
87237SOL    HW163608   5.329   6.372   2.532
87237SOL    HW263609   5.453   6.447   2.489
87238SOL     OW63610   2.178   0.511   5.502
87238SOL    HW163611   2.158   0.418   5.516
87238SOL    HW263612   2.268   0.512   5.470
87239SOL     OW63613   1.232   8.257   0.829
87239SOL    HW163614   1.189   8.179   0.795
87239SOL    HW263615   1.230   8.319   0.756
87240SOL     OW63616   5.209   1.004   4.031
87240SOL    HW163617   5.246   1.030   3.946
87240SOL    HW263618   5.128   0.958   4.009
87241SOL     OW63619   9.231  13.517  13.228
87241SOL    HW163620   9.226  13.501  13.134
87241SOL    HW263621   9.323  13.504  13.250
87242SOL     OW63622   4.304   1.032   0.649
87242SOL    HW163623   4.290   0.973   0.723
87242SOL    HW263624   4.361   1.101   0.685
87243SOL     OW63625   0.145   1.575   5.341
87243SOL    HW163626   0.178   1.513   5.276
87243SOL    HW263627   0.188   1.658   5.319
87244SOL     OW63628   0.219   7.246  11.919
87244SOL    HW163629   0.241   7.153  11.922
87244SOL    HW263630   0.135   7.250  11.875
87245SOL     OW63631  14.160   3.822  13.802
87245SOL    HW163632  14.077   3.847  13.843
87245SOL    HW263633  14.194   3.904  13.766
87246SOL     OW63634   0.485   9.702  12.683
87246SOL    HW163635   0.513   9.615  12.711
87246SOL    HW263636   0.390   9.697  12.678
87247SOL     OW63637  10.345  12.652  11.734
87247SOL    HW163638  10.375  12.693  11.653
87247SOL    HW263639  10.384  12.564  11.732
87248SOL     OW63640   6.620   5.414  13.402
87248SOL    HW163641   6.634   5.342  13.340
87248SOL    HW263642   6.676   5.484  13.371
87249SOL     OW63643   4.056   5.219   4.707
87249SOL    HW163644   4.034   5.267   4.787
87249SOL    HW263645   4.132   5.167   4.731
87250SOL     OW63646   8.751   2.639   7.878
87250SOL    HW163647   8.686   2.653   7.809
87250SOL    HW263648   8.784   2.550   7.863
87251SOL     OW63649  13.982   6.356   1.549
87251SOL    HW163650  13.973   6.435   1.496
87251SOL    HW263651  13.896   6.343   1.589
87252SOL     OW63652   6.443   0.629   8.070
87252SOL    HW163653   6.353   0.609   8.095
87252SOL    HW263654   6.490   0.639   8.153
87253SOL     OW63655  13.445   7.479   1.996
87253SOL    HW163656  13.426   7.396   2.039
87253SOL    HW263657  13.533   7.468   1.960
87254SOL     OW63658   8.523  13.303  14.164
87254SOL    HW163659   8.506  13.232  14.102
87254SOL    HW263660   8.436  13.335  14.189
87255SOL     OW63661   3.033  11.662   0.105
87255SOL    HW163662   3.007  11.744   0.147
87255SOL    HW263663   2.951  11.614   0.092
87256SOL     OW63664   4.737  13.118  10.520
87256SOL    HW163665   4.650  13.078  10.529
87256SOL    HW263666   4.798  13.050  10.547
87257SOL     OW63667  14.875   4.429   6.801
87257SOL    HW163668  14.882   4.462   6.711
87257SOL    HW263669   0.054   4.360   6.806
87258SOL     OW63670   0.901  13.414   7.854
87258SOL    HW163671   0.851  13.466   7.917
87258SOL    HW263672   0.992  13.427   7.879
87259SOL     OW63673   2.471  11.032   7.636
87259SOL    HW163674   2.448  10.964   7.573
87259SOL    HW263675   2.503  10.984   7.712
87260SOL     OW63676   9.933   6.580   3.211
87260SOL    HW163677   9.871   6.637   3.258
87260SOL    HW263678   9.886   6.553   3.132
87261SOL     OW63679   1.790  10.472   3.611
87261SOL    HW163680   1.748  10.524   3.679
87261SOL    HW263681   1.884  10.490   3.621
87262SOL     OW63682   5.728   7.622   7.495
87262SOL    HW163683   5.647   7.641   7.449
87262SOL    HW263684   5.770   7.554   7.441
87263SOL     OW63685   7.796   5.605   9.144
87263SOL    HW163686   7.887   5.591   9.116
87263SOL    HW263687   7.776   5.695   9.118
87264SOL     OW63688  11.300   5.697   9.593
87264SOL    HW163689  11.319   5.656   9.508
87264SOL    HW263690  11.346   5.781   9.589
87265SOL     OW63691  10.955   7.745  14.114
87265SOL    HW163692  11.039   7.785  14.136
87265SOL    HW263693  10.929   7.697  14.192
87266SOL     OW63694  11.527   0.996   8.835
87266SOL    HW163695  11.610   0.973   8.795
87266SOL    HW263696  11.546   1.004   8.928
87267SOL     OW63697   0.246   5.843   7.223
87267SOL    HW163698   0.287   5.830   7.138
87267SOL    HW263699   0.298   5.912   7.264
87268SOL     OW63700   7.454   9.708   3.401
87268SOL    HW163701   7.542   9.734   3.374
87268SOL    HW263702   7.410   9.790   3.425
87269SOL     OW63703   6.555   5.183   1.044
87269SOL    HW163704   6.461   5.200   1.058
87269SOL    HW263705   6.557   5.098   1.001
87270SOL     OW63706   2.618   9.373   2.916
87270SOL    HW163707   2.540   9.322   2.940
87270SOL    HW263708   2.673   9.371   2.995
87271SOL     OW63709   6.774   9.409  13.043
87271SOL    HW163710   6.859   9.415  13.086
87271SOL    HW263711   6.789   9.444  12.955
87272SOL     OW63712  10.997   3.607  12.674
87272SOL    HW163713  10.991   3.532  12.615
87272SOL    HW263714  11.059   3.666  12.632
87273SOL     OW63715   6.166  11.436  13.183
87273SOL    HW163716   6.180  11.346  13.213
87273SOL    HW263717   6.229  11.488  13.231
87274SOL     OW63718  11.651   6.346   7.214
87274SOL    HW163719  11.601   6.290   7.154
87274SOL    HW263720  11.737   6.354   7.172
87275SOL     OW63721  11.404   9.472  14.628
87275SOL    HW163722  11.343   9.426  14.571
87275SOL    HW263723  11.386   9.437  14.716
87276SOL     OW63724   6.595   2.625   7.159
87276SOL    HW163725   6.550   2.540   7.156
87276SOL    HW263726   6.669   2.610   7.218
87277SOL     OW63727  11.723   6.722   1.120
87277SOL    HW163728  11.653   6.733   1.184
87277SOL    HW263729  11.756   6.633   1.135
87278SOL     OW63730   1.415  13.493  14.358
87278SOL    HW163731   1.403  13.399  14.372
87278SOL    HW263732   1.423  13.530  14.446
87279SOL     OW63733   1.781  12.583   2.748
87279SOL    HW163734   1.789  12.624   2.661
87279SOL    HW263735   1.709  12.630   2.789
87280SOL     OW63736   5.314  14.404   2.429
87280SOL    HW163737   5.360  14.322   2.414
87280SOL    HW263738   5.248  14.407   2.359
87281SOL     OW63739   8.161  10.200   3.209
87281SOL    HW163740   8.187  10.112   3.182
87281SOL    HW263741   8.243  10.240   3.238
87282SOL     OW63742   9.112   7.465   4.999
87282SOL    HW163743   9.051   7.399   5.034
87282SOL    HW263744   9.190   7.416   4.974
87283SOL     OW63745  13.513  12.459   8.606
87283SOL    HW163746  13.569  12.535   8.621
87283SOL    HW263747  13.460  12.452   8.685
87284SOL     OW63748  13.761  10.551  11.201
87284SOL    HW163749  13.674  10.532  11.235
87284SOL    HW263750  13.766  10.503  11.118
87285SOL     OW63751   2.203   3.644   1.539
87285SOL    HW163752   2.287   3.686   1.521
87285SOL    HW263753   2.220   3.551   1.526
87286SOL     OW63754  11.715   3.198   2.641
87286SOL    HW163755  11.795   3.243   2.667
87286SOL    HW263756  11.671   3.179   2.723
87287SOL     OW63757   7.520  13.373  13.992
87287SOL    HW163758   7.504  13.432  14.066
87287SOL    HW263759   7.595  13.410  13.947
87288SOL     OW63760   8.933  13.840  10.721
87288SOL    HW163761   8.907  13.931  10.706
87288SOL    HW263762   8.948  13.835  10.816
87289SOL     OW63763  11.588   1.298   8.084
87289SOL    HW163764  11.593   1.323   7.992
87289SOL    HW263765  11.547   1.212   8.084
87290SOL     OW63766   9.234   1.922   1.678
87290SOL    HW163767   9.232   1.916   1.582
87290SOL    HW263768   9.198   2.008   1.697
87291SOL     OW63769   8.842  14.664  13.288
87291SOL    HW163770   8.803  14.684  13.203
87291SOL    HW263771   8.817  14.573  13.305
87292SOL     OW63772   5.380   2.711   3.934
87292SOL    HW163773   5.436   2.645   3.893
87292SOL    HW263774   5.370   2.682   4.024
87293SOL     OW63775   6.981   2.669   6.353
87293SOL    HW163776   7.028   2.605   6.406
87293SOL    HW263777   6.952   2.620   6.276
87294SOL     OW63778   7.028   1.564   7.779
87294SOL    HW163779   6.953   1.506   7.771
87294SOL    HW263780   6.990   1.649   7.803
87295SOL     OW63781   1.111   8.161  11.008
87295SOL    HW163782   1.098   8.238  10.952
87295SOL    HW263783   1.111   8.087  10.947
87296SOL     OW63784   9.055  12.014   8.037
87296SOL    HW163785   9.033  11.933   8.082
87296SOL    HW263786   9.137  11.995   7.991
87297SOL     OW63787   6.764  11.642   2.755
87297SOL    HW163788   6.808  11.719   2.718
87297SOL    HW263789   6.813  11.622   2.835
87298SOL     OW63790  14.498   0.881   5.100
87298SOL    HW163791  14.588   0.874   5.068
87298SOL    HW263792  14.465   0.963   5.063
87299SOL     OW63793   4.803   7.239  12.204
87299SOL    HW163794   4.723   7.292  12.197
87299SOL    HW263795   4.849   7.276  12.279
87300SOL     OW63796   3.566  13.017   2.454
87300SOL    HW163797   3.657  13.002   2.430
87300SOL    HW263798   3.524  13.046   2.373
87301SOL     OW63799   3.950  10.847  11.388
87301SOL    HW163800   4.030  10.796  11.379
87301SOL    HW263801   3.964  10.902  11.465
87302SOL     OW63802   8.232  13.065  10.564
87302SOL    HW163803   8.198  13.095  10.479
87302SOL    HW263804   8.168  13.096  10.628
87303SOL     OW63805   5.100   7.448  12.380
87303SOL    HW163806   5.030   7.393  12.416
87303SOL    HW263807   5.181   7.401  12.399
87304SOL     OW63808  13.764   7.849   4.462
87304SOL    HW163809  13.683   7.865   4.510
87304SOL    HW263810  13.829   7.907   4.502
87305SOL     OW63811  13.935  13.883  13.578
87305SOL    HW163812  13.976  13.842  13.501
87305SOL    HW263813  13.932  13.976  13.558
87306SOL     OW63814  10.711   9.427   8.593
87306SOL    HW163815  10.653   9.465   8.526
87306SOL    HW263816  10.785   9.393   8.543
87307SOL     OW63817  14.237   2.629   7.775
87307SOL    HW163818  14.154   2.581   7.765
87307SOL    HW263819  14.297   2.584   7.716
87308SOL     OW63820  11.083   8.388   5.128
87308SOL    HW163821  11.156   8.409   5.069
87308SOL    HW263822  11.056   8.472   5.164
87309SOL     OW63823   8.785   4.832  12.174
87309SOL    HW163824   8.746   4.884  12.244
87309SOL    HW263825   8.840   4.769  12.219
87310SOL     OW63826   3.555   3.955   4.977
87310SOL    HW163827   3.511   3.890   5.033
87310SOL    HW263828   3.591   4.019   5.039
87311SOL     OW63829   5.868   1.870   6.425
87311SOL    HW163830   5.870   1.835   6.335
87311SOL    HW263831   5.796   1.933   6.424
87312SOL     OW63832   8.057   6.158  12.732
87312SOL    HW163833   8.138   6.154  12.683
87312SOL    HW263834   8.022   6.245  12.715
87313SOL     OW63835   7.327   8.805   1.479
87313SOL    HW163836   7.310   8.899   1.468
87313SOL    HW263837   7.363   8.797   1.567
87314SOL     OW63838   4.134   5.087   2.960
87314SOL    HW163839   4.054   5.060   2.916
87314SOL    HW263840   4.174   5.151   2.901
87315SOL     OW63841   8.832  13.398   7.633
87315SOL    HW163842   8.863  13.340   7.702
87315SOL    HW263843   8.812  13.340   7.559
87316SOL     OW63844   7.037   3.861   6.400
87316SOL    HW163845   7.009   3.867   6.492
87316SOL    HW263846   6.956   3.852   6.351
87317SOL     OW63847  13.304   1.978   4.291
87317SOL    HW163848  13.253   1.965   4.212
87317SOL    HW263849  13.296   2.072   4.309
87318SOL     OW63850  14.182  14.848   1.273
87318SOL    HW163851  14.211  14.831   1.363
87318SOL    HW263852  14.212   0.050   1.255
87319SOL     OW63853   3.940   4.604   6.795
87319SOL    HW163854   3.892   4.523   6.773
87319SOL    HW263855   3.930   4.613   6.889
87320SOL     OW63856  10.288  13.357   2.929
87320SOL    HW163857  10.353  13.385   2.993
87320SOL    HW263858  10.205  13.361   2.976
87321SOL     OW63859   1.524   5.617  14.128
87321SOL    HW163860   1.461   5.674  14.173
87321SOL    HW263861   1.591   5.677  14.096
87322SOL     OW63862   5.677   3.759   5.506
87322SOL    HW163863   5.723   3.842   5.495
87322SOL    HW263864   5.644   3.763   5.596
87323SOL     OW63865  12.850   2.688  11.000
87323SOL    HW163866  12.787   2.752  10.966
87323SOL    HW263867  12.801   2.639  11.066
87324SOL     OW63868   5.131   4.440   2.533
87324SOL    HW163869   5.206   4.404   2.580
87324SOL    HW263870   5.165   4.460   2.445
87325SOL     OW63871   2.891  13.101  12.710
87325SOL    HW163872   2.898  13.180  12.764
87325SOL    HW263873   2.975  13.096  12.664
87326SOL     OW63874   4.911  13.196  11.058
87326SOL    HW163875   4.934  13.103  11.051
87326SOL    HW263876   4.940  13.221  11.146
87327SOL     OW63877   6.281   3.325   7.895
87327SOL    HW163878   6.218   3.397   7.886
87327SOL    HW263879   6.252   3.277   7.972
87328SOL     OW63880   5.190  11.484  10.437
87328SOL    HW163881   5.240  11.471  10.356
87328SOL    HW263882   5.119  11.420  10.432
87329SOL     OW63883  14.767  14.616   8.087
87329SOL    HW163884  14.690  14.569   8.055
87329SOL    HW263885  14.757  14.705   8.053
87330SOL     OW63886   0.523   9.256   4.835
87330SOL    HW163887   0.568   9.273   4.753
87330SOL    HW263888   0.474   9.175   4.819
87331SOL     OW63889   3.588   6.620   8.406
87331SOL    HW163890   3.581   6.525   8.404
87331SOL    HW263891   3.506   6.650   8.366
87332SOL     OW63892   3.575   1.603   4.485
87332SOL    HW163893   3.652   1.630   4.435
87332SOL    HW263894   3.607   1.594   4.575
87333SOL     OW63895   0.640   2.962   8.847
87333SOL    HW163896   0.547   2.984   8.845
87333SOL    HW263897   0.674   2.994   8.764
87334SOL     OW63898   4.524   4.485  12.909
87334SOL    HW163899   4.588   4.498  12.978
87334SOL    HW263900   4.575   4.452  12.835
87335SOL     OW63901   7.500  13.973  12.418
87335SOL    HW163902   7.415  14.008  12.392
87335SOL    HW263903   7.503  13.983  12.513
87336SOL     OW63904  13.010   5.753   9.250
87336SOL    HW163905  12.974   5.841   9.262
87336SOL    HW263906  13.102   5.768   9.229
87337SOL     OW63907   9.488   1.662  13.634
87337SOL    HW163908   9.416   1.699  13.685
87337SOL    HW263909   9.542   1.618  13.699
87338SOL     OW63910   1.852  10.320   5.625
87338SOL    HW163911   1.864  10.414   5.615
87338SOL    HW263912   1.803  10.294   5.548
87339SOL     OW63913   6.210  13.791   0.192
87339SOL    HW163914   6.160  13.863   0.231
87339SOL    HW263915   6.148  13.719   0.186
87340SOL     OW63916   6.401  13.801   2.314
87340SOL    HW163917   6.317  13.842   2.294
87340SOL    HW263918   6.383  13.746   2.390
87341SOL     OW63919   6.040   0.985   4.486
87341SOL    HW163920   6.130   0.993   4.455
87341SOL    HW263921   6.000   1.070   4.464
87342SOL     OW63922  11.125   0.798   0.795
87342SOL    HW163923  11.195   0.854   0.761
87342SOL    HW263924  11.105   0.737   0.723
87343SOL     OW63925   9.539   5.661   0.278
87343SOL    HW163926   9.508   5.576   0.309
87343SOL    HW263927   9.468   5.694   0.223
87344SOL     OW63928   5.701   7.525   9.811
87344SOL    HW163929   5.696   7.602   9.867
87344SOL    HW263930   5.616   7.482   9.822
87345SOL     OW63931   0.579   7.199  13.334
87345SOL    HW163932   0.629   7.143  13.394
87345SOL    HW263933   0.618   7.286  13.344
87346SOL     OW63934  11.417   2.323  14.747
87346SOL    HW163935  11.456   2.407  14.771
87346SOL    HW263936  11.417   2.272  14.829
87347SOL     OW63937   7.785   8.786  12.077
87347SOL    HW163938   7.800   8.691  12.084
87347SOL    HW263939   7.865   8.826  12.112
87348SOL     OW63940  10.276  14.841  10.750
87348SOL    HW163941  10.232  14.856  10.667
87348SOL    HW263942  10.227   0.007  10.814
87349SOL     OW63943   4.006   5.622   4.641
87349SOL    HW163944   3.944   5.669   4.586
87349SOL    HW263945   3.984   5.529   4.630
87350SOL     OW63946   0.557   4.726   5.038
87350SOL    HW163947   0.624   4.788   5.009
87350SOL    HW263948   0.529   4.682   4.958
87351SOL     OW63949  12.790   7.706   1.542
87351SOL    HW163950  12.824   7.795   1.545
87351SOL    HW263951  12.695   7.716   1.550
87352SOL     OW63952   7.211  11.180   8.885
87352SOL    HW163953   7.156  11.222   8.951
87352SOL    HW263954   7.259  11.253   8.845
87353SOL     OW63955   5.661  10.493   9.802
87353SOL    HW163956   5.627  10.406   9.825
87353SOL    HW263957   5.664  10.540   9.885
87354SOL     OW63958   0.345  11.999   6.995
87354SOL    HW163959   0.276  11.971   7.056
87354SOL    HW263960   0.423  11.953   7.024
87355SOL     OW63961  11.135   8.035   8.901
87355SOL    HW163962  11.066   8.100   8.889
87355SOL    HW263963  11.154   8.036   8.995
87356SOL     OW63964   3.309   6.671  14.768
87356SOL    HW163965   3.382   6.621  14.803
87356SOL    HW263966   3.239   6.662  14.833
87357SOL     OW63967   9.824   8.777  13.229
87357SOL    HW163968   9.821   8.873  13.229
87357SOL    HW263969   9.913   8.757  13.202
87358SOL     OW63970  13.112   7.765  13.700
87358SOL    HW163971  13.170   7.818  13.645
87358SOL    HW263972  13.118   7.677  13.664
87359SOL     OW63973  11.112  11.706   2.824
87359SOL    HW163974  11.147  11.748   2.746
87359SOL    HW263975  11.104  11.613   2.800
87360SOL     OW63976  12.671   3.873   2.761
87360SOL    HW163977  12.580   3.899   2.750
87360SOL    HW263978  12.672   3.780   2.739
87361SOL     OW63979  12.493   0.695   6.113
87361SOL    HW163980  12.466   0.609   6.144
87361SOL    HW263981  12.549   0.729   6.182
87362SOL     OW63982  14.127   1.967  14.476
87362SOL    HW163983  14.221   1.983  14.481
87362SOL    HW263984  14.108   1.917  14.555
87363SOL     OW63985  11.691  14.536  11.283
87363SOL    HW163986  11.681  14.599  11.354
87363SOL    HW263987  11.744  14.582  11.218
87364SOL     OW63988   4.710  14.689   1.952
87364SOL    HW163989   4.689  14.663   2.041
87364SOL    HW263990   4.684  14.781   1.947
87365SOL     OW63991   8.780  10.134   2.058
87365SOL    HW163992   8.821  10.097   1.979
87365SOL    HW263993   8.852  10.142   2.121
87366SOL     OW63994  13.212   0.058  13.969
87366SOL    HW163995  13.174   0.041  14.056
87366SOL    HW263996  13.210  14.860  13.926
87367SOL     OW63997   0.368   2.178  14.317
87367SOL    HW163998   0.320   2.175  14.400
87367SOL    HW263999   0.435   2.245  14.331
87368SOL     OW64000  13.499  12.918   0.360
87368SOL    HW164001  13.445  12.991   0.328
87368SOL    HW264002  13.435  12.852   0.389
87369SOL     OW64003   7.421  12.216   3.792
87369SOL    HW164004   7.472  12.274   3.848
87369SOL    HW264005   7.448  12.128   3.816
87370SOL     OW64006   2.550  13.840  13.869
87370SOL    HW164007   2.575  13.917  13.919
87370SOL    HW264008   2.591  13.852  13.783
87371SOL     OW64009   4.823   3.662   3.861
87371SOL    HW164010   4.855   3.610   3.788
87371SOL    HW264011   4.813   3.600   3.933
87372SOL     OW64012   6.767   2.967  13.084
87372SOL    HW164013   6.716   2.888  13.066
87372SOL    HW264014   6.843   2.937  13.133
87373SOL     OW64015   8.694  10.148  11.161
87373SOL    HW164016   8.628  10.180  11.222
87373SOL    HW264017   8.672  10.189  11.078
87374SOL     OW64018  11.306  11.707   7.249
87374SOL    HW164019  11.238  11.644   7.272
87374SOL    HW264020  11.313  11.763   7.326
87375SOL     OW64021   2.571  14.819  10.047
87375SOL    HW164022   2.534  14.828  10.135
87375SOL    HW264023   2.535  14.737  10.014
87376SOL     OW64024   4.114   6.119   7.054
87376SOL    HW164025   4.096   6.025   7.051
87376SOL    HW264026   4.155   6.132   7.140
87377SOL     OW64027   9.123   8.709   3.907
87377SOL    HW164028   9.069   8.678   3.834
87377SOL    HW264029   9.179   8.635   3.929
87378SOL     OW64030  13.627   7.264  11.793
87378SOL    HW164031  13.649   7.340  11.738
87378SOL    HW264032  13.584   7.203  11.733
87379SOL     OW64033   2.021   5.832   2.888
87379SOL    HW164034   1.959   5.902   2.910
87379SOL    HW264035   2.107   5.867   2.910
87380SOL     OW64036   3.720   1.210   4.246
87380SOL    HW164037   3.637   1.183   4.284
87380SOL    HW264038   3.760   1.266   4.313
87381SOL     OW64039   1.745  13.741  10.234
87381SOL    HW164040   1.811  13.807  10.254
87381SOL    HW264041   1.761  13.671  10.297
87382SOL     OW64042  13.486   5.805   2.808
87382SOL    HW164043  13.475   5.810   2.903
87382SOL    HW264044  13.566   5.855   2.790
87383SOL     OW64045   3.706  12.436   3.967
87383SOL    HW164046   3.629  12.391   4.000
87383SOL    HW264047   3.771  12.367   3.953
87384SOL     OW64048   5.553  10.331   2.823
87384SOL    HW164049   5.531  10.355   2.913
87384SOL    HW264050   5.469  10.321   2.779
87385SOL     OW64051   3.744   0.720  14.521
87385SOL    HW164052   3.655   0.741  14.550
87385SOL    HW264053   3.757   0.629  14.549
87386SOL     OW64054  11.424   4.449  12.802
87386SOL    HW164055  11.373   4.509  12.747
87386SOL    HW264056  11.515   4.466  12.779
87387SOL     OW64057   7.084   6.012   5.404
87387SOL    HW164058   7.075   6.064   5.484
87387SOL    HW264059   7.178   5.992   5.399
87388SOL     OW64060   6.465   9.573  10.059
87388SOL    HW164061   6.432   9.515  10.127
87388SOL    HW264062   6.472   9.659  10.101
87389SOL     OW64063   1.167   9.604   1.816
87389SOL    HW164064   1.148   9.559   1.899
87389SOL    HW264065   1.240   9.661   1.836
87390SOL     OW64066   3.901   2.816   8.139
87390SOL    HW164067   3.927   2.843   8.227
87390SOL    HW264068   3.834   2.749   8.154
87391SOL     OW64069   3.821  14.602  13.802
87391SOL    HW164070   3.875  14.523  13.797
87391SOL    HW264071   3.795  14.608  13.894
87392SOL     OW64072  11.156  14.280   8.936
87392SOL    HW164073  11.193  14.288   8.849
87392SOL    HW264074  11.104  14.199   8.933
87393SOL     OW64075   7.839   5.809  10.287
87393SOL    HW164076   7.907   5.752  10.323
87393SOL    HW264077   7.824   5.775  10.198
87394SOL     OW64078  13.165   3.269  12.483
87394SOL    HW164079  13.241   3.307  12.438
87394SOL    HW264080  13.142   3.335  12.548
87395SOL     OW64081   8.022   4.882   8.071
87395SOL    HW164082   8.067   4.812   8.025
87395SOL    HW264083   8.072   4.961   8.050
87396SOL     OW64084   3.931   7.933   7.635
87396SOL    HW164085   4.005   7.959   7.581
87396SOL    HW264086   3.890   8.016   7.662
87397SOL     OW64087   1.571  13.467   2.224
87397SOL    HW164088   1.658  13.506   2.219
87397SOL    HW264089   1.511  13.542   2.232
87398SOL     OW64090   2.185  13.955  13.446
87398SOL    HW164091   2.135  14.030  13.479
87398SOL    HW264092   2.126  13.913  13.384
87399SOL     OW64093   3.862   1.370  13.671
87399SOL    HW164094   3.881   1.462  13.652
87399SOL    HW264095   3.946   1.334  13.701
87400SOL     OW64096   4.639   7.774   7.177
87400SOL    HW164097   4.718   7.723   7.159
87400SOL    HW264098   4.593   7.723   7.244
87401SOL     OW64099   6.857   3.654   2.047
87401SOL    HW164100   6.766   3.684   2.043
87401SOL    HW264101   6.853   3.572   2.097
87402SOL     OW64102   7.434   1.410  11.184
87402SOL    HW164103   7.448   1.501  11.160
87402SOL    HW264104   7.453   1.361  11.104
87403SOL     OW64105   1.153  11.032   1.225
87403SOL    HW164106   1.162  11.127   1.216
87403SOL    HW264107   1.102  11.020   1.305
87404SOL     OW64108   3.841  13.179   4.066
87404SOL    HW164109   3.853  13.089   4.038
87404SOL    HW264110   3.929  13.211   4.085
87405SOL     OW64111   1.262   5.162  10.971
87405SOL    HW164112   1.209   5.235  10.938
87405SOL    HW264113   1.226   5.143  11.057
87406SOL     OW64114   5.920   0.316   0.005
87406SOL    HW164115   5.877   0.368   0.073
87406SOL    HW264116   5.958   0.381  14.834
87407SOL     OW64117   8.433  13.007   5.135
87407SOL    HW164118   8.381  13.073   5.182
87407SOL    HW264119   8.368  12.954   5.089
87408SOL     OW64120   1.862  12.112   9.933
87408SOL    HW164121   1.849  12.040   9.995
87408SOL    HW264122   1.950  12.098   9.898
87409SOL     OW64123   7.033   5.574  13.980
87409SOL    HW164124   7.036   5.541  13.890
87409SOL    HW264125   7.018   5.668  13.970
87410SOL     OW64126   8.222   7.868   7.042
87410SOL    HW164127   8.260   7.893   6.958
87410SOL    HW264128   8.246   7.939   7.101
87411SOL     OW64129  14.724   3.528   9.436
87411SOL    HW164130  14.633   3.512   9.462
87411SOL    HW264131  14.775   3.512   9.515
87412SOL     OW64132  11.730  13.538   2.810
87412SOL    HW164133  11.774  13.521   2.727
87412SOL    HW264134  11.795  13.516   2.877
87413SOL     OW64135  11.215   4.721   4.724
87413SOL    HW164136  11.240   4.810   4.699
87413SOL    HW264137  11.249   4.710   4.813
87414SOL     OW64138   6.012   5.651   2.288
87414SOL    HW164139   5.995   5.737   2.325
87414SOL    HW264140   6.060   5.604   2.356
87415SOL     OW64141   0.708   3.575  11.359
87415SOL    HW164142   0.721   3.542  11.448
87415SOL    HW264143   0.796   3.594  11.327
87416SOL     OW64144   5.246  11.811   9.813
87416SOL    HW164145   5.318  11.856   9.768
87416SOL    HW264146   5.261  11.718   9.796
87417SOL     OW64147  10.414   5.139   0.052
87417SOL    HW164148  10.432   5.059   0.002
87417SOL    HW264149  10.320   5.152   0.042
87418SOL     OW64150   5.085   8.117  14.458
87418SOL    HW164151   4.996   8.124  14.493
87418SOL    HW264152   5.110   8.207  14.439
87419SOL     OW64153   5.497   2.607   9.836
87419SOL    HW164154   5.478   2.684   9.783
87419SOL    HW264155   5.455   2.625   9.920
87420SOL     OW64156   2.762   0.883   2.051
87420SOL    HW164157   2.762   0.788   2.065
87420SOL    HW264158   2.784   0.919   2.137
87421SOL     OW64159   9.700   4.347   7.159
87421SOL    HW164160   9.732   4.261   7.134
87421SOL    HW264161   9.679   4.391   7.077
87422SOL     OW64162  14.274   8.841   7.976
87422SOL    HW164163  14.210   8.876   7.914
87422SOL    HW264164  14.264   8.895   8.054
87423SOL     OW64165  11.104   5.392   1.777
87423SOL    HW164166  11.134   5.481   1.756
87423SOL    HW264167  11.034   5.375   1.715
87424SOL     OW64168   3.773   4.279   9.049
87424SOL    HW164169   3.850   4.255   9.101
87424SOL    HW264170   3.700   4.272   9.110
87425SOL     OW64171  14.172  11.797   1.359
87425SOL    HW164172  14.169  11.854   1.436
87425SOL    HW264173  14.198  11.712   1.393
87426SOL     OW64174   8.085   0.056  14.103
87426SOL    HW164175   8.152  14.876  14.094
87426SOL    HW264176   8.053   0.070  14.014
87427SOL     OW64177  12.357  11.093   4.501
87427SOL    HW164178  12.307  11.088   4.583
87427SOL    HW264179  12.343  11.009   4.459
87428SOL     OW64180   9.002   5.090   7.601
87428SOL    HW164181   8.920   5.105   7.647
87428SOL    HW264182   9.020   4.997   7.613
87429SOL     OW64183   4.447   4.690  14.243
87429SOL    HW164184   4.411   4.611  14.203
87429SOL    HW264185   4.385   4.759  14.218
87430SOL     OW64186   8.187   4.615   6.453
87430SOL    HW164187   8.178   4.709   6.469
87430SOL    HW264188   8.171   4.575   6.539
87431SOL     OW64189   8.377  12.776   7.300
87431SOL    HW164190   8.296  12.734   7.328
87431SOL    HW264191   8.364  12.794   7.207
87432SOL     OW64192   2.311   0.543   0.666
87432SOL    HW164193   2.295   0.637   0.674
87432SOL    HW264194   2.261   0.504   0.738
87433SOL     OW64195   3.191   9.765   3.482
87433SOL    HW164196   3.232   9.687   3.521
87433SOL    HW264197   3.172   9.822   3.557
87434SOL     OW64198   7.577   2.723   5.308
87434SOL    HW164199   7.520   2.670   5.253
87434SOL    HW264200   7.590   2.804   5.259
87435SOL     OW64201   6.012   3.504   6.467
87435SOL    HW164202   5.997   3.423   6.517
87435SOL    HW264203   6.101   3.530   6.490
87436SOL     OW64204   1.700   8.701  14.268
87436SOL    HW164205   1.666   8.780  14.225
87436SOL    HW264206   1.664   8.629  14.217
87437SOL     OW64207  10.454  10.341   2.744
87437SOL    HW164208  10.519  10.362   2.676
87437SOL    HW264209  10.379  10.397   2.722
87438SOL     OW64210   9.820   6.587  10.546
87438SOL    HW164211   9.741   6.538  10.568
87438SOL    HW264212   9.818   6.594  10.450
87439SOL     OW64213  14.014  11.508   1.105
87439SOL    HW164214  14.072  11.584   1.108
87439SOL    HW264215  13.926  11.544   1.119
87440SOL     OW64216   5.851  12.288   7.624
87440SOL    HW164217   5.799  12.215   7.656
87440SOL    HW264218   5.814  12.309   7.539
87441SOL     OW64219   6.626   6.402   0.201
87441SOL    HW164220   6.697   6.407   0.137
87441SOL    HW264221   6.646   6.324   0.254
87442SOL     OW64222  13.027   1.206  13.374
87442SOL    HW164223  13.073   1.255  13.305
87442SOL    HW264224  12.964   1.268  13.410
87443SOL     OW64225  10.863   7.440   9.921
87443SOL    HW164226  10.810   7.510   9.881
87443SOL    HW264227  10.920   7.485   9.982
87444SOL     OW64228   3.549   2.970   4.997
87444SOL    HW164229   3.528   2.881   5.026
87444SOL    HW264230   3.536   2.968   4.902
87445SOL     OW64231   5.529   0.105  11.529
87445SOL    HW164232   5.612   0.057  11.525
87445SOL    HW264233   5.462   0.037  11.527
87446SOL     OW64234   3.526   1.259  11.473
87446SOL    HW164235   3.550   1.275  11.564
87446SOL    HW264236   3.594   1.303  11.422
87447SOL     OW64237   9.568  12.296  11.184
87447SOL    HW164238   9.644  12.308  11.127
87447SOL    HW264239   9.514  12.374  11.169
87448SOL     OW64240   9.851   9.090   7.604
87448SOL    HW164241   9.783   9.025   7.623
87448SOL    HW264242   9.900   9.097   7.685
87449SOL     OW64243   7.202   8.922  10.589
87449SOL    HW164244   7.297   8.907  10.587
87449SOL    HW264245   7.164   8.839  10.561
87450SOL     OW64246   2.581  13.583   1.916
87450SOL    HW164247   2.551  13.579   1.825
87450SOL    HW264248   2.660  13.636   1.914
87451SOL     OW64249  11.790   1.642  10.488
87451SOL    HW164250  11.875   1.686  10.495
87451SOL    HW264251  11.761   1.631  10.578
87452SOL     OW64252   2.361  11.415  13.499
87452SOL    HW164253   2.319  11.471  13.433
87452SOL    HW264254   2.317  11.330  13.489
87453SOL     OW64255   2.837   0.030   4.764
87453SOL    HW164256   2.822   0.016   4.858
87453SOL    HW264257   2.761  14.877   4.722
87454SOL     OW64258   7.746  12.635  13.886
87454SOL    HW164259   7.786  12.714  13.851
87454SOL    HW264260   7.807  12.606  13.954
87455SOL     OW64261   3.575  11.302  14.798
87455SOL    HW164262   3.536  11.387  14.781
87455SOL    HW264263   3.522  11.241  14.747
87456SOL     OW64264  13.461   9.930   6.664
87456SOL    HW164265  13.383   9.935   6.609
87456SOL    HW264266  13.495  10.020   6.664
87457SOL     OW64267   0.345   5.020   3.603
87457SOL    HW164268   0.421   5.047   3.654
87457SOL    HW264269   0.309   4.945   3.652
87458SOL     OW64270   3.188   3.240   0.766
87458SOL    HW164271   3.270   3.242   0.717
87458SOL    HW264272   3.134   3.176   0.721
87459SOL     OW64273   5.327   5.024  13.315
87459SOL    HW164274   5.360   4.935  13.329
87459SOL    HW264275   5.367   5.052  13.232
87460SOL     OW64276  10.978   3.393  13.768
87460SOL    HW164277  10.965   3.429  13.855
87460SOL    HW264278  11.068   3.360  13.768
87461SOL     OW64279   7.715   0.714  10.236
87461SOL    HW164280   7.759   0.794  10.266
87461SOL    HW264281   7.633   0.712  10.285
87462SOL     OW64282  14.357  14.065   8.413
87462SOL    HW164283  14.325  14.047   8.501
87462SOL    HW264284  14.341  14.158   8.400
87463SOL     OW64285   2.512   6.535   0.670
87463SOL    HW164286   2.466   6.544   0.754
87463SOL    HW264287   2.604   6.527   0.694
87464SOL     OW64288   6.593  14.857  12.160
87464SOL    HW164289   6.568  14.805  12.237
87464SOL    HW264290   6.522   0.033  12.150
87465SOL     OW64291   4.325  14.295  10.255
87465SOL    HW164292   4.320  14.390  10.262
87465SOL    HW264293   4.252  14.263  10.308
87466SOL     OW64294   1.802  10.555   1.722
87466SOL    HW164295   1.715  10.550   1.683
87466SOL    HW264296   1.802  10.638   1.770
87467SOL     OW64297  11.308   9.759   3.789
87467SOL    HW164298  11.396   9.724   3.775
87467SOL    HW264299  11.312   9.801   3.875
87468SOL     OW64300   9.666  12.454   5.579
87468SOL    HW164301   9.660  12.549   5.585
87468SOL    HW264302   9.654  12.435   5.486
87469SOL     OW64303   7.084  14.633   8.485
87469SOL    HW164304   7.010  14.573   8.489
87469SOL    HW264305   7.086  14.675   8.571
87470SOL     OW64306   6.505   1.902   2.423
87470SOL    HW164307   6.561   1.957   2.477
87470SOL    HW264308   6.545   1.815   2.426
87471SOL     OW64309  13.356   4.658   5.767
87471SOL    HW164310  13.295   4.585   5.772
87471SOL    HW264311  13.433   4.623   5.722
87472SOL     OW64312  11.544   3.692   7.868
87472SOL    HW164313  11.621   3.719   7.919
87472SOL    HW264314  11.474   3.751   7.896
87473SOL     OW64315   9.797   7.191   7.188
87473SOL    HW164316   9.831   7.281   7.193
87473SOL    HW264317   9.712   7.200   7.145
87474SOL     OW64318   1.965   3.902   0.919
87474SOL    HW164319   2.047   3.925   0.963
87474SOL    HW264320   1.938   3.820   0.961
87475SOL     OW64321   5.808   5.657   4.783
87475SOL    HW164322   5.900   5.634   4.772
87475SOL    HW264323   5.761   5.574   4.774
87476SOL     OW64324   7.919   3.225   0.014
87476SOL    HW164325   7.889   3.138  14.877
87476SOL    HW264326   7.862   3.251   0.086
87477SOL     OW64327   9.088  10.057   8.374
87477SOL    HW164328   9.006  10.023   8.338
87477SOL    HW264329   9.063  10.138   8.418
87478SOL     OW64330   5.347  14.263   7.427
87478SOL    HW164331   5.431  14.293   7.393
87478SOL    HW264332   5.369  14.188   7.483
87479SOL     OW64333   3.402   6.288   3.933
87479SOL    HW164334   3.398   6.260   3.842
87479SOL    HW264335   3.312   6.283   3.964
87480SOL     OW64336  10.008  10.767   4.801
87480SOL    HW164337   9.960  10.728   4.729
87480SOL    HW264338  10.100  10.754   4.779
87481SOL     OW64339   6.246  10.278  13.302
87481SOL    HW164340   6.239  10.356  13.358
87481SOL    HW264341   6.329  10.290  13.255
87482SOL     OW64342   9.184   4.103   4.313
87482SOL    HW164343   9.229   4.040   4.257
87482SOL    HW264344   9.239   4.109   4.391
87483SOL     OW64345   7.286   7.443   0.948
87483SOL    HW164346   7.322   7.369   0.899
87483SOL    HW264347   7.281   7.514   0.885
87484SOL     OW64348   6.861   6.790   3.810
87484SOL    HW164349   6.873   6.704   3.851
87484SOL    HW264350   6.771   6.814   3.833
87485SOL     OW64351  11.208   1.156  11.437
87485SOL    HW164352  11.231   1.196  11.353
87485SOL    HW264353  11.115   1.173  11.447
87486SOL     OW64354   5.961  10.986   6.029
87486SOL    HW164355   5.990  10.955   5.944
87486SOL    HW264356   5.956  10.907   6.083
87487SOL     OW64357   3.249   1.447  11.397
87487SOL    HW164358   3.308   1.463  11.470
87487SOL    HW264359   3.267   1.518  11.336
87488SOL     OW64360  11.806   4.096   9.589
87488SOL    HW164361  11.769   4.033   9.528
87488SOL    HW264362  11.887   4.125   9.547
87489SOL     OW64363   4.874   9.824   8.044
87489SOL    HW164364   4.810   9.767   8.086
87489SOL    HW264365   4.872   9.798   7.952
87490SOL     OW64366   2.170   2.963  13.634
87490SOL    HW164367   2.226   3.040  13.640
87490SOL    HW264368   2.092   2.985  13.686
87491SOL     OW64369   2.701  13.689   7.376
87491SOL    HW164370   2.776  13.716   7.428
87491SOL    HW264371   2.685  13.763   7.317
87492SOL     OW64372  13.174   7.074   4.078
87492SOL    HW164373  13.084   7.054   4.103
87492SOL    HW264374  13.194   7.155   4.125
87493SOL     OW64375   1.220   3.229  13.566
87493SOL    HW164376   1.126   3.208  13.570
87493SOL    HW264377   1.263   3.144  13.577
87494SOL     OW64378  13.115   4.899   5.114
87494SOL    HW164379  13.108   4.991   5.092
87494SOL    HW264380  13.084   4.893   5.205
87495SOL     OW64381   6.921  10.088   7.840
87495SOL    HW164382   6.892  10.103   7.930
87495SOL    HW264383   6.947   9.995   7.839
87496SOL     OW64384  12.501   2.524  13.676
87496SOL    HW164385  12.480   2.433  13.696
87496SOL    HW264386  12.514   2.565  13.761
87497SOL     OW64387   4.088   8.667   6.280
87497SOL    HW164388   4.175   8.636   6.305
87497SOL    HW264389   4.076   8.635   6.191
87498SOL     OW64390   4.843   8.242  13.487
87498SOL    HW164391   4.908   8.214  13.551
87498SOL    HW264392   4.885   8.231  13.402
87499SOL     OW64393   0.120   5.746   8.257
87499SOL    HW164394   0.214   5.760   8.263
87499SOL    HW264395   0.084   5.786   8.336
87500SOL     OW64396   0.219   6.113   7.820
87500SOL    HW164397   0.281   6.166   7.770
87500SOL    HW264398   0.190   6.046   7.758
87501SOL     OW64399  14.088  12.124   4.478
87501SOL    HW164400  14.019  12.130   4.413
87501SOL    HW264401  14.047  12.153   4.560
87502SOL     OW64402  13.943  12.791  14.050
87502SOL    HW164403  14.027  12.834  14.062
87502SOL    HW264404  13.901  12.841  13.979
87503SOL     OW64405   6.481   3.833  12.744
87503SOL    HW164406   6.537   3.761  12.715
87503SOL    HW264407   6.400   3.823  12.694
87504SOL     OW64408   6.015  11.740   3.654
87504SOL    HW164409   5.957  11.815   3.639
87504SOL    HW264410   5.981  11.699   3.734
87505SOL     OW64411   9.012  13.116   0.814
87505SOL    HW164412   8.919  13.136   0.824
87505SOL    HW264413   9.019  13.024   0.839
87506SOL     OW64414   8.326  10.211   3.538
87506SOL    HW164415   8.289  10.264   3.608
87506SOL    HW264416   8.320  10.265   3.460
87507SOL     OW64417   0.006   1.196   2.176
87507SOL    HW164418   0.024   1.278   2.223
87507SOL    HW264419  14.798   1.196   2.166
87508SOL     OW64420   3.301   3.275  10.357
87508SOL    HW164421   3.395   3.261  10.345
87508SOL    HW264422   3.275   3.209  10.422
87509SOL     OW64423   5.359   0.711   7.151
87509SOL    HW164424   5.338   0.716   7.057
87509SOL    HW264425   5.451   0.734   7.156
87510SOL     OW64426   6.557   6.561  12.528
87510SOL    HW164427   6.613   6.489  12.498
87510SOL    HW264428   6.468   6.531  12.509
87511SOL     OW64429  10.458   7.324   7.726
87511SOL    HW164430  10.459   7.417   7.752
87511SOL    HW264431  10.441   7.326   7.632
87512SOL     OW64432   4.907   7.343   5.195
87512SOL    HW164433   4.998   7.360   5.218
87512SOL    HW264434   4.856   7.385   5.264
87513SOL     OW64435   5.064  13.826   8.192
87513SOL    HW164436   5.114  13.904   8.217
87513SOL    HW264437   4.993  13.860   8.137
87514SOL     OW64438  11.560   1.143   8.550
87514SOL    HW164439  11.615   1.078   8.595
87514SOL    HW264440  11.481   1.094   8.527
87515SOL     OW64441   0.167  13.074  10.831
87515SOL    HW164442   0.206  12.997  10.873
87515SOL    HW264443   0.103  13.037  10.770
87516SOL     OW64444   6.255   7.868   5.471
87516SOL    HW164445   6.329   7.913   5.429
87516SOL    HW264446   6.191   7.937   5.487
87517SOL     OW64447   7.055   3.748  11.258
87517SOL    HW164448   7.015   3.825  11.297
87517SOL    HW264449   7.116   3.783  11.193
87518SOL     OW64450  10.149   8.554  12.971
87518SOL    HW164451  10.202   8.487  12.928
87518SOL    HW264452  10.060   8.539  12.939
87519SOL     OW64453  14.097  12.632   5.748
87519SOL    HW164454  14.129  12.602   5.833
87519SOL    HW264455  14.139  12.575   5.684
87520SOL     OW64456   5.301   6.612   7.677
87520SOL    HW164457   5.328   6.546   7.741
87520SOL    HW264458   5.205   6.611   7.681
87521SOL     OW64459  12.919   4.292  10.496
87521SOL    HW164460  12.968   4.342  10.562
87521SOL    HW264461  12.836   4.339  10.486
87522SOL     OW64462   6.781   3.828   3.061
87522SOL    HW164463   6.756   3.784   2.980
87522SOL    HW264464   6.702   3.873   3.089
87523SOL     OW64465   2.370  10.353   3.942
87523SOL    HW164466   2.315  10.361   3.864
87523SOL    HW264467   2.383  10.444   3.972
87524SOL     OW64468   9.834  13.306   2.623
87524SOL    HW164469   9.835  13.400   2.640
87524SOL    HW264470   9.866  13.267   2.705
87525SOL     OW64471   1.293   2.617   9.213
87525SOL    HW164472   1.313   2.711   9.214
87525SOL    HW264473   1.202   2.613   9.183
87526SOL     OW64474   4.498   3.139  11.850
87526SOL    HW164475   4.481   3.056  11.894
87526SOL    HW264476   4.505   3.203  11.921
87527SOL     OW64477  10.306   3.626  14.188
87527SOL    HW164478  10.324   3.693  14.122
87527SOL    HW264479  10.342   3.662  14.269
87528SOL     OW64480  12.632   4.233   7.244
87528SOL    HW164481  12.644   4.143   7.214
87528SOL    HW264482  12.696   4.283   7.194
87529SOL     OW64483   5.950  10.974  13.060
87529SOL    HW164484   5.970  10.917  12.986
87529SOL    HW264485   5.990  10.930  13.135
87530SOL     OW64486   2.301   8.455  12.261
87530SOL    HW164487   2.266   8.388  12.203
87530SOL    HW264488   2.308   8.412  12.346
87531SOL     OW64489  13.650   0.739   5.774
87531SOL    HW164490  13.611   0.783   5.851
87531SOL    HW264491  13.660   0.810   5.710
87532SOL     OW64492   2.170  12.436  14.780
87532SOL    HW164493   2.162  12.449  14.874
87532SOL    HW264494   2.086  12.398  14.754
87533SOL     OW64495  14.069   4.216  14.662
87533SOL    HW164496  14.050   4.286  14.599
87533SOL    HW264497  14.059   4.258  14.748
87534SOL     OW64498   0.521   8.679   5.660
87534SOL    HW164499   0.432   8.702   5.635
87534SOL    HW264500   0.575   8.748   5.621
87535SOL     OW64501  10.793   3.083   0.236
87535SOL    HW164502  10.728   3.066   0.167
87535SOL    HW264503  10.850   3.006   0.235
87536SOL     OW64504   0.757   2.689   9.796
87536SOL    HW164505   0.749   2.764   9.853
87536SOL    HW264506   0.732   2.722   9.709
87537SOL     OW64507  10.435   6.696   2.173
87537SOL    HW164508  10.459   6.725   2.261
87537SOL    HW264509  10.343   6.668   2.181
87538SOL     OW64510   1.120   8.465   7.408
87538SOL    HW164511   1.038   8.483   7.361
87538SOL    HW264512   1.105   8.380   7.450
87539SOL     OW64513   0.068   0.469   9.634
87539SOL    HW164514  14.873   0.503   9.599
87539SOL    HW264515   0.094   0.401   9.573
87540SOL     OW64516  12.272  11.205   8.586
87540SOL    HW164517  12.313  11.139   8.529
87540SOL    HW264518  12.281  11.287   8.538
87541SOL     OW64519   2.335  12.487   5.198
87541SOL    HW164520   2.250  12.529   5.197
87541SOL    HW264521   2.354  12.473   5.291
87542SOL     OW64522   1.274   0.139  12.744
87542SOL    HW164523   1.369   0.135  12.753
87542SOL    HW264524   1.255   0.228  12.714
87543SOL     OW64525  11.883   9.756   9.553
87543SOL    HW164526  11.893   9.673   9.600
87543SOL    HW264527  11.900   9.823   9.618
87544SOL     OW64528   3.684   4.124  14.499
87544SOL    HW164529   3.663   4.217  14.511
87544SOL    HW264530   3.604   4.087  14.462
87545SOL     OW64531   7.801  11.607   8.445
87545SOL    HW164532   7.760  11.655   8.373
87545SOL    HW264533   7.893  11.603   8.422
87546SOL     OW64534   6.500   6.695  14.431
87546SOL    HW164535   6.580   6.748  14.431
87546SOL    HW264536   6.495   6.660  14.342
87547SOL     OW64537   5.906  13.821  10.463
87547SOL    HW164538   5.991  13.778  10.471
87547SOL    HW264539   5.926  13.909  10.430
87548SOL     OW64540   7.015   4.310  11.323
87548SOL    HW164541   6.945   4.369  11.351
87548SOL    HW264542   7.047   4.272  11.405
87549SOL     OW64543   5.997   7.500  12.812
87549SOL    HW164544   5.922   7.466  12.763
87549SOL    HW264545   6.011   7.588  12.777
87550SOL     OW64546  12.767   2.054   6.039
87550SOL    HW164547  12.779   2.004   6.119
87550SOL    HW264548  12.796   2.142   6.062
87551SOL     OW64549  13.553   9.381   3.760
87551SOL    HW164550  13.617   9.343   3.701
87551SOL    HW264551  13.590   9.466   3.785
87552SOL     OW64552   3.393   5.235   7.398
87552SOL    HW164553   3.386   5.255   7.305
87552SOL    HW264554   3.376   5.142   7.405
87553SOL     OW64555   4.184   0.266  14.146
87553SOL    HW164556   4.189   0.325  14.221
87553SOL    HW264557   4.216   0.318  14.073
87554SOL     OW64558   2.690   5.119  10.569
87554SOL    HW164559   2.785   5.118  10.559
87554SOL    HW264560   2.673   5.184  10.637
87555SOL     OW64561   3.932   0.445  13.701
87555SOL    HW164562   3.910   0.413  13.613
87555SOL    HW264563   3.982   0.525  13.685
87556SOL     OW64564   9.021   2.957   8.645
87556SOL    HW164565   9.034   2.945   8.551
87556SOL    HW264566   9.100   3.000   8.675
87557SOL     OW64567   2.522   0.979   5.256
87557SOL    HW164568   2.498   0.934   5.337
87557SOL    HW264569   2.544   0.909   5.195
87558SOL     OW64570   1.204  11.568   6.011
87558SOL    HW164571   1.217  11.652   5.967
87558SOL    HW264572   1.111  11.568   6.035
87559SOL     OW64573   1.958   5.194  11.758
87559SOL    HW164574   1.950   5.136  11.833
87559SOL    HW264575   1.869   5.206  11.726
87560SOL     OW64576  12.481   6.332  11.841
87560SOL    HW164577  12.461   6.409  11.895
87560SOL    HW264578  12.453   6.257  11.894
87561SOL     OW64579   9.070   4.586  12.834
87561SOL    HW164580   9.157   4.586  12.873
87561SOL    HW264581   9.048   4.679  12.826
87562SOL     OW64582   9.425  12.222   2.886
87562SOL    HW164583   9.378  12.236   2.969
87562SOL    HW264584   9.394  12.292   2.829
87563SOL     OW64585  10.096   7.907  10.210
87563SOL    HW164586  10.003   7.887  10.221
87563SOL    HW264587  10.110   7.985  10.263
87564SOL     OW64588   4.457   9.744   1.932
87564SOL    HW164589   4.518   9.754   2.005
87564SOL    HW264590   4.484   9.810   1.868
87565SOL     OW64591   4.007  11.997   6.467
87565SOL    HW164592   4.026  11.934   6.537
87565SOL    HW264593   3.973  12.073   6.513
87566SOL     OW64594   4.854  14.118  11.467
87566SOL    HW164595   4.919  14.069  11.517
87566SOL    HW264596   4.855  14.077  11.381
87567SOL     OW64597   3.426   5.452  12.562
87567SOL    HW164598   3.331   5.452  12.570
87567SOL    HW264599   3.446   5.371  12.515
87568SOL     OW64600   7.453   4.728  14.085
87568SOL    HW164601   7.366   4.745  14.050
87568SOL    HW264602   7.452   4.768  14.172
87569SOL     OW64603  12.070   4.068  10.460
87569SOL    HW164604  12.051   3.987  10.506
87569SOL    HW264605  12.051   4.137  10.524
87570SOL     OW64606   7.519  12.311  13.236
87570SOL    HW164607   7.569  12.289  13.314
87570SOL    HW264608   7.571  12.275  13.163
87571SOL     OW64609   7.984   7.533   3.008
87571SOL    HW164610   8.046   7.584   2.957
87571SOL    HW264611   8.032   7.510   3.088
87572SOL     OW64612  11.676   6.691   1.858
87572SOL    HW164613  11.585   6.714   1.878
87572SOL    HW264614  11.694   6.616   1.914
87573SOL     OW64615   5.508   9.285  13.098
87573SOL    HW164616   5.486   9.238  13.178
87573SOL    HW264617   5.586   9.241  13.064
87574SOL     OW64618   5.183  14.140   8.811
87574SOL    HW164619   5.206  14.162   8.902
87574SOL    HW264620   5.267  14.137   8.765
87575SOL     OW64621  10.747   1.482  11.178
87575SOL    HW164622  10.793   1.509  11.098
87575SOL    HW264623  10.678   1.548  11.189
87576SOL     OW64624   5.330   3.455  14.303
87576SOL    HW164625   5.235   3.454  14.312
87576SOL    HW264626   5.354   3.363  14.286
87577SOL     OW64627  10.566  13.431   2.579
87577SOL    HW164628  10.599  13.492   2.644
87577SOL    HW264629  10.484  13.470   2.548
87578SOL     OW64630  13.487  12.738   1.893
87578SOL    HW164631  13.433  12.748   1.972
87578SOL    HW264632  13.458  12.808   1.835
87579SOL     OW64633   8.591   3.855   6.362
87579SOL    HW164634   8.598   3.814   6.276
87579SOL    HW264635   8.649   3.803   6.418
87580SOL     OW64636   3.798   2.643  10.062
87580SOL    HW164637   3.743   2.619  10.137
87580SOL    HW264638   3.885   2.609  10.085
87581SOL     OW64639   1.553   5.487   8.820
87581SOL    HW164640   1.552   5.421   8.751
87581SOL    HW264641   1.529   5.440   8.900
87582SOL     OW64642   7.759   6.265  11.295
87582SOL    HW164643   7.688   6.221  11.341
87582SOL    HW264644   7.758   6.228  11.207
87583SOL     OW64645   2.085  10.166   5.739
87583SOL    HW164646   2.085  10.101   5.810
87583SOL    HW264647   1.997  10.201   5.739
87584SOL     OW64648   3.028   5.561  14.400
87584SOL    HW164649   3.105   5.592  14.447
87584SOL    HW264650   2.978   5.511  14.464
87585SOL     OW64651   3.655   1.033   6.567
87585SOL    HW164652   3.710   1.061   6.494
87585SOL    HW264653   3.716   0.994   6.630
87586SOL     OW64654   2.772  11.419   7.540
87586SOL    HW164655   2.844  11.369   7.579
87586SOL    HW264656   2.715  11.353   7.501
87587SOL     OW64657   4.297   3.213  14.737
87587SOL    HW164658   4.341   3.296  14.720
87587SOL    HW264659   4.210   3.224  14.698
87588SOL     OW64660   2.925   3.318  14.660
87588SOL    HW164661   3.008   3.330  14.707
87588SOL    HW264662   2.862   3.372  14.709
87589SOL     OW64663   9.190  13.070   7.833
87589SOL    HW164664   9.266  13.013   7.848
87589SOL    HW264665   9.169  13.059   7.741
87590SOL     OW64666   5.704   0.949   5.763
87590SOL    HW164667   5.705   0.873   5.705
87590SOL    HW264668   5.793   0.955   5.797
87591SOL     OW64669   2.705   5.163   9.300
87591SOL    HW164670   2.699   5.202   9.213
87591SOL    HW264671   2.792   5.186   9.331
87592SOL     OW64672   7.370   7.036  10.490
87592SOL    HW164673   7.335   6.948  10.505
87592SOL    HW264674   7.446   7.022  10.433
87593SOL     OW64675   7.325   8.348   9.480
87593SOL    HW164676   7.336   8.396   9.562
87593SOL    HW264677   7.260   8.399   9.431
87594SOL     OW64678   5.729   9.418  10.729
87594SOL    HW164679   5.771   9.340  10.692
87594SOL    HW264680   5.694   9.464  10.653
87595SOL     OW64681   7.010   6.579   1.260
87595SOL    HW164682   7.022   6.622   1.176
87595SOL    HW264683   6.923   6.608   1.289
87596SOL     OW64684   8.612  10.580   8.574
87596SOL    HW164685   8.519  10.566   8.556
87596SOL    HW264686   8.632  10.516   8.642
87597SOL     OW64687   4.225   1.413  13.799
87597SOL    HW164688   4.189   1.377  13.718
87597SOL    HW264689   4.210   1.344  13.865
87598SOL     OW64690   5.444   3.729  14.724
87598SOL    HW164691   5.528   3.711  14.766
87598SOL    HW264692   5.449   3.682  14.640
87599SOL     OW64693  14.849  13.496   7.876
87599SOL    HW164694  14.840  13.556   7.951
87599SOL    HW264695  14.805  13.541   7.804
87600SOL     OW64696  13.994   0.917   8.385
87600SOL    HW164697  13.915   0.866   8.370
87600SOL    HW264698  14.007   0.966   8.304
87601SOL     OW64699   5.620   3.216   9.991
87601SOL    HW164700   5.627   3.311  10.004
87601SOL    HW264701   5.709   3.183  10.002
87602SOL     OW64702   5.521   2.975   8.841
87602SOL    HW164703   5.460   2.970   8.915
87602SOL    HW264704   5.608   2.974   8.882
87603SOL     OW64705   9.855   5.952  14.536
87603SOL    HW164706   9.824   6.017  14.600
87603SOL    HW264707   9.874   5.875  14.589
87604SOL     OW64708   4.097   8.078   2.883
87604SOL    HW164709   4.012   8.119   2.901
87604SOL    HW264710   4.160   8.132   2.931
87605SOL     OW64711   8.303   0.564   6.390
87605SOL    HW164712   8.257   0.484   6.415
87605SOL    HW264713   8.258   0.593   6.310
87606SOL     OW64714   3.556   4.313   0.548
87606SOL    HW164715   3.583   4.365   0.473
87606SOL    HW264716   3.594   4.358   0.624
87607SOL     OW64717   2.443  11.451  13.961
87607SOL    HW164718   2.505  11.426  13.892
87607SOL    HW264719   2.496  11.499  14.025
87608SOL     OW64720   7.627  14.696   7.626
87608SOL    HW164721   7.640  14.766   7.563
87608SOL    HW264722   7.716  14.663   7.645
87609SOL     OW64723  14.453   5.572   1.478
87609SOL    HW164724  14.403   5.551   1.557
87609SOL    HW264725  14.498   5.654   1.501
87610SOL     OW64726   5.617   6.316   0.879
87610SOL    HW164727   5.639   6.238   0.929
87610SOL    HW264728   5.549   6.287   0.818
87611SOL     OW64729   4.807   0.735   5.062
87611SOL    HW164730   4.843   0.789   4.992
87611SOL    HW264731   4.737   0.788   5.100
87612SOL     OW64732  12.050   6.956   8.665
87612SOL    HW164733  11.966   6.998   8.646
87612SOL    HW264734  12.027   6.879   8.717
87613SOL     OW64735  10.621   4.792  14.375
87613SOL    HW164736  10.676   4.748  14.440
87613SOL    HW264737  10.538   4.745  14.378
87614SOL     OW64738   8.241  14.204   9.413
87614SOL    HW164739   8.332  14.230   9.402
87614SOL    HW264740   8.245  14.120   9.459
87615SOL     OW64741   3.940   2.033   7.520
87615SOL    HW164742   3.923   2.081   7.601
87615SOL    HW264743   3.853   2.005   7.490
87616SOL     OW64744  13.841   7.690  11.738
87616SOL    HW164745  13.922   7.737  11.715
87616SOL    HW264746  13.836   7.697  11.834
87617SOL     OW64747   9.051   4.978   9.764
87617SOL    HW164748   9.081   4.939   9.682
87617SOL    HW264749   9.102   5.058   9.773
87618SOL     OW64750   7.605   0.612  13.041
87618SOL    HW164751   7.666   0.613  13.116
87618SOL    HW264752   7.608   0.701  13.006
87619SOL     OW64753   5.787   6.105   3.293
87619SOL    HW164754   5.820   6.191   3.320
87619SOL    HW264755   5.728   6.124   3.221
87620SOL     OW64756   3.802   4.478  12.873
87620SOL    HW164757   3.861   4.405  12.854
87620SOL    HW264758   3.809   4.535  12.796
87621SOL     OW64759  11.669  11.673   7.754
87621SOL    HW164760  11.619  11.608   7.704
87621SOL    HW264761  11.606  11.742   7.775
87622SOL     OW64762  10.325   7.402  13.973
87622SOL    HW164763  10.321   7.381  13.880
87622SOL    HW264764  10.414   7.380  14.000
87623SOL     OW64765   8.357   9.882  12.648
87623SOL    HW164766   8.439   9.911  12.689
87623SOL    HW264767   8.289   9.937  12.688
87624SOL     OW64768   3.655  14.149  11.615
87624SOL    HW164769   3.724  14.088  11.591
87624SOL    HW264770   3.582  14.128  11.557
87625SOL     OW64771   0.103   1.755  14.083
87625SOL    HW164772   0.089   1.791  13.995
87625SOL    HW264773   0.017   1.762  14.125
87626SOL     OW64774  13.784   3.345   2.437
87626SOL    HW164775  13.822   3.302   2.513
87626SOL    HW264776  13.792   3.439   2.455
87627SOL     OW64777  10.483  13.919   9.170
87627SOL    HW164778  10.500  13.839   9.219
87627SOL    HW264779  10.435  13.890   9.092
87628SOL     OW64780   2.541   0.202   0.854
87628SOL    HW164781   2.519   0.294   0.861
87628SOL    HW264782   2.496   0.171   0.776
87629SOL     OW64783   5.870   7.759  13.682
87629SOL    HW164784   5.778   7.747  13.708
87629SOL    HW264785   5.900   7.672  13.657
87630SOL     OW64786   2.734   1.150   5.935
87630SOL    HW164787   2.695   1.094   5.868
87630SOL    HW264788   2.689   1.234   5.926
87631SOL     OW64789   1.389   7.908   5.914
87631SOL    HW164790   1.309   7.873   5.954
87631SOL    HW264791   1.417   7.840   5.853
87632SOL     OW64792   4.857   1.528   1.563
87632SOL    HW164793   4.809   1.531   1.646
87632SOL    HW264794   4.817   1.598   1.510
87633SOL     OW64795   5.702   1.202   5.905
87633SOL    HW164796   5.615   1.240   5.916
87633SOL    HW264797   5.750   1.266   5.853
87634SOL     OW64798   6.152   1.201  14.607
87634SOL    HW164799   6.125   1.158  14.689
87634SOL    HW264800   6.152   1.295  14.629
87635SOL     OW64801  14.094  11.252   1.152
87635SOL    HW164802  14.061  11.341   1.149
87635SOL    HW264803  14.078  11.216   1.065
87636SOL     OW64804   4.876   0.921   1.346
87636SOL    HW164805   4.794   0.904   1.300
87636SOL    HW264806   4.851   0.981   1.417
87637SOL     OW64807  12.575   9.185   8.820
87637SOL    HW164808  12.506   9.120   8.806
87637SOL    HW264809  12.603   9.209   8.732
87638SOL     OW64810  10.952  14.645   2.559
87638SOL    HW164811  11.030  14.633   2.506
87638SOL    HW264812  10.879  14.623   2.501
87639SOL     OW64813   1.949   9.698  12.972
87639SOL    HW164814   1.872   9.643  12.958
87639SOL    HW264815   1.921   9.760  13.040
87640SOL     OW64816  13.622  10.174  10.259
87640SOL    HW164817  13.709  10.209  10.242
87640SOL    HW264818  13.612  10.180  10.354
87641SOL     OW64819   6.744   7.192   2.205
87641SOL    HW164820   6.755   7.097   2.209
87641SOL    HW264821   6.654   7.205   2.176
87642SOL     OW64822   3.965  11.154   6.780
87642SOL    HW164823   3.876  11.163   6.814
87642SOL    HW264824   3.976  11.229   6.721
87643SOL     OW64825  14.629   2.793   7.416
87643SOL    HW164826  14.620   2.887   7.433
87643SOL    HW264827  14.552   2.771   7.364
87644SOL     OW64828  12.576   0.871   7.324
87644SOL    HW164829  12.653   0.900   7.373
87644SOL    HW264830  12.570   0.931   7.250
87645SOL     OW64831  11.226  11.351   3.284
87645SOL    HW164832  11.319  11.337   3.269
87645SOL    HW264833  11.184  11.322   3.203
87646SOL     OW64834  13.162  14.222   2.152
87646SOL    HW164835  13.070  14.201   2.173
87646SOL    HW264836  13.198  14.255   2.233
87647SOL     OW64837   4.911  12.574   1.465
87647SOL    HW164838   4.957  12.626   1.399
87647SOL    HW264839   4.825  12.556   1.426
87648SOL     OW64840  12.190   4.561  10.588
87648SOL    HW164841  12.266   4.616  10.602
87648SOL    HW264842  12.225   4.476  10.562
87649SOL     OW64843   7.591   8.902   1.582
87649SOL    HW164844   7.591   8.850   1.663
87649SOL    HW264845   7.611   8.991   1.612
87650SOL     OW64846   6.482   2.713  11.492
87650SOL    HW164847   6.524   2.778  11.435
87650SOL    HW264848   6.408   2.681  11.441
87651SOL     OW64849   3.578   7.228   8.466
87651SOL    HW164850   3.645   7.182   8.517
87651SOL    HW264851   3.565   7.311   8.513
87652SOL     OW64852  14.099  13.637   2.417
87652SOL    HW164853  14.026  13.688   2.451
87652SOL    HW264854  14.075  13.617   2.327
87653SOL     OW64855  13.129   0.431  11.458
87653SOL    HW164856  13.138   0.338  11.440
87653SOL    HW264857  13.038   0.441  11.486
87654SOL     OW64858   5.499  12.684   7.815
87654SOL    HW164859   5.513  12.604   7.867
87654SOL    HW264860   5.404  12.691   7.806
87655SOL     OW64861  10.139   7.787   4.205
87655SOL    HW164862  10.063   7.784   4.147
87655SOL    HW264863  10.113   7.737   4.281
87656SOL     OW64864   9.633   5.267   0.469
87656SOL    HW164865   9.627   5.346   0.522
87656SOL    HW264866   9.542   5.248   0.444
87657SOL     OW64867   3.667   9.909  11.481
87657SOL    HW164868   3.710   9.824  11.487
87657SOL    HW264869   3.730   9.965  11.436
87658SOL     OW64870   8.421   7.370  10.609
87658SOL    HW164871   8.353   7.423  10.651
87658SOL    HW264872   8.475   7.338  10.681
87659SOL     OW64873  10.675  10.269   9.152
87659SOL    HW164874  10.624  10.249   9.231
87659SOL    HW264875  10.675  10.187   9.102
87660SOL     OW64876  14.058   3.598   3.914
87660SOL    HW164877  13.969   3.633   3.914
87660SOL    HW264878  14.047   3.504   3.902
87661SOL     OW64879   3.783  14.680   1.248
87661SOL    HW164880   3.756  14.734   1.173
87661SOL    HW264881   3.714  14.614   1.256
87662SOL     OW64882   5.029   6.626  12.606
87662SOL    HW164883   5.108   6.681  12.608
87662SOL    HW264884   4.957   6.689  12.606
87663SOL     OW64885  11.088   7.934  13.217
87663SOL    HW164886  11.097   7.850  13.261
87663SOL    HW264887  11.039   7.989  13.279
87664SOL     OW64888  11.042   6.401   6.544
87664SOL    HW164889  10.968   6.440   6.497
87664SOL    HW264890  11.053   6.456   6.621
87665SOL     OW64891  10.144   7.755   9.729
87665SOL    HW164892  10.129   7.714   9.814
87665SOL    HW264893  10.087   7.831   9.729
87666SOL     OW64894   9.636   7.972   7.791
87666SOL    HW164895   9.732   7.974   7.798
87666SOL    HW264896   9.610   7.898   7.847
87667SOL     OW64897   9.725   5.473  14.496
87667SOL    HW164898   9.673   5.468  14.415
87667SOL    HW264899   9.802   5.523  14.471
87668SOL     OW64900  14.222   7.121   2.007
87668SOL    HW164901  14.303   7.167   2.029
87668SOL    HW264902  14.248   7.030   1.995
87669SOL     OW64903  14.758   7.491  13.372
87669SOL    HW164904  14.752   7.532  13.458
87669SOL    HW264905  14.817   7.417  13.384
87670SOL     OW64906   9.887   0.626   9.940
87670SOL    HW164907   9.977   0.595   9.932
87670SOL    HW264908   9.861   0.648   9.851
87671SOL     OW64909  11.761   8.511   6.675
87671SOL    HW164910  11.714   8.579   6.724
87671SOL    HW264911  11.837   8.557   6.637
87672SOL     OW64912   1.619  12.131  10.429
87672SOL    HW164913   1.623  12.135  10.524
87672SOL    HW264914   1.688  12.069  10.404
87673SOL     OW64915  13.057   3.092   0.193
87673SOL    HW164916  13.124   3.025   0.183
87673SOL    HW264917  13.090   3.166   0.143
87674SOL     OW64918  13.597   5.772  12.955
87674SOL    HW164919  13.558   5.852  12.920
87674SOL    HW264920  13.604   5.788  13.049
87675SOL     OW64921   1.281   2.460   8.034
87675SOL    HW164922   1.223   2.428   8.103
87675SOL    HW264923   1.225   2.464   7.956
87676SOL     OW64924   6.901  14.438   5.720
87676SOL    HW164925   6.953  14.510   5.686
87676SOL    HW264926   6.811  14.459   5.694
87677SOL     OW64927   3.082   4.507  13.047
87677SOL    HW164928   3.144   4.477  12.981
87677SOL    HW264929   3.066   4.430  13.101
87678SOL     OW64930   3.447  13.975   1.781
87678SOL    HW164931   3.412  13.998   1.695
87678SOL    HW264932   3.520  14.035   1.794
87679SOL     OW64933   2.516   9.537   8.541
87679SOL    HW164934   2.531   9.481   8.617
87679SOL    HW264935   2.422   9.551   8.539
87680SOL     OW64936  11.599   2.869   2.537
87680SOL    HW164937  11.643   2.880   2.621
87680SOL    HW264938  11.670   2.850   2.475
87681SOL     OW64939  10.196   4.343  10.081
87681SOL    HW164940  10.255   4.364  10.009
87681SOL    HW264941  10.254   4.323  10.155
87682SOL     OW64942   0.272  12.977   0.165
87682SOL    HW164943   0.178  12.962   0.170
87682SOL    HW264944   0.281  13.072   0.167
87683SOL     OW64945   7.358   1.638   2.384
87683SOL    HW164946   7.270   1.661   2.353
87683SOL    HW264947   7.406   1.721   2.382
87684SOL     OW64948   0.141   7.480  12.771
87684SOL    HW164949   0.065   7.509  12.721
87684SOL    HW264950   0.163   7.394  12.735
87685SOL     OW64951   0.785  13.023   5.158
87685SOL    HW164952   0.721  12.952   5.150
87685SOL    HW264953   0.735  13.103   5.139
87686SOL     OW64954   4.754   6.243   4.907
87686SOL    HW164955   4.750   6.211   4.997
87686SOL    HW264956   4.746   6.165   4.853
87687SOL     OW64957  13.156  13.147   2.362
87687SOL    HW164958  13.160  13.054   2.342
87687SOL    HW264959  13.241  13.181   2.337
87688SOL     OW64960   6.571  12.775  10.132
87688SOL    HW164961   6.645  12.781  10.071
87688SOL    HW264962   6.608  12.801  10.216
87689SOL     OW64963  14.772  14.877   7.996
87689SOL    HW164964  14.817   0.039   8.065
87689SOL    HW264965  14.829  14.885   7.920
87690SOL     OW64966   3.782   7.907   9.527
87690SOL    HW164967   3.759   7.815   9.529
87690SOL    HW264968   3.730   7.947   9.597
87691SOL     OW64969   6.920  10.757   2.835
87691SOL    HW164970   6.864  10.735   2.910
87691SOL    HW264971   6.868  10.822   2.786
87692SOL     OW64972   0.140   4.847   1.973
87692SOL    HW164973   0.051   4.867   2.001
87692SOL    HW264974   0.132   4.823   1.881
87693SOL     OW64975   8.512   2.141  13.244
87693SOL    HW164976   8.587   2.121  13.188
87693SOL    HW264977   8.504   2.064  13.301
87694SOL     OW64978   3.318  14.293  13.632
87694SOL    HW164979   3.310  14.274  13.725
87694SOL    HW264980   3.335  14.387  13.628
87695SOL     OW64981  11.933  13.234  11.332
87695SOL    HW164982  11.892  13.148  11.317
87695SOL    HW264983  11.869  13.282  11.385
87696SOL     OW64984  10.306   4.452   2.784
87696SOL    HW164985  10.386   4.491   2.748
87696SOL    HW264986  10.284   4.509   2.859
87697SOL     OW64987   0.872   5.079  10.884
87697SOL    HW164988   0.872   5.170  10.914
87697SOL    HW264989   0.805   5.037  10.938
87698SOL     OW64990   0.983   1.918  14.599
87698SOL    HW164991   1.012   1.953  14.515
87698SOL    HW264992   0.968   1.825  14.582
87699SOL     OW64993   7.117   5.248  14.885
87699SOL    HW164994   7.031   5.284   0.018
87699SOL    HW264995   7.098   5.172  14.828
87700SOL     OW64996   9.038  13.424   4.116
87700SOL    HW164997   9.068  13.500   4.165
87700SOL    HW264998   9.011  13.459   4.031
87701SOL     OW64999   0.851   1.255   6.921
87701SOL    HW165000   0.822   1.337   6.880
87701SOL    HW265001   0.916   1.220   6.860
87702SOL     OW65002  10.019  12.816   5.787
87702SOL    HW165003   9.985  12.906   5.779
87702SOL    HW265004  10.082  12.821   5.859
87703SOL     OW65005   1.022   9.674  13.914
87703SOL    HW165006   1.060   9.656  14.000
87703SOL    HW265007   0.994   9.588  13.882
87704SOL     OW65008   7.858   3.818   3.615
87704SOL    HW165009   7.853   3.784   3.705
87704SOL    HW265010   7.773   3.794   3.577
87705SOL     OW65011  10.606   3.235   3.311
87705SOL    HW165012  10.628   3.156   3.360
87705SOL    HW265013  10.552   3.204   3.238
87706SOL     OW65014  13.524  12.103   5.433
87706SOL    HW165015  13.455  12.127   5.371
87706SOL    HW265016  13.532  12.008   5.425
87707SOL     OW65017   4.593   2.920   3.433
87707SOL    HW165018   4.603   3.005   3.475
87707SOL    HW265019   4.682   2.891   3.416
87708SOL     OW65020   4.334   4.243  11.868
87708SOL    HW165021   4.273   4.246  11.795
87708SOL    HW265022   4.332   4.152  11.897
87709SOL     OW65023   8.134  12.381  11.542
87709SOL    HW165024   8.186  12.305  11.517
87709SOL    HW265025   8.089  12.354  11.622
87710SOL     OW65026  14.173  10.352   3.284
87710SOL    HW165027  14.126  10.276   3.251
87710SOL    HW265028  14.213  10.392   3.206
87711SOL     OW65029   4.374  14.011   1.715
87711SOL    HW165030   4.328  14.092   1.737
87711SOL    HW265031   4.465  14.037   1.703
87712SOL     OW65032   3.491   4.590  11.565
87712SOL    HW165033   3.572   4.563  11.521
87712SOL    HW265034   3.521   4.646  11.636
87713SOL     OW65035   3.890  11.526   9.678
87713SOL    HW165036   3.956  11.458   9.684
87713SOL    HW265037   3.915  11.591   9.744
87714SOL     OW65038  12.045   3.259  12.776
87714SOL    HW165039  12.122   3.201  12.776
87714SOL    HW265040  11.982   3.215  12.833
87715SOL     OW65041   3.333   7.564   0.758
87715SOL    HW165042   3.297   7.517   0.833
87715SOL    HW265043   3.291   7.524   0.682
87716SOL     OW65044   3.859   5.447   9.442
87716SOL    HW165045   3.803   5.371   9.458
87716SOL    HW265046   3.898   5.430   9.356
87717SOL     OW65047   7.985  10.647   8.829
87717SOL    HW165048   7.978  10.651   8.734
87717SOL    HW265049   8.079  10.639   8.846
87718SOL     OW65050   4.529   0.321   5.805
87718SOL    HW165051   4.453   0.264   5.819
87718SOL    HW265052   4.528   0.382   5.879
87719SOL     OW65053  14.370  12.909   9.844
87719SOL    HW165054  14.338  12.938   9.758
87719SOL    HW265055  14.345  12.817   9.848
87720SOL     OW65056  13.883   7.027   3.521
87720SOL    HW165057  13.914   7.069   3.602
87720SOL    HW265058  13.860   7.101   3.464
87721SOL     OW65059   8.418   2.263   7.009
87721SOL    HW165060   8.459   2.276   7.095
87721SOL    HW265061   8.324   2.270   7.026
87722SOL     OW65062   7.858  13.389   6.751
87722SOL    HW165063   7.825  13.372   6.663
87722SOL    HW265064   7.948  13.358   6.750
87723SOL     OW65065  10.560   4.636  13.257
87723SOL    HW165066  10.555   4.546  13.224
87723SOL    HW265067  10.622   4.631  13.330
87724SOL     OW65068  13.052  12.209  12.710
87724SOL    HW165069  13.069  12.286  12.764
87724SOL    HW265070  13.100  12.138  12.752
87725SOL     OW65071   9.783  13.166   5.104
87725SOL    HW165072   9.810  13.221   5.178
87725SOL    HW265073   9.864  13.152   5.054
87726SOL     OW65074   1.262   7.248   6.500
87726SOL    HW165075   1.296   7.249   6.411
87726SOL    HW265076   1.337   7.224   6.554
87727SOL     OW65077   7.764   0.186   6.702
87727SOL    HW165078   7.674   0.155   6.717
87727SOL    HW265079   7.810   0.166   6.783
87728SOL     OW65080   5.157   7.619   6.431
87728SOL    HW165081   5.067   7.650   6.438
87728SOL    HW265082   5.150   7.526   6.413
87729SOL     OW65083  12.903  10.755   1.802
87729SOL    HW165084  12.941  10.780   1.886
87729SOL    HW265085  12.893  10.660   1.807
87730SOL     OW65086   9.741   1.996   6.812
87730SOL    HW165087   9.793   1.942   6.871
87730SOL    HW265088   9.669   1.940   6.784
87731SOL     OW65089   1.367  11.177  11.046
87731SOL    HW165090   1.393  11.262  11.011
87731SOL    HW265091   1.291  11.151  10.993
87732SOL     OW65092   3.926   4.488   0.344
87732SOL    HW165093   3.937   4.421   0.277
87732SOL    HW265094   3.832   4.506   0.346
87733SOL     OW65095   3.899  10.357  12.710
87733SOL    HW165096   3.887  10.343  12.616
87733SOL    HW265097   3.902  10.452  12.720
87734SOL     OW65098   5.049   0.182   5.819
87734SOL    HW165099   4.966   0.140   5.796
87734SOL    HW265100   5.055   0.257   5.760
87735SOL     OW65101   4.475   8.806  12.063
87735SOL    HW165102   4.471   8.770  12.151
87735SOL    HW265103   4.568   8.825  12.049
87736SOL     OW65104   7.363  12.106   7.931
87736SOL    HW165105   7.389  12.165   7.861
87736SOL    HW265106   7.270  12.090   7.915
87737SOL     OW65107  11.291   0.589   1.724
87737SOL    HW165108  11.269   0.664   1.779
87737SOL    HW265109  11.224   0.523   1.744
87738SOL     OW65110   0.369  12.279   7.022
87738SOL    HW165111   0.356  12.185   7.033
87738SOL    HW265112   0.449  12.286   6.970
87739SOL     OW65113   4.138   7.551   5.042
87739SOL    HW165114   4.171   7.627   4.993
87739SOL    HW265115   4.216   7.513   5.081
87740SOL     OW65116   0.639  11.038   1.465
87740SOL    HW165117   0.594  10.954   1.467
87740SOL    HW265118   0.573  11.101   1.493
87741SOL     OW65119  11.147   4.256  10.070
87741SOL    HW165120  11.142   4.260  10.166
87741SOL    HW265121  11.071   4.305  10.040
87742SOL     OW65122   6.756   0.260   4.090
87742SOL    HW165123   6.696   0.334   4.102
87742SOL    HW265124   6.749   0.237   3.998
87743SOL     OW65125   8.316  10.577  11.100
87743SOL    HW165126   8.381  10.588  11.169
87743SOL    HW265127   8.301  10.483  11.096
87744SOL     OW65128   2.240   4.830   7.069
87744SOL    HW165129   2.166   4.862   7.018
87744SOL    HW265130   2.212   4.837   7.160
87745SOL     OW65131   2.724   5.433   1.483
87745SOL    HW165132   2.754   5.343   1.482
87745SOL    HW265133   2.652   5.435   1.420
87746SOL     OW65134   8.594   7.090  13.040
87746SOL    HW165135   8.623   7.125  13.124
87746SOL    HW265136   8.634   7.004  13.034
87747SOL     OW65137   4.898  14.243   3.336
87747SOL    HW165138   4.953  14.188   3.392
87747SOL    HW265139   4.816  14.252   3.385
87748SOL     OW65140   6.126   8.440  14.518
87748SOL    HW165141   6.040   8.467  14.487
87748SOL    HW265142   6.185   8.510  14.490
87749SOL     OW65143  12.508  13.990   7.472
87749SOL    HW165144  12.432  14.017   7.421
87749SOL    HW265145  12.575  14.056   7.453
87750SOL     OW65146   4.184   8.475   1.067
87750SOL    HW165147   4.276   8.455   1.051
87750SOL    HW265148   4.145   8.391   1.090
87751SOL     OW65149   7.560   6.038   3.447
87751SOL    HW165150   7.625   6.088   3.399
87751SOL    HW265151   7.540   6.092   3.524
87752SOL     OW65152  14.766  13.555   1.650
87752SOL    HW165153  14.809  13.618   1.593
87752SOL    HW265154  14.679  13.591   1.664
87753SOL     OW65155   1.785  14.653   7.568
87753SOL    HW165156   1.811  14.602   7.491
87753SOL    HW265157   1.803  14.596   7.642
87754SOL     OW65158  11.835   8.644   7.176
87754SOL    HW165159  11.908   8.631   7.235
87754SOL    HW265160  11.854   8.588   7.101
87755SOL     OW65161   4.668  10.769   7.830
87755SOL    HW165162   4.726  10.845   7.832
87755SOL    HW265163   4.716  10.703   7.779
87756SOL     OW65164   6.558   6.425   4.876
87756SOL    HW165165   6.626   6.425   4.944
87756SOL    HW265166   6.477   6.446   4.923
87757SOL     OW65167   9.762   2.834  14.546
87757SOL    HW165168   9.782   2.839  14.640
87757SOL    HW265169   9.759   2.925  14.518
87758SOL     OW65170   6.764   5.868  10.286
87758SOL    HW165171   6.766   5.815  10.365
87758SOL    HW265172   6.791   5.809  10.216
87759SOL     OW65173   1.483   5.642  12.220
87759SOL    HW165174   1.556   5.635  12.281
87759SOL    HW265175   1.461   5.735  12.218
87760SOL     OW65176   8.099  14.053   2.309
87760SOL    HW165177   8.011  14.023   2.332
87760SOL    HW265178   8.085  14.109   2.232
87761SOL     OW65179  14.616   2.622   1.787
87761SOL    HW165180  14.596   2.713   1.763
87761SOL    HW265181  14.703   2.625   1.826
87762SOL     OW65182   9.909  13.613   7.009
87762SOL    HW165183   9.912  13.571   7.094
87762SOL    HW265184   9.868  13.549   6.951
87763SOL     OW65185   5.330  14.481  14.550
87763SOL    HW165186   5.240  14.477  14.583
87763SOL    HW265187   5.339  14.571  14.517
87764SOL     OW65188   9.328   2.459   0.856
87764SOL    HW165189   9.331   2.421   0.768
87764SOL    HW265190   9.358   2.388   0.914
87765SOL     OW65191   3.684  12.914   1.528
87765SOL    HW165192   3.750  12.918   1.459
87765SOL    HW265193   3.732  12.884   1.605
87766SOL     OW65194  12.740   7.328  14.186
87766SOL    HW165195  12.764   7.390  14.254
87766SOL    HW265196  12.813   7.329  14.125
87767SOL     OW65197   3.910  11.356   3.793
87767SOL    HW165198   3.831  11.399   3.761
87767SOL    HW265199   3.966  11.428   3.822
87768SOL     OW65200  11.050   8.713   3.723
87768SOL    HW165201  11.087   8.723   3.811
87768SOL    HW265202  10.960   8.684   3.738
87769SOL     OW65203   4.073   0.853   8.490
87769SOL    HW165204   4.007   0.877   8.426
87769SOL    HW265205   4.033   0.871   8.575
87770SOL     OW65206  13.002  10.930   6.674
87770SOL    HW165207  13.044  10.971   6.599
87770SOL    HW265208  13.071  10.880   6.717
87771SOL     OW65209  10.390  11.355   1.243
87771SOL    HW165210  10.419  11.276   1.197
87771SOL    HW265211  10.318  11.388   1.189
87772SOL     OW65212   0.146   9.826   6.087
87772SOL    HW165213   0.231   9.810   6.046
87772SOL    HW265214   0.146   9.771   6.165
87773SOL     OW65215  12.248   5.405  13.718
87773SOL    HW165216  12.222   5.313  13.722
87773SOL    HW265217  12.296   5.414  13.636
87774SOL     OW65218   1.236  13.550   1.861
87774SOL    HW165219   1.148  13.576   1.889
87774SOL    HW265220   1.248  13.593   1.777
87775SOL     OW65221   0.975  12.853   4.804
87775SOL    HW165222   0.914  12.914   4.763
87775SOL    HW265223   1.021  12.811   4.731
87776SOL     OW65224   8.973   4.821  11.554
87776SOL    HW165225   8.967   4.752  11.620
87776SOL    HW265226   8.977   4.902  11.605
87777SOL     OW65227   9.739   9.883   3.194
87777SOL    HW165228   9.811   9.867   3.133
87777SOL    HW265229   9.764   9.835   3.273
87778SOL     OW65230   0.755   1.724   7.946
87778SOL    HW165231   0.793   1.810   7.964
87778SOL    HW265232   0.711   1.734   7.862
87779SOL     OW65233   8.131  12.951   0.562
87779SOL    HW165234   8.185  13.028   0.580
87779SOL    HW265235   8.041  12.982   0.570
87780SOL     OW65236  12.419  11.556   5.316
87780SOL    HW165237  12.463  11.639   5.329
87780SOL    HW265238  12.327  11.579   5.303
87781SOL     OW65239   0.421  12.753   4.440
87781SOL    HW165240   0.364  12.793   4.506
87781SOL    HW265241   0.374  12.675   4.412
87782SOL     OW65242  14.080   8.506  14.601
87782SOL    HW165243  14.134   8.483  14.525
87782SOL    HW265244  14.084   8.602  14.605
87783SOL     OW65245   9.493  14.409  13.703
87783SOL    HW165246   9.446  14.410  13.620
87783SOL    HW265247   9.451  14.338  13.753
87784SOL     OW65248  13.865   9.004  12.050
87784SOL    HW165249  13.898   8.937  11.989
87784SOL    HW265250  13.919   8.995  12.128
87785SOL     OW65251   1.330   5.175  11.467
87785SOL    HW165252   1.360   5.266  11.464
87785SOL    HW265253   1.410   5.123  11.467
87786SOL     OW65254   8.321  12.498  11.708
87786SOL    HW165255   8.407  12.469  11.677
87786SOL    HW265256   8.259  12.463  11.644
87787SOL     OW65257   4.652   3.514   5.711
87787SOL    HW165258   4.557   3.500   5.707
87787SOL    HW265259   4.667   3.545   5.800
87788SOL     OW65260   9.400  14.300  10.755
87788SOL    HW165261   9.427  14.219  10.798
87788SOL    HW265262   9.353  14.349  10.823
87789SOL     OW65263   6.860   7.977   9.108
87789SOL    HW165264   6.923   7.972   9.180
87789SOL    HW265265   6.826   7.887   9.101
87790SOL     OW65266   1.475   7.984   5.502
87790SOL    HW165267   1.480   7.933   5.421
87790SOL    HW265268   1.427   7.928   5.562
87791SOL     OW65269   8.039   6.587  14.028
87791SOL    HW165270   8.020   6.493  14.025
87791SOL    HW265271   8.135   6.593  14.025
87792SOL     OW65272   9.977   1.033  10.700
87792SOL    HW165273  10.015   1.096  10.762
87792SOL    HW265274   9.898   1.076  10.668
87793SOL     OW65275   7.438  11.507  14.413
87793SOL    HW165276   7.344  11.495  14.428
87793SOL    HW265277   7.476  11.512  14.501
87794SOL     OW65278  12.098   6.812  12.199
87794SOL    HW165279  12.021   6.837  12.250
87794SOL    HW265280  12.172   6.827  12.258
87795SOL     OW65281   2.586   2.086   4.166
87795SOL    HW165282   2.643   2.141   4.113
87795SOL    HW265283   2.616   1.997   4.151
87796SOL     OW65284  12.545  13.488   2.847
87796SOL    HW165285  12.602  13.485   2.923
87796SOL    HW265286  12.536  13.581   2.827
87797SOL     OW65287   0.685   5.657   2.589
87797SOL    HW165288   0.631   5.579   2.573
87797SOL    HW265289   0.698   5.695   2.502
87798SOL     OW65290   2.301  10.977   1.774
87798SOL    HW165291   2.209  10.984   1.747
87798SOL    HW265292   2.307  11.031   1.853
87799SOL     OW65293   4.281  14.831   0.862
87799SOL    HW165294   4.224  14.871   0.797
87799SOL    HW265295   4.223  14.814   0.936
87800SOL     OW65296   1.272  14.160  10.874
87800SOL    HW165297   1.197  14.202  10.833
87800SOL    HW265298   1.247  14.068  10.884
87801SOL     OW65299  10.650   4.227   8.841
87801SOL    HW165300  10.607   4.249   8.759
87801SOL    HW265301  10.729   4.179   8.814
87802SOL     OW65302  12.077   6.322  12.334
87802SOL    HW165303  12.093   6.230  12.351
87802SOL    HW265304  12.030   6.354  12.411
87803SOL     OW65305  12.443   2.913  11.080
87803SOL    HW165306  12.377   2.853  11.046
87803SOL    HW265307  12.487   2.864  11.149
87804SOL     OW65308  12.564   3.682  12.221
87804SOL    HW165309  12.479   3.670  12.179
87804SOL    HW265310  12.579   3.601  12.269
87805SOL     OW65311  14.760   1.725  11.433
87805SOL    HW165312  14.729   1.691  11.517
87805SOL    HW265313  14.716   1.810  11.424
87806SOL     OW65314   4.408  13.117   0.003
87806SOL    HW165315   4.332  13.107   0.059
87806SOL    HW265316   4.382  13.182  14.825
87807SOL     OW65317  12.917   2.540   0.964
87807SOL    HW165318  12.838   2.546   0.910
87807SOL    HW265319  12.980   2.598   0.921
87808SOL     OW65320   4.947   7.912   3.645
87808SOL    HW165321   5.007   7.986   3.647
87808SOL    HW265322   4.993   7.842   3.690
87809SOL     OW65323   5.297  11.634   2.212
87809SOL    HW165324   5.332  11.559   2.261
87809SOL    HW265325   5.374  11.684   2.187
87810SOL     OW65326   1.320   1.378  13.403
87810SOL    HW165327   1.318   1.311  13.471
87810SOL    HW265328   1.232   1.377  13.365
87811SOL     OW65329   3.493   5.928   2.592
87811SOL    HW165330   3.565   5.933   2.528
87811SOL    HW265331   3.498   6.012   2.638
87812SOL     OW65332   1.508  14.594   3.811
87812SOL    HW165333   1.474  14.659   3.749
87812SOL    HW265334   1.572  14.641   3.863
87813SOL     OW65335   1.632   0.072  12.117
87813SOL    HW165336   1.614  14.868  12.137
87813SOL    HW265337   1.626   0.117  12.202
87814SOL     OW65338   6.822  13.948   1.752
87814SOL    HW165339   6.775  13.872   1.784
87814SOL    HW265340   6.879  13.974   1.824
87815SOL     OW65341   0.463   3.025  13.454
87815SOL    HW165342   0.542   3.018  13.507
87815SOL    HW265343   0.483   2.979  13.373
87816SOL     OW65344   0.620   4.206   8.492
87816SOL    HW165345   0.697   4.217   8.548
87816SOL    HW265346   0.549   4.187   8.553
87817SOL     OW65347   7.480   4.065   0.596
87817SOL    HW165348   7.415   4.135   0.592
87817SOL    HW265349   7.465   4.024   0.682
87818SOL     OW65350  11.209  13.409   0.917
87818SOL    HW165351  11.305  13.410   0.920
87818SOL    HW265352  11.185  13.332   0.970
87819SOL     OW65353  11.066   8.533  13.677
87819SOL    HW165354  11.041   8.539  13.585
87819SOL    HW265355  10.994   8.485  13.718
87820SOL     OW65356  13.650   2.441   6.879
87820SOL    HW165357  13.698   2.434   6.962
87820SOL    HW265358  13.567   2.397   6.896
87821SOL     OW65359   3.287   8.455  10.755
87821SOL    HW165360   3.315   8.513  10.826
87821SOL    HW265361   3.192   8.459  10.756
87822SOL     OW65362   9.845  10.688  12.569
87822SOL    HW165363   9.861  10.659  12.659
87822SOL    HW265364   9.827  10.781  12.577
87823SOL     OW65365  12.115   6.704  12.562
87823SOL    HW165366  12.057   6.758  12.615
87823SOL    HW265367  12.097   6.615  12.591
87824SOL     OW65368  10.886   7.541   9.459
87824SOL    HW165369  10.976   7.569   9.444
87824SOL    HW265370  10.846   7.614   9.505
87825SOL     OW65371   2.955  14.455   1.559
87825SOL    HW165372   3.047  14.479   1.552
87825SOL    HW265373   2.917  14.522   1.616
87826SOL     OW65374   3.753   5.854   2.789
87826SOL    HW165375   3.704   5.936   2.776
87826SOL    HW265376   3.845   5.880   2.785
87827SOL     OW65377   0.525   0.304   8.328
87827SOL    HW165378   0.481   0.328   8.246
87827SOL    HW265379   0.490   0.218   8.350
87828SOL     OW65380   3.509   9.471  11.855
87828SOL    HW165381   3.492   9.387  11.898
87828SOL    HW265382   3.433   9.524  11.876
87829SOL     OW65383   1.249   1.862   8.493
87829SOL    HW165384   1.164   1.850   8.452
87829SOL    HW265385   1.248   1.953   8.524
87830SOL     OW65386   7.363  13.084   8.429
87830SOL    HW165387   7.305  13.036   8.369
87830SOL    HW265388   7.392  13.019   8.492
87831SOL     OW65389   4.214   7.282  13.500
87831SOL    HW165390   4.281   7.321  13.557
87831SOL    HW265391   4.139   7.268  13.558
87832SOL     OW65392  10.319  13.682  13.069
87832SOL    HW165393  10.309  13.773  13.041
87832SOL    HW265394  10.262  13.674  13.146
87833SOL     OW65395   1.304   9.104   2.649
87833SOL    HW165396   1.267   9.160   2.718
87833SOL    HW265397   1.398   9.119   2.654
87834SOL     OW65398  10.376   7.254   5.419
87834SOL    HW165399  10.286   7.239   5.449
87834SOL    HW265400  10.431   7.213   5.485
87835SOL     OW65401   6.972  14.710   6.035
87835SOL    HW165402   6.970  14.737   6.126
87835SOL    HW265403   6.884  14.731   6.002
87836SOL     OW65404   4.784  12.260   1.694
87836SOL    HW165405   4.806  12.352   1.704
87836SOL    HW265406   4.689  12.257   1.701
87837SOL     OW65407   9.063  11.984   4.187
87837SOL    HW165408   9.102  12.071   4.175
87837SOL    HW265409   9.107  11.928   4.123
87838SOL     OW65410   2.027   8.492   9.254
87838SOL    HW165411   1.938   8.526   9.267
87838SOL    HW265412   2.064   8.546   9.184
87839SOL     OW65413   1.693   8.326   0.971
87839SOL    HW165414   1.777   8.352   0.932
87839SOL    HW265415   1.693   8.230   0.964
87840SOL     OW65416  10.407  13.430  14.530
87840SOL    HW165417  10.501  13.417  14.518
87840SOL    HW265418  10.396  13.448  14.623
87841SOL     OW65419   3.285   1.513   1.926
87841SOL    HW165420   3.365   1.560   1.948
87841SOL    HW265421   3.294   1.429   1.971
87842SOL     OW65422   8.521   5.318   9.062
87842SOL    HW165423   8.428   5.316   9.085
87842SOL    HW265424   8.563   5.363   9.136
87843SOL     OW65425  13.733   9.483   6.613
87843SOL    HW165426  13.737   9.399   6.566
87843SOL    HW265427  13.656   9.476   6.669
87844SOL     OW65428  12.674   0.213   4.163
87844SOL    HW165429  12.680   0.288   4.222
87844SOL    HW265430  12.761   0.174   4.165
87845SOL     OW65431   3.014   0.951  11.786
87845SOL    HW165432   3.045   0.980  11.701
87845SOL    HW265433   3.093   0.921  11.832
87846SOL     OW65434  14.441  12.117  14.190
87846SOL    HW165435  14.449  12.071  14.107
87846SOL    HW265436  14.530  12.120  14.225
87847SOL     OW65437  13.278   9.684   8.933
87847SOL    HW165438  13.372   9.672   8.944
87847SOL    HW265439  13.243   9.679   9.022
87848SOL     OW65440   6.196  12.908  14.631
87848SOL    HW165441   6.270  12.951  14.590
87848SOL    HW265442   6.141  12.880  14.558
87849SOL     OW65443   3.668   1.781   0.798
87849SOL    HW165444   3.717   1.725   0.738
87849SOL    HW265445   3.681   1.870   0.764
87850SOL     OW65446  12.916   0.490   9.243
87850SOL    HW165447  12.989   0.429   9.257
87850SOL    HW265448  12.917   0.546   9.321
87851SOL     OW65449   9.704   1.305   0.735
87851SOL    HW165450   9.619   1.277   0.768
87851SOL    HW265451   9.732   1.373   0.796
87852SOL     OW65452   8.202   8.835   2.383
87852SOL    HW165453   8.279   8.892   2.393
87852SOL    HW265454   8.230   8.767   2.322
87853SOL     OW65455  11.455   1.908   7.737
87853SOL    HW165456  11.492   1.820   7.724
87853SOL    HW265457  11.370   1.892   7.779
87854SOL     OW65458  11.316  11.882   0.502
87854SOL    HW165459  11.342  11.816   0.438
87854SOL    HW265460  11.241  11.927   0.462
87855SOL     OW65461   5.497  14.477   1.704
87855SOL    HW165462   5.423  14.536   1.717
87855SOL    HW265463   5.459  14.398   1.667
87856SOL     OW65464  14.825   7.506  10.764
87856SOL    HW165465  14.729   7.509  10.765
87856SOL    HW265466  14.852   7.560  10.839
87857SOL     OW65467   8.631   4.312  10.727
87857SOL    HW165468   8.589   4.296  10.811
87857SOL    HW265469   8.601   4.400  10.702
87858SOL     OW65470  11.937   3.818   0.131
87858SOL    HW165471  11.993   3.805   0.208
87858SOL    HW265472  11.989   3.783   0.059
87859SOL     OW65473  11.002  12.232  11.840
87859SOL    HW165474  10.931  12.202  11.896
87859SOL    HW265475  11.017  12.159  11.779
87860SOL     OW65476   5.341   0.539  13.407
87860SOL    HW165477   5.277   0.552  13.337
87860SOL    HW265478   5.289   0.507  13.481
87861SOL     OW65479  13.955   0.398  13.304
87861SOL    HW165480  13.999   0.482  13.316
87861SOL    HW265481  14.004   0.355  13.234
87862SOL     OW65482  11.425  14.706   0.600
87862SOL    HW165483  11.477  14.689   0.522
87862SOL    HW265484  11.422  14.801   0.608
87863SOL     OW65485   9.800  11.575  10.069
87863SOL    HW165486   9.878  11.613  10.107
87863SOL    HW265487   9.734  11.580  10.138
87864SOL     OW65488   0.912   6.963  13.691
87864SOL    HW165489   0.872   6.950  13.777
87864SOL    HW265490   1.005   6.972  13.709
87865SOL     OW65491   1.441  11.658  13.613
87865SOL    HW165492   1.346  11.668  13.613
87865SOL    HW265493   1.462  11.632  13.523
87866SOL     OW65494   9.866   3.121  14.858
87866SOL    HW165495   9.794   3.067  14.826
87866SOL    HW265496   9.882   3.091   0.060
87867SOL     OW65497  11.883   6.917  13.404
87867SOL    HW165498  11.898   6.991  13.345
87867SOL    HW265499  11.800   6.880  13.374
87868SOL     OW65500   9.683  13.904   6.054
87868SOL    HW165501   9.771  13.895   6.090
87868SOL    HW265502   9.688  13.980   5.996
87869SOL     OW65503  13.860   9.701   3.137
87869SOL    HW165504  13.801   9.626   3.139
87869SOL    HW265505  13.947   9.663   3.149
87870SOL     OW65506   5.764   3.906   9.969
87870SOL    HW165507   5.777   3.858  10.051
87870SOL    HW265508   5.851   3.911   9.930
87871SOL     OW65509  10.680  13.197   8.655
87871SOL    HW165510  10.630  13.123   8.622
87871SOL    HW265511  10.771  13.174   8.642
87872SOL     OW65512  10.885  13.191  13.004
87872SOL    HW165513  10.907  13.278  12.972
87872SOL    HW265514  10.844  13.147  12.930
87873SOL     OW65515  13.309  13.310  11.010
87873SOL    HW165516  13.345  13.349  10.931
87873SOL    HW265517  13.225  13.274  10.983
87874SOL     OW65518  14.761   4.211   9.217
87874SOL    HW165519  14.700   4.270   9.172
87874SOL    HW265520  14.736   4.219   9.309
87875SOL     OW65521   9.579  13.647  10.454
87875SOL    HW165522   9.661  13.691  10.431
87875SOL    HW265523   9.543  13.699  10.526
87876SOL     OW65524   2.793   0.548   3.278
87876SOL    HW165525   2.734   0.623   3.280
87876SOL    HW265526   2.754   0.484   3.337
87877SOL     OW65527  11.554   7.134   3.807
87877SOL    HW165528  11.634   7.082   3.818
87877SOL    HW265529  11.485   7.081   3.846
87878SOL     OW65530  11.172   8.606  13.123
87878SOL    HW165531  11.223   8.581  13.046
87878SOL    HW265532  11.089   8.637  13.087
87879SOL     OW65533   7.001   5.368  12.216
87879SOL    HW165534   6.947   5.342  12.291
87879SOL    HW265535   6.966   5.317  12.143
87880SOL     OW65536   2.743   1.448  14.791
87880SOL    HW165537   2.774   1.482  14.707
87880SOL    HW265538   2.722   1.356  14.774
87881SOL     OW65539   3.088  11.001  14.471
87881SOL    HW165540   3.109  10.959  14.555
87881SOL    HW265541   3.171  11.004  14.424
87882SOL     OW65542   2.538  14.236  12.184
87882SOL    HW165543   2.592  14.200  12.254
87882SOL    HW265544   2.467  14.281  12.229
87883SOL     OW65545   1.503   5.555   5.716
87883SOL    HW165546   1.525   5.590   5.630
87883SOL    HW265547   1.408   5.543   5.715
87884SOL     OW65548   6.717   1.247  14.342
87884SOL    HW165549   6.794   1.293  14.307
87884SOL    HW265550   6.642   1.288  14.298
87885SOL     OW65551   0.639   3.018   4.027
87885SOL    HW165552   0.551   2.992   4.054
87885SOL    HW265553   0.643   3.112   4.046
87886SOL     OW65554   6.330   2.115  14.565
87886SOL    HW165555   6.235   2.130  14.560
87886SOL    HW265556   6.341   2.059  14.641
87887SOL     OW65557   9.164   1.687   4.091
87887SOL    HW165558   9.076   1.661   4.064
87887SOL    HW265559   9.153   1.718   4.181
87888SOL     OW65560  14.689   4.616   8.041
87888SOL    HW165561  14.608   4.612   7.990
87888SOL    HW265562  14.757   4.637   7.976
87889SOL     OW65563  11.868   5.693   9.564
87889SOL    HW165564  11.809   5.668   9.634
87889SOL    HW265565  11.922   5.615   9.549
87890SOL     OW65566  14.375   6.144   1.392
87890SOL    HW165567  14.339   6.204   1.458
87890SOL    HW265568  14.452   6.190   1.358
87891SOL     OW65569   2.814   1.130   7.178
87891SOL    HW165570   2.802   1.044   7.217
87891SOL    HW265571   2.859   1.181   7.245
87892SOL     OW65572   7.787  14.093  11.680
87892SOL    HW165573   7.866  14.102  11.733
87892SOL    HW265574   7.765  14.182  11.655
87893SOL     OW65575   1.007   7.707   7.009
87893SOL    HW165576   1.088   7.703   6.957
87893SOL    HW265577   0.982   7.800   7.005
87894SOL     OW65578   8.909   1.896   0.171
87894SOL    HW165579   8.982   1.944   0.133
87894SOL    HW265580   8.950   1.838   0.235
87895SOL     OW65581  14.584   8.899   4.115
87895SOL    HW165582  14.591   8.993   4.133
87895SOL    HW265583  14.490   8.881   4.117
87896SOL     OW65584   3.937   8.871  13.736
87896SOL    HW165585   3.987   8.909  13.664
87896SOL    HW265586   3.999   8.869  13.810
87897SOL     OW65587   2.551   2.693   0.272
87897SOL    HW165588   2.630   2.745   0.291
87897SOL    HW265589   2.564   2.661   0.183
87898SOL     OW65590  12.338  11.096  14.853
87898SOL    HW165591  12.427  11.072  14.877
87898SOL    HW265592  12.296  11.012  14.831
87899SOL     OW65593   3.621   8.977  12.528
87899SOL    HW165594   3.679   8.901  12.523
87899SOL    HW265595   3.633   9.020  12.443
87900SOL     OW65596   2.628   3.350   3.428
87900SOL    HW165597   2.615   3.281   3.493
87900SOL    HW265598   2.711   3.391   3.452
87901SOL     OW65599   7.860  12.270  12.195
87901SOL    HW165600   7.840  12.183  12.227
87901SOL    HW265601   7.792  12.326  12.233
87902SOL     OW65602  10.864   6.828   2.530
87902SOL    HW165603  10.844   6.737   2.550
87902SOL    HW265604  10.915   6.859   2.605
87903SOL     OW65605   9.444   8.995   5.843
87903SOL    HW165606   9.350   8.996   5.824
87903SOL    HW265607   9.485   9.031   5.764
87904SOL     OW65608   1.232  10.272   5.102
87904SOL    HW165609   1.183  10.230   5.172
87904SOL    HW265610   1.213  10.219   5.024
87905SOL     OW65611  14.160   3.147   4.608
87905SOL    HW165612  14.247   3.186   4.597
87905SOL    HW265613  14.104   3.195   4.546
87906SOL     OW65614   2.987   8.800   7.973
87906SOL    HW165615   3.082   8.811   7.962
87906SOL    HW265616   2.978   8.745   8.050
87907SOL     OW65617   8.279   3.029   7.415
87907SOL    HW165618   8.281   3.087   7.491
87907SOL    HW265619   8.188   3.000   7.410
87908SOL     OW65620   2.957   6.537  12.503
87908SOL    HW165621   2.876   6.548  12.453
87908SOL    HW265622   3.027   6.560  12.441
87909SOL     OW65623  12.865   8.068   1.921
87909SOL    HW165624  12.859   8.157   1.885
87909SOL    HW265625  12.774   8.044   1.938
87910SOL     OW65626   1.559   4.881   4.250
87910SOL    HW165627   1.648   4.851   4.230
87910SOL    HW265628   1.506   4.850   4.177
87911SOL     OW65629   7.533   8.971  11.554
87911SOL    HW165630   7.611   9.026  11.555
87911SOL    HW265631   7.475   9.009  11.620
87912SOL     OW65632   3.014   0.862   9.810
87912SOL    HW165633   3.109   0.873   9.808
87912SOL    HW265634   2.999   0.784   9.863
87913SOL     OW65635   3.731   5.981   9.164
87913SOL    HW165636   3.704   6.053   9.106
87913SOL    HW265637   3.652   5.961   9.215
87914SOL     OW65638   1.224   5.987   7.059
87914SOL    HW165639   1.167   6.030   6.995
87914SOL    HW265640   1.210   5.894   7.045
87915SOL     OW65641   7.929   2.088  10.543
87915SOL    HW165642   8.006   2.110  10.596
87915SOL    HW265643   7.942   2.135  10.461
87916SOL     OW65644   4.097  13.641   0.991
87916SOL    HW165645   4.187  13.674   0.995
87916SOL    HW265646   4.061  13.679   0.911
87917SOL     OW65647   7.341   2.244   5.471
87917SOL    HW165648   7.264   2.243   5.415
87917SOL    HW265649   7.380   2.330   5.457
87918SOL     OW65650   4.117   7.761   7.299
87918SOL    HW165651   4.152   7.770   7.211
87918SOL    HW265652   4.130   7.848   7.339
87919SOL     OW65653   4.030   0.874   0.483
87919SOL    HW165654   4.069   0.961   0.489
87919SOL    HW265655   3.936   0.889   0.497
87920SOL     OW65656  14.344   7.774   4.103
87920SOL    HW165657  14.253   7.796   4.083
87920SOL    HW265658  14.389   7.859   4.106
87921SOL     OW65659   2.091  13.075   2.915
87921SOL    HW165660   2.124  13.052   2.828
87921SOL    HW265661   2.116  13.000   2.970
87922SOL     OW65662   4.429   2.717  14.668
87922SOL    HW165663   4.485   2.741  14.595
87922SOL    HW265664   4.429   2.794  14.725
87923SOL     OW65665  10.462   5.128  11.496
87923SOL    HW165666  10.499   5.042  11.474
87923SOL    HW265667  10.524   5.191  11.460
87924SOL     OW65668   0.662  10.230  13.474
87924SOL    HW165669   0.756  10.242  13.460
87924SOL    HW265670   0.651  10.136  13.490
87925SOL     OW65671   8.891   9.241   2.323
87925SOL    HW165672   8.873   9.217   2.232
87925SOL    HW265673   8.845   9.174   2.375
87926SOL     OW65674  11.217   2.462   3.039
87926SOL    HW165675  11.298   2.513   3.039
87926SOL    HW265676  11.148   2.527   3.055
87927SOL     OW65677   6.004   3.123   3.676
87927SOL    HW165678   5.942   3.192   3.697
87927SOL    HW265679   6.079   3.141   3.733
87928SOL     OW65680   3.437   7.330  10.564
87928SOL    HW165681   3.395   7.280  10.494
87928SOL    HW265682   3.438   7.420  10.532
87929SOL     OW65683   4.112   7.315   7.460
87929SOL    HW165684   4.123   7.408   7.483
87929SOL    HW265685   4.133   7.311   7.367
87930SOL     OW65686  12.508  12.289   7.899
87930SOL    HW165687  12.447  12.256   7.833
87930SOL    HW265688  12.497  12.229   7.973
87931SOL     OW65689  10.990  14.186   5.380
87931SOL    HW165690  11.032  14.267   5.408
87931SOL    HW265691  10.957  14.205   5.292
87932SOL     OW65692   0.082   0.919  10.760
87932SOL    HW165693   0.087   0.980  10.833
87932SOL    HW265694   0.078   0.975  10.682
87933SOL     OW65695   5.386   3.104   5.807
87933SOL    HW165696   5.401   3.169   5.739
87933SOL    HW265697   5.422   3.023   5.771
87934SOL     OW65698  11.882   3.907  11.992
87934SOL    HW165699  11.938   3.837  11.959
87934SOL    HW265700  11.936   3.954  12.055
87935SOL     OW65701  12.565   0.781   9.023
87935SOL    HW165702  12.533   0.700   9.062
87935SOL    HW265703  12.614   0.824   9.094
87936SOL     OW65704  10.778  12.605  11.267
87936SOL    HW165705  10.760  12.511  11.262
87936SOL    HW265706  10.794  12.622  11.359
87937SOL     OW65707   7.418   1.810  12.945
87937SOL    HW165708   7.372   1.742  12.995
87937SOL    HW265709   7.470   1.857  13.010
87938SOL     OW65710  11.837   3.265  12.557
87938SOL    HW165711  11.926   3.291  12.582
87938SOL    HW265712  11.789   3.347  12.547
87939SOL     OW65713   0.374   1.054   6.114
87939SOL    HW165714   0.334   0.989   6.057
87939SOL    HW265715   0.305   1.079   6.175
87940SOL     OW65716   4.029   5.867   1.736
87940SOL    HW165717   4.124   5.863   1.745
87940SOL    HW265718   4.000   5.777   1.753
87941SOL     OW65719   8.515   3.412   8.357
87941SOL    HW165720   8.496   3.433   8.265
87941SOL    HW265721   8.513   3.317   8.361
87942SOL     OW65722   8.613  12.494   1.481
87942SOL    HW165723   8.555  12.442   1.426
87942SOL    HW265724   8.600  12.459   1.569
87943SOL     OW65725   3.155   5.899  12.704
87943SOL    HW165726   3.196   5.876  12.620
87943SOL    HW265727   3.063   5.878  12.692
87944SOL     OW65728   3.462   3.300   3.445
87944SOL    HW165729   3.448   3.347   3.363
87944SOL    HW265730   3.474   3.209   3.418
87945SOL     OW65731   9.602   9.335  10.007
87945SOL    HW165732   9.609   9.248   9.968
87945SOL    HW265733   9.580   9.319  10.099
87946SOL     OW65734   8.009   0.587   5.824
87946SOL    HW165735   8.009   0.611   5.916
87946SOL    HW265736   8.080   0.524   5.816
87947SOL     OW65737   3.615   5.084  12.759
87947SOL    HW165738   3.709   5.095  12.773
87947SOL    HW265739   3.608   5.010  12.700
87948SOL     OW65740   3.570  11.797  10.941
87948SOL    HW165741   3.597  11.851  10.867
87948SOL    HW265742   3.595  11.708  10.915
87949SOL     OW65743  13.206   0.181   7.579
87949SOL    HW165744  13.271   0.147   7.518
87949SOL    HW265745  13.172   0.103   7.624
87950SOL     OW65746   5.181   0.012   4.901
87950SOL    HW165747   5.164   0.106   4.914
87950SOL    HW265748   5.144  14.858   4.979
87951SOL     OW65749   6.120   1.645  11.041
87951SOL    HW165750   6.178   1.574  11.068
87951SOL    HW265751   6.159   1.679  10.961
87952SOL     OW65752   0.911   1.300   7.671
87952SOL    HW165753   0.882   1.213   7.698
87952SOL    HW265754   0.829   1.347   7.654
87953SOL     OW65755   5.567   6.440   8.076
87953SOL    HW165756   5.603   6.420   8.162
87953SOL    HW265757   5.508   6.367   8.057
87954SOL     OW65758   0.396   6.508   6.268
87954SOL    HW165759   0.347   6.541   6.343
87954SOL    HW265760   0.365   6.418   6.256
87955SOL     OW65761   5.915   0.600   2.501
87955SOL    HW165762   5.873   0.617   2.585
87955SOL    HW265763   5.852   0.545   2.454
87956SOL     OW65764   4.566  13.435   1.792
87956SOL    HW165765   4.616  13.364   1.752
87956SOL    HW265766   4.567  13.415   1.886
87957SOL     OW65767   9.361   5.366   6.183
87957SOL    HW165768   9.292   5.432   6.177
87957SOL    HW265769   9.423   5.389   6.113
87958SOL     OW65770  14.673   2.939   9.617
87958SOL    HW165771  14.610   2.871   9.596
87958SOL    HW265772  14.711   2.912   9.701
87959SOL     OW65773  13.196   3.755  11.623
87959SOL    HW165774  13.109   3.774  11.658
87959SOL    HW265775  13.213   3.826  11.561
87960SOL     OW65776  13.633   7.689   2.484
87960SOL    HW165777  13.646   7.602   2.446
87960SOL    HW265778  13.659   7.679   2.575
87961SOL     OW65779  14.234   2.315   9.802
87961SOL    HW165780  14.196   2.278   9.882
87961SOL    HW265781  14.290   2.386   9.833
87962SOL     OW65782   0.650  13.254   0.132
87962SOL    HW165783   0.589  13.326   0.113
87962SOL    HW265784   0.594  13.182   0.159
87963SOL     OW65785   4.064  14.463   9.802
87963SOL    HW165786   4.057  14.410   9.882
87963SOL    HW265787   3.987  14.438   9.751
87964SOL     OW65788   9.723  13.967   8.342
87964SOL    HW165789   9.745  13.975   8.435
87964SOL    HW265790   9.667  13.889   8.337
87965SOL     OW65791   6.564   0.202   3.773
87965SOL    HW165792   6.642   0.162   3.813
87965SOL    HW265793   6.505   0.218   3.847
87966SOL     OW65794   4.454   9.213   1.050
87966SOL    HW165795   4.359   9.221   1.049
87966SOL    HW265796   4.471   9.123   1.077
87967SOL     OW65797   5.645   9.194   9.075
87967SOL    HW165798   5.721   9.222   9.126
87967SOL    HW265799   5.626   9.106   9.106
87968SOL     OW65800   5.003   1.509  10.518
87968SOL    HW165801   5.073   1.522  10.582
87968SOL    HW265802   5.013   1.417  10.491
87969SOL     OW65803   2.309   7.556   1.091
87969SOL    HW165804   2.266   7.488   1.039
87969SOL    HW265805   2.315   7.631   1.032
87970SOL     OW65806  12.626   7.180   5.411
87970SOL    HW165807  12.606   7.090   5.387
87970SOL    HW265808  12.717   7.192   5.384
87971SOL     OW65809   9.197  13.273   0.886
87971SOL    HW165810   9.146  13.198   0.856
87971SOL    HW265811   9.139  13.318   0.947
87972SOL     OW65812   5.149   4.135  13.466
87972SOL    HW165813   5.103   4.056  13.435
87972SOL    HW265814   5.088   4.174  13.529
87973SOL     OW65815   5.736  10.787  11.693
87973SOL    HW165816   5.737  10.882  11.707
87973SOL    HW265817   5.686  10.775  11.612
87974SOL     OW65818   8.153   3.114  11.526
87974SOL    HW165819   8.182   3.119  11.617
87974SOL    HW265820   8.231   3.085  11.478
87975SOL     OW65821  11.424   4.280   2.270
87975SOL    HW165822  11.461   4.354   2.318
87975SOL    HW265823  11.374   4.319   2.199
87976SOL     OW65824  12.771  12.058  13.760
87976SOL    HW165825  12.719  12.060  13.679
87976SOL    HW265826  12.706  12.053  13.830
87977SOL     OW65827  13.615  12.161  14.234
87977SOL    HW165828  13.526  12.180  14.206
87977SOL    HW265829  13.619  12.066  14.239
87978SOL     OW65830   3.968  11.901   7.413
87978SOL    HW165831   4.007  11.865   7.333
87978SOL    HW265832   4.003  11.990   7.419
87979SOL     OW65833   5.779  12.156  13.245
87979SOL    HW165834   5.691  12.122  13.230
87979SOL    HW265835   5.819  12.158  13.158
87980SOL     OW65836   5.340   0.714  12.762
87980SOL    HW165837   5.316   0.659  12.687
87980SOL    HW265838   5.326   0.803  12.732
87981SOL     OW65839  14.552   6.989  11.440
87981SOL    HW165840  14.586   6.900  11.445
87981SOL    HW265841  14.461   6.982  11.467
87982SOL     OW65842  14.783   6.134  13.969
87982SOL    HW165843  14.725   6.210  13.968
87982SOL    HW265844  14.841   6.149  14.043
87983SOL     OW65845   4.666   6.026   3.631
87983SOL    HW165846   4.747   5.983   3.659
87983SOL    HW265847   4.600   5.993   3.692
87984SOL     OW65848   8.371   6.744   4.478
87984SOL    HW165849   8.395   6.762   4.569
87984SOL    HW265850   8.414   6.661   4.458
87985SOL     OW65851   9.992   5.134   0.604
87985SOL    HW165852  10.015   5.100   0.691
87985SOL    HW265853   9.951   5.060   0.560
87986SOL     OW65854   2.204   3.263   3.301
87986SOL    HW165855   2.112   3.234   3.296
87986SOL    HW265856   2.243   3.207   3.368
87987SOL     OW65857   2.239  11.543   0.851
87987SOL    HW165858   2.256  11.636   0.865
87987SOL    HW265859   2.218  11.509   0.938
87988SOL     OW65860  10.302  14.694   6.747
87988SOL    HW165861  10.296  14.653   6.833
87988SOL    HW265862  10.216  14.678   6.707
87989SOL     OW65863   8.769  12.524  13.163
87989SOL    HW165864   8.723  12.556  13.085
87989SOL    HW265865   8.717  12.448  13.190
87990SOL     OW65866   5.141  10.225   6.341
87990SOL    HW165867   5.048  10.205   6.344
87990SOL    HW265868   5.145  10.321   6.338
87991SOL     OW65869   5.655   5.929  12.216
87991SOL    HW165870   5.645   5.900  12.125
87991SOL    HW265871   5.651   5.848  12.268
87992SOL     OW65872   8.264   2.367   5.409
87992SOL    HW165873   8.203   2.425   5.364
87992SOL    HW265874   8.208   2.308   5.460
87993SOL     OW65875   3.655   8.519  10.981
87993SOL    HW165876   3.669   8.462  10.906
87993SOL    HW265877   3.736   8.570  10.987
87994SOL     OW65878   3.040   2.893  13.950
87994SOL    HW165879   2.963   2.854  13.990
87994SOL    HW265880   3.114   2.861  14.003
87995SOL     OW65881  11.102   1.344   3.893
87995SOL    HW165882  11.116   1.256   3.858
87995SOL    HW265883  11.060   1.330   3.978
87996SOL     OW65884  10.542   6.644   1.415
87996SOL    HW165885  10.502   6.707   1.355
87996SOL    HW265886  10.485   6.644   1.492
87997SOL     OW65887  10.170   6.073   8.742
87997SOL    HW165888  10.234   6.034   8.802
87997SOL    HW265889  10.101   6.108   8.800
87998SOL     OW65890  14.165   4.723   5.946
87998SOL    HW165891  14.225   4.691   6.013
87998SOL    HW265892  14.145   4.813   5.972
87999SOL     OW65893   6.295   2.991   2.343
87999SOL    HW165894   6.357   2.961   2.409
87999SOL    HW265895   6.281   3.083   2.363
88000SOL     OW65896  10.568   5.229   6.266
88000SOL    HW165897  10.511   5.306   6.258
88000SOL    HW265898  10.524   5.161   6.216
88001SOL     OW65899  12.067   8.916  13.474
88001SOL    HW165900  12.104   8.871  13.398
88001SOL    HW265901  11.989   8.865  13.496
88002SOL     OW65902  13.614   2.422   4.718
88002SOL    HW165903  13.643   2.501   4.674
88002SOL    HW265904  13.600   2.358   4.648
88003SOL     OW65905   4.288   1.673  13.113
88003SOL    HW165906   4.305   1.763  13.084
88003SOL    HW265907   4.289   1.677  13.208
88004SOL     OW65908   8.073   3.839   7.773
88004SOL    HW165909   8.079   3.924   7.818
88004SOL    HW265910   8.017   3.786   7.830
88005SOL     OW65911   5.194  12.080   7.644
88005SOL    HW165912   5.120  12.022   7.625
88005SOL    HW265913   5.194  12.142   7.571
88006SOL     OW65914   6.855   6.766   4.157
88006SOL    HW165915   6.863   6.734   4.067
88006SOL    HW265916   6.762   6.758   4.176
88007SOL     OW65917   4.488   9.660   7.483
88007SOL    HW165918   4.537   9.740   7.502
88007SOL    HW265919   4.477   9.618   7.568
88008SOL     OW65920   0.083  10.515  11.948
88008SOL    HW165921   0.149  10.522  11.879
88008SOL    HW265922   0.005  10.555  11.910
88009SOL     OW65923   1.922  10.185   3.323
88009SOL    HW165924   1.847  10.234   3.287
88009SOL    HW265925   1.929  10.216   3.413
88010SOL     OW65926   4.851  14.615  14.342
88010SOL    HW165927   4.796  14.636  14.267
88010SOL    HW265928   4.796  14.559  14.397
88011SOL     OW65929   5.780  12.022   7.431
88011SOL    HW165930   5.700  12.066   7.400
88011SOL    HW265931   5.838  12.021   7.355
88012SOL     OW65932   5.880   8.549   0.384
88012SOL    HW165933   5.903   8.599   0.306
88012SOL    HW265934   5.787   8.529   0.374
88013SOL     OW65935  11.495  14.282  14.321
88013SOL    HW165936  11.489  14.190  14.347
88013SOL    HW265937  11.548  14.281  14.242
88014SOL     OW65938  13.282   1.736  10.966
88014SOL    HW165939  13.274   1.655  10.917
88014SOL    HW265940  13.258   1.713  11.055
88015SOL     OW65941  12.392  14.554   2.860
88015SOL    HW165942  12.412  14.572   2.952
88015SOL    HW265943  12.478  14.543   2.818
88016SOL     OW65944   2.593   2.714  12.922
88016SOL    HW165945   2.609   2.717  12.828
88016SOL    HW265946   2.644   2.639  12.953
88017SOL     OW65947   9.710   3.006   2.162
88017SOL    HW165948   9.621   3.006   2.128
88017SOL    HW265949   9.759   2.950   2.102
88018SOL     OW65950  13.006   9.494  11.792
88018SOL    HW165951  12.970   9.530  11.873
88018SOL    HW265952  12.942   9.517  11.725
88019SOL     OW65953  14.837  12.954  12.927
88019SOL    HW165954  14.771  12.977  12.862
88019SOL    HW265955   0.031  12.949  12.878
88020SOL     OW65956  11.890   7.613   8.582
88020SOL    HW165957  11.859   7.697   8.549
88020SOL    HW265958  11.984   7.612   8.562
88021SOL     OW65959   7.854  12.915   0.296
88021SOL    HW165960   7.931  12.956   0.258
88021SOL    HW265961   7.852  12.947   0.387
88022SOL     OW65962   6.582  10.065   9.207
88022SOL    HW165963   6.651  10.071   9.140
88022SOL    HW265964   6.589  10.148   9.255
88023SOL     OW65965   2.058   7.086  11.826
88023SOL    HW165966   2.119   7.018  11.856
88023SOL    HW265967   2.110   7.167  11.827
88024SOL     OW65968   6.661   4.541   4.107
88024SOL    HW165969   6.659   4.570   4.198
88024SOL    HW265970   6.577   4.496   4.095
88025SOL     OW65971   5.175  11.056   4.247
88025SOL    HW165972   5.173  10.964   4.218
88025SOL    HW265973   5.233  11.056   4.322
88026SOL     OW65974  11.304   1.954   8.074
88026SOL    HW165975  11.328   2.044   8.093
88026SOL    HW265976  11.387   1.906   8.073
88027SOL     OW65977   0.236   2.587   0.067
88027SOL    HW165978   0.260   2.559  14.866
88027SOL    HW265979   0.233   2.506   0.117
88028SOL     OW65980  14.557   7.639   7.329
88028SOL    HW165981  14.633   7.582   7.338
88028SOL    HW265982  14.515   7.637   7.415
88029SOL     OW65983   8.225   2.943  13.833
88029SOL    HW165984   8.151   2.888  13.807
88029SOL    HW265985   8.211   2.958  13.926
88030SOL     OW65986   4.230   8.450  12.638
88030SOL    HW165987   4.152   8.506  12.643
88030SOL    HW265988   4.206   8.370  12.685
88031SOL     OW65989   6.179   5.782   2.743
88031SOL    HW165990   6.153   5.834   2.818
88031SOL    HW265991   6.102   5.729   2.722
88032SOL     OW65992  10.087   1.094   0.236
88032SOL    HW165993  10.117   1.029   0.299
88032SOL    HW265994  10.086   1.047   0.152
88033SOL     OW65995  11.960   9.907   2.483
88033SOL    HW165996  11.990   9.882   2.396
88033SOL    HW265997  11.874   9.946   2.468
88034SOL     OW65998   1.423   1.398   6.582
88034SOL    HW165999   1.431   1.433   6.671
88034SOL    HW266000   1.441   1.305   6.591
88035SOL     OW66001   7.168   9.292   0.486
88035SOL    HW166002   7.186   9.377   0.527
88035SOL    HW266003   7.155   9.312   0.393
88036SOL     OW66004   1.062   9.492   9.275
88036SOL    HW166005   1.091   9.401   9.281
88036SOL    HW266006   1.123   9.533   9.214
88037SOL     OW66007   7.986   5.226  12.984
88037SOL    HW166008   8.053   5.179  13.034
88037SOL    HW266009   7.986   5.184  12.898
88038SOL     OW66010  13.984   2.737   5.288
88038SOL    HW166011  14.029   2.765   5.208
88038SOL    HW266012  14.045   2.676   5.329
88039SOL     OW66013   9.947  14.134  12.835
88039SOL    HW166014   9.898  14.164  12.759
88039SOL    HW266015   9.892  14.159  12.910
88040SOL     OW66016   6.438   8.851   5.482
88040SOL    HW166017   6.481   8.831   5.399
88040SOL    HW266018   6.509   8.860   5.545
88041SOL     OW66019  11.724   4.247  10.459
88041SOL    HW166020  11.701   4.216  10.371
88041SOL    HW266021  11.653   4.306  10.483
88042SOL     OW66022   6.893   4.528   2.018
88042SOL    HW166023   6.814   4.576   2.044
88042SOL    HW266024   6.941   4.589   1.963
88043SOL     OW66025   1.763   7.511   8.021
88043SOL    HW166026   1.685   7.465   8.051
88043SOL    HW266027   1.734   7.601   8.008
88044SOL     OW66028   1.671   9.499   1.486
88044SOL    HW166029   1.715   9.437   1.544
88044SOL    HW266030   1.742   9.555   1.453
88045SOL     OW66031   6.892   5.729  13.514
88045SOL    HW166032   6.844   5.785  13.575
88045SOL    HW266033   6.983   5.758  13.521
88046SOL     OW66034  11.605   1.077  13.545
88046SOL    HW166035  11.591   1.019  13.470
88046SOL    HW266036  11.529   1.135  13.545
88047SOL     OW66037   6.800  11.775   4.375
88047SOL    HW166038   6.757  11.690   4.368
88047SOL    HW266039   6.758  11.830   4.308
88048SOL     OW66040  13.836   0.267   4.168
88048SOL    HW166041  13.876   0.231   4.248
88048SOL    HW266042  13.886   0.228   4.097
88049SOL     OW66043  13.019   1.570  10.666
88049SOL    HW166044  13.019   1.578  10.570
88049SOL    HW266045  12.971   1.647  10.696
88050SOL     OW66046  11.849   5.658  10.581
88050SOL    HW166047  11.863   5.649  10.487
88050SOL    HW266048  11.886   5.578  10.619
88051SOL     OW66049   4.638  13.018  13.440
88051SOL    HW166050   4.549  12.987  13.457
88051SOL    HW266051   4.650  13.005  13.346
88052SOL     OW66052  11.081  11.536   6.874
88052SOL    HW166053  11.170  11.545   6.839
88052SOL    HW266054  11.054  11.448   6.848
88053SOL     OW66055   6.623   1.937   4.621
88053SOL    HW166056   6.632   1.955   4.527
88053SOL    HW266057   6.547   1.879   4.627
88054SOL     OW66058   6.257  11.175   2.302
88054SOL    HW166059   6.308  11.118   2.245
88054SOL    HW266060   6.188  11.211   2.245
88055SOL     OW66061   7.941   9.179   2.140
88055SOL    HW166062   7.895   9.199   2.058
88055SOL    HW266063   7.985   9.261   2.163
88056SOL     OW66064   3.687  13.199   2.959
88056SOL    HW166065   3.700  13.241   2.874
88056SOL    HW266066   3.666  13.271   3.018
88057SOL     OW66067  13.783   2.299   9.567
88057SOL    HW166068  13.838   2.371   9.597
88057SOL    HW266069  13.827   2.220   9.599
88058SOL     OW66070  10.840  10.073   3.759
88058SOL    HW166071  10.781  10.114   3.822
88058SOL    HW266072  10.923  10.120   3.770
88059SOL     OW66073   9.679   1.677   8.576
88059SOL    HW166074   9.634   1.594   8.560
88059SOL    HW266075   9.742   1.684   8.504
88060SOL     OW66076   1.081   5.806   2.560
88060SOL    HW166077   1.000   5.839   2.598
88060SOL    HW266078   1.147   5.870   2.585
88061SOL     OW66079  12.005   2.719   1.886
88061SOL    HW166080  11.926   2.674   1.856
88061SOL    HW266081  12.061   2.649   1.919
88062SOL     OW66082   2.987   4.610   0.895
88062SOL    HW166083   3.070   4.563   0.887
88062SOL    HW266084   2.977   4.625   0.989
88063SOL     OW66085   7.589   9.544   0.917
88063SOL    HW166086   7.544   9.566   0.836
88063SOL    HW266087   7.522   9.502   0.971
88064SOL     OW66088   8.200  13.017   6.705
88064SOL    HW166089   8.163  12.973   6.781
88064SOL    HW266090   8.264  12.955   6.670
88065SOL     OW66091  11.880   5.654  14.857
88065SOL    HW166092  11.912   5.695   0.051
88065SOL    HW266093  11.857   5.728  14.801
88066SOL     OW66094   6.626   5.154   3.263
88066SOL    HW166095   6.582   5.069   3.270
88066SOL    HW266096   6.568   5.206   3.207
88067SOL     OW66097   2.050   1.937   5.756
88067SOL    HW166098   2.017   1.900   5.837
88067SOL    HW266099   2.050   1.864   5.694
88068SOL     OW66100   1.784   5.996   6.359
88068SOL    HW166101   1.695   5.985   6.393
88068SOL    HW266102   1.831   6.044   6.427
88069SOL     OW66103   3.787   4.645   8.606
88069SOL    HW166104   3.866   4.626   8.554
88069SOL    HW266105   3.717   4.649   8.541
88070SOL     OW66106   0.402   9.361  12.036
88070SOL    HW166107   0.354   9.409  11.968
88070SOL    HW266108   0.345   9.286  12.056
88071SOL     OW66109   3.205   8.827   3.162
88071SOL    HW166110   3.162   8.776   3.230
88071SOL    HW266111   3.171   8.790   3.080
88072SOL     OW66112   7.705   6.924   7.519
88072SOL    HW166113   7.669   6.951   7.434
88072SOL    HW266114   7.763   6.851   7.499
88073SOL     OW66115   7.896   0.568   4.185
88073SOL    HW166116   7.959   0.544   4.118
88073SOL    HW266117   7.949   0.591   4.262
88074SOL     OW66118   3.407   9.484   5.333
88074SOL    HW166119   3.474   9.540   5.372
88074SOL    HW266120   3.335   9.485   5.396
88075SOL     OW66121   9.047   4.881   8.014
88075SOL    HW166122   9.071   4.878   7.921
88075SOL    HW266123   8.988   4.956   8.020
88076SOL     OW66124  10.468   0.060   9.312
88076SOL    HW166125  10.450  14.873   9.368
88076SOL    HW266126  10.382   0.092   9.285
88077SOL     OW66127  14.211   7.224   7.615
88077SOL    HW166128  14.155   7.230   7.538
88077SOL    HW266129  14.259   7.142   7.603
88078SOL     OW66130   0.460   6.126   5.782
88078SOL    HW166131   0.388   6.169   5.737
88078SOL    HW266132   0.459   6.036   5.749
88079SOL     OW66133  14.340   1.655   4.983
88079SOL    HW166134  14.285   1.619   4.913
88079SOL    HW266135  14.346   1.748   4.963
88080SOL     OW66136   3.737  13.747   4.034
88080SOL    HW166137   3.786  13.669   4.011
88080SOL    HW266138   3.804  13.810   4.062
88081SOL     OW66139   1.300   9.339  12.143
88081SOL    HW166140   1.309   9.423  12.098
88081SOL    HW266141   1.385   9.296  12.131
88082SOL     OW66142   2.638  10.261   9.967
88082SOL    HW166143   2.704  10.197   9.942
88082SOL    HW266144   2.660  10.284  10.057
88083SOL     OW66145   3.695   4.594   4.631
88083SOL    HW166146   3.725   4.657   4.696
88083SOL    HW266147   3.770   4.584   4.572
88084SOL     OW66148  12.578   9.043   9.178
88084SOL    HW166149  12.569   9.110   9.110
88084SOL    HW266150  12.660   9.064   9.223
88085SOL     OW66151   7.681   8.478   9.293
88085SOL    HW166152   7.689   8.491   9.388
88085SOL    HW266153   7.707   8.386   9.280
88086SOL     OW66154  11.693  12.212  10.169
88086SOL    HW166155  11.694  12.306  10.187
88086SOL    HW266156  11.600  12.190  10.162
88087SOL     OW66157   4.004   4.680   9.960
88087SOL    HW166158   4.065   4.650   9.893
88087SOL    HW266159   4.049   4.664  10.043
88088SOL     OW66160  14.386   0.964   0.809
88088SOL    HW166161  14.449   0.967   0.881
88088SOL    HW266162  14.424   0.901   0.747
88089SOL     OW66163   2.398  11.766   9.202
88089SOL    HW166164   2.351  11.769   9.285
88089SOL    HW266165   2.355  11.697   9.152
88090SOL     OW66166   4.139  13.185  14.737
88090SOL    HW166167   4.125  13.092  14.723
88090SOL    HW266168   4.054  13.218  14.767
88091SOL     OW66169   5.605   2.768  13.077
88091SOL    HW166170   5.587   2.767  13.171
88091SOL    HW266171   5.695   2.736  13.070
88092SOL     OW66172  12.090   1.538   2.963
88092SOL    HW166173  12.008   1.578   2.935
88092SOL    HW266174  12.066   1.484   3.038
88093SOL     OW66175  14.849   0.419  14.682
88093SOL    HW166176  14.863   0.492  14.621
88093SOL    HW266177  14.870   0.341  14.632
88094SOL     OW66178   9.635   4.395   8.532
88094SOL    HW166179   9.584   4.423   8.457
88094SOL    HW266180   9.708   4.457   8.536
88095SOL     OW66181   4.615   6.132   8.220
88095SOL    HW166182   4.559   6.170   8.288
88095SOL    HW266183   4.704   6.142   8.254
88096SOL     OW66184   5.069   3.448   9.386
88096SOL    HW166185   5.124   3.472   9.312
88096SOL    HW266186   5.031   3.531   9.416
88097SOL     OW66187  13.511   8.127  11.351
88097SOL    HW166188  13.448   8.096  11.415
88097SOL    HW266189  13.585   8.159  11.403
88098SOL     OW66190  12.758  14.230   9.857
88098SOL    HW166191  12.681  14.245   9.804
88098SOL    HW266192  12.816  14.303   9.838
88099SOL     OW66193   0.268   9.236   9.643
88099SOL    HW166194   0.352   9.268   9.611
88099SOL    HW266195   0.217   9.218   9.563
88100SOL     OW66196   0.905   4.665   6.903
88100SOL    HW166197   0.979   4.674   6.962
88100SOL    HW266198   0.938   4.612   6.831
88101SOL     OW66199  10.349   9.456  12.010
88101SOL    HW166200  10.294   9.440  12.087
88101SOL    HW266201  10.290   9.496  11.946
88102SOL     OW66202  11.938  12.659   9.117
88102SOL    HW166203  11.848  12.666   9.150
88102SOL    HW266204  11.927  12.639   9.024
88103SOL     OW66205  14.679   1.665   4.701
88103SOL    HW166206  14.658   1.742   4.753
88103SOL    HW266207  14.643   1.683   4.614
88104SOL     OW66208  11.228  13.139  14.701
88104SOL    HW166209  11.272  13.087  14.633
88104SOL    HW266210  11.158  13.082  14.734
88105SOL     OW66211  11.647   7.405  13.773
88105SOL    HW166212  11.725   7.349  13.766
88105SOL    HW266213  11.619   7.417  13.682
88106SOL     OW66214   3.882   4.585  11.784
88106SOL    HW166215   3.956   4.594  11.845
88106SOL    HW266216   3.923   4.583  11.698
88107SOL     OW66217   7.599   4.439   5.967
88107SOL    HW166218   7.591   4.430   6.062
88107SOL    HW266219   7.598   4.349   5.934
88108SOL     OW66220  10.497   3.673   5.459
88108SOL    HW166221  10.472   3.584   5.484
88108SOL    HW266222  10.556   3.662   5.385
88109SOL     OW66223   4.177   0.222  13.342
88109SOL    HW166224   4.246   0.242  13.279
88109SOL    HW266225   4.212   0.150  13.395
88110SOL     OW66226  11.955   5.687  11.489
88110SOL    HW166227  11.905   5.728  11.418
88110SOL    HW266228  12.041   5.730  11.486
88111SOL     OW66229   7.503   2.797  11.964
88111SOL    HW166230   7.453   2.878  11.949
88111SOL    HW266231   7.520   2.797  12.059
88112SOL     OW66232   9.865   4.647   8.191
88112SOL    HW166233   9.862   4.680   8.281
88112SOL    HW266234   9.955   4.660   8.164
88113SOL     OW66235   0.996   3.267   2.095
88113SOL    HW166236   1.001   3.253   2.001
88113SOL    HW266237   1.034   3.189   2.134
88114SOL     OW66238   7.549  12.387   0.448
88114SOL    HW166239   7.609  12.314   0.463
88114SOL    HW266240   7.525  12.418   0.535
88115SOL     OW66241  11.676   7.232   6.551
88115SOL    HW166242  11.629   7.230   6.468
88115SOL    HW266243  11.664   7.144   6.587
88116SOL     OW66244   3.251   9.238   5.061
88116SOL    HW166245   3.204   9.256   5.142
88116SOL    HW266246   3.182   9.221   4.997
88117SOL     OW66247   0.169  12.001  10.403
88117SOL    HW166248   0.170  12.085  10.357
88117SOL    HW266249   0.204  12.021  10.490
88118SOL     OW66250  10.606   2.576   5.841
88118SOL    HW166251  10.527   2.622   5.868
88118SOL    HW266252  10.592   2.486   5.870
88119SOL     OW66253   3.689  12.607   1.408
88119SOL    HW166254   3.706  12.614   1.502
88119SOL    HW266255   3.685  12.697   1.378
88120SOL     OW66256  10.134   3.712   8.594
88120SOL    HW166257  10.159   3.802   8.612
88120SOL    HW266258  10.039   3.710   8.604
88121SOL     OW66259   4.485  12.277   3.394
88121SOL    HW166260   4.479  12.349   3.457
88121SOL    HW266261   4.462  12.317   3.309
88122SOL     OW66262  12.593  10.781  11.780
88122SOL    HW166263  12.553  10.707  11.735
88122SOL    HW266264  12.538  10.856  11.757
88123SOL     OW66265   1.354  12.593   7.075
88123SOL    HW166266   1.404  12.614   7.153
88123SOL    HW266267   1.263  12.605   7.100
88124SOL     OW66268   1.583  14.833   7.352
88124SOL    HW166269   1.659  14.884   7.379
88124SOL    HW266270   1.508   0.002   7.373
88125SOL     OW66271   5.643  13.595   1.290
88125SOL    HW166272   5.638  13.501   1.308
88125SOL    HW266273   5.686  13.602   1.205
88126SOL     OW66274  13.252   0.541  12.593
88126SOL    HW166275  13.271   0.562  12.684
88126SOL    HW266276  13.303   0.605  12.543
88127SOL     OW66277   6.374   0.932  10.555
88127SOL    HW166278   6.279   0.936  10.559
88127SOL    HW266279   6.396   0.848  10.597
88128SOL     OW66280  13.867  13.237   3.097
88128SOL    HW166281  13.944  13.273   3.141
88128SOL    HW266282  13.797  13.300   3.116
88129SOL     OW66283   0.629   2.255   0.752
88129SOL    HW166284   0.702   2.194   0.746
88129SOL    HW266285   0.636   2.292   0.840
88130SOL     OW66286   7.922   3.710  13.033
88130SOL    HW166287   7.949   3.665  13.113
88130SOL    HW266288   7.850   3.657  12.999
88131SOL     OW66289   0.305  14.206   3.550
88131SOL    HW166290   0.312  14.301   3.537
88131SOL    HW266291   0.223  14.195   3.599
88132SOL     OW66292   6.847   1.462   5.814
88132SOL    HW166293   6.812   1.405   5.746
88132SOL    HW266294   6.826   1.551   5.784
88133SOL     OW66295   3.955   1.831  10.359
88133SOL    HW166296   3.962   1.762  10.425
88133SOL    HW266297   3.864   1.859  10.364
88134SOL     OW66298   2.089  11.681  11.777
88134SOL    HW166299   2.125  11.660  11.691
88134SOL    HW266300   1.997  11.653  11.772
88135SOL     OW66301   0.282   4.421   2.843
88135SOL    HW166302   0.312   4.453   2.928
88135SOL    HW266303   0.362   4.387   2.801
88136SOL     OW66304  11.462   2.340   0.584
88136SOL    HW166305  11.386   2.283   0.595
88136SOL    HW266306  11.506   2.336   0.669
88137SOL     OW66307  10.163   8.529  10.885
88137SOL    HW166308  10.222   8.520  10.960
88137SOL    HW266309  10.215   8.501  10.810
88138SOL     OW66310   2.165   2.227  11.861
88138SOL    HW166311   2.165   2.143  11.906
88138SOL    HW266312   2.075   2.239  11.832
88139SOL     OW66313   9.328   7.973   3.152
88139SOL    HW166314   9.267   7.903   3.175
88139SOL    HW266315   9.301   8.047   3.207
88140SOL     OW66316  12.642  10.312   5.179
88140SOL    HW166317  12.576  10.381   5.169
88140SOL    HW266318  12.716  10.342   5.127
88141SOL     OW66319   8.825  10.832   8.172
88141SOL    HW166320   8.798  10.742   8.192
88141SOL    HW266321   8.918  10.825   8.150
88142SOL     OW66322  11.951  13.684  14.573
88142SOL    HW166323  11.939  13.726  14.488
88142SOL    HW266324  11.877  13.624  14.581
88143SOL     OW66325   9.469   1.577   0.909
88143SOL    HW166326   9.541   1.529   0.866
88143SOL    HW266327   9.429   1.512   0.966
88144SOL     OW66328   9.159   7.919   5.724
88144SOL    HW166329   9.233   7.979   5.711
88144SOL    HW266330   9.081   7.976   5.720
88145SOL     OW66331   9.231   6.566   6.885
88145SOL    HW166332   9.230   6.513   6.964
88145SOL    HW266333   9.192   6.510   6.818
88146SOL     OW66334   7.965  11.602   9.219
88146SOL    HW166335   8.037  11.631   9.274
88146SOL    HW266336   7.999  11.525   9.172
88147SOL     OW66337  13.932  11.710   4.919
88147SOL    HW166338  13.940  11.643   4.852
88147SOL    HW266339  13.975  11.673   4.996
88148SOL     OW66340  10.157   6.830   5.609
88148SOL    HW166341  10.176   6.802   5.698
88148SOL    HW266342  10.240   6.821   5.563
88149SOL     OW66343  11.874  13.084   7.525
88149SOL    HW166344  11.908  13.129   7.447
88149SOL    HW266345  11.951  13.071   7.580
88150SOL     OW66346  11.410  12.758  10.815
88150SOL    HW166347  11.388  12.689  10.878
88150SOL    HW266348  11.358  12.833  10.843
88151SOL     OW66349   6.029   1.852  11.551
88151SOL    HW166350   6.039   1.881  11.461
88151SOL    HW266351   6.032   1.933  11.603
88152SOL     OW66352   2.423   2.074   5.396
88152SOL    HW166353   2.404   2.042   5.308
88152SOL    HW266354   2.380   2.160   5.400
88153SOL     OW66355   3.091   3.987  14.454
88153SOL    HW166356   3.136   3.950  14.530
88153SOL    HW266357   3.080   4.080  14.477
88154SOL     OW66358   8.026   4.583  10.343
88154SOL    HW166359   8.027   4.495  10.306
88154SOL    HW266360   7.988   4.571  10.430
88155SOL     OW66361   0.534  12.324   1.464
88155SOL    HW166362   0.512  12.378   1.539
88155SOL    HW266363   0.629  12.327   1.458
88156SOL     OW66364   1.855   5.927  11.576
88156SOL    HW166365   1.903   5.965  11.502
88156SOL    HW266366   1.859   5.833  11.561
88157SOL     OW66367  14.821  11.044  13.036
88157SOL    HW166368  14.825  11.111  13.103
88157SOL    HW266369   0.021  11.006  13.034
88158SOL     OW66370   8.026  10.540   7.088
88158SOL    HW166371   7.968  10.466   7.074
88158SOL    HW266372   8.000  10.604   7.022
88159SOL     OW66373   8.940   6.670  12.041
88159SOL    HW166374   8.998   6.675  12.117
88159SOL    HW266375   8.920   6.762  12.021
88160SOL     OW66376   3.714   4.200   4.694
88160SOL    HW166377   3.747   4.266   4.632
88160SOL    HW266378   3.654   4.249   4.751
88161SOL     OW66379  11.549   9.770  11.259
88161SOL    HW166380  11.479   9.835  11.255
88161SOL    HW266381  11.588   9.780  11.345
88162SOL     OW66382  12.091  13.319   7.807
88162SOL    HW166383  12.136  13.396   7.773
88162SOL    HW266384  12.134  13.245   7.765
88163SOL     OW66385  13.375   1.532   5.794
88163SOL    HW166386  13.419   1.559   5.713
88163SOL    HW266387  13.323   1.608   5.819
88164SOL     OW66388   0.113  11.781   8.366
88164SOL    HW166389   0.026  11.793   8.328
88164SOL    HW266390   0.111  11.830   8.447
88165SOL     OW66391   6.323  10.779  10.497
88165SOL    HW166392   6.329  10.722  10.574
88165SOL    HW266393   6.407  10.823  10.492
88166SOL     OW66394  13.142   8.728   2.573
88166SOL    HW166395  13.201   8.683   2.633
88166SOL    HW266396  13.060   8.738   2.623
88167SOL     OW66397   5.191   9.473  12.921
88167SOL    HW166398   5.253   9.401  12.909
88167SOL    HW266399   5.227   9.544  12.869
88168SOL     OW66400   8.441   9.002   9.537
88168SOL    HW166401   8.403   8.992   9.624
88168SOL    HW266402   8.521   9.052   9.552
88169SOL     OW66403   2.604  13.341  14.203
88169SOL    HW166404   2.668  13.319  14.270
88169SOL    HW266405   2.584  13.434  14.218
88170SOL     OW66406  11.659  11.186   8.485
88170SOL    HW166407  11.565  11.181   8.471
88170SOL    HW266408  11.680  11.279   8.472
88171SOL     OW66409   7.244   6.715   4.769
88171SOL    HW166410   7.310   6.731   4.837
88171SOL    HW266411   7.292   6.674   4.698
88172SOL     OW66412   4.943   4.283  13.243
88172SOL    HW166413   4.871   4.294  13.305
88172SOL    HW266414   5.003   4.355  13.263
88173SOL     OW66415  10.934   2.383   0.327
88173SOL    HW166416  10.994   2.454   0.306
88173SOL    HW266417  10.935   2.327   0.249
88174SOL     OW66418   2.999   8.391  14.515
88174SOL    HW166419   2.942   8.359  14.585
88174SOL    HW266420   3.054   8.316  14.494
88175SOL     OW66421   7.439   9.795   0.440
88175SOL    HW166422   7.379   9.767   0.370
88175SOL    HW266423   7.523   9.807   0.396
88176SOL     OW66424  13.534   2.082  10.142
88176SOL    HW166425  13.498   2.003  10.182
88176SOL    HW266426  13.458   2.133  10.115
88177SOL     OW66427   6.619   5.046  11.302
88177SOL    HW166428   6.642   5.009  11.216
88177SOL    HW266429   6.679   5.004  11.363
88178SOL     OW66430   9.485   7.442   8.982
88178SOL    HW166431   9.468   7.399   8.898
88178SOL    HW266432   9.404   7.490   9.001
88179SOL     OW66433  12.172   7.585   4.234
88179SOL    HW166434  12.165   7.664   4.180
88179SOL    HW266435  12.100   7.592   4.297
88180SOL     OW66436   8.603   0.604  10.028
88180SOL    HW166437   8.656   0.529  10.001
88180SOL    HW266438   8.540   0.616   9.958
88181SOL     OW66439   6.726  10.153   5.257
88181SOL    HW166440   6.673  10.178   5.333
88181SOL    HW266441   6.816  10.160   5.287
88182SOL     OW66442  14.288  14.755   8.166
88182SOL    HW166443  14.312  14.833   8.116
88182SOL    HW266444  14.240  14.701   8.104
88183SOL     OW66445   8.793   7.651  11.011
88183SOL    HW166446   8.733   7.701  11.067
88183SOL    HW266447   8.824   7.714  10.947
88184SOL     OW66448   9.084  12.207   6.908
88184SOL    HW166449   9.050  12.243   6.991
88184SOL    HW266450   9.020  12.140   6.883
88185SOL     OW66451   9.056  11.240  12.616
88185SOL    HW166452   9.052  11.175  12.545
88185SOL    HW266453   9.026  11.321  12.575
88186SOL     OW66454   4.795  10.594  12.279
88186SOL    HW166455   4.803  10.499  12.263
88186SOL    HW266456   4.744  10.601  12.359
88187SOL     OW66457  10.415   9.774   2.766
88187SOL    HW166458  10.502   9.784   2.726
88187SOL    HW266459  10.400   9.858   2.810
88188SOL     OW66460   7.349  14.355   6.280
88188SOL    HW166461   7.268  14.400   6.255
88188SOL    HW266462   7.408  14.370   6.206
88189SOL     OW66463   8.992   5.071   7.023
88189SOL    HW166464   8.899   5.050   7.030
88189SOL    HW266465   9.002   5.150   7.075
88190SOL     OW66466  12.749   9.981   4.245
88190SOL    HW166467  12.753  10.050   4.311
88190SOL    HW266468  12.790   9.905   4.287
88191SOL     OW66469  13.117   5.941  10.725
88191SOL    HW166470  13.088   5.934  10.634
88191SOL    HW266471  13.145   6.032  10.734
88192SOL     OW66472   6.923  10.939  11.120
88192SOL    HW166473   6.991  10.887  11.077
88192SOL    HW266474   6.867  10.968  11.048
88193SOL     OW66475  14.125  10.192   1.104
88193SOL    HW166476  14.110  10.216   1.195
88193SOL    HW266477  14.056  10.129   1.084
88194SOL     OW66478  12.291  10.141  11.761
88194SOL    HW166479  12.259  10.074  11.821
88194SOL    HW266480  12.293  10.098  11.676
88195SOL     OW66481   5.628   9.926  11.068
88195SOL    HW166482   5.716   9.896  11.088
88195SOL    HW266483   5.639  10.012  11.029
88196SOL     OW66484   4.594   5.389   1.633
88196SOL    HW166485   4.522   5.346   1.588
88196SOL    HW266486   4.672   5.341   1.605
88197SOL     OW66487  12.078   5.964  12.319
88197SOL    HW166488  12.025   5.918  12.383
88197SOL    HW266489  12.140   6.015  12.370
88198SOL     OW66490   5.960   2.681   7.112
88198SOL    HW166491   5.953   2.773   7.138
88198SOL    HW266492   6.052   2.659   7.125
88199SOL     OW66493  13.724   2.983   2.615
88199SOL    HW166494  13.782   3.057   2.635
88199SOL    HW266495  13.643   3.024   2.583
88200SOL     OW66496   1.761   8.381   4.011
88200SOL    HW166497   1.816   8.379   3.932
88200SOL    HW266498   1.811   8.331   4.075
88201SOL     OW66499   6.170  12.390   1.441
88201SOL    HW166500   6.138  12.475   1.472
88201SOL    HW266501   6.186  12.403   1.347
88202SOL     OW66502   4.312   6.297   9.402
88202SOL    HW166503   4.300   6.229   9.469
88202SOL    HW266504   4.372   6.258   9.339
88203SOL     OW66505   9.658   9.550   6.263
88203SOL    HW166506   9.614   9.522   6.343
88203SOL    HW266507   9.597   9.528   6.193
88204SOL     OW66508  10.146   4.756   9.403
88204SOL    HW166509  10.189   4.760   9.488
88204SOL    HW266510  10.110   4.668   9.398
88205SOL     OW66511  13.176   7.170   7.206
88205SOL    HW166512  13.126   7.133   7.133
88205SOL    HW266513  13.145   7.122   7.283
88206SOL     OW66514  10.896   3.117   9.686
88206SOL    HW166515  10.889   3.150   9.596
88206SOL    HW266516  10.820   3.153   9.731
88207SOL     OW66517   0.953   3.443   5.927
88207SOL    HW166518   0.934   3.513   5.989
88207SOL    HW266519   0.913   3.365   5.966
88208SOL     OW66520   9.740   8.223  10.644
88208SOL    HW166521   9.781   8.137  10.646
88208SOL    HW266522   9.689   8.223  10.563
88209SOL     OW66523  11.667   7.367   4.448
88209SOL    HW166524  11.582   7.344   4.409
88209SOL    HW266525  11.722   7.291   4.430
88210SOL     OW66526   7.803   9.771   0.066
88210SOL    HW166527   7.793   9.701   0.131
88210SOL    HW266528   7.869   9.829   0.104
88211SOL     OW66529   2.056   1.263   9.937
88211SOL    HW166530   2.116   1.267   9.862
88211SOL    HW266531   2.094   1.197   9.994
88212SOL     OW66532  13.800  14.733   4.983
88212SOL    HW166533  13.710  14.739   4.951
88212SOL    HW266534  13.852  14.780   4.918
88213SOL     OW66535  12.749   7.435  11.689
88213SOL    HW166536  12.768   7.529  11.697
88213SOL    HW266537  12.689   7.430  11.614
88214SOL     OW66538  14.576   9.424   5.459
88214SOL    HW166539  14.541   9.428   5.370
88214SOL    HW266540  14.665   9.460   5.451
88215SOL     OW66541   0.013   9.872  12.248
88215SOL    HW166542  14.837   9.908  12.185
88215SOL    HW266543   0.031   9.944  12.308
88216SOL     OW66544   4.150   7.676   8.439
88216SOL    HW166545   4.163   7.767   8.462
88216SOL    HW266546   4.225   7.630   8.476
88217SOL     OW66547   3.063   8.654   6.001
88217SOL    HW166548   3.142   8.706   6.008
88217SOL    HW266549   3.036   8.662   5.909
88218SOL     OW66550   2.850   8.102   6.268
88218SOL    HW166551   2.761   8.129   6.291
88218SOL    HW266552   2.899   8.108   6.350
88219SOL     OW66553   2.478   4.980  12.764
88219SOL    HW166554   2.402   4.945  12.716
88219SOL    HW266555   2.526   5.030  12.699
88220SOL     OW66556   9.590   7.142  13.499
88220SOL    HW166557   9.515   7.118  13.553
88220SOL    HW266558   9.573   7.232  13.472
88221SOL     OW66559   6.579   2.079   4.066
88221SOL    HW166560   6.658   2.069   4.012
88221SOL    HW266561   6.564   2.174   4.068
88222SOL     OW66562   7.670   4.735   3.791
88222SOL    HW166563   7.642   4.645   3.806
88222SOL    HW266564   7.754   4.727   3.747
88223SOL     OW66565   2.613  12.449  11.634
88223SOL    HW166566   2.544  12.415  11.691
88223SOL    HW266567   2.660  12.372  11.603
88224SOL     OW66568   5.191  11.635   6.043
88224SOL    HW166569   5.282  11.660   6.058
88224SOL    HW266570   5.173  11.571   6.112
88225SOL     OW66571  11.352   0.908   1.298
88225SOL    HW166572  11.374   0.997   1.272
88225SOL    HW266573  11.353   0.858   1.217
88226SOL     OW66574  13.060   8.153   3.894
88226SOL    HW166575  12.967   8.156   3.872
88226SOL    HW266576  13.068   8.076   3.950
88227SOL     OW66577  14.416  13.424  12.815
88227SOL    HW166578  14.399  13.516  12.794
88227SOL    HW266579  14.359  13.375  12.756
88228SOL     OW66580  14.015   3.153   6.012
88228SOL    HW166581  14.020   3.157   6.108
88228SOL    HW266582  14.045   3.065   5.990
88229SOL     OW66583   3.831  13.526  13.618
88229SOL    HW166584   3.908  13.581  13.601
88229SOL    HW266585   3.868  13.443  13.649
88230SOL     OW66586  13.219   9.667   9.203
88230SOL    HW166587  13.128   9.663   9.232
88230SOL    HW266588  13.269   9.683   9.283
88231SOL     OW66589   5.211   4.688  10.675
88231SOL    HW166590   5.279   4.634  10.633
88231SOL    HW266591   5.235   4.778  10.652
88232SOL     OW66592   2.617  13.701   1.410
88232SOL    HW166593   2.641  13.793   1.425
88232SOL    HW266594   2.525  13.705   1.383
88233SOL     OW66595  14.469   0.342   4.577
88233SOL    HW166596  14.440   0.333   4.668
88233SOL    HW266597  14.471   0.252   4.543
88234SOL     OW66598   8.100   0.072   4.471
88234SOL    HW166599   8.149   0.118   4.539
88234SOL    HW266600   8.010   0.101   4.482
88235SOL     OW66601  13.931   5.606   2.001
88235SOL    HW166602  13.905   5.515   2.017
88235SOL    HW266603  13.855   5.658   2.028
88236SOL     OW66604  12.475   2.253   1.198
88236SOL    HW166605  12.517   2.273   1.114
88236SOL    HW266606  12.523   2.306   1.262
88237SOL     OW66607   3.203   3.092  10.530
88237SOL    HW166608   3.153   3.063  10.607
88237SOL    HW266609   3.294   3.072  10.553
88238SOL     OW66610  10.050  12.393  13.617
88238SOL    HW166611   9.958  12.419  13.628
88238SOL    HW266612  10.047  12.322  13.553
88239SOL     OW66613   5.775  10.529  13.013
88239SOL    HW166614   5.812  10.578  13.086
88239SOL    HW266615   5.714  10.467  13.053
88240SOL     OW66616   8.740   4.241  12.358
88240SOL    HW166617   8.776   4.163  12.317
88240SOL    HW266618   8.656   4.254  12.315
88241SOL     OW66619   0.684  14.876   3.691
88241SOL    HW166620   0.692  14.785   3.720
88241SOL    HW266621   0.596  14.881   3.653
88242SOL     OW66622  14.185   2.504   4.296
88242SOL    HW166623  14.221   2.592   4.312
88242SOL    HW266624  14.257   2.457   4.254
88243SOL     OW66625  14.019   4.026  10.141
88243SOL    HW166626  14.101   3.979  10.153
88243SOL    HW266627  13.994   4.054  10.229
88244SOL     OW66628   1.108  11.481   9.009
88244SOL    HW166629   1.166  11.414   8.975
88244SOL    HW266630   1.113  11.473   9.104
88245SOL     OW66631  11.455  12.791  11.385
88245SOL    HW166632  11.442  12.745  11.468
88245SOL    HW266633  11.507  12.731  11.332
88246SOL     OW66634   6.986   8.266  14.344
88246SOL    HW166635   6.896   8.268  14.312
88246SOL    HW266636   6.988   8.191  14.404
88247SOL     OW66637   2.380   8.247   6.706
88247SOL    HW166638   2.361   8.189   6.632
88247SOL    HW266639   2.383   8.190   6.782
88248SOL     OW66640   8.961   7.245   3.860
88248SOL    HW166641   8.925   7.183   3.923
88248SOL    HW266642   9.010   7.308   3.914
88249SOL     OW66643   8.003   1.225   7.250
88249SOL    HW166644   8.006   1.213   7.155
88249SOL    HW266645   7.911   1.215   7.272
88250SOL     OW66646   0.965   3.213   1.565
88250SOL    HW166647   0.922   3.133   1.534
88250SOL    HW266648   1.053   3.209   1.527
88251SOL     OW66649  12.497   4.011   5.549
88251SOL    HW166650  12.570   4.063   5.583
88251SOL    HW266651  12.420   4.065   5.563
88252SOL     OW66652   8.045   8.648  14.009
88252SOL    HW166653   8.016   8.597  14.084
88252SOL    HW266654   8.134   8.616  13.991
88253SOL     OW66655  14.282   1.086   4.535
88253SOL    HW166656  14.257   1.043   4.617
88253SOL    HW266657  14.378   1.081   4.534
88254SOL     OW66658  13.532  14.031  13.482
88254SOL    HW166659  13.494  14.118  13.490
88254SOL    HW266660  13.597  14.039  13.412
88255SOL     OW66661   2.756  10.757   1.867
88255SOL    HW166662   2.672  10.712   1.880
88255SOL    HW266663   2.764  10.815   1.943
88256SOL     OW66664   7.733  13.623   9.710
88256SOL    HW166665   7.713  13.573   9.631
88256SOL    HW266666   7.681  13.703   9.701
88257SOL     OW66667  10.700   7.855   8.852
88257SOL    HW166668  10.791   7.828   8.844
88257SOL    HW266669  10.683   7.856   8.947
88258SOL     OW66670   7.291   5.910   5.584
88258SOL    HW166671   7.255   5.969   5.650
88258SOL    HW266672   7.354   5.964   5.535
88259SOL     OW66673  11.880   5.033   3.139
88259SOL    HW166674  11.800   4.992   3.106
88259SOL    HW266675  11.855   5.125   3.152
88260SOL     OW66676   1.353   4.914  13.089
88260SOL    HW166677   1.423   4.972  13.118
88260SOL    HW266678   1.356   4.919  12.994
88261SOL     OW66679  12.784   5.132   1.857
88261SOL    HW166680  12.717   5.098   1.917
88261SOL    HW266681  12.829   5.200   1.907
88262SOL     OW66682  11.387   4.488  11.052
88262SOL    HW166683  11.405   4.523  10.964
88262SOL    HW266684  11.385   4.565  11.108
88263SOL     OW66685   9.975  13.249  13.183
88263SOL    HW166686  10.001  13.178  13.241
88263SOL    HW266687  10.033  13.241  13.107
88264SOL     OW66688   5.184   0.446   7.400
88264SOL    HW166689   5.258   0.451   7.339
88264SOL    HW266690   5.200   0.516   7.463
88265SOL     OW66691  11.462   1.994   5.360
88265SOL    HW166692  11.514   1.924   5.321
88265SOL    HW266693  11.472   2.068   5.300
88266SOL     OW66694  10.378   0.705  10.939
88266SOL    HW166695  10.375   0.660  10.855
88266SOL    HW266696  10.337   0.790  10.923
88267SOL     OW66697   1.258   7.786   8.740
88267SOL    HW166698   1.291   7.835   8.665
88267SOL    HW266699   1.169   7.760   8.715
88268SOL     OW66700   5.710   8.326   3.273
88268SOL    HW166701   5.776   8.370   3.220
88268SOL    HW266702   5.760   8.278   3.339
88269SOL     OW66703   7.118   2.148   7.096
88269SOL    HW166704   7.192   2.208   7.103
88269SOL    HW266705   7.119   2.118   7.005
88270SOL     OW66706  13.534  12.921  10.239
88270SOL    HW166707  13.525  12.837  10.284
88270SOL    HW266708  13.563  12.982  10.308
88271SOL     OW66709   0.144   5.365  14.455
88271SOL    HW166710   0.061   5.412  14.448
88271SOL    HW266711   0.200   5.406  14.389
88272SOL     OW66712  13.334   4.490   8.793
88272SOL    HW166713  13.386   4.570   8.792
88272SOL    HW266714  13.361   4.445   8.873
88273SOL     OW66715   1.673   3.195   4.596
88273SOL    HW166716   1.581   3.214   4.616
88273SOL    HW266717   1.682   3.220   4.503
88274SOL     OW66718   5.302  13.374   6.390
88274SOL    HW166719   5.389  13.376   6.431
88274SOL    HW266720   5.260  13.298   6.430
88275SOL     OW66721   9.305  11.320  12.122
88275SOL    HW166722   9.261  11.394  12.163
88275SOL    HW266723   9.238  11.279  12.067
88276SOL     OW66724  14.583   0.382  11.006
88276SOL    HW166725  14.632   0.422  10.934
88276SOL    HW266726  14.491   0.401  10.985
88277SOL     OW66727   3.391  12.311   8.717
88277SOL    HW166728   3.459  12.273   8.662
88277SOL    HW266729   3.317  12.326   8.658
88278SOL     OW66730   3.494  14.192   8.393
88278SOL    HW166731   3.404  14.223   8.401
88278SOL    HW266732   3.497  14.114   8.448
88279SOL     OW66733   1.233   8.963   1.242
88279SOL    HW166734   1.189   9.020   1.305
88279SOL    HW266735   1.183   8.882   1.243
88280SOL     OW66736  14.511   4.531   3.797
88280SOL    HW166737  14.575   4.603   3.798
88280SOL    HW266738  14.555   4.459   3.842
88281SOL     OW66739  11.995  13.844   3.467
88281SOL    HW166740  11.901  13.861   3.456
88281SOL    HW266741  12.014  13.772   3.406
88282SOL     OW66742   2.905   3.824   1.180
88282SOL    HW166743   2.861   3.881   1.117
88282SOL    HW266744   2.864   3.738   1.168
88283SOL     OW66745   9.281   0.955   4.867
88283SOL    HW166746   9.267   1.049   4.879
88283SOL    HW266747   9.308   0.924   4.954
88284SOL     OW66748   1.038   0.812  11.234
88284SOL    HW166749   1.132   0.829  11.237
88284SOL    HW266750   0.999   0.886  11.281
88285SOL     OW66751  12.001  12.834   6.263
88285SOL    HW166752  12.035  12.821   6.174
88285SOL    HW266753  11.979  12.746   6.293
88286SOL     OW66754  14.040   7.013   7.927
88286SOL    HW166755  13.988   7.024   7.847
88286SOL    HW266756  14.015   7.088   7.982
88287SOL     OW66757   3.912   0.122  14.484
88287SOL    HW166758   3.959   0.144  14.565
88287SOL    HW266759   3.820   0.131  14.507
88288SOL     OW66760   2.730  12.649   3.665
88288SOL    HW166761   2.703  12.613   3.750
88288SOL    HW266762   2.823  12.629   3.659
88289SOL     OW66763   7.200   1.836   5.347
88289SOL    HW166764   7.165   1.752   5.317
88289SOL    HW266765   7.122   1.889   5.365
88290SOL     OW66766   3.909  11.114   9.251
88290SOL    HW166767   3.877  11.064   9.327
88290SOL    HW266768   3.907  11.051   9.179
88291SOL     OW66769  10.413   4.403   8.059
88291SOL    HW166770  10.390   4.467   7.992
88291SOL    HW266771  10.509   4.408   8.064
88292SOL     OW66772   2.314   6.275  11.775
88292SOL    HW166773   2.280   6.328  11.847
88292SOL    HW266774   2.335   6.191  11.815
88293SOL     OW66775  13.197   0.910   9.399
88293SOL    HW166776  13.264   0.971   9.368
88293SOL    HW266777  13.206   0.910   9.494
88294SOL     OW66778   3.939   6.120  13.310
88294SOL    HW166779   3.855   6.163  13.326
88294SOL    HW266780   3.930   6.083  13.223
88295SOL     OW66781  14.302   3.945   0.326
88295SOL    HW166782  14.299   3.922   0.418
88295SOL    HW266783  14.285   4.039   0.324
88296SOL     OW66784  11.657   8.132   4.834
88296SOL    HW166785  11.562   8.134   4.847
88296SOL    HW266786  11.676   8.212   4.784
88297SOL     OW66787   7.057  14.573  13.957
88297SOL    HW166788   7.074  14.631  14.031
88297SOL    HW266789   7.142  14.563  13.914
88298SOL     OW66790  10.427   3.965   7.374
88298SOL    HW166791  10.432   4.059   7.361
88298SOL    HW266792  10.362   3.935   7.310
88299SOL     OW66793   2.356   4.471   4.124
88299SOL    HW166794   2.410   4.418   4.066
88299SOL    HW266795   2.355   4.558   4.082
88300SOL     OW66796  12.542   0.303  12.363
88300SOL    HW166797  12.597   0.374  12.397
88300SOL    HW266798  12.538   0.240  12.434
88301SOL     OW66799  13.006   4.565  13.352
88301SOL    HW166800  13.027   4.472  13.354
88301SOL    HW266801  13.092   4.609  13.354
88302SOL     OW66802   1.339   0.024   0.868
88302SOL    HW166803   1.324  14.868   0.952
88302SOL    HW266804   1.258   0.013   0.819
88303SOL     OW66805   8.771   0.430   2.207
88303SOL    HW166806   8.753   0.505   2.264
88303SOL    HW266807   8.864   0.412   2.220
88304SOL     OW66808   8.379   5.832   5.677
88304SOL    HW166809   8.343   5.789   5.754
88304SOL    HW266810   8.446   5.891   5.711
88305SOL     OW66811   3.824   3.620  10.039
88305SOL    HW166812   3.874   3.701  10.030
88305SOL    HW266813   3.776   3.612   9.956
88306SOL     OW66814  13.766   9.331  13.247
88306SOL    HW166815  13.819   9.360  13.173
88306SOL    HW266816  13.777   9.236  13.249
88307SOL     OW66817  13.790   9.603  10.879
88307SOL    HW166818  13.736   9.551  10.937
88307SOL    HW266819  13.878   9.567  10.890
88308SOL     OW66820  10.829   8.132   4.493
88308SOL    HW166821  10.860   8.221   4.483
88308SOL    HW266822  10.900   8.077   4.459
88309SOL     OW66823   1.997   6.243   0.287
88309SOL    HW166824   2.051   6.267   0.211
88309SOL    HW266825   2.036   6.163   0.320
88310SOL     OW66826  12.009   7.511  11.404
88310SOL    HW166827  12.082   7.526  11.464
88310SOL    HW266828  12.050   7.510  11.317
88311SOL     OW66829  12.561   0.212  10.961
88311SOL    HW166830  12.557   0.126  11.003
88311SOL    HW266831  12.643   0.250  10.992
88312SOL     OW66832   9.705   6.525   3.036
88312SOL    HW166833   9.660   6.567   2.963
88312SOL    HW266834   9.651   6.545   3.113
88313SOL     OW66835   7.172   0.205  12.124
88313SOL    HW166836   7.130   0.249  12.198
88313SOL    HW266837   7.192   0.276  12.063
88314SOL     OW66838   1.928  12.284  10.717
88314SOL    HW166839   1.841  12.270  10.757
88314SOL    HW266840   1.910  12.336  10.639
88315SOL     OW66841  12.844   8.567   8.753
88315SOL    HW166842  12.864   8.493   8.696
88315SOL    HW266843  12.793   8.626   8.698
88316SOL     OW66844   9.994   2.979  12.926
88316SOL    HW166845   9.973   2.902  12.873
88316SOL    HW266846   9.912   3.027  12.931
88317SOL     OW66847  13.123   9.952  12.361
88317SOL    HW166848  13.216   9.932  12.378
88317SOL    HW266849  13.075   9.893  12.419
88318SOL     OW66850   7.598  12.178   1.841
88318SOL    HW166851   7.622  12.194   1.932
88318SOL    HW266852   7.503  12.194   1.838
88319SOL     OW66853   4.585  11.759   0.498
88319SOL    HW166854   4.638  11.679   0.499
88319SOL    HW266855   4.552  11.768   0.587
88320SOL     OW66856  13.788   8.830   9.027
88320SOL    HW166857  13.693   8.842   9.037
88320SOL    HW266858  13.800   8.823   8.932
88321SOL     OW66859   9.435   4.176   3.489
88321SOL    HW166860   9.465   4.267   3.491
88321SOL    HW266861   9.439   4.152   3.396
88322SOL     OW66862   4.017  12.719   1.549
88322SOL    HW166863   4.025  12.627   1.574
88322SOL    HW266864   4.100  12.759   1.575
88323SOL     OW66865  14.517  10.070  10.910
88323SOL    HW166866  14.522  10.127  10.986
88323SOL    HW266867  14.506   9.982  10.947
88324SOL     OW66868   0.528   8.832   6.901
88324SOL    HW166869   0.455   8.884   6.866
88324SOL    HW266870   0.486   8.772   6.963
88325SOL     OW66871   3.298  14.141   0.793
88325SOL    HW166872   3.242  14.066   0.773
88325SOL    HW266873   3.279  14.205   0.725
88326SOL     OW66874   9.210  10.723   5.966
88326SOL    HW166875   9.215  10.786   6.038
88326SOL    HW266876   9.300  10.720   5.931
88327SOL     OW66877   0.333   1.185  14.381
88327SOL    HW166878   0.329   1.250  14.311
88327SOL    HW266879   0.376   1.109  14.342
88328SOL     OW66880   1.453   0.166   1.230
88328SOL    HW166881   1.385   0.114   1.187
88328SOL    HW266882   1.459   0.245   1.177
88329SOL     OW66883  11.543   1.137   0.367
88329SOL    HW166884  11.619   1.104   0.318
88329SOL    HW266885  11.471   1.130   0.305
88330SOL     OW66886  10.452   7.930   4.863
88330SOL    HW166887  10.516   7.889   4.804
88330SOL    HW266888  10.371   7.933   4.812
88331SOL     OW66889   7.980  13.956   9.166
88331SOL    HW166890   7.944  13.896   9.230
88331SOL    HW266891   7.922  14.033   9.170
88332SOL     OW66892   2.115   8.370  13.918
88332SOL    HW166893   2.116   8.378  13.823
88332SOL    HW266894   2.109   8.276  13.934
88333SOL     OW66895   9.459  12.589   2.967
88333SOL    HW166896   9.411  12.549   2.895
88333SOL    HW266897   9.521  12.522   2.995
88334SOL     OW66898   4.987   9.220   4.014
88334SOL    HW166899   5.058   9.196   4.075
88334SOL    HW266900   4.998   9.314   4.001
88335SOL     OW66901   8.214   5.240   3.725
88335SOL    HW166902   8.161   5.306   3.680
88335SOL    HW266903   8.294   5.286   3.749
88336SOL     OW66904   1.788  12.254   6.578
88336SOL    HW166905   1.775  12.250   6.483
88336SOL    HW266906   1.766  12.166   6.609
88337SOL     OW66907   7.188   0.387  10.291
88337SOL    HW166908   7.221   0.328  10.223
88337SOL    HW266909   7.113   0.341  10.327
88338SOL     OW66910   0.652   3.136   8.320
88338SOL    HW166911   0.569   3.179   8.299
88338SOL    HW266912   0.676   3.089   8.241
88339SOL     OW66913   8.417   6.219   6.932
88339SOL    HW166914   8.452   6.146   6.983
88339SOL    HW266915   8.430   6.296   6.988
88340SOL     OW66916   7.519   3.412  14.461
88340SOL    HW166917   7.527   3.500  14.499
88340SOL    HW266918   7.489   3.357  14.534
88341SOL     OW66919  14.228   0.817   4.333
88341SOL    HW166920  14.198   0.773   4.413
88341SOL    HW266921  14.322   0.832   4.348
88342SOL     OW66922   0.623  10.839  13.827
88342SOL    HW166923   0.660  10.919  13.790
88342SOL    HW266924   0.591  10.864  13.913
88343SOL     OW66925  13.689  13.354  10.902
88343SOL    HW166926  13.609  13.369  10.852
88343SOL    HW266927  13.661  13.300  10.976
88344SOL     OW66928   8.710   2.802   5.067
88344SOL    HW166929   8.692   2.836   5.155
88344SOL    HW266930   8.735   2.879   5.016
88345SOL     OW66931   5.851   4.734   6.802
88345SOL    HW166932   5.895   4.718   6.885
88345SOL    HW266933   5.761   4.756   6.825
88346SOL     OW66934   1.040   1.398   3.597
88346SOL    HW166935   1.006   1.310   3.578
88346SOL    HW266936   0.966   1.445   3.634
88347SOL     OW66937   9.656   1.093   6.588
88347SOL    HW166938   9.629   1.145   6.663
88347SOL    HW266939   9.735   1.137   6.555
88348SOL     OW66940   0.814   6.302   2.958
88348SOL    HW166941   0.880   6.360   2.918
88348SOL    HW266942   0.749   6.362   2.995
88349SOL     OW66943   0.299   2.981   7.725
88349SOL    HW166944   0.215   2.935   7.726
88349SOL    HW266945   0.305   3.021   7.812
88350SOL     OW66946  11.184  13.528   0.032
88350SOL    HW166947  11.196  13.433   0.030
88350SOL    HW266948  11.220  13.555   0.116
88351SOL     OW66949   6.388  13.191  14.297
88351SOL    HW166950   6.398  13.235  14.213
88351SOL    HW266951   6.294  13.171  14.303
88352SOL     OW66952   4.412   7.481  11.193
88352SOL    HW166953   4.410   7.404  11.251
88352SOL    HW266954   4.322   7.514  11.194
88353SOL     OW66955  13.573  14.233   1.083
88353SOL    HW166956  13.622  14.307   1.048
88353SOL    HW266957  13.521  14.201   1.009
88354SOL     OW66958  12.650   1.873   8.038
88354SOL    HW166959  12.575   1.928   8.059
88354SOL    HW266960  12.680   1.905   7.953
88355SOL     OW66961   2.929   8.174   6.817
88355SOL    HW166962   3.011   8.183   6.767
88355SOL    HW266963   2.950   8.210   6.903
88356SOL     OW66964  10.500   1.804   6.571
88356SOL    HW166965  10.431   1.853   6.527
88356SOL    HW266966  10.454   1.741   6.626
88357SOL     OW66967   4.379   7.712   7.689
88357SOL    HW166968   4.366   7.748   7.776
88357SOL    HW266969   4.408   7.622   7.703
88358SOL     OW66970   6.348  10.682   6.312
88358SOL    HW166971   6.299  10.678   6.229
88358SOL    HW266972   6.292  10.731   6.371
88359SOL     OW66973  13.849  13.771  11.001
88359SOL    HW166974  13.761  13.740  11.022
88359SOL    HW266975  13.839  13.819  10.919
88360SOL     OW66976   0.616   1.657   1.776
88360SOL    HW166977   0.652   1.626   1.692
88360SOL    HW266978   0.688   1.707   1.815
88361SOL     OW66979   1.536  10.653  13.611
88361SOL    HW166980   1.552  10.735  13.565
88361SOL    HW266981   1.588  10.658  13.690
88362SOL     OW66982  14.301   5.971   1.620
88362SOL    HW166983  14.347   5.987   1.537
88362SOL    HW266984  14.337   6.036   1.680
88363SOL     OW66985   1.285   0.684   5.258
88363SOL    HW166986   1.191   0.696   5.276
88363SOL    HW266987   1.303   0.593   5.283
88364SOL     OW66988   5.449  14.773   9.611
88364SOL    HW166989   5.423  14.685   9.583
88364SOL    HW266990   5.536  14.760   9.650
88365SOL     OW66991   7.030   0.491   5.331
88365SOL    HW166992   6.984   0.492   5.415
88365SOL    HW266993   7.117   0.458   5.352
88366SOL     OW66994  12.804  12.891  12.131
88366SOL    HW166995  12.818  12.810  12.181
88366SOL    HW266996  12.729  12.871  12.075
88367SOL     OW66997   7.426   9.271   8.812
88367SOL    HW166998   7.495   9.222   8.857
88367SOL    HW266999   7.421   9.231   8.725
88368SOL     OW67000   2.429   0.007   2.380
88368SOL    HW167001   2.382   0.051   2.309
88368SOL    HW267002   2.361  14.847   2.427
88369SOL     OW67003   1.548  14.400   7.444
88369SOL    HW167004   1.523  14.455   7.518
88369SOL    HW267005   1.555  14.312   7.481
88370SOL     OW67006  11.903  13.868  13.671
88370SOL    HW167007  11.919  13.791  13.617
88370SOL    HW267008  11.834  13.842  13.732
88371SOL     OW67009  10.758   4.800  10.047
88371SOL    HW167010  10.829   4.770  10.105
88371SOL    HW267011  10.687   4.739  10.063
88372SOL     OW67012   9.546   2.020  12.358
88372SOL    HW167013   9.509   2.074  12.288
88372SOL    HW267014   9.623   1.979  12.319
88373SOL     OW67015   4.320   7.468  11.958
88373SOL    HW167016   4.320   7.537  12.025
88373SOL    HW267017   4.244   7.487  11.904
88374SOL     OW67018   2.098   0.593   5.206
88374SOL    HW167019   2.171   0.641   5.245
88374SOL    HW267020   2.102   0.614   5.112
88375SOL     OW67021   0.195  12.947   5.682
88375SOL    HW167022   0.147  12.970   5.602
88375SOL    HW267023   0.270  13.006   5.682
88376SOL     OW67024   0.830   7.024   8.868
88376SOL    HW167025   0.740   7.042   8.896
88376SOL    HW267026   0.878   7.007   8.949
88377SOL     OW67027  11.259   5.698   4.752
88377SOL    HW167028  11.267   5.738   4.665
88377SOL    HW267029  11.289   5.608   4.740
88378SOL     OW67030  10.215   9.979   5.638
88378SOL    HW167031  10.166  10.052   5.602
88378SOL    HW267032  10.149   9.914   5.661
88379SOL     OW67033  11.071   5.265   4.291
88379SOL    HW167034  10.988   5.273   4.337
88379SOL    HW267035  11.123   5.205   4.345
88380SOL     OW67036  12.717   2.207  11.257
88380SOL    HW167037  12.730   2.296  11.289
88380SOL    HW267038  12.803   2.180  11.225
88381SOL     OW67039  12.552   0.273   0.914
88381SOL    HW167040  12.606   0.292   0.990
88381SOL    HW267041  12.609   0.221   0.856
88382SOL     OW67042  14.117  10.108  11.547
88382SOL    HW167043  14.115  10.192  11.593
88382SOL    HW267044  14.107  10.043  11.616
88383SOL     OW67045   1.660   9.501   8.260
88383SOL    HW167046   1.717   9.516   8.185
88383SOL    HW267047   1.713   9.449   8.321
88384SOL     OW67048   7.131  10.620   4.210
88384SOL    HW167049   7.124  10.693   4.149
88384SOL    HW267050   7.218  10.630   4.249
88385SOL     OW67051   2.980  12.680  11.018
88385SOL    HW167052   2.976  12.690  10.923
88385SOL    HW267053   2.928  12.602  11.036
88386SOL     OW67054   0.696  13.186   1.638
88386SOL    HW167055   0.606  13.157   1.626
88386SOL    HW267056   0.722  13.218   1.551
88387SOL     OW67057   9.921   7.604  10.569
88387SOL    HW167058   9.859   7.562  10.628
88387SOL    HW267059  10.006   7.595  10.613
88388SOL     OW67060  11.985   3.030  10.236
88388SOL    HW167061  11.997   3.117  10.197
88388SOL    HW267062  12.033   2.971  10.178
88389SOL     OW67063  13.872   4.294   3.594
88389SOL    HW167064  13.852   4.230   3.526
88389SOL    HW267065  13.886   4.376   3.546
88390SOL     OW67066  14.085  13.056   7.772
88390SOL    HW167067  14.028  13.131   7.789
88390SOL    HW267068  14.139  13.082   7.698
88391SOL     OW67069  14.724  10.065   8.785
88391SOL    HW167070  14.683  10.038   8.703
88391SOL    HW267071  14.715  10.160   8.785
88392SOL     OW67072  13.000  10.877   1.165
88392SOL    HW167073  13.041  10.793   1.144
88392SOL    HW267074  12.947  10.859   1.243
88393SOL     OW67075   3.928  10.088   0.875
88393SOL    HW167076   3.926  10.054   0.786
88393SOL    HW267077   3.854  10.046   0.919
88394SOL     OW67078   4.910   9.186   7.016
88394SOL    HW167079   5.001   9.213   7.029
88394SOL    HW267080   4.889   9.135   7.093
88395SOL     OW67081   3.537   8.469   5.265
88395SOL    HW167082   3.469   8.516   5.218
88395SOL    HW267083   3.607   8.533   5.278
88396SOL     OW67084   8.155  10.383  13.689
88396SOL    HW167085   8.203  10.465  13.677
88396SOL    HW267086   8.111  10.394  13.774
88397SOL     OW67087   3.037   4.525   1.971
88397SOL    HW167088   3.129   4.509   1.993
88397SOL    HW267089   3.039   4.563   1.884
88398SOL     OW67090   3.371  12.542  10.729
88398SOL    HW167091   3.398  12.582  10.646
88398SOL    HW267092   3.442  12.482  10.751
88399SOL     OW67093   3.425   5.479  10.032
88399SOL    HW167094   3.435   5.391   9.995
88399SOL    HW267095   3.358   5.520   9.978
88400SOL     OW67096  10.064   1.200  14.159
88400SOL    HW167097  10.080   1.112  14.125
88400SOL    HW267098  10.144   1.223  14.206
88401SOL     OW67099   8.264  12.610  14.711
88401SOL    HW167100   8.309  12.693  14.696
88401SOL    HW267101   8.189  12.612  14.651
88402SOL     OW67102   8.017   1.674  10.399
88402SOL    HW167103   7.933   1.720  10.403
88402SOL    HW267104   8.061   1.698  10.480
88403SOL     OW67105  11.867  14.598   0.413
88403SOL    HW167106  11.865  14.647   0.495
88403SOL    HW267107  11.894  14.510   0.438
88404SOL     OW67108   8.536   4.212   9.743
88404SOL    HW167109   8.576   4.154   9.808
88404SOL    HW267110   8.475   4.156   9.695
88405SOL     OW67111   3.929   4.348   8.173
88405SOL    HW167112   3.856   4.386   8.223
88405SOL    HW267113   3.973   4.290   8.235
88406SOL     OW67114   6.301  10.803   3.362
88406SOL    HW167115   6.299  10.858   3.441
88406SOL    HW267116   6.230  10.836   3.308
88407SOL     OW67117   0.160   2.931   2.570
88407SOL    HW167118   0.107   2.875   2.627
88407SOL    HW267119   0.224   2.972   2.628
88408SOL     OW67120  10.320   1.595   1.337
88408SOL    HW167121  10.322   1.501   1.320
88408SOL    HW267122  10.227   1.618   1.331
88409SOL     OW67123   4.504  13.413   2.067
88409SOL    HW167124   4.416  13.449   2.073
88409SOL    HW267125   4.550  13.450   2.143
88410SOL     OW67126   4.783  13.724   8.357
88410SOL    HW167127   4.857  13.763   8.311
88410SOL    HW267128   4.734  13.798   8.392
88411SOL     OW67129  14.025   0.615   6.356
88411SOL    HW167130  14.069   0.700   6.364
88411SOL    HW267131  13.960   0.615   6.426
88412SOL     OW67132  12.175  13.956   9.243
88412SOL    HW167133  12.205  14.022   9.306
88412SOL    HW267134  12.254  13.929   9.197
88413SOL     OW67135   9.110   7.603   4.484
88413SOL    HW167136   9.183   7.663   4.467
88413SOL    HW267137   9.144   7.543   4.550
88414SOL     OW67138   7.362   1.883  12.677
88414SOL    HW167139   7.288   1.944  12.683
88414SOL    HW267140   7.401   1.884  12.764
88415SOL     OW67141   0.610   0.958   6.899
88415SOL    HW167142   0.689   0.909   6.920
88415SOL    HW267143   0.620   0.984   6.807
88416SOL     OW67144   9.215   0.220   0.989
88416SOL    HW167145   9.205   0.136   1.033
88416SOL    HW267146   9.308   0.224   0.966
88417SOL     OW67147   8.764   1.856  14.058
88417SOL    HW167148   8.701   1.918  14.093
88417SOL    HW267149   8.717   1.772  14.057
88418SOL     OW67150  12.653  13.654   4.266
88418SOL    HW167151  12.663  13.562   4.243
88418SOL    HW267152  12.567  13.679   4.230
88419SOL     OW67153   8.954   3.092   9.437
88419SOL    HW167154   8.977   3.182   9.414
88419SOL    HW267155   8.864   3.098   9.469
88420SOL     OW67156   5.349   1.670   0.759
88420SOL    HW167157   5.371   1.762   0.772
88420SOL    HW267158   5.317   1.665   0.669
88421SOL     OW67159  11.513   2.323   6.897
88421SOL    HW167160  11.431   2.352   6.858
88421SOL    HW267161  11.488   2.258   6.962
88422SOL     OW67162  14.350  12.778   1.680
88422SOL    HW167163  14.304  12.833   1.744
88422SOL    HW267164  14.292  12.774   1.605
88423SOL     OW67165   2.137   7.914   5.162
88423SOL    HW167166   2.218   7.899   5.113
88423SOL    HW267167   2.130   7.837   5.219
88424SOL     OW67168   6.194  11.073   8.782
88424SOL    HW167169   6.167  11.038   8.867
88424SOL    HW267170   6.140  11.152   8.771
88425SOL     OW67171  14.758  11.726   0.375
88425SOL    HW167172  14.844  11.717   0.335
88425SOL    HW267173  14.776  11.741   0.468
88426SOL     OW67174  14.441   8.771   9.032
88426SOL    HW167175  14.406   8.689   8.996
88426SOL    HW267176  14.445   8.756   9.126
88427SOL     OW67177   7.663  10.828   0.565
88427SOL    HW167178   7.572  10.801   0.575
88427SOL    HW267179   7.659  10.906   0.509
88428SOL     OW67180  10.917   0.449   6.496
88428SOL    HW167181  10.882   0.530   6.533
88428SOL    HW267182  10.840   0.393   6.483
88429SOL     OW67183  12.562  13.112   4.598
88429SOL    HW167184  12.622  13.173   4.641
88429SOL    HW267185  12.608  13.028   4.599
88430SOL     OW67186   0.395   6.038  11.498
88430SOL    HW167187   0.320   6.094  11.517
88430SOL    HW267188   0.449   6.091  11.439
88431SOL     OW67189   3.896   6.549   1.495
88431SOL    HW167190   3.926   6.639   1.506
88431SOL    HW267191   3.861   6.524   1.580
88432SOL     OW67192   8.130   4.127  11.142
88432SOL    HW167193   8.127   4.209  11.190
88432SOL    HW267194   8.145   4.060  11.209
88433SOL     OW67195  13.555   5.596   9.304
88433SOL    HW167196  13.539   5.601   9.398
88433SOL    HW267197  13.643   5.559   9.297
88434SOL     OW67198   9.874   7.881  12.134
88434SOL    HW167199   9.922   7.939  12.075
88434SOL    HW267200   9.929   7.803  12.141
88435SOL     OW67201   9.302  13.154   5.917
88435SOL    HW167202   9.258  13.069   5.915
88435SOL    HW267203   9.231  13.217   5.906
88436SOL     OW67204   8.337   2.740  10.551
88436SOL    HW167205   8.289   2.662  10.580
88436SOL    HW267206   8.357   2.788  10.631
88437SOL     OW67207  10.026   0.298   9.528
88437SOL    HW167208  10.029   0.211   9.488
88437SOL    HW267209  10.029   0.281   9.622
88438SOL     OW67210   2.184   5.230   7.067
88438SOL    HW167211   2.108   5.280   7.037
88438SOL    HW267212   2.190   5.249   7.160
88439SOL     OW67213  10.180  14.758  12.222
88439SOL    HW167214  10.239  14.829  12.247
88439SOL    HW267215  10.135  14.791  12.144
88440SOL     OW67216  14.400  12.871   4.723
88440SOL    HW167217  14.326  12.874   4.783
88440SOL    HW267218  14.365  12.902   4.640
88441SOL     OW67219   8.836   2.161  14.444
88441SOL    HW167220   8.918   2.194  14.408
88441SOL    HW267221   8.853   2.070  14.466
88442SOL     OW67222   1.063   5.132  10.653
88442SOL    HW167223   0.982   5.089  10.681
88442SOL    HW267224   1.105   5.159  10.734
88443SOL     OW67225   8.491   2.031   4.089
88443SOL    HW167226   8.530   2.119   4.089
88443SOL    HW267227   8.536   1.985   4.160
88444SOL     OW67228  13.974  12.900   1.556
88444SOL    HW167229  13.985  12.995   1.561
88444SOL    HW267230  13.881  12.888   1.537
88445SOL     OW67231  11.085  14.282  11.253
88445SOL    HW167232  11.151  14.215  11.239
88445SOL    HW267233  11.109  14.353  11.193
88446SOL     OW67234   8.912   5.138  10.157
88446SOL    HW167235   8.891   5.128  10.065
88446SOL    HW267236   8.965   5.061  10.179
88447SOL     OW67237  11.920  12.029  12.309
88447SOL    HW167238  11.873  11.967  12.366
88447SOL    HW267239  12.005  12.040  12.351
88448SOL     OW67240  11.096   1.419  12.967
88448SOL    HW167241  11.130   1.340  13.010
88448SOL    HW267242  11.166   1.446  12.907
88449SOL     OW67243   6.865   6.341  12.726
88449SOL    HW167244   6.834   6.324  12.637
88449SOL    HW267245   6.887   6.255  12.761
88450SOL     OW67246   3.725   3.601   3.973
88450SOL    HW167247   3.760   3.667   3.913
88450SOL    HW267248   3.802   3.569   4.021
88451SOL     OW67249  13.554   5.050   3.675
88451SOL    HW167250  13.638   5.028   3.716
88451SOL    HW267251  13.521   5.124   3.726
88452SOL     OW67252   0.925  10.560   2.796
88452SOL    HW167253   0.976  10.505   2.736
88452SOL    HW267254   0.982  10.635   2.813
88453SOL     OW67255   1.136   0.043   5.978
88453SOL    HW167256   1.130   0.131   6.014
88453SOL    HW267257   1.117  14.873   6.053
88454SOL     OW67258   5.382  12.207  14.399
88454SOL    HW167259   5.306  12.238  14.351
88454SOL    HW267260   5.383  12.259  14.480
88455SOL     OW67261  10.222  12.353  12.524
88455SOL    HW167262  10.135  12.321  12.501
88455SOL    HW267263  10.257  12.388  12.442
88456SOL     OW67264   6.410   1.317   4.813
88456SOL    HW167265   6.392   1.411   4.807
88456SOL    HW267266   6.330   1.276   4.779
88457SOL     OW67267   4.920   2.250  12.500
88457SOL    HW167268   4.988   2.248  12.432
88457SOL    HW267269   4.844   2.208  12.460
88458SOL     OW67270   1.387   2.172   7.541
88458SOL    HW167271   1.332   2.249   7.551
88458SOL    HW267272   1.329   2.098   7.562
88459SOL     OW67273   6.965  10.227   4.144
88459SOL    HW167274   6.891  10.277   4.180
88459SOL    HW267275   7.040  10.286   4.152
88460SOL     OW67276  12.143   4.658   3.801
88460SOL    HW167277  12.096   4.707   3.734
88460SOL    HW267278  12.132   4.711   3.881
88461SOL     OW67279   4.635   0.877  12.763
88461SOL    HW167280   4.689   0.937  12.814
88461SOL    HW267281   4.545   0.905  12.780
88462SOL     OW67282  12.762   8.755  14.558
88462SOL    HW167283  12.725   8.843  14.559
88462SOL    HW267284  12.733   8.715  14.640
88463SOL     OW67285   2.413  14.727   1.540
88463SOL    HW167286   2.422  14.750   1.633
88463SOL    HW267287   2.502  14.706   1.512
88464SOL     OW67288   5.159   1.300   7.808
88464SOL    HW167289   5.201   1.367   7.861
88464SOL    HW267290   5.232   1.253   7.767
88465SOL     OW67291   5.305   4.283   8.343
88465SOL    HW167292   5.397   4.279   8.317
88465SOL    HW267293   5.268   4.351   8.287
88466SOL     OW67294   5.591   1.291   4.472
88466SOL    HW167295   5.594   1.338   4.389
88466SOL    HW267296   5.597   1.198   4.447
88467SOL     OW67297  14.207   0.632   2.360
88467SOL    HW167298  14.177   0.683   2.285
88467SOL    HW267299  14.280   0.580   2.326
88468SOL     OW67300   7.816  10.891   7.258
88468SOL    HW167301   7.797  10.830   7.329
88468SOL    HW267302   7.899  10.931   7.283
88469SOL     OW67303   7.312  11.062   3.182
88469SOL    HW167304   7.297  11.148   3.221
88469SOL    HW267305   7.399  11.068   3.142
88470SOL     OW67306   0.649   6.058   1.788
88470SOL    HW167307   0.605   6.021   1.711
88470SOL    HW267308   0.617   6.006   1.861
88471SOL     OW67309   7.801  10.385   8.442
88471SOL    HW167310   7.863  10.416   8.376
88471SOL    HW267311   7.758  10.464   8.474
88472SOL     OW67312   9.951   6.406   9.105
88472SOL    HW167313   9.940   6.501   9.100
88472SOL    HW267314   9.973   6.379   9.016
88473SOL     OW67315  10.764   4.495   4.464
88473SOL    HW167316  10.846   4.519   4.507
88473SOL    HW267317  10.762   4.399   4.468
88474SOL     OW67318   1.365  13.336  10.204
88474SOL    HW167319   1.401  13.363  10.119
88474SOL    HW267320   1.442  13.315  10.257
88475SOL     OW67321  14.034  11.887   3.513
88475SOL    HW167322  14.000  11.954   3.572
88475SOL    HW267323  14.068  11.935   3.438
88476SOL     OW67324  10.980   3.063  10.003
88476SOL    HW167325  11.070   3.032   9.991
88476SOL    HW267326  10.976   3.085  10.096
88477SOL     OW67327   4.796   9.066  11.402
88477SOL    HW167328   4.820   9.101  11.488
88477SOL    HW267329   4.741   8.990  11.421
88478SOL     OW67330   2.427   8.448   8.520
88478SOL    HW167331   2.393   8.452   8.610
88478SOL    HW267332   2.439   8.539   8.495
88479SOL     OW67333   3.484   4.678  12.678
88479SOL    HW167334   3.440   4.693  12.762
88479SOL    HW267335   3.512   4.587  12.681
88480SOL     OW67336  10.457   1.844   0.459
88480SOL    HW167337  10.470   1.760   0.502
88480SOL    HW267338  10.472   1.826   0.366
88481SOL     OW67339   8.687  10.420   6.495
88481SOL    HW167340   8.755  10.353   6.500
88481SOL    HW267341   8.648  10.408   6.409
88482SOL     OW67342   5.304  13.076  12.335
88482SOL    HW167343   5.234  13.011  12.329
88482SOL    HW267344   5.349  13.070  12.251
88483SOL     OW67345  12.971   5.943   9.581
88483SOL    HW167346  12.876   5.937   9.580
88483SOL    HW267347  12.995   5.978   9.495
88484SOL     OW67348   6.932   5.337   4.796
88484SOL    HW167349   6.903   5.272   4.733
88484SOL    HW267350   7.011   5.300   4.836
88485SOL     OW67351   8.440   9.265   1.040
88485SOL    HW167352   8.473   9.202   0.976
88485SOL    HW267353   8.503   9.261   1.112
88486SOL     OW67354  12.405   3.728  14.228
88486SOL    HW167355  12.441   3.724  14.316
88486SOL    HW267356  12.410   3.821  14.204
88487SOL     OW67357   1.769   0.354   2.039
88487SOL    HW167358   1.677   0.326   2.044
88487SOL    HW267359   1.796   0.331   1.950
88488SOL     OW67360  11.220  13.210  11.883
88488SOL    HW167361  11.194  13.282  11.826
88488SOL    HW267362  11.172  13.226  11.965
88489SOL     OW67363  12.801  13.514   2.198
88489SOL    HW167364  12.748  13.479   2.269
88489SOL    HW267365  12.748  13.501   2.120
88490SOL     OW67366   9.906   8.624   1.570
88490SOL    HW167367  10.001   8.617   1.559
88490SOL    HW267368   9.891   8.718   1.580
88491SOL     OW67369  10.056   0.012  12.048
88491SOL    HW167370   9.982  14.872  11.994
88491SOL    HW267371  10.078   0.099  12.016
88492SOL     OW67372   9.835  12.246   2.804
88492SOL    HW167373   9.799  12.334   2.793
88492SOL    HW267374   9.784  12.207   2.875
88493SOL     OW67375   5.032   4.490  10.600
88493SOL    HW167376   5.086   4.418  10.568
88493SOL    HW267377   5.087   4.534  10.665
88494SOL     OW67378   5.341   5.672   1.121
88494SOL    HW167379   5.395   5.736   1.076
88494SOL    HW267380   5.347   5.593   1.067
88495SOL     OW67381   0.908   6.436   6.309
88495SOL    HW167382   0.928   6.356   6.357
88495SOL    HW267383   0.836   6.476   6.358
88496SOL     OW67384   1.798   0.633  10.472
88496SOL    HW167385   1.834   0.545  10.466
88496SOL    HW267386   1.708   0.620  10.503
88497SOL     OW67387   2.379   2.719   0.803
88497SOL    HW167388   2.461   2.679   0.831
88497SOL    HW267389   2.314   2.649   0.810
88498SOL     OW67390   1.304   6.941   6.575
88498SOL    HW167391   1.371   6.885   6.614
88498SOL    HW267392   1.329   6.948   6.483
88499SOL     OW67393   0.068   0.459  11.373
88499SOL    HW167394   0.077   0.552  11.350
88499SOL    HW267395   0.155   0.434  11.405
88500SOL     OW67396   2.768  13.602   8.750
88500SOL    HW167397   2.755  13.518   8.794
88500SOL    HW267398   2.744  13.667   8.816
88501SOL     OW67399  13.115   9.616  12.407
88501SOL    HW167400  13.027   9.653  12.394
88501SOL    HW267401  13.165   9.648  12.332
88502SOL     OW67402   2.242   6.659  12.644
88502SOL    HW167403   2.180   6.673  12.715
88502SOL    HW267404   2.236   6.566  12.625
88503SOL     OW67405  10.617   6.903  13.625
88503SOL    HW167406  10.527   6.876  13.605
88503SOL    HW267407  10.607   6.968  13.695
88504SOL     OW67408  10.687   0.857   4.416
88504SOL    HW167409  10.753   0.856   4.485
88504SOL    HW267410  10.737   0.865   4.335
88505SOL     OW67411   9.059   5.857   9.442
88505SOL    HW167412   9.011   5.875   9.361
88505SOL    HW267413   9.137   5.912   9.438
88506SOL     OW67414  10.137   2.255   2.296
88506SOL    HW167415  10.126   2.346   2.323
88506SOL    HW267416  10.082   2.247   2.218
88507SOL     OW67417  10.733   4.454  11.007
88507SOL    HW167418  10.763   4.497  11.087
88507SOL    HW267419  10.738   4.521  10.940
88508SOL     OW67420   2.386   9.763   4.342
88508SOL    HW167421   2.394   9.688   4.401
88508SOL    HW267422   2.442   9.741   4.267
88509SOL     OW67423   1.393   9.864   5.730
88509SOL    HW167424   1.478   9.903   5.747
88509SOL    HW267425   1.389   9.854   5.635
88510SOL     OW67426  11.469   6.998  10.818
88510SOL    HW167427  11.563   6.984  10.810
88510SOL    HW267428  11.429   6.941  10.753
88511SOL     OW67429   2.705   3.831   9.426
88511SOL    HW167430   2.639   3.901   9.424
88511SOL    HW267431   2.668   3.765   9.484
88512SOL     OW67432   8.340   7.949   7.375
88512SOL    HW167433   8.414   7.985   7.424
88512SOL    HW267434   8.376   7.874   7.329
88513SOL     OW67435   2.063  14.042   7.565
88513SOL    HW167436   2.128  14.030   7.634
88513SOL    HW267437   1.979  14.029   7.608
88514SOL     OW67438   7.471   6.894  13.924
88514SOL    HW167439   7.488   6.819  13.866
88514SOL    HW267440   7.557   6.934  13.937
88515SOL     OW67441   0.563  12.941  11.173
88515SOL    HW167442   0.495  12.935  11.239
88515SOL    HW267443   0.543  12.871  11.111
88516SOL     OW67444  13.312   4.577   9.676
88516SOL    HW167445  13.266   4.494   9.667
88516SOL    HW267446  13.361   4.569   9.757
88517SOL     OW67447   3.763   3.418   4.411
88517SOL    HW167448   3.779   3.328   4.439
88517SOL    HW267449   3.848   3.461   4.420
88518SOL     OW67450  10.754   0.259   2.947
88518SOL    HW167451  10.760   0.319   3.021
88518SOL    HW267452  10.663   0.268   2.916
88519SOL     OW67453  10.805   3.853   4.758
88519SOL    HW167454  10.773   3.938   4.788
88519SOL    HW267455  10.773   3.846   4.668
88520SOL     OW67456  12.746  14.209  12.904
88520SOL    HW167457  12.814  14.255  12.954
88520SOL    HW267458  12.686  14.177  12.971
88521SOL     OW67459   2.723   6.208   9.846
88521SOL    HW167460   2.727   6.198   9.941
88521SOL    HW267461   2.788   6.146   9.812
88522SOL     OW67462   3.668   6.041  14.068
88522SOL    HW167463   3.670   5.946  14.084
88522SOL    HW267464   3.695   6.050  13.976
88523SOL     OW67465   7.662  14.748  12.312
88523SOL    HW167466   7.750  14.751  12.275
88523SOL    HW267467   7.614  14.688  12.255
88524SOL     OW67468   7.956  13.578   2.808
88524SOL    HW167469   7.862  13.568   2.793
88524SOL    HW267470   7.980  13.656   2.757
88525SOL     OW67471   1.248  14.225   2.722
88525SOL    HW167472   1.158  14.255   2.735
88525SOL    HW267473   1.294  14.301   2.687
88526SOL     OW67474   2.276   0.063   9.151
88526SOL    HW167475   2.269  14.858   9.126
88526SOL    HW267476   2.349   0.097   9.098
88527SOL     OW67477   1.148  11.490  12.020
88527SOL    HW167478   1.240  11.478  11.995
88527SOL    HW267479   1.149  11.567  12.077
88528SOL     OW67480   2.633  12.441   4.500
88528SOL    HW167481   2.714  12.432   4.550
88528SOL    HW267482   2.563  12.438   4.566
88529SOL     OW67483   7.860   9.027  13.159
88529SOL    HW167484   7.882   9.101  13.103
88529SOL    HW267485   7.944   8.988  13.182
88530SOL     OW67486   3.666   3.708  11.495
88530SOL    HW167487   3.749   3.702  11.447
88530SOL    HW267488   3.601   3.726  11.428
88531SOL     OW67489  14.557   3.762  13.399
88531SOL    HW167490  14.498   3.834  13.377
88531SOL    HW267491  14.518   3.721  13.476
88532SOL     OW67492   2.583  14.443   2.923
88532SOL    HW167493   2.646  14.384   2.965
88532SOL    HW267494   2.627  14.528   2.922
88533SOL     OW67495   7.785  12.861  10.792
88533SOL    HW167496   7.826  12.822  10.715
88533SOL    HW267497   7.691  12.845  10.779
88534SOL     OW67498   5.179   5.397   9.203
88534SOL    HW167499   5.250   5.387   9.267
88534SOL    HW267500   5.220   5.441   9.129
88535SOL     OW67501   1.781   3.196   0.283
88535SOL    HW167502   1.782   3.179   0.189
88535SOL    HW267503   1.756   3.113   0.323
88536SOL     OW67504   2.027   8.693  10.468
88536SOL    HW167505   2.098   8.639  10.501
88536SOL    HW267506   1.965   8.630  10.430
88537SOL     OW67507   3.435   9.401  13.342
88537SOL    HW167508   3.423   9.459  13.417
88537SOL    HW267509   3.437   9.313  13.380
88538SOL     OW67510   0.720   1.456  10.135
88538SOL    HW167511   0.692   1.371  10.171
88538SOL    HW267512   0.773   1.433  10.058
88539SOL     OW67513   0.724   0.275  10.006
88539SOL    HW167514   0.680   0.338   9.950
88539SOL    HW267515   0.804   0.320  10.035
88540SOL     OW67516   2.463   6.981   4.532
88540SOL    HW167517   2.428   7.047   4.591
88540SOL    HW267518   2.481   7.029   4.451
88541SOL     OW67519   6.242  13.385   0.597
88541SOL    HW167520   6.233  13.293   0.572
88541SOL    HW267521   6.333  13.393   0.625
88542SOL     OW67522  13.416   5.201  10.664
88542SOL    HW167523  13.380   5.143  10.597
88542SOL    HW267524  13.342   5.220  10.722
88543SOL     OW67525   5.121   6.627   3.125
88543SOL    HW167526   5.067   6.699   3.156
88543SOL    HW267527   5.200   6.669   3.090
88544SOL     OW67528  13.142   3.898  12.729
88544SOL    HW167529  13.121   3.807  12.708
88544SOL    HW267530  13.128   3.905  12.824
88545SOL     OW67531  11.254   8.155   9.160
88545SOL    HW167532  11.240   8.240   9.118
88545SOL    HW267533  11.182   8.148   9.223
88546SOL     OW67534  12.654   0.943   2.840
88546SOL    HW167535  12.739   0.965   2.878
88546SOL    HW267536  12.635   0.855   2.873
88547SOL     OW67537   5.674   6.171   2.189
88547SOL    HW167538   5.727   6.189   2.112
88547SOL    HW267539   5.732   6.123   2.248
88548SOL     OW67540   2.385   5.229   8.709
88548SOL    HW167541   2.367   5.177   8.630
88548SOL    HW267542   2.306   5.219   8.762
88549SOL     OW67543  14.804   4.813   1.717
88549SOL    HW167544   0.011   4.794   1.719
88549SOL    HW267545  14.768   4.762   1.789
88550SOL     OW67546   2.459  10.642  10.589
88550SOL    HW167547   2.552  10.631  10.571
88550SOL    HW267548   2.445  10.596  10.672
88551SOL     OW67549   8.246   3.609   6.837
88551SOL    HW167550   8.260   3.516   6.852
88551SOL    HW267551   8.237   3.617   6.742
88552SOL     OW67552   8.428  12.696   4.750
88552SOL    HW167553   8.394  12.608   4.758
88552SOL    HW267554   8.474  12.696   4.666
88553SOL     OW67555   9.455  11.962   3.544
88553SOL    HW167556   9.485  11.968   3.453
88553SOL    HW267557   9.385  11.896   3.542
88554SOL     OW67558   8.675   2.302  13.898
88554SOL    HW167559   8.700   2.351  13.820
88554SOL    HW267560   8.589   2.266  13.877
88555SOL     OW67561   9.979   9.053  12.057
88555SOL    HW167562   9.950   9.083  11.970
88555SOL    HW267563   9.920   9.099  12.118
88556SOL     OW67564  11.042  10.181  12.212
88556SOL    HW167565  11.100  10.245  12.170
88556SOL    HW267566  10.955  10.202  12.179
88557SOL     OW67567   4.954  13.536  12.507
88557SOL    HW167568   4.930  13.497  12.591
88557SOL    HW267569   5.040  13.576  12.522
88558SOL     OW67570   2.614   0.670   0.332
88558SOL    HW167571   2.561   0.731   0.382
88558SOL    HW267572   2.632   0.598   0.393
88559SOL     OW67573  14.885   3.252   0.580
88559SOL    HW167574   0.067   3.313   0.554
88559SOL    HW267575   0.037   3.198   0.648
88560SOL     OW67576  13.556   2.529  10.204
88560SOL    HW167577  13.467   2.516  10.171
88560SOL    HW267578  13.582   2.443  10.238
88561SOL     OW67579   4.052  13.885   2.659
88561SOL    HW167580   4.083  13.955   2.602
88561SOL    HW267581   3.957  13.894   2.659
88562SOL     OW67582   6.726  10.680   3.016
88562SOL    HW167583   6.639  10.704   2.986
88562SOL    HW267584   6.711  10.624   3.092
88563SOL     OW67585  13.039   0.882   2.730
88563SOL    HW167586  13.071   0.970   2.752
88563SOL    HW267587  12.958   0.873   2.779
88564SOL     OW67588   1.301  13.576  12.287
88564SOL    HW167589   1.278  13.637  12.217
88564SOL    HW267590   1.219  13.560  12.333
88565SOL     OW67591  12.246  14.300   0.661
88565SOL    HW167592  12.301  14.370   0.625
88565SOL    HW267593  12.194  14.343   0.729
88566SOL     OW67594  12.963  12.218   9.593
88566SOL    HW167595  12.979  12.133   9.633
88566SOL    HW267596  13.026  12.224   9.521
88567SOL     OW67597   9.278  10.657  12.436
88567SOL    HW167598   9.244  10.636  12.349
88567SOL    HW267599   9.367  10.687  12.420
88568SOL     OW67600   6.105   5.309   0.677
88568SOL    HW167601   6.060   5.226   0.669
88568SOL    HW267602   6.049   5.371   0.630
88569SOL     OW67603   2.090  10.312  13.581
88569SOL    HW167604   2.116  10.319  13.489
88569SOL    HW267605   2.008  10.362  13.586
88570SOL     OW67606   1.364   0.889   7.190
88570SOL    HW167607   1.412   0.971   7.206
88570SOL    HW267608   1.294   0.889   7.255
88571SOL     OW67609   0.080   5.676  14.553
88571SOL    HW167610   0.010   5.613  14.542
88571SOL    HW267611   0.087   5.720  14.468
88572SOL     OW67612   3.367   9.888   5.427
88572SOL    HW167613   3.369   9.975   5.387
88572SOL    HW267614   3.416   9.833   5.366
88573SOL     OW67615   2.634   4.713   1.329
88573SOL    HW167616   2.636   4.722   1.424
88573SOL    HW267617   2.557   4.763   1.302
88574SOL     OW67618  11.700   2.206   6.761
88574SOL    HW167619  11.664   2.141   6.701
88574SOL    HW267620  11.624   2.253   6.794
88575SOL     OW67621   2.003   4.916   8.099
88575SOL    HW167622   1.915   4.877   8.097
88575SOL    HW267623   2.012   4.948   8.189
88576SOL     OW67624  11.874   3.498  14.770
88576SOL    HW167625  11.795   3.483  14.717
88576SOL    HW267626  11.859   3.447  14.850
88577SOL     OW67627  12.319  12.732   6.551
88577SOL    HW167628  12.228  12.759   6.564
88577SOL    HW267629  12.368  12.814   6.548
88578SOL     OW67630  14.449   1.093  12.108
88578SOL    HW167631  14.386   1.035  12.151
88578SOL    HW267632  14.530   1.081  12.158
88579SOL     OW67633   8.715   1.435  13.804
88579SOL    HW167634   8.809   1.426  13.814
88579SOL    HW267635   8.682   1.345  13.800
88580SOL     OW67636   0.739   9.051   9.303
88580SOL    HW167637   0.809   9.099   9.347
88580SOL    HW267638   0.785   8.993   9.242
88581SOL     OW67639   2.341   2.574   8.583
88581SOL    HW167640   2.324   2.659   8.623
88581SOL    HW267641   2.404   2.532   8.641
88582SOL     OW67642   6.474   0.680   3.703
88582SOL    HW167643   6.558   0.727   3.708
88582SOL    HW267644   6.410   0.743   3.735
88583SOL     OW67645  13.847  12.280   8.356
88583SOL    HW167646  13.869  12.209   8.295
88583SOL    HW267647  13.751  12.280   8.360
88584SOL     OW67648   2.465   5.527   1.317
88584SOL    HW167649   2.457   5.524   1.222
88584SOL    HW267650   2.383   5.566   1.347
88585SOL     OW67651  10.640   6.202   8.698
88585SOL    HW167652  10.612   6.250   8.776
88585SOL    HW267653  10.735   6.194   8.708
88586SOL     OW67654   6.082   4.123   5.016
88586SOL    HW167655   6.090   4.192   5.082
88586SOL    HW267656   5.999   4.081   5.035
88587SOL     OW67657   1.748   4.729   2.015
88587SOL    HW167658   1.781   4.653   2.062
88587SOL    HW267659   1.701   4.692   1.940
88588SOL     OW67660   8.501   8.324  10.130
88588SOL    HW167661   8.588   8.286  10.114
88588SOL    HW267662   8.440   8.251  10.119
88589SOL     OW67663   7.111  10.402   6.386
88589SOL    HW167664   7.024  10.427   6.354
88589SOL    HW267665   7.103  10.309   6.407
88590SOL     OW67666  10.610   7.845   1.629
88590SOL    HW167667  10.672   7.870   1.697
88590SOL    HW267668  10.590   7.753   1.648
88591SOL     OW67669  14.308  13.782  14.484
88591SOL    HW167670  14.399  13.808  14.476
88591SOL    HW267671  14.302  13.701  14.433
88592SOL     OW67672  11.785   4.279   9.180
88592SOL    HW167673  11.834   4.304   9.258
88592SOL    HW267674  11.777   4.360   9.129
88593SOL     OW67675  11.809   5.828  14.375
88593SOL    HW167676  11.739   5.893  14.371
88593SOL    HW267677  11.847   5.829  14.287
88594SOL     OW67678   5.002   5.153  14.623
88594SOL    HW167679   5.093   5.164  14.595
88594SOL    HW267680   5.006   5.088  14.693
88595SOL     OW67681   4.506  11.416   0.521
88595SOL    HW167682   4.541  11.328   0.511
88595SOL    HW267683   4.411  11.406   0.519
88596SOL     OW67684   3.714  13.861   3.370
88596SOL    HW167685   3.667  13.859   3.453
88596SOL    HW267686   3.797  13.903   3.391
88597SOL     OW67687  14.033   1.568   3.244
88597SOL    HW167688  14.058   1.581   3.335
88597SOL    HW267689  14.103   1.515   3.207
88598SOL     OW67690   2.967   2.615   3.576
88598SOL    HW167691   3.019   2.569   3.643
88598SOL    HW267692   2.985   2.707   3.591
88599SOL     OW67693  10.405   3.332   0.670
88599SOL    HW167694  10.395   3.425   0.691
88599SOL    HW267695  10.495   3.312   0.697
88600SOL     OW67696  13.669   3.580   5.188
88600SOL    HW167697  13.738   3.647   5.185
88600SOL    HW267698  13.703   3.514   5.248
88601SOL     OW67699   3.478   5.107   1.191
88601SOL    HW167700   3.442   5.100   1.280
88601SOL    HW267701   3.497   5.017   1.165
88602SOL     OW67702   9.800  12.549   3.762
88602SOL    HW167703   9.879  12.593   3.795
88602SOL    HW267704   9.767  12.500   3.837
88603SOL     OW67705  12.223  14.351   2.089
88603SOL    HW167706  12.272  14.306   2.158
88603SOL    HW267707  12.177  14.422   2.135
88604SOL     OW67708   7.771  13.004  12.089
88604SOL    HW167709   7.735  13.006  12.000
88604SOL    HW267710   7.769  13.095  12.118
88605SOL     OW67711   9.168  12.037  11.842
88605SOL    HW167712   9.176  11.953  11.798
88605SOL    HW267713   9.084  12.033  11.887
88606SOL     OW67714  10.239  13.205  13.540
88606SOL    HW167715  10.240  13.184  13.633
88606SOL    HW267716  10.225  13.122  13.496
88607SOL     OW67717   0.996   5.768  10.638
88607SOL    HW167718   0.906   5.763  10.606
88607SOL    HW267719   1.013   5.862  10.646
88608SOL     OW67720  12.843   3.559   5.575
88608SOL    HW167721  12.847   3.639   5.627
88608SOL    HW267722  12.935   3.539   5.555
88609SOL     OW67723   5.789   5.610   9.103
88609SOL    HW167724   5.710   5.647   9.064
88609SOL    HW267725   5.833   5.685   9.144
88610SOL     OW67726   3.775   1.881   6.296
88610SOL    HW167727   3.840   1.939   6.336
88610SOL    HW267728   3.811   1.793   6.309
88611SOL     OW67729   8.466   2.103   1.110
88611SOL    HW167730   8.378   2.071   1.090
88611SOL    HW267731   8.508   2.031   1.156
88612SOL     OW67732   9.244   8.235   2.123
88612SOL    HW167733   9.222   8.288   2.199
88612SOL    HW267734   9.216   8.287   2.047
88613SOL     OW67735   6.271   3.553   6.559
88613SOL    HW167736   6.339   3.618   6.578
88613SOL    HW267737   6.317   3.469   6.567
88614SOL     OW67738   5.955  14.216  11.324
88614SOL    HW167739   5.920  14.262  11.247
88614SOL    HW267740   5.881  14.209  11.384
88615SOL     OW67741   0.443  11.146   8.945
88615SOL    HW167742   0.538  11.148   8.932
88615SOL    HW267743   0.414  11.235   8.929
88616SOL     OW67744   6.618  11.578   0.277
88616SOL    HW167745   6.686  11.645   0.280
88616SOL    HW267746   6.538  11.627   0.253
88617SOL     OW67747   6.300  11.725  11.542
88617SOL    HW167748   6.383  11.691  11.575
88617SOL    HW267749   6.308  11.820  11.549
88618SOL     OW67750   2.383   3.813   9.285
88618SOL    HW167751   2.426   3.742   9.334
88618SOL    HW267752   2.366   3.880   9.351
88619SOL     OW67753   6.169  12.036  12.903
88619SOL    HW167754   6.095  12.010  12.848
88619SOL    HW267755   6.238  11.974  12.883
88620SOL     OW67756   8.713   4.378   5.420
88620SOL    HW167757   8.769   4.410   5.350
88620SOL    HW267758   8.637   4.437   5.418
88621SOL     OW67759   3.689   4.986   9.266
88621SOL    HW167760   3.679   4.936   9.348
88621SOL    HW267761   3.737   4.927   9.208
88622SOL     OW67762  11.062   6.352   8.739
88622SOL    HW167763  10.999   6.281   8.722
88622SOL    HW267764  11.123   6.348   8.666
88623SOL     OW67765   8.131   5.236   9.089
88623SOL    HW167766   8.192   5.299   9.126
88623SOL    HW267767   8.078   5.206   9.162
88624SOL     OW67768  13.408   1.316   3.697
88624SOL    HW167769  13.500   1.336   3.716
88624SOL    HW267770  13.364   1.323   3.781
88625SOL     OW67771   2.952   4.992  10.851
88625SOL    HW167772   3.037   5.035  10.846
88625SOL    HW267773   2.970   4.906  10.888
88626SOL     OW67774   2.834  14.842   1.592
88626SOL    HW167775   2.853  14.790   1.670
88626SOL    HW267776   2.825  14.777   1.522
88627SOL     OW67777  10.626   1.346   1.854
88627SOL    HW167778  10.614   1.365   1.761
88627SOL    HW267779  10.707   1.295   1.858
88628SOL     OW67780  11.530   6.689   4.462
88628SOL    HW167781  11.567   6.656   4.380
88628SOL    HW267782  11.484   6.769   4.437
88629SOL     OW67783  12.640  14.356   8.332
88629SOL    HW167784  12.637  14.308   8.250
88629SOL    HW267785  12.561  14.410   8.332
88630SOL     OW67786  10.015   5.773   7.469
88630SOL    HW167787  10.106   5.764   7.441
88630SOL    HW267788  10.017   5.763   7.564
88631SOL     OW67789   1.003   0.039   9.873
88631SOL    HW167790   0.914   0.020   9.903
88631SOL    HW267791   1.051  14.844   9.885
88632SOL     OW67792   4.663  10.116   2.443
88632SOL    HW167793   4.696  10.204   2.462
88632SOL    HW267794   4.576  10.131   2.406
88633SOL     OW67795  12.622   8.747  10.831
88633SOL    HW167796  12.643   8.806  10.904
88633SOL    HW267797  12.544   8.787  10.791
88634SOL     OW67798  12.035  12.292  13.961
88634SOL    HW167799  11.980  12.236  14.016
88634SOL    HW267800  12.120  12.250  13.961
88635SOL     OW67801   2.789   7.436  13.338
88635SOL    HW167802   2.838   7.421  13.257
88635SOL    HW267803   2.698   7.417  13.315
88636SOL     OW67804   4.543   5.056   7.989
88636SOL    HW167805   4.472   5.056   7.926
88636SOL    HW267806   4.595   5.134   7.968
88637SOL     OW67807  14.120   1.482   5.975
88637SOL    HW167808  14.145   1.424   6.047
88637SOL    HW267809  14.130   1.570   6.011
88638SOL     OW67810   5.062   2.332   8.893
88638SOL    HW167811   4.988   2.273   8.907
88638SOL    HW267812   5.114   2.288   8.825
88639SOL     OW67813   3.403   9.829   8.315
88639SOL    HW167814   3.313   9.861   8.319
88639SOL    HW267815   3.401   9.747   8.363
88640SOL     OW67816   8.323   4.708   1.387
88640SOL    HW167817   8.342   4.698   1.293
88640SOL    HW267818   8.273   4.630   1.410
88641SOL     OW67819   4.471   8.097   7.735
88641SOL    HW167820   4.417   8.133   7.806
88641SOL    HW267821   4.533   8.039   7.779
88642SOL     OW67822   4.807   3.601   9.510
88642SOL    HW167823   4.789   3.669   9.575
88642SOL    HW267824   4.795   3.519   9.558
88643SOL     OW67825  13.305   9.123   1.986
88643SOL    HW167826  13.365   9.065   1.939
88643SOL    HW267827  13.246   9.064   2.032
88644SOL     OW67828  12.633  11.314   3.708
88644SOL    HW167829  12.555  11.340   3.660
88644SOL    HW267830  12.666  11.238   3.661
88645SOL     OW67831  11.129  14.527   5.145
88645SOL    HW167832  11.079  14.604   5.170
88645SOL    HW267833  11.143  14.536   5.051
88646SOL     OW67834   7.875   2.007  14.333
88646SOL    HW167835   7.920   1.938  14.284
88646SOL    HW267836   7.803   1.962  14.377
88647SOL     OW67837  11.727  11.443   4.681
88647SOL    HW167838  11.814  11.427   4.643
88647SOL    HW267839  11.679  11.362   4.664
88648SOL     OW67840  12.673   0.425   4.990
88648SOL    HW167841  12.725   0.347   5.007
88648SOL    HW267842  12.595   0.415   5.044
88649SOL     OW67843  13.581  13.230   6.787
88649SOL    HW167844  13.596  13.317   6.824
88649SOL    HW267845  13.669  13.193   6.777
88650SOL     OW67846   4.736   0.633  11.643
88650SOL    HW167847   4.781   0.630  11.558
88650SOL    HW267848   4.691   0.549  11.649
88651SOL     OW67849   6.049  10.314  12.308
88651SOL    HW167850   5.962  10.353  12.314
88651SOL    HW267851   6.102  10.362  12.371
88652SOL     OW67852   2.168   3.412   9.461
88652SOL    HW167853   2.175   3.364   9.378
88652SOL    HW267854   2.080   3.391   9.492
88653SOL     OW67855  12.186   5.383   6.517
88653SOL    HW167856  12.092   5.387   6.498
88653SOL    HW267857  12.224   5.454   6.466
88654SOL     OW67858   1.590   5.937  10.126
88654SOL    HW167859   1.632   5.911  10.043
88654SOL    HW267860   1.637   6.017  10.152
88655SOL     OW67861   8.005   7.033  12.488
88655SOL    HW167862   8.036   6.952  12.529
88655SOL    HW267863   8.079   7.093  12.492
88656SOL     OW67864  14.714  11.607  11.962
88656SOL    HW167865  14.619  11.598  11.962
88656SOL    HW267866  14.729  11.697  11.934
88657SOL     OW67867   0.412   1.967   8.181
88657SOL    HW167868   0.478   2.028   8.214
88657SOL    HW267869   0.335   2.021   8.167
88658SOL     OW67870  14.003   5.824   2.309
88658SOL    HW167871  14.083   5.811   2.360
88658SOL    HW267872  14.025   5.895   2.248
88659SOL     OW67873   7.238   0.491   9.886
88659SOL    HW167874   7.272   0.579   9.904
88659SOL    HW267875   7.155   0.487   9.933
88660SOL     OW67876  13.576   2.863  14.150
88660SOL    HW167877  13.505   2.927  14.141
88660SOL    HW267878  13.532   2.778  14.151
88661SOL     OW67879   5.591  14.196   0.212
88661SOL    HW167880   5.552  14.110   0.228
88661SOL    HW267881   5.624  14.191   0.122
88662SOL     OW67882   0.465   9.831  11.239
88662SOL    HW167883   0.537   9.799  11.293
88662SOL    HW267884   0.485   9.797  11.151
88663SOL     OW67885  10.240   9.847   1.037
88663SOL    HW167886  10.180   9.791   0.988
88663SOL    HW267887  10.190   9.927   1.053
88664SOL     OW67888   9.241  13.103   3.124
88664SOL    HW167889   9.264  13.103   3.032
88664SOL    HW267890   9.294  13.034   3.163
88665SOL     OW67891   4.954   5.992   6.046
88665SOL    HW167892   4.894   5.991   5.972
88665SOL    HW267893   4.899   6.015   6.121
88666SOL     OW67894   5.179   6.617   7.143
88666SOL    HW167895   5.236   6.558   7.192
88666SOL    HW267896   5.238   6.681   7.104
88667SOL     OW67897   3.766   8.386  11.400
88667SOL    HW167898   3.717   8.408  11.321
88667SOL    HW267899   3.842   8.444  11.398
88668SOL     OW67900   2.948   5.566   5.248
88668SOL    HW167901   3.016   5.554   5.181
88668SOL    HW267902   2.958   5.489   5.305
88669SOL     OW67903   5.465   3.833   5.369
88669SOL    HW167904   5.538   3.802   5.423
88669SOL    HW267905   5.442   3.918   5.407
88670SOL     OW67906   5.294   8.944   3.979
88670SOL    HW167907   5.331   9.024   3.941
88670SOL    HW267908   5.313   8.952   4.073
88671SOL     OW67909   8.366   8.687   8.851
88671SOL    HW167910   8.421   8.733   8.788
88671SOL    HW267911   8.427   8.632   8.900
88672SOL     OW67912  11.726   2.081  14.499
88672SOL    HW167913  11.784   2.156  14.513
88672SOL    HW267914  11.778   2.021  14.445
88673SOL     OW67915   3.957   5.278   5.688
88673SOL    HW167916   3.971   5.366   5.652
88673SOL    HW267917   3.931   5.293   5.778
88674SOL     OW67918   4.091   8.824   6.772
88674SOL    HW167919   4.133   8.905   6.801
88674SOL    HW267920   4.091   8.830   6.677
88675SOL     OW67921  12.562  12.248   4.867
88675SOL    HW167922  12.480  12.199   4.855
88675SOL    HW267923  12.630  12.182   4.857
88676SOL     OW67924  14.751  14.142   0.446
88676SOL    HW167925  14.841  14.144   0.479
88676SOL    HW267926  14.705  14.206   0.500
88677SOL     OW67927   1.161   3.717   6.831
88677SOL    HW167928   1.133   3.625   6.832
88677SOL    HW267929   1.201   3.731   6.917
88678SOL     OW67930  13.388   3.630   5.065
88678SOL    HW167931  13.473   3.619   5.108
88678SOL    HW267932  13.402   3.697   4.999
88679SOL     OW67933   9.282   2.592   2.833
88679SOL    HW167934   9.318   2.512   2.794
88679SOL    HW267935   9.347   2.659   2.814
88680SOL     OW67936  11.503  10.136   5.572
88680SOL    HW167937  11.408  10.131   5.561
88680SOL    HW267938  11.535  10.049   5.550
88681SOL     OW67939   2.115   4.187   1.205
88681SOL    HW167940   2.070   4.244   1.267
88681SOL    HW267941   2.081   4.100   1.223
88682SOL     OW67942  12.173   4.556   6.472
88682SOL    HW167943  12.254   4.578   6.518
88682SOL    HW267944  12.119   4.635   6.478
88683SOL     OW67945  12.118  14.527   6.031
88683SOL    HW167946  12.037  14.574   6.046
88683SOL    HW267947  12.116  14.505   5.938
88684SOL     OW67948   4.719   5.375   5.325
88684SOL    HW167949   4.650   5.309   5.331
88684SOL    HW267950   4.784   5.335   5.267
88685SOL     OW67951   7.418   1.962   2.033
88685SOL    HW167952   7.446   1.974   1.942
88685SOL    HW267953   7.325   1.941   2.027
88686SOL     OW67954   3.691  13.235  13.168
88686SOL    HW167955   3.704  13.283  13.249
88686SOL    HW267956   3.643  13.156  13.193
88687SOL     OW67957   0.948   5.123   6.103
88687SOL    HW167958   0.922   5.214   6.090
88687SOL    HW267959   1.021   5.111   6.041
88688SOL     OW67960  11.635   1.799  11.615
88688SOL    HW167961  11.583   1.839  11.545
88688SOL    HW267962  11.574   1.787  11.687
88689SOL     OW67963   9.802   5.244   2.597
88689SOL    HW167964   9.796   5.262   2.504
88689SOL    HW267965   9.759   5.318   2.640
88690SOL     OW67966   2.650  10.294  12.276
88690SOL    HW167967   2.632  10.217  12.221
88690SOL    HW267968   2.681  10.361  12.215
88691SOL     OW67969   8.706   5.861  13.404
88691SOL    HW167970   8.671   5.894  13.321
88691SOL    HW267971   8.667   5.774  13.414
88692SOL     OW67972   8.354   3.659  11.372
88692SOL    HW167973   8.381   3.706  11.293
88692SOL    HW267974   8.268   3.624  11.352
88693SOL     OW67975   0.887  12.010  11.390
88693SOL    HW167976   0.919  11.966  11.469
88693SOL    HW267977   0.931  11.966  11.318
88694SOL     OW67978   6.767   5.780   5.535
88694SOL    HW167979   6.849   5.765   5.486
88694SOL    HW267980   6.788   5.853   5.594
88695SOL     OW67981   2.710   4.544  13.800
88695SOL    HW167982   2.796   4.582  13.818
88695SOL    HW267983   2.651   4.619  13.795
88696SOL     OW67984  13.212   7.942   1.030
88696SOL    HW167985  13.166   7.876   1.082
88696SOL    HW267986  13.150   8.014   1.023
88697SOL     OW67987   2.025  12.775   6.746
88697SOL    HW167988   2.052  12.852   6.695
88697SOL    HW267989   2.022  12.704   6.683
88698SOL     OW67990  12.859   8.515   1.790
88698SOL    HW167991  12.897   8.429   1.778
88698SOL    HW267992  12.923   8.576   1.753
88699SOL     OW67993   1.494   6.300   9.373
88699SOL    HW167994   1.548   6.304   9.295
88699SOL    HW267995   1.514   6.214   9.412
88700SOL     OW67996   9.195   6.618   2.196
88700SOL    HW167997   9.104   6.617   2.226
88700SOL    HW267998   9.195   6.564   2.117
88701SOL     OW67999   4.720   8.338   1.417
88701SOL    HW168000   4.694   8.333   1.509
88701SOL    HW268001   4.735   8.431   1.400
88702SOL     OW68002   4.276   7.957   0.916
88702SOL    HW168003   4.346   7.999   0.965
88702SOL    HW268004   4.296   7.864   0.920
88703SOL     OW68005  12.391   3.830   2.693
88703SOL    HW168006  12.355   3.789   2.772
88703SOL    HW268007  12.314   3.859   2.645
88704SOL     OW68008  13.423   6.541   3.028
88704SOL    HW168009  13.383   6.620   2.994
88704SOL    HW268010  13.444   6.562   3.119
88705SOL     OW68011  14.597  14.737   1.502
88705SOL    HW168012  14.623  14.829   1.502
88705SOL    HW268013  14.579  14.717   1.594
88706SOL     OW68014   7.823   9.968   2.117
88706SOL    HW168015   7.904  10.015   2.138
88706SOL    HW268016   7.753  10.024   2.151
88707SOL     OW68017   0.324  12.415   5.403
88707SOL    HW168018   0.330  12.486   5.467
88707SOL    HW268019   0.239  12.374   5.421
88708SOL     OW68020  11.908   8.801   7.940
88708SOL    HW168021  11.907   8.895   7.960
88708SOL    HW268022  11.873   8.796   7.851
88709SOL     OW68023   1.406  10.691  12.457
88709SOL    HW168024   1.353  10.612  12.447
88709SOL    HW268025   1.444  10.684  12.545
88710SOL     OW68026   6.715   5.876  13.261
88710SOL    HW168027   6.674   5.895  13.346
88710SOL    HW268028   6.776   5.805  13.278
88711SOL     OW68029   2.159  12.243   7.229
88711SOL    HW168030   2.163  12.289   7.145
88711SOL    HW268031   2.248  12.252   7.265
88712SOL     OW68032   8.199   2.880   8.817
88712SOL    HW168033   8.243   2.802   8.782
88712SOL    HW268034   8.268   2.946   8.822
88713SOL     OW68035   8.867  11.593  12.117
88713SOL    HW168036   8.788  11.595  12.063
88713SOL    HW268037   8.887  11.500  12.128
88714SOL     OW68038   7.135   2.930  11.425
88714SOL    HW168039   7.214   2.982  11.437
88714SOL    HW268040   7.163   2.858  11.368
88715SOL     OW68041   2.627  14.456   5.960
88715SOL    HW168042   2.634  14.429   5.868
88715SOL    HW268043   2.695  14.405   6.004
88716SOL     OW68044   8.605   7.836  11.499
88716SOL    HW168045   8.511   7.838  11.482
88716SOL    HW268046   8.643   7.794  11.421
88717SOL     OW68047   1.287   8.496   1.517
88717SOL    HW168048   1.353   8.564   1.531
88717SOL    HW268049   1.328   8.436   1.456
88718SOL     OW68050  12.011   4.148  12.610
88718SOL    HW168051  11.960   4.099  12.546
88718SOL    HW268052  12.091   4.172  12.564
88719SOL     OW68053   4.127   1.200  11.405
88719SOL    HW168054   4.187   1.126  11.405
88719SOL    HW268055   4.045   1.166  11.439
88720SOL     OW68056  14.656   0.704   6.950
88720SOL    HW168057  14.714   0.630   6.933
88720SOL    HW268058  14.577   0.684   6.899
88721SOL     OW68059   3.137   1.026   0.564
88721SOL    HW168060   3.147   1.015   0.658
88721SOL    HW268061   3.146   0.937   0.529
88722SOL     OW68062   3.139   2.558   5.204
88722SOL    HW168063   3.192   2.525   5.131
88722SOL    HW268064   3.089   2.481   5.232
88723SOL     OW68065   8.060  14.795   4.204
88723SOL    HW168066   8.001  14.854   4.251
88723SOL    HW268067   8.121  14.764   4.271
88724SOL     OW68068   5.905   0.778   3.295
88724SOL    HW168069   5.990   0.769   3.338
88724SOL    HW268070   5.903   0.868   3.264
88725SOL     OW68071   9.933  14.344  11.310
88725SOL    HW168072   9.995  14.333  11.383
88725SOL    HW268073   9.872  14.412  11.341
88726SOL     OW68074   3.754  11.344   1.657
88726SOL    HW168075   3.765  11.423   1.709
88726SOL    HW268076   3.799  11.275   1.706
88727SOL     OW68077  14.851   0.208  11.494
88727SOL    HW168078   0.023   0.276  11.461
88727SOL    HW268079   0.011   0.126  11.481
88728SOL     OW68080   8.412  14.592   4.578
88728SOL    HW168081   8.351  14.661   4.550
88728SOL    HW268082   8.373  14.512   4.543
88729SOL     OW68083   0.325   5.458   0.661
88729SOL    HW168084   0.258   5.493   0.603
88729SOL    HW268085   0.311   5.363   0.660
88730SOL     OW68086   6.514  13.894  14.390
88730SOL    HW168087   6.495  13.829  14.323
88730SOL    HW268088   6.592  13.861  14.435
88731SOL     OW68089   0.523   7.317  10.747
88731SOL    HW168090   0.521   7.319  10.652
88731SOL    HW268091   0.572   7.395  10.772
88732SOL     OW68092   2.488  10.899   0.514
88732SOL    HW168093   2.539  10.890   0.594
88732SOL    HW268094   2.547  10.871   0.444
88733SOL     OW68095   1.683   9.947  12.200
88733SOL    HW168096   1.683   9.972  12.292
88733SOL    HW268097   1.741  10.009  12.158
88734SOL     OW68098   4.855   1.387   4.315
88734SOL    HW168099   4.877   1.471   4.276
88734SOL    HW268100   4.783   1.408   4.376
88735SOL     OW68101   6.712  13.030  13.476
88735SOL    HW168102   6.753  13.047  13.560
88735SOL    HW268103   6.740  12.942  13.452
88736SOL     OW68104   7.837   3.808   4.713
88736SOL    HW168105   7.893   3.731   4.711
88736SOL    HW268106   7.858   3.851   4.796
88737SOL     OW68107   6.956   7.063   6.247
88737SOL    HW168108   6.877   7.037   6.199
88737SOL    HW268109   7.015   7.097   6.180
88738SOL     OW68110   3.411  14.562   6.863
88738SOL    HW168111   3.349  14.489   6.865
88738SOL    HW268112   3.364  14.632   6.818
88739SOL     OW68113   9.334   7.001  13.306
88739SOL    HW168114   9.245   6.968  13.319
88739SOL    HW268115   9.332   7.091  13.340
88740SOL     OW68116   2.465   2.395   0.795
88740SOL    HW168117   2.430   2.409   0.883
88740SOL    HW268118   2.460   2.301   0.782
88741SOL     OW68119  10.825   2.803   7.327
88741SOL    HW168120  10.838   2.797   7.232
88741SOL    HW268121  10.809   2.713   7.355
88742SOL     OW68122   6.683  12.773   1.102
88742SOL    HW168123   6.679  12.801   1.193
88742SOL    HW268124   6.755  12.710   1.099
88743SOL     OW68125  14.784   1.350  10.916
88743SOL    HW168126  14.856   1.333  10.855
88743SOL    HW268127  14.818   1.417  10.975
88744SOL     OW68128   0.121   7.999   2.990
88744SOL    HW168129   0.174   8.041   2.922
88744SOL    HW268130   0.115   8.065   3.059
88745SOL     OW68131   5.441   4.515  10.200
88745SOL    HW168132   5.426   4.578  10.129
88745SOL    HW268133   5.532   4.489  10.190
88746SOL     OW68134   2.789   6.695   5.399
88746SOL    HW168135   2.694   6.701   5.394
88746SOL    HW268136   2.820   6.785   5.391
88747SOL     OW68137  10.987   2.107   3.250
88747SOL    HW168138  11.080   2.131   3.250
88747SOL    HW268139  10.981   2.036   3.315
88748SOL     OW68140  10.848   1.200   1.925
88748SOL    HW168141  10.929   1.166   1.888
88748SOL    HW268142  10.801   1.122   1.955
88749SOL     OW68143  13.889   9.253  12.369
88749SOL    HW168144  13.955   9.322  12.382
88749SOL    HW268145  13.826   9.267  12.439
88750SOL     OW68146   3.139   3.481  14.208
88750SOL    HW168147   3.125   3.569  14.175
88750SOL    HW268148   3.133   3.425  14.131
88751SOL     OW68149  14.717   9.881   8.570
88751SOL    HW168150  14.656   9.816   8.606
88751SOL    HW268151  14.745   9.843   8.487
88752SOL     OW68152  10.856  14.597  14.129
88752SOL    HW168153  10.909  14.671  14.100
88752SOL    HW268154  10.821  14.560  14.048
88753SOL     OW68155   1.446   8.656   3.899
88753SOL    HW168156   1.406   8.638   3.814
88753SOL    HW268157   1.392   8.608   3.961
88754SOL     OW68158   1.183   6.100  12.717
88754SOL    HW168159   1.134   6.172  12.756
88754SOL    HW268160   1.155   6.098  12.626
88755SOL     OW68161   2.728  11.923   8.822
88755SOL    HW168162   2.724  11.914   8.726
88755SOL    HW268163   2.671  11.853   8.854
88756SOL     OW68164  11.853   1.407   3.805
88756SOL    HW168165  11.903   1.407   3.887
88756SOL    HW268166  11.809   1.492   3.804
88757SOL     OW68167  11.257   1.709  12.655
88757SOL    HW168168  11.178   1.756  12.630
88757SOL    HW268169  11.226   1.620  12.673
88758SOL     OW68170   6.769  11.668   8.206
88758SOL    HW168171   6.760  11.753   8.163
88758SOL    HW268172   6.785  11.689   8.298
88759SOL     OW68173   2.404   3.458   6.763
88759SOL    HW168174   2.447   3.407   6.831
88759SOL    HW268175   2.474   3.479   6.701
88760SOL     OW68176  11.884   0.096  14.374
88760SOL    HW168177  11.893   0.019  14.429
88760SOL    HW268178  11.960   0.092  14.315
88761SOL     OW68179   1.169   9.248   6.199
88761SOL    HW168180   1.193   9.161   6.167
88761SOL    HW268181   1.214   9.309   6.141
88762SOL     OW68182  14.685  11.095   3.073
88762SOL    HW168183  14.743  11.168   3.050
88762SOL    HW268184  14.600  11.136   3.089
88763SOL     OW68185   6.389   3.285  13.483
88763SOL    HW168186   6.314   3.235  13.515
88763SOL    HW268187   6.449   3.219  13.448
88764SOL     OW68188  13.365   7.396  14.458
88764SOL    HW168189  13.289   7.348  14.490
88764SOL    HW268190  13.355   7.484  14.493
88765SOL     OW68191  12.174   7.143   7.543
88765SOL    HW168192  12.182   7.217   7.604
88765SOL    HW268193  12.094   7.098   7.569
88766SOL     OW68194  13.426   8.633  14.850
88766SOL    HW168195  13.350   8.675  14.810
88766SOL    HW268196  13.438   8.552  14.799
88767SOL     OW68197   0.837   0.723  12.880
88767SOL    HW168198   0.792   0.760  12.957
88767SOL    HW268199   0.778   0.655  12.848
88768SOL     OW68200  11.861   8.552   4.310
88768SOL    HW168201  11.817   8.467   4.308
88768SOL    HW268202  11.790   8.615   4.323
88769SOL     OW68203  11.093   8.686   7.846
88769SOL    HW168204  11.123   8.710   7.758
88769SOL    HW268205  11.121   8.595   7.857
88770SOL     OW68206   3.929   4.953   4.640
88770SOL    HW168207   3.969   4.874   4.676
88770SOL    HW268208   3.984   5.024   4.672
88771SOL     OW68209  10.045   2.434   0.824
88771SOL    HW168210  10.111   2.386   0.774
88771SOL    HW268211   9.971   2.373   0.831
88772SOL     OW68212   8.141   5.427   9.456
88772SOL    HW168213   8.177   5.463   9.537
88772SOL    HW268214   8.056   5.470   9.447
88773SOL     OW68215   9.978   1.888   1.411
88773SOL    HW168216  10.064   1.928   1.423
88773SOL    HW268217   9.934   1.898   1.495
88774SOL     OW68218   1.105  11.864   0.860
88774SOL    HW168219   1.125  11.876   0.953
88774SOL    HW268220   1.092  11.953   0.827
88775SOL     OW68221   4.199   8.399   9.470
88775SOL    HW168222   4.185   8.305   9.454
88775SOL    HW268223   4.233   8.433   9.387
88776SOL     OW68224  13.983   7.120   6.623
88776SOL    HW168225  13.932   7.158   6.695
88776SOL    HW268226  13.919   7.102   6.554
88777SOL     OW68227  10.269   2.977   0.353
88777SOL    HW168228  10.213   2.913   0.310
88777SOL    HW268229  10.260   3.056   0.300
88778SOL     OW68230  11.625   4.420  12.453
88778SOL    HW168231  11.709   4.411  12.408
88778SOL    HW268232  11.575   4.481  12.398
88779SOL     OW68233   5.546   0.538   4.522
88779SOL    HW168234   5.506   0.490   4.450
88779SOL    HW268235   5.629   0.493   4.538
88780SOL     OW68236   5.478   4.976  10.225
88780SOL    HW168237   5.482   4.957  10.319
88780SOL    HW268238   5.491   5.070  10.219
88781SOL     OW68239   0.195  11.840  11.991
88781SOL    HW168240   0.252  11.909  12.026
88781SOL    HW268241   0.230  11.823  11.903
88782SOL     OW68242   0.705   1.565   2.251
88782SOL    HW168243   0.625   1.522   2.223
88782SOL    HW268244   0.678   1.618   2.327
88783SOL     OW68245   4.189   9.776   9.839
88783SOL    HW168246   4.123   9.711   9.815
88783SOL    HW268247   4.139   9.856   9.857
88784SOL     OW68248   4.743   2.966  10.482
88784SOL    HW168249   4.835   2.986  10.461
88784SOL    HW268250   4.704   3.052  10.499
88785SOL     OW68251  12.326   5.457   1.561
88785SOL    HW168252  12.278   5.423   1.637
88785SOL    HW268253  12.259   5.471   1.495
88786SOL     OW68254  10.806   3.314   4.876
88786SOL    HW168255  10.739   3.273   4.822
88786SOL    HW268256  10.771   3.401   4.896
88787SOL     OW68257   3.999   2.286   8.171
88787SOL    HW168258   3.979   2.321   8.258
88787SOL    HW268259   4.078   2.333   8.144
88788SOL     OW68260   4.873  10.171   6.318
88788SOL    HW168261   4.898  10.098   6.261
88788SOL    HW268262   4.792  10.204   6.280
88789SOL     OW68263   2.025   8.826   6.273
88789SOL    HW168264   2.040   8.824   6.368
88789SOL    HW268265   2.094   8.883   6.239
88790SOL     OW68266   4.348  11.713   6.461
88790SOL    HW168267   4.320  11.760   6.382
88790SOL    HW268268   4.436  11.681   6.440
88791SOL     OW68269   8.092  13.057   0.198
88791SOL    HW168270   8.132  13.136   0.233
88791SOL    HW268271   8.120  12.988   0.258
88792SOL     OW68272   9.562  12.858   3.063
88792SOL    HW168273   9.495  12.867   3.130
88792SOL    HW268274   9.543  12.774   3.020
88793SOL     OW68275   7.418   0.188   6.366
88793SOL    HW168276   7.380   0.229   6.445
88793SOL    HW268277   7.374   0.103   6.360
88794SOL     OW68278  14.604   7.452  12.771
88794SOL    HW168279  14.522   7.435  12.817
88794SOL    HW268280  14.578   7.485  12.686
88795SOL     OW68281   6.367   1.496  14.430
88795SOL    HW168282   6.347   1.452  14.348
88795SOL    HW268283   6.282   1.508  14.472
88796SOL     OW68284   0.202   1.315   8.619
88796SOL    HW168285   0.215   1.319   8.714
88796SOL    HW268286   0.184   1.223   8.601
88797SOL     OW68287   2.883   7.963   4.649
88797SOL    HW168288   2.797   7.991   4.680
88797SOL    HW268289   2.865   7.893   4.587
88798SOL     OW68290   6.554   6.862  10.460
88798SOL    HW168291   6.545   6.905  10.544
88798SOL    HW268292   6.516   6.775  10.473
88799SOL     OW68293   9.849   0.923   2.837
88799SOL    HW168294   9.900   0.859   2.788
88799SOL    HW268295   9.767   0.931   2.788
88800SOL     OW68296   9.739   1.911   5.382
88800SOL    HW168297   9.683   1.963   5.324
88800SOL    HW268298   9.688   1.900   5.462
88801SOL     OW68299  13.288   8.934   4.663
88801SOL    HW168300  13.380   8.908   4.659
88801SOL    HW268301  13.239   8.853   4.650
88802SOL     OW68302   0.385  14.226  11.455
88802SOL    HW168303   0.394  14.275  11.373
88802SOL    HW268304   0.401  14.291  11.523
88803SOL     OW68305  10.146  11.414   5.953
88803SOL    HW168306  10.082  11.344   5.939
88803SOL    HW268307  10.107  11.470   6.019
88804SOL     OW68308  10.208   9.029  13.124
88804SOL    HW168309  10.147   8.958  13.105
88804SOL    HW268310  10.215   9.030  13.220
88805SOL     OW68311   4.613   5.354  12.434
88805SOL    HW168312   4.539   5.374  12.492
88805SOL    HW268313   4.629   5.260  12.447
88806SOL     OW68314  12.804   8.089  14.672
88806SOL    HW168315  12.721   8.046  14.652
88806SOL    HW268316  12.801   8.104  14.766
88807SOL     OW68317   3.234   1.366  10.053
88807SOL    HW168318   3.228   1.295  10.117
88807SOL    HW268319   3.326   1.370  10.030
88808SOL     OW68320   1.605  11.594  10.016
88808SOL    HW168321   1.607  11.510   9.969
88808SOL    HW268322   1.515  11.624  10.007
88809SOL     OW68323  13.801   5.229   7.158
88809SOL    HW168324  13.895   5.249   7.156
88809SOL    HW268325  13.758   5.314   7.146
88810SOL     OW68326   8.080  13.398   5.891
88810SOL    HW168327   8.106  13.321   5.942
88810SOL    HW268328   8.111  13.379   5.802
88811SOL     OW68329   2.314   7.530  12.871
88811SOL    HW168330   2.237   7.552  12.818
88811SOL    HW268331   2.372   7.483  12.811
88812SOL     OW68332  13.062   6.377  11.277
88812SOL    HW168333  13.126   6.321  11.233
88812SOL    HW268334  13.097   6.465  11.269
88813SOL     OW68335   1.210  13.807   9.036
88813SOL    HW168336   1.155  13.841   8.965
88813SOL    HW268337   1.294  13.850   9.025
88814SOL     OW68338  11.273   5.326   6.775
88814SOL    HW168339  11.292   5.420   6.777
88814SOL    HW268340  11.340   5.287   6.831
88815SOL     OW68341  10.834   5.689   0.011
88815SOL    HW168342  10.868   5.696  14.809
88815SOL    HW268343  10.743   5.718   0.005
88816SOL     OW68344  14.554  10.714  11.718
88816SOL    HW168345  14.489  10.731  11.787
88816SOL    HW268346  14.521  10.762  11.642
88817SOL     OW68347   1.811   4.371  12.104
88817SOL    HW168348   1.898   4.371  12.143
88817SOL    HW268349   1.826   4.387  12.011
88818SOL     OW68350   9.397   5.455   0.010
88818SOL    HW168351   9.367   5.455  14.807
88818SOL    HW268352   9.445   5.373   0.020
88819SOL     OW68353   2.142  12.810  10.875
88819SOL    HW168354   2.073  12.744  10.882
88819SOL    HW268355   2.133  12.862  10.954
88820SOL     OW68356  13.085   9.992   1.950
88820SOL    HW168357  13.140   9.995   1.871
88820SOL    HW268358  13.085  10.082   1.983
88821SOL     OW68359   8.530  11.985   0.437
88821SOL    HW168360   8.536  11.890   0.424
88821SOL    HW268361   8.438  12.005   0.422
88822SOL     OW68362   6.722  11.086  13.382
88822SOL    HW168363   6.678  11.009  13.346
88822SOL    HW268364   6.696  11.088  13.474
88823SOL     OW68365   4.810   2.977  14.046
88823SOL    HW168366   4.726   3.023  14.051
88823SOL    HW268367   4.856   3.002  14.127
88824SOL     OW68368   4.146   9.714   7.311
88824SOL    HW168369   4.205   9.788   7.293
88824SOL    HW268370   4.198   9.636   7.294
88825SOL     OW68371   9.807   6.909   6.335
88825SOL    HW168372   9.851   6.826   6.354
88825SOL    HW268373   9.836   6.932   6.246
88826SOL     OW68374   3.110   9.080  11.353
88826SOL    HW168375   3.051   9.107  11.283
88826SOL    HW268376   3.178   9.029  11.309
88827SOL     OW68377   0.869   7.421   5.743
88827SOL    HW168378   0.789   7.437   5.791
88827SOL    HW268379   0.901   7.337   5.776
88828SOL     OW68380   5.122  11.365  14.573
88828SOL    HW168381   5.057  11.422  14.531
88828SOL    HW268382   5.087  11.276  14.560
88829SOL     OW68383   4.911   2.901   5.702
88829SOL    HW168384   4.976   2.841   5.739
88829SOL    HW268385   4.961   2.980   5.682
88830SOL     OW68386   6.436   4.601  11.448
88830SOL    HW168387   6.428   4.540  11.375
88830SOL    HW268388   6.404   4.684  11.413
88831SOL     OW68389   1.083   6.305   3.748
88831SOL    HW168390   1.063   6.213   3.765
88831SOL    HW268391   1.139   6.304   3.671
88832SOL     OW68392   2.817   8.065   3.584
88832SOL    HW168393   2.891   8.063   3.644
88832SOL    HW268394   2.797   8.158   3.573
88833SOL     OW68395   5.690  12.021   0.597
88833SOL    HW168396   5.629  11.951   0.618
88833SOL    HW268397   5.657  12.097   0.646
88834SOL     OW68398   5.694   9.427  11.479
88834SOL    HW168399   5.634   9.381  11.538
88834SOL    HW268400   5.760   9.362  11.457
88835SOL     OW68401  13.774   4.297   4.424
88835SOL    HW168402  13.755   4.314   4.332
88835SOL    HW268403  13.832   4.369   4.450
88836SOL     OW68404   8.498  12.387   2.914
88836SOL    HW168405   8.535  12.420   2.995
88836SOL    HW268406   8.571  12.388   2.852
88837SOL     OW68407  10.712  13.043  10.801
88837SOL    HW168408  10.647  13.072  10.865
88837SOL    HW268409  10.681  13.077  10.718
88838SOL     OW68410  12.183   6.147   6.851
88838SOL    HW168411  12.221   6.186   6.929
88838SOL    HW268412  12.210   6.055   6.854
88839SOL     OW68413   0.364  10.568   2.560
88839SOL    HW168414   0.374  10.661   2.580
88839SOL    HW268415   0.273  10.560   2.531
88840SOL     OW68416   6.793  11.736   0.718
88840SOL    HW168417   6.843  11.817   0.731
88840SOL    HW268418   6.822  11.703   0.633
88841SOL     OW68419   2.109   7.982   1.268
88841SOL    HW168420   2.193   7.967   1.226
88841SOL    HW268421   2.104   8.076   1.280
88842SOL     OW68422   5.599  11.028   0.657
88842SOL    HW168423   5.595  11.119   0.626
88842SOL    HW268424   5.525  10.985   0.613
88843SOL     OW68425   9.738   4.038   3.212
88843SOL    HW168426   9.663   3.979   3.216
88843SOL    HW268427   9.814   3.980   3.205
88844SOL     OW68428  10.549   4.016  13.369
88844SOL    HW168429  10.487   3.945  13.349
88844SOL    HW268430  10.530   4.039  13.460
88845SOL     OW68431   1.914   9.732   1.791
88845SOL    HW168432   1.979   9.674   1.752
88845SOL    HW268433   1.878   9.681   1.864
88846SOL     OW68434  14.391   1.907   2.220
88846SOL    HW168435  14.349   1.824   2.196
88846SOL    HW268436  14.333   1.974   2.184
88847SOL     OW68437   1.293   8.600   8.642
88847SOL    HW168438   1.344   8.648   8.576
88847SOL    HW268439   1.327   8.511   8.639
88848SOL     OW68440   6.180   7.180   4.792
88848SOL    HW168441   6.217   7.265   4.817
88848SOL    HW268442   6.094   7.201   4.756
88849SOL     OW68443   1.637   5.810   9.643
88849SOL    HW168444   1.571   5.868   9.604
88849SOL    HW268445   1.698   5.793   9.572
88850SOL     OW68446   4.436   6.911  11.602
88850SOL    HW168447   4.510   6.853  11.621
88850SOL    HW268448   4.376   6.857  11.551
88851SOL     OW68449  14.060  12.918   3.213
88851SOL    HW168450  14.076  12.838   3.162
88851SOL    HW268451  14.140  12.969   3.202
88852SOL     OW68452  12.429  10.913   9.394
88852SOL    HW168453  12.408  10.820   9.383
88852SOL    HW268454  12.452  10.921   9.486
88853SOL     OW68455   2.385   5.031   6.149
88853SOL    HW168456   2.340   5.032   6.064
88853SOL    HW268457   2.463   5.084   6.135
88854SOL     OW68458   7.943   4.622   7.784
88854SOL    HW168459   7.879   4.680   7.825
88854SOL    HW268460   8.015   4.617   7.847
88855SOL     OW68461   5.729  14.348  14.093
88855SOL    HW168462   5.664  14.387  14.151
88855SOL    HW268463   5.723  14.399  14.012
88856SOL     OW68464  14.460   9.306   8.029
88856SOL    HW168465  14.486   9.332   8.117
88856SOL    HW268466  14.366   9.323   8.026
88857SOL     OW68467   3.127   1.207  14.379
88857SOL    HW168468   3.139   1.271  14.449
88857SOL    HW268469   3.105   1.259  14.302
88858SOL     OW68470   0.715   9.622   3.725
88858SOL    HW168471   0.762   9.689   3.774
88858SOL    HW268472   0.623   9.632   3.751
88859SOL     OW68473   7.004   3.417  11.389
88859SOL    HW168474   7.001   3.511  11.370
88859SOL    HW268475   7.094   3.401  11.417
88860SOL     OW68476  12.997   0.994  10.133
88860SOL    HW168477  12.921   1.049  10.151
88860SOL    HW268478  13.047   0.996  10.215
88861SOL     OW68479   3.140   4.403   1.185
88861SOL    HW168480   3.146   4.393   1.280
88861SOL    HW268481   3.154   4.314   1.151
88862SOL     OW68482  13.457  11.919   3.679
88862SOL    HW168483  13.448  11.888   3.588
88862SOL    HW268484  13.368  11.920   3.713
88863SOL     OW68485   5.645   0.077   0.372
88863SOL    HW168486   5.688   0.021   0.309
88863SOL    HW268487   5.552   0.060   0.361
88864SOL     OW68488   3.982   8.915  14.657
88864SOL    HW168489   3.985   8.942  14.748
88864SOL    HW268490   3.903   8.862  14.649
88865SOL     OW68491   4.597   1.315   1.693
88865SOL    HW168492   4.570   1.264   1.617
88865SOL    HW268493   4.536   1.389   1.695
88866SOL     OW68494   4.467   5.523   8.029
88866SOL    HW168495   4.414   5.523   7.950
88866SOL    HW268496   4.536   5.587   8.012
88867SOL     OW68497   1.187   7.012  13.471
88867SOL    HW168498   1.270   6.967  13.487
88867SOL    HW268499   1.144   7.014  13.557
88868SOL     OW68500   9.112   9.866  12.805
88868SOL    HW168501   9.082   9.788  12.757
88868SOL    HW268502   9.155   9.920  12.739
88869SOL     OW68503  10.140   4.937  11.378
88869SOL    HW168504  10.141   4.973  11.467
88869SOL    HW268505  10.047   4.922  11.360
88870SOL     OW68506   5.423   0.358   3.346
88870SOL    HW168507   5.378   0.442   3.333
88870SOL    HW268508   5.477   0.371   3.423
88871SOL     OW68509  12.101   6.067  14.777
88871SOL    HW168510  12.011   6.076  14.808
88871SOL    HW268511  12.099   5.993  14.717
88872SOL     OW68512  11.302  10.233  11.322
88872SOL    HW168513  11.321  10.203  11.411
88872SOL    HW268514  11.300  10.328  11.328
88873SOL     OW68515   8.088   0.465   0.224
88873SOL    HW168516   8.111   0.384   0.270
88873SOL    HW268517   8.116   0.535   0.283
88874SOL     OW68518   3.236   1.172  10.294
88874SOL    HW168519   3.289   1.128  10.228
88874SOL    HW268520   3.164   1.111  10.312
88875SOL     OW68521   8.098   8.971   2.063
88875SOL    HW168522   8.094   8.985   1.969
88875SOL    HW268523   8.041   9.038   2.101
88876SOL     OW68524  10.606   2.934   3.305
88876SOL    HW168525  10.681   2.876   3.321
88876SOL    HW268526  10.618   2.964   3.215
88877SOL     OW68527  13.978  14.861   5.182
88877SOL    HW168528  13.926  14.781   5.176
88877SOL    HW268529  13.914   0.045   5.182
88878SOL     OW68530   0.647   3.843  11.330
88878SOL    HW168531   0.644   3.747  11.338
88878SOL    HW268532   0.659   3.874  11.420
88879SOL     OW68533  14.004   4.594   9.743
88879SOL    HW168534  13.933   4.573   9.683
88879SOL    HW268535  14.081   4.602   9.687
88880SOL     OW68536   9.463   0.746  10.213
88880SOL    HW168537   9.543   0.751  10.264
88880SOL    HW268538   9.480   0.800  10.136
88881SOL     OW68539   7.467   5.495   8.031
88881SOL    HW168540   7.378   5.466   8.052
88881SOL    HW268541   7.468   5.588   8.055
88882SOL     OW68542  14.064   5.967  10.115
88882SOL    HW168543  13.969   5.964  10.112
88882SOL    HW268544  14.090   6.003  10.030
88883SOL     OW68545  10.599   4.817  13.077
88883SOL    HW168546  10.592   4.750  13.145
88883SOL    HW268547  10.686   4.854  13.088
88884SOL     OW68548   6.989   3.637   5.548
88884SOL    HW168549   7.046   3.684   5.487
88884SOL    HW268550   6.927   3.704   5.579
88885SOL     OW68551   5.117  13.448   2.043
88885SOL    HW168552   5.177  13.460   1.968
88885SOL    HW268553   5.030  13.450   2.004
88886SOL     OW68554   1.990   0.386  14.832
88886SOL    HW168555   1.986   0.482  14.836
88886SOL    HW268556   1.899   0.359  14.818
88887SOL     OW68557   2.548   3.615  12.579
88887SOL    HW168558   2.504   3.550  12.524
88887SOL    HW268559   2.521   3.699  12.543
88888SOL     OW68560   2.181  10.358   8.556
88888SOL    HW168561   2.112  10.330   8.496
88888SOL    HW268562   2.206  10.445   8.526
88889SOL     OW68563  12.338   2.781   1.569
88889SOL    HW168564  12.319   2.852   1.630
88889SOL    HW268565  12.253   2.743   1.549
88890SOL     OW68566  12.817   0.839  11.023
88890SOL    HW168567  12.875   0.850  11.098
88890SOL    HW268568  12.729   0.835  11.061
88891SOL     OW68569  12.436   6.143   1.422
88891SOL    HW168570  12.427   6.158   1.328
88891SOL    HW268571  12.504   6.075   1.429
88892SOL     OW68572  11.901   5.522   9.996
88892SOL    HW168573  11.984   5.548  10.035
88892SOL    HW268574  11.839   5.589  10.026
88893SOL     OW68575   3.837   8.788  13.035
88893SOL    HW168576   3.852   8.695  13.021
88893SOL    HW268577   3.757   8.807  12.987
88894SOL     OW68578  13.316   7.347   5.308
88894SOL    HW168579  13.392   7.377   5.258
88894SOL    HW268580  13.286   7.424   5.356
88895SOL     OW68581   9.888   5.101   2.347
88895SOL    HW168582   9.860   5.036   2.411
88895SOL    HW268583   9.806   5.143   2.319
88896SOL     OW68584   8.112  13.743  14.449
88896SOL    HW168585   8.081  13.823  14.493
88896SOL    HW268586   8.135  13.684  14.520
88897SOL     OW68587  10.019   8.505  13.757
88897SOL    HW168588  10.109   8.530  13.777
88897SOL    HW268589  10.011   8.415  13.788
88898SOL     OW68590   1.108   2.425  13.207
88898SOL    HW168591   1.016   2.424  13.180
88898SOL    HW268592   1.150   2.358  13.151
88899SOL     OW68593   0.757   3.042  13.929
88899SOL    HW168594   0.836   3.063  13.979
88899SOL    HW268595   0.783   2.969  13.872
88900SOL     OW68596   7.820   4.274  12.304
88900SOL    HW168597   7.742   4.252  12.254
88900SOL    HW268598   7.793   4.345  12.362
88901SOL     OW68599  10.926   4.808   8.529
88901SOL    HW168600  10.859   4.769   8.585
88901SOL    HW268601  10.940   4.896   8.564
88902SOL     OW68602   3.947   5.796  12.689
88902SOL    HW168603   3.934   5.817  12.597
88902SOL    HW268604   3.897   5.862  12.737
88903SOL     OW68605   8.028  12.076   8.762
88903SOL    HW168606   8.021  12.157   8.812
88903SOL    HW268607   7.962  12.085   8.694
88904SOL     OW68608   4.939   2.355   9.447
88904SOL    HW168609   4.972   2.436   9.408
88904SOL    HW268610   4.906   2.304   9.373
88905SOL     OW68611   1.682  13.605   1.464
88905SOL    HW168612   1.751  13.649   1.515
88905SOL    HW268613   1.711  13.514   1.458
88906SOL     OW68614   5.220   7.413   0.206
88906SOL    HW168615   5.257   7.346   0.263
88906SOL    HW268616   5.177   7.364   0.136
88907SOL     OW68617   2.922  13.745  14.309
88907SOL    HW168618   2.861  13.799  14.359
88907SOL    HW268619   2.930  13.665  14.361
88908SOL     OW68620   0.502  10.446   9.080
88908SOL    HW168621   0.593  10.426   9.056
88908SOL    HW268622   0.509  10.520   9.140
88909SOL     OW68623   3.090   8.217   1.019
88909SOL    HW168624   3.133   8.183   1.097
88909SOL    HW268625   3.004   8.174   1.018
88910SOL     OW68626   0.642   8.094  14.831
88910SOL    HW168627   0.660   8.122  14.741
88910SOL    HW268628   0.550   8.113  14.845
88911SOL     OW68629  10.199  12.943  12.241
88911SOL    HW168630  10.143  12.909  12.311
88911SOL    HW268631  10.271  12.881  12.236
88912SOL     OW68632   1.058   5.267  12.988
88912SOL    HW168633   1.088   5.217  13.064
88912SOL    HW268634   0.962   5.271  12.998
88913SOL     OW68635   7.720   4.013  11.927
88913SOL    HW168636   7.773   3.947  11.972
88913SOL    HW268637   7.732   3.994  11.834
88914SOL     OW68638  10.776   4.400   4.135
88914SOL    HW168639  10.812   4.487   4.150
88914SOL    HW268640  10.751   4.368   4.222
88915SOL     OW68641  13.898   1.174   8.595
88915SOL    HW168642  13.864   1.198   8.508
88915SOL    HW268643  13.951   1.096   8.578
88916SOL     OW68644   7.660   3.877   0.973
88916SOL    HW168645   7.655   3.807   0.908
88916SOL    HW268646   7.574   3.875   1.016
88917SOL     OW68647  11.634   9.690   2.437
88917SOL    HW168648  11.603   9.741   2.362
88917SOL    HW268649  11.630   9.752   2.511
88918SOL     OW68650   2.702   6.614  13.287
88918SOL    HW168651   2.674   6.699  13.252
88918SOL    HW268652   2.636   6.552  13.257
88919SOL     OW68653  14.812  14.613  13.259
88919SOL    HW168654  14.720  14.640  13.263
88919SOL    HW268655  14.839  14.604  13.350
88920SOL     OW68656   3.781  13.483   3.972
88920SOL    HW168657   3.726  13.447   4.042
88920SOL    HW268658   3.720  13.507   3.902
88921SOL     OW68659  11.612   6.901  12.746
88921SOL    HW168660  11.625   6.876  12.838
88921SOL    HW268661  11.665   6.980  12.735
88922SOL     OW68662   5.074   4.598   1.383
88922SOL    HW168663   5.165   4.573   1.402
88922SOL    HW268664   5.070   4.602   1.287
88923SOL     OW68665   1.504  12.313   0.604
88923SOL    HW168666   1.597  12.300   0.622
88923SOL    HW268667   1.461  12.295   0.687
88924SOL     OW68668  12.985  14.811   5.832
88924SOL    HW168669  12.900  14.769   5.843
88924SOL    HW268670  12.983  14.886   5.893
88925SOL     OW68671   3.514   1.991  13.540
88925SOL    HW168672   3.561   1.924  13.590
88925SOL    HW268673   3.497   1.950  13.455
88926SOL     OW68674   4.009   2.068   6.331
88926SOL    HW168675   3.974   2.131   6.394
88926SOL    HW268676   4.014   2.117   6.248
88927SOL     OW68677   4.495   9.117   5.356
88927SOL    HW168678   4.575   9.065   5.363
88927SOL    HW268679   4.462   9.099   5.268
88928SOL     OW68680   2.665   9.618   6.667
88928SOL    HW168681   2.745   9.631   6.719
88928SOL    HW268682   2.670   9.527   6.638
88929SOL     OW68683  14.431   2.561   3.032
88929SOL    HW168684  14.500   2.627   3.042
88929SOL    HW268685  14.355   2.600   3.076
88930SOL     OW68686   3.630   7.346   0.570
88930SOL    HW168687   3.658   7.378   0.656
88930SOL    HW268688   3.636   7.422   0.512
88931SOL     OW68689   7.201   5.186  11.294
88931SOL    HW168690   7.197   5.157  11.203
88931SOL    HW268691   7.151   5.120  11.342
88932SOL     OW68692   0.665   7.585  12.922
88932SOL    HW168693   0.746   7.625  12.952
88932SOL    HW268694   0.607   7.660  12.905
88933SOL     OW68695   8.917   9.400  13.766
88933SOL    HW168696   8.998   9.436  13.728
88933SOL    HW268697   8.879   9.474  13.814
88934SOL     OW68698   2.295   5.394   7.360
88934SOL    HW168699   2.280   5.488   7.372
88934SOL    HW268700   2.210   5.354   7.378
88935SOL     OW68701   9.798   3.932   9.591
88935SOL    HW168702   9.801   3.882   9.510
88935SOL    HW268703   9.829   4.020   9.567
88936SOL     OW68704  14.464   3.559   1.518
88936SOL    HW168705  14.422   3.480   1.484
88936SOL    HW268706  14.403   3.630   1.498
88937SOL     OW68707   2.324  11.653   1.825
88937SOL    HW168708   2.316  11.732   1.878
88937SOL    HW268709   2.414  11.624   1.838
88938SOL     OW68710   8.902   5.291   6.725
88938SOL    HW168711   8.912   5.241   6.806
88938SOL    HW268712   8.970   5.256   6.667
88939SOL     OW68713  11.974   8.546  14.577
88939SOL    HW168714  11.975   8.528  14.483
88939SOL    HW268715  11.908   8.486  14.612
88940SOL     OW68716   5.150  10.556   8.045
88940SOL    HW168717   5.107  10.518   8.122
88940SOL    HW268718   5.116  10.646   8.041
88941SOL     OW68719  14.422  13.900  10.861
88941SOL    HW168720  14.412  13.984  10.905
88941SOL    HW268721  14.505  13.906  10.814
88942SOL     OW68722   6.975  10.573  10.794
88942SOL    HW168723   6.923  10.600  10.718
88942SOL    HW268724   7.063  10.606  10.775
88943SOL     OW68725   4.837   4.522   4.637
88943SOL    HW168726   4.823   4.481   4.722
88943SOL    HW268727   4.928   4.551   4.640
88944SOL     OW68728   7.448  12.230   8.714
88944SOL    HW168729   7.364  12.272   8.729
88944SOL    HW268730   7.427  12.138   8.695
88945SOL     OW68731   0.115  12.676   5.610
88945SOL    HW168732   0.147  12.765   5.595
88945SOL    HW268733   0.020  12.682   5.596
88946SOL     OW68734   6.100  12.276   6.480
88946SOL    HW168735   6.119  12.195   6.526
88946SOL    HW268736   6.186  12.310   6.454
88947SOL     OW68737   8.088   1.258   6.749
88947SOL    HW168738   8.041   1.330   6.708
88947SOL    HW268739   8.170   1.251   6.700
88948SOL     OW68740   9.732   0.706   9.692
88948SOL    HW168741   9.684   0.783   9.662
88948SOL    HW268742   9.716   0.640   9.624
88949SOL     OW68743   1.729   1.535   1.575
88949SOL    HW168744   1.679   1.573   1.647
88949SOL    HW268745   1.775   1.609   1.535
88950SOL     OW68746  12.581   8.401  11.338
88950SOL    HW168747  12.580   8.320  11.287
88950SOL    HW268748  12.669   8.406  11.375
88951SOL     OW68749  12.198   0.144   7.755
88951SOL    HW168750  12.220   0.235   7.772
88951SOL    HW268751  12.103   0.144   7.743
88952SOL     OW68752  13.796  13.647  13.605
88952SOL    HW168753  13.845  13.725  13.628
88952SOL    HW268754  13.860  13.588  13.565
88953SOL     OW68755   2.790  12.249   1.389
88953SOL    HW168756   2.749  12.219   1.470
88953SOL    HW268757   2.840  12.326   1.414
88954SOL     OW68758  14.210   9.211   1.371
88954SOL    HW168759  14.229   9.118   1.361
88954SOL    HW268760  14.294   9.250   1.395
88955SOL     OW68761   7.800   0.155  11.091
88955SOL    HW168762   7.724   0.200  11.053
88955SOL    HW268763   7.874   0.182  11.037
88956SOL     OW68764  10.285  14.339  14.072
88956SOL    HW168765  10.362  14.362  14.124
88956SOL    HW268766  10.213  14.385  14.116
88957SOL     OW68767   2.126  11.449   0.288
88957SOL    HW168768   2.121  11.354   0.276
88957SOL    HW268769   2.149  11.460   0.381
88958SOL     OW68770   8.781   8.660   7.079
88958SOL    HW168771   8.714   8.608   7.034
88958SOL    HW268772   8.744   8.748   7.083
88959SOL     OW68773   1.755  11.883   3.903
88959SOL    HW168774   1.849  11.897   3.915
88959SOL    HW268775   1.715  11.930   3.976
88960SOL     OW68776  11.948   6.873   4.917
88960SOL    HW168777  11.866   6.856   4.871
88960SOL    HW268778  12.016   6.846   4.856
88961SOL     OW68779   9.707   2.891  14.150
88961SOL    HW168780   9.768   2.921  14.083
88961SOL    HW268781   9.761   2.841  14.211
88962SOL     OW68782   5.058   8.878   4.361
88962SOL    HW168783   5.051   8.801   4.418
88962SOL    HW268784   5.009   8.946   4.406
88963SOL     OW68785   8.043   1.660   6.310
88963SOL    HW168786   7.958   1.621   6.328
88963SOL    HW268787   8.052   1.657   6.215
88964SOL     OW68788  10.299   0.655  12.775
88964SOL    HW168789  10.219   0.671  12.826
88964SOL    HW268790  10.267   0.622  12.691
88965SOL     OW68791   3.113   6.237   3.136
88965SOL    HW168792   3.109   6.141   3.141
88965SOL    HW268793   3.136   6.255   3.045
88966SOL     OW68794   6.748   0.798   1.943
88966SOL    HW168795   6.672   0.742   1.957
88966SOL    HW268796   6.731   0.875   1.996
88967SOL     OW68797   6.536  11.693   7.037
88967SOL    HW168798   6.569  11.769   7.086
88967SOL    HW268799   6.472  11.730   6.976
88968SOL     OW68800   2.036   8.036   6.789
88968SOL    HW168801   2.055   8.096   6.861
88968SOL    HW268802   1.983   8.087   6.727
88969SOL     OW68803   7.277   0.074   9.334
88969SOL    HW168804   7.369   0.054   9.320
88969SOL    HW268805   7.264   0.161   9.296
88970SOL     OW68806  13.775   1.012   2.783
88970SOL    HW168807  13.746   1.041   2.870
88970SOL    HW268808  13.861   0.975   2.798
88971SOL     OW68809   4.435  10.454   0.103
88971SOL    HW168810   4.389  10.473   0.185
88971SOL    HW268811   4.417  10.362   0.086
88972SOL     OW68812  12.073   8.889  11.049
88972SOL    HW168813  12.006   8.840  11.000
88972SOL    HW268814  12.154   8.873  11.001
88973SOL     OW68815   9.105  13.805  14.226
88973SOL    HW168816   9.184  13.820  14.278
88973SOL    HW268817   9.052  13.883  14.241
88974SOL     OW68818   4.600   1.514   0.166
88974SOL    HW168819   4.679   1.504   0.219
88974SOL    HW268820   4.615   1.457   0.090
88975SOL     OW68821   5.588  11.928  11.479
88975SOL    HW168822   5.588  11.922  11.575
88975SOL    HW268823   5.610  11.840  11.449
88976SOL     OW68824   7.178   1.731   8.732
88976SOL    HW168825   7.158   1.678   8.655
88976SOL    HW268826   7.255   1.690   8.770
88977SOL     OW68827   3.879   8.690   1.629
88977SOL    HW168828   3.878   8.782   1.602
88977SOL    HW268829   3.806   8.650   1.583
88978SOL     OW68830   9.459   8.556   7.026
88978SOL    HW168831   9.391   8.564   7.092
88978SOL    HW268832   9.418   8.589   6.945
88979SOL     OW68833   5.224   0.888   6.227
88979SOL    HW168834   5.259   0.805   6.194
88979SOL    HW268835   5.177   0.865   6.307
88980SOL     OW68836  11.270  14.409  12.664
88980SOL    HW168837  11.235  14.337  12.611
88980SOL    HW268838  11.272  14.374  12.753
88981SOL     OW68839   2.273   8.110   8.110
88981SOL    HW168840   2.203   8.044   8.114
88981SOL    HW268841   2.299   8.121   8.202
88982SOL     OW68842   0.597   2.261   6.035
88982SOL    HW168843   0.589   2.170   6.063
88982SOL    HW268844   0.623   2.256   5.943
88983SOL     OW68845   7.993   3.174   2.780
88983SOL    HW168846   8.036   3.208   2.701
88983SOL    HW268847   8.065   3.149   2.838
88984SOL     OW68848  11.253   1.436   8.075
88984SOL    HW168849  11.163   1.466   8.064
88984SOL    HW268850  11.259   1.357   8.020
88985SOL     OW68851   2.711   0.437   7.154
88985SOL    HW168852   2.737   0.523   7.120
88985SOL    HW268853   2.669   0.394   7.080
88986SOL     OW68854   2.503   4.541  11.726
88986SOL    HW168855   2.517   4.628  11.763
88986SOL    HW268856   2.479   4.556  11.635
88987SOL     OW68857  10.012   4.310   5.334
88987SOL    HW168858   9.961   4.379   5.375
88987SOL    HW268859  10.094   4.353   5.308
88988SOL     OW68860   3.735   0.266   4.934
88988SOL    HW168861   3.804   0.329   4.955
88988SOL    HW268862   3.770   0.215   4.861
88989SOL     OW68863  14.249   4.846   2.048
88989SOL    HW168864  14.227   4.863   2.140
88989SOL    HW268865  14.234   4.930   2.004
88990SOL     OW68866   4.805   7.151   5.048
88990SOL    HW168867   4.829   7.223   5.107
88990SOL    HW268868   4.833   7.072   5.095
88991SOL     OW68869  10.938  10.507   7.037
88991SOL    HW168870  10.966  10.576   6.975
88991SOL    HW268871  10.885  10.448   6.984
88992SOL     OW68872   4.997   1.474   8.112
88992SOL    HW168873   5.024   1.473   8.204
88992SOL    HW268874   4.920   1.531   8.111
88993SOL     OW68875  11.714   4.681   8.622
88993SOL    HW168876  11.724   4.658   8.529
88993SOL    HW268877  11.753   4.607   8.669
88994SOL     OW68878   8.432   2.731  11.183
88994SOL    HW168879   8.450   2.649  11.136
88994SOL    HW268880   8.517   2.774  11.190
88995SOL     OW68881   7.160   9.812  11.442
88995SOL    HW168882   7.109   9.758  11.381
88995SOL    HW268883   7.248   9.812  11.405
88996SOL     OW68884   9.469  14.095  10.938
88996SOL    HW168885   9.532  14.051  10.881
88996SOL    HW268886   9.446  14.030  11.005
88997SOL     OW68887   3.773  14.319   8.687
88997SOL    HW168888   3.859  14.279   8.694
88997SOL    HW268889   3.777  14.395   8.744
88998SOL     OW68890  10.000   9.306   4.492
88998SOL    HW168891   9.907   9.287   4.505
88998SOL    HW268892  10.005   9.342   4.403
88999SOL     OW68893   9.080  11.665   9.917
88999SOL    HW168894   9.015  11.728   9.948
88999SOL    HW268895   9.093  11.606   9.991
89000SOL     OW68896   3.677   5.706   8.506
89000SOL    HW168897   3.663   5.639   8.573
89000SOL    HW268898   3.666   5.659   8.423
89001SOL     OW68899   9.001   9.118   6.809
89001SOL    HW168900   8.947   9.043   6.834
89001SOL    HW268901   9.062   9.084   6.744
89002SOL     OW68902  14.746  10.620  11.412
89002SOL    HW168903  14.698  10.546  11.449
89002SOL    HW268904  14.824  10.581  11.373
89003SOL     OW68905   7.811  11.525  10.073
89003SOL    HW168906   7.885  11.535  10.012
89003SOL    HW268907   7.734  11.517  10.017
89004SOL     OW68908   0.358  12.767  13.799
89004SOL    HW168909   0.358  12.840  13.736
89004SOL    HW268910   0.450  12.742  13.805
89005SOL     OW68911  14.852   1.163   7.638
89005SOL    HW168912   0.052   1.180   7.603
89005SOL    HW268913  14.793   1.179   7.564
89006SOL     OW68914  10.446   4.266  11.710
89006SOL    HW168915  10.488   4.342  11.671
89006SOL    HW268916  10.516   4.202  11.720
89007SOL     OW68917  11.697   7.229   6.942
89007SOL    HW168918  11.662   7.149   6.982
89007SOL    HW268919  11.764   7.260   7.003
89008SOL     OW68920   3.655  12.308   0.739
89008SOL    HW168921   3.565  12.341   0.744
89008SOL    HW268922   3.692  12.325   0.826
89009SOL     OW68923   0.518   3.690   9.492
89009SOL    HW168924   0.512   3.733   9.577
89009SOL    HW268925   0.449   3.623   9.494
89010SOL     OW68926  11.671   3.246   6.121
89010SOL    HW168927  11.682   3.160   6.161
89010SOL    HW268928  11.709   3.307   6.183
89011SOL     OW68929   2.614   9.716  14.712
89011SOL    HW168930   2.632   9.740  14.621
89011SOL    HW268931   2.686   9.753  14.762
89012SOL     OW68932   6.219   2.023   7.943
89012SOL    HW168933   6.156   2.076   7.893
89012SOL    HW268934   6.301   2.072   7.937
89013SOL     OW68935  11.709   0.986   7.346
89013SOL    HW168936  11.789   1.039   7.348
89013SOL    HW268937  11.720   0.924   7.419
89014SOL     OW68938   5.126   8.204   6.081
89014SOL    HW168939   5.117   8.117   6.119
89014SOL    HW268940   5.212   8.235   6.111
89015SOL     OW68941   3.992  14.500   5.820
89015SOL    HW168942   3.965  14.518   5.730
89015SOL    HW268943   3.942  14.563   5.873
89016SOL     OW68944   0.264   6.659   7.027
89016SOL    HW168945   0.271   6.747   6.989
89016SOL    HW268946   0.253   6.675   7.121
89017SOL     OW68947  14.316   6.164   7.340
89017SOL    HW168948  14.372   6.136   7.268
89017SOL    HW268949  14.275   6.245   7.308
89018SOL     OW68950  13.132   5.074  12.222
89018SOL    HW168951  13.217   5.105  12.191
89018SOL    HW268952  13.134   4.979  12.206
89019SOL     OW68953  11.320   5.116   8.078
89019SOL    HW168954  11.372   5.137   8.001
89019SOL    HW268955  11.260   5.191   8.089
89020SOL     OW68956   7.917   8.846  14.627
89020SOL    HW168957   7.839   8.894  14.654
89020SOL    HW268958   7.930   8.780  14.696
89021SOL     OW68959   0.477   0.298   6.562
89021SOL    HW168960   0.381   0.295   6.565
89021SOL    HW268961   0.505   0.212   6.591
89022SOL     OW68962  11.725  12.681   1.504
89022SOL    HW168963  11.656  12.683   1.571
89022SOL    HW268964  11.678  12.670   1.421
89023SOL     OW68965   7.188   8.469  14.351
89023SOL    HW168966   7.102   8.427  14.360
89023SOL    HW268967   7.240   8.432  14.422
89024SOL     OW68968   4.150   8.604   2.113
89024SOL    HW168969   4.058   8.599   2.086
89024SOL    HW268970   4.175   8.695   2.097
89025SOL     OW68971  12.052   5.515  13.522
89025SOL    HW168972  12.061   5.496  13.615
89025SOL    HW268973  11.999   5.594  13.518
89026SOL     OW68974   6.270   2.798   5.807
89026SOL    HW168975   6.186   2.843   5.793
89026SOL    HW268976   6.314   2.804   5.723
89027SOL     OW68977   1.058  13.761   4.530
89027SOL    HW168978   1.147  13.724   4.531
89027SOL    HW268979   1.001  13.685   4.526
89028SOL     OW68980  11.090  11.530   2.270
89028SOL    HW168981  11.145  11.503   2.196
89028SOL    HW268982  11.011  11.478   2.261
89029SOL     OW68983   5.520   0.587   5.968
89029SOL    HW168984   5.432   0.580   6.003
89029SOL    HW268985   5.577   0.563   6.041
89030SOL     OW68986   0.468   9.730   6.746
89030SOL    HW168987   0.471   9.824   6.725
89030SOL    HW268988   0.375   9.711   6.760
89031SOL     OW68989  12.584  14.289   0.001
89031SOL    HW168990  12.662  14.343  14.875
89031SOL    HW268991  12.519  14.350   0.036
89032SOL     OW68992   6.431  10.439  12.296
89032SOL    HW168993   6.488  10.407  12.366
89032SOL    HW268994   6.492  10.464  12.226
89033SOL     OW68995   8.401  11.031  10.088
89033SOL    HW168996   8.327  10.971  10.081
89033SOL    HW268997   8.467  10.983  10.137
89034SOL     OW68998  13.174   3.014   3.674
89034SOL    HW168999  13.218   3.055   3.600
89034SOL    HW269000  13.219   3.048   3.751
89035SOL     OW69001   5.541   3.016   1.190
89035SOL    HW169002   5.566   2.945   1.130
89035SOL    HW269003   5.482   3.072   1.138
89036SOL     OW69004   6.346   5.949  11.326
89036SOL    HW169005   6.389   5.869  11.357
89036SOL    HW269006   6.253   5.931  11.337
89037SOL     OW69007   9.750   6.123  13.633
89037SOL    HW169008   9.765   6.066  13.709
89037SOL    HW269009   9.777   6.070  13.558
89038SOL     OW69010   4.478   6.363   5.699
89038SOL    HW169011   4.516   6.276   5.713
89038SOL    HW269012   4.502   6.385   5.609
89039SOL     OW69013  10.940  12.216   3.608
89039SOL    HW169014  10.931  12.280   3.679
89039SOL    HW269015  11.034  12.212   3.590
89040SOL     OW69016   1.221  11.439   3.494
89040SOL    HW169017   1.220  11.535   3.499
89040SOL    HW269018   1.156  11.418   3.427
89041SOL     OW69019   3.306   1.687   3.953
89041SOL    HW169020   3.392   1.695   3.994
89041SOL    HW269021   3.325   1.668   3.862
89042SOL     OW69022   6.276   2.974   8.944
89042SOL    HW169023   6.225   3.035   8.998
89042SOL    HW269024   6.287   3.020   8.861
89043SOL     OW69025  14.113  10.596   1.524
89043SOL    HW169026  14.086  10.533   1.591
89043SOL    HW269027  14.177  10.548   1.471
89044SOL     OW69028   7.618  12.922   8.089
89044SOL    HW169029   7.575  12.901   8.172
89044SOL    HW269030   7.595  13.014   8.073
89045SOL     OW69031  12.094   2.497  14.523
89045SOL    HW169032  12.124   2.406  14.519
89045SOL    HW269033  12.087   2.524  14.432
89046SOL     OW69034   5.712   2.799   1.591
89046SOL    HW169035   5.742   2.843   1.511
89046SOL    HW269036   5.617   2.811   1.591
89047SOL     OW69037  13.400   0.316   9.292
89047SOL    HW169038  13.476   0.295   9.238
89047SOL    HW269039  13.324   0.294   9.237
89048SOL     OW69040   4.292   7.277  14.036
89048SOL    HW169041   4.333   7.194  14.009
89048SOL    HW269042   4.366   7.335  14.053
89049SOL     OW69043  10.972   6.380   8.115
89049SOL    HW169044  11.032   6.454   8.117
89049SOL    HW269045  10.885   6.420   8.120
89050SOL     OW69046   4.419   6.602  14.435
89050SOL    HW169047   4.364   6.524  14.443
89050SOL    HW269048   4.423   6.637  14.524
89051SOL     OW69049   5.969   1.535   1.789
89051SOL    HW169050   5.945   1.536   1.697
89051SOL    HW269051   5.886   1.534   1.836
89052SOL     OW69052  13.213  10.140   7.567
89052SOL    HW169053  13.213  10.223   7.615
89052SOL    HW269054  13.305  10.127   7.542
89053SOL     OW69055  13.432   3.857   4.913
89053SOL    HW169056  13.391   3.836   4.829
89053SOL    HW269057  13.513   3.902   4.889
89054SOL     OW69058  11.228  12.530  12.767
89054SOL    HW169059  11.292  12.462  12.742
89054SOL    HW269060  11.144  12.493  12.742
89055SOL     OW69061   7.848  12.925  11.050
89055SOL    HW169062   7.943  12.929  11.059
89055SOL    HW269063   7.833  12.894  10.961
89056SOL     OW69064   0.374   8.042  12.520
89056SOL    HW169065   0.289   8.077  12.493
89056SOL    HW269066   0.358   7.949  12.534
89057SOL     OW69067  11.810  11.806  11.499
89057SOL    HW169068  11.833  11.768  11.583
89057SOL    HW269069  11.891  11.804  11.448
89058SOL     OW69070   4.612  14.643   2.222
89058SOL    HW169071   4.535  14.699   2.224
89058SOL    HW269072   4.595  14.576   2.289
89059SOL     OW69073  11.376   1.335   0.892
89059SOL    HW169074  11.290   1.363   0.861
89059SOL    HW269075  11.408   1.277   0.823
89060SOL     OW69076   0.042  14.150   1.286
89060SOL    HW169077  14.851  14.125   1.238
89060SOL    HW269078   0.024  14.239   1.317
89061SOL     OW69079   3.850  10.720  13.508
89061SOL    HW169080   3.824  10.779  13.579
89061SOL    HW269081   3.940  10.695  13.529
89062SOL     OW69082   2.241   0.669  13.197
89062SOL    HW169083   2.269   0.681  13.106
89062SOL    HW269084   2.303   0.722  13.248
89063SOL     OW69085   2.195  11.944   4.754
89063SOL    HW169086   2.169  12.000   4.827
89063SOL    HW269087   2.244  12.001   4.696
89064SOL     OW69088   2.925   9.705  13.208
89064SOL    HW169089   2.941   9.649  13.132
89064SOL    HW269090   2.898   9.645  13.277
89065SOL     OW69091  11.970   9.525  14.679
89065SOL    HW169092  12.061   9.514  14.651
89065SOL    HW269093  11.920   9.468  14.621
89066SOL     OW69094   5.891  10.630   5.654
89066SOL    HW169095   5.949  10.672   5.717
89066SOL    HW269096   5.949  10.596   5.586
89067SOL     OW69097  13.373   8.204   8.250
89067SOL    HW169098  13.447   8.184   8.193
89067SOL    HW269099  13.407   8.190   8.338
89068SOL     OW69100   9.006   5.564   8.508
89068SOL    HW169101   8.980   5.479   8.544
89068SOL    HW269102   8.947   5.576   8.433
89069SOL     OW69103   6.260   6.728  12.013
89069SOL    HW169104   6.354   6.744  12.022
89069SOL    HW269105   6.253   6.632  12.008
89070SOL     OW69106  13.680   7.338   9.474
89070SOL    HW169107  13.746   7.272   9.452
89070SOL    HW269108  13.725   7.422   9.466
89071SOL     OW69109   2.420   9.765   5.436
89071SOL    HW169110   2.386   9.767   5.525
89071SOL    HW269111   2.393   9.848   5.398
89072SOL     OW69112   3.346   3.605   0.281
89072SOL    HW169113   3.413   3.553   0.237
89072SOL    HW269114   3.336   3.683   0.227
89073SOL     OW69115   6.027   0.522   4.429
89073SOL    HW169116   5.972   0.445   4.441
89073SOL    HW269117   6.086   0.499   4.358
89074SOL     OW69118  13.980  13.434   8.234
89074SOL    HW169119  14.037  13.359   8.253
89074SOL    HW269120  13.905  13.423   8.293
89075SOL     OW69121  10.473  13.957  14.774
89075SOL    HW169122  10.465  13.873  14.820
89075SOL    HW269123  10.511  14.016  14.839
89076SOL     OW69124   0.897  11.393  14.676
89076SOL    HW169125   0.937  11.362  14.594
89076SOL    HW269126   0.877  11.485  14.659
89077SOL     OW69127   4.255  12.902   1.586
89077SOL    HW169128   4.332  12.892   1.643
89077SOL    HW269129   4.194  12.954   1.639
89078SOL     OW69130   5.980   1.909   1.712
89078SOL    HW169131   5.940   1.884   1.796
89078SOL    HW269132   6.068   1.870   1.715
89079SOL     OW69133   6.921   6.551   8.907
89079SOL    HW169134   6.935   6.587   8.995
89079SOL    HW269135   6.840   6.593   8.877
89080SOL     OW69136   8.286   4.678  11.933
89080SOL    HW169137   8.247   4.604  11.978
89080SOL    HW269138   8.255   4.755  11.982
89081SOL     OW69139   2.607   2.136   0.088
89081SOL    HW169140   2.696   2.137   0.052
89081SOL    HW269141   2.586   2.043   0.095
89082SOL     OW69142   0.548   9.546   8.329
89082SOL    HW169143   0.620   9.551   8.392
89082SOL    HW269144   0.540   9.452   8.309
89083SOL     OW69145   2.089   1.647   2.391
89083SOL    HW169146   2.097   1.693   2.307
89083SOL    HW269147   2.071   1.556   2.366
89084SOL     OW69148   0.479   7.910  10.946
89084SOL    HW169149   0.547   7.898  11.013
89084SOL    HW269150   0.527   7.927  10.865
89085SOL     OW69151  10.823  13.835   4.480
89085SOL    HW169152  10.913  13.866   4.484
89085SOL    HW269153  10.772  13.905   4.522
89086SOL     OW69154   0.070  11.778   1.021
89086SOL    HW169155   0.031  11.839   0.958
89086SOL    HW269156   0.104  11.706   0.968
89087SOL     OW69157   0.115   9.593   3.654
89087SOL    HW169158   0.167   9.559   3.581
89087SOL    HW269159   0.158   9.675   3.678
89088SOL     OW69160   7.581  13.685   0.941
89088SOL    HW169161   7.614  13.666   1.029
89088SOL    HW269162   7.634  13.629   0.883
89089SOL     OW69163   3.466   2.984  10.546
89089SOL    HW169164   3.533   3.050  10.527
89089SOL    HW269165   3.485   2.912  10.486
89090SOL     OW69166   1.092   5.683   3.606
89090SOL    HW169167   1.106   5.736   3.684
89090SOL    HW269168   1.094   5.746   3.534
89091SOL     OW69169   8.097   8.011  12.551
89091SOL    HW169170   8.039   7.939  12.528
89091SOL    HW269171   8.129   8.044  12.467
89092SOL     OW69172   2.149  11.026  12.935
89092SOL    HW169173   2.167  11.073  12.853
89092SOL    HW269174   2.054  11.013  12.934
89093SOL     OW69175   7.605  11.910   3.329
89093SOL    HW169176   7.668  11.838   3.324
89093SOL    HW269177   7.562  11.910   3.243
89094SOL     OW69178   0.542  14.407   3.318
89094SOL    HW169179   0.621  14.442   3.360
89094SOL    HW269180   0.544  14.444   3.230
89095SOL     OW69181   1.079   3.276   2.827
89095SOL    HW169182   1.156   3.262   2.772
89095SOL    HW269183   1.043   3.359   2.797
89096SOL     OW69184   8.941   5.468  11.189
89096SOL    HW169185   9.035   5.477  11.174
89096SOL    HW269186   8.905   5.556  11.175
89097SOL     OW69187   1.578   7.350   2.620
89097SOL    HW169188   1.626   7.432   2.627
89097SOL    HW269189   1.646   7.282   2.626
89098SOL     OW69190   2.765   0.749  14.590
89098SOL    HW169191   2.775   0.734  14.684
89098SOL    HW269192   2.699   0.685  14.563
89099SOL     OW69193   9.012   5.221  13.262
89099SOL    HW169194   9.056   5.278  13.325
89099SOL    HW269195   8.928   5.200  13.304
89100SOL     OW69196   4.776  10.658   9.920
89100SOL    HW169197   4.838  10.634   9.851
89100SOL    HW269198   4.823  10.639  10.002
89101SOL     OW69199   6.085   0.770   1.428
89101SOL    HW169200   6.035   0.774   1.509
89101SOL    HW269201   6.023   0.799   1.360
89102SOL     OW69202   8.410   8.257   0.179
89102SOL    HW169203   8.429   8.348   0.200
89102SOL    HW269204   8.494   8.220   0.150
89103SOL     OW69205  10.047   4.820   6.561
89103SOL    HW169206  10.115   4.871   6.605
89103SOL    HW269207  10.063   4.834   6.467
89104SOL     OW69208  14.182   4.737  12.347
89104SOL    HW169209  14.195   4.721  12.254
89104SOL    HW269210  14.088   4.754  12.357
89105SOL     OW69211   8.453  12.699   2.551
89105SOL    HW169212   8.405  12.672   2.629
89105SOL    HW269213   8.490  12.618   2.516
89106SOL     OW69214   7.402  10.074   3.968
89106SOL    HW169215   7.332  10.080   3.903
89106SOL    HW269216   7.452  10.155   3.957
89107SOL     OW69217  14.332   2.474   9.541
89107SOL    HW169218  14.248   2.512   9.516
89107SOL    HW269219  14.332   2.477   9.637
89108SOL     OW69220  11.418   0.597  11.003
89108SOL    HW169221  11.335   0.599  10.955
89108SOL    HW269222  11.395   0.558  11.087
89109SOL     OW69223   7.593   4.348  11.113
89109SOL    HW169224   7.612   4.268  11.065
89109SOL    HW269225   7.674   4.370  11.157
89110SOL     OW69226   9.842   1.621   6.633
89110SOL    HW169227   9.796   1.537   6.628
89110SOL    HW269228   9.875   1.636   6.545
89111SOL     OW69229   7.899   3.163   1.449
89111SOL    HW169230   7.845   3.242   1.441
89111SOL    HW269231   7.893   3.139   1.542
89112SOL     OW69232  12.945   1.562   8.763
89112SOL    HW169233  12.913   1.595   8.679
89112SOL    HW269234  13.023   1.510   8.741
89113SOL     OW69235   4.161   7.112   1.771
89113SOL    HW169236   4.110   7.147   1.698
89113SOL    HW269237   4.212   7.041   1.732
89114SOL     OW69238   7.150   2.078   3.906
89114SOL    HW169239   7.093   2.043   3.974
89114SOL    HW269240   7.091   2.123   3.846
89115SOL     OW69241   6.844   0.502   8.175
89115SOL    HW169242   6.782   0.431   8.192
89115SOL    HW269243   6.804   0.579   8.215
89116SOL     OW69244   8.022  11.386   9.944
89116SOL    HW169245   8.004  11.333   9.866
89116SOL    HW269246   8.075  11.329   9.999
89117SOL     OW69247   7.525  12.639   0.353
89117SOL    HW169248   7.569  12.561   0.386
89117SOL    HW269249   7.595  12.692   0.313
89118SOL     OW69250   7.460   8.533  10.024
89118SOL    HW169251   7.375   8.503   9.990
89118SOL    HW269252   7.516   8.539   9.947
89119SOL     OW69253   6.546   8.607  11.600
89119SOL    HW169254   6.586   8.525  11.631
89119SOL    HW269255   6.607   8.639  11.533
89120SOL     OW69256  12.101   4.635  11.338
89120SOL    HW169257  12.138   4.566  11.284
89120SOL    HW269258  12.141   4.715  11.305
89121SOL     OW69259   2.138   6.973   2.778
89121SOL    HW169260   2.172   7.050   2.822
89121SOL    HW269261   2.112   6.914   2.849
89122SOL     OW69262   6.570   5.414  12.291
89122SOL    HW169263   6.568   5.510  12.297
89122SOL    HW269264   6.658   5.390  12.320
89123SOL     OW69265   7.325  14.165   3.385
89123SOL    HW169266   7.267  14.164   3.308
89123SOL    HW269267   7.347  14.258   3.397
89124SOL     OW69268  13.992  13.425   2.697
89124SOL    HW169269  14.024  13.470   2.619
89124SOL    HW269270  13.921  13.480   2.730
89125SOL     OW69271  11.818   8.017   5.167
89125SOL    HW169272  11.875   7.982   5.098
89125SOL    HW269273  11.804   7.944   5.226
89126SOL     OW69274   9.632   2.047  10.440
89126SOL    HW169275   9.683   2.026  10.519
89126SOL    HW269276   9.688   2.019  10.367
89127SOL     OW69277   8.705   2.966   6.238
89127SOL    HW169278   8.777   2.917   6.200
89127SOL    HW269279   8.664   2.906   6.300
89128SOL     OW69280   4.872  11.975   0.832
89128SOL    HW169281   4.912  11.895   0.798
89128SOL    HW269282   4.786  11.978   0.791
89129SOL     OW69283  12.140   6.416   2.436
89129SOL    HW169284  12.189   6.418   2.354
89129SOL    HW269285  12.169   6.494   2.484
89130SOL     OW69286  11.397   4.009   2.789
89130SOL    HW169287  11.378   3.948   2.719
89130SOL    HW269288  11.410   4.093   2.745
89131SOL     OW69289  12.252   7.148   8.738
89131SOL    HW169290  12.223   7.066   8.696
89131SOL    HW269291  12.185   7.166   8.804
89132SOL     OW69292   3.909   9.770   5.244
89132SOL    HW169293   3.888   9.692   5.296
89132SOL    HW269294   3.949   9.735   5.164
89133SOL     OW69295   2.573   9.321   6.898
89133SOL    HW169296   2.638   9.330   6.828
89133SOL    HW269297   2.567   9.408   6.936
89134SOL     OW69298   0.947   2.291   5.905
89134SOL    HW169299   0.924   2.312   5.995
89134SOL    HW269300   1.035   2.253   5.910
89135SOL     OW69301   4.668   5.798  11.607
89135SOL    HW169302   4.736   5.791  11.673
89135SOL    HW269303   4.587   5.776  11.653
89136SOL     OW69304   4.360   8.927   3.645
89136SOL    HW169305   4.390   8.955   3.558
89136SOL    HW269306   4.319   8.842   3.629
89137SOL     OW69307   7.967   1.392  11.519
89137SOL    HW169308   7.945   1.405  11.426
89137SOL    HW269309   7.887   1.354  11.557
89138SOL     OW69310   1.564  12.893  10.319
89138SOL    HW169311   1.525  12.963  10.267
89138SOL    HW269312   1.490  12.838  10.344
89139SOL     OW69313   1.962   5.901   6.790
89139SOL    HW169314   1.987   5.991   6.768
89139SOL    HW269315   2.042   5.851   6.776
89140SOL     OW69316   6.448   2.640  10.966
89140SOL    HW169317   6.407   2.726  10.978
89140SOL    HW269318   6.493   2.623  11.049
89141SOL     OW69319   3.203  14.097  11.623
89141SOL    HW169320   3.108  14.087  11.616
89141SOL    HW269321   3.216  14.184  11.659
89142SOL     OW69322   9.219  13.877   1.828
89142SOL    HW169323   9.242  13.947   1.767
89142SOL    HW269324   9.279  13.889   1.901
89143SOL     OW69325   9.137  11.200  14.815
89143SOL    HW169326   9.135  11.105  14.810
89143SOL    HW269327   9.212  11.226  14.760
89144SOL     OW69328   1.811   2.654   3.942
89144SOL    HW169329   1.846   2.659   4.030
89144SOL    HW269330   1.803   2.745   3.914
89145SOL     OW69331   9.432   0.396  11.942
89145SOL    HW169332   9.452   0.322  12.000
89145SOL    HW269333   9.494   0.387  11.870
89146SOL     OW69334   8.812   7.616  11.992
89146SOL    HW169335   8.727   7.643  11.955
89146SOL    HW269336   8.793   7.535  12.040
89147SOL     OW69337   6.236   0.012   4.080
89147SOL    HW169338   6.305  14.885   4.016
89147SOL    HW269339   6.282   0.027   4.163
89148SOL     OW69340   3.649   1.128   3.052
89148SOL    HW169341   3.612   1.058   3.106
89148SOL    HW269342   3.711   1.172   3.109
89149SOL     OW69343  10.988   7.379   2.371
89149SOL    HW169344  11.054   7.413   2.431
89149SOL    HW269345  10.940   7.456   2.342
89150SOL     OW69346  12.997  12.563   9.975
89150SOL    HW169347  12.941  12.591  10.047
89150SOL    HW269348  13.044  12.642   9.949
89151SOL     OW69349  10.477  13.342  12.178
89151SOL    HW169350  10.568  13.330  12.150
89151SOL    HW269351  10.481  13.414  12.241
89152SOL     OW69352   4.961   5.466   4.337
89152SOL    HW169353   5.046   5.481   4.377
89152SOL    HW269354   4.898   5.486   4.407
89153SOL     OW69355   0.765   6.548   2.198
89153SOL    HW169356   0.759   6.578   2.289
89153SOL    HW269357   0.837   6.600   2.161
89154SOL     OW69358   9.609  14.080   9.610
89154SOL    HW169359   9.672  14.136   9.565
89154SOL    HW269360   9.616  13.995   9.567
89155SOL     OW69361  11.145   3.678   3.112
89155SOL    HW169362  11.155   3.591   3.074
89155SOL    HW269363  11.202   3.734   3.059
89156SOL     OW69364   0.892   0.361   7.200
89156SOL    HW169365   0.975   0.316   7.212
89156SOL    HW269366   0.883   0.370   7.105
89157SOL     OW69367  11.282  11.860   2.025
89157SOL    HW169368  11.305  11.796   1.957
89157SOL    HW269369  11.190  11.841   2.045
89158SOL     OW69370  11.085   5.352   7.007
89158SOL    HW169371  11.041   5.323   7.087
89158SOL    HW269372  11.075   5.279   6.946
89159SOL     OW69373   1.870   1.117  12.473
89159SOL    HW169374   1.920   1.059  12.416
89159SOL    HW269375   1.792   1.139  12.423
89160SOL     OW69376   3.858   5.188   9.020
89160SOL    HW169377   3.810   5.106   9.029
89160SOL    HW269378   3.945   5.162   8.988
89161SOL     OW69379   2.135   9.956  13.229
89161SOL    HW169380   2.070   9.939  13.297
89161SOL    HW269381   2.091  10.015  13.168
89162SOL     OW69382   2.006   5.588  11.143
89162SOL    HW169383   1.939   5.644  11.104
89162SOL    HW269384   2.047   5.544  11.068
89163SOL     OW69385   7.546   2.572  10.901
89163SOL    HW169386   7.481   2.507  10.927
89163SOL    HW269387   7.629   2.539  10.934
89164SOL     OW69388   1.788   6.506   9.260
89164SOL    HW169389   1.837   6.463   9.190
89164SOL    HW269390   1.696   6.499   9.232
89165SOL     OW69391  10.287  13.092  14.456
89165SOL    HW169392  10.302  13.132  14.371
89165SOL    HW269393  10.277  13.166  14.516
89166SOL     OW69394   2.422   9.669  10.563
89166SOL    HW169395   2.510   9.630  10.566
89166SOL    HW269396   2.438   9.763  10.558
89167SOL     OW69397   4.920   9.154   9.777
89167SOL    HW169398   4.907   9.059   9.783
89167SOL    HW269399   4.832   9.190   9.782
89168SOL     OW69400  14.626  10.345   9.762
89168SOL    HW169401  14.560  10.277   9.748
89168SOL    HW269402  14.639  10.384   9.676
89169SOL     OW69403  11.538   9.902   3.863
89169SOL    HW169404  11.608   9.865   3.916
89169SOL    HW269405  11.581   9.930   3.782
89170SOL     OW69406   8.742   7.685   4.458
89170SOL    HW169407   8.674   7.744   4.427
89170SOL    HW269408   8.800   7.674   4.382
89171SOL     OW69409   5.504   8.940   1.463
89171SOL    HW169410   5.576   8.902   1.515
89171SOL    HW269411   5.484   9.022   1.507
89172SOL     OW69412  11.074  11.920   0.930
89172SOL    HW169413  11.090  11.826   0.932
89172SOL    HW269414  10.981  11.929   0.949
89173SOL     OW69415  14.537   7.872   7.987
89173SOL    HW169416  14.551   7.822   7.907
89173SOL    HW269417  14.567   7.961   7.966
89174SOL     OW69418  14.335  10.514  14.277
89174SOL    HW169419  14.269  10.560  14.328
89174SOL    HW269420  14.398  10.582  14.253
89175SOL     OW69421   2.729  12.200  14.298
89175SOL    HW169422   2.692  12.209  14.210
89175SOL    HW269423   2.714  12.285  14.339
89176SOL     OW69424   9.418  12.511   1.162
89176SOL    HW169425   9.354  12.571   1.201
89176SOL    HW269426   9.476  12.567   1.112
89177SOL     OW69427   3.567   3.741   0.595
89177SOL    HW169428   3.647   3.785   0.567
89177SOL    HW269429   3.550   3.775   0.683
89178SOL     OW69430  14.410  12.846   7.871
89178SOL    HW169431  14.381  12.936   7.883
89178SOL    HW269432  14.384  12.824   7.781
89179SOL     OW69433   4.419   9.611   3.366
89179SOL    HW169434   4.401   9.658   3.285
89179SOL    HW269435   4.414   9.519   3.342
89180SOL     OW69436   8.462   9.584  14.003
89180SOL    HW169437   8.421   9.596  13.917
89180SOL    HW269438   8.510   9.666  14.019
89181SOL     OW69439  13.959  12.469   0.734
89181SOL    HW169440  13.948  12.514   0.650
89181SOL    HW269441  14.002  12.534   0.790
89182SOL     OW69442  12.611   8.606   0.606
89182SOL    HW169443  12.621   8.573   0.517
89182SOL    HW269444  12.699   8.602   0.643
89183SOL     OW69445   9.587   1.495   1.728
89183SOL    HW169446   9.493   1.506   1.716
89183SOL    HW269447   9.602   1.401   1.717
89184SOL     OW69448   3.224   1.628  14.368
89184SOL    HW169449   3.229   1.710  14.416
89184SOL    HW269450   3.149   1.582  14.407
89185SOL     OW69451   1.456   5.506  10.514
89185SOL    HW169452   1.373   5.458  10.519
89185SOL    HW269453   1.445   5.568  10.442
89186SOL     OW69454   0.887   9.892   6.683
89186SOL    HW169455   0.820   9.883   6.615
89186SOL    HW269456   0.931   9.974   6.662
89187SOL     OW69457  13.873  12.881   7.224
89187SOL    HW169458  13.856  12.794   7.187
89187SOL    HW269459  13.967  12.893   7.217
89188SOL     OW69460  14.231   3.590  12.000
89188SOL    HW169461  14.260   3.666  12.051
89188SOL    HW269462  14.307   3.567  11.946
89189SOL     OW69463   1.265   5.748   9.696
89189SOL    HW169464   1.230   5.712   9.777
89189SOL    HW269465   1.340   5.692   9.676
89190SOL     OW69466   3.989   8.336   4.288
89190SOL    HW169467   3.895   8.353   4.285
89190SOL    HW269468   3.997   8.242   4.273
89191SOL     OW69469  13.063   8.954   7.404
89191SOL    HW169470  13.115   8.982   7.480
89191SOL    HW269471  12.982   9.005   7.411
89192SOL     OW69472   9.811  12.843   2.742
89192SOL    HW169473   9.860  12.897   2.804
89192SOL    HW269474   9.720  12.850   2.770
89193SOL     OW69475   0.318  10.375   0.052
89193SOL    HW169476   0.377  10.403  14.870
89193SOL    HW269477   0.311  10.280   0.040
89194SOL     OW69478  14.171  11.641   3.491
89194SOL    HW169479  14.133  11.728   3.504
89194SOL    HW269480  14.216  11.647   3.407
89195SOL     OW69481  14.185   0.776   1.592
89195SOL    HW169482  14.169   0.707   1.656
89195SOL    HW269483  14.276   0.802   1.608
89196SOL     OW69484   4.492  14.155  14.729
89196SOL    HW169485   4.416  14.213  14.729
89196SOL    HW269486   4.466  14.080  14.783
89197SOL     OW69487  14.172   0.235   6.872
89197SOL    HW169488  14.146   0.270   6.957
89197SOL    HW269489  14.097   0.251   6.815
89198SOL     OW69490   2.570   5.914   4.303
89198SOL    HW169491   2.567   5.966   4.222
89198SOL    HW269492   2.478   5.903   4.327
89199SOL     OW69493  13.425   7.459   8.495
89199SOL    HW169494  13.438   7.443   8.401
89199SOL    HW269495  13.333   7.483   8.503
89200SOL     OW69496   2.082   7.650  12.729
89200SOL    HW169497   2.098   7.581  12.664
89200SOL    HW269498   1.987   7.657  12.733
89201SOL     OW69499   9.070   1.419   0.104
89201SOL    HW169500   9.111   1.374   0.178
89201SOL    HW269501   9.136   1.418   0.035
89202SOL     OW69502   7.271  13.217   5.247
89202SOL    HW169503   7.179  13.215   5.223
89202SOL    HW269504   7.308  13.138   5.209
89203SOL     OW69505   5.138   0.640   0.571
89203SOL    HW169506   5.105   0.550   0.574
89203SOL    HW269507   5.142   0.660   0.477
89204SOL     OW69508   8.003  10.303   1.825
89204SOL    HW169509   8.066  10.248   1.871
89204SOL    HW269510   8.056  10.355   1.764
89205SOL     OW69511  12.964   4.373   7.340
89205SOL    HW169512  12.901   4.375   7.412
89205SOL    HW269513  12.993   4.464   7.331
89206SOL     OW69514  14.410   8.966   5.984
89206SOL    HW169515  14.505   8.963   5.973
89206SOL    HW269516  14.386   9.055   5.960
89207SOL     OW69517  11.192   8.699   0.065
89207SOL    HW169518  11.097   8.688   0.066
89207SOL    HW269519  11.218   8.687   0.156
89208SOL     OW69520  11.912  12.758  11.719
89208SOL    HW169521  11.943  12.766  11.628
89208SOL    HW269522  11.954  12.831  11.765
89209SOL     OW69523  10.612  12.865   5.666
89209SOL    HW169524  10.599  12.770   5.671
89209SOL    HW269525  10.572  12.891   5.583
89210SOL     OW69526  14.108   0.255   2.375
89210SOL    HW169527  14.061   0.328   2.336
89210SOL    HW269528  14.199   0.267   2.346
89211SOL     OW69529  11.960  11.755  11.041
89211SOL    HW169530  12.034  11.694  11.047
89211SOL    HW269531  11.997  11.832  10.997
89212SOL     OW69532   6.670   0.709   6.393
89212SOL    HW169533   6.642   0.677   6.307
89212SOL    HW269534   6.624   0.653   6.456
89213SOL     OW69535   9.648   9.760  12.817
89213SOL    HW169536   9.675   9.819  12.888
89213SOL    HW269537   9.730   9.724  12.784
89214SOL     OW69538   3.968   0.922   7.978
89214SOL    HW169539   3.916   0.917   8.058
89214SOL    HW269540   4.058   0.927   8.008
89215SOL     OW69541   1.392  10.487   7.998
89215SOL    HW169542   1.393  10.553   7.929
89215SOL    HW269543   1.314  10.434   7.980
89216SOL     OW69544   3.762   5.187  10.446
89216SOL    HW169545   3.688   5.236  10.482
89216SOL    HW269546   3.728   5.099  10.432
89217SOL     OW69547   3.754  11.121  13.338
89217SOL    HW169548   3.829  11.064  13.320
89217SOL    HW269549   3.775  11.203  13.294
89218SOL     OW69550   4.785  10.229  11.109
89218SOL    HW169551   4.829  10.157  11.065
89218SOL    HW269552   4.712  10.188  11.156
89219SOL     OW69553   6.203   3.093   7.722
89219SOL    HW169554   6.248   3.010   7.709
89219SOL    HW269555   6.267   3.148   7.768
89220SOL     OW69556   3.445  10.243   1.820
89220SOL    HW169557   3.491  10.281   1.745
89220SOL    HW269558   3.385  10.179   1.781
89221SOL     OW69559  11.088   4.097   6.788
89221SOL    HW169560  11.173   4.115   6.828
89221SOL    HW269561  11.025   4.140   6.845
89222SOL     OW69562   8.858   2.358   6.083
89222SOL    HW169563   8.899   2.405   6.011
89222SOL    HW269564   8.767   2.389   6.083
89223SOL     OW69565  12.238  10.027   4.266
89223SOL    HW169566  12.248  10.122   4.265
89223SOL    HW269567  12.181  10.010   4.341
89224SOL     OW69568   4.355   4.711   8.448
89224SOL    HW169569   4.435   4.662   8.467
89224SOL    HW269570   4.374   4.800   8.477
89225SOL     OW69571   8.422   1.601   2.809
89225SOL    HW169572   8.360   1.626   2.741
89225SOL    HW269573   8.435   1.507   2.798
89226SOL     OW69574   0.023   9.490   1.013
89226SOL    HW169575  14.821   9.496   1.048
89226SOL    HW269576   0.056   9.580   1.018
89227SOL     OW69577   5.020   8.974   7.324
89227SOL    HW169578   4.939   9.000   7.280
89227SOL    HW269579   5.043   8.890   7.284
89228SOL     OW69580   3.654   6.777  11.519
89228SOL    HW169581   3.742   6.746  11.542
89228SOL    HW269582   3.601   6.758  11.596
89229SOL     OW69583  13.053  14.734   0.618
89229SOL    HW169584  13.014  14.656   0.659
89229SOL    HW269585  13.129  14.701   0.571
89230SOL     OW69586   9.894   0.812  11.790
89230SOL    HW169587   9.923   0.900  11.814
89230SOL    HW269588   9.802   0.810  11.816
89231SOL     OW69589  10.944   8.964  10.491
89231SOL    HW169590  11.014   9.028  10.483
89231SOL    HW269591  10.873   9.011  10.535
89232SOL     OW69592   1.262  10.494   7.366
89232SOL    HW169593   1.330  10.537   7.315
89232SOL    HW269594   1.245  10.412   7.319
89233SOL     OW69595   3.227   0.134   2.804
89233SOL    HW169596   3.240   0.083   2.884
89233SOL    HW269597   3.291   0.099   2.742
89234SOL     OW69598  13.685   3.041  10.845
89234SOL    HW169599  13.630   3.118  10.860
89234SOL    HW269600  13.717   3.051  10.755
89235SOL     OW69601  13.323   7.592   9.691
89235SOL    HW169602  13.336   7.503   9.656
89235SOL    HW269603  13.327   7.581   9.786
89236SOL     OW69604   3.109   9.758   9.241
89236SOL    HW169605   3.154   9.842   9.232
89236SOL    HW269606   3.082   9.736   9.152
89237SOL     OW69607  12.321   5.500   3.123
89237SOL    HW169608  12.282   5.412   3.126
89237SOL    HW269609  12.415   5.484   3.129
89238SOL     OW69610   7.203  11.093   2.946
89238SOL    HW169611   7.112  11.106   2.972
89238SOL    HW269612   7.249  11.074   3.027
89239SOL     OW69613  11.509   9.783   2.216
89239SOL    HW169614  11.508   9.866   2.263
89239SOL    HW269615  11.505   9.807   2.124
89240SOL     OW69616  10.888   7.961   5.998
89240SOL    HW169617  10.809   7.937   6.047
89240SOL    HW269618  10.856   8.017   5.928
89241SOL     OW69619  11.279   2.654   7.322
89241SOL    HW169620  11.210   2.667   7.387
89241SOL    HW269621  11.236   2.606   7.251
89242SOL     OW69622  12.671  11.289   9.914
89242SOL    HW169623  12.674  11.198   9.942
89242SOL    HW269624  12.747  11.298   9.855
89243SOL     OW69625   9.741  14.019   0.754
89243SOL    HW169626   9.770  13.942   0.803
89243SOL    HW269627   9.813  14.082   0.765
89244SOL     OW69628   3.397  11.545   5.959
89244SOL    HW169629   3.306  11.568   5.980
89244SOL    HW269630   3.409  11.457   5.995
89245SOL     OW69631   7.837   6.641   3.767
89245SOL    HW169632   7.756   6.605   3.802
89245SOL    HW269633   7.857   6.715   3.824
89246SOL     OW69634   0.135   1.672  13.195
89246SOL    HW169635   0.161   1.615  13.123
89246SOL    HW269636   0.040   1.671  13.194
89247SOL     OW69637   1.906   3.964   8.269
89247SOL    HW169638   1.925   4.028   8.201
89247SOL    HW269639   1.850   4.011   8.331
89248SOL     OW69640   3.308   2.126   5.644
89248SOL    HW169641   3.236   2.091   5.697
89248SOL    HW269642   3.387   2.097   5.690
89249SOL     OW69643   1.850   5.379   1.215
89249SOL    HW169644   1.901   5.389   1.295
89249SOL    HW269645   1.797   5.301   1.230
89250SOL     OW69646   6.170  14.558  10.665
89250SOL    HW169647   6.135  14.469  10.667
89250SOL    HW269648   6.243  14.557  10.727
89251SOL     OW69649   2.056   2.054   9.963
89251SOL    HW169650   2.104   2.137   9.968
89251SOL    HW269651   2.009   2.049  10.046
89252SOL     OW69652   7.578   9.511   2.452
89252SOL    HW169653   7.560   9.494   2.544
89252SOL    HW269654   7.639   9.441   2.426
89253SOL     OW69655   4.332   5.710  10.911
89253SOL    HW169656   4.363   5.630  10.954
89253SOL    HW269657   4.368   5.705  10.822
89254SOL     OW69658   3.082   6.198   4.410
89254SOL    HW169659   3.055   6.131   4.473
89254SOL    HW269660   3.115   6.270   4.465
89255SOL     OW69661  14.783   1.841   4.379
89255SOL    HW169662  14.821   1.894   4.450
89255SOL    HW269663  14.708   1.798   4.420
89256SOL     OW69664   6.722  11.800  14.670
89256SOL    HW169665   6.661  11.775  14.600
89256SOL    HW269666   6.770  11.875  14.633
89257SOL     OW69667   4.953  10.420   4.475
89257SOL    HW169668   5.041  10.455   4.479
89257SOL    HW269669   4.960  10.344   4.418
89258SOL     OW69670   3.032  11.014   5.933
89258SOL    HW169671   3.007  11.077   6.001
89258SOL    HW269672   3.023  10.929   5.975
89259SOL     OW69673  10.935   7.793   4.364
89259SOL    HW169674  10.915   7.749   4.282
89259SOL    HW269675  10.851   7.822   4.398
89260SOL     OW69676  13.045   7.163   6.323
89260SOL    HW169677  13.052   7.234   6.386
89260SOL    HW269678  13.079   7.086   6.369
89261SOL     OW69679   2.012  13.622  13.641
89261SOL    HW169680   1.953  13.579  13.703
89261SOL    HW269681   2.042  13.701  13.687
89262SOL     OW69682   4.892   9.998   2.660
89262SOL    HW169683   4.886   9.966   2.750
89262SOL    HW269684   4.821   9.955   2.614
89263SOL     OW69685   1.840  12.440  11.781
89263SOL    HW169686   1.881  12.362  11.819
89263SOL    HW269687   1.911  12.487  11.738
89264SOL     OW69688   1.793   5.999  14.480
89264SOL    HW169689   1.880   6.026  14.452
89264SOL    HW269690   1.802   5.907  14.503
89265SOL     OW69691  11.171   6.548   2.347
89265SOL    HW169692  11.264   6.566   2.361
89265SOL    HW269693  11.170   6.469   2.292
89266SOL     OW69694  12.965  10.338   4.124
89266SOL    HW169695  13.057  10.355   4.142
89266SOL    HW269696  12.962  10.316   4.031
89267SOL     OW69697   4.122   3.285   1.264
89267SOL    HW169698   4.094   3.336   1.339
89267SOL    HW269699   4.042   3.243   1.232
89268SOL     OW69700   5.983   7.862   8.165
89268SOL    HW169701   5.926   7.927   8.123
89268SOL    HW269702   5.980   7.786   8.107
89269SOL     OW69703   1.947  13.855   3.166
89269SOL    HW169704   1.893  13.873   3.089
89269SOL    HW269705   2.028  13.819   3.130
89270SOL     OW69706  14.255   2.816   2.276
89270SOL    HW169707  14.161   2.809   2.261
89270SOL    HW269708  14.283   2.889   2.220
89271SOL     OW69709  11.006   9.925   0.915
89271SOL    HW169710  10.971   9.840   0.944
89271SOL    HW269711  11.079   9.902   0.858
89272SOL     OW69712   5.288   0.501   1.673
89272SOL    HW169713   5.324   0.557   1.604
89272SOL    HW269714   5.228   0.442   1.627
89273SOL     OW69715  11.827  12.519  14.490
89273SOL    HW169716  11.734  12.542  14.489
89273SOL    HW269717  11.843  12.489  14.580
89274SOL     OW69718  11.495   7.152   7.815
89274SOL    HW169719  11.486   7.126   7.724
89274SOL    HW269720  11.588   7.142   7.835
89275SOL     OW69721  12.016   6.064   9.088
89275SOL    HW169722  11.940   6.020   9.050
89275SOL    HW269723  12.006   6.053   9.182
89276SOL     OW69724   5.450   0.120   5.077
89276SOL    HW169725   5.392   0.055   5.037
89276SOL    HW269726   5.411   0.139   5.162
89277SOL     OW69727   0.241   7.244   1.092
89277SOL    HW169728   0.286   7.262   1.010
89277SOL    HW269729   0.156   7.210   1.066
89278SOL     OW69730  12.257  14.868  10.666
89278SOL    HW169731  12.174   0.005  10.625
89278SOL    HW269732  12.241  14.874  10.760
89279SOL     OW69733   8.123   5.585  11.087
89279SOL    HW169734   8.198   5.559  11.035
89279SOL    HW269735   8.156   5.590  11.177
89280SOL     OW69736   9.600  13.422   3.458
89280SOL    HW169737   9.599  13.490   3.526
89280SOL    HW269738   9.589  13.470   3.376
89281SOL     OW69739   5.350  14.417  10.922
89281SOL    HW169740   5.357  14.326  10.893
89281SOL    HW269741   5.408  14.423  10.998
89282SOL     OW69742   8.937   8.332   8.350
89282SOL    HW169743   8.983   8.381   8.419
89282SOL    HW269744   9.007   8.289   8.301
89283SOL     OW69745  13.405  10.155   0.080
89283SOL    HW169746  13.431  10.242   0.112
89283SOL    HW269747  13.342  10.123   0.144
89284SOL     OW69748   6.597   6.216   3.655
89284SOL    HW169749   6.654   6.287   3.684
89284SOL    HW269750   6.654   6.139   3.654
89285SOL     OW69751  12.196  13.784   7.059
89285SOL    HW169752  12.159  13.707   7.016
89285SOL    HW269753  12.291  13.767   7.060
89286SOL     OW69754   6.752   0.088   2.256
89286SOL    HW169755   6.800   0.084   2.339
89286SOL    HW269756   6.702   0.006   2.253
89287SOL     OW69757  14.473  10.936   9.302
89287SOL    HW169758  14.463  10.868   9.368
89287SOL    HW269759  14.560  10.972   9.319
89288SOL     OW69760   9.323  11.563  13.466
89288SOL    HW169761   9.397  11.582  13.408
89288SOL    HW269762   9.256  11.527  13.408
89289SOL     OW69763   8.944  10.038  11.076
89289SOL    HW169764   8.974  10.079  10.995
89289SOL    HW269765   8.858  10.076  11.092
89290SOL     OW69766   1.760   8.989   4.977
89290SOL    HW169767   1.666   8.974   4.981
89290SOL    HW269768   1.795   8.939   5.051
89291SOL     OW69769   9.565   7.418  13.406
89291SOL    HW169770   9.575   7.488  13.470
89291SOL    HW269771   9.651   7.410  13.365
89292SOL     OW69772   9.601  10.295   2.085
89292SOL    HW169773   9.575  10.224   2.143
89292SOL    HW269774   9.606  10.372   2.141
89293SOL     OW69775   2.412  12.266   7.325
89293SOL    HW169776   2.407  12.184   7.374
89293SOL    HW269777   2.503  12.272   7.296
89294SOL     OW69778   6.976   7.255  11.345
89294SOL    HW169779   7.002   7.341  11.379
89294SOL    HW269780   6.886   7.268  11.313
89295SOL     OW69781   0.844  12.838  10.577
89295SOL    HW169782   0.749  12.838  10.589
89295SOL    HW269783   0.872  12.754  10.612
89296SOL     OW69784   8.296   0.911   6.318
89296SOL    HW169785   8.247   0.896   6.398
89296SOL    HW269786   8.274   1.001   6.292
89297SOL     OW69787  11.938   1.389  10.605
89297SOL    HW169788  11.936   1.476  10.565
89297SOL    HW269789  12.008   1.343  10.559
89298SOL     OW69790  13.425   7.898   8.589
89298SOL    HW169791  13.488   7.828   8.570
89298SOL    HW269792  13.344   7.852   8.609
89299SOL     OW69793   4.296   3.873   9.160
89299SOL    HW169794   4.389   3.867   9.179
89299SOL    HW269795   4.266   3.782   9.158
89300SOL     OW69796  14.462   9.936   2.883
89300SOL    HW169797  14.499   9.938   2.795
89300SOL    HW269798  14.501  10.013   2.926
89301SOL     OW69799   4.533   1.641   0.765
89301SOL    HW169800   4.627   1.657   0.763
89301SOL    HW269801   4.500   1.697   0.836
89302SOL     OW69802  12.036   4.663  12.935
89302SOL    HW169803  12.087   4.672  13.016
89302SOL    HW269804  11.963   4.724  12.946
89303SOL     OW69805  14.663  12.094  13.086
89303SOL    HW169806  14.630  12.042  13.013
89303SOL    HW269807  14.606  12.171  13.088
89304SOL     OW69808   6.354   9.672   8.516
89304SOL    HW169809   6.327   9.755   8.477
89304SOL    HW269810   6.448   9.683   8.532
89305SOL     OW69811   7.558   2.404   8.161
89305SOL    HW169812   7.556   2.357   8.077
89305SOL    HW269813   7.489   2.363   8.213
89306SOL     OW69814   4.579   7.271   2.028
89306SOL    HW169815   4.575   7.366   2.022
89306SOL    HW269816   4.655   7.247   1.974
89307SOL     OW69817  11.888   5.930   9.337
89307SOL    HW169818  11.864   5.854   9.390
89307SOL    HW269819  11.810   5.984   9.337
89308SOL     OW69820   1.964   7.814   6.144
89308SOL    HW169821   1.976   7.903   6.109
89308SOL    HW269822   1.889   7.821   6.202
89309SOL     OW69823   4.905  11.823   3.310
89309SOL    HW169824   4.883  11.908   3.349
89309SOL    HW269825   4.954  11.846   3.231
89310SOL     OW69826   9.357   5.152  12.968
89310SOL    HW169827   9.331   5.244  12.976
89310SOL    HW269828   9.412   5.150  12.889
89311SOL     OW69829  11.758  10.484   3.301
89311SOL    HW169830  11.676  10.446   3.333
89311SOL    HW269831  11.800  10.412   3.254
89312SOL     OW69832   8.551  13.207  12.384
89312SOL    HW169833   8.528  13.147  12.314
89312SOL    HW269834   8.608  13.272  12.343
89313SOL     OW69835   5.409   7.164   4.141
89313SOL    HW169836   5.363   7.112   4.206
89313SOL    HW269837   5.426   7.247   4.184
89314SOL     OW69838   5.327   0.301  14.782
89314SOL    HW169839   5.368   0.376  14.740
89314SOL    HW269840   5.298   0.245  14.710
89315SOL     OW69841  12.263  13.743  13.893
89315SOL    HW169842  12.197  13.783  13.950
89315SOL    HW269843  12.216  13.675  13.846
89316SOL     OW69844   8.609   3.825   1.575
89316SOL    HW169845   8.549   3.752   1.559
89316SOL    HW269846   8.687   3.783   1.612
89317SOL     OW69847   4.634  11.757   3.745
89317SOL    HW169848   4.605  11.842   3.713
89317SOL    HW269849   4.590  11.693   3.688
89318SOL     OW69850  10.314  11.008   3.445
89318SOL    HW169851  10.291  10.968   3.361
89318SOL    HW269852  10.240  11.066   3.464
89319SOL     OW69853   6.649   8.646   8.655
89319SOL    HW169854   6.649   8.717   8.591
89319SOL    HW269855   6.704   8.578   8.616
89320SOL     OW69856   8.526   6.199   8.361
89320SOL    HW169857   8.442   6.234   8.329
89320SOL    HW269858   8.508   6.107   8.380
89321SOL     OW69859  13.731   8.485   2.773
89321SOL    HW169860  13.724   8.552   2.841
89321SOL    HW269861  13.719   8.533   2.691
89322SOL     OW69862   8.728   8.318   9.319
89322SOL    HW169863   8.751   8.291   9.407
89322SOL    HW269864   8.709   8.412   9.326
89323SOL     OW69865   0.069   3.975   4.379
89323SOL    HW169866   0.009   3.945   4.448
89323SOL    HW269867   0.151   3.993   4.425
89324SOL     OW69868   8.481  10.730   3.255
89324SOL    HW169869   8.568  10.735   3.215
89324SOL    HW269870   8.465  10.819   3.288
89325SOL     OW69871   9.433   8.781  13.989
89325SOL    HW169872   9.448   8.722  13.915
89325SOL    HW269873   9.351   8.826  13.966
89326SOL     OW69874   6.803   1.399  10.995
89326SOL    HW169875   6.805   1.374  10.902
89326SOL    HW269876   6.751   1.331  11.037
89327SOL     OW69877  12.034   3.075   0.272
89327SOL    HW169878  12.063   3.012   0.206
89327SOL    HW269879  11.940   3.085   0.256
89328SOL     OW69880   2.680  13.308   9.399
89328SOL    HW169881   2.726  13.224   9.390
89328SOL    HW269882   2.593  13.292   9.363
89329SOL     OW69883  11.851   3.999  13.971
89329SOL    HW169884  11.802   4.059  13.915
89329SOL    HW269885  11.943   4.013  13.946
89330SOL     OW69886   5.470   1.986   7.954
89330SOL    HW169887   5.513   2.068   7.930
89330SOL    HW269888   5.541   1.921   7.955
89331SOL     OW69889  12.524   8.729  10.108
89331SOL    HW169890  12.590   8.786  10.069
89331SOL    HW269891  12.442   8.778  10.100
89332SOL     OW69892  11.122  13.100   6.345
89332SOL    HW169893  11.160  13.181   6.381
89332SOL    HW269894  11.032  13.099   6.379
89333SOL     OW69895   1.374   8.538   2.201
89333SOL    HW169896   1.384   8.595   2.277
89333SOL    HW269897   1.464   8.517   2.175
89334SOL     OW69898   9.859   6.854  14.399
89334SOL    HW169899   9.800   6.834  14.472
89334SOL    HW269900   9.928   6.789  14.405
89335SOL     OW69901   7.471   1.648  10.317
89335SOL    HW169902   7.477   1.557  10.346
89335SOL    HW269903   7.377   1.663  10.305
89336SOL     OW69904  13.410   6.214   5.014
89336SOL    HW169905  13.354   6.137   5.002
89336SOL    HW269906  13.349   6.288   5.014
89337SOL     OW69907   7.056   2.542  14.358
89337SOL    HW169908   7.081   2.471  14.299
89337SOL    HW269909   6.986   2.588  14.313
89338SOL     OW69910  14.247   4.194   7.699
89338SOL    HW169911  14.238   4.138   7.622
89338SOL    HW269912  14.337   4.228   7.694
89339SOL     OW69913  11.327   6.197  12.205
89339SOL    HW169914  11.354   6.259  12.137
89339SOL    HW269915  11.363   6.113  12.177
89340SOL     OW69916   6.473  13.408   7.320
89340SOL    HW169917   6.390  13.399   7.367
89340SOL    HW269918   6.449  13.402   7.227
89341SOL     OW69919  13.613   0.193   9.171
89341SOL    HW169920  13.610   0.098   9.161
89341SOL    HW269921  13.654   0.207   9.256
89342SOL     OW69922   2.616   0.937   6.174
89342SOL    HW169923   2.652   0.937   6.263
89342SOL    HW269924   2.613   1.029   6.149
89343SOL     OW69925   9.404   0.560   4.584
89343SOL    HW169926   9.488   0.518   4.567
89343SOL    HW269927   9.415   0.602   4.669
89344SOL     OW69928   8.366   5.070  14.159
89344SOL    HW169929   8.290   5.124  14.177
89344SOL    HW269930   8.441   5.127  14.176
89345SOL     OW69931   6.041  11.247   1.544
89345SOL    HW169932   6.119  11.191   1.546
89345SOL    HW269933   6.019  11.261   1.636
89346SOL     OW69934   4.267   6.502  10.503
89346SOL    HW169935   4.262   6.582  10.555
89346SOL    HW269936   4.176   6.474  10.492
89347SOL     OW69937   6.203  13.800   3.214
89347SOL    HW169938   6.141  13.766   3.149
89347SOL    HW269939   6.285  13.755   3.195
89348SOL     OW69940  13.039   6.597  10.273
89348SOL    HW169941  12.951   6.608  10.237
89348SOL    HW269942  13.085   6.678  10.250
89349SOL     OW69943   9.035   7.873   4.906
89349SOL    HW169944   8.958   7.919   4.938
89349SOL    HW269945   9.025   7.869   4.811
89350SOL     OW69946   9.465   0.476   4.220
89350SOL    HW169947   9.421   0.476   4.305
89350SOL    HW269948   9.484   0.568   4.202
89351SOL     OW69949   1.321  13.760   3.451
89351SOL    HW169950   1.392  13.804   3.499
89351SOL    HW269951   1.344  13.771   3.359
89352SOL     OW69952   2.307   4.862   9.916
89352SOL    HW169953   2.356   4.873   9.997
89352SOL    HW269954   2.374   4.861   9.847
89353SOL     OW69955  10.693   5.592   7.196
89353SOL    HW169956  10.732   5.505   7.188
89353SOL    HW269957  10.654   5.609   7.110
89354SOL     OW69958   1.732   8.480   8.959
89354SOL    HW169959   1.681   8.559   8.975
89354SOL    HW269960   1.692   8.414   9.016
89355SOL     OW69961  13.699   1.875  13.778
89355SOL    HW169962  13.768   1.891  13.842
89355SOL    HW269963  13.725   1.793  13.735
89356SOL     OW69964   4.900  13.371   2.602
89356SOL    HW169965   4.848  13.439   2.644
89356SOL    HW269966   4.917  13.308   2.672
89357SOL     OW69967  12.327   8.831  10.963
89357SOL    HW169968  12.347   8.739  10.951
89357SOL    HW269969  12.344   8.871  10.877
89358SOL     OW69970  12.605   5.822  11.404
89358SOL    HW169971  12.573   5.752  11.461
89358SOL    HW269972  12.700   5.820  11.414
89359SOL     OW69973   0.485   9.353   2.755
89359SOL    HW169974   0.424   9.406   2.704
89359SOL    HW269975   0.571   9.374   2.719
89360SOL     OW69976  12.005  12.078   4.435
89360SOL    HW169977  12.067  12.010   4.410
89360SOL    HW269978  12.015  12.087   4.530
89361SOL     OW69979  11.959   5.495   6.916
89361SOL    HW169980  12.045   5.456   6.933
89361SOL    HW269981  11.948   5.559   6.987
89362SOL     OW69982   0.615  12.807   0.570
89362SOL    HW169983   0.638  12.751   0.496
89362SOL    HW269984   0.519  12.810   0.569
89363SOL     OW69985   4.893  11.759  11.865
89363SOL    HW169986   4.901  11.796  11.953
89363SOL    HW269987   4.974  11.709  11.852
89364SOL     OW69988  14.878   6.445   5.563
89364SOL    HW169989   0.059   6.506   5.534
89364SOL    HW269990  14.838   6.414   5.482
89365SOL     OW69991   4.541   4.152   9.305
89365SOL    HW169992   4.533   4.143   9.210
89365SOL    HW269993   4.519   4.065   9.339
89366SOL     OW69994   9.538   6.372   8.190
89366SOL    HW169995   9.551   6.277   8.186
89366SOL    HW269996   9.627   6.408   8.182
89367SOL     OW69997  11.726   9.047   4.900
89367SOL    HW169998  11.688   9.104   4.833
89367SOL    HW269999  11.666   8.973   4.906
89368SOL     OW70000   5.833   6.275   0.455
89368SOL    HW170001   5.811   6.343   0.518
89368SOL    HW270002   5.903   6.314   0.402
89369SOL     OW70003  14.460  14.641   5.492
89369SOL    HW170004  14.465  14.735   5.511
89369SOL    HW270005  14.412  14.604   5.567
89370SOL     OW70006   3.625   9.838   7.403
89370SOL    HW170007   3.624   9.742   7.406
89370SOL    HW270008   3.645   9.859   7.312
89371SOL     OW70009  10.154   1.001   2.805
89371SOL    HW170010  10.110   0.915   2.804
89371SOL    HW270011  10.245   0.981   2.783
89372SOL     OW70012   3.069   3.297   7.807
89372SOL    HW170013   3.107   3.214   7.837
89372SOL    HW270014   3.080   3.357   7.881
89373SOL     OW70015  12.953   2.275   1.842
89373SOL    HW170016  12.997   2.346   1.796
89373SOL    HW270017  12.863   2.307   1.854
89374SOL     OW70018   7.322   4.450   6.737
89374SOL    HW170019   7.290   4.413   6.820
89374SOL    HW270020   7.245   4.493   6.699
89375SOL     OW70021   5.965  10.849  12.706
89375SOL    HW170022   5.893  10.785  12.704
89375SOL    HW270023   6.041  10.800  12.676
89376SOL     OW70024   1.310   0.748   3.551
89376SOL    HW170025   1.260   0.689   3.493
89376SOL    HW270026   1.334   0.693   3.625
89377SOL     OW70027  11.109   8.841  10.033
89377SOL    HW170028  11.116   8.930  10.000
89377SOL    HW270029  11.063   8.793   9.964
89378SOL     OW70030   0.105  11.663   9.013
89378SOL    HW170031   0.200  11.660   9.010
89378SOL    HW270032   0.080  11.713   8.935
89379SOL     OW70033  11.634   7.087   5.988
89379SOL    HW170034  11.713   7.057   5.943
89379SOL    HW270035  11.661   7.167   6.034
89380SOL     OW70036   9.235   4.567   9.218
89380SOL    HW170037   9.277   4.483   9.202
89380SOL    HW270038   9.182   4.553   9.297
89381SOL     OW70039   2.412   0.044  12.305
89381SOL    HW170040   2.493  14.887  12.327
89381SOL    HW270041   2.354   0.025  12.379
89382SOL     OW70042   8.490   8.060   3.994
89382SOL    HW170043   8.466   8.151   4.009
89382SOL    HW270044   8.544   8.061   3.915
89383SOL     OW70045   8.191   6.749   3.927
89383SOL    HW170046   8.138   6.827   3.913
89383SOL    HW270047   8.279   6.783   3.946
89384SOL     OW70048  10.950   0.540   1.553
89384SOL    HW170049  11.020   0.488   1.593
89384SOL    HW270050  10.987   0.569   1.469
89385SOL     OW70051   9.012  11.866   0.301
89385SOL    HW170052   9.030  11.830   0.388
89385SOL    HW270053   9.015  11.961   0.314
89386SOL     OW70054   8.783   9.671   6.366
89386SOL    HW170055   8.767   9.698   6.276
89386SOL    HW270056   8.710   9.707   6.416
89387SOL     OW70057   8.682  10.135  13.477
89387SOL    HW170058   8.606  10.165  13.528
89387SOL    HW270059   8.754  10.191  13.506
89388SOL     OW70060   6.646   9.725  11.739
89388SOL    HW170061   6.733   9.698  11.711
89388SOL    HW270062   6.586   9.669  11.689
89389SOL     OW70063   5.864   4.529   3.804
89389SOL    HW170064   5.865   4.578   3.722
89389SOL    HW270065   5.801   4.458   3.789
89390SOL     OW70066   8.088   3.858  11.702
89390SOL    HW170067   8.181   3.841  11.686
89390SOL    HW270068   8.087   3.940  11.752
89391SOL     OW70069   7.730   1.318   6.522
89391SOL    HW170070   7.636   1.337   6.514
89391SOL    HW270071   7.772   1.384   6.466
89392SOL     OW70072   4.216   2.618   3.798
89392SOL    HW170073   4.285   2.684   3.790
89392SOL    HW270074   4.262   2.534   3.800
89393SOL     OW70075   8.260  12.971  13.532
89393SOL    HW170076   8.184  12.913  13.522
89393SOL    HW270077   8.297  12.976  13.444
89394SOL     OW70078   3.427   4.979   0.643
89394SOL    HW170079   3.517   5.000   0.617
89394SOL    HW270080   3.379   4.976   0.560
89395SOL     OW70081   4.780   3.839   8.129
89395SOL    HW170082   4.863   3.823   8.085
89395SOL    HW270083   4.772   3.768   8.193
89396SOL     OW70084  12.019   0.082   5.444
89396SOL    HW170085  11.995   0.085   5.352
89396SOL    HW270086  12.022   0.174   5.471
89397SOL     OW70087   1.036  10.643  12.161
89397SOL    HW170088   1.115  10.696  12.170
89397SOL    HW270089   0.967  10.698  12.199
89398SOL     OW70090   4.518   0.687   8.065
89398SOL    HW170091   4.433   0.696   8.022
89398SOL    HW270092   4.558   0.773   8.056
89399SOL     OW70093   0.898   6.499  13.600
89399SOL    HW170094   0.897   6.555  13.678
89399SOL    HW270095   0.862   6.555  13.531
89400SOL     OW70096   0.995  12.028  13.624
89400SOL    HW170097   0.958  12.075  13.549
89400SOL    HW270098   0.930  11.962  13.646
89401SOL     OW70099  12.406   8.574  10.969
89401SOL    HW170100  12.341   8.514  11.007
89401SOL    HW270101  12.435   8.531  10.889
89402SOL     OW70102   8.489   1.223  14.026
89402SOL    HW170103   8.579   1.212  13.995
89402SOL    HW270104   8.483   1.167  14.103
89403SOL     OW70105  11.606  12.822  13.000
89403SOL    HW170106  11.572  12.739  12.967
89403SOL    HW270107  11.530  12.881  12.998
89404SOL     OW70108   9.264  10.232   8.218
89404SOL    HW170109   9.335  10.175   8.191
89404SOL    HW270110   9.200  10.174   8.259
89405SOL     OW70111   8.082  14.524   1.382
89405SOL    HW170112   8.089  14.613   1.417
89405SOL    HW270113   8.005  14.527   1.325
89406SOL     OW70114  12.066   4.162  13.571
89406SOL    HW170115  11.985   4.213  13.570
89406SOL    HW270116  12.054   4.095  13.503
89407SOL     OW70117   8.204  12.172  13.823
89407SOL    HW170118   8.189  12.246  13.882
89407SOL    HW270119   8.126  12.117  13.834
89408SOL     OW70120   4.802  10.654   4.481
89408SOL    HW170121   4.854  10.579   4.510
89408SOL    HW270122   4.757  10.684   4.561
89409SOL     OW70123   3.758   6.961   2.432
89409SOL    HW170124   3.684   7.016   2.457
89409SOL    HW270125   3.765   6.896   2.502
89410SOL     OW70126   5.004   0.632   5.239
89410SOL    HW170127   4.940   0.658   5.172
89410SOL    HW270128   5.004   0.536   5.236
89411SOL     OW70129  12.098   2.138   2.270
89411SOL    HW170130  12.017   2.099   2.302
89411SOL    HW270131  12.146   2.164   2.349
89412SOL     OW70132  10.375  12.661   2.326
89412SOL    HW170133  10.365  12.742   2.377
89412SOL    HW270134  10.458  12.624   2.357
89413SOL     OW70135   4.705   5.710   0.355
89413SOL    HW170136   4.685   5.621   0.326
89413SOL    HW270137   4.739   5.754   0.277
89414SOL     OW70138  11.554  10.552   4.157
89414SOL    HW170139  11.558  10.463   4.122
89414SOL    HW270140  11.619  10.600   4.106
89415SOL     OW70141  12.199  12.233   7.987
89415SOL    HW170142  12.189  12.139   7.969
89415SOL    HW270143  12.202  12.274   7.901
89416SOL     OW70144  14.754   8.386   7.303
89416SOL    HW170145  14.747   8.307   7.249
89416SOL    HW270146  14.740   8.355   7.393
89417SOL     OW70147   8.876  12.169   7.460
89417SOL    HW170148   8.870  12.264   7.455
89417SOL    HW270149   8.970  12.151   7.465
89418SOL     OW70150   0.073   3.092  10.524
89418SOL    HW170151   0.099   3.157  10.459
89418SOL    HW270152   0.050   3.144  10.602
89419SOL     OW70153   3.469   3.530   3.847
89419SOL    HW170154   3.484   3.473   3.771
89419SOL    HW270155   3.548   3.522   3.899
89420SOL     OW70156  11.184   5.553   6.524
89420SOL    HW170157  11.189   5.646   6.501
89420SOL    HW270158  11.208   5.549   6.616
89421SOL     OW70159  14.627   0.574  13.915
89421SOL    HW170160  14.549   0.626  13.894
89421SOL    HW270161  14.661   0.614  13.995
89422SOL     OW70162   2.877   2.812   4.446
89422SOL    HW170163   2.952   2.870   4.460
89422SOL    HW270164   2.899   2.760   4.370
89423SOL     OW70165   2.316   1.756  10.550
89423SOL    HW170166   2.312   1.754  10.646
89423SOL    HW270167   2.226   1.741  10.522
89424SOL     OW70168   4.638  12.218   5.622
89424SOL    HW170169   4.577  12.244   5.554
89424SOL    HW270170   4.672  12.300   5.657
89425SOL     OW70171   5.225   0.614  12.528
89425SOL    HW170172   5.248   0.541  12.470
89425SOL    HW270173   5.146   0.584  12.574
89426SOL     OW70174   0.404   4.918  10.062
89426SOL    HW170175   0.342   4.939  10.132
89426SOL    HW270176   0.476   4.873  10.106
89427SOL     OW70177   6.935   3.456   4.452
89427SOL    HW170178   7.001   3.495   4.396
89427SOL    HW270179   6.971   3.463   4.540
89428SOL     OW70180   2.025  13.492   6.870
89428SOL    HW170181   2.022  13.471   6.777
89428SOL    HW270182   1.980  13.419   6.913
89429SOL     OW70183  13.294  12.422  10.672
89429SOL    HW170184  13.375  12.386  10.634
89429SOL    HW270185  13.227  12.359  10.647
89430SOL     OW70186   2.925  13.423   2.468
89430SOL    HW170187   2.912  13.503   2.418
89430SOL    HW270188   2.843  13.374   2.457
89431SOL     OW70189   0.524  12.195   3.449
89431SOL    HW170190   0.607  12.162   3.483
89431SOL    HW270191   0.525  12.288   3.470
89432SOL     OW70192  14.177  14.383   1.466
89432SOL    HW170193  14.224  14.344   1.539
89432SOL    HW270194  14.244  14.397   1.399
89433SOL     OW70195   6.911  13.103  11.863
89433SOL    HW170196   6.822  13.081  11.890
89433SOL    HW270197   6.960  13.107  11.945
89434SOL     OW70198   0.079   4.834  10.875
89434SOL    HW170199   0.098   4.923  10.904
89434SOL    HW270200   0.092   4.779  10.953
89435SOL     OW70201   5.096   3.232   1.100
89435SOL    HW170202   5.098   3.267   1.189
89435SOL    HW270203   5.100   3.137   1.111
89436SOL     OW70204   0.126   0.029   1.693
89436SOL    HW170205   0.164   0.043   1.606
89436SOL    HW270206   0.107  14.822   1.695
89437SOL     OW70207   3.093   8.672   2.964
89437SOL    HW170208   2.999   8.670   2.946
89437SOL    HW270209   3.134   8.672   2.878
89438SOL     OW70210   9.756   0.303   5.288
89438SOL    HW170211   9.714   0.372   5.237
89438SOL    HW270212   9.837   0.283   5.241
89439SOL     OW70213  12.913   1.262   6.691
89439SOL    HW170214  12.947   1.172   6.696
89439SOL    HW270215  12.917   1.284   6.598
89440SOL     OW70216   1.414   2.072   2.885
89440SOL    HW170217   1.395   2.113   2.800
89440SOL    HW270218   1.451   2.142   2.938
89441SOL     OW70219   5.163  12.646   8.078
89441SOL    HW170220   5.116  12.571   8.113
89441SOL    HW270221   5.224  12.608   8.013
89442SOL     OW70222   3.977   0.970   3.553
89442SOL    HW170223   4.040   0.919   3.503
89442SOL    HW270224   3.893   0.952   3.510
89443SOL     OW70225   3.256   0.811  10.118
89443SOL    HW170226   3.250   0.716  10.108
89443SOL    HW270227   3.166   0.840  10.131
89444SOL     OW70228   4.292   7.566   0.042
89444SOL    HW170229   4.288   7.480  14.886
89444SOL    HW270230   4.273   7.629  14.859
89445SOL     OW70231   0.776   1.411  14.698
89445SOL    HW170232   0.708   1.379  14.638
89445SOL    HW270233   0.858   1.377  14.661
89446SOL     OW70234  13.954  14.867  11.170
89446SOL    HW170235  13.877  14.813  11.150
89446SOL    HW270236  13.934   0.065  11.132
89447SOL     OW70237  10.058   3.554   0.557
89447SOL    HW170238   9.987   3.616   0.539
89447SOL    HW270239  10.137   3.607   0.556
89448SOL     OW70240   3.409   9.426   3.370
89448SOL    HW170241   3.390   9.458   3.458
89448SOL    HW270242   3.352   9.350   3.359
89449SOL     OW70243   7.053   8.149   4.013
89449SOL    HW170244   6.976   8.167   3.960
89449SOL    HW270245   7.127   8.166   3.956
89450SOL     OW70246   7.836   7.756   4.899
89450SOL    HW170247   7.770   7.726   4.961
89450SOL    HW270248   7.852   7.847   4.923
89451SOL     OW70249  14.580   9.001   7.864
89451SOL    HW170250  14.569   8.950   7.784
89451SOL    HW270251  14.495   9.043   7.878
89452SOL     OW70252   2.027   8.925  14.376
89452SOL    HW170253   1.983   8.998  14.333
89452SOL    HW270254   2.100   8.903  14.318
89453SOL     OW70255   9.155  12.308  13.122
89453SOL    HW170256   9.094  12.260  13.178
89453SOL    HW270257   9.203  12.365  13.182
89454SOL     OW70258   8.936   5.323   7.153
89454SOL    HW170259   8.992   5.284   7.220
89454SOL    HW270260   8.937   5.416   7.172
89455SOL     OW70261  13.034   0.020  12.401
89455SOL    HW170262  12.964  14.866  12.452
89455SOL    HW270263  13.023   0.114  12.419
89456SOL     OW70264   3.622   8.407   0.401
89456SOL    HW170265   3.581   8.357   0.330
89456SOL    HW270266   3.552   8.418   0.465
89457SOL     OW70267   9.088   3.849   0.071
89457SOL    HW170268   9.164   3.804   0.034
89457SOL    HW270269   9.054   3.901  14.885
89458SOL     OW70270   8.199   5.812   1.527
89458SOL    HW170271   8.216   5.783   1.616
89458SOL    HW270272   8.104   5.809   1.518
89459SOL     OW70273  13.130   7.638   9.152
89459SOL    HW170274  13.108   7.574   9.085
89459SOL    HW270275  13.207   7.683   9.117
89460SOL     OW70276  13.320   3.049  11.356
89460SOL    HW170277  13.386   3.013  11.297
89460SOL    HW270278  13.293   2.975  11.410
89461SOL     OW70279   9.400  13.998  11.418
89461SOL    HW170280   9.420  13.970  11.507
89461SOL    HW270281   9.451  14.078  11.405
89462SOL     OW70282   7.059   9.269   5.922
89462SOL    HW170283   7.065   9.188   5.871
89462SOL    HW270284   7.088   9.243   6.009
89463SOL     OW70285  12.160  11.796   0.415
89463SOL    HW170286  12.208  11.833   0.340
89463SOL    HW270287  12.218  11.729   0.450
89464SOL     OW70288   6.750   0.928  10.731
89464SOL    HW170289   6.757   0.984  10.809
89464SOL    HW270290   6.831   0.944  10.683
89465SOL     OW70291  10.280  13.907  11.031
89465SOL    HW170292  10.231  13.825  11.030
89465SOL    HW270293  10.214  13.975  11.015
89466SOL     OW70294  10.588   3.553   7.640
89466SOL    HW170295  10.577   3.630   7.585
89466SOL    HW270296  10.682   3.539   7.645
89467SOL     OW70297  12.314   6.493   2.079
89467SOL    HW170298  12.280   6.424   2.023
89467SOL    HW270299  12.270   6.573   2.050
89468SOL     OW70300  11.198  11.159  12.043
89468SOL    HW170301  11.222  11.241  12.000
89468SOL    HW270302  11.273  11.102  12.029
89469SOL     OW70303  11.052   8.088  14.346
89469SOL    HW170304  10.977   8.074  14.404
89469SOL    HW270305  11.054   8.182  14.331
89470SOL     OW70306   6.961   1.979  13.960
89470SOL    HW170307   6.994   1.990  14.049
89470SOL    HW270308   7.040   1.967  13.907
89471SOL     OW70309  13.712   3.100  10.561
89471SOL    HW170310  13.703   3.016  10.514
89471SOL    HW270311  13.787   3.142  10.519
89472SOL     OW70312   1.697  13.553   6.679
89472SOL    HW170313   1.758  13.616   6.642
89472SOL    HW270314   1.627  13.546   6.614
89473SOL     OW70315   9.401   7.761  11.564
89473SOL    HW170316   9.422   7.679  11.608
89473SOL    HW270317   9.445   7.828  11.615
89474SOL     OW70318   3.971  11.741   8.133
89474SOL    HW170319   3.996  11.758   8.224
89474SOL    HW270320   3.989  11.822   8.087
89475SOL     OW70321   3.537   2.282  12.223
89475SOL    HW170322   3.552   2.250  12.134
89475SOL    HW270323   3.447   2.255  12.243
89476SOL     OW70324  13.580  10.953  14.219
89476SOL    HW170325  13.676  10.959  14.211
89476SOL    HW270326  13.549  10.962  14.129
89477SOL     OW70327   3.617  12.748   9.678
89477SOL    HW170328   3.621  12.822   9.739
89477SOL    HW270329   3.657  12.675   9.726
89478SOL     OW70330  11.478  14.034  12.493
89478SOL    HW170331  11.554  14.092  12.499
89478SOL    HW270332  11.404  14.089  12.521
89479SOL     OW70333   5.365   9.909   0.995
89479SOL    HW170334   5.460   9.920   1.001
89479SOL    HW270335   5.332   9.995   0.971
89480SOL     OW70336   1.388   0.428   8.371
89480SOL    HW170337   1.345   0.494   8.427
89480SOL    HW270338   1.465   0.473   8.337
89481SOL     OW70339   6.104   4.868   3.802
89481SOL    HW170340   6.110   4.815   3.882
89481SOL    HW270341   6.065   4.950   3.832
89482SOL     OW70342   2.765  11.393   0.777
89482SOL    HW170343   2.827  11.443   0.831
89482SOL    HW270344   2.701  11.360   0.840
89483SOL     OW70345   3.515  11.695  12.962
89483SOL    HW170346   3.527  11.773  12.908
89483SOL    HW270347   3.535  11.622  12.903
89484SOL     OW70348   9.119   5.005  14.206
89484SOL    HW170349   9.094   5.017  14.298
89484SOL    HW270350   9.080   5.080  14.161
89485SOL     OW70351   9.463  10.470  10.267
89485SOL    HW170352   9.511  10.434  10.192
89485SOL    HW270353   9.498  10.559  10.276
89486SOL     OW70354   1.186   9.762  10.635
89486SOL    HW170355   1.110   9.806  10.674
89486SOL    HW270356   1.175   9.670  10.657
89487SOL     OW70357   1.593  11.033  10.965
89487SOL    HW170358   1.524  11.098  10.978
89487SOL    HW270359   1.607  10.994  11.051
89488SOL     OW70360   1.010   7.793  13.627
89488SOL    HW170361   1.081   7.758  13.572
89488SOL    HW270362   1.045   7.873  13.664
89489SOL     OW70363   1.907   5.121  14.105
89489SOL    HW170364   1.868   5.180  14.169
89489SOL    HW270365   1.833   5.076  14.065
89490SOL     OW70366   9.336   7.113   3.698
89490SOL    HW170367   9.289   7.172   3.755
89490SOL    HW270368   9.343   7.160   3.615
89491SOL     OW70369   8.513   9.102   3.628
89491SOL    HW170370   8.507   9.177   3.687
89491SOL    HW270371   8.447   9.120   3.560
89492SOL     OW70372   5.847   6.972  11.418
89492SOL    HW170373   5.930   6.985  11.464
89492SOL    HW270374   5.794   7.048  11.441
89493SOL     OW70375  13.079   6.649   5.541
89493SOL    HW170376  13.050   6.654   5.450
89493SOL    HW270377  13.135   6.725   5.554
89494SOL     OW70378   2.371   8.183   5.806
89494SOL    HW170379   2.385   8.094   5.776
89494SOL    HW270380   2.304   8.175   5.874
89495SOL     OW70381   6.593   4.216   1.171
89495SOL    HW170382   6.550   4.140   1.210
89495SOL    HW270383   6.686   4.198   1.178
89496SOL     OW70384   9.526   6.960  12.999
89496SOL    HW170385   9.525   6.887  13.062
89496SOL    HW270386   9.548   7.037  13.052
89497SOL     OW70387  14.583  12.081   7.000
89497SOL    HW170388  14.678  12.088   7.005
89497SOL    HW270389  14.562  12.106   6.910
89498SOL     OW70390   3.481   1.420   7.289
89498SOL    HW170391   3.471   1.375   7.373
89498SOL    HW270392   3.432   1.367   7.227
89499SOL     OW70393   3.454  11.024   5.412
89499SOL    HW170394   3.428  11.067   5.493
89499SOL    HW270395   3.544  10.996   5.428
89500SOL     OW70396   7.076   7.495   3.566
89500SOL    HW170397   7.032   7.560   3.511
89500SOL    HW270398   7.010   7.426   3.578
89501SOL     OW70399   0.827   8.585  10.100
89501SOL    HW170400   0.833   8.642  10.023
89501SOL    HW270401   0.850   8.643  10.173
89502SOL     OW70402  11.964  10.798  14.257
89502SOL    HW170403  12.007  10.714  14.242
89502SOL    HW270404  11.947  10.801  14.351
89503SOL     OW70405   7.298   2.926   3.250
89503SOL    HW170406   7.297   2.913   3.345
89503SOL    HW270407   7.242   3.002   3.236
89504SOL     OW70408   0.401   7.482  10.127
89504SOL    HW170409   0.470   7.472  10.192
89504SOL    HW270410   0.440   7.537  10.059
89505SOL     OW70411  14.796   3.322   8.749
89505SOL    HW170412  14.828   3.302   8.837
89505SOL    HW270413  14.739   3.248   8.728
89506SOL     OW70414   1.724   0.108  13.644
89506SOL    HW170415   1.634   0.126  13.674
89506SOL    HW270416   1.724   0.133  13.552
89507SOL     OW70417   4.896   3.223   9.487
89507SOL    HW170418   4.968   3.166   9.515
89507SOL    HW270419   4.940   3.298   9.446
89508SOL     OW70420   4.636  13.669   0.790
89508SOL    HW170421   4.638  13.758   0.825
89508SOL    HW270422   4.706  13.624   0.837
89509SOL     OW70423   3.773   7.504  11.948
89509SOL    HW170424   3.860   7.466  11.951
89509SOL    HW270425   3.755   7.528  12.039
89510SOL     OW70426   1.903  12.492   6.887
89510SOL    HW170427   1.900  12.396   6.894
89510SOL    HW270428   1.850  12.523   6.961
89511SOL     OW70429   0.551   7.557  12.608
89511SOL    HW170430   0.528   7.580  12.698
89511SOL    HW270431   0.507   7.473  12.593
89512SOL     OW70432  13.955   9.090  11.509
89512SOL    HW170433  14.041   9.123  11.536
89512SOL    HW270434  13.908   9.076  11.591
89513SOL     OW70435   0.293   5.193   7.818
89513SOL    HW170436   0.358   5.123   7.821
89513SOL    HW270437   0.345   5.272   7.800
89514SOL     OW70438  14.136   8.119   9.780
89514SOL    HW170439  14.155   8.172   9.857
89514SOL    HW270440  14.162   8.175   9.706
89515SOL     OW70441   6.877  10.092  11.495
89515SOL    HW170442   6.966  10.128  11.497
89515SOL    HW270443   6.862  10.063  11.585
89516SOL     OW70444   3.497   6.702   9.291
89516SOL    HW170445   3.510   6.672   9.201
89516SOL    HW270446   3.479   6.796   9.283
89517SOL     OW70447  14.689   1.155   9.712
89517SOL    HW170448  14.653   1.084   9.659
89517SOL    HW270449  14.695   1.118   9.800
89518SOL     OW70450  12.924   3.789   4.214
89518SOL    HW170451  12.912   3.754   4.126
89518SOL    HW270452  12.864   3.864   4.217
89519SOL     OW70453  12.153   8.008   4.370
89519SOL    HW170454  12.225   7.948   4.391
89519SOL    HW270455  12.108   7.966   4.296
89520SOL     OW70456   3.780   5.907   5.747
89520SOL    HW170457   3.769   5.831   5.690
89520SOL    HW270458   3.779   5.982   5.687
89521SOL     OW70459   5.301   6.005   0.882
89521SOL    HW170460   5.293   5.955   0.801
89521SOL    HW270461   5.303   6.096   0.854
89522SOL     OW70462  10.153  13.900   7.473
89522SOL    HW170463  10.071  13.859   7.445
89522SOL    HW270464  10.169  13.864   7.560
89523SOL     OW70465  11.572  13.453  12.790
89523SOL    HW170466  11.584  13.418  12.701
89523SOL    HW270467  11.558  13.376  12.845
89524SOL     OW70468   3.510   8.880  10.979
89524SOL    HW170469   3.601   8.894  10.951
89524SOL    HW270470   3.459   8.944  10.930
89525SOL     OW70471   7.710   8.270   9.573
89525SOL    HW170472   7.655   8.348   9.579
89525SOL    HW270473   7.798   8.304   9.558
89526SOL     OW70474   8.798   7.161   8.400
89526SOL    HW170475   8.858   7.111   8.455
89526SOL    HW270476   8.742   7.094   8.359
89527SOL     OW70477  13.581  10.352   8.277
89527SOL    HW170478  13.504  10.408   8.282
89527SOL    HW270479  13.621  10.358   8.364
89528SOL     OW70480  13.623   4.415   1.919
89528SOL    HW170481  13.594   4.503   1.942
89528SOL    HW270482  13.704   4.402   1.969
89529SOL     OW70483   9.611   5.631  13.098
89529SOL    HW170484   9.650   5.639  13.185
89529SOL    HW270485   9.616   5.719  13.062
89530SOL     OW70486   5.696  13.229  13.753
89530SOL    HW170487   5.713  13.209  13.846
89530SOL    HW270488   5.613  13.276  13.754
89531SOL     OW70489   2.748   4.117  12.843
89531SOL    HW170490   2.736   4.026  12.816
89531SOL    HW270491   2.706   4.123  12.929
89532SOL     OW70492   7.522   7.199   8.346
89532SOL    HW170493   7.459   7.146   8.395
89532SOL    HW270494   7.467   7.257   8.294
89533SOL     OW70495  12.102   9.013   8.192
89533SOL    HW170496  12.135   8.926   8.210
89533SOL    HW270497  12.176   9.071   8.210
89534SOL     OW70498   5.671  14.814   1.193
89534SOL    HW170499   5.692   0.005   1.142
89534SOL    HW270500   5.751  14.762   1.192
89535SOL     OW70501   0.115   2.880   8.323
89535SOL    HW170502   0.118   2.971   8.355
89535SOL    HW270503   0.149   2.828   8.396
89536SOL     OW70504   5.856   8.052  10.271
89536SOL    HW170505   5.779   8.036  10.324
89536SOL    HW270506   5.927   8.007  10.316
89537SOL     OW70507   8.965   7.950  14.846
89537SOL    HW170508   8.989   7.981   0.046
89537SOL    HW270509   9.046   7.955  14.796
89538SOL     OW70510   1.123   3.169   1.041
89538SOL    HW170511   1.128   3.125   1.126
89538SOL    HW270512   1.171   3.111   0.982
89539SOL     OW70513   6.761   6.012  11.273
89539SOL    HW170514   6.694   6.017  11.204
89539SOL    HW270515   6.773   6.102  11.301
89540SOL     OW70516  10.953   8.153  11.095
89540SOL    HW170517  11.003   8.123  11.019
89540SOL    HW270518  10.937   8.073  11.145
89541SOL     OW70519  14.508   8.173   0.875
89541SOL    HW170520  14.454   8.140   0.804
89541SOL    HW270521  14.589   8.201   0.833
89542SOL     OW70522   6.918   6.684   9.144
89542SOL    HW170523   6.834   6.684   9.190
89542SOL    HW270524   6.981   6.716   9.208
89543SOL     OW70525  12.801   3.459  10.107
89543SOL    HW170526  12.714   3.428  10.134
89543SOL    HW270527  12.824   3.403  10.033
89544SOL     OW70528  10.115   0.412   8.698
89544SOL    HW170529  10.020   0.422   8.704
89544SOL    HW270530  10.136   0.346   8.764
89545SOL     OW70531  10.777  11.951   8.292
89545SOL    HW170532  10.807  11.903   8.370
89545SOL    HW270533  10.715  12.016   8.325
89546SOL     OW70534   7.323   4.666   1.084
89546SOL    HW170535   7.367   4.633   1.162
89546SOL    HW270536   7.230   4.666   1.106
89547SOL     OW70537   8.408   6.869  11.575
89547SOL    HW170538   8.419   6.964  11.575
89547SOL    HW270539   8.320   6.856  11.610
89548SOL     OW70540   7.173  11.675   2.826
89548SOL    HW170541   7.106  11.736   2.855
89548SOL    HW270542   7.152  11.657   2.734
89549SOL     OW70543   4.029  12.518   0.794
89549SOL    HW170544   4.019  12.584   0.863
89549SOL    HW270545   3.995  12.561   0.715
89550SOL     OW70546   5.020   3.761  14.324
89550SOL    HW170547   5.070   3.807  14.390
89550SOL    HW270548   5.005   3.674  14.361
89551SOL     OW70549   5.972   0.385   6.291
89551SOL    HW170550   5.995   0.413   6.203
89551SOL    HW270551   5.987   0.462   6.346
89552SOL     OW70552   6.569  10.813   6.343
89552SOL    HW170553   6.487  10.766   6.326
89552SOL    HW270554   6.593  10.787   6.432
89553SOL     OW70555  12.027  11.518   4.653
89553SOL    HW170556  12.064  11.529   4.741
89553SOL    HW270557  12.101  11.537   4.594
89554SOL     OW70558   0.558   6.410   3.694
89554SOL    HW170559   0.533   6.497   3.661
89554SOL    HW270560   0.528   6.349   3.626
89555SOL     OW70561   7.390   5.868  11.829
89555SOL    HW170562   7.414   5.959  11.845
89555SOL    HW270563   7.455   5.817  11.879
89556SOL     OW70564  12.299   5.026   7.383
89556SOL    HW170565  12.275   5.113   7.353
89556SOL    HW270566  12.231   5.004   7.448
89557SOL     OW70567   6.952   6.266   3.959
89557SOL    HW170568   7.034   6.222   3.936
89557SOL    HW270569   6.884   6.212   3.918
89558SOL     OW70570  14.091  13.227   6.909
89558SOL    HW170571  14.142  13.146   6.907
89558SOL    HW270572  14.131  13.282   6.842
89559SOL     OW70573   3.845  14.377   8.422
89559SOL    HW170574   3.755  14.399   8.398
89559SOL    HW270575   3.849  14.391   8.517
89560SOL     OW70576  12.430   6.388  12.225
89560SOL    HW170577  12.380   6.386  12.144
89560SOL    HW270578  12.375   6.438  12.286
89561SOL     OW70579  13.803   2.372   5.886
89561SOL    HW170580  13.862   2.398   5.957
89561SOL    HW270581  13.804   2.447   5.827
89562SOL     OW70582   5.175   9.944   5.960
89562SOL    HW170583   5.247   9.919   5.902
89562SOL    HW270584   5.207  10.021   6.007
89563SOL     OW70585  13.790   9.596   9.361
89563SOL    HW170586  13.861   9.532   9.367
89563SOL    HW270587  13.765   9.612   9.452
89564SOL     OW70588   0.176   7.981  10.584
89564SOL    HW170589   0.213   7.897  10.610
89564SOL    HW270590   0.185   8.036  10.662
89565SOL     OW70591  11.236   1.873   1.798
89565SOL    HW170592  11.171   1.941   1.817
89565SOL    HW270593  11.235   1.865   1.702
89566SOL     OW70594   5.832  14.208   9.105
89566SOL    HW170595   5.820  14.303   9.094
89566SOL    HW270596   5.907  14.200   9.164
89567SOL     OW70597   5.194   4.549   9.657
89567SOL    HW170598   5.153   4.623   9.613
89567SOL    HW270599   5.229   4.495   9.585
89568SOL     OW70600   5.156   7.761   7.040
89568SOL    HW170601   5.095   7.689   7.023
89568SOL    HW270602   5.134   7.792   7.127
89569SOL     OW70603   9.086   5.024   3.368
89569SOL    HW170604   9.088   4.965   3.293
89569SOL    HW270605   9.135   4.978   3.436
89570SOL     OW70606   2.044   0.139   6.641
89570SOL    HW170607   2.022   0.220   6.597
89570SOL    HW270608   1.996   0.071   6.592
89571SOL     OW70609   5.480   5.133  11.665
89571SOL    HW170610   5.528   5.051  11.652
89571SOL    HW270611   5.404   5.108  11.717
89572SOL     OW70612   9.578   6.423   1.235
89572SOL    HW170613   9.486   6.444   1.249
89572SOL    HW270614   9.626   6.488   1.287
89573SOL     OW70615  14.003   3.630  13.673
89573SOL    HW170616  14.067   3.659  13.739
89573SOL    HW270617  14.054   3.620  13.593
89574SOL     OW70618   6.015  14.394   4.245
89574SOL    HW170619   6.082  14.406   4.179
89574SOL    HW270620   6.011  14.299   4.258
89575SOL     OW70621   4.479   6.318   0.057
89575SOL    HW170622   4.409   6.296  14.882
89575SOL    HW270623   4.456   6.405   0.089
89576SOL     OW70624   6.552   4.754  12.307
89576SOL    HW170625   6.541   4.662  12.330
89576SOL    HW270626   6.463   4.784  12.286
89577SOL     OW70627  12.567   8.895   8.414
89577SOL    HW170628  12.617   8.880   8.494
89577SOL    HW270629  12.581   8.816   8.361
89578SOL     OW70630   5.616   2.738   0.073
89578SOL    HW170631   5.652   2.779   0.152
89578SOL    HW270632   5.529   2.778   0.063
89579SOL     OW70633   1.146   7.791   4.027
89579SOL    HW170634   1.130   7.816   4.118
89579SOL    HW270635   1.064   7.812   3.982
89580SOL     OW70636  11.019   9.943   4.799
89580SOL    HW170637  10.935   9.977   4.828
89580SOL    HW270638  11.084   9.993   4.849
89581SOL     OW70639  12.407  10.060   8.810
89581SOL    HW170640  12.388  10.058   8.716
89581SOL    HW270641  12.322  10.073   8.851
89582SOL     OW70642  11.355   9.945   1.663
89582SOL    HW170643  11.274   9.993   1.680
89582SOL    HW270644  11.337   9.856   1.695
89583SOL     OW70645  13.991  13.278   7.833
89583SOL    HW170646  14.040  13.326   7.900
89583SOL    HW270647  13.939  13.345   7.789
89584SOL     OW70648  10.048  10.289   2.169
89584SOL    HW170649  10.028  10.268   2.078
89584SOL    HW270650   9.970  10.262   2.217
89585SOL     OW70651   5.330   6.352   2.822
89585SOL    HW170652   5.345   6.419   2.755
89585SOL    HW270653   5.235   6.354   2.837
89586SOL     OW70654   8.064  10.920   6.177
89586SOL    HW170655   8.031  10.985   6.115
89586SOL    HW270656   8.159  10.924   6.167
89587SOL     OW70657  12.663  10.026  12.267
89587SOL    HW170658  12.631  10.067  12.187
89587SOL    HW270659  12.625   9.938  12.266
89588SOL     OW70660   0.068   1.307  13.373
89588SOL    HW170661   0.068   1.297  13.277
89588SOL    HW270662   0.158   1.286  13.399
89589SOL     OW70663  11.977   3.445   3.534
89589SOL    HW170664  12.059   3.428   3.579
89589SOL    HW270665  12.003   3.489   3.453
89590SOL     OW70666   5.565  12.093   7.233
89590SOL    HW170667   5.504  12.152   7.189
89590SOL    HW270668   5.589  12.029   7.166
89591SOL     OW70669  12.057   0.310   5.627
89591SOL    HW170670  12.085   0.272   5.710
89591SOL    HW270671  12.011   0.390   5.651
89592SOL     OW70672   0.969   6.439  12.921
89592SOL    HW170673   0.973   6.513  12.860
89592SOL    HW270674   0.943   6.479  13.004
89593SOL     OW70675   8.695  11.377  11.372
89593SOL    HW170676   8.766  11.437  11.347
89593SOL    HW270677   8.730  11.327  11.445
89594SOL     OW70678   1.407   6.676   2.691
89594SOL    HW170679   1.362   6.689   2.608
89594SOL    HW270680   1.500   6.684   2.669
89595SOL     OW70681   9.976  11.199   5.905
89595SOL    HW170682   9.913  11.265   5.936
89595SOL    HW270683   9.923  11.121   5.888
89596SOL     OW70684  11.023  14.037   7.810
89596SOL    HW170685  11.000  13.946   7.827
89596SOL    HW270686  11.050  14.038   7.718
89597SOL     OW70687  12.594   3.992   7.132
89597SOL    HW170688  12.619   4.006   7.041
89597SOL    HW270689  12.652   3.922   7.162
89598SOL     OW70690   0.375  11.976  11.115
89598SOL    HW170691   0.360  11.967  11.021
89598SOL    HW270692   0.470  11.985  11.124
89599SOL     OW70693   6.388  10.799   9.089
89599SOL    HW170694   6.329  10.761   9.154
89599SOL    HW270695   6.383  10.740   9.014
89600SOL     OW70696   7.801  14.865   4.372
89600SOL    HW170697   7.708  14.878   4.389
89600SOL    HW270698   7.818  14.774   4.396
89601SOL     OW70699  14.443  10.648   6.254
89601SOL    HW170700  14.382  10.601   6.310
89601SOL    HW270701  14.509  10.683   6.314
89602SOL     OW70702  12.892   7.081   5.244
89602SOL    HW170703  12.973   7.122   5.212
89602SOL    HW270704  12.855   7.039   5.167
89603SOL     OW70705   4.947   9.069   2.193
89603SOL    HW170706   5.026   9.019   2.173
89603SOL    HW270707   4.976   9.161   2.192
89604SOL     OW70708   8.257  14.408   2.923
89604SOL    HW170709   8.298  14.409   3.009
89604SOL    HW270710   8.265  14.498   2.892
89605SOL     OW70711   7.775  13.962   5.493
89605SOL    HW170712   7.754  13.980   5.585
89605SOL    HW270713   7.783  14.049   5.453
89606SOL     OW70714  14.260   8.197   1.054
89606SOL    HW170715  14.233   8.113   1.018
89606SOL    HW270716  14.356   8.198   1.044
89607SOL     OW70717   9.407   4.627   6.772
89607SOL    HW170718   9.402   4.573   6.693
89607SOL    HW270719   9.494   4.666   6.770
89608SOL     OW70720   2.698   9.423   9.199
89608SOL    HW170721   2.744   9.340   9.209
89608SOL    HW270722   2.700   9.462   9.286
89609SOL     OW70723   7.246   1.636   0.036
89609SOL    HW170724   7.326   1.596   0.070
89609SOL    HW270725   7.208   1.568  14.868
89610SOL     OW70726   9.171  11.242   9.367
89610SOL    HW170727   9.168  11.155   9.327
89610SOL    HW270728   9.165  11.303   9.293
89611SOL     OW70729   1.436   7.267   8.504
89611SOL    HW170730   1.387   7.212   8.443
89611SOL    HW270731   1.389   7.350   8.504
89612SOL     OW70732  13.017  12.136  13.521
89612SOL    HW170733  12.954  12.141  13.449
89612SOL    HW270734  13.001  12.050  13.561
89613SOL     OW70735   0.521   3.147   9.482
89613SOL    HW170736   0.454   3.078   9.474
89613SOL    HW270737   0.473   3.224   9.512
89614SOL     OW70738   1.898  10.157   7.007
89614SOL    HW170739   1.881  10.083   7.065
89614SOL    HW270740   1.811  10.193   6.988
89615SOL     OW70741  14.603  10.138   3.921
89615SOL    HW170742  14.550  10.195   3.866
89615SOL    HW270743  14.628  10.193   3.995
89616SOL     OW70744  13.343   1.064   7.530
89616SOL    HW170745  13.283   1.120   7.481
89616SOL    HW270746  13.293   1.038   7.608
89617SOL     OW70747   7.692  14.607   1.786
89617SOL    HW170748   7.603  14.635   1.763
89617SOL    HW270749   7.736  14.687   1.812
89618SOL     OW70750   3.385   5.600  14.001
89618SOL    HW170751   3.360   5.681  14.044
89618SOL    HW270752   3.425   5.627  13.919
89619SOL     OW70753   0.106   5.156   3.687
89619SOL    HW170754   0.049   5.097   3.639
89619SOL    HW270755   0.192   5.114   3.685
89620SOL     OW70756   4.522   7.967   3.050
89620SOL    HW170757   4.610   8.003   3.051
89620SOL    HW270758   4.523   7.897   3.115
89621SOL     OW70759   1.402   9.939   6.511
89621SOL    HW170760   1.408   9.905   6.601
89621SOL    HW270761   1.485   9.913   6.471
89622SOL     OW70762   0.661   4.095   6.468
89622SOL    HW170763   0.693   4.043   6.542
89622SOL    HW270764   0.735   4.098   6.408
89623SOL     OW70765  13.445  12.986  14.777
89623SOL    HW170766  13.525  12.977  14.725
89623SOL    HW270767  13.472  12.970  14.867
89624SOL     OW70768   4.749   3.403   1.657
89624SOL    HW170769   4.819   3.372   1.716
89624SOL    HW270770   4.745   3.497   1.672
89625SOL     OW70771   6.518   5.485  10.884
89625SOL    HW170772   6.558   5.476  10.798
89625SOL    HW270773   6.535   5.402  10.928
89626SOL     OW70774  10.383   7.941   2.578
89626SOL    HW170775  10.322   7.979   2.514
89626SOL    HW270776  10.376   8.000   2.653
89627SOL     OW70777   2.465   8.915  14.823
89627SOL    HW170778   2.482   8.874  14.738
89627SOL    HW270779   2.494   8.850  14.887
89628SOL     OW70780   3.149   1.819  12.092
89628SOL    HW170781   3.142   1.771  12.010
89628SOL    HW270782   3.061   1.851  12.110
89629SOL     OW70783   1.822  11.985  10.909
89629SOL    HW170784   1.875  11.988  10.988
89629SOL    HW270785   1.782  11.898  10.910
89630SOL     OW70786   4.016  12.825  14.285
89630SOL    HW170787   4.002  12.774  14.364
89630SOL    HW270788   3.953  12.789  14.222
89631SOL     OW70789   5.739  14.750  13.383
89631SOL    HW170790   5.692  14.671  13.359
89631SOL    HW270791   5.742  14.801  13.303
89632SOL     OW70792  10.636  12.069   6.019
89632SOL    HW170793  10.660  11.976   6.009
89632SOL    HW270794  10.701  12.116   5.968
89633SOL     OW70795  14.209   6.899   8.809
89633SOL    HW170796  14.232   6.991   8.818
89633SOL    HW270797  14.202   6.867   8.899
89634SOL     OW70798   3.404   1.096   9.210
89634SOL    HW170799   3.410   1.162   9.140
89634SOL    HW270800   3.335   1.036   9.181
89635SOL     OW70801  10.343   1.227  11.871
89635SOL    HW170802  10.432   1.256  11.852
89635SOL    HW270803  10.349   1.132  11.878
89636SOL     OW70804   0.253  14.745   2.027
89636SOL    HW170805   0.288  14.834   2.032
89636SOL    HW270806   0.161  14.757   2.006
89637SOL     OW70807   4.158  12.044   0.271
89637SOL    HW170808   4.155  11.973   0.207
89637SOL    HW270809   4.202  12.115   0.224
89638SOL     OW70810  10.540   1.153   2.686
89638SOL    HW170811  10.509   1.067   2.713
89638SOL    HW270812  10.600   1.135   2.613
89639SOL     OW70813   8.209   4.695   0.012
89639SOL    HW170814   8.269   4.653   0.075
89639SOL    HW270815   8.256   4.694  14.817
89640SOL     OW70816   1.117   6.902   7.561
89640SOL    HW170817   1.048   6.947   7.512
89640SOL    HW270818   1.070   6.835   7.612
89641SOL     OW70819   7.614   3.030   3.973
89641SOL    HW170820   7.557   2.953   3.974
89641SOL    HW270821   7.559   3.100   3.936
89642SOL     OW70822  14.346   8.015   7.647
89642SOL    HW170823  14.340   8.024   7.742
89642SOL    HW270824  14.386   8.097   7.618
89643SOL     OW70825   7.230   5.426   9.436
89643SOL    HW170826   7.261   5.345   9.396
89643SOL    HW270827   7.300   5.452   9.495
89644SOL     OW70828   0.554   2.715   3.318
89644SOL    HW170829   0.488   2.662   3.273
89644SOL    HW270830   0.628   2.717   3.257
89645SOL     OW70831   3.020  14.048   5.307
89645SOL    HW170832   3.067  14.087   5.381
89645SOL    HW270833   2.973  14.122   5.267
89646SOL     OW70834  14.452   6.138  10.744
89646SOL    HW170835  14.469   6.160  10.836
89646SOL    HW270836  14.477   6.046  10.737
89647SOL     OW70837   6.977   8.009  14.466
89647SOL    HW170838   6.964   7.939  14.530
89647SOL    HW270839   6.959   7.969  14.381
89648SOL     OW70840   5.602   2.908  10.225
89648SOL    HW170841   5.635   2.828  10.184
89648SOL    HW270842   5.560   2.956  10.154
89649SOL     OW70843   2.497   8.850   8.955
89649SOL    HW170844   2.507   8.795   8.877
89649SOL    HW270845   2.571   8.826   9.010
89650SOL     OW70846   3.744  11.896   1.434
89650SOL    HW170847   3.751  11.966   1.499
89650SOL    HW270848   3.754  11.941   1.349
89651SOL     OW70849  13.451   9.091  14.165
89651SOL    HW170850  13.485   9.160  14.108
89651SOL    HW270851  13.507   9.016  14.147
89652SOL     OW70852   5.153   0.082  10.307
89652SOL    HW170853   5.219   0.018  10.334
89652SOL    HW270854   5.132   0.130  10.387
89653SOL     OW70855  14.664  11.185  13.863
89653SOL    HW170856  14.597  11.147  13.806
89653SOL    HW270857  14.740  11.197  13.806
89654SOL     OW70858   1.227   8.899  14.801
89654SOL    HW170859   1.265   8.987  14.803
89654SOL    HW270860   1.158   8.904  14.735
89655SOL     OW70861  12.775   3.301   2.472
89655SOL    HW170862  12.697   3.351   2.492
89655SOL    HW270863  12.800   3.328   2.384
89656SOL     OW70864   7.467  14.264  13.145
89656SOL    HW170865   7.511  14.346  13.124
89656SOL    HW270866   7.480  14.253  13.239
89657SOL     OW70867   6.599  12.113   0.568
89657SOL    HW170868   6.604  12.148   0.479
89657SOL    HW270869   6.559  12.026   0.557
89658SOL     OW70870  13.492   6.101  11.665
89658SOL    HW170871  13.520   6.169  11.603
89658SOL    HW270872  13.397   6.102  11.660
89659SOL     OW70873   1.677   7.632   5.160
89659SOL    HW170874   1.673   7.602   5.251
89659SOL    HW270875   1.736   7.570   5.117
89660SOL     OW70876   9.815   2.842   6.794
89660SOL    HW170877   9.907   2.837   6.767
89660SOL    HW270878   9.817   2.825   6.888
89661SOL     OW70879  11.842  13.030   9.904
89661SOL    HW170880  11.762  13.067   9.867
89661SOL    HW270881  11.846  12.941   9.868
89662SOL     OW70882   7.493   3.819   2.501
89662SOL    HW170883   7.513   3.904   2.540
89662SOL    HW270884   7.421   3.785   2.554
89663SOL     OW70885   2.433  10.419   6.512
89663SOL    HW170886   2.362  10.483   6.527
89663SOL    HW270887   2.406  10.342   6.562
89664SOL     OW70888  11.375   3.938   0.095
89664SOL    HW170889  11.326   3.933   0.013
89664SOL    HW270890  11.464   3.915   0.072
89665SOL     OW70891   8.758  10.041   8.999
89665SOL    HW170892   8.776  10.066   8.908
89665SOL    HW270893   8.662  10.036   9.004
89666SOL     OW70894   3.597   1.796   7.597
89666SOL    HW170895   3.642   1.809   7.514
89666SOL    HW270896   3.622   1.707   7.625
89667SOL     OW70897  12.068   0.987   0.789
89667SOL    HW170898  12.089   0.977   0.882
89667SOL    HW270899  12.014   0.910   0.768
89668SOL     OW70900   9.072  14.232   2.450
89668SOL    HW170901   8.994  14.213   2.503
89668SOL    HW270902   9.061  14.178   2.372
89669SOL     OW70903  11.407  13.495   8.206
89669SOL    HW170904  11.458  13.508   8.286
89669SOL    HW270905  11.455  13.542   8.138
89670SOL     OW70906  14.056   9.147  10.317
89670SOL    HW170907  14.142   9.185  10.297
89670SOL    HW270908  14.030   9.189  10.399
89671SOL     OW70909   2.830  12.888   6.530
89671SOL    HW170910   2.763  12.824   6.506
89671SOL    HW270911   2.893  12.837   6.582
89672SOL     OW70912  13.609   9.078  12.126
89672SOL    HW170913  13.703   9.060  12.114
89672SOL    HW270914  13.590   9.049  12.215
89673SOL     OW70915   5.570   7.916   3.074
89673SOL    HW170916   5.517   7.955   3.143
89673SOL    HW270917   5.620   7.990   3.038
89674SOL     OW70918   2.831  12.758  14.622
89674SOL    HW170919   2.796  12.754  14.533
89674SOL    HW270920   2.773  12.701  14.672
89675SOL     OW70921   1.393   2.333  11.338
89675SOL    HW170922   1.395   2.408  11.398
89675SOL    HW270923   1.310   2.290  11.357
89676SOL     OW70924   3.539   0.103  13.869
89676SOL    HW170925   3.499   0.125  13.785
89676SOL    HW270926   3.502   0.017  13.891
89677SOL     OW70927  12.603   4.723   4.612
89677SOL    HW170928  12.558   4.639   4.618
89677SOL    HW270929  12.574   4.772   4.689
89678SOL     OW70930   1.765   0.849   6.461
89678SOL    HW170931   1.786   0.846   6.554
89678SOL    HW270932   1.833   0.796   6.419
89679SOL     OW70933  12.963  12.979   4.328
89679SOL    HW170934  12.997  13.054   4.378
89679SOL    HW270935  12.969  13.008   4.237
89680SOL     OW70936  14.130   4.636   3.713
89680SOL    HW170937  14.163   4.718   3.676
89680SOL    HW270938  14.145   4.571   3.644
89681SOL     OW70939   9.003   5.037   2.396
89681SOL    HW170940   9.036   5.031   2.306
89681SOL    HW270941   9.058   5.104   2.437
89682SOL     OW70942  14.446   8.770   9.322
89682SOL    HW170943  14.519   8.797   9.378
89682SOL    HW270944  14.389   8.846   9.319
89683SOL     OW70945   8.953   1.115   7.312
89683SOL    HW170946   8.909   1.133   7.395
89683SOL    HW270947   9.045   1.134   7.330
89684SOL     OW70948   0.297   5.881   5.926
89684SOL    HW170949   0.219   5.842   5.964
89684SOL    HW270950   0.299   5.970   5.961
89685SOL     OW70951   1.942   6.357   9.050
89685SOL    HW170952   1.905   6.417   8.986
89685SOL    HW270953   2.037   6.360   9.034
89686SOL     OW70954   2.726   4.542   1.897
89686SOL    HW170955   2.776   4.570   1.820
89686SOL    HW270956   2.685   4.460   1.870
89687SOL     OW70957   5.039  10.621  11.344
89687SOL    HW170958   4.946  10.618  11.320
89687SOL    HW270959   5.043  10.683  11.416
89688SOL     OW70960   3.300   2.106   7.823
89688SOL    HW170961   3.390   2.121   7.851
89688SOL    HW270962   3.283   2.175   7.759
89689SOL     OW70963   4.300   7.989   3.238
89689SOL    HW170964   4.385   8.028   3.258
89689SOL    HW270965   4.317   7.930   3.165
89690SOL     OW70966  11.603  12.412   5.940
89690SOL    HW170967  11.525  12.457   5.909
89690SOL    HW270968  11.605  12.430   6.034
89691SOL     OW70969   2.982  14.865   3.009
89691SOL    HW170970   3.075  14.854   2.990
89691SOL    HW270971   2.967  14.811   3.087
89692SOL     OW70972  10.656   8.526  10.935
89692SOL    HW170973  10.718   8.567  10.995
89692SOL    HW270974  10.629   8.445  10.979
89693SOL     OW70975  14.778   4.362   3.930
89693SOL    HW170976  14.804   4.358   3.838
89693SOL    HW270977  14.807   4.449   3.958
89694SOL     OW70978   4.471   2.239   0.150
89694SOL    HW170979   4.536   2.248   0.219
89694SOL    HW270980   4.435   2.152   0.162
89695SOL     OW70981  10.757   5.563   2.684
89695SOL    HW170982  10.725   5.607   2.605
89695SOL    HW270983  10.730   5.472   2.674
89696SOL     OW70984  11.048   8.367   9.600
89696SOL    HW170985  10.975   8.384   9.542
89696SOL    HW270986  11.010   8.368   9.688
89697SOL     OW70987   6.418   0.309   4.005
89697SOL    HW170988   6.431   0.301   4.100
89697SOL    HW270989   6.409   0.403   3.990
89698SOL     OW70990   6.792   1.006   7.581
89698SOL    HW170991   6.718   1.052   7.620
89698SOL    HW270992   6.867   1.065   7.593
89699SOL     OW70993   8.603  10.252  13.751
89699SOL    HW170994   8.590  10.347  13.746
89699SOL    HW270995   8.695  10.242  13.776
89700SOL     OW70996   5.963   4.782  14.749
89700SOL    HW170997   5.920   4.865  14.768
89700SOL    HW270998   6.057   4.802  14.752
89701SOL     OW70999  10.946   1.024   1.135
89701SOL    HW171000  11.010   1.094   1.120
89701SOL    HW271001  10.993   0.943   1.113
89702SOL     OW71002   7.186  12.533   8.912
89702SOL    HW171003   7.100  12.493   8.921
89702SOL    HW271004   7.213  12.512   8.822
89703SOL     OW71005   3.880   7.202  14.735
89703SOL    HW171006   3.844   7.141  14.670
89703SOL    HW271007   3.968   7.221  14.704
89704SOL     OW71008  11.500   9.291   3.845
89704SOL    HW171009  11.515   9.346   3.922
89704SOL    HW271010  11.510   9.201   3.877
89705SOL     OW71011   2.142   4.184  13.182
89705SOL    HW171012   2.094   4.205  13.101
89705SOL    HW271013   2.096   4.233  13.250
89706SOL     OW71014  14.588   2.251   3.668
89706SOL    HW171015  14.643   2.303   3.727
89706SOL    HW271016  14.540   2.315   3.616
89707SOL     OW71017   8.730   5.758   9.047
89707SOL    HW171018   8.689   5.748   8.961
89707SOL    HW271019   8.796   5.689   9.050
89708SOL     OW71020   1.985   8.059   2.248
89708SOL    HW171021   1.958   8.146   2.218
89708SOL    HW271022   2.014   8.073   2.338
89709SOL     OW71023   9.200   4.957   4.837
89709SOL    HW171024   9.237   5.044   4.853
89709SOL    HW271025   9.191   4.919   4.924
89710SOL     OW71026   4.403   2.301  12.495
89710SOL    HW171027   4.331   2.239  12.483
89710SOL    HW271028   4.479   2.247  12.517
89711SOL     OW71029   6.894  14.280   5.281
89711SOL    HW171030   6.913  14.327   5.199
89711SOL    HW271031   6.955  14.318   5.345
89712SOL     OW71032   8.132   5.387  10.033
89712SOL    HW171033   8.117   5.337  10.113
89712SOL    HW271034   8.222   5.369  10.009
89713SOL     OW71035   8.118   1.616  12.590
89713SOL    HW171036   8.077   1.698  12.561
89713SOL    HW271037   8.210   1.625  12.565
89714SOL     OW71038  14.616   6.623   3.628
89714SOL    HW171039  14.691   6.639   3.571
89714SOL    HW271040  14.588   6.709   3.657
89715SOL     OW71041   3.074   5.753   2.853
89715SOL    HW171042   3.163   5.738   2.820
89715SOL    HW271043   3.058   5.846   2.838
89716SOL     OW71044  13.016   8.127  10.089
89716SOL    HW171045  13.005   8.032  10.083
89716SOL    HW271046  13.106   8.139  10.117
89717SOL     OW71047  10.842   5.490   4.274
89717SOL    HW171048  10.927   5.483   4.318
89717SOL    HW271049  10.828   5.583   4.262
89718SOL     OW71050  13.925   4.291   0.564
89718SOL    HW171051  13.964   4.290   0.651
89718SOL    HW271052  13.837   4.256   0.576
89719SOL     OW71053  12.115   7.625  14.135
89719SOL    HW171054  12.046   7.588  14.189
89719SOL    HW271055  12.196   7.608  14.184
89720SOL     OW71056   4.254   1.220   7.602
89720SOL    HW171057   4.264   1.125   7.598
89720SOL    HW271058   4.185   1.234   7.666
89721SOL     OW71059   5.953   8.652   5.691
89721SOL    HW171060   5.905   8.583   5.736
89721SOL    HW271061   6.018   8.605   5.638
89722SOL     OW71062   5.568   5.964   2.461
89722SOL    HW171063   5.579   6.057   2.481
89722SOL    HW271064   5.501   5.934   2.522
89723SOL     OW71065   5.842  13.759  11.593
89723SOL    HW171066   5.857  13.667  11.619
89723SOL    HW271067   5.922  13.804  11.618
89724SOL     OW71068   9.493  14.363   5.541
89724SOL    HW171069   9.410  14.388   5.501
89724SOL    HW271070   9.485  14.391   5.632
89725SOL     OW71071  11.392   8.764   2.142
89725SOL    HW171072  11.459   8.775   2.074
89725SOL    HW271073  11.424   8.691   2.196
89726SOL     OW71074   5.549   3.545  13.603
89726SOL    HW171075   5.500   3.540  13.685
89726SOL    HW271076   5.623   3.603  13.622
89727SOL     OW71077   6.272   0.786  14.157
89727SOL    HW171078   6.280   0.691  14.148
89727SOL    HW271079   6.178   0.803  14.156
89728SOL     OW71080   3.940   1.415  11.998
89728SOL    HW171081   3.926   1.456  12.084
89728SOL    HW271082   4.034   1.428  11.980
89729SOL     OW71083   2.022   2.607   9.124
89729SOL    HW171084   2.083   2.623   9.196
89729SOL    HW271085   1.973   2.529   9.151
89730SOL     OW71086   9.863   0.273   1.075
89730SOL    HW171087   9.854   0.178   1.085
89730SOL    HW271088   9.833   0.308   1.159
89731SOL     OW71089  14.175   5.892   8.655
89731SOL    HW171090  14.081   5.878   8.665
89731SOL    HW271091  14.184   5.986   8.644
89732SOL     OW71092   3.124   0.158   0.934
89732SOL    HW171093   3.201   0.172   0.988
89732SOL    HW271094   3.123   0.064   0.917
89733SOL     OW71095   6.186  13.924   4.106
89733SOL    HW171096   6.158  14.002   4.155
89733SOL    HW271097   6.182  13.951   4.014
89734SOL     OW71098   8.344  13.968   5.629
89734SOL    HW171099   8.259  13.958   5.587
89734SOL    HW271100   8.364  13.882   5.665
89735SOL     OW71101   1.028  14.306   0.779
89735SOL    HW171102   1.039  14.315   0.874
89735SOL    HW271103   0.944  14.347   0.760
89736SOL     OW71104  13.736   9.247   3.612
89736SOL    HW171105  13.810   9.237   3.553
89736SOL    HW271106  13.667   9.194   3.573
89737SOL     OW71107   5.718  10.631  13.564
89737SOL    HW171108   5.698  10.586  13.482
89737SOL    HW271109   5.663  10.588  13.629
89738SOL     OW71110   9.215   8.691  11.716
89738SOL    HW171111   9.310   8.702  11.718
89738SOL    HW271112   9.191   8.681  11.808
89739SOL     OW71113   6.966   1.788   4.464
89739SOL    HW171114   6.964   1.876   4.502
89739SOL    HW271115   7.052   1.784   4.420
89740SOL     OW71116   1.371   9.440   1.082
89740SOL    HW171117   1.438   9.464   1.147
89740SOL    HW271118   1.306   9.390   1.132
89741SOL     OW71119   5.445   9.050  14.179
89741SOL    HW171120   5.511   9.069  14.112
89741SOL    HW271121   5.441   8.955  14.182
89742SOL     OW71122   9.317   7.581  10.499
89742SOL    HW171123   9.243   7.521  10.500
89742SOL    HW271124   9.381   7.540  10.557
89743SOL     OW71125  13.761  11.099   8.832
89743SOL    HW171126  13.775  11.045   8.910
89743SOL    HW271127  13.848  11.111   8.794
89744SOL     OW71128   2.565   7.195   8.987
89744SOL    HW171129   2.523   7.202   9.073
89744SOL    HW271130   2.541   7.108   8.955
89745SOL     OW71131   3.683   4.506   5.846
89745SOL    HW171132   3.677   4.595   5.880
89745SOL    HW271133   3.697   4.517   5.752
89746SOL     OW71134   0.030   5.963  12.682
89746SOL    HW171135  14.883   5.939  12.768
89746SOL    HW271136   0.124   5.976  12.697
89747SOL     OW71137   0.228  14.564   2.541
89747SOL    HW171138   0.237  14.509   2.619
89747SOL    HW271139   0.277  14.517   2.474
89748SOL     OW71140  13.952   9.266  13.497
89748SOL    HW171141  13.893   9.332  13.462
89748SOL    HW271142  13.894   9.200  13.536
89749SOL     OW71143   3.159   6.443  11.043
89749SOL    HW171144   3.064   6.446  11.031
89749SOL    HW271145   3.176   6.356  11.079
89750SOL     OW71146  13.613  14.330  11.419
89750SOL    HW171147  13.706  14.327  11.396
89750SOL    HW271148  13.603  14.263  11.488
89751SOL     OW71149  11.464   4.897  13.005
89751SOL    HW171150  11.405   4.895  13.081
89751SOL    HW271151  11.417   4.948  12.939
89752SOL     OW71152  10.730   8.276   3.690
89752SOL    HW171153  10.748   8.268   3.597
89752SOL    HW271154  10.817   8.284   3.730
89753SOL     OW71155   4.052  13.866  13.205
89753SOL    HW171156   4.025  13.777  13.229
89753SOL    HW271157   4.041  13.917  13.286
89754SOL     OW71158   0.029  10.015   4.145
89754SOL    HW171159  14.863  10.090   4.120
89754SOL    HW271160   0.109  10.023   4.092
89755SOL     OW71161   3.354  14.543   3.548
89755SOL    HW171162   3.354  14.595   3.467
89755SOL    HW271163   3.446  14.518   3.560
89756SOL     OW71164   1.902   0.206   7.175
89756SOL    HW171165   1.963   0.159   7.118
89756SOL    HW271166   1.835   0.141   7.197
89757SOL     OW71167   2.424   3.605   3.943
89757SOL    HW171168   2.509   3.562   3.935
89757SOL    HW271169   2.365   3.550   3.892
89758SOL     OW71170   5.099   9.919  14.040
89758SOL    HW171171   5.109   9.837  14.088
89758SOL    HW271172   5.188   9.940  14.010
89759SOL     OW71173  10.439  12.397  11.700
89759SOL    HW171174  10.384  12.323  11.724
89759SOL    HW271175  10.526  12.374  11.732
89760SOL     OW71176  11.517   7.727   0.608
89760SOL    HW171177  11.447   7.757   0.550
89760SOL    HW271178  11.541   7.641   0.573
89761SOL     OW71179   1.849  12.336  13.706
89761SOL    HW171180   1.839  12.269  13.774
89761SOL    HW271181   1.940  12.330  13.679
89762SOL     OW71182   6.048   9.488   0.808
89762SOL    HW171183   6.075   9.507   0.898
89762SOL    HW271184   5.985   9.416   0.817
89763SOL     OW71185   9.381   0.391  14.351
89763SOL    HW171186   9.362   0.321  14.288
89763SOL    HW271187   9.460   0.433  14.316
89764SOL     OW71188   8.909  14.498  10.524
89764SOL    HW171189   8.833  14.538  10.567
89764SOL    HW271190   8.937  14.429  10.583
89765SOL     OW71191  12.643   6.898  11.075
89765SOL    HW171192  12.722   6.844  11.074
89765SOL    HW271193  12.668   6.976  11.124
89766SOL     OW71194  10.117   3.932  10.686
89766SOL    HW171195  10.079   3.909  10.771
89766SOL    HW271196  10.042   3.945  10.628
89767SOL     OW71197   0.587  12.875  10.647
89767SOL    HW171198   0.571  12.923  10.729
89767SOL    HW271199   0.519  12.905  10.588
89768SOL     OW71200  13.852   3.070   3.699
89768SOL    HW171201  13.886   3.078   3.788
89768SOL    HW271202  13.789   2.998   3.704
89769SOL     OW71203   7.435   2.609   2.915
89769SOL    HW171204   7.496   2.610   2.841
89769SOL    HW271205   7.473   2.670   2.978
89770SOL     OW71206  13.986   4.444   0.881
89770SOL    HW171207  13.945   4.503   0.818
89770SOL    HW271208  13.914   4.412   0.935
89771SOL     OW71209  10.668   9.084  14.263
89771SOL    HW171210  10.697   9.057  14.350
89771SOL    HW271211  10.662   9.003  14.213
89772SOL     OW71212   7.926  13.573   3.065
89772SOL    HW171213   7.952  13.557   2.974
89772SOL    HW271214   7.836  13.540   3.070
89773SOL     OW71215  11.952  10.240   1.393
89773SOL    HW171216  11.948  10.180   1.318
89773SOL    HW271217  11.963  10.327   1.354
89774SOL     OW71218  13.022   1.754   4.398
89774SOL    HW171219  13.006   1.732   4.490
89774SOL    HW271220  13.065   1.677   4.362
89775SOL     OW71221  12.221   2.587   0.902
89775SOL    HW171222  12.169   2.664   0.878
89775SOL    HW271223  12.223   2.588   0.998
89776SOL     OW71224  10.749   8.785   3.873
89776SOL    HW171225  10.738   8.827   3.787
89776SOL    HW271226  10.683   8.716   3.874
89777SOL     OW71227   9.530   8.929   1.108
89777SOL    HW171228   9.574   8.853   1.071
89777SOL    HW271229   9.439   8.902   1.119
89778SOL     OW71230  11.593   6.654  10.450
89778SOL    HW171231  11.684   6.630  10.430
89778SOL    HW271232  11.542   6.577  10.424
89779SOL     OW71233   6.144  11.743   8.788
89779SOL    HW171234   6.202  11.787   8.725
89779SOL    HW271235   6.186  11.658   8.803
89780SOL     OW71236  13.434   2.700   5.266
89780SOL    HW171237  13.394   2.779   5.300
89780SOL    HW271238  13.525   2.705   5.294
89781SOL     OW71239   8.369   8.859  10.205
89781SOL    HW171240   8.373   8.892  10.295
89781SOL    HW271241   8.323   8.775  10.212
89782SOL     OW71242  14.571   9.861   5.167
89782SOL    HW171243  14.538   9.816   5.245
89782SOL    HW271244  14.665   9.849   5.170
89783SOL     OW71245   0.163  13.952  12.677
89783SOL    HW171246   0.106  13.883  12.641
89783SOL    HW271247   0.114  13.989  12.750
89784SOL     OW71248  10.421  12.174   8.135
89784SOL    HW171249  10.345  12.213   8.178
89784SOL    HW271250  10.442  12.234   8.064
89785SOL     OW71251   3.906   1.977  12.102
89785SOL    HW171252   3.920   2.066  12.069
89785SOL    HW271253   3.834   1.943  12.049
89786SOL     OW71254   1.449  14.415   1.746
89786SOL    HW171255   1.411  14.502   1.735
89786SOL    HW271256   1.390  14.357   1.697
89787SOL     OW71257  14.194   7.361  10.110
89787SOL    HW171258  14.240   7.287  10.149
89787SOL    HW271259  14.219   7.358  10.017
89788SOL     OW71260   2.410   4.190   0.904
89788SOL    HW171261   2.316   4.180   0.891
89788SOL    HW271262   2.431   4.126   0.973
89789SOL     OW71263  11.527   3.096  12.925
89789SOL    HW171264  11.588   3.052  12.984
89789SOL    HW271265  11.499   3.174  12.973
89790SOL     OW71266  12.694   4.521   6.786
89790SOL    HW171267  12.750   4.547   6.713
89790SOL    HW271268  12.632   4.458   6.747
89791SOL     OW71269   1.118   6.550   1.014
89791SOL    HW171270   1.129   6.535   0.920
89791SOL    HW271271   1.039   6.502   1.038
89792SOL     OW71272   0.753  12.359   9.441
89792SOL    HW171273   0.688  12.407   9.389
89792SOL    HW271274   0.706  12.332   9.519
89793SOL     OW71275   8.751   2.563   2.601
89793SOL    HW171276   8.784   2.493   2.657
89793SOL    HW271277   8.799   2.641   2.629
89794SOL     OW71278  10.649   9.414  10.345
89794SOL    HW171279  10.730   9.398  10.296
89794SOL    HW271280  10.640   9.339  10.403
89795SOL     OW71281   1.298   8.885   3.975
89795SOL    HW171282   1.343   8.968   3.992
89795SOL    HW271283   1.369   8.823   3.960
89796SOL     OW71284   7.698  14.162   0.980
89796SOL    HW171285   7.668  14.086   1.030
89796SOL    HW271286   7.733  14.125   0.898
89797SOL     OW71287   8.835   5.279   1.041
89797SOL    HW171288   8.899   5.210   1.057
89797SOL    HW271289   8.870   5.327   0.966
89798SOL     OW71290  11.209  12.627  13.662
89798SOL    HW171291  11.284  12.628  13.722
89798SOL    HW271292  11.248  12.631  13.575
89799SOL     OW71293   6.924   2.377   0.326
89799SOL    HW171294   6.987   2.448   0.333
89799SOL    HW271295   6.960   2.307   0.380
89800SOL     OW71296   8.502   5.323   6.166
89800SOL    HW171297   8.570   5.254   6.169
89800SOL    HW271298   8.548   5.402   6.194
89801SOL     OW71299   7.304   5.581   3.076
89801SOL    HW171300   7.350   5.594   3.159
89801SOL    HW271301   7.219   5.545   3.101
89802SOL     OW71302   6.510   9.779   4.262
89802SOL    HW171303   6.503   9.868   4.297
89802SOL    HW271304   6.430   9.736   4.291
89803SOL     OW71305  14.877   8.234  13.613
89803SOL    HW171306   0.081   8.264  13.611
89803SOL    HW271307  14.839   8.271  13.533
89804SOL     OW71308  10.586  11.690   1.556
89804SOL    HW171309  10.491  11.678   1.547
89804SOL    HW271310  10.600  11.695   1.651
89805SOL     OW71311  14.863   7.634   5.492
89805SOL    HW171312  14.793   7.692   5.522
89805SOL    HW271313   0.046   7.693   5.464
89806SOL     OW71314   6.590   8.118   4.455
89806SOL    HW171315   6.506   8.100   4.414
89806SOL    HW271316   6.613   8.207   4.425
89807SOL     OW71317   9.463  14.815  14.547
89807SOL    HW171318   9.427  14.879  14.609
89807SOL    HW271319   9.391  14.796  14.487
89808SOL     OW71320   8.859  10.811   9.089
89808SOL    HW171321   8.922  10.743   9.114
89808SOL    HW271322   8.892  10.890   9.132
89809SOL     OW71323   6.847   0.342   8.809
89809SOL    HW171324   6.887   0.391   8.737
89809SOL    HW271325   6.787   0.281   8.767
89810SOL     OW71326   4.636   1.001   8.843
89810SOL    HW171327   4.695   0.933   8.878
89810SOL    HW271328   4.590   0.958   8.772
89811SOL     OW71329   8.048  14.194   4.079
89811SOL    HW171330   7.974  14.247   4.050
89811SOL    HW271331   8.126  14.247   4.057
89812SOL     OW71332   2.824   4.824  11.931
89812SOL    HW171333   2.733   4.827  11.902
89812SOL    HW271334   2.855   4.738  11.902
89813SOL     OW71335   3.039  13.565   8.975
89813SOL    HW171336   3.086  13.629   8.921
89813SOL    HW271337   3.109  13.510   9.011
89814SOL     OW71338   4.179   8.477  14.691
89814SOL    HW171339   4.243   8.468  14.621
89814SOL    HW271340   4.096   8.492  14.647
89815SOL     OW71341   8.890   5.445   7.661
89815SOL    HW171342   8.933   5.428   7.577
89815SOL    HW271343   8.894   5.540   7.670
89816SOL     OW71344  10.772   6.503   5.370
89816SOL    HW171345  10.708   6.543   5.429
89816SOL    HW271346  10.829   6.576   5.344
89817SOL     OW71347   9.610  12.206   5.736
89817SOL    HW171348   9.583  12.267   5.667
89817SOL    HW271349   9.555  12.227   5.811
89818SOL     OW71350  11.079  13.291  11.078
89818SOL    HW171351  11.142  13.228  11.113
89818SOL    HW271352  10.994  13.250  11.090
89819SOL     OW71353  11.673   2.603  13.705
89819SOL    HW171354  11.729   2.550  13.648
89819SOL    HW271355  11.633   2.667  13.647
89820SOL     OW71356   8.251  13.104   2.040
89820SOL    HW171357   8.228  13.018   2.074
89820SOL    HW271358   8.290  13.088   1.955
89821SOL     OW71359  12.574   8.951  13.649
89821SOL    HW171360  12.517   8.904  13.588
89821SOL    HW271361  12.537   9.039  13.653
89822SOL     OW71362   7.750   7.023   4.848
89822SOL    HW171363   7.826   7.059   4.893
89822SOL    HW271364   7.726   6.945   4.898
89823SOL     OW71365  11.713  14.756   1.136
89823SOL    HW171366  11.786  14.792   1.086
89823SOL    HW271367  11.674  14.690   1.077
89824SOL     OW71368  12.254   3.626   9.980
89824SOL    HW171369  12.182   3.602  10.038
89824SOL    HW271370  12.298   3.699  10.025
89825SOL     OW71371   6.868   5.584   6.980
89825SOL    HW171372   6.867   5.656   7.043
89825SOL    HW271373   6.923   5.615   6.908
89826SOL     OW71374   6.008  14.494   5.724
89826SOL    HW171375   6.067  14.425   5.754
89826SOL    HW271376   5.920  14.462   5.744
89827SOL     OW71377  12.548   4.763  14.817
89827SOL    HW171378  12.466   4.713  14.825
89827SOL    HW271379  12.521   4.849  14.785
89828SOL     OW71380   5.166   2.848  11.547
89828SOL    HW171381   5.102   2.855  11.618
89828SOL    HW271382   5.237   2.795  11.584
89829SOL     OW71383   5.808  14.115   1.025
89829SOL    HW171384   5.877  14.164   0.980
89829SOL    HW271385   5.791  14.166   1.104
89830SOL     OW71386   6.558   5.403   7.507
89830SOL    HW171387   6.506   5.467   7.458
89830SOL    HW271388   6.506   5.386   7.585
89831SOL     OW71389   5.780  11.987   4.893
89831SOL    HW171390   5.867  11.951   4.877
89831SOL    HW271391   5.767  12.050   4.822
89832SOL     OW71392   9.572   0.384   4.904
89832SOL    HW171393   9.598   0.420   4.819
89832SOL    HW271394   9.477   0.377   4.899
89833SOL     OW71395  11.792  11.095   0.905
89833SOL    HW171396  11.782  11.008   0.943
89833SOL    HW271397  11.705  11.116   0.869
89834SOL     OW71398   2.055  14.268   5.213
89834SOL    HW171399   1.978  14.246   5.264
89834SOL    HW271400   2.023  14.328   5.145
89835SOL     OW71401   3.640   4.516   0.371
89835SOL    HW171402   3.611   4.603   0.398
89835SOL    HW271403   3.600   4.503   0.285
89836SOL     OW71404   2.849   0.903   0.194
89836SOL    HW171405   2.897   0.986   0.194
89836SOL    HW271406   2.860   0.868   0.282
89837SOL     OW71407  14.150   8.565   4.574
89837SOL    HW171408  14.087   8.574   4.645
89837SOL    HW271409  14.233   8.598   4.609
89838SOL     OW71410   2.082  11.663   7.632
89838SOL    HW171411   2.027  11.588   7.656
89838SOL    HW271412   2.088  11.714   7.713
89839SOL     OW71413  10.568  13.348   5.754
89839SOL    HW171414  10.652  13.373   5.794
89839SOL    HW271415  10.506  13.347   5.827
89840SOL     OW71416   5.694   2.068   0.015
89840SOL    HW171417   5.616   2.095   0.064
89840SOL    HW271418   5.755   2.036   0.082
89841SOL     OW71419   3.959  10.327   8.295
89841SOL    HW171420   4.036  10.378   8.317
89841SOL    HW271421   3.993  10.246   8.258
89842SOL     OW71422   0.475   1.491   6.861
89842SOL    HW171423   0.530   1.525   6.932
89842SOL    HW271424   0.423   1.423   6.901
89843SOL     OW71425   0.925  13.304  12.501
89843SOL    HW171426   0.886  13.216  12.508
89843SOL    HW271427   0.864  13.361  12.547
89844SOL     OW71428   1.604   8.640  11.606
89844SOL    HW171429   1.531   8.648  11.667
89844SOL    HW271430   1.629   8.730  11.587
89845SOL     OW71431  14.079   5.293   8.362
89845SOL    HW171432  14.068   5.239   8.284
89845SOL    HW271433  14.107   5.379   8.327
89846SOL     OW71434   8.371  14.847   9.374
89846SOL    HW171435   8.329  14.762   9.358
89846SOL    HW271436   8.303   0.012   9.416
89847SOL     OW71437   3.571  11.734   2.702
89847SOL    HW171438   3.581  11.824   2.672
89847SOL    HW271439   3.477  11.726   2.720
89848SOL     OW71440  12.906   4.931  11.581
89848SOL    HW171441  12.832   4.904  11.527
89848SOL    HW271442  12.983   4.911  11.528
89849SOL     OW71443  14.658   6.693  13.368
89849SOL    HW171444  14.627   6.745  13.293
89849SOL    HW271445  14.748   6.722  13.382
89850SOL     OW71446  11.427   0.618   7.366
89850SOL    HW171447  11.411   0.690   7.427
89850SOL    HW271448  11.381   0.543   7.404
89851SOL     OW71449  10.889   6.438  10.468
89851SOL    HW171450  10.920   6.528  10.481
89851SOL    HW271451  10.855   6.437  10.379
89852SOL     OW71452  11.109   2.146  13.119
89852SOL    HW171453  11.095   2.070  13.175
89852SOL    HW271454  11.203   2.162  13.124
89853SOL     OW71455  12.318   6.458   6.249
89853SOL    HW171456  12.260   6.387   6.278
89853SOL    HW271457  12.260   6.533   6.238
89854SOL     OW71458  10.293   9.155   8.260
89854SOL    HW171459  10.317   9.246   8.277
89854SOL    HW271460  10.228   9.135   8.327
89855SOL     OW71461   2.312   8.801   2.071
89855SOL    HW171462   2.288   8.885   2.111
89855SOL    HW271463   2.281   8.735   2.133
89856SOL     OW71464   6.880   0.953  13.279
89856SOL    HW171465   6.902   0.888  13.212
89856SOL    HW271466   6.946   1.021  13.269
89857SOL     OW71467   5.273   6.183  10.631
89857SOL    HW171468   5.275   6.233  10.550
89857SOL    HW271469   5.357   6.202  10.674
89858SOL     OW71470  11.102  13.546   7.917
89858SOL    HW171471  11.080  13.615   7.854
89858SOL    HW271472  11.049  13.565   7.994
89859SOL     OW71473   9.884  13.825   4.268
89859SOL    HW171474   9.976  13.800   4.274
89859SOL    HW271475   9.884  13.921   4.279
89860SOL     OW71476   4.796   9.847   8.757
89860SOL    HW171477   4.733   9.815   8.692
89860SOL    HW271478   4.743   9.866   8.834
89861SOL     OW71479  11.341   5.506   2.913
89861SOL    HW171480  11.282   5.457   2.856
89861SOL    HW271481  11.314   5.482   3.001
89862SOL     OW71482   9.581   8.066   9.293
89862SOL    HW171483   9.507   8.120   9.267
89862SOL    HW271484   9.553   7.976   9.276
89863SOL     OW71485  11.508   0.515  14.433
89863SOL    HW171486  11.532   0.595  14.480
89863SOL    HW271487  11.583   0.458  14.444
89864SOL     OW71488   6.848   1.036   5.620
89864SOL    HW171489   6.863   0.957   5.569
89864SOL    HW271490   6.932   1.057   5.659
89865SOL     OW71491   3.829   2.022   0.603
89865SOL    HW171492   3.759   2.035   0.539
89865SOL    HW271493   3.851   2.110   0.634
89866SOL     OW71494   8.448  12.186   3.085
89866SOL    HW171495   8.526  12.133   3.071
89866SOL    HW271496   8.436  12.235   3.004
89867SOL     OW71497  13.785  13.637   5.902
89867SOL    HW171498  13.861  13.594   5.863
89867SOL    HW271499  13.771  13.714   5.847
89868SOL     OW71500   7.092  13.601   2.172
89868SOL    HW171501   7.173  13.551   2.181
89868SOL    HW271502   7.060  13.613   2.261
89869SOL     OW71503  10.274   3.642   6.535
89869SOL    HW171504  10.190   3.610   6.569
89869SOL    HW271505  10.335   3.570   6.551
89870SOL     OW71506   7.710   4.467  13.823
89870SOL    HW171507   7.633   4.478  13.768
89870SOL    HW271508   7.707   4.542  13.883
89871SOL     OW71509   1.258   6.368  12.106
89871SOL    HW171510   1.246   6.463  12.098
89871SOL    HW271511   1.337   6.359  12.160
89872SOL     OW71512   7.024   9.378   9.657
89872SOL    HW171513   7.029   9.420   9.571
89872SOL    HW271514   7.067   9.294   9.644
89873SOL     OW71515   1.976   2.588   6.693
89873SOL    HW171516   1.943   2.608   6.781
89873SOL    HW271517   2.065   2.557   6.707
89874SOL     OW71518  11.752  13.729   5.587
89874SOL    HW171519  11.657  13.735   5.590
89874SOL    HW271520  11.783  13.812   5.624
89875SOL     OW71521   5.185   6.563  11.213
89875SOL    HW171522   5.210   6.545  11.303
89875SOL    HW271523   5.185   6.478  11.170
89876SOL     OW71524   3.423   3.262  11.885
89876SOL    HW171525   3.461   3.350  11.882
89876SOL    HW271526   3.373   3.255  11.804
89877SOL     OW71527   4.445   8.814   8.255
89877SOL    HW171528   4.525   8.844   8.298
89877SOL    HW271529   4.476   8.766   8.178
89878SOL     OW71530   0.418  11.640   6.258
89878SOL    HW171531   0.360  11.694   6.204
89878SOL    HW271532   0.406  11.673   6.347
89879SOL     OW71533   6.468  10.071   0.975
89879SOL    HW171534   6.562  10.085   0.985
89879SOL    HW271535   6.460  10.011   0.901
89880SOL     OW71536  11.251   4.291  12.643
89880SOL    HW171537  11.212   4.374  12.614
89880SOL    HW271538  11.335   4.316  12.681
89881SOL     OW71539   3.413  12.414   0.764
89881SOL    HW171540   3.333  12.436   0.715
89881SOL    HW271541   3.397  12.452   0.851
89882SOL     OW71542   1.221  10.467  12.086
89882SOL    HW171543   1.147  10.526  12.099
89882SOL    HW271544   1.261  10.498  12.004
89883SOL     OW71545   6.153   5.706   6.824
89883SOL    HW171546   6.063   5.737   6.814
89883SOL    HW271547   6.160   5.632   6.763
89884SOL     OW71548   0.633   4.115   4.241
89884SOL    HW171549   0.638   4.020   4.248
89884SOL    HW271550   0.666   4.135   4.154
89885SOL     OW71551   0.105  12.002   9.270
89885SOL    HW171552   0.079  12.078   9.322
89885SOL    HW271553   0.189  11.976   9.306
89886SOL     OW71554   3.934   8.588  14.519
89886SOL    HW171555   3.992   8.654  14.481
89886SOL    HW271556   3.849   8.631  14.526
89887SOL     OW71557   1.724   4.215   4.158
89887SOL    HW171558   1.705   4.246   4.246
89887SOL    HW271559   1.786   4.143   4.171
89888SOL     OW71560   1.454  11.044  10.723
89888SOL    HW171561   1.519  11.062  10.791
89888SOL    HW271562   1.398  10.976  10.761
89889SOL     OW71563   0.272  10.782   5.370
89889SOL    HW171564   0.266  10.700   5.321
89889SOL    HW271565   0.320  10.759   5.449
89890SOL     OW71566   5.679   6.574   2.037
89890SOL    HW171567   5.667   6.650   2.094
89890SOL    HW271568   5.764   6.588   1.996
89891SOL     OW71569  11.732   6.769  13.224
89891SOL    HW171570  11.764   6.706  13.288
89891SOL    HW271571  11.681   6.717  13.162
89892SOL     OW71572  10.246  12.613   9.777
89892SOL    HW171573  10.274  12.543   9.835
89892SOL    HW271574  10.288  12.594   9.694
89893SOL     OW71575   7.236  12.330  13.203
89893SOL    HW171576   7.194  12.321  13.118
89893SOL    HW271577   7.328  12.346  13.183
89894SOL     OW71578   2.059  11.019  14.585
89894SOL    HW171579   2.020  10.932  14.574
89894SOL    HW271580   2.010  11.075  14.525
89895SOL     OW71581   2.867   0.381   3.859
89895SOL    HW171582   2.804   0.322   3.818
89895SOL    HW271583   2.833   0.395   3.947
89896SOL     OW71584  13.551  10.804  12.399
89896SOL    HW171585  13.472  10.841  12.361
89896SOL    HW271586  13.607  10.785  12.323
89897SOL     OW71587   1.859   5.420   1.810
89897SOL    HW171588   1.929   5.485   1.817
89897SOL    HW271589   1.868   5.367   1.889
89898SOL     OW71590   6.959   6.072  11.737
89898SOL    HW171591   7.027   6.006  11.723
89898SOL    HW271592   6.928   6.056  11.826
89899SOL     OW71593   5.092   6.675  11.681
89899SOL    HW171594   5.137   6.682  11.597
89899SOL    HW271595   5.162   6.681  11.746
89900SOL     OW71596  13.777  10.495   8.790
89900SOL    HW171597  13.791  10.527   8.701
89900SOL    HW271598  13.732  10.411   8.778
89901SOL     OW71599  11.202   6.768   8.771
89901SOL    HW171600  11.272   6.778   8.835
89901SOL    HW271601  11.123   6.798   8.815
89902SOL     OW71602   1.943   7.196   9.841
89902SOL    HW171603   1.893   7.116   9.857
89902SOL    HW271604   2.006   7.200   9.913
89903SOL     OW71605  13.313   0.302   0.978
89903SOL    HW171606  13.374   0.337   1.043
89903SOL    HW271607  13.288   0.378   0.925
89904SOL     OW71608   4.027   0.992  12.038
89904SOL    HW171609   4.033   0.909  11.991
89904SOL    HW271610   4.106   0.994  12.093
89905SOL     OW71611   1.382   7.240   7.567
89905SOL    HW171612   1.378   7.272   7.658
89905SOL    HW271613   1.400   7.318   7.515
89906SOL     OW71614  12.779   6.303  14.609
89906SOL    HW171615  12.733   6.226  14.642
89906SOL    HW271616  12.866   6.270  14.585
89907SOL     OW71617   4.613   0.273   9.107
89907SOL    HW171618   4.536   0.303   9.157
89907SOL    HW271619   4.674   0.346   9.111
89908SOL     OW71620   9.406   2.970  10.227
89908SOL    HW171621   9.346   3.022  10.174
89908SOL    HW271622   9.357   2.949  10.306
89909SOL     OW71623   9.451   1.132  13.841
89909SOL    HW171624   9.466   1.154  13.749
89909SOL    HW271625   9.356   1.141  13.853
89910SOL     OW71626  14.044  14.365   6.470
89910SOL    HW171627  13.974  14.359   6.536
89910SOL    HW271628  14.083  14.451   6.485
89911SOL     OW71629  12.856   0.458  13.637
89911SOL    HW171630  12.933   0.402  13.646
89911SOL    HW271631  12.892   0.543  13.610
89912SOL     OW71632   6.227   1.806   3.416
89912SOL    HW171633   6.289   1.735   3.433
89912SOL    HW271634   6.141   1.768   3.433
89913SOL     OW71635  12.675   8.810   4.515
89913SOL    HW171636  12.599   8.861   4.484
89913SOL    HW271637  12.727   8.873   4.564
89914SOL     OW71638  11.504   6.834   8.655
89914SOL    HW171639  11.457   6.773   8.599
89914SOL    HW271640  11.583   6.857   8.606
89915SOL     OW71641   6.507  12.539   9.833
89915SOL    HW171642   6.537  12.454   9.802
89915SOL    HW271643   6.412  12.529   9.841
89916SOL     OW71644   7.415  12.139   5.778
89916SOL    HW171645   7.505  12.167   5.792
89916SOL    HW271646   7.419  12.082   5.701
89917SOL     OW71647  10.067   1.257  12.778
89917SOL    HW171648  10.054   1.190  12.711
89917SOL    HW271649   9.992   1.316  12.769
89918SOL     OW71650  10.257  12.245   3.536
89918SOL    HW171651  10.330  12.218   3.591
89918SOL    HW271652  10.288  12.229   3.446
89919SOL     OW71653   9.716  12.126   7.903
89919SOL    HW171654   9.713  12.220   7.888
89919SOL    HW271655   9.690  12.088   7.819
89920SOL     OW71656   8.421  11.774   6.004
89920SOL    HW171657   8.366  11.831   6.056
89920SOL    HW271658   8.426  11.817   5.918
89921SOL     OW71659   3.305   1.940   5.368
89921SOL    HW171660   3.236   1.993   5.327
89921SOL    HW271661   3.328   1.987   5.448
89922SOL     OW71662  14.872   4.813   2.626
89922SOL    HW171663   0.019   4.738   2.675
89922SOL    HW271664   0.063   4.859   2.594
89923SOL     OW71665  13.408   6.666   2.694
89923SOL    HW171666  13.450   6.701   2.773
89923SOL    HW271667  13.401   6.742   2.635
89924SOL     OW71668   3.124   4.815  14.230
89924SOL    HW171669   3.149   4.818  14.138
89924SOL    HW271670   3.033   4.786  14.228
89925SOL     OW71671  13.350  10.495   0.321
89925SOL    HW171672  13.425  10.462   0.271
89925SOL    HW271673  13.388  10.520   0.405
89926SOL     OW71674  13.383   1.830   1.342
89926SOL    HW171675  13.297   1.831   1.385
89926SOL    HW271676  13.431   1.901   1.385
89927SOL     OW71677   5.624   2.076   4.621
89927SOL    HW171678   5.679   2.154   4.630
89927SOL    HW271679   5.571   2.076   4.701
89928SOL     OW71680   6.191   7.456   2.325
89928SOL    HW171681   6.184   7.528   2.263
89928SOL    HW271682   6.154   7.491   2.406
89929SOL     OW71683   5.200   8.309  13.403
89929SOL    HW171684   5.267   8.255  13.360
89929SOL    HW271685   5.159   8.250  13.465
89930SOL     OW71686   1.034  13.682  10.820
89930SOL    HW171687   1.126  13.661  10.804
89930SOL    HW271688   1.006  13.617  10.884
89931SOL     OW71689   6.118   4.956   0.938
89931SOL    HW171690   6.025   4.952   0.959
89931SOL    HW271691   6.160   4.895   1.000
89932SOL     OW71692   4.986   1.389  12.133
89932SOL    HW171693   5.000   1.483  12.122
89932SOL    HW271694   4.899   1.373  12.098
89933SOL     OW71695  14.844   1.872  12.544
89933SOL    HW171696  14.885   1.902  12.463
89933SOL    HW271697  14.767   1.928  12.555
89934SOL     OW71698   5.692   0.640   9.588
89934SOL    HW171699   5.666   0.729   9.612
89934SOL    HW271700   5.718   0.646   9.496
89935SOL     OW71701   0.203   7.075   4.284
89935SOL    HW171702   0.275   7.138   4.279
89935SOL    HW271703   0.176   7.061   4.193
89936SOL     OW71704   4.792   7.650  13.650
89936SOL    HW171705   4.778   7.703  13.571
89936SOL    HW271706   4.779   7.560  13.622
89937SOL     OW71707   7.540   5.699  13.558
89937SOL    HW171708   7.598   5.743  13.496
89937SOL    HW271709   7.593   5.627  13.593
89938SOL     OW71710   8.292   5.539   4.400
89938SOL    HW171711   8.279   5.445   4.386
89938SOL    HW271712   8.233   5.581   4.337
89939SOL     OW71713   9.957   0.010  11.141
89939SOL    HW171714   9.983   0.066  11.069
89939SOL    HW271715  10.019   0.029  11.211
89940SOL     OW71716   6.603   9.500   9.713
89940SOL    HW171717   6.516   9.464   9.731
89940SOL    HW271718   6.586   9.590   9.687
89941SOL     OW71719  14.452   7.378   0.238
89941SOL    HW171720  14.515   7.309   0.259
89941SOL    HW271721  14.469   7.446   0.303
89942SOL     OW71722  14.482   6.488   7.473
89942SOL    HW171723  14.476   6.393   7.477
89942SOL    HW271724  14.496   6.514   7.564
89943SOL     OW71725   9.107   1.938  11.699
89943SOL    HW171726   9.101   1.885  11.778
89943SOL    HW271727   9.034   2.000  11.705
89944SOL     OW71728  12.353   1.088   1.657
89944SOL    HW171729  12.268   1.076   1.616
89944SOL    HW271730  12.373   1.181   1.644
89945SOL     OW71731   6.683  12.969   3.173
89945SOL    HW171732   6.697  12.893   3.116
89945SOL    HW271733   6.633  12.934   3.247
89946SOL     OW71734  11.080   7.034   5.283
89946SOL    HW171735  11.092   7.032   5.188
89946SOL    HW271736  11.169   7.042   5.318
89947SOL     OW71737  14.314   8.096   7.893
89947SOL    HW171738  14.220   8.079   7.904
89947SOL    HW271739  14.321   8.192   7.900
89948SOL     OW71740   8.561  11.587   3.105
89948SOL    HW171741   8.513  11.602   3.023
89948SOL    HW271742   8.652  11.581   3.078
89949SOL     OW71743   5.528  14.585  13.324
89949SOL    HW171744   5.507  14.498  13.291
89949SOL    HW271745   5.467  14.643  13.278
89950SOL     OW71746   1.141   6.967   9.848
89950SOL    HW171747   1.228   6.988   9.813
89950SOL    HW271748   1.158   6.904   9.917
89951SOL     OW71749  11.436  11.885  12.850
89951SOL    HW171750  11.472  11.829  12.918
89951SOL    HW271751  11.438  11.832  12.771
89952SOL     OW71752   2.198  14.392   7.342
89952SOL    HW171753   2.230  14.307   7.311
89952SOL    HW271754   2.151  14.429   7.268
89953SOL     OW71755   2.767  11.079  13.672
89953SOL    HW171756   2.807  11.154  13.715
89953SOL    HW271757   2.708  11.118  13.607
89954SOL     OW71758   8.554  11.221  10.523
89954SOL    HW171759   8.620  11.225  10.454
89954SOL    HW271760   8.507  11.305  10.516
89955SOL     OW71761   5.094   0.557   6.439
89955SOL    HW171762   5.031   0.623   6.470
89955SOL    HW271763   5.165   0.560   6.503
89956SOL     OW71764  12.191   4.329  11.596
89956SOL    HW171765  12.138   4.409  11.603
89956SOL    HW271766  12.281   4.361  11.587
89957SOL     OW71767  12.568   9.130   9.636
89957SOL    HW171768  12.648   9.169   9.600
89957SOL    HW271769  12.502   9.199   9.628
89958SOL     OW71770  12.545   6.873   6.033
89958SOL    HW171771  12.452   6.897   6.027
89958SOL    HW271772  12.544   6.778   6.040
89959SOL     OW71773   0.972  14.479   0.240
89959SOL    HW171774   0.889  14.470   0.288
89959SOL    HW271775   0.949  14.457   0.150
89960SOL     OW71776   4.946   6.470  10.613
89960SOL    HW171777   4.914   6.536  10.674
89960SOL    HW271778   4.892   6.481  10.535
89961SOL     OW71779   7.535  12.531  10.259
89961SOL    HW171780   7.440  12.522  10.268
89961SOL    HW271781   7.563  12.451  10.214
89962SOL     OW71782   1.329  14.207   1.927
89962SOL    HW171783   1.310  14.217   1.833
89962SOL    HW271784   1.374  14.288   1.951
89963SOL     OW71785  13.515   4.856  10.920
89963SOL    HW171786  13.484   4.816  11.002
89963SOL    HW271787  13.443   4.911  10.892
89964SOL     OW71788   5.622  13.811   2.383
89964SOL    HW171789   5.585  13.845   2.302
89964SOL    HW271790   5.602  13.879   2.448
89965SOL     OW71791  14.452  10.265   7.982
89965SOL    HW171792  14.489  10.348   7.952
89965SOL    HW271793  14.528  10.212   8.005
89966SOL     OW71794   4.329   4.918   6.912
89966SOL    HW171795   4.356   4.833   6.947
89966SOL    HW271796   4.377   4.927   6.830
89967SOL     OW71797  11.084  12.770  11.793
89967SOL    HW171798  11.168  12.791  11.752
89967SOL    HW271799  11.077  12.675  11.785
89968SOL     OW71800   4.822   9.062  13.095
89968SOL    HW171801   4.813   9.128  13.026
89968SOL    HW271802   4.750   9.001  13.080
89969SOL     OW71803   0.744   8.008   2.021
89969SOL    HW171804   0.728   7.925   1.975
89969SOL    HW271805   0.669   8.063   1.998
89970SOL     OW71806  12.071   3.673  14.826
89970SOL    HW171807  12.146   3.630  14.868
89970SOL    HW271808  12.010   3.601  14.809
89971SOL     OW71809  12.693   0.431   8.585
89971SOL    HW171810  12.660   0.468   8.667
89971SOL    HW271811  12.692   0.337   8.600
89972SOL     OW71812  10.933   4.758  10.328
89972SOL    HW171813  10.876   4.766  10.405
89972SOL    HW271814  10.930   4.845  10.288
89973SOL     OW71815   0.398   7.857   0.335
89973SOL    HW171816   0.463   7.904   0.283
89973SOL    HW271817   0.407   7.766   0.307
89974SOL     OW71818  13.170  13.978   8.695
89974SOL    HW171819  13.193  13.901   8.747
89974SOL    HW271820  13.075  13.977   8.691
89975SOL     OW71821   5.340   1.532   4.434
89975SOL    HW171822   5.268   1.501   4.379
89975SOL    HW271823   5.362   1.457   4.489
89976SOL     OW71824   3.946   3.573   8.940
89976SOL    HW171825   3.978   3.617   8.861
89976SOL    HW271826   3.852   3.592   8.941
89977SOL     OW71827   5.923  13.010  10.029
89977SOL    HW171828   5.870  12.939   9.992
89977SOL    HW271829   5.961  12.972  10.108
89978SOL     OW71830   2.061  10.699   4.901
89978SOL    HW171831   1.974  10.675   4.934
89978SOL    HW271832   2.111  10.617   4.904
89979SOL     OW71833  13.935  14.644   4.128
89979SOL    HW171834  13.866  14.662   4.192
89979SOL    HW271835  14.012  14.625   4.181
89980SOL     OW71836   9.908  14.299   8.755
89980SOL    HW171837   9.987  14.314   8.808
89980SOL    HW271838   9.880  14.387   8.729
89981SOL     OW71839   5.491   7.721   7.384
89981SOL    HW171840   5.452   7.766   7.309
89981SOL    HW271841   5.420   7.718   7.449
89982SOL     OW71842   0.554   5.837   9.188
89982SOL    HW171843   0.541   5.897   9.261
89982SOL    HW271844   0.486   5.771   9.199
89983SOL     OW71845  13.022  12.535   3.668
89983SOL    HW171846  13.088  12.600   3.643
89983SOL    HW271847  13.073  12.460   3.700
89984SOL     OW71848   4.970  10.845   4.729
89984SOL    HW171849   5.011  10.886   4.806
89984SOL    HW271850   4.923  10.770   4.765
89985SOL     OW71851   2.394   4.819   7.950
89985SOL    HW171852   2.367   4.784   8.034
89985SOL    HW271853   2.384   4.914   7.960
89986SOL     OW71854   2.702   2.794   0.580
89986SOL    HW171855   2.631   2.856   0.595
89986SOL    HW271856   2.741   2.822   0.497
89987SOL     OW71857  11.546  10.211   1.865
89987SOL    HW171858  11.576  10.124   1.842
89987SOL    HW271859  11.580  10.268   1.796
89988SOL     OW71860   1.398   5.442   4.853
89988SOL    HW171861   1.349   5.398   4.784
89988SOL    HW271862   1.390   5.384   4.929
89989SOL     OW71863   3.965   9.212  11.872
89989SOL    HW171864   3.945   9.304  11.857
89989SOL    HW271865   3.998   9.208  11.962
89990SOL     OW71866  12.757   0.500   7.853
89990SOL    HW171867  12.781   0.592   7.863
89990SOL    HW271868  12.737   0.491   7.760
89991SOL     OW71869   2.447   6.068  14.207
89991SOL    HW171870   2.530   6.027  14.184
89991SOL    HW271871   2.400   6.078  14.124
89992SOL     OW71872   6.510   2.539  11.248
89992SOL    HW171873   6.425   2.566  11.281
89992SOL    HW271874   6.501   2.444  11.236
89993SOL     OW71875   5.289  12.907  10.769
89993SOL    HW171876   5.229  12.892  10.696
89993SOL    HW271877   5.281  13.000  10.788
89994SOL     OW71878   5.879   5.027  13.336
89994SOL    HW171879   5.941   4.974  13.286
89994SOL    HW271880   5.793   5.000  13.304
89995SOL     OW71881   7.565  14.467  11.799
89995SOL    HW171882   7.621  14.420  11.737
89995SOL    HW271883   7.478  14.430  11.785
89996SOL     OW71884   0.922   6.069   1.646
89996SOL    HW171885   0.940   5.975   1.647
89996SOL    HW271886   0.874   6.084   1.728
89997SOL     OW71887  12.708   6.920   6.286
89997SOL    HW171888  12.776   6.980   6.257
89997SOL    HW271889  12.647   6.916   6.211
89998SOL     OW71890   3.694  14.513   7.951
89998SOL    HW171891   3.761  14.519   8.019
89998SOL    HW271892   3.611  14.505   7.999
89999SOL     OW71893   2.252   0.660   1.212
89999SOL    HW171894   2.182   0.628   1.269
89999SOL    HW271895   2.291   0.580   1.177
90000SOL     OW71896   4.768   0.462  11.970
90000SOL    HW171897   4.791   0.555  11.969
90000SOL    HW271898   4.826   0.424  12.036
90001SOL     OW71899   8.527   2.877   4.178
90001SOL    HW171900   8.452   2.937   4.179
90001SOL    HW271901   8.524   2.838   4.090
90002SOL     OW71902   2.310  10.660   6.595
90002SOL    HW171903   2.262  10.618   6.667
90002SOL    HW271904   2.242  10.683   6.532
90003SOL     OW71905   5.229  10.559  11.141
90003SOL    HW171906   5.166  10.579  11.210
90003SOL    HW271907   5.176  10.527  11.068
90004SOL     OW71908  11.722   5.702  10.173
90004SOL    HW171909  11.639   5.672  10.138
90004SOL    HW271910  11.754   5.630  10.226
90005SOL     OW71911   5.439   5.305  12.304
90005SOL    HW171912   5.473   5.323  12.391
90005SOL    HW271913   5.444   5.389  12.258
90006SOL     OW71914   5.496   5.515   6.464
90006SOL    HW171915   5.411   5.532   6.505
90006SOL    HW271916   5.474   5.482   6.376
90007SOL     OW71917   5.580   7.920  14.080
90007SOL    HW171918   5.668   7.896  14.050
90007SOL    HW271919   5.574   8.014  14.065
90008SOL     OW71920   8.781   0.208   8.848
90008SOL    HW171921   8.729   0.261   8.909
90008SOL    HW271922   8.777   0.256   8.766
90009SOL     OW71923   1.280   2.201  10.352
90009SOL    HW171924   1.302   2.281  10.304
90009SOL    HW271925   1.307   2.130  10.293
90010SOL     OW71926   9.252  11.740   6.074
90010SOL    HW171927   9.340  11.779   6.079
90010SOL    HW271928   9.218  11.746   6.164
90011SOL     OW71929   9.842   7.705   8.926
90011SOL    HW171930   9.816   7.726   8.837
90011SOL    HW271931   9.824   7.611   8.934
90012SOL     OW71932   3.587  11.770  13.343
90012SOL    HW171933   3.645  11.794  13.415
90012SOL    HW271934   3.625  11.690  13.306
90013SOL     OW71935  14.516   4.092   9.038
90013SOL    HW171936  14.538   4.184   9.052
90013SOL    HW271937  14.600   4.047   9.038
90014SOL     OW71938   3.645   0.631   7.307
90014SOL    HW171939   3.604   0.556   7.351
90014SOL    HW271940   3.636   0.703   7.370
90015SOL     OW71941   1.188  10.094   7.640
90015SOL    HW171942   1.133  10.066   7.567
90015SOL    HW271943   1.242  10.017   7.659
90016SOL     OW71944  13.633  11.943   0.354
90016SOL    HW171945  13.716  11.964   0.311
90016SOL    HW271946  13.651  11.952   0.447
90017SOL     OW71947  11.024  11.859  11.405
90017SOL    HW171948  11.043  11.765  11.408
90017SOL    HW271949  11.059  11.893  11.487
90018SOL     OW71950  12.567   9.503   1.138
90018SOL    HW171951  12.507   9.468   1.072
90018SOL    HW271952  12.570   9.436   1.206
90019SOL     OW71953   6.749  12.714   3.464
90019SOL    HW171954   6.790  12.801   3.465
90019SOL    HW271955   6.819  12.654   3.488
90020SOL     OW71956   9.978  11.264  12.881
90020SOL    HW171957   9.939  11.183  12.914
90020SOL    HW271958   9.907  11.328  12.883
90021SOL     OW71959  10.048   8.661  11.225
90021SOL    HW171960  10.020   8.630  11.139
90021SOL    HW271961  10.087   8.585  11.267
90022SOL     OW71962   0.585  11.518   2.082
90022SOL    HW171963   0.644  11.567   2.024
90022SOL    HW271964   0.500  11.522   2.039
90023SOL     OW71965   1.337  11.581   0.470
90023SOL    HW171966   1.328  11.596   0.564
90023SOL    HW271967   1.427  11.550   0.460
90024SOL     OW71968   9.086   0.970   4.564
90024SOL    HW171969   9.094   1.064   4.583
90024SOL    HW271970   9.176   0.940   4.553
90025SOL     OW71971   8.349   0.119   8.169
90025SOL    HW171972   8.320   0.189   8.228
90025SOL    HW271973   8.295   0.044   8.192
90026SOL     OW71974   9.151  14.622   3.616
90026SOL    HW171975   9.186  14.540   3.581
90026SOL    HW271976   9.078  14.595   3.671
90027SOL     OW71977   8.875   9.936   7.597
90027SOL    HW171978   8.873   9.976   7.683
90027SOL    HW271979   8.856  10.007   7.536
90028SOL     OW71980   3.204   5.965   7.239
90028SOL    HW171981   3.179   5.901   7.172
90028SOL    HW271982   3.196   6.050   7.195
90029SOL     OW71983  12.743   5.243   0.872
90029SOL    HW171984  12.695   5.160   0.867
90029SOL    HW271985  12.716   5.290   0.794
90030SOL     OW71986   7.223   7.214   5.597
90030SOL    HW171987   7.219   7.166   5.680
90030SOL    HW271988   7.154   7.280   5.604
90031SOL     OW71989   3.515   3.431  14.401
90031SOL    HW171990   3.561   3.451  14.483
90031SOL    HW271991   3.586   3.411  14.339
90032SOL     OW71992  14.155   9.628  13.726
90032SOL    HW171993  14.155   9.548  13.675
90032SOL    HW271994  14.240   9.628  13.770
90033SOL     OW71995   0.943  14.525   2.964
90033SOL    HW171996   0.911  14.595   2.908
90033SOL    HW271997   0.884  14.451   2.948
90034SOL     OW71998  12.461   6.446   0.528
90034SOL    HW171999  12.409   6.467   0.451
90034SOL    HW272000  12.532   6.510   0.527
90035SOL     OW72001  12.884  10.061   1.081
90035SOL    HW172002  12.859  10.055   1.173
90035SOL    HW272003  12.857   9.978   1.043
90036SOL     OW72004   3.409   1.979   6.034
90036SOL    HW172005   3.428   1.894   6.074
90036SOL    HW272006   3.378   2.033   6.107
90037SOL     OW72007  13.938   8.123  10.347
90037SOL    HW172008  13.870   8.152  10.408
90037SOL    HW272009  13.899   8.048  10.301
90038SOL     OW72010  13.961   9.364   0.612
90038SOL    HW172011  13.995   9.275   0.602
90038SOL    HW272012  13.866   9.355   0.601
90039SOL     OW72013  10.825  13.140   5.402
90039SOL    HW172014  10.774  13.094   5.469
90039SOL    HW272015  10.909  13.094   5.400
90040SOL     OW72016   0.027  11.911  11.058
90040SOL    HW172017   0.014  11.890  10.966
90040SOL    HW272018   0.033  12.007  11.060
90041SOL     OW72019  12.062  12.949   3.743
90041SOL    HW172020  12.081  12.877   3.683
90041SOL    HW272021  11.991  12.918   3.798
90042SOL     OW72022   7.591  11.580  14.180
90042SOL    HW172023   7.563  11.561  14.269
90042SOL    HW272024   7.678  11.618  14.189
90043SOL     OW72025  12.246   6.550   8.495
90043SOL    HW172026  12.284   6.588   8.415
90043SOL    HW272027  12.296   6.469   8.508
90044SOL     OW72028   7.576  12.898   1.522
90044SOL    HW172029   7.499  12.846   1.497
90044SOL    HW272030   7.644  12.871   1.460
90045SOL     OW72031   0.228  14.664  13.950
90045SOL    HW172032   0.177  14.593  13.910
90045SOL    HW272033   0.192  14.673  14.038
90046SOL     OW72034   9.963   5.428   5.126
90046SOL    HW172035   9.994   5.483   5.198
90046SOL    HW272036  10.003   5.466   5.048
90047SOL     OW72037   3.904   2.591   2.460
90047SOL    HW172038   3.923   2.654   2.391
90047SOL    HW272039   3.831   2.629   2.508
90048SOL     OW72040   9.208   9.422   8.798
90048SOL    HW172041   9.227   9.329   8.784
90048SOL    HW272042   9.291   9.459   8.829
90049SOL     OW72043  10.767   5.990  14.170
90049SOL    HW172044  10.808   5.914  14.128
90049SOL    HW272045  10.725   6.038  14.098
90050SOL     OW72046   8.683  13.683   7.846
90050SOL    HW172047   8.594  13.717   7.833
90050SOL    HW272048   8.731  13.711   7.768
90051SOL     OW72049   5.127  13.292   4.786
90051SOL    HW172050   5.037  13.291   4.752
90051SOL    HW272051   5.164  13.209   4.758
90052SOL     OW72052   3.872   6.572   5.294
90052SOL    HW172053   3.894   6.546   5.384
90052SOL    HW272054   3.927   6.648   5.276
90053SOL     OW72055  13.088   1.351   8.652
90053SOL    HW172056  13.060   1.265   8.682
90053SOL    HW272057  13.065   1.354   8.560
90054SOL     OW72058  12.827   8.831   1.755
90054SOL    HW172059  12.903   8.889   1.752
90054SOL    HW272060  12.862   8.747   1.787
90055SOL     OW72061   4.241   5.813   8.322
90055SOL    HW172062   4.277   5.896   8.352
90055SOL    HW272063   4.280   5.798   8.236
90056SOL     OW72064   7.933   9.473   3.484
90056SOL    HW172065   7.888   9.461   3.400
90056SOL    HW272066   8.023   9.446   3.466
90057SOL     OW72067   5.505  11.869   8.805
90057SOL    HW172068   5.512  11.799   8.870
90057SOL    HW272069   5.522  11.949   8.854
90058SOL     OW72070  10.275   5.771   7.922
90058SOL    HW172071  10.303   5.799   7.835
90058SOL    HW272072  10.337   5.813   7.982
90059SOL     OW72073  13.891   0.085   3.919
90059SOL    HW172074  13.924   0.058   3.833
90059SOL    HW272075  13.950   0.043   3.981
90060SOL     OW72076   5.507  10.334  14.429
90060SOL    HW172077   5.537  10.251  14.393
90060SOL    HW272078   5.412  10.333  14.416
90061SOL     OW72079   7.109   9.940  11.743
90061SOL    HW172080   7.036   9.890  11.779
90061SOL    HW272081   7.140   9.886  11.670
90062SOL     OW72082   2.248  14.039   9.622
90062SOL    HW172083   2.227  14.087   9.702
90062SOL    HW272084   2.318  13.979   9.648
90063SOL     OW72085   4.339   4.803   0.935
90063SOL    HW172086   4.272   4.832   0.873
90063SOL    HW272087   4.350   4.710   0.917
90064SOL     OW72088  11.577   2.077   9.260
90064SOL    HW172089  11.589   2.130   9.338
90064SOL    HW272090  11.498   2.110   9.219
90065SOL     OW72091   2.184   4.977   0.279
90065SOL    HW172092   2.126   5.052   0.291
90065SOL    HW272093   2.148   4.910   0.337
90066SOL     OW72094   1.114   6.119  13.369
90066SOL    HW172095   1.163   6.116  13.286
90066SOL    HW272096   1.101   6.213  13.385
90067SOL     OW72097   7.304   1.383   2.215
90067SOL    HW172098   7.354   1.302   2.220
90067SOL    HW272099   7.347   1.442   2.276
90068SOL     OW72100   3.007  10.209   0.084
90068SOL    HW172101   2.965  10.190   0.167
90068SOL    HW272102   2.955  10.280   0.046
90069SOL     OW72103   8.361  14.527   1.182
90069SOL    HW172104   8.348  14.511   1.276
90069SOL    HW272105   8.274  14.551   1.150
90070SOL     OW72106  11.579   9.374   4.331
90070SOL    HW172107  11.484   9.370   4.326
90070SOL    HW272108  11.601   9.463   4.304
90071SOL     OW72109   2.837  10.733   7.643
90071SOL    HW172110   2.901  10.800   7.667
90071SOL    HW272111   2.890  10.655   7.626
90072SOL     OW72112   9.146   1.179   3.354
90072SOL    HW172113   9.240   1.166   3.342
90072SOL    HW272114   9.129   1.146   3.442
90073SOL     OW72115   6.437   7.465   4.467
90073SOL    HW172116   6.485   7.463   4.549
90073SOL    HW272117   6.465   7.546   4.424
90074SOL     OW72118   4.954   1.981   0.974
90074SOL    HW172119   4.939   2.029   1.055
90074SOL    HW272120   4.955   1.889   1.000
90075SOL     OW72121   0.019  13.457   4.460
90075SOL    HW172122  14.842  13.496   4.400
90075SOL    HW272123  14.856  13.395   4.512
90076SOL     OW72124  11.620  12.667   3.950
90076SOL    HW172125  11.671  12.603   3.999
90076SOL    HW272126  11.591  12.730   4.017
90077SOL     OW72127   7.192   8.631  10.807
90077SOL    HW172128   7.140   8.710  10.821
90077SOL    HW272129   7.146   8.564  10.858
90078SOL     OW72130   8.998   8.426  12.948
90078SOL    HW172131   8.981   8.504  12.895
90078SOL    HW272132   8.967   8.448  13.036
90079SOL     OW72133   0.098   2.638  10.980
90079SOL    HW172134   0.104   2.693  11.058
90079SOL    HW272135   0.039   2.567  11.004
90080SOL     OW72136   3.370  13.428   0.019
90080SOL    HW172137   3.455  13.442   0.061
90080SOL    HW272138   3.370  13.487  14.832
90081SOL     OW72139   2.425  13.728   9.901
90081SOL    HW172140   2.381  13.645   9.919
90081SOL    HW272141   2.401  13.784   9.975
90082SOL     OW72142   2.551   9.232   5.231
90082SOL    HW172143   2.558   9.193   5.318
90082SOL    HW272144   2.487   9.177   5.185
90083SOL     OW72145   7.871  10.740  12.765
90083SOL    HW172146   7.779  10.718  12.778
90083SOL    HW272147   7.919  10.672  12.814
90084SOL     OW72148  10.670   2.644   3.606
90084SOL    HW172149  10.739   2.582   3.583
90084SOL    HW272150  10.650   2.626   3.698
90085SOL     OW72151   2.202   7.261   1.275
90085SOL    HW172152   2.210   7.329   1.341
90085SOL    HW272153   2.109   7.261   1.251
90086SOL     OW72154   6.140   3.273   8.156
90086SOL    HW172155   6.054   3.257   8.117
90086SOL    HW272156   6.179   3.186   8.162
90087SOL     OW72157   1.932   5.032   7.349
90087SOL    HW172158   1.981   4.950   7.364
90087SOL    HW272159   1.885   5.017   7.267
90088SOL     OW72160   0.381   3.681   3.771
90088SOL    HW172161   0.443   3.723   3.712
90088SOL    HW272162   0.430   3.611   3.813
90089SOL     OW72163  10.249  11.562   4.263
90089SOL    HW172164  10.281  11.532   4.178
90089SOL    HW272165  10.305  11.518   4.327
90090SOL     OW72166   1.452  13.832   7.131
90090SOL    HW172167   1.510  13.796   7.064
90090SOL    HW272168   1.385  13.878   7.081
90091SOL     OW72169   6.227   9.137  13.370
90091SOL    HW172170   6.266   9.165  13.287
90091SOL    HW272171   6.289   9.166  13.436
90092SOL     OW72172   7.060   6.755   5.353
90092SOL    HW172173   7.078   6.785   5.442
90092SOL    HW272174   7.092   6.826   5.297
90093SOL     OW72175   7.135  13.600   7.601
90093SOL    HW172176   7.080  13.636   7.670
90093SOL    HW272177   7.079  13.600   7.523
90094SOL     OW72178   8.240  10.194   3.828
90094SOL    HW172179   8.330  10.222   3.842
90094SOL    HW272180   8.247  10.107   3.791
90095SOL     OW72181  12.230   3.185   7.744
90095SOL    HW172182  12.143   3.191   7.706
90095SOL    HW272183  12.237   3.262   7.801
90096SOL     OW72184   8.558   1.667  11.087
90096SOL    HW172185   8.539   1.742  11.143
90096SOL    HW272186   8.619   1.614  11.138
90097SOL     OW72187  14.768   6.955  12.572
90097SOL    HW172188  14.772   7.050  12.574
90097SOL    HW272189  14.782   6.928  12.663
90098SOL     OW72190   0.513  11.601   7.156
90098SOL    HW172191   0.515  11.684   7.108
90098SOL    HW272192   0.574  11.545   7.108
90099SOL     OW72193   2.237   9.851   6.233
90099SOL    HW172194   2.180   9.827   6.160
90099SOL    HW272195   2.264   9.768   6.272
90100SOL     OW72196   5.706   3.171  12.659
90100SOL    HW172197   5.707   3.235  12.731
90100SOL    HW272198   5.621   3.127  12.668
90101SOL     OW72199   4.869  13.188   1.808
90101SOL    HW172200   4.944  13.141   1.770
90101SOL    HW272201   4.792  13.147   1.769
90102SOL     OW72202  10.129   0.632   6.704
90102SOL    HW172203  10.181   0.668   6.632
90102SOL    HW272204  10.052   0.593   6.662
90103SOL     OW72205   8.881   5.277   5.894
90103SOL    HW172206   8.813   5.342   5.879
90103SOL    HW272207   8.894   5.236   5.808
90104SOL     OW72208   4.813   1.671   8.417
90104SOL    HW172209   4.771   1.740   8.469
90104SOL    HW272210   4.824   1.598   8.478
90105SOL     OW72211  13.483   1.808  14.688
90105SOL    HW172212  13.411   1.746  14.696
90105SOL    HW272213  13.525   1.808  14.775
90106SOL     OW72214   0.139   3.749   2.577
90106SOL    HW172215   0.123   3.659   2.549
90106SOL    HW272216   0.173   3.792   2.498
90107SOL     OW72217   2.097  13.731   4.569
90107SOL    HW172218   2.101  13.641   4.600
90107SOL    HW272219   2.119  13.726   4.477
90108SOL     OW72220  11.145   8.067   1.577
90108SOL    HW172221  11.118   8.067   1.669
90108SOL    HW272222  11.236   8.036   1.578
90109SOL     OW72223   5.032   6.883   3.177
90109SOL    HW172224   4.939   6.865   3.167
90109SOL    HW272225   5.035   6.973   3.211
90110SOL     OW72226   3.220   1.826   4.408
90110SOL    HW172227   3.235   1.846   4.316
90110SOL    HW272228   3.267   1.744   4.423
90111SOL     OW72229   7.680   1.172   9.500
90111SOL    HW172230   7.696   1.112   9.574
90111SOL    HW272231   7.679   1.259   9.539
90112SOL     OW72232   1.146   2.014   1.473
90112SOL    HW172233   1.156   2.048   1.562
90112SOL    HW272234   1.187   1.928   1.475
90113SOL     OW72235   3.384   6.266   7.837
90113SOL    HW172236   3.293   6.244   7.816
90113SOL    HW272237   3.404   6.212   7.914
90114SOL     OW72238  10.188   2.303  11.482
90114SOL    HW172239  10.198   2.370  11.415
90114SOL    HW272240  10.098   2.312  11.512
90115SOL     OW72241   6.416  13.740  11.884
90115SOL    HW172242   6.505  13.774  11.886
90115SOL    HW272243   6.417  13.666  11.945
90116SOL     OW72244   5.102   1.272   7.093
90116SOL    HW172245   5.144   1.338   7.148
90116SOL    HW272246   5.174   1.228   7.049
90117SOL     OW72247  11.775   1.853  13.900
90117SOL    HW172248  11.818   1.773  13.929
90117SOL    HW272249  11.683   1.829  13.891
90118SOL     OW72250   5.784   7.460   8.392
90118SOL    HW172251   5.726   7.518   8.441
90118SOL    HW272252   5.811   7.511   8.316
90119SOL     OW72253   1.009  10.194   4.013
90119SOL    HW172254   1.097  10.175   4.047
90119SOL    HW272255   1.017  10.280   3.971
90120SOL     OW72256   4.041  10.571   1.055
90120SOL    HW172257   3.991  10.502   1.009
90120SOL    HW272258   4.131  10.557   1.028
90121SOL     OW72259   4.451  12.316  12.178
90121SOL    HW172260   4.402  12.283  12.253
90121SOL    HW272261   4.540  12.284  12.190
90122SOL     OW72262   4.368   4.027   7.247
90122SOL    HW172263   4.317   4.097   7.286
90122SOL    HW272264   4.429   4.072   7.188
90123SOL     OW72265  12.254   6.817  10.729
90123SOL    HW172266  12.273   6.734  10.686
90123SOL    HW272267  12.257   6.883  10.659
90124SOL     OW72268  13.442  13.790  13.456
90124SOL    HW172269  13.514  13.728  13.447
90124SOL    HW272270  13.484  13.876  13.455
90125SOL     OW72271   8.936  14.106  11.298
90125SOL    HW172272   8.942  14.175  11.233
90125SOL    HW272273   9.019  14.111  11.346
90126SOL     OW72274   5.824   2.119   2.093
90126SOL    HW172275   5.814   2.110   2.187
90126SOL    HW272276   5.919   2.114   2.078
90127SOL     OW72277   3.876  13.255   1.486
90127SOL    HW172278   3.947  13.191   1.496
90127SOL    HW272279   3.906  13.332   1.534
90128SOL     OW72280   9.820   1.529   4.174
90128SOL    HW172281   9.740   1.526   4.122
90128SOL    HW272282   9.816   1.612   4.221
90129SOL     OW72283   6.055   9.014  14.127
90129SOL    HW172284   6.080   9.103  14.152
90129SOL    HW272285   6.002   9.025  14.048
90130SOL     OW72286   8.018   1.402   4.949
90130SOL    HW172287   8.064   1.337   5.002
90130SOL    HW272288   7.927   1.372   4.948
90131SOL     OW72289   8.946   8.618   4.621
90131SOL    HW172290   8.921   8.611   4.713
90131SOL    HW272291   9.027   8.670   4.622
90132SOL     OW72292   5.857  12.120   8.400
90132SOL    HW172293   5.784  12.179   8.418
90132SOL    HW272294   5.934  12.176   8.403
90133SOL     OW72295   1.159   9.259   8.206
90133SOL    HW172296   1.135   9.287   8.294
90133SOL    HW272297   1.224   9.323   8.177
90134SOL     OW72298  12.944  13.925   4.394
90134SOL    HW172299  12.999  13.871   4.450
90134SOL    HW272300  12.895  13.862   4.341
90135SOL     OW72301   5.091  13.377   1.527
90135SOL    HW172302   5.123  13.307   1.469
90135SOL    HW272303   4.996  13.370   1.522
90136SOL     OW72304   3.682   5.414   8.979
90136SOL    HW172305   3.664   5.435   9.071
90136SOL    HW272306   3.767   5.372   8.979
90137SOL     OW72307  12.243   4.446   2.114
90137SOL    HW172308  12.264   4.501   2.039
90137SOL    HW272309  12.327   4.432   2.157
90138SOL     OW72310  13.417  10.427   3.510
90138SOL    HW172311  13.396  10.342   3.549
90138SOL    HW272312  13.502  10.413   3.467
90139SOL     OW72313   9.276   7.526   2.581
90139SOL    HW172314   9.371   7.532   2.580
90139SOL    HW272315   9.257   7.433   2.594
90140SOL     OW72316  11.010   4.894   5.498
90140SOL    HW172317  10.914   4.892   5.492
90140SOL    HW272318  11.038   4.806   5.471
90141SOL     OW72319   1.415   1.278   9.118
90141SOL    HW172320   1.354   1.351   9.128
90141SOL    HW272321   1.366   1.201   9.145
90142SOL     OW72322  12.973   7.121  14.548
90142SOL    HW172323  13.012   7.089  14.629
90142SOL    HW272324  12.880   7.099  14.556
90143SOL     OW72325   1.032   7.021  14.496
90143SOL    HW172326   1.096   7.082  14.459
90143SOL    HW272327   1.085   6.946  14.526
90144SOL     OW72328   6.091   9.847   4.406
90144SOL    HW172329   6.005   9.888   4.409
90144SOL    HW272330   6.129   9.864   4.492
90145SOL     OW72331  14.434   3.875  14.501
90145SOL    HW172332  14.411   3.816  14.572
90145SOL    HW272333  14.352   3.920  14.479
90146SOL     OW72334  12.552   3.837  12.496
90146SOL    HW172335  12.493   3.766  12.522
90146SOL    HW272336  12.508   3.879  12.422
90147SOL     OW72337   4.232   4.095   8.114
90147SOL    HW172338   4.195   4.107   8.027
90147SOL    HW272339   4.157   4.105   8.173
90148SOL     OW72340   4.887  13.283   4.687
90148SOL    HW172341   4.885  13.197   4.644
90148SOL    HW272342   4.796  13.312   4.687
90149SOL     OW72343  10.057   9.313   7.409
90149SOL    HW172344  10.085   9.251   7.341
90149SOL    HW272345  10.072   9.266   7.491
90150SOL     OW72346   6.617   8.556   4.670
90150SOL    HW172347   6.688   8.507   4.711
90150SOL    HW272348   6.649   8.578   4.583
90151SOL     OW72349   8.378   5.150  13.389
90151SOL    HW172350   8.437   5.083  13.354
90151SOL    HW272351   8.300   5.101  13.415
90152SOL     OW72352  13.906   6.839   5.784
90152SOL    HW172353  13.903   6.748   5.754
90152SOL    HW272354  13.861   6.837   5.869
90153SOL     OW72355   7.967  13.045   7.416
90153SOL    HW172356   7.949  13.136   7.438
90153SOL    HW272357   7.892  13.017   7.364
90154SOL     OW72358  13.053   9.490   0.142
90154SOL    HW172359  13.010   9.410   0.173
90154SOL    HW272360  13.031   9.495   0.049
90155SOL     OW72361  14.222  14.762   5.310
90155SOL    HW172362  14.143  14.777   5.258
90155SOL    HW272363  14.284  14.827   5.278
90156SOL     OW72364   9.472  12.434   6.894
90156SOL    HW172365   9.392  12.465   6.853
90156SOL    HW272366   9.533  12.508   6.886
90157SOL     OW72367   9.553  13.500   4.320
90157SOL    HW172368   9.610  13.556   4.373
90157SOL    HW272369   9.505  13.561   4.264
90158SOL     OW72370   2.148  11.405   5.715
90158SOL    HW172371   2.123  11.327   5.666
90158SOL    HW272372   2.091  11.474   5.681
90159SOL     OW72373  13.904   0.562  11.660
90159SOL    HW172374  13.849   0.575  11.583
90159SOL    HW272375  13.994   0.560  11.626
90160SOL     OW72376  13.675   0.930  14.228
90160SOL    HW172377  13.674   0.923  14.133
90160SOL    HW272378  13.659   0.841  14.259
90161SOL     OW72379   6.241   8.838  12.042
90161SOL    HW172380   6.263   8.782  11.967
90161SOL    HW272381   6.242   8.779  12.117
90162SOL     OW72382   1.446   9.928  12.879
90162SOL    HW172383   1.489   9.853  12.839
90162SOL    HW272384   1.356   9.899  12.893
90163SOL     OW72385  13.209  10.312   3.167
90163SOL    HW172386  13.222  10.321   3.072
90163SOL    HW272387  13.292  10.276   3.199
90164SOL     OW72388   7.815  12.008   3.600
90164SOL    HW172389   7.906  12.030   3.622
90164SOL    HW272390   7.763  12.051   3.668
90165SOL     OW72391   4.698  12.156   1.990
90165SOL    HW172392   4.770  12.193   1.939
90165SOL    HW272393   4.629  12.221   1.985
90166SOL     OW72394   3.204  11.580  11.982
90166SOL    HW172395   3.217  11.614  12.071
90166SOL    HW272396   3.285  11.603  11.936
90167SOL     OW72397   1.057  12.825   0.259
90167SOL    HW172398   0.999  12.901   0.249
90167SOL    HW272399   1.108  12.844   0.337
90168SOL     OW72400   6.381   3.243   9.074
90168SOL    HW172401   6.347   3.325   9.109
90168SOL    HW272402   6.368   3.179   9.144
90169SOL     OW72403   5.502  11.028  10.753
90169SOL    HW172404   5.550  10.946  10.751
90169SOL    HW272405   5.563  11.092  10.790
90170SOL     OW72406  11.341   0.298  11.601
90170SOL    HW172407  11.390   0.345  11.668
90170SOL    HW272408  11.363   0.206  11.615
90171SOL     OW72409   5.298   8.436   7.149
90171SOL    HW172410   5.249   8.374   7.095
90171SOL    HW272411   5.246   8.516   7.148
90172SOL     OW72412   3.217  11.660  12.238
90172SOL    HW172413   3.243  11.587  12.294
90172SOL    HW272414   3.201  11.733  12.299
90173SOL     OW72415   8.590  14.616   7.565
90173SOL    HW172416   8.527  14.545   7.577
90173SOL    HW272417   8.536  14.695   7.558
90174SOL     OW72418   4.916   5.653   6.867
90174SOL    HW172419   4.832   5.695   6.882
90174SOL    HW272420   4.981   5.716   6.897
90175SOL     OW72421   2.182   5.451   8.644
90175SOL    HW172422   2.129   5.395   8.702
90175SOL    HW272423   2.239   5.500   8.704
90176SOL     OW72424  11.481   0.321   3.774
90176SOL    HW172425  11.471   0.226   3.771
90176SOL    HW272426  11.454   0.351   3.688
90177SOL     OW72427  11.855   2.425   6.671
90177SOL    HW172428  11.805   2.345   6.686
90177SOL    HW272429  11.841   2.444   6.578
90178SOL     OW72430   0.482   9.612   8.958
90178SOL    HW172431   0.449   9.538   9.009
90178SOL    HW272432   0.446   9.598   8.870
90179SOL     OW72433  10.898  12.533   6.343
90179SOL    HW172434  10.978  12.584   6.328
90179SOL    HW272435  10.915  12.448   6.303
90180SOL     OW72436   0.751  14.118   3.160
90180SOL    HW172437   0.775  14.163   3.242
90180SOL    HW272438   0.689  14.051   3.187
90181SOL     OW72439   5.634   2.100   0.825
90181SOL    HW172440   5.612   2.193   0.815
90181SOL    HW272441   5.725   2.101   0.857
90182SOL     OW72442   4.642  13.836   3.761
90182SOL    HW172443   4.683  13.751   3.748
90182SOL    HW272444   4.548  13.819   3.751
90183SOL     OW72445   3.059  14.011  10.095
90183SOL    HW172446   3.106  14.062  10.160
90183SOL    HW272447   2.974  13.994  10.135
90184SOL     OW72448   6.357  14.463   5.667
90184SOL    HW172449   6.332  14.388   5.613
90184SOL    HW272450   6.330  14.540   5.616
90185SOL     OW72451   8.607   8.646   5.492
90185SOL    HW172452   8.545   8.689   5.433
90185SOL    HW272453   8.675   8.612   5.434
90186SOL     OW72454   8.528  12.618   9.240
90186SOL    HW172455   8.444  12.572   9.246
90186SOL    HW272456   8.506  12.703   9.202
90187SOL     OW72457   2.049   7.267   8.397
90187SOL    HW172458   1.975   7.326   8.413
90187SOL    HW272459   2.009   7.183   8.376
90188SOL     OW72460   6.901  13.299   9.668
90188SOL    HW172461   6.832  13.345   9.717
90188SOL    HW272462   6.872  13.208   9.666
90189SOL     OW72463  11.737   1.771   5.822
90189SOL    HW172464  11.733   1.690   5.874
90189SOL    HW272465  11.660   1.821   5.850
90190SOL     OW72466   2.938   4.529   2.923
90190SOL    HW172467   2.929   4.434   2.917
90190SOL    HW272468   2.865   4.556   2.979
90191SOL     OW72469  11.070   2.761  14.145
90191SOL    HW172470  11.086   2.691  14.209
90191SOL    HW272471  11.150   2.767  14.094
90192SOL     OW72472  13.330   4.059   2.597
90192SOL    HW172473  13.376   4.068   2.514
90192SOL    HW272474  13.316   4.149   2.626
90193SOL     OW72475   1.983  11.308  11.974
90193SOL    HW172476   1.972  11.240  12.041
90193SOL    HW272477   1.971  11.261  11.891
90194SOL     OW72478   2.658   0.454   5.129
90194SOL    HW172479   2.563   0.468   5.127
90194SOL    HW272480   2.683   0.450   5.036
90195SOL     OW72481   7.907  11.206   3.531
90195SOL    HW172482   7.922  11.232   3.440
90195SOL    HW272483   7.985  11.156   3.555
90196SOL     OW72484   9.496   9.832   4.045
90196SOL    HW172485   9.490   9.922   4.013
90196SOL    HW272486   9.498   9.778   3.966
90197SOL     OW72487   5.151   2.932   2.127
90197SOL    HW172488   5.235   2.977   2.123
90197SOL    HW272489   5.134   2.920   2.220
90198SOL     OW72490   0.274   7.467   9.325
90198SOL    HW172491   0.350   7.509   9.285
90198SOL    HW272492   0.295   7.373   9.323
90199SOL     OW72493  10.960   6.516   8.959
90199SOL    HW172494  10.906   6.586   8.922
90199SOL    HW272495  10.990   6.466   8.883
90200SOL     OW72496   3.594   7.064   0.601
90200SOL    HW172497   3.609   7.157   0.585
90200SOL    HW272498   3.578   7.058   0.696
90201SOL     OW72499   1.539  11.968   3.652
90201SOL    HW172500   1.489  12.049   3.662
90201SOL    HW272501   1.603  11.970   3.723
90202SOL     OW72502  10.311   9.593   3.943
90202SOL    HW172503  10.222   9.570   3.969
90202SOL    HW272504  10.366   9.551   4.010
90203SOL     OW72505  12.916  13.634  10.419
90203SOL    HW172506  12.873  13.562  10.466
90203SOL    HW272507  12.993  13.594  10.381
90204SOL     OW72508   8.416   2.811  12.906
90204SOL    HW172509   8.505   2.819  12.939
90204SOL    HW272510   8.378   2.739  12.955
90205SOL     OW72511  13.790   6.725   7.118
90205SOL    HW172512  13.712   6.780   7.117
90205SOL    HW272513  13.842   6.756   7.192
90206SOL     OW72514   2.997   9.251   0.768
90206SOL    HW172515   2.914   9.290   0.741
90206SOL    HW272516   2.972   9.183   0.831
90207SOL     OW72517   1.324   2.374  12.600
90207SOL    HW172518   1.305   2.343  12.511
90207SOL    HW272519   1.384   2.447  12.587
90208SOL     OW72520   8.547   3.027   9.770
90208SOL    HW172521   8.482   3.097   9.763
90208SOL    HW272522   8.528   2.985   9.854
90209SOL     OW72523   4.116  12.411  12.112
90209SOL    HW172524   4.074  12.409  12.026
90209SOL    HW272525   4.095  12.497  12.147
90210SOL     OW72526   7.849   3.995   0.154
90210SOL    HW172527   7.861   4.029   0.066
90210SOL    HW272528   7.852   3.900   0.143
90211SOL     OW72529   5.090   2.589   3.805
90211SOL    HW172530   5.095   2.664   3.864
90211SOL    HW272531   5.018   2.536   3.838
90212SOL     OW72532   7.026   2.575   9.997
90212SOL    HW172533   7.040   2.511   9.926
90212SOL    HW272534   7.101   2.634   9.992
90213SOL     OW72535   6.731   5.732  12.881
90213SOL    HW172536   6.666   5.674  12.841
90213SOL    HW272537   6.767   5.783  12.808
90214SOL     OW72538   3.242  14.309   0.600
90214SOL    HW172539   3.155  14.336   0.631
90214SOL    HW272540   3.225  14.260   0.520
90215SOL     OW72541   2.020   0.031   7.868
90215SOL    HW172542   2.011   0.007   7.776
90215SOL    HW272543   2.060  14.841   7.909
90216SOL     OW72544   1.756   4.188  12.653
90216SOL    HW172545   1.827   4.251  12.640
90216SOL    HW272546   1.761   4.165  12.745
90217SOL     OW72547   1.342   5.963   2.296
90217SOL    HW172548   1.308   6.053   2.292
90217SOL    HW272549   1.437   5.973   2.289
90218SOL     OW72550   0.166   8.361   9.196
90218SOL    HW172551   0.088   8.320   9.235
90218SOL    HW272552   0.191   8.429   9.258
90219SOL     OW72553  12.037   2.529   5.115
90219SOL    HW172554  12.090   2.455   5.145
90219SOL    HW272555  11.952   2.517   5.157
90220SOL     OW72556  14.257   2.723   8.814
90220SOL    HW172557  14.174   2.766   8.795
90220SOL    HW272558  14.233   2.633   8.836
90221SOL     OW72559   2.357  11.010  10.893
90221SOL    HW172560   2.415  11.042  10.962
90221SOL    HW272561   2.372  11.069  10.819
90222SOL     OW72562   4.355   3.565   2.025
90222SOL    HW172563   4.403   3.487   1.998
90222SOL    HW272564   4.321   3.602   1.944
90223SOL     OW72565   9.554  10.011  11.880
90223SOL    HW172566   9.469   9.985  11.916
90223SOL    HW272567   9.548   9.987  11.787
90224SOL     OW72568  10.938   0.790   4.498
90224SOL    HW172569  10.903   0.713   4.544
90224SOL    HW272570  11.003   0.826   4.558
90225SOL     OW72571   3.169   8.998   2.853
90225SOL    HW172572   3.241   8.936   2.863
90225SOL    HW272573   3.209   9.075   2.813
90226SOL     OW72574   9.948  14.554   3.979
90226SOL    HW172575   9.966  14.513   4.063
90226SOL    HW272576   9.905  14.487   3.927
90227SOL     OW72577   2.162   7.250   5.820
90227SOL    HW172578   2.113   7.285   5.894
90227SOL    HW272579   2.254   7.265   5.843
90228SOL     OW72580   1.090   5.477   6.430
90228SOL    HW172581   1.100   5.497   6.524
90228SOL    HW272582   0.995   5.471   6.417
90229SOL     OW72583  12.997  13.238   2.583
90229SOL    HW172584  13.045  13.189   2.517
90229SOL    HW272585  13.058  13.305   2.613
90230SOL     OW72586   4.213   9.784   5.499
90230SOL    HW172587   4.176   9.871   5.518
90230SOL    HW272588   4.286   9.802   5.439
90231SOL     OW72589   4.597  10.108   5.193
90231SOL    HW172590   4.679  10.152   5.218
90231SOL    HW272591   4.547  10.104   5.275
90232SOL     OW72592   5.166   3.210   3.304
90232SOL    HW172593   5.111   3.200   3.226
90232SOL    HW272594   5.186   3.303   3.307
90233SOL     OW72595   7.617   7.554   7.489
90233SOL    HW172596   7.607   7.646   7.511
90233SOL    HW272597   7.659   7.515   7.566
90234SOL     OW72598  13.158   2.392  14.767
90234SOL    HW172599  13.165   2.323  14.701
90234SOL    HW272600  13.071   2.380  14.805
90235SOL     OW72601  13.441   7.843   1.912
90235SOL    HW172602  13.458   7.936   1.930
90235SOL    HW272603  13.346   7.838   1.904
90236SOL     OW72604  12.230   9.205   8.584
90236SOL    HW172605  12.288   9.164   8.648
90236SOL    HW272606  12.280   9.207   8.503
90237SOL     OW72607   6.685   5.244   0.111
90237SOL    HW172608   6.600   5.287   0.113
90237SOL    HW272609   6.723   5.262   0.196
90238SOL     OW72610   8.546   9.585  11.142
90238SOL    HW172611   8.591   9.514  11.096
90238SOL    HW272612   8.588   9.665  11.110
90239SOL     OW72613  10.807   9.804  10.735
90239SOL    HW172614  10.893   9.837  10.706
90239SOL    HW272615  10.784   9.861  10.808
90240SOL     OW72616   2.960   5.346  14.760
90240SOL    HW172617   2.982   5.353  14.853
90240SOL    HW272618   3.042   5.326  14.717
90241SOL     OW72619   7.558   6.434  10.211
90241SOL    HW172620   7.494   6.379  10.166
90241SOL    HW272621   7.632   6.439  10.151
90242SOL     OW72622   9.284   5.600  10.524
90242SOL    HW172623   9.247   5.687  10.516
90242SOL    HW272624   9.335   5.603  10.605
90243SOL     OW72625   6.012  14.608   8.612
90243SOL    HW172626   5.986  14.693   8.575
90243SOL    HW272627   6.090  14.628   8.664
90244SOL     OW72628   1.438  14.270  10.698
90244SOL    HW172629   1.394  14.239  10.778
90244SOL    HW272630   1.432  14.197  10.637
90245SOL     OW72631   9.664   3.605   0.510
90245SOL    HW172632   9.569   3.593   0.512
90245SOL    HW272633   9.680   3.652   0.429
90246SOL     OW72634   8.659  14.795  11.244
90246SOL    HW172635   8.567  14.812  11.227
90246SOL    HW272636   8.660  14.745  11.325
90247SOL     OW72637   4.456   9.645  10.565
90247SOL    HW172638   4.428   9.693  10.488
90247SOL    HW272639   4.442   9.705  10.638
90248SOL     OW72640  12.501  12.784   2.423
90248SOL    HW172641  12.443  12.774   2.347
90248SOL    HW272642  12.459  12.732   2.491
90249SOL     OW72643  10.916   3.489   1.487
90249SOL    HW172644  10.957   3.514   1.570
90249SOL    HW272645  10.875   3.569   1.455
90250SOL     OW72646   8.403   4.836   8.597
90250SOL    HW172647   8.410   4.892   8.520
90250SOL    HW272648   8.493   4.810   8.617
90251SOL     OW72649   6.400   9.855   7.009
90251SOL    HW172650   6.488   9.823   6.987
90251SOL    HW272651   6.413   9.909   7.087
90252SOL     OW72652   8.222   4.704   0.687
90252SOL    HW172653   8.145   4.664   0.645
90252SOL    HW272654   8.281   4.724   0.614
90253SOL     OW72655  10.082   3.810   4.329
90253SOL    HW172656  10.053   3.885   4.380
90253SOL    HW272657  10.071   3.735   4.387
90254SOL     OW72658   3.874  13.854   6.803
90254SOL    HW172659   3.800  13.872   6.745
90254SOL    HW272660   3.836  13.850   6.891
90255SOL     OW72661   1.774   9.929  11.864
90255SOL    HW172662   1.840   9.861  11.875
90255SOL    HW272663   1.745   9.920  11.774
90256SOL     OW72664   9.207  10.521   2.801
90256SOL    HW172665   9.188  10.593   2.742
90256SOL    HW272666   9.133  10.520   2.862
90257SOL     OW72667   9.695   1.273   3.955
90257SOL    HW172668   9.674   1.259   4.047
90257SOL    HW272669   9.625   1.228   3.908
90258SOL     OW72670   8.198  14.360   0.008
90258SOL    HW172671   8.247  14.291   0.053
90258SOL    HW272672   8.106  14.331   0.013
90259SOL     OW72673  11.437   1.995  13.846
90259SOL    HW172674  11.447   1.911  13.801
90259SOL    HW272675  11.342   2.006  13.853
90260SOL     OW72676   6.791   9.390   3.783
90260SOL    HW172677   6.807   9.386   3.877
90260SOL    HW272678   6.696   9.381   3.775
90261SOL     OW72679   9.083   2.567  10.592
90261SOL    HW172680   9.022   2.508  10.637
90261SOL    HW272681   9.125   2.616  10.663
90262SOL     OW72682   5.999   0.808   5.252
90262SOL    HW172683   6.071   0.788   5.313
90262SOL    HW272684   6.038   0.865   5.186
90263SOL     OW72685   2.585   7.905   1.979
90263SOL    HW172686   2.677   7.920   1.958
90263SOL    HW272687   2.565   7.820   1.938
90264SOL     OW72688   7.639   7.265   3.777
90264SOL    HW172689   7.686   7.250   3.859
90264SOL    HW272690   7.657   7.186   3.725
90265SOL     OW72691   0.503  11.660   8.893
90265SOL    HW172692   0.597  11.654   8.875
90265SOL    HW272693   0.469  11.711   8.820
90266SOL     OW72694   2.149   9.882   6.603
90266SOL    HW172695   2.211   9.811   6.585
90266SOL    HW272696   2.113   9.861   6.689
90267SOL     OW72697  14.820  13.618  12.924
90267SOL    HW172698  14.843  13.651  12.837
90267SOL    HW272699  14.751  13.677  12.954
90268SOL     OW72700   2.221  12.614   4.352
90268SOL    HW172701   2.257  12.637   4.266
90268SOL    HW272702   2.285  12.648   4.414
90269SOL     OW72703   0.490  10.883  10.343
90269SOL    HW172704   0.447  10.867  10.259
90269SOL    HW272705   0.538  10.803  10.363
90270SOL     OW72706   8.298   7.554  10.751
90270SOL    HW172707   8.230   7.601  10.799
90270SOL    HW272708   8.366   7.537  10.816
90271SOL     OW72709   2.612   2.668  14.403
90271SOL    HW172710   2.561   2.588  14.393
90271SOL    HW272711   2.654   2.659  14.488
90272SOL     OW72712   2.368   3.401   8.968
90272SOL    HW172713   2.453   3.437   8.995
90272SOL    HW272714   2.352   3.439   8.882
90273SOL     OW72715   4.789  13.987  12.649
90273SOL    HW172716   4.714  14.009  12.704
90273SOL    HW272717   4.818  13.902  12.681
90274SOL     OW72718   8.854   7.947   4.693
90274SOL    HW172719   8.820   8.036   4.703
90274SOL    HW272720   8.827   7.920   4.605
90275SOL     OW72721  10.572   8.099  13.615
90275SOL    HW172722  10.642   8.159  13.591
90275SOL    HW272723  10.537   8.136  13.697
90276SOL     OW72724   6.657   9.685   0.961
90276SOL    HW172725   6.703   9.617   1.010
90276SOL    HW272726   6.564   9.665   0.974
90277SOL     OW72727  10.351  11.596   9.281
90277SOL    HW172728  10.282  11.578   9.218
90277SOL    HW272729  10.420  11.638   9.230
90278SOL     OW72730   4.348   3.969   9.978
90278SOL    HW172731   4.279   3.986  10.042
90278SOL    HW272732   4.406   4.045   9.984
90279SOL     OW72733   3.494   7.400  10.167
90279SOL    HW172734   3.421   7.344  10.144
90279SOL    HW272735   3.554   7.344  10.217
90280SOL     OW72736   1.227  10.444   9.609
90280SOL    HW172737   1.255  10.385   9.679
90280SOL    HW272738   1.170  10.508   9.652
90281SOL     OW72739   1.923  14.698  13.012
90281SOL    HW172740   1.851  14.731  13.066
90281SOL    HW272741   2.002  14.733  13.052
90282SOL     OW72742  14.684  12.633  11.560
90282SOL    HW172743  14.640  12.565  11.511
90282SOL    HW272744  14.684  12.601  11.651
90283SOL     OW72745   5.176   1.603   8.882
90283SOL    HW172746   5.242   1.538   8.904
90283SOL    HW272747   5.107   1.554   8.837
90284SOL     OW72748   1.911   8.884   6.017
90284SOL    HW172749   1.950   8.845   6.095
90284SOL    HW272750   1.984   8.901   5.958
90285SOL     OW72751   7.079  11.254   0.409
90285SOL    HW172752   7.026  11.192   0.459
90285SOL    HW272753   7.019  11.291   0.344
90286SOL     OW72754  13.982  14.522   3.066
90286SOL    HW172755  14.015  14.542   3.154
90286SOL    HW272756  13.944  14.435   3.073
90287SOL     OW72757  13.354  12.600  12.483
90287SOL    HW172758  13.427  12.552  12.523
90287SOL    HW272759  13.294  12.533  12.453
90288SOL     OW72760   9.763   7.601   5.520
90288SOL    HW172761   9.692   7.585   5.581
90288SOL    HW272762   9.732   7.566   5.436
90289SOL     OW72763   1.365  13.847   3.205
90289SOL    HW172764   1.423  13.881   3.137
90289SOL    HW272765   1.351  13.755   3.181
90290SOL     OW72766   5.572  13.698   2.967
90290SOL    HW172767   5.517  13.619   2.961
90290SOL    HW272768   5.621  13.687   3.048
90291SOL     OW72769  14.825  13.348  12.969
90291SOL    HW172770   0.013  13.334  13.027
90291SOL    HW272771  14.821  13.443  12.957
90292SOL     OW72772   1.121   5.843   4.159
90292SOL    HW172773   1.125   5.755   4.120
90292SOL    HW272774   1.029   5.856   4.181
90293SOL     OW72775   4.651   1.968  10.579
90293SOL    HW172776   4.652   1.940  10.488
90293SOL    HW272777   4.594   1.906  10.623
90294SOL     OW72778  13.823   3.584   7.517
90294SOL    HW172779  13.767   3.648   7.472
90294SOL    HW272780  13.822   3.612   7.609
90295SOL     OW72781   3.337   1.765  11.691
90295SOL    HW172782   3.272   1.761  11.761
90295SOL    HW272783   3.340   1.675  11.657
90296SOL     OW72784   5.527   3.280   2.399
90296SOL    HW172785   5.455   3.285   2.335
90296SOL    HW272786   5.586   3.214   2.363
90297SOL     OW72787   0.613   2.963   7.982
90297SOL    HW172788   0.645   2.882   7.943
90297SOL    HW272789   0.657   3.033   7.933
90298SOL     OW72790   0.853   5.649  10.942
90298SOL    HW172791   0.922   5.689  10.889
90298SOL    HW272792   0.897   5.624  11.024
90299SOL     OW72793   2.361   7.609   5.742
90299SOL    HW172794   2.277   7.591   5.700
90299SOL    HW272795   2.424   7.608   5.669
90300SOL     OW72796  13.549  11.591   9.713
90300SOL    HW172797  13.528  11.571   9.621
90300SOL    HW272798  13.477  11.552   9.762
90301SOL     OW72799  12.085   9.374  11.154
90301SOL    HW172800  12.057   9.396  11.066
90301SOL    HW272801  12.179   9.390  11.154
90302SOL     OW72802   1.110   0.003   2.886
90302SOL    HW172803   1.084   0.087   2.925
90302SOL    HW272804   1.085  14.826   2.952
90303SOL     OW72805   1.474   2.016   3.604
90303SOL    HW172806   1.496   1.997   3.695
90303SOL    HW272807   1.551   1.985   3.554
90304SOL     OW72808  12.983   9.214   7.051
90304SOL    HW172809  13.044   9.142   7.065
90304SOL    HW272810  12.983   9.227   6.956
90305SOL     OW72811   3.260   1.828   9.141
90305SOL    HW172812   3.313   1.794   9.213
90305SOL    HW272813   3.319   1.889   9.096
90306SOL     OW72814   5.873   2.192  14.282
90306SOL    HW172815   5.878   2.256  14.210
90306SOL    HW272816   5.955   2.204  14.330
90307SOL     OW72817   9.463   4.571  12.196
90307SOL    HW172818   9.414   4.514  12.136
90307SOL    HW272819   9.487   4.514  12.269
90308SOL     OW72820   5.923   3.089   8.143
90308SOL    HW172821   5.951   3.036   8.069
90308SOL    HW272822   5.829   3.071   8.151
90309SOL     OW72823   9.351  10.588   9.471
90309SOL    HW172824   9.365  10.672   9.427
90309SOL    HW272825   9.290  10.541   9.415
90310SOL     OW72826   0.092   6.322   8.339
90310SOL    HW172827   0.108   6.230   8.322
90310SOL    HW272828   0.098   6.364   8.253
90311SOL     OW72829  13.174  14.543   0.384
90311SOL    HW172830  13.242  14.477   0.398
90311SOL    HW272831  13.214  14.625   0.411
90312SOL     OW72832   5.084  13.601  11.001
90312SOL    HW172833   5.030  13.676  10.974
90312SOL    HW272834   5.122  13.628  11.084
90313SOL     OW72835   1.057  12.266  10.999
90313SOL    HW172836   1.005  12.328  11.051
90313SOL    HW272837   1.001  12.189  10.991
90314SOL     OW72838  10.367  11.287   4.123
90314SOL    HW172839  10.309  11.249   4.057
90314SOL    HW272840  10.318  11.280   4.205
90315SOL     OW72841  11.645   1.211   6.804
90315SOL    HW172842  11.551   1.200   6.793
90315SOL    HW272843  11.667   1.290   6.755
90316SOL     OW72844  13.805   4.450   9.576
90316SOL    HW172845  13.871   4.435   9.508
90316SOL    HW272846  13.752   4.369   9.575
90317SOL     OW72847  11.645  11.647   0.513
90317SOL    HW172848  11.721  11.700   0.537
90317SOL    HW272849  11.665  11.612   0.426
90318SOL     OW72850  12.994  13.616   6.723
90318SOL    HW172851  13.015  13.703   6.690
90318SOL    HW272852  13.068  13.562   6.697
90319SOL     OW72853   1.395   0.454  12.119
90319SOL    HW172854   1.484   0.463  12.086
90319SOL    HW272855   1.361   0.375  12.075
90320SOL     OW72856   8.857   8.580   2.380
90320SOL    HW172857   8.923   8.590   2.311
90320SOL    HW272858   8.887   8.638   2.450
90321SOL     OW72859   6.627   3.649   0.208
90321SOL    HW172860   6.650   3.558   0.230
90321SOL    HW272861   6.532   3.652   0.214
90322SOL     OW72862   6.495  12.264   3.288
90322SOL    HW172863   6.416  12.278   3.236
90322SOL    HW272864   6.562  12.314   3.242
90323SOL     OW72865  11.035   0.147  10.530
90323SOL    HW172866  11.114   0.111  10.570
90323SOL    HW272867  10.988   0.188  10.602
90324SOL     OW72868  13.822  13.120   5.178
90324SOL    HW172869  13.781  13.055   5.236
90324SOL    HW272870  13.754  13.142   5.114
90325SOL     OW72871   8.590   1.877  14.401
90325SOL    HW172872   8.552   1.790  14.407
90325SOL    HW272873   8.614   1.887  14.308
90326SOL     OW72874  12.828   9.678  14.174
90326SOL    HW172875  12.875   9.605  14.215
90326SOL    HW272876  12.894   9.722  14.120
90327SOL     OW72877  10.701   4.060   0.560
90327SOL    HW172878  10.670   4.123   0.625
90327SOL    HW272879  10.744   3.991   0.611
90328SOL     OW72880   8.135   0.780   2.940
90328SOL    HW172881   8.049   0.822   2.946
90328SOL    HW272882   8.155   0.755   3.030
90329SOL     OW72883  11.011   7.596  11.999
90329SOL    HW172884  10.924   7.557  12.003
90329SOL    HW272885  11.071   7.521  12.003
90330SOL     OW72886  10.752   8.340   1.596
90330SOL    HW172887  10.781   8.262   1.548
90330SOL    HW272888  10.769   8.319   1.688
90331SOL     OW72889   3.096   8.904   9.443
90331SOL    HW172890   3.149   8.968   9.396
90331SOL    HW272891   3.143   8.821   9.431
90332SOL     OW72892  11.992   3.178  13.820
90332SOL    HW172893  11.921   3.114  13.829
90332SOL    HW272894  11.986   3.233  13.898
90333SOL     OW72895   5.455  12.904   3.854
90333SOL    HW172896   5.448  12.970   3.786
90333SOL    HW272897   5.436  12.822   3.810
90334SOL     OW72898  10.062  10.699   4.065
90334SOL    HW172899   9.984  10.754   4.076
90334SOL    HW272900  10.028  10.610   4.056
90335SOL     OW72901  14.612   4.142   4.516
90335SOL    HW172902  14.702   4.176   4.509
90335SOL    HW272903  14.568   4.178   4.439
90336SOL     OW72904  10.056  13.042   8.576
90336SOL    HW172905   9.997  13.112   8.547
90336SOL    HW272906  10.016  13.009   8.657
90337SOL     OW72907   2.154   8.790   1.354
90337SOL    HW172908   2.248   8.783   1.374
90337SOL    HW272909   2.140   8.726   1.284
90338SOL     OW72910   1.923   1.661  14.508
90338SOL    HW172911   1.955   1.571  14.516
90338SOL    HW272912   1.917   1.675  14.414
90339SOL     OW72913  14.322   5.139  10.441
90339SOL    HW172914  14.261   5.080  10.484
90339SOL    HW272915  14.322   5.218  10.495
90340SOL     OW72916  12.549  10.058   3.634
90340SOL    HW172917  12.568  10.086   3.724
90340SOL    HW272918  12.591   9.972   3.627
90341SOL     OW72919  12.176  10.951   7.898
90341SOL    HW172920  12.233  10.908   7.834
90341SOL    HW272921  12.220  11.033   7.917
90342SOL     OW72922  10.217  14.706   2.588
90342SOL    HW172923  10.140  14.734   2.540
90342SOL    HW272924  10.200  14.733   2.678
90343SOL     OW72925   2.170  13.750  11.728
90343SOL    HW172926   2.133  13.736  11.641
90343SOL    HW272927   2.246  13.807  11.712
90344SOL     OW72928   8.075   6.445  12.734
90344SOL    HW172929   8.116   6.442  12.647
90344SOL    HW272930   8.112   6.523  12.775
90345SOL     OW72931  11.544  13.699  13.053
90345SOL    HW172932  11.637  13.692  13.029
90345SOL    HW272933  11.534  13.638  13.126
90346SOL     OW72934   3.111   0.121   5.293
90346SOL    HW172935   3.141   0.038   5.255
90346SOL    HW272936   3.024   0.101   5.328
90347SOL     OW72937   5.275   5.095   8.899
90347SOL    HW172938   5.264   5.032   8.828
90347SOL    HW272939   5.241   5.178   8.863
90348SOL     OW72940   7.806   1.917   8.817
90348SOL    HW172941   7.843   1.922   8.730
90348SOL    HW272942   7.802   2.008   8.846
90349SOL     OW72943   7.007  12.766   5.930
90349SOL    HW172944   7.080  12.729   5.980
90349SOL    HW272945   7.023  12.738   5.840
90350SOL     OW72946   5.066   7.529   1.971
90350SOL    HW172947   5.145   7.554   2.018
90350SOL    HW272948   5.053   7.437   1.993
90351SOL     OW72949   0.534   8.750   6.491
90351SOL    HW172950   0.547   8.663   6.530
90351SOL    HW272951   0.546   8.736   6.397
90352SOL     OW72952  12.791   2.405  14.266
90352SOL    HW172953  12.701   2.435  14.277
90352SOL    HW272954  12.823   2.391  14.355
90353SOL     OW72955   0.191  13.251  14.200
90353SOL    HW172956   0.208  13.277  14.291
90353SOL    HW272957   0.247  13.175  14.186
90354SOL     OW72958   9.767  10.377  14.774
90354SOL    HW172959   9.747  10.333  14.692
90354SOL    HW272960   9.709  10.336  14.838
90355SOL     OW72961   4.304   9.331   2.717
90355SOL    HW172962   4.317   9.359   2.808
90355SOL    HW272963   4.372   9.266   2.702
90356SOL     OW72964  14.327   0.749  13.751
90356SOL    HW172965  14.231   0.746  13.749
90356SOL    HW272966  14.350   0.741  13.843
90357SOL     OW72967   5.441  14.877  13.285
90357SOL    HW172968   5.467  14.872  13.377
90357SOL    HW272969   5.485   0.068  13.252
90358SOL     OW72970   0.478  13.808  14.420
90358SOL    HW172971   0.560  13.857  14.421
90358SOL    HW272972   0.503  13.718  14.399
90359SOL     OW72973  12.303   5.104  10.439
90359SOL    HW172974  12.272   5.140  10.356
90359SOL    HW272975  12.356   5.029  10.414
90360SOL     OW72976   7.495  12.868  12.403
90360SOL    HW172977   7.524  12.809  12.334
90360SOL    HW272978   7.545  12.949  12.389
90361SOL     OW72979   4.766  10.023  12.651
90361SOL    HW172980   4.674  10.006  12.632
90361SOL    HW272981   4.773  10.119  12.651
90362SOL     OW72982   2.828  10.889   7.407
90362SOL    HW172983   2.742  10.915   7.375
90362SOL    HW272984   2.810  10.825   7.475
90363SOL     OW72985   0.705   9.430   2.626
90363SOL    HW172986   0.773   9.363   2.622
90363SOL    HW272987   0.751   9.512   2.606
90364SOL     OW72988   9.140   8.057   8.450
90364SOL    HW172989   9.145   8.075   8.356
90364SOL    HW272990   9.231   8.049   8.478
90365SOL     OW72991   2.053   2.981   1.052
90365SOL    HW172992   2.081   2.949   0.966
90365SOL    HW272993   2.127   2.965   1.109
90366SOL     OW72994   9.989   6.893   3.146
90366SOL    HW172995   9.912   6.865   3.197
90366SOL    HW272996  10.007   6.819   3.089
90367SOL     OW72997   4.072  12.793   1.292
90367SOL    HW172998   4.157  12.751   1.297
90367SOL    HW272999   4.032  12.777   1.378
90368SOL     OW73000   2.993   0.190   3.177
90368SOL    HW173001   3.082   0.193   3.140
90368SOL    HW273002   2.951   0.117   3.133
90369SOL     OW73003   5.504   5.715  11.574
90369SOL    HW173004   5.409   5.711  11.585
90369SOL    HW273005   5.520   5.667  11.493
90370SOL     OW73006   9.390   4.324   3.877
90370SOL    HW173007   9.474   4.288   3.907
90370SOL    HW273008   9.329   4.251   3.883
90371SOL     OW73009   6.854   2.925   6.219
90371SOL    HW173010   6.930   2.984   6.218
90371SOL    HW273011   6.884   2.849   6.269
90372SOL     OW73012  11.952   4.975   2.691
90372SOL    HW173013  11.981   5.038   2.756
90372SOL    HW273014  11.890   4.918   2.737
90373SOL     OW73015   3.689   6.321  14.275
90373SOL    HW173016   3.772   6.353  14.240
90373SOL    HW273017   3.708   6.301  14.367
90374SOL     OW73018   8.071   3.570   8.877
90374SOL    HW173019   8.112   3.656   8.884
90374SOL    HW273020   8.098   3.523   8.956
90375SOL     OW73021   1.003   9.255   9.094
90375SOL    HW173022   0.950   9.218   9.024
90375SOL    HW273023   0.983   9.200   9.170
90376SOL     OW73024   7.049  10.478   8.336
90376SOL    HW173025   7.061  10.571   8.353
90376SOL    HW273026   6.958  10.470   8.306
90377SOL     OW73027   0.379   1.032   0.983
90377SOL    HW173028   0.313   1.070   0.925
90377SOL    HW273029   0.354   0.940   0.992
90378SOL     OW73030  13.086   4.619  12.508
90378SOL    HW173031  13.048   4.556  12.569
90378SOL    HW273032  13.177   4.629  12.538
90379SOL     OW73033   5.231  14.340   4.549
90379SOL    HW173034   5.234  14.250   4.517
90379SOL    HW273035   5.316  14.377   4.525
90380SOL     OW73036   3.045   5.417   8.898
90380SOL    HW173037   3.131   5.379   8.915
90380SOL    HW273038   2.999   5.351   8.847
90381SOL     OW73039   0.569   8.677   4.449
90381SOL    HW173040   0.582   8.756   4.397
90381SOL    HW273041   0.635   8.615   4.418
90382SOL     OW73042   1.384   7.367   0.014
90382SOL    HW173043   1.338   7.337  14.823
90382SOL    HW273044   1.408   7.458  14.882
90383SOL     OW73045  12.298   6.565   1.106
90383SOL    HW173046  12.247   6.581   1.186
90383SOL    HW273047  12.253   6.616   1.039
90384SOL     OW73048   1.267   0.698   7.594
90384SOL    HW173049   1.295   0.609   7.572
90384SOL    HW273050   1.317   0.720   7.673
90385SOL     OW73051  12.463  13.076   3.244
90385SOL    HW173052  12.553  13.080   3.278
90385SOL    HW273053  12.470  13.109   3.154
90386SOL     OW73054   3.588   6.129  10.217
90386SOL    HW173055   3.653   6.059  10.209
90386SOL    HW273056   3.606   6.170  10.301
90387SOL     OW73057   3.026   5.498  13.282
90387SOL    HW173058   3.081   5.422  13.264
90387SOL    HW273059   3.064   5.568  13.229
90388SOL     OW73060  12.648   2.831   6.385
90388SOL    HW173061  12.635   2.737   6.393
90388SOL    HW273062  12.662   2.846   6.292
90389SOL     OW73063   5.259   7.918   0.082
90389SOL    HW173064   5.200   7.970   0.027
90389SOL    HW273065   5.311   7.867   0.020
90390SOL     OW73066   0.816   0.035   2.619
90390SOL    HW173067   0.738   0.089   2.631
90390SOL    HW273068   0.833   0.040   2.525
90391SOL     OW73069   4.345   2.937  10.586
90391SOL    HW173070   4.402   3.004  10.625
90391SOL    HW273071   4.271   2.930  10.647
90392SOL     OW73072   3.627   2.355  13.140
90392SOL    HW173073   3.560   2.358  13.072
90392SOL    HW273074   3.650   2.447  13.155
90393SOL     OW73075  14.777  14.065  14.820
90393SOL    HW173076  14.790  14.055   0.027
90393SOL    HW273077  14.743  14.154  14.809
90394SOL     OW73078   1.818  11.174   9.245
90394SOL    HW173079   1.876  11.242   9.210
90394SOL    HW273080   1.840  11.169   9.338
90395SOL     OW73081   0.617   7.186  11.429
90395SOL    HW173082   0.670   7.161  11.354
90395SOL    HW273083   0.545   7.237  11.392
90396SOL     OW73084  13.439   2.046   2.931
90396SOL    HW173085  13.483   1.961   2.940
90396SOL    HW273086  13.507   2.105   2.898
90397SOL     OW73087   6.006  11.493  10.148
90397SOL    HW173088   5.929  11.457  10.192
90397SOL    HW273089   6.000  11.459  10.058
90398SOL     OW73090   6.930  14.704  11.084
90398SOL    HW173091   6.918  14.693  10.989
90398SOL    HW273092   6.983  14.630  11.111
90399SOL     OW73093   7.216   7.854  14.028
90399SOL    HW173094   7.240   7.945  14.045
90399SOL    HW273095   7.258   7.805  14.098
90400SOL     OW73096   0.815   7.985  13.787
90400SOL    HW173097   0.781   8.043  13.720
90400SOL    HW273098   0.790   7.897  13.758
90401SOL     OW73099   8.254   8.380  13.422
90401SOL    HW173100   8.333   8.385  13.368
90401SOL    HW273101   8.214   8.466  13.416
90402SOL     OW73102  10.678   4.400   2.280
90402SOL    HW173103  10.747   4.466   2.290
90402SOL    HW273104  10.725   4.317   2.284
90403SOL     OW73105   4.192   3.997  10.733
90403SOL    HW173106   4.119   4.043  10.692
90403SOL    HW273107   4.261   3.997  10.666
90404SOL     OW73108   0.212  12.370   8.520
90404SOL    HW173109   0.284  12.420   8.558
90404SOL    HW273110   0.224  12.281   8.552
90405SOL     OW73111   1.098   1.532  13.713
90405SOL    HW173112   1.165   1.559  13.650
90405SOL    HW273113   1.077   1.613  13.761
90406SOL     OW73114  14.300  10.985  10.422
90406SOL    HW173115  14.237  10.995  10.494
90406SOL    HW273116  14.384  10.968  10.466
90407SOL     OW73117  12.444   4.949  13.012
90407SOL    HW173118  12.503   4.900  12.955
90407SOL    HW273119  12.356   4.921  12.985
90408SOL     OW73120   5.725  13.523   0.647
90408SOL    HW173121   5.731  13.547   0.740
90408SOL    HW273122   5.815  13.527   0.616
90409SOL     OW73123   8.108  11.120   3.761
90409SOL    HW173124   8.143  11.038   3.726
90409SOL    HW273125   8.035  11.093   3.817
90410SOL     OW73126   8.157   7.106   5.784
90410SOL    HW173127   8.102   7.183   5.801
90410SOL    HW273128   8.246   7.135   5.804
90411SOL     OW73129   7.597  12.195   0.931
90411SOL    HW173130   7.689  12.175   0.914
90411SOL    HW273131   7.549  12.154   0.859
90412SOL     OW73132   3.220   5.201   8.083
90412SOL    HW173133   3.233   5.186   8.177
90412SOL    HW273134   3.309   5.213   8.049
90413SOL     OW73135   8.194   6.447   4.703
90413SOL    HW173136   8.142   6.527   4.707
90413SOL    HW273137   8.188   6.419   4.612
90414SOL     OW73138   9.822  11.045  13.611
90414SOL    HW173139   9.747  10.995  13.580
90414SOL    HW273140   9.832  11.116  13.547
90415SOL     OW73141   8.672   3.658   9.564
90415SOL    HW173142   8.737   3.606   9.517
90415SOL    HW273143   8.719   3.692   9.640
90416SOL     OW73144   0.298   6.883   7.497
90416SOL    HW173145   0.253   6.936   7.563
90416SOL    HW273146   0.291   6.793   7.530
90417SOL     OW73147   8.195   7.138   3.271
90417SOL    HW173148   8.107   7.102   3.278
90417SOL    HW273149   8.232   7.097   3.193
90418SOL     OW73150   9.453   5.124   7.499
90418SOL    HW173151   9.545   5.107   7.515
90418SOL    HW273152   9.436   5.087   7.412
90419SOL     OW73153  12.635   5.547   8.705
90419SOL    HW173154  12.641   5.487   8.779
90419SOL    HW273155  12.725   5.562   8.679
90420SOL     OW73156   3.189   9.479  13.218
90420SOL    HW173157   3.102   9.492  13.256
90420SOL    HW273158   3.247   9.469  13.294
90421SOL     OW73159   8.510   3.978  13.895
90421SOL    HW173160   8.495   4.072  13.885
90421SOL    HW273161   8.447   3.951  13.962
90422SOL     OW73162   6.570  14.779  10.580
90422SOL    HW173163   6.490  14.831  10.591
90422SOL    HW273164   6.564  14.746  10.490
90423SOL     OW73165  13.283  10.532  10.394
90423SOL    HW173166  13.187  10.534  10.390
90423SOL    HW273167  13.304  10.440  10.410
90424SOL     OW73168   6.263  11.122   1.883
90424SOL    HW173169   6.231  11.210   1.865
90424SOL    HW273170   6.225  11.068   1.814
90425SOL     OW73171  12.400  14.239   9.837
90425SOL    HW173172  12.320  14.208   9.879
90425SOL    HW273173  12.420  14.322   9.881
90426SOL     OW73174   8.922  14.823   7.387
90426SOL    HW173175   8.867   0.005   7.424
90426SOL    HW273176   8.954  14.775   7.463
90427SOL     OW73177   9.333   6.467  13.398
90427SOL    HW173178   9.242   6.442  13.408
90427SOL    HW273179   9.336   6.510  13.312
90428SOL     OW73180  13.851   1.974   7.528
90428SOL    HW173181  13.920   1.931   7.477
90428SOL    HW273182  13.884   1.974   7.617
90429SOL     OW73183   9.460   3.837   0.831
90429SOL    HW173184   9.370   3.817   0.857
90429SOL    HW273185   9.479   3.920   0.874
90430SOL     OW73186   2.694   6.708   7.656
90430SOL    HW173187   2.784   6.719   7.688
90430SOL    HW273188   2.704   6.686   7.563
90431SOL     OW73189   7.118   8.104   0.309
90431SOL    HW173190   7.195   8.159   0.323
90431SOL    HW273191   7.106   8.058   0.393
90432SOL     OW73192   3.960   2.926  13.593
90432SOL    HW173193   3.904   2.906  13.518
90432SOL    HW273194   4.036   2.970  13.555
90433SOL     OW73195  10.341   0.382  14.713
90433SOL    HW173196  10.426   0.373  14.756
90433SOL    HW273197  10.291   0.306  14.745
90434SOL     OW73198   9.169   5.720  13.771
90434SOL    HW173199   9.196   5.761  13.688
90434SOL    HW273200   9.135   5.634  13.746
90435SOL     OW73201   3.517   6.555   2.431
90435SOL    HW173202   3.439   6.590   2.387
90435SOL    HW273203   3.506   6.460   2.427
90436SOL     OW73204  11.139   4.529  12.363
90436SOL    HW173205  11.140   4.521  12.458
90436SOL    HW273206  11.073   4.468  12.333
90437SOL     OW73207   3.613   0.142   5.746
90437SOL    HW173208   3.559   0.201   5.693
90437SOL    HW273209   3.552   0.075   5.777
90438SOL     OW73210   9.401  10.915   0.275
90438SOL    HW173211   9.449  10.920   0.358
90438SOL    HW273212   9.387  11.007   0.250
90439SOL     OW73213   0.494   7.018   1.330
90439SOL    HW173214   0.553   7.090   1.306
90439SOL    HW273215   0.411   7.062   1.351
90440SOL     OW73216  14.037  10.223   4.815
90440SOL    HW173217  14.116  10.270   4.788
90440SOL    HW273218  14.054  10.196   4.906
90441SOL     OW73219  12.862   9.411   2.474
90441SOL    HW173220  12.835   9.414   2.565
90441SOL    HW273221  12.956   9.429   2.476
90442SOL     OW73222   2.150   0.049  14.621
90442SOL    HW173223   2.111   0.069  14.536
90442SOL    HW273224   2.179   0.134  14.655
90443SOL     OW73225   1.363   0.447  13.131
90443SOL    HW173226   1.339   0.440  13.223
90443SOL    HW273227   1.303   0.511  13.095
90444SOL     OW73228   1.943   0.232  13.452
90444SOL    HW173229   1.853   0.252  13.425
90444SOL    HW273230   1.975   0.313  13.491
90445SOL     OW73231   6.069  13.970   0.318
90445SOL    HW173232   6.010  14.021   0.262
90445SOL    HW273233   6.111  14.034   0.375
90446SOL     OW73234   8.653  13.328   8.811
90446SOL    HW173235   8.689  13.321   8.899
90446SOL    HW273236   8.640  13.421   8.797
90447SOL     OW73237   0.777  12.181   5.844
90447SOL    HW173238   0.708  12.244   5.823
90447SOL    HW273239   0.777  12.176   5.940
90448SOL     OW73240  13.331   3.927   4.627
90448SOL    HW173241  13.237   3.937   4.621
90448SOL    HW273242  13.366   4.013   4.604
90449SOL     OW73243  11.339   6.403   3.984
90449SOL    HW173244  11.410   6.399   4.048
90449SOL    HW273245  11.305   6.314   3.981
90450SOL     OW73246  10.959   9.299  14.290
90450SOL    HW173247  10.981   9.386  14.255
90450SOL    HW273248  10.896   9.318  14.360
90451SOL     OW73249   2.819  11.922   9.547
90451SOL    HW173250   2.837  11.868   9.470
90451SOL    HW273251   2.724  11.915   9.560
90452SOL     OW73252  11.587  12.015   6.967
90452SOL    HW173253  11.619  12.008   7.057
90452SOL    HW273254  11.511  11.956   6.963
90453SOL     OW73255   3.752  12.178  14.206
90453SOL    HW173256   3.813  12.249  14.220
90453SOL    HW273257   3.691  12.211  14.140
90454SOL     OW73258   1.681   6.134   8.274
90454SOL    HW173259   1.597   6.155   8.314
90454SOL    HW273260   1.699   6.044   8.301
90455SOL     OW73261  11.271  12.761   7.922
90455SOL    HW173262  11.339  12.717   7.872
90455SOL    HW273263  11.256  12.704   7.998
90456SOL     OW73264  13.939   2.171  12.661
90456SOL    HW173265  13.975   2.112  12.595
90456SOL    HW273266  13.923   2.116  12.737
90457SOL     OW73267   3.823  12.001  12.155
90457SOL    HW173268   3.752  11.965  12.101
90457SOL    HW273269   3.877  11.924  12.176
90458SOL     OW73270  10.600   5.030   9.108
90458SOL    HW173271  10.660   4.970   9.151
90458SOL    HW273272  10.546   5.066   9.178
90459SOL     OW73273   2.832   1.351  10.074
90459SOL    HW173274   2.755   1.354  10.017
90459SOL    HW273275   2.813   1.282  10.137
90460SOL     OW73276  14.052   3.884   6.486
90460SOL    HW173277  14.078   3.804   6.531
90460SOL    HW273278  14.039   3.858   6.395
90461SOL     OW73279   3.592  11.114   2.355
90461SOL    HW173280   3.677  11.128   2.313
90461SOL    HW273281   3.608  11.135   2.447
90462SOL     OW73282   6.937   7.346   5.272
90462SOL    HW173283   6.915   7.439   5.285
90462SOL    HW273284   7.004   7.347   5.204
90463SOL     OW73285   9.956   4.398   8.170
90463SOL    HW173286   9.910   4.478   8.197
90463SOL    HW273287   9.887   4.334   8.156
90464SOL     OW73288   5.273  11.493  11.274
90464SOL    HW173289   5.220  11.446  11.338
90464SOL    HW273290   5.223  11.489  11.193
90465SOL     OW73291   3.659   8.115   7.500
90465SOL    HW173292   3.571   8.114   7.539
90465SOL    HW273293   3.716   8.145   7.570
90466SOL     OW73294  14.352   0.834   9.373
90466SOL    HW173295  14.368   0.756   9.426
90466SOL    HW273296  14.258   0.830   9.352
90467SOL     OW73297   5.979   4.572   9.903
90467SOL    HW173298   5.949   4.486   9.933
90467SOL    HW273299   6.008   4.558   9.813
90468SOL     OW73300   8.177   5.691   8.532
90468SOL    HW173301   8.159   5.665   8.442
90468SOL    HW273302   8.149   5.783   8.537
90469SOL     OW73303   6.898   0.652  12.681
90469SOL    HW173304   6.851   0.600  12.617
90469SOL    HW273305   6.882   0.608  12.765
90470SOL     OW73306   9.084   2.099  13.790
90470SOL    HW173307   9.003   2.095  13.841
90470SOL    HW273308   9.058   2.139  13.707
90471SOL     OW73309   1.420   9.384  11.205
90471SOL    HW173310   1.406   9.289  11.203
90471SOL    HW273311   1.476   9.398  11.282
90472SOL     OW73312   3.019   1.233   2.125
90472SOL    HW173313   3.066   1.308   2.162
90472SOL    HW273314   3.084   1.189   2.070
90473SOL     OW73315   2.740  14.385  10.293
90473SOL    HW173316   2.645  14.382  10.302
90473SOL    HW273317   2.771  14.308  10.341
90474SOL     OW73318   7.190   4.293   6.409
90474SOL    HW173319   7.160   4.256   6.325
90474SOL    HW273320   7.173   4.387   6.401
90475SOL     OW73321  14.624  13.483   1.141
90475SOL    HW173322  14.641  13.407   1.086
90475SOL    HW273323  14.549  13.458   1.195
90476SOL     OW73324  10.869   8.213   3.128
90476SOL    HW173325  10.831   8.293   3.165
90476SOL    HW273326  10.863   8.225   3.033
90477SOL     OW73327   2.380  14.764  11.699
90477SOL    HW173328   2.296  14.726  11.727
90477SOL    HW273329   2.358  14.853  11.672
90478SOL     OW73330  13.761   7.985   9.952
90478SOL    HW173331  13.825   8.040   9.999
90478SOL    HW273332  13.790   7.987   9.861
90479SOL     OW73333   4.423  14.263   3.419
90479SOL    HW173334   4.388  14.184   3.377
90479SOL    HW273335   4.515  14.244   3.432
90480SOL     OW73336   3.052  11.466  13.671
90480SOL    HW173337   3.121  11.442  13.609
90480SOL    HW273338   3.055  11.562  13.674
90481SOL     OW73339   6.412  11.503   0.733
90481SOL    HW173340   6.466  11.467   0.662
90481SOL    HW273341   6.465  11.574   0.770
90482SOL     OW73342   8.832  12.553  13.785
90482SOL    HW173343   8.879  12.624  13.829
90482SOL    HW273344   8.831  12.579  13.692
90483SOL     OW73345   8.466   2.118  10.790
90483SOL    HW173346   8.537   2.100  10.728
90483SOL    HW273347   8.434   2.031  10.816
90484SOL     OW73348   5.152   1.538   6.858
90484SOL    HW173349   5.163   1.448   6.887
90484SOL    HW273350   5.139   1.589   6.938
90485SOL     OW73351   3.616   6.102   5.064
90485SOL    HW173352   3.619   6.161   5.139
90485SOL    HW273353   3.642   6.157   4.990
90486SOL     OW73354   1.877  10.461  13.647
90486SOL    HW173355   1.838  10.513  13.717
90486SOL    HW273356   1.806  10.449  13.583
90487SOL     OW73357   5.781   1.052   9.560
90487SOL    HW173358   5.844   0.991   9.597
90487SOL    HW273359   5.787   1.130   9.616
90488SOL     OW73360  10.861   5.870  13.610
90488SOL    HW173361  10.923   5.879  13.538
90488SOL    HW273362  10.815   5.788  13.591
90489SOL     OW73363   9.431   3.769   2.100
90489SOL    HW173364   9.485   3.791   2.176
90489SOL    HW273365   9.390   3.851   2.074
90490SOL     OW73366  13.503   6.616  14.386
90490SOL    HW173367  13.521   6.687  14.325
90490SOL    HW273368  13.438   6.561  14.341
90491SOL     OW73369   6.224  11.578   5.370
90491SOL    HW173370   6.294  11.567   5.305
90491SOL    HW273371   6.268  11.617   5.446
90492SOL     OW73372   4.393   9.878   6.301
90492SOL    HW173373   4.442   9.879   6.383
90492SOL    HW273374   4.317   9.821   6.319
90493SOL     OW73375  11.934   5.915   7.737
90493SOL    HW173376  11.995   5.870   7.795
90493SOL    HW273377  11.948   5.874   7.651
90494SOL     OW73378   6.275   2.469   4.128
90494SOL    HW173379   6.190   2.501   4.159
90494SOL    HW273380   6.330   2.468   4.206
90495SOL     OW73381  11.029  10.583   3.604
90495SOL    HW173382  10.968  10.610   3.536
90495SOL    HW273383  11.069  10.664   3.635
90496SOL     OW73384   3.344   5.771  11.471
90496SOL    HW173385   3.362   5.707  11.402
90496SOL    HW273386   3.425   5.775  11.522
90497SOL     OW73387   8.619  11.048   8.347
90497SOL    HW173388   8.640  10.968   8.394
90497SOL    HW273389   8.556  11.021   8.280
90498SOL     OW73390   8.267   2.352   4.065
90498SOL    HW173391   8.262   2.448   4.068
90498SOL    HW273392   8.294   2.327   4.153
90499SOL     OW73393   2.534   9.853   1.538
90499SOL    HW173394   2.571   9.783   1.483
90499SOL    HW273395   2.560   9.830   1.627
90500SOL     OW73396   4.115   0.684  10.281
90500SOL    HW173397   4.205   0.712  10.264
90500SOL    HW273398   4.096   0.717  10.369
90501SOL     OW73399   2.248   2.103  13.446
90501SOL    HW173400   2.312   2.165  13.481
90501SOL    HW273401   2.291   2.065  13.369
90502SOL     OW73402  12.867   4.582  13.124
90502SOL    HW173403  12.912   4.658  13.087
90502SOL    HW273404  12.909   4.568  13.209
90503SOL     OW73405   3.248   5.491   9.480
90503SOL    HW173406   3.179   5.557   9.473
90503SOL    HW273407   3.249   5.469   9.573
90504SOL     OW73408   7.800   0.653   9.273
90504SOL    HW173409   7.881   0.639   9.223
90504SOL    HW273410   7.829   0.661   9.364
90505SOL     OW73411   5.840   4.020  11.968
90505SOL    HW173412   5.819   3.999  11.877
90505SOL    HW273413   5.883   4.105  11.964
90506SOL     OW73414  13.615   8.117  13.236
90506SOL    HW173415  13.559   8.128  13.160
90506SOL    HW273416  13.697   8.081  13.201
90507SOL     OW73417   3.738   6.594   4.494
90507SOL    HW173418   3.819   6.557   4.460
90507SOL    HW273419   3.719   6.668   4.436
90508SOL     OW73420  10.856  10.276  10.165
90508SOL    HW173421  10.768  10.283  10.202
90508SOL    HW273422  10.913  10.271  10.241
90509SOL     OW73423   3.298  10.369   4.424
90509SOL    HW173424   3.291  10.312   4.500
90509SOL    HW273425   3.221  10.426   4.429
90510SOL     OW73426  10.248   3.383   4.195
90510SOL    HW173427  10.320   3.432   4.234
90510SOL    HW273428  10.192   3.450   4.155
90511SOL     OW73429   8.923   8.892   0.773
90511SOL    HW173430   8.834   8.921   0.793
90511SOL    HW273431   8.973   8.973   0.761
90512SOL     OW73432   5.658  11.055   3.584
90512SOL    HW173433   5.603  11.126   3.553
90512SOL    HW273434   5.633  11.045   3.676
90513SOL     OW73435  10.514   3.524   2.751
90513SOL    HW173436  10.501   3.491   2.840
90513SOL    HW273437  10.540   3.447   2.701
90514SOL     OW73438   2.184   9.830  12.884
90514SOL    HW173439   2.109   9.781  12.920
90514SOL    HW273440   2.258   9.770  12.894
90515SOL     OW73441   3.488  13.612  13.926
90515SOL    HW173442   3.536  13.536  13.960
90515SOL    HW273443   3.511  13.614  13.833
90516SOL     OW73444   6.056   7.636  11.622
90516SOL    HW173445   6.131   7.682  11.661
90516SOL    HW273446   6.094   7.558  11.582
90517SOL     OW73447   1.067   0.900   3.450
90517SOL    HW173448   1.115   0.843   3.509
90517SOL    HW273449   0.975   0.877   3.463
90518SOL     OW73450   2.105  11.787  10.178
90518SOL    HW173451   2.020  11.788  10.222
90518SOL    HW273452   2.087  11.751  10.092
90519SOL     OW73453  10.342   9.237   2.755
90519SOL    HW173454  10.357   9.280   2.839
90519SOL    HW273455  10.314   9.307   2.696
90520SOL     OW73456  11.385   8.289   5.933
90520SOL    HW173457  11.410   8.244   5.853
90520SOL    HW273458  11.443   8.365   5.937
90521SOL     OW73459  12.171  10.641  10.953
90521SOL    HW173460  12.076  10.647  10.946
90521SOL    HW273461  12.188  10.627  11.046
90522SOL     OW73462   5.240  14.169   9.982
90522SOL    HW173463   5.202  14.151  10.067
90522SOL    HW273464   5.175  14.224   9.937
90523SOL     OW73465   0.647  13.029   8.330
90523SOL    HW173466   0.553  13.012   8.341
90523SOL    HW273467   0.686  12.942   8.320
90524SOL     OW73468   7.995  14.869   0.950
90524SOL    HW173469   8.066  14.831   1.001
90524SOL    HW273470   8.034   0.057   0.906
90525SOL     OW73471   2.890   2.456   2.046
90525SOL    HW173472   2.945   2.392   2.091
90525SOL    HW273473   2.939   2.479   1.967
90526SOL     OW73474  12.778   4.816   3.857
90526SOL    HW173475  12.831   4.743   3.827
90526SOL    HW273476  12.742   4.855   3.778
90527SOL     OW73477  11.249   8.619   3.543
90527SOL    HW173478  11.278   8.675   3.470
90527SOL    HW273479  11.180   8.670   3.586
90528SOL     OW73480   3.093   7.749   3.312
90528SOL    HW173481   3.020   7.799   3.347
90528SOL    HW273482   3.171   7.795   3.345
90529SOL     OW73483  10.110  13.032   1.028
90529SOL    HW173484  10.018  13.010   1.011
90529SOL    HW273485  10.110  13.075   1.113
90530SOL     OW73486  14.555  13.241  11.081
90530SOL    HW173487  14.586  13.183  11.151
90530SOL    HW273488  14.507  13.184  11.022
90531SOL     OW73489   9.613   7.592  10.554
90531SOL    HW173490   9.608   7.687  10.540
90531SOL    HW273491   9.603   7.581  10.648
90532SOL     OW73492   7.224   9.117  10.406
90532SOL    HW173493   7.203   9.044  10.464
90532SOL    HW273494   7.165   9.107  10.332
90533SOL     OW73495   6.563   1.220   8.857
90533SOL    HW173496   6.509   1.144   8.833
90533SOL    HW273497   6.527   1.291   8.804
90534SOL     OW73498   6.902   1.038   5.985
90534SOL    HW173499   6.949   1.003   6.061
90534SOL    HW273500   6.952   1.115   5.959
90535SOL     OW73501   1.037   1.535   4.522
90535SOL    HW173502   1.118   1.564   4.482
90535SOL    HW273503   1.034   1.440   4.504
90536SOL     OW73504  12.219  11.276  10.327
90536SOL    HW173505  12.292  11.242  10.274
90536SOL    HW273506  12.150  11.211  10.316
90537SOL     OW73507   7.150  13.722   8.063
90537SOL    HW173508   7.188  13.636   8.044
90537SOL    HW273509   7.076  13.704   8.121
90538SOL     OW73510   0.481  10.594   4.881
90538SOL    HW173511   0.519  10.681   4.893
90538SOL    HW273512   0.553  10.533   4.898
90539SOL     OW73513   4.493   0.913   8.394
90539SOL    HW173514   4.445   0.840   8.355
90539SOL    HW273515   4.585   0.892   8.380
90540SOL     OW73516   7.459  11.255   7.281
90540SOL    HW173517   7.478  11.335   7.330
90540SOL    HW273518   7.489  11.184   7.338
90541SOL     OW73519  11.225   6.001   8.803
90541SOL    HW173520  11.208   6.071   8.867
90541SOL    HW273521  11.142   5.953   8.798
90542SOL     OW73522   1.959  13.600   4.227
90542SOL    HW173523   1.891  13.645   4.278
90542SOL    HW273524   1.913  13.566   4.150
90543SOL     OW73525   1.145   8.481   1.741
90543SOL    HW173526   1.146   8.388   1.765
90543SOL    HW273527   1.209   8.488   1.670
90544SOL     OW73528   5.168   4.284   9.127
90544SOL    HW173529   5.252   4.286   9.081
90544SOL    HW273530   5.162   4.196   9.163
90545SOL     OW73531  14.721  11.642   2.749
90545SOL    HW173532  14.808  11.637   2.787
90545SOL    HW273533  14.719  11.727   2.705
90546SOL     OW73534   8.775   8.530  11.557
90546SOL    HW173535   8.681   8.516  11.561
90546SOL    HW273536   8.788   8.591  11.485
90547SOL     OW73537  13.392  11.029   9.490
90547SOL    HW173538  13.436  11.057   9.410
90547SOL    HW273539  13.338  11.103   9.515
90548SOL     OW73540   2.760   6.722   1.547
90548SOL    HW173541   2.834   6.764   1.504
90548SOL    HW273542   2.706   6.689   1.475
90549SOL     OW73543  11.219   1.906   3.869
90549SOL    HW173544  11.201   1.857   3.948
90549SOL    HW273545  11.211   1.998   3.895
90550SOL     OW73546   1.957   1.685   5.618
90550SOL    HW173547   1.999   1.694   5.532
90550SOL    HW273548   1.884   1.746   5.617
90551SOL     OW73549   1.041   1.233  10.278
90551SOL    HW173550   0.971   1.195  10.331
90551SOL    HW273551   1.017   1.212  10.188
90552SOL     OW73552   5.868   0.166   6.437
90552SOL    HW173553   5.775   0.165   6.416
90552SOL    HW273554   5.902   0.245   6.395
90553SOL     OW73555  10.458   1.570   0.504
90553SOL    HW173556  10.516   1.504   0.466
90553SOL    HW273557  10.370   1.534   0.493
90554SOL     OW73558   1.180  12.512  12.486
90554SOL    HW173559   1.206  12.601  12.462
90554SOL    HW273560   1.084  12.515  12.488
90555SOL     OW73561   0.316   0.044   5.393
90555SOL    HW173562   0.297  14.876   5.316
90555SOL    HW273563   0.410   0.034   5.407
90556SOL     OW73564   9.113  12.385   0.114
90556SOL    HW173565   9.158  12.448   0.057
90556SOL    HW273566   9.024  12.381   0.078
90557SOL     OW73567   9.443  10.405  13.708
90557SOL    HW173568   9.409  10.323  13.744
90557SOL    HW273569   9.496  10.379  13.633
90558SOL     OW73570  14.401   5.967  11.578
90558SOL    HW173571  14.342   5.919  11.519
90558SOL    HW273572  14.342   6.013  11.637
90559SOL     OW73573  14.146  11.044  14.797
90559SOL    HW173574  14.230  11.037  14.841
90559SOL    HW273575  14.085  11.070  14.866
90560SOL     OW73576  10.715  13.692   4.925
90560SOL    HW173577  10.704  13.652   4.838
90560SOL    HW273578  10.635  13.743   4.938
90561SOL     OW73579  11.226   3.966   9.639
90561SOL    HW173580  11.231   4.042   9.581
90561SOL    HW273581  11.305   3.972   9.692
90562SOL     OW73582   4.632   9.236   6.018
90562SOL    HW173583   4.599   9.255   6.106
90562SOL    HW273584   4.715   9.192   6.033
90563SOL     OW73585  12.805   2.806   7.788
90563SOL    HW173586  12.833   2.818   7.879
90563SOL    HW273587  12.887   2.797   7.740
90564SOL     OW73588   4.425  10.272   9.492
90564SOL    HW173589   4.469  10.202   9.443
90564SOL    HW273590   4.376  10.320   9.427
90565SOL     OW73591   5.995  11.172   6.422
90565SOL    HW173592   6.067  11.122   6.383
90565SOL    HW273593   6.037  11.250   6.458
90566SOL     OW73594   5.041   1.819   2.891
90566SOL    HW173595   5.051   1.898   2.944
90566SOL    HW273596   5.130   1.797   2.863
90567SOL     OW73597   0.849  12.438   4.905
90567SOL    HW173598   0.876  12.514   4.959
90567SOL    HW273599   0.892  12.453   4.821
90568SOL     OW73600  13.849  11.363   2.825
90568SOL    HW173601  13.809  11.449   2.816
90568SOL    HW273602  13.775  11.302   2.823
90569SOL     OW73603   8.065  10.933   2.829
90569SOL    HW173604   8.030  10.853   2.790
90569SOL    HW273605   8.112  10.976   2.758
90570SOL     OW73606   7.758   5.791   3.908
90570SOL    HW173607   7.816   5.731   3.860
90570SOL    HW273608   7.801   5.876   3.902
90571SOL     OW73609  12.463  13.749   0.122
90571SOL    HW173610  12.390  13.712   0.072
90571SOL    HW273611  12.540  13.735   0.066
90572SOL     OW73612   8.681   8.874   2.869
90572SOL    HW173613   8.598   8.921   2.863
90572SOL    HW273614   8.743   8.939   2.900
90573SOL     OW73615   2.958   1.751   4.768
90573SOL    HW173616   2.890   1.784   4.711
90573SOL    HW273617   2.922   1.671   4.805
90574SOL     OW73618  12.434   4.783  14.084
90574SOL    HW173619  12.426   4.796  14.179
90574SOL    HW273620  12.496   4.711  14.075
90575SOL     OW73621  14.207   3.144   0.336
90575SOL    HW173622  14.130   3.164   0.283
90575SOL    HW273623  14.278   3.133   0.272
90576SOL     OW73624  12.734   2.819  11.319
90576SOL    HW173625  12.645   2.787  11.333
90576SOL    HW273626  12.783   2.790  11.396
90577SOL     OW73627   8.873  10.264  13.863
90577SOL    HW173628   8.872  10.278  13.958
90577SOL    HW273629   8.918  10.181  13.851
90578SOL     OW73630   1.445   0.938   6.271
90578SOL    HW173631   1.540   0.947   6.271
90578SOL    HW273632   1.424   0.899   6.186
90579SOL     OW73633  10.900   3.311  10.514
90579SOL    HW173634  10.864   3.397  10.536
90579SOL    HW273635  10.980   3.332  10.465
90580SOL     OW73636   0.460   0.753   3.834
90580SOL    HW173637   0.543   0.754   3.882
90580SOL    HW273638   0.448   0.844   3.805
90581SOL     OW73639   2.666   2.593  11.743
90581SOL    HW173640   2.717   2.548  11.676
90581SOL    HW273641   2.581   2.608  11.702
90582SOL     OW73642  14.473  11.921   4.845
90582SOL    HW173643  14.488  11.827   4.849
90582SOL    HW273644  14.378  11.930   4.841
90583SOL     OW73645   0.233  13.158   0.888
90583SOL    HW173646   0.245  13.135   0.981
90583SOL    HW273647   0.149  13.119   0.865
90584SOL     OW73648  10.704  14.346  10.458
90584SOL    HW173649  10.736  14.287  10.389
90584SOL    HW273650  10.619  14.311  10.482
90585SOL     OW73651   1.249  11.738  12.110
90585SOL    HW173652   1.333  11.778  12.131
90585SOL    HW273653   1.227  11.773  12.024
90586SOL     OW73654  11.262   0.810  11.194
90586SOL    HW173655  11.208   0.795  11.272
90586SOL    HW273656  11.275   0.723  11.157
90587SOL     OW73657   4.947  11.950   6.850
90587SOL    HW173658   4.901  11.934   6.767
90587SOL    HW273659   4.936  12.044   6.866
90588SOL     OW73660  13.888  14.264   6.287
90588SOL    HW173661  13.943  14.302   6.355
90588SOL    HW273662  13.934  14.284   6.205
90589SOL     OW73663   3.011   9.003   8.587
90589SOL    HW173664   3.093   8.967   8.620
90589SOL    HW273665   2.969   8.931   8.540
90590SOL     OW73666   1.378  10.669   5.511
90590SOL    HW173667   1.344  10.753   5.481
90590SOL    HW273668   1.361  10.609   5.439
90591SOL     OW73669  10.679   5.389   8.448
90591SOL    HW173670  10.722   5.323   8.393
90591SOL    HW273671  10.710   5.369   8.537
90592SOL     OW73672  10.305   2.445  10.805
90592SOL    HW173673  10.299   2.533  10.841
90592SOL    HW273674  10.297   2.387  10.880
90593SOL     OW73675   7.420   7.225   4.004
90593SOL    HW173676   7.354   7.219   4.073
90593SOL    HW273677   7.445   7.317   4.003
90594SOL     OW73678   0.300  12.504   7.165
90594SOL    HW173679   0.340  12.436   7.110
90594SOL    HW273680   0.363  12.576   7.162
90595SOL     OW73681  10.698  14.442  13.223
90595SOL    HW173682  10.754  14.516  13.245
90595SOL    HW273683  10.626  14.480  13.173
90596SOL     OW73684   5.026   3.418   4.769
90596SOL    HW173685   4.938   3.437   4.737
90596SOL    HW273686   5.012   3.352   4.838
90597SOL     OW73687  13.119   7.721  11.661
90597SOL    HW173688  13.125   7.632  11.697
90597SOL    HW273689  13.206   7.759  11.676
90598SOL     OW73690  13.770  13.016   7.651
90598SOL    HW173691  13.862  12.993   7.639
90598SOL    HW273692  13.730  13.004   7.565
90599SOL     OW73693   2.806   8.783  14.458
90599SOL    HW173694   2.833   8.698  14.424
90599SOL    HW273695   2.784   8.834  14.380
90600SOL     OW73696  13.181  11.919   1.632
90600SOL    HW173697  13.200  11.887   1.544
90600SOL    HW273698  13.085  11.914   1.639
90601SOL     OW73699  11.700  12.084  11.604
90601SOL    HW173700  11.766  12.126  11.659
90601SOL    HW273701  11.716  12.120  11.517
90602SOL     OW73702  13.114  10.049  13.321
90602SOL    HW173703  13.179  10.021  13.257
90602SOL    HW273704  13.165  10.082  13.395
90603SOL     OW73705  14.116  14.856   2.397
90603SOL    HW173706  14.126   0.064   2.396
90603SOL    HW273707  14.128  14.832   2.489
90604SOL     OW73708  11.900   7.868  10.478
90604SOL    HW173709  11.944   7.785  10.495
90604SOL    HW273710  11.903   7.915  10.562
90605SOL     OW73711   5.550  14.241   9.210
90605SOL    HW173712   5.603  14.242   9.130
90605SOL    HW273713   5.566  14.154   9.247
90606SOL     OW73714   7.665  11.368  13.888
90606SOL    HW173715   7.669  11.305  13.816
90606SOL    HW273716   7.712  11.327  13.959
90607SOL     OW73717   0.673   3.273   3.783
90607SOL    HW173718   0.682   3.178   3.790
90607SOL    HW273719   0.674   3.290   3.689
90608SOL     OW73720   7.496  11.111   1.098
90608SOL    HW173721   7.506  11.100   1.003
90608SOL    HW273722   7.584  11.135   1.128
90609SOL     OW73723  11.839   3.536  11.448
90609SOL    HW173724  11.859   3.523  11.541
90609SOL    HW273725  11.882   3.618  11.425
90610SOL     OW73726  11.370   9.004   4.401
90610SOL    HW173727  11.401   8.977   4.487
90610SOL    HW273728  11.302   9.069   4.419
90611SOL     OW73729   4.723  11.698  13.438
90611SOL    HW173730   4.680  11.620  13.471
90611SOL    HW273731   4.727  11.758  13.513
90612SOL     OW73732   7.867  13.049   5.127
90612SOL    HW173733   7.835  13.139   5.119
90612SOL    HW273734   7.945  13.047   5.072
90613SOL     OW73735   2.563   2.170  10.625
90613SOL    HW173736   2.616   2.216  10.561
90613SOL    HW273737   2.473   2.195  10.604
90614SOL     OW73738   1.228  12.420   1.735
90614SOL    HW173739   1.267  12.346   1.781
90614SOL    HW273740   1.286  12.493   1.753
90615SOL     OW73741  10.605   5.689   3.051
90615SOL    HW173742  10.539   5.722   3.112
90615SOL    HW273743  10.608   5.595   3.068
90616SOL     OW73744   2.493   7.489   6.304
90616SOL    HW173745   2.431   7.481   6.232
90616SOL    HW273746   2.444   7.533   6.373
90617SOL     OW73747   8.153   7.997   9.478
90617SOL    HW173748   8.183   7.938   9.409
90617SOL    HW273749   8.233   8.036   9.513
90618SOL     OW73750   6.757   0.851   5.834
90618SOL    HW173751   6.779   0.904   5.757
90618SOL    HW273752   6.800   0.897   5.907
90619SOL     OW73753   0.508   0.630  10.139
90619SOL    HW173754   0.429   0.685  10.131
90619SOL    HW273755   0.474   0.541  10.141
90620SOL     OW73756   3.141   4.242  11.086
90620SOL    HW173757   3.062   4.295  11.100
90620SOL    HW273758   3.122   4.192  11.007
90621SOL     OW73759   0.683   3.204   0.698
90621SOL    HW173760   0.676   3.184   0.792
90621SOL    HW273761   0.689   3.299   0.694
90622SOL     OW73762  11.385   6.702   9.992
90622SOL    HW173763  11.315   6.687   9.929
90622SOL    HW273764  11.340   6.731  10.071
90623SOL     OW73765   3.575  14.430   4.724
90623SOL    HW173766   3.530  14.396   4.647
90623SOL    HW273767   3.606  14.517   4.697
90624SOL     OW73768  12.213   1.304   9.730
90624SOL    HW173769  12.231   1.359   9.654
90624SOL    HW273770  12.147   1.353   9.779
90625SOL     OW73771   3.521   8.940   5.365
90625SOL    HW173772   3.604   8.978   5.393
90625SOL    HW273773   3.461   9.014   5.357
90626SOL     OW73774   8.156  14.225   9.020
90626SOL    HW173775   8.083  14.253   8.965
90626SOL    HW273776   8.217  14.182   8.960
90627SOL     OW73777  10.502   3.196   6.907
90627SOL    HW173778  10.556   3.132   6.953
90627SOL    HW273779  10.564   3.263   6.878
90628SOL     OW73780  14.386   3.436   4.062
90628SOL    HW173781  14.414   3.346   4.082
90628SOL    HW273782  14.336   3.462   4.140
90629SOL     OW73783  10.906   9.700   5.498
90629SOL    HW173784  10.835   9.636   5.492
90629SOL    HW273785  10.864   9.781   5.527
90630SOL     OW73786   8.042   1.672  11.891
90630SOL    HW173787   8.074   1.596  11.842
90630SOL    HW273788   8.120   1.712  11.928
90631SOL     OW73789  14.741   7.704  12.913
90631SOL    HW173790  14.718   7.640  12.845
90631SOL    HW273791  14.699   7.670  12.992
90632SOL     OW73792  11.587   4.016  14.290
90632SOL    HW173793  11.570   3.991  14.381
90632SOL    HW273794  11.590   3.932  14.243
90633SOL     OW73795  11.498  13.420  13.617
90633SOL    HW173796  11.436  13.454  13.681
90633SOL    HW273797  11.457  13.440  13.532
90634SOL     OW73798   5.222  10.290   3.751
90634SOL    HW173799   5.133  10.281   3.715
90634SOL    HW273800   5.266  10.209   3.724
90635SOL     OW73801   5.245   9.708   1.684
90635SOL    HW173802   5.203   9.767   1.746
90635SOL    HW273803   5.328   9.685   1.726
90636SOL     OW73804   9.366   9.121  12.878
90636SOL    HW173805   9.306   9.052  12.849
90636SOL    HW273806   9.449   9.075  12.893
90637SOL     OW73807   6.223  14.815   1.317
90637SOL    HW173808   6.206   0.022   1.315
90637SOL    HW273809   6.316  14.807   1.296
90638SOL     OW73810   9.977   7.450   7.310
90638SOL    HW173811   9.984   7.506   7.388
90638SOL    HW273812   9.917   7.497   7.252
90639SOL     OW73813  10.331  10.658   2.623
90639SOL    HW173814  10.366  10.675   2.710
90639SOL    HW273815  10.244  10.696   2.624
90640SOL     OW73816   6.151   7.504   2.631
90640SOL    HW173817   6.132   7.565   2.703
90640SOL    HW273818   6.245   7.488   2.638
90641SOL     OW73819   8.081  10.394  13.319
90641SOL    HW173820   8.138  10.348  13.257
90641SOL    HW273821   7.999  10.407  13.272
90642SOL     OW73822   6.505   3.581   8.689
90642SOL    HW173823   6.489   3.487   8.693
90642SOL    HW273824   6.454   3.610   8.613
90643SOL     OW73825   0.736   2.094  14.158
90643SOL    HW173826   0.770   2.178  14.187
90643SOL    HW273827   0.646   2.112  14.131
90644SOL     OW73828  11.420  12.527  13.880
90644SOL    HW173829  11.405  12.556  13.970
90644SOL    HW273830  11.338  12.485  13.854
90645SOL     OW73831  11.434   5.936   5.980
90645SOL    HW173832  11.355   5.891   6.010
90645SOL    HW273833  11.502   5.907   6.041
90646SOL     OW73834  13.423  14.690  11.403
90646SOL    HW173835  13.368  14.752  11.451
90646SOL    HW273836  13.409  14.712  11.311
90647SOL     OW73837  10.349  10.669  11.659
90647SOL    HW173838  10.386  10.744  11.706
90647SOL    HW273839  10.398  10.666  11.576
90648SOL     OW73840   5.395   2.262  14.304
90648SOL    HW173841   5.476   2.227  14.267
90648SOL    HW273842   5.380   2.209  14.383
90649SOL     OW73843  10.430   7.992   6.160
90649SOL    HW173844  10.430   7.941   6.241
90649SOL    HW273845  10.347   8.041   6.163
90650SOL     OW73846   7.279   9.392   3.567
90650SOL    HW173847   7.207   9.455   3.565
90650SOL    HW273848   7.357   9.443   3.589
90651SOL     OW73849  11.751   3.782  11.674
90651SOL    HW173850  11.784   3.863  11.635
90651SOL    HW273851  11.681   3.811  11.733
90652SOL     OW73852   6.508   8.200   6.233
90652SOL    HW173853   6.472   8.258   6.300
90652SOL    HW273854   6.602   8.216   6.236
90653SOL     OW73855   4.102   6.662   5.072
90653SOL    HW173856   4.051   6.655   4.992
90653SOL    HW273857   4.062   6.735   5.120
90654SOL     OW73858   0.273   9.009   4.445
90654SOL    HW173859   0.258   9.085   4.390
90654SOL    HW273860   0.322   8.948   4.389
90655SOL     OW73861   2.462   3.590   0.966
90655SOL    HW173862   2.468   3.549   1.052
90655SOL    HW273863   2.544   3.568   0.922
90656SOL     OW73864   4.463   4.228  13.064
90656SOL    HW173865   4.420   4.299  13.111
90656SOL    HW273866   4.553   4.258  13.052
90657SOL     OW73867   1.986   3.126   1.324
90657SOL    HW173868   1.950   3.069   1.256
90657SOL    HW273869   2.077   3.142   1.297
90658SOL     OW73870   4.918   9.078   4.514
90658SOL    HW173871   4.902   9.172   4.512
90658SOL    HW273872   4.963   9.063   4.597
90659SOL     OW73873  12.728   8.144  10.702
90659SOL    HW173874  12.687   8.066  10.666
90659SOL    HW273875  12.816   8.144  10.663
90660SOL     OW73876  12.914   1.115   7.813
90660SOL    HW173877  12.946   1.065   7.738
90660SOL    HW273878  12.825   1.084   7.826
90661SOL     OW73879   5.198   7.658  14.096
90661SOL    HW173880   5.140   7.645  14.171
90661SOL    HW273881   5.163   7.598  14.029
90662SOL     OW73882  10.964  10.968   3.571
90662SOL    HW173883  10.872  10.944   3.587
90662SOL    HW273884  10.994  11.005   3.654
90663SOL     OW73885  13.065   4.867   9.766
90663SOL    HW173886  13.024   4.790   9.805
90663SOL    HW273887  13.051   4.857   9.672
90664SOL     OW73888   4.973   1.967   3.994
90664SOL    HW173889   4.923   2.017   4.058
90664SOL    HW273890   5.054   2.017   3.982
90665SOL     OW73891  13.680   0.660   8.140
90665SOL    HW173892  13.726   0.732   8.098
90665SOL    HW273893  13.687   0.587   8.078
90666SOL     OW73894   0.589  12.536   4.725
90666SOL    HW173895   0.496  12.521   4.742
90666SOL    HW273896   0.633  12.463   4.769
90667SOL     OW73897   2.688  11.468   6.476
90667SOL    HW173898   2.646  11.398   6.526
90667SOL    HW273899   2.769  11.485   6.523
90668SOL     OW73900  14.304   2.754   1.138
90668SOL    HW173901  14.278   2.662   1.148
90668SOL    HW273902  14.260   2.782   1.058
90669SOL     OW73903  14.007  10.975   4.164
90669SOL    HW173904  13.912  10.972   4.149
90669SOL    HW273905  14.045  10.988   4.078
90670SOL     OW73906   1.470  10.147   1.005
90670SOL    HW173907   1.400  10.195   0.961
90670SOL    HW273908   1.439  10.056   1.008
90671SOL     OW73909   5.745   6.917  14.566
90671SOL    HW173910   5.675   6.852  14.562
90671SOL    HW273911   5.714   6.987  14.508
90672SOL     OW73912   0.086  11.193  10.015
90672SOL    HW173913   0.122  11.281  10.005
90672SOL    HW273914  14.878  11.206  10.016
90673SOL     OW73915   3.018  10.390   6.267
90673SOL    HW173916   2.944  10.434   6.225
90673SOL    HW273917   3.081  10.460   6.286
90674SOL     OW73918  14.413   3.673   2.895
90674SOL    HW173919  14.400   3.601   2.956
90674SOL    HW273920  14.477   3.641   2.832
90675SOL     OW73921  14.792  11.665  13.689
90675SOL    HW173922  14.880  11.658  13.651
90675SOL    HW273923  14.757  11.747  13.654
90676SOL     OW73924   0.440  13.626  12.556
90676SOL    HW173925   0.370  13.666  12.505
90676SOL    HW273926   0.396  13.561  12.611
90677SOL     OW73927   7.565  12.541  10.895
90677SOL    HW173928   7.507  12.575  10.828
90677SOL    HW273929   7.582  12.616  10.952
90678SOL     OW73930   7.989   3.158   5.590
90678SOL    HW173931   7.985   3.125   5.680
90678SOL    HW273932   7.942   3.241   5.592
90679SOL     OW73933  12.688   3.743  13.354
90679SOL    HW173934  12.666   3.804  13.425
90679SOL    HW273935  12.604   3.702  13.332
90680SOL     OW73936   9.392   7.390  11.931
90680SOL    HW173937   9.441   7.472  11.927
90680SOL    HW273938   9.448   7.331  11.982
90681SOL     OW73939   2.906  13.884   1.598
90681SOL    HW173940   2.954  13.863   1.518
90681SOL    HW273941   2.814  13.875   1.574
90682SOL     OW73942  11.335  12.820   3.576
90682SOL    HW173943  11.357  12.816   3.669
90682SOL    HW273944  11.420  12.826   3.532
90683SOL     OW73945  11.986   3.292   4.354
90683SOL    HW173946  11.967   3.279   4.447
90683SOL    HW273947  11.908   3.260   4.309
90684SOL     OW73948   9.744   4.216  13.668
90684SOL    HW173949   9.708   4.288  13.720
90684SOL    HW273950   9.833   4.244  13.647
90685SOL     OW73951   2.356   5.781  11.455
90685SOL    HW173952   2.336   5.743  11.370
90685SOL    HW273953   2.437   5.830  11.441
90686SOL     OW73954   4.757   9.606   3.154
90686SOL    HW173955   4.729   9.585   3.243
90686SOL    HW273956   4.688   9.570   3.098
90687SOL     OW73957   3.999  11.068  13.045
90687SOL    HW173958   4.031  10.994  12.993
90687SOL    HW273959   4.018  11.044  13.136
90688SOL     OW73960  11.129  10.262  12.642
90688SOL    HW173961  11.147  10.221  12.727
90688SOL    HW273962  11.155  10.196  12.578
90689SOL     OW73963   2.230   3.020  14.402
90689SOL    HW173964   2.192   3.051  14.320
90689SOL    HW273965   2.266   3.098  14.443
90690SOL     OW73966   5.950   0.016  14.878
90690SOL    HW173967   6.038   0.034   0.023
90690SOL    HW273968   5.900   0.094   0.013
90691SOL     OW73969   7.570  11.652   5.125
90691SOL    HW173970   7.603  11.624   5.039
90691SOL    HW273971   7.640  11.626   5.186
90692SOL     OW73972   1.965   7.262  12.875
90692SOL    HW173973   1.936   7.232  12.961
90692SOL    HW273974   2.046   7.310  12.893
90693SOL     OW73975   1.382   7.864   0.901
90693SOL    HW173976   1.322   7.906   0.964
90693SOL    HW273977   1.469   7.891   0.930
90694SOL     OW73978   1.117   3.445  10.573
90694SOL    HW173979   1.117   3.495  10.655
90694SOL    HW273980   1.039   3.391  10.577
90695SOL     OW73981   2.781  11.223  12.264
90695SOL    HW173982   2.865  11.232  12.310
90695SOL    HW273983   2.728  11.168  12.322
90696SOL     OW73984  10.384  11.054   1.672
90696SOL    HW173985  10.466  11.009   1.692
90696SOL    HW273986  10.394  11.082   1.581
90697SOL     OW73987  12.197  10.856   4.430
90697SOL    HW173988  12.153  10.813   4.503
90697SOL    HW273989  12.192  10.793   4.358
90698SOL     OW73990   1.320  12.928  13.883
90698SOL    HW173991   1.390  12.994  13.884
90698SOL    HW273992   1.364  12.847  13.858
90699SOL     OW73993   4.259   3.089  12.868
90699SOL    HW173994   4.272   3.176  12.831
90699SOL    HW273995   4.347   3.061  12.894
90700SOL     OW73996  11.672   6.397  11.906
90700SOL    HW173997  11.620   6.435  11.835
90700SOL    HW273998  11.762   6.424  11.887
90701SOL     OW73999  11.400  10.054   1.407
90701SOL    HW174000  11.397  10.019   1.496
90701SOL    HW274001  11.467  10.001   1.362
90702SOL     OW74002   6.718  12.505   0.098
90702SOL    HW174003   6.657  12.576   0.080
90702SOL    HW274004   6.674  12.426   0.066
90703SOL     OW74005   8.312   1.093   7.065
90703SOL    HW174006   8.335   1.172   7.016
90703SOL    HW274007   8.216   1.091   7.062
90704SOL     OW74008  11.307   6.200   1.300
90704SOL    HW174009  11.330   6.236   1.386
90704SOL    HW274010  11.231   6.252   1.272
90705SOL     OW74011   8.238   4.450   8.835
90705SOL    HW174012   8.161   4.407   8.798
90705SOL    HW274013   8.211   4.542   8.847
90706SOL     OW74014   6.907  12.785  11.342
90706SOL    HW174015   6.836  12.835  11.382
90706SOL    HW274016   6.887  12.784  11.249
90707SOL     OW74017   8.949  13.574  13.311
90707SOL    HW174018   8.994  13.502  13.267
90707SOL    HW274019   8.969  13.651  13.257
90708SOL     OW74020  14.112   5.713   0.686
90708SOL    HW174021  14.189   5.681   0.639
90708SOL    HW274022  14.099   5.802   0.652
90709SOL     OW74023   8.701  14.108   2.505
90709SOL    HW174024   8.747  14.158   2.572
90709SOL    HW274025   8.759  14.035   2.485
90710SOL     OW74026   2.779  10.013   0.580
90710SOL    HW174027   2.693  10.012   0.624
90710SOL    HW274028   2.800  10.107   0.573
90711SOL     OW74029  13.984   9.545   2.310
90711SOL    HW174030  13.920   9.475   2.296
90711SOL    HW274031  13.953   9.591   2.388
90712SOL     OW74032  14.047   9.324   4.771
90712SOL    HW174033  13.953   9.337   4.762
90712SOL    HW274034  14.067   9.255   4.707
90713SOL     OW74035   4.967   4.236   9.544
90713SOL    HW174036   4.981   4.320   9.587
90713SOL    HW274037   4.951   4.174   9.615
90714SOL     OW74038  14.649   7.415   7.653
90714SOL    HW174039  14.558   7.430   7.626
90714SOL    HW274040  14.660   7.471   7.730
90715SOL     OW74041   6.967   7.726  10.425
90715SOL    HW174042   7.000   7.804  10.469
90715SOL    HW274043   6.886   7.703  10.472
90716SOL     OW74044  12.441   4.866   5.189
90716SOL    HW174045  12.362   4.871   5.136
90716SOL    HW274046  12.512   4.861   5.124
90717SOL     OW74047   7.293   8.361   5.095
90717SOL    HW174048   7.352   8.290   5.070
90717SOL    HW274049   7.343   8.441   5.079
90718SOL     OW74050   0.575   5.508   9.959
90718SOL    HW174051   0.506   5.462   9.912
90718SOL    HW274052   0.650   5.507   9.899
90719SOL     OW74053   4.693  13.701   7.562
90719SOL    HW174054   4.632  13.675   7.494
90719SOL    HW274055   4.734  13.619   7.591
90720SOL     OW74056   3.164  13.909   3.111
90720SOL    HW174057   3.168  13.819   3.144
90720SOL    HW274058   3.252  13.926   3.078
90721SOL     OW74059   4.764   0.694   9.522
90721SOL    HW174060   4.715   0.629   9.473
90721SOL    HW274061   4.749   0.672   9.613
90722SOL     OW74062   8.772   4.575   4.970
90722SOL    HW174063   8.712   4.620   5.030
90722SOL    HW274064   8.834   4.530   5.027
90723SOL     OW74065   8.757  11.757   2.873
90723SOL    HW174066   8.773  11.665   2.852
90723SOL    HW274067   8.810  11.773   2.951
90724SOL     OW74068   7.914   7.942   8.836
90724SOL    HW174069   8.010   7.941   8.838
90724SOL    HW274070   7.892   7.986   8.754
90725SOL     OW74071   6.373   9.966  10.511
90725SOL    HW174072   6.431   9.934  10.581
90725SOL    HW274073   6.287   9.976  10.554
90726SOL     OW74074   9.330  13.519   8.318
90726SOL    HW174075   9.295  13.475   8.395
90726SOL    HW274076   9.320  13.612   8.337
90727SOL     OW74077   4.993   9.734   1.515
90727SOL    HW174078   5.001   9.661   1.577
90727SOL    HW274079   4.946   9.697   1.440
90728SOL     OW74080   3.386   8.785   0.236
90728SOL    HW174081   3.409   8.876   0.223
90728SOL    HW274082   3.325   8.786   0.310
90729SOL     OW74083   6.169   6.602   1.215
90729SOL    HW174084   6.112   6.566   1.283
90729SOL    HW274085   6.120   6.676   1.179
90730SOL     OW74086   5.234  10.516   6.363
90730SOL    HW174087   5.269  10.520   6.452
90730SOL    HW274088   5.235  10.607   6.333
90731SOL     OW74089  13.737   4.112   6.093
90731SOL    HW174090  13.708   4.022   6.080
90731SOL    HW274091  13.696   4.161   6.022
90732SOL     OW74092  14.556   0.147  14.551
90732SOL    HW174093  14.587   0.220  14.499
90732SOL    HW274094  14.463   0.166  14.568
90733SOL     OW74095  10.259   2.346   6.388
90733SOL    HW174096  10.191   2.374   6.449
90733SOL    HW274097  10.242   2.397   6.308
90734SOL     OW74098  10.125   2.742   0.131
90734SOL    HW174099  10.068   2.667   0.148
90734SOL    HW274100  10.141   2.739   0.036
90735SOL     OW74101   8.682   6.563   0.785
90735SOL    HW174102   8.768   6.600   0.807
90735SOL    HW274103   8.622   6.606   0.846
90736SOL     OW74104  11.090   3.794  13.572
90736SOL    HW174105  11.105   3.700  13.581
90736SOL    HW274106  11.008   3.801  13.524
90737SOL     OW74107   7.922  12.916  14.665
90737SOL    HW174108   7.864  12.990  14.647
90737SOL    HW274109   7.870  12.839  14.642
90738SOL     OW74110   5.296  10.489  14.012
90738SOL    HW174111   5.387  10.484  14.040
90738SOL    HW274112   5.262  10.401  14.025
90739SOL     OW74113   3.302  10.168   3.083
90739SOL    HW174114   3.358  10.143   3.156
90739SOL    HW274115   3.354  10.232   3.034
90740SOL     OW74116  11.086  11.870  10.923
90740SOL    HW174117  11.041  11.822  10.992
90740SOL    HW274118  11.177  11.874  10.952
90741SOL     OW74119  12.562   2.991   9.926
90741SOL    HW174120  12.597   2.906   9.899
90741SOL    HW274121  12.587   2.999  10.018
90742SOL     OW74122  10.658   2.198   2.397
90742SOL    HW174123  10.687   2.135   2.463
90742SOL    HW274124  10.563   2.199   2.405
90743SOL     OW74125   4.536   7.163  13.728
90743SOL    HW174126   4.528   7.139  13.635
90743SOL    HW274127   4.508   7.254  13.732
90744SOL     OW74128   2.604   5.956  12.458
90744SOL    HW174129   2.611   5.901  12.380
90744SOL    HW274130   2.647   6.038  12.433
90745SOL     OW74131   2.420  10.519   5.776
90745SOL    HW174132   2.396  10.584   5.842
90745SOL    HW274133   2.391  10.558   5.693
90746SOL     OW74134   8.887   3.002   8.956
90746SOL    HW174135   8.938   3.013   8.875
90746SOL    HW274136   8.935   3.053   9.021
90747SOL     OW74137   8.961   8.816  11.676
90747SOL    HW174138   8.988   8.902  11.644
90747SOL    HW274139   9.044   8.770  11.692
90748SOL     OW74140   3.157   5.255  13.856
90748SOL    HW174141   3.103   5.329  13.883
90748SOL    HW274142   3.095   5.183  13.846
90749SOL     OW74143   4.234   6.373   3.187
90749SOL    HW174144   4.270   6.439   3.245
90749SOL    HW274145   4.277   6.291   3.214
90750SOL     OW74146   8.335   6.714  10.725
90750SOL    HW174147   8.313   6.684  10.814
90750SOL    HW274148   8.403   6.653  10.695
90751SOL     OW74149  11.622   8.019  11.676
90751SOL    HW174150  11.587   8.090  11.622
90751SOL    HW274151  11.598   7.939  11.629
90752SOL     OW74152  11.136  13.296   5.048
90752SOL    HW174153  11.123  13.367   5.112
90752SOL    HW274154  11.210  13.326   4.995
90753SOL     OW74155   5.337   4.810   6.574
90753SOL    HW174156   5.372   4.861   6.648
90753SOL    HW274157   5.383   4.726   6.578
90754SOL     OW74158  12.512   4.186  11.070
90754SOL    HW174159  12.573   4.121  11.106
90754SOL    HW274160  12.518   4.174  10.975
90755SOL     OW74161   1.425   6.597  10.912
90755SOL    HW174162   1.492   6.529  10.923
90755SOL    HW274163   1.418   6.636  10.999
90756SOL     OW74164   5.745  12.512  10.990
90756SOL    HW174165   5.749  12.593  11.041
90756SOL    HW274166   5.667  12.467  11.023
90757SOL     OW74167   9.921  13.670  12.579
90757SOL    HW174168   9.960  13.727  12.513
90757SOL    HW274169   9.957  13.583  12.560
90758SOL     OW74170   6.424   0.608   5.776
90758SOL    HW174171   6.437   0.687   5.827
90758SOL    HW274172   6.373   0.636   5.700
90759SOL     OW74173   2.439  11.093  10.424
90759SOL    HW174174   2.357  11.131  10.392
90759SOL    HW274175   2.442  11.006  10.386
90760SOL     OW74176  12.559   8.659   8.279
90760SOL    HW174177  12.477   8.611   8.265
90760SOL    HW274178  12.615   8.597   8.325
90761SOL     OW74179   6.685   6.694   9.970
90761SOL    HW174180   6.695   6.657   9.882
90761SOL    HW274181   6.628   6.771   9.958
90762SOL     OW74182   6.280   7.822  13.670
90762SOL    HW174183   6.211   7.840  13.733
90762SOL    HW274184   6.354   7.790  13.722
90763SOL     OW74185   6.008  12.245   5.831
90763SOL    HW174186   6.092  12.257   5.874
90763SOL    HW274187   5.947  12.225   5.901
90764SOL     OW74188  10.448   3.933   5.542
90764SOL    HW174189  10.376   3.942   5.604
90764SOL    HW274190  10.443   3.842   5.512
90765SOL     OW74191   1.829   0.571   4.813
90765SOL    HW174192   1.872   0.656   4.827
90765SOL    HW274193   1.837   0.526   4.897
90766SOL     OW74194   2.744  13.076   7.258
90766SOL    HW174195   2.802  13.152   7.264
90766SOL    HW274196   2.800  13.002   7.284
90767SOL     OW74197   5.114  14.373  12.522
90767SOL    HW174198   5.041  14.344  12.468
90767SOL    HW274199   5.104  14.325  12.605
90768SOL     OW74200   6.756   1.683   0.308
90768SOL    HW174201   6.686   1.679   0.242
90768SOL    HW274202   6.836   1.693   0.257
90769SOL     OW74203   0.605   7.732   7.671
90769SOL    HW174204   0.571   7.820   7.686
90769SOL    HW274205   0.550   7.675   7.724
90770SOL     OW74206   1.987   2.054   2.389
90770SOL    HW174207   1.990   2.148   2.402
90770SOL    HW274208   1.968   2.018   2.476
90771SOL     OW74209  13.523   6.842  11.809
90771SOL    HW174210  13.584   6.780  11.768
90771SOL    HW274211  13.470   6.789  11.868
90772SOL     OW74212  10.693   8.973   0.528
90772SOL    HW174213  10.745   8.901   0.495
90772SOL    HW274214  10.625   8.931   0.581
90773SOL     OW74215   1.660  13.730  13.005
90773SOL    HW174216   1.650  13.637  12.984
90773SOL    HW274217   1.576  13.769  12.980
90774SOL     OW74218   1.004   8.832   6.984
90774SOL    HW174219   1.033   8.893   6.916
90774SOL    HW274220   1.079   8.823   7.043
90775SOL     OW74221   3.670  11.116   1.357
90775SOL    HW174222   3.728  11.041   1.371
90775SOL    HW274223   3.726  11.192   1.368
90776SOL     OW74224   2.240  10.929  14.254
90776SOL    HW174225   2.145  10.919  14.250
90776SOL    HW274226   2.260  10.990  14.183
90777SOL     OW74227  14.799  13.696  11.326
90777SOL    HW174228  14.772  13.788  11.318
90777SOL    HW274229  14.740  13.648  11.268
90778SOL     OW74230   0.222   5.580  12.716
90778SOL    HW174231   0.308   5.579  12.675
90778SOL    HW274232   0.205   5.488  12.740
90779SOL     OW74233  13.963   4.572   2.125
90779SOL    HW174234  13.906   4.497   2.138
90779SOL    HW274235  14.034   4.559   2.189
90780SOL     OW74236   4.536  11.808   9.466
90780SOL    HW174237   4.593  11.874   9.507
90780SOL    HW274238   4.577  11.725   9.489
90781SOL     OW74239   5.414   8.012   5.490
90781SOL    HW174240   5.400   7.934   5.435
90781SOL    HW274241   5.426   8.083   5.427
90782SOL     OW74242   0.974  10.499   3.167
90782SOL    HW174243   0.923  10.450   3.232
90782SOL    HW274244   0.910  10.525   3.101
90783SOL     OW74245  14.151  13.890   4.697
90783SOL    HW174246  14.062  13.903   4.732
90783SOL    HW274247  14.204  13.955   4.743
90784SOL     OW74248   7.136  12.468   9.862
90784SOL    HW174249   7.173  12.433   9.781
90784SOL    HW274250   7.042  12.453   9.855
90785SOL     OW74251   9.094   1.151   9.789
90785SOL    HW174252   9.141   1.129   9.708
90785SOL    HW274253   9.106   1.245   9.798
90786SOL     OW74254  14.500   6.899   2.111
90786SOL    HW174255  14.587   6.866   2.089
90786SOL    HW274256  14.499   6.988   2.076
90787SOL     OW74257   2.481   5.649   4.105
90787SOL    HW174258   2.448   5.563   4.078
90787SOL    HW274259   2.555   5.666   4.047
90788SOL     OW74260  13.153   6.434   3.560
90788SOL    HW174261  13.069   6.468   3.589
90788SOL    HW274262  13.186   6.384   3.636
90789SOL     OW74263   9.699   7.315  14.347
90789SOL    HW174264   9.749   7.253  14.295
90789SOL    HW274265   9.666   7.379  14.284
90790SOL     OW74266   9.150  14.501   8.454
90790SOL    HW174267   9.095  14.564   8.501
90790SOL    HW274268   9.200  14.554   8.391
90791SOL     OW74269  13.766   9.663   0.888
90791SOL    HW174270  13.773   9.749   0.929
90791SOL    HW274271  13.701   9.676   0.818
90792SOL     OW74272   9.763  14.626  14.717
90792SOL    HW174273   9.801  14.626  14.805
90792SOL    HW274274   9.672  14.653  14.731
90793SOL     OW74275   6.655  10.411   1.983
90793SOL    HW174276   6.647  10.412   1.888
90793SOL    HW274277   6.639  10.320   2.008
90794SOL     OW74278   8.609   3.793   4.615
90794SOL    HW174279   8.564   3.872   4.584
90794SOL    HW274280   8.680   3.825   4.671
90795SOL     OW74281   1.984   6.335   2.912
90795SOL    HW174282   1.944   6.353   2.827
90795SOL    HW274283   2.065   6.288   2.892
90796SOL     OW74284   7.038   3.163   1.555
90796SOL    HW174285   7.119   3.200   1.519
90796SOL    HW274286   7.049   3.170   1.650
90797SOL     OW74287  12.165  12.699  13.400
90797SOL    HW174288  12.224  12.665  13.467
90797SOL    HW274289  12.173  12.637  13.327
90798SOL     OW74290  10.484   6.132   3.850
90798SOL    HW174291  10.488   6.041   3.823
90798SOL    HW274292  10.569   6.168   3.827
90799SOL     OW74293  14.366  11.936  13.956
90799SOL    HW174294  14.387  11.857  14.006
90799SOL    HW274295  14.413  11.926  13.873
90800SOL     OW74296   6.475  12.223   1.386
90800SOL    HW174297   6.402  12.276   1.354
90800SOL    HW274298   6.477  12.239   1.480
90801SOL     OW74299   6.145   8.896   1.682
90801SOL    HW174300   6.208   8.863   1.746
90801SOL    HW274301   6.068   8.920   1.733
90802SOL     OW74302   8.989   7.517   1.368
90802SOL    HW174303   8.946   7.573   1.432
90802SOL    HW274304   9.031   7.448   1.421
90803SOL     OW74305  11.622   3.749  11.330
90803SOL    HW174306  11.693   3.685  11.325
90803SOL    HW274307  11.656   3.827  11.287
90804SOL     OW74308   5.662   3.894   1.176
90804SOL    HW174309   5.640   3.811   1.218
90804SOL    HW274310   5.693   3.950   1.248
90805SOL     OW74311   9.360  13.657  14.483
90805SOL    HW174312   9.408  13.663  14.566
90805SOL    HW274313   9.388  13.734  14.433
90806SOL     OW74314   1.951   9.627   3.688
90806SOL    HW174315   1.967   9.630   3.593
90806SOL    HW274316   2.016   9.565   3.721
90807SOL     OW74317   6.032  10.836  14.056
90807SOL    HW174318   5.989  10.884  13.985
90807SOL    HW274319   5.993  10.749  14.054
90808SOL     OW74320   6.631   1.433   5.465
90808SOL    HW174321   6.647   1.378   5.542
90808SOL    HW274322   6.579   1.378   5.407
90809SOL     OW74323   0.297  11.906   1.476
90809SOL    HW174324   0.256  11.860   1.403
90809SOL    HW274325   0.320  11.992   1.441
90810SOL     OW74326   3.419  11.534  14.740
90810SOL    HW174327   3.370  11.544  14.822
90810SOL    HW274328   3.353  11.518  14.674
90811SOL     OW74329   5.415   6.009   3.438
90811SOL    HW174330   5.405   6.089   3.386
90811SOL    HW274331   5.482   5.959   3.392
90812SOL     OW74332  14.591   9.723   8.040
90812SOL    HW174333  14.665   9.766   8.082
90812SOL    HW274334  14.624   9.637   8.015
90813SOL     OW74335  13.302   3.774   1.454
90813SOL    HW174336  13.303   3.737   1.542
90813SOL    HW274337  13.233   3.840   1.457
90814SOL     OW74338   2.856   3.327   6.710
90814SOL    HW174339   2.826   3.407   6.754
90814SOL    HW274340   2.886   3.271   6.781
90815SOL     OW74341   7.415   6.102   4.724
90815SOL    HW174342   7.463   6.043   4.783
90815SOL    HW274343   7.381   6.045   4.655
90816SOL     OW74344   7.965   0.330  12.604
90816SOL    HW174345   7.952   0.253  12.660
90816SOL    HW274346   7.895   0.390  12.629
90817SOL     OW74347  13.652  13.568   8.867
90817SOL    HW174348  13.663  13.474   8.883
90817SOL    HW274349  13.643  13.575   8.772
90818SOL     OW74350   8.948   4.309  12.539
90818SOL    HW174351   8.907   4.269  12.616
90818SOL    HW274352   8.888   4.291  12.468
90819SOL     OW74353   2.225   6.369   6.491
90819SOL    HW174354   2.265   6.325   6.566
90819SOL    HW274355   2.218   6.300   6.424
90820SOL     OW74356   1.255   0.859  10.224
90820SOL    HW174357   1.263   0.829  10.133
90820SOL    HW274358   1.168   0.898  10.229
90821SOL     OW74359   8.892   0.046   8.663
90821SOL    HW174360   8.984   0.071   8.673
90821SOL    HW274361   8.850   0.075   8.744
90822SOL     OW74362   9.810   2.456  11.856
90822SOL    HW174363   9.874   2.484  11.790
90822SOL    HW274364   9.859   2.457  11.939
90823SOL     OW74365  11.706   6.879   2.363
90823SOL    HW174366  11.722   6.973   2.376
90823SOL    HW274367  11.646   6.876   2.288
90824SOL     OW74368   5.409   0.690   3.913
90824SOL    HW174369   5.400   0.729   4.000
90824SOL    HW274370   5.376   0.601   3.922
90825SOL     OW74371  10.137   1.875   2.687
90825SOL    HW174372  10.149   1.954   2.634
90825SOL    HW274373  10.176   1.805   2.635
90826SOL     OW74374  10.411   7.438  12.337
90826SOL    HW174375  10.450   7.358  12.304
90826SOL    HW274376  10.317   7.427  12.324
90827SOL     OW74377   0.869   9.756  11.542
90827SOL    HW174378   0.791   9.811  11.539
90827SOL    HW274379   0.929   9.803  11.600
90828SOL     OW74380  10.127  12.245   6.925
90828SOL    HW174381  10.104  12.153   6.913
90828SOL    HW274382  10.131  12.256   7.020
90829SOL     OW74383   5.588   8.801  11.094
90829SOL    HW174384   5.567   8.709  11.079
90829SOL    HW274385   5.567   8.815  11.187
90830SOL     OW74386   9.430  10.403   6.861
90830SOL    HW174387   9.351  10.395   6.807
90830SOL    HW274388   9.437  10.320   6.907
90831SOL     OW74389   1.023   2.175   3.372
90831SOL    HW174390   1.002   2.147   3.461
90831SOL    HW274391   1.104   2.128   3.351
90832SOL     OW74392   4.422  11.907   1.519
90832SOL    HW174393   4.502  11.914   1.466
90832SOL    HW274394   4.366  11.848   1.469
90833SOL     OW74395   5.818   1.704  11.442
90833SOL    HW174396   5.788   1.615  11.460
90833SOL    HW274397   5.867   1.729  11.521
90834SOL     OW74398   2.978   7.193   9.200
90834SOL    HW174399   2.918   7.150   9.261
90834SOL    HW274400   3.034   7.248   9.256
90835SOL     OW74401  12.701  13.128   4.135
90835SOL    HW174402  12.629  13.078   4.097
90835SOL    HW274403  12.778  13.105   4.082
90836SOL     OW74404   5.884   1.038   0.612
90836SOL    HW174405   5.880   1.098   0.538
90836SOL    HW274406   5.795   1.003   0.619
90837SOL     OW74407  13.841   6.805   6.577
90837SOL    HW174408  13.881   6.734   6.628
90837SOL    HW274409  13.902   6.878   6.587
90838SOL     OW74410   6.233   4.940  12.306
90838SOL    HW174411   6.269   4.859  12.270
90838SOL    HW274412   6.250   5.006  12.239
90839SOL     OW74413  12.495   5.573   8.444
90839SOL    HW174414  12.503   5.563   8.539
90839SOL    HW274415  12.421   5.634   8.433
90840SOL     OW74416   0.269   0.622   4.494
90840SOL    HW174417   0.257   0.535   4.531
90840SOL    HW274418   0.351   0.617   4.446
90841SOL     OW74419   8.923   5.221   2.087
90841SOL    HW174420   8.975   5.141   2.084
90841SOL    HW274421   8.987   5.291   2.079
90842SOL     OW74422  12.268  14.002   7.748
90842SOL    HW174423  12.256  14.090   7.783
90842SOL    HW274424  12.181  13.977   7.716
90843SOL     OW74425  10.778   7.699   0.429
90843SOL    HW174426  10.726   7.668   0.504
90843SOL    HW274427  10.788   7.622   0.373
90844SOL     OW74428   4.157   0.809   3.413
90844SOL    HW174429   4.243   0.768   3.402
90844SOL    HW274430   4.145   0.860   3.333
90845SOL     OW74431  11.782   2.823   5.299
90845SOL    HW174432  11.829   2.829   5.215
90845SOL    HW274433  11.755   2.913   5.316
90846SOL     OW74434   2.644   9.048   6.548
90846SOL    HW174435   2.550   9.053   6.531
90846SOL    HW274436   2.651   8.991   6.625
90847SOL     OW74437   1.043  12.894  14.723
90847SOL    HW174438   1.076  12.916  14.635
90847SOL    HW274439   1.072  12.804  14.737
90848SOL     OW74440   2.576   9.878   8.122
90848SOL    HW174441   2.557   9.970   8.140
90848SOL    HW274442   2.590   9.839   8.209
90849SOL     OW74443   1.724   6.261   6.879
90849SOL    HW174444   1.720   6.330   6.812
90849SOL    HW274445   1.634   6.251   6.909
90850SOL     OW74446  13.359   5.941   7.777
90850SOL    HW174447  13.350   5.871   7.841
90850SOL    HW274448  13.451   5.939   7.752
90851SOL     OW74449   6.888   1.103  13.663
90851SOL    HW174450   6.846   1.099  13.750
90851SOL    HW274451   6.845   1.033  13.614
90852SOL     OW74452  10.045  13.363   1.256
90852SOL    HW174453  10.067  13.273   1.279
90852SOL    HW274454   9.951  13.370   1.276
90853SOL     OW74455  12.584   3.630   0.650
90853SOL    HW174456  12.560   3.619   0.558
90853SOL    HW274457  12.575   3.724   0.666
90854SOL     OW74458   4.532   6.570   3.785
90854SOL    HW174459   4.525   6.510   3.859
90854SOL    HW274460   4.459   6.631   3.797
90855SOL     OW74461   3.765   6.016   8.302
90855SOL    HW174462   3.825   5.941   8.298
90855SOL    HW274463   3.805   6.074   8.367
90856SOL     OW74464  10.167  11.148  10.215
90856SOL    HW174465  10.196  11.233  10.183
90856SOL    HW274466  10.231  11.123  10.281
90857SOL     OW74467   2.219   8.863  13.304
90857SOL    HW174468   2.250   8.810  13.378
90857SOL    HW274469   2.153   8.921  13.343
90858SOL     OW74470   3.413  10.764   0.083
90858SOL    HW174471   3.333  10.781   0.034
90858SOL    HW274472   3.408  10.823   0.158
90859SOL     OW74473  13.354   2.768  12.520
90859SOL    HW174474  13.385   2.859  12.524
90859SOL    HW274475  13.367   2.743  12.428
90860SOL     OW74476   8.528   9.306  10.373
90860SOL    HW174477   8.577   9.234  10.333
90860SOL    HW274478   8.467   9.336  10.305
90861SOL     OW74479  14.252   3.289   0.938
90861SOL    HW174480  14.288   3.215   0.889
90861SOL    HW274481  14.210   3.343   0.872
90862SOL     OW74482  12.655   4.005   9.221
90862SOL    HW174483  12.717   4.078   9.228
90862SOL    HW274484  12.585   4.038   9.166
90863SOL     OW74485   5.753   1.131   4.647
90863SOL    HW174486   5.677   1.187   4.630
90863SOL    HW274487   5.716   1.043   4.658
90864SOL     OW74488   5.297   7.569  13.748
90864SOL    HW174489   5.331   7.654  13.777
90864SOL    HW274490   5.251   7.589  13.666
90865SOL     OW74491   8.409   4.061   5.037
90865SOL    HW174492   8.354   4.125   5.083
90865SOL    HW274493   8.463   4.022   5.105
90866SOL     OW74494   6.928   3.344   4.129
90866SOL    HW174495   6.924   3.290   4.208
90866SOL    HW274496   6.857   3.408   4.140
90867SOL     OW74497   6.447  10.548   7.469
90867SOL    HW174498   6.441  10.455   7.492
90867SOL    HW274499   6.357  10.580   7.479
90868SOL     OW74500   2.862   4.949  10.214
90868SOL    HW174501   2.829   4.859  10.217
90868SOL    HW274502   2.855   4.974  10.122
90869SOL     OW74503   3.694   9.916   5.138
90869SOL    HW174504   3.772   9.875   5.176
90869SOL    HW274505   3.684   9.874   5.053
90870SOL     OW74506  11.663  11.470   5.762
90870SOL    HW174507  11.628  11.417   5.691
90870SOL    HW274508  11.609  11.549   5.762
90871SOL     OW74509   8.146   2.363   9.022
90871SOL    HW174510   8.174   2.276   8.994
90871SOL    HW274511   8.190   2.377   9.106
90872SOL     OW74512   8.823  13.152   7.487
90872SOL    HW174513   8.842  13.108   7.570
90872SOL    HW274514   8.796  13.081   7.429
90873SOL     OW74515   3.599  12.914  13.200
90873SOL    HW174516   3.535  12.934  13.132
90873SOL    HW274517   3.547  12.871  13.269
90874SOL     OW74518  14.289   8.893   2.195
90874SOL    HW174519  14.214   8.909   2.137
90874SOL    HW274520  14.343   8.831   2.146
90875SOL     OW74521   4.241  13.545  13.011
90875SOL    HW174522   4.238  13.468  12.954
90875SOL    HW274523   4.156  13.589  12.997
90876SOL     OW74524  14.743  10.281  14.109
90876SOL    HW174525  14.744  10.187  14.088
90876SOL    HW274526  14.660  10.294  14.154
90877SOL     OW74527   4.847   2.096  13.651
90877SOL    HW174528   4.942   2.086  13.645
90877SOL    HW274529   4.827   2.076  13.743
90878SOL     OW74530   2.447  14.422   8.000
90878SOL    HW174531   2.540  14.428   8.020
90878SOL    HW274532   2.402  14.446   8.081
90879SOL     OW74533  13.656   9.806   7.788
90879SOL    HW174534  13.720   9.756   7.738
90879SOL    HW274535  13.608   9.857   7.722
90880SOL     OW74536  10.970  12.821   3.924
90880SOL    HW174537  10.879  12.838   3.902
90880SOL    HW274538  11.011  12.908   3.922
90881SOL     OW74539  12.828   0.032   3.868
90881SOL    HW174540  12.887   0.103   3.842
90881SOL    HW274541  12.757   0.036   3.803
90882SOL     OW74542   8.379   4.168   7.609
90882SOL    HW174543   8.356   4.260   7.601
90882SOL    HW274544   8.301   4.126   7.644
90883SOL     OW74545   1.354  13.049   8.287
90883SOL    HW174546   1.345  13.039   8.382
90883SOL    HW274547   1.384  12.964   8.257
90884SOL     OW74548   5.981  12.585  13.725
90884SOL    HW174549   6.045  12.655  13.734
90884SOL    HW274550   5.971  12.573  13.631
90885SOL     OW74551   3.541   1.738   3.395
90885SOL    HW174552   3.482   1.687   3.450
90885SOL    HW274553   3.482   1.793   3.342
90886SOL     OW74554   4.092  11.532   2.841
90886SOL    HW174555   4.056  11.466   2.783
90886SOL    HW274556   4.080  11.615   2.795
90887SOL     OW74557  14.145   4.115   0.102
90887SOL    HW174558  14.207   4.047   0.073
90887SOL    HW274559  14.181   4.146   0.186
90888SOL     OW74560   9.289  12.091  12.083
90888SOL    HW174561   9.245  12.056  12.005
90888SOL    HW274562   9.342  12.164  12.050
90889SOL     OW74563  11.156   3.363   8.884
90889SOL    HW174564  11.068   3.373   8.921
90889SOL    HW274565  11.151   3.406   8.799
90890SOL     OW74566   2.824   5.245   0.448
90890SOL    HW174567   2.859   5.157   0.461
90890SOL    HW274568   2.829   5.259   0.353
90891SOL     OW74569  11.819  13.286   4.253
90891SOL    HW174570  11.841  13.360   4.310
90891SOL    HW274571  11.885  13.289   4.184
90892SOL     OW74572   6.025   4.828  13.195
90892SOL    HW174573   6.029   4.733  13.189
90892SOL    HW274574   6.099   4.851  13.252
90893SOL     OW74575   0.980  14.442   3.221
90893SOL    HW174576   1.074  14.424   3.226
90893SOL    HW274577   0.968  14.480   3.134
90894SOL     OW74578  13.741  14.877   6.904
90894SOL    HW174579  13.668  14.836   6.859
90894SOL    HW274580  13.709   0.007   6.992
90895SOL     OW74581   1.348   3.463   2.860
90895SOL    HW174582   1.343   3.385   2.806
90895SOL    HW274583   1.435   3.499   2.842
90896SOL     OW74584  13.477  11.584   5.283
90896SOL    HW174585  13.544  11.614   5.222
90896SOL    HW274586  13.395  11.592   5.235
90897SOL     OW74587   8.924   0.289   1.021
90897SOL    HW174588   8.933   0.203   0.981
90897SOL    HW274589   9.012   0.312   1.050
90898SOL     OW74590   0.890   6.322  13.231
90898SOL    HW174591   0.961   6.386  13.239
90898SOL    HW274592   0.825   6.352  13.295
90899SOL     OW74593   5.661   1.813  13.710
90899SOL    HW174594   5.700   1.898  13.692
90899SOL    HW274595   5.645   1.776  13.623
90900SOL     OW74596   9.678  10.840   8.496
90900SOL    HW174597   9.753  10.852   8.438
90900SOL    HW274598   9.706  10.772   8.558
90901SOL     OW74599   5.193  12.198   7.390
90901SOL    HW174600   5.165  12.280   7.349
90901SOL    HW274601   5.288  12.206   7.396
90902SOL     OW74602  12.984   2.133   2.492
90902SOL    HW174603  12.933   2.214   2.492
90902SOL    HW274604  13.002   2.117   2.399
90903SOL     OW74605   7.409  14.174  11.407
90903SOL    HW174606   7.475  14.115  11.443
90903SOL    HW274607   7.336  14.169  11.470
90904SOL     OW74608   0.495   5.983   9.411
90904SOL    HW174609   0.531   5.981   9.500
90904SOL    HW274610   0.401   5.976   9.423
90905SOL     OW74611   0.807   5.877   3.228
90905SOL    HW174612   0.800   5.926   3.310
90905SOL    HW274613   0.826   5.942   3.161
90906SOL     OW74614  12.731   7.674   4.933
90906SOL    HW174615  12.661   7.712   4.986
90906SOL    HW274616  12.724   7.580   4.947
90907SOL     OW74617   1.012   2.721  13.138
90907SOL    HW174618   1.066   2.752  13.211
90907SOL    HW274619   0.923   2.744  13.163
90908SOL     OW74620  10.263  11.438   8.794
90908SOL    HW174621  10.180  11.476   8.824
90908SOL    HW274622  10.277  11.363   8.852
90909SOL     OW74623  10.147  11.505   4.595
90909SOL    HW174624  10.234  11.488   4.559
90909SOL    HW274625  10.110  11.418   4.610
90910SOL     OW74626   5.340  10.225   4.651
90910SOL    HW174627   5.387  10.215   4.568
90910SOL    HW274628   5.349  10.140   4.694
90911SOL     OW74629   3.678   3.600   7.772
90911SOL    HW174630   3.725   3.684   7.769
90911SOL    HW274631   3.589   3.622   7.743
90912SOL     OW74632   2.178   0.733  10.200
90912SOL    HW174633   2.180   0.818  10.243
90912SOL    HW274634   2.097   0.692  10.232
90913SOL     OW74635  14.733   1.133   9.240
90913SOL    HW174636  14.686   1.216   9.240
90913SOL    HW274637  14.665   1.066   9.242
90914SOL     OW74638  14.505  10.155   3.567
90914SOL    HW174639  14.439  10.152   3.498
90914SOL    HW274640  14.500  10.069   3.608
90915SOL     OW74641   5.593   6.761   7.689
90915SOL    HW174642   5.577   6.717   7.773
90915SOL    HW274643   5.519   6.821   7.680
90916SOL     OW74644   6.196   4.092   2.849
90916SOL    HW174645   6.140   4.069   2.775
90916SOL    HW274646   6.276   4.127   2.810
90917SOL     OW74647   9.646   8.910   7.689
90917SOL    HW174648   9.708   8.842   7.717
90917SOL    HW274649   9.560   8.866   7.691
90918SOL     OW74650   7.809   2.398   6.243
90918SOL    HW174651   7.863   2.363   6.314
90918SOL    HW274652   7.778   2.321   6.196
90919SOL     OW74653  11.570   7.619   9.532
90919SOL    HW174654  11.574   7.699   9.480
90919SOL    HW274655  11.575   7.650   9.623
90920SOL     OW74656   0.516   9.285   1.002
90920SOL    HW174657   0.515   9.376   1.030
90920SOL    HW274658   0.503   9.288   0.907
90921SOL     OW74659   7.245   4.768  11.434
90921SOL    HW174660   7.193   4.692  11.461
90921SOL    HW274661   7.331   4.755  11.475
90922SOL     OW74662   5.604   2.178   9.079
90922SOL    HW174663   5.544   2.251   9.068
90922SOL    HW274664   5.598   2.156   9.172
90923SOL     OW74665  11.370   4.894   7.540
90923SOL    HW174666  11.341   4.897   7.631
90923SOL    HW274667  11.459   4.859   7.544
90924SOL     OW74668  11.149   0.556  10.773
90924SOL    HW174669  11.058   0.567  10.745
90924SOL    HW274670  11.191   0.512  10.700
90925SOL     OW74671   8.289   0.780  13.162
90925SOL    HW174672   8.235   0.847  13.119
90925SOL    HW274673   8.227   0.711  13.187
90926SOL     OW74674  12.332  11.701   1.127
90926SOL    HW174675  12.246  11.721   1.090
90926SOL    HW274676  12.386  11.776   1.103
90927SOL     OW74677  11.723   2.096   6.071
90927SOL    HW174678  11.633   2.075   6.098
90927SOL    HW274679  11.717   2.105   5.975
90928SOL     OW74680   4.892  14.058   2.546
90928SOL    HW174681   4.982  14.079   2.518
90928SOL    HW274682   4.897  14.056   2.641
90929SOL     OW74683  10.914  11.379   9.971
90929SOL    HW174684  10.896  11.291   9.939
90929SOL    HW274685  10.830  11.424   9.967
90930SOL     OW74686   8.714   1.677   0.716
90930SOL    HW174687   8.689   1.589   0.688
90930SOL    HW274688   8.651   1.734   0.673
90931SOL     OW74689  10.346   9.512   9.694
90931SOL    HW174690  10.316   9.487   9.782
90931SOL    HW274691  10.441   9.500   9.698
90932SOL     OW74692   8.539   3.179   4.476
90932SOL    HW174693   8.585   3.235   4.538
90932SOL    HW274694   8.492   3.240   4.419
90933SOL     OW74695   9.675   2.757   1.823
90933SOL    HW174696   9.604   2.764   1.887
90933SOL    HW274697   9.755   2.768   1.875
90934SOL     OW74698   9.763  11.911   6.008
90934SOL    HW174699   9.754  11.913   5.912
90934SOL    HW274700   9.708  11.983   6.039
90935SOL     OW74701   9.974  10.873  11.572
90935SOL    HW174702  10.042  10.901  11.634
90935SOL    HW274703   9.896  10.923  11.599
90936SOL     OW74704   7.502   7.491  13.940
90936SOL    HW174705   7.503   7.395  13.945
90936SOL    HW274706   7.516   7.520  14.030
90937SOL     OW74707  14.810   8.166   0.896
90937SOL    HW174708  14.817   8.074   0.870
90937SOL    HW274709   0.014   8.197   0.897
90938SOL     OW74710  10.097  13.411   5.260
90938SOL    HW174711  10.114  13.335   5.316
90938SOL    HW274712  10.107  13.378   5.171
90939SOL     OW74713   9.981   1.082   1.252
90939SOL    HW174714   9.891   1.081   1.218
90939SOL    HW274715  10.015   1.167   1.225
90940SOL     OW74716   0.968   2.924   5.963
90940SOL    HW174717   1.053   2.965   5.942
90940SOL    HW274718   0.949   2.870   5.887
90941SOL     OW74719  11.553  12.509   3.730
90941SOL    HW174720  11.602  12.572   3.678
90941SOL    HW274721  11.559  12.543   3.820
90942SOL     OW74722  11.429  10.875   7.482
90942SOL    HW174723  11.509  10.824   7.476
90942SOL    HW274724  11.455  10.965   7.463
90943SOL     OW74725   2.798   3.857   6.745
90943SOL    HW174726   2.803   3.848   6.650
90943SOL    HW274727   2.817   3.769   6.779
90944SOL     OW74728   1.819   2.479   4.792
90944SOL    HW174729   1.793   2.423   4.719
90944SOL    HW274730   1.849   2.418   4.859
90945SOL     OW74731  13.142  11.268  13.083
90945SOL    HW174732  13.073  11.202  13.098
90945SOL    HW274733  13.219  11.216  13.058
90946SOL     OW74734  12.240   8.226  10.423
90946SOL    HW174735  12.176   8.199  10.358
90946SOL    HW274736  12.229   8.164  10.495
90947SOL     OW74737   6.908  11.140  13.221
90947SOL    HW174738   6.866  11.124  13.137
90947SOL    HW274739   6.839  11.125  13.286
90948SOL     OW74740   7.194   8.020   5.197
90948SOL    HW174741   7.107   7.982   5.191
90948SOL    HW274742   7.236   7.997   5.114
90949SOL     OW74743  12.783  14.256   2.014
90949SOL    HW174744  12.823  14.314   1.949
90949SOL    HW274745  12.697  14.235   1.977
90950SOL     OW74746   2.243  12.779  13.797
90950SOL    HW174747   2.239  12.683  13.796
90950SOL    HW274748   2.334  12.799  13.774
90951SOL     OW74749  14.276   1.862  11.454
90951SOL    HW174750  14.280   1.792  11.519
90951SOL    HW274751  14.267   1.943  11.505
90952SOL     OW74752   0.655   1.038  13.986
90952SOL    HW174753   0.628   1.097  13.916
90952SOL    HW274754   0.723   0.984  13.947
90953SOL     OW74755   8.711   9.053   0.210
90953SOL    HW174756   8.799   9.030   0.242
90953SOL    HW274757   8.654   8.985   0.246
90954SOL     OW74758   1.178   7.989  14.608
90954SOL    HW174759   1.085   7.969  14.615
90954SOL    HW274760   1.206   8.006  14.698
90955SOL     OW74761   3.570  14.269   0.777
90955SOL    HW174762   3.511  14.332   0.735
90955SOL    HW274763   3.514  14.194   0.798
90956SOL     OW74764  13.942   4.420   1.196
90956SOL    HW174765  14.012   4.358   1.215
90956SOL    HW274766  13.862   4.368   1.200
90957SOL     OW74767   2.772   1.445   1.480
90957SOL    HW174768   2.677   1.448   1.493
90957SOL    HW274769   2.783   1.412   1.391
90958SOL     OW74770   0.001   2.829   5.160
90958SOL    HW174771   0.005   2.899   5.225
90958SOL    HW274772  14.809   2.780   5.182
90959SOL     OW74773   7.046   9.819  10.906
90959SOL    HW174774   7.095   9.881  10.852
90959SOL    HW274775   6.959   9.860  10.916
90960SOL     OW74776   6.951   8.560   7.380
90960SOL    HW174777   6.990   8.626   7.323
90960SOL    HW274778   7.023   8.500   7.399
90961SOL     OW74779   0.901   7.796   4.895
90961SOL    HW174780   0.819   7.747   4.884
90961SOL    HW274781   0.941   7.795   4.808
90962SOL     OW74782  11.976   9.854   4.962
90962SOL    HW174783  11.995   9.887   4.875
90962SOL    HW274784  12.022   9.914   5.021
90963SOL     OW74785  12.581  12.902   0.730
90963SOL    HW174786  12.492  12.867   0.737
90963SOL    HW274787  12.635  12.835   0.772
90964SOL     OW74788   4.959   8.470   2.795
90964SOL    HW174789   5.037   8.423   2.764
90964SOL    HW274790   4.891   8.404   2.798
90965SOL     OW74791   9.786   4.971   0.908
90965SOL    HW174792   9.816   4.906   0.845
90965SOL    HW274793   9.742   5.038   0.855
90966SOL     OW74794   3.767   4.722   8.038
90966SOL    HW174795   3.738   4.774   7.963
90966SOL    HW274796   3.808   4.785   8.098
90967SOL     OW74797   5.285   5.439   6.057
90967SOL    HW174798   5.217   5.459   5.992
90967SOL    HW274799   5.364   5.479   6.022
90968SOL     OW74800   8.256  10.790  13.361
90968SOL    HW174801   8.293  10.745  13.285
90968SOL    HW274802   8.328  10.793  13.424
90969SOL     OW74803   3.724   7.701   8.327
90969SOL    HW174804   3.727   7.795   8.309
90969SOL    HW274805   3.659   7.667   8.266
90970SOL     OW74806  12.986   4.811   2.094
90970SOL    HW174807  12.995   4.906   2.086
90970SOL    HW274808  13.076   4.779   2.086
90971SOL     OW74809   1.583   9.451   5.547
90971SOL    HW174810   1.565   9.357   5.551
90971SOL    HW274811   1.503   9.493   5.578
90972SOL     OW74812  10.662   8.783   1.219
90972SOL    HW174813  10.700   8.748   1.300
90972SOL    HW274814  10.567   8.776   1.233
90973SOL     OW74815   0.443   8.517   3.254
90973SOL    HW174816   0.483   8.444   3.301
90973SOL    HW274817   0.501   8.591   3.270
90974SOL     OW74818   6.301   4.560   1.902
90974SOL    HW174819   6.211   4.552   1.872
90974SOL    HW274820   6.305   4.506   1.981
90975SOL     OW74821   0.992  14.602   8.090
90975SOL    HW174822   0.900  14.597   8.117
90975SOL    HW274823   0.990  14.652   8.009
90976SOL     OW74824   9.340   2.936  13.731
90976SOL    HW174825   9.303   2.948  13.644
90976SOL    HW274826   9.420   2.885  13.717
90977SOL     OW74827   0.177   6.202  10.378
90977SOL    HW174828   0.083   6.214  10.391
90977SOL    HW274829   0.184   6.141  10.304
90978SOL     OW74830  13.404   2.810   0.700
90978SOL    HW174831  13.420   2.897   0.664
90978SOL    HW274832  13.325   2.820   0.753
90979SOL     OW74833  12.053   7.940   2.575
90979SOL    HW174834  12.033   8.007   2.509
90979SOL    HW274835  12.122   7.980   2.628
90980SOL     OW74836   4.842   1.132   0.970
90980SOL    HW174837   4.771   1.086   1.014
90980SOL    HW274838   4.831   1.110   0.877
90981SOL     OW74839   2.598   1.684   6.454
90981SOL    HW174840   2.615   1.729   6.537
90981SOL    HW274841   2.643   1.738   6.388
90982SOL     OW74842   3.923   1.781   8.487
90982SOL    HW174843   3.965   1.810   8.568
90982SOL    HW274844   3.938   1.853   8.425
90983SOL     OW74845  14.254  12.732   2.286
90983SOL    HW174846  14.159  12.723   2.285
90983SOL    HW274847  14.270  12.812   2.335
90984SOL     OW74848   4.785   0.916  10.902
90984SOL    HW174849   4.779   0.905  10.808
90984SOL    HW274850   4.879   0.915  10.921
90985SOL     OW74851  11.599   9.169   8.282
90985SOL    HW174852  11.629   9.177   8.373
90985SOL    HW274853  11.672   9.198   8.229
90986SOL     OW74854  11.949   1.223   8.759
90986SOL    HW174855  11.902   1.298   8.795
90986SOL    HW274856  11.882   1.157   8.743
90987SOL     OW74857   6.828   7.629   4.542
90987SOL    HW174858   6.830   7.720   4.511
90987SOL    HW274859   6.761   7.628   4.610
90988SOL     OW74860   9.693   2.336  10.355
90988SOL    HW174861   9.601   2.333  10.378
90988SOL    HW274862   9.695   2.376  10.268
90989SOL     OW74863   2.353   2.873  11.748
90989SOL    HW174864   2.309   2.951  11.715
90989SOL    HW274865   2.441   2.877  11.710
90990SOL     OW74866  10.318  10.697   0.775
90990SOL    HW174867  10.357  10.740   0.699
90990SOL    HW274868  10.263  10.764   0.815
90991SOL     OW74869  12.800   1.340   1.838
90991SOL    HW174870  12.828   1.274   1.775
90991SOL    HW274871  12.827   1.305   1.923
90992SOL     OW74872  11.738   2.149   4.535
90992SOL    HW174873  11.813   2.146   4.595
90992SOL    HW274874  11.674   2.090   4.575
90993SOL     OW74875   2.112   5.458   4.159
90993SOL    HW174876   2.142   5.424   4.074
90993SOL    HW274877   2.037   5.403   4.181
90994SOL     OW74878   5.671   0.435   6.172
90994SOL    HW174879   5.761   0.462   6.191
90994SOL    HW274880   5.634   0.412   6.257
90995SOL     OW74881   8.403   0.996   1.652
90995SOL    HW174882   8.360   0.951   1.579
90995SOL    HW274883   8.330   1.031   1.704
90996SOL     OW74884   5.798   3.019  11.307
90996SOL    HW174885   5.813   2.935  11.265
90996SOL    HW274886   5.766   3.076  11.238
90997SOL     OW74887   2.240  10.929   2.552
90997SOL    HW174888   2.200  10.967   2.630
90997SOL    HW274889   2.176  10.866   2.520
90998SOL     OW74890  13.113   8.713  11.600
90998SOL    HW174891  13.155   8.716  11.514
90998SOL    HW274892  13.024   8.684  11.582
90999SOL     OW74893   2.522   6.618   2.009
90999SOL    HW174894   2.528   6.637   2.103
90999SOL    HW274895   2.596   6.665   1.971
91000SOL     OW74896   9.037   8.574   9.637
91000SOL    HW174897   9.006   8.657   9.601
91000SOL    HW274898   9.128   8.568   9.610
91001SOL     OW74899   4.575  11.924   7.153
91001SOL    HW174900   4.562  11.931   7.059
91001SOL    HW274901   4.526  11.846   7.179
91002SOL     OW74902  10.824   1.756   7.734
91002SOL    HW174903  10.735   1.774   7.765
91002SOL    HW274904  10.817   1.673   7.688
91003SOL     OW74905   7.664   1.553  12.024
91003SOL    HW174906   7.627   1.465  12.015
91003SOL    HW274907   7.594   1.605  12.062
91004SOL     OW74908   6.663   7.787  14.266
91004SOL    HW174909   6.576   7.778  14.225
91004SOL    HW274910   6.664   7.720  14.334
91005SOL     OW74911   3.102   9.523  10.617
91005SOL    HW174912   3.038   9.459  10.586
91005SOL    HW274913   3.153   9.546  10.540
91006SOL     OW74914   3.506  13.037   0.127
91006SOL    HW174915   3.432  13.011   0.184
91006SOL    HW274916   3.580  13.046   0.187
91007SOL     OW74917   1.639  12.599   0.852
91007SOL    HW174918   1.582  12.631   0.781
91007SOL    HW274919   1.709  12.552   0.807
91008SOL     OW74920  14.587   7.217  14.135
91008SOL    HW174921  14.539   7.194  14.056
91008SOL    HW274922  14.603   7.133  14.178
91009SOL     OW74923  11.468   2.522   4.630
91009SOL    HW174924  11.373   2.513   4.624
91009SOL    HW274925  11.482   2.567   4.714
91010SOL     OW74926   6.800  11.953   6.772
91010SOL    HW174927   6.713  11.988   6.757
91010SOL    HW274928   6.790  11.858   6.763
91011SOL     OW74929   2.911   7.682   8.541
91011SOL    HW174930   2.825   7.649   8.516
91011SOL    HW274931   2.913   7.677   8.636
91012SOL     OW74932   0.250   7.774  14.333
91012SOL    HW174933   0.201   7.758  14.414
91012SOL    HW274934   0.287   7.862  14.346
91013SOL     OW74935   7.749   0.112   2.283
91013SOL    HW174936   7.684   0.158   2.230
91013SOL    HW274937   7.833   0.142   2.250
91014SOL     OW74938   3.362   9.930   1.805
91014SOL    HW174939   3.326   9.974   1.728
91014SOL    HW274940   3.456   9.925   1.788
91015SOL     OW74941   8.187   9.928   4.034
91015SOL    HW174942   8.208   9.932   3.940
91015SOL    HW274943   8.100   9.967   4.040
91016SOL     OW74944  12.870   2.854   7.240
91016SOL    HW174945  12.811   2.916   7.281
91016SOL    HW274946  12.830   2.835   7.155
91017SOL     OW74947   3.771   1.129   3.816
91017SOL    HW174948   3.679   1.116   3.839
91017SOL    HW274949   3.768   1.186   3.738
91018SOL     OW74950   8.129   6.958  14.293
91018SOL    HW174951   8.170   6.872  14.299
91018SOL    HW274952   8.116   6.985  14.385
91019SOL     OW74953   8.821  14.308   0.469
91019SOL    HW174954   8.728  14.313   0.449
91019SOL    HW274955   8.864  14.347   0.393
91020SOL     OW74956  11.569  13.246  13.809
91020SOL    HW174957  11.558  13.307  13.735
91020SOL    HW274958  11.658  13.212  13.799
91021SOL     OW74959  10.892   4.955   4.066
91021SOL    HW174960  10.911   4.869   4.027
91021SOL    HW274961  10.964   5.011   4.038
91022SOL     OW74962   7.198  14.131   4.741
91022SOL    HW174963   7.252  14.116   4.664
91022SOL    HW274964   7.261  14.152   4.810
91023SOL     OW74965  10.072   3.619   6.175
91023SOL    HW174966   9.988   3.585   6.206
91023SOL    HW274967  10.132   3.545   6.184
91024SOL     OW74968   7.605   7.885   5.932
91024SOL    HW174969   7.567   7.944   5.997
91024SOL    HW274970   7.641   7.813   5.984
91025SOL     OW74971   3.793  12.358   2.329
91025SOL    HW174972   3.758  12.288   2.385
91025SOL    HW274973   3.875  12.383   2.371
91026SOL     OW74974  10.126   2.421  12.484
91026SOL    HW174975  10.152   2.388  12.570
91026SOL    HW274976  10.209   2.442  12.441
91027SOL     OW74977   5.481   1.205   8.608
91027SOL    HW174978   5.486   1.163   8.694
91027SOL    HW274979   5.387   1.212   8.591
91028SOL     OW74980   7.700  12.865   2.609
91028SOL    HW174981   7.770  12.926   2.632
91028SOL    HW274982   7.656  12.906   2.534
91029SOL     OW74983  11.444   0.059  10.972
91029SOL    HW174984  11.381   0.114  11.019
91029SOL    HW274985  11.504   0.027  11.039
91030SOL     OW74986   0.637  12.684  11.766
91030SOL    HW174987   0.573  12.633  11.717
91030SOL    HW274988   0.714  12.627  11.772
91031SOL     OW74989   6.604  12.238   2.755
91031SOL    HW174990   6.636  12.149   2.741
91031SOL    HW274991   6.608  12.249   2.850
91032SOL     OW74992   5.617   7.263  13.335
91032SOL    HW174993   5.544   7.210  13.366
91032SOL    HW274994   5.645   7.313  13.412
91033SOL     OW74995  14.187   2.500   1.193
91033SOL    HW174996  14.094   2.503   1.169
91033SOL    HW274997  14.191   2.438   1.266
91034SOL     OW74998  12.076   1.663  14.646
91034SOL    HW174999  12.087   1.734  14.583
91034SOL    HW275000  12.154   1.668  14.702
91035SOL     OW75001   4.124  13.627   3.828
91035SOL    HW175002   4.107  13.583   3.911
91035SOL    HW275003   4.112  13.558   3.762
91036SOL     OW75004   8.765  11.543   7.160
91036SOL    HW175005   8.808  11.513   7.081
91036SOL    HW275006   8.836  11.565   7.220
91037SOL     OW75007   0.839   2.610  13.781
91037SOL    HW175008   0.849   2.703  13.759
91037SOL    HW275009   0.848   2.606  13.876
91038SOL     OW75010   7.736  12.048   7.439
91038SOL    HW175011   7.830  12.059   7.458
91038SOL    HW275012   7.701  12.006   7.517
91039SOL     OW75013  11.850   1.331   5.657
91039SOL    HW175014  11.907   1.273   5.707
91039SOL    HW275015  11.909   1.386   5.607
91040SOL     OW75016  10.705   0.901  10.179
91040SOL    HW175017  10.792   0.869  10.205
91040SOL    HW275018  10.700   0.989  10.216
91041SOL     OW75019  12.722  11.829   6.031
91041SOL    HW175020  12.689  11.915   6.007
91041SOL    HW275021  12.719  11.828   6.127
91042SOL     OW75022  13.596  14.409   4.840
91042SOL    HW175023  13.540  14.474   4.796
91042SOL    HW275024  13.600  14.336   4.778
91043SOL     OW75025   9.161  13.043   1.078
91043SOL    HW175026   9.191  13.071   0.991
91043SOL    HW275027   9.121  13.120   1.116
91044SOL     OW75028   2.014   5.348   1.439
91044SOL    HW175029   2.082   5.378   1.500
91044SOL    HW275030   1.953   5.298   1.493
91045SOL     OW75031   7.990   0.394   0.718
91045SOL    HW175032   7.926   0.361   0.655
91045SOL    HW275033   8.025   0.316   0.761
91046SOL     OW75034   2.501   6.408  11.625
91046SOL    HW175035   2.425   6.384  11.676
91046SOL    HW275036   2.496   6.504  11.617
91047SOL     OW75037   7.427   4.465   7.331
91047SOL    HW175038   7.388   4.401   7.271
91047SOL    HW275039   7.517   4.434   7.345
91048SOL     OW75040   9.269   5.644   6.421
91048SOL    HW175041   9.264   5.657   6.326
91048SOL    HW275042   9.210   5.570   6.437
91049SOL     OW75043  11.084   2.852  12.134
91049SOL    HW175044  11.104   2.909  12.059
91049SOL    HW275045  11.144   2.880  12.203
91050SOL     OW75046   2.114   3.268  11.747
91050SOL    HW175047   2.078   3.296  11.831
91050SOL    HW275048   2.134   3.350  11.701
91051SOL     OW75049   6.611  10.153  13.493
91051SOL    HW175050   6.586  10.061  13.487
91051SOL    HW275051   6.588  10.190  13.408
91052SOL     OW75052   9.336  12.889   4.142
91052SOL    HW175053   9.317  12.982   4.156
91052SOL    HW275054   9.419  12.890   4.093
91053SOL     OW75055  14.647   9.875   2.668
91053SOL    HW175056  14.686   9.909   2.588
91053SOL    HW275057  14.614   9.788   2.644
91054SOL     OW75058   2.442  13.825  11.984
91054SOL    HW175059   2.500  13.888  12.027
91054SOL    HW275060   2.379  13.800  12.052
91055SOL     OW75061   2.622   2.465   9.115
91055SOL    HW175062   2.595   2.422   9.034
91055SOL    HW275063   2.578   2.550   9.113
91056SOL     OW75064   8.721   8.350   0.564
91056SOL    HW175065   8.640   8.392   0.592
91056SOL    HW275066   8.788   8.383   0.623
91057SOL     OW75067   3.157   7.642   3.070
91057SOL    HW175068   3.131   7.692   3.148
91057SOL    HW275069   3.227   7.584   3.101
91058SOL     OW75070   3.473  14.205   9.344
91058SOL    HW175071   3.453  14.294   9.374
91058SOL    HW275072   3.527  14.218   9.266
91059SOL     OW75073  12.868  12.639  12.271
91059SOL    HW175074  12.930  12.630  12.343
91059SOL    HW275075  12.790  12.592  12.301
91060SOL     OW75076   6.289  11.371   7.667
91060SOL    HW175077   6.367  11.315   7.669
91060SOL    HW275078   6.223  11.322   7.716
91061SOL     OW75079  13.116  14.760   3.343
91061SOL    HW175080  13.122  14.676   3.389
91061SOL    HW275081  13.152  14.824   3.404
91062SOL     OW75082  14.720  10.604  14.231
91062SOL    HW175083  14.757  10.626  14.146
91062SOL    HW275084  14.674  10.684  14.258
91063SOL     OW75085   6.563   6.478   7.112
91063SOL    HW175086   6.488   6.499   7.057
91063SOL    HW275087   6.525   6.435   7.189
91064SOL     OW75088   4.646   2.491   1.754
91064SOL    HW175089   4.697   2.536   1.687
91064SOL    HW275090   4.559   2.529   1.748
91065SOL     OW75091   7.413   4.163  11.639
91065SOL    HW175092   7.392   4.116  11.719
91065SOL    HW275093   7.436   4.251  11.668
91066SOL     OW75094  13.266   6.294  11.121
91066SOL    HW175095  13.284   6.386  11.100
91066SOL    HW275096  13.337   6.245  11.079
91067SOL     OW75097   1.270   8.691   2.685
91067SOL    HW175098   1.283   8.785   2.700
91067SOL    HW275099   1.175   8.681   2.680
91068SOL     OW75100   6.724  13.289   2.137
91068SOL    HW175101   6.697  13.322   2.223
91068SOL    HW275102   6.817  13.310   2.130
91069SOL     OW75103   0.326   5.278   0.414
91069SOL    HW175104   0.329   5.210   0.347
91069SOL    HW275105   0.385   5.346   0.382
91070SOL     OW75106   5.529   6.771   5.036
91070SOL    HW175107   5.504   6.852   4.991
91070SOL    HW275108   5.582   6.724   4.971
91071SOL     OW75109   0.196  13.936  10.083
91071SOL    HW175110   0.188  13.948   9.989
91071SOL    HW275111   0.271  13.991  10.108
91072SOL     OW75112  11.987   3.553   0.738
91072SOL    HW175113  12.058   3.583   0.682
91072SOL    HW275114  11.943   3.486   0.685
91073SOL     OW75115   6.507  11.736   5.185
91073SOL    HW175116   6.527  11.655   5.232
91073SOL    HW275117   6.528  11.717   5.094
91074SOL     OW75118   5.952   4.530   9.324
91074SOL    HW175119   5.931   4.583   9.247
91074SOL    HW275120   5.872   4.483   9.344
91075SOL     OW75121   9.282   2.176   0.302
91075SOL    HW175122   9.215   2.143   0.362
91075SOL    HW275123   9.237   2.186   0.218
91076SOL     OW75124   7.023   2.896   9.996
91076SOL    HW175125   7.074   2.837  10.052
91076SOL    HW275126   7.061   2.886   9.909
91077SOL     OW75127  13.510  12.964   6.927
91077SOL    HW175128  13.594  12.991   6.964
91077SOL    HW275129  13.489  13.032   6.863
91078SOL     OW75130   9.952   8.845   9.331
91078SOL    HW175131   9.903   8.853   9.249
91078SOL    HW275132   9.901   8.785   9.384
91079SOL     OW75133  12.279   2.173  13.383
91079SOL    HW175134  12.328   2.127  13.315
91079SOL    HW275135  12.345   2.225  13.430
91080SOL     OW75136   4.827   1.169   8.922
91080SOL    HW175137   4.768   1.117   8.868
91080SOL    HW275138   4.906   1.115   8.931
91081SOL     OW75139   2.119   5.176  13.943
91081SOL    HW175140   2.044   5.157  13.999
91081SOL    HW275141   2.090   5.249  13.888
91082SOL     OW75142  14.057  11.688  10.316
91082SOL    HW175143  14.000  11.616  10.289
91082SOL    HW275144  14.050  11.752  10.245
91083SOL     OW75145   4.831  11.001   5.000
91083SOL    HW175146   4.926  11.010   5.003
91083SOL    HW275147   4.797  11.084   5.034
91084SOL     OW75148  13.463   3.730   0.952
91084SOL    HW175149  13.545   3.694   0.919
91084SOL    HW275150  13.443   3.678   1.029
91085SOL     OW75151   1.231   4.595   2.220
91085SOL    HW175152   1.321   4.582   2.191
91085SOL    HW275153   1.178   4.552   2.152
91086SOL     OW75154   2.063   8.697   9.069
91086SOL    HW175155   2.135   8.650   9.025
91086SOL    HW275156   1.997   8.707   9.001
91087SOL     OW75157   0.568  14.370   7.586
91087SOL    HW175158   0.615  14.352   7.667
91087SOL    HW275159   0.488  14.317   7.593
91088SOL     OW75160   1.619   0.005   4.424
91088SOL    HW175161   1.528   0.027   4.442
91088SOL    HW275162   1.655   0.083   4.382
91089SOL     OW75163  14.770   6.209  10.431
91089SOL    HW175164  14.678   6.184  10.420
91089SOL    HW275165  14.785   6.204  10.525
91090SOL     OW75166  10.770  14.819   8.702
91090SOL    HW175167  10.718  14.749   8.740
91090SOL    HW275168  10.791  14.789   8.614
91091SOL     OW75169   1.510   3.007  10.961
91091SOL    HW175170   1.459   2.958  11.025
91091SOL    HW275171   1.468   2.988  10.877
91092SOL     OW75172   2.023   0.314   2.115
91092SOL    HW175173   1.935   0.350   2.113
91092SOL    HW275174   2.081   0.390   2.116
91093SOL     OW75175   2.706   0.929   6.411
91093SOL    HW175176   2.617   0.943   6.444
91093SOL    HW275177   2.761   0.933   6.489
91094SOL     OW75178   4.683   0.147  14.131
91094SOL    HW175179   4.760   0.101  14.100
91094SOL    HW275180   4.624   0.148  14.056
91095SOL     OW75181  14.679  14.051  13.933
91095SOL    HW175182  14.691  13.972  13.986
91095SOL    HW275183  14.705  14.025  13.845
91096SOL     OW75184   5.767  12.705   8.753
91096SOL    HW175185   5.737  12.741   8.670
91096SOL    HW275186   5.859  12.682   8.738
91097SOL     OW75187   6.380   2.415   7.801
91097SOL    HW175188   6.429   2.358   7.860
91097SOL    HW275189   6.432   2.496   7.797
91098SOL     OW75190   8.519   1.173   2.562
91098SOL    HW175191   8.500   1.219   2.480
91098SOL    HW275192   8.437   1.128   2.584
91099SOL     OW75193  12.307  14.149   9.419
91099SOL    HW175194  12.372  14.198   9.370
91099SOL    HW275195  12.358  14.086   9.470
91100SOL     OW75196   2.367   6.704   0.342
91100SOL    HW175197   2.407   6.761   0.408
91100SOL    HW275198   2.354   6.620   0.387
91101SOL     OW75199   7.277   5.543   6.172
91101SOL    HW175200   7.231   5.471   6.215
91101SOL    HW275201   7.217   5.573   6.104
91102SOL     OW75202  14.269   6.250   7.819
91102SOL    HW175203  14.327   6.234   7.894
91102SOL    HW275204  14.329   6.258   7.745
91103SOL     OW75205  11.379   3.978   9.323
91103SOL    HW175206  11.446   4.046   9.317
91103SOL    HW275207  11.296   4.026   9.327
91104SOL     OW75208   2.215   5.261  10.988
91104SOL    HW175209   2.308   5.251  11.006
91104SOL    HW275210   2.187   5.173  10.960
91105SOL     OW75211   0.194   2.819  14.748
91105SOL    HW175212   0.141   2.896  14.728
91105SOL    HW275213   0.156   2.784  14.829
91106SOL     OW75214  10.108  12.649   1.727
91106SOL    HW175215  10.029  12.693   1.758
91106SOL    HW275216  10.164  12.719   1.695
91107SOL     OW75217   8.253   8.215   2.799
91107SOL    HW175218   8.285   8.126   2.811
91107SOL    HW275219   8.290   8.264   2.872
91108SOL     OW75220   2.615   7.057   9.564
91108SOL    HW175221   2.641   6.991   9.628
91108SOL    HW275222   2.618   7.140   9.611
91109SOL     OW75223  10.373   8.451   8.444
91109SOL    HW175224  10.381   8.545   8.427
91109SOL    HW275225  10.392   8.410   8.360
91110SOL     OW75226   3.985   1.533  10.284
91110SOL    HW175227   3.980   1.441  10.309
91110SOL    HW275228   4.018   1.531  10.194
91111SOL     OW75229   4.467   4.368   9.463
91111SOL    HW175230   4.493   4.295   9.407
91111SOL    HW275231   4.490   4.340   9.552
91112SOL     OW75232   9.714   7.205   1.516
91112SOL    HW175233   9.676   7.127   1.556
91112SOL    HW275234   9.647   7.272   1.524
91113SOL     OW75235   3.390  12.017   1.871
91113SOL    HW175236   3.428  12.068   1.799
91113SOL    HW275237   3.396  11.926   1.843
91114SOL     OW75238  11.134   4.677   7.766
91114SOL    HW175239  11.064   4.680   7.701
91114SOL    HW275240  11.091   4.693   7.850
91115SOL     OW75241   7.265   7.029   4.528
91115SOL    HW175242   7.192   6.972   4.502
91115SOL    HW275243   7.327   7.023   4.455
91116SOL     OW75244   3.051   7.433  11.224
91116SOL    HW175245   3.007   7.426  11.308
91116SOL    HW275246   3.013   7.511  11.183
91117SOL     OW75247  12.430   9.777   6.268
91117SOL    HW175248  12.497   9.837   6.236
91117SOL    HW275249  12.363   9.777   6.200
91118SOL     OW75250   1.667   7.144  13.440
91118SOL    HW175251   1.708   7.065  13.404
91118SOL    HW275252   1.655   7.201  13.364
91119SOL     OW75253   3.661   8.492  10.315
91119SOL    HW175254   3.601   8.439  10.366
91119SOL    HW275255   3.661   8.451  10.228
91120SOL     OW75256   5.362  12.300  14.650
91120SOL    HW175257   5.388  12.392  14.639
91120SOL    HW275258   5.280  12.303  14.699
91121SOL     OW75259   7.294  13.210   3.031
91121SOL    HW175260   7.247  13.258   3.099
91121SOL    HW275261   7.278  13.259   2.951
91122SOL     OW75262   6.969   7.195   0.004
91122SOL    HW175263   7.017   7.201  14.809
91122SOL    HW275264   6.906   7.267  14.887
91123SOL     OW75265  12.195  12.638   1.565
91123SOL    HW175266  12.276  12.607   1.606
91123SOL    HW275267  12.220  12.718   1.519
91124SOL     OW75268   8.736   6.778   0.478
91124SOL    HW175269   8.674   6.836   0.523
91124SOL    HW275270   8.814   6.780   0.533
91125SOL     OW75271  14.112   3.619  12.701
91125SOL    HW175272  14.172   3.643  12.772
91125SOL    HW275273  14.025   3.630  12.738
91126SOL     OW75274  12.238   2.666  13.697
91126SOL    HW175275  12.282   2.721  13.762
91126SOL    HW275276  12.309   2.624  13.649
91127SOL     OW75277  12.960   4.902  14.435
91127SOL    HW175278  12.929   4.981  14.479
91127SOL    HW275279  12.991   4.846  14.506
91128SOL     OW75280   4.904   9.532   5.985
91128SOL    HW175281   4.832   9.595   5.988
91128SOL    HW275282   4.948   9.541   6.069
91129SOL     OW75283   9.866   8.229   3.210
91129SOL    HW175284   9.812   8.162   3.168
91129SOL    HW275285   9.917   8.181   3.275
91130SOL     OW75286   6.443  10.059   9.695
91130SOL    HW175287   6.459  10.021   9.609
91130SOL    HW275288   6.399  10.142   9.677
91131SOL     OW75289   5.807  13.976  14.389
91131SOL    HW175290   5.814  14.006  14.480
91131SOL    HW275291   5.719  14.001  14.362
91132SOL     OW75292   3.428  13.974   3.146
91132SOL    HW175293   3.457  13.930   3.226
91132SOL    HW275294   3.505  13.976   3.090
91133SOL     OW75295  12.051  14.708  11.937
91133SOL    HW175296  12.069  14.723  12.029
91133SOL    HW275297  11.968  14.661  11.936
91134SOL     OW75298   7.592  11.697   0.424
91134SOL    HW175299   7.562  11.636   0.492
91134SOL    HW275300   7.666  11.653   0.383
91135SOL     OW75301  13.557  11.927   5.084
91135SOL    HW175302  13.463  11.915   5.071
91135SOL    HW275303  13.581  11.995   5.021
91136SOL     OW75304   5.927  10.250   2.879
91136SOL    HW175305   5.952  10.295   2.960
91136SOL    HW275306   6.001  10.193   2.859
91137SOL     OW75307  13.254   9.856   3.244
91137SOL    HW175308  13.307   9.805   3.306
91137SOL    HW275309  13.177   9.802   3.228
91138SOL     OW75310  11.419   1.649   8.722
91138SOL    HW175311  11.463   1.689   8.797
91138SOL    HW275312  11.436   1.555   8.733
91139SOL     OW75313   0.387  14.350   8.656
91139SOL    HW175314   0.325  14.367   8.727
91139SOL    HW275315   0.471  14.379   8.690
91140SOL     OW75316   4.258   1.326  14.875
91140SOL    HW175317   4.194   1.261  14.844
91140SOL    HW275318   4.207   1.406  14.884
91141SOL     OW75319  12.214  14.833  10.935
91141SOL    HW175320  12.255  14.757  10.977
91141SOL    HW275321  12.195   0.006  11.007
91142SOL     OW75322   2.528   4.428   2.649
91142SOL    HW175323   2.576   4.375   2.585
91142SOL    HW275324   2.566   4.404   2.733
91143SOL     OW75325   8.143   2.150   6.278
91143SOL    HW175326   8.175   2.223   6.225
91143SOL    HW275327   8.068   2.116   6.230
91144SOL     OW75328   8.058   6.177   6.532
91144SOL    HW175329   8.059   6.113   6.604
91144SOL    HW275330   7.974   6.221   6.541
91145SOL     OW75331   1.627   8.627  10.701
91145SOL    HW175332   1.554   8.639  10.762
91145SOL    HW275333   1.706   8.639  10.754
91146SOL     OW75334   5.799   4.235   5.627
91146SOL    HW175335   5.861   4.189   5.684
91146SOL    HW275336   5.713   4.213   5.662
91147SOL     OW75337   5.152   6.054   5.473
91147SOL    HW175338   5.157   6.103   5.392
91147SOL    HW275339   5.193   6.110   5.538
91148SOL     OW75340   3.135   7.701  13.447
91148SOL    HW175341   3.050   7.742  13.463
91148SOL    HW275342   3.195   7.747  13.507
91149SOL     OW75343   3.646  12.705   4.907
91149SOL    HW175344   3.726  12.657   4.883
91149SOL    HW275345   3.576  12.641   4.896
91150SOL     OW75346   0.013   2.890   3.085
91150SOL    HW175347   0.052   2.901   3.171
91150SOL    HW275348   0.048   2.963   3.033
91151SOL     OW75349  14.206   7.684   6.653
91151SOL    HW175350  14.235   7.765   6.696
91151SOL    HW275351  14.262   7.677   6.576
91152SOL     OW75352   7.576  13.705   6.952
91152SOL    HW175353   7.567  13.642   6.880
91152SOL    HW275354   7.632  13.774   6.916
91153SOL     OW75355   3.435   3.683   7.601
91153SOL    HW175356   3.508   3.712   7.545
91153SOL    HW275357   3.362   3.669   7.540
91154SOL     OW75358   7.360   3.831   4.981
91154SOL    HW175359   7.429   3.779   4.940
91154SOL    HW275360   7.373   3.818   5.075
91155SOL     OW75361  11.044   9.983   1.212
91155SOL    HW175362  11.127  10.020   1.183
91155SOL    HW275363  11.018   9.924   1.142
91156SOL     OW75364   4.646   6.146  10.821
91156SOL    HW175365   4.564   6.190  10.800
91156SOL    HW275366   4.654   6.077  10.755
91157SOL     OW75367   4.146  14.014   9.771
91157SOL    HW175368   4.125  14.007   9.865
91157SOL    HW275369   4.061  14.007   9.727
91158SOL     OW75370  10.133   8.821   2.151
91158SOL    HW175371  10.102   8.911   2.145
91158SOL    HW275372  10.061   8.773   2.192
91159SOL     OW75373   4.347   2.164  12.803
91159SOL    HW175374   4.349   2.074  12.770
91159SOL    HW275375   4.300   2.213  12.735
91160SOL     OW75376   4.797   1.513   7.578
91160SOL    HW175377   4.859   1.449   7.614
91160SOL    HW275378   4.786   1.578   7.647
91161SOL     OW75379   4.872   8.032   0.201
91161SOL    HW175380   4.872   7.938   0.222
91161SOL    HW275381   4.779   8.057   0.205
91162SOL     OW75382   3.494  13.663   4.800
91162SOL    HW175383   3.493  13.696   4.710
91162SOL    HW275384   3.435  13.721   4.848
91163SOL     OW75385  14.738  12.348  10.192
91163SOL    HW175386  14.754  12.419  10.253
91163SOL    HW275387  14.644  12.329  10.201
91164SOL     OW75388  14.162   2.608   5.469
91164SOL    HW175389  14.174   2.694   5.508
91164SOL    HW275390  14.114   2.558   5.535
91165SOL     OW75391   0.588   9.607   4.144
91165SOL    HW175392   0.678   9.586   4.117
91165SOL    HW275393   0.541   9.524   4.137
91166SOL     OW75394   1.143  11.546   9.743
91166SOL    HW175395   1.154  11.514   9.654
91166SOL    HW275396   1.092  11.478   9.787
91167SOL     OW75397  14.463  10.043   0.138
91167SOL    HW175398  14.465  10.120   0.194
91167SOL    HW275399  14.547  10.044   0.092
91168SOL     OW75400  14.441  13.072   8.835
91168SOL    HW175401  14.434  13.138   8.765
91168SOL    HW275402  14.351  13.059   8.863
91169SOL     OW75403  12.491   4.616   2.110
91169SOL    HW175404  12.580   4.635   2.082
91169SOL    HW275405  12.492   4.630   2.205
91170SOL     OW75406  11.581   2.695  13.109
91170SOL    HW175407  11.539   2.750  13.175
91170SOL    HW275408  11.653   2.651  13.155
91171SOL     OW75409   9.197  11.471  13.237
91171SOL    HW175410   9.211  11.420  13.157
91171SOL    HW275411   9.184  11.561  13.206
91172SOL     OW75412   7.420   6.331   8.838
91172SOL    HW175413   7.416   6.410   8.785
91172SOL    HW275414   7.468   6.268   8.784
91173SOL     OW75415  14.061   6.622  12.427
91173SOL    HW175416  14.138   6.570  12.450
91173SOL    HW275417  14.052   6.612  12.332
91174SOL     OW75418   0.985   8.046   6.303
91174SOL    HW175419   1.000   7.962   6.345
91174SOL    HW275420   0.936   8.097   6.369
91175SOL     OW75421  11.937   3.204   3.698
91175SOL    HW175422  11.865   3.190   3.760
91175SOL    HW275423  11.911   3.281   3.649
91176SOL     OW75424   6.277   8.840  13.908
91176SOL    HW175425   6.318   8.777  13.968
91176SOL    HW275426   6.230   8.785  13.845
91177SOL     OW75427   7.998   3.825  14.150
91177SOL    HW175428   8.063   3.854  14.086
91177SOL    HW275429   7.961   3.906  14.185
91178SOL     OW75430   3.030   7.840   1.619
91178SOL    HW175431   3.096   7.843   1.687
91178SOL    HW275432   2.991   7.753   1.627
91179SOL     OW75433  12.043   4.288   1.086
91179SOL    HW175434  12.127   4.253   1.115
91179SOL    HW275435  11.984   4.276   1.160
91180SOL     OW75436   1.971   8.566  12.450
91180SOL    HW175437   1.927   8.579  12.366
91180SOL    HW275438   1.911   8.511  12.500
91181SOL     OW75439   7.550   8.362   4.089
91181SOL    HW175440   7.635   8.384   4.050
91181SOL    HW275441   7.523   8.282   4.045
91182SOL     OW75442  10.408   4.526   0.527
91182SOL    HW175443  10.343   4.505   0.460
91182SOL    HW275444  10.489   4.542   0.479
91183SOL     OW75445   6.554   4.075  14.606
91183SOL    HW175446   6.599   4.101  14.686
91183SOL    HW275447   6.515   3.991  14.627
91184SOL     OW75448   6.921   3.731   7.355
91184SOL    HW175449   6.873   3.813   7.356
91184SOL    HW275450   6.952   3.720   7.445
91185SOL     OW75451  10.934   7.609  14.346
91185SOL    HW175452  10.994   7.538  14.369
91185SOL    HW275453  10.959   7.681  14.404
91186SOL     OW75454   9.098   1.273   2.569
91186SOL    HW175455   9.107   1.252   2.476
91186SOL    HW275456   9.180   1.317   2.592
91187SOL     OW75457   2.308   3.426  13.153
91187SOL    HW175458   2.331   3.405  13.244
91187SOL    HW275459   2.239   3.363  13.131
91188SOL     OW75460   6.553   9.031   3.929
91188SOL    HW175461   6.620   9.070   3.873
91188SOL    HW275462   6.598   9.008   4.010
91189SOL     OW75463   5.327  10.008   2.120
91189SOL    HW175464   5.327  10.078   2.055
91189SOL    HW275465   5.299  10.050   2.201
91190SOL     OW75466  13.494  10.920   9.812
91190SOL    HW175467  13.402  10.902   9.796
91190SOL    HW275468  13.530  10.838   9.845
91191SOL     OW75469  14.686  10.589   5.430
91191SOL    HW175470  14.750  10.524   5.400
91191SOL    HW275471  14.737  10.669   5.441
91192SOL     OW75472  14.269   0.438   1.887
91192SOL    HW175473  14.237   0.525   1.866
91192SOL    HW275474  14.359   0.452   1.916
91193SOL     OW75475  11.859   1.833   7.666
91193SOL    HW175476  11.878   1.922   7.695
91193SOL    HW275477  11.849   1.783   7.747
91194SOL     OW75478   5.517   9.036   5.575
91194SOL    HW175479   5.450   9.100   5.551
91194SOL    HW275480   5.478   8.987   5.648
91195SOL     OW75481  10.252   0.759  11.842
91195SOL    HW175482  10.292   0.720  11.765
91195SOL    HW275483  10.286   0.849  11.844
91196SOL     OW75484   2.159   6.352   0.095
91196SOL    HW175485   2.139   6.323   0.006
91196SOL    HW275486   2.254   6.367   0.094
91197SOL     OW75487  13.174  10.934  10.722
91197SOL    HW175488  13.136  10.883  10.651
91197SOL    HW275489  13.107  10.936  10.790
91198SOL     OW75490   5.710  14.590   1.553
91198SOL    HW175491   5.669  14.602   1.468
91198SOL    HW275492   5.641  14.552   1.608
91199SOL     OW75493   9.864   5.544   1.501
91199SOL    HW175494   9.806   5.510   1.432
91199SOL    HW275495   9.880   5.469   1.558
91200SOL     OW75496  11.536   6.190   5.963
91200SOL    HW175497  11.522   6.230   5.877
91200SOL    HW275498  11.483   6.111   5.962
91201SOL     OW75499   4.121  12.048   2.889
91201SOL    HW175500   4.158  12.017   2.971
91201SOL    HW275501   4.028  12.057   2.905
91202SOL     OW75502   2.589   1.476   5.165
91202SOL    HW175503   2.544   1.401   5.205
91202SOL    HW275504   2.520   1.541   5.150
91203SOL     OW75505   5.776  11.042   3.180
91203SOL    HW175506   5.690  11.041   3.222
91203SOL    HW275507   5.838  11.019   3.249
91204SOL     OW75508  11.127  11.289  14.665
91204SOL    HW175509  11.169  11.226  14.607
91204SOL    HW275510  11.133  11.251  14.752
91205SOL     OW75511  11.263  11.730   3.086
91205SOL    HW175512  11.227  11.695   3.167
91205SOL    HW275513  11.188  11.739   3.027
91206SOL     OW75514   8.975  13.649   4.867
91206SOL    HW175515   8.958  13.731   4.821
91206SOL    HW275516   8.897  13.635   4.920
91207SOL     OW75517  12.110   2.702   3.014
91207SOL    HW175518  12.112   2.663   3.101
91207SOL    HW275519  12.200   2.731   2.999
91208SOL     OW75520   9.858   2.649   4.468
91208SOL    HW175521   9.798   2.626   4.397
91208SOL    HW275522   9.909   2.722   4.434
91209SOL     OW75523   0.636  13.687  13.795
91209SOL    HW175524   0.695  13.750  13.754
91209SOL    HW275525   0.668  13.679  13.885
91210SOL     OW75526   3.043   6.727   1.486
91210SOL    HW175527   3.083   6.712   1.572
91210SOL    HW275528   3.070   6.815   1.462
91211SOL     OW75529  11.950   8.892   4.324
91211SOL    HW175530  11.889   8.843   4.379
91211SOL    HW275531  12.022   8.916   4.383
91212SOL     OW75532   6.367  14.551   1.037
91212SOL    HW175533   6.289  14.534   1.091
91212SOL    HW275534   6.331  14.576   0.951
91213SOL     OW75535   1.942   9.262   8.142
91213SOL    HW175536   1.871   9.218   8.096
91213SOL    HW275537   2.003   9.192   8.165
91214SOL     OW75538  11.752   3.658   1.203
91214SOL    HW175539  11.704   3.578   1.184
91214SOL    HW275540  11.836   3.647   1.158
91215SOL     OW75541   7.556  12.473  11.391
91215SOL    HW175542   7.561  12.414  11.316
91215SOL    HW275543   7.642  12.515  11.394
91216SOL     OW75544   9.328   6.403   3.573
91216SOL    HW175545   9.394   6.344   3.537
91216SOL    HW275546   9.259   6.345   3.604
91217SOL     OW75547   2.133  10.164   7.826
91217SOL    HW175548   2.085  10.200   7.751
91217SOL    HW275549   2.217  10.135   7.790
91218SOL     OW75550  10.611  13.465   4.339
91218SOL    HW175551  10.664  13.545   4.339
91218SOL    HW275552  10.671  13.397   4.310
91219SOL     OW75553   9.187  12.142   6.036
91219SOL    HW175554   9.237  12.097   6.103
91219SOL    HW275555   9.144  12.071   5.987
91220SOL     OW75556   9.986  12.917  10.859
91220SOL    HW175557  10.071  12.960  10.851
91220SOL    HW275558   9.970  12.915  10.953
91221SOL     OW75559   0.953   0.110   8.932
91221SOL    HW175560   1.018   0.161   8.981
91221SOL    HW275561   0.918   0.049   8.997
91222SOL     OW75562  11.610   9.704   5.713
91222SOL    HW175563  11.678   9.763   5.682
91222SOL    HW275564  11.553   9.691   5.637
91223SOL     OW75565   8.539  10.500   7.962
91223SOL    HW175566   8.483  10.491   7.885
91223SOL    HW275567   8.590  10.580   7.945
91224SOL     OW75568   1.055   9.261   7.960
91224SOL    HW175569   1.086   9.250   8.050
91224SOL    HW275570   1.112   9.205   7.907
91225SOL     OW75571   5.684  13.450  12.158
91225SOL    HW175572   5.607  13.400  12.129
91225SOL    HW275573   5.730  13.390  12.217
91226SOL     OW75574  12.584   1.301   7.459
91226SOL    HW175575  12.583   1.386   7.416
91226SOL    HW275576  12.496   1.266   7.447
91227SOL     OW75577  13.669   1.007   9.426
91227SOL    HW175578  13.577   1.029   9.441
91227SOL    HW275579  13.672   0.912   9.422
91228SOL     OW75580   9.227   7.125  11.911
91228SOL    HW175581   9.311   7.163  11.935
91228SOL    HW275582   9.165   7.164  11.974
91229SOL     OW75583  10.206  13.271   0.944
91229SOL    HW175584  10.299  13.251   0.956
91229SOL    HW275585  10.162  13.187   0.956
91230SOL     OW75586   7.816   7.332  11.636
91230SOL    HW175587   7.895   7.315  11.686
91230SOL    HW275588   7.753   7.268  11.668
91231SOL     OW75589  11.878   0.363   5.207
91231SOL    HW175590  11.930   0.286   5.184
91231SOL    HW275591  11.831   0.337   5.287
91232SOL     OW75592  10.883   8.852   8.713
91232SOL    HW175593  10.905   8.772   8.759
91232SOL    HW275594  10.868   8.825   8.622
91233SOL     OW75595   1.312   7.018  14.783
91233SOL    HW175596   1.280   6.951  14.844
91233SOL    HW275597   1.258   7.094  14.800
91234SOL     OW75598   2.959   9.801   7.364
91234SOL    HW175599   2.873   9.819   7.326
91234SOL    HW275600   2.949   9.820   7.457
91235SOL     OW75601   8.713  10.363   8.919
91235SOL    HW175602   8.753  10.449   8.909
91235SOL    HW275603   8.684  10.339   8.831
91236SOL     OW75604   4.769   1.486   4.826
91236SOL    HW175605   4.743   1.558   4.883
91236SOL    HW275606   4.765   1.408   4.882
91237SOL     OW75607  13.873  11.938  13.615
91237SOL    HW175608  13.968  11.943  13.628
91237SOL    HW275609  13.842  11.877  13.682
91238SOL     OW75610   0.676   4.976   0.536
91238SOL    HW175611   0.641   4.954   0.622
91238SOL    HW275612   0.629   4.919   0.476
91239SOL     OW75613   9.357   4.774   6.996
91239SOL    HW175614   9.437   4.818   6.970
91239SOL    HW275615   9.356   4.693   6.946
91240SOL     OW75616  12.893  13.928   8.638
91240SOL    HW175617  12.825  13.944   8.704
91240SOL    HW275618  12.866  13.979   8.562
91241SOL     OW75619   4.428   2.905  11.993
91241SOL    HW175620   4.471   2.920  12.077
91241SOL    HW275621   4.480   2.837  11.950
91242SOL     OW75622  12.971   6.754   3.051
91242SOL    HW175623  12.942   6.823   3.111
91242SOL    HW275624  12.961   6.673   3.100
91243SOL     OW75625  11.668   3.446   7.391
91243SOL    HW175626  11.627   3.370   7.351
91243SOL    HW275627  11.679   3.423   7.483
91244SOL     OW75628   6.140   0.177   2.359
91244SOL    HW175629   6.046   0.194   2.366
91244SOL    HW275630   6.161   0.196   2.267
91245SOL     OW75631   4.349   7.722  11.425
91245SOL    HW175632   4.292   7.799  11.418
91245SOL    HW275633   4.295   7.650  11.393
91246SOL     OW75634   9.839   8.104  13.623
91246SOL    HW175635   9.874   8.075  13.707
91246SOL    HW275636   9.757   8.056  13.613
91247SOL     OW75637   1.018  12.483  10.411
91247SOL    HW175638   1.058  12.447  10.332
91247SOL    HW275639   1.088  12.533  10.452
91248SOL     OW75640  14.195   2.750   7.379
91248SOL    HW175641  14.148   2.681   7.332
91248SOL    HW275642  14.287   2.737   7.355
91249SOL     OW75643   5.476   4.686  12.352
91249SOL    HW175644   5.496   4.776  12.328
91249SOL    HW275645   5.536   4.633  12.300
91250SOL     OW75646  13.985   3.205  14.332
91250SOL    HW175647  13.902   3.174  14.368
91250SOL    HW275648  13.978   3.188  14.238
91251SOL     OW75649   5.943  10.525   6.285
91251SOL    HW175650   5.990  10.452   6.326
91251SOL    HW275651   5.910  10.488   6.202
91252SOL     OW75652   1.750   0.221   3.596
91252SOL    HW175653   1.794   0.235   3.680
91252SOL    HW275654   1.661   0.253   3.610
91253SOL     OW75655   9.758   5.095  13.069
91253SOL    HW175656   9.744   5.181  13.031
91253SOL    HW275657   9.681   5.081  13.126
91254SOL     OW75658   3.828  13.755   4.853
91254SOL    HW175659   3.888  13.797   4.915
91254SOL    HW275660   3.741  13.785   4.880
91255SOL     OW75661  13.130   8.147  13.962
91255SOL    HW175662  13.102   8.218  14.020
91255SOL    HW275663  13.071   8.152  13.887
91256SOL     OW75664   9.214   9.353   4.085
91256SOL    HW175665   9.238   9.284   4.023
91256SOL    HW275666   9.247   9.434   4.046
91257SOL     OW75667   5.581   5.188  12.814
91257SOL    HW175668   5.645   5.203  12.883
91257SOL    HW275669   5.631   5.196  12.733
91258SOL     OW75670   1.890   8.565   3.255
91258SOL    HW175671   1.844   8.632   3.203
91258SOL    HW275672   1.846   8.483   3.232
91259SOL     OW75673   3.149   3.715   8.572
91259SOL    HW175674   3.224   3.728   8.514
91259SOL    HW275675   3.076   3.754   8.525
91260SOL     OW75676  13.176   6.390   5.277
91260SOL    HW175677  13.114   6.464   5.279
91260SOL    HW275678  13.125   6.317   5.243
91261SOL     OW75679  11.854   5.193   6.053
91261SOL    HW175680  11.879   5.101   6.059
91261SOL    HW275681  11.761   5.194   6.079
91262SOL     OW75682   7.124   5.022  12.865
91262SOL    HW175683   7.046   4.967  12.875
91262SOL    HW275684   7.164   4.992  12.784
91263SOL     OW75685   4.618   2.954   7.814
91263SOL    HW175686   4.648   2.865   7.792
91263SOL    HW275687   4.595   2.950   7.906
91264SOL     OW75688   8.888  10.252   6.551
91264SOL    HW175689   8.950  10.233   6.480
91264SOL    HW275690   8.878  10.168   6.597
91265SOL     OW75691   7.864   9.313  14.370
91265SOL    HW175692   7.781   9.276  14.399
91265SOL    HW275693   7.863   9.302  14.275
91266SOL     OW75694   6.268   8.413   4.962
91266SOL    HW175695   6.343   8.469   4.942
91266SOL    HW275696   6.285   8.332   4.914
91267SOL     OW75697  11.777   8.526  11.742
91267SOL    HW175698  11.757   8.619  11.730
91267SOL    HW275699  11.872   8.522  11.750
91268SOL     OW75700   8.255   2.245   7.587
91268SOL    HW175701   8.342   2.269   7.620
91268SOL    HW275702   8.251   2.150   7.598
91269SOL     OW75703   8.018   7.990  14.017
91269SOL    HW175704   7.930   8.027  14.028
91269SOL    HW275705   8.017   7.952  13.929
91270SOL     OW75706  10.615   1.057  13.089
91270SOL    HW175707  10.590   1.150  13.085
91270SOL    HW275708  10.581   1.020  13.007
91271SOL     OW75709   2.236  12.294   2.784
91271SOL    HW175710   2.280  12.377   2.767
91271SOL    HW275711   2.303  12.239   2.824
91272SOL     OW75712  12.632   0.180   8.398
91272SOL    HW175713  12.674   0.169   8.312
91272SOL    HW275714  12.629   0.275   8.412
91273SOL     OW75715  10.381   2.287   3.797
91273SOL    HW175716  10.355   2.369   3.755
91273SOL    HW275717  10.406   2.230   3.724
91274SOL     OW75718   7.624   8.599  11.390
91274SOL    HW175719   7.683   8.673  11.390
91274SOL    HW275720   7.580   8.604  11.305
91275SOL     OW75721  13.994   7.254   8.048
91275SOL    HW175722  13.916   7.280   8.000
91275SOL    HW275723  14.052   7.330   8.043
91276SOL     OW75724   6.408   4.529  11.730
91276SOL    HW175725   6.406   4.569  11.643
91276SOL    HW275726   6.388   4.437  11.714
91277SOL     OW75727   3.476  13.956  12.636
91277SOL    HW175728   3.555  14.003  12.662
91277SOL    HW275729   3.420  14.023  12.598
91278SOL     OW75730   8.840   6.382  11.543
91278SOL    HW175731   8.859   6.363  11.451
91278SOL    HW275732   8.824   6.476  11.545
91279SOL     OW75733  10.497   5.541   6.174
91279SOL    HW175734  10.486   5.636   6.174
91279SOL    HW275735  10.584   5.527   6.136
91280SOL     OW75736   7.667  11.806  10.598
91280SOL    HW175737   7.697  11.800  10.508
91280SOL    HW275738   7.664  11.715  10.628
91281SOL     OW75739   9.893   6.056   7.026
91281SOL    HW175740   9.960   6.085   7.088
91281SOL    HW275741   9.905   5.961   7.021
91282SOL     OW75742   8.682   8.961   4.231
91282SOL    HW175743   8.640   9.040   4.266
91282SOL    HW275744   8.723   8.921   4.307
91283SOL     OW75745   3.092   4.956   6.408
91283SOL    HW175746   3.075   5.014   6.482
91283SOL    HW275747   3.187   4.958   6.397
91284SOL     OW75748  10.641   8.308  13.055
91284SOL    HW175749  10.585   8.343  13.125
91284SOL    HW275750  10.593   8.329  12.975
91285SOL     OW75751   1.451   8.146  12.214
91285SOL    HW175752   1.467   8.204  12.288
91285SOL    HW275753   1.358   8.156  12.195
91286SOL     OW75754   4.477  11.597   1.110
91286SOL    HW175755   4.437  11.565   1.029
91286SOL    HW275756   4.525  11.521   1.144
91287SOL     OW75757   1.448   7.873   7.938
91287SOL    HW175758   1.362   7.914   7.948
91287SOL    HW275759   1.429   7.789   7.896
91288SOL     OW75760  10.047   2.491  10.969
91288SOL    HW175761  10.027   2.520  10.880
91288SOL    HW275762  10.063   2.572  11.017
91289SOL     OW75763  14.520   6.982   0.210
91289SOL    HW175764  14.427   6.978   0.232
91289SOL    HW275765  14.523   7.024   0.124
91290SOL     OW75766  14.657   4.278   0.557
91290SOL    HW175767  14.616   4.272   0.644
91290SOL    HW275768  14.701   4.194   0.546
91291SOL     OW75769   9.305   1.049   8.768
91291SOL    HW175770   9.259   1.087   8.694
91291SOL    HW275771   9.276   1.100   8.844
91292SOL     OW75772  11.512  11.284   1.307
91292SOL    HW175773  11.464  11.203   1.320
91292SOL    HW275774  11.462  11.332   1.241
91293SOL     OW75775  10.290   5.387   6.306
91293SOL    HW175776  10.248   5.431   6.380
91293SOL    HW275777  10.314   5.458   6.247
91294SOL     OW75778   3.471  11.744   5.699
91294SOL    HW175779   3.473  11.678   5.768
91294SOL    HW275780   3.378  11.754   5.678
91295SOL     OW75781  10.595   8.258  11.096
91295SOL    HW175782  10.595   8.184  11.158
91295SOL    HW275783  10.572   8.334  11.149
91296SOL     OW75784   4.419  12.472   5.344
91296SOL    HW175785   4.509  12.446   5.363
91296SOL    HW275786   4.427  12.559   5.306
91297SOL     OW75787   7.043  12.516   7.643
91297SOL    HW175788   7.119  12.574   7.647
91297SOL    HW275789   6.971  12.574   7.617
91298SOL     OW75790   7.738  12.583   3.216
91298SOL    HW175791   7.728  12.673   3.186
91298SOL    HW275792   7.678  12.575   3.290
91299SOL     OW75793   6.486   6.985  10.672
91299SOL    HW175794   6.564   7.029  10.705
91299SOL    HW275795   6.452   6.935  10.746
91300SOL     OW75796   9.230   6.280   9.746
91300SOL    HW175797   9.203   6.227   9.821
91300SOL    HW275798   9.202   6.369   9.768
91301SOL     OW75799   7.527   0.207   5.093
91301SOL    HW175800   7.574   0.283   5.127
91301SOL    HW275801   7.550   0.204   5.000
91302SOL     OW75802  11.418   3.446   7.141
91302SOL    HW175803  11.390   3.389   7.212
91302SOL    HW275804  11.399   3.535   7.172
91303SOL     OW75805  11.593   7.156   0.824
91303SOL    HW175806  11.674   7.121   0.862
91303SOL    HW275807  11.559   7.084   0.770
91304SOL     OW75808   0.615   1.717  14.066
91304SOL    HW175809   0.608   1.748  13.976
91304SOL    HW275810   0.536   1.665  14.080
91305SOL     OW75811   7.553   4.175  14.294
91305SOL    HW175812   7.594   4.097  14.330
91305SOL    HW275813   7.624   4.221  14.250
91306SOL     OW75814   0.296   8.536  12.491
91306SOL    HW175815   0.298   8.583  12.408
91306SOL    HW275816   0.209   8.554  12.527
91307SOL     OW75817   9.719  14.879   3.277
91307SOL    HW175818   9.708  14.796   3.324
91307SOL    HW275819   9.733   0.056   3.345
91308SOL     OW75820   0.488   0.753   7.519
91308SOL    HW175821   0.560   0.690   7.521
91308SOL    HW275822   0.415   0.706   7.561
91309SOL     OW75823   5.779  11.242   8.728
91309SOL    HW175824   5.698  11.211   8.689
91309SOL    HW275825   5.830  11.162   8.745
91310SOL     OW75826   6.560   2.978   0.137
91310SOL    HW175827   6.642   2.962   0.184
91310SOL    HW275828   6.494   2.932   0.189
91311SOL     OW75829  14.081   4.644   8.911
91311SOL    HW175830  14.152   4.688   8.956
91311SOL    HW275831  14.122   4.607   8.832
91312SOL     OW75832   5.615   7.159   0.893
91312SOL    HW175833   5.590   7.217   0.966
91312SOL    HW275834   5.641   7.078   0.936
91313SOL     OW75835  11.991   1.908  14.150
91313SOL    HW175836  11.915   1.899  14.207
91313SOL    HW275837  11.964   1.971  14.084
91314SOL     OW75838   9.023   4.449  13.844
91314SOL    HW175839   9.017   4.544  13.833
91314SOL    HW275840   9.000   4.434  13.935
91315SOL     OW75841  13.025  13.011  14.865
91315SOL    HW175842  12.944  13.055  14.839
91315SOL    HW275843  13.094  13.058  14.818
91316SOL     OW75844   0.132   0.772   6.232
91316SOL    HW175845   0.082   0.765   6.313
91316SOL    HW275846   0.066   0.767   6.163
91317SOL     OW75847  11.729   0.361  14.120
91317SOL    HW175848  11.819   0.393  14.111
91317SOL    HW275849  11.714   0.309  14.041
91318SOL     OW75850   0.454   1.586   1.136
91318SOL    HW175851   0.441   1.540   1.054
91318SOL    HW275852   0.380   1.646   1.143
91319SOL     OW75853  12.093   8.474  12.668
91319SOL    HW175854  11.998   8.480  12.677
91319SOL    HW275855  12.112   8.519  12.586
91320SOL     OW75856   0.503   7.844   0.765
91320SOL    HW175857   0.581   7.796   0.735
91320SOL    HW275858   0.538   7.925   0.803
91321SOL     OW75859   7.212   2.748  11.240
91321SOL    HW175860   7.174   2.823  11.193
91321SOL    HW275861   7.293   2.729  11.194
91322SOL     OW75862   9.720  13.231   9.913
91322SOL    HW175863   9.696  13.261  10.000
91322SOL    HW275864   9.773  13.303   9.877
91323SOL     OW75865   2.883  14.741  13.292
91323SOL    HW175866   2.923  14.690  13.362
91323SOL    HW275867   2.929  14.713  13.213
91324SOL     OW75868  11.784  14.155   4.754
91324SOL    HW175869  11.743  14.240   4.739
91324SOL    HW275870  11.815  14.127   4.668
91325SOL     OW75871   4.701  11.499   6.000
91325SOL    HW175872   4.702  11.483   5.905
91325SOL    HW275873   4.671  11.416   6.037
91326SOL     OW75874  12.836  11.411  11.714
91326SOL    HW175875  12.762  11.351  11.723
91326SOL    HW275876  12.848  11.421  11.619
91327SOL     OW75877  12.274   6.023   8.020
91327SOL    HW175878  12.310   6.061   7.940
91327SOL    HW275879  12.192   6.071   8.035
91328SOL     OW75880   1.685   5.573   9.810
91328SOL    HW175881   1.625   5.567   9.884
91328SOL    HW275882   1.649   5.643   9.756
91329SOL     OW75883   8.315  14.645   1.879
91329SOL    HW175884   8.273  14.561   1.895
91329SOL    HW275885   8.376  14.656   1.952
91330SOL     OW75886   4.436   4.392  10.910
91330SOL    HW175887   4.386   4.318  10.944
91330SOL    HW275888   4.428   4.459  10.978
91331SOL     OW75889   2.819   1.121  11.894
91331SOL    HW175890   2.876   1.064  11.843
91331SOL    HW275891   2.876   1.191  11.924
91332SOL     OW75892   8.627  12.921   7.291
91332SOL    HW175893   8.611  13.011   7.264
91332SOL    HW275894   8.540  12.885   7.309
91333SOL     OW75895  13.735  14.590  14.639
91333SOL    HW175896  13.652  14.631  14.614
91333SOL    HW275897  13.719  14.496  14.628
91334SOL     OW75898   1.339  10.441  11.128
91334SOL    HW175899   1.280  10.472  11.059
91334SOL    HW275900   1.421  10.423  11.082
91335SOL     OW75901   6.329   5.691   8.462
91335SOL    HW175902   6.360   5.744   8.388
91335SOL    HW275903   6.390   5.711   8.533
91336SOL     OW75904   4.791  13.673   3.191
91336SOL    HW175905   4.757  13.630   3.270
91336SOL    HW275906   4.715  13.716   3.152
91337SOL     OW75907   1.422   1.682  11.189
91337SOL    HW175908   1.510   1.687  11.225
91337SOL    HW275909   1.409   1.766  11.146
91338SOL     OW75910   5.733  11.533   3.250
91338SOL    HW175911   5.668  11.556   3.184
91338SOL    HW275912   5.690  11.552   3.334
91339SOL     OW75913  10.304  12.941   9.287
91339SOL    HW175914  10.356  12.896   9.220
91339SOL    HW275915  10.283  13.026   9.248
91340SOL     OW75916   2.742   2.850   6.160
91340SOL    HW175917   2.731   2.936   6.119
91340SOL    HW275918   2.742   2.788   6.087
91341SOL     OW75919  10.374   1.734   6.275
91341SOL    HW175920  10.350   1.680   6.200
91341SOL    HW275921  10.469   1.744   6.268
91342SOL     OW75922   8.518  11.306   8.643
91342SOL    HW175923   8.456  11.240   8.612
91342SOL    HW275924   8.464  11.368   8.692
91343SOL     OW75925   9.794  10.000   7.186
91343SOL    HW175926   9.771   9.907   7.180
91343SOL    HW275927   9.710  10.046   7.186
91344SOL     OW75928   2.885   8.268  13.434
91344SOL    HW175929   2.939   8.344  13.416
91344SOL    HW275930   2.922   8.199  13.379
91345SOL     OW75931   1.962  13.714  11.267
91345SOL    HW175932   1.899  13.700  11.197
91345SOL    HW275933   2.005  13.797  11.245
91346SOL     OW75934   1.842   8.939   0.988
91346SOL    HW175935   1.845   9.015   1.047
91346SOL    HW275936   1.838   8.863   1.047
91347SOL     OW75937   9.247  14.430   6.606
91347SOL    HW175938   9.195  14.441   6.526
91347SOL    HW275939   9.231  14.339   6.632
91348SOL     OW75940   3.628   0.887   2.111
91348SOL    HW175941   3.699   0.859   2.169
91348SOL    HW275942   3.665   0.882   2.023
91349SOL     OW75943   4.071   3.257   8.378
91349SOL    HW175944   3.992   3.272   8.326
91349SOL    HW275945   4.040   3.249   8.468
91350SOL     OW75946   6.870   4.561   2.702
91350SOL    HW175947   6.857   4.583   2.795
91350SOL    HW275948   6.867   4.466   2.699
91351SOL     OW75949  12.212  14.849   5.742
91351SOL    HW175950  12.166  14.840   5.825
91351SOL    HW275951  12.177  14.777   5.688
91352SOL     OW75952   7.733   0.883   4.769
91352SOL    HW175953   7.705   0.970   4.739
91352SOL    HW275954   7.695   0.822   4.706
91353SOL     OW75955   1.744   2.402   3.468
91353SOL    HW175956   1.807   2.430   3.535
91353SOL    HW275957   1.662   2.445   3.494
91354SOL     OW75958   1.442   3.867  10.548
91354SOL    HW175959   1.483   3.884  10.632
91354SOL    HW275960   1.358   3.914  10.552
91355SOL     OW75961   3.494   8.710  10.396
91355SOL    HW175962   3.580   8.695  10.357
91355SOL    HW275963   3.472   8.628  10.440
91356SOL     OW75964   5.287   9.041   5.997
91356SOL    HW175965   5.294   9.008   6.086
91356SOL    HW275966   5.376   9.036   5.962
91357SOL     OW75967   2.696   5.772   7.430
91357SOL    HW175968   2.788   5.781   7.456
91357SOL    HW275969   2.656   5.855   7.456
91358SOL     OW75970   9.276   8.953   5.227
91358SOL    HW175971   9.186   8.947   5.195
91358SOL    HW275972   9.277   8.902   5.308
91359SOL     OW75973   9.530   3.095   1.388
91359SOL    HW175974   9.449   3.046   1.404
91359SOL    HW275975   9.555   3.072   1.299
91360SOL     OW75976  11.131   0.934   1.493
91360SOL    HW175977  11.224   0.920   1.511
91360SOL    HW275978  11.111   0.875   1.421
91361SOL     OW75979  13.421   7.050   6.252
91361SOL    HW175980  13.496   7.034   6.194
91361SOL    HW275981  13.346   7.059   6.192
91362SOL     OW75982   0.004   4.723   6.881
91362SOL    HW175983  14.834   4.679   6.819
91362SOL    HW275984   0.002   4.667   6.959
91363SOL     OW75985   0.024   1.849   4.119
91363SOL    HW175986  14.870   1.826   4.202
91363SOL    HW275987   0.117   1.828   4.132
91364SOL     OW75988   4.050   4.001   9.219
91364SOL    HW175989   4.129   3.949   9.208
91364SOL    HW275990   4.079   4.080   9.265
91365SOL     OW75991   3.979   8.693   9.754
91365SOL    HW175992   3.973   8.600   9.732
91365SOL    HW275993   3.889   8.723   9.760
91366SOL     OW75994  10.116   6.515   7.615
91366SOL    HW175995  10.081   6.596   7.578
91366SOL    HW275996  10.090   6.517   7.707
91367SOL     OW75997  12.540   6.609  14.526
91367SOL    HW175998  12.607   6.667  14.490
91367SOL    HW275999  12.515   6.554  14.452
91368SOL     OW76000   9.813   6.375   1.930
91368SOL    HW176001   9.805   6.438   2.002
91368SOL    HW276002   9.838   6.293   1.972
91369SOL     OW76003   0.887  12.353  11.997
91369SOL    HW176004   0.857  12.394  11.915
91369SOL    HW276005   0.870  12.259  11.984
91370SOL     OW76006   1.926   1.447   0.744
91370SOL    HW176007   1.844   1.401   0.726
91370SOL    HW276008   1.994   1.388   0.712
91371SOL     OW76009  11.650  11.466  13.763
91371SOL    HW176010  11.604  11.383  13.757
91371SOL    HW276011  11.719  11.459  13.697
91372SOL     OW76012   0.173   4.232  11.233
91372SOL    HW176013   0.132   4.164  11.180
91372SOL    HW276014   0.238   4.187  11.285
91373SOL     OW76015  13.725   6.026   9.025
91373SOL    HW176016  13.731   5.949   9.082
91373SOL    HW276017  13.815   6.057   9.017
91374SOL     OW76018   8.785  14.472   5.342
91374SOL    HW176019   8.786  14.560   5.305
91374SOL    HW276020   8.717  14.426   5.291
91375SOL     OW76021   8.210   2.317   0.586
91375SOL    HW176022   8.265   2.392   0.605
91375SOL    HW276023   8.166   2.297   0.668
91376SOL     OW76024   6.555  11.869   0.439
91376SOL    HW176025   6.528  11.898   0.352
91376SOL    HW276026   6.641  11.829   0.426
91377SOL     OW76027   6.557   1.237   5.146
91377SOL    HW176028   6.503   1.260   5.070
91377SOL    HW276029   6.494   1.216   5.215
91378SOL     OW76030  14.347   5.302  10.911
91378SOL    HW176031  14.256   5.298  10.942
91378SOL    HW276032  14.399   5.274  10.986
91379SOL     OW76033   1.837   9.228  11.411
91379SOL    HW176034   1.836   9.188  11.498
91379SOL    HW276035   1.926   9.262  11.402
91380SOL     OW76036   1.545   8.866  12.154
91380SOL    HW176037   1.471   8.910  12.112
91380SOL    HW276038   1.548   8.902  12.242
91381SOL     OW76039   6.291   4.782   2.483
91381SOL    HW176040   6.230   4.851   2.456
91381SOL    HW276041   6.252   4.746   2.563
91382SOL     OW76042  13.969  10.947  10.241
91382SOL    HW176043  13.917  10.969  10.164
91382SOL    HW276044  13.950  10.855  10.257
91383SOL     OW76045  10.451  11.955   3.356
91383SOL    HW176046  10.424  12.016   3.288
91383SOL    HW276047  10.370  11.915   3.387
91384SOL     OW76048  10.275   1.772   3.971
91384SOL    HW176049  10.237   1.723   3.899
91384SOL    HW276050  10.353   1.813   3.934
91385SOL     OW76051  10.512   6.217   0.892
91385SOL    HW176052  10.563   6.297   0.881
91385SOL    HW276053  10.438   6.242   0.948
91386SOL     OW76054   4.347   5.768  14.331
91386SOL    HW176055   4.365   5.788  14.423
91386SOL    HW276056   4.300   5.844  14.298
91387SOL     OW76057   8.433  13.318  13.620
91387SOL    HW176058   8.423  13.413  13.616
91387SOL    HW276059   8.528  13.303  13.620
91388SOL     OW76060   4.180   3.024  11.924
91388SOL    HW176061   4.144   3.053  12.007
91388SOL    HW276062   4.275   3.018  11.939
91389SOL     OW76063   4.319   6.994   0.954
91389SOL    HW176064   4.261   7.056   0.997
91389SOL    HW276065   4.398   6.993   1.008
91390SOL     OW76066  10.383   3.813   1.375
91390SOL    HW176067  10.411   3.736   1.326
91390SOL    HW276068  10.362   3.878   1.308
91391SOL     OW76069  13.305   2.407   4.951
91391SOL    HW176070  13.342   2.379   5.035
91391SOL    HW276071  13.239   2.473   4.974
91392SOL     OW76072  11.351   3.086   2.712
91392SOL    HW176073  11.420   3.107   2.775
91392SOL    HW276074  11.286   3.155   2.724
91393SOL     OW76075   4.036   4.576   4.588
91393SOL    HW176076   4.102   4.645   4.589
91393SOL    HW276077   4.012   4.564   4.680
91394SOL     OW76078   6.979   4.208   8.332
91394SOL    HW176079   7.021   4.141   8.386
91394SOL    HW276080   6.900   4.165   8.298
91395SOL     OW76081   9.537   5.772   8.441
91395SOL    HW176082   9.522   5.862   8.470
91395SOL    HW276083   9.460   5.751   8.388
91396SOL     OW76084   2.209   7.473   7.167
91396SOL    HW176085   2.128   7.426   7.146
91396SOL    HW276086   2.235   7.439   7.253
91397SOL     OW76087   2.591  11.185  13.448
91397SOL    HW176088   2.532  11.121  13.408
91397SOL    HW276089   2.535  11.257  13.474
91398SOL     OW76090  14.312   8.686  11.441
91398SOL    HW176091  14.347   8.627  11.508
91398SOL    HW276092  14.236   8.726  11.482
91399SOL     OW76093   0.981  10.208   5.860
91399SOL    HW176094   1.047  10.139   5.848
91399SOL    HW276095   0.925  10.175   5.930
91400SOL     OW76096   4.582   5.222   8.626
91400SOL    HW176097   4.665   5.267   8.611
91400SOL    HW276098   4.538   5.222   8.541
91401SOL     OW76099   5.853   2.405   9.626
91401SOL    HW176100   5.831   2.467   9.695
91401SOL    HW276101   5.812   2.323   9.653
91402SOL     OW76102   7.379  13.812  11.576
91402SOL    HW176103   7.304  13.870  11.589
91402SOL    HW276104   7.448  13.869  11.541
91403SOL     OW76105  11.494  13.936  12.764
91403SOL    HW176106  11.549  13.858  12.767
91403SOL    HW276107  11.519  13.979  12.683
91404SOL     OW76108  12.508   2.057  13.249
91404SOL    HW176109  12.469   1.979  13.289
91404SOL    HW276110  12.603   2.043  13.259
91405SOL     OW76111  10.360   8.925   8.055
91405SOL    HW176112  10.400   8.957   8.136
91405SOL    HW276113  10.363   8.829   8.063
91406SOL     OW76114   8.395  13.632   0.459
91406SOL    HW176115   8.333  13.678   0.516
91406SOL    HW276116   8.467  13.607   0.517
91407SOL     OW76117  14.849   7.385  12.001
91407SOL    HW176118  14.842   7.290  11.991
91407SOL    HW276119  14.759   7.416  11.999
91408SOL     OW76120  12.982   8.923   9.691
91408SOL    HW176121  13.009   8.832   9.675
91408SOL    HW276122  13.059   8.975   9.668
91409SOL     OW76123   5.929   3.530   8.154
91409SOL    HW176124   5.871   3.563   8.222
91409SOL    HW276125   5.976   3.458   8.196
91410SOL     OW76126   1.957  13.182   8.884
91410SOL    HW176127   2.039  13.137   8.905
91410SOL    HW276128   1.925  13.137   8.806
91411SOL     OW76129  11.077  12.861   5.379
91411SOL    HW176130  11.060  12.934   5.438
91411SOL    HW276131  11.086  12.901   5.293
91412SOL     OW76132   3.701  14.657   0.164
91412SOL    HW176133   3.641  14.687   0.233
91412SOL    HW276134   3.770  14.723   0.163
91413SOL     OW76135  12.768  11.855   5.437
91413SOL    HW176136  12.710  11.923   5.402
91413SOL    HW276137  12.779  11.794   5.364
91414SOL     OW76138   3.779   8.213   2.536
91414SOL    HW176139   3.786   8.291   2.480
91414SOL    HW276140   3.762   8.248   2.624
91415SOL     OW76141   5.134  13.752  12.280
91415SOL    HW176142   5.211  13.737  12.225
91415SOL    HW276143   5.143  13.843  12.309
91416SOL     OW76144   4.578   1.961   7.152
91416SOL    HW176145   4.646   1.933   7.091
91416SOL    HW276146   4.497   1.923   7.117
91417SOL     OW76147   3.051  14.285  10.813
91417SOL    HW176148   3.127  14.341  10.830
91417SOL    HW276149   3.001  14.333  10.747
91418SOL     OW76150   6.747   4.879   9.540
91418SOL    HW176151   6.749   4.918   9.627
91418SOL    HW276152   6.721   4.788   9.555
91419SOL     OW76153  11.898  13.708   2.245
91419SOL    HW176154  11.937  13.651   2.179
91419SOL    HW276155  11.951  13.788   2.242
91420SOL     OW76156  10.986   8.944   0.694
91420SOL    HW176157  11.036   9.016   0.733
91420SOL    HW276158  11.037   8.866   0.715
91421SOL     OW76159  14.146   5.990   8.309
91421SOL    HW176160  14.056   5.965   8.285
91421SOL    HW276161  14.167   6.062   8.249
91422SOL     OW76162  12.443  11.561   7.017
91422SOL    HW176163  12.419  11.653   7.006
91422SOL    HW276164  12.392  11.532   7.093
91423SOL     OW76165  13.632  14.576  10.557
91423SOL    HW176166  13.572  14.644  10.586
91423SOL    HW276167  13.707  14.623  10.522
91424SOL     OW76168   3.992   8.607  12.726
91424SOL    HW176169   4.012   8.700  12.738
91424SOL    HW276170   3.937   8.584  12.801
91425SOL     OW76171   9.050  11.786   8.170
91425SOL    HW176172   9.024  11.703   8.128
91425SOL    HW276173   9.145  11.782   8.172
91426SOL     OW76174   2.277   6.791   0.716
91426SOL    HW176175   2.184   6.772   0.726
91426SOL    HW276176   2.321   6.726   0.771
91427SOL     OW76177   6.235   6.529   0.015
91427SOL    HW176178   6.252   6.436   0.029
91427SOL    HW276179   6.288   6.551  14.826
91428SOL     OW76180   8.045   5.790  14.860
91428SOL    HW176181   8.043   5.696  14.840
91428SOL    HW276182   7.986   5.800   0.047
91429SOL     OW76183   2.738   2.926   8.282
91429SOL    HW176184   2.827   2.958   8.269
91429SOL    HW276185   2.718   2.876   8.203
91430SOL     OW76186   4.967  14.613   2.135
91430SOL    HW176187   4.926  14.683   2.185
91430SOL    HW276188   4.921  14.534   2.162
91431SOL     OW76189  12.925   8.164   2.944
91431SOL    HW176190  12.868   8.096   2.979
91431SOL    HW276191  12.978   8.121   2.877
91432SOL     OW76192   6.147   1.053   3.292
91432SOL    HW176193   6.107   1.097   3.367
91432SOL    HW276194   6.176   0.968   3.326
91433SOL     OW76195   2.241  13.482  10.499
91433SOL    HW176196   2.281  13.445  10.577
91433SOL    HW276197   2.303  13.462  10.429
91434SOL     OW76198  10.063   1.880  13.967
91434SOL    HW176199  10.002   1.824  13.918
91434SOL    HW276200  10.149   1.843  13.950
91435SOL     OW76201  12.583   5.321   5.517
91435SOL    HW176202  12.557   5.259   5.447
91435SOL    HW276203  12.622   5.265   5.584
91436SOL     OW76204   5.056  10.979   6.169
91436SOL    HW176205   5.013  11.038   6.231
91436SOL    HW276206   4.987  10.955   6.107
91437SOL     OW76207   2.479   5.015   9.293
91437SOL    HW176208   2.561   5.064   9.288
91437SOL    HW276209   2.449   5.010   9.202
91438SOL     OW76210   0.003  11.926   2.132
91438SOL    HW176211   0.034  12.015   2.113
91438SOL    HW276212  14.835  11.936   2.209
91439SOL     OW76213   4.723   6.941  11.560
91439SOL    HW176214   4.753   7.026  11.593
91439SOL    HW276215   4.699   6.959  11.469
91440SOL     OW76216   7.544  11.002   4.019
91440SOL    HW176217   7.521  11.028   3.930
91440SOL    HW276218   7.628  11.046   4.035
91441SOL     OW76219  10.208   3.962   8.645
91441SOL    HW176220  10.285   4.020   8.644
91441SOL    HW276221  10.167   3.975   8.560
91442SOL     OW76222   8.657  11.150   1.861
91442SOL    HW176223   8.717  11.149   1.786
91442SOL    HW276224   8.693  11.216   1.920
91443SOL     OW76225  10.841  13.381   2.142
91443SOL    HW176226  10.818  13.288   2.139
91443SOL    HW276227  10.776  13.420   2.200
91444SOL     OW76228   1.239  10.094  14.860
91444SOL    HW176229   1.174  10.123   0.037
91444SOL    HW276230   1.250  10.169  14.802
91445SOL     OW76231   1.508   2.573   7.945
91445SOL    HW176232   1.501   2.566   7.850
91445SOL    HW276233   1.432   2.524   7.978
91446SOL     OW76234   8.606   1.691   9.572
91446SOL    HW176235   8.651   1.733   9.499
91446SOL    HW276236   8.513   1.697   9.551
91447SOL     OW76237  12.632   4.944   0.352
91447SOL    HW176238  12.548   4.918   0.313
91447SOL    HW276239  12.692   4.873   0.329
91448SOL     OW76240   9.533  11.704  10.136
91448SOL    HW176241   9.500  11.622  10.173
91448SOL    HW276242   9.479  11.771  10.176
91449SOL     OW76243   5.133   0.722  14.879
91449SOL    HW176244   5.200   0.675  14.830
91449SOL    HW276245   5.058   0.662  14.881
91450SOL     OW76246   1.042   6.221   7.344
91450SOL    HW176247   1.114   6.175   7.387
91450SOL    HW276248   1.011   6.284   7.409
91451SOL     OW76249   5.524   6.546   5.645
91451SOL    HW176250   5.511   6.452   5.635
91451SOL    HW276251   5.495   6.565   5.734
91452SOL     OW76252   9.503   0.178  12.081
91452SOL    HW176253   9.440   0.177  12.154
91452SOL    HW276254   9.511   0.086  12.056
91453SOL     OW76255   3.889  14.628   3.853
91453SOL    HW176256   3.876  14.721   3.835
91453SOL    HW276257   3.963  14.625   3.914
91454SOL     OW76258   1.467  11.681  12.918
91454SOL    HW176259   1.402  11.751  12.911
91454SOL    HW276260   1.416  11.601  12.903
91455SOL     OW76261   7.423   6.773   0.213
91455SOL    HW176262   7.457   6.855   0.248
91455SOL    HW276263   7.354   6.747   0.274
91456SOL     OW76264   6.097  10.897  13.302
91456SOL    HW176265   6.016  10.895  13.353
91456SOL    HW276266   6.138  10.980  13.325
91457SOL     OW76267   3.819  11.533   9.133
91457SOL    HW176268   3.783  11.515   9.219
91457SOL    HW276269   3.822  11.629   9.127
91458SOL     OW76270  13.412   5.614   9.739
91458SOL    HW176271  13.428   5.669   9.816
91458SOL    HW276272  13.495   5.568   9.725
91459SOL     OW76273   1.913   4.446   8.096
91459SOL    HW176274   1.821   4.460   8.070
91459SOL    HW276275   1.959   4.522   8.060
91460SOL     OW76276  14.018   3.408   8.845
91460SOL    HW176277  13.969   3.368   8.917
91460SOL    HW276278  14.103   3.429   8.883
91461SOL     OW76279   4.419   4.666   5.926
91461SOL    HW176280   4.378   4.750   5.945
91461SOL    HW276281   4.437   4.628   6.013
91462SOL     OW76282  14.459  10.256   5.830
91462SOL    HW176283  14.510  10.181   5.860
91462SOL    HW276284  14.517  10.300   5.767
91463SOL     OW76285  13.606  12.817   1.216
91463SOL    HW176286  13.681  12.869   1.187
91463SOL    HW276287  13.531  12.876   1.204
91464SOL     OW76288   7.723   3.282  14.119
91464SOL    HW176289   7.760   3.219  14.181
91464SOL    HW276290   7.635   3.250  14.102
91465SOL     OW76291  12.912   2.926   9.438
91465SOL    HW176292  12.857   2.920   9.516
91465SOL    HW276293  12.913   3.020   9.418
91466SOL     OW76294   8.787   7.330   4.456
91466SOL    HW176295   8.846   7.404   4.442
91466SOL    HW276296   8.844   7.260   4.488
91467SOL     OW76297   9.699  12.064   0.205
91467SOL    HW176298   9.621  12.010   0.189
91467SOL    HW276299   9.665  12.145   0.243
91468SOL     OW76300   3.829   6.934   3.163
91468SOL    HW176301   3.876   6.931   3.080
91468SOL    HW276302   3.752   6.879   3.150
91469SOL     OW76303   6.552  14.339   6.326
91469SOL    HW176304   6.628  14.344   6.269
91469SOL    HW276305   6.588  14.328   6.414
91470SOL     OW76306  13.677  11.825   6.637
91470SOL    HW176307  13.670  11.799   6.545
91470SOL    HW276308  13.609  11.891   6.648
91471SOL     OW76309   2.818   4.330   0.962
91471SOL    HW176310   2.771   4.325   1.046
91471SOL    HW276311   2.909   4.314   0.984
91472SOL     OW76312   9.255  10.748  12.159
91472SOL    HW176313   9.197  10.686  12.114
91472SOL    HW276314   9.211  10.832  12.152
91473SOL     OW76315   3.316   6.089   9.745
91473SOL    HW176316   3.232   6.118   9.778
91473SOL    HW276317   3.355   6.040   9.817
91474SOL     OW76318   9.965  11.789  13.974
91474SOL    HW176319   9.926  11.724  13.915
91474SOL    HW276320  10.060  11.779  13.960
91475SOL     OW76321   5.601  11.638   8.249
91475SOL    HW176322   5.522  11.666   8.203
91475SOL    HW276323   5.633  11.718   8.291
91476SOL     OW76324   2.278   3.684   3.277
91476SOL    HW176325   2.343   3.617   3.257
91476SOL    HW276326   2.245   3.660   3.363
91477SOL     OW76327   8.928  12.599   8.327
91477SOL    HW176328   8.954  12.528   8.268
91477SOL    HW276329   8.902  12.554   8.408
91478SOL     OW76330  10.291   7.258  11.519
91478SOL    HW176331  10.259   7.226  11.603
91478SOL    HW276332  10.379   7.220  11.512
91479SOL     OW76333   2.940   3.614  13.401
91479SOL    HW176334   2.867   3.644  13.456
91479SOL    HW276335   2.971   3.534  13.444
91480SOL     OW76336   9.905   3.225   9.529
91480SOL    HW176337   9.998   3.203   9.527
91480SOL    HW276338   9.877   3.203   9.618
91481SOL     OW76339  13.900  14.767   2.274
91481SOL    HW176340  13.977  14.807   2.314
91481SOL    HW276341  13.933  14.688   2.231
91482SOL     OW76342   2.534  12.246   1.166
91482SOL    HW176343   2.626  12.267   1.156
91482SOL    HW276344   2.490  12.295   1.096
91483SOL     OW76345   6.729   1.923   7.943
91483SOL    HW176346   6.668   1.946   8.012
91483SOL    HW276347   6.683   1.944   7.862
91484SOL     OW76348   9.496   4.315   5.027
91484SOL    HW176349   9.549   4.283   5.100
91484SOL    HW276350   9.406   4.311   5.060
91485SOL     OW76351   4.495   0.620  10.576
91485SOL    HW176352   4.483   0.701  10.526
91485SOL    HW276353   4.420   0.566  10.552
91486SOL     OW76354  14.808   9.727  10.532
91486SOL    HW176355  14.776   9.769  10.612
91486SOL    HW276356   0.016   9.730  10.539
91487SOL     OW76357   2.892   3.212   0.889
91487SOL    HW176358   2.951   3.259   0.830
91487SOL    HW276359   2.905   3.120   0.867
91488SOL     OW76360  14.729   2.942   1.386
91488SOL    HW176361  14.798   2.964   1.323
91488SOL    HW276362  14.667   2.888   1.336
91489SOL     OW76363   5.531   7.026   5.426
91489SOL    HW176364   5.564   6.944   5.388
91489SOL    HW276365   5.582   7.094   5.383
91490SOL     OW76366   9.233   3.211   7.186
91490SOL    HW176367   9.244   3.301   7.157
91490SOL    HW276368   9.292   3.160   7.130
91491SOL     OW76369   7.530   4.692   8.929
91491SOL    HW176370   7.608   4.730   8.969
91491SOL    HW276371   7.546   4.598   8.931
91492SOL     OW76372   5.149   0.833   7.291
91492SOL    HW176373   5.215   0.803   7.229
91492SOL    HW276374   5.068   0.789   7.265
91493SOL     OW76375   3.953   6.565  10.113
91493SOL    HW176376   4.035   6.563  10.163
91493SOL    HW276377   3.955   6.486  10.061
91494SOL     OW76378   7.406   5.153   4.154
91494SOL    HW176379   7.323   5.122   4.116
91494SOL    HW276380   7.403   5.248   4.144
91495SOL     OW76381  10.302   6.763   3.703
91495SOL    HW176382  10.310   6.814   3.784
91495SOL    HW276383  10.375   6.701   3.707
91496SOL     OW76384   6.707   6.238  10.164
91496SOL    HW176385   6.703   6.181  10.087
91496SOL    HW276386   6.720   6.325  10.128
91497SOL     OW76387   8.291   1.268  10.927
91497SOL    HW176388   8.216   1.211  10.911
91497SOL    HW276389   8.350   1.214  10.980
91498SOL     OW76390  14.000   6.274   7.659
91498SOL    HW176391  14.087   6.250   7.693
91498SOL    HW276392  13.995   6.230   7.574
91499SOL     OW76393  11.483   1.295  10.652
91499SOL    HW176394  11.480   1.267  10.743
91499SOL    HW276395  11.447   1.221  10.603
91500SOL     OW76396  11.704   0.301  10.509
91500SOL    HW176397  11.772   0.282  10.444
91500SOL    HW276398  11.678   0.391  10.490
91501SOL     OW76399  10.704   0.084  11.922
91501SOL    HW176400  10.642   0.105  11.852
91501SOL    HW276401  10.690  14.879  11.940
91502SOL     OW76402   5.623  12.525   1.571
91502SOL    HW176403   5.616  12.465   1.644
91502SOL    HW276404   5.680  12.481   1.508
91503SOL     OW76405  11.162   8.384   6.637
91503SOL    HW176406  11.253   8.367   6.659
91503SOL    HW276407  11.118   8.300   6.650
91504SOL     OW76408   3.407   7.824  12.922
91504SOL    HW176409   3.376   7.738  12.948
91504SOL    HW276410   3.492   7.809  12.883
91505SOL     OW76411   4.906  14.241   9.717
91505SOL    HW176412   4.981  14.182   9.710
91505SOL    HW276413   4.830  14.186   9.697
91506SOL     OW76414   2.533   7.026   7.166
91506SOL    HW176415   2.491   7.000   7.248
91506SOL    HW276416   2.601   7.087   7.192
91507SOL     OW76417   6.493  11.047  14.052
91507SOL    HW176418   6.418  11.008  14.008
91507SOL    HW276419   6.459  11.080  14.135
91508SOL     OW76420  12.750   4.458   6.290
91508SOL    HW176421  12.757   4.547   6.254
91508SOL    HW276422  12.761   4.401   6.214
91509SOL     OW76423  13.680  13.782   9.947
91509SOL    HW176424  13.760  13.805   9.994
91509SOL    HW276425  13.666  13.855   9.886
91510SOL     OW76426   3.061   0.690   4.348
91510SOL    HW176427   3.152   0.720   4.347
91510SOL    HW276428   3.023   0.725   4.267
91511SOL     OW76429  14.479   9.134   0.866
91511SOL    HW176430  14.557   9.112   0.815
91511SOL    HW276431  14.414   9.160   0.800
91512SOL     OW76432   6.473   6.059   4.520
91512SOL    HW176433   6.541   6.101   4.572
91512SOL    HW276434   6.433   6.130   4.471
91513SOL     OW76435  10.744   4.531  13.977
91513SOL    HW176436  10.721   4.541  13.885
91513SOL    HW276437  10.714   4.612  14.019
91514SOL     OW76438   0.725  11.792   2.850
91514SOL    HW176439   0.788  11.861   2.871
91514SOL    HW276440   0.702  11.808   2.759
91515SOL     OW76441  10.055   7.618   2.924
91515SOL    HW176442  10.113   7.546   2.898
91515SOL    HW276443  10.105   7.697   2.904
91516SOL     OW76444   5.529   9.159   4.049
91516SOL    HW176445   5.514   9.196   4.136
91516SOL    HW276446   5.601   9.097   4.062
91517SOL     OW76447  13.536  13.381  12.607
91517SOL    HW176448  13.595  13.376  12.533
91517SOL    HW276449  13.570  13.452  12.661
91518SOL     OW76450  13.407  10.009   7.386
91518SOL    HW176451  13.374  10.030   7.299
91518SOL    HW276452  13.483  10.066   7.397
91519SOL     OW76453   0.199  10.655   7.264
91519SOL    HW176454   0.114  10.644   7.306
91519SOL    HW276455   0.211  10.575   7.213
91520SOL     OW76456  10.923   2.036   8.470
91520SOL    HW176457  10.975   2.036   8.390
91520SOL    HW276458  10.972   2.092   8.530
91521SOL     OW76459   6.199   9.612   5.636
91521SOL    HW176460   6.293   9.599   5.649
91521SOL    HW276461   6.184   9.584   5.546
91522SOL     OW76462   8.284   4.881   3.580
91522SOL    HW176463   8.302   4.795   3.618
91522SOL    HW276464   8.358   4.936   3.607
91523SOL     OW76465  11.573  11.114   7.520
91523SOL    HW176466  11.583  11.117   7.615
91523SOL    HW276467  11.647  11.164   7.486
91524SOL     OW76468  12.340   2.213   8.483
91524SOL    HW176469  12.304   2.179   8.564
91524SOL    HW276470  12.422   2.165   8.471
91525SOL     OW76471   4.057   5.773  13.235
91525SOL    HW176472   4.034   5.842  13.173
91525SOL    HW276473   4.109   5.711  13.184
91526SOL     OW76474   9.925   3.547  13.353
91526SOL    HW176475   9.875   3.486  13.407
91526SOL    HW276476   9.896   3.529  13.263
91527SOL     OW76477  10.318   3.594   2.347
91527SOL    HW176478  10.320   3.597   2.443
91527SOL    HW276479  10.282   3.507   2.327
91528SOL     OW76480   7.194   0.982  10.120
91528SOL    HW176481   7.286   0.955  10.115
91528SOL    HW276482   7.146   0.910  10.078
91529SOL     OW76483   7.343   0.632  14.816
91529SOL    HW176484   7.325   0.615   0.021
91529SOL    HW276485   7.360   0.726  14.812
91530SOL     OW76486   1.649  12.819   1.097
91530SOL    HW176487   1.673  12.729   1.072
91530SOL    HW276488   1.555  12.823   1.083
91531SOL     OW76489   5.421   5.315  10.500
91531SOL    HW176490   5.456   5.401  10.474
91531SOL    HW276491   5.460   5.254  10.438
91532SOL     OW76492  11.698   5.094   1.360
91532SOL    HW176493  11.616   5.143   1.361
91532SOL    HW276494  11.671   5.002   1.352
91533SOL     OW76495   8.377  14.756   3.954
91533SOL    HW176496   8.392  14.752   4.048
91533SOL    HW276497   8.456  14.794   3.917
91534SOL     OW76498   1.314  13.854  13.072
91534SOL    HW176499   1.338  13.881  12.984
91534SOL    HW276500   1.236  13.906  13.093
91535SOL     OW76501   1.648   7.504   3.208
91535SOL    HW176502   1.633   7.442   3.280
91535SOL    HW276503   1.593   7.579   3.230
91536SOL     OW76504   5.759  12.465  13.818
91536SOL    HW176505   5.703  12.536  13.787
91536SOL    HW276506   5.848  12.498  13.805
91537SOL     OW76507   7.367   9.026  12.403
91537SOL    HW176508   7.446   8.977  12.381
91537SOL    HW276509   7.295   8.974  12.366
91538SOL     OW76510  14.615   4.938  14.334
91538SOL    HW176511  14.530   4.920  14.377
91538SOL    HW276512  14.644   4.852  14.303
91539SOL     OW76513  13.673  13.159  10.502
91539SOL    HW176514  13.734  13.199  10.564
91539SOL    HW276515  13.611  13.111  10.557
91540SOL     OW76516   5.548   3.303   8.988
91540SOL    HW176517   5.577   3.294   8.897
91540SOL    HW276518   5.587   3.384   9.018
91541SOL     OW76519  10.503   1.030  10.606
91541SOL    HW176520  10.410   1.035  10.583
91541SOL    HW276521  10.519   1.107  10.662
91542SOL     OW76522  14.775   3.042   8.962
91542SOL    HW176523  14.790   2.948   8.957
91542SOL    HW276524  14.707   3.059   8.897
91543SOL     OW76525  11.384   0.453  13.646
91543SOL    HW176526  11.455   0.478  13.706
91543SOL    HW276527  11.305   0.456  13.699
91544SOL     OW76528  13.391   3.790   2.034
91544SOL    HW176529  13.450   3.754   2.101
91544SOL    HW276530  13.305   3.789   2.076
91545SOL     OW76531  10.693   6.623   0.806
91545SOL    HW176532  10.691   6.533   0.837
91545SOL    HW276533  10.624   6.667   0.856
91546SOL     OW76534   3.722   1.456   1.837
91546SOL    HW176535   3.701   1.514   1.911
91546SOL    HW276536   3.658   1.385   1.844
91547SOL     OW76537  14.492   2.992  11.398
91547SOL    HW176538  14.516   3.084  11.390
91547SOL    HW276539  14.535   2.949  11.324
91548SOL     OW76540  12.791   3.727  14.264
91548SOL    HW176541  12.765   3.635  14.261
91548SOL    HW276542  12.791   3.749  14.357
91549SOL     OW76543   3.624  11.961   5.807
91549SOL    HW176544   3.703  11.973   5.754
91549SOL    HW276545   3.606  11.867   5.801
91550SOL     OW76546   2.382   4.646  13.113
91550SOL    HW176547   2.305   4.702  13.107
91550SOL    HW276548   2.449   4.691  13.061
91551SOL     OW76549  10.723   5.413   1.681
91551SOL    HW176550  10.648   5.461   1.647
91551SOL    HW276551  10.767   5.474   1.740
91552SOL     OW76552   2.182  12.507  11.026
91552SOL    HW176553   2.155  12.563  11.099
91552SOL    HW276554   2.127  12.534  10.953
91553SOL     OW76555  13.870  11.537   0.846
91553SOL    HW176556  13.855  11.494   0.931
91553SOL    HW276557  13.832  11.476   0.782
91554SOL     OW76558   2.743   6.918  10.918
91554SOL    HW176559   2.708   6.919  11.008
91554SOL    HW276560   2.732   7.008  10.888
91555SOL     OW76561  12.961  13.696  14.885
91555SOL    HW176562  12.887  13.755  14.869
91555SOL    HW276563  12.978  13.656  14.799
91556SOL     OW76564  12.153   4.238   3.074
91556SOL    HW176565  12.083   4.278   3.022
91556SOL    HW276566  12.144   4.144   3.058
91557SOL     OW76567   5.602   8.635   6.439
91557SOL    HW176568   5.638   8.559   6.485
91557SOL    HW276569   5.658   8.646   6.362
91558SOL     OW76570  14.418   1.005   2.247
91558SOL    HW176571  14.371   1.087   2.236
91558SOL    HW276572  14.511   1.028   2.242
91559SOL     OW76573   7.288  10.403  13.030
91559SOL    HW176574   7.253  10.401  13.118
91559SOL    HW276575   7.256  10.323  12.988
91560SOL     OW76576   0.991  13.160  14.790
91560SOL    HW176577   0.992  13.175  14.696
91560SOL    HW276578   0.981  13.065  14.799
91561SOL     OW76579   2.076   3.812   3.158
91561SOL    HW176580   2.150   3.791   3.215
91561SOL    HW276581   2.098   3.772   3.074
91562SOL     OW76582  10.259   3.440   9.635
91562SOL    HW176583  10.230   3.412   9.722
91562SOL    HW276584  10.179   3.460   9.587
91563SOL     OW76585   4.953   0.191   4.119
91563SOL    HW176586   4.878   0.133   4.134
91563SOL    HW276587   5.020   0.133   4.083
91564SOL     OW76588   6.177   0.700   4.579
91564SOL    HW176589   6.124   0.748   4.642
91564SOL    HW276590   6.127   0.621   4.561
91565SOL     OW76591  14.837   6.081   8.681
91565SOL    HW176592   0.042   6.104   8.690
91565SOL    HW276593  14.820   6.022   8.755
91566SOL     OW76594   1.668   9.245   7.475
91566SOL    HW176595   1.623   9.286   7.401
91566SOL    HW276596   1.676   9.153   7.450
91567SOL     OW76597   6.679   4.966  10.863
91567SOL    HW176598   6.630   4.998  10.788
91567SOL    HW276599   6.650   4.875  10.874
91568SOL     OW76600   6.483   2.332   4.022
91568SOL    HW176601   6.395   2.363   4.046
91568SOL    HW276602   6.542   2.382   4.078
91569SOL     OW76603   1.450  12.537   1.241
91569SOL    HW176604   1.433  12.608   1.304
91569SOL    HW276605   1.492  12.469   1.293
91570SOL     OW76606  12.499  10.921   0.445
91570SOL    HW176607  12.553  10.930   0.367
91570SOL    HW276608  12.559  10.886   0.511
91571SOL     OW76609  11.552  10.493   4.844
91571SOL    HW176610  11.526  10.454   4.760
91571SOL    HW276611  11.648  10.487   4.844
91572SOL     OW76612  14.442  13.581  13.786
91572SOL    HW176613  14.537  13.569  13.795
91572SOL    HW276614  14.411  13.595  13.875
91573SOL     OW76615   2.258   8.287   9.508
91573SOL    HW176616   2.231   8.317   9.595
91573SOL    HW276617   2.228   8.196   9.504
91574SOL     OW76618   5.671   6.551   6.790
91574SOL    HW176619   5.587   6.573   6.831
91574SOL    HW276620   5.736   6.561   6.859
91575SOL     OW76621   0.363   7.481   4.476
91575SOL    HW176622   0.305   7.408   4.454
91575SOL    HW276623   0.304   7.557   4.483
91576SOL     OW76624  11.740   0.533  12.377
91576SOL    HW176625  11.655   0.534  12.332
91576SOL    HW276626  11.756   0.441  12.396
91577SOL     OW76627  10.120   5.139   9.382
91577SOL    HW176628  10.059   5.067   9.366
91577SOL    HW276629  10.065   5.217   9.383
91578SOL     OW76630   3.389  11.315   9.230
91578SOL    HW176631   3.462  11.257   9.253
91578SOL    HW276632   3.311  11.267   9.259
91579SOL     OW76633   9.907   4.535   8.614
91579SOL    HW176634   9.988   4.494   8.583
91579SOL    HW276635   9.932   4.580   8.694
91580SOL     OW76636  13.415  13.623   2.342
91580SOL    HW176637  13.408  13.558   2.271
91580SOL    HW276638  13.336  13.676   2.332
91581SOL     OW76639   3.509   1.389  13.109
91581SOL    HW176640   3.456   1.312  13.128
91581SOL    HW276641   3.576   1.390  13.178
91582SOL     OW76642  11.713  12.410  10.531
91582SOL    HW176643  11.662  12.336  10.498
91582SOL    HW276644  11.650  12.466  10.575
91583SOL     OW76645  10.274   0.551   4.010
91583SOL    HW176646  10.326   0.589   4.081
91583SOL    HW276647  10.339   0.531   3.942
91584SOL     OW76648  10.462   5.270   0.599
91584SOL    HW176649  10.436   5.270   0.507
91584SOL    HW276650  10.410   5.339   0.639
91585SOL     OW76651  13.050   9.336   2.825
91585SOL    HW176652  12.957   9.325   2.805
91585SOL    HW276653  13.081   9.403   2.764
91586SOL     OW76654   6.294   4.601  11.958
91586SOL    HW176655   6.319   4.583  11.867
91586SOL    HW276656   6.199   4.609  11.956
91587SOL     OW76657  12.830   7.678   2.875
91587SOL    HW176658  12.774   7.602   2.856
91587SOL    HW276659  12.897   7.644   2.934
91588SOL     OW76660  13.930   0.211   9.218
91588SOL    HW176661  14.005   0.252   9.261
91588SOL    HW276662  13.894   0.280   9.162
91589SOL     OW76663  11.778  13.136  11.681
91589SOL    HW176664  11.740  13.151  11.767
91589SOL    HW276665  11.852  13.078  11.697
91590SOL     OW76666  13.620  14.746  12.809
91590SOL    HW176667  13.582  14.732  12.896
91590SOL    HW276668  13.707  14.708  12.814
91591SOL     OW76669   1.191  10.594  13.348
91591SOL    HW176670   1.232  10.680  13.339
91591SOL    HW276671   1.227  10.558  13.429
91592SOL     OW76672  13.018  12.693   1.491
91592SOL    HW176673  13.112  12.681   1.475
91592SOL    HW276674  12.987  12.606   1.518
91593SOL     OW76675  10.589   8.867  12.013
91593SOL    HW176676  10.599   8.786  11.964
91593SOL    HW276677  10.655   8.862  12.082
91594SOL     OW76678   3.585   2.172   3.835
91594SOL    HW176679   3.507   2.222   3.810
91594SOL    HW276680   3.623   2.221   3.907
91595SOL     OW76681   5.277   5.462  13.528
91595SOL    HW176682   5.350   5.520  13.506
91595SOL    HW276683   5.317   5.389  13.575
91596SOL     OW76684   8.231   3.130  11.779
91596SOL    HW176685   8.310   3.168  11.818
91596SOL    HW276686   8.235   3.037  11.802
91597SOL     OW76687  11.042   8.314   1.477
91597SOL    HW176688  11.032   8.373   1.553
91597SOL    HW276689  11.036   8.226   1.514
91598SOL     OW76690  13.696   4.167   7.057
91598SOL    HW176691  13.742   4.190   7.138
91598SOL    HW276692  13.616   4.124   7.086
91599SOL     OW76693  14.883  10.501  13.263
91599SOL    HW176694   0.075  10.511  13.316
91599SOL    HW276695  14.870  10.588  13.223
91600SOL     OW76696   3.863  13.396   5.653
91600SOL    HW176697   3.873  13.302   5.667
91600SOL    HW276698   3.952  13.431   5.655
91601SOL     OW76699  11.454   1.132   5.234
91601SOL    HW176700  11.401   1.195   5.186
91601SOL    HW276701  11.529   1.116   5.177
91602SOL     OW76702   8.119   3.372   9.914
91602SOL    HW176703   8.067   3.445   9.948
91602SOL    HW276704   8.189   3.361   9.977
91603SOL     OW76705   7.777   7.381   7.322
91603SOL    HW176706   7.748   7.469   7.347
91603SOL    HW276707   7.705   7.324   7.348
91604SOL     OW76708   7.677  10.238   8.212
91604SOL    HW176709   7.728  10.162   8.239
91604SOL    HW276710   7.697  10.305   8.278
91605SOL     OW76711   6.520   3.839  11.465
91605SOL    HW176712   6.552   3.806  11.381
91605SOL    HW276713   6.467   3.769  11.501
91606SOL     OW76714   8.638   0.338  13.179
91606SOL    HW176715   8.637   0.421  13.227
91606SOL    HW276716   8.634   0.364  13.087
91607SOL     OW76717   6.131   2.533   2.562
91607SOL    HW176718   6.225   2.517   2.553
91607SOL    HW276719   6.116   2.535   2.657
91608SOL     OW76720   6.101   2.155   8.279
91608SOL    HW176721   6.037   2.143   8.208
91608SOL    HW276722   6.124   2.067   8.306
91609SOL     OW76723   5.422   4.926   1.486
91609SOL    HW176724   5.348   4.985   1.472
91609SOL    HW276725   5.406   4.851   1.429
91610SOL     OW76726   2.043   7.650   4.746
91610SOL    HW176727   1.954   7.668   4.716
91610SOL    HW276728   2.033   7.627   4.839
91611SOL     OW76729   7.334   1.320  11.549
91611SOL    HW176730   7.297   1.284  11.629
91611SOL    HW276731   7.272   1.386  11.520
91612SOL     OW76732  10.602   0.769  11.117
91612SOL    HW176733  10.537   0.721  11.065
91612SOL    HW276734  10.572   0.859  11.117
91613SOL     OW76735  11.113  12.484  11.845
91613SOL    HW176736  11.087  12.393  11.859
91613SOL    HW276737  11.206  12.486  11.868
91614SOL     OW76738   7.338  13.659  13.012
91614SOL    HW176739   7.344  13.567  12.988
91614SOL    HW276740   7.265  13.663  13.073
91615SOL     OW76741   1.355  10.580  13.975
91615SOL    HW176742   1.444  10.550  13.958
91615SOL    HW276743   1.367  10.666  14.016
91616SOL     OW76744   4.284   6.210   2.952
91616SOL    HW176745   4.366   6.180   2.991
91616SOL    HW276746   4.257   6.284   3.007
91617SOL     OW76747  10.365   1.599   1.748
91617SOL    HW176748  10.288   1.543   1.742
91617SOL    HW276749  10.435   1.541   1.777
91618SOL     OW76750   8.219  14.150  11.551
91618SOL    HW176751   8.273  14.223  11.520
91618SOL    HW276752   8.281  14.094  11.599
91619SOL     OW76753   2.808   2.892  10.226
91619SOL    HW176754   2.843   2.901  10.137
91619SOL    HW276755   2.723   2.849  10.213
91620SOL     OW76756  12.870   2.853   9.754
91620SOL    HW176757  12.906   2.859   9.842
91620SOL    HW276758  12.945   2.830   9.699
91621SOL     OW76759  10.503   6.968   8.238
91621SOL    HW176760  10.532   6.947   8.150
91621SOL    HW276761  10.525   6.891   8.290
91622SOL     OW76762   6.046   9.366  11.245
91622SOL    HW176763   5.986   9.353  11.171
91622SOL    HW276764   6.006   9.437  11.296
91623SOL     OW76765   8.889   8.262   0.346
91623SOL    HW176766   8.847   8.282   0.430
91623SOL    HW276767   8.873   8.339   0.292
91624SOL     OW76768  14.649   1.191   2.712
91624SOL    HW176769  14.738   1.155   2.713
91624SOL    HW276770  14.594   1.117   2.685
91625SOL     OW76771   8.579   3.733   0.740
91625SOL    HW176772   8.539   3.765   0.659
91625SOL    HW276773   8.511   3.745   0.806
91626SOL     OW76774   2.123  10.922   9.311
91626SOL    HW176775   2.180  10.846   9.320
91626SOL    HW276776   2.085  10.913   9.223
91627SOL     OW76777  11.235   0.395   7.500
91627SOL    HW176778  11.158   0.343   7.522
91627SOL    HW276779  11.299   0.373   7.567
91628SOL     OW76780  12.073   3.725   1.917
91628SOL    HW176781  11.996   3.779   1.902
91628SOL    HW276782  12.102   3.700   1.829
91629SOL     OW76783  14.175   1.143   0.593
91629SOL    HW176784  14.169   1.083   0.667
91629SOL    HW276785  14.095   1.195   0.597
91630SOL     OW76786  10.153  10.673  14.776
91630SOL    HW176787  10.136  10.591  14.730
91630SOL    HW276788  10.209  10.649  14.849
91631SOL     OW76789  12.736   7.719  11.687
91631SOL    HW176790  12.656   7.742  11.639
91631SOL    HW276791  12.782   7.802  11.697
91632SOL     OW76792  11.247  14.858  12.734
91632SOL    HW176793  11.320  14.797  12.730
91632SOL    HW276794  11.235  14.887  12.643
91633SOL     OW76795  13.252   1.283   4.427
91633SOL    HW176796  13.252   1.330   4.510
91633SOL    HW276797  13.199   1.205   4.443
91634SOL     OW76798   0.594   8.870  11.561
91634SOL    HW176799   0.590   8.962  11.588
91634SOL    HW276800   0.593   8.821  11.644
91635SOL     OW76801   6.093  13.284   0.045
91635SOL    HW176802   6.103  13.378   0.025
91635SOL    HW276803   6.102  13.241  14.848
91636SOL     OW76804   3.807   6.310   5.198
91636SOL    HW176805   3.758   6.364   5.260
91636SOL    HW276806   3.889   6.357   5.185
91637SOL     OW76807   7.856   7.741   4.413
91637SOL    HW176808   7.870   7.834   4.429
91637SOL    HW276809   7.811   7.710   4.492
91638SOL     OW76810   2.374   4.458   3.640
91638SOL    HW176811   2.434   4.392   3.675
91638SOL    HW276812   2.294   4.409   3.621
91639SOL     OW76813  14.630  14.354   2.803
91639SOL    HW176814  14.674  14.439   2.809
91639SOL    HW276815  14.680  14.306   2.738
91640SOL     OW76816  11.553  12.792   6.396
91640SOL    HW176817  11.474  12.846   6.400
91640SOL    HW276818  11.601  12.826   6.320
91641SOL     OW76819   1.702   0.091   0.124
91641SOL    HW176820   1.714   0.130   0.210
91641SOL    HW276821   1.670   0.002   0.142
91642SOL     OW76822   0.816  13.990   1.028
91642SOL    HW176823   0.792  13.907   1.067
91642SOL    HW276824   0.833  13.970   0.936
91643SOL     OW76825   0.120  10.458   3.570
91643SOL    HW176826   0.049  10.394   3.563
91643SOL    HW276827   0.158  10.442   3.657
91644SOL     OW76828  10.803   4.159   9.505
91644SOL    HW176829  10.862   4.162   9.581
91644SOL    HW276830  10.806   4.247   9.469
91645SOL     OW76831   3.713   3.326   8.634
91645SOL    HW176832   3.642   3.306   8.695
91645SOL    HW276833   3.679   3.305   8.548
91646SOL     OW76834  10.040   5.333   0.440
91646SOL    HW176835  10.063   5.409   0.493
91646SOL    HW276836  10.019   5.265   0.504
91647SOL     OW76837   8.992   0.660  13.314
91647SOL    HW176838   8.999   0.693  13.403
91647SOL    HW276839   9.081   0.667  13.279
91648SOL     OW76840   7.327   1.126   7.838
91648SOL    HW176841   7.263   1.182   7.882
91648SOL    HW276842   7.394   1.187   7.805
91649SOL     OW76843  13.920   1.198  10.900
91649SOL    HW176844  13.894   1.150  10.821
91649SOL    HW276845  13.862   1.274  10.902
91650SOL     OW76846  10.196   0.596   9.962
91650SOL    HW176847  10.194   0.591   9.867
91650SOL    HW276848  10.227   0.510   9.990
91651SOL     OW76849   8.264   1.239   8.947
91651SOL    HW176850   8.172   1.257   8.929
91651SOL    HW276851   8.302   1.220   8.861
91652SOL     OW76852   8.059   3.415   3.266
91652SOL    HW176853   7.974   3.387   3.232
91652SOL    HW276854   8.073   3.360   3.343
91653SOL     OW76855  12.849   8.341  10.914
91653SOL    HW176856  12.833   8.257  10.956
91653SOL    HW276857  12.781   8.346  10.846
91654SOL     OW76858   2.454   4.612   9.964
91654SOL    HW176859   2.500   4.677   9.911
91654SOL    HW276860   2.516   4.589  10.033
91655SOL     OW76861   6.166   8.920  12.750
91655SOL    HW176862   6.183   8.963  12.666
91655SOL    HW276863   6.117   8.985  12.800
91656SOL     OW76864   1.488   0.151  14.837
91656SOL    HW176865   1.421   0.085  14.818
91656SOL    HW276866   1.549   0.108   0.009
91657SOL     OW76867   2.086   6.782   5.844
91657SOL    HW176868   2.115   6.859   5.893
91657SOL    HW276869   2.162   6.724   5.842
91658SOL     OW76870   0.930   6.875   9.095
91658SOL    HW176871   0.911   6.837   9.180
91658SOL    HW276872   0.990   6.947   9.112
91659SOL     OW76873   5.637  10.821   8.634
91659SOL    HW176874   5.613  10.880   8.562
91659SOL    HW276875   5.555  10.780   8.660
91660SOL     OW76876  12.872   4.621   7.227
91660SOL    HW176877  12.813   4.623   7.152
91660SOL    HW276878  12.816   4.600   7.301
91661SOL     OW76879   9.105   0.504   8.784
91661SOL    HW176880   9.021   0.457   8.788
91661SOL    HW276881   9.081   0.595   8.771
91662SOL     OW76882   7.064  11.670   6.732
91662SOL    HW176883   7.130  11.601   6.739
91662SOL    HW276884   7.001  11.637   6.669
91663SOL     OW76885   4.346   4.785   2.567
91663SOL    HW176886   4.343   4.708   2.510
91663SOL    HW276887   4.254   4.809   2.580
91664SOL     OW76888   3.910  13.504   3.256
91664SOL    HW176889   3.975  13.571   3.235
91664SOL    HW276890   3.826  13.548   3.240
91665SOL     OW76891   7.129  12.240  12.221
91665SOL    HW176892   7.161  12.326  12.249
91665SOL    HW276893   7.189  12.178  12.264
91666SOL     OW76894   8.226   6.956   7.031
91666SOL    HW176895   8.203   7.029   7.088
91666SOL    HW276896   8.288   6.994   6.968
91667SOL     OW76897  10.863   4.459   1.045
91667SOL    HW176898  10.882   4.428   1.134
91667SOL    HW276899  10.941   4.435   0.995
91668SOL     OW76900   4.250   3.625   1.736
91668SOL    HW176901   4.227   3.710   1.698
91668SOL    HW276902   4.296   3.578   1.666
91669SOL     OW76903   4.357   8.770  10.950
91669SOL    HW176904   4.267   8.779  10.920
91669SOL    HW276905   4.374   8.676  10.946
91670SOL     OW76906   4.336   7.732  10.678
91670SOL    HW176907   4.334   7.709  10.585
91670SOL    HW276908   4.370   7.653  10.721
91671SOL     OW76909   3.582   2.087  13.115
91671SOL    HW176910   3.574   2.179  13.141
91671SOL    HW276911   3.605   2.090  13.023
91672SOL     OW76912   8.615   7.999  11.186
91672SOL    HW176913   8.645   8.052  11.112
91672SOL    HW276914   8.561   8.058  11.239
91673SOL     OW76915   7.762   4.713   5.465
91673SOL    HW176916   7.756   4.746   5.554
91673SOL    HW276917   7.757   4.617   5.475
91674SOL     OW76918  14.211   1.554   9.651
91674SOL    HW176919  14.280   1.571   9.587
91674SOL    HW276920  14.257   1.512   9.724
91675SOL     OW76921   3.900  11.351  10.978
91675SOL    HW176922   3.963  11.323  10.911
91675SOL    HW276923   3.905  11.283  11.045
91676SOL     OW76924   3.833  13.663   9.367
91676SOL    HW176925   3.755  13.611   9.351
91676SOL    HW276926   3.802  13.739   9.415
91677SOL     OW76927  13.961  11.638   9.118
91677SOL    HW176928  13.966  11.701   9.046
91677SOL    HW276929  13.867  11.622   9.129
91678SOL     OW76930  14.686  12.975   5.761
91678SOL    HW176931  14.621  13.024   5.711
91678SOL    HW276932  14.636  12.933   5.830
91679SOL     OW76933   6.752  13.400  14.488
91679SOL    HW176934   6.763  13.342  14.413
91679SOL    HW276935   6.787  13.350  14.562
91680SOL     OW76936   1.926  10.706   6.735
91680SOL    HW176937   1.889  10.645   6.672
91680SOL    HW276938   1.960  10.778   6.681
91681SOL     OW76939   4.021   3.598   6.048
91681SOL    HW176940   3.986   3.674   6.001
91681SOL    HW276941   3.953   3.575   6.111
91682SOL     OW76942   9.346   2.389   0.610
91682SOL    HW176943   9.307   2.469   0.573
91682SOL    HW276944   9.310   2.318   0.557
91683SOL     OW76945  11.680   5.630   4.303
91683SOL    HW176946  11.743   5.671   4.362
91683SOL    HW276947  11.634   5.566   4.358
91684SOL     OW76948  12.930  11.824  13.533
91684SOL    HW176949  12.900  11.801  13.621
91684SOL    HW276950  12.854  11.807  13.477
91685SOL     OW76951   0.938   4.116   5.549
91685SOL    HW176952   1.021   4.070   5.559
91685SOL    HW276953   0.875   4.062   5.599
91686SOL     OW76954   6.570   7.325   1.126
91686SOL    HW176955   6.644   7.283   1.083
91686SOL    HW276956   6.493   7.283   1.088
91687SOL     OW76957   8.716  14.416  13.235
91687SOL    HW176958   8.722  14.327  13.269
91687SOL    HW276959   8.732  14.407  13.141
91688SOL     OW76960  10.568  14.426  11.099
91688SOL    HW176961  10.554  14.341  11.139
91688SOL    HW276962  10.519  14.487  11.153
91689SOL     OW76963   4.148   4.026   1.326
91689SOL    HW176964   4.222   4.004   1.270
91689SOL    HW276965   4.098   4.090   1.276
91690SOL     OW76966   8.697  14.780  13.952
91690SOL    HW176967   8.649  14.772  13.870
91690SOL    HW276968   8.700  14.874  13.969
91691SOL     OW76969   0.099   7.354   4.455
91691SOL    HW176970   0.004   7.343   4.461
91691SOL    HW276971   0.116   7.373   4.363
91692SOL     OW76972  12.682  14.016   1.696
91692SOL    HW176973  12.664  14.110   1.690
91692SOL    HW276974  12.623  13.976   1.632
91693SOL     OW76975  10.684   9.432   8.315
91693SOL    HW176976  10.707   9.339   8.315
91693SOL    HW276977  10.760   9.474   8.273
91694SOL     OW76978  14.763   6.812  12.814
91694SOL    HW176979  14.806   6.730  12.841
91694SOL    HW276980  14.672   6.786  12.795
91695SOL     OW76981   8.779   6.276   8.715
91695SOL    HW176982   8.684   6.286   8.723
91695SOL    HW276983   8.792   6.239   8.628
91696SOL     OW76984   1.644   8.133   9.340
91696SOL    HW176985   1.582   8.081   9.288
91696SOL    HW276986   1.728   8.087   9.330
91697SOL     OW76987  12.408   1.576  13.131
91697SOL    HW176988  12.372   1.532  13.054
91697SOL    HW276989  12.465   1.511  13.173
91698SOL     OW76990   5.514  11.555  14.025
91698SOL    HW176991   5.480  11.615  14.090
91698SOL    HW276992   5.582  11.505  14.071
91699SOL     OW76993  11.627  13.343  14.065
91699SOL    HW176994  11.570  13.333  13.989
91699SOL    HW276995  11.617  13.260  14.113
91700SOL     OW76996   9.048   1.158   0.533
91700SOL    HW176997   9.029   1.250   0.553
91700SOL    HW276998   9.140   1.158   0.506
91701SOL     OW76999   3.015   9.844  12.506
91701SOL    HW177000   2.934   9.838  12.557
91701SOL    HW277001   3.045   9.934  12.518
91702SOL     OW77002  13.156   8.208  13.268
91702SOL    HW177003  13.219   8.258  13.215
91702SOL    HW277004  13.188   8.118  13.264
91703SOL     OW77005   5.183  14.079  10.258
91703SOL    HW177006   5.157  14.164  10.293
91703SOL    HW277007   5.119  14.018  10.295
91704SOL     OW77008  10.242   7.140   3.436
91704SOL    HW177009  10.226   7.196   3.512
91704SOL    HW277010  10.300   7.071   3.469
91705SOL     OW77011  10.914   2.681   2.525
91705SOL    HW177012  10.869   2.749   2.576
91705SOL    HW277013  10.843   2.640   2.475
91706SOL     OW77014   4.531  14.583   3.825
91706SOL    HW177015   4.482  14.515   3.870
91706SOL    HW277016   4.540  14.653   3.890
91707SOL     OW77017   6.753   5.641   8.968
91707SOL    HW177018   6.687   5.582   9.005
91707SOL    HW277019   6.705   5.693   8.903
91708SOL     OW77020   1.675  10.256  11.200
91708SOL    HW177021   1.768  10.257  11.180
91708SOL    HW277022   1.652  10.163  11.205
91709SOL     OW77023   2.261   5.327   2.931
91709SOL    HW177024   2.292   5.359   3.017
91709SOL    HW277025   2.266   5.232   2.938
91710SOL     OW77026  13.781  14.362   3.608
91710SOL    HW177027  13.850  14.390   3.668
91710SOL    HW277028  13.825  14.354   3.524
91711SOL     OW77029   9.826   3.598  10.955
91711SOL    HW177030   9.784   3.678  10.924
91711SOL    HW277031   9.917   3.624  10.972
91712SOL     OW77032  11.689   1.073   5.539
91712SOL    HW177033  11.757   1.006   5.547
91712SOL    HW277034  11.672   1.103   5.628
91713SOL     OW77035   8.998   8.331   3.925
91713SOL    HW177036   9.079   8.382   3.918
91713SOL    HW277037   8.930   8.397   3.938
91714SOL     OW77038   2.687  10.056  10.269
91714SOL    HW177039   2.762  10.080  10.324
91714SOL    HW277040   2.651  10.139  10.240
91715SOL     OW77041  11.539   9.206  13.628
91715SOL    HW177042  11.541   9.114  13.604
91715SOL    HW277043  11.470   9.244  13.573
91716SOL     OW77044   0.113   0.381  13.723
91716SOL    HW177045   0.086   0.337  13.804
91716SOL    HW277046   0.141   0.468  13.751
91717SOL     OW77047  13.635   0.676   4.992
91717SOL    HW177048  13.690   0.715   4.924
91717SOL    HW277049  13.674   0.591   5.009
91718SOL     OW77050  10.899   2.822  14.552
91718SOL    HW177051  10.853   2.833  14.468
91718SOL    HW277052  10.830   2.827  14.618
91719SOL     OW77053   5.211   0.677   0.841
91719SOL    HW177054   5.160   0.654   0.764
91719SOL    HW277055   5.147   0.706   0.905
91720SOL     OW77056   2.743   2.360   2.940
91720SOL    HW177057   2.796   2.294   2.985
91720SOL    HW277058   2.665   2.369   2.995
91721SOL     OW77059   1.628   8.696  11.950
91721SOL    HW177060   1.549   8.672  11.902
91721SOL    HW277061   1.597   8.714  12.039
91722SOL     OW77062  11.998   9.278   7.169
91722SOL    HW177063  11.957   9.357   7.203
91722SOL    HW277064  12.089   9.284   7.197
91723SOL     OW77065   3.644   0.972   3.265
91723SOL    HW177066   3.640   0.969   3.361
91723SOL    HW277067   3.608   0.888   3.237
91724SOL     OW77068  10.174   2.234   9.724
91724SOL    HW177069  10.209   2.236   9.813
91724SOL    HW277070  10.082   2.213   9.735
91725SOL     OW77071  11.480   9.203   9.145
91725SOL    HW177072  11.572   9.220   9.123
91725SOL    HW277073  11.468   9.111   9.122
91726SOL     OW77074  14.789  10.631   0.420
91726SOL    HW177075  14.820  10.720   0.439
91726SOL    HW277076  14.790  10.587   0.505
91727SOL     OW77077   9.127   4.785  13.361
91727SOL    HW177078   9.075   4.829  13.295
91727SOL    HW277079   9.168   4.712  13.315
91728SOL     OW77080   6.521  13.629   6.135
91728SOL    HW177081   6.614  13.607   6.141
91728SOL    HW277082   6.511  13.706   6.191
91729SOL     OW77083  13.008   5.873  13.886
91729SOL    HW177084  13.054   5.912  13.812
91729SOL    HW277085  13.074   5.867  13.955
91730SOL     OW77086   0.019   3.743   2.821
91730SOL    HW177087   0.069   3.766   2.743
91730SOL    HW277088   0.085   3.730   2.889
91731SOL     OW77089   2.252   5.237   8.436
91731SOL    HW177090   2.162   5.225   8.405
91731SOL    HW277091   2.245   5.305   8.503
91732SOL     OW77092   1.690   1.762   6.088
91732SOL    HW177093   1.782   1.773   6.065
91732SOL    HW277094   1.688   1.765   6.184
91733SOL     OW77095  10.862  10.446   2.820
91733SOL    HW177096  10.920  10.438   2.744
91733SOL    HW277097  10.873  10.537   2.848
91734SOL     OW77098  12.313   5.937   8.975
91734SOL    HW177099  12.219   5.920   8.982
91734SOL    HW277100  12.319   6.019   8.927
91735SOL     OW77101   7.905  14.112   7.684
91735SOL    HW177102   7.992  14.092   7.718
91735SOL    HW277103   7.845  14.075   7.748
91736SOL     OW77104   9.002   9.382   6.815
91736SOL    HW177105   9.066   9.394   6.745
91736SOL    HW277106   8.991   9.288   6.822
91737SOL     OW77107   6.623   8.461  13.173
91737SOL    HW177108   6.605   8.490  13.084
91737SOL    HW277109   6.595   8.370  13.175
91738SOL     OW77110   3.104   0.509  14.637
91738SOL    HW177111   3.173   0.574  14.653
91738SOL    HW277112   3.139   0.428  14.675
91739SOL     OW77113   1.520  11.692   4.075
91739SOL    HW177114   1.424  11.697   4.079
91739SOL    HW277115   1.541  11.703   3.982
91740SOL     OW77116   0.391  13.393   5.363
91740SOL    HW177117   0.441  13.313   5.381
91740SOL    HW277118   0.314  13.363   5.315
91741SOL     OW77119   1.965  12.563   3.877
91741SOL    HW177120   1.956  12.525   3.964
91741SOL    HW277121   1.947  12.490   3.817
91742SOL     OW77122  14.459   8.766   2.633
91742SOL    HW177123  14.465   8.700   2.703
91742SOL    HW277124  14.477   8.716   2.553
91743SOL     OW77125   3.988   7.139   3.912
91743SOL    HW177126   3.975   7.217   3.859
91743SOL    HW277127   4.029   7.171   3.992
91744SOL     OW77128   2.524   6.723   2.262
91744SOL    HW177129   2.472   6.677   2.327
91744SOL    HW277130   2.560   6.798   2.308
91745SOL     OW77131   9.806   9.032   4.572
91745SOL    HW177132   9.819   9.036   4.478
91745SOL    HW277133   9.713   9.012   4.584
91746SOL     OW77134   3.198   9.508   1.302
91746SOL    HW177135   3.218   9.578   1.365
91746SOL    HW277136   3.143   9.447   1.351
91747SOL     OW77137   5.717   1.943  13.201
91747SOL    HW177138   5.677   1.946  13.114
91747SOL    HW277139   5.737   2.035  13.221
91748SOL     OW77140   8.999   6.872   7.583
91748SOL    HW177141   9.066   6.891   7.649
91748SOL    HW277142   8.925   6.926   7.608
91749SOL     OW77143   5.542   7.390  11.864
91749SOL    HW177144   5.601   7.450  11.909
91749SOL    HW277145   5.597   7.348  11.797
91750SOL     OW77146   0.761  12.346   2.162
91750SOL    HW177147   0.752  12.329   2.256
91750SOL    HW277148   0.749  12.441   2.154
91751SOL     OW77149   0.998   1.127  12.251
91751SOL    HW177150   1.010   1.176  12.170
91751SOL    HW277151   1.088   1.111  12.282
91752SOL     OW77152   1.362   8.070   4.271
91752SOL    HW177153   1.437   8.011   4.266
91752SOL    HW277154   1.322   8.052   4.356
91753SOL     OW77155  10.202   4.567   6.016
91753SOL    HW177156  10.113   4.594   6.037
91753SOL    HW277157  10.232   4.631   5.951
91754SOL     OW77158   6.567   1.671  14.322
91754SOL    HW177159   6.654   1.666  14.362
91754SOL    HW277160   6.510   1.624  14.383
91755SOL     OW77161  11.120  11.512   7.321
91755SOL    HW177162  11.118  11.416   7.317
91755SOL    HW277163  11.036  11.539   7.284
91756SOL     OW77164  11.149   1.771  13.902
91756SOL    HW177165  11.114   1.858  13.922
91756SOL    HW277166  11.185   1.778  13.814
91757SOL     OW77167   9.802   6.388   7.472
91757SOL    HW177168   9.791   6.476   7.437
91757SOL    HW277169   9.748   6.333   7.414
91758SOL     OW77170   7.169  10.605   6.847
91758SOL    HW177171   7.174  10.546   6.772
91758SOL    HW277172   7.083  10.588   6.886
91759SOL     OW77173   7.941   6.538   1.561
91759SOL    HW177174   7.960   6.632   1.567
91759SOL    HW277175   7.864   6.532   1.504
91760SOL     OW77176   8.697  14.356   4.507
91760SOL    HW177177   8.766  14.290   4.515
91760SOL    HW277178   8.640  14.323   4.438
91761SOL     OW77179   5.200  13.446  10.812
91761SOL    HW177180   5.164  13.508  10.876
91761SOL    HW277181   5.295  13.457  10.819
91762SOL     OW77182   8.721   4.529  13.595
91762SOL    HW177183   8.810   4.504  13.571
91762SOL    HW277184   8.677   4.546  13.512
91763SOL     OW77185   8.801  10.179   1.059
91763SOL    HW177186   8.739  10.150   0.992
91763SOL    HW277187   8.783  10.272   1.070
91764SOL     OW77188   2.343   5.639   6.278
91764SOL    HW177189   2.272   5.693   6.310
91764SOL    HW277190   2.345   5.563   6.336
91765SOL     OW77191  11.686  14.578  10.607
91765SOL    HW177192  11.709  14.663  10.570
91765SOL    HW277193  11.591  14.574  10.602
91766SOL     OW77194  10.536  10.099   5.024
91766SOL    HW177195  10.512  10.030   5.086
91766SOL    HW277196  10.455  10.146   5.007
91767SOL     OW77197   9.397   2.487  14.779
91767SOL    HW177198   9.390   2.418  14.714
91767SOL    HW277199   9.446   2.557  14.736
91768SOL     OW77200   9.366   3.581   2.356
91768SOL    HW177201   9.407   3.651   2.304
91768SOL    HW277202   9.310   3.535   2.295
91769SOL     OW77203   7.002  11.035  12.491
91769SOL    HW177204   7.057  10.956  12.493
91769SOL    HW277205   6.945  11.022  12.415
91770SOL     OW77206   3.147  11.599   1.236
91770SOL    HW177207   3.215  11.642   1.184
91770SOL    HW277208   3.184  11.592   1.324
91771SOL     OW77209   3.812   8.870   2.929
91771SOL    HW177210   3.776   8.896   3.014
91771SOL    HW277211   3.903   8.899   2.932
91772SOL     OW77212   3.103   1.600   4.978
91772SOL    HW177213   3.165   1.658   4.933
91772SOL    HW277214   3.128   1.512   4.949
91773SOL     OW77215   7.623   7.381   0.079
91773SOL    HW177216   7.667   7.388  14.882
91773SOL    HW277217   7.673   7.315   0.127
91774SOL     OW77218   8.196  14.124   9.940
91774SOL    HW177219   8.236  14.169  10.014
91774SOL    HW277220   8.231  14.170   9.863
91775SOL     OW77221   7.825   6.275   2.650
91775SOL    HW177222   7.890   6.269   2.719
91775SOL    HW277223   7.778   6.357   2.667
91776SOL     OW77224   5.359   2.784   6.838
91776SOL    HW177225   5.276   2.763   6.882
91776SOL    HW277226   5.371   2.878   6.854
91777SOL     OW77227   9.858  14.090   4.548
91777SOL    HW177228   9.937  14.092   4.602
91777SOL    HW277229   9.832  14.181   4.539
91778SOL     OW77230   1.404  12.902  11.526
91778SOL    HW177231   1.393  12.882  11.433
91778SOL    HW277232   1.389  12.996  11.533
91779SOL     OW77233   2.413  12.218   1.968
91779SOL    HW177234   2.473  12.148   1.942
91779SOL    HW277235   2.430  12.232   2.061
91780SOL     OW77236   8.645  12.582   7.374
91780SOL    HW177237   8.691  12.649   7.424
91780SOL    HW277238   8.552  12.600   7.390
91781SOL     OW77239   2.788   4.709   8.725
91781SOL    HW177240   2.842   4.716   8.803
91781SOL    HW277241   2.802   4.791   8.679
91782SOL     OW77242   6.656   9.186   8.055
91782SOL    HW177243   6.738   9.164   8.100
91782SOL    HW277244   6.587   9.148   8.110
91783SOL     OW77245  10.333   5.393   4.141
91783SOL    HW177246  10.261   5.453   4.123
91783SOL    HW277247  10.402   5.420   4.081
91784SOL     OW77248   2.022  12.006   7.267
91784SOL    HW177249   2.074  12.086   7.257
91784SOL    HW277250   1.964  12.023   7.341
91785SOL     OW77251   0.682   9.776  10.852
91785SOL    HW177252   0.619   9.814  10.914
91785SOL    HW277253   0.637   9.780  10.767
91786SOL     OW77254  11.027   4.349   7.476
91786SOL    HW177255  10.995   4.365   7.565
91786SOL    HW277256  11.027   4.254   7.466
91787SOL     OW77257  12.370   2.975   5.468
91787SOL    HW177258  12.278   2.966   5.442
91787SOL    HW277259  12.419   2.966   5.386
91788SOL     OW77260   9.749   7.541   7.475
91788SOL    HW177261   9.711   7.622   7.510
91788SOL    HW277262   9.688   7.515   7.406
91789SOL     OW77263  11.422   1.329   4.137
91789SOL    HW177264  11.472   1.343   4.057
91789SOL    HW277265  11.470   1.260   4.183
91790SOL     OW77266   5.756  12.355   7.344
91790SOL    HW177267   5.798  12.312   7.269
91790SOL    HW277268   5.794  12.443   7.346
91791SOL     OW77269   0.289   0.287   5.241
91791SOL    HW177270   0.374   0.328   5.257
91791SOL    HW277271   0.276   0.227   5.314
91792SOL     OW77272   8.758   4.271   0.914
91792SOL    HW177273   8.694   4.201   0.928
91792SOL    HW277274   8.721   4.346   0.963
91793SOL     OW77275   1.321   0.640   6.899
91793SOL    HW177276   1.311   0.604   6.987
91793SOL    HW277277   1.303   0.734   6.910
91794SOL     OW77278   2.375   3.116   8.074
91794SOL    HW177279   2.357   3.180   8.005
91794SOL    HW277280   2.460   3.143   8.110
91795SOL     OW77281   8.585   9.957   6.492
91795SOL    HW177282   8.593   9.890   6.560
91795SOL    HW277283   8.490   9.972   6.485
91796SOL     OW77284  13.219  13.554  13.210
91796SOL    HW177285  13.170  13.515  13.138
91796SOL    HW277286  13.175  13.637  13.228
91797SOL     OW77287  10.208  11.550  10.093
91797SOL    HW177288  10.148  11.602  10.147
91797SOL    HW277289  10.227  11.605  10.017
91798SOL     OW77290  12.675   9.253   4.405
91798SOL    HW177291  12.700   9.165   4.431
91798SOL    HW277292  12.749   9.308   4.432
91799SOL     OW77293   6.270   1.350   3.343
91799SOL    HW177294   6.295   1.330   3.433
91799SOL    HW277295   6.273   1.266   3.298
91800SOL     OW77296   3.292   4.688  11.987
91800SOL    HW177297   3.305   4.778  12.017
91800SOL    HW277298   3.290   4.636  12.067
91801SOL     OW77299   5.020   5.396   3.250
91801SOL    HW177300   5.066   5.475   3.277
91801SOL    HW277301   5.053   5.378   3.161
91802SOL     OW77302  13.707   5.955  14.277
91802SOL    HW177303  13.704   6.017  14.205
91802SOL    HW277304  13.714   5.869  14.235
91803SOL     OW77305  14.463   0.578   9.135
91803SOL    HW177306  14.512   0.574   9.217
91803SOL    HW277307  14.408   0.656   9.143
91804SOL     OW77308  13.080   1.280   2.224
91804SOL    HW177309  12.988   1.263   2.205
91804SOL    HW277310  13.110   1.334   2.151
91805SOL     OW77311   9.580  13.086  13.385
91805SOL    HW177312   9.591  13.173  13.424
91805SOL    HW277313   9.664  13.042  13.402
91806SOL     OW77314  12.287   5.490   3.446
91806SOL    HW177315  12.216   5.526   3.393
91806SOL    HW277316  12.349   5.562   3.455
91807SOL     OW77317   5.864   0.143  10.778
91807SOL    HW177318   5.820   0.062  10.801
91807SOL    HW277319   5.887   0.132  10.685
91808SOL     OW77320  12.090  10.326   0.257
91808SOL    HW177321  12.042  10.349   0.336
91808SOL    HW277322  12.024  10.328   0.187
91809SOL     OW77323  13.457   4.773   0.066
91809SOL    HW177324  13.511   4.814   0.133
91809SOL    HW277325  13.479   4.680   0.072
91810SOL     OW77326  11.233   2.408   9.302
91810SOL    HW177327  11.237   2.439   9.211
91810SOL    HW277328  11.292   2.333   9.304
91811SOL     OW77329  11.062  12.604   2.597
91811SOL    HW177330  10.969  12.618   2.579
91811SOL    HW277331  11.104  12.687   2.577
91812SOL     OW77332  13.267   4.723   8.179
91812SOL    HW177333  13.349   4.773   8.183
91812SOL    HW277334  13.213   4.758   8.250
91813SOL     OW77335   5.303   2.049   8.267
91813SOL    HW177336   5.362   1.977   8.288
91813SOL    HW277337   5.265   2.025   8.182
91814SOL     OW77338  13.323   0.645  14.640
91814SOL    HW177339  13.278   0.688  14.568
91814SOL    HW277340  13.281   0.680  14.719
91815SOL     OW77341   0.816   2.160  10.216
91815SOL    HW177342   0.899   2.204  10.197
91815SOL    HW277343   0.841   2.078  10.258
91816SOL     OW77344  11.000   5.945   6.639
91816SOL    HW177345  10.978   5.907   6.724
91816SOL    HW277346  10.936   6.015   6.627
91817SOL     OW77347   5.190   9.413   1.787
91817SOL    HW177348   5.245   9.490   1.790
91817SOL    HW277349   5.243   9.344   1.827
91818SOL     OW77350   5.101  12.288   3.318
91818SOL    HW177351   5.084  12.348   3.246
91818SOL    HW277352   5.137  12.210   3.276
91819SOL     OW77353   7.025  11.763   5.161
91819SOL    HW177354   7.116  11.774   5.134
91819SOL    HW277355   6.998  11.850   5.192
91820SOL     OW77356  13.700  10.497   3.202
91820SOL    HW177357  13.624  10.552   3.186
91820SOL    HW277358  13.665  10.409   3.213
91821SOL     OW77359   2.516   6.971   1.363
91821SOL    HW177360   2.586   7.036   1.358
91821SOL    HW277361   2.441   7.018   1.400
91822SOL     OW77362   3.709   5.974   4.418
91822SOL    HW177363   3.705   6.051   4.475
91822SOL    HW277364   3.785   5.989   4.363
91823SOL     OW77365   8.910   2.517   0.410
91823SOL    HW177366   8.934   2.519   0.503
91823SOL    HW277367   8.815   2.500   0.411
91824SOL     OW77368   5.526   0.503   3.553
91824SOL    HW177369   5.599   0.457   3.592
91824SOL    HW277370   5.566   0.561   3.488
91825SOL     OW77371   0.821   9.349   7.845
91825SOL    HW177372   0.910   9.333   7.874
91825SOL    HW277373   0.824   9.434   7.801
91826SOL     OW77374   1.171   8.426   0.049
91826SOL    HW177375   1.091   8.382   0.021
91826SOL    HW277376   1.240   8.385  14.884
91827SOL     OW77377   4.926  12.449   6.547
91827SOL    HW177378   4.861  12.488   6.605
91827SOL    HW277379   4.900  12.356   6.542
91828SOL     OW77380   3.352  11.316   2.569
91828SOL    HW177381   3.399  11.377   2.513
91828SOL    HW277382   3.393  11.231   2.551
91829SOL     OW77383   8.753   0.571   8.900
91829SOL    HW177384   8.707   0.495   8.935
91829SOL    HW277385   8.755   0.558   8.805
91830SOL     OW77386  11.200   6.612  11.948
91830SOL    HW177387  11.167   6.621  12.038
91830SOL    HW277388  11.250   6.692  11.933
91831SOL     OW77389   9.193   9.078   8.851
91831SOL    HW177390   9.166   8.986   8.848
91831SOL    HW277391   9.182   9.109   8.761
91832SOL     OW77392  12.088   0.335   6.914
91832SOL    HW177393  12.088   0.431   6.924
91832SOL    HW277394  12.180   0.312   6.904
91833SOL     OW77395  14.309   3.709   6.897
91833SOL    HW177396  14.333   3.619   6.919
91833SOL    HW277397  14.390   3.747   6.862
91834SOL     OW77398   8.800   9.493   9.915
91834SOL    HW177399   8.868   9.453   9.861
91834SOL    HW277400   8.819   9.586   9.914
91835SOL     OW77401   8.858   4.207   9.787
91835SOL    HW177402   8.895   4.287   9.825
91835SOL    HW277403   8.788   4.182   9.847
91836SOL     OW77404  10.016   1.952   8.707
91836SOL    HW177405  10.083   1.970   8.641
91836SOL    HW277406   9.997   2.038   8.746
91837SOL     OW77407  12.107   7.609   9.037
91837SOL    HW177408  12.084   7.662   8.960
91837SOL    HW277409  12.039   7.631   9.102
91838SOL     OW77410  10.780   0.995   8.134
91838SOL    HW177411  10.772   0.907   8.170
91838SOL    HW277412  10.723   0.995   8.057
91839SOL     OW77413  10.556   7.691  10.063
91839SOL    HW177414  10.461   7.701  10.074
91839SOL    HW277415  10.575   7.737   9.981
91840SOL     OW77416   5.794  10.063   7.620
91840SOL    HW177417   5.776  10.157   7.617
91840SOL    HW277418   5.827  10.041   7.533
91841SOL     OW77419  13.957   0.922   7.399
91841SOL    HW177420  13.964   0.827   7.403
91841SOL    HW277421  14.011   0.953   7.472
91842SOL     OW77422   2.966   9.783  14.072
91842SOL    HW177423   2.889   9.800  14.125
91842SOL    HW277424   2.942   9.812  13.984
91843SOL     OW77425  10.860  11.124   5.523
91843SOL    HW177426  10.923  11.054   5.540
91843SOL    HW277427  10.790  11.082   5.473
91844SOL     OW77428  10.878  14.060   8.455
91844SOL    HW177429  10.852  14.051   8.363
91844SOL    HW277430  10.966  14.023   8.459
91845SOL     OW77431  11.847   7.905  11.864
91845SOL    HW177432  11.844   7.815  11.833
91845SOL    HW277433  11.798   7.955  11.799
91846SOL     OW77434   5.208   0.142   7.567
91846SOL    HW177435   5.266   0.066   7.558
91846SOL    HW277436   5.162   0.146   7.483
91847SOL     OW77437  12.823   9.986   9.789
91847SOL    HW177438  12.846   9.992   9.696
91847SOL    HW277439  12.895  10.030   9.834
91848SOL     OW77440   2.239   7.217  10.369
91848SOL    HW177441   2.281   7.133  10.351
91848SOL    HW277442   2.307   7.270  10.411
91849SOL     OW77443   0.895   6.112   5.819
91849SOL    HW177444   0.954   6.096   5.892
91849SOL    HW277445   0.943   6.171   5.761
91850SOL     OW77446   9.326   7.760   6.493
91850SOL    HW177447   9.302   7.676   6.455
91850SOL    HW277448   9.282   7.825   6.437
91851SOL     OW77449  10.789  10.024   3.376
91851SOL    HW177450  10.775  10.104   3.325
91851SOL    HW277451  10.704  10.006   3.416
91852SOL     OW77452   4.263   8.943   8.926
91852SOL    HW177453   4.280   8.924   8.834
91852SOL    HW277454   4.188   9.003   8.925
91853SOL     OW77455   6.713   2.336   6.275
91853SOL    HW177456   6.738   2.252   6.236
91853SOL    HW277457   6.632   2.316   6.323
91854SOL     OW77458   4.542   3.273   5.172
91854SOL    HW177459   4.516   3.365   5.178
91854SOL    HW277460   4.477   3.233   5.114
91855SOL     OW77461   8.148  11.001   5.806
91855SOL    HW177462   8.227  10.947   5.802
91855SOL    HW277463   8.165  11.074   5.747
91856SOL     OW77464   8.283   3.334  10.124
91856SOL    HW177465   8.308   3.243  10.135
91856SOL    HW277466   8.277   3.368  10.213
91857SOL     OW77467  14.872   6.186   7.522
91857SOL    HW177468  14.799   6.180   7.584
91857SOL    HW277469   0.044   6.116   7.548
91858SOL     OW77470   3.681  13.710   1.935
91858SOL    HW177471   3.615  13.721   1.866
91858SOL    HW277472   3.673  13.789   1.988
91859SOL     OW77473   5.152  12.400   0.254
91859SOL    HW177474   5.115  12.359   0.332
91859SOL    HW277475   5.239  12.362   0.246
91860SOL     OW77476   4.505   3.094  13.911
91860SOL    HW177477   4.487   3.188  13.902
91860SOL    HW277478   4.529   3.083  14.003
91861SOL     OW77479   1.333   3.923   8.508
91861SOL    HW177480   1.362   3.847   8.457
91861SOL    HW277481   1.276   3.886   8.575
91862SOL     OW77482   9.064   4.544  12.506
91862SOL    HW177483   9.012   4.464  12.519
91862SOL    HW277484   9.095   4.567  12.593
91863SOL     OW77485   4.509   8.418   7.888
91863SOL    HW177486   4.435   8.357   7.897
91863SOL    HW277487   4.585   8.368   7.919
91864SOL     OW77488  13.738   8.650   2.546
91864SOL    HW177489  13.767   8.623   2.458
91864SOL    HW277490  13.735   8.745   2.541
91865SOL     OW77491   1.045  14.157   3.629
91865SOL    HW177492   1.138  14.151   3.608
91865SOL    HW277493   1.042  14.161   3.724
91866SOL     OW77494  12.734  13.785   0.754
91866SOL    HW177495  12.716  13.691   0.761
91866SOL    HW277496  12.776  13.795   0.669
91867SOL     OW77497   1.563   9.067  12.364
91867SOL    HW177498   1.640   9.011  12.377
91867SOL    HW277499   1.592   9.134  12.304
91868SOL     OW77500   6.472   5.068   0.388
91868SOL    HW177501   6.438   5.018   0.463
91868SOL    HW277502   6.394   5.105   0.347
91869SOL     OW77503   8.030  11.015   7.414
91869SOL    HW177504   8.104  10.956   7.402
91869SOL    HW277505   8.055  11.070   7.488
91870SOL     OW77506   0.820   8.497   4.041
91870SOL    HW177507   0.815   8.576   3.986
91870SOL    HW277508   0.890   8.445   4.001
91871SOL     OW77509   8.147   9.853   9.230
91871SOL    HW177510   8.136   9.759   9.217
91871SOL    HW277511   8.237   9.871   9.201
91872SOL     OW77512  11.640   1.081  14.595
91872SOL    HW177513  11.620   1.171  14.570
91872SOL    HW277514  11.564   1.052  14.646
91873SOL     OW77515  10.221   3.768   2.146
91873SOL    HW177516  10.270   3.726   2.217
91873SOL    HW277517  10.241   3.715   2.069
91874SOL     OW77518   1.821   4.387   8.690
91874SOL    HW177519   1.842   4.386   8.597
91874SOL    HW277520   1.865   4.465   8.724
91875SOL     OW77521  12.821   3.110   2.669
91875SOL    HW177522  12.785   3.121   2.581
91875SOL    HW277523  12.899   3.056   2.656
91876SOL     OW77524   8.327   0.715   1.028
91876SOL    HW177525   8.233   0.706   1.014
91876SOL    HW277526   8.367   0.658   0.962
91877SOL     OW77527   4.426   6.344   6.413
91877SOL    HW177528   4.345   6.295   6.427
91877SOL    HW277529   4.414   6.426   6.460
91878SOL     OW77530  14.380   7.209  11.965
91878SOL    HW177531  14.408   7.264  11.892
91878SOL    HW277532  14.337   7.134  11.924
91879SOL     OW77533   2.893   0.219   8.468
91879SOL    HW177534   2.840   0.277   8.523
91879SOL    HW277535   2.978   0.215   8.512
91880SOL     OW77536   5.327   6.133   4.351
91880SOL    HW177537   5.303   6.131   4.259
91880SOL    HW277538   5.306   6.222   4.380
91881SOL     OW77539  12.301  14.049  12.919
91881SOL    HW177540  12.217  14.005  12.925
91881SOL    HW277541  12.296  14.100  12.838
91882SOL     OW77542   3.973  10.639   4.692
91882SOL    HW177543   3.930  10.684   4.619
91882SOL    HW277544   4.066  10.651   4.675
91883SOL     OW77545   6.938   7.973   3.565
91883SOL    HW177546   6.846   7.980   3.539
91883SOL    HW277547   6.962   7.883   3.544
91884SOL     OW77548  10.041   1.264  13.597
91884SOL    HW177549   9.998   1.242  13.679
91884SOL    HW277550  10.067   1.356  13.606
91885SOL     OW77551   4.369   0.245  11.432
91885SOL    HW177552   4.375   0.219  11.524
91885SOL    HW277553   4.404   0.171  11.384
91886SOL     OW77554   1.041   7.369  13.974
91886SOL    HW177555   1.051   7.324  14.058
91886SOL    HW277556   0.972   7.434  13.991
91887SOL     OW77557   5.089  10.490   7.758
91887SOL    HW177558   5.104  10.487   7.853
91887SOL    HW277559   5.096  10.582   7.736
91888SOL     OW77560   9.277   7.595   9.022
91888SOL    HW177561   9.244   7.573   9.109
91888SOL    HW277562   9.254   7.688   9.011
91889SOL     OW77563  11.003   0.122   3.087
91889SOL    HW177564  10.957   0.148   3.007
91889SOL    HW277565  11.031   0.032   3.070
91890SOL     OW77566   7.884   9.928  14.335
91890SOL    HW177567   7.913   9.848  14.379
91890SOL    HW277568   7.925   9.999  14.384
91891SOL     OW77569  13.080   5.321   6.343
91891SOL    HW177570  13.044   5.409   6.337
91891SOL    HW277571  13.013   5.270   6.388
91892SOL     OW77572   3.517   4.552   7.344
91892SOL    HW177573   3.540   4.624   7.403
91892SOL    HW277574   3.428   4.571   7.316
91893SOL     OW77575   3.031   1.344  10.654
91893SOL    HW177576   3.100   1.357  10.589
91893SOL    HW277577   2.954   1.318  10.604
91894SOL     OW77578   3.326   2.290   9.891
91894SOL    HW177579   3.286   2.372   9.860
91894SOL    HW277580   3.407   2.317   9.934
91895SOL     OW77581   7.500   3.447  13.958
91895SOL    HW177582   7.486   3.365  14.006
91895SOL    HW277583   7.581   3.482  13.994
91896SOL     OW77584  14.887   5.856   0.384
91896SOL    HW177585   0.086   5.881   0.353
91896SOL    HW277586   0.011   5.842   0.479
91897SOL     OW77587   7.483  12.395   1.536
91897SOL    HW177588   7.442  12.309   1.548
91897SOL    HW277589   7.458  12.421   1.448
91898SOL     OW77590   2.334   2.286   3.572
91898SOL    HW177591   2.385   2.326   3.643
91898SOL    HW277592   2.314   2.198   3.604
91899SOL     OW77593   7.091  11.182   5.649
91899SOL    HW177594   7.007  11.158   5.687
91899SOL    HW277595   7.113  11.265   5.691
91900SOL     OW77596   7.896   0.808   1.404
91900SOL    HW177597   7.920   0.723   1.367
91900SOL    HW277598   7.935   0.872   1.344
91901SOL     OW77599   6.948  12.277   5.321
91901SOL    HW177600   7.017  12.268   5.387
91901SOL    HW277601   6.964  12.205   5.261
91902SOL     OW77602  13.409  12.363  12.142
91902SOL    HW177603  13.451  12.277  12.145
91902SOL    HW277604  13.394  12.385  12.234
91903SOL     OW77605   7.317   9.942   3.540
91903SOL    HW177606   7.244   9.958   3.481
91903SOL    HW277607   7.300   9.855   3.577
91904SOL     OW77608   1.766   0.549   2.798
91904SOL    HW177609   1.823   0.496   2.853
91904SOL    HW277610   1.783   0.639   2.825
91905SOL     OW77611  10.413  11.496   3.424
91905SOL    HW177612  10.506  11.496   3.448
91905SOL    HW277613  10.368  11.520   3.505
91906SOL     OW77614  10.657   2.538   6.884
91906SOL    HW177615  10.568   2.518   6.857
91906SOL    HW277616  10.709   2.462   6.856
91907SOL     OW77617   8.474   5.771   2.139
91907SOL    HW177618   8.392   5.730   2.166
91907SOL    HW277619   8.539   5.736   2.200
91908SOL     OW77620  14.529   8.020   7.343
91908SOL    HW177621  14.519   7.933   7.383
91908SOL    HW277622  14.536   8.080   7.417
91909SOL     OW77623  10.708   3.817   7.046
91909SOL    HW177624  10.645   3.760   7.091
91909SOL    HW277625  10.710   3.785   6.956
91910SOL     OW77626   4.009  14.615   8.606
91910SOL    HW177627   4.020  14.641   8.515
91910SOL    HW277628   3.930  14.662   8.634
91911SOL     OW77629   3.296   8.407   0.770
91911SOL    HW177630   3.249   8.466   0.829
91911SOL    HW277631   3.277   8.319   0.804
91912SOL     OW77632  10.642   5.980   1.486
91912SOL    HW177633  10.690   5.927   1.550
91912SOL    HW277634  10.608   6.054   1.536
91913SOL     OW77635  11.277   3.205  14.478
91913SOL    HW177636  11.262   3.201  14.384
91913SOL    HW277637  11.346   3.141  14.494
91914SOL     OW77638   1.115   2.442   4.743
91914SOL    HW177639   1.068   2.388   4.680
91914SOL    HW277640   1.050   2.504   4.776
91915SOL     OW77641   8.747  11.117   7.509
91915SOL    HW177642   8.798  11.039   7.530
91915SOL    HW277643   8.806  11.190   7.525
91916SOL     OW77644  14.531   5.198   7.846
91916SOL    HW177645  14.579   5.200   7.929
91916SOL    HW277646  14.479   5.117   7.851
91917SOL     OW77647  13.553   5.491   8.627
91917SOL    HW177648  13.590   5.520   8.544
91917SOL    HW277649  13.458   5.499   8.616
91918SOL     OW77650   8.810  14.708  10.988
91918SOL    HW177651   8.777  14.754  11.065
91918SOL    HW277652   8.899  14.741  10.976
91919SOL     OW77653   5.521  14.339   2.100
91919SOL    HW177654   5.433  14.323   2.067
91919SOL    HW277655   5.520  14.430   2.129
91920SOL     OW77656  12.645   8.936   5.544
91920SOL    HW177657  12.586   8.893   5.607
91920SOL    HW277658  12.677   9.013   5.590
91921SOL     OW77659  14.477   6.866  12.039
91921SOL    HW177660  14.398   6.873  12.093
91921SOL    HW277661  14.474   6.778  12.003
91922SOL     OW77662   6.108   3.353   9.735
91922SOL    HW177663   6.021   3.350   9.695
91922SOL    HW277664   6.129   3.261   9.752
91923SOL     OW77665  10.921   9.515   7.906
91923SOL    HW177666  10.978   9.496   7.981
91923SOL    HW277667  10.861   9.441   7.901
91924SOL     OW77668   1.087   1.426   1.216
91924SOL    HW177669   1.146   1.410   1.289
91924SOL    HW277670   1.056   1.340   1.190
91925SOL     OW77671  13.990   5.053   2.079
91925SOL    HW177672  13.909   5.067   2.128
91925SOL    HW277673  13.978   4.969   2.035
91926SOL     OW77674  11.894   9.076  12.128
91926SOL    HW177675  11.955   9.018  12.174
91926SOL    HW277676  11.944   9.111  12.055
91927SOL     OW77677   9.363  14.627   4.673
91927SOL    HW177678   9.321  14.629   4.587
91927SOL    HW277679   9.291  14.619   4.735
91928SOL     OW77680  10.369   3.808  13.347
91928SOL    HW177681  10.284   3.801  13.391
91928SOL    HW277682  10.359   3.756  13.267
91929SOL     OW77683   6.234   9.889  11.401
91929SOL    HW177684   6.261   9.976  11.430
91929SOL    HW277685   6.141   9.884  11.422
91930SOL     OW77686  10.696   3.901   3.401
91930SOL    HW177687  10.676   3.944   3.484
91930SOL    HW277688  10.612   3.866   3.371
91931SOL     OW77689  13.706   8.828   7.527
91931SOL    HW177690  13.701   8.872   7.612
91931SOL    HW277691  13.673   8.740   7.543
91932SOL     OW77692  12.180   9.986   7.581
91932SOL    HW177693  12.251  10.039   7.545
91932SOL    HW277694  12.223   9.926   7.641
91933SOL     OW77695   6.980  13.581  14.479
91933SOL    HW177696   6.958  13.615  14.565
91933SOL    HW277697   6.901  13.534  14.450
91934SOL     OW77698  12.844   4.620   9.537
91934SOL    HW177699  12.847   4.715   9.540
91934SOL    HW277700  12.934   4.593   9.517
91935SOL     OW77701  12.009   7.764   5.379
91935SOL    HW177702  12.067   7.835   5.350
91935SOL    HW277703  11.946   7.754   5.307
91936SOL     OW77704  12.788  13.543  13.693
91936SOL    HW177705  12.749  13.477  13.636
91936SOL    HW277706  12.713  13.580  13.740
91937SOL     OW77707  12.418   6.642  14.135
91937SOL    HW177708  12.447   6.635  14.044
91937SOL    HW277709  12.327   6.610  14.134
91938SOL     OW77710   1.433   5.510   5.405
91938SOL    HW177711   1.465   5.600   5.411
91938SOL    HW277712   1.338   5.519   5.405
91939SOL     OW77713   9.170   4.195  11.982
91939SOL    HW177714   9.097   4.250  11.953
91939SOL    HW277715   9.158   4.188  12.077
91940SOL     OW77716   2.018   1.581   9.686
91940SOL    HW177717   2.093   1.522   9.695
91940SOL    HW277718   2.042   1.640   9.615
91941SOL     OW77719  13.298  14.164  10.379
91941SOL    HW177720  13.338  14.079  10.363
91941SOL    HW277721  13.355  14.205  10.444
91942SOL     OW77722  14.008   3.108   5.396
91942SOL    HW177723  14.033   3.161   5.320
91942SOL    HW277724  13.978   3.025   5.359
91943SOL     OW77725   5.427   1.417   0.466
91943SOL    HW177726   5.403   1.494   0.414
91943SOL    HW277727   5.522   1.413   0.461
91944SOL     OW77728  11.986   5.226  14.265
91944SOL    HW177729  12.009   5.238  14.173
91944SOL    HW277730  12.068   5.238  14.313
91945SOL     OW77731   6.468  13.832   1.640
91945SOL    HW177732   6.548  13.875   1.672
91945SOL    HW277733   6.424  13.803   1.720
91946SOL     OW77734   8.192   0.356   3.083
91946SOL    HW177735   8.260   0.333   3.021
91946SOL    HW277736   8.146   0.274   3.100
91947SOL     OW77737   7.846   9.441   9.999
91947SOL    HW177738   7.852   9.497  10.077
91947SOL    HW277739   7.828   9.502   9.928
91948SOL     OW77740  10.786   6.674   1.236
91948SOL    HW177741  10.714   6.705   1.291
91948SOL    HW277742  10.756   6.591   1.201
91949SOL     OW77743   4.114   0.849  10.514
91949SOL    HW177744   4.173   0.819  10.582
91949SOL    HW277745   4.135   0.942  10.502
91950SOL     OW77746   9.459  10.975   8.053
91950SOL    HW177747   9.533  11.036   8.053
91950SOL    HW277748   9.499  10.889   8.062
91951SOL     OW77749   8.143   0.604  11.735
91951SOL    HW177750   8.214   0.663  11.708
91951SOL    HW277751   8.184   0.548  11.801
91952SOL     OW77752   6.278  10.569   7.818
91952SOL    HW177753   6.229  10.560   7.736
91952SOL    HW277754   6.244  10.499   7.874
91953SOL     OW77755  12.171   3.655  11.924
91953SOL    HW177756  12.114   3.633  11.998
91953SOL    HW277757  12.124   3.624  11.847
91954SOL     OW77758   6.514  12.324   5.695
91954SOL    HW177759   6.497  12.283   5.781
91954SOL    HW277760   6.607  12.345   5.696
91955SOL     OW77761   1.408   8.420   9.364
91955SOL    HW177762   1.343   8.397   9.431
91955SOL    HW277763   1.442   8.506   9.392
91956SOL     OW77764  14.354   5.649   5.341
91956SOL    HW177765  14.317   5.612   5.261
91956SOL    HW277766  14.337   5.582   5.408
91957SOL     OW77767   0.716   4.520   0.192
91957SOL    HW177768   0.749   4.430   0.189
91957SOL    HW277769   0.749   4.560   0.111
91958SOL     OW77770   7.556   4.060   1.270
91958SOL    HW177771   7.481   4.078   1.327
91958SOL    HW277772   7.517   4.042   1.184
91959SOL     OW77773  13.654   9.456  14.577
91959SOL    HW177774  13.640   9.545  14.547
91959SOL    HW277775  13.745   9.436  14.553
91960SOL     OW77776   1.390  13.872  10.751
91960SOL    HW177777   1.360  13.863  10.841
91960SOL    HW277778   1.379  13.785  10.712
91961SOL     OW77779  10.361   4.218   8.581
91961SOL    HW177780  10.371   4.301   8.629
91961SOL    HW277781  10.354   4.244   8.489
91962SOL     OW77782   3.578   2.170  12.483
91962SOL    HW177783   3.608   2.198  12.396
91962SOL    HW277784   3.520   2.095  12.465
91963SOL     OW77785   8.007   2.316   1.276
91963SOL    HW177786   7.969   2.240   1.321
91963SOL    HW277787   7.941   2.340   1.211
91964SOL     OW77788   8.447   2.471  10.212
91964SOL    HW177789   8.537   2.485  10.183
91964SOL    HW277790   8.447   2.383  10.250
91965SOL     OW77791   2.863   4.391   6.961
91965SOL    HW177792   2.900   4.303   6.964
91965SOL    HW277793   2.870   4.416   6.869
91966SOL     OW77794   9.281   7.342   8.273
91966SOL    HW177795   9.219   7.310   8.207
91966SOL    HW277796   9.341   7.399   8.224
91967SOL     OW77797  13.315   5.248  13.685
91967SOL    HW177798  13.391   5.204  13.647
91967SOL    HW277799  13.352   5.320  13.736
91968SOL     OW77800   7.285  10.194   0.410
91968SOL    HW177801   7.274  10.288   0.428
91968SOL    HW277802   7.271  10.186   0.316
91969SOL     OW77803   3.952   2.808   3.805
91969SOL    HW177804   4.004   2.750   3.860
91969SOL    HW277805   3.861   2.784   3.823
91970SOL     OW77806  11.802   1.306   5.005
91970SOL    HW177807  11.791   1.391   5.048
91970SOL    HW277808  11.895   1.286   5.016
91971SOL     OW77809   6.657   8.346   4.349
91971SOL    HW177810   6.713   8.422   4.331
91971SOL    HW277811   6.673   8.286   4.276
91972SOL     OW77812  13.738   2.251  13.389
91972SOL    HW177813  13.735   2.197  13.468
91972SOL    HW277814  13.825   2.291  13.391
91973SOL     OW77815   3.044  11.493   2.894
91973SOL    HW177816   3.055  11.421   2.831
91973SOL    HW277817   3.104  11.471   2.965
91974SOL     OW77818   1.421   3.110   2.013
91974SOL    HW177819   1.362   3.173   1.972
91974SOL    HW277820   1.362   3.050   2.060
91975SOL     OW77821   8.287   7.645   3.104
91975SOL    HW177822   8.357   7.608   3.157
91975SOL    HW277823   8.207   7.624   3.152
91976SOL     OW77824   5.737  14.789  14.742
91976SOL    HW177825   5.816  14.808  14.793
91976SOL    HW277826   5.666  14.826  14.795
91977SOL     OW77827   5.317   9.962   2.951
91977SOL    HW177828   5.291  10.054   2.954
91977SOL    HW277829   5.255   9.922   2.890
91978SOL     OW77830   1.642   1.718   2.683
91978SOL    HW177831   1.668   1.768   2.760
91978SOL    HW277832   1.724   1.703   2.635
91979SOL     OW77833   5.919   3.687  14.621
91979SOL    HW177834   5.869   3.683  14.703
91979SOL    HW277835   5.852   3.696  14.553
91980SOL     OW77836   6.417   8.385  13.593
91980SOL    HW177837   6.341   8.334  13.566
91980SOL    HW277838   6.491   8.342  13.549
91981SOL     OW77839  11.097   0.744   9.731
91981SOL    HW177840  11.052   0.666   9.700
91981SOL    HW277841  11.185   0.738   9.693
91982SOL     OW77842   8.831   4.308   8.670
91982SOL    HW177843   8.832   4.262   8.754
91982SOL    HW277844   8.750   4.359   8.672
91983SOL     OW77845  10.532   0.919   6.900
91983SOL    HW177846  10.494   0.845   6.853
91983SOL    HW277847  10.552   0.983   6.831
91984SOL     OW77848  14.566   6.077   2.870
91984SOL    HW177849  14.566   6.115   2.957
91984SOL    HW277850  14.587   5.984   2.884
91985SOL     OW77851   1.801  14.444  11.887
91985SOL    HW177852   1.719  14.398  11.873
91985SOL    HW277853   1.865  14.394  11.836
91986SOL     OW77854  10.880  13.316  10.570
91986SOL    HW177855  10.886  13.339  10.478
91986SOL    HW277856  10.794  13.276  10.579
91987SOL     OW77857   3.401   9.431   2.484
91987SOL    HW177858   3.378   9.509   2.434
91987SOL    HW277859   3.325   9.416   2.541
91988SOL     OW77860  13.071  13.694   1.799
91988SOL    HW177861  12.980  13.715   1.778
91988SOL    HW277862  13.095  13.626   1.736
91989SOL     OW77863  13.754   3.159   5.185
91989SOL    HW177864  13.693   3.130   5.253
91989SOL    HW277865  13.700   3.204   5.121
91990SOL     OW77866  10.900   2.031   6.603
91990SOL    HW177867  10.899   1.941   6.570
91990SOL    HW277868  10.938   2.082   6.531
91991SOL     OW77869  12.760  14.099   4.722
91991SOL    HW177870  12.696  14.171   4.728
91991SOL    HW277871  12.842  14.142   4.699
91992SOL     OW77872   1.868  14.032   4.541
91992SOL    HW177873   1.919  13.988   4.608
91992SOL    HW277874   1.933  14.069   4.481
91993SOL     OW77875   6.196   8.184   0.221
91993SOL    HW177876   6.117   8.185   0.274
91993SOL    HW277877   6.168   8.213   0.135
91994SOL     OW77878   9.721   3.019   7.420
91994SOL    HW177879   9.732   2.973   7.503
91994SOL    HW277880   9.721   3.111   7.443
91995SOL     OW77881   6.216   7.915  11.712
91995SOL    HW177882   6.280   7.844  11.707
91995SOL    HW277883   6.264   7.992  11.681
91996SOL     OW77884  13.785  11.326   0.689
91996SOL    HW177885  13.736  11.245   0.673
91996SOL    HW277886  13.877  11.300   0.679
91997SOL     OW77887   1.352   7.506  10.108
91997SOL    HW177888   1.297   7.457  10.168
91997SOL    HW277889   1.367   7.447  10.035
91998SOL     OW77890  14.378   8.441  11.609
91998SOL    HW177891  14.428   8.383  11.667
91998SOL    HW277892  14.311   8.480  11.666
91999SOL     OW77893  11.869  12.245  11.437
91999SOL    HW177894  11.926  12.195  11.378
91999SOL    HW277895  11.930  12.288  11.498
92000SOL     OW77896  12.525   3.598   9.019
92000SOL    HW177897  12.472   3.539   9.072
92000SOL    HW277898  12.462   3.661   8.983
92001SOL     OW77899  10.625   2.285  12.180
92001SOL    HW177900  10.602   2.295  12.272
92001SOL    HW277901  10.560   2.222  12.146
92002SOL     OW77902   0.975   9.907   5.677
92002SOL    HW177903   0.898   9.962   5.688
92002SOL    HW277904   1.040   9.943   5.738
92003SOL     OW77905   3.591   7.483   7.579
92003SOL    HW177906   3.549   7.401   7.550
92003SOL    HW277907   3.595   7.537   7.500
92004SOL     OW77908   8.128   6.590  12.228
92004SOL    HW177909   8.116   6.500  12.259
92004SOL    HW277910   8.097   6.644  12.300
92005SOL     OW77911  14.073  10.340   8.494
92005SOL    HW177912  14.045  10.407   8.432
92005SOL    HW277913  14.055  10.257   8.449
92006SOL     OW77914   4.330  10.977  12.935
92006SOL    HW177915   4.290  10.931  12.861
92006SOL    HW277916   4.328  11.069  12.910
92007SOL     OW77917   6.704   6.695  12.706
92007SOL    HW177918   6.780   6.673  12.651
92007SOL    HW277919   6.629   6.661  12.658
92008SOL     OW77920  12.490   6.117  13.212
92008SOL    HW177921  12.493   6.188  13.148
92008SOL    HW277922  12.399   6.116  13.243
92009SOL     OW77923   1.803  13.381   9.369
92009SOL    HW177924   1.725  13.416   9.326
92009SOL    HW277925   1.876  13.410   9.314
92010SOL     OW77926  12.608   6.186   5.220
92010SOL    HW177927  12.637   6.179   5.129
92010SOL    HW277928  12.684   6.160   5.272
92011SOL     OW77929  11.681  13.773   0.982
92011SOL    HW177930  11.735  13.831   0.927
92011SOL    HW277931  11.636  13.716   0.919
92012SOL     OW77932   8.466   7.137   2.991
92012SOL    HW177933   8.551   7.138   3.035
92012SOL    HW277934   8.487   7.129   2.898
92013SOL     OW77935   8.737  12.790   7.502
92013SOL    HW177936   8.692  12.841   7.435
92013SOL    HW277937   8.742  12.848   7.578
92014SOL     OW77938  12.739   8.800   4.786
92014SOL    HW177939  12.659   8.757   4.818
92014SOL    HW277940  12.795   8.728   4.758
92015SOL     OW77941   6.509  13.656  14.711
92015SOL    HW177942   6.465  13.737  14.687
92015SOL    HW277943   6.488  13.643  14.803
92016SOL     OW77944  12.897   8.519   7.084
92016SOL    HW177945  12.951   8.463   7.028
92016SOL    HW277946  12.923   8.608   7.061
92017SOL     OW77947   0.347  12.375   4.514
92017SOL    HW177948   0.270  12.371   4.571
92017SOL    HW277949   0.422  12.376   4.574
92018SOL     OW77950   9.786   1.589   0.779
92018SOL    HW177951   9.866   1.600   0.727
92018SOL    HW277952   9.808   1.624   0.865
92019SOL     OW77953   5.518   2.106   2.657
92019SOL    HW177954   5.601   2.150   2.639
92019SOL    HW277955   5.521   2.025   2.608
92020SOL     OW77956   2.982   8.345   8.066
92020SOL    HW177957   2.903   8.365   8.115
92020SOL    HW277958   2.974   8.395   7.985
92021SOL     OW77959   7.860   1.600  11.009
92021SOL    HW177960   7.796   1.559  10.950
92021SOL    HW277961   7.806   1.649  11.071
92022SOL     OW77962  14.693   5.954  13.771
92022SOL    HW177963  14.730   6.015  13.835
92022SOL    HW277964  14.600   5.947  13.794
92023SOL     OW77965   0.851   3.859  13.773
92023SOL    HW177966   0.809   3.881  13.856
92023SOL    HW277967   0.779   3.856  13.710
92024SOL     OW77968   4.654   2.330   0.536
92024SOL    HW177969   4.722   2.264   0.553
92024SOL    HW277970   4.572   2.281   0.537
92025SOL     OW77971   3.002   8.448   7.236
92025SOL    HW177972   3.066   8.505   7.279
92025SOL    HW277973   2.925   8.452   7.293
92026SOL     OW77974  14.727   4.431  13.823
92026SOL    HW177975  14.720   4.526  13.819
92026SOL    HW277976  14.720   4.410  13.916
92027SOL     OW77977   5.230  11.151   9.988
92027SOL    HW177978   5.206  11.135  10.079
92027SOL    HW277979   5.282  11.075   9.962
92028SOL     OW77980   8.202   2.682  11.011
92028SOL    HW177981   8.276   2.636  10.970
92028SOL    HW277982   8.242   2.760  11.051
92029SOL     OW77983   3.464  13.890   5.266
92029SOL    HW177984   3.376  13.852   5.272
92029SOL    HW277985   3.454  13.980   5.298
92030SOL     OW77986   7.482   6.529   3.838
92030SOL    HW177987   7.436   6.445   3.840
92030SOL    HW277988   7.513   6.537   3.748
92031SOL     OW77989   0.332   8.716   0.986
92031SOL    HW177990   0.390   8.651   0.948
92031SOL    HW277991   0.261   8.665   1.025
92032SOL     OW77992   5.494   3.556   7.966
92032SOL    HW177993   5.586   3.559   7.939
92032SOL    HW277994   5.445   3.554   7.883
92033SOL     OW77995   4.743   2.118   1.497
92033SOL    HW177996   4.767   2.208   1.474
92033SOL    HW277997   4.769   2.109   1.589
92034SOL     OW77998   9.772   9.224   4.835
92034SOL    HW177999   9.694   9.200   4.884
92034SOL    HW278000   9.759   9.186   4.749
92035SOL     OW78001  13.518   9.200   0.519
92035SOL    HW178002  13.446   9.211   0.581
92035SOL    HW278003  13.490   9.128   0.462
92036SOL     OW78004  14.528  14.334  14.107
92036SOL    HW178005  14.564  14.254  14.069
92036SOL    HW278006  14.528  14.397  14.035
92037SOL     OW78007   3.946   2.601  12.733
92037SOL    HW178008   3.972   2.569  12.646
92037SOL    HW278009   3.936   2.521  12.785
92038SOL     OW78010   3.906  12.351  10.129
92038SOL    HW178011   3.848  12.418  10.166
92038SOL    HW278012   3.994  12.379  10.151
92039SOL     OW78013   8.945  14.762   1.711
92039SOL    HW178014   8.988  14.772   1.626
92039SOL    HW278015   8.856  14.734   1.689
92040SOL     OW78016   5.117  14.487   5.679
92040SOL    HW178017   5.176  14.416   5.702
92040SOL    HW278018   5.152  14.564   5.725
92041SOL     OW78019  11.617  14.108  10.157
92041SOL    HW178020  11.684  14.041  10.162
92041SOL    HW278021  11.581  14.113  10.246
92042SOL     OW78022  12.874   9.821   0.974
92042SOL    HW178023  12.861   9.742   1.027
92042SOL    HW278024  12.966   9.842   0.986
92043SOL     OW78025   4.097   4.364   1.714
92043SOL    HW178026   4.041   4.291   1.688
92043SOL    HW278027   4.065   4.389   1.801
92044SOL     OW78028  14.783   0.479   6.806
92044SOL    HW178029  14.852   0.413   6.815
92044SOL    HW278030  14.708   0.431   6.771
92045SOL     OW78031   2.581   6.062   7.739
92045SOL    HW178032   2.611   6.043   7.828
92045SOL    HW278033   2.656   6.104   7.697
92046SOL     OW78034   7.666  12.016  11.023
92046SOL    HW178035   7.729  12.086  11.040
92046SOL    HW278036   7.675  11.999  10.929
92047SOL     OW78037   8.889   7.518   7.655
92047SOL    HW178038   8.887   7.506   7.750
92047SOL    HW278039   8.824   7.457   7.622
92048SOL     OW78040  11.882   7.131   5.836
92048SOL    HW178041  11.831   7.116   5.756
92048SOL    HW278042  11.939   7.205   5.814
92049SOL     OW78043   3.030   5.853   4.004
92049SOL    HW178044   3.079   5.771   4.003
92049SOL    HW278045   2.942   5.827   3.976
92050SOL     OW78046   0.910   3.324   3.439
92050SOL    HW178047   0.964   3.400   3.420
92050SOL    HW278048   0.895   3.284   3.353
92051SOL     OW78049   6.283   8.630  14.778
92051SOL    HW178050   6.372   8.600  14.798
92051SOL    HW278051   6.282   8.640  14.683
92052SOL     OW78052   4.234   0.928   7.683
92052SOL    HW178053   4.230   0.848   7.630
92052SOL    HW278054   4.143   0.945   7.707
92053SOL     OW78055   9.041   9.449   7.066
92053SOL    HW178056   9.113   9.512   7.073
92053SOL    HW278057   9.032   9.434   6.971
92054SOL     OW78058   1.608   0.904   2.059
92054SOL    HW178059   1.620   0.819   2.100
92054SOL    HW278060   1.522   0.933   2.089
92055SOL     OW78061   0.953   7.509   3.412
92055SOL    HW178062   0.982   7.547   3.495
92055SOL    HW278063   1.012   7.546   3.347
92056SOL     OW78064   5.114  10.479   2.237
92056SOL    HW178065   5.044  10.496   2.299
92056SOL    HW278066   5.074  10.491   2.151
92057SOL     OW78067   8.968   0.670  11.921
92057SOL    HW178068   9.041   0.726  11.948
92057SOL    HW278069   8.921   0.651  12.003
92058SOL     OW78070   8.619   1.128   4.588
92058SOL    HW178071   8.709   1.125   4.556
92058SOL    HW278072   8.583   1.209   4.552
92059SOL     OW78073   1.854   9.192   4.602
92059SOL    HW178074   1.878   9.152   4.519
92059SOL    HW278075   1.835   9.118   4.660
92060SOL     OW78076   9.255  13.669   4.614
92060SOL    HW178077   9.210  13.710   4.540
92060SOL    HW278078   9.195  13.680   4.687
92061SOL     OW78079   7.218  13.143   9.423
92061SOL    HW178080   7.215  13.180   9.335
92061SOL    HW278081   7.193  13.051   9.411
92062SOL     OW78082   0.854  11.741   2.123
92062SOL    HW178083   0.810  11.747   2.038
92062SOL    HW278084   0.881  11.649   2.129
92063SOL     OW78085   2.682  11.611  12.916
92063SOL    HW178086   2.618  11.669  12.873
92063SOL    HW278087   2.642  11.590  13.000
92064SOL     OW78088  12.873   3.975   0.206
92064SOL    HW178089  12.854   3.894   0.254
92064SOL    HW278090  12.946   3.952   0.149
92065SOL     OW78091  12.110   4.971  14.561
92065SOL    HW178092  12.044   4.957  14.493
92065SOL    HW278093  12.094   5.060  14.593
92066SOL     OW78094   4.943   1.005   1.781
92066SOL    HW178095   4.917   1.097   1.791
92066SOL    HW278096   4.864   0.961   1.750
92067SOL     OW78097  13.958   7.697  10.885
92067SOL    HW178098  13.963   7.727  10.794
92067SOL    HW278099  14.049   7.677  10.909
92068SOL     OW78100   2.902   4.371  14.264
92068SOL    HW178101   2.859   4.365  14.179
92068SOL    HW278102   2.852   4.313  14.321
92069SOL     OW78103   8.904   1.344  14.297
92069SOL    HW178104   8.941   1.426  14.329
92069SOL    HW278105   8.977   1.298  14.255
92070SOL     OW78106   2.174   3.455   5.579
92070SOL    HW178107   2.156   3.542   5.543
92070SOL    HW278108   2.246   3.469   5.640
92071SOL     OW78109  12.776   2.075   0.334
92071SOL    HW178110  12.779   1.983   0.307
92071SOL    HW278111  12.757   2.072   0.428
92072SOL     OW78112   3.192   2.784   6.617
92072SOL    HW178113   3.123   2.744   6.565
92072SOL    HW278114   3.225   2.713   6.672
92073SOL     OW78115   9.061   4.965  10.332
92073SOL    HW178116   9.013   4.943  10.412
92073SOL    HW278117   9.123   4.894  10.320
92074SOL     OW78118  12.665   3.037   8.363
92074SOL    HW178119  12.648   2.944   8.347
92074SOL    HW278120  12.671   3.076   8.275
92075SOL     OW78121  11.956   4.978   4.313
92075SOL    HW178122  11.923   4.939   4.232
92075SOL    HW278123  12.019   5.044   4.284
92076SOL     OW78124  14.283  10.016   5.678
92076SOL    HW178125  14.226  10.080   5.722
92076SOL    HW278126  14.280  10.041   5.586
92077SOL     OW78127   6.677   0.492  13.249
92077SOL    HW178128   6.696   0.568  13.195
92077SOL    HW278129   6.590   0.509  13.285
92078SOL     OW78130   2.479   5.689  10.377
92078SOL    HW178131   2.551   5.751  10.361
92078SOL    HW278132   2.479   5.632  10.300
92079SOL     OW78133  12.866   4.933   6.916
92079SOL    HW178134  12.937   4.876   6.944
92079SOL    HW278135  12.832   4.970   6.997
92080SOL     OW78136  11.468   6.934   0.699
92080SOL    HW178137  11.516   6.864   0.656
92080SOL    HW278138  11.393   6.891   0.739
92081SOL     OW78139  13.312   3.384   9.585
92081SOL    HW178140  13.304   3.474   9.615
92081SOL    HW278141  13.380   3.387   9.518
92082SOL     OW78142   6.907  12.400   9.531
92082SOL    HW178143   6.883  12.310   9.510
92082SOL    HW278144   6.899  12.406   9.626
92083SOL     OW78145   0.322  14.306  13.425
92083SOL    HW178146   0.392  14.365  13.397
92083SOL    HW278147   0.340  14.224  13.379
92084SOL     OW78148   3.556   8.443  13.367
92084SOL    HW178149   3.460   8.447  13.366
92084SOL    HW278150   3.582   8.457  13.277
92085SOL     OW78151  10.860   9.554  13.351
92085SOL    HW178152  10.919   9.478  13.353
92085SOL    HW278153  10.912   9.626  13.386
92086SOL     OW78154   7.197   4.666   5.125
92086SOL    HW178155   7.155   4.751   5.115
92086SOL    HW278156   7.288   4.686   5.147
92087SOL     OW78157   9.105   8.960   4.911
92087SOL    HW178158   9.172   9.011   4.957
92087SOL    HW278159   9.039   8.941   4.978
92088SOL     OW78160   4.437   8.268  13.151
92088SOL    HW178161   4.364   8.213  13.122
92088SOL    HW278162   4.457   8.237  13.239
92089SOL     OW78163   2.229   3.732   4.960
92089SOL    HW178164   2.278   3.790   4.902
92089SOL    HW278165   2.163   3.789   4.999
92090SOL     OW78166  12.398   8.093   9.502
92090SOL    HW178167  12.362   8.132   9.582
92090SOL    HW278168  12.490   8.074   9.523
92091SOL     OW78169   8.167   0.899  12.213
92091SOL    HW178170   8.151   0.876  12.122
92091SOL    HW278171   8.262   0.912  12.219
92092SOL     OW78172   5.629   3.548  12.510
92092SOL    HW178173   5.621   3.516  12.420
92092SOL    HW278174   5.661   3.638  12.501
92093SOL     OW78175   1.989   5.945  10.102
92093SOL    HW178176   1.967   5.906  10.018
92093SOL    HW278177   1.909   5.938  10.154
92094SOL     OW78178  13.852  10.934   4.895
92094SOL    HW178179  13.923  10.916   4.834
92094SOL    HW278180  13.803  10.852   4.900
92095SOL     OW78181  10.191  14.396   8.132
92095SOL    HW178182  10.128  14.343   8.084
92095SOL    HW278183  10.147  14.480   8.144
92096SOL     OW78184  14.199  14.123  11.480
92096SOL    HW178185  14.196  14.067  11.557
92096SOL    HW278186  14.114  14.109  11.437
92097SOL     OW78187  13.423  14.774  10.616
92097SOL    HW178188  13.336  14.800  10.586
92097SOL    HW278189  13.476  14.853  10.610
92098SOL     OW78190  13.818   3.799   1.182
92098SOL    HW178191  13.801   3.837   1.096
92098SOL    HW278192  13.755   3.727   1.190
92099SOL     OW78193  11.209   6.169   4.444
92099SOL    HW178194  11.113   6.169   4.446
92099SOL    HW278195  11.234   6.197   4.532
92100SOL     OW78196   3.581   3.603   5.280
92100SOL    HW178197   3.662   3.607   5.229
92100SOL    HW278198   3.609   3.580   5.369
92101SOL     OW78199  13.946   1.296   1.832
92101SOL    HW178200  13.980   1.250   1.909
92101SOL    HW278201  13.899   1.228   1.783
92102SOL     OW78202   2.444  13.143   6.778
92102SOL    HW178203   2.355  13.119   6.749
92102SOL    HW278204   2.502  13.102   6.714
92103SOL     OW78205   4.599   9.668  11.770
92103SOL    HW178206   4.591   9.728  11.696
92103SOL    HW278207   4.522   9.611  11.763
92104SOL     OW78208   1.107   4.190  14.158
92104SOL    HW178209   1.136   4.263  14.103
92104SOL    HW278210   1.012   4.192  14.152
92105SOL     OW78211   0.254   3.413   1.271
92105SOL    HW178212   0.241   3.355   1.346
92105SOL    HW278213   0.191   3.383   1.205
92106SOL     OW78214  12.864  10.136   5.650
92106SOL    HW178215  12.779  10.093   5.657
92106SOL    HW278216  12.857  10.190   5.571
92107SOL     OW78217  13.959  14.134   2.153
92107SOL    HW178218  13.976  14.070   2.084
92107SOL    HW278219  13.963  14.218   2.109
92108SOL     OW78220   8.637  14.670  11.515
92108SOL    HW178221   8.686  14.654  11.596
92108SOL    HW278222   8.549  14.694  11.545
92109SOL     OW78223   5.437   4.842  14.306
92109SOL    HW178224   5.485   4.917  14.339
92109SOL    HW278225   5.475   4.767  14.352
92110SOL     OW78226   5.136   6.871   6.909
92110SOL    HW178227   5.168   6.933   6.844
92110SOL    HW278228   5.214   6.845   6.958
92111SOL     OW78229   2.936   7.658  11.087
92111SOL    HW178230   2.841   7.660  11.098
92111SOL    HW278231   2.950   7.635  10.995
92112SOL     OW78232   4.534   1.425   9.590
92112SOL    HW178233   4.491   1.496   9.637
92112SOL    HW278234   4.523   1.348   9.647
92113SOL     OW78235   2.866   9.476  13.055
92113SOL    HW178236   2.792   9.415  13.054
92113SOL    HW278237   2.852   9.530  12.977
92114SOL     OW78238   8.923  12.176   6.109
92114SOL    HW178239   9.015  12.167   6.084
92114SOL    HW278240   8.894  12.255   6.064
92115SOL     OW78241   5.486  14.486   0.235
92115SOL    HW178242   5.490  14.393   0.214
92115SOL    HW278243   5.393  14.503   0.253
92116SOL     OW78244   0.292   0.149  13.854
92116SOL    HW178245   0.198   0.167  13.862
92116SOL    HW278246   0.323   0.147  13.945
92117SOL     OW78247   7.962   7.998   0.982
92117SOL    HW178248   8.007   8.082   0.991
92117SOL    HW278249   7.902   7.996   1.057
92118SOL     OW78250   3.493   2.413   8.163
92118SOL    HW178251   3.400   2.388   8.167
92118SOL    HW278252   3.530   2.353   8.097
92119SOL     OW78253  10.112   8.753  12.379
92119SOL    HW178254  10.183   8.810  12.409
92119SOL    HW278255  10.105   8.771  12.285
92120SOL     OW78256   6.088   9.205  12.334
92120SOL    HW178257   6.153   9.251  12.386
92120SOL    HW278258   6.007   9.214  12.383
92121SOL     OW78259   2.517   2.058   2.075
92121SOL    HW178260   2.427   2.090   2.071
92121SOL    HW278261   2.564   2.125   2.124
92122SOL     OW78262   5.657   3.539   9.074
92122SOL    HW178263   5.600   3.615   9.079
92122SOL    HW278264   5.745   3.573   9.091
92123SOL     OW78265  13.585   6.001   8.707
92123SOL    HW178266  13.531   6.036   8.777
92123SOL    HW278267  13.675   6.015   8.738
92124SOL     OW78268   3.938  10.008  11.927
92124SOL    HW178269   3.895   9.973  11.848
92124SOL    HW278270   4.005   9.944  11.948
92125SOL     OW78271   0.220   1.758   1.094
92125SOL    HW178272   0.159   1.826   1.121
92125SOL    HW278273   0.167   1.679   1.086
92126SOL     OW78274  13.449   7.467  10.880
92126SOL    HW178275  13.447   7.431  10.969
92126SOL    HW278276  13.411   7.398  10.826
92127SOL     OW78277   8.920   6.999  14.047
92127SOL    HW178278   8.918   6.967  14.137
92127SOL    HW278279   8.997   7.055  14.043
92128SOL     OW78280  10.417   3.633   4.250
92128SOL    HW178281  10.344   3.691   4.227
92128SOL    HW278282  10.454   3.672   4.329
92129SOL     OW78283   4.627   4.921  10.770
92129SOL    HW178284   4.686   4.965  10.709
92129SOL    HW278285   4.570   4.868  10.713
92130SOL     OW78286   8.313   3.676   5.763
92130SOL    HW178287   8.219   3.697   5.762
92130SOL    HW278288   8.321   3.598   5.708
92131SOL     OW78289   5.822  10.320   3.641
92131SOL    HW178290   5.730  10.293   3.652
92131SOL    HW278291   5.872  10.240   3.655
92132SOL     OW78292  14.471   0.466   6.211
92132SOL    HW178293  14.401   0.431   6.265
92132SOL    HW278294  14.430   0.483   6.126
92133SOL     OW78295   3.068   4.364  12.519
92133SOL    HW178296   3.001   4.362  12.450
92133SOL    HW278297   3.019   4.358  12.600
92134SOL     OW78298   2.543  10.468  13.954
92134SOL    HW178299   2.449  10.472  13.970
92134SOL    HW278300   2.562  10.374  13.948
92135SOL     OW78301  12.109  14.527   7.711
92135SOL    HW178302  12.151  14.605   7.748
92135SOL    HW278303  12.181  14.466   7.694
92136SOL     OW78304   4.338   7.750   6.227
92136SOL    HW178305   4.350   7.829   6.281
92136SOL    HW278306   4.388   7.768   6.147
92137SOL     OW78307   8.175   8.334   2.293
92137SOL    HW178308   8.268   8.314   2.306
92137SOL    HW278309   8.131   8.285   2.363
92138SOL     OW78310   6.021   6.032  10.214
92138SOL    HW178311   6.013   6.127  10.222
92138SOL    HW278312   5.980   6.012  10.130
92139SOL     OW78313  10.117   4.998  13.799
92139SOL    HW178314  10.153   4.971  13.715
92139SOL    HW278315  10.078   4.918  13.836
92140SOL     OW78316   1.609   5.172   4.882
92140SOL    HW178317   1.537   5.217   4.927
92140SOL    HW278318   1.578   5.081   4.874
92141SOL     OW78319   9.536  12.222  10.296
92141SOL    HW178320   9.465  12.230  10.360
92141SOL    HW278321   9.611  12.263  10.338
92142SOL     OW78322   8.484   3.276   1.236
92142SOL    HW178323   8.523   3.262   1.322
92142SOL    HW278324   8.392   3.253   1.247
92143SOL     OW78325   2.968  14.404   4.108
92143SOL    HW178326   2.988  14.334   4.045
92143SOL    HW278327   3.042  14.402   4.169
92144SOL     OW78328   8.059   9.530  12.766
92144SOL    HW178329   8.012   9.448  12.781
92144SOL    HW278330   7.999   9.598  12.796
92145SOL     OW78331   4.101  12.448   1.631
92145SOL    HW178332   4.104  12.393   1.553
92145SOL    HW278333   4.060  12.392   1.698
92146SOL     OW78334  14.415   2.302  10.488
92146SOL    HW178335  14.320   2.305  10.502
92146SOL    HW278336  14.427   2.233  10.423
92147SOL     OW78337   2.044   4.596   1.808
92147SOL    HW178338   2.084   4.683   1.804
92147SOL    HW278339   2.008   4.591   1.896
92148SOL     OW78340   0.834  14.833   6.881
92148SOL    HW178341   0.773  14.838   6.955
92148SOL    HW278342   0.810  14.753   6.835
92149SOL     OW78343   1.760  12.135  14.406
92149SOL    HW178344   1.792  12.048  14.428
92149SOL    HW278345   1.760  12.183  14.489
92150SOL     OW78346  13.992   6.228   3.019
92150SOL    HW178347  14.010   6.135   3.005
92150SOL    HW278348  14.063   6.258   3.075
92151SOL     OW78349   5.842   2.269   8.721
92151SOL    HW178350   5.822   2.343   8.779
92151SOL    HW278351   5.768   2.266   8.660
92152SOL     OW78352   6.456   1.471   8.069
92152SOL    HW178353   6.509   1.550   8.062
92152SOL    HW278354   6.442   1.460   8.163
92153SOL     OW78355   8.618  13.566   0.603
92153SOL    HW178356   8.651  13.639   0.657
92153SOL    HW278357   8.665  13.575   0.520
92154SOL     OW78358   5.266  14.752   7.505
92154SOL    HW178359   5.308  14.743   7.591
92154SOL    HW278360   5.334  14.723   7.443
92155SOL     OW78361   9.201   6.262   9.100
92155SOL    HW178362   9.245   6.187   9.059
92155SOL    HW278363   9.257   6.337   9.080
92156SOL     OW78364   8.099   8.525   8.083
92156SOL    HW178365   8.041   8.601   8.082
92156SOL    HW278366   8.040   8.451   8.099
92157SOL     OW78367   2.624   3.340   3.856
92157SOL    HW178368   2.692   3.408   3.861
92157SOL    HW278369   2.670   3.258   3.876
92158SOL     OW78370   9.246  11.725  10.911
92158SOL    HW178371   9.235  11.658  10.844
92158SOL    HW278372   9.283  11.678  10.986
92159SOL     OW78373   6.328   3.471  11.682
92159SOL    HW178374   6.262   3.402  11.669
92159SOL    HW278375   6.357   3.492  11.593
92160SOL     OW78376   8.781   6.773   9.072
92160SOL    HW178377   8.770   6.743   8.982
92160SOL    HW278378   8.716   6.843   9.082
92161SOL     OW78379   4.178  14.075   2.470
92161SOL    HW178380   4.106  14.114   2.421
92161SOL    HW278381   4.246  14.060   2.404
92162SOL     OW78382  10.042  10.327  13.638
92162SOL    HW178383  10.100  10.368  13.703
92162SOL    HW278384  10.048  10.383  13.561
92163SOL     OW78385   3.075   5.723   5.663
92163SOL    HW178386   3.078   5.805   5.713
92163SOL    HW278387   3.074   5.654   5.730
92164SOL     OW78388  14.700   1.960   0.961
92164SOL    HW178389  14.666   2.036   0.914
92164SOL    HW278390  14.638   1.947   1.033
92165SOL     OW78391   9.136   0.307   4.025
92165SOL    HW178392   9.102   0.367   4.091
92165SOL    HW278393   9.095   0.223   4.044
92166SOL     OW78394  10.633  14.668   2.783
92166SOL    HW178395  10.584  14.587   2.774
92166SOL    HW278396  10.702  14.663   2.717
92167SOL     OW78397  11.551   0.274   0.436
92167SOL    HW178398  11.582   0.200   0.385
92167SOL    HW278399  11.456   0.275   0.423
92168SOL     OW78400  12.641  13.037   5.714
92168SOL    HW178401  12.690  13.064   5.636
92168SOL    HW278402  12.569  12.985   5.679
92169SOL     OW78403   4.376   9.998   6.046
92169SOL    HW178404   4.384   9.967   6.136
92169SOL    HW278405   4.326   9.930   6.001
92170SOL     OW78406  14.639   6.095  11.571
92170SOL    HW178407  14.693   6.024  11.606
92170SOL    HW278408  14.549   6.064  11.581
92171SOL     OW78409  12.901   5.656   4.312
92171SOL    HW178410  12.871   5.566   4.298
92171SOL    HW278411  12.926   5.658   4.404
92172SOL     OW78412   0.925  13.954   4.670
92172SOL    HW178413   0.986  13.996   4.731
92172SOL    HW278414   0.978  13.890   4.623
92173SOL     OW78415   9.586   3.522   5.245
92173SOL    HW178416   9.619   3.555   5.161
92173SOL    HW278417   9.505   3.477   5.222
92174SOL     OW78418   9.483  14.853  13.127
92174SOL    HW178419   9.530   0.045  13.104
92174SOL    HW278420   9.551  14.787  13.139
92175SOL     OW78421  11.489   5.085   5.656
92175SOL    HW178422  11.469   5.114   5.568
92175SOL    HW278423  11.404   5.077   5.700
92176SOL     OW78424   9.903   4.435  13.406
92176SOL    HW178425   9.901   4.363  13.343
92176SOL    HW278426   9.941   4.397  13.485
92177SOL     OW78427   5.371   9.088   5.134
92177SOL    HW178428   5.304   9.034   5.176
92177SOL    HW278429   5.425   9.024   5.087
92178SOL     OW78430   9.485  13.784  14.278
92178SOL    HW178431   9.568  13.833  14.273
92178SOL    HW278432   9.482  13.734  14.196
92179SOL     OW78433  12.148  13.664   3.132
92179SOL    HW178434  12.171  13.714   3.211
92179SOL    HW278435  12.064  13.701   3.104
92180SOL     OW78436   3.785   6.114  13.840
92180SOL    HW178437   3.870   6.141  13.806
92180SOL    HW278438   3.730   6.105  13.762
92181SOL     OW78439  13.150   5.172   6.703
92181SOL    HW178440  13.146   5.223   6.623
92181SOL    HW278441  13.208   5.098   6.682
92182SOL     OW78442   0.882   1.051  11.049
92182SOL    HW178443   0.903   0.987  10.980
92182SOL    HW278444   0.964   1.096  11.066
92183SOL     OW78445  10.219   1.401   7.698
92183SOL    HW178446  10.262   1.410   7.784
92183SOL    HW278447  10.127   1.418   7.715
92184SOL     OW78448  12.621   9.540   2.961
92184SOL    HW178449  12.559   9.467   2.953
92184SOL    HW278450  12.607   9.592   2.882
92185SOL     OW78451  10.162   9.425  13.554
92185SOL    HW178452  10.168   9.459  13.464
92185SOL    HW278453  10.070   9.440  13.578
92186SOL     OW78454   7.203   1.214   8.817
92186SOL    HW178455   7.286   1.226   8.861
92186SOL    HW278456   7.137   1.236   8.882
92187SOL     OW78457   5.036   3.270   9.037
92187SOL    HW178458   4.986   3.214   8.977
92187SOL    HW278459   4.979   3.279   9.114
92188SOL     OW78460   3.521  14.036  12.985
92188SOL    HW178461   3.555  14.023  13.073
92188SOL    HW278462   3.481  13.952  12.962
92189SOL     OW78463   9.423   7.264   2.726
92189SOL    HW178464   9.436   7.337   2.787
92189SOL    HW278465   9.391   7.192   2.781
92190SOL     OW78466   4.159   4.980  13.439
92190SOL    HW178467   4.065   4.978  13.419
92190SOL    HW278468   4.194   5.048  13.382
92191SOL     OW78469   5.519   0.804   9.006
92191SOL    HW178470   5.606   0.839   8.984
92191SOL    HW278471   5.536   0.715   9.035
92192SOL     OW78472  13.415  13.808  12.060
92192SOL    HW178473  13.429  13.766  11.976
92192SOL    HW278474  13.361  13.747  12.110
92193SOL     OW78475   1.463  14.084  11.117
92193SOL    HW178476   1.394  14.059  11.055
92193SOL    HW278477   1.543  14.087  11.064
92194SOL     OW78478  13.643   8.769  11.571
92194SOL    HW178479  13.628   8.846  11.626
92194SOL    HW278480  13.716   8.724  11.613
92195SOL     OW78481   7.782  11.670   5.728
92195SOL    HW178482   7.800  11.667   5.634
92195SOL    HW278483   7.690  11.645   5.735
92196SOL     OW78484   9.934   0.570   1.711
92196SOL    HW178485   9.940   0.592   1.618
92196SOL    HW278486  10.007   0.616   1.752
92197SOL     OW78487   7.350   1.663  10.583
92197SOL    HW178488   7.406   1.636  10.656
92197SOL    HW278489   7.386   1.617  10.507
92198SOL     OW78490   1.698   3.554   3.815
92198SOL    HW178491   1.610   3.536   3.850
92198SOL    HW278492   1.730   3.627   3.868
92199SOL     OW78493   3.094   1.293  12.787
92199SOL    HW178494   3.101   1.236  12.710
92199SOL    HW278495   3.175   1.278  12.835
92200SOL     OW78496   5.109  12.298   9.551
92200SOL    HW178497   5.092  12.241   9.476
92200SOL    HW278498   5.135  12.238   9.622
92201SOL     OW78499  11.686   2.832   7.071
92201SOL    HW178500  11.674   2.892   6.997
92201SOL    HW278501  11.713   2.750   7.031
92202SOL     OW78502   5.609   6.919   1.039
92202SOL    HW178503   5.549   6.871   0.982
92202SOL    HW278504   5.646   6.852   1.096
92203SOL     OW78505   6.038   8.294   9.069
92203SOL    HW178506   5.998   8.332   9.147
92203SOL    HW278507   6.054   8.368   9.011
92204SOL     OW78508  13.634  10.688   7.233
92204SOL    HW178509  13.679  10.773   7.227
92204SOL    HW278510  13.662  10.652   7.317
92205SOL     OW78511   6.364  10.369   3.950
92205SOL    HW178512   6.413  10.309   3.895
92205SOL    HW278513   6.273  10.345   3.937
92206SOL     OW78514   5.909   9.030  12.811
92206SOL    HW178515   5.904   8.989  12.897
92206SOL    HW278516   5.892   8.958  12.749
92207SOL     OW78517   7.624  12.811  12.772
92207SOL    HW178518   7.585  12.866  12.704
92207SOL    HW278519   7.637  12.869  12.846
92208SOL     OW78520   9.411  10.303  13.296
92208SOL    HW178521   9.475  10.328  13.363
92208SOL    HW278522   9.327  10.334  13.330
92209SOL     OW78523  13.870   3.906   0.181
92209SOL    HW178524  13.953   3.935   0.219
92209SOL    HW278525  13.893   3.834   0.123
92210SOL     OW78526   4.166   9.122   1.982
92210SOL    HW178527   4.177   9.207   2.025
92210SOL    HW278528   4.072   9.105   1.987
92211SOL     OW78529  12.616   6.154  10.831
92211SOL    HW178530  12.524   6.156  10.858
92211SOL    HW278531  12.665   6.173  10.911
92212SOL     OW78532  12.771   9.544   0.041
92212SOL    HW178533  12.837   9.578   0.101
92212SOL    HW278534  12.726   9.476   0.090
92213SOL     OW78535   9.903  10.942  10.706
92213SOL    HW178536   9.942  11.005  10.768
92213SOL    HW278537   9.939  10.968  10.621
92214SOL     OW78538   8.317   4.216  13.858
92214SOL    HW178539   8.325   4.238  13.951
92214SOL    HW278540   8.367   4.285  13.813
92215SOL     OW78541   2.840  10.494  10.842
92215SOL    HW178542   2.856  10.469  10.933
92215SOL    HW278543   2.753  10.459  10.823
92216SOL     OW78544   7.033   8.485  10.970
92216SOL    HW178545   6.938   8.486  10.978
92216SOL    HW278546   7.064   8.439  11.049
92217SOL     OW78547   6.944  11.170  12.946
92217SOL    HW178548   6.923  11.149  12.855
92217SOL    HW278549   7.012  11.107  12.970
92218SOL     OW78550  13.180   0.489   8.064
92218SOL    HW178551  13.236   0.557   8.100
92218SOL    HW278552  13.161   0.432   8.138
92219SOL     OW78553   3.711   8.317   7.287
92219SOL    HW178554   3.668   8.237   7.318
92219SOL    HW278555   3.767   8.344   7.359
92220SOL     OW78556   8.112   7.240   8.717
92220SOL    HW178557   8.027   7.274   8.746
92220SOL    HW278558   8.112   7.149   8.745
92221SOL     OW78559   1.924   0.721   0.366
92221SOL    HW178560   1.930   0.653   0.432
92221SOL    HW278561   2.014   0.735   0.337
92222SOL     OW78562   8.187  13.436   2.875
92222SOL    HW178563   8.166  13.370   2.941
92222SOL    HW278564   8.103  13.457   2.834
92223SOL     OW78565  10.263   0.447  11.053
92223SOL    HW178566  10.334   0.505  11.026
92223SOL    HW278567  10.205   0.503  11.106
92224SOL     OW78568   5.836   1.724   1.440
92224SOL    HW178569   5.750   1.739   1.481
92224SOL    HW278570   5.882   1.807   1.449
92225SOL     OW78571  14.322  11.013  13.007
92225SOL    HW178572  14.379  11.046  13.076
92225SOL    HW278573  14.242  10.985  13.052
92226SOL     OW78574   4.939  11.688   9.985
92226SOL    HW178575   5.005  11.636   9.939
92226SOL    HW278576   4.978  11.707  10.070
92227SOL     OW78577   8.869   2.104   5.959
92227SOL    HW178578   8.884   2.045   6.033
92227SOL    HW278579   8.892   2.191   5.991
92228SOL     OW78580  10.417   0.801  11.606
92228SOL    HW178581  10.335   0.850  11.612
92228SOL    HW278582  10.485   0.868  11.600
92229SOL     OW78583   7.373  12.959   8.989
92229SOL    HW178584   7.424  12.907   8.926
92229SOL    HW278585   7.309  12.897   9.025
92230SOL     OW78586   7.914  13.923   5.124
92230SOL    HW178587   7.975  13.976   5.175
92230SOL    HW278588   7.970  13.876   5.062
92231SOL     OW78589   5.408   6.956   4.875
92231SOL    HW178590   5.316   6.979   4.873
92231SOL    HW278591   5.454   7.039   4.863
92232SOL     OW78592   3.172   3.759   4.592
92232SOL    HW178593   3.183   3.844   4.549
92232SOL    HW278594   3.237   3.702   4.551
92233SOL     OW78595   3.728  11.619  11.792
92233SOL    HW178596   3.812  11.605  11.834
92233SOL    HW278597   3.731  11.710  11.762
92234SOL     OW78598  13.846   1.191   5.162
92234SOL    HW178599  13.757   1.227   5.166
92234SOL    HW278600  13.878   1.195   5.252
92235SOL     OW78601   3.072  13.527  14.822
92235SOL    HW178602   3.077  13.494   0.025
92235SOL    HW278603   3.154  13.574  14.809
92236SOL     OW78604  14.587   0.673   9.680
92236SOL    HW178605  14.537   0.754   9.669
92236SOL    HW278606  14.677   0.702   9.692
92237SOL     OW78607   1.557   3.351   8.223
92237SOL    HW178608   1.603   3.336   8.141
92237SOL    HW278609   1.585   3.439   8.251
92238SOL     OW78610   9.024   0.935   1.923
92238SOL    HW178611   8.998   0.844   1.909
92238SOL    HW278612   9.106   0.929   1.972
92239SOL     OW78613   1.622   2.133   5.321
92239SOL    HW178614   1.679   2.056   5.330
92239SOL    HW278615   1.682   2.204   5.299
92240SOL     OW78616   4.108  14.814  10.442
92240SOL    HW178617   4.184  14.804  10.499
92240SOL    HW278618   4.051  14.877  10.487
92241SOL     OW78619  10.130   9.198  13.320
92241SOL    HW178620  10.055   9.230  13.369
92241SOL    HW278621  10.101   9.194  13.230
92242SOL     OW78622   9.675   3.398   0.028
92242SOL    HW178623   9.631   3.439   0.102
92242SOL    HW278624   9.763   3.436   0.028
92243SOL     OW78625   9.002   2.976  10.219
92243SOL    HW178626   9.047   2.979  10.134
92243SOL    HW278627   9.009   2.884  10.246
92244SOL     OW78628   4.983  14.634   6.410
92244SOL    HW178629   4.894  14.635   6.445
92244SOL    HW278630   5.037  14.601   6.482
92245SOL     OW78631   7.440   5.458   6.522
92245SOL    HW178632   7.531   5.478   6.498
92245SOL    HW278633   7.397   5.543   6.526
92246SOL     OW78634  14.101   1.023  12.048
92246SOL    HW178635  14.096   1.080  11.972
92246SOL    HW278636  14.158   0.951  12.021
92247SOL     OW78637   5.559  13.152   1.205
92247SOL    HW178638   5.495  13.108   1.149
92247SOL    HW278639   5.573  13.236   1.163
92248SOL     OW78640   0.449   0.356   1.353
92248SOL    HW178641   0.360   0.326   1.335
92248SOL    HW278642   0.501   0.322   1.279
92249SOL     OW78643   3.767   3.921  14.344
92249SOL    HW178644   3.755   4.009  14.308
92249SOL    HW278645   3.832   3.932  14.413
92250SOL     OW78646   2.201   8.994  12.857
92250SOL    HW178647   2.267   8.934  12.892
92250SOL    HW278648   2.248   9.049  12.795
92251SOL     OW78649   9.228  12.960   8.174
92251SOL    HW178650   9.183  12.888   8.129
92251SOL    HW278651   9.180  13.039   8.149
92252SOL     OW78652   1.403   5.378  14.249
92252SOL    HW178653   1.438   5.448  14.195
92252SOL    HW278654   1.358   5.320  14.188
92253SOL     OW78655   8.693   2.474   4.189
92253SOL    HW178656   8.683   2.491   4.095
92253SOL    HW278657   8.606   2.491   4.225
92254SOL     OW78658  14.652   7.319   1.574
92254SOL    HW178659  14.597   7.394   1.554
92254SOL    HW278660  14.683   7.335   1.663
92255SOL     OW78661  11.421  14.227   7.474
92255SOL    HW178662  11.430  14.319   7.447
92255SOL    HW278663  11.442  14.177   7.396
92256SOL     OW78664   1.305  12.105   6.454
92256SOL    HW178665   1.356  12.116   6.534
92256SOL    HW278666   1.344  12.029   6.411
92257SOL     OW78667   0.261  13.261   0.149
92257SOL    HW178668   0.310  13.260   0.067
92257SOL    HW278669   0.183  13.313   0.130
92258SOL     OW78670   0.409  14.062   2.271
92258SOL    HW178671   0.420  14.014   2.353
92258SOL    HW278672   0.388  13.994   2.207
92259SOL     OW78673  13.358   0.520  10.923
92259SOL    HW178674  13.367   0.486  11.012
92259SOL    HW278675  13.342   0.613  10.934
92260SOL     OW78676   5.054   8.097   6.789
92260SOL    HW178677   5.018   8.008   6.789
92260SOL    HW278678   5.105   8.102   6.709
92261SOL     OW78679   4.127   9.842  11.990
92261SOL    HW178680   4.168   9.755  11.984
92261SOL    HW278681   4.131   9.863  12.083
92262SOL     OW78682  10.020   0.985   8.820
92262SOL    HW178683   9.925   0.974   8.819
92262SOL    HW278684  10.048   0.958   8.732
92263SOL     OW78685   1.965  14.765  10.985
92263SOL    HW178686   1.954  14.780  10.891
92263SOL    HW278687   2.022  14.688  10.990
92264SOL     OW78688   5.638   1.520   7.528
92264SOL    HW178689   5.653   1.604   7.569
92264SOL    HW278690   5.550   1.494   7.556
92265SOL     OW78691  11.864  13.096   2.971
92265SOL    HW178692  11.895  13.070   3.058
92265SOL    HW278693  11.903  13.183   2.957
92266SOL     OW78694  13.223   0.431   4.023
92266SOL    HW178695  13.302   0.412   3.973
92266SOL    HW278696  13.194   0.346   4.057
92267SOL     OW78697  11.543   2.261   1.197
92267SOL    HW178698  11.546   2.350   1.165
92267SOL    HW278699  11.492   2.266   1.279
92268SOL     OW78700   8.683   6.011  11.780
92268SOL    HW178701   8.693   6.106  11.770
92268SOL    HW278702   8.742   5.989  11.852
92269SOL     OW78703   6.336  13.393   7.076
92269SOL    HW178704   6.240  13.386   7.071
92269SOL    HW278705   6.356  13.477   7.035
92270SOL     OW78706   9.701   0.512   7.871
92270SOL    HW178707   9.620   0.516   7.921
92270SOL    HW278708   9.762   0.568   7.920
92271SOL     OW78709   9.467   9.172   7.256
92271SOL    HW178710   9.500   9.151   7.169
92271SOL    HW278711   9.484   9.094   7.308
92272SOL     OW78712   8.173   1.914   9.051
92272SOL    HW178713   8.186   1.969   8.974
92272SOL    HW278714   8.169   1.825   9.017
92273SOL     OW78715   4.169   9.789  10.593
92273SOL    HW178716   4.159   9.882  10.574
92273SOL    HW278717   4.144   9.780  10.685
92274SOL     OW78718   3.303  13.400  12.964
92274SOL    HW178719   3.261  13.334  12.909
92274SOL    HW278720   3.243  13.411  13.038
92275SOL     OW78721   4.302   7.161  12.489
92275SOL    HW178722   4.388   7.196  12.467
92275SOL    HW278723   4.244   7.237  12.488
92276SOL     OW78724   9.075   8.503  11.001
92276SOL    HW178725   9.103   8.594  11.011
92276SOL    HW278726   9.079   8.466  11.089
92277SOL     OW78727   7.845   7.857  13.806
92277SOL    HW178728   7.839   7.764  13.826
92277SOL    HW278729   7.870   7.860  13.714
92278SOL     OW78730   7.144   6.977   4.780
92278SOL    HW178731   7.170   6.887   4.760
92278SOL    HW278732   7.150   7.023   4.696
92279SOL     OW78733  11.130  11.892  14.641
92279SOL    HW178734  11.051  11.839  14.648
92279SOL    HW278735  11.150  11.918  14.731
92280SOL     OW78736   5.145  13.619   0.097
92280SOL    HW178737   5.201  13.624   0.020
92280SOL    HW278738   5.065  13.577   0.066
92281SOL     OW78739  11.227   1.545  12.335
92281SOL    HW178740  11.255   1.455  12.316
92281SOL    HW278741  11.303   1.599  12.313
92282SOL     OW78742  13.634   3.770  10.219
92282SOL    HW178743  13.673   3.845  10.263
92282SOL    HW278744  13.662   3.694  10.271
92283SOL     OW78745   4.876   9.402  13.253
92283SOL    HW178746   4.859   9.480  13.305
92283SOL    HW278747   4.892   9.333  13.317
92284SOL     OW78748   6.133   2.593   1.862
92284SOL    HW178749   6.210   2.542   1.883
92284SOL    HW278750   6.079   2.590   1.942
92285SOL     OW78751   7.036   3.811   3.489
92285SOL    HW178752   7.013   3.842   3.401
92285SOL    HW278753   7.079   3.886   3.530
92286SOL     OW78754   8.916  10.666   5.580
92286SOL    HW178755   8.987  10.681   5.517
92286SOL    HW278756   8.861  10.598   5.539
92287SOL     OW78757   6.196   2.218  11.410
92287SOL    HW178758   6.154   2.134  11.391
92287SOL    HW278759   6.127   2.283  11.398
92288SOL     OW78760   3.247  10.586   9.279
92288SOL    HW178761   3.224  10.668   9.233
92288SOL    HW278762   3.285  10.615   9.362
92289SOL     OW78763   5.061   8.118   5.023
92289SOL    HW178764   5.016   8.085   5.100
92289SOL    HW278765   5.025   8.205   5.008
92290SOL     OW78766   4.846   0.850  14.433
92290SOL    HW178767   4.928   0.801  14.427
92290SOL    HW278768   4.843   0.879  14.524
92291SOL     OW78769  14.790   2.151  11.272
92291SOL    HW178770  14.754   2.095  11.341
92291SOL    HW278771  14.745   2.123  11.192
92292SOL     OW78772  13.706  13.625   7.718
92292SOL    HW178773  13.651  13.606   7.643
92292SOL    HW278774  13.793  13.642   7.682
92293SOL     OW78775   6.984   7.050   6.531
92293SOL    HW178776   7.070   7.090   6.546
92293SOL    HW278777   6.979   7.041   6.436
92294SOL     OW78778  13.943   0.639  14.544
92294SOL    HW178779  14.000   0.562  14.545
92294SOL    HW278780  13.861   0.609  14.583
92295SOL     OW78781   1.030   1.991   5.090
92295SOL    HW178782   1.106   1.933   5.085
92295SOL    HW278783   1.058   2.063   5.147
92296SOL     OW78784  10.307   8.082  10.951
92296SOL    HW178785  10.339   8.001  10.912
92296SOL    HW278786  10.347   8.151  10.898
92297SOL     OW78787   0.273   3.279   8.807
92297SOL    HW178788   0.225   3.222   8.866
92297SOL    HW278789   0.294   3.224   8.731
92298SOL     OW78790   1.242  10.393  13.818
92298SOL    HW178791   1.292  10.442  13.884
92298SOL    HW278792   1.253  10.301  13.843
92299SOL     OW78793   3.445   0.830   4.480
92299SOL    HW178794   3.420   0.893   4.548
92299SOL    HW278795   3.484   0.757   4.528
92300SOL     OW78796  10.412   6.648   1.832
92300SOL    HW178797  10.400   6.742   1.829
92300SOL    HW278798  10.323   6.612   1.844
92301SOL     OW78799   5.247   4.655   3.539
92301SOL    HW178800   5.211   4.706   3.612
92301SOL    HW278801   5.211   4.697   3.461
92302SOL     OW78802   6.660   8.209   7.335
92302SOL    HW178803   6.732   8.153   7.365
92302SOL    HW278804   6.583   8.174   7.379
92303SOL     OW78805   8.331  12.593   1.772
92303SOL    HW178806   8.333  12.503   1.804
92303SOL    HW278807   8.410  12.633   1.808
92304SOL     OW78808   2.321   7.798   7.676
92304SOL    HW178809   2.359   7.712   7.660
92304SOL    HW278810   2.397   7.856   7.682
92305SOL     OW78811  11.054   7.618   0.837
92305SOL    HW178812  11.078   7.687   0.774
92305SOL    HW278813  11.021   7.546   0.783
92306SOL     OW78814   3.776  12.612  11.406
92306SOL    HW178815   3.692  12.656  11.417
92306SOL    HW278816   3.841  12.679  11.428
92307SOL     OW78817   3.390   5.281   0.342
92307SOL    HW178818   3.423   5.370   0.345
92307SOL    HW278819   3.311   5.282   0.395
92308SOL     OW78820   0.435   4.670   0.120
92308SOL    HW178821   0.396   4.638   0.201
92308SOL    HW278822   0.413   4.604   0.055
92309SOL     OW78823   2.191   7.476   3.501
92309SOL    HW178824   2.271   7.445   3.543
92309SOL    HW278825   2.143   7.523   3.569
92310SOL     OW78826   1.448   4.379   9.784
92310SOL    HW178827   1.436   4.303   9.727
92310SOL    HW278828   1.543   4.388   9.793
92311SOL     OW78829  11.456  13.124   4.747
92311SOL    HW178830  11.407  13.140   4.667
92311SOL    HW278831  11.412  13.050   4.789
92312SOL     OW78832   0.366   2.773   9.932
92312SOL    HW178833   0.441   2.770   9.873
92312SOL    HW278834   0.321   2.690   9.917
92313SOL     OW78835   8.125   7.758   4.855
92313SOL    HW178836   8.136   7.828   4.790
92313SOL    HW278837   8.038   7.774   4.892
92314SOL     OW78838   6.351  10.984   2.099
92314SOL    HW178839   6.339  11.043   2.024
92314SOL    HW278840   6.297  10.908   2.077
92315SOL     OW78841  12.633   7.888   2.060
92315SOL    HW178842  12.570   7.896   2.132
92315SOL    HW278843  12.594   7.822   2.003
92316SOL     OW78844   7.208  14.383  14.284
92316SOL    HW178845   7.284  14.392  14.227
92316SOL    HW278846   7.139  14.350  14.226
92317SOL     OW78847   1.978  13.514  10.545
92317SOL    HW178848   1.988  13.497  10.639
92317SOL    HW278849   2.068  13.516  10.511
92318SOL     OW78850  10.618   7.516   0.924
92318SOL    HW178851  10.639   7.427   0.953
92318SOL    HW278852  10.600   7.564   1.004
92319SOL     OW78853   6.274  11.837   5.113
92319SOL    HW178854   6.262  11.751   5.074
92319SOL    HW278855   6.363  11.836   5.147
92320SOL     OW78856   1.320  11.717   2.019
92320SOL    HW178857   1.254  11.751   2.080
92320SOL    HW278858   1.270  11.687   1.943
92321SOL     OW78859   4.154  14.440   7.572
92321SOL    HW178860   4.080  14.471   7.520
92321SOL    HW278861   4.124  14.359   7.612
92322SOL     OW78862   4.609   2.290  14.267
92322SOL    HW178863   4.635   2.381  14.283
92322SOL    HW278864   4.679   2.238  14.307
92323SOL     OW78865  10.875  12.651  10.330
92323SOL    HW178866  10.896  12.725  10.388
92323SOL    HW278867  10.928  12.579  10.364
92324SOL     OW78868  12.885   2.118   9.787
92324SOL    HW178869  12.813   2.181   9.789
92324SOL    HW278870  12.897   2.094   9.879
92325SOL     OW78871   7.112  14.774  14.423
92325SOL    HW178872   7.034  14.824  14.445
92325SOL    HW278873   7.166  14.778  14.501
92326SOL     OW78874   8.324   4.258  12.524
92326SOL    HW178875   8.285   4.221  12.603
92326SOL    HW278876   8.306   4.194  12.455
92327SOL     OW78877   5.061   8.704   0.196
92327SOL    HW178878   4.973   8.667   0.191
92327SOL    HW278879   5.114   8.634   0.235
92328SOL     OW78880   9.664  10.860  13.966
92328SOL    HW178881   9.610  10.812  13.903
92328SOL    HW278882   9.749  10.817  13.962
92329SOL     OW78883   0.189   8.760   7.606
92329SOL    HW178884   0.156   8.742   7.694
92329SOL    HW278885   0.204   8.854   7.604
92330SOL     OW78886   8.807   2.325   2.728
92330SOL    HW178887   8.866   2.290   2.795
92330SOL    HW278888   8.809   2.260   2.658
92331SOL     OW78889   8.507   0.359   4.856
92331SOL    HW178890   8.588   0.396   4.889
92331SOL    HW278891   8.493   0.402   4.772
92332SOL     OW78892   1.660   2.451  10.218
92332SOL    HW178893   1.583   2.507  10.230
92332SOL    HW278894   1.641   2.401  10.139
92333SOL     OW78895   3.590   6.149   2.132
92333SOL    HW178896   3.571   6.056   2.137
92333SOL    HW278897   3.685   6.155   2.139
92334SOL     OW78898   7.232  10.117  13.815
92334SOL    HW178899   7.299  10.068  13.862
92334SOL    HW278900   7.158  10.122  13.876
92335SOL     OW78901   2.771   2.318  10.841
92335SOL    HW178902   2.819   2.328  10.758
92335SOL    HW278903   2.679   2.315  10.815
92336SOL     OW78904   1.753   8.264  10.019
92336SOL    HW178905   1.767   8.286   9.926
92336SOL    HW278906   1.661   8.239  10.024
92337SOL     OW78907   3.795   8.148  10.211
92337SOL    HW178908   3.849   8.087  10.162
92337SOL    HW278909   3.834   8.151  10.298
92338SOL     OW78910  10.363   7.965  13.553
92338SOL    HW178911  10.447   7.999  13.585
92338SOL    HW278912  10.308   8.042  13.540
92339SOL     OW78913  14.241  14.510   2.487
92339SOL    HW178914  14.326  14.552   2.497
92339SOL    HW278915  14.256  14.439   2.425
92340SOL     OW78916   3.317  13.090   8.960
92340SOL    HW178917   3.364  13.055   8.884
92340SOL    HW278918   3.386  13.110   9.024
92341SOL     OW78919  12.231   6.006   4.249
92341SOL    HW178920  12.295   5.966   4.308
92341SOL    HW278921  12.260   5.983   4.161
92342SOL     OW78922  12.901  12.427   3.079
92342SOL    HW178923  12.922  12.475   2.999
92342SOL    HW278924  12.986  12.403   3.116
92343SOL     OW78925  11.049   6.515  12.507
92343SOL    HW178926  11.071   6.596  12.461
92343SOL    HW278927  10.960   6.495  12.480
92344SOL     OW78928   2.293   1.945   3.971
92344SOL    HW178929   2.383   1.912   3.968
92344SOL    HW278930   2.240   1.868   3.993
92345SOL     OW78931   9.081   5.896  13.250
92345SOL    HW178932   9.020   5.837  13.206
92345SOL    HW278933   9.027   5.944  13.314
92346SOL     OW78934   3.368   5.327   9.275
92346SOL    HW178935   3.328   5.365   9.354
92346SOL    HW278936   3.453   5.370   9.268
92347SOL     OW78937   2.190   5.880  12.534
92347SOL    HW178938   2.229   5.853  12.451
92347SOL    HW278939   2.210   5.973  12.541
92348SOL     OW78940  12.932   3.949   0.519
92348SOL    HW178941  12.865   4.007   0.484
92348SOL    HW278942  13.010   3.965   0.466
92349SOL     OW78943  11.012   4.045   4.331
92349SOL    HW178944  11.022   3.960   4.374
92349SOL    HW278945  11.018   4.026   4.238
92350SOL     OW78946  14.317  14.373   7.741
92350SOL    HW178947  14.260  14.349   7.815
92350SOL    HW278948  14.258  14.377   7.666
92351SOL     OW78949  11.785   6.598   2.880
92351SOL    HW178950  11.865   6.620   2.831
92351SOL    HW278951  11.813   6.530   2.941
92352SOL     OW78952   2.929   7.582   0.392
92352SOL    HW178953   2.839   7.550   0.393
92352SOL    HW278954   2.967   7.544   0.313
92353SOL     OW78955   4.299   0.968   8.934
92353SOL    HW178956   4.262   0.911   9.001
92353SOL    HW278957   4.341   0.909   8.872
92354SOL     OW78958   0.515   0.303   2.091
92354SOL    HW178959   0.523   0.349   2.175
92354SOL    HW278960   0.600   0.317   2.048
92355SOL     OW78961  11.450   9.278   9.900
92355SOL    HW178962  11.528   9.332   9.886
92355SOL    HW278963  11.378   9.331   9.864
92356SOL     OW78964   0.813   1.171  13.257
92356SOL    HW178965   0.725   1.206  13.242
92356SOL    HW278966   0.839   1.135  13.173
92357SOL     OW78967   7.953  11.879   6.851
92357SOL    HW178968   7.988  11.966   6.868
92357SOL    HW278969   8.018  11.819   6.886
92358SOL     OW78970   2.962   3.411   9.832
92358SOL    HW178971   3.021   3.479   9.864
92358SOL    HW278972   2.881   3.457   9.810
92359SOL     OW78973   2.854  10.461   7.006
92359SOL    HW178974   2.931  10.479   6.951
92359SOL    HW278975   2.874  10.377   7.049
92360SOL     OW78976  12.512   9.490   1.608
92360SOL    HW178977  12.595   9.470   1.565
92360SOL    HW278978  12.529   9.571   1.655
92361SOL     OW78979  11.634   4.784   8.986
92361SOL    HW178980  11.646   4.875   9.012
92361SOL    HW278981  11.650   4.784   8.891
92362SOL     OW78982   6.854   7.097   3.497
92362SOL    HW178983   6.862   7.043   3.418
92362SOL    HW278984   6.911   7.054   3.561
92363SOL     OW78985  12.079  13.219   8.422
92363SOL    HW178986  12.157  13.198   8.473
92363SOL    HW278987  12.010  13.232   8.487
92364SOL     OW78988  10.341  13.979   0.504
92364SOL    HW178989  10.407  13.912   0.493
92364SOL    HW278990  10.279  13.943   0.567
92365SOL     OW78991  10.983  10.288  13.709
92365SOL    HW178992  10.975  10.193  13.696
92365SOL    HW278993  10.901  10.314  13.750
92366SOL     OW78994   8.354  11.877   1.108
92366SOL    HW178995   8.331  11.965   1.138
92366SOL    HW278996   8.282  11.822   1.138
92367SOL     OW78997   1.003   8.065  12.445
92367SOL    HW178998   0.973   8.057  12.355
92367SOL    HW278999   1.005   7.976  12.479
92368SOL     OW79000   0.684  11.709   8.685
92368SOL    HW179001   0.739  11.709   8.764
92368SOL    HW279002   0.739  11.670   8.618
92369SOL     OW79003  10.006   0.404  12.623
92369SOL    HW179004  10.054   0.326  12.651
92369SOL    HW279005  10.069   0.451  12.568
92370SOL     OW79006   4.143   9.419   1.159
92370SOL    HW179007   4.111   9.502   1.124
92370SOL    HW279008   4.142   9.359   1.085
92371SOL     OW79009  10.765   3.236   0.464
92371SOL    HW179010  10.757   3.328   0.437
92371SOL    HW279011  10.771   3.188   0.381
92372SOL     OW79012   3.881   3.994  14.614
92372SOL    HW179013   3.942   4.066  14.594
92372SOL    HW279014   3.796   4.025  14.582
92373SOL     OW79015   8.664   4.074   8.867
92373SOL    HW179016   8.636   4.035   8.950
92373SOL    HW279017   8.599   4.142   8.850
92374SOL     OW79018  14.852   5.365   1.125
92374SOL    HW179019   0.004   5.315   1.054
92374SOL    HW279020   0.040   5.404   1.170
92375SOL     OW79021   5.602   6.929   1.558
92375SOL    HW179022   5.554   6.848   1.541
92375SOL    HW279023   5.693   6.907   1.540
92376SOL     OW79024   5.862  12.780  14.103
92376SOL    HW179025   5.827  12.811  14.186
92376SOL    HW279026   5.785  12.762  14.049
92377SOL     OW79027  12.614   8.384   6.742
92377SOL    HW179028  12.683   8.328   6.780
92377SOL    HW279029  12.565   8.417   6.817
92378SOL     OW79030   6.955  11.957  12.364
92378SOL    HW179031   7.045  11.936  12.337
92378SOL    HW279032   6.912  11.871  12.371
92379SOL     OW79033  11.180   8.216   7.585
92379SOL    HW179034  11.214   8.167   7.659
92379SOL    HW279035  11.143   8.150   7.527
92380SOL     OW79036  13.328   1.447   6.699
92380SOL    HW179037  13.346   1.360   6.664
92380SOL    HW279038  13.375   1.507   6.641
92381SOL     OW79039  11.009   7.776  11.440
92381SOL    HW179040  11.050   7.777  11.526
92381SOL    HW279041  11.000   7.683  11.419
92382SOL     OW79042   2.192   0.936   3.656
92382SOL    HW179043   2.228   0.848   3.660
92382SOL    HW279044   2.169   0.957   3.747
92383SOL     OW79045  12.935   1.206  11.488
92383SOL    HW179046  12.889   1.122  11.489
92383SOL    HW279047  12.977   1.211  11.402
92384SOL     OW79048   5.299   8.639   7.444
92384SOL    HW179049   5.238   8.579   7.485
92384SOL    HW279050   5.257   8.665   7.362
92385SOL     OW79051   7.106  10.852   4.103
92385SOL    HW179052   7.018  10.884   4.120
92385SOL    HW279053   7.125  10.879   4.013
92386SOL     OW79054   8.105  13.091   8.625
92386SOL    HW179055   8.157  13.027   8.577
92386SOL    HW279056   8.043  13.125   8.560
92387SOL     OW79057  12.028   9.832   3.383
92387SOL    HW179058  11.944   9.870   3.359
92387SOL    HW279059  12.021   9.740   3.360
92388SOL     OW79060  14.401  14.775  14.827
92388SOL    HW179061  14.369  14.835   0.007
92388SOL    HW279062  14.496  14.777  14.838
92389SOL     OW79063   5.458   5.401   3.040
92389SOL    HW179064   5.438   5.309   3.059
92389SOL    HW279065   5.541   5.417   3.086
92390SOL     OW79066  13.523  14.883  10.255
92390SOL    HW179067  13.562  14.885  10.343
92390SOL    HW279068  13.441  14.834  10.266
92391SOL     OW79069  13.293   3.383   7.600
92391SOL    HW179070  13.249   3.468   7.595
92391SOL    HW279071  13.294   3.363   7.694
92392SOL     OW79072   4.201   9.700  11.136
92392SOL    HW179073   4.207   9.780  11.188
92392SOL    HW279074   4.108   9.690  11.116
92393SOL     OW79075   5.683  13.345   6.085
92393SOL    HW179076   5.715  13.432   6.062
92393SOL    HW279077   5.662  13.351   6.179
92394SOL     OW79078  13.983   7.356   1.535
92394SOL    HW179079  14.034   7.279   1.509
92394SOL    HW279080  13.992   7.359   1.630
92395SOL     OW79081   8.688   3.589  13.783
92395SOL    HW179082   8.668   3.681  13.763
92395SOL    HW279083   8.716   3.590  13.874
92396SOL     OW79084  12.787  12.572  14.376
92396SOL    HW179085  12.711  12.563  14.434
92396SOL    HW279086  12.830  12.653  14.405
92397SOL     OW79087   5.062  13.635   5.250
92397SOL    HW179088   5.054  13.560   5.309
92397SOL    HW279089   5.042  13.600   5.163
92398SOL     OW79090   4.696   3.622  10.462
92398SOL    HW179091   4.716   3.535  10.494
92398SOL    HW279092   4.697   3.678  10.540
92399SOL     OW79093   1.064  13.518  14.717
92399SOL    HW179094   1.050  13.530  14.811
92399SOL    HW279095   0.988  13.468  14.687
92400SOL     OW79096   8.039  13.650   0.493
92400SOL    HW179097   7.944  13.657   0.480
92400SOL    HW279098   8.076  13.657   0.405
92401SOL     OW79099   2.703   5.649   9.392
92401SOL    HW179100   2.748   5.713   9.337
92401SOL    HW279101   2.713   5.684   9.481
92402SOL     OW79102   8.509   7.834   8.073
92402SOL    HW179103   8.416   7.818   8.057
92402SOL    HW279104   8.515   7.844   8.168
92403SOL     OW79105   5.086   5.163   2.761
92403SOL    HW179106   4.996   5.135   2.744
92403SOL    HW279107   5.140   5.089   2.732
92404SOL     OW79108   8.316  13.859   2.305
92404SOL    HW179109   8.403  13.891   2.328
92404SOL    HW279110   8.257  13.933   2.323
92405SOL     OW79111   6.956  12.150  12.989
92405SOL    HW179112   7.035  12.204  12.987
92405SOL    HW279113   6.884  12.213  12.978
92406SOL     OW79114   7.338   2.176   8.812
92406SOL    HW179115   7.267   2.113   8.823
92406SOL    HW279116   7.304   2.257   8.850
92407SOL     OW79117  13.630   3.725   2.179
92407SOL    HW179118  13.611   3.728   2.273
92407SOL    HW279119  13.725   3.736   2.173
92408SOL     OW79120  13.852   0.557   9.078
92408SOL    HW179121  13.797   0.603   9.014
92408SOL    HW279122  13.938   0.554   9.036
92409SOL     OW79123   6.731  11.955   8.555
92409SOL    HW179124   6.745  11.862   8.539
92409SOL    HW279125   6.789  11.999   8.493
92410SOL     OW79126  13.543   0.147   7.067
92410SOL    HW179127  13.533   0.175   7.158
92410SOL    HW279128  13.489   0.068   7.060
92411SOL     OW79129  12.093   5.932  10.465
92411SOL    HW179130  12.002   5.957  10.451
92411SOL    HW279131  12.095   5.892  10.552
92412SOL     OW79132  11.977  12.485   1.897
92412SOL    HW179133  11.999  12.576   1.877
92412SOL    HW279134  11.894  12.490   1.943
92413SOL     OW79135   6.436   4.032   4.789
92413SOL    HW179136   6.346   4.059   4.775
92413SOL    HW279137   6.451   3.963   4.725
92414SOL     OW79138   0.622   8.135  12.440
92414SOL    HW179139   0.532   8.107  12.423
92414SOL    HW279140   0.674   8.087  12.376
92415SOL     OW79141   4.953   3.903   9.871
92415SOL    HW179142   5.017   3.886   9.941
92415SOL    HW279143   4.905   3.822   9.862
92416SOL     OW79144   7.862   4.169   8.427
92416SOL    HW179145   7.887   4.091   8.376
92416SOL    HW279146   7.790   4.139   8.482
92417SOL     OW79147   0.380   8.324   1.128
92417SOL    HW179148   0.346   8.395   1.183
92417SOL    HW279149   0.474   8.338   1.125
92418SOL     OW79150  12.748  12.242   0.054
92418SOL    HW179151  12.799  12.176   0.102
92418SOL    HW279152  12.683  12.273   0.117
92419SOL     OW79153   8.939  12.839   2.063
92419SOL    HW179154   8.887  12.772   2.018
92419SOL    HW279155   8.879  12.876   2.127
92420SOL     OW79156   7.136   1.891   6.022
92420SOL    HW179157   7.182   1.897   6.105
92420SOL    HW279158   7.095   1.804   6.023
92421SOL     OW79159   9.974  13.506   5.850
92421SOL    HW179160  10.063  13.475   5.869
92421SOL    HW279161   9.959  13.576   5.914
92422SOL     OW79162   5.082   2.984   6.141
92422SOL    HW179163   5.002   3.017   6.182
92422SOL    HW279164   5.120   3.061   6.098
92423SOL     OW79165  11.892   2.345   0.875
92423SOL    HW179166  11.908   2.300   0.958
92423SOL    HW279167  11.877   2.275   0.812
92424SOL     OW79168   1.874  14.094   8.344
92424SOL    HW179169   1.841  14.018   8.295
92424SOL    HW279170   1.862  14.070   8.436
92425SOL     OW79171   7.008   4.120   1.757
92425SOL    HW179172   6.949   4.105   1.831
92425SOL    HW279173   7.083   4.167   1.795
92426SOL     OW79174   8.116   1.894   5.624
92426SOL    HW179175   8.071   1.844   5.555
92426SOL    HW279176   8.204   1.907   5.589
92427SOL     OW79177   2.646  13.340   0.348
92427SOL    HW179178   2.601  13.320   0.430
92427SOL    HW279179   2.677  13.256   0.316
92428SOL     OW79180  11.651  11.561  11.980
92428SOL    HW179181  11.710  11.571  11.906
92428SOL    HW279182  11.668  11.472  12.012
92429SOL     OW79183  11.658   0.179   5.082
92429SOL    HW179184  11.724   0.234   5.041
92429SOL    HW279185  11.706   0.126   5.146
92430SOL     OW79186  10.228   3.970   5.031
92430SOL    HW179187  10.272   4.031   5.090
92430SOL    HW279188  10.144   3.951   5.074
92431SOL     OW79189   0.101   7.603  12.085
92431SOL    HW179190   0.036   7.669  12.111
92431SOL    HW279191   0.049   7.534  12.044
92432SOL     OW79192   4.584  11.923   6.883
92432SOL    HW179193   4.528  11.945   6.808
92432SOL    HW279194   4.661  11.883   6.844
92433SOL     OW79195  14.441  10.107   7.439
92433SOL    HW179196  14.428  10.054   7.518
92433SOL    HW279197  14.537  10.112   7.430
92434SOL     OW79198   2.052  12.303   3.420
92434SOL    HW179199   2.146  12.295   3.403
92434SOL    HW279200   2.019  12.213   3.412
92435SOL     OW79201   1.561   9.052  13.409
92435SOL    HW179202   1.642   9.004  13.396
92435SOL    HW279203   1.545   9.095  13.325
92436SOL     OW79204   9.725  13.036   0.816
92436SOL    HW179205   9.730  12.956   0.868
92436SOL    HW279206   9.813  13.049   0.782
92437SOL     OW79207   3.795  13.474  10.536
92437SOL    HW179208   3.843  13.547  10.573
92437SOL    HW279209   3.775  13.417  10.610
92438SOL     OW79210  14.278  13.212   7.608
92438SOL    HW179211  14.251  13.149   7.542
92438SOL    HW279212  14.364  13.181   7.637
92439SOL     OW79213  11.943   4.021   7.332
92439SOL    HW179214  11.971   3.951   7.391
92439SOL    HW279215  12.018   4.080   7.329
92440SOL     OW79216   2.502  13.334  13.725
92440SOL    HW179217   2.556  13.322  13.803
92440SOL    HW279218   2.563  13.321  13.652
92441SOL     OW79219   5.660   2.257   8.512
92441SOL    HW179220   5.696   2.334   8.468
92441SOL    HW279221   5.565   2.270   8.511
92442SOL     OW79222  13.476   3.679   6.864
92442SOL    HW179223  13.398   3.682   6.920
92442SOL    HW279224  13.535   3.745   6.900
92443SOL     OW79225  14.318   5.349   8.547
92443SOL    HW179226  14.236   5.376   8.507
92443SOL    HW279227  14.347   5.424   8.599
92444SOL     OW79228   5.234   3.870   2.097
92444SOL    HW179229   5.152   3.850   2.141
92444SOL    HW279230   5.241   3.966   2.103
92445SOL     OW79231  11.549   8.238  12.786
92445SOL    HW179232  11.528   8.154  12.746
92445SOL    HW279233  11.525   8.303  12.720
92446SOL     OW79234   3.697  14.649  11.366
92446SOL    HW179235   3.691  14.554  11.357
92446SOL    HW279236   3.723  14.680  11.279
92447SOL     OW79237   2.013  11.222   0.693
92447SOL    HW179238   2.099  11.181   0.704
92447SOL    HW279239   2.031  11.302   0.644
92448SOL     OW79240  11.400   4.373   1.290
92448SOL    HW179241  11.472   4.309   1.293
92448SOL    HW279242  11.400   4.404   1.199
92449SOL     OW79243  10.987   4.090  14.329
92449SOL    HW179244  11.077   4.112  14.305
92449SOL    HW279245  10.935   4.113  14.253
92450SOL     OW79246  12.342   7.818   4.458
92450SOL    HW179247  12.321   7.727   4.435
92450SOL    HW279248  12.433   7.829   4.431
92451SOL     OW79249   0.834   8.979  14.773
92451SOL    HW179250   0.806   8.898  14.816
92451SOL    HW279251   0.929   8.971  14.767
92452SOL     OW79252  10.152   9.547  12.193
92452SOL    HW179253  10.218   9.596  12.242
92452SOL    HW279254  10.122   9.607  12.126
92453SOL     OW79255  14.691  14.109   1.843
92453SOL    HW179256  14.743  14.033   1.818
92453SOL    HW279257  14.636  14.126   1.766
92454SOL     OW79258   6.604   0.700   5.133
92454SOL    HW179259   6.655   0.630   5.172
92454SOL    HW279260   6.560   0.742   5.207
92455SOL     OW79261  12.635   0.891   0.987
92455SOL    HW179262  12.544   0.905   0.963
92455SOL    HW279263  12.631   0.849   1.073
92456SOL     OW79264   3.619  10.445   2.472
92456SOL    HW179265   3.712  10.453   2.492
92456SOL    HW279266   3.601  10.351   2.479
92457SOL     OW79267   7.539   5.089   2.727
92457SOL    HW179268   7.450   5.067   2.701
92457SOL    HW279269   7.532   5.115   2.818
92458SOL     OW79270   7.591   1.465  14.254
92458SOL    HW179271   7.508   1.435  14.291
92458SOL    HW279272   7.648   1.477  14.331
92459SOL     OW79273   7.968   1.493   6.688
92459SOL    HW179274   7.956   1.579   6.728
92459SOL    HW279275   7.893   1.484   6.629
92460SOL     OW79276  14.468  11.668  10.566
92460SOL    HW179277  14.544  11.643  10.513
92460SOL    HW279278  14.393  11.635  10.517
92461SOL     OW79279  10.138   8.810   8.296
92461SOL    HW179280  10.075   8.860   8.243
92461SOL    HW279281  10.109   8.823   8.386
92462SOL     OW79282  12.829   4.970   8.969
92462SOL    HW179283  12.809   5.026   8.894
92462SOL    HW279284  12.913   4.931   8.947
92463SOL     OW79285   9.141   6.769   9.440
92463SOL    HW179286   9.212   6.711   9.414
92463SOL    HW279287   9.154   6.848   9.389
92464SOL     OW79288   5.754  12.890   6.999
92464SOL    HW179289   5.721  12.935   6.922
92464SOL    HW279290   5.791  12.808   6.966
92465SOL     OW79291   9.083   2.563   6.392
92465SOL    HW179292   8.991   2.585   6.379
92465SOL    HW279293   9.083   2.468   6.408
92466SOL     OW79294   5.255  13.792  13.299
92466SOL    HW179295   5.272  13.753  13.214
92466SOL    HW279296   5.177  13.845  13.286
92467SOL     OW79297   9.020   4.742   1.750
92467SOL    HW179298   9.112   4.732   1.722
92467SOL    HW279299   9.001   4.835   1.737
92468SOL     OW79300  10.592  13.726   9.530
92468SOL    HW179301  10.547  13.701   9.610
92468SOL    HW279302  10.684  13.734   9.556
92469SOL     OW79303   2.099   5.464   9.715
92469SOL    HW179304   2.047   5.500   9.643
92469SOL    HW279305   2.148   5.539   9.749
92470SOL     OW79306  11.152   6.188   8.986
92470SOL    HW179307  11.093   6.263   8.986
92470SOL    HW279308  11.100   6.117   9.024
92471SOL     OW79309   5.724  10.202  12.895
92471SOL    HW179310   5.653  10.254  12.933
92471SOL    HW279311   5.793  10.202  12.962
92472SOL     OW79312   1.783  11.389  12.341
92472SOL    HW179313   1.846  11.428  12.280
92472SOL    HW279314   1.787  11.295  12.323
92473SOL     OW79315   5.082  14.751   0.993
92473SOL    HW179316   4.987  14.750   0.984
92473SOL    HW279317   5.097  14.770   1.085
92474SOL     OW79318   4.523  14.228   1.458
92474SOL    HW179319   4.574  14.309   1.467
92474SOL    HW279320   4.514  14.217   1.363
92475SOL     OW79321   8.804  11.389   3.260
92475SOL    HW179322   8.844  11.340   3.188
92475SOL    HW279323   8.736  11.331   3.294
92476SOL     OW79324  12.644  10.957   5.498
92476SOL    HW179325  12.709  10.887   5.498
92476SOL    HW279326  12.577  10.928   5.560
92477SOL     OW79327   5.771  14.437  13.838
92477SOL    HW179328   5.843  14.498  13.853
92477SOL    HW279329   5.778  14.413  13.746
92478SOL     OW79330   4.584   5.145  12.872
92478SOL    HW179331   4.607   5.058  12.839
92478SOL    HW279332   4.552   5.129  12.961
92479SOL     OW79333   0.705  13.621  12.186
92479SOL    HW179334   0.624  13.661  12.155
92479SOL    HW279335   0.772  13.689  12.174
92480SOL     OW79336  13.097   4.870  12.430
92480SOL    HW179337  13.080   4.781  12.460
92480SOL    HW279338  13.018   4.894  12.382
92481SOL     OW79339   0.579  14.597   4.096
92481SOL    HW179340   0.616  14.648   4.168
92481SOL    HW279341   0.519  14.535   4.139
92482SOL     OW79342  12.498   2.409   4.401
92482SOL    HW179343  12.426   2.355   4.434
92482SOL    HW279344  12.561   2.346   4.366
92483SOL     OW79345  10.543   7.052  10.484
92483SOL    HW179346  10.556   7.095  10.400
92483SOL    HW279347  10.487   6.977  10.465
92484SOL     OW79348  11.519   0.100  10.518
92484SOL    HW179349  11.569   0.023  10.544
92484SOL    HW279350  11.582   0.172  10.522
92485SOL     OW79351   1.276   2.367   0.075
92485SOL    HW179352   1.313   2.454   0.058
92485SOL    HW279353   1.349   2.317   0.110
92486SOL     OW79354   0.324  11.862   5.960
92486SOL    HW179355   0.277  11.783   5.987
92486SOL    HW279356   0.269  11.935   5.989
92487SOL     OW79357   2.111  12.275   5.304
92487SOL    HW179358   2.032  12.322   5.328
92487SOL    HW279359   2.164  12.275   5.384
92488SOL     OW79360   2.455   1.451   4.217
92488SOL    HW179361   2.483   1.537   4.185
92488SOL    HW279362   2.451   1.397   4.139
92489SOL     OW79363  13.071   1.113  12.635
92489SOL    HW179364  13.033   1.069  12.711
92489SOL    HW279365  13.088   1.043  12.573
92490SOL     OW79366  13.241  14.859  11.564
92490SOL    HW179367  13.187  14.808  11.625
92490SOL    HW279368  13.182   0.039  11.531
92491SOL     OW79369   3.992   8.059   4.228
92491SOL    HW179370   4.067   8.010   4.261
92491SOL    HW279371   3.962   8.009   4.153
92492SOL     OW79372   2.677  11.557   5.740
92492SOL    HW179373   2.586  11.578   5.716
92492SOL    HW279374   2.707  11.501   5.668
92493SOL     OW79375   8.791   8.130   2.618
92493SOL    HW179376   8.753   8.215   2.640
92493SOL    HW279377   8.820   8.094   2.702
92494SOL     OW79378   8.833   0.477  12.534
92494SOL    HW179379   8.835   0.573  12.542
92494SOL    HW279380   8.743   0.457  12.509
92495SOL     OW79381   3.774   9.578   7.858
92495SOL    HW179382   3.844   9.597   7.795
92495SOL    HW279383   3.772   9.482   7.863
92496SOL     OW79384   1.443   2.439  14.062
92496SOL    HW179385   1.533   2.471  14.072
92496SOL    HW279386   1.447   2.348  14.091
92497SOL     OW79387   9.750  14.579   4.519
92497SOL    HW179388   9.660  14.598   4.492
92497SOL    HW279389   9.801  14.652   4.486
92498SOL     OW79390  12.230   7.889   8.232
92498SOL    HW179391  12.321   7.869   8.256
92498SOL    HW279392  12.181   7.810   8.254
92499SOL     OW79393   1.607  12.175  12.122
92499SOL    HW179394   1.632  12.264  12.099
92499SOL    HW279395   1.563  12.141  12.044
92500SOL     OW79396  11.538   3.951  14.560
92500SOL    HW179397  11.572   4.010  14.628
92500SOL    HW279398  11.566   3.864  14.588
92501SOL     OW79399  14.223  10.531   0.099
92501SOL    HW179400  14.281  10.458   0.119
92501SOL    HW279401  14.273  10.609   0.121
92502SOL     OW79402   6.672   4.711  14.868
92502SOL    HW179403   6.735   4.755   0.038
92502SOL    HW279404   6.624   4.652   0.040
92503SOL     OW79405  14.379   8.554   5.902
92503SOL    HW179406  14.408   8.590   5.985
92503SOL    HW279407  14.440   8.590   5.837
92504SOL     OW79408   0.286   6.904   6.084
92504SOL    HW179409   0.227   6.829   6.079
92504SOL    HW279410   0.373   6.866   6.096
92505SOL     OW79411   8.837   8.045   2.080
92505SOL    HW179412   8.850   8.074   2.170
92505SOL    HW279413   8.828   8.127   2.030
92506SOL     OW79414  13.924  13.840  14.721
92506SOL    HW179415  13.961  13.839  14.633
92506SOL    HW279416  13.834  13.810  14.710
92507SOL     OW79417   9.274   9.198   0.469
92507SOL    HW179418   9.193   9.237   0.502
92507SOL    HW279419   9.308   9.261   0.406
92508SOL     OW79420  11.360   9.553   4.633
92508SOL    HW179421  11.321   9.466   4.645
92508SOL    HW279422  11.388   9.579   4.720
92509SOL     OW79423  11.753   5.534   9.758
92509SOL    HW179424  11.730   5.446   9.725
92509SOL    HW279425  11.807   5.517   9.836
92510SOL     OW79426   2.951   4.649  11.707
92510SOL    HW179427   2.915   4.560  11.701
92510SOL    HW279428   2.968   4.673  11.616
92511SOL     OW79429  14.781   8.904   9.357
92511SOL    HW179430  14.815   8.815   9.342
92511SOL    HW279431  14.775   8.942   9.269
92512SOL     OW79432   4.965   8.185   7.323
92512SOL    HW179433   5.053   8.217   7.341
92512SOL    HW279434   4.917   8.198   7.405
92513SOL     OW79435  14.410   5.803  11.819
92513SOL    HW179436  14.415   5.858  11.741
92513SOL    HW279437  14.362   5.725  11.791
92514SOL     OW79438   4.034   9.545   2.005
92514SOL    HW179439   4.006   9.502   2.087
92514SOL    HW279440   3.982   9.502   1.937
92515SOL     OW79441   3.529  14.496  12.694
92515SOL    HW179442   3.576  14.567  12.738
92515SOL    HW279443   3.597  14.434  12.669
92516SOL     OW79444  12.759   3.015   7.003
92516SOL    HW179445  12.780   2.967   6.923
92516SOL    HW279446  12.754   3.107   6.976
92517SOL     OW79447  10.457   7.971   5.477
92517SOL    HW179448  10.508   7.979   5.557
92517SOL    HW279449  10.474   7.882   5.446
92518SOL     OW79450   4.868   2.575   8.755
92518SOL    HW179451   4.916   2.510   8.806
92518SOL    HW279452   4.835   2.637   8.820
92519SOL     OW79453  13.307   7.271   0.003
92519SOL    HW179454  13.277   7.343   0.059
92519SOL    HW279455  13.231   7.213  14.883
92520SOL     OW79456   8.643   0.169   2.974
92520SOL    HW179457   8.630   0.131   3.060
92520SOL    HW279458   8.732   0.142   2.949
92521SOL     OW79459   5.070   7.198  13.233
92521SOL    HW179460   5.052   7.124  13.292
92521SOL    HW279461   5.163   7.192  13.214
92522SOL     OW79462   2.995   6.191  13.554
92522SOL    HW179463   2.901   6.211  13.554
92522SOL    HW279464   3.037   6.272  13.526
92523SOL     OW79465   0.480  13.373   1.315
92523SOL    HW179466   0.386  13.394   1.311
92523SOL    HW279467   0.484  13.278   1.304
92524SOL     OW79468   2.369  13.630   5.220
92524SOL    HW179469   2.407  13.711   5.255
92524SOL    HW279470   2.327  13.657   5.138
92525SOL     OW79471  10.011   1.066  12.990
92525SOL    HW179472  10.096   1.036  13.021
92525SOL    HW279473  10.031   1.133  12.925
92526SOL     OW79474   4.409   6.503   4.745
92526SOL    HW179475   4.348   6.431   4.759
92526SOL    HW279476   4.384   6.569   4.809
92527SOL     OW79477  12.537   8.238  10.885
92527SOL    HW179478  12.601   8.185  10.836
92527SOL    HW279479  12.520   8.313  10.828
92528SOL     OW79480   0.819   6.991   8.593
92528SOL    HW179481   0.813   6.997   8.688
92528SOL    HW279482   0.781   7.073   8.562
92529SOL     OW79483   0.901  13.380   1.662
92529SOL    HW179484   0.839  13.419   1.600
92529SOL    HW279485   0.853  13.308   1.703
92530SOL     OW79486   2.028  14.319   8.560
92530SOL    HW179487   1.981  14.244   8.596
92530SOL    HW279488   2.008  14.319   8.467
92531SOL     OW79489   1.493   3.566  13.845
92531SOL    HW179490   1.486   3.519  13.762
92531SOL    HW279491   1.585   3.557  13.870
92532SOL     OW79492   9.093  14.145   0.462
92532SOL    HW179493   9.024  14.181   0.518
92532SOL    HW279494   9.082  14.190   0.378
92533SOL     OW79495   1.728  14.356   6.836
92533SOL    HW179496   1.727  14.348   6.931
92533SOL    HW279497   1.635  14.352   6.811
92534SOL     OW79498   0.085   0.664  10.619
92534SOL    HW179499   0.170   0.687  10.580
92534SOL    HW279500   0.072   0.729  10.688
92535SOL     OW79501   2.071   6.382   6.947
92535SOL    HW179502   2.133   6.453   6.963
92535SOL    HW279503   2.017   6.379   7.027
92536SOL     OW79504   0.061   7.919   0.656
92536SOL    HW179505   0.025   7.853   0.716
92536SOL    HW279506   0.123   7.870   0.602
92537SOL     OW79507   5.185  11.891   1.813
92537SOL    HW179508   5.237  11.855   1.741
92537SOL    HW279509   5.235  11.966   1.844
92538SOL     OW79510  10.115   4.725   8.091
92538SOL    HW179511  10.139   4.649   8.039
92538SOL    HW279512  10.128   4.799   8.032
92539SOL     OW79513  13.874   3.022  12.022
92539SOL    HW179514  13.959   3.029  12.066
92539SOL    HW279515  13.810   3.047  12.088
92540SOL     OW79516  14.392   4.892   0.707
92540SOL    HW179517  14.338   4.938   0.771
92540SOL    HW279518  14.334   4.876   0.633
92541SOL     OW79519  12.430   7.777   5.356
92541SOL    HW179520  12.380   7.704   5.393
92541SOL    HW279521  12.448   7.835   5.430
92542SOL     OW79522  12.582  11.186   4.838
92542SOL    HW179523  12.560  11.256   4.776
92542SOL    HW279524  12.612  11.113   4.783
92543SOL     OW79525  13.368  10.422   1.957
92543SOL    HW179526  13.319  10.479   1.898
92543SOL    HW279527  13.449  10.402   1.911
92544SOL     OW79528   1.260  12.988   2.288
92544SOL    HW179529   1.177  13.032   2.305
92544SOL    HW279530   1.273  12.931   2.364
92545SOL     OW79531   7.926   1.243   9.336
92545SOL    HW179532   7.893   1.235   9.425
92545SOL    HW279533   7.915   1.155   9.299
92546SOL     OW79534  10.164  11.264  12.218
92546SOL    HW179535  10.174  11.354  12.188
92546SOL    HW279536  10.172  11.269  12.313
92547SOL     OW79537  10.320  11.266   5.646
92547SOL    HW179538  10.268  11.329   5.695
92547SOL    HW279539  10.383  11.320   5.598
92548SOL     OW79540   0.047   8.544  11.551
92548SOL    HW179541   0.067   8.584  11.635
92548SOL    HW279542   0.123   8.488  11.532
92549SOL     OW79543   4.479   5.083  13.570
92549SOL    HW179544   4.542   5.155  13.562
92549SOL    HW279545   4.404   5.112  13.517
92550SOL     OW79546   2.750   3.637   7.655
92550SOL    HW179547   2.746   3.732   7.658
92550SOL    HW279548   2.723   3.609   7.742
92551SOL     OW79549   5.628   1.546   2.251
92551SOL    HW179550   5.597   1.495   2.326
92551SOL    HW279551   5.554   1.545   2.190
92552SOL     OW79552   6.495   9.181  11.310
92552SOL    HW179553   6.470   9.114  11.245
92552SOL    HW279554   6.427   9.248  11.302
92553SOL     OW79555   4.683   4.374  12.689
92553SOL    HW179556   4.648   4.349  12.603
92553SOL    HW279557   4.708   4.292  12.730
92554SOL     OW79558   7.224  11.859  14.569
92554SOL    HW179559   7.189  11.929  14.625
92554SOL    HW279560   7.318  11.863  14.582
92555SOL     OW79561   9.909   7.509   9.436
92555SOL    HW179562   9.930   7.504   9.343
92555SOL    HW279563   9.994   7.518   9.479
92556SOL     OW79564   4.247   0.720   3.724
92556SOL    HW179565   4.177   0.705   3.661
92556SOL    HW279566   4.305   0.645   3.714
92557SOL     OW79567   8.677   2.684   5.826
92557SOL    HW179568   8.753   2.739   5.808
92557SOL    HW279569   8.673   2.678   5.921
92558SOL     OW79570   7.701   7.797   3.451
92558SOL    HW179571   7.638   7.734   3.415
92558SOL    HW279572   7.656   7.881   3.448
92559SOL     OW79573   5.050  14.413  13.233
92559SOL    HW179574   5.063  14.494  13.282
92559SOL    HW279575   5.136  14.372  13.233
92560SOL     OW79576   7.458  11.042  13.226
92560SOL    HW179577   7.489  11.131  13.248
92560SOL    HW279578   7.367  11.041  13.255
92561SOL     OW79579  10.381   0.306  10.834
92561SOL    HW179580  10.389   0.392  10.793
92561SOL    HW279581  10.345   0.323  10.920
92562SOL     OW79582   9.125   4.284   6.304
92562SOL    HW179583   9.060   4.269   6.235
92562SOL    HW279584   9.204   4.311   6.257
92563SOL     OW79585   6.837  12.484  12.113
92563SOL    HW179586   6.851  12.563  12.062
92563SOL    HW279587   6.817  12.516  12.201
92564SOL     OW79588   1.262   4.404   6.469
92564SOL    HW179589   1.346   4.435   6.503
92564SOL    HW279590   1.262   4.310   6.486
92565SOL     OW79591   1.943   5.635   7.657
92565SOL    HW179592   2.033   5.657   7.681
92565SOL    HW279593   1.899   5.720   7.652
92566SOL     OW79594   9.862   2.786   4.732
92566SOL    HW179595   9.808   2.864   4.741
92566SOL    HW279596   9.837   2.750   4.647
92567SOL     OW79597   4.203  10.089  14.246
92567SOL    HW179598   4.247  10.064  14.328
92567SOL    HW279599   4.148  10.014  14.224
92568SOL     OW79600   7.517   6.022  14.254
92568SOL    HW179601   7.432   6.043  14.292
92568SOL    HW279602   7.576   6.017  14.329
92569SOL     OW79603   4.562   7.650  12.303
92569SOL    HW179604   4.633   7.622  12.360
92569SOL    HW279605   4.602   7.711  12.241
92570SOL     OW79606  12.812   4.755   0.268
92570SOL    HW179607  12.793   4.671   0.226
92570SOL    HW279608  12.901   4.745   0.302
92571SOL     OW79609   2.927   3.459   2.323
92571SOL    HW179610   2.977   3.438   2.401
92571SOL    HW279611   2.889   3.375   2.295
92572SOL     OW79612   0.735  12.636  13.300
92572SOL    HW179613   0.707  12.566  13.240
92572SOL    HW279614   0.801  12.685  13.251
92573SOL     OW79615  14.160   5.792  13.149
92573SOL    HW179616  14.151   5.871  13.201
92573SOL    HW279617  14.233   5.810  13.090
92574SOL     OW79618   8.887   6.537  10.716
92574SOL    HW179619   8.877   6.555  10.623
92574SOL    HW279620   8.946   6.462  10.721
92575SOL     OW79621   0.654  12.714   3.755
92575SOL    HW179622   0.649  12.779   3.825
92575SOL    HW279623   0.720  12.748   3.695
92576SOL     OW79624   5.689   7.673   2.797
92576SOL    HW179625   5.692   7.645   2.888
92576SOL    HW279626   5.752   7.745   2.791
92577SOL     OW79627  13.951   0.413  12.475
92577SOL    HW179628  13.978   0.460  12.396
92577SOL    HW279629  13.980   0.323  12.460
92578SOL     OW79630  12.189   9.003   1.597
92578SOL    HW179631  12.155   8.924   1.555
92578SOL    HW279632  12.202   8.978   1.689
92579SOL     OW79633  12.969  14.716   3.139
92579SOL    HW179634  13.029  14.741   3.209
92579SOL    HW279635  13.025  14.674   3.074
92580SOL     OW79636   9.477   7.792   8.325
92580SOL    HW179637   9.479   7.752   8.412
92580SOL    HW279638   9.384   7.802   8.305
92581SOL     OW79639   4.391   6.578  12.785
92581SOL    HW179640   4.441   6.632  12.847
92581SOL    HW279641   4.342   6.642  12.732
92582SOL     OW79642   8.808   6.525   1.846
92582SOL    HW179643   8.744   6.499   1.780
92582SOL    HW279644   8.773   6.492   1.928
92583SOL     OW79645   7.875  14.141  13.218
92583SOL    HW179646   7.970  14.152  13.215
92583SOL    HW279647   7.858  14.102  13.304
92584SOL     OW79648   6.063  11.113   8.163
92584SOL    HW179649   6.142  11.116   8.218
92584SOL    HW279650   6.051  11.203   8.133
92585SOL     OW79651   2.169   1.994   2.990
92585SOL    HW179652   2.236   1.933   3.022
92585SOL    HW279653   2.088   1.964   3.029
92586SOL     OW79654  11.344  13.381   6.775
92586SOL    HW179655  11.337  13.473   6.801
92586SOL    HW279656  11.261  13.342   6.804
92587SOL     OW79657   2.312   8.119   3.870
92587SOL    HW179658   2.393   8.169   3.863
92587SOL    HW279659   2.328   8.039   3.821
92588SOL     OW79660   8.376  11.861   7.343
92588SOL    HW179661   8.297  11.909   7.318
92588SOL    HW279662   8.374  11.781   7.289
92589SOL     OW79663   6.367   1.688  10.497
92589SOL    HW179664   6.318   1.626  10.551
92589SOL    HW279665   6.331   1.675  10.409
92590SOL     OW79666  11.361  12.074  14.251
92590SOL    HW179667  11.339  12.014  14.322
92590SOL    HW279668  11.283  12.129  14.240
92591SOL     OW79669  11.214   3.383  14.700
92591SOL    HW179670  11.136   3.359  14.749
92591SOL    HW279671  11.241   3.302  14.657
92592SOL     OW79672   2.137   9.696  10.317
92592SOL    HW179673   2.167   9.694  10.408
92592SOL    HW279674   2.158   9.784  10.287
92593SOL     OW79675   7.758   9.735   2.248
92593SOL    HW179676   7.802   9.738   2.334
92593SOL    HW279677   7.785   9.816   2.205
92594SOL     OW79678   6.616   3.414  11.330
92594SOL    HW179679   6.690   3.460  11.291
92594SOL    HW279680   6.657   3.344  11.381
92595SOL     OW79681   4.325  12.987  14.364
92595SOL    HW179682   4.270  12.988  14.286
92595SOL    HW279683   4.270  13.025  14.433
92596SOL     OW79684   6.840  12.156  14.136
92596SOL    HW179685   6.860  12.243  14.102
92596SOL    HW279686   6.909  12.100  14.101
92597SOL     OW79687  10.964   7.828   1.057
92597SOL    HW179688  11.016   7.886   1.002
92597SOL    HW279689  10.996   7.740   1.037
92598SOL     OW79690  13.156  10.733   8.715
92598SOL    HW179691  13.134  10.814   8.670
92598SOL    HW279692  13.111  10.739   8.799
92599SOL     OW79693  10.852   3.596   1.784
92599SOL    HW179694  10.863   3.590   1.879
92599SOL    HW279695  10.823   3.686   1.769
92600SOL     OW79696   8.998  13.493  10.828
92600SOL    HW179697   9.041  13.433  10.766
92600SOL    HW279698   8.933  13.438  10.873
92601SOL     OW79699  12.921   7.899   8.029
92601SOL    HW179700  12.916   7.903   7.934
92601SOL    HW279701  12.925   7.806   8.049
92602SOL     OW79702   4.451   4.810   3.963
92602SOL    HW179703   4.357   4.807   3.945
92602SOL    HW279704   4.492   4.785   3.880
92603SOL     OW79705   9.521   2.480  11.853
92603SOL    HW179706   9.495   2.547  11.791
92603SOL    HW279707   9.613   2.462  11.832
92604SOL     OW79708   8.345   7.583   1.881
92604SOL    HW179709   8.328   7.662   1.932
92604SOL    HW279710   8.380   7.520   1.944
92605SOL     OW79711   8.177  12.394  13.978
92605SOL    HW179712   8.235  12.465  13.949
92605SOL    HW279713   8.202  12.378  14.069
92606SOL     OW79714  10.806   2.084   2.054
92606SOL    HW179715  10.799   2.001   2.101
92606SOL    HW279716  10.716   2.102   2.025
92607SOL     OW79717   3.651  11.212   3.662
92607SOL    HW179718   3.709  11.137   3.674
92607SOL    HW279719   3.649  11.225   3.567
92608SOL     OW79720  13.079   7.290  12.521
92608SOL    HW179721  13.173   7.301  12.537
92608SOL    HW279722  13.074   7.260  12.430
92609SOL     OW79723   1.927   2.622  11.827
92609SOL    HW179724   1.857   2.603  11.890
92609SOL    HW279725   1.938   2.540  11.778
92610SOL     OW79726   5.976   2.337   2.393
92610SOL    HW179727   5.906   2.331   2.329
92610SOL    HW279728   6.027   2.413   2.365
92611SOL     OW79729  13.583  10.670   1.905
92611SOL    HW179730  13.533  10.713   1.975
92611SOL    HW279731  13.551  10.710   1.824
92612SOL     OW79732   4.843  11.536  13.222
92612SOL    HW179733   4.932  11.567  13.206
92612SOL    HW279734   4.806  11.599  13.284
92613SOL     OW79735   9.002   7.452   8.191
92613SOL    HW179736   9.038   7.494   8.269
92613SOL    HW279737   8.907   7.458   8.204
92614SOL     OW79738   7.419  14.488  12.455
92614SOL    HW179739   7.461  14.543  12.520
92614SOL    HW279740   7.413  14.543  12.377
92615SOL     OW79741  12.537   8.346   3.466
92615SOL    HW179742  12.512   8.253   3.472
92615SOL    HW279743  12.555   8.371   3.557
92616SOL     OW79744   0.557  10.327  11.283
92616SOL    HW179745   0.527  10.353  11.196
92616SOL    HW279746   0.631  10.384  11.301
92617SOL     OW79747  12.892   8.462  14.637
92617SOL    HW179748  12.902   8.424  14.724
92617SOL    HW279749  12.810   8.423  14.604
92618SOL     OW79750   9.865   2.369  12.663
92618SOL    HW179751   9.908   2.374  12.578
92618SOL    HW279752   9.851   2.275  12.678
92619SOL     OW79753   3.251  11.314   4.957
92619SOL    HW179754   3.158  11.330   4.973
92619SOL    HW279755   3.281  11.267   5.035
92620SOL     OW79756  14.295   1.974  10.134
92620SOL    HW179757  14.389   1.958  10.139
92620SOL    HW279758  14.276   1.974  10.040
92621SOL     OW79759   6.402  11.177   3.072
92621SOL    HW179760   6.429  11.145   3.158
92621SOL    HW279761   6.322  11.228   3.089
92622SOL     OW79762   2.311   3.603   9.656
92622SOL    HW179763   2.254   3.676   9.633
92622SOL    HW279764   2.277   3.530   9.604
92623SOL     OW79765   2.799  13.743   4.687
92623SOL    HW179766   2.794  13.697   4.604
92623SOL    HW279767   2.789  13.675   4.753
92624SOL     OW79768   1.860   0.165   4.379
92624SOL    HW179769   1.923   0.097   4.355
92624SOL    HW279770   1.911   0.246   4.376
92625SOL     OW79771   7.032  14.476   5.050
92625SOL    HW179772   7.051  14.456   4.958
92625SOL    HW279773   7.104  14.533   5.078
92626SOL     OW79774   2.629  10.008   2.609
92626SOL    HW179775   2.626   9.983   2.517
92626SOL    HW279776   2.669   9.933   2.653
92627SOL     OW79777  12.543  13.605   6.703
92627SOL    HW179778  12.451  13.620   6.683
92627SOL    HW279779  12.542  13.550   6.782
92628SOL     OW79780   4.125   7.428   0.822
92628SOL    HW179781   4.074   7.359   0.779
92628SOL    HW279782   4.093   7.509   0.782
92629SOL     OW79783   7.366   4.039   9.803
92629SOL    HW179784   7.278   4.063   9.774
92629SOL    HW279785   7.424   4.090   9.748
92630SOL     OW79786  11.055   2.432  11.832
92630SOL    HW179787  11.051   2.506  11.893
92630SOL    HW279788  11.081   2.357  11.886
92631SOL     OW79789   5.489   2.035   8.846
92631SOL    HW179790   5.559   2.093   8.877
92631SOL    HW279791   5.418   2.048   8.908
92632SOL     OW79792   6.232  13.353  10.112
92632SOL    HW179793   6.230  13.263  10.079
92632SOL    HW279794   6.188  13.349  10.197
92633SOL     OW79795   5.095  14.774   5.128
92633SOL    HW179796   5.135  14.817   5.204
92633SOL    HW279797   5.060  14.692   5.163
92634SOL     OW79798   2.504   2.534  13.508
92634SOL    HW179799   2.445   2.607  13.487
92634SOL    HW279800   2.561   2.527  13.433
92635SOL     OW79801  13.107   4.444   0.143
92635SOL    HW179802  13.134   4.412   0.057
92635SOL    HW279803  13.095   4.538   0.131
92636SOL     OW79804   6.515   2.211   7.628
92636SOL    HW179805   6.480   2.299   7.643
92636SOL    HW279806   6.454   2.171   7.566
92637SOL     OW79807   5.182   0.441  13.593
92637SOL    HW179808   5.222   0.358  13.618
92637SOL    HW279809   5.091   0.434  13.623
92638SOL     OW79810   1.159  14.564   7.367
92638SOL    HW179811   1.072  14.529   7.350
92638SOL    HW279812   1.218  14.506   7.319
92639SOL     OW79813   9.055  13.749   0.138
92639SOL    HW179814   9.010  13.807   0.076
92639SOL    HW279815   9.087  13.807   0.207
92640SOL     OW79816  13.977   6.860   5.068
92640SOL    HW179817  14.048   6.923   5.054
92640SOL    HW279818  13.910   6.910   5.115
92641SOL     OW79819  11.070  14.506  11.069
92641SOL    HW179820  11.044  14.598  11.065
92641SOL    HW279821  11.063  14.475  10.979
92642SOL     OW79822   8.337   1.719   7.934
92642SOL    HW179823   8.292   1.784   7.987
92642SOL    HW279824   8.351   1.763   7.849
92643SOL     OW79825   2.762   5.449   7.620
92643SOL    HW179826   2.760   5.542   7.597
92643SOL    HW279827   2.830   5.442   7.687
92644SOL     OW79828   0.857  14.833   1.622
92644SOL    HW179829   0.798  14.788   1.683
92644SOL    HW279830   0.943  14.827   1.664
92645SOL     OW79831   1.536  13.422   4.889
92645SOL    HW179832   1.443  13.440   4.905
92645SOL    HW279833   1.583  13.480   4.950
92646SOL     OW79834   3.748   6.568   3.090
92646SOL    HW179835   3.727   6.554   2.997
92646SOL    HW279836   3.804   6.494   3.113
92647SOL     OW79837   1.272   1.037  10.470
92647SOL    HW179838   1.265   0.958  10.417
92647SOL    HW279839   1.346   1.084  10.432
92648SOL     OW79840   8.860  11.580   5.898
92648SOL    HW179841   8.775  11.618   5.920
92648SOL    HW279842   8.864  11.583   5.802
92649SOL     OW79843   4.462   9.407   8.454
92649SOL    HW179844   4.507   9.374   8.531
92649SOL    HW279845   4.413   9.483   8.485
92650SOL     OW79846   7.536   8.818   1.014
92650SOL    HW179847   7.455   8.796   1.059
92650SOL    HW279848   7.508   8.869   0.937
92651SOL     OW79849   4.914   0.155  11.292
92651SOL    HW179850   4.882   0.092  11.228
92651SOL    HW279851   4.993   0.115  11.328
92652SOL     OW79852   6.023   1.378  12.642
92652SOL    HW179853   5.937   1.420  12.632
92652SOL    HW279854   6.053   1.363  12.553
92653SOL     OW79855   5.038  12.061  12.717
92653SOL    HW179856   5.057  11.968  12.727
92653SOL    HW279857   4.943  12.068  12.728
92654SOL     OW79858   0.918   9.983  14.127
92654SOL    HW179859   0.987  10.043  14.156
92654SOL    HW279860   0.866   9.967  14.206
92655SOL     OW79861  12.199   4.429  12.175
92655SOL    HW179862  12.104   4.429  12.168
92655SOL    HW279863  12.220   4.345  12.216
92656SOL     OW79864   3.931   0.718  14.151
92656SOL    HW179865   3.999   0.665  14.194
92656SOL    HW279866   3.850   0.695  14.198
92657SOL     OW79867   3.115   7.052   9.934
92657SOL    HW179868   3.098   7.113   9.862
92657SOL    HW279869   3.167   6.982   9.894
92658SOL     OW79870   3.196  11.790   5.672
92658SOL    HW179871   3.172  11.868   5.622
92658SOL    HW279872   3.130  11.784   5.741
92659SOL     OW79873   8.671   2.152   3.741
92659SOL    HW179874   8.749   2.188   3.698
92659SOL    HW279875   8.598   2.184   3.688
92660SOL     OW79876   6.544   7.544  14.193
92660SOL    HW179877   6.563   7.577  14.105
92660SOL    HW279878   6.534   7.449  14.180
92661SOL     OW79879   7.505  12.314   8.213
92661SOL    HW179880   7.499  12.324   8.308
92661SOL    HW279881   7.426  12.264   8.190
92662SOL     OW79882   7.897   1.844  14.802
92662SOL    HW179883   7.899   1.933  14.838
92662SOL    HW279884   7.881   1.788  14.879
92663SOL     OW79885   7.720   7.976   5.554
92663SOL    HW179886   7.776   7.948   5.626
92663SOL    HW279887   7.672   7.897   5.529
92664SOL     OW79888  10.345   7.409   9.727
92664SOL    HW179889  10.429   7.450   9.706
92664SOL    HW279890  10.338   7.335   9.667
92665SOL     OW79891  13.077  13.055   3.574
92665SOL    HW179892  13.140  13.080   3.642
92665SOL    HW279893  13.000  13.027   3.623
92666SOL     OW79894   2.594   0.679  12.986
92666SOL    HW179895   2.671   0.665  12.932
92666SOL    HW279896   2.550   0.594  12.987
92667SOL     OW79897   0.188  12.382  10.747
92667SOL    HW179898   0.203  12.288  10.730
92667SOL    HW279899   0.194  12.390  10.842
92668SOL     OW79900  13.579   2.091  10.749
92668SOL    HW179901  13.651   2.152  10.739
92668SOL    HW279902  13.511   2.140  10.795
92669SOL     OW79903  13.897   1.519  12.838
92669SOL    HW179904  13.956   1.521  12.913
92669SOL    HW279905  13.864   1.430  12.835
92670SOL     OW79906  13.921   8.993   8.031
92670SOL    HW179907  13.880   9.016   8.114
92670SOL    HW279908  13.914   8.898   8.025
92671SOL     OW79909   7.493   4.985  10.908
92671SOL    HW179910   7.484   4.890  10.904
92671SOL    HW279911   7.565   5.005  10.849
92672SOL     OW79912  10.353  10.403   3.901
92672SOL    HW179913  10.354  10.480   3.958
92672SOL    HW279914  10.352  10.329   3.961
92673SOL     OW79915   4.723   6.764  12.093
92673SOL    HW179916   4.652   6.711  12.056
92673SOL    HW279917   4.789   6.769  12.023
92674SOL     OW79918   8.839   1.134   4.156
92674SOL    HW179919   8.874   1.217   4.122
92674SOL    HW279920   8.758   1.120   4.107
92675SOL     OW79921   0.226  13.511   6.488
92675SOL    HW179922   0.207  13.605   6.487
92675SOL    HW279923   0.299  13.501   6.549
92676SOL     OW79924   8.930  13.109   3.011
92676SOL    HW179925   8.925  13.022   3.051
92676SOL    HW279926   9.022  13.117   2.984
92677SOL     OW79927   7.972   4.627   9.507
92677SOL    HW179928   7.995   4.715   9.537
92677SOL    HW279929   8.055   4.579   9.505
92678SOL     OW79930   7.487   6.035   7.070
92678SOL    HW179931   7.395   6.010   7.081
92678SOL    HW279932   7.485   6.099   6.999
92679SOL     OW79933  11.362   5.065  11.701
92679SOL    HW179934  11.332   5.155  11.710
92679SOL    HW279935  11.282   5.013  11.695
92680SOL     OW79936   9.837   4.536   7.941
92680SOL    HW179937   9.883   4.533   8.024
92680SOL    HW279938   9.750   4.572   7.963
92681SOL     OW79939  14.401  14.809  12.180
92681SOL    HW179940  14.336  14.745  12.152
92681SOL    HW279941  14.396  14.878  12.113
92682SOL     OW79942  11.633   7.566   0.366
92682SOL    HW179943  11.690   7.550   0.290
92682SOL    HW279944  11.572   7.492   0.365
92683SOL     OW79945  13.034  10.478  12.130
92683SOL    HW179946  13.054  10.400  12.183
92683SOL    HW279947  13.119  10.508  12.098
92684SOL     OW79948   1.951  10.543   9.240
92684SOL    HW179949   1.866  10.529   9.197
92684SOL    HW279950   2.007  10.474   9.204
92685SOL     OW79951  11.731   2.391   8.670
92685SOL    HW179952  11.753   2.379   8.577
92685SOL    HW279953  11.640   2.420   8.670
92686SOL     OW79954  11.142  11.744   4.003
92686SOL    HW179955  11.229  11.718   4.032
92686SOL    HW279956  11.135  11.713   3.913
92687SOL     OW79957   4.411   0.294   8.607
92687SOL    HW179958   4.325   0.283   8.648
92687SOL    HW279959   4.457   0.212   8.625
92688SOL     OW79960   3.970   8.696  13.305
92688SOL    HW179961   3.975   8.791  13.312
92688SOL    HW279962   4.052   8.671  13.264
92689SOL     OW79963   1.716   6.980   3.543
92689SOL    HW179964   1.803   6.997   3.508
92689SOL    HW279965   1.706   6.885   3.539
92690SOL     OW79966   7.961  10.187   8.599
92690SOL    HW179967   8.025  10.258   8.601
92690SOL    HW279968   7.894  10.216   8.537
92691SOL     OW79969  12.581  13.604  14.527
92691SOL    HW179970  12.624  13.550  14.461
92691SOL    HW279971  12.621  13.691  14.517
92692SOL     OW79972   0.097  14.739  10.241
92692SOL    HW179973   0.020  14.697  10.202
92692SOL    HW279974   0.085  14.832  10.221
92693SOL     OW79975   3.739   6.593   0.916
92693SOL    HW179976   3.802   6.531   0.879
92693SOL    HW279977   3.775   6.616   1.001
92694SOL     OW79978   6.649   0.475   5.719
92694SOL    HW179979   6.563   0.504   5.751
92694SOL    HW279980   6.707   0.486   5.794
92695SOL     OW79981   8.393   1.558  14.230
92695SOL    HW179982   8.371   1.537  14.140
92695SOL    HW279983   8.487   1.540  14.236
92696SOL     OW79984   6.409   9.037   4.644
92696SOL    HW179985   6.341   9.099   4.616
92696SOL    HW279986   6.424   9.058   4.736
92697SOL     OW79987   9.907  14.073   6.323
92697SOL    HW179988   9.830  14.095   6.375
92697SOL    HW279989   9.891  14.114   6.238
92698SOL     OW79990   9.093   2.335  13.320
92698SOL    HW179991   9.104   2.427  13.294
92698SOL    HW279992   9.153   2.324  13.393
92699SOL     OW79993  12.659   3.567  11.191
92699SOL    HW179994  12.676   3.607  11.276
92699SOL    HW279995  12.742   3.573  11.144
92700SOL     OW79996  10.577   7.449   0.245
92700SOL    HW179997  10.564   7.485   0.333
92700SOL    HW279998  10.493   7.409   0.223
92701SOL     OW79999  14.353  11.987  12.561
92701SOL    HW180000  14.274  11.975  12.508
92701SOL    HW280001  14.323  12.034  12.639
92702SOL     OW80002  14.254   4.781   9.068
92702SOL    HW180003  14.348   4.793   9.080
92702SOL    HW280004  14.215   4.862   9.104
92703SOL     OW80005   2.568   8.019   3.273
92703SOL    HW180006   2.500   8.081   3.300
92703SOL    HW280007   2.650   8.063   3.294
92704SOL     OW80008   4.995   3.694   3.307
92704SOL    HW180009   5.079   3.667   3.344
92704SOL    HW280010   4.932   3.678   3.377
92705SOL     OW80011   3.569  14.138   8.706
92705SOL    HW180012   3.524  14.222   8.717
92705SOL    HW280013   3.658  14.161   8.681
92706SOL     OW80014   7.289  12.727   6.535
92706SOL    HW180015   7.298  12.653   6.475
92706SOL    HW280016   7.351  12.709   6.605
92707SOL     OW80017  11.991   0.767   6.295
92707SOL    HW180018  12.040   0.787   6.375
92707SOL    HW280019  12.021   0.679   6.270
92708SOL     OW80020   9.824   1.468  13.129
92708SOL    HW180021   9.849   1.398  13.189
92708SOL    HW280022   9.840   1.432  13.042
92709SOL     OW80023   4.790  14.404   2.190
92709SOL    HW180024   4.765  14.326   2.141
92709SOL    HW280025   4.714  14.422   2.246
92710SOL     OW80026   9.316  10.173   4.683
92710SOL    HW180027   9.406  10.139   4.684
92710SOL    HW280028   9.326  10.265   4.708
92711SOL     OW80029   3.382  13.486  10.658
92711SOL    HW180030   3.300  13.520  10.623
92711SOL    HW280031   3.357  13.444  10.741
92712SOL     OW80032   2.868   5.957  12.607
92712SOL    HW180033   2.787   5.906  12.613
92712SOL    HW280034   2.839   6.048  12.609
92713SOL     OW80035   4.945  10.077  14.822
92713SOL    HW180036   4.854  10.107  14.823
92713SOL    HW280037   4.970  10.077  14.730
92714SOL     OW80038   2.264   5.692   7.935
92714SOL    HW180039   2.271   5.643   7.853
92714SOL    HW280040   2.209   5.638   7.992
92715SOL     OW80041  12.754   1.751  11.215
92715SOL    HW180042  12.725   1.726  11.303
92715SOL    HW280043  12.847   1.726  11.212
92716SOL     OW80044  10.339   6.382   3.149
92716SOL    HW180045  10.351   6.458   3.206
92716SOL    HW280046  10.344   6.307   3.209
92717SOL     OW80047  11.385   4.202   8.432
92717SOL    HW180048  11.304   4.154   8.452
92717SOL    HW280049  11.400   4.255   8.510
92718SOL     OW80050   5.380   5.006   0.044
92718SOL    HW180051   5.359   5.075   0.107
92718SOL    HW280052   5.353   5.042  14.847
92719SOL     OW80053  10.659  12.683   1.841
92719SOL    HW180054  10.630  12.613   1.899
92719SOL    HW280055  10.582  12.737   1.826
92720SOL     OW80056   5.119   9.762  13.157
92720SOL    HW180057   5.113   9.844  13.206
92720SOL    HW280058   5.185   9.779  13.090
92721SOL     OW80059   7.117   1.218   5.996
92721SOL    HW180060   7.116   1.126   6.025
92721SOL    HW280061   7.194   1.256   6.039
92722SOL     OW80062   7.442   7.361   4.327
92722SOL    HW180063   7.395   7.279   4.309
92722SOL    HW280064   7.522   7.334   4.372
92723SOL     OW80065   0.721   6.071   0.430
92723SOL    HW180066   0.656   6.091   0.498
92723SOL    HW280067   0.750   6.157   0.400
92724SOL     OW80068   2.223   7.319  14.879
92724SOL    HW180069   2.142   7.268  14.881
92724SOL    HW280070   2.256   7.314   0.082
92725SOL     OW80071   2.580  12.975   9.146
92725SOL    HW180072   2.607  12.897   9.098
92725SOL    HW280073   2.606  13.048   9.089
92726SOL     OW80074  14.858   8.774  11.354
92726SOL    HW180075  14.856   8.710  11.425
92726SOL    HW280076  14.785   8.750  11.297
92727SOL     OW80077   6.378   0.668   3.080
92727SOL    HW180078   6.410   0.597   3.136
92727SOL    HW280079   6.285   0.649   3.068
92728SOL     OW80080   4.113  14.352   3.015
92728SOL    HW180081   4.176  14.415   3.049
92728SOL    HW280082   4.156  14.267   3.026
92729SOL     OW80083   4.052   9.872   4.707
92729SOL    HW180084   3.981   9.862   4.644
92729SOL    HW280085   4.132   9.855   4.656
92730SOL     OW80086   5.765   3.167   2.283
92730SOL    HW180087   5.813   3.228   2.227
92730SOL    HW280088   5.794   3.081   2.255
92731SOL     OW80089   1.698  13.905   6.549
92731SOL    HW180090   1.689  13.981   6.492
92731SOL    HW280091   1.788  13.912   6.583
92732SOL     OW80092   7.192   5.456   5.557
92732SOL    HW180093   7.230   5.383   5.606
92732SOL    HW280094   7.268   5.500   5.518
92733SOL     OW80095  11.954  13.852   9.345
92733SOL    HW180096  11.950  13.879   9.436
92733SOL    HW280097  12.021  13.908   9.305
92734SOL     OW80098  13.696   5.136   1.681
92734SOL    HW180099  13.635   5.064   1.698
92734SOL    HW280100  13.779   5.107   1.720
92735SOL     OW80101  12.217   0.585   4.406
92735SOL    HW180102  12.160   0.637   4.349
92735SOL    HW280103  12.159   0.555   4.477
92736SOL     OW80104  13.786   1.671  14.102
92736SOL    HW180105  13.760   1.592  14.149
92736SOL    HW280106  13.729   1.740  14.137
92737SOL     OW80107   6.749   5.098  14.774
92737SOL    HW180108   6.682   5.034  14.753
92737SOL    HW280109   6.709   5.155  14.841
92738SOL     OW80110  12.780  14.741   7.480
92738SOL    HW180111  12.738  14.676   7.424
92738SOL    HW280112  12.765  14.709   7.569
92739SOL     OW80113  13.050   0.427   7.377
92739SOL    HW180114  12.969   0.470   7.351
92739SOL    HW280115  13.024   0.370   7.450
92740SOL     OW80116   2.100   9.549   5.560
92740SOL    HW180117   2.058   9.539   5.474
92740SOL    HW280118   2.159   9.624   5.549
92741SOL     OW80119   8.938   6.948   4.785
92741SOL    HW180120   8.923   7.032   4.829
92741SOL    HW280121   9.033   6.945   4.771
92742SOL     OW80122   4.012   2.438   9.114
92742SOL    HW180123   4.079   2.406   9.174
92742SOL    HW280124   3.952   2.364   9.105
92743SOL     OW80125  14.769  13.225   4.957
92743SOL    HW180126  14.806  13.311   4.974
92743SOL    HW280127  14.783  13.176   5.038
92744SOL     OW80128   1.249   1.877   2.972
92744SOL    HW180129   1.304   1.801   2.991
92744SOL    HW280130   1.312   1.945   2.945
92745SOL     OW80131   5.346  13.521   7.879
92745SOL    HW180132   5.298  13.600   7.854
92745SOL    HW280133   5.300  13.449   7.835
92746SOL     OW80134   6.633   9.559   0.426
92746SOL    HW180135   6.665   9.566   0.336
92746SOL    HW280136   6.584   9.477   0.427
92747SOL     OW80137   1.546   1.792   0.391
92747SOL    HW180138   1.464   1.778   0.438
92747SOL    HW280139   1.520   1.808   0.301
92748SOL     OW80140   1.773  13.589   4.647
92748SOL    HW180141   1.838  13.655   4.624
92748SOL    HW280142   1.689  13.631   4.629
92749SOL     OW80143  13.670  11.561  13.623
92749SOL    HW180144  13.625  11.507  13.687
92749SOL    HW280145  13.703  11.636  13.673
92750SOL     OW80146   8.235  10.261   8.376
92750SOL    HW180147   8.189  10.193   8.326
92750SOL    HW280148   8.166  10.309   8.422
92751SOL     OW80149  13.488  11.245  14.858
92751SOL    HW180150  13.494  11.219   0.063
92751SOL    HW280151  13.572  11.220  14.820
92752SOL     OW80152   5.425   6.604   2.302
92752SOL    HW180153   5.432   6.564   2.216
92752SOL    HW280154   5.507   6.653   2.312
92753SOL     OW80155   4.300   9.654   5.720
92753SOL    HW180156   4.274   9.695   5.638
92753SOL    HW280157   4.389   9.684   5.735
92754SOL     OW80158   3.992   5.531  11.359
92754SOL    HW180159   3.997   5.599  11.426
92754SOL    HW280160   4.070   5.543  11.305
92755SOL     OW80161   7.274   3.606  14.032
92755SOL    HW180162   7.331   3.586  14.106
92755SOL    HW280163   7.310   3.555  13.959
92756SOL     OW80164   4.904  13.444   9.193
92756SOL    HW180165   4.831  13.394   9.231
92756SOL    HW280166   4.982  13.392   9.213
92757SOL     OW80167   4.758   4.794  11.227
92757SOL    HW180168   4.787   4.855  11.295
92757SOL    HW280169   4.727   4.850  11.156
92758SOL     OW80170   8.416   2.955   6.767
92758SOL    HW180171   8.436   3.045   6.793
92758SOL    HW280172   8.375   2.963   6.681
92759SOL     OW80173   3.496  13.756   0.674
92759SOL    HW180174   3.537  13.671   0.659
92759SOL    HW280175   3.497  13.767   0.769
92760SOL     OW80176   8.404  12.710  11.236
92760SOL    HW180177   8.365  12.797  11.228
92760SOL    HW280178   8.336  12.651  11.203
92761SOL     OW80179  10.983   5.786  14.032
92761SOL    HW180180  11.010   5.697  14.009
92761SOL    HW280181  11.014   5.840  13.961
92762SOL     OW80182   5.121   1.388  12.843
92762SOL    HW180183   5.103   1.319  12.907
92762SOL    HW280184   5.095   1.469  12.887
92763SOL     OW80185  11.491  13.604  12.381
92763SOL    HW180186  11.538  13.677  12.341
92763SOL    HW280187  11.555  13.534  12.387
92764SOL     OW80188   0.290   9.501  14.606
92764SOL    HW180189   0.263   9.460  14.525
92764SOL    HW280190   0.384   9.485  14.611
92765SOL     OW80191   2.002   2.048  12.019
92765SOL    HW180192   1.955   1.968  11.996
92765SOL    HW280193   2.087   2.017  12.051
92766SOL     OW80194   3.539   0.239   6.103
92766SOL    HW180195   3.576   0.151   6.103
92766SOL    HW280196   3.512   0.255   6.013
92767SOL     OW80197  10.746   3.604  11.226
92767SOL    HW180198  10.741   3.667  11.153
92767SOL    HW280199  10.693   3.530  11.196
92768SOL     OW80200   2.079   5.872  13.549
92768SOL    HW180201   1.997   5.824  13.563
92768SOL    HW280202   2.141   5.829  13.608
92769SOL     OW80203  12.441   5.821  12.726
92769SOL    HW180204  12.400   5.891  12.777
92769SOL    HW280205  12.380   5.803  12.655
92770SOL     OW80206  10.555   5.350  13.430
92770SOL    HW180207  10.550   5.257  13.406
92770SOL    HW280208  10.473   5.387  13.398
92771SOL     OW80209  11.814  12.625  13.506
92771SOL    HW180210  11.814  12.648  13.599
92771SOL    HW280211  11.858  12.540  13.503
92772SOL     OW80212  12.363   8.805   0.468
92772SOL    HW180213  12.439   8.816   0.410
92772SOL    HW280214  12.330   8.717   0.447
92773SOL     OW80215  13.605  10.562   3.925
92773SOL    HW180216  13.569  10.634   3.873
92773SOL    HW280217  13.528  10.514   3.956
92774SOL     OW80218   5.858  12.725   4.575
92774SOL    HW180219   5.954  12.720   4.574
92774SOL    HW280220   5.832  12.681   4.656
92775SOL     OW80221  10.439   9.855   4.191
92775SOL    HW180222  10.467   9.764   4.179
92775SOL    HW280223  10.381   9.873   4.117
92776SOL     OW80224   4.535   7.151   8.558
92776SOL    HW180225   4.512   7.163   8.465
92776SOL    HW280226   4.629   7.166   8.562
92777SOL     OW80227   2.164   5.205  11.591
92777SOL    HW180228   2.250   5.203  11.635
92777SOL    HW280229   2.101   5.191  11.662
92778SOL     OW80230  14.775   5.767   9.247
92778SOL    HW180231  14.698   5.819   9.223
92778SOL    HW280232  14.782   5.701   9.177
92779SOL     OW80233  10.664  13.868  14.609
92779SOL    HW180234  10.584  13.899  14.650
92779SOL    HW280235  10.675  13.924  14.532
92780SOL     OW80236   1.691   3.032   1.580
92780SOL    HW180237   1.677   2.976   1.657
92780SOL    HW280238   1.784   3.024   1.561
92781SOL     OW80239   0.701   9.218  13.873
92781SOL    HW180240   0.700   9.123  13.861
92781SOL    HW280241   0.794   9.241  13.868
92782SOL     OW80242  12.783   9.016   2.592
92782SOL    HW180243  12.859   9.068   2.617
92782SOL    HW280244  12.719   9.080   2.561
92783SOL     OW80245   3.941  10.457  12.408
92783SOL    HW180246   3.882  10.430  12.337
92783SOL    HW280247   4.028  10.454  12.368
92784SOL     OW80248   9.598   1.822   0.893
92784SOL    HW180249   9.672   1.764   0.875
92784SOL    HW280250   9.523   1.764   0.903
92785SOL     OW80251   9.175  13.686   2.786
92785SOL    HW180252   9.153  13.647   2.701
92785SOL    HW280253   9.245  13.630   2.820
92786SOL     OW80254  11.434   6.003  14.596
92786SOL    HW180255  11.410   5.991  14.688
92786SOL    HW280256  11.444   6.098  14.586
92787SOL     OW80257   8.286   6.725   1.789
92787SOL    HW180258   8.299   6.820   1.783
92787SOL    HW280259   8.226   6.714   1.863
92788SOL     OW80260   5.859   6.271   2.970
92788SOL    HW180261   5.905   6.260   2.886
92788SOL    HW280262   5.804   6.349   2.957
92789SOL     OW80263  12.697  12.884   3.342
92789SOL    HW180264  12.732  12.894   3.431
92789SOL    HW280265  12.734  12.958   3.293
92790SOL     OW80266   0.597   9.773  11.825
92790SOL    HW180267   0.538   9.823  11.881
92790SOL    HW280268   0.547   9.756  11.746
92791SOL     OW80269   7.804   1.189   1.014
92791SOL    HW180270   7.890   1.156   1.041
92791SOL    HW280271   7.768   1.120   0.958
92792SOL     OW80272  10.470   9.069  10.093
92792SOL    HW180273  10.451   9.153  10.136
92792SOL    HW280274  10.386   9.042  10.056
92793SOL     OW80275  14.240   1.366   3.477
92793SOL    HW180276  14.213   1.458   3.467
92793SOL    HW280277  14.265   1.358   3.569
92794SOL     OW80278   9.668  14.634  13.120
92794SOL    HW180279   9.609  14.562  13.097
92794SOL    HW280280   9.690  14.675  13.036
92795SOL     OW80281  10.557  13.850  10.960
92795SOL    HW180282  10.530  13.763  10.930
92795SOL    HW280283  10.475  13.897  10.976
92796SOL     OW80284  11.192  10.790  10.104
92796SOL    HW180285  11.148  10.745  10.032
92796SOL    HW280286  11.124  10.807  10.168
92797SOL     OW80287  14.113   4.936   8.018
92797SOL    HW180288  14.167   4.865   8.053
92797SOL    HW280289  14.111   4.921   7.923
92798SOL     OW80290   6.981   9.566   8.127
92798SOL    HW180291   6.991   9.476   8.094
92798SOL    HW280292   7.060   9.611   8.097
92799SOL     OW80293   5.445   9.856   3.517
92799SOL    HW180294   5.478   9.914   3.449
92799SOL    HW280295   5.465   9.768   3.485
92800SOL     OW80296   5.200   4.067  12.466
92800SOL    HW180297   5.185   4.006  12.539
92800SOL    HW280298   5.278   4.032  12.422
92801SOL     OW80299   5.502   9.633   1.770
92801SOL    HW180300   5.583   9.642   1.720
92801SOL    HW280301   5.519   9.675   1.854
92802SOL     OW80302   5.444   4.270   0.313
92802SOL    HW180303   5.392   4.274   0.232
92802SOL    HW280304   5.403   4.334   0.370
92803SOL     OW80305   3.353  10.524   8.159
92803SOL    HW180306   3.437  10.499   8.120
92803SOL    HW280307   3.357  10.619   8.167
92804SOL     OW80308   5.666  14.804  12.853
92804SOL    HW180309   5.617  14.727  12.883
92804SOL    HW280310   5.622  14.829  12.771
92805SOL     OW80311  14.074   1.275   5.793
92805SOL    HW180312  14.085   1.356   5.843
92805SOL    HW280313  14.162   1.253   5.763
92806SOL     OW80314   7.688  14.684  12.901
92806SOL    HW180315   7.747  14.754  12.873
92806SOL    HW280316   7.610  14.730  12.933
92807SOL     OW80317  13.979   0.501   1.138
92807SOL    HW180318  13.941   0.485   1.052
92807SOL    HW280319  14.064   0.541   1.120
92808SOL     OW80320  14.251   6.962  10.349
92808SOL    HW180321  14.160   6.992  10.355
92808SOL    HW280322  14.269   6.922  10.434
92809SOL     OW80323  12.336   3.492   5.434
92809SOL    HW180324  12.330   3.408   5.479
92809SOL    HW280325  12.429   3.512   5.432
92810SOL     OW80326  13.741   9.479   5.735
92810SOL    HW180327  13.700   9.560   5.765
92810SOL    HW280328  13.724   9.477   5.641
92811SOL     OW80329   2.374   9.938  14.027
92811SOL    HW180330   2.458   9.935  13.980
92811SOL    HW280331   2.391   9.892  14.109
92812SOL     OW80332   2.784  12.793  13.389
92812SOL    HW180333   2.796  12.875  13.436
92812SOL    HW280334   2.761  12.819  13.300
92813SOL     OW80335   1.581   8.150  10.766
92813SOL    HW180336   1.576   8.172  10.859
92813SOL    HW280337   1.635   8.219  10.728
92814SOL     OW80338   8.095   6.284   7.122
92814SOL    HW180339   8.105   6.346   7.050
92814SOL    HW280340   8.084   6.199   7.079
92815SOL     OW80341   0.041   3.782  11.138
92815SOL    HW180342   0.035   3.783  11.233
92815SOL    HW280343  14.865   3.717  11.110
92816SOL     OW80344   0.481   6.071   4.061
92816SOL    HW180345   0.492   6.101   4.151
92816SOL    HW280346   0.387   6.082   4.044
92817SOL     OW80347   4.634   8.078  10.019
92817SOL    HW180348   4.606   8.147  10.080
92817SOL    HW280349   4.671   8.010  10.076
92818SOL     OW80350  13.773   6.039   4.684
92818SOL    HW180351  13.753   5.958   4.729
92818SOL    HW280352  13.851   6.073   4.728
92819SOL     OW80353   7.565   8.771   0.071
92819SOL    HW180354   7.540   8.798   0.159
92819SOL    HW280355   7.633   8.705   0.084
92820SOL     OW80356   6.927  10.780  13.345
92820SOL    HW180357   6.948  10.737  13.428
92820SOL    HW280358   6.847  10.830  13.363
92821SOL     OW80359  14.069   0.156   6.416
92821SOL    HW180360  14.002   0.096   6.450
92821SOL    HW280361  14.152   0.119   6.447
92822SOL     OW80362   7.722   4.474   5.590
92822SOL    HW180363   7.756   4.416   5.521
92822SOL    HW280364   7.764   4.442   5.670
92823SOL     OW80365   2.764   8.106   1.514
92823SOL    HW180366   2.851   8.104   1.554
92823SOL    HW280367   2.752   8.019   1.476
92824SOL     OW80368  10.381   2.475  12.383
92824SOL    HW180369  10.453   2.538  12.394
92824SOL    HW280370  10.405   2.425  12.305
92825SOL     OW80371   7.690   8.211  12.125
92825SOL    HW180372   7.760   8.155  12.159
92825SOL    HW280373   7.726   8.299  12.128
92826SOL     OW80374   8.252  10.276  10.090
92826SOL    HW180375   8.202  10.236  10.019
92826SOL    HW280376   8.188  10.294  10.158
92827SOL     OW80377   2.687   3.160  12.427
92827SOL    HW180378   2.704   3.093  12.360
92827SOL    HW280379   2.732   3.238  12.394
92828SOL     OW80380  13.748  11.297   5.105
92828SOL    HW180381  13.663  11.315   5.144
92828SOL    HW280382  13.759  11.366   5.039
92829SOL     OW80383   0.912   6.238  10.615
92829SOL    HW180384   0.981   6.182  10.579
92829SOL    HW280385   0.871   6.278  10.538
92830SOL     OW80386   0.185   9.586   5.329
92830SOL    HW180387   0.248   9.514   5.336
92830SOL    HW280388   0.235   9.659   5.292
92831SOL     OW80389   0.096   5.139   4.517
92831SOL    HW180390   0.129   5.082   4.587
92831SOL    HW280391   0.114   5.228   4.547
92832SOL     OW80392   1.039  14.807  14.272
92832SOL    HW180393   1.126  14.840  14.295
92832SOL    HW280394   1.022  14.739  14.336
92833SOL     OW80395   7.002   9.018   8.677
92833SOL    HW180396   6.939   9.067   8.730
92833SOL    HW280397   6.968   8.928   8.678
92834SOL     OW80398  13.144   2.008   5.288
92834SOL    HW180399  13.185   1.929   5.252
92834SOL    HW280400  13.052   1.985   5.296
92835SOL     OW80401   5.747   4.310   4.104
92835SOL    HW180402   5.683   4.359   4.155
92835SOL    HW280403   5.831   4.349   4.127
92836SOL     OW80404   6.529  14.063   1.459
92836SOL    HW180405   6.497  13.980   1.493
92836SOL    HW280406   6.512  14.126   1.529
92837SOL     OW80407   4.401   2.539   9.044
92837SOL    HW180408   4.389   2.548   8.949
92837SOL    HW280409   4.448   2.618   9.071
92838SOL     OW80410   6.359   9.022  14.185
92838SOL    HW180411   6.275   8.980  14.164
92838SOL    HW280412   6.406   8.957  14.238
92839SOL     OW80413  11.808   9.967   5.703
92839SOL    HW180414  11.725   9.997   5.739
92839SOL    HW280415  11.832  10.033   5.639
92840SOL     OW80416   6.839  13.204  14.284
92840SOL    HW180417   6.919  13.253  14.298
92840SOL    HW280418   6.855  13.154  14.204
92841SOL     OW80419  10.223   6.249   9.605
92841SOL    HW180420  10.306   6.207   9.626
92841SOL    HW280421  10.166   6.227   9.678
92842SOL     OW80422   8.551  10.867  10.361
92842SOL    HW180423   8.510  10.935  10.413
92842SOL    HW280424   8.478  10.811  10.333
92843SOL     OW80425   0.125   7.008   7.118
92843SOL    HW180426   0.053   7.022   7.179
92843SOL    HW280427   0.170   6.930   7.151
92844SOL     OW80428   4.763  14.483  12.025
92844SOL    HW180429   4.689  14.426  12.003
92844SOL    HW280430   4.722  14.563  12.058
92845SOL     OW80431   3.526  11.908   2.284
92845SOL    HW180432   3.572  11.917   2.367
92845SOL    HW280433   3.464  11.980   2.283
92846SOL     OW80434  10.905  14.483   3.037
92846SOL    HW180435  10.907  14.460   2.944
92846SOL    HW280436  10.812  14.493   3.058
92847SOL     OW80437   2.686  13.130   6.396
92847SOL    HW180438   2.687  13.054   6.338
92847SOL    HW280439   2.693  13.094   6.484
92848SOL     OW80440  14.188   4.319   6.924
92848SOL    HW180441  14.094   4.332   6.931
92848SOL    HW280442  14.203   4.232   6.961
92849SOL     OW80443   8.156   8.576  14.594
92849SOL    HW180444   8.175   8.483  14.610
92849SOL    HW280445   8.083   8.595  14.654
92850SOL     OW80446  12.180   0.701  10.609
92850SOL    HW180447  12.251   0.646  10.644
92850SOL    HW280448  12.187   0.691  10.514
92851SOL     OW80449   9.324  11.339  11.215
92851SOL    HW180450   9.394  11.287  11.176
92851SOL    HW280451   9.335  11.427  11.176
92852SOL     OW80452   1.407   8.434   8.946
92852SOL    HW180453   1.369   8.391   8.870
92852SOL    HW280454   1.420   8.525   8.917
92853SOL     OW80455  10.046   9.171   9.155
92853SOL    HW180456  10.103   9.102   9.121
92853SOL    HW280457   9.973   9.174   9.093
92854SOL     OW80458   2.439   8.822   9.531
92854SOL    HW180459   2.415   8.744   9.582
92854SOL    HW280460   2.527   8.803   9.498
92855SOL     OW80461   1.331   8.105  12.956
92855SOL    HW180462   1.306   8.029  12.903
92855SOL    HW280463   1.258   8.165  12.948
92856SOL     OW80464   0.930  12.289  12.721
92856SOL    HW180465   1.025  12.290  12.721
92856SOL    HW280466   0.906  12.253  12.636
92857SOL     OW80467  11.267   4.801   5.595
92857SOL    HW180468  11.276   4.874   5.656
92857SOL    HW280469  11.190   4.754   5.624
92858SOL     OW80470   5.318  10.670   5.919
92858SOL    HW180471   5.266  10.681   5.998
92858SOL    HW280472   5.274  10.726   5.854
92859SOL     OW80473  13.596  13.772   9.300
92859SOL    HW180474  13.533  13.832   9.260
92859SOL    HW280475  13.545  13.724   9.365
92860SOL     OW80476  12.724   9.251   8.573
92860SOL    HW180477  12.810   9.220   8.543
92860SOL    HW280478  12.666   9.234   8.500
92861SOL     OW80479   5.299   1.991  14.828
92861SOL    HW180480   5.358   2.006   0.014
92861SOL    HW280481   5.297   2.075  14.781
92862SOL     OW80482   7.281   2.927   6.565
92862SOL    HW180483   7.350   2.910   6.630
92862SOL    HW280484   7.257   3.018   6.579
92863SOL     OW80485   1.357   9.623   4.932
92863SOL    HW180486   1.287   9.561   4.952
92863SOL    HW280487   1.437   9.569   4.928
92864SOL     OW80488   8.880   6.179   8.182
92864SOL    HW180489   8.964   6.147   8.147
92864SOL    HW280490   8.856   6.251   8.124
92865SOL     OW80491   5.702  12.813   2.557
92865SOL    HW180492   5.634  12.746   2.550
92865SOL    HW280493   5.751  12.806   2.475
92866SOL     OW80494  13.483  10.194  12.612
92866SOL    HW180495  13.458  10.182  12.521
92866SOL    HW280496  13.543  10.269  12.610
92867SOL     OW80497   6.143   6.983  10.768
92867SOL    HW180498   6.093   6.973  10.686
92867SOL    HW280499   6.219   6.927  10.756
92868SOL     OW80500  11.171   3.639   3.560
92868SOL    HW180501  11.186   3.569   3.496
92868SOL    HW280502  11.109   3.697   3.517
92869SOL     OW80503  10.453   2.891   6.367
92869SOL    HW180504  10.468   2.835   6.291
92869SOL    HW280505  10.485   2.841   6.441
92870SOL     OW80506   0.058  13.821   6.855
92870SOL    HW180507   0.148  13.791   6.840
92870SOL    HW280508   0.039  13.792   6.945
92871SOL     OW80509   1.975  12.829   1.599
92871SOL    HW180510   1.972  12.885   1.677
92871SOL    HW280511   2.016  12.884   1.533
92872SOL     OW80512   5.479   8.457  13.435
92872SOL    HW180513   5.484   8.480  13.342
92872SOL    HW280514   5.385   8.446  13.452
92873SOL     OW80515  10.248   3.439   4.857
92873SOL    HW180516  10.285   3.361   4.897
92873SOL    HW280517  10.283   3.512   4.909
92874SOL     OW80518   8.133   2.199   2.245
92874SOL    HW180519   8.213   2.217   2.195
92874SOL    HW280520   8.097   2.285   2.265
92875SOL     OW80521   1.176  14.229  11.997
92875SOL    HW180522   1.163  14.322  11.979
92875SOL    HW280523   1.157  14.220  12.090
92876SOL     OW80524  10.565   2.271  13.089
92876SOL    HW180525  10.508   2.197  13.068
92876SOL    HW280526  10.633   2.234  13.145
92877SOL     OW80527  14.534   6.905   3.407
92877SOL    HW180528  14.630   6.900   3.411
92877SOL    HW280529  14.505   6.891   3.497
92878SOL     OW80530   0.381  10.035   3.230
92878SOL    HW180531   0.475  10.025   3.247
92878SOL    HW280532   0.338  10.005   3.310
92879SOL     OW80533  11.199  12.230   7.102
92879SOL    HW180534  11.282  12.251   7.145
92879SOL    HW280535  11.151  12.177   7.165
92880SOL     OW80536   6.493   4.914   0.917
92880SOL    HW180537   6.585   4.888   0.927
92880SOL    HW280538   6.456   4.846   0.861
92881SOL     OW80539   6.330   9.379   2.342
92881SOL    HW180540   6.407   9.398   2.397
92881SOL    HW280541   6.351   9.417   2.257
92882SOL     OW80542  12.961   2.024   1.741
92882SOL    HW180543  13.046   2.030   1.697
92882SOL    HW280544  12.936   2.115   1.757
92883SOL     OW80545   4.622  14.102   6.963
92883SOL    HW180546   4.695  14.043   6.944
92883SOL    HW280547   4.560  14.087   6.892
92884SOL     OW80548   7.487   6.585   4.286
92884SOL    HW180549   7.428   6.572   4.212
92884SOL    HW280550   7.437   6.555   4.362
92885SOL     OW80551  12.440   8.805  13.108
92885SOL    HW180552  12.392   8.723  13.122
92885SOL    HW280553  12.494   8.788  13.031
92886SOL     OW80554   1.063  13.654   7.368
92886SOL    HW180555   1.026  13.584   7.422
92886SOL    HW280556   1.033  13.634   7.279
92887SOL     OW80557  13.342  14.883   7.823
92887SOL    HW180558  13.273  14.869   7.759
92887SOL    HW280559  13.344  14.803   7.875
92888SOL     OW80560  10.110   9.022   5.132
92888SOL    HW180561  10.074   9.095   5.082
92888SOL    HW280562  10.183   8.990   5.078
92889SOL     OW80563   8.458  12.765   7.928
92889SOL    HW180564   8.396  12.832   7.958
92889SOL    HW280565   8.544  12.804   7.943
92890SOL     OW80566  13.942  11.231   0.915
92890SOL    HW180567  13.904  11.143   0.922
92890SOL    HW280568  13.876  11.288   0.955
92891SOL     OW80569   6.413   5.890   3.831
92891SOL    HW180570   6.391   5.980   3.805
92891SOL    HW280571   6.415   5.841   3.749
92892SOL     OW80572   2.702   1.264   9.471
92892SOL    HW180573   2.729   1.269   9.380
92892SOL    HW280574   2.767   1.318   9.518
92893SOL     OW80575  10.310   0.829   1.148
92893SOL    HW180576  10.312   0.795   1.059
92893SOL    HW280577  10.366   0.907   1.144
92894SOL     OW80578  13.268  12.859  10.171
92894SOL    HW180579  13.350  12.907  10.158
92894SOL    HW280580  13.229  12.898  10.249
92895SOL     OW80581  13.529   1.785   8.804
92895SOL    HW180582  13.590   1.711   8.806
92895SOL    HW280583  13.485   1.777   8.720
92896SOL     OW80584   1.672  13.991  12.443
92896SOL    HW180585   1.764  14.015  12.430
92896SOL    HW280586   1.630  14.071  12.473
92897SOL     OW80587   8.084  13.704   7.443
92897SOL    HW180588   8.137  13.671   7.371
92897SOL    HW280589   7.996  13.710   7.407
92898SOL     OW80590   6.178   6.162   2.049
92898SOL    HW180591   6.142   6.131   2.132
92898SOL    HW280592   6.214   6.248   2.070
92899SOL     OW80593   5.006   3.664   1.836
92899SOL    HW180594   5.093   3.704   1.840
92899SOL    HW280595   4.984   3.647   1.928
92900SOL     OW80596  14.100   3.699   2.268
92900SOL    HW180597  14.124   3.732   2.182
92900SOL    HW280598  14.160   3.742   2.328
92901SOL     OW80599   3.963   0.004   1.305
92901SOL    HW180600   3.925   0.036   1.387
92901SOL    HW280601   3.900  14.826   1.273
92902SOL     OW80602   5.788  14.578   4.936
92902SOL    HW180603   5.830  14.514   4.994
92902SOL    HW280604   5.695  14.575   4.960
92903SOL     OW80605   3.281   8.272   5.345
92903SOL    HW180606   3.295   8.315   5.429
92903SOL    HW280607   3.336   8.320   5.283
92904SOL     OW80608  10.010  13.992   1.587
92904SOL    HW180609  10.011  13.977   1.493
92904SOL    HW280610   9.917  13.996   1.610
92905SOL     OW80611   6.014   8.510  10.330
92905SOL    HW180612   6.084   8.546  10.275
92905SOL    HW280613   5.986   8.583  10.385
92906SOL     OW80614   0.893  13.634  11.531
92906SOL    HW180615   0.822  13.573  11.512
92906SOL    HW280616   0.882  13.656  11.623
92907SOL     OW80617   8.369  12.136  11.053
92907SOL    HW180618   8.284  12.114  11.013
92907SOL    HW280619   8.431  12.132  10.981
92908SOL     OW80620  13.474  13.381   4.836
92908SOL    HW180621  13.504  13.465   4.871
92908SOL    HW280622  13.379  13.388   4.834
92909SOL     OW80623   5.177  10.555   2.540
92909SOL    HW180624   5.227  10.494   2.485
92909SOL    HW280625   5.242  10.621   2.567
92910SOL     OW80626   2.125   1.733   2.134
92910SOL    HW180627   2.114   1.828   2.142
92910SOL    HW280628   2.090   1.713   2.047
92911SOL     OW80629   0.781   9.607   8.474
92911SOL    HW180630   0.784   9.597   8.569
92911SOL    HW280631   0.848   9.546   8.442
92912SOL     OW80632   7.025  13.770  11.835
92912SOL    HW180633   7.019  13.796  11.743
92912SOL    HW280634   6.981  13.685  11.839
92913SOL     OW80635   8.305   9.612   9.250
92913SOL    HW180636   8.303   9.528   9.296
92913SOL    HW280637   8.371   9.664   9.297
92914SOL     OW80638   9.387  11.324   1.464
92914SOL    HW180639   9.433  11.328   1.380
92914SOL    HW280640   9.311  11.268   1.448
92915SOL     OW80641   8.314   6.360   3.962
92915SOL    HW180642   8.390   6.311   3.993
92915SOL    HW280643   8.249   6.294   3.941
92916SOL     OW80644  14.119   1.573  10.377
92916SOL    HW180645  14.202   1.550  10.337
92916SOL    HW280646  14.114   1.668  10.370
92917SOL     OW80647   0.325   6.934   9.155
92917SOL    HW180648   0.305   6.846   9.188
92917SOL    HW280649   0.303   6.992   9.229
92918SOL     OW80650  13.603   8.364  10.766
92918SOL    HW180651  13.637   8.420  10.837
92918SOL    HW280652  13.519   8.333  10.798
92919SOL     OW80653  11.743   7.394   5.406
92919SOL    HW180654  11.792   7.351   5.336
92919SOL    HW280655  11.653   7.395   5.375
92920SOL     OW80656  13.747  12.377   0.007
92920SOL    HW180657  13.685  12.449   0.021
92920SOL    HW280658  13.755  12.371  14.800
92921SOL     OW80659  14.291   4.076  13.669
92921SOL    HW180660  14.352   4.128  13.616
92921SOL    HW280661  14.309   4.103  13.759
92922SOL     OW80662   5.880  13.357  10.511
92922SOL    HW180663   5.835  13.369  10.427
92922SOL    HW280664   5.844  13.276  10.546
92923SOL     OW80665  14.663   2.103   5.697
92923SOL    HW180666  14.611   2.144   5.766
92923SOL    HW280667  14.746   2.080   5.739
92924SOL     OW80668  13.923   8.562   4.082
92924SOL    HW180669  13.852   8.499   4.095
92924SOL    HW280670  13.905   8.632   4.146
92925SOL     OW80671  14.658  10.628  10.818
92925SOL    HW180672  14.694  10.552  10.864
92925SOL    HW280673  14.614  10.678  10.887
92926SOL     OW80674   0.417  14.545   6.277
92926SOL    HW180675   0.440  14.484   6.347
92926SOL    HW280676   0.482  14.528   6.209
92927SOL     OW80677   6.751   6.430  13.144
92927SOL    HW180678   6.671   6.444  13.195
92927SOL    HW280679   6.731   6.464  13.057
92928SOL     OW80680   1.173   9.515  11.502
92928SOL    HW180681   1.207   9.599  11.530
92928SOL    HW280682   1.092   9.504  11.552
92929SOL     OW80683   6.069   3.315  13.389
92929SOL    HW180684   6.110   3.402  13.387
92929SOL    HW280685   6.071   3.290  13.482
92930SOL     OW80686   4.834   3.545   8.944
92930SOL    HW180687   4.812   3.452   8.944
92930SOL    HW280688   4.750   3.589   8.929
92931SOL     OW80689  11.287  10.829  11.843
92931SOL    HW180690  11.366  10.775  11.836
92931SOL    HW280691  11.303  10.885  11.919
92932SOL     OW80692   1.047  13.834   7.561
92932SOL    HW180693   1.035  13.806   7.651
92932SOL    HW280694   1.060  13.752   7.512
92933SOL     OW80695  12.598   2.714   7.325
92933SOL    HW180696  12.692   2.725   7.311
92933SOL    HW280697  12.592   2.669   7.410
92934SOL     OW80698   6.035  10.007   4.035
92934SOL    HW180699   6.041   9.994   4.129
92934SOL    HW280700   5.942  10.023   4.019
92935SOL     OW80701   1.500   7.155   6.325
92935SOL    HW180702   1.591   7.179   6.342
92935SOL    HW280703   1.502   7.059   6.317
92936SOL     OW80704  14.436  10.907  11.524
92936SOL    HW180705  14.430  10.992  11.568
92936SOL    HW280706  14.345  10.882  11.507
92937SOL     OW80707   2.733  12.399  13.225
92937SOL    HW180708   2.655  12.371  13.273
92937SOL    HW280709   2.802  12.403  13.291
92938SOL     OW80710   0.409  10.823   2.624
92938SOL    HW180711   0.375  10.897   2.675
92938SOL    HW280712   0.503  10.822   2.642
92939SOL     OW80713   6.767   2.690   5.572
92939SOL    HW180714   6.766   2.726   5.661
92939SOL    HW280715   6.784   2.765   5.516
92940SOL     OW80716   5.607   4.031   6.017
92940SOL    HW180717   5.522   4.056   6.052
92940SOL    HW280718   5.669   4.090   6.058
92941SOL     OW80719   0.493   9.812   3.727
92941SOL    HW180720   0.470   9.784   3.639
92941SOL    HW280721   0.573   9.863   3.716
92942SOL     OW80722   1.596  12.114   7.604
92942SOL    HW180723   1.542  12.190   7.581
92942SOL    HW280724   1.646  12.144   7.680
92943SOL     OW80725   7.561   4.715   6.709
92943SOL    HW180726   7.541   4.806   6.730
92943SOL    HW280727   7.602   4.719   6.623
92944SOL     OW80728   9.100   8.092   5.416
92944SOL    HW180729   9.136   8.111   5.503
92944SOL    HW280730   9.031   8.028   5.432
92945SOL     OW80731  12.516   4.299  14.539
92945SOL    HW180732  12.532   4.297  14.634
92945SOL    HW280733  12.551   4.216  14.507
92946SOL     OW80734   9.362   7.494   1.842
92946SOL    HW180735   9.373   7.476   1.935
92946SOL    HW280736   9.285   7.550   1.837
92947SOL     OW80737   2.403   0.770  11.354
92947SOL    HW180738   2.313   0.761  11.325
92947SOL    HW280739   2.406   0.857  11.395
92948SOL     OW80740   9.097  11.085   7.117
92948SOL    HW180741   9.003  11.104   7.117
92948SOL    HW280742   9.116  11.059   7.207
92949SOL     OW80743   4.050   0.077   6.223
92949SOL    HW180744   4.048   0.078   6.318
92949SOL    HW280745   4.139   0.103   6.200
92950SOL     OW80746  12.330  12.895  12.846
92950SOL    HW180747  12.306  12.843  12.922
92950SOL    HW280748  12.409  12.853  12.812
92951SOL     OW80749  13.394   8.643   1.615
92951SOL    HW180750  13.420   8.622   1.525
92951SOL    HW280751  13.343   8.567   1.643
92952SOL     OW80752   6.629   3.810   2.438
92952SOL    HW180753   6.625   3.873   2.509
92952SOL    HW280754   6.715   3.824   2.398
92953SOL     OW80755  13.264   4.844  13.754
92953SOL    HW180756  13.358   4.859  13.746
92953SOL    HW280757  13.225   4.931  13.748
92954SOL     OW80758   2.958   5.979   8.015
92954SOL    HW180759   2.887   5.916   8.028
92954SOL    HW280760   2.917   6.053   7.971
92955SOL     OW80761   6.089   2.741   4.523
92955SOL    HW180762   6.009   2.759   4.573
92955SOL    HW280763   6.160   2.756   4.585
92956SOL     OW80764   6.094   9.233  11.831
92956SOL    HW180765   6.023   9.230  11.766
92956SOL    HW280766   6.079   9.314  11.879
92957SOL     OW80767   2.501  11.280   8.256
92957SOL    HW180768   2.441  11.323   8.194
92957SOL    HW280769   2.480  11.319   8.341
92958SOL     OW80770  13.312  10.794  12.276
92958SOL    HW180771  13.248  10.812  12.345
92958SOL    HW280772  13.333  10.702  12.286
92959SOL     OW80773  13.891   4.776   0.075
92959SOL    HW180774  13.972   4.819   0.101
92959SOL    HW280775  13.849   4.750   0.157
92960SOL     OW80776  13.412   5.349   2.232
92960SOL    HW180777  13.376   5.401   2.159
92960SOL    HW280778  13.425   5.413   2.302
92961SOL     OW80779   2.758  11.836   6.887
92961SOL    HW180780   2.668  11.828   6.854
92961SOL    HW280781   2.800  11.754   6.862
92962SOL     OW80782   3.238   0.669   3.739
92962SOL    HW180783   3.323   0.670   3.784
92962SOL    HW280784   3.253   0.615   3.662
92963SOL     OW80785   0.858   4.071  10.096
92963SOL    HW180786   0.923   4.112  10.153
92963SOL    HW280787   0.890   3.982  10.084
92964SOL     OW80788  11.337  13.747  12.556
92964SOL    HW180789  11.365  13.837  12.539
92964SOL    HW280790  11.390  13.694  12.497
92965SOL     OW80791  13.033   8.650   1.635
92965SOL    HW180792  13.058   8.733   1.595
92965SOL    HW280793  13.113   8.619   1.678
92966SOL     OW80794  11.212   6.421  12.879
92966SOL    HW180795  11.259   6.392  12.958
92966SOL    HW280796  11.196   6.340  12.831
92967SOL     OW80797   6.907   8.555   6.167
92967SOL    HW180798   6.890   8.529   6.258
92967SOL    HW280799   6.869   8.485   6.114
92968SOL     OW80800  13.447  11.818  11.596
92968SOL    HW180801  13.424  11.906  11.567
92968SOL    HW280802  13.446  11.824  11.692
92969SOL     OW80803   5.352  11.028   5.428
92969SOL    HW180804   5.346  11.063   5.517
92969SOL    HW280805   5.440  11.051   5.399
92970SOL     OW80806   7.227  11.077   0.914
92970SOL    HW180807   7.320  11.088   0.895
92970SOL    HW280808   7.224  11.004   0.976
92971SOL     OW80809   4.529  13.831  11.522
92971SOL    HW180810   4.540  13.877  11.605
92971SOL    HW280811   4.617  13.826  11.485
92972SOL     OW80812   7.104  11.255   1.780
92972SOL    HW180813   7.188  11.274   1.822
92972SOL    HW280814   7.099  11.159   1.780
92973SOL     OW80815   9.407   9.596   7.942
92973SOL    HW180816   9.471   9.528   7.923
92973SOL    HW280817   9.443   9.643   8.017
92974SOL     OW80818   6.102  12.796   2.114
92974SOL    HW180819   6.190  12.835   2.114
92974SOL    HW280820   6.043  12.869   2.101
92975SOL     OW80821   2.826   6.453   0.071
92975SOL    HW180822   2.757   6.457   0.005
92975SOL    HW280823   2.789   6.498   0.147
92976SOL     OW80824   2.706   5.068   2.833
92976SOL    HW180825   2.686   5.076   2.740
92976SOL    HW280826   2.662   5.143   2.873
92977SOL     OW80827   8.695  12.074   3.014
92977SOL    HW180828   8.726  12.141   2.954
92977SOL    HW280829   8.764  12.008   3.015
92978SOL     OW80830   4.517  11.502  11.232
92978SOL    HW180831   4.428  11.536  11.241
92978SOL    HW280832   4.571  11.579  11.213
92979SOL     OW80833  12.801   9.240   5.626
92979SOL    HW180834  12.896   9.250   5.637
92979SOL    HW280835  12.779   9.300   5.555
92980SOL     OW80836   9.430   4.953   7.273
92980SOL    HW180837   9.356   4.976   7.217
92980SOL    HW280838   9.493   4.914   7.213
92981SOL     OW80839  14.694  11.462   7.956
92981SOL    HW180840  14.743  11.398   7.905
92981SOL    HW280841  14.614  11.416   7.982
92982SOL     OW80842  12.595  13.957   8.397
92982SOL    HW180843  12.551  13.921   8.320
92982SOL    HW280844  12.671  14.003   8.362
92983SOL     OW80845   7.345  10.663  11.583
92983SOL    HW180846   7.338  10.652  11.488
92983SOL    HW280847   7.330  10.757  11.596
92984SOL     OW80848   2.382   1.159   7.993
92984SOL    HW180849   2.437   1.179   8.069
92984SOL    HW280850   2.444   1.156   7.920
92985SOL     OW80851   1.030  12.863  13.733
92985SOL    HW180852   1.007  12.948  13.772
92985SOL    HW280853   1.003  12.799  13.799
92986SOL     OW80854   5.976  11.889   6.900
92986SOL    HW180855   6.008  11.833   6.830
92986SOL    HW280856   6.032  11.967   6.897
92987SOL     OW80857   4.178  11.901   3.136
92987SOL    HW180858   4.204  11.959   3.207
92987SOL    HW280859   4.097  11.860   3.167
92988SOL     OW80860   6.953  13.746   6.293
92988SOL    HW180861   7.020  13.678   6.286
92988SOL    HW280862   6.987  13.806   6.359
92989SOL     OW80863   6.735   2.333   1.591
92989SOL    HW180864   6.736   2.247   1.549
92989SOL    HW280865   6.795   2.325   1.664
92990SOL     OW80866  11.736  10.909   8.526
92990SOL    HW180867  11.772  10.900   8.438
92990SOL    HW280868  11.709  11.000   8.532
92991SOL     OW80869   7.436  11.241   2.159
92991SOL    HW180870   7.416  11.334   2.145
92991SOL    HW280871   7.519  11.242   2.206
92992SOL     OW80872   1.816  14.595   6.190
92992SOL    HW180873   1.724  14.619   6.194
92992SOL    HW280874   1.858  14.648   6.258
92993SOL     OW80875   3.079   7.214  11.581
92993SOL    HW180876   3.106   7.265  11.658
92993SOL    HW280877   3.137   7.246  11.511
92994SOL     OW80878   9.765   1.345   6.475
92994SOL    HW180879   9.683   1.356   6.427
92994SOL    HW280880   9.817   1.422   6.453
92995SOL     OW80881   9.664   6.325   9.905
92995SOL    HW180882   9.678   6.237   9.868
92995SOL    HW280883   9.688   6.316   9.997
92996SOL     OW80884   2.879   0.938   0.713
92996SOL    HW180885   2.799   0.898   0.747
92996SOL    HW280886   2.884   1.023   0.756
92997SOL     OW80887   2.092   3.095   8.211
92997SOL    HW180888   2.061   3.174   8.168
92997SOL    HW280889   2.149   3.053   8.146
92998SOL     OW80890  13.924   9.816   8.849
92998SOL    HW180891  13.990   9.881   8.873
92998SOL    HW280892  13.970   9.732   8.859
92999SOL     OW80893   4.043  10.778   0.647
92999SOL    HW180894   4.003  10.784   0.734
92999SOL    HW280895   4.039  10.867   0.613
93000SOL     OW80896   3.685   0.448  11.563
93000SOL    HW180897   3.728   0.424  11.481
93000SOL    HW280898   3.687   0.544  11.564
93001SOL     OW80899   2.052  12.994  11.093
93001SOL    HW180900   1.998  12.920  11.121
93001SOL    HW280901   2.126  12.994  11.154
93002SOL     OW80902  13.884  13.660  12.548
93002SOL    HW180903  13.895  13.746  12.508
93002SOL    HW280904  13.863  13.678  12.639
93003SOL     OW80905   2.514   4.291  11.859
93003SOL    HW180906   2.433   4.241  11.848
93003SOL    HW280907   2.498   4.374  11.814
93004SOL     OW80908   6.660  10.654  11.255
93004SOL    HW180909   6.593  10.586  11.248
93004SOL    HW280910   6.666  10.673  11.349
93005SOL     OW80911   9.918   5.504  14.744
93005SOL    HW180912   9.907   5.593  14.709
93005SOL    HW280913   9.999   5.509  14.796
93006SOL     OW80914   4.727   3.322   9.061
93006SOL    HW180915   4.658   3.306   9.125
93006SOL    HW280916   4.701   3.270   8.985
93007SOL     OW80917   8.179   5.541   2.012
93007SOL    HW180918   8.126   5.472   2.051
93007SOL    HW280919   8.216   5.588   2.086
93008SOL     OW80920   7.391   9.695  14.194
93008SOL    HW180921   7.330   9.714  14.122
93008SOL    HW280922   7.417   9.781  14.226
93009SOL     OW80923  12.193   8.223   7.586
93009SOL    HW180924  12.232   8.239   7.671
93009SOL    HW280925  12.099   8.222   7.602
93010SOL     OW80926   6.839   5.013   2.069
93010SOL    HW180927   6.781   5.036   1.996
93010SOL    HW280928   6.811   4.925   2.095
93011SOL     OW80929   0.544   7.093   3.034
93011SOL    HW180930   0.561   7.153   2.961
93011SOL    HW280931   0.551   7.006   2.996
93012SOL     OW80932   5.636   7.454   6.821
93012SOL    HW180933   5.656   7.506   6.742
93012SOL    HW280934   5.590   7.515   6.878
93013SOL     OW80935   2.867   4.859  11.405
93013SOL    HW180936   2.959   4.866  11.379
93013SOL    HW280937   2.823   4.824  11.327
93014SOL     OW80938  10.487  13.444   2.292
93014SOL    HW180939  10.572  13.416   2.326
93014SOL    HW280940  10.488  13.539   2.300
93015SOL     OW80941   0.110   1.384   0.953
93015SOL    HW180942   0.083   1.416   1.039
93015SOL    HW280943   0.042   1.415   0.893
93016SOL     OW80944  14.219   8.650  13.321
93016SOL    HW180945  14.206   8.698  13.402
93016SOL    HW280946  14.310   8.621  13.323
93017SOL     OW80947  13.022  10.470  11.212
93017SOL    HW180948  13.101  10.416  11.223
93017SOL    HW280949  13.054  10.560  11.213
93018SOL     OW80950  12.308  13.944  10.203
93018SOL    HW180951  12.374  14.001  10.164
93018SOL    HW280952  12.356  13.866  10.230
93019SOL     OW80953   1.017   9.768   2.201
93019SOL    HW180954   0.926   9.796   2.203
93019SOL    HW280955   1.016   9.679   2.235
93020SOL     OW80956  12.431  13.550   7.734
93020SOL    HW180957  12.344  13.590   7.746
93020SOL    HW280958  12.456  13.574   7.645
93021SOL     OW80959  12.880   1.666   8.530
93021SOL    HW180960  12.814   1.631   8.469
93021SOL    HW280961  12.949   1.701   8.473
93022SOL     OW80962   8.890   5.798   0.907
93022SOL    HW180963   8.928   5.751   0.833
93022SOL    HW280964   8.950   5.871   0.922
93023SOL     OW80965   5.324   6.736  12.293
93023SOL    HW180966   5.322   6.785  12.211
93023SOL    HW280967   5.235   6.744  12.328
93024SOL     OW80968   7.041  13.363  11.244
93024SOL    HW180969   6.958  13.360  11.195
93024SOL    HW280970   7.049  13.275  11.282
93025SOL     OW80971   8.741  11.127   9.659
93025SOL    HW180972   8.788  11.180   9.595
93025SOL    HW280973   8.671  11.085   9.608
93026SOL     OW80974   3.450  13.198   6.303
93026SOL    HW180975   3.401  13.262   6.354
93026SOL    HW280976   3.441  13.228   6.212
93027SOL     OW80977  11.601   5.090   4.585
93027SOL    HW180978  11.617   5.090   4.679
93027SOL    HW280979  11.682   5.123   4.547
93028SOL     OW80980   1.302   1.311   3.441
93028SOL    HW180981   1.297   1.217   3.460
93028SOL    HW280982   1.241   1.352   3.503
93029SOL     OW80983  10.512  14.612   8.979
93029SOL    HW180984  10.534  14.632   8.888
93029SOL    HW280985  10.591  14.633   9.028
93030SOL     OW80986   2.011   5.925   9.056
93030SOL    HW180987   1.961   5.903   8.977
93030SOL    HW280988   1.950   5.975   9.110
93031SOL     OW80989   8.583   5.245  11.412
93031SOL    HW180990   8.565   5.337  11.395
93031SOL    HW280991   8.677   5.243  11.432
93032SOL     OW80992   7.485  14.665   9.916
93032SOL    HW180993   7.391  14.670   9.933
93032SOL    HW280994   7.521  14.627   9.996
93033SOL     OW80995   9.022   8.864   3.047
93033SOL    HW180996   8.973   8.937   3.010
93033SOL    HW280997   9.102   8.859   2.995
93034SOL     OW80998  12.104   4.986  12.955
93034SOL    HW180999  12.105   4.900  12.998
93034SOL    HW281000  12.047   5.040  13.010
93035SOL     OW81001   8.714   7.222   9.241
93035SOL    HW181002   8.673   7.145   9.280
93035SOL    HW281003   8.651   7.252   9.175
93036SOL     OW81004  14.151  12.122   3.057
93036SOL    HW181005  14.184  12.204   3.021
93036SOL    HW281006  14.138  12.065   2.981
93037SOL     OW81007  11.203  12.265   3.578
93037SOL    HW181008  11.230  12.357   3.575
93037SOL    HW281009  11.194  12.240   3.486
93038SOL     OW81010   0.670  12.239   7.928
93038SOL    HW181011   0.728  12.246   8.004
93038SOL    HW281012   0.589  12.280   7.957
93039SOL     OW81013  13.343   4.990   4.709
93039SOL    HW181014  13.268   4.940   4.743
93039SOL    HW281015  13.404   4.993   4.783
93040SOL     OW81016   2.822   2.422   3.475
93040SOL    HW181017   2.825   2.393   3.384
93040SOL    HW281018   2.887   2.493   3.480
93041SOL     OW81019   1.773   4.585  14.717
93041SOL    HW181020   1.848   4.526  14.712
93041SOL    HW281021   1.773   4.630  14.633
93042SOL     OW81022  12.477   4.575   7.573
93042SOL    HW181023  12.460   4.523   7.494
93042SOL    HW281024  12.452   4.664   7.548
93043SOL     OW81025  14.612   8.962  14.202
93043SOL    HW181026  14.607   9.053  14.173
93043SOL    HW281027  14.602   8.911  14.122
93044SOL     OW81028  13.840   5.330   7.893
93044SOL    HW181029  13.831   5.379   7.811
93044SOL    HW281030  13.921   5.362   7.931
93045SOL     OW81031   4.118  12.186   2.275
93045SOL    HW181032   4.182  12.166   2.343
93045SOL    HW281033   4.137  12.276   2.250
93046SOL     OW81034  12.908   9.153   5.187
93046SOL    HW181035  12.940   9.131   5.274
93046SOL    HW281036  12.855   9.078   5.161
93047SOL     OW81037  11.634   2.118   5.542
93047SOL    HW181038  11.699   2.122   5.472
93047SOL    HW281039  11.577   2.046   5.517
93048SOL     OW81040   5.961  13.413   5.785
93048SOL    HW181041   6.011  13.360   5.848
93048SOL    HW281042   5.953  13.357   5.708
93049SOL     OW81043  14.864   1.919   0.472
93049SOL    HW181044   0.057   1.867   0.477
93049SOL    HW281045  14.875   1.974   0.395
93050SOL     OW81046   3.189   3.475  13.057
93050SOL    HW181047   3.118   3.492  12.995
93050SOL    HW281048   3.223   3.389  13.032
93051SOL     OW81049   5.683  11.591  10.058
93051SOL    HW181050   5.608  11.651  10.061
93051SOL    HW281051   5.643  11.504  10.057
93052SOL     OW81052   6.734   1.965   0.642
93052SOL    HW181053   6.697   2.050   0.617
93052SOL    HW281054   6.804   1.987   0.704
93053SOL     OW81055   9.899   3.978  10.459
93053SOL    HW181056   9.935   4.004  10.374
93053SOL    HW281057   9.860   3.892  10.443
93054SOL     OW81058   9.202  11.976   1.320
93054SOL    HW181059   9.110  11.997   1.303
93054SOL    HW281060   9.249  12.057   1.300
93055SOL     OW81061   6.450  13.031   7.162
93055SOL    HW181062   6.499  13.015   7.081
93055SOL    HW281063   6.411  12.947   7.184
93056SOL     OW81064  14.322  11.791   5.480
93056SOL    HW181065  14.236  11.824   5.503
93056SOL    HW281066  14.332  11.814   5.387
93057SOL     OW81067  10.914   2.299   9.030
93057SOL    HW181068  10.932   2.297   9.124
93057SOL    HW281069  10.833   2.248   9.020
93058SOL     OW81070   8.054  11.818   4.274
93058SOL    HW181071   8.052  11.746   4.337
93058SOL    HW281072   8.038  11.776   4.189
93059SOL     OW81073   0.625  10.460   1.793
93059SOL    HW181074   0.601  10.415   1.712
93059SOL    HW281075   0.673  10.394   1.844
93060SOL     OW81076  11.795  12.032   5.361
93060SOL    HW181077  11.875  11.985   5.387
93060SOL    HW281078  11.820  12.082   5.284
93061SOL     OW81079   9.498   2.584  12.790
93061SOL    HW181080   9.527   2.572  12.880
93061SOL    HW281081   9.404   2.567  12.793
93062SOL     OW81082   4.748   8.503   1.940
93062SOL    HW181083   4.800   8.496   2.020
93062SOL    HW281084   4.803   8.555   1.881
93063SOL     OW81085   3.466   8.779   3.609
93063SOL    HW181086   3.538   8.830   3.572
93063SOL    HW281087   3.500   8.748   3.693
93064SOL     OW81088   5.167   8.752   9.733
93064SOL    HW181089   5.245   8.805   9.713
93064SOL    HW281090   5.197   8.662   9.725
93065SOL     OW81091  14.773   0.908   2.111
93065SOL    HW181092  14.737   0.997   2.117
93065SOL    HW281093  14.864   0.921   2.085
93066SOL     OW81094   5.634  11.150   5.346
93066SOL    HW181095   5.610  11.101   5.267
93066SOL    HW281096   5.722  11.181   5.329
93067SOL     OW81097  12.095   8.192   6.708
93067SOL    HW181098  12.119   8.284   6.718
93067SOL    HW281099  12.021   8.193   6.647
93068SOL     OW81100  10.558  13.684   3.822
93068SOL    HW181101  10.471  13.657   3.849
93068SOL    HW281102  10.551  13.699   3.728
93069SOL     OW81103   1.463   3.099  13.217
93069SOL    HW181104   1.493   3.014  13.249
93069SOL    HW281105   1.386   3.079  13.165
93070SOL     OW81106   8.828  12.096  10.488
93070SOL    HW181107   8.799  12.073  10.400
93070SOL    HW281108   8.765  12.161  10.518
93071SOL     OW81109   7.433   5.234  11.656
93071SOL    HW181110   7.345   5.263  11.678
93071SOL    HW281111   7.436   5.142  11.684
93072SOL     OW81112   5.393  12.300   3.082
93072SOL    HW181113   5.349  12.256   3.155
93072SOL    HW281114   5.376  12.243   3.007
93073SOL     OW81115   1.218   7.662   6.566
93073SOL    HW181116   1.138   7.611   6.583
93073SOL    HW281117   1.244   7.636   6.477
93074SOL     OW81118   9.222   3.444   5.479
93074SOL    HW181119   9.254   3.509   5.418
93074SOL    HW281120   9.193   3.494   5.555
93075SOL     OW81121   0.088   1.636   0.258
93075SOL    HW181122   0.079   1.657   0.165
93075SOL    HW281123   0.145   1.704   0.293
93076SOL     OW81124  12.580   2.971   2.862
93076SOL    HW181125  12.501   3.018   2.836
93076SOL    HW281126  12.649   3.037   2.859
93077SOL     OW81127   8.446   0.408  11.588
93077SOL    HW181128   8.407   0.481  11.634
93077SOL    HW281129   8.442   0.433  11.495
93078SOL     OW81130   0.798   2.381   4.831
93078SOL    HW181131   0.805   2.287   4.851
93078SOL    HW281132   0.802   2.385   4.736
93079SOL     OW81133   2.033   4.409  10.167
93079SOL    HW181134   1.981   4.486  10.145
93079SOL    HW281135   2.122   4.431  10.140
93080SOL     OW81136  12.718   1.478   3.993
93080SOL    HW181137  12.770   1.491   3.914
93080SOL    HW281138  12.781   1.453   4.060
93081SOL     OW81139   5.924   8.941   1.828
93081SOL    HW181140   5.943   8.905   1.915
93081SOL    HW281141   5.860   9.010   1.844
93082SOL     OW81142   5.357  13.805   2.673
93082SOL    HW181143   5.391  13.727   2.631
93082SOL    HW281144   5.422  13.873   2.655
93083SOL     OW81145  10.603   7.026   4.590
93083SOL    HW181146  10.586   6.933   4.605
93083SOL    HW281147  10.617   7.063   4.677
93084SOL     OW81148   6.244   4.090   1.809
93084SOL    HW181149   6.243   4.022   1.742
93084SOL    HW281150   6.152   4.111   1.823
93085SOL     OW81151  14.183  11.699   9.692
93085SOL    HW181152  14.164  11.669   9.781
93085SOL    HW281153  14.097  11.723   9.657
93086SOL     OW81154   4.129   2.452   0.941
93086SOL    HW181155   4.183   2.389   0.893
93086SOL    HW281156   4.110   2.520   0.877
93087SOL     OW81157   9.713   4.539   3.755
93087SOL    HW181158   9.628   4.517   3.793
93087SOL    HW281159   9.772   4.469   3.785
93088SOL     OW81160   6.785   3.983   7.460
93088SOL    HW181161   6.823   4.055   7.510
93088SOL    HW281162   6.766   4.020   7.374
93089SOL     OW81163  14.775  14.682   5.283
93089SOL    HW181164  14.838  14.750   5.259
93089SOL    HW281165  14.814  14.600   5.253
93090SOL     OW81166   4.345   7.144   4.656
93090SOL    HW181167   4.433   7.115   4.677
93090SOL    HW281168   4.289   7.102   4.721
93091SOL     OW81169  13.891   2.892   9.584
93091SOL    HW181170  13.798   2.880   9.602
93091SOL    HW281171  13.910   2.831   9.513
93092SOL     OW81172  12.356  13.435   4.723
93092SOL    HW181173  12.430  13.483   4.761
93092SOL    HW281174  12.374  13.344   4.745
93093SOL     OW81175   2.162   2.443   3.428
93093SOL    HW181176   2.113   2.362   3.442
93093SOL    HW281177   2.232   2.440   3.492
93094SOL     OW81178  13.976   3.456   3.520
93094SOL    HW181179  14.057   3.407   3.526
93094SOL    HW281180  14.000   3.536   3.472
93095SOL     OW81181  12.399   8.646   3.304
93095SOL    HW181182  12.464   8.598   3.354
93095SOL    HW281183  12.323   8.589   3.302
93096SOL     OW81184   6.927   0.201  13.629
93096SOL    HW181185   6.878   0.283  13.627
93096SOL    HW281186   6.931   0.178  13.722
93097SOL     OW81187   7.458   2.695  11.162
93097SOL    HW181188   7.496   2.623  11.213
93097SOL    HW281189   7.495   2.685  11.075
93098SOL     OW81190   7.692   9.746   4.891
93098SOL    HW181191   7.738   9.740   4.975
93098SOL    HW281192   7.762   9.748   4.826
93099SOL     OW81193  13.676   7.864  11.126
93099SOL    HW181194  13.761   7.897  11.097
93099SOL    HW281195  13.674   7.773  11.096
93100SOL     OW81196  12.125   0.812   8.617
93100SOL    HW181197  12.195   0.878   8.612
93100SOL    HW281198  12.085   0.827   8.702
93101SOL     OW81199  11.789   9.108  11.845
93101SOL    HW181200  11.817   9.125  11.756
93101SOL    HW281201  11.800   9.014  11.856
93102SOL     OW81202   4.357   3.580   4.332
93102SOL    HW181203   4.357   3.645   4.402
93102SOL    HW281204   4.387   3.499   4.375
93103SOL     OW81205   6.207   7.812  12.852
93103SOL    HW181206   6.126   7.783  12.810
93103SOL    HW281207   6.207   7.907  12.840
93104SOL     OW81208   9.220  11.359  13.868
93104SOL    HW181209   9.128  11.337  13.886
93104SOL    HW281210   9.270  11.290  13.912
93105SOL     OW81211   1.783   2.485   7.505
93105SOL    HW181212   1.729   2.564   7.510
93105SOL    HW281213   1.726   2.414   7.533
93106SOL     OW81214   0.481   1.193   2.045
93106SOL    HW181215   0.470   1.281   2.082
93106SOL    HW281216   0.425   1.137   2.099
93107SOL     OW81217  14.102   6.474   1.858
93107SOL    HW181218  14.135   6.384   1.859
93107SOL    HW281219  14.181   6.528   1.860
93108SOL     OW81220   6.927  12.008   8.366
93108SOL    HW181221   6.883  11.983   8.285
93108SOL    HW281222   6.999  12.064   8.338
93109SOL     OW81223  13.296   9.494  14.753
93109SOL    HW181224  13.336   9.579  14.773
93109SOL    HW281225  13.202   9.509  14.764
93110SOL     OW81226   3.675  10.919   8.643
93110SOL    HW181227   3.696  10.991   8.583
93110SOL    HW281228   3.675  10.841   8.588
93111SOL     OW81229   5.141   9.846  13.638
93111SOL    HW181230   5.111   9.921  13.690
93111SOL    HW281231   5.120   9.770  13.692
93112SOL     OW81232   5.400   1.334   5.674
93112SOL    HW181233   5.477   1.279   5.678
93112SOL    HW281234   5.434   1.423   5.664
93113SOL     OW81235   7.564  14.279   4.394
93113SOL    HW181236   7.523  14.252   4.312
93113SOL    HW281237   7.634  14.339   4.368
93114SOL     OW81238   9.462   5.584   3.831
93114SOL    HW181239   9.534   5.619   3.884
93114SOL    HW281240   9.402   5.658   3.819
93115SOL     OW81241  10.390   5.040   9.715
93115SOL    HW181242  10.420   5.129   9.701
93115SOL    HW281243  10.377   5.033   9.810
93116SOL     OW81244  11.721   7.455  10.508
93116SOL    HW181245  11.650   7.438  10.570
93116SOL    HW281246  11.679   7.505  10.437
93117SOL     OW81247   7.842  11.281   6.275
93117SOL    HW181248   7.890  11.206   6.310
93117SOL    HW281249   7.902  11.320   6.211
93118SOL     OW81250  11.393  13.258   9.483
93118SOL    HW181251  11.344  13.269   9.565
93118SOL    HW281252  11.329  13.221   9.422
93119SOL     OW81253  14.611   9.184  11.726
93119SOL    HW181254  14.641   9.095  11.712
93119SOL    HW281255  14.521   9.185  11.694
93120SOL     OW81256  14.138  11.565  10.818
93120SOL    HW181257  14.136  11.582  10.723
93120SOL    HW281258  14.101  11.477  10.827
93121SOL     OW81259   1.283  13.771   0.197
93121SOL    HW181260   1.252  13.846   0.146
93121SOL    HW281261   1.215  13.705   0.187
93122SOL     OW81262   5.546   3.679   3.386
93122SOL    HW181263   5.592   3.612   3.436
93122SOL    HW281264   5.616   3.728   3.342
93123SOL     OW81265  14.225   5.360   3.121
93123SOL    HW181266  14.263   5.447   3.134
93123SOL    HW281267  14.150   5.375   3.064
93124SOL     OW81268   9.746  10.390   6.526
93124SOL    HW181269   9.789  10.463   6.571
93124SOL    HW281270   9.658  10.423   6.507
93125SOL     OW81271   7.249  10.131  12.426
93125SOL    HW181272   7.263  10.084  12.508
93125SOL    HW281273   7.274  10.221  12.445
93126SOL     OW81274   6.202   5.375   4.264
93126SOL    HW181275   6.253   5.323   4.326
93126SOL    HW281276   6.121   5.394   4.310
93127SOL     OW81277  10.797   2.874  12.208
93127SOL    HW181278  10.760   2.889  12.121
93127SOL    HW281279  10.890   2.860  12.192
93128SOL     OW81280  12.147   2.479  12.745
93128SOL    HW181281  12.138   2.546  12.678
93128SOL    HW281282  12.068   2.426  12.736
93129SOL     OW81283   3.934   9.062  11.624
93129SOL    HW181284   3.926   9.106  11.708
93129SOL    HW281285   3.900   9.125  11.560
93130SOL     OW81286   4.976  10.626   5.332
93130SOL    HW181287   4.964  10.540   5.372
93130SOL    HW281288   4.969  10.688   5.405
93131SOL     OW81289   5.124   0.258   0.901
93131SOL    HW181290   5.049   0.198   0.907
93131SOL    HW281291   5.097   0.336   0.949
93132SOL     OW81292   0.683   5.271   2.154
93132SOL    HW181293   0.686   5.245   2.246
93132SOL    HW281294   0.753   5.221   2.112
93133SOL     OW81295  11.939   5.142  12.695
93133SOL    HW181296  12.013   5.091  12.727
93133SOL    HW281297  11.966   5.233  12.704
93134SOL     OW81298  10.187   1.050   9.316
93134SOL    HW181299  10.278   1.060   9.289
93134SOL    HW281300  10.137   1.047   9.234
93135SOL     OW81301  13.718   3.974   0.418
93135SOL    HW181302  13.739   3.963   0.326
93135SOL    HW281303  13.779   3.917   0.464
93136SOL     OW81304  12.380  12.093   2.928
93136SOL    HW181305  12.418  12.005   2.930
93136SOL    HW281306  12.287  12.080   2.941
93137SOL     OW81307   5.293   3.550  10.465
93137SOL    HW181308   5.236   3.476  10.444
93137SOL    HW281309   5.259   3.622  10.412
93138SOL     OW81310   0.207   2.842  11.453
93138SOL    HW181311   0.121   2.882  11.465
93138SOL    HW281312   0.240   2.828  11.541
93139SOL     OW81313   3.550   5.710   9.711
93139SOL    HW181314   3.566   5.677   9.799
93139SOL    HW281315   3.637   5.718   9.671
93140SOL     OW81316   8.183  11.359   3.828
93140SOL    HW181317   8.162  11.267   3.808
93140SOL    HW281318   8.110  11.389   3.882
93141SOL     OW81319   6.543   8.777  14.296
93141SOL    HW181320   6.624   8.732  14.274
93141SOL    HW281321   6.558   8.814  14.383
93142SOL     OW81322   5.953  11.412   9.880
93142SOL    HW181323   5.913  11.329   9.852
93142SOL    HW281324   6.042  11.409   9.846
93143SOL     OW81325   9.812  12.967  13.467
93143SOL    HW181326   9.855  12.932  13.389
93143SOL    HW281327   9.843  12.910  13.538
93144SOL     OW81328   2.094   6.212   8.219
93144SOL    HW181329   2.103   6.142   8.284
93144SOL    HW281330   2.184   6.238   8.199
93145SOL     OW81331   0.200  14.837  13.281
93145SOL    HW181332   0.192  14.845  13.186
93145SOL    HW281333   0.138  14.768  13.305
93146SOL     OW81334   1.907   9.236  14.401
93146SOL    HW181335   1.826   9.197  14.432
93146SOL    HW281336   1.889   9.330  14.399
93147SOL     OW81337   5.026   7.451  13.373
93147SOL    HW181338   5.108   7.474  13.330
93147SOL    HW281339   5.021   7.355  13.366
93148SOL     OW81340  10.750   7.309   7.610
93148SOL    HW181341  10.779   7.388   7.564
93148SOL    HW281342  10.659   7.297   7.581
93149SOL     OW81343   8.378   3.976   2.560
93149SOL    HW181344   8.376   3.881   2.571
93149SOL    HW281345   8.468   3.994   2.530
93150SOL     OW81346   9.423   5.866  11.546
93150SOL    HW181347   9.489   5.930  11.573
93150SOL    HW281348   9.344   5.891  11.593
93151SOL     OW81349   5.713  12.793   0.986
93151SOL    HW181350   5.757  12.878   0.982
93151SOL    HW281351   5.686  12.775   0.896
93152SOL     OW81352   3.335   7.407   6.782
93152SOL    HW181353   3.389   7.397   6.703
93152SOL    HW281354   3.386   7.463   6.839
93153SOL     OW81355  11.681  13.823   0.261
93153SOL    HW181356  11.714  13.890   0.322
93153SOL    HW281357  11.587  13.818   0.280
93154SOL     OW81358   7.376   7.383  12.276
93154SOL    HW181359   7.341   7.322  12.211
93154SOL    HW281360   7.335   7.356  12.358
93155SOL     OW81361  11.122   6.920   1.661
93155SOL    HW181362  11.153   6.978   1.591
93155SOL    HW281363  11.178   6.942   1.736
93156SOL     OW81364   4.270   4.880   3.156
93156SOL    HW181365   4.243   4.940   3.087
93156SOL    HW281366   4.208   4.895   3.227
93157SOL     OW81367   1.149  12.354   0.906
93157SOL    HW181368   1.065  12.313   0.888
93157SOL    HW281369   1.136  12.400   0.989
93158SOL     OW81370  10.825  13.223  14.683
93158SOL    HW181371  10.766  13.286  14.642
93158SOL    HW281372  10.908  13.235  14.636
93159SOL     OW81373   3.843   2.827  13.196
93159SOL    HW181374   3.897   2.885  13.143
93159SOL    HW281375   3.761   2.820  13.148
93160SOL     OW81376  11.025   9.724   4.303
93160SOL    HW181377  10.974   9.799   4.331
93160SOL    HW281378  11.116   9.749   4.319
93161SOL     OW81379   0.780  13.235  10.105
93161SOL    HW181380   0.692  13.201  10.123
93161SOL    HW281381   0.806  13.279  10.185
93162SOL     OW81382  13.595   1.506  10.152
93162SOL    HW181383  13.504   1.529  10.171
93162SOL    HW281384  13.645   1.547  10.222
93163SOL     OW81385  12.870   8.458   5.730
93163SOL    HW181386  12.942   8.440   5.669
93163SOL    HW281387  12.833   8.541   5.699
93164SOL     OW81388   0.243   0.368   0.225
93164SOL    HW181389   0.176   0.300   0.222
93164SOL    HW281390   0.232   0.417   0.143
93165SOL     OW81391   3.522   8.362   4.601
93165SOL    HW181392   3.431   8.348   4.629
93165SOL    HW281393   3.571   8.370   4.683
93166SOL     OW81394   3.285  14.019   6.363
93166SOL    HW181395   3.332  14.050   6.286
93166SOL    HW281396   3.347  14.029   6.435
93167SOL     OW81397  11.631   5.112   5.277
93167SOL    HW181398  11.686   5.186   5.302
93167SOL    HW281399  11.591   5.138   5.193
93168SOL     OW81400   3.249  12.949   4.520
93168SOL    HW181401   3.229  13.026   4.573
93168SOL    HW281402   3.253  12.982   4.430
93169SOL     OW81403   8.513   5.564   0.821
93169SOL    HW181404   8.542   5.475   0.840
93169SOL    HW281405   8.450   5.584   0.891
93170SOL     OW81406   0.294   7.955   7.133
93170SOL    HW181407   0.271   7.864   7.152
93170SOL    HW281408   0.295   7.998   7.218
93171SOL     OW81409  10.167  10.850   2.369
93171SOL    HW181410  10.141  10.786   2.435
93171SOL    HW281411  10.212  10.919   2.418
93172SOL     OW81412   7.433   1.972   0.782
93172SOL    HW181413   7.351   1.944   0.742
93172SOL    HW281414   7.485   2.009   0.710
93173SOL     OW81415   9.331   1.917   9.814
93173SOL    HW181416   9.265   1.971   9.771
93173SOL    HW281417   9.403   1.912   9.751
93174SOL     OW81418   6.351  11.498   1.598
93174SOL    HW181419   6.363  11.553   1.521
93174SOL    HW281420   6.367  11.409   1.567
93175SOL     OW81421   7.480  14.450  10.628
93175SOL    HW181422   7.534  14.512  10.578
93175SOL    HW281423   7.507  14.364  10.597
93176SOL     OW81424   5.172   6.711   1.844
93176SOL    HW181425   5.118   6.636   1.870
93176SOL    HW281426   5.262   6.685   1.867
93177SOL     OW81427   2.069   6.196   4.713
93177SOL    HW181428   2.164   6.203   4.706
93177SOL    HW281429   2.045   6.132   4.646
93178SOL     OW81430   7.751   0.523   9.569
93178SOL    HW181431   7.767   0.447   9.624
93178SOL    HW281432   7.834   0.571   9.569
93179SOL     OW81433   3.302   4.099   9.154
93179SOL    HW181434   3.357   4.045   9.096
93179SOL    HW281435   3.229   4.042   9.178
93180SOL     OW81436   4.991   3.439   0.313
93180SOL    HW181437   4.970   3.495   0.388
93180SOL    HW281438   4.941   3.359   0.328
93181SOL     OW81439   5.824  11.998   1.508
93181SOL    HW181440   5.754  12.060   1.488
93181SOL    HW281441   5.889  12.011   1.440
93182SOL     OW81442   4.645  11.657   0.038
93182SOL    HW181443   4.712  11.662  14.858
93182SOL    HW281444   4.634  11.747   0.068
93183SOL     OW81445   8.690   9.230  14.867
93183SOL    HW181446   8.712   9.153   0.032
93183SOL    HW281447   8.602   9.213  14.834
93184SOL     OW81448   0.353   0.639   6.535
93184SOL    HW181449   0.345   0.570   6.469
93184SOL    HW281450   0.392   0.713   6.488
93185SOL     OW81451  10.066   1.401   6.858
93185SOL    HW181452  10.155   1.380   6.831
93185SOL    HW281453  10.022   1.317   6.864
93186SOL     OW81454   9.424   2.554   8.813
93186SOL    HW181455   9.460   2.642   8.814
93186SOL    HW281456   9.445   2.520   8.727
93187SOL     OW81457   0.051  12.169   2.313
93187SOL    HW181458   0.112  12.116   2.364
93187SOL    HW281459   0.107  12.215   2.250
93188SOL     OW81460   0.711  14.695  13.998
93188SOL    HW181461   0.622  14.703  13.964
93188SOL    HW281462   0.725  14.600  14.005
93189SOL     OW81463   9.738   6.599   2.097
93189SOL    HW181464   9.746   6.630   2.186
93189SOL    HW281465   9.656   6.549   2.097
93190SOL     OW81466  12.022   6.477   8.668
93190SOL    HW181467  12.079   6.489   8.593
93190SOL    HW281468  11.971   6.398   8.648
93191SOL     OW81469   3.746  10.252   0.437
93191SOL    HW181470   3.753  10.157   0.435
93191SOL    HW281471   3.653  10.270   0.421
93192SOL     OW81472   4.227  13.752   4.636
93192SOL    HW181473   4.315  13.787   4.650
93192SOL    HW281474   4.195  13.797   4.558
93193SOL     OW81475   6.783   5.066   6.245
93193SOL    HW181476   6.823   5.150   6.271
93193SOL    HW281477   6.721   5.090   6.176
93194SOL     OW81478  12.363   1.230   2.832
93194SOL    HW181479  12.275   1.248   2.800
93194SOL    HW281480  12.363   1.137   2.853
93195SOL     OW81481  10.192  13.091  11.029
93195SOL    HW181482  10.258  13.159  11.041
93195SOL    HW281483  10.130  13.128  10.967
93196SOL     OW81484  13.030  14.210   9.552
93196SOL    HW181485  13.109  14.171   9.590
93196SOL    HW281486  12.998  14.144   9.490
93197SOL     OW81487   8.832   6.703   5.528
93197SOL    HW181488   8.897   6.743   5.471
93197SOL    HW281489   8.882   6.664   5.599
93198SOL     OW81490  14.101  11.130   3.974
93198SOL    HW181491  14.016  11.171   3.959
93198SOL    HW281492  14.159  11.170   3.909
93199SOL     OW81493   4.792  14.783   4.688
93199SOL    HW181494   4.708  14.799   4.732
93199SOL    HW281495   4.773  14.713   4.626
93200SOL     OW81496  14.837   7.800   2.337
93200SOL    HW181497  14.807   7.711   2.323
93200SOL    HW281498  14.855   7.805   2.431
93201SOL     OW81499   1.846   1.970  10.887
93201SOL    HW181500   1.866   2.063  10.879
93201SOL    HW281501   1.787   1.952  10.813
93202SOL     OW81502  11.791   4.215   9.837
93202SOL    HW181503  11.704   4.219   9.875
93202SOL    HW281504  11.789   4.139   9.779
93203SOL     OW81505   4.537   6.192   7.125
93203SOL    HW181506   4.517   6.152   7.040
93203SOL    HW281507   4.532   6.119   7.187
93204SOL     OW81508  11.106   5.066   5.139
93204SOL    HW181509  11.125   5.009   5.213
93204SOL    HW281510  11.043   5.129   5.172
93205SOL     OW81511   7.385  10.630  12.922
93205SOL    HW181512   7.419  10.699  12.978
93205SOL    HW281513   7.365  10.558  12.982
93206SOL     OW81514  12.804  11.522   3.793
93206SOL    HW181515  12.758  11.439   3.782
93206SOL    HW281516  12.738  11.581   3.830
93207SOL     OW81517   3.107   1.247  10.929
93207SOL    HW181518   3.019   1.215  10.947
93207SOL    HW281519   3.098   1.295  10.846
93208SOL     OW81520   8.589   6.453   2.970
93208SOL    HW181521   8.661   6.510   2.998
93208SOL    HW281522   8.633   6.375   2.935
93209SOL     OW81523  10.625   3.053   0.015
93209SOL    HW181524  10.574   3.133   0.003
93209SOL    HW281525  10.560   2.987   0.039
93210SOL     OW81526   9.968   0.421   3.661
93210SOL    HW181527   9.960   0.408   3.756
93210SOL    HW281528  10.043   0.480   3.652
93211SOL     OW81529   6.416   8.302   6.627
93211SOL    HW181530   6.498   8.321   6.581
93211SOL    HW281531   6.444   8.280   6.716
93212SOL     OW81532   3.852   2.340   4.217
93212SOL    HW181533   3.797   2.414   4.242
93212SOL    HW281534   3.918   2.334   4.286
93213SOL     OW81535   2.784  12.883   0.799
93213SOL    HW181536   2.699  12.864   0.840
93213SOL    HW281537   2.847  12.833   0.850
93214SOL     OW81538  10.551   9.254  11.822
93214SOL    HW181539  10.547   9.347  11.801
93214SOL    HW281540  10.603   9.250  11.903
93215SOL     OW81541   4.056   9.578   5.773
93215SOL    HW181542   4.133   9.623   5.737
93215SOL    HW281543   4.002   9.648   5.810
93216SOL     OW81544  13.774   2.045   3.965
93216SOL    HW181545  13.737   2.059   3.878
93216SOL    HW281546  13.740   1.960   3.993
93217SOL     OW81547  12.061  12.384  10.927
93217SOL    HW181548  12.020  12.466  10.902
93217SOL    HW281549  11.997  12.340  10.983
93218SOL     OW81550   5.506   3.318   5.381
93218SOL    HW181551   5.463   3.282   5.304
93218SOL    HW281552   5.600   3.308   5.363
93219SOL     OW81553   7.500   2.083   0.338
93219SOL    HW181554   7.487   2.042   0.253
93219SOL    HW281555   7.421   2.136   0.351
93220SOL     OW81556  13.892   6.846  14.219
93220SOL    HW181557  13.928   6.916  14.275
93220SOL    HW281558  13.878   6.887  14.134
93221SOL     OW81559   1.567  11.997  12.549
93221SOL    HW181560   1.497  12.027  12.491
93221SOL    HW281561   1.535  11.915  12.585
93222SOL     OW81562   9.455   9.418   4.888
93222SOL    HW181563   9.473   9.392   4.798
93222SOL    HW281564   9.532   9.468   4.914
93223SOL     OW81565   7.496   8.276   8.014
93223SOL    HW181566   7.545   8.280   7.932
93223SOL    HW281567   7.522   8.354   8.062
93224SOL     OW81568  12.370  12.605   9.802
93224SOL    HW181569  12.379  12.516   9.834
93224SOL    HW281570  12.434  12.611   9.731
93225SOL     OW81571   9.320   8.631   0.721
93225SOL    HW181572   9.361   8.712   0.693
93225SOL    HW281573   9.260   8.609   0.649
93226SOL     OW81574   1.904  14.858   8.205
93226SOL    HW181575   1.833  14.795   8.212
93226SOL    HW281576   1.983  14.805   8.197
93227SOL     OW81577  11.628   2.014  12.457
93227SOL    HW181578  11.688   1.940  12.470
93227SOL    HW281579  11.541   1.977  12.466
93228SOL     OW81580  10.547   2.695   1.631
93228SOL    HW181581  10.509   2.634   1.567
93228SOL    HW281582  10.628   2.724   1.589
93229SOL     OW81583  13.286   5.078   9.553
93229SOL    HW181584  13.315   4.987   9.545
93229SOL    HW281585  13.354   5.129   9.507
93230SOL     OW81586   0.464   5.101  11.726
93230SOL    HW181587   0.426   5.173  11.676
93230SOL    HW281588   0.553   5.093  11.692
93231SOL     OW81589   5.593   4.788  14.704
93231SOL    HW181590   5.637   4.775  14.620
93231SOL    HW281591   5.623   4.873  14.734
93232SOL     OW81592   3.798   5.313   9.925
93232SOL    HW181593   3.840   5.288   9.842
93232SOL    HW281594   3.868   5.350   9.978
93233SOL     OW81595   7.721  11.667  13.892
93233SOL    HW181596   7.723  11.573  13.875
93233SOL    HW281597   7.646  11.699  13.842
93234SOL     OW81598  10.313  12.722   3.216
93234SOL    HW181599  10.238  12.665   3.237
93234SOL    HW281600  10.380  12.696   3.279
93235SOL     OW81601   6.813   6.207  12.170
93235SOL    HW181602   6.871   6.133  12.150
93235SOL    HW281603   6.865   6.284  12.148
93236SOL     OW81604  13.814   5.809   1.567
93236SOL    HW181605  13.799   5.900   1.591
93236SOL    HW281606  13.903   5.807   1.533
93237SOL     OW81607   2.035   8.435   9.895
93237SOL    HW181608   1.990   8.371   9.950
93237SOL    HW281609   2.123   8.399   9.883
93238SOL     OW81610   5.719   5.012   3.798
93238SOL    HW181611   5.756   5.007   3.886
93238SOL    HW281612   5.627   4.987   3.809
93239SOL     OW81613  13.144   9.580   8.099
93239SOL    HW181614  13.176   9.605   8.012
93239SOL    HW281615  13.055   9.614   8.103
93240SOL     OW81616   8.503   3.052   4.759
93240SOL    HW181617   8.436   3.007   4.811
93240SOL    HW281618   8.482   3.030   4.669
93241SOL     OW81619   4.808  11.409   0.165
93241SOL    HW181620   4.830  11.368   0.081
93241SOL    HW281621   4.734  11.467   0.144
93242SOL     OW81622  10.211   4.068  14.035
93242SOL    HW181623  10.256   3.985  14.048
93242SOL    HW281624  10.232   4.119  14.114
93243SOL     OW81625   2.458   2.361  10.225
93243SOL    HW181626   2.526   2.337  10.288
93243SOL    HW281627   2.499   2.350  10.140
93244SOL     OW81628  14.203   0.369  12.259
93244SOL    HW181629  14.230   0.348  12.169
93244SOL    HW281630  14.232   0.460  12.271
93245SOL     OW81631   9.689   1.601   9.332
93245SOL    HW181632   9.758   1.665   9.342
93245SOL    HW281633   9.726   1.533   9.276
93246SOL     OW81634  11.934  14.266   2.639
93246SOL    HW181635  11.938  14.293   2.547
93246SOL    HW281636  12.007  14.204   2.649
93247SOL     OW81637   7.902   8.330   8.076
93247SOL    HW181638   7.866   8.347   8.164
93247SOL    HW281639   7.834   8.362   8.016
93248SOL     OW81640   9.935   4.228   4.320
93248SOL    HW181641   9.888   4.308   4.296
93248SOL    HW281642   9.937   4.176   4.240
93249SOL     OW81643  11.039  14.830   2.756
93249SOL    HW181644  11.044  14.748   2.706
93249SOL    HW281645  11.081  14.809   2.840
93250SOL     OW81646   0.018   1.555  12.475
93250SOL    HW181647  14.876   1.636  12.517
93250SOL    HW281648  14.853   1.486  12.515
93251SOL     OW81649   1.432  12.635  11.277
93251SOL    HW181650   1.377  12.714  11.277
93251SOL    HW281651   1.383  12.573  11.224
93252SOL     OW81652  10.420   2.032   8.336
93252SOL    HW181653  10.514   2.022   8.354
93252SOL    HW281654  10.412   2.020   8.242
93253SOL     OW81655   9.962   4.251   2.373
93253SOL    HW181656  10.056   4.270   2.376
93253SOL    HW281657   9.947   4.220   2.284
93254SOL     OW81658   0.963   9.860   6.143
93254SOL    HW181659   0.947   9.893   6.054
93254SOL    HW281660   1.031   9.918   6.177
93255SOL     OW81661   4.089   9.065   9.637
93255SOL    HW181662   4.162   9.125   9.622
93255SOL    HW281663   4.114   9.016   9.715
93256SOL     OW81664   5.602   8.366   0.886
93256SOL    HW181665   5.515   8.358   0.927
93256SOL    HW281666   5.650   8.426   0.942
93257SOL     OW81667   3.387  14.173  14.799
93257SOL    HW181668   3.473  14.146  14.833
93257SOL    HW281669   3.380  14.266  14.822
93258SOL     OW81670  12.159   2.712  12.339
93258SOL    HW181671  12.112   2.647  12.287
93258SOL    HW281672  12.224   2.661  12.388
93259SOL     OW81673   7.100  13.721   4.881
93259SOL    HW181674   7.137  13.655   4.822
93259SOL    HW281675   7.067  13.789   4.823
93260SOL     OW81676   1.347   5.570   0.507
93260SOL    HW181677   1.283   5.500   0.511
93260SOL    HW281678   1.319   5.625   0.433
93261SOL     OW81679   5.370   7.167   2.515
93261SOL    HW181680   5.290   7.197   2.558
93261SOL    HW281681   5.434   7.159   2.586
93262SOL     OW81682   8.206   0.292   2.068
93262SOL    HW181683   8.205   0.340   1.985
93262SOL    HW281684   8.207   0.361   2.135
93263SOL     OW81685   0.330  12.415   0.639
93263SOL    HW181686   0.373  12.363   0.571
93263SOL    HW281687   0.295  12.349   0.700
93264SOL     OW81688  14.502   4.790   2.213
93264SOL    HW181689  14.439   4.787   2.285
93264SOL    HW281690  14.449   4.797   2.134
93265SOL     OW81691   9.457  12.805  13.438
93265SOL    HW181692   9.544  12.832  13.409
93265SOL    HW281693   9.400  12.878  13.414
93266SOL     OW81694  10.604  12.681  13.904
93266SOL    HW181695  10.590  12.613  13.839
93266SOL    HW281696  10.519  12.725  13.912
93267SOL     OW81697  11.167   1.282   3.084
93267SOL    HW181698  11.250   1.320   3.115
93267SOL    HW281699  11.102   1.348   3.107
93268SOL     OW81700  12.506   9.402   8.417
93268SOL    HW181701  12.591   9.402   8.374
93268SOL    HW281702  12.486   9.309   8.430
93269SOL     OW81703   6.774   0.604  10.045
93269SOL    HW181704   6.733   0.523  10.013
93269SOL    HW281705   6.719   0.674  10.010
93270SOL     OW81706  10.603   0.293  14.165
93270SOL    HW181707  10.652   0.211  14.161
93270SOL    HW281708  10.532   0.282  14.102
93271SOL     OW81709   0.217   5.012  12.363
93271SOL    HW181710   0.282   5.013  12.293
93271SOL    HW281711   0.259   4.965  12.435
93272SOL     OW81712   4.995   8.287  12.732
93272SOL    HW181713   4.969   8.352  12.798
93272SOL    HW281714   4.932   8.300  12.661
93273SOL     OW81715  10.345  12.634   5.432
93273SOL    HW181716  10.322  12.555   5.385
93273SOL    HW281717  10.342  12.609   5.524
93274SOL     OW81718  12.811   4.355   5.230
93274SOL    HW181719  12.777   4.278   5.276
93274SOL    HW281720  12.819   4.422   5.297
93275SOL     OW81721   5.225  11.879  10.414
93275SOL    HW181722   5.290  11.817  10.380
93275SOL    HW281723   5.274  11.934  10.475
93276SOL     OW81724  11.697  10.609  13.245
93276SOL    HW181725  11.766  10.630  13.308
93276SOL    HW281726  11.664  10.524  13.273
93277SOL     OW81727   0.019   8.824   4.102
93277SOL    HW181728  14.812   8.819   4.090
93277SOL    HW281729   0.036   8.917   4.118
93278SOL     OW81730   0.876  13.069   4.628
93278SOL    HW181731   0.969  13.089   4.618
93278SOL    HW281732   0.841  13.071   4.539
93279SOL     OW81733   0.092   0.537   0.378
93279SOL    HW181734   0.165   0.481   0.352
93279SOL    HW281735   0.079   0.596   0.304
93280SOL     OW81736   4.974   8.533   3.079
93280SOL    HW181737   4.946   8.453   3.123
93280SOL    HW281738   4.983   8.508   2.987
93281SOL     OW81739  10.905   1.942  13.925
93281SOL    HW181740  10.899   2.009  13.857
93281SOL    HW281741  10.821   1.947  13.971
93282SOL     OW81742   3.478   0.377   4.098
93282SOL    HW181743   3.451   0.326   4.175
93282SOL    HW281744   3.513   0.458   4.135
93283SOL     OW81745   1.384  11.013   7.880
93283SOL    HW181746   1.426  11.056   7.954
93283SOL    HW281747   1.408  10.920   7.890
93284SOL     OW81748  11.565  13.830   5.109
93284SOL    HW181749  11.470  13.828   5.122
93284SOL    HW281750  11.576  13.846   5.015
93285SOL     OW81751  10.041   4.995  13.301
93285SOL    HW181752  10.030   5.057  13.374
93285SOL    HW281753   9.953   4.983  13.267
93286SOL     OW81754   9.825  11.471  10.735
93286SOL    HW181755   9.738  11.442  10.705
93286SOL    HW281756   9.813  11.488  10.829
93287SOL     OW81757   9.362  14.772  14.061
93287SOL    HW181758   9.363  14.700  14.124
93287SOL    HW281759   9.367  14.729  13.976
93288SOL     OW81760   0.240  12.544   6.039
93288SOL    HW181761   0.239  12.627   5.992
93288SOL    HW281762   0.173  12.491   5.996
93289SOL     OW81763  14.871   2.524   5.643
93289SOL    HW181764  14.830   2.506   5.728
93289SOL    HW281765  14.846   2.450   5.588
93290SOL     OW81766   7.395   3.173   0.864
93290SOL    HW181767   7.441   3.126   0.934
93290SOL    HW281768   7.311   3.129   0.856
93291SOL     OW81769   8.763   4.107   3.082
93291SOL    HW181770   8.673   4.086   3.108
93291SOL    HW281771   8.816   4.034   3.117
93292SOL     OW81772   1.763   9.717   6.739
93292SOL    HW181773   1.824   9.782   6.774
93292SOL    HW281774   1.719   9.682   6.816
93293SOL     OW81775  14.111   0.467   7.562
93293SOL    HW181776  14.129   0.398   7.498
93293SOL    HW281777  14.182   0.530   7.550
93294SOL     OW81778   3.096   4.644   3.120
93294SOL    HW181779   3.073   4.736   3.136
93294SOL    HW281780   3.045   4.620   3.043
93295SOL     OW81781  10.777  13.635  14.471
93295SOL    HW181782  10.705  13.698  14.477
93295SOL    HW281783  10.816  13.652  14.385
93296SOL     OW81784   5.316   7.835  14.572
93296SOL    HW181785   5.237   7.850  14.520
93296SOL    HW281786   5.376   7.789  14.513
93297SOL     OW81787   0.910   9.497   0.186
93297SOL    HW181788   0.877   9.412   0.216
93297SOL    HW281789   0.928   9.545   0.266
93298SOL     OW81790  11.927   2.497   2.858
93298SOL    HW181791  11.872   2.466   2.786
93298SOL    HW281792  11.865   2.536   2.920
93299SOL     OW81793   1.862  13.237   4.942
93299SOL    HW181794   1.813  13.155   4.944
93299SOL    HW281795   1.880  13.257   5.034
93300SOL     OW81796   9.006   8.367  11.632
93300SOL    HW181797   8.936   8.428  11.607
93300SOL    HW281798   8.973   8.324  11.711
93301SOL     OW81799   7.170   4.143   1.107
93301SOL    HW181800   7.116   4.116   1.181
93301SOL    HW281801   7.191   4.235   1.124
93302SOL     OW81802   5.756  11.438  11.743
93302SOL    HW181803   5.771  11.347  11.770
93302SOL    HW281804   5.695  11.430  11.669
93303SOL     OW81805  14.399   1.386   8.162
93303SOL    HW181806  14.492   1.368   8.173
93303SOL    HW281807  14.375   1.339   8.082
93304SOL     OW81808   5.636  11.125   4.679
93304SOL    HW181809   5.686  11.047   4.702
93304SOL    HW281810   5.549  11.092   4.656
93305SOL     OW81811  12.165   1.053   8.154
93305SOL    HW181812  12.075   1.074   8.181
93305SOL    HW281813  12.157   0.969   8.108
93306SOL     OW81814  10.150   7.731   1.928
93306SOL    HW181815  10.146   7.801   1.863
93306SOL    HW281816  10.226   7.751   1.982
93307SOL     OW81817   2.537   3.927   1.050
93307SOL    HW181818   2.611   3.926   0.989
93307SOL    HW281819   2.562   3.866   1.120
93308SOL     OW81820   5.250   5.170  10.918
93308SOL    HW181821   5.256   5.245  10.859
93308SOL    HW281822   5.187   5.196  10.984
93309SOL     OW81823   9.963  12.578   5.199
93309SOL    HW181824   9.971  12.553   5.291
93309SOL    HW281825   9.924  12.502   5.157
93310SOL     OW81826   1.615   7.284  13.191
93310SOL    HW181827   1.585   7.199  13.158
93310SOL    HW281828   1.535   7.336  13.200
93311SOL     OW81829  13.910   9.057   1.729
93311SOL    HW181830  13.952   9.130   1.772
93311SOL    HW281831  13.977   8.989   1.725
93312SOL     OW81832  10.401   0.683   4.225
93312SOL    HW181833  10.376   0.664   4.316
93312SOL    HW281834  10.496   0.678   4.225
93313SOL     OW81835   0.063  10.910  14.436
93313SOL    HW181836   0.042  10.971  14.506
93313SOL    HW281837   0.029  10.826  14.467
93314SOL     OW81838  12.339  14.392   5.218
93314SOL    HW181839  12.392  14.396   5.297
93314SOL    HW281840  12.262  14.446   5.238
93315SOL     OW81841  13.306   0.439   7.777
93315SOL    HW181842  13.276   0.351   7.756
93315SOL    HW281843  13.239   0.474   7.836
93316SOL     OW81844   0.028   0.045   2.680
93316SOL    HW181845  14.872   0.003   2.606
93316SOL    HW281846   0.119   0.017   2.673
93317SOL     OW81847   8.844  10.832   1.374
93317SOL    HW181848   8.802  10.850   1.289
93317SOL    HW281849   8.869  10.918   1.407
93318SOL     OW81850   4.220   5.940  14.125
93318SOL    HW181851   4.211   5.846  14.106
93318SOL    HW281852   4.175   5.984  14.053
93319SOL     OW81853   7.279   7.129  14.459
93319SOL    HW181854   7.320   7.061  14.406
93319SOL    HW281855   7.308   7.211  14.420
93320SOL     OW81856   4.631   6.209   1.214
93320SOL    HW181857   4.605   6.136   1.269
93320SOL    HW281858   4.711   6.179   1.170
93321SOL     OW81859   3.999   3.581   6.655
93321SOL    HW181860   3.910   3.548   6.645
93321SOL    HW281861   3.998   3.632   6.736
93322SOL     OW81862  14.037   6.193   0.358
93322SOL    HW181863  14.106   6.134   0.388
93322SOL    HW281864  14.020   6.166   0.268
93323SOL     OW81865  13.147   5.351  12.347
93323SOL    HW181866  13.166   5.445  12.340
93323SOL    HW281867  13.069   5.339  12.293
93324SOL     OW81868  10.893   6.968   4.729
93324SOL    HW181869  10.902   7.063   4.739
93324SOL    HW281870  10.813   6.957   4.676
93325SOL     OW81871  10.161  11.477   0.206
93325SOL    HW181872  10.174  11.395   0.157
93325SOL    HW281873  10.150  11.449   0.297
93326SOL     OW81874   8.519  10.940  12.759
93326SOL    HW181875   8.542  11.033  12.748
93326SOL    HW281876   8.474  10.917  12.677
93327SOL     OW81877   7.843   5.346   3.366
93327SOL    HW181878   7.805   5.269   3.408
93327SOL    HW281879   7.808   5.420   3.415
93328SOL     OW81880   5.058   7.338   4.129
93328SOL    HW181881   5.093   7.376   4.210
93328SOL    HW281882   4.974   7.301   4.155
93329SOL     OW81883   6.522  14.058  11.949
93329SOL    HW181884   6.545  13.966  11.957
93329SOL    HW281885   6.530  14.093  12.038
93330SOL     OW81886   0.887   9.773  12.317
93330SOL    HW181887   0.979   9.768  12.345
93330SOL    HW281888   0.837   9.771  12.398
93331SOL     OW81889   3.893   4.121  13.621
93331SOL    HW181890   3.839   4.191  13.585
93331SOL    HW281891   3.951   4.165  13.682
93332SOL     OW81892   5.214  13.217   0.551
93332SOL    HW181893   5.289  13.260   0.508
93332SOL    HW281894   5.246  13.196   0.639
93333SOL     OW81895   0.580   4.491   9.057
93333SOL    HW181896   0.614   4.566   9.105
93333SOL    HW281897   0.489   4.482   9.086
93334SOL     OW81898   8.940   6.760   3.557
93334SOL    HW181899   8.924   6.726   3.645
93334SOL    HW281900   8.965   6.851   3.571
93335SOL     OW81901   3.181   3.186  12.392
93335SOL    HW181902   3.107   3.240  12.362
93335SOL    HW281903   3.234   3.246  12.445
93336SOL     OW81904   1.963   3.446  10.161
93336SOL    HW181905   1.868   3.432  10.153
93336SOL    HW281906   1.992   3.466  10.073
93337SOL     OW81907   1.936  10.555   0.196
93337SOL    HW181908   1.887  10.629   0.233
93337SOL    HW281909   2.010  10.595   0.151
93338SOL     OW81910  10.227   3.413   1.632
93338SOL    HW181911  10.247   3.350   1.701
93338SOL    HW281912  10.263   3.496   1.664
93339SOL     OW81913   3.828   9.171   5.744
93339SOL    HW181914   3.757   9.128   5.791
93339SOL    HW281915   3.904   9.115   5.756
93340SOL     OW81916   0.168  13.610  11.391
93340SOL    HW181917   0.089  13.647  11.351
93340SOL    HW281918   0.176  13.523  11.352
93341SOL     OW81919   0.275   4.036   4.551
93341SOL    HW181920   0.292   3.942   4.543
93341SOL    HW281921   0.278   4.053   4.645
93342SOL     OW81922   8.691   0.812  10.945
93342SOL    HW181923   8.621   0.751  10.922
93342SOL    HW281924   8.772   0.764  10.925
93343SOL     OW81925  12.859   0.100   5.327
93343SOL    HW181926  12.866   0.074   5.418
93343SOL    HW281927  12.945   0.083   5.290
93344SOL     OW81928   9.387  11.645   6.923
93344SOL    HW181929   9.411  11.728   6.882
93344SOL    HW281930   9.373  11.586   6.849
93345SOL     OW81931   2.086   4.916   9.746
93345SOL    HW181932   2.167   4.899   9.794
93345SOL    HW281933   2.052   4.996   9.785
93346SOL     OW81934   3.542   2.219   7.631
93346SOL    HW181935   3.588   2.180   7.705
93346SOL    HW281936   3.496   2.146   7.590
93347SOL     OW81937   3.402   4.901   2.328
93347SOL    HW181938   3.429   4.809   2.321
93347SOL    HW281939   3.484   4.949   2.336
93348SOL     OW81940   4.099   8.352   2.446
93348SOL    HW181941   4.012   8.385   2.469
93348SOL    HW281942   4.146   8.349   2.529
93349SOL     OW81943   9.674  10.406   4.714
93349SOL    HW181944   9.636  10.353   4.785
93349SOL    HW281945   9.630  10.490   4.721
93350SOL     OW81946   3.945  14.756  10.183
93350SOL    HW181947   4.001  14.828  10.152
93350SOL    HW281948   3.978  14.737  10.271
93351SOL     OW81949   6.272   6.446   7.056
93351SOL    HW181950   6.222   6.526   7.070
93351SOL    HW281951   6.225   6.380   7.107
93352SOL     OW81952   0.692  14.181  10.920
93352SOL    HW181953   0.621  14.188  10.856
93352SOL    HW281954   0.753  14.249  10.895
93353SOL     OW81955   5.543   2.431   5.537
93353SOL    HW181956   5.623   2.384   5.562
93353SOL    HW281957   5.571   2.523   5.531
93354SOL     OW81958   1.623  12.437   7.533
93354SOL    HW181959   1.714  12.428   7.506
93354SOL    HW281960   1.628  12.476   7.620
93355SOL     OW81961  12.870   4.812  13.475
93355SOL    HW181962  12.937   4.877  13.495
93355SOL    HW281963  12.920   4.733  13.452
93356SOL     OW81964   4.755   5.348  10.331
93356SOL    HW181965   4.665   5.370  10.306
93356SOL    HW281966   4.774   5.403  10.407
93357SOL     OW81967   1.882   3.824   3.623
93357SOL    HW181968   1.914   3.740   3.654
93357SOL    HW281969   1.819   3.852   3.690
93358SOL     OW81970   2.120  11.331   4.135
93358SOL    HW181971   2.107  11.335   4.230
93358SOL    HW281972   2.168  11.411   4.114
93359SOL     OW81973  10.064   9.955   6.166
93359SOL    HW181974  10.070   9.931   6.258
93359SOL    HW281975  10.150   9.993   6.146
93360SOL     OW81976   7.169  12.246  10.705
93360SOL    HW181977   7.080  12.210  10.707
93360SOL    HW281978   7.158  12.338  10.728
93361SOL     OW81979   5.261  14.299   9.054
93361SOL    HW181980   5.303  14.222   9.090
93361SOL    HW281981   5.172  14.296   9.087
93362SOL     OW81982   5.131  10.544   1.230
93362SOL    HW181983   5.154  10.577   1.317
93362SOL    HW281984   5.035  10.544   1.229
93363SOL     OW81985  10.687   3.263   7.703
93363SOL    HW181986  10.722   3.346   7.736
93363SOL    HW281987  10.753   3.198   7.726
93364SOL     OW81988   2.858   2.893   2.023
93364SOL    HW181989   2.788   2.839   2.058
93364SOL    HW281990   2.888   2.846   1.945
93365SOL     OW81991   2.930  11.190   7.948
93365SOL    HW181992   2.851  11.236   7.919
93365SOL    HW281993   2.985  11.184   7.870
93366SOL     OW81994  11.075  11.400  10.270
93366SOL    HW181995  11.090  11.459  10.196
93366SOL    HW281996  10.984  11.372  10.259
93367SOL     OW81997   3.733  10.235   9.490
93367SOL    HW181998   3.827  10.219   9.484
93367SOL    HW281999   3.701  10.172   9.554
93368SOL     OW82000  11.896  12.433   3.864
93368SOL    HW182001  11.845  12.399   3.937
93368SOL    HW282002  11.901  12.527   3.879
93369SOL     OW82003  12.491  12.693   5.411
93369SOL    HW182004  12.550  12.618   5.401
93369SOL    HW282005  12.408  12.664   5.376
93370SOL     OW82006   0.165  12.780   2.210
93370SOL    HW182007   0.111  12.839   2.157
93370SOL    HW282008   0.158  12.695   2.166
93371SOL     OW82009  11.482   9.883   1.172
93371SOL    HW182010  11.485   9.814   1.239
93371SOL    HW282011  11.437   9.842   1.098
93372SOL     OW82012   3.098   6.055   6.518
93372SOL    HW182013   3.098   6.150   6.529
93372SOL    HW282014   3.181   6.026   6.553
93373SOL     OW82015   8.670   8.158  10.995
93373SOL    HW182016   8.641   8.161  10.904
93373SOL    HW282017   8.762   8.184  10.991
93374SOL     OW82018   7.197   7.995   1.192
93374SOL    HW182019   7.290   8.015   1.202
93374SOL    HW282020   7.152   8.073   1.224
93375SOL     OW82021  14.440   5.188  14.613
93375SOL    HW182022  14.475   5.271  14.580
93375SOL    HW282023  14.345   5.200  14.610
93376SOL     OW82024  14.068  14.479   7.182
93376SOL    HW182025  14.086  14.413   7.249
93376SOL    HW282026  14.019  14.432   7.114
93377SOL     OW82027  13.619   6.355   3.509
93377SOL    HW182028  13.682   6.307   3.563
93377SOL    HW282029  13.672   6.421   3.464
93378SOL     OW82030   0.649   2.904   9.915
93378SOL    HW182031   0.597   2.977   9.881
93378SOL    HW282032   0.669   2.929  10.005
93379SOL     OW82033  13.155   2.149   6.645
93379SOL    HW182034  13.215   2.169   6.717
93379SOL    HW282035  13.069   2.171   6.679
93380SOL     OW82036   3.188  10.233  12.808
93380SOL    HW182037   3.093  10.227  12.823
93380SOL    HW282038   3.218  10.297  12.872
93381SOL     OW82039   7.903   8.622   4.123
93381SOL    HW182040   7.826   8.678   4.132
93381SOL    HW282041   7.963   8.654   4.190
93382SOL     OW82042   1.372   2.378   5.140
93382SOL    HW182043   1.366   2.313   5.070
93382SOL    HW282044   1.426   2.447   5.104
93383SOL     OW82045  11.989  14.222   6.589
93383SOL    HW182046  12.082  14.203   6.599
93383SOL    HW282047  11.972  14.212   6.495
93384SOL     OW82048   2.667   1.832  12.828
93384SOL    HW182049   2.608   1.874  12.890
93384SOL    HW282050   2.653   1.879  12.745
93385SOL     OW82051   9.224   7.912   7.502
93385SOL    HW182052   9.161   7.892   7.433
93385SOL    HW282053   9.283   7.836   7.503
93386SOL     OW82054  12.460  12.135   4.338
93386SOL    HW182055  12.499  12.205   4.286
93386SOL    HW282056  12.373  12.124   4.300
93387SOL     OW82057  11.920   9.878   8.515
93387SOL    HW182058  12.001   9.856   8.563
93387SOL    HW282059  11.898   9.798   8.468
93388SOL     OW82060   3.518   9.932   0.692
93388SOL    HW182061   3.451   9.866   0.680
93388SOL    HW282062   3.594   9.898   0.645
93389SOL     OW82063  11.779   7.439  12.293
93389SOL    HW182064  11.740   7.517  12.332
93389SOL    HW282065  11.866   7.469  12.264
93390SOL     OW82066  12.610  11.534  14.876
93390SOL    HW182067  12.596  11.629  14.884
93390SOL    HW282068  12.662  11.525  14.796
93391SOL     OW82069   6.433   0.749   0.279
93391SOL    HW182070   6.399   0.721   0.194
93391SOL    HW282071   6.388   0.692   0.342
93392SOL     OW82072  11.729   3.105   0.493
93392SOL    HW182073  11.659   3.072   0.437
93392SOL    HW282074  11.793   3.141   0.431
93393SOL     OW82075   8.901  13.003   5.007
93393SOL    HW182076   8.895  12.956   4.923
93393SOL    HW282077   8.944  12.940   5.066
93394SOL     OW82078   2.908   8.766  12.560
93394SOL    HW182079   2.832   8.753  12.616
93394SOL    HW282080   2.981   8.781  12.621
93395SOL     OW82081  13.724   2.589  10.482
93395SOL    HW182082  13.629   2.605  10.485
93395SOL    HW282083  13.739   2.557  10.393
93396SOL     OW82084  10.694   3.762   6.243
93396SOL    HW182085  10.705   3.771   6.338
93396SOL    HW282086  10.608   3.801   6.225
93397SOL     OW82087   2.864  11.215   4.842
93397SOL    HW182088   2.911  11.253   4.917
93397SOL    HW282089   2.774  11.247   4.852
93398SOL     OW82090   4.305   9.023   0.815
93398SOL    HW182091   4.329   8.931   0.816
93398SOL    HW282092   4.254   9.037   0.895
93399SOL     OW82093   6.891   7.684  12.911
93399SOL    HW182094   6.823   7.718  12.969
93399SOL    HW282095   6.874   7.726  12.826
93400SOL     OW82096   0.908  11.019   3.599
93400SOL    HW182097   0.934  10.939   3.552
93400SOL    HW282098   0.856  11.068   3.535
93401SOL     OW82099   9.392   6.863   8.622
93401SOL    HW182100   9.457   6.812   8.670
93401SOL    HW282101   9.443   6.922   8.567
93402SOL     OW82102   1.380   9.581  14.786
93402SOL    HW182103   1.307   9.535  14.827
93402SOL    HW282104   1.364   9.674  14.806
93403SOL     OW82105   5.762  13.494  14.176
93403SOL    HW182106   5.797  13.500  14.087
93403SOL    HW282107   5.727  13.581  14.194
93404SOL     OW82108  12.355  12.949  10.485
93404SOL    HW182109  12.345  12.941  10.580
93404SOL    HW282110  12.277  12.997  10.456
93405SOL     OW82111   1.127  13.722  14.508
93405SOL    HW182112   1.154  13.694  14.595
93405SOL    HW282113   1.131  13.643  14.454
93406SOL     OW82114   8.702  14.138   0.170
93406SOL    HW182115   8.729  14.047   0.186
93406SOL    HW282116   8.775  14.177   0.123
93407SOL     OW82117   9.286   3.660   5.699
93407SOL    HW182118   9.338   3.700   5.629
93407SOL    HW282119   9.319   3.700   5.779
93408SOL     OW82120   8.839   0.998   0.537
93408SOL    HW182121   8.865   0.941   0.609
93408SOL    HW282122   8.905   1.067   0.536
93409SOL     OW82123   9.576   9.012  13.997
93409SOL    HW182124   9.662   8.995  13.957
93409SOL    HW282125   9.529   8.929  13.989
93410SOL     OW82126   0.745   6.310   1.280
93410SOL    HW182127   0.699   6.262   1.211
93410SOL    HW282128   0.819   6.253   1.304
93411SOL     OW82129   1.160   4.971   8.619
93411SOL    HW182130   1.190   5.055   8.653
93411SOL    HW282131   1.082   4.993   8.567
93412SOL     OW82132   5.334   1.335  14.679
93412SOL    HW182133   5.384   1.380  14.611
93412SOL    HW282134   5.341   1.391  14.756
93413SOL     OW82135   6.520   8.215   6.881
93413SOL    HW182136   6.597   8.266   6.906
93413SOL    HW282137   6.489   8.177   6.964
93414SOL     OW82138   4.811   4.973   4.431
93414SOL    HW182139   4.747   4.904   4.415
93414SOL    HW282140   4.802   5.033   4.357
93415SOL     OW82141  12.644   3.723   6.830
93415SOL    HW182142  12.633   3.780   6.754
93415SOL    HW282143  12.566   3.668   6.830
93416SOL     OW82144  13.683   8.749   5.466
93416SOL    HW182145  13.770   8.709   5.470
93416SOL    HW282146  13.701   8.843   5.474
93417SOL     OW82147   1.192   4.144   0.870
93417SOL    HW182148   1.201   4.205   0.797
93417SOL    HW282149   1.234   4.188   0.943
93418SOL     OW82150   0.558   1.226   5.926
93418SOL    HW182151   0.496   1.254   5.859
93418SOL    HW282152   0.506   1.175   5.988
93419SOL     OW82153  10.672   1.874   6.808
93419SOL    HW182154  10.700   1.844   6.722
93419SOL    HW282155  10.578   1.892   6.798
93420SOL     OW82156   4.993   0.573   9.420
93420SOL    HW182157   5.071   0.569   9.476
93420SOL    HW282158   4.934   0.632   9.467
93421SOL     OW82159   7.494   6.166   8.232
93421SOL    HW182160   7.519   6.210   8.151
93421SOL    HW282161   7.458   6.235   8.288
93422SOL     OW82162  12.538  13.218   1.380
93422SOL    HW182163  12.504  13.308   1.382
93422SOL    HW282164  12.494  13.177   1.305
93423SOL     OW82165  10.656   4.357  10.026
93423SOL    HW182166  10.639   4.423   9.958
93423SOL    HW282167  10.691   4.407  10.100
93424SOL     OW82168  12.045   6.424   7.690
93424SOL    HW182169  12.118   6.455   7.744
93424SOL    HW282170  12.016   6.344   7.734
93425SOL     OW82171   7.146  11.005   8.593
93425SOL    HW182172   7.070  11.025   8.538
93425SOL    HW282173   7.110  10.995   8.681
93426SOL     OW82174   7.501   3.019   0.630
93426SOL    HW182175   7.460   3.031   0.715
93426SOL    HW282176   7.563   3.091   0.622
93427SOL     OW82177   3.978   5.836   8.265
93427SOL    HW182178   4.069   5.826   8.293
93427SOL    HW282179   3.958   5.755   8.219
93428SOL     OW82180   7.160   3.232  14.542
93428SOL    HW182181   7.250   3.207  14.562
93428SOL    HW282182   7.145   3.311  14.593
93429SOL     OW82183  13.728  14.144   4.965
93429SOL    HW182184  13.681  14.221   4.932
93429SOL    HW282185  13.751  14.168   5.055
93430SOL     OW82186  13.702   5.168  14.419
93430SOL    HW182187  13.705   5.080  14.457
93430SOL    HW282188  13.610   5.180  14.395
93431SOL     OW82189  11.702   1.083   5.118
93431SOL    HW182190  11.770   1.059   5.181
93431SOL    HW282191  11.731   1.167   5.082
93432SOL     OW82192  10.525  11.396   3.830
93432SOL    HW182193  10.509  11.304   3.810
93432SOL    HW282194  10.564  11.432   3.750
93433SOL     OW82195  11.704   7.779  13.720
93433SOL    HW182196  11.625   7.770  13.667
93433SOL    HW282197  11.776   7.758  13.659
93434SOL     OW82198   7.865  10.757  10.723
93434SOL    HW182199   7.780  10.715  10.741
93434SOL    HW282200   7.861  10.778  10.630
93435SOL     OW82201  14.570  11.091   4.132
93435SOL    HW182202  14.481  11.094   4.166
93435SOL    HW282203  14.560  11.072   4.039
93436SOL     OW82204   6.323   8.315   5.879
93436SOL    HW182205   6.356   8.320   5.789
93436SOL    HW282206   6.288   8.402   5.897
93437SOL     OW82207   0.556   4.537   1.738
93437SOL    HW182208   0.646   4.569   1.749
93437SOL    HW282209   0.524   4.584   1.661
93438SOL     OW82210   5.079  14.149   1.024
93438SOL    HW182211   5.116  14.078   1.077
93438SOL    HW282212   5.056  14.217   1.087
93439SOL     OW82213  12.902   0.664   7.457
93439SOL    HW182214  12.869   0.747   7.492
93439SOL    HW282215  12.971   0.690   7.396
93440SOL     OW82216  11.486  10.040   2.392
93440SOL    HW182217  11.433  10.113   2.424
93440SOL    HW282218  11.572  10.054   2.434
93441SOL     OW82219   3.535   9.731  11.750
93441SOL    HW182220   3.524   9.636  11.745
93441SOL    HW282221   3.473   9.765  11.686
93442SOL     OW82222   8.297   2.589   0.609
93442SOL    HW182223   8.359   2.612   0.539
93442SOL    HW282224   8.321   2.647   0.682
93443SOL     OW82225   6.466  11.886  10.988
93443SOL    HW182226   6.545  11.933  11.016
93443SOL    HW282227   6.441  11.835  11.065
93444SOL     OW82228  11.635   0.148   9.344
93444SOL    HW182229  11.614   0.060   9.312
93444SOL    HW282230  11.576   0.206   9.296
93445SOL     OW82231   9.391  10.788  14.275
93445SOL    HW182232   9.338  10.725  14.323
93445SOL    HW282233   9.345  10.801  14.193
93446SOL     OW82234   8.937   5.660   3.146
93446SOL    HW182235   8.959   5.578   3.102
93446SOL    HW282236   8.846   5.677   3.122
93447SOL     OW82237  14.154   5.623   3.409
93447SOL    HW182238  14.166   5.533   3.440
93447SOL    HW282239  14.240   5.663   3.415
93448SOL     OW82240   0.011  14.365   2.959
93448SOL    HW182241   0.012  14.271   2.941
93448SOL    HW282242   0.046  14.372   3.048
93449SOL     OW82243  14.078  14.097  11.995
93449SOL    HW182244  14.141  14.029  11.972
93449SOL    HW282245  14.123  14.180  11.978
93450SOL     OW82246   0.335  12.791  13.155
93450SOL    HW182247   0.262  12.832  13.203
93450SOL    HW282248   0.411  12.804  13.212
93451SOL     OW82249  13.631  11.646  11.963
93451SOL    HW182250  13.598  11.557  11.970
93451SOL    HW282251  13.669  11.650  11.875
93452SOL     OW82252   4.102   1.811   5.120
93452SOL    HW182253   4.053   1.856   5.051
93452SOL    HW282254   4.135   1.731   5.079
93453SOL     OW82255   5.057  13.116   8.611
93453SOL    HW182256   5.123  13.091   8.675
93453SOL    HW282257   4.976  13.122   8.661
93454SOL     OW82258   0.690  11.262  11.075
93454SOL    HW182259   0.782  11.276  11.053
93454SOL    HW282260   0.678  11.307  11.159
93455SOL     OW82261  14.444   4.727   9.962
93455SOL    HW182262  14.492   4.708  10.043
93455SOL    HW282263  14.383   4.796   9.986
93456SOL     OW82264   0.929  14.480   5.956
93456SOL    HW182265   0.849  14.525   5.982
93456SOL    HW282266   0.938  14.409   6.019
93457SOL     OW82267   3.088   1.247  12.060
93457SOL    HW182268   3.163   1.218  12.111
93457SOL    HW282269   3.027   1.283  12.125
93458SOL     OW82270  10.640   8.732   6.977
93458SOL    HW182271  10.594   8.706   6.897
93458SOL    HW282272  10.710   8.790   6.947
93459SOL     OW82273   7.186   3.872   9.955
93459SOL    HW182274   7.212   3.951   9.907
93459SOL    HW282275   7.255   3.809   9.936
93460SOL     OW82276  12.400  11.510   7.359
93460SOL    HW182277  12.445  11.520   7.442
93460SOL    HW282278  12.377  11.417   7.355
93461SOL     OW82279   4.394  12.576  12.202
93461SOL    HW182280   4.313  12.604  12.160
93461SOL    HW282281   4.390  12.480  12.201
93462SOL     OW82282   9.459  12.143   9.532
93462SOL    HW182283   9.489  12.224   9.574
93462SOL    HW282284   9.496  12.073   9.585
93463SOL     OW82285   2.772   8.466  10.908
93463SOL    HW182286   2.865   8.473  10.929
93463SOL    HW282287   2.727   8.502  10.985
93464SOL     OW82288  12.816   9.359   0.383
93464SOL    HW182289  12.899   9.328   0.346
93464SOL    HW282290  12.836   9.377   0.475
93465SOL     OW82291  13.182   9.859   2.920
93465SOL    HW182292  13.277   9.860   2.908
93465SOL    HW282293  13.158   9.952   2.929
93466SOL     OW82294   2.662   5.606   0.584
93466SOL    HW182295   2.587   5.548   0.581
93466SOL    HW282296   2.641   5.676   0.522
93467SOL     OW82297   2.614   7.623   6.086
93467SOL    HW182298   2.596   7.568   6.162
93467SOL    HW282299   2.536   7.678   6.078
93468SOL     OW82300  13.294   9.773   8.230
93468SOL    HW182301  13.261   9.792   8.318
93468SOL    HW282302  13.246   9.694   8.204
93469SOL     OW82303  11.813   4.803  13.898
93469SOL    HW182304  11.858   4.866  13.954
93469SOL    HW282305  11.777   4.856  13.826
93470SOL     OW82306   6.180   0.940   2.286
93470SOL    HW182307   6.196   0.980   2.372
93470SOL    HW282308   6.092   0.901   2.294
93471SOL     OW82309   7.708  12.419   4.214
93471SOL    HW182310   7.646  12.393   4.282
93471SOL    HW282311   7.753  12.338   4.190
93472SOL     OW82312   8.154   6.772  12.012
93472SOL    HW182313   8.220   6.744  11.949
93472SOL    HW282314   8.157   6.706  12.081
93473SOL     OW82315   8.838   4.715   6.145
93473SOL    HW182316   8.843   4.621   6.164
93473SOL    HW282317   8.792   4.752   6.221
93474SOL     OW82318   2.690   1.589   5.426
93474SOL    HW182319   2.640   1.521   5.471
93474SOL    HW282320   2.651   1.592   5.338
93475SOL     OW82321   4.140  12.011   5.291
93475SOL    HW182322   4.191  11.962   5.227
93475SOL    HW282323   4.202  12.033   5.360
93476SOL     OW82324   2.640   5.248   8.804
93476SOL    HW182325   2.635   5.282   8.893
93476SOL    HW282326   2.550   5.248   8.773
93477SOL     OW82327  12.703   1.294   5.318
93477SOL    HW182328  12.668   1.268   5.233
93477SOL    HW282329  12.648   1.367   5.345
93478SOL     OW82330   5.684   8.443  12.494
93478SOL    HW182331   5.733   8.371  12.454
93478SOL    HW282332   5.699   8.517  12.435
93479SOL     OW82333   4.987  11.202  12.248
93479SOL    HW182334   5.058  11.262  12.226
93479SOL    HW282335   4.985  11.202  12.343
93480SOL     OW82336  12.208   9.308   0.648
93480SOL    HW182337  12.269   9.259   0.592
93480SOL    HW282338  12.230   9.400   0.633
93481SOL     OW82339   3.380   8.269   2.236
93481SOL    HW182340   3.410   8.227   2.317
93481SOL    HW282341   3.447   8.336   2.218
93482SOL     OW82342  11.466  12.333   7.935
93482SOL    HW182343  11.375  12.340   7.908
93482SOL    HW282344  11.466  12.355   8.028
93483SOL     OW82345  10.625  11.537  11.994
93483SOL    HW182346  10.562  11.608  11.982
93483SOL    HW282347  10.595  11.469  11.934
93484SOL     OW82348   1.278   5.916   0.393
93484SOL    HW182349   1.190   5.952   0.403
93484SOL    HW282350   1.273   5.860   0.316
93485SOL     OW82351  14.077   0.350   4.500
93485SOL    HW182352  14.082   0.368   4.594
93485SOL    HW282353  14.121   0.266   4.489
93486SOL     OW82354   9.982   9.260  13.850
93486SOL    HW182355  10.042   9.320  13.893
93486SOL    HW282356   9.896   9.301  13.859
93487SOL     OW82357   1.360   6.064  12.013
93487SOL    HW182358   1.329   6.098  12.097
93487SOL    HW282359   1.455   6.073  12.017
93488SOL     OW82360   0.467   6.792   7.784
93488SOL    HW182361   0.412   6.719   7.755
93488SOL    HW282362   0.447   6.802   7.877
93489SOL     OW82363   3.465   1.749   6.127
93489SOL    HW182364   3.554   1.741   6.094
93489SOL    HW282365   3.438   1.659   6.144
93490SOL     OW82366   7.102   5.594  14.615
93490SOL    HW182367   7.119   5.576  14.707
93490SOL    HW282368   7.096   5.508  14.574
93491SOL     OW82369  12.297  11.528  12.790
93491SOL    HW182370  12.380  11.521  12.743
93491SOL    HW282371  12.321  11.561  12.876
93492SOL     OW82372   1.903   9.167   5.224
93492SOL    HW182373   1.875   9.086   5.182
93492SOL    HW282374   1.969   9.140   5.288
93493SOL     OW82375   3.479   7.038   7.281
93493SOL    HW182376   3.474   7.095   7.204
93493SOL    HW282377   3.448   6.953   7.250
93494SOL     OW82378   7.626   0.208   8.997
93494SOL    HW182379   7.705   0.157   8.979
93494SOL    HW282380   7.657   0.284   9.046
93495SOL     OW82381  12.225   7.263   3.457
93495SOL    HW182382  12.316   7.286   3.473
93495SOL    HW282383  12.178   7.295   3.534
93496SOL     OW82384   5.252   9.614   9.254
93496SOL    HW182385   5.161   9.633   9.231
93496SOL    HW282386   5.260   9.519   9.245
93497SOL     OW82387   8.617  12.636   4.335
93497SOL    HW182388   8.593  12.680   4.254
93497SOL    HW282389   8.708  12.664   4.352
93498SOL     OW82390  13.702   1.519   9.148
93498SOL    HW182391  13.781   1.500   9.098
93498SOL    HW282392  13.711   1.612   9.172
93499SOL     OW82393   4.151   1.634   0.190
93499SOL    HW182394   4.077   1.641   0.130
93499SOL    HW282395   4.117   1.585   0.264
93500SOL     OW82396   0.932   4.203   0.780
93500SOL    HW182397   0.876   4.225   0.854
93500SOL    HW282398   1.009   4.162   0.819
93501SOL     OW82399   3.885  13.051   9.708
93501SOL    HW182400   3.825  13.102   9.762
93501SOL    HW282401   3.960  13.110   9.695
93502SOL     OW82402   4.360  12.650   9.434
93502SOL    HW182403   4.291  12.583   9.438
93502SOL    HW282404   4.404  12.643   9.519
93503SOL     OW82405   0.796   7.104   5.331
93503SOL    HW182406   0.889   7.122   5.346
93503SOL    HW282407   0.769   7.051   5.406
93504SOL     OW82408   4.682   2.101   5.717
93504SOL    HW182409   4.717   2.081   5.804
93504SOL    HW282410   4.755   2.141   5.671
93505SOL     OW82411   8.768   9.922  13.322
93505SOL    HW182412   8.792   9.856  13.387
93505SOL    HW282413   8.737   9.997  13.373
93506SOL     OW82414   7.063   3.337   0.821
93506SOL    HW182415   7.130   3.342   0.890
93506SOL    HW282416   7.087   3.260   0.770
93507SOL     OW82417   1.681  13.130  12.698
93507SOL    HW182418   1.595  13.161  12.726
93507SOL    HW282419   1.741  13.162  12.765
93508SOL     OW82420   4.210   4.313   0.680
93508SOL    HW182421   4.156   4.267   0.616
93508SOL    HW282422   4.281   4.253   0.700
93509SOL     OW82423   0.488  13.735   1.634
93509SOL    HW182424   0.435  13.668   1.678
93509SOL    HW282425   0.441  13.754   1.554
93510SOL     OW82426   8.780   7.428  13.584
93510SOL    HW182427   8.794   7.476  13.665
93510SOL    HW282428   8.782   7.496  13.516
93511SOL     OW82429  12.122  11.583   6.840
93511SOL    HW182430  12.146  11.494   6.815
93511SOL    HW282431  12.076  11.573   6.924
93512SOL     OW82432   5.118   7.890   7.564
93512SOL    HW182433   5.128   7.924   7.476
93512SOL    HW282434   5.207   7.875   7.595
93513SOL     OW82435  13.870   7.996   9.718
93513SOL    HW182436  13.941   8.058   9.736
93513SOL    HW282437  13.851   8.008   9.625
93514SOL     OW82438   7.613   2.257   9.787
93514SOL    HW182439   7.637   2.250   9.695
93514SOL    HW282440   7.533   2.310   9.787
93515SOL     OW82441   6.081   1.443  13.922
93515SOL    HW182442   6.173   1.465  13.908
93515SOL    HW282443   6.038   1.527  13.934
93516SOL     OW82444  12.615   3.256  11.229
93516SOL    HW182445  12.633   3.165  11.208
93516SOL    HW282446  12.665   3.306  11.165
93517SOL     OW82447   7.117   2.933   1.174
93517SOL    HW182448   7.073   3.013   1.201
93517SOL    HW282449   7.211   2.953   1.183
93518SOL     OW82450   8.670  12.435  13.976
93518SOL    HW182451   8.733  12.449  13.906
93518SOL    HW282452   8.709  12.476  14.053
93519SOL     OW82453   6.948   4.890  10.548
93519SOL    HW182454   6.919   4.976  10.580
93519SOL    HW282455   6.877   4.831  10.572
93520SOL     OW82456  11.769   9.451   5.817
93520SOL    HW182457  11.795   9.533   5.858
93520SOL    HW282458  11.828   9.442   5.742
93521SOL     OW82459   4.635   8.238  10.237
93521SOL    HW182460   4.633   8.334  10.233
93521SOL    HW282461   4.630   8.218  10.330
93522SOL     OW82462   4.258  14.615  10.268
93522SOL    HW182463   4.350  14.621  10.291
93522SOL    HW282464   4.215  14.684  10.319
93523SOL     OW82465  13.576   6.773   9.946
93523SOL    HW182466  13.612   6.827   9.876
93523SOL    HW282467  13.644   6.708   9.963
93524SOL     OW82468  14.433   4.200   8.233
93524SOL    HW182469  14.362   4.260   8.255
93524SOL    HW282470  14.513   4.250   8.250
93525SOL     OW82471   6.778  12.942   5.197
93525SOL    HW182472   6.797  13.035   5.186
93525SOL    HW282473   6.824  12.917   5.277
93526SOL     OW82474   1.838  12.192   6.890
93526SOL    HW182475   1.885  12.144   6.959
93526SOL    HW282476   1.777  12.128   6.854
93527SOL     OW82477   2.612  13.778   2.227
93527SOL    HW182478   2.533  13.808   2.182
93527SOL    HW282479   2.584  13.765   2.318
93528SOL     OW82480  10.789   8.996   2.791
93528SOL    HW182481  10.857   9.003   2.724
93528SOL    HW282482  10.808   9.069   2.851
93529SOL     OW82483   4.287  14.110  12.621
93529SOL    HW182484   4.270  14.083  12.711
93529SOL    HW282485   4.286  14.028  12.571
93530SOL     OW82486  14.121  10.998   5.831
93530SOL    HW182487  14.071  11.053   5.892
93530SOL    HW282488  14.069  10.999   5.750
93531SOL     OW82489   4.289  10.530   6.384
93531SOL    HW182490   4.314  10.585   6.309
93531SOL    HW282491   4.364  10.471   6.396
93532SOL     OW82492  11.867   4.750   6.259
93532SOL    HW182493  11.886   4.686   6.327
93532SOL    HW282494  11.792   4.714   6.211
93533SOL     OW82495   1.300  12.142   1.845
93533SOL    HW182496   1.328  12.152   1.754
93533SOL    HW282497   1.226  12.082   1.841
93534SOL     OW82498   4.224   0.441  10.145
93534SOL    HW182499   4.175   0.518  10.172
93534SOL    HW282500   4.296   0.434  10.208
93535SOL     OW82501  10.753  12.092   7.916
93535SOL    HW182502  10.660  12.067   7.919
93535SOL    HW282503  10.771  12.107   7.823
93536SOL     OW82504   1.602  10.477   2.741
93536SOL    HW182505   1.591  10.560   2.693
93536SOL    HW282506   1.564  10.495   2.827
93537SOL     OW82507   3.783  11.870   6.349
93537SOL    HW182508   3.803  11.882   6.256
93537SOL    HW282509   3.857  11.910   6.395
93538SOL     OW82510   6.446   8.729  11.271
93538SOL    HW182511   6.378   8.743  11.337
93538SOL    HW282512   6.516   8.789  11.296
93539SOL     OW82513   3.284  14.665   6.386
93539SOL    HW182514   3.345  14.699   6.452
93539SOL    HW282515   3.213  14.627   6.437
93540SOL     OW82516   7.581   5.470  12.192
93540SOL    HW182517   7.544   5.390  12.156
93540SOL    HW282518   7.535   5.483  12.275
93541SOL     OW82519  14.856  13.679  13.563
93541SOL    HW182520  14.863  13.586  13.541
93541SOL    HW282521  14.762  13.696  13.565
93542SOL     OW82522   9.007   3.520   4.943
93542SOL    HW182523   9.096   3.486   4.951
93542SOL    HW282524   8.961   3.485   5.019
93543SOL     OW82525  10.307   8.754  14.752
93543SOL    HW182526  10.366   8.683  14.777
93543SOL    HW282527  10.222   8.729  14.789
93544SOL     OW82528   7.983  13.471   0.252
93544SOL    HW182529   8.061  13.416   0.244
93544SOL    HW282530   8.010  13.556   0.216
93545SOL     OW82531   0.973   5.633  11.202
93545SOL    HW182532   0.931   5.716  11.225
93545SOL    HW282533   1.062   5.641  11.236
93546SOL     OW82534   5.671  11.319   8.044
93546SOL    HW182535   5.607  11.381   8.007
93546SOL    HW282536   5.681  11.252   7.977
93547SOL     OW82537   3.417   5.506   2.711
93547SOL    HW182538   3.493   5.516   2.654
93547SOL    HW282539   3.378   5.594   2.715
93548SOL     OW82540  12.084   6.861  13.728
93548SOL    HW182541  12.087   6.779  13.678
93548SOL    HW282542  12.161   6.857  13.785
93549SOL     OW82543   7.067  14.190   2.190
93549SOL    HW182544   6.985  14.142   2.200
93549SOL    HW282545   7.122  14.132   2.138
93550SOL     OW82546  14.646   1.778   1.912
93550SOL    HW182547  14.715   1.804   1.851
93550SOL    HW282548  14.592   1.717   1.861
93551SOL     OW82549   3.229   2.361   8.038
93551SOL    HW182550   3.164   2.429   8.018
93551SOL    HW282551   3.283   2.356   7.960
93552SOL     OW82552  11.597  12.383  11.374
93552SOL    HW182553  11.572  12.295  11.347
93552SOL    HW282554  11.673  12.369  11.431
93553SOL     OW82555   2.005   7.396   7.534
93553SOL    HW182556   1.947   7.324   7.510
93553SOL    HW282557   1.983   7.415   7.625
93554SOL     OW82558  12.720   5.170  14.375
93554SOL    HW182559  12.760   5.101  14.322
93554SOL    HW282560  12.780   5.244  14.368
93555SOL     OW82561   0.340   8.917   9.431
93555SOL    HW182562   0.431   8.943   9.445
93555SOL    HW282563   0.343   8.857   9.356
93556SOL     OW82564  13.889  12.875  14.828
93556SOL    HW182565  13.977  12.848  14.803
93556SOL    HW282566  13.844  12.893  14.746
93557SOL     OW82567   8.513  14.060  12.164
93557SOL    HW182568   8.470  13.977  12.147
93557SOL    HW282569   8.441  14.120  12.185
93558SOL     OW82570   3.819   6.318   6.897
93558SOL    HW182571   3.765   6.273   6.832
93558SOL    HW282572   3.806   6.269   6.978
93559SOL     OW82573   0.735   1.548   1.170
93559SOL    HW182574   0.763   1.627   1.216
93559SOL    HW282575   0.648   1.569   1.137
93560SOL     OW82576   4.290  11.365   7.461
93560SOL    HW182577   4.250  11.299   7.403
93560SOL    HW282578   4.247  11.447   7.437
93561SOL     OW82579   3.285  11.332   5.588
93561SOL    HW182580   3.214  11.281   5.550
93561SOL    HW282581   3.269  11.422   5.560
93562SOL     OW82582   8.811   6.338   0.967
93562SOL    HW182583   8.814   6.302   1.056
93562SOL    HW282584   8.836   6.430   0.977
93563SOL     OW82585   5.823   6.990   4.939
93563SOL    HW182586   5.855   6.912   4.985
93563SOL    HW282587   5.862   6.983   4.851
93564SOL     OW82588   3.608  10.526  10.087
93564SOL    HW182589   3.689  10.578  10.082
93564SOL    HW282590   3.566  10.556  10.167
93565SOL     OW82591   0.957   6.854   7.870
93565SOL    HW182592   0.875   6.865   7.821
93565SOL    HW282593   0.990   6.943   7.882
93566SOL     OW82594  11.283   1.926   9.608
93566SOL    HW182595  11.275   2.014   9.647
93566SOL    HW282596  11.345   1.880   9.665
93567SOL     OW82597   8.275   6.306  13.044
93567SOL    HW182598   8.198   6.250  13.033
93567SOL    HW282599   8.244   6.379  13.098
93568SOL     OW82600   0.725   0.998  12.788
93568SOL    HW182601   0.736   1.091  12.771
93568SOL    HW282602   0.793   0.956  12.736
93569SOL     OW82603  10.408  13.237   1.694
93569SOL    HW182604  10.475  13.173   1.672
93569SOL    HW282605  10.366  13.203   1.773
93570SOL     OW82606  14.729   2.633  14.871
93570SOL    HW182607  14.733   2.704  14.807
93570SOL    HW282608  14.641   2.597  14.861
93571SOL     OW82609   0.698  14.457   4.487
93571SOL    HW182610   0.606  14.474   4.508
93571SOL    HW282611   0.744  14.534   4.520
93572SOL     OW82612   1.002  12.173   9.798
93572SOL    HW182613   0.968  12.111   9.733
93572SOL    HW282614   1.025  12.251   9.747
93573SOL     OW82615   0.561  11.182   2.904
93573SOL    HW182616   0.606  11.234   2.838
93573SOL    HW282617   0.568  11.233   2.984
93574SOL     OW82618  10.902   6.674  14.802
93574SOL    HW182619  10.835   6.608  14.819
93574SOL    HW282620  10.972   6.654  14.863
93575SOL     OW82621  10.395   3.477  13.385
93575SOL    HW182622  10.419   3.407  13.325
93575SOL    HW282623  10.373   3.551  13.329
93576SOL     OW82624  13.117  14.388  10.249
93576SOL    HW182625  13.086  14.314  10.197
93576SOL    HW282626  13.199  14.356  10.288
93577SOL     OW82627  10.210  11.949   2.443
93577SOL    HW182628  10.128  11.909   2.471
93577SOL    HW282629  10.223  12.022   2.504
93578SOL     OW82630  10.082   9.707  14.136
93578SOL    HW182631  10.104   9.773  14.201
93578SOL    HW282632  10.051   9.758  14.060
93579SOL     OW82633   9.002   4.729  13.834
93579SOL    HW182634   9.001   4.782  13.754
93579SOL    HW282635   8.950   4.779  13.897
93580SOL     OW82636   3.130   9.200   1.760
93580SOL    HW182637   3.182   9.274   1.729
93580SOL    HW282638   3.076   9.176   1.684
93581SOL     OW82639   8.884   7.916   6.912
93581SOL    HW182640   8.965   7.962   6.933
93581SOL    HW282641   8.815   7.971   6.949
93582SOL     OW82642   3.683  13.318   9.476
93582SOL    HW182643   3.646  13.314   9.564
93582SOL    HW282644   3.645  13.396   9.437
93583SOL     OW82645   9.919   9.069   1.826
93583SOL    HW182646   9.983   9.121   1.875
93583SOL    HW282647   9.879   9.132   1.766
93584SOL     OW82648  10.053   9.433  10.564
93584SOL    HW182649  10.019   9.452  10.652
93584SOL    HW282650  10.051   9.337  10.558
93585SOL     OW82651  12.472  10.485   3.826
93585SOL    HW182652  12.567  10.494   3.835
93585SOL    HW282653  12.455  10.392   3.843
93586SOL     OW82654   0.653   5.386   5.558
93586SOL    HW182655   0.616   5.301   5.534
93586SOL    HW282656   0.659   5.433   5.475
93587SOL     OW82657   8.954   6.221   0.770
93587SOL    HW182658   9.026   6.281   0.789
93587SOL    HW282659   8.886   6.245   0.834
93588SOL     OW82660   6.559   0.583   0.000
93588SOL    HW182661   6.473   0.623   0.014
93588SOL    HW282662   6.594   0.569   0.088
93589SOL     OW82663   8.951   8.670   0.309
93589SOL    HW182664   8.924   8.715   0.389
93589SOL    HW282665   8.892   8.594   0.303
93590SOL     OW82666   4.715  12.595   4.868
93590SOL    HW182667   4.713  12.607   4.773
93590SOL    HW282668   4.642  12.536   4.886
93591SOL     OW82669   3.797   3.810  14.788
93591SOL    HW182670   3.843   3.850  14.714
93591SOL    HW282671   3.863   3.757  14.832
93592SOL     OW82672   1.616  13.238   6.113
93592SOL    HW182673   1.680  13.212   6.179
93592SOL    HW282674   1.659  13.308   6.064
93593SOL     OW82675   1.896   1.492  10.088
93593SOL    HW182676   1.837   1.433  10.135
93593SOL    HW282677   1.960   1.434  10.046
93594SOL     OW82678  10.923   6.157   1.565
93594SOL    HW182679  10.896   6.109   1.643
93594SOL    HW282680  11.017   6.137   1.556
93595SOL     OW82681  13.747  12.282   5.189
93595SOL    HW182682  13.713  12.271   5.100
93595SOL    HW282683  13.673  12.259   5.246
93596SOL     OW82684   6.643   0.169  13.755
93596SOL    HW182685   6.698   0.220  13.815
93596SOL    HW282686   6.640   0.221  13.675
93597SOL     OW82687  14.879   9.939   2.828
93597SOL    HW182688  14.789   9.915   2.804
93597SOL    HW282689   0.030   9.972   2.747
93598SOL     OW82690  11.361  14.191   1.743
93598SOL    HW182691  11.337  14.256   1.676
93598SOL    HW282692  11.422  14.133   1.698
93599SOL     OW82693   9.066   5.150   0.320
93599SOL    HW182694   9.003   5.169   0.251
93599SOL    HW282695   9.075   5.232   0.368
93600SOL     OW82696   6.035   4.240  13.714
93600SOL    HW182697   5.945   4.245  13.748
93600SOL    HW282698   6.062   4.150  13.732
93601SOL     OW82699  13.784   4.472   6.774
93601SOL    HW182700  13.858   4.494   6.717
93601SOL    HW282701  13.714   4.532   6.748
93602SOL     OW82702  10.724   3.360   0.195
93602SOL    HW182703  10.802   3.404   0.161
93602SOL    HW282704  10.744   3.266   0.185
93603SOL     OW82705   1.492   8.466   5.373
93603SOL    HW182706   1.500   8.399   5.440
93603SOL    HW282707   1.461   8.419   5.295
93604SOL     OW82708  10.153  12.664  13.525
93604SOL    HW182709  10.134  12.642  13.433
93604SOL    HW282710  10.130  12.585  13.574
93605SOL     OW82711  13.919  12.589  10.601
93605SOL    HW182712  13.925  12.503  10.560
93605SOL    HW282713  13.991  12.591  10.663
93606SOL     OW82714   1.132   0.662   3.128
93606SOL    HW182715   1.158   0.646   3.219
93606SOL    HW282716   1.201   0.720   3.094
93607SOL     OW82717  14.218  11.063   2.875
93607SOL    HW182718  14.147  11.125   2.890
93607SOL    HW282719  14.200  10.991   2.937
93608SOL     OW82720   2.404   5.844   2.679
93608SOL    HW182721   2.334   5.884   2.626
93608SOL    HW282722   2.412   5.755   2.644
93609SOL     OW82723   1.294  10.995  13.814
93609SOL    HW182724   1.312  10.980  13.721
93609SOL    HW282725   1.369  10.958  13.860
93610SOL     OW82726  10.952   5.341  14.589
93610SOL    HW182727  10.997   5.424  14.572
93610SOL    HW282728  10.993   5.307  14.668
93611SOL     OW82729   9.822  10.651  11.449
93611SOL    HW182730   9.812  10.600  11.530
93611SOL    HW282731   9.853  10.736  11.478
93612SOL     OW82732   8.903   5.068   5.382
93612SOL    HW182733   8.908   5.157   5.346
93612SOL    HW282734   8.834   5.026   5.332
93613SOL     OW82735  14.217  12.337   3.884
93613SOL    HW182736  14.301  12.384   3.883
93613SOL    HW282737  14.171  12.371   3.807
93614SOL     OW82738   8.761   5.697   7.658
93614SOL    HW182739   8.705   5.732   7.589
93614SOL    HW282740   8.704   5.640   7.710
93615SOL     OW82741   1.599  11.588   5.826
93615SOL    HW182742   1.673  11.555   5.876
93615SOL    HW282743   1.535  11.518   5.828
93616SOL     OW82744   4.448   3.184   6.057
93616SOL    HW182745   4.543   3.195   6.048
93616SOL    HW282746   4.413   3.272   6.053
93617SOL     OW82747   3.446  11.338   4.315
93617SOL    HW182748   3.412  11.381   4.236
93617SOL    HW282749   3.468  11.249   4.285
93618SOL     OW82750   5.635   7.875   7.644
93618SOL    HW182751   5.637   7.784   7.613
93618SOL    HW282752   5.727   7.902   7.644
93619SOL     OW82753  10.689   5.695   8.773
93619SOL    HW182754  10.758   5.638   8.739
93619SOL    HW282755  10.642   5.724   8.695
93620SOL     OW82756   1.649   4.993  14.682
93620SOL    HW182757   1.681   4.962  14.767
93620SOL    HW282758   1.728   5.012  14.632
93621SOL     OW82759   1.262   8.011   8.349
93621SOL    HW182760   1.198   8.029   8.417
93621SOL    HW282761   1.210   7.993   8.270
93622SOL     OW82762   7.924  12.757   8.968
93622SOL    HW182763   7.996  12.717   8.920
93622SOL    HW282764   7.886  12.685   9.019
93623SOL     OW82765   0.305   7.345  14.798
93623SOL    HW182766   0.329   7.327  14.707
93623SOL    HW282767   0.385   7.329  14.848
93624SOL     OW82768   3.865   8.253   6.800
93624SOL    HW182769   3.889   8.184   6.863
93624SOL    HW282770   3.947   8.299   6.783
93625SOL     OW82771  14.748   9.723  12.938
93625SOL    HW182772  14.769   9.692  12.850
93625SOL    HW282773  14.701   9.651  12.978
93626SOL     OW82774   4.432   4.600   9.293
93626SOL    HW182775   4.486   4.670   9.328
93626SOL    HW282776   4.464   4.521   9.336
93627SOL     OW82777  12.734  12.090  11.728
93627SOL    HW182778  12.806  12.128  11.678
93627SOL    HW282779  12.715  12.007  11.684
93628SOL     OW82780  12.981   0.999   6.679
93628SOL    HW182781  12.945   0.910   6.688
93628SOL    HW282782  13.034   0.995   6.600
93629SOL     OW82783   2.691   1.994   5.907
93629SOL    HW182784   2.748   2.042   5.846
93629SOL    HW282785   2.678   2.056   5.979
93630SOL     OW82786   5.697  10.499   0.456
93630SOL    HW182787   5.768  10.537   0.508
93630SOL    HW282788   5.736  10.488   0.369
93631SOL     OW82789  11.424  14.307  13.528
93631SOL    HW182790  11.443  14.323  13.621
93631SOL    HW282791  11.377  14.224  13.527
93632SOL     OW82792   7.943   9.815  13.301
93632SOL    HW182793   7.862   9.849  13.263
93632SOL    HW282794   7.967   9.881  13.367
93633SOL     OW82795  10.590  11.916   6.360
93633SOL    HW182796  10.508  11.890   6.402
93633SOL    HW282797  10.602  12.007   6.387
93634SOL     OW82798   6.552   7.697  10.737
93634SOL    HW182799   6.500   7.657  10.807
93634SOL    HW282800   6.551   7.790  10.758
93635SOL     OW82801   9.141   8.681   9.091
93635SOL    HW182802   9.139   8.629   9.171
93635SOL    HW282803   9.114   8.769   9.119
93636SOL     OW82804   4.987  11.064  11.026
93636SOL    HW182805   4.932  11.068  11.104
93636SOL    HW282806   4.986  10.972  11.000
93637SOL     OW82807  10.731   8.548  11.931
93637SOL    HW182808  10.767   8.472  11.885
93637SOL    HW282809  10.641   8.524  11.951
93638SOL     OW82810   1.219   6.346  12.956
93638SOL    HW182811   1.136   6.392  12.947
93638SOL    HW282812   1.201   6.274  13.016
93639SOL     OW82813  12.656  13.856   3.707
93639SOL    HW182814  12.729  13.846   3.768
93639SOL    HW282815  12.626  13.946   3.721
93640SOL     OW82816  12.280  14.170  12.679
93640SOL    HW182817  12.321  14.237  12.624
93640SOL    HW282818  12.303  14.087  12.637
93641SOL     OW82819   8.105   7.533  12.608
93641SOL    HW182820   8.024   7.488  12.632
93641SOL    HW282821   8.171   7.498  12.669
93642SOL     OW82822   7.558  12.541   1.786
93642SOL    HW182823   7.564  12.496   1.702
93642SOL    HW282824   7.649  12.563   1.808
93643SOL     OW82825  13.158   1.319   5.881
93643SOL    HW182826  13.246   1.340   5.850
93643SOL    HW282827  13.105   1.313   5.802
93644SOL     OW82828   0.636   9.218   1.620
93644SOL    HW182829   0.665   9.285   1.682
93644SOL    HW282830   0.675   9.137   1.652
93645SOL     OW82831   1.099   8.040  10.748
93645SOL    HW182832   1.177   8.088  10.719
93645SOL    HW282833   1.048   8.026  10.668
93646SOL     OW82834   1.953  10.235   3.599
93646SOL    HW182835   1.959  10.329   3.616
93646SOL    HW282836   2.012  10.195   3.663
93647SOL     OW82837   8.525   5.682   0.592
93647SOL    HW182838   8.528   5.627   0.670
93647SOL    HW282839   8.587   5.640   0.532
93648SOL     OW82840   1.112  10.987  11.571
93648SOL    HW182841   1.157  10.949  11.647
93648SOL    HW282842   1.140  10.932  11.497
93649SOL     OW82843   9.854   9.697  13.208
93649SOL    HW182844   9.822   9.613  13.176
93649SOL    HW282845   9.847   9.690  13.303
93650SOL     OW82846   8.523  13.406  10.155
93650SOL    HW182847   8.533  13.469  10.227
93650SOL    HW282848   8.451  13.350  10.183
93651SOL     OW82849   7.331  14.540   7.243
93651SOL    HW182850   7.405  14.535   7.303
93651SOL    HW282851   7.256  14.511   7.295
93652SOL     OW82852   0.569   0.029   5.506
93652SOL    HW182853   0.642  14.878   5.457
93652SOL    HW282854   0.566  14.867   5.588
93653SOL     OW82855  12.203   7.823   0.410
93653SOL    HW182856  12.242   7.801   0.494
93653SOL    HW282857  12.168   7.740   0.376
93654SOL     OW82858  13.907  13.661   7.167
93654SOL    HW182859  13.990  13.694   7.134
93654SOL    HW282860  13.924  13.640   7.259
93655SOL     OW82861  14.691   6.135  14.746
93655SOL    HW182862  14.701   6.227  14.773
93655SOL    HW282863  14.780   6.100  14.748
93656SOL     OW82864  10.577  12.719   5.295
93656SOL    HW182865  10.516  12.696   5.365
93656SOL    HW282866  10.598  12.811   5.310
93657SOL     OW82867  13.035   4.830   9.507
93657SOL    HW182868  13.013   4.857   9.418
93657SOL    HW282869  13.131   4.825   9.507
93658SOL     OW82870   6.688   8.646   1.286
93658SOL    HW182871   6.783   8.636   1.283
93658SOL    HW282872   6.665   8.677   1.198
93659SOL     OW82873  10.387  12.735   9.111
93659SOL    HW182874  10.428  12.656   9.145
93659SOL    HW282875  10.294  12.715   9.110
93660SOL     OW82876  12.435  14.698   4.977
93660SOL    HW182877  12.359  14.740   4.936
93660SOL    HW282878  12.414  14.697   5.071
93661SOL     OW82879   4.263  13.973   0.658
93661SOL    HW182880   4.230  13.964   0.748
93661SOL    HW282881   4.290  13.885   0.634
93662SOL     OW82882   3.187   8.955  10.635
93662SOL    HW182883   3.218   8.867  10.613
93662SOL    HW282884   3.093   8.952  10.620
93663SOL     OW82885  14.392   2.775   4.616
93663SOL    HW182886  14.398   2.699   4.674
93663SOL    HW282887  14.304   2.808   4.629
93664SOL     OW82888  11.017   5.606   9.609
93664SOL    HW182889  11.097   5.632   9.563
93664SOL    HW282890  11.015   5.663   9.686
93665SOL     OW82891  11.809  11.359  11.686
93665SOL    HW182892  11.875  11.410  11.734
93665SOL    HW282893  11.757  11.425  11.640
93666SOL     OW82894   3.586   3.862  13.436
93666SOL    HW182895   3.625   3.795  13.381
93666SOL    HW282896   3.499   3.827  13.459
93667SOL     OW82897   2.120   0.195   9.592
93667SOL    HW182898   2.074   0.238   9.520
93667SOL    HW282899   2.167   0.122   9.551
93668SOL     OW82900   0.543   5.869   5.228
93668SOL    HW182901   0.591   5.900   5.151
93668SOL    HW282902   0.542   5.945   5.287
93669SOL     OW82903   8.421   5.887  11.774
93669SOL    HW182904   8.348   5.947  11.792
93669SOL    HW282905   8.497   5.945  11.763
93670SOL     OW82906   8.153   8.800   8.559
93670SOL    HW182907   8.078   8.755   8.521
93670SOL    HW282908   8.152   8.775   8.652
93671SOL     OW82909   5.465   7.246   7.954
93671SOL    HW182910   5.560   7.249   7.937
93671SOL    HW282911   5.457   7.267   8.047
93672SOL     OW82912   2.561   4.946   3.634
93672SOL    HW182913   2.495   4.942   3.703
93672SOL    HW282914   2.532   4.881   3.570
93673SOL     OW82915   1.025   9.082   1.413
93673SOL    HW182916   1.054   9.173   1.416
93673SOL    HW282917   0.934   9.087   1.383
93674SOL     OW82918  12.853   1.384   2.341
93674SOL    HW182919  12.938   1.341   2.345
93674SOL    HW282920  12.796   1.327   2.392
93675SOL     OW82921   5.497   2.165  10.801
93675SOL    HW182922   5.438   2.221  10.750
93675SOL    HW282923   5.483   2.077  10.765
93676SOL     OW82924   5.794   5.872   2.105
93676SOL    HW182925   5.869   5.905   2.154
93676SOL    HW282926   5.773   5.942   2.043
93677SOL     OW82927   7.588   0.692   0.789
93677SOL    HW182928   7.674   0.668   0.753
93677SOL    HW282929   7.598   0.679   0.884
93678SOL     OW82930   1.649   3.877   6.513
93678SOL    HW182931   1.664   3.786   6.540
93678SOL    HW282932   1.586   3.870   6.441
93679SOL     OW82933  12.493   8.269  10.373
93679SOL    HW182934  12.406   8.233  10.389
93679SOL    HW282935  12.551   8.213  10.425
93680SOL     OW82936   7.016   3.942  14.406
93680SOL    HW182937   7.012   3.849  14.428
93680SOL    HW282938   7.098   3.952  14.359
93681SOL     OW82939   0.382  13.215   3.275
93681SOL    HW182940   0.294  13.252   3.266
93681SOL    HW282941   0.370  13.136   3.327
93682SOL     OW82942  13.343   6.549  10.977
93682SOL    HW182943  13.382   6.561  10.891
93682SOL    HW282944  13.399   6.599  11.037
93683SOL     OW82945   2.942   7.410   4.155
93683SOL    HW182946   2.971   7.485   4.103
93683SOL    HW282947   3.022   7.363   4.177
93684SOL     OW82948  10.436   0.502  11.949
93684SOL    HW182949  10.371   0.569  11.929
93684SOL    HW282950  10.446   0.453  11.867
93685SOL     OW82951   9.784   2.769  13.856
93685SOL    HW182952   9.771   2.735  13.945
93685SOL    HW282953   9.830   2.852  13.868
93686SOL     OW82954   5.112  10.296  14.885
93686SOL    HW182955   5.166  10.238  14.832
93686SOL    HW282956   5.076  10.240   0.067
93687SOL     OW82957  12.433   3.841   8.490
93687SOL    HW182958  12.431   3.797   8.405
93687SOL    HW282959  12.348   3.824   8.528
93688SOL     OW82960  13.604   0.240  13.789
93688SOL    HW182961  13.533   0.295  13.756
93688SOL    HW282962  13.568   0.199  13.868
93689SOL     OW82963   7.261   6.816  14.074
93689SOL    HW182964   7.345   6.847  14.039
93689SOL    HW282965   7.281   6.731  14.113
93690SOL     OW82966  11.400   3.510  11.131
93690SOL    HW182967  11.418   3.603  11.117
93690SOL    HW282968  11.468   3.482  11.193
93691SOL     OW82969  14.554   3.748  13.099
93691SOL    HW182970  14.594   3.801  13.030
93691SOL    HW282971  14.551   3.806  13.175
93692SOL     OW82972   8.297  12.801   3.998
93692SOL    HW182973   8.213  12.765   3.972
93692SOL    HW282974   8.341  12.824   3.916
93693SOL     OW82975   1.379  13.951   6.286
93693SOL    HW182976   1.398  14.042   6.307
93693SOL    HW282977   1.367  13.909   6.371
93694SOL     OW82978   7.780   8.191   4.675
93694SOL    HW182979   7.692   8.178   4.712
93694SOL    HW282980   7.769   8.263   4.613
93695SOL     OW82981   3.832   2.154   5.194
93695SOL    HW182982   3.859   2.063   5.179
93695SOL    HW282983   3.737   2.149   5.204
93696SOL     OW82984  12.931  14.304   7.092
93696SOL    HW182985  12.878  14.225   7.097
93696SOL    HW282986  12.966  14.304   7.003
93697SOL     OW82987   2.326  12.931  11.681
93697SOL    HW182988   2.357  12.999  11.742
93697SOL    HW282989   2.405  12.887  11.651
93698SOL     OW82990  14.670   4.927   4.939
93698SOL    HW182991  14.602   4.878   4.983
93698SOL    HW282992  14.690   4.877   4.860
93699SOL     OW82993   5.018  13.645   9.814
93699SOL    HW182994   4.987  13.716   9.870
93699SOL    HW282995   5.035  13.572   9.874
93700SOL     OW82996   3.255  11.998   9.183
93700SOL    HW182997   3.341  11.986   9.224
93700SOL    HW282998   3.205  12.047   9.248
93701SOL     OW82999   8.200   8.894   8.923
93701SOL    HW183000   8.239   8.809   8.904
93701SOL    HW283001   8.107   8.883   8.903
93702SOL     OW83002   8.647   2.046  11.379
93702SOL    HW183003   8.570   2.016  11.332
93702SOL    HW283004   8.634   2.140  11.391
93703SOL     OW83005  14.404  10.601   2.635
93703SOL    HW183006  14.423  10.634   2.723
93703SOL    HW283007  14.432  10.510   2.637
93704SOL     OW83008  13.698   8.719  10.810
93704SOL    HW183009  13.717   8.651  10.876
93704SOL    HW283010  13.784   8.742  10.775
93705SOL     OW83011   0.932  14.493   2.365
93705SOL    HW183012   0.908  14.540   2.286
93705SOL    HW283013   0.950  14.561   2.430
93706SOL     OW83014   5.641  10.111   0.142
93706SOL    HW183015   5.654  10.171   0.069
93706SOL    HW283016   5.550  10.125   0.168
93707SOL     OW83017   8.824   9.467   5.060
93707SOL    HW183018   8.770   9.448   4.983
93707SOL    HW283019   8.876   9.387   5.073
93708SOL     OW83020   7.053   5.868   9.679
93708SOL    HW183021   7.103   5.926   9.736
93708SOL    HW283022   7.098   5.872   9.594
93709SOL     OW83023   3.756   2.296  11.558
93709SOL    HW183024   3.663   2.319  11.558
93709SOL    HW283025   3.759   2.206  11.524
93710SOL     OW83026  12.157   3.453  11.594
93710SOL    HW183027  12.247   3.484  11.602
93710SOL    HW283028  12.104   3.527  11.624
93711SOL     OW83029   1.938   3.647   6.018
93711SOL    HW183030   1.920   3.553   6.012
93711SOL    HW283031   1.936   3.665   6.112
93712SOL     OW83032   1.631   5.062   2.106
93712SOL    HW183033   1.568   5.079   2.176
93712SOL    HW283034   1.581   5.075   2.026
93713SOL     OW83035  11.098   5.391   2.063
93713SOL    HW183036  11.107   5.381   1.968
93713SOL    HW283037  11.186   5.414   2.093
93714SOL     OW83038   9.582   4.905   9.870
93714SOL    HW183039   9.668   4.947   9.874
93714SOL    HW283040   9.520   4.976   9.883
93715SOL     OW83041   0.601   6.766   0.295
93715SOL    HW183042   0.609   6.716   0.214
93715SOL    HW283043   0.682   6.817   0.300
93716SOL     OW83044  10.342  10.852  14.535
93716SOL    HW183045  10.396  10.930  14.548
93716SOL    HW283046  10.339  10.811  14.622
93717SOL     OW83047  13.837   5.010   4.553
93717SOL    HW183048  13.758   4.956   4.551
93717SOL    HW283049  13.862   5.020   4.461
93718SOL     OW83050   2.852  10.820  12.529
93718SOL    HW183051   2.897  10.786  12.452
93718SOL    HW283052   2.869  10.914  12.527
93719SOL     OW83053   1.268   7.736   9.830
93719SOL    HW183054   1.239   7.655   9.787
93719SOL    HW283055   1.273   7.800   9.759
93720SOL     OW83056  10.270   6.750   6.293
93720SOL    HW183057  10.301   6.837   6.266
93720SOL    HW283058  10.273   6.752   6.388
93721SOL     OW83059  10.013   0.332   7.999
93721SOL    HW183060   9.920   0.344   7.984
93721SOL    HW283061  10.056   0.386   7.933
93722SOL     OW83062   1.068   7.110   9.112
93722SOL    HW183063   1.111   7.148   9.035
93722SOL    HW283064   1.053   7.185   9.170
93723SOL     OW83065  12.374  11.818   2.712
93723SOL    HW183066  12.413  11.760   2.646
93723SOL    HW283067  12.437  11.819   2.784
93724SOL     OW83068   7.328  12.135   9.092
93724SOL    HW183069   7.367  12.080   9.024
93724SOL    HW283070   7.244  12.161   9.056
93725SOL     OW83071   4.249  10.624   4.920
93725SOL    HW183072   4.202  10.662   4.995
93725SOL    HW283073   4.227  10.531   4.923
93726SOL     OW83074   4.446   4.135   6.004
93726SOL    HW183075   4.415   4.159   6.091
93726SOL    HW283076   4.423   4.042   5.994
93727SOL     OW83077   7.023   8.580   8.847
93727SOL    HW183078   7.008   8.488   8.867
93727SOL    HW283079   7.047   8.620   8.931
93728SOL     OW83080   0.131  13.380   9.223
93728SOL    HW183081   0.097  13.469   9.219
93728SOL    HW283082   0.075  13.336   9.287
93729SOL     OW83083  14.331  12.634   5.287
93729SOL    HW183084  14.250  12.601   5.326
93729SOL    HW283085  14.302  12.680   5.208
93730SOL     OW83086  10.783   5.768   2.856
93730SOL    HW183087  10.737   5.752   2.939
93730SOL    HW283088  10.761   5.691   2.802
93731SOL     OW83089  13.382  13.487   0.382
93731SOL    HW183090  13.353  13.490   0.473
93731SOL    HW283091  13.462  13.434   0.384
93732SOL     OW83092   9.014  13.738  10.985
93732SOL    HW183093   8.993  13.654  10.944
93732SOL    HW283094   8.989  13.728  11.077
93733SOL     OW83095  12.658   1.955  14.476
93733SOL    HW183096  12.648   2.043  14.439
93733SOL    HW283097  12.588   1.904  14.435
93734SOL     OW83098   6.328  12.638  12.605
93734SOL    HW183099   6.318  12.732  12.594
93734SOL    HW283100   6.405  12.616  12.554
93735SOL     OW83101  10.124  11.856  14.450
93735SOL    HW183102  10.185  11.927  14.431
93735SOL    HW283103  10.179  11.778  14.455
93736SOL     OW83104   4.599   0.149   5.356
93736SOL    HW183105   4.621   0.204   5.431
93736SOL    HW283106   4.683   0.132   5.313
93737SOL     OW83107   1.835   2.383   8.921
93737SOL    HW183108   1.756   2.437   8.916
93737SOL    HW283109   1.891   2.414   8.849
93738SOL     OW83110   8.353   4.129   5.408
93738SOL    HW183111   8.396   4.206   5.371
93738SOL    HW283112   8.265   4.131   5.371
93739SOL     OW83113   6.692  14.751   9.024
93739SOL    HW183114   6.612  14.780   8.980
93739SOL    HW283115   6.752  14.824   9.016
93740SOL     OW83116  11.165  11.478  12.835
93740SOL    HW183117  11.113  11.401  12.812
93740SOL    HW283118  11.113  11.552  12.804
93741SOL     OW83119  13.759  11.026   8.400
93741SOL    HW183120  13.710  11.101   8.365
93741SOL    HW283121  13.848  11.059   8.412
93742SOL     OW83122   9.181   2.427   5.833
93742SOL    HW183123   9.203   2.477   5.912
93742SOL    HW283124   9.086   2.438   5.823
93743SOL     OW83125   7.262  13.810  11.204
93743SOL    HW183126   7.326  13.767  11.260
93743SOL    HW283127   7.223  13.739  11.153
93744SOL     OW83128   5.787   1.565   2.573
93744SOL    HW183129   5.776   1.526   2.660
93744SOL    HW283130   5.874   1.535   2.545
93745SOL     OW83131   9.294   1.459   0.651
93745SOL    HW183132   9.212   1.505   0.633
93745SOL    HW283133   9.362   1.516   0.615
93746SOL     OW83134   9.280   0.646  13.239
93746SOL    HW183135   9.241   0.558  13.240
93746SOL    HW283136   9.264   0.680  13.327
93747SOL     OW83137  12.102   7.328   4.296
93747SOL    HW183138  12.056   7.273   4.232
93747SOL    HW283139  12.143   7.397   4.243
93748SOL     OW83140   1.590   3.837   8.127
93748SOL    HW183141   1.502   3.807   8.105
93748SOL    HW283142   1.578   3.925   8.163
93749SOL     OW83143   6.309   2.852  11.667
93749SOL    HW183144   6.387   2.797  11.658
93749SOL    HW283145   6.335   2.937  11.631
93750SOL     OW83146   6.193   2.782   1.223
93750SOL    HW183147   6.130   2.854   1.222
93750SOL    HW283148   6.145   2.708   1.260
93751SOL     OW83149   4.256   3.087   7.321
93751SOL    HW183150   4.323   3.104   7.255
93751SOL    HW283151   4.178   3.063   7.271
93752SOL     OW83152  14.386   0.448  14.400
93752SOL    HW183153  14.456   0.387  14.376
93752SOL    HW283154  14.310   0.392  14.417
93753SOL     OW83155   3.014  13.038   4.820
93753SOL    HW183156   3.097  13.038   4.869
93753SOL    HW283157   3.012  12.952   4.778
93754SOL     OW83158   4.134   4.065  10.123
93754SOL    HW183159   4.100   4.037  10.208
93754SOL    HW283160   4.173   4.151  10.140
93755SOL     OW83161   5.786  11.939  13.712
93755SOL    HW183162   5.763  12.029  13.733
93755SOL    HW283163   5.745  11.887  13.782
93756SOL     OW83164   0.813   8.747   3.710
93756SOL    HW183165   0.885   8.697   3.672
93756SOL    HW283166   0.848   8.834   3.724
93757SOL     OW83167   2.067   2.592   0.129
93757SOL    HW183168   2.103   2.542   0.202
93757SOL    HW283169   2.139   2.648   0.100
93758SOL     OW83170  12.912   7.916   0.888
93758SOL    HW183171  12.955   7.986   0.937
93758SOL    HW283172  12.857   7.961   0.823
93759SOL     OW83173   8.191   8.407   3.572
93759SOL    HW183174   8.219   8.386   3.662
93759SOL    HW283175   8.100   8.435   3.581
93760SOL     OW83176   5.045   0.772   1.033
93760SOL    HW183177   4.954   0.793   1.010
93760SOL    HW283178   5.091   0.856   1.027
93761SOL     OW83179   6.746   5.569  14.358
93761SOL    HW183180   6.706   5.587  14.273
93761SOL    HW283181   6.831   5.529  14.337
93762SOL     OW83182   3.924   9.512   6.198
93762SOL    HW183183   3.967   9.460   6.131
93762SOL    HW283184   3.865   9.570   6.149
93763SOL     OW83185   4.902   3.074   3.194
93763SOL    HW183186   4.824   3.021   3.178
93763SOL    HW283187   4.868   3.160   3.219
93764SOL     OW83188   4.867  10.740   8.049
93764SOL    HW183189   4.932  10.755   7.979
93764SOL    HW283190   4.786  10.721   8.002
93765SOL     OW83191  10.653   5.871  14.384
93765SOL    HW183192  10.697   5.914  14.311
93765SOL    HW283193  10.678   5.779  14.377
93766SOL     OW83194   0.162   5.307   7.053
93766SOL    HW183195   0.100   5.256   7.106
93766SOL    HW283196   0.195   5.244   6.988
93767SOL     OW83197   8.291   5.791   4.171
93767SOL    HW183198   8.218   5.732   4.190
93767SOL    HW283199   8.331   5.808   4.257
93768SOL     OW83200  12.951  10.084  12.721
93768SOL    HW183201  12.998  10.147  12.666
93768SOL    HW283202  12.919  10.135  12.795
93769SOL     OW83203   4.979  11.987   8.116
93769SOL    HW183204   4.903  12.042   8.135
93769SOL    HW283205   4.949  11.898   8.133
93770SOL     OW83206   9.281   6.614  11.685
93770SOL    HW183207   9.333   6.651  11.756
93770SOL    HW283208   9.199   6.586  11.727
93771SOL     OW83209   0.125  12.130   6.797
93771SOL    HW183210   0.046  12.080   6.818
93771SOL    HW283211   0.191  12.065   6.776
93772SOL     OW83212   9.333  14.660  11.348
93772SOL    HW183213   9.286  14.577  11.357
93772SOL    HW283214   9.264  14.725  11.331
93773SOL     OW83215   4.082   4.109   5.970
93773SOL    HW183216   4.177   4.105   5.979
93773SOL    HW283217   4.068   4.137   5.880
93774SOL     OW83218   2.618   5.498   8.028
93774SOL    HW183219   2.671   5.429   8.068
93774SOL    HW283220   2.548   5.452   7.983
93775SOL     OW83221   8.262  11.292   5.958
93775SOL    HW183222   8.240  11.335   5.876
93775SOL    HW283223   8.356  11.309   5.969
93776SOL     OW83224   7.147   9.626   0.935
93776SOL    HW183225   7.213   9.658   0.874
93776SOL    HW283226   7.074   9.599   0.880
93777SOL     OW83227   8.551  12.343   1.119
93777SOL    HW183228   8.472  12.373   1.073
93777SOL    HW283229   8.619  12.405   1.092
93778SOL     OW83230  10.805  14.408   3.636
93778SOL    HW183231  10.727  14.399   3.582
93778SOL    HW283232  10.878  14.392   3.576
93779SOL     OW83233  12.691   9.271  14.520
93779SOL    HW183234  12.641   9.308  14.447
93779SOL    HW283235  12.687   9.338  14.589
93780SOL     OW83236  10.759  12.802   6.151
93780SOL    HW183237  10.796  12.741   6.087
93780SOL    HW283238  10.826  12.870   6.161
93781SOL     OW83239   2.865  13.289   8.490
93781SOL    HW183240   2.863  13.336   8.573
93781SOL    HW283241   2.774  13.271   8.470
93782SOL     OW83242   0.954  10.689   7.040
93782SOL    HW183243   1.040  10.660   7.008
93782SOL    HW283244   0.964  10.695   7.134
93783SOL     OW83245  10.311   8.710   4.656
93783SOL    HW183246  10.219   8.694   4.632
93783SOL    HW283247  10.352   8.623   4.652
93784SOL     OW83248   6.017   3.302  11.136
93784SOL    HW183249   6.055   3.275  11.052
93784SOL    HW283250   6.054   3.389  11.151
93785SOL     OW83251   2.373   0.308  10.286
93785SOL    HW183252   2.318   0.362  10.229
93785SOL    HW283253   2.432   0.370  10.328
93786SOL     OW83254  13.891   3.000   8.996
93786SOL    HW183255  13.942   3.068   8.952
93786SOL    HW283256  13.956   2.948   9.043
93787SOL     OW83257   5.294  12.544   8.825
93787SOL    HW183258   5.336  12.465   8.856
93787SOL    HW283259   5.351  12.576   8.755
93788SOL     OW83260   3.409   5.458   2.257
93788SOL    HW183261   3.495   5.444   2.296
93788SOL    HW283262   3.347   5.445   2.329
93789SOL     OW83263  12.982   1.977   0.109
93789SOL    HW183264  13.023   1.891   0.100
93789SOL    HW283265  12.959   1.983   0.202
93790SOL     OW83266   6.199   3.932   7.882
93790SOL    HW183267   6.107   3.935   7.856
93790SOL    HW283268   6.199   3.878   7.962
93791SOL     OW83269   9.404   2.007  11.093
93791SOL    HW183270   9.353   1.942  11.140
93791SOL    HW283271   9.495   1.982  11.106
93792SOL     OW83272   3.661   6.446   9.666
93792SOL    HW183273   3.655   6.532   9.623
93792SOL    HW283274   3.572   6.413   9.666
93793SOL     OW83275   3.288   5.229  11.730
93793SOL    HW183276   3.318   5.300  11.786
93793SOL    HW283277   3.249   5.165  11.791
93794SOL     OW83278   3.453   3.186   2.571
93794SOL    HW183279   3.419   3.189   2.481
93794SOL    HW283280   3.546   3.206   2.562
93795SOL     OW83281   7.966   2.981   8.722
93795SOL    HW183282   8.025   2.924   8.771
93795SOL    HW283283   7.902   3.011   8.787
93796SOL     OW83284   4.462   3.918   1.641
93796SOL    HW183285   4.483   3.829   1.670
93796SOL    HW283286   4.394   3.947   1.702
93797SOL     OW83287  10.370   6.808  10.433
93797SOL    HW183288  10.287   6.856  10.434
93797SOL    HW283289  10.345   6.717  10.442
93798SOL     OW83290   6.159   7.943   7.862
93798SOL    HW183291   6.204   7.867   7.897
93798SOL    HW283292   6.216   8.017   7.883
93799SOL     OW83293  12.236   6.140  14.420
93799SOL    HW183294  12.198   6.095  14.345
93799SOL    HW283295  12.272   6.069  14.474
93800SOL     OW83296  12.275   9.412   9.346
93800SOL    HW183297  12.291   9.471   9.272
93800SOL    HW283298  12.227   9.339   9.309
93801SOL     OW83299   7.380  14.698  12.267
93801SOL    HW183300   7.423  14.775  12.230
93801SOL    HW283301   7.371  14.638  12.193
93802SOL     OW83302   4.066   2.514   4.594
93802SOL    HW183303   4.155   2.496   4.623
93802SOL    HW283304   4.017   2.529   4.674
93803SOL     OW83305   2.919   3.268   3.741
93803SOL    HW183306   2.947   3.331   3.808
93803SOL    HW283307   2.910   3.321   3.662
93804SOL     OW83308   3.263   7.758   4.694
93804SOL    HW183309   3.305   7.813   4.628
93804SOL    HW283310   3.326   7.689   4.712
93805SOL     OW83311  11.594  13.817   8.919
93805SOL    HW183312  11.554  13.904   8.919
93805SOL    HW283313  11.553  13.771   8.992
93806SOL     OW83314   9.382   8.686  10.760
93806SOL    HW183315   9.458   8.733  10.795
93806SOL    HW283316   9.418   8.606  10.724
93807SOL     OW83317  13.415   2.984  14.597
93807SOL    HW183318  13.423   3.008  14.504
93807SOL    HW283319  13.479   2.914  14.609
93808SOL     OW83320  10.750   8.887   7.404
93808SOL    HW183321  10.696   8.809   7.416
93808SOL    HW283322  10.715   8.928   7.325
93809SOL     OW83323  12.055   9.360  14.070
93809SOL    HW183324  11.993   9.323  14.007
93809SOL    HW283325  12.077   9.287  14.128
93810SOL     OW83326   4.199   4.603   9.169
93810SOL    HW183327   4.290   4.595   9.198
93810SOL    HW283328   4.189   4.696   9.147
93811SOL     OW83329   5.711   0.816  13.472
93811SOL    HW183330   5.751   0.891  13.428
93811SOL    HW283331   5.756   0.740  13.436
93812SOL     OW83332   5.195   3.034   1.415
93812SOL    HW183333   5.257   3.098   1.452
93812SOL    HW283334   5.142   3.007   1.490
93813SOL     OW83335   0.148  13.241   8.985
93813SOL    HW183336   0.081  13.268   8.923
93813SOL    HW283337   0.136  13.299   9.060
93814SOL     OW83338   3.222   6.490   2.890
93814SOL    HW183339   3.156   6.554   2.915
93814SOL    HW283340   3.243   6.511   2.799
93815SOL     OW83341   1.716  14.759  10.037
93815SOL    HW183342   1.718  14.673  10.078
93815SOL    HW283343   1.763  14.816  10.098
93816SOL     OW83344   5.368   5.657   1.750
93816SOL    HW183345   5.423   5.726   1.715
93816SOL    HW283346   5.401   5.642   1.838
93817SOL     OW83347  12.061   8.958   0.078
93817SOL    HW183348  11.980   8.997   0.111
93817SOL    HW283349  12.100   8.917   0.155
93818SOL     OW83350   5.226  13.947   3.234
93818SOL    HW183351   5.136  13.916   3.229
93818SOL    HW283352   5.237  14.003   3.157
93819SOL     OW83353   6.886  14.286  13.121
93819SOL    HW183354   6.806  14.268  13.170
93819SOL    HW283355   6.949  14.222  13.154
93820SOL     OW83356  11.966   1.482  13.187
93820SOL    HW183357  12.002   1.405  13.230
93820SOL    HW283358  11.947   1.543  13.258
93821SOL     OW83359  11.510   1.516  12.227
93821SOL    HW183360  11.529   1.487  12.139
93821SOL    HW283361  11.544   1.606  12.231
93822SOL     OW83362   3.601   9.478   6.377
93822SOL    HW183363   3.637   9.559   6.415
93822SOL    HW283364   3.670   9.413   6.390
93823SOL     OW83365  13.887   4.243   0.128
93823SOL    HW183366  13.938   4.173   0.168
93823SOL    HW283367  13.952   4.295   0.080
93824SOL     OW83368   7.356  13.447  11.389
93824SOL    HW183369   7.359  13.386  11.316
93824SOL    HW283370   7.448  13.463  11.412
93825SOL     OW83371  12.831   2.510  10.767
93825SOL    HW183372  12.753   2.455  10.775
93825SOL    HW283373  12.812   2.586  10.822
93826SOL     OW83374   1.646   2.804   9.450
93826SOL    HW183375   1.656   2.889   9.408
93826SOL    HW283376   1.735   2.780   9.475
93827SOL     OW83377   9.549   4.592   0.618
93827SOL    HW183378   9.483   4.655   0.645
93827SOL    HW283379   9.520   4.561   0.532
93828SOL     OW83380   2.314  13.969   8.516
93828SOL    HW183381   2.277  14.009   8.437
93828SOL    HW283382   2.238  13.949   8.571
93829SOL     OW83383   6.807  12.727   6.663
93829SOL    HW183384   6.743  12.701   6.729
93829SOL    HW283385   6.882  12.758   6.714
93830SOL     OW83386   9.249   1.449   8.398
93830SOL    HW183387   9.285   1.361   8.387
93830SOL    HW283388   9.155   1.438   8.387
93831SOL     OW83389   6.716  13.460   6.669
93831SOL    HW183390   6.679  13.434   6.754
93831SOL    HW283391   6.757  13.380   6.636
93832SOL     OW83392  12.910  12.476  11.733
93832SOL    HW183393  12.930  12.551  11.677
93832SOL    HW283394  12.882  12.515  11.816
93833SOL     OW83395   2.755   8.131   2.668
93833SOL    HW183396   2.680   8.189   2.671
93833SOL    HW283397   2.717   8.043   2.668
93834SOL     OW83398   9.569   0.283   8.320
93834SOL    HW183399   9.546   0.235   8.240
93834SOL    HW283400   9.641   0.233   8.358
93835SOL     OW83401  11.493   1.908   3.878
93835SOL    HW183402  11.543   1.964   3.819
93835SOL    HW283403  11.401   1.928   3.858
93836SOL     OW83404   4.115   4.249  13.145
93836SOL    HW183405   4.181   4.313  13.119
93836SOL    HW283406   4.094   4.202  13.064
93837SOL     OW83407  14.419   3.500   8.160
93837SOL    HW183408  14.333   3.484   8.198
93837SOL    HW283409  14.445   3.585   8.196
93838SOL     OW83410   6.152   5.903   8.482
93838SOL    HW183411   6.222   5.841   8.462
93838SOL    HW283412   6.167   5.929   8.572
93839SOL     OW83413  12.929   4.982  11.844
93839SOL    HW183414  12.888   4.906  11.886
93839SOL    HW283415  12.923   4.964  11.751
93840SOL     OW83416   9.941   7.272  12.058
93840SOL    HW183417   9.979   7.276  11.970
93840SOL    HW283418  10.015   7.249  12.115
93841SOL     OW83419   9.566  12.169   4.662
93841SOL    HW183420   9.508  12.100   4.630
93841SOL    HW283421   9.628  12.184   4.591
93842SOL     OW83422  10.128   9.966   9.871
93842SOL    HW183423  10.108   9.895   9.810
93842SOL    HW283424  10.055   9.967   9.933
93843SOL     OW83425   7.625  10.056  12.467
93843SOL    HW183426   7.641  10.124  12.534
93843SOL    HW283427   7.577  10.102  12.398
93844SOL     OW83428   1.312  12.089   1.593
93844SOL    HW183429   1.320  11.996   1.615
93844SOL    HW283430   1.402  12.120   1.589
93845SOL     OW83431   1.142   5.342   0.498
93845SOL    HW183432   1.198   5.317   0.424
93845SOL    HW283433   1.053   5.322   0.469
93846SOL     OW83434   8.873   4.043   2.785
93846SOL    HW183435   8.906   4.119   2.737
93846SOL    HW283436   8.885   4.065   2.877
93847SOL     OW83437  12.949  10.123  13.791
93847SOL    HW183438  12.906  10.041  13.769
93847SOL    HW283439  12.937  10.132  13.886
93848SOL     OW83440   2.608   2.201  13.169
93848SOL    HW183441   2.655   2.282  13.187
93848SOL    HW283442   2.661   2.133  13.211
93849SOL     OW83443   8.327   5.844   2.554
93849SOL    HW183444   8.378   5.763   2.564
93849SOL    HW283445   8.253   5.832   2.613
93850SOL     OW83446   7.929   3.179   9.775
93850SOL    HW183447   7.998   3.220   9.826
93850SOL    HW283448   7.849   3.193   9.827
93851SOL     OW83449   3.059   0.112   6.323
93851SOL    HW183450   3.038   0.159   6.404
93851SOL    HW283451   3.152   0.130   6.309
93852SOL     OW83452   6.060   3.577   7.147
93852SOL    HW183453   6.118   3.505   7.173
93852SOL    HW283454   6.071   3.585   7.053
93853SOL     OW83455   4.403   7.804   7.977
93853SOL    HW183456   4.428   7.759   8.058
93853SOL    HW283457   4.322   7.851   7.999
93854SOL     OW83458   4.451  13.425   8.353
93854SOL    HW183459   4.488  13.405   8.439
93854SOL    HW283460   4.357  13.433   8.368
93855SOL     OW83461   6.100  14.201  14.579
93855SOL    HW183462   6.152  14.149  14.517
93855SOL    HW283463   6.064  14.272  14.526
93856SOL     OW83464   0.833   4.408  10.543
93856SOL    HW183465   0.846   4.320  10.577
93856SOL    HW283466   0.823   4.463  10.620
93857SOL     OW83467  11.151   3.880  11.437
93857SOL    HW183468  11.165   3.833  11.354
93857SOL    HW283469  11.238   3.915  11.458
93858SOL     OW83470   0.677  10.227  10.900
93858SOL    HW183471   0.750  10.176  10.865
93858SOL    HW283472   0.660  10.187  10.986
93859SOL     OW83473   3.095   4.426  14.880
93859SOL    HW183474   3.170   4.418   0.052
93859SOL    HW283475   3.068   4.335  14.864
93860SOL     OW83476  13.132   4.077   0.412
93860SOL    HW183477  13.184   4.131   0.351
93860SOL    HW283478  13.145   4.118   0.497
93861SOL     OW83479  10.411   0.379   1.583
93861SOL    HW183480  10.398   0.381   1.488
93861SOL    HW283481  10.471   0.306   1.598
93862SOL     OW83482   8.724   0.779   3.410
93862SOL    HW183483   8.801   0.831   3.384
93862SOL    HW283484   8.703   0.727   3.333
93863SOL     OW83485  11.437   7.755   7.895
93863SOL    HW183486  11.421   7.713   7.810
93863SOL    HW283487  11.396   7.697   7.959
93864SOL     OW83488   5.480  13.379  13.803
93864SOL    HW183489   5.472  13.389  13.897
93864SOL    HW283490   5.390  13.372  13.771
93865SOL     OW83491   3.788   1.011   8.402
93865SOL    HW183492   3.752   1.057   8.326
93865SOL    HW283493   3.746   0.925   8.399
93866SOL     OW83494  11.670  14.702  14.266
93866SOL    HW183495  11.727  14.717  14.342
93866SOL    HW283496  11.624  14.785  14.254
93867SOL     OW83497   9.469   5.609   2.903
93867SOL    HW183498   9.429   5.631   2.819
93867SOL    HW283499   9.563   5.604   2.884
93868SOL     OW83500   0.819   2.965  12.758
93868SOL    HW183501   0.728   2.940  12.742
93868SOL    HW283502   0.814   3.055  12.790
93869SOL     OW83503   1.237  11.054  14.118
93869SOL    HW183504   1.203  11.008  14.041
93869SOL    HW283505   1.294  10.991  14.161
93870SOL     OW83506   8.423   5.204   1.276
93870SOL    HW183507   8.375   5.255   1.211
93870SOL    HW283508   8.368   5.127   1.290
93871SOL     OW83509   5.014   2.374   9.888
93871SOL    HW183510   5.015   2.316   9.812
93871SOL    HW283511   5.106   2.390   9.907
93872SOL     OW83512   7.379   0.560   1.579
93872SOL    HW183513   7.294   0.531   1.611
93872SOL    HW283514   7.441   0.496   1.613
93873SOL     OW83515   4.875   8.032   4.418
93873SOL    HW183516   4.929   8.109   4.434
93873SOL    HW283517   4.895   8.007   4.328
93874SOL     OW83518   8.573   9.172   7.484
93874SOL    HW183519   8.649   9.115   7.492
93874SOL    HW283520   8.609   9.260   7.469
93875SOL     OW83521   9.582   9.778   0.727
93875SOL    HW183522   9.556   9.808   0.640
93875SOL    HW283523   9.654   9.837   0.751
93876SOL     OW83524   3.730  13.541  12.418
93876SOL    HW183525   3.705  13.487  12.343
93876SOL    HW283526   3.802  13.595  12.385
93877SOL     OW83527  12.093   6.305   4.805
93877SOL    HW183528  12.080   6.280   4.896
93877SOL    HW283529  12.040   6.384   4.794
93878SOL     OW83530   4.706  11.514   7.142
93878SOL    HW183531   4.616  11.494   7.120
93878SOL    HW283532   4.753  11.510   7.059
93879SOL     OW83533   4.678   9.460   9.278
93879SOL    HW183534   4.772   9.475   9.281
93879SOL    HW283535   4.668   9.365   9.269
93880SOL     OW83536   8.091  13.002  10.318
93880SOL    HW183537   8.021  13.066  10.304
93880SOL    HW283538   8.046  12.919  10.331
93881SOL     OW83539   7.665   4.929  12.648
93881SOL    HW183540   7.601   4.995  12.673
93881SOL    HW283541   7.721   4.973  12.584
93882SOL     OW83542  14.210   9.799   9.483
93882SOL    HW183543  14.136   9.855   9.458
93882SOL    HW283544  14.184   9.712   9.454
93883SOL     OW83545  13.109   6.917   6.457
93883SOL    HW183546  13.065   6.856   6.398
93883SOL    HW283547  13.188   6.871   6.484
93884SOL     OW83548   1.505  14.756   6.394
93884SOL    HW183549   1.490  14.672   6.352
93884SOL    HW283550   1.462  14.748   6.480
93885SOL     OW83551  13.072   3.152   9.133
93885SOL    HW183552  13.158   3.156   9.090
93885SOL    HW283553  13.032   3.071   9.101
93886SOL     OW83554   2.878  14.467   1.112
93886SOL    HW183555   2.832  14.477   1.028
93886SOL    HW283556   2.860  14.549   1.159
93887SOL     OW83557  12.097   8.346   5.799
93887SOL    HW183558  12.044   8.321   5.874
93887SOL    HW283559  12.149   8.421   5.829
93888SOL     OW83560   0.461   1.463   2.617
93888SOL    HW183561   0.462   1.394   2.551
93888SOL    HW283562   0.548   1.459   2.657
93889SOL     OW83563  14.486  11.112  11.977
93889SOL    HW183564  14.470  11.166  12.054
93889SOL    HW283565  14.404  11.116  11.928
93890SOL     OW83566   0.740   6.120  13.161
93890SOL    HW183567   0.802   6.192  13.172
93890SOL    HW283568   0.706   6.103  13.249
93891SOL     OW83569   2.425  12.644  10.155
93891SOL    HW183570   2.330  12.650  10.148
93891SOL    HW283571   2.442  12.552  10.174
93892SOL     OW83572   1.889   9.428  11.137
93892SOL    HW183573   1.853   9.345  11.105
93892SOL    HW283574   1.970   9.403  11.182
93893SOL     OW83575   7.387  14.185   6.666
93893SOL    HW183576   7.334  14.264   6.665
93893SOL    HW283577   7.476  14.215   6.647
93894SOL     OW83578   4.174   7.482   2.669
93894SOL    HW183579   4.212   7.423   2.603
93894SOL    HW283580   4.087   7.503   2.635
93895SOL     OW83581   3.046   5.933   5.837
93895SOL    HW183582   2.972   5.987   5.810
93895SOL    HW283583   3.021   5.900   5.923
93896SOL     OW83584   9.498   7.061  12.576
93896SOL    HW183585   9.532   6.972  12.575
93896SOL    HW283586   9.560   7.111  12.522
93897SOL     OW83587  10.771   4.825  10.715
93897SOL    HW183588  10.796   4.744  10.671
93897SOL    HW283589  10.842   4.842  10.777
93898SOL     OW83590  14.029  12.961   2.859
93898SOL    HW183591  14.001  12.942   2.769
93898SOL    HW283592  13.948  12.963   2.909
93899SOL     OW83593   9.594  10.129   9.569
93899SOL    HW183594   9.670  10.186   9.581
93899SOL    HW283595   9.553  10.161   9.489
93900SOL     OW83596  12.437   3.666  11.865
93900SOL    HW183597  12.343   3.667  11.883
93900SOL    HW283598  12.443   3.648  11.771
93901SOL     OW83599   4.392  10.023   1.651
93901SOL    HW183600   4.296  10.026   1.661
93901SOL    HW283601   4.407   9.960   1.581
93902SOL     OW83602  13.901  14.203   5.474
93902SOL    HW183603  13.839  14.178   5.543
93902SOL    HW283604  13.970  14.251   5.519
93903SOL     OW83605   5.123  10.847   9.509
93903SOL    HW183606   5.179  10.776   9.541
93903SOL    HW283607   5.086  10.885   9.589
93904SOL     OW83608   6.558   3.127  12.638
93904SOL    HW183609   6.510   3.167  12.710
93904SOL    HW283610   6.638   3.093  12.678
93905SOL     OW83611  10.270   2.754   8.356
93905SOL    HW183612  10.355   2.747   8.312
93905SOL    HW283613  10.246   2.846   8.349
93906SOL     OW83614   4.360   4.164   2.904
93906SOL    HW183615   4.320   4.169   2.817
93906SOL    HW283616   4.454   4.172   2.888
93907SOL     OW83617   9.106  11.050   1.085
93907SOL    HW183618   9.121  10.966   1.129
93907SOL    HW283619   9.076  11.109   1.154
93908SOL     OW83620   8.156   7.135   0.640
93908SOL    HW183621   8.225   7.079   0.675
93908SOL    HW283622   8.203   7.211   0.605
93909SOL     OW83623   7.295   6.181   0.605
93909SOL    HW183624   7.303   6.191   0.699
93909SOL    HW283625   7.302   6.087   0.589
93910SOL     OW83626   7.578   9.045   4.988
93910SOL    HW183627   7.518   9.045   5.063
93910SOL    HW283628   7.535   9.100   4.923
93911SOL     OW83629  10.388   3.606   8.626
93911SOL    HW183630  10.295   3.618   8.609
93911SOL    HW283631  10.431   3.635   8.546
93912SOL     OW83632  11.333  11.498  14.631
93912SOL    HW183633  11.372  11.413  14.608
93912SOL    HW283634  11.248  11.475  14.668
93913SOL     OW83635   9.972  13.964  14.848
93913SOL    HW183636  10.003  13.884  14.805
93913SOL    HW283637   9.975  13.943   0.054
93914SOL     OW83638   7.665  10.549   7.540
93914SOL    HW183639   7.595  10.609   7.516
93914SOL    HW283640   7.620  10.467   7.560
93915SOL     OW83641   7.435  13.706   8.952
93915SOL    HW183642   7.424  13.790   8.998
93915SOL    HW283643   7.529  13.701   8.932
93916SOL     OW83644  12.168   5.382  11.967
93916SOL    HW183645  12.128   5.445  11.907
93916SOL    HW283646  12.110   5.380  12.043
93917SOL     OW83647   8.110  14.094   3.441
93917SOL    HW183648   8.031  14.106   3.389
93917SOL    HW283649   8.130  14.000   3.433
93918SOL     OW83650   1.350  12.780   5.580
93918SOL    HW183651   1.293  12.842   5.625
93918SOL    HW283652   1.292  12.709   5.553
93919SOL     OW83653   6.697  13.832   2.297
93919SOL    HW183654   6.604  13.836   2.319
93919SOL    HW283655   6.739  13.801   2.378
93920SOL     OW83656   2.643   0.732  12.514
93920SOL    HW183657   2.654   0.638  12.504
93920SOL    HW283658   2.559   0.740  12.560
93921SOL     OW83659   3.045   6.180  10.145
93921SOL    HW183660   3.118   6.127  10.177
93921SOL    HW283661   3.070   6.270  10.164
93922SOL     OW83662   2.960  13.648   8.304
93922SOL    HW183663   3.050  13.674   8.284
93922SOL    HW283664   2.939  13.693   8.385
93923SOL     OW83665  10.935  12.450  11.609
93923SOL    HW183666  10.881  12.527  11.595
93923SOL    HW283667  11.008  12.482  11.663
93924SOL     OW83668   5.670  13.281   1.863
93924SOL    HW183669   5.700  13.338   1.793
93924SOL    HW283670   5.633  13.341   1.928
93925SOL     OW83671  12.495   2.303   4.042
93925SOL    HW183672  12.459   2.263   4.121
93925SOL    HW283673  12.421   2.307   3.981
93926SOL     OW83674   1.134  11.362   1.849
93926SOL    HW183675   1.161  11.377   1.758
93926SOL    HW283676   1.207  11.313   1.888
93927SOL     OW83677   1.167  10.301   1.539
93927SOL    HW183678   1.156  10.252   1.620
93927SOL    HW283679   1.080  10.299   1.498
93928SOL     OW83680   5.238   5.755   7.035
93928SOL    HW183681   5.211   5.717   7.119
93928SOL    HW283682   5.161   5.802   7.004
93929SOL     OW83683  13.741   8.492   8.472
93929SOL    HW183684  13.685   8.416   8.460
93929SOL    HW283685  13.688   8.566   8.442
93930SOL     OW83686   5.505   3.685   1.308
93930SOL    HW183687   5.467   3.765   1.342
93930SOL    HW283688   5.539   3.640   1.385
93931SOL     OW83689   3.664   3.460   9.610
93931SOL    HW183690   3.690   3.552   9.612
93931SOL    HW283691   3.721   3.420   9.545
93932SOL     OW83692   9.751   0.018   8.346
93932SOL    HW183693   9.779   0.003   8.256
93932SOL    HW283694   9.700  14.828   8.369
93933SOL     OW83695   6.416   9.497   6.170
93933SOL    HW183696   6.407   9.560   6.099
93933SOL    HW283697   6.472   9.428   6.134
93934SOL     OW83698   0.657   1.309   8.711
93934SOL    HW183699   0.615   1.376   8.766
93934SOL    HW283700   0.618   1.322   8.625
93935SOL     OW83701  12.146   1.640   8.726
93935SOL    HW183702  12.168   1.639   8.819
93935SOL    HW283703  12.208   1.579   8.686
93936SOL     OW83704  12.713   7.006   4.558
93936SOL    HW183705  12.748   7.077   4.611
93936SOL    HW283706  12.788   6.948   4.543
93937SOL     OW83707  13.627   1.347   3.004
93937SOL    HW183708  13.543   1.304   3.019
93937SOL    HW283709  13.689   1.275   2.989
93938SOL     OW83710  11.536  14.457   9.103
93938SOL    HW183711  11.491  14.506   9.035
93938SOL    HW283712  11.599  14.402   9.056
93939SOL     OW83713  13.790   8.735   4.439
93939SOL    HW183714  13.697   8.756   4.449
93939SOL    HW283715  13.792   8.640   4.431
93940SOL     OW83716   2.575  11.847   0.993
93940SOL    HW183717   2.578  11.882   0.904
93940SOL    HW283718   2.667  11.828   1.014
93941SOL     OW83719  10.373   6.803   3.292
93941SOL    HW183720  10.402   6.828   3.204
93941SOL    HW283721  10.399   6.711   3.301
93942SOL     OW83722   4.262  12.821   2.961
93942SOL    HW183723   4.227  12.732   2.949
93942SOL    HW283724   4.345  12.821   2.914
93943SOL     OW83725  12.618   4.618  11.808
93943SOL    HW183726  12.586   4.534  11.840
93943SOL    HW283727  12.539   4.668  11.788
93944SOL     OW83728   3.721   0.187  12.223
93944SOL    HW183729   3.686   0.262  12.175
93944SOL    HW283730   3.725   0.117  12.158
93945SOL     OW83731  12.981   8.924   9.210
93945SOL    HW183732  13.050   8.967   9.160
93945SOL    HW283733  12.976   8.836   9.173
93946SOL     OW83734   4.593   9.304   0.502
93946SOL    HW183735   4.595   9.400   0.503
93946SOL    HW283736   4.607   9.281   0.410
93947SOL     OW83737   2.129   8.208   6.983
93947SOL    HW183738   2.141   8.148   7.057
93947SOL    HW283739   2.171   8.289   7.011
93948SOL     OW83740   5.999   3.924   6.498
93948SOL    HW183741   5.957   3.841   6.475
93948SOL    HW283742   6.076   3.929   6.441
93949SOL     OW83743  11.581   6.864   3.968
93949SOL    HW183744  11.634   6.794   3.929
93949SOL    HW283745  11.491   6.840   3.945
93950SOL     OW83746   1.288   9.914  13.281
93950SOL    HW183747   1.267   9.822  13.263
93950SOL    HW283748   1.319   9.915  13.371
93951SOL     OW83749   8.243   1.975   2.652
93951SOL    HW183750   8.304   2.048   2.663
93951SOL    HW283751   8.190   1.999   2.576
93952SOL     OW83752   2.891   3.169  13.887
93952SOL    HW183753   2.796   3.168  13.886
93952SOL    HW283754   2.915   3.131  13.972
93953SOL     OW83755  11.635  12.146   7.832
93953SOL    HW183756  11.617  12.066   7.882
93953SOL    HW283757  11.566  12.207   7.860
93954SOL     OW83758   3.279   8.660   1.325
93954SOL    HW183759   3.261   8.567   1.340
93954SOL    HW283760   3.291   8.697   1.412
93955SOL     OW83761   8.785   1.097  11.181
93955SOL    HW183762   8.799   1.076  11.089
93955SOL    HW283763   8.790   1.013  11.226
93956SOL     OW83764   0.160  12.165  11.740
93956SOL    HW183765   0.106  12.095  11.702
93956SOL    HW283766   0.232  12.176  11.677
93957SOL     OW83767   1.586   9.061   8.396
93957SOL    HW183768   1.633   9.108   8.465
93957SOL    HW283769   1.495   9.090   8.405
93958SOL     OW83770   8.329   6.712  13.023
93958SOL    HW183771   8.369   6.781  13.076
93958SOL    HW283772   8.395   6.690  12.957
93959SOL     OW83773   6.243   1.959   3.205
93959SOL    HW183774   6.159   2.002   3.220
93959SOL    HW283775   6.249   1.892   3.272
93960SOL     OW83776   8.793   6.474  14.750
93960SOL    HW183777   8.798   6.386  14.788
93960SOL    HW283778   8.715   6.472  14.695
93961SOL     OW83779   1.935   3.366  11.424
93961SOL    HW183780   1.898   3.402  11.344
93961SOL    HW283781   1.997   3.300  11.395
93962SOL     OW83782  10.049   3.804  14.119
93962SOL    HW183783  10.031   3.834  14.029
93962SOL    HW283784  10.108   3.729  14.108
93963SOL     OW83785  13.092   2.703   5.906
93963SOL    HW183786  13.098   2.725   5.999
93963SOL    HW283787  13.116   2.611   5.901
93964SOL     OW83788   8.764   4.213   6.028
93964SOL    HW183789   8.723   4.273   5.965
93964SOL    HW283790   8.698   4.202   6.096
93965SOL     OW83791  14.776   8.217   7.028
93965SOL    HW183792  14.869   8.227   7.005
93965SOL    HW283793  14.774   8.138   7.083
93966SOL     OW83794   7.764   5.012   6.697
93966SOL    HW183795   7.799   4.924   6.683
93966SOL    HW283796   7.841   5.069   6.699
93967SOL     OW83797   7.240  10.176   1.772
93967SOL    HW183798   7.331  10.168   1.746
93967SOL    HW283799   7.223  10.271   1.768
93968SOL     OW83800   9.375   9.615  12.825
93968SOL    HW183801   9.419   9.542  12.869
93968SOL    HW283802   9.442   9.683  12.819
93969SOL     OW83803  11.724  11.494   1.218
93969SOL    HW183804  11.759  11.419   1.267
93969SOL    HW283805  11.633  11.501   1.247
93970SOL     OW83806  13.989  13.430  14.730
93970SOL    HW183807  13.957  13.411  14.818
93970SOL    HW283808  14.060  13.367  14.716
93971SOL     OW83809   6.843   8.875   0.574
93971SOL    HW183810   6.770   8.917   0.529
93971SOL    HW283811   6.917   8.934   0.561
93972SOL     OW83812   6.134   1.706  14.809
93972SOL    HW183813   6.159   1.636  14.869
93972SOL    HW283814   6.162   1.787  14.853
93973SOL     OW83815   5.659  10.800  11.289
93973SOL    HW183816   5.733  10.751  11.252
93973SOL    HW283817   5.602  10.817  11.214
93974SOL     OW83818   4.779   1.723   0.787
93974SOL    HW183819   4.841   1.721   0.860
93974SOL    HW283820   4.819   1.669   0.719
93975SOL     OW83821   6.464  11.135  10.022
93975SOL    HW183822   6.489  11.134   9.930
93975SOL    HW283823   6.534  11.185  10.065
93976SOL     OW83824  11.979  11.706  14.805
93976SOL    HW183825  11.964  11.786  14.754
93976SOL    HW283826  12.023  11.647  14.744
93977SOL     OW83827   0.848  13.877  14.766
93977SOL    HW183828   0.852  13.856  14.859
93977SOL    HW283829   0.829  13.793  14.723
93978SOL     OW83830   0.640   6.608   1.325
93978SOL    HW183831   0.574   6.588   1.258
93978SOL    HW283832   0.707   6.541   1.314
93979SOL     OW83833   6.414   4.257   7.422
93979SOL    HW183834   6.438   4.338   7.467
93979SOL    HW283835   6.334   4.279   7.374
93980SOL     OW83836  12.334  13.711   9.466
93980SOL    HW183837  12.265  13.645   9.461
93980SOL    HW283838  12.342  13.730   9.560
93981SOL     OW83839   2.356   4.686   8.205
93981SOL    HW183840   2.444   4.650   8.210
93981SOL    HW283841   2.338   4.719   8.293
93982SOL     OW83842  13.764   9.801   6.840
93982SOL    HW183843  13.670   9.800   6.858
93982SOL    HW283844  13.797   9.877   6.888
93983SOL     OW83845   2.143   1.115  10.134
93983SOL    HW183846   2.164   1.170  10.209
93983SOL    HW283847   2.051   1.093  10.144
93984SOL     OW83848   1.034   5.365  11.947
93984SOL    HW183849   0.958   5.335  11.998
93984SOL    HW283850   1.006   5.358  11.856
93985SOL     OW83851   9.141   9.249   1.078
93985SOL    HW183852   9.175   9.164   1.051
93985SOL    HW283853   9.212   9.311   1.057
93986SOL     OW83854  12.963   9.816   6.705
93986SOL    HW183855  12.914   9.831   6.624
93986SOL    HW283856  12.982   9.722   6.705
93987SOL     OW83857   1.950   0.681   7.378
93987SOL    HW183858   1.886   0.750   7.396
93987SOL    HW283859   2.027   0.705   7.430
93988SOL     OW83860  12.454  13.427  10.300
93988SOL    HW183861  12.447  13.336  10.268
93988SOL    HW283862  12.546  13.449  10.289
93989SOL     OW83863   1.838   3.811   4.245
93989SOL    HW183864   1.866   3.901   4.227
93989SOL    HW283865   1.896   3.781   4.315
93990SOL     OW83866   3.239  11.665   9.882
93990SOL    HW183867   3.187  11.718   9.822
93990SOL    HW283868   3.322  11.652   9.837
93991SOL     OW83869  13.611  10.969   7.760
93991SOL    HW183870  13.593  11.051   7.713
93991SOL    HW283871  13.546  10.968   7.830
93992SOL     OW83872   9.322  14.188  10.280
93992SOL    HW183873   9.374  14.260  10.244
93992SOL    HW283874   9.387  14.125  10.311
93993SOL     OW83875   8.427  14.002  13.116
93993SOL    HW183876   8.412  13.913  13.147
93993SOL    HW283877   8.371  14.010  13.038
93994SOL     OW83878   3.805   6.795   6.698
93994SOL    HW183879   3.874   6.750   6.747
93994SOL    HW283880   3.727   6.742   6.712
93995SOL     OW83881   2.647  11.046  12.443
93995SOL    HW183882   2.628  11.019  12.533
93995SOL    HW283883   2.634  10.967  12.391
93996SOL     OW83884  11.649  14.714   3.932
93996SOL    HW183885  11.664  14.777   4.002
93996SOL    HW283886  11.572  14.665   3.961
93997SOL     OW83887   5.738   0.617   7.778
93997SOL    HW183888   5.645   0.611   7.757
93997SOL    HW283889   5.771   0.686   7.721
93998SOL     OW83890   5.940   8.829   0.479
93998SOL    HW183891   5.856   8.792   0.504
93998SOL    HW283892   5.946   8.816   0.384
93999SOL     OW83893   2.752  10.365  14.633
93999SOL    HW183894   2.659  10.390  14.636
93999SOL    HW283895   2.750  10.269  14.623
94000SOL     OW83896   3.771   0.181  11.324
94000SOL    HW183897   3.857   0.204  11.358
94000SOL    HW283898   3.758   0.240  11.250
94001SOL     OW83899   5.301   7.457  11.617
94001SOL    HW183900   5.381   7.422  11.579
94001SOL    HW283901   5.231   7.411  11.570
94002SOL     OW83902   4.382   0.015  11.268
94002SOL    HW183903   4.453  14.846  11.299
94002SOL    HW283904   4.302  14.858  11.296
94003SOL     OW83905  13.998  14.819   1.630
94003SOL    HW183906  13.946  14.740   1.642
94003SOL    HW283907  14.082  14.788   1.596
94004SOL     OW83908   0.010   5.222   3.957
94004SOL    HW183909   0.029   5.185   3.871
94004SOL    HW283910  14.821   5.172   3.988
94005SOL     OW83911   7.731   5.293  12.631
94005SOL    HW183912   7.790   5.333  12.695
94005SOL    HW283913   7.746   5.341  12.550
94006SOL     OW83914   5.452  12.066  10.516
94006SOL    HW183915   5.441  12.106  10.602
94006SOL    HW283916   5.546  12.066  10.502
94007SOL     OW83917  11.125  12.417   5.589
94007SOL    HW183918  11.093  12.476   5.520
94007SOL    HW283919  11.091  12.331   5.563
94008SOL     OW83920  10.059   8.620   4.671
94008SOL    HW183921  10.009   8.679   4.727
94008SOL    HW283922   9.998   8.598   4.600
94009SOL     OW83923   7.133   0.180  12.496
94009SOL    HW183924   7.162   0.089  12.490
94009SOL    HW283925   7.126   0.197  12.590
94010SOL     OW83926  11.380   5.437  13.314
94010SOL    HW183927  11.397   5.344  13.332
94010SOL    HW283928  11.293   5.438  13.273
94011SOL     OW83929  13.006  12.961  12.496
94011SOL    HW183930  13.083  12.913  12.529
94011SOL    HW283931  12.932  12.915  12.534
94012SOL     OW83932  12.684  11.901  11.017
94012SOL    HW183933  12.779  11.891  11.016
94012SOL    HW283934  12.657  11.887  10.926
94013SOL     OW83935   0.483  14.095   6.096
94013SOL    HW183936   0.471  14.108   6.190
94013SOL    HW283937   0.443  14.010   6.078
94014SOL     OW83938   4.089   1.736   9.550
94014SOL    HW183939   4.159   1.794   9.580
94014SOL    HW283940   4.086   1.666   9.616
94015SOL     OW83941   1.648   2.166   1.842
94015SOL    HW183942   1.562   2.208   1.842
94015SOL    HW283943   1.633   2.081   1.801
94016SOL     OW83944   8.263   6.729  14.356
94016SOL    HW183945   8.180   6.704  14.397
94016SOL    HW283946   8.292   6.649  14.312
94017SOL     OW83947  11.459  11.489   0.690
94017SOL    HW183948  11.444  11.415   0.631
94017SOL    HW283949  11.510  11.551   0.639
94018SOL     OW83950   7.659   8.322   4.950
94018SOL    HW183951   7.657   8.362   5.037
94018SOL    HW283952   7.656   8.396   4.889
94019SOL     OW83953   4.520   6.652   1.987
94019SOL    HW183954   4.572   6.628   1.910
94019SOL    HW283955   4.456   6.715   1.955
94020SOL     OW83956   4.351  11.401   6.749
94020SOL    HW183957   4.428  11.349   6.771
94020SOL    HW283958   4.355  11.476   6.808
94021SOL     OW83959   8.957   8.460  12.298
94021SOL    HW183960   8.961   8.380  12.351
94021SOL    HW283961   9.001   8.437  12.216
94022SOL     OW83962   4.668   9.350   2.849
94022SOL    HW183963   4.671   9.370   2.756
94022SOL    HW283964   4.759   9.358   2.879
94023SOL     OW83965   2.213  13.178   5.215
94023SOL    HW183966   2.220  13.115   5.287
94023SOL    HW283967   2.248  13.131   5.139
94024SOL     OW83968  10.945  11.988   7.644
94024SOL    HW183969  10.968  11.911   7.592
94024SOL    HW283970  10.901  11.953   7.721
94025SOL     OW83971   8.235   1.411   3.514
94025SOL    HW183972   8.326   1.387   3.530
94025SOL    HW283973   8.231   1.430   3.421
94026SOL     OW83974   0.953   2.301   1.179
94026SOL    HW183975   1.044   2.296   1.150
94026SOL    HW283976   0.945   2.231   1.244
94027SOL     OW83977  11.740   6.436  10.955
94027SOL    HW183978  11.815   6.488  10.984
94027SOL    HW283979  11.716   6.385  11.032
94028SOL     OW83980  10.996   6.542   4.461
94028SOL    HW183981  11.081   6.533   4.504
94028SOL    HW283982  10.966   6.452   4.449
94029SOL     OW83983   7.233  11.955   0.370
94029SOL    HW183984   7.219  11.988   0.281
94029SOL    HW283985   7.150  11.916   0.395
94030SOL     OW83986   8.532   4.386   1.348
94030SOL    HW183987   8.449   4.432   1.358
94030SOL    HW283988   8.530   4.317   1.415
94031SOL     OW83989   5.962   2.882   8.313
94031SOL    HW183990   5.989   2.964   8.270
94031SOL    HW283991   5.870   2.873   8.291
94032SOL     OW83992  10.501  10.157   8.132
94032SOL    HW183993  10.567  10.192   8.193
94032SOL    HW283994  10.482  10.070   8.165
94033SOL     OW83995   5.781   9.086   7.053
94033SOL    HW183996   5.840   9.012   7.067
94033SOL    HW283997   5.804   9.149   7.121
94034SOL     OW83998  11.683   5.056   4.841
94034SOL    HW183999  11.656   4.970   4.873
94034SOL    HW284000  11.651   5.118   4.907
94035SOL     OW84001  10.546  13.584   5.218
94035SOL    HW184002  10.575  13.495   5.239
94035SOL    HW284003  10.523  13.581   5.126
94036SOL     OW84004   4.225  14.305   1.481
94036SOL    HW184005   4.218  14.340   1.392
94036SOL    HW284006   4.318  14.290   1.494
94037SOL     OW84007   7.276   9.765  12.777
94037SOL    HW184008   7.353   9.773  12.722
94037SOL    HW284009   7.237   9.682  12.753
94038SOL     OW84010   5.698   9.345   7.873
94038SOL    HW184011   5.742   9.424   7.905
94038SOL    HW284012   5.769   9.281   7.863
94039SOL     OW84013  13.725  14.838  11.810
94039SOL    HW184014  13.691  14.763  11.859
94039SOL    HW284015  13.647  14.885  11.781
94040SOL     OW84016   8.574   5.947   0.032
94040SOL    HW184017   8.650   5.991   0.071
94040SOL    HW284018   8.566   5.865   0.082
94041SOL     OW84019  13.893   6.161  12.237
94041SOL    HW184020  13.980   6.125  12.220
94041SOL    HW284021  13.886   6.164  12.332
94042SOL     OW84022   4.293   2.860   0.468
94042SOL    HW184023   4.320   2.952   0.467
94042SOL    HW284024   4.205   2.862   0.505
94043SOL     OW84025  14.517   5.636   3.375
94043SOL    HW184026  14.481   5.718   3.411
94043SOL    HW284027  14.579   5.606   3.441
94044SOL     OW84028  12.261   1.000  12.449
94044SOL    HW184029  12.273   1.072  12.386
94044SOL    HW284030  12.279   0.921  12.398
94045SOL     OW84031   9.371   5.706   0.770
94045SOL    HW184032   9.322   5.651   0.831
94045SOL    HW284033   9.378   5.654   0.690
94046SOL     OW84034  13.361  13.552   9.754
94046SOL    HW184035  13.292  13.501   9.711
94046SOL    HW284036  13.443  13.515   9.719
94047SOL     OW84037   5.848   1.211  11.494
94047SOL    HW184038   5.798   1.150  11.549
94047SOL    HW284039   5.914   1.156  11.452
94048SOL     OW84040  14.013  13.815  12.068
94048SOL    HW184041  13.991  13.905  12.090
94048SOL    HW284042  13.962  13.762  12.129
94049SOL     OW84043  10.810   5.331  13.519
94049SOL    HW184044  10.726   5.368  13.491
94049SOL    HW284045  10.801   5.322  13.614
94050SOL     OW84046  11.625   6.988   9.880
94050SOL    HW184047  11.704   7.003   9.830
94050SOL    HW284048  11.615   6.893   9.882
94051SOL     OW84049   3.439   0.890   8.088
94051SOL    HW184050   3.368   0.828   8.105
94051SOL    HW284051   3.519   0.842   8.109
94052SOL     OW84052   1.886   7.813   4.485
94052SOL    HW184053   1.928   7.821   4.400
94052SOL    HW284054   1.795   7.837   4.469
94053SOL     OW84055  11.450   6.128   7.211
94053SOL    HW184056  11.506   6.146   7.286
94053SOL    HW284057  11.384   6.198   7.212
94054SOL     OW84058   0.487   8.247   7.567
94054SOL    HW184059   0.421   8.240   7.498
94054SOL    HW284060   0.570   8.252   7.520
94055SOL     OW84061   3.678  11.973   4.350
94055SOL    HW184062   3.700  11.970   4.444
94055SOL    HW284063   3.698  12.063   4.324
94056SOL     OW84064  13.717   0.838   3.216
94056SOL    HW184065  13.789   0.800   3.267
94056SOL    HW284066  13.638   0.808   3.261
94057SOL     OW84067   5.868   6.120   2.622
94057SOL    HW184068   5.851   6.034   2.585
94057SOL    HW284069   5.800   6.176   2.584
94058SOL     OW84070   6.057   9.536   8.229
94058SOL    HW184071   6.106   9.593   8.288
94058SOL    HW284072   5.995   9.594   8.185
94059SOL     OW84073   5.421   2.423   0.788
94059SOL    HW184074   5.371   2.405   0.708
94059SOL    HW284075   5.512   2.412   0.762
94060SOL     OW84076   4.237   3.422   9.607
94060SOL    HW184077   4.209   3.338   9.643
94060SOL    HW284078   4.157   3.473   9.599
94061SOL     OW84079   6.135   5.909   1.062
94061SOL    HW184080   6.161   5.824   1.095
94061SOL    HW284081   6.212   5.941   1.014
94062SOL     OW84082   7.853   0.668   0.692
94062SOL    HW184083   7.909   0.593   0.673
94062SOL    HW284084   7.914   0.740   0.709
94063SOL     OW84085   2.860   0.516  10.989
94063SOL    HW184086   2.831   0.456  11.058
94063SOL    HW284087   2.883   0.597  11.035
94064SOL     OW84088   6.543   5.292   7.219
94064SOL    HW184089   6.500   5.377   7.209
94064SOL    HW284090   6.625   5.312   7.265
94065SOL     OW84091   6.982   0.227   7.595
94065SOL    HW184092   6.901   0.237   7.546
94065SOL    HW284093   6.957   0.180   7.675
94066SOL     OW84094   2.155  13.906   2.722
94066SOL    HW184095   2.072  13.863   2.744
94066SOL    HW284096   2.132  13.969   2.654
94067SOL     OW84097   3.724   6.645   5.944
94067SOL    HW184098   3.750   6.566   5.992
94067SOL    HW284099   3.646   6.676   5.990
94068SOL     OW84100   8.740   3.542  11.378
94068SOL    HW184101   8.772   3.535  11.288
94068SOL    HW284102   8.758   3.456  11.415
94069SOL     OW84103   5.519   0.234   4.093
94069SOL    HW184104   5.576   0.186   4.033
94069SOL    HW284105   5.576   0.262   4.164
94070SOL     OW84106   4.450   5.303   3.543
94070SOL    HW184107   4.359   5.333   3.543
94070SOL    HW284108   4.475   5.300   3.635
94071SOL     OW84109   9.378   4.524  12.869
94071SOL    HW184110   9.428   4.515  12.950
94071SOL    HW284111   9.318   4.449  12.869
94072SOL     OW84112   2.668  10.338  13.034
94072SOL    HW184113   2.654  10.362  12.943
94072SOL    HW284114   2.581  10.324  13.070
94073SOL     OW84115  10.745   4.670  13.475
94073SOL    HW184116  10.748   4.765  13.486
94073SOL    HW284117  10.830   4.647  13.437
94074SOL     OW84118   5.821   8.741   2.219
94074SOL    HW184119   5.746   8.707   2.170
94074SOL    HW284120   5.812   8.836   2.212
94075SOL     OW84121   0.296  14.259   7.622
94075SOL    HW184122   0.254  14.340   7.651
94075SOL    HW284123   0.237  14.190   7.652
94076SOL     OW84124  11.006   2.299   9.993
94076SOL    HW184125  10.913   2.304  10.016
94076SOL    HW284126  11.040   2.228  10.047
94077SOL     OW84127  12.405  13.525   2.118
94077SOL    HW184128  12.379  13.569   2.036
94077SOL    HW284129  12.377  13.585   2.187
94078SOL     OW84130   3.728   6.126   5.598
94078SOL    HW184131   3.723   6.194   5.530
94078SOL    HW284132   3.656   6.067   5.578
94079SOL     OW84133   3.406  13.880   9.641
94079SOL    HW184134   3.316  13.912   9.635
94079SOL    HW284135   3.460  13.955   9.615
94080SOL     OW84136  11.992  13.798   1.079
94080SOL    HW184137  11.941  13.879   1.065
94080SOL    HW284138  11.928  13.735   1.112
94081SOL     OW84139   3.787  10.725   8.019
94081SOL    HW184140   3.770  10.762   7.932
94081SOL    HW284141   3.882  10.725   8.027
94082SOL     OW84142  12.513   3.355   1.109
94082SOL    HW184143  12.493   3.271   1.153
94082SOL    HW284144  12.606   3.350   1.088
94083SOL     OW84145  14.064  11.289   3.291
94083SOL    HW184146  14.077  11.205   3.334
94083SOL    HW284147  14.024  11.267   3.207
94084SOL     OW84148   4.636  12.034  10.170
94084SOL    HW184149   4.692  12.073  10.238
94084SOL    HW284150   4.571  11.985  10.219
94085SOL     OW84151  14.424   1.380   6.392
94085SOL    HW184152  14.478   1.319   6.340
94085SOL    HW284153  14.487   1.437   6.434
94086SOL     OW84154  11.241   5.996   0.483
94086SOL    HW184155  11.293   5.953   0.416
94086SOL    HW284156  11.185   5.927   0.519
94087SOL     OW84157   1.561   8.784   3.059
94087SOL    HW184158   1.560   8.726   2.983
94087SOL    HW284159   1.470   8.811   3.070
94088SOL     OW84160   5.606  14.270   7.852
94088SOL    HW184161   5.543  14.297   7.785
94088SOL    HW284162   5.579  14.316   7.931
94089SOL     OW84163   1.095   4.739   3.956
94089SOL    HW184164   1.147   4.709   3.880
94089SOL    HW284165   1.026   4.673   3.965
94090SOL     OW84166   6.655   3.323   5.855
94090SOL    HW184167   6.577   3.333   5.908
94090SOL    HW284168   6.728   3.327   5.917
94091SOL     OW84169  12.722  14.433   5.786
94091SOL    HW184170  12.743  14.518   5.747
94091SOL    HW284171  12.721  14.372   5.713
94092SOL     OW84172   1.105   5.170  14.409
94092SOL    HW184173   1.099   5.242  14.471
94092SOL    HW284174   1.115   5.092  14.464
94093SOL     OW84175  14.136  14.587   1.148
94093SOL    HW184176  14.148  14.666   1.201
94093SOL    HW284177  14.224  14.548   1.144
94094SOL     OW84178   7.018   3.143   3.967
94094SOL    HW184179   6.999   3.210   4.033
94094SOL    HW284180   7.038   3.193   3.888
94095SOL     OW84181   5.721   4.116   7.508
94095SOL    HW184182   5.757   4.067   7.434
94095SOL    HW284183   5.787   4.108   7.576
94096SOL     OW84184  12.075   1.604   1.187
94096SOL    HW184185  12.009   1.635   1.249
94096SOL    HW284186  12.141   1.563   1.241
94097SOL     OW84187  10.788  13.720   1.478
94097SOL    HW184188  10.712  13.702   1.423
94097SOL    HW284189  10.831  13.795   1.437
94098SOL     OW84190   0.810  14.162   0.548
94098SOL    HW184191   0.867  14.229   0.587
94098SOL    HW284192   0.754  14.134   0.621
94099SOL     OW84193   9.736   1.480   7.283
94099SOL    HW184194   9.677   1.429   7.338
94099SOL    HW284195   9.823   1.442   7.298
94100SOL     OW84196   2.617   5.145   4.687
94100SOL    HW184197   2.536   5.192   4.706
94100SOL    HW284198   2.640   5.170   4.598
94101SOL     OW84199   4.542  10.703   1.849
94101SOL    HW184200   4.584  10.711   1.763
94101SOL    HW284201   4.487  10.782   1.855
94102SOL     OW84202   2.275   3.962   2.760
94102SOL    HW184203   2.196   3.918   2.792
94102SOL    HW284204   2.295   4.027   2.827
94103SOL     OW84205  13.432   0.708   2.319
94103SOL    HW184206  13.474   0.708   2.405
94103SOL    HW284207  13.425   0.615   2.296
94104SOL     OW84208   8.739   7.936   0.385
94104SOL    HW184209   8.805   7.981   0.438
94104SOL    HW284210   8.686   7.887   0.448
94105SOL     OW84211   8.510   1.796   0.255
94105SOL    HW184212   8.500   1.715   0.205
94105SOL    HW284213   8.551   1.857   0.194
94106SOL     OW84214  11.536   4.293   3.005
94106SOL    HW184215  11.517   4.358   3.072
94106SOL    HW284216  11.530   4.341   2.923
94107SOL     OW84217   7.351  14.208  12.358
94107SOL    HW184218   7.378  14.226  12.268
94107SOL    HW284219   7.427  14.232  12.412
94108SOL     OW84220  11.285   1.614   6.577
94108SOL    HW184221  11.370   1.611   6.534
94108SOL    HW284222  11.306   1.629   6.670
94109SOL     OW84223  10.930  14.592  12.937
94109SOL    HW184224  10.945  14.620  12.847
94109SOL    HW284225  10.954  14.499  12.938
94110SOL     OW84226  10.915   5.703   8.554
94110SOL    HW184227  10.990   5.697   8.495
94110SOL    HW284228  10.846   5.741   8.499
94111SOL     OW84229   2.887   2.864   0.097
94111SOL    HW184230   2.832   2.861   0.019
94111SOL    HW284231   2.913   2.956   0.104
94112SOL     OW84232   1.237   8.572   8.184
94112SOL    HW184233   1.272   8.513   8.117
94112SOL    HW284234   1.277   8.542   8.265
94113SOL     OW84235  11.376  14.269  11.901
94113SOL    HW184236  11.340  14.214  11.832
94113SOL    HW284237  11.343  14.230  11.982
94114SOL     OW84238   5.479  11.591  12.051
94114SOL    HW184239   5.388  11.615  12.065
94114SOL    HW284240   5.477  11.528  11.979
94115SOL     OW84241   4.053   5.934   3.459
94115SOL    HW184242   4.144   5.950   3.482
94115SOL    HW284243   4.044   5.838   3.463
94116SOL     OW84244  12.486   6.919   2.898
94116SOL    HW184245  12.565   6.917   2.845
94116SOL    HW284246  12.444   7.002   2.876
94117SOL     OW84247   0.429   1.474   3.826
94117SOL    HW184248   0.383   1.488   3.743
94117SOL    HW284249   0.369   1.417   3.876
94118SOL     OW84250   5.786   2.166  14.671
94118SOL    HW184251   5.746   2.124  14.595
94118SOL    HW284252   5.758   2.112  14.746
94119SOL     OW84253   8.896  13.240   6.290
94119SOL    HW184254   8.802  13.262   6.292
94119SOL    HW284255   8.899  13.147   6.313
94120SOL     OW84256   3.676   6.530   7.494
94120SOL    HW184257   3.753   6.554   7.545
94120SOL    HW284258   3.612   6.502   7.559
94121SOL     OW84259  12.492  12.468  10.898
94121SOL    HW184260  12.531  12.418  10.825
94121SOL    HW284261  12.563  12.526  10.927
94122SOL     OW84262   7.509  12.107  11.719
94122SOL    HW184263   7.462  12.146  11.646
94122SOL    HW284264   7.477  12.017  11.723
94123SOL     OW84265  13.624   4.669   6.656
94123SOL    HW184266  13.572   4.685   6.577
94123SOL    HW284267  13.653   4.756   6.684
94124SOL     OW84268   1.028   9.586   7.178
94124SOL    HW184269   0.949   9.535   7.159
94124SOL    HW284270   1.014   9.670   7.133
94125SOL     OW84271   3.914   7.077   7.783
94125SOL    HW184272   3.989   7.063   7.726
94125SOL    HW284273   3.896   7.170   7.776
94126SOL     OW84274   6.721   0.602   8.585
94126SOL    HW184275   6.733   0.625   8.677
94126SOL    HW284276   6.659   0.666   8.551
94127SOL     OW84277   1.527   7.407   9.761
94127SOL    HW184278   1.610   7.439   9.798
94127SOL    HW284279   1.550   7.328   9.713
94128SOL     OW84280  12.666   3.013  12.956
94128SOL    HW184281  12.637   2.930  12.917
94128SOL    HW284282  12.750   2.993  12.997
94129SOL     OW84283  12.682   4.219  10.223
94129SOL    HW184284  12.619   4.238  10.293
94129SOL    HW284285  12.629   4.187  10.150
94130SOL     OW84286  13.873   8.865  10.312
94130SOL    HW184287  13.797   8.894  10.260
94130SOL    HW284288  13.936   8.937  10.304
94131SOL     OW84289  12.213  12.497   2.512
94131SOL    HW184290  12.274  12.560   2.549
94131SOL    HW284291  12.145  12.489   2.578
94132SOL     OW84292  10.036   3.990   2.274
94132SOL    HW184293   9.990   4.026   2.198
94132SOL    HW284294  10.116   4.041   2.280
94133SOL     OW84295  11.409  13.051   0.813
94133SOL    HW184296  11.422  13.047   0.719
94133SOL    HW284297  11.498  13.058   0.849
94134SOL     OW84298   3.821  13.875   1.211
94134SOL    HW184299   3.902  13.925   1.222
94134SOL    HW284300   3.850  13.785   1.197
94135SOL     OW84301  12.752   2.011   0.621
94135SOL    HW184302  12.816   1.947   0.650
94135SOL    HW284303  12.764   2.086   0.680
94136SOL     OW84304   4.134  14.634  10.879
94136SOL    HW184305   4.105  14.550  10.846
94136SOL    HW284306   4.230  14.628  10.880
94137SOL     OW84307   6.279   8.826   7.393
94137SOL    HW184308   6.348   8.760   7.395
94137SOL    HW284309   6.264   8.848   7.485
94138SOL     OW84310   2.881   7.390  11.430
94138SOL    HW184311   2.792   7.355  11.427
94138SOL    HW284312   2.928   7.332  11.491
94139SOL     OW84313   3.339   5.930   6.862
94139SOL    HW184314   3.345   5.836   6.882
94139SOL    HW284315   3.389   5.972   6.931
94140SOL     OW84316   3.407   0.811   0.634
94140SOL    HW184317   3.416   0.836   0.726
94140SOL    HW284318   3.420   0.892   0.585
94141SOL     OW84319  11.171   5.435  13.157
94141SOL    HW184320  11.222   5.463  13.081
94141SOL    HW284321  11.100   5.500  13.163
94142SOL     OW84322   5.482   7.187  14.622
94142SOL    HW184323   5.387   7.189  14.630
94142SOL    HW284324   5.513   7.154  14.706
94143SOL     OW84325   8.785  10.766  10.477
94143SOL    HW184326   8.762  10.774  10.570
94143SOL    HW284327   8.705  10.793  10.431
94144SOL     OW84328   1.681   7.638  10.122
94144SOL    HW184329   1.658   7.658  10.031
94144SOL    HW284330   1.642   7.552  10.139
94145SOL     OW84331  13.079   6.160   3.079
94145SOL    HW184332  13.101   6.193   3.166
94145SOL    HW284333  13.152   6.186   3.024
94146SOL     OW84334  10.312   0.521   5.118
94146SOL    HW184335  10.346   0.561   5.038
94146SOL    HW284336  10.292   0.595   5.175
94147SOL     OW84337   1.595   2.036   0.487
94147SOL    HW184338   1.544   2.050   0.567
94147SOL    HW284339   1.568   1.950   0.455
94148SOL     OW84340   3.436   2.614   6.388
94148SOL    HW184341   3.423   2.560   6.467
94148SOL    HW284342   3.449   2.703   6.422
94149SOL     OW84343   1.958  11.616   8.679
94149SOL    HW184344   2.044  11.644   8.649
94149SOL    HW284345   1.898  11.645   8.610
94150SOL     OW84346  14.364   0.757   2.128
94150SOL    HW184347  14.452   0.722   2.137
94150SOL    HW284348  14.362   0.833   2.187
94151SOL     OW84349   2.188  13.051   4.690
94151SOL    HW184350   2.096  13.066   4.710
94151SOL    HW284351   2.188  13.005   4.607
94152SOL     OW84352   6.066   0.511   0.763
94152SOL    HW184353   6.111   0.509   0.848
94152SOL    HW284354   6.089   0.596   0.726
94153SOL     OW84355   0.921   4.757   2.315
94153SOL    HW184356   0.947   4.665   2.309
94153SOL    HW284357   0.842   4.756   2.370
94154SOL     OW84358   4.260  11.486   1.417
94154SOL    HW184359   4.230  11.543   1.488
94154SOL    HW284360   4.180  11.465   1.368
94155SOL     OW84361  10.649  11.244   3.100
94155SOL    HW184362  10.607  11.207   3.178
94155SOL    HW284363  10.654  11.171   3.039
94156SOL     OW84364  14.232   4.574   1.397
94156SOL    HW184365  14.199   4.500   1.346
94156SOL    HW284366  14.252   4.640   1.332
94157SOL     OW84367   2.790   8.625  13.029
94157SOL    HW184368   2.867   8.681  13.029
94157SOL    HW284369   2.743   8.649  12.949
94158SOL     OW84370   4.534   2.949   8.828
94158SOL    HW184371   4.489   2.963   8.912
94158SOL    HW284372   4.589   3.027   8.817
94159SOL     OW84373   8.322   3.919  10.210
94159SOL    HW184374   8.389   3.854  10.230
94159SOL    HW284375   8.345   3.951  10.122
94160SOL     OW84376   2.259  12.065   8.316
94160SOL    HW184377   2.324  12.000   8.291
94160SOL    HW284378   2.259  12.128   8.243
94161SOL     OW84379   3.699  12.130   1.877
94161SOL    HW184380   3.762  12.112   1.946
94161SOL    HW284381   3.625  12.171   1.922
94162SOL     OW84382  10.309  10.556  12.422
94162SOL    HW184383  10.279  10.466  12.435
94162SOL    HW284384  10.394  10.559  12.464
94163SOL     OW84385   9.007   3.562   0.715
94163SOL    HW184386   9.051   3.496   0.769
94163SOL    HW284387   8.914   3.550   0.734
94164SOL     OW84388  10.264  11.793   3.478
94164SOL    HW184389  10.303  11.732   3.541
94164SOL    HW284390  10.173  11.804   3.508
94165SOL     OW84391   4.454   3.438  14.659
94165SOL    HW184392   4.532   3.402  14.616
94165SOL    HW284393   4.414   3.494  14.592
94166SOL     OW84394  11.998   3.667  13.897
94166SOL    HW184395  12.058   3.738  13.918
94166SOL    HW284396  12.053   3.603  13.850
94167SOL     OW84397   6.015  12.111  10.313
94167SOL    HW184398   6.080  12.145  10.375
94167SOL    HW284399   6.033  12.158  10.231
94168SOL     OW84400   8.691   4.996   4.350
94168SOL    HW184401   8.696   5.065   4.416
94168SOL    HW284402   8.783   4.974   4.331
94169SOL     OW84403  11.204  12.355   7.915
94169SOL    HW184404  11.111  12.332   7.908
94169SOL    HW284405  11.207  12.421   7.984
94170SOL     OW84406   4.455  10.338   7.892
94170SOL    HW184407   4.456  10.424   7.850
94170SOL    HW284408   4.542  10.303   7.876
94171SOL     OW84409   1.860  12.040  10.350
94171SOL    HW184410   1.920  12.061  10.421
94171SOL    HW284411   1.869  11.946  10.338
94172SOL     OW84412   9.388  10.376   5.835
94172SOL    HW184413   9.309  10.426   5.815
94172SOL    HW284414   9.359  10.285   5.838
94173SOL     OW84415   1.261   6.849   7.952
94173SOL    HW184416   1.327   6.791   7.991
94173SOL    HW284417   1.178   6.802   7.966
94174SOL     OW84418   0.789   0.584  14.388
94174SOL    HW184419   0.849   0.658  14.400
94174SOL    HW284420   0.804   0.556  14.297
94175SOL     OW84421  11.778   2.250  13.965
94175SOL    HW184422  11.862   2.205  13.953
94175SOL    HW284423  11.751   2.227  14.054
94176SOL     OW84424   1.513   2.617   1.894
94176SOL    HW184425   1.562   2.557   1.950
94176SOL    HW284426   1.434   2.569   1.870
94177SOL     OW84427   4.421  12.810   6.307
94177SOL    HW184428   4.498  12.839   6.257
94177SOL    HW284429   4.350  12.809   6.242
94178SOL     OW84430  12.183   2.711  11.667
94178SOL    HW184431  12.141   2.754  11.592
94178SOL    HW284432  12.145   2.623  11.668
94179SOL     OW84433   0.656   8.978  12.611
94179SOL    HW184434   0.698   9.063  12.627
94179SOL    HW284435   0.601   8.992  12.533
94180SOL     OW84436   3.773  13.917  10.923
94180SOL    HW184437   3.698  13.871  10.887
94180SOL    HW284438   3.810  13.856  10.987
94181SOL     OW84439   1.308   6.013   4.215
94181SOL    HW184440   1.232   5.965   4.183
94181SOL    HW284441   1.324   5.978   4.303
94182SOL     OW84442  12.889   2.768   2.385
94182SOL    HW184443  12.810   2.714   2.381
94182SOL    HW284444  12.876   2.836   2.319
94183SOL     OW84445   4.563   4.559   0.724
94183SOL    HW184446   4.604   4.473   0.711
94183SOL    HW284447   4.478   4.538   0.762
94184SOL     OW84448  10.157  10.812  11.004
94184SOL    HW184449  10.211  10.746  10.961
94184SOL    HW284450  10.082  10.763  11.039
94185SOL     OW84451   4.189   6.600   6.675
94185SOL    HW184452   4.100   6.566   6.661
94185SOL    HW284453   4.214   6.564   6.760
94186SOL     OW84454   7.192  13.043  14.686
94186SOL    HW184455   7.120  13.016  14.629
94186SOL    HW284456   7.159  13.122  14.730
94187SOL     OW84457  14.838   0.309   8.392
94187SOL    HW184458  14.747   0.320   8.422
94187SOL    HW284459  14.885   0.279   8.470
94188SOL     OW84460  10.055   8.956  14.108
94188SOL    HW184461  10.016   9.038  14.139
94188SOL    HW284462   9.983   8.911  14.063
94189SOL     OW84463  12.168  14.479   0.436
94189SOL    HW184464  12.169  14.534   0.514
94189SOL    HW284465  12.140  14.538   0.366
94190SOL     OW84466  13.206   8.374  10.021
94190SOL    HW184467  13.169   8.447  10.071
94190SOL    HW284468  13.217   8.409   9.932
94191SOL     OW84469   0.576  13.737   4.171
94191SOL    HW184470   0.667  13.714   4.151
94191SOL    HW284471   0.554  13.804   4.106
94192SOL     OW84472  11.776   8.677   2.426
94192SOL    HW184473  11.745   8.600   2.474
94192SOL    HW284474  11.718   8.748   2.455
94193SOL     OW84475  11.800   8.410   0.990
94193SOL    HW184476  11.824   8.402   1.083
94193SOL    HW284477  11.854   8.344   0.946
94194SOL     OW84478  12.798  11.917   4.356
94194SOL    HW184479  12.892  11.909   4.339
94194SOL    HW284480  12.790  11.909   4.452
94195SOL     OW84481   9.088   1.654   6.214
94195SOL    HW184482   9.041   1.571   6.221
94195SOL    HW284483   9.115   1.674   6.304
94196SOL     OW84484   6.035   1.283   5.771
94196SOL    HW184485   6.083   1.360   5.803
94196SOL    HW284486   5.945   1.315   5.760
94197SOL     OW84487   8.719   3.928   0.214
94197SOL    HW184488   8.807   3.890   0.209
94197SOL    HW284489   8.699   3.929   0.307
94198SOL     OW84490   9.623   1.930   9.990
94198SOL    HW184491   9.541   1.896  10.026
94198SOL    HW284492   9.598   1.970   9.906
94199SOL     OW84493   1.051   8.675   6.721
94199SOL    HW184494   1.050   8.715   6.634
94199SOL    HW284495   0.961   8.686   6.753
94200SOL     OW84496  12.108   8.502  10.732
94200SOL    HW184497  12.112   8.424  10.787
94200SOL    HW284498  12.170   8.485  10.661
94201SOL     OW84499  11.068   4.518  10.438
94201SOL    HW184500  11.027   4.601  10.412
94201SOL    HW284501  11.100   4.534  10.526
94202SOL     OW84502   6.808   5.228   3.777
94202SOL    HW184503   6.794   5.289   3.705
94202SOL    HW284504   6.806   5.282   3.856
94203SOL     OW84505  11.762   9.149   3.718
94203SOL    HW184506  11.824   9.218   3.742
94203SOL    HW284507  11.799   9.070   3.757
94204SOL     OW84508   2.922  12.188   8.991
94204SOL    HW184509   2.896  12.129   9.061
94204SOL    HW284510   2.961  12.131   8.925
94205SOL     OW84511   8.542   6.299   6.694
94205SOL    HW184512   8.486   6.363   6.650
94205SOL    HW284513   8.510   6.298   6.784
94206SOL     OW84514  10.865  12.830   9.869
94206SOL    HW184515  10.825  12.768   9.930
94206SOL    HW284516  10.959  12.821   9.885
94207SOL     OW84517  10.305   2.902   7.984
94207SOL    HW184518  10.388   2.916   7.940
94207SOL    HW284519  10.239   2.911   7.916
94208SOL     OW84520  11.128  10.185  11.916
94208SOL    HW184521  11.094  10.100  11.944
94208SOL    HW284522  11.216  10.189  11.955
94209SOL     OW84523   1.173   8.566   0.532
94209SOL    HW184524   1.175   8.578   0.437
94209SOL    HW284525   1.205   8.476   0.545
94210SOL     OW84526  12.493   5.740  10.214
94210SOL    HW184527  12.536   5.660  10.243
94210SOL    HW284528  12.413   5.745  10.266
94211SOL     OW84529   7.296   3.897  13.342
94211SOL    HW184530   7.224   3.915  13.281
94211SOL    HW284531   7.352   3.975  13.335
94212SOL     OW84532   9.527   3.579   6.344
94212SOL    HW184533   9.512   3.499   6.295
94212SOL    HW284534   9.543   3.551   6.434
94213SOL     OW84535  10.769   1.172  10.232
94213SOL    HW184536  10.710   1.190  10.304
94213SOL    HW284537  10.848   1.136  10.273
94214SOL     OW84538  12.379   0.206   1.436
94214SOL    HW184539  12.330   0.173   1.361
94214SOL    HW284540  12.429   0.130   1.468
94215SOL     OW84541   8.417   5.564   6.384
94215SOL    HW184542   8.327   5.586   6.409
94215SOL    HW284543   8.440   5.632   6.320
94216SOL     OW84544   8.103   0.527   6.803
94216SOL    HW184545   8.018   0.569   6.814
94216SOL    HW284546   8.088   0.456   6.742
94217SOL     OW84547  10.973   5.885   6.034
94217SOL    HW184548  10.890   5.839   6.046
94217SOL    HW284549  10.986   5.888   5.939
94218SOL     OW84550   0.141   4.028   8.671
94218SOL    HW184551   0.142   4.013   8.765
94218SOL    HW284552   0.048   4.028   8.648
94219SOL     OW84553   8.443   3.526  14.266
94219SOL    HW184554   8.376   3.464  14.238
94219SOL    HW284555   8.398   3.583  14.328
94220SOL     OW84556   6.281   5.788   0.651
94220SOL    HW184557   6.231   5.736   0.714
94220SOL    HW284558   6.369   5.794   0.690
94221SOL     OW84559   6.231   4.489   7.235
94221SOL    HW184560   6.216   4.548   7.309
94221SOL    HW284561   6.316   4.516   7.200
94222SOL     OW84562   6.119  10.304  12.658
94222SOL    HW184563   6.147  10.368  12.594
94222SOL    HW284564   6.067  10.354  12.722
94223SOL     OW84565   6.733   7.624  10.556
94223SOL    HW184566   6.651   7.640  10.602
94223SOL    HW284567   6.707   7.578  10.476
94224SOL     OW84568   6.448   7.710   2.408
94224SOL    HW184569   6.442   7.614   2.401
94224SOL    HW284570   6.540   7.727   2.427
94225SOL     OW84571   0.213   6.195  12.466
94225SOL    HW184572   0.247   6.148  12.390
94225SOL    HW284573   0.284   6.190  12.531
94226SOL     OW84574  12.537   1.724   8.805
94226SOL    HW184575  12.597   1.798   8.793
94226SOL    HW284576  12.500   1.709   8.718
94227SOL     OW84577  13.174   3.863   3.071
94227SOL    HW184578  13.084   3.830   3.074
94227SOL    HW284579  13.215   3.829   3.150
94228SOL     OW84580  10.328   2.980   1.115
94228SOL    HW184581  10.339   2.885   1.119
94228SOL    HW284582  10.370   3.005   1.033
94229SOL     OW84583  11.768  11.052  12.612
94229SOL    HW184584  11.778  11.133  12.561
94229SOL    HW284585  11.800  10.983  12.555
94230SOL     OW84586   6.711  10.500   4.503
94230SOL    HW184587   6.766  10.450   4.563
94230SOL    HW284588   6.626  10.456   4.507
94231SOL     OW84589  11.325   7.030   3.933
94231SOL    HW184590  11.247   7.083   3.950
94231SOL    HW284591  11.291   6.942   3.917
94232SOL     OW84592   8.768   2.125   9.245
94232SOL    HW184593   8.718   2.204   9.267
94232SOL    HW284594   8.781   2.131   9.150
94233SOL     OW84595   3.717  13.235   2.684
94233SOL    HW184596   3.622  13.227   2.677
94233SOL    HW284597   3.736  13.325   2.657
94234SOL     OW84598   4.055   7.510   5.976
94234SOL    HW184599   4.052   7.439   6.040
94234SOL    HW284600   4.012   7.475   5.898
94235SOL     OW84601  12.199   7.531   0.540
94235SOL    HW184602  12.262   7.516   0.609
94235SOL    HW284603  12.146   7.452   0.537
94236SOL     OW84604   1.127  10.456  10.405
94236SOL    HW184605   1.083  10.486  10.325
94236SOL    HW284606   1.218  10.443  10.379
94237SOL     OW84607   6.165  13.099   6.875
94237SOL    HW184608   6.086  13.106   6.929
94237SOL    HW284609   6.134  13.060   6.793
94238SOL     OW84610   0.612   6.804   6.478
94238SOL    HW184611   0.573   6.772   6.560
94238SOL    HW284612   0.538   6.839   6.429
94239SOL     OW84613  12.250  11.962   7.935
94239SOL    HW184614  12.333  11.955   7.982
94239SOL    HW284615  12.221  11.872   7.922
94240SOL     OW84616  13.706   6.315   4.937
94240SOL    HW184617  13.625   6.264   4.948
94240SOL    HW284618  13.773   6.264   4.982
94241SOL     OW84619   4.530   9.839   5.241
94241SOL    HW184620   4.555   9.929   5.218
94241SOL    HW284621   4.613   9.792   5.246
94242SOL     OW84622   4.694   8.697   5.382
94242SOL    HW184623   4.609   8.659   5.364
94242SOL    HW284624   4.678   8.791   5.389
94243SOL     OW84625   0.529   8.187   2.322
94243SOL    HW184626   0.622   8.167   2.317
94243SOL    HW284627   0.515   8.220   2.410
94244SOL     OW84628   0.011   7.926  10.914
94244SOL    HW184629  14.846   7.846  10.918
94244SOL    HW284630   0.095   7.901  10.954
94245SOL     OW84631   4.661  10.699   5.372
94245SOL    HW184632   4.658  10.709   5.277
94245SOL    HW284633   4.746  10.736   5.397
94246SOL     OW84634  12.448   9.095  12.097
94246SOL    HW184635  12.391   9.171  12.089
94246SOL    HW284636  12.388   9.021  12.110
94247SOL     OW84637   8.182   8.788   4.783
94247SOL    HW184638   8.233   8.859   4.744
94247SOL    HW284639   8.238   8.710   4.775
94248SOL     OW84640   5.886   8.004  13.161
94248SOL    HW184641   5.831   8.001  13.240
94248SOL    HW284642   5.967   7.961  13.186
94249SOL     OW84643   9.956   6.667   3.863
94249SOL    HW184644   9.904   6.743   3.889
94249SOL    HW284645   9.967   6.676   3.769
94250SOL     OW84646   2.158   3.372  12.626
94250SOL    HW184647   2.224   3.386  12.693
94250SOL    HW284648   2.099   3.447  12.634
94251SOL     OW84649   2.622   9.024   0.714
94251SOL    HW184650   2.678   9.075   0.655
94251SOL    HW284651   2.633   8.934   0.684
94252SOL     OW84652   6.553   4.729   8.516
94252SOL    HW184653   6.635   4.773   8.537
94252SOL    HW284654   6.494   4.798   8.485
94253SOL     OW84655  11.191   2.832   7.606
94253SOL    HW184656  11.186   2.749   7.559
94253SOL    HW284657  11.143   2.816   7.687
94254SOL     OW84658   2.031   5.800   3.609
94254SOL    HW184659   1.997   5.710   3.606
94254SOL    HW284660   2.042   5.818   3.702
94255SOL     OW84661   2.712   2.655   4.885
94255SOL    HW184662   2.724   2.646   4.791
94255SOL    HW284663   2.627   2.614   4.903
94256SOL     OW84664   4.280   2.917   0.151
94256SOL    HW184665   4.333   2.837   0.155
94256SOL    HW284666   4.256   2.934   0.243
94257SOL     OW84667   8.758   4.661  12.915
94257SOL    HW184668   8.747   4.672  13.009
94257SOL    HW284669   8.809   4.737  12.888
94258SOL     OW84670   0.404   7.406   1.222
94258SOL    HW184671   0.394   7.440   1.311
94258SOL    HW284672   0.318   7.370   1.201
94259SOL     OW84673   6.799   7.443  14.055
94259SOL    HW184674   6.870   7.382  14.034
94259SOL    HW284675   6.750   7.400  14.125
94260SOL     OW84676   1.987  12.425   4.099
94260SOL    HW184677   2.066  12.376   4.121
94260SOL    HW284678   1.923  12.358   4.074
94261SOL     OW84679   3.969   6.751   9.416
94261SOL    HW184680   3.940   6.841   9.403
94261SOL    HW284681   4.023   6.754   9.494
94262SOL     OW84682  13.558   0.122  10.943
94262SOL    HW184683  13.491   0.083  10.886
94262SOL    HW284684  13.564   0.213  10.915
94263SOL     OW84685  12.810   3.358   0.144
94263SOL    HW184686  12.739   3.330   0.087
94263SOL    HW284687  12.838   3.442   0.108
94264SOL     OW84688   0.973  14.667   3.690
94264SOL    HW184689   0.927  14.597   3.736
94264SOL    HW284690   1.038  14.622   3.636
94265SOL     OW84691   9.117   5.713   7.339
94265SOL    HW184692   9.067   5.740   7.416
94265SOL    HW284693   9.077   5.630   7.312
94266SOL     OW84694  11.970   1.755  11.761
94266SOL    HW184695  12.059   1.779  11.787
94266SOL    HW284696  11.962   1.787  11.671
94267SOL     OW84697   7.139  10.435   2.970
94267SOL    HW184698   7.229  10.403   2.975
94267SOL    HW284699   7.139  10.496   2.897
94268SOL     OW84700   4.499  11.831   8.538
94268SOL    HW184701   4.559  11.905   8.529
94268SOL    HW284702   4.433  11.845   8.469
94269SOL     OW84703   4.145  12.910   7.761
94269SOL    HW184704   4.133  12.848   7.689
94269SOL    HW284705   4.238  12.903   7.783
94270SOL     OW84706  13.257  14.160   1.192
94270SOL    HW184707  13.269  14.067   1.208
94270SOL    HW284708  13.278  14.172   1.099
94271SOL     OW84709   7.352  10.912   6.218
94271SOL    HW184710   7.281  10.856   6.186
94271SOL    HW284711   7.328  11.000   6.189
94272SOL     OW84712   2.227   4.240   9.252
94272SOL    HW184713   2.232   4.273   9.342
94272SOL    HW284714   2.315   4.208   9.233
94273SOL     OW84715   5.172   6.866   4.548
94273SOL    HW184716   5.204   6.949   4.582
94273SOL    HW284717   5.081   6.861   4.578
94274SOL     OW84718   1.428  10.019  12.577
94274SOL    HW184719   1.404   9.929  12.599
94274SOL    HW284720   1.499  10.041  12.638
94275SOL     OW84721   9.683   3.736  13.375
94275SOL    HW184722   9.764   3.688  13.391
94275SOL    HW284723   9.614   3.670  13.380
94276SOL     OW84724   6.179  12.260  12.376
94276SOL    HW184725   6.210  12.350  12.375
94276SOL    HW284726   6.156  12.243  12.467
94277SOL     OW84727   6.423  13.600   1.450
94277SOL    HW184728   6.435  13.670   1.513
94277SOL    HW284729   6.347  13.551   1.482
94278SOL     OW84730   5.707  10.518   1.246
94278SOL    HW184731   5.636  10.580   1.262
94278SOL    HW284732   5.765  10.528   1.322
94279SOL     OW84733   1.719  11.238  14.213
94279SOL    HW184734   1.690  11.328  14.204
94279SOL    HW284735   1.642  11.190  14.243
94280SOL     OW84736   3.328   9.645   1.612
94280SOL    HW184737   3.272   9.711   1.652
94280SOL    HW284738   3.400   9.694   1.574
94281SOL     OW84739   0.019  13.736   3.764
94281SOL    HW184740   0.046  13.781   3.844
94281SOL    HW284741  14.824  13.693   3.788
94282SOL     OW84742  10.430   9.711   8.068
94282SOL    HW184743  10.495   9.773   8.036
94282SOL    HW284744  10.481   9.636   8.098
94283SOL     OW84745  12.919   8.354   5.471
94283SOL    HW184746  13.004   8.371   5.511
94283SOL    HW284747  12.878   8.290   5.529
94284SOL     OW84748   8.962   7.302   6.169
94284SOL    HW184749   9.015   7.361   6.116
94284SOL    HW284750   8.911   7.360   6.226
94285SOL     OW84751  13.542   8.246  11.951
94285SOL    HW184752  13.553   8.254  12.045
94285SOL    HW284753  13.469   8.184  11.941
94286SOL     OW84754  11.443   7.769   1.881
94286SOL    HW184755  11.437   7.677   1.906
94286SOL    HW284756  11.528   7.798   1.914
94287SOL     OW84757   4.989   4.523   8.381
94287SOL    HW184758   4.991   4.434   8.416
94287SOL    HW284759   4.995   4.511   8.286
94288SOL     OW84760  14.590  10.490   7.359
94288SOL    HW184761  14.539  10.570   7.362
94288SOL    HW284762  14.556  10.442   7.284
94289SOL     OW84763   5.402  13.795   3.742
94289SOL    HW184764   5.480  13.767   3.695
94289SOL    HW284765   5.388  13.728   3.809
94290SOL     OW84766  14.312   6.505   3.867
94290SOL    HW184767  14.322   6.589   3.913
94290SOL    HW284768  14.281   6.530   3.780
94291SOL     OW84769  13.064   8.177   0.757
94291SOL    HW184770  13.133   8.165   0.692
94291SOL    HW284771  13.060   8.271   0.771
94292SOL     OW84772  13.232   9.925  10.102
94292SOL    HW184773  13.201   9.902  10.190
94292SOL    HW284774  13.169   9.883  10.044
94293SOL     OW84775   5.301  11.249  12.170
94293SOL    HW184776   5.331  11.303  12.096
94293SOL    HW284777   5.278  11.166  12.130
94294SOL     OW84778   3.511   2.519   6.144
94294SOL    HW184779   3.461   2.566   6.211
94294SOL    HW284780   3.446   2.499   6.076
94295SOL     OW84781   3.964   7.335  12.657
94295SOL    HW184782   4.018   7.390  12.713
94295SOL    HW284783   3.909   7.285  12.717
94296SOL     OW84784  13.858   8.225   7.766
94296SOL    HW184785  13.776   8.178   7.750
94296SOL    HW284786  13.881   8.264   7.681
94297SOL     OW84787   6.522  14.436   5.326
94297SOL    HW184788   6.444  14.484   5.300
94297SOL    HW284789   6.589  14.461   5.263
94298SOL     OW84790  14.316  14.708   6.732
94298SOL    HW184791  14.339  14.800   6.742
94298SOL    HW284792  14.399  14.661   6.741
94299SOL     OW84793   3.088   7.900   8.668
94299SOL    HW184794   3.043   7.899   8.583
94299SOL    HW284795   3.022   7.929   8.730
94300SOL     OW84796  11.008   6.939   7.921
94300SOL    HW184797  11.062   6.868   7.885
94300SOL    HW284798  11.043   7.018   7.881
94301SOL     OW84799   5.212   2.174   8.738
94301SOL    HW184800   5.228   2.084   8.765
94301SOL    HW284801   5.207   2.171   8.643
94302SOL     OW84802   6.925   5.895   5.207
94302SOL    HW184803   6.963   5.949   5.275
94302SOL    HW284804   6.981   5.908   5.131
94303SOL     OW84805  12.879   7.615   5.445
94303SOL    HW184806  12.818   7.689   5.444
94303SOL    HW284807  12.827   7.541   5.475
94304SOL     OW84808   2.062   0.227   8.290
94304SOL    HW184809   2.109   0.206   8.371
94304SOL    HW284810   2.007   0.151   8.275
94305SOL     OW84811   1.539  12.087  13.060
94305SOL    HW184812   1.527  12.148  13.133
94305SOL    HW284813   1.454  12.085  13.016
94306SOL     OW84814  13.069   2.669   6.871
94306SOL    HW184815  13.074   2.665   6.966
94306SOL    HW284816  13.010   2.742   6.853
94307SOL     OW84817  11.035  12.217   5.396
94307SOL    HW184818  11.106  12.214   5.331
94307SOL    HW284819  10.966  12.268   5.354
94308SOL     OW84820   9.643  12.654   6.818
94308SOL    HW184821   9.700  12.677   6.745
94308SOL    HW284822   9.699  12.604   6.878
94309SOL     OW84823   1.444  10.661   7.205
94309SOL    HW184824   1.414  10.730   7.146
94309SOL    HW284825   1.507  10.706   7.262
94310SOL     OW84826   6.078   8.450   4.094
94310SOL    HW184827   6.030   8.374   4.126
94310SOL    HW284828   6.046   8.523   4.147
94311SOL     OW84829   9.082   4.330   1.789
94311SOL    HW184830   9.023   4.274   1.839
94311SOL    HW284831   9.085   4.292   1.701
94312SOL     OW84832  12.907   9.334   8.098
94312SOL    HW184833  12.910   9.373   8.011
94312SOL    HW284834  12.998   9.337   8.129
94313SOL     OW84835   4.659   0.968  13.056
94313SOL    HW184836   4.726   1.020  13.013
94313SOL    HW284837   4.656   1.001  13.145
94314SOL     OW84838   3.160  14.146   1.127
94314SOL    HW184839   3.138  14.224   1.075
94314SOL    HW284840   3.098  14.079   1.097
94315SOL     OW84841   7.689  13.190   8.039
94315SOL    HW184842   7.640  13.159   7.964
94315SOL    HW284843   7.779  13.163   8.022
94316SOL     OW84844   0.318   3.242   3.652
94316SOL    HW184845   0.273   3.213   3.731
94316SOL    HW284846   0.375   3.313   3.682
94317SOL     OW84847  12.172   0.162   1.666
94317SOL    HW184848  12.246   0.168   1.726
94317SOL    HW284849  12.205   0.111   1.592
94318SOL     OW84850  13.508   2.838   9.828
94318SOL    HW184851  13.439   2.774   9.813
94318SOL    HW284852  13.588   2.796   9.798
94319SOL     OW84853   3.277   8.234   9.651
94319SOL    HW184854   3.198   8.268   9.692
94319SOL    HW284855   3.261   8.241   9.557
94320SOL     OW84856  10.748  12.983   9.638
94320SOL    HW184857  10.765  12.929   9.716
94320SOL    HW284858  10.812  12.953   9.574
94321SOL     OW84859  10.172   8.851  10.482
94321SOL    HW184860  10.223   8.776  10.451
94321SOL    HW284861  10.221   8.885  10.557
94322SOL     OW84862   3.252   5.603   7.500
94322SOL    HW184863   3.320   5.636   7.559
94322SOL    HW284864   3.300   5.568   7.426
94323SOL     OW84865  10.906  10.790  14.535
94323SOL    HW184866  10.821  10.820  14.503
94323SOL    HW284867  10.923  10.710  14.485
94324SOL     OW84868  12.867   6.168   5.392
94324SOL    HW184869  12.920   6.113   5.449
94324SOL    HW284870  12.914   6.168   5.308
94325SOL     OW84871   5.951   0.886   3.622
94325SOL    HW184872   5.918   0.972   3.596
94325SOL    HW284873   5.872   0.836   3.643
94326SOL     OW84874   1.050   7.097  12.982
94326SOL    HW184875   1.118   7.150  12.940
94326SOL    HW284876   0.969   7.145  12.965
94327SOL     OW84877   3.453   3.282   8.822
94327SOL    HW184878   3.384   3.257   8.884
94327SOL    HW284879   3.424   3.245   8.738
94328SOL     OW84880  10.405   8.665  10.164
94328SOL    HW184881  10.492   8.696  10.139
94328SOL    HW284882  10.415   8.570  10.174
94329SOL     OW84883   5.680   2.482  11.589
94329SOL    HW184884   5.623   2.406  11.597
94329SOL    HW284885   5.657   2.538  11.663
94330SOL     OW84886   7.834   6.987   8.945
94330SOL    HW184887   7.775   7.002   8.870
94330SOL    HW284888   7.789   7.029   9.019
94331SOL     OW84889   6.620   6.018  13.020
94331SOL    HW184890   6.544   5.961  13.002
94331SOL    HW284891   6.669   5.971  13.087
94332SOL     OW84892   7.748   4.888   5.217
94332SOL    HW184893   7.746   4.843   5.301
94332SOL    HW284894   7.793   4.827   5.158
94333SOL     OW84895   2.995  14.025  10.694
94333SOL    HW184896   2.993  14.109  10.740
94333SOL    HW284897   2.997  13.959  10.763
94334SOL     OW84898   8.154  14.398   9.582
94334SOL    HW184899   8.227  14.407   9.643
94334SOL    HW284900   8.172  14.317   9.535
94335SOL     OW84901   0.959   8.944   0.618
94335SOL    HW184902   1.014   8.904   0.685
94335SOL    HW284903   0.904   9.005   0.665
94336SOL     OW84904  13.202   9.200   1.417
94336SOL    HW184905  13.295   9.203   1.438
94336SOL    HW284906  13.188   9.275   1.359
94337SOL     OW84907  12.499   2.430   3.567
94337SOL    HW184908  12.573   2.474   3.610
94337SOL    HW284909  12.502   2.460   3.477
94338SOL     OW84910   6.012  10.184  11.121
94338SOL    HW184911   5.921  10.163  11.099
94338SOL    HW284912   6.006  10.225  11.208
94339SOL     OW84913  13.272   5.768   4.315
94339SOL    HW184914  13.227   5.728   4.241
94339SOL    HW284915  13.265   5.704   4.385
94340SOL     OW84916  13.019  11.041   1.996
94340SOL    HW184917  13.036  10.955   2.035
94340SOL    HW284918  13.105  11.079   1.985
94341SOL     OW84919   3.863   7.074  11.968
94341SOL    HW184920   3.940   7.016  11.968
94341SOL    HW284921   3.818   7.055  11.885
94342SOL     OW84922   1.014   5.816   9.558
94342SOL    HW184923   1.103   5.807   9.591
94342SOL    HW284924   1.013   5.903   9.518
94343SOL     OW84925   3.852   5.400  14.582
94343SOL    HW184926   3.876   5.307  14.574
94343SOL    HW284927   3.758   5.401  14.569
94344SOL     OW84928   8.056   1.784   7.686
94344SOL    HW184929   7.972   1.768   7.643
94344SOL    HW284930   8.113   1.713   7.657
94345SOL     OW84931   2.166   6.895   4.817
94345SOL    HW184932   2.138   6.840   4.891
94345SOL    HW284933   2.087   6.905   4.765
94346SOL     OW84934  12.684   4.479   0.142
94346SOL    HW184935  12.762   4.430   0.166
94346SOL    HW284936  12.635   4.488   0.224
94347SOL     OW84937   6.096   2.158   1.030
94347SOL    HW184938   6.072   2.234   1.082
94347SOL    HW284939   6.164   2.189   0.971
94348SOL     OW84940  11.500  12.690   1.004
94348SOL    HW184941  11.405  12.699   0.997
94348SOL    HW284942  11.513  12.597   1.025
94349SOL     OW84943   2.748   6.489   1.761
94349SOL    HW184944   2.792   6.503   1.845
94349SOL    HW284945   2.731   6.577   1.728
94350SOL     OW84946  11.522   4.176   9.884
94350SOL    HW184947  11.511   4.106   9.819
94350SOL    HW284948  11.491   4.137   9.966
94351SOL     OW84949  10.211   4.658   9.892
94351SOL    HW184950  10.122   4.686   9.917
94351SOL    HW284951  10.243   4.729   9.836
94352SOL     OW84952  11.368   6.716   7.600
94352SOL    HW184953  11.398   6.634   7.640
94352SOL    HW284954  11.325   6.689   7.518
94353SOL     OW84955   3.400   7.811   2.051
94353SOL    HW184956   3.323   7.862   2.076
94353SOL    HW284957   3.366   7.724   2.031
94354SOL     OW84958  13.767   5.817   2.025
94354SOL    HW184959  13.737   5.887   2.083
94354SOL    HW284960  13.708   5.821   1.950
94355SOL     OW84961   9.039   4.542   1.161
94355SOL    HW184962   8.978   4.472   1.181
94355SOL    HW284963   8.984   4.614   1.129
94356SOL     OW84964   8.444   6.187  14.781
94356SOL    HW184965   8.362   6.139  14.788
94356SOL    HW284966   8.447   6.217  14.690
94357SOL     OW84967   0.540   3.520  12.766
94357SOL    HW184968   0.496   3.491  12.846
94357SOL    HW284969   0.536   3.615  12.768
94358SOL     OW84970   4.828   7.853   8.261
94358SOL    HW184971   4.899   7.889   8.208
94358SOL    HW284972   4.806   7.770   8.218
94359SOL     OW84973   5.311  11.193   9.053
94359SOL    HW184974   5.241  11.162   9.111
94359SOL    HW284975   5.281  11.279   9.023
94360SOL     OW84976   8.868   1.853  12.254
94360SOL    HW184977   8.888   1.862  12.347
94360SOL    HW284978   8.774   1.835  12.252
94361SOL     OW84979   7.377   0.006   5.906
94361SOL    HW184980   7.451   0.006   5.845
94361SOL    HW284981   7.416  14.875   5.991
94362SOL     OW84982   2.879   5.869   6.490
94362SOL    HW184983   2.894   5.834   6.577
94362SOL    HW284984   2.950   5.932   6.477
94363SOL     OW84985   6.566  14.111  14.181
94363SOL    HW184986   6.505  14.038  14.176
94363SOL    HW284987   6.586  14.119  14.274
94364SOL     OW84988  13.847   6.556   8.003
94364SOL    HW184989  13.752   6.562   8.000
94364SOL    HW284990  13.868   6.478   7.951
94365SOL     OW84991   9.431  13.828   4.813
94365SOL    HW184992   9.380  13.885   4.755
94365SOL    HW284993   9.518  13.824   4.773
94366SOL     OW84994  14.605   1.662  10.216
94366SOL    HW184995  14.677   1.646  10.156
94366SOL    HW284996  14.589   1.756  10.210
94367SOL     OW84997  11.185  10.089  12.414
94367SOL    HW184998  11.128  10.115  12.342
94367SOL    HW284999  11.247  10.027  12.375
94368SOL     OW85000   7.568   2.550   0.531
94368SOL    HW185001   7.613   2.629   0.500
94368SOL    HW285002   7.618   2.478   0.491
94369SOL     OW85003   0.407   7.636   9.174
94369SOL    HW185004   0.315   7.618   9.155
94369SOL    HW285005   0.448   7.642   9.088
94370SOL     OW85006  13.423   5.108   4.473
94370SOL    HW185007  13.382   5.079   4.554
94370SOL    HW285008  13.444   5.200   4.489
94371SOL     OW85009  11.220   6.144   0.707
94371SOL    HW185010  11.215   6.069   0.766
94371SOL    HW285011  11.187   6.111   0.623
94372SOL     OW85012   2.624   1.167  11.112
94372SOL    HW185013   2.571   1.165  11.032
94372SOL    HW285014   2.571   1.121  11.177
94373SOL     OW85015  11.040   1.898   9.454
94373SOL    HW185016  11.104   1.933   9.517
94373SOL    HW285017  10.999   1.976   9.416
94374SOL     OW85018  10.081   5.304   3.541
94374SOL    HW185019  10.054   5.226   3.493
94374SOL    HW285020  10.156   5.276   3.593
94375SOL     OW85021   1.598   7.085  10.873
94375SOL    HW185022   1.652   7.011  10.897
94375SOL    HW285023   1.551   7.108  10.953
94376SOL     OW85024   1.494   8.855  14.083
94376SOL    HW185025   1.547   8.930  14.055
94376SOL    HW285026   1.423   8.850  14.019
94377SOL     OW85027   8.058  11.763   8.639
94377SOL    HW185028   8.047  11.858   8.648
94377SOL    HW285029   8.048  11.729   8.728
94378SOL     OW85030  12.491   8.707   1.498
94378SOL    HW185031  12.480   8.787   1.550
94378SOL    HW285032  12.570   8.666   1.534
94379SOL     OW85033   4.175   1.954   6.507
94379SOL    HW185034   4.104   1.985   6.450
94379SOL    HW285035   4.244   2.020   6.498
94380SOL     OW85036   1.576   6.946   2.396
94380SOL    HW185037   1.549   6.865   2.439
94380SOL    HW285038   1.509   6.961   2.329
94381SOL     OW85039   3.532   7.451   1.999
94381SOL    HW185040   3.485   7.506   2.062
94381SOL    HW285041   3.600   7.408   2.051
94382SOL     OW85042   3.712  10.849  12.992
94382SOL    HW185043   3.672  10.842  13.078
94382SOL    HW285044   3.787  10.789  12.996
94383SOL     OW85045  10.276   0.212   3.034
94383SOL    HW185046  10.287   0.118   3.023
94383SOL    HW285047  10.188   0.222   3.072
94384SOL     OW85048   3.555   0.350   3.753
94384SOL    HW185049   3.468   0.319   3.780
94384SOL    HW285050   3.608   0.346   3.833
94385SOL     OW85051   5.531   9.186   0.975
94385SOL    HW185052   5.452   9.148   0.937
94385SOL    HW285053   5.584   9.209   0.898
94386SOL     OW85054   3.668   2.639   5.547
94386SOL    HW185055   3.614   2.568   5.511
94386SOL    HW285056   3.706   2.602   5.626
94387SOL     OW85057   2.726   4.371   1.216
94387SOL    HW185058   2.652   4.389   1.274
94387SOL    HW285059   2.796   4.429   1.247
94388SOL     OW85060   5.195   2.780   4.395
94388SOL    HW185061   5.260   2.847   4.413
94388SOL    HW285062   5.170   2.746   4.481
94389SOL     OW85063   3.757   5.711  10.294
94389SOL    HW185064   3.695   5.643  10.266
94389SOL    HW285065   3.706   5.768  10.350
94390SOL     OW85066  12.855   3.755   6.018
94390SOL    HW185067  12.772   3.708   6.026
94390SOL    HW285068  12.916   3.704   6.071
94391SOL     OW85069  13.222   5.118  12.484
94391SOL    HW185070  13.166   5.050  12.447
94391SOL    HW285071  13.182   5.201  12.457
94392SOL     OW85072  13.547  13.633   4.932
94392SOL    HW185073  13.466  13.682   4.943
94392SOL    HW285074  13.617  13.696   4.953
94393SOL     OW85075   9.135   6.459  13.029
94393SOL    HW185076   9.040   6.463  13.041
94393SOL    HW285077   9.158   6.368  13.049
94394SOL     OW85078  14.369  12.669   9.262
94394SOL    HW185079  14.451  12.626   9.288
94394SOL    HW285080  14.337  12.618   9.188
94395SOL     OW85081  10.791   6.294  11.844
94395SOL    HW185082  10.832   6.378  11.865
94395SOL    HW285083  10.772   6.254  11.929
94396SOL     OW85084   8.046  10.772   1.684
94396SOL    HW185085   8.049  10.762   1.779
94396SOL    HW285086   8.021  10.863   1.669
94397SOL     OW85087   6.361   8.600   5.868
94397SOL    HW185088   6.444   8.578   5.826
94397SOL    HW285089   6.384   8.615   5.960
94398SOL     OW85090   4.802   2.894   1.561
94398SOL    HW185091   4.741   2.871   1.491
94398SOL    HW285092   4.759   2.866   1.641
94399SOL     OW85093   0.757   6.957  11.007
94399SOL    HW185094   0.800   6.993  10.929
94399SOL    HW285095   0.828   6.918  11.058
94400SOL     OW85096   6.260   6.621   6.474
94400SOL    HW185097   6.204   6.608   6.398
94400SOL    HW285098   6.270   6.534   6.513
94401SOL     OW85099   2.973  13.211  10.322
94401SOL    HW185100   3.040  13.186  10.386
94401SOL    HW285101   2.950  13.128  10.279
94402SOL     OW85102  12.911   1.455  11.216
94402SOL    HW185103  12.830   1.428  11.173
94402SOL    HW285104  12.883   1.486  11.302
94403SOL     OW85105  12.351  14.589  12.809
94403SOL    HW185106  12.370  14.503  12.846
94403SOL    HW285107  12.284  14.626  12.867
94404SOL     OW85108   9.445   4.422   6.578
94404SOL    HW185109   9.525   4.473   6.571
94404SOL    HW285110   9.451   4.379   6.663
94405SOL     OW85111  13.011   3.577   3.616
94405SOL    HW185112  13.028   3.499   3.669
94405SOL    HW285113  12.963   3.544   3.540
94406SOL     OW85114   3.215   1.795  13.646
94406SOL    HW185115   3.223   1.753  13.731
94406SOL    HW285116   3.242   1.729  13.583
94407SOL     OW85117   7.939   8.245   6.430
94407SOL    HW185118   7.949   8.176   6.496
94407SOL    HW285119   8.007   8.309   6.453
94408SOL     OW85120   2.871   6.466  12.927
94408SOL    HW185121   2.934   6.443  12.996
94408SOL    HW285122   2.916   6.443  12.845
94409SOL     OW85123   3.417   2.404  14.335
94409SOL    HW185124   3.342   2.364  14.291
94409SOL    HW285125   3.465   2.331  14.373
94410SOL     OW85126   1.188   5.065   5.365
94410SOL    HW185127   1.123   5.134   5.371
94410SOL    HW285128   1.256   5.091   5.427
94411SOL     OW85129  14.113   2.812   4.281
94411SOL    HW185130  14.080   2.864   4.208
94411SOL    HW285131  14.199   2.849   4.301
94412SOL     OW85132   3.622   7.188   3.482
94412SOL    HW185133   3.530   7.162   3.481
94412SOL    HW285134   3.670   7.109   3.509
94413SOL     OW85135   7.881   8.199   0.758
94413SOL    HW185136   7.862   8.293   0.766
94413SOL    HW285137   7.829   8.158   0.827
94414SOL     OW85138  13.205   9.296   4.004
94414SOL    HW185139  13.281   9.250   3.967
94414SOL    HW285140  13.145   9.306   3.930
94415SOL     OW85141  14.261   3.762  12.892
94415SOL    HW185142  14.227   3.716  12.969
94415SOL    HW285143  14.287   3.848  12.924
94416SOL     OW85144  13.516   3.763   5.422
94416SOL    HW185145  13.527   3.783   5.329
94416SOL    HW285146  13.422   3.770   5.438
94417SOL     OW85147   4.909   2.908   6.458
94417SOL    HW185148   4.954   2.861   6.528
94417SOL    HW285149   4.930   2.859   6.378
94418SOL     OW85150  10.296   1.387   3.873
94418SOL    HW185151  10.275   1.339   3.793
94418SOL    HW285152  10.218   1.379   3.927
94419SOL     OW85153  12.846   9.496  14.368
94419SOL    HW185154  12.775   9.459  14.315
94419SOL    HW285155  12.802   9.555  14.429
94420SOL     OW85156   6.207   1.434  12.088
94420SOL    HW185157   6.302   1.424  12.076
94420SOL    HW285158   6.194   1.527  12.102
94421SOL     OW85159   8.658   7.010  10.424
94421SOL    HW185160   8.661   6.915  10.411
94421SOL    HW285161   8.568   7.029  10.450
94422SOL     OW85162  14.243   7.946   6.138
94422SOL    HW185163  14.245   7.886   6.212
94422SOL    HW285164  14.190   8.020   6.169
94423SOL     OW85165   1.936   3.847  12.450
94423SOL    HW185166   1.995   3.922  12.458
94423SOL    HW285167   1.915   3.844  12.356
94424SOL     OW85168   0.056   5.181   2.105
94424SOL    HW185169   0.067   5.224   2.020
94424SOL    HW285170   0.122   5.112   2.106
94425SOL     OW85171   2.810   3.959  14.066
94425SOL    HW185172   2.767   3.875  14.080
94425SOL    HW285173   2.875   3.965  14.135
94426SOL     OW85174   2.404  11.814  10.944
94426SOL    HW185175   2.415  11.884  11.008
94426SOL    HW285176   2.480  11.758  10.956
94427SOL     OW85177   6.409  10.528   6.556
94427SOL    HW185178   6.415  10.597   6.490
94427SOL    HW285179   6.379  10.573   6.635
94428SOL     OW85180   4.199   9.745   1.875
94428SOL    HW185181   4.293   9.723   1.880
94428SOL    HW285182   4.157   9.679   1.930
94429SOL     OW85183   5.134  11.230  13.101
94429SOL    HW185184   5.222  11.211  13.067
94429SOL    HW285185   5.147  11.301  13.164
94430SOL     OW85186  11.379   8.268   4.968
94430SOL    HW185187  11.366   8.358   4.999
94430SOL    HW285188  11.457   8.238   5.014
94431SOL     OW85189  11.767   0.683   1.603
94431SOL    HW185190  11.845   0.711   1.649
94431SOL    HW285191  11.755   0.749   1.534
94432SOL     OW85192   9.247   8.105   5.196
94432SOL    HW185193   9.204   8.077   5.277
94432SOL    HW285194   9.231   8.199   5.192
94433SOL     OW85195  10.184  12.075  11.299
94433SOL    HW185196  10.155  12.067  11.208
94433SOL    HW285197  10.218  12.165  11.306
94434SOL     OW85198  11.868   3.518   2.626
94434SOL    HW185199  11.960   3.494   2.639
94434SOL    HW285200  11.864   3.609   2.655
94435SOL     OW85201   2.261   6.025   5.947
94435SOL    HW185202   2.167   6.021   5.965
94435SOL    HW285203   2.298   5.952   5.997
94436SOL     OW85204   2.035  14.560   4.382
94436SOL    HW185205   1.969  14.513   4.331
94436SOL    HW285206   1.985  14.627   4.429
94437SOL     OW85207   3.076   6.491   9.646
94437SOL    HW185208   3.106   6.450   9.727
94437SOL    HW285209   3.093   6.425   9.578
94438SOL     OW85210   2.248   8.641  12.826
94438SOL    HW185211   2.239   8.682  12.740
94438SOL    HW285212   2.321   8.687  12.867
94439SOL     OW85213   3.006   8.370   1.628
94439SOL    HW185214   2.936   8.326   1.676
94439SOL    HW285215   3.084   8.317   1.646
94440SOL     OW85216  10.200   7.081   4.538
94440SOL    HW185217  10.244   7.039   4.465
94440SOL    HW285218  10.258   7.153   4.563
94441SOL     OW85219   7.983   3.122  12.760
94441SOL    HW185220   8.061   3.103  12.707
94441SOL    HW285221   8.003   3.205  12.803
94442SOL     OW85222  13.258  12.268  14.715
94442SOL    HW185223  13.300  12.325  14.778
94442SOL    HW285224  13.286  12.180  14.739
94443SOL     OW85225   2.921   6.294   1.666
94443SOL    HW185226   2.851   6.351   1.696
94443SOL    HW285227   2.911   6.214   1.718
94444SOL     OW85228   1.822   1.076   0.274
94444SOL    HW185229   1.826   1.127   0.355
94444SOL    HW285230   1.729   1.071   0.253
94445SOL     OW85231   3.508  10.937   0.289
94445SOL    HW185232   3.561  10.911   0.365
94445SOL    HW285233   3.559  11.005   0.246
94446SOL     OW85234  13.931  11.251   1.572
94446SOL    HW185235  13.923  11.327   1.515
94446SOL    HW285236  14.025  11.232   1.573
94447SOL     OW85237   3.098   6.603  10.426
94447SOL    HW185238   3.104   6.693  10.459
94447SOL    HW285239   3.186   6.568  10.434
94448SOL     OW85240   0.122  13.559   5.412
94448SOL    HW185241   0.112  13.490   5.346
94448SOL    HW285242   0.216  13.576   5.414
94449SOL     OW85243   6.382   6.999   1.939
94449SOL    HW185244   6.323   7.032   1.871
94449SOL    HW285245   6.455   6.960   1.891
94450SOL     OW85246  13.740   5.554   2.733
94450SOL    HW185247  13.798   5.478   2.745
94450SOL    HW285248  13.800   5.628   2.723
94451SOL     OW85249  13.111  13.792   4.575
94451SOL    HW185250  13.116  13.854   4.648
94451SOL    HW285251  13.191  13.808   4.524
94452SOL     OW85252  11.744   7.620  13.937
94452SOL    HW185253  11.729   7.539  13.887
94452SOL    HW285254  11.728   7.690  13.875
94453SOL     OW85255   8.447   5.873   4.425
94453SOL    HW185256   8.418   5.872   4.516
94453SOL    HW285257   8.407   5.951   4.388
94454SOL     OW85258   3.417  10.966   2.159
94454SOL    HW185259   3.483  10.984   2.225
94454SOL    HW285260   3.334  10.982   2.203
94455SOL     OW85261   1.028  11.714  12.785
94455SOL    HW185262   0.945  11.722  12.738
94455SOL    HW285263   1.004  11.716  12.877
94456SOL     OW85264  10.488   6.846  10.919
94456SOL    HW185265  10.394   6.867  10.913
94456SOL    HW285266  10.528   6.893  10.846
94457SOL     OW85267   0.442   4.688  10.796
94457SOL    HW185268   0.490   4.771  10.790
94457SOL    HW285269   0.388   4.686  10.717
94458SOL     OW85270   1.845   6.825   8.682
94458SOL    HW185271   1.863   6.832   8.776
94458SOL    HW285272   1.750   6.813   8.676
94459SOL     OW85273  13.307  10.032  14.019
94459SOL    HW185274  13.393   9.992  14.007
94459SOL    HW285275  13.296  10.087  13.942
94460SOL     OW85276   4.656  13.543   6.098
94460SOL    HW185277   4.746  13.513   6.084
94460SOL    HW285278   4.611  13.521   6.016
94461SOL     OW85279   8.487  12.417  12.040
94461SOL    HW185280   8.483  12.325  12.068
94461SOL    HW285281   8.395  12.443  12.031
94462SOL     OW85282  10.957   7.096  10.536
94462SOL    HW185283  11.025   7.114  10.601
94462SOL    HW285284  10.879   7.076  10.587
94463SOL     OW85285  13.779   2.844   6.353
94463SOL    HW185286  13.749   2.932   6.328
94463SOL    HW285287  13.725   2.821   6.429
94464SOL     OW85288   6.639  14.500   9.889
94464SOL    HW185289   6.569  14.442   9.858
94464SOL    HW285290   6.663  14.465   9.975
94465SOL     OW85291   2.394   2.239   1.028
94465SOL    HW185292   2.360   2.150   1.014
94465SOL    HW285293   2.316   2.294   1.026
94466SOL     OW85294   8.454  13.815   3.187
94466SOL    HW185295   8.414  13.806   3.101
94466SOL    HW285296   8.542  13.778   3.176
94467SOL     OW85297  14.195   4.884   6.249
94467SOL    HW185298  14.203   4.919   6.160
94467SOL    HW285299  14.283   4.853   6.270
94468SOL     OW85300  12.334   0.192   2.334
94468SOL    HW185301  12.413   0.237   2.364
94468SOL    HW285302  12.266   0.219   2.395
94469SOL     OW85303   4.447  13.897   9.323
94469SOL    HW185304   4.424  13.816   9.368
94469SOL    HW285305   4.538  13.914   9.350
94470SOL     OW85306  12.684   1.087  11.284
94470SOL    HW185307  12.731   1.085  11.201
94470SOL    HW285308  12.596   1.055  11.263
94471SOL     OW85309  14.303   1.140   5.667
94471SOL    HW185310  14.362   1.196   5.617
94471SOL    HW285311  14.353   1.060   5.682
94472SOL     OW85312   2.862  10.390   4.982
94472SOL    HW185313   2.947  10.403   5.024
94472SOL    HW285314   2.833  10.305   5.016
94473SOL     OW85315  13.739   6.464  14.770
94473SOL    HW185316  13.699   6.465  14.683
94473SOL    HW285317  13.671   6.497  14.828
94474SOL     OW85318  12.437   5.825   8.135
94474SOL    HW185319  12.427   5.811   8.230
94474SOL    HW285320  12.372   5.893   8.114
94475SOL     OW85321   2.744   1.288   5.431
94475SOL    HW185322   2.670   1.285   5.370
94475SOL    HW285323   2.806   1.348   5.391
94476SOL     OW85324   0.811   2.986  11.315
94476SOL    HW185325   0.877   3.023  11.374
94476SOL    HW285326   0.746   2.947  11.373
94477SOL     OW85327  11.253   0.940  13.961
94477SOL    HW185328  11.319   0.877  13.988
94477SOL    HW285329  11.246   1.001  14.035
94478SOL     OW85330   2.710  12.821   0.146
94478SOL    HW185331   2.631  12.782   0.184
94478SOL    HW285332   2.750  12.750   0.097
94479SOL     OW85333   0.891   3.961  11.506
94479SOL    HW185334   0.923   4.023  11.571
94479SOL    HW285335   0.921   3.996  11.422
94480SOL     OW85336   7.230  12.536   0.865
94480SOL    HW185337   7.250  12.457   0.916
94480SOL    HW285338   7.295  12.537   0.795
94481SOL     OW85339  10.420   2.131  12.067
94481SOL    HW185340  10.414   2.053  12.012
94481SOL    HW285341  10.357   2.192  12.029
94482SOL     OW85342  12.260  10.177   9.197
94482SOL    HW185343  12.216  10.134   9.124
94482SOL    HW285344  12.224  10.136   9.275
94483SOL     OW85345   5.514   5.640  11.086
94483SOL    HW185346   5.445   5.679  11.032
94483SOL    HW285347   5.595   5.682  11.055
94484SOL     OW85348   1.137  14.430  13.532
94484SOL    HW185349   1.157  14.337  13.532
94484SOL    HW285350   1.223  14.473  13.532
94485SOL     OW85351   6.764  10.946   9.670
94485SOL    HW185352   6.684  10.990   9.700
94485SOL    HW285353   6.808  10.918   9.750
94486SOL     OW85354  14.882   6.241  12.623
94486SOL    HW185355   0.005   6.156  12.665
94486SOL    HW285356   0.063   6.242  12.556
94487SOL     OW85357   6.121   4.005   7.267
94487SOL    HW185358   6.156   3.920   7.241
94487SOL    HW285359   6.130   4.006   7.362
94488SOL     OW85360   3.340   3.206   1.667
94488SOL    HW185361   3.423   3.252   1.680
94488SOL    HW285362   3.281   3.274   1.633
94489SOL     OW85363   5.091   9.489   7.678
94489SOL    HW185364   5.126   9.474   7.590
94489SOL    HW285365   5.101   9.405   7.722
94490SOL     OW85366   9.106   6.525   9.762
94490SOL    HW185367   9.071   6.584   9.830
94490SOL    HW285368   9.039   6.527   9.693
94491SOL     OW85369  10.746   4.222   2.032
94491SOL    HW185370  10.669   4.202   2.086
94491SOL    HW285371  10.820   4.217   2.092
94492SOL     OW85372   5.033  14.332   6.556
94492SOL    HW185373   5.043  14.294   6.469
94492SOL    HW285374   4.972  14.274   6.601
94493SOL     OW85375  11.541   4.156  12.539
94493SOL    HW185376  11.563   4.247  12.523
94493SOL    HW285377  11.578   4.137  12.626
94494SOL     OW85378   4.574   1.932  13.213
94494SOL    HW185379   4.610   1.964  13.130
94494SOL    HW285380   4.543   2.010  13.257
94495SOL     OW85381   1.811  13.377  11.550
94495SOL    HW185382   1.845  13.291  11.526
94495SOL    HW285383   1.819  13.380  11.645
94496SOL     OW85384   4.034   0.290   3.250
94496SOL    HW185385   4.069   0.221   3.307
94496SOL    HW285386   3.957   0.251   3.210
94497SOL     OW85387  14.217   3.167   7.990
94497SOL    HW185388  14.206   3.255   7.955
94497SOL    HW285389  14.136   3.121   7.969
94498SOL     OW85390   3.582  14.059  10.422
94498SOL    HW185391   3.639  13.982  10.415
94498SOL    HW285392   3.493  14.024  10.414
94499SOL     OW85393   3.995   8.729   8.917
94499SOL    HW185394   3.943   8.713   8.997
94499SOL    HW285395   3.958   8.669   8.852
94500SOL     OW85396   1.846   5.912   1.908
94500SOL    HW185397   1.787   5.965   1.962
94500SOL    HW285398   1.916   5.973   1.882
94501SOL     OW85399   9.551   1.627   0.583
94501SOL    HW185400   9.611   1.579   0.640
94501SOL    HW285401   9.606   1.690   0.537
94502SOL     OW85402  12.134   4.668   1.142
94502SOL    HW185403  12.159   4.754   1.107
94502SOL    HW285404  12.068   4.688   1.209
94503SOL     OW85405   6.308   3.746  12.559
94503SOL    HW185406   6.316   3.654  12.582
94503SOL    HW285407   6.304   3.746  12.463
94504SOL     OW85408   2.616   3.142  13.960
94504SOL    HW185409   2.645   3.067  14.012
94504SOL    HW285410   2.634   3.218  14.015
94505SOL     OW85411  10.779   6.960  12.564
94505SOL    HW185412  10.695   6.915  12.553
94505SOL    HW285413  10.759   7.052  12.548
94506SOL     OW85414  10.311   4.090   0.637
94506SOL    HW185415  10.304   4.109   0.543
94506SOL    HW285416  10.291   4.174   0.679
94507SOL     OW85417   8.546   0.757   5.953
94507SOL    HW185418   8.454   0.773   5.929
94507SOL    HW285419   8.541   0.706   6.033
94508SOL     OW85420   8.641   8.994   7.925
94508SOL    HW185421   8.608   9.061   7.865
94508SOL    HW285422   8.735   8.992   7.911
94509SOL     OW85423   7.988   4.262   1.071
94509SOL    HW185424   7.925   4.253   1.142
94509SOL    HW285425   7.936   4.260   0.991
94510SOL     OW85426   5.555   9.807   1.214
94510SOL    HW185427   5.540   9.761   1.131
94510SOL    HW285428   5.545   9.739   1.281
94511SOL     OW85429   1.004   4.601  11.963
94511SOL    HW185430   0.912   4.605  11.939
94511SOL    HW285431   1.050   4.642  11.889
94512SOL     OW85432  11.905  11.923  11.856
94512SOL    HW185433  11.885  12.008  11.895
94512SOL    HW285434  11.999  11.927  11.838
94513SOL     OW85435  14.357  11.380  13.694
94513SOL    HW185436  14.362  11.349  13.603
94513SOL    HW285437  14.281  11.438  13.695
94514SOL     OW85438   2.365   8.350   9.867
94514SOL    HW185439   2.459   8.369   9.874
94514SOL    HW285440   2.338   8.392   9.786
94515SOL     OW85441   5.547   6.412  14.276
94515SOL    HW185442   5.452   6.404  14.271
94515SOL    HW285443   5.574   6.338  14.331
94516SOL     OW85444  14.508   6.872  10.869
94516SOL    HW185445  14.466   6.847  10.951
94516SOL    HW285446  14.590   6.913  10.896
94517SOL     OW85447   2.388  11.398   3.418
94517SOL    HW185448   2.402  11.327   3.481
94517SOL    HW285449   2.322  11.364   3.358
94518SOL     OW85450   8.754   2.274   3.286
94518SOL    HW185451   8.792   2.201   3.238
94518SOL    HW285452   8.660   2.269   3.266
94519SOL     OW85453   9.827  13.085  11.972
94519SOL    HW185454   9.797  13.086  12.063
94519SOL    HW285455   9.766  13.141  11.926
94520SOL     OW85456   4.143   0.911  14.351
94520SOL    HW185457   4.072   0.927  14.413
94520SOL    HW285458   4.159   0.817  14.355
94521SOL     OW85459   9.304   0.570   3.351
94521SOL    HW185460   9.395   0.583   3.379
94521SOL    HW285461   9.261   0.654   3.371
94522SOL     OW85462  13.199   4.240   4.299
94522SOL    HW185463  13.292   4.254   4.314
94522SOL    HW285464  13.192   4.147   4.277
94523SOL     OW85465  14.493   8.507  10.431
94523SOL    HW185466  14.510   8.418  10.463
94523SOL    HW285467  14.439   8.547  10.499
94524SOL     OW85468   0.838   2.953   9.059
94524SOL    HW185469   0.789   2.932   8.979
94524SOL    HW285470   0.873   3.041   9.043
94525SOL     OW85471  11.505  10.868  11.167
94525SOL    HW185472  11.581  10.927  11.170
94525SOL    HW285473  11.527  10.796  11.226
94526SOL     OW85474   5.982   8.493   7.507
94526SOL    HW185475   6.020   8.581   7.512
94526SOL    HW285476   5.933   8.493   7.424
94527SOL     OW85477   9.827  12.416   2.160
94527SOL    HW185478   9.763  12.475   2.121
94527SOL    HW285479   9.779  12.372   2.230
94528SOL     OW85480   9.762   2.030   7.417
94528SOL    HW185481   9.851   2.046   7.446
94528SOL    HW285482   9.768   2.025   7.322
94529SOL     OW85483   5.595   9.878  12.685
94529SOL    HW185484   5.546   9.861  12.605
94529SOL    HW285485   5.686   9.860  12.662
94530SOL     OW85486  14.737   9.625  12.213
94530SOL    HW185487  14.742   9.617  12.118
94530SOL    HW285488  14.784   9.706  12.233
94531SOL     OW85489   6.974   6.442  13.385
94531SOL    HW185490   7.066   6.417  13.386
94531SOL    HW285491   6.927   6.360  13.370
94532SOL     OW85492   0.794  11.493   3.577
94532SOL    HW185493   0.833  11.581   3.584
94532SOL    HW285494   0.701  11.509   3.562
94533SOL     OW85495   1.478   7.739   1.231
94533SOL    HW185496   1.502   7.703   1.317
94533SOL    HW285497   1.383   7.749   1.235
94534SOL     OW85498  13.356   5.662   1.002
94534SOL    HW185499  13.449   5.681   0.990
94534SOL    HW285500  13.318   5.746   1.031
94535SOL     OW85501  14.868   0.221   8.150
94535SOL    HW185502  14.871   0.218   8.246
94535SOL    HW285503  14.794   0.278   8.130
94536SOL     OW85504   8.182   0.572   1.363
94536SOL    HW185505   8.186   0.608   1.452
94536SOL    HW285506   8.089   0.578   1.339
94537SOL     OW85507  14.166   1.918   1.925
94537SOL    HW185508  14.231   1.961   1.869
94537SOL    HW285509  14.133   1.988   1.982
94538SOL     OW85510   3.923   4.301  13.346
94538SOL    HW185511   3.974   4.283  13.267
94538SOL    HW285512   3.836   4.265  13.328
94539SOL     OW85513   9.751   7.327  11.305
94539SOL    HW185514   9.658   7.314  11.324
94539SOL    HW285515   9.758   7.419  11.282
94540SOL     OW85516   7.674  13.144  12.416
94540SOL    HW185517   7.651  13.170  12.327
94540SOL    HW285518   7.760  13.183  12.431
94541SOL     OW85519  10.260   6.015  12.302
94541SOL    HW185520  10.350   6.007  12.331
94541SOL    HW285521  10.246   5.941  12.244
94542SOL     OW85522  10.226  10.812  10.659
94542SOL    HW185523  10.208  10.841  10.569
94542SOL    HW285524  10.154  10.754  10.681
94543SOL     OW85525  12.527   6.425   1.656
94543SOL    HW185526  12.539   6.361   1.726
94543SOL    HW285527  12.608   6.422   1.606
94544SOL     OW85528   1.518   9.693  13.820
94544SOL    HW185529   1.531   9.786  13.838
94544SOL    HW285530   1.573   9.675  13.744
94545SOL     OW85531  12.855  10.615   3.599
94545SOL    HW185532  12.760  10.617   3.587
94545SOL    HW285533  12.884  10.702   3.571
94546SOL     OW85534  12.912   1.344   5.695
94546SOL    HW185535  12.896   1.250   5.690
94546SOL    HW285536  12.826   1.384   5.686
94547SOL     OW85537   7.039   2.276   0.812
94547SOL    HW185538   7.122   2.274   0.860
94547SOL    HW285539   6.992   2.351   0.848
94548SOL     OW85540   2.609   1.903  10.589
94548SOL    HW185541   2.611   1.992  10.624
94548SOL    HW285542   2.526   1.897  10.541
94549SOL     OW85543  12.078   9.464   4.042
94549SOL    HW185544  12.095   9.519   3.966
94549SOL    HW285545  12.017   9.515   4.096
94550SOL     OW85546   8.002   6.493   9.310
94550SOL    HW185547   7.962   6.538   9.236
94550SOL    HW285548   7.969   6.404   9.305
94551SOL     OW85549   9.192  14.736   3.941
94551SOL    HW185550   9.215  14.768   4.028
94551SOL    HW285551   9.270  14.753   3.888
94552SOL     OW85552  13.684   4.649   2.453
94552SOL    HW185553  13.628   4.698   2.514
94552SOL    HW285554  13.649   4.560   2.456
94553SOL     OW85555  11.615   3.185   1.429
94553SOL    HW185556  11.665   3.138   1.495
94553SOL    HW285557  11.553   3.238   1.479
94554SOL     OW85558   5.451   8.883  12.294
94554SOL    HW185559   5.367   8.925  12.273
94554SOL    HW285560   5.494   8.944  12.354
94555SOL     OW85561   3.273  10.391  11.765
94555SOL    HW185562   3.199  10.347  11.723
94555SOL    HW285563   3.350  10.345  11.732
94556SOL     OW85564   9.965  10.686   0.248
94556SOL    HW185565   9.918  10.616   0.204
94556SOL    HW285566   9.982  10.652   0.336
94557SOL     OW85567   0.794  14.392   0.730
94557SOL    HW185568   0.760  14.426   0.647
94557SOL    HW285569   0.734  14.426   0.796
94558SOL     OW85570   0.288   6.781  13.643
94558SOL    HW185571   0.289   6.689  13.615
94558SOL    HW285572   0.337   6.827  13.575
94559SOL     OW85573   8.123  11.974   5.786
94559SOL    HW185574   8.122  12.009   5.697
94559SOL    HW285575   8.178  12.035   5.835
94560SOL     OW85576  13.506   2.275   4.517
94560SOL    HW185577  13.512   2.180   4.511
94560SOL    HW285578  13.470   2.302   4.432
94561SOL     OW85579  10.359   4.811  13.321
94561SOL    HW185580  10.434   4.754  13.305
94561SOL    HW285581  10.310   4.810  13.238
94562SOL     OW85582   8.649   2.424   0.538
94562SOL    HW185583   8.601   2.507   0.543
94562SOL    HW285584   8.583   2.356   0.551
94563SOL     OW85585  10.344  13.933   1.855
94563SOL    HW185586  10.419  13.920   1.796
94563SOL    HW285587  10.323  13.845   1.885
94564SOL     OW85588   5.316  13.270   1.130
94564SOL    HW185589   5.291  13.190   1.083
94564SOL    HW285590   5.387  13.307   1.079
94565SOL     OW85591  10.442   1.483   6.420
94565SOL    HW185592  10.504   1.421   6.382
94565SOL    HW285593  10.461   1.566   6.375
94566SOL     OW85594   6.291   3.251  13.800
94566SOL    HW185595   6.361   3.219  13.744
94566SOL    HW285596   6.309   3.344  13.812
94567SOL     OW85597   8.581   4.949   9.163
94567SOL    HW185598   8.490   4.976   9.166
94567SOL    HW285599   8.591   4.908   9.077
94568SOL     OW85600   7.443  13.203   0.767
94568SOL    HW185601   7.452  13.299   0.766
94568SOL    HW285602   7.413  13.181   0.680
94569SOL     OW85603   4.165   5.942  10.637
94569SOL    HW185604   4.259   5.943  10.653
94569SOL    HW285605   4.145   5.851  10.615
94570SOL     OW85606   8.698   4.090   1.612
94570SOL    HW185607   8.764   4.022   1.625
94570SOL    HW285608   8.619   4.042   1.590
94571SOL     OW85609  10.742  13.740   5.789
94571SOL    HW185610  10.720  13.662   5.738
94571SOL    HW285611  10.660  13.789   5.793
94572SOL     OW85612  12.076  10.323   8.833
94572SOL    HW185613  12.085  10.227   8.836
94572SOL    HW285614  12.027  10.340   8.752
94573SOL     OW85615   0.468  11.246  12.197
94573SOL    HW185616   0.479  11.261  12.291
94573SOL    HW285617   0.375  11.261  12.181
94574SOL     OW85618   0.706  13.778   7.051
94574SOL    HW185619   0.724  13.780   7.145
94574SOL    HW285620   0.639  13.711   7.041
94575SOL     OW85621   6.162   7.787  12.210
94575SOL    HW185622   6.171   7.868  12.160
94575SOL    HW285623   6.237   7.787  12.270
94576SOL     OW85624   9.466   2.944  14.318
94576SOL    HW185625   9.448   3.036  14.338
94576SOL    HW285626   9.559   2.943  14.295
94577SOL     OW85627  13.554   3.417  13.544
94577SOL    HW185628  13.499   3.343  13.518
94577SOL    HW285629  13.567   3.467  13.464
94578SOL     OW85630   8.519   8.301  13.648
94578SOL    HW185631   8.507   8.214  13.608
94578SOL    HW285632   8.433   8.326  13.679
94579SOL     OW85633   4.628   2.706  10.467
94579SOL    HW185634   4.657   2.795  10.488
94579SOL    HW285635   4.532   2.712  10.463
94580SOL     OW85636  10.870   1.638   0.735
94580SOL    HW185637  10.784   1.598   0.717
94580SOL    HW285638  10.905   1.586   0.808
94581SOL     OW85639   4.062   6.931  12.440
94581SOL    HW185640   3.992   6.959  12.381
94581SOL    HW285641   4.130   6.999  12.430
94582SOL     OW85642  10.564   2.843  10.999
94582SOL    HW185643  10.586   2.765  11.050
94582SOL    HW285644  10.633   2.906  11.019
94583SOL     OW85645   0.769   5.104   6.749
94583SOL    HW185646   0.779   5.149   6.832
94583SOL    HW285647   0.700   5.040   6.765
94584SOL     OW85648   6.129  11.718   9.602
94584SOL    HW185649   6.140  11.742   9.694
94584SOL    HW285650   6.219  11.712   9.569
94585SOL     OW85651   1.898   3.406  10.848
94585SOL    HW185652   1.895   3.439  10.938
94585SOL    HW285653   1.980   3.441  10.813
94586SOL     OW85654   0.303   6.468   7.530
94586SOL    HW185655   0.379   6.523   7.508
94586SOL    HW285656   0.247   6.526   7.582
94587SOL     OW85657   1.480  10.288   6.104
94587SOL    HW185658   1.561  10.262   6.146
94587SOL    HW285659   1.507  10.321   6.018
94588SOL     OW85660   2.643   4.032   5.051
94588SOL    HW185661   2.663   4.111   5.102
94588SOL    HW285662   2.608   3.971   5.115
94589SOL     OW85663  11.488   9.658  10.043
94589SOL    HW185664  11.541   9.579  10.060
94589SOL    HW285665  11.436   9.635   9.966
94590SOL     OW85666   6.377   8.193   0.984
94590SOL    HW185667   6.438   8.264   0.963
94590SOL    HW285668   6.385   8.132   0.911
94591SOL     OW85669   2.965  13.975   9.821
94591SOL    HW185670   2.873  13.999   9.813
94591SOL    HW285671   2.993  14.013   9.905
94592SOL     OW85672   3.538   4.341   6.369
94592SOL    HW185673   3.521   4.250   6.344
94592SOL    HW285674   3.461   4.367   6.420
94593SOL     OW85675   5.998   0.204   5.630
94593SOL    HW185676   5.928   0.269   5.626
94593SOL    HW285677   5.965   0.130   5.579
94594SOL     OW85678   5.742   0.409  10.841
94594SOL    HW185679   5.728   0.388  10.934
94594SOL    HW285680   5.753   0.324  10.799
94595SOL     OW85681   6.001   6.336   2.747
94595SOL    HW185682   5.977   6.271   2.681
94595SOL    HW285683   6.094   6.354   2.730
94596SOL     OW85684  14.809  12.517   3.743
94596SOL    HW185685  14.782  12.446   3.802
94596SOL    HW285686   0.016  12.523   3.755
94597SOL     OW85687   6.680   7.837   1.893
94597SOL    HW185688   6.608   7.804   1.839
94597SOL    HW285689   6.637   7.894   1.957
94598SOL     OW85690   4.171   0.531   3.201
94598SOL    HW185691   4.109   0.460   3.219
94598SOL    HW285692   4.121   0.595   3.151
94599SOL     OW85693   3.126  13.665   1.788
94599SOL    HW185694   3.217  13.636   1.798
94599SOL    HW285695   3.123  13.705   1.701
94600SOL     OW85696   3.085  10.176  14.124
94600SOL    HW185697   3.084  10.248  14.062
94600SOL    HW285698   3.161  10.192  14.179
94601SOL     OW85699  10.141   3.322  14.641
94601SOL    HW185700  10.168   3.397  14.588
94601SOL    HW285701  10.174   3.246  14.593
94602SOL     OW85702  11.259   4.883   9.612
94602SOL    HW185703  11.333   4.824   9.630
94602SOL    HW285704  11.269   4.906   9.520
94603SOL     OW85705   1.529   4.792   3.406
94603SOL    HW185706   1.551   4.711   3.452
94603SOL    HW285707   1.543   4.771   3.313
94604SOL     OW85708   8.529  14.689   3.513
94604SOL    HW185709   8.608  14.635   3.516
94604SOL    HW285710   8.471  14.644   3.452
94605SOL     OW85711   1.579  13.649   1.229
94605SOL    HW185712   1.547  13.559   1.222
94605SOL    HW285713   1.632  13.649   1.309
94606SOL     OW85714  14.688  11.152   6.015
94606SOL    HW185715  14.734  11.134   5.934
94606SOL    HW285716  14.618  11.213   5.990
94607SOL     OW85717  10.699   6.866   8.666
94607SOL    HW185718  10.707   6.955   8.630
94607SOL    HW285719  10.612   6.838   8.640
94608SOL     OW85720   0.312  11.880   8.795
94608SOL    HW185721   0.231  11.838   8.768
94608SOL    HW285722   0.295  11.912   8.884
94609SOL     OW85723   9.083   0.091  12.569
94609SOL    HW185724   9.085   0.022  12.503
94609SOL    HW285725   9.035   0.163  12.527
94610SOL     OW85726   1.345   6.805   1.927
94610SOL    HW185727   1.354   6.714   1.896
94610SOL    HW285728   1.411   6.854   1.878
94611SOL     OW85729   0.373   1.311  13.411
94611SOL    HW185730   0.430   1.268  13.347
94611SOL    HW285731   0.358   1.398  13.375
94612SOL     OW85732   6.215   0.888   3.535
94612SOL    HW185733   6.132   0.916   3.573
94612SOL    HW285734   6.198   0.800   3.503
94613SOL     OW85735  10.638   8.654   8.236
94613SOL    HW185736  10.698   8.728   8.238
94613SOL    HW285737  10.682   8.589   8.181
94614SOL     OW85738   4.991  11.201   1.057
94614SOL    HW185739   4.991  11.180   1.150
94614SOL    HW285740   4.991  11.297   1.055
94615SOL     OW85741   0.033   7.180   3.096
94615SOL    HW185742   0.090   7.105   3.115
94615SOL    HW285743   0.037   7.235   3.174
94616SOL     OW85744   0.927   7.877  13.237
94616SOL    HW185745   0.998   7.924  13.281
94616SOL    HW285746   0.858   7.942  13.227
94617SOL     OW85747   0.809   7.876  12.887
94617SOL    HW185748   0.767   7.924  12.959
94617SOL    HW285749   0.779   7.921  12.808
94618SOL     OW85750   4.227   1.731   3.524
94618SOL    HW185751   4.303   1.681   3.555
94618SOL    HW285752   4.153   1.672   3.535
94619SOL     OW85753   3.747  12.689  10.464
94619SOL    HW185754   3.821  12.667  10.521
94619SOL    HW285755   3.760  12.781  10.441
94620SOL     OW85756   5.634  13.747  10.392
94620SOL    HW185757   5.599  13.836  10.381
94620SOL    HW285758   5.728  13.760  10.404
94621SOL     OW85759   5.875   7.103   6.042
94621SOL    HW185760   5.876   7.192   6.078
94621SOL    HW285761   5.818   7.054   6.101
94622SOL     OW85762  11.295   3.877  12.639
94622SOL    HW185763  11.242   3.902  12.714
94622SOL    HW285764  11.285   3.950  12.577
94623SOL     OW85765   1.349   1.147   0.045
94623SOL    HW185766   1.380   1.114   0.129
94623SOL    HW285767   1.275   1.204   0.066
94624SOL     OW85768   5.591   4.342   0.696
94624SOL    HW185769   5.586   4.246   0.698
94624SOL    HW285770   5.630   4.365   0.781
94625SOL     OW85771   7.375  13.851   8.400
94625SOL    HW185772   7.396  13.758   8.402
94625SOL    HW285773   7.281  13.854   8.385
94626SOL     OW85774   0.492   1.682  14.851
94626SOL    HW185775   0.584   1.684  14.826
94626SOL    HW285776   0.467   1.775  14.854
94627SOL     OW85777   9.797   1.733  14.334
94627SOL    HW185778   9.793   1.827  14.353
94627SOL    HW285779   9.890   1.714  14.325
94628SOL     OW85780  14.513   8.756   7.341
94628SOL    HW185781  14.552   8.843   7.347
94628SOL    HW285782  14.522   8.732   7.249
94629SOL     OW85783  10.216   1.242  12.397
94629SOL    HW185784  10.224   1.178  12.468
94629SOL    HW285785  10.156   1.200  12.335
94630SOL     OW85786  10.629   0.663   3.959
94630SOL    HW185787  10.636   0.567   3.958
94630SOL    HW285788  10.687   0.690   4.030
94631SOL     OW85789   3.623   1.942   3.949
94631SOL    HW185790   3.603   2.022   3.901
94631SOL    HW285791   3.703   1.908   3.908
94632SOL     OW85792  13.594  14.251  12.021
94632SOL    HW185793  13.676  14.301  12.026
94632SOL    HW285794  13.534  14.310  11.974
94633SOL     OW85795   9.014  10.357   7.903
94633SOL    HW185796   8.969  10.297   7.962
94633SOL    HW285797   9.075  10.405   7.960
94634SOL     OW85798   4.367   6.277   7.484
94634SOL    HW185799   4.389   6.350   7.542
94634SOL    HW285800   4.389   6.199   7.535
94635SOL     OW85801  14.384   4.061  11.114
94635SOL    HW185802  14.317   4.056  11.046
94635SOL    HW285803  14.441   4.133  11.086
94636SOL     OW85804   7.833   1.855  10.337
94636SOL    HW185805   7.751   1.818  10.302
94636SOL    HW285806   7.809   1.943  10.365
94637SOL     OW85807  14.705   4.138   2.918
94637SOL    HW185808  14.749   4.063   2.958
94637SOL    HW285809  14.775   4.201   2.902
94638SOL     OW85810   6.977   1.339  13.564
94638SOL    HW185811   6.971   1.311  13.472
94638SOL    HW285812   6.955   1.261  13.615
94639SOL     OW85813   9.657  14.322   0.362
94639SOL    HW185814   9.589  14.327   0.430
94639SOL    HW285815   9.615  14.276   0.290
94640SOL     OW85816   9.715   5.063   7.537
94640SOL    HW185817   9.739   5.019   7.618
94640SOL    HW285818   9.747   5.006   7.467
94641SOL     OW85819   5.492  10.623  10.188
94641SOL    HW185820   5.510  10.561  10.258
94641SOL    HW285821   5.548  10.595  10.116
94642SOL     OW85822   9.878   5.151  10.723
94642SOL    HW185823   9.951   5.187  10.674
94642SOL    HW285824   9.909   5.148  10.814
94643SOL     OW85825   0.617   4.559   6.581
94643SOL    HW185826   0.611   4.600   6.495
94643SOL    HW285827   0.582   4.471   6.568
94644SOL     OW85828   9.543  11.613   1.375
94644SOL    HW185829   9.613  11.678   1.372
94644SOL    HW285830   9.469  11.660   1.413
94645SOL     OW85831  10.688  11.838   0.399
94645SOL    HW185832  10.745  11.886   0.339
94645SOL    HW285833  10.733  11.756   0.417
94646SOL     OW85834  12.507   0.703   7.700
94646SOL    HW185835  12.591   0.728   7.738
94646SOL    HW285836  12.525   0.697   7.606
94647SOL     OW85837  13.510   5.269   2.606
94647SOL    HW185838  13.455   5.338   2.569
94647SOL    HW285839  13.599   5.303   2.599
94648SOL     OW85840   3.594   4.998  10.999
94648SOL    HW185841   3.513   5.020  11.045
94648SOL    HW285842   3.661   5.051  11.042
94649SOL     OW85843  12.567   5.979   3.310
94649SOL    HW185844  12.518   6.051   3.350
94649SOL    HW285845  12.615   5.939   3.382
94650SOL     OW85846  12.896  11.205  13.310
94650SOL    HW185847  12.812  11.215  13.266
94650SOL    HW285848  12.944  11.142  13.256
94651SOL     OW85849   5.404   0.632   2.868
94651SOL    HW185850   5.443   0.658   2.785
94651SOL    HW285851   5.310   0.631   2.852
94652SOL     OW85852   9.410   7.756  13.461
94652SOL    HW185853   9.479   7.719  13.516
94652SOL    HW285854   9.347   7.684  13.450
94653SOL     OW85855  10.107   8.635   0.006
94653SOL    HW185856  10.135   8.552   0.043
94653SOL    HW285857  10.078   8.686   0.081
94654SOL     OW85858  12.052   7.213   3.689
94654SOL    HW185859  12.086   7.210   3.779
94654SOL    HW285860  12.002   7.132   3.680
94655SOL     OW85861   5.264   9.514   0.744
94655SOL    HW185862   5.288   9.505   0.836
94655SOL    HW285863   5.346   9.535   0.700
94656SOL     OW85864  14.685   1.753   1.252
94656SOL    HW185865  14.688   1.714   1.339
94656SOL    HW285866  14.592   1.760   1.231
94657SOL     OW85867  14.785   9.513   5.691
94657SOL    HW185868  14.744   9.538   5.774
94657SOL    HW285869  14.717   9.464   5.645
94658SOL     OW85870  13.210   3.585  10.887
94658SOL    HW185871  13.208   3.519  10.817
94658SOL    HW285872  13.206   3.535  10.968
94659SOL     OW85873   1.930  10.061  12.107
94659SOL    HW185874   1.922   9.989  12.044
94659SOL    HW285875   1.967  10.133  12.056
94660SOL     OW85876   6.539  12.976  14.819
94660SOL    HW185877   6.625  12.963  14.858
94660SOL    HW285878   6.557  12.986  14.725
94661SOL     OW85879  10.082  10.215   9.748
94661SOL    HW185880  10.090  10.127   9.784
94661SOL    HW285881  10.051  10.268   9.821
94662SOL     OW85882   8.068   7.714   0.111
94662SOL    HW185883   8.052   7.625   0.142
94662SOL    HW285884   8.052   7.769   0.188
94663SOL     OW85885   8.241  12.261   5.594
94663SOL    HW185886   8.321  12.309   5.616
94663SOL    HW285887   8.244  12.251   5.499
94664SOL     OW85888   2.448   5.505   1.633
94664SOL    HW185889   2.502   5.427   1.647
94664SOL    HW285890   2.444   5.513   1.538
94665SOL     OW85891  14.471   9.884   0.654
94665SOL    HW185892  14.559   9.868   0.689
94665SOL    HW285893  14.416   9.897   0.732
94666SOL     OW85894  12.917   7.995   4.536
94666SOL    HW185895  12.919   7.901   4.555
94666SOL    HW285896  12.841   8.006   4.478
94667SOL     OW85897   3.741  14.248   7.060
94667SOL    HW185898   3.814  14.269   7.002
94667SOL    HW285899   3.754  14.304   7.137
94668SOL     OW85900   9.737   2.540   5.771
94668SOL    HW185901   9.646   2.566   5.761
94668SOL    HW285902   9.734   2.451   5.805
94669SOL     OW85903   4.639   3.946   3.934
94669SOL    HW185904   4.592   3.921   3.855
94669SOL    HW285905   4.613   3.882   3.999
94670SOL     OW85906  14.712   6.121   2.139
94670SOL    HW185907  14.628   6.076   2.133
94670SOL    HW285908  14.717   6.150   2.231
94671SOL     OW85909   3.219   9.127   2.306
94671SOL    HW185910   3.238   9.162   2.393
94671SOL    HW285911   3.124   9.120   2.303
94672SOL     OW85912  12.069   5.840   8.288
94672SOL    HW185913  11.983   5.872   8.260
94672SOL    HW285914  12.118   5.919   8.309
94673SOL     OW85915   5.387  13.240   1.995
94673SOL    HW185916   5.460  13.206   1.943
94673SOL    HW285917   5.337  13.294   1.933
94674SOL     OW85918   8.384   8.658  11.769
94674SOL    HW185919   8.297   8.621  11.782
94674SOL    HW285920   8.404   8.702  11.851
94675SOL     OW85921   2.361  13.534   3.780
94675SOL    HW185922   2.403  13.555   3.863
94675SOL    HW285923   2.268  13.522   3.803
94676SOL     OW85924   7.716   2.399  10.631
94676SOL    HW185925   7.622   2.417  10.626
94676SOL    HW285926   7.745   2.394  10.540
94677SOL     OW85927   8.147  11.059   0.087
94677SOL    HW185928   8.123  11.033  14.885
94677SOL    HW285929   8.125  10.984   0.141
94678SOL     OW85930   8.121  14.369   3.493
94678SOL    HW185931   8.112  14.382   3.588
94678SOL    HW285932   8.116  14.274   3.482
94679SOL     OW85933   3.904   6.748  11.903
94679SOL    HW185934   3.951   6.709  11.977
94679SOL    HW285935   3.963   6.816  11.870
94680SOL     OW85936   0.440   9.327   1.848
94680SOL    HW185937   0.348   9.303   1.859
94680SOL    HW285938   0.489   9.254   1.887
94681SOL     OW85939   0.389  11.601   1.178
94681SOL    HW185940   0.474  11.558   1.166
94681SOL    HW285941   0.327  11.546   1.130
94682SOL     OW85942   2.649   9.851  10.763
94682SOL    HW185943   2.667   9.769  10.719
94682SOL    HW285944   2.627   9.826  10.853
94683SOL     OW85945   8.092   3.023   6.070
94683SOL    HW185946   8.057   2.934   6.080
94683SOL    HW285947   8.158   3.014   6.002
94684SOL     OW85948  10.557   4.453   5.688
94684SOL    HW185949  10.627   4.389   5.697
94684SOL    HW285950  10.521   4.462   5.776
94685SOL     OW85951  10.013   7.001   5.028
94685SOL    HW185952  10.043   7.056   4.956
94685SOL    HW285953  10.031   7.051   5.107
94686SOL     OW85954   4.704   7.464   7.874
94686SOL    HW185955   4.677   7.495   7.960
94686SOL    HW285956   4.798   7.448   7.883
94687SOL     OW85957   4.741   2.847   0.098
94687SOL    HW185958   4.651   2.824   0.073
94687SOL    HW285959   4.795   2.776   0.062
94688SOL     OW85960   0.071   1.660  13.599
94688SOL    HW185961   0.107   1.577  13.628
94688SOL    HW285962  14.878   1.637  13.552
94689SOL     OW85963  14.669   3.283   1.512
94689SOL    HW185964  14.691   3.355   1.571
94689SOL    HW285965  14.728   3.212   1.537
94690SOL     OW85966   0.410   7.153   6.250
94690SOL    HW185967   0.382   7.225   6.307
94690SOL    HW285968   0.490   7.185   6.209
94691SOL     OW85969   9.785   2.382   4.654
94691SOL    HW185970   9.773   2.439   4.730
94691SOL    HW285971   9.712   2.320   4.659
94692SOL     OW85972   3.314   2.455   2.077
94692SOL    HW185973   3.335   2.548   2.069
94692SOL    HW285974   3.300   2.441   2.170
94693SOL     OW85975   5.631   2.748   5.968
94693SOL    HW185976   5.696   2.714   6.031
94693SOL    HW285977   5.611   2.836   6.000
94694SOL     OW85978   7.795   1.509   0.578
94694SOL    HW185979   7.832   1.477   0.660
94694SOL    HW285980   7.701   1.490   0.586
94695SOL     OW85981  11.796  11.314   2.242
94695SOL    HW185982  11.701  11.320   2.254
94695SOL    HW285983  11.813  11.220   2.236
94696SOL     OW85984   3.511  11.180   2.022
94696SOL    HW185985   3.472  11.175   1.935
94696SOL    HW285986   3.453  11.127   2.078
94697SOL     OW85987   3.206  12.875  11.857
94697SOL    HW185988   3.126  12.855  11.808
94697SOL    HW285989   3.177  12.937  11.924
94698SOL     OW85990   3.434  13.752   4.549
94698SOL    HW185991   3.375  13.826   4.559
94698SOL    HW285992   3.377  13.678   4.530
94699SOL     OW85993  10.199  13.621   9.166
94699SOL    HW185994  10.135  13.627   9.237
94699SOL    HW285995  10.158  13.563   9.102
94700SOL     OW85996   4.845  11.417   3.548
94700SOL    HW185997   4.900  11.496   3.542
94700SOL    HW285998   4.835  11.402   3.642
94701SOL     OW85999   7.719   6.537   7.437
94701SOL    HW186000   7.718   6.574   7.526
94701SOL    HW286001   7.746   6.609   7.381
94702SOL     OW86002   8.785   5.053  14.496
94702SOL    HW186003   8.836   4.979  14.461
94702SOL    HW286004   8.694   5.024  14.491
94703SOL     OW86005   3.754  11.254   2.169
94703SOL    HW186006   3.812  11.191   2.126
94703SOL    HW286007   3.668  11.239   2.131
94704SOL     OW86008   0.450   3.683   2.339
94704SOL    HW186009   0.491   3.673   2.425
94704SOL    HW286010   0.437   3.777   2.329
94705SOL     OW86011   4.355   1.111   6.188
94705SOL    HW186012   4.374   1.186   6.244
94705SOL    HW286013   4.283   1.141   6.132
94706SOL     OW86014   4.964   1.462  13.194
94706SOL    HW186015   4.899   1.398  13.163
94706SOL    HW286016   4.921   1.547  13.182
94707SOL     OW86017   9.880   4.768  10.848
94707SOL    HW186018   9.920   4.763  10.934
94707SOL    HW286019   9.817   4.840  10.855
94708SOL     OW86020   7.832   3.930   8.267
94708SOL    HW186021   7.844   3.865   8.337
94708SOL    HW286022   7.765   3.892   8.211
94709SOL     OW86023   8.511   7.463   2.074
94709SOL    HW186024   8.540   7.385   2.027
94709SOL    HW286025   8.561   7.535   2.035
94710SOL     OW86026   8.403   8.400   4.529
94710SOL    HW186027   8.468   8.428   4.464
94710SOL    HW286028   8.451   8.343   4.589
94711SOL     OW86029   2.544   5.269  11.324
94711SOL    HW186030   2.535   5.357  11.361
94711SOL    HW286031   2.624   5.235  11.363
94712SOL     OW86032  10.046   4.368  11.760
94712SOL    HW186033  10.007   4.394  11.676
94712SOL    HW286034  10.102   4.441  11.784
94713SOL     OW86035  12.258   3.335  12.122
94713SOL    HW186036  12.271   3.264  12.185
94713SOL    HW286037  12.166   3.329  12.097
94714SOL     OW86038   4.814   6.834   5.200
94714SOL    HW186039   4.866   6.759   5.170
94714SOL    HW286040   4.744   6.796   5.252
94715SOL     OW86041  14.696  11.895  14.119
94715SOL    HW186042  14.626  11.948  14.081
94715SOL    HW286043  14.714  11.828  14.053
94716SOL     OW86044   9.911   3.245   1.530
94716SOL    HW186045   9.848   3.173   1.523
94716SOL    HW286046   9.913   3.265   1.624
94717SOL     OW86047  12.596   6.600  12.206
94717SOL    HW186048  12.531   6.531  12.215
94717SOL    HW286049  12.566   6.671  12.263
94718SOL     OW86050   8.416   8.282  12.280
94718SOL    HW186051   8.373   8.283  12.365
94718SOL    HW286052   8.497   8.331  12.293
94719SOL     OW86053   3.696   4.647   8.842
94719SOL    HW186054   3.731   4.659   8.754
94719SOL    HW286055   3.723   4.725   8.890
94720SOL     OW86056  11.752   6.667  11.927
94720SOL    HW186057  11.787   6.631  12.009
94720SOL    HW286058  11.669   6.707  11.953
94721SOL     OW86059  10.989  12.963   6.159
94721SOL    HW186060  11.046  12.891   6.134
94721SOL    HW286061  11.041  13.014   6.222
94722SOL     OW86062   2.010   1.355   9.442
94722SOL    HW186063   1.945   1.403   9.493
94722SOL    HW286064   2.094   1.376   9.483
94723SOL     OW86065   4.879   4.116   0.557
94723SOL    HW186066   4.954   4.136   0.500
94723SOL    HW286067   4.919   4.086   0.638
94724SOL     OW86068   8.936   0.891   2.293
94724SOL    HW186069   8.982   0.839   2.359
94724SOL    HW286070   8.866   0.833   2.262
94725SOL     OW86071  13.977   8.689   5.468
94725SOL    HW186072  13.976   8.781   5.494
94725SOL    HW286073  14.049   8.651   5.517
94726SOL     OW86074   4.022   2.283   4.403
94726SOL    HW186075   4.045   2.366   4.444
94726SOL    HW286076   3.985   2.230   4.474
94727SOL     OW86077   0.091   0.430   3.883
94727SOL    HW186078   0.045   0.513   3.867
94727SOL    HW286079   0.119   0.436   3.974
94728SOL     OW86080   5.956   7.145   0.841
94728SOL    HW186081   6.002   7.137   0.924
94728SOL    HW286082   5.866   7.168   0.864
94729SOL     OW86083   3.849  11.939   9.637
94729SOL    HW186084   3.883  11.881   9.569
94729SOL    HW286085   3.909  12.014   9.637
94730SOL     OW86086   2.747  12.476   5.811
94730SOL    HW186087   2.687  12.414   5.853
94730SOL    HW286088   2.756  12.444   5.721
94731SOL     OW86089   4.227  13.500   2.046
94731SOL    HW186090   4.189  13.493   2.133
94731SOL    HW286091   4.272  13.585   2.046
94732SOL     OW86092   0.998  12.495   0.591
94732SOL    HW186093   1.021  12.522   0.502
94732SOL    HW286094   1.055  12.420   0.609
94733SOL     OW86095  10.238   1.169  10.815
94733SOL    HW186096  10.187   1.245  10.785
94733SOL    HW286097  10.297   1.205  10.881
94734SOL     OW86098   0.537   0.630   1.743
94734SOL    HW186099   0.470   0.696   1.757
94734SOL    HW286100   0.528   0.605   1.651
94735SOL     OW86101  11.994   9.738   5.711
94735SOL    HW186102  11.927   9.807   5.720
94735SOL    HW286103  12.007   9.706   5.800
94736SOL     OW86104   4.840   3.567  12.264
94736SOL    HW186105   4.850   3.649  12.312
94736SOL    HW286106   4.832   3.594  12.172
94737SOL     OW86107   3.787   4.867  11.814
94737SOL    HW186108   3.727   4.800  11.782
94737SOL    HW286109   3.792   4.852  11.908
94738SOL     OW86110   8.244   6.196   4.849
94738SOL    HW186111   8.248   6.274   4.793
94738SOL    HW286112   8.154   6.164   4.839
94739SOL     OW86113   3.446  12.583   3.547
94739SOL    HW186114   3.437  12.636   3.626
94739SOL    HW286115   3.374  12.610   3.490
94740SOL     OW86116   4.597   7.582   6.590
94740SOL    HW186117   4.587   7.496   6.631
94740SOL    HW286118   4.534   7.638   6.635
94741SOL     OW86119  14.409   3.330   9.191
94741SOL    HW186120  14.367   3.410   9.223
94741SOL    HW286121  14.503   3.349   9.197
94742SOL     OW86122  14.179   4.371   2.898
94742SOL    HW186123  14.127   4.356   2.977
94742SOL    HW286124  14.135   4.444   2.854
94743SOL     OW86125   1.777  13.325   7.310
94743SOL    HW186126   1.779  13.355   7.401
94743SOL    HW286127   1.804  13.402   7.259
94744SOL     OW86128   7.971   1.005   1.241
94744SOL    HW186129   8.006   1.036   1.157
94744SOL    HW286130   7.975   1.081   1.298
94745SOL     OW86131  12.141   6.728  14.616
94745SOL    HW186132  12.092   6.653  14.582
94745SOL    HW286133  12.081   6.802  14.605
94746SOL     OW86134   9.344   8.737   0.971
94746SOL    HW186135   9.329   8.707   0.881
94746SOL    HW286136   9.407   8.674   1.007
94747SOL     OW86137  14.707   6.670   2.319
94747SOL    HW186138  14.660   6.625   2.389
94747SOL    HW286139  14.679   6.627   2.239
94748SOL     OW86140   7.578   1.537   0.995
94748SOL    HW186141   7.597   1.623   0.956
94748SOL    HW286142   7.524   1.493   0.930
94749SOL     OW86143   9.856  13.732  10.413
94749SOL    HW186144   9.862  13.669  10.341
94749SOL    HW286145   9.947  13.751  10.435
94750SOL     OW86146  13.808   4.198   6.801
94750SOL    HW186147  13.759   4.154   6.871
94750SOL    HW286148  13.768   4.285   6.795
94751SOL     OW86149  10.748   7.589   5.495
94751SOL    HW186150  10.818   7.529   5.468
94751SOL    HW286151  10.692   7.536   5.553
94752SOL     OW86152  11.365   7.947  10.939
94752SOL    HW186153  11.352   7.915  11.028
94752SOL    HW286154  11.417   7.879  10.896
94753SOL     OW86155  10.448  13.728   0.704
94753SOL    HW186156  10.361  13.709   0.738
94753SOL    HW286157  10.503  13.735   0.781
94754SOL     OW86158   4.447  12.910   6.576
94754SOL    HW186159   4.481  12.999   6.570
94754SOL    HW286160   4.463  12.872   6.490
94755SOL     OW86161  10.883   0.606   5.182
94755SOL    HW186162  10.793   0.596   5.149
94755SOL    HW286163  10.928   0.655   5.115
94756SOL     OW86164   9.075   1.804   2.019
94756SOL    HW186165   9.108   1.717   1.999
94756SOL    HW286166   9.153   1.854   2.044
94757SOL     OW86167   7.948  10.675   6.049
94757SOL    HW186168   8.009  10.733   6.095
94757SOL    HW286169   8.001  10.637   5.978
94758SOL     OW86170  14.666  14.220   4.663
94758SOL    HW186171  14.591  14.258   4.709
94758SOL    HW286172  14.685  14.283   4.594
94759SOL     OW86173   4.575  13.825   8.731
94759SOL    HW186174   4.600  13.821   8.639
94759SOL    HW286175   4.657  13.841   8.777
94760SOL     OW86176   3.819  14.374  10.941
94760SOL    HW186177   3.908  14.373  10.907
94760SOL    HW286178   3.783  14.457  10.912
94761SOL     OW86179   5.343   0.011   0.427
94761SOL    HW186180   5.294   0.075   0.479
94761SOL    HW286181   5.323  14.814   0.469
94762SOL     OW86182   9.856  13.508  10.776
94762SOL    HW186183   9.837  13.518  10.683
94762SOL    HW286184   9.932  13.564  10.792
94763SOL     OW86185   8.080   1.889   9.633
94763SOL    HW186186   8.003   1.916   9.583
94763SOL    HW286187   8.151   1.890   9.569
94764SOL     OW86188   5.692   2.278   2.534
94764SOL    HW186189   5.679   2.325   2.451
94764SOL    HW286190   5.777   2.235   2.523
94765SOL     OW86191   4.202   9.698   6.347
94765SOL    HW186192   4.127   9.748   6.316
94765SOL    HW286193   4.201   9.618   6.294
94766SOL     OW86194   7.206  14.601  10.035
94766SOL    HW186195   7.243  14.567  10.116
94766SOL    HW286196   7.160  14.681  10.062
94767SOL     OW86197   7.428  14.140   0.396
94767SOL    HW186198   7.501  14.078   0.396
94767SOL    HW286199   7.441  14.193   0.317
94768SOL     OW86200   2.062   2.266   9.556
94768SOL    HW186201   2.110   2.307   9.628
94768SOL    HW286202   1.999   2.207   9.599
94769SOL     OW86203  12.284  10.577   5.139
94769SOL    HW186204  12.263  10.665   5.108
94769SOL    HW286205  12.370  10.558   5.102
94770SOL     OW86206   2.667   8.038  14.068
94770SOL    HW186207   2.655   7.989  13.987
94770SOL    HW286208   2.655   8.130  14.042
94771SOL     OW86209  13.334   3.974   6.897
94771SOL    HW186210  13.300   3.906   6.956
94771SOL    HW286211  13.296   3.952   6.812
94772SOL     OW86212   8.801  10.064  10.080
94772SOL    HW186213   8.843  10.021  10.155
94772SOL    HW286214   8.711  10.079  10.108
94773SOL     OW86215   5.341   3.901   0.100
94773SOL    HW186216   5.429   3.911   0.065
94773SOL    HW286217   5.349   3.832   0.165
94774SOL     OW86218  10.950   0.028  12.621
94774SOL    HW186219  10.885  14.876  12.562
94774SOL    HW286220  10.982  14.841  12.673
94775SOL     OW86221   2.022   4.198   5.912
94775SOL    HW186222   2.060   4.162   5.992
94775SOL    HW286223   1.928   4.184   5.921
94776SOL     OW86224  11.828   8.251  14.299
94776SOL    HW186225  11.845   8.191  14.371
94776SOL    HW286226  11.750   8.215  14.256
94777SOL     OW86227   7.346  12.060  12.590
94777SOL    HW186228   7.264  12.012  12.605
94777SOL    HW286229   7.414  12.004  12.627
94778SOL     OW86230  10.816   5.575   9.188
94778SOL    HW186231  10.742   5.602   9.134
94778SOL    HW286232  10.893   5.614   9.146
94779SOL     OW86233  13.968  14.551   7.601
94779SOL    HW186234  14.029  14.576   7.671
94779SOL    HW286235  13.886  14.534   7.647
94780SOL     OW86236   0.379   1.506   1.651
94780SOL    HW186237   0.441   1.457   1.705
94780SOL    HW286238   0.409   1.493   1.561
94781SOL     OW86239  13.038  14.786   4.449
94781SOL    HW186240  13.129  14.777   4.421
94781SOL    HW286241  12.991  14.720   4.399
94782SOL     OW86242  11.714   4.956   5.477
94782SOL    HW186243  11.751   5.004   5.551
94782SOL    HW286244  11.658   5.019   5.433
94783SOL     OW86245   3.172   3.858   1.203
94783SOL    HW186246   3.197   3.776   1.246
94783SOL    HW286247   3.076   3.855   1.199
94784SOL     OW86248   3.908   5.106   8.394
94784SOL    HW186249   3.896   5.041   8.464
94784SOL    HW286250   3.969   5.170   8.431
94785SOL     OW86251   4.458  10.815  10.499
94785SOL    HW186252   4.479  10.735  10.451
94785SOL    HW286253   4.364  10.811  10.513
94786SOL     OW86254   9.644   1.283  10.234
94786SOL    HW186255   9.637   1.189  10.215
94786SOL    HW286256   9.738   1.298  10.246
94787SOL     OW86257   3.338   6.373   0.637
94787SOL    HW186258   3.277   6.349   0.566
94787SOL    HW286259   3.331   6.468   0.643
94788SOL     OW86260   4.534  12.982   8.879
94788SOL    HW186261   4.520  12.946   8.791
94788SOL    HW286262   4.516  13.076   8.869
94789SOL     OW86263   9.545   4.630  14.883
94789SOL    HW186264   9.458   4.670  14.878
94789SOL    HW286265   9.559   4.591  14.797
94790SOL     OW86266   3.662  14.151  10.990
94790SOL    HW186267   3.702  14.076  10.947
94790SOL    HW286268   3.708  14.227  10.954
94791SOL     OW86269   7.259  10.910   7.040
94791SOL    HW186270   7.302  10.825   7.047
94791SOL    HW286271   7.183  10.903   7.097
94792SOL     OW86272  14.307  13.816   1.816
94792SOL    HW186273  14.337  13.781   1.900
94792SOL    HW286274  14.304  13.911   1.830
94793SOL     OW86275  11.744   4.575   3.452
94793SOL    HW186276  11.705   4.497   3.413
94793SOL    HW286277  11.796   4.543   3.525
94794SOL     OW86278  14.010   3.695   7.328
94794SOL    HW186279  14.008   3.743   7.410
94794SOL    HW286280  13.938   3.632   7.334
94795SOL     OW86281   8.574   4.409   6.888
94795SOL    HW186282   8.609   4.321   6.873
94795SOL    HW286283   8.609   4.462   6.816
94796SOL     OW86284  14.874   3.400  14.553
94796SOL    HW186285   0.056   3.403  14.619
94796SOL    HW286286   0.013   3.331  14.493
94797SOL     OW86287   3.621  13.343   1.093
94797SOL    HW186288   3.698  13.288   1.073
94797SOL    HW286289   3.657  13.432   1.101
94798SOL     OW86290  12.968  11.437   7.538
94798SOL    HW186291  12.901  11.471   7.478
94798SOL    HW286292  13.048  11.482   7.512
94799SOL     OW86293   4.486   9.662   9.314
94799SOL    HW186294   4.526   9.724   9.374
94799SOL    HW286295   4.553   9.594   9.301
94800SOL     OW86296  14.690   0.799   3.017
94800SOL    HW186297  14.670   0.761   2.931
94800SOL    HW286298  14.669   0.892   3.006
94801SOL     OW86299   2.026  11.421  13.982
94801SOL    HW186300   2.095  11.395  13.922
94801SOL    HW286301   1.957  11.456  13.925
94802SOL     OW86302  11.691   0.154   7.508
94802SOL    HW186303  11.666   0.210   7.581
94802SOL    HW286304  11.701   0.067   7.547
94803SOL     OW86305   4.790   6.559   7.657
94803SOL    HW186306   4.766   6.623   7.589
94803SOL    HW286307   4.721   6.568   7.723
94804SOL     OW86308   1.337   6.475   4.757
94804SOL    HW186309   1.279   6.500   4.685
94804SOL    HW286310   1.355   6.556   4.803
94805SOL     OW86311   3.942  11.246  11.675
94805SOL    HW186312   3.847  11.256  11.675
94805SOL    HW286313   3.962  11.213  11.587
94806SOL     OW86314   7.593   1.684   7.467
94806SOL    HW186315   7.571   1.719   7.382
94806SOL    HW286316   7.509   1.658   7.506
94807SOL     OW86317   0.844   0.324   3.161
94807SOL    HW186318   0.938   0.326   3.140
94807SOL    HW286319   0.814   0.239   3.129
94808SOL     OW86320   2.658  13.276  13.932
94808SOL    HW186321   2.718  13.338  13.891
94808SOL    HW286322   2.654  13.302  14.024
94809SOL     OW86323   3.653   7.853   0.724
94809SOL    HW186324   3.692   7.811   0.647
94809SOL    HW286325   3.728   7.892   0.770
94810SOL     OW86326  11.460   3.780   6.868
94810SOL    HW186327  11.448   3.840   6.795
94810SOL    HW286328  11.542   3.808   6.910
94811SOL     OW86329  13.522  12.276   2.026
94811SOL    HW186330  13.601  12.322   2.053
94811SOL    HW286331  13.485  12.330   1.956
94812SOL     OW86332   1.338   9.746   1.325
94812SOL    HW186333   1.245   9.771   1.329
94812SOL    HW286334   1.376   9.785   1.404
94813SOL     OW86335   9.044   7.807   7.322
94813SOL    HW186336   9.036   7.732   7.381
94813SOL    HW286337   8.953   7.834   7.306
94814SOL     OW86338   8.922   8.346   7.076
94814SOL    HW186339   8.856   8.278   7.086
94814SOL    HW286340   9.005   8.299   7.072
94815SOL     OW86341   8.004   9.798   8.351
94815SOL    HW186342   7.993   9.726   8.413
94815SOL    HW286343   8.073   9.768   8.292
94816SOL     OW86344   9.817  13.640   9.343
94816SOL    HW186345   9.841  13.674   9.257
94816SOL    HW286346   9.778  13.554   9.324
94817SOL     OW86347   0.893   9.971  13.300
94817SOL    HW186348   0.863  10.015  13.220
94817SOL    HW286349   0.897   9.878  13.276
94818SOL     OW86350   5.290   5.154   1.686
94818SOL    HW186351   5.291   5.238   1.641
94818SOL    HW286352   5.370   5.154   1.739
94819SOL     OW86353   3.527   0.807  10.977
94819SOL    HW186354   3.561   0.803  10.887
94819SOL    HW286355   3.443   0.760  10.973
94820SOL     OW86356  14.584   9.733  14.765
94820SOL    HW186357  14.563   9.814  14.718
94820SOL    HW286358  14.499   9.698  14.792
94821SOL     OW86359  12.517   9.588  14.480
94821SOL    HW186360  12.468   9.648  14.537
94821SOL    HW286361  12.580   9.546  14.539
94822SOL     OW86362  10.491  14.571   4.768
94822SOL    HW186363  10.444  14.504   4.818
94822SOL    HW286364  10.455  14.654   4.799
94823SOL     OW86365   9.371  13.328   6.850
94823SOL    HW186366   9.276  13.321   6.863
94823SOL    HW286367   9.386  13.422   6.839
94824SOL     OW86368   5.257   0.905   8.656
94824SOL    HW186369   5.224   0.815   8.661
94824SOL    HW286370   5.319   0.904   8.583
94825SOL     OW86371  14.102   4.830  14.712
94825SOL    HW186372  14.191   4.828  14.678
94825SOL    HW286373  14.111   4.822  14.807
94826SOL     OW86374  13.744   6.064   0.241
94826SOL    HW186375  13.825   6.069   0.190
94826SOL    HW286376  13.772   6.087   0.330
94827SOL     OW86377   2.903  14.611   6.255
94827SOL    HW186378   2.957  14.555   6.200
94827SOL    HW286379   2.912  14.698   6.217
94828SOL     OW86380  10.883   3.253   2.072
94828SOL    HW186381  10.918   3.193   2.007
94828SOL    HW286382  10.833   3.197   2.131
94829SOL     OW86383   0.107  11.000   2.819
94829SOL    HW186384   0.199  10.976   2.826
94829SOL    HW286385   0.076  11.005   2.910
94830SOL     OW86386   6.336   6.876   0.321
94830SOL    HW186387   6.368   6.966   0.326
94830SOL    HW286388   6.347   6.851   0.229
94831SOL     OW86389  11.449   0.255   1.134
94831SOL    HW186390  11.422   0.176   1.181
94831SOL    HW286391  11.539   0.236   1.106
94832SOL     OW86392   7.072   2.769   5.295
94832SOL    HW186393   7.161   2.797   5.271
94832SOL    HW286394   7.071   2.770   5.390
94833SOL     OW86395  10.356  14.059   3.770
94833SOL    HW186396  10.418  14.131   3.757
94833SOL    HW286397  10.302  14.060   3.691
94834SOL     OW86398   4.746   5.603   9.040
94834SOL    HW186399   4.753   5.696   9.061
94834SOL    HW286400   4.718   5.561   9.121
94835SOL     OW86401  10.198  11.762   5.043
94835SOL    HW186402  10.134  11.780   4.974
94835SOL    HW286403  10.272  11.723   4.998
94836SOL     OW86404  13.617  13.247   0.882
94836SOL    HW186405  13.699  13.222   0.841
94836SOL    HW286406  13.614  13.342   0.875
94837SOL     OW86407   2.835  11.839  11.475
94837SOL    HW186408   2.756  11.888  11.453
94837SOL    HW286409   2.877  11.823  11.391
94838SOL     OW86410   0.744   2.902   0.035
94838SOL    HW186411   0.795   2.824   0.054
94838SOL    HW286412   0.778   2.934  14.839
94839SOL     OW86413   7.542   3.608   2.867
94839SOL    HW186414   7.524   3.530   2.815
94839SOL    HW286415   7.490   3.677   2.826
94840SOL     OW86416   9.685  13.492   8.390
94840SOL    HW186417   9.663  13.580   8.361
94840SOL    HW286418   9.656  13.435   8.319
94841SOL     OW86419  13.799   2.259   0.769
94841SOL    HW186420  13.781   2.213   0.851
94841SOL    HW286421  13.816   2.190   0.705
94842SOL     OW86422   0.999  13.771  13.412
94842SOL    HW186423   0.939  13.775  13.338
94842SOL    HW286424   1.008  13.862  13.441
94843SOL     OW86425  13.640   0.120  14.491
94843SOL    HW186426  13.660   0.213  14.498
94843SOL    HW286427  13.686   0.080  14.564
94844SOL     OW86428   8.355  13.345   3.253
94844SOL    HW186429   8.346  13.262   3.300
94844SOL    HW286430   8.372  13.410   3.321
94845SOL     OW86431   9.157   7.746   2.471
94845SOL    HW186432   9.226   7.811   2.486
94845SOL    HW286433   9.200   7.662   2.487
94846SOL     OW86434   4.456   4.709   4.226
94846SOL    HW186435   4.499   4.625   4.211
94846SOL    HW286436   4.426   4.736   4.139
94847SOL     OW86437   0.564  10.024  12.757
94847SOL    HW186438   0.650   9.984  12.769
94847SOL    HW286439   0.524   9.974  12.686
94848SOL     OW86440   0.453   8.419   5.403
94848SOL    HW186441   0.453   8.325   5.424
94848SOL    HW286442   0.546   8.444   5.408
94849SOL     OW86443   6.512   6.672   2.659
94849SOL    HW186444   6.460   6.593   2.652
94849SOL    HW286445   6.588   6.646   2.712
94850SOL     OW86446  11.881   6.431   3.520
94850SOL    HW186447  11.828   6.375   3.577
94850SOL    HW286448  11.891   6.379   3.440
94851SOL     OW86449   5.063  12.271   5.088
94851SOL    HW186450   5.042  12.362   5.111
94851SOL    HW286451   5.047  12.266   4.993
94852SOL     OW86452  11.028   6.140   4.113
94852SOL    HW186453  11.119   6.160   4.091
94852SOL    HW286454  10.990   6.224   4.137
94853SOL     OW86455  10.163   3.927   1.744
94853SOL    HW186456  10.080   3.966   1.770
94853SOL    HW286457  10.164   3.933   1.648
94854SOL     OW86458   7.326  13.286   3.456
94854SOL    HW186459   7.400  13.226   3.459
94854SOL    HW286460   7.364  13.369   3.425
94855SOL     OW86461   5.031   1.265  10.289
94855SOL    HW186462   5.079   1.188  10.322
94855SOL    HW286463   4.944   1.257  10.328
94856SOL     OW86464   0.375  13.924   4.250
94856SOL    HW186465   0.292  13.876   4.253
94856SOL    HW286466   0.442  13.858   4.235
94857SOL     OW86467  11.977   5.421   2.493
94857SOL    HW186468  12.028   5.424   2.575
94857SOL    HW286469  11.965   5.328   2.476
94858SOL     OW86470   6.358  11.367   6.759
94858SOL    HW186471   6.355  11.292   6.700
94858SOL    HW286472   6.451  11.390   6.765
94859SOL     OW86473   0.346  10.181  14.367
94859SOL    HW186474   0.381  10.249  14.309
94859SOL    HW286475   0.252  10.181  14.349
94860SOL     OW86476   5.825   3.993   5.467
94860SOL    HW186477   5.786   4.079   5.480
94860SOL    HW286478   5.895   4.007   5.403
94861SOL     OW86479   8.903  10.457   1.919
94861SOL    HW186480   8.819  10.415   1.939
94861SOL    HW286481   8.882  10.521   1.851
94862SOL     OW86482  12.729  12.482   4.803
94862SOL    HW186483  12.733  12.536   4.724
94862SOL    HW286484  12.643  12.440   4.799
94863SOL     OW86485  10.800   4.898   6.066
94863SOL    HW186486  10.739   4.835   6.103
94863SOL    HW286487  10.880   4.847   6.050
94864SOL     OW86488   8.943  14.239   9.969
94864SOL    HW186489   8.867  14.238   9.910
94864SOL    HW286490   8.955  14.147   9.994
94865SOL     OW86491   9.243   3.437   8.488
94865SOL    HW186492   9.179   3.379   8.529
94865SOL    HW286493   9.192   3.487   8.424
94866SOL     OW86494   1.888  10.462   0.609
94866SOL    HW186495   1.942  10.428   0.680
94866SOL    HW286496   1.899  10.557   0.614
94867SOL     OW86497  10.601   0.193  10.375
94867SOL    HW186498  10.611   0.128  10.305
94867SOL    HW286499  10.566   0.270  10.330
94868SOL     OW86500   1.043  12.093  14.246
94868SOL    HW186501   1.040  12.102  14.342
94868SOL    HW286502   1.028  12.000  14.231
94869SOL     OW86503   6.740  13.338   3.579
94869SOL    HW186504   6.821  13.332   3.630
94869SOL    HW286505   6.699  13.252   3.587
94870SOL     OW86506  14.149   3.458   7.578
94870SOL    HW186507  14.121   3.444   7.488
94870SOL    HW286508  14.129   3.375   7.623
94871SOL     OW86509  10.603   4.686   8.929
94871SOL    HW186510  10.680   4.630   8.945
94871SOL    HW286511  10.553   4.682   9.010
94872SOL     OW86512   4.163  10.985   1.676
94872SOL    HW186513   4.113  10.903   1.684
94872SOL    HW286514   4.139  11.019   1.590
94873SOL     OW86515   6.309  11.729   0.568
94873SOL    HW186516   6.384  11.786   0.551
94873SOL    HW286517   6.329  11.689   0.653
94874SOL     OW86518   8.833   4.725   8.097
94874SOL    HW186519   8.860   4.635   8.111
94874SOL    HW286520   8.907   4.767   8.053
94875SOL     OW86521  11.282   4.356  10.745
94875SOL    HW186522  11.226   4.432  10.730
94875SOL    HW286523  11.336   4.380  10.820
94876SOL     OW86524   2.637   7.310   9.693
94876SOL    HW186525   2.707   7.347   9.746
94876SOL    HW286526   2.600   7.385   9.646
94877SOL     OW86527   8.460  13.069   1.830
94877SOL    HW186528   8.536  13.022   1.863
94877SOL    HW286529   8.481  13.162   1.844
94878SOL     OW86530  14.056   5.595  11.381
94878SOL    HW186531  13.968   5.567  11.357
94878SOL    HW286532  14.064   5.571  11.474
94879SOL     OW86533   5.532   9.981  11.655
94879SOL    HW186534   5.525   9.917  11.726
94879SOL    HW286535   5.443  10.011  11.640
94880SOL     OW86536   4.129  14.821   1.109
94880SOL    HW186537   4.074  14.752   1.073
94880SOL    HW286538   4.073  14.865   1.173
94881SOL     OW86539   3.275   9.778   0.782
94881SOL    HW186540   3.239   9.835   0.850
94881SOL    HW286541   3.202   9.763   0.722
94882SOL     OW86542   1.356   5.058   1.388
94882SOL    HW186543   1.399   5.004   1.455
94882SOL    HW286544   1.262   5.045   1.404
94883SOL     OW86545  13.971  12.915   9.185
94883SOL    HW186546  14.014  12.919   9.271
94883SOL    HW286547  13.963  13.006   9.158
94884SOL     OW86548   6.596   6.937   7.303
94884SOL    HW186549   6.541   6.887   7.244
94884SOL    HW286550   6.621   7.015   7.253
94885SOL     OW86551  13.392  14.542   9.974
94885SOL    HW186552  13.431  14.500   9.897
94885SOL    HW286553  13.394  14.636   9.953
94886SOL     OW86554   3.878   7.355   2.367
94886SOL    HW186555   3.855   7.318   2.452
94886SOL    HW286556   3.926   7.284   2.323
94887SOL     OW86557  10.502   5.420   8.094
94887SOL    HW186558  10.471   5.386   8.010
94887SOL    HW286559  10.445   5.495   8.112
94888SOL     OW86560   8.637  11.063  11.395
94888SOL    HW186561   8.619  11.123  11.323
94888SOL    HW286562   8.555  11.015  11.407
94889SOL     OW86563   9.555  14.691  13.523
94889SOL    HW186564   9.642  14.666  13.552
94889SOL    HW286565   9.564  14.782  13.495
94890SOL     OW86566  12.600   6.414   6.239
94890SOL    HW186567  12.508   6.432   6.257
94890SOL    HW286568  12.603   6.400   6.145
94891SOL     OW86569  14.146   4.158  12.090
94891SOL    HW186570  14.064   4.115  12.115
94891SOL    HW286571  14.119   4.245  12.060
94892SOL     OW86572  14.862   8.589   5.369
94892SOL    HW186573  14.860   8.548   5.282
94892SOL    HW286574   0.055   8.555   5.409
94893SOL     OW86575   2.860   7.087   4.487
94893SOL    HW186576   2.812   7.017   4.442
94893SOL    HW286577   2.945   7.090   4.444
94894SOL     OW86578  12.690   9.730   5.581
94894SOL    HW186579  12.768   9.702   5.628
94894SOL    HW286580  12.705   9.703   5.490
94895SOL     OW86581   7.167  12.089   8.536
94895SOL    HW186582   7.196  12.000   8.518
94895SOL    HW286583   7.148  12.126   8.450
94896SOL     OW86584   1.462  14.314   6.797
94896SOL    HW186585   1.388  14.266   6.760
94896SOL    HW286586   1.429  14.404   6.808
94897SOL     OW86587  10.258   9.475   9.961
94897SOL    HW186588  10.191   9.413   9.987
94897SOL    HW286589  10.215   9.561   9.966
94898SOL     OW86590   0.174   0.801   1.073
94898SOL    HW186591   0.171   0.765   0.984
94898SOL    HW286592   0.095   0.854   1.080
94899SOL     OW86593   3.762  11.682   8.356
94899SOL    HW186594   3.763  11.759   8.412
94899SOL    HW286595   3.688  11.630   8.386
94900SOL     OW86596   0.429   7.855  13.997
94900SOL    HW186597   0.472   7.879  13.915
94900SOL    HW286598   0.501   7.835  14.057
94901SOL     OW86599   4.878  10.123   0.832
94901SOL    HW186600   4.882  10.159   0.744
94901SOL    HW286601   4.889  10.199   0.889
94902SOL     OW86602   4.559   0.836   5.136
94902SOL    HW186603   4.483   0.852   5.080
94902SOL    HW286604   4.576   0.920   5.177
94903SOL     OW86605   8.433   2.544   4.286
94903SOL    HW186606   8.379   2.561   4.209
94903SOL    HW286607   8.391   2.595   4.356
94904SOL     OW86608   4.746   8.603   0.451
94904SOL    HW186609   4.725   8.518   0.491
94904SOL    HW286610   4.760   8.661   0.526
94905SOL     OW86611  13.511  12.406   5.772
94905SOL    HW186612  13.573  12.390   5.843
94905SOL    HW286613  13.494  12.319   5.736
94906SOL     OW86614   5.016   0.407   0.578
94906SOL    HW186615   4.954   0.344   0.616
94906SOL    HW286616   5.048   0.365   0.498
94907SOL     OW86617   7.872   5.528   4.526
94907SOL    HW186618   7.850   5.602   4.582
94907SOL    HW286619   7.853   5.451   4.579
94908SOL     OW86620   0.438   9.164   2.357
94908SOL    HW186621   0.367   9.152   2.293
94908SOL    HW286622   0.472   9.252   2.340
94909SOL     OW86623  14.756  11.267   1.529
94909SOL    HW186624  14.789  11.178   1.533
94909SOL    HW286625  14.764  11.300   1.618
94910SOL     OW86626   9.641   7.882   7.302
94910SOL    HW186627   9.650   7.971   7.269
94910SOL    HW286628   9.573   7.843   7.248
94911SOL     OW86629  13.661   7.725   5.342
94911SOL    HW186630  13.655   7.803   5.397
94911SOL    HW286631  13.601   7.742   5.270
94912SOL     OW86632   8.607   0.123   0.171
94912SOL    HW186633   8.547   0.049   0.176
94912SOL    HW286634   8.669   0.100   0.101
94913SOL     OW86635  14.329  10.426   6.608
94913SOL    HW186636  14.288  10.453   6.527
94913SOL    HW286637  14.409  10.380   6.580
94914SOL     OW86638  10.347   9.070   2.205
94914SOL    HW186639  10.329   8.996   2.262
94914SOL    HW286640  10.441   9.064   2.187
94915SOL     OW86641  12.701   9.156   8.314
94915SOL    HW186642  12.712   9.132   8.222
94915SOL    HW286643  12.659   9.080   8.354
94916SOL     OW86644   1.613   4.408   9.471
94916SOL    HW186645   1.677   4.370   9.411
94916SOL    HW286646   1.643   4.497   9.486
94917SOL     OW86647  10.268   6.002   8.298
94917SOL    HW186648  10.304   6.012   8.385
94917SOL    HW286649  10.175   5.982   8.312
94918SOL     OW86650   9.905   9.421  11.435
94918SOL    HW186651   9.895   9.499  11.381
94918SOL    HW286652   9.998   9.400  11.431
94919SOL     OW86653  13.700  14.442   2.865
94919SOL    HW186654  13.756  14.494   2.924
94919SOL    HW286655  13.611  14.457   2.897
94920SOL     OW86656  12.359   5.749  10.966
94920SOL    HW186657  12.379   5.777  10.876
94920SOL    HW286658  12.412   5.807  11.021
94921SOL     OW86659   1.657  10.897   7.368
94921SOL    HW186660   1.668  10.814   7.414
94921SOL    HW286661   1.700  10.883   7.283
94922SOL     OW86662   0.724  11.618  13.372
94922SOL    HW186663   0.793  11.585  13.429
94922SOL    HW286664   0.644  11.612  13.425
94923SOL     OW86665   8.661   5.137   6.593
94923SOL    HW186666   8.749   5.171   6.580
94923SOL    HW286667   8.607   5.185   6.529
94924SOL     OW86668   3.684   0.830  10.721
94924SOL    HW186669   3.635   0.910  10.740
94924SOL    HW286670   3.731   0.849  10.640
94925SOL     OW86671   4.871   3.187   7.185
94925SOL    HW186672   4.883   3.254   7.252
94925SOL    HW286673   4.803   3.129   7.221
94926SOL     OW86674   3.061   5.744  11.470
94926SOL    HW186675   3.149   5.767  11.501
94926SOL    HW286676   3.021   5.696  11.543
94927SOL     OW86677  11.304   7.139   0.619
94927SOL    HW186678  11.348   7.069   0.666
94927SOL    HW286679  11.342   7.220   0.654
94928SOL     OW86680   6.678   9.684   2.236
94928SOL    HW186681   6.646   9.694   2.146
94928SOL    HW286682   6.684   9.590   2.249
94929SOL     OW86683   7.414  13.430  14.698
94929SOL    HW186684   7.398  13.481  14.618
94929SOL    HW286685   7.450  13.494  14.760
94930SOL     OW86686   2.808  11.732   0.579
94930SOL    HW186687   2.810  11.757   0.487
94930SOL    HW286688   2.900  11.721   0.603
94931SOL     OW86689   2.735   6.204   5.544
94931SOL    HW186690   2.785   6.196   5.625
94931SOL    HW286691   2.747   6.295   5.518
94932SOL     OW86692  11.243  11.720   2.584
94932SOL    HW186693  11.236  11.811   2.555
94932SOL    HW286694  11.297  11.678   2.518
94933SOL     OW86695   6.256   3.639   5.582
94933SOL    HW186696   6.319   3.584   5.630
94933SOL    HW286697   6.174   3.627   5.629
94934SOL     OW86698   0.877  13.169  14.282
94934SOL    HW186699   0.912  13.104  14.221
94934SOL    HW286700   0.830  13.118  14.347
94935SOL     OW86701   5.302  11.052   2.469
94935SOL    HW186702   5.271  11.104   2.543
94935SOL    HW286703   5.350  10.979   2.509
94936SOL     OW86704   1.303  10.116   1.351
94936SOL    HW186705   1.269  10.146   1.435
94936SOL    HW286706   1.294  10.020   1.354
94937SOL     OW86707  10.360  13.423  13.961
94937SOL    HW186708  10.422  13.481  14.004
94937SOL    HW286709  10.386  13.424  13.868
94938SOL     OW86710   0.990   2.562   2.256
94938SOL    HW186711   0.935   2.495   2.215
94938SOL    HW286712   0.932   2.638   2.265
94939SOL     OW86713  11.163   2.461   3.503
94939SOL    HW186714  11.250   2.492   3.529
94939SOL    HW286715  11.130   2.529   3.443
94940SOL     OW86716   2.523   5.457  12.568
94940SOL    HW186717   2.456   5.400  12.532
94940SOL    HW286718   2.528   5.531  12.508
94941SOL     OW86719   3.236  10.277  12.502
94941SOL    HW186720   3.300  10.344  12.530
94941SOL    HW286721   3.288  10.213  12.454
94942SOL     OW86722  12.347   1.748  12.864
94942SOL    HW186723  12.291   1.729  12.940
94942SOL    HW286724  12.390   1.664  12.845
94943SOL     OW86725   2.843  14.887   7.701
94943SOL    HW186726   2.889  14.805   7.719
94943SOL    HW286727   2.844   0.007   7.606
94944SOL     OW86728   0.341  10.906   4.143
94944SOL    HW186729   0.405  10.908   4.072
94944SOL    HW286730   0.265  10.954   4.109
94945SOL     OW86731   1.868   6.475   6.766
94945SOL    HW186732   1.932   6.505   6.701
94945SOL    HW286733   1.918   6.420   6.826
94946SOL     OW86734  14.473   7.379  11.775
94946SOL    HW186735  14.545   7.389  11.712
94946SOL    HW286736  14.404   7.437  11.744
94947SOL     OW86737   3.182   1.234   6.894
94947SOL    HW186738   3.179   1.295   6.820
94947SOL    HW286739   3.099   1.248   6.940
94948SOL     OW86740   2.241   8.246   8.947
94948SOL    HW186741   2.289   8.288   8.876
94948SOL    HW286742   2.158   8.294   8.952
94949SOL     OW86743   0.648   4.379  12.147
94949SOL    HW186744   0.642   4.461  12.099
94949SOL    HW286745   0.588   4.388  12.221
94950SOL     OW86746   7.407   3.671   5.217
94950SOL    HW186747   7.425   3.701   5.306
94950SOL    HW286748   7.492   3.647   5.181
94951SOL     OW86749   3.394   4.138  14.610
94951SOL    HW186750   3.349   4.158  14.528
94951SOL    HW286751   3.452   4.214  14.624
94952SOL     OW86752   9.094  10.326  13.646
94952SOL    HW186753   9.174  10.316  13.698
94952SOL    HW286754   9.024  10.330  13.711
94953SOL     OW86755   6.304   2.247  11.007
94953SOL    HW186756   6.223   2.196  10.998
94953SOL    HW286757   6.295   2.316  10.942
94954SOL     OW86758   6.178   5.773  10.467
94954SOL    HW186759   6.199   5.828  10.393
94954SOL    HW286760   6.263   5.751  10.506
94955SOL     OW86761  14.074   0.440   4.802
94955SOL    HW186762  14.052   0.371   4.864
94955SOL    HW286763  14.154   0.480   4.836
94956SOL     OW86764   7.563   9.415   4.859
94956SOL    HW186765   7.519   9.499   4.848
94956SOL    HW286766   7.639   9.434   4.914
94957SOL     OW86767  11.165   3.604  10.810
94957SOL    HW186768  11.147   3.675  10.749
94957SOL    HW286769  11.260   3.591  10.804
94958SOL     OW86770   3.996   4.275   8.638
94958SOL    HW186771   3.954   4.190   8.639
94958SOL    HW286772   4.005   4.298   8.731
94959SOL     OW86773   7.254   7.717   9.385
94959SOL    HW186774   7.242   7.810   9.404
94959SOL    HW286775   7.201   7.702   9.307
94960SOL     OW86776   7.753   5.537   9.843
94960SOL    HW186777   7.824   5.504   9.788
94960SOL    HW286778   7.707   5.599   9.787
94961SOL     OW86779   0.744  14.501   0.461
94961SOL    HW186780   0.673  14.566   0.464
94961SOL    HW286781   0.712  14.433   0.402
94962SOL     OW86782   8.715   3.583   8.660
94962SOL    HW186783   8.740   3.658   8.713
94962SOL    HW286784   8.686   3.621   8.577
94963SOL     OW86785   9.526   2.334  12.492
94963SOL    HW186786   9.521   2.419  12.536
94963SOL    HW286787   9.447   2.288  12.518
94964SOL     OW86788  11.750   2.906   2.754
94964SOL    HW186789  11.774   2.995   2.728
94964SOL    HW286790  11.791   2.894   2.840
94965SOL     OW86791  13.754   7.423   5.943
94965SOL    HW186792  13.835   7.450   5.900
94965SOL    HW286793  13.723   7.501   5.988
94966SOL     OW86794   9.914  11.193   0.235
94966SOL    HW186795   9.917  11.121   0.299
94966SOL    HW286796   9.995  11.184   0.185
94967SOL     OW86797   2.128  14.522   9.348
94967SOL    HW186798   2.217  14.550   9.367
94967SOL    HW286799   2.094  14.492   9.432
94968SOL     OW86800  14.341   9.925  10.203
94968SOL    HW186801  14.324   9.847  10.255
94968SOL    HW286802  14.268   9.930  10.141
94969SOL     OW86803  14.005  10.369   9.370
94969SOL    HW186804  14.063  10.444   9.381
94969SOL    HW286805  14.056  10.307   9.318
94970SOL     OW86806  12.860   1.307   9.191
94970SOL    HW186807  12.874   1.301   9.097
94970SOL    HW286808  12.772   1.344   9.200
94971SOL     OW86809  13.224   5.846   0.691
94971SOL    HW186810  13.163   5.883   0.754
94971SOL    HW286811  13.189   5.759   0.671
94972SOL     OW86812   5.026  13.241   3.156
94972SOL    HW186813   5.022  13.302   3.230
94972SOL    HW286814   5.099  13.273   3.103
94973SOL     OW86815   6.686  11.933  13.517
94973SOL    HW186816   6.717  11.890  13.437
94973SOL    HW286817   6.592  11.916  13.518
94974SOL     OW86818  13.799  13.730   5.006
94974SOL    HW186819  13.880  13.720   4.956
94974SOL    HW286820  13.794  13.651   5.059
94975SOL     OW86821   6.376  13.965   9.634
94975SOL    HW186822   6.452  13.924   9.675
94975SOL    HW286823   6.405  13.991   9.547
94976SOL     OW86824   2.241   9.318   0.606
94976SOL    HW186825   2.288   9.237   0.626
94976SOL    HW286826   2.179   9.330   0.677
94977SOL     OW86827   3.446   5.673   0.022
94977SOL    HW186828   3.488   5.735  14.849
94977SOL    HW286829   3.517   5.617   0.051
94978SOL     OW86830  10.635   9.879   5.467
94978SOL    HW186831  10.578   9.873   5.544
94978SOL    HW286832  10.617   9.966   5.431
94979SOL     OW86833  13.992  11.177   2.636
94979SOL    HW186834  13.917  11.214   2.683
94979SOL    HW286835  14.065  11.235   2.658
94980SOL     OW86836   3.646   6.803  12.713
94980SOL    HW186837   3.738   6.823  12.694
94980SOL    HW286838   3.599   6.882  12.687
94981SOL     OW86839   6.897  14.022   6.657
94981SOL    HW186840   6.841  13.960   6.704
94981SOL    HW286841   6.938  14.074   6.727
94982SOL     OW86842   3.301   3.155   9.784
94982SOL    HW186843   3.232   3.130   9.723
94982SOL    HW286844   3.364   3.204   9.731
94983SOL     OW86845  10.792   1.130  12.293
94983SOL    HW186846  10.831   1.208  12.331
94983SOL    HW286847  10.733   1.097  12.360
94984SOL     OW86848   3.776   6.232  10.477
94984SOL    HW186849   3.723   6.236  10.557
94984SOL    HW286850   3.823   6.149  10.484
94985SOL     OW86851   9.870  12.848   7.056
94985SOL    HW186852   9.855  12.941   7.039
94985SOL    HW286853   9.901  12.813   6.973
94986SOL     OW86854   5.263   5.565  11.327
94986SOL    HW186855   5.180   5.557  11.373
94986SOL    HW286856   5.240   5.556  11.234
94987SOL     OW86857  12.289  12.028   8.330
94987SOL    HW186858  12.207  12.068   8.301
94987SOL    HW286859  12.330  11.996   8.250
94988SOL     OW86860   8.466   3.063   2.245
94988SOL    HW186861   8.552   3.093   2.276
94988SOL    HW286862   8.465   3.086   2.153
94989SOL     OW86863   1.171  12.437   3.900
94989SOL    HW186864   1.084  12.476   3.891
94989SOL    HW286865   1.215  12.458   3.817
94990SOL     OW86866   0.056   8.487  12.610
94990SOL    HW186867  14.871   8.425  12.618
94990SOL    HW286868   0.088   8.499  12.699
94991SOL     OW86869   9.729   1.082   0.174
94991SOL    HW186870   9.819   1.111   0.190
94991SOL    HW286871   9.719   1.005   0.230
94992SOL     OW86872   4.577   7.606   6.312
94992SOL    HW186873   4.619   7.559   6.384
94992SOL    HW286874   4.484   7.598   6.330
94993SOL     OW86875   3.336  11.982  11.438
94993SOL    HW186876   3.256  11.938  11.467
94993SOL    HW286877   3.335  11.973  11.343
94994SOL     OW86878   6.793   8.082  10.145
94994SOL    HW186879   6.736   8.014  10.183
94994SOL    HW286880   6.831   8.040  10.067
94995SOL     OW86881   5.770  12.892   8.951
94995SOL    HW186882   5.756  12.844   8.870
94995SOL    HW286883   5.865  12.904   8.956
94996SOL     OW86884   3.501   3.976   3.406
94996SOL    HW186885   3.547   3.999   3.487
94996SOL    HW286886   3.529   4.042   3.343
94997SOL     OW86887   4.670   2.027  14.556
94997SOL    HW186888   4.611   2.076  14.613
94997SOL    HW286889   4.708   1.960  14.613
94998SOL     OW86890  10.409   3.207   9.671
94998SOL    HW186891  10.395   3.198   9.765
94998SOL    HW286892  10.375   3.294   9.650
94999SOL     OW86893   3.215   8.337   2.877
94999SOL    HW186894   3.243   8.343   2.786
94999SOL    HW286895   3.223   8.244   2.898
95000SOL     OW86896   0.985  11.130   8.917
95000SOL    HW186897   0.940  11.055   8.879
95000SOL    HW286898   1.034  11.168   8.844
95001SOL     OW86899   1.473   0.488   7.780
95001SOL    HW186900   1.526   0.561   7.749
95001SOL    HW286901   1.485   0.488   7.875
95002SOL     OW86902  11.169   2.491   8.166
95002SOL    HW186903  11.224   2.424   8.207
95002SOL    HW286904  11.119   2.527   8.239
95003SOL     OW86905   9.879  14.258  13.777
95003SOL    HW186906   9.905  14.177  13.732
95003SOL    HW286907   9.901  14.328  13.716
95004SOL     OW86908   0.044   6.710   8.923
95004SOL    HW186909   0.106   6.781   8.907
95004SOL    HW286910  14.863   6.750   8.976
95005SOL     OW86911   2.878  10.210   9.546
95005SOL    HW186912   2.814  10.150   9.508
95005SOL    HW286913   2.881  10.184   9.639
95006SOL     OW86914   8.754   3.640  12.747
95006SOL    HW186915   8.756   3.552  12.709
95006SOL    HW286916   8.668   3.674  12.725
95007SOL     OW86917  13.082  10.292  12.606
95007SOL    HW186918  13.150  10.291  12.673
95007SOL    HW286919  13.016  10.352  12.641
95008SOL     OW86920  10.525  10.398   9.588
95008SOL    HW186921  10.540  10.490   9.568
95008SOL    HW286922  10.613  10.362   9.602
95009SOL     OW86923  13.150  12.348  10.908
95009SOL    HW186924  13.226  12.386  10.864
95009SOL    HW286925  13.128  12.270  10.856
95010SOL     OW86926   2.731   9.272   8.614
95010SOL    HW186927   2.684   9.350   8.646
95010SOL    HW286928   2.760   9.228   8.694
95011SOL     OW86929  14.003  14.639   0.916
95011SOL    HW186930  14.044  14.636   1.002
95011SOL    HW286931  14.050  14.708   0.869
95012SOL     OW86932   8.932   9.697   2.457
95012SOL    HW186933   8.894   9.616   2.492
95012SOL    HW286934   8.926   9.759   2.529
95013SOL     OW86935   1.053   2.459   9.563
95013SOL    HW186936   1.022   2.459   9.472
95013SOL    HW286937   1.004   2.390   9.606
95014SOL     OW86938  14.099  13.932   9.115
95014SOL    HW186939  14.030  13.865   9.111
95014SOL    HW286940  14.164  13.895   9.174
95015SOL     OW86941   2.261  14.196  10.042
95015SOL    HW186942   2.242  14.213   9.950
95015SOL    HW286943   2.179  14.213  10.087
95016SOL     OW86944   7.546  10.336  13.164
95016SOL    HW186945   7.477  10.281  13.126
95016SOL    HW286946   7.499  10.398  13.218
95017SOL     OW86947   5.494   2.429   7.617
95017SOL    HW186948   5.563   2.437   7.552
95017SOL    HW286949   5.416   2.466   7.574
95018SOL     OW86950   2.086  12.743  13.468
95018SOL    HW186951   2.154  12.798  13.508
95018SOL    HW286952   2.081  12.775  13.378
95019SOL     OW86953   2.846   3.045  13.558
95019SOL    HW186954   2.759   3.047  13.519
95019SOL    HW286955   2.889   3.125  13.525
95020SOL     OW86956   7.216  12.944   6.211
95020SOL    HW186957   7.302  12.945   6.170
95020SOL    HW286958   7.193  13.037   6.220
95021SOL     OW86959  14.383   1.906   4.605
95021SOL    HW186960  14.350   1.993   4.584
95021SOL    HW286961  14.310   1.847   4.589
95022SOL     OW86962   1.479   2.718   8.337
95022SOL    HW186963   1.534   2.791   8.309
95022SOL    HW286964   1.391   2.754   8.341
95023SOL     OW86965   2.518   1.564   3.843
95023SOL    HW186966   2.517   1.548   3.938
95023SOL    HW286967   2.518   1.476   3.805
95024SOL     OW86968   1.740   7.959  13.433
95024SOL    HW186969   1.655   7.989  13.465
95024SOL    HW286970   1.754   8.007  13.352
95025SOL     OW86971   0.358  14.767   4.382
95025SOL    HW186972   0.401  14.804   4.459
95025SOL    HW286973   0.383  14.826   4.310
95026SOL     OW86974   4.245  11.731  14.607
95026SOL    HW186975   4.194  11.695  14.534
95026SOL    HW286976   4.245  11.825  14.592
95027SOL     OW86977   4.016  12.284   5.154
95027SOL    HW186978   4.009  12.203   5.103
95027SOL    HW286979   3.927  12.305   5.179
95028SOL     OW86980  14.861   9.078   2.354
95028SOL    HW186981  14.826   9.108   2.438
95028SOL    HW286982   0.021   9.154   2.320
95029SOL     OW86983   5.364   9.824   8.255
95029SOL    HW186984   5.328   9.772   8.327
95029SOL    HW286985   5.459   9.817   8.266
95030SOL     OW86986   6.504  14.492   0.541
95030SOL    HW186987   6.446  14.512   0.468
95030SOL    HW286988   6.456  14.427   0.593
95031SOL     OW86989   6.011   2.477   9.960
95031SOL    HW186990   5.923   2.493   9.926
95031SOL    HW286991   6.069   2.522   9.899
95032SOL     OW86992   0.512   1.107   6.620
95032SOL    HW186993   0.575   1.171   6.651
95032SOL    HW286994   0.515   1.114   6.524
95033SOL     OW86995   7.980   2.608  10.885
95033SOL    HW186996   8.055   2.650  10.928
95033SOL    HW286997   7.948   2.674  10.824
95034SOL     OW86998  11.763   6.163   0.760
95034SOL    HW186999  11.805   6.090   0.713
95034SOL    HW287000  11.806   6.241   0.726
95035SOL     OW87001   1.269   5.092   1.754
95035SOL    HW187002   1.356   5.113   1.789
95035SOL    HW287003   1.243   5.013   1.803
95036SOL     OW87004   8.607   4.116   2.511
95036SOL    HW187005   8.691   4.076   2.490
95036SOL    HW287006   8.631   4.195   2.561
95037SOL     OW87007  11.134  10.919   1.547
95037SOL    HW187008  11.064  10.857   1.567
95037SOL    HW287009  11.090  10.989   1.499
95038SOL     OW87010  11.482  14.496   0.791
95038SOL    HW187011  11.530  14.551   0.853
95038SOL    HW287012  11.434  14.557   0.736
95039SOL     OW87013  13.878   0.899   6.206
95039SOL    HW187014  13.963   0.915   6.246
95039SOL    HW287015  13.897   0.843   6.131
95040SOL     OW87016   6.985   3.183   7.962
95040SOL    HW187017   7.071   3.220   7.941
95040SOL    HW287018   6.928   3.259   7.974
95041SOL     OW87019  11.263   2.258   0.905
95041SOL    HW187020  11.171   2.236   0.924
95041SOL    HW287021  11.276   2.230   0.815
95042SOL     OW87022  10.901   1.945  10.043
95042SOL    HW187023  10.879   1.883   9.973
95042SOL    HW287024  10.854   1.912  10.120
95043SOL     OW87025   0.655  12.417   5.496
95043SOL    HW187026   0.730  12.406   5.554
95043SOL    HW287027   0.595  12.475   5.543
95044SOL     OW87028   3.415   6.086  11.592
95044SOL    HW187029   3.453   6.174  11.590
95044SOL    HW287030   3.360   6.085  11.671
95045SOL     OW87031  11.992   9.806  10.374
95045SOL    HW187032  11.985   9.859  10.453
95045SOL    HW287033  12.054   9.736  10.397
95046SOL     OW87034   3.114   3.666   5.414
95046SOL    HW187035   3.209   3.664   5.402
95046SOL    HW287036   3.080   3.674   5.325
95047SOL     OW87037   9.421   3.222   6.889
95047SOL    HW187038   9.361   3.162   6.932
95047SOL    HW287039   9.492   3.167   6.856
95048SOL     OW87040   9.992   8.780   5.233
95048SOL    HW187041   9.985   8.817   5.321
95048SOL    HW287042  10.014   8.854   5.177
95049SOL     OW87043  12.626  13.243   2.731
95049SOL    HW187044  12.616  13.336   2.751
95049SOL    HW287045  12.563  13.199   2.789
95050SOL     OW87046  13.892  11.541  13.029
95050SOL    HW187047  13.949  11.515  12.956
95050SOL    HW287048  13.806  11.553  12.989
95051SOL     OW87049  12.066   4.370   3.314
95051SOL    HW187050  11.979   4.335   3.295
95051SOL    HW287051  12.122   4.331   3.247
95052SOL     OW87052   3.042   1.975   8.867
95052SOL    HW187053   3.051   1.883   8.892
95052SOL    HW287054   2.948   1.988   8.859
95053SOL     OW87055  12.775   9.507   1.499
95053SOL    HW187056  12.785   9.590   1.452
95053SOL    HW287057  12.758   9.442   1.430
95054SOL     OW87058  13.165   8.686   0.859
95054SOL    HW187059  13.120   8.731   0.930
95054SOL    HW287060  13.130   8.725   0.779
95055SOL     OW87061   4.899  14.097   6.646
95055SOL    HW187062   4.814  14.083   6.603
95055SOL    HW287063   4.902  14.030   6.714
95056SOL     OW87064   4.356  14.358   4.437
95056SOL    HW187065   4.393  14.318   4.515
95056SOL    HW287066   4.411  14.327   4.365
95057SOL     OW87067   5.408   5.225   0.715
95057SOL    HW187068   5.347   5.160   0.748
95057SOL    HW287069   5.398   5.300   0.774
95058SOL     OW87070  14.413  14.571  13.506
95058SOL    HW187071  14.341  14.561  13.444
95058SOL    HW287072  14.391  14.650  13.556
95059SOL     OW87073   0.951  10.795   3.442
95059SOL    HW187074   0.903  10.750   3.373
95059SOL    HW287075   1.031  10.826   3.399
95060SOL     OW87076   5.749  13.424  12.952
95060SOL    HW187077   5.741  13.380  12.867
95060SOL    HW287078   5.659  13.438  12.980
95061SOL     OW87079   4.752  13.445   3.812
95061SOL    HW187080   4.820  13.512   3.821
95061SOL    HW287081   4.729  13.422   3.902
95062SOL     OW87082   2.534  14.645   8.765
95062SOL    HW187083   2.451  14.670   8.725
95062SOL    HW287084   2.536  14.549   8.760
95063SOL     OW87085  11.697  10.066   4.294
95063SOL    HW187086  11.663  10.064   4.205
95063SOL    HW287087  11.767  10.132   4.292
95064SOL     OW87088   1.924   5.432   4.505
95064SOL    HW187089   1.854   5.368   4.518
95064SOL    HW287090   1.964   5.441   4.591
95065SOL     OW87091   5.511  11.335  14.279
95065SOL    HW187092   5.601  11.302  14.285
95065SOL    HW287093   5.486  11.355  14.369
95066SOL     OW87094   7.454   1.483   4.951
95066SOL    HW187095   7.446   1.537   5.029
95066SOL    HW287096   7.367   1.446   4.938
95067SOL     OW87097  13.934   2.670   9.829
95067SOL    HW187098  13.867   2.639   9.769
95067SOL    HW287099  13.896   2.658   9.916
95068SOL     OW87100   5.027  13.379   2.377
95068SOL    HW187101   4.973  13.377   2.456
95068SOL    HW287102   5.105  13.429   2.403
95069SOL     OW87103   4.347  10.498   5.295
95069SOL    HW187104   4.435  10.492   5.332
95069SOL    HW287105   4.347  10.437   5.222
95070SOL     OW87106  11.342   4.981   9.338
95070SOL    HW187107  11.280   5.046   9.305
95070SOL    HW287108  11.422   5.031   9.354
95071SOL     OW87109  11.138   6.891  11.611
95071SOL    HW187110  11.084   6.901  11.532
95071SOL    HW287111  11.203   6.825  11.587
95072SOL     OW87112   4.125  12.340   9.839
95072SOL    HW187113   4.099  12.421   9.796
95072SOL    HW287114   4.067  12.333   9.914
95073SOL     OW87115   1.788  12.915  10.795
95073SOL    HW187116   1.736  12.893  10.872
95073SOL    HW287117   1.778  12.840  10.737
95074SOL     OW87118  11.400   3.219   1.958
95074SOL    HW187119  11.307   3.232   1.978
95074SOL    HW287120  11.415   3.126   1.976
95075SOL     OW87121   0.581  10.064   4.723
95075SOL    HW187122   0.537  10.009   4.659
95075SOL    HW287123   0.644  10.115   4.673
95076SOL     OW87124   3.201  14.571  14.618
95076SOL    HW187125   3.132  14.515  14.582
95076SOL    HW287126   3.252  14.514  14.675
95077SOL     OW87127  11.577   1.259   4.854
95077SOL    HW187128  11.647   1.260   4.920
95077SOL    HW287129  11.595   1.181   4.802
95078SOL     OW87130  12.532   0.620  11.797
95078SOL    HW187131  12.444   0.642  11.765
95078SOL    HW287132  12.587   0.620  11.719
95079SOL     OW87133  13.099  11.389   2.116
95079SOL    HW187134  13.165  11.456   2.134
95079SOL    HW287135  13.060  11.371   2.201
95080SOL     OW87136   7.846  13.525  14.264
95080SOL    HW187137   7.940  13.531  14.284
95080SOL    HW287138   7.836  13.574  14.183
95081SOL     OW87139   3.538   1.467  11.153
95081SOL    HW187140   3.505   1.543  11.201
95081SOL    HW287141   3.607   1.431  11.209
95082SOL     OW87142   5.745  14.782  11.109
95082SOL    HW187143   5.817  14.769  11.171
95082SOL    HW287144   5.755  14.872  11.080
95083SOL     OW87145  11.279   8.329   1.273
95083SOL    HW187146  11.263   8.373   1.356
95083SOL    HW287147  11.266   8.398   1.207
95084SOL     OW87148   6.526  11.411   5.632
95084SOL    HW187149   6.457  11.476   5.617
95084SOL    HW287150   6.481  11.336   5.671
95085SOL     OW87151   5.828   8.205  10.841
95085SOL    HW187152   5.910   8.232  10.883
95085SOL    HW287153   5.853   8.134  10.782
95086SOL     OW87154  13.926   0.128   3.587
95086SOL    HW187155  13.846   0.168   3.555
95086SOL    HW287156  13.941   0.053   3.529
95087SOL     OW87157   0.178  14.193   2.167
95087SOL    HW187158   0.217  14.276   2.139
95087SOL    HW287159   0.251  14.144   2.204
95088SOL     OW87160   2.108   1.760   6.333
95088SOL    HW187161   2.198   1.776   6.307
95088SOL    HW287162   2.068   1.721   6.255
95089SOL     OW87163   1.870   3.240   6.606
95089SOL    HW187164   1.813   3.214   6.678
95089SOL    HW287165   1.939   3.174   6.605
95090SOL     OW87166  12.612   6.267   7.147
95090SOL    HW187167  12.609   6.344   7.090
95090SOL    HW287168  12.624   6.194   7.087
95091SOL     OW87169   1.496   1.635   2.263
95091SOL    HW187170   1.451   1.588   2.333
95091SOL    HW287171   1.556   1.570   2.226
95092SOL     OW87172  11.824   4.595  12.036
95092SOL    HW187173  11.850   4.659  12.102
95092SOL    HW287174  11.733   4.574  12.057
95093SOL     OW87175   6.502  12.314   7.053
95093SOL    HW187176   6.477  12.239   7.107
95093SOL    HW287177   6.571  12.280   6.996
95094SOL     OW87178   3.064   1.675   7.689
95094SOL    HW187179   2.992   1.738   7.700
95094SOL    HW287180   3.143   1.727   7.701
95095SOL     OW87181  13.491   4.439   5.059
95095SOL    HW187182  13.415   4.380   5.061
95095SOL    HW287183  13.561   4.386   5.022
95096SOL     OW87184   8.966   5.081  11.660
95096SOL    HW187185   8.901   5.127  11.608
95096SOL    HW287186   9.050   5.121  11.637
95097SOL     OW87187   3.758   5.437  12.532
95097SOL    HW187188   3.779   5.440  12.626
95097SOL    HW287189   3.836   5.398  12.492
95098SOL     OW87190   1.942  11.637   0.608
95098SOL    HW187191   1.918  11.652   0.517
95098SOL    HW287192   1.936  11.722   0.650
95099SOL     OW87193  14.661  14.756   0.032
95099SOL    HW187194  14.628  14.676   0.072
95099SOL    HW287195  14.750  14.765   0.066
95100SOL     OW87196   9.968  13.953   3.902
95100SOL    HW187197   9.938  14.033   3.859
95100SOL    HW287198   9.891  13.895   3.902
95101SOL     OW87199   9.145   5.130   6.768
95101SOL    HW187200   9.166   5.162   6.856
95101SOL    HW287201   9.157   5.035   6.774
95102SOL     OW87202  11.129  14.655   0.968
95102SOL    HW187203  11.061  14.590   0.984
95102SOL    HW287204  11.136  14.659   0.873
95103SOL     OW87205  11.367  12.834   4.768
95103SOL    HW187206  11.348  12.776   4.695
95103SOL    HW287207  11.338  12.785   4.845
95104SOL     OW87208  11.620  12.207   7.348
95104SOL    HW187209  11.568  12.127   7.343
95104SOL    HW287210  11.633  12.221   7.442
95105SOL     OW87211   2.387   5.834   7.088
95105SOL    HW187212   2.328   5.838   7.163
95105SOL    HW287213   2.462   5.889   7.114
95106SOL     OW87214   3.557  11.979   7.918
95106SOL    HW187215   3.547  11.884   7.913
95106SOL    HW287216   3.638  11.992   7.967
95107SOL     OW87217  14.456  14.270  10.207
95107SOL    HW187218  14.503  14.329  10.266
95107SOL    HW287219  14.394  14.327  10.162
95108SOL     OW87220  12.597   4.315   8.455
95108SOL    HW187221  12.518   4.269   8.428
95108SOL    HW287222  12.570   4.367   8.531
95109SOL     OW87223  12.899   1.753   6.591
95109SOL    HW187224  12.952   1.693   6.643
95109SOL    HW287225  12.850   1.804   6.655
95110SOL     OW87226   1.923   2.231  10.837
95110SOL    HW187227   1.868   2.298  10.878
95110SOL    HW287228   2.011   2.248  10.869
95111SOL     OW87229   5.382   3.729  11.501
95111SOL    HW187230   5.456   3.732  11.562
95111SOL    HW287231   5.310   3.769  11.550
95112SOL     OW87232   9.093  10.893   2.400
95112SOL    HW187233   9.086  10.859   2.490
95112SOL    HW287234   9.187  10.895   2.383
95113SOL     OW87235  13.315   9.369   9.751
95113SOL    HW187236  13.253   9.324   9.809
95113SOL    HW287237  13.264   9.440   9.712
95114SOL     OW87238   9.826  14.827  11.902
95114SOL    HW187239   9.747  14.796  11.946
95114SOL    HW287240   9.802  14.832  11.809
95115SOL     OW87241  13.461   4.216   1.782
95115SOL    HW187242  13.490   4.283   1.845
95115SOL    HW287243  13.469   4.134   1.830
95116SOL     OW87244   2.202   6.089   3.154
95116SOL    HW187245   2.209   6.000   3.188
95116SOL    HW287246   2.226   6.081   3.061
95117SOL     OW87247  11.367   9.900  12.333
95117SOL    HW187248  11.372   9.804  12.330
95117SOL    HW287249  11.458   9.929  12.330
95118SOL     OW87250  13.851  13.558  12.174
95118SOL    HW187251  13.859  13.536  12.081
95118SOL    HW287252  13.794  13.634  12.176
95119SOL     OW87253  13.547   8.006   9.696
95119SOL    HW187254  13.471   8.041   9.649
95119SOL    HW287255  13.584   7.941   9.637
95120SOL     OW87256  13.862   1.666  13.660
95120SOL    HW187257  13.839   1.609  13.733
95120SOL    HW287258  13.814   1.632  13.585
95121SOL     OW87259   3.932  13.983   3.482
95121SOL    HW187260   3.991  13.938   3.543
95121SOL    HW287261   3.907  14.063   3.529
95122SOL     OW87262  13.342  14.612   5.339
95122SOL    HW187263  13.436  14.613   5.323
95122SOL    HW287264  13.303  14.624   5.252
95123SOL     OW87265   9.480   6.886  13.852
95123SOL    HW187266   9.533   6.809  13.875
95123SOL    HW287267   9.537   6.961  13.872
95124SOL     OW87268   3.005  10.106   1.837
95124SOL    HW187269   3.010  10.190   1.790
95124SOL    HW287270   2.914  10.077   1.824
95125SOL     OW87271   4.955   9.230   0.513
95125SOL    HW187272   4.903   9.270   0.443
95125SOL    HW287273   4.890   9.191   0.572
95126SOL     OW87274   5.309  12.942   9.387
95126SOL    HW187275   5.390  12.892   9.387
95126SOL    HW287276   5.241  12.877   9.404
95127SOL     OW87277   7.683  11.596   2.932
95127SOL    HW187278   7.679  11.505   2.903
95127SOL    HW287279   7.595  11.615   2.964
95128SOL     OW87280   1.733  11.906   6.429
95128SOL    HW187281   1.730  11.827   6.483
95128SOL    HW287282   1.805  11.957   6.466
95129SOL     OW87283   6.677   0.636   2.260
95129SOL    HW187284   6.588   0.608   2.239
95129SOL    HW287285   6.727   0.554   2.263
95130SOL     OW87286   4.999   7.378   6.656
95130SOL    HW187287   4.995   7.466   6.617
95130SOL    HW287288   5.088   7.349   6.639
95131SOL     OW87289  11.777   5.208  13.770
95131SOL    HW187290  11.824   5.279  13.726
95131SOL    HW287291  11.792   5.131  13.715
95132SOL     OW87292   9.722   5.009  14.713
95132SOL    HW187293   9.728   5.104  14.713
95132SOL    HW287294   9.724   4.985  14.806
95133SOL     OW87295  11.365  13.996   0.492
95133SOL    HW187296  11.423  14.072   0.495
95133SOL    HW287297  11.364  13.962   0.581
95134SOL     OW87298  13.589   4.802  11.917
95134SOL    HW187299  13.569   4.854  11.839
95134SOL    HW287300  13.668   4.753  11.894
95135SOL     OW87301  12.562   2.974  14.761
95135SOL    HW187302  12.486   2.921  14.788
95135SOL    HW287303  12.588   3.020  14.841
95136SOL     OW87304   2.884   4.698  13.074
95136SOL    HW187305   2.952   4.633  13.057
95136SOL    HW287306   2.803   4.654  13.050
95137SOL     OW87307   6.223  10.629   2.567
95137SOL    HW187308   6.297  10.617   2.507
95137SOL    HW287309   6.150  10.654   2.512
95138SOL     OW87310   0.055   6.531   4.360
95138SOL    HW187311   0.096   6.521   4.275
95138SOL    HW287312   0.100   6.606   4.400
95139SOL     OW87313   0.562   0.006   8.495
95139SOL    HW187314   0.633  14.842   8.535
95139SOL    HW287315   0.535  14.843   8.419
95140SOL     OW87316  12.378   8.893   5.201
95140SOL    HW187317  12.343   8.861   5.284
95140SOL    HW287318  12.460   8.846   5.190
95141SOL     OW87319  10.578  12.456  13.752
95141SOL    HW187320  10.646  12.410  13.703
95141SOL    HW287321  10.574  12.410  13.836
95142SOL     OW87322   2.441  12.227   3.648
95142SOL    HW187323   2.438  12.322   3.656
95142SOL    HW287324   2.453  12.196   3.738
95143SOL     OW87325   9.112  10.569   2.046
95143SOL    HW187326   9.167  10.618   1.985
95143SOL    HW287327   9.045  10.528   1.992
95144SOL     OW87328   9.790   0.423  10.464
95144SOL    HW187329   9.821   0.476  10.538
95144SOL    HW287330   9.826   0.466  10.387
95145SOL     OW87331   1.182   4.689   6.740
95145SOL    HW187332   1.138   4.773   6.729
95145SOL    HW287333   1.150   4.635   6.668
95146SOL     OW87334   4.412   9.457   1.866
95146SOL    HW187335   4.418   9.550   1.889
95146SOL    HW287336   4.449   9.452   1.777
95147SOL     OW87337  14.704  10.306  10.375
95147SOL    HW187338  14.750  10.362  10.437
95147SOL    HW287339  14.761  10.305  10.298
95148SOL     OW87340  14.176  14.790   8.784
95148SOL    HW187341  14.163  14.712   8.837
95148SOL    HW287342  14.148  14.765   8.696
95149SOL     OW87343  11.945   5.566  10.332
95149SOL    HW187344  12.008   5.568  10.260
95149SOL    HW287345  11.960   5.482  10.374
95150SOL     OW87346   7.060  14.331  10.283
95150SOL    HW187347   7.053  14.263  10.216
95150SOL    HW287348   7.096  14.287  10.359
95151SOL     OW87349   6.071  12.148   2.242
95151SOL    HW187350   6.068  12.219   2.306
95151SOL    HW287351   6.139  12.174   2.180
95152SOL     OW87352   3.431  14.798   1.293
95152SOL    HW187353   3.455  14.722   1.346
95152SOL    HW287354   3.428  14.766   1.203
95153SOL     OW87355   8.373   3.727   7.056
95153SOL    HW187356   8.345   3.815   7.032
95153SOL    HW287357   8.322   3.668   7.000
95154SOL     OW87358  11.472   7.719  14.455
95154SOL    HW187359  11.396   7.665  14.478
95154SOL    HW287360  11.439   7.809  14.460
95155SOL     OW87361   0.395   3.050   7.482
95155SOL    HW187362   0.425   2.987   7.417
95155SOL    HW287363   0.318   3.009   7.522
95156SOL     OW87364   4.292  11.304   2.601
95156SOL    HW187365   4.213  11.253   2.584
95156SOL    HW287366   4.303  11.300   2.696
95157SOL     OW87367  10.139  10.385   3.729
95157SOL    HW187368  10.055  10.403   3.771
95157SOL    HW287369  10.203  10.391   3.800
95158SOL     OW87370   9.446  12.857   6.811
95158SOL    HW187371   9.378  12.812   6.862
95158SOL    HW287372   9.518  12.794   6.806
95159SOL     OW87373   7.734  11.763  10.330
95159SOL    HW187374   7.820  11.723  10.317
95159SOL    HW287375   7.686  11.743  10.249
95160SOL     OW87376   0.311   3.885  11.861
95160SOL    HW187377   0.228   3.854  11.825
95160SOL    HW287378   0.359   3.920  11.786
95161SOL     OW87379   9.624   4.552  14.629
95161SOL    HW187380   9.638   4.607  14.552
95161SOL    HW287381   9.597   4.467  14.593
95162SOL     OW87382   1.854  11.588   8.258
95162SOL    HW187383   1.816  11.609   8.344
95162SOL    HW287384   1.948  11.594   8.271
95163SOL     OW87385   0.950   5.423   8.352
95163SOL    HW187386   0.865   5.388   8.379
95163SOL    HW287387   0.999   5.347   8.321
95164SOL     OW87388   4.583   8.426   8.401
95164SOL    HW187389   4.639   8.369   8.453
95164SOL    HW287390   4.644   8.486   8.358
95165SOL     OW87391   9.801   8.900  11.176
95165SOL    HW187392   9.729   8.859  11.128
95165SOL    HW287393   9.869   8.912  11.109
95166SOL     OW87394   9.757   1.816  14.039
95166SOL    HW187395   9.773   1.898  13.993
95166SOL    HW287396   9.740   1.842  14.129
95167SOL     OW87397  12.120  10.034  10.603
95167SOL    HW187398  12.088  10.091  10.533
95167SOL    HW287399  12.200   9.995  10.567
95168SOL     OW87400   0.022  13.246   7.742
95168SOL    HW187401   0.017  13.256   7.647
95168SOL    HW287402  14.881  13.331   7.776
95169SOL     OW87403   9.089   2.999   1.868
95169SOL    HW187404   8.997   3.023   1.879
95169SOL    HW287405   9.130   3.077   1.832
95170SOL     OW87406   1.622   4.742  10.407
95170SOL    HW187407   1.588   4.658  10.438
95170SOL    HW287408   1.547   4.784  10.363
95171SOL     OW87409   9.027  10.771  14.429
95171SOL    HW187410   9.037  10.860  14.395
95171SOL    HW287411   9.110  10.729  14.410
95172SOL     OW87412  14.358  12.912  12.448
95172SOL    HW187413  14.391  12.969  12.379
95172SOL    HW287414  14.332  12.832  12.403
95173SOL     OW87415   3.531   2.576   0.378
95173SOL    HW187416   3.585   2.518   0.325
95173SOL    HW287417   3.464   2.519   0.416
95174SOL     OW87418   9.384  14.272   4.448
95174SOL    HW187419   9.433  14.328   4.509
95174SOL    HW287420   9.295  14.273   4.481
95175SOL     OW87421  10.350   2.738   3.241
95175SOL    HW187422  10.293   2.685   3.185
95175SOL    HW287423  10.429   2.685   3.251
95176SOL     OW87424  10.795  10.414   0.209
95176SOL    HW187425  10.703  10.405   0.187
95176SOL    HW287426  10.809  10.509   0.218
95177SOL     OW87427   1.988  12.325   0.544
95177SOL    HW187428   2.043  12.258   0.583
95177SOL    HW287429   1.956  12.286   0.463
95178SOL     OW87430  13.226   9.779  11.409
95178SOL    HW187431  13.153   9.839  11.428
95178SOL    HW287432  13.185   9.704  11.366
95179SOL     OW87433   5.711  10.708  14.599
95179SOL    HW187434   5.791  10.682  14.645
95179SOL    HW287435   5.723  10.800  14.578
95180SOL     OW87436   9.695  12.134  12.971
95180SOL    HW187437   9.746  12.077  12.913
95180SOL    HW287438   9.702  12.221  12.932
95181SOL     OW87439  10.877  10.771   5.152
95181SOL    HW187440  10.924  10.854   5.163
95181SOL    HW287441  10.882  10.729   5.238
95182SOL     OW87442  11.651  12.775   8.917
95182SOL    HW187443  11.725  12.723   8.886
95182SOL    HW287444  11.666  12.785   9.011
95183SOL     OW87445   8.024  10.747   5.792
95183SOL    HW187446   7.946  10.754   5.737
95183SOL    HW287447   8.066  10.832   5.787
95184SOL     OW87448   4.314   2.402   3.162
95184SOL    HW187449   4.262   2.447   3.228
95184SOL    HW287450   4.295   2.309   3.177
95185SOL     OW87451   0.577   2.013   4.821
95185SOL    HW187452   0.544   1.954   4.888
95185SOL    HW287453   0.661   2.044   4.856
95186SOL     OW87454  12.164   7.524  11.989
95186SOL    HW187455  12.234   7.478  11.943
95186SOL    HW287456  12.084   7.499  11.941
95187SOL     OW87457  11.178   8.357   3.592
95187SOL    HW187458  11.092   8.342   3.630
95187SOL    HW287459  11.204   8.444   3.624
95188SOL     OW87460  11.189   6.785   5.935
95188SOL    HW187461  11.147   6.708   5.898
95188SOL    HW287462  11.166   6.856   5.876
95189SOL     OW87463   3.741  12.346   4.596
95189SOL    HW187464   3.817  12.292   4.618
95189SOL    HW287465   3.777  12.419   4.547
95190SOL     OW87466   7.151  11.133  13.338
95190SOL    HW187467   7.144  11.089  13.423
95190SOL    HW287468   7.072  11.107  13.291
95191SOL     OW87469   3.231   8.501  11.863
95191SOL    HW187470   3.286   8.432  11.826
95191SOL    HW287471   3.163   8.515  11.797
95192SOL     OW87472  10.200  12.787   7.522
95192SOL    HW187473  10.259  12.713   7.506
95192SOL    HW287474  10.187  12.827   7.436
95193SOL     OW87475   5.000   7.733   0.766
95193SOL    HW187476   4.931   7.782   0.722
95193SOL    HW287477   5.001   7.767   0.855
95194SOL     OW87478  11.481   1.388   7.075
95194SOL    HW187479  11.459   1.454   7.140
95194SOL    HW287480  11.553   1.338   7.115
95195SOL     OW87481   3.514  12.978   3.547
95195SOL    HW187482   3.518  12.899   3.601
95195SOL    HW287483   3.568  12.957   3.471
95196SOL     OW87484   8.333   4.964   6.505
95196SOL    HW187485   8.299   5.044   6.465
95196SOL    HW287486   8.257   4.925   6.549
95197SOL     OW87487   4.774   3.590   7.414
95197SOL    HW187488   4.802   3.672   7.374
95197SOL    HW287489   4.688   3.572   7.376
95198SOL     OW87490   9.330   2.060   6.697
95198SOL    HW187491   9.409   2.008   6.681
95198SOL    HW287492   9.317   2.108   6.615
95199SOL     OW87493  11.446   5.220  12.155
95199SOL    HW187494  11.368   5.269  12.181
95199SOL    HW287495  11.413   5.147  12.103
95200SOL     OW87496   6.010  11.749   4.116
95200SOL    HW187497   5.985  11.814   4.050
95200SOL    HW287498   6.030  11.801   4.194
95201SOL     OW87499   0.300   6.950   7.941
95201SOL    HW187500   0.219   6.925   7.984
95201SOL    HW287501   0.276   6.964   7.850
95202SOL     OW87502  13.656  14.130   7.980
95202SOL    HW187503  13.659  14.073   7.904
95202SOL    HW287504  13.620  14.076   8.050
95203SOL     OW87505   4.641  12.790  12.395
95203SOL    HW187506   4.562  12.806  12.343
95203SOL    HW287507   4.660  12.697  12.382
95204SOL     OW87508  13.881   3.684   8.448
95204SOL    HW187509  13.961   3.658   8.493
95204SOL    HW287510  13.811   3.643   8.499
95205SOL     OW87511   9.023  10.547  12.329
95205SOL    HW187512   8.939  10.589  12.314
95205SOL    HW287513   9.019  10.517  12.420
95206SOL     OW87514   1.697   2.877   8.217
95206SOL    HW187515   1.769   2.816   8.199
95206SOL    HW287516   1.728   2.961   8.183
95207SOL     OW87517   1.774  13.273   0.824
95207SOL    HW187518   1.775  13.279   0.920
95207SOL    HW287519   1.690  13.233   0.804
95208SOL     OW87520   5.893   7.374   6.874
95208SOL    HW187521   5.815   7.428   6.858
95208SOL    HW287522   5.897   7.366   6.969
95209SOL     OW87523   5.630  14.592  12.254
95209SOL    HW187524   5.654  14.507  12.218
95209SOL    HW287525   5.709  14.646  12.242
95210SOL     OW87526   9.837   5.251   6.268
95210SOL    HW187527   9.926   5.265   6.301
95210SOL    HW287528   9.802   5.339   6.254
95211SOL     OW87529   2.177   3.366   4.330
95211SOL    HW187530   2.100   3.410   4.293
95211SOL    HW287531   2.245   3.376   4.263
95212SOL     OW87532  14.763   2.958   7.829
95212SOL    HW187533  14.758   3.051   7.805
95212SOL    HW287534  14.789   2.959   7.922
95213SOL     OW87535   2.236  11.039   0.111
95213SOL    HW187536   2.302  11.098   0.149
95213SOL    HW287537   2.223  11.073   0.022
95214SOL     OW87538  13.255   8.133  11.958
95214SOL    HW187539  13.249   8.227  11.945
95214SOL    HW287540  13.172   8.099  11.924
95215SOL     OW87541   6.210   4.747   0.102
95215SOL    HW187542   6.119   4.773   0.115
95215SOL    HW287543   6.230   4.775   0.012
95216SOL     OW87544   2.888   9.793  11.071
95216SOL    HW187545   2.878   9.876  11.118
95216SOL    HW287546   2.981   9.773  11.078
95217SOL     OW87547   5.860   6.870   4.055
95217SOL    HW187548   5.813   6.816   4.119
95217SOL    HW287549   5.833   6.960   4.074
95218SOL     OW87550   4.550  14.143  12.670
95218SOL    HW187551   4.455  14.160  12.676
95218SOL    HW287552   4.566  14.128  12.577
95219SOL     OW87553   7.037   0.234  14.432
95219SOL    HW187554   7.132   0.220  14.432
95219SOL    HW287555   7.015   0.248  14.524
95220SOL     OW87556  10.970  10.272  11.452
95220SOL    HW187557  11.004  10.197  11.502
95220SOL    HW287558  11.013  10.264  11.367
95221SOL     OW87559  13.416  12.111  13.590
95221SOL    HW187560  13.485  12.177  13.591
95221SOL    HW287561  13.384  12.107  13.680
95222SOL     OW87562  14.216  10.143   9.292
95222SOL    HW187563  14.262  10.123   9.210
95222SOL    HW287564  14.281  10.190   9.344
95223SOL     OW87565   2.658  13.656   9.485
95223SOL    HW187566   2.579  13.628   9.439
95223SOL    HW287567   2.697  13.574   9.518
95224SOL     OW87568  12.984   9.862   8.388
95224SOL    HW187569  13.013   9.953   8.382
95224SOL    HW287570  12.966   9.848   8.481
95225SOL     OW87571  12.360   7.294  12.794
95225SOL    HW187572  12.287   7.355  12.789
95225SOL    HW287573  12.370   7.277  12.888
95226SOL     OW87574   1.726   2.998   2.109
95226SOL    HW187575   1.802   3.015   2.165
95226SOL    HW287576   1.681   2.925   2.151
95227SOL     OW87577   1.176  14.426   8.170
95227SOL    HW187578   1.128  14.343   8.176
95227SOL    HW287579   1.110  14.490   8.144
95228SOL     OW87580   1.420   6.504   7.476
95228SOL    HW187581   1.342   6.473   7.520
95228SOL    HW287582   1.454   6.573   7.532
95229SOL     OW87583  11.309  12.256  14.673
95229SOL    HW187584  11.380  12.193  14.662
95229SOL    HW287585  11.268  12.233  14.756
95230SOL     OW87586  11.633   8.359   2.424
95230SOL    HW187587  11.638   8.265   2.436
95230SOL    HW287588  11.642   8.395   2.512
95231SOL     OW87589  12.710   7.238   0.191
95231SOL    HW187590  12.788   7.275   0.149
95231SOL    HW287591  12.744   7.171   0.250
95232SOL     OW87592  10.141   7.406   3.338
95232SOL    HW187593  10.126   7.312   3.331
95232SOL    HW287594  10.130   7.426   3.431
95233SOL     OW87595   8.012  11.671  14.414
95233SOL    HW187596   7.962  11.745  14.380
95233SOL    HW287597   8.043  11.625  14.335
95234SOL     OW87598   5.460  13.019   5.358
95234SOL    HW187599   5.369  13.038   5.384
95234SOL    HW287600   5.508  13.099   5.377
95235SOL     OW87601   0.533  13.593   2.504
95235SOL    HW187602   0.626  13.579   2.516
95235SOL    HW287603   0.501  13.616   2.591
95236SOL     OW87604   2.233   2.123  10.249
95236SOL    HW187605   2.139   2.116  10.230
95236SOL    HW287606   2.265   2.189  10.188
95237SOL     OW87607  10.190   5.653   1.095
95237SOL    HW187608  10.175   5.697   1.012
95237SOL    HW287609  10.284   5.658   1.109
95238SOL     OW87610   4.050   9.979  13.277
95238SOL    HW187611   4.106   9.953  13.204
95238SOL    HW287612   3.961   9.967  13.244
95239SOL     OW87613  12.899   8.983   0.635
95239SOL    HW187614  12.816   8.964   0.678
95239SOL    HW287615  12.875   9.026   0.553
95240SOL     OW87616   4.041   2.376   9.749
95240SOL    HW187617   4.124   2.365   9.703
95240SOL    HW287618   3.992   2.439   9.696
95241SOL     OW87619   5.746   1.350  12.987
95241SOL    HW187620   5.818   1.287  12.982
95241SOL    HW287621   5.774   1.424  12.934
95242SOL     OW87622  10.842   3.221   2.910
95242SOL    HW187623  10.752   3.188   2.897
95242SOL    HW287624  10.897   3.156   2.867
95243SOL     OW87625   6.396   9.137  10.111
95243SOL    HW187626   6.456   9.193  10.061
95243SOL    HW287627   6.448   9.062  10.137
95244SOL     OW87628  10.509   9.919  13.429
95244SOL    HW187629  10.523   9.834  13.472
95244SOL    HW287630  10.585   9.972  13.455
95245SOL     OW87631   3.331   6.595   5.331
95245SOL    HW187632   3.424   6.612   5.316
95245SOL    HW287633   3.328   6.544   5.412
95246SOL     OW87634   8.705  11.900  11.100
95246SOL    HW187635   8.733  11.847  11.026
95246SOL    HW287636   8.613  11.876  11.114
95247SOL     OW87637   5.487   3.583   0.125
95247SOL    HW187638   5.459   3.579   0.034
95247SOL    HW287639   5.580   3.559   0.123
95248SOL     OW87640   1.246   2.681   1.270
95248SOL    HW187641   1.221   2.596   1.307
95248SOL    HW287642   1.295   2.658   1.191
95249SOL     OW87643   5.038   8.382   4.038
95249SOL    HW187644   5.108   8.432   3.996
95249SOL    HW287645   5.051   8.398   4.132
95250SOL     OW87646   8.322   5.411   8.813
95250SOL    HW187647   8.397   5.380   8.863
95250SOL    HW287648   8.332   5.371   8.727
95251SOL     OW87649   2.939  13.879   5.788
95251SOL    HW187650   2.860  13.827   5.771
95251SOL    HW287651   3.001  13.852   5.721
95252SOL     OW87652  14.773   2.782   8.916
95252SOL    HW187653  14.852   2.749   8.874
95252SOL    HW287654  14.703   2.727   8.881
95253SOL     OW87655   8.569  13.935   6.597
95253SOL    HW187656   8.539  13.858   6.548
95253SOL    HW287657   8.657  13.952   6.562
95254SOL     OW87658  13.554   6.615   7.992
95254SOL    HW187659  13.510   6.660   7.920
95254SOL    HW287660  13.542   6.522   7.973
95255SOL     OW87661   0.363   3.420   7.718
95255SOL    HW187662   0.332   3.489   7.777
95255SOL    HW287663   0.288   3.363   7.706
95256SOL     OW87664   5.394   4.770   8.697
95256SOL    HW187665   5.467   4.777   8.758
95256SOL    HW287666   5.347   4.852   8.706
95257SOL     OW87667   3.983   7.014   8.042
95257SOL    HW187668   3.960   7.090   8.095
95257SOL    HW287669   3.962   7.041   7.952
95258SOL     OW87670   2.923   1.143  13.752
95258SOL    HW187671   2.940   1.114  13.662
95258SOL    HW287672   2.948   1.068  13.806
95259SOL     OW87673   9.247   0.736   6.845
95259SOL    HW187674   9.156   0.742   6.817
95259SOL    HW287675   9.244   0.748   6.940
95260SOL     OW87676   6.796   6.364  11.464
95260SOL    HW187677   6.867   6.300  11.467
95260SOL    HW287678   6.739   6.341  11.538
95261SOL     OW87679   7.349   3.069  10.699
95261SOL    HW187680   7.388   2.986  10.671
95261SOL    HW287681   7.255   3.052  10.702
95262SOL     OW87682   5.620   4.741   6.944
95262SOL    HW187683   5.638   4.662   6.995
95262SOL    HW287684   5.527   4.758   6.958
95263SOL     OW87685   1.955   6.338   9.509
95263SOL    HW187686   1.916   6.418   9.473
95263SOL    HW287687   1.889   6.305   9.570
95264SOL     OW87688   3.975   1.884  13.571
95264SOL    HW187689   3.977   1.960  13.513
95264SOL    HW287690   3.960   1.922  13.658
95265SOL     OW87691   1.839   6.576   5.649
95265SOL    HW187692   1.922   6.536   5.624
95265SOL    HW287693   1.774   6.509   5.632
95266SOL     OW87694  11.708   9.266  12.058
95266SOL    HW187695  11.757   9.219  12.126
95266SOL    HW287696  11.704   9.205  11.985
95267SOL     OW87697   9.159   7.293   7.399
95267SOL    HW187698   9.117   7.285   7.485
95267SOL    HW287699   9.193   7.382   7.398
95268SOL     OW87700  11.279  14.185   1.219
95268SOL    HW187701  11.284  14.271   1.178
95268SOL    HW287702  11.281  14.123   1.146
95269SOL     OW87703   2.947  13.436   1.961
95269SOL    HW187704   3.026  13.419   2.012
95269SOL    HW287705   2.921  13.524   1.986
95270SOL     OW87706   0.126  10.593   4.376
95270SOL    HW187707   0.090  10.508   4.401
95270SOL    HW287708   0.054  10.654   4.388
95271SOL     OW87709   8.352  13.022   3.038
95271SOL    HW187710   8.258  13.042   3.036
95271SOL    HW287711   8.392  13.089   2.983
95272SOL     OW87712  10.271   5.587   4.909
95272SOL    HW187713  10.185   5.563   4.942
95272SOL    HW287714  10.254   5.661   4.851
95273SOL     OW87715  14.364   3.362  10.559
95273SOL    HW187716  14.300   3.292  10.558
95273SOL    HW287717  14.316   3.439  10.529
95274SOL     OW87718  12.965   4.749   2.376
95274SOL    HW187719  12.989   4.657   2.381
95274SOL    HW287720  12.998   4.778   2.291
95275SOL     OW87721   8.036  13.776  13.003
95275SOL    HW187722   7.988  13.717  12.945
95275SOL    HW287723   8.116  13.728  13.024
95276SOL     OW87724   5.108   2.138  12.817
95276SOL    HW187725   5.016   2.159  12.836
95276SOL    HW287726   5.122   2.174  12.729
95277SOL     OW87727   7.127   5.929   2.160
95277SOL    HW187728   7.065   5.983   2.209
95277SOL    HW287729   7.090   5.924   2.072
95278SOL     OW87730  10.564   0.615   0.842
95278SOL    HW187731  10.532   0.525   0.847
95278SOL    HW287732  10.642   0.610   0.787
95279SOL     OW87733  11.485   8.657  12.089
95279SOL    HW187734  11.562   8.604  12.070
95279SOL    HW287735  11.519   8.740  12.121
95280SOL     OW87736   8.193  11.054   1.525
95280SOL    HW187737   8.134  11.105   1.579
95280SOL    HW287738   8.244  11.002   1.587
95281SOL     OW87739   9.737   9.216   1.323
95281SOL    HW187740   9.750   9.123   1.341
95281SOL    HW287741   9.761   9.260   1.404
95282SOL     OW87742   7.019  11.197   3.263
95282SOL    HW187743   6.999  11.104   3.252
95282SOL    HW287744   7.112  11.204   3.246
95283SOL     OW87745   6.865   4.387   5.060
95283SOL    HW187746   6.795   4.326   5.082
95283SOL    HW287747   6.945   4.334   5.064
95284SOL     OW87748  12.876   3.183   6.313
95284SOL    HW187749  12.921   3.266   6.325
95284SOL    HW287750  12.915   3.145   6.234
95285SOL     OW87751   9.812  11.214   2.543
95285SOL    HW187752   9.857  11.184   2.463
95285SOL    HW287753   9.723  11.234   2.515
95286SOL     OW87754  13.081   0.330   2.904
95286SOL    HW187755  13.064   0.424   2.911
95286SOL    HW287756  13.134   0.321   2.825
95287SOL     OW87757  11.864   0.209  13.903
95287SOL    HW187758  11.769   0.218  13.907
95287SOL    HW287759  11.895   0.294  13.871
95288SOL     OW87760  12.302  10.202   9.730
95288SOL    HW187761  12.218  10.245   9.717
95288SOL    HW287762  12.367  10.263   9.693
95289SOL     OW87763   6.059  11.817   0.142
95289SOL    HW187764   5.965  11.798   0.136
95289SOL    HW287765   6.076  11.825   0.236
95290SOL     OW87766   6.728   5.502   3.330
95290SOL    HW187767   6.783   5.483   3.254
95290SOL    HW287768   6.661   5.562   3.296
95291SOL     OW87769  12.090   2.997  11.072
95291SOL    HW187770  12.062   3.075  11.120
95291SOL    HW287771  12.085   3.022  10.980
95292SOL     OW87772  14.803   6.669  11.700
95292SOL    HW187773  14.856   6.593  11.725
95292SOL    HW287774  14.752   6.640  11.625
95293SOL     OW87775   4.161   0.228   7.802
95293SOL    HW187776   4.153   0.228   7.897
95293SOL    HW287777   4.146   0.319   7.777
95294SOL     OW87778  12.952   5.033   6.218
95294SOL    HW187779  12.872   4.981   6.208
95294SOL    HW287780  12.954   5.056   6.311
95295SOL     OW87781   4.148  14.300  12.856
95295SOL    HW187782   4.122  14.346  12.936
95295SOL    HW287783   4.215  14.356  12.816
95296SOL     OW87784   6.183   8.199  13.534
95296SOL    HW187785   6.116   8.141  13.499
95296SOL    HW287786   6.236   8.224  13.458
95297SOL     OW87787   3.693   0.332  13.471
95297SOL    HW187788   3.776   0.327  13.424
95297SOL    HW287789   3.699   0.265  13.539
95298SOL     OW87790   4.845   4.541  11.698
95298SOL    HW187791   4.906   4.560  11.626
95298SOL    HW287792   4.759   4.559  11.662
95299SOL     OW87793   5.271  12.735   8.491
95299SOL    HW187794   5.204  12.771   8.550
95299SOL    HW287795   5.336  12.695   8.550
95300SOL     OW87796   5.039   4.883   7.090
95300SOL    HW187797   5.127   4.911   7.113
95300SOL    HW287798   5.037   4.887   6.994
95301SOL     OW87799   4.448  11.276   1.643
95301SOL    HW187800   4.482  11.360   1.673
95301SOL    HW287801   4.461  11.217   1.717
95302SOL     OW87802   2.727   0.393   6.659
95302SOL    HW187803   2.663   0.340   6.706
95302SOL    HW287804   2.782   0.330   6.613
95303SOL     OW87805  12.638  13.126  13.446
95303SOL    HW187806  12.588  13.171  13.379
95303SOL    HW287807  12.683  13.056  13.399
95304SOL     OW87808   9.524   8.190   2.059
95304SOL    HW187809   9.583   8.123   2.026
95304SOL    HW287810   9.437   8.150   2.052
95305SOL     OW87811  14.361  14.664  11.869
95305SOL    HW187812  14.326  14.616  11.945
95305SOL    HW287813  14.283  14.685  11.817
95306SOL     OW87814   8.821  10.364  13.558
95306SOL    HW187815   8.865  10.352  13.474
95306SOL    HW287816   8.877  10.426  13.606
95307SOL     OW87817   5.618   0.424   7.468
95307SOL    HW187818   5.526   0.425   7.493
95307SOL    HW287819   5.656   0.351   7.516
95308SOL     OW87820  14.873   2.277  14.601
95308SOL    HW187821  14.830   2.193  14.587
95308SOL    HW287822  14.806   2.342  14.580
95309SOL     OW87823  12.858  14.283   8.681
95309SOL    HW187824  12.814  14.368   8.672
95309SOL    HW287825  12.788  14.219   8.682
95310SOL     OW87826  11.606   8.098  14.149
95310SOL    HW187827  11.603   8.034  14.078
95310SOL    HW287828  11.518   8.095  14.187
95311SOL     OW87829  11.723   9.740   9.318
95311SOL    HW187830  11.784   9.736   9.391
95311SOL    HW287831  11.660   9.808   9.343
95312SOL     OW87832   0.608  11.427  10.377
95312SOL    HW187833   0.668  11.355  10.358
95312SOL    HW287834   0.539  11.388  10.431
95313SOL     OW87835   2.923   4.013   5.089
95313SOL    HW187836   2.909   4.008   4.995
95313SOL    HW287837   2.878   3.937   5.125
95314SOL     OW87838  12.305   3.122  13.593
95314SOL    HW187839  12.341   3.069  13.664
95314SOL    HW287840  12.357   3.099  13.516
95315SOL     OW87841   4.266   7.319  14.727
95315SOL    HW187842   4.273   7.393  14.668
95315SOL    HW287843   4.275   7.242  14.671
95316SOL     OW87844  14.425  14.213   8.813
95316SOL    HW187845  14.391  14.187   8.899
95316SOL    HW287846  14.384  14.297   8.795
95317SOL     OW87847  13.117   4.222   6.171
95317SOL    HW187848  13.092   4.258   6.085
95317SOL    HW287849  13.198   4.173   6.153
95318SOL     OW87850   9.706   0.018   4.584
95318SOL    HW187851   9.798   0.040   4.590
95318SOL    HW287852   9.684  14.867   4.669
95319SOL     OW87853   9.093   5.910   9.760
95319SOL    HW187854   9.038   5.889   9.685
95319SOL    HW287855   9.106   5.826   9.805
95320SOL     OW87856  11.625   3.712   7.389
95320SOL    HW187857  11.591   3.714   7.478
95320SOL    HW287858  11.614   3.621   7.361
95321SOL     OW87859   7.377   1.950   3.846
95321SOL    HW187860   7.375   1.912   3.934
95321SOL    HW287861   7.307   2.015   3.847
95322SOL     OW87862  14.433   7.696   1.117
95322SOL    HW187863  14.411   7.702   1.210
95322SOL    HW287864  14.368   7.637   1.080
95323SOL     OW87865  13.858   0.708   0.906
95323SOL    HW187866  13.927   0.718   0.972
95323SOL    HW287867  13.789   0.768   0.934
95324SOL     OW87868  10.290   3.757  11.481
95324SOL    HW187869  10.298   3.751  11.385
95324SOL    HW287870  10.196   3.769  11.496
95325SOL     OW87871   6.284   6.688   4.050
95325SOL    HW187872   6.232   6.747   4.105
95325SOL    HW287873   6.296   6.736   3.968
95326SOL     OW87874  12.386   1.094   2.491
95326SOL    HW187875  12.335   1.152   2.548
95326SOL    HW287876  12.327   1.021   2.472
95327SOL     OW87877   6.192  12.489   3.692
95327SOL    HW187878   6.243  12.491   3.773
95327SOL    HW287879   6.128  12.419   3.706
95328SOL     OW87880  11.044  10.500   6.689
95328SOL    HW187881  11.110  10.464   6.630
95328SOL    HW287882  11.042  10.594   6.669
95329SOL     OW87883  11.351   3.348   0.540
95329SOL    HW187884  11.281   3.343   0.605
95329SOL    HW287885  11.307   3.379   0.460
95330SOL     OW87886   6.937   0.155   9.635
95330SOL    HW187887   6.893   0.072   9.653
95330SOL    HW287888   6.876   0.222   9.665
95331SOL     OW87889   6.123   1.766   0.416
95331SOL    HW187890   6.162   1.824   0.481
95331SOL    HW287891   6.198   1.730   0.369
95332SOL     OW87892   5.576   2.857   0.579
95332SOL    HW187893   5.530   2.822   0.502
95332SOL    HW287894   5.560   2.951   0.576
95333SOL     OW87895   3.936  10.106   8.121
95333SOL    HW187896   3.857  10.057   8.101
95333SOL    HW287897   3.912  10.198   8.104
95334SOL     OW87898   1.644   3.083   7.558
95334SOL    HW187899   1.727   3.125   7.537
95334SOL    HW287900   1.593   3.090   7.477
95335SOL     OW87901   8.239  10.574   5.719
95335SOL    HW187902   8.177  10.647   5.718
95335SOL    HW287903   8.192  10.503   5.763
95336SOL     OW87904  13.261   4.249  10.459
95336SOL    HW187905  13.345   4.214  10.488
95336SOL    HW287906  13.199   4.178  10.474
95337SOL     OW87907   9.238  13.113   4.257
95337SOL    HW187908   9.153  13.153   4.238
95337SOL    HW287909   9.244  13.115   4.352
95338SOL     OW87910  13.666  12.543  14.123
95338SOL    HW187911  13.666  12.633  14.091
95338SOL    HW287912  13.575  12.525  14.146
95339SOL     OW87913  12.421  10.410   9.595
95339SOL    HW187914  12.341  10.461   9.604
95339SOL    HW287915  12.432  10.398   9.501
95340SOL     OW87916   7.855   3.900   7.957
95340SOL    HW187917   7.889   3.986   7.933
95340SOL    HW287918   7.766   3.899   7.921
95341SOL     OW87919   4.570   4.596   4.699
95341SOL    HW187920   4.606   4.638   4.777
95341SOL    HW287921   4.646   4.579   4.644
95342SOL     OW87922  10.101  13.851  13.956
95342SOL    HW187923  10.027  13.912  13.963
95342SOL    HW287924  10.114  13.818  14.045
95343SOL     OW87925  13.821   4.948  13.388
95343SOL    HW187926  13.889   5.005  13.424
95343SOL    HW287927  13.865   4.898  13.320
95344SOL     OW87928  14.089   6.580  10.802
95344SOL    HW187929  14.077   6.675  10.795
95344SOL    HW287930  14.138   6.568  10.883
95345SOL     OW87931  11.205  14.121  12.780
95345SOL    HW187932  11.207  14.139  12.686
95345SOL    HW287933  11.274  14.056  12.793
95346SOL     OW87934   2.547   3.892   1.758
95346SOL    HW187935   2.620   3.891   1.819
95346SOL    HW287936   2.470   3.872   1.811
95347SOL     OW87937  12.638  14.825   5.118
95347SOL    HW187938  12.604  14.846   5.205
95347SOL    HW287939  12.569  14.772   5.078
95348SOL     OW87940  10.810   9.046  13.733
95348SOL    HW187941  10.877   8.996  13.780
95348SOL    HW287942  10.816   9.134  13.771
95349SOL     OW87943  13.823  14.670   9.860
95349SOL    HW187944  13.810  14.682   9.766
95349SOL    HW287945  13.781  14.745   9.900
95350SOL     OW87946   2.708  12.749   2.242
95350SOL    HW187947   2.752  12.700   2.173
95350SOL    HW287948   2.621  12.768   2.207
95351SOL     OW87949  11.060  11.316   0.488
95351SOL    HW187950  11.011  11.339   0.409
95351SOL    HW287951  11.113  11.393   0.508
95352SOL     OW87952   0.706   8.388  12.531
95352SOL    HW187953   0.706   8.389  12.627
95352SOL    HW287954   0.682   8.298  12.508
95353SOL     OW87955   2.210   2.313  12.564
95353SOL    HW187956   2.275   2.297  12.632
95353SOL    HW287957   2.150   2.377  12.603
95354SOL     OW87958   2.316  13.750  14.859
95354SOL    HW187959   2.264  13.831  14.862
95354SOL    HW287960   2.261  13.685   0.015
95355SOL     OW87961   2.104   7.687   5.332
95355SOL    HW187962   2.113   7.670   5.426
95355SOL    HW287963   2.190   7.665   5.296
95356SOL     OW87964  13.544  14.323   7.809
95356SOL    HW187965  13.606  14.266   7.854
95356SOL    HW287966  13.473  14.337   7.871
95357SOL     OW87967   3.415   7.157   8.871
95357SOL    HW187968   3.435   7.168   8.778
95357SOL    HW287969   3.356   7.230   8.892
95358SOL     OW87970  13.311   0.305   0.309
95358SOL    HW187971  13.286   0.246   0.238
95358SOL    HW287972  13.252   0.283   0.381
95359SOL     OW87973   6.482   5.970  10.655
95359SOL    HW187974   6.394   6.006  10.662
95359SOL    HW287975   6.535   6.025  10.713
95360SOL     OW87976   5.815   1.697  10.736
95360SOL    HW187977   5.862   1.739  10.663
95360SOL    HW287978   5.812   1.765  10.803
95361SOL     OW87979  10.841   8.090   9.413
95361SOL    HW187980  10.825   8.045   9.496
95361SOL    HW287981  10.801   8.176   9.424
95362SOL     OW87982   4.324   4.162  12.801
95362SOL    HW187983   4.229   4.154  12.813
95362SOL    HW287984   4.357   4.181  12.889
95363SOL     OW87985   0.590  10.688  13.395
95363SOL    HW187986   0.665  10.726  13.441
95363SOL    HW287987   0.604  10.712  13.304
95364SOL     OW87988  12.564   9.817   7.097
95364SOL    HW187989  12.629   9.848   7.034
95364SOL    HW287990  12.597   9.731   7.124
95365SOL     OW87991  11.852   2.506  14.029
95365SOL    HW187992  11.816   2.418  14.021
95365SOL    HW287993  11.871   2.533  13.940
95366SOL     OW87994   4.620   8.893  10.003
95366SOL    HW187995   4.553   8.915  10.069
95366SOL    HW287996   4.611   8.799   9.991
95367SOL     OW87997  13.964  13.967  13.834
95367SOL    HW187998  14.052  14.005  13.841
95367SOL    HW287999  13.970  13.907  13.760
95368SOL     OW88000   9.371   6.668   5.374
95368SOL    HW188001   9.343   6.754   5.406
95368SOL    HW288002   9.294   6.633   5.329
95369SOL     OW88003   8.543   4.497   9.822
95369SOL    HW188004   8.516   4.406   9.818
95369SOL    HW288005   8.461   4.545   9.835
95370SOL     OW88006   3.244  11.552  10.718
95370SOL    HW188007   3.325  11.536  10.768
95370SOL    HW288008   3.274  11.559  10.628
95371SOL     OW88009   9.437   6.388  14.449
95371SOL    HW188010   9.441   6.312  14.507
95371SOL    HW288011   9.385   6.359  14.375
95372SOL     OW88012   6.932  14.735   3.219
95372SOL    HW188013   6.881  14.741   3.138
95372SOL    HW288014   6.868  14.714   3.287
95373SOL     OW88015   2.192  13.055   8.915
95373SOL    HW188016   2.280  13.087   8.896
95373SOL    HW288017   2.199  13.012   9.001
95374SOL     OW88018   2.687   6.805   0.079
95374SOL    HW188019   2.768   6.835   0.121
95374SOL    HW288020   2.648   6.885   0.043
95375SOL     OW88021  13.001  12.673  13.911
95375SOL    HW188022  13.035  12.641  13.827
95375SOL    HW288023  12.963  12.596  13.953
95376SOL     OW88024   5.218   8.172  13.917
95376SOL    HW188025   5.129   8.137  13.912
95376SOL    HW288026   5.266   8.122  13.851
95377SOL     OW88027  10.148   9.548   7.479
95377SOL    HW188028  10.242   9.532   7.471
95377SOL    HW288029  10.107   9.468   7.448
95378SOL     OW88030  11.753   1.357   8.476
95378SOL    HW188031  11.718   1.269   8.486
95378SOL    HW288032  11.681   1.409   8.440
95379SOL     OW88033   6.493   0.800   4.880
95379SOL    HW188034   6.543   0.739   4.934
95379SOL    HW288035   6.456   0.745   4.811
95380SOL     OW88036   0.102  11.252   7.088
95380SOL    HW188037   0.034  11.222   7.147
95380SOL    HW288038   0.141  11.328   7.132
95381SOL     OW88039  11.387   4.943   2.595
95381SOL    HW188040  11.457   4.975   2.653
95381SOL    HW288041  11.407   4.850   2.584
95382SOL     OW88042   0.660   9.054   5.088
95382SOL    HW188043   0.752   9.048   5.061
95382SOL    HW288044   0.612   9.003   5.024
95383SOL     OW88045   4.333  11.462   1.930
95383SOL    HW188046   4.320  11.528   1.998
95383SOL    HW288047   4.418  11.484   1.891
95384SOL     OW88048  12.011   8.049   8.227
95384SOL    HW188049  12.000   8.044   8.132
95384SOL    HW288050  12.070   7.976   8.247
95385SOL     OW88051  10.407  12.540  12.659
95385SOL    HW188052  10.372  12.458  12.625
95385SOL    HW288053  10.497  12.542  12.626
95386SOL     OW88054   7.090   1.154  14.327
95386SOL    HW188055   7.024   1.201  14.276
95386SOL    HW288056   7.090   1.066  14.290
95387SOL     OW88057   8.967  13.632   3.021
95387SOL    HW188058   9.028  13.638   2.948
95387SOL    HW288059   8.881  13.635   2.980
95388SOL     OW88060   0.719   6.029  11.023
95388SOL    HW188061   0.686   5.946  10.989
95388SOL    HW288062   0.726   6.086  10.947
95389SOL     OW88063   1.265   5.201   3.225
95389SOL    HW188064   1.191   5.260   3.236
95389SOL    HW288065   1.317   5.240   3.155
95390SOL     OW88066   1.367   8.814   7.649
95390SOL    HW188067   1.377   8.765   7.567
95390SOL    HW288068   1.401   8.756   7.716
95391SOL     OW88069   5.515   7.914   9.243
95391SOL    HW188070   5.444   7.915   9.307
95391SOL    HW288071   5.559   7.830   9.256
95392SOL     OW88072   4.958   3.024   6.987
95392SOL    HW188073   5.050   3.045   7.004
95392SOL    HW288074   4.909   3.088   7.038
95393SOL     OW88075   3.649   5.437  10.627
95393SOL    HW188076   3.610   5.516  10.663
95393SOL    HW288077   3.686   5.464  10.543
95394SOL     OW88078  10.385  14.249   7.962
95394SOL    HW188079  10.368  14.319   8.026
95394SOL    HW288080  10.399  14.171   8.015
95395SOL     OW88081  14.033  11.814   5.885
95395SOL    HW188082  14.040  11.720   5.865
95395SOL    HW288083  13.985  11.816   5.968
95396SOL     OW88084  13.492  12.565   1.241
95396SOL    HW188085  13.536  12.648   1.224
95396SOL    HW288086  13.564  12.503   1.257
95397SOL     OW88087   8.059   0.496   3.965
95397SOL    HW188088   8.057   0.430   3.895
95397SOL    HW288089   8.140   0.477   4.013
95398SOL     OW88090  11.357   4.196   8.907
95398SOL    HW188091  11.359   4.210   8.812
95398SOL    HW288092  11.427   4.251   8.941
95399SOL     OW88093   2.326  14.427   3.739
95399SOL    HW188094   2.421  14.431   3.727
95399SOL    HW288095   2.290  14.449   3.654
95400SOL     OW88096   1.197  13.408   4.863
95400SOL    HW188097   1.237  13.478   4.915
95400SOL    HW288098   1.125  13.377   4.917
95401SOL     OW88099  14.822   1.422   4.552
95401SOL    HW188100  14.843   1.513   4.533
95401SOL    HW288101  14.849   1.410   4.643
95402SOL     OW88102   1.093   9.756   3.546
95402SOL    HW188103   1.110   9.844   3.580
95402SOL    HW288104   1.019   9.767   3.487
95403SOL     OW88105   7.587   5.458   5.200
95403SOL    HW188106   7.681   5.461   5.185
95403SOL    HW288107   7.565   5.365   5.201
95404SOL     OW88108  12.700   5.502  11.983
95404SOL    HW188109  12.708   5.591  11.950
95404SOL    HW288110  12.606   5.487  11.991
95405SOL     OW88111   3.406   0.333   2.909
95405SOL    HW188112   3.335   0.290   2.860
95405SOL    HW288113   3.361   0.392   2.969
95406SOL     OW88114   0.529   5.204  14.473
95406SOL    HW188115   0.616   5.179  14.505
95406SOL    HW288116   0.546   5.251  14.392
95407SOL     OW88117  13.455  14.114   4.307
95407SOL    HW188118  13.447  14.209   4.297
95407SOL    HW288119  13.449  14.080   4.218
95408SOL     OW88120   2.315   5.702   7.418
95408SOL    HW188121   2.235   5.752   7.402
95408SOL    HW288122   2.381   5.767   7.439
95409SOL     OW88123   5.217   6.457   5.437
95409SOL    HW188124   5.164   6.451   5.517
95409SOL    HW288125   5.208   6.371   5.397
95410SOL     OW88126  13.317   4.583  11.846
95410SOL    HW188127  13.320   4.676  11.827
95410SOL    HW288128  13.372   4.572  11.923
95411SOL     OW88129   7.593   4.233   0.848
95411SOL    HW188130   7.512   4.188   0.870
95411SOL    HW288131   7.662   4.169   0.865
95412SOL     OW88132  11.379   5.078  13.717
95412SOL    HW188133  11.404   5.018  13.648
95412SOL    HW288134  11.443   5.150  13.711
95413SOL     OW88135   1.808   7.445   0.784
95413SOL    HW188136   1.881   7.486   0.736
95413SOL    HW288137   1.842   7.360   0.812
95414SOL     OW88138   8.908   7.095   2.061
95414SOL    HW188139   8.935   7.165   2.001
95414SOL    HW288140   8.824   7.126   2.096
95415SOL     OW88141   9.234  10.738   7.678
95415SOL    HW188142   9.163  10.796   7.705
95415SOL    HW288143   9.311  10.794   7.675
95416SOL     OW88144  12.147   6.098   8.365
95416SOL    HW188145  12.229   6.143   8.387
95416SOL    HW288146  12.126   6.130   8.277
95417SOL     OW88147   1.008   3.557   4.952
95417SOL    HW188148   1.067   3.605   5.010
95417SOL    HW288149   1.027   3.465   4.969
95418SOL     OW88150   4.612  14.056   0.364
95418SOL    HW188151   4.587  13.964   0.378
95418SOL    HW288152   4.629  14.062   0.270
95419SOL     OW88153   6.607   8.350  14.843
95419SOL    HW188154   6.646   8.325   0.039
95419SOL    HW288155   6.559   8.272  14.815
95420SOL     OW88156   2.872   1.768   9.106
95420SOL    HW188157   2.916   1.706   9.048
95420SOL    HW288158   2.790   1.788   9.060
95421SOL     OW88159   9.320  13.102   5.480
95421SOL    HW188160   9.402  13.141   5.510
95421SOL    HW288161   9.330  13.008   5.495
95422SOL     OW88162   6.373   9.281  10.482
95422SOL    HW188163   6.441   9.218  10.507
95422SOL    HW288164   6.334   9.309  10.564
95423SOL     OW88165   2.226   4.211   3.193
95423SOL    HW188166   2.157   4.153   3.227
95423SOL    HW288167   2.218   4.291   3.244
95424SOL     OW88168   6.396  12.141  13.351
95424SOL    HW188169   6.331  12.100  13.295
95424SOL    HW288170   6.427  12.071  13.408
95425SOL     OW88171   9.556   8.785   4.399
95425SOL    HW188172   9.521   8.801   4.312
95425SOL    HW288173   9.651   8.782   4.386
95426SOL     OW88174  12.160  13.177  11.213
95426SOL    HW188175  12.219  13.239  11.169
95426SOL    HW288176  12.077  13.224  11.220
95427SOL     OW88177   5.936  13.030   7.157
95427SOL    HW188178   5.873  12.969   7.119
95427SOL    HW288179   5.905  13.117   7.133
95428SOL     OW88180  14.773   0.689   7.300
95428SOL    HW188181  14.778   0.785   7.294
95428SOL    HW288182  14.707   0.665   7.236
95429SOL     OW88183  12.597  11.220   9.231
95429SOL    HW188184  12.682  11.255   9.256
95429SOL    HW288185  12.574  11.268   9.151
95430SOL     OW88186   6.549  12.322  14.853
95430SOL    HW188187   6.459  12.354  14.856
95430SOL    HW288188   6.548  12.251  14.790
95431SOL     OW88189   3.943  11.751   9.836
95431SOL    HW188190   3.961  11.835   9.793
95431SOL    HW288191   4.027  11.724   9.872
95432SOL     OW88192   6.821   3.801   9.064
95432SOL    HW188193   6.818   3.885   9.110
95432SOL    HW288194   6.774   3.740   9.121
95433SOL     OW88195  11.850   8.931   6.677
95433SOL    HW188196  11.816   8.878   6.605
95433SOL    HW288197  11.886   8.867   6.739
95434SOL     OW88198  11.206   1.427  14.701
95434SOL    HW188199  11.287   1.377  14.703
95434SOL    HW288200  11.216   1.487  14.628
95435SOL     OW88201   6.361  13.035  12.130
95435SOL    HW188202   6.336  13.107  12.072
95435SOL    HW288203   6.280  12.985  12.142
95436SOL     OW88204   7.065   5.874   1.403
95436SOL    HW188205   7.031   5.833   1.483
95436SOL    HW288206   7.125   5.941   1.435
95437SOL     OW88207  11.505   1.150   0.684
95437SOL    HW188208  11.549   1.207   0.622
95437SOL    HW288209  11.576   1.107   0.732
95438SOL     OW88210   1.240  10.418  11.583
95438SOL    HW188211   1.244  10.356  11.656
95438SOL    HW288212   1.225  10.363  11.506
95439SOL     OW88213   9.868   8.218   2.886
95439SOL    HW188214   9.920   8.138   2.884
95439SOL    HW288215   9.868   8.249   2.795
95440SOL     OW88216  13.545  11.773  10.897
95440SOL    HW188217  13.561  11.865  10.918
95440SOL    HW288218  13.450  11.764  10.899
95441SOL     OW88219  12.570   0.750   4.301
95441SOL    HW188220  12.571   0.687   4.373
95441SOL    HW288221  12.624   0.710   4.233
95442SOL     OW88222  13.966   5.551  10.467
95442SOL    HW188223  13.899   5.600  10.513
95442SOL    HW288224  14.028   5.617  10.435
95443SOL     OW88225   0.590   7.784   3.729
95443SOL    HW188226   0.629   7.701   3.760
95443SOL    HW288227   0.496   7.767   3.727
95444SOL     OW88228  10.826  11.779  13.159
95444SOL    HW188229  10.794  11.799  13.071
95444SOL    HW288230  10.922  11.779  13.149
95445SOL     OW88231  12.288  13.641   4.533
95445SOL    HW188232  12.340  13.584   4.591
95445SOL    HW288233  12.287  13.726   4.577
95446SOL     OW88234   9.893   8.758  10.304
95446SOL    HW188235   9.940   8.755  10.387
95446SOL    HW288236   9.928   8.835  10.260
95447SOL     OW88237   5.132   4.325   7.909
95447SOL    HW188238   5.139   4.393   7.975
95447SOL    HW288239   5.063   4.356   7.850
95448SOL     OW88240  13.724   3.694  13.955
95448SOL    HW188241  13.632   3.668  13.950
95448SOL    HW288242  13.765   3.629  14.012
95449SOL     OW88243   5.963   5.383   0.058
95449SOL    HW188244   5.910   5.437  14.887
95449SOL    HW288245   5.983   5.439   0.133
95450SOL     OW88246   6.599   6.236  12.358
95450SOL    HW188247   6.511   6.222  12.325
95450SOL    HW288248   6.656   6.217  12.283
95451SOL     OW88249  12.408   6.193   3.844
95451SOL    HW188250  12.412   6.112   3.792
95451SOL    HW288251  12.370   6.257   3.784
95452SOL     OW88252   8.765   8.162   0.941
95452SOL    HW188253   8.841   8.219   0.949
95452SOL    HW288254   8.690   8.220   0.955
95453SOL     OW88255   1.833   5.944   0.010
95453SOL    HW188256   1.833   5.850   0.028
95453SOL    HW288257   1.775   5.981   0.076
95454SOL     OW88258   7.070  10.603  11.597
95454SOL    HW188259   7.064  10.699  11.599
95454SOL    HW288260   7.164  10.585  11.599
95455SOL     OW88261  10.397   8.036   0.543
95455SOL    HW188262  10.408   8.052   0.637
95455SOL    HW288263  10.345   8.110   0.512
95456SOL     OW88264   4.929  11.045   2.158
95456SOL    HW188265   4.950  11.138   2.162
95456SOL    HW288266   4.966  11.010   2.239
95457SOL     OW88267   2.364   2.247   9.471
95457SOL    HW188268   2.324   2.197   9.400
95457SOL    HW288269   2.346   2.196   9.550
95458SOL     OW88270   2.071   3.672  10.335
95458SOL    HW188271   2.036   3.623  10.260
95458SOL    HW288272   2.033   3.759  10.327
95459SOL     OW88273   2.580  14.764   5.579
95459SOL    HW188274   2.599  14.845   5.626
95459SOL    HW288275   2.631  14.697   5.624
95460SOL     OW88276   6.316   5.222  11.767
95460SOL    HW188277   6.369   5.241  11.845
95460SOL    HW288278   6.333   5.295  11.708
95461SOL     OW88279   5.885  13.530   1.817
95461SOL    HW188280   5.865  13.490   1.732
95461SOL    HW288281   5.949  13.598   1.797
95462SOL     OW88282  14.569  10.852   5.867
95462SOL    HW188283  14.481  10.854   5.906
95462SOL    HW288284  14.614  10.781   5.912
95463SOL     OW88285   9.730   0.787   3.887
95463SOL    HW188286   9.762   0.835   3.963
95463SOL    HW288287   9.803   0.729   3.863
95464SOL     OW88288   6.708   4.469   3.491
95464SOL    HW188289   6.790   4.495   3.450
95464SOL    HW288290   6.642   4.484   3.424
95465SOL     OW88291  12.518  10.065   9.141
95465SOL    HW188292  12.436  10.105   9.111
95465SOL    HW288293  12.583  10.091   9.075
95466SOL     OW88294  10.252   8.739  14.101
95466SOL    HW188295  10.313   8.772  14.168
95466SOL    HW288296  10.193   8.812  14.084
95467SOL     OW88297  13.268   3.239   6.160
95467SOL    HW188298  13.289   3.240   6.067
95467SOL    HW288299  13.321   3.167   6.195
95468SOL     OW88300   0.652   2.979  14.664
95468SOL    HW188301   0.661   3.072  14.685
95468SOL    HW288302   0.579   2.950  14.719
95469SOL     OW88303  10.538   5.506   3.922
95469SOL    HW188304  10.471   5.563   3.961
95469SOL    HW288305  10.525   5.514   3.828
95470SOL     OW88306   5.708  11.072  11.711
95470SOL    HW188307   5.659  11.136  11.660
95470SOL    HW288308   5.742  11.121  11.786
95471SOL     OW88309   7.797  11.653   7.029
95471SOL    HW188310   7.774  11.562   7.047
95471SOL    HW288311   7.870  11.647   6.968
95472SOL     OW88312   6.479  13.631  10.376
95472SOL    HW188313   6.442  13.582  10.450
95472SOL    HW288314   6.518  13.564  10.320
95473SOL     OW88315   8.926   6.642  13.962
95473SOL    HW188316   8.977   6.608  13.889
95473SOL    HW288317   8.958   6.731  13.975
95474SOL     OW88318   2.735  11.541  13.928
95474SOL    HW188319   2.716  11.595  13.851
95474SOL    HW288320   2.710  11.595  14.002
95475SOL     OW88321  11.813   7.033   6.336
95475SOL    HW188322  11.826   7.003   6.246
95475SOL    HW288323  11.873   7.108   6.345
95476SOL     OW88324   2.063  14.181   6.283
95476SOL    HW188325   2.114  14.248   6.329
95476SOL    HW288326   2.104  14.098   6.308
95477SOL     OW88327   3.696  13.389   3.469
95477SOL    HW188328   3.759  13.409   3.400
95477SOL    HW288329   3.712  13.297   3.490
95478SOL     OW88330   9.229   7.715   7.113
95478SOL    HW188331   9.186   7.787   7.067
95478SOL    HW288332   9.180   7.707   7.195
95479SOL     OW88333   2.314   6.620   2.408
95479SOL    HW188334   2.250   6.658   2.348
95479SOL    HW288335   2.357   6.552   2.357
95480SOL     OW88336   0.494  10.777   8.390
95480SOL    HW188337   0.587  10.780   8.412
95480SOL    HW288338   0.485  10.838   8.317
95481SOL     OW88339  12.938   2.920   9.085
95481SOL    HW188340  12.997   2.851   9.052
95481SOL    HW288341  12.850   2.888   9.064
95482SOL     OW88342  10.566   9.275   3.557
95482SOL    HW188343  10.513   9.344   3.596
95482SOL    HW288344  10.643   9.267   3.614
95483SOL     OW88345   8.098   7.816   3.394
95483SOL    HW188346   8.075   7.732   3.356
95483SOL    HW288347   8.021   7.841   3.445
95484SOL     OW88348   5.045   0.708  14.062
95484SOL    HW188349   5.107   0.635  14.064
95484SOL    HW288350   5.096   0.782  14.030
95485SOL     OW88351  14.376   7.019   8.589
95485SOL    HW188352  14.350   7.109   8.611
95485SOL    HW288353  14.329   6.999   8.508
95486SOL     OW88354   1.512   8.932   1.247
95486SOL    HW188355   1.420   8.959   1.249
95486SOL    HW288356   1.517   8.862   1.313
95487SOL     OW88357   6.360   2.293   9.272
95487SOL    HW188358   6.387   2.375   9.314
95487SOL    HW288359   6.279   2.268   9.316
95488SOL     OW88360   7.513   8.210   3.862
95488SOL    HW188361   7.426   8.192   3.827
95488SOL    HW288362   7.571   8.206   3.786
95489SOL     OW88363  13.000   3.784  12.030
95489SOL    HW188364  12.905   3.796  12.032
95489SOL    HW288365  13.035   3.866  12.066
95490SOL     OW88366  10.867   0.421  14.586
95490SOL    HW188367  10.833   0.390  14.502
95490SOL    HW288368  10.958   0.391  14.589
95491SOL     OW88369  12.100  10.623   6.145
95491SOL    HW188370  12.059  10.551   6.193
95491SOL    HW288371  12.032  10.655   6.086
95492SOL     OW88372   3.825   3.684  10.306
95492SOL    HW188373   3.847   3.654  10.218
95492SOL    HW288374   3.730   3.696  10.304
95493SOL     OW88375  10.553  14.140   5.360
95493SOL    HW188376  10.559  14.236   5.359
95493SOL    HW288377  10.481  14.122   5.420
95494SOL     OW88378  14.539   3.403  11.053
95494SOL    HW188379  14.448   3.388  11.079
95494SOL    HW288380  14.533   3.429  10.961
95495SOL     OW88381  11.929   4.047   6.647
95495SOL    HW188382  11.991   4.040   6.720
95495SOL    HW288383  11.843   4.036   6.689
95496SOL     OW88384  10.370   8.708   7.245
95496SOL    HW188385  10.329   8.728   7.161
95496SOL    HW288386  10.301   8.724   7.310
95497SOL     OW88387   1.324   0.877   6.627
95497SOL    HW188388   1.228   0.877   6.629
95497SOL    HW288389   1.351   0.884   6.718
95498SOL     OW88390   1.873  11.599   2.406
95498SOL    HW188391   1.906  11.655   2.336
95498SOL    HW288392   1.951  11.575   2.456
95499SOL     OW88393   7.919   7.861   3.594
95499SOL    HW188394   7.849   7.813   3.550
95499SOL    HW288395   7.899   7.854   3.687
95500SOL     OW88396   2.817   0.088   4.359
95500SOL    HW188397   2.856   0.080   4.446
95500SOL    HW288398   2.786  14.887   4.339
95501SOL     OW88399   0.551  12.878  13.306
95501SOL    HW188400   0.576  12.970  13.315
95501SOL    HW288401   0.632  12.829  13.321
95502SOL     OW88402   6.873   2.220   1.814
95502SOL    HW188403   6.806   2.160   1.845
95502SOL    HW288404   6.950   2.165   1.799
95503SOL     OW88405  14.785   3.941   4.591
95503SOL    HW188406  14.766   3.917   4.681
95503SOL    HW288407  14.706   3.987   4.562
95504SOL     OW88408   9.006  11.410   9.111
95504SOL    HW188409   9.056  11.440   9.035
95504SOL    HW288410   8.930  11.365   9.073
95505SOL     OW88411   5.121  11.240   0.622
95505SOL    HW188412   5.121  11.305   0.692
95505SOL    HW288413   5.120  11.155   0.667
95506SOL     OW88414  10.572   6.170  12.227
95506SOL    HW188415  10.608   6.172  12.316
95506SOL    HW288416  10.507   6.240  12.225
95507SOL     OW88417   5.094  10.733  10.378
95507SOL    HW188418   5.082  10.793  10.451
95507SOL    HW288419   5.063  10.648  10.411
95508SOL     OW88420   1.273  12.878   3.690
95508SOL    HW188421   1.348  12.933   3.711
95508SOL    HW288422   1.211  12.936   3.645
95509SOL     OW88423  11.106  11.132   2.450
95509SOL    HW188424  11.148  11.061   2.499
95509SOL    HW288425  11.162  11.208   2.464
95510SOL     OW88426   3.160   3.060  10.781
95510SOL    HW188427   3.137   3.144  10.823
95510SOL    HW288428   3.226   3.022  10.839
95511SOL     OW88429   0.771   6.583  12.567
95511SOL    HW188430   0.697   6.538  12.528
95511SOL    HW288431   0.736   6.669  12.593
95512SOL     OW88432   1.808  14.068   4.186
95512SOL    HW188433   1.767  14.088   4.270
95512SOL    HW288434   1.785  14.142   4.130
95513SOL     OW88435  12.814   5.048   0.538
95513SOL    HW188436  12.824   4.969   0.591
95513SOL    HW288437  12.750   5.023   0.470
95514SOL     OW88438   5.327  11.524   6.588
95514SOL    HW188439   5.248  11.577   6.576
95514SOL    HW288440   5.371  11.563   6.663
95515SOL     OW88441  13.332   0.299  13.224
95515SOL    HW188442  13.391   0.248  13.168
95515SOL    HW288443  13.283   0.234  13.274
95516SOL     OW88444   1.531  11.354   9.945
95516SOL    HW188445   1.506  11.264   9.962
95516SOL    HW288446   1.559  11.354   9.854
95517SOL     OW88447  12.404   0.906   3.530
95517SOL    HW188448  12.378   0.991   3.495
95517SOL    HW288449  12.343   0.890   3.603
95518SOL     OW88450   3.574   5.952   6.246
95518SOL    HW188451   3.483   5.972   6.225
95518SOL    HW288452   3.611   5.918   6.164
95519SOL     OW88453  10.071   3.546   6.661
95519SOL    HW188454  10.008   3.475   6.671
95519SOL    HW288455  10.106   3.559   6.749
95520SOL     OW88456   1.484  11.788   5.220
95520SOL    HW188457   1.507  11.716   5.162
95520SOL    HW288458   1.533  11.863   5.186
95521SOL     OW88459   7.855   7.898   5.764
95521SOL    HW188460   7.788   7.893   5.833
95521SOL    HW288461   7.936   7.917   5.811
95522SOL     OW88462  11.685  13.805  10.065
95522SOL    HW188463  11.765  13.757  10.083
95522SOL    HW288464  11.616  13.753  10.107
95523SOL     OW88465   3.104   2.114  10.393
95523SOL    HW188466   3.152   2.033  10.405
95523SOL    HW288467   3.087   2.118  10.298
95524SOL     OW88468  14.659  12.966  14.494
95524SOL    HW188469  14.689  12.878  14.470
95524SOL    HW288470  14.603  12.953  14.570
95525SOL     OW88471   7.746   5.686  10.060
95525SOL    HW188472   7.767   5.610  10.005
95525SOL    HW288473   7.756   5.761  10.001
95526SOL     OW88474   8.621   3.892   2.765
95526SOL    HW188475   8.635   3.857   2.677
95526SOL    HW288476   8.693   3.954   2.778
95527SOL     OW88477   9.269   3.234   4.450
95527SOL    HW188478   9.256   3.231   4.545
95527SOL    HW288479   9.212   3.305   4.421
95528SOL     OW88480   3.174  12.095   3.770
95528SOL    HW188481   3.216  12.178   3.795
95528SOL    HW288482   3.081  12.115   3.769
95529SOL     OW88483  14.527   1.249   3.821
95529SOL    HW188484  14.558   1.273   3.908
95529SOL    HW288485  14.514   1.333   3.776
95530SOL     OW88486   5.726   2.786   9.664
95530SOL    HW188487   5.760   2.779   9.574
95530SOL    HW288488   5.639   2.824   9.653
95531SOL     OW88489  10.191  12.620  13.950
95531SOL    HW188490  10.162  12.530  13.938
95531SOL    HW288491  10.111  12.672  13.946
95532SOL     OW88492   2.133   0.761  11.247
95532SOL    HW188493   2.126   0.731  11.156
95532SOL    HW288494   2.087   0.845  11.247
95533SOL     OW88495   9.029   6.824   2.767
95533SOL    HW188496   9.010   6.735   2.797
95533SOL    HW288497   9.040   6.815   2.672
95534SOL     OW88498  11.235  10.866   8.822
95534SOL    HW188499  11.299  10.799   8.796
95534SOL    HW288500  11.156  10.816   8.844
95535SOL     OW88501   6.120   3.034  10.526
95535SOL    HW188502   6.111   3.027  10.432
95535SOL    HW288503   6.034   3.013  10.561
95536SOL     OW88504  14.053   5.110   4.914
95536SOL    HW188505  14.068   5.043   4.981
95536SOL    HW288506  13.990   5.170   4.953
95537SOL     OW88507   7.639  13.767  10.015
95537SOL    HW188508   7.625  13.672  10.017
95537SOL    HW288509   7.552  13.804  10.027
95538SOL     OW88510   9.146   5.439  13.427
95538SOL    HW188511   9.206   5.494  13.378
95538SOL    HW288512   9.115   5.494  13.499
95539SOL     OW88513   7.198   5.618   9.236
95539SOL    HW188514   7.118   5.612   9.183
95539SOL    HW288515   7.175   5.575   9.319
95540SOL     OW88516  12.674  11.317   0.439
95540SOL    HW188517  12.686  11.223   0.454
95540SOL    HW288518  12.579  11.328   0.434
95541SOL     OW88519   0.595   1.428   7.386
95541SOL    HW188520   0.503   1.414   7.366
95541SOL    HW288521   0.621   1.351   7.436
95542SOL     OW88522   6.338   0.906  13.086
95542SOL    HW188523   6.378   0.991  13.106
95542SOL    HW288524   6.381   0.877  13.006
95543SOL     OW88525  11.368   1.604   2.469
95543SOL    HW188526  11.299   1.594   2.402
95543SOL    HW288527  11.368   1.698   2.489
95544SOL     OW88528   1.147   6.924  11.325
95544SOL    HW188529   1.243   6.932  11.324
95544SOL    HW288530   1.115   7.008  11.294
95545SOL     OW88531   4.512   4.998   6.381
95545SOL    HW188532   4.546   5.045   6.457
95545SOL    HW288533   4.461   4.926   6.418
95546SOL     OW88534   4.810  10.575   0.293
95546SOL    HW188535   4.789  10.576   0.387
95546SOL    HW288536   4.860  10.494   0.280
95547SOL     OW88537  13.813   6.173  10.217
95547SOL    HW188538  13.771   6.243  10.168
95547SOL    HW288539  13.754   6.098  10.207
95548SOL     OW88540  10.744   8.462   7.378
95548SOL    HW188541  10.679   8.477   7.309
95548SOL    HW288542  10.714   8.515   7.452
95549SOL     OW88543  13.144   6.689   0.307
95549SOL    HW188544  13.052   6.714   0.313
95549SOL    HW288545  13.143   6.596   0.285
95550SOL     OW88546   7.396  10.120   3.191
95550SOL    HW188547   7.384  10.036   3.146
95550SOL    HW288548   7.458  10.100   3.261
95551SOL     OW88549  13.651   2.239   4.913
95551SOL    HW188550  13.628   2.321   4.871
95551SOL    HW288551  13.608   2.172   4.861
95552SOL     OW88552   2.409   5.700   9.482
95552SOL    HW188553   2.420   5.789   9.451
95552SOL    HW288554   2.477   5.689   9.548
95553SOL     OW88555  13.646   2.510   8.985
95553SOL    HW188556  13.644   2.537   8.893
95553SOL    HW288557  13.717   2.563   9.023
95554SOL     OW88558   8.829  14.252   6.030
95554SOL    HW188559   8.915  14.261   5.989
95554SOL    HW288560   8.785  14.184   5.978
95555SOL     OW88561   4.869   4.682   8.999
95555SOL    HW188562   4.964   4.687   9.012
95555SOL    HW288563   4.845   4.594   9.028
95556SOL     OW88564  10.412   7.400   2.433
95556SOL    HW188565  10.390   7.311   2.406
95556SOL    HW288566  10.330   7.449   2.425
95557SOL     OW88567  10.361   8.475   3.256
95557SOL    HW188568  10.313   8.507   3.180
95557SOL    HW288569  10.435   8.534   3.265
95558SOL     OW88570  13.173   1.177  14.151
95558SOL    HW188571  13.217   1.248  14.104
95558SOL    HW288572  13.146   1.216  14.234
95559SOL     OW88573  11.834  14.448   3.111
95559SOL    HW188574  11.750  14.403   3.117
95559SOL    HW288575  11.816  14.525   3.057
95560SOL     OW88576  14.417   2.196   6.895
95560SOL    HW188577  14.369   2.270   6.932
95560SOL    HW288578  14.411   2.128   6.962
95561SOL     OW88579  12.947   9.586   8.421
95561SOL    HW188580  12.977   9.674   8.398
95561SOL    HW288581  12.983   9.571   8.509
95562SOL     OW88582   0.265   5.104   1.261
95562SOL    HW188583   0.245   5.136   1.349
95562SOL    HW288584   0.329   5.167   1.227
95563SOL     OW88585   7.975   7.767   3.883
95563SOL    HW188586   7.985   7.680   3.923
95563SOL    HW288587   7.992   7.828   3.956
95564SOL     OW88588  11.700  12.585  11.089
95564SOL    HW188589  11.776  12.592  11.032
95564SOL    HW288590  11.726  12.520  11.155
95565SOL     OW88591   9.371   8.048   4.081
95565SOL    HW188592   9.315   8.012   4.012
95565SOL    HW288593   9.310   8.091   4.141
95566SOL     OW88594   9.569   6.093  11.303
95566SOL    HW188595   9.575   6.066  11.395
95566SOL    HW288596   9.498   6.157  11.302
95567SOL     OW88597   6.204  13.794   0.975
95567SOL    HW188598   6.182  13.815   1.065
95567SOL    HW288599   6.125  13.816   0.925
95568SOL     OW88600   1.781  13.292  13.458
95568SOL    HW188601   1.781  13.243  13.540
95568SOL    HW288602   1.832  13.238  13.398
95569SOL     OW88603   8.714   2.059   7.474
95569SOL    HW188604   8.735   2.047   7.381
95569SOL    HW288605   8.797   2.082   7.515
95570SOL     OW88606   3.194   7.276  14.816
95570SOL    HW188607   3.126   7.254  14.753
95570SOL    HW288608   3.264   7.213  14.798
95571SOL     OW88609  12.864   4.448   2.842
95571SOL    HW188610  12.786   4.446   2.786
95571SOL    HW288611  12.875   4.358   2.872
95572SOL     OW88612  10.669   3.346   7.205
95572SOL    HW188613  10.586   3.304   7.224
95572SOL    HW288614  10.706   3.368   7.290
95573SOL     OW88615   4.362   2.020  13.718
95573SOL    HW188616   4.333   1.994  13.806
95573SOL    HW288617   4.368   1.939  13.669
95574SOL     OW88618   3.889   3.449  11.639
95574SOL    HW188619   3.966   3.473  11.587
95574SOL    HW288620   3.852   3.373  11.594
95575SOL     OW88621  11.502   1.963   1.781
95575SOL    HW188622  11.498   2.018   1.859
95575SOL    HW288623  11.414   1.927   1.772
95576SOL     OW88624   9.617   7.521   7.742
95576SOL    HW188625   9.646   7.433   7.765
95576SOL    HW288626   9.591   7.514   7.650
95577SOL     OW88627   8.810   5.105  11.238
95577SOL    HW188628   8.770   5.176  11.188
95577SOL    HW288629   8.876   5.148  11.292
95578SOL     OW88630  11.303   5.191   9.670
95578SOL    HW188631  11.299   5.205   9.764
95578SOL    HW288632  11.269   5.102   9.658
95579SOL     OW88633   8.456  10.121   7.517
95579SOL    HW188634   8.512  10.092   7.446
95579SOL    HW288635   8.475  10.061   7.589
95580SOL     OW88636   5.036   8.476   4.315
95580SOL    HW188637   5.109   8.434   4.362
95580SOL    HW288638   4.964   8.474   4.378
95581SOL     OW88639   8.020   6.706  11.481
95581SOL    HW188640   7.951   6.753  11.528
95581SOL    HW288641   8.058   6.771  11.422
95582SOL     OW88642   7.758   4.299  14.768
95582SOL    HW188643   7.749   4.377  14.714
95582SOL    HW288644   7.828   4.319  14.829
95583SOL     OW88645   1.116   9.191   5.702
95583SOL    HW188646   1.112   9.162   5.611
95583SOL    HW288647   1.057   9.131   5.749
95584SOL     OW88648   8.161   7.188   7.219
95584SOL    HW188649   8.154   7.282   7.198
95584SOL    HW288650   8.080   7.168   7.266
95585SOL     OW88651  14.638   3.260   4.494
95585SOL    HW188652  14.718   3.299   4.529
95585SOL    HW288653  14.602   3.328   4.436
95586SOL     OW88654   8.065   9.074  11.571
95586SOL    HW188655   7.997   9.049  11.509
95586SOL    HW288656   8.114   8.993  11.586
95587SOL     OW88657   8.851  12.329   5.009
95587SOL    HW188658   8.879  12.324   5.100
95587SOL    HW288659   8.925  12.368   4.962
95588SOL     OW88660   4.052   1.721   6.388
95588SOL    HW188661   4.120   1.787   6.404
95588SOL    HW288662   4.076   1.647   6.444
95589SOL     OW88663   4.824  13.434   1.470
95589SOL    HW188664   4.870  13.379   1.407
95589SOL    HW288665   4.745  13.462   1.424
95590SOL     OW88666  11.619   8.691   4.253
95590SOL    HW188667  11.623   8.739   4.336
95590SOL    HW288668  11.533   8.712   4.217
95591SOL     OW88669   4.411  10.227  14.838
95591SOL    HW188670   4.399  10.158   0.016
95591SOL    HW288671   4.323  10.263  14.825
95592SOL     OW88672   9.589   2.318   9.117
95592SOL    HW188673   9.678   2.345   9.142
95592SOL    HW288674   9.537   2.336   9.195
95593SOL     OW88675   5.777   6.160  10.800
95593SOL    HW188676   5.839   6.132  10.733
95593SOL    HW288677   5.831   6.205  10.866
95594SOL     OW88678   0.729   9.999  11.050
95594SOL    HW188679   0.731   9.908  11.021
95594SOL    HW288680   0.759   9.996  11.141
95595SOL     OW88681   2.410  12.509  10.873
95595SOL    HW188682   2.358  12.512  10.793
95595SOL    HW288683   2.346  12.516  10.944
95596SOL     OW88684   9.911   7.080  13.987
95596SOL    HW188685   9.934   7.155  14.041
95596SOL    HW288686   9.846   7.032  14.038
95597SOL     OW88687   5.584  11.279   2.971
95597SOL    HW188688   5.612  11.295   3.061
95597SOL    HW288689   5.511  11.217   2.980
95598SOL     OW88690   6.201  10.924   6.857
95598SOL    HW188691   6.169  10.867   6.927
95598SOL    HW288692   6.170  10.884   6.776
95599SOL     OW88693  12.804   4.969   9.644
95599SOL    HW188694  12.772   5.055   9.618
95599SOL    HW288695  12.833   4.928   9.562
95600SOL     OW88696   5.814  13.246  12.388
95600SOL    HW188697   5.798  13.178  12.323
95600SOL    HW288698   5.728  13.262  12.428
95601SOL     OW88699  10.135   3.208  11.744
95601SOL    HW188700  10.117   3.299  11.720
95601SOL    HW288701  10.204   3.214  11.810
95602SOL     OW88702  13.024  10.602   6.272
95602SOL    HW188703  13.020  10.532   6.206
95602SOL    HW288704  13.107  10.588   6.317
95603SOL     OW88705   7.205  10.520   8.108
95603SOL    HW188706   7.168  10.483   8.187
95603SOL    HW288707   7.198  10.451   8.042
95604SOL     OW88708   5.476  10.227  12.254
95604SOL    HW188709   5.384  10.222  12.229
95604SOL    HW288710   5.511  10.302  12.205
95605SOL     OW88711  12.425   3.694   7.363
95605SOL    HW188712  12.431   3.676   7.269
95605SOL    HW288713  12.360   3.633   7.395
95606SOL     OW88714   9.727   6.748  14.620
95606SOL    HW188715   9.720   6.662  14.578
95606SOL    HW288716   9.684   6.737  14.705
95607SOL     OW88717   6.074  11.780   0.409
95607SOL    HW188718   6.015  11.797   0.482
95607SOL    HW288719   6.150  11.738   0.449
95608SOL     OW88720   1.613   1.199   5.397
95608SOL    HW188721   1.561   1.251   5.458
95608SOL    HW288722   1.573   1.112   5.399
95609SOL     OW88723   8.738   5.997  13.157
95609SOL    HW188724   8.738   6.029  13.067
95609SOL    HW288725   8.717   6.074  13.210
95610SOL     OW88726   5.315   6.461   0.641
95610SOL    HW188727   5.266   6.477   0.560
95610SOL    HW288728   5.392   6.411   0.613
95611SOL     OW88729   6.827  12.384  10.345
95611SOL    HW188730   6.738  12.349  10.342
95611SOL    HW288731   6.855  12.387  10.253
95612SOL     OW88732   9.155   8.163   7.953
95612SOL    HW188733   9.139   8.076   7.918
95612SOL    HW288734   9.088   8.218   7.913
95613SOL     OW88735   2.214   5.211   2.695
95613SOL    HW188736   2.254   5.136   2.740
95613SOL    HW288737   2.200   5.276   2.764
95614SOL     OW88738   1.220   3.565  13.474
95614SOL    HW188739   1.185   3.588  13.560
95614SOL    HW288740   1.273   3.641  13.449
95615SOL     OW88741  14.322   6.775  13.756
95615SOL    HW188742  14.325   6.823  13.672
95615SOL    HW288743  14.277   6.835  13.816
95616SOL     OW88744   6.377   8.749  12.812
95616SOL    HW188745   6.289   8.783  12.798
95616SOL    HW288746   6.422   8.761  12.729
95617SOL     OW88747  13.760   1.374   2.366
95617SOL    HW188748  13.739   1.462   2.335
95617SOL    HW288749  13.800   1.388   2.452
95618SOL     OW88750   9.724   5.833  11.981
95618SOL    HW188751   9.700   5.800  12.067
95618SOL    HW288752   9.793   5.774  11.951
95619SOL     OW88753   0.795   3.266   0.126
95619SOL    HW188754   0.775   3.289   0.035
95619SOL    HW288755   0.713   3.280   0.173
95620SOL     OW88756  14.139  12.755   7.210
95620SOL    HW188757  14.153  12.712   7.294
95620SOL    HW288758  14.153  12.687   7.144
95621SOL     OW88759  13.990   8.292  11.700
95621SOL    HW188760  14.041   8.218  11.666
95621SOL    HW288761  13.915   8.251  11.744
95622SOL     OW88762  10.008   5.269   1.061
95622SOL    HW188763  10.005   5.346   1.117
95622SOL    HW288764  10.100   5.259   1.038
95623SOL     OW88765   0.499  13.968   7.401
95623SOL    HW188766   0.417  13.931   7.432
95623SOL    HW288767   0.477  14.058   7.375
95624SOL     OW88768   8.907  14.345   0.735
95624SOL    HW188769   8.829  14.399   0.746
95624SOL    HW288770   8.899  14.310   0.646
95625SOL     OW88771   3.976  13.618  13.028
95625SOL    HW188772   3.899  13.674  13.017
95625SOL    HW288773   3.964  13.578  13.114
95626SOL     OW88774  10.128   6.009   4.809
95626SOL    HW188775  10.116   6.037   4.899
95626SOL    HW288776  10.144   5.915   4.814
95627SOL     OW88777   5.570   6.213  13.101
95627SOL    HW188778   5.579   6.256  13.016
95627SOL    HW288779   5.616   6.271  13.163
95628SOL     OW88780   3.402   5.088   9.154
95628SOL    HW188781   3.423   5.144   9.229
95628SOL    HW288782   3.463   5.014   9.162
95629SOL     OW88783  12.131   2.549   3.231
95629SOL    HW188784  12.160   2.458   3.228
95629SOL    HW288785  12.177   2.586   3.306
95630SOL     OW88786   3.841  13.856   8.554
95630SOL    HW188787   3.924  13.825   8.590
95630SOL    HW288788   3.833  13.945   8.586
95631SOL     OW88789   7.205   4.678   8.451
95631SOL    HW188790   7.148   4.616   8.405
95631SOL    HW288791   7.171   4.679   8.541
95632SOL     OW88792   5.319   3.601   6.879
95632SOL    HW188793   5.376   3.603   6.955
95632SOL    HW288794   5.275   3.686   6.880
95633SOL     OW88795   9.722   2.639  14.364
95633SOL    HW188796   9.671   2.576  14.415
95633SOL    HW288797   9.735   2.713  14.424
95634SOL     OW88798   0.894   5.982   1.939
95634SOL    HW188799   0.889   5.949   2.029
95634SOL    HW288800   0.843   5.919   1.888
95635SOL     OW88801   0.960  12.209  10.084
95635SOL    HW188802   0.962  12.181   9.993
95635SOL    HW288803   0.927  12.299  10.082
95636SOL     OW88804   6.115   2.016   8.907
95636SOL    HW188805   6.065   2.077   8.962
95636SOL    HW288806   6.055   1.993   8.836
95637SOL     OW88807   8.753   8.291  11.298
95637SOL    HW188808   8.789   8.361  11.244
95637SOL    HW288809   8.675   8.329  11.338
95638SOL     OW88810  12.642  13.723   1.318
95638SOL    HW188811  12.723  13.759   1.354
95638SOL    HW288812  12.636  13.761   1.230
95639SOL     OW88813   0.660  13.390  13.766
95639SOL    HW188814   0.625  13.450  13.700
95639SOL    HW288815   0.754  13.385  13.748
95640SOL     OW88816  11.497   5.738   7.899
95640SOL    HW188817  11.521   5.741   7.992
95640SOL    HW288818  11.577   5.760   7.852
95641SOL     OW88819   6.797  11.996  13.778
95641SOL    HW188820   6.733  12.004  13.849
95641SOL    HW288821   6.744  11.993  13.698
95642SOL     OW88822  10.628   9.893  12.763
95642SOL    HW188823  10.669   9.841  12.832
95642SOL    HW288824  10.603   9.975  12.806
95643SOL     OW88825   6.931   9.694   2.895
95643SOL    HW188826   6.906   9.648   2.976
95643SOL    HW288827   7.019   9.663   2.876
95644SOL     OW88828   0.342  14.743  11.299
95644SOL    HW188829   0.409  14.734  11.232
95644SOL    HW288830   0.272  14.683  11.272
95645SOL     OW88831   9.818   3.676   2.024
95645SOL    HW188832   9.838   3.769   2.018
95645SOL    HW288833   9.901   3.636   2.050
95646SOL     OW88834   2.189   1.202   2.863
95646SOL    HW188835   2.148   1.209   2.949
95646SOL    HW288836   2.177   1.289   2.823
95647SOL     OW88837   7.995   6.677  14.394
95647SOL    HW188838   8.009   6.624  14.473
95647SOL    HW288839   7.905   6.657  14.368
95648SOL     OW88840  11.995   0.868   4.742
95648SOL    HW188841  11.960   0.869   4.653
95648SOL    HW288842  12.028   0.956   4.756
95649SOL     OW88843   0.306   3.588   2.798
95649SOL    HW188844   0.385   3.537   2.784
95649SOL    HW288845   0.271   3.603   2.711
95650SOL     OW88846   4.936   5.310   7.276
95650SOL    HW188847   5.014   5.303   7.219
95650SOL    HW288848   4.862   5.308   7.215
95651SOL     OW88849   4.188   7.435  10.104
95651SOL    HW188850   4.269   7.467  10.064
95651SOL    HW288851   4.210   7.428  10.197
95652SOL     OW88852  11.252   2.576  13.276
95652SOL    HW188853  11.341   2.551  13.301
95652SOL    HW288854  11.251   2.570  13.181
95653SOL     OW88855   3.403  14.581  13.015
95653SOL    HW188856   3.386  14.541  13.100
95653SOL    HW288857   3.461  14.519  12.970
95654SOL     OW88858   3.595   6.116   1.787
95654SOL    HW188859   3.564   6.034   1.825
95654SOL    HW288860   3.680   6.094   1.748
95655SOL     OW88861  10.074   9.546   6.756
95655SOL    HW188862  10.062   9.639   6.778
95655SOL    HW288863  10.067   9.543   6.661
95656SOL     OW88864   6.491   5.424   1.793
95656SOL    HW188865   6.531   5.484   1.856
95656SOL    HW288866   6.399   5.449   1.791
95657SOL     OW88867   7.490  11.738   6.805
95657SOL    HW188868   7.557  11.803   6.828
95657SOL    HW288869   7.472  11.753   6.713
95658SOL     OW88870  14.353   1.885  13.285
95658SOL    HW188871  14.285   1.944  13.252
95658SOL    HW288872  14.337   1.803  13.239
95659SOL     OW88873   7.115   1.248   9.420
95659SOL    HW188874   7.067   1.330   9.418
95659SOL    HW288875   7.070   1.195   9.485
95660SOL     OW88876   0.615  11.487  11.999
95660SOL    HW188877   0.676  11.484  11.926
95660SOL    HW288878   0.534  11.449  11.964
95661SOL     OW88879  14.017   5.024   8.501
95661SOL    HW188880  13.923   5.033   8.485
95661SOL    HW288881  14.057   5.036   8.415
95662SOL     OW88882   7.858   8.656  13.324
95662SOL    HW188883   7.831   8.564  13.329
95662SOL    HW288884   7.847   8.679  13.232
95663SOL     OW88885  11.429   1.305   6.138
95663SOL    HW188886  11.495   1.277   6.202
95663SOL    HW288887  11.459   1.391   6.109
95664SOL     OW88888   0.374   5.041   6.396
95664SOL    HW188889   0.319   5.105   6.352
95664SOL    HW288890   0.326   4.958   6.387
95665SOL     OW88891   2.603  11.544   0.615
95665SOL    HW188892   2.669  11.613   0.605
95665SOL    HW288893   2.649  11.473   0.660
95666SOL     OW88894   4.481  10.692  10.248
95666SOL    HW188895   4.433  10.773  10.229
95666SOL    HW288896   4.480  10.644  10.165
95667SOL     OW88897   1.543   2.989   5.660
95667SOL    HW188898   1.625   2.988   5.611
95667SOL    HW288899   1.518   3.082   5.662
95668SOL     OW88900   7.586  11.717  12.348
95668SOL    HW188901   7.669  11.726  12.395
95668SOL    HW288902   7.520  11.710  12.418
95669SOL     OW88903  13.824   6.559   3.368
95669SOL    HW188904  13.915   6.585   3.357
95669SOL    HW288905  13.776   6.641   3.377
95670SOL     OW88906  14.176   0.202   3.398
95670SOL    HW188907  14.128   0.280   3.425
95670SOL    HW288908  14.265   0.215   3.431
95671SOL     OW88909  12.403   8.449  14.866
95671SOL    HW188910  12.312   8.475  14.851
95671SOL    HW288911  12.430   8.407  14.785
95672SOL     OW88912   4.682   8.083  12.200
95672SOL    HW188913   4.641   8.133  12.270
95672SOL    HW288914   4.775   8.102  12.208
95673SOL     OW88915   8.625  13.661   5.996
95673SOL    HW188916   8.564  13.594   5.965
95673SOL    HW288917   8.679  13.682   5.920
95674SOL     OW88918   7.105   4.476  10.983
95674SOL    HW188919   7.180   4.417  10.971
95674SOL    HW288920   7.120   4.516  11.069
95675SOL     OW88921  11.696   5.824   7.731
95675SOL    HW188922  11.642   5.863   7.662
95675SOL    HW288923  11.774   5.879   7.734
95676SOL     OW88924   1.745   8.115   4.293
95676SOL    HW188925   1.691   8.169   4.351
95676SOL    HW288926   1.793   8.179   4.240
95677SOL     OW88927   7.034  12.060   8.958
95677SOL    HW188928   6.975  12.130   8.930
95677SOL    HW288929   7.101  12.058   8.890
95678SOL     OW88930   6.721   5.477  11.881
95678SOL    HW188931   6.677   5.509  11.802
95678SOL    HW288932   6.796   5.537  11.892
95679SOL     OW88933  11.649   0.139   2.944
95679SOL    HW188934  11.628   0.114   2.854
95679SOL    HW288935  11.565   0.137   2.989
95680SOL     OW88936  10.014  10.119  13.936
95680SOL    HW188937  10.080  10.188  13.934
95680SOL    HW288938  10.045  10.053  13.875
95681SOL     OW88939   7.471   8.622  12.757
95681SOL    HW188940   7.385   8.581  12.768
95681SOL    HW288941   7.532   8.561  12.799
95682SOL     OW88942   7.353  13.604   4.692
95682SOL    HW188943   7.396  13.689   4.705
95682SOL    HW288944   7.411  13.541   4.734
95683SOL     OW88945  14.101   2.220   5.957
95683SOL    HW188946  14.059   2.153   6.011
95683SOL    HW288947  14.066   2.303   5.990
95684SOL     OW88948  10.495   4.518  10.473
95684SOL    HW188949  10.439   4.452  10.432
95684SOL    HW288950  10.580   4.475  10.481
95685SOL     OW88951   2.093  11.708  12.324
95685SOL    HW188952   2.018  11.741  12.372
95685SOL    HW288953   2.059  11.637  12.270
95686SOL     OW88954  14.834  13.171  14.338
95686SOL    HW188955   0.029  13.193  14.381
95686SOL    HW288956  14.785  13.122  14.404
95687SOL     OW88957   0.280   0.009   3.888
95687SOL    HW188958   0.214   0.037   3.823
95687SOL    HW288959   0.265  14.802   3.898
95688SOL     OW88960   7.455  14.830   8.122
95688SOL    HW188961   7.393  14.775   8.074
95688SOL    HW288962   7.403   0.017   8.152
95689SOL     OW88963   4.257   6.082   7.290
95689SOL    HW188964   4.325   6.148   7.305
95689SOL    HW288965   4.304   5.999   7.293
95690SOL     OW88966   9.856  11.655   6.446
95690SOL    HW188967   9.841  11.571   6.490
95690SOL    HW288968   9.799  11.717   6.491
95691SOL     OW88969  14.213   9.884   2.924
95691SOL    HW188970  14.212   9.847   3.013
95691SOL    HW288971  14.306   9.898   2.905
95692SOL     OW88972   8.036   6.414   5.817
95692SOL    HW188973   7.968   6.461   5.769
95692SOL    HW288974   8.060   6.473   5.888
95693SOL     OW88975  14.102   7.190   0.373
95693SOL    HW188976  14.157   7.267   0.361
95693SOL    HW288977  14.152   7.135   0.435
95694SOL     OW88978   5.205   6.603   3.384
95694SOL    HW188979   5.126   6.624   3.434
95694SOL    HW288980   5.179   6.610   3.292
95695SOL     OW88981   0.600   7.207   3.806
95695SOL    HW188982   0.575   7.223   3.715
95695SOL    HW288983   0.676   7.149   3.800
95696SOL     OW88984   0.547   1.182   1.142
95696SOL    HW188985   0.500   1.126   1.080
95696SOL    HW288986   0.587   1.250   1.087
95697SOL     OW88987   0.782   8.761   7.402
95697SOL    HW188988   0.787   8.747   7.496
95697SOL    HW288989   0.838   8.837   7.386
95698SOL     OW88990   9.855   5.769   5.190
95698SOL    HW188991   9.833   5.775   5.283
95698SOL    HW288992   9.951   5.776   5.188
95699SOL     OW88993   2.597   1.081   7.807
95699SOL    HW188994   2.657   1.022   7.761
95699SOL    HW288995   2.643   1.107   7.886
95700SOL     OW88996   9.361   2.915   5.195
95700SOL    HW188997   9.272   2.909   5.228
95700SOL    HW288998   9.375   2.831   5.149
95701SOL     OW88999  14.652  11.096   6.542
95701SOL    HW189000  14.595  11.059   6.610
95701SOL    HW289001  14.649  11.190   6.557
95702SOL     OW89002   6.229  12.255  10.020
95702SOL    HW189003   6.267  12.189  10.078
95702SOL    HW289004   6.135  12.238  10.023
95703SOL     OW89005   9.005   5.967   4.888
95703SOL    HW189006   8.925   5.958   4.940
95703SOL    HW289007   8.978   5.947   4.799
95704SOL     OW89008  13.998   0.306   6.631
95704SOL    HW189009  14.025   0.255   6.555
95704SOL    HW289010  13.915   0.266   6.658
95705SOL     OW89011  13.463   5.083  12.897
95705SOL    HW189012  13.386   5.054  12.947
95705SOL    HW289013  13.518   5.127  12.962
95706SOL     OW89014  11.105   3.145  13.099
95706SOL    HW189015  11.106   3.121  13.006
95706SOL    HW289016  11.091   3.062  13.145
95707SOL     OW89017  12.425  13.568   8.109
95707SOL    HW189018  12.350  13.509   8.102
95707SOL    HW289019  12.501  13.511   8.097
95708SOL     OW89020   6.544   9.765   9.677
95708SOL    HW189021   6.460   9.778   9.721
95708SOL    HW289022   6.546   9.832   9.609
95709SOL     OW89023   1.280   8.946   6.895
95709SOL    HW189024   1.317   9.011   6.955
95709SOL    HW289025   1.283   8.989   6.809
95710SOL     OW89026   3.112   9.268   7.793
95710SOL    HW189027   3.076   9.342   7.745
95710SOL    HW289028   3.145   9.305   7.875
95711SOL     OW89029   8.573   5.283   0.841
95711SOL    HW189030   8.530   5.244   0.765
95711SOL    HW289031   8.624   5.211   0.879
95712SOL     OW89032   6.990   2.655  12.365
95712SOL    HW189033   6.964   2.746  12.375
95712SOL    HW289034   6.988   2.638  12.271
95713SOL     OW89035   4.592   0.839  14.264
95713SOL    HW189036   4.658   0.859  14.331
95713SOL    HW289037   4.642   0.832  14.182
95714SOL     OW89038   2.046   4.159  10.749
95714SOL    HW189039   2.065   4.065  10.742
95714SOL    HW289040   1.956   4.162  10.781
95715SOL     OW89041  11.981  11.339   7.811
95715SOL    HW189042  11.939  11.323   7.726
95715SOL    HW289043  11.937  11.416   7.846
95716SOL     OW89044  13.262   6.918   3.307
95716SOL    HW189045  13.260   7.009   3.336
95716SOL    HW289046  13.175   6.884   3.325
95717SOL     OW89047  12.107  13.319   4.657
95717SOL    HW189048  12.184  13.375   4.650
95717SOL    HW289049  12.096  13.304   4.751
95718SOL     OW89050   7.507   0.212   9.556
95718SOL    HW189051   7.563   0.139   9.580
95718SOL    HW289052   7.418   0.183   9.576
95719SOL     OW89053   6.495   9.787  12.344
95719SOL    HW189054   6.588   9.802  12.327
95719SOL    HW289055   6.453   9.870  12.321
95720SOL     OW89056   8.098   5.448   5.284
95720SOL    HW189057   8.109   5.477   5.193
95720SOL    HW289058   8.187   5.435   5.316
95721SOL     OW89059  12.780   4.447  14.242
95721SOL    HW189060  12.768   4.471  14.334
95721SOL    HW289061  12.853   4.384  14.243
95722SOL     OW89062  11.882   2.148   0.717
95722SOL    HW189063  11.879   2.064   0.763
95722SOL    HW289064  11.845   2.129   0.631
95723SOL     OW89065   2.379   9.004   1.251
95723SOL    HW189066   2.348   9.046   1.330
95723SOL    HW289067   2.438   8.935   1.282
95724SOL     OW89068   9.621  13.512   6.891
95724SOL    HW189069   9.645  13.467   6.810
95724SOL    HW289070   9.639  13.448   6.961
95725SOL     OW89071   5.318   1.710  12.994
95725SOL    HW189072   5.238   1.662  13.015
95725SOL    HW289073   5.355   1.665  12.918
95726SOL     OW89074   0.587   8.801   9.196
95726SOL    HW189075   0.646   8.729   9.215
95726SOL    HW289076   0.637   8.860   9.139
95727SOL     OW89077   3.833   8.323  13.432
95727SOL    HW189078   3.808   8.245  13.483
95727SOL    HW289079   3.750   8.358  13.400
95728SOL     OW89080   2.706  14.395   3.997
95728SOL    HW189081   2.762  14.399   3.920
95728SOL    HW289082   2.756  14.439   4.066
95729SOL     OW89083   8.105   7.094   0.089
95729SOL    HW189084   8.015   7.064   0.082
95729SOL    HW289085   8.139   7.052   0.168
95730SOL     OW89086   6.294   2.316   5.416
95730SOL    HW189087   6.371   2.334   5.362
95730SOL    HW289088   6.303   2.374   5.492
95731SOL     OW89089   7.717  13.805   3.369
95731SOL    HW189090   7.749  13.867   3.304
95731SOL    HW289091   7.686  13.860   3.441
95732SOL     OW89092   8.502  11.933  11.977
95732SOL    HW189093   8.412  11.900  11.985
95732SOL    HW289094   8.557  11.858  12.002
95733SOL     OW89095   1.270   7.308   3.576
95733SOL    HW189096   1.286   7.295   3.669
95733SOL    HW289097   1.200   7.246   3.554
95734SOL     OW89098   2.188   8.179  11.228
95734SOL    HW189099   2.192   8.258  11.281
95734SOL    HW289100   2.261   8.188  11.166
95735SOL     OW89101   7.353   0.382  13.720
95735SOL    HW189102   7.365   0.397  13.627
95735SOL    HW289103   7.259   0.392  13.734
95736SOL     OW89104   9.072   9.647   0.311
95736SOL    HW189105   9.057   9.626   0.404
95736SOL    HW289106   8.996   9.700   0.287
95737SOL     OW89107  10.883   7.856   5.400
95737SOL    HW189108  10.908   7.916   5.470
95737SOL    HW289109  10.818   7.797   5.439
95738SOL     OW89110  11.223   4.859  11.362
95738SOL    HW189111  11.134   4.858  11.397
95738SOL    HW289112  11.257   4.945  11.383
95739SOL     OW89113   6.693   1.202   7.361
95739SOL    HW189114   6.644   1.134   7.315
95739SOL    HW289115   6.768   1.157   7.399
95740SOL     OW89116  14.654   9.145   5.147
95740SOL    HW189117  14.698   9.211   5.095
95740SOL    HW289118  14.662   9.064   5.096
95741SOL     OW89119  11.322  10.225   2.495
95741SOL    HW189120  11.229  10.217   2.470
95741SOL    HW289121  11.328  10.181   2.579
95742SOL     OW89122   2.825   9.264   0.270
95742SOL    HW189123   2.799   9.345   0.226
95742SOL    HW289124   2.874   9.216   0.204
95743SOL     OW89125  13.106  13.457   0.748
95743SOL    HW189126  13.025  13.450   0.697
95743SOL    HW289127  13.093  13.534   0.804
95744SOL     OW89128   8.090   2.403   4.396
95744SOL    HW189129   8.121   2.313   4.406
95744SOL    HW289130   7.998   2.393   4.370
95745SOL     OW89131  10.721   7.809   8.256
95745SOL    HW189132  10.636   7.773   8.283
95745SOL    HW289133  10.714   7.818   8.161
95746SOL     OW89134   7.160   7.541  11.615
95746SOL    HW189135   7.084   7.499  11.655
95746SOL    HW289136   7.146   7.531  11.521
95747SOL     OW89137   1.149   0.396   1.371
95747SOL    HW189138   1.169   0.339   1.445
95747SOL    HW289139   1.084   0.457   1.404
95748SOL     OW89140   8.158   0.391   7.528
95748SOL    HW189141   8.117   0.329   7.468
95748SOL    HW289142   8.101   0.468   7.527
95749SOL     OW89143   2.976   2.926  12.235
95749SOL    HW189144   2.933   3.006  12.204
95749SOL    HW289145   3.069   2.939  12.214
95750SOL     OW89146   5.854   5.865   9.637
95750SOL    HW189147   5.903   5.946   9.654
95750SOL    HW289148   5.875   5.809   9.712
95751SOL     OW89149   1.985   1.788  11.958
95751SOL    HW189150   2.057   1.725  11.957
95751SOL    HW289151   1.917   1.748  11.902
95752SOL     OW89152   0.971  14.493  11.790
95752SOL    HW189153   1.056  14.474  11.828
95752SOL    HW289154   0.971  14.445  11.707
95753SOL     OW89155   5.241  14.495   6.565
95753SOL    HW189156   5.172  14.430   6.575
95753SOL    HW289157   5.268  14.486   6.473
95754SOL     OW89158   0.057  11.400   8.966
95754SOL    HW189159   0.056  11.495   8.976
95754SOL    HW289160   0.136  11.371   9.010
95755SOL     OW89161  12.434  10.654   9.351
95755SOL    HW189162  12.510  10.649   9.294
95755SOL    HW289163  12.397  10.565   9.349
95756SOL     OW89164   9.720   7.686  12.945
95756SOL    HW189165   9.630   7.683  12.976
95756SOL    HW289166   9.718   7.637  12.863
95757SOL     OW89167  11.203   8.622   1.418
95757SOL    HW189168  11.279   8.681   1.416
95757SOL    HW289169  11.201   8.589   1.507
95758SOL     OW89170   5.906   0.472   3.351
95758SOL    HW189171   5.864   0.555   3.326
95758SOL    HW289172   5.884   0.461   3.443
95759SOL     OW89173  12.702   1.633   6.429
95759SOL    HW189174  12.781   1.658   6.476
95759SOL    HW289175  12.645   1.710   6.436
95760SOL     OW89176  11.124   2.836  13.143
95760SOL    HW189177  11.182   2.869  13.075
95760SOL    HW289178  11.092   2.753  13.108
95761SOL     OW89179  12.277   4.241  14.110
95761SOL    HW189180  12.331   4.199  14.042
95761SOL    HW289181  12.210   4.288  14.061
95762SOL     OW89182   5.799  13.872   5.120
95762SOL    HW189183   5.756  13.793   5.090
95762SOL    HW289184   5.789  13.870   5.216
95763SOL     OW89185   8.612   0.064  14.418
95763SOL    HW189186   8.630  14.870  14.372
95763SOL    HW289187   8.517   0.067  14.424
95764SOL     OW89188   2.097   4.452  11.958
95764SOL    HW189189   2.004   4.432  11.943
95764SOL    HW289190   2.144   4.395  11.898
95765SOL     OW89191  11.370   7.938   6.750
95765SOL    HW189192  11.327   7.853   6.762
95765SOL    HW289193  11.462   7.916   6.733
95766SOL     OW89194   9.585   0.661   0.250
95766SOL    HW189195   9.642   0.735   0.268
95766SOL    HW289196   9.532   0.652   0.330
95767SOL     OW89197   5.849  11.129   9.381
95767SOL    HW189198   5.761  11.159   9.404
95767SOL    HW289199   5.871  11.177   9.301
95768SOL     OW89200   5.265   3.239   9.203
95768SOL    HW189201   5.266   3.334   9.217
95768SOL    HW289202   5.199   3.225   9.135
95769SOL     OW89203  10.669   0.439   8.220
95769SOL    HW189204  10.647   0.451   8.128
95769SOL    HW289205  10.592   0.397   8.258
95770SOL     OW89206  11.602   4.320   6.088
95770SOL    HW189207  11.588   4.230   6.061
95770SOL    HW289208  11.597   4.317   6.184
95771SOL     OW89209   1.026   1.646   3.216
95771SOL    HW189210   1.026   1.711   3.286
95771SOL    HW289211   0.943   1.599   3.226
95772SOL     OW89212   1.369   0.064   4.493
95772SOL    HW189213   1.367  14.880   4.557
95772SOL    HW289214   1.291   0.050   4.439
95773SOL     OW89215   5.350   2.784   4.902
95773SOL    HW189216   5.382   2.742   4.982
95773SOL    HW289217   5.420   2.771   4.838
95774SOL     OW89218  13.956  12.420  11.410
95774SOL    HW189219  13.941  12.449  11.500
95774SOL    HW289220  14.048  12.444  11.393
95775SOL     OW89221   5.977   2.456   0.440
95775SOL    HW189222   5.932   2.475   0.357
95775SOL    HW289223   5.989   2.543   0.480
95776SOL     OW89224  14.433   9.621   6.958
95776SOL    HW189225  14.455   9.702   6.912
95776SOL    HW289226  14.399   9.563   6.890
95777SOL     OW89227   3.084   0.312   0.676
95777SOL    HW189228   3.059   0.235   0.728
95777SOL    HW289229   3.098   0.381   0.741
95778SOL     OW89230   9.179  14.851  11.677
95778SOL    HW189231   9.102  14.834  11.732
95778SOL    HW289232   9.234  14.774  11.689
95779SOL     OW89233   4.562  13.465   2.351
95779SOL    HW189234   4.632  13.515   2.392
95779SOL    HW289235   4.489  13.527   2.344
95780SOL     OW89236   1.207  14.400  10.487
95780SOL    HW189237   1.228  14.312  10.458
95780SOL    HW289238   1.143  14.433  10.423
95781SOL     OW89239   1.396   0.763   1.742
95781SOL    HW189240   1.327   0.821   1.710
95781SOL    HW289241   1.413   0.703   1.669
95782SOL     OW89242   6.960   7.991   8.636
95782SOL    HW189243   6.930   8.026   8.719
95782SOL    HW289244   6.891   8.014   8.574
95783SOL     OW89245   0.702  10.353  12.036
95783SOL    HW189246   0.667  10.267  12.015
95783SOL    HW289247   0.775  10.336  12.096
95784SOL     OW89248   5.355  12.695  14.749
95784SOL    HW189249   5.405  12.670  14.826
95784SOL    HW289250   5.264  12.701  14.780
95785SOL     OW89251  12.708  12.358   1.309
95785SOL    HW189252  12.774  12.290   1.323
95785SOL    HW289253  12.758  12.438   1.297
95786SOL     OW89254   9.062   3.528  12.000
95786SOL    HW189255   9.155   3.548  12.009
95786SOL    HW289256   9.019   3.613  12.009
95787SOL     OW89257   9.531   0.054   2.708
95787SOL    HW189258   9.460   0.118   2.716
95787SOL    HW289259   9.566   0.045   2.796
95788SOL     OW89260  13.180  13.767   5.840
95788SOL    HW189261  13.261  13.804   5.806
95788SOL    HW289262  13.191  13.766   5.935
95789SOL     OW89263   3.554   3.214   0.127
95789SOL    HW189264   3.544   3.309   0.134
95789SOL    HW289265   3.613   3.202   0.053
95790SOL     OW89266  11.776   2.657   3.838
95790SOL    HW189267  11.854   2.643   3.892
95790SOL    HW289268  11.799   2.727   3.778
95791SOL     OW89269  12.321   6.523   4.191
95791SOL    HW189270  12.238   6.540   4.236
95791SOL    HW289271  12.309   6.436   4.153
95792SOL     OW89272   7.768  11.527  10.777
95792SOL    HW189273   7.827  11.451  10.778
95792SOL    HW289274   7.815  11.593  10.725
95793SOL     OW89275  11.391   6.780  12.949
95793SOL    HW189276  11.323   6.803  12.886
95793SOL    HW289277  11.392   6.854  13.011
95794SOL     OW89278   7.501  10.149   0.049
95794SOL    HW189279   7.594  10.167   0.030
95794SOL    HW289280   7.456  10.229   0.020
95795SOL     OW89281   1.709   2.037   7.463
95795SOL    HW189282   1.732   1.996   7.380
95795SOL    HW289283   1.772   2.001   7.526
95796SOL     OW89284   0.963  10.728   9.522
95796SOL    HW189285   0.957  10.821   9.499
95796SOL    HW289286   1.034  10.694   9.468
95797SOL     OW89287  10.953  14.102   8.907
95797SOL    HW189288  10.945  14.007   8.908
95797SOL    HW289289  10.881  14.133   8.962
95798SOL     OW89290   6.552   9.796   3.460
95798SOL    HW189291   6.547   9.763   3.550
95798SOL    HW289292   6.469   9.769   3.420
95799SOL     OW89293   2.527   9.883   4.860
95799SOL    HW189294   2.618   9.864   4.881
95799SOL    HW289295   2.489   9.799   4.836
95800SOL     OW89296  13.581   4.203   0.801
95800SOL    HW189297  13.537   4.288   0.807
95800SOL    HW289298  13.605   4.194   0.709
95801SOL     OW89299   4.518   4.438   8.728
95801SOL    HW189300   4.587   4.373   8.738
95801SOL    HW289301   4.521   4.488   8.809
95802SOL     OW89302   0.478   2.463   2.056
95802SOL    HW189303   0.412   2.479   1.988
95802SOL    HW289304   0.552   2.425   2.009
95803SOL     OW89305  13.989  12.119  14.167
95803SOL    HW189306  14.009  12.183  14.099
95803SOL    HW289307  13.913  12.072  14.135
95804SOL     OW89308   5.242   5.665   4.329
95804SOL    HW189309   5.308   5.732   4.313
95804SOL    HW289310   5.233   5.663   4.424
95805SOL     OW89311   8.929  10.597  13.614
95805SOL    HW189312   9.018  10.629  13.601
95805SOL    HW289313   8.900  10.640  13.694
95806SOL     OW89314   6.167   6.337  13.703
95806SOL    HW189315   6.150   6.267  13.767
95806SOL    HW289316   6.126   6.305  13.622
95807SOL     OW89317   5.538  14.542  12.889
95807SOL    HW189318   5.585  14.509  12.966
95807SOL    HW289319   5.446  14.527  12.911
95808SOL     OW89320   9.123   7.405  11.855
95808SOL    HW189321   9.077   7.341  11.908
95808SOL    HW289322   9.214   7.401  11.885
95809SOL     OW89323   3.343   9.540   3.606
95809SOL    HW189324   3.425   9.590   3.609
95809SOL    HW289325   3.324   9.519   3.697
95810SOL     OW89326   8.148  14.812  11.196
95810SOL    HW189327   8.135  14.772  11.110
95810SOL    HW289328   8.120   0.015  11.185
95811SOL     OW89329   2.722   7.042   0.504
95811SOL    HW189330   2.728   7.122   0.451
95811SOL    HW289331   2.811   7.006   0.502
95812SOL     OW89332   9.463   2.747   2.719
95812SOL    HW189333   9.551   2.709   2.710
95812SOL    HW289334   9.479   2.840   2.737
95813SOL     OW89335   0.758   9.418  10.326
95813SOL    HW189336   0.795   9.373  10.403
95813SOL    HW289337   0.773   9.511  10.344
95814SOL     OW89338   2.071   7.308   6.323
95814SOL    HW189339   2.043   7.397   6.342
95814SOL    HW289340   2.082   7.267   6.408
95815SOL     OW89341  13.926   7.349  10.213
95815SOL    HW189342  13.884   7.333  10.128
95815SOL    HW289343  14.009   7.391  10.191
95816SOL     OW89344   6.283  12.161   2.071
95816SOL    HW189345   6.375  12.186   2.068
95816SOL    HW289346   6.284  12.067   2.089
95817SOL     OW89347   9.860  11.377  13.606
95817SOL    HW189348   9.841  11.313  13.537
95817SOL    HW289349   9.822  11.340  13.685
95818SOL     OW89350  14.080   8.684  10.131
95818SOL    HW189351  14.072   8.705  10.224
95818SOL    HW289352  14.132   8.603  10.129
95819SOL     OW89353  14.664   4.929   6.443
95819SOL    HW189354  14.725   4.990   6.483
95819SOL    HW289355  14.604   4.984   6.392
95820SOL     OW89356  11.984   4.029   4.441
95820SOL    HW189357  12.008   4.087   4.370
95820SOL    HW289358  12.067   4.005   4.482
95821SOL     OW89359   6.204  11.109  12.673
95821SOL    HW189360   6.212  11.023  12.714
95821SOL    HW289361   6.252  11.168  12.730
95822SOL     OW89362  11.633   6.625  13.023
95822SOL    HW189363  11.613   6.534  13.046
95822SOL    HW289364  11.547   6.665  13.008
95823SOL     OW89365   8.434   3.880   1.867
95823SOL    HW189366   8.463   3.788   1.866
95823SOL    HW289367   8.419   3.901   1.775
95824SOL     OW89368   2.126   1.226   8.144
95824SOL    HW189369   2.104   1.319   8.137
95824SOL    HW289370   2.188   1.211   8.073
95825SOL     OW89371   9.698   0.336  12.263
95825SOL    HW189372   9.636   0.287  12.208
95825SOL    HW289373   9.668   0.321  12.353
95826SOL     OW89374   2.482   7.431   6.699
95826SOL    HW189375   2.462   7.393   6.784
95826SOL    HW289376   2.560   7.382   6.669
95827SOL     OW89377  10.688  14.767   0.152
95827SOL    HW189378  10.620  14.701   0.138
95827SOL    HW289379  10.747  14.727   0.216
95828SOL     OW89380   5.890  11.090   3.487
95828SOL    HW189381   5.807  11.074   3.532
95828SOL    HW289382   5.955  11.092   3.558
95829SOL     OW89383   4.769  10.738   3.403
95829SOL    HW189384   4.746  10.784   3.483
95829SOL    HW289385   4.840  10.679   3.429
95830SOL     OW89386   4.241  12.245  11.573
95830SOL    HW189387   4.189  12.182  11.523
95830SOL    HW289388   4.278  12.193  11.645
95831SOL     OW89389  11.460  12.197   9.773
95831SOL    HW189390  11.441  12.173   9.682
95831SOL    HW289391  11.537  12.146   9.796
95832SOL     OW89392   2.542   0.409   5.831
95832SOL    HW189393   2.517   0.339   5.770
95832SOL    HW289394   2.458   0.448   5.857
95833SOL     OW89395   9.490   8.350   5.537
95833SOL    HW189396   9.492   8.431   5.486
95833SOL    HW289397   9.483   8.281   5.471
95834SOL     OW89398   4.604   8.178   5.567
95834SOL    HW189399   4.690   8.156   5.530
95834SOL    HW289400   4.546   8.183   5.490
95835SOL     OW89401   7.076   4.565   6.666
95835SOL    HW189402   7.072   4.588   6.573
95835SOL    HW289403   6.984   4.551   6.691
95836SOL     OW89404   5.144   9.178   3.457
95836SOL    HW189405   5.114   9.156   3.369
95836SOL    HW289406   5.149   9.094   3.502
95837SOL     OW89407   9.997   8.040   8.105
95837SOL    HW189408   9.956   8.109   8.158
95837SOL    HW289409   9.972   7.959   8.148
95838SOL     OW89410  12.940   3.485   2.986
95838SOL    HW189411  12.939   3.468   2.892
95838SOL    HW289412  12.885   3.562   2.997
95839SOL     OW89413   0.915   0.066   1.209
95839SOL    HW189414   0.862   0.005   1.158
95839SOL    HW289415   0.929   0.140   1.149
95840SOL     OW89416   5.530   7.395   5.010
95840SOL    HW189417   5.497   7.323   4.956
95840SOL    HW289418   5.615   7.363   5.042
95841SOL     OW89419  12.366  13.440  13.166
95841SOL    HW189420  12.367  13.511  13.230
95841SOL    HW289421  12.298  13.380  13.198
95842SOL     OW89422   5.802   9.473   1.150
95842SOL    HW189423   5.883   9.452   1.195
95842SOL    HW289424   5.751   9.393   1.153
95843SOL     OW89425  12.440   2.383   2.763
95843SOL    HW189426  12.466   2.464   2.720
95843SOL    HW289427  12.347   2.394   2.782
95844SOL     OW89428   9.344   2.723   9.835
95844SOL    HW189429   9.379   2.769   9.911
95844SOL    HW289430   9.271   2.777   9.805
95845SOL     OW89431   0.919   1.766   2.122
95845SOL    HW189432   0.854   1.706   2.160
95845SOL    HW289433   0.869   1.843   2.097
95846SOL     OW89434   2.574  12.207   9.717
95846SOL    HW189435   2.620  12.283   9.753
95846SOL    HW289436   2.519  12.176   9.788
95847SOL     OW89437   5.348  10.484  10.429
95847SOL    HW189438   5.309  10.422  10.491
95847SOL    HW289439   5.362  10.564  10.480
95848SOL     OW89440  14.069   8.682   5.121
95848SOL    HW189441  14.162   8.660   5.112
95848SOL    HW289442  14.037   8.621   5.187
95849SOL     OW89443  13.020   8.070  10.761
95849SOL    HW189444  13.043   8.083  10.853
95849SOL    HW289445  13.089   8.115  10.712
95850SOL     OW89446  13.657   1.276  13.373
95850SOL    HW189447  13.713   1.276  13.450
95850SOL    HW289448  13.716   1.294  13.300
95851SOL     OW89449  10.119  14.818   7.129
95851SOL    HW189450  10.088  14.763   7.057
95851SOL    HW289451  10.144  14.757   7.197
95852SOL     OW89452  13.460   3.927   4.240
95852SOL    HW189453  13.534   3.943   4.297
95852SOL    HW289454  13.385   3.967   4.284
95853SOL     OW89455   2.893  10.918   8.297
95853SOL    HW189456   2.808  10.914   8.342
95853SOL    HW289457   2.951  10.864   8.351
95854SOL     OW89458   2.044   4.042   0.392
95854SOL    HW189459   2.087   3.962   0.422
95854SOL    HW289460   2.005   4.080   0.470
95855SOL     OW89461   4.263   0.767   8.300
95855SOL    HW189462   4.273   0.836   8.234
95855SOL    HW289463   4.198   0.802   8.361
95856SOL     OW89464   2.074  12.261   6.664
95856SOL    HW189465   1.980  12.281   6.670
95856SOL    HW289466   2.116  12.327   6.717
95857SOL     OW89467  14.383  12.158   5.476
95857SOL    HW189468  14.360  12.194   5.561
95857SOL    HW289469  14.299  12.130   5.438
95858SOL     OW89470   5.830   5.354   0.622
95858SOL    HW189471   5.816   5.341   0.528
95858SOL    HW289472   5.763   5.300   0.664
95859SOL     OW89473   6.288  10.209   1.131
95859SOL    HW189474   6.353  10.220   1.201
95859SOL    HW289475   6.337  10.171   1.059
95860SOL     OW89476   5.698   1.371   2.823
95860SOL    HW189477   5.782   1.327   2.836
95860SOL    HW289478   5.633   1.301   2.824
95861SOL     OW89479   8.721   5.496   6.176
95861SOL    HW189480   8.744   5.562   6.111
95861SOL    HW289481   8.699   5.546   6.255
95862SOL     OW89482   3.963  12.794  13.307
95862SOL    HW189483   3.950  12.857  13.236
95862SOL    HW289484   3.988  12.713  13.263
95863SOL     OW89485   4.697   7.424  10.090
95863SOL    HW189486   4.720   7.338  10.056
95863SOL    HW289487   4.711   7.484  10.017
95864SOL     OW89488   5.769  13.914  12.035
95864SOL    HW189489   5.707  13.844  12.052
95864SOL    HW289490   5.851  13.869  12.014
95865SOL     OW89491   4.427   8.962   0.561
95865SOL    HW189492   4.405   8.870   0.580
95865SOL    HW289493   4.391   9.011   0.635
95866SOL     OW89494   1.572   9.004  11.231
95866SOL    HW189495   1.564   8.975  11.140
95866SOL    HW289496   1.493   9.057  11.246
95867SOL     OW89497   8.112   0.848   4.973
95867SOL    HW189498   8.133   0.784   4.905
95867SOL    HW289499   8.070   0.920   4.926
95868SOL     OW89500   4.246   5.072  13.009
95868SOL    HW189501   4.335   5.105  13.026
95868SOL    HW289502   4.256   4.977  13.004
95869SOL     OW89503   6.419   2.144   8.288
95869SOL    HW189504   6.457   2.232   8.295
95869SOL    HW289505   6.408   2.130   8.194
95870SOL     OW89506   1.022   7.921  14.231
95870SOL    HW189507   1.114   7.911  14.210
95870SOL    HW289508   0.982   7.952  14.149
95871SOL     OW89509   7.471  14.563   1.365
95871SOL    HW189510   7.429  14.569   1.279
95871SOL    HW289511   7.420  14.622   1.421
95872SOL     OW89512   4.614  14.048   9.977
95872SOL    HW189513   4.570  14.028  10.060
95872SOL    HW289514   4.542  14.062   9.915
95873SOL     OW89515  13.873   9.433   4.318
95873SOL    HW189516  13.913   9.353   4.286
95873SOL    HW289517  13.885   9.496   4.247
95874SOL     OW89518   1.623   8.391  11.455
95874SOL    HW189519   1.649   8.464  11.511
95874SOL    HW289520   1.629   8.426  11.366
95875SOL     OW89521  10.498   1.813   3.791
95875SOL    HW189522  10.504   1.718   3.794
95875SOL    HW289523  10.542   1.837   3.710
95876SOL     OW89524   2.376   1.941   7.083
95876SOL    HW189525   2.400   2.032   7.097
95876SOL    HW289526   2.345   1.911   7.168
95877SOL     OW89527   4.990   1.790   4.905
95877SOL    HW189528   5.045   1.863   4.876
95877SOL    HW289529   4.993   1.727   4.833
95878SOL     OW89530   0.554   4.333   2.775
95878SOL    HW189531   0.611   4.282   2.832
95878SOL    HW289532   0.557   4.289   2.690
95879SOL     OW89533   4.961   5.438  13.291
95879SOL    HW189534   5.027   5.379  13.327
95879SOL    HW289535   4.960   5.513  13.351
95880SOL     OW89536   4.370   7.408   1.546
95880SOL    HW189537   4.280   7.438   1.560
95880SOL    HW289538   4.422   7.464   1.603
95881SOL     OW89539   4.060   6.206   4.539
95881SOL    HW189540   4.128   6.151   4.579
95881SOL    HW289541   3.986   6.199   4.600
95882SOL     OW89542   9.096  12.645  11.223
95882SOL    HW189543   9.087  12.615  11.132
95882SOL    HW289544   9.082  12.566  11.275
95883SOL     OW89545   0.429   0.098  13.332
95883SOL    HW189546   0.425   0.154  13.254
95883SOL    HW289547   0.352   0.042  13.325
95884SOL     OW89548   6.923   5.149  10.022
95884SOL    HW189549   6.959   5.181  10.104
95884SOL    HW289550   6.829   5.158  10.032
95885SOL     OW89551   3.133   9.448  13.687
95885SOL    HW189552   3.130   9.465  13.781
95885SOL    HW289553   3.214   9.489  13.658
95886SOL     OW89554   2.387   8.640  11.407
95886SOL    HW189555   2.352   8.630  11.319
95886SOL    HW289556   2.373   8.733  11.428
95887SOL     OW89557   9.592  11.012   4.484
95887SOL    HW189558   9.591  10.920   4.512
95887SOL    HW289559   9.506  11.046   4.508
95888SOL     OW89560   7.206   3.199   9.809
95888SOL    HW189561   7.200   3.270   9.745
95888SOL    HW289562   7.214   3.244   9.894
95889SOL     OW89563   6.066   9.121   6.416
95889SOL    HW189564   6.076   9.140   6.322
95889SOL    HW289565   6.067   9.026   6.421
95890SOL     OW89566   1.092   7.002   3.988
95890SOL    HW189567   1.131   7.089   3.999
95890SOL    HW289568   1.152   6.943   4.034
95891SOL     OW89569  10.425  11.979   9.709
95891SOL    HW189570  10.431  12.008   9.800
95891SOL    HW289571  10.439  11.885   9.712
95892SOL     OW89572   6.089  11.574   8.484
95892SOL    HW189573   6.037  11.506   8.527
95892SOL    HW289574   6.054  11.656   8.519
95893SOL     OW89575   8.195  11.906  11.977
95893SOL    HW189576   8.208  11.989  11.930
95893SOL    HW289577   8.133  11.927  12.046
95894SOL     OW89578   4.934  14.800   0.411
95894SOL    HW189579   4.877  14.724   0.399
95894SOL    HW289580   4.941  14.810   0.506
95895SOL     OW89581  12.450   1.406  11.269
95895SOL    HW189582  12.477   1.364  11.188
95895SOL    HW289583  12.385   1.471  11.242
95896SOL     OW89584   0.008   5.184   5.212
95896SOL    HW189585   0.072   5.251   5.237
95896SOL    HW289586  14.811   5.229   5.216
95897SOL     OW89587   9.346   3.701   9.315
95897SOL    HW189588   9.411   3.752   9.266
95897SOL    HW289589   9.262   3.732   9.283
95898SOL     OW89590   8.648   1.261  10.195
95898SOL    HW189591   8.606   1.311  10.266
95898SOL    HW289592   8.742   1.274  10.209
95899SOL     OW89593  11.551   6.263  12.873
95899SOL    HW189594  11.619   6.283  12.808
95899SOL    HW289595  11.547   6.168  12.876
95900SOL     OW89596  14.603  12.768  10.849
95900SOL    HW189597  14.556  12.685  10.840
95900SOL    HW289598  14.601  12.806  10.761
95901SOL     OW89599   6.795   3.674   8.054
95901SOL    HW189600   6.767   3.676   8.146
95901SOL    HW289601   6.736   3.734   8.009
95902SOL     OW89602  11.253  10.746   3.597
95902SOL    HW189603  11.321  10.801   3.637
95902SOL    HW289604  11.233  10.788   3.514
95903SOL     OW89605   5.342   1.371   0.727
95903SOL    HW189606   5.306   1.452   0.763
95903SOL    HW289607   5.364   1.393   0.636
95904SOL     OW89608  10.073  10.506   5.197
95904SOL    HW189609  10.127  10.537   5.269
95904SOL    HW289610  10.057  10.413   5.217
95905SOL     OW89611   7.532   5.071  12.356
95905SOL    HW189612   7.487   4.986  12.364
95905SOL    HW289613   7.581   5.079  12.437
95906SOL     OW89614   3.599  10.501   1.167
95906SOL    HW189615   3.563  10.420   1.203
95906SOL    HW289616   3.652  10.538   1.238
95907SOL     OW89617   8.898   7.926  10.048
95907SOL    HW189618   8.911   7.889   9.960
95907SOL    HW289619   8.808   7.904  10.070
95908SOL     OW89620  10.783   5.575  13.828
95908SOL    HW189621  10.748   5.662  13.845
95908SOL    HW289622  10.864   5.572  13.879
95909SOL     OW89623   4.659   2.603   6.211
95909SOL    HW189624   4.622   2.565   6.132
95909SOL    HW289625   4.598   2.576   6.281
95910SOL     OW89626  10.440  13.732   4.903
95910SOL    HW189627  10.411  13.641   4.913
95910SOL    HW289628  10.462  13.739   4.810
95911SOL     OW89629  10.559   2.675   4.341
95911SOL    HW189630  10.512   2.751   4.376
95911SOL    HW289631  10.517   2.656   4.258
95912SOL     OW89632   8.197   4.153   2.649
95912SOL    HW189633   8.125   4.145   2.586
95912SOL    HW289634   8.268   4.102   2.611
95913SOL     OW89635   7.268   8.776   0.039
95913SOL    HW189636   7.270   8.866   0.072
95913SOL    HW289637   7.360   8.750   0.033
95914SOL     OW89638   1.338  10.116   3.530
95914SOL    HW189639   1.340  10.140   3.437
95914SOL    HW289640   1.424  10.140   3.564
95915SOL     OW89641   2.638  12.759   5.221
95915SOL    HW189642   2.579  12.731   5.151
95915SOL    HW289643   2.712  12.799   5.175
95916SOL     OW89644  12.054   4.863   1.849
95916SOL    HW189645  12.130   4.814   1.881
95916SOL    HW289646  11.979   4.812   1.878
95917SOL     OW89647   0.484   3.491  11.186
95917SOL    HW189648   0.563   3.537  11.214
95917SOL    HW289649   0.487   3.407  11.231
95918SOL     OW89650  10.178   8.300   2.571
95918SOL    HW189651  10.129   8.349   2.505
95918SOL    HW289652  10.238   8.364   2.609
95919SOL     OW89653  12.243   9.095   3.720
95919SOL    HW189654  12.293   9.013   3.723
95919SOL    HW289655  12.289   9.153   3.782
95920SOL     OW89656   4.308   9.783   0.324
95920SOL    HW189657   4.334   9.692   0.339
95920SOL    HW289658   4.252   9.780   0.247
95921SOL     OW89659  14.415   4.798   6.366
95921SOL    HW189660  14.507   4.805   6.392
95921SOL    HW289661  14.370   4.771   6.446
95922SOL     OW89662   1.981   6.747  13.040
95922SOL    HW189663   1.969   6.662  12.998
95922SOL    HW289664   1.897   6.792  13.027
95923SOL     OW89665   0.510   9.200   6.651
95923SOL    HW189666   0.547   9.113   6.643
95923SOL    HW289667   0.509   9.218   6.745
95924SOL     OW89668  10.311   7.784   9.448
95924SOL    HW189669  10.249   7.725   9.491
95924SOL    HW289670  10.386   7.728   9.426
95925SOL     OW89671  11.795   4.839  12.929
95925SOL    HW189672  11.707   4.801  12.935
95925SOL    HW289673  11.794   4.912  12.990
95926SOL     OW89674   3.893   1.858   8.063
95926SOL    HW189675   3.824   1.793   8.053
95926SOL    HW289676   3.973   1.807   8.077
95927SOL     OW89677  11.369   5.195   1.410
95927SOL    HW189678  11.306   5.234   1.349
95927SOL    HW289679  11.315   5.145   1.471
95928SOL     OW89680   4.940  14.409  10.749
95928SOL    HW189681   5.015  14.373  10.796
95928SOL    HW289682   4.901  14.334  10.704
95929SOL     OW89683  14.647   4.771   9.770
95929SOL    HW189684  14.721   4.739   9.821
95929SOL    HW289685  14.570   4.750   9.823
95930SOL     OW89686  12.703  14.049  13.707
95930SOL    HW189687  12.643  14.060  13.633
95930SOL    HW289688  12.674  13.968  13.750
95931SOL     OW89689   0.533   5.750   3.060
95931SOL    HW189690   0.518   5.759   3.154
95931SOL    HW289691   0.625   5.723   3.053
95932SOL     OW89692  12.142   9.720   4.460
95932SOL    HW189693  12.183   9.684   4.382
95932SOL    HW289694  12.121   9.811   4.437
95933SOL     OW89695   6.595   4.128  14.108
95933SOL    HW189696   6.534   4.185  14.155
95933SOL    HW289697   6.664   4.110  14.172
95934SOL     OW89698   1.419   0.030   4.873
95934SOL    HW189699   1.452  14.828   4.882
95934SOL    HW289700   1.429   0.050   4.780
95935SOL     OW89701   1.157   8.613   5.278
95935SOL    HW189702   1.198   8.592   5.362
95935SOL    HW289703   1.205   8.560   5.215
95936SOL     OW89704  11.958  11.172   0.601
95936SOL    HW189705  11.923  11.233   0.665
95936SOL    HW289706  11.896  11.175   0.528
95937SOL     OW89707  11.449  13.643   7.621
95937SOL    HW189708  11.394  13.588   7.676
95937SOL    HW289709  11.452  13.597   7.537
95938SOL     OW89710   7.363  11.925  12.840
95938SOL    HW189711   7.287  11.900  12.788
95938SOL    HW289712   7.328  11.984  12.907
95939SOL     OW89713  12.043   5.190   4.820
95939SOL    HW189714  12.022   5.097   4.812
95939SOL    HW289715  12.020   5.213   4.910
95940SOL     OW89716   1.673   4.367  11.417
95940SOL    HW189717   1.682   4.446  11.364
95940SOL    HW289718   1.648   4.299  11.354
95941SOL     OW89719  11.761  10.467   8.183
95941SOL    HW189720  11.666  10.467   8.172
95941SOL    HW289721  11.785  10.559   8.191
95942SOL     OW89722  12.145   1.109   3.571
95942SOL    HW189723  12.212   1.102   3.502
95942SOL    HW289724  12.065   1.079   3.529
95943SOL     OW89725   9.538   4.364   0.859
95943SOL    HW189726   9.592   4.367   0.938
95943SOL    HW289727   9.550   4.450   0.818
95944SOL     OW89728   3.592   3.154  11.361
95944SOL    HW189729   3.623   3.063  11.364
95944SOL    HW289730   3.653   3.201  11.419
95945SOL     OW89731  11.957   1.446   3.176
95945SOL    HW189732  11.949   1.408   3.263
95945SOL    HW289733  11.903   1.389   3.120
95946SOL     OW89734  10.069   9.269   1.992
95946SOL    HW189735  10.009   9.226   2.053
95946SOL    HW289736  10.025   9.351   1.968
95947SOL     OW89737  12.051  14.318   8.800
95947SOL    HW189738  12.017  14.378   8.866
95947SOL    HW289739  12.110  14.260   8.849
95948SOL     OW89740  14.078   3.610   9.616
95948SOL    HW189741  14.150   3.654   9.662
95948SOL    HW289742  14.068   3.526   9.661
95949SOL     OW89743  10.547  14.589   1.095
95949SOL    HW189744  10.481  14.604   1.164
95949SOL    HW289745  10.524  14.651   1.026
95950SOL     OW89746   2.196   2.534   0.813
95950SOL    HW189747   2.199   2.508   0.721
95950SOL    HW289748   2.194   2.451   0.861
95951SOL     OW89749   1.112  10.275  12.695
95951SOL    HW189750   1.022  10.261  12.724
95951SOL    HW289751   1.164  10.273  12.776
95952SOL     OW89752   1.729   7.754  13.152
95952SOL    HW189753   1.754   7.662  13.163
95952SOL    HW289754   1.671   7.772  13.226
95953SOL     OW89755   4.819  10.869   4.252
95953SOL    HW189756   4.775  10.818   4.184
95953SOL    HW289757   4.798  10.825   4.334
95954SOL     OW89758   9.214  13.575  13.496
95954SOL    HW189759   9.142  13.624  13.535
95954SOL    HW289760   9.195  13.575  13.403
95955SOL     OW89761   5.234  14.306   5.875
95955SOL    HW189762   5.282  14.224   5.883
95955SOL    HW289763   5.145  14.285   5.905
95956SOL     OW89764  12.705  12.326  10.370
95956SOL    HW189765  12.633  12.354  10.313
95956SOL    HW289766  12.680  12.356  10.457
95957SOL     OW89767  12.042   7.022  12.852
95957SOL    HW189768  12.002   6.943  12.817
95957SOL    HW289769  12.131   6.996  12.874
95958SOL     OW89770   9.200   0.281  11.846
95958SOL    HW189771   9.222   0.189  11.836
95958SOL    HW289772   9.273   0.319  11.893
95959SOL     OW89773  10.096  13.379   0.716
95959SOL    HW189774  10.130  13.371   0.805
95959SOL    HW289775  10.123  13.466   0.688
95960SOL     OW89776  11.773   0.226   3.522
95960SOL    HW189777  11.696   0.259   3.567
95960SOL    HW289778  11.773   0.132   3.540
95961SOL     OW89779  10.085   2.797   4.896
95961SOL    HW189780  10.102   2.704   4.913
95961SOL    HW289781   9.990   2.803   4.887
95962SOL     OW89782   8.290   4.424   7.305
95962SOL    HW189783   8.245   4.483   7.244
95962SOL    HW289784   8.241   4.342   7.300
95963SOL     OW89785  14.101   3.066  12.142
95963SOL    HW189786  14.160   3.006  12.096
95963SOL    HW289787  14.159   3.135  12.174
95964SOL     OW89788  10.584  14.462  12.618
95964SOL    HW189789  10.642  14.457  12.694
95964SOL    HW289790  10.642  14.457  12.543
95965SOL     OW89791  12.042  11.173   1.762
95965SOL    HW189792  12.132  11.167   1.793
95965SOL    HW289793  12.029  11.095   1.708
95966SOL     OW89794  11.124  14.020   7.067
95966SOL    HW189795  11.166  14.050   6.986
95966SOL    HW289796  11.197  13.992   7.122
95967SOL     OW89797   0.050   3.443   6.592
95967SOL    HW189798   0.135   3.404   6.613
95967SOL    HW289799   0.002   3.373   6.548
95968SOL     OW89800   9.010  13.583   9.873
95968SOL    HW189801   8.988  13.675   9.859
95968SOL    HW289802   9.016  13.574   9.969
95969SOL     OW89803   2.908   8.964   5.981
95969SOL    HW189804   2.918   9.003   6.069
95969SOL    HW289805   2.940   8.875   5.991
95970SOL     OW89806   2.648   7.341  10.999
95970SOL    HW189807   2.608   7.428  11.011
95970SOL    HW289808   2.646   7.302  11.086
95971SOL     OW89809   7.905   8.848   7.725
95971SOL    HW189810   7.844   8.778   7.747
95971SOL    HW289811   7.987   8.822   7.767
95972SOL     OW89812  13.154   6.750   2.146
95972SOL    HW189813  13.177   6.711   2.062
95972SOL    HW289814  13.237   6.752   2.195
95973SOL     OW89815   1.226   1.639   6.340
95973SOL    HW189816   1.209   1.688   6.420
95973SOL    HW289817   1.238   1.548   6.369
95974SOL     OW89818   2.064   4.523  13.203
95974SOL    HW189819   2.043   4.479  13.286
95974SOL    HW289820   2.149   4.563  13.217
95975SOL     OW89821  12.966   6.253  12.026
95975SOL    HW189822  12.935   6.324  11.970
95975SOL    HW289823  13.058   6.273  12.041
95976SOL     OW89824   9.516   2.241  11.205
95976SOL    HW189825   9.470   2.167  11.166
95976SOL    HW289826   9.498   2.314  11.146
95977SOL     OW89827  13.187   7.354   3.726
95977SOL    HW189828  13.230   7.421   3.780
95977SOL    HW289829  13.097   7.387   3.716
95978SOL     OW89830   6.307   7.569  11.411
95978SOL    HW189831   6.309   7.664  11.401
95978SOL    HW289832   6.273   7.537  11.327
95979SOL     OW89833  11.418  11.112  14.018
95979SOL    HW189834  11.376  11.026  14.010
95979SOL    HW289835  11.489  11.098  14.081
95980SOL     OW89836  13.338   3.522  11.580
95980SOL    HW189837  13.264   3.579  11.599
95980SOL    HW289838  13.409   3.582  11.558
95981SOL     OW89839  10.753   8.955   1.515
95981SOL    HW189840  10.752   8.859   1.508
95981SOL    HW289841  10.765   8.985   1.425
95982SOL     OW89842   0.800   3.683   5.529
95982SOL    HW189843   0.722   3.694   5.583
95982SOL    HW289844   0.797   3.757   5.468
95983SOL     OW89845   1.746   0.695   1.840
95983SOL    HW189846   1.675   0.759   1.843
95983SOL    HW289847   1.809   0.727   1.905
95984SOL     OW89848  12.550  14.820   9.148
95984SOL    HW189849  12.634  14.842   9.188
95984SOL    HW289850  12.521  14.742   9.195
95985SOL     OW89851  10.494   5.921  12.390
95985SOL    HW189852  10.587   5.941  12.398
95985SOL    HW289853  10.491   5.829  12.363
95986SOL     OW89854  14.445   4.040   6.847
95986SOL    HW189855  14.483   3.953   6.857
95986SOL    HW289856  14.503   4.085   6.785
95987SOL     OW89857   1.335  10.241  14.088
95987SOL    HW189858   1.350  10.306  14.157
95987SOL    HW289859   1.376  10.161  14.122
95988SOL     OW89860   3.650   1.469  13.328
95988SOL    HW189861   3.598   1.411  13.384
95988SOL    HW289862   3.662   1.548  13.381
95989SOL     OW89863  12.948   5.368   5.704
95989SOL    HW189864  12.917   5.289   5.748
95989SOL    HW289865  12.906   5.365   5.618
95990SOL     OW89866  11.485  11.641   1.234
95990SOL    HW189867  11.558  11.699   1.214
95990SOL    HW289868  11.429  11.692   1.292
95991SOL     OW89869   2.608   4.558   4.794
95991SOL    HW189870   2.521   4.519   4.784
95991SOL    HW289871   2.654   4.499   4.854
95992SOL     OW89872  14.268   0.124   8.010
95992SOL    HW189873  14.184   0.104   7.969
95992SOL    HW289874  14.251   0.202   8.063
95993SOL     OW89875   3.205   8.238  10.058
95993SOL    HW189876   3.127   8.183  10.066
95993SOL    HW289877   3.221   8.270  10.146
95994SOL     OW89878   0.974   4.081  13.066
95994SOL    HW189879   0.948   4.151  13.006
95994SOL    HW289880   0.932   4.104  13.149
95995SOL     OW89881  10.626   2.733  11.673
95995SOL    HW189882  10.627   2.799  11.742
95995SOL    HW289883  10.660   2.654  11.715
95996SOL     OW89884  11.507  10.414   6.518
95996SOL    HW189885  11.533  10.437   6.607
95996SOL    HW289886  11.563  10.468   6.462
95997SOL     OW89887  13.940   7.040  10.036
95997SOL    HW189888  13.914   6.970   9.976
95997SOL    HW289889  13.938   7.000  10.123
95998SOL     OW89890  13.679  13.864   7.223
95998SOL    HW189891  13.736  13.788   7.214
95998SOL    HW289892  13.606  13.847   7.163
95999SOL     OW89893   1.909   9.345  14.737
95999SOL    HW189894   1.818   9.358  14.762
95999SOL    HW289895   1.926   9.412  14.670
96000SOL     OW89896   9.506  10.879  14.708
96000SOL    HW189897   9.568  10.919  14.647
96000SOL    HW289898   9.485  10.948  14.770
96001SOL     OW89899  13.693   6.396   6.508
96001SOL    HW189900  13.615   6.450   6.518
96001SOL    HW289901  13.700   6.348   6.591
96002SOL     OW89902   3.014  12.977   5.193
96002SOL    HW189903   3.090  12.947   5.143
96002SOL    HW289904   3.048  12.996   5.281
96003SOL     OW89905   4.444   7.885   1.404
96003SOL    HW189906   4.362   7.846   1.432
96003SOL    HW289907   4.470   7.942   1.477
96004SOL     OW89908  10.211   7.661   7.140
96004SOL    HW189909  10.176   7.585   7.093
96004SOL    HW289910  10.305   7.660   7.121
96005SOL     OW89911   7.944   9.479  13.011
96005SOL    HW189912   7.890   9.470  13.090
96005SOL    HW289913   7.913   9.410  12.953
96006SOL     OW89914   0.678   4.098   0.645
96006SOL    HW189915   0.702   4.042   0.718
96006SOL    HW289916   0.649   4.180   0.685
96007SOL     OW89917   0.710   9.672   4.726
96007SOL    HW189918   0.765   9.685   4.648
96007SOL    HW289919   0.620   9.674   4.692
96008SOL     OW89920  10.468  11.757  12.017
96008SOL    HW189921  10.387  11.763  12.068
96008SOL    HW289922  10.499  11.847  12.009
96009SOL     OW89923   8.386   7.770   4.688
96009SOL    HW189924   8.448   7.697   4.684
96009SOL    HW289925   8.354   7.771   4.778
96010SOL     OW89926   4.579   5.610  13.024
96010SOL    HW189927   4.596   5.576  12.936
96010SOL    HW289928   4.661   5.597  13.071
96011SOL     OW89929  13.947   6.125   1.403
96011SOL    HW189930  13.969   6.189   1.470
96011SOL    HW289931  13.998   6.047   1.425
96012SOL     OW89932  11.855   9.234   1.046
96012SOL    HW189933  11.809   9.309   1.083
96012SOL    HW289934  11.923   9.214   1.110
96013SOL     OW89935   9.617   7.546   9.703
96013SOL    HW189936   9.643   7.598   9.627
96013SOL    HW289937   9.617   7.456   9.672
96014SOL     OW89938   9.300   7.395   7.882
96014SOL    HW189939   9.299   7.440   7.797
96014SOL    HW289940   9.359   7.447   7.936
96015SOL     OW89941   5.573   9.192  10.226
96015SOL    HW189942   5.614   9.277  10.240
96015SOL    HW289943   5.583   9.146  10.309
96016SOL     OW89944   4.963   4.674   4.164
96016SOL    HW189945   4.984   4.584   4.140
96016SOL    HW289946   4.962   4.674   4.260
96017SOL     OW89947   8.863   9.132  13.873
96017SOL    HW189948   8.768   9.121  13.863
96017SOL    HW289949   8.881   9.219  13.836
96018SOL     OW89950   1.995   2.375   4.449
96018SOL    HW189951   1.994   2.421   4.365
96018SOL    HW289952   2.076   2.403   4.491
96019SOL     OW89953   5.037   2.062   3.065
96019SOL    HW189954   5.131   2.048   3.078
96019SOL    HW289955   5.008   2.103   3.147
96020SOL     OW89956   5.453   4.923  12.756
96020SOL    HW189957   5.473   5.013  12.732
96020SOL    HW289958   5.386   4.930  12.823
96021SOL     OW89959   1.905   2.237   0.422
96021SOL    HW189960   1.994   2.211   0.446
96021SOL    HW289961   1.896   2.209   0.331
96022SOL     OW89962   5.621   4.475   9.217
96022SOL    HW189963   5.597   4.556   9.172
96022SOL    HW289964   5.538   4.439   9.249
96023SOL     OW89965  14.750   7.309  14.675
96023SOL    HW189966  14.700   7.318  14.593
96023SOL    HW289967  14.687   7.326  14.744
96024SOL     OW89968   4.746   2.717  10.739
96024SOL    HW189969   4.686   2.645  10.761
96024SOL    HW289970   4.698   2.796  10.763
96025SOL     OW89971   5.738   9.507  13.129
96025SOL    HW189972   5.734   9.412  13.135
96025SOL    HW289973   5.812   9.524  13.070
96026SOL     OW89974  10.564   4.890   8.019
96026SOL    HW189975  10.562   4.854   8.107
96026SOL    HW289976  10.657   4.889   7.995
96027SOL     OW89977  14.749   6.809   2.621
96027SOL    HW189978  14.748   6.897   2.658
96027SOL    HW289979  14.825   6.807   2.563
96028SOL     OW89980   5.475  12.381   9.014
96028SOL    HW189981   5.419  12.406   9.088
96028SOL    HW289982   5.538  12.453   9.006
96029SOL     OW89983  12.873   3.676   8.545
96029SOL    HW189984  12.919   3.724   8.615
96029SOL    HW289985  12.783   3.668   8.577
96030SOL     OW89986   7.739   7.678   7.062
96030SOL    HW189987   7.805   7.617   7.029
96030SOL    HW289988   7.784   7.729   7.129
96031SOL     OW89989   9.617   5.541   7.040
96031SOL    HW189990   9.669   5.512   6.965
96031SOL    HW289991   9.659   5.501   7.116
96032SOL     OW89992   2.893   1.448  11.834
96032SOL    HW189993   2.987   1.435  11.847
96032SOL    HW289994   2.874   1.401  11.752
96033SOL     OW89995   7.288   8.322  14.585
96033SOL    HW189996   7.356   8.282  14.639
96033SOL    HW289997   7.210   8.320  14.640
96034SOL     OW89998   0.907  13.789   8.535
96034SOL    HW189999   0.823  13.772   8.494
96034SOL    HW290000   0.887  13.840   8.613
96035SOL     OW90001   2.973   8.529   8.977
96035SOL    HW190002   3.058   8.493   8.951
96035SOL    HW290003   2.977   8.620   8.948
96036SOL     OW90004   5.414   9.773  11.818
96036SOL    HW190005   5.376   9.808  11.899
96036SOL    HW290006   5.421   9.679  11.833
96037SOL     OW90007   8.518   2.467   5.377
96037SOL    HW190008   8.423   2.457   5.389
96037SOL    HW290009   8.549   2.501   5.461
96038SOL     OW90010   3.487   0.043   2.129
96038SOL    HW190011   3.530  14.873   2.065
96038SOL    HW290012   3.437  14.870   2.184
96039SOL     OW90013   6.861   2.230   9.398
96039SOL    HW190014   6.883   2.141   9.427
96039SOL    HW290015   6.852   2.222   9.303
96040SOL     OW90016   0.402   6.818   3.888
96040SOL    HW190017   0.328   6.759   3.899
96040SOL    HW290018   0.391   6.855   3.800
96041SOL     OW90019  11.503   8.996  10.827
96041SOL    HW190020  11.425   9.016  10.880
96041SOL    HW290021  11.524   9.079  10.784
96042SOL     OW90022  13.520   7.098   4.288
96042SOL    HW190023  13.591   7.036   4.271
96042SOL    HW290024  13.440   7.044   4.285
96043SOL     OW90025  14.671   4.655   2.471
96043SOL    HW190026  14.714   4.695   2.396
96043SOL    HW290027  14.715   4.694   2.547
96044SOL     OW90028  12.374  12.194   0.268
96044SOL    HW190029  12.443  12.261   0.270
96044SOL    HW290030  12.390  12.142   0.347
96045SOL     OW90031   8.792   6.664   3.354
96045SOL    HW190032   8.850   6.679   3.428
96045SOL    HW290033   8.716   6.720   3.371
96046SOL     OW90034   5.093   8.881  14.764
96046SOL    HW190035   5.071   8.914  14.851
96046SOL    HW290036   5.040   8.801  14.754
96047SOL     OW90037   2.784  13.417   9.832
96047SOL    HW190038   2.796  13.323   9.820
96047SOL    HW290039   2.834  13.456   9.761
96048SOL     OW90040  14.050   3.812   7.894
96048SOL    HW190041  14.038   3.809   7.799
96048SOL    HW290042  14.074   3.903   7.913
96049SOL     OW90043  11.573   1.378   3.923
96049SOL    HW190044  11.581   1.470   3.899
96049SOL    HW290045  11.653   1.359   3.972
96050SOL     OW90046  11.709   6.802   0.172
96050SOL    HW190047  11.793   6.842   0.193
96050SOL    HW290048  11.701   6.811   0.077
96051SOL     OW90049  10.212   3.113  13.116
96051SOL    HW190050  10.267   3.045  13.078
96051SOL    HW290051  10.130   3.108  13.067
96052SOL     OW90052   5.317   5.771  10.929
96052SOL    HW190053   5.343   5.718  10.854
96052SOL    HW290054   5.257   5.836  10.893
96053SOL     OW90055   0.910  14.641   7.684
96053SOL    HW190056   0.947  14.553   7.677
96053SOL    HW290057   0.986  14.698   7.695
96054SOL     OW90058  12.645   9.355   0.183
96054SOL    HW190059  12.697   9.357   0.264
96054SOL    HW290060  12.603   9.269   0.184
96055SOL     OW90061   8.150   8.111  12.314
96055SOL    HW190062   8.125   8.149  12.230
96055SOL    HW290063   8.222   8.166  12.344
96056SOL     OW90064   7.546   5.558   4.257
96056SOL    HW190065   7.579   5.643   4.228
96056SOL    HW290066   7.624   5.501   4.256
96057SOL     OW90067  10.085   6.210  12.296
96057SOL    HW190068  10.138   6.131  12.285
96057SOL    HW290069  10.016   6.184  12.358
96058SOL     OW90070   9.663  13.927  12.549
96058SOL    HW190071   9.658  13.936  12.454
96058SOL    HW290072   9.584  13.969  12.581
96059SOL     OW90073  10.972   2.512  14.871
96059SOL    HW190074  11.008   2.600  14.866
96059SOL    HW290075  10.888   2.523   0.028
96060SOL     OW90076   4.870   0.487   9.119
96060SOL    HW190077   4.919   0.546   9.061
96060SOL    HW290078   4.923   0.482   9.198
96061SOL     OW90079   3.323  14.000   8.202
96061SOL    HW190080   3.401  13.948   8.220
96061SOL    HW290081   3.339  14.039   8.116
96062SOL     OW90082   7.806   1.193  13.362
96062SOL    HW190083   7.835   1.190  13.271
96062SOL    HW290084   7.727   1.138  13.363
96063SOL     OW90085   0.112   4.685   3.518
96063SOL    HW190086   0.041   4.683   3.455
96063SOL    HW290087   0.188   4.717   3.469
96064SOL     OW90088  10.333  14.140  13.385
96064SOL    HW190089  10.346  14.187  13.467
96064SOL    HW290090  10.322  14.209  13.319
96065SOL     OW90091   1.653  14.229   1.495
96065SOL    HW190092   1.584  14.170   1.526
96065SOL    HW290093   1.635  14.240   1.402
96066SOL     OW90094  14.788   7.181   8.097
96066SOL    HW190095  14.752   7.146   8.179
96066SOL    HW290096  14.725   7.249   8.071
96067SOL     OW90097  12.464  12.684   7.174
96067SOL    HW190098  12.369  12.690   7.186
96067SOL    HW290099  12.499  12.760   7.220
96068SOL     OW90100   6.617  12.455   0.577
96068SOL    HW190101   6.588  12.533   0.531
96068SOL    HW290102   6.672  12.409   0.514
96069SOL     OW90103   1.099  10.401   3.810
96069SOL    HW190104   1.028  10.412   3.748
96069SOL    HW290105   1.179  10.414   3.758
96070SOL     OW90106  13.479   5.844   6.298
96070SOL    HW190107  13.530   5.844   6.379
96070SOL    HW290108  13.400   5.794   6.320
96071SOL     OW90109   8.461  13.591  13.596
96071SOL    HW190110   8.432  13.606  13.686
96071SOL    HW290111   8.406  13.649  13.543
96072SOL     OW90112   3.564   6.542   9.032
96072SOL    HW190113   3.611   6.609   8.981
96072SOL    HW290114   3.525   6.486   8.965
96073SOL     OW90115   2.364   9.900   5.941
96073SOL    HW190116   2.367   9.982   5.989
96073SOL    HW290117   2.282   9.858   5.969
96074SOL     OW90118  14.608   1.887   3.337
96074SOL    HW190119  14.599   1.966   3.283
96074SOL    HW290120  14.638   1.920   3.422
96075SOL     OW90121   7.335   7.693   2.629
96075SOL    HW190122   7.311   7.606   2.597
96075SOL    HW290123   7.430   7.691   2.634
96076SOL     OW90124   6.107   3.356  12.683
96076SOL    HW190125   6.027   3.404  12.661
96076SOL    HW290126   6.178   3.416  12.661
96077SOL     OW90127  12.672  11.800  10.169
96077SOL    HW190128  12.693  11.833  10.081
96077SOL    HW290129  12.645  11.877  10.218
96078SOL     OW90130  11.753   5.542   7.673
96078SOL    HW190131  11.693   5.524   7.601
96078SOL    HW290132  11.726   5.629   7.705
96079SOL     OW90133  11.787   4.802  12.629
96079SOL    HW190134  11.853   4.734  12.617
96079SOL    HW290135  11.806   4.840  12.714
96080SOL     OW90136  11.554   5.798  11.259
96080SOL    HW190137  11.488   5.729  11.263
96080SOL    HW290138  11.543   5.846  11.341
96081SOL     OW90139  11.042   7.886  10.667
96081SOL    HW190140  11.050   7.975  10.633
96081SOL    HW290141  10.962   7.852  10.628
96082SOL     OW90142  13.731   5.521   6.434
96082SOL    HW190143  13.701   5.499   6.522
96082SOL    HW290144  13.708   5.444   6.381
96083SOL     OW90145   6.961  13.823   5.098
96083SOL    HW190146   7.021  13.821   5.172
96083SOL    HW290147   7.002  13.767   5.032
96084SOL     OW90148   3.733   8.771  14.504
96084SOL    HW190149   3.702   8.744  14.418
96084SOL    HW290150   3.657   8.813  14.545
96085SOL     OW90151   1.417   6.207   6.675
96085SOL    HW190152   1.392   6.124   6.716
96085SOL    HW290153   1.467   6.252   6.743
96086SOL     OW90154   8.568   1.799   2.636
96086SOL    HW190155   8.515   1.751   2.699
96086SOL    HW290156   8.572   1.888   2.670
96087SOL     OW90157   1.190  10.918   8.956
96087SOL    HW190158   1.204  11.011   8.936
96087SOL    HW290159   1.232  10.872   8.882
96088SOL     OW90160   8.852   2.952  10.709
96088SOL    HW190161   8.771   2.995  10.679
96088SOL    HW290162   8.835   2.930  10.801
96089SOL     OW90163  14.392   9.313   0.651
96089SOL    HW190164  14.323   9.332   0.715
96089SOL    HW290165  14.361   9.352   0.569
96090SOL     OW90166   9.372   6.402   8.775
96090SOL    HW190167   9.392   6.313   8.803
96090SOL    HW290168   9.361   6.395   8.680
96091SOL     OW90169  10.089   5.642  11.095
96091SOL    HW190170  10.037   5.577  11.143
96091SOL    HW290171  10.024   5.698  11.053
96092SOL     OW90172  14.135   2.275   7.254
96092SOL    HW190173  14.141   2.186   7.289
96092SOL    HW290174  14.041   2.290   7.244
96093SOL     OW90175   5.722   2.569   2.001
96093SOL    HW190176   5.811   2.600   2.020
96093SOL    HW290177   5.717   2.568   1.906
96094SOL     OW90178  14.201  14.241   1.041
96094SOL    HW190179  14.107  14.233   1.056
96094SOL    HW290180  14.217  14.194   0.959
96095SOL     OW90181  13.414   2.276   7.347
96095SOL    HW190182  13.344   2.247   7.405
96095SOL    HW290183  13.488   2.218   7.368
96096SOL     OW90184   9.991   9.793   7.329
96096SOL    HW190185  10.006   9.822   7.419
96096SOL    HW290186   9.986   9.698   7.335
96097SOL     OW90187   4.600   5.679   2.439
96097SOL    HW190188   4.616   5.640   2.353
96097SOL    HW290189   4.651   5.625   2.499
96098SOL     OW90190   9.330   7.447   4.557
96098SOL    HW190191   9.409   7.501   4.566
96098SOL    HW290192   9.310   7.419   4.646
96099SOL     OW90193  14.834  10.711  13.976
96099SOL    HW190194   0.008  10.757  13.919
96099SOL    HW290195  14.872  10.625  13.989
96100SOL     OW90196   2.983  13.889  10.944
96100SOL    HW190197   2.994  13.795  10.961
96100SOL    HW290198   3.062  13.929  10.980
96101SOL     OW90199  14.655   7.426   8.057
96101SOL    HW190200  14.575   7.462   8.094
96101SOL    HW290201  14.720   7.495   8.068
96102SOL     OW90202   1.425   0.512  11.506
96102SOL    HW190203   1.353   0.512  11.443
96102SOL    HW290204   1.456   0.422  11.507
96103SOL     OW90205   6.793  10.273  11.175
96103SOL    HW190206   6.817  10.305  11.262
96103SOL    HW290207   6.800  10.349  11.118
96104SOL     OW90208   7.919   9.142   9.576
96104SOL    HW190209   7.859   9.112   9.508
96104SOL    HW290210   7.996   9.086   9.567
96105SOL     OW90211   1.041  13.214  13.603
96105SOL    HW190212   0.992  13.177  13.676
96105SOL    HW290213   0.997  13.297  13.584
96106SOL     OW90214   5.647   9.204   0.288
96106SOL    HW190215   5.620   9.258   0.214
96106SOL    HW290216   5.579   9.219   0.354
96107SOL     OW90217   1.462   9.123  10.385
96107SOL    HW190218   1.542   9.140  10.434
96107SOL    HW290219   1.493   9.085  10.303
96108SOL     OW90220   2.544  14.492   7.362
96108SOL    HW190221   2.468  14.435   7.368
96108SOL    HW290222   2.521  14.569   7.414
96109SOL     OW90223   7.646   7.586   4.963
96109SOL    HW190224   7.567   7.566   4.912
96109SOL    HW290225   7.702   7.510   4.952
96110SOL     OW90226   8.579   8.303  11.989
96110SOL    HW190227   8.567   8.393  12.020
96110SOL    HW290228   8.658   8.273  12.033
96111SOL     OW90229  10.381   6.460   8.354
96111SOL    HW190230  10.456   6.442   8.411
96111SOL    HW290231  10.318   6.391   8.372
96112SOL     OW90232   1.791   2.054   1.343
96112SOL    HW190233   1.833   2.124   1.393
96112SOL    HW290234   1.836   2.054   1.258
96113SOL     OW90235   1.360   8.133   3.261
96113SOL    HW190236   1.344   8.219   3.299
96113SOL    HW290237   1.373   8.150   3.167
96114SOL     OW90238   7.570   4.042  10.018
96114SOL    HW190239   7.509   4.008   9.952
96114SOL    HW290240   7.620   4.109   9.972
96115SOL     OW90241   8.735  14.820   9.125
96115SOL    HW190242   8.715  14.741   9.075
96115SOL    HW290243   8.710  14.799   9.215
96116SOL     OW90244  14.268   1.052  12.915
96116SOL    HW190245  14.292   1.115  12.983
96116SOL    HW290246  14.342   1.052  12.855
96117SOL     OW90247   0.836  12.326  10.578
96117SOL    HW190248   0.928  12.332  10.551
96117SOL    HW290249   0.808  12.238  10.550
96118SOL     OW90250   8.841  11.443   6.937
96118SOL    HW190251   8.873  11.363   6.895
96118SOL    HW290252   8.877  11.514   6.883
96119SOL     OW90253   4.458  10.936   3.941
96119SOL    HW190254   4.482  10.990   3.866
96119SOL    HW290255   4.371  10.967   3.966
96120SOL     OW90256   8.299   3.920  12.920
96120SOL    HW190257   8.336   3.870  12.993
96120SOL    HW290258   8.206   3.927  12.941
96121SOL     OW90259  11.070   3.782  10.586
96121SOL    HW190260  11.161   3.800  10.565
96121SOL    HW290261  11.023   3.791  10.504
96122SOL     OW90262   7.834   0.380   5.323
96122SOL    HW190263   7.805   0.340   5.405
96122SOL    HW290264   7.753   0.398   5.275
96123SOL     OW90265   2.280   5.218   2.434
96123SOL    HW190266   2.302   5.311   2.428
96123SOL    HW290267   2.249   5.206   2.524
96124SOL     OW90268   6.294   1.864  13.905
96124SOL    HW190269   6.261   1.877  13.994
96124SOL    HW290270   6.277   1.947  13.860
96125SOL     OW90271   9.894  11.474  10.412
96125SOL    HW190272   9.853  11.392  10.384
96125SOL    HW290273   9.986  11.464  10.386
96126SOL     OW90274   3.684   7.183  13.261
96126SOL    HW190275   3.616   7.199  13.327
96126SOL    HW290276   3.743   7.258  13.270
96127SOL     OW90277   9.310  12.046   6.942
96127SOL    HW190278   9.232  12.101   6.934
96127SOL    HW290279   9.322  12.008   6.855
96128SOL     OW90280   7.043   9.872   5.886
96128SOL    HW190281   6.969   9.914   5.844
96128SOL    HW290282   7.120   9.913   5.846
96129SOL     OW90283   4.714   3.781   6.603
96129SOL    HW190284   4.645   3.842   6.576
96129SOL    HW290285   4.677   3.694   6.587
96130SOL     OW90286   4.727   5.158  10.614
96130SOL    HW190287   4.757   5.246  10.594
96130SOL    HW290288   4.779   5.101  10.557
96131SOL     OW90289   7.012  10.979   6.750
96131SOL    HW190290   7.039  11.042   6.816
96131SOL    HW290291   7.094  10.948   6.711
96132SOL     OW90292   2.621  11.462   3.887
96132SOL    HW190293   2.618  11.536   3.947
96132SOL    HW290294   2.658  11.390   3.939
96133SOL     OW90295  12.884  13.673   3.806
96133SOL    HW190296  12.864  13.580   3.797
96133SOL    HW290297  12.942  13.692   3.732
96134SOL     OW90298  11.185   1.093   3.847
96134SOL    HW190299  11.125   1.054   3.911
96134SOL    HW290300  11.272   1.080   3.884
96135SOL     OW90301   5.357   8.980   9.622
96135SOL    HW190302   5.294   9.050   9.605
96135SOL    HW290303   5.391   8.958   9.535
96136SOL     OW90304  13.349  13.425   0.640
96136SOL    HW190305  13.337  13.338   0.603
96136SOL    HW290306  13.280  13.432   0.706
96137SOL     OW90307   3.446  10.071   6.758
96137SOL    HW190308   3.419  10.150   6.711
96137SOL    HW290309   3.534  10.052   6.725
96138SOL     OW90310   0.739  13.813   9.911
96138SOL    HW190311   0.646  13.802   9.928
96138SOL    HW290312   0.782  13.746   9.965
96139SOL     OW90313  11.888   7.549   7.143
96139SOL    HW190314  11.945   7.534   7.067
96139SOL    HW290315  11.827   7.616   7.114
96140SOL     OW90316   2.111   4.981  14.249
96140SOL    HW190317   2.120   4.927  14.170
96140SOL    HW290318   2.066   5.060  14.219
96141SOL     OW90319  13.794  14.884  10.738
96141SOL    HW190320  13.812   0.040  10.821
96141SOL    HW290321  13.752  14.801  10.762
96142SOL     OW90322   8.648  14.357   1.117
96142SOL    HW190323   8.565  14.400   1.140
96142SOL    HW290324   8.711  14.392   1.180
96143SOL     OW90325  14.663   5.389   7.701
96143SOL    HW190326  14.730   5.405   7.768
96143SOL    HW290327  14.592   5.346   7.749
96144SOL     OW90328   2.818  10.309   8.818
96144SOL    HW190329   2.760  10.254   8.871
96144SOL    HW290330   2.890  10.252   8.793
96145SOL     OW90331   0.442   8.168   5.225
96145SOL    HW190332   0.496   8.192   5.150
96145SOL    HW290333   0.436   8.072   5.221
96146SOL     OW90334   9.114  13.733   3.438
96146SOL    HW190335   9.072  13.675   3.376
96146SOL    HW290336   9.159  13.675   3.500
96147SOL     OW90337   6.595   4.248  10.476
96147SOL    HW190338   6.539   4.187  10.525
96147SOL    HW290339   6.640   4.193  10.412
96148SOL     OW90340   8.199   1.164   6.263
96148SOL    HW190341   8.237   1.232   6.318
96148SOL    HW290342   8.123   1.133   6.312
96149SOL     OW90343   2.703   9.389  12.198
96149SOL    HW190344   2.755   9.334  12.256
96149SOL    HW290345   2.755   9.396  12.118
96150SOL     OW90346   4.322   3.075   1.296
96150SOL    HW190347   4.350   3.089   1.386
96150SOL    HW290348   4.240   3.122   1.288
96151SOL     OW90349   7.647   6.543   8.336
96151SOL    HW190350   7.677   6.633   8.321
96151SOL    HW290351   7.683   6.519   8.421
96152SOL     OW90352   0.180   5.813   2.874
96152SOL    HW190353   0.143   5.830   2.787
96152SOL    HW290354   0.228   5.892   2.896
96153SOL     OW90355   5.074   8.049   6.323
96153SOL    HW190356   5.148   8.024   6.379
96153SOL    HW290357   5.010   7.979   6.334
96154SOL     OW90358  10.885   9.270   6.155
96154SOL    HW190359  10.964   9.258   6.207
96154SOL    HW290360  10.916   9.296   6.069
96155SOL     OW90361   5.099   9.969   1.619
96155SOL    HW190362   5.036   9.999   1.554
96155SOL    HW290363   5.089   9.873   1.620
96156SOL     OW90364  13.729   1.047   0.128
96156SOL    HW190365  13.675   1.018   0.054
96156SOL    HW290366  13.773   0.968   0.158
96157SOL     OW90367   4.502   8.833   2.358
96157SOL    HW190368   4.469   8.920   2.334
96157SOL    HW290369   4.587   8.827   2.312
96158SOL     OW90370   8.775   1.450   4.975
96158SOL    HW190371   8.726   1.402   5.041
96158SOL    HW290372   8.765   1.397   4.895
96159SOL     OW90373   3.050   4.840   8.218
96159SOL    HW190374   3.049   4.864   8.126
96159SOL    HW290375   3.098   4.757   8.221
96160SOL     OW90376   5.175   4.829   3.762
96160SOL    HW190377   5.186   4.911   3.713
96160SOL    HW290378   5.082   4.827   3.784
96161SOL     OW90379   3.041  14.506   3.463
96161SOL    HW190380   3.059  14.585   3.412
96161SOL    HW290381   3.127  14.478   3.495
96162SOL     OW90382  10.321   7.558  11.613
96162SOL    HW190383  10.327   7.525  11.702
96162SOL    HW290384  10.295   7.481  11.561
96163SOL     OW90385   7.842   6.335   3.640
96163SOL    HW190386   7.879   6.314   3.554
96163SOL    HW290387   7.906   6.392   3.681
96164SOL     OW90388   4.596   6.538   7.855
96164SOL    HW190389   4.594   6.617   7.910
96164SOL    HW290390   4.652   6.477   7.902
96165SOL     OW90391   8.103   9.609   4.233
96165SOL    HW190392   8.072   9.530   4.277
96165SOL    HW290393   8.024   9.648   4.195
96166SOL     OW90394  10.517  11.289   4.924
96166SOL    HW190395  10.556  11.369   4.889
96166SOL    HW290396  10.541  11.288   5.016
96167SOL     OW90397   0.232   5.218   1.520
96167SOL    HW190398   0.297   5.257   1.578
96167SOL    HW290399   0.187   5.292   1.480
96168SOL     OW90400   1.790   3.797   2.989
96168SOL    HW190401   1.746   3.734   3.046
96168SOL    HW290402   1.726   3.815   2.920
96169SOL     OW90403  14.184  13.163   6.257
96169SOL    HW190404  14.141  13.133   6.337
96169SOL    HW290405  14.277  13.142   6.270
96170SOL     OW90406  13.464   7.953   0.886
96170SOL    HW190407  13.517   7.910   0.954
96170SOL    HW290408  13.374   7.949   0.920
96171SOL     OW90409   1.277   9.701   2.088
96171SOL    HW190410   1.295   9.754   2.010
96171SOL    HW290411   1.185   9.717   2.108
96172SOL     OW90412   5.651   0.345   5.020
96172SOL    HW190413   5.629   0.288   4.946
96172SOL    HW290414   5.618   0.298   5.097
96173SOL     OW90415  11.774   9.949  10.241
96173SOL    HW190416  11.839   9.922  10.306
96173SOL    HW290417  11.690   9.920  10.277
96174SOL     OW90418   9.418   4.199  14.774
96174SOL    HW190419   9.357   4.251  14.826
96174SOL    HW290420   9.375   4.114  14.765
96175SOL     OW90421   6.262  10.893  11.438
96175SOL    HW190422   6.206  10.963  11.407
96175SOL    HW290423   6.350  10.918  11.410
96176SOL     OW90424   8.722   6.817  10.695
96176SOL    HW190425   8.709   6.732  10.736
96176SOL    HW290426   8.633   6.851  10.683
96177SOL     OW90427   0.979   3.356   6.555
96177SOL    HW190428   1.035   3.373   6.479
96177SOL    HW290429   0.919   3.430   6.558
96178SOL     OW90430   7.776   9.819   9.690
96178SOL    HW190431   7.702   9.859   9.644
96178SOL    HW290432   7.775   9.860   9.777
96179SOL     OW90433   3.255   9.865  14.130
96179SOL    HW190434   3.228   9.947  14.087
96179SOL    HW290435   3.176   9.811  14.128
96180SOL     OW90436   8.187   2.447  11.956
96180SOL    HW190437   8.254   2.512  11.934
96180SOL    HW290438   8.105   2.496  11.955
96181SOL     OW90439   9.532   6.607   2.351
96181SOL    HW190440   9.542   6.534   2.413
96181SOL    HW290441   9.509   6.682   2.405
96182SOL     OW90442  12.867   2.087  10.920
96182SOL    HW190443  12.935   2.025  10.947
96182SOL    HW290444  12.914   2.159  10.878
96183SOL     OW90445   6.424   4.259  12.509
96183SOL    HW190446   6.355   4.292  12.451
96183SOL    HW290447   6.430   4.166  12.488
96184SOL     OW90448   8.035   3.952  13.021
96184SOL    HW190449   8.002   3.863  13.009
96184SOL    HW290450   7.956   4.005  13.035
96185SOL     OW90451  14.630   5.406  12.220
96185SOL    HW190452  14.606   5.317  12.192
96185SOL    HW290453  14.572   5.424  12.293
96186SOL     OW90454  13.056  12.347   0.153
96186SOL    HW190455  12.975  12.372   0.198
96186SOL    HW290456  13.059  12.403   0.076
96187SOL     OW90457   4.178   7.614   4.407
96187SOL    HW190458   4.251   7.611   4.469
96187SOL    HW290459   4.117   7.547   4.439
96188SOL     OW90460  13.011  11.993  13.806
96188SOL    HW190461  12.918  11.995  13.782
96188SOL    HW290462  13.013  11.943  13.887
96189SOL     OW90463   1.724   7.726   7.456
96189SOL    HW190464   1.646   7.760   7.413
96189SOL    HW290465   1.740   7.786   7.528
96190SOL     OW90466   7.605  13.297   1.785
96190SOL    HW190467   7.556  13.218   1.767
96190SOL    HW290468   7.614  13.298   1.881
96191SOL     OW90469   5.100  12.761   1.812
96191SOL    HW190470   5.177  12.739   1.864
96191SOL    HW290471   5.029  12.766   1.875
96192SOL     OW90472   9.089   5.446   5.170
96192SOL    HW190473   9.073   5.516   5.106
96192SOL    HW290474   9.158   5.481   5.226
96193SOL     OW90475   4.417   3.670   6.656
96193SOL    HW190476   4.485   3.603   6.651
96193SOL    HW290477   4.348   3.639   6.597
96194SOL     OW90478   9.452   6.509   4.845
96194SOL    HW190479   9.416   6.432   4.889
96194SOL    HW290480   9.511   6.548   4.909
96195SOL     OW90481  13.072   7.806   0.252
96195SOL    HW190482  13.056   7.821   0.345
96195SOL    HW290483  13.024   7.724   0.233
96196SOL     OW90484   3.634   0.376   3.497
96196SOL    HW190485   3.699   0.307   3.480
96196SOL    HW290486   3.595   0.351   3.581
96197SOL     OW90487   1.220   7.734   7.493
96197SOL    HW190488   1.188   7.814   7.536
96197SOL    HW290489   1.153   7.714   7.427
96198SOL     OW90490   1.015   6.810  10.408
96198SOL    HW190491   1.082   6.874  10.383
96198SOL    HW290492   0.933   6.860  10.409
96199SOL     OW90493   7.855  10.606   1.559
96199SOL    HW190494   7.917  10.563   1.499
96199SOL    HW290495   7.910  10.657   1.618
96200SOL     OW90496   8.024  13.014  12.879
96200SOL    HW190497   7.955  12.981  12.821
96200SOL    HW290498   8.034  12.946  12.946
96201SOL     OW90499   0.463   6.633   1.117
96201SOL    HW190500   0.405   6.572   1.071
96201SOL    HW290501   0.403   6.687   1.168
96202SOL     OW90502   2.682   3.686  10.825
96202SOL    HW190503   2.658   3.710  10.735
96202SOL    HW290504   2.627   3.742  10.880
96203SOL     OW90505  12.461  12.544   1.077
96203SOL    HW190506  12.552  12.538   1.048
96203SOL    HW290507  12.409  12.531   0.998
96204SOL     OW90508   5.856  13.868   4.322
96204SOL    HW190509   5.878  13.808   4.393
96204SOL    HW290510   5.770  13.840   4.293
96205SOL     OW90511  11.427   1.872   6.169
96205SOL    HW190512  11.385   1.850   6.086
96205SOL    HW290513  11.409   1.965   6.181
96206SOL     OW90514   0.692   1.259   0.654
96206SOL    HW190515   0.695   1.175   0.608
96206SOL    HW290516   0.720   1.323   0.588
96207SOL     OW90517   2.717  14.400  10.992
96207SOL    HW190518   2.664  14.323  11.013
96207SOL    HW290519   2.741  14.436  11.078
96208SOL     OW90520   9.766   5.098   1.890
96208SOL    HW190521   9.797   5.033   1.952
96208SOL    HW290522   9.683   5.129   1.927
96209SOL     OW90523   4.275   6.119  10.351
96209SOL    HW190524   4.232   6.169  10.283
96209SOL    HW290525   4.232   6.034  10.350
96210SOL     OW90526   6.284   9.914   3.941
96210SOL    HW190527   6.295   9.977   3.870
96210SOL    HW290528   6.196   9.932   3.974
96211SOL     OW90529   8.453   0.096  10.447
96211SOL    HW190530   8.439   0.143  10.365
96211SOL    HW290531   8.539   0.055  10.435
96212SOL     OW90532   0.962   0.698   0.216
96212SOL    HW190533   0.942   0.686   0.123
96212SOL    HW290534   1.011   0.620   0.241
96213SOL     OW90535  12.022   1.053   7.367
96213SOL    HW190536  12.019   0.965   7.330
96213SOL    HW290537  12.063   1.106   7.299
96214SOL     OW90538   7.404  13.433   9.025
96214SOL    HW190539   7.491  13.450   8.990
96214SOL    HW290540   7.359  13.518   9.019
96215SOL     OW90541   1.738   1.517   9.032
96215SOL    HW190542   1.666   1.458   9.056
96215SOL    HW290543   1.813   1.484   9.081
96216SOL     OW90544  12.120   2.789  13.472
96216SOL    HW190545  12.184   2.858  13.452
96216SOL    HW290546  12.153   2.748  13.552
96217SOL     OW90547   8.423  11.978  14.569
96217SOL    HW190548   8.357  11.912  14.550
96217SOL    HW290549   8.500  11.950  14.519
96218SOL     OW90550  10.050   8.993   4.723
96218SOL    HW190551  10.075   9.070   4.775
96218SOL    HW290552   9.963   9.015   4.689
96219SOL     OW90553   0.780  12.353   2.450
96219SOL    HW190554   0.850  12.304   2.494
96219SOL    HW290555   0.700  12.324   2.493
96220SOL     OW90556   2.273   6.182   2.571
96220SOL    HW190557   2.217   6.156   2.644
96220SOL    HW290558   2.362   6.163   2.601
96221SOL     OW90559   6.546  14.421  14.382
96221SOL    HW190560   6.477  14.374  14.335
96221SOL    HW290561   6.619  14.359  14.387
96222SOL     OW90562   4.234  12.373   7.144
96222SOL    HW190563   4.217  12.284   7.112
96222SOL    HW290564   4.155  12.421   7.125
96223SOL     OW90565   5.049  14.539   5.248
96223SOL    HW190566   5.004  14.465   5.208
96223SOL    HW290567   5.139  14.509   5.259
96224SOL     OW90568   2.253  14.600  11.494
96224SOL    HW190569   2.177  14.571  11.544
96224SOL    HW290570   2.318  14.624  11.560
96225SOL     OW90571   0.057   3.679   8.720
96225SOL    HW190572   0.123   3.626   8.676
96225SOL    HW290573   0.099   3.706   8.802
96226SOL     OW90574   8.651  13.849  13.515
96226SOL    HW190575   8.684  13.844  13.426
96226SOL    HW290576   8.597  13.928  13.517
96227SOL     OW90577   9.282  13.630   7.963
96227SOL    HW190578   9.272  13.566   7.893
96227SOL    HW290579   9.376  13.646   7.968
96228SOL     OW90580   6.732   6.410   4.247
96228SOL    HW190581   6.665   6.348   4.219
96228SOL    HW290582   6.722   6.485   4.188
96229SOL     OW90583  12.820   6.417   6.606
96229SOL    HW190584  12.779   6.345   6.558
96229SOL    HW290585  12.814   6.492   6.547
96230SOL     OW90586   8.829   9.087  14.139
96230SOL    HW190587   8.825   9.165  14.194
96230SOL    HW290588   8.869   9.117  14.057
96231SOL     OW90589   8.017  14.424  11.302
96231SOL    HW190590   8.022  14.402  11.209
96231SOL    HW290591   7.923  14.435  11.319
96232SOL     OW90592   2.882  13.504   7.566
96232SOL    HW190593   2.886  13.468   7.655
96232SOL    HW290594   2.970  13.493   7.531
96233SOL     OW90595   0.579  11.263   4.737
96233SOL    HW190596   0.540  11.176   4.748
96233SOL    HW290597   0.614  11.263   4.647
96234SOL     OW90598   3.856   9.268   7.021
96234SOL    HW190599   3.781   9.287   7.078
96234SOL    HW290600   3.848   9.175   7.001
96235SOL     OW90601   9.681   7.840   1.147
96235SOL    HW190602   9.686   7.842   1.243
96235SOL    HW290603   9.631   7.761   1.128
96236SOL     OW90604   5.899  12.977   7.971
96236SOL    HW190605   5.930  12.887   7.978
96236SOL    HW290606   5.858  12.981   7.884
96237SOL     OW90607   1.238   4.416   5.956
96237SOL    HW190608   1.332   4.424   5.945
96237SOL    HW290609   1.226   4.386   6.047
96238SOL     OW90610   1.335   5.172   8.252
96238SOL    HW190611   1.331   5.148   8.345
96238SOL    HW290612   1.420   5.139   8.223
96239SOL     OW90613   8.223   0.880  10.134
96239SOL    HW190614   8.144   0.909  10.088
96239SOL    HW290615   8.287   0.949  10.116
96240SOL     OW90616   8.137  12.722   6.339
96240SOL    HW190617   8.043  12.705   6.338
96240SOL    HW290618   8.146  12.808   6.380
96241SOL     OW90619   7.445   9.458   4.555
96241SOL    HW190620   7.511   9.390   4.566
96241SOL    HW290621   7.446   9.479   4.462
96242SOL     OW90622  12.218  11.307  13.501
96242SOL    HW190623  12.255  11.259  13.575
96242SOL    HW290624  12.199  11.394  13.536
96243SOL     OW90625   5.529  13.006   8.565
96243SOL    HW190626   5.601  12.946   8.547
96243SOL    HW290627   5.456  12.972   8.513
96244SOL     OW90628  14.716   5.969  11.058
96244SOL    HW190629  14.669   5.898  11.103
96244SOL    HW290630  14.705   6.045  11.115
96245SOL     OW90631   7.609   9.505   9.073
96245SOL    HW190632   7.625   9.499   8.979
96245SOL    HW290633   7.694   9.526   9.111
96246SOL     OW90634   7.090  14.854   7.795
96246SOL    HW190635   7.037  14.822   7.868
96246SOL    HW290636   7.163   0.012   7.836
96247SOL     OW90637   8.584  10.881   0.867
96247SOL    HW190638   8.665  10.927   0.890
96247SOL    HW290639   8.517  10.922   0.922
96248SOL     OW90640   9.072   1.905   7.140
96248SOL    HW190641   9.036   1.837   7.084
96248SOL    HW290642   8.995   1.952   7.172
96249SOL     OW90643   4.339   6.135   3.240
96249SOL    HW190644   4.339   6.041   3.255
96249SOL    HW290645   4.421   6.166   3.279
96250SOL     OW90646  10.327   2.587  12.904
96250SOL    HW190647  10.361   2.618  12.820
96250SOL    HW290648  10.269   2.515  12.881
96251SOL     OW90649   5.442   7.635  14.421
96251SOL    HW190650   5.453   7.540  14.413
96251SOL    HW290651   5.524   7.672  14.387
96252SOL     OW90652   9.599   5.456   3.631
96252SOL    HW190653   9.544   5.501   3.695
96252SOL    HW290654   9.635   5.527   3.577
96253SOL     OW90655  12.296   5.128   8.528
96253SOL    HW190656  12.271   5.179   8.450
96253SOL    HW290657  12.244   5.048   8.521
96254SOL     OW90658  10.481   5.310   1.959
96254SOL    HW190659  10.512   5.391   1.998
96254SOL    HW290660  10.552   5.247   1.976
96255SOL     OW90661   2.331  10.471   2.935
96255SOL    HW190662   2.351  10.491   2.843
96255SOL    HW290663   2.282  10.547   2.965
96256SOL     OW90664  13.768   7.978   1.353
96256SOL    HW190665  13.792   7.954   1.442
96256SOL    HW290666  13.694   8.038   1.363
96257SOL     OW90667  13.470  14.848   9.352
96257SOL    HW190668  13.374  14.855   9.356
96257SOL    HW290669  13.494   0.009   9.274
96258SOL     OW90670   3.729   2.685   6.336
96258SOL    HW190671   3.800   2.631   6.301
96258SOL    HW290672   3.649   2.645   6.301
96259SOL     OW90673   9.255   0.475   2.645
96259SOL    HW190674   9.186   0.419   2.610
96259SOL    HW290675   9.217   0.563   2.648
96260SOL     OW90676  11.227  14.218  13.821
96260SOL    HW190677  11.147  14.190  13.777
96260SOL    HW290678  11.225  14.174  13.906
96261SOL     OW90679  13.653   6.485   3.879
96261SOL    HW190680  13.574   6.435   3.897
96261SOL    HW290681  13.692   6.443   3.803
96262SOL     OW90682   6.696   6.955  12.879
96262SOL    HW190683   6.738   6.913  12.804
96262SOL    HW290684   6.754   6.935  12.953
96263SOL     OW90685   7.581  10.895   2.619
96263SOL    HW190686   7.620  10.971   2.662
96263SOL    HW290687   7.607  10.904   2.527
96264SOL     OW90688   4.779  10.991  11.774
96264SOL    HW190689   4.795  11.049  11.848
96264SOL    HW290690   4.838  10.917  11.788
96265SOL     OW90691  11.144  11.234   9.440
96265SOL    HW190692  11.188  11.317   9.458
96265SOL    HW290693  11.140  11.190   9.525
96266SOL     OW90694   0.398   0.324  14.721
96266SOL    HW190695   0.409   0.398  14.661
96266SOL    HW290696   0.443   0.251  14.678
96267SOL     OW90697   7.243   9.338   0.206
96267SOL    HW190698   7.274   9.336   0.115
96267SOL    HW290699   7.302   9.399   0.250
96268SOL     OW90700   5.352   1.028  11.518
96268SOL    HW190701   5.304   1.111  11.515
96268SOL    HW290702   5.441   1.053  11.543
96269SOL     OW90703  11.596  10.756  10.697
96269SOL    HW190704  11.624  10.698  10.626
96269SOL    HW290705  11.574  10.838  10.652
96270SOL     OW90706   3.336  13.892  13.393
96270SOL    HW190707   3.267  13.900  13.327
96270SOL    HW290708   3.288  13.879  13.475
96271SOL     OW90709  13.414   2.254   8.074
96271SOL    HW190710  13.367   2.281   8.153
96271SOL    HW290711  13.452   2.169   8.097
96272SOL     OW90712  13.218  10.171  13.766
96272SOL    HW190713  13.125  10.156  13.748
96272SOL    HW290714  13.257  10.184  13.680
96273SOL     OW90715   7.263   2.899   0.021
96273SOL    HW190716   7.179   2.938  14.886
96273SOL    HW290717   7.257   2.884   0.116
96274SOL     OW90718   3.712  10.376   7.431
96274SOL    HW190719   3.692  10.345   7.343
96274SOL    HW290720   3.668  10.313   7.489
96275SOL     OW90721  11.181   9.422   7.537
96275SOL    HW190722  11.144   9.472   7.464
96275SOL    HW290723  11.274   9.413   7.515
96276SOL     OW90724  10.270   1.482  11.407
96276SOL    HW190725  10.280   1.410  11.345
96276SOL    HW290726  10.246   1.439  11.489
96277SOL     OW90727   8.148   0.190   1.706
96277SOL    HW190728   8.208   0.255   1.742
96277SOL    HW290729   8.104   0.235   1.634
96278SOL     OW90730  13.334  14.845   7.056
96278SOL    HW190731  13.334  14.750   7.066
96278SOL    HW290732  13.268  14.876   7.118
96279SOL     OW90733  12.780   6.485   5.100
96279SOL    HW190734  12.775   6.390   5.109
96279SOL    HW290735  12.694   6.511   5.067
96280SOL     OW90736  12.306   1.698   8.070
96280SOL    HW190737  12.399   1.711   8.055
96280SOL    HW290738  12.289   1.608   8.042
96281SOL     OW90739   1.264   1.315   0.555
96281SOL    HW190740   1.250   1.348   0.466
96281SOL    HW290741   1.179   1.325   0.598
96282SOL     OW90742   5.010   5.872   3.298
96282SOL    HW190743   4.999   5.962   3.328
96282SOL    HW290744   5.094   5.871   3.253
96283SOL     OW90745  13.761  10.353   5.945
96283SOL    HW190746  13.811  10.276   5.918
96283SOL    HW290747  13.694  10.319   6.005
96284SOL     OW90748   1.169  13.442   6.695
96284SOL    HW190749   1.081  13.429   6.659
96284SOL    HW290750   1.191  13.357   6.734
96285SOL     OW90751   7.113  14.811  10.172
96285SOL    HW190752   7.192  14.865  10.172
96285SOL    HW290753   7.046  14.867  10.133
96286SOL     OW90754   5.753   8.358   5.310
96286SOL    HW190755   5.827   8.316   5.266
96286SOL    HW290756   5.771   8.452   5.303
96287SOL     OW90757   3.783   2.683   7.684
96287SOL    HW190758   3.836   2.686   7.604
96287SOL    HW290759   3.793   2.594   7.717
96288SOL     OW90760   5.326   4.563  10.448
96288SOL    HW190761   5.259   4.626  10.421
96288SOL    HW290762   5.368   4.537  10.366
96289SOL     OW90763  10.484   0.599  12.511
96289SOL    HW190764  10.528   0.646  12.582
96289SOL    HW290765  10.502   0.506  12.529
96290SOL     OW90766   8.647   3.035  14.819
96290SOL    HW190767   8.739   3.039  14.844
96290SOL    HW290768   8.649   2.997  14.731
96291SOL     OW90769  12.654   9.037  12.348
96291SOL    HW190770  12.561   9.042  12.328
96291SOL    HW290771  12.686   9.127  12.338
96292SOL     OW90772   2.907   8.209  14.204
96292SOL    HW190773   2.864   8.126  14.186
96292SOL    HW290774   2.835   8.273  14.205
96293SOL     OW90775   0.548   3.586  14.316
96293SOL    HW190776   0.471   3.640  14.330
96293SOL    HW290777   0.519   3.497  14.333
96294SOL     OW90778   6.185  12.993   7.697
96294SOL    HW190779   6.190  13.007   7.603
96294SOL    HW290780   6.145  13.073   7.732
96295SOL     OW90781   5.495  14.051  12.269
96295SOL    HW190782   5.458  14.136  12.291
96295SOL    HW290783   5.420  13.994  12.253
96296SOL     OW90784   6.765   4.209   8.838
96296SOL    HW190785   6.724   4.141   8.786
96296SOL    HW290786   6.787   4.277   8.774
96297SOL     OW90787   7.848  14.723   0.060
96297SOL    HW190788   7.788  14.648   0.064
96297SOL    HW290789   7.907  14.703  14.875
96298SOL     OW90790   7.189   7.170   8.990
96298SOL    HW190791   7.142   7.180   9.073
96298SOL    HW290792   7.122   7.177   8.923
96299SOL     OW90793  14.209   4.240   6.408
96299SOL    HW190794  14.143   4.213   6.472
96299SOL    HW290795  14.264   4.303   6.455
96300SOL     OW90796  10.502  12.335  13.372
96300SOL    HW190797  10.522  12.241  13.372
96300SOL    HW290798  10.429  12.343  13.433
96301SOL     OW90799  11.839  10.425   4.886
96301SOL    HW190800  11.858  10.396   4.797
96301SOL    HW290801  11.846  10.521   4.882
96302SOL     OW90802   6.816   2.009   3.060
96302SOL    HW190803   6.820   2.002   3.156
96302SOL    HW290804   6.853   1.926   3.029
96303SOL     OW90805   4.098   5.784  12.096
96303SOL    HW190806   4.166   5.732  12.053
96303SOL    HW290807   4.053   5.722  12.154
96304SOL     OW90808   3.373   8.691   5.468
96304SOL    HW190809   3.440   8.757   5.452
96304SOL    HW290810   3.422   8.612   5.493
96305SOL     OW90811   1.794   1.465   3.007
96305SOL    HW190812   1.755   1.542   3.048
96305SOL    HW290813   1.771   1.392   3.065
96306SOL     OW90814   0.714   8.102   4.228
96306SOL    HW190815   0.680   8.188   4.202
96306SOL    HW290816   0.725   8.054   4.146
96307SOL     OW90817   0.343  14.614  10.207
96307SOL    HW190818   0.265  14.668  10.218
96307SOL    HW290819   0.329  14.566  10.125
96308SOL     OW90820  11.316   5.172   6.308
96308SOL    HW190821  11.316   5.186   6.403
96308SOL    HW290822  11.316   5.261   6.272
96309SOL     OW90823  14.737  12.591   8.737
96309SOL    HW190824  14.712  12.620   8.825
96309SOL    HW290825  14.787  12.511   8.752
96310SOL     OW90826  10.526   3.132  13.519
96310SOL    HW190827  10.437   3.158  13.494
96310SOL    HW290828  10.513   3.053  13.572
96311SOL     OW90829  11.242   0.743  11.714
96311SOL    HW190830  11.225   0.787  11.631
96311SOL    HW290831  11.214   0.806  11.780
96312SOL     OW90832   9.199  13.095   3.459
96312SOL    HW190833   9.188  13.008   3.496
96312SOL    HW290834   9.168  13.087   3.369
96313SOL     OW90835  12.105   9.611   7.150
96313SOL    HW190836  12.077   9.643   7.236
96313SOL    HW290837  12.083   9.682   7.090
96314SOL     OW90838   8.919   6.689   6.217
96314SOL    HW190839   8.857   6.627   6.179
96314SOL    HW290840   8.869   6.771   6.223
96315SOL     OW90841   6.005  14.171  11.770
96315SOL    HW190842   5.974  14.257  11.742
96315SOL    HW290843   6.100  14.176  11.762
96316SOL     OW90844   6.678   3.421  12.941
96316SOL    HW190845   6.681   3.490  13.008
96316SOL    HW290846   6.601   3.369  12.963
96317SOL     OW90847   1.932  14.119  14.280
96317SOL    HW190848   2.027  14.109  14.279
96317SOL    HW290849   1.899  14.031  14.297
96318SOL     OW90850  12.033   1.491   9.875
96318SOL    HW190851  12.081   1.566   9.841
96318SOL    HW290852  11.948   1.526   9.902
96319SOL     OW90853   9.651   3.299   3.055
96319SOL    HW190854   9.653   3.394   3.060
96319SOL    HW290855   9.709   3.278   2.982
96320SOL     OW90856  13.223  10.863   9.825
96320SOL    HW190857  13.198  10.823   9.742
96320SOL    HW290858  13.257  10.789   9.877
96321SOL     OW90859  12.558   1.972   9.716
96321SOL    HW190860  12.532   2.063   9.701
96321SOL    HW290861  12.548   1.959   9.810
96322SOL     OW90862  11.850   6.042   3.355
96322SOL    HW190863  11.849   5.999   3.440
96322SOL    HW290864  11.926   6.005   3.310
96323SOL     OW90865   5.524  12.532   6.644
96323SOL    HW190866   5.441  12.576   6.663
96323SOL    HW290867   5.503  12.439   6.645
96324SOL     OW90868   1.002   8.756  13.518
96324SOL    HW190869   0.999   8.849  13.539
96324SOL    HW290870   0.994   8.712  13.603
96325SOL     OW90871  11.326   7.673   9.443
96325SOL    HW190872  11.378   7.696   9.520
96325SOL    HW290873  11.278   7.594   9.468
96326SOL     OW90874   3.605  11.807   1.784
96326SOL    HW190875   3.599  11.897   1.752
96326SOL    HW290876   3.516  11.772   1.776
96327SOL     OW90877  13.341   7.561   6.923
96327SOL    HW190878  13.310   7.537   7.011
96327SOL    HW290879  13.261   7.582   6.875
96328SOL     OW90880  10.863   5.437   5.553
96328SOL    HW190881  10.944   5.395   5.582
96328SOL    HW290882  10.889   5.490   5.478
96329SOL     OW90883   5.789  13.784  10.722
96329SOL    HW190884   5.834  13.823  10.647
96329SOL    HW290885   5.702  13.825  10.722
96330SOL     OW90886  11.257   1.928   0.788
96330SOL    HW190887  11.168   1.904   0.764
96330SOL    HW290888  11.271   1.890   0.874
96331SOL     OW90889   1.736   2.823   1.266
96331SOL    HW190890   1.685   2.810   1.186
96331SOL    HW290891   1.684   2.882   1.319
96332SOL     OW90892   5.526   6.925  13.021
96332SOL    HW190893   5.551   7.016  13.036
96332SOL    HW290894   5.485   6.897  13.103
96333SOL     OW90895  12.698   5.676   1.676
96333SOL    HW190896  12.758   5.625   1.622
96333SOL    HW290897  12.750   5.703   1.752
96334SOL     OW90898   9.203   4.117  13.121
96334SOL    HW190899   9.288   4.075  13.109
96334SOL    HW290900   9.140   4.048  13.099
96335SOL     OW90901  10.487   0.699   7.213
96335SOL    HW190902  10.423   0.768   7.192
96335SOL    HW290903  10.467   0.629   7.151
96336SOL     OW90904  11.842   1.212  13.599
96336SOL    HW190905  11.809   1.302  13.598
96336SOL    HW290906  11.764   1.158  13.596
96337SOL     OW90907   3.093  12.815  14.559
96337SOL    HW190908   2.998  12.803  14.567
96337SOL    HW290909   3.105  12.910  14.556
96338SOL     OW90910   1.486  12.675   2.833
96338SOL    HW190911   1.486  12.720   2.918
96338SOL    HW290912   1.416  12.717   2.783
96339SOL     OW90913   9.729  13.872  14.673
96339SOL    HW190914   9.746  13.940  14.609
96339SOL    HW290915   9.805  13.874  14.731
96340SOL     OW90916   0.598  10.306   4.098
96340SOL    HW190917   0.554  10.276   4.018
96340SOL    HW290918   0.582  10.237   4.162
96341SOL     OW90919  11.635  10.106   1.214
96341SOL    HW190920  11.690  10.068   1.283
96341SOL    HW290921  11.573  10.037   1.192
96342SOL     OW90922   8.443   0.960  12.256
96342SOL    HW190923   8.490   0.972  12.173
96342SOL    HW290924   8.472   1.034  12.310
96343SOL     OW90925   1.249  14.655   7.620
96343SOL    HW190926   1.344  14.668   7.613
96343SOL    HW290927   1.226  14.599   7.546
96344SOL     OW90928  14.254  10.642  10.073
96344SOL    HW190929  14.272  10.551  10.046
96344SOL    HW290930  14.314  10.657  10.147
96345SOL     OW90931   0.359  10.456   3.879
96345SOL    HW190932   0.355  10.480   3.972
96345SOL    HW290933   0.272  10.420   3.860
96346SOL     OW90934  13.318   0.406  12.353
96346SOL    HW190935  13.235   0.383  12.310
96346SOL    HW290936  13.292   0.441  12.438
96347SOL     OW90937   3.380  14.681   4.160
96347SOL    HW190938   3.313  14.716   4.102
96347SOL    HW290939   3.395  14.750   4.225
96348SOL     OW90940   0.453   6.573  13.921
96348SOL    HW190941   0.431   6.490  13.879
96348SOL    HW290942   0.500   6.548  14.001
96349SOL     OW90943   7.533   6.461   7.762
96349SOL    HW190944   7.527   6.407   7.841
96349SOL    HW290945   7.499   6.546   7.789
96350SOL     OW90946   1.796   2.736  10.027
96350SOL    HW190947   1.872   2.678  10.018
96350SOL    HW290948   1.800   2.767  10.118
96351SOL     OW90949  12.962  11.592  11.224
96351SOL    HW190950  12.927  11.681  11.214
96351SOL    HW290951  12.885  11.536  11.227
96352SOL     OW90952   3.989   2.485   3.253
96352SOL    HW190953   3.957   2.498   3.343
96352SOL    HW290954   4.011   2.573   3.222
96353SOL     OW90955  13.823   4.456   6.413
96353SOL    HW190956  13.848   4.534   6.364
96353SOL    HW290957  13.886   4.451   6.485
96354SOL     OW90958   0.410   1.890   0.569
96354SOL    HW190959   0.347   1.840   0.518
96354SOL    HW290960   0.379   1.981   0.563
96355SOL     OW90961  10.728  14.455   8.464
96355SOL    HW190962  10.818  14.460   8.431
96355SOL    HW290963  10.676  14.437   8.386
96356SOL     OW90964   6.208  13.723  12.678
96356SOL    HW190965   6.237  13.811  12.654
96356SOL    HW290966   6.288  13.673  12.689
96357SOL     OW90967  11.306   7.963   6.268
96357SOL    HW190968  11.293   8.033   6.205
96357SOL    HW290969  11.223   7.914   6.266
96358SOL     OW90970   3.450   8.158   8.356
96358SOL    HW190971   3.440   8.065   8.375
96358SOL    HW290972   3.484   8.160   8.266
96359SOL     OW90973  13.161  14.841  12.813
96359SOL    HW190974  13.219  14.787  12.867
96359SOL    HW290975  13.220   0.014  12.768
96360SOL     OW90976   7.626   0.129  10.691
96360SOL    HW190977   7.642   0.180  10.770
96360SOL    HW290978   7.542   0.160  10.659
96361SOL     OW90979   8.613   5.795  10.906
96361SOL    HW190980   8.564   5.718  10.876
96361SOL    HW290981   8.675   5.812  10.835
96362SOL     OW90982   4.049   3.927  11.007
96362SOL    HW190983   3.992   4.001  11.026
96362SOL    HW290984   4.113   3.961  10.945
96363SOL     OW90985   4.386   3.226   8.552
96363SOL    HW190986   4.333   3.196   8.479
96363SOL    HW290987   4.385   3.322   8.544
96364SOL     OW90988   7.485   3.093   1.718
96364SOL    HW190989   7.500   3.088   1.623
96364SOL    HW290990   7.425   3.167   1.729
96365SOL     OW90991   0.300   6.073  12.186
96365SOL    HW190992   0.238   6.025  12.132
96365SOL    HW290993   0.314   6.155  12.139
96366SOL     OW90994   9.298   7.809  14.511
96366SOL    HW190995   9.370   7.871  14.526
96366SOL    HW290996   9.234   7.858  14.461
96367SOL     OW90997   0.954   8.095   4.645
96367SOL    HW190998   0.997   8.022   4.690
96367SOL    HW290999   0.935   8.063   4.557
96368SOL     OW91000   1.672  13.002  11.791
96368SOL    HW191001   1.702  12.933  11.732
96368SOL    HW291002   1.752  13.050  11.814
96369SOL     OW91003   9.697  11.344   0.172
96369SOL    HW191004   9.779  11.296   0.186
96369SOL    HW291005   9.714  11.399   0.096
96370SOL     OW91006   7.307   5.994   7.886
96370SOL    HW191007   7.271   6.082   7.899
96370SOL    HW291008   7.231   5.940   7.865
96371SOL     OW91009   8.291   4.430   4.291
96371SOL    HW191010   8.265   4.382   4.213
96371SOL    HW291011   8.209   4.458   4.331
96372SOL     OW91012  12.550   4.643  13.819
96372SOL    HW191013  12.542   4.738  13.814
96372SOL    HW291014  12.616   4.620  13.754
96373SOL     OW91015   1.519   2.836   9.717
96373SOL    HW191016   1.536   2.805   9.629
96373SOL    HW291017   1.478   2.922   9.705
96374SOL     OW91018   6.955   0.623  10.577
96374SOL    HW191019   6.924   0.614  10.487
96374SOL    HW291020   7.027   0.686  10.571
96375SOL     OW91021   1.003  13.305   5.024
96375SOL    HW191022   1.003  13.210   5.033
96375SOL    HW291023   0.989  13.338   5.112
96376SOL     OW91024   7.753   2.614   4.875
96376SOL    HW191025   7.687   2.622   4.806
96376SOL    HW291026   7.836   2.635   4.832
96377SOL     OW91027  13.911  11.169   5.960
96377SOL    HW191028  13.864  11.249   5.985
96377SOL    HW291029  13.845  11.116   5.914
96378SOL     OW91030   1.607   6.364   2.458
96378SOL    HW191031   1.685   6.333   2.412
96378SOL    HW291032   1.567   6.427   2.397
96379SOL     OW91033  11.636  13.810   2.803
96379SOL    HW191034  11.619  13.834   2.894
96379SOL    HW291035  11.677  13.723   2.809
96380SOL     OW91036   9.992   1.864   5.230
96380SOL    HW191037   9.937   1.886   5.155
96380SOL    HW291038   9.939   1.885   5.306
96381SOL     OW91039   3.168   0.645   5.522
96381SOL    HW191040   3.194   0.610   5.437
96381SOL    HW291041   3.241   0.702   5.548
96382SOL     OW91042   6.513   2.561   3.258
96382SOL    HW191043   6.510   2.567   3.354
96382SOL    HW291044   6.596   2.602   3.234
96383SOL     OW91045   7.289   5.513   8.315
96383SOL    HW191046   7.257   5.503   8.225
96383SOL    HW291047   7.381   5.487   8.311
96384SOL     OW91048  10.552   7.449   5.624
96384SOL    HW191049  10.488   7.499   5.675
96384SOL    HW291050  10.500   7.399   5.561
96385SOL     OW91051  14.101  12.817  12.609
96385SOL    HW191052  14.012  12.813  12.574
96385SOL    HW291053  14.155  12.781  12.539
96386SOL     OW91054  10.704  13.625   5.486
96386SOL    HW191055  10.794  13.603   5.463
96386SOL    HW291056  10.692  13.714   5.452
96387SOL     OW91057   1.800   0.085   3.055
96387SOL    HW191058   1.732   0.039   3.006
96387SOL    HW291059   1.770   0.176   3.059
96388SOL     OW91060   1.308   0.838  13.916
96388SOL    HW191061   1.287   0.840  14.010
96388SOL    HW291062   1.314   0.931  13.891
96389SOL     OW91063   6.485   9.345   0.387
96389SOL    HW191064   6.405   9.342   0.335
96389SOL    HW291065   6.476   9.273   0.450
96390SOL     OW91066   8.445   6.461  11.624
96390SOL    HW191067   8.379   6.439  11.558
96390SOL    HW291068   8.470   6.376  11.662
96391SOL     OW91069   2.651   0.708   8.020
96391SOL    HW191070   2.608   0.623   8.010
96391SOL    HW291071   2.720   0.693   8.085
96392SOL     OW91072   4.111   5.703   6.951
96392SOL    HW191073   4.115   5.676   7.042
96392SOL    HW291074   4.089   5.623   6.903
96393SOL     OW91075   5.968  14.300   8.557
96393SOL    HW191076   5.901  14.271   8.619
96393SOL    HW291077   6.010  14.375   8.601
96394SOL     OW91078   3.535   7.118  14.658
96394SOL    HW191079   3.473   7.130  14.586
96394SOL    HW291080   3.490   7.153  14.735
96395SOL     OW91081   6.537  10.067   3.192
96395SOL    HW191082   6.586  10.144   3.220
96395SOL    HW291083   6.481  10.098   3.122
96396SOL     OW91084  13.060   6.415   2.310
96396SOL    HW191085  13.114   6.490   2.285
96396SOL    HW291086  13.069   6.410   2.406
96397SOL     OW91087  14.358   7.134   3.084
96397SOL    HW191088  14.439   7.135   3.134
96397SOL    HW291089  14.361   7.052   3.034
96398SOL     OW91090  13.306   7.023   2.112
96398SOL    HW191091  13.284   6.956   2.177
96398SOL    HW291092  13.262   6.994   2.032
96399SOL     OW91093   6.403   7.452   8.150
96399SOL    HW191094   6.422   7.390   8.079
96399SOL    HW291095   6.428   7.405   8.230
96400SOL     OW91096   4.088  13.349   6.188
96400SOL    HW191097   4.146  13.424   6.204
96400SOL    HW291098   4.145  13.273   6.189
96401SOL     OW91099   4.500   3.531   2.807
96401SOL    HW191100   4.451   3.610   2.829
96401SOL    HW291101   4.590   3.560   2.797
96402SOL     OW91102  12.729   0.018   2.794
96402SOL    HW191103  12.688   0.095   2.755
96402SOL    HW291104  12.768   0.050   2.875
96403SOL     OW91105   5.509   8.036   1.835
96403SOL    HW191106   5.524   7.971   1.767
96403SOL    HW291107   5.438   8.090   1.801
96404SOL     OW91108   0.179   8.349   6.579
96404SOL    HW191109   0.187   8.444   6.564
96404SOL    HW291110   0.206   8.337   6.670
96405SOL     OW91111   3.377   9.572  13.543
96405SOL    HW191112   3.426   9.599  13.621
96405SOL    HW291113   3.362   9.654  13.495
96406SOL     OW91114  14.501  12.072  10.128
96406SOL    HW191115  14.496  12.145  10.190
96406SOL    HW291116  14.412  12.062  10.096
96407SOL     OW91117  11.672  10.817   6.475
96407SOL    HW191118  11.656  10.861   6.559
96407SOL    HW291119  11.649  10.882   6.409
96408SOL     OW91120   7.360  10.261  11.414
96408SOL    HW191121   7.358  10.277  11.509
96408SOL    HW291122   7.269  10.262  11.387
96409SOL     OW91123  14.240   5.789   9.820
96409SOL    HW191124  14.298   5.778   9.745
96409SOL    HW291125  14.164   5.836   9.785
96410SOL     OW91126   0.673   3.462   9.474
96410SOL    HW191127   0.641   3.552   9.469
96410SOL    HW291128   0.620   3.421   9.542
96411SOL     OW91129   4.011   7.748   0.115
96411SOL    HW191130   4.073   7.739   0.042
96411SOL    HW291131   3.958   7.824   0.093
96412SOL     OW91132   5.580   5.905  13.390
96412SOL    HW191133   5.504   5.852  13.364
96412SOL    HW291134   5.655   5.857  13.356
96413SOL     OW91135   1.440  13.150   6.671
96413SOL    HW191136   1.487  13.227   6.702
96413SOL    HW291137   1.501  13.108   6.610
96414SOL     OW91138   1.655   4.032   1.509
96414SOL    HW191139   1.740   4.046   1.551
96414SOL    HW291140   1.647   4.103   1.446
96415SOL     OW91141   3.343   7.145   3.357
96415SOL    HW191142   3.270   7.095   3.392
96415SOL    HW291143   3.378   7.091   3.286
96416SOL     OW91144   3.940   7.305   5.821
96416SOL    HW191145   3.987   7.240   5.768
96416SOL    HW291146   3.886   7.252   5.880
96417SOL     OW91147  13.484   4.063  10.409
96417SOL    HW191148  13.405   4.012  10.391
96417SOL    HW291149  13.540   4.047  10.332
96418SOL     OW91150   1.751   7.442   9.285
96418SOL    HW191151   1.679   7.503   9.302
96418SOL    HW291152   1.742   7.375   9.354
96419SOL     OW91153   4.017  10.700  12.211
96419SOL    HW191154   3.964  10.670  12.138
96419SOL    HW291155   4.033  10.621  12.264
96420SOL     OW91156  11.186   0.486   6.523
96420SOL    HW191157  11.094   0.461   6.528
96420SOL    HW291158  11.234   0.404   6.532
96421SOL     OW91159   9.969   3.458   5.168
96421SOL    HW191160  10.055   3.423   5.190
96421SOL    HW291161   9.909   3.417   5.230
96422SOL     OW91162   8.631  11.832  13.714
96422SOL    HW191163   8.702  11.856  13.774
96422SOL    HW291164   8.675  11.798  13.636
96423SOL     OW91165   8.606   5.985   6.702
96423SOL    HW191166   8.594   6.078   6.681
96423SOL    HW291167   8.553   5.939   6.637
96424SOL     OW91168   3.099   6.927   5.355
96424SOL    HW191169   3.177   6.941   5.409
96424SOL    HW291170   3.026   6.926   5.417
96425SOL     OW91171   8.769   3.463  10.211
96425SOL    HW191172   8.844   3.523  10.207
96425SOL    HW291173   8.704   3.502  10.152
96426SOL     OW91174  13.649   1.465   3.858
96426SOL    HW191175  13.679   1.440   3.771
96426SOL    HW291176  13.685   1.399   3.916
96427SOL     OW91177  12.583   3.872   8.942
96427SOL    HW191178  12.555   3.912   9.024
96427SOL    HW291179  12.637   3.797   8.968
96428SOL     OW91180  11.847   1.962   9.300
96428SOL    HW191181  11.895   2.029   9.251
96428SOL    HW291182  11.825   2.005   9.383
96429SOL     OW91183  12.280   2.593   0.190
96429SOL    HW191184  12.228   2.521   0.224
96429SOL    HW291185  12.346   2.609   0.258
96430SOL     OW91186   6.884   1.254  10.316
96430SOL    HW191187   6.958   1.211  10.274
96430SOL    HW291188   6.906   1.255  10.409
96431SOL     OW91189   3.863   8.502   0.297
96431SOL    HW191190   3.838   8.586   0.336
96431SOL    HW291191   3.805   8.438   0.338
96432SOL     OW91192  11.344  12.278   1.365
96432SOL    HW191193  11.251  12.266   1.349
96432SOL    HW291194  11.358  12.246   1.454
96433SOL     OW91195  13.517   8.648   8.682
96433SOL    HW191196  13.490   8.566   8.640
96433SOL    HW291197  13.476   8.717   8.630
96434SOL     OW91198   5.547   3.205  14.729
96434SOL    HW191199   5.625   3.182  14.781
96434SOL    HW291200   5.483   3.234  14.794
96435SOL     OW91201   2.079   5.615   1.836
96435SOL    HW191202   2.136   5.566   1.896
96435SOL    HW291203   2.110   5.706   1.844
96436SOL     OW91204   8.128  11.744   2.155
96436SOL    HW191205   8.098  11.706   2.238
96436SOL    HW291206   8.168  11.671   2.108
96437SOL     OW91207  13.983   7.295   3.939
96437SOL    HW191208  14.057   7.301   3.879
96437SOL    HW291209  14.023   7.289   4.026
96438SOL     OW91210   3.817   8.061   6.344
96438SOL    HW191211   3.790   8.128   6.407
96438SOL    HW291212   3.913   8.069   6.341
96439SOL     OW91213  14.047   4.955   9.297
96439SOL    HW191214  13.952   4.952   9.290
96439SOL    HW291215  14.073   5.021   9.233
96440SOL     OW91216   6.684  13.842  11.949
96440SOL    HW191217   6.683  13.777  12.019
96440SOL    HW291218   6.773  13.877  11.951
96441SOL     OW91219   3.148   0.968   5.883
96441SOL    HW191220   3.134   1.012   5.799
96441SOL    HW291221   3.234   0.998   5.913
96442SOL     OW91222   6.208  13.113  10.024
96442SOL    HW191223   6.123  13.084  10.055
96442SOL    HW291224   6.252  13.032   9.995
96443SOL     OW91225  12.994   4.651   1.762
96443SOL    HW191226  12.976   4.607   1.680
96443SOL    HW291227  12.973   4.743   1.745
96444SOL     OW91228   1.522   3.514   6.919
96444SOL    HW191229   1.435   3.489   6.951
96444SOL    HW291230   1.565   3.553   6.995
96445SOL     OW91231   3.912   8.606   0.063
96445SOL    HW191232   3.984   8.559   0.020
96445SOL    HW291233   3.910   8.570   0.151
96446SOL     OW91234  13.451   4.979  12.355
96446SOL    HW191235  13.501   5.005  12.432
96446SOL    HW291236  13.360   4.978  12.384
96447SOL     OW91237  14.337   2.077   6.376
96447SOL    HW191238  14.378   2.075   6.462
96447SOL    HW291239  14.314   2.169   6.362
96448SOL     OW91240  12.940   2.048   5.575
96448SOL    HW191241  12.920   1.989   5.648
96448SOL    HW291242  12.924   1.995   5.497
96449SOL     OW91243   6.523   3.474   9.485
96449SOL    HW191244   6.599   3.428   9.450
96449SOL    HW291245   6.544   3.567   9.474
96450SOL     OW91246   9.602  12.608  11.984
96450SOL    HW191247   9.609  12.619  12.079
96450SOL    HW291248   9.692  12.602  11.953
96451SOL     OW91249   5.241   6.952   7.398
96451SOL    HW191250   5.169   6.888   7.391
96451SOL    HW291251   5.240   6.998   7.315
96452SOL     OW91252   5.125   7.341   2.381
96452SOL    HW191253   5.068   7.418   2.380
96452SOL    HW291254   5.065   7.268   2.365
96453SOL     OW91255   4.784   8.130   1.084
96453SOL    HW191256   4.867   8.116   1.039
96453SOL    HW291257   4.804   8.113   1.176
96454SOL     OW91258  10.667   5.545   9.643
96454SOL    HW191259  10.740   5.529   9.704
96454SOL    HW291260  10.599   5.584   9.697
96455SOL     OW91261   6.538   6.647  14.156
96455SOL    HW191262   6.620   6.635  14.108
96455SOL    HW291263   6.520   6.740  14.150
96456SOL     OW91264   2.460  10.758   9.016
96456SOL    HW191265   2.552  10.736   9.033
96456SOL    HW291266   2.434  10.699   8.945
96457SOL     OW91267   0.032   6.882   2.379
96457SOL    HW191268  14.873   6.800   2.363
96457SOL    HW291269  14.875   6.946   2.322
96458SOL     OW91270  12.689   0.406  10.508
96458SOL    HW191271  12.709   0.495  10.478
96458SOL    HW291272  12.767   0.356  10.485
96459SOL     OW91273  10.005   7.264  14.218
96459SOL    HW191274  10.006   7.201  14.289
96459SOL    HW291275  10.074   7.326  14.239
96460SOL     OW91276  13.776  10.065   2.175
96460SOL    HW191277  13.744  10.156   2.171
96460SOL    HW291278  13.823  10.052   2.093
96461SOL     OW91279   5.338  10.162   0.649
96461SOL    HW191280   5.413  10.219   0.631
96461SOL    HW291281   5.342  10.147   0.744
96462SOL     OW91282   4.146   1.297   9.832
96462SOL    HW191283   4.069   1.244   9.851
96462SOL    HW291284   4.217   1.256   9.882
96463SOL     OW91285  14.642   8.907   2.180
96463SOL    HW191286  14.675   8.977   2.124
96463SOL    HW291287  14.711   8.896   2.246
96464SOL     OW91288  14.163  13.055  11.503
96464SOL    HW191289  14.241  13.044  11.448
96464SOL    HW291290  14.109  13.117  11.455
96465SOL     OW91291  14.529  11.531   9.138
96465SOL    HW191292  14.587  11.571   9.074
96465SOL    HW291293  14.451  11.507   9.089
96466SOL     OW91294   4.968  11.606   6.436
96466SOL    HW191295   4.909  11.648   6.374
96466SOL    HW291296   5.031  11.674   6.459
96467SOL     OW91297   8.303   0.488   2.513
96467SOL    HW191298   8.306   0.552   2.585
96467SOL    HW291299   8.394   0.462   2.501
96468SOL     OW91300   6.373   1.638  12.861
96468SOL    HW191301   6.456   1.601  12.891
96468SOL    HW291302   6.306   1.584  12.902
96469SOL     OW91303   9.404   5.099   9.373
96469SOL    HW191304   9.360   5.016   9.353
96469SOL    HW291305   9.345   5.144   9.433
96470SOL     OW91306   1.216  13.573   8.910
96470SOL    HW191307   1.207  13.661   8.946
96470SOL    HW291308   1.310  13.562   8.895
96471SOL     OW91309  13.463   3.626  10.641
96471SOL    HW191310  13.408   3.571  10.586
96471SOL    HW291311  13.407   3.701  10.662
96472SOL     OW91312   9.351  14.072  13.070
96472SOL    HW191313   9.379  13.994  13.118
96472SOL    HW291314   9.263  14.090  13.103
96473SOL     OW91315   5.847  11.953  14.672
96473SOL    HW191316   5.752  11.960  14.675
96473SOL    HW291317   5.879  12.030  14.720
96474SOL     OW91318   0.973  14.583  14.414
96474SOL    HW191319   0.913  14.625  14.475
96474SOL    HW291320   1.041  14.544  14.469
96475SOL     OW91321   3.886  13.798   7.780
96475SOL    HW191322   3.898  13.892   7.764
96475SOL    HW291323   3.911  13.757   7.697
96476SOL     OW91324   3.565   7.328  12.918
96476SOL    HW191325   3.544   7.282  13.000
96476SOL    HW291326   3.632   7.274  12.877
96477SOL     OW91327   4.041   3.483   1.848
96477SOL    HW191328   4.090   3.552   1.802
96477SOL    HW291329   4.009   3.525   1.928
96478SOL     OW91330   3.211  11.345  11.386
96478SOL    HW191331   3.166  11.409  11.332
96478SOL    HW291332   3.201  11.262  11.338
96479SOL     OW91333   5.522  13.141   9.530
96479SOL    HW191334   5.459  13.197   9.576
96479SOL    HW291335   5.487  13.053   9.538
96480SOL     OW91336   0.100   8.566   8.660
96480SOL    HW191337   0.063   8.654   8.651
96480SOL    HW291338   0.061   8.531   8.740
96481SOL     OW91339   6.858   4.818   1.108
96481SOL    HW191340   6.774   4.817   1.153
96481SOL    HW291341   6.902   4.897   1.141
96482SOL     OW91342  10.162  12.190   5.911
96482SOL    HW191343  10.172  12.099   5.938
96482SOL    HW291344  10.235  12.235   5.953
96483SOL     OW91345   6.887  13.652   1.663
96483SOL    HW191346   6.868  13.624   1.753
96483SOL    HW291347   6.874  13.746   1.664
96484SOL     OW91348   0.086   0.758   4.349
96484SOL    HW191349   0.150   0.746   4.419
96484SOL    HW291350   0.137   0.794   4.276
96485SOL     OW91351   3.901  13.425   9.674
96485SOL    HW191352   3.947  13.496   9.627
96485SOL    HW291353   3.843  13.387   9.608
96486SOL     OW91354   0.733   4.745   8.585
96486SOL    HW191355   0.685   4.695   8.651
96486SOL    HW291356   0.755   4.682   8.518
96487SOL     OW91357  11.075  11.466  14.310
96487SOL    HW191358  11.117  11.393  14.263
96487SOL    HW291359  11.140  11.535  14.310
96488SOL     OW91360   4.508  14.450   6.183
96488SOL    HW191361   4.589  14.493   6.154
96488SOL    HW291362   4.461  14.518   6.231
96489SOL     OW91363  13.352  11.014   0.837
96489SOL    HW191364  13.419  11.081   0.828
96489SOL    HW291365  13.290  11.051   0.900
96490SOL     OW91366  11.414  12.531   5.409
96490SOL    HW191367  11.378  12.612   5.445
96490SOL    HW291368  11.500  12.555   5.376
96491SOL     OW91369   6.169   2.609   9.764
96491SOL    HW191370   6.131   2.696   9.754
96491SOL    HW291371   6.264   2.625   9.767
96492SOL     OW91372   0.759   9.711   8.763
96492SOL    HW191373   0.673   9.684   8.730
96492SOL    HW291374   0.745   9.724   8.857
96493SOL     OW91375   9.280   9.836   5.227
96493SOL    HW191376   9.237   9.751   5.229
96493SOL    HW291377   9.334   9.834   5.148
96494SOL     OW91378   9.010  14.713  14.557
96494SOL    HW191379   9.093  14.666  14.553
96494SOL    HW291380   9.030  14.794  14.603
96495SOL     OW91381  12.384   7.446   6.273
96495SOL    HW191382  12.301   7.485   6.300
96495SOL    HW291383  12.361   7.355   6.252
96496SOL     OW91384  10.901   7.682   4.120
96496SOL    HW191385  10.814   7.674   4.159
96496SOL    HW291386  10.885   7.714   4.032
96497SOL     OW91387   6.520   3.966   1.295
96497SOL    HW191388   6.439   3.966   1.346
96497SOL    HW291389   6.590   3.973   1.360
96498SOL     OW91390  14.707   3.525  12.906
96498SOL    HW191391  14.689   3.553  12.996
96498SOL    HW291392  14.622   3.530  12.863
96499SOL     OW91393   9.644   1.002   3.141
96499SOL    HW191394   9.641   0.916   3.183
96499SOL    HW291395   9.598   0.990   3.058
96500SOL     OW91396  14.129   3.308  11.669
96500SOL    HW191397  14.048   3.309  11.721
96500SOL    HW291398  14.137   3.397  11.635
96501SOL     OW91399   6.547   9.892  13.508
96501SOL    HW191400   6.632   9.848  13.502
96501SOL    HW291401   6.485   9.826  13.478
96502SOL     OW91402  14.104  12.795  11.557
96502SOL    HW191403  14.169  12.793  11.626
96502SOL    HW291404  14.107  12.884  11.523
96503SOL     OW91405   6.447  10.643   1.071
96503SOL    HW191406   6.506  10.638   0.996
96503SOL    HW291407   6.432  10.737   1.083
96504SOL     OW91408  14.205   4.414  10.147
96504SOL    HW191409  14.285   4.410  10.096
96504SOL    HW291410  14.232   4.391  10.236
96505SOL     OW91411   7.201   9.861   2.718
96505SOL    HW191412   7.162   9.934   2.768
96505SOL    HW291413   7.127   9.822   2.671
96506SOL     OW91414  11.317  10.407   6.866
96506SOL    HW191415  11.281  10.373   6.785
96506SOL    HW291416  11.257  10.476   6.893
96507SOL     OW91417   5.589   0.266   6.426
96507SOL    HW191418   5.541   0.206   6.369
96507SOL    HW291419   5.572   0.235   6.515
96508SOL     OW91420   2.184   1.521  13.133
96508SOL    HW191421   2.153   1.442  13.178
96508SOL    HW291422   2.245   1.489  13.067
96509SOL     OW91423   9.743   6.380   5.496
96509SOL    HW191424   9.784   6.404   5.578
96509SOL    HW291425   9.665   6.435   5.491
96510SOL     OW91426  11.918   4.639   9.509
96510SOL    HW191427  11.866   4.673   9.435
96510SOL    HW291428  11.885   4.550   9.521
96511SOL     OW91429   4.658  10.410   7.040
96511SOL    HW191430   4.605  10.396   7.118
96511SOL    HW291431   4.653  10.327   6.993
96512SOL     OW91432   0.354  14.873  13.607
96512SOL    HW191433   0.296   0.027  13.542
96512SOL    HW291434   0.342   0.038  13.686
96513SOL     OW91435   2.999   0.766   8.857
96513SOL    HW191436   3.088   0.734   8.845
96513SOL    HW291437   2.964   0.714   8.930
96514SOL     OW91438   2.781   8.887  11.596
96514SOL    HW191439   2.706   8.831  11.612
96514SOL    HW291440   2.758   8.936  11.517
96515SOL     OW91441   3.115  14.105  12.224
96515SOL    HW191442   3.164  14.101  12.142
96515SOL    HW291443   3.134  14.191  12.260
96516SOL     OW91444   9.569   4.014   2.113
96516SOL    HW191445   9.634   3.992   2.046
96516SOL    HW291446   9.593   3.960   2.188
96517SOL     OW91447   3.421   9.987  11.556
96517SOL    HW191448   3.510   9.978  11.524
96517SOL    HW291449   3.367   9.941  11.492
96518SOL     OW91450   7.344  11.972  11.973
96518SOL    HW191451   7.308  11.895  11.930
96518SOL    HW291452   7.279  11.995  12.039
96519SOL     OW91453   6.589   4.647   6.182
96519SOL    HW191454   6.508   4.673   6.139
96519SOL    HW291455   6.654   4.710   6.152
96520SOL     OW91456   1.910  11.272   2.716
96520SOL    HW191457   1.832  11.294   2.767
96520SOL    HW291458   1.875  11.232   2.636
96521SOL     OW91459   6.946  12.956   2.813
96521SOL    HW191460   6.971  12.932   2.902
96521SOL    HW291461   6.978  12.883   2.759
96522SOL     OW91462   4.789   0.019   7.090
96522SOL    HW191463   4.708   0.069   7.103
96522SOL    HW291464   4.765  14.816   7.114
96523SOL     OW91465   5.633   1.437   6.969
96523SOL    HW191466   5.619   1.531   6.978
96523SOL    HW291467   5.647   1.406   7.059
96524SOL     OW91468  14.228   9.835   3.191
96524SOL    HW191469  14.215   9.747   3.226
96524SOL    HW291470  14.144   9.879   3.205
96525SOL     OW91471   9.913   1.764   9.064
96525SOL    HW191472   9.909   1.856   9.039
96525SOL    HW291473   9.910   1.765   9.159
96526SOL     OW91474   6.311  10.412  10.876
96526SOL    HW191475   6.344  10.369  10.955
96526SOL    HW291476   6.219  10.387  10.872
96527SOL     OW91477   8.075  10.126   9.933
96527SOL    HW191478   8.128  10.056   9.895
96527SOL    HW291479   7.987  10.111   9.897
96528SOL     OW91480  14.670   2.828  11.675
96528SOL    HW191481  14.656   2.921  11.661
96528SOL    HW291482  14.583   2.793  11.696
96529SOL     OW91483  12.098   8.869  12.086
96529SOL    HW191484  12.161   8.851  12.017
96529SOL    HW291485  12.148   8.861  12.168
96530SOL     OW91486  11.422  12.309   7.190
96530SOL    HW191487  11.497  12.285   7.245
96530SOL    HW291488  11.462  12.341   7.109
96531SOL     OW91489   8.987  12.862   1.592
96531SOL    HW191490   9.033  12.917   1.528
96531SOL    HW291491   8.895  12.885   1.582
96532SOL     OW91492   1.777   4.157   6.049
96532SOL    HW191493   1.811   4.123   6.132
96532SOL    HW291494   1.692   4.195   6.072
96533SOL     OW91495   7.824   4.524   8.992
96533SOL    HW191496   7.861   4.469   8.923
96533SOL    HW291497   7.899   4.545   9.049
96534SOL     OW91498   2.196  11.961   5.426
96534SOL    HW191499   2.198  12.046   5.470
96534SOL    HW291500   2.286  11.946   5.398
96535SOL     OW91501   6.042  14.496  13.114
96535SOL    HW191502   6.106  14.431  13.083
96535SOL    HW291503   6.095  14.565  13.153
96536SOL     OW91504   3.095   9.470   6.259
96536SOL    HW191505   3.190   9.465   6.250
96536SOL    HW291506   3.065   9.380   6.254
96537SOL     OW91507  12.919  14.139   5.417
96537SOL    HW191508  12.896  14.056   5.459
96537SOL    HW291509  12.977  14.115   5.345
96538SOL     OW91510   5.380  12.699   6.357
96538SOL    HW191511   5.393  12.682   6.263
96538SOL    HW291512   5.401  12.792   6.368
96539SOL     OW91513  10.766   1.217  11.262
96539SOL    HW191514  10.740   1.308  11.248
96539SOL    HW291515  10.811   1.192  11.181
96540SOL     OW91516   6.046   7.418   1.905
96540SOL    HW191517   6.104   7.375   1.968
96540SOL    HW291518   6.055   7.511   1.923
96541SOL     OW91519  12.027   4.465   3.554
96541SOL    HW191520  12.096   4.531   3.565
96541SOL    HW291521  12.043   4.428   3.467
96542SOL     OW91522   3.454   2.109   0.189
96542SOL    HW191523   3.417   2.021   0.177
96542SOL    HW291524   3.377   2.167   0.189
96543SOL     OW91525   2.743   9.980   9.755
96543SOL    HW191526   2.697   9.914   9.703
96543SOL    HW291527   2.741   9.946   9.844
96544SOL     OW91528  11.351   8.188   3.746
96544SOL    HW191529  11.316   8.270   3.711
96544SOL    HW291530  11.445   8.200   3.745
96545SOL     OW91531  10.355  12.496   6.185
96545SOL    HW191532  10.433  12.521   6.235
96545SOL    HW291533  10.379  12.412   6.145
96546SOL     OW91534   4.821   0.628   3.771
96546SOL    HW191535   4.890   0.568   3.800
96546SOL    HW291536   4.741   0.576   3.775
96547SOL     OW91537   7.869   1.655  12.725
96547SOL    HW191538   7.959   1.631  12.701
96547SOL    HW291539   7.846   1.727  12.666
96548SOL     OW91540   8.271   0.068   7.371
96548SOL    HW191541   8.205   0.093   7.435
96548SOL    HW291542   8.255   0.125   7.296
96549SOL     OW91543   8.138   7.076  14.001
96549SOL    HW191544   8.088   7.108  14.076
96549SOL    HW291545   8.147   7.153  13.944
96550SOL     OW91546   3.061   7.717   9.644
96550SOL    HW191547   3.018   7.778   9.703
96550SOL    HW291548   3.128   7.769   9.599
96551SOL     OW91549   6.741   1.649  12.345
96551SOL    HW191550   6.679   1.584  12.313
96551SOL    HW291551   6.819   1.636  12.292
96552SOL     OW91552   5.306   6.957   3.362
96552SOL    HW191553   5.231   6.952   3.422
96552SOL    HW291554   5.380   6.924   3.413
96553SOL     OW91555   6.534   9.798  10.271
96553SOL    HW191556   6.438   9.796  10.274
96553SOL    HW291557   6.561   9.743  10.344
96554SOL     OW91558  11.214   9.653   6.186
96554SOL    HW191559  11.268   9.574   6.188
96554SOL    HW291560  11.268   9.721   6.226
96555SOL     OW91561   6.617   7.601   0.914
96555SOL    HW191562   6.562   7.603   0.993
96555SOL    HW291563   6.702   7.571   0.945
96556SOL     OW91564  12.874  10.689   0.208
96556SOL    HW191565  12.963  10.686   0.173
96556SOL    HW291566  12.818  10.678   0.130
96557SOL     OW91567   1.250  12.542  11.953
96557SOL    HW191568   1.247  12.606  11.882
96557SOL    HW291569   1.241  12.593  12.033
96558SOL     OW91570   1.374  11.061   5.703
96558SOL    HW191571   1.434  10.991   5.729
96558SOL    HW291572   1.304  11.016   5.657
96559SOL     OW91573  14.567   4.699   6.827
96559SOL    HW191574  14.525   4.614   6.840
96559SOL    HW291575  14.601   4.695   6.737
96560SOL     OW91576   5.088   3.324   6.207
96560SOL    HW191577   5.148   3.315   6.133
96560SOL    HW291578   5.007   3.358   6.168
96561SOL     OW91579   9.671   5.510   1.989
96561SOL    HW191580   9.758   5.492   2.026
96561SOL    HW291581   9.610   5.483   2.058
96562SOL     OW91582   9.089  11.921   5.917
96562SOL    HW191583   9.007  11.884   5.886
96562SOL    HW291584   9.132  11.849   5.964
96563SOL     OW91585  10.231   7.926   8.807
96563SOL    HW191586  10.158   7.988   8.809
96563SOL    HW291587  10.214   7.873   8.729
96564SOL     OW91588  14.124   1.926   6.244
96564SOL    HW191589  14.205   1.960   6.282
96564SOL    HW291590  14.113   1.840   6.283
96565SOL     OW91591   8.466   1.572  10.295
96565SOL    HW191592   8.438   1.527  10.215
96565SOL    HW291593   8.484   1.502  10.357
96566SOL     OW91594  14.571   8.544  13.100
96566SOL    HW191595  14.574   8.471  13.039
96566SOL    HW291596  14.522   8.512  13.175
96567SOL     OW91597   1.242  10.789   1.144
96567SOL    HW191598   1.198  10.871   1.165
96567SOL    HW291599   1.292  10.768   1.223
96568SOL     OW91600   7.989   3.244   8.114
96568SOL    HW191601   8.062   3.238   8.175
96568SOL    HW291602   7.992   3.163   8.064
96569SOL     OW91603   0.371   4.819   4.261
96569SOL    HW191604   0.459   4.819   4.298
96569SOL    HW291605   0.331   4.900   4.295
96570SOL     OW91606   6.534   5.669   3.262
96570SOL    HW191607   6.532   5.756   3.222
96570SOL    HW291608   6.456   5.625   3.227
96571SOL     OW91609   4.632   2.911  12.587
96571SOL    HW191610   4.555   2.886  12.536
96571SOL    HW291611   4.657   2.997  12.553
96572SOL     OW91612  10.308   4.574   6.977
96572SOL    HW191613  10.254   4.574   7.056
96572SOL    HW291614  10.250   4.542   6.908
96573SOL     OW91615  14.354   1.366   2.489
96573SOL    HW191616  14.346   1.455   2.455
96573SOL    HW291617  14.435   1.332   2.451
96574SOL     OW91618   7.664  12.271   8.874
96574SOL    HW191619   7.590  12.240   8.823
96574SOL    HW291620   7.628  12.290   8.960
96575SOL     OW91621   3.684   8.729  14.827
96575SOL    HW191622   3.757   8.687  14.873
96575SOL    HW291623   3.659   8.666  14.759
96576SOL     OW91624  11.754   4.583   4.910
96576SOL    HW191625  11.737   4.517   4.977
96576SOL    HW291626  11.836   4.554   4.868
96577SOL     OW91627   9.470   8.135  12.865
96577SOL    HW191628   9.556   8.160  12.898
96577SOL    HW291629   9.423   8.102  12.941
96578SOL     OW91630  13.410   1.163   4.696
96578SOL    HW191631  13.462   1.183   4.774
96578SOL    HW291632  13.320   1.169   4.725
96579SOL     OW91633   2.007   6.474   1.803
96579SOL    HW191634   2.021   6.568   1.805
96579SOL    HW291635   1.952   6.459   1.726
96580SOL     OW91636  14.196   8.661   8.752
96580SOL    HW191637  14.143   8.737   8.778
96580SOL    HW291638  14.156   8.631   8.671
96581SOL     OW91639   7.329   6.033   5.832
96581SOL    HW191640   7.249   6.051   5.882
96581SOL    HW291641   7.365   6.120   5.813
96582SOL     OW91642  13.079   4.597   2.690
96582SOL    HW191643  13.114   4.666   2.747
96582SOL    HW291644  13.009   4.557   2.741
96583SOL     OW91645   6.248   2.505   5.602
96583SOL    HW191646   6.304   2.582   5.613
96583SOL    HW291647   6.257   2.457   5.684
96584SOL     OW91648  13.073   0.428   2.157
96584SOL    HW191649  13.103   0.372   2.229
96584SOL    HW291650  13.152   0.448   2.107
96585SOL     OW91651   3.505   6.059   4.672
96585SOL    HW191652   3.477   5.981   4.625
96585SOL    HW291653   3.425   6.090   4.715
96586SOL     OW91654   1.587  13.169   8.285
96586SOL    HW191655   1.600  13.199   8.194
96586SOL    HW291656   1.494  13.146   8.289
96587SOL     OW91657  10.254   6.018   3.971
96587SOL    HW191658  10.295   5.991   4.053
96587SOL    HW291659  10.316   6.079   3.932
96588SOL     OW91660   5.864  10.533   0.743
96588SOL    HW191661   5.783  10.518   0.792
96588SOL    HW291662   5.866  10.628   0.730
96589SOL     OW91663  12.532  14.468   3.112
96589SOL    HW191664  12.607  14.425   3.152
96589SOL    HW291665  12.560  14.559   3.100
96590SOL     OW91666  12.655  11.383   1.167
96590SOL    HW191667  12.659  11.447   1.096
96590SOL    HW291668  12.650  11.436   1.247
96591SOL     OW91669   5.427   2.830   9.666
96591SOL    HW191670   5.336   2.846   9.642
96591SOL    HW291671   5.452   2.907   9.718
96592SOL     OW91672   6.901   6.279  12.469
96592SOL    HW191673   6.824   6.261  12.415
96592SOL    HW291674   6.937   6.360  12.433
96593SOL     OW91675   5.320   1.527   7.943
96593SOL    HW191676   5.336   1.577   7.863
96593SOL    HW291677   5.309   1.594   8.010
96594SOL     OW91678   3.756   1.980   9.120
96594SOL    HW191679   3.783   1.915   9.185
96594SOL    HW291680   3.696   2.038   9.166
96595SOL     OW91681  14.520   8.907   8.526
96595SOL    HW191682  14.609   8.905   8.491
96595SOL    HW291683  14.491   8.997   8.514
96596SOL     OW91684   1.300   0.615  14.885
96596SOL    HW191685   1.338   0.528  14.872
96596SOL    HW291686   1.335   0.643   0.083
96597SOL     OW91687   3.113   5.475   7.693
96597SOL    HW191688   3.142   5.527   7.618
96597SOL    HW291689   3.105   5.538   7.764
96598SOL     OW91690   4.962   9.556   1.733
96598SOL    HW191691   5.016   9.487   1.771
96598SOL    HW291692   4.907   9.586   1.806
96599SOL     OW91693   6.186  14.666   5.558
96599SOL    HW191694   6.170  14.662   5.652
96599SOL    HW291695   6.200  14.759   5.540
96600SOL     OW91696   9.719   4.218   5.680
96600SOL    HW191697   9.753   4.190   5.765
96600SOL    HW291698   9.720   4.314   5.685
96601SOL     OW91699   9.053   8.150   4.448
96601SOL    HW191700   9.019   8.222   4.501
96601SOL    HW291701   8.976   8.096   4.429
96602SOL     OW91702   5.274   0.542  10.890
96602SOL    HW191703   5.291   0.616  10.832
96602SOL    HW291704   5.255   0.469  10.831
96603SOL     OW91705   0.612  12.953   1.083
96603SOL    HW191706   0.688  12.958   1.026
96603SOL    HW291707   0.584  12.862   1.078
96604SOL     OW91708   8.160   4.036  14.347
96604SOL    HW191709   8.202   4.045  14.262
96604SOL    HW291710   8.131   4.124  14.369
96605SOL     OW91711   4.028  14.361   9.229
96605SOL    HW191712   3.954  14.400   9.276
96605SOL    HW291713   4.085  14.435   9.208
96606SOL     OW91714  10.437   7.684  13.402
96606SOL    HW191715  10.501   7.754  13.412
96606SOL    HW291716  10.488   7.603  13.411
96607SOL     OW91717   6.380   4.766   4.270
96607SOL    HW191718   6.401   4.676   4.247
96607SOL    HW291719   6.465   4.806   4.290
96608SOL     OW91720  13.989  14.400   0.795
96608SOL    HW191721  14.011  14.467   0.859
96608SOL    HW291722  13.929  14.443   0.734
96609SOL     OW91723   3.332   9.818   7.127
96609SOL    HW191724   3.416   9.792   7.088
96609SOL    HW291725   3.354   9.841   7.217
96610SOL     OW91726  14.287  12.159   7.236
96610SOL    HW191727  14.382  12.154   7.228
96610SOL    HW291728  14.272  12.195   7.324
96611SOL     OW91729   4.176  14.846  12.456
96611SOL    HW191730   4.169   0.054  12.470
96611SOL    HW291731   4.089  14.821  12.425
96612SOL     OW91732   8.455  12.704  12.008
96612SOL    HW191733   8.541  12.740  11.985
96612SOL    HW291734   8.471  12.610  12.017
96613SOL     OW91735  14.065   1.422   2.229
96613SOL    HW191736  14.015   1.485   2.178
96613SOL    HW291737  14.047   1.446   2.320
96614SOL     OW91738   8.749   2.394   1.608
96614SOL    HW191739   8.670   2.441   1.581
96614SOL    HW291740   8.820   2.458   1.601
96615SOL     OW91741   2.370   1.849   7.725
96615SOL    HW191742   2.394   1.827   7.815
96615SOL    HW291743   2.438   1.910   7.696
96616SOL     OW91744   1.385   8.530  14.181
96616SOL    HW191745   1.363   8.526  14.088
96616SOL    HW291746   1.305   8.561  14.223
96617SOL     OW91747   0.173   7.855  10.134
96617SOL    HW191748   0.114   7.930  10.138
96617SOL    HW291749   0.251   7.887  10.090
96618SOL     OW91750  11.153   4.798  13.726
96618SOL    HW191751  11.065   4.761  13.734
96618SOL    HW291752  11.204   4.754  13.793
96619SOL     OW91753   5.064   3.146   2.956
96619SOL    HW191754   5.040   3.236   2.932
96619SOL    HW291755   4.991   3.116   3.011
96620SOL     OW91756   0.705  11.287   2.699
96620SOL    HW191757   0.697  11.247   2.613
96620SOL    HW291758   0.766  11.360   2.686
96621SOL     OW91759  13.113  13.943   7.112
96621SOL    HW191760  13.115  13.864   7.168
96621SOL    HW291761  13.139  13.911   7.026
96622SOL     OW91762   8.970   0.025   0.975
96622SOL    HW191763   8.932  14.854   1.041
96622SOL    HW291764   8.934  14.881   0.892
96623SOL     OW91765  10.793   7.152   5.674
96623SOL    HW191766  10.819   7.156   5.582
96623SOL    HW291767  10.812   7.239   5.708
96624SOL     OW91768   7.144   7.798   0.468
96624SOL    HW191769   7.062   7.847   0.467
96624SOL    HW291770   7.135   7.736   0.541
96625SOL     OW91771  11.859  12.447   8.032
96625SOL    HW191772  11.780  12.440   8.086
96625SOL    HW291773  11.827  12.479   7.948
96626SOL     OW91774   6.799   1.803  13.831
96626SOL    HW191775   6.721   1.824  13.881
96626SOL    HW291776   6.861   1.873  13.852
96627SOL     OW91777   4.444   4.890  11.494
96627SOL    HW191778   4.412   4.860  11.580
96627SOL    HW291779   4.425   4.818  11.435
96628SOL     OW91780   5.509  12.228   0.643
96628SOL    HW191781   5.425  12.200   0.679
96628SOL    HW291782   5.510  12.323   0.655
96629SOL     OW91783   9.839   1.149   4.298
96629SOL    HW191784   9.851   1.244   4.302
96629SOL    HW291785   9.928   1.114   4.297
96630SOL     OW91786  11.691   1.131   5.849
96630SOL    HW191787  11.603   1.122   5.884
96630SOL    HW291788  11.738   1.184   5.914
96631SOL     OW91789   2.326   1.664   6.058
96631SOL    HW191790   2.362   1.744   6.019
96631SOL    HW291791   2.379   1.650   6.137
96632SOL     OW91792  11.747   8.418   7.974
96632SOL    HW191793  11.727   8.327   7.950
96632SOL    HW291794  11.837   8.431   7.943
96633SOL     OW91795   1.468   7.571  12.356
96633SOL    HW191796   1.532   7.500  12.348
96633SOL    HW291797   1.519   7.650  12.341
96634SOL     OW91798  12.307  12.890   0.748
96634SOL    HW191799  12.293  12.873   0.655
96634SOL    HW291800  12.223  12.871   0.789
96635SOL     OW91801  11.103   6.193  14.856
96635SOL    HW191802  11.037   6.156  14.797
96635SOL    HW291803  11.156   6.118  14.883
96636SOL     OW91804  12.174  12.743   8.699
96636SOL    HW191805  12.155  12.650   8.687
96636SOL    HW291806  12.269  12.749   8.692
96637SOL     OW91807   5.166   8.969   7.973
96637SOL    HW191808   5.096   9.030   7.949
96637SOL    HW291809   5.147   8.890   7.922
96638SOL     OW91810  13.443   5.758   3.859
96638SOL    HW191811  13.445   5.663   3.871
96638SOL    HW291812  13.352   5.782   3.875
96639SOL     OW91813  10.061  10.273   5.902
96639SOL    HW191814  10.016  10.192   5.925
96639SOL    HW291815  10.007  10.342   5.940
96640SOL     OW91816  13.607   7.227   1.327
96640SOL    HW191817  13.629   7.180   1.407
96640SOL    HW291818  13.619   7.162   1.257
96641SOL     OW91819   2.535   8.696   6.059
96641SOL    HW191820   2.550   8.655   5.974
96641SOL    HW291821   2.617   8.684   6.107
96642SOL     OW91822   2.328   5.821   3.216
96642SOL    HW191823   2.418   5.843   3.192
96642SOL    HW291824   2.338   5.750   3.280
96643SOL     OW91825  13.885   6.394   9.614
96643SOL    HW191826  13.905   6.414   9.522
96643SOL    HW291827  13.962   6.348   9.646
96644SOL     OW91828  12.087   9.332  12.976
96644SOL    HW191829  12.073   9.390  13.051
96644SOL    HW291830  12.038   9.253  12.997
96645SOL     OW91831   0.434   8.779   8.235
96645SOL    HW191832   0.432   8.860   8.286
96645SOL    HW291833   0.500   8.725   8.279
96646SOL     OW91834  13.143   8.914   6.217
96646SOL    HW191835  13.140   8.836   6.161
96646SOL    HW291836  13.235   8.919   6.245
96647SOL     OW91837  14.777   2.946   6.846
96647SOL    HW191838  14.809   2.857   6.832
96647SOL    HW291839  14.721   2.964   6.770
96648SOL     OW91840   2.526   6.847  14.344
96648SOL    HW191841   2.497   6.761  14.375
96648SOL    HW291842   2.574   6.828  14.264
96649SOL     OW91843   8.974   3.789   6.497
96649SOL    HW191844   8.903   3.787   6.561
96649SOL    HW291845   9.049   3.825   6.546
96650SOL     OW91846   2.097  11.330  10.168
96650SOL    HW191847   2.148  11.410  10.181
96650SOL    HW291848   2.008  11.361  10.150
96651SOL     OW91849   0.381   7.362   5.775
96651SOL    HW191850   0.346   7.322   5.855
96651SOL    HW291851   0.304   7.399   5.732
96652SOL     OW91852   7.742   6.661  11.499
96652SOL    HW191853   7.764   6.727  11.564
96652SOL    HW291854   7.669   6.613  11.536
96653SOL     OW91855   4.702  13.298  13.262
96653SOL    HW191856   4.792  13.270  13.275
96653SOL    HW291857   4.661  13.225  13.216
96654SOL     OW91858   1.101   8.668  12.557
96654SOL    HW191859   1.006   8.670  12.554
96654SOL    HW291860   1.124   8.717  12.636
96655SOL     OW91861   0.861  13.505   4.473
96655SOL    HW191862   0.769  13.532   4.479
96655SOL    HW291863   0.874  13.445   4.546
96656SOL     OW91864   4.262   8.572   2.394
96656SOL    HW191865   4.293   8.561   2.304
96656SOL    HW291866   4.173   8.538   2.393
96657SOL     OW91867   0.082   0.694  13.761
96657SOL    HW191868   0.124   0.729  13.682
96657SOL    HW291869   0.106   0.756  13.830
96658SOL     OW91870   9.694   3.024   4.823
96658SOL    HW191871   9.606   2.998   4.851
96658SOL    HW291872   9.683   3.046   4.730
96659SOL     OW91873   7.927   6.375   6.833
96659SOL    HW191874   7.885   6.307   6.885
96659SOL    HW291875   8.020   6.363   6.848
96660SOL     OW91876   6.272   9.325   8.207
96660SOL    HW191877   6.188   9.371   8.216
96660SOL    HW291878   6.323   9.353   8.283
96661SOL     OW91879   0.695  14.777   0.748
96661SOL    HW191880   0.738  14.745   0.669
96661SOL    HW291881   0.728  14.722   0.818
96662SOL     OW91882  11.779   8.477   2.936
96662SOL    HW191883  11.773   8.571   2.953
96662SOL    HW291884  11.873   8.457   2.944
96663SOL     OW91885   3.443  11.098   6.013
96663SOL    HW191886   3.421  11.058   5.929
96663SOL    HW291887   3.373  11.162   6.028
96664SOL     OW91888   3.319   1.580   4.444
96664SOL    HW191889   3.409   1.576   4.476
96664SOL    HW291890   3.283   1.493   4.462
96665SOL     OW91891   9.629   2.352  12.244
96665SOL    HW191892   9.722   2.346  12.268
96665SOL    HW291893   9.584   2.366  12.328
96666SOL     OW91894  14.704   9.023   0.772
96666SOL    HW191895  14.734   9.113   0.789
96666SOL    HW291896  14.783   8.969   0.782
96667SOL     OW91897   9.607   1.473  13.807
96667SOL    HW191898   9.587   1.401  13.748
96667SOL    HW291899   9.700   1.465  13.824
96668SOL     OW91900   8.415   2.340   1.365
96668SOL    HW191901   8.364   2.352   1.445
96668SOL    HW291902   8.454   2.253   1.374
96669SOL     OW91903   5.003   0.454  10.903
96669SOL    HW191904   4.916   0.432  10.935
96669SOL    HW291905   4.989   0.503  10.822
96670SOL     OW91906   9.548   6.593   7.355
96670SOL    HW191907   9.494   6.657   7.309
96670SOL    HW291908   9.638   6.612   7.327
96671SOL     OW91909  11.901   8.439  11.359
96671SOL    HW191910  11.805   8.435  11.367
96671SOL    HW291911  11.917   8.475  11.272
96672SOL     OW91912   9.973  10.478   6.380
96672SOL    HW191913   9.988  10.391   6.344
96672SOL    HW291914   9.884  10.474   6.416
96673SOL     OW91915   8.067   3.140  14.527
96673SOL    HW191916   7.980   3.161  14.560
96673SOL    HW291917   8.074   3.045  14.535
96674SOL     OW91918  12.302  14.145  13.871
96674SOL    HW191919  12.264  14.067  13.910
96674SOL    HW291920  12.233  14.180  13.814
96675SOL     OW91921   0.325  13.405   5.740
96675SOL    HW191922   0.373  13.326   5.766
96675SOL    HW291923   0.255  13.372   5.683
96676SOL     OW91924   5.093  12.393   8.211
96676SOL    HW191925   5.095  12.323   8.145
96676SOL    HW291926   5.094  12.347   8.295
96677SOL     OW91927   8.067   4.124   7.875
96677SOL    HW191928   8.142   4.181   7.895
96677SOL    HW291929   8.013   4.175   7.816
96678SOL     OW91930   7.507   8.728  10.219
96678SOL    HW191931   7.481   8.685  10.137
96678SOL    HW291932   7.554   8.660  10.267
96679SOL     OW91933  14.792  13.610   6.427
96679SOL    HW191934  14.804  13.539   6.364
96679SOL    HW291935  14.707  13.591   6.467
96680SOL     OW91936  11.001   6.822   9.761
96680SOL    HW191937  11.028   6.890   9.700
96680SOL    HW291938  11.004   6.864   9.847
96681SOL     OW91939   2.224  12.640   4.934
96681SOL    HW191940   2.213  12.609   5.024
96681SOL    HW291941   2.189  12.569   4.880
96682SOL     OW91942  14.320   5.431  12.760
96682SOL    HW191943  14.270   5.482  12.824
96682SOL    HW291944  14.257   5.412  12.690
96683SOL     OW91945   1.690   1.310   9.961
96683SOL    HW191946   1.753   1.317   9.889
96683SOL    HW291947   1.744   1.296  10.039
96684SOL     OW91948   6.238   1.765   4.414
96684SOL    HW191949   6.268   1.806   4.332
96684SOL    HW291950   6.220   1.838   4.472
96685SOL     OW91951   9.171   8.516   5.408
96685SOL    HW191952   9.162   8.608   5.385
96685SOL    HW291953   9.262   8.495   5.387
96686SOL     OW91954  10.305  12.852   9.881
96686SOL    HW191955  10.359  12.863   9.803
96686SOL    HW291956  10.266  12.765   9.871
96687SOL     OW91957   4.646   5.286  13.492
96687SOL    HW191958   4.582   5.354  13.514
96687SOL    HW291959   4.671   5.305  13.401
96688SOL     OW91960  10.131  12.072   0.054
96688SOL    HW191961  10.086  12.046   0.134
96688SOL    HW291962  10.219  12.095   0.083
96689SOL     OW91963   3.230  11.057  12.326
96689SOL    HW191964   3.313  11.100  12.306
96689SOL    HW291965   3.184  11.120  12.382
96690SOL     OW91966   8.568   0.324   5.761
96690SOL    HW191967   8.663   0.331   5.750
96690SOL    HW291968   8.553   0.344   5.853
96691SOL     OW91969  14.722   2.744   4.104
96691SOL    HW191970  14.698   2.657   4.138
96691SOL    HW291971  14.638   2.783   4.079
96692SOL     OW91972   1.131  13.873   9.918
96692SOL    HW191973   1.202  13.881   9.854
96692SOL    HW291974   1.165  13.917   9.996
96693SOL     OW91975   7.751  14.321   7.013
96693SOL    HW191976   7.706  14.238   6.998
96693SOL    HW291977   7.718  14.352   7.097
96694SOL     OW91978   4.060   1.650   0.953
96694SOL    HW191979   4.119   1.687   1.019
96694SOL    HW291980   3.989   1.715   0.946
96695SOL     OW91981   0.110  11.671  12.713
96695SOL    HW191982   0.201  11.700  12.716
96695SOL    HW291983   0.111  11.585  12.756
96696SOL     OW91984   3.983   5.358   7.465
96696SOL    HW191985   3.987   5.301   7.542
96696SOL    HW291986   3.891   5.387   7.461
96697SOL     OW91987   5.704   0.125   9.107
96697SOL    HW191988   5.730   0.174   9.029
96697SOL    HW291989   5.608   0.120   9.101
96698SOL     OW91990   7.630   8.833  12.795
96698SOL    HW191991   7.578   8.756  12.772
96698SOL    HW291992   7.594   8.862  12.878
96699SOL     OW91993   5.044   5.999   6.416
96699SOL    HW191994   5.115   6.024   6.357
96699SOL    HW291995   5.069   6.037   6.500
96700SOL     OW91996   8.757   3.219  13.271
96700SOL    HW191997   8.775   3.199  13.179
96700SOL    HW291998   8.758   3.314  13.276
96701SOL     OW91999   7.599  11.028   8.456
96701SOL    HW192000   7.537  11.011   8.527
96701SOL    HW292001   7.545  11.026   8.377
96702SOL     OW92002   3.965   8.516  13.008
96702SOL    HW192003   3.913   8.457  13.063
96702SOL    HW292004   4.017   8.457  12.953
96703SOL     OW92005   7.682   8.309   6.434
96703SOL    HW192006   7.660   8.221   6.465
96703SOL    HW292007   7.776   8.308   6.422
96704SOL     OW92008   1.197   9.381   4.279
96704SOL    HW192009   1.283   9.386   4.320
96704SOL    HW292010   1.142   9.340   4.345
96705SOL     OW92011   8.539  12.804   4.534
96705SOL    HW192012   8.528  12.733   4.471
96705SOL    HW292013   8.601  12.864   4.493
96706SOL     OW92014   1.379   8.291   6.391
96706SOL    HW192015   1.317   8.363   6.379
96706SOL    HW292016   1.460   8.322   6.351
96707SOL     OW92017   8.414  11.462   3.358
96707SOL    HW192018   8.387  11.401   3.290
96707SOL    HW292019   8.357  11.442   3.432
96708SOL     OW92020  10.353  13.208   4.040
96708SOL    HW192021  10.321  13.229   4.128
96708SOL    HW292022  10.342  13.113   4.032
96709SOL     OW92023   6.991  12.582   9.362
96709SOL    HW192024   6.968  12.518   9.430
96709SOL    HW292025   6.972  12.536   9.279
96710SOL     OW92026   0.929   4.322  12.838
96710SOL    HW192027   0.934   4.417  12.824
96710SOL    HW292028   0.836   4.305  12.851
96711SOL     OW92029   6.029   0.680   7.957
96711SOL    HW192030   5.935   0.700   7.954
96711SOL    HW292031   6.040   0.612   7.891
96712SOL     OW92032  11.677   4.687   5.601
96712SOL    HW192033  11.633   4.732   5.673
96712SOL    HW292034  11.714   4.757   5.548
96713SOL     OW92035  12.920   2.512   8.338
96713SOL    HW192036  12.890   2.602   8.352
96713SOL    HW292037  12.981   2.518   8.265
96714SOL     OW92038  12.404   0.899   8.555
96714SOL    HW192039  12.420   0.805   8.566
96714SOL    HW292040  12.406   0.913   8.460
96715SOL     OW92041   2.149   1.252  12.622
96715SOL    HW192042   2.110   1.186  12.680
96715SOL    HW292043   2.152   1.211  12.536
96716SOL     OW92044   1.170   1.333  11.298
96716SOL    HW192045   1.225   1.274  11.350
96716SOL    HW292046   1.162   1.289  11.213
96717SOL     OW92047   9.306   1.323   9.904
96717SOL    HW192048   9.283   1.414   9.886
96717SOL    HW292049   9.345   1.325   9.992
96718SOL     OW92050  12.233  11.933  13.913
96718SOL    HW192051  12.245  11.909  13.821
96718SOL    HW292052  12.256  12.026  13.917
96719SOL     OW92053   4.493  13.826   4.711
96719SOL    HW192054   4.585  13.851   4.717
96719SOL    HW292055   4.462  13.830   4.801
96720SOL     OW92056   2.811   2.597   1.530
96720SOL    HW192057   2.821   2.613   1.436
96720SOL    HW292058   2.840   2.678   1.572
96721SOL     OW92059   4.563   7.497  14.525
96721SOL    HW192060   4.622   7.463  14.593
96721SOL    HW292061   4.478   7.455  14.544
96722SOL     OW92062   3.090  14.461  12.889
96722SOL    HW192063   3.095  14.444  12.983
96722SOL    HW292064   3.119  14.552  12.880
96723SOL     OW92065  10.884  13.924  12.093
96723SOL    HW192066  10.863  13.937  12.185
96723SOL    HW292067  10.909  14.011  12.061
96724SOL     OW92068  13.391   0.337   3.825
96724SOL    HW192069  13.362   0.248   3.804
96724SOL    HW292070  13.480   0.341   3.790
96725SOL     OW92071   0.175   6.564   8.487
96725SOL    HW192072   0.267   6.582   8.504
96725SOL    HW292073   0.174   6.480   8.443
96726SOL     OW92074   9.839  10.009  13.198
96726SOL    HW192075   9.752   9.986  13.228
96726SOL    HW292076   9.890   9.928  13.204
96727SOL     OW92077   1.699   3.409  10.077
96727SOL    HW192078   1.664   3.329  10.117
96727SOL    HW292079   1.639   3.426  10.003
96728SOL     OW92080   4.283   3.084   5.862
96728SOL    HW192081   4.193   3.097   5.890
96728SOL    HW292082   4.335   3.102   5.940
96729SOL     OW92083   3.186   4.699   5.757
96729SOL    HW192084   3.212   4.610   5.731
96729SOL    HW292085   3.158   4.740   5.676
96730SOL     OW92086   3.419  10.900   8.469
96730SOL    HW192087   3.503  10.924   8.508
96730SOL    HW292088   3.365  10.979   8.477
96731SOL     OW92089   8.585   9.150  13.860
96731SOL    HW192090   8.528   9.181  13.790
96731SOL    HW292091   8.528   9.098  13.916
96732SOL     OW92092  12.579   5.221   4.411
96732SOL    HW192093  12.617   5.182   4.489
96732SOL    HW292094  12.570   5.148   4.349
96733SOL     OW92095   8.813  10.231  10.367
96733SOL    HW192096   8.905  10.258  10.363
96733SOL    HW292097   8.768  10.287  10.304
96734SOL     OW92098   7.713   1.852   6.147
96734SOL    HW192099   7.733   1.775   6.094
96734SOL    HW292100   7.625   1.878   6.119
96735SOL     OW92101  12.275   1.838   0.493
96735SOL    HW192102  12.364   1.819   0.522
96735SOL    HW292103  12.278   1.927   0.460
96736SOL     OW92104   7.079   0.745   2.447
96736SOL    HW192105   7.077   0.840   2.444
96736SOL    HW292106   7.131   0.719   2.371
96737SOL     OW92107  11.068  12.443   4.616
96737SOL    HW192108  11.015  12.521   4.631
96737SOL    HW292109  11.078  12.439   4.521
96738SOL     OW92110   6.404   1.964   8.824
96738SOL    HW192111   6.320   1.995   8.856
96738SOL    HW292112   6.418   2.013   8.742
96739SOL     OW92113   0.467  14.827   2.848
96739SOL    HW192114   0.498   0.019   2.891
96739SOL    HW292115   0.413  14.783   2.914
96740SOL     OW92116   9.569  14.041  10.320
96740SOL    HW192117   9.614  14.038  10.236
96740SOL    HW292118   9.631  14.002  10.382
96741SOL     OW92119  12.540   7.027   4.917
96741SOL    HW192120  12.445   7.032   4.932
96741SOL    HW292121  12.564   7.117   4.893
96742SOL     OW92122  12.101  13.249   0.525
96742SOL    HW192123  12.051  13.291   0.455
96742SOL    HW292124  12.127  13.321   0.582
96743SOL     OW92125  12.863  13.565  12.845
96743SOL    HW192126  12.887  13.481  12.806
96743SOL    HW292127  12.802  13.542  12.915
96744SOL     OW92128   1.596   5.156   8.204
96744SOL    HW192129   1.594   5.249   8.186
96744SOL    HW292130   1.633   5.116   8.125
96745SOL     OW92131   9.925   0.523   9.385
96745SOL    HW192132   9.959   0.441   9.419
96745SOL    HW292133   9.831   0.519   9.404
96746SOL     OW92134  10.962   4.202   5.956
96746SOL    HW192135  11.011   4.120   5.950
96746SOL    HW292136  10.912   4.194   6.037
96747SOL     OW92137   8.215   8.835  11.055
96747SOL    HW192138   8.208   8.831  11.150
96747SOL    HW292139   8.132   8.874  11.026
96748SOL     OW92140   1.281   3.376  13.026
96748SOL    HW192141   1.244   3.351  13.111
96748SOL    HW292142   1.205   3.402  12.974
96749SOL     OW92143   1.146   2.582   7.151
96749SOL    HW192144   1.236   2.616   7.145
96749SOL    HW292145   1.157   2.491   7.179
96750SOL     OW92146  13.005   0.347   7.899
96750SOL    HW192147  13.058   0.413   7.943
96750SOL    HW292148  12.920   0.390   7.885
96751SOL     OW92149   2.643  11.251  14.391
96751SOL    HW192150   2.597  11.199  14.324
96751SOL    HW292151   2.573  11.297  14.437
96752SOL     OW92152  13.238   8.360  13.055
96752SOL    HW192153  13.154   8.360  13.009
96752SOL    HW292154  13.264   8.452  13.057
96753SOL     OW92155   5.284   4.243   9.760
96753SOL    HW192156   5.193   4.237   9.789
96753SOL    HW292157   5.325   4.303   9.823
96754SOL     OW92158   1.831  13.974   2.938
96754SOL    HW192159   1.822  14.069   2.942
96754SOL    HW292160   1.859  13.956   2.848
96755SOL     OW92161  14.850   8.995  11.518
96755SOL    HW192162  14.855   8.922  11.456
96755SOL    HW292163  14.776   8.974  11.574
96756SOL     OW92164   7.930   6.532   4.876
96756SOL    HW192165   7.867   6.503   4.809
96756SOL    HW292166   7.991   6.588   4.828
96757SOL     OW92167   4.608   9.194  12.859
96757SOL    HW192168   4.669   9.260  12.827
96757SOL    HW292169   4.592   9.218  12.951
96758SOL     OW92170  11.764   0.170   8.195
96758SOL    HW192171  11.854   0.168   8.226
96758SOL    HW292172  11.740   0.263   8.194
96759SOL     OW92173   9.572  10.668  13.427
96759SOL    HW192174   9.625  10.639  13.353
96759SOL    HW292175   9.505  10.601  13.436
96760SOL     OW92176   1.581   4.603   3.203
96760SOL    HW192177   1.619   4.518   3.223
96760SOL    HW292178   1.650   4.650   3.157
96761SOL     OW92179   4.381   9.592   2.611
96761SOL    HW192180   4.338   9.517   2.652
96761SOL    HW292181   4.315   9.627   2.551
96762SOL     OW92182  11.213   6.860   1.327
96762SOL    HW192183  11.287   6.850   1.267
96762SOL    HW292184  11.242   6.928   1.389
96763SOL     OW92185  12.116   4.876   7.884
96763SOL    HW192186  12.194   4.821   7.884
96763SOL    HW292187  12.105   4.902   7.976
96764SOL     OW92188   6.263   7.031  10.491
96764SOL    HW192189   6.334   6.995  10.545
96764SOL    HW292190   6.306   7.097  10.436
96765SOL     OW92191  14.064  12.922   9.438
96765SOL    HW192192  14.127  12.940   9.508
96765SOL    HW292193  13.981  12.909   9.484
96766SOL     OW92194   1.855   7.855  12.185
96766SOL    HW192195   1.904   7.813  12.255
96766SOL    HW292196   1.920   7.873  12.118
96767SOL     OW92197  10.782  10.130  10.525
96767SOL    HW192198  10.763  10.088  10.441
96767SOL    HW292199  10.781  10.224  10.506
96768SOL     OW92200   5.418  11.000   8.086
96768SOL    HW192201   5.382  10.940   8.021
96768SOL    HW292202   5.379  10.973   8.169
96769SOL     OW92203   4.585  11.126   1.891
96769SOL    HW192204   4.660  11.083   1.850
96769SOL    HW292205   4.618  11.213   1.915
96770SOL     OW92206   3.319   2.719  10.337
96770SOL    HW192207   3.349   2.715  10.246
96770SOL    HW292208   3.252   2.788  10.336
96771SOL     OW92209  10.189   2.707   2.632
96771SOL    HW192210  10.225   2.627   2.669
96771SOL    HW292211  10.104   2.717   2.675
96772SOL     OW92212  14.032  10.512   6.883
96772SOL    HW192213  14.006  10.525   6.792
96772SOL    HW292214  14.096  10.581   6.900
96773SOL     OW92215   8.799  11.228  10.384
96773SOL    HW192216   8.851  11.176  10.447
96773SOL    HW292217   8.837  11.207  10.299
96774SOL     OW92218   7.222   6.646   2.715
96774SOL    HW192219   7.161   6.625   2.787
96774SOL    HW292220   7.264   6.727   2.742
96775SOL     OW92221   3.135   3.728  14.085
96775SOL    HW192222   3.099   3.811  14.116
96775SOL    HW292223   3.189   3.752  14.009
96776SOL     OW92224   7.984   9.211   9.064
96776SOL    HW192225   7.928   9.255   8.999
96776SOL    HW292226   7.923   9.166   9.121
96777SOL     OW92227   3.702   6.064   3.067
96777SOL    HW192228   3.776   6.122   3.050
96777SOL    HW292229   3.667   6.094   3.152
96778SOL     OW92230   8.298  11.918   6.174
96778SOL    HW192231   8.334  11.953   6.256
96778SOL    HW292232   8.205  11.907   6.191
96779SOL     OW92233   9.048   2.252  12.048
96779SOL    HW192234   9.040   2.238  12.143
96779SOL    HW292235   9.141   2.262  12.033
96780SOL     OW92236   9.193  14.074   6.505
96780SOL    HW192237   9.173  14.117   6.588
96780SOL    HW292238   9.160  13.985   6.516
96781SOL     OW92239   2.007   6.183   3.786
96781SOL    HW192240   2.013   6.189   3.691
96781SOL    HW292241   2.016   6.273   3.817
96782SOL     OW92242   2.001   2.420   8.704
96782SOL    HW192243   2.022   2.472   8.626
96782SOL    HW292244   2.054   2.341   8.694
96783SOL     OW92245   0.334   5.190   2.410
96783SOL    HW192246   0.372   5.236   2.484
96783SOL    HW292247   0.406   5.139   2.373
96784SOL     OW92248   3.830   7.404   0.890
96784SOL    HW192249   3.916   7.432   0.859
96784SOL    HW292250   3.768   7.460   0.843
96785SOL     OW92251   8.153  10.045  12.005
96785SOL    HW192252   8.184  10.110  11.942
96785SOL    HW292253   8.223  10.039  12.070
96786SOL     OW92254   9.272   0.470  12.491
96786SOL    HW192255   9.189   0.423  12.492
96786SOL    HW292256   9.265   0.532  12.563
96787SOL     OW92257   5.396   5.255  10.017
96787SOL    HW192258   5.306   5.224  10.011
96787SOL    HW292259   5.438   5.223   9.937
96788SOL     OW92260  12.539  10.442  11.190
96788SOL    HW192261  12.615  10.499  11.203
96788SOL    HW292262  12.500  10.471  11.108
96789SOL     OW92263  12.240   7.821  14.491
96789SOL    HW192264  12.184   7.843  14.416
96789SOL    HW292265  12.188   7.758  14.542
96790SOL     OW92266   3.151  10.527   7.866
96790SOL    HW192267   3.085  10.556   7.929
96790SOL    HW292268   3.192  10.451   7.905
96791SOL     OW92269   7.385  13.496  10.449
96791SOL    HW192270   7.359  13.411  10.413
96791SOL    HW292271   7.464  13.477  10.499
96792SOL     OW92272   2.503  13.014  11.893
96792SOL    HW192273   2.446  13.057  11.957
96792SOL    HW292274   2.571  13.079  11.876
96793SOL     OW92275   7.081   8.228  14.744
96793SOL    HW192276   7.105   8.148  14.791
96793SOL    HW292277   6.987   8.219  14.728
96794SOL     OW92278  13.208   0.514   5.904
96794SOL    HW192279  13.142   0.570   5.944
96794SOL    HW292280  13.230   0.557   5.821
96795SOL     OW92281   8.967   5.914   1.672
96795SOL    HW192282   8.887   5.929   1.721
96795SOL    HW292283   9.026   5.985   1.699
96796SOL     OW92284  10.514   5.233   8.937
96796SOL    HW192285  10.524   5.152   8.987
96796SOL    HW292286  10.594   5.282   8.957
96797SOL     OW92287   9.377   6.391   8.497
96797SOL    HW192288   9.361   6.482   8.470
96797SOL    HW292289   9.398   6.346   8.415
96798SOL     OW92290   4.215   3.902  14.214
96798SOL    HW192291   4.153   3.836  14.183
96798SOL    HW292292   4.299   3.857  14.217
96799SOL     OW92293   4.560  10.493   6.764
96799SOL    HW192294   4.602  10.436   6.828
96799SOL    HW292295   4.467  10.493   6.789
96800SOL     OW92296  11.768  11.532   3.439
96800SOL    HW192297  11.700  11.574   3.387
96800SOL    HW292298  11.837  11.510   3.377
96801SOL     OW92299  12.354   4.190   6.240
96801SOL    HW192300  12.275   4.153   6.200
96801SOL    HW292301  12.367   4.273   6.194
96802SOL     OW92302   9.949  12.623  14.681
96802SOL    HW192303   9.943  12.605  14.587
96802SOL    HW292304   9.927  12.539  14.723
96803SOL     OW92305  14.019   2.888  11.814
96803SOL    HW192306  13.952   2.906  11.880
96803SOL    HW292307  13.988   2.932  11.735
96804SOL     OW92308   4.458  11.381  10.593
96804SOL    HW192309   4.454  11.380  10.688
96804SOL    HW292310   4.511  11.458  10.572
96805SOL     OW92311  11.308  13.059  10.376
96805SOL    HW192312  11.294  13.124  10.307
96805SOL    HW292313  11.248  13.085  10.446
96806SOL     OW92314   5.029  12.901   2.302
96806SOL    HW192315   4.990  12.893   2.389
96806SOL    HW292316   5.082  12.980   2.307
96807SOL     OW92317   2.282  14.610   0.083
96807SOL    HW192318   2.292  14.689   0.135
96807SOL    HW292319   2.227  14.637   0.009
96808SOL     OW92320  12.223   7.958   3.815
96808SOL    HW192321  12.144   8.012   3.814
96808SOL    HW292322  12.292   8.017   3.786
96809SOL     OW92323   2.642   4.413   9.768
96809SOL    HW192324   2.734   4.394   9.789
96809SOL    HW292325   2.647   4.482   9.702
96810SOL     OW92326  10.838   6.009   3.264
96810SOL    HW192327  10.848   5.967   3.349
96810SOL    HW292328  10.801   6.095   3.284
96811SOL     OW92329   9.574  13.736   7.557
96811SOL    HW192330   9.484  13.704   7.565
96811SOL    HW292331   9.591  13.781   7.640
96812SOL     OW92332  13.099  11.354   8.350
96812SOL    HW192333  13.009  11.321   8.357
96812SOL    HW292334  13.152  11.277   8.333
96813SOL     OW92335   2.234  11.094   2.828
96813SOL    HW192336   2.168  11.029   2.803
96813SOL    HW292337   2.202  11.130   2.910
96814SOL     OW92338  11.882  12.141   3.442
96814SOL    HW192339  11.863  12.049   3.457
96814SOL    HW292340  11.882  12.181   3.529
96815SOL     OW92341   3.048  10.378   5.724
96815SOL    HW192342   2.970  10.336   5.759
96815SOL    HW292343   3.113  10.308   5.717
96816SOL     OW92344   7.256   0.912   4.581
96816SOL    HW192345   7.181   0.971   4.597
96816SOL    HW292346   7.225   0.826   4.609
96817SOL     OW92347   0.456   9.000  14.610
96817SOL    HW192348   0.541   9.030  14.579
96817SOL    HW292349   0.422   8.944  14.540
96818SOL     OW92350   7.477   4.643   0.170
96818SOL    HW192351   7.456   4.636   0.077
96818SOL    HW292352   7.423   4.577   0.212
96819SOL     OW92353  13.383   6.936   7.433
96819SOL    HW192354  13.378   6.865   7.497
96819SOL    HW292355  13.292   6.952   7.408
96820SOL     OW92356   3.668   3.338  10.603
96820SOL    HW192357   3.698   3.252  10.575
96820SOL    HW292358   3.719   3.356  10.682
96821SOL     OW92359   7.387   1.454   9.842
96821SOL    HW192360   7.426   1.370   9.821
96821SOL    HW292361   7.338   1.438   9.923
96822SOL     OW92362  10.584   5.832   2.123
96822SOL    HW192363  10.608   5.924   2.125
96822SOL    HW292364  10.509   5.825   2.181
96823SOL     OW92365  13.187  12.684   9.332
96823SOL    HW192366  13.094  12.693   9.309
96823SOL    HW292367  13.189  12.694   9.427
96824SOL     OW92368   8.042  10.854   3.075
96824SOL    HW192369   8.046  10.888   2.986
96824SOL    HW292370   8.123  10.804   3.086
96825SOL     OW92371   4.857   1.192   5.033
96825SOL    HW192372   4.919   1.143   4.979
96825SOL    HW292373   4.904   1.273   5.055
96826SOL     OW92374   0.937   5.228  13.495
96826SOL    HW192375   0.994   5.166  13.539
96826SOL    HW292376   0.918   5.187  13.410
96827SOL     OW92377   2.230   9.640  11.923
96827SOL    HW192378   2.192   9.566  11.875
96827SOL    HW292379   2.297   9.600  11.978
96828SOL     OW92380   2.945  10.021   4.726
96828SOL    HW192381   2.911   9.974   4.649
96828SOL    HW292382   2.869  10.066   4.762
96829SOL     OW92383   3.308  14.773  11.763
96829SOL    HW192384   3.389  14.781  11.813
96829SOL    HW292385   3.241  14.748  11.827
96830SOL     OW92386   3.136   6.473   3.882
96830SOL    HW192387   3.138   6.444   3.973
96830SOL    HW292388   3.056   6.525   3.875
96831SOL     OW92389  14.517   7.009  14.837
96831SOL    HW192390  14.551   7.027  14.749
96831SOL    HW292391  14.460   6.933  14.825
96832SOL     OW92392   5.467  10.838   9.590
96832SOL    HW192393   5.481  10.745   9.605
96832SOL    HW292394   5.515  10.857   9.509
96833SOL     OW92395   8.859   5.818   0.244
96833SOL    HW192396   8.813   5.871   0.309
96833SOL    HW292397   8.808   5.736   0.239
96834SOL     OW92398  10.472  10.332   2.348
96834SOL    HW192399  10.427  10.409   2.314
96834SOL    HW292400  10.565  10.356   2.349
96835SOL     OW92401  12.167   7.166  10.030
96835SOL    HW192402  12.132   7.230   9.968
96835SOL    HW292403  12.089   7.131  10.075
96836SOL     OW92404   6.900   3.109   0.889
96836SOL    HW192405   6.845   3.132   0.814
96836SOL    HW292406   6.963   3.180   0.895
96837SOL     OW92407   8.559   5.029   0.247
96837SOL    HW192408   8.541   4.998   0.159
96837SOL    HW292409   8.474   5.056   0.281
96838SOL     OW92410   8.761   1.553   6.493
96838SOL    HW192411   8.700   1.614   6.537
96838SOL    HW292412   8.836   1.548   6.552
96839SOL     OW92413   4.852   3.528  10.933
96839SOL    HW192414   4.821   3.607  10.888
96839SOL    HW292415   4.776   3.471  10.935
96840SOL     OW92416   0.573   6.363   8.626
96840SOL    HW192417   0.543   6.323   8.708
96840SOL    HW292418   0.528   6.448   8.623
96841SOL     OW92419  11.203  13.679   4.329
96841SOL    HW192420  11.129  13.681   4.268
96841SOL    HW292421  11.207  13.768   4.364
96842SOL     OW92422   9.783   9.578  10.993
96842SOL    HW192423   9.692   9.573  10.964
96842SOL    HW292424   9.824   9.642  10.935
96843SOL     OW92425   1.073  12.271   7.861
96843SOL    HW192426   1.076  12.175   7.857
96843SOL    HW292427   1.090  12.292   7.953
96844SOL     OW92428  14.633   9.984  10.371
96844SOL    HW192429  14.626  10.075  10.343
96844SOL    HW292430  14.727   9.968  10.377
96845SOL     OW92431  14.264  11.068   0.160
96845SOL    HW192432  14.352  11.071   0.123
96845SOL    HW292433  14.249  11.156   0.194
96846SOL     OW92434  11.803  11.921   9.475
96846SOL    HW192435  11.768  12.000   9.435
96846SOL    HW292436  11.782  11.851   9.412
96847SOL     OW92437  11.126   7.609   5.237
96847SOL    HW192438  11.130   7.702   5.259
96847SOL    HW292439  11.054   7.575   5.290
96848SOL     OW92440   7.929  14.003   7.010
96848SOL    HW192441   7.871  14.026   7.083
96848SOL    HW292442   7.989  13.938   7.047
96849SOL     OW92443   3.908   8.236   5.300
96849SOL    HW192444   3.915   8.324   5.338
96849SOL    HW292445   3.825   8.202   5.335
96850SOL     OW92446   4.124  10.710   5.168
96850SOL    HW192447   4.139  10.804   5.165
96850SOL    HW292448   4.179  10.678   5.239
96851SOL     OW92449   8.258   8.518  13.918
96851SOL    HW192450   8.258   8.496  13.825
96851SOL    HW292451   8.209   8.448  13.960
96852SOL     OW92452   7.791   3.683   8.419
96852SOL    HW192453   7.848   3.624   8.369
96852SOL    HW292454   7.730   3.625   8.464
96853SOL     OW92455   8.460   2.672   3.551
96853SOL    HW192456   8.505   2.609   3.608
96853SOL    HW292457   8.521   2.688   3.480
96854SOL     OW92458   5.210   5.705   7.343
96854SOL    HW192459   5.227   5.715   7.436
96854SOL    HW292460   5.140   5.639   7.338
96855SOL     OW92461   4.348  13.185   4.115
96855SOL    HW192462   4.407  13.175   4.190
96855SOL    HW292463   4.325  13.278   4.115
96856SOL     OW92464   7.037   9.232   7.402
96856SOL    HW192465   7.076   9.163   7.455
96856SOL    HW292466   7.105   9.257   7.340
96857SOL     OW92467  13.403   7.514  13.771
96857SOL    HW192468  13.376   7.576  13.839
96857SOL    HW292469  13.326   7.461  13.753
96858SOL     OW92470  11.464   1.843   0.406
96858SOL    HW192471  11.484   1.795   0.486
96858SOL    HW292472  11.370   1.859   0.411
96859SOL     OW92473   7.251   0.997   8.489
96859SOL    HW192474   7.168   0.959   8.459
96859SOL    HW292475   7.237   1.091   8.484
96860SOL     OW92476   2.382  12.263   6.467
96860SOL    HW192477   2.371  12.342   6.413
96860SOL    HW292478   2.305  12.210   6.447
96861SOL     OW92479   1.694   5.833   0.336
96861SOL    HW192480   1.647   5.750   0.336
96861SOL    HW292481   1.781   5.812   0.301
96862SOL     OW92482   3.144   8.823   6.735
96862SOL    HW192483   3.071   8.857   6.786
96862SOL    HW292484   3.109   8.747   6.689
96863SOL     OW92485   7.768   4.515   0.315
96863SOL    HW192486   7.760   4.424   0.284
96863SOL    HW292487   7.745   4.568   0.239
96864SOL     OW92488   3.479   0.362   6.669
96864SOL    HW192489   3.407   0.370   6.606
96864SOL    HW292490   3.486   0.449   6.708
96865SOL     OW92491   7.650  14.147  10.295
96865SOL    HW192492   7.729  14.173  10.343
96865SOL    HW292493   7.654  14.051  10.293
96866SOL     OW92494   2.091   2.698  11.595
96866SOL    HW192495   2.104   2.686  11.689
96866SOL    HW292496   2.130   2.620  11.556
96867SOL     OW92497   7.060   9.253   8.535
96867SOL    HW192498   7.142   9.274   8.490
96867SOL    HW292499   7.068   9.159   8.555
96868SOL     OW92500  10.068   1.990   2.115
96868SOL    HW192501  10.025   1.968   2.198
96868SOL    HW292502  10.006   1.961   2.048
96869SOL     OW92503  10.871   6.225  11.149
96869SOL    HW192504  10.919   6.144  11.134
96869SOL    HW292505  10.779   6.201  11.141
96870SOL     OW92506  12.828   7.969   1.521
96870SOL    HW192507  12.782   8.036   1.471
96870SOL    HW292508  12.846   8.009   1.606
96871SOL     OW92509   3.377  10.552   6.945
96871SOL    HW192510   3.317  10.568   6.873
96871SOL    HW292511   3.459  10.526   6.904
96872SOL     OW92512   1.529   4.345   8.470
96872SOL    HW192513   1.508   4.259   8.507
96872SOL    HW292514   1.601   4.378   8.524
96873SOL     OW92515  11.279   5.850   0.820
96873SOL    HW192516  11.197   5.848   0.772
96873SOL    HW292517  11.293   5.759   0.848
96874SOL     OW92518   0.501   0.011   2.531
96874SOL    HW192519   0.408   0.004   2.552
96874SOL    HW292520   0.539  14.816   2.561
96875SOL     OW92521   4.378   6.114  11.447
96875SOL    HW192522   4.371   6.094  11.540
96875SOL    HW292523   4.345   6.036  11.403
96876SOL     OW92524  11.738   4.652  10.719
96876SOL    HW192525  11.752   4.738  10.680
96876SOL    HW292526  11.797   4.594  10.671
96877SOL     OW92527   2.313   9.562   1.826
96877SOL    HW192528   2.262   9.622   1.771
96877SOL    HW292529   2.248   9.500   1.860
96878SOL     OW92530   8.125   6.358  10.202
96878SOL    HW192531   8.061   6.299  10.161
96878SOL    HW292532   8.193   6.300  10.235
96879SOL     OW92533  14.421   7.641   9.071
96879SOL    HW192534  14.387   7.723   9.105
96879SOL    HW292535  14.498   7.623   9.126
96880SOL     OW92536  14.719   6.450   6.831
96880SOL    HW192537  14.731   6.444   6.926
96880SOL    HW292538  14.653   6.383   6.811
96881SOL     OW92539   0.253   0.260   6.112
96881SOL    HW192540   0.283   0.205   6.040
96881SOL    HW292541   0.158   0.262   6.102
96882SOL     OW92542   4.756   3.636   8.305
96882SOL    HW192543   4.700   3.560   8.319
96882SOL    HW292544   4.839   3.614   8.348
96883SOL     OW92545   6.362   7.032   5.425
96883SOL    HW192546   6.449   7.073   5.420
96883SOL    HW292547   6.380   6.942   5.454
96884SOL     OW92548   6.299   5.022  13.050
96884SOL    HW192549   6.369   5.062  12.997
96884SOL    HW292550   6.319   4.929  13.050
96885SOL     OW92551   5.342   2.365   6.296
96885SOL    HW192552   5.257   2.322   6.295
96885SOL    HW292553   5.378   2.350   6.209
96886SOL     OW92554   7.214   9.208  12.550
96886SOL    HW192555   7.268   9.188  12.473
96886SOL    HW292556   7.236   9.139  12.613
96887SOL     OW92557  13.522   3.383   3.933
96887SOL    HW192558  13.448   3.424   3.887
96887SOL    HW292559  13.597   3.437   3.909
96888SOL     OW92560   2.592   3.978   8.055
96888SOL    HW192561   2.626   3.934   8.133
96888SOL    HW292562   2.534   4.046   8.089
96889SOL     OW92563   8.100  14.012   8.757
96889SOL    HW192564   8.075  14.104   8.770
96889SOL    HW292565   8.017  13.964   8.758
96890SOL     OW92566   9.209   4.034  11.049
96890SOL    HW192567   9.123   4.040  11.008
96890SOL    HW292568   9.271   4.037  10.976
96891SOL     OW92569  10.672  13.705   6.675
96891SOL    HW192570  10.604  13.751   6.725
96891SOL    HW292571  10.749  13.710   6.731
96892SOL     OW92572  13.112   1.835   2.787
96892SOL    HW192573  13.018   1.835   2.769
96892SOL    HW292574  13.126   1.761   2.847
96893SOL     OW92575  11.038   6.883  12.414
96893SOL    HW192576  11.011   6.912  12.501
96893SOL    HW292577  10.958   6.849  12.374
96894SOL     OW92578   1.703  13.413  12.032
96894SOL    HW192579   1.750  13.344  11.985
96894SOL    HW292580   1.652  13.458  11.965
96895SOL     OW92581   1.420   4.861   3.804
96895SOL    HW192582   1.399   4.807   3.728
96895SOL    HW292583   1.391   4.949   3.780
96896SOL     OW92584   6.634   2.471  11.970
96896SOL    HW192585   6.633   2.420  12.051
96896SOL    HW292586   6.544   2.464  11.937
96897SOL     OW92587   4.729   0.777  10.011
96897SOL    HW192588   4.777   0.827   9.944
96897SOL    HW292589   4.671   0.720   9.960
96898SOL     OW92590  12.698   7.725   0.926
96898SOL    HW192591  12.743   7.809   0.923
96898SOL    HW292592  12.622   7.736   0.868
96899SOL     OW92593  12.809  11.098   6.825
96899SOL    HW192594  12.734  11.062   6.778
96899SOL    HW292595  12.881  11.093   6.762
96900SOL     OW92596   1.202  11.641  14.077
96900SOL    HW192597   1.179  11.599  14.160
96900SOL    HW292598   1.263  11.580  14.036
96901SOL     OW92599   3.422   0.368   3.314
96901SOL    HW192600   3.489   0.332   3.372
96901SOL    HW292601   3.467   0.384   3.231
96902SOL     OW92602   4.058   6.285   7.446
96902SOL    HW192603   4.042   6.252   7.534
96902SOL    HW292604   4.153   6.295   7.442
96903SOL     OW92605  10.447   1.363  12.321
96903SOL    HW192606  10.361   1.347  12.361
96903SOL    HW292607  10.507   1.306  12.369
96904SOL     OW92608   7.444   6.791   1.998
96904SOL    HW192609   7.467   6.706   2.038
96904SOL    HW292610   7.443   6.852   2.072
96905SOL     OW92611   2.625   1.117  14.375
96905SOL    HW192612   2.663   1.039  14.335
96905SOL    HW292613   2.552   1.085  14.427
96906SOL     OW92614  14.730  12.265  10.555
96906SOL    HW192615  14.718  12.340  10.497
96906SOL    HW292616  14.659  12.272  10.618
96907SOL     OW92617   5.705  12.786  14.349
96907SOL    HW192618   5.732  12.694  14.351
96907SOL    HW292619   5.728  12.819  14.436
96908SOL     OW92620  14.220   6.701   9.397
96908SOL    HW192621  14.127   6.720   9.401
96908SOL    HW292622  14.263   6.785   9.410
96909SOL     OW92623  12.434   5.490  11.967
96909SOL    HW192624  12.410   5.575  12.003
96909SOL    HW292625  12.353   5.438  11.972
96910SOL     OW92626  13.538   9.615   3.966
96910SOL    HW192627  13.606   9.683   3.971
96910SOL    HW292628  13.486   9.639   3.890
96911SOL     OW92629   4.001   6.467   4.140
96911SOL    HW192630   3.949   6.477   4.060
96911SOL    HW292631   3.971   6.385   4.178
96912SOL     OW92632  10.061  13.630   4.053
96912SOL    HW192633  10.114  13.675   3.987
96912SOL    HW292634  10.109  13.642   4.135
96913SOL     OW92635  14.366   9.596   7.972
96913SOL    HW192636  14.433   9.655   8.009
96913SOL    HW292637  14.408   9.558   7.895
96914SOL     OW92638   3.479   9.715   5.624
96914SOL    HW192639   3.469   9.764   5.543
96914SOL    HW292640   3.402   9.658   5.627
96915SOL     OW92641  11.293   3.311   4.388
96915SOL    HW192642  11.216   3.264   4.421
96915SOL    HW292643  11.258   3.395   4.358
96916SOL     OW92644   8.786  14.857   6.151
96916SOL    HW192645   8.853   0.015   6.203
96916SOL    HW292646   8.757   0.036   6.087
96917SOL     OW92647   9.539   5.566   5.476
96917SOL    HW192648   9.603   5.512   5.522
96917SOL    HW292649   9.590   5.635   5.435
96918SOL     OW92650  14.318   2.371   0.999
96918SOL    HW192651  14.264   2.427   1.055
96918SOL    HW292652  14.408   2.386   1.028
96919SOL     OW92653  10.614   2.606   2.821
96919SOL    HW192654  10.639   2.602   2.913
96919SOL    HW292655  10.615   2.515   2.791
96920SOL     OW92656  10.778   3.036   4.281
96920SOL    HW192657  10.805   3.120   4.243
96920SOL    HW292658  10.729   3.059   4.359
96921SOL     OW92659   6.871   1.215   5.379
96921SOL    HW192660   6.816   1.292   5.392
96921SOL    HW292661   6.930   1.214   5.455
96922SOL     OW92662  10.099   0.469   2.889
96922SOL    HW192663  10.135   0.381   2.895
96922SOL    HW292664  10.005   0.456   2.876
96923SOL     OW92665   3.630   4.433   1.095
96923SOL    HW192666   3.694   4.420   1.025
96923SOL    HW292667   3.582   4.512   1.070
96924SOL     OW92668   4.181   4.673  10.738
96924SOL    HW192669   4.097   4.641  10.704
96924SOL    HW292670   4.159   4.717  10.820
96925SOL     OW92671  11.193  13.810   1.126
96925SOL    HW192672  11.149  13.725   1.136
96925SOL    HW292673  11.229  13.807   1.037
96926SOL     OW92674   9.500   0.413   3.056
96926SOL    HW192675   9.454   0.366   3.126
96926SOL    HW292676   9.433   0.470   3.018
96927SOL     OW92677  10.592  14.455   7.022
96927SOL    HW192678  10.592  14.527   7.085
96927SOL    HW292679  10.684  14.441   7.001
96928SOL     OW92680   0.465   8.499   4.951
96928SOL    HW192681   0.521   8.563   4.994
96928SOL    HW292682   0.467   8.522   4.859
96929SOL     OW92683   8.992  10.343   0.771
96929SOL    HW192684   8.924  10.277   0.757
96929SOL    HW292685   8.994  10.356   0.866
96930SOL     OW92686   5.683   4.337   3.769
96930SOL    HW192687   5.677   4.314   3.862
96930SOL    HW292688   5.639   4.422   3.762
96931SOL     OW92689   8.628  12.271   5.427
96931SOL    HW192690   8.677  12.191   5.406
96931SOL    HW292691   8.630  12.322   5.346
96932SOL     OW92692  11.916   6.865   7.074
96932SOL    HW192693  11.929   6.921   6.998
96932SOL    HW292694  11.979   6.897   7.138
96933SOL     OW92695   0.413   7.631   7.838
96933SOL    HW192696   0.389   7.574   7.911
96933SOL    HW292697   0.405   7.719   7.874
96934SOL     OW92698  12.506   8.291   4.055
96934SOL    HW192699  12.418   8.288   4.018
96934SOL    HW292700  12.563   8.271   3.981
96935SOL     OW92701  12.274  12.363   3.563
96935SOL    HW192702  12.350  12.306   3.573
96935SOL    HW292703  12.300  12.427   3.496
96936SOL     OW92704   3.393   5.398   4.202
96936SOL    HW192705   3.485   5.371   4.198
96936SOL    HW292706   3.378   5.444   4.119
96937SOL     OW92707  10.802   1.055  14.001
96937SOL    HW192708  10.718   1.087  14.034
96937SOL    HW292709  10.867   1.109  14.045
96938SOL     OW92710   4.830   9.043   1.598
96938SOL    HW192711   4.908   8.988   1.589
96938SOL    HW292712   4.861   9.120   1.645
96939SOL     OW92713   4.643   7.346   9.078
96939SOL    HW192714   4.642   7.319   9.170
96939SOL    HW292715   4.731   7.322   9.047
96940SOL     OW92716  11.739  13.854   3.373
96940SOL    HW192717  11.679  13.780   3.362
96940SOL    HW292718  11.683  13.928   3.397
96941SOL     OW92719   5.032   0.411  11.298
96941SOL    HW192720   4.988   0.327  11.287
96941SOL    HW292721   5.100   0.394  11.363
96942SOL     OW92722   9.850   4.396   7.537
96942SOL    HW192723   9.907   4.388   7.613
96942SOL    HW292724   9.767   4.426   7.573
96943SOL     OW92725   1.855   3.879   7.285
96943SOL    HW192726   1.766   3.892   7.252
96943SOL    HW292727   1.909   3.875   7.206
96944SOL     OW92728   4.297  11.191   2.028
96944SOL    HW192729   4.329  11.264   1.975
96944SOL    HW292730   4.301  11.223   2.118
96945SOL     OW92731   5.354  13.674  10.457
96945SOL    HW192732   5.368  13.753  10.406
96945SOL    HW292733   5.422  13.614  10.428
96946SOL     OW92734  12.547  12.126  10.994
96946SOL    HW192735  12.610  12.057  11.016
96946SOL    HW292736  12.501  12.093  10.917
96947SOL     OW92737  13.195   0.127   6.692
96947SOL    HW192738  13.154   0.194   6.637
96947SOL    HW292739  13.168   0.150   6.781
96948SOL     OW92740   3.392   2.306  11.292
96948SOL    HW192741   3.433   2.392  11.299
96948SOL    HW292742   3.406   2.280  11.201
96949SOL     OW92743   1.511   5.096   6.926
96949SOL    HW192744   1.553   5.125   7.007
96949SOL    HW292745   1.549   5.153   6.859
96950SOL     OW92746   3.232  11.575   1.505
96950SOL    HW192747   3.292  11.503   1.520
96950SOL    HW292748   3.166  11.566   1.574
96951SOL     OW92749   5.940   6.567   3.231
96951SOL    HW192750   5.934   6.480   3.271
96951SOL    HW292751   5.956   6.549   3.138
96952SOL     OW92752   9.797  11.613   6.853
96952SOL    HW192753   9.839  11.698   6.839
96952SOL    HW292754   9.864  11.560   6.897
96953SOL     OW92755   6.914   8.799  13.807
96953SOL    HW192756   6.950   8.746  13.736
96953SOL    HW292757   6.841   8.748  13.841
96954SOL     OW92758   1.603  12.632   2.194
96954SOL    HW192759   1.541  12.574   2.149
96954SOL    HW292760   1.570  12.720   2.177
96955SOL     OW92761   2.282   6.338   1.709
96955SOL    HW192762   2.200   6.384   1.725
96955SOL    HW292763   2.257   6.246   1.699
96956SOL     OW92764   9.921   8.720  13.893
96956SOL    HW192765   9.843   8.741  13.841
96956SOL    HW292766   9.969   8.656  13.841
96957SOL     OW92767   1.752   6.914  13.359
96957SOL    HW192768   1.751   6.819  13.342
96957SOL    HW292769   1.839   6.942  13.331
96958SOL     OW92770   6.780   9.115   5.746
96958SOL    HW192771   6.827   9.163   5.678
96958SOL    HW292772   6.849   9.078   5.801
96959SOL     OW92773   9.935   0.222   0.297
96959SOL    HW192774   9.976   0.144   0.258
96959SOL    HW292775   9.882   0.187   0.369
96960SOL     OW92776  11.453   9.636  12.388
96960SOL    HW192777  11.462   9.562  12.449
96960SOL    HW292778  11.503   9.609  12.311
96961SOL     OW92779   3.658   6.900  14.771
96961SOL    HW192780   3.612   6.964  14.716
96961SOL    HW292781   3.731   6.949  14.809
96962SOL     OW92782   8.022  14.687   8.630
96962SOL    HW192783   8.095  14.649   8.581
96962SOL    HW292784   8.031  14.782   8.617
96963SOL     OW92785  13.591   6.248   7.008
96963SOL    HW192786  13.545   6.308   7.066
96963SOL    HW292787  13.631   6.184   7.067
96964SOL     OW92788   3.320   2.070  12.355
96964SOL    HW192789   3.278   2.148  12.391
96964SOL    HW292790   3.295   2.069  12.262
96965SOL     OW92791  11.019   8.041   7.453
96965SOL    HW192792  10.937   8.090   7.452
96965SOL    HW292793  11.037   8.022   7.361
96966SOL     OW92794   6.713   0.157   3.286
96966SOL    HW192795   6.803   0.150   3.254
96966SOL    HW292796   6.684   0.243   3.257
96967SOL     OW92797  14.349   8.981  12.447
96967SOL    HW192798  14.381   9.071  12.451
96967SOL    HW292799  14.373   8.951  12.359
96968SOL     OW92800   0.805   8.856  12.885
96968SOL    HW192801   0.796   8.781  12.826
96968SOL    HW292802   0.792   8.932  12.829
96969SOL     OW92803  13.465  14.794  11.139
96969SOL    HW192804  13.455  14.712  11.092
96969SOL    HW292805  13.451  14.862  11.073
96970SOL     OW92806  13.342   7.806   5.492
96970SOL    HW192807  13.413   7.803   5.556
96970SOL    HW292808  13.316   7.898   5.488
96971SOL     OW92809  10.489   9.063   1.563
96971SOL    HW192810  10.474   9.155   1.584
96971SOL    HW292811  10.584   9.052   1.565
96972SOL     OW92812  10.912  10.482   4.553
96972SOL    HW192813  10.966  10.508   4.479
96972SOL    HW292814  10.857  10.559   4.570
96973SOL     OW92815   1.233   0.578   9.268
96973SOL    HW192816   1.302   0.565   9.202
96973SOL    HW292817   1.154   0.593   9.217
96974SOL     OW92818   5.958   7.961  11.544
96974SOL    HW192819   5.907   7.881  11.558
96974SOL    HW292820   6.027   7.957  11.611
96975SOL     OW92821   9.468   1.466   1.381
96975SOL    HW192822   9.486   1.379   1.416
96975SOL    HW292823   9.554   1.499   1.353
96976SOL     OW92824   7.880   7.830   9.076
96976SOL    HW192825   7.892   7.882   8.996
96976SOL    HW292826   7.785   7.820   9.084
96977SOL     OW92827  12.669   9.671   2.713
96977SOL    HW192828  12.758   9.702   2.727
96977SOL    HW292829  12.679   9.584   2.674
96978SOL     OW92830  10.135   3.074   6.502
96978SOL    HW192831  10.194   3.148   6.490
96978SOL    HW292832  10.064   3.108   6.557
96979SOL     OW92833   0.403   9.688  13.903
96979SOL    HW192834   0.348   9.759  13.871
96979SOL    HW292835   0.410   9.703  13.997
96980SOL     OW92836  11.383   9.675  10.306
96980SOL    HW192837  11.452   9.726  10.348
96980SOL    HW292838  11.424   9.638  10.228
96981SOL     OW92839   5.893   2.041   0.877
96981SOL    HW192840   5.869   1.961   0.925
96981SOL    HW292841   5.967   2.077   0.925
96982SOL     OW92842   8.426   3.213   2.638
96982SOL    HW192843   8.412   3.166   2.719
96982SOL    HW292844   8.340   3.249   2.615
96983SOL     OW92845   6.601   0.692  10.324
96983SOL    HW192846   6.544   0.689  10.248
96983SOL    HW292847   6.607   0.785  10.347
96984SOL     OW92848   5.987   3.346   4.298
96984SOL    HW192849   6.006   3.438   4.317
96984SOL    HW292850   5.957   3.310   4.382
96985SOL     OW92851  13.986   5.122   8.179
96985SOL    HW192852  13.894   5.101   8.198
96985SOL    HW292853  14.013   5.055   8.116
96986SOL     OW92854   2.642   0.091   0.139
96986SOL    HW192855   2.587   0.110   0.216
96986SOL    HW292856   2.581   0.091   0.066
96987SOL     OW92857  12.512   9.827  11.640
96987SOL    HW192858  12.570   9.813  11.565
96987SOL    HW292859  12.569   9.863  11.708
96988SOL     OW92860   2.021   6.960   5.322
96988SOL    HW192861   1.937   6.985   5.361
96988SOL    HW292862   1.998   6.913   5.242
96989SOL     OW92863   0.123   8.919  11.129
96989SOL    HW192864   0.153   9.006  11.156
96989SOL    HW292865   0.109   8.872  11.212
96990SOL     OW92866   4.255   7.269  13.085
96990SOL    HW192867   4.253   7.359  13.118
96990SOL    HW292868   4.230   7.276  12.993
96991SOL     OW92869   1.624   5.249  11.569
96991SOL    HW192870   1.562   5.305  11.521
96991SOL    HW292871   1.688   5.222  11.503
96992SOL     OW92872   6.133   1.677   9.453
96992SOL    HW192873   6.198   1.746   9.440
96992SOL    HW292874   6.058   1.704   9.400
96993SOL     OW92875   5.567   6.962  11.456
96993SOL    HW192876   5.648   6.913  11.471
96993SOL    HW292877   5.508   6.900  11.414
96994SOL     OW92878  11.436  13.025   6.071
96994SOL    HW192879  11.528  13.019   6.097
96994SOL    HW292880  11.408  13.111   6.103
96995SOL     OW92881   0.993   6.821   6.049
96995SOL    HW192882   1.019   6.758   6.116
96995SOL    HW292883   1.074   6.866   6.024
96996SOL     OW92884   8.704   2.892   1.988
96996SOL    HW192885   8.742   2.865   2.071
96996SOL    HW292886   8.727   2.822   1.927
96997SOL     OW92887   2.040   7.019   1.065
96997SOL    HW192888   1.989   7.001   1.144
96997SOL    HW292889   1.986   7.079   1.014
96998SOL     OW92890   1.087   7.032   6.314
96998SOL    HW192891   1.011   7.063   6.363
96998SOL    HW292892   1.088   7.085   6.234
96999SOL     OW92893   3.813   2.949   7.070
96999SOL    HW192894   3.790   3.039   7.094
96999SOL    HW292895   3.782   2.938   6.980
97000SOL     OW92896  11.128   4.146  13.069
97000SOL    HW192897  11.036   4.170  13.061
97000SOL    HW292898  11.175   4.228  13.053
97001SOL     OW92899   1.262   8.451   5.090
97001SOL    HW192900   1.283   8.358   5.093
97001SOL    HW292901   1.236   8.467   5.000
97002SOL     OW92902  12.335  10.134  13.112
97002SOL    HW192903  12.377  10.126  13.026
97002SOL    HW292904  12.368  10.217  13.147
97003SOL     OW92905   8.338   5.694  14.377
97003SOL    HW192906   8.346   5.769  14.435
97003SOL    HW292907   8.428   5.670  14.356
97004SOL     OW92908   2.867   1.320   0.344
97004SOL    HW192909   2.889   1.368   0.423
97004SOL    HW292910   2.826   1.385   0.287
97005SOL     OW92911   6.355   5.290   3.103
97005SOL    HW192912   6.288   5.232   3.066
97005SOL    HW292913   6.427   5.287   3.039
97006SOL     OW92914  10.849  11.701   7.335
97006SOL    HW192915  10.853  11.672   7.244
97006SOL    HW292916  10.763  11.742   7.343
97007SOL     OW92917   5.003   2.773   1.924
97007SOL    HW192918   5.061   2.832   1.972
97007SOL    HW292919   4.916   2.810   1.935
97008SOL     OW92920  14.805   5.390   0.016
97008SOL    HW192921  14.763   5.309   0.047
97008SOL    HW292922   0.010   5.380   0.040
97009SOL     OW92923   1.723   2.936   7.784
97009SOL    HW192924   1.644   2.894   7.818
97009SOL    HW292925   1.693   2.991   7.712
97010SOL     OW92926  14.562  13.583   2.340
97010SOL    HW192927  14.588  13.535   2.420
97010SOL    HW292928  14.637  13.638   2.320
97011SOL     OW92929   5.333   3.650   6.554
97011SOL    HW192930   5.343   3.705   6.476
97011SOL    HW292931   5.422   3.640   6.587
97012SOL     OW92932  10.779   5.761  12.962
97012SOL    HW192933  10.774   5.758  12.866
97012SOL    HW292934  10.691   5.736  12.990
97013SOL     OW92935   3.962   6.303   3.482
97013SOL    HW192936   3.981   6.345   3.399
97013SOL    HW292937   4.016   6.349   3.546
97014SOL     OW92938   2.504   5.607  13.115
97014SOL    HW192939   2.476   5.586  13.026
97014SOL    HW292940   2.593   5.641  13.105
97015SOL     OW92941   3.469  13.105   2.219
97015SOL    HW192942   3.408  13.032   2.215
97015SOL    HW292943   3.538  13.083   2.156
97016SOL     OW92944   5.594   1.786   5.833
97016SOL    HW192945   5.627   1.873   5.855
97016SOL    HW292946   5.575   1.745   5.917
97017SOL     OW92947   7.318   3.880   7.391
97017SOL    HW192948   7.304   3.908   7.301
97017SOL    HW292949   7.335   3.786   7.385
97018SOL     OW92950   2.013   6.222  10.586
97018SOL    HW192951   1.959   6.242  10.661
97018SOL    HW292952   2.099   6.202  10.622
97019SOL     OW92953   2.144   8.415  11.400
97019SOL    HW192954   2.155   8.491  11.457
97019SOL    HW292955   2.059   8.379  11.424
97020SOL     OW92956   2.390   7.992   0.358
97020SOL    HW192957   2.373   8.032   0.272
97020SOL    HW292958   2.409   8.066   0.416
97021SOL     OW92959   3.673  11.694  11.338
97021SOL    HW192960   3.613  11.685  11.264
97021SOL    HW292961   3.631  11.646  11.409
97022SOL     OW92962  10.505   8.078   6.469
97022SOL    HW192963  10.529   8.085   6.561
97022SOL    HW292964  10.588   8.068   6.423
97023SOL     OW92965  10.907  12.891   4.374
97023SOL    HW192966  10.847  12.929   4.309
97023SOL    HW292967  10.879  12.800   4.383
97024SOL     OW92968  13.428   3.202  12.842
97024SOL    HW192969  13.448   3.212  12.935
97024SOL    HW292970  13.454   3.285  12.803
97025SOL     OW92971   7.911   1.994   3.393
97025SOL    HW192972   7.915   1.900   3.409
97025SOL    HW292973   7.913   2.034   3.480
97026SOL     OW92974   8.223   4.363   0.276
97026SOL    HW192975   8.179   4.314   0.207
97026SOL    HW292976   8.157   4.374   0.344
97027SOL     OW92977  13.637   7.632   9.144
97027SOL    HW192978  13.668   7.618   9.055
97027SOL    HW292979  13.698   7.584   9.200
97028SOL     OW92980  13.693   5.600   9.920
97028SOL    HW192981  13.757   5.546   9.874
97028SOL    HW292982  13.650   5.540   9.980
97029SOL     OW92983   9.666   4.721  11.342
97029SOL    HW192984   9.584   4.769  11.333
97029SOL    HW292985   9.708   4.759  11.419
97030SOL     OW92986   1.374  13.219   7.416
97030SOL    HW192987   1.378  13.150   7.350
97030SOL    HW292988   1.317  13.286   7.377
97031SOL     OW92989   3.105  13.729   6.186
97031SOL    HW192990   3.053  13.758   6.111
97031SOL    HW292991   3.050  13.745   6.262
97032SOL     OW92992   0.463   2.186  13.523
97032SOL    HW192993   0.405   2.184  13.448
97032SOL    HW292994   0.421   2.245  13.586
97033SOL     OW92995  10.651   0.719   8.849
97033SOL    HW192996  10.693   0.780   8.909
97033SOL    HW292997  10.703   0.639   8.856
97034SOL     OW92998   1.767  12.918  13.398
97034SOL    HW192999   1.813  12.839  13.427
97034SOL    HW293000   1.705  12.936  13.469
97035SOL     OW93001   2.406   8.187  13.496
97035SOL    HW193002   2.385   8.232  13.414
97035SOL    HW293003   2.487   8.229  13.526
97036SOL     OW93004   2.711   5.752   5.631
97036SOL    HW193005   2.793   5.771   5.585
97036SOL    HW293006   2.694   5.660   5.611
97037SOL     OW93007   6.348   5.641   4.865
97037SOL    HW193008   6.433   5.618   4.828
97037SOL    HW293009   6.368   5.703   4.936
97038SOL     OW93010  12.211   7.418   7.618
97038SOL    HW193011  12.304   7.440   7.625
97038SOL    HW293012  12.165   7.502   7.623
97039SOL     OW93013   8.205   6.785   3.227
97039SOL    HW193014   8.141   6.843   3.267
97039SOL    HW293015   8.226   6.825   3.143
97040SOL     OW93016  10.061  14.505   3.438
97040SOL    HW193017  10.054  14.601   3.443
97040SOL    HW293018  10.112  14.489   3.358
97041SOL     OW93019   7.694  12.162   3.404
97041SOL    HW193020   7.744  12.115   3.471
97041SOL    HW293021   7.631  12.097   3.372
97042SOL     OW93022   5.619   6.540  14.785
97042SOL    HW193023   5.594   6.563  14.695
97042SOL    HW293024   5.696   6.484  14.774
97043SOL     OW93025   9.230   4.654  11.436
97043SOL    HW193026   9.215   4.699  11.519
97043SOL    HW293027   9.293   4.710  11.389
97044SOL     OW93028   1.941  12.483  12.221
97044SOL    HW193029   1.932  12.574  12.251
97044SOL    HW293030   2.035  12.469  12.214
97045SOL     OW93031   6.069   5.932   3.844
97045SOL    HW193032   6.080   5.859   3.784
97045SOL    HW293033   6.008   5.899   3.911
97046SOL     OW93034   3.948  14.154   0.125
97046SOL    HW193035   3.865  14.109   0.110
97046SOL    HW293036   3.976  14.125   0.212
97047SOL     OW93037   5.217  13.281   2.980
97047SOL    HW193038   5.299  13.318   3.014
97047SOL    HW293039   5.205  13.324   2.896
97048SOL     OW93040  11.116   3.201  11.345
97048SOL    HW193041  11.066   3.215  11.265
97048SOL    HW293042  11.129   3.289  11.381
97049SOL     OW93043  11.940   3.137   7.605
97049SOL    HW193044  11.894   3.159   7.524
97049SOL    HW293045  11.977   3.050   7.589
97050SOL     OW93046   8.073  12.564   3.335
97050SOL    HW193047   8.154  12.522   3.307
97050SOL    HW293048   8.009  12.492   3.339
97051SOL     OW93049   7.791   2.545  14.304
97051SOL    HW193050   7.759   2.475  14.360
97051SOL    HW293051   7.802   2.504  14.218
97052SOL     OW93052   4.309  11.889  14.840
97052SOL    HW193053   4.337  11.854  14.755
97052SOL    HW293054   4.322  11.817   0.014
97053SOL     OW93055   9.913   9.309  14.674
97053SOL    HW193056   9.971   9.278  14.743
97053SOL    HW293057   9.827   9.312  14.715
97054SOL     OW93058  12.471   0.086   4.075
97054SOL    HW193059  12.543   0.138   4.110
97054SOL    HW293060  12.478   0.096   3.980
97055SOL     OW93061  11.865   8.916  14.285
97055SOL    HW193062  11.845   8.933  14.192
97055SOL    HW293063  11.839   8.996  14.330
97056SOL     OW93064   5.477   7.798  11.989
97056SOL    HW193065   5.483   7.858  11.914
97056SOL    HW293066   5.422   7.726  11.958
97057SOL     OW93067   6.750  12.042  14.341
97057SOL    HW193068   6.796  12.087  14.269
97057SOL    HW293069   6.819  12.024  14.405
97058SOL     OW93070   0.312  14.010   0.341
97058SOL    HW193071   0.285  14.060   0.418
97058SOL    HW293072   0.341  13.926   0.375
97059SOL     OW93073   6.661   8.005   7.049
97059SOL    HW193074   6.663   8.098   7.024
97059SOL    HW293075   6.752   7.976   7.040
97060SOL     OW93076  12.678   9.625   4.408
97060SOL    HW193077  12.598   9.664   4.445
97060SOL    HW293078  12.742   9.631   4.479
97061SOL     OW93079  14.267   2.292  11.278
97061SOL    HW193080  14.189   2.327  11.321
97061SOL    HW293081  14.275   2.342  11.197
97062SOL     OW93082   4.294   9.033   6.587
97062SOL    HW193083   4.274   9.070   6.673
97062SOL    HW293084   4.220   8.976   6.568
97063SOL     OW93085   1.408  14.520  10.660
97063SOL    HW193086   1.438  14.432  10.687
97063SOL    HW293087   1.362  14.506  10.578
97064SOL     OW93088  11.991   3.056   5.105
97064SOL    HW193089  12.061   3.002   5.069
97064SOL    HW293090  12.025   3.145   5.104
97065SOL     OW93091   7.360   1.352  14.324
97065SOL    HW193092   7.355   1.353  14.228
97065SOL    HW293093   7.297   1.284  14.350
97066SOL     OW93094   2.585   3.055   2.371
97066SOL    HW193095   2.550   3.124   2.315
97066SOL    HW293096   2.678   3.049   2.347
97067SOL     OW93097   4.010  11.407   2.499
97067SOL    HW193098   3.959  11.365   2.568
97067SOL    HW293099   3.946  11.429   2.431
97068SOL     OW93100   4.094   9.344  10.483
97068SOL    HW193101   4.154   9.339  10.558
97068SOL    HW293102   4.130   9.282  10.420
97069SOL     OW93103  13.981   3.291   1.374
97069SOL    HW193104  13.989   3.296   1.278
97069SOL    HW293105  14.024   3.209   1.397
97070SOL     OW93106   6.039  13.780   1.992
97070SOL    HW193107   6.061  13.687   1.982
97070SOL    HW293108   6.080  13.823   1.918
97071SOL     OW93109   8.867   8.552   4.356
97071SOL    HW193110   8.905   8.594   4.433
97071SOL    HW293111   8.942   8.518   4.307
97072SOL     OW93112  12.088   6.391  11.604
97072SOL    HW193113  12.160   6.454  11.605
97072SOL    HW293114  12.122   6.314  11.650
97073SOL     OW93115   1.437   4.425   5.642
97073SOL    HW193116   1.360   4.396   5.593
97073SOL    HW293117   1.484   4.344   5.662
97074SOL     OW93118   8.189   8.963  14.317
97074SOL    HW193119   8.275   8.927  14.295
97074SOL    HW293120   8.207   9.054  14.340
97075SOL     OW93121   1.352  10.230  11.971
97075SOL    HW193122   1.291  10.298  11.999
97075SOL    HW293123   1.420  10.229  12.038
97076SOL     OW93124   7.796   8.661  10.859
97076SOL    HW193125   7.768   8.734  10.914
97076SOL    HW293126   7.829   8.595  10.920
97077SOL     OW93127  10.447   4.244  12.664
97077SOL    HW193128  10.369   4.274  12.711
97077SOL    HW293129  10.425   4.154  12.638
97078SOL     OW93130   9.828  10.309  10.622
97078SOL    HW193131   9.920  10.309  10.594
97078SOL    HW293132   9.786  10.242  10.568
97079SOL     OW93133  10.622   2.695   6.553
97079SOL    HW193134  10.707   2.711   6.512
97079SOL    HW293135  10.595   2.609   6.522
97080SOL     OW93136  10.695  13.283  13.203
97080SOL    HW193137  10.636  13.354  13.179
97080SOL    HW293138  10.755  13.276  13.129
97081SOL     OW93139  12.936  12.900  11.137
97081SOL    HW193140  12.937  12.867  11.047
97081SOL    HW293141  12.958  12.824  11.191
97082SOL     OW93142   8.053   1.173   6.029
97082SOL    HW193143   8.112   1.153   5.956
97082SOL    HW293144   8.112   1.192   6.102
97083SOL     OW93145   5.160   7.302  13.877
97083SOL    HW193146   5.213   7.260  13.944
97083SOL    HW293147   5.222   7.350  13.822
97084SOL     OW93148  14.862   0.211   4.570
97084SOL    HW193149  14.831   0.285   4.622
97084SOL    HW293150  14.877   0.248   4.483
97085SOL     OW93151  14.139   4.574   7.046
97085SOL    HW193152  14.220   4.523   7.038
97085SOL    HW293153  14.069   4.509   7.042
97086SOL     OW93154   8.906  10.872  12.505
97086SOL    HW193155   8.847  10.831  12.568
97086SOL    HW293156   8.912  10.810  12.433
97087SOL     OW93157  12.865   6.460   3.657
97087SOL    HW193158  12.849   6.493   3.569
97087SOL    HW293159  12.785   6.482   3.705
97088SOL     OW93160  11.553   3.150   0.258
97088SOL    HW193161  11.459   3.154   0.273
97088SOL    HW293162  11.585   3.237   0.282
97089SOL     OW93163  12.669  11.089   0.788
97089SOL    HW193164  12.607  11.027   0.827
97089SOL    HW293165  12.619  11.169   0.775
97090SOL     OW93166   0.501   1.602   1.406
97090SOL    HW193167   0.496   1.580   1.313
97090SOL    HW293168   0.579   1.657   1.413
97091SOL     OW93169  14.250   8.113   3.705
97091SOL    HW193170  14.266   8.207   3.700
97091SOL    HW293171  14.174   8.098   3.649
97092SOL     OW93172  10.804  10.359   0.506
97092SOL    HW193173  10.806  10.416   0.429
97092SOL    HW293174  10.713  10.333   0.514
97093SOL     OW93175   0.847   2.470   3.195
97093SOL    HW193176   0.918   2.409   3.174
97093SOL    HW293177   0.854   2.539   3.129
97094SOL     OW93178   8.680   5.284   9.493
97094SOL    HW193179   8.684   5.380   9.494
97094SOL    HW293180   8.594   5.265   9.455
97095SOL     OW93181   2.378  10.141  10.370
97095SOL    HW193182   2.458  10.144  10.316
97095SOL    HW293183   2.389  10.063  10.424
97096SOL     OW93184   5.676  13.898  10.073
97096SOL    HW193185   5.619  13.878   9.998
97096SOL    HW293186   5.752  13.942  10.034
97097SOL     OW93187  14.257   1.669   1.865
97097SOL    HW193188  14.239   1.752   1.909
97097SOL    HW293189  14.173   1.643   1.828
97098SOL     OW93190  12.217  14.455  13.723
97098SOL    HW193191  12.246  14.536  13.763
97098SOL    HW293192  12.135  14.433  13.768
97099SOL     OW93193   1.093   0.416  11.544
97099SOL    HW193194   1.097   0.341  11.485
97099SOL    HW293195   1.050   0.484  11.493
97100SOL     OW93196   7.782   2.825   5.551
97100SOL    HW193197   7.847   2.773   5.505
97100SOL    HW293198   7.713   2.763   5.574
97101SOL     OW93199  12.931   5.810   7.332
97101SOL    HW193200  12.935   5.715   7.337
97101SOL    HW293201  12.876   5.835   7.406
97102SOL     OW93202   0.333   7.360  12.491
97102SOL    HW193203   0.279   7.431  12.455
97102SOL    HW293204   0.362   7.311  12.414
97103SOL     OW93205  12.967   2.447   7.836
97103SOL    HW193206  12.944   2.356   7.815
97103SOL    HW293207  12.946   2.495   7.756
97104SOL     OW93208   8.023   6.932   3.583
97104SOL    HW193209   8.092   6.976   3.633
97104SOL    HW293210   8.036   6.839   3.600
97105SOL     OW93211   2.429   2.945   6.448
97105SOL    HW193212   2.504   2.970   6.502
97105SOL    HW293213   2.358   2.932   6.510
97106SOL     OW93214   4.794  11.211   0.596
97106SOL    HW193215   4.808  11.130   0.646
97106SOL    HW293216   4.798  11.281   0.662
97107SOL     OW93217   6.017  14.834  13.009
97107SOL    HW193218   6.057  14.833  13.096
97107SOL    HW293219   6.057  14.759  12.964
97108SOL     OW93220   0.209  12.473   5.060
97108SOL    HW193221   0.229  12.439   4.973
97108SOL    HW293222   0.287  12.523   5.085
97109SOL     OW93223   0.202  11.985   5.074
97109SOL    HW193224   0.227  12.016   4.987
97109SOL    HW293225   0.181  11.892   5.061
97110SOL     OW93226  10.422   2.700  12.052
97110SOL    HW193227  10.336   2.714  12.014
97110SOL    HW293228  10.477   2.675  11.978
97111SOL     OW93229   9.052   7.556   7.434
97111SOL    HW193230   8.996   7.538   7.509
97111SOL    HW293231   9.013   7.506   7.362
97112SOL     OW93232   6.462   1.181   5.422
97112SOL    HW193233   6.510   1.099   5.416
97112SOL    HW293234   6.390   1.172   5.359
97113SOL     OW93235   8.508   1.021   2.109
97113SOL    HW193236   8.417   1.031   2.135
97113SOL    HW293237   8.538   0.942   2.153
97114SOL     OW93238  13.361  12.548   4.257
97114SOL    HW193239  13.452  12.573   4.241
97114SOL    HW293240  13.309  12.609   4.204
97115SOL     OW93241  14.597  14.248  11.890
97115SOL    HW193242  14.679  14.218  11.852
97115SOL    HW293243  14.530  14.218  11.828
97116SOL     OW93244   8.184  13.468   0.674
97116SOL    HW193245   8.128  13.484   0.749
97116SOL    HW293246   8.145  13.518   0.603
97117SOL     OW93247   6.441  10.863   2.487
97117SOL    HW193248   6.501  10.805   2.534
97117SOL    HW293249   6.479  10.950   2.499
97118SOL     OW93250  12.207   5.101  10.864
97118SOL    HW193251  12.273   5.033  10.873
97118SOL    HW293252  12.209   5.148  10.947
97119SOL     OW93253   5.133   9.688   9.484
97119SOL    HW193254   5.195   9.658   9.418
97119SOL    HW293255   5.178   9.759   9.529
97120SOL     OW93256  10.722   9.824  14.341
97120SOL    HW193257  10.721   9.918  14.321
97120SOL    HW293258  10.636   9.793  14.314
97121SOL     OW93259   1.842   8.972   3.695
97121SOL    HW193260   1.837   8.993   3.602
97121SOL    HW293261   1.778   8.902   3.707
97122SOL     OW93262  11.789   8.368   6.007
97122SOL    HW193263  11.856   8.410   6.061
97122SOL    HW293264  11.746   8.305   6.066
97123SOL     OW93265   0.653   3.887  11.624
97123SOL    HW193266   0.680   3.880  11.716
97123SOL    HW293267   0.730   3.921  11.579
97124SOL     OW93268   8.344  14.531   3.371
97124SOL    HW193269   8.276  14.468   3.397
97124SOL    HW293270   8.305  14.580   3.298
97125SOL     OW93271   4.806   3.712   0.216
97125SOL    HW193272   4.718   3.741   0.240
97125SOL    HW293273   4.837   3.664   0.292
97126SOL     OW93274  11.168   3.485   0.323
97126SOL    HW193275  11.117   3.420   0.275
97126SOL    HW293276  11.113   3.508   0.398
97127SOL     OW93277  13.903   8.215   6.445
97127SOL    HW193278  13.868   8.303   6.431
97127SOL    HW293279  13.829   8.157   6.425
97128SOL     OW93280  14.258   5.628   3.949
97128SOL    HW193281  14.209   5.701   3.989
97128SOL    HW293282  14.346   5.634   3.988
97129SOL     OW93283   6.709   2.240   3.470
97129SOL    HW193284   6.739   2.309   3.529
97129SOL    HW293285   6.646   2.190   3.522
97130SOL     OW93286   9.348  10.767   1.220
97130SOL    HW193287   9.257  10.737   1.228
97130SOL    HW293288   9.344  10.841   1.159
97131SOL     OW93289   8.671   8.372  14.348
97131SOL    HW193290   8.679   8.301  14.284
97131SOL    HW293291   8.621   8.439  14.303
97132SOL     OW93292   1.403   1.968  10.219
97132SOL    HW193293   1.454   1.954  10.138
97132SOL    HW293294   1.318   1.929  10.201
97133SOL     OW93295   1.107   2.288   2.141
97133SOL    HW193296   1.026   2.331   2.115
97133SOL    HW293297   1.173   2.358   2.137
97134SOL     OW93298   0.185  10.279   3.223
97134SOL    HW193299   0.268  10.305   3.182
97134SOL    HW293300   0.207  10.202   3.276
97135SOL     OW93301  10.942   8.357   4.788
97135SOL    HW193302  10.871   8.396   4.839
97135SOL    HW293303  10.900   8.288   4.738
97136SOL     OW93304   1.155   8.107   4.960
97136SOL    HW193305   1.067   8.084   4.989
97136SOL    HW293306   1.141   8.177   4.896
97137SOL     OW93307  10.838   1.570   3.924
97137SOL    HW193308  10.761   1.520   3.899
97137SOL    HW293309  10.822   1.594   4.015
97138SOL     OW93310   7.609   6.324  12.774
97138SOL    HW193311   7.614   6.234  12.742
97138SOL    HW293312   7.700   6.352  12.784
97139SOL     OW93313   6.260   7.263   1.752
97139SOL    HW193314   6.235   7.294   1.840
97139SOL    HW293315   6.202   7.311   1.693
97140SOL     OW93316   0.942   0.808  10.870
97140SOL    HW193317   0.928   0.754  10.948
97140SOL    HW293318   0.991   0.752  10.810
97141SOL     OW93319  14.162   9.810   7.333
97141SOL    HW193320  14.212   9.731   7.354
97141SOL    HW293321  14.137   9.799   7.241
97142SOL     OW93322  11.476   0.905   5.477
97142SOL    HW193323  11.408   0.960   5.439
97142SOL    HW293324  11.552   0.963   5.486
97143SOL     OW93325   6.563   2.795  13.478
97143SOL    HW193326   6.469   2.781  13.475
97143SOL    HW293327   6.573   2.888  13.498
97144SOL     OW93328   5.371   0.451   0.610
97144SOL    HW193329   5.306   0.519   0.591
97144SOL    HW293330   5.366   0.392   0.535
97145SOL     OW93331   1.473   6.192   5.339
97145SOL    HW193332   1.460   6.144   5.421
97145SOL    HW293333   1.448   6.129   5.271
97146SOL     OW93334   8.749   3.398   5.074
97146SOL    HW193335   8.688   3.334   5.036
97146SOL    HW293336   8.779   3.356   5.154
97147SOL     OW93337   4.869   5.020  11.367
97147SOL    HW193338   4.881   5.093  11.428
97147SOL    HW293339   4.921   4.949  11.405
97148SOL     OW93340  11.947  12.641  13.188
97148SOL    HW193341  11.909  12.721  13.151
97148SOL    HW293342  11.953  12.658  13.282
97149SOL     OW93343  10.150   6.229   4.271
97149SOL    HW193344  10.216   6.164   4.296
97149SOL    HW293345  10.124   6.203   4.182
97150SOL     OW93346  13.254   8.004  11.480
97150SOL    HW193347  13.216   8.083  11.441
97150SOL    HW293348  13.190   7.935  11.463
97151SOL     OW93349  13.275   3.840  10.669
97151SOL    HW193350  13.287   3.886  10.586
97151SOL    HW293351  13.192   3.872  10.704
97152SOL     OW93352  12.205  13.429   8.635
97152SOL    HW193353  12.131  13.449   8.693
97152SOL    HW293354  12.217  13.335   8.642
97153SOL     OW93355   5.438   1.735  14.027
97153SOL    HW193356   5.497   1.661  14.010
97153SOL    HW293357   5.360   1.717  13.975
97154SOL     OW93358  12.407   4.087   5.829
97154SOL    HW193359  12.357   4.060   5.906
97154SOL    HW293360  12.342   4.090   5.758
97155SOL     OW93361   7.483   5.294   8.336
97155SOL    HW193362   7.405   5.244   8.362
97155SOL    HW293363   7.511   5.254   8.254
97156SOL     OW93364   9.740   7.152   0.639
97156SOL    HW193365   9.779   7.219   0.695
97156SOL    HW293366   9.646   7.159   0.656
97157SOL     OW93367   6.499  14.633  14.609
97157SOL    HW193368   6.477  14.597  14.523
97157SOL    HW293369   6.592  14.614  14.620
97158SOL     OW93370  13.303   2.828   7.180
97158SOL    HW193371  13.365   2.790   7.117
97158SOL    HW293372  13.359   2.872   7.244
97159SOL     OW93373   0.085   1.352   5.666
97159SOL    HW193374   0.030   1.344   5.743
97159SOL    HW293375   0.067   1.274   5.614
97160SOL     OW93376   4.845   2.230   5.537
97160SOL    HW193377   4.798   2.293   5.482
97160SOL    HW293378   4.916   2.198   5.481
97161SOL     OW93379   9.280  11.940   7.215
97161SOL    HW193380   9.370  11.961   7.191
97161SOL    HW293381   9.239  11.913   7.133
97162SOL     OW93382   8.745  11.141  14.027
97162SOL    HW193383   8.739  11.149  14.122
97162SOL    HW293384   8.669  11.188  13.994
97163SOL     OW93385   3.212  13.064   3.577
97163SOL    HW193386   3.202  13.049   3.671
97163SOL    HW293387   3.306  13.073   3.564
97164SOL     OW93388  10.148  11.463   3.545
97164SOL    HW193389  10.071  11.507   3.510
97164SOL    HW293390  10.142  11.374   3.510
97165SOL     OW93391   2.279   3.264   6.228
97165SOL    HW193392   2.257   3.284   6.137
97165SOL    HW293393   2.371   3.239   6.226
97166SOL     OW93394  10.587   4.946   9.546
97166SOL    HW193395  10.632   5.021   9.585
97166SOL    HW293396  10.504   4.940   9.592
97167SOL     OW93397  10.166   6.473  11.481
97167SOL    HW193398  10.183   6.379  11.475
97167SOL    HW293399  10.192   6.508  11.396
97168SOL     OW93400  10.259  14.427  13.821
97168SOL    HW193401  10.261  14.369  13.897
97168SOL    HW293402  10.179  14.478  13.831
97169SOL     OW93403   6.521   2.256  12.545
97169SOL    HW193404   6.541   2.194  12.615
97169SOL    HW293405   6.436   2.227  12.511
97170SOL     OW93406  11.261   2.623   0.649
97170SOL    HW193407  11.231   2.713   0.635
97170SOL    HW293408  11.347   2.634   0.690
97171SOL     OW93409   1.268  12.781   9.894
97171SOL    HW193410   1.328  12.822   9.831
97171SOL    HW293411   1.295  12.689   9.896
97172SOL     OW93412  12.672   4.245   3.957
97172SOL    HW193413  12.645   4.315   4.017
97172SOL    HW293414  12.600   4.182   3.959
97173SOL     OW93415  14.046   0.749  13.784
97173SOL    HW193416  13.986   0.818  13.809
97173SOL    HW293417  14.037   0.741  13.689
97174SOL     OW93418   6.845  12.892   4.311
97174SOL    HW193419   6.847  12.813   4.366
97174SOL    HW293420   6.797  12.956   4.363
97175SOL     OW93421   8.343   2.627   7.294
97175SOL    HW193422   8.282   2.598   7.227
97175SOL    HW293423   8.362   2.718   7.272
97176SOL     OW93424  10.002  13.141  10.574
97176SOL    HW193425  10.031  13.056  10.542
97176SOL    HW293426   9.906  13.134  10.578
97177SOL     OW93427   4.003   7.542  10.876
97177SOL    HW193428   4.049   7.459  10.875
97177SOL    HW293429   3.970   7.551  10.965
97178SOL     OW93430  13.930   6.676   0.994
97178SOL    HW193431  13.939   6.587   0.961
97178SOL    HW293432  14.011   6.693   1.041
97179SOL     OW93433  13.540   4.796   3.378
97179SOL    HW193434  13.595   4.774   3.453
97179SOL    HW293435  13.460   4.745   3.392
97180SOL     OW93436  11.618   1.289  11.316
97180SOL    HW193437  11.536   1.320  11.278
97180SOL    HW293438  11.685   1.318  11.254
97181SOL     OW93439   3.773  13.658   7.040
97181SOL    HW193440   3.744  13.747   7.062
97181SOL    HW293441   3.714  13.631   6.971
97182SOL     OW93442   0.063   3.850  11.724
97182SOL    HW193443   0.064   3.936  11.682
97182SOL    HW293444  14.859   3.837  11.750
97183SOL     OW93445  11.876   9.187   7.687
97183SOL    HW193446  11.920   9.189   7.602
97183SOL    HW293447  11.783   9.176   7.666
97184SOL     OW93448   9.045   2.694   5.097
97184SOL    HW193449   9.082   2.712   5.011
97184SOL    HW293450   8.958   2.658   5.079
97185SOL     OW93451   4.746  10.022  14.528
97185SOL    HW193452   4.738   9.933  14.564
97185SOL    HW293453   4.659  10.060  14.540
97186SOL     OW93454   2.106   9.138   7.469
97186SOL    HW193455   2.044   9.209   7.450
97186SOL    HW293456   2.116   9.141   7.564
97187SOL     OW93457  14.463  11.310   5.658
97187SOL    HW193458  14.424  11.283   5.741
97187SOL    HW293459  14.557  11.295   5.670
97188SOL     OW93460   8.807   6.503   7.346
97188SOL    HW193461   8.832   6.411   7.339
97188SOL    HW293462   8.879   6.551   7.306
97189SOL     OW93463   8.915   3.212  13.512
97189SOL    HW193464   8.869   3.276  13.566
97189SOL    HW293465   8.852   3.189  13.444
97190SOL     OW93466   2.804  14.427   5.353
97190SOL    HW193467   2.807  14.521   5.339
97190SOL    HW293468   2.712  14.407   5.367
97191SOL     OW93469  13.079  13.642   9.284
97191SOL    HW193470  13.012  13.584   9.320
97191SOL    HW293471  13.124  13.590   9.218
97192SOL     OW93472  10.267   7.966   4.384
97192SOL    HW193473  10.194   8.018   4.416
97192SOL    HW293474  10.231   7.917   4.310
97193SOL     OW93475   1.576   3.640   2.750
97193SOL    HW193476   1.598   3.733   2.749
97193SOL    HW293477   1.661   3.595   2.745
97194SOL     OW93478   8.442   5.434   8.373
97194SOL    HW193479   8.529   5.398   8.358
97194SOL    HW293480   8.430   5.497   8.302
97195SOL     OW93481  14.570  10.357   3.262
97195SOL    HW193482  14.648  10.345   3.316
97195SOL    HW293483  14.503  10.303   3.304
97196SOL     OW93484   3.416   8.649   7.395
97196SOL    HW193485   3.478   8.655   7.322
97196SOL    HW293486   3.450   8.577   7.449
97197SOL     OW93487  11.604  13.836   3.135
97197SOL    HW193488  11.591  13.742   3.124
97197SOL    HW293489  11.643  13.845   3.222
97198SOL     OW93490   7.546  13.425   8.074
97198SOL    HW193491   7.547  13.452   8.166
97198SOL    HW293492   7.591  13.341   8.073
97199SOL     OW93493   2.521   9.514  13.044
97199SOL    HW193494   2.557   9.426  13.030
97199SOL    HW293495   2.560   9.567  12.974
97200SOL     OW93496  12.230   6.981   1.787
97200SOL    HW193497  12.148   7.030   1.779
97200SOL    HW293498  12.253   6.959   1.697
97201SOL     OW93499  10.016  10.638   6.943
97201SOL    HW193500  10.045  10.568   6.885
97201SOL    HW293501  10.080  10.708   6.932
97202SOL     OW93502  11.124   4.465   8.397
97202SOL    HW193503  11.131   4.407   8.321
97202SOL    HW293504  11.038   4.446   8.434
97203SOL     OW93505   4.782   7.959  10.556
97203SOL    HW193506   4.696   8.001  10.552
97203SOL    HW293507   4.803   7.956  10.649
97204SOL     OW93508   2.865  13.423   1.413
97204SOL    HW193509   2.835  13.496   1.359
97204SOL    HW293510   2.867  13.458   1.502
97205SOL     OW93511   5.571  12.679   4.508
97205SOL    HW193512   5.653  12.691   4.555
97205SOL    HW293513   5.520  12.620   4.563
97206SOL     OW93514  10.575   6.664   6.351
97206SOL    HW193515  10.580   6.751   6.390
97206SOL    HW293516  10.483   6.639   6.360
97207SOL     OW93517   4.167   9.020   7.473
97207SOL    HW193518   4.136   8.935   7.441
97207SOL    HW293519   4.259   9.006   7.494
97208SOL     OW93520   7.102  14.266   0.595
97208SOL    HW193521   7.126  14.209   0.522
97208SOL    HW293522   7.011  14.290   0.578
97209SOL     OW93523  10.112  10.191   0.293
97209SOL    HW193524  10.061  10.130   0.238
97209SOL    HW293525  10.079  10.176   0.381
97210SOL     OW93526   1.306   0.918  13.007
97210SOL    HW193527   1.310   0.934  12.913
97210SOL    HW293528   1.228   0.865  13.019
97211SOL     OW93529  13.844   5.679  12.446
97211SOL    HW193530  13.887   5.648  12.367
97211SOL    HW293531  13.915   5.683  12.511
97212SOL     OW93532   6.355   4.252   2.682
97212SOL    HW193533   6.356   4.255   2.586
97212SOL    HW293534   6.290   4.318   2.707
97213SOL     OW93535  14.330   4.766  10.627
97213SOL    HW193536  14.380   4.788  10.548
97213SOL    HW293537  14.396   4.754  10.695
97214SOL     OW93538   6.136   0.408  12.245
97214SOL    HW193539   6.143   0.409  12.149
97214SOL    HW293540   6.227   0.397  12.275
97215SOL     OW93541   3.187   2.674  11.107
97215SOL    HW193542   3.123   2.695  11.039
97215SOL    HW293543   3.149   2.709  11.188
97216SOL     OW93544   0.125  11.005   3.771
97216SOL    HW193545   0.166  10.943   3.710
97216SOL    HW293546   0.091  11.075   3.715
97217SOL     OW93547   1.762   6.513  13.288
97217SOL    HW193548   1.736   6.548  13.373
97217SOL    HW293549   1.721   6.571  13.224
97218SOL     OW93550   2.431   3.905  12.888
97218SOL    HW193551   2.411   3.841  12.957
97218SOL    HW293552   2.522   3.886  12.864
97219SOL     OW93553   7.581   2.053   7.603
97219SOL    HW193554   7.540   2.113   7.665
97219SOL    HW293555   7.528   2.062   7.523
97220SOL     OW93556  13.767   4.600  13.849
97220SOL    HW193557  13.807   4.681  13.882
97220SOL    HW293558  13.745   4.620  13.758
97221SOL     OW93559   1.016  14.256   7.377
97221SOL    HW193560   1.085  14.303   7.424
97221SOL    HW293561   1.000  14.177   7.429
97222SOL     OW93562   3.049  12.721   9.018
97222SOL    HW193563   3.015  12.653   8.961
97222SOL    HW293564   3.137  12.692   9.041
97223SOL     OW93565   7.992  13.230   0.808
97223SOL    HW193566   7.954  13.203   0.891
97223SOL    HW293567   8.086  13.214   0.818
97224SOL     OW93568  14.366  10.004   4.758
97224SOL    HW193569  14.285   9.958   4.780
97224SOL    HW293570  14.436   9.940   4.776
97225SOL     OW93571  12.537   3.567  14.015
97225SOL    HW193572  12.477   3.621  14.066
97225SOL    HW293573  12.565   3.625  13.943
97226SOL     OW93574   4.699   6.826   0.771
97226SOL    HW193575   4.683   6.816   0.865
97226SOL    HW293576   4.787   6.863   0.766
97227SOL     OW93577   4.184   8.927  10.355
97227SOL    HW193578   4.154   9.007  10.311
97227SOL    HW293579   4.135   8.857  10.311
97228SOL     OW93580   4.807   6.463  12.193
97228SOL    HW193581   4.816   6.430  12.103
97228SOL    HW293582   4.888   6.512  12.209
97229SOL     OW93583   6.512  12.676   2.096
97229SOL    HW193584   6.479  12.649   2.011
97229SOL    HW293585   6.486  12.606   2.155
97230SOL     OW93586  12.107   7.781   8.802
97230SOL    HW193587  12.075   7.837   8.731
97230SOL    HW293588  12.200   7.769   8.781
97231SOL     OW93589  11.212   0.041   6.476
97231SOL    HW193590  11.187  14.836   6.470
97231SOL    HW293591  11.264   0.047   6.555
97232SOL     OW93592   9.033   7.264  12.087
97232SOL    HW193593   8.976   7.200  12.130
97232SOL    HW293594   8.984   7.346  12.092
97233SOL     OW93595   1.000   2.075  12.192
97233SOL    HW193596   1.048   2.129  12.129
97233SOL    HW293597   1.061   2.006  12.217
97234SOL     OW93598   8.195   5.071  13.080
97234SOL    HW193599   8.244   5.106  13.154
97234SOL    HW293600   8.262   5.037  13.021
97235SOL     OW93601   1.065   5.397   9.961
97235SOL    HW193602   1.032   5.474   9.915
97235SOL    HW293603   0.999   5.378  10.028
97236SOL     OW93604  12.543   7.806   9.499
97236SOL    HW193605  12.488   7.794   9.576
97236SOL    HW293606  12.521   7.733   9.441
97237SOL     OW93607  11.932   8.889   2.289
97237SOL    HW193608  11.917   8.886   2.194
97237SOL    HW293609  11.895   8.806   2.321
97238SOL     OW93610  10.410   2.839   4.880
97238SOL    HW193611  10.450   2.842   4.793
97238SOL    HW293612  10.367   2.753   4.884
97239SOL     OW93613   7.041  12.012   6.884
97239SOL    HW193614   7.038  11.932   6.936
97239SOL    HW293615   6.959  12.012   6.835
97240SOL     OW93616  14.552   3.058   7.472
97240SOL    HW193617  14.543   3.036   7.565
97240SOL    HW293618  14.488   3.127   7.458
97241SOL     OW93619  10.516   4.616  11.379
97241SOL    HW193620  10.468   4.699  11.383
97241SOL    HW293621  10.486   4.574  11.299
97242SOL     OW93622  10.719  14.061   7.558
97242SOL    HW193623  10.672  14.138   7.591
97242SOL    HW293624  10.706  14.063   7.463
97243SOL     OW93625   9.363   5.159   1.730
97243SOL    HW193626   9.322   5.123   1.651
97243SOL    HW293627   9.452   5.181   1.703
97244SOL     OW93628   1.017  12.419   5.297
97244SOL    HW193629   1.076  12.367   5.242
97244SOL    HW293630   1.063  12.426   5.381
97245SOL     OW93631  14.315  10.529  12.765
97245SOL    HW193632  14.344  10.615  12.796
97245SOL    HW293633  14.365  10.467  12.817
97246SOL     OW93634  10.103   6.697   5.068
97246SOL    HW193635  10.071   6.787   5.066
97246SOL    HW293636  10.031   6.647   5.106
97247SOL     OW93637   2.302   0.228   6.036
97247SOL    HW193638   2.319   0.240   5.942
97247SOL    HW293639   2.212   0.194   6.039
97248SOL     OW93640  11.506  12.013   1.903
97248SOL    HW193641  11.524  11.919   1.915
97248SOL    HW293642  11.413  12.017   1.885
97249SOL     OW93643  13.802  11.375  14.761
97249SOL    HW193644  13.819  11.424  14.842
97249SOL    HW293645  13.821  11.284  14.784
97250SOL     OW93646  11.157   2.556  14.287
97250SOL    HW193647  11.244   2.518  14.273
97250SOL    HW293648  11.159   2.588  14.377
97251SOL     OW93649   2.903   6.423  14.421
97251SOL    HW193650   2.819   6.433  14.466
97251SOL    HW293651   2.953   6.501  14.445
97252SOL     OW93652   3.179   4.260  10.691
97252SOL    HW193653   3.104   4.317  10.711
97252SOL    HW293654   3.146   4.201  10.623
97253SOL     OW93655  10.518   8.566  12.930
97253SOL    HW193656  10.526   8.642  12.987
97253SOL    HW293657  10.446   8.588  12.870
97254SOL     OW93658  11.340   0.281   0.240
97254SOL    HW193659  11.410   0.315   0.185
97254SOL    HW293660  11.274   0.249   0.179
97255SOL     OW93661  12.421   8.898   3.708
97255SOL    HW193662  12.442   8.819   3.758
97255SOL    HW293663  12.478   8.965   3.744
97256SOL     OW93664   2.697   9.803  14.217
97256SOL    HW193665   2.747   9.880  14.242
97256SOL    HW293666   2.606   9.825  14.238
97257SOL     OW93667   6.922   2.011   0.824
97257SOL    HW193668   6.876   1.977   0.901
97257SOL    HW293669   6.969   2.088   0.856
97258SOL     OW93670  14.579  13.354   7.890
97258SOL    HW193671  14.666  13.336   7.927
97258SOL    HW293672  14.521  13.358   7.966
97259SOL     OW93673   4.967   0.416   7.905
97259SOL    HW193674   4.925   0.422   7.819
97259SOL    HW293675   4.897   0.434   7.968
97260SOL     OW93676  10.925   0.011  14.403
97260SOL    HW193677  10.983   0.027  14.478
97260SOL    HW293678  10.902   0.098  14.371
97261SOL     OW93679   9.114   2.470   0.242
97261SOL    HW193680   9.175   2.428   0.303
97261SOL    HW293681   9.036   2.486   0.295
97262SOL     OW93682   9.917  14.020   8.098
97262SOL    HW193683   9.845  14.045   8.156
97262SOL    HW293684   9.960  14.103   8.076
97263SOL     OW93685  10.110  14.600   8.475
97263SOL    HW193686  10.205  14.586   8.468
97263SOL    HW293687  10.099  14.647   8.558
97264SOL     OW93688  12.320  10.624   2.508
97264SOL    HW193689  12.316  10.535   2.543
97264SOL    HW293690  12.237  10.636   2.463
97265SOL     OW93691   7.019   1.889   9.695
97265SOL    HW193692   7.071   1.899   9.615
97265SOL    HW293693   7.025   1.975   9.737
97266SOL     OW93694   1.426   5.129   8.980
97266SOL    HW193695   1.487   5.056   8.971
97266SOL    HW293696   1.339   5.089   8.973
97267SOL     OW93697   5.526  13.484   6.742
97267SOL    HW193698   5.572  13.532   6.811
97267SOL    HW293699   5.433  13.492   6.764
97268SOL     OW93700  14.710   5.344   3.491
97268SOL    HW193701  14.682   5.365   3.580
97268SOL    HW293702  14.804   5.328   3.498
97269SOL     OW93703  10.208   3.754   0.313
97269SOL    HW193704  10.124   3.799   0.304
97269SOL    HW293705  10.216   3.736   0.406
97270SOL     OW93706   4.097   0.928  11.585
97270SOL    HW193707   4.114   0.999  11.648
97270SOL    HW293708   4.180   0.880  11.581
97271SOL     OW93709   2.417  14.387  10.244
97271SOL    HW193710   2.391  14.307  10.199
97271SOL    HW293711   2.389  14.458  10.185
97272SOL     OW93712  12.574   2.699   5.164
97272SOL    HW193713  12.574   2.734   5.254
97272SOL    HW293714  12.656   2.731   5.127
97273SOL     OW93715  13.115  11.038   7.160
97273SOL    HW193716  13.111  11.129   7.129
97273SOL    HW293717  13.205  11.011   7.140
97274SOL     OW93718   5.390   3.501   1.140
97274SOL    HW193719   5.403   3.581   1.190
97274SOL    HW293720   5.413   3.431   1.200
97275SOL     OW93721  11.382   3.567   1.642
97275SOL    HW193722  11.347   3.479   1.651
97275SOL    HW293723  11.387   3.581   1.548
97276SOL     OW93724  14.470   2.106  10.679
97276SOL    HW193725  14.447   2.185  10.631
97276SOL    HW293726  14.512   2.050  10.614
97277SOL     OW93727   9.236   6.825  11.517
97277SOL    HW193728   9.264   6.746  11.564
97277SOL    HW293729   9.201   6.882  11.586
97278SOL     OW93730   0.200   2.202  14.055
97278SOL    HW193731   0.267   2.211  14.124
97278SOL    HW293732   0.242   2.147  13.989
97279SOL     OW93733   7.618   3.010  11.444
97279SOL    HW193734   7.630   2.917  11.427
97279SOL    HW293735   7.707   3.044  11.453
97280SOL     OW93736   6.822  12.967   5.463
97280SOL    HW193737   6.899  13.006   5.505
97280SOL    HW293738   6.825  12.875   5.490
97281SOL     OW93739  13.726   0.928   5.358
97281SOL    HW193740  13.788   0.924   5.286
97281SOL    HW293741  13.681   1.012   5.347
97282SOL     OW93742   7.448   8.055   6.100
97282SOL    HW193743   7.398   8.135   6.086
97282SOL    HW293744   7.517   8.079   6.162
97283SOL     OW93745   0.971  14.403   6.809
97283SOL    HW193746   0.923  14.338   6.860
97283SOL    HW293747   1.062  14.394   6.838
97284SOL     OW93748   9.693   0.410   0.863
97284SOL    HW193749   9.609   0.443   0.894
97284SOL    HW293750   9.739   0.381   0.942
97285SOL     OW93751   6.483  13.520   9.958
97285SOL    HW193752   6.410  13.544   9.900
97285SOL    HW293753   6.497  13.598  10.012
97286SOL     OW93754   5.546   6.307   0.211
97286SOL    HW193755   5.601   6.285   0.136
97286SOL    HW293756   5.574   6.247   0.280
97287SOL     OW93757   3.706   7.751   9.811
97287SOL    HW193758   3.680   7.673   9.860
97287SOL    HW293759   3.800   7.757   9.824
97288SOL     OW93760   6.777   8.315   2.989
97288SOL    HW193761   6.713   8.385   2.980
97288SOL    HW293762   6.842   8.332   2.920
97289SOL     OW93763   2.516   4.204   9.263
97289SOL    HW193764   2.503   4.299   9.270
97289SOL    HW293765   2.602   4.195   9.221
97290SOL     OW93766   1.673   8.507  13.407
97290SOL    HW193767   1.676   8.426  13.458
97290SOL    HW293768   1.654   8.478  13.318
97291SOL     OW93769   5.523   4.632   2.314
97291SOL    HW193770   5.571   4.675   2.386
97291SOL    HW293771   5.431   4.642   2.337
97292SOL     OW93772   2.415   0.851   1.271
97292SOL    HW193773   2.466   0.804   1.337
97292SOL    HW293774   2.344   0.791   1.248
97293SOL     OW93775  12.202  14.353   2.869
97293SOL    HW193776  12.278  14.412   2.865
97293SOL    HW293777  12.132  14.402   2.825
97294SOL     OW93778   6.980   3.162   2.856
97294SOL    HW193779   6.958   3.217   2.780
97294SOL    HW293780   6.960   3.217   2.932
97295SOL     OW93781   4.607  11.648   1.977
97295SOL    HW193782   4.564  11.616   1.898
97295SOL    HW293783   4.622  11.741   1.960
97296SOL     OW93784   4.967   0.076   0.182
97296SOL    HW193785   4.878   0.050   0.158
97296SOL    HW293786   4.971   0.060   0.277
97297SOL     OW93787   3.453   9.548   2.919
97297SOL    HW193788   3.406   9.526   2.839
97297SOL    HW293789   3.432   9.477   2.979
97298SOL     OW93790  11.708   0.338   4.780
97298SOL    HW193791  11.642   0.317   4.714
97298SOL    HW293792  11.722   0.433   4.770
97299SOL     OW93793  13.581   6.759  11.091
97299SOL    HW193794  13.608   6.846  11.120
97299SOL    HW293795  13.664   6.713  11.074
97300SOL     OW93796  14.241   7.395  14.158
97300SOL    HW193797  14.213   7.325  14.217
97300SOL    HW293798  14.208   7.369  14.072
97301SOL     OW93799  14.565   8.936  14.762
97301SOL    HW193800  14.552   8.869  14.828
97301SOL    HW293801  14.626   8.998  14.802
97302SOL     OW93802   0.319   5.342   4.937
97302SOL    HW193803   0.301   5.371   4.847
97302SOL    HW293804   0.358   5.418   4.980
97303SOL     OW93805  10.032  13.590   5.598
97303SOL    HW193806  10.119  13.556   5.619
97303SOL    HW293807   9.981  13.575   5.677
97304SOL     OW93808   2.890   4.626   7.577
97304SOL    HW193809   2.975   4.609   7.537
97304SOL    HW293810   2.832   4.644   7.503
97305SOL     OW93811  13.349   6.203  12.906
97305SOL    HW193812  13.258   6.179  12.927
97305SOL    HW293813  13.342   6.251  12.824
97306SOL     OW93814   8.520  11.491  13.417
97306SOL    HW193815   8.451  11.428  13.437
97306SOL    HW293816   8.550  11.466  13.329
97307SOL     OW93817   1.184  12.017   5.562
97307SOL    HW193818   1.233  11.939   5.589
97307SOL    HW293819   1.146  11.994   5.478
97308SOL     OW93820  13.137   0.892   3.107
97308SOL    HW193821  13.124   0.950   3.183
97308SOL    HW293822  13.223   0.916   3.073
97309SOL     OW93823  13.108   2.944   6.611
97309SOL    HW193824  13.173   2.983   6.552
97309SOL    HW293825  13.024   2.975   6.577
97310SOL     OW93826  11.176   7.104   5.037
97310SOL    HW193827  11.270   7.086   5.047
97310SOL    HW293828  11.170   7.199   5.046
97311SOL     OW93829   2.973   2.937  13.003
97311SOL    HW193830   2.880   2.950  13.021
97311SOL    HW293831   2.978   2.924  12.908
97312SOL     OW93832  12.081   8.681  13.092
97312SOL    HW193833  12.058   8.743  13.022
97312SOL    HW293834  11.997   8.651  13.126
97313SOL     OW93835   2.672   5.062   9.970
97313SOL    HW193836   2.760   5.052   9.934
97313SOL    HW293837   2.635   5.137   9.924
97314SOL     OW93838  14.766   9.594   9.444
97314SOL    HW193839  14.803   9.533   9.381
97314SOL    HW293840  14.679   9.615   9.409
97315SOL     OW93841   4.867  14.810   6.023
97315SOL    HW193842   4.859  14.770   5.936
97315SOL    HW293843   4.822   0.006   6.016
97316SOL     OW93844   0.324   4.668  12.306
97316SOL    HW193845   0.348   4.577  12.324
97316SOL    HW293846   0.407   4.716  12.309
97317SOL     OW93847  14.164   7.415  14.515
97317SOL    HW193848  14.198   7.502  14.535
97317SOL    HW293849  14.074   7.431  14.484
97318SOL     OW93850   8.933  13.760   8.868
97318SOL    HW193851   8.963  13.736   8.781
97318SOL    HW293852   8.856  13.814   8.854
97319SOL     OW93853  10.488   7.330   6.670
97319SOL    HW193854  10.474   7.314   6.763
97319SOL    HW293855  10.537   7.254   6.639
97320SOL     OW93856   3.005   1.378   4.392
97320SOL    HW193857   2.936   1.316   4.416
97320SOL    HW293858   3.067   1.375   4.466
97321SOL     OW93859  12.693  12.683   7.701
97321SOL    HW193860  12.683  12.778   7.708
97321SOL    HW293861  12.749  12.671   7.625
97322SOL     OW93862   9.420   1.743   3.995
97322SOL    HW193863   9.339   1.697   3.973
97322SOL    HW293864   9.416   1.753   4.091
97323SOL     OW93865  12.005   6.683   2.758
97323SOL    HW193866  12.098   6.670   2.737
97323SOL    HW293867  11.995   6.778   2.763
97324SOL     OW93868   3.681   8.960   4.985
97324SOL    HW193869   3.594   8.972   4.946
97324SOL    HW293870   3.742   8.986   4.916
97325SOL     OW93871  12.466   8.615  11.891
97325SOL    HW193872  12.498   8.670  11.962
97325SOL    HW293873  12.530   8.544  11.884
97326SOL     OW93874   3.442  12.522   6.344
97326SOL    HW193875   3.431  12.508   6.438
97326SOL    HW293876   3.415  12.613   6.330
97327SOL     OW93877   9.505   7.088   7.761
97327SOL    HW193878   9.567   7.156   7.785
97327SOL    HW293879   9.420   7.119   7.794
97328SOL     OW93880  10.233   5.028  11.119
97328SOL    HW193881  10.258   4.950  11.069
97328SOL    HW293882  10.164   4.999  11.178
97329SOL     OW93883   2.280   0.349   3.500
97329SOL    HW193884   2.223   0.334   3.576
97329SOL    HW293885   2.239   0.421   3.453
97330SOL     OW93886  10.799   2.096   3.041
97330SOL    HW193887  10.866   2.098   3.109
97330SOL    HW293888  10.780   2.188   3.023
97331SOL     OW93889   1.193   0.441   7.715
97331SOL    HW193890   1.142   0.521   7.712
97331SOL    HW293891   1.284   0.471   7.725
97332SOL     OW93892   0.784  10.732   1.756
97332SOL    HW193893   0.708  10.695   1.712
97332SOL    HW293894   0.842  10.658   1.771
97333SOL     OW93895  11.275  12.493   5.190
97333SOL    HW193896  11.310  12.506   5.278
97333SOL    HW293897  11.181  12.506   5.200
97334SOL     OW93898  14.264   9.930  13.429
97334SOL    HW193899  14.337   9.885  13.388
97334SOL    HW293900  14.269  10.020  13.397
97335SOL     OW93901  10.993   2.766   7.100
97335SOL    HW193902  11.009   2.676   7.072
97335SOL    HW293903  11.069   2.815   7.069
97336SOL     OW93904  10.472   7.753   3.020
97336SOL    HW193905  10.444   7.707   3.099
97336SOL    HW293906  10.557   7.716   2.998
97337SOL     OW93907   9.326   0.481   6.718
97337SOL    HW193908   9.311   0.473   6.623
97337SOL    HW293909   9.294   0.568   6.739
97338SOL     OW93910   1.082   9.293  13.531
97338SOL    HW193911   1.175   9.269  13.529
97338SOL    HW293912   1.037   9.218  13.493
97339SOL     OW93913   7.550   0.958   6.600
97339SOL    HW193914   7.541   0.867   6.628
97339SOL    HW293915   7.580   0.952   6.509
97340SOL     OW93916  13.406  12.483   9.391
97340SOL    HW193917  13.452  12.538   9.327
97340SOL    HW293918  13.317  12.519   9.393
97341SOL     OW93919  11.759  14.844  10.491
97341SOL    HW193920  11.790   0.035  10.535
97341SOL    HW293921  11.832  14.816  10.437
97342SOL     OW93922  10.424   0.085   3.845
97342SOL    HW193923  10.480   0.120   3.776
97342SOL    HW293924  10.339   0.126   3.829
97343SOL     OW93925  11.861   8.899  11.505
97343SOL    HW193926  11.919   8.895  11.429
97343SOL    HW293927  11.775   8.918  11.469
97344SOL     OW93928  13.943   9.571   3.925
97344SOL    HW193929  13.965   9.563   3.832
97344SOL    HW293930  13.949   9.665   3.942
97345SOL     OW93931  14.137  14.639  13.583
97345SOL    HW193932  14.059  14.584  13.579
97345SOL    HW293933  14.132  14.695  13.506
97346SOL     OW93934   7.714  12.642  13.237
97346SOL    HW193935   7.697  12.633  13.331
97346SOL    HW293936   7.790  12.586  13.222
97347SOL     OW93937   9.089  12.438   3.740
97347SOL    HW193938   9.075  12.359   3.792
97347SOL    HW293939   9.183  12.453   3.744
97348SOL     OW93940   1.071   9.465   2.016
97348SOL    HW193941   1.101   9.415   2.092
97348SOL    HW293942   0.987   9.501   2.043
97349SOL     OW93943   8.488   6.675  14.472
97349SOL    HW193944   8.473   6.681  14.567
97349SOL    HW293945   8.404   6.699  14.433
97350SOL     OW93946   9.109   2.484  14.653
97350SOL    HW193947   9.055   2.532  14.717
97350SOL    HW293948   9.102   2.536  14.573
97351SOL     OW93949   3.868   2.927   5.780
97351SOL    HW193950   3.939   2.946   5.720
97351SOL    HW293951   3.788   2.937   5.728
97352SOL     OW93952   0.201   7.560  12.364
97352SOL    HW193953   0.205   7.654  12.383
97352SOL    HW293954   0.183   7.555  12.270
97353SOL     OW93955   0.610   3.547  14.044
97353SOL    HW193956   0.599   3.641  14.030
97353SOL    HW293957   0.606   3.537  14.139
97354SOL     OW93958  14.458   8.774   7.044
97354SOL    HW193959  14.440   8.682   7.024
97354SOL    HW293960  14.371   8.815   7.047
97355SOL     OW93961  10.229   4.749   5.791
97355SOL    HW193962  10.180   4.813   5.739
97355SOL    HW293963  10.320   4.775   5.782
97356SOL     OW93964   9.900   4.710  10.363
97356SOL    HW193965   9.823   4.653  10.363
97356SOL    HW293966   9.969   4.656  10.325
97357SOL     OW93967  12.237   7.169   6.611
97357SOL    HW193968  12.317   7.186   6.661
97357SOL    HW293969  12.215   7.254   6.573
97358SOL     OW93970   8.431   0.201  10.172
97358SOL    HW193971   8.454   0.169  10.086
97358SOL    HW293972   8.450   0.295  10.168
97359SOL     OW93973   1.265  13.286   8.028
97359SOL    HW193974   1.231  13.253   8.111
97359SOL    HW293975   1.234  13.377   8.024
97360SOL     OW93976   5.652   2.377   9.365
97360SOL    HW193977   5.625   2.285   9.360
97360SOL    HW293978   5.722   2.378   9.430
97361SOL     OW93979   1.030   0.913  11.477
97361SOL    HW193980   1.030   0.841  11.540
97361SOL    HW293981   1.047   0.991  11.530
97362SOL     OW93982   3.632   6.293  13.360
97362SOL    HW193983   3.687   6.353  13.410
97362SOL    HW293984   3.650   6.314  13.268
97363SOL     OW93985   6.424   4.661  13.243
97363SOL    HW193986   6.447   4.739  13.293
97363SOL    HW293987   6.354   4.620  13.295
97364SOL     OW93988  12.965   6.278   1.564
97364SOL    HW193989  12.883   6.309   1.526
97364SOL    HW293990  12.952   6.184   1.575
97365SOL     OW93991   8.946   1.556   6.689
97365SOL    HW193992   8.898   1.547   6.771
97365SOL    HW293993   8.963   1.467   6.660
97366SOL     OW93994   3.467   6.787   7.476
97366SOL    HW193995   3.488   6.741   7.557
97366SOL    HW293996   3.432   6.872   7.505
97367SOL     OW93997  11.149   5.670   1.747
97367SOL    HW193998  11.116   5.693   1.833
97367SOL    HW293999  11.078   5.691   1.686
97368SOL     OW94000  11.319   5.541   4.316
97368SOL    HW194001  11.270   5.477   4.368
97368SOL    HW294002  11.271   5.623   4.328
97369SOL     OW94003   0.165   3.077   9.001
97369SOL    HW194004   0.218   2.997   8.991
97369SOL    HW294005   0.085   3.058   8.952
97370SOL     OW94006   2.660  14.279   6.742
97370SOL    HW194007   2.727  14.338   6.774
97370SOL    HW294008   2.674  14.197   6.789
97371SOL     OW94009  11.329   2.513  11.259
97371SOL    HW194010  11.349   2.480  11.172
97371SOL    HW294011  11.234   2.508  11.266
97372SOL     OW94012   1.644   3.788   4.475
97372SOL    HW194013   1.667   3.868   4.523
97372SOL    HW294014   1.700   3.790   4.397
97373SOL     OW94015  10.339   2.180   9.018
97373SOL    HW194016  10.307   2.097   9.053
97373SOL    HW294017  10.381   2.157   8.935
97374SOL     OW94018  12.745  13.820  14.512
97374SOL    HW194019  12.743  13.901  14.462
97374SOL    HW294020  12.835  13.787  14.502
97375SOL     OW94021  12.851   0.055   1.000
97375SOL    HW194022  12.944   0.033   1.003
97375SOL    HW294023  12.847   0.148   1.023
97376SOL     OW94024  10.981   5.406   7.510
97376SOL    HW194025  11.043   5.400   7.437
97376SOL    HW294026  11.033   5.389   7.588
97377SOL     OW94027   6.264   0.650   5.554
97377SOL    HW194028   6.239   0.741   5.538
97377SOL    HW294029   6.291   0.617   5.468
97378SOL     OW94030   2.669   7.163   3.425
97378SOL    HW194031   2.657   7.245   3.472
97378SOL    HW294032   2.585   7.119   3.432
97379SOL     OW94033  11.587  11.767   2.792
97379SOL    HW194034  11.638  11.798   2.717
97379SOL    HW294035  11.555  11.847   2.834
97380SOL     OW94036   1.358   0.532  12.374
97380SOL    HW194037   1.405   0.616  12.371
97380SOL    HW294038   1.360   0.501  12.283
97381SOL     OW94039   4.712   5.299   6.967
97381SOL    HW194040   4.747   5.371   6.915
97381SOL    HW294041   4.778   5.230   6.960
97382SOL     OW94042   1.774  13.005   9.008
97382SOL    HW194043   1.684  13.036   9.020
97382SOL    HW294044   1.817  13.073   8.957
97383SOL     OW94045  11.279   7.735  12.642
97383SOL    HW194046  11.216   7.683  12.691
97383SOL    HW294047  11.232   7.816  12.620
97384SOL     OW94048   0.935  10.415  14.333
97384SOL    HW194049   0.986  10.353  14.280
97384SOL    HW294050   0.847  10.377  14.336
97385SOL     OW94051   3.940  12.620  12.596
97385SOL    HW194052   3.938  12.630  12.691
97385SOL    HW294053   3.848  12.611  12.571
97386SOL     OW94054   2.771  12.299  12.053
97386SOL    HW194055   2.851  12.249  12.035
97386SOL    HW294056   2.707  12.232  12.080
97387SOL     OW94057   8.581  14.293   9.993
97387SOL    HW194058   8.633  14.291  10.073
97387SOL    HW294059   8.611  14.371   9.946
97388SOL     OW94060   2.770   7.162   4.792
97388SOL    HW194061   2.696   7.106   4.817
97388SOL    HW294062   2.808   7.118   4.717
97389SOL     OW94063  13.724  11.050   5.830
97389SOL    HW194064  13.743  11.005   5.748
97389SOL    HW294065  13.636  11.086   5.818
97390SOL     OW94066   4.589   6.378   8.787
97390SOL    HW194067   4.621   6.406   8.873
97390SOL    HW294068   4.586   6.282   8.793
97391SOL     OW94069   7.064   7.720   8.653
97391SOL    HW194070   7.031   7.674   8.730
97391SOL    HW294071   7.019   7.805   8.655
97392SOL     OW94072   9.637  13.205   4.529
97392SOL    HW194073   9.581  13.238   4.459
97392SOL    HW294074   9.616  13.260   4.605
97393SOL     OW94075   2.191  13.546   4.928
97393SOL    HW194076   2.115  13.509   4.884
97393SOL    HW294077   2.222  13.616   4.870
97394SOL     OW94078   0.593   5.168   8.632
97394SOL    HW194079   0.600   5.235   8.565
97394SOL    HW294080   0.665   5.107   8.613
97395SOL     OW94081   6.615  11.793   3.458
97395SOL    HW194082   6.630  11.881   3.425
97395SOL    HW294083   6.558  11.752   3.392
97396SOL     OW94084   1.039   1.167   1.128
97396SOL    HW194085   0.954   1.134   1.155
97396SOL    HW294086   1.101   1.131   1.191
97397SOL     OW94087  13.684   8.316  12.990
97397SOL    HW194088  13.718   8.235  12.953
97397SOL    HW294089  13.604   8.290  13.037
97398SOL     OW94090   9.615   1.064  10.605
97398SOL    HW194091   9.540   1.063  10.546
97398SOL    HW294092   9.607   0.982  10.655
97399SOL     OW94093   1.854  10.577  13.276
97399SOL    HW194094   1.824  10.623  13.354
97399SOL    HW294095   1.950  10.581  13.282
97400SOL     OW94096   0.504   2.469   4.503
97400SOL    HW194097   0.550   2.517   4.434
97400SOL    HW294098   0.435   2.529   4.531
97401SOL     OW94099   1.225   4.306  12.492
97401SOL    HW194100   1.150   4.251  12.515
97401SOL    HW294101   1.298   4.269  12.541
97402SOL     OW94102   6.807   2.499  11.292
97402SOL    HW194103   6.711   2.508  11.288
97402SOL    HW294104   6.821   2.406  11.307
97403SOL     OW94105   3.339   1.698   9.394
97403SOL    HW194106   3.322   1.604   9.394
97403SOL    HW294107   3.425   1.706   9.437
97404SOL     OW94108  11.350  10.832  12.932
97404SOL    HW194109  11.437  10.837  12.893
97404SOL    HW294110  11.364  10.799  13.020
97405SOL     OW94111  10.892  12.027   1.807
97405SOL    HW194112  10.925  11.937   1.805
97405SOL    HW294113  10.835  12.034   1.730
97406SOL     OW94114  11.545   6.565   2.306
97406SOL    HW194115  11.528   6.631   2.238
97406SOL    HW294116  11.610   6.606   2.363
97407SOL     OW94117  11.235  10.045   9.964
97407SOL    HW194118  11.171   9.977   9.948
97407SOL    HW294119  11.186  10.127   9.956
97408SOL     OW94120   7.790   8.593  14.131
97408SOL    HW194121   7.818   8.684  14.139
97408SOL    HW294122   7.770   8.566  14.221
97409SOL     OW94123  13.343  11.679   2.084
97409SOL    HW194124  13.318  11.709   2.171
97409SOL    HW294125  13.296  11.736   2.024
97410SOL     OW94126   9.198   1.484  14.742
97410SOL    HW194127   9.165   1.557  14.690
97410SOL    HW294128   9.292   1.482  14.725
97411SOL     OW94129   9.424  10.276  14.621
97411SOL    HW194130   9.506  10.229  14.636
97411SOL    HW294131   9.382  10.279  14.707
97412SOL     OW94132   7.033   1.338   6.954
97412SOL    HW194133   7.096   1.406   6.977
97412SOL    HW294134   7.065   1.302   6.871
97413SOL     OW94135   0.677  12.535  13.558
97413SOL    HW194136   0.582  12.535  13.557
97413SOL    HW294137   0.702  12.558  13.468
97414SOL     OW94138   5.128   9.208   9.946
97414SOL    HW194139   5.046   9.207   9.898
97414SOL    HW294140   5.164   9.120   9.935
97415SOL     OW94141   7.893  11.391   5.828
97415SOL    HW194142   7.838  11.365   5.902
97415SOL    HW294143   7.845  11.461   5.785
97416SOL     OW94144   0.861   4.415  12.446
97416SOL    HW194145   0.798   4.371  12.389
97416SOL    HW294146   0.915   4.344  12.481
97417SOL     OW94147   7.723  11.203   0.075
97417SOL    HW194148   7.653  11.177   0.134
97417SOL    HW294149   7.686  11.190  14.875
97418SOL     OW94150   0.657   1.143   9.998
97418SOL    HW194151   0.718   1.107   9.933
97418SOL    HW294152   0.581   1.171   9.947
97419SOL     OW94153   0.596   5.627  13.562
97419SOL    HW194154   0.670   5.618  13.502
97419SOL    HW294155   0.602   5.717  13.594
97420SOL     OW94156   5.339   4.941   4.100
97420SOL    HW194157   5.256   4.968   4.062
97420SOL    HW294158   5.317   4.866   4.156
97421SOL     OW94159  11.452   6.994  12.536
97421SOL    HW194160  11.373   7.014  12.587
97421SOL    HW294161  11.517   6.968  12.601
97422SOL     OW94162   8.444   3.193   0.549
97422SOL    HW194163   8.458   3.276   0.595
97422SOL    HW294164   8.377   3.213   0.483
97423SOL     OW94165   8.215   3.481   2.018
97423SOL    HW194166   8.262   3.556   2.053
97423SOL    HW294167   8.166   3.447   2.093
97424SOL     OW94168   8.249   0.088   4.720
97424SOL    HW194169   8.249  14.886   4.754
97424SOL    HW294170   8.219   0.142   4.793
97425SOL     OW94171   3.652   9.294   0.921
97425SOL    HW194172   3.653   9.278   1.015
97425SOL    HW294173   3.720   9.235   0.886
97426SOL     OW94174  13.892  13.997   8.858
97426SOL    HW194175  13.837  14.003   8.780
97426SOL    HW294176  13.910  13.903   8.868
97427SOL     OW94177   5.920   9.460   2.748
97427SOL    HW194178   5.848   9.422   2.697
97427SOL    HW294179   5.966   9.516   2.685
97428SOL     OW94180   1.799   3.761   2.437
97428SOL    HW194181   1.796   3.849   2.400
97428SOL    HW294182   1.884   3.756   2.481
97429SOL     OW94183   7.851   9.627  12.283
97429SOL    HW194184   7.797   9.704  12.267
97429SOL    HW294185   7.931   9.643  12.234
97430SOL     OW94186   0.090   2.313   7.748
97430SOL    HW194187   0.075   2.218   7.747
97430SOL    HW294188   0.048   2.343   7.829
97431SOL     OW94189   8.714  14.625   6.763
97431SOL    HW194190   8.718  14.549   6.820
97431SOL    HW294191   8.706  14.589   6.675
97432SOL     OW94192  11.533   0.722   6.593
97432SOL    HW194193  11.618   0.705   6.552
97432SOL    HW294194  11.486   0.777   6.529
97433SOL     OW94195   4.657  12.719   6.601
97433SOL    HW194196   4.639  12.812   6.590
97433SOL    HW294197   4.731  12.716   6.662
97434SOL     OW94198  13.542   8.154   7.722
97434SOL    HW194199  13.492   8.091   7.773
97434SOL    HW294200  13.478   8.196   7.666
97435SOL     OW94201  11.866  13.574   1.809
97435SOL    HW194202  11.889  13.514   1.880
97435SOL    HW294203  11.949  13.613   1.783
97436SOL     OW94204  10.618   7.758  14.458
97436SOL    HW194205  10.663   7.705  14.392
97436SOL    HW294206  10.575   7.695  14.515
97437SOL     OW94207  11.562  12.936   8.448
97437SOL    HW194208  11.531  12.934   8.357
97437SOL    HW294209  11.578  12.844   8.470
97438SOL     OW94210   4.178  14.592   6.427
97438SOL    HW194211   4.251  14.611   6.368
97438SOL    HW294212   4.126  14.526   6.381
97439SOL     OW94213  10.550  11.333   0.900
97439SOL    HW194214  10.623  11.390   0.876
97439SOL    HW294215  10.586  11.275   0.967
97440SOL     OW94216  11.927   4.571   7.587
97440SOL    HW194217  11.927   4.638   7.655
97440SOL    HW294218  11.985   4.606   7.520
97441SOL     OW94219   8.030   4.783   3.381
97441SOL    HW194220   8.054   4.828   3.462
97441SOL    HW294221   8.100   4.719   3.368
97442SOL     OW94222   0.834   0.790  12.264
97442SOL    HW194223   0.852   0.697  12.251
97442SOL    HW294224   0.831   0.826  12.175
97443SOL     OW94225   0.069   1.449   6.084
97443SOL    HW194226   0.079   1.512   6.012
97443SOL    HW294227   0.157   1.436   6.117
97444SOL     OW94228   9.888   5.317   8.678
97444SOL    HW194229   9.927   5.310   8.591
97444SOL    HW294230   9.841   5.235   8.690
97445SOL     OW94231  11.949   0.325   1.983
97445SOL    HW194232  12.041   0.334   2.009
97445SOL    HW294233  11.915   0.414   1.982
97446SOL     OW94234   4.334   1.997   8.343
97446SOL    HW194235   4.251   2.041   8.358
97446SOL    HW294236   4.350   1.947   8.423
97447SOL     OW94237   2.284  11.541  10.221
97447SOL    HW194238   2.365  11.558  10.173
97447SOL    HW294239   2.254  11.627  10.249
97448SOL     OW94240   7.824  13.017   4.102
97448SOL    HW194241   7.829  13.110   4.123
97448SOL    HW294242   7.734  12.993   4.120
97449SOL     OW94243  12.771   9.258  13.997
97449SOL    HW194244  12.849   9.227  14.042
97449SOL    HW294245  12.743   9.184  13.942
97450SOL     OW94246   0.363  11.489  11.632
97450SOL    HW194247   0.431  11.437  11.674
97450SOL    HW294248   0.410  11.564  11.595
97451SOL     OW94249  11.089   4.746   0.077
97451SOL    HW194250  11.117   4.806   0.146
97451SOL    HW294251  11.104   4.794  14.883
97452SOL     OW94252   6.502   1.366  14.632
97452SOL    HW194253   6.468   1.433  14.573
97452SOL    HW294254   6.453   1.287  14.611
97453SOL     OW94255   9.488   5.351  14.004
97453SOL    HW194256   9.535   5.378  14.083
97453SOL    HW294257   9.397   5.376  14.020
97454SOL     OW94258   6.863   1.842  14.560
97454SOL    HW194259   6.826   1.783  14.493
97454SOL    HW294260   6.946   1.872  14.522
97455SOL     OW94261   9.601   4.253   2.934
97455SOL    HW194262   9.565   4.242   2.846
97455SOL    HW294263   9.543   4.316   2.976
97456SOL     OW94264   8.013  14.366   4.757
97456SOL    HW194265   8.087  14.353   4.817
97456SOL    HW294266   7.941  14.318   4.797
97457SOL     OW94267   6.904  11.895  12.877
97457SOL    HW194268   6.813  11.874  12.857
97457SOL    HW294269   6.900  11.983  12.915
97458SOL     OW94270   9.133  10.769   2.668
97458SOL    HW194271   9.072  10.794   2.737
97458SOL    HW294272   9.199  10.838   2.668
97459SOL     OW94273   3.002   6.231   2.464
97459SOL    HW194274   3.081   6.182   2.485
97459SOL    HW294275   2.931   6.185   2.510
97460SOL     OW94276   1.780  10.507   8.304
97460SOL    HW194277   1.818  10.419   8.298
97460SOL    HW294278   1.718  10.512   8.231
97461SOL     OW94279   2.246  11.145   7.709
97461SOL    HW194280   2.325  11.102   7.676
97461SOL    HW294281   2.261  11.238   7.692
97462SOL     OW94282   7.432   2.760   1.261
97462SOL    HW194283   7.523   2.786   1.249
97462SOL    HW294284   7.393   2.770   1.174
97463SOL     OW94285   3.806   7.712   7.855
97463SOL    HW194286   3.739   7.650   7.882
97463SOL    HW294287   3.856   7.666   7.787
97464SOL     OW94288   5.436   2.833  14.193
97464SOL    HW194289   5.531   2.832  14.180
97464SOL    HW294290   5.405   2.900  14.132
97465SOL     OW94291  12.529   8.124  13.735
97465SOL    HW194292  12.483   8.167  13.807
97465SOL    HW294293  12.609   8.089  13.775
97466SOL     OW94294   5.599   5.520  10.399
97466SOL    HW194295   5.666   5.493  10.337
97466SOL    HW294296   5.647   5.564  10.469
97467SOL     OW94297   1.380   6.017   7.969
97467SOL    HW194298   1.375   5.928   8.003
97467SOL    HW294299   1.366   6.008   7.875
97468SOL     OW94300  13.347  10.146   9.153
97468SOL    HW194301  13.419  10.148   9.090
97468SOL    HW294302  13.268  10.145   9.098
97469SOL     OW94303   2.242  12.762   6.344
97469SOL    HW194304   2.283  12.705   6.408
97469SOL    HW294305   2.157  12.722   6.326
97470SOL     OW94306  14.305   3.051  13.052
97470SOL    HW194307  14.238   3.105  13.009
97470SOL    HW294308  14.254   2.991  13.107
97471SOL     OW94309   6.454   7.919  10.879
97471SOL    HW194310   6.528   7.977  10.860
97471SOL    HW294311   6.395   7.972  10.933
97472SOL     OW94312  10.889   2.131  13.742
97472SOL    HW194313  10.955   2.192  13.708
97472SOL    HW294314  10.809   2.152  13.693
97473SOL     OW94315  11.318   5.903   9.346
97473SOL    HW194316  11.345   5.923   9.436
97473SOL    HW294317  11.341   5.811   9.334
97474SOL     OW94318   9.663   8.367   4.397
97474SOL    HW194319   9.684   8.438   4.337
97474SOL    HW294320   9.570   8.348   4.381
97475SOL     OW94321   5.224  11.031   5.906
97475SOL    HW194322   5.168  11.006   5.979
97475SOL    HW294323   5.313  11.025   5.942
97476SOL     OW94324   1.104   8.977  13.793
97476SOL    HW194325   1.148   9.060  13.780
97476SOL    HW294326   1.025   8.982  13.739
97477SOL     OW94327   7.585  14.517   8.128
97477SOL    HW194328   7.604  14.425   8.110
97477SOL    HW294329   7.534  14.515   8.208
97478SOL     OW94330   8.038  14.318   7.092
97478SOL    HW194331   7.964  14.270   7.127
97478SOL    HW294332   8.089  14.254   7.043
97479SOL     OW94333   7.495   9.953   2.951
97479SOL    HW194334   7.430   9.902   3.000
97479SOL    HW294335   7.446  10.029   2.919
97480SOL     OW94336   2.595  11.269   6.627
97480SOL    HW194337   2.583  11.205   6.557
97480SOL    HW294338   2.507  11.283   6.662
97481SOL     OW94339   3.807   0.563   1.503
97481SOL    HW194340   3.812   0.512   1.584
97481SOL    HW294341   3.898   0.583   1.482
97482SOL     OW94342   0.208   8.147  14.537
97482SOL    HW194343   0.137   8.211  14.529
97482SOL    HW294344   0.209   8.125  14.630
97483SOL     OW94345   6.920  13.071  13.816
97483SOL    HW194346   6.891  12.984  13.788
97483SOL    HW294347   6.879  13.131  13.754
97484SOL     OW94348  12.597  12.819   6.180
97484SOL    HW194349  12.655  12.843   6.253
97484SOL    HW294350  12.654  12.780   6.115
97485SOL     OW94351   6.757   9.254  13.895
97485SOL    HW194352   6.746   9.340  13.856
97485SOL    HW294353   6.700   9.254  13.972
97486SOL     OW94354   7.092  12.199  11.625
97486SOL    HW194355   7.069  12.272  11.682
97486SOL    HW294356   7.173  12.228  11.581
97487SOL     OW94357   1.313   4.337  12.228
97487SOL    HW194358   1.292   4.299  12.313
97487SOL    HW294359   1.237   4.316  12.173
97488SOL     OW94360  14.662   7.881  14.810
97488SOL    HW194361  14.569   7.899  14.824
97488SOL    HW294362  14.666   7.788  14.791
97489SOL     OW94363  13.305   6.880  11.198
97489SOL    HW194364  13.393   6.873  11.234
97489SOL    HW294365  13.309   6.836  11.113
97490SOL     OW94366   2.474   9.469   5.709
97490SOL    HW194367   2.523   9.454   5.790
97490SOL    HW294368   2.400   9.408   5.715
97491SOL     OW94369   5.454   9.912  12.413
97491SOL    HW194370   5.366   9.900  12.376
97491SOL    HW294371   5.465  10.007  12.420
97492SOL     OW94372  13.026   6.268  14.499
97492SOL    HW194373  13.050   6.178  14.478
97492SOL    HW294374  13.066   6.320  14.429
97493SOL     OW94375  10.038   5.092   7.617
97493SOL    HW194376  10.059   5.136   7.699
97493SOL    HW294377  10.110   5.116   7.558
97494SOL     OW94378  14.441   5.574   0.225
97494SOL    HW194379  14.503   5.548   0.157
97494SOL    HW294380  14.462   5.518   0.300
97495SOL     OW94381   9.502  13.997  14.538
97495SOL    HW194382   9.475  13.940  14.611
97495SOL    HW294383   9.589  13.965  14.514
97496SOL     OW94384   3.688   8.340  12.290
97496SOL    HW194385   3.769   8.362  12.336
97496SOL    HW294386   3.714   8.332  12.199
97497SOL     OW94387   6.615   8.978   1.449
97497SOL    HW194388   6.670   9.054   1.470
97497SOL    HW294389   6.653   8.906   1.499
97498SOL     OW94390   0.272  12.936   7.818
97498SOL    HW194391   0.346  12.886   7.784
97498SOL    HW294392   0.197  12.903   7.770
97499SOL     OW94393  11.623   3.516   8.599
97499SOL    HW194394  11.702   3.544   8.552
97499SOL    HW294395  11.654   3.452   8.663
97500SOL     OW94396   3.641   2.660  13.802
97500SOL    HW194397   3.589   2.600  13.749
97500SOL    HW294398   3.582   2.733  13.821
97501SOL     OW94399  11.736  12.685   9.579
97501SOL    HW194400  11.663  12.725   9.531
97501SOL    HW294401  11.702  12.602   9.610
97502SOL     OW94402   8.812   5.243   0.210
97502SOL    HW194403   8.731   5.208   0.249
97502SOL    HW294404   8.787   5.263   0.119
97503SOL     OW94405  14.286  11.702  11.008
97503SOL    HW194406  14.225  11.673  10.940
97503SOL    HW294407  14.357  11.746  10.960
97504SOL     OW94408  13.529   7.876  12.915
97504SOL    HW194409  13.450   7.846  12.871
97504SOL    HW294410  13.552   7.805  12.975
97505SOL     OW94411   8.932  10.512  10.596
97505SOL    HW194412   9.002  10.564  10.635
97505SOL    HW294413   8.917  10.552  10.510
97506SOL     OW94414   1.104   2.700  14.510
97506SOL    HW194415   1.032   2.711  14.572
97506SOL    HW294416   1.143   2.616  14.532
97507SOL     OW94417  11.239   1.095   9.174
97507SOL    HW194418  11.151   1.088   9.136
97507SOL    HW294419  11.287   1.151   9.113
97508SOL     OW94420   1.748   0.234   6.426
97508SOL    HW194421   1.800   0.275   6.357
97508SOL    HW294422   1.709   0.307   6.474
97509SOL     OW94423   5.404   0.478  11.345
97509SOL    HW194424   5.371   0.565  11.322
97509SOL    HW294425   5.350   0.451  11.419
97510SOL     OW94426   5.565  13.530  11.284
97510SOL    HW194427   5.499  13.478  11.330
97510SOL    HW294428   5.633  13.467  11.261
97511SOL     OW94429   0.008   1.297   9.603
97511SOL    HW194430  14.842   1.356   9.550
97511SOL    HW294431  14.833   1.236   9.641
97512SOL     OW94432  10.423  14.276   7.320
97512SOL    HW194433  10.361  14.241   7.256
97512SOL    HW294434  10.429  14.369   7.300
97513SOL     OW94435  10.690   4.807  12.163
97513SOL    HW194436  10.613   4.761  12.197
97513SOL    HW294437  10.658   4.895  12.143
97514SOL     OW94438  10.061   0.474   0.325
97514SOL    HW194439  10.032   0.391   0.288
97514SOL    HW294440  10.076   0.454   0.418
97515SOL     OW94441   7.301  13.923  13.724
97515SOL    HW194442   7.387  13.939  13.686
97515SOL    HW294443   7.309  13.952  13.815
97516SOL     OW94444   5.411   0.058  11.277
97516SOL    HW194445   5.335   0.076  11.332
97516SOL    HW294446   5.481   0.112  11.315
97517SOL     OW94447   8.116   9.947   9.517
97517SOL    HW194448   8.133   9.924   9.426
97517SOL    HW294449   8.065   9.873   9.551
97518SOL     OW94450   2.273   8.055   0.117
97518SOL    HW194451   2.257   7.989   0.050
97518SOL    HW294452   2.291   8.135   0.068
97519SOL     OW94453  11.751  13.409   4.774
97519SOL    HW194454  11.747  13.353   4.851
97519SOL    HW294455  11.829  13.462   4.787
97520SOL     OW94456  11.791  12.116   4.850
97520SOL    HW194457  11.870  12.132   4.798
97520SOL    HW294458  11.719  12.130   4.788
97521SOL     OW94459   0.342   7.776  11.710
97521SOL    HW194460   0.338   7.757  11.804
97521SOL    HW294461   0.294   7.857  11.699
97522SOL     OW94462   2.374   6.602   0.904
97522SOL    HW194463   2.322   6.523   0.890
97522SOL    HW294464   2.326   6.652   0.970
97523SOL     OW94465  13.863  12.284   3.842
97523SOL    HW194466  13.801  12.211   3.847
97523SOL    HW294467  13.931  12.262   3.906
97524SOL     OW94468  11.690   3.401   5.691
97524SOL    HW194469  11.624   3.333   5.676
97524SOL    HW294470  11.675   3.429   5.781
97525SOL     OW94471  13.672   5.078  10.668
97525SOL    HW194472  13.584   5.111  10.689
97525SOL    HW294473  13.680   5.092  10.573
97526SOL     OW94474   8.168   0.338   9.004
97526SOL    HW194475   8.157   0.305   8.915
97526SOL    HW294476   8.185   0.432   8.993
97527SOL     OW94477  11.310   5.386   3.162
97527SOL    HW194478  11.357   5.302   3.161
97527SOL    HW294479  11.223   5.364   3.197
97528SOL     OW94480   1.480   8.327   7.316
97528SOL    HW194481   1.408   8.320   7.253
97528SOL    HW294482   1.451   8.394   7.378
97529SOL     OW94483  13.723   6.770  10.700
97529SOL    HW194484  13.693   6.811  10.620
97529SOL    HW294485  13.757   6.842  10.754
97530SOL     OW94486   5.654   6.392  10.174
97530SOL    HW194487   5.665   6.380  10.079
97530SOL    HW294488   5.665   6.486  10.188
97531SOL     OW94489  13.406   0.468   8.808
97531SOL    HW194490  13.331   0.506   8.854
97531SOL    HW294491  13.385   0.479   8.715
97532SOL     OW94492   0.843   6.586  11.246
97532SOL    HW194493   0.900   6.533  11.302
97532SOL    HW294494   0.864   6.677  11.269
97533SOL     OW94495  14.582  10.366   6.194
97533SOL    HW194496  14.609  10.383   6.104
97533SOL    HW294497  14.531  10.443   6.220
97534SOL     OW94498   9.668   8.573   5.969
97534SOL    HW194499   9.749   8.524   5.954
97534SOL    HW294500   9.611   8.548   5.896
97535SOL     OW94501   9.618   3.310   1.520
97535SOL    HW194502   9.563   3.299   1.597
97535SOL    HW294503   9.577   3.255   1.453
97536SOL     OW94504  13.083  10.422  13.392
97536SOL    HW194505  13.019  10.472  13.341
97536SOL    HW294506  13.030  10.368  13.451
97537SOL     OW94507  14.414   7.704   8.801
97537SOL    HW194508  14.416   7.701   8.897
97537SOL    HW294509  14.506   7.716   8.776
97538SOL     OW94510   8.197   9.109   0.730
97538SOL    HW194511   8.122   9.060   0.764
97538SOL    HW294512   8.173   9.201   0.741
97539SOL     OW94513  14.233  10.500   6.351
97539SOL    HW194514  14.182  10.579   6.330
97539SOL    HW294515  14.178  10.427   6.323
97540SOL     OW94516   9.258  11.936  12.302
97540SOL    HW194517   9.210  11.868  12.254
97540SOL    HW294518   9.269  12.006  12.237
97541SOL     OW94519  11.542   6.266   3.460
97541SOL    HW194520  11.468   6.294   3.405
97541SOL    HW294521  11.501   6.236   3.541
97542SOL     OW94522   6.798   9.312   9.801
97542SOL    HW194523   6.886   9.318   9.765
97542SOL    HW294524   6.754   9.391   9.771
97543SOL     OW94525   4.779   2.288   5.049
97543SOL    HW194526   4.866   2.326   5.055
97543SOL    HW294527   4.794   2.194   5.037
97544SOL     OW94528   2.895  13.900   7.046
97544SOL    HW194529   2.832  13.833   7.073
97544SOL    HW294530   2.844  13.981   7.047
97545SOL     OW94531   5.812   4.296   8.304
97545SOL    HW194532   5.886   4.243   8.272
97545SOL    HW294533   5.839   4.386   8.288
97546SOL     OW94534   7.450   7.110  14.129
97546SOL    HW194535   7.473   7.020  14.104
97546SOL    HW294536   7.445   7.157  14.046
97547SOL     OW94537   7.234  14.611   9.654
97547SOL    HW194538   7.286  14.540   9.616
97547SOL    HW294539   7.299  14.676   9.683
97548SOL     OW94540   9.526   1.914  11.574
97548SOL    HW194541   9.483   1.976  11.516
97548SOL    HW294542   9.457   1.852  11.598
97549SOL     OW94543   1.224   8.808   0.679
97549SOL    HW194544   1.218   8.732   0.621
97549SOL    HW294545   1.284   8.868   0.635
97550SOL     OW94546  10.328   0.194   9.692
97550SOL    HW194547  10.244   0.164   9.727
97550SOL    HW294548  10.313   0.287   9.671
97551SOL     OW94549  10.681   4.710   8.645
97551SOL    HW194550  10.648   4.773   8.710
97551SOL    HW294551  10.639   4.736   8.563
97552SOL     OW94552   2.887  14.402   8.739
97552SOL    HW194553   2.863  14.484   8.782
97552SOL    HW294554   2.810  14.346   8.751
97553SOL     OW94555  10.497  10.094   2.213
97553SOL    HW194556  10.497  10.186   2.242
97553SOL    HW294557  10.405  10.071   2.209
97554SOL     OW94558  14.102  13.685   0.019
97554SOL    HW194559  14.052  13.695  14.825
97554SOL    HW294560  14.193  13.699  14.880
97555SOL     OW94561   8.076   8.997  13.825
97555SOL    HW194562   8.116   9.035  13.904
97555SOL    HW294563   8.038   9.071  13.779
97556SOL     OW94564   3.462   5.850   5.250
97556SOL    HW194565   3.423   5.916   5.193
97556SOL    HW294566   3.390   5.825   5.309
97557SOL     OW94567   5.089   1.198  10.596
97557SOL    HW194568   5.077   1.103  10.587
97557SOL    HW294569   5.083   1.214  10.690
97558SOL     OW94570   0.571   4.967  10.726
97558SOL    HW194571   0.500   5.027  10.749
97558SOL    HW294572   0.619   5.012  10.656
97559SOL     OW94573  10.772   6.608  13.921
97559SOL    HW194574  10.708   6.669  13.957
97559SOL    HW294575  10.854   6.657  13.919
97560SOL     OW94576  13.494   8.494   4.118
97560SOL    HW194577  13.406   8.456   4.113
97560SOL    HW294578  13.479   8.588   4.130
97561SOL     OW94579   4.378  12.140   7.833
97561SOL    HW194580   4.335  12.064   7.793
97561SOL    HW294581   4.316  12.212   7.821
97562SOL     OW94582   6.749  13.314   7.841
97562SOL    HW194583   6.728  13.355   7.757
97562SOL    HW294584   6.817  13.370   7.879
97563SOL     OW94585  10.179  13.110  14.787
97563SOL    HW194586  10.102  13.133  14.735
97563SOL    HW294587  10.164  13.019  14.813
97564SOL     OW94588  14.221   5.497   8.217
97564SOL    HW194589  14.292   5.472   8.159
97564SOL    HW294590  14.244   5.585   8.247
97565SOL     OW94591  14.407   3.815   2.190
97565SOL    HW194592  14.330   3.863   2.158
97565SOL    HW294593  14.399   3.728   2.151
97566SOL     OW94594   2.135   0.200   4.968
97566SOL    HW194595   2.079   0.262   5.015
97566SOL    HW294596   2.144   0.237   4.880
97567SOL     OW94597   3.488  11.956   4.900
97567SOL    HW194598   3.501  12.047   4.872
97567SOL    HW294599   3.394  11.950   4.919
97568SOL     OW94600   6.031  10.328   7.498
97568SOL    HW194601   6.118  10.360   7.521
97568SOL    HW294602   5.974  10.357   7.569
97569SOL     OW94603   1.940  10.005   2.228
97569SOL    HW194604   2.023  10.049   2.247
97569SOL    HW294605   1.939   9.930   2.287
97570SOL     OW94606  13.063  12.642   1.102
97570SOL    HW194607  13.029  12.706   1.039
97570SOL    HW294608  13.149  12.618   1.068
97571SOL     OW94609  12.173   3.742   3.537
97571SOL    HW194610  12.152   3.693   3.616
97571SOL    HW294611  12.090   3.781   3.510
97572SOL     OW94612   1.445   3.591   0.540
97572SOL    HW194613   1.419   3.598   0.632
97572SOL    HW294614   1.363   3.599   0.491
97573SOL     OW94615   4.668   5.919   6.617
97573SOL    HW194616   4.701   5.892   6.532
97573SOL    HW294617   4.578   5.947   6.600
97574SOL     OW94618   7.551   7.771   5.475
97574SOL    HW194619   7.504   7.774   5.558
97574SOL    HW294620   7.497   7.716   5.418
97575SOL     OW94621   2.781   5.615  10.739
97575SOL    HW194622   2.828   5.587  10.661
97575SOL    HW294623   2.698   5.650  10.706
97576SOL     OW94624   6.085   9.147   3.736
97576SOL    HW194625   6.078   9.219   3.799
97576SOL    HW294626   6.177   9.120   3.741
97577SOL     OW94627   2.143   1.194  10.421
97577SOL    HW194628   2.060   1.219  10.462
97577SOL    HW294629   2.208   1.208  10.490
97578SOL     OW94630   9.494   0.848   7.683
97578SOL    HW194631   9.418   0.790   7.686
97578SOL    HW294632   9.541   0.829   7.764
97579SOL     OW94633   8.816   5.098  11.907
97579SOL    HW194634   8.868   5.102  11.827
97579SOL    HW294635   8.868   5.046  11.967
97580SOL     OW94636  13.400   0.570  13.135
97580SOL    HW194637  13.413   0.615  13.218
97580SOL    HW294638  13.396   0.477  13.159
97581SOL     OW94639   6.346   3.087  11.899
97581SOL    HW194640   6.279   3.019  11.904
97581SOL    HW294641   6.396   3.066  11.820
97582SOL     OW94642   7.874   9.544   6.325
97582SOL    HW194643   7.919   9.535   6.409
97582SOL    HW294644   7.903   9.468   6.274
97583SOL     OW94645   0.835  12.811   7.518
97583SOL    HW194646   0.866  12.721   7.520
97583SOL    HW294647   0.740  12.804   7.509
97584SOL     OW94648   8.369   0.700  11.625
97584SOL    HW194649   8.354   0.783  11.580
97584SOL    HW294650   8.449   0.714  11.675
97585SOL     OW94651  13.697   8.932  13.059
97585SOL    HW194652  13.613   8.887  13.065
97585SOL    HW294653  13.762   8.864  13.078
97586SOL     OW94654   6.149   3.138   4.199
97586SOL    HW194655   6.119   3.215   4.247
97586SOL    HW294656   6.169   3.171   4.111
97587SOL     OW94657  12.460   2.190   3.735
97587SOL    HW194658  12.378   2.227   3.767
97587SOL    HW294659  12.499   2.261   3.683
97588SOL     OW94660   3.100   3.447   0.561
97588SOL    HW194661   3.086   3.374   0.500
97588SOL    HW294662   3.194   3.449   0.575
97589SOL     OW94663  10.716   7.851  13.492
97589SOL    HW194664  10.669   7.873  13.573
97589SOL    HW294665  10.767   7.929  13.471
97590SOL     OW94666   9.292   3.543   4.538
97590SOL    HW194667   9.221   3.538   4.473
97590SOL    HW294668   9.370   3.519   4.489
97591SOL     OW94669   6.938   7.430   0.435
97591SOL    HW194670   7.009   7.450   0.496
97591SOL    HW294671   6.873   7.383   0.488
97592SOL     OW94672   1.395  13.334  10.622
97592SOL    HW194673   1.473  13.341  10.567
97592SOL    HW294674   1.323  13.324  10.560
97593SOL     OW94675  13.066  10.618   5.640
97593SOL    HW194676  13.091  10.536   5.684
97593SOL    HW294677  13.144  10.645   5.593
97594SOL     OW94678   0.714   1.322   3.024
97594SOL    HW194679   0.662   1.397   2.995
97594SOL    HW294680   0.721   1.267   2.945
97595SOL     OW94681  11.614   2.037   2.743
97595SOL    HW194682  11.536   2.074   2.701
97595SOL    HW294683  11.586   2.020   2.833
97596SOL     OW94684   7.374  14.070   1.674
97596SOL    HW194685   7.436  14.016   1.624
97596SOL    HW294686   7.301  14.011   1.693
97597SOL     OW94687   2.302   6.084  13.523
97597SOL    HW194688   2.340   6.079  13.610
97597SOL    HW294689   2.241   6.011  13.519
97598SOL     OW94690   0.041  13.549   9.581
97598SOL    HW194691  14.877  13.587   9.508
97598SOL    HW294692   0.034  13.614   9.651
97599SOL     OW94693   1.473   1.519  11.417
97599SOL    HW194694   1.424   1.523  11.334
97599SOL    HW294695   1.405   1.516  11.484
97600SOL     OW94696   5.484  14.408  11.980
97600SOL    HW194697   5.414  14.399  12.045
97600SOL    HW294698   5.562  14.377  12.024
97601SOL     OW94699   6.647   3.798  11.214
97601SOL    HW194700   6.608   3.812  11.128
97601SOL    HW294701   6.682   3.708  11.210
97602SOL     OW94702   2.315   4.404   9.457
97602SOL    HW194703   2.287   4.441   9.540
97602SOL    HW294704   2.392   4.455   9.432
97603SOL     OW94705   3.740  13.044   8.603
97603SOL    HW194706   3.781  13.087   8.528
97603SOL    HW294707   3.677  13.108   8.636
97604SOL     OW94708  11.174   0.354   2.515
97604SOL    HW194709  11.236   0.424   2.495
97604SOL    HW294710  11.226   0.274   2.512
97605SOL     OW94711   6.149  13.245   2.541
97605SOL    HW194712   6.198  13.219   2.618
97605SOL    HW294713   6.149  13.167   2.485
97606SOL     OW94714   9.844   7.363  10.395
97606SOL    HW194715   9.847   7.323  10.482
97606SOL    HW294716   9.903   7.438  10.401
97607SOL     OW94717   4.464  10.207  11.604
97607SOL    HW194718   4.463  10.221  11.699
97607SOL    HW294719   4.553  10.178  11.585
97608SOL     OW94720   7.153  11.947  11.718
97608SOL    HW194721   7.194  11.904  11.642
97608SOL    HW294722   7.122  12.031  11.683
97609SOL     OW94723   5.168   2.854   0.621
97609SOL    HW194724   5.147   2.932   0.673
97609SOL    HW294725   5.264   2.854   0.615
97610SOL     OW94726   2.802   2.348  13.550
97610SOL    HW194727   2.834   2.409  13.483
97610SOL    HW294728   2.776   2.403  13.623
97611SOL     OW94729   5.499  14.084   7.051
97611SOL    HW194730   5.428  14.100   6.990
97611SOL    HW294731   5.562  14.154   7.034
97612SOL     OW94732   5.183   9.706   6.137
97612SOL    HW194733   5.157   9.769   6.070
97612SOL    HW294734   5.199   9.760   6.215
97613SOL     OW94735  11.725   4.554   4.336
97613SOL    HW194736  11.758   4.604   4.261
97613SOL    HW294737  11.630   4.554   4.324
97614SOL     OW94738   6.328   8.705  10.812
97614SOL    HW194739   6.233   8.704  10.811
97614SOL    HW294740   6.354   8.620  10.777
97615SOL     OW94741  13.949   7.190  11.258
97615SOL    HW194742  13.950   7.207  11.352
97615SOL    HW294743  14.037   7.214  11.229
97616SOL     OW94744  12.926  10.670  14.712
97616SOL    HW194745  12.876  10.751  14.702
97616SOL    HW294746  12.999  10.678  14.650
97617SOL     OW94747   6.848   6.726   1.796
97617SOL    HW194748   6.925   6.675   1.771
97617SOL    HW294749   6.842   6.795   1.731
97618SOL     OW94750   9.571   1.721  10.763
97618SOL    HW194751   9.529   1.761  10.687
97618SOL    HW294752   9.606   1.795  10.813
97619SOL     OW94753   3.989  12.652  12.865
97619SOL    HW194754   3.916  12.703  12.900
97619SOL    HW294755   4.001  12.581  12.927
97620SOL     OW94756  13.366  10.452   6.972
97620SOL    HW194757  13.417  10.498   6.906
97620SOL    HW294758  13.332  10.521   7.028
97621SOL     OW94759   4.224   4.616   9.779
97621SOL    HW194760   4.182   4.627   9.693
97621SOL    HW294761   4.261   4.702   9.798
97622SOL     OW94762   9.125   7.157   5.494
97622SOL    HW194763   9.163   7.158   5.582
97622SOL    HW294764   9.061   7.228   5.494
97623SOL     OW94765  13.969   2.023  12.074
97623SOL    HW194766  14.030   2.085  12.114
97623SOL    HW294767  13.990   1.939  12.114
97624SOL     OW94768   7.710   4.169   0.508
97624SOL    HW194769   7.622   4.143   0.533
97624SOL    HW294770   7.765   4.144   0.583
97625SOL     OW94771   6.789  12.758  13.463
97625SOL    HW194772   6.885  12.764  13.470
97625SOL    HW294773   6.760  12.727  13.549
97626SOL     OW94774   6.595  13.854  10.508
97626SOL    HW194775   6.523  13.806  10.467
97626SOL    HW294776   6.588  13.832  10.601
97627SOL     OW94777   1.089  13.631   3.034
97627SOL    HW194778   1.074  13.613   3.126
97627SOL    HW294779   1.132  13.717   3.033
97628SOL     OW94780   5.824   2.944   5.133
97628SOL    HW194781   5.860   2.989   5.209
97628SOL    HW294782   5.737   2.914   5.162
97629SOL     OW94783   3.295  13.521   7.879
97629SOL    HW194784   3.330  13.573   7.951
97629SOL    HW294785   3.346  13.549   7.803
97630SOL     OW94786   3.811   8.706  10.845
97630SOL    HW194787   3.880   8.721  10.781
97630SOL    HW294788   3.741   8.767  10.821
97631SOL     OW94789   4.605   3.144   4.607
97631SOL    HW194790   4.646   3.060   4.586
97631SOL    HW294791   4.654   3.208   4.555
97632SOL     OW94792   3.200  10.572   1.759
97632SOL    HW194793   3.294  10.571   1.741
97632SOL    HW294794   3.194  10.565   1.855
97633SOL     OW94795   5.883   2.207  12.368
97633SOL    HW194796   5.904   2.205  12.274
97633SOL    HW294797   5.898   2.297  12.395
97634SOL     OW94798  11.448   7.190  12.865
97634SOL    HW194799  11.491   7.132  12.927
97634SOL    HW294800  11.517   7.214  12.803
97635SOL     OW94801   8.022   2.991  13.590
97635SOL    HW194802   8.027   2.974  13.684
97635SOL    HW294803   8.114   2.997  13.563
97636SOL     OW94804   9.642   9.122   9.875
97636SOL    HW194805   9.732   9.089   9.878
97636SOL    HW294806   9.626   9.139   9.782
97637SOL     OW94807  14.110  11.359  14.614
97637SOL    HW194808  14.109  11.337  14.707
97637SOL    HW294809  14.173  11.431  14.607
97638SOL     OW94810   7.037  10.489   5.410
97638SOL    HW194811   7.060  10.568   5.459
97638SOL    HW294812   7.111  10.430   5.424
97639SOL     OW94813   0.990  13.211   9.301
97639SOL    HW194814   0.985  13.181   9.211
97639SOL    HW294815   0.902  13.244   9.320
97640SOL     OW94816   3.167   3.640  14.434
97640SOL    HW194817   3.124   3.589  14.365
97640SOL    HW294818   3.241   3.682  14.390
97641SOL     OW94819  12.228   9.436  11.583
97641SOL    HW194820  12.303   9.419  11.526
97641SOL    HW294821  12.262   9.494  11.651
97642SOL     OW94822   7.330   5.084   6.554
97642SOL    HW194823   7.329   4.995   6.590
97642SOL    HW294824   7.247   5.122   6.581
97643SOL     OW94825  13.482   8.322   7.938
97643SOL    HW194826  13.559   8.349   7.989
97643SOL    HW294827  13.518   8.282   7.859
97644SOL     OW94828  11.897  14.214   1.545
97644SOL    HW194829  11.887  14.280   1.614
97644SOL    HW294830  11.876  14.131   1.588
97645SOL     OW94831   0.762   5.117   4.734
97645SOL    HW194832   0.728   5.069   4.658
97645SOL    HW294833   0.686   5.164   4.769
97646SOL     OW94834   0.287   0.587   3.703
97646SOL    HW194835   0.346   0.647   3.749
97646SOL    HW294836   0.211   0.580   3.760
97647SOL     OW94837   6.508  10.855   3.885
97647SOL    HW194838   6.417  10.847   3.856
97647SOL    HW294839   6.552  10.779   3.848
97648SOL     OW94840   7.427   2.941   6.789
97648SOL    HW194841   7.455   2.910   6.875
97648SOL    HW294842   7.349   2.994   6.807
97649SOL     OW94843   1.573   0.467   5.695
97649SOL    HW194844   1.539   0.424   5.773
97649SOL    HW294845   1.520   0.432   5.623
97650SOL     OW94846   5.193   2.221   1.403
97650SOL    HW194847   5.279   2.245   1.438
97650SOL    HW294848   5.153   2.168   1.471
97651SOL     OW94849  11.435   0.883   3.079
97651SOL    HW194850  11.365   0.946   3.098
97651SOL    HW294851  11.398   0.799   3.107
97652SOL     OW94852   6.641   6.497   6.440
97652SOL    HW194853   6.636   6.404   6.417
97652SOL    HW294854   6.710   6.532   6.384
97653SOL     OW94855   2.594   0.008   6.769
97653SOL    HW194856   2.572  14.842   6.846
97653SOL    HW294857   2.510   0.023   6.726
97654SOL     OW94858  13.063  14.843  10.082
97654SOL    HW194859  13.048  14.868   9.991
97654SOL    HW294860  13.057   0.038  10.130
97655SOL     OW94861  11.029   4.754   1.285
97655SOL    HW194862  11.091   4.823   1.260
97655SOL    HW294863  11.080   4.695   1.341
97656SOL     OW94864  12.350   9.671   1.818
97656SOL    HW194865  12.337   9.766   1.809
97656SOL    HW294866  12.307   9.649   1.901
97657SOL     OW94867  11.058   2.340   5.858
97657SOL    HW194868  11.055   2.435   5.863
97657SOL    HW294869  10.972   2.311   5.889
97658SOL     OW94870   5.575  14.368  13.133
97658SOL    HW194871   5.484  14.367  13.101
97658SOL    HW294872   5.611  14.284  13.107
97659SOL     OW94873   2.829   7.106   1.831
97659SOL    HW194874   2.821   7.099   1.736
97659SOL    HW294875   2.923   7.111   1.847
97660SOL     OW94876   4.813   7.732   4.961
97660SOL    HW194877   4.806   7.637   4.953
97660SOL    HW294878   4.826   7.746   5.055
97661SOL     OW94879  13.873  14.529  13.560
97661SOL    HW194880  13.807  14.514  13.628
97661SOL    HW294881  13.859  14.457  13.498
97662SOL     OW94882   3.357   9.408   6.269
97662SOL    HW194883   3.350   9.332   6.327
97662SOL    HW294884   3.430   9.459   6.304
97663SOL     OW94885   1.094   5.902   0.987
97663SOL    HW194886   1.160   5.851   1.033
97663SOL    HW294887   1.132   5.916   0.900
97664SOL     OW94888   2.630  12.730   6.436
97664SOL    HW194889   2.541  12.725   6.469
97664SOL    HW294890   2.648  12.642   6.402
97665SOL     OW94891   3.466  11.526   9.794
97665SOL    HW194892   3.462  11.544   9.888
97665SOL    HW294893   3.489  11.433   9.789
97666SOL     OW94894   0.518  14.741  11.087
97666SOL    HW194895   0.595  14.701  11.048
97666SOL    HW294896   0.551  14.819  11.131
97667SOL     OW94897   3.896  10.230   2.755
97667SOL    HW194898   3.846  10.208   2.676
97667SOL    HW294899   3.830  10.233   2.825
97668SOL     OW94900  12.916   6.003   1.568
97668SOL    HW194901  12.894   5.996   1.661
97668SOL    HW294902  12.934   5.913   1.541
97669SOL     OW94903   6.265   7.197   0.492
97669SOL    HW194904   6.176   7.167   0.512
97669SOL    HW294905   6.271   7.192   0.396
97670SOL     OW94906  14.522   6.801   4.028
97670SOL    HW194907  14.501   6.757   4.111
97670SOL    HW294908  14.446   6.855   4.009
97671SOL     OW94909   6.042   2.497   6.179
97671SOL    HW194910   6.093   2.569   6.216
97671SOL    HW294911   6.108   2.433   6.150
97672SOL     OW94912   0.307  11.935   6.658
97672SOL    HW194913   0.289  11.842   6.674
97672SOL    HW294914   0.311  11.942   6.563
97673SOL     OW94915   6.136  13.886   4.524
97673SOL    HW194916   6.065  13.833   4.487
97673SOL    HW294917   6.193  13.823   4.568
97674SOL     OW94918   3.806   6.300   2.438
97674SOL    HW194919   3.818   6.370   2.502
97674SOL    HW294920   3.895   6.268   2.420
97675SOL     OW94921   9.105   3.645   2.809
97675SOL    HW194922   9.141   3.661   2.722
97675SOL    HW294923   9.011   3.640   2.796
97676SOL     OW94924   4.234   4.181   9.347
97676SOL    HW194925   4.290   4.121   9.396
97676SOL    HW294926   4.277   4.191   9.263
97677SOL     OW94927   3.155   6.340   0.449
97677SOL    HW194928   3.140   6.328   0.355
97677SOL    HW294929   3.068   6.328   0.489
97678SOL     OW94930  11.578  12.353   0.440
97678SOL    HW194931  11.661  12.365   0.394
97678SOL    HW294932  11.587  12.270   0.487
97679SOL     OW94933   5.412  12.252   2.298
97679SOL    HW194934   5.449  12.340   2.288
97679SOL    HW294935   5.332  12.266   2.349
97680SOL     OW94936   5.924  12.559   7.027
97680SOL    HW194937   5.871  12.566   6.948
97680SOL    HW294938   6.013  12.579   6.999
97681SOL     OW94939  13.169  12.398   8.673
97681SOL    HW194940  13.227  12.437   8.738
97681SOL    HW294941  13.081  12.411   8.708
97682SOL     OW94942   2.231  14.395  10.966
97682SOL    HW194943   2.165  14.444  11.016
97682SOL    HW294944   2.264  14.330  11.028
97683SOL     OW94945   0.302   2.123   4.175
97683SOL    HW194946   0.333   2.170   4.098
97683SOL    HW294947   0.310   2.031   4.151
97684SOL     OW94948   4.788   8.494   6.978
97684SOL    HW194949   4.881   8.498   6.955
97684SOL    HW294950   4.743   8.529   6.902
97685SOL     OW94951  12.102   6.605  14.347
97685SOL    HW194952  12.174   6.546  14.369
97685SOL    HW294953  12.023   6.552  14.359
97686SOL     OW94954  11.991   6.170   9.423
97686SOL    HW194955  11.931   6.098   9.444
97686SOL    HW294956  12.070   6.127   9.392
97687SOL     OW94957   5.402   1.137   0.441
97687SOL    HW194958   5.483   1.146   0.391
97687SOL    HW294959   5.399   1.216   0.495
97688SOL     OW94960   7.164   0.296   3.361
97688SOL    HW194961   7.151   0.254   3.446
97688SOL    HW294962   7.112   0.377   3.366
97689SOL     OW94963  12.068   5.560   8.384
97689SOL    HW194964  11.979   5.594   8.390
97689SOL    HW294965  12.110   5.587   8.466
97690SOL     OW94966   9.477   8.418  11.661
97690SOL    HW194967   9.552   8.475  11.643
97690SOL    HW294968   9.516   8.334  11.683
97691SOL     OW94969   8.041  11.411  13.288
97691SOL    HW194970   8.131  11.419  13.257
97691SOL    HW294971   7.994  11.484  13.248
97692SOL     OW94972   3.409   8.842   8.158
97692SOL    HW194973   3.321   8.815   8.182
97692SOL    HW294974   3.434   8.907   8.224
97693SOL     OW94975   9.668   2.297   2.513
97693SOL    HW194976   9.663   2.206   2.543
97693SOL    HW294977   9.593   2.308   2.455
97694SOL     OW94978  12.353   6.247   9.039
97694SOL    HW194979  12.271   6.218   8.999
97694SOL    HW294980  12.327   6.290   9.120
97695SOL     OW94981   7.097   1.246   5.534
97695SOL    HW194982   7.090   1.269   5.627
97695SOL    HW294983   7.121   1.154   5.534
97696SOL     OW94984   7.801   3.117   7.356
97696SOL    HW194985   7.831   3.048   7.415
97696SOL    HW294986   7.852   3.106   7.276
97697SOL     OW94987   7.095   2.853   1.551
97697SOL    HW194988   7.124   2.814   1.468
97697SOL    HW294989   7.165   2.915   1.574
97698SOL     OW94990   7.463   5.870   2.526
97698SOL    HW194991   7.428   5.940   2.471
97698SOL    HW294992   7.550   5.900   2.550
97699SOL     OW94993   0.597   4.659   3.561
97699SOL    HW194994   0.626   4.649   3.651
97699SOL    HW294995   0.655   4.726   3.524
97700SOL     OW94996   3.471   7.030   9.959
97700SOL    HW194997   3.448   6.950  10.006
97700SOL    HW294998   3.558   7.013   9.923
97701SOL     OW94999  11.445   3.918  11.499
97701SOL    HW195000  11.468   3.981  11.431
97701SOL    HW295001  11.506   3.845  11.486
97702SOL     OW95002   9.542   7.599  13.630
97702SOL    HW195003   9.608   7.661  13.659
97702SOL    HW295004   9.476   7.599  13.700
97703SOL     OW95005   1.918   0.624  11.916
97703SOL    HW195006   2.002   0.586  11.891
97703SOL    HW295007   1.904   0.595  12.006
97704SOL     OW95008   0.600  12.091  13.369
97704SOL    HW195009   0.682  12.092  13.319
97704SOL    HW295010   0.533  12.110  13.303
97705SOL     OW95011   2.687   6.699   2.963
97705SOL    HW195012   2.606   6.660   2.931
97705SOL    HW295013   2.666   6.731   3.050
97706SOL     OW95014   2.512  12.342  13.351
97706SOL    HW195015   2.495  12.250  13.370
97706SOL    HW295016   2.429  12.375  13.318
97707SOL     OW95017  11.728   2.226   3.266
97707SOL    HW195018  11.639   2.242   3.299
97707SOL    HW295019  11.778   2.203   3.344
97708SOL     OW95020   1.980   8.323   9.019
97708SOL    HW195021   1.902   8.378   9.006
97708SOL    HW295022   2.020   8.356   9.099
97709SOL     OW95023   1.848  10.989   8.445
97709SOL    HW195024   1.810  10.936   8.375
97709SOL    HW295025   1.915  10.932   8.484
97710SOL     OW95026  11.656  10.679   2.179
97710SOL    HW195027  11.682  10.619   2.109
97710SOL    HW295028  11.616  10.623   2.245
97711SOL     OW95029   4.836  12.597  13.304
97711SOL    HW195030   4.779  12.557  13.239
97711SOL    HW295031   4.895  12.653  13.254
97712SOL     OW95032   9.949  13.027   2.999
97712SOL    HW195033   9.886  12.991   3.060
97712SOL    HW295034  10.033  12.989   3.025
97713SOL     OW95035   6.606  10.650   2.702
97713SOL    HW195036   6.552  10.608   2.769
97713SOL    HW295037   6.648  10.578   2.656
97714SOL     OW95038   4.340   4.232  14.476
97714SOL    HW195039   4.289   4.311  14.497
97714SOL    HW295040   4.309   4.167  14.538
97715SOL     OW95041   2.375  10.689  14.303
97715SOL    HW195042   2.470  10.693  14.305
97715SOL    HW295043   2.347  10.778  14.283
97716SOL     OW95044  14.422   6.997   8.150
97716SOL    HW195045  14.410   7.090   8.172
97716SOL    HW295046  14.384   6.950   8.224
97717SOL     OW95047  10.900  10.283   6.765
97717SOL    HW195048  10.959  10.353   6.737
97717SOL    HW295049  10.812  10.318   6.750
97718SOL     OW95050   0.351  13.411  14.060
97718SOL    HW195051   0.333  13.501  14.088
97718SOL    HW295052   0.287  13.359  14.109
97719SOL     OW95053   9.191   1.660   2.406
97719SOL    HW195054   9.194   1.754   2.393
97719SOL    HW295055   9.104   1.644   2.443
97720SOL     OW95056   5.346  12.480  13.996
97720SOL    HW195057   5.305  12.541  14.058
97720SOL    HW295058   5.410  12.532  13.948
97721SOL     OW95059   2.516  10.046   9.511
97721SOL    HW195060   2.469  10.076   9.589
97721SOL    HW295061   2.547  10.127   9.470
97722SOL     OW95062   1.790  10.355  11.696
97722SOL    HW195063   1.846  10.425  11.730
97722SOL    HW295064   1.849  10.300  11.645
97723SOL     OW95065   2.833   3.037   7.199
97723SOL    HW195066   2.861   3.076   7.282
97723SOL    HW295067   2.738   3.041   7.202
97724SOL     OW95068  12.991   3.048   4.437
97724SOL    HW195069  13.085   3.046   4.456
97724SOL    HW295070  12.962   2.958   4.452
97725SOL     OW95071   8.178   6.429   6.451
97725SOL    HW195072   8.106   6.377   6.485
97725SOL    HW295073   8.247   6.366   6.433
97726SOL     OW95074   5.238  11.407   9.938
97726SOL    HW195075   5.322  11.434   9.974
97726SOL    HW295076   5.232  11.314   9.961
97727SOL     OW95077   1.319  10.830  10.837
97727SOL    HW195078   1.249  10.804  10.777
97727SOL    HW295079   1.288  10.803  10.924
97728SOL     OW95080   5.701   8.842   3.371
97728SOL    HW195081   5.667   8.928   3.345
97728SOL    HW295082   5.740   8.857   3.457
97729SOL     OW95083  14.751  12.765   7.073
97729SOL    HW195084  14.737  12.815   7.153
97729SOL    HW295085  14.713  12.679   7.090
97730SOL     OW95086  10.919   5.045   5.812
97730SOL    HW195087  10.879   5.008   5.891
97730SOL    HW295088  10.862   5.017   5.741
97731SOL     OW95089   4.925   1.980  13.273
97731SOL    HW195090   5.001   2.028  13.240
97731SOL    HW295091   4.865   2.048  13.304
97732SOL     OW95092   1.517  10.662  12.175
97732SOL    HW195093   1.587  10.602  12.150
97732SOL    HW295094   1.486  10.629  12.259
97733SOL     OW95095  12.568  14.554   6.477
97733SOL    HW195096  12.476  14.527   6.479
97733SOL    HW295097  12.586  14.573   6.385
97734SOL     OW95098   1.200  11.821   9.727
97734SOL    HW195099   1.126  11.881   9.718
97734SOL    HW295100   1.160  11.734   9.728
97735SOL     OW95101  13.987  14.249  12.867
97735SOL    HW195102  13.919  14.215  12.810
97735SOL    HW295103  14.027  14.321  12.818
97736SOL     OW95104   8.592  13.693  11.514
97736SOL    HW195105   8.651  13.633  11.469
97736SOL    HW295106   8.649  13.755  11.559
97737SOL     OW95107   8.398   2.084  12.058
97737SOL    HW195108   8.493   2.074  12.068
97737SOL    HW295109   8.386   2.103  11.965
97738SOL     OW95110  14.813  11.858   3.920
97738SOL    HW195111  14.882  11.925   3.926
97738SOL    HW295112  14.734  11.902   3.949
97739SOL     OW95113   3.053  14.692   0.347
97739SOL    HW195114   2.996  14.736   0.284
97739SOL    HW295115   2.992  14.650   0.408
97740SOL     OW95116  10.451   8.409   9.125
97740SOL    HW195117  10.355   8.411   9.131
97740SOL    HW295118  10.470   8.335   9.068
97741SOL     OW95119  11.789  13.677   6.841
97741SOL    HW195120  11.790  13.703   6.749
97741SOL    HW295121  11.832  13.592   6.843
97742SOL     OW95122   2.377   7.172   3.407
97742SOL    HW195123   2.293   7.172   3.361
97742SOL    HW295124   2.357   7.205   3.494
97743SOL     OW95125  13.455  14.693   2.231
97743SOL    HW195126  13.391  14.716   2.298
97743SOL    HW295127  13.540  14.700   2.275
97744SOL     OW95128  11.803   3.962   0.415
97744SOL    HW195129  11.873   3.915   0.369
97744SOL    HW295130  11.825   3.952   0.508
97745SOL     OW95131   2.109  11.881   9.821
97745SOL    HW195132   2.098  11.926   9.737
97745SOL    HW295133   2.033  11.823   9.827
97746SOL     OW95134   3.236  14.342  10.053
97746SOL    HW195135   3.231  14.434  10.081
97746SOL    HW295136   3.300  14.341   9.983
97747SOL     OW95137  12.336  12.750  12.149
97747SOL    HW195138  12.378  12.830  12.118
97747SOL    HW295139  12.351  12.687  12.079
97748SOL     OW95140   0.665   7.378   9.234
97748SOL    HW195141   0.758   7.357   9.243
97748SOL    HW295142   0.645   7.359   9.143
97749SOL     OW95143   3.981   1.287   0.795
97749SOL    HW195144   4.041   1.357   0.769
97749SOL    HW295145   3.918   1.329   0.854
97750SOL     OW95146   8.380   8.969   8.448
97750SOL    HW195147   8.346   8.938   8.364
97750SOL    HW295148   8.307   8.957   8.509
97751SOL     OW95149  12.016  12.884   4.298
97751SOL    HW195150  12.083  12.898   4.231
97751SOL    HW295151  12.026  12.957   4.358
97752SOL     OW95152  11.760   5.070   2.092
97752SOL    HW195153  11.713   4.991   2.065
97752SOL    HW295154  11.693   5.139   2.090
97753SOL     OW95155   3.465   0.006   9.407
97753SOL    HW195156   3.500   0.092   9.381
97753SOL    HW295157   3.435   0.019   9.497
97754SOL     OW95158  12.152  14.270  10.024
97754SOL    HW195159  12.069  14.258   9.977
97754SOL    HW295160  12.151  14.362  10.050
97755SOL     OW95161  11.191   7.685   6.306
97755SOL    HW195162  11.182   7.719   6.395
97755SOL    HW295163  11.285   7.686   6.289
97756SOL     OW95164   2.899  12.123   1.158
97756SOL    HW195165   2.888  12.163   1.244
97756SOL    HW295166   2.896  12.029   1.175
97757SOL     OW95167   7.617   6.747  11.118
97757SOL    HW195168   7.611   6.842  11.114
97757SOL    HW295169   7.699   6.729  11.163
97758SOL     OW95170   7.397  11.480   0.812
97758SOL    HW195171   7.341  11.438   0.877
97758SOL    HW295172   7.455  11.536   0.864
97759SOL     OW95173   9.343  13.699   5.678
97759SOL    HW195174   9.293  13.708   5.759
97759SOL    HW295175   9.292  13.749   5.613
97760SOL     OW95176   8.698   5.053   7.226
97760SOL    HW195177   8.638   5.122   7.197
97760SOL    HW295178   8.687   4.983   7.163
97761SOL     OW95179  13.679   1.504  14.837
97761SOL    HW195180  13.720   1.418  14.831
97761SOL    HW295181  13.743   1.559  14.881
97762SOL     OW95182  11.337   6.389  11.978
97762SOL    HW195183  11.430   6.396  11.957
97762SOL    HW295184  11.304   6.479  11.971
97763SOL     OW95185  10.884   0.524   7.892
97763SOL    HW195186  10.808   0.578   7.912
97763SOL    HW295187  10.927   0.510   7.976
97764SOL     OW95188   2.817   7.568  14.182
97764SOL    HW195189   2.826   7.503  14.252
97764SOL    HW295190   2.799   7.517  14.103
97765SOL     OW95191   0.129  14.319  14.754
97765SOL    HW195192   0.153  14.227  14.742
97765SOL    HW295193   0.213  14.363  14.771
97766SOL     OW95194  11.662  10.897   0.407
97766SOL    HW195195  11.618  10.854   0.480
97766SOL    HW295196  11.705  10.825   0.359
97767SOL     OW95197  10.804   3.250   4.527
97767SOL    HW195198  10.766   3.249   4.615
97767SOL    HW295199  10.729   3.248   4.468
97768SOL     OW95200   4.184  12.607  14.820
97768SOL    HW195201   4.259  12.615  14.879
97768SOL    HW295202   4.204  12.668  14.748
97769SOL     OW95203   2.379   3.077   5.861
97769SOL    HW195204   2.449   3.058   5.924
97769SOL    HW295205   2.420   3.066   5.775
97770SOL     OW95206   9.720  11.889   8.315
97770SOL    HW195207   9.701  11.977   8.348
97770SOL    HW295208   9.801  11.900   8.264
97771SOL     OW95209   2.444  10.665   1.832
97771SOL    HW195210   2.444  10.655   1.737
97771SOL    HW295211   2.355  10.689   1.855
97772SOL     OW95212   4.185  11.739  12.957
97772SOL    HW195213   4.250  11.683  13.000
97772SOL    HW295214   4.189  11.821  13.005
97773SOL     OW95215  14.112   0.929   6.324
97773SOL    HW195216  14.180   0.975   6.374
97773SOL    HW295217  14.160   0.883   6.255
97774SOL     OW95218   2.902   1.863  11.795
97774SOL    HW195219   2.959   1.863  11.718
97774SOL    HW295220   2.916   1.950  11.834
97775SOL     OW95221  13.201  13.708  11.827
97775SOL    HW195222  13.144  13.780  11.800
97775SOL    HW295223  13.193  13.643  11.757
97776SOL     OW95224   2.196   4.826   1.884
97776SOL    HW195225   2.264   4.780   1.933
97776SOL    HW295226   2.239   4.904   1.851
97777SOL     OW95227   1.970   2.483   1.371
97777SOL    HW195228   2.063   2.479   1.392
97777SOL    HW295229   1.968   2.523   1.284
97778SOL     OW95230  13.745  10.262  14.046
97778SOL    HW195231  13.691  10.308  14.110
97778SOL    HW295232  13.816  10.223  14.098
97779SOL     OW95233   5.411  13.381  12.635
97779SOL    HW195234   5.384  13.435  12.709
97779SOL    HW295235   5.330  13.364  12.587
97780SOL     OW95236  13.694   8.022   4.973
97780SOL    HW195237  13.705   8.100   4.917
97780SOL    HW295238  13.739   8.045   5.054
97781SOL     OW95239   6.988   8.816  10.892
97781SOL    HW195240   6.992   8.799  10.987
97781SOL    HW295241   6.895   8.833  10.875
97782SOL     OW95242  14.316   5.197   8.756
97782SOL    HW195243  14.318   5.256   8.831
97782SOL    HW295244  14.327   5.255   8.680
97783SOL     OW95245  13.942  13.713   3.360
97783SOL    HW195246  13.994  13.685   3.435
97783SOL    HW295247  13.854  13.726   3.396
97784SOL     OW95248   3.190   8.935   4.797
97784SOL    HW195249   3.160   8.939   4.707
97784SOL    HW295250   3.150   8.855   4.832
97785SOL     OW95251  13.246   6.524   7.308
97785SOL    HW195252  13.315   6.527   7.241
97785SOL    HW295253  13.292   6.506   7.390
97786SOL     OW95254   6.283   2.974   9.499
97786SOL    HW195255   6.302   2.996   9.590
97786SOL    HW295256   6.264   2.880   9.501
97787SOL     OW95257   9.953  13.673  12.930
97787SOL    HW195258   9.980  13.603  12.989
97787SOL    HW295259   9.865  13.647  12.901
97788SOL     OW95260   8.194   7.142   4.670
97788SOL    HW195261   8.260   7.167   4.734
97788SOL    HW295262   8.191   7.215   4.608
97789SOL     OW95263  11.439   0.321   4.628
97789SOL    HW195264  11.414   0.413   4.626
97789SOL    HW295265  11.408   0.285   4.545
97790SOL     OW95266   5.342  12.114  11.696
97790SOL    HW195267   5.340  12.050  11.767
97790SOL    HW295268   5.426  12.159  11.706
97791SOL     OW95269   1.305   0.424   9.974
97791SOL    HW195270   1.370   0.385   9.917
97791SOL    HW295271   1.297   0.515   9.944
97792SOL     OW95272   4.493   5.797   4.313
97792SOL    HW195273   4.537   5.806   4.228
97792SOL    HW295274   4.565   5.795   4.377
97793SOL     OW95275   8.745  12.789   5.401
97793SOL    HW195276   8.738  12.839   5.320
97793SOL    HW295277   8.759  12.698   5.373
97794SOL     OW95278   6.630   8.761  12.235
97794SOL    HW195279   6.614   8.686  12.177
97794SOL    HW295280   6.635   8.722  12.323
97795SOL     OW95281   5.970   9.460   9.842
97795SOL    HW195282   6.001   9.527   9.780
97795SOL    HW295283   6.033   9.463   9.914
97796SOL     OW95284  12.735  14.511   7.276
97796SOL    HW195285  12.715  14.425   7.241
97796SOL    HW295286  12.713  14.572   7.206
97797SOL     OW95287  12.941  13.760  12.049
97797SOL    HW195288  13.021  13.771  11.997
97797SOL    HW295289  12.871  13.794  11.993
97798SOL     OW95290   5.027   7.960   8.148
97798SOL    HW195291   5.021   8.018   8.072
97798SOL    HW295292   5.043   8.019   8.222
97799SOL     OW95293   1.080   9.344   2.526
97799SOL    HW195294   1.038   9.269   2.568
97799SOL    HW295295   1.157   9.363   2.580
97800SOL     OW95296   6.623   1.977  13.483
97800SOL    HW195297   6.584   2.016  13.562
97800SOL    HW295298   6.660   1.894  13.513
97801SOL     OW95299   8.386   8.986  14.627
97801SOL    HW195300   8.467   9.022  14.589
97801SOL    HW295301   8.404   8.893  14.636
97802SOL     OW95302  11.329   3.770   6.227
97802SOL    HW195303  11.325   3.866   6.236
97802SOL    HW295304  11.421   3.749   6.244
97803SOL     OW95305  10.301   3.325   0.406
97803SOL    HW195306  10.208   3.306   0.417
97803SOL    HW295307  10.337   3.325   0.494
97804SOL     OW95308   1.803   8.463  13.696
97804SOL    HW195309   1.711   8.472  13.723
97804SOL    HW295310   1.823   8.370  13.712
97805SOL     OW95311   2.075   8.822   5.592
97805SOL    HW195312   2.163   8.792   5.570
97805SOL    HW295313   2.032   8.744   5.628
97806SOL     OW95314   8.552  11.325  13.985
97806SOL    HW195315   8.617  11.389  13.955
97806SOL    HW295316   8.482  11.330  13.920
97807SOL     OW95317   1.710   2.993   3.375
97807SOL    HW195318   1.650   2.934   3.329
97807SOL    HW295319   1.797   2.964   3.348
97808SOL     OW95320   5.021   4.289   3.532
97808SOL    HW195321   4.971   4.233   3.473
97808SOL    HW295322   4.966   4.365   3.546
97809SOL     OW95323   5.675   4.057  10.965
97809SOL    HW195324   5.732   3.980  10.961
97809SOL    HW295325   5.599   4.028  11.015
97810SOL     OW95326   1.127  11.106   3.205
97810SOL    HW195327   1.077  11.163   3.263
97810SOL    HW295328   1.146  11.160   3.128
97811SOL     OW95329   0.357  12.688   3.097
97811SOL    HW195330   0.332  12.609   3.048
97811SOL    HW295331   0.298  12.689   3.172
97812SOL     OW95332  10.535   3.443   8.801
97812SOL    HW195333  10.598   3.446   8.729
97812SOL    HW295334  10.457   3.486   8.766
97813SOL     OW95335  14.182   1.614  12.592
97813SOL    HW195336  14.117   1.555  12.554
97813SOL    HW295337  14.242   1.632  12.520
97814SOL     OW95338  11.888   8.990  14.665
97814SOL    HW195339  11.812   8.994  14.724
97814SOL    HW295340  11.851   8.969  14.580
97815SOL     OW95341   1.372   2.552   1.063
97815SOL    HW195342   1.343   2.460   1.063
97815SOL    HW295343   1.316   2.594   0.998
97816SOL     OW95344   5.864   9.192   5.258
97816SOL    HW195345   5.830   9.138   5.330
97816SOL    HW295346   5.882   9.277   5.298
97817SOL     OW95347   8.400   5.260  10.366
97817SOL    HW195348   8.448   5.270  10.448
97817SOL    HW295349   8.451   5.196  10.316
97818SOL     OW95350   2.771   3.606  13.174
97818SOL    HW195351   2.830   3.619  13.248
97818SOL    HW295352   2.707   3.677  13.183
97819SOL     OW95353   7.429  10.024  14.056
97819SOL    HW195354   7.408  10.109  14.093
97819SOL    HW295355   7.478   9.979  14.125
97820SOL     OW95356  11.511   2.632   0.750
97820SOL    HW195357  11.594   2.649   0.705
97820SOL    HW295358  11.525   2.550   0.796
97821SOL     OW95359  13.065   4.187  12.032
97821SOL    HW195360  13.054   4.175  12.127
97821SOL    HW295361  13.159   4.186  12.018
97822SOL     OW95362  14.567   4.732   7.247
97822SOL    HW195363  14.648   4.698   7.208
97822SOL    HW295364  14.504   4.660   7.235
97823SOL     OW95365   9.119   1.751  14.643
97823SOL    HW195366   9.057   1.824  14.635
97823SOL    HW295367   9.203   1.793  14.664
97824SOL     OW95368  12.795   8.831  13.497
97824SOL    HW195369  12.824   8.769  13.564
97824SOL    HW295370  12.709   8.860  13.526
97825SOL     OW95371   9.183   6.129   8.592
97825SOL    HW195372   9.147   6.212   8.560
97825SOL    HW295373   9.127   6.062   8.552
97826SOL     OW95374   7.768  14.885   5.470
97826SOL    HW195375   7.693  14.868   5.414
97826SOL    HW295376   7.762   0.090   5.492
97827SOL     OW95377   6.815   8.030   1.711
97827SOL    HW195378   6.783   8.105   1.763
97827SOL    HW295379   6.789   7.953   1.762
97828SOL     OW95380  10.475  14.374   8.240
97828SOL    HW195381  10.470  14.297   8.296
97828SOL    HW295382  10.386  14.410   8.241
97829SOL     OW95383   9.622   0.575  10.731
97829SOL    HW195384   9.615   0.499  10.789
97829SOL    HW295385   9.657   0.645  10.786
97830SOL     OW95386   6.736   7.198   5.613
97830SOL    HW195387   6.740   7.127   5.678
97830SOL    HW295388   6.717   7.277   5.665
97831SOL     OW95389   8.735   9.976  13.712
97831SOL    HW195390   8.708  10.028  13.637
97831SOL    HW295391   8.656   9.926  13.736
97832SOL     OW95392  13.536   7.466   5.230
97832SOL    HW195393  13.604   7.431   5.172
97832SOL    HW295394  13.584   7.511   5.299
97833SOL     OW95395   2.200  12.022  13.487
97833SOL    HW195396   2.237  11.936  13.466
97833SOL    HW295397   2.122  12.028  13.431
97834SOL     OW95398   6.889   9.324  14.207
97834SOL    HW195399   6.901   9.362  14.120
97834SOL    HW295400   6.828   9.252  14.192
97835SOL     OW95401  10.158   5.796   0.786
97835SOL    HW195402  10.076   5.753   0.759
97835SOL    HW295403  10.210   5.799   0.705
97836SOL     OW95404   1.418  10.657   9.520
97836SOL    HW195405   1.445  10.607   9.443
97836SOL    HW295406   1.346  10.606   9.557
97837SOL     OW95407   4.271   5.153   6.316
97837SOL    HW195408   4.339   5.095   6.350
97837SOL    HW295409   4.318   5.233   6.291
97838SOL     OW95410   6.635   6.314  14.598
97838SOL    HW195411   6.667   6.404  14.591
97838SOL    HW295412   6.539   6.322  14.592
97839SOL     OW95413  14.299   8.829   8.288
97839SOL    HW195414  14.210   8.795   8.285
97839SOL    HW295415  14.342   8.776   8.356
97840SOL     OW95416   9.636   9.741  14.715
97840SOL    HW195417   9.545   9.749  14.689
97840SOL    HW295418   9.643   9.652  14.751
97841SOL     OW95419   6.902  10.540   6.932
97841SOL    HW195420   6.826  10.526   6.876
97841SOL    HW295421   6.931  10.453   6.957
97842SOL     OW95422   3.919  11.298  10.580
97842SOL    HW195423   3.983  11.287  10.651
97842SOL    HW295424   3.923  11.391  10.559
97843SOL     OW95425  12.473  10.077   6.113
97843SOL    HW195426  12.469  10.129   6.194
97843SOL    HW295427  12.384  10.081   6.078
97844SOL     OW95428   0.805   5.534  14.757
97844SOL    HW195429   0.724   5.580  14.737
97844SOL    HW295430   0.858   5.543  14.677
97845SOL     OW95431  10.122   4.095  10.032
97845SOL    HW195432  10.123   4.191  10.029
97845SOL    HW295433  10.130   4.068   9.941
97846SOL     OW95434   4.047  13.936  13.639
97846SOL    HW195435   4.008  13.890  13.564
97846SOL    HW295436   4.132  13.895  13.651
97847SOL     OW95437   3.623   5.250   4.253
97847SOL    HW195438   3.621   5.166   4.298
97847SOL    HW295439   3.645   5.314   4.322
97848SOL     OW95440  11.931  14.506   3.412
97848SOL    HW195441  11.905  14.582   3.360
97848SOL    HW295442  11.969  14.446   3.348
97849SOL     OW95443  12.702  11.458   8.760
97849SOL    HW195444  12.782  11.420   8.724
97849SOL    HW295445  12.700  11.428   8.851
97850SOL     OW95446   1.771   8.550   2.415
97850SOL    HW195447   1.751   8.593   2.499
97850SOL    HW295448   1.754   8.457   2.431
97851SOL     OW95449  11.805  14.125   0.694
97851SOL    HW195450  11.724  14.176   0.700
97851SOL    HW295451  11.871  14.189   0.668
97852SOL     OW95452   6.011   2.746  11.675
97852SOL    HW195453   5.963   2.778  11.599
97852SOL    HW295454   6.097   2.786  11.668
97853SOL     OW95455   2.986  14.661   5.522
97853SOL    HW195456   2.976  14.741   5.471
97853SOL    HW295457   2.900  14.646   5.561
97854SOL     OW95458   9.236   8.203   5.636
97854SOL    HW195459   9.313   8.259   5.626
97854SOL    HW295460   9.171   8.258   5.679
97855SOL     OW95461   6.743  10.681   3.843
97855SOL    HW195462   6.755  10.682   3.937
97855SOL    HW295463   6.686  10.605   3.826
97856SOL     OW95464   4.100   8.891   4.335
97856SOL    HW195465   4.163   8.879   4.406
97856SOL    HW295466   4.080   8.803   4.305
97857SOL     OW95467  10.126   0.862  12.235
97857SOL    HW195468  10.074   0.941  12.218
97857SOL    HW295469  10.215   0.887  12.210
97858SOL     OW95470   3.443   2.990  13.961
97858SOL    HW195471   3.362   2.970  14.009
97858SOL    HW295472   3.438   2.935  13.883
97859SOL     OW95473   2.459  10.242   5.527
97859SOL    HW195474   2.542  10.237   5.479
97859SOL    HW295475   2.396  10.274   5.463
97860SOL     OW95476  12.730  14.568   9.330
97860SOL    HW195477  12.753  14.605   9.245
97860SOL    HW295478  12.811  14.527   9.361
97861SOL     OW95479  13.273  13.808   2.642
97861SOL    HW195480  13.337  13.868   2.605
97861SOL    HW295481  13.242  13.757   2.568
97862SOL     OW95482   6.588   0.200   2.522
97862SOL    HW195483   6.562   0.119   2.565
97862SOL    HW295484   6.683   0.194   2.513
97863SOL     OW95485   7.329   2.610   6.128
97863SOL    HW195486   7.326   2.609   6.224
97863SOL    HW295487   7.305   2.700   6.104
97864SOL     OW95488  12.668   3.904  14.077
97864SOL    HW195489  12.707   3.982  14.116
97864SOL    HW295490  12.691   3.833  14.138
97865SOL     OW95491   6.657  13.845   4.163
97865SOL    HW195492   6.698  13.759   4.150
97865SOL    HW295493   6.564  13.828   4.152
97866SOL     OW95494  11.210  12.864   2.583
97866SOL    HW195495  11.224  12.951   2.546
97866SOL    HW295496  11.213  12.878   2.678
97867SOL     OW95497   9.021  13.718   8.606
97867SOL    HW195498   9.023  13.654   8.535
97867SOL    HW295499   8.980  13.795   8.566
97868SOL     OW95500   1.285   9.800  14.388
97868SOL    HW195501   1.215   9.736  14.399
97868SOL    HW295502   1.361   9.761  14.431
97869SOL     OW95503  11.425  14.649   4.731
97869SOL    HW195504  11.393  14.717   4.672
97869SOL    HW295505  11.518  14.668   4.744
97870SOL     OW95506  12.433   1.433  13.685
97870SOL    HW195507  12.374   1.490  13.636
97870SOL    HW295508  12.410   1.447  13.776
97871SOL     OW95509  10.340  10.297  14.571
97871SOL    HW195510  10.337  10.378  14.521
97871SOL    HW295511  10.257  10.253  14.551
97872SOL     OW95512  12.420   4.407  13.230
97872SOL    HW195513  12.455   4.318  13.226
97872SOL    HW295514  12.460   4.444  13.308
97873SOL     OW95515   4.022   4.757  13.875
97873SOL    HW195516   4.036   4.832  13.934
97873SOL    HW295517   4.110   4.721  13.861
97874SOL     OW95518  14.088   9.821   5.438
97874SOL    HW195519  14.033   9.874   5.380
97874SOL    HW295520  14.163   9.877   5.457
97875SOL     OW95521   3.252   3.722  12.148
97875SOL    HW195522   3.284   3.796  12.198
97875SOL    HW295523   3.158   3.739  12.137
97876SOL     OW95524   8.388  13.482  11.677
97876SOL    HW195525   8.411  13.403  11.627
97876SOL    HW295526   8.471  13.516  11.707
97877SOL     OW95527  12.785   8.913   3.859
97877SOL    HW195528  12.776   8.903   3.954
97877SOL    HW295529  12.713   8.972   3.835
97878SOL     OW95530   7.163   6.193   8.001
97878SOL    HW195531   7.075   6.170   7.972
97878SOL    HW295532   7.149   6.245   8.081
97879SOL     OW95533   3.104  11.744   8.572
97879SOL    HW195534   3.107  11.728   8.666
97879SOL    HW295535   3.116  11.658   8.532
97880SOL     OW95536   1.310  13.904   5.741
97880SOL    HW195537   1.347  13.971   5.684
97880SOL    HW295538   1.259  13.952   5.806
97881SOL     OW95539   3.624   6.351   8.381
97881SOL    HW195540   3.700   6.379   8.432
97881SOL    HW295541   3.579   6.288   8.438
97882SOL     OW95542   5.221   4.228  11.604
97882SOL    HW195543   5.161   4.200  11.674
97882SOL    HW295544   5.301   4.253  11.650
97883SOL     OW95545  13.317  14.299  13.194
97883SOL    HW195546  13.290  14.224  13.248
97883SOL    HW295547  13.385  14.342  13.245
97884SOL     OW95548   1.697   9.992  14.022
97884SOL    HW195549   1.784   9.990  13.981
97884SOL    HW295550   1.707  10.051  14.097
97885SOL     OW95551  13.851  10.631   3.662
97885SOL    HW195552  13.761  10.644   3.633
97885SOL    HW295553  13.878  10.548   3.621
97886SOL     OW95554   2.678  13.880   4.074
97886SOL    HW195555   2.702  13.972   4.069
97886SOL    HW295556   2.684  13.858   4.167
97887SOL     OW95557   8.864   9.346   9.245
97887SOL    HW195558   8.769   9.337   9.236
97887SOL    HW295559   8.886   9.426   9.197
97888SOL     OW95560  10.250  11.465   8.506
97888SOL    HW195561  10.244  11.449   8.600
97888SOL    HW295562  10.235  11.380   8.465
97889SOL     OW95563  10.845   1.236   7.268
97889SOL    HW195564  10.832   1.175   7.341
97889SOL    HW295565  10.787   1.205   7.199
97890SOL     OW95566  13.571   8.917   9.654
97890SOL    HW195567  13.604   8.954   9.572
97890SOL    HW295568  13.603   8.827   9.655
97891SOL     OW95569   5.501  14.695  11.111
97891SOL    HW195570   5.455  14.765  11.158
97891SOL    HW295571   5.593  14.716  11.121
97892SOL     OW95572   8.397  10.565  11.731
97892SOL    HW195573   8.388  10.659  11.713
97892SOL    HW295574   8.307  10.533  11.740
97893SOL     OW95575  11.510   5.198   3.295
97893SOL    HW195576  11.505   5.214   3.389
97893SOL    HW295577  11.500   5.103   3.286
97894SOL     OW95578   5.451   4.551  10.693
97894SOL    HW195579   5.510   4.482  10.723
97894SOL    HW295580   5.412   4.515  10.612
97895SOL     OW95581   7.443  10.054  14.509
97895SOL    HW195582   7.518  10.044  14.568
97895SOL    HW295583   7.435  10.148  14.496
97896SOL     OW95584  10.231  11.759  10.447
97896SOL    HW195585  10.206  11.739  10.538
97896SOL    HW295586  10.213  11.853  10.438
97897SOL     OW95587  14.559   1.316  10.502
97897SOL    HW195588  14.640   1.321  10.554
97897SOL    HW295589  14.511   1.395  10.525
97898SOL     OW95590  13.905   2.254  12.316
97898SOL    HW195591  13.940   2.221  12.234
97898SOL    HW295592  13.830   2.199  12.335
97899SOL     OW95593   2.813   0.990   3.064
97899SOL    HW195594   2.866   0.945   2.997
97899SOL    HW295595   2.726   0.999   3.024
97900SOL     OW95596  13.455   4.086   7.119
97900SOL    HW195597  13.422   4.076   7.209
97900SOL    HW295598  13.379   4.066   7.064
97901SOL     OW95599  13.835   5.210   3.999
97901SOL    HW195600  13.844   5.293   4.047
97901SOL    HW295601  13.871   5.229   3.912
97902SOL     OW95602  14.494  12.642   9.708
97902SOL    HW195603  14.447  12.587   9.770
97902SOL    HW295604  14.573  12.592   9.687
97903SOL     OW95605   2.130  10.414  12.145
97903SOL    HW195606   2.122  10.360  12.066
97903SOL    HW295607   2.116  10.353  12.217
97904SOL     OW95608   2.310  14.006  14.156
97904SOL    HW195609   2.311  13.998  14.251
97904SOL    HW295610   2.264  14.089  14.140
97905SOL     OW95611   0.596   8.437   6.496
97905SOL    HW195612   0.611   8.379   6.570
97905SOL    HW295613   0.683   8.458   6.463
97906SOL     OW95614  14.557  10.479   0.767
97906SOL    HW195615  14.577  10.543   0.837
97906SOL    HW295616  14.643  10.450   0.737
97907SOL     OW95617   1.613   4.787  12.230
97907SOL    HW195618   1.556   4.804  12.155
97907SOL    HW295619   1.576   4.708  12.271
97908SOL     OW95620  12.379   9.068   3.261
97908SOL    HW195621  12.422   9.132   3.317
97908SOL    HW295622  12.350   8.999   3.321
97909SOL     OW95623   6.027   7.201   6.347
97909SOL    HW195624   5.961   7.229   6.284
97909SOL    HW295625   6.059   7.283   6.386
97910SOL     OW95626  10.647   0.099   8.080
97910SOL    HW195627  10.604   0.076   8.163
97910SOL    HW295628  10.604   0.180   8.052
97911SOL     OW95629  11.254   2.494   2.171
97911SOL    HW195630  11.346   2.514   2.154
97911SOL    HW295631  11.225   2.563   2.231
97912SOL     OW95632   6.626   2.129  12.078
97912SOL    HW195633   6.611   2.199  12.141
97912SOL    HW295634   6.556   2.139  12.014
97913SOL     OW95635   8.530   9.628  10.773
97913SOL    HW195636   8.579   9.591  10.700
97913SOL    HW295637   8.460   9.564  10.789
97914SOL     OW95638  12.220  13.590  11.429
97914SOL    HW195639  12.160  13.649  11.475
97914SOL    HW295640  12.192  13.503  11.454
97915SOL     OW95641   9.943   6.666  13.939
97915SOL    HW195642   9.921   6.699  13.852
97915SOL    HW295643   9.885   6.715  13.998
97916SOL     OW95644  10.564   1.083  14.142
97916SOL    HW195645  10.483   1.032  14.135
97916SOL    HW295646  10.605   1.051  14.222
97917SOL     OW95647   2.221   9.086   9.839
97917SOL    HW195648   2.189   9.021   9.902
97917SOL    HW295649   2.243   9.162   9.893
97918SOL     OW95650  10.016   7.344  10.853
97918SOL    HW195651  10.036   7.436  10.835
97918SOL    HW295652  10.001   7.340  10.947
97919SOL     OW95653   0.054   8.780  10.822
97919SOL    HW195654   0.012   8.784  10.736
97919SOL    HW295655   0.098   8.865  10.831
97920SOL     OW95656   0.057   8.829   0.805
97920SOL    HW195657   0.094   8.741   0.811
97920SOL    HW295658   0.132   8.888   0.807
97921SOL     OW95659   0.840   0.467  14.135
97921SOL    HW195660   0.853   0.438  14.044
97921SOL    HW295661   0.824   0.386  14.183
97922SOL     OW95662  13.781  13.493   0.925
97922SOL    HW195663  13.727  13.541   0.863
97922SOL    HW295664  13.788  13.552   1.001
97923SOL     OW95665  14.476   9.188   4.868
97923SOL    HW195666  14.400   9.246   4.872
97923SOL    HW295667  14.506   9.182   4.958
97924SOL     OW95668   1.698  10.308   8.531
97924SOL    HW195669   1.756  10.244   8.572
97924SOL    HW295670   1.694  10.380   8.594
97925SOL     OW95671  11.458   9.300  11.188
97925SOL    HW195672  11.547   9.320  11.159
97925SOL    HW295673  11.412   9.384  11.184
97926SOL     OW95674   2.152   4.264   8.615
97926SOL    HW195675   2.225   4.240   8.671
97926SOL    HW295676   2.094   4.187   8.617
97927SOL     OW95677   3.118   9.150   6.919
97927SOL    HW195678   3.033   9.106   6.927
97927SOL    HW295679   3.141   9.175   7.008
97928SOL     OW95680  10.563  12.415   5.831
97928SOL    HW195681  10.622  12.348   5.797
97928SOL    HW295682  10.571  12.409   5.926
97929SOL     OW95683  12.982  13.131   7.164
97929SOL    HW195684  12.893  13.166   7.157
97929SOL    HW295685  12.972  13.054   7.220
97930SOL     OW95686   6.890  10.995   7.499
97930SOL    HW195687   6.875  11.007   7.592
97930SOL    HW295688   6.822  10.933   7.471
97931SOL     OW95689   5.658   5.389  14.529
97931SOL    HW195690   5.683   5.481  14.534
97931SOL    HW295691   5.593   5.385  14.459
97932SOL     OW95692   3.467  14.488   4.407
97932SOL    HW195693   3.411  14.556   4.444
97932SOL    HW295694   3.425  14.464   4.324
97933SOL     OW95695   9.027  13.325   5.804
97933SOL    HW195696   9.015  13.409   5.848
97933SOL    HW295697   9.093  13.342   5.737
97934SOL     OW95698   5.190   2.489   9.264
97934SOL    HW195699   5.246   2.473   9.188
97934SOL    HW295700   5.249   2.486   9.339
97935SOL     OW95701  12.214   2.186   1.278
97935SOL    HW195702  12.292   2.210   1.228
97935SOL    HW295703  12.237   2.203   1.369
97936SOL     OW95704   5.278  12.803   5.145
97936SOL    HW195705   5.360  12.769   5.180
97936SOL    HW295706   5.217  12.799   5.219
97937SOL     OW95707  10.461   1.429   8.589
97937SOL    HW195708  10.434   1.340   8.564
97937SOL    HW295709  10.409   1.449   8.666
97938SOL     OW95710   6.799   6.587   5.626
97938SOL    HW195711   6.816   6.495   5.647
97938SOL    HW295712   6.883   6.631   5.642
97939SOL     OW95713   5.762  12.862   8.510
97939SOL    HW195714   5.772  12.911   8.428
97939SOL    HW295715   5.825  12.902   8.570
97940SOL     OW95716  13.872   7.872   8.887
97940SOL    HW195717  13.862   7.954   8.937
97940SOL    HW295718  13.942   7.891   8.825
97941SOL     OW95719  14.095   7.938   9.244
97941SOL    HW195720  14.006   7.962   9.268
97941SOL    HW295721  14.147   8.016   9.264
97942SOL     OW95722   7.320   5.671   9.733
97942SOL    HW195723   7.262   5.734   9.689
97942SOL    HW295724   7.275   5.651   9.815
97943SOL     OW95725  11.450   0.548   0.598
97943SOL    HW195726  11.480   0.625   0.646
97943SOL    HW295727  11.505   0.545   0.520
97944SOL     OW95728   6.101  12.819  13.623
97944SOL    HW195729   6.108  12.770  13.541
97944SOL    HW295730   6.178  12.877  13.622
97945SOL     OW95731   5.852   8.338   6.205
97945SOL    HW195732   5.861   8.384   6.289
97945SOL    HW295733   5.778   8.278   6.218
97946SOL     OW95734  12.414   5.027   0.139
97946SOL    HW195735  12.419   4.946   0.189
97946SOL    HW295736  12.442   5.004   0.051
97947SOL     OW95737   6.544   3.817  14.174
97947SOL    HW195738   6.603   3.893  14.168
97947SOL    HW295739   6.594   3.752  14.224
97948SOL     OW95740   8.724  10.831   9.854
97948SOL    HW195741   8.723  10.773   9.931
97948SOL    HW295742   8.797  10.800   9.801
97949SOL     OW95743   9.234   9.232  14.510
97949SOL    HW195744   9.153   9.245  14.560
97949SOL    HW295745   9.204   9.209  14.422
97950SOL     OW95746   3.362   3.509   5.138
97950SOL    HW195747   3.403   3.501   5.052
97950SOL    HW295748   3.427   3.553   5.192
97951SOL     OW95749   3.464   8.441   9.638
97951SOL    HW195750   3.386   8.429   9.693
97951SOL    HW295751   3.453   8.377   9.567
97952SOL     OW95752   0.041   0.228   6.930
97952SOL    HW195753   0.133   0.250   6.912
97952SOL    HW295754   0.012   0.181   6.852
97953SOL     OW95755   8.194   9.345  14.644
97953SOL    HW195756   8.125   9.399  14.606
97953SOL    HW295757   8.171   9.255  14.620
97954SOL     OW95758  14.287   9.388  12.081
97954SOL    HW195759  14.345   9.396  12.157
97954SOL    HW295760  14.240   9.471  12.079
97955SOL     OW95761  13.136   0.051  12.132
97955SOL    HW195762  13.083   0.126  12.158
97955SOL    HW295763  13.081  14.862  12.151
97956SOL     OW95764  14.158   2.581   3.175
97956SOL    HW195765  14.080   2.539   3.140
97956SOL    HW295766  14.201   2.513   3.227
97957SOL     OW95767  11.856  10.746   7.862
97957SOL    HW195768  11.761  10.749   7.869
97957SOL    HW295769  11.880  10.656   7.885
97958SOL     OW95770  13.221   1.959  14.701
97958SOL    HW195771  13.311   1.971  14.671
97958SOL    HW295772  13.212   2.019  14.775
97959SOL     OW95773  12.618  12.148  14.716
97959SOL    HW195774  12.633  12.190  14.800
97959SOL    HW295775  12.692  12.088  14.704
97960SOL     OW95776  11.924   7.001  11.452
97960SOL    HW195777  11.947   7.087  11.418
97960SOL    HW295778  11.899   6.951  11.375
97961SOL     OW95779  11.483   4.943   6.023
97961SOL    HW195780  11.539   4.975   6.094
97961SOL    HW295781  11.412   4.896   6.067
97962SOL     OW95782   0.709   6.275   8.036
97962SOL    HW195783   0.678   6.230   7.958
97962SOL    HW295784   0.630   6.295   8.086
97963SOL     OW95785  13.601   9.544   3.202
97963SOL    HW195786  13.605   9.610   3.271
97963SOL    HW295787  13.586   9.462   3.248
97964SOL     OW95788  12.551  11.953  12.884
97964SOL    HW195789  12.643  11.934  12.904
97964SOL    HW295790  12.542  11.935  12.791
97965SOL     OW95791   0.411  10.386   3.091
97965SOL    HW195792   0.501  10.364   3.069
97965SOL    HW295793   0.382  10.441   3.019
97966SOL     OW95794  13.819  12.697   8.375
97966SOL    HW195795  13.886  12.649   8.327
97966SOL    HW295796  13.794  12.769   8.316
97967SOL     OW95797   3.205  12.820  14.190
97967SOL    HW195798   3.239  12.908  14.209
97967SOL    HW295799   3.130  12.835  14.134
97968SOL     OW95800  11.560   6.396   4.151
97968SOL    HW195801  11.641   6.357   4.117
97968SOL    HW295802  11.584   6.485   4.174
97969SOL     OW95803  12.596   6.991   1.766
97969SOL    HW195804  12.627   6.946   1.844
97969SOL    HW295805  12.638   6.946   1.693
97970SOL     OW95806  13.015   8.327   6.917
97970SOL    HW195807  13.102   8.287   6.926
97970SOL    HW295808  13.021   8.379   6.836
97971SOL     OW95809  11.558   2.159   9.896
97971SOL    HW195810  11.542   2.206   9.978
97971SOL    HW295811  11.651   2.174   9.878
97972SOL     OW95812   5.896   7.453   2.545
97972SOL    HW195813   5.989   7.477   2.549
97972SOL    HW295814   5.874   7.430   2.635
97973SOL     OW95815   8.662   1.749   8.252
97973SOL    HW195816   8.750   1.775   8.227
97973SOL    HW295817   8.633   1.692   8.181
97974SOL     OW95818   1.389  12.537   8.823
97974SOL    HW195819   1.356  12.448   8.834
97974SOL    HW295820   1.426  12.559   8.908
97975SOL     OW95821   7.340  14.882  11.611
97975SOL    HW195822   7.374  14.793  11.622
97975SOL    HW295823   7.305  14.883  11.521
97976SOL     OW95824   3.742   6.821   1.587
97976SOL    HW195825   3.709   6.766   1.658
97976SOL    HW295826   3.666   6.834   1.530
97977SOL     OW95827   4.308  10.189  13.131
97977SOL    HW195828   4.302  10.093  13.127
97977SOL    HW295829   4.232  10.220  13.082
97978SOL     OW95830   5.525  10.520  11.001
97978SOL    HW195831   5.533  10.579  11.076
97978SOL    HW295832   5.487  10.440  11.038
97979SOL     OW95833  11.788  11.051   0.148
97979SOL    HW195834  11.699  11.017   0.153
97979SOL    HW295835  11.819  11.024   0.062
97980SOL     OW95836   7.444   9.749   2.306
97980SOL    HW195837   7.506   9.681   2.334
97980SOL    HW295838   7.358   9.711   2.323
97981SOL     OW95839   8.415  14.736   5.227
97981SOL    HW195840   8.490  14.767   5.278
97981SOL    HW295841   8.426  14.641   5.224
97982SOL     OW95842  10.579   2.565  10.794
97982SOL    HW195843  10.618   2.584  10.709
97982SOL    HW295844  10.485   2.573  10.779
97983SOL     OW95845   6.349   1.471  12.589
97983SOL    HW195846   6.317   1.514  12.668
97983SOL    HW295847   6.420   1.414  12.619
97984SOL     OW95848   7.867   6.264  13.769
97984SOL    HW195849   7.817   6.183  13.761
97984SOL    HW295850   7.853   6.310  13.687
97985SOL     OW95851   5.617   7.582   6.224
97985SOL    HW195852   5.540   7.638   6.232
97985SOL    HW295853   5.603   7.512   6.288
97986SOL     OW95854   0.080   8.722   3.038
97986SOL    HW195855  14.882   8.679   3.033
97986SOL    HW295856   0.093   8.739   3.132
97987SOL     OW95857   5.355   1.708  10.938
97987SOL    HW195858   5.266   1.729  10.965
97987SOL    HW295859   5.364   1.614  10.955
97988SOL     OW95860  11.626   2.012   6.510
97988SOL    HW195861  11.712   2.025   6.471
97988SOL    HW295862  11.572   2.081   6.470
97989SOL     OW95863   0.234  12.704   1.553
97989SOL    HW195864   0.220  12.742   1.466
97989SOL    HW295865   0.160  12.644   1.565
97990SOL     OW95866   0.263   3.506   8.654
97990SOL    HW195867   0.280   3.441   8.722
97990SOL    HW295868   0.311   3.584   8.683
97991SOL     OW95869   2.107  10.383   4.126
97991SOL    HW195870   2.083  10.473   4.104
97991SOL    HW295871   2.203  10.385   4.136
97992SOL     OW95872   8.837   9.198  13.415
97992SOL    HW195873   8.927   9.168  13.428
97992SOL    HW295874   8.789   9.118  13.391
97993SOL     OW95875   6.229  14.406  13.584
97993SOL    HW195876   6.158  14.342  13.583
97993SOL    HW295877   6.214  14.459  13.506
97994SOL     OW95878   9.198   7.936  13.301
97994SOL    HW195879   9.180   8.023  13.337
97994SOL    HW295880   9.201   7.879  13.378
97995SOL     OW95881  11.812  10.670   9.013
97995SOL    HW195882  11.778  10.741   9.067
97995SOL    HW295883  11.853  10.610   9.075
97996SOL     OW95884   5.872   1.640   4.248
97996SOL    HW195885   5.780   1.619   4.231
97996SOL    HW295886   5.868   1.712   4.310
97997SOL     OW95887   1.388  14.323   7.668
97997SOL    HW195888   1.346  14.384   7.729
97997SOL    HW295889   1.315  14.281   7.622
97998SOL     OW95890   9.735   1.169   7.790
97998SOL    HW195891   9.683   1.246   7.815
97998SOL    HW295892   9.698   1.143   7.705
97999SOL     OW95893  14.593  10.281  12.467
97999SOL    HW195894  14.654  10.284  12.394
97999SOL    HW295895  14.592  10.370  12.502
98000SOL     OW95896   3.688   2.162  10.304
98000SOL    HW195897   3.695   2.073  10.337
98000SOL    HW295898   3.601   2.191  10.330
98001SOL     OW95899  11.357   7.046  14.145
98001SOL    HW195900  11.305   7.126  14.152
98001SOL    HW295901  11.358   7.026  14.052
98002SOL     OW95902   8.507  10.242  12.073
98002SOL    HW195903   8.487  10.148  12.071
98002SOL    HW295904   8.591  10.249  12.029
98003SOL     OW95905   1.635  11.794   9.120
98003SOL    HW195906   1.545  11.813   9.093
98003SOL    HW295907   1.680  11.771   9.039
98004SOL     OW95908  13.350   4.626  12.600
98004SOL    HW195909  13.383   4.595  12.684
98004SOL    HW295910  13.336   4.719  12.613
98005SOL     OW95911   5.068   7.359   8.454
98005SOL    HW195912   5.022   7.406   8.524
98005SOL    HW295913   5.161   7.376   8.471
98006SOL     OW95914   8.569  14.037   0.790
98006SOL    HW195915   8.529  14.123   0.802
98006SOL    HW295916   8.502  13.974   0.818
98007SOL     OW95917   3.838  14.424  13.058
98007SOL    HW195918   3.875  14.463  12.979
98007SOL    HW295919   3.868  14.481  13.129
98008SOL     OW95920   4.282   4.783  14.826
98008SOL    HW195921   4.242   4.759   0.022
98008SOL    HW295922   4.357   4.725  14.818
98009SOL     OW95923   3.779  10.814   1.805
98009SOL    HW195924   3.689  10.836   1.779
98009SOL    HW295925   3.769  10.735   1.858
98010SOL     OW95926   2.140   4.951   2.211
98010SOL    HW195927   2.073   4.917   2.150
98010SOL    HW295928   2.108   4.926   2.298
98011SOL     OW95929  13.483  10.065   5.693
98011SOL    HW195930  13.577  10.048   5.690
98011SOL    HW295931  13.465  10.083   5.786
98012SOL     OW95932  11.837  11.716   1.777
98012SOL    HW195933  11.916  11.668   1.751
98012SOL    HW295934  11.819  11.773   1.703
98013SOL     OW95935   9.463   0.587   5.506
98013SOL    HW195936   9.423   0.598   5.592
98013SOL    HW295937   9.543   0.640   5.509
98014SOL     OW95938   1.036   7.106   8.230
98014SOL    HW195939   1.069   7.018   8.245
98014SOL    HW295940   1.091   7.162   8.285
98015SOL     OW95941  11.735   4.811   3.321
98015SOL    HW195942  11.747   4.726   3.362
98015SOL    HW295943  11.767   4.874   3.386
98016SOL     OW95944   7.079   1.145   4.606
98016SOL    HW195945   7.053   1.184   4.689
98016SOL    HW295946   7.097   1.219   4.549
98017SOL     OW95947  14.469   6.159  10.304
98017SOL    HW195948  14.521   6.224  10.259
98017SOL    HW295949  14.378   6.183  10.284
98018SOL     OW95950  10.020   5.276   2.157
98018SOL    HW195951   9.969   5.202   2.191
98018SOL    HW295952  10.074   5.304   2.230
98019SOL     OW95953   3.143   3.771   6.454
98019SOL    HW195954   3.236   3.756   6.437
98019SOL    HW295955   3.098   3.708   6.398
98020SOL     OW95956  13.787   5.142  11.762
98020SOL    HW195957  13.831   5.190  11.831
98020SOL    HW295958  13.839   5.158  11.683
98021SOL     OW95959  13.427   5.701   0.203
98021SOL    HW195960  13.439   5.607   0.214
98021SOL    HW295961  13.465   5.721   0.118
98022SOL     OW95962   1.529   1.703   1.086
98022SOL    HW195963   1.609   1.750   1.064
98022SOL    HW295964   1.535   1.620   1.037
98023SOL     OW95965   9.777   2.511   3.117
98023SOL    HW195966   9.807   2.598   3.092
98023SOL    HW295967   9.709   2.527   3.183
98024SOL     OW95968   0.072  11.110   9.367
98024SOL    HW195969   0.126  11.069   9.300
98024SOL    HW295970   0.048  11.195   9.329
98025SOL     OW95971   7.105   3.339  13.443
98025SOL    HW195972   7.142   3.404  13.383
98025SOL    HW295973   7.160   3.344  13.521
98026SOL     OW95974  10.722   6.633   9.394
98026SOL    HW195975  10.645   6.632   9.451
98026SOL    HW295976  10.796   6.625   9.454
98027SOL     OW95977   7.917   5.263   4.948
98027SOL    HW195978   7.997   5.315   4.941
98027SOL    HW295979   7.892   5.270   5.040
98028SOL     OW95980   2.154   2.369   3.921
98028SOL    HW195981   2.115   2.413   3.997
98028SOL    HW295982   2.208   2.299   3.959
98029SOL     OW95983   1.222   0.222  13.694
98029SOL    HW195984   1.170   0.154  13.737
98029SOL    HW295985   1.178   0.304  13.718
98030SOL     OW95986   3.360   3.123   3.042
98030SOL    HW195987   3.351   3.134   2.947
98030SOL    HW295988   3.283   3.073   3.068
98031SOL     OW95989   3.425   0.976   1.603
98031SOL    HW195990   3.359   1.045   1.596
98031SOL    HW295991   3.425   0.933   1.518
98032SOL     OW95992   9.948  10.121   4.985
98032SOL    HW195993   9.977  10.174   4.910
98032SOL    HW295994   9.914  10.185   5.047
98033SOL     OW95995   4.827  12.732   7.811
98033SOL    HW195996   4.806  12.805   7.753
98033SOL    HW295997   4.883  12.770   7.879
98034SOL     OW95998   7.421  14.786   3.966
98034SOL    HW195999   7.497  14.751   3.920
98034SOL    HW296000   7.354  14.718   3.957
98035SOL     OW96001   2.158  10.199   6.959
98035SOL    HW196002   2.068  10.180   6.982
98035SOL    HW296003   2.200  10.225   7.041
98036SOL     OW96004   2.212   9.294  13.643
98036SOL    HW196005   2.260   9.313  13.724
98036SOL    HW296006   2.193   9.200  13.649
98037SOL     OW96007   3.855   7.959   6.928
98037SOL    HW196008   3.876   7.934   7.018
98037SOL    HW296009   3.897   7.892   6.874
98038SOL     OW96010  13.772  13.027  12.642
98038SOL    HW196011  13.836  12.965  12.677
98038SOL    HW296012  13.824  13.104  12.617
98039SOL     OW96013   0.887   4.656  11.110
98039SOL    HW196014   0.792   4.661  11.124
98039SOL    HW296015   0.921   4.739  11.142
98040SOL     OW96016  14.572   4.420   0.351
98040SOL    HW196017  14.621   4.359   0.406
98040SOL    HW296018  14.614   4.505   0.367
98041SOL     OW96019   1.761   7.441  12.891
98041SOL    HW196020   1.833   7.381  12.871
98041SOL    HW296021   1.773   7.463  12.983
98042SOL     OW96022   3.143   6.747  11.673
98042SOL    HW196023   3.219   6.788  11.715
98042SOL    HW296024   3.172   6.658  11.653
98043SOL     OW96025   7.281  13.373   2.129
98043SOL    HW196026   7.368  13.334   2.118
98043SOL    HW296027   7.238  13.360   2.045
98044SOL     OW96028  13.230   9.474   6.729
98044SOL    HW196029  13.176   9.414   6.679
98044SOL    HW296030  13.179   9.493   6.808
98045SOL     OW96031   7.622   8.733   3.215
98045SOL    HW196032   7.546   8.706   3.265
98045SOL    HW296033   7.625   8.828   3.223
98046SOL     OW96034  12.633   9.411  14.219
98046SOL    HW196035  12.681   9.349  14.164
98046SOL    HW296036  12.559   9.439  14.165
98047SOL     OW96037  11.014   1.643   8.247
98047SOL    HW196038  11.049   1.607   8.329
98047SOL    HW296039  11.036   1.736   8.250
98048SOL     OW96040  14.839  14.527   1.836
98048SOL    HW196041  14.887  14.583   1.775
98048SOL    HW296042  14.791  14.588   1.892
98049SOL     OW96043   5.610   4.310   6.598
98049SOL    HW196044   5.610   4.223   6.638
98049SOL    HW296045   5.697   4.345   6.618
98050SOL     OW96046   7.481   6.260  11.406
98050SOL    HW196047   7.438   6.253  11.320
98050SOL    HW296048   7.472   6.353  11.429
98051SOL     OW96049   0.440   5.276   5.259
98051SOL    HW196050   0.410   5.190   5.228
98051SOL    HW296051   0.360   5.329   5.262
98052SOL     OW96052   8.579   6.243   3.964
98052SOL    HW196053   8.615   6.272   4.047
98052SOL    HW296054   8.596   6.149   3.961
98053SOL     OW96055  12.831   2.432   0.686
98053SOL    HW196056  12.755   2.443   0.743
98053SOL    HW296057  12.897   2.390   0.741
98054SOL     OW96058   7.547   5.285   8.617
98054SOL    HW196059   7.633   5.328   8.619
98054SOL    HW296060   7.524   5.281   8.524
98055SOL     OW96061   2.635   6.735   5.731
98055SOL    HW196062   2.569   6.698   5.672
98055SOL    HW296063   2.667   6.813   5.685
98056SOL     OW96064   3.874   8.848   4.070
98056SOL    HW196065   3.812   8.830   4.141
98056SOL    HW296066   3.955   8.805   4.099
98057SOL     OW96067  11.099   7.821   9.647
98057SOL    HW196068  11.040   7.887   9.611
98057SOL    HW296069  11.185   7.861   9.642
98058SOL     OW96070   8.632  14.271   1.906
98058SOL    HW196071   8.664  14.361   1.911
98058SOL    HW296072   8.547  14.278   1.863
98059SOL     OW96073  10.852   8.744  13.133
98059SOL    HW196074  10.913   8.805  13.091
98059SOL    HW296075  10.793   8.800  13.184
98060SOL     OW96076  14.766   9.603  14.599
98060SOL    HW196077  14.837   9.654  14.638
98060SOL    HW296078  14.690   9.621  14.654
98061SOL     OW96079  11.600   8.857   1.836
98061SOL    HW196080  11.648   8.924   1.787
98061SOL    HW296081  11.648   8.849   1.919
98062SOL     OW96082   4.658   7.985   6.204
98062SOL    HW196083   4.721   8.009   6.135
98062SOL    HW296084   4.670   8.052   6.271
98063SOL     OW96085   9.766   4.025   2.366
98063SOL    HW196086   9.860   4.009   2.368
98063SOL    HW296087   9.755   4.102   2.310
98064SOL     OW96088   8.910  10.289   0.010
98064SOL    HW196089   8.889  10.314   0.100
98064SOL    HW296090   8.981  10.348  14.872
98065SOL     OW96091   3.127  13.990   6.953
98065SOL    HW196092   3.053  13.966   7.009
98065SOL    HW296093   3.099  14.070   6.909
98066SOL     OW96094   4.716   2.055   2.308
98066SOL    HW196095   4.804   2.080   2.281
98066SOL    HW296096   4.726   1.967   2.346
98067SOL     OW96097  11.930  11.306  10.511
98067SOL    HW196098  11.937  11.317  10.416
98067SOL    HW296099  12.016  11.330  10.545
98068SOL     OW96100   7.745   1.879  10.670
98068SOL    HW196101   7.775   1.966  10.643
98068SOL    HW296102   7.826   1.827  10.675
98069SOL     OW96103   5.573   9.895   2.954
98069SOL    HW196104   5.592   9.971   2.899
98069SOL    HW296105   5.480   9.903   2.975
98070SOL     OW96106  12.960   2.130   8.104
98070SOL    HW196107  12.884   2.167   8.149
98070SOL    HW296108  12.957   2.168   8.017
98071SOL     OW96109   0.863  13.098   0.684
98071SOL    HW196110   0.847  13.171   0.744
98071SOL    HW296111   0.954  13.074   0.699
98072SOL     OW96112   3.723   7.237   9.660
98072SOL    HW196113   3.690   7.148   9.675
98072SOL    HW296114   3.712   7.251   9.566
98073SOL     OW96115  11.334   8.891   0.640
98073SOL    HW196116  11.361   8.818   0.695
98073SOL    HW296117  11.412   8.915   0.590
98074SOL     OW96118   1.160  14.076   8.496
98074SOL    HW196119   1.243  14.105   8.459
98074SOL    HW296120   1.184  14.011   8.562
98075SOL     OW96121   0.265   6.717   9.321
98075SOL    HW196122   0.329   6.646   9.322
98075SOL    HW296123   0.276   6.761   9.405
98076SOL     OW96124   9.791   8.609   5.606
98076SOL    HW196125   9.781   8.533   5.662
98076SOL    HW296126   9.875   8.647   5.630
98077SOL     OW96127   7.090  13.048   0.375
98077SOL    HW196128   7.058  13.118   0.433
98077SOL    HW296129   7.045  12.969   0.405
98078SOL     OW96130   1.680   1.356   5.648
98078SOL    HW196131   1.736   1.280   5.664
98078SOL    HW296132   1.699   1.415   5.721
98079SOL     OW96133   2.095  10.614  14.791
98079SOL    HW196134   2.095  10.700  14.834
98079SOL    HW296135   2.003  10.596  14.773
98080SOL     OW96136   3.322  14.756  13.728
98080SOL    HW196137   3.302  14.681  13.784
98080SOL    HW296138   3.269  14.827  13.765
98081SOL     OW96139   6.323   9.544   3.266
98081SOL    HW196140   6.374   9.507   3.194
98081SOL    HW296141   6.370   9.518   3.345
98082SOL     OW96142   9.021   1.174  11.328
98082SOL    HW196143   8.959   1.150  11.259
98082SOL    HW296144   9.074   1.244  11.289
98083SOL     OW96145   6.643   2.890  11.299
98083SOL    HW196146   6.643   2.805  11.255
98083SOL    HW296147   6.555   2.925  11.283
98084SOL     OW96148  10.697   7.105   4.275
98084SOL    HW196149  10.693   7.016   4.310
98084SOL    HW296150  10.667   7.160   4.348
98085SOL     OW96151   5.459   6.449   4.302
98085SOL    HW196152   5.541   6.416   4.268
98085SOL    HW296153   5.393   6.423   4.238
98086SOL     OW96154   0.720   1.118  12.315
98086SOL    HW196155   0.683   1.038  12.352
98086SOL    HW296156   0.815   1.104  12.320
98087SOL     OW96157   7.303   0.525  14.570
98087SOL    HW196158   7.390   0.530  14.532
98087SOL    HW296159   7.312   0.567  14.656
98088SOL     OW96160   0.419   9.612   6.506
98088SOL    HW196161   0.487   9.547   6.487
98088SOL    HW296162   0.451   9.658   6.583
98089SOL     OW96163  14.819  12.252   0.855
98089SOL    HW196164  14.775  12.297   0.783
98089SOL    HW296165  14.786  12.294   0.934
98090SOL     OW96166   8.432   0.235   4.528
98090SOL    HW196167   8.365   0.195   4.585
98090SOL    HW296168   8.424   0.329   4.544
98091SOL     OW96169  14.003   1.880   4.910
98091SOL    HW196170  13.985   1.824   4.985
98091SOL    HW296171  13.947   1.846   4.840
98092SOL     OW96172  14.080   3.483   5.376
98092SOL    HW196173  14.042   3.567   5.400
98092SOL    HW296174  14.064   3.475   5.282
98093SOL     OW96175  12.800   4.998  11.252
98093SOL    HW196176  12.713   5.007  11.215
98093SOL    HW296177  12.789   4.938  11.326
98094SOL     OW96178   1.618   4.728   9.773
98094SOL    HW196179   1.676   4.714   9.698
98094SOL    HW296180   1.672   4.709   9.849
98095SOL     OW96181   8.048  12.918   2.324
98095SOL    HW196182   8.086  13.003   2.347
98095SOL    HW296183   8.123  12.858   2.322
98096SOL     OW96184   3.574   1.894  10.039
98096SOL    HW196185   3.531   1.883  10.123
98096SOL    HW296186   3.660   1.852  10.050
98097SOL     OW96187   3.969  13.660  10.672
98097SOL    HW196188   3.972  13.756  10.674
98097SOL    HW296189   3.907  13.637  10.741
98098SOL     OW96190   8.128   1.181  12.880
98098SOL    HW196191   8.085   1.102  12.847
98098SOL    HW296192   8.159   1.226  12.801
98099SOL     OW96193   0.879   8.403  12.023
98099SOL    HW196194   0.941   8.331  12.034
98099SOL    HW296195   0.795   8.366  12.049
98100SOL     OW96196   9.642  12.233  14.537
98100SOL    HW196197   9.554  12.251  14.570
98100SOL    HW296198   9.631  12.159  14.476
98101SOL     OW96199   9.260   3.027   4.292
98101SOL    HW196200   9.261   3.097   4.357
98101SOL    HW296201   9.324   3.056   4.226
98102SOL     OW96202  14.659   7.971   2.230
98102SOL    HW196203  14.723   7.923   2.282
98102SOL    HW296204  14.620   7.905   2.173
98103SOL     OW96205   4.989   3.384   3.731
98103SOL    HW196206   4.931   3.367   3.657
98103SOL    HW296207   5.060   3.436   3.695
98104SOL     OW96208   3.147   7.096   6.684
98104SOL    HW196209   3.188   7.128   6.604
98104SOL    HW296210   3.126   7.174   6.734
98105SOL     OW96211   9.145   3.584   2.534
98105SOL    HW196212   9.221   3.585   2.476
98105SOL    HW296213   9.130   3.492   2.552
98106SOL     OW96214   6.319   3.696   4.202
98106SOL    HW196215   6.407   3.697   4.239
98106SOL    HW296216   6.261   3.698   4.278
98107SOL     OW96217  14.404   4.477   6.872
98107SOL    HW196218  14.325   4.424   6.874
98107SOL    HW296219  14.473   4.420   6.904
98108SOL     OW96220   8.888  14.194   7.373
98108SOL    HW196221   8.833  14.265   7.406
98108SOL    HW296222   8.905  14.217   7.282
98109SOL     OW96223   9.162   8.207   1.378
98109SOL    HW196224   9.163   8.221   1.284
98109SOL    HW296225   9.213   8.128   1.391
98110SOL     OW96226  11.831   6.026  11.443
98110SOL    HW196227  11.779   6.049  11.366
98110SOL    HW296228  11.920   6.049  11.419
98111SOL     OW96229   8.734   9.590  13.346
98111SOL    HW196230   8.648   9.629  13.330
98111SOL    HW296231   8.757   9.619  13.434
98112SOL     OW96232   7.195   5.652   7.557
98112SOL    HW196233   7.169   5.642   7.648
98112SOL    HW296234   7.260   5.583   7.543
98113SOL     OW96235  12.165   3.381  14.297
98113SOL    HW196236  12.234   3.379  14.231
98113SOL    HW296237  12.156   3.289  14.324
98114SOL     OW96238  11.046   1.423   4.736
98114SOL    HW196239  11.116   1.471   4.781
98114SOL    HW296240  11.045   1.460   4.648
98115SOL     OW96241   9.551   8.099   8.488
98115SOL    HW196242   9.578   8.119   8.398
98115SOL    HW296243   9.571   8.179   8.536
98116SOL     OW96244   4.624   4.686   6.447
98116SOL    HW196245   4.665   4.772   6.462
98116SOL    HW296246   4.686   4.624   6.483
98117SOL     OW96247   3.897   5.901   7.043
98117SOL    HW196248   3.961   5.832   7.025
98117SOL    HW296249   3.855   5.917   6.958
98118SOL     OW96250   1.847   1.987  12.998
98118SOL    HW196251   1.773   1.937  13.031
98118SOL    HW296252   1.812   2.075  12.983
98119SOL     OW96253   3.219  14.084   4.377
98119SOL    HW196254   3.179  14.171   4.381
98119SOL    HW296255   3.287  14.093   4.310
98120SOL     OW96256  12.542   8.360   2.684
98120SOL    HW196257  12.505   8.414   2.753
98120SOL    HW296258  12.596   8.296   2.731
98121SOL     OW96259   8.679  10.452   0.886
98121SOL    HW196260   8.748  10.508   0.920
98121SOL    HW296261   8.600  10.505   0.890
98122SOL     OW96262  13.774  14.337   4.279
98122SOL    HW196263  13.821  14.419   4.264
98122SOL    HW296264  13.684  14.364   4.297
98123SOL     OW96265  14.404  13.538   0.555
98123SOL    HW196266  14.476  13.500   0.604
98123SOL    HW296267  14.380  13.616   0.604
98124SOL     OW96268   1.974   0.886  14.067
98124SOL    HW196269   2.048   0.942  14.090
98124SOL    HW296270   2.006   0.797  14.083
98125SOL     OW96271  13.715   1.125   7.986
98125SOL    HW196272  13.627   1.136   8.022
98125SOL    HW296273  13.726   1.030   7.978
98126SOL     OW96274   1.732   9.535   9.307
98126SOL    HW196275   1.704   9.516   9.397
98126SOL    HW296276   1.693   9.620   9.288
98127SOL     OW96277   1.230   2.061  12.739
98127SOL    HW196278   1.245   1.998  12.810
98127SOL    HW296279   1.211   2.144  12.784
98128SOL     OW96280   7.929  11.429   4.659
98128SOL    HW196281   8.017  11.407   4.689
98128SOL    HW296282   7.893  11.346   4.626
98129SOL     OW96283   2.930   7.899  13.234
98129SOL    HW196284   2.986   7.922  13.160
98129SOL    HW296285   2.856   7.852  13.195
98130SOL     OW96286   6.047   8.011  12.540
98130SOL    HW196287   6.086   8.088  12.583
98130SOL    HW296288   6.100   7.997  12.462
98131SOL     OW96289  12.074   6.770   8.027
98131SOL    HW196290  11.985   6.741   8.005
98131SOL    HW296291  12.061   6.848   8.080
98132SOL     OW96292  13.069   0.161  11.482
98132SOL    HW196293  12.987   0.112  11.494
98132SOL    HW296294  13.081   0.164  11.387
98133SOL     OW96295   0.077  14.473   4.523
98133SOL    HW196296   0.095  14.473   4.429
98133SOL    HW296297   0.098  14.384   4.551
98134SOL     OW96298   8.231  12.494  11.974
98134SOL    HW196299   8.260  12.520  11.887
98134SOL    HW296300   8.149  12.542  11.987
98135SOL     OW96301  13.863   2.591   6.292
98135SOL    HW196302  13.804   2.521   6.318
98135SOL    HW296303  13.816   2.671   6.314
98136SOL     OW96304  12.419  13.989   8.818
98136SOL    HW196305  12.442  14.069   8.865
98136SOL    HW296306  12.391  14.020   8.731
98137SOL     OW96307   4.405   0.139  12.188
98137SOL    HW196308   4.440   0.179  12.268
98137SOL    HW296309   4.410   0.045  12.205
98138SOL     OW96310   9.686   7.371  12.086
98138SOL    HW196311   9.758   7.312  12.065
98138SOL    HW296312   9.719   7.458  12.063
98139SOL     OW96313   0.220  14.007  11.412
98139SOL    HW196314   0.274  13.955  11.352
98139SOL    HW296315   0.274  14.083  11.432
98140SOL     OW96316   6.308  14.721  11.385
98140SOL    HW196317   6.333  14.798  11.335
98140SOL    HW296318   6.265  14.756  11.463
98141SOL     OW96319  12.424  13.682  14.110
98141SOL    HW196320  12.388  13.598  14.137
98141SOL    HW296321  12.385  13.699  14.025
98142SOL     OW96322   5.519  14.409  11.142
98142SOL    HW196323   5.531  14.504  11.137
98142SOL    HW296324   5.486  14.394  11.230
98143SOL     OW96325   9.157   1.777  12.584
98143SOL    HW196326   9.240   1.825  12.584
98143SOL    HW296327   9.090   1.845  12.587
98144SOL     OW96328   1.705   9.450  13.702
98144SOL    HW196329   1.667   9.408  13.780
98144SOL    HW296330   1.694   9.385  13.632
98145SOL     OW96331   9.616   9.253   3.574
98145SOL    HW196332   9.559   9.253   3.651
98145SOL    HW296333   9.657   9.340   3.575
98146SOL     OW96334   4.348   8.301  11.370
98146SOL    HW196335   4.408   8.295  11.445
98146SOL    HW296336   4.359   8.389  11.336
98147SOL     OW96337   1.186   0.746   4.030
98147SOL    HW196338   1.095   0.769   4.013
98147SOL    HW296339   1.231   0.831   4.038
98148SOL     OW96340   6.197   9.029   9.890
98148SOL    HW196341   6.271   9.072   9.933
98148SOL    HW296342   6.237   8.962   9.835
98149SOL     OW96343   6.159   3.084  12.667
98149SOL    HW196344   6.071   3.055  12.693
98149SOL    HW296345   6.153   3.179  12.667
98150SOL     OW96346  11.243   5.437  10.355
98150SOL    HW196347  11.289   5.383  10.419
98150SOL    HW296348  11.155   5.448  10.391
98151SOL     OW96349   6.104   8.910  10.140
98151SOL    HW196350   6.116   8.954  10.056
98151SOL    HW296351   6.121   8.978  10.205
98152SOL     OW96352   5.058  14.712   4.749
98152SOL    HW196353   4.974  14.751   4.724
98152SOL    HW296354   5.089  14.765   4.822
98153SOL     OW96355   2.194  11.486   3.892
98153SOL    HW196356   2.232  11.545   3.957
98153SOL    HW296357   2.215  11.526   3.808
98154SOL     OW96358  12.714   6.921   6.977
98154SOL    HW196359  12.679   6.835   6.998
98154SOL    HW296360  12.808   6.908   6.971
98155SOL     OW96361   8.850   0.608  11.075
98155SOL    HW196362   8.769   0.573  11.038
98155SOL    HW296363   8.894   0.651  11.002
98156SOL     OW96364   5.863   6.355   7.773
98156SOL    HW196365   5.897   6.382   7.858
98156SOL    HW296366   5.929   6.294   7.739
98157SOL     OW96367   0.436  11.408   7.979
98157SOL    HW196368   0.462  11.478   8.039
98157SOL    HW296369   0.483  11.331   8.011
98158SOL     OW96370   6.510  13.110  10.169
98158SOL    HW196371   6.538  13.170  10.100
98158SOL    HW296372   6.424  13.079  10.139
98159SOL     OW96373   9.332   0.943   4.178
98159SOL    HW196374   9.251   0.994   4.185
98159SOL    HW296375   9.375   0.956   4.263
98160SOL     OW96376  11.013   4.227   0.198
98160SOL    HW196377  11.048   4.164   0.261
98160SOL    HW296378  11.090   4.269   0.160
98161SOL     OW96379   8.131   3.022   1.394
98161SOL    HW196380   8.183   3.102   1.395
98161SOL    HW296381   8.042   3.051   1.410
98162SOL     OW96382   3.440   5.257  12.837
98162SOL    HW196383   3.437   5.330  12.776
98162SOL    HW296384   3.494   5.191  12.793
98163SOL     OW96385   9.493   5.898   8.907
98163SOL    HW196386   9.576   5.914   8.953
98163SOL    HW296387   9.506   5.813   8.864
98164SOL     OW96388   4.229  12.956   5.110
98164SOL    HW196389   4.190  13.028   5.061
98164SOL    HW296390   4.257  12.893   5.044
98165SOL     OW96391   6.755   3.562  10.396
98165SOL    HW196392   6.703   3.486  10.423
98165SOL    HW296393   6.841   3.546  10.434
98166SOL     OW96394   4.182   8.780  14.491
98166SOL    HW196395   4.127   8.849  14.528
98166SOL    HW296396   4.233   8.748  14.566
98167SOL     OW96397  10.081  10.873  14.402
98167SOL    HW196398  10.022  10.896  14.474
98167SOL    HW296399  10.168  10.876  14.441
98168SOL     OW96400   9.736   7.944   5.504
98168SOL    HW196401   9.788   7.922   5.426
98168SOL    HW296402   9.652   7.902   5.489
98169SOL     OW96403   6.792  14.088   0.052
98169SOL    HW196404   6.813  14.077   0.145
98169SOL    HW296405   6.833  14.171   0.028
98170SOL     OW96406  10.547   4.467  11.917
98170SOL    HW196407  10.453   4.469  11.935
98170SOL    HW296408  10.577   4.383  11.952
98171SOL     OW96409   3.433   1.887  14.001
98171SOL    HW196410   3.509   1.937  14.029
98171SOL    HW296411   3.468   1.801  13.977
98172SOL     OW96412  11.768   6.945  12.077
98172SOL    HW196413  11.698   6.905  12.128
98172SOL    HW296414  11.766   7.037  12.101
98173SOL     OW96415  14.428   1.506  11.312
98173SOL    HW196416  14.490   1.493  11.240
98173SOL    HW296417  14.482   1.539  11.384
98174SOL     OW96418   1.409   4.284   1.080
98174SOL    HW196419   1.350   4.286   1.156
98174SOL    HW296420   1.436   4.376   1.069
98175SOL     OW96421  11.241   7.782  10.201
98175SOL    HW196422  11.257   7.734  10.120
98175SOL    HW296423  11.267   7.722  10.271
98176SOL     OW96424   3.393  12.509  14.246
98176SOL    HW196425   3.371  12.416  14.254
98176SOL    HW296426   3.343  12.552  14.315
98177SOL     OW96427  11.206   0.249  12.458
98177SOL    HW196428  11.225   0.281  12.546
98177SOL    HW296429  11.118   0.281  12.439
98178SOL     OW96430   7.600  11.270  13.270
98178SOL    HW196431   7.558  11.320  13.200
98178SOL    HW296432   7.691  11.260  13.241
98179SOL     OW96433   3.223   6.810   4.207
98179SOL    HW196434   3.197   6.822   4.115
98179SOL    HW296435   3.161   6.862   4.257
98180SOL     OW96436   5.057   2.582   1.733
98180SOL    HW196437   5.139   2.555   1.773
98180SOL    HW296438   5.031   2.661   1.780
98181SOL     OW96439   4.407   4.609   2.151
98181SOL    HW196440   4.494   4.614   2.191
98181SOL    HW296441   4.352   4.572   2.220
98182SOL     OW96442  10.404  14.100   8.914
98182SOL    HW196443  10.382  14.007   8.911
98182SOL    HW296444  10.462  14.109   8.989
98183SOL     OW96445   6.518   9.807  12.610
98183SOL    HW196446   6.432   9.848  12.610
98183SOL    HW296447   6.542   9.805  12.517
98184SOL     OW96448  10.213   3.781  11.998
98184SOL    HW196449  10.289   3.725  12.009
98184SOL    HW296450  10.193   3.776  11.905
98185SOL     OW96451  10.311  13.569   2.565
98185SOL    HW196452  10.353  13.655   2.576
98185SOL    HW296453  10.232  13.588   2.516
98186SOL     OW96454   3.401  14.716   3.315
98186SOL    HW196455   3.452  14.788   3.278
98186SOL    HW296456   3.458  14.640   3.306
98187SOL     OW96457  13.770   6.617  14.061
98187SOL    HW196458  13.819   6.694  14.032
98187SOL    HW296459  13.760   6.629  14.155
98188SOL     OW96460   7.997  11.260   2.531
98188SOL    HW196461   7.992  11.222   2.443
98188SOL    HW296462   8.055  11.202   2.579
98189SOL     OW96463   6.977   6.995  10.176
98189SOL    HW196464   7.046   6.937  10.142
98189SOL    HW296465   7.022   7.052  10.238
98190SOL     OW96466   0.528  14.464  13.033
98190SOL    HW196467   0.468  14.475  12.960
98190SOL    HW296468   0.517  14.373  13.059
98191SOL     OW96469  14.001   7.790   7.749
98191SOL    HW196470  14.048   7.814   7.669
98191SOL    HW296471  14.015   7.863   7.809
98192SOL     OW96472  10.399   6.182  13.361
98192SOL    HW196473  10.448   6.117  13.411
98192SOL    HW296474  10.394   6.145  13.273
98193SOL     OW96475   7.539  13.300   3.091
98193SOL    HW196476   7.452  13.286   3.054
98193SOL    HW296477   7.593  13.230   3.055
98194SOL     OW96478   8.903   0.500  11.327
98194SOL    HW196479   8.893   0.519  11.234
98194SOL    HW296480   8.893   0.406  11.334
98195SOL     OW96481   4.906   3.328   5.429
98195SOL    HW196482   4.997   3.358   5.435
98195SOL    HW296483   4.886   3.334   5.336
98196SOL     OW96484   3.990   0.725   5.881
98196SOL    HW196485   4.044   0.648   5.870
98196SOL    HW296486   4.046   0.798   5.853
98197SOL     OW96487   1.077   6.133  13.071
98197SOL    HW196488   1.018   6.185  13.016
98197SOL    HW296489   1.049   6.152  13.160
98198SOL     OW96490  12.152   4.965   8.801
98198SOL    HW196491  12.148   4.940   8.709
98198SOL    HW296492  12.081   5.028   8.812
98199SOL     OW96493   5.990  14.687  12.535
98199SOL    HW196494   6.011  14.748  12.605
98199SOL    HW296495   5.901  14.657  12.554
98200SOL     OW96496  12.777   2.476  13.429
98200SOL    HW196497  12.798   2.438  13.514
98200SOL    HW296498  12.704   2.424  13.397
98201SOL     OW96499  11.680  10.399   1.115
98201SOL    HW196500  11.676  10.303   1.116
98201SOL    HW296501  11.617  10.426   1.181
98202SOL     OW96502   0.861   3.207  12.873
98202SOL    HW196503   0.879   3.254  12.792
98202SOL    HW296504   0.822   3.273  12.931
98203SOL     OW96505  12.106  14.851   9.379
98203SOL    HW196506  12.134   0.021   9.307
98203SOL    HW296507  12.126   0.013   9.458
98204SOL     OW96508   4.226   8.694   0.333
98204SOL    HW196509   4.293   8.704   0.265
98204SOL    HW296510   4.189   8.607   0.317
98205SOL     OW96511   6.394  13.330   8.175
98205SOL    HW196512   6.459  13.284   8.124
98205SOL    HW296513   6.365  13.267   8.241
98206SOL     OW96514   8.252  11.039  10.949
98206SOL    HW196515   8.241  10.952  10.909
98206SOL    HW296516   8.340  11.066  10.923
98207SOL     OW96517   0.319   1.665  11.645
98207SOL    HW196518   0.398   1.670  11.698
98207SOL    HW296519   0.284   1.578  11.661
98208SOL     OW96520  13.461   5.990   0.850
98208SOL    HW196521  13.399   6.012   0.781
98208SOL    HW296522  13.435   6.046   0.924
98209SOL     OW96523   8.737   8.748  11.782
98209SOL    HW196524   8.824   8.760  11.744
98209SOL    HW296525   8.690   8.694  11.719
98210SOL     OW96526   8.622   2.458  10.646
98210SOL    HW196527   8.644   2.507  10.567
98210SOL    HW296528   8.580   2.378  10.614
98211SOL     OW96529   8.518   4.916  13.295
98211SOL    HW196530   8.509   4.869  13.378
98211SOL    HW296531   8.462   4.868  13.234
98212SOL     OW96532   0.688   2.327   1.039
98212SOL    HW196533   0.626   2.309   1.110
98212SOL    HW296534   0.771   2.292   1.070
98213SOL     OW96535   8.522  11.286   8.335
98213SOL    HW196536   8.458  11.269   8.267
98213SOL    HW296537   8.563  11.201   8.351
98214SOL     OW96538   6.212   9.501   5.394
98214SOL    HW196539   6.279   9.567   5.373
98214SOL    HW296540   6.220   9.435   5.325
98215SOL     OW96541   4.434   5.225   2.886
98215SOL    HW196542   4.422   5.147   2.941
98215SOL    HW296543   4.386   5.205   2.806
98216SOL     OW96544  12.132  12.098   3.015
98216SOL    HW196545  12.089  12.177   3.049
98216SOL    HW296546  12.067  12.029   3.023
98217SOL     OW96547   3.016   1.785   3.339
98217SOL    HW196548   2.951   1.731   3.385
98217SOL    HW296549   3.071   1.722   3.292
98218SOL     OW96550  10.388   8.886   9.174
98218SOL    HW196551  10.450   8.815   9.164
98218SOL    HW296552  10.335   8.861   9.250
98219SOL     OW96553   7.640   9.849   8.069
98219SOL    HW196554   7.555   9.875   8.035
98219SOL    HW296555   7.691   9.824   7.992
98220SOL     OW96556   4.665   7.519   3.094
98220SOL    HW196557   4.608   7.593   3.117
98220SOL    HW296558   4.639   7.450   3.155
98221SOL     OW96559  11.892  11.840   7.831
98221SOL    HW196560  11.828  11.772   7.808
98221SOL    HW296561  11.868  11.867   7.919
98222SOL     OW96562   5.115   9.678   8.134
98222SOL    HW196563   5.156   9.725   8.207
98222SOL    HW296564   5.060   9.743   8.091
98223SOL     OW96565   3.929   9.646  10.956
98223SOL    HW196566   3.887   9.612  11.035
98223SOL    HW296567   3.980   9.573  10.922
98224SOL     OW96568   9.981   9.916  10.190
98224SOL    HW196569   9.943   9.829  10.176
98224SOL    HW296570  10.062   9.899  10.239
98225SOL     OW96571   7.827   1.535   3.813
98225SOL    HW196572   7.904   1.593   3.812
98225SOL    HW296573   7.863   1.449   3.834
98226SOL     OW96574   7.837  13.333   4.930
98226SOL    HW196575   7.863  13.393   4.999
98226SOL    HW296576   7.910  13.334   4.868
98227SOL     OW96577   2.778   4.897   8.536
98227SOL    HW196578   2.775   4.992   8.548
98227SOL    HW296579   2.769   4.885   8.441
98228SOL     OW96580  14.355  12.150   2.289
98228SOL    HW196581  14.390  12.093   2.357
98228SOL    HW296582  14.404  12.127   2.210
98229SOL     OW96583  14.079   9.322  11.130
98229SOL    HW196584  14.019   9.300  11.201
98229SOL    HW296585  14.092   9.239  11.083
98230SOL     OW96586   1.864   9.057   5.686
98230SOL    HW196587   1.936   9.041   5.625
98230SOL    HW296588   1.814   8.975   5.686
98231SOL     OW96589  14.870   0.356  13.378
98231SOL    HW196590   0.032   0.315  13.307
98231SOL    HW296591   0.002   0.449  13.370
98232SOL     OW96592   6.959  12.224   7.686
98232SOL    HW196593   6.932  12.238   7.595
98232SOL    HW296594   6.999  12.307   7.712
98233SOL     OW96595   7.327  13.721   6.565
98233SOL    HW196596   7.305  13.813   6.550
98233SOL    HW296597   7.417  13.713   6.534
98234SOL     OW96598   4.482   3.518   5.222
98234SOL    HW196599   4.430   3.584   5.176
98234SOL    HW296600   4.484   3.548   5.313
98235SOL     OW96601   6.590  11.140  11.832
98235SOL    HW196602   6.503  11.114  11.863
98235SOL    HW296603   6.578  11.162  11.740
98236SOL     OW96604   2.156   4.655   9.979
98236SOL    HW196605   2.113   4.690  10.057
98236SOL    HW296606   2.211   4.728   9.949
98237SOL     OW96607   6.978   5.442   7.741
98237SOL    HW196608   6.940   5.491   7.668
98237SOL    HW296609   6.915   5.451   7.812
98238SOL     OW96610   4.068  13.052   5.937
98238SOL    HW196611   4.001  13.086   5.878
98238SOL    HW296612   4.040  12.963   5.957
98239SOL     OW96613   5.967  12.509   0.220
98239SOL    HW196614   6.056  12.541   0.234
98239SOL    HW296615   5.961  12.432   0.276
98240SOL     OW96616   5.264   4.543   0.012
98240SOL    HW196617   5.235   4.526   0.102
98240SOL    HW296618   5.310   4.463  14.873
98241SOL     OW96619  12.222   5.380   1.810
98241SOL    HW196620  12.256   5.452   1.863
98241SOL    HW296621  12.262   5.301   1.849
98242SOL     OW96622  11.113   7.345   1.468
98242SOL    HW196623  11.092   7.408   1.399
98242SOL    HW296624  11.035   7.342   1.523
98243SOL     OW96625   3.182   9.237   9.979
98243SOL    HW196626   3.155   9.224  10.070
98243SOL    HW296627   3.180   9.332   9.967
98244SOL     OW96628   4.709  14.003   6.295
98244SOL    HW196629   4.642  14.009   6.364
98244SOL    HW296630   4.674  13.938   6.234
98245SOL     OW96631   8.623   6.514   6.332
98245SOL    HW196632   8.709   6.517   6.374
98245SOL    HW296633   8.583   6.599   6.352
98246SOL     OW96634  10.184  10.536  12.104
98246SOL    HW196635  10.106  10.513  12.154
98246SOL    HW296636  10.230  10.600  12.159
98247SOL     OW96637  10.196   0.969   5.160
98247SOL    HW196638  10.197   0.880   5.195
98247SOL    HW296639  10.105   0.984   5.136
98248SOL     OW96640   7.558  10.571   1.838
98248SOL    HW196641   7.635  10.545   1.887
98248SOL    HW296642   7.524  10.648   1.884
98249SOL     OW96643   2.637   7.014   5.976
98249SOL    HW196644   2.581   6.974   6.042
98249SOL    HW296645   2.596   6.993   5.892
98250SOL     OW96646   3.983   9.676  13.378
98250SOL    HW196647   4.001   9.582  13.381
98250SOL    HW296648   4.066   9.715  13.350
98251SOL     OW96649  13.406   2.531   1.547
98251SOL    HW196650  13.456   2.520   1.628
98251SOL    HW296651  13.424   2.622   1.520
98252SOL     OW96652   0.582   9.511   5.444
98252SOL    HW196653   0.583   9.549   5.531
98252SOL    HW296654   0.662   9.459   5.439
98253SOL     OW96655   6.878   5.989   5.655
98253SOL    HW196656   6.963   6.008   5.694
98253SOL    HW296657   6.815   6.030   5.713
98254SOL     OW96658  14.155  12.229  13.483
98254SOL    HW196659  14.167  12.135  13.473
98254SOL    HW296660  14.122  12.258  13.398
98255SOL     OW96661   1.854   3.026   4.393
98255SOL    HW196662   1.774   2.979   4.415
98255SOL    HW296663   1.828   3.087   4.324
98256SOL     OW96664   8.583   0.355   7.602
98256SOL    HW196665   8.654   0.352   7.666
98256SOL    HW296666   8.518   0.293   7.636
98257SOL     OW96667   3.187   9.532   9.363
98257SOL    HW196668   3.273   9.518   9.325
98257SOL    HW296669   3.163   9.620   9.337
98258SOL     OW96670  14.094  10.133  12.090
98258SOL    HW196671  14.086  10.186  12.169
98258SOL    HW296672  14.077  10.194  12.018
98259SOL     OW96673  12.789   0.112   8.193
98259SOL    HW196674  12.773   0.132   8.100
98259SOL    HW296675  12.863   0.167   8.217
98260SOL     OW96676  13.216   7.475   5.580
98260SOL    HW196677  13.131   7.519   5.585
98260SOL    HW296678  13.208   7.400   5.639
98261SOL     OW96679   7.143  12.681  11.159
98261SOL    HW196680   7.106  12.600  11.122
98261SOL    HW296681   7.095  12.751  11.116
98262SOL     OW96682   4.967  11.469   1.062
98262SOL    HW196683   5.015  11.462   1.144
98262SOL    HW296684   4.924  11.554   1.066
98263SOL     OW96685   4.674   6.619   1.761
98263SOL    HW196686   4.730   6.696   1.768
98263SOL    HW296687   4.670   6.601   1.667
98264SOL     OW96688   6.727   8.478   5.983
98264SOL    HW196689   6.669   8.404   6.002
98264SOL    HW296690   6.697   8.510   5.898
98265SOL     OW96691   4.686   4.638  13.390
98265SOL    HW196692   4.697   4.546  13.365
98265SOL    HW296693   4.666   4.635  13.484
98266SOL     OW96694  12.003   3.208  11.496
98266SOL    HW196695  12.062   3.163  11.435
98266SOL    HW296696  12.053   3.285  11.524
98267SOL     OW96697   3.873   2.707   7.178
98267SOL    HW196698   3.862   2.791   7.133
98267SOL    HW296699   3.810   2.649   7.135
98268SOL     OW96700   3.546   1.918   4.391
98268SOL    HW196701   3.500   1.840   4.359
98268SOL    HW296702   3.557   1.973   4.314
98269SOL     OW96703   7.958   1.837  12.198
98269SOL    HW196704   8.018   1.781  12.149
98269SOL    HW296705   7.894   1.868  12.134
98270SOL     OW96706   1.762   2.995  11.465
98270SOL    HW196707   1.792   3.047  11.391
98270SOL    HW296708   1.745   3.059  11.534
98271SOL     OW96709   2.962   2.959   2.825
98271SOL    HW196710   2.889   2.944   2.765
98271SOL    HW296711   3.021   3.017   2.776
98272SOL     OW96712  12.670   3.220   0.359
98272SOL    HW196713  12.598   3.173   0.316
98272SOL    HW296714  12.703   3.280   0.293
98273SOL     OW96715   1.809  14.717  13.652
98273SOL    HW196716   1.810  14.809  13.624
98273SOL    HW296717   1.784  14.668  13.573
98274SOL     OW96718  13.750   6.156   9.466
98274SOL    HW196719  13.781   6.066   9.462
98274SOL    HW296720  13.807   6.204   9.405
98275SOL     OW96721   5.432   0.818   2.290
98275SOL    HW196722   5.470   0.814   2.202
98275SOL    HW296723   5.352   0.869   2.279
98276SOL     OW96724   9.808   1.743   3.840
98276SOL    HW196725   9.878   1.769   3.899
98276SOL    HW296726   9.769   1.665   3.881
98277SOL     OW96727   1.256  12.150   2.940
98277SOL    HW196728   1.229  12.066   2.902
98277SOL    HW296729   1.305  12.194   2.870
98278SOL     OW96730   7.158   1.903  14.694
98278SOL    HW196731   7.170   1.909  14.789
98278SOL    HW296732   7.114   1.819  14.681
98279SOL     OW96733   4.435  13.564   4.292
98279SOL    HW196734   4.364  13.626   4.306
98279SOL    HW296735   4.502  13.590   4.355
98280SOL     OW96736   1.655  12.755   8.839
98280SOL    HW196737   1.656  12.754   8.935
98280SOL    HW296738   1.739  12.717   8.813
98281SOL     OW96739   4.946   7.636   7.560
98281SOL    HW196740   4.999   7.564   7.526
98281SOL    HW296741   5.003   7.713   7.552
98282SOL     OW96742  12.541   3.787  10.502
98282SOL    HW196743  12.521   3.753  10.589
98282SOL    HW296744  12.610   3.730  10.469
98283SOL     OW96745   4.530  13.628   7.333
98283SOL    HW196746   4.494  13.714   7.311
98283SOL    HW296747   4.456  13.577   7.364
98284SOL     OW96748   5.064   8.418   5.119
98284SOL    HW196749   5.001   8.407   5.190
98284SOL    HW296750   5.149   8.399   5.160
98285SOL     OW96751   7.303   5.719   3.606
98285SOL    HW196752   7.387   5.740   3.649
98285SOL    HW296753   7.239   5.773   3.651
98286SOL     OW96754   1.286   7.504   8.535
98286SOL    HW196755   1.306   7.574   8.473
98286SOL    HW296756   1.303   7.542   8.621
98287SOL     OW96757   8.394   7.226   0.000
98287SOL    HW196758   8.381   7.144  14.840
98287SOL    HW296759   8.384   7.294  14.821
98288SOL     OW96760   6.443  14.275   8.229
98288SOL    HW196761   6.526  14.292   8.183
98288SOL    HW296762   6.382  14.251   8.159
98289SOL     OW96763  12.952  13.512   4.781
98289SOL    HW196764  12.953  13.607   4.789
98289SOL    HW296765  13.044  13.487   4.769
98290SOL     OW96766   0.703  10.964   9.545
98290SOL    HW196767   0.665  11.034   9.492
98290SOL    HW296768   0.678  10.884   9.500
98291SOL     OW96769  10.951  11.586  12.343
98291SOL    HW196770  10.986  11.674  12.328
98291SOL    HW296771  10.856  11.597  12.340
98292SOL     OW96772   7.862  14.383   8.917
98292SOL    HW196773   7.881  14.450   8.983
98292SOL    HW296774   7.838  14.433   8.838
98293SOL     OW96775  10.199   9.435  11.397
98293SOL    HW196776  10.226   9.500  11.333
98293SOL    HW296777  10.277   9.382  11.413
98294SOL     OW96778   2.420   0.898   9.454
98294SOL    HW196779   2.399   0.990   9.472
98294SOL    HW296780   2.396   0.852   9.534
98295SOL     OW96781   9.132  14.017   7.157
98295SOL    HW196782   9.139  13.963   7.235
98295SOL    HW296783   9.136  14.108   7.189
98296SOL     OW96784  13.517   4.553   8.455
98296SOL    HW196785  13.573   4.582   8.383
98296SOL    HW296786  13.495   4.633   8.502
98297SOL     OW96787   0.263  13.333   2.690
98297SOL    HW196788   0.280  13.302   2.601
98297SOL    HW296789   0.349  13.359   2.723
98298SOL     OW96790   0.303  14.077   8.064
98298SOL    HW196791   0.233  14.028   8.021
98298SOL    HW296792   0.383  14.048   8.020
98299SOL     OW96793   2.682   4.252  10.618
98299SOL    HW196794   2.624   4.199  10.673
98299SOL    HW296795   2.714   4.192  10.552
98300SOL     OW96796   5.794  13.034  12.194
98300SOL    HW196797   5.874  13.008  12.241
98300SOL    HW296798   5.814  13.017  12.102
98301SOL     OW96799   7.274   5.695  10.668
98301SOL    HW196800   7.338   5.694  10.596
98301SOL    HW296801   7.328   5.704  10.747
98302SOL     OW96802  11.706   7.131   9.527
98302SOL    HW196803  11.632   7.082   9.492
98302SOL    HW296804  11.755   7.158   9.449
98303SOL     OW96805   1.360  14.020  13.308
98303SOL    HW196806   1.436  14.076  13.327
98303SOL    HW296807   1.372  13.943  13.363
98304SOL     OW96808   7.147   2.782   4.887
98304SOL    HW196809   7.054   2.759   4.883
98304SOL    HW296810   7.151   2.871   4.851
98305SOL     OW96811  13.664   4.242  14.767
98305SOL    HW196812  13.737   4.182  14.748
98305SOL    HW296813  13.613   4.244  14.686
98306SOL     OW96814   9.244   4.659   0.576
98306SOL    HW196815   9.209   4.570   0.578
98306SOL    HW296816   9.259   4.681   0.669
98307SOL     OW96817  11.861   2.201   3.556
98307SOL    HW196818  11.938   2.176   3.606
98307SOL    HW296819  11.854   2.296   3.568
98308SOL     OW96820  10.284   2.672   1.159
98308SOL    HW196821  10.249   2.584   1.144
98308SOL    HW296822  10.208   2.723   1.189
98309SOL     OW96823  12.906   3.969   5.234
98309SOL    HW196824  12.952   3.903   5.183
98309SOL    HW296825  12.815   3.964   5.203
98310SOL     OW96826  13.517  12.676  10.403
98310SOL    HW196827  13.501  12.607  10.337
98310SOL    HW296828  13.438  12.676  10.456
98311SOL     OW96829  10.371   4.341  14.490
98311SOL    HW196830  10.461   4.325  14.463
98311SOL    HW296831  10.376   4.415  14.550
98312SOL     OW96832   9.505   3.402  13.631
98312SOL    HW196833   9.439   3.466  13.658
98312SOL    HW296834   9.487   3.325  13.685
98313SOL     OW96835  13.102  10.796   8.963
98313SOL    HW196836  13.167  10.771   9.028
98313SOL    HW296837  13.030  10.735   8.977
98314SOL     OW96838  14.603   9.691  12.541
98314SOL    HW196839  14.520   9.645  12.547
98314SOL    HW296840  14.583   9.770  12.491
98315SOL     OW96841   2.979  10.404  11.348
98315SOL    HW196842   3.029  10.444  11.277
98315SOL    HW296843   2.995  10.461  11.424
98316SOL     OW96844   4.472   4.641   0.248
98316SOL    HW196845   4.420   4.563   0.231
98316SOL    HW296846   4.460   4.658   0.342
98317SOL     OW96847   8.146   2.584   0.327
98317SOL    HW196848   8.233   2.550   0.304
98317SOL    HW296849   8.162   2.674   0.354
98318SOL     OW96850   3.644   9.564   7.366
98318SOL    HW196851   3.728   9.528   7.393
98318SOL    HW296852   3.641   9.549   7.272
98319SOL     OW96853   7.043   8.440   3.582
98319SOL    HW196854   6.964   8.483   3.551
98319SOL    HW296855   7.034   8.439   3.677
98320SOL     OW96856   1.220   7.084   8.825
98320SOL    HW196857   1.153   7.133   8.776
98320SOL    HW296858   1.302   7.104   8.780
98321SOL     OW96859   6.110  13.608   7.383
98321SOL    HW196860   6.121  13.629   7.476
98321SOL    HW296861   6.110  13.512   7.380
98322SOL     OW96862   8.040  11.990  12.462
98322SOL    HW196863   8.102  11.930  12.503
98322SOL    HW296864   7.955  11.964  12.496
98323SOL     OW96865   3.592   5.250   0.030
98323SOL    HW196866   3.577   5.338   0.064
98323SOL    HW296867   3.608   5.196   0.108
98324SOL     OW96868   3.303   8.637   3.427
98324SOL    HW196869   3.283   8.551   3.466
98324SOL    HW296870   3.341   8.687   3.499
98325SOL     OW96871  13.308   1.373   1.709
98325SOL    HW196872  13.298   1.329   1.794
98325SOL    HW296873  13.403   1.377   1.696
98326SOL     OW96874   5.772  11.794   4.690
98326SOL    HW196875   5.728  11.742   4.757
98326SOL    HW296876   5.860  11.808   4.724
98327SOL     OW96877  11.232   9.805  12.056
98327SOL    HW196878  11.320   9.780  12.085
98327SOL    HW296879  11.211   9.882  12.109
98328SOL     OW96880   5.454   9.521   7.015
98328SOL    HW196881   5.493   9.441   7.050
98328SOL    HW296882   5.369   9.527   7.059
98329SOL     OW96883  13.974   4.391   1.715
98329SOL    HW196884  13.922   4.312   1.730
98329SOL    HW296885  13.909   4.459   1.696
98330SOL     OW96886   5.498   0.415  13.682
98330SOL    HW196887   5.449   0.497  13.688
98330SOL    HW296888   5.513   0.402  13.589
98331SOL     OW96889  14.190  13.159  14.633
98331SOL    HW196890  14.282  13.171  14.607
98331SOL    HW296891  14.143  13.154  14.549
98332SOL     OW96892  12.393   9.962   1.742
98332SOL    HW196893  12.460  10.030   1.737
98332SOL    HW296894  12.348   9.965   1.658
98333SOL     OW96895   2.398  11.568   8.110
98333SOL    HW196896   2.369  11.510   8.039
98333SOL    HW296897   2.356  11.652   8.089
98334SOL     OW96898  10.819  10.983   0.968
98334SOL    HW196899  10.875  10.984   1.046
98334SOL    HW296900  10.804  11.075   0.948
98335SOL     OW96901   6.926  11.854   2.483
98335SOL    HW196902   6.930  11.898   2.568
98335SOL    HW296903   6.980  11.776   2.493
98336SOL     OW96904  14.015   6.554   6.562
98336SOL    HW196905  13.974   6.469   6.546
98336SOL    HW296906  14.068   6.540   6.641
98337SOL     OW96907   9.197  11.190  14.189
98337SOL    HW196908   9.218  11.160  14.101
98337SOL    HW296909   9.279  11.178  14.238
98338SOL     OW96910   8.712   7.821   5.783
98338SOL    HW196911   8.657   7.790   5.854
98338SOL    HW296912   8.651   7.857   5.719
98339SOL     OW96913   6.466  12.882   6.890
98339SOL    HW196914   6.515  12.800   6.895
98339SOL    HW296915   6.403  12.868   6.820
98340SOL     OW96916  11.471   2.483   3.656
98340SOL    HW196917  11.529   2.422   3.702
98340SOL    HW296918  11.419   2.524   3.725
98341SOL     OW96919  12.739   8.702   1.048
98341SOL    HW196920  12.750   8.788   1.089
98341SOL    HW296921  12.658   8.710   0.997
98342SOL     OW96922  10.457  13.234   5.284
98342SOL    HW196923  10.365  13.253   5.298
98342SOL    HW296924  10.503  13.295   5.341
98343SOL     OW96925  11.414   3.075  10.809
98343SOL    HW196926  11.438   3.145  10.869
98343SOL    HW296927  11.319   3.070  10.813
98344SOL     OW96928   4.884  13.293   8.367
98344SOL    HW196929   4.908  13.355   8.436
98344SOL    HW296930   4.945  13.220   8.377
98345SOL     OW96931  14.874   1.330   7.835
98345SOL    HW196932   0.050   1.275   7.881
98345SOL    HW296933  14.859   1.285   7.752
98346SOL     OW96934   5.465  12.407   6.174
98346SOL    HW196935   5.536  12.465   6.146
98346SOL    HW296936   5.440  12.360   6.095
98347SOL     OW96937  13.027   2.245  11.722
98347SOL    HW196938  13.001   2.337  11.722
98347SOL    HW296939  13.123   2.247  11.721
98348SOL     OW96940   5.018   4.436  12.930
98348SOL    HW196941   4.992   4.422  12.839
98348SOL    HW296942   5.113   4.424  12.930
98349SOL     OW96943   5.379   5.113   2.057
98349SOL    HW196944   5.470   5.141   2.048
98349SOL    HW296945   5.328   5.193   2.042
98350SOL     OW96946  11.972   8.257   6.954
98350SOL    HW196947  12.009   8.254   6.865
98350SOL    HW296948  12.032   8.204   7.006
98351SOL     OW96949   2.864   7.953   1.837
98351SOL    HW196950   2.902   7.865   1.833
98351SOL    HW296951   2.869   7.976   1.930
98352SOL     OW96952   0.483   8.010   9.317
98352SOL    HW196953   0.397   7.984   9.352
98352SOL    HW296954   0.476   8.105   9.306
98353SOL     OW96955   1.663  13.962  13.696
98353SOL    HW196956   1.710  14.004  13.767
98353SOL    HW296957   1.731  13.945  13.630
98354SOL     OW96958   1.328   7.347   2.791
98354SOL    HW196959   1.377   7.287   2.734
98354SOL    HW296960   1.357   7.325   2.879
98355SOL     OW96961  11.320   0.251   0.872
98355SOL    HW196962  11.325   0.156   0.863
98355SOL    HW296963  11.366   0.270   0.954
98356SOL     OW96964  10.736   0.959   8.601
98356SOL    HW196965  10.809   0.956   8.539
98356SOL    HW296966  10.658   0.943   8.547
98357SOL     OW96967   6.172   8.129  10.590
98357SOL    HW196968   6.173   8.169  10.503
98357SOL    HW296969   6.261   8.098  10.604
98358SOL     OW96970   0.524  10.086  11.378
98358SOL    HW196971   0.505  10.034  11.300
98358SOL    HW296972   0.531  10.176  11.346
98359SOL     OW96973   9.722   5.596   5.037
98359SOL    HW196974   9.754   5.681   5.067
98359SOL    HW296975   9.763   5.533   5.096
98360SOL     OW96976  11.951   8.801  11.778
98360SOL    HW196977  11.960   8.838  11.691
98360SOL    HW296978  12.035   8.818  11.821
98361SOL     OW96979   2.902   7.558   3.633
98361SOL    HW196980   2.955   7.558   3.553
98361SOL    HW296981   2.957   7.603   3.698
98362SOL     OW96982  10.598   4.296  11.277
98362SOL    HW196983  10.640   4.265  11.197
98362SOL    HW296984  10.504   4.294  11.258
98363SOL     OW96985  12.413   7.186   5.714
98363SOL    HW196986  12.431   7.240   5.638
98363SOL    HW296987  12.449   7.100   5.691
98364SOL     OW96988  13.444   1.429   6.942
98364SOL    HW196989  13.465   1.338   6.961
98364SOL    HW296990  13.398   1.425   6.858
98365SOL     OW96991   8.465   3.828   4.230
98365SOL    HW196992   8.496   3.876   4.307
98365SOL    HW296993   8.468   3.891   4.159
98366SOL     OW96994   3.086   9.491  13.960
98366SOL    HW196995   3.080   9.579  13.998
98366SOL    HW296996   3.032   9.436  14.017
98367SOL     OW96997   4.897  13.442   4.110
98367SOL    HW196998   4.863  13.427   4.199
98367SOL    HW296999   4.990  13.419   4.116
98368SOL     OW97000  10.817   3.243  14.498
98368SOL    HW197001  10.895   3.194  14.523
98368SOL    HW297002  10.836   3.333  14.525
98369SOL     OW97003  11.600   3.053   9.764
98369SOL    HW197004  11.565   3.140   9.748
98369SOL    HW297005  11.661   3.037   9.691
98370SOL     OW97006   3.045   3.839  13.253
98370SOL    HW197007   3.046   3.913  13.314
98370SOL    HW297008   2.991   3.773  13.296
98371SOL     OW97009   4.351   3.423  11.501
98371SOL    HW197010   4.320   3.429  11.410
98371SOL    HW297011   4.328   3.334  11.528
98372SOL     OW97012  10.564   8.017  11.247
98372SOL    HW197013  10.520   7.932  11.239
98372SOL    HW297014  10.648   7.996  11.288
98373SOL     OW97015   8.579  11.837   4.415
98373SOL    HW197016   8.520  11.779   4.367
98373SOL    HW297017   8.606  11.903   4.351
98374SOL     OW97018   3.387  10.864   3.136
98374SOL    HW197019   3.315  10.858   3.199
98374SOL    HW297020   3.465  10.877   3.190
98375SOL     OW97021  12.732   0.849   5.399
98375SOL    HW197022  12.706   0.769   5.354
98375SOL    HW297023  12.763   0.907   5.330
98376SOL     OW97024  14.272   5.410   8.937
98376SOL    HW197025  14.323   5.486   8.963
98376SOL    HW297026  14.267   5.356   9.016
98377SOL     OW97027   1.343   8.692  12.425
98377SOL    HW197028   1.329   8.766  12.366
98377SOL    HW297029   1.255   8.667  12.454
98378SOL     OW97030   3.638   5.091   2.237
98378SOL    HW197031   3.644   5.183   2.211
98378SOL    HW297032   3.702   5.082   2.308
98379SOL     OW97033   1.372   2.756   6.317
98379SOL    HW197034   1.349   2.674   6.273
98379SOL    HW297035   1.300   2.815   6.296
98380SOL     OW97036   2.522   0.684   4.986
98380SOL    HW197037   2.448   0.656   5.040
98380SOL    HW297038   2.583   0.724   5.048
98381SOL     OW97039  10.003   1.064   3.689
98381SOL    HW197040   9.995   1.148   3.734
98381SOL    HW297041   9.916   1.025   3.695
98382SOL     OW97042   5.750   8.035  14.816
98382SOL    HW197043   5.670   8.055  14.768
98382SOL    HW297044   5.809   8.107  14.795
98383SOL     OW97045  10.144   7.563  13.159
98383SOL    HW197046  10.120   7.482  13.112
98383SOL    HW297047  10.062   7.611  13.167
98384SOL     OW97048   5.900   8.624  14.093
98384SOL    HW197049   5.876   8.583  14.176
98384SOL    HW297050   5.995   8.611  14.086
98385SOL     OW97051   7.581   2.255  11.632
98385SOL    HW197052   7.539   2.214  11.557
98385SOL    HW297053   7.567   2.194  11.705
98386SOL     OW97054   4.205  13.158  13.368
98386SOL    HW197055   4.265  13.095  13.406
98386SOL    HW297056   4.118  13.128  13.395
98387SOL     OW97057  12.392  10.813  11.150
98387SOL    HW197058  12.431  10.790  11.066
98387SOL    HW297059  12.348  10.733  11.179
98388SOL     OW97060   3.771   7.102  14.508
98388SOL    HW197061   3.743   7.090  14.417
98388SOL    HW297062   3.690   7.125  14.554
98389SOL     OW97063   4.000   1.709   9.123
98389SOL    HW197064   3.964   1.629   9.161
98389SOL    HW297065   4.079   1.680   9.077
98390SOL     OW97066  10.957   5.355   1.217
98390SOL    HW197067  10.987   5.270   1.185
98390SOL    HW297068  11.031   5.388   1.269
98391SOL     OW97069   7.732  12.475   0.796
98391SOL    HW197070   7.749  12.407   0.861
98391SOL    HW297071   7.762  12.556   0.838
98392SOL     OW97072   2.364  12.241   9.555
98392SOL    HW197073   2.343  12.327   9.593
98392SOL    HW297074   2.448  12.218   9.595
98393SOL     OW97075  11.432  10.643   9.399
98393SOL    HW197076  11.418  10.606   9.312
98393SOL    HW297077  11.344  10.667   9.429
98394SOL     OW97078   7.614   6.793   4.905
98394SOL    HW197079   7.544   6.730   4.923
98394SOL    HW297080   7.662   6.755   4.831
98395SOL     OW97081  14.678   4.156   1.658
98395SOL    HW197082  14.668   4.251   1.659
98395SOL    HW297083  14.772   4.141   1.660
98396SOL     OW97084   0.345   5.587  14.505
98396SOL    HW197085   0.267   5.636  14.479
98396SOL    HW297086   0.311   5.511  14.552
98397SOL     OW97087  11.248   2.272   4.607
98397SOL    HW197088  11.268   2.252   4.516
98397SOL    HW297089  11.198   2.354   4.603
98398SOL     OW97090  14.002   5.598  12.218
98398SOL    HW197091  14.085   5.573  12.259
98398SOL    HW297092  14.028   5.647  12.140
98399SOL     OW97093   9.062  14.417  14.526
98399SOL    HW197094   8.991  14.456  14.476
98399SOL    HW297095   9.072  14.329  14.491
98400SOL     OW97096   3.713   9.545   2.993
98400SOL    HW197097   3.626   9.574   2.965
98400SOL    HW297098   3.708   9.543   3.089
98401SOL     OW97099   0.498  13.052   2.370
98401SOL    HW197100   0.457  12.979   2.416
98401SOL    HW297101   0.502  13.122   2.434
98402SOL     OW97102   9.442  12.949   8.867
98402SOL    HW197103   9.528  12.977   8.898
98402SOL    HW297104   9.425  12.868   8.915
98403SOL     OW97105  10.631   6.887   9.611
98403SOL    HW197106  10.550   6.902   9.659
98403SOL    HW297107  10.661   6.801   9.640
98404SOL     OW97108  11.581  11.146   6.957
98404SOL    HW197109  11.490  11.128   6.980
98404SOL    HW297110  11.587  11.241   6.953
98405SOL     OW97111  14.004  13.425   0.545
98405SOL    HW197112  14.055  13.492   0.590
98405SOL    HW297113  13.998  13.353   0.607
98406SOL     OW97114   9.860  14.346   4.600
98406SOL    HW197115   9.810  14.423   4.575
98406SOL    HW297116   9.952  14.374   4.594
98407SOL     OW97117  10.238  13.974   6.150
98407SOL    HW197118  10.240  13.922   6.230
98407SOL    HW297119  10.153  13.955   6.111
98408SOL     OW97120   7.646   5.486   9.494
98408SOL    HW197121   7.560   5.453   9.522
98408SOL    HW297122   7.630   5.578   9.473
98409SOL     OW97123  13.681   3.536  14.783
98409SOL    HW197124  13.656   3.502  14.869
98409SOL    HW297125  13.776   3.528  14.781
98410SOL     OW97126   0.328  14.664  11.814
98410SOL    HW197127   0.392  14.701  11.874
98410SOL    HW297128   0.379  14.606  11.757
98411SOL     OW97129  11.199   8.618   5.571
98411SOL    HW197130  11.211   8.712   5.559
98411SOL    HW297131  11.197   8.605   5.665
98412SOL     OW97132  12.385  13.998   0.202
98412SOL    HW197133  12.404  13.957   0.287
98412SOL    HW297134  12.427  13.940   0.138
98413SOL     OW97135  12.942  13.858   8.098
98413SOL    HW197136  12.851  13.853   8.068
98413SOL    HW297137  12.935  13.877   8.192
98414SOL     OW97138   2.390  12.660   8.371
98414SOL    HW197139   2.352  12.658   8.284
98414SOL    HW297140   2.471  12.610   8.363
98415SOL     OW97141   7.795   1.866  12.567
98415SOL    HW197142   7.769   1.958  12.570
98415SOL    HW297143   7.874   1.866  12.513
98416SOL     OW97144   9.186   8.377  14.093
98416SOL    HW197145   9.160   8.400  14.182
98416SOL    HW297146   9.107   8.389  14.041
98417SOL     OW97147   8.746   2.172   0.477
98417SOL    HW197148   8.658   2.167   0.513
98417SOL    HW297149   8.768   2.265   0.480
98418SOL     OW97150   3.843  12.954  13.105
98418SOL    HW197151   3.762  12.938  13.154
98418SOL    HW297152   3.816  13.007  13.031
98419SOL     OW97153   8.881   2.673  12.506
98419SOL    HW197154   8.882   2.584  12.469
98419SOL    HW297155   8.885   2.659  12.601
98420SOL     OW97156   3.454   9.048  14.338
98420SOL    HW197157   3.438   9.138  14.367
98420SOL    HW297158   3.532   9.055  14.282
98421SOL     OW97159   3.215   7.790  11.515
98421SOL    HW197160   3.168   7.758  11.438
98421SOL    HW297161   3.307   7.771  11.495
98422SOL     OW97162   1.923   6.662   8.456
98422SOL    HW197163   1.862   6.712   8.510
98422SOL    HW297164   1.882   6.660   8.370
98423SOL     OW97165   0.882  14.531   9.952
98423SOL    HW197166   0.962  14.547   9.901
98423SOL    HW297167   0.840  14.457   9.909
98424SOL     OW97168  10.821  11.940   9.937
98424SOL    HW197169  10.865  11.907  10.015
98424SOL    HW297170  10.887  11.996   9.894
98425SOL     OW97171   1.449  12.128   3.152
98425SOL    HW197172   1.385  12.127   3.081
98425SOL    HW297173   1.431  12.048   3.201
98426SOL     OW97174   8.067  13.875   3.773
98426SOL    HW197175   8.006  13.877   3.846
98426SOL    HW297176   8.075  13.967   3.746
98427SOL     OW97177  10.273   7.396  14.834
98427SOL    HW197178  10.193   7.415  14.883
98427SOL    HW297179  10.321   7.479  14.832
98428SOL     OW97180   4.755  13.362  12.961
98428SOL    HW197181   4.774  13.358  13.054
98428SOL    HW297182   4.659  13.368  12.957
98429SOL     OW97183   8.776   9.943   3.641
98429SOL    HW197184   8.728  10.002   3.583
98429SOL    HW297185   8.829   9.889   3.582
98430SOL     OW97186   6.968  14.734   5.268
98430SOL    HW197187   6.916  14.744   5.348
98430SOL    HW297188   7.044  14.683   5.295
98431SOL     OW97189   3.923   3.686   0.092
98431SOL    HW197190   3.876   3.644   0.164
98431SOL    HW297191   3.956   3.612   0.040
98432SOL     OW97192   9.077   7.619   2.781
98432SOL    HW197193   9.091   7.608   2.687
98432SOL    HW297194   9.165   7.622   2.818
98433SOL     OW97195   8.892   8.357   5.025
98433SOL    HW197196   8.931   8.288   4.970
98433SOL    HW297197   8.925   8.338   5.113
98434SOL     OW97198   5.615  14.830   5.229
98434SOL    HW197199   5.700  14.802   5.196
98434SOL    HW297200   5.578  14.883   5.159
98435SOL     OW97201   3.277   0.985   8.778
98435SOL    HW197202   3.261   0.915   8.714
98435SOL    HW297203   3.198   0.988   8.830
98436SOL     OW97204   2.256  13.426   3.186
98436SOL    HW197205   2.176  13.381   3.158
98436SOL    HW297206   2.262  13.502   3.128
98437SOL     OW97207  13.173   8.602   8.804
98437SOL    HW197208  13.080   8.620   8.793
98437SOL    HW297209  13.178   8.546   8.881
98438SOL     OW97210   8.587   8.075  10.573
98438SOL    HW197211   8.575   8.154  10.521
98438SOL    HW297212   8.518   8.081  10.640
98439SOL     OW97213   9.575   8.032  11.401
98439SOL    HW197214   9.600   8.066  11.316
98439SOL    HW297215   9.551   7.941  11.384
98440SOL     OW97216   2.265   2.149  14.053
98440SOL    HW197217   2.325   2.190  13.990
98440SOL    HW297218   2.227   2.075  14.006
98441SOL     OW97219  11.714   0.021   5.606
98441SOL    HW197220  11.639   0.014   5.548
98441SOL    HW297221  11.777   0.074   5.558
98442SOL     OW97222  12.166   4.294  10.927
98442SOL    HW197223  12.179   4.388  10.931
98442SOL    HW297224  12.209   4.266  10.847
98443SOL     OW97225   0.043  13.580   3.527
98443SOL    HW197226   0.109  13.638   3.490
98443SOL    HW297227   0.039  13.601   3.620
98444SOL     OW97228  13.381  13.178   0.282
98444SOL    HW197229  13.451  13.241   0.263
98444SOL    HW297230  13.301  13.221   0.253
98445SOL     OW97231  13.654   7.330  12.073
98445SOL    HW197232  13.567   7.311  12.108
98445SOL    HW297233  13.644   7.326  11.978
98446SOL     OW97234   7.447  10.113  11.219
98446SOL    HW197235   7.400  10.031  11.230
98446SOL    HW297236   7.406  10.173  11.282
98447SOL     OW97237   6.374  14.248  13.905
98447SOL    HW197238   6.454  14.295  13.880
98447SOL    HW297239   6.309  14.316  13.917
98448SOL     OW97240   8.751   3.664   0.993
98448SOL    HW197241   8.722   3.750   0.960
98448SOL    HW297242   8.842   3.679   1.020
98449SOL     OW97243   8.917  12.256   1.006
98449SOL    HW197244   8.848  12.190   0.996
98449SOL    HW297245   8.882  12.334   0.961
98450SOL     OW97246  12.747  10.943   0.283
98450SOL    HW197247  12.791  11.009   0.336
98450SOL    HW297248  12.797  10.863   0.298
98451SOL     OW97249   5.819   8.677  12.378
98451SOL    HW197250   5.792   8.682  12.286
98451SOL    HW297251   5.907   8.714  12.380
98452SOL     OW97252  14.158   1.513   9.951
98452SOL    HW197253  14.084   1.563   9.917
98452SOL    HW297254  14.228   1.578   9.959
98453SOL     OW97255  10.632   3.072  14.393
98453SOL    HW197256  10.707   3.109  14.440
98453SOL    HW297257  10.623   3.128  14.316
98454SOL     OW97258   4.144   8.744   1.483
98454SOL    HW197259   4.072   8.703   1.532
98454SOL    HW297260   4.223   8.716   1.530
98455SOL     OW97261   2.257   2.629  12.257
98455SOL    HW197262   2.241   2.721  12.233
98455SOL    HW297263   2.172   2.587  12.244
98456SOL     OW97264  10.991   3.781   6.209
98456SOL    HW197265  10.904   3.740   6.218
98456SOL    HW297266  11.052   3.709   6.225
98457SOL     OW97267  11.850  11.628   0.220
98457SOL    HW197268  11.884  11.545   0.253
98457SOL    HW297269  11.927  11.675   0.190
98458SOL     OW97270   0.876  14.783   2.368
98458SOL    HW197271   0.877  14.874   2.340
98458SOL    HW297272   0.877  14.733   2.287
98459SOL     OW97273   9.002   0.385   7.909
98459SOL    HW197274   8.952   0.418   7.984
98459SOL    HW297275   9.052   0.461   7.879
98460SOL     OW97276   6.288  11.967   2.410
98460SOL    HW197277   6.193  11.970   2.409
98460SOL    HW297278   6.312  11.929   2.326
98461SOL     OW97279   9.683   8.200   7.492
98461SOL    HW197280   9.591   8.179   7.508
98461SOL    HW297281   9.682   8.289   7.458
98462SOL     OW97282   3.510   5.665   4.180
98462SOL    HW197283   3.452   5.645   4.254
98462SOL    HW297284   3.509   5.760   4.174
98463SOL     OW97285   0.210   1.343   3.943
98463SOL    HW197286   0.116   1.354   3.953
98463SOL    HW297287   0.221   1.250   3.923
98464SOL     OW97288   1.761   0.318   9.506
98464SOL    HW197289   1.784   0.253   9.573
98464SOL    HW297290   1.824   0.389   9.518
98465SOL     OW97291   7.471   7.700   7.867
98465SOL    HW197292   7.475   7.639   7.794
98465SOL    HW297293   7.378   7.724   7.873
98466SOL     OW97294  11.555  13.395   6.572
98466SOL    HW197295  11.645  13.363   6.574
98466SOL    HW297296  11.519  13.373   6.658
98467SOL     OW97297  10.773   2.817   6.830
98467SOL    HW197298  10.803   2.820   6.920
98467SOL    HW297299  10.725   2.735   6.823
98468SOL     OW97300   2.190   1.202   5.081
98468SOL    HW197301   2.156   1.218   5.169
98468SOL    HW297302   2.112   1.194   5.026
98469SOL     OW97303  11.844  10.234   5.122
98469SOL    HW197304  11.858  10.288   5.044
98469SOL    HW297305  11.864  10.292   5.195
98470SOL     OW97306  12.231  14.138  10.610
98470SOL    HW197307  12.264  14.216  10.565
98470SOL    HW297308  12.152  14.168  10.654
98471SOL     OW97309   4.588   1.906   9.850
98471SOL    HW197310   4.650   1.934   9.916
98471SOL    HW297311   4.502   1.929   9.886
98472SOL     OW97312   7.803   8.082  10.474
98472SOL    HW197313   7.833   8.099  10.385
98472SOL    HW297314   7.722   8.132  10.483
98473SOL     OW97315   1.137   4.414   2.657
98473SOL    HW197316   1.152   4.336   2.604
98473SOL    HW297317   1.069   4.389   2.719
98474SOL     OW97318   1.161  13.370   5.534
98474SOL    HW197319   1.185  13.443   5.477
98474SOL    HW297320   1.127  13.304   5.474
98475SOL     OW97321  10.836  13.111   3.488
98475SOL    HW197322  10.900  13.180   3.471
98475SOL    HW297323  10.760  13.135   3.435
98476SOL     OW97324  10.900   9.590  11.473
98476SOL    HW197325  10.887   9.682  11.498
98476SOL    HW297326  10.925   9.546  11.554
98477SOL     OW97327   8.549   7.506  14.032
98477SOL    HW197328   8.500   7.493  14.113
98477SOL    HW297329   8.505   7.581  13.990
98478SOL     OW97330   5.601  13.253  10.653
98478SOL    HW197331   5.600  13.331  10.708
98478SOL    HW297332   5.554  13.279  10.574
98479SOL     OW97333   1.081   0.040  13.850
98479SOL    HW197334   1.012   0.005  13.795
98479SOL    HW297335   1.122  14.851  13.889
98480SOL     OW97336   8.923   6.041  12.299
98480SOL    HW197337   8.933   6.083  12.213
98480SOL    HW297338   9.011   6.041  12.336
98481SOL     OW97339  12.601  13.079   0.949
98481SOL    HW197340  12.592  13.026   0.870
98481SOL    HW297341  12.528  13.052   1.005
98482SOL     OW97342   0.469  13.836   8.953
98482SOL    HW197343   0.449  13.754   8.908
98482SOL    HW297344   0.549  13.818   9.002
98483SOL     OW97345  13.655   7.812   0.255
98483SOL    HW197346  13.739   7.771   0.277
98483SOL    HW297347  13.679   7.897   0.219
98484SOL     OW97348  14.750  14.302   8.473
98484SOL    HW197349  14.693  14.256   8.413
98484SOL    HW297350  14.756  14.391   8.438
98485SOL     OW97351   5.525   5.109   4.213
98485SOL    HW197352   5.589   5.143   4.151
98485SOL    HW297353   5.467   5.054   4.160
98486SOL     OW97354   5.361  12.486   8.325
98486SOL    HW197355   5.346  12.392   8.341
98486SOL    HW297356   5.284  12.514   8.275
98487SOL     OW97357   9.389   1.700  14.423
98487SOL    HW197358   9.476   1.728  14.452
98487SOL    HW297359   9.335   1.780  14.428
98488SOL     OW97360  11.596   1.811   9.214
98488SOL    HW197361  11.667   1.780   9.269
98488SOL    HW297362  11.609   1.905   9.208
98489SOL     OW97363  10.687   8.614   4.134
98489SOL    HW197364  10.720   8.704   4.139
98489SOL    HW297365  10.593   8.624   4.117
98490SOL     OW97366  12.783  10.934  12.635
98490SOL    HW197367  12.765  10.921  12.728
98490SOL    HW297368  12.878  10.929  12.629
98491SOL     OW97369   9.351  10.620   0.265
98491SOL    HW197370   9.358  10.712   0.239
98491SOL    HW297371   9.341  10.622   0.360
98492SOL     OW97372   6.065  13.312   8.348
98492SOL    HW197373   6.047  13.294   8.440
98492SOL    HW297374   6.140  13.257   8.327
98493SOL     OW97375  13.705   4.652  10.216
98493SOL    HW197376  13.708   4.573  10.163
98493SOL    HW297377  13.625   4.697  10.187
98494SOL     OW97378   7.668   3.596  10.704
98494SOL    HW197379   7.702   3.513  10.670
98494SOL    HW297380   7.647   3.646  10.625
98495SOL     OW97381   7.620   8.972  10.142
98495SOL    HW197382   7.591   8.896  10.192
98495SOL    HW297383   7.561   9.042  10.169
98496SOL     OW97384   9.926   2.802   7.889
98496SOL    HW197385   9.997   2.842   7.838
98496SOL    HW297386   9.914   2.861   7.963
98497SOL     OW97387  10.642   8.395   3.428
98497SOL    HW197388  10.724   8.347   3.437
98497SOL    HW297389  10.606   8.366   3.344
98498SOL     OW97390   6.836   5.978   9.818
98498SOL    HW197391   6.896   5.929   9.761
98498SOL    HW297392   6.864   6.069   9.811
98499SOL     OW97393  11.556   3.253   1.698
98499SOL    HW197394  11.562   3.197   1.775
98499SOL    HW297395  11.603   3.333   1.724
98500SOL     OW97396  14.857  12.309   9.175
98500SOL    HW197397  14.869  12.386   9.119
98500SOL    HW297398  14.769  12.277   9.154
98501SOL     OW97399   2.755   2.860   4.098
98501SOL    HW197400   2.768   2.782   4.044
98501SOL    HW297401   2.840   2.904   4.097
98502SOL     OW97402   2.508  11.821   7.855
98502SOL    HW197403   2.511  11.845   7.762
98502SOL    HW297404   2.582  11.867   7.894
98503SOL     OW97405  11.914   7.391  11.946
98503SOL    HW197406  11.923   7.300  11.919
98503SOL    HW297407  11.877   7.386  12.035
98504SOL     OW97408  10.335  14.537  13.009
98504SOL    HW197409  10.424  14.569  12.993
98504SOL    HW297410  10.304  14.588  13.084
98505SOL     OW97411   3.186  13.738   4.932
98505SOL    HW197412   3.208  13.792   5.008
98505SOL    HW297413   3.184  13.649   4.965
98506SOL     OW97414   2.849   5.126  13.628
98506SOL    HW197415   2.772   5.076  13.603
98506SOL    HW297416   2.839   5.209  13.581
98507SOL     OW97417  11.732   7.749   1.788
98507SOL    HW197418  11.664   7.719   1.728
98507SOL    HW297419  11.792   7.675   1.795
98508SOL     OW97420   6.823  10.338   6.685
98508SOL    HW197421   6.833  10.314   6.593
98508SOL    HW297422   6.803  10.256   6.730
98509SOL     OW97423   2.642   4.628   9.583
98509SOL    HW197424   2.709   4.644   9.649
98509SOL    HW297425   2.650   4.701   9.522
98510SOL     OW97426   1.671   4.860   6.096
98510SOL    HW197427   1.683   4.768   6.120
98510SOL    HW297428   1.629   4.857   6.010
98511SOL     OW97429  12.964   4.908   4.321
98511SOL    HW197430  12.918   4.875   4.398
98511SOL    HW297431  13.034   4.844   4.306
98512SOL     OW97432   9.215   7.300   1.708
98512SOL    HW197433   9.279   7.369   1.725
98512SOL    HW297434   9.140   7.322   1.762
98513SOL     OW97435  10.593   1.765   8.151
98513SOL    HW197436  10.553   1.735   8.233
98513SOL    HW297437  10.532   1.830   8.117
98514SOL     OW97438  11.020   5.239  10.202
98514SOL    HW197439  11.021   5.287  10.120
98514SOL    HW297440  10.928   5.220  10.219
98515SOL     OW97441   3.330   1.760  12.297
98515SOL    HW197442   3.271   1.781  12.224
98515SOL    HW297443   3.272   1.752  12.373
98516SOL     OW97444   8.921   6.258   1.265
98516SOL    HW197445   8.835   6.300   1.273
98516SOL    HW297446   8.983   6.328   1.287
98517SOL     OW97447   5.214   5.497  11.044
98517SOL    HW197448   5.163   5.515  10.965
98517SOL    HW297449   5.288   5.444  11.013
98518SOL     OW97450   2.202  10.175   6.193
98518SOL    HW197451   2.258  10.251   6.179
98518SOL    HW297452   2.123  10.210   6.232
98519SOL     OW97453  13.868   1.551   0.389
98519SOL    HW197454  13.950   1.570   0.437
98519SOL    HW297455  13.894   1.489   0.321
98520SOL     OW97456  12.469  12.693   3.135
98520SOL    HW197457  12.537  12.631   3.161
98520SOL    HW297458  12.518  12.771   3.108
98521SOL     OW97459   5.084   4.303   4.170
98521SOL    HW197460   5.129   4.384   4.148
98521SOL    HW297461   5.041   4.277   4.089
98522SOL     OW97462  13.469  10.432   8.640
98522SOL    HW197463  13.535  10.365   8.623
98522SOL    HW297464  13.455  10.428   8.735
98523SOL     OW97465   0.209   1.768  14.493
98523SOL    HW197466   0.159   1.696  14.455
98523SOL    HW297467   0.292   1.728  14.518
98524SOL     OW97468  13.754   6.946   0.396
98524SOL    HW197469  13.736   6.883   0.327
98524SOL    HW297470  13.789   7.023   0.351
98525SOL     OW97471  11.124   8.570   4.705
98525SOL    HW197472  11.040   8.526   4.720
98525SOL    HW297473  11.161   8.526   4.629
98526SOL     OW97474   7.152  13.754   1.141
98526SOL    HW197475   7.123  13.680   1.088
98526SOL    HW297476   7.072  13.791   1.178
98527SOL     OW97477   6.119   3.136  12.336
98527SOL    HW197478   6.048   3.117  12.398
98527SOL    HW297479   6.199   3.122  12.385
98528SOL     OW97480   2.602  10.022   2.005
98528SOL    HW197481   2.673   9.969   1.969
98528SOL    HW297482   2.561  10.064   1.929
98529SOL     OW97483   7.408  10.760   0.682
98529SOL    HW197484   7.331  10.814   0.698
98529SOL    HW297485   7.434  10.729   0.768
98530SOL     OW97486   2.469   6.091  12.657
98530SOL    HW197487   2.522   6.030  12.605
98530SOL    HW297488   2.527   6.116  12.729
98531SOL     OW97489   3.630   3.777  12.971
98531SOL    HW197490   3.547   3.741  13.004
98531SOL    HW297491   3.676   3.806  13.049
98532SOL     OW97492   4.221  12.467   2.305
98532SOL    HW197493   4.219  12.533   2.236
98532SOL    HW297494   4.314  12.453   2.323
98533SOL     OW97495  13.376   6.183   1.042
98533SOL    HW197496  13.287   6.213   1.059
98533SOL    HW297497  13.407   6.151   1.127
98534SOL     OW97498  10.516  12.026  11.946
98534SOL    HW197499  10.605  12.051  11.922
98534SOL    HW297500  10.461  12.061  11.876
98535SOL     OW97501   0.554   7.837   4.681
98535SOL    HW197502   0.642   7.812   4.653
98535SOL    HW297503   0.532   7.914   4.629
98536SOL     OW97504   1.961   9.816  11.277
98536SOL    HW197505   1.912   9.755  11.333
98536SOL    HW297506   1.914   9.899  11.284
98537SOL     OW97507  14.644   5.919   9.736
98537SOL    HW197508  14.611   5.924   9.825
98537SOL    HW297509  14.668   6.009   9.715
98538SOL     OW97510   4.205  12.638   4.006
98538SOL    HW197511   4.135  12.577   3.985
98538SOL    HW297512   4.210  12.696   3.929
98539SOL     OW97513  11.067   2.540  11.166
98539SOL    HW197514  11.027   2.586  11.091
98539SOL    HW297515  11.033   2.451  11.160
98540SOL     OW97516  13.548  11.119  13.864
98540SOL    HW197517  13.535  11.026  13.884
98540SOL    HW297518  13.643  11.129  13.857
98541SOL     OW97519  10.211   6.220   1.915
98541SOL    HW197520  10.228   6.269   1.995
98541SOL    HW297521  10.259   6.138   1.925
98542SOL     OW97522   7.758   3.909   2.233
98542SOL    HW197523   7.714   3.871   2.156
98542SOL    HW297524   7.720   3.862   2.307
98543SOL     OW97525  12.755   5.817   8.613
98543SOL    HW197526  12.828   5.800   8.674
98543SOL    HW297527  12.797   5.844   8.532
98544SOL     OW97528   9.200   3.899   6.658
98544SOL    HW197529   9.133   3.865   6.717
98544SOL    HW297530   9.278   3.910   6.712
98545SOL     OW97531   4.274   2.092  14.140
98545SOL    HW197532   4.349   2.098  14.199
98545SOL    HW297533   4.198   2.091  14.198
98546SOL     OW97534   6.076   0.345   6.035
98546SOL    HW197535   6.020   0.284   5.987
98546SOL    HW297536   6.150   0.360   5.976
98547SOL     OW97537  12.021   9.241   1.349
98547SOL    HW197538  12.076   9.281   1.281
98547SOL    HW297539  12.082   9.211   1.416
98548SOL     OW97540   1.965   9.827   8.958
98548SOL    HW197541   1.909   9.779   8.897
98548SOL    HW297542   2.053   9.794   8.940
98549SOL     OW97543  14.520   5.765   2.577
98549SOL    HW197544  14.573   5.684   2.577
98549SOL    HW297545  14.467   5.759   2.656
98550SOL     OW97546   7.857  14.340  12.120
98550SOL    HW197547   7.854  14.310  12.211
98550SOL    HW297548   7.900  14.269  12.073
98551SOL     OW97549   8.755   9.299   0.861
98551SOL    HW197550   8.706   9.379   0.840
98551SOL    HW297551   8.814   9.325   0.932
98552SOL     OW97552   3.685   5.563   1.495
98552SOL    HW197553   3.723   5.475   1.485
98552SOL    HW297554   3.731   5.617   1.431
98553SOL     OW97555  12.303  14.377  11.190
98553SOL    HW197556  12.239  14.338  11.130
98553SOL    HW297557  12.267  14.361  11.277
98554SOL     OW97558  11.327   2.498   6.706
98554SOL    HW197559  11.418   2.525   6.694
98554SOL    HW297560  11.290   2.562   6.767
98555SOL     OW97561  13.815   0.298   3.789
98555SOL    HW197562  13.840   0.381   3.829
98555SOL    HW297563  13.822   0.234   3.860
98556SOL     OW97564  13.692   3.830   8.307
98556SOL    HW197565  13.736   3.779   8.375
98556SOL    HW297566  13.753   3.831   8.233
98557SOL     OW97567   6.785   5.500  10.347
98557SOL    HW197568   6.842   5.552  10.403
98557SOL    HW297569   6.758   5.559  10.278
98558SOL     OW97570   5.772  10.031  11.550
98558SOL    HW197571   5.777  10.126  11.549
98558SOL    HW297572   5.693  10.012  11.601
98559SOL     OW97573  13.118   8.890   3.082
98559SOL    HW197574  13.052   8.929   3.025
98559SOL    HW297575  13.067   8.837   3.144
98560SOL     OW97576  10.771   5.701   5.679
98560SOL    HW197577  10.763   5.761   5.604
98560SOL    HW297578  10.779   5.615   5.639
98561SOL     OW97579   7.840   6.539   2.395
98561SOL    HW197580   7.912   6.485   2.363
98561SOL    HW297581   7.763   6.484   2.387
98562SOL     OW97582   5.480   1.989  13.970
98562SOL    HW197583   5.575   1.991  13.964
98562SOL    HW297584   5.458   1.897  13.983
98563SOL     OW97585  13.206   1.992   8.913
98563SOL    HW197586  13.276   1.937   8.948
98563SOL    HW297587  13.176   2.044   8.988
98564SOL     OW97588   0.552  13.790  10.805
98564SOL    HW197589   0.556  13.862  10.742
98564SOL    HW297590   0.637  13.789  10.847
98565SOL     OW97591  14.362   9.607   5.880
98565SOL    HW197592  14.324   9.561   5.955
98565SOL    HW297593  14.294   9.667   5.850
98566SOL     OW97594   4.668  10.370   3.406
98566SOL    HW197595   4.704  10.394   3.491
98566SOL    HW297596   4.623  10.449   3.375
98567SOL     OW97597  12.368   3.575   1.269
98567SOL    HW197598  12.394   3.486   1.246
98567SOL    HW297599  12.446   3.611   1.313
98568SOL     OW97600   7.245  11.456  12.303
98568SOL    HW197601   7.322  11.512  12.306
98568SOL    HW297602   7.234  11.435  12.211
98569SOL     OW97603   4.765   0.421   1.820
98569SOL    HW197604   4.727   0.499   1.779
98569SOL    HW297605   4.759   0.438   1.914
98570SOL     OW97606  13.465   1.536   9.421
98570SOL    HW197607  13.502   1.504   9.503
98570SOL    HW297608  13.518   1.495   9.353
98571SOL     OW97609   7.887  14.765   5.039
98571SOL    HW197610   7.844  14.723   5.113
98571SOL    HW297611   7.981  14.756   5.056
98572SOL     OW97612   8.519   9.070   1.380
98572SOL    HW197613   8.478   8.993   1.341
98572SOL    HW297614   8.476   9.079   1.465
98573SOL     OW97615   2.900   6.794  12.635
98573SOL    HW197616   2.959   6.809  12.709
98573SOL    HW297617   2.916   6.703  12.610
98574SOL     OW97618  10.325  13.497  12.862
98574SOL    HW197619  10.275  13.546  12.798
98574SOL    HW297620  10.326  13.553  12.940
98575SOL     OW97621   8.084  14.822   2.447
98575SOL    HW197622   8.091  14.814   2.352
98575SOL    HW297623   8.163  14.780   2.481
98576SOL     OW97624  10.664  14.707  11.995
98576SOL    HW197625  10.718  14.706  12.074
98576SOL    HW297626  10.574  14.693  12.027
98577SOL     OW97627   7.096   4.074  12.315
98577SOL    HW197628   7.134   4.001  12.266
98577SOL    HW297629   7.157   4.089  12.387
98578SOL     OW97630   2.529  11.423   1.864
98578SOL    HW197631   2.595  11.376   1.915
98578SOL    HW297632   2.524  11.375   1.781
98579SOL     OW97633  12.951   6.425   4.388
98579SOL    HW197634  13.037   6.468   4.384
98579SOL    HW297635  12.900   6.467   4.319
98580SOL     OW97636  12.600   3.401  13.009
98580SOL    HW197637  12.539   3.460  12.964
98580SOL    HW297638  12.660   3.372  12.940
98581SOL     OW97639  11.980   9.138   6.231
98581SOL    HW197640  12.002   9.055   6.190
98581SOL    HW297641  11.945   9.114   6.317
98582SOL     OW97642   0.283  10.187   6.716
98582SOL    HW197643   0.288  10.223   6.628
98582SOL    HW297644   0.265  10.262   6.772
98583SOL     OW97645   8.666   0.928   1.777
98583SOL    HW197646   8.584   0.959   1.740
98583SOL    HW297647   8.642   0.889   1.861
98584SOL     OW97648  13.537   8.463   2.017
98584SOL    HW197649  13.553   8.381   2.062
98584SOL    HW297650  13.452   8.452   1.974
98585SOL     OW97651   0.223   3.548   0.189
98585SOL    HW197652   0.240   3.629   0.141
98585SOL    HW297653   0.305   3.530   0.234
98586SOL     OW97654   5.816   1.663   5.721
98586SOL    HW197655   5.883   1.721   5.757
98586SOL    HW297656   5.733   1.702   5.750
98587SOL     OW97657   2.794  13.976  10.141
98587SOL    HW197658   2.784  13.891  10.098
98587SOL    HW297659   2.789  14.040  10.070
98588SOL     OW97660   2.975   7.859   7.183
98588SOL    HW197661   2.977   7.763   7.192
98588SOL    HW297662   3.065   7.886   7.204
98589SOL     OW97663   5.237  13.746  14.035
98589SOL    HW197664   5.226  13.841  14.040
98589SOL    HW297665   5.326  13.734  14.003
98590SOL     OW97666  10.059   1.875   5.944
98590SOL    HW197667  10.116   1.837   5.878
98590SOL    HW297668  10.119   1.901   6.015
98591SOL     OW97669   4.862  13.024  11.275
98591SOL    HW197670   4.848  12.951  11.214
98591SOL    HW297671   4.774  13.049  11.303
98592SOL     OW97672   6.825   9.177   0.168
98592SOL    HW197673   6.813   9.235   0.092
98592SOL    HW297674   6.886   9.110   0.136
98593SOL     OW97675   2.369  10.312  10.650
98593SOL    HW197676   2.356  10.304  10.556
98593SOL    HW297677   2.290  10.274  10.689
98594SOL     OW97678   6.877  14.077   4.054
98594SOL    HW197679   6.944  14.080   4.123
98594SOL    HW297680   6.797  14.108   4.097
98595SOL     OW97681   5.963  13.698   6.925
98595SOL    HW197682   6.002  13.773   6.970
98595SOL    HW297683   5.973  13.719   6.832
98596SOL     OW97684   8.437   1.325  12.802
98596SOL    HW197685   8.403   1.341  12.890
98596SOL    HW297686   8.369   1.356  12.744
98597SOL     OW97687   2.496  13.253   7.015
98597SOL    HW197688   2.493  13.204   6.933
98597SOL    HW297689   2.573  13.220   7.060
98598SOL     OW97690  14.612   5.647   0.875
98598SOL    HW197691  14.619   5.706   0.950
98598SOL    HW297692  14.532   5.598   0.890
98599SOL     OW97693   0.031   4.192   1.153
98599SOL    HW197694   0.083   4.268   1.180
98599SOL    HW297695  14.856   4.179   1.225
98600SOL     OW97696   4.237  14.676   4.188
98600SOL    HW197697   4.211  14.587   4.165
98600SOL    HW297698   4.155  14.720   4.213
98601SOL     OW97699   2.344   6.005   3.837
98601SOL    HW197700   2.273   6.059   3.801
98601SOL    HW297701   2.424   6.049   3.807
98602SOL     OW97702  14.571  11.731   6.584
98602SOL    HW197703  14.660  11.750   6.614
98602SOL    HW297704  14.528  11.691   6.660
98603SOL     OW97705   3.675   3.882   2.433
98603SOL    HW197706   3.756   3.932   2.444
98603SOL    HW297707   3.626   3.931   2.367
98604SOL     OW97708  13.830   0.049   8.403
98604SOL    HW197709  13.766   0.086   8.342
98604SOL    HW297710  13.860   0.123   8.454
98605SOL     OW97711  14.297   6.814   1.407
98605SOL    HW197712  14.320   6.881   1.471
98605SOL    HW297713  14.247   6.749   1.456
98606SOL     OW97714  12.086   0.519   9.012
98606SOL    HW197715  12.021   0.466   8.965
98606SOL    HW297716  12.035   0.573   9.072
98607SOL     OW97717   9.630  13.739   2.869
98607SOL    HW197718   9.554  13.683   2.883
98607SOL    HW297719   9.701  13.695   2.915
98608SOL     OW97720   4.031  14.419  10.205
98608SOL    HW197721   3.995  14.401  10.292
98608SOL    HW297722   4.100  14.483  10.221
98609SOL     OW97723  12.867   6.284   4.759
98609SOL    HW197724  12.797   6.280   4.694
98609SOL    HW297725  12.942   6.242   4.717
98610SOL     OW97726   7.503   2.222   6.044
98610SOL    HW197727   7.541   2.258   5.964
98610SOL    HW297728   7.578   2.185   6.091
98611SOL     OW97729   6.831   6.027   0.797
98611SOL    HW197730   6.915   6.037   0.842
98611SOL    HW297731   6.849   5.968   0.725
98612SOL     OW97732  14.352  11.843   3.866
98612SOL    HW197733  14.388  11.758   3.891
98612SOL    HW297734  14.383  11.857   3.776
98613SOL     OW97735   0.988  11.120  10.671
98613SOL    HW197736   0.902  11.081  10.658
98613SOL    HW297737   0.995  11.185  10.601
98614SOL     OW97738   1.107   3.033  13.351
98614SOL    HW197739   1.169   2.962  13.366
98614SOL    HW297740   1.103   3.043  13.256
98615SOL     OW97741   7.152   7.502   8.265
98615SOL    HW197742   7.082   7.446   8.298
98615SOL    HW297743   7.165   7.473   8.175
98616SOL     OW97744   2.396   8.164   0.603
98616SOL    HW197745   2.384   8.134   0.693
98616SOL    HW297746   2.400   8.260   0.610
98617SOL     OW97747   1.575   4.853  10.810
98617SOL    HW197748   1.503   4.915  10.821
98617SOL    HW297749   1.536   4.779  10.763
98618SOL     OW97750   2.372   8.077  13.129
98618SOL    HW197751   2.461   8.049  13.109
98618SOL    HW297752   2.327   7.997  13.155
98619SOL     OW97753   7.685   9.201   3.693
98619SOL    HW197754   7.752   9.137   3.668
98619SOL    HW297755   7.734   9.283   3.704
98620SOL     OW97756  11.890  13.836  14.830
98620SOL    HW197757  11.925  13.772  14.769
98620SOL    HW297758  11.967  13.874  14.873
98621SOL     OW97759   0.792  13.357  14.126
98621SOL    HW197760   0.743  13.301  14.066
98621SOL    HW297761   0.844  13.296  14.177
98622SOL     OW97762   7.223  11.267   9.713
98622SOL    HW197763   7.143  11.217   9.728
98622SOL    HW297764   7.201  11.357   9.739
98623SOL     OW97765   7.574   0.535   7.883
98623SOL    HW197766   7.557   0.583   7.964
98623SOL    HW297767   7.614   0.600   7.826
98624SOL     OW97768   1.551   8.632   5.025
98624SOL    HW197769   1.630   8.616   5.077
98624SOL    HW297770   1.572   8.599   4.938
98625SOL     OW97771   8.484   1.163  11.612
98625SOL    HW197772   8.577   1.151  11.590
98625SOL    HW297773   8.450   1.075  11.623
98626SOL     OW97774   5.440   3.252   3.507
98626SOL    HW197775   5.401   3.257   3.594
98626SOL    HW297776   5.392   3.183   3.462
98627SOL     OW97777   3.938  12.687   0.610
98627SOL    HW197778   3.889  12.659   0.532
98627SOL    HW297779   3.872  12.730   0.665
98628SOL     OW97780   8.660  14.684   4.993
98628SOL    HW197781   8.673  14.683   4.898
98628SOL    HW297782   8.565  14.685   5.004
98629SOL     OW97783   1.840   7.530   4.311
98629SOL    HW197784   1.894   7.557   4.385
98629SOL    HW297785   1.753   7.563   4.331
98630SOL     OW97786  12.197   8.328  11.042
98630SOL    HW197787  12.208   8.269  11.117
98630SOL    HW297788  12.225   8.276  10.967
98631SOL     OW97789   8.199   4.635  12.588
98631SOL    HW197790   8.143   4.569  12.546
98631SOL    HW297791   8.287   4.615  12.557
98632SOL     OW97792  11.140   2.139  10.576
98632SOL    HW197793  11.215   2.185  10.538
98632SOL    HW297794  11.141   2.053  10.534
98633SOL     OW97795   0.645   2.082   3.762
98633SOL    HW197796   0.599   2.149   3.814
98633SOL    HW297797   0.612   1.999   3.796
98634SOL     OW97798   6.765   3.823  14.606
98634SOL    HW197799   6.776   3.731  14.630
98634SOL    HW297800   6.686   3.824  14.552
98635SOL     OW97801   7.673   7.420   1.581
98635SOL    HW197802   7.755   7.427   1.630
98635SOL    HW297803   7.675   7.493   1.519
98636SOL     OW97804  10.640   2.706   0.319
98636SOL    HW197805  10.548   2.696   0.294
98636SOL    HW297806  10.638   2.718   0.414
98637SOL     OW97807   2.327   9.599  12.747
98637SOL    HW197808   2.245   9.549  12.755
98637SOL    HW297809   2.316   9.650  12.667
98638SOL     OW97810  11.315  10.366   7.286
98638SOL    HW197811  11.363  10.408   7.214
98638SOL    HW297812  11.276  10.439   7.334
98639SOL     OW97813   7.073  12.744  13.484
98639SOL    HW197814   7.128  12.668  13.463
98639SOL    HW297815   7.131  12.819  13.471
98640SOL     OW97816   8.374  11.283   0.909
98640SOL    HW197817   8.332  11.358   0.953
98640SOL    HW297818   8.467  11.296   0.925
98641SOL     OW97819   1.155  13.916   5.130
98641SOL    HW197820   1.193  13.936   5.216
98641SOL    HW297821   1.121  13.827   5.139
98642SOL     OW97822   8.871   9.541   9.045
98642SOL    HW197823   8.843   9.629   9.068
98642SOL    HW297824   8.892   9.545   8.951
98643SOL     OW97825   9.276  13.343  11.270
98643SOL    HW197826   9.273  13.298  11.186
98643SOL    HW297827   9.214  13.294  11.325
98644SOL     OW97828   5.650   7.259   0.628
98644SOL    HW197829   5.630   7.181   0.576
98644SOL    HW297830   5.641   7.229   0.719
98645SOL     OW97831   1.588   5.564  10.087
98645SOL    HW197832   1.639   5.501  10.138
98645SOL    HW297833   1.581   5.641  10.144
98646SOL     OW97834   4.980   0.555  12.894
98646SOL    HW197835   4.907   0.527  12.951
98646SOL    HW297836   5.057   0.547  12.949
98647SOL     OW97837   0.198   7.300   4.732
98647SOL    HW197838   0.112   7.319   4.769
98647SOL    HW297839   0.182   7.285   4.639
98648SOL     OW97840   3.909   1.842   6.607
98648SOL    HW197841   3.881   1.798   6.528
98648SOL    HW297842   4.005   1.839   6.604
98649SOL     OW97843   3.029   2.632   6.262
98649SOL    HW197844   3.042   2.715   6.308
98649SOL    HW297845   2.935   2.618   6.263
98650SOL     OW97846  10.991   4.134  12.398
98650SOL    HW197847  10.983   4.127  12.493
98650SOL    HW297848  11.003   4.043  12.369
98651SOL     OW97849   3.104   5.583  12.437
98651SOL    HW197850   3.016   5.586  12.472
98651SOL    HW297851   3.158   5.552  12.509
98652SOL     OW97852  10.875   7.341  10.592
98652SOL    HW197853  10.877   7.275  10.523
98652SOL    HW297854  10.936   7.308  10.658
98653SOL     OW97855   9.050  10.721   6.980
98653SOL    HW197856   9.142  10.702   6.962
98653SOL    HW297857   9.030  10.671   7.059
98654SOL     OW97858  13.913  10.013   8.297
98654SOL    HW197859  13.826  10.037   8.265
98654SOL    HW297860  13.921   9.919   8.278
98655SOL     OW97861   0.693  12.831   4.414
98655SOL    HW197862   0.721  12.907   4.363
98655SOL    HW297863   0.600  12.822   4.395
98656SOL     OW97864   5.783   4.745  14.148
98656SOL    HW197865   5.725   4.735  14.223
98656SOL    HW297866   5.870   4.758  14.186
98657SOL     OW97867  12.393  13.906  11.016
98657SOL    HW197868  12.374  13.908  11.110
98657SOL    HW297869  12.386  13.997  10.988
98658SOL     OW97870   9.738   4.253  10.429
98658SOL    HW197871   9.815   4.240  10.374
98658SOL    HW297872   9.671   4.197  10.390
98659SOL     OW97873   9.346  10.989   8.811
98659SOL    HW197874   9.398  11.061   8.775
98659SOL    HW297875   9.359  10.917   8.750
98660SOL     OW97876   7.683   7.840   3.818
98660SOL    HW197877   7.765   7.806   3.853
98660SOL    HW297878   7.659   7.911   3.879
98661SOL     OW97879   8.261  11.060   3.116
98661SOL    HW197880   8.235  11.108   3.038
98661SOL    HW297881   8.187  11.002   3.135
98662SOL     OW97882  12.189  12.022   1.059
98662SOL    HW197883  12.102  12.038   1.022
98662SOL    HW297884  12.220  12.108   1.085
98663SOL     OW97885   4.348   6.089   8.871
98663SOL    HW197886   4.387   6.092   8.783
98663SOL    HW297887   4.254   6.077   8.855
98664SOL     OW97888   5.667   2.688   5.503
98664SOL    HW197889   5.740   2.671   5.562
98664SOL    HW297890   5.696   2.761   5.448
98665SOL     OW97891   4.110   9.756   2.177
98665SOL    HW197892   4.052   9.811   2.125
98665SOL    HW297893   4.117   9.675   2.128
98666SOL     OW97894  14.501   2.549   3.902
98666SOL    HW197895  14.407   2.529   3.901
98666SOL    HW297896  14.508   2.628   3.954
98667SOL     OW97897   1.880   6.336   7.522
98667SOL    HW197898   1.843   6.423   7.533
98667SOL    HW297899   1.840   6.284   7.592
98668SOL     OW97900   4.819   4.143   9.065
98668SOL    HW197901   4.789   4.090   9.139
98668SOL    HW297902   4.909   4.112   9.049
98669SOL     OW97903   3.100  10.698  12.748
98669SOL    HW197904   3.105  10.710  12.653
98669SOL    HW297905   3.021  10.645  12.761
98670SOL     OW97906  13.216   0.320   8.268
98670SOL    HW197907  13.192   0.254   8.204
98670SOL    HW297908  13.272   0.274   8.331
98671SOL     OW97909   6.119  12.732  11.088
98671SOL    HW197910   6.044  12.709  11.144
98671SOL    HW297911   6.081  12.785  11.019
98672SOL     OW97912  14.886  12.902   1.412
98672SOL    HW197913  14.790  12.904   1.403
98672SOL    HW297914   0.030  12.875   1.325
98673SOL     OW97915   4.299  12.092   6.220
98673SOL    HW197916   4.235  12.022   6.232
98673SOL    HW297917   4.383  12.047   6.214
98674SOL     OW97918   9.454  14.750   0.640
98674SOL    HW197919   9.436  14.735   0.733
98674SOL    HW297920   9.473  14.664   0.604
98675SOL     OW97921   9.132   5.266  10.055
98675SOL    HW197922   9.061   5.232  10.109
98675SOL    HW297923   9.190   5.310  10.118
98676SOL     OW97924   9.026   3.538   1.120
98676SOL    HW197925   8.959   3.488   1.166
98676SOL    HW297926   9.052   3.607   1.182
98677SOL     OW97927  13.135  14.197   7.259
98677SOL    HW197928  13.075  14.268   7.233
98677SOL    HW297929  13.113  14.125   7.200
98678SOL     OW97930   9.366   3.159  14.882
98678SOL    HW197931   9.327   3.187   0.078
98678SOL    HW297932   9.404   3.073   0.013
98679SOL     OW97933  12.606   7.354  11.026
98679SOL    HW197934  12.673   7.364  11.093
98679SOL    HW297935  12.656   7.338  10.945
98680SOL     OW97936   5.296   5.823  12.195
98680SOL    HW197937   5.306   5.874  12.115
98680SOL    HW297938   5.203   5.801  12.198
98681SOL     OW97939   6.298   8.119  14.276
98681SOL    HW197940   6.242   8.155  14.208
98681SOL    HW297941   6.332   8.196  14.323
98682SOL     OW97942   8.379   0.751   0.268
98682SOL    HW197943   8.343   0.765   0.181
98682SOL    HW297944   8.437   0.676   0.259
98683SOL     OW97945  13.948   3.141   1.958
98683SOL    HW197946  13.856   3.153   1.985
98683SOL    HW297947  13.953   3.184   1.872
98684SOL     OW97948   5.422   8.461   1.849
98684SOL    HW197949   5.507   8.501   1.832
98684SOL    HW297950   5.361   8.534   1.855
98685SOL     OW97951   7.309   6.018   6.562
98685SOL    HW197952   7.222   6.005   6.525
98685SOL    HW297953   7.360   6.057   6.491
98686SOL     OW97954   8.366   3.244  14.203
98686SOL    HW197955   8.361   3.264  14.109
98686SOL    HW297956   8.275   3.224  14.228
98687SOL     OW97957   9.489  10.863  12.336
98687SOL    HW197958   9.556  10.932  12.337
98687SOL    HW297959   9.406  10.910  12.331
98688SOL     OW97960   0.636   9.594   1.811
98688SOL    HW197961   0.645   9.499   1.816
98688SOL    HW297962   0.554   9.613   1.856
98689SOL     OW97963   7.333  10.421   6.140
98689SOL    HW197964   7.292  10.338   6.166
98689SOL    HW297965   7.361  10.406   6.050
98690SOL     OW97966  13.771   2.514   8.541
98690SOL    HW197967  13.753   2.561   8.622
98690SOL    HW297968  13.743   2.574   8.472
98691SOL     OW97969  12.703   1.057   4.974
98691SOL    HW197970  12.755   1.018   5.045
98691SOL    HW297971  12.671   1.139   5.011
98692SOL     OW97972   8.949   6.572   2.822
98692SOL    HW197973   8.975   6.481   2.835
98692SOL    HW297974   8.873   6.568   2.764
98693SOL     OW97975   1.982  11.570  13.396
98693SOL    HW197976   1.914  11.625  13.434
98693SOL    HW297977   1.952  11.551  13.307
98694SOL     OW97978  14.068  12.731   0.239
98694SOL    HW197979  13.987  12.699   0.197
98694SOL    HW297980  14.127  12.656   0.236
98695SOL     OW97981   2.521  14.837   2.064
98695SOL    HW197982   2.540  14.870   2.151
98695SOL    HW297983   2.503  14.744   2.077
98696SOL     OW97984  14.657   6.547  12.994
98696SOL    HW197985  14.640   6.628  13.042
98696SOL    HW297986  14.626   6.478  13.052
98697SOL     OW97987   0.778   7.416  11.566
98697SOL    HW197988   0.764   7.341  11.624
98697SOL    HW297989   0.696   7.466  11.570
98698SOL     OW97990   7.740  13.629   8.250
98698SOL    HW197991   7.802  13.558   8.268
98698SOL    HW297992   7.675  13.623   8.321
98699SOL     OW97993   1.492   9.105   8.091
98699SOL    HW197994   1.440   9.043   8.141
98699SOL    HW297995   1.482   9.188   8.137
98700SOL     OW97996  13.611   7.342   4.926
98700SOL    HW197997  13.631   7.323   4.834
98700SOL    HW297998  13.576   7.260   4.960
98701SOL     OW97999   4.118  12.658  10.827
98701SOL    HW198000   4.048  12.651  10.892
98701SOL    HW298001   4.194  12.689  10.876
98702SOL     OW98002   6.288   8.222  13.297
98702SOL    HW198003   6.281   8.227  13.201
98702SOL    HW298004   6.314   8.310  13.324
98703SOL     OW98005  11.151  11.696   1.636
98703SOL    HW198006  11.083  11.714   1.701
98703SOL    HW298007  11.233  11.718   1.681
98704SOL     OW98008   8.452   7.411  14.661
98704SOL    HW198009   8.412   7.494  14.687
98704SOL    HW298010   8.539   7.435  14.629
98705SOL     OW98011   8.375   3.349   4.274
98705SOL    HW198012   8.319   3.376   4.201
98705SOL    HW298013   8.395   3.431   4.319
98706SOL     OW98014  11.342  11.597  10.363
98706SOL    HW198015  11.329  11.662  10.294
98706SOL    HW298016  11.315  11.514  10.324
98707SOL     OW98017  14.038   1.865  13.762
98707SOL    HW198018  14.050   1.831  13.850
98707SOL    HW298019  13.984   1.800  13.717
98708SOL     OW98020  14.647   0.154  11.985
98708SOL    HW198021  14.643   0.141  11.890
98708SOL    HW298022  14.712   0.090  12.014
98709SOL     OW98023   1.978   2.421  10.550
98709SOL    HW198024   2.042   2.424  10.480
98709SOL    HW298025   2.030   2.425  10.630
98710SOL     OW98026   4.192   3.930  13.604
98710SOL    HW198027   4.132   4.003  13.593
98710SOL    HW298028   4.169   3.893  13.690
98711SOL     OW98029   6.923  14.174   8.754
98711SOL    HW198030   6.893  14.129   8.833
98711SOL    HW298031   7.008  14.136   8.735
98712SOL     OW98032   7.255   7.674  10.653
98712SOL    HW198033   7.322   7.708  10.713
98712SOL    HW298034   7.209   7.752  10.623
98713SOL     OW98035   9.535  12.677   4.014
98713SOL    HW198036   9.508  12.587   3.996
98713SOL    HW298037   9.488  12.730   3.949
98714SOL     OW98038   4.369   1.199   7.978
98714SOL    HW198039   4.434   1.176   7.913
98714SOL    HW298040   4.303   1.250   7.930
98715SOL     OW98041   4.833   4.381   8.171
98715SOL    HW198042   4.840   4.286   8.173
98715SOL    HW298043   4.757   4.400   8.226
98716SOL     OW98044   7.119   2.227  12.623
98716SOL    HW198045   7.058   2.288  12.581
98716SOL    HW298046   7.174   2.195  12.552
98717SOL     OW98047   9.642   5.474  12.174
98717SOL    HW198048   9.552   5.505  12.168
98717SOL    HW298049   9.691   5.549  12.209
98718SOL     OW98050   4.558   3.701   1.796
98718SOL    HW198051   4.579   3.723   1.887
98718SOL    HW298052   4.642   3.705   1.750
98719SOL     OW98053   3.498  13.231  14.637
98719SOL    HW198054   3.429  13.194  14.692
98719SOL    HW298055   3.574  13.176  14.655
98720SOL     OW98056   1.717   4.388   6.509
98720SOL    HW198057   1.794   4.412   6.458
98720SOL    HW298058   1.738   4.301   6.545
98721SOL     OW98059   5.974   2.954   4.088
98721SOL    HW198060   5.955   2.901   4.164
98721SOL    HW298061   6.040   3.017   4.118
98722SOL     OW98062   8.515  14.334   9.160
98722SOL    HW198063   8.524  14.311   9.068
98722SOL    HW298064   8.472  14.258   9.199
98723SOL     OW98065  13.800   4.921  10.904
98723SOL    HW198066  13.821   4.966  10.822
98723SOL    HW298067  13.706   4.903  10.897
98724SOL     OW98068  11.683  12.285   8.425
98724SOL    HW198069  11.775  12.308   8.443
98724SOL    HW298070  11.687  12.193   8.398
98725SOL     OW98071   1.942  11.496  12.941
98725SOL    HW198072   1.923  11.414  12.985
98725SOL    HW298073   1.856  11.533  12.921
98726SOL     OW98074  11.749   1.199  10.697
98726SOL    HW198075  11.828   1.246  10.671
98726SOL    HW298076  11.681   1.232  10.638
98727SOL     OW98077   5.371   3.409  12.153
98727SOL    HW198078   5.314   3.341  12.188
98727SOL    HW298079   5.313   3.483  12.136
98728SOL     OW98080   9.769   2.009   5.996
98728SOL    HW198081   9.854   1.972   5.972
98728SOL    HW298082   9.757   1.984   6.088
98729SOL     OW98083   8.114   0.976  13.107
98729SOL    HW198084   8.031   0.929  13.113
98729SOL    HW298085   8.091   1.061  13.071
98730SOL     OW98086   8.798   5.756  10.029
98730SOL    HW198087   8.775   5.782   9.940
98730SOL    HW298088   8.877   5.703  10.018
98731SOL     OW98089   2.025   3.921   1.238
98731SOL    HW198090   1.938   3.907   1.203
98731SOL    HW298091   2.027   3.869   1.319
98732SOL     OW98092  10.701   0.077   1.836
98732SOL    HW198093  10.711   0.085   1.931
98732SOL    HW298094  10.692  14.871   1.820
98733SOL     OW98095   2.786   6.101  13.076
98733SOL    HW198096   2.843   6.125  13.003
98733SOL    HW298097   2.774   6.183  13.124
98734SOL     OW98098   8.503   1.407   0.364
98734SOL    HW198099   8.416   1.379   0.393
98734SOL    HW298100   8.486   1.468   0.293
98735SOL     OW98101   9.948   8.052   8.849
98735SOL    HW198102   9.909   8.087   8.769
98735SOL    HW298103   9.883   8.070   8.917
98736SOL     OW98104   6.882   7.580   3.102
98736SOL    HW198105   6.948   7.634   3.057
98736SOL    HW298106   6.911   7.490   3.088
98737SOL     OW98107   2.144   9.544   2.482
98737SOL    HW198108   2.129   9.456   2.518
98737SOL    HW298109   2.237   9.561   2.497
98738SOL     OW98110   3.942  12.705   8.482
98738SOL    HW198111   3.977  12.742   8.563
98738SOL    HW298112   3.865  12.656   8.508
98739SOL     OW98113  11.088   1.281   6.454
98739SOL    HW198114  11.065   1.188   6.462
98739SOL    HW298115  11.093   1.312   6.545
98740SOL     OW98116  10.953   7.422   5.413
98740SOL    HW198117  10.938   7.331   5.439
98740SOL    HW298118  10.923   7.426   5.322
98741SOL     OW98119   0.812   4.596  10.021
98741SOL    HW198120   0.723   4.594   9.988
98741SOL    HW298121   0.859   4.531   9.968
98742SOL     OW98122   3.860  10.139   0.175
98742SOL    HW198123   3.821  10.062   0.216
98742SOL    HW298124   3.828  10.213   0.227
98743SOL     OW98125   5.752   3.184   0.721
98743SOL    HW198126   5.827   3.185   0.780
98743SOL    HW298127   5.692   3.248   0.758
98744SOL     OW98128  10.611   6.042   5.961
98744SOL    HW198129  10.662   5.964   5.978
98744SOL    HW298130  10.633   6.066   5.871
98745SOL     OW98131  10.350   0.628  10.200
98745SOL    HW198132  10.300   0.620  10.281
98745SOL    HW298133  10.299   0.687  10.146
98746SOL     OW98134   5.092   2.694   6.900
98746SOL    HW198135   5.062   2.614   6.943
98746SOL    HW298136   5.039   2.763   6.939
98747SOL     OW98137  11.771   3.142   4.287
98747SOL    HW198138  11.681   3.168   4.309
98747SOL    HW298139  11.768   3.046   4.286
98748SOL     OW98140   1.157  12.337   8.139
98748SOL    HW198141   1.212  12.400   8.093
98748SOL    HW298142   1.206  12.316   8.219
98749SOL     OW98143   7.034   3.690   5.076
98749SOL    HW198144   7.005   3.640   5.152
98749SOL    HW298145   6.959   3.691   5.018
98750SOL     OW98146   9.365   9.943  10.889
98750SOL    HW198147   9.355  10.038  10.898
98750SOL    HW298148   9.428   9.932  10.818
98751SOL     OW98149   8.495   2.864   2.728
98751SOL    HW198150   8.478   2.770   2.726
98751SOL    HW298151   8.527   2.881   2.816
98752SOL     OW98152   1.553   6.540  13.875
98752SOL    HW198153   1.634   6.493  13.891
98752SOL    HW298154   1.580   6.631  13.862
98753SOL     OW98155   6.267   7.112   5.170
98753SOL    HW198156   6.313   7.124   5.253
98753SOL    HW298157   6.254   7.202   5.137
98754SOL     OW98158  13.207   0.752   0.002
98754SOL    HW198159  13.256   0.826  14.853
98754SOL    HW298160  13.205   0.768   0.097
98755SOL     OW98161   0.387   8.044   4.261
98755SOL    HW198162   0.362   8.134   4.281
98755SOL    HW298163   0.483   8.046   4.257
98756SOL     OW98164   1.503   0.271   9.418
98756SOL    HW198165   1.597   0.285   9.404
98756SOL    HW298166   1.497   0.230   9.505
98757SOL     OW98167   5.169   8.810  13.262
98757SOL    HW198168   5.174   8.715  13.260
98757SOL    HW298169   5.179   8.833  13.355
98758SOL     OW98170   9.651  13.724  11.231
98758SOL    HW198171   9.700  13.693  11.155
98758SOL    HW298172   9.569  13.675  11.228
98759SOL     OW98173  11.365   0.150  10.267
98759SOL    HW198174  11.396   0.148  10.357
98759SOL    HW298175  11.435   0.109  10.216
98760SOL     OW98176   7.093  12.160   3.565
98760SOL    HW198177   7.088  12.105   3.644
98760SOL    HW298178   7.003  12.191   3.553
98761SOL     OW98179   1.237   5.750  10.483
98761SOL    HW198180   1.174   5.821  10.495
98761SOL    HW298181   1.183   5.672  10.470
98762SOL     OW98182  14.881   7.531  14.336
98762SOL    HW198183  14.812   7.469  14.360
98762SOL    HW298184   0.025   7.565  14.420
98763SOL     OW98185   3.095   8.504  12.913
98763SOL    HW198186   3.010   8.468  12.886
98763SOL    HW298187   3.144   8.512  12.831
98764SOL     OW98188   6.354   9.639  14.638
98764SOL    HW198189   6.325   9.632  14.547
98764SOL    HW298190   6.326   9.726  14.667
98765SOL     OW98191   8.510   8.477  11.593
98765SOL    HW198192   8.473   8.550  11.643
98765SOL    HW298193   8.479   8.399  11.638
98766SOL     OW98194   1.084  10.948   6.736
98766SOL    HW198195   1.036  10.970   6.655
98766SOL    HW298196   1.126  10.865   6.717
98767SOL     OW98197   4.898  11.752   0.640
98767SOL    HW198198   4.840  11.686   0.602
98767SOL    HW298199   4.968  11.762   0.575
98768SOL     OW98200   1.261   9.137   8.774
98768SOL    HW198201   1.190   9.074   8.788
98768SOL    HW298202   1.226   9.197   8.708
98769SOL     OW98203   9.180  14.416   5.501
98769SOL    HW198204   9.158  14.499   5.543
98769SOL    HW298205   9.152  14.349   5.563
98770SOL     OW98206   8.481   2.384  13.358
98770SOL    HW198207   8.392   2.418  13.371
98770SOL    HW298208   8.467   2.297  13.321
98771SOL     OW98209  14.050  13.070   8.185
98771SOL    HW198210  14.116  13.095   8.250
98771SOL    HW298211  14.075  12.981   8.159
98772SOL     OW98212  14.598   3.120   5.388
98772SOL    HW198213  14.513   3.113   5.344
98772SOL    HW298214  14.609   3.036   5.433
98773SOL     OW98215   5.721  13.983   6.015
98773SOL    HW198216   5.718  14.072   5.980
98773SOL    HW298217   5.694  13.993   6.106
98774SOL     OW98218   0.018   6.920   0.488
98774SOL    HW198219  14.872   6.995   0.537
98774SOL    HW298220   0.075   6.958   0.421
98775SOL     OW98221  13.928   5.150   3.670
98775SOL    HW198222  13.878   5.074   3.702
98775SOL    HW298223  13.937   5.136   3.576
98776SOL     OW98224   2.441   4.594   7.506
98776SOL    HW198225   2.439   4.687   7.530
98776SOL    HW298226   2.533   4.568   7.517
98777SOL     OW98227  12.915  11.287  10.812
98777SOL    HW198228  12.941  11.219  10.874
98777SOL    HW298229  12.880  11.239  10.736
98778SOL     OW98230  11.534   0.927  12.254
98778SOL    HW198231  11.536   0.858  12.187
98778SOL    HW298232  11.471   0.991  12.220
98779SOL     OW98233   0.044   1.000   9.037
98779SOL    HW198234  14.868   1.028   9.103
98779SOL    HW298235   0.109   1.071   9.034
98780SOL     OW98236   7.804   3.278   1.885
98780SOL    HW198237   7.722   3.277   1.935
98780SOL    HW298238   7.778   3.308   1.797
98781SOL     OW98239   2.734  11.938   5.922
98781SOL    HW198240   2.770  12.026   5.938
98781SOL    HW298241   2.790  11.879   5.971
98782SOL     OW98242   9.507  13.912   3.303
98782SOL    HW198243   9.484  13.820   3.285
98782SOL    HW298244   9.484  13.958   3.223
98783SOL     OW98245   3.170   8.353   3.854
98783SOL    HW198246   3.181   8.321   3.943
98783SOL    HW298247   3.242   8.415   3.841
98784SOL     OW98248  10.712   9.354   4.284
98784SOL    HW198249  10.707   9.420   4.353
98784SOL    HW298250  10.693   9.271   4.329
98785SOL     OW98251   4.554   8.432   2.872
98785SOL    HW198252   4.553   8.338   2.851
98785SOL    HW298253   4.462   8.458   2.871
98786SOL     OW98254   2.750  14.541  13.009
98786SOL    HW198255   2.827  14.596  12.994
98786SOL    HW298256   2.784  14.451  13.010
98787SOL     OW98257   2.353   3.893   3.823
98787SOL    HW198258   2.325   3.836   3.751
98787SOL    HW298259   2.397   3.834   3.884
98788SOL     OW98260  10.759   7.881   6.602
98788SOL    HW198261  10.752   7.917   6.514
98788SOL    HW298262  10.737   7.955   6.659
98789SOL     OW98263   8.145  14.204   4.418
98789SOL    HW198264   8.158  14.257   4.338
98789SOL    HW298265   8.193  14.123   4.401
98790SOL     OW98266  13.161  13.349   6.799
98790SOL    HW198267  13.227  13.306   6.745
98790SOL    HW298268  13.080  13.342   6.748
98791SOL     OW98269  11.513  10.488  11.100
98791SOL    HW198270  11.488  10.449  11.016
98791SOL    HW298271  11.583  10.432  11.133
98792SOL     OW98272   2.571  12.300   5.896
98792SOL    HW198273   2.571  12.236   5.967
98792SOL    HW298274   2.528  12.256   5.823
98793SOL     OW98275   2.375   5.780   6.049
98793SOL    HW198276   2.464   5.783   6.014
98793SOL    HW298277   2.385   5.744   6.137
98794SOL     OW98278  13.516   8.543  12.270
98794SOL    HW198279  13.597   8.561  12.223
98794SOL    HW298280  13.447   8.567  12.208
98795SOL     OW98281  10.965   2.028  11.919
98795SOL    HW198282  10.977   2.068  12.006
98795SOL    HW298283  10.908   1.953  11.935
98796SOL     OW98284   7.463  14.306  14.519
98796SOL    HW198285   7.420  14.390  14.504
98796SOL    HW298286   7.500  14.282  14.434
98797SOL     OW98287  14.260   4.296   1.217
98797SOL    HW198288  14.212   4.299   1.300
98797SOL    HW298289  14.196   4.260   1.154
98798SOL     OW98290   1.631   6.251  14.577
98798SOL    HW198291   1.620   6.163  14.614
98798SOL    HW298292   1.689   6.296  14.639
98799SOL     OW98293   5.972   7.596  13.969
98799SOL    HW198294   6.044   7.535  13.948
98799SOL    HW298295   5.928   7.556  14.044
98800SOL     OW98296   5.997  13.203  12.774
98800SOL    HW198297   5.988  13.259  12.851
98800SOL    HW298298   6.049  13.256  12.713
98801SOL     OW98299   7.867   8.035   2.228
98801SOL    HW198300   7.861   8.025   2.323
98801SOL    HW298301   7.778   8.057   2.201
98802SOL     OW98302  10.154   7.062   0.741
98802SOL    HW198303  10.099   7.041   0.817
98802SOL    HW298304  10.192   6.978   0.716
98803SOL     OW98305   7.713   3.007   8.873
98803SOL    HW198306   7.622   2.991   8.899
98803SOL    HW298307   7.721   3.102   8.872
98804SOL     OW98308   8.954  12.151   6.534
98804SOL    HW198309   9.002  12.133   6.454
98804SOL    HW298310   9.011  12.210   6.584
98805SOL     OW98311   8.291   3.501   0.285
98805SOL    HW198312   8.350   3.569   0.255
98805SOL    HW298313   8.209   3.517   0.238
98806SOL     OW98314  11.392   4.727   0.586
98806SOL    HW198315  11.311   4.692   0.623
98806SOL    HW298316  11.462   4.679   0.630
98807SOL     OW98317  14.220   1.197   9.520
98807SOL    HW198318  14.183   1.206   9.432
98807SOL    HW298319  14.168   1.127   9.560
98808SOL     OW98320   7.312   4.990   2.667
98808SOL    HW198321   7.253   5.065   2.666
98808SOL    HW298322   7.266   4.922   2.619
98809SOL     OW98323   7.963   1.917   7.909
98809SOL    HW198324   7.999   1.881   7.828
98809SOL    HW298325   7.888   1.969   7.881
98810SOL     OW98326  11.736   8.998   7.446
98810SOL    HW198327  11.815   8.949   7.424
98810SOL    HW298328  11.665   8.934   7.440
98811SOL     OW98329   5.975   2.158   6.857
98811SOL    HW198330   6.031   2.106   6.799
98811SOL    HW298331   5.888   2.119   6.848
98812SOL     OW98332  11.911   2.150  11.923
98812SOL    HW198333  11.866   2.068  11.942
98812SOL    HW298334  11.870   2.182  11.843
98813SOL     OW98335   4.404   4.758  12.411
98813SOL    HW198336   4.381   4.845  12.376
98813SOL    HW298337   4.351   4.697  12.360
98814SOL     OW98338  11.771   9.344   1.443
98814SOL    HW198339  11.856   9.318   1.407
98814SOL    HW298340  11.726   9.387   1.371
98815SOL     OW98341   6.705   1.806   8.781
98815SOL    HW198342   6.619   1.767   8.766
98815SOL    HW298343   6.725   1.853   8.700
98816SOL     OW98344   0.753  10.197   7.666
98816SOL    HW198345   0.761  10.110   7.626
98816SOL    HW298346   0.824  10.199   7.731
98817SOL     OW98347   0.030   7.504   1.024
98817SOL    HW198348  14.832   7.484   1.062
98817SOL    HW298349   0.037   7.444   0.949
98818SOL     OW98350   4.305   2.503   2.357
98818SOL    HW198351   4.216   2.467   2.345
98818SOL    HW298352   4.322   2.493   2.451
98819SOL     OW98353   2.526   4.348   7.897
98819SOL    HW198354   2.433   4.344   7.920
98819SOL    HW298355   2.528   4.328   7.803
98820SOL     OW98356  13.525  11.808  13.206
98820SOL    HW198357  13.570  11.856  13.276
98820SOL    HW298358  13.518  11.719  13.240
98821SOL     OW98359   7.719   3.290   9.947
98821SOL    HW198360   7.699   3.252  10.032
98821SOL    HW298361   7.678   3.376   9.949
98822SOL     OW98362   1.068  13.111   4.247
98822SOL    HW198363   1.109  13.167   4.181
98822SOL    HW298364   1.073  13.023   4.210
98823SOL     OW98365   4.670   1.631   9.097
98823SOL    HW198366   4.648   1.588   9.180
98823SOL    HW298367   4.748   1.584   9.066
98824SOL     OW98368   8.289   0.342  14.288
98824SOL    HW198369   8.234   0.313  14.215
98824SOL    HW298370   8.251   0.425  14.315
98825SOL     OW98371   5.874   8.836  12.618
98825SOL    HW198372   5.784   8.842  12.587
98825SOL    HW298373   5.927   8.839  12.538
98826SOL     OW98374   1.574   6.987  14.654
98826SOL    HW198375   1.590   6.900  14.689
98826SOL    HW298376   1.493   7.016  14.697
98827SOL     OW98377   7.834  13.818   1.495
98827SOL    HW198378   7.828  13.764   1.574
98827SOL    HW298379   7.837  13.908   1.529
98828SOL     OW98380   7.395  11.412   7.673
98828SOL    HW198381   7.424  11.456   7.593
98828SOL    HW298382   7.384  11.320   7.647
98829SOL     OW98383   5.607   9.198  11.646
98829SOL    HW198384   5.582   9.115  11.687
98829SOL    HW298385   5.703   9.198  11.648
98830SOL     OW98386   6.945   5.052   7.227
98830SOL    HW198387   6.973   5.141   7.250
98830SOL    HW298388   6.989   4.996   7.291
98831SOL     OW98389  11.011   2.180   0.837
98831SOL    HW198390  10.922   2.200   0.863
98831SOL    HW298391  11.027   2.235   0.760
98832SOL     OW98392   5.731   3.472   0.097
98832SOL    HW198393   5.783   3.396   0.069
98832SOL    HW298394   5.782   3.510   0.169
98833SOL     OW98395   7.301  14.706   0.145
98833SOL    HW198396   7.305  14.792   0.189
98833SOL    HW298397   7.382  14.662   0.173
98834SOL     OW98398   5.697   4.891  12.876
98834SOL    HW198399   5.603   4.899  12.861
98834SOL    HW298400   5.708   4.911  12.969
98835SOL     OW98401   4.095  13.383   2.842
98835SOL    HW198402   4.008  13.392   2.881
98835SOL    HW298403   4.155  13.396   2.915
98836SOL     OW98404   5.089   2.377   6.589
98836SOL    HW198405   5.077   2.441   6.518
98836SOL    HW298406   5.011   2.389   6.644
98837SOL     OW98407  13.543  10.909   1.227
98837SOL    HW198408  13.460  10.863   1.232
98837SOL    HW298409  13.589  10.869   1.153
98838SOL     OW98410  10.934  11.813  11.894
98838SOL    HW198411  10.871  11.827  11.823
98838SOL    HW298412  10.886  11.835  11.974
98839SOL     OW98413   1.391   8.007   0.540
98839SOL    HW198414   1.458   7.965   0.485
98839SOL    HW298415   1.324   8.035   0.478
98840SOL     OW98416  14.563   7.062  14.560
98840SOL    HW198417  14.606   7.083  14.477
98840SOL    HW298418  14.495   7.128  14.570
98841SOL     OW98419   8.386   9.014   1.606
98841SOL    HW198420   8.409   8.950   1.673
98841SOL    HW298421   8.328   8.965   1.547
98842SOL     OW98422   9.494   6.665  12.034
98842SOL    HW198423   9.569   6.622  12.074
98842SOL    HW298424   9.418   6.626  12.076
98843SOL     OW98425   4.523  14.210   2.523
98843SOL    HW198426   4.429  14.207   2.506
98843SOL    HW298427   4.537  14.149   2.595
98844SOL     OW98428   4.171   0.490   7.764
98844SOL    HW198429   4.213   0.509   7.848
98844SOL    HW298430   4.241   0.452   7.710
98845SOL     OW98431   1.298   9.614   3.446
98845SOL    HW198432   1.384   9.655   3.462
98845SOL    HW298433   1.238   9.661   3.504
98846SOL     OW98434   1.021   3.744   7.171
98846SOL    HW198435   0.986   3.829   7.146
98846SOL    HW298436   1.084   3.763   7.240
98847SOL     OW98437  14.864   4.692   9.917
98847SOL    HW198438   0.024   4.773   9.937
98847SOL    HW298439   0.028   4.623   9.959
98848SOL     OW98440  13.650   1.636   0.976
98848SOL    HW198441  13.650   1.706   1.041
98848SOL    HW298442  13.567   1.591   0.989
98849SOL     OW98443   9.467   0.531   0.911
98849SOL    HW198444   9.456   0.548   1.004
98849SOL    HW298445   9.411   0.596   0.868
98850SOL     OW98446  12.133   1.817  10.816
98850SOL    HW198447  12.076   1.764  10.872
98850SOL    HW298448  12.073   1.876  10.770
98851SOL     OW98449   5.503  11.854   7.398
98851SOL    HW198450   5.525  11.920   7.333
98851SOL    HW298451   5.439  11.798   7.355
98852SOL     OW98452  13.688   5.676  14.243
98852SOL    HW198453  13.767   5.629  14.214
98852SOL    HW298454  13.617   5.614  14.228
98853SOL     OW98455   8.461  10.329   8.176
98853SOL    HW198456   8.377  10.315   8.221
98853SOL    HW298457   8.448  10.410   8.127
98854SOL     OW98458   1.643   6.043   0.165
98854SOL    HW198459   1.636   5.964   0.218
98854SOL    HW298460   1.664   6.112   0.229
98855SOL     OW98461   3.907   9.176  12.384
98855SOL    HW198462   3.953   9.145  12.306
98855SOL    HW298463   3.934   9.116  12.453
98856SOL     OW98464   0.536  10.492   1.372
98856SOL    HW198465   0.556  10.399   1.371
98856SOL    HW298466   0.514  10.513   1.281
98857SOL     OW98467   1.692   2.252  14.213
98857SOL    HW198468   1.672   2.323  14.274
98857SOL    HW298469   1.757   2.291  14.153
98858SOL     OW98470  10.181  14.837   2.247
98858SOL    HW198471  10.226   0.027   2.279
98858SOL    HW298472  10.192  14.842   2.151
98859SOL     OW98473  11.153   8.801   4.829
98859SOL    HW198474  11.107   8.731   4.783
98859SOL    HW298475  11.133   8.787   4.921
98860SOL     OW98476   3.195   5.194  12.598
98860SOL    HW198477   3.124   5.216  12.539
98860SOL    HW298478   3.172   5.109  12.634
98861SOL     OW98479   9.076  11.989   7.726
98861SOL    HW198480   9.002  11.968   7.783
98861SOL    HW298481   9.042  11.978   7.637
98862SOL     OW98482   7.851  12.676  13.571
98862SOL    HW198483   7.843  12.600  13.514
98862SOL    HW298484   7.860  12.638  13.659
98863SOL     OW98485  13.882   0.785  10.919
98863SOL    HW198486  13.878   0.709  10.977
98863SOL    HW298487  13.929   0.852  10.970
98864SOL     OW98488   9.853  12.654   8.118
98864SOL    HW198489   9.910  12.712   8.169
98864SOL    HW298490   9.863  12.685   8.028
98865SOL     OW98491  12.989   5.142   7.860
98865SOL    HW198492  12.941   5.060   7.868
98865SOL    HW298493  12.930   5.200   7.811
98866SOL     OW98494   8.689   5.743   3.033
98866SOL    HW198495   8.693   5.790   3.117
98866SOL    HW298496   8.598   5.712   3.028
98867SOL     OW98497   5.476   3.502  10.957
98867SOL    HW198498   5.569   3.522  10.954
98867SOL    HW298499   5.444   3.517  10.868
98868SOL     OW98500  12.862   7.686   9.815
98868SOL    HW198501  12.903   7.749   9.756
98868SOL    HW298502  12.819   7.622   9.757
98869SOL     OW98503  10.227   7.161   2.503
98869SOL    HW198504  10.166   7.214   2.553
98869SOL    HW298505  10.219   7.193   2.413
98870SOL     OW98506   6.974   1.287  10.551
98870SOL    HW198507   6.902   1.279  10.614
98870SOL    HW298508   7.011   1.374  10.568
98871SOL     OW98509  10.730   5.724   4.562
98871SOL    HW198510  10.797   5.790   4.580
98871SOL    HW298511  10.666   5.770   4.508
98872SOL     OW98512   6.799   1.066   8.005
98872SOL    HW198513   6.809   0.993   8.066
98872SOL    HW298514   6.886   1.078   7.967
98873SOL     OW98515  11.088   1.838   7.034
98873SOL    HW198516  11.106   1.765   6.975
98873SOL    HW298517  11.014   1.884   6.995
98874SOL     OW98518   4.572   3.420   1.437
98874SOL    HW198519   4.599   3.339   1.393
98874SOL    HW298520   4.634   3.432   1.508
98875SOL     OW98521   5.316  14.289  14.083
98875SOL    HW198522   5.254  14.361  14.084
98875SOL    HW298523   5.399  14.328  14.109
98876SOL     OW98524   5.226   1.053   3.744
98876SOL    HW198525   5.167   1.127   3.756
98876SOL    HW298526   5.176   0.991   3.691
98877SOL     OW98527   6.707   4.196  10.831
98877SOL    HW198528   6.767   4.192  10.756
98877SOL    HW298529   6.634   4.250  10.801
98878SOL     OW98530   3.162  14.804   1.465
98878SOL    HW198531   3.248  14.845   1.454
98878SOL    HW298532   3.178  14.732   1.527
98879SOL     OW98533   9.637   1.187  14.407
98879SOL    HW198534   9.727   1.215  14.396
98879SOL    HW298535   9.607   1.164  14.319
98880SOL     OW98536  12.004  12.050   1.703
98880SOL    HW198537  11.922  12.095   1.682
98880SOL    HW298538  12.012  11.981   1.637
98881SOL     OW98539   4.431   7.162   7.462
98881SOL    HW198540   4.459   7.156   7.554
98881SOL    HW298541   4.405   7.253   7.451
98882SOL     OW98542   4.712   4.347   7.250
98882SOL    HW198543   4.635   4.382   7.295
98882SOL    HW298544   4.717   4.256   7.277
98883SOL     OW98545   8.712   4.544   7.882
98883SOL    HW198546   8.804   4.554   7.908
98883SOL    HW298547   8.673   4.492   7.952
98884SOL     OW98548   5.930   8.643  12.925
98884SOL    HW198549   5.888   8.727  12.905
98884SOL    HW298550   5.875   8.578  12.883
98885SOL     OW98551   3.912  13.285  13.691
98885SOL    HW198552   3.997  13.240  13.699
98885SOL    HW298553   3.856  13.222  13.647
98886SOL     OW98554  13.943  12.895   0.474
98886SOL    HW198555  13.955  12.952   0.397
98886SOL    HW298556  13.855  12.916   0.505
98887SOL     OW98557  10.133  12.515   5.698
98887SOL    HW198558  10.222  12.551   5.707
98887SOL    HW298559  10.091  12.534   5.782
98888SOL     OW98560   8.378   2.940  12.416
98888SOL    HW198561   8.389   3.014  12.357
98888SOL    HW298562   8.453   2.883  12.397
98889SOL     OW98563   3.753   0.340   6.228
98889SOL    HW198564   3.665   0.302   6.226
98889SOL    HW298565   3.787   0.326   6.140
98890SOL     OW98566  11.563  11.273   3.982
98890SOL    HW198567  11.490  11.211   3.986
98890SOL    HW298568  11.534  11.347   4.036
98891SOL     OW98569  10.822   2.531   7.347
98891SOL    HW198570  10.739   2.486   7.362
98891SOL    HW298571  10.840   2.517   7.254
98892SOL     OW98572  12.344   6.559  13.302
98892SOL    HW198573  12.436   6.560  13.329
98892SOL    HW298574  12.312   6.647  13.322
98893SOL     OW98575  14.524   2.124  13.749
98893SOL    HW198576  14.489   2.213  13.736
98893SOL    HW298577  14.595   2.117  13.686
98894SOL     OW98578   1.945  12.346   2.674
98894SOL    HW198579   1.884  12.395   2.730
98894SOL    HW298580   2.028  12.349   2.722
98895SOL     OW98581   4.038  11.979   3.921
98895SOL    HW198582   4.130  11.987   3.945
98895SOL    HW298583   4.037  11.971   3.826
98896SOL     OW98584   1.259  11.650   4.710
98896SOL    HW198585   1.261  11.712   4.783
98896SOL    HW298586   1.333  11.591   4.726
98897SOL     OW98587   6.617   3.220   8.954
98897SOL    HW198588   6.613   3.128   8.978
98897SOL    HW298589   6.533   3.256   8.983
98898SOL     OW98590   4.663   9.584  14.485
98898SOL    HW198591   4.601   9.521  14.522
98898SOL    HW298592   4.732   9.529  14.447
98899SOL     OW98593  14.552   6.104  13.219
98899SOL    HW198594  14.498   6.109  13.299
98899SOL    HW298595  14.640   6.129  13.249
98900SOL     OW98596   8.120   8.986   9.484
98900SOL    HW198597   8.138   8.959   9.394
98900SOL    HW298598   8.204   8.978   9.529
98901SOL     OW98599   7.987   4.361  10.161
98901SOL    HW198600   7.909   4.322  10.201
98901SOL    HW298601   7.953   4.411  10.087
98902SOL     OW98602   4.739   2.486   2.809
98902SOL    HW198603   4.663   2.458   2.860
98902SOL    HW298604   4.808   2.423   2.832
98903SOL     OW98605   4.619   7.068   4.661
98903SOL    HW198606   4.648   7.090   4.573
98903SOL    HW298607   4.694   7.021   4.699
98904SOL     OW98608  11.592   3.128   3.267
98904SOL    HW198609  11.567   3.036   3.280
98904SOL    HW298610  11.510   3.176   3.279
98905SOL     OW98611  13.002  12.257  12.033
98905SOL    HW198612  13.060  12.207  12.090
98905SOL    HW298613  13.056  12.277  11.956
98906SOL     OW98614  14.820   2.024   2.352
98906SOL    HW198615  14.747   1.976   2.313
98906SOL    HW298616  14.880   1.956   2.384
98907SOL     OW98617   7.729   5.712   6.127
98907SOL    HW198618   7.706   5.684   6.039
98907SOL    HW298619   7.690   5.646   6.184
98908SOL     OW98620   8.091   3.298   6.773
98908SOL    HW198621   8.179   3.294   6.736
98908SOL    HW298622   8.036   3.255   6.707
98909SOL     OW98623   9.509   0.706   8.160
98909SOL    HW198624   9.425   0.666   8.136
98909SOL    HW298625   9.537   0.660   8.239
98910SOL     OW98626  14.613  11.389   6.640
98910SOL    HW198627  14.693  11.370   6.689
98910SOL    HW298628  14.571  11.459   6.689
98911SOL     OW98629   9.113   8.469   4.263
98911SOL    HW198630   9.164   8.500   4.188
98911SOL    HW298631   9.159   8.505   4.339
98912SOL     OW98632   4.444  11.953   0.373
98912SOL    HW198633   4.473  11.880   0.428
98912SOL    HW298634   4.451  12.030   0.430
98913SOL     OW98635  11.009   3.071   5.873
98913SOL    HW198636  11.093   3.042   5.909
98913SOL    HW298637  10.990   3.008   5.803
98914SOL     OW98638   1.611  12.586  14.200
98914SOL    HW198639   1.636  12.509  14.150
98914SOL    HW298640   1.670  12.587  14.276
98915SOL     OW98641   9.700  11.012  11.378
98915SOL    HW198642   9.671  10.929  11.340
98915SOL    HW298643   9.723  10.990  11.468
98916SOL     OW98644  10.209   1.997   6.144
98916SOL    HW198645  10.151   2.026   6.215
98916SOL    HW298646  10.287   2.051   6.153
98917SOL     OW98647   9.212   3.004  12.978
98917SOL    HW198648   9.223   3.005  12.883
98917SOL    HW298649   9.265   3.077  13.009
98918SOL     OW98650  13.433   4.816   6.428
98918SOL    HW198651  13.359   4.782   6.479
98918SOL    HW298652  13.422   4.776   6.342
98919SOL     OW98653  14.363   7.423  12.857
98919SOL    HW198654  14.299   7.403  12.925
98919SOL    HW298655  14.311   7.447  12.781
98920SOL     OW98656   1.153  11.572  14.842
98920SOL    HW198657   1.136  11.524  14.761
98920SOL    HW298658   1.072  11.565   0.004
98921SOL     OW98659   8.731   6.475   6.857
98921SOL    HW198660   8.761   6.420   6.784
98921SOL    HW298661   8.703   6.556   6.816
98922SOL     OW98662   8.310   8.346   9.476
98922SOL    HW198663   8.223   8.378   9.500
98922SOL    HW298664   8.365   8.366   9.552
98923SOL     OW98665   0.308   1.682   4.222
98923SOL    HW198666   0.332   1.589   4.220
98923SOL    HW298667   0.390   1.729   4.207
98924SOL     OW98668  11.272   4.870   4.465
98924SOL    HW198669  11.363   4.892   4.448
98924SOL    HW298670  11.248   4.812   4.393
98925SOL     OW98671   6.460   8.806  12.526
98925SOL    HW198672   6.482   8.892  12.490
98925SOL    HW298673   6.540   8.754  12.515
98926SOL     OW98674   6.782   9.551   8.319
98926SOL    HW198675   6.850   9.546   8.252
98926SOL    HW298676   6.824   9.522   8.400
98927SOL     OW98677  11.847  14.326  14.140
98927SOL    HW198678  11.887  14.412  14.151
98927SOL    HW298679  11.763  14.344  14.096
98928SOL     OW98680   5.211   6.382   0.003
98928SOL    HW198681   5.142   6.375   0.070
98928SOL    HW298682   5.191   6.463  14.845
98929SOL     OW98683  11.822   1.672   5.145
98929SOL    HW198684  11.908   1.655   5.105
98929SOL    HW298685  11.826   1.628   5.230
98930SOL     OW98686   0.792   9.942   2.237
98930SOL    HW198687   0.860   9.958   2.302
98930SOL    HW298688   0.716   9.989   2.270
98931SOL     OW98689   5.263  11.208  11.716
98931SOL    HW198690   5.234  11.139  11.775
98931SOL    HW298691   5.194  11.213  11.649
98932SOL     OW98692   6.418   4.919   6.838
98932SOL    HW198693   6.325   4.929   6.856
98932SOL    HW298694   6.455   4.885   6.919
98933SOL     OW98695  13.498  12.215   2.321
98933SOL    HW198696  13.420  12.161   2.336
98933SOL    HW298697  13.492  12.240   2.229
98934SOL     OW98698   5.200   9.577   7.082
98934SOL    HW198699   5.209   9.668   7.108
98934SOL    HW298700   5.162   9.533   7.158
98935SOL     OW98701   6.215  10.682   1.485
98935SOL    HW198702   6.301  10.680   1.443
98935SOL    HW298703   6.223  10.623   1.560
98936SOL     OW98704  10.695  13.518   4.687
98936SOL    HW198705  10.638  13.503   4.612
98936SOL    HW298706  10.716  13.430   4.719
98937SOL     OW98707   4.277   1.948   4.711
98937SOL    HW198708   4.258   2.035   4.676
98937SOL    HW298709   4.335   1.964   4.786
98938SOL     OW98710   1.273   1.371   6.325
98938SOL    HW198711   1.310   1.315   6.394
98938SOL    HW298712   1.349   1.396   6.272
98939SOL     OW98713   4.617   8.920   7.415
98939SOL    HW198714   4.541   8.973   7.441
98939SOL    HW298715   4.587   8.830   7.426
98940SOL     OW98716   9.244   9.631  13.897
98940SOL    HW198717   9.180   9.668  13.958
98940SOL    HW298718   9.238   9.537  13.909
98941SOL     OW98719  13.157  10.080  13.008
98941SOL    HW198720  13.117  10.001  12.971
98941SOL    HW298721  13.099  10.151  12.983
98942SOL     OW98722   5.683   7.651   3.078
98942SOL    HW198723   5.698   7.645   3.172
98942SOL    HW298724   5.621   7.724   3.068
98943SOL     OW98725   2.675  12.759   1.553
98943SOL    HW198726   2.581  12.764   1.570
98943SOL    HW298727   2.685  12.691   1.487
98944SOL     OW98728   6.630  11.215   4.482
98944SOL    HW198729   6.701  11.234   4.544
98944SOL    HW298730   6.559  11.182   4.537
98945SOL     OW98731   5.041  10.461  12.364
98945SOL    HW198732   5.121  10.434  12.410
98945SOL    HW298733   4.999  10.523  12.424
98946SOL     OW98734   9.842  13.711   8.665
98946SOL    HW198735   9.801  13.671   8.742
98946SOL    HW298736   9.935  13.691   8.675
98947SOL     OW98737   1.797   6.461   1.571
98947SOL    HW198738   1.801   6.372   1.606
98947SOL    HW298739   1.739   6.455   1.495
98948SOL     OW98740   7.857   5.952   3.277
98948SOL    HW198741   7.890   5.862   3.277
98948SOL    HW298742   7.783   5.951   3.216
98949SOL     OW98743   0.359  13.598   8.737
98949SOL    HW198744   0.364  13.527   8.674
98949SOL    HW298745   0.378  13.557   8.822
98950SOL     OW98746  14.885   5.592   5.193
98950SOL    HW198747   0.035   5.643   5.122
98950SOL    HW298748  14.793   5.620   5.197
98951SOL     OW98749   6.770   5.398   4.001
98951SOL    HW198750   6.745   5.388   4.093
98951SOL    HW298751   6.687   5.420   3.957
98952SOL     OW98752  14.607  13.917  11.482
98952SOL    HW198753  14.563  13.889  11.401
98952SOL    HW298754  14.682  13.968  11.451
98953SOL     OW98755   1.634  11.745   7.698
98953SOL    HW198756   1.659  11.739   7.606
98953SOL    HW298757   1.696  11.808   7.736
98954SOL     OW98758   8.543   6.135   9.898
98954SOL    HW198759   8.637   6.153   9.903
98954SOL    HW298760   8.501   6.219   9.914
98955SOL     OW98761   4.790   0.627  14.147
98955SOL    HW198762   4.880   0.640  14.120
98955SOL    HW298763   4.747   0.710  14.125
98956SOL     OW98764   5.876   7.560   1.474
98956SOL    HW198765   5.852   7.574   1.565
98956SOL    HW298766   5.800   7.517   1.435
98957SOL     OW98767   9.887   6.699  12.924
98957SOL    HW198768   9.887   6.747  13.007
98957SOL    HW298769   9.902   6.765  12.857
98958SOL     OW98770   7.469   5.560  11.502
98958SOL    HW198771   7.407   5.522  11.565
98958SOL    HW298772   7.444   5.521  11.418
98959SOL     OW98773  12.501   1.800   0.154
98959SOL    HW198774  12.436   1.867   0.177
98959SOL    HW298775  12.575   1.849   0.120
98960SOL     OW98776   8.839  14.172   6.286
98960SOL    HW198777   8.756  14.124   6.288
98960SOL    HW298778   8.851  14.196   6.194
98961SOL     OW98779   8.819   1.574  13.350
98961SOL    HW198780   8.890   1.597  13.410
98961SOL    HW298781   8.863   1.536  13.274
98962SOL     OW98782   4.750  12.443   6.751
98962SOL    HW198783   4.656  12.447   6.770
98962SOL    HW298784   4.770  12.349   6.747
98963SOL     OW98785  13.264   0.512   1.360
98963SOL    HW198786  13.306   0.428   1.380
98963SOL    HW298787  13.201   0.491   1.291
98964SOL     OW98788  13.055  13.114   6.399
98964SOL    HW198789  13.051  13.178   6.329
98964SOL    HW298790  13.059  13.029   6.354
98965SOL     OW98791   5.799   3.547   5.191
98965SOL    HW198792   5.801   3.632   5.147
98965SOL    HW298793   5.716   3.546   5.238
98966SOL     OW98794  12.924   2.605   1.911
98966SOL    HW198795  12.881   2.666   1.850
98966SOL    HW298796  13.008   2.586   1.870
98967SOL     OW98797   6.150  14.657   7.469
98967SOL    HW198798   6.136  14.637   7.377
98967SOL    HW298799   6.078  14.613   7.515
98968SOL     OW98800   9.967   7.137   8.144
98968SOL    HW198801   9.929   7.141   8.231
98968SOL    HW298802  10.060   7.117   8.159
98969SOL     OW98803   2.353   1.617   9.855
98969SOL    HW198804   2.360   1.663   9.771
98969SOL    HW298805   2.438   1.632   9.898
98970SOL     OW98806   7.402  12.344   6.005
98970SOL    HW198807   7.394  12.289   5.927
98970SOL    HW298808   7.495  12.338   6.029
98971SOL     OW98809   5.088   7.098  11.415
98971SOL    HW198810   5.058   7.059  11.497
98971SOL    HW298811   5.088   7.025  11.353
98972SOL     OW98812   6.688   0.942   1.181
98972SOL    HW198813   6.649   0.857   1.160
98972SOL    HW298814   6.739   0.925   1.261
98973SOL     OW98815   2.605   0.539  14.419
98973SOL    HW198816   2.526   0.510  14.465
98973SOL    HW298817   2.645   0.458  14.386
98974SOL     OW98818   6.561   2.652   3.584
98974SOL    HW198819   6.534   2.648   3.676
98974SOL    HW298820   6.497   2.711   3.543
98975SOL     OW98821   4.916   4.852  11.929
98975SOL    HW198822   4.924   4.859  12.024
98975SOL    HW298823   4.957   4.769  11.907
98976SOL     OW98824  12.015  11.142   4.719
98976SOL    HW198825  11.965  11.165   4.641
98976SOL    HW298826  12.050  11.225   4.750
98977SOL     OW98827   2.224  13.604   4.266
98977SOL    HW198828   2.251  13.524   4.219
98977SOL    HW298829   2.129  13.596   4.274
98978SOL     OW98830  14.719   6.044   6.834
98978SOL    HW198831  14.712   6.110   6.902
98978SOL    HW298832  14.734   5.962   6.881
98979SOL     OW98833  14.427   6.794   2.361
98979SOL    HW198834  14.479   6.783   2.281
98979SOL    HW298835  14.447   6.883   2.390
98980SOL     OW98836   0.796   6.869  11.462
98980SOL    HW198837   0.721   6.812  11.477
98980SOL    HW298838   0.767   6.930  11.395
98981SOL     OW98839   1.850  12.089  12.200
98981SOL    HW198840   1.763  12.118  12.172
98981SOL    HW298841   1.850  12.101  12.295
98982SOL     OW98842   4.285   0.913  10.017
98982SOL    HW198843   4.191   0.923  10.031
98982SOL    HW298844   4.295   0.823   9.985
98983SOL     OW98845   1.090   0.256  10.573
98983SOL    HW198846   1.036   0.282  10.498
98983SOL    HW298847   1.072   0.162  10.583
98984SOL     OW98848  10.527   4.075  10.774
98984SOL    HW198849  10.601   4.129  10.745
98984SOL    HW298850  10.552   3.986  10.752
98985SOL     OW98851   8.663   2.335  11.722
98985SOL    HW198852   8.596   2.271  11.745
98985SOL    HW298853   8.719   2.341  11.799
98986SOL     OW98854   6.674   4.385   7.061
98986SOL    HW198855   6.620   4.437   7.119
98986SOL    HW298856   6.611   4.336   7.007
98987SOL     OW98857   3.816   9.516  14.042
98987SOL    HW198858   3.726   9.546  14.026
98987SOL    HW298859   3.811   9.421  14.032
98988SOL     OW98860   0.594   1.834   7.432
98988SOL    HW198861   0.676   1.841   7.382
98988SOL    HW298862   0.528   1.872   7.374
98989SOL     OW98863   4.146  13.474  11.351
98989SOL    HW198864   4.142  13.563  11.314
98989SOL    HW298865   4.074  13.471  11.414
98990SOL     OW98866   9.291   1.308   0.259
98990SOL    HW198867   9.300   1.229   0.205
98990SOL    HW298868   9.369   1.360   0.239
98991SOL     OW98869   7.126  12.271  13.498
98991SOL    HW198870   7.035  12.261  13.469
98991SOL    HW298871   7.174  12.294  13.419
98992SOL     OW98872   0.934   7.625   6.138
98992SOL    HW198873   0.935   7.568   6.216
98992SOL    HW298874   0.897   7.707   6.169
98993SOL     OW98875  10.171   8.638   1.631
98993SOL    HW198876  10.173   8.664   1.723
98993SOL    HW298877  10.237   8.693   1.589
98994SOL     OW98878   0.619   5.471   4.662
98994SOL    HW198879   0.543   5.521   4.690
98994SOL    HW298880   0.668   5.531   4.605
98995SOL     OW98881  11.564  13.212   7.285
98995SOL    HW198882  11.560  13.302   7.251
98995SOL    HW298883  11.486  13.170   7.250
98996SOL     OW98884  11.794   0.257   1.750
98996SOL    HW198885  11.855   0.305   1.693
98996SOL    HW298886  11.831   0.265   1.837
98997SOL     OW98887   9.684   5.088  14.099
98997SOL    HW198888   9.593   5.089  14.069
98997SOL    HW298889   9.731   5.141  14.034
98998SOL     OW98890   2.711   4.684   0.974
98998SOL    HW198891   2.738   4.615   0.913
98998SOL    HW298892   2.653   4.639   1.035
98999SOL     OW98893   0.838   6.021   3.454
98999SOL    HW198894   0.931   6.006   3.436
98999SOL    HW298895   0.837   6.097   3.513
99000SOL     OW98896  14.165  12.291   3.561
99000SOL    HW198897  14.072  12.302   3.582
99000SOL    HW298898  14.188  12.371   3.514
99001SOL     OW98899   6.988  13.870  12.236
99001SOL    HW198900   6.937  13.949  12.218
99001SOL    HW298901   6.938  13.824  12.303
99002SOL     OW98902   3.127  10.103   2.095
99002SOL    HW198903   3.105  10.093   2.003
99002SOL    HW298904   3.059  10.054   2.141
99003SOL     OW98905   2.531  10.638   3.300
99003SOL    HW198906   2.587  10.657   3.224
99003SOL    HW298907   2.443  10.662   3.271
99004SOL     OW98908   7.090   1.043   5.719
99004SOL    HW198909   7.186   1.048   5.724
99004SOL    HW298910   7.069   0.959   5.760
99005SOL     OW98911   3.533   4.565  12.991
99005SOL    HW198912   3.478   4.639  12.966
99005SOL    HW298913   3.597   4.558  12.920
99006SOL     OW98914   0.459   2.907   7.216
99006SOL    HW198915   0.382   2.876   7.169
99006SOL    HW298916   0.520   2.935   7.147
99007SOL     OW98917   9.734  12.442   5.858
99007SOL    HW198918   9.795  12.370   5.878
99007SOL    HW298919   9.700  12.421   5.771
99008SOL     OW98920   6.176   2.425   7.539
99008SOL    HW198921   6.246   2.443   7.476
99008SOL    HW298922   6.144   2.339   7.516
99009SOL     OW98923   0.578   4.093   1.899
99009SOL    HW198924   0.627   4.020   1.861
99009SOL    HW298925   0.486   4.072   1.884
99010SOL     OW98926   5.800   8.882  11.439
99010SOL    HW198927   5.849   8.829  11.501
99010SOL    HW298928   5.731   8.824  11.406
99011SOL     OW98929   3.085   3.669   1.449
99011SOL    HW198930   2.991   3.648   1.452
99011SOL    HW298931   3.108   3.663   1.356
99012SOL     OW98932   0.006  13.469   1.178
99012SOL    HW198933  14.798  13.471   1.182
99012SOL    HW298934   0.031  13.396   1.235
99013SOL     OW98935   9.148   9.224   3.105
99013SOL    HW198936   9.066   9.187   3.136
99013SOL    HW298937   9.159   9.305   3.155
99014SOL     OW98938   8.979   6.887   5.353
99014SOL    HW198939   8.985   6.972   5.397
99014SOL    HW298940   8.962   6.908   5.261
99015SOL     OW98941   9.400   5.182  10.410
99015SOL    HW198942   9.452   5.194  10.331
99015SOL    HW298943   9.437   5.104  10.451
99016SOL     OW98944  14.469  10.283  14.182
99016SOL    HW198945  14.430  10.368  14.202
99016SOL    HW298946  14.442  10.227  14.254
99017SOL     OW98947  10.923   0.357   4.856
99017SOL    HW198948  10.993   0.293   4.851
99017SOL    HW298949  10.861   0.321   4.920
99018SOL     OW98950   4.026  13.005   0.400
99018SOL    HW198951   4.038  13.100   0.393
99018SOL    HW298952   3.973  12.994   0.479
99019SOL     OW98953   3.815   1.340   5.119
99019SOL    HW198954   3.743   1.278   5.115
99019SOL    HW298955   3.892   1.287   5.140
99020SOL     OW98956   6.759   3.395   5.579
99020SOL    HW198957   6.743   3.489   5.581
99020SOL    HW298958   6.742   3.366   5.669
99021SOL     OW98959   4.673  11.023  13.477
99021SOL    HW198960   4.739  10.967  13.436
99021SOL    HW298961   4.595  10.967  13.484
99022SOL     OW98962   8.279   4.129   3.095
99022SOL    HW198963   8.371   4.135   3.121
99022SOL    HW298964   8.279   4.067   3.022
99023SOL     OW98965   1.862   3.028  10.727
99023SOL    HW198966   1.913   3.070  10.797
99023SOL    HW298967   1.830   2.947  10.767
99024SOL     OW98968   9.991   7.920   3.182
99024SOL    HW198969  10.029   7.841   3.144
99024SOL    HW298970  10.000   7.908   3.276
99025SOL     OW98971  10.478   1.504  11.621
99025SOL    HW198972  10.532   1.434  11.582
99025SOL    HW298973  10.417   1.528  11.551
99026SOL     OW98974  10.547   7.508   7.257
99026SOL    HW198975  10.524   7.540   7.169
99026SOL    HW298976  10.472   7.532   7.311
99027SOL     OW98977  11.840   0.828   7.550
99027SOL    HW198978  11.890   0.835   7.632
99027SOL    HW298979  11.880   0.754   7.504
99028SOL     OW98980  11.858   1.496   6.605
99028SOL    HW198981  11.886   1.528   6.691
99028SOL    HW298982  11.765   1.476   6.616
99029SOL     OW98983  14.037   0.400   3.530
99029SOL    HW198984  13.972   0.339   3.563
99029SOL    HW298985  14.061   0.455   3.605
99030SOL     OW98986   1.230   3.381   5.833
99030SOL    HW198987   1.277   3.464   5.831
99030SOL    HW298988   1.138   3.405   5.831
99031SOL     OW98989   8.943   0.318   0.259
99031SOL    HW198990   9.011   0.252   0.244
99031SOL    HW298991   8.876   0.271   0.308
99032SOL     OW98992   6.092   5.945  11.881
99032SOL    HW198993   6.046   6.012  11.933
99032SOL    HW298994   6.184   5.958  11.901
99033SOL     OW98995  13.323   9.197  12.465
99033SOL    HW198996  13.350   9.106  12.481
99033SOL    HW298997  13.368   9.247  12.533
99034SOL     OW98998   4.155   9.412   7.641
99034SOL    HW198999   4.084   9.464   7.603
99034SOL    HW299000   4.197   9.372   7.565
99035SOL     OW99001   2.811   4.533  10.595
99035SOL    HW199002   2.792   4.610  10.649
99035SOL    HW299003   2.749   4.466  10.624
99036SOL     OW99004  10.402  13.891  12.271
99036SOL    HW199005  10.361  13.861  12.352
99036SOL    HW299006  10.460  13.819  12.246
99037SOL     OW99007  12.615  10.476   1.542
99037SOL    HW199008  12.709  10.495   1.543
99037SOL    HW299009  12.576  10.549   1.591
99038SOL     OW99010   4.972   8.074   9.612
99038SOL    HW199011   4.976   8.052   9.705
99038SOL    HW299012   4.965   8.169   9.611
99039SOL     OW99013  12.262   9.784  11.200
99039SOL    HW199014  12.284   9.877  11.204
99039SOL    HW299015  12.166   9.782  11.203
99040SOL     OW99016  12.657  10.491   8.762
99040SOL    HW199017  12.663  10.459   8.672
99040SOL    HW299018  12.590  10.436   8.803
99041SOL     OW99019   7.521   8.522   8.174
99041SOL    HW199020   7.586   8.577   8.131
99041SOL    HW299021   7.449   8.582   8.195
99042SOL     OW99022  11.951   3.980  13.381
99042SOL    HW199023  11.888   3.975  13.310
99042SOL    HW299024  11.959   3.890  13.413
99043SOL     OW99025  12.433  13.970   9.704
99043SOL    HW199026  12.430  14.063   9.730
99043SOL    HW299027  12.492  13.930   9.768
99044SOL     OW99028   2.960   6.419   5.868
99044SOL    HW199029   3.000   6.505   5.884
99044SOL    HW299030   2.886   6.438   5.811
99045SOL     OW99031   0.165   7.046   5.813
99045SOL    HW199032   0.207   7.080   5.892
99045SOL    HW299033   0.236   7.006   5.764
99046SOL     OW99034   8.193   0.767   4.146
99046SOL    HW199035   8.239   0.840   4.104
99046SOL    HW299036   8.120   0.809   4.192
99047SOL     OW99037   3.102   0.508   8.540
99047SOL    HW199038   3.139   0.423   8.564
99047SOL    HW299039   3.157   0.572   8.587
99048SOL     OW99040  10.846   2.799   6.488
99048SOL    HW199041  10.861   2.878   6.436
99048SOL    HW299042  10.920   2.796   6.549
99049SOL     OW99043  11.313  11.843  11.361
99049SOL    HW199044  11.278  11.880  11.280
99049SOL    HW299045  11.307  11.914  11.425
99050SOL     OW99046   1.905   5.855   8.830
99050SOL    HW199047   1.922   5.910   8.754
99050SOL    HW299048   1.880   5.770   8.793
99051SOL     OW99049  11.297   6.312  14.134
99051SOL    HW199050  11.387   6.343  14.121
99051SOL    HW299051  11.243   6.388  14.112
99052SOL     OW99052   1.535   3.788   7.343
99052SOL    HW199053   1.544   3.762   7.435
99052SOL    HW299054   1.444   3.818   7.335
99053SOL     OW99055  11.670   9.041   6.346
99053SOL    HW199056  11.686   9.047   6.252
99053SOL    HW299057  11.733   9.102   6.385
99054SOL     OW99058   0.758   2.954  10.169
99054SOL    HW199059   0.816   2.907  10.109
99054SOL    HW299060   0.814   3.016  10.215
99055SOL     OW99061   7.383   7.303   3.216
99055SOL    HW199062   7.390   7.390   3.179
99055SOL    HW299063   7.467   7.262   3.197
99056SOL     OW99064  10.399   2.337   2.189
99056SOL    HW199065  10.375   2.347   2.097
99056SOL    HW299066  10.326   2.290   2.229
99057SOL     OW99067  10.345  14.323   4.585
99057SOL    HW199068  10.323  14.351   4.496
99057SOL    HW299069  10.432  14.358   4.602
99058SOL     OW99070   7.568   9.490  13.042
99058SOL    HW199071   7.636   9.462  13.103
99058SOL    HW299072   7.563   9.420  12.977
99059SOL     OW99073  10.864   6.208   5.483
99059SOL    HW199074  10.881   6.172   5.396
99059SOL    HW299075  10.887   6.301   5.475
99060SOL     OW99076   0.796  11.407   1.207
99060SOL    HW199077   0.734  11.473   1.176
99060SOL    HW299078   0.881  11.435   1.172
99061SOL     OW99079   2.752  12.307   3.935
99061SOL    HW199080   2.660  12.288   3.950
99061SOL    HW299081   2.759  12.402   3.944
99062SOL     OW99082  14.277  13.287   0.606
99062SOL    HW199083  14.327  13.215   0.568
99062SOL    HW299084  14.328  13.365   0.586
99063SOL     OW99085  10.475   3.675   0.760
99063SOL    HW199086  10.444   3.696   0.848
99063SOL    HW299087  10.569   3.662   0.769
99064SOL     OW99088   6.222   0.976  11.047
99064SOL    HW199089   6.145   0.922  11.066
99064SOL    HW299090   6.271   0.926  10.982
99065SOL     OW99091  10.903  10.520   0.703
99065SOL    HW199092  10.959  10.471   0.764
99065SOL    HW299093  10.873  10.455   0.640
99066SOL     OW99094   8.238   4.355   7.849
99066SOL    HW199095   8.190   4.424   7.895
99066SOL    HW299096   8.276   4.398   7.773
99067SOL     OW99097   0.124   0.941   4.571
99067SOL    HW199098   0.116   0.988   4.488
99067SOL    HW299099   0.062   0.868   4.564
99068SOL     OW99100   7.313   3.718   0.475
99068SOL    HW199101   7.386   3.752   0.424
99068SOL    HW299102   7.256   3.676   0.410
99069SOL     OW99103  12.512  14.511   2.021
99069SOL    HW199104  12.452  14.447   1.983
99069SOL    HW299105  12.456  14.569   2.073
99070SOL     OW99106   9.097  13.624  14.664
99070SOL    HW199107   9.158  13.635  14.591
99070SOL    HW299108   9.034  13.559  14.633
99071SOL     OW99109  14.543   6.462  10.669
99071SOL    HW199110  14.486   6.399  10.624
99071SOL    HW299111  14.534   6.441  10.762
99072SOL     OW99112   5.924   9.477   3.010
99072SOL    HW199113   5.980   9.551   3.036
99072SOL    HW299114   5.932   9.474   2.915
99073SOL     OW99115  11.489  10.315   1.552
99073SOL    HW199116  11.486  10.224   1.522
99073SOL    HW299117  11.582  10.334   1.560
99074SOL     OW99118   8.343  12.688   7.613
99074SOL    HW199119   8.272  12.697   7.548
99074SOL    HW299120   8.384  12.775   7.614
99075SOL     OW99121   2.630  12.572  13.018
99075SOL    HW199122   2.665  12.514  13.086
99075SOL    HW299123   2.573  12.516  12.965
99076SOL     OW99124   3.068  11.876   6.538
99076SOL    HW199125   2.996  11.920   6.583
99076SOL    HW299126   3.117  11.947   6.496
99077SOL     OW99127  11.458   1.943  11.866
99077SOL    HW199128  11.376   1.930  11.820
99077SOL    HW299129  11.439   2.010  11.932
99078SOL     OW99130   2.022   8.907  14.843
99078SOL    HW199131   2.057   8.961  14.772
99078SOL    HW299132   2.022   8.964   0.032
99079SOL     OW99133   1.286   9.104   7.873
99079SOL    HW199134   1.315   9.127   7.785
99079SOL    HW299135   1.355   9.139   7.930
99080SOL     OW99136   2.972   7.033   4.082
99080SOL    HW199137   2.886   7.004   4.111
99080SOL    HW299138   3.005   6.960   4.029
99081SOL     OW99139  14.724  13.159   6.332
99081SOL    HW199140  14.769  13.166   6.417
99081SOL    HW299141  14.780  13.102   6.280
99082SOL     OW99142   9.932   4.958  12.651
99082SOL    HW199143   9.904   5.048  12.664
99082SOL    HW299144   9.851   4.908  12.644
99083SOL     OW99145   7.944   5.088  14.738
99083SOL    HW199146   8.034   5.107  14.709
99083SOL    HW299147   7.894   5.086  14.656
99084SOL     OW99148   3.197  12.050   9.625
99084SOL    HW199149   3.202  12.107   9.548
99084SOL    HW299150   3.185  11.962   9.588
99085SOL     OW99151   0.061  11.805   7.403
99085SOL    HW199152   0.140  11.766   7.439
99085SOL    HW299153  14.881  11.788   7.469
99086SOL     OW99154   7.168   6.990   1.925
99086SOL    HW199155   7.217   7.069   1.944
99086SOL    HW299156   7.205   6.924   1.984
99087SOL     OW99157  11.820   6.394   3.062
99087SOL    HW199158  11.787   6.360   3.145
99087SOL    HW299159  11.885   6.330   3.034
99088SOL     OW99160   8.586   8.005   1.180
99088SOL    HW199161   8.600   7.925   1.231
99088SOL    HW299162   8.562   7.975   1.093
99089SOL     OW99163   0.428  12.184  11.580
99089SOL    HW199164   0.389  12.263  11.541
99089SOL    HW299165   0.414  12.115  11.515
99090SOL     OW99166   5.238   8.327  11.480
99090SOL    HW199167   5.260   8.243  11.440
99090SOL    HW299168   5.170   8.364  11.423
99091SOL     OW99169   8.495   2.715   3.968
99091SOL    HW199170   8.470   2.745   3.880
99091SOL    HW299171   8.578   2.668   3.954
99092SOL     OW99172   8.505   1.486   4.911
99092SOL    HW199173   8.543   1.546   4.975
99092SOL    HW299174   8.577   1.467   4.850
99093SOL     OW99175   5.602  10.622   6.147
99093SOL    HW199176   5.658  10.696   6.123
99093SOL    HW299177   5.581  10.637   6.239
99094SOL     OW99178   6.321  10.755   2.805
99094SOL    HW199179   6.257  10.797   2.862
99094SOL    HW299180   6.269  10.719   2.733
99095SOL     OW99181   5.820   2.006   7.153
99095SOL    HW199182   5.823   2.050   7.068
99095SOL    HW299183   5.863   1.922   7.138
99096SOL     OW99184   4.090   6.963  11.835
99096SOL    HW199185   4.089   7.014  11.754
99096SOL    HW299186   4.166   6.906  11.826
99097SOL     OW99187  10.927   0.970  12.977
99097SOL    HW199188  10.867   0.911  13.023
99097SOL    HW299189  10.902   1.057  13.007
99098SOL     OW99190  13.452   0.239   4.544
99098SOL    HW199191  13.461   0.332   4.569
99098SOL    HW299192  13.415   0.242   4.456
99099SOL     OW99193   5.297   5.783   9.684
99099SOL    HW199194   5.278   5.860   9.738
99099SOL    HW299195   5.385   5.799   9.650
99100SOL     OW99196   9.183   0.483   1.056
99100SOL    HW199197   9.198   0.427   0.980
99100SOL    HW299198   9.266   0.480   1.105
99101SOL     OW99199   9.448  12.778   9.265
99101SOL    HW199200   9.451  12.767   9.170
99101SOL    HW299201   9.505  12.854   9.281
99102SOL     OW99202   5.833   8.403   9.750
99102SOL    HW199203   5.891   8.329   9.768
99102SOL    HW299204   5.747   8.364   9.741
99103SOL     OW99205   5.656  13.665   5.336
99103SOL    HW199206   5.591  13.603   5.303
99103SOL    HW299207   5.735  13.613   5.348
99104SOL     OW99208   2.560   0.520   4.247
99104SOL    HW199209   2.467   0.497   4.245
99104SOL    HW299210   2.588   0.517   4.155
99105SOL     OW99211   9.999   7.214   9.740
99105SOL    HW199212  10.047   7.178   9.814
99105SOL    HW299213   9.958   7.293   9.774
99106SOL     OW99214   2.976  12.019  14.372
99106SOL    HW199215   2.969  11.934  14.417
99106SOL    HW299216   2.893  12.027  14.325
99107SOL     OW99217   8.714   2.543   2.155
99107SOL    HW199218   8.727   2.609   2.223
99107SOL    HW299219   8.717   2.459   2.201
99108SOL     OW99220  13.333  13.061   6.433
99108SOL    HW199221  13.247  13.103   6.429
99108SOL    HW299222  13.322  12.990   6.496
99109SOL     OW99223  12.893   8.252  13.202
99109SOL    HW199224  12.986   8.247  13.223
99109SOL    HW299225  12.887   8.319  13.135
99110SOL     OW99226   6.892  10.908   9.429
99110SOL    HW199227   6.891  10.813   9.425
99110SOL    HW299228   6.830  10.930   9.499
99111SOL     OW99229  13.389   3.659   9.892
99111SOL    HW199230  13.366   3.569   9.867
99111SOL    HW299231  13.408   3.703   9.809
99112SOL     OW99232  13.160   1.412   1.957
99112SOL    HW199233  13.094   1.467   1.914
99112SOL    HW299234  13.136   1.323   1.934
99113SOL     OW99235   9.091   3.919   8.595
99113SOL    HW199236   9.018   3.960   8.548
99113SOL    HW299237   9.054   3.895   8.680
99114SOL     OW99238  14.460  11.001  14.859
99114SOL    HW199239  14.448  10.984  14.765
99114SOL    HW299240  14.524  10.936  14.887
99115SOL     OW99241   5.732   3.140   1.938
99115SOL    HW199242   5.741   3.045   1.949
99115SOL    HW299243   5.821   3.173   1.936
99116SOL     OW99244  14.359  13.142  13.912
99116SOL    HW199245  14.419  13.070  13.891
99116SOL    HW299246  14.356  13.195  13.833
99117SOL     OW99247   8.443   7.867   9.988
99117SOL    HW199248   8.507   7.843  10.056
99117SOL    HW299249   8.408   7.783   9.959
99118SOL     OW99250   7.565  12.635   2.723
99118SOL    HW199251   7.487  12.663   2.771
99118SOL    HW299252   7.601  12.717   2.687
99119SOL     OW99253   9.593   1.214  13.623
99119SOL    HW199254   9.627   1.265  13.550
99119SOL    HW299255   9.669   1.165  13.656
99120SOL     OW99256   6.626   1.990   4.321
99120SOL    HW199257   6.618   2.011   4.228
99120SOL    HW299258   6.720   1.990   4.338
99121SOL     OW99259   4.606   2.282  11.874
99121SOL    HW199260   4.527   2.260  11.825
99121SOL    HW299261   4.657   2.335  11.813
99122SOL     OW99262   3.997   2.291  11.702
99122SOL    HW199263   4.065   2.353  11.674
99122SOL    HW299264   3.915   2.333  11.675
99123SOL     OW99265  14.887   0.034  14.383
99123SOL    HW199266  14.868   0.075  14.468
99123SOL    HW299267  14.813  14.863  14.367
99124SOL     OW99268   8.348   4.232  10.315
99124SOL    HW199269   8.440   4.245  10.292
99124SOL    HW299270   8.329   4.142  10.287
99125SOL     OW99271   7.175  11.889   6.567
99125SOL    HW199272   7.106  11.955   6.574
99125SOL    HW299273   7.148  11.819   6.627
99126SOL     OW99274  11.483   3.119   4.305
99126SOL    HW199275  11.417   3.184   4.328
99126SOL    HW299276  11.475   3.052   4.372
99127SOL     OW99277   0.145   1.224   1.725
99127SOL    HW199278   0.160   1.156   1.659
99127SOL    HW299279   0.207   1.293   1.703
99128SOL     OW99280  13.045  14.320   8.047
99128SOL    HW199281  13.039  14.338   8.141
99128SOL    HW299282  13.104  14.245   8.041
99129SOL     OW99283  13.115   5.819   3.552
99129SOL    HW199284  13.183   5.764   3.512
99129SOL    HW299285  13.102   5.890   3.490
99130SOL     OW99286   4.771   7.182   7.451
99130SOL    HW199287   4.840   7.128   7.489
99130SOL    HW299288   4.700   7.178   7.515
99131SOL     OW99289   1.111   3.672   0.083
99131SOL    HW199290   1.172   3.603   0.108
99131SOL    HW299291   1.160   3.727   0.021
99132SOL     OW99292   9.424   5.498   3.159
99132SOL    HW199293   9.514   5.466   3.145
99132SOL    HW299294   9.398   5.536   3.076
99133SOL     OW99295  14.597   6.935   4.590
99133SOL    HW199296  14.525   6.990   4.557
99133SOL    HW299297  14.557   6.880   4.657
99134SOL     OW99298   4.281  14.537   5.688
99134SOL    HW199299   4.375  14.532   5.706
99134SOL    HW299300   4.240  14.501   5.766
99135SOL     OW99301   4.635   4.287  10.700
99135SOL    HW199302   4.600   4.339  10.772
99135SOL    HW299303   4.730   4.301  10.704
99136SOL     OW99304   0.619  14.832   2.189
99136SOL    HW199305   0.551  14.771   2.220
99136SOL    HW299306   0.608   0.022   2.244
99137SOL     OW99307   4.554   2.963   7.522
99137SOL    HW199308   4.594   2.946   7.607
99137SOL    HW299309   4.466   2.925   7.529
99138SOL     OW99310  13.038   4.883  10.757
99138SOL    HW199311  13.013   4.796  10.726
99138SOL    HW299312  13.025   4.879  10.852
99139SOL     OW99313   7.574  12.516   6.706
99139SOL    HW199314   7.512  12.580   6.740
99139SOL    HW299315   7.598  12.549   6.619
99140SOL     OW99316   3.535   1.300   5.358
99140SOL    HW199317   3.447   1.295   5.396
99140SOL    HW299318   3.585   1.355   5.418
99141SOL     OW99319  11.733   9.103   5.283
99141SOL    HW199320  11.682   9.030   5.319
99141SOL    HW299321  11.817   9.100   5.329
99142SOL     OW99322   5.491   7.335   4.361
99142SOL    HW199323   5.581   7.331   4.327
99142SOL    HW299324   5.476   7.248   4.398
99143SOL     OW99325  13.513  10.049   1.931
99143SOL    HW199326  13.497  10.098   2.012
99143SOL    HW299327  13.427  10.045   1.888
99144SOL     OW99328   5.442   8.921   7.130
99144SOL    HW199329   5.454   8.949   7.039
99144SOL    HW299330   5.459   9.000   7.182
99145SOL     OW99331   1.362   9.354  11.837
99145SOL    HW199332   1.354   9.432  11.892
99145SOL    HW299333   1.402   9.386  11.756
99146SOL     OW99334   1.543   5.706  13.767
99146SOL    HW199335   1.501   5.628  13.804
99146SOL    HW299336   1.529   5.699  13.673
99147SOL     OW99337  10.487   2.063  13.782
99147SOL    HW199338  10.528   2.068  13.695
99147SOL    HW299339  10.460   2.153  13.800
99148SOL     OW99340  12.024  13.133   4.470
99148SOL    HW199341  11.940  13.121   4.514
99148SOL    HW299342  12.076  13.187   4.529
99149SOL     OW99343   3.036   4.499  10.924
99149SOL    HW199344   3.010   4.420  10.878
99149SOL    HW299345   3.051   4.564  10.855
99150SOL     OW99346  11.999   4.130  12.881
99150SOL    HW199347  12.006   4.135  12.786
99150SOL    HW299348  12.020   4.219  12.911
99151SOL     OW99349  10.024  11.926   1.713
99151SOL    HW199350  10.012  11.915   1.618
99151SOL    HW299351   9.988  11.846   1.751
99152SOL     OW99352   7.238   6.205   4.195
99152SOL    HW199353   7.161   6.252   4.227
99152SOL    HW299354   7.287   6.182   4.274
99153SOL     OW99355   6.692   4.179   8.289
99153SOL    HW199356   6.640   4.242   8.339
99153SOL    HW299357   6.729   4.230   8.217
99154SOL     OW99358   5.846   6.684   1.698
99154SOL    HW199359   5.913   6.725   1.643
99154SOL    HW299360   5.763   6.705   1.655
99155SOL     OW99361   6.714   9.379   7.296
99155SOL    HW199362   6.750   9.331   7.370
99155SOL    HW299363   6.717   9.471   7.323
99156SOL     OW99364  10.978   6.552  13.541
99156SOL    HW199365  11.041   6.612  13.580
99156SOL    HW299366  10.895   6.574  13.581
99157SOL     OW99367  12.231   5.415  13.335
99157SOL    HW199368  12.162   5.465  13.379
99157SOL    HW299369  12.310   5.434  13.385
99158SOL     OW99370   5.524   1.810  14.286
99158SOL    HW199371   5.449   1.860  14.319
99158SOL    HW299372   5.498   1.782  14.198
99159SOL     OW99373   7.746  14.358   8.305
99159SOL    HW199374   7.816  14.413   8.270
99159SOL    HW299375   7.679  14.421   8.334
99160SOL     OW99376   5.293   6.759   6.215
99160SOL    HW199377   5.225   6.756   6.149
99160SOL    HW299378   5.329   6.848   6.209
99161SOL     OW99379   7.295   6.771  10.530
99161SOL    HW199380   7.217   6.718  10.546
99161SOL    HW299381   7.366   6.707  10.519
99162SOL     OW99382   1.152   4.304   5.736
99162SOL    HW199383   1.178   4.360   5.809
99162SOL    HW299384   1.174   4.216   5.765
99163SOL     OW99385   1.042   9.660  14.432
99163SOL    HW199386   0.968   9.679  14.375
99163SOL    HW299387   1.017   9.697  14.517
99164SOL     OW99388   3.278   8.108   6.206
99164SOL    HW199389   3.245   8.183   6.256
99164SOL    HW299390   3.306   8.045   6.272
99165SOL     OW99391   0.117   4.887   7.092
99165SOL    HW199392   0.092   4.846   7.009
99165SOL    HW299393   0.080   4.829   7.159
99166SOL     OW99394   8.688   0.157   9.704
99166SOL    HW199395   8.718   0.246   9.686
99166SOL    HW299396   8.681   0.116   9.618
99167SOL     OW99397  11.004   7.621  10.105
99167SOL    HW199398  11.063   7.690  10.136
99167SOL    HW299399  10.973   7.579  10.186
99168SOL     OW99400   7.488   1.120   8.252
99168SOL    HW199401   7.514   1.169   8.331
99168SOL    HW299402   7.563   1.128   8.193
99169SOL     OW99403   5.109  13.581   5.836
99169SOL    HW199404   5.192  13.537   5.813
99169SOL    HW299405   5.120  13.671   5.805
99170SOL     OW99406  14.713   3.673   7.052
99170SOL    HW199407  14.644   3.627   7.101
99170SOL    HW299408  14.791   3.664   7.108
99171SOL     OW99409   8.769  10.734  13.803
99171SOL    HW199410   8.752  10.811  13.748
99171SOL    HW299411   8.818  10.768  13.877
99172SOL     OW99412  10.285   0.482   0.694
99172SOL    HW199413  10.209   0.438   0.656
99172SOL    HW299414  10.359   0.452   0.640
99173SOL     OW99415   3.252  11.324  10.259
99173SOL    HW199416   3.212  11.399  10.216
99173SOL    HW299417   3.199  11.309  10.337
99174SOL     OW99418   4.424   2.414  11.068
99174SOL    HW199419   4.465   2.336  11.107
99174SOL    HW299420   4.452   2.412  10.976
99175SOL     OW99421   3.032   1.077   3.217
99175SOL    HW199422   2.954   1.071   3.162
99175SOL    HW299423   3.092   1.134   3.168
99176SOL     OW99424   3.713   8.896   3.184
99176SOL    HW199425   3.623   8.868   3.201
99176SOL    HW299426   3.754   8.898   3.271
99177SOL     OW99427   6.369   4.671  13.588
99177SOL    HW199428   6.409   4.645  13.670
99177SOL    HW299429   6.296   4.610  13.576
99178SOL     OW99430  12.292  12.977   9.863
99178SOL    HW199431  12.290  13.032   9.942
99178SOL    HW299432  12.306  12.888   9.896
99179SOL     OW99433   6.546   5.337   6.223
99179SOL    HW199434   6.636   5.358   6.248
99179SOL    HW299435   6.533   5.382   6.140
99180SOL     OW99436   7.316   2.032   5.634
99180SOL    HW199437   7.245   2.059   5.691
99180SOL    HW299438   7.335   2.110   5.581
99181SOL     OW99439   3.997   7.592   2.458
99181SOL    HW199440   4.063   7.585   2.389
99181SOL    HW299441   3.943   7.513   2.448
99182SOL     OW99442   2.775   6.164  10.093
99182SOL    HW199443   2.739   6.156  10.181
99182SOL    HW299444   2.870   6.159  10.105
99183SOL     OW99445  14.009  11.681   8.713
99183SOL    HW199446  13.973  11.631   8.640
99183SOL    HW299447  14.022  11.616   8.782
99184SOL     OW99448   9.912   1.807  10.538
99184SOL    HW199449   9.846   1.870  10.566
99184SOL    HW299450   9.871   1.721  10.550
99185SOL     OW99451   4.551  10.369   6.474
99185SOL    HW199452   4.540  10.429   6.548
99185SOL    HW299453   4.620  10.309   6.501
99186SOL     OW99454   2.037   0.996  12.291
99186SOL    HW199455   2.012   0.943  12.215
99186SOL    HW299456   2.079   1.073  12.253
99187SOL     OW99457  12.828   5.406   4.709
99187SOL    HW199458  12.735   5.383   4.719
99187SOL    HW299459  12.849   5.456   4.788
99188SOL     OW99460   2.350  10.953  11.744
99188SOL    HW199461   2.315  10.901  11.817
99188SOL    HW299462   2.317  11.041  11.760
99189SOL     OW99463   9.214   7.001   4.691
99189SOL    HW199464   9.288   7.061   4.689
99189SOL    HW299465   9.243   6.929   4.747
99190SOL     OW99466   4.613   1.669  11.173
99190SOL    HW199467   4.580   1.751  11.210
99190SOL    HW299468   4.697   1.655  11.216
99191SOL     OW99469   4.264  14.254   1.773
99191SOL    HW199470   4.233  14.280   1.686
99191SOL    HW299471   4.297  14.335   1.812
99192SOL     OW99472   0.693  12.985   7.021
99192SOL    HW199473   0.637  12.919   6.980
99192SOL    HW299474   0.741  12.938   7.089
99193SOL     OW99475   7.485   2.037   8.317
99193SOL    HW199476   7.549   2.047   8.388
99193SOL    HW299477   7.498   1.947   8.286
99194SOL     OW99478   3.018  10.906  13.452
99194SOL    HW199479   3.052  10.902  13.541
99194SOL    HW299480   3.054  10.827  13.410
99195SOL     OW99481  11.593   5.712   8.802
99195SOL    HW199482  11.624   5.627   8.833
99195SOL    HW299483  11.635   5.723   8.717
99196SOL     OW99484  13.487  14.190   4.678
99196SOL    HW199485  13.531  14.133   4.614
99196SOL    HW299486  13.394  14.175   4.663
99197SOL     OW99487   9.100   5.346   9.216
99197SOL    HW199488   9.154   5.310   9.286
99197SOL    HW299489   9.115   5.288   9.142
99198SOL     OW99490  13.144   8.939  10.239
99198SOL    HW199491  13.228   8.939  10.286
99198SOL    HW299492  13.096   8.864  10.274
99199SOL     OW99493   5.276  13.224   8.827
99199SOL    HW199494   5.352  13.172   8.857
99199SOL    HW299495   5.302  13.256   8.741
99200SOL     OW99496   7.891  14.597   7.587
99200SOL    HW199497   7.974  14.622   7.545
99200SOL    HW299498   7.912  14.517   7.635
99201SOL     OW99499   6.556   2.476  10.603
99201SOL    HW199500   6.591   2.563  10.588
99201SOL    HW299501   6.501   2.459  10.526
99202SOL     OW99502  12.986   5.204  11.298
99202SOL    HW199503  12.937   5.279  11.264
99202SOL    HW299504  12.937   5.127  11.269
99203SOL     OW99505   4.172   3.539  14.283
99203SOL    HW199506   4.100   3.596  14.255
99203SOL    HW299507   4.130   3.454  14.299
99204SOL     OW99508   5.153  12.525  11.413
99204SOL    HW199509   5.159  12.531  11.508
99204SOL    HW299510   5.187  12.438  11.392
99205SOL     OW99511   2.635   8.974  12.785
99205SOL    HW199512   2.584   9.038  12.735
99205SOL    HW299513   2.719   9.017  12.800
99206SOL     OW99514   2.792   7.943  12.807
99206SOL    HW199515   2.801   8.020  12.751
99206SOL    HW299516   2.714   7.899  12.774
99207SOL     OW99517  13.197   4.623  12.192
99207SOL    HW199518  13.153   4.590  12.270
99207SOL    HW299519  13.275   4.668  12.226
99208SOL     OW99520   9.752   5.703   7.414
99208SOL    HW199521   9.844   5.714   7.439
99208SOL    HW299522   9.704   5.766   7.468
99209SOL     OW99523  10.216   9.784   9.257
99209SOL    HW199524  10.132   9.815   9.225
99209SOL    HW299525  10.251   9.858   9.308
99210SOL     OW99526  13.341  11.034   3.855
99210SOL    HW199527  13.392  11.027   3.774
99210SOL    HW299528  13.374  11.112   3.898
99211SOL     OW99529   4.253  13.966  11.140
99211SOL    HW199530   4.285  13.994  11.054
99211SOL    HW299531   4.258  14.044  11.194
99212SOL     OW99532   1.901  11.014  13.292
99212SOL    HW199533   1.812  11.035  13.265
99212SOL    HW299534   1.894  10.999  13.386
99213SOL     OW99535   1.964   1.180   6.558
99213SOL    HW199536   1.881   1.192   6.513
99213SOL    HW299537   2.022   1.246   6.521
99214SOL     OW99538   5.773  11.036   5.030
99214SOL    HW199539   5.835  11.096   4.988
99214SOL    HW299540   5.823  10.996   5.101
99215SOL     OW99541  13.725  12.728  11.092
99215SOL    HW199542  13.753  12.772  11.011
99215SOL    HW299543  13.806  12.705  11.137
99216SOL     OW99544   2.174  10.135   8.718
99216SOL    HW199545   2.223  10.190   8.657
99216SOL    HW299546   2.170  10.050   8.675
99217SOL     OW99547   7.246   3.993   7.003
99217SOL    HW199548   7.177   4.036   6.953
99217SOL    HW299549   7.213   3.906   7.022
99218SOL     OW99550   8.648   1.699  13.173
99218SOL    HW199551   8.702   1.667  13.245
99218SOL    HW299552   8.599   1.623  13.143
99219SOL     OW99553   1.166  14.105  10.457
99219SOL    HW199554   1.101  14.036  10.468
99219SOL    HW299555   1.250  14.061  10.466
99220SOL     OW99556   0.975   7.533   5.521
99220SOL    HW199557   0.922   7.497   5.592
99220SOL    HW299558   0.984   7.626   5.544
99221SOL     OW99559  13.503   1.750   0.081
99221SOL    HW199560  13.573   1.722   0.140
99221SOL    HW299561  13.478   1.837   0.112
99222SOL     OW99562  14.563  10.633   3.516
99222SOL    HW199563  14.545  10.660   3.605
99222SOL    HW299564  14.644  10.679   3.493
99223SOL     OW99565   6.377   2.136  11.656
99223SOL    HW199566   6.296   2.166  11.616
99223SOL    HW299567   6.350   2.090  11.735
99224SOL     OW99568   5.091  11.123   9.187
99224SOL    HW199569   5.039  11.057   9.233
99224SOL    HW299570   5.027  11.189   9.160
99225SOL     OW99571   2.443  14.443   9.721
99225SOL    HW199572   2.535  14.447   9.695
99225SOL    HW299573   2.400  14.395   9.650
99226SOL     OW99574  11.100  14.357  13.411
99226SOL    HW199575  11.182  14.393  13.443
99226SOL    HW299576  11.081  14.406  13.331
99227SOL     OW99577  13.486  11.302   6.638
99227SOL    HW199578  13.452  11.318   6.550
99227SOL    HW299579  13.410  11.274   6.689
99228SOL     OW99580   3.028  13.030  13.508
99228SOL    HW199581   3.049  13.022  13.415
99228SOL    HW299582   3.071  13.111  13.535
99229SOL     OW99583   5.899   7.476  13.145
99229SOL    HW199584   5.972   7.508  13.092
99229SOL    HW299585   5.868   7.398  13.098
99230SOL     OW99586  10.344   8.951  12.353
99230SOL    HW199587  10.392   8.869  12.365
99230SOL    HW299588  10.352   8.996  12.437
99231SOL     OW99589   4.960  10.231  13.622
99231SOL    HW199590   4.997  10.301  13.676
99231SOL    HW299591   4.906  10.276  13.557
99232SOL     OW99592  11.593  14.058  10.428
99232SOL    HW199593  11.591  13.965  10.451
99232SOL    HW299594  11.662  14.095  10.483
99233SOL     OW99595   3.673   8.132   0.558
99233SOL    HW199596   3.645   8.202   0.498
99233SOL    HW299597   3.596   8.115   0.612
99234SOL     OW99598   1.388  11.463  10.633
99234SOL    HW199599   1.405  11.540  10.578
99234SOL    HW299600   1.387  11.390  10.571
99235SOL     OW99601  13.540   0.607  13.388
99235SOL    HW199602  13.621   0.629  13.343
99235SOL    HW299603  13.562   0.529  13.440
99236SOL     OW99604   1.541   0.131  11.110
99236SOL    HW199605   1.636   0.125  11.107
99236SOL    HW299606   1.511   0.041  11.096
99237SOL     OW99607  13.477  11.535   3.726
99237SOL    HW199608  13.439  11.459   3.682
99237SOL    HW299609  13.566  11.542   3.690
99238SOL     OW99610  12.331   5.450   9.992
99238SOL    HW199611  12.347   5.440   9.898
99238SOL    HW299612  12.417   5.472  10.029
99239SOL     OW99613  10.252  10.812  10.334
99239SOL    HW199614  10.193  10.738  10.319
99239SOL    HW299615  10.318  10.805  10.265
99240SOL     OW99616   2.731   6.334  13.274
99240SOL    HW199617   2.640   6.361  13.286
99240SOL    HW299618   2.780   6.416  13.279
99241SOL     OW99619   1.520   1.855  12.148
99241SOL    HW199620   1.613   1.864  12.169
99241SOL    HW299621   1.516   1.782  12.086
99242SOL     OW99622  10.847   1.766   8.946
99242SOL    HW199623  10.893   1.707   8.886
99242SOL    HW299624  10.884   1.747   9.032
99243SOL     OW99625   1.736   6.049   2.932
99243SOL    HW199626   1.801   6.037   3.002
99243SOL    HW299627   1.702   6.137   2.947
99244SOL     OW99628   3.130   5.731   0.562
99244SOL    HW199629   3.094   5.645   0.541
99244SOL    HW299630   3.156   5.724   0.654
99245SOL     OW99631   2.937   2.373   5.256
99245SOL    HW199632   2.929   2.304   5.190
99245SOL    HW299633   2.852   2.374   5.300
99246SOL     OW99634   9.100   9.125  13.468
99246SOL    HW199635   9.147   9.098  13.547
99246SOL    HW299636   9.151   9.088  13.396
99247SOL     OW99637   6.845   4.588   8.725
99247SOL    HW199638   6.764   4.580   8.775
99247SOL    HW299639   6.865   4.498   8.697
99248SOL     OW99640   4.054   3.014   3.623
99248SOL    HW199641   4.121   2.969   3.572
99248SOL    HW299642   4.041   2.958   3.700
99249SOL     OW99643   5.894  11.056   2.172
99249SOL    HW199644   5.907  10.979   2.227
99249SOL    HW299645   5.824  11.105   2.215
99250SOL     OW99646   0.785   4.429  14.223
99250SOL    HW199647   0.714   4.466  14.276
99250SOL    HW299648   0.743   4.361  14.171
99251SOL     OW99649   6.387   6.780  13.635
99251SOL    HW199650   6.345   6.698  13.611
99251SOL    HW299651   6.394   6.828  13.553
99252SOL     OW99652   8.531  10.659  14.272
99252SOL    HW199653   8.528  10.626  14.182
99252SOL    HW299654   8.624  10.658  14.295
99253SOL     OW99655   8.073   6.389   5.080
99253SOL    HW199656   8.040   6.427   4.998
99253SOL    HW299657   8.168   6.389   5.070
99254SOL     OW99658  13.512  14.245   3.551
99254SOL    HW199659  13.600  14.281   3.564
99254SOL    HW299660  13.455  14.299   3.606
99255SOL     OW99661   5.457   5.060  13.072
99255SOL    HW199662   5.368   5.039  13.045
99255SOL    HW299663   5.500   5.090  12.992
99256SOL     OW99664   5.065  10.351  12.824
99256SOL    HW199665   5.107  10.301  12.894
99256SOL    HW299666   5.136  10.404  12.786
99257SOL     OW99667   8.011   0.886  11.543
99257SOL    HW199668   8.106   0.897  11.538
99257SOL    HW299669   7.987   0.851  11.457
99258SOL     OW99670   8.197   8.324  14.731
99258SOL    HW199671   8.168   8.239  14.697
99258SOL    HW299672   8.163   8.327  14.820
99259SOL     OW99673   7.628  13.405   3.629
99259SOL    HW199674   7.686  13.472   3.665
99259SOL    HW299675   7.622  13.426   3.536
99260SOL     OW99676   5.356   6.926   3.106
99260SOL    HW199677   5.266   6.929   3.074
99260SOL    HW299678   5.350   6.945   3.199
99261SOL     OW99679  14.806  12.821   5.041
99261SOL    HW199680  14.767  12.856   4.961
99261SOL    HW299681  14.773  12.877   5.111
99262SOL     OW99682   0.646   3.482  13.792
99262SOL    HW199683   0.601   3.402  13.767
99262SOL    HW299684   0.636   3.487  13.887
99263SOL     OW99685   6.919  13.550   0.764
99263SOL    HW199686   6.979  13.479   0.786
99263SOL    HW299687   6.879  13.523   0.681
99264SOL     OW99688  13.001   4.179   6.884
99264SOL    HW199689  13.081   4.224   6.859
99264SOL    HW299690  12.934   4.247   6.886
99265SOL     OW99691   7.885  12.989   6.802
99265SOL    HW199692   7.936  12.922   6.848
99265SOL    HW299693   7.848  13.043   6.872
99266SOL     OW99694   6.993  14.482   2.091
99266SOL    HW199695   7.041  14.399   2.093
99266SOL    HW299696   7.007  14.515   2.002
99267SOL     OW99697   0.927  13.215  11.011
99267SOL    HW199698   0.982  13.145  10.977
99267SOL    HW299699   0.870  13.171  11.074
99268SOL     OW99700   6.163  10.376   8.264
99268SOL    HW199701   6.076  10.371   8.304
99268SOL    HW299702   6.217  10.318   8.316
99269SOL     OW99703   0.293  10.189   6.106
99269SOL    HW199704   0.258  10.254   6.167
99269SOL    HW299705   0.349  10.239   6.047
99270SOL     OW99706   8.317   0.797   8.491
99270SOL    HW199707   8.297   0.887   8.464
99270SOL    HW299708   8.244   0.771   8.547
99271SOL     OW99709  13.210   2.130   0.035
99271SOL    HW199710  13.209   2.226   0.028
99271SOL    HW299711  13.138   2.110   0.095
99272SOL     OW99712   5.416  14.362  10.206
99272SOL    HW199713   5.468  14.309  10.146
99272SOL    HW299714   5.334  14.379  10.158
99273SOL     OW99715   3.031  11.312   0.737
99273SOL    HW199716   2.942  11.322   0.705
99273SOL    HW299717   3.065  11.236   0.690
99274SOL     OW99718   4.758   8.484   4.797
99274SOL    HW199719   4.716   8.565   4.824
99274SOL    HW299720   4.767   8.433   4.878
99275SOL     OW99721  14.099  10.921   2.551
99275SOL    HW199722  14.062  11.005   2.577
99275SOL    HW299723  14.190  10.924   2.581
99276SOL     OW99724   8.512   6.992  13.470
99276SOL    HW199725   8.525   7.032  13.556
99276SOL    HW299726   8.496   6.900  13.488
99277SOL     OW99727  10.796   4.293   3.058
99277SOL    HW199728  10.818   4.202   3.075
99277SOL    HW299729  10.855   4.320   2.988
99278SOL     OW99730   0.890  13.193  11.577
99278SOL    HW199731   0.955  13.231  11.519
99278SOL    HW299732   0.819  13.166  11.519
99279SOL     OW99733   3.251   4.299   7.518
99279SOL    HW199734   3.221   4.218   7.477
99279SOL    HW299735   3.330   4.275   7.566
99280SOL     OW99736  13.789   9.871  12.537
99280SOL    HW199737  13.725   9.894  12.604
99280SOL    HW299738  13.737   9.848  12.460
99281SOL     OW99739   8.869   0.911   5.779
99281SOL    HW199740   8.821   0.836   5.744
99281SOL    HW299741   8.912   0.951   5.704
99282SOL     OW99742   4.315   2.362   3.761
99282SOL    HW199743   4.385   2.371   3.696
99282SOL    HW299744   4.361   2.333   3.841
99283SOL     OW99745   4.118   7.075   7.587
99283SOL    HW199746   4.114   7.168   7.566
99283SOL    HW299747   4.094   7.030   7.506
99284SOL     OW99748   9.021   6.068   5.614
99284SOL    HW199749   8.936   6.066   5.658
99284SOL    HW299750   9.018   6.146   5.559
99285SOL     OW99751   6.577   8.216  13.031
99285SOL    HW199752   6.524   8.201  12.952
99285SOL    HW299753   6.574   8.132  13.078
99286SOL     OW99754  12.934   1.754   6.901
99286SOL    HW199755  12.996   1.687   6.872
99286SOL    HW299756  12.985   1.834   6.906
99287SOL     OW99757   4.741  13.178   6.440
99287SOL    HW199758   4.679  13.183   6.366
99287SOL    HW299759   4.827  13.175   6.398
99288SOL     OW99760   2.730  12.425   2.842
99288SOL    HW199761   2.695  12.477   2.769
99288SOL    HW299762   2.746  12.489   2.911
99289SOL     OW99763   6.124  12.261  11.082
99289SOL    HW199764   6.078  12.331  11.035
99289SOL    HW299765   6.055  12.210  11.123
99290SOL     OW99766  10.327   4.579  13.552
99290SOL    HW199767  10.271   4.557  13.478
99290SOL    HW299768  10.346   4.673  13.541
99291SOL     OW99769   8.968   6.728  11.488
99291SOL    HW199770   9.036   6.793  11.506
99291SOL    HW299771   8.929   6.711  11.574
99292SOL     OW99772   4.495   7.293  12.898
99292SOL    HW199773   4.564   7.343  12.940
99292SOL    HW299774   4.440   7.261  12.970
99293SOL     OW99775   4.142   7.124  11.343
99293SOL    HW199776   4.100   7.183  11.280
99293SOL    HW299777   4.217   7.174  11.376
99294SOL     OW99778  12.737   8.276   6.954
99294SOL    HW199779  12.824   8.315   6.964
99294SOL    HW299780  12.719   8.235   7.039
99295SOL     OW99781   4.388   2.530   5.824
99295SOL    HW199782   4.316   2.495   5.772
99295SOL    HW299783   4.357   2.614   5.856
99296SOL     OW99784   6.330   4.253   8.410
99296SOL    HW199785   6.357   4.344   8.414
99296SOL    HW299786   6.396   4.209   8.357
99297SOL     OW99787   9.151  13.316   2.415
99297SOL    HW199788   9.095  13.386   2.382
99297SOL    HW299789   9.135  13.315   2.509
99298SOL     OW99790  12.048   6.342  10.510
99298SOL    HW199791  12.127   6.388  10.482
99298SOL    HW299792  12.045   6.263  10.458
99299SOL     OW99793   9.167  13.816   6.826
99299SOL    HW199794   9.248  13.771   6.850
99299SOL    HW299795   9.134  13.852   6.909
99300SOL     OW99796   1.587  11.764  14.179
99300SOL    HW199797   1.541  11.817  14.244
99300SOL    HW299798   1.581  11.815  14.098
99301SOL     OW99799  13.705   9.313   6.410
99301SOL    HW199800  13.733   9.286   6.322
99301SOL    HW299801  13.624   9.361   6.395
99302SOL     OW99802  14.819   4.080   8.200
99302SOL    HW199803  14.740   4.052   8.246
99302SOL    HW299804  14.787   4.113   8.116
99303SOL     OW99805   2.740   2.413   3.740
99303SOL    HW199806   2.790   2.429   3.659
99303SOL    HW299807   2.791   2.454   3.809
99304SOL     OW99808   2.502   4.704   6.987
99304SOL    HW199809   2.458   4.775   7.033
99304SOL    HW299810   2.445   4.684   6.912
99305SOL     OW99811  13.713  10.307   2.688
99305SOL    HW199812  13.789  10.359   2.713
99305SOL    HW299813  13.699  10.328   2.595
99306SOL     OW99814   0.644  10.731  10.567
99306SOL    HW199815   0.729  10.763  10.539
99306SOL    HW299816   0.637  10.759  10.658
99307SOL     OW99817  12.031   9.661   2.572
99307SOL    HW199818  12.004   9.747   2.540
99307SOL    HW299819  11.953   9.607   2.565
99308SOL     OW99820   7.017  12.263   6.999
99308SOL    HW199821   7.046  12.182   6.957
99308SOL    HW299822   7.088  12.285   7.060
99309SOL     OW99823   3.833   8.858   1.300
99309SOL    HW199824   3.821   8.900   1.385
99309SOL    HW299825   3.910   8.801   1.312
99310SOL     OW99826   0.911   6.926  10.706
99310SOL    HW199827   0.965   6.920  10.627
99310SOL    HW299828   0.891   7.019  10.714
99311SOL     OW99829   1.130   3.297   9.029
99311SOL    HW199830   1.082   3.220   8.999
99311SOL    HW299831   1.090   3.319   9.113
99312SOL     OW99832   9.253   3.973   1.980
99312SOL    HW199833   9.283   4.049   2.030
99312SOL    HW299834   9.281   3.990   1.891
99313SOL     OW99835   4.792   5.384   8.701
99313SOL    HW199836   4.742   5.423   8.773
99313SOL    HW299837   4.856   5.452   8.679
99314SOL     OW99838  13.187   4.440   5.740
99314SOL    HW199839  13.114   4.423   5.800
99314SOL    HW299840  13.163   4.392   5.660
99315SOL     OW99841  10.335  10.495  12.917
99315SOL    HW199842  10.368  10.578  12.882
99315SOL    HW299843  10.300  10.449  12.841
99316SOL     OW99844   8.237   0.298  12.625
99316SOL    HW199845   8.247   0.228  12.689
99316SOL    HW299846   8.142   0.304  12.612
99317SOL     OW99847   9.400   1.494   2.006
99317SOL    HW199848   9.414   1.401   1.992
99317SOL    HW299849   9.324   1.499   2.063
99318SOL     OW99850  10.590   4.963  10.862
99318SOL    HW199851  10.648   4.908  10.811
99318SOL    HW299852  10.587   4.922  10.948
99319SOL     OW99853  14.288  13.573  14.314
99319SOL    HW199854  14.315  13.486  14.283
99319SOL    HW299855  14.201  13.559  14.351
99320SOL     OW99856   0.916  12.383   3.628
99320SOL    HW199857   0.869  12.434   3.562
99320SOL    HW299858   0.906  12.433   3.709
99321SOL     OW99859  11.027   9.594  14.370
99321SOL    HW199860  11.002   9.522  14.428
99321SOL    HW299861  11.079   9.651  14.426
99322SOL     OW99862   6.401  11.641   8.402
99322SOL    HW199863   6.418  11.632   8.308
99322SOL    HW299864   6.333  11.576   8.420
99323SOL     OW99865  10.407   7.230   6.311
99323SOL    HW199866  10.370   7.299   6.256
99323SOL    HW299867  10.480   7.272   6.357
99324SOL     OW99868   5.312  12.378   4.863
99324SOL    HW199869   5.250  12.383   4.790
99324SOL    HW299870   5.332  12.285   4.871
99325SOL     OW99871   1.315  13.147   3.056
99325SOL    HW199872   1.345  13.079   2.995
99325SOL    HW299873   1.245  13.106   3.105
99326SOL     OW99874  13.489   6.502   4.312
99326SOL    HW199875  13.481   6.422   4.260
99326SOL    HW299876  13.543   6.477   4.387
99327SOL     OW99877   2.859   0.374  10.319
99327SOL    HW199878   2.833   0.288  10.352
99327SOL    HW299879   2.779   0.426  10.323
99328SOL     OW99880   7.690  10.888   7.830
99328SOL    HW199881   7.725  10.799   7.824
99328SOL    HW299882   7.767  10.943   7.843
99329SOL     OW99883   6.061   9.536   9.177
99329SOL    HW199884   5.967   9.528   9.162
99329SOL    HW299885   6.069   9.573   9.265
99330SOL     OW99886   9.293  10.854  13.412
99330SOL    HW199887   9.378  10.861  13.369
99330SOL    HW299888   9.229  10.871  13.343
99331SOL     OW99889   6.803   8.479   5.611
99331SOL    HW199890   6.885   8.524   5.628
99331SOL    HW299891   6.827   8.387   5.605
99332SOL     OW99892   1.835  13.975  14.784
99332SOL    HW199893   1.866  13.892  14.820
99332SOL    HW299894   1.768  14.005  14.846
99333SOL     OW99895   9.570   9.694   8.804
99333SOL    HW199896   9.606   9.657   8.723
99333SOL    HW299897   9.618   9.776   8.817
99334SOL     OW99898   8.155   9.600  11.898
99334SOL    HW199899   8.230   9.565  11.946
99334SOL    HW299900   8.108   9.654  11.962
99335SOL     OW99901  13.853   0.271   0.284
99335SOL    HW199902  13.926   0.274   0.222
99335SOL    HW299903  13.894   0.258   0.369
99336SOL     OW99904   0.099   3.691   6.888
99336SOL    HW199905   0.004   3.678   6.885
99336SOL    HW299906   0.136   3.605   6.869
99337SOL     OW99907   6.423   4.297  13.516
99337SOL    HW199908   6.424   4.319  13.609
99337SOL    HW299909   6.513   4.273  13.496
99338SOL     OW99910  13.633   5.824   4.054
99338SOL    HW199911  13.582   5.889   4.102
99338SOL    HW299912  13.584   5.811   3.973
99339SOL     OW99913  12.170  12.310   5.086
99339SOL    HW199914  12.192  12.297   5.179
99339SOL    HW299915  12.131  12.397   5.084
99340SOL     OW99916  10.609   2.957   3.016
99340SOL    HW199917  10.543   3.026   3.011
99340SOL    HW299918  10.573   2.885   2.963
99341SOL     OW99919   2.741   8.937   7.463
99341SOL    HW199920   2.685   9.005   7.502
99341SOL    HW299921   2.722   8.859   7.514
99342SOL     OW99922  12.798   7.629  12.258
99342SOL    HW199923  12.822   7.548  12.213
99342SOL    HW299924  12.878   7.681  12.258
99343SOL     OW99925  14.015   1.673   8.225
99343SOL    HW199926  14.109   1.668   8.209
99343SOL    HW299927  13.981   1.590   8.192
99344SOL     OW99928   4.030   8.249   1.528
99344SOL    HW199929   3.996   8.305   1.458
99344SOL    HW299930   4.124   8.244   1.512
99345SOL     OW99931  13.809   2.195   1.100
99345SOL    HW199932  13.779   2.132   1.034
99345SOL    HW299933  13.904   2.196   1.090
99346SOL     OW99934   5.181   9.522   7.387
99346SOL    HW199935   5.188   9.610   7.350
99346SOL    HW299936   5.271   9.488   7.383
99347SOL     OW99937  13.827  11.937   8.982
99347SOL    HW199938  13.906  11.985   9.008
99347SOL    HW299939  13.756  11.984   9.025
99348SOL     OW99940   6.218  14.301   9.181
99348SOL    HW199941   6.244  14.213   9.205
99348SOL    HW299942   6.145  14.322   9.239
99349SOL     OW99943  13.447   5.292   6.858
99349SOL    HW199944  13.459   5.363   6.794
99349SOL    HW299945  13.536   5.264   6.879
99350SOL     OW99946   9.476  12.754   7.238
99350SOL    HW199947   9.411  12.747   7.308
99350SOL    HW299948   9.479  12.848   7.219
99351SOL     OW99949  11.087  14.211  10.688
99351SOL    HW199950  11.069  14.130  10.737
99351SOL    HW299951  11.182  14.211  10.676
99352SOL     OW99952   3.338   0.644  12.795
99352SOL    HW199953   3.347   0.549  12.790
99352SOL    HW299954   3.352   0.664  12.888
99353SOL     OW99955   9.255  13.672   1.627
99353SOL    HW199956   9.248  13.739   1.695
99353SOL    HW299957   9.249  13.721   1.545
99354SOL     OW99958  11.223   7.406  11.952
99354SOL    HW199959  11.255   7.402  11.862
99354SOL    HW299960  11.185   7.320  11.968
99355SOL     OW99961  12.402   7.115   7.240
99355SOL    HW199962  12.450   7.120   7.158
99355SOL    HW299963  12.452   7.054   7.294
99356SOL     OW99964   1.434  14.481   9.662
99356SOL    HW199965   1.465  14.544   9.727
99356SOL    HW299966   1.348  14.513   9.637
99357SOL     OW99967  10.253  14.036   0.136
99357SOL    HW199968  10.193  14.004   0.203
99357SOL    HW299969  10.212  14.009   0.053
99358SOL     OW99970   1.387   5.157  12.306
99358SOL    HW199971   1.326   5.231  12.304
99358SOL    HW299972   1.473   5.197  12.310
99359SOL     OW99973  14.473  14.681   4.744
99359SOL    HW199974  14.543  14.621   4.769
99359SOL    HW299975  14.433  14.707   4.826
99360SOL     OW99976  11.082   8.683   0.791
99360SOL    HW199977  11.156   8.635   0.753
99360SOL    HW299978  11.083   8.658   0.883
99361SOL     OW99979   6.874   6.806  12.158
99361SOL    HW199980   6.954   6.850  12.132
99361SOL    HW299981   6.805   6.870  12.142
99362SOL     OW99982   6.411   3.331   8.756
99362SOL    HW199983   6.375   3.366   8.837
99362SOL    HW299984   6.438   3.242   8.778
99363SOL     OW99985   4.249   4.065   6.483
99363SOL    HW199986   4.187   4.138   6.483
99363SOL    HW299987   4.258   4.041   6.575
99364SOL     OW99988   0.529  10.163   5.748
99364SOL    HW199989   0.589  10.091   5.727
99364SOL    HW299990   0.452  10.147   5.693
99365SOL     OW99991   0.446  12.517  12.639
99365SOL    HW199992   0.467  12.450  12.574
99365SOL    HW299993   0.402  12.470  12.710
99366SOL     OW99994   9.867   0.512  12.851
99366SOL    HW199995   9.880   0.458  12.773
99366SOL    HW299996   9.883   0.452  12.924
99367SOL     OW99997   6.841  13.891  13.890
99367SOL    HW199998   6.826  13.983  13.868
99367SOL    HW299999   6.911  13.864  13.831
99368SOL     OW    0   2.413   4.213  11.459
99368SOL    HW1    1   2.343   4.274  11.435
99368SOL    HW2    2   2.434   4.167  11.377
99369SOL     OW    3   0.811   5.456   9.803
99369SOL    HW1    4   0.826   5.399   9.728
99369SOL    HW2    5   0.822   5.545   9.768
99370SOL     OW    6  11.592   7.198   3.298
99370SOL    HW1    7  11.559   7.152   3.375
99370SOL    HW2    8  11.677   7.159   3.281
99371SOL     OW    9   1.540   0.469   1.861
99371SOL    HW1   10   1.515   0.458   1.953
99371SOL    HW2   11   1.611   0.533   1.863
99372SOL     OW   12  12.296  10.494   5.419
99372SOL    HW1   13  12.208  10.470   5.449
99372SOL    HW2   14  12.284  10.521   5.328
99373SOL     OW   15   1.814   7.892   2.120
99373SOL    HW1   16   1.739   7.950   2.111
99373SOL    HW2   17   1.871   7.937   2.183
99374SOL     OW   18   6.541   4.263   0.499
99374SOL    HW1   19   6.600   4.246   0.573
99374SOL    HW2   20   6.509   4.351   0.515
99375SOL     OW   21   2.439   0.909   8.529
99375SOL    HW1   22   2.463   0.936   8.617
99375SOL    HW2   23   2.366   0.967   8.505
99376SOL     OW   24   6.309   9.514   9.856
99376SOL    HW1   25   6.248   9.585   9.838
99376SOL    HW2   26   6.360   9.545   9.931
99377SOL     OW   27   0.871  10.959   5.673
99377SOL    HW1   28   0.886  10.867   5.648
99377SOL    HW2   29   0.814  10.954   5.749
99378SOL     OW   30  14.270   5.196   0.563
99378SOL    HW1   31  14.206   5.144   0.611
99378SOL    HW2   32  14.299   5.262   0.625
99379SOL     OW   33   5.551   2.538  14.753
99379SOL    HW1   34   5.541   2.608  14.818
99379SOL    HW2   35   5.517   2.460  14.796
99380SOL     OW   36  12.180   1.126   4.112
99380SOL    HW1   37  12.227   1.098   4.033
99380SOL    HW2   38  12.130   1.203   4.083
99381SOL     OW   39   3.612   1.296  13.546
99381SOL    HW1   40   3.647   1.212  13.515
99381SOL    HW2   41   3.689   1.345  13.574
99382SOL     OW   42  11.756  12.127  12.998
99382SOL    HW1   43  11.761  12.051  13.056
99382SOL    HW2   44  11.775  12.202  13.054
99383SOL     OW   45  13.931   4.713   5.611
99383SOL    HW1   46  13.902   4.626   5.585
99383SOL    HW2   47  13.874   4.737   5.684
99384SOL     OW   48  10.481   3.982   0.014
99384SOL    HW1   49  10.457   3.893   0.039
99384SOL    HW2   50  10.567   3.972  14.860
99385SOL     OW   51   0.552  11.811   7.734
99385SOL    HW1   52   0.530  11.878   7.799
99385SOL    HW2   53   0.501  11.734   7.761
99386SOL     OW   54   1.407  14.039  10.526
99386SOL    HW1   55   1.395  13.986  10.604
99386SOL    HW2   56   1.490  14.010  10.489
99387SOL     OW   57  14.171   0.234  14.794
99387SOL    HW1   58  14.078   0.237  14.817
99387SOL    HW2   59  14.192   0.324  14.769
99388SOL     OW   60  11.538   5.327  11.486
99388SOL    HW1   61  11.550   5.294  11.397
99388SOL    HW2   62  11.606   5.394  11.496
99389SOL     OW   63   5.540  10.709  11.516
99389SOL    HW1   64   5.592  10.738  11.440
99389SOL    HW2   65   5.489  10.636  11.483
99390SOL     OW   66  10.315  14.806  13.431
99390SOL    HW1   67  10.303  14.877  13.494
99390SOL    HW2   68  10.410  14.799  13.421
99391SOL     OW   69   9.994   0.430  10.895
99391SOL    HW1   70   9.910   0.393  10.922
99391SOL    HW2   71  10.008   0.503  10.954
99392SOL     OW   72   3.625   5.711   6.744
99392SOL    HW1   73   3.544   5.661   6.749
99392SOL    HW2   74   3.665   5.684   6.661
99393SOL     OW   75  12.894   1.500   2.866
99393SOL    HW1   76  12.933   1.531   2.784
99393SOL    HW2   77  12.945   1.422   2.889
99394SOL     OW   78  11.773  10.341   1.615
99394SOL    HW1   79  11.811  10.290   1.544
99394SOL    HW2   80  11.799  10.432   1.597
99395SOL     OW   81   1.108   5.469   7.369
99395SOL    HW1   82   1.123   5.437   7.458
99395SOL    HW2   83   1.118   5.392   7.314
99396SOL     OW   84   3.059   2.664  10.158
99396SOL    HW1   85   3.064   2.744  10.210
99396SOL    HW2   86   2.983   2.618  10.193
99397SOL     OW   87  11.408  11.572  11.088
99397SOL    HW1   88  11.418  11.565  10.993
99397SOL    HW2   89  11.325  11.528  11.107
99398SOL     OW   90   8.015   2.598   0.607
99398SOL    HW1   91   8.109   2.601   0.593
99398SOL    HW2   92   7.980   2.552   0.530
99399SOL     OW   93  12.588   2.408   8.020
99399SOL    HW1   94  12.593   2.369   7.932
99399SOL    HW2   95  12.627   2.341   8.077
99400SOL     OW   96   9.519   9.786   1.724
99400SOL    HW1   97   9.424   9.796   1.716
99400SOL    HW2   98   9.555   9.853   1.666
99401SOL     OW   99  14.179   7.116   2.792
99401SOL    HW1  100  14.259   7.125   2.843
99401SOL    HW2  101  14.169   7.200   2.747
99402SOL     OW  102   4.476  11.034  14.377
99402SOL    HW1  103   4.423  10.975  14.431
99402SOL    HW2  104   4.490  10.986  14.296
99403SOL     OW  105   4.373  12.671   7.763
99403SOL    HW1  106   4.330  12.609   7.822
99403SOL    HW2  107   4.467  12.662   7.782
99404SOL     OW  108   2.839   8.867   1.825
99404SOL    HW1  109   2.852   8.776   1.853
99404SOL    HW2  110   2.753   8.890   1.860
99405SOL     OW  111  14.761   8.004   7.192
99405SOL    HW1  112  14.678   8.017   7.238
99405SOL    HW2  113  14.801   7.928   7.235
99406SOL     OW  114  13.056  13.682  10.122
99406SOL    HW1  115  12.989  13.648  10.181
99406SOL    HW2  116  13.082  13.766  10.160
99407SOL     OW  117   7.207   0.084  13.764
99407SOL    HW1  118   7.174   0.171  13.787
99407SOL    HW2  119   7.134   0.026  13.781
99408SOL     OW  120  14.728   5.268  10.446
99408SOL    HW1  121  14.662   5.222  10.498
99408SOL    HW2  122  14.679   5.315  10.379
99409SOL     OW  123   3.782  10.667   9.025
99409SOL    HW1  124   3.716  10.707   8.969
99409SOL    HW2  125   3.760  10.574   9.026
99410SOL     OW  126   2.803   3.321   4.836
99410SOL    HW1  127   2.893   3.351   4.852
99410SOL    HW2  128   2.765   3.310   4.922
99411SOL     OW  129   0.456   8.138   0.171
99411SOL    HW1  130   0.393   8.074   0.137
99411SOL    HW2  131   0.414   8.223   0.157
99412SOL     OW  132  13.536   1.107  13.140
99412SOL    HW1  133  13.610   1.050  13.160
99412SOL    HW2  134  13.483   1.108  13.219
99413SOL     OW  135   1.177  12.664   9.085
99413SOL    HW1  136   1.176  12.752   9.047
99413SOL    HW2  137   1.255  12.664   9.141
99414SOL     OW  138   0.895   8.989  10.817
99414SOL    HW1  139   0.872   9.035  10.736
99414SOL    HW2  140   0.899   8.897  10.791
99415SOL     OW  141  13.790   1.566   6.322
99415SOL    HW1  142  13.825   1.481   6.294
99415SOL    HW2  143  13.752   1.550   6.408
99416SOL     OW  144   7.955   3.452   9.416
99416SOL    HW1  145   7.963   3.371   9.364
99416SOL    HW2  146   8.046   3.476   9.436
99417SOL     OW  147  12.291   2.394   3.893
99417SOL    HW1  148  12.317   2.481   3.924
99417SOL    HW2  149  12.196   2.390   3.909
99418SOL     OW  150   2.887  12.687  11.375
99418SOL    HW1  151   2.936  12.688  11.458
99418SOL    HW2  152   2.903  12.599  11.340
99419SOL     OW  153  14.821   2.175  11.607
99419SOL    HW1  154  14.738   2.223  11.615
99419SOL    HW2  155  14.887   2.243  11.597
99420SOL     OW  156  13.184   5.234  10.897
99420SOL    HW1  157  13.090   5.242  10.915
99420SOL    HW2  158  13.195   5.273  10.810
99421SOL     OW  159  10.521  11.226   2.601
99421SOL    HW1  160  10.493  11.317   2.613
99421SOL    HW2  161  10.552  11.199   2.687
99422SOL     OW  162   9.316   3.920  14.169
99422SOL    HW1  163   9.300   3.985  14.238
99422SOL    HW2  164   9.351   3.970  14.096
99423SOL     OW  165  13.276  12.736   5.554
99423SOL    HW1  166  13.277  12.796   5.480
99423SOL    HW2  167  13.359  12.751   5.599
99424SOL     OW  168   3.685   9.965   8.233
99424SOL    HW1  169   3.695   9.905   8.159
99424SOL    HW2  170   3.652   9.909   8.304
99425SOL     OW  171   0.299   0.874   8.128
99425SOL    HW1  172   0.310   0.803   8.192
99425SOL    HW2  173   0.245   0.836   8.059
99426SOL     OW  174  11.801   3.408   6.317
99426SOL    HW1  175  11.814   3.469   6.390
99426SOL    HW2  176  11.889   3.394   6.282
99427SOL     OW  177   6.038   8.662   2.347
99427SOL    HW1  178   5.954   8.688   2.308
99427SOL    HW2  179   6.052   8.725   2.418
99428SOL     OW  180   8.011   6.584  14.787
99428SOL    HW1  181   8.042   6.561  14.700
99428SOL    HW2  182   7.916   6.592  14.779
99429SOL     OW  183   5.199  14.800  12.694
99429SOL    HW1  184   5.191  14.853  12.773
99429SOL    HW2  185   5.132  14.835  12.635
99430SOL     OW  186   9.933   7.276   4.288
99430SOL    HW1  187   9.934   7.181   4.275
99430SOL    HW2  188   9.845   7.294   4.320
99431SOL     OW  189  14.673   9.858   2.059
99431SOL    HW1  190  14.694   9.790   2.123
99431SOL    HW2  191  14.702   9.939   2.100
99432SOL     OW  192   5.710  12.133  12.204
99432SOL    HW1  193   5.691  12.171  12.290
99432SOL    HW2  194   5.757  12.202  12.157
99433SOL     OW  195  14.849   6.973   8.531
99433SOL    HW1  196  14.784   6.942   8.595
99433SOL    HW2  197   0.017   7.034   8.580
99434SOL     OW  198   5.491  10.141  10.472
99434SOL    HW1  199   5.503  10.061  10.523
99434SOL    HW2  200   5.498  10.112  10.381
99435SOL     OW  201   2.774  14.042   8.569
99435SOL    HW1  202   2.741  14.068   8.655
99435SOL    HW2  203   2.717  13.970   8.542
99436SOL     OW  204   0.106   2.973  12.543
99436SOL    HW1  205   0.024   3.019  12.561
99436SOL    HW2  206   0.166   3.042  12.514
99437SOL     OW  207   2.273   2.305  14.417
99437SOL    HW1  208   2.318   2.226  14.385
99437SOL    HW2  209   2.182   2.293  14.390
99438SOL     OW  210   4.254   7.344   2.258
99438SOL    HW1  211   4.281   7.322   2.169
99438SOL    HW2  212   4.185   7.409   2.247
99439SOL     OW  213   2.754   7.877   2.809
99439SOL    HW1  214   2.726   7.810   2.871
99439SOL    HW2  215   2.678   7.892   2.753
99440SOL     OW  216   4.557   8.486   6.122
99440SOL    HW1  217   4.561   8.545   6.047
99440SOL    HW2  218   4.640   8.439   6.120
99441SOL     OW  219  13.946   8.964  14.493
99441SOL    HW1  220  13.872   9.012  14.456
99441SOL    HW2  221  13.910   8.921  14.571
99442SOL     OW  222   6.170   7.964   0.494
99442SOL    HW1  223   6.160   7.885   0.546
99442SOL    HW2  224   6.242   8.011   0.535
99443SOL     OW  225   6.656   5.467   7.871
99443SOL    HW1  226   6.671   5.374   7.888
99443SOL    HW2  227   6.564   5.472   7.845
99444SOL     OW  228   9.408   2.156   5.107
99444SOL    HW1  229   9.471   2.124   5.172
99444SOL    HW2  230   9.326   2.166   5.156
99445SOL     OW  231   4.327   1.898   2.481
99445SOL    HW1  232   4.287   1.816   2.450
99445SOL    HW2  233   4.256   1.946   2.523
99446SOL     OW  234   8.331   0.199   8.778
99446SOL    HW1  235   8.305   0.126   8.834
99446SOL    HW2  236   8.382   0.158   8.707
99447SOL     OW  237   5.595   1.738   6.166
99447SOL    HW1  238   5.581   1.648   6.137
99447SOL    HW2  239   5.509   1.768   6.195
99448SOL     OW  240   8.747  11.454   2.236
99448SOL    HW1  241   8.802  11.497   2.301
99448SOL    HW2  242   8.709  11.379   2.283
99449SOL     OW  243   4.909   5.332   4.964
99449SOL    HW1  244   4.964   5.382   5.024
99449SOL    HW2  245   4.820   5.357   4.986
99450SOL     OW  246  11.176  13.017   2.175
99450SOL    HW1  247  11.162  13.081   2.105
99450SOL    HW2  248  11.222  12.945   2.132
99451SOL     OW  249   8.148   6.984  12.905
99451SOL    HW1  250   8.139   6.942  12.990
99451SOL    HW2  251   8.095   6.929  12.846
99452SOL     OW  252  12.792   2.863   5.500
99452SOL    HW1  253  12.734   2.937   5.485
99452SOL    HW2  254  12.784   2.845   5.593
99453SOL     OW  255   8.664  14.489  12.363
99453SOL    HW1  256   8.587  14.464  12.311
99453SOL    HW2  257   8.671  14.420  12.429
99454SOL     OW  258   0.620   5.728   1.561
99454SOL    HW1  259   0.658   5.673   1.493
99454SOL    HW2  260   0.629   5.817   1.528
99455SOL     OW  261   9.891   4.970   2.112
99455SOL    HW1  262   9.888   5.002   2.202
99455SOL    HW2  263   9.981   4.937   2.101
99456SOL     OW  264  12.692  12.320  11.120
99456SOL    HW1  265  12.635  12.262  11.069
99456SOL    HW2  266  12.750  12.359  11.055
99457SOL     OW  267   4.919   0.879   6.892
99457SOL    HW1  268   4.942   0.945   6.826
99457SOL    HW2  269   4.928   0.925   6.975
99458SOL     OW  270   4.141   1.336   5.695
99458SOL    HW1  271   4.216   1.277   5.703
99458SOL    HW2  272   4.178   1.424   5.709
99459SOL     OW  273   6.244  12.335   3.126
99459SOL    HW1  274   6.263  12.425   3.151
99459SOL    HW2  275   6.171  12.309   3.182
99460SOL     OW  276  13.789   0.955   2.017
99460SOL    HW1  277  13.798   0.991   2.105
99460SOL    HW2  278  13.875   0.919   1.996
99461SOL     OW  279   5.272   6.362  10.397
99461SOL    HW1  280   5.253   6.333  10.308
99461SOL    HW2  281   5.221   6.442  10.407
99462SOL     OW  282   1.183   0.743   8.263
99462SOL    HW1  283   1.212   0.804   8.331
99462SOL    HW2  284   1.264   0.715   8.220
99463SOL     OW  285  10.310  14.568  11.838
99463SOL    HW1  286  10.338  14.576  11.930
99463SOL    HW2  287  10.215  14.581  11.840
99464SOL     OW  288   0.160   4.717  14.730
99464SOL    HW1  289   0.192   4.783  14.791
99464SOL    HW2  290   0.239   4.687  14.684
99465SOL     OW  291   9.992   8.597   1.000
99465SOL    HW1  292   9.976   8.655   1.075
99465SOL    HW2  293   9.931   8.628   0.933
99466SOL     OW  294  12.694   4.344   5.485
99466SOL    HW1  295  12.725   4.400   5.557
99466SOL    HW2  296  12.600   4.361   5.480
99467SOL     OW  297   6.724   8.378   2.094
99467SOL    HW1  298   6.688   8.405   2.179
99467SOL    HW2  299   6.819   8.382   2.106
99468SOL     OW  300   4.757  12.985   8.137
99468SOL    HW1  301   4.793  12.956   8.053
99468SOL    HW2  302   4.760  12.907   8.192
99469SOL     OW  303   3.411   5.727  12.021
99469SOL    HW1  304   3.348   5.701  12.087
99469SOL    HW2  305   3.482   5.768  12.071
99470SOL     OW  306  12.837   1.317  14.810
99470SOL    HW1  307  12.929   1.292  14.805
99470SOL    HW2  308  12.818   1.321   0.016
99471SOL     OW  309  13.787   7.481   0.168
99471SOL    HW1  310  13.859   7.528   0.126
99471SOL    HW2  311  13.710   7.501   0.115
99472SOL     OW  312  13.256   7.514  10.310
99472SOL    HW1  313  13.349   7.534  10.301
99472SOL    HW2  314  13.240   7.515  10.404
99473SOL     OW  315   9.259  13.484  10.919
99473SOL    HW1  316   9.314  13.512  10.846
99473SOL    HW2  317   9.171  13.514  10.895
99474SOL     OW  318  13.249  11.928  14.404
99474SOL    HW1  319  13.269  11.919  14.311
99474SOL    HW2  320  13.269  12.020  14.425
99475SOL     OW  321   6.179   4.052  12.093
99475SOL    HW1  322   6.142   3.968  12.069
99475SOL    HW2  323   6.126   4.117  12.047
99476SOL     OW  324   3.700   0.460   0.680
99476SOL    HW1  325   3.628   0.520   0.696
99476SOL    HW2  326   3.752   0.462   0.761
99477SOL     OW  327   3.379   9.994   8.921
99477SOL    HW1  328   3.379  10.056   8.995
99477SOL    HW2  329   3.454   9.938   8.938
99478SOL     OW  330  10.833   2.658   5.179
99478SOL    HW1  331  10.749   2.622   5.148
99478SOL    HW2  332  10.894   2.641   5.106
99479SOL     OW  333  14.014  12.474   2.057
99479SOL    HW1  334  13.923  12.453   2.035
99479SOL    HW2  335  14.022  12.568   2.041
99480SOL     OW  336   0.151   7.014   4.531
99480SOL    HW1  337   0.166   7.038   4.439
99480SOL    HW2  338   0.065   7.053   4.551
99481SOL     OW  339   0.128  12.433   7.916
99481SOL    HW1  340   0.159  12.521   7.938
99481SOL    HW2  341   0.121  12.388   8.001
99482SOL     OW  342   4.963  12.770   5.921
99482SOL    HW1  343   4.878  12.759   5.877
99482SOL    HW2  344   5.022  12.795   5.851
99483SOL     OW  345   1.937   0.293  12.440
99483SOL    HW1  346   1.921   0.376  12.486
99483SOL    HW2  347   1.850   0.257  12.425
99484SOL     OW  348   0.998   7.440   2.166
99484SOL    HW1  349   1.031   7.443   2.256
99484SOL    HW2  350   0.954   7.524   2.153
99485SOL     OW  351  10.878   5.075   6.994
99485SOL    HW1  352  10.912   5.123   6.918
99485SOL    HW2  353  10.898   4.983   6.975
99486SOL     OW  354   5.207   9.273  10.898
99486SOL    HW1  355   5.247   9.260  10.811
99486SOL    HW2  356   5.216   9.188  10.941
99487SOL     OW  357   1.656   5.503   4.686
99487SOL    HW1  358   1.647   5.416   4.648
99487SOL    HW2  359   1.710   5.490   4.763
99488SOL     OW  360   5.931  14.650  10.940
99488SOL    HW1  361   5.874  14.679  11.011
99488SOL    HW2  362   6.016  14.635  10.982
99489SOL     OW  363   0.593   5.585  12.276
99489SOL    HW1  364   0.539   5.521  12.231
99489SOL    HW2  365   0.683   5.559  12.255
99490SOL     OW  366  10.602   5.412   5.557
99490SOL    HW1  367  10.571   5.496   5.524
99490SOL    HW2  368  10.697   5.418   5.555
99491SOL     OW  369   4.496   5.352   7.111
99491SOL    HW1  370   4.497   5.448   7.104
99491SOL    HW2  371   4.578   5.325   7.069
99492SOL     OW  372   9.947  11.984   7.253
99492SOL    HW1  373   9.920  11.980   7.162
99492SOL    HW2  374   9.950  11.893   7.281
99493SOL     OW  375   8.448  13.653   3.483
99493SOL    HW1  376   8.373  13.631   3.538
99493SOL    HW2  377   8.410  13.679   3.399
99494SOL     OW  378   5.548  10.585   2.056
99494SOL    HW1  379   5.562  10.507   2.002
99494SOL    HW2  380   5.453  10.600   2.052
99495SOL     OW  381   9.523   1.150   9.086
99495SOL    HW1  382   9.587   1.181   9.150
99495SOL    HW2  383   9.478   1.230   9.057
99496SOL     OW  384   7.508   6.899  10.048
99496SOL    HW1  385   7.563   6.955   9.993
99496SOL    HW2  386   7.563   6.823  10.067
99497SOL     OW  387  13.987   8.644   6.471
99497SOL    HW1  388  13.938   8.628   6.552
99497SOL    HW2  389  14.007   8.738   6.473
99498SOL     OW  390   4.596   6.891  14.545
99498SOL    HW1  391   4.622   6.824  14.607
99498SOL    HW2  392   4.667   6.895  14.481
99499SOL     OW  393   7.277   4.684   5.922
99499SOL    HW1  394   7.237   4.647   6.001
99499SOL    HW2  395   7.266   4.616   5.855
99500SOL     OW  396  11.435   5.514   2.500
99500SOL    HW1  397  11.528   5.527   2.522
99500SOL    HW2  398  11.387   5.565   2.564
99501SOL     OW  399   9.196   3.008   3.804
99501SOL    HW1  400   9.185   3.025   3.710
99501SOL    HW2  401   9.252   3.080   3.835
99502SOL     OW  402   4.898   3.645   5.213
99502SOL    HW1  403   4.899   3.671   5.305
99502SOL    HW2  404   4.925   3.554   5.213
99503SOL     OW  405   4.460   5.724  11.770
99503SOL    HW1  406   4.404   5.662  11.723
99503SOL    HW2  407   4.532   5.671  11.804
99504SOL     OW  408   4.570  14.279  11.977
99504SOL    HW1  409   4.482  14.266  12.012
99504SOL    HW2  410   4.577  14.217  11.904
99505SOL     OW  411  14.778  14.737   8.543
99505SOL    HW1  412  14.804  14.701   8.458
99505SOL    HW2  413  14.702  14.792   8.524
99506SOL     OW  414  12.755   4.209  12.518
99506SOL    HW1  415  12.782   4.131  12.566
99506SOL    HW2  416  12.783   4.193  12.428
99507SOL     OW  417   0.736  11.472   8.200
99507SOL    HW1  418   0.823  11.493   8.234
99507SOL    HW2  419   0.728  11.377   8.213
99508SOL     OW  420   9.653   0.879   7.416
99508SOL    HW1  421   9.582   0.815   7.419
99508SOL    HW2  422   9.694   0.873   7.502
99509SOL     OW  423   0.340  13.748   0.770
99509SOL    HW1  424   0.295  13.664   0.780
99509SOL    HW2  425   0.431  13.730   0.790
99510SOL     OW  426   8.753   9.312  11.086
99510SOL    HW1  427   8.730   9.332  11.177
99510SOL    HW2  428   8.704   9.232  11.066
99511SOL     OW  429   5.271  13.080  14.573
99511SOL    HW1  430   5.243  12.990  14.556
99511SOL    HW2  431   5.279  13.086  14.668
99512SOL     OW  432  10.090  14.286   9.761
99512SOL    HW1  433  10.000  14.311   9.741
99512SOL    HW2  434  10.087  14.254   9.851
99513SOL     OW  435   3.813  10.147   5.325
99513SOL    HW1  436   3.736  10.178   5.278
99513SOL    HW2  437   3.876  10.124   5.257
99514SOL     OW  438   6.153   7.676   3.553
99514SOL    HW1  439   6.061   7.698   3.538
99514SOL    HW2  440   6.191   7.673   3.466
99515SOL     OW  441   9.238  14.519   0.784
99515SOL    HW1  442   9.273  14.451   0.843
99515SOL    HW2  443   9.266  14.601   0.824
99516SOL     OW  444   6.542  14.847   5.644
99516SOL    HW1  445   6.514  14.819   5.557
99516SOL    HW2  446   6.469   0.013   5.676
99517SOL     OW  447   5.404   2.759  11.658
99517SOL    HW1  448   5.464   2.790  11.590
99517SOL    HW2  449   5.385   2.837  11.710
99518SOL     OW  450  10.799  10.877   9.826
99518SOL    HW1  451  10.744  10.828   9.886
99518SOL    HW2  452  10.800  10.826   9.745
99519SOL     OW  453  14.334  10.377  11.753
99519SOL    HW1  454  14.247  10.353  11.783
99519SOL    HW2  455  14.394  10.334  11.815
99520SOL     OW  456   2.056   9.893   5.589
99520SOL    HW1  457   2.117   9.956   5.550
99520SOL    HW2  458   2.111   9.836   5.642
99521SOL     OW  459  11.454  11.301  11.834
99521SOL    HW1  460  11.531  11.248  11.815
99521SOL    HW2  461  11.436  11.347  11.751
99522SOL     OW  462   1.616   3.642  14.686
99522SOL    HW1  463   1.617   3.734  14.713
99522SOL    HW2  464   1.607   3.644  14.591
99523SOL     OW  465   2.067   9.973  14.197
99523SOL    HW1  466   2.127  10.047  14.194
99523SOL    HW2  467   2.103   9.916  14.265
99524SOL     OW  468  11.719  14.390   8.152
99524SOL    HW1  469  11.775  14.408   8.076
99524SOL    HW2  470  11.638  14.437   8.134
99525SOL     OW  471   7.341   7.597   8.487
99525SOL    HW1  472   7.396   7.519   8.483
99525SOL    HW2  473   7.392   7.660   8.538
99526SOL     OW  474   1.202   5.187   2.459
99526SOL    HW1  475   1.176   5.259   2.401
99526SOL    HW2  476   1.158   5.110   2.422
99527SOL     OW  477  10.877   2.445   3.363
99527SOL    HW1  478  10.914   2.531   3.381
99527SOL    HW2  479  10.947   2.383   3.383
99528SOL     OW  480   1.249   5.530   8.967
99528SOL    HW1  481   1.201   5.588   8.907
99528SOL    HW2  482   1.187   5.460   8.986
99529SOL     OW  483  13.701   2.684   4.277
99529SOL    HW1  484  13.689   2.729   4.193
99529SOL    HW2  485  13.785   2.717   4.310
99530SOL     OW  486   5.197   6.011  12.896
99530SOL    HW1  487   5.117   6.054  12.866
99530SOL    HW2  488   5.169   5.923  12.920
99531SOL     OW  489   0.831  13.433   3.135
99531SOL    HW1  490   0.919  13.452   3.102
99531SOL    HW2  491   0.798  13.518   3.164
99532SOL     OW  492  11.017   0.560   7.657
99532SOL    HW1  493  10.947   0.541   7.720
99532SOL    HW2  494  11.097   0.530   7.701
99533SOL     OW  495   3.043   9.783   7.082
99533SOL    HW1  496   3.025   9.814   7.171
99533SOL    HW2  497   3.130   9.746   7.087
99534SOL     OW  498   6.251   0.168  13.652
99534SOL    HW1  499   6.253   0.167  13.556
99534SOL    HW2  500   6.182   0.231  13.674
99535SOL     OW  501  10.430  11.764   7.007
99535SOL    HW1  502  10.343  11.723   7.000
99535SOL    HW2  503  10.487  11.708   6.954
99536SOL     OW  504  11.920   9.123  10.589
99536SOL    HW1  505  11.882   9.072  10.518
99536SOL    HW2  506  12.010   9.092  10.595
99537SOL     OW  507  14.812   4.029   2.154
99537SOL    HW1  508  14.795   4.105   2.098
99537SOL    HW2  509  14.747   4.037   2.224
99538SOL     OW  510   0.923   9.930   0.047
99538SOL    HW1  511   0.845   9.896   0.003
99538SOL    HW2  512   0.928  10.021   0.018
99539SOL     OW  513   2.511  13.544   5.586
99539SOL    HW1  514   2.530  13.540   5.679
99539SOL    HW2  515   2.465  13.463   5.567
99540SOL     OW  516   4.789  12.106   1.306
99540SOL    HW1  517   4.740  12.128   1.227
99540SOL    HW2  518   4.722  12.078   1.369
99541SOL     OW  519   8.882   0.451   5.226
99541SOL    HW1  520   8.815   0.456   5.294
99541SOL    HW2  521   8.937   0.528   5.241
99542SOL     OW  522   0.439   7.496   7.607
99542SOL    HW1  523   0.472   7.558   7.542
99542SOL    HW2  524   0.433   7.547   7.688
99543SOL     OW  525   2.711   1.149   9.210
99543SOL    HW1  526   2.644   1.193   9.156
99543SOL    HW2  527   2.662   1.084   9.260
99544SOL     OW  528   0.892  10.820  13.861
99544SOL    HW1  529   0.901  10.727  13.843
99544SOL    HW2  530   0.798  10.834  13.871
99545SOL     OW  531   6.371   6.882   0.934
99545SOL    HW1  532   6.409   6.799   0.960
99545SOL    HW2  533   6.347   6.871   0.842
99546SOL     OW  534   3.127   0.524   0.857
99546SOL    HW1  535   3.202   0.551   0.910
99546SOL    HW2  536   3.079   0.605   0.839
99547SOL     OW  537   3.420  11.128  14.675
99547SOL    HW1  538   3.487  11.081  14.626
99547SOL    HW2  539   3.344  11.129  14.617
99548SOL     OW  540  11.355  13.051   8.636
99548SOL    HW1  541  11.409  13.072   8.712
99548SOL    HW2  542  11.416  13.050   8.562
99549SOL     OW  543   7.356  11.864   4.894
99549SOL    HW1  544   7.419  11.805   4.852
99549SOL    HW2  545   7.318  11.812   4.964
99550SOL     OW  546   0.286   9.017   1.013
99550SOL    HW1  547   0.272   9.112   1.010
99550SOL    HW2  548   0.326   8.996   0.928
99551SOL     OW  549   2.446   5.642   3.408
99551SOL    HW1  550   2.408   5.619   3.493
99551SOL    HW2  551   2.467   5.735   3.415
99552SOL     OW  552  10.878   2.798   0.984
99552SOL    HW1  553  10.969   2.815   0.962
99552SOL    HW2  554  10.851   2.728   0.925
99553SOL     OW  555   9.325   3.659   5.319
99553SOL    HW1  556   9.397   3.699   5.369
99553SOL    HW2  557   9.352   3.667   5.227
99554SOL     OW  558   6.117   8.700   3.213
99554SOL    HW1  559   6.025   8.712   3.235
99554SOL    HW2  560   6.126   8.734   3.124
99555SOL     OW  561   7.677   4.654   4.590
99555SOL    HW1  562   7.669   4.650   4.685
99555SOL    HW2  563   7.753   4.709   4.574
99556SOL     OW  564  13.865   7.083  13.707
99556SOL    HW1  565  13.877   7.168  13.663
99556SOL    HW2  566  13.931   7.026  13.668
99557SOL     OW  567  14.027   7.539   5.634
99557SOL    HW1  568  13.995   7.625   5.607
99557SOL    HW2  569  13.986   7.477   5.574
99558SOL     OW  570  12.831  13.747   4.896
99558SOL    HW1  571  12.806  13.773   4.807
99558SOL    HW2  572  12.807  13.821   4.951
99559SOL     OW  573  13.685  11.159   1.200
99559SOL    HW1  574  13.634  11.083   1.229
99559SOL    HW2  575  13.740  11.125   1.129
99560SOL     OW  576   0.973  12.632  11.755
99560SOL    HW1  577   0.913  12.559  11.771
99560SOL    HW2  578   1.045  12.593  11.705
99561SOL     OW  579   7.980   1.011   2.559
99561SOL    HW1  580   8.049   0.953   2.526
99561SOL    HW2  581   7.899   0.968   2.534
99562SOL     OW  582   2.723   9.716  13.802
99562SOL    HW1  583   2.758   9.656  13.737
99562SOL    HW2  584   2.765   9.800  13.783
99563SOL     OW  585   0.996   8.094  11.246
99563SOL    HW1  586   1.009   8.139  11.162
99563SOL    HW2  587   1.031   8.154  11.311
99564SOL     OW  588   5.191   2.085  13.238
99564SOL    HW1  589   5.178   2.179  13.246
99564SOL    HW2  590   5.270   2.076  13.185
99565SOL     OW  591   1.701   9.631  11.719
99565SOL    HW1  592   1.704   9.535  11.717
99565SOL    HW2  593   1.632   9.651  11.782
99566SOL     OW  594   6.728  10.411   0.416
99566SOL    HW1  595   6.665  10.476   0.447
99566SOL    HW2  596   6.755  10.363   0.495
99567SOL     OW  597   1.921   7.649  10.670
99567SOL    HW1  598   1.960   7.666  10.756
99567SOL    HW2  599   1.835   7.612  10.690
99568SOL     OW  600   6.791   2.452  14.828
99568SOL    HW1  601   6.755   2.452  14.740
99568SOL    HW2  602   6.819   2.542  14.843
99569SOL     OW  603   5.148   0.116   8.033
99569SOL    HW1  604   5.126   0.188   8.092
99569SOL    HW2  605   5.108   0.140   7.950
99570SOL     OW  606   7.481   0.572   4.674
99570SOL    HW1  607   7.390   0.555   4.646
99570SOL    HW2  608   7.519   0.621   4.601
99571SOL     OW  609   4.695  12.445   7.456
99571SOL    HW1  610   4.690  12.371   7.517
99571SOL    HW2  611   4.613  12.440   7.406
99572SOL     OW  612   0.284   5.016   7.449
99572SOL    HW1  613   0.227   5.093   7.438
99572SOL    HW2  614   0.289   5.004   7.544
99573SOL     OW  615  14.069   4.691   7.603
99573SOL    HW1  616  14.010   4.617   7.614
99573SOL    HW2  617  14.098   4.685   7.512
99574SOL     OW  618   5.952   5.105   3.596
99574SOL    HW1  619   6.013   5.033   3.579
99574SOL    HW2  620   5.877   5.063   3.639
99575SOL     OW  621   7.167  11.299  14.604
99575SOL    HW1  622   7.136  11.368  14.546
99575SOL    HW2  623   7.217  11.346  14.671
99576SOL     OW  624  12.982   2.654   9.041
99576SOL    HW1  625  12.924   2.638   8.966
99576SOL    HW2  626  13.067   2.621   9.012
99577SOL     OW  627   6.448  14.042  12.972
99577SOL    HW1  628   6.416  14.104  12.906
99577SOL    HW2  629   6.428  14.083  13.056
99578SOL     OW  630  12.014   9.239  10.001
99578SOL    HW1  631  11.950   9.172   9.975
99578SOL    HW2  632  11.998   9.251  10.095
99579SOL     OW  633  10.536   9.956   9.571
99579SOL    HW1  634  10.537  10.046   9.604
99579SOL    HW2  635  10.570   9.903   9.643
99580SOL     OW  636   2.542  12.709  11.582
99580SOL    HW1  637   2.560  12.746  11.496
99580SOL    HW2  638   2.586  12.625  11.582
99581SOL     OW  639   3.775   9.451   0.471
99581SOL    HW1  640   3.734   9.369   0.446
99581SOL    HW2  641   3.811   9.486   0.389
99582SOL     OW  642   7.703   2.972   1.336
99582SOL    HW1  643   7.707   2.886   1.376
99582SOL    HW2  644   7.787   3.013   1.357
99583SOL     OW  645   8.935   6.722   2.470
99583SOL    HW1  646   8.949   6.730   2.376
99583SOL    HW2  647   8.931   6.813   2.501
99584SOL     OW  648  13.140   3.366  11.739
99584SOL    HW1  649  13.156   3.408  11.824
99584SOL    HW2  650  13.201   3.410  11.680
99585SOL     OW  651   7.336  11.820  11.089
99585SOL    HW1  652   7.267  11.767  11.128
99585SOL    HW2  653   7.417  11.782  11.124
99586SOL     OW  654   6.097  10.519   0.064
99586SOL    HW1  655   6.134  10.587   0.120
99586SOL    HW2  656   6.072  10.449   0.124
99587SOL     OW  657   8.278  10.692   7.127
99587SOL    HW1  658   8.280  10.646   7.211
99587SOL    HW2  659   8.207  10.651   7.079
99588SOL     OW  660  10.489  14.348   2.846
99588SOL    HW1  661  10.514  14.332   2.755
99588SOL    HW2  662  10.430  14.275   2.868
99589SOL     OW  663   9.578   1.677   3.433
99589SOL    HW1  664   9.581   1.584   3.414
99589SOL    HW2  665   9.669   1.704   3.441
99590SOL     OW  666   8.944   1.490   3.778
99590SOL    HW1  667   9.027   1.481   3.826
99590SOL    HW2  668   8.940   1.582   3.755
99591SOL     OW  669   8.079   5.602   4.252
99591SOL    HW1  670   8.010   5.633   4.311
99591SOL    HW2  671   8.040   5.528   4.205
99592SOL     OW  672  14.095   9.875   0.758
99592SOL    HW1  673  14.052   9.812   0.815
99592SOL    HW2  674  14.058   9.858   0.671
99593SOL     OW  675   0.215   5.079  12.981
99593SOL    HW1  676   0.255   5.126  13.054
99593SOL    HW2  677   0.121   5.093  12.990
99594SOL     OW  678   6.463   3.664   0.861
99594SOL    HW1  679   6.462   3.727   0.933
99594SOL    HW2  680   6.510   3.710   0.791
99595SOL     OW  681  11.019   0.017  11.934
99595SOL    HW1  682  10.928   0.047  11.931
99595SOL    HW2  683  11.016  14.826  11.989
99596SOL     OW  684  14.007   0.810  11.336
99596SOL    HW1  685  13.943   0.755  11.380
99596SOL    HW2  686  14.011   0.889  11.389
99597SOL     OW  687  13.934   0.891  10.545
99597SOL    HW1  688  13.953   0.867  10.454
99597SOL    HW2  689  14.017   0.926  10.577
99598SOL     OW  690   2.457  12.083  11.183
99598SOL    HW1  691   2.478  12.112  11.094
99598SOL    HW2  692   2.367  12.114  11.197
99599SOL     OW  693  14.610   7.222   7.333
99599SOL    HW1  694  14.548   7.256   7.268
99599SOL    HW2  695  14.655   7.300   7.367
99600SOL     OW  696   7.720   4.050   2.613
99600SOL    HW1  697   7.730   4.088   2.701
99600SOL    HW2  698   7.706   4.126   2.556
99601SOL     OW  699  14.567   0.053  12.370
99601SOL    HW1  700  14.518   0.004  12.303
99601SOL    HW2  701  14.501   0.111  12.410
99602SOL     OW  702  11.264  11.376   0.262
99602SOL    HW1  703  11.170  11.388   0.245
99602SOL    HW2  704  11.294  11.318   0.192
99603SOL     OW  705  11.670   7.818   8.182
99603SOL    HW1  706  11.599   7.773   8.228
99603SOL    HW2  707  11.713   7.750   8.131
99604SOL     OW  708   3.667  13.793   8.344
99604SOL    HW1  709   3.752  13.816   8.381
99604SOL    HW2  710   3.615  13.765   8.419
99605SOL     OW  711   2.495   0.299  14.587
99605SOL    HW1  712   2.448   0.297  14.503
99605SOL    HW2  713   2.431   0.269  14.651
99606SOL     OW  714   0.042   1.587   7.851
99606SOL    HW1  715   0.118   1.591   7.910
99606SOL    HW2  716   0.029   1.494   7.835
99607SOL     OW  717   4.249   6.602   8.727
99607SOL    HW1  718   4.339   6.635   8.738
99607SOL    HW2  719   4.194   6.668   8.768
99608SOL     OW  720  11.714   4.615  14.286
99608SOL    HW1  721  11.793   4.562  14.279
99608SOL    HW2  722  11.669   4.581  14.364
99609SOL     OW  723  14.405   6.634   9.803
99609SOL    HW1  724  14.363   6.574   9.864
99609SOL    HW2  725  14.333   6.670   9.751
99610SOL     OW  726  10.381  12.832  14.583
99610SOL    HW1  727  10.363  12.907  14.527
99610SOL    HW2  728  10.307  12.828  14.643
99611SOL     OW  729  11.380  10.475   5.086
99611SOL    HW1  730  11.306  10.505   5.033
99611SOL    HW2  731  11.449  10.456   5.023
99612SOL     OW  732   1.372   0.345   5.895
99612SOL    HW1  733   1.334   0.316   5.978
99612SOL    HW2  734   1.319   0.421   5.870
99613SOL     OW  735  14.413  14.854   3.459
99613SOL    HW1  736  14.419  14.808   3.375
99613SOL    HW2  737  14.403   0.059   3.436
99614SOL     OW  738   3.570   6.626  14.428
99614SOL    HW1  739   3.619   6.709  14.420
99614SOL    HW2  740   3.479   6.653  14.433
99615SOL     OW  741   7.028  10.424   4.365
99615SOL    HW1  742   7.057  10.507   4.326
99615SOL    HW2  743   6.937  10.416   4.336
99616SOL     OW  744   4.342   9.507   7.306
99616SOL    HW1  745   4.302   9.439   7.360
99616SOL    HW2  746   4.387   9.564   7.368
99617SOL     OW  747   2.647  10.961   6.035
99617SOL    HW1  748   2.680  10.880   6.074
99617SOL    HW2  749   2.645  11.024   6.107
99618SOL     OW  750   0.493  11.031  12.946
99618SOL    HW1  751   0.418  11.002  12.893
99618SOL    HW2  752   0.493  11.126  12.939
99619SOL     OW  753   0.974  11.797   9.980
99619SOL    HW1  754   1.040  11.796   9.911
99619SOL    HW2  755   0.896  11.758   9.940
99620SOL     OW  756   3.753  11.682  10.013
99620SOL    HW1  757   3.763  11.752  10.077
99620SOL    HW2  758   3.817  11.701   9.945
99621SOL     OW  759   0.885  14.623   2.123
99621SOL    HW1  760   0.952  14.565   2.090
99621SOL    HW2  761   0.803  14.575   2.112
99622SOL     OW  762   4.596   7.562   2.042
99622SOL    HW1  763   4.666   7.625   2.059
99622SOL    HW2  764   4.539   7.605   1.979
99623SOL     OW  765  10.619   3.920   7.765
99623SOL    HW1  766  10.534   3.928   7.807
99623SOL    HW2  767  10.602   3.873   7.683
99624SOL     OW  768   0.684  14.458   2.040
99624SOL    HW1  769   0.656  14.367   2.044
99624SOL    HW2  770   0.698  14.475   1.946
99625SOL     OW  771   1.824  11.646  11.731
99625SOL    HW1  772   1.796  11.555  11.728
99625SOL    HW2  773   1.814  11.678  11.641
99626SOL     OW  774   8.560   2.578   1.589
99626SOL    HW1  775   8.492   2.529   1.635
99626SOL    HW2  776   8.512   2.642   1.538
99627SOL     OW  777   2.919   0.776  12.507
99627SOL    HW1  778   2.913   0.828  12.587
99627SOL    HW2  779   2.830   0.745  12.493
99628SOL     OW  780   3.228   1.871  10.518
99628SOL    HW1  781   3.147   1.834  10.554
99628SOL    HW2  782   3.262   1.803  10.461
99629SOL     OW  783  14.543   2.226  11.711
99629SOL    HW1  784  14.594   2.164  11.764
99629SOL    HW2  785  14.461   2.236  11.759
99630SOL     OW  786   5.491  14.854  12.236
99630SOL    HW1  787   5.479   0.014  12.318
99630SOL    HW2  788   5.463  14.764  12.255
99631SOL     OW  789  12.257   5.672   0.591
99631SOL    HW1  790  12.323   5.606   0.613
99631SOL    HW2  791  12.260   5.680   0.496
99632SOL     OW  792   9.889  11.630   0.222
99632SOL    HW1  793   9.972  11.584   0.227
99632SOL    HW2  794   9.842  11.602   0.301
99633SOL     OW  795   2.962  10.095  10.403
99633SOL    HW1  796   2.930  10.090  10.493
99633SOL    HW2  797   3.039  10.037  10.401
99634SOL     OW  798   5.569   1.706   8.171
99634SOL    HW1  799   5.502   1.741   8.230
99634SOL    HW2  800   5.557   1.611   8.175
99635SOL     OW  801  11.894  10.065  12.659
99635SOL    HW1  802  11.839  10.129  12.613
99635SOL    HW2  803  11.895  10.095  12.750
99636SOL     OW  804   3.191   9.615   8.061
99636SOL    HW1  805   3.183   9.589   8.153
99636SOL    HW2  806   3.268   9.671   8.059
99637SOL     OW  807   9.018   2.154   8.389
99637SOL    HW1  808   8.931   2.157   8.430
99637SOL    HW2  809   9.079   2.175   8.460
99638SOL     OW  810  12.741   8.589  12.667
99638SOL    HW1  811  12.718   8.667  12.617
99638SOL    HW2  812  12.719   8.516  12.609
99639SOL     OW  813   3.123   1.726   5.617
99639SOL    HW1  814   3.161   1.658   5.561
99639SOL    HW2  815   3.036   1.743   5.580
99640SOL     OW  816   6.834   9.229   9.401
99640SOL    HW1  817   6.816   9.231   9.307
99640SOL    HW2  818   6.871   9.315   9.421
99641SOL     OW  819   6.302   5.061   1.946
99641SOL    HW1  820   6.211   5.076   1.920
99641SOL    HW2  821   6.315   5.118   2.022
99642SOL     OW  822  11.320   0.786   8.003
99642SOL    HW1  823  11.249   0.765   7.942
99642SOL    HW2  824  11.394   0.732   7.974
99643SOL     OW  825  11.846   4.048  14.697
99643SOL    HW1  826  11.906   3.975  14.682
99643SOL    HW2  827  11.889   4.100  14.765
99644SOL     OW  828  11.882   1.861   6.698
99644SOL    HW1  829  11.877   1.948   6.739
99644SOL    HW2  830  11.852   1.800   6.765
99645SOL     OW  831   3.538   3.654  14.783
99645SOL    HW1  832   3.564   3.725  14.724
99645SOL    HW2  833   3.447   3.636  14.759
99646SOL     OW  834  12.508  13.947   0.755
99646SOL    HW1  835  12.437  13.892   0.790
99646SOL    HW2  836  12.586  13.891   0.759
99647SOL     OW  837   3.860  11.797   2.074
99647SOL    HW1  838   3.912  11.719   2.059
99647SOL    HW2  839   3.920  11.870   2.061
99648SOL     OW  840   5.960  14.672   0.348
99648SOL    HW1  841   6.046  14.695   0.315
99648SOL    HW2  842   5.900  14.730   0.301
99649SOL     OW  843  13.220  10.450  12.944
99649SOL    HW1  844  13.224  10.357  12.920
99649SOL    HW2  845  13.250  10.497  12.866
99650SOL     OW  846   2.872   6.981   5.027
99650SOL    HW1  847   2.851   7.005   4.937
99650SOL    HW2  848   2.919   7.058   5.061
99651SOL     OW  849  13.575  13.762   7.936
99651SOL    HW1  850  13.556  13.675   7.972
99651SOL    HW2  851  13.624  13.744   7.856
99652SOL     OW  852   8.128  13.230  10.091
99652SOL    HW1  853   8.126  13.135  10.095
99652SOL    HW2  854   8.045  13.254  10.050
99653SOL     OW  855  12.380   7.312  11.622
99653SOL    HW1  856  12.471   7.325  11.593
99653SOL    HW2  857  12.346   7.244  11.564
99654SOL     OW  858   7.348  10.325  14.444
99654SOL    HW1  859   7.339  10.408  14.398
99654SOL    HW2  860   7.259  10.298  14.463
99655SOL     OW  861   7.207   1.462   8.133
99655SOL    HW1  862   7.239   1.415   8.210
99655SOL    HW2  863   7.285   1.481   8.082
99656SOL     OW  864   2.434   4.748  13.781
99656SOL    HW1  865   2.372   4.821  13.784
99656SOL    HW2  866   2.424   4.711  13.693
99657SOL     OW  867  12.053   1.376   4.064
99657SOL    HW1  868  12.088   1.408   4.148
99657SOL    HW2  869  12.094   1.432   3.998
99658SOL     OW  870  12.979  11.540   7.209
99658SOL    HW1  871  12.986  11.618   7.154
99658SOL    HW2  872  12.932  11.569   7.287
99659SOL     OW  873  10.650  10.599   3.972
99659SOL    HW1  874  10.695  10.532   4.024
99659SOL    HW2  875  10.720  10.641   3.922
99660SOL     OW  876  13.486  10.497   4.938
99660SOL    HW1  877  13.516  10.421   4.989
99660SOL    HW2  878  13.401  10.519   4.977
99661SOL     OW  879   0.156   4.442   9.775
99661SOL    HW1  880   0.218   4.466   9.844
99661SOL    HW2  881   0.084   4.398   9.821
99662SOL     OW  882   9.300   6.764  11.257
99662SOL    HW1  883   9.356   6.687  11.260
99662SOL    HW2  884   9.286   6.788  11.349
99663SOL     OW  885   8.860   9.254   9.545
99663SOL    HW1  886   8.934   9.306   9.578
99663SOL    HW2  887   8.855   9.275   9.452
99664SOL     OW  888   5.386   4.062   7.044
99664SOL    HW1  889   5.382   4.154   7.017
99664SOL    HW2  890   5.479   4.040   7.040
99665SOL     OW  891   3.974  12.425   2.942
99665SOL    HW1  892   4.005  12.391   3.026
99665SOL    HW2  893   3.900  12.481   2.965
99666SOL     OW  894  11.873   8.598   5.318
99666SOL    HW1  895  11.863   8.624   5.226
99666SOL    HW2  896  11.966   8.609   5.336
99667SOL     OW  897  14.609  11.867   7.901
99667SOL    HW1  898  14.699  11.878   7.871
99667SOL    HW2  899  14.616  11.803   7.972
99668SOL     OW  900   8.720   7.299   3.700
99668SOL    HW1  901   8.680   7.372   3.748
99668SOL    HW2  902   8.806   7.288   3.740
99669SOL     OW  903   0.324  11.114   7.041
99669SOL    HW1  904   0.267  11.037   7.038
99669SOL    HW2  905   0.266  11.185   7.071
99670SOL     OW  906   4.730   7.923   4.073
99670SOL    HW1  907   4.779   7.984   4.018
99670SOL    HW2  908   4.771   7.838   4.057
99671SOL     OW  909  14.033   6.990  12.796
99671SOL    HW1  910  14.092   7.027  12.730
99671SOL    HW2  911  13.945   7.015  12.766
99672SOL     OW  912   8.636   4.211   7.554
99672SOL    HW1  913   8.642   4.304   7.531
99672SOL    HW2  914   8.542   4.196   7.565
99673SOL     OW  915  12.804   9.132   1.565
99673SOL    HW1  916  12.884   9.166   1.605
99673SOL    HW2  917  12.734   9.168   1.619
99674SOL     OW  918  14.061  10.925   4.454
99674SOL    HW1  919  14.022  10.943   4.369
99674SOL    HW2  920  14.144  10.974   4.453
99675SOL     OW  921  13.628   2.548  14.274
99675SOL    HW1  922  13.568   2.597  14.330
99675SOL    HW2  923  13.617   2.457  14.301
99676SOL     OW  924  12.338   3.125  10.689
99676SOL    HW1  925  12.423   3.131  10.731
99676SOL    HW2  926  12.352   3.067  10.614
99677SOL     OW  927  14.428  10.592  12.226
99677SOL    HW1  928  14.516  10.552  12.228
99677SOL    HW2  929  14.439  10.670  12.172
99678SOL     OW  930  12.291   3.214   3.079
99678SOL    HW1  931  12.333   3.210   2.993
99678SOL    HW2  932  12.197   3.210   3.060
99679SOL     OW  933   0.347   7.391  14.521
99679SOL    HW1  934   0.384   7.430  14.600
99679SOL    HW2  935   0.383   7.443  14.449
99680SOL     OW  936  14.498   2.896   5.639
99680SOL    HW1  937  14.408   2.890   5.607
99680SOL    HW2  938  14.510   2.989   5.659
99681SOL     OW  939  13.564  11.588   4.145
99681SOL    HW1  940  13.598  11.616   4.230
99681SOL    HW2  941  13.507  11.514   4.164
99682SOL     OW  942   2.286   0.704   8.601
99682SOL    HW1  943   2.215   0.746   8.648
99682SOL    HW2  944   2.347   0.775   8.580
99683SOL     OW  945   5.192  13.048   4.994
99683SOL    HW1  946   5.223  12.981   5.054
99683SOL    HW2  947   5.203  13.010   4.907
99684SOL     OW  948   7.827   2.337   7.621
99684SOL    HW1  949   7.776   2.413   7.649
99684SOL    HW2  950   7.918   2.364   7.634
99685SOL     OW  951  14.310   3.905   3.410
99685SOL    HW1  952  14.397   3.916   3.447
99685SOL    HW2  953  14.255   3.965   3.461
99686SOL     OW  954  14.734   2.708   2.228
99686SOL    HW1  955  14.715   2.633   2.285
99686SOL    HW2  956  14.806   2.753   2.271
99687SOL     OW  957  13.293   1.196   3.490
99687SOL    HW1  958  13.370   1.193   3.433
99687SOL    HW2  959  13.316   1.260   3.557
99688SOL     OW  960   1.322   4.918   6.875
99688SOL    HW1  961   1.411   4.953   6.868
99688SOL    HW2  962   1.318   4.882   6.964
99689SOL     OW  963   7.703   1.550  13.026
99689SOL    HW1  964   7.650   1.482  12.986
99689SOL    HW2  965   7.684   1.542  13.120
99690SOL     OW  966  12.793   8.832   8.590
99690SOL    HW1  967  12.842   8.792   8.519
99690SOL    HW2  968  12.843   8.910   8.614
99691SOL     OW  969  12.787  10.249   2.822
99691SOL    HW1  970  12.855  10.189   2.850
99691SOL    HW2  971  12.706  10.197   2.824
99692SOL     OW  972  11.905  11.588   5.539
99692SOL    HW1  973  11.852  11.604   5.461
99692SOL    HW2  974  11.907  11.493   5.548
99693SOL     OW  975   9.810   1.641  10.061
99693SOL    HW1  976   9.876   1.709  10.074
99693SOL    HW2  977   9.846   1.585   9.992
99694SOL     OW  978  10.348   5.563  12.632
99694SOL    HW1  979  10.381   5.602  12.713
99694SOL    HW2  980  10.263   5.526  12.657
99695SOL     OW  981   7.515   5.166  12.660
99695SOL    HW1  982   7.595   5.216  12.646
99695SOL    HW2  983   7.469   5.214  12.730
99696SOL     OW  984  13.320   9.502  13.604
99696SOL    HW1  985  13.330   9.570  13.537
99696SOL    HW2  986  13.226   9.489  13.611
99697SOL     OW  987  12.970  13.839   2.819
99697SOL    HW1  988  12.890  13.798   2.785
99697SOL    HW2  989  13.018  13.867   2.741
99698SOL     OW  990  13.619   3.313   8.139
99698SOL    HW1  991  13.534   3.276   8.115
99698SOL    HW2  992  13.599   3.377   8.207
99699SOL     OW  993  12.898   5.481   7.628
99699SOL    HW1  994  12.838   5.418   7.669
99699SOL    HW2  995  12.980   5.432   7.619
99700SOL     OW  996  13.286   4.950  10.768
99700SOL    HW1  997  13.316   4.948  10.677
99700SOL    HW2  998  13.191   4.958  10.761
99701SOL     OW  999   5.336   6.714   2.934
99701SOL    HW1 1000   5.361   6.640   2.990
99701SOL    HW2 1001   5.371   6.791   2.980
99702SOL     OW 1002   3.297  14.788   2.264
99702SOL    HW1 1003   3.297  14.693   2.252
99702SOL    HW2 1004   3.246  14.802   2.344
99703SOL     OW 1005   9.591   6.622   2.804
99703SOL    HW1 1006   9.551   6.538   2.782
99703SOL    HW2 1007   9.519   6.686   2.796
99704SOL     OW 1008   2.323   9.955  13.442
99704SOL    HW1 1009   2.298   9.872  13.483
99704SOL    HW2 1010   2.272   9.957  13.360
99705SOL     OW 1011   6.070   0.230  13.210
99705SOL    HW1 1012   6.073   0.143  13.250
99705SOL    HW2 1013   6.134   0.225  13.138
99706SOL     OW 1014   3.012  12.160   9.320
99706SOL    HW1 1015   3.092  12.205   9.348
99706SOL    HW2 1016   2.943  12.200   9.375
99707SOL     OW 1017   9.004   7.986  13.518
99707SOL    HW1 1018   9.048   8.070  13.533
99707SOL    HW2 1019   8.928   8.008  13.464
99708SOL     OW 1020   0.988  13.622   7.115
99708SOL    HW1 1021   0.980  13.672   7.034
99708SOL    HW2 1022   1.038  13.544   7.091
99709SOL     OW 1023  11.067   4.494   3.393
99709SOL    HW1 1024  10.995   4.529   3.340
99709SOL    HW2 1025  11.120   4.570   3.416
99710SOL     OW 1026  12.828   0.991   5.609
99710SOL    HW1 1027  12.795   0.933   5.541
99710SOL    HW2 1028  12.779   0.966   5.687
99711SOL     OW 1029   1.714  13.235   1.100
99711SOL    HW1 1030   1.647  13.207   1.161
99711SOL    HW2 1031   1.786  13.173   1.113
99712SOL     OW 1032   9.623   7.767  12.147
99712SOL    HW1 1033   9.567   7.811  12.083
99712SOL    HW2 1034   9.712   7.796  12.124
99713SOL     OW 1035  13.338  10.172  10.194
99713SOL    HW1 1036  13.432  10.184  10.210
99713SOL    HW2 1037  13.331  10.084  10.157
99714SOL     OW 1038   9.136   2.746  13.614
99714SOL    HW1 1039   9.188   2.818  13.577
99714SOL    HW2 1040   9.083   2.788  13.682
99715SOL     OW 1041   5.585   5.543   7.683
99715SOL    HW1 1042   5.590   5.450   7.658
99715SOL    HW2 1043   5.639   5.549   7.761
99716SOL     OW 1044   8.639   2.602  10.039
99716SOL    HW1 1045   8.715   2.648  10.004
99716SOL    HW2 1046   8.588   2.578   9.961
99717SOL     OW 1047   7.501   7.540   7.250
99717SOL    HW1 1048   7.527   7.456   7.211
99717SOL    HW2 1049   7.523   7.531   7.342
99718SOL     OW 1050   1.016   3.149  11.470
99718SOL    HW1 1051   1.054   3.139  11.383
99718SOL    HW2 1052   1.076   3.208  11.516
99719SOL     OW 1053  13.493  11.475   8.258
99719SOL    HW1 1054  13.465  11.528   8.183
99719SOL    HW2 1055  13.582  11.502   8.276
99720SOL     OW 1056   0.396   8.252  12.877
99720SOL    HW1 1057   0.384   8.278  12.786
99720SOL    HW2 1058   0.423   8.332  12.922
99721SOL     OW 1059   2.951   1.269   7.376
99721SOL    HW1 1060   2.983   1.359   7.365
99721SOL    HW2 1061   3.016   1.228   7.434
99722SOL     OW 1062  12.052   1.370  13.720
99722SOL    HW1 1063  12.003   1.439  13.765
99722SOL    HW2 1064  11.985   1.309  13.690
99723SOL     OW 1065   7.575   0.157   1.766
99723SOL    HW1 1066   7.487   0.184   1.740
99723SOL    HW2 1067   7.604   0.098   1.696
99724SOL     OW 1068   7.036  10.766   9.973
99724SOL    HW1 1069   7.060  10.714  10.050
99724SOL    HW2 1070   7.120  10.787   9.932
99725SOL     OW 1071  13.767   0.589  11.908
99725SOL    HW1 1072  13.792   0.664  11.855
99725SOL    HW2 1073  13.720   0.531  11.847
99726SOL     OW 1074   0.745   4.861   7.784
99726SOL    HW1 1075   0.690   4.799   7.831
99726SOL    HW2 1076   0.805   4.806   7.733
99727SOL     OW 1077   0.776   9.680  14.348
99727SOL    HW1 1078   0.686   9.706  14.330
99727SOL    HW2 1079   0.770   9.614  14.417
99728SOL     OW 1080  10.928  10.538   9.681
99728SOL    HW1 1081  10.971  10.453   9.683
99728SOL    HW2 1082  10.910  10.554   9.589
99729SOL     OW 1083   9.943   4.985   7.955
99729SOL    HW1 1084   9.911   5.051   7.893
99729SOL    HW2 1085   9.872   4.977   8.019
99730SOL     OW 1086  11.859  14.600   0.766
99730SOL    HW1 1087  11.876  14.638   0.852
99730SOL    HW2 1088  11.794  14.658   0.727
99731SOL     OW 1089   3.422   5.467   4.693
99731SOL    HW1 1090   3.372   5.484   4.613
99731SOL    HW2 1091   3.479   5.542   4.702
99732SOL     OW 1092   1.741   4.670   2.748
99732SOL    HW1 1093   1.744   4.588   2.797
99732SOL    HW2 1094   1.649   4.697   2.754
99733SOL     OW 1095  13.717   2.413   6.410
99733SOL    HW1 1096  13.766   2.332   6.396
99733SOL    HW2 1097  13.690   2.408   6.502
99734SOL     OW 1098   7.454  12.981   0.212
99734SOL    HW1 1099   7.541  12.979   0.172
99734SOL    HW2 1100   7.427  13.072   0.204
99735SOL     OW 1101   8.555   6.716   1.090
99735SOL    HW1 1102   8.597   6.772   1.025
99735SOL    HW2 1103   8.609   6.725   1.168
99736SOL     OW 1104  11.708   2.106   8.458
99736SOL    HW1 1105  11.681   2.063   8.377
99736SOL    HW2 1106  11.716   2.036   8.522
99737SOL     OW 1107  10.338  14.799   3.103
99737SOL    HW1 1108  10.337  14.816   3.197
99737SOL    HW2 1109  10.426  14.824   3.075
99738SOL     OW 1110  12.351  14.384  13.425
99738SOL    HW1 1111  12.294  14.316  13.461
99738SOL    HW2 1112  12.291  14.454  13.400
99739SOL     OW 1113   8.032   3.530   2.753
99739SOL    HW1 1114   8.084   3.527   2.673
99739SOL    HW2 1115   7.942   3.537   2.723
99740SOL     OW 1116  11.931   6.900  10.551
99740SOL    HW1 1117  11.873   6.971  10.576
99740SOL    HW2 1118  12.017   6.942  10.540
99741SOL     OW 1119   1.650  12.592   9.887
99741SOL    HW1 1120   1.672  12.638   9.806
99741SOL    HW2 1121   1.616  12.660   9.945
99742SOL     OW 1122   7.924  11.621   0.955
99742SOL    HW1 1123   7.970  11.702   0.936
99742SOL    HW2 1124   7.915  11.578   0.870
99743SOL     OW 1125  10.634   8.439  13.329
99743SOL    HW1 1126  10.543   8.468  13.331
99743SOL    HW2 1127  10.677   8.489  13.398
99744SOL     OW 1128   6.598  13.866   9.725
99744SOL    HW1 1129   6.612  13.818   9.807
99744SOL    HW2 1130   6.659  13.826   9.663
99745SOL     OW 1131   3.834   1.443   0.971
99745SOL    HW1 1132   3.847   1.507   0.901
99745SOL    HW2 1133   3.783   1.490   1.037
99746SOL     OW 1134  10.949   5.866  11.281
99746SOL    HW1 1135  10.875   5.919  11.308
99746SOL    HW2 1136  11.012   5.928  11.246
99747SOL     OW 1137   7.735   6.408   7.159
99747SOL    HW1 1138   7.707   6.455   7.238
99747SOL    HW2 1139   7.784   6.333   7.192
99748SOL     OW 1140   9.264   6.176  13.656
99748SOL    HW1 1141   9.293   6.201  13.744
99748SOL    HW2 1142   9.344   6.154  13.610
99749SOL     OW 1143   3.647  12.966   8.953
99749SOL    HW1 1144   3.725  13.002   8.911
99749SOL    HW2 1145   3.657  12.991   9.045
99750SOL     OW 1146  11.026   2.324   1.333
99750SOL    HW1 1147  11.046   2.414   1.311
99750SOL    HW2 1148  11.010   2.281   1.249
99751SOL     OW 1149  11.098   3.135  14.002
99751SOL    HW1 1150  11.086   3.077  13.927
99751SOL    HW2 1151  11.190   3.161  13.999
99752SOL     OW 1152   3.604   5.221   3.922
99752SOL    HW1 1153   3.538   5.154   3.906
99752SOL    HW2 1154   3.604   5.233   4.017
99753SOL     OW 1155   0.036   4.208  14.141
99753SOL    HW1 1156  14.864   4.276  14.171
99753SOL    HW2 1157  14.876   4.162  14.072
99754SOL     OW 1158   5.858   4.908  11.515
99754SOL    HW1 1159   5.907   4.977  11.469
99754SOL    HW2 1160   5.895   4.826  11.481
99755SOL     OW 1161   6.773  14.777   0.631
99755SOL    HW1 1162   6.681  14.764   0.654
99755SOL    HW2 1163   6.789  14.714   0.561
99756SOL     OW 1164   1.850  10.682   3.261
99756SOL    HW1 1165   1.820  10.734   3.336
99756SOL    HW2 1166   1.946  10.682   3.269
99757SOL     OW 1167  13.088   0.036   5.178
99757SOL    HW1 1168  13.109   0.105   5.240
99757SOL    HW2 1169  13.168   0.023   5.127
99758SOL     OW 1170  12.323   9.575   9.110
99758SOL    HW1 1171  12.405   9.558   9.065
99758SOL    HW2 1172  12.259   9.521   9.064
99759SOL     OW 1173   4.971   7.135   2.296
99759SOL    HW1 1174   4.882   7.105   2.311
99759SOL    HW2 1175   5.018   7.058   2.267
99760SOL     OW 1176   9.263   5.053  13.909
99760SOL    HW1 1177   9.174   5.079  13.887
99760SOL    HW2 1178   9.266   4.959  13.890
99761SOL     OW 1179  12.351   6.507  12.913
99761SOL    HW1 1180  12.273   6.518  12.967
99761SOL    HW2 1181  12.377   6.596  12.890
99762SOL     OW 1182   7.963   1.414  14.688
99762SOL    HW1 1183   8.006   1.455  14.763
99762SOL    HW2 1184   7.932   1.330  14.721
99763SOL     OW 1185   8.468   2.192  10.184
99763SOL    HW1 1186   8.418   2.209  10.103
99763SOL    HW2 1187   8.555   2.169  10.153
99764SOL     OW 1188   9.175   9.734   5.970
99764SOL    HW1 1189   9.228   9.767   6.044
99764SOL    HW2 1190   9.189   9.640   5.971
99765SOL     OW 1191   5.206  11.870  12.207
99765SOL    HW1 1192   5.156  11.840  12.283
99765SOL    HW2 1193   5.296  11.842  12.225
99766SOL     OW 1194   3.188   4.416   0.878
99766SOL    HW1 1195   3.219   4.337   0.835
99766SOL    HW2 1196   3.259   4.479   0.868
99767SOL     OW 1197  11.449  12.335   4.908
99767SOL    HW1 1198  11.484  12.354   4.995
99767SOL    HW2 1199  11.402  12.252   4.918
99768SOL     OW 1200  13.869   2.957   4.643
99768SOL    HW1 1201  13.779   2.957   4.609
99768SOL    HW2 1202  13.870   3.026   4.708
99769SOL     OW 1203   9.854  12.849   2.466
99769SOL    HW1 1204   9.822  12.849   2.556
99769SOL    HW2 1205   9.949  12.847   2.474
99770SOL     OW 1206   7.141   6.113   4.752
99770SOL    HW1 1207   7.208   6.179   4.771
99770SOL    HW2 1208   7.188   6.045   4.704
99771SOL     OW 1209   4.034  11.124   3.769
99771SOL    HW1 1210   4.084  11.136   3.688
99771SOL    HW2 1211   3.991  11.209   3.783
99772SOL     OW 1212  10.770  12.606   4.463
99772SOL    HW1 1213  10.796  12.517   4.440
99772SOL    HW2 1214  10.674  12.605   4.460
99773SOL     OW 1215   1.459   4.440   3.725
99773SOL    HW1 1216   1.388   4.504   3.716
99773SOL    HW2 1217   1.492   4.453   3.814
99774SOL     OW 1218  12.632   3.582  12.592
99774SOL    HW1 1219  12.592   3.558  12.508
99774SOL    HW2 1220  12.647   3.677  12.585
99775SOL     OW 1221   3.190   0.337   6.572
99775SOL    HW1 1222   3.153   0.407   6.627
99775SOL    HW2 1223   3.213   0.380   6.490
99776SOL     OW 1224   6.355   1.293   6.629
99776SOL    HW1 1225   6.261   1.304   6.611
99776SOL    HW2 1226   6.359   1.246   6.711
99777SOL     OW 1227  11.976   2.775   7.764
99777SOL    HW1 1228  11.995   2.812   7.677
99777SOL    HW2 1229  11.908   2.832   7.800
99778SOL     OW 1230  11.269  13.814   2.192
99778SOL    HW1 1231  11.205  13.748   2.161
99778SOL    HW2 1232  11.313  13.843   2.112
99779SOL     OW 1233   5.694   1.643   9.922
99779SOL    HW1 1234   5.734   1.609   9.842
99779SOL    HW2 1235   5.629   1.577   9.946
99780SOL     OW 1236   4.697   5.849   6.979
99780SOL    HW1 1237   4.633   5.836   6.908
99780SOL    HW2 1238   4.766   5.902   6.939
99781SOL     OW 1239  11.509   3.679   4.764
99781SOL    HW1 1240  11.601   3.659   4.745
99781SOL    HW2 1241  11.485   3.745   4.698
99782SOL     OW 1242   1.769   3.204  13.220
99782SOL    HW1 1243   1.699   3.256  13.182
99782SOL    HW2 1244   1.725   3.128  13.258
99783SOL     OW 1245   3.305  13.739  12.551
99783SOL    HW1 1246   3.357  13.817  12.534
99783SOL    HW2 1247   3.367  13.667  12.549
99784SOL     OW 1248  14.684   4.080  10.498
99784SOL    HW1 1249  14.702   4.122  10.582
99784SOL    HW2 1250  14.641   3.997  10.521
99785SOL     OW 1251   7.905   9.187  10.126
99785SOL    HW1 1252   7.877   9.269  10.086
99785SOL    HW2 1253   7.851   9.179  10.205
99786SOL     OW 1254   0.708   6.175  11.270
99786SOL    HW1 1255   0.707   6.135  11.182
99786SOL    HW2 1256   0.616   6.176  11.297
99787SOL     OW 1257   1.381  12.833   2.072
99787SOL    HW1 1258   1.313  12.878   2.021
99787SOL    HW2 1259   1.375  12.873   2.159
99788SOL     OW 1260   1.561   8.552   0.117
99788SOL    HW1 1261   1.630   8.588   0.062
99788SOL    HW2 1262   1.504   8.627   0.135
99789SOL     OW 1263   9.900   8.905   8.155
99789SOL    HW1 1264   9.922   8.952   8.075
99789SOL    HW2 1265   9.818   8.859   8.135
99790SOL     OW 1266  12.676   7.669  10.721
99790SOL    HW1 1267  12.761   7.712  10.732
99790SOL    HW2 1268  12.635   7.715  10.649
99791SOL     OW 1269  14.552   9.159  10.723
99791SOL    HW1 1270  14.517   9.205  10.799
99791SOL    HW2 1271  14.553   9.225  10.654
99792SOL     OW 1272  11.820   7.910   3.789
99792SOL    HW1 1273  11.730   7.933   3.812
99792SOL    HW2 1274  11.826   7.921   3.694
99793SOL     OW 1275   8.114  12.274   0.716
99793SOL    HW1 1276   8.057  12.318   0.779
99793SOL    HW2 1277   8.151  12.201   0.765
99794SOL     OW 1278   4.356  11.319   5.179
99794SOL    HW1 1279   4.354  11.224   5.164
99794SOL    HW2 1280   4.264  11.346   5.172
99795SOL     OW 1281   5.090   0.777   2.477
99795SOL    HW1 1282   5.041   0.808   2.553
99795SOL    HW2 1283   5.172   0.743   2.513
99796SOL     OW 1284  13.443   3.996   7.949
99796SOL    HW1 1285  13.496   4.075   7.944
99796SOL    HW2 1286  13.428   3.982   8.042
99797SOL     OW 1287   7.526   5.264   0.764
99797SOL    HW1 1288   7.567   5.193   0.715
99797SOL    HW2 1289   7.478   5.221   0.834
99798SOL     OW 1290   8.604   0.166   4.031
99798SOL    HW1 1291   8.577   0.167   4.123
99798SOL    HW2 1292   8.676   0.102   4.029
99799SOL     OW 1293   2.787   6.729   6.698
99799SOL    HW1 1294   2.784   6.822   6.720
99799SOL    HW2 1295   2.746   6.723   6.612
99800SOL     OW 1296   3.429  14.009   7.055
99800SOL    HW1 1297   3.334  14.021   7.060
99800SOL    HW2 1298   3.459  14.021   7.144
99801SOL     OW 1299   7.969   0.102   2.895
99801SOL    HW1 1300   7.877   0.081   2.885
99801SOL    HW2 1301   7.979   0.121   2.989
99802SOL     OW 1302   5.749  11.631   0.089
99802SOL    HW1 1303   5.732  11.723   0.112
99802SOL    HW2 1304   5.765  11.633  14.882
99803SOL     OW 1305  11.250  11.613  12.158
99803SOL    HW1 1306  11.241  11.668  12.081
99803SOL    HW2 1307  11.181  11.547  12.149
99804SOL     OW 1308   9.629  10.745  10.091
99804SOL    HW1 1309   9.591  10.740  10.179
99804SOL    HW2 1310   9.625  10.838  10.068
99805SOL     OW 1311   7.777   6.689  14.591
99805SOL    HW1 1312   7.748   6.762  14.645
99805SOL    HW2 1313   7.766   6.719  14.501
99806SOL     OW 1314   4.012   3.101   2.401
99806SOL    HW1 1315   4.044   3.068   2.484
99806SOL    HW2 1316   3.921   3.074   2.397
99807SOL     OW 1317   2.761   1.763  10.176
99807SOL    HW1 1318   2.853   1.784  10.157
99807SOL    HW2 1319   2.756   1.759  10.271
99808SOL     OW 1320   3.833   2.069   6.967
99808SOL    HW1 1321   3.781   2.095   6.891
99808SOL    HW2 1322   3.864   2.151   7.004
99809SOL     OW 1323   7.989  12.954  14.111
99809SOL    HW1 1324   8.034  12.870  14.120
99809SOL    HW2 1325   7.905  12.940  14.154
99810SOL     OW 1326   3.836   4.368   7.911
99810SOL    HW1 1327   3.901   4.434   7.888
99810SOL    HW2 1328   3.846   4.357   8.006
99811SOL     OW 1329   1.249  12.877   6.002
99811SOL    HW1 1330   1.339  12.907   5.988
99811SOL    HW2 1331   1.242  12.866   6.097
99812SOL     OW 1332  12.811   2.988  10.478
99812SOL    HW1 1333  12.783   3.019  10.564
99812SOL    HW2 1334  12.904   3.012  10.473
99813SOL     OW 1335   8.669   3.911  13.525
99813SOL    HW1 1336   8.736   3.894  13.459
99813SOL    HW2 1337   8.695   3.994  13.565
99814SOL     OW 1338   8.616  11.303   7.686
99814SOL    HW1 1339   8.633  11.274   7.596
99814SOL    HW2 1340   8.536  11.258   7.711
99815SOL     OW 1341   5.400   2.103   6.091
99815SOL    HW1 1342   5.327   2.159   6.065
99815SOL    HW2 1343   5.367   2.052   6.164
99816SOL     OW 1344   4.238   3.317   1.853
99816SOL    HW1 1345   4.319   3.369   1.845
99816SOL    HW2 1346   4.168   3.382   1.850
99817SOL     OW 1347   6.508   4.296  12.785
99817SOL    HW1 1348   6.489   4.288  12.692
99817SOL    HW2 1349   6.464   4.220  12.825
99818SOL     OW 1350  10.608  10.517  13.350
99818SOL    HW1 1351  10.590  10.493  13.259
99818SOL    HW2 1352  10.663  10.596  13.344
99819SOL     OW 1353   1.972   2.641   7.362
99819SOL    HW1 1354   1.912   2.657   7.289
99819SOL    HW2 1355   1.942   2.559   7.400
99820SOL     OW 1356   1.187  14.476   0.640
99820SOL    HW1 1357   1.237  14.396   0.626
99820SOL    HW2 1358   1.107  14.447   0.684
99821SOL     OW 1359  10.765   4.725   6.327
99821SOL    HW1 1360  10.825   4.733   6.252
99821SOL    HW2 1361  10.708   4.651   6.304
99822SOL     OW 1362  11.419  11.058   8.983
99822SOL    HW1 1363  11.352  10.991   8.984
99822SOL    HW2 1364  11.385  11.127   8.925
99823SOL     OW 1365  14.112  11.960  12.386
99823SOL    HW1 1366  14.089  11.924  12.300
99823SOL    HW2 1367  14.066  12.043  12.390
99824SOL     OW 1368   7.973   2.110   1.468
99824SOL    HW1 1369   8.034   2.045   1.504
99824SOL    HW2 1370   7.887   2.080   1.498
99825SOL     OW 1371   6.428  12.753   9.101
99825SOL    HW1 1372   6.426  12.848   9.114
99825SOL    HW2 1373   6.342  12.722   9.130
99826SOL     OW 1374   6.292   0.698  12.291
99826SOL    HW1 1375   6.330   0.629  12.347
99826SOL    HW2 1376   6.335   0.778  12.321
99827SOL     OW 1377   8.564   6.644   7.206
99827SOL    HW1 1378   8.614   6.584   7.262
99827SOL    HW2 1379   8.630   6.699   7.165
99828SOL     OW 1380   5.917  11.836   6.522
99828SOL    HW1 1381   5.975  11.771   6.480
99828SOL    HW2 1382   5.961  11.857   6.604
99829SOL     OW 1383  12.131   5.402   7.259
99829SOL    HW1 1384  12.080   5.400   7.340
99829SOL    HW2 1385  12.091   5.473   7.208
99830SOL     OW 1386   7.845   4.385   1.583
99830SOL    HW1 1387   7.898   4.350   1.511
99830SOL    HW2 1388   7.817   4.471   1.553
99831SOL     OW 1389  14.379   0.739  14.003
99831SOL    HW1 1390  14.336   0.684  14.068
99831SOL    HW2 1391  14.427   0.804  14.054
99832SOL     OW 1392   5.161  14.884   8.742
99832SOL    HW1 1393   5.096  14.816   8.724
99832SOL    HW2 1394   5.224  14.841   8.800
99833SOL     OW 1395   8.900   1.748   7.017
99833SOL    HW1 1396   8.828   1.811   7.009
99833SOL    HW2 1397   8.886   1.685   6.947
99834SOL     OW 1398  11.479   3.670   5.120
99834SOL    HW1 1399  11.404   3.621   5.154
99834SOL    HW2 1400  11.496   3.632   5.034
99835SOL     OW 1401   4.724   8.595   2.223
99835SOL    HW1 1402   4.787   8.568   2.290
99835SOL    HW2 1403   4.739   8.688   2.211
99836SOL     OW 1404   8.744   1.783  11.403
99836SOL    HW1 1405   8.714   1.871  11.383
99836SOL    HW2 1406   8.830   1.795  11.444
99837SOL     OW 1407   3.517   0.463   8.341
99837SOL    HW1 1408   3.606   0.431   8.327
99837SOL    HW2 1409   3.461   0.389   8.318
99838SOL     OW 1410   7.357  10.010   2.513
99838SOL    HW1 1411   7.334   9.917   2.506
99838SOL    HW2 1412   7.441  10.017   2.469
99839SOL     OW 1413  12.277   1.285   5.746
99839SOL    HW1 1414  12.181   1.283   5.741
99839SOL    HW2 1415  12.295   1.354   5.811
99840SOL     OW 1416  10.998   8.313   3.816
99840SOL    HW1 1417  11.049   8.236   3.843
99840SOL    HW2 1418  10.999   8.370   3.893
99841SOL     OW 1419  14.624   8.082   6.832
99841SOL    HW1 1420  14.661   8.135   6.903
99841SOL    HW2 1421  14.671   8.111   6.754
99842SOL     OW 1422  14.758   5.197   5.571
99842SOL    HW1 1423  14.715   5.127   5.521
99842SOL    HW2 1424  14.779   5.264   5.506
99843SOL     OW 1425  10.176   3.864   2.585
99843SOL    HW1 1426  10.107   3.870   2.518
99843SOL    HW2 1427  10.190   3.770   2.596
99844SOL     OW 1428  14.688  14.137   0.924
99844SOL    HW1 1429  14.731  14.064   0.880
99844SOL    HW2 1430  14.606  14.149   0.875
99845SOL     OW 1431   9.663  11.036   6.151
99845SOL    HW1 1432   9.715  11.016   6.073
99845SOL    HW2 1433   9.626  11.122   6.133
99846SOL     OW 1434   0.953   1.139   3.526
99846SOL    HW1 1435   0.964   1.068   3.463
99846SOL    HW2 1436   0.966   1.098   3.612
99847SOL     OW 1437   6.976  10.166   5.352
99847SOL    HW1 1438   7.060  10.190   5.391
99847SOL    HW2 1439   6.992  10.080   5.312
99848SOL     OW 1440   6.624  13.313  11.751
99848SOL    HW1 1441   6.616  13.225  11.715
99848SOL    HW2 1442   6.622  13.300  11.846
99849SOL     OW 1443   0.961   4.489   5.655
99849SOL    HW1 1444   1.008   4.413   5.688
99849SOL    HW2 1445   0.929   4.534   5.733
99850SOL     OW 1446   2.883  14.385  12.006
99850SOL    HW1 1447   2.797  14.389  12.048
99850SOL    HW2 1448   2.895  14.473  11.968
99851SOL     OW 1449   9.807   9.059   3.532
99851SOL    HW1 1450   9.742   9.129   3.537
99851SOL    HW2 1451   9.787   9.013   3.451
99852SOL     OW 1452  10.453   9.686   5.623
99852SOL    HW1 1453  10.543   9.664   5.601
99852SOL    HW2 1454  10.460   9.736   5.704
99853SOL     OW 1455   3.928   7.233   6.983
99853SOL    HW1 1456   3.991   7.300   6.956
99853SOL    HW2 1457   3.982   7.157   7.007
99854SOL     OW 1458   3.986  14.462   8.861
99854SOL    HW1 1459   3.905  14.506   8.886
99854SOL    HW2 1460   4.035  14.527   8.811
99855SOL     OW 1461   7.792  10.180   9.218
99855SOL    HW1 1462   7.783  10.211   9.308
99855SOL    HW2 1463   7.752  10.250   9.166
99856SOL     OW 1464  11.967   2.044  10.714
99856SOL    HW1 1465  11.960   2.122  10.659
99856SOL    HW2 1466  11.897   2.054  10.779
99857SOL     OW 1467  12.918   0.277   1.993
99857SOL    HW1 1468  12.939   0.352   2.048
99857SOL    HW2 1469  12.827   0.256   2.015
99858SOL     OW 1470  10.776  13.326  10.034
99858SOL    HW1 1471  10.807  13.255   9.978
99858SOL    HW2 1472  10.693  13.354   9.993
99859SOL     OW 1473   0.711   0.791  13.101
99859SOL    HW1 1474   0.747   0.828  13.182
99859SOL    HW2 1475   0.687   0.701  13.125
99860SOL     OW 1476   6.434  14.333   9.783
99860SOL    HW1 1477   6.390  14.303   9.863
99860SOL    HW2 1478   6.485  14.257   9.754
99861SOL     OW 1479   2.020  12.944  13.715
99861SOL    HW1 1480   2.098  12.893  13.736
99861SOL    HW2 1481   1.948  12.897  13.756
99862SOL     OW 1482  12.499  11.094   6.256
99862SOL    HW1 1483  12.544  11.156   6.313
99862SOL    HW2 1484  12.440  11.047   6.315
99863SOL     OW 1485  12.846   7.621   7.449
99863SOL    HW1 1486  12.928   7.609   7.401
99863SOL    HW2 1487  12.799   7.688   7.399
99864SOL     OW 1488   4.067   4.818  14.420
99864SOL    HW1 1489   4.104   4.868  14.492
99864SOL    HW2 1490   4.100   4.861  14.341
99865SOL     OW 1491   2.143   2.532   5.732
99865SOL    HW1 1492   2.143   2.627   5.747
99865SOL    HW2 1493   2.112   2.495   5.815
99866SOL     OW 1494  13.757  13.057  13.509
99866SOL    HW1 1495  13.716  13.129  13.461
99866SOL    HW2 1496  13.684  12.999  13.531
99867SOL     OW 1497   8.825  14.864   0.753
99867SOL    HW1 1498   8.874   0.005   0.675
99867SOL    HW2 1499   8.734  14.880   0.730
99868SOL     OW 1500   1.385  13.367   2.940
99868SOL    HW1 1501   1.412  13.342   2.852
99868SOL    HW2 1502   1.348  13.286   2.977
99869SOL     OW 1503   5.253   7.114   1.608
99869SOL    HW1 1504   5.263   7.117   1.703
99869SOL    HW2 1505   5.186   7.180   1.588
99870SOL     OW 1506  14.609   1.186   2.195
99870SOL    HW1 1507  14.605   1.236   2.277
99870SOL    HW2 1508  14.560   1.240   2.132
99871SOL     OW 1509   8.471   9.641  12.617
99871SOL    HW1 1510   8.439   9.583  12.687
99871SOL    HW2 1511   8.443   9.728  12.644
99872SOL     OW 1512   4.582  10.805  11.362
99872SOL    HW1 1513   4.653  10.822  11.424
99872SOL    HW2 1514   4.566  10.889  11.320
99873SOL     OW 1515   2.443  11.946   5.313
99873SOL    HW1 1516   2.507  12.002   5.268
99873SOL    HW2 1517   2.459  11.859   5.278
99874SOL     OW 1518   9.583   6.921   7.965
99874SOL    HW1 1519   9.541   6.836   7.953
99874SOL    HW2 1520   9.570   6.967   7.882
99875SOL     OW 1521   9.767  13.414  13.945
99875SOL    HW1 1522   9.690  13.471  13.945
99875SOL    HW2 1523   9.793  13.408  14.037
99876SOL     OW 1524   1.247  13.840  11.405
99876SOL    HW1 1525   1.335  13.833  11.368
99876SOL    HW2 1526   1.258  13.893  11.484
99877SOL     OW 1527   2.869   7.432   5.534
99877SOL    HW1 1528   2.865   7.489   5.611
99877SOL    HW2 1529   2.951   7.384   5.544
99878SOL     OW 1530  11.039   0.629   3.356
99878SOL    HW1 1531  11.044   0.635   3.260
99878SOL    HW2 1532  11.004   0.714   3.383
99879SOL     OW 1533   2.307  11.496   4.780
99879SOL    HW1 1534   2.246  11.426   4.758
99879SOL    HW2 1535   2.321  11.487   4.874
99880SOL     OW 1536   8.082   3.788   3.434
99880SOL    HW1 1537   8.004   3.755   3.479
99880SOL    HW2 1538   8.049   3.858   3.377
99881SOL     OW 1539   2.398   7.849   8.424
99881SOL    HW1 1540   2.321   7.793   8.417
99881SOL    HW2 1541   2.459   7.814   8.359
99882SOL     OW 1542   2.894   6.474  10.322
99882SOL    HW1 1543   2.868   6.405  10.383
99882SOL    HW2 1544   2.946   6.534  10.375
99883SOL     OW 1545  14.781   2.368  14.294
99883SOL    HW1 1546  14.740   2.392  14.377
99883SOL    HW2 1547  14.762   2.442  14.236
99884SOL     OW 1548   7.167   9.492   1.802
99884SOL    HW1 1549   7.097   9.428   1.817
99884SOL    HW2 1550   7.162   9.551   1.877
99885SOL     OW 1551   4.330   9.414   9.363
99885SOL    HW1 1552   4.245   9.454   9.346
99885SOL    HW2 1553   4.389   9.488   9.375
99886SOL     OW 1554  11.552   6.146   4.299
99886SOL    HW1 1555  11.540   6.232   4.260
99886SOL    HW2 1556  11.641   6.147   4.333
99887SOL     OW 1557   8.462   5.536   7.902
99887SOL    HW1 1558   8.500   5.618   7.871
99887SOL    HW2 1559   8.536   5.490   7.943
99888SOL     OW 1560   6.591  14.340  14.679
99888SOL    HW1 1561   6.512  14.331  14.625
99888SOL    HW2 1562   6.591  14.263  14.735
99889SOL     OW 1563   2.442   2.191   4.875
99889SOL    HW1 1564   2.517   2.190   4.934
99889SOL    HW2 1565   2.421   2.098   4.862
99890SOL     OW 1566  13.273   8.502  14.136
99890SOL    HW1 1567  13.212   8.439  14.097
99890SOL    HW2 1568  13.358   8.458  14.132
99891SOL     OW 1569   2.052   2.189   5.364
99891SOL    HW1 1570   2.025   2.257   5.302
99891SOL    HW2 1571   2.060   2.234   5.447
99892SOL     OW 1572   8.527  11.091  11.811
99892SOL    HW1 1573   8.606  11.142  11.797
99892SOL    HW2 1574   8.456  11.148  11.780
99893SOL     OW 1575   2.855   8.869   4.802
99893SOL    HW1 1576   2.905   8.883   4.722
99893SOL    HW2 1577   2.918   8.837   4.866
99894SOL     OW 1578   6.791   6.553   1.019
99894SOL    HW1 1579   6.776   6.536   1.112
99894SOL    HW2 1580   6.884   6.572   1.013
99895SOL     OW 1581   8.367  10.986   7.791
99895SOL    HW1 1582   8.385  11.058   7.851
99895SOL    HW2 1583   8.453  10.950   7.771
99896SOL     OW 1584  12.489   6.665   6.814
99896SOL    HW1 1585  12.510   6.698   6.727
99896SOL    HW2 1586  12.417   6.721   6.844
99897SOL     OW 1587   6.616   2.580   2.888
99897SOL    HW1 1588   6.657   2.537   2.963
99897SOL    HW2 1589   6.591   2.509   2.830
99898SOL     OW 1590  11.221   8.485   7.562
99898SOL    HW1 1591  11.203   8.393   7.542
99898SOL    HW2 1592  11.231   8.487   7.657
99899SOL     OW 1593   1.755  12.518   1.758
99899SOL    HW1 1594   1.850  12.524   1.752
99899SOL    HW2 1595   1.736  12.529   1.852
99900SOL     OW 1596  14.847   7.726   0.834
99900SOL    HW1 1597   0.041   7.689   0.867
99900SOL    HW2 1598  14.779   7.689   0.891
99901SOL     OW 1599   0.839   4.522   4.697
99901SOL    HW1 1600   0.825   4.525   4.791
99901SOL    HW2 1601   0.831   4.429   4.674
99902SOL     OW 1602  13.880  14.167   1.769
99902SOL    HW1 1603  13.816  14.111   1.813
99902SOL    HW2 1604  13.857  14.161   1.676
99903SOL     OW 1605  14.308   8.861   6.776
99903SOL    HW1 1606  14.378   8.795   6.772
99903SOL    HW2 1607  14.240   8.821   6.830
99904SOL     OW 1608   9.159  12.937   3.821
99904SOL    HW1 1609   9.081  12.967   3.775
99904SOL    HW2 1610   9.126  12.902   3.903
99905SOL     OW 1611   9.270   6.507   9.334
99905SOL    HW1 1612   9.231   6.493   9.247
99905SOL    HW2 1613   9.249   6.428   9.382
99906SOL     OW 1614  12.914  13.649   4.255
99906SOL    HW1 1615  12.822  13.676   4.253
99906SOL    HW2 1616  12.953  13.694   4.180
99907SOL     OW 1617   1.704   1.038   3.356
99907SOL    HW1 1618   1.715   0.970   3.289
99907SOL    HW2 1619   1.657   0.995   3.427
99908SOL     OW 1620   3.725   5.359   3.082
99908SOL    HW1 1621   3.791   5.415   3.124
99908SOL    HW2 1622   3.653   5.418   3.061
99909SOL     OW 1623   1.513   3.108   8.024
99909SOL    HW1 1624   1.507   3.017   8.053
99909SOL    HW2 1625   1.449   3.154   8.079
99910SOL     OW 1626   8.219   9.058  10.403
99910SOL    HW1 1627   8.203   9.152  10.402
99910SOL    HW2 1628   8.141   9.020  10.443
99911SOL     OW 1629   3.168   4.887   2.559
99911SOL    HW1 1630   3.248   4.890   2.612
99911SOL    HW2 1631   3.187   4.943   2.484
99912SOL     OW 1632   9.820   4.819   5.453
99912SOL    HW1 1633   9.735   4.775   5.460
99912SOL    HW2 1634   9.797   4.909   5.428
99913SOL     OW 1635  12.830  11.195   1.143
99913SOL    HW1 1636  12.767  11.267   1.145
99913SOL    HW2 1637  12.829  11.160   1.232
99914SOL     OW 1638   1.628   5.071   9.824
99914SOL    HW1 1639   1.677   5.027   9.894
99914SOL    HW2 1640   1.693   5.126   9.780
99915SOL     OW 1641   4.662  14.527   9.571
99915SOL    HW1 1642   4.597  14.459   9.556
99915SOL    HW2 1643   4.617  14.593   9.624
99916SOL     OW 1644   1.431   3.959  12.644
99916SOL    HW1 1645   1.471   3.960  12.731
99916SOL    HW2 1646   1.457   4.042  12.604
99917SOL     OW 1647  11.160   9.622   5.399
99917SOL    HW1 1648  11.196   9.592   5.483
99917SOL    HW2 1649  11.074   9.658   5.422
99918SOL     OW 1650   0.529   1.686   6.293
99918SOL    HW1 1651   0.548   1.592   6.299
99918SOL    HW2 1652   0.608   1.723   6.252
99919SOL     OW 1653  10.060   3.247  10.828
99919SOL    HW1 1654  10.006   3.200  10.764
99919SOL    HW2 1655  10.057   3.192  10.907
99920SOL     OW 1656  10.080  14.177  11.868
99920SOL    HW1 1657  10.127  14.101  11.902
99920SOL    HW2 1658  10.005  14.139  11.822
99921SOL     OW 1659   3.507   0.778  14.091
99921SOL    HW1 1660   3.576   0.820  14.039
99921SOL    HW2 1661   3.457   0.851  14.127
99922SOL     OW 1662   6.174   1.400   5.392
99922SOL    HW1 1663   6.266   1.406   5.367
99922SOL    HW2 1664   6.160   1.475   5.449
99923SOL     OW 1665   0.256  11.302   2.962
99923SOL    HW1 1666   0.238  11.209   2.975
99923SOL    HW2 1667   0.268  11.312   2.868
99924SOL     OW 1668   4.253   4.298   3.776
99924SOL    HW1 1669   4.256   4.219   3.830
99924SOL    HW2 1670   4.297   4.273   3.695
99925SOL     OW 1671   8.145   9.115  14.084
99925SOL    HW1 1672   8.176   9.200  14.116
99925SOL    HW2 1673   8.127   9.065  14.164
99926SOL     OW 1674   7.480  11.901   9.628
99926SOL    HW1 1675   7.511  11.973   9.573
99926SOL    HW2 1676   7.475  11.825   9.569
99927SOL     OW 1677  12.911  13.490   3.466
99927SOL    HW1 1678  12.934  13.423   3.530
99927SOL    HW2 1679  12.946  13.571   3.503
99928SOL     OW 1680   0.129   8.310   7.459
99928SOL    HW1 1681   0.189   8.377   7.427
99928SOL    HW2 1682   0.115   8.331   7.551
99929SOL     OW 1683  12.790   0.912   4.758
99929SOL    HW1 1684  12.758   0.953   4.838
99929SOL    HW2 1685  12.765   0.973   4.689
99930SOL     OW 1686   9.688  12.909  12.658
99930SOL    HW1 1687   9.592  12.908  12.658
99930SOL    HW2 1688   9.712  12.816  12.651
99931SOL     OW 1689  10.324   2.857  13.001
99931SOL    HW1 1690  10.384   2.882  12.930
99931SOL    HW2 1691  10.304   2.765  12.984
99932SOL     OW 1692  12.051   1.283  10.186
99932SOL    HW1 1693  11.978   1.264  10.127
99932SOL    HW2 1694  12.013   1.343  10.251
99933SOL     OW 1695  12.198   0.375   1.037
99933SOL    HW1 1696  12.248   0.311   1.088
99933SOL    HW2 1697  12.263   0.420   0.984
99934SOL     OW 1698   9.650   3.370  12.847
99934SOL    HW1 1699   9.596   3.363  12.768
99934SOL    HW2 1700   9.601   3.429  12.905
99935SOL     OW 1701   6.093   6.499  13.311
99935SOL    HW1 1702   6.041   6.579  13.307
99935SOL    HW2 1703   6.134   6.492  13.225
99936SOL     OW 1704   2.802   8.133   5.251
99936SOL    HW1 1705   2.843   8.118   5.336
99936SOL    HW2 1706   2.823   8.054   5.200
99937SOL     OW 1707  14.141   7.626   0.458
99937SOL    HW1 1708  14.162   7.568   0.531
99937SOL    HW2 1709  14.161   7.573   0.380
99938SOL     OW 1710   8.537   1.819  11.963
99938SOL    HW1 1711   8.601   1.887  11.942
99938SOL    HW2 1712   8.546   1.755  11.892
99939SOL     OW 1713   6.607  11.286   1.497
99939SOL    HW1 1714   6.575  11.201   1.527
99939SOL    HW2 1715   6.610  11.340   1.576
99940SOL     OW 1716   4.914   1.420  14.655
99940SOL    HW1 1717   4.842   1.374  14.613
99940SOL    HW2 1718   4.942   1.362  14.726
99941SOL     OW 1719   7.776   4.415   7.275
99941SOL    HW1 1720   7.791   4.336   7.223
99941SOL    HW2 1721   7.828   4.402   7.354
99942SOL     OW 1722  10.949  12.006  14.841
99942SOL    HW1 1723  10.894  11.929  14.825
99942SOL    HW2 1724  10.911  12.075  14.786
99943SOL     OW 1725   0.326  13.339  11.734
99943SOL    HW1 1726   0.418  13.354  11.756
99943SOL    HW2 1727   0.310  13.248  11.760
99944SOL     OW 1728  11.945  11.219   5.207
99944SOL    HW1 1729  11.918  11.155   5.140
99944SOL    HW2 1730  11.870  11.224   5.266
99945SOL     OW 1731  13.070  13.490  11.733
99945SOL    HW1 1732  13.049  13.477  11.826
99945SOL    HW2 1733  12.985  13.496  11.690
99946SOL     OW 1734   4.798   8.292   7.535
99946SOL    HW1 1735   4.831   8.322   7.620
99946SOL    HW2 1736   4.762   8.205   7.552
99947SOL     OW 1737  14.812  10.116  11.628
99947SOL    HW1 1738   0.001  10.143  11.577
99947SOL    HW2 1739  14.802  10.023  11.608
99948SOL     OW 1740  10.257   9.178   6.855
99948SOL    HW1 1741  10.336   9.125   6.868
99948SOL    HW2 1742  10.285   9.268   6.871
99949SOL     OW 1743   5.051  10.283   1.666
99949SOL    HW1 1744   5.054  10.377   1.684
99949SOL    HW2 1745   4.963  10.269   1.631
99950SOL     OW 1746   8.517   7.724   3.404
99950SOL    HW1 1747   8.497   7.790   3.337
99950SOL    HW2 1748   8.458   7.746   3.476
99951SOL     OW 1749  12.558   1.324   3.676
99951SOL    HW1 1750  12.467   1.336   3.704
99951SOL    HW2 1751  12.587   1.244   3.720
99952SOL     OW 1752   9.334  11.756   1.447
99952SOL    HW1 1753   9.393  11.798   1.510
99952SOL    HW2 1754   9.284  11.828   1.409
99953SOL     OW 1755  12.174   4.074   9.114
99953SOL    HW1 1756  12.207   4.100   9.200
99953SOL    HW2 1757  12.083   4.049   9.129
99954SOL     OW 1758   4.675   2.564  13.091
99954SOL    HW1 1759   4.641   2.556  13.002
99954SOL    HW2 1760   4.761   2.522  13.088
99955SOL     OW 1761   9.974   4.725   2.360
99955SOL    HW1 1762  10.029   4.656   2.398
99955SOL    HW2 1763  10.030   4.767   2.294
99956SOL     OW 1764  11.976   0.837   8.847
99956SOL    HW1 1765  12.006   0.901   8.912
99956SOL    HW2 1766  11.923   0.775   8.898
99957SOL     OW 1767   5.469  14.722  14.387
99957SOL    HW1 1768   5.443  14.775  14.462
99957SOL    HW2 1769   5.434  14.768  14.311
99958SOL     OW 1770  14.573   4.732   7.810
99958SOL    HW1 1771  14.487   4.743   7.769
99958SOL    HW2 1772  14.628   4.693   7.742
99959SOL     OW 1773   7.417   0.522   1.977
99959SOL    HW1 1774   7.493   0.577   1.957
99959SOL    HW2 1775   7.343   0.571   1.943
99960SOL     OW 1776  10.700  13.975   6.218
99960SOL    HW1 1777  10.682  13.918   6.292
99960SOL    HW2 1778  10.791  14.001   6.228
99961SOL     OW 1779   3.903   2.824   8.810
99961SOL    HW1 1780   3.945   2.895   8.763
99961SOL    HW2 1781   3.964   2.751   8.804
99962SOL     OW 1782   4.550   6.630   1.480
99962SOL    HW1 1783   4.514   6.595   1.399
99962SOL    HW2 1784   4.633   6.671   1.454
99963SOL     OW 1785  11.562   5.968  12.421
99963SOL    HW1 1786  11.586   5.983  12.330
99963SOL    HW2 1787  11.489   6.028  12.437
99964SOL     OW 1788   2.877   9.491  11.745
99964SOL    HW1 1789   2.853   9.417  11.689
99964SOL    HW2 1790   2.847   9.568  11.697
99965SOL     OW 1791   7.531  12.992   7.053
99965SOL    HW1 1792   7.443  13.012   7.020
99965SOL    HW2 1793   7.583  13.069   7.031
99966SOL     OW 1794   1.385  13.958   3.861
99966SOL    HW1 1795   1.378  13.892   3.792
99966SOL    HW2 1796   1.347  13.916   3.938
99967SOL     OW 1797   1.520  14.641   7.617
99967SOL    HW1 1798   1.538  14.686   7.700
99967SOL    HW2 1799   1.602  14.646   7.569
99968SOL     OW 1800   4.325   3.127   0.428
99968SOL    HW1 1801   4.256   3.189   0.452
99968SOL    HW2 1802   4.342   3.142   0.336
99969SOL     OW 1803   1.896  11.131  11.126
99969SOL    HW1 1804   1.875  11.224  11.135
99969SOL    HW2 1805   1.812  11.089  11.108
99970SOL     OW 1806   5.882   0.200  10.113
99970SOL    HW1 1807   5.827   0.276  10.133
99970SOL    HW2 1808   5.937   0.229  10.040
99971SOL     OW 1809   4.488   1.291  13.321
99971SOL    HW1 1810   4.515   1.236  13.396
99971SOL    HW2 1811   4.459   1.373  13.361
99972SOL     OW 1812   5.307  11.591   9.631
99972SOL    HW1 1813   5.294  11.659   9.565
99972SOL    HW2 1814   5.399  11.567   9.623
99973SOL     OW 1815   6.730   6.967   6.119
99973SOL    HW1 1816   6.737   6.879   6.081
99973SOL    HW2 1817   6.681   6.954   6.200
99974SOL     OW 1818  11.095  12.377   0.464
99974SOL    HW1 1819  11.167  12.371   0.401
99974SOL    HW2 1820  11.034  12.308   0.437
99975SOL     OW 1821   6.048  12.646   3.030
99975SOL    HW1 1822   6.086  12.653   2.943
99975SOL    HW2 1823   6.122  12.622   3.087
99976SOL     OW 1824   7.043   7.037  13.665
99976SOL    HW1 1825   7.025   7.024  13.572
99976SOL    HW2 1826   6.991   7.112  13.691
99977SOL     OW 1827   3.080  13.164   7.974
99977SOL    HW1 1828   3.059  13.156   8.067
99977SOL    HW2 1829   3.166  13.122   7.966
99978SOL     OW 1830   3.056   9.879  14.418
99978SOL    HW1 1831   2.973   9.849  14.454
99978SOL    HW2 1832   3.113   9.802  14.420
99979SOL     OW 1833   2.930   1.335  12.250
99979SOL    HW1 1834   2.850   1.296  12.216
99979SOL    HW2 1835   2.911   1.428  12.255
99980SOL     OW 1836   0.392   6.595   4.108
99980SOL    HW1 1837   0.378   6.519   4.165
99980SOL    HW2 1838   0.462   6.567   4.049
99981SOL     OW 1839   3.057  14.311   8.289
99981SOL    HW1 1840   2.970  14.310   8.329
99981SOL    HW2 1841   3.110  14.253   8.344
99982SOL     OW 1842   5.865   3.561   3.996
99982SOL    HW1 1843   5.904   3.631   4.048
99982SOL    HW2 1844   5.772   3.564   4.017
99983SOL     OW 1845  11.980  12.924   1.071
99983SOL    HW1 1846  11.924  12.942   1.146
99983SOL    HW2 1847  12.058  12.884   1.108
99984SOL     OW 1848   4.255  10.029   5.284
99984SOL    HW1 1849   4.316  10.080   5.337
99984SOL    HW2 1850   4.172  10.076   5.292
99985SOL     OW 1851  10.902   3.342  12.165
99985SOL    HW1 1852  10.919   3.305  12.079
99985SOL    HW2 1853  10.968   3.302  12.222
99986SOL     OW 1854   1.019   9.267   3.762
99986SOL    HW1 1855   1.083   9.298   3.827
99986SOL    HW2 1856   1.064   9.275   3.678
99987SOL     OW 1857  13.691  10.794   1.026
99987SOL    HW1 1858  13.632  10.760   0.959
99987SOL    HW2 1859  13.738  10.718   1.059
99988SOL     OW 1860   2.335   4.098  11.742
99988SOL    HW1 1861   2.273   4.121  11.673
99988SOL    HW2 1862   2.385   4.025  11.706
99989SOL     OW 1863   3.034   0.135   9.224
99989SOL    HW1 1864   3.091   0.180   9.287
99989SOL    HW2 1865   2.953   0.187   9.224
99990SOL     OW 1866  10.604  13.532   0.836
99990SOL    HW1 1867  10.557  13.475   0.775
99990SOL    HW2 1868  10.662  13.584   0.781
99991SOL     OW 1869   0.156   1.871   8.047
99991SOL    HW1 1870   0.061   1.868   8.054
99991SOL    HW2 1871   0.177   1.965   8.054
99992SOL     OW 1872  11.562  14.015   1.675
99992SOL    HW1 1873  11.651  13.981   1.686
99992SOL    HW2 1874  11.554  14.031   1.581
99993SOL     OW 1875   6.668   0.721  13.094
99993SOL    HW1 1876   6.588   0.717  13.042
99993SOL    HW2 1877   6.727   0.778  13.044
99994SOL     OW 1878  10.649   6.047  11.124
99994SOL    HW1 1879  10.644   5.954  11.103
99994SOL    HW2 1880  10.559   6.080  11.112
99995SOL     OW 1881   6.708   1.333   1.780
99995SOL    HW1 1882   6.745   1.421   1.777
99995SOL    HW2 1883   6.764   1.285   1.842
99996SOL     OW 1884   7.090   5.562   0.372
99996SOL    HW1 1885   7.159   5.587   0.310
99996SOL    HW2 1886   7.125   5.486   0.418
99997SOL     OW 1887  13.652   7.180   1.812
99997SOL    HW1 1888  13.640   7.272   1.789
99997SOL    HW2 1889  13.747   7.168   1.815
99998SOL     OW 1890  13.145   3.367   3.430
99998SOL    HW1 1891  13.083   3.314   3.380
99998SOL    HW2 1892  13.196   3.304   3.481
99999SOL     OW 1893   4.539  11.656   5.259
99999SOL    HW1 1894   4.551  11.587   5.324
99999SOL    HW2 1895   4.477  11.717   5.300
    0SOL     OW 1896   2.045   3.626   3.765
    0SOL    HW1 1897   2.054   3.531   3.764
    0SOL    HW2 1898   2.134   3.658   3.749
    1SOL     OW 1899   4.276  14.592   9.957
    1SOL    HW1 1900   4.271  14.580  10.052
    1SOL    HW2 1901   4.209  14.534   9.922
    2SOL     OW 1902   6.568  12.044  12.151
    2SOL    HW1 1903   6.641  12.086  12.196
    2SOL    HW2 1904   6.595  11.952  12.143
    3SOL     OW 1905   7.599   0.949   3.462
    3SOL    HW1 1906   7.543   0.882   3.422
    3SOL    HW2 1907   7.626   0.910   3.546
    4SOL     OW 1908   2.616   5.172   3.503
    4SOL    HW1 1909   2.627   5.248   3.559
    4SOL    HW2 1910   2.605   5.099   3.563
    5SOL     OW 1911  13.264   7.839   6.279
    5SOL    HW1 1912  13.172   7.858   6.296
    5SOL    HW2 1913  13.312   7.908   6.324
    6SOL     OW 1914   5.860   7.241   3.424
    6SOL    HW1 1915   5.789   7.180   3.447
    6SOL    HW2 1916   5.922   7.188   3.375
    7SOL     OW 1917   4.569   8.347   9.092
    7SOL    HW1 1918   4.519   8.269   9.069
    7SOL    HW2 1919   4.622   8.366   9.014
    8SOL     OW 1920   7.549   5.827   4.879
    8SOL    HW1 1921   7.499   5.796   4.955
    8SOL    HW2 1922   7.543   5.756   4.816
    9SOL     OW 1923   1.221   4.194   2.516
    9SOL    HW1 1924   1.223   4.117   2.572
    9SOL    HW2 1925   1.157   4.174   2.448
   10SOL     OW 1926  11.727   0.371  13.028
   10SOL    HW1 1927  11.708   0.398  13.118
   10SOL    HW2 1928  11.773   0.446  12.991
   11SOL     OW 1929   0.350  11.924   3.992
   11SOL    HW1 1930   0.432  11.974   3.998
   11SOL    HW2 1931   0.363  11.866   3.917
   12SOL     OW 1932   7.053   1.221  11.295
   12SOL    HW1 1933   6.960   1.215  11.318
   12SOL    HW2 1934   7.087   1.290  11.351
   13SOL     OW 1935  12.104  11.579  13.863
   13SOL    HW1 1936  12.084  11.488  13.885
   13SOL    HW2 1937  12.114  11.579  13.768
   14SOL     OW 1938   3.914  13.923   0.601
   14SOL    HW1 1939   3.937  13.840   0.643
   14SOL    HW2 1940   3.899  13.983   0.674
   15SOL     OW 1941   4.429  14.857  12.536
   15SOL    HW1 1942   4.477  14.839  12.455
   15SOL    HW2 1943   4.338  14.835  12.516
   16SOL     OW 1944  10.318   5.023   7.954
   16SOL    HW1 1945  10.275   4.943   7.924
   16SOL    HW2 1946  10.412   5.002   7.951
   17SOL     OW 1947   5.247  10.243   3.019
   17SOL    HW1 1948   5.252  10.278   2.930
   17SOL    HW2 1949   5.299  10.305   3.072
   18SOL     OW 1950  13.837   9.690   8.006
   18SOL    HW1 1951  13.743   9.708   8.011
   18SOL    HW2 1952  13.863   9.726   7.921
   19SOL     OW 1953  14.562   2.617   8.833
   19SOL    HW1 1954  14.481   2.660   8.806
   19SOL    HW2 1955  14.534   2.553   8.899
   20SOL     OW 1956   3.176   4.448  14.195
   20SOL    HW1 1957   3.209   4.375  14.143
   20SOL    HW2 1958   3.091   4.418  14.227
   21SOL     OW 1959   6.717  14.266  14.026
   21SOL    HW1 1960   6.669  14.213  14.090
   21SOL    HW2 1961   6.659  14.270  13.950
   22SOL     OW 1962  14.532  14.831   6.006
   22SOL    HW1 1963  14.587  14.851   5.930
   22SOL    HW2 1964  14.595  14.821   6.078
   23SOL     OW 1965   6.350   8.677  11.816
   23SOL    HW1 1966   6.276   8.629  11.780
   23SOL    HW2 1967   6.410   8.688  11.742
   24SOL     OW 1968  10.091   9.758   0.719
   24SOL    HW1 1969  10.156   9.788   0.655
   24SOL    HW2 1970  10.131   9.681   0.759
   25SOL     OW 1971   0.930   5.261   0.376
   25SOL    HW1 1972   0.837   5.281   0.378
   25SOL    HW2 1973   0.944   5.218   0.291
   26SOL     OW 1974   5.050   3.665  10.745
   26SOL    HW1 1975   5.019   3.717  10.820
   26SOL    HW2 1976   5.080   3.583  10.784
   27SOL     OW 1977   6.381  12.916   9.978
   27SOL    HW1 1978   6.462  12.889  10.019
   27SOL    HW2 1979   6.403  12.928   9.886
   28SOL     OW 1980   0.460  14.297   9.398
   28SOL    HW1 1981   0.544  14.293   9.444
   28SOL    HW2 1982   0.427  14.208   9.401
   29SOL     OW 1983   4.703   1.505  12.907
   29SOL    HW1 1984   4.673   1.449  12.978
   29SOL    HW2 1985   4.675   1.593  12.932
   30SOL     OW 1986  13.678   2.979  14.873
   30SOL    HW1 1987  13.647   2.910  14.814
   30SOL    HW2 1988  13.628   3.057  14.847
   31SOL     OW 1989   6.547   1.822   6.723
   31SOL    HW1 1990   6.599   1.860   6.652
   31SOL    HW2 1991   6.502   1.748   6.682
   32SOL     OW 1992  13.426  12.169   2.638
   32SOL    HW1 1993  13.461  12.241   2.692
   32SOL    HW2 1994  13.377  12.213   2.569
   33SOL     OW 1995  13.637  10.719  11.390
   33SOL    HW1 1996  13.709  10.690  11.333
   33SOL    HW2 1997  13.639  10.658  11.464
   34SOL     OW 1998   5.422  11.353  14.782
   34SOL    HW1 1999   5.350  11.299  14.817
   34SOL    HW2 2000   5.491  11.346  14.848
   35SOL     OW 2001   1.387  10.630   4.230
   35SOL    HW1 2002   1.354  10.551   4.187
   35SOL    HW2 2003   1.419  10.685   4.158
   36SOL     OW 2004  11.745   9.278  14.130
   36SOL    HW1 2005  11.663   9.232  14.115
   36SOL    HW2 2006  11.767   9.317  14.045
   37SOL     OW 2007   4.309   6.412   8.985
   37SOL    HW1 2008   4.350   6.410   8.898
   37SOL    HW2 2009   4.292   6.320   9.005
   38SOL     OW 2010   7.835  14.387   3.132
   38SOL    HW1 2011   7.866  14.477   3.122
   38SOL    HW2 2012   7.891  14.350   3.200
   39SOL     OW 2013   9.823   4.625  12.098
   39SOL    HW1 2014   9.744   4.647  12.147
   39SOL    HW2 2015   9.883   4.697  12.117
   40SOL     OW 2016   5.424   0.769   1.713
   40SOL    HW1 2017   5.413   0.758   1.618
   40SOL    HW2 2018   5.365   0.841   1.735
   41SOL     OW 2019   0.713  13.354   4.247
   41SOL    HW1 2020   0.771  13.407   4.302
   41SOL    HW2 2021   0.642  13.327   4.305
   42SOL     OW 2022   2.681  12.513   3.184
   42SOL    HW1 2023   2.724  12.596   3.164
   42SOL    HW2 2024   2.749  12.447   3.174
   43SOL     OW 2025  12.861  14.699   3.562
   43SOL    HW1 2026  12.930  14.763   3.542
   43SOL    HW2 2027  12.831  14.668   3.477
   44SOL     OW 2028   2.983  10.910   6.893
   44SOL    HW1 2029   3.056  10.876   6.945
   44SOL    HW2 2030   2.959  10.992   6.936
   45SOL     OW 2031   7.029  11.015   7.282
   45SOL    HW1 2032   6.977  10.994   7.204
   45SOL    HW2 2033   6.972  10.993   7.356
   46SOL     OW 2034   5.085   0.937  11.732
   46SOL    HW1 2035   5.110   1.029  11.734
   46SOL    HW2 2036   4.997   0.935  11.771
   47SOL     OW 2037  11.278   8.070   9.704
   47SOL    HW1 2038  11.286   8.075   9.609
   47SOL    HW2 2039  11.343   8.132   9.737
   48SOL     OW 2040   4.279   5.925  13.008
   48SOL    HW1 2041   4.344   5.885  13.066
   48SOL    HW2 2042   4.330   5.956  12.933
   49SOL     OW 2043   3.573   1.507   6.987
   49SOL    HW1 2044   3.504   1.517   6.922
   49SOL    HW2 2045   3.636   1.446   6.948
   50SOL     OW 2046   3.904   2.891   7.830
   50SOL    HW1 2047   3.856   2.823   7.783
   50SOL    HW2 2048   3.888   2.873   7.923
   51SOL     OW 2049   4.513  12.602   1.511
   51SOL    HW1 2050   4.512  12.618   1.606
   51SOL    HW2 2051   4.593  12.643   1.480
   52SOL     OW 2052   9.186   1.217   4.590
   52SOL    HW1 2053   9.137   1.297   4.573
   52SOL    HW2 2054   9.193   1.214   4.686
   53SOL     OW 2055   1.550   9.007   9.803
   53SOL    HW1 2056   1.505   8.924   9.785
   53SOL    HW2 2057   1.642   8.982   9.814
   54SOL     OW 2058  13.816  11.912   6.324
   54SOL    HW1 2059  13.785  12.001   6.338
   54SOL    HW2 2060  13.741  11.857   6.345
   55SOL     OW 2061   3.227   6.124   2.558
   55SOL    HW1 2062   3.301   6.139   2.499
   55SOL    HW2 2063   3.207   6.031   2.549
   56SOL     OW 2064   8.675  12.894   6.451
   56SOL    HW1 2065   8.736  12.964   6.431
   56SOL    HW2 2066   8.613  12.895   6.379
   57SOL     OW 2067   7.612   8.007   7.980
   57SOL    HW1 2068   7.668   8.061   7.924
   57SOL    HW2 2069   7.558   8.070   8.028
   58SOL     OW 2070   0.976  11.479   6.712
   58SOL    HW1 2071   0.959  11.420   6.639
   58SOL    HW2 2072   1.021  11.554   6.672
   59SOL     OW 2073  14.431   5.992   7.820
   59SOL    HW1 2074  14.337   6.006   7.835
   59SOL    HW2 2075  14.436   5.955   7.732
   60SOL     OW 2076   2.342   3.783  10.840
   60SOL    HW1 2077   2.299   3.788  10.755
   60SOL    HW2 2078   2.355   3.690  10.855
   61SOL     OW 2079  12.414   0.741   5.196
   61SOL    HW1 2080  12.422   0.663   5.250
   61SOL    HW2 2081  12.482   0.732   5.129
   62SOL     OW 2082   5.485  12.462   5.673
   62SOL    HW1 2083   5.458  12.427   5.587
   62SOL    HW2 2084   5.566  12.510   5.655
   63SOL     OW 2085   8.516  14.022   3.775
   63SOL    HW1 2086   8.547  13.948   3.722
   63SOL    HW2 2087   8.435  14.049   3.733
   64SOL     OW 2088   6.145  14.789   3.529
   64SOL    HW1 2089   6.061  14.750   3.555
   64SOL    HW2 2090   6.164  14.852   3.598
   65SOL     OW 2091  11.194   1.893   0.404
   65SOL    HW1 2092  11.135   1.958   0.365
   65SOL    HW2 2093  11.147   1.863   0.482
   66SOL     OW 2094  13.680   4.846   5.787
   66SOL    HW1 2095  13.600   4.887   5.821
   66SOL    HW2 2096  13.751   4.904   5.815
   67SOL     OW 2097   3.249  13.953   3.981
   67SOL    HW1 2098   3.334  13.911   3.965
   67SOL    HW2 2099   3.269  14.046   3.988
   68SOL     OW 2100  13.106   5.179   5.084
   68SOL    HW1 2101  13.052   5.153   5.009
   68SOL    HW2 2102  13.122   5.272   5.072
   69SOL     OW 2103   4.549  11.083   7.465
   69SOL    HW1 2104   4.553  10.988   7.459
   69SOL    HW2 2105   4.455  11.102   7.474
   70SOL     OW 2106  11.047  12.544   7.029
   70SOL    HW1 2107  10.982  12.611   7.010
   70SOL    HW2 2108  11.082  12.568   7.115
   71SOL     OW 2109   8.882  14.463  11.462
   71SOL    HW1 2110   8.832  14.541  11.486
   71SOL    HW2 2111   8.818  14.407  11.418
   72SOL     OW 2112   6.812   0.196   9.235
   72SOL    HW1 2113   6.854   0.272   9.276
   72SOL    HW2 2114   6.881   0.129   9.233
   73SOL     OW 2115  13.884   8.878   3.940
   73SOL    HW1 2116  13.859   8.867   4.032
   73SOL    HW2 2117  13.871   8.971   3.922
   74SOL     OW 2118  11.782   7.678   0.844
   74SOL    HW1 2119  11.794   7.643   0.756
   74SOL    HW2 2120  11.720   7.750   0.833
   75SOL     OW 2121  12.289   4.534   8.840
   75SOL    HW1 2122  12.361   4.537   8.777
   75SOL    HW2 2123  12.324   4.487   8.916
   76SOL     OW 2124   0.253   2.169  14.546
   76SOL    HW1 2125   0.245   2.104  14.615
   76SOL    HW2 2126   0.189   2.236  14.568
   77SOL     OW 2127   9.919  13.900  13.097
   77SOL    HW1 2128   9.832  13.940  13.100
   77SOL    HW2 2129   9.908  13.823  13.042
   78SOL     OW 2130   6.438  13.802   7.608
   78SOL    HW1 2131   6.426  13.715   7.645
   78SOL    HW2 2132   6.378  13.858   7.658
   79SOL     OW 2133   6.507  13.070   7.614
   79SOL    HW1 2134   6.419  13.090   7.582
   79SOL    HW2 2135   6.566  13.109   7.550
   80SOL     OW 2136  10.909   4.497   1.586
   80SOL    HW1 2137  10.998   4.496   1.551
   80SOL    HW2 2138  10.869   4.417   1.551
   81SOL     OW 2139   3.119  13.150  10.969
   81SOL    HW1 2140   3.037  13.106  10.947
   81SOL    HW2 2141   3.170  13.149  10.888
   82SOL     OW 2142   8.102   2.542   5.264
   82SOL    HW1 2143   8.012   2.574   5.256
   82SOL    HW2 2144   8.119   2.496   5.182
   83SOL     OW 2145   8.931   0.191  13.714
   83SOL    HW1 2146   8.836   0.186  13.704
   83SOL    HW2 2147   8.944   0.229  13.802
   84SOL     OW 2148  11.182   8.271   3.095
   84SOL    HW1 2149  11.122   8.215   3.145
   84SOL    HW2 2150  11.227   8.323   3.162
   85SOL     OW 2151  10.365  13.395  11.450
   85SOL    HW1 2152  10.402  13.312  11.479
   85SOL    HW2 2153  10.272  13.376  11.436
   86SOL     OW 2154   9.614  13.807   9.447
   86SOL    HW1 2155   9.604  13.797   9.541
   86SOL    HW2 2156   9.669  13.733   9.420
   87SOL     OW 2157  11.216   7.356   5.110
   87SOL    HW1 2158  11.182   7.433   5.155
   87SOL    HW2 2159  11.301   7.339   5.151
   88SOL     OW 2160   6.488   6.288  13.620
   88SOL    HW1 2161   6.521   6.376  13.637
   88SOL    HW2 2162   6.458   6.257  13.706
   89SOL     OW 2163   8.793   4.102  11.933
   89SOL    HW1 2164   8.728   4.172  11.935
   89SOL    HW2 2165   8.804   4.083  11.840
   90SOL     OW 2166  14.382   9.571  12.941
   90SOL    HW1 2167  14.343   9.547  12.857
   90SOL    HW2 2168  14.338   9.514  13.004
   91SOL     OW 2169   4.321   7.935  14.239
   91SOL    HW1 2170   4.317   8.028  14.263
   91SOL    HW2 2171   4.252   7.924  14.174
   92SOL     OW 2172   7.791  11.893   5.016
   92SOL    HW1 2173   7.748  11.815   4.981
   92SOL    HW2 2174   7.761  11.964   4.959
   93SOL     OW 2175   2.699   3.286  14.221
   93SOL    HW1 2176   2.784   3.292  14.265
   93SOL    HW2 2177   2.639   3.257  14.290
   94SOL     OW 2178   6.250  10.962   9.773
   94SOL    HW1 2179   6.220  11.037   9.723
   94SOL    HW2 2180   6.187  10.893   9.753
   95SOL     OW 2181  10.241   2.982  13.850
   95SOL    HW1 2182  10.330   2.998  13.817
   95SOL    HW2 2183  10.240   2.888  13.870
   96SOL     OW 2184  13.673   8.949  14.113
   96SOL    HW1 2185  13.728   8.872  14.103
   96SOL    HW2 2186  13.734   9.022  14.123
   97SOL     OW 2187   4.909  13.514   9.499
   97SOL    HW1 2188   4.907  13.465   9.581
   97SOL    HW2 2189   4.855  13.464   9.439
   98SOL     OW 2190  13.346   0.706   5.183
   98SOL    HW1 2191  13.253   0.686   5.176
   98SOL    HW2 2192  13.389   0.621   5.192
   99SOL     OW 2193   0.638  11.631   4.440
   99SOL    HW1 2194   0.640  11.727   4.444
   99SOL    HW2 2195   0.614  11.611   4.349
  100SOL     OW 2196   7.111   9.721   3.267
  100SOL    HW1 2197   7.074   9.749   3.351
  100SOL    HW2 2198   7.036   9.692   3.216
  101SOL     OW 2199  11.673   8.441  13.352
  101SOL    HW1 2200  11.704   8.355  13.383
  101SOL    HW2 2201  11.703   8.503  13.418
  102SOL     OW 2202  11.869  10.810   1.824
  102SOL    HW1 2203  11.790  10.759   1.803
  102SOL    HW2 2204  11.869  10.881   1.760
  103SOL     OW 2205   0.133   9.742  11.444
  103SOL    HW1 2206   0.110   9.655  11.411
  103SOL    HW2 2207   0.168   9.788  11.368
  104SOL     OW 2208   2.185  11.388   1.770
  104SOL    HW1 2209   2.200  11.352   1.682
  104SOL    HW2 2210   2.254  11.454   1.781
  105SOL     OW 2211  11.503  10.601   5.300
  105SOL    HW1 2212  11.563  10.538   5.339
  105SOL    HW2 2213  11.464  10.554   5.226
  106SOL     OW 2214   8.077   2.192   4.667
  106SOL    HW1 2215   8.092   2.113   4.614
  106SOL    HW2 2216   8.083   2.162   4.757
  107SOL     OW 2217   8.024   6.996   3.940
  107SOL    HW1 2218   8.027   6.984   4.034
  107SOL    HW2 2219   7.931   7.011   3.920
  108SOL     OW 2220   2.116  10.220  11.923
  108SOL    HW1 2221   2.093  10.242  11.833
  108SOL    HW2 2222   2.201  10.177  11.916
  109SOL     OW 2223  12.988  13.293  13.643
  109SOL    HW1 2224  12.893  13.302  13.653
  109SOL    HW2 2225  13.009  13.341  13.564
  110SOL     OW 2226   3.298  10.993   9.213
  110SOL    HW1 2227   3.247  10.945   9.148
  110SOL    HW2 2228   3.386  10.955   9.207
  111SOL     OW 2229  13.965   6.298   7.104
  111SOL    HW1 2230  14.060   6.311   7.098
  111SOL    HW2 2231  13.933   6.376   7.149
  112SOL     OW 2232   3.707   0.979   3.518
  112SOL    HW1 2233   3.701   1.074   3.518
  112SOL    HW2 2234   3.648   0.951   3.588
  113SOL     OW 2235   0.799   5.581   1.415
  113SOL    HW1 2236   0.772   5.504   1.464
  113SOL    HW2 2237   0.893   5.589   1.431
  114SOL     OW 2238   5.800   6.492  10.804
  114SOL    HW1 2239   5.862   6.453  10.864
  114SOL    HW2 2240   5.834   6.580  10.788
  115SOL     OW 2241   4.412  10.660  12.356
  115SOL    HW1 2242   4.340  10.598  12.370
  115SOL    HW2 2243   4.481  10.631  12.415
  116SOL     OW 2244  13.801   7.064   6.927
  116SOL    HW1 2245  13.784   7.138   6.868
  116SOL    HW2 2246  13.775   6.987   6.877
  117SOL     OW 2247   3.608  13.184   5.969
  117SOL    HW1 2248   3.583  13.111   5.911
  117SOL    HW2 2249   3.528  13.236   5.977
  118SOL     OW 2250  11.405   5.787  10.876
  118SOL    HW1 2251  11.443   5.756  10.793
  118SOL    HW2 2252  11.386   5.707  10.925
  119SOL     OW 2253  14.682  10.930   6.199
  119SOL    HW1 2254  14.606  10.872   6.191
  119SOL    HW2 2255  14.655  11.012   6.157
  120SOL     OW 2256   6.069   3.446   0.866
  120SOL    HW1 2257   5.988   3.459   0.815
  120SOL    HW2 2258   6.129   3.512   0.833
  121SOL     OW 2259   2.328   7.797   4.274
  121SOL    HW1 2260   2.339   7.814   4.180
  121SOL    HW2 2261   2.391   7.855   4.317
  122SOL     OW 2262   4.705  11.195  10.886
  122SOL    HW1 2263   4.740  11.247  10.813
  122SOL    HW2 2264   4.782  11.153  10.924
  123SOL     OW 2265   2.135   3.638   6.948
  123SOL    HW1 2266   2.162   3.594   6.867
  123SOL    HW2 2267   2.215   3.642   7.000
  124SOL     OW 2268  13.284   8.936   9.164
  124SOL    HW1 2269  13.241   8.885   9.232
  124SOL    HW2 2270  13.325   8.870   9.107
  125SOL     OW 2271  13.560   5.702   1.477
  125SOL    HW1 2272  13.591   5.660   1.557
  125SOL    HW2 2273  13.615   5.780   1.467
  126SOL     OW 2274   6.892   0.611  12.277
  126SOL    HW1 2275   6.830   0.626  12.206
  126SOL    HW2 2276   6.964   0.672  12.259
  127SOL     OW 2277  11.702   3.856   9.014
  127SOL    HW1 2278  11.625   3.876   8.961
  127SOL    HW2 2279  11.691   3.764   9.040
  128SOL     OW 2280   2.066   3.526   7.905
  128SOL    HW1 2281   1.985   3.556   7.863
  128SOL    HW2 2282   2.130   3.594   7.885
  129SOL     OW 2283  13.849  10.651   4.041
  129SOL    HW1 2284  13.769  10.632   3.991
  129SOL    HW2 2285  13.846  10.589   4.114
  130SOL     OW 2286  14.464   8.772   2.039
  130SOL    HW1 2287  14.534   8.822   2.081
  130SOL    HW2 2288  14.467   8.798   1.947
  131SOL     OW 2289   8.917   5.579  10.611
  131SOL    HW1 2290   9.002   5.542  10.634
  131SOL    HW2 2291   8.914   5.575  10.515
  132SOL     OW 2292  10.705   8.134  13.848
  132SOL    HW1 2293  10.708   8.047  13.808
  132SOL    HW2 2294  10.640   8.127  13.917
  133SOL     OW 2295   4.863  12.684   6.849
  133SOL    HW1 2296   4.848  12.604   6.799
  133SOL    HW2 2297   4.849  12.658   6.940
  134SOL     OW 2298   2.917   7.032   7.566
  134SOL    HW1 2299   2.964   7.112   7.545
  134SOL    HW2 2300   2.978   6.962   7.542
  135SOL     OW 2301   7.472  11.934   3.860
  135SOL    HW1 2302   7.441  11.874   3.792
  135SOL    HW2 2303   7.566  11.944   3.841
  136SOL     OW 2304   8.502   3.559   9.358
  136SOL    HW1 2305   8.525   3.609   9.436
  136SOL    HW2 2306   8.479   3.472   9.391
  137SOL     OW 2307   3.517  11.671   0.523
  137SOL    HW1 2308   3.584  11.738   0.515
  137SOL    HW2 2309   3.514  11.629   0.437
  138SOL     OW 2310   7.962   8.779  10.669
  138SOL    HW1 2311   7.887   8.736  10.712
  138SOL    HW2 2312   7.935   8.870  10.661
  139SOL     OW 2313   7.439   2.022  13.589
  139SOL    HW1 2314   7.370   2.085  13.568
  139SOL    HW2 2315   7.393   1.939  13.602
  140SOL     OW 2316   0.422  14.050   5.400
  140SOL    HW1 2317   0.341  14.024   5.443
  140SOL    HW2 2318   0.482  14.069   5.472
  141SOL     OW 2319  14.728   8.083  10.791
  141SOL    HW1 2320  14.711   8.026  10.716
  141SOL    HW2 2321  14.798   8.038  10.839
  142SOL     OW 2322  11.679   4.175  13.843
  142SOL    HW1 2323  11.609   4.115  13.820
  142SOL    HW2 2324  11.701   4.219  13.761
  143SOL     OW 2325   1.771   0.599   2.522
  143SOL    HW1 2326   1.755   0.509   2.495
  143SOL    HW2 2327   1.772   0.595   2.618
  144SOL     OW 2328   9.102   8.398  14.356
  144SOL    HW1 2329   9.194   8.373  14.361
  144SOL    HW2 2330   9.056   8.332  14.408
  145SOL     OW 2331   0.849  11.462  11.824
  145SOL    HW1 2332   0.942  11.477  11.845
  145SOL    HW2 2333   0.838  11.368  11.827
  146SOL     OW 2334   8.519  10.664  12.107
  146SOL    HW1 2335   8.461  10.636  12.177
  146SOL    HW2 2336   8.461  10.706  12.043
  147SOL     OW 2337   6.684  11.209   0.816
  147SOL    HW1 2338   6.654  11.290   0.857
  147SOL    HW2 2339   6.605  11.168   0.782
  148SOL     OW 2340   4.634   7.924   7.839
  148SOL    HW1 2341   4.566   7.869   7.877
  148SOL    HW2 2342   4.685   7.865   7.784
  149SOL     OW 2343  13.810   6.351   7.842
  149SOL    HW1 2344  13.794   6.272   7.893
  149SOL    HW2 2345  13.851   6.321   7.762
  150SOL     OW 2346   0.816   9.868   4.251
  150SOL    HW1 2347   0.756   9.835   4.318
  150SOL    HW2 2348   0.879   9.798   4.238
  151SOL     OW 2349   2.754  10.702  10.154
  151SOL    HW1 2350   2.844  10.723  10.132
  151SOL    HW2 2351   2.723  10.778  10.204
  152SOL     OW 2352  14.378  11.670   4.548
  152SOL    HW1 2353  14.311  11.612   4.511
  152SOL    HW2 2354  14.361  11.755   4.508
  153SOL     OW 2355   1.513   4.231  10.537
  153SOL    HW1 2356   1.490   4.225  10.444
  153SOL    HW2 2357   1.598   4.189  10.543
  154SOL     OW 2358  11.600  11.022   6.329
  154SOL    HW1 2359  11.542  11.057   6.262
  154SOL    HW2 2360  11.670  11.086   6.336
  155SOL     OW 2361  14.803   6.756   0.252
  155SOL    HW1 2362  14.711   6.731   0.259
  155SOL    HW2 2363  14.827   6.785   0.340
  156SOL     OW 2364  11.039   9.929   2.246
  156SOL    HW1 2365  11.070  10.014   2.215
  156SOL    HW2 2366  10.945   9.929   2.227
  157SOL     OW 2367  14.154  11.341  12.388
  157SOL    HW1 2368  14.188  11.261  12.429
  157SOL    HW2 2369  14.200  11.412  12.433
  158SOL     OW 2370   5.862   8.573   9.515
  158SOL    HW1 2371   5.768   8.586   9.517
  158SOL    HW2 2372   5.880   8.511   9.586
  159SOL     OW 2373   2.113   7.987   1.840
  159SOL    HW1 2374   2.020   7.967   1.833
  159SOL    HW2 2375   2.142   8.000   1.750
  160SOL     OW 2376   7.821   3.307   3.969
  160SOL    HW1 2377   7.765   3.240   4.007
  160SOL    HW2 2378   7.905   3.296   4.014
  161SOL     OW 2379   5.305   2.587   1.373
  161SOL    HW1 2380   5.226   2.550   1.412
  161SOL    HW2 2381   5.274   2.652   1.310
  162SOL     OW 2382   1.768   4.701   3.498
  162SOL    HW1 2383   1.800   4.717   3.409
  162SOL    HW2 2384   1.843   4.722   3.555
  163SOL     OW 2385   9.344   1.475   1.131
  163SOL    HW1 2386   9.265   1.524   1.151
  163SOL    HW2 2387   9.374   1.443   1.216
  164SOL     OW 2388   2.619   6.430  14.184
  164SOL    HW1 2389   2.634   6.374  14.108
  164SOL    HW2 2390   2.633   6.372  14.259
  165SOL     OW 2391  14.074   2.011  10.491
  165SOL    HW1 2392  14.043   1.967  10.412
  165SOL    HW2 2393  14.157   1.969  10.512
  166SOL     OW 2394   3.246   5.622   3.332
  166SOL    HW1 2395   3.229   5.579   3.248
  166SOL    HW2 2396   3.339   5.606   3.349
  167SOL     OW 2397   2.226   5.986   3.552
  167SOL    HW1 2398   2.317   5.960   3.570
  167SOL    HW2 2399   2.174   5.911   3.580
  168SOL     OW 2400   1.783   3.270   1.948
  168SOL    HW1 2401   1.749   3.190   1.988
  168SOL    HW2 2402   1.705   3.323   1.929
  169SOL     OW 2403   3.804  10.124  11.395
  169SOL    HW1 2404   3.896  10.117  11.369
  169SOL    HW2 2405   3.765  10.181  11.330
  170SOL     OW 2406   2.246   2.426   2.022
  170SOL    HW1 2407   2.261   2.504   2.075
  170SOL    HW2 2408   2.247   2.353   2.084
  171SOL     OW 2409   6.312   0.660   0.053
  171SOL    HW1 2410   6.276   0.575   0.079
  171SOL    HW2 2411   6.274   0.676  14.854
  172SOL     OW 2412   4.298   2.494   4.278
  172SOL    HW1 2413   4.354   2.563   4.312
  172SOL    HW2 2414   4.209   2.527   4.291
  173SOL     OW 2415   3.396   7.559   4.347
  173SOL    HW1 2416   3.303   7.554   4.367
  173SOL    HW2 2417   3.400   7.585   4.255
  174SOL     OW 2418   2.702   7.377  12.413
  174SOL    HW1 2419   2.718   7.371  12.507
  174SOL    HW2 2420   2.754   7.306  12.375
  175SOL     OW 2421   0.762   0.632   8.037
  175SOL    HW1 2422   0.681   0.611   8.084
  175SOL    HW2 2423   0.737   0.702   7.977
  176SOL     OW 2424   6.268  11.673  10.821
  176SOL    HW1 2425   6.285  11.597  10.766
  176SOL    HW2 2426   6.280  11.748  10.763
  177SOL     OW 2427   4.306   4.547   6.733
  177SOL    HW1 2428   4.245   4.479   6.704
  177SOL    HW2 2429   4.265   4.584   6.811
  178SOL     OW 2430   4.132   3.017  14.354
  178SOL    HW1 2431   4.107   2.930  14.383
  178SOL    HW2 2432   4.057   3.048  14.303
  179SOL     OW 2433   5.694   2.021   5.479
  179SOL    HW1 2434   5.699   2.003   5.573
  179SOL    HW2 2435   5.732   2.108   5.469
  180SOL     OW 2436   9.068  14.001   6.117
  180SOL    HW1 2437   9.004  13.935   6.144
  180SOL    HW2 2438   9.125  14.011   6.194
  181SOL     OW 2439   9.993   2.310  14.158
  181SOL    HW1 2440   9.999   2.353  14.244
  181SOL    HW2 2441  10.029   2.222  14.173
  182SOL     OW 2442   5.171   0.933   2.285
  182SOL    HW1 2443   5.136   0.874   2.352
  182SOL    HW2 2444   5.170   0.882   2.204
  183SOL     OW 2445   5.652  14.722   6.823
  183SOL    HW1 2446   5.564  14.684   6.826
  183SOL    HW2 2447   5.668  14.752   6.912
  184SOL     OW 2448   9.648   0.269   5.920
  184SOL    HW1 2449   9.725   0.216   5.943
  184SOL    HW2 2450   9.623   0.237   5.834
  185SOL     OW 2451   1.561   0.735  11.427
  185SOL    HW1 2452   1.652   0.730  11.398
  185SOL    HW2 2453   1.544   0.650  11.467
  186SOL     OW 2454  10.866  12.111   8.579
  186SOL    HW1 2455  10.827  12.135   8.663
  186SOL    HW2 2456  10.866  12.015   8.578
  187SOL     OW 2457  13.841   0.274   5.243
  187SOL    HW1 2458  13.776   0.316   5.301
  187SOL    HW2 2459  13.793   0.258   5.162
  188SOL     OW 2460   6.013   9.634  13.113
  188SOL    HW1 2461   6.099   9.594  13.104
  188SOL    HW2 2462   6.017   9.682  13.195
  189SOL     OW 2463  12.334  12.122  10.757
  189SOL    HW1 2464  12.344  12.202  10.704
  189SOL    HW2 2465  12.257  12.079  10.720
  190SOL     OW 2466  10.655   2.685   9.971
  190SOL    HW1 2467  10.723   2.741   9.935
  190SOL    HW2 2468  10.574   2.714   9.929
  191SOL     OW 2469   0.974   0.508   9.648
  191SOL    HW1 2470   0.962   0.414   9.652
  191SOL    HW2 2471   0.940   0.540   9.731
  192SOL     OW 2472   0.669   6.070   7.019
  192SOL    HW1 2473   0.665   6.076   6.924
  192SOL    HW2 2474   0.732   6.138   7.045
  193SOL     OW 2475   0.137  10.214   5.884
  193SOL    HW1 2476   0.120  10.125   5.854
  193SOL    HW2 2477   0.177  10.203   5.970
  194SOL     OW 2478   5.841   2.092   4.972
  194SOL    HW1 2479   5.884   2.064   5.053
  194SOL    HW2 2480   5.863   2.023   4.908
  195SOL     OW 2481   4.739   3.654   5.964
  195SOL    HW1 2482   4.754   3.722   6.029
  195SOL    HW2 2483   4.650   3.623   5.982
  196SOL     OW 2484   8.656   9.789   8.472
  196SOL    HW1 2485   8.569   9.822   8.449
  196SOL    HW2 2486   8.639   9.705   8.514
  197SOL     OW 2487   2.799   0.461   9.551
  197SOL    HW1 2488   2.740   0.529   9.582
  197SOL    HW2 2489   2.886   0.496   9.566
  198SOL     OW 2490  12.250   8.632  12.160
  198SOL    HW1 2491  12.318   8.567  12.176
  198SOL    HW2 2492  12.179   8.583  12.118
  199SOL     OW 2493   9.809   7.184   4.623
  199SOL    HW1 2494   9.821   7.106   4.676
  199SOL    HW2 2495   9.897   7.220   4.613
  200SOL     OW 2496   8.677   4.801  13.678
  200SOL    HW1 2497   8.700   4.709  13.693
  200SOL    HW2 2498   8.749   4.835  13.626
  201SOL     OW 2499   5.724   8.954   4.210
  201SOL    HW1 2500   5.725   8.863   4.240
  201SOL    HW2 2501   5.802   8.994   4.250
  202SOL     OW 2502  12.098   4.953   5.503
  202SOL    HW1 2503  12.046   4.972   5.581
  202SOL    HW2 2504  12.180   5.000   5.518
  203SOL     OW 2505   5.129   4.052   7.968
  203SOL    HW1 2506   5.150   4.007   7.887
  203SOL    HW2 2507   5.112   4.143   7.942
  204SOL     OW 2508   6.231   6.870  11.520
  204SOL    HW1 2509   6.277   6.822  11.451
  204SOL    HW2 2510   6.282   6.853  11.599
  205SOL     OW 2511   7.148   7.935   6.097
  205SOL    HW1 2512   7.109   7.847   6.090
  205SOL    HW2 2513   7.229   7.922   6.146
  206SOL     OW 2514   9.967   7.327  11.781
  206SOL    HW1 2515   9.990   7.419  11.781
  206SOL    HW2 2516   9.887   7.321  11.728
  207SOL     OW 2517   0.680   7.433   8.439
  207SOL    HW1 2518   0.680   7.340   8.463
  207SOL    HW2 2519   0.741   7.438   8.365
  208SOL     OW 2520   2.369  10.979   7.141
  208SOL    HW1 2521   2.288  10.929   7.147
  208SOL    HW2 2522   2.408  10.953   7.057
  209SOL     OW 2523  14.214  12.121   8.910
  209SOL    HW1 2524  14.164  12.107   8.991
  209SOL    HW2 2525  14.183  12.206   8.877
  210SOL     OW 2526   8.356   0.512   5.558
  210SOL    HW1 2527   8.413   0.474   5.492
  210SOL    HW2 2528   8.399   0.594   5.583
  211SOL     OW 2529   0.719   9.692  11.247
  211SOL    HW1 2530   0.702   9.660  11.336
  211SOL    HW2 2531   0.813   9.681  11.236
  212SOL     OW 2532   8.313   5.489  10.883
  212SOL    HW1 2533   8.397   5.519  10.849
  212SOL    HW2 2534   8.270   5.447  10.808
  213SOL     OW 2535   2.125  13.026  14.560
  213SOL    HW1 2536   2.142  12.945  14.608
  213SOL    HW2 2537   2.192  13.028  14.491
  214SOL     OW 2538   1.348   9.189   8.466
  214SOL    HW1 2539   1.406   9.205   8.540
  214SOL    HW2 2540   1.260   9.204   8.501
  215SOL     OW 2541   4.741   8.765  13.656
  215SOL    HW1 2542   4.830   8.736  13.676
  215SOL    HW2 2543   4.699   8.772  13.741
  216SOL     OW 2544   5.082  13.098   6.031
  216SOL    HW1 2545   5.061  13.180   6.076
  216SOL    HW2 2546   4.999  13.071   5.992
  217SOL     OW 2547  12.372   7.350   8.603
  217SOL    HW1 2548  12.313   7.404   8.656
  217SOL    HW2 2549  12.363   7.262   8.639
  218SOL     OW 2550   0.379  12.279   9.594
  218SOL    HW1 2551   0.349  12.293   9.504
  218SOL    HW2 2552   0.314  12.324   9.649
  219SOL     OW 2553   6.997   6.036  12.072
  219SOL    HW1 2554   7.065   5.992  12.122
  219SOL    HW2 2555   7.037   6.118  12.043
  220SOL     OW 2556   3.937  12.375  11.881
  220SOL    HW1 2557   3.887  12.322  11.818
  220SOL    HW2 2558   3.924  12.465  11.851
  221SOL     OW 2559   9.747   2.479   6.302
  221SOL    HW1 2560   9.731   2.562   6.258
  221SOL    HW2 2561   9.824   2.495   6.357
  222SOL     OW 2562   3.620   1.781   6.738
  222SOL    HW1 2563   3.667   1.759   6.658
  222SOL    HW2 2564   3.674   1.744   6.808
  223SOL     OW 2565   5.841   5.192   2.987
  223SOL    HW1 2566   5.755   5.197   2.944
  223SOL    HW2 2567   5.828   5.128   3.057
  224SOL     OW 2568   2.258   9.685  14.113
  224SOL    HW1 2569   2.345   9.662  14.147
  224SOL    HW2 2570   2.273   9.716  14.024
  225SOL     OW 2571  14.088  13.163   4.989
  225SOL    HW1 2572  14.066  13.254   5.011
  225SOL    HW2 2573  14.003  13.119   4.983
  226SOL     OW 2574  10.596  10.169   1.618
  226SOL    HW1 2575  10.632  10.258   1.625
  226SOL    HW2 2576  10.554  10.154   1.703
  227SOL     OW 2577   1.537  12.443  12.226
  227SOL    HW1 2578   1.603  12.433  12.158
  227SOL    HW2 2579   1.506  12.354  12.243
  228SOL     OW 2580   1.025   8.827   6.474
  228SOL    HW1 2581   0.952   8.783   6.429
  228SOL    HW2 2582   1.096   8.826   6.411
  229SOL     OW 2583   8.904   2.824   3.934
  229SOL    HW1 2584   8.932   2.744   3.890
  229SOL    HW2 2585   8.938   2.816   4.024
  230SOL     OW 2586  13.637  10.671   6.548
  230SOL    HW1 2587  13.685  10.629   6.477
  230SOL    HW2 2588  13.576  10.730   6.504
  231SOL     OW 2589   0.580  12.267   4.130
  231SOL    HW1 2590   0.539  12.347   4.161
  231SOL    HW2 2591   0.532  12.197   4.175
  232SOL     OW 2592   9.720   7.431   3.970
  232SOL    HW1 2593   9.792   7.380   4.007
  232SOL    HW2 2594   9.657   7.440   4.042
  233SOL     OW 2595   7.751   8.189  11.734
  233SOL    HW1 2596   7.687   8.125  11.766
  233SOL    HW2 2597   7.718   8.215  11.648
  234SOL     OW 2598   5.523   0.712   3.101
  234SOL    HW1 2599   5.511   0.807   3.113
  234SOL    HW2 2600   5.504   0.697   3.009
  235SOL     OW 2601  14.623  13.449  14.510
  235SOL    HW1 2602  14.700  13.507  14.508
  235SOL    HW2 2603  14.594  13.452  14.602
  236SOL     OW 2604  11.882  14.630   6.088
  236SOL    HW1 2605  11.805  14.685   6.068
  236SOL    HW2 2606  11.845  14.554   6.133
  237SOL     OW 2607   7.425   4.099   1.839
  237SOL    HW1 2608   7.476   4.138   1.910
  237SOL    HW2 2609   7.347   4.064   1.882
  238SOL     OW 2610   5.013   5.653  13.969
  238SOL    HW1 2611   4.961   5.657  13.889
  238SOL    HW2 2612   5.041   5.743  13.984
  239SOL     OW 2613   5.698   9.415   9.778
  239SOL    HW1 2614   5.692   9.383   9.868
  239SOL    HW2 2615   5.790   9.437   9.766
  240SOL     OW 2616   6.937   3.609   3.167
  240SOL    HW1 2617   6.937   3.683   3.107
  240SOL    HW2 2618   6.865   3.627   3.228
  241SOL     OW 2619   2.721  10.322  10.459
  241SOL    HW1 2620   2.732  10.249  10.520
  241SOL    HW2 2621   2.728  10.401  10.513
  242SOL     OW 2622   2.948   2.551  12.459
  242SOL    HW1 2623   2.998   2.515  12.385
  242SOL    HW2 2624   2.900   2.476  12.493
  243SOL     OW 2625   5.242   2.934  12.946
  243SOL    HW1 2626   5.194   2.912  12.866
  243SOL    HW2 2627   5.327   2.964  12.915
  244SOL     OW 2628   9.832   3.148   7.759
  244SOL    HW1 2629   9.757   3.109   7.803
  244SOL    HW2 2630   9.794   3.200   7.688
  245SOL     OW 2631   1.218   0.919   8.497
  245SOL    HW1 2632   1.128   0.937   8.470
  245SOL    HW2 2633   1.267   0.998   8.474
  246SOL     OW 2634   4.891   1.710  10.151
  246SOL    HW1 2635   4.929   1.622  10.148
  246SOL    HW2 2636   4.890   1.733  10.243
  247SOL     OW 2637   2.533   3.796  14.686
  247SOL    HW1 2638   2.451   3.834  14.718
  247SOL    HW2 2639   2.506   3.712  14.648
  248SOL     OW 2640   2.179   4.197  14.069
  248SOL    HW1 2641   2.267   4.161  14.062
  248SOL    HW2 2642   2.185   4.262  14.140
  249SOL     OW 2643  14.013   8.926   1.464
  249SOL    HW1 2644  13.963   8.883   1.394
  249SOL    HW2 2645  13.976   9.014   1.469
  250SOL     OW 2646  11.182   6.142   6.040
  250SOL    HW1 2647  11.112   6.076   6.040
  250SOL    HW2 2648  11.233   6.123   6.119
  251SOL     OW 2649   2.052   8.529   6.314
  251SOL    HW1 2650   2.049   8.496   6.404
  251SOL    HW2 2651   2.045   8.624   6.323
  252SOL     OW 2652  13.578   9.513   7.048
  252SOL    HW1 2653  13.571   9.605   7.020
  252SOL    HW2 2654  13.489   9.490   7.076
  253SOL     OW 2655   4.353   8.286   4.897
  253SOL    HW1 2656   4.434   8.267   4.944
  253SOL    HW2 2657   4.284   8.245   4.949
  254SOL     OW 2658  11.305   7.639   4.237
  254SOL    HW1 2659  11.283   7.720   4.283
  254SOL    HW2 2660  11.391   7.615   4.270
  255SOL     OW 2661  10.725   9.160   2.553
  255SOL    HW1 2662  10.634   9.138   2.533
  255SOL    HW2 2663  10.743   9.118   2.637
  256SOL     OW 2664  10.912   3.867   6.660
  256SOL    HW1 2665  10.998   3.862   6.702
  256SOL    HW2 2666  10.919   3.940   6.599
  257SOL     OW 2667  12.014   9.584   5.938
  257SOL    HW1 2668  12.053   9.499   5.959
  257SOL    HW2 2669  11.942   9.594   6.000
  258SOL     OW 2670   8.014   8.299   9.272
  258SOL    HW1 2671   7.940   8.260   9.225
  258SOL    HW2 2672   8.029   8.241   9.346
  259SOL     OW 2673  12.471  13.774  11.468
  259SOL    HW1 2674  12.490  13.792  11.376
  259SOL    HW2 2675  12.394  13.717  11.466
  260SOL     OW 2676   6.394   2.095   4.778
  260SOL    HW1 2677   6.411   2.073   4.870
  260SOL    HW2 2678   6.445   2.032   4.728
  261SOL     OW 2679   4.358   7.717   2.352
  261SOL    HW1 2680   4.452   7.718   2.336
  261SOL    HW2 2681   4.318   7.709   2.265
  262SOL     OW 2682   2.256   6.199   6.252
  262SOL    HW1 2683   2.237   6.125   6.309
  262SOL    HW2 2684   2.349   6.189   6.230
  263SOL     OW 2685   5.974   6.249  11.920
  263SOL    HW1 2686   5.947   6.244  11.828
  263SOL    HW2 2687   5.893   6.265  11.968
  264SOL     OW 2688  10.675  13.502  12.545
  264SOL    HW1 2689  10.694  13.409  12.531
  264SOL    HW2 2690  10.730  13.546  12.480
  265SOL     OW 2691   3.707   4.607   5.122
  265SOL    HW1 2692   3.636   4.571   5.176
  265SOL    HW2 2693   3.779   4.545   5.134
  266SOL     OW 2694   9.055  14.106   2.214
  266SOL    HW1 2695   9.136  14.073   2.173
  266SOL    HW2 2696   9.025  14.174   2.154
  267SOL     OW 2697  12.612  12.930   5.342
  267SOL    HW1 2698  12.624  12.924   5.247
  267SOL    HW2 2699  12.594  12.840   5.370
  268SOL     OW 2700  12.727   7.741  12.851
  268SOL    HW1 2701  12.791   7.674  12.875
  268SOL    HW2 2702  12.714   7.728  12.757
  269SOL     OW 2703   3.528   2.393   6.865
  269SOL    HW1 2704   3.515   2.408   6.771
  269SOL    HW2 2705   3.444   2.418   6.904
  270SOL     OW 2706  10.347  10.597   7.812
  270SOL    HW1 2707  10.417  10.534   7.798
  270SOL    HW2 2708  10.392  10.678   7.836
  271SOL     OW 2709   9.463  12.896   8.320
  271SOL    HW1 2710   9.428  12.834   8.384
  271SOL    HW2 2711   9.386  12.924   8.269
  272SOL     OW 2712   9.335  11.320   9.953
  272SOL    HW1 2713   9.353  11.401   9.906
  272SOL    HW2 2714   9.280  11.269   9.894
  273SOL     OW 2715   3.143   2.298   1.508
  273SOL    HW1 2716   3.135   2.260   1.596
  273SOL    HW2 2717   3.086   2.243   1.454
  274SOL     OW 2718   2.496  14.297  13.489
  274SOL    HW1 2719   2.504  14.381  13.535
  274SOL    HW2 2720   2.482  14.322  13.398
  275SOL     OW 2721   0.554   4.381   0.740
  275SOL    HW1 2722   0.601   4.460   0.711
  275SOL    HW2 2723   0.605   4.348   0.814
  276SOL     OW 2724   7.399   6.292   5.839
  276SOL    HW1 2725   7.467   6.311   5.905
  276SOL    HW2 2726   7.417   6.353   5.768
  277SOL     OW 2727   2.963  14.579   4.735
  277SOL    HW1 2728   2.914  14.504   4.701
  277SOL    HW2 2729   2.910  14.610   4.809
  278SOL     OW 2730  12.593  10.850   9.679
  278SOL    HW1 2731  12.675  10.885   9.716
  278SOL    HW2 2732  12.620  10.770   9.635
  279SOL     OW 2733   1.259   8.320   0.555
  279SOL    HW1 2734   1.187   8.267   0.522
  279SOL    HW2 2735   1.324   8.318   0.484
  280SOL     OW 2736   8.969  11.671   1.083
  280SOL    HW1 2737   8.903  11.666   1.152
  280SOL    HW2 2738   8.969  11.583   1.044
  281SOL     OW 2739  11.504   8.788   9.590
  281SOL    HW1 2740  11.560   8.775   9.513
  281SOL    HW2 2741  11.518   8.710   9.643
  282SOL     OW 2742   3.862   6.513   2.613
  282SOL    HW1 2743   3.874   6.567   2.691
  282SOL    HW2 2744   3.948   6.510   2.572
  283SOL     OW 2745  12.752   1.589   8.979
  283SOL    HW1 2746  12.811   1.569   8.906
  283SOL    HW2 2747  12.664   1.583   8.941
  284SOL     OW 2748   3.462  14.159   3.463
  284SOL    HW1 2749   3.384  14.212   3.449
  284SOL    HW2 2750   3.441  14.075   3.421
  285SOL     OW 2751   3.847   7.332   7.380
  285SOL    HW1 2752   3.809   7.245   7.398
  285SOL    HW2 2753   3.911   7.345   7.449
  286SOL     OW 2754   9.466  12.597   5.426
  286SOL    HW1 2755   9.506  12.550   5.354
  286SOL    HW2 2756   9.529  12.666   5.448
  287SOL     OW 2757  12.640   1.973   5.245
  287SOL    HW1 2758  12.636   2.050   5.301
  287SOL    HW2 2759  12.554   1.970   5.202
  288SOL     OW 2760   9.296   9.152   3.925
  288SOL    HW1 2761   9.233   9.080   3.933
  288SOL    HW2 2762   9.381   9.109   3.915
  289SOL     OW 2763   1.985   3.901   7.812
  289SOL    HW1 2764   2.009   3.971   7.872
  289SOL    HW2 2765   1.942   3.945   7.738
  290SOL     OW 2766  14.128  11.314  14.094
  290SOL    HW1 2767  14.161  11.403  14.098
  290SOL    HW2 2768  14.174  11.267  14.164
  291SOL     OW 2769   9.042  12.806  12.213
  291SOL    HW1 2770   9.030  12.897  12.184
  291SOL    HW2 2771   9.093  12.813  12.294
  292SOL     OW 2772   3.059  11.618   6.414
  292SOL    HW1 2773   3.061  11.711   6.436
  292SOL    HW2 2774   3.009  11.578   6.485
  293SOL     OW 2775  12.573  10.560   0.649
  293SOL    HW1 2776  12.634  10.568   0.723
  293SOL    HW2 2777  12.628  10.564   0.572
  294SOL     OW 2778   5.877   4.204   7.923
  294SOL    HW1 2779   5.796   4.155   7.934
  294SOL    HW2 2780   5.895   4.202   7.829
  295SOL     OW 2781  11.507   8.679   7.669
  295SOL    HW1 2782  11.473   8.591   7.654
  295SOL    HW2 2783  11.500   8.692   7.763
  296SOL     OW 2784  13.759   4.556  11.944
  296SOL    HW1 2785  13.822   4.600  12.000
  296SOL    HW2 2786  13.694   4.520  12.004
  297SOL     OW 2787   4.017   3.514   4.470
  297SOL    HW1 2788   4.102   3.470   4.476
  297SOL    HW2 2789   4.038   3.602   4.440
  298SOL     OW 2790  10.003  11.474   6.971
  298SOL    HW1 2791  10.092  11.467   6.937
  298SOL    HW2 2792  10.007  11.435   7.058
  299SOL     OW 2793   1.879   1.470   2.715
  299SOL    HW1 2794   1.851   1.464   2.806
  299SOL    HW2 2795   1.889   1.379   2.687
  300SOL     OW 2796   0.760   9.355   1.825
  300SOL    HW1 2797   0.847   9.319   1.807
  300SOL    HW2 2798   0.713   9.286   1.870
  301SOL     OW 2799   1.855   7.292   5.359
  301SOL    HW1 2800   1.795   7.218   5.366
  301SOL    HW2 2801   1.859   7.328   5.448
  302SOL     OW 2802   3.849  14.240   6.042
  302SOL    HW1 2803   3.850  14.160   6.094
  302SOL    HW2 2804   3.895  14.218   5.961
  303SOL     OW 2805   8.526   4.793  11.411
  303SOL    HW1 2806   8.502   4.869  11.464
  303SOL    HW2 2807   8.621   4.798  11.403
  304SOL     OW 2808  11.542   8.720   5.683
  304SOL    HW1 2809  11.636   8.729   5.668
  304SOL    HW2 2810  11.532   8.732   5.777
  305SOL     OW 2811   8.532   6.286   7.456
  305SOL    HW1 2812   8.625   6.269   7.440
  305SOL    HW2 2813   8.531   6.373   7.495
  306SOL     OW 2814   3.285   6.203   1.016
  306SOL    HW1 2815   3.278   6.161   1.102
  306SOL    HW2 2816   3.329   6.137   0.961
  307SOL     OW 2817   6.340   7.788   4.735
  307SOL    HW1 2818   6.279   7.841   4.682
  307SOL    HW2 2819   6.297   7.781   4.820
  308SOL     OW 2820   2.356   0.159   4.081
  308SOL    HW1 2821   2.363   0.250   4.112
  308SOL    HW2 2822   2.347   0.167   3.986
  309SOL     OW 2823   6.776   0.857   9.725
  309SOL    HW1 2824   6.727   0.870   9.807
  309SOL    HW2 2825   6.769   0.764   9.707
  310SOL     OW 2826   0.989   8.069   3.737
  310SOL    HW1 2827   1.027   8.112   3.660
  310SOL    HW2 2828   0.989   8.137   3.804
  311SOL     OW 2829  13.957   3.527   2.000
  311SOL    HW1 2830  13.897   3.507   2.072
  311SOL    HW2 2831  13.944   3.620   1.982
  312SOL     OW 2832   5.823   1.103   6.116
  312SOL    HW1 2833   5.901   1.146   6.082
  312SOL    HW2 2834   5.752   1.135   6.060
  313SOL     OW 2835  11.681   9.382  10.400
  313SOL    HW1 2836  11.629   9.315  10.444
  313SOL    HW2 2837  11.664   9.462  10.450
  314SOL     OW 2838   2.991  14.753  14.677
  314SOL    HW1 2839   3.066  14.701  14.648
  314SOL    HW2 2840   2.948  14.698  14.742
  315SOL     OW 2841   3.323   6.733   9.915
  315SOL    HW1 2842   3.237   6.699   9.939
  315SOL    HW2 2843   3.332   6.711   9.822
  316SOL     OW 2844  13.169  12.490   1.683
  316SOL    HW1 2845  13.214  12.480   1.599
  316SOL    HW2 2846  13.086  12.445   1.671
  317SOL     OW 2847   5.998  11.979   0.872
  317SOL    HW1 2848   6.068  11.914   0.872
  317SOL    HW2 2849   6.029  12.046   0.810
  318SOL     OW 2850   8.560   0.755  14.794
  318SOL    HW1 2851   8.625   0.695  14.830
  318SOL    HW2 2852   8.608   0.836  14.779
  319SOL     OW 2853  14.697  14.742  14.294
  319SOL    HW1 2854  14.733  14.671  14.241
  319SOL    HW2 2855  14.627  14.701  14.345
  320SOL     OW 2856  10.557  11.520  14.201
  320SOL    HW1 2857  10.622  11.459  14.167
  320SOL    HW2 2858  10.502  11.468  14.260
  321SOL     OW 2859   8.245   4.418   1.351
  321SOL    HW1 2860   8.210   4.346   1.404
  321SOL    HW2 2861   8.228   4.390   1.261
  322SOL     OW 2862   3.463   3.621   1.732
  322SOL    HW1 2863   3.494   3.621   1.823
  322SOL    HW2 2864   3.386   3.678   1.733
  323SOL     OW 2865   1.178  13.381   3.478
  323SOL    HW1 2866   1.167  13.375   3.573
  323SOL    HW2 2867   1.254  13.326   3.459
  324SOL     OW 2868   4.178  11.606   8.648
  324SOL    HW1 2869   4.160  11.682   8.593
  324SOL    HW2 2870   4.261  11.627   8.691
  325SOL     OW 2871   6.299   0.977   0.147
  325SOL    HW1 2872   6.328   0.954   0.059
  325SOL    HW2 2873   6.336   0.909   0.203
  326SOL     OW 2874   9.077  10.224   1.963
  326SOL    HW1 2875   9.168  10.241   1.938
  326SOL    HW2 2876   9.038  10.310   1.973
  327SOL     OW 2877  13.793  10.509   9.543
  327SOL    HW1 2878  13.796  10.523   9.448
  327SOL    HW2 2879  13.879  10.473   9.565
  328SOL     OW 2880   7.497   2.144  10.223
  328SOL    HW1 2881   7.517   2.086  10.296
  328SOL    HW2 2882   7.501   2.088  10.145
  329SOL     OW 2883   0.137  12.934   2.721
  329SOL    HW1 2884   0.220  12.889   2.735
  329SOL    HW2 2885   0.144  13.015   2.770
  330SOL     OW 2886   1.006  11.522   8.317
  330SOL    HW1 2887   1.024  11.434   8.352
  330SOL    HW2 2888   1.024  11.514   8.224
  331SOL     OW 2889   7.482   8.974   7.503
  331SOL    HW1 2890   7.479   8.884   7.469
  331SOL    HW2 2891   7.575   8.992   7.511
  332SOL     OW 2892   0.297   5.736  10.716
  332SOL    HW1 2893   0.220   5.717  10.769
  332SOL    HW2 2894   0.263   5.788  10.643
  333SOL     OW 2895   7.472   0.516  13.479
  333SOL    HW1 2896   7.481   0.611  13.487
  333SOL    HW2 2897   7.407   0.504  13.410
  334SOL     OW 2898   8.267  13.250  13.426
  334SOL    HW1 2899   8.338  13.267  13.488
  334SOL    HW2 2900   8.250  13.156  13.433
  335SOL     OW 2901   8.072   6.827  13.861
  335SOL    HW1 2902   8.093   6.915  13.892
  335SOL    HW2 2903   8.069   6.774  13.940
  336SOL     OW 2904  10.483  13.579  12.336
  336SOL    HW1 2905  10.548  13.566  12.405
  336SOL    HW2 2906  10.531  13.624  12.266
  337SOL     OW 2907   6.401   1.972   2.001
  337SOL    HW1 2908   6.441   2.057   1.981
  337SOL    HW2 2909   6.439   1.912   1.937
  338SOL     OW 2910   9.263   2.930   2.816
  338SOL    HW1 2911   9.215   3.010   2.836
  338SOL    HW2 2912   9.225   2.899   2.734
  339SOL     OW 2913  11.523  14.415   7.757
  339SOL    HW1 2914  11.614  14.437   7.774
  339SOL    HW2 2915  11.517  14.322   7.775
  340SOL     OW 2916   5.939   5.095   2.013
  340SOL    HW1 2917   5.983   5.142   1.941
  340SOL    HW2 2918   5.977   5.008   2.011
  341SOL     OW 2919   0.985  11.261  11.983
  341SOL    HW1 2920   1.067  11.216  11.961
  341SOL    HW2 2921   1.013  11.350  12.006
  342SOL     OW 2922   7.776  12.015   4.455
  342SOL    HW1 2923   7.795  11.994   4.363
  342SOL    HW2 2924   7.723  11.941   4.485
  343SOL     OW 2925   0.303  11.364   0.278
  343SOL    HW1 2926   0.298  11.383   0.184
  343SOL    HW2 2927   0.232  11.416   0.316
  344SOL     OW 2928   1.386   7.022  12.485
  344SOL    HW1 2929   1.468   6.987  12.520
  344SOL    HW2 2930   1.358   7.087  12.549
  345SOL     OW 2931   7.022   2.220   3.699
  345SOL    HW1 2932   7.046   2.160   3.628
  345SOL    HW2 2933   6.959   2.280   3.659
  346SOL     OW 2934  12.721  13.729   5.402
  346SOL    HW1 2935  12.742  13.682   5.321
  346SOL    HW2 2936  12.700  13.660   5.465
  347SOL     OW 2937  11.256  14.097  14.420
  347SOL    HW1 2938  11.162  14.111  14.405
  347SOL    HW2 2939  11.286  14.180  14.457
  348SOL     OW 2940   6.320   9.228   5.703
  348SOL    HW1 2941   6.406   9.229   5.745
  348SOL    HW2 2942   6.337   9.197   5.614
  349SOL     OW 2943   7.262  14.848  10.479
  349SOL    HW1 2944   7.276  14.764  10.523
  349SOL    HW2 2945   7.267  14.828  10.386
  350SOL     OW 2946  13.932   7.449   9.509
  350SOL    HW1 2947  13.977   7.372   9.475
  350SOL    HW2 2948  13.990   7.522   9.490
  351SOL     OW 2949   5.755   5.516   6.445
  351SOL    HW1 2950   5.662   5.495   6.460
  351SOL    HW2 2951   5.801   5.434   6.463
  352SOL     OW 2952   1.642   7.491  11.199
  352SOL    HW1 2953   1.664   7.541  11.278
  352SOL    HW2 2954   1.594   7.553  11.144
  353SOL     OW 2955   7.785   5.739  12.318
  353SOL    HW1 2956   7.801   5.659  12.267
  353SOL    HW2 2957   7.855   5.740  12.383
  354SOL     OW 2958   5.178   6.647  14.807
  354SOL    HW1 2959   5.236   6.687  14.872
  354SOL    HW2 2960   5.090   6.663  14.841
  355SOL     OW 2961   2.737   1.269  10.541
  355SOL    HW1 2962   2.732   1.360  10.509
  355SOL    HW2 2963   2.684   1.269  10.621
  356SOL     OW 2964  14.208   2.257  13.882
  356SOL    HW1 2965  14.152   2.319  13.930
  356SOL    HW2 2966  14.147   2.189  13.852
  357SOL     OW 2967   7.991  14.143   5.824
  357SOL    HW1 2968   7.973  14.231   5.790
  357SOL    HW2 2969   7.944  14.139   5.907
  358SOL     OW 2970  13.630   6.341   9.945
  358SOL    HW1 2971  13.663   6.293   9.869
  358SOL    HW2 2972  13.538   6.317   9.951
  359SOL     OW 2973  12.030   4.200   6.163
  359SOL    HW1 2974  11.981   4.224   6.241
  359SOL    HW2 2975  12.071   4.281   6.134
  360SOL     OW 2976   9.141   7.015  11.665
  360SOL    HW1 2977   9.195   7.052  11.735
  360SOL    HW2 2978   9.051   7.027  11.697
  361SOL     OW 2979   9.769   4.316   5.186
  361SOL    HW1 2980   9.710   4.246   5.214
  361SOL    HW2 2981   9.840   4.314   5.250
  362SOL     OW 2982   5.217   4.797   4.961
  362SOL    HW1 2983   5.173   4.867   5.008
  362SOL    HW2 2984   5.172   4.717   4.988
  363SOL     OW 2985  10.568   0.078   3.451
  363SOL    HW1 2986  10.581   0.146   3.385
  363SOL    HW2 2987  10.573   0.125   3.535
  364SOL     OW 2988   9.404   2.746   0.879
  364SOL    HW1 2989   9.367   2.793   0.804
  364SOL    HW2 2990   9.385   2.654   0.861
  365SOL     OW 2991   1.964  10.892   1.115
  365SOL    HW1 2992   1.941  10.976   1.154
  365SOL    HW2 2993   1.893  10.833   1.139
  366SOL     OW 2994   0.803   5.266  12.098
  366SOL    HW1 2995   0.769   5.187  12.057
  366SOL    HW2 2996   0.846   5.236  12.178
  367SOL     OW 2997  14.705  12.407  13.285
  367SOL    HW1 2998  14.689  12.381  13.194
  367SOL    HW2 2999  14.761  12.337  13.320
  368SOL     OW 3000  13.442   8.795  13.120
  368SOL    HW1 3001  13.374   8.752  13.069
  368SOL    HW2 3002  13.457   8.737  13.195
  369SOL     OW 3003   2.509   0.988   0.798
  369SOL    HW1 3004   2.474   1.077   0.803
  369SOL    HW2 3005   2.466   0.950   0.721
  370SOL     OW 3006   1.013   8.631   2.787
  370SOL    HW1 3007   0.988   8.587   2.705
  370SOL    HW2 3008   0.930   8.665   2.821
  371SOL     OW 3009  11.048  10.524   6.386
  371SOL    HW1 3010  11.053  10.433   6.416
  371SOL    HW2 3011  11.063  10.518   6.291
  372SOL     OW 3012   6.545   5.746   5.382
  372SOL    HW1 3013   6.556   5.813   5.315
  372SOL    HW2 3014   6.624   5.752   5.436
  373SOL     OW 3015   7.315  14.577   9.388
  373SOL    HW1 3016   7.287  14.655   9.339
  373SOL    HW2 3017   7.410  14.577   9.379
  374SOL     OW 3018   8.441   8.221   2.314
  374SOL    HW1 3019   8.474   8.232   2.403
  374SOL    HW2 3020   8.506   8.165   2.271
  375SOL     OW 3021   1.178   2.706   6.717
  375SOL    HW1 3022   1.232   2.638   6.757
  375SOL    HW2 3023   1.241   2.770   6.683
  376SOL     OW 3024  12.934  10.588  12.392
  376SOL    HW1 3025  12.985  10.549  12.321
  376SOL    HW2 3026  12.850  10.541  12.389
  377SOL     OW 3027  11.807  14.369   7.092
  377SOL    HW1 3028  11.762  14.322   7.021
  377SOL    HW2 3029  11.742  14.375   7.162
  378SOL     OW 3030  12.683   8.010   8.089
  378SOL    HW1 3031  12.764   7.964   8.068
  378SOL    HW2 3032  12.704   8.102   8.078
  379SOL     OW 3033   9.006   1.321   6.591
  379SOL    HW1 3034   9.097   1.336   6.564
  379SOL    HW2 3035   8.997   1.225   6.591
  380SOL     OW 3036  12.582  13.755  11.168
  380SOL    HW1 3037  12.547  13.774  11.081
  380SOL    HW2 3038  12.614  13.839  11.200
  381SOL     OW 3039   1.891   4.975   3.647
  381SOL    HW1 3040   1.801   4.990   3.618
  381SOL    HW2 3041   1.941   5.046   3.608
  382SOL     OW 3042   8.545   6.729   3.604
  382SOL    HW1 3043   8.559   6.821   3.626
  382SOL    HW2 3044   8.452   6.714   3.622
  383SOL     OW 3045   4.645  11.513   4.727
  383SOL    HW1 3046   4.654  11.421   4.702
  383SOL    HW2 3047   4.573  11.514   4.789
  384SOL     OW 3048  10.538  14.255  12.402
  384SOL    HW1 3049  10.598  14.326  12.382
  384SOL    HW2 3050  10.539  14.200  12.323
  385SOL     OW 3051   6.733   3.863   1.891
  385SOL    HW1 3052   6.658   3.865   1.831
  385SOL    HW2 3053   6.773   3.778   1.875
  386SOL     OW 3054   3.462   3.518  14.126
  386SOL    HW1 3055   3.441   3.479  14.210
  386SOL    HW2 3056   3.533   3.463  14.091
  387SOL     OW 3057   3.968  13.063  12.473
  387SOL    HW1 3058   3.973  13.056  12.568
  387SOL    HW2 3059   3.993  12.976  12.442
  388SOL     OW 3060  11.175   4.127   3.551
  388SOL    HW1 3061  11.263   4.100   3.578
  388SOL    HW2 3062  11.146   4.187   3.619
  389SOL     OW 3063   4.997  11.147   1.324
  389SOL    HW1 3064   5.013  11.175   1.414
  389SOL    HW2 3065   5.074  11.096   1.300
  390SOL     OW 3066   8.422   9.348  12.401
  390SOL    HW1 3067   8.336   9.357  12.360
  390SOL    HW2 3068   8.465   9.278  12.351
  391SOL     OW 3069  14.658   0.929   0.020
  391SOL    HW1 3070  14.672   0.963  14.819
  391SOL    HW2 3071  14.743   0.895   0.047
  392SOL     OW 3072  13.436  12.814  12.014
  392SOL    HW1 3073  13.397  12.729  11.993
  392SOL    HW2 3074  13.375  12.854  12.077
  393SOL     OW 3075   1.432   1.177   0.901
  393SOL    HW1 3076   1.410   1.190   0.994
  393SOL    HW2 3077   1.349   1.152   0.860
  394SOL     OW 3078  11.349  11.533   2.396
  394SOL    HW1 3079  11.425  11.581   2.362
  394SOL    HW2 3080  11.286  11.534   2.324
  395SOL     OW 3081   9.894   5.157   5.067
  395SOL    HW1 3082   9.913   5.250   5.075
  395SOL    HW2 3083   9.968   5.121   5.018
  396SOL     OW 3084  10.655   0.247   9.402
  396SOL    HW1 3085  10.727   0.186   9.387
  396SOL    HW2 3086  10.576   0.195   9.387
  397SOL     OW 3087   4.924   2.119   5.945
  397SOL    HW1 3088   5.007   2.144   5.904
  397SOL    HW2 3089   4.881   2.203   5.965
  398SOL     OW 3090   9.478  14.745   9.266
  398SOL    HW1 3091   9.534  14.678   9.306
  398SOL    HW2 3092   9.396  14.700   9.247
  399SOL     OW 3093  10.139   2.187   2.936
  399SOL    HW1 3094  10.102   2.100   2.952
  399SOL    HW2 3095  10.066   2.247   2.950
  400SOL     OW 3096  12.388   9.414   0.949
  400SOL    HW1 3097  12.335   9.473   0.896
  400SOL    HW2 3098  12.324   9.356   0.991
  401SOL     OW 3099  12.804  11.111   8.339
  401SOL    HW1 3100  12.821  11.201   8.312
  401SOL    HW2 3101  12.773  11.067   8.260
  402SOL     OW 3102   8.929  10.302   2.268
  402SOL    HW1 3103   8.849  10.320   2.317
  402SOL    HW2 3104   8.969  10.388   2.256
  403SOL     OW 3105   3.281  13.801  13.904
  403SOL    HW1 3106   3.346  13.732  13.891
  403SOL    HW2 3107   3.245  13.784  13.991
  404SOL     OW 3108   9.165   2.063   4.740
  404SOL    HW1 3109   9.111   2.122   4.792
  404SOL    HW2 3110   9.253   2.073   4.777
  405SOL     OW 3111  11.849   2.862   4.758
  405SOL    HW1 3112  11.934   2.888   4.722
  405SOL    HW2 3113  11.809   2.808   4.689
  406SOL     OW 3114   7.736  12.061  11.477
  406SOL    HW1 3115   7.708  12.101  11.559
  406SOL    HW2 3116   7.654  12.042  11.431
  407SOL     OW 3117   2.913   1.461  13.380
  407SOL    HW1 3118   2.973   1.436  13.450
  407SOL    HW2 3119   2.831   1.415  13.401
  408SOL     OW 3120   9.810   9.811  12.542
  408SOL    HW1 3121   9.835   9.759  12.619
  408SOL    HW2 3122   9.735   9.765  12.505
  409SOL     OW 3123  12.096  11.359  14.885
  409SOL    HW1 3124  12.004  11.385   0.001
  409SOL    HW2 3125  12.106  11.317  14.799
  410SOL     OW 3126  11.874  12.379  14.723
  410SOL    HW1 3127  11.953  12.327  14.741
  410SOL    HW2 3128  11.886  12.459  14.775
  411SOL     OW 3129   8.620   1.860   4.262
  411SOL    HW1 3130   8.715   1.866   4.259
  411SOL    HW2 3131   8.601   1.768   4.242
  412SOL     OW 3132   8.700  12.363   2.172
  412SOL    HW1 3133   8.720  12.333   2.260
  412SOL    HW2 3134   8.621  12.416   2.182
  413SOL     OW 3135   3.590   6.557  11.167
  413SOL    HW1 3136   3.503   6.571  11.130
  413SOL    HW2 3137   3.629   6.644  11.170
  414SOL     OW 3138   0.408   0.310   9.033
  414SOL    HW1 3139   0.440   0.251   9.101
  414SOL    HW2 3140   0.325   0.344   9.068
  415SOL     OW 3141  14.461   3.538   9.568
  415SOL    HW1 3142  14.521   3.508   9.635
  415SOL    HW2 3143  14.424   3.619   9.603
  416SOL     OW 3144   9.822   6.797   5.087
  416SOL    HW1 3145   9.882   6.864   5.055
  416SOL    HW2 3146   9.851   6.778   5.176
  417SOL     OW 3147  10.556  12.734  10.493
  417SOL    HW1 3148  10.615  12.752  10.566
  417SOL    HW2 3149  10.594  12.659  10.449
  418SOL     OW 3150   3.759  13.013   5.568
  418SOL    HW1 3151   3.785  12.923   5.547
  418SOL    HW2 3152   3.668  13.006   5.597
  419SOL     OW 3153   1.284   6.633   1.198
  419SOL    HW1 3154   1.330   6.551   1.218
  419SOL    HW2 3155   1.223   6.609   1.129
  420SOL     OW 3156   4.918   6.311   0.338
  420SOL    HW1 3157   4.929   6.218   0.318
  420SOL    HW2 3158   4.847   6.340   0.281
  421SOL     OW 3159   1.717  14.517   0.594
  421SOL    HW1 3160   1.680  14.603   0.611
  421SOL    HW2 3161   1.789  14.533   0.533
  422SOL     OW 3162   5.020   6.772   2.584
  422SOL    HW1 3163   4.968   6.807   2.512
  422SOL    HW2 3164   5.073   6.846   2.613
  423SOL     OW 3165  12.932   5.228   9.409
  423SOL    HW1 3166  12.977   5.312   9.406
  423SOL    HW2 3167  12.849   5.248   9.454
  424SOL     OW 3168   4.423  13.802   3.443
  424SOL    HW1 3169   4.490  13.743   3.409
  424SOL    HW2 3170   4.397  13.764   3.527
  425SOL     OW 3171  11.408   5.305   7.732
  425SOL    HW1 3172  11.491   5.318   7.778
  425SOL    HW2 3173  11.358   5.385   7.752
  426SOL     OW 3174  12.632   9.981  11.241
  426SOL    HW1 3175  12.582   9.956  11.163
  426SOL    HW2 3176  12.722   9.958  11.220
  427SOL     OW 3177   5.752   2.903   2.752
  427SOL    HW1 3178   5.824   2.922   2.691
  427SOL    HW2 3179   5.673   2.912   2.699
  428SOL     OW 3180   9.027   8.380   0.589
  428SOL    HW1 3181   9.051   8.472   0.580
  428SOL    HW2 3182   9.038   8.344   0.501
  429SOL     OW 3183   8.550   3.382   6.502
  429SOL    HW1 3184   8.573   3.292   6.479
  429SOL    HW2 3185   8.597   3.436   6.438
  430SOL     OW 3186   0.639  10.093   6.403
  430SOL    HW1 3187   0.689  10.012   6.395
  430SOL    HW2 3188   0.705  10.160   6.423
  431SOL     OW 3189   6.810   8.797  10.557
  431SOL    HW1 3190   6.760   8.718  10.578
  431SOL    HW2 3191   6.856   8.775  10.476
  432SOL     OW 3192   9.559   7.961  11.668
  432SOL    HW1 3193   9.653   7.974  11.686
  432SOL    HW2 3194   9.550   7.979  11.575
  433SOL     OW 3195   8.389   3.230   8.698
  433SOL    HW1 3196   8.415   3.172   8.769
  433SOL    HW2 3197   8.294   3.226   8.696
  434SOL     OW 3198  13.211   6.426   8.840
  434SOL    HW1 3199  13.259   6.378   8.907
  434SOL    HW2 3200  13.270   6.430   8.765
  435SOL     OW 3201  10.697   7.902   7.960
  435SOL    HW1 3202  10.768   7.961   7.932
  435SOL    HW2 3203  10.620   7.958   7.961
  436SOL     OW 3204   4.158  13.165  12.907
  436SOL    HW1 3205   4.072  13.204  12.886
  436SOL    HW2 3206   4.213  13.188  12.833
  437SOL     OW 3207   4.178  11.029   5.480
  437SOL    HW1 3208   4.153  11.110   5.524
  437SOL    HW2 3209   4.194  10.967   5.551
  438SOL     OW 3210   6.716  11.997   5.145
  438SOL    HW1 3211   6.723  11.959   5.057
  438SOL    HW2 3212   6.731  11.923   5.204
  439SOL     OW 3213  12.330   4.234   4.171
  439SOL    HW1 3214  12.371   4.200   4.092
  439SOL    HW2 3215  12.297   4.321   4.145
  440SOL     OW 3216   6.390  12.862   1.845
  440SOL    HW1 3217   6.338  12.907   1.779
  440SOL    HW2 3218   6.364  12.770   1.837
  441SOL     OW 3219  11.257   9.546  12.219
  441SOL    HW1 3220  11.309   9.485  12.169
  441SOL    HW2 3221  11.318   9.583  12.283
  442SOL     OW 3222   4.082   3.255   0.086
  442SOL    HW1 3223   4.093   3.184   0.024
  442SOL    HW2 3224   4.034   3.216   0.160
  443SOL     OW 3225  11.574   6.590  13.488
  443SOL    HW1 3226  11.534   6.580  13.401
  443SOL    HW2 3227  11.500   6.605  13.547
  444SOL     OW 3228   1.558   0.721  12.620
  444SOL    HW1 3229   1.613   0.703  12.544
  444SOL    HW2 3230   1.596   0.801  12.659
  445SOL     OW 3231  14.077   2.732   2.533
  445SOL    HW1 3232  14.071   2.735   2.438
  445SOL    HW2 3233  14.129   2.654   2.552
  446SOL     OW 3234  12.276   1.654   0.257
  446SOL    HW1 3235  12.282   1.714   0.332
  446SOL    HW2 3236  12.253   1.711   0.183
  447SOL     OW 3237   6.856   2.966  11.454
  447SOL    HW1 3238   6.804   2.951  11.375
  447SOL    HW2 3239   6.944   2.939  11.430
  448SOL     OW 3240   9.073   8.661   0.835
  448SOL    HW1 3241   9.167   8.678   0.825
  448SOL    HW2 3242   9.030   8.743   0.813
  449SOL     OW 3243   7.763   8.094   3.734
  449SOL    HW1 3244   7.712   8.124   3.659
  449SOL    HW2 3245   7.740   8.001   3.742
  450SOL     OW 3246   3.507  13.585  13.080
  450SOL    HW1 3247   3.419  13.617  13.061
  450SOL    HW2 3248   3.503  13.492  13.057
  451SOL     OW 3249   4.448   6.210   2.187
  451SOL    HW1 3250   4.371   6.267   2.194
  451SOL    HW2 3251   4.416   6.124   2.215
  452SOL     OW 3252  10.559   2.548   3.356
  452SOL    HW1 3253  10.613   2.624   3.332
  452SOL    HW2 3254  10.559   2.548   3.452
  453SOL     OW 3255  10.904   8.469   4.067
  453SOL    HW1 3256  10.900   8.382   4.107
  453SOL    HW2 3257  10.838   8.520   4.114
  454SOL     OW 3258   5.749  11.235  13.451
  454SOL    HW1 3259   5.795  11.173  13.394
  454SOL    HW2 3260   5.775  11.321  13.418
  455SOL     OW 3261  13.025   3.194  14.094
  455SOL    HW1 3262  13.107   3.239  14.073
  455SOL    HW2 3263  12.957   3.257  14.072
  456SOL     OW 3264  11.866  14.736  14.488
  456SOL    HW1 3265  11.952  14.697  14.477
  456SOL    HW2 3266  11.844  14.723  14.580
  457SOL     OW 3267   5.906   4.300   2.951
  457SOL    HW1 3268   5.822   4.293   2.906
  457SOL    HW2 3269   5.967   4.253   2.894
  458SOL     OW 3270   5.982   5.384   5.713
  458SOL    HW1 3271   6.026   5.336   5.783
  458SOL    HW2 3272   5.888   5.370   5.730
  459SOL     OW 3273   1.279   0.242   0.234
  459SOL    HW1 3274   1.240   0.195   0.307
  459SOL    HW2 3275   1.231   0.212   0.157
  460SOL     OW 3276   3.381  10.500   9.916
  460SOL    HW1 3277   3.435  10.498   9.995
  460SOL    HW2 3278   3.426  10.560   9.857
  461SOL     OW 3279   8.485  13.416   2.081
  461SOL    HW1 3280   8.482  13.357   2.156
  461SOL    HW2 3281   8.420  13.483   2.101
  462SOL     OW 3282   8.686   4.084   5.431
  462SOL    HW1 3283   8.680   4.048   5.520
  462SOL    HW2 3284   8.723   4.171   5.443
  463SOL     OW 3285   1.704   1.114   6.362
  463SOL    HW1 3286   1.748   1.034   6.392
  463SOL    HW2 3287   1.614   1.104   6.392
  464SOL     OW 3288   9.817  11.553   9.255
  464SOL    HW1 3289   9.760  11.548   9.332
  464SOL    HW2 3290   9.786  11.483   9.198
  465SOL     OW 3291   3.658   4.972   8.631
  465SOL    HW1 3292   3.709   4.908   8.582
  465SOL    HW2 3293   3.572   4.931   8.643
  466SOL     OW 3294   7.901  12.364   7.346
  466SOL    HW1 3295   7.840  12.415   7.399
  466SOL    HW2 3296   7.955  12.317   7.409
  467SOL     OW 3297   9.214   3.265   1.422
  467SOL    HW1 3298   9.157   3.244   1.348
  467SOL    HW2 3299   9.253   3.181   1.446
  468SOL     OW 3300   4.802   6.701  10.747
  468SOL    HW1 3301   4.865   6.757  10.792
  468SOL    HW2 3302   4.717   6.722  10.787
  469SOL     OW 3303   0.779   5.670   4.523
  469SOL    HW1 3304   0.871   5.676   4.549
  469SOL    HW2 3305   0.782   5.665   4.427
  470SOL     OW 3306   3.133  13.085  12.574
  470SOL    HW1 3307   3.226  13.075  12.597
  470SOL    HW2 3308   3.135  13.125  12.487
  471SOL     OW 3309  14.759   4.370  11.114
  471SOL    HW1 3310  14.718   4.456  11.108
  471SOL    HW2 3311  14.688   4.308  11.097
  472SOL     OW 3312   4.574   7.971   5.291
  472SOL    HW1 3313   4.664   7.997   5.275
  472SOL    HW2 3314   4.550   7.920   5.213
  473SOL     OW 3315   0.371  14.791   9.948
  473SOL    HW1 3316   0.455  14.761   9.983
  473SOL    HW2 3317   0.317  14.712   9.945
  474SOL     OW 3318   5.891   8.530   4.422
  474SOL    HW1 3319   5.899   8.543   4.516
  474SOL    HW2 3320   5.802   8.496   4.410
  475SOL     OW 3321   2.240   9.857  11.434
  475SOL    HW1 3322   2.292   9.930  11.400
  475SOL    HW2 3323   2.225   9.801  11.358
  476SOL     OW 3324   7.887   3.778   0.627
  476SOL    HW1 3325   7.879   3.852   0.567
  476SOL    HW2 3326   7.805   3.731   0.618
  477SOL     OW 3327   3.635  13.394   7.627
  477SOL    HW1 3328   3.599  13.308   7.608
  477SOL    HW2 3329   3.729  13.379   7.639
  478SOL     OW 3330   2.446  13.197  11.048
  478SOL    HW1 3331   2.458  13.138  11.123
  478SOL    HW2 3332   2.410  13.277  11.086
  479SOL     OW 3333   8.894   8.076   7.526
  479SOL    HW1 3334   8.940   8.087   7.443
  479SOL    HW2 3335   8.899   7.982   7.544
  480SOL     OW 3336  12.596   6.480   6.980
  480SOL    HW1 3337  12.663   6.496   6.914
  480SOL    HW2 3338  12.536   6.554   6.971
  481SOL     OW 3339   1.174  14.673  12.275
  481SOL    HW1 3340   1.126  14.690  12.356
  481SOL    HW2 3341   1.106  14.661  12.209
  482SOL     OW 3342  12.981  13.168  11.177
  482SOL    HW1 3343  12.978  13.076  11.150
  482SOL    HW2 3344  12.897  13.184  11.220
  483SOL     OW 3345  10.641   7.141  14.515
  483SOL    HW1 3346  10.576   7.168  14.580
  483SOL    HW2 3347  10.639   7.045  14.517
  484SOL     OW 3348   1.265  10.765  12.097
  484SOL    HW1 3349   1.343  10.711  12.110
  484SOL    HW2 3350   1.262  10.822  12.174
  485SOL     OW 3351  12.759   2.904   0.601
  485SOL    HW1 3352  12.816   2.827   0.607
  485SOL    HW2 3353  12.787   2.948   0.521
  486SOL     OW 3354   6.137  12.029   9.007
  486SOL    HW1 3355   6.181  12.054   8.925
  486SOL    HW2 3356   6.208  12.015   9.070
  487SOL     OW 3357  10.663   2.129  12.687
  487SOL    HW1 3358  10.739   2.099  12.736
  487SOL    HW2 3359  10.605   2.167  12.753
  488SOL     OW 3360  10.960   4.530  13.306
  488SOL    HW1 3361  11.014   4.514  13.229
  488SOL    HW2 3362  11.012   4.588  13.361
  489SOL     OW 3363   0.046  13.922   7.994
  489SOL    HW1 3364   0.065  13.835   8.028
  489SOL    HW2 3365  14.862  13.909   7.932
  490SOL     OW 3366   4.484   3.004  11.228
  490SOL    HW1 3367   4.552   2.999  11.161
  490SOL    HW2 3368   4.409   2.958  11.190
  491SOL     OW 3369   8.728   4.627   2.537
  491SOL    HW1 3370   8.682   4.696   2.586
  491SOL    HW2 3371   8.815   4.663   2.520
  492SOL     OW 3372   0.218   9.193   9.240
  492SOL    HW1 3373   0.192   9.154   9.323
  492SOL    HW2 3374   0.312   9.174   9.233
  493SOL     OW 3375  13.223  12.748  11.414
  493SOL    HW1 3376  13.259  12.689  11.481
  493SOL    HW2 3377  13.300  12.781  11.368
  494SOL     OW 3378   8.864   2.315   9.572
  494SOL    HW1 3379   8.855   2.222   9.553
  494SOL    HW2 3380   8.957   2.326   9.591
  495SOL     OW 3381   3.180  11.962   7.197
  495SOL    HW1 3382   3.213  11.987   7.283
  495SOL    HW2 3383   3.111  11.898   7.215
  496SOL     OW 3384   8.383   4.148   6.550
  496SOL    HW1 3385   8.314   4.175   6.611
  496SOL    HW2 3386   8.336   4.107   6.478
  497SOL     OW 3387   1.631   7.564   6.683
  497SOL    HW1 3388   1.575   7.513   6.624
  497SOL    HW2 3389   1.718   7.557   6.644
  498SOL     OW 3390   7.032   9.725  10.532
  498SOL    HW1 3391   6.950   9.772  10.530
  498SOL    HW2 3392   7.095   9.784  10.491
  499SOL     OW 3393  10.524   2.720   5.484
  499SOL    HW1 3394  10.588   2.786   5.460
  499SOL    HW2 3395  10.545   2.644   5.429
  500SOL     OW 3396  11.619   0.963  11.313
  500SOL    HW1 3397  11.604   1.054  11.339
  500SOL    HW2 3398  11.703   0.965  11.268
  501SOL     OW 3399   8.295   3.476  10.358
  501SOL    HW1 3400   8.216   3.452  10.406
  501SOL    HW2 3401   8.266   3.545  10.298
  502SOL     OW 3402   1.790  11.051   5.745
  502SOL    HW1 3403   1.801  11.125   5.805
  502SOL    HW2 3404   1.748  10.983   5.798
  503SOL     OW 3405   3.196   3.467   6.750
  503SOL    HW1 3406   3.180   3.442   6.658
  503SOL    HW2 3407   3.229   3.388   6.791
  504SOL     OW 3408   8.861  13.823   9.883
  504SOL    HW1 3409   8.831  13.882   9.813
  504SOL    HW2 3410   8.785  13.817   9.942
  505SOL     OW 3411   3.941   1.606   3.138
  505SOL    HW1 3412   3.969   1.558   3.215
  505SOL    HW2 3413   3.952   1.698   3.161
  506SOL     OW 3414   6.399  10.285   7.857
  506SOL    HW1 3415   6.461  10.358   7.861
  506SOL    HW2 3416   6.325  10.312   7.911
  507SOL     OW 3417   3.709  14.792   7.862
  507SOL    HW1 3418   3.799  14.803   7.892
  507SOL    HW2 3419   3.690  14.699   7.875
  508SOL     OW 3420  14.162   6.402   9.263
  508SOL    HW1 3421  14.252   6.371   9.257
  508SOL    HW2 3422  14.147   6.448   9.180
  509SOL     OW 3423   0.032   3.902  14.741
  509SOL    HW1 3424   0.028   3.828  14.682
  509SOL    HW2 3425  14.829   3.933  14.748
  510SOL     OW 3426   9.530   2.138   4.126
  510SOL    HW1 3427   9.625   2.127   4.125
  510SOL    HW2 3428   9.502   2.125   4.036
  511SOL     OW 3429   7.701  14.715   0.575
  511SOL    HW1 3430   7.735  14.749   0.658
  511SOL    HW2 3431   7.655  14.634   0.598
  512SOL     OW 3432   1.007   6.362   9.391
  512SOL    HW1 3433   1.023   6.438   9.447
  512SOL    HW2 3434   1.090   6.347   9.347
  513SOL     OW 3435  14.306   3.425   7.934
  513SOL    HW1 3436  14.364   3.459   8.002
  513SOL    HW2 3437  14.334   3.471   7.854
  514SOL     OW 3438   5.079   5.592   7.615
  514SOL    HW1 3439   5.041   5.521   7.666
  514SOL    HW2 3440   5.034   5.587   7.530
  515SOL     OW 3441  12.795  10.403   5.536
  515SOL    HW1 3442  12.838  10.381   5.454
  515SOL    HW2 3443  12.702  10.412   5.514
  516SOL     OW 3444   8.451   6.709  10.174
  516SOL    HW1 3445   8.374   6.678  10.126
  516SOL    HW2 3446   8.487   6.780  10.119
  517SOL     OW 3447  13.076   5.784  12.959
  517SOL    HW1 3448  13.158   5.767  12.912
  517SOL    HW2 3449  13.071   5.713  13.024
  518SOL     OW 3450  12.729   5.564  14.626
  518SOL    HW1 3451  12.707   5.515  14.547
  518SOL    HW2 3452  12.645   5.582  14.668
  519SOL     OW 3453  12.766   9.313   6.872
  519SOL    HW1 3454  12.698   9.351   6.817
  519SOL    HW2 3455  12.719   9.286   6.951
  520SOL     OW 3456  10.273   8.631   3.029
  520SOL    HW1 3457  10.343   8.685   3.065
  520SOL    HW2 3458  10.202   8.693   3.009
  521SOL     OW 3459   1.689  12.621  11.209
  521SOL    HW1 3460   1.601  12.654  11.226
  521SOL    HW2 3461   1.676  12.545  11.153
  522SOL     OW 3462   5.482   6.256   5.634
  522SOL    HW1 3463   5.415   6.196   5.667
  522SOL    HW2 3464   5.516   6.212   5.556
  523SOL     OW 3465   5.508   5.857  11.804
  523SOL    HW1 3466   5.587   5.840  11.856
  523SOL    HW2 3467   5.497   5.778  11.751
  524SOL     OW 3468  11.178  14.862   2.366
  524SOL    HW1 3469  11.162  14.838   2.275
  524SOL    HW2 3470  11.156  14.784   2.417
  525SOL     OW 3471  14.301  10.569  10.635
  525SOL    HW1 3472  14.299  10.480  10.599
  525SOL    HW2 3473  14.382  10.607  10.602
  526SOL     OW 3474  11.807   6.146  14.678
  526SOL    HW1 3475  11.730   6.164  14.623
  526SOL    HW2 3476  11.881   6.162  14.620
  527SOL     OW 3477   0.645  13.628  10.396
  527SOL    HW1 3478   0.702  13.575  10.452
  527SOL    HW2 3479   0.617  13.568  10.327
  528SOL     OW 3480   4.125   9.344   3.573
  528SOL    HW1 3481   4.202   9.361   3.628
  528SOL    HW2 3482   4.068   9.420   3.587
  529SOL     OW 3483  14.627   6.602   9.677
  529SOL    HW1 3484  14.608   6.670   9.612
  529SOL    HW2 3485  14.548   6.598   9.731
  530SOL     OW 3486   0.603  10.487   8.666
  530SOL    HW1 3487   0.622  10.411   8.612
  530SOL    HW2 3488   0.525  10.463   8.715
  531SOL     OW 3489   8.162  12.673   9.557
  531SOL    HW1 3490   8.255  12.656   9.570
  531SOL    HW2 3491   8.159  12.734   9.483
  532SOL     OW 3492  12.748  11.609   8.259
  532SOL    HW1 3493  12.672  11.612   8.202
  532SOL    HW2 3494  12.814  11.663   8.216
  533SOL     OW 3495   4.187   3.538  12.537
  533SOL    HW1 3496   4.273   3.533  12.579
  533SOL    HW2 3497   4.207   3.554  12.445
  534SOL     OW 3498   7.720   2.973   6.065
  534SOL    HW1 3499   7.645   3.032   6.068
  534SOL    HW2 3500   7.793   3.027   6.036
  535SOL     OW 3501   5.750   3.630   7.955
  535SOL    HW1 3502   5.770   3.705   8.010
  535SOL    HW2 3503   5.799   3.557   7.993
  536SOL     OW 3504  14.830   9.243   7.174
  536SOL    HW1 3505  14.737   9.246   7.149
  536SOL    HW2 3506  14.832   9.188   7.252
  537SOL     OW 3507   9.583   6.194  11.004
  537SOL    HW1 3508   9.494   6.179  10.973
  537SOL    HW2 3509   9.576   6.186  11.099
  538SOL     OW 3510   0.950   2.718   7.007
  538SOL    HW1 3511   1.029   2.673   7.036
  538SOL    HW2 3512   0.891   2.647   6.980
  539SOL     OW 3513  12.607   8.764  12.875
  539SOL    HW1 3514  12.593   8.815  12.795
  539SOL    HW2 3515  12.607   8.673  12.847
  540SOL     OW 3516   9.856   9.296  13.263
  540SOL    HW1 3517   9.855   9.224  13.201
  540SOL    HW2 3518   9.798   9.362  13.224
  541SOL     OW 3519  13.468   2.576   2.298
  541SOL    HW1 3520  13.421   2.494   2.310
  541SOL    HW2 3521  13.523   2.584   2.376
  542SOL     OW 3522  10.374   8.120  12.971
  542SOL    HW1 3523  10.312   8.051  12.993
  542SOL    HW2 3524  10.459   8.086  12.999
  543SOL     OW 3525   1.028   7.108   5.650
  543SOL    HW1 3526   1.046   7.142   5.563
  543SOL    HW2 3527   1.072   7.023   5.653
  544SOL     OW 3528   1.827   2.829  10.272
  544SOL    HW1 3529   1.809   2.768  10.343
  544SOL    HW2 3530   1.821   2.916  10.313
  545SOL     OW 3531  13.177  11.381   1.333
  545SOL    HW1 3532  13.160  11.363   1.240
  545SOL    HW2 3533  13.136  11.308   1.379
  546SOL     OW 3534   4.167  10.863   9.115
  546SOL    HW1 3535   4.099  10.919   9.079
  546SOL    HW2 3536   4.199  10.812   9.040
  547SOL     OW 3537   1.877  13.111  14.270
  547SOL    HW1 3538   1.846  13.063  14.347
  547SOL    HW2 3539   1.935  13.049  14.224
  548SOL     OW 3540   6.421   3.518  11.944
  548SOL    HW1 3541   6.430   3.489  11.853
  548SOL    HW2 3542   6.483   3.591  11.952
  549SOL     OW 3543   5.056   8.036   2.229
  549SOL    HW1 3544   5.095   7.991   2.154
  549SOL    HW2 3545   4.985   7.980   2.257
  550SOL     OW 3546   3.797   3.484  12.561
  550SOL    HW1 3547   3.784   3.547  12.631
  550SOL    HW2 3548   3.717   3.490  12.508
  551SOL     OW 3549  11.760   9.913  13.395
  551SOL    HW1 3550  11.829   9.872  13.343
  551SOL    HW2 3551  11.748  10.000  13.355
  552SOL     OW 3552   0.427   6.318   3.457
  552SOL    HW1 3553   0.366   6.252   3.423
  552SOL    HW2 3554   0.371   6.386   3.494
  553SOL     OW 3555   5.355  10.033   5.761
  553SOL    HW1 3556   5.383   9.942   5.768
  553SOL    HW2 3557   5.341  10.047   5.667
  554SOL     OW 3558  11.598  14.613   9.617
  554SOL    HW1 3559  11.508  14.629   9.643
  554SOL    HW2 3560  11.591  14.565   9.535
  555SOL     OW 3561   1.036  10.326  10.609
  555SOL    HW1 3562   1.056  10.361  10.522
  555SOL    HW2 3563   0.941  10.328  10.615
  556SOL     OW 3564  12.277  12.808   2.219
  556SOL    HW1 3565  12.347  12.803   2.153
  556SOL    HW2 3566  12.231  12.725   2.211
  557SOL     OW 3567  10.555   2.050   1.728
  557SOL    HW1 3568  10.511   2.122   1.683
  557SOL    HW2 3569  10.582   2.087   1.812
  558SOL     OW 3570   9.610   0.025   6.250
  558SOL    HW1 3571   9.702  14.886   6.250
  558SOL    HW2 3572   9.604   0.087   6.323
  559SOL     OW 3573  12.431   3.709   0.947
  559SOL    HW1 3574  12.498   3.695   0.879
  559SOL    HW2 3575  12.362   3.647   0.925
  560SOL     OW 3576  14.369  10.454   0.554
  560SOL    HW1 3577  14.424  10.456   0.632
  560SOL    HW2 3578  14.296  10.396   0.577
  561SOL     OW 3579   7.056   4.645  11.979
  561SOL    HW1 3580   7.077   4.562  11.938
  561SOL    HW2 3581   7.010   4.695  11.911
  562SOL     OW 3582   2.205   7.972   9.274
  562SOL    HW1 3583   2.299   7.967   9.258
  562SOL    HW2 3584   2.166   7.981   9.187
  563SOL     OW 3585   8.331  13.475   8.970
  563SOL    HW1 3586   8.398  13.428   9.020
  563SOL    HW2 3587   8.354  13.567   8.980
  564SOL     OW 3588   4.591  12.581   7.896
  564SOL    HW1 3589   4.606  12.491   7.868
  564SOL    HW2 3590   4.663  12.631   7.859
  565SOL     OW 3591   1.407  11.884  14.381
  565SOL    HW1 3592   1.444  11.935  14.454
  565SOL    HW2 3593   1.344  11.943  14.341
  566SOL     OW 3594   5.862  10.551  11.069
  566SOL    HW1 3595   5.855  10.486  11.138
  566SOL    HW2 3596   5.914  10.622  11.108
  567SOL     OW 3597   7.960  13.218  12.353
  567SOL    HW1 3598   8.004  13.198  12.270
  567SOL    HW2 3599   8.031  13.236  12.414
  568SOL     OW 3600   9.103   0.792  14.566
  568SOL    HW1 3601   9.100   0.698  14.584
  568SOL    HW2 3602   9.160   0.800  14.490
  569SOL     OW 3603   1.623  13.315  10.920
  569SOL    HW1 3604   1.704  13.268  10.904
  569SOL    HW2 3605   1.639  13.403  10.887
  570SOL     OW 3606  11.930   2.122  11.132
  570SOL    HW1 3607  12.020   2.090  11.139
  570SOL    HW2 3608  11.938   2.205  11.085
  571SOL     OW 3609   4.723  13.842   5.388
  571SOL    HW1 3610   4.792  13.838   5.454
  571SOL    HW2 3611   4.658  13.778   5.416
  572SOL     OW 3612  11.220   4.858  13.123
  572SOL    HW1 3613  11.180   4.943  13.141
  572SOL    HW2 3614  11.180   4.829  13.041
  573SOL     OW 3615  12.812   7.186  10.913
  573SOL    HW1 3616  12.740   7.144  10.865
  573SOL    HW2 3617  12.891   7.163  10.863
  574SOL     OW 3618   0.717  10.931   9.153
  574SOL    HW1 3619   0.806  10.901   9.140
  574SOL    HW2 3620   0.662  10.860   9.118
  575SOL     OW 3621   6.488   6.687   4.401
  575SOL    HW1 3622   6.534   6.635   4.467
  575SOL    HW2 3623   6.457   6.623   4.337
  576SOL     OW 3624  14.418  11.381   5.128
  576SOL    HW1 3625  14.510  11.356   5.123
  576SOL    HW2 3626  14.390  11.352   5.214
  577SOL     OW 3627   4.431   5.761  12.756
  577SOL    HW1 3628   4.344   5.743  12.720
  577SOL    HW2 3629   4.442   5.855  12.748
  578SOL     OW 3630  10.027   5.885   7.988
  578SOL    HW1 3631  10.091   5.818   7.965
  578SOL    HW2 3632   9.955   5.837   8.030
  579SOL     OW 3633   9.287   3.399   0.648
  579SOL    HW1 3634   9.213   3.373   0.594
  579SOL    HW2 3635   9.262   3.374   0.737
  580SOL     OW 3636   0.707   1.835   2.708
  580SOL    HW1 3637   0.801   1.843   2.720
  580SOL    HW2 3638   0.670   1.852   2.795
  581SOL     OW 3639  10.693   4.775  14.110
  581SOL    HW1 3640  10.632   4.742  14.175
  581SOL    HW2 3641  10.760   4.821  14.161
  582SOL     OW 3642  10.518   0.504   7.741
  582SOL    HW1 3643  10.583   0.459   7.687
  582SOL    HW2 3644  10.569   0.569   7.790
  583SOL     OW 3645   9.428   3.851   0.552
  583SOL    HW1 3646   9.417   3.863   0.646
  583SOL    HW2 3647   9.520   3.872   0.535
  584SOL     OW 3648  13.678  11.490   4.924
  584SOL    HW1 3649  13.618  11.521   4.856
  584SOL    HW2 3650  13.704  11.569   4.971
  585SOL     OW 3651   4.248   7.371   0.471
  585SOL    HW1 3652   4.310   7.335   0.406
  585SOL    HW2 3653   4.273   7.463   0.479
  586SOL     OW 3654  10.507  11.999   2.001
  586SOL    HW1 3655  10.472  11.954   2.079
  586SOL    HW2 3656  10.454  12.078   1.993
  587SOL     OW 3657  14.476   3.130   8.792
  587SOL    HW1 3658  14.475   3.111   8.698
  587SOL    HW2 3659  14.385   3.121   8.820
  588SOL     OW 3660   7.201  14.411   6.662
  588SOL    HW1 3661   7.130  14.393   6.723
  588SOL    HW2 3662   7.158  14.453   6.587
  589SOL     OW 3663   3.268  12.173   1.607
  589SOL    HW1 3664   3.351  12.126   1.600
  589SOL    HW2 3665   3.251  12.205   1.519
  590SOL     OW 3666  10.815   2.149  14.691
  590SOL    HW1 3667  10.842   2.179  14.605
  590SOL    HW2 3668  10.776   2.227  14.732
  591SOL     OW 3669  11.357   0.905   0.627
  591SOL    HW1 3670  11.440   0.863   0.650
  591SOL    HW2 3671  11.372   0.998   0.643
  592SOL     OW 3672   4.869   4.357   2.917
  592SOL    HW1 3673   4.795   4.339   2.975
  592SOL    HW2 3674   4.945   4.328   2.966
  593SOL     OW 3675  13.162   2.134   4.926
  593SOL    HW1 3676  13.161   2.230   4.934
  593SOL    HW2 3677  13.179   2.103   5.015
  594SOL     OW 3678   2.058   2.546  13.910
  594SOL    HW1 3679   2.075   2.574  14.000
  594SOL    HW2 3680   1.991   2.606  13.878
  595SOL     OW 3681  14.393   1.250  13.122
  595SOL    HW1 3682  14.428   1.178  13.174
  595SOL    HW2 3683  14.470   1.293  13.085
  596SOL     OW 3684   6.243   0.144  14.685
  596SOL    HW1 3685   6.258   0.236  14.662
  596SOL    HW2 3686   6.261   0.096  14.605
  597SOL     OW 3687   9.037   9.507  13.074
  597SOL    HW1 3688   9.012   9.483  13.163
  597SOL    HW2 3689   9.034   9.603  13.074
  598SOL     OW 3690   2.694   2.589  11.194
  598SOL    HW1 3691   2.737   2.510  11.162
  598SOL    HW2 3692   2.603   2.581  11.164
  599SOL     OW 3693  13.669  13.742   0.529
  599SOL    HW1 3694  13.594  13.745   0.470
  599SOL    HW2 3695  13.728  13.677   0.491
  600SOL     OW 3696  13.112  13.806   5.279
  600SOL    HW1 3697  13.200  13.779   5.254
  600SOL    HW2 3698  13.095  13.759   5.361
  601SOL     OW 3699  11.865   9.606   5.001
  601SOL    HW1 3700  11.894   9.688   4.961
  601SOL    HW2 3701  11.889   9.613   5.093
  602SOL     OW 3702   8.072  12.112   3.582
  602SOL    HW1 3703   8.131  12.145   3.650
  602SOL    HW2 3704   8.058  12.188   3.524
  603SOL     OW 3705   4.152   9.213   5.415
  603SOL    HW1 3706   4.205   9.276   5.463
  603SOL    HW2 3707   4.068   9.213   5.460
  604SOL     OW 3708   3.813   8.588   7.841
  604SOL    HW1 3709   3.796   8.661   7.900
  604SOL    HW2 3710   3.869   8.625   7.772
  605SOL     OW 3711   2.460   9.366   9.080
  605SOL    HW1 3712   2.550   9.394   9.096
  605SOL    HW2 3713   2.444   9.298   9.145
  606SOL     OW 3714   6.614  13.799   3.650
  606SOL    HW1 3715   6.656  13.838   3.727
  606SOL    HW2 3716   6.601  13.707   3.675
  607SOL     OW 3717   3.792   5.647  11.739
  607SOL    HW1 3718   3.884   5.618  11.733
  607SOL    HW2 3719   3.752   5.613  11.659
  608SOL     OW 3720  13.390  14.400  12.764
  608SOL    HW1 3721  13.463  14.386  12.704
  608SOL    HW2 3722  13.337  14.468  12.721
  609SOL     OW 3723  11.953   0.500   1.073
  609SOL    HW1 3724  12.029   0.479   1.019
  609SOL    HW2 3725  11.907   0.567   1.024
  610SOL     OW 3726   2.802   2.118   2.609
  610SOL    HW1 3727   2.820   2.204   2.572
  610SOL    HW2 3728   2.708   2.106   2.599
  611SOL     OW 3729   7.123  13.642  13.979
  611SOL    HW1 3730   7.172  13.593  13.913
  611SOL    HW2 3731   7.188  13.668  14.044
  612SOL     OW 3732   7.155   7.642  14.373
  612SOL    HW1 3733   7.232   7.692  14.347
  612SOL    HW2 3734   7.083   7.682  14.324
  613SOL     OW 3735  12.184   8.566   1.435
  613SOL    HW1 3736  12.196   8.481   1.477
  613SOL    HW2 3737  12.131   8.548   1.358
  614SOL     OW 3738  13.750  10.565   8.488
  614SOL    HW1 3739  13.731  10.629   8.420
  614SOL    HW2 3740  13.811  10.504   8.446
  615SOL     OW 3741   1.022   6.806   4.340
  615SOL    HW1 3742   0.944   6.809   4.395
  615SOL    HW2 3743   1.041   6.712   4.330
  616SOL     OW 3744   4.870   9.615  13.470
  616SOL    HW1 3745   4.966   9.607  13.475
  616SOL    HW2 3746   4.842   9.620  13.562
  617SOL     OW 3747  11.164   8.928  14.339
  617SOL    HW1 3748  11.155   8.883  14.255
  617SOL    HW2 3749  11.198   9.014  14.317
  618SOL     OW 3750   2.327   7.376   8.320
  618SOL    HW1 3751   2.254   7.315   8.334
  618SOL    HW2 3752   2.298   7.433   8.249
  619SOL     OW 3753   0.774  13.794   7.831
  619SOL    HW1 3754   0.751  13.862   7.768
  619SOL    HW2 3755   0.866  13.809   7.852
  620SOL     OW 3756   2.706   2.279   4.968
  620SOL    HW1 3757   2.760   2.214   4.924
  620SOL    HW2 3758   2.762   2.313   5.038
  621SOL     OW 3759  12.838   6.696  14.139
  621SOL    HW1 3760  12.762   6.752  14.128
  621SOL    HW2 3761  12.804   6.618  14.183
  622SOL     OW 3762  10.831   8.067   1.545
  622SOL    HW1 3763  10.854   7.988   1.594
  622SOL    HW2 3764  10.830   8.040   1.453
  623SOL     OW 3765   7.100   0.811   5.829
  623SOL    HW1 3766   7.088   0.752   5.904
  623SOL    HW2 3767   7.112   0.752   5.754
  624SOL     OW 3768  13.575   5.052   2.462
  624SOL    HW1 3769  13.544   5.132   2.505
  624SOL    HW2 3770  13.590   4.990   2.534
  625SOL     OW 3771   0.615  14.665  10.040
  625SOL    HW1 3772   0.670  14.587  10.037
  625SOL    HW2 3773   0.615  14.690  10.133
  626SOL     OW 3774   5.636   5.581   9.749
  626SOL    HW1 3775   5.599   5.663   9.716
  626SOL    HW2 3776   5.723   5.605   9.782
  627SOL     OW 3777   0.452   7.651   9.792
  627SOL    HW1 3778   0.516   7.606   9.738
  627SOL    HW2 3779   0.437   7.734   9.746
  628SOL     OW 3780  14.031   8.044   6.619
  628SOL    HW1 3781  14.020   8.119   6.559
  628SOL    HW2 3782  13.981   8.068   6.697
  629SOL     OW 3783   4.766  12.361   0.006
  629SOL    HW1 3784   4.780  12.317  14.809
  629SOL    HW2 3785   4.676  12.394   0.001
  630SOL     OW 3786  13.315   1.593   4.978
  630SOL    HW1 3787  13.398   1.606   4.933
  630SOL    HW2 3788  13.277   1.680   4.986
  631SOL     OW 3789   3.903  11.388   5.522
  631SOL    HW1 3790   3.883  11.453   5.589
  631SOL    HW2 3791   3.922  11.439   5.444
  632SOL     OW 3792  10.770  11.622  12.929
  632SOL    HW1 3793  10.753  11.699  12.875
  632SOL    HW2 3794  10.685  11.578  12.935
  633SOL     OW 3795   5.006  10.750  14.058
  633SOL    HW1 3796   5.018  10.733  14.151
  633SOL    HW2 3797   4.919  10.790  14.051
  634SOL     OW 3798  10.171  14.535  14.834
  634SOL    HW1 3799  10.193  14.467   0.011
  634SOL    HW2 3800  10.088  14.572  14.865
  635SOL     OW 3801   2.652   3.148   7.790
  635SOL    HW1 3802   2.747   3.136   7.804
  635SOL    HW2 3803   2.615   3.062   7.810
  636SOL     OW 3804   9.405   0.587  14.580
  636SOL    HW1 3805   9.425   0.661  14.523
  636SOL    HW2 3806   9.324   0.551  14.545
  637SOL     OW 3807   2.910  12.152   3.737
  637SOL    HW1 3808   2.870  12.078   3.692
  637SOL    HW2 3809   2.841  12.187   3.793
  638SOL     OW 3810   1.064  10.731  11.395
  638SOL    HW1 3811   1.131  10.726  11.327
  638SOL    HW2 3812   0.981  10.733  11.348
  639SOL     OW 3813  12.401   0.023  12.080
  639SOL    HW1 3814  12.358   0.108  12.093
  639SOL    HW2 3815  12.417  14.878  12.168
  640SOL     OW 3816   0.408  13.837   7.156
  640SOL    HW1 3817   0.405  13.904   7.087
  640SOL    HW2 3818   0.470  13.872   7.220
  641SOL     OW 3819  14.318  10.771  14.657
  641SOL    HW1 3820  14.236  10.781  14.706
  641SOL    HW2 3821  14.343  10.680  14.669
  642SOL     OW 3822   3.174   3.279  14.020
  642SOL    HW1 3823   3.254   3.226  14.013
  642SOL    HW2 3824   3.108   3.218  14.052
  643SOL     OW 3825   9.166   2.271   9.512
  643SOL    HW1 3826   9.122   2.356   9.507
  643SOL    HW2 3827   9.249   2.289   9.556
  644SOL     OW 3828  14.488  10.371  12.908
  644SOL    HW1 3829  14.575  10.388  12.943
  644SOL    HW2 3830  14.499  10.296  12.850
  645SOL     OW 3831   3.214   6.915   9.430
  645SOL    HW1 3832   3.140   6.863   9.399
  645SOL    HW2 3833   3.245   6.960   9.351
  646SOL     OW 3834   6.919   4.737   6.988
  646SOL    HW1 3835   7.005   4.703   7.013
  646SOL    HW2 3836   6.930   4.833   6.989
  647SOL     OW 3837   0.473   1.781   9.075
  647SOL    HW1 3838   0.439   1.757   8.989
  647SOL    HW2 3839   0.536   1.851   9.058
  648SOL     OW 3840  11.358   6.545  13.251
  648SOL    HW1 3841  11.315   6.614  13.200
  648SOL    HW2 3842  11.286   6.494  13.288
  649SOL     OW 3843  14.027   1.117  12.806
  649SOL    HW1 3844  14.112   1.100  12.846
  649SOL    HW2 3845  14.037   1.204  12.767
  650SOL     OW 3846   0.330  10.845  10.110
  650SOL    HW1 3847   0.243  10.819  10.141
  650SOL    HW2 3848   0.316  10.929  10.067
  651SOL     OW 3849   5.086   0.399   4.265
  651SOL    HW1 3850   5.014   0.337   4.271
  651SOL    HW2 3851   5.048   0.483   4.289
  652SOL     OW 3852   6.372   7.101   5.821
  652SOL    HW1 3853   6.284   7.100   5.859
  652SOL    HW2 3854   6.378   7.020   5.771
  653SOL     OW 3855   8.089  12.521   2.023
  653SOL    HW1 3856   8.011  12.552   2.068
  653SOL    HW2 3857   8.058  12.491   1.938
  654SOL     OW 3858  14.620  11.685   8.109
  654SOL    HW1 3859  14.653  11.606   8.067
  654SOL    HW2 3860  14.685  11.705   8.177
  655SOL     OW 3861   3.388   9.137  10.512
  655SOL    HW1 3862   3.307   9.095  10.543
  655SOL    HW2 3863   3.397   9.215  10.566
  656SOL     OW 3864   0.453   8.273   7.209
  656SOL    HW1 3865   0.411   8.357   7.225
  656SOL    HW2 3866   0.395   8.208   7.247
  657SOL     OW 3867  13.955   7.105   0.771
  657SOL    HW1 3868  13.951   7.016   0.804
  657SOL    HW2 3869  13.866   7.122   0.738
  658SOL     OW 3870  12.432   2.672   9.771
  658SOL    HW1 3871  12.521   2.650   9.797
  658SOL    HW2 3872  12.431   2.660   9.676
  659SOL     OW 3873  13.367   4.401   0.964
  659SOL    HW1 3874  13.398   4.427   0.877
  659SOL    HW2 3875  13.381   4.479   1.018
  660SOL     OW 3876   9.629   5.339   6.063
  660SOL    HW1 3877   9.653   5.393   5.988
  660SOL    HW2 3878   9.678   5.376   6.136
  661SOL     OW 3879   8.650   0.286   0.917
  661SOL    HW1 3880   8.659   0.222   0.987
  661SOL    HW2 3881   8.740   0.303   0.888
  662SOL     OW 3882   7.897   6.291  14.042
  662SOL    HW1 3883   7.886   6.261  13.952
  662SOL    HW2 3884   7.810   6.315  14.072
  663SOL     OW 3885   7.230   0.142   6.877
  663SOL    HW1 3886   7.159   0.152   6.941
  663SOL    HW2 3887   7.309   0.137   6.931
  664SOL     OW 3888   0.142  12.317   8.165
  664SOL    HW1 3889   0.074  12.383   8.182
  664SOL    HW2 3890   0.199  12.321   8.241
  665SOL     OW 3891   5.533   0.810   9.986
  665SOL    HW1 3892   5.482   0.872  10.038
  665SOL    HW2 3893   5.624   0.828  10.009
  666SOL     OW 3894   5.270  13.996   0.340
  666SOL    HW1 3895   5.244  13.980   0.249
  666SOL    HW2 3896   5.362  14.021   0.336
  667SOL     OW 3897   5.020   2.305  11.496
  667SOL    HW1 3898   5.027   2.367  11.569
  667SOL    HW2 3899   5.075   2.343  11.427
  668SOL     OW 3900   8.568   4.019   4.460
  668SOL    HW1 3901   8.532   4.106   4.477
  668SOL    HW2 3902   8.662   4.032   4.458
  669SOL     OW 3903   9.242   3.798   8.973
  669SOL    HW1 3904   9.177   3.852   8.928
  669SOL    HW2 3905   9.205   3.784   9.060
  670SOL     OW 3906   3.115   0.056  10.107
  670SOL    HW1 3907   3.028   0.017  10.095
  670SOL    HW2 3908   3.118   0.128  10.045
  671SOL     OW 3909   0.100   4.527  10.121
  671SOL    HW1 3910   0.100   4.439  10.160
  671SOL    HW2 3911   0.107   4.586  10.196
  672SOL     OW 3912  10.546   2.916   8.421
  672SOL    HW1 3913  10.475   2.927   8.485
  672SOL    HW2 3914  10.603   2.850   8.461
  673SOL     OW 3915  10.160   9.818  11.874
  673SOL    HW1 3916  10.079   9.846  11.917
  673SOL    HW2 3917  10.149   9.724  11.860
  674SOL     OW 3918   5.609   7.892   0.867
  674SOL    HW1 3919   5.671   7.860   0.800
  674SOL    HW2 3920   5.549   7.948   0.818
  675SOL     OW 3921  14.518   4.962  13.248
  675SOL    HW1 3922  14.446   4.914  13.289
  675SOL    HW2 3923  14.596   4.909  13.268
  676SOL     OW 3924   6.772   9.561  10.419
  676SOL    HW1 3925   6.679   9.540  10.424
  676SOL    HW2 3926   6.781   9.641  10.470
  677SOL     OW 3927  11.559   0.855  13.373
  677SOL    HW1 3928  11.573   0.872  13.280
  677SOL    HW2 3929  11.498   0.781  13.375
  678SOL     OW 3930   7.362  12.125  13.621
  678SOL    HW1 3931   7.290  12.177  13.656
  678SOL    HW2 3932   7.333  12.099  13.534
  679SOL     OW 3933   3.181  14.512   7.222
  679SOL    HW1 3934   3.182  14.536   7.315
  679SOL    HW2 3935   3.216  14.589   7.178
  680SOL     OW 3936   9.283   9.266   4.697
  680SOL    HW1 3937   9.234   9.347   4.708
  680SOL    HW2 3938   9.286   9.253   4.602
  681SOL     OW 3939   9.654  12.726   5.570
  681SOL    HW1 3940   9.682  12.765   5.487
  681SOL    HW2 3941   9.625  12.800   5.623
  682SOL     OW 3942   8.845   3.732   4.216
  682SOL    HW1 3943   8.858   3.796   4.146
  682SOL    HW2 3944   8.933   3.716   4.250
  683SOL     OW 3945   6.529  11.135   9.430
  683SOL    HW1 3946   6.598  11.197   9.455
  683SOL    HW2 3947   6.473  11.185   9.371
  684SOL     OW 3948  10.377   9.775  12.706
  684SOL    HW1 3949  10.346   9.784  12.797
  684SOL    HW2 3950  10.455   9.830  12.702
  685SOL     OW 3951  11.635   9.641   8.109
  685SOL    HW1 3952  11.591   9.636   8.194
  685SOL    HW2 3953  11.572   9.686   8.053
  686SOL     OW 3954  13.972   1.133  12.291
  686SOL    HW1 3955  13.908   1.080  12.338
  686SOL    HW2 3956  14.001   1.077  12.219
  687SOL     OW 3957   3.271   9.351   5.804
  687SOL    HW1 3958   3.234   9.296   5.734
  687SOL    HW2 3959   3.251   9.440   5.776
  688SOL     OW 3960   0.915   7.950  14.626
  688SOL    HW1 3961   0.947   7.953  14.535
  688SOL    HW2 3962   0.847   8.017  14.629
  689SOL     OW 3963   1.453   7.822   4.388
  689SOL    HW1 3964   1.507   7.842   4.312
  689SOL    HW2 3965   1.508   7.764   4.442
  690SOL     OW 3966  13.671   1.804   4.432
  690SOL    HW1 3967  13.641   1.875   4.375
  690SOL    HW2 3968  13.612   1.731   4.413
  691SOL     OW 3969   7.191   9.355   3.248
  691SOL    HW1 3970   7.249   9.383   3.319
  691SOL    HW2 3971   7.217   9.410   3.174
  692SOL     OW 3972   4.553  14.582   5.540
  692SOL    HW1 3973   4.641  14.574   5.503
  692SOL    HW2 3974   4.515  14.658   5.497
  693SOL     OW 3975  14.204   7.015   5.068
  693SOL    HW1 3976  14.270   6.974   5.125
  693SOL    HW2 3977  14.230   6.990   4.979
  694SOL     OW 3978   5.054   7.397   5.488
  694SOL    HW1 3979   5.044   7.302   5.488
  694SOL    HW2 3980   5.086   7.418   5.400
  695SOL     OW 3981   9.961  14.587   0.102
  695SOL    HW1 3982   9.918  14.534   0.170
  695SOL    HW2 3983  10.015  14.649   0.150
  696SOL     OW 3984   5.609   8.480   8.610
  696SOL    HW1 3985   5.678   8.509   8.549
  696SOL    HW2 3986   5.635   8.517   8.694
  697SOL     OW 3987   0.999   0.560   4.758
  697SOL    HW1 3988   0.962   0.528   4.676
  697SOL    HW2 3989   0.929   0.611   4.797
  698SOL     OW 3990   9.790  14.606  14.031
  698SOL    HW1 3991   9.765  14.678  14.090
  698SOL    HW2 3992   9.727  14.611  13.959
  699SOL     OW 3993   2.948   5.202  10.583
  699SOL    HW1 3994   2.942   5.294  10.608
  699SOL    HW2 3995   2.976   5.204  10.491
  700SOL     OW 3996   5.070  13.487  14.543
  700SOL    HW1 3997   5.048  13.457  14.454
  700SOL    HW2 3998   5.096  13.408  14.589
  701SOL     OW 3999   0.576   3.895   2.931
  701SOL    HW1 4000   0.663   3.885   2.893
  701SOL    HW2 4001   0.579   3.980   2.975
  702SOL     OW 4002   8.204   1.005  14.209
  702SOL    HW1 4003   8.128   1.039  14.256
  702SOL    HW2 4004   8.279   1.034  14.260
  703SOL     OW 4005  10.776   4.967  13.878
  703SOL    HW1 4006  10.725   4.952  13.958
  703SOL    HW2 4007  10.731   4.916  13.811
  704SOL     OW 4008   1.748  10.687   5.800
  704SOL    HW1 4009   1.715  10.664   5.713
  704SOL    HW2 4010   1.843  10.679   5.792
  705SOL     OW 4011   3.711  13.536   7.266
  705SOL    HW1 4012   3.748  13.573   7.186
  705SOL    HW2 4013   3.628  13.496   7.238
  706SOL     OW 4014   5.106  12.755   0.022
  706SOL    HW1 4015   5.047  12.690   0.059
  706SOL    HW2 4016   5.054  12.836   0.019
  707SOL     OW 4017   5.579  13.636  13.216
  707SOL    HW1 4018   5.510  13.606  13.275
  707SOL    HW2 4019   5.569  13.580  13.138
  708SOL     OW 4020   1.605   8.151   0.305
  708SOL    HW1 4021   1.560   8.108   0.232
  708SOL    HW2 4022   1.630   8.079   0.363
  709SOL     OW 4023   4.350  13.851   7.310
  709SOL    HW1 4024   4.264  13.882   7.338
  709SOL    HW2 4025   4.406  13.867   7.386
  710SOL     OW 4026   7.438   3.024   6.056
  710SOL    HW1 4027   7.394   3.069   6.128
  710SOL    HW2 4028   7.455   3.092   5.992
  711SOL     OW 4029   3.305   2.172   1.988
  711SOL    HW1 4030   3.306   2.264   2.013
  711SOL    HW2 4031   3.311   2.125   2.072
  712SOL     OW 4032   1.982   7.226   1.445
  712SOL    HW1 4033   2.057   7.255   1.498
  712SOL    HW2 4034   1.934   7.166   1.502
  713SOL     OW 4035   2.796   8.479   1.296
  713SOL    HW1 4036   2.734   8.415   1.261
  713SOL    HW2 4037   2.812   8.538   1.223
  714SOL     OW 4038   6.057  13.807   9.836
  714SOL    HW1 4039   6.091  13.803   9.747
  714SOL    HW2 4040   6.011  13.725   9.849
  715SOL     OW 4041   2.211   7.960   8.976
  715SOL    HW1 4042   2.280   7.909   8.934
  715SOL    HW2 4043   2.243   8.050   8.973
  716SOL     OW 4044  10.681  11.674   5.454
  716SOL    HW1 4045  10.703  11.767   5.453
  716SOL    HW2 4046  10.586  11.671   5.448
  717SOL     OW 4047   2.550   1.684  11.238
  717SOL    HW1 4048   2.516   1.774  11.237
  717SOL    HW2 4049   2.643   1.695  11.216
  718SOL     OW 4050  11.464  12.505  14.752
  718SOL    HW1 4051  11.375  12.517  14.783
  718SOL    HW2 4052  11.492  12.422  14.792
  719SOL     OW 4053  13.330   6.990  10.885
  719SOL    HW1 4054  13.418   7.023  10.901
  719SOL    HW2 4055  13.340   6.931  10.809
  720SOL     OW 4056   3.366  11.594   0.938
  720SOL    HW1 4057   3.304  11.525   0.917
  720SOL    HW2 4058   3.443  11.574   0.885
  721SOL     OW 4059  10.614   6.319   2.419
  721SOL    HW1 4060  10.579   6.323   2.330
  721SOL    HW2 4061  10.572   6.242   2.458
  722SOL     OW 4062  12.532   7.698   6.907
  722SOL    HW1 4063  12.477   7.671   6.981
  722SOL    HW2 4064  12.599   7.755   6.946
  723SOL     OW 4065   5.983  14.698   7.823
  723SOL    HW1 4066   6.009  14.639   7.894
  723SOL    HW2 4067   6.054  14.763   7.819
  724SOL     OW 4068  14.116   5.163  14.468
  724SOL    HW1 4069  14.150   5.235  14.521
  724SOL    HW2 4070  14.095   5.204  14.384
  725SOL     OW 4071   4.613   1.268   2.349
  725SOL    HW1 4072   4.537   1.325   2.363
  725SOL    HW2 4073   4.628   1.228   2.435
  726SOL     OW 4074   7.600  14.532   9.462
  726SOL    HW1 4075   7.690  14.515   9.436
  726SOL    HW2 4076   7.605  14.612   9.514
  727SOL     OW 4077  10.649   8.481   4.712
  727SOL    HW1 4078  10.592   8.509   4.640
  727SOL    HW2 4079  10.604   8.404   4.748
  728SOL     OW 4080   5.093   1.260   3.914
  728SOL    HW1 4081   5.026   1.324   3.934
  728SOL    HW2 4082   5.088   1.196   3.985
  729SOL     OW 4083  11.721   4.245   3.910
  729SOL    HW1 4084  11.651   4.196   3.955
  729SOL    HW2 4085  11.767   4.179   3.859
  730SOL     OW 4086  11.177  10.874   2.283
  730SOL    HW1 4087  11.177  10.852   2.376
  730SOL    HW2 4088  11.087  10.901   2.264
  731SOL     OW 4089  13.707   1.283   8.743
  731SOL    HW1 4090  13.740   1.262   8.830
  731SOL    HW2 4091  13.775   1.252   8.683
  732SOL     OW 4092   0.229  11.280  14.093
  732SOL    HW1 4093   0.171  11.224  14.144
  732SOL    HW2 4094   0.226  11.365  14.138
  733SOL     OW 4095   3.886  11.899   6.041
  733SOL    HW1 4096   3.981  11.894   6.034
  733SOL    HW2 4097   3.855  11.815   6.006
  734SOL     OW 4098   6.808   4.450  14.001
  734SOL    HW1 4099   6.780   4.537  13.973
  734SOL    HW2 4100   6.862   4.466  14.079
  735SOL     OW 4101   7.655  12.907   8.916
  735SOL    HW1 4102   7.644  12.955   8.998
  735SOL    HW2 4103   7.728  12.950   8.872
  736SOL     OW 4104  10.555  13.515   7.337
  736SOL    HW1 4105  10.538  13.480   7.424
  736SOL    HW2 4106  10.496  13.590   7.329
  737SOL     OW 4107   4.267   8.664   8.994
  737SOL    HW1 4108   4.172   8.652   8.983
  737SOL    HW2 4109   4.282   8.756   8.969
  738SOL     OW 4110  11.020  10.774   6.593
  738SOL    HW1 4111  11.019  10.709   6.522
  738SOL    HW2 4112  11.006  10.858   6.549
  739SOL     OW 4113   0.109   8.345   7.740
  739SOL    HW1 4114   0.199   8.350   7.773
  739SOL    HW2 4115   0.059   8.401   7.799
  740SOL     OW 4116   9.340   0.872   5.137
  740SOL    HW1 4117   9.381   0.794   5.174
  740SOL    HW2 4118   9.279   0.902   5.205
  741SOL     OW 4119   8.289  14.331   4.065
  741SOL    HW1 4120   8.282  14.403   4.128
  741SOL    HW2 4121   8.312  14.374   3.983
  742SOL     OW 4122  11.527   5.931  14.334
  742SOL    HW1 4123  11.509   5.951  14.426
  742SOL    HW2 4124  11.517   5.836  14.328
  743SOL     OW 4125   5.524   1.387  12.559
  743SOL    HW1 4126   5.575   1.306  12.564
  743SOL    HW2 4127   5.433   1.358  12.553
  744SOL     OW 4128  11.532  12.691   6.971
  744SOL    HW1 4129  11.611  12.726   6.931
  744SOL    HW2 4130  11.549  12.696   7.065
  745SOL     OW 4131   5.508  14.630   7.428
  745SOL    HW1 4132   5.577  14.564   7.415
  745SOL    HW2 4133   5.548  14.712   7.400
  746SOL     OW 4134   9.924   6.318   1.699
  746SOL    HW1 4135   9.910   6.342   1.791
  746SOL    HW2 4136   9.937   6.223   1.700
  747SOL     OW 4137   9.690   0.391  11.313
  747SOL    HW1 4138   9.646   0.342  11.383
  747SOL    HW2 4139   9.691   0.330  11.239
  748SOL     OW 4140   8.030  11.935  12.182
  748SOL    HW1 4141   8.004  11.922  12.274
  748SOL    HW2 4142   7.965  11.997  12.148
  749SOL     OW 4143  13.969  11.895   9.363
  749SOL    HW1 4144  14.045  11.867   9.311
  749SOL    HW2 4145  13.959  11.827   9.430
  750SOL     OW 4146  14.494   8.017   9.837
  750SOL    HW1 4147  14.570   7.967   9.868
  750SOL    HW2 4148  14.524   8.056   9.754
  751SOL     OW 4149   1.057  14.665   2.565
  751SOL    HW1 4150   1.007  14.741   2.536
  751SOL    HW2 4151   1.148  14.687   2.544
  752SOL     OW 4152  10.252  10.771   1.151
  752SOL    HW1 4153  10.212  10.796   1.068
  752SOL    HW2 4154  10.268  10.854   1.196
  753SOL     OW 4155   8.944   9.011   3.964
  753SOL    HW1 4156   8.993   8.938   3.926
  753SOL    HW2 4157   8.883   9.037   3.895
  754SOL     OW 4158   6.310  11.735   0.177
  754SOL    HW1 4159   6.224  11.766   0.147
  754SOL    HW2 4160   6.294  11.646   0.209
  755SOL     OW 4161   1.127   9.738   5.222
  755SOL    HW1 4162   1.096   9.652   5.194
  755SOL    HW2 4163   1.214   9.746   5.183
  756SOL     OW 4164   1.253   0.757  11.762
  756SOL    HW1 4165   1.162   0.767  11.736
  756SOL    HW2 4166   1.274   0.665  11.744
  757SOL     OW 4167   9.884  13.411  14.235
  757SOL    HW1 4168   9.904  13.357  14.312
  757SOL    HW2 4169   9.968  13.418  14.189
  758SOL     OW 4170   6.819  14.262  12.439
  758SOL    HW1 4171   6.837  14.345  12.484
  758SOL    HW2 4172   6.723  14.255  12.440
  759SOL     OW 4173   3.612   6.353   1.477
  759SOL    HW1 4174   3.626   6.431   1.424
  759SOL    HW2 4175   3.645   6.376   1.564
  760SOL     OW 4176   6.665  11.806   9.460
  760SOL    HW1 4177   6.660  11.837   9.370
  760SOL    HW2 4178   6.744  11.753   9.463
  761SOL     OW 4179   0.110  10.401   5.631
  761SOL    HW1 4180   0.081  10.389   5.541
  761SOL    HW2 4181   0.170  10.329   5.647
  762SOL     OW 4182   2.144   7.178   8.640
  762SOL    HW1 4183   2.101   7.209   8.560
  762SOL    HW2 4184   2.151   7.083   8.628
  763SOL     OW 4185   4.839  14.738   2.461
  763SOL    HW1 4186   4.822  14.742   2.556
  763SOL    HW2 4187   4.895  14.662   2.450
  764SOL     OW 4188   0.670   4.830   5.958
  764SOL    HW1 4189   0.710   4.858   6.041
  764SOL    HW2 4190   0.700   4.740   5.947
  765SOL     OW 4191   5.103   1.929   1.289
  765SOL    HW1 4192   5.146   1.858   1.338
  765SOL    HW2 4193   5.096   2.000   1.351
  766SOL     OW 4194   8.306   1.370  14.442
  766SOL    HW1 4195   8.336   1.432  14.376
  766SOL    HW2 4196   8.377   1.366  14.505
  767SOL     OW 4197   2.197  10.447   4.859
  767SOL    HW1 4198   2.167  10.357   4.845
  767SOL    HW2 4199   2.245  10.469   4.780
  768SOL     OW 4200   7.254  13.595  12.301
  768SOL    HW1 4201   7.341  13.637  12.300
  768SOL    HW2 4202   7.212  13.625  12.220
  769SOL     OW 4203  13.366   9.935   7.878
  769SOL    HW1 4204  13.374   9.978   7.963
  769SOL    HW2 4205  13.334   9.847   7.898
  770SOL     OW 4206   0.148  14.415  12.032
  770SOL    HW1 4207   0.053  14.425  12.042
  770SOL    HW2 4208   0.185  14.496  12.068
  771SOL     OW 4209   2.441  11.856   2.548
  771SOL    HW1 4210   2.395  11.798   2.488
  771SOL    HW2 4211   2.525  11.814   2.563
  772SOL     OW 4212  14.667   7.362  14.410
  772SOL    HW1 4213  14.588   7.381  14.359
  772SOL    HW2 4214  14.697   7.278  14.378
  773SOL     OW 4215  12.565   9.081  13.235
  773SOL    HW1 4216  12.644   9.028  13.249
  773SOL    HW2 4217  12.521   9.040  13.161
  774SOL     OW 4218   0.457   0.073   7.797
  774SOL    HW1 4219   0.521   0.003   7.805
  774SOL    HW2 4220   0.484   0.137   7.863
  775SOL     OW 4221   7.617  10.798   9.624
  775SOL    HW1 4222   7.674  10.736   9.578
  775SOL    HW2 4223   7.534  10.792   9.577
  776SOL     OW 4224   9.871  12.174   0.792
  776SOL    HW1 4225   9.882  12.225   0.712
  776SOL    HW2 4226   9.949  12.194   0.844
  777SOL     OW 4227  13.817  11.815  12.095
  777SOL    HW1 4228  13.756  11.795  12.166
  777SOL    HW2 4229  13.782  11.767  12.019
  778SOL     OW 4230   0.583  13.503  11.803
  778SOL    HW1 4231   0.592  13.561  11.727
  778SOL    HW2 4232   0.671  13.468  11.816
  779SOL     OW 4233   1.164   0.248  14.856
  779SOL    HW1 4234   1.073   0.224  14.870
  779SOL    HW2 4235   1.164   0.344  14.853
  780SOL     OW 4236   8.730   6.632  12.408
  780SOL    HW1 4237   8.761   6.717  12.377
  780SOL    HW2 4238   8.718   6.645  12.503
  781SOL     OW 4239  12.339   9.230   0.166
  781SOL    HW1 4240  12.260   9.250   0.115
  781SOL    HW2 4241  12.397   9.184   0.105
  782SOL     OW 4242  13.227   2.531   4.236
  782SOL    HW1 4243  13.183   2.595   4.181
  782SOL    HW2 4244  13.240   2.576   4.320
  783SOL     OW 4245   1.897   3.756   2.134
  783SOL    HW1 4246   1.977   3.737   2.184
  783SOL    HW2 4247   1.872   3.672   2.096
  784SOL     OW 4248  12.120   8.978   3.916
  784SOL    HW1 4249  12.144   9.051   3.860
  784SOL    HW2 4250  12.176   8.987   3.993
  785SOL     OW 4251   9.285  13.969  14.786
  785SOL    HW1 4252   9.333  13.914  14.848
  785SOL    HW2 4253   9.346  14.040  14.765
  786SOL     OW 4254   3.735   8.388   9.937
  786SOL    HW1 4255   3.667   8.333   9.896
  786SOL    HW2 4256   3.759   8.450   9.869
  787SOL     OW 4257   5.737  14.407   4.574
  787SOL    HW1 4258   5.816  14.453   4.605
  787SOL    HW2 4259   5.752  14.316   4.597
  788SOL     OW 4260   9.998  13.922   6.013
  788SOL    HW1 4261  10.032  13.945   5.926
  788SOL    HW2 4262   9.972  14.006   6.051
  789SOL     OW 4263  12.863  12.204   1.502
  789SOL    HW1 4264  12.783  12.159   1.527
  789SOL    HW2 4265  12.883  12.173   1.414
  790SOL     OW 4266   5.030   3.447   2.718
  790SOL    HW1 4267   5.095   3.403   2.664
  790SOL    HW2 4268   5.050   3.419   2.807
  791SOL     OW 4269  13.149   1.448  11.481
  791SOL    HW1 4270  13.159   1.425  11.388
  791SOL    HW2 4271  13.065   1.494  11.486
  792SOL     OW 4272   4.185  12.476  12.591
  792SOL    HW1 4273   4.100  12.518  12.582
  792SOL    HW2 4274   4.179  12.425  12.672
  793SOL     OW 4275  11.813   5.039   0.759
  793SOL    HW1 4276  11.795   5.132   0.751
  793SOL    HW2 4277  11.905   5.030   0.734
  794SOL     OW 4278  12.972  14.276   4.645
  794SOL    HW1 4279  13.009  14.364   4.643
  794SOL    HW2 4280  12.911  14.274   4.572
  795SOL     OW 4281  14.627   1.530  11.961
  795SOL    HW1 4282  14.671   1.498  12.040
  795SOL    HW2 4283  14.587   1.452  11.922
  796SOL     OW 4284   5.554   4.473   6.054
  796SOL    HW1 4285   5.491   4.472   5.982
  796SOL    HW2 4286   5.533   4.552   6.103
  797SOL     OW 4287   8.761   7.841   3.222
  797SOL    HW1 4288   8.852   7.854   3.195
  797SOL    HW2 4289   8.760   7.867   3.315
  798SOL     OW 4290   7.048   2.972   9.294
  798SOL    HW1 4291   7.041   2.951   9.201
  798SOL    HW2 4292   7.080   3.062   9.296
  799SOL     OW 4293   3.062  11.992   1.681
  799SOL    HW1 4294   3.110  11.924   1.634
  799SOL    HW2 4295   3.118  12.070   1.675
  800SOL     OW 4296   7.182   6.149  11.233
  800SOL    HW1 4297   7.262   6.101  11.256
  800SOL    HW2 4298   7.214   6.233  11.201
  801SOL     OW 4299  11.245  10.583   6.079
  801SOL    HW1 4300  11.265  10.490   6.086
  801SOL    HW2 4301  11.321  10.627   6.117
  802SOL     OW 4302   5.633   5.247   1.569
  802SOL    HW1 4303   5.593   5.212   1.649
  802SOL    HW2 4304   5.643   5.172   1.511
  803SOL     OW 4305  13.615   5.745  13.487
  803SOL    HW1 4306  13.594   5.665  13.535
  803SOL    HW2 4307  13.710   5.745  13.479
  804SOL     OW 4308   7.289   3.983   6.318
  804SOL    HW1 4309   7.350   3.969   6.390
  804SOL    HW2 4310   7.208   3.941   6.347
  805SOL     OW 4311   1.404  14.634   8.229
  805SOL    HW1 4312   1.378  14.583   8.306
  805SOL    HW2 4313   1.333  14.622   8.167
  806SOL     OW 4314   3.891   4.981  12.477
  806SOL    HW1 4315   3.795   4.974  12.470
  806SOL    HW2 4316   3.922   4.891  12.464
  807SOL     OW 4317   3.046  13.399   4.590
  807SOL    HW1 4318   3.028  13.421   4.498
  807SOL    HW2 4319   3.074  13.482   4.629
  808SOL     OW 4320  10.381  12.148   4.864
  808SOL    HW1 4321  10.455  12.126   4.920
  808SOL    HW2 4322  10.418  12.206   4.798
  809SOL     OW 4323   1.347   0.352   8.873
  809SOL    HW1 4324   1.315   0.279   8.926
  809SOL    HW2 4325   1.268   0.390   8.835
  810SOL     OW 4326   5.009   7.678   6.132
  810SOL    HW1 4327   4.949   7.739   6.174
  810SOL    HW2 4328   5.078   7.734   6.095
  811SOL     OW 4329  13.960   2.958   3.196
  811SOL    HW1 4330  13.887   2.973   3.256
  811SOL    HW2 4331  13.919   2.921   3.118
  812SOL     OW 4332   0.317   0.127   2.061
  812SOL    HW1 4333   0.387   0.192   2.052
  812SOL    HW2 4334   0.280   0.144   2.147
  813SOL     OW 4335   8.979   3.972   6.278
  813SOL    HW1 4336   8.952   4.036   6.344
  813SOL    HW2 4337   8.976   3.888   6.325
  814SOL     OW 4338   6.194   0.496   2.696
  814SOL    HW1 4339   6.117   0.460   2.740
  814SOL    HW2 4340   6.266   0.440   2.723
  815SOL     OW 4341   6.704  13.690   9.043
  815SOL    HW1 4342   6.735  13.694   9.133
  815SOL    HW2 4343   6.784  13.690   8.990
  816SOL     OW 4344  14.871  14.607   9.068
  816SOL    HW1 4345  14.874  14.630   8.975
  816SOL    HW2 4346  14.789  14.558   9.078
  817SOL     OW 4347   1.958   7.300   3.802
  817SOL    HW1 4348   1.906   7.328   3.876
  817SOL    HW2 4349   1.936   7.361   3.732
  818SOL     OW 4350  10.014  12.652  11.416
  818SOL    HW1 4351   9.944  12.714  11.435
  818SOL    HW2 4352  10.091  12.706  11.398
  819SOL     OW 4353  11.363   5.997  13.317
  819SOL    HW1 4354  11.398   6.058  13.382
  819SOL    HW2 4355  11.312   5.934  13.369
  820SOL     OW 4356   0.395  13.255  14.794
  820SOL    HW1 4357   0.422  13.178  14.744
  820SOL    HW2 4358   0.442  13.328  14.754
  821SOL     OW 4359   8.670  12.176   0.598
  821SOL    HW1 4360   8.629  12.108   0.545
  821SOL    HW2 4361   8.627  12.257   0.571
  822SOL     OW 4362  13.908   8.295   5.593
  822SOL    HW1 4363  13.883   8.351   5.667
  822SOL    HW2 4364  13.950   8.220   5.633
  823SOL     OW 4365   9.871   2.753  11.130
  823SOL    HW1 4366   9.826   2.668  11.125
  823SOL    HW2 4367   9.836   2.803  11.056
  824SOL     OW 4368   6.704  12.754  13.978
  824SOL    HW1 4369   6.793  12.760  14.013
  824SOL    HW2 4370   6.716  12.740  13.884
  825SOL     OW 4371  12.857   8.040   4.216
  825SOL    HW1 4372  12.933   8.018   4.163
  825SOL    HW2 4373  12.870   8.132   4.240
  826SOL     OW 4374   7.252  13.517  13.760
  826SOL    HW1 4375   7.239  13.517  13.665
  826SOL    HW2 4376   7.286  13.429  13.779
  827SOL     OW 4377   0.900   4.995   8.129
  827SOL    HW1 4378   0.828   5.021   8.071
  827SOL    HW2 4379   0.978   5.002   8.075
  828SOL     OW 4380   6.001   3.586   8.492
  828SOL    HW1 4381   6.035   3.513   8.542
  828SOL    HW2 4382   5.906   3.575   8.491
  829SOL     OW 4383   6.678  10.737  11.535
  829SOL    HW1 4384   6.708  10.817  11.492
  829SOL    HW2 4385   6.733  10.729  11.612
  830SOL     OW 4386   9.041   2.637  14.417
  830SOL    HW1 4387   8.965   2.694  14.406
  830SOL    HW2 4388   9.115   2.690  14.388
  831SOL     OW 4389  10.313   1.541  11.070
  831SOL    HW1 4390  10.245   1.534  11.137
  831SOL    HW2 4391  10.322   1.635  11.055
  832SOL     OW 4392   8.806   0.114  10.116
  832SOL    HW1 4393   8.877   0.125  10.179
  832SOL    HW2 4394   8.845   0.062  10.045
  833SOL     OW 4395   4.581   8.774   3.066
  833SOL    HW1 4396   4.674   8.778   3.046
  833SOL    HW2 4397   4.576   8.756   3.160
  834SOL     OW 4398   8.728  13.795  14.380
  834SOL    HW1 4399   8.764  13.708  14.364
  834SOL    HW2 4400   8.742  13.810  14.474
  835SOL     OW 4401  12.212   4.043   6.022
  835SOL    HW1 4402  12.142   4.106   6.036
  835SOL    HW2 4403  12.166   3.962   5.996
  836SOL     OW 4404  13.896   3.159  12.792
  836SOL    HW1 4405  13.885   3.155  12.697
  836SOL    HW2 4406  13.829   3.222  12.820
  837SOL     OW 4407   0.478   5.333   7.511
  837SOL    HW1 4408   0.541   5.263   7.497
  837SOL    HW2 4409   0.435   5.344   7.426
  838SOL     OW 4410   2.860   7.378  14.376
  838SOL    HW1 4411   2.905   7.302  14.338
  838SOL    HW2 4412   2.911   7.400  14.453
  839SOL     OW 4413   8.311  12.128   3.327
  839SOL    HW1 4414   8.363  12.147   3.249
  839SOL    HW2 4415   8.221  12.142   3.301
  840SOL     OW 4416   8.128  12.638   0.531
  840SOL    HW1 4417   8.210  12.652   0.578
  840SOL    HW2 4418   8.065  12.692   0.577
  841SOL     OW 4419   7.156   3.134  13.966
  841SOL    HW1 4420   7.231   3.081  13.991
  841SOL    HW2 4421   7.141   3.191  14.042
  842SOL     OW 4422  14.446  11.642   7.095
  842SOL    HW1 4423  14.379  11.709   7.108
  842SOL    HW2 4424  14.528  11.690   7.094
  843SOL     OW 4425  12.770   3.602   0.004
  843SOL    HW1 4426  12.854   3.647   0.003
  843SOL    HW2 4427  12.744   3.597  14.800
  844SOL     OW 4428  11.515   6.719  12.585
  844SOL    HW1 4429  11.474   6.640  12.621
  844SOL    HW2 4430  11.549   6.766  12.662
  845SOL     OW 4431   1.548   9.582   7.431
  845SOL    HW1 4432   1.592   9.564   7.348
  845SOL    HW2 4433   1.458   9.553   7.418
  846SOL     OW 4434   9.572   4.293  10.787
  846SOL    HW1 4435   9.649   4.286  10.730
  846SOL    HW2 4436   9.530   4.375  10.759
  847SOL     OW 4437  10.852  10.169   9.335
  847SOL    HW1 4438  10.819  10.243   9.283
  847SOL    HW2 4439  10.884  10.210   9.416
  848SOL     OW 4440  10.444  11.612   5.651
  848SOL    HW1 4441  10.466  11.635   5.741
  848SOL    HW2 4442  10.358  11.652   5.636
  849SOL     OW 4443  10.672  10.005   1.423
  849SOL    HW1 4444  10.763   9.995   1.452
  849SOL    HW2 4445  10.635  10.071   1.482
  850SOL     OW 4446  13.327  10.490   9.140
  850SOL    HW1 4447  13.354  10.440   9.064
  850SOL    HW2 4448  13.253  10.441   9.176
  851SOL     OW 4449   9.117   4.953  12.439
  851SOL    HW1 4450   9.140   4.883  12.377
  851SOL    HW2 4451   9.032   4.926  12.474
  852SOL     OW 4452  11.912   9.615   4.182
  852SOL    HW1 4453  11.927   9.568   4.263
  852SOL    HW2 4454  11.893   9.705   4.209
  853SOL     OW 4455  14.417   8.854   4.894
  853SOL    HW1 4456  14.382   8.932   4.937
  853SOL    HW2 4457  14.342   8.795   4.886
  854SOL     OW 4458   7.654   5.618   8.886
  854SOL    HW1 4459   7.655   5.577   8.972
  854SOL    HW2 4460   7.580   5.679   8.889
  855SOL     OW 4461   6.887   3.701   0.122
  855SOL    HW1 4462   6.796   3.728   0.136
  855SOL    HW2 4463   6.909   3.735   0.035
  856SOL     OW 4464  14.178   3.716   0.220
  856SOL    HW1 4465  14.218   3.638   0.258
  856SOL    HW2 4466  14.218   3.789   0.267
  857SOL     OW 4467  11.063  12.085   9.840
  857SOL    HW1 4468  11.138  12.127   9.799
  857SOL    HW2 4469  10.988  12.112   9.786
  858SOL     OW 4470   9.130   2.763   5.444
  858SOL    HW1 4471   9.135   2.811   5.527
  858SOL    HW2 4472   9.125   2.831   5.377
  859SOL     OW 4473  10.498   3.829   3.211
  859SOL    HW1 4474  10.484   3.921   3.190
  859SOL    HW2 4475  10.422   3.805   3.264
  860SOL     OW 4476   0.091   5.406  11.608
  860SOL    HW1 4477   0.052   5.335  11.659
  860SOL    HW2 4478   0.096   5.480  11.670
  861SOL     OW 4479   1.479   5.937   4.742
  861SOL    HW1 4480   1.386   5.955   4.753
  861SOL    HW2 4481   1.499   5.873   4.811
  862SOL     OW 4482  10.163  11.047   5.322
  862SOL    HW1 4483  10.088  10.987   5.319
  862SOL    HW2 4484  10.129  11.129   5.287
  863SOL     OW 4485   0.907  10.908   3.112
  863SOL    HW1 4486   0.987  10.918   3.163
  863SOL    HW2 4487   0.921  10.963   3.035
  864SOL     OW 4488   4.865   8.081   1.330
  864SOL    HW1 4489   4.915   8.001   1.350
  864SOL    HW2 4490   4.803   8.088   1.402
  865SOL     OW 4491   5.110  12.628  13.716
  865SOL    HW1 4492   5.193  12.673  13.727
  865SOL    HW2 4493   5.125  12.541  13.752
  866SOL     OW 4494   0.468   2.584   2.297
  866SOL    HW1 4495   0.477   2.535   2.215
  866SOL    HW2 4496   0.416   2.527   2.353
  867SOL     OW 4497   7.114   9.148   0.017
  867SOL    HW1 4498   7.058   9.071   0.007
  867SOL    HW2 4499   7.125   9.181  14.815
  868SOL     OW 4500   8.035  13.023   8.195
  868SOL    HW1 4501   7.981  13.009   8.118
  868SOL    HW2 4502   8.069  12.936   8.217
  869SOL     OW 4503   5.662   0.748   5.081
  869SOL    HW1 4504   5.652   0.817   5.015
  869SOL    HW2 4505   5.722   0.685   5.042
  870SOL     OW 4506  13.311   9.423   7.154
  870SOL    HW1 4507  13.224   9.444   7.186
  870SOL    HW2 4508  13.297   9.391   7.065
  871SOL     OW 4509  14.672   6.023   0.332
  871SOL    HW1 4510  14.743   5.964   0.307
  871SOL    HW2 4511  14.669   6.089   0.263
  872SOL     OW 4512   7.595   7.310   5.440
  872SOL    HW1 4513   7.617   7.392   5.485
  872SOL    HW2 4514   7.670   7.253   5.456
  873SOL     OW 4515  12.856   2.862   4.853
  873SOL    HW1 4516  12.763   2.846   4.869
  873SOL    HW2 4517  12.869   2.954   4.878
  874SOL     OW 4518   9.876   4.918  12.146
  874SOL    HW1 4519   9.807   4.919  12.079
  874SOL    HW2 4520   9.898   5.010  12.159
  875SOL     OW 4521   2.102   3.798  13.428
  875SOL    HW1 4522   2.117   3.780  13.521
  875SOL    HW2 4523   2.178   3.761  13.384
  876SOL     OW 4524  13.302   1.068   6.148
  876SOL    HW1 4525  13.342   1.120   6.218
  876SOL    HW2 4526  13.242   1.129   6.105
  877SOL     OW 4527   0.218   0.583   7.319
  877SOL    HW1 4528   0.175   0.634   7.250
  877SOL    HW2 4529   0.310   0.608   7.315
  878SOL     OW 4530  13.173  13.263  11.938
  878SOL    HW1 4531  13.237  13.204  11.899
  878SOL    HW2 4532  13.119  13.206  11.993
  879SOL     OW 4533   3.961   5.476  14.818
  879SOL    HW1 4534   3.912   5.441  14.744
  879SOL    HW2 4535   3.973   5.401  14.876
  880SOL     OW 4536   1.903  14.048   7.316
  880SOL    HW1 4537   1.944  14.042   7.403
  880SOL    HW2 4538   1.865  14.135   7.314
  881SOL     OW 4539   7.539  12.795  11.000
  881SOL    HW1 4540   7.458  12.844  10.984
  881SOL    HW2 4541   7.609  12.860  10.994
  882SOL     OW 4542   8.659  14.676   4.425
  882SOL    HW1 4543   8.710  14.595   4.427
  882SOL    HW2 4544   8.598  14.667   4.498
  883SOL     OW 4545   7.731   6.026   6.701
  883SOL    HW1 4546   7.689   6.111   6.711
  883SOL    HW2 4547   7.743   6.015   6.607
  884SOL     OW 4548   5.360  11.031   1.086
  884SOL    HW1 4549   5.353  11.059   0.994
  884SOL    HW2 4550   5.446  11.064   1.114
  885SOL     OW 4551  12.235   0.909   6.208
  885SOL    HW1 4552  12.196   0.885   6.124
  885SOL    HW2 4553  12.221   0.833   6.264
  886SOL     OW 4554  10.690   4.100  11.710
  886SOL    HW1 4555  10.751   4.132  11.644
  886SOL    HW2 4556  10.666   4.012  11.680
  887SOL     OW 4557  13.344  11.621   0.143
  887SOL    HW1 4558  13.284  11.680   0.098
  887SOL    HW2 4559  13.356  11.661   0.229
  888SOL     OW 4560  12.868  10.127  13.196
  888SOL    HW1 4561  12.958  10.108  13.224
  888SOL    HW2 4562  12.814  10.067  13.247
  889SOL     OW 4563   3.972   2.975  11.777
  889SOL    HW1 4564   4.016   2.920  11.712
  889SOL    HW2 4565   4.039   2.991  11.844
  890SOL     OW 4566   4.959   2.419   4.011
  890SOL    HW1 4567   4.906   2.426   4.091
  890SOL    HW2 4568   4.903   2.373   3.949
  891SOL     OW 4569   3.834   9.507   2.260
  891SOL    HW1 4570   3.918   9.509   2.305
  891SOL    HW2 4571   3.781   9.446   2.311
  892SOL     OW 4572  10.981   2.230   7.097
  892SOL    HW1 4573  11.070   2.223   7.061
  892SOL    HW2 4574  10.981   2.171   7.173
  893SOL     OW 4575   7.642   4.535   9.875
  893SOL    HW1 4576   7.642   4.626   9.846
  893SOL    HW2 4577   7.711   4.494   9.824
  894SOL     OW 4578   8.238  14.672   2.873
  894SOL    HW1 4579   8.260  14.765   2.880
  894SOL    HW2 4580   8.143  14.670   2.867
  895SOL     OW 4581   2.179  11.195   8.982
  895SOL    HW1 4582   2.144  11.114   8.944
  895SOL    HW2 4583   2.269  11.199   8.950
  896SOL     OW 4584  11.211   3.760  11.694
  896SOL    HW1 4585  11.165   3.840  11.667
  896SOL    HW2 4586  11.245   3.723  11.613
  897SOL     OW 4587   0.460  12.384  13.763
  897SOL    HW1 4588   0.499  12.411  13.846
  897SOL    HW2 4589   0.530  12.339  13.716
  898SOL     OW 4590  11.006   4.335   3.663
  898SOL    HW1 4591  10.927   4.363   3.710
  898SOL    HW2 4592  10.992   4.364   3.573
  899SOL     OW 4593   2.977   2.625   5.829
  899SOL    HW1 4594   2.955   2.561   5.897
  899SOL    HW2 4595   3.011   2.700   5.878
  900SOL     OW 4596  12.971   9.951  14.265
  900SOL    HW1 4597  12.922  10.028  14.235
  900SOL    HW2 4598  12.919   9.877  14.236
  901SOL     OW 4599   1.779   6.980   2.076
  901SOL    HW1 4600   1.707   7.036   2.044
  901SOL    HW2 4601   1.831   7.038   2.132
  902SOL     OW 4602   5.107   1.380   4.449
  902SOL    HW1 4603   5.018   1.366   4.418
  902SOL    HW2 4604   5.128   1.301   4.499
  903SOL     OW 4605   2.142  14.208   3.521
  903SOL    HW1 4606   2.054  14.244   3.522
  903SOL    HW2 4607   2.143  14.148   3.446
  904SOL     OW 4608   3.294   0.710  14.773
  904SOL    HW1 4609   3.340   0.782  14.814
  904SOL    HW2 4610   3.256   0.660  14.846
  905SOL     OW 4611  10.877  12.828   6.634
  905SOL    HW1 4612  10.957  12.875   6.658
  905SOL    HW2 4613  10.898  12.736   6.648
  906SOL     OW 4614  10.216   1.909  10.039
  906SOL    HW1 4615  10.126   1.891  10.068
  906SOL    HW2 4616  10.230   1.849   9.966
  907SOL     OW 4617   4.391   7.686  14.081
  907SOL    HW1 4618   4.469   7.731  14.112
  907SOL    HW2 4619   4.319   7.723  14.134
  908SOL     OW 4620   7.625  14.370   7.763
  908SOL    HW1 4621   7.613  14.341   7.854
  908SOL    HW2 4622   7.538  14.401   7.737
  909SOL     OW 4623   3.483   6.403  11.368
  909SOL    HW1 4624   3.456   6.482  11.415
  909SOL    HW2 4625   3.524   6.435  11.288
  910SOL     OW 4626   1.266   3.577  11.413
  910SOL    HW1 4627   1.296   3.524  11.487
  910SOL    HW2 4628   1.271   3.518  11.338
  911SOL     OW 4629   6.125  12.341   2.429
  911SOL    HW1 4630   6.213  12.325   2.462
  911SOL    HW2 4631   6.116  12.436   2.431
  912SOL     OW 4632   7.930  14.045  11.445
  912SOL    HW1 4633   7.882  14.073  11.522
  912SOL    HW2 4634   8.006  13.999  11.480
  913SOL     OW 4635   1.159   0.363   8.031
  913SOL    HW1 4636   1.246   0.368   7.992
  913SOL    HW2 4637   1.111   0.437   7.994
  914SOL     OW 4638   2.968  14.087   0.715
  914SOL    HW1 4639   2.962  14.178   0.686
  914SOL    HW2 4640   3.051  14.056   0.678
  915SOL     OW 4641   4.743  14.793   3.727
  915SOL    HW1 4642   4.667  14.736   3.721
  915SOL    HW2 4643   4.739  14.830   3.815
  916SOL     OW 4644   8.116   0.297  10.205
  916SOL    HW1 4645   8.054   0.369  10.192
  916SOL    HW2 4646   8.199   0.331  10.171
  917SOL     OW 4647  14.115   3.994   0.847
  917SOL    HW1 4648  14.067   3.983   0.765
  917SOL    HW2 4649  14.207   3.983   0.822
  918SOL     OW 4650   5.364   4.206  10.853
  918SOL    HW1 4651   5.428   4.273  10.828
  918SOL    HW2 4652   5.372   4.200  10.948
  919SOL     OW 4653  10.790   2.547   9.282
  919SOL    HW1 4654  10.848   2.522   9.353
  919SOL    HW2 4655  10.833   2.623   9.242
  920SOL     OW 4656   4.487  12.897  14.669
  920SOL    HW1 4657   4.534  12.854  14.740
  920SOL    HW2 4658   4.542  12.971  14.645
  921SOL     OW 4659   4.799   3.327   5.185
  921SOL    HW1 4660   4.825   3.309   5.095
  921SOL    HW2 4661   4.706   3.304   5.188
  922SOL     OW 4662   2.328   4.284   4.355
  922SOL    HW1 4663   2.405   4.308   4.406
  922SOL    HW2 4664   2.359   4.284   4.264
  923SOL     OW 4665   7.688   9.507   4.132
  923SOL    HW1 4666   7.767   9.561   4.119
  923SOL    HW2 4667   7.721   9.424   4.166
  924SOL     OW 4668   0.700  11.280   5.184
  924SOL    HW1 4669   0.778  11.284   5.240
  924SOL    HW2 4670   0.712  11.202   5.131
  925SOL     OW 4671  12.352   8.202  13.943
  925SOL    HW1 4672  12.274   8.256  13.930
  925SOL    HW2 4673  12.384   8.226  14.030
  926SOL     OW 4674   5.881   1.649  14.758
  926SOL    HW1 4675   5.966   1.690  14.774
  926SOL    HW2 4676   5.819   1.722  14.753
  927SOL     OW 4677  14.675   5.682   9.592
  927SOL    HW1 4678  14.655   5.770   9.623
  927SOL    HW2 4679  14.759   5.661   9.633
  928SOL     OW 4680  10.632   5.233  13.014
  928SOL    HW1 4681  10.629   5.309  13.073
  928SOL    HW2 4682  10.540   5.208  13.003
  929SOL     OW 4683  12.724   0.293   9.782
  929SOL    HW1 4684  12.697   0.201   9.782
  929SOL    HW2 4685  12.801   0.296   9.839
  930SOL     OW 4686   9.631   7.509  11.031
  930SOL    HW1 4687   9.642   7.417  11.005
  930SOL    HW2 4688   9.536   7.521  11.038
  931SOL     OW 4689   8.263   1.302   7.788
  931SOL    HW1 4690   8.266   1.294   7.693
  931SOL    HW2 4691   8.349   1.272   7.817
  932SOL     OW 4692   3.867   8.482   8.471
  932SOL    HW1 4693   3.881   8.397   8.513
  932SOL    HW2 4694   3.879   8.546   8.541
  933SOL     OW 4695   8.085  12.464   9.809
  933SOL    HW1 4696   8.127  12.548   9.791
  933SOL    HW2 4697   7.991  12.483   9.804
  934SOL     OW 4698   6.014   3.593  12.390
  934SOL    HW1 4699   6.024   3.509  12.344
  934SOL    HW2 4700   6.084   3.648  12.355
  935SOL     OW 4701  11.042   6.012   0.210
  935SOL    HW1 4702  11.019   5.922   0.229
  935SOL    HW2 4703  11.001   6.030   0.125
  936SOL     OW 4704   0.177   5.572   8.987
  936SOL    HW1 4705   0.182   5.480   9.012
  936SOL    HW2 4706   0.160   5.570   8.892
  937SOL     OW 4707   8.264   9.457  13.741
  937SOL    HW1 4708   8.209   9.534  13.722
  937SOL    HW2 4709   8.263   9.407  13.660
  938SOL     OW 4710   3.885   2.837   2.765
  938SOL    HW1 4711   3.818   2.879   2.819
  938SOL    HW2 4712   3.837   2.798   2.692
  939SOL     OW 4713   1.217  14.198   4.273
  939SOL    HW1 4714   1.126  14.168   4.275
  939SOL    HW2 4715   1.213  14.291   4.292
  940SOL     OW 4716   8.597   9.901  12.804
  940SOL    HW1 4717   8.672   9.917  12.747
  940SOL    HW2 4718   8.611   9.812  12.836
  941SOL     OW 4719   6.148  12.243   4.240
  941SOL    HW1 4720   6.239  12.256   4.268
  941SOL    HW2 4721   6.153  12.237   4.144
  942SOL     OW 4722   5.273   6.001   9.839
  942SOL    HW1 4723   5.308   6.087   9.818
  942SOL    HW2 4724   5.265   6.000   9.935
  943SOL     OW 4725  14.844   8.302   9.397
  943SOL    HW1 4726  14.760   8.331   9.433
  943SOL    HW2 4727   0.022   8.352   9.446
  944SOL     OW 4728  12.364   7.318   2.625
  944SOL    HW1 4729  12.367   7.296   2.532
  944SOL    HW2 4730  12.433   7.383   2.637
  945SOL     OW 4731   0.102   7.485   6.555
  945SOL    HW1 4732   0.067   7.429   6.485
  945SOL    HW2 4733   0.048   7.564   6.551
  946SOL     OW 4734  12.672  14.288   9.160
  946SOL    HW1 4735  12.653  14.371   9.116
  946SOL    HW2 4736  12.751  14.256   9.117
  947SOL     OW 4737   5.855  12.082  12.770
  947SOL    HW1 4738   5.772  12.089  12.817
  947SOL    HW2 4739   5.851  11.996  12.728
  948SOL     OW 4740   4.393   1.657  12.438
  948SOL    HW1 4741   4.349   1.635  12.356
  948SOL    HW2 4742   4.452   1.729  12.415
  949SOL     OW 4743   6.504   4.338   8.961
  949SOL    HW1 4744   6.429   4.311   9.013
  949SOL    HW2 4745   6.478   4.322   8.870
  950SOL     OW 4746   8.253  13.964   9.566
  950SOL    HW1 4747   8.313  13.917   9.508
  950SOL    HW2 4748   8.275  13.933   9.654
  951SOL     OW 4749   9.489   7.948  10.712
  951SOL    HW1 4750   9.489   8.041  10.734
  951SOL    HW2 4751   9.564   7.937  10.654
  952SOL     OW 4752  13.512   9.905  11.164
  952SOL    HW1 4753  13.499   9.824  11.115
  952SOL    HW2 4754  13.591   9.944  11.127
  953SOL     OW 4755   8.576  12.578  13.474
  953SOL    HW1 4756   8.585  12.669  13.446
  953SOL    HW2 4757   8.540  12.584  13.563
  954SOL     OW 4758  13.731   7.076   9.123
  954SOL    HW1 4759  13.809   7.032   9.156
  954SOL    HW2 4760  13.752   7.169   9.129
  955SOL     OW 4761   0.207  14.451   6.611
  955SOL    HW1 4762   0.231  14.543   6.606
  955SOL    HW2 4763   0.111  14.450   6.607
  956SOL     OW 4764   9.864   5.471   6.515
  956SOL    HW1 4765   9.836   5.561   6.531
  956SOL    HW2 4766   9.833   5.452   6.426
  957SOL     OW 4767   7.795   6.154  13.068
  957SOL    HW1 4768   7.766   6.063  13.063
  957SOL    HW2 4769   7.774   6.191  12.982
  958SOL     OW 4770   8.054   5.581   9.069
  958SOL    HW1 4771   8.142   5.586   9.107
  958SOL    HW2 4772   8.060   5.627   8.986
  959SOL     OW 4773   8.641   4.597  12.106
  959SOL    HW1 4774   8.665   4.689  12.093
  959SOL    HW2 4775   8.603   4.571  12.022
  960SOL     OW 4776   9.358   1.427   9.061
  960SOL    HW1 4777   9.398   1.482   8.993
  960SOL    HW2 4778   9.343   1.487   9.134
  961SOL     OW 4779   1.929   3.948   9.834
  961SOL    HW1 4780   1.944   4.037   9.867
  961SOL    HW2 4781   1.994   3.938   9.764
  962SOL     OW 4782  14.710   2.503  14.519
  962SOL    HW1 4783  14.616   2.515  14.527
  962SOL    HW2 4784  14.744   2.589  14.496
  963SOL     OW 4785   9.597   2.895   8.232
  963SOL    HW1 4786   9.689   2.910   8.257
  963SOL    HW2 4787   9.549   2.906   8.314
  964SOL     OW 4788   0.916   1.413   9.939
  964SOL    HW1 4789   0.928   1.433   9.846
  964SOL    HW2 4790   0.958   1.327   9.950
  965SOL     OW 4791   3.384   7.519  12.515
  965SOL    HW1 4792   3.370   7.438  12.565
  965SOL    HW2 4793   3.339   7.586  12.566
  966SOL     OW 4794  12.418   5.977   5.217
  966SOL    HW1 4795  12.494   6.030   5.241
  966SOL    HW2 4796  12.417   5.977   5.122
  967SOL     OW 4797   1.351   3.975   2.263
  967SOL    HW1 4798   1.341   3.880   2.273
  967SOL    HW2 4799   1.442   3.992   2.284
  968SOL     OW 4800   4.608   1.012   5.413
  968SOL    HW1 4801   4.689   0.994   5.365
  968SOL    HW2 4802   4.593   0.934   5.466
  969SOL     OW 4803  10.587   2.058   3.219
  969SOL    HW1 4804  10.522   2.104   3.166
  969SOL    HW2 4805  10.658   2.037   3.158
  970SOL     OW 4806  11.012   5.855   3.089
  970SOL    HW1 4807  11.013   5.762   3.067
  970SOL    HW2 4808  10.952   5.861   3.164
  971SOL     OW 4809  10.489   7.854   1.217
  971SOL    HW1 4810  10.422   7.831   1.281
  971SOL    HW2 4811  10.511   7.945   1.236
  972SOL     OW 4812   7.469   8.556  13.346
  972SOL    HW1 4813   7.502   8.583  13.260
  972SOL    HW2 4814   7.434   8.636  13.385
  973SOL     OW 4815   4.474  13.436   4.664
  973SOL    HW1 4816   4.391  13.483   4.659
  973SOL    HW2 4817   4.528  13.489   4.723
  974SOL     OW 4818  10.745   2.228   4.609
  974SOL    HW1 4819  10.690   2.304   4.624
  974SOL    HW2 4820  10.706   2.185   4.533
  975SOL     OW 4821  12.644   5.068  10.665
  975SOL    HW1 4822  12.730   5.070  10.706
  975SOL    HW2 4823  12.641   4.985  10.618
  976SOL     OW 4824  11.012   5.448  12.607
  976SOL    HW1 4825  10.943   5.501  12.568
  976SOL    HW2 4826  10.975   5.420  12.691
  977SOL     OW 4827   8.479   5.910   7.159
  977SOL    HW1 4828   8.385   5.901   7.143
  977SOL    HW2 4829   8.490   6.002   7.180
  978SOL     OW 4830   0.449  12.592   5.579
  978SOL    HW1 4831   0.473  12.568   5.669
  978SOL    HW2 4832   0.482  12.682   5.570
  979SOL     OW 4833   8.607   7.028   1.566
  979SOL    HW1 4834   8.698   7.011   1.589
  979SOL    HW2 4835   8.594   7.121   1.586
  980SOL     OW 4836   6.470   3.808  14.542
  980SOL    HW1 4837   6.470   3.725  14.591
  980SOL    HW2 4838   6.378   3.823  14.521
  981SOL     OW 4839  10.383   2.317   1.296
  981SOL    HW1 4840  10.294   2.344   1.319
  981SOL    HW2 4841  10.376   2.288   1.205
  982SOL     OW 4842   2.326   2.365   0.564
  982SOL    HW1 4843   2.388   2.433   0.538
  982SOL    HW2 4844   2.335   2.360   0.660
  983SOL     OW 4845   7.695   5.865   7.260
  983SOL    HW1 4846   7.652   5.823   7.186
  983SOL    HW2 4847   7.647   5.834   7.337
  984SOL     OW 4848   5.521  11.926   4.733
  984SOL    HW1 4849   5.496  11.874   4.810
  984SOL    HW2 4850   5.602  11.884   4.702
  985SOL     OW 4851  13.494   6.348  10.290
  985SOL    HW1 4852  13.422   6.315  10.237
  985SOL    HW2 4853  13.470   6.439  10.309
  986SOL     OW 4854  12.429   9.330   9.549
  986SOL    HW1 4855  12.373   9.344   9.473
  986SOL    HW2 4856  12.487   9.406   9.552
  987SOL     OW 4857   0.174   8.263   8.859
  987SOL    HW1 4858   0.218   8.198   8.804
  987SOL    HW2 4859   0.243   8.325   8.884
  988SOL     OW 4860   4.075   9.219  12.647
  988SOL    HW1 4861   4.008   9.196  12.711
  988SOL    HW2 4862   4.147   9.158  12.664
  989SOL     OW 4863  13.729   6.355  11.188
  989SOL    HW1 4864  13.819   6.331  11.211
  989SOL    HW2 4865  13.727   6.352  11.092
  990SOL     OW 4866   6.742  10.820  12.341
  990SOL    HW1 4867   6.770  10.743  12.292
  990SOL    HW2 4868   6.787  10.893  12.300
  991SOL     OW 4869  10.419  14.611  12.094
  991SOL    HW1 4870  10.388  14.697  12.069
  991SOL    HW2 4871  10.386  14.598  12.183
  992SOL     OW 4872  11.090   5.465  11.009
  992SOL    HW1 4873  11.054   5.426  11.089
  992SOL    HW2 4874  11.108   5.556  11.032
  993SOL     OW 4875  13.827   7.444   9.245
  993SOL    HW1 4876  13.879   7.435   9.165
  993SOL    HW2 4877  13.891   7.470   9.311
  994SOL     OW 4878  11.000  11.957   2.319
  994SOL    HW1 4879  11.045  12.041   2.332
  994SOL    HW2 4880  11.044  11.897   2.378
  995SOL     OW 4881   6.592   2.900  13.797
  995SOL    HW1 4882   6.566   2.984  13.760
  995SOL    HW2 4883   6.687   2.900  13.793
  996SOL     OW 4884   1.408  14.803  13.882
  996SOL    HW1 4885   1.475  14.845  13.938
  996SOL    HW2 4886   1.330  14.800  13.937
  997SOL     OW 4887  14.832   5.022   3.356
  997SOL    HW1 4888  14.790   5.084   3.297
  997SOL    HW2 4889  14.786   5.032   3.439
  998SOL     OW 4890   4.642  13.380   7.247
  998SOL    HW1 4891   4.602  13.466   7.255
  998SOL    HW2 4892   4.596  13.326   7.311
  999SOL     OW 4893   8.262   1.250  10.434
  999SOL    HW1 4894   8.264   1.158  10.461
  999SOL    HW2 4895   8.170   1.274  10.436
 1000SOL     OW 4896   3.996   9.478   2.978
 1000SOL    HW1 4897   3.900   9.486   2.987
 1000SOL    HW2 4898   4.015   9.509   2.890
 1001SOL     OW 4899   0.137   7.119   6.709
 1001SOL    HW1 4900   0.045   7.090   6.709
 1001SOL    HW2 4901   0.132   7.214   6.709
 1002SOL     OW 4902   6.702   8.260   9.590
 1002SOL    HW1 4903   6.673   8.177   9.628
 1002SOL    HW2 4904   6.622   8.303   9.561
 1003SOL     OW 4905   0.976  13.075   6.483
 1003SOL    HW1 4906   1.071  13.071   6.470
 1003SOL    HW2 4907   0.940  13.030   6.406
 1004SOL     OW 4908  14.507  13.013  14.735
 1004SOL    HW1 4909  14.579  13.070  14.763
 1004SOL    HW2 4910  14.503  12.945  14.802
 1005SOL     OW 4911   3.286  14.224  14.370
 1005SOL    HW1 4912   3.318  14.134  14.360
 1005SOL    HW2 4913   3.206  14.228  14.318
 1006SOL     OW 4914   8.932  14.837  11.793
 1006SOL    HW1 4915   8.891   0.003  11.725
 1006SOL    HW2 4916   8.900  14.873  11.875
 1007SOL     OW 4917   6.899  14.809  12.369
 1007SOL    HW1 4918   6.971  14.759  12.332
 1007SOL    HW2 4919   6.824  14.749  12.365
 1008SOL     OW 4920   8.674   4.656   9.575
 1008SOL    HW1 4921   8.707   4.647   9.486
 1008SOL    HW2 4922   8.717   4.735   9.609
 1009SOL     OW 4923   5.521  11.458   7.861
 1009SOL    HW1 4924   5.589  11.522   7.882
 1009SOL    HW2 4925   5.541  11.428   7.773
 1010SOL     OW 4926  11.087  14.741  13.647
 1010SOL    HW1 4927  11.113  14.818  13.697
 1010SOL    HW2 4928  11.169  14.701  13.618
 1011SOL     OW 4929   9.007   5.206  14.052
 1011SOL    HW1 4930   8.939   5.266  14.081
 1011SOL    HW2 4931   9.021   5.228  13.960
 1012SOL     OW 4932  12.175   1.412   4.303
 1012SOL    HW1 4933  12.228   1.479   4.260
 1012SOL    HW2 4934  12.237   1.342   4.324
 1013SOL     OW 4935  13.851   4.999  12.002
 1013SOL    HW1 4936  13.817   5.026  11.917
 1013SOL    HW2 4937  13.874   5.081  12.046
 1014SOL     OW 4938   6.781  10.419   2.878
 1014SOL    HW1 4939   6.792  10.506   2.916
 1014SOL    HW2 4940   6.756  10.435   2.787
 1015SOL     OW 4941   7.497   6.270  14.616
 1015SOL    HW1 4942   7.565   6.205  14.600
 1015SOL    HW2 4943   7.544   6.348  14.646
 1016SOL     OW 4944  13.915  14.843   2.715
 1016SOL    HW1 4945  13.969   0.034   2.700
 1016SOL    HW2 4946  13.978  14.772   2.728
 1017SOL     OW 4947   7.565   4.738   1.676
 1017SOL    HW1 4948   7.473   4.722   1.654
 1017SOL    HW2 4949   7.561   4.795   1.753
 1018SOL     OW 4950   6.206  14.848  12.085
 1018SOL    HW1 4951   6.189  14.836  12.178
 1018SOL    HW2 4952   6.274   0.027  12.081
 1019SOL     OW 4953   6.287   5.331   5.343
 1019SOL    HW1 4954   6.310   5.411   5.295
 1019SOL    HW2 4955   6.353   5.326   5.413
 1020SOL     OW 4956  10.340   1.441   1.037
 1020SOL    HW1 4957  10.301   1.480   0.958
 1020SOL    HW2 4958  10.410   1.501   1.062
 1021SOL     OW 4959   8.083   9.097   1.834
 1021SOL    HW1 4960   8.110   9.126   1.747
 1021SOL    HW2 4961   8.002   9.144   1.851
 1022SOL     OW 4962   3.316   2.325  12.516
 1022SOL    HW1 4963   3.403   2.284  12.522
 1022SOL    HW2 4964   3.322   2.401  12.574
 1023SOL     OW 4965   4.796   9.387  12.767
 1023SOL    HW1 4966   4.831   9.452  12.706
 1023SOL    HW2 4967   4.854   9.392  12.843
 1024SOL     OW 4968   0.562   6.894   1.093
 1024SOL    HW1 4969   0.507   6.924   1.165
 1024SOL    HW2 4970   0.555   6.798   1.097
 1025SOL     OW 4971  12.314   9.324   5.298
 1025SOL    HW1 4972  12.271   9.246   5.262
 1025SOL    HW2 4973  12.333   9.377   5.221
 1026SOL     OW 4974   7.961   5.749   3.744
 1026SOL    HW1 4975   7.971   5.727   3.652
 1026SOL    HW2 4976   8.009   5.832   3.754
 1027SOL     OW 4977  12.791  11.733   0.902
 1027SOL    HW1 4978  12.847  11.695   0.834
 1027SOL    HW2 4979  12.732  11.662   0.927
 1028SOL     OW 4980  12.566   6.214   5.969
 1028SOL    HW1 4981  12.641   6.251   5.922
 1028SOL    HW2 4982  12.490   6.256   5.930
 1029SOL     OW 4983   4.951   5.295   0.932
 1029SOL    HW1 4984   4.914   5.350   0.863
 1029SOL    HW2 4985   4.915   5.208   0.916
 1030SOL     OW 4986  10.061   2.821   6.711
 1030SOL    HW1 4987  10.142   2.827   6.761
 1030SOL    HW2 4988  10.089   2.811   6.620
 1031SOL     OW 4989   4.992  10.993   2.462
 1031SOL    HW1 4990   5.084  11.015   2.480
 1031SOL    HW2 4991   4.977  10.912   2.511
 1032SOL     OW 4992  12.284   1.795   4.895
 1032SOL    HW1 4993  12.279   1.781   4.800
 1032SOL    HW2 4994  12.377   1.806   4.912
 1033SOL     OW 4995   3.518  11.327   8.681
 1033SOL    HW1 4996   3.542  11.321   8.773
 1033SOL    HW2 4997   3.423  11.339   8.682
 1034SOL     OW 4998   4.574   9.595   5.454
 1034SOL    HW1 4999   4.650   9.588   5.511
 1034SOL    HW2 5000   4.562   9.690   5.442
 1035SOL     OW 5001   0.828  11.709   4.927
 1035SOL    HW1 5002   0.733  11.718   4.934
 1035SOL    HW2 5003   0.863  11.772   4.990
 1036SOL     OW 5004  11.208   9.473   6.457
 1036SOL    HW1 5005  11.182   9.559   6.492
 1036SOL    HW2 5006  11.296   9.459   6.492
 1037SOL     OW 5007  10.989   3.557   0.034
 1037SOL    HW1 5008  10.914   3.613   0.054
 1037SOL    HW2 5009  11.064   3.616   0.029
 1038SOL     OW 5010  13.949  11.445   9.404
 1038SOL    HW1 5011  13.860  11.410   9.412
 1038SOL    HW2 5012  13.936  11.532   9.366
 1039SOL     OW 5013   5.353   5.678   7.611
 1039SOL    HW1 5014   5.419   5.610   7.627
 1039SOL    HW2 5015   5.271   5.640   7.642
 1040SOL     OW 5016  13.283  10.418   9.511
 1040SOL    HW1 5017  13.304  10.393   9.601
 1040SOL    HW2 5018  13.221  10.353   9.482
 1041SOL     OW 5019   9.786   5.915  13.027
 1041SOL    HW1 5020   9.834   5.909  12.944
 1041SOL    HW2 5021   9.695   5.897  13.003
 1042SOL     OW 5022   1.299  11.788  14.803
 1042SOL    HW1 5023   1.228  11.846  14.832
 1042SOL    HW2 5024   1.263  11.700  14.813
 1043SOL     OW 5025   7.633   1.681   1.379
 1043SOL    HW1 5026   7.569   1.741   1.417
 1043SOL    HW2 5027   7.651   1.718   1.292
 1044SOL     OW 5028  13.617  14.721   7.518
 1044SOL    HW1 5029  13.615  14.626   7.512
 1044SOL    HW2 5030  13.695  14.747   7.469
 1045SOL     OW 5031   9.325   4.392   1.912
 1045SOL    HW1 5032   9.237   4.372   1.880
 1045SOL    HW2 5033   9.380   4.325   1.871
 1046SOL     OW 5034   7.440  12.720   7.883
 1046SOL    HW1 5035   7.418  12.755   7.969
 1046SOL    HW2 5036   7.495  12.788   7.843
 1047SOL     OW 5037   3.871  11.961   5.688
 1047SOL    HW1 5038   3.909  11.921   5.766
 1047SOL    HW2 5039   3.936  12.025   5.659
 1048SOL     OW 5040  12.480   7.018   9.957
 1048SOL    HW1 5041  12.436   6.936   9.935
 1048SOL    HW2 5042  12.438   7.083   9.902
 1049SOL     OW 5043   7.585   9.988   7.140
 1049SOL    HW1 5044   7.517  10.048   7.110
 1049SOL    HW2 5045   7.571   9.980   7.234
 1050SOL     OW 5046   7.992   3.582  12.082
 1050SOL    HW1 5047   7.991   3.486  12.081
 1050SOL    HW2 5048   7.916   3.606  12.135
 1051SOL     OW 5049   6.036   1.226   8.130
 1051SOL    HW1 5050   5.978   1.156   8.159
 1051SOL    HW2 5051   6.070   1.196   8.046
 1052SOL     OW 5052  11.611   3.498   6.625
 1052SOL    HW1 5053  11.645   3.424   6.677
 1052SOL    HW2 5054  11.657   3.575   6.661
 1053SOL     OW 5055   6.433   2.547   9.425
 1053SOL    HW1 5056   6.436   2.517   9.515
 1053SOL    HW2 5057   6.520   2.528   9.390
 1054SOL     OW 5058  13.721  11.777  13.775
 1054SOL    HW1 5059  13.774  11.749  13.850
 1054SOL    HW2 5060  13.655  11.836  13.813
 1055SOL     OW 5061  13.939   6.010   1.991
 1055SOL    HW1 5062  13.878   5.936   1.998
 1055SOL    HW2 5063  14.007   5.979   1.931
 1056SOL     OW 5064  10.385  14.853   8.388
 1056SOL    HW1 5065  10.335   0.023   8.447
 1056SOL    HW2 5066  10.409  14.778   8.443
 1057SOL     OW 5067   1.437  14.460  14.615
 1057SOL    HW1 5068   1.468  14.453  14.525
 1057SOL    HW2 5069   1.491  14.398  14.664
 1058SOL     OW 5070   4.212   3.606   6.472
 1058SOL    HW1 5071   4.140   3.610   6.535
 1058SOL    HW2 5072   4.202   3.686   6.420
 1059SOL     OW 5073  13.072  10.799   2.097
 1059SOL    HW1 5074  13.085  10.760   2.183
 1059SOL    HW2 5075  13.131  10.750   2.039
 1060SOL     OW 5076  14.849   5.465   3.892
 1060SOL    HW1 5077  14.801   5.493   3.970
 1060SOL    HW2 5078  14.869   5.372   3.908
 1061SOL     OW 5079   8.577   3.812   2.287
 1061SOL    HW1 5080   8.514   3.741   2.303
 1061SOL    HW2 5081   8.624   3.785   2.209
 1062SOL     OW 5082   7.388  14.611   2.625
 1062SOL    HW1 5083   7.332  14.657   2.688
 1062SOL    HW2 5084   7.342  14.529   2.608
 1063SOL     OW 5085   3.735   6.693   3.430
 1063SOL    HW1 5086   3.642   6.689   3.452
 1063SOL    HW2 5087   3.740   6.656   3.343
 1064SOL     OW 5088   4.491  13.642  12.193
 1064SOL    HW1 5089   4.488  13.610  12.103
 1064SOL    HW2 5090   4.576  13.685  12.200
 1065SOL     OW 5091   8.540   8.983   0.583
 1065SOL    HW1 5092   8.538   8.997   0.678
 1065SOL    HW2 5093   8.608   9.043   0.552
 1066SOL     OW 5094   5.709   7.653  10.313
 1066SOL    HW1 5095   5.652   7.646  10.390
 1066SOL    HW2 5096   5.712   7.564  10.278
 1067SOL     OW 5097  14.620   2.225   4.589
 1067SOL    HW1 5098  14.638   2.319   4.582
 1067SOL    HW2 5099  14.531   2.220   4.624
 1068SOL     OW 5100   2.652   1.047   2.683
 1068SOL    HW1 5101   2.679   1.027   2.593
 1068SOL    HW2 5102   2.731   1.082   2.724
 1069SOL     OW 5103  13.116   7.738   1.192
 1069SOL    HW1 5104  13.131   7.684   1.115
 1069SOL    HW2 5105  13.031   7.709   1.226
 1070SOL     OW 5106  12.655  14.094   8.655
 1070SOL    HW1 5107  12.690  14.077   8.567
 1070SOL    HW2 5108  12.590  14.025   8.668
 1071SOL     OW 5109   2.719  11.254   0.144
 1071SOL    HW1 5110   2.734  11.161   0.125
 1071SOL    HW2 5111   2.709  11.295   0.058
 1072SOL     OW 5112   4.075   5.883   1.333
 1072SOL    HW1 5113   4.153   5.889   1.278
 1072SOL    HW2 5114   4.106   5.904   1.421
 1073SOL     OW 5115   5.739  11.070   0.382
 1073SOL    HW1 5116   5.811  11.119   0.422
 1073SOL    HW2 5117   5.782  11.000   0.334
 1074SOL     OW 5118   9.303   2.309  11.912
 1074SOL    HW1 5119   9.332   2.262  11.834
 1074SOL    HW2 5120   9.383   2.349  11.947
 1075SOL     OW 5121   4.811  14.049   3.143
 1075SOL    HW1 5122   4.857  14.111   3.200
 1075SOL    HW2 5123   4.876  13.980   3.126
 1076SOL     OW 5124   8.667   9.390   8.144
 1076SOL    HW1 5125   8.716   9.327   8.198
 1076SOL    HW2 5126   8.593   9.340   8.110
 1077SOL     OW 5127   3.821   3.174   4.523
 1077SOL    HW1 5128   3.815   3.142   4.613
 1077SOL    HW2 5129   3.804   3.096   4.469
 1078SOL     OW 5130   0.134  13.793   4.244
 1078SOL    HW1 5131   0.058  13.843   4.272
 1078SOL    HW2 5132   0.098  13.711   4.211
 1079SOL     OW 5133   0.484   2.231   4.363
 1079SOL    HW1 5134   0.399   2.207   4.327
 1079SOL    HW2 5135   0.463   2.293   4.433
 1080SOL     OW 5136  14.482  12.593   8.445
 1080SOL    HW1 5137  14.472  12.541   8.365
 1080SOL    HW2 5138  14.394  12.626   8.463
 1081SOL     OW 5139  10.328   9.143  12.586
 1081SOL    HW1 5140  10.391   9.205  12.622
 1081SOL    HW2 5141  10.263   9.198  12.542
 1082SOL     OW 5142  14.468   8.139   2.315
 1082SOL    HW1 5143  14.386   8.095   2.336
 1082SOL    HW2 5144  14.535   8.070   2.319
 1083SOL     OW 5145   2.436  11.914  12.992
 1083SOL    HW1 5146   2.514  11.949  12.948
 1083SOL    HW2 5147   2.377  11.890  12.920
 1084SOL     OW 5148  10.420   3.496   7.427
 1084SOL    HW1 5149  10.438   3.500   7.521
 1084SOL    HW2 5150  10.430   3.403   7.405
 1085SOL     OW 5151  10.816   4.388   3.851
 1085SOL    HW1 5152  10.790   4.479   3.836
 1085SOL    HW2 5153  10.805   4.375   3.945
 1086SOL     OW 5154  10.565   1.713  10.747
 1086SOL    HW1 5155  10.595   1.729  10.837
 1086SOL    HW2 5156  10.473   1.739  10.748
 1087SOL     OW 5157  13.700   4.031  10.231
 1087SOL    HW1 5158  13.683   4.067  10.144
 1087SOL    HW2 5159  13.793   4.045  10.245
 1088SOL     OW 5160   2.265   3.008  13.101
 1088SOL    HW1 5161   2.341   3.036  13.050
 1088SOL    HW2 5162   2.302   2.957  13.173
 1089SOL     OW 5163  14.723   9.629   4.091
 1089SOL    HW1 5164  14.797   9.630   4.030
 1089SOL    HW2 5165  14.694   9.720   4.095
 1090SOL     OW 5166   7.512   6.710   2.414
 1090SOL    HW1 5167   7.540   6.702   2.323
 1090SOL    HW2 5168   7.591   6.736   2.462
 1091SOL     OW 5169   8.320   0.285   2.846
 1091SOL    HW1 5170   8.395   0.283   2.786
 1091SOL    HW2 5171   8.250   0.241   2.797
 1092SOL     OW 5172   6.582  10.337   4.819
 1092SOL    HW1 5173   6.622  10.378   4.896
 1092SOL    HW2 5174   6.648  10.277   4.786
 1093SOL     OW 5175   6.432   6.455   3.783
 1093SOL    HW1 5176   6.507   6.422   3.732
 1093SOL    HW2 5177   6.472   6.508   3.852
 1094SOL     OW 5178   1.981  13.493  10.819
 1094SOL    HW1 5179   2.015  13.581  10.835
 1094SOL    HW2 5180   2.033  13.436  10.875
 1095SOL     OW 5181   4.451  14.719  13.408
 1095SOL    HW1 5182   4.517  14.750  13.345
 1095SOL    HW2 5183   4.467  14.770  13.487
 1096SOL     OW 5184  10.993  10.019  13.670
 1096SOL    HW1 5185  10.957  10.021  13.581
 1096SOL    HW2 5186  11.084   9.991  13.659
 1097SOL     OW 5187  12.552  11.487  13.576
 1097SOL    HW1 5188  12.506  11.481  13.660
 1097SOL    HW2 5189  12.568  11.396  13.551
 1098SOL     OW 5190   0.289   8.729  13.090
 1098SOL    HW1 5191   0.254   8.757  13.006
 1098SOL    HW2 5192   0.212   8.718  13.146
 1099SOL     OW 5193   0.342   8.411   6.073
 1099SOL    HW1 5194   0.349   8.503   6.046
 1099SOL    HW2 5195   0.288   8.414   6.152
 1100SOL     OW 5196   5.117   7.220   3.678
 1100SOL    HW1 5197   5.195   7.175   3.644
 1100SOL    HW2 5198   5.140   7.242   3.768
 1101SOL     OW 5199   2.613   3.096   3.547
 1101SOL    HW1 5200   2.704   3.071   3.531
 1101SOL    HW2 5201   2.599   3.077   3.640
 1102SOL     OW 5202   3.048   0.030  11.195
 1102SOL    HW1 5203   3.008   0.083  11.127
 1102SOL    HW2 5204   2.996   0.050  11.274
 1103SOL     OW 5205   9.796   5.447   4.453
 1103SOL    HW1 5206   9.781   5.403   4.369
 1103SOL    HW2 5207   9.715   5.495   4.469
 1104SOL     OW 5208   2.607   1.330   0.637
 1104SOL    HW1 5209   2.587   1.419   0.607
 1104SOL    HW2 5210   2.702   1.327   0.643
 1105SOL     OW 5211   7.640   2.078   8.624
 1105SOL    HW1 5212   7.627   1.985   8.639
 1105SOL    HW2 5213   7.605   2.121   8.702
 1106SOL     OW 5214   6.645  10.761   7.362
 1106SOL    HW1 5215   6.608  10.849   7.360
 1106SOL    HW2 5216   6.578  10.708   7.403
 1107SOL     OW 5217  12.560   2.592   9.537
 1107SOL    HW1 5218  12.507   2.593   9.458
 1107SOL    HW2 5219  12.608   2.509   9.532
 1108SOL     OW 5220  12.697  14.189   2.431
 1108SOL    HW1 5221  12.717  14.147   2.347
 1108SOL    HW2 5222  12.734  14.131   2.497
 1109SOL     OW 5223   6.665   1.250   8.177
 1109SOL    HW1 5224   6.699   1.204   8.100
 1109SOL    HW2 5225   6.678   1.188   8.249
 1110SOL     OW 5226  12.181   6.344   9.777
 1110SOL    HW1 5227  12.179   6.418   9.716
 1110SOL    HW2 5228  12.272   6.314   9.775
 1111SOL     OW 5229   3.059  13.959   3.406
 1111SOL    HW1 5230   3.027  13.891   3.346
 1111SOL    HW2 5231   3.023  14.041   3.371
 1112SOL     OW 5232   1.516  13.212  13.379
 1112SOL    HW1 5233   1.605  13.231  13.409
 1112SOL    HW2 5234   1.507  13.117  13.390
 1113SOL     OW 5235   4.839  13.002   3.919
 1113SOL    HW1 5236   4.891  12.952   3.982
 1113SOL    HW2 5237   4.895  13.076   3.896
 1114SOL     OW 5238   9.086   5.745  11.159
 1114SOL    HW1 5239   9.122   5.724  11.073
 1114SOL    HW2 5240   8.994   5.767  11.142
 1115SOL     OW 5241   9.226   7.390  11.409
 1115SOL    HW1 5242   9.153   7.431  11.454
 1115SOL    HW2 5243   9.201   7.299  11.399
 1116SOL     OW 5244  12.202  11.565  10.263
 1116SOL    HW1 5245  12.291  11.598  10.251
 1116SOL    HW2 5246  12.214  11.479  10.303
 1117SOL     OW 5247   7.871  12.209   4.169
 1117SOL    HW1 5248   7.820  12.136   4.203
 1117SOL    HW2 5249   7.898  12.181   4.081
 1118SOL     OW 5250   1.569   9.094   2.612
 1118SOL    HW1 5251   1.642   9.139   2.568
 1118SOL    HW2 5252   1.567   9.007   2.572
 1119SOL     OW 5253  11.000   0.212   8.507
 1119SOL    HW1 5254  11.005   0.295   8.460
 1119SOL    HW2 5255  10.929   0.225   8.570
 1120SOL     OW 5256  13.512   3.947  12.438
 1120SOL    HW1 5257  13.460   4.007  12.492
 1120SOL    HW2 5258  13.555   4.003  12.373
 1121SOL     OW 5259   4.306  13.159   6.316
 1121SOL    HW1 5260   4.393  13.197   6.304
 1121SOL    HW2 5261   4.298  13.094   6.246
 1122SOL     OW 5262   8.038  10.649  10.162
 1122SOL    HW1 5263   7.951  10.610  10.157
 1122SOL    HW2 5264   8.078  10.610  10.240
 1123SOL     OW 5265   0.299   8.869  12.605
 1123SOL    HW1 5266   0.380   8.891  12.651
 1123SOL    HW2 5267   0.327   8.838  12.519
 1124SOL     OW 5268   5.398   4.550   6.574
 1124SOL    HW1 5269   5.448   4.471   6.592
 1124SOL    HW2 5270   5.351   4.531   6.493
 1125SOL     OW 5271  12.572   0.040   4.524
 1125SOL    HW1 5272  12.587   0.131   4.499
 1125SOL    HW2 5273  12.530   0.000   4.447
 1126SOL     OW 5274   6.170  10.355   6.580
 1126SOL    HW1 5275   6.235  10.423   6.598
 1126SOL    HW2 5276   6.086  10.399   6.590
 1127SOL     OW 5277   7.952  11.799  12.848
 1127SOL    HW1 5278   8.014  11.747  12.797
 1127SOL    HW2 5279   8.001  11.878  12.872
 1128SOL     OW 5280   6.218   0.575  11.187
 1128SOL    HW1 5281   6.124   0.592  11.186
 1128SOL    HW2 5282   6.252   0.628  11.260
 1129SOL     OW 5283  13.463   8.192   5.708
 1129SOL    HW1 5284  13.430   8.124   5.766
 1129SOL    HW2 5285  13.554   8.206   5.736
 1130SOL     OW 5286  14.028  10.418   1.733
 1130SOL    HW1 5287  13.947  10.380   1.698
 1130SOL    HW2 5288  14.051  10.362   1.806
 1131SOL     OW 5289  13.067   8.196   1.485
 1131SOL    HW1 5290  13.091   8.118   1.435
 1131SOL    HW2 5291  13.058   8.265   1.419
 1132SOL     OW 5292   0.792  10.627   3.909
 1132SOL    HW1 5293   0.813  10.705   3.858
 1132SOL    HW2 5294   0.704  10.644   3.944
 1133SOL     OW 5295   0.728  12.648  11.144
 1133SOL    HW1 5296   0.792  12.671  11.077
 1133SOL    HW2 5297   0.765  12.682  11.225
 1134SOL     OW 5298   7.828  14.523  12.547
 1134SOL    HW1 5299   7.746  14.573  12.551
 1134SOL    HW2 5300   7.896  14.585  12.572
 1135SOL     OW 5301   0.847   1.025   3.187
 1135SOL    HW1 5302   0.832   0.931   3.177
 1135SOL    HW2 5303   0.941   1.035   3.174
 1136SOL     OW 5304   8.519   5.256   4.344
 1136SOL    HW1 5305   8.450   5.190   4.345
 1136SOL    HW2 5306   8.476   5.336   4.372
 1137SOL     OW 5307   9.739  13.873  14.138
 1137SOL    HW1 5308   9.720  13.828  14.055
 1137SOL    HW2 5309   9.777  13.805  14.194
 1138SOL     OW 5310   9.324  13.944  10.034
 1138SOL    HW1 5311   9.360  14.020   9.989
 1138SOL    HW2 5312   9.372  13.869   9.996
 1139SOL     OW 5313   2.829  14.358  11.655
 1139SOL    HW1 5314   2.850  14.420  11.725
 1139SOL    HW2 5315   2.856  14.402  11.574
 1140SOL     OW 5316   0.873   3.812   1.703
 1140SOL    HW1 5317   0.836   3.788   1.788
 1140SOL    HW2 5318   0.948   3.754   1.692
 1141SOL     OW 5319   5.915   7.022  12.436
 1141SOL    HW1 5320   5.844   6.986  12.383
 1141SOL    HW2 5321   5.902   7.117  12.433
 1142SOL     OW 5322  12.765   7.113   9.836
 1142SOL    HW1 5323  12.829   7.127   9.906
 1142SOL    HW2 5324  12.752   7.019   9.832
 1143SOL     OW 5325   2.666   1.954   8.165
 1143SOL    HW1 5326   2.707   2.038   8.186
 1143SOL    HW2 5327   2.736   1.900   8.128
 1144SOL     OW 5328  10.630   3.141  12.343
 1144SOL    HW1 5329  10.619   3.198  12.419
 1144SOL    HW2 5330  10.685   3.069  12.375
 1145SOL     OW 5331  12.853   0.094   4.488
 1145SOL    HW1 5332  12.902   0.013   4.475
 1145SOL    HW2 5333  12.764   0.066   4.509
 1146SOL     OW 5334   0.472  13.768  10.020
 1146SOL    HW1 5335   0.423  13.704  10.070
 1146SOL    HW2 5336   0.460  13.850  10.068
 1147SOL     OW 5337   3.782   4.569  11.100
 1147SOL    HW1 5338   3.754   4.504  11.036
 1147SOL    HW2 5339   3.864   4.535  11.136
 1148SOL     OW 5340  10.743   6.619   2.145
 1148SOL    HW1 5341  10.765   6.704   2.184
 1148SOL    HW2 5342  10.650   6.627   2.122
 1149SOL     OW 5343   4.011   4.903  14.820
 1149SOL    HW1 5344   4.069   4.830  14.799
 1149SOL    HW2 5345   4.050   4.943   0.010
 1150SOL     OW 5346  10.101   9.099   4.056
 1150SOL    HW1 5347  10.154   9.179   4.068
 1150SOL    HW2 5348  10.022   9.130   4.012
 1151SOL     OW 5349  13.901  12.293   3.579
 1151SOL    HW1 5350  13.872  12.286   3.670
 1151SOL    HW2 5351  13.860  12.374   3.547
 1152SOL     OW 5352   6.605   0.385   4.586
 1152SOL    HW1 5353   6.535   0.404   4.525
 1152SOL    HW2 5354   6.562   0.379   4.671
 1153SOL     OW 5355  12.753   6.660  10.025
 1153SOL    HW1 5356  12.674   6.665  10.078
 1153SOL    HW2 5357  12.736   6.589   9.963
 1154SOL     OW 5358   2.967  12.507  10.553
 1154SOL    HW1 5359   3.049  12.473  10.589
 1154SOL    HW2 5360   2.948  12.451  10.478
 1155SOL     OW 5361   7.525  12.896  11.263
 1155SOL    HW1 5362   7.561  12.860  11.182
 1155SOL    HW2 5363   7.476  12.824  11.302
 1156SOL     OW 5364   6.962   2.589   2.692
 1156SOL    HW1 5365   6.951   2.615   2.601
 1156SOL    HW2 5366   6.969   2.672   2.740
 1157SOL     OW 5367  13.300   2.466   3.976
 1157SOL    HW1 5368  13.380   2.507   4.010
 1157SOL    HW2 5369  13.250   2.442   4.055
 1158SOL     OW 5370   1.291   4.715   5.953
 1158SOL    HW1 5371   1.260   4.628   5.978
 1158SOL    HW2 5372   1.258   4.728   5.864
 1159SOL     OW 5373   2.464   0.527   9.988
 1159SOL    HW1 5374   2.520   0.595   9.951
 1159SOL    HW2 5375   2.516   0.447   9.981
 1160SOL     OW 5376   3.722   6.924   8.045
 1160SOL    HW1 5377   3.704   6.931   8.139
 1160SOL    HW2 5378   3.812   6.954   8.036
 1161SOL     OW 5379  14.767  14.686   2.058
 1161SOL    HW1 5380  14.676  14.711   2.073
 1161SOL    HW2 5381  14.791  14.634   2.135
 1162SOL     OW 5382   3.757   7.886   6.558
 1162SOL    HW1 5383   3.720   7.951   6.498
 1162SOL    HW2 5384   3.851   7.905   6.558
 1163SOL     OW 5385   3.368  13.891  12.268
 1163SOL    HW1 5386   3.368  13.980  12.303
 1163SOL    HW2 5387   3.276  13.875  12.245
 1164SOL     OW 5388   8.610   1.191   1.577
 1164SOL    HW1 5389   8.578   1.102   1.561
 1164SOL    HW2 5390   8.546   1.229   1.639
 1165SOL     OW 5391  11.940   1.850   6.274
 1165SOL    HW1 5392  11.989   1.812   6.347
 1165SOL    HW2 5393  11.992   1.830   6.196
 1166SOL     OW 5394   8.927   0.483  13.877
 1166SOL    HW1 5395   9.000   0.540  13.853
 1166SOL    HW2 5396   8.969   0.406  13.914
 1167SOL     OW 5397   9.351   3.434  12.489
 1167SOL    HW1 5398   9.409   3.360  12.505
 1167SOL    HW2 5399   9.268   3.395  12.462
 1168SOL     OW 5400  14.065  12.796   5.292
 1168SOL    HW1 5401  13.993  12.811   5.231
 1168SOL    HW2 5402  14.141  12.837   5.250
 1169SOL     OW 5403   8.314   3.408  12.942
 1169SOL    HW1 5404   8.221   3.400  12.965
 1169SOL    HW2 5405   8.358   3.341  12.994
 1170SOL     OW 5406   0.127   6.452   4.116
 1170SOL    HW1 5407   0.077   6.434   4.036
 1170SOL    HW2 5408   0.126   6.368   4.163
 1171SOL     OW 5409  12.631   9.851   0.853
 1171SOL    HW1 5410  12.723   9.855   0.878
 1171SOL    HW2 5411  12.586   9.820   0.931
 1172SOL     OW 5412   8.598   3.373  14.810
 1172SOL    HW1 5413   8.617   3.279  14.811
 1172SOL    HW2 5414   8.669   3.413  14.860
 1173SOL     OW 5415   7.687  11.973   8.294
 1173SOL    HW1 5416   7.722  12.016   8.372
 1173SOL    HW2 5417   7.602  12.016   8.279
 1174SOL     OW 5418  11.916   4.498   6.375
 1174SOL    HW1 5419  11.858   4.436   6.419
 1174SOL    HW2 5420  12.003   4.476   6.407
 1175SOL     OW 5421  10.472  11.165  11.599
 1175SOL    HW1 5422  10.441  11.108  11.528
 1175SOL    HW2 5423  10.548  11.119  11.634
 1176SOL     OW 5424   2.307   0.338   6.743
 1176SOL    HW1 5425   2.334   0.421   6.703
 1176SOL    HW2 5426   2.222   0.358   6.782
 1177SOL     OW 5427   9.940  14.046   2.827
 1177SOL    HW1 5428   9.949  14.056   2.921
 1177SOL    HW2 5429  10.016  14.091   2.790
 1178SOL     OW 5430   5.557   6.963  13.747
 1178SOL    HW1 5431   5.587   7.053  13.748
 1178SOL    HW2 5432   5.532   6.946  13.656
 1179SOL     OW 5433  14.448   3.292  12.006
 1179SOL    HW1 5434  14.512   3.267  12.073
 1179SOL    HW2 5435  14.383   3.344  12.053
 1180SOL     OW 5436   9.873   9.825  14.575
 1180SOL    HW1 5437   9.793   9.796  14.618
 1180SOL    HW2 5438   9.943   9.800  14.635
 1181SOL     OW 5439   7.419  10.238   8.144
 1181SOL    HW1 5440   7.513  10.239   8.165
 1181SOL    HW2 5441   7.380  10.296   8.210
 1182SOL     OW 5442   1.245   8.371   9.581
 1182SOL    HW1 5443   1.292   8.336   9.657
 1182SOL    HW2 5444   1.154   8.344   9.594
 1183SOL     OW 5445   3.477  11.293  13.201
 1183SOL    HW1 5446   3.391  11.312  13.161
 1183SOL    HW2 5447   3.516  11.228  13.142
 1184SOL     OW 5448   8.484   1.373  10.748
 1184SOL    HW1 5449   8.528   1.294  10.717
 1184SOL    HW2 5450   8.434   1.345  10.825
 1185SOL     OW 5451   1.239   5.551   0.822
 1185SOL    HW1 5452   1.304   5.617   0.800
 1185SOL    HW2 5453   1.156   5.589   0.794
 1186SOL     OW 5454  10.381   2.960   8.666
 1186SOL    HW1 5455  10.318   2.892   8.694
 1186SOL    HW2 5456  10.435   2.975   8.744
 1187SOL     OW 5457   5.823   2.659  11.186
 1187SOL    HW1 5458   5.772   2.682  11.108
 1187SOL    HW2 5459   5.888   2.597  11.155
 1188SOL     OW 5460  14.442   0.636   7.250
 1188SOL    HW1 5461  14.376   0.646   7.182
 1188SOL    HW2 5462  14.453   0.542   7.259
 1189SOL     OW 5463   5.750   0.207   8.074
 1189SOL    HW1 5464   5.656   0.202   8.057
 1189SOL    HW2 5465   5.782   0.270   8.009
 1190SOL     OW 5466   0.553  10.163  10.424
 1190SOL    HW1 5467   0.541  10.193  10.335
 1190SOL    HW2 5468   0.565  10.243  10.476
 1191SOL     OW 5469   1.639   1.901   6.968
 1191SOL    HW1 5470   1.548   1.911   6.938
 1191SOL    HW2 5471   1.643   1.954   7.048
 1192SOL     OW 5472  13.230  14.059   9.697
 1192SOL    HW1 5473  13.287  14.093   9.766
 1192SOL    HW2 5474  13.214  13.968   9.721
 1193SOL     OW 5475   9.864   6.212   8.582
 1193SOL    HW1 5476   9.886   6.132   8.630
 1193SOL    HW2 5477   9.932   6.219   8.515
 1194SOL     OW 5478   3.969  14.064  13.027
 1194SOL    HW1 5479   3.972  13.989  13.087
 1194SOL    HW2 5480   4.004  14.030  12.945
 1195SOL     OW 5481  11.071   8.421   8.719
 1195SOL    HW1 5482  11.055   8.330   8.746
 1195SOL    HW2 5483  11.105   8.413   8.630
 1196SOL     OW 5484   3.721   4.337  10.928
 1196SOL    HW1 5485   3.696   4.357  10.837
 1196SOL    HW2 5486   3.642   4.300  10.967
 1197SOL     OW 5487   7.244  14.629   5.081
 1197SOL    HW1 5488   7.327  14.583   5.068
 1197SOL    HW2 5489   7.263  14.696   5.147
 1198SOL     OW 5490  10.504   5.469  11.697
 1198SOL    HW1 5491  10.549   5.460  11.782
 1198SOL    HW2 5492  10.553   5.411  11.639
 1199SOL     OW 5493   4.991   7.517  13.954
 1199SOL    HW1 5494   5.044   7.446  13.917
 1199SOL    HW2 5495   4.906   7.476  13.973
 1200SOL     OW 5496   2.495  13.485   4.229
 1200SOL    HW1 5497   2.536  13.419   4.284
 1200SOL    HW2 5498   2.441  13.435   4.167
 1201SOL     OW 5499  12.774  12.792   4.388
 1201SOL    HW1 5500  12.725  12.783   4.306
 1201SOL    HW2 5501  12.845  12.853   4.368
 1202SOL     OW 5502   6.226   3.167   0.975
 1202SOL    HW1 5503   6.260   3.248   0.936
 1202SOL    HW2 5504   6.149   3.195   1.024
 1203SOL     OW 5505  12.654   7.139   4.020
 1203SOL    HW1 5506  12.654   7.119   4.114
 1203SOL    HW2 5507  12.597   7.216   4.013
 1204SOL     OW 5508  11.934   0.786   2.323
 1204SOL    HW1 5509  11.992   0.771   2.248
 1204SOL    HW2 5510  11.852   0.817   2.284
 1205SOL     OW 5511  13.035  13.955  14.545
 1205SOL    HW1 5512  13.067  13.959  14.455
 1205SOL    HW2 5513  12.960  14.015  14.545
 1206SOL     OW 5514   7.671  10.176   2.939
 1206SOL    HW1 5515   7.754  10.153   2.979
 1206SOL    HW2 5516   7.655  10.107   2.875
 1207SOL     OW 5517   3.952   5.255   4.412
 1207SOL    HW1 5518   3.940   5.270   4.506
 1207SOL    HW2 5519   3.888   5.187   4.391
 1208SOL     OW 5520  13.947   1.831  10.011
 1208SOL    HW1 5521  13.870   1.877   9.978
 1208SOL    HW2 5522  13.983   1.787   9.934
 1209SOL     OW 5523   2.341   4.413  10.496
 1209SOL    HW1 5524   2.256   4.440  10.462
 1209SOL    HW2 5525   2.322   4.376  10.582
 1210SOL     OW 5526  11.022   1.864   0.651
 1210SOL    HW1 5527  10.975   1.947   0.647
 1210SOL    HW2 5528  10.955   1.798   0.667
 1211SOL     OW 5529   5.814   1.425  12.257
 1211SOL    HW1 5530   5.845   1.471  12.335
 1211SOL    HW2 5531   5.719   1.419  12.269
 1212SOL     OW 5532   8.872   8.791  14.380
 1212SOL    HW1 5533   8.874   8.844  14.300
 1212SOL    HW2 5534   8.938   8.723  14.365
 1213SOL     OW 5535   4.592   4.422   1.222
 1213SOL    HW1 5536   4.668   4.473   1.252
 1213SOL    HW2 5537   4.564   4.466   1.142
 1214SOL     OW 5538  14.059  12.350  12.209
 1214SOL    HW1 5539  13.989  12.415  12.216
 1214SOL    HW2 5540  14.013  12.266  12.207
 1215SOL     OW 5541  14.742   5.522   2.739
 1215SOL    HW1 5542  14.744   5.428   2.757
 1215SOL    HW2 5543  14.764   5.528   2.646
 1216SOL     OW 5544  10.763   3.853   1.809
 1216SOL    HW1 5545  10.750   3.897   1.893
 1216SOL    HW2 5546  10.679   3.863   1.764
 1217SOL     OW 5547  14.767   6.204   4.742
 1217SOL    HW1 5548  14.855   6.237   4.760
 1217SOL    HW2 5549  14.715   6.282   4.726
 1218SOL     OW 5550   9.227   3.260  12.087
 1218SOL    HW1 5551   9.153   3.322  12.080
 1218SOL    HW2 5552   9.186   3.174  12.086
 1219SOL     OW 5553   1.927  11.272   8.487
 1219SOL    HW1 5554   1.891  11.211   8.422
 1219SOL    HW2 5555   1.998  11.316   8.441
 1220SOL     OW 5556   6.044   8.254  10.062
 1220SOL    HW1 5557   5.961   8.285  10.026
 1220SOL    HW2 5558   6.020   8.207  10.142
 1221SOL     OW 5559  12.434  11.952   7.231
 1221SOL    HW1 5560  12.385  11.896   7.291
 1221SOL    HW2 5561  12.399  11.932   7.144
 1222SOL     OW 5562   9.756  11.981  10.348
 1222SOL    HW1 5563   9.801  11.912  10.397
 1222SOL    HW2 5564   9.706  12.029  10.415
 1223SOL     OW 5565  12.547   2.593   4.083
 1223SOL    HW1 5566  12.525   2.500   4.080
 1223SOL    HW2 5567  12.536   2.617   4.175
 1224SOL     OW 5568   2.816   5.731   6.244
 1224SOL    HW1 5569   2.866   5.778   6.311
 1224SOL    HW2 5570   2.737   5.783   6.232
 1225SOL     OW 5571   9.417   2.263   7.740
 1225SOL    HW1 5572   9.333   2.276   7.698
 1225SOL    HW2 5573   9.428   2.339   7.797
 1226SOL     OW 5574   7.037  11.269  13.999
 1226SOL    HW1 5575   6.957  11.317  13.977
 1226SOL    HW2 5576   7.102  11.337  14.015
 1227SOL     OW 5577   6.879   9.086   6.153
 1227SOL    HW1 5578   6.860   9.065   6.245
 1227SOL    HW2 5579   6.951   9.148   6.157
 1228SOL     OW 5580   5.279   2.950   6.317
 1228SOL    HW1 5581   5.209   2.932   6.253
 1228SOL    HW2 5582   5.355   2.904   6.283
 1229SOL     OW 5583   9.212   2.758   2.332
 1229SOL    HW1 5584   9.233   2.686   2.273
 1229SOL    HW2 5585   9.170   2.824   2.275
 1230SOL     OW 5586   6.839   6.326   5.692
 1230SOL    HW1 5587   6.768   6.271   5.724
 1230SOL    HW2 5588   6.896   6.267   5.643
 1231SOL     OW 5589   9.734  11.363   9.492
 1231SOL    HW1 5590   9.755  11.387   9.583
 1231SOL    HW2 5591   9.657  11.417   9.471
 1232SOL     OW 5592   5.137   0.268   8.692
 1232SOL    HW1 5593   5.075   0.283   8.763
 1232SOL    HW2 5594   5.154   0.174   8.696
 1233SOL     OW 5595  10.573  12.902  13.208
 1233SOL    HW1 5596  10.556  12.952  13.287
 1233SOL    HW2 5597  10.505  12.931  13.146
 1234SOL     OW 5598  14.861   4.077   0.868
 1234SOL    HW1 5599  14.806   4.154   0.883
 1234SOL    HW2 5600   0.039   4.080   0.937
 1235SOL     OW 5601  10.264   7.698  10.073
 1235SOL    HW1 5602  10.200   7.763  10.103
 1235SOL    HW2 5603  10.217   7.647  10.007
 1236SOL     OW 5604   1.236   7.706   6.854
 1236SOL    HW1 5605   1.264   7.628   6.807
 1236SOL    HW2 5606   1.240   7.776   6.789
 1237SOL     OW 5607   0.616   2.033  12.661
 1237SOL    HW1 5608   0.685   2.024  12.595
 1237SOL    HW2 5609   0.558   1.959  12.645
 1238SOL     OW 5610   0.385   5.973   2.966
 1238SOL    HW1 5611   0.403   5.882   2.989
 1238SOL    HW2 5612   0.434   5.988   2.885
 1239SOL     OW 5613   0.017   2.772  14.441
 1239SOL    HW1 5614   0.112   2.783  14.447
 1239SOL    HW2 5615   0.005   2.712  14.368
 1240SOL     OW 5616   5.138  10.086   0.487
 1240SOL    HW1 5617   5.147   9.991   0.499
 1240SOL    HW2 5618   5.209  10.123   0.539
 1241SOL     OW 5619  11.652   5.749   1.274
 1241SOL    HW1 5620  11.679   5.666   1.236
 1241SOL    HW2 5621  11.676   5.743   1.366
 1242SOL     OW 5622   1.059   3.177  11.963
 1242SOL    HW1 5623   1.083   3.117  11.893
 1242SOL    HW2 5624   1.137   3.230  11.977
 1243SOL     OW 5625   9.889  14.375  14.621
 1243SOL    HW1 5626   9.842  14.443  14.669
 1243SOL    HW2 5627   9.822  14.334  14.567
 1244SOL     OW 5628   3.972   4.340  14.251
 1244SOL    HW1 5629   4.053   4.362  14.298
 1244SOL    HW2 5630   3.939   4.424  14.219
 1245SOL     OW 5631   2.948  11.941   0.112
 1245SOL    HW1 5632   2.857  11.911   0.110
 1245SOL    HW2 5633   2.972  11.951   0.019
 1246SOL     OW 5634   0.292  12.211   6.295
 1246SOL    HW1 5635   0.297  12.281   6.360
 1246SOL    HW2 5636   0.225  12.240   6.234
 1247SOL     OW 5637   9.761   8.726   7.465
 1247SOL    HW1 5638   9.708   8.795   7.504
 1247SOL    HW2 5639   9.732   8.721   7.374
 1248SOL     OW 5640   4.900   7.273   2.697
 1248SOL    HW1 5641   4.884   7.355   2.744
 1248SOL    HW2 5642   4.813   7.233   2.688
 1249SOL     OW 5643   7.678   9.122  12.233
 1249SOL    HW1 5644   7.759   9.140  12.282
 1249SOL    HW2 5645   7.653   9.034  12.261
 1250SOL     OW 5646  14.731  10.461  13.738
 1250SOL    HW1 5647  14.637  10.476  13.744
 1250SOL    HW2 5648  14.764  10.533  13.685
 1251SOL     OW 5649  14.760   4.723   3.330
 1251SOL    HW1 5650  14.682   4.748   3.379
 1251SOL    HW2 5651  14.785   4.802   3.284
 1252SOL     OW 5652   7.867   0.830   3.012
 1252SOL    HW1 5653   7.811   0.856   3.085
 1252SOL    HW2 5654   7.847   0.893   2.942
 1253SOL     OW 5655  13.921  10.374  13.051
 1253SOL    HW1 5656  13.994  10.379  13.114
 1253SOL    HW2 5657  13.895  10.282  13.051
 1254SOL     OW 5658   2.361   6.942   9.546
 1254SOL    HW1 5659   2.394   6.938   9.636
 1254SOL    HW2 5660   2.438   6.960   9.493
 1255SOL     OW 5661  13.603  11.149  13.254
 1255SOL    HW1 5662  13.593  11.237  13.216
 1255SOL    HW2 5663  13.659  11.103  13.192
 1256SOL     OW 5664  10.250  11.774   4.029
 1256SOL    HW1 5665  10.262  11.768   4.124
 1256SOL    HW2 5666  10.318  11.717   3.993
 1257SOL     OW 5667   3.959  14.718   8.372
 1257SOL    HW1 5668   3.867  14.742   8.378
 1257SOL    HW2 5669   4.004  14.801   8.352
 1258SOL     OW 5670   0.875   8.516  10.556
 1258SOL    HW1 5671   0.810   8.447  10.565
 1258SOL    HW2 5672   0.844   8.569  10.483
 1259SOL     OW 5673   8.275   9.801   5.705
 1259SOL    HW1 5674   8.217   9.772   5.634
 1259SOL    HW2 5675   8.316   9.880   5.671
 1260SOL     OW 5676   2.611  11.013  14.660
 1260SOL    HW1 5677   2.590  10.919  14.658
 1260SOL    HW2 5678   2.543  11.054  14.607
 1261SOL     OW 5679  13.803   6.054  12.727
 1261SOL    HW1 5680  13.734   6.074  12.790
 1261SOL    HW2 5681  13.862   5.996  12.775
 1262SOL     OW 5682   3.189   7.218  12.017
 1262SOL    HW1 5683   3.245   7.155  12.063
 1262SOL    HW2 5684   3.245   7.294  12.002
 1263SOL     OW 5685   1.126   1.742  13.322
 1263SOL    HW1 5686   1.106   1.816  13.379
 1263SOL    HW2 5687   1.161   1.675  13.380
 1264SOL     OW 5688   9.142   7.559   5.288
 1264SOL    HW1 5689   9.209   7.565   5.221
 1264SOL    HW2 5690   9.108   7.648   5.296
 1265SOL     OW 5691  11.039   3.013   2.423
 1265SOL    HW1 5692  11.067   3.006   2.331
 1265SOL    HW2 5693  11.116   2.985   2.473
 1266SOL     OW 5694  11.673   6.778   5.649
 1266SOL    HW1 5695  11.606   6.742   5.707
 1266SOL    HW2 5696  11.702   6.858   5.693
 1267SOL     OW 5697   4.570   4.194   2.479
 1267SOL    HW1 5698   4.615   4.111   2.464
 1267SOL    HW2 5699   4.590   4.247   2.402
 1268SOL     OW 5700   3.084   2.274  10.147
 1268SOL    HW1 5701   3.137   2.351  10.124
 1268SOL    HW2 5702   3.063   2.233  10.063
 1269SOL     OW 5703  10.058   2.042   4.491
 1269SOL    HW1 5704  10.084   2.110   4.553
 1269SOL    HW2 5705  10.022   2.089   4.416
 1270SOL     OW 5706   7.166  13.610   2.764
 1270SOL    HW1 5707   7.128  13.567   2.841
 1270SOL    HW2 5708   7.228  13.673   2.799
 1271SOL     OW 5709  11.934   7.938  10.976
 1271SOL    HW1 5710  11.945   7.843  10.978
 1271SOL    HW2 5711  11.889   7.958  11.058
 1272SOL     OW 5712   4.590  14.470   8.286
 1272SOL    HW1 5713   4.621  14.394   8.237
 1272SOL    HW2 5714   4.650  14.540   8.262
 1273SOL     OW 5715  10.220  12.668   6.966
 1273SOL    HW1 5716  10.133  12.664   6.926
 1273SOL    HW2 5717  10.267  12.733   6.915
 1274SOL     OW 5718  10.376   7.605   3.906
 1274SOL    HW1 5719  10.349   7.695   3.928
 1274SOL    HW2 5720  10.389   7.607   3.812
 1275SOL     OW 5721   0.566   6.438   2.992
 1275SOL    HW1 5722   0.553   6.375   3.063
 1275SOL    HW2 5723   0.556   6.523   3.033
 1276SOL     OW 5724  11.518   4.991  13.498
 1276SOL    HW1 5725  11.493   4.914  13.446
 1276SOL    HW2 5726  11.529   5.061  13.433
 1277SOL     OW 5727   2.857  11.042   6.619
 1277SOL    HW1 5728   2.848  11.049   6.714
 1277SOL    HW2 5729   2.907  11.119   6.594
 1278SOL     OW 5730  11.746   4.395   8.694
 1278SOL    HW1 5731  11.651   4.407   8.687
 1278SOL    HW2 5732  11.758   4.347   8.776
 1279SOL     OW 5733   6.078  11.666   0.818
 1279SOL    HW1 5734   6.030  11.593   0.857
 1279SOL    HW2 5735   6.101  11.635   0.730
 1280SOL     OW 5736  12.776   3.978  11.978
 1280SOL    HW1 5737  12.796   4.071  11.975
 1280SOL    HW2 5738  12.696   3.969  11.927
 1281SOL     OW 5739   4.545   2.162  14.752
 1281SOL    HW1 5740   4.510   2.249  14.736
 1281SOL    HW2 5741   4.546   2.154  14.847
 1282SOL     OW 5742  12.747   7.319   8.631
 1282SOL    HW1 5743  12.694   7.280   8.700
 1282SOL    HW2 5744  12.799   7.246   8.597
 1283SOL     OW 5745   4.234  14.445   2.709
 1283SOL    HW1 5746   4.165  14.393   2.669
 1283SOL    HW2 5747   4.287  14.381   2.756
 1284SOL     OW 5748   4.929  11.827  12.999
 1284SOL    HW1 5749   4.969  11.908  13.030
 1284SOL    HW2 5750   4.983  11.758  13.035
 1285SOL     OW 5751   2.436   2.594   6.351
 1285SOL    HW1 5752   2.391   2.675   6.324
 1285SOL    HW2 5753   2.472   2.558   6.270
 1286SOL     OW 5754   8.018  10.192   6.131
 1286SOL    HW1 5755   7.951  10.250   6.095
 1286SOL    HW2 5756   7.976  10.149   6.205
 1287SOL     OW 5757   0.909   0.625   0.570
 1287SOL    HW1 5758   0.979   0.561   0.555
 1287SOL    HW2 5759   0.847   0.610   0.499
 1288SOL     OW 5760   2.178  12.259  10.138
 1288SOL    HW1 5761   2.204  12.167  10.131
 1288SOL    HW2 5762   2.089  12.257  10.174
 1289SOL     OW 5763  12.280  14.385  14.734
 1289SOL    HW1 5764  12.297  14.302  14.778
 1289SOL    HW2 5765  12.233  14.360  14.654
 1290SOL     OW 5766  14.578   0.311  14.066
 1290SOL    HW1 5767  14.595   0.396  14.025
 1290SOL    HW2 5768  14.537   0.259  13.997
 1291SOL     OW 5769   2.593   1.010   1.859
 1291SOL    HW1 5770   2.642   0.971   1.931
 1291SOL    HW2 5771   2.509   1.035   1.898
 1292SOL     OW 5772   4.973   0.960  10.601
 1292SOL    HW1 5773   4.891   0.911  10.606
 1292SOL    HW2 5774   5.021   0.934  10.680
 1293SOL     OW 5775   5.027   2.786   5.225
 1293SOL    HW1 5776   4.946   2.736   5.235
 1293SOL    HW2 5777   5.004   2.875   5.249
 1294SOL     OW 5778   0.393   1.542   5.626
 1294SOL    HW1 5779   0.302   1.572   5.621
 1294SOL    HW2 5780   0.442   1.618   5.657
 1295SOL     OW 5781  11.020   4.269   0.494
 1295SOL    HW1 5782  11.030   4.181   0.530
 1295SOL    HW2 5783  10.926   4.279   0.481
 1296SOL     OW 5784   7.630   3.252   2.470
 1296SOL    HW1 5785   7.689   3.253   2.395
 1296SOL    HW2 5786   7.546   3.223   2.435
 1297SOL     OW 5787   9.814  13.784  13.665
 1297SOL    HW1 5788   9.765  13.782  13.582
 1297SOL    HW2 5789   9.868  13.863  13.659
 1298SOL     OW 5790   1.388  14.000   4.819
 1298SOL    HW1 5791   1.420  13.989   4.908
 1298SOL    HW2 5792   1.436  14.076   4.786
 1299SOL     OW 5793  12.056   1.567   6.103
 1299SOL    HW1 5794  12.013   1.517   6.034
 1299SOL    HW2 5795  12.019   1.532   6.185
 1300SOL     OW 5796  13.067  14.053   5.185
 1300SOL    HW1 5797  13.089  13.964   5.215
 1300SOL    HW2 5798  12.997  14.040   5.121
 1301SOL     OW 5799   7.295  11.780   3.183
 1301SOL    HW1 5800   7.273  11.744   3.269
 1301SOL    HW2 5801   7.252  11.866   3.182
 1302SOL     OW 5802   3.829  13.694  11.166
 1302SOL    HW1 5803   3.923  13.679  11.176
 1302SOL    HW2 5804   3.806  13.651  11.084
 1303SOL     OW 5805  14.536   2.110   8.921
 1303SOL    HW1 5806  14.453   2.150   8.894
 1303SOL    HW2 5807  14.513   2.019   8.940
 1304SOL     OW 5808  14.059  12.100   1.893
 1304SOL    HW1 5809  13.971  12.092   1.856
 1304SOL    HW2 5810  14.045  12.124   1.985
 1305SOL     OW 5811   7.542   4.699  10.853
 1305SOL    HW1 5812   7.528   4.654  10.769
 1305SOL    HW2 5813   7.584   4.633  10.909
 1306SOL     OW 5814   4.823   0.881   3.077
 1306SOL    HW1 5815   4.899   0.840   3.118
 1306SOL    HW2 5816   4.776   0.808   3.036
 1307SOL     OW 5817   7.649   3.821   1.971
 1307SOL    HW1 5818   7.691   3.735   1.976
 1307SOL    HW2 5819   7.564   3.808   2.015
 1308SOL     OW 5820  13.202   6.385   6.937
 1308SOL    HW1 5821  13.257   6.360   6.863
 1308SOL    HW2 5822  13.113   6.390   6.902
 1309SOL     OW 5823  11.561  13.024   8.820
 1309SOL    HW1 5824  11.627  13.076   8.866
 1309SOL    HW2 5825  11.599  12.936   8.815
 1310SOL     OW 5826  13.756   9.020   6.755
 1310SOL    HW1 5827  13.819   9.031   6.826
 1310SOL    HW2 5828  13.690   9.087   6.772
 1311SOL     OW 5829  13.933   0.226   4.935
 1311SOL    HW1 5830  13.986   0.242   5.013
 1311SOL    HW2 5831  13.939   0.132   4.921
 1312SOL     OW 5832  14.256  12.585  13.431
 1312SOL    HW1 5833  14.348  12.596  13.406
 1312SOL    HW2 5834  14.225  12.514  13.375
 1313SOL     OW 5835   9.878  10.393   3.826
 1313SOL    HW1 5836   9.843  10.320   3.877
 1313SOL    HW2 5837   9.895  10.461   3.891
 1314SOL     OW 5838   6.675   6.284   6.030
 1314SOL    HW1 5839   6.719   6.322   6.105
 1314SOL    HW2 5840   6.658   6.358   5.972
 1315SOL     OW 5841   9.604   8.513  12.110
 1315SOL    HW1 5842   9.623   8.481  12.022
 1315SOL    HW2 5843   9.662   8.589  12.121
 1316SOL     OW 5844  12.167   2.080   5.658
 1316SOL    HW1 5845  12.103   2.092   5.729
 1316SOL    HW2 5846  12.216   2.162   5.656
 1317SOL     OW 5847  10.335  14.637   9.631
 1317SOL    HW1 5848  10.393  14.687   9.573
 1317SOL    HW2 5849  10.366  14.656   9.719
 1318SOL     OW 5850  13.853   1.302   4.049
 1318SOL    HW1 5851  13.828   1.290   4.141
 1318SOL    HW2 5852  13.856   1.213   4.013
 1319SOL     OW 5853  10.427   6.907   8.573
 1319SOL    HW1 5854  10.466   6.854   8.503
 1319SOL    HW2 5855  10.345   6.939   8.536
 1320SOL     OW 5856   3.987   8.394  10.254
 1320SOL    HW1 5857   4.005   8.331  10.184
 1320SOL    HW2 5858   3.917   8.450  10.219
 1321SOL     OW 5859  14.251   8.235  13.411
 1321SOL    HW1 5860  14.159   8.226  13.386
 1321SOL    HW2 5861  14.262   8.174  13.483
 1322SOL     OW 5862   1.434  13.898  13.570
 1322SOL    HW1 5863   1.447  13.813  13.526
 1322SOL    HW2 5864   1.521  13.921  13.603
 1323SOL     OW 5865   3.394   7.060  14.125
 1323SOL    HW1 5866   3.323   7.110  14.084
 1323SOL    HW2 5867   3.349   7.001  14.186
 1324SOL     OW 5868   7.326   2.317   8.574
 1324SOL    HW1 5869   7.351   2.406   8.597
 1324SOL    HW2 5870   7.356   2.263   8.647
 1325SOL     OW 5871   1.684   7.911   6.552
 1325SOL    HW1 5872   1.590   7.901   6.569
 1325SOL    HW2 5873   1.724   7.920   6.638
 1326SOL     OW 5874   7.603   2.935  13.811
 1326SOL    HW1 5875   7.637   2.867  13.869
 1326SOL    HW2 5876   7.672   2.948  13.746
 1327SOL     OW 5877   7.674  13.852   6.562
 1327SOL    HW1 5878   7.703  13.856   6.653
 1327SOL    HW2 5879   7.697  13.938   6.526
 1328SOL     OW 5880   0.454   3.205   5.404
 1328SOL    HW1 5881   0.419   3.269   5.342
 1328SOL    HW2 5882   0.490   3.257   5.475
 1329SOL     OW 5883   4.423   9.074   7.590
 1329SOL    HW1 5884   4.469   9.157   7.607
 1329SOL    HW2 5885   4.414   9.034   7.677
 1330SOL     OW 5886   7.750  10.873  12.210
 1330SOL    HW1 5887   7.782  10.788  12.178
 1330SOL    HW2 5888   7.687  10.850  12.279
 1331SOL     OW 5889  14.060  11.350   2.375
 1331SOL    HW1 5890  14.065  11.432   2.424
 1331SOL    HW2 5891  14.044  11.283   2.441
 1332SOL     OW 5892   8.424   1.558   7.518
 1332SOL    HW1 5893   8.416   1.498   7.444
 1332SOL    HW2 5894   8.336   1.561   7.556
 1333SOL     OW 5895   5.012  13.822  13.197
 1333SOL    HW1 5896   4.966  13.893  13.243
 1333SOL    HW2 5897   4.942  13.769  13.160
 1334SOL     OW 5898  13.430   6.677   9.586
 1334SOL    HW1 5899  13.489   6.601   9.582
 1334SOL    HW2 5900  13.396   6.676   9.675
 1335SOL     OW 5901  11.367  12.645  13.436
 1335SOL    HW1 5902  11.318  12.580  13.386
 1335SOL    HW2 5903  11.455  12.643  13.396
 1336SOL     OW 5904   4.291   5.554  11.587
 1336SOL    HW1 5905   4.360   5.494  11.559
 1336SOL    HW2 5906   4.225   5.498  11.628
 1337SOL     OW 5907   3.004   9.543   2.281
 1337SOL    HW1 5908   2.929   9.569   2.228
 1337SOL    HW2 5909   3.016   9.450   2.262
 1338SOL     OW 5910   4.626   8.305  11.251
 1338SOL    HW1 5911   4.602   8.256  11.173
 1338SOL    HW2 5912   4.654   8.238  11.313
 1339SOL     OW 5913  11.907   8.807  10.027
 1339SOL    HW1 5914  11.974   8.856  10.074
 1339SOL    HW2 5915  11.949   8.724  10.003
 1340SOL     OW 5916  11.365   0.319   4.912
 1340SOL    HW1 5917  11.384   0.318   4.818
 1340SOL    HW2 5918  11.447   0.289   4.953
 1341SOL     OW 5919  12.375  13.640   6.434
 1341SOL    HW1 5920  12.327  13.687   6.366
 1341SOL    HW2 5921  12.345  13.680   6.516
 1342SOL     OW 5922  11.289   1.398   5.807
 1342SOL    HW1 5923  11.303   1.492   5.795
 1342SOL    HW2 5924  11.205   1.391   5.852
 1343SOL     OW 5925  11.953  12.690   2.952
 1343SOL    HW1 5926  12.036  12.722   2.987
 1343SOL    HW2 5927  11.922  12.627   3.017
 1344SOL     OW 5928   7.437  11.843   7.845
 1344SOL    HW1 5929   7.387  11.904   7.899
 1344SOL    HW2 5930   7.425  11.875   7.755
 1345SOL     OW 5931   2.447  11.203   7.265
 1345SOL    HW1 5932   2.433  11.109   7.260
 1345SOL    HW2 5933   2.460  11.231   7.174
 1346SOL     OW 5934  13.467   8.820   8.911
 1346SOL    HW1 5935  13.437   8.753   8.973
 1346SOL    HW2 5936  13.510   8.769   8.841
 1347SOL     OW 5937  13.870  14.053   4.570
 1347SOL    HW1 5938  13.880  14.040   4.665
 1347SOL    HW2 5939  13.779  14.029   4.553
 1348SOL     OW 5940   1.570   9.398  13.108
 1348SOL    HW1 5941   1.491   9.360  13.147
 1348SOL    HW2 5942   1.636   9.329  13.114
 1349SOL     OW 5943   9.904  10.231   7.794
 1349SOL    HW1 5944   9.969  10.283   7.746
 1349SOL    HW2 5945   9.956  10.169   7.845
 1350SOL     OW 5946   2.459   0.239   2.642
 1350SOL    HW1 5947   2.486   0.331   2.644
 1350SOL    HW2 5948   2.372   0.240   2.604
 1351SOL     OW 5949   5.481  10.946  10.066
 1351SOL    HW1 5950   5.438  10.919   9.985
 1351SOL    HW2 5951   5.422  10.917  10.135
 1352SOL     OW 5952  14.176   4.229   2.546
 1352SOL    HW1 5953  14.233   4.305   2.534
 1352SOL    HW2 5954  14.230   4.166   2.595
 1353SOL     OW 5955   0.002   0.403   2.722
 1353SOL    HW1 5956   0.053   0.454   2.784
 1353SOL    HW2 5957  14.805   0.390   2.765
 1354SOL     OW 5958   1.164  12.981   2.840
 1354SOL    HW1 5959   1.086  12.993   2.786
 1354SOL    HW2 5960   1.146  13.029   2.921
 1355SOL     OW 5961   4.592   1.223   4.960
 1355SOL    HW1 5962   4.662   1.189   5.016
 1355SOL    HW2 5963   4.519   1.163   4.973
 1356SOL     OW 5964   9.150   1.600   8.859
 1356SOL    HW1 5965   9.245   1.597   8.870
 1356SOL    HW2 5966   9.135   1.674   8.800
 1357SOL     OW 5967   9.399  12.475   8.783
 1357SOL    HW1 5968   9.480  12.469   8.733
 1357SOL    HW2 5969   9.346  12.402   8.751
 1358SOL     OW 5970   3.449  10.807  12.335
 1358SOL    HW1 5971   3.402  10.774  12.258
 1358SOL    HW2 5972   3.541  10.805  12.309
 1359SOL     OW 5973  11.847   1.645   2.887
 1359SOL    HW1 5974  11.832   1.665   2.794
 1359SOL    HW2 5975  11.759   1.627   2.921
 1360SOL     OW 5976  14.031   7.137   1.199
 1360SOL    HW1 5977  14.070   7.057   1.164
 1360SOL    HW2 5978  14.057   7.205   1.137
 1361SOL     OW 5979  14.247   9.992   9.701
 1361SOL    HW1 5980  14.223   9.932   9.630
 1361SOL    HW2 5981  14.208   9.953   9.780
 1362SOL     OW 5982   8.424   0.268   3.544
 1362SOL    HW1 5983   8.487   0.200   3.523
 1362SOL    HW2 5984   8.463   0.349   3.510
 1363SOL     OW 5985   5.472  10.341   1.600
 1363SOL    HW1 5986   5.404  10.286   1.561
 1363SOL    HW2 5987   5.536  10.352   1.529
 1364SOL     OW 5988  11.095  12.790   9.020
 1364SOL    HW1 5989  11.190  12.782   9.018
 1364SOL    HW2 5990  11.077  12.870   8.971
 1365SOL     OW 5991  13.301   7.881  10.910
 1365SOL    HW1 5992  13.326   7.920  10.994
 1365SOL    HW2 5993  13.285   7.956  10.852
 1366SOL     OW 5994   8.247   7.417  12.829
 1366SOL    HW1 5995   8.265   7.334  12.784
 1366SOL    HW2 5996   8.271   7.400  12.920
 1367SOL     OW 5997   2.225   2.530   0.355
 1367SOL    HW1 5998   2.221   2.614   0.310
 1367SOL    HW2 5999   2.316   2.522   0.383
 1368SOL     OW 6000   2.327   7.392   1.498
 1368SOL    HW1 6001   2.331   7.359   1.588
 1368SOL    HW2 6002   2.377   7.473   1.500
 1369SOL     OW 6003   5.211   9.030   9.213
 1369SOL    HW1 6004   5.153   9.005   9.141
 1369SOL    HW2 6005   5.220   8.951   9.266
 1370SOL     OW 6006   0.504   4.241   7.872
 1370SOL    HW1 6007   0.474   4.315   7.925
 1370SOL    HW2 6008   0.598   4.235   7.891
 1371SOL     OW 6009  11.540   2.613   8.574
 1371SOL    HW1 6010  11.585   2.556   8.512
 1371SOL    HW2 6011  11.459   2.567   8.594
 1372SOL     OW 6012   1.483  13.189  13.827
 1372SOL    HW1 6013   1.425  13.222  13.758
 1372SOL    HW2 6014   1.562  13.244  13.820
 1373SOL     OW 6015   3.922   2.203  11.956
 1373SOL    HW1 6016   3.959   2.279  12.000
 1373SOL    HW2 6017   3.948   2.213  11.864
 1374SOL     OW 6018   9.742  13.644   4.446
 1374SOL    HW1 6019   9.797  13.605   4.514
 1374SOL    HW2 6020   9.799  13.707   4.402
 1375SOL     OW 6021  14.725   9.784   9.724
 1375SOL    HW1 6022  14.819   9.768   9.714
 1375SOL    HW2 6023  14.684   9.719   9.667
 1376SOL     OW 6024   5.243  14.038   8.249
 1376SOL    HW1 6025   5.314  14.016   8.189
 1376SOL    HW2 6026   5.288  14.074   8.326
 1377SOL     OW 6027  13.752  11.614   3.197
 1377SOL    HW1 6028  13.824  11.671   3.170
 1377SOL    HW2 6029  13.742  11.632   3.291
 1378SOL     OW 6030  12.107   6.360   1.386
 1378SOL    HW1 6031  12.191   6.403   1.398
 1378SOL    HW2 6032  12.126   6.288   1.325
 1379SOL     OW 6033  12.247   6.371   9.250
 1379SOL    HW1 6034  12.229   6.357   9.343
 1379SOL    HW2 6035  12.171   6.419   9.217
 1380SOL     OW 6036   7.918  12.465   3.057
 1380SOL    HW1 6037   7.850  12.502   3.112
 1380SOL    HW2 6038   7.883  12.470   2.968
 1381SOL     OW 6039   7.167   3.154  13.063
 1381SOL    HW1 6040   7.102   3.145  13.133
 1381SOL    HW2 6041   7.248   3.175  13.109
 1382SOL     OW 6042   1.968   2.504   2.078
 1382SOL    HW1 6043   2.056   2.469   2.075
 1382SOL    HW2 6044   1.974   2.579   2.138
 1383SOL     OW 6045   2.290   8.074   0.838
 1383SOL    HW1 6046   2.262   7.984   0.820
 1383SOL    HW2 6047   2.222   8.128   0.798
 1384SOL     OW 6048   6.848   4.744   5.637
 1384SOL    HW1 6049   6.914   4.680   5.612
 1384SOL    HW2 6050   6.853   4.748   5.732
 1385SOL     OW 6051  12.457   2.799  11.584
 1385SOL    HW1 6052  12.521   2.846  11.637
 1385SOL    HW2 6053  12.382   2.787  11.642
 1386SOL     OW 6054   6.373  11.098   7.060
 1386SOL    HW1 6055   6.309  11.142   7.115
 1386SOL    HW2 6056   6.326  11.078   6.979
 1387SOL     OW 6057   2.426   4.461  12.458
 1387SOL    HW1 6058   2.389   4.549  12.453
 1387SOL    HW2 6059   2.431   4.442  12.552
 1388SOL     OW 6060   9.176  12.097   9.528
 1388SOL    HW1 6061   9.174  12.019   9.584
 1388SOL    HW2 6062   9.267  12.127   9.532
 1389SOL     OW 6063  14.887  14.409   1.330
 1389SOL    HW1 6064   0.026  14.499   1.310
 1389SOL    HW2 6065  14.830  14.417   1.407
 1390SOL     OW 6066   6.195   0.213  11.911
 1390SOL    HW1 6067   6.111   0.177  11.937
 1390SOL    HW2 6068   6.185   0.308  11.923
 1391SOL     OW 6069  12.959   3.896   2.791
 1391SOL    HW1 6070  12.965   3.817   2.846
 1391SOL    HW2 6071  12.869   3.896   2.758
 1392SOL     OW 6072  12.752  10.527  11.711
 1392SOL    HW1 6073  12.843  10.517  11.739
 1392SOL    HW2 6074  12.757  10.584  11.634
 1393SOL     OW 6075   0.316   8.222   2.142
 1393SOL    HW1 6076   0.396   8.222   2.195
 1393SOL    HW2 6077   0.256   8.281   2.187
 1394SOL     OW 6078   6.469  10.792   9.708
 1394SOL    HW1 6079   6.527  10.867   9.720
 1394SOL    HW2 6080   6.385  10.819   9.745
 1395SOL     OW 6081   1.503  10.333   3.139
 1395SOL    HW1 6082   1.583  10.359   3.186
 1395SOL    HW2 6083   1.493  10.399   3.071
 1396SOL     OW 6084   8.976   3.991   4.994
 1396SOL    HW1 6085   8.952   4.067   5.047
 1396SOL    HW2 6086   8.924   3.919   5.031
 1397SOL     OW 6087   3.231   1.714   1.209
 1397SOL    HW1 6088   3.205   1.657   1.282
 1397SOL    HW2 6089   3.295   1.663   1.161
 1398SOL     OW 6090  14.423   3.165   3.766
 1398SOL    HW1 6091  14.423   3.259   3.751
 1398SOL    HW2 6092  14.503   3.148   3.816
 1399SOL     OW 6093   5.220   7.290   7.846
 1399SOL    HW1 6094   5.184   7.201   7.848
 1399SOL    HW2 6095   5.303   7.282   7.893
 1400SOL     OW 6096   0.533  13.535   1.082
 1400SOL    HW1 6097   0.461  13.520   1.021
 1400SOL    HW2 6098   0.532  13.460   1.140
 1401SOL     OW 6099   4.599  13.553   9.274
 1401SOL    HW1 6100   4.629  13.641   9.297
 1401SOL    HW2 6101   4.556  13.521   9.353
 1402SOL     OW 6102  14.178   6.286   6.560
 1402SOL    HW1 6103  14.153   6.199   6.588
 1402SOL    HW2 6104  14.179   6.282   6.464
 1403SOL     OW 6105   1.669  12.131   1.002
 1403SOL    HW1 6106   1.741  12.125   1.064
 1403SOL    HW2 6107   1.632  12.218   1.017
 1404SOL     OW 6108   9.249  13.317  13.454
 1404SOL    HW1 6109   9.246  13.409  13.430
 1404SOL    HW2 6110   9.335  13.287  13.423
 1405SOL     OW 6111   5.807  12.097   3.078
 1405SOL    HW1 6112   5.894  12.120   3.045
 1405SOL    HW2 6113   5.752  12.092   3.000
 1406SOL     OW 6114   6.380   2.255   3.475
 1406SOL    HW1 6115   6.463   2.289   3.510
 1406SOL    HW2 6116   6.322   2.332   3.473
 1407SOL     OW 6117   0.701   2.411   1.892
 1407SOL    HW1 6118   0.737   2.482   1.839
 1407SOL    HW2 6119   0.694   2.338   1.831
 1408SOL     OW 6120   8.916  10.043   5.731
 1408SOL    HW1 6121   8.983   9.981   5.703
 1408SOL    HW2 6122   8.905  10.026   5.824
 1409SOL     OW 6123   3.498   0.654   3.811
 1409SOL    HW1 6124   3.504   0.668   3.905
 1409SOL    HW2 6125   3.549   0.575   3.795
 1410SOL     OW 6126   9.589   0.095   2.959
 1410SOL    HW1 6127   9.524   0.076   3.026
 1410SOL    HW2 6128   9.629   0.178   2.986
 1411SOL     OW 6129  14.421  12.424   8.238
 1411SOL    HW1 6130  14.464  12.435   8.154
 1411SOL    HW2 6131  14.448  12.337   8.268
 1412SOL     OW 6132  13.565  12.339   7.001
 1412SOL    HW1 6133  13.525  12.424   6.980
 1412SOL    HW2 6134  13.571  12.294   6.917
 1413SOL     OW 6135   9.717  14.795   0.993
 1413SOL    HW1 6136   9.687  14.720   1.046
 1413SOL    HW2 6137   9.795  14.827   1.039
 1414SOL     OW 6138   0.230  11.381   1.058
 1414SOL    HW1 6139   0.321  11.353   1.045
 1414SOL    HW2 6140   0.194  11.316   1.118
 1415SOL     OW 6141   0.531  11.819   9.647
 1415SOL    HW1 6142   0.455  11.870   9.621
 1415SOL    HW2 6143   0.601  11.883   9.660
 1416SOL     OW 6144  14.561  13.754  12.090
 1416SOL    HW1 6145  14.526  13.838  12.063
 1416SOL    HW2 6146  14.655  13.760  12.071
 1417SOL     OW 6147   2.733   6.153   4.217
 1417SOL    HW1 6148   2.726   6.211   4.292
 1417SOL    HW2 6149   2.823   6.162   4.186
 1418SOL     OW 6150  11.268  13.559  14.511
 1418SOL    HW1 6151  11.282  13.636  14.457
 1418SOL    HW2 6152  11.276  13.485  14.450
 1419SOL     OW 6153   8.757   3.057   8.021
 1419SOL    HW1 6154   8.784   3.046   8.112
 1419SOL    HW2 6155   8.819   3.121   7.986
 1420SOL     OW 6156   4.565   6.824   2.283
 1420SOL    HW1 6157   4.548   6.797   2.192
 1420SOL    HW2 6158   4.481   6.858   2.313
 1421SOL     OW 6159   4.770  13.215   5.531
 1421SOL    HW1 6160   4.735  13.240   5.445
 1421SOL    HW2 6161   4.854  13.175   5.511
 1422SOL     OW 6162  14.428   8.744  11.853
 1422SOL    HW1 6163  14.418   8.807  11.781
 1422SOL    HW2 6164  14.341   8.742  11.894
 1423SOL     OW 6165   0.588  11.183   5.765
 1423SOL    HW1 6166   0.516  11.241   5.789
 1423SOL    HW2 6167   0.667  11.229   5.793
 1424SOL     OW 6168   2.470   9.607   0.986
 1424SOL    HW1 6169   2.524   9.679   0.954
 1424SOL    HW2 6170   2.429   9.640   1.065
 1425SOL     OW 6171   4.418   1.531  13.379
 1425SOL    HW1 6172   4.487   1.575  13.430
 1425SOL    HW2 6173   4.338   1.580  13.401
 1426SOL     OW 6174   1.578  13.845   4.161
 1426SOL    HW1 6175   1.608  13.931   4.133
 1426SOL    HW2 6176   1.624  13.829   4.244
 1427SOL     OW 6177   2.357   7.321   9.572
 1427SOL    HW1 6178   2.267   7.290   9.571
 1427SOL    HW2 6179   2.402   7.262   9.633
 1428SOL     OW 6180   2.225  13.331   8.016
 1428SOL    HW1 6181   2.238  13.407   8.071
 1428SOL    HW2 6182   2.313  13.298   7.999
 1429SOL     OW 6183   4.153  10.018   5.660
 1429SOL    HW1 6184   4.106   9.998   5.741
 1429SOL    HW2 6185   4.242  10.039   5.688
 1430SOL     OW 6186  11.418   4.058  10.995
 1430SOL    HW1 6187  11.354   4.129  10.993
 1430SOL    HW2 6188  11.470   4.069  10.916
 1431SOL     OW 6189   7.057  13.000   3.332
 1431SOL    HW1 6190   7.067  13.087   3.293
 1431SOL    HW2 6191   7.146  12.973   3.353
 1432SOL     OW 6192   5.515  10.563   9.583
 1432SOL    HW1 6193   5.558  10.519   9.657
 1432SOL    HW2 6194   5.562  10.533   9.506
 1433SOL     OW 6195  13.247  14.761   3.903
 1433SOL    HW1 6196  13.284  14.744   3.990
 1433SOL    HW2 6197  13.166  14.711   3.901
 1434SOL     OW 6198   1.702   4.353   2.777
 1434SOL    HW1 6199   1.608   4.351   2.794
 1434SOL    HW2 6200   1.739   4.290   2.839
 1435SOL     OW 6201   9.854  11.553   0.904
 1435SOL    HW1 6202   9.906  11.494   0.849
 1435SOL    HW2 6203   9.812  11.495   0.968
 1436SOL     OW 6204  10.547   2.344   0.137
 1436SOL    HW1 6205  10.536   2.268   0.080
 1436SOL    HW2 6206  10.485   2.329   0.208
 1437SOL     OW 6207   2.734  13.074   6.724
 1437SOL    HW1 6208   2.778  13.002   6.680
 1437SOL    HW2 6209   2.784  13.152   6.700
 1438SOL     OW 6210   3.869   6.454   3.880
 1438SOL    HW1 6211   3.775   6.447   3.897
 1438SOL    HW2 6212   3.874   6.488   3.791
 1439SOL     OW 6213   6.334   3.359   3.373
 1439SOL    HW1 6214   6.389   3.340   3.449
 1439SOL    HW2 6215   6.246   3.371   3.410
 1440SOL     OW 6216   1.396   0.581   3.735
 1440SOL    HW1 6217   1.452   0.580   3.813
 1440SOL    HW2 6218   1.326   0.519   3.757
 1441SOL     OW 6219   9.444   2.673   7.254
 1441SOL    HW1 6220   9.452   2.764   7.225
 1441SOL    HW2 6221   9.510   2.626   7.203
 1442SOL     OW 6222   9.440   9.678   0.234
 1442SOL    HW1 6223   9.483   9.741   0.177
 1442SOL    HW2 6224   9.356   9.660   0.191
 1443SOL     OW 6225  12.723   7.397   2.966
 1443SOL    HW1 6226  12.763   7.329   3.021
 1443SOL    HW2 6227  12.770   7.391   2.883
 1444SOL     OW 6228   3.972   6.352  14.201
 1444SOL    HW1 6229   3.963   6.258  14.217
 1444SOL    HW2 6230   3.957   6.362  14.108
 1445SOL     OW 6231   9.627   6.453  11.683
 1445SOL    HW1 6232   9.630   6.530  11.625
 1445SOL    HW2 6233   9.703   6.464  11.740
 1446SOL     OW 6234  12.381   2.782   3.046
 1446SOL    HW1 6235  12.460   2.770   3.099
 1446SOL    HW2 6236  12.412   2.824   2.966
 1447SOL     OW 6237   8.560  10.274   2.209
 1447SOL    HW1 6238   8.537  10.191   2.251
 1447SOL    HW2 6239   8.632  10.309   2.261
 1448SOL     OW 6240   7.125   6.032   9.886
 1448SOL    HW1 6241   7.104   5.998   9.972
 1448SOL    HW2 6242   7.050   6.087   9.863
 1449SOL     OW 6243  13.916   6.910  10.318
 1449SOL    HW1 6244  13.839   6.857  10.297
 1449SOL    HW2 6245  13.960   6.862  10.389
 1450SOL     OW 6246   2.625   7.734  14.272
 1450SOL    HW1 6247   2.647   7.740  14.365
 1450SOL    HW2 6248   2.685   7.668  14.237
 1451SOL     OW 6249  13.861  10.123   3.810
 1451SOL    HW1 6250  13.856  10.217   3.827
 1451SOL    HW2 6251  13.831  10.082   3.891
 1452SOL     OW 6252  13.551   1.131   9.940
 1452SOL    HW1 6253  13.589   1.070   9.877
 1452SOL    HW2 6254  13.622   1.192   9.960
 1453SOL     OW 6255  12.357   1.830   1.359
 1453SOL    HW1 6256  12.340   1.895   1.427
 1453SOL    HW2 6257  12.273   1.787   1.345
 1454SOL     OW 6258   9.681   2.851  13.297
 1454SOL    HW1 6259   9.743   2.923  13.312
 1454SOL    HW2 6260   9.650   2.864  13.208
 1455SOL     OW 6261   2.289   6.488   9.830
 1455SOL    HW1 6262   2.308   6.456   9.918
 1455SOL    HW2 6263   2.368   6.466   9.780
 1456SOL     OW 6264   7.750   8.501   0.693
 1456SOL    HW1 6265   7.845   8.488   0.700
 1456SOL    HW2 6266   7.724   8.534   0.780
 1457SOL     OW 6267   8.184   2.504  10.630
 1457SOL    HW1 6268   8.144   2.495  10.543
 1457SOL    HW2 6269   8.111   2.522  10.688
 1458SOL     OW 6270   9.514   5.226   0.042
 1458SOL    HW1 6271   9.590   5.180   0.077
 1458SOL    HW2 6272   9.453   5.157   0.018
 1459SOL     OW 6273   1.172   1.004   3.219
 1459SOL    HW1 6274   1.171   0.988   3.313
 1459SOL    HW2 6275   1.179   1.099   3.211
 1460SOL     OW 6276   3.721  10.724   3.052
 1460SOL    HW1 6277   3.649  10.668   3.082
 1460SOL    HW2 6278   3.798  10.667   3.053
 1461SOL     OW 6279  10.932   1.192   4.376
 1461SOL    HW1 6280  10.877   1.252   4.326
 1461SOL    HW2 6281  11.004   1.246   4.408
 1462SOL     OW 6282   5.965   2.718   7.437
 1462SOL    HW1 6283   6.035   2.660   7.467
 1462SOL    HW2 6284   6.008   2.774   7.372
 1463SOL     OW 6285   8.071   5.771   3.473
 1463SOL    HW1 6286   8.151   5.813   3.441
 1463SOL    HW2 6287   8.019   5.755   3.395
 1464SOL     OW 6288   0.862   5.976  11.510
 1464SOL    HW1 6289   0.871   5.886  11.541
 1464SOL    HW2 6290   0.941   6.020  11.542
 1465SOL     OW 6291   9.612   2.252   7.076
 1465SOL    HW1 6292   9.633   2.282   6.988
 1465SOL    HW2 6293   9.525   2.288   7.093
 1466SOL     OW 6294  12.643   7.085  14.282
 1466SOL    HW1 6295  12.693   7.162  14.253
 1466SOL    HW2 6296  12.559   7.121  14.309
 1467SOL     OW 6297  14.402   1.641   9.949
 1467SOL    HW1 6298  14.441   1.601   9.872
 1467SOL    HW2 6299  14.421   1.734   9.941
 1468SOL     OW 6300  13.741   7.462   2.346
 1468SOL    HW1 6301  13.777   7.476   2.258
 1468SOL    HW2 6302  13.702   7.375   2.342
 1469SOL     OW 6303   4.044   3.247   4.150
 1469SOL    HW1 6304   3.970   3.187   4.159
 1469SOL    HW2 6305   4.009   3.332   4.175
 1470SOL     OW 6306   8.851   5.268  11.463
 1470SOL    HW1 6307   8.822   5.302  11.547
 1470SOL    HW2 6308   8.913   5.334  11.430
 1471SOL     OW 6309   4.685  10.612   7.322
 1471SOL    HW1 6310   4.758  10.641   7.377
 1471SOL    HW2 6311   4.715  10.629   7.232
 1472SOL     OW 6312   7.108  11.768  10.016
 1472SOL    HW1 6313   7.078  11.836   9.955
 1472SOL    HW2 6314   7.099  11.808  10.103
 1473SOL     OW 6315   8.772   2.525  12.139
 1473SOL    HW1 6316   8.805   2.504  12.227
 1473SOL    HW2 6317   8.678   2.538  12.152
 1474SOL     OW 6318   8.716   0.034   1.856
 1474SOL    HW1 6319   8.736   0.062   1.767
 1474SOL    HW2 6320   8.738   0.110   1.910
 1475SOL     OW 6321   4.706   8.238   8.195
 1475SOL    HW1 6322   4.644   8.311   8.203
 1475SOL    HW2 6323   4.711   8.223   8.100
 1476SOL     OW 6324  10.451   6.817   5.619
 1476SOL    HW1 6325  10.448   6.852   5.530
 1476SOL    HW2 6326  10.500   6.883   5.669
 1477SOL     OW 6327   2.199   7.475   8.704
 1477SOL    HW1 6328   2.262   7.415   8.744
 1477SOL    HW2 6329   2.118   7.425   8.697
 1478SOL     OW 6330   3.900   3.708  13.133
 1478SOL    HW1 6331   3.866   3.797  13.138
 1478SOL    HW2 6332   3.976   3.714  13.075
 1479SOL     OW 6333  12.623   8.213   9.960
 1479SOL    HW1 6334  12.597   8.304   9.949
 1479SOL    HW2 6335  12.546   8.170   9.997
 1480SOL     OW 6336   6.264  10.049   8.190
 1480SOL    HW1 6337   6.283  10.092   8.273
 1480SOL    HW2 6338   6.169  10.055   8.180
 1481SOL     OW 6339   4.709   7.692   7.690
 1481SOL    HW1 6340   4.690   7.627   7.758
 1481SOL    HW2 6341   4.791   7.662   7.650
 1482SOL     OW 6342   5.270  14.054  13.867
 1482SOL    HW1 6343   5.340  14.094  13.918
 1482SOL    HW2 6344   5.199  14.119  13.870
 1483SOL     OW 6345  11.886   1.066  14.446
 1483SOL    HW1 6346  11.908   1.147  14.491
 1483SOL    HW2 6347  11.795   1.050  14.471
 1484SOL     OW 6348   3.160  14.267   7.099
 1484SOL    HW1 6349   3.166  14.334   7.167
 1484SOL    HW2 6350   3.163  14.184   7.147
 1485SOL     OW 6351  14.602   8.647  11.598
 1485SOL    HW1 6352  14.518   8.609  11.625
 1485SOL    HW2 6353  14.651   8.573  11.564
 1486SOL     OW 6354   3.647  12.471   7.329
 1486SOL    HW1 6355   3.677  12.430   7.410
 1486SOL    HW2 6356   3.710  12.541   7.313
 1487SOL     OW 6357  11.174   2.782  10.803
 1487SOL    HW1 6358  11.095   2.834  10.819
 1487SOL    HW2 6359  11.224   2.788  10.885
 1488SOL     OW 6360   3.998   5.972  13.046
 1488SOL    HW1 6361   4.089   5.959  13.020
 1488SOL    HW2 6362   3.949   5.965  12.964
 1489SOL     OW 6363   2.539   9.688   4.137
 1489SOL    HW1 6364   2.626   9.670   4.171
 1489SOL    HW2 6365   2.554   9.746   4.062
 1490SOL     OW 6366  10.312   5.817  12.137
 1490SOL    HW1 6367  10.320   5.822  12.041
 1490SOL    HW2 6368  10.271   5.732  12.153
 1491SOL     OW 6369  13.770   9.419   8.134
 1491SOL    HW1 6370  13.728   9.448   8.215
 1491SOL    HW2 6371  13.809   9.498   8.097
 1492SOL     OW 6372  11.279  10.131   7.029
 1492SOL    HW1 6373  11.250  10.084   6.951
 1492SOL    HW2 6374  11.270  10.223   7.006
 1493SOL     OW 6375  11.714   6.120   9.290
 1493SOL    HW1 6376  11.759   6.189   9.240
 1493SOL    HW2 6377  11.659   6.167   9.353
 1494SOL     OW 6378   1.123   0.927   9.339
 1494SOL    HW1 6379   1.181   0.854   9.316
 1494SOL    HW2 6380   1.035   0.893   9.323
 1495SOL     OW 6381  14.590   0.455   3.746
 1495SOL    HW1 6382  14.633   0.475   3.829
 1495SOL    HW2 6383  14.636   0.377   3.714
 1496SOL     OW 6384  14.371  11.558   5.951
 1496SOL    HW1 6385  14.388  11.573   5.858
 1496SOL    HW2 6386  14.381  11.463   5.962
 1497SOL     OW 6387   3.836   2.103   4.845
 1497SOL    HW1 6388   3.743   2.118   4.863
 1497SOL    HW2 6389   3.860   2.032   4.903
 1498SOL     OW 6390   8.920   7.774   2.363
 1498SOL    HW1 6391   9.006   7.772   2.404
 1498SOL    HW2 6392   8.912   7.864   2.330
 1499SOL     OW 6393   5.697   4.168   1.555
 1499SOL    HW1 6394   5.604   4.148   1.568
 1499SOL    HW2 6395   5.703   4.263   1.564
 1500SOL     OW 6396   2.349  13.968   6.005
 1500SOL    HW1 6397   2.254  13.957   5.999
 1500SOL    HW2 6398   2.361  14.053   6.047
 1501SOL     OW 6399   1.315   6.920   6.282
 1501SOL    HW1 6400   1.321   6.905   6.187
 1501SOL    HW2 6401   1.231   6.964   6.293
 1502SOL     OW 6402   1.495  10.199   4.350
 1502SOL    HW1 6403   1.423  10.183   4.289
 1502SOL    HW2 6404   1.514  10.113   4.388
 1503SOL     OW 6405   4.203  14.174   0.021
 1503SOL    HW1 6406   4.113  14.160   0.051
 1503SOL    HW2 6407   4.248  14.092   0.041
 1504SOL     OW 6408   8.582  13.033  14.542
 1504SOL    HW1 6409   8.503  12.983  14.521
 1504SOL    HW2 6410   8.612  12.997  14.625
 1505SOL     OW 6411  11.686   7.975   7.064
 1505SOL    HW1 6412  11.590   7.978   7.057
 1505SOL    HW2 6413  11.711   8.064   7.089
 1506SOL     OW 6414   8.151  14.251  13.184
 1506SOL    HW1 6415   8.149  14.178  13.122
 1506SOL    HW2 6416   8.218  14.310  13.149
 1507SOL     OW 6417   4.195   4.840   4.671
 1507SOL    HW1 6418   4.228   4.859   4.583
 1507SOL    HW2 6419   4.274   4.833   4.724
 1508SOL     OW 6420   8.680  10.397   1.176
 1508SOL    HW1 6421   8.586  10.382   1.167
 1508SOL    HW2 6422   8.690  10.492   1.171
 1509SOL     OW 6423   2.371   4.198   1.257
 1509SOL    HW1 6424   2.299   4.217   1.196
 1509SOL    HW2 6425   2.371   4.103   1.265
 1510SOL     OW 6426   4.646   6.001  14.073
 1510SOL    HW1 6427   4.732   6.012  14.032
 1510SOL    HW2 6428   4.630   5.907  14.072
 1511SOL     OW 6429   7.331  11.834   7.344
 1511SOL    HW1 6430   7.404  11.783   7.309
 1511SOL    HW2 6431   7.363  11.868   7.427
 1512SOL     OW 6432  12.266  10.287   4.290
 1512SOL    HW1 6433  12.221  10.354   4.342
 1512SOL    HW2 6434  12.358  10.309   4.296
 1513SOL     OW 6435   7.471   3.498   4.446
 1513SOL    HW1 6436   7.427   3.583   4.454
 1513SOL    HW2 6437   7.524   3.505   4.367
 1514SOL     OW 6438   9.030  12.603   6.312
 1514SOL    HW1 6439   9.043  12.635   6.401
 1514SOL    HW2 6440   8.997  12.513   6.323
 1515SOL     OW 6441  11.732   7.622   4.489
 1515SOL    HW1 6442  11.679   7.650   4.564
 1515SOL    HW2 6443  11.702   7.533   4.471
 1516SOL     OW 6444  11.995  11.610  12.990
 1516SOL    HW1 6445  11.999  11.677  13.059
 1516SOL    HW2 6446  12.080  11.615  12.947
 1517SOL     OW 6447   3.566   2.601  11.594
 1517SOL    HW1 6448   3.521   2.527  11.635
 1517SOL    HW2 6449   3.616   2.641  11.664
 1518SOL     OW 6450   1.947   3.371  12.331
 1518SOL    HW1 6451   2.027   3.318  12.325
 1518SOL    HW2 6452   1.970   3.441  12.393
 1519SOL     OW 6453  12.791  10.667  11.493
 1519SOL    HW1 6454  12.730  10.740  11.485
 1519SOL    HW2 6455  12.878  10.706  11.482
 1520SOL     OW 6456  10.008   9.115   1.164
 1520SOL    HW1 6457   9.956   9.188   1.200
 1520SOL    HW2 6458  10.068   9.091   1.235
 1521SOL     OW 6459   9.613   6.882   5.764
 1521SOL    HW1 6460   9.522   6.870   5.790
 1521SOL    HW2 6461   9.615   6.969   5.723
 1522SOL     OW 6462   2.363   7.206  12.046
 1522SOL    HW1 6463   2.392   7.265  12.115
 1522SOL    HW2 6464   2.280   7.170  12.078
 1523SOL     OW 6465  10.512   4.084   2.465
 1523SOL    HW1 6466  10.599   4.123   2.476
 1523SOL    HW2 6467  10.500   4.029   2.542
 1524SOL     OW 6468   5.472   5.350  13.160
 1524SOL    HW1 6469   5.526   5.281  13.121
 1524SOL    HW2 6470   5.531   5.395  13.220
 1525SOL     OW 6471  12.117  12.263   4.047
 1525SOL    HW1 6472  12.088  12.265   3.956
 1525SOL    HW2 6473  12.182  12.333   4.053
 1526SOL     OW 6474  10.368   9.270   0.289
 1526SOL    HW1 6475  10.299   9.327   0.256
 1526SOL    HW2 6476  10.344   9.182   0.258
 1527SOL     OW 6477   5.396  14.411   3.307
 1527SOL    HW1 6478   5.382  14.469   3.232
 1527SOL    HW2 6479   5.471  14.449   3.352
 1528SOL     OW 6480   7.872   7.233  11.345
 1528SOL    HW1 6481   7.848   7.265  11.432
 1528SOL    HW2 6482   7.810   7.277  11.286
 1529SOL     OW 6483   4.443   9.097  11.230
 1529SOL    HW1 6484   4.432   9.183  11.269
 1529SOL    HW2 6485   4.466   9.039  11.303
 1530SOL     OW 6486   8.173   4.101   3.858
 1530SOL    HW1 6487   8.205   4.104   3.768
 1530SOL    HW2 6488   8.104   4.035   3.857
 1531SOL     OW 6489  14.832  13.840   9.030
 1531SOL    HW1 6490  14.869  13.927   9.015
 1531SOL    HW2 6491  14.860  13.788   8.954
 1532SOL     OW 6492  12.109   6.603   5.895
 1532SOL    HW1 6493  12.126   6.692   5.925
 1532SOL    HW2 6494  12.023   6.608   5.853
 1533SOL     OW 6495   0.418   1.793   5.990
 1533SOL    HW1 6496   0.323   1.801   5.988
 1533SOL    HW2 6497   0.445   1.787   5.899
 1534SOL     OW 6498   4.976   2.157   2.265
 1534SOL    HW1 6499   5.026   2.075   2.261
 1534SOL    HW2 6500   5.012   2.209   2.193
 1535SOL     OW 6501  14.786   7.016  13.006
 1535SOL    HW1 6502  14.870   7.059  12.987
 1535SOL    HW2 6503  14.780   6.946  12.942
 1536SOL     OW 6504   9.760   6.438  13.255
 1536SOL    HW1 6505   9.674   6.401  13.275
 1536SOL    HW2 6506   9.757   6.527  13.291
 1537SOL     OW 6507   0.358   0.795   4.686
 1537SOL    HW1 6508   0.320   0.870   4.641
 1537SOL    HW2 6509   0.317   0.719   4.645
 1538SOL     OW 6510  13.924  12.472   3.269
 1538SOL    HW1 6511  13.913  12.545   3.209
 1538SOL    HW2 6512  13.902  12.395   3.218
 1539SOL     OW 6513   1.978   5.377   7.011
 1539SOL    HW1 6514   1.919   5.439   7.055
 1539SOL    HW2 6515   1.994   5.416   6.926
 1540SOL     OW 6516   0.167  11.031  10.976
 1540SOL    HW1 6517   0.223  11.061  11.048
 1540SOL    HW2 6518   0.096  11.095  10.972
 1541SOL     OW 6519   6.174  11.240   4.954
 1541SOL    HW1 6520   6.251  11.254   4.898
 1541SOL    HW2 6521   6.202  11.267   5.041
 1542SOL     OW 6522   8.343   1.302   6.904
 1542SOL    HW1 6523   8.367   1.303   6.812
 1542SOL    HW2 6524   8.301   1.387   6.919
 1543SOL     OW 6525  11.429  14.479   2.432
 1543SOL    HW1 6526  11.500  14.537   2.461
 1543SOL    HW2 6527  11.470  14.393   2.426
 1544SOL     OW 6528   6.491  13.779   3.243
 1544SOL    HW1 6529   6.508  13.702   3.298
 1544SOL    HW2 6530   6.445  13.744   3.167
 1545SOL     OW 6531  13.187   6.770   3.581
 1545SOL    HW1 6532  13.110   6.796   3.632
 1545SOL    HW2 6533  13.162   6.787   3.490
 1546SOL     OW 6534   5.074   8.083  12.558
 1546SOL    HW1 6535   4.992   8.099  12.511
 1546SOL    HW2 6536   5.059   8.116  12.646
 1547SOL     OW 6537  14.743   2.304   1.357
 1547SOL    HW1 6538  14.662   2.356   1.356
 1547SOL    HW2 6539  14.751   2.270   1.268
 1548SOL     OW 6540  14.484   0.855  11.231
 1548SOL    HW1 6541  14.515   0.771  11.265
 1548SOL    HW2 6542  14.563   0.898  11.198
 1549SOL     OW 6543   4.140   3.935   3.382
 1549SOL    HW1 6544   4.214   3.900   3.333
 1549SOL    HW2 6545   4.155   4.030   3.383
 1550SOL     OW 6546   6.218  13.491  13.179
 1550SOL    HW1 6547   6.171  13.517  13.259
 1550SOL    HW2 6548   6.148  13.467  13.118
 1551SOL     OW 6549   1.204  12.375   3.576
 1551SOL    HW1 6550   1.225  12.464   3.547
 1551SOL    HW2 6551   1.109  12.374   3.585
 1552SOL     OW 6552   2.668   3.430   0.289
 1552SOL    HW1 6553   2.628   3.502   0.240
 1552SOL    HW2 6554   2.596   3.393   0.341
 1553SOL     OW 6555   1.577   4.138   6.326
 1553SOL    HW1 6556   1.583   4.198   6.252
 1553SOL    HW2 6557   1.666   4.106   6.338
 1554SOL     OW 6558   6.978  10.205   3.463
 1554SOL    HW1 6559   6.987  10.288   3.509
 1554SOL    HW2 6560   7.029  10.215   3.383
 1555SOL     OW 6561   3.287  10.056   4.433
 1555SOL    HW1 6562   3.252  10.093   4.514
 1555SOL    HW2 6563   3.268   9.963   4.440
 1556SOL     OW 6564   2.175   8.362   0.111
 1556SOL    HW1 6565   2.202   8.335   0.023
 1556SOL    HW2 6566   2.170   8.458   0.106
 1557SOL     OW 6567  12.593  10.293   0.507
 1557SOL    HW1 6568  12.510  10.341   0.509
 1557SOL    HW2 6569  12.571  10.205   0.536
 1558SOL     OW 6570  11.403  12.482   5.729
 1558SOL    HW1 6571  11.473  12.420   5.708
 1558SOL    HW2 6572  11.324  12.444   5.690
 1559SOL     OW 6573   4.336   4.968   5.231
 1559SOL    HW1 6574   4.317   4.961   5.137
 1559SOL    HW2 6575   4.418   4.921   5.243
 1560SOL     OW 6576   9.548   6.128   1.131
 1560SOL    HW1 6577   9.566   6.221   1.113
 1560SOL    HW2 6578   9.610   6.081   1.074
 1561SOL     OW 6579  10.850   9.577   4.843
 1561SOL    HW1 6580  10.931   9.622   4.823
 1561SOL    HW2 6581  10.844   9.578   4.938
 1562SOL     OW 6582  13.300  11.967   0.615
 1562SOL    HW1 6583  13.267  11.881   0.588
 1562SOL    HW2 6584  13.226  12.026   0.600
 1563SOL     OW 6585   1.178   6.530   7.306
 1563SOL    HW1 6586   1.271   6.539   7.327
 1563SOL    HW2 6587   1.177   6.498   7.216
 1564SOL     OW 6588   5.880  10.610  10.777
 1564SOL    HW1 6589   5.881  10.621  10.872
 1564SOL    HW2 6590   5.844  10.693  10.744
 1565SOL     OW 6591   1.941   5.841  12.459
 1565SOL    HW1 6592   2.030   5.845  12.495
 1565SOL    HW2 6593   1.893   5.909  12.507
 1566SOL     OW 6594  14.772  12.832   7.559
 1566SOL    HW1 6595  14.795  12.871   7.475
 1566SOL    HW2 6596  14.743  12.743   7.538
 1567SOL     OW 6597  13.337   2.312   5.212
 1567SOL    HW1 6598  13.375   2.224   5.209
 1567SOL    HW2 6599  13.315   2.326   5.304
 1568SOL     OW 6600   5.366   7.362   3.083
 1568SOL    HW1 6601   5.430   7.313   3.134
 1568SOL    HW2 6602   5.348   7.441   3.135
 1569SOL     OW 6603   1.145  11.025   2.104
 1569SOL    HW1 6604   1.079  11.002   2.038
 1569SOL    HW2 6605   1.102  11.092   2.158
 1570SOL     OW 6606   0.370   5.840  11.658
 1570SOL    HW1 6607   0.376   5.889  11.739
 1570SOL    HW2 6608   0.337   5.902  11.594
 1571SOL     OW 6609  13.590  14.209  14.633
 1571SOL    HW1 6610  13.527  14.280  14.635
 1571SOL    HW2 6611  13.674  14.251  14.654
 1572SOL     OW 6612  14.076  12.516   7.028
 1572SOL    HW1 6613  14.146  12.544   6.969
 1572SOL    HW2 6614  14.075  12.421   7.020
 1573SOL     OW 6615   3.150   8.466   1.087
 1573SOL    HW1 6616   3.134   8.375   1.060
 1573SOL    HW2 6617   3.172   8.459   1.180
 1574SOL     OW 6618   9.392   1.217   2.638
 1574SOL    HW1 6619   9.361   1.305   2.662
 1574SOL    HW2 6620   9.421   1.226   2.547
 1575SOL     OW 6621   8.324   4.422   7.574
 1575SOL    HW1 6622   8.306   4.406   7.482
 1575SOL    HW2 6623   8.330   4.517   7.582
 1576SOL     OW 6624   6.811   4.367   0.333
 1576SOL    HW1 6625   6.843   4.277   0.324
 1576SOL    HW2 6626   6.739   4.360   0.396
 1577SOL     OW 6627   8.760  12.646   4.758
 1577SOL    HW1 6628   8.686  12.670   4.813
 1577SOL    HW2 6629   8.726  12.579   4.699
 1578SOL     OW 6630  10.901   1.215   8.164
 1578SOL    HW1 6631  10.850   1.135   8.164
 1578SOL    HW2 6632  10.986   1.189   8.127
 1579SOL     OW 6633  14.196   6.102   5.506
 1579SOL    HW1 6634  14.131   6.103   5.576
 1579SOL    HW2 6635  14.237   6.015   5.512
 1580SOL     OW 6636   0.762  13.383   7.299
 1580SOL    HW1 6637   0.716  13.345   7.223
 1580SOL    HW2 6638   0.839  13.328   7.310
 1581SOL     OW 6639   6.085   5.714  14.852
 1581SOL    HW1 6640   6.003   5.741   0.005
 1581SOL    HW2 6641   6.151   5.770   0.004
 1582SOL     OW 6642   9.138   6.977  11.170
 1582SOL    HW1 6643   9.182   6.896  11.193
 1582SOL    HW2 6644   9.151   7.034  11.245
 1583SOL     OW 6645   5.854   9.706  14.795
 1583SOL    HW1 6646   5.840   9.618  14.832
 1583SOL    HW2 6647   5.783   9.759  14.831
 1584SOL     OW 6648   3.777   7.671   0.538
 1584SOL    HW1 6649   3.800   7.747   0.486
 1584SOL    HW2 6650   3.732   7.613   0.477
 1585SOL     OW 6651   0.390  12.844   6.522
 1585SOL    HW1 6652   0.471  12.826   6.570
 1585SOL    HW2 6653   0.363  12.759   6.487
 1586SOL     OW 6654  13.701   0.451   5.812
 1586SOL    HW1 6655  13.680   0.526   5.868
 1586SOL    HW2 6656  13.787   0.421   5.843
 1587SOL     OW 6657   9.753   6.327  14.201
 1587SOL    HW1 6658   9.658   6.314  14.195
 1587SOL    HW2 6659   9.777   6.291  14.286
 1588SOL     OW 6660  13.767   8.126  13.750
 1588SOL    HW1 6661  13.793   8.064  13.682
 1588SOL    HW2 6662  13.849   8.166  13.779
 1589SOL     OW 6663   5.159   2.608   2.384
 1589SOL    HW1 6664   5.079   2.638   2.339
 1589SOL    HW2 6665   5.132   2.600   2.475
 1590SOL     OW 6666   0.970   9.141   9.413
 1590SOL    HW1 6667   1.042   9.199   9.435
 1590SOL    HW2 6668   0.972   9.073   9.481
 1591SOL     OW 6669   9.642  13.676   2.472
 1591SOL    HW1 6670   9.582  13.738   2.513
 1591SOL    HW2 6671   9.617  13.591   2.509
 1592SOL     OW 6672  14.053   7.195  12.236
 1592SOL    HW1 6673  14.120   7.179  12.170
 1592SOL    HW2 6674  14.098   7.244  12.305
 1593SOL     OW 6675   1.371   6.667  10.606
 1593SOL    HW1 6676   1.389   6.654  10.699
 1593SOL    HW2 6677   1.317   6.593  10.580
 1594SOL     OW 6678   9.043  13.985  13.648
 1594SOL    HW1 6679   9.023  13.915  13.586
 1594SOL    HW2 6680   8.993  13.963  13.726
 1595SOL     OW 6681   5.530   8.536  11.112
 1595SOL    HW1 6682   5.475   8.487  11.051
 1595SOL    HW2 6683   5.480   8.538  11.194
 1596SOL     OW 6684  14.805   4.875   4.053
 1596SOL    HW1 6685   0.002   4.850   4.016
 1596SOL    HW2 6686  14.820   4.883   4.147
 1597SOL     OW 6687  13.625   6.765   3.997
 1597SOL    HW1 6688  13.587   6.842   3.954
 1597SOL    HW2 6689  13.602   6.691   3.941
 1598SOL     OW 6690  12.478   8.289   9.294
 1598SOL    HW1 6691  12.447   8.217   9.350
 1598SOL    HW2 6692  12.442   8.368   9.334
 1599SOL     OW 6693   9.687   2.975   5.798
 1599SOL    HW1 6694   9.650   3.058   5.828
 1599SOL    HW2 6695   9.614   2.927   5.759
 1600SOL     OW 6696   2.718   1.992  14.052
 1600SOL    HW1 6697   2.648   1.930  14.068
 1600SOL    HW2 6698   2.799   1.942  14.065
 1601SOL     OW 6699   4.188   7.921   8.921
 1601SOL    HW1 6700   4.240   7.848   8.888
 1601SOL    HW2 6701   4.144   7.887   8.998
 1602SOL     OW 6702  11.733  13.321  13.447
 1602SOL    HW1 6703  11.661  13.354  13.501
 1602SOL    HW2 6704  11.702  13.236  13.416
 1603SOL     OW 6705   4.465   2.437   2.134
 1603SOL    HW1 6706   4.401   2.444   2.206
 1603SOL    HW2 6707   4.470   2.526   2.098
 1604SOL     OW 6708   8.414   0.120   1.906
 1604SOL    HW1 6709   8.497   0.120   1.953
 1604SOL    HW2 6710   8.373   0.204   1.927
 1605SOL     OW 6711   9.407   4.471   2.686
 1605SOL    HW1 6712   9.465   4.529   2.638
 1605SOL    HW2 6713   9.457   4.390   2.699
 1606SOL     OW 6714   4.710   6.289   2.412
 1606SOL    HW1 6715   4.764   6.368   2.417
 1606SOL    HW2 6716   4.626   6.315   2.450
 1607SOL     OW 6717   8.874   5.734   2.039
 1607SOL    HW1 6718   8.809   5.710   1.973
 1607SOL    HW2 6719   8.829   5.797   2.095
 1608SOL     OW 6720   1.698  14.128   0.079
 1608SOL    HW1 6721   1.607  14.158   0.077
 1608SOL    HW2 6722   1.749  14.208   0.093
 1609SOL     OW 6723  13.147  14.376  14.605
 1609SOL    HW1 6724  13.241  14.358  14.602
 1609SOL    HW2 6725  13.113  14.342  14.522
 1610SOL     OW 6726   8.658  10.161   6.916
 1610SOL    HW1 6727   8.657  10.066   6.924
 1610SOL    HW2 6728   8.599  10.192   6.984
 1611SOL     OW 6729   2.997   3.508   0.835
 1611SOL    HW1 6730   3.057   3.459   0.891
 1611SOL    HW2 6731   3.034   3.498   0.747
 1612SOL     OW 6732   1.404  13.056  12.887
 1612SOL    HW1 6733   1.464  12.982  12.896
 1612SOL    HW2 6734   1.368  13.047  12.799
 1613SOL     OW 6735  11.116  10.826   3.876
 1613SOL    HW1 6736  11.191  10.837   3.934
 1613SOL    HW2 6737  11.113  10.908   3.826
 1614SOL     OW 6738   2.435   6.602  14.466
 1614SOL    HW1 6739   2.486   6.523  14.483
 1614SOL    HW2 6740   2.373   6.606  14.540
 1615SOL     OW 6741   2.592   3.695  13.728
 1615SOL    HW1 6742   2.674   3.656  13.759
 1615SOL    HW2 6743   2.536   3.699  13.805
 1616SOL     OW 6744   1.681   2.880   1.853
 1616SOL    HW1 6745   1.662   2.919   1.938
 1616SOL    HW2 6746   1.619   2.807   1.845
 1617SOL     OW 6747  10.245   6.012   5.351
 1617SOL    HW1 6748  10.201   6.090   5.317
 1617SOL    HW2 6749  10.262   6.032   5.443
 1618SOL     OW 6750  10.459  10.113   3.758
 1618SOL    HW1 6751  10.460  10.140   3.667
 1618SOL    HW2 6752  10.399  10.038   3.761
 1619SOL     OW 6753  11.648   6.856   3.053
 1619SOL    HW1 6754  11.713   6.921   3.083
 1619SOL    HW2 6755  11.651   6.862   2.958
 1620SOL     OW 6756  10.060   2.701  13.382
 1620SOL    HW1 6757  10.085   2.752  13.459
 1620SOL    HW2 6758   9.977   2.739  13.354
 1621SOL     OW 6759   8.137   4.512   8.122
 1621SOL    HW1 6760   8.188   4.542   8.198
 1621SOL    HW2 6761   8.091   4.435   8.154
 1622SOL     OW 6762   6.009  10.984   7.928
 1622SOL    HW1 6763   5.962  10.909   7.963
 1622SOL    HW2 6764   6.044  11.029   8.006
 1623SOL     OW 6765   2.403  13.039   0.524
 1623SOL    HW1 6766   2.427  12.947   0.534
 1623SOL    HW2 6767   2.458  13.085   0.588
 1624SOL     OW 6768  11.291   8.482   0.764
 1624SOL    HW1 6769  11.244   8.433   0.697
 1624SOL    HW2 6770  11.340   8.415   0.813
 1625SOL     OW 6771   1.810   5.627   6.049
 1625SOL    HW1 6772   1.903   5.640   6.035
 1625SOL    HW2 6773   1.802   5.596   6.139
 1626SOL     OW 6774   8.287   4.248  10.722
 1626SOL    HW1 6775   8.347   4.193  10.671
 1626SOL    HW2 6776   8.254   4.312  10.659
 1627SOL     OW 6777  13.213   8.782  14.735
 1627SOL    HW1 6778  13.216   8.872  14.705
 1627SOL    HW2 6779  13.178   8.787  14.824
 1628SOL     OW 6780   4.933   9.346  13.812
 1628SOL    HW1 6781   4.888   9.280  13.760
 1628SOL    HW2 6782   5.026   9.332  13.796
 1629SOL     OW 6783   3.480  10.068  11.202
 1629SOL    HW1 6784   3.474   9.987  11.151
 1629SOL    HW2 6785   3.565  10.063  11.245
 1630SOL     OW 6786  11.623   8.830   5.341
 1630SOL    HW1 6787  11.674   8.754   5.370
 1630SOL    HW2 6788  11.566   8.851   5.416
 1631SOL     OW 6789  11.797   9.610   8.805
 1631SOL    HW1 6790  11.743   9.551   8.859
 1631SOL    HW2 6791  11.877   9.623   8.857
 1632SOL     OW 6792   9.770   0.335   6.959
 1632SOL    HW1 6793   9.838   0.279   6.920
 1632SOL    HW2 6794   9.697   0.331   6.896
 1633SOL     OW 6795   0.991   8.989   8.176
 1633SOL    HW1 6796   1.019   8.898   8.169
 1633SOL    HW2 6797   1.070   9.040   8.159
 1634SOL     OW 6798  12.038   2.446   7.993
 1634SOL    HW1 6799  12.001   2.406   7.914
 1634SOL    HW2 6800  12.090   2.519   7.961
 1635SOL     OW 6801   4.112  14.355  10.825
 1635SOL    HW1 6802   4.112  14.272  10.777
 1635SOL    HW2 6803   4.189  14.349  10.882
 1636SOL     OW 6804  12.146   4.059   0.204
 1636SOL    HW1 6805  12.089   4.110   0.262
 1636SOL    HW2 6806  12.203   4.009   0.263
 1637SOL     OW 6807  10.470   9.726  14.279
 1637SOL    HW1 6808  10.419   9.740  14.359
 1637SOL    HW2 6809  10.431   9.649  14.239
 1638SOL     OW 6810  10.444   6.475  11.684
 1638SOL    HW1 6811  10.476   6.472  11.594
 1638SOL    HW2 6812  10.446   6.384  11.713
 1639SOL     OW 6813  10.766   9.612  12.692
 1639SOL    HW1 6814  10.770   9.648  12.781
 1639SOL    HW2 6815  10.755   9.689  12.636
 1640SOL     OW 6816   6.223   7.627  10.782
 1640SOL    HW1 6817   6.148   7.569  10.794
 1640SOL    HW2 6818   6.299   7.573  10.802
 1641SOL     OW 6819   7.539   9.122  11.920
 1641SOL    HW1 6820   7.527   9.208  11.881
 1641SOL    HW2 6821   7.634   9.106  11.915
 1642SOL     OW 6822   0.667   5.615   0.315
 1642SOL    HW1 6823   0.615   5.689   0.347
 1642SOL    HW2 6824   0.604   5.544   0.304
 1643SOL     OW 6825   1.920  11.155  10.720
 1643SOL    HW1 6826   1.996  11.194  10.763
 1643SOL    HW2 6827   1.875  11.107  10.790
 1644SOL     OW 6828  10.973   7.420  10.285
 1644SOL    HW1 6829  10.928   7.342  10.318
 1644SOL    HW2 6830  11.035   7.386  10.220
 1645SOL     OW 6831  14.662   8.899   6.807
 1645SOL    HW1 6832  14.626   8.816   6.776
 1645SOL    HW2 6833  14.677   8.950   6.728
 1646SOL     OW 6834   4.663   3.272  13.295
 1646SOL    HW1 6835   4.710   3.333  13.353
 1646SOL    HW2 6836   4.649   3.322  13.215
 1647SOL     OW 6837  10.192   7.183  11.782
 1647SOL    HW1 6838  10.107   7.205  11.820
 1647SOL    HW2 6839  10.184   7.091  11.757
 1648SOL     OW 6840   8.567   3.495  12.063
 1648SOL    HW1 6841   8.546   3.473  11.972
 1648SOL    HW2 6842   8.657   3.529  12.059
 1649SOL     OW 6843  10.634   9.879  11.050
 1649SOL    HW1 6844  10.652   9.852  11.140
 1649SOL    HW2 6845  10.689   9.956  11.036
 1650SOL     OW 6846  11.514  10.289   7.760
 1650SOL    HW1 6847  11.516  10.383   7.746
 1650SOL    HW2 6848  11.473  10.253   7.682
 1651SOL     OW 6849   5.184   7.051   5.179
 1651SOL    HW1 6850   5.234   7.131   5.198
 1651SOL    HW2 6851   5.109   7.055   5.237
 1652SOL     OW 6852   7.466   0.345   4.489
 1652SOL    HW1 6853   7.541   0.388   4.448
 1652SOL    HW2 6854   7.437   0.280   4.425
 1653SOL     OW 6855   4.342  13.132   0.741
 1653SOL    HW1 6856   4.332  13.205   0.802
 1653SOL    HW2 6857   4.436  13.122   0.731
 1654SOL     OW 6858   1.779  13.890  11.394
 1654SOL    HW1 6859   1.852  13.846  11.350
 1654SOL    HW2 6860   1.762  13.837  11.471
 1655SOL     OW 6861   9.620  10.732   3.771
 1655SOL    HW1 6862   9.594  10.780   3.692
 1655SOL    HW2 6863   9.573  10.776   3.842
 1656SOL     OW 6864  14.443   1.964  10.914
 1656SOL    HW1 6865  14.451   1.999  10.825
 1656SOL    HW2 6866  14.355   1.926  10.917
 1657SOL     OW 6867  14.766   1.460   9.416
 1657SOL    HW1 6868  14.714   1.537   9.438
 1657SOL    HW2 6869  14.715   1.415   9.349
 1658SOL     OW 6870  13.204   4.904   1.841
 1658SOL    HW1 6871  13.176   4.982   1.888
 1658SOL    HW2 6872  13.126   4.847   1.842
 1659SOL     OW 6873   7.476  12.385   6.333
 1659SOL    HW1 6874   7.416  12.394   6.407
 1659SOL    HW2 6875   7.544  12.325   6.365
 1660SOL     OW 6876   7.178   1.465   4.394
 1660SOL    HW1 6877   7.110   1.498   4.337
 1660SOL    HW2 6878   7.187   1.531   4.463
 1661SOL     OW 6879  11.149  12.532   7.578
 1661SOL    HW1 6880  11.239  12.501   7.584
 1661SOL    HW2 6881  11.096  12.457   7.605
 1662SOL     OW 6882   0.057  11.818   2.851
 1662SOL    HW1 6883   0.046  11.737   2.900
 1662SOL    HW2 6884   0.091  11.881   2.914
 1663SOL     OW 6885   1.785  14.509   1.241
 1663SOL    HW1 6886   1.709  14.535   1.188
 1663SOL    HW2 6887   1.749  14.494   1.328
 1664SOL     OW 6888  11.992   4.920   2.379
 1664SOL    HW1 6889  12.019   5.010   2.365
 1664SOL    HW2 6890  11.983   4.912   2.474
 1665SOL     OW 6891   3.610  13.909   0.492
 1665SOL    HW1 6892   3.564  13.887   0.573
 1665SOL    HW2 6893   3.702  13.915   0.517
 1666SOL     OW 6894   7.876   9.940   3.262
 1666SOL    HW1 6895   7.864   9.980   3.348
 1666SOL    HW2 6896   7.872   9.846   3.278
 1667SOL     OW 6897   6.910  12.577   1.680
 1667SOL    HW1 6898   6.975  12.618   1.622
 1667SOL    HW2 6899   6.947  12.490   1.698
 1668SOL     OW 6900  13.608   1.616   2.076
 1668SOL    HW1 6901  13.512   1.618   2.069
 1668SOL    HW2 6902  13.632   1.526   2.053
 1669SOL     OW 6903   7.549   9.397   2.935
 1669SOL    HW1 6904   7.542   9.406   3.030
 1669SOL    HW2 6905   7.638   9.428   2.915
 1670SOL     OW 6906   1.678  10.511  14.341
 1670SOL    HW1 6907   1.697  10.460  14.420
 1670SOL    HW2 6908   1.760  10.510  14.292
 1671SOL     OW 6909  14.014   4.653  11.303
 1671SOL    HW1 6910  13.970   4.663  11.218
 1671SOL    HW2 6911  13.970   4.578  11.343
 1672SOL     OW 6912  11.362   8.484   6.939
 1672SOL    HW1 6913  11.320   8.553   6.888
 1672SOL    HW2 6914  11.303   8.471   7.013
 1673SOL     OW 6915   1.225   9.137  13.012
 1673SOL    HW1 6916   1.154   9.077  12.987
 1673SOL    HW2 6917   1.279   9.143  12.933
 1674SOL     OW 6918  10.203   2.884   9.497
 1674SOL    HW1 6919  10.251   2.881   9.415
 1674SOL    HW2 6920  10.172   2.974   9.503
 1675SOL     OW 6921  11.275   6.214   9.997
 1675SOL    HW1 6922  11.197   6.269   9.994
 1675SOL    HW2 6923  11.347   6.275  10.009
 1676SOL     OW 6924   6.769   7.526   5.584
 1676SOL    HW1 6925   6.733   7.578   5.511
 1676SOL    HW2 6926   6.692   7.500   5.635
 1677SOL     OW 6927   7.059   5.088   6.164
 1677SOL    HW1 6928   6.986   5.063   6.108
 1677SOL    HW2 6929   7.044   5.040   6.246
 1678SOL     OW 6930   8.266  13.522  10.450
 1678SOL    HW1 6931   8.194  13.479  10.495
 1678SOL    HW2 6932   8.223  13.574  10.381
 1679SOL     OW 6933   7.110   8.059  10.210
 1679SOL    HW1 6934   7.179   8.029  10.269
 1679SOL    HW2 6935   7.104   7.989  10.144
 1680SOL     OW 6936   1.256  12.656  13.315
 1680SOL    HW1 6937   1.223  12.635  13.402
 1680SOL    HW2 6938   1.234  12.749  13.303
 1681SOL     OW 6939   9.199  10.244   7.140
 1681SOL    HW1 6940   9.263  10.174   7.132
 1681SOL    HW2 6941   9.173  10.263   7.049
 1682SOL     OW 6942  12.674   8.217  13.525
 1682SOL    HW1 6943  12.605   8.178  13.579
 1682SOL    HW2 6944  12.677   8.309  13.553
 1683SOL     OW 6945  13.120   4.011   1.638
 1683SOL    HW1 6946  13.143   4.054   1.720
 1683SOL    HW2 6947  13.077   4.079   1.587
 1684SOL     OW 6948  13.997   5.953   4.846
 1684SOL    HW1 6949  14.005   5.878   4.906
 1684SOL    HW2 6950  14.045   5.926   4.768
 1685SOL     OW 6951   4.881   6.128  11.916
 1685SOL    HW1 6952   4.813   6.153  11.853
 1685SOL    HW2 6953   4.838   6.063  11.973
 1686SOL     OW 6954   6.367   5.919   2.928
 1686SOL    HW1 6955   6.356   5.824   2.926
 1686SOL    HW2 6956   6.278   5.954   2.917
 1687SOL     OW 6957  11.930  10.512  12.661
 1687SOL    HW1 6958  11.980  10.589  12.690
 1687SOL    HW2 6959  11.861  10.502  12.727
 1688SOL     OW 6960   3.220   5.712   6.526
 1688SOL    HW1 6961   3.222   5.744   6.616
 1688SOL    HW2 6962   3.153   5.645   6.526
 1689SOL     OW 6963   8.091  14.109  12.539
 1689SOL    HW1 6964   8.039  14.104  12.619
 1689SOL    HW2 6965   8.159  14.042  12.551
 1690SOL     OW 6966  10.488  12.360   7.952
 1690SOL    HW1 6967  10.507  12.323   7.866
 1690SOL    HW2 6968  10.460  12.450   7.934
 1691SOL     OW 6969  14.521  14.483   3.474
 1691SOL    HW1 6970  14.607  14.524   3.482
 1691SOL    HW2 6971  14.535  14.408   3.417
 1692SOL     OW 6972   4.163  11.187  13.865
 1692SOL    HW1 6973   4.213  11.118  13.909
 1692SOL    HW2 6974   4.162  11.260  13.928
 1693SOL     OW 6975  13.069   9.054  13.867
 1693SOL    HW1 6976  12.980   9.042  13.901
 1693SOL    HW2 6977  13.125   9.012  13.932
 1694SOL     OW 6978   7.978  14.763   5.343
 1694SOL    HW1 6979   7.915  14.816   5.392
 1694SOL    HW2 6980   8.054  14.819   5.332
 1695SOL     OW 6981   8.768  14.077   9.770
 1695SOL    HW1 6982   8.840  14.048   9.715
 1695SOL    HW2 6983   8.694  14.087   9.709
 1696SOL     OW 6984   5.867   4.582   8.206
 1696SOL    HW1 6985   5.884   4.646   8.137
 1696SOL    HW2 6986   5.838   4.634   8.280
 1697SOL     OW 6987   1.560  14.417  14.367
 1697SOL    HW1 6988   1.587  14.336  14.326
 1697SOL    HW2 6989   1.606  14.486  14.318
 1698SOL     OW 6990   9.492   8.057  10.253
 1698SOL    HW1 6991   9.427   8.005  10.300
 1698SOL    HW2 6992   9.444   8.092  10.178
 1699SOL     OW 6993   9.054   7.131  10.258
 1699SOL    HW1 6994   9.024   7.125  10.348
 1699SOL    HW2 6995   9.139   7.174  10.263
 1700SOL     OW 6996  12.407  10.756   8.283
 1700SOL    HW1 6997  12.476  10.690   8.281
 1700SOL    HW2 6998  12.415  10.802   8.199
 1701SOL     OW 6999  11.774   6.214   6.900
 1701SOL    HW1 7000  11.834   6.217   6.825
 1701SOL    HW2 7001  11.699   6.267   6.872
 1702SOL     OW 7002  10.242   4.922  13.093
 1702SOL    HW1 7003  10.182   4.950  13.162
 1702SOL    HW2 7004  10.210   4.964  13.014
 1703SOL     OW 7005   6.465   0.365  10.139
 1703SOL    HW1 7006   6.449   0.312  10.061
 1703SOL    HW2 7007   6.418   0.320  10.209
 1704SOL     OW 7008   9.858  12.323   5.071
 1704SOL    HW1 7009   9.823  12.261   5.007
 1704SOL    HW2 7010   9.823  12.293   5.155
 1705SOL     OW 7011   2.683   6.994  12.650
 1705SOL    HW1 7012   2.742   6.922  12.629
 1705SOL    HW2 7013   2.597   6.953  12.659
 1706SOL     OW 7014   3.047   6.029   6.870
 1706SOL    HW1 7015   3.039   5.969   6.944
 1706SOL    HW2 7016   3.091   5.978   6.802
 1707SOL     OW 7017  11.298   6.727   7.331
 1707SOL    HW1 7018  11.390   6.754   7.340
 1707SOL    HW2 7019  11.253   6.807   7.302
 1708SOL     OW 7020   1.737  12.440   5.755
 1708SOL    HW1 7021   1.725  12.445   5.660
 1708SOL    HW2 7022   1.704  12.354   5.779
 1709SOL     OW 7023   2.190  12.317   2.450
 1709SOL    HW1 7024   2.240  12.248   2.494
 1709SOL    HW2 7025   2.116  12.272   2.410
 1710SOL     OW 7026   2.416   0.233  14.880
 1710SOL    HW1 7027   2.468   0.311   0.008
 1710SOL    HW2 7028   2.333   0.266  14.845
 1711SOL     OW 7029   9.854  11.696   6.178
 1711SOL    HW1 7030   9.846  11.703   6.273
 1711SOL    HW2 7031   9.817  11.777   6.144
 1712SOL     OW 7032  12.433  10.252  11.420
 1712SOL    HW1 7033  12.461  10.316  11.354
 1712SOL    HW2 7034  12.514  10.222  11.460
 1713SOL     OW 7035   4.051   0.163  14.718
 1713SOL    HW1 7036   4.088   0.251  14.712
 1713SOL    HW2 7037   4.124   0.104  14.702
 1714SOL     OW 7038   5.114   8.867   5.861
 1714SOL    HW1 7039   5.057   8.821   5.922
 1714SOL    HW2 7040   5.133   8.950   5.904
 1715SOL     OW 7041  12.604   7.310  14.650
 1715SOL    HW1 7042  12.691   7.346  14.630
 1715SOL    HW2 7043  12.587   7.335  14.740
 1716SOL     OW 7044   1.941   0.043   5.512
 1716SOL    HW1 7045   1.857   0.086   5.527
 1716SOL    HW2 7046   1.919  14.846   5.475
 1717SOL     OW 7047  14.753   4.320   4.997
 1717SOL    HW1 7048  14.671   4.286   4.961
 1717SOL    HW2 7049  14.821   4.275   4.947
 1718SOL     OW 7050   8.890   4.387   4.410
 1718SOL    HW1 7051   8.802   4.385   4.447
 1718SOL    HW2 7052   8.941   4.438   4.474
 1719SOL     OW 7053   6.218   7.674   1.097
 1719SOL    HW1 7054   6.144   7.634   1.144
 1719SOL    HW2 7055   6.196   7.663   1.004
 1720SOL     OW 7056   6.268  12.545  10.850
 1720SOL    HW1 7057   6.256  12.614  10.785
 1720SOL    HW2 7058   6.180  12.532  10.887
 1721SOL     OW 7059  10.512  13.212   8.033
 1721SOL    HW1 7060  10.597  13.219   8.075
 1721SOL    HW2 7061  10.521  13.140   7.971
 1722SOL     OW 7062  13.872  10.842  13.595
 1722SOL    HW1 7063  13.777  10.837  13.602
 1722SOL    HW2 7064  13.900  10.876  13.679
 1723SOL     OW 7065   6.736   8.193  11.862
 1723SOL    HW1 7066   6.703   8.105  11.842
 1723SOL    HW2 7067   6.733   8.198  11.958
 1724SOL     OW 7068   1.009   3.340   2.489
 1724SOL    HW1 7069   0.990   3.397   2.414
 1724SOL    HW2 7070   1.088   3.292   2.465
 1725SOL     OW 7071  14.658  14.336   0.629
 1725SOL    HW1 7072  14.642  14.305   0.718
 1725SOL    HW2 7073  14.573  14.366   0.598
 1726SOL     OW 7074   0.775   7.742   4.574
 1726SOL    HW1 7075   0.749   7.663   4.527
 1726SOL    HW2 7076   0.871   7.741   4.571
 1727SOL     OW 7077   3.841   6.157   4.699
 1727SOL    HW1 7078   3.782   6.207   4.756
 1727SOL    HW2 7079   3.828   6.066   4.725
 1728SOL     OW 7080   2.681   2.190   7.082
 1728SOL    HW1 7081   2.590   2.220   7.086
 1728SOL    HW2 7082   2.724   2.235   7.155
 1729SOL     OW 7083   7.489  10.952  12.824
 1729SOL    HW1 7084   7.523  10.935  12.912
 1729SOL    HW2 7085   7.554  10.914  12.765
 1730SOL     OW 7086   0.380   6.687  10.623
 1730SOL    HW1 7087   0.294   6.712  10.590
 1730SOL    HW2 7088   0.382   6.721  10.713
 1731SOL     OW 7089   0.269   5.790   0.554
 1731SOL    HW1 7090   0.295   5.743   0.633
 1731SOL    HW2 7091   0.305   5.879   0.566
 1732SOL     OW 7092   0.620  11.434   3.123
 1732SOL    HW1 7093   0.586  11.523   3.112
 1732SOL    HW2 7094   0.546  11.384   3.159
 1733SOL     OW 7095   1.216   7.694   3.344
 1733SOL    HW1 7096   1.150   7.755   3.377
 1733SOL    HW2 7097   1.187   7.673   3.255
 1734SOL     OW 7098   9.029   3.657   2.149
 1734SOL    HW1 7099   9.043   3.702   2.066
 1734SOL    HW2 7100   9.117   3.647   2.186
 1735SOL     OW 7101  13.824   7.013  13.975
 1735SOL    HW1 7102  13.800   7.092  14.024
 1735SOL    HW2 7103  13.816   7.038  13.883
 1736SOL     OW 7104  11.372  11.124   3.101
 1736SOL    HW1 7105  11.354  11.185   3.030
 1736SOL    HW2 7106  11.461  11.093   3.084
 1737SOL     OW 7107   3.685  14.839   1.635
 1737SOL    HW1 7108   3.702   0.001   1.715
 1737SOL    HW2 7109   3.761  14.781   1.626
 1738SOL     OW 7110   8.422   2.607   2.680
 1738SOL    HW1 7111   8.430   2.530   2.736
 1738SOL    HW2 7112   8.466   2.582   2.598
 1739SOL     OW 7113   1.000  11.123  10.398
 1739SOL    HW1 7114   0.942  11.185  10.355
 1739SOL    HW2 7115   1.083  11.169  10.406
 1740SOL     OW 7116   4.179  11.994  11.072
 1740SOL    HW1 7117   4.237  12.069  11.065
 1740SOL    HW2 7118   4.102  12.018  11.019
 1741SOL     OW 7119   8.839  10.599   7.423
 1741SOL    HW1 7120   8.804  10.525   7.473
 1741SOL    HW2 7121   8.766  10.629   7.369
 1742SOL     OW 7122   7.974  10.572  14.021
 1742SOL    HW1 7123   7.886  10.608  14.034
 1742SOL    HW2 7124   7.961  10.477  14.019
 1743SOL     OW 7125  10.218   8.931  13.674
 1743SOL    HW1 7126  10.287   8.921  13.608
 1743SOL    HW2 7127  10.242   9.010  13.722
 1744SOL     OW 7128   3.009  12.044  13.259
 1744SOL    HW1 7129   3.078  12.109  13.256
 1744SOL    HW2 7130   2.989  12.033  13.352
 1745SOL     OW 7131   1.386  10.644   3.766
 1745SOL    HW1 7132   1.440  10.635   3.688
 1745SOL    HW2 7133   1.386  10.556   3.806
 1746SOL     OW 7134   7.785  12.133   2.415
 1746SOL    HW1 7135   7.829  12.082   2.483
 1746SOL    HW2 7136   7.811  12.223   2.431
 1747SOL     OW 7137  14.509   5.440  13.693
 1747SOL    HW1 7138  14.422   5.403  13.708
 1747SOL    HW2 7139  14.568   5.384  13.744
 1748SOL     OW 7140   1.482   9.432   8.907
 1748SOL    HW1 7141   1.463   9.338   8.916
 1748SOL    HW2 7142   1.577   9.436   8.895
 1749SOL     OW 7143  11.044   7.581  13.591
 1749SOL    HW1 7144  11.030   7.600  13.683
 1749SOL    HW2 7145  11.120   7.523  13.589
 1750SOL     OW 7146   8.716  14.105   9.259
 1750SOL    HW1 7147   8.791  14.054   9.289
 1750SOL    HW2 7148   8.719  14.100   9.164
 1751SOL     OW 7149   5.581   7.081   7.258
 1751SOL    HW1 7150   5.486   7.086   7.265
 1751SOL    HW2 7151   5.613   7.113   7.342
 1752SOL     OW 7152   3.486   4.769   7.513
 1752SOL    HW1 7153   3.421   4.774   7.583
 1752SOL    HW2 7154   3.469   4.846   7.458
 1753SOL     OW 7155   8.107   8.373   9.021
 1753SOL    HW1 7156   8.201   8.364   9.004
 1753SOL    HW2 7157   8.098   8.360   9.115
 1754SOL     OW 7158   8.982   8.436   7.329
 1754SOL    HW1 7159   9.004   8.343   7.338
 1754SOL    HW2 7160   8.956   8.446   7.238
 1755SOL     OW 7161   5.325  13.589   1.260
 1755SOL    HW1 7162   5.370  13.649   1.201
 1755SOL    HW2 7163   5.354  13.502   1.232
 1756SOL     OW 7164   3.894   3.267   0.964
 1756SOL    HW1 7165   3.871   3.174   0.956
 1756SOL    HW2 7166   3.832   3.302   1.027
 1757SOL     OW 7167   0.727   5.778   1.201
 1757SOL    HW1 7168   0.751   5.702   1.254
 1757SOL    HW2 7169   0.751   5.754   1.112
 1758SOL     OW 7170   3.986   8.904  12.426
 1758SOL    HW1 7171   4.078   8.906  12.403
 1758SOL    HW2 7172   3.953   8.821  12.391
 1759SOL     OW 7173   7.888   7.267   5.434
 1759SOL    HW1 7174   7.936   7.306   5.507
 1759SOL    HW2 7175   7.891   7.333   5.365
 1760SOL     OW 7176   3.217   7.495   1.004
 1760SOL    HW1 7177   3.271   7.470   1.079
 1760SOL    HW2 7178   3.128   7.480   1.033
 1761SOL     OW 7179   3.169  11.540   6.698
 1761SOL    HW1 7180   3.236  11.600   6.665
 1761SOL    HW2 7181   3.218  11.469   6.739
 1762SOL     OW 7182   3.756   4.894   0.952
 1762SOL    HW1 7183   3.721   4.847   0.877
 1762SOL    HW2 7184   3.684   4.897   1.015
 1763SOL     OW 7185   0.436  10.799   7.838
 1763SOL    HW1 7186   0.371  10.864   7.811
 1763SOL    HW2 7187   0.520  10.844   7.826
 1764SOL     OW 7188   4.754   0.832   0.614
 1764SOL    HW1 7189   4.771   0.761   0.676
 1764SOL    HW2 7190   4.662   0.820   0.589
 1765SOL     OW 7191   3.309   1.940   3.700
 1765SOL    HW1 7192   3.263   1.952   3.617
 1765SOL    HW2 7193   3.347   2.025   3.719
 1766SOL     OW 7194   7.909  12.810   2.863
 1766SOL    HW1 7195   7.825  12.841   2.830
 1766SOL    HW2 7196   7.906  12.715   2.849
 1767SOL     OW 7197  13.809   7.771   1.997
 1767SOL    HW1 7198  13.745   7.828   2.041
 1767SOL    HW2 7199  13.799   7.686   2.041
 1768SOL     OW 7200   6.800   5.378   8.321
 1768SOL    HW1 7201   6.746   5.455   8.338
 1768SOL    HW2 7202   6.888   5.403   8.351
 1769SOL     OW 7203  11.167  13.826   5.778
 1769SOL    HW1 7204  11.142  13.808   5.869
 1769SOL    HW2 7205  11.084  13.833   5.731
 1770SOL     OW 7206  12.459   4.043  13.972
 1770SOL    HW1 7207  12.526   3.981  13.997
 1770SOL    HW2 7208  12.506   4.112  13.925
 1771SOL     OW 7209   8.447   9.010   0.878
 1771SOL    HW1 7210   8.382   9.030   0.810
 1771SOL    HW2 7211   8.401   8.953   0.939
 1772SOL     OW 7212   6.695   3.693  11.864
 1772SOL    HW1 7213   6.718   3.607  11.900
 1772SOL    HW2 7214   6.736   3.694  11.777
 1773SOL     OW 7215   3.945   4.505  10.694
 1773SOL    HW1 7216   3.855   4.479  10.710
 1773SOL    HW2 7217   3.968   4.464  10.611
 1774SOL     OW 7218  11.416   1.650  11.373
 1774SOL    HW1 7219  11.428   1.683  11.284
 1774SOL    HW2 7220  11.378   1.725  11.421
 1775SOL     OW 7221   6.687   0.695   0.837
 1775SOL    HW1 7222   6.678   0.635   0.764
 1775SOL    HW2 7223   6.597   0.714   0.865
 1776SOL     OW 7224   6.949   2.494   6.730
 1776SOL    HW1 7225   7.003   2.488   6.651
 1776SOL    HW2 7226   6.861   2.475   6.700
 1777SOL     OW 7227   2.152   4.388   9.038
 1777SOL    HW1 7228   2.205   4.346   8.970
 1777SOL    HW2 7229   2.164   4.332   9.116
 1778SOL     OW 7230  13.039  10.839   2.878
 1778SOL    HW1 7231  13.085  10.814   2.958
 1778SOL    HW2 7232  12.950  10.809   2.891
 1779SOL     OW 7233   5.778   8.204   6.700
 1779SOL    HW1 7234   5.757   8.295   6.680
 1779SOL    HW2 7235   5.872   8.196   6.683
 1780SOL     OW 7236   3.249  12.960   4.940
 1780SOL    HW1 7237   3.254  12.874   4.899
 1780SOL    HW2 7238   3.306  12.954   5.017
 1781SOL     OW 7239   9.649   9.102   7.914
 1781SOL    HW1 7240   9.602   9.052   7.847
 1781SOL    HW2 7241   9.627   9.058   7.996
 1782SOL     OW 7242  10.925   5.288   5.909
 1782SOL    HW1 7243  10.907   5.198   5.881
 1782SOL    HW2 7244  10.958   5.332   5.831
 1783SOL     OW 7245   8.637   1.610   4.146
 1783SOL    HW1 7246   8.556   1.602   4.095
 1783SOL    HW2 7247   8.682   1.527   4.131
 1784SOL     OW 7248  11.466   3.868   5.791
 1784SOL    HW1 7249  11.446   3.958   5.763
 1784SOL    HW2 7250  11.382   3.822   5.784
 1785SOL     OW 7251  13.784   2.157   1.631
 1785SOL    HW1 7252  13.797   2.251   1.632
 1785SOL    HW2 7253  13.800   2.130   1.722
 1786SOL     OW 7254   7.537  11.566  10.507
 1786SOL    HW1 7255   7.503  11.477  10.502
 1786SOL    HW2 7256   7.532  11.599  10.417
 1787SOL     OW 7257  14.386   3.135   0.752
 1787SOL    HW1 7258  14.372   3.177   0.667
 1787SOL    HW2 7259  14.467   3.085   0.742
 1788SOL     OW 7260   4.032   3.078   1.483
 1788SOL    HW1 7261   3.982   3.063   1.563
 1788SOL    HW2 7262   4.119   3.105   1.514
 1789SOL     OW 7263   0.998   8.684   1.114
 1789SOL    HW1 7264   1.088   8.707   1.090
 1789SOL    HW2 7265   0.978   8.607   1.060
 1790SOL     OW 7266  11.831   2.848   3.270
 1790SOL    HW1 7267  11.915   2.809   3.292
 1790SOL    HW2 7268  11.806   2.896   3.349
 1791SOL     OW 7269  10.196   4.330   4.642
 1791SOL    HW1 7270  10.112   4.364   4.672
 1791SOL    HW2 7271  10.205   4.245   4.685
 1792SOL     OW 7272  10.264  14.305   5.343
 1792SOL    HW1 7273  10.287  14.246   5.271
 1792SOL    HW2 7274  10.193  14.260   5.389
 1793SOL     OW 7275   7.746   1.490   0.174
 1793SOL    HW1 7276   7.665   1.519   0.217
 1793SOL    HW2 7277   7.805   1.564   0.182
 1794SOL     OW 7278   2.873  12.106  13.969
 1794SOL    HW1 7279   2.921  12.046  14.026
 1794SOL    HW2 7280   2.909  12.193  13.992
 1795SOL     OW 7281  11.627  11.002   3.917
 1795SOL    HW1 7282  11.609  11.048   3.998
 1795SOL    HW2 7283  11.722  11.008   3.906
 1796SOL     OW 7284  10.978  11.811  13.907
 1796SOL    HW1 7285  10.929  11.775  13.981
 1796SOL    HW2 7286  11.036  11.740  13.880
 1797SOL     OW 7287   0.626   3.370   1.293
 1797SOL    HW1 7288   0.583   3.290   1.323
 1797SOL    HW2 7289   0.604   3.376   1.200
 1798SOL     OW 7290  12.680  10.961   4.673
 1798SOL    HW1 7291  12.600  10.915   4.648
 1798SOL    HW2 7292  12.721  10.985   4.590
 1799SOL     OW 7293   4.268   6.390  14.377
 1799SOL    HW1 7294   4.211   6.400  14.453
 1799SOL    HW2 7295   4.237   6.309  14.335
 1800SOL     OW 7296  14.575   4.756   3.533
 1800SOL    HW1 7297  14.620   4.766   3.617
 1800SOL    HW2 7298  14.514   4.830   3.529
 1801SOL     OW 7299  13.390   7.910  12.006
 1801SOL    HW1 7300  13.326   7.981  12.000
 1801SOL    HW2 7301  13.451   7.938  12.073
 1802SOL     OW 7302  11.300   6.132   4.049
 1802SOL    HW1 7303  11.353   6.086   4.114
 1802SOL    HW2 7304  11.323   6.091   3.966
 1803SOL     OW 7305   6.802   6.628  11.544
 1803SOL    HW1 7306   6.782   6.539  11.514
 1803SOL    HW2 7307   6.882   6.652  11.496
 1804SOL     OW 7308  11.978   6.204  14.485
 1804SOL    HW1 7309  12.066   6.169  14.471
 1804SOL    HW2 7310  11.957   6.249  14.404
 1805SOL     OW 7311   4.516   5.254   8.910
 1805SOL    HW1 7312   4.567   5.223   8.835
 1805SOL    HW2 7313   4.470   5.331   8.878
 1806SOL     OW 7314   1.699   8.658   6.916
 1806SOL    HW1 7315   1.703   8.574   6.871
 1806SOL    HW2 7316   1.609   8.688   6.904
 1807SOL     OW 7317  10.593   6.393   4.062
 1807SOL    HW1 7318  10.624   6.448   3.990
 1807SOL    HW2 7319  10.498   6.384   4.047
 1808SOL     OW 7320  14.690   4.660  11.545
 1808SOL    HW1 7321  14.667   4.604  11.471
 1808SOL    HW2 7322  14.686   4.602  11.621
 1809SOL     OW 7323  12.886   7.625   1.300
 1809SOL    HW1 7324  12.861   7.680   1.375
 1809SOL    HW2 7325  12.838   7.543   1.314
 1810SOL     OW 7326   9.481   4.738  11.976
 1810SOL    HW1 7327   9.473   4.728  12.071
 1810SOL    HW2 7328   9.399   4.704  11.941
 1811SOL     OW 7329   4.999   7.552   8.634
 1811SOL    HW1 7330   4.995   7.638   8.593
 1811SOL    HW2 7331   5.091   7.541   8.659
 1812SOL     OW 7332  14.210   2.396   7.005
 1812SOL    HW1 7333  14.143   2.338   6.969
 1812SOL    HW2 7334  14.192   2.396   7.099
 1813SOL     OW 7335   0.827   5.711   9.703
 1813SOL    HW1 7336   0.900   5.738   9.646
 1813SOL    HW2 7337   0.826   5.777   9.772
 1814SOL     OW 7338   0.268   9.475  10.305
 1814SOL    HW1 7339   0.251   9.466  10.211
 1814SOL    HW2 7340   0.353   9.518  10.310
 1815SOL     OW 7341   4.159   4.600   3.277
 1815SOL    HW1 7342   4.231   4.588   3.339
 1815SOL    HW2 7343   4.080   4.590   3.329
 1816SOL     OW 7344   8.396   3.691   1.192
 1816SOL    HW1 7345   8.322   3.744   1.224
 1816SOL    HW2 7346   8.462   3.755   1.167
 1817SOL     OW 7347  12.408  14.130   1.393
 1817SOL    HW1 7348  12.438  14.059   1.449
 1817SOL    HW2 7349  12.326  14.099   1.355
 1818SOL     OW 7350   8.779   0.394   9.653
 1818SOL    HW1 7351   8.816   0.408   9.740
 1818SOL    HW2 7352   8.829   0.452   9.596
 1819SOL     OW 7353  12.104   6.314   0.793
 1819SOL    HW1 7354  12.048   6.331   0.718
 1819SOL    HW2 7355  12.046   6.275   0.858
 1820SOL     OW 7356   2.566   2.339  11.310
 1820SOL    HW1 7357   2.545   2.384  11.228
 1820SOL    HW2 7358   2.635   2.277  11.286
 1821SOL     OW 7359   6.709   3.263  11.799
 1821SOL    HW1 7360   6.715   3.168  11.808
 1821SOL    HW2 7361   6.796   3.290  11.767
 1822SOL     OW 7362  13.310  13.852   5.000
 1822SOL    HW1 7363  13.339  13.832   5.088
 1822SOL    HW2 7364  13.378  13.909   4.964
 1823SOL     OW 7365   1.674  13.975   2.382
 1823SOL    HW1 7366   1.736  13.950   2.314
 1823SOL    HW2 7367   1.595  14.001   2.335
 1824SOL     OW 7368  13.228   6.178   2.375
 1824SOL    HW1 7369  13.149   6.138   2.411
 1824SOL    HW2 7370  13.196   6.258   2.332
 1825SOL     OW 7371   1.351  14.452   2.644
 1825SOL    HW1 7372   1.329  14.455   2.551
 1825SOL    HW2 7373   1.433  14.500   2.652
 1826SOL     OW 7374  12.189   5.199  10.168
 1826SOL    HW1 7375  12.180   5.109  10.137
 1826SOL    HW2 7376  12.281   5.220  10.153
 1827SOL     OW 7377  12.903   2.664   0.566
 1827SOL    HW1 7378  12.918   2.621   0.481
 1827SOL    HW2 7379  12.875   2.594   0.624
 1828SOL     OW 7380  12.500   1.420  10.248
 1828SOL    HW1 7381  12.442   1.456  10.315
 1828SOL    HW2 7382  12.441   1.387  10.180
 1829SOL     OW 7383   7.835   3.593  13.468
 1829SOL    HW1 7384   7.878   3.558  13.546
 1829SOL    HW2 7385   7.746   3.558  13.472
 1830SOL     OW 7386   5.569  14.714   0.878
 1830SOL    HW1 7387   5.585  14.802   0.844
 1830SOL    HW2 7388   5.505  14.726   0.948
 1831SOL     OW 7389   4.206   6.659   2.939
 1831SOL    HW1 7390   4.155   6.690   3.013
 1831SOL    HW2 7391   4.267   6.731   2.920
 1832SOL     OW 7392   7.514  11.121   9.544
 1832SOL    HW1 7393   7.492  11.100   9.634
 1832SOL    HW2 7394   7.609  11.134   9.544
 1833SOL     OW 7395   8.779   0.429   6.720
 1833SOL    HW1 7396   8.778   0.512   6.768
 1833SOL    HW2 7397   8.729   0.369   6.775
 1834SOL     OW 7398   8.084  12.033  10.346
 1834SOL    HW1 7399   7.991  12.015  10.336
 1834SOL    HW2 7400   8.126  11.990  10.272
 1835SOL     OW 7401   1.578   0.275   7.640
 1835SOL    HW1 7402   1.556   0.357   7.683
 1835SOL    HW2 7403   1.516   0.211   7.676
 1836SOL     OW 7404  14.175  13.699   7.886
 1836SOL    HW1 7405  14.117  13.748   7.944
 1836SOL    HW2 7406  14.142  13.609   7.889
 1837SOL     OW 7407   2.447  11.083   8.631
 1837SOL    HW1 7408   2.402  11.121   8.706
 1837SOL    HW2 7409   2.507  11.019   8.669
 1838SOL     OW 7410   2.448   8.491  14.339
 1838SOL    HW1 7411   2.390   8.562  14.365
 1838SOL    HW2 7412   2.395   8.438  14.278
 1839SOL     OW 7413   0.732  13.447   6.230
 1839SOL    HW1 7414   0.792  13.511   6.269
 1839SOL    HW2 7415   0.660  13.439   6.293
 1840SOL     OW 7416   1.872   6.339   4.543
 1840SOL    HW1 7417   1.955   6.313   4.583
 1840SOL    HW2 7418   1.807   6.325   4.613
 1841SOL     OW 7419  11.128   6.032   3.441
 1841SOL    HW1 7420  11.135   6.033   3.536
 1841SOL    HW2 7421  11.132   6.124   3.416
 1842SOL     OW 7422   8.956   4.141   7.029
 1842SOL    HW1 7423   8.879   4.140   7.086
 1842SOL    HW2 7424   9.020   4.195   7.076
 1843SOL     OW 7425  12.638  12.089   5.940
 1843SOL    HW1 7426  12.652  12.168   5.888
 1843SOL    HW2 7427  12.544  12.072   5.933
 1844SOL     OW 7428   9.673   0.205   9.920
 1844SOL    HW1 7429   9.713   0.135   9.971
 1844SOL    HW2 7430   9.665   0.278   9.983
 1845SOL     OW 7431   9.337   9.770   3.141
 1845SOL    HW1 7432   9.249   9.776   3.179
 1845SOL    HW2 7433   9.376   9.856   3.157
 1846SOL     OW 7434   9.890  12.328  13.163
 1846SOL    HW1 7435   9.841  12.247  13.180
 1846SOL    HW2 7436   9.863  12.387  13.234
 1847SOL     OW 7437   5.229   6.943  13.833
 1847SOL    HW1 7438   5.267   6.885  13.767
 1847SOL    HW2 7439   5.142   6.905  13.851
 1848SOL     OW 7440  11.057   8.531   3.330
 1848SOL    HW1 7441  10.977   8.482   3.348
 1848SOL    HW2 7442  11.111   8.517   3.408
 1849SOL     OW 7443  12.283   3.765  11.233
 1849SOL    HW1 7444  12.258   3.797  11.319
 1849SOL    HW2 7445  12.257   3.835  11.173
 1850SOL     OW 7446   5.058   0.302   6.681
 1850SOL    HW1 7447   5.116   0.229   6.658
 1850SOL    HW2 7448   5.049   0.352   6.601
 1851SOL     OW 7449  11.622   4.826   1.975
 1851SOL    HW1 7450  11.571   4.793   2.049
 1851SOL    HW2 7451  11.690   4.761   1.962
 1852SOL     OW 7452   4.616   9.309   1.275
 1852SOL    HW1 7453   4.547   9.263   1.226
 1852SOL    HW2 7454   4.674   9.240   1.305
 1853SOL     OW 7455   2.398  10.136   9.729
 1853SOL    HW1 7456   2.415  10.119   9.822
 1853SOL    HW2 7457   2.369  10.227   9.727
 1854SOL     OW 7458  14.112  11.267   9.871
 1854SOL    HW1 7459  14.198  11.291   9.907
 1854SOL    HW2 7460  14.126  11.265   9.777
 1855SOL     OW 7461  10.581   1.441   8.890
 1855SOL    HW1 7462  10.572   1.525   8.934
 1855SOL    HW2 7463  10.491   1.413   8.872
 1856SOL     OW 7464   0.629   7.033  13.930
 1856SOL    HW1 7465   0.534   7.037  13.938
 1856SOL    HW2 7466   0.659   7.123  13.945
 1857SOL     OW 7467   5.754  12.003  14.401
 1857SOL    HW1 7468   5.774  12.095  14.385
 1857SOL    HW2 7469   5.802  11.982  14.481
 1858SOL     OW 7470   8.066   3.797   5.678
 1858SOL    HW1 7471   8.074   3.855   5.602
 1858SOL    HW2 7472   8.016   3.847   5.742
 1859SOL     OW 7473  14.492  12.535   5.030
 1859SOL    HW1 7474  14.585  12.518   5.043
 1859SOL    HW2 7475  14.463  12.576   5.111
 1860SOL     OW 7476  14.722   8.977   5.419
 1860SOL    HW1 7477  14.693   8.961   5.329
 1860SOL    HW2 7478  14.810   9.013   5.409
 1861SOL     OW 7479   5.861   0.133   1.388
 1861SOL    HW1 7480   5.860   0.158   1.296
 1861SOL    HW2 7481   5.801   0.194   1.430
 1862SOL     OW 7482  12.147  11.266  11.511
 1862SOL    HW1 7483  12.220  11.293  11.455
 1862SOL    HW2 7484  12.070  11.274  11.455
 1863SOL     OW 7485  12.282   5.219   7.153
 1863SOL    HW1 7486  12.231   5.269   7.217
 1863SOL    HW2 7487  12.217   5.180   7.095
 1864SOL     OW 7488  12.281   8.944   5.556
 1864SOL    HW1 7489  12.222   8.970   5.485
 1864SOL    HW2 7490  12.274   9.014   5.620
 1865SOL     OW 7491   1.728   4.701  11.264
 1865SOL    HW1 7492   1.743   4.771  11.327
 1865SOL    HW2 7493   1.636   4.710  11.239
 1866SOL     OW 7494   6.414   8.850   4.936
 1866SOL    HW1 7495   6.370   8.934   4.923
 1866SOL    HW2 7496   6.505   8.874   4.953
 1867SOL     OW 7497   3.801   9.732  12.946
 1867SOL    HW1 7498   3.763   9.708  12.861
 1867SOL    HW2 7499   3.737   9.793  12.984
 1868SOL     OW 7500  10.966  10.220   8.689
 1868SOL    HW1 7501  11.011  10.211   8.774
 1868SOL    HW2 7502  10.874  10.205   8.709
 1869SOL     OW 7503  11.361  12.531   8.800
 1869SOL    HW1 7504  11.420  12.468   8.759
 1869SOL    HW2 7505  11.294  12.548   8.734
 1870SOL     OW 7506   5.072  12.368   7.034
 1870SOL    HW1 7507   5.088  12.442   6.976
 1870SOL    HW2 7508   5.051  12.407   7.119
 1871SOL     OW 7509   2.240   4.460   7.958
 1871SOL    HW1 7510   2.185   4.520   8.008
 1871SOL    HW2 7511   2.262   4.508   7.878
 1872SOL     OW 7512   9.097  14.216   4.543
 1872SOL    HW1 7513   9.046  14.199   4.464
 1872SOL    HW2 7514   9.032  14.228   4.612
 1873SOL     OW 7515   5.695   2.431   7.468
 1873SOL    HW1 7516   5.753   2.405   7.396
 1873SOL    HW2 7517   5.685   2.526   7.457
 1874SOL     OW 7518  12.119   0.132  11.103
 1874SOL    HW1 7519  12.074   0.188  11.039
 1874SOL    HW2 7520  12.064   0.136  11.181
 1875SOL     OW 7521  12.637   0.777   8.723
 1875SOL    HW1 7522  12.587   0.776   8.804
 1875SOL    HW2 7523  12.597   0.709   8.668
 1876SOL     OW 7524   8.579   3.999  12.834
 1876SOL    HW1 7525   8.610   3.952  12.757
 1876SOL    HW2 7526   8.487   3.973  12.842
 1877SOL     OW 7527   8.368   4.407   3.860
 1877SOL    HW1 7528   8.428   4.336   3.839
 1877SOL    HW2 7529   8.293   4.364   3.902
 1878SOL     OW 7530   9.627  12.240  12.225
 1878SOL    HW1 7531   9.714  12.264  12.197
 1878SOL    HW2 7532   9.588  12.196  12.149
 1879SOL     OW 7533   4.857   7.832   5.244
 1879SOL    HW1 7534   4.853   7.761   5.308
 1879SOL    HW2 7535   4.902   7.903   5.289
 1880SOL     OW 7536  12.913   4.983   9.306
 1880SOL    HW1 7537  12.926   5.065   9.353
 1880SOL    HW2 7538  12.871   5.009   9.224
 1881SOL     OW 7539  12.295   4.374   5.440
 1881SOL    HW1 7540  12.261   4.434   5.507
 1881SOL    HW2 7541  12.252   4.291   5.459
 1882SOL     OW 7542  12.187   0.006   7.457
 1882SOL    HW1 7543  12.096  14.886   7.430
 1882SOL    HW2 7544  12.200   0.099   7.473
 1883SOL     OW 7545  14.627   8.235   5.444
 1883SOL    HW1 7546  14.700   8.272   5.495
 1883SOL    HW2 7547  14.661   8.151   5.412
 1884SOL     OW 7548   3.204   8.856   2.443
 1884SOL    HW1 7549   3.297   8.845   2.465
 1884SOL    HW2 7550   3.191   8.951   2.439
 1885SOL     OW 7551   7.073   5.384  11.482
 1885SOL    HW1 7552   7.146   5.336  11.443
 1885SOL    HW2 7553   7.055   5.337  11.563
 1886SOL     OW 7554  11.388  11.360   2.930
 1886SOL    HW1 7555  11.390  11.452   2.953
 1886SOL    HW2 7556  11.450  11.352   2.858
 1887SOL     OW 7557   0.216   3.201   3.884
 1887SOL    HW1 7558   0.136   3.252   3.897
 1887SOL    HW2 7559   0.250   3.187   3.973
 1888SOL     OW 7560   1.131  10.604  11.036
 1888SOL    HW1 7561   1.048  10.637  11.002
 1888SOL    HW2 7562   1.151  10.662  11.110
 1889SOL     OW 7563   9.519  10.560  12.791
 1889SOL    HW1 7564   9.534  10.582  12.699
 1889SOL    HW2 7565   9.449  10.494  12.789
 1890SOL     OW 7566   9.762   4.806   1.498
 1890SOL    HW1 7567   9.801   4.806   1.411
 1890SOL    HW2 7568   9.668   4.801   1.481
 1891SOL     OW 7569   5.921  12.130   9.157
 1891SOL    HW1 7570   5.995  12.092   9.111
 1891SOL    HW2 7571   5.852  12.063   9.150
 1892SOL     OW 7572   9.427   3.809   2.627
 1892SOL    HW1 7573   9.337   3.834   2.607
 1892SOL    HW2 7574   9.460   3.881   2.682
 1893SOL     OW 7575   3.526  10.759   0.596
 1893SOL    HW1 7576   3.620  10.755   0.574
 1893SOL    HW2 7577   3.525  10.781   0.690
 1894SOL     OW 7578   1.274  10.049   9.982
 1894SOL    HW1 7579   1.289  10.085  10.070
 1894SOL    HW2 7580   1.231   9.965   9.998
 1895SOL     OW 7581   0.501  14.489  13.353
 1895SOL    HW1 7582   0.503  14.500  13.258
 1895SOL    HW2 7583   0.524  14.575  13.387
 1896SOL     OW 7584  11.342  12.033   5.606
 1896SOL    HW1 7585  11.337  11.969   5.535
 1896SOL    HW2 7586  11.364  12.115   5.563
 1897SOL     OW 7587  12.359   2.739  10.053
 1897SOL    HW1 7588  12.362   2.704   9.964
 1897SOL    HW2 7589  12.451   2.740  10.081
 1898SOL     OW 7590  12.368   9.347   7.838
 1898SOL    HW1 7591  12.404   9.267   7.876
 1898SOL    HW2 7592  12.441   9.409   7.837
 1899SOL     OW 7593   5.064  14.676  13.320
 1899SOL    HW1 7594   5.149  14.684  13.277
 1899SOL    HW2 7595   5.070  14.735  13.396
 1900SOL     OW 7596   1.189   1.662   5.061
 1900SOL    HW1 7597   1.237   1.579   5.070
 1900SOL    HW2 7598   1.257   1.728   5.048
 1901SOL     OW 7599  13.143   8.829   5.242
 1901SOL    HW1 7600  13.089   8.843   5.164
 1901SOL    HW2 7601  13.221   8.784   5.208
 1902SOL     OW 7602  12.383  10.975  11.770
 1902SOL    HW1 7603  12.332  10.920  11.830
 1902SOL    HW2 7604  12.398  11.056  11.819
 1903SOL     OW 7605   0.980   7.368  13.431
 1903SOL    HW1 7606   0.905   7.419  13.399
 1903SOL    HW2 7607   0.971   7.369  13.526
 1904SOL     OW 7608  13.319   4.199  11.028
 1904SOL    HW1 7609  13.364   4.252  10.962
 1904SOL    HW2 7610  13.375   4.206  11.106
 1905SOL     OW 7611   6.104   4.269   2.437
 1905SOL    HW1 7612   6.089   4.191   2.384
 1905SOL    HW2 7613   6.187   4.304   2.407
 1906SOL     OW 7614   7.996   5.924  10.513
 1906SOL    HW1 7615   7.989   6.010  10.553
 1906SOL    HW2 7616   7.959   5.934  10.426
 1907SOL     OW 7617   8.993   2.033  12.601
 1907SOL    HW1 7618   8.975   2.084  12.680
 1907SOL    HW2 7619   8.908   2.000  12.574
 1908SOL     OW 7620  10.663   1.508   4.453
 1908SOL    HW1 7621  10.568   1.501   4.464
 1908SOL    HW2 7622  10.697   1.518   4.542
 1909SOL     OW 7623   5.569   5.596   8.161
 1909SOL    HW1 7624   5.489   5.643   8.136
 1909SOL    HW2 7625   5.556   5.574   8.253
 1910SOL     OW 7626   3.291   8.633  13.070
 1910SOL    HW1 7627   3.210   8.594  13.038
 1910SOL    HW2 7628   3.303   8.711  13.017
 1911SOL     OW 7629   6.493   2.099  10.605
 1911SOL    HW1 7630   6.424   2.130  10.545
 1911SOL    HW2 7631   6.574   2.133  10.567
 1912SOL     OW 7632  10.712   3.875   1.227
 1912SOL    HW1 7633  10.618   3.874   1.211
 1912SOL    HW2 7634  10.739   3.965   1.209
 1913SOL     OW 7635   0.926  10.148   7.898
 1913SOL    HW1 7636   0.983  10.073   7.914
 1913SOL    HW2 7637   0.963  10.217   7.953
 1914SOL     OW 7638   2.864   5.678  13.398
 1914SOL    HW1 7639   2.930   5.611  13.380
 1914SOL    HW2 7640   2.911   5.744  13.449
 1915SOL     OW 7641  12.937   8.775   6.374
 1915SOL    HW1 7642  12.933   8.834   6.449
 1915SOL    HW2 7643  12.997   8.817   6.312
 1916SOL     OW 7644   3.458   8.203  10.959
 1916SOL    HW1 7645   3.460   8.116  10.919
 1916SOL    HW2 7646   3.510   8.257  10.900
 1917SOL     OW 7647   7.006   0.203   8.409
 1917SOL    HW1 7648   7.074   0.206   8.341
 1917SOL    HW2 7649   7.054   0.212   8.491
 1918SOL     OW 7650   6.770   3.068   1.783
 1918SOL    HW1 7651   6.800   3.146   1.828
 1918SOL    HW2 7652   6.757   3.003   1.853
 1919SOL     OW 7653   8.577  12.171  10.151
 1919SOL    HW1 7654   8.544  12.159  10.062
 1919SOL    HW2 7655   8.662  12.213  10.140
 1920SOL     OW 7656   7.948  12.728  11.813
 1920SOL    HW1 7657   8.026  12.756  11.862
 1920SOL    HW2 7658   7.917  12.807  11.769
 1921SOL     OW 7659  14.453   2.820   0.815
 1921SOL    HW1 7660  14.533   2.868   0.795
 1921SOL    HW2 7661  14.409   2.872   0.882
 1922SOL     OW 7662   7.259   0.849  13.408
 1922SOL    HW1 7663   7.201   0.867  13.483
 1922SOL    HW2 7664   7.345   0.834  13.447
 1923SOL     OW 7665   6.489   4.218   2.147
 1923SOL    HW1 7666   6.574   4.243   2.109
 1923SOL    HW2 7667   6.511   4.151   2.211
 1924SOL     OW 7668   3.660   5.739   1.989
 1924SOL    HW1 7669   3.608   5.818   1.970
 1924SOL    HW2 7670   3.749   5.772   1.997
 1925SOL     OW 7671   4.717   9.219   2.382
 1925SOL    HW1 7672   4.687   9.130   2.364
 1925SOL    HW2 7673   4.637   9.267   2.403
 1926SOL     OW 7674   8.697  14.377   1.496
 1926SOL    HW1 7675   8.668  14.299   1.449
 1926SOL    HW2 7676   8.719  14.345   1.584
 1927SOL     OW 7677   3.213   6.965   8.835
 1927SOL    HW1 7678   3.205   6.928   8.747
 1927SOL    HW2 7679   3.272   7.040   8.824
 1928SOL     OW 7680   4.386   4.611  11.615
 1928SOL    HW1 7681   4.388   4.610  11.711
 1928SOL    HW2 7682   4.392   4.519  11.590
 1929SOL     OW 7683  14.832  11.439  12.374
 1929SOL    HW1 7684  14.803  11.478  12.456
 1929SOL    HW2 7685  14.833  11.512  12.312
 1930SOL     OW 7686  14.560   1.998   4.300
 1930SOL    HW1 7687  14.611   1.934   4.350
 1930SOL    HW2 7688  14.505   2.042   4.366
 1931SOL     OW 7689   6.277  12.266  14.693
 1931SOL    HW1 7690   6.204  12.325  14.714
 1931SOL    HW2 7691   6.336  12.320  14.640
 1932SOL     OW 7692  11.900  11.829   4.690
 1932SOL    HW1 7693  11.842  11.844   4.615
 1932SOL    HW2 7694  11.922  11.736   4.684
 1933SOL     OW 7695   1.555   1.684   7.146
 1933SOL    HW1 7696   1.475   1.718   7.187
 1933SOL    HW2 7697   1.537   1.689   7.052
 1934SOL     OW 7698   8.307  10.524   2.374
 1934SOL    HW1 7699   8.373  10.545   2.441
 1934SOL    HW2 7700   8.358  10.511   2.294
 1935SOL     OW 7701   2.360   9.697   2.836
 1935SOL    HW1 7702   2.364   9.635   2.908
 1935SOL    HW2 7703   2.415   9.659   2.768
 1936SOL     OW 7704   1.492   0.209  13.210
 1936SOL    HW1 7705   1.421   0.273  13.198
 1936SOL    HW2 7706   1.513   0.181  13.121
 1937SOL     OW 7707   9.354   3.465  14.046
 1937SOL    HW1 7708   9.366   3.501  14.134
 1937SOL    HW2 7709   9.423   3.400  14.037
 1938SOL     OW 7710   1.330  12.230  11.094
 1938SOL    HW1 7711   1.366  12.152  11.136
 1938SOL    HW2 7712   1.239  12.207  11.076
 1939SOL     OW 7713   4.435   7.387  12.654
 1939SOL    HW1 7714   4.464   7.475  12.677
 1939SOL    HW2 7715   4.447   7.336  12.735
 1940SOL     OW 7716   0.538  12.977   3.376
 1940SOL    HW1 7717   0.563  12.886   3.394
 1940SOL    HW2 7718   0.612  13.028   3.407
 1941SOL     OW 7719   1.645   0.494   8.034
 1941SOL    HW1 7720   1.645   0.409   7.990
 1941SOL    HW2 7721   1.733   0.502   8.070
 1942SOL     OW 7722   4.489  13.604  14.239
 1942SOL    HW1 7723   4.400  13.583  14.269
 1942SOL    HW2 7724   4.488  13.699  14.226
 1943SOL     OW 7725   7.464   8.229  11.629
 1943SOL    HW1 7726   7.373   8.255  11.643
 1943SOL    HW2 7727   7.459   8.142  11.591
 1944SOL     OW 7728  13.396   6.807  10.724
 1944SOL    HW1 7729  13.492   6.813  10.728
 1944SOL    HW2 7730  13.379   6.715  10.703
 1945SOL     OW 7731   2.190   8.731   6.851
 1945SOL    HW1 7732   2.247   8.654   6.853
 1945SOL    HW2 7733   2.179   8.755   6.942
 1946SOL     OW 7734   3.433   7.926   4.507
 1946SOL    HW1 7735   3.414   8.016   4.532
 1946SOL    HW2 7736   3.529   7.919   4.510
 1947SOL     OW 7737   6.994  10.476   0.546
 1947SOL    HW1 7738   6.962  10.387   0.563
 1947SOL    HW2 7739   6.968  10.494   0.456
 1948SOL     OW 7740   0.225   0.732  10.154
 1948SOL    HW1 7741   0.218   0.818  10.196
 1948SOL    HW2 7742   0.135   0.702  10.144
 1949SOL     OW 7743   1.113   1.784   6.999
 1949SOL    HW1 7744   1.187   1.775   6.939
 1949SOL    HW2 7745   1.040   1.811   6.944
 1950SOL     OW 7746   3.736   7.563  10.500
 1950SOL    HW1 7747   3.828   7.556  10.525
 1950SOL    HW2 7748   3.733   7.534  10.409
 1951SOL     OW 7749   4.125   2.646   8.949
 1951SOL    HW1 7750   4.128   2.726   9.001
 1951SOL    HW2 7751   4.090   2.580   9.008
 1952SOL     OW 7752   9.693   8.720   0.009
 1952SOL    HW1 7753   9.619   8.723  14.835
 1952SOL    HW2 7754   9.771   8.718  14.840
 1953SOL     OW 7755   4.018   4.137   9.822
 1953SOL    HW1 7756   4.063   4.215   9.855
 1953SOL    HW2 7757   4.076   4.065   9.844
 1954SOL     OW 7758  11.782   1.486   2.107
 1954SOL    HW1 7759  11.696   1.481   2.067
 1954SOL    HW2 7760  11.780   1.567   2.158
 1955SOL     OW 7761   4.206   3.431   5.078
 1955SOL    HW1 7762   4.171   3.431   5.167
 1955SOL    HW2 7763   4.253   3.514   5.070
 1956SOL     OW 7764   5.769  10.787   0.591
 1956SOL    HW1 7765   5.717  10.860   0.627
 1956SOL    HW2 7766   5.812  10.825   0.514
 1957SOL     OW 7767   5.445  11.364   9.205
 1957SOL    HW1 7768   5.454  11.320   9.120
 1957SOL    HW2 7769   5.430  11.456   9.182
 1958SOL     OW 7770   9.712  12.422   8.750
 1958SOL    HW1 7771   9.785  12.481   8.729
 1958SOL    HW2 7772   9.721  12.408   8.844
 1959SOL     OW 7773   9.809   1.192  14.822
 1959SOL    HW1 7774   9.746   1.252  14.782
 1959SOL    HW2 7775   9.760   1.150   0.005
 1960SOL     OW 7776   5.160   4.618   2.971
 1960SOL    HW1 7777   5.069   4.601   2.995
 1960SOL    HW2 7778   5.211   4.564   3.031
 1961SOL     OW 7779   9.670  13.026   8.992
 1961SOL    HW1 7780   9.738  13.088   8.968
 1961SOL    HW2 7781   9.661  13.036   9.087
 1962SOL     OW 7782   4.574   5.996   1.371
 1962SOL    HW1 7783   4.509   5.927   1.355
 1962SOL    HW2 7784   4.535   6.048   1.441
 1963SOL     OW 7785   7.953   0.227  12.904
 1963SOL    HW1 7786   7.887   0.296  12.900
 1963SOL    HW2 7787   8.037   0.274  12.910
 1964SOL     OW 7788  10.807   8.546  13.526
 1964SOL    HW1 7789  10.809   8.499  13.609
 1964SOL    HW2 7790  10.808   8.639  13.550
 1965SOL     OW 7791   4.272   6.070   4.128
 1965SOL    HW1 7792   4.320   6.113   4.056
 1965SOL    HW2 7793   4.201   6.131   4.149
 1966SOL     OW 7794   4.877   2.393   7.464
 1966SOL    HW1 7795   4.801   2.350   7.503
 1966SOL    HW2 7796   4.933   2.416   7.538
 1967SOL     OW 7797   1.120  13.896   2.224
 1967SOL    HW1 7798   1.175  13.965   2.261
 1967SOL    HW2 7799   1.033  13.933   2.220
 1968SOL     OW 7800   5.680   2.343   5.936
 1968SOL    HW1 7801   5.718   2.281   5.998
 1968SOL    HW2 7802   5.754   2.398   5.909
 1969SOL     OW 7803  12.792   2.490   4.931
 1969SOL    HW1 7804  12.742   2.450   5.002
 1969SOL    HW2 7805  12.753   2.577   4.920
 1970SOL     OW 7806   8.657   1.582   5.950
 1970SOL    HW1 7807   8.691   1.668   5.975
 1970SOL    HW2 7808   8.726   1.543   5.896
 1971SOL     OW 7809   0.314   3.452  13.603
 1971SOL    HW1 7810   0.319   3.492  13.690
 1971SOL    HW2 7811   0.233   3.487  13.565
 1972SOL     OW 7812   4.987  10.946   3.287
 1972SOL    HW1 7813   4.942  10.883   3.343
 1972SOL    HW2 7814   4.981  11.029   3.335
 1973SOL     OW 7815   0.901   2.563  11.469
 1973SOL    HW1 7816   0.891   2.605  11.383
 1973SOL    HW2 7817   0.852   2.481  11.461
 1974SOL     OW 7818   4.913  11.141   4.260
 1974SOL    HW1 7819   5.008  11.130   4.259
 1974SOL    HW2 7820   4.879  11.052   4.275
 1975SOL     OW 7821  14.665  13.531   5.464
 1975SOL    HW1 7822  14.698  13.589   5.533
 1975SOL    HW2 7823  14.570  13.525   5.480
 1976SOL     OW 7824   3.810   4.010   0.803
 1976SOL    HW1 7825   3.810   3.937   0.742
 1976SOL    HW2 7826   3.885   3.993   0.861
 1977SOL     OW 7827   4.322   6.212  13.086
 1977SOL    HW1 7828   4.350   6.225  12.995
 1977SOL    HW2 7829   4.291   6.121  13.087
 1978SOL     OW 7830   6.421   6.957  13.405
 1978SOL    HW1 7831   6.429   6.911  13.322
 1978SOL    HW2 7832   6.326   6.966  13.417
 1979SOL     OW 7833   0.586  14.371   7.866
 1979SOL    HW1 7834   0.602  14.464   7.851
 1979SOL    HW2 7835   0.586  14.361   7.961
 1980SOL     OW 7836   0.097  10.772   9.426
 1980SOL    HW1 7837   0.060  10.797   9.341
 1980SOL    HW2 7838   0.159  10.842   9.447
 1981SOL     OW 7839   0.739   0.481   0.740
 1981SOL    HW1 7840   0.667   0.545   0.732
 1981SOL    HW2 7841   0.812   0.522   0.693
 1982SOL     OW 7842  12.338   2.742  13.154
 1982SOL    HW1 7843  12.347   2.647  13.140
 1982SOL    HW2 7844  12.389   2.759  13.233
 1983SOL     OW 7845   6.307  10.541   5.380
 1983SOL    HW1 7846   6.254  10.516   5.455
 1983SOL    HW2 7847   6.379  10.477   5.379
 1984SOL     OW 7848   8.625   9.165   2.707
 1984SOL    HW1 7849   8.564   9.232   2.676
 1984SOL    HW2 7850   8.638   9.186   2.799
 1985SOL     OW 7851  10.955   4.333  14.017
 1985SOL    HW1 7852  11.022   4.401  14.030
 1985SOL    HW2 7853  10.873   4.381  14.014
 1986SOL     OW 7854  14.337   4.940  13.571
 1986SOL    HW1 7855  14.309   4.929  13.480
 1986SOL    HW2 7856  14.343   4.850  13.605
 1987SOL     OW 7857  11.293   3.680   7.215
 1987SOL    HW1 7858  11.213   3.629   7.225
 1987SOL    HW2 7859  11.277   3.734   7.138
 1988SOL     OW 7860   8.661   6.859  11.711
 1988SOL    HW1 7861   8.618   6.864  11.796
 1988SOL    HW2 7862   8.590   6.847  11.649
 1989SOL     OW 7863  11.369  10.759   1.570
 1989SOL    HW1 7864  11.286  10.807   1.573
 1989SOL    HW2 7865  11.371  10.720   1.482
 1990SOL     OW 7866   4.114   7.743   1.152
 1990SOL    HW1 7867   4.118   7.830   1.191
 1990SOL    HW2 7868   4.195   7.736   1.101
 1991SOL     OW 7869   2.752  11.162   2.711
 1991SOL    HW1 7870   2.819  11.110   2.756
 1991SOL    HW2 7871   2.669  11.121   2.737
 1992SOL     OW 7872  13.914   0.729  12.359
 1992SOL    HW1 7873  13.877   0.803  12.408
 1992SOL    HW2 7874  13.842   0.666  12.353
 1993SOL     OW 7875  14.775   4.093   8.627
 1993SOL    HW1 7876  14.839   4.144   8.577
 1993SOL    HW2 7877  14.692   4.139   8.616
 1994SOL     OW 7878   0.621  13.431   6.916
 1994SOL    HW1 7879   0.565  13.475   6.980
 1994SOL    HW2 7880   0.662  13.359   6.965
 1995SOL     OW 7881   7.147  10.629   1.873
 1995SOL    HW1 7882   7.206  10.638   1.948
 1995SOL    HW2 7883   7.065  10.597   1.911
 1996SOL     OW 7884   4.154   9.229   9.935
 1996SOL    HW1 7885   4.199   9.306   9.900
 1996SOL    HW2 7886   4.221   9.161   9.939
 1997SOL     OW 7887  14.258   1.141   1.397
 1997SOL    HW1 7888  14.353   1.143   1.383
 1997SOL    HW2 7889  14.247   1.110   1.487
 1998SOL     OW 7890  12.456   4.429  13.922
 1998SOL    HW1 7891  12.489   4.500  13.867
 1998SOL    HW2 7892  12.459   4.465  14.011
 1999SOL     OW 7893   9.741  13.969   8.642
 1999SOL    HW1 7894   9.768  13.878   8.657
 1999SOL    HW2 7895   9.755  14.012   8.726
 2000SOL     OW 7896  11.812  14.341  11.418
 2000SOL    HW1 7897  11.780  14.419  11.373
 2000SOL    HW2 7898  11.807  14.272  11.352
 2001SOL     OW 7899   4.881   7.612   6.555
 2001SOL    HW1 7900   4.901   7.700   6.584
 2001SOL    HW2 7901   4.786   7.611   6.541
 2002SOL     OW 7902   0.068   6.765  14.497
 2002SOL    HW1 7903   0.113   6.837  14.452
 2002SOL    HW2 7904   0.096   6.772  14.588
 2003SOL     OW 7905   4.836  12.527   1.727
 2003SOL    HW1 7906   4.786  12.601   1.762
 2003SOL    HW2 7907   4.862  12.555   1.639
 2004SOL     OW 7908  10.152   0.242  13.301
 2004SOL    HW1 7909  10.110   0.157  13.305
 2004SOL    HW2 7910  10.098   0.299  13.355
 2005SOL     OW 7911  11.289   6.257   1.591
 2005SOL    HW1 7912  11.379   6.253   1.621
 2005SOL    HW2 7913  11.273   6.350   1.572
 2006SOL     OW 7914   1.407  13.270   1.550
 2006SOL    HW1 7915   1.337  13.296   1.610
 2006SOL    HW2 7916   1.466  13.218   1.604
 2007SOL     OW 7917   2.274   1.899   3.275
 2007SOL    HW1 7918   2.283   1.995   3.279
 2007SOL    HW2 7919   2.363   1.867   3.262
 2008SOL     OW 7920  13.422   0.808   0.867
 2008SOL    HW1 7921  13.484   0.821   0.795
 2008SOL    HW2 7922  13.373   0.891   0.872
 2009SOL     OW 7923   9.924   6.537   4.186
 2009SOL    HW1 7924   9.851   6.496   4.233
 2009SOL    HW2 7925   9.908   6.516   4.094
 2010SOL     OW 7926  13.930   9.473   5.942
 2010SOL    HW1 7927  13.847   9.470   5.895
 2010SOL    HW2 7928  13.985   9.407   5.899
 2011SOL     OW 7929   4.349   8.775  13.538
 2011SOL    HW1 7930   4.421   8.712  13.527
 2011SOL    HW2 7931   4.299   8.741  13.612
 2012SOL     OW 7932   8.783   8.379   5.741
 2012SOL    HW1 7933   8.756   8.467   5.716
 2012SOL    HW2 7934   8.772   8.327   5.662
 2013SOL     OW 7935   8.501  14.166  14.781
 2013SOL    HW1 7936   8.536  14.250  14.808
 2013SOL    HW2 7937   8.431  14.147  14.843
 2014SOL     OW 7938   0.451   8.967  10.861
 2014SOL    HW1 7939   0.481   9.057  10.874
 2014SOL    HW2 7940   0.356   8.972  10.873
 2015SOL     OW 7941   6.927   5.618   4.086
 2015SOL    HW1 7942   6.881   5.695   4.052
 2015SOL    HW2 7943   6.866   5.545   4.072
 2016SOL     OW 7944  10.489  13.168   6.095
 2016SOL    HW1 7945  10.496  13.241   6.032
 2016SOL    HW2 7946  10.578  13.134   6.102
 2017SOL     OW 7947   6.412  14.041   5.811
 2017SOL    HW1 7948   6.327  13.998   5.816
 2017SOL    HW2 7949   6.398  14.126   5.852
 2018SOL     OW 7950  10.223   0.644  10.503
 2018SOL    HW1 7951  10.156   0.607  10.560
 2018SOL    HW2 7952  10.196   0.735  10.491
 2019SOL     OW 7953   0.495   6.493  14.639
 2019SOL    HW1 7954   0.535   6.568  14.595
 2019SOL    HW2 7955   0.559   6.422  14.629
 2020SOL     OW 7956  14.321   9.637   3.496
 2020SOL    HW1 7957  14.390   9.578   3.527
 2020SOL    HW2 7958  14.292   9.599   3.413
 2021SOL     OW 7959   9.019  14.390   8.045
 2021SOL    HW1 7960   9.021  14.312   8.100
 2021SOL    HW2 7961   8.997  14.461   8.105
 2022SOL     OW 7962  10.931   0.170   1.732
 2022SOL    HW1 7963  10.975   0.085   1.739
 2022SOL    HW2 7964  10.851   0.160   1.785
 2023SOL     OW 7965   0.971   1.673  14.525
 2023SOL    HW1 7966   1.050   1.620  14.534
 2023SOL    HW2 7967   0.906   1.613  14.489
 2024SOL     OW 7968   5.040   3.788   2.264
 2024SOL    HW1 7969   4.977   3.860   2.274
 2024SOL    HW2 7970   4.999   3.714   2.308
 2025SOL     OW 7971   3.027   1.979   7.697
 2025SOL    HW1 7972   3.040   2.045   7.629
 2025SOL    HW2 7973   3.043   2.026   7.779
 2026SOL     OW 7974   2.623   7.010   5.612
 2026SOL    HW1 7975   2.605   6.960   5.533
 2026SOL    HW2 7976   2.549   6.992   5.670
 2027SOL     OW 7977   1.693  12.009   6.700
 2027SOL    HW1 7978   1.753  11.942   6.732
 2027SOL    HW2 7979   1.617  11.961   6.668
 2028SOL     OW 7980   3.982   8.667  12.248
 2028SOL    HW1 7981   4.073   8.690  12.229
 2028SOL    HW2 7982   3.988   8.583  12.295
 2029SOL     OW 7983  12.420   8.256   5.980
 2029SOL    HW1 7984  12.353   8.225   6.040
 2029SOL    HW2 7985  12.394   8.222   5.894
 2030SOL     OW 7986   8.439   6.207  11.471
 2030SOL    HW1 7987   8.484   6.256  11.402
 2030SOL    HW2 7988   8.363   6.168  11.428
 2031SOL     OW 7989  13.313   1.883   7.562
 2031SOL    HW1 7990  13.296   1.918   7.650
 2031SOL    HW2 7991  13.368   1.806   7.578
 2032SOL     OW 7992   5.384  14.836  11.716
 2032SOL    HW1 7993   5.334   0.003  11.776
 2032SOL    HW2 7994   5.444  14.787  11.772
 2033SOL     OW 7995   2.421  11.844   3.734
 2033SOL    HW1 7996   2.476  11.789   3.678
 2033SOL    HW2 7997   2.477  11.867   3.808
 2034SOL     OW 7998   4.404   8.511   8.714
 2034SOL    HW1 7999   4.338   8.555   8.661
 2034SOL    HW2 8000   4.402   8.558   8.798
 2035SOL     OW 8001   2.139   8.617   7.649
 2035SOL    HW1 8002   2.167   8.534   7.611
 2035SOL    HW2 8003   2.148   8.681   7.579
 2036SOL     OW 8004  14.317   8.213  13.738
 2036SOL    HW1 8005  14.330   8.128  13.695
 2036SOL    HW2 8006  14.363   8.275  13.682
 2037SOL     OW 8007   5.468  11.719   6.109
 2037SOL    HW1 8008   5.530  11.686   6.174
 2037SOL    HW2 8009   5.519  11.724   6.028
 2038SOL     OW 8010   8.686  11.314   6.127
 2038SOL    HW1 8011   8.628  11.350   6.059
 2038SOL    HW2 8012   8.725  11.390   6.169
 2039SOL     OW 8013   5.826   3.616   6.945
 2039SOL    HW1 8014   5.916   3.603   6.916
 2039SOL    HW2 8015   5.774   3.558   6.890
 2040SOL     OW 8016   4.204   9.648   8.635
 2040SOL    HW1 8017   4.234   9.689   8.716
 2040SOL    HW2 8018   4.182   9.558   8.660
 2041SOL     OW 8019   7.463   3.857   1.714
 2041SOL    HW1 8020   7.555   3.830   1.713
 2041SOL    HW2 8021   7.462   3.938   1.764
 2042SOL     OW 8022   5.777  11.774   2.604
 2042SOL    HW1 8023   5.686  11.780   2.634
 2042SOL    HW2 8024   5.772  11.796   2.511
 2043SOL     OW 8025   1.786   5.456   9.541
 2043SOL    HW1 8026   1.720   5.389   9.521
 2043SOL    HW2 8027   1.742   5.513   9.604
 2044SOL     OW 8028  10.975   3.835   7.569
 2044SOL    HW1 8029  10.964   3.834   7.664
 2044SOL    HW2 8030  11.055   3.786   7.553
 2045SOL     OW 8031   8.309   9.372  11.973
 2045SOL    HW1 8032   8.305   9.281  11.945
 2045SOL    HW2 8033   8.278   9.372  12.063
 2046SOL     OW 8034  13.515   4.983   7.012
 2046SOL    HW1 8035  13.444   5.035   6.976
 2046SOL    HW2 8036  13.474   4.901   7.039
 2047SOL     OW 8037   4.769   2.331   9.996
 2047SOL    HW1 8038   4.801   2.354  10.083
 2047SOL    HW2 8039   4.839   2.357   9.937
 2048SOL     OW 8040   2.899   5.190   7.662
 2048SOL    HW1 8041   2.875   5.226   7.577
 2048SOL    HW2 8042   2.862   5.102   7.662
 2049SOL     OW 8043   5.201   1.925  10.775
 2049SOL    HW1 8044   5.177   2.002  10.724
 2049SOL    HW2 8045   5.119   1.878  10.788
 2050SOL     OW 8046   1.726   9.170   6.379
 2050SOL    HW1 8047   1.722   9.083   6.340
 2050SOL    HW2 8048   1.635   9.196   6.391
 2051SOL     OW 8049  13.854   4.810   4.185
 2051SOL    HW1 8050  13.926   4.830   4.126
 2051SOL    HW2 8051  13.775   4.824   4.133
 2052SOL     OW 8052   3.469   9.314   4.917
 2052SOL    HW1 8053   3.535   9.372   4.954
 2052SOL    HW2 8054   3.416   9.287   4.992
 2053SOL     OW 8055   3.949   4.886   8.568
 2053SOL    HW1 8056   3.951   4.925   8.655
 2053SOL    HW2 8057   3.959   4.792   8.583
 2054SOL     OW 8058   2.705  13.300  11.542
 2054SOL    HW1 8059   2.798  13.324  11.552
 2054SOL    HW2 8060   2.681  13.261  11.626
 2055SOL     OW 8061   8.168   5.656   6.478
 2055SOL    HW1 8062   8.096   5.707   6.441
 2055SOL    HW2 8063   8.149   5.651   6.572
 2056SOL     OW 8064   6.651   3.697  13.498
 2056SOL    HW1 8065   6.614   3.783  13.479
 2056SOL    HW2 8066   6.591   3.635  13.458
 2057SOL     OW 8067  13.617   6.078   8.318
 2057SOL    HW1 8068  13.604   6.018   8.392
 2057SOL    HW2 8069  13.681   6.141   8.349
 2058SOL     OW 8070   5.462   0.489   6.715
 2058SOL    HW1 8071   5.461   0.544   6.637
 2058SOL    HW2 8072   5.371   0.489   6.745
 2059SOL     OW 8073  14.808  14.251  14.572
 2059SOL    HW1 8074  14.825  14.295  14.489
 2059SOL    HW2 8075  14.863  14.296  14.635
 2060SOL     OW 8076   6.562   7.898   3.946
 2060SOL    HW1 8077   6.641   7.892   3.893
 2060SOL    HW2 8078   6.588   7.863   4.031
 2061SOL     OW 8079   2.130  11.291   4.781
 2061SOL    HW1 8080   2.050  11.251   4.747
 2061SOL    HW2 8081   2.201  11.233   4.751
 2062SOL     OW 8082   1.640  13.672   2.459
 2062SOL    HW1 8083   1.566  13.697   2.405
 2062SOL    HW2 8084   1.602  13.622   2.531
 2063SOL     OW 8085   4.090   5.030   4.964
 2063SOL    HW1 8086   4.117   5.114   5.000
 2063SOL    HW2 8087   4.171   4.988   4.936
 2064SOL     OW 8088   1.628   9.505   1.202
 2064SOL    HW1 8089   1.637   9.515   1.297
 2064SOL    HW2 8090   1.634   9.594   1.168
 2065SOL     OW 8091   4.744   1.628   5.053
 2065SOL    HW1 8092   4.812   1.640   5.119
 2065SOL    HW2 8093   4.675   1.581   5.098
 2066SOL     OW 8094   4.250  11.180   8.411
 2066SOL    HW1 8095   4.308  11.214   8.343
 2066SOL    HW2 8096   4.228  11.256   8.464
 2067SOL     OW 8097   1.524   8.505   0.845
 2067SOL    HW1 8098   1.573   8.424   0.861
 2067SOL    HW2 8099   1.573   8.572   0.893
 2068SOL     OW 8100   2.196   4.301   8.175
 2068SOL    HW1 8101   2.228   4.351   8.099
 2068SOL    HW2 8102   2.208   4.360   8.249
 2069SOL     OW 8103   7.673  10.504   6.669
 2069SOL    HW1 8104   7.686  10.412   6.646
 2069SOL    HW2 8105   7.761  10.542   6.666
 2070SOL     OW 8106   7.922   7.766   6.450
 2070SOL    HW1 8107   7.900   7.673   6.457
 2070SOL    HW2 8108   7.839   7.809   6.429
 2071SOL     OW 8109  13.283  10.524   7.435
 2071SOL    HW1 8110  13.244  10.582   7.500
 2071SOL    HW2 8111  13.356  10.482   7.481
 2072SOL     OW 8112   2.092   8.259   1.250
 2072SOL    HW1 8113   2.005   8.246   1.212
 2072SOL    HW2 8114   2.141   8.306   1.182
 2073SOL     OW 8115  10.761   0.154   0.950
 2073SOL    HW1 8116  10.825   0.158   1.021
 2073SOL    HW2 8117  10.764   0.063   0.920
 2074SOL     OW 8118  13.038  13.264   2.051
 2074SOL    HW1 8119  12.955  13.249   2.096
 2074SOL    HW2 8120  13.098  13.199   2.089
 2075SOL     OW 8121   1.020  10.086  12.278
 2075SOL    HW1 8122   1.115  10.092  12.285
 2075SOL    HW2 8123   1.005  10.038  12.196
 2076SOL     OW 8124  10.885   9.966   4.373
 2076SOL    HW1 8125  10.863   9.983   4.465
 2076SOL    HW2 8126  10.925  10.048   4.343
 2077SOL     OW 8127  10.006   8.571   7.456
 2077SOL    HW1 8128  10.001   8.495   7.513
 2077SOL    HW2 8129   9.921   8.614   7.466
 2078SOL     OW 8130   8.941   7.074   9.610
 2078SOL    HW1 8131   8.934   7.063   9.515
 2078SOL    HW2 8132   8.853   7.052   9.642
 2079SOL     OW 8133  13.373   1.197   5.482
 2079SOL    HW1 8134  13.330   1.112   5.485
 2079SOL    HW2 8135  13.302   1.260   5.491
 2080SOL     OW 8136   6.469  12.975  12.901
 2080SOL    HW1 8137   6.524  13.052  12.918
 2080SOL    HW2 8138   6.398  13.007  12.846
 2081SOL     OW 8139   5.911   5.658   6.089
 2081SOL    HW1 8140   5.834   5.612   6.056
 2081SOL    HW2 8141   5.944   5.603   6.160
 2082SOL     OW 8142   7.921   5.161   9.250
 2082SOL    HW1 8143   7.866   5.101   9.200
 2082SOL    HW2 8144   7.859   5.214   9.300
 2083SOL     OW 8145  12.581   5.358   1.832
 2083SOL    HW1 8146  12.676   5.367   1.831
 2083SOL    HW2 8147  12.559   5.332   1.921
 2084SOL     OW 8148   9.407   2.435   3.542
 2084SOL    HW1 8149   9.441   2.377   3.474
 2084SOL    HW2 8150   9.330   2.475   3.502
 2085SOL     OW 8151  14.368  13.975  13.282
 2085SOL    HW1 8152  14.463  13.976  13.277
 2085SOL    HW2 8153  14.344  13.883  13.277
 2086SOL     OW 8154  10.145  13.787   8.442
 2086SOL    HW1 8155  10.191  13.711   8.478
 2086SOL    HW2 8156  10.126  13.762   8.351
 2087SOL     OW 8157   5.125   4.607   6.775
 2087SOL    HW1 8158   5.192   4.562   6.723
 2087SOL    HW2 8159   5.092   4.540   6.835
 2088SOL     OW 8160  11.895   4.780   7.770
 2088SOL    HW1 8161  11.983   4.802   7.801
 2088SOL    HW2 8162  11.851   4.743   7.847
 2089SOL     OW 8163  13.314   6.441  14.271
 2089SOL    HW1 8164  13.261   6.514  14.237
 2089SOL    HW2 8165  13.351   6.400  14.194
 2090SOL     OW 8166   0.995  13.125   7.804
 2090SOL    HW1 8167   0.975  13.060   7.872
 2090SOL    HW2 8168   0.940  13.200   7.826
 2091SOL     OW 8169   2.018   0.393   4.462
 2091SOL    HW1 8170   2.100   0.415   4.506
 2091SOL    HW2 8171   1.999   0.469   4.407
 2092SOL     OW 8172   4.759   3.164  12.507
 2092SOL    HW1 8173   4.845   3.172  12.549
 2092SOL    HW2 8174   4.775   3.114  12.428
 2093SOL     OW 8175   5.222   6.153   1.698
 2093SOL    HW1 8176   5.170   6.109   1.632
 2093SOL    HW2 8177   5.195   6.113   1.781
 2094SOL     OW 8178   7.809   1.808   6.406
 2094SOL    HW1 8179   7.902   1.790   6.392
 2094SOL    HW2 8180   7.767   1.787   6.323
 2095SOL     OW 8181   5.186  13.460   3.661
 2095SOL    HW1 8182   5.196  13.396   3.590
 2095SOL    HW2 8183   5.176  13.544   3.616
 2096SOL     OW 8184   0.074   4.685  12.463
 2096SOL    HW1 8185   0.076   4.594  12.492
 2096SOL    HW2 8186   0.118   4.685  12.378
 2097SOL     OW 8187  12.465  11.963   4.038
 2097SOL    HW1 8188  12.433  11.876   4.059
 2097SOL    HW2 8189  12.389  12.020   4.047
 2098SOL     OW 8190   7.707   7.028  11.078
 2098SOL    HW1 8191   7.747   7.003  11.162
 2098SOL    HW2 8192   7.617   7.050  11.100
 2099SOL     OW 8193  12.665   8.372   3.197
 2099SOL    HW1 8194  12.747   8.329   3.225
 2099SOL    HW2 8195  12.610   8.371   3.275
 2100SOL     OW 8196   8.229  11.195   5.609
 2100SOL    HW1 8197   8.303  11.139   5.585
 2100SOL    HW2 8198   8.258  11.284   5.588
 2101SOL     OW 8199   6.531   8.001   4.765
 2101SOL    HW1 8200   6.588   7.949   4.821
 2101SOL    HW2 8201   6.484   7.937   4.711
 2102SOL     OW 8202   9.026   8.204   4.846
 2102SOL    HW1 8203   9.009   8.242   4.760
 2102SOL    HW2 8204   9.055   8.115   4.828
 2103SOL     OW 8205   3.987   1.447  11.415
 2103SOL    HW1 8206   4.044   1.371  11.407
 2103SOL    HW2 8207   4.041   1.514  11.457
 2104SOL     OW 8208  10.429   9.326   2.988
 2104SOL    HW1 8209  10.509   9.376   3.006
 2104SOL    HW2 8210  10.425   9.261   3.058
 2105SOL     OW 8211  13.167   1.309   7.480
 2105SOL    HW1 8212  13.198   1.398   7.499
 2105SOL    HW2 8213  13.077   1.307   7.513
 2106SOL     OW 8214   8.775  11.979   5.983
 2106SOL    HW1 8215   8.801  11.998   5.893
 2106SOL    HW2 8216   8.838  12.028   6.037
 2107SOL     OW 8217   3.363  13.416   3.549
 2107SOL    HW1 8218   3.424  13.342   3.552
 2107SOL    HW2 8219   3.344  13.435   3.640
 2108SOL     OW 8220   8.024   6.301   2.462
 2108SOL    HW1 8221   7.946   6.300   2.518
 2108SOL    HW2 8222   8.069   6.219   2.482
 2109SOL     OW 8223   1.394   0.249   6.466
 2109SOL    HW1 8224   1.451   0.224   6.393
 2109SOL    HW2 8225   1.447   0.309   6.518
 2110SOL     OW 8226   9.183   1.496   3.496
 2110SOL    HW1 8227   9.197   1.513   3.403
 2110SOL    HW2 8228   9.090   1.473   3.502
 2111SOL     OW 8229  13.911   5.660   3.314
 2111SOL    HW1 8230  13.896   5.735   3.372
 2111SOL    HW2 8231  14.005   5.645   3.318
 2112SOL     OW 8232   7.977   7.843   7.535
 2112SOL    HW1 8233   7.926   7.791   7.598
 2112SOL    HW2 8234   7.943   7.932   7.545
 2113SOL     OW 8235   3.017   8.905   7.521
 2113SOL    HW1 8236   2.922   8.917   7.520
 2113SOL    HW2 8237   3.043   8.909   7.429
 2114SOL     OW 8238   3.819  11.016  13.951
 2114SOL    HW1 8239   3.879  11.040  14.022
 2114SOL    HW2 8240   3.752  10.963  13.993
 2115SOL     OW 8241  10.165   0.402  11.552
 2115SOL    HW1 8242  10.074   0.421  11.530
 2115SOL    HW2 8243  10.193   0.477  11.604
 2116SOL     OW 8244   3.531  13.763   0.957
 2116SOL    HW1 8245   3.575  13.848   0.960
 2116SOL    HW2 8246   3.541  13.728   1.045
 2117SOL     OW 8247   9.733  11.810   3.550
 2117SOL    HW1 8248   9.748  11.716   3.539
 2117SOL    HW2 8249   9.654  11.815   3.604
 2118SOL     OW 8250   1.547  14.328   0.324
 2118SOL    HW1 8251   1.458  14.336   0.291
 2118SOL    HW2 8252   1.561  14.233   0.334
 2119SOL     OW 8253  13.667  13.280   9.638
 2119SOL    HW1 8254  13.706  13.231   9.711
 2119SOL    HW2 8255  13.608  13.217   9.595
 2120SOL     OW 8256   2.049  12.674  14.104
 2120SOL    HW1 8257   2.082  12.755  14.143
 2120SOL    HW2 8258   2.128  12.629  14.073
 2121SOL     OW 8259   4.110   6.902   3.842
 2121SOL    HW1 8260   4.099   6.993   3.868
 2121SOL    HW2 8261   4.077   6.899   3.752
 2122SOL     OW 8262   7.566   7.703  12.930
 2122SOL    HW1 8263   7.517   7.783  12.947
 2122SOL    HW2 8264   7.580   7.664  13.016
 2123SOL     OW 8265   6.850   0.574  14.442
 2123SOL    HW1 8266   6.819   0.520  14.515
 2123SOL    HW2 8267   6.778   0.572  14.379
 2124SOL     OW 8268   7.916   3.518   6.819
 2124SOL    HW1 8269   7.941   3.588   6.759
 2124SOL    HW2 8270   7.991   3.459   6.820
 2125SOL     OW 8271  12.763  13.435   8.951
 2125SOL    HW1 8272  12.758  13.449   8.857
 2125SOL    HW2 8273  12.747  13.522   8.989
 2126SOL     OW 8274   4.934   5.100  10.208
 2126SOL    HW1 8275   4.921   5.043  10.284
 2126SOL    HW2 8276   4.912   5.187  10.240
 2127SOL     OW 8277   3.054   0.801   4.955
 2127SOL    HW1 8278   3.055   0.800   4.860
 2127SOL    HW2 8279   3.145   0.817   4.980
 2128SOL     OW 8280  10.784   8.492   5.969
 2128SOL    HW1 8281  10.698   8.450   5.981
 2128SOL    HW2 8282  10.786   8.559   6.038
 2129SOL     OW 8283  10.347   4.341  12.121
 2129SOL    HW1 8284  10.322   4.318  12.210
 2129SOL    HW2 8285  10.368   4.258  12.079
 2130SOL     OW 8286   7.088   0.427  13.754
 2130SOL    HW1 8287   7.012   0.449  13.700
 2130SOL    HW2 8288   7.058   0.443  13.844
 2131SOL     OW 8289  12.292   4.268   1.495
 2131SOL    HW1 8290  12.260   4.341   1.443
 2131SOL    HW2 8291  12.340   4.213   1.433
 2132SOL     OW 8292  11.500  13.535   4.025
 2132SOL    HW1 8293  11.592  13.560   4.033
 2132SOL    HW2 8294  11.494  13.452   4.073
 2133SOL     OW 8295   3.079  12.255   1.007
 2133SOL    HW1 8296   3.028  12.205   1.070
 2133SOL    HW2 8297   3.108  12.332   1.055
 2134SOL     OW 8298   3.460   8.903  10.157
 2134SOL    HW1 8299   3.466   8.866  10.069
 2134SOL    HW2 8300   3.456   8.828  10.215
 2135SOL     OW 8301   4.231  12.580  13.228
 2135SOL    HW1 8302   4.256  12.538  13.310
 2135SOL    HW2 8303   4.137  12.564  13.220
 2136SOL     OW 8304  10.053  10.101  14.818
 2136SOL    HW1 8305   9.997  10.132  14.746
 2136SOL    HW2 8306  10.000  10.115   0.009
 2137SOL     OW 8307   0.102   5.185   9.707
 2137SOL    HW1 8308   0.092   5.229   9.623
 2137SOL    HW2 8309   0.015   5.150   9.727
 2138SOL     OW 8310   9.280   5.701  11.770
 2138SOL    HW1 8311   9.240   5.786  11.756
 2138SOL    HW2 8312   9.374   5.718  11.769
 2139SOL     OW 8313   6.112   5.937  12.890
 2139SOL    HW1 8314   6.114   5.858  12.944
 2139SOL    HW2 8315   6.090   5.906  12.802
 2140SOL     OW 8316   5.419   3.040  10.030
 2140SOL    HW1 8317   5.345   3.080   9.984
 2140SOL    HW2 8318   5.490   3.103  10.018
 2141SOL     OW 8319  14.688   1.058   3.018
 2141SOL    HW1 8320  14.744   1.109   2.961
 2141SOL    HW2 8321  14.600   1.095   3.006
 2142SOL     OW 8322   2.769   8.416   5.264
 2142SOL    HW1 8323   2.805   8.328   5.260
 2142SOL    HW2 8324   2.836   8.467   5.309
 2143SOL     OW 8325   0.999   6.254   4.668
 2143SOL    HW1 8326   1.007   6.248   4.573
 2143SOL    HW2 8327   0.946   6.333   4.682
 2144SOL     OW 8328   3.999   5.380  12.364
 2144SOL    HW1 8329   3.927   5.338  12.317
 2144SOL    HW2 8330   4.029   5.314  12.426
 2145SOL     OW 8331  13.765   4.501  12.980
 2145SOL    HW1 8332  13.751   4.595  12.970
 2145SOL    HW2 8333  13.793   4.491  13.071
 2146SOL     OW 8334   5.626   4.074   4.835
 2146SOL    HW1 8335   5.684   3.999   4.822
 2146SOL    HW2 8336   5.679   4.150   4.814
 2147SOL     OW 8337   7.079   5.388  12.828
 2147SOL    HW1 8338   7.094   5.302  12.788
 2147SOL    HW2 8339   6.990   5.382  12.864
 2148SOL     OW 8340   2.273  13.942  12.592
 2148SOL    HW1 8341   2.359  13.923  12.630
 2148SOL    HW2 8342   2.291  14.005  12.523
 2149SOL     OW 8343   7.997   1.104   6.435
 2149SOL    HW1 8344   8.006   1.109   6.530
 2149SOL    HW2 8345   7.932   1.171   6.413
 2150SOL     OW 8346   1.676   2.915   0.769
 2150SOL    HW1 8347   1.733   2.858   0.820
 2150SOL    HW2 8348   1.602   2.858   0.744
 2151SOL     OW 8349   5.483   4.848  11.349
 2151SOL    HW1 8350   5.481   4.917  11.282
 2151SOL    HW2 8351   5.471   4.767  11.299
 2152SOL     OW 8352  12.234  13.967   1.236
 2152SOL    HW1 8353  12.153  13.922   1.210
 2152SOL    HW2 8354  12.291  13.957   1.159
 2153SOL     OW 8355   9.966  13.773  11.905
 2153SOL    HW1 8356   9.989  13.681  11.915
 2153SOL    HW2 8357   9.995  13.796  11.817
 2154SOL     OW 8358  14.732  13.726   2.654
 2154SOL    HW1 8359  14.730  13.643   2.606
 2154SOL    HW2 8360  14.684  13.709   2.735
 2155SOL     OW 8361  12.090   6.245   5.064
 2155SOL    HW1 8362  12.085   6.166   5.118
 2155SOL    HW2 8363  12.071   6.316   5.125
 2156SOL     OW 8364  10.493  11.659   5.942
 2156SOL    HW1 8365  10.577  11.697   5.968
 2156SOL    HW2 8366  10.428  11.723   5.969
 2157SOL     OW 8367   5.029  10.095  14.568
 2157SOL    HW1 8368   5.124  10.104  14.580
 2157SOL    HW2 8369   5.020  10.044  14.488
 2158SOL     OW 8370   6.374   8.579   6.902
 2158SOL    HW1 8371   6.425   8.534   6.969
 2158SOL    HW2 8372   6.304   8.518   6.880
 2159SOL     OW 8373   6.764  14.022  11.590
 2159SOL    HW1 8374   6.695  14.086  11.607
 2159SOL    HW2 8375   6.718  13.939  11.579
 2160SOL     OW 8376   0.918   0.159  14.876
 2160SOL    HW1 8377   0.846   0.180  14.817
 2160SOL    HW2 8378   0.925   0.064  14.873
 2161SOL     OW 8379  12.941   4.605   3.822
 2161SOL    HW1 8380  12.955   4.585   3.914
 2161SOL    HW2 8381  13.027   4.593   3.781
 2162SOL     OW 8382  12.039  11.316   0.830
 2162SOL    HW1 8383  12.034  11.269   0.913
 2162SOL    HW2 8384  11.999  11.401   0.848
 2163SOL     OW 8385   3.809   6.523  12.718
 2163SOL    HW1 8386   3.713   6.515  12.724
 2163SOL    HW2 8387   3.824   6.575  12.639
 2164SOL     OW 8388   8.079  11.791  10.176
 2164SOL    HW1 8389   7.997  11.839  10.166
 2164SOL    HW2 8390   8.097  11.755  10.089
 2165SOL     OW 8391  11.934  10.903   0.714
 2165SOL    HW1 8392  11.885  10.860   0.644
 2165SOL    HW2 8393  11.902  10.993   0.713
 2166SOL     OW 8394  10.980   8.340  10.858
 2166SOL    HW1 8395  11.028   8.259  10.838
 2166SOL    HW2 8396  11.012   8.366  10.944
 2167SOL     OW 8397   6.982   3.879   0.303
 2167SOL    HW1 8398   7.069   3.880   0.262
 2167SOL    HW2 8399   6.933   3.814   0.252
 2168SOL     OW 8400   0.054   3.334   2.342
 2168SOL    HW1 8401  14.854   3.372   2.343
 2168SOL    HW2 8402   0.070   3.311   2.251
 2169SOL     OW 8403   0.964  13.088   7.504
 2169SOL    HW1 8404   0.958  12.996   7.529
 2169SOL    HW2 8405   0.975  13.135   7.587
 2170SOL     OW 8406   9.466   4.638   5.711
 2170SOL    HW1 8407   9.438   4.695   5.783
 2170SOL    HW2 8408   9.387   4.593   5.683
 2171SOL     OW 8409  13.106   1.558   2.654
 2171SOL    HW1 8410  13.107   1.632   2.593
 2171SOL    HW2 8411  13.107   1.480   2.598
 2172SOL     OW 8412   1.109   4.565   2.943
 2172SOL    HW1 8413   1.119   4.567   2.848
 2172SOL    HW2 8414   1.055   4.488   2.960
 2173SOL     OW 8415   4.225   9.564  14.523
 2173SOL    HW1 8416   4.210   9.494  14.459
 2173SOL    HW2 8417   4.137   9.590  14.552
 2174SOL     OW 8418   5.752   8.578   1.494
 2174SOL    HW1 8419   5.780   8.670   1.498
 2174SOL    HW2 8420   5.827   8.531   1.460
 2175SOL     OW 8421   5.286   2.077   3.471
 2175SOL    HW1 8422   5.351   2.011   3.495
 2175SOL    HW2 8423   5.233   2.034   3.403
 2176SOL     OW 8424   8.435   5.349  14.459
 2176SOL    HW1 8425   8.380   5.394  14.395
 2176SOL    HW2 8426   8.486   5.287  14.407
 2177SOL     OW 8427   2.596  11.637  12.004
 2177SOL    HW1 8428   2.514  11.596  12.030
 2177SOL    HW2 8429   2.659  11.566  11.999
 2178SOL     OW 8430   1.936  11.947  11.959
 2178SOL    HW1 8431   1.847  11.930  11.929
 2178SOL    HW2 8432   1.924  11.981  12.048
 2179SOL     OW 8433   5.882   2.086   9.409
 2179SOL    HW1 8434   5.924   2.073   9.494
 2179SOL    HW2 8435   5.801   2.133   9.428
 2180SOL     OW 8436   4.671   5.796  10.829
 2180SOL    HW1 8437   4.669   5.855  10.905
 2180SOL    HW2 8438   4.690   5.854  10.755
 2181SOL     OW 8439   7.397  13.376   9.871
 2181SOL    HW1 8440   7.332  13.361   9.802
 2181SOL    HW2 8441   7.410  13.290   9.911
 2182SOL     OW 8442   9.999   8.726   2.967
 2182SOL    HW1 8443   9.932   8.668   3.003
 2182SOL    HW2 8444   9.990   8.717   2.873
 2183SOL     OW 8445   7.331  12.068  13.310
 2183SOL    HW1 8446   7.326  12.163  13.300
 2183SOL    HW2 8447   7.287  12.033  13.233
 2184SOL     OW 8448   0.640  14.781  13.344
 2184SOL    HW1 8449   0.573  14.842  13.376
 2184SOL    HW2 8450   0.723  14.827  13.356
 2185SOL     OW 8451  14.566   9.190   4.100
 2185SOL    HW1 8452  14.478   9.197   4.063
 2185SOL    HW2 8453  14.553   9.200   4.195
 2186SOL     OW 8454   7.635   7.366   2.265
 2186SOL    HW1 8455   7.574   7.364   2.191
 2186SOL    HW2 8456   7.641   7.459   2.288
 2187SOL     OW 8457  12.887  13.708   7.049
 2187SOL    HW1 8458  12.842  13.639   7.001
 2187SOL    HW2 8459  12.976  13.708   7.013
 2188SOL     OW 8460  12.747  12.289   7.749
 2188SOL    HW1 8461  12.726  12.213   7.804
 2188SOL    HW2 8462  12.664  12.335   7.738
 2189SOL     OW 8463  12.135   6.994   0.025
 2189SOL    HW1 8464  12.227   6.974   0.037
 2189SOL    HW2 8465  12.133   7.085  14.882
 2190SOL     OW 8466  11.471   9.237  14.388
 2190SOL    HW1 8467  11.497   9.328  14.372
 2190SOL    HW2 8468  11.387   9.244  14.434
 2191SOL     OW 8469   3.018  14.706  10.994
 2191SOL    HW1 8470   3.042  14.784  11.045
 2191SOL    HW2 8471   2.923  14.712  10.984
 2192SOL     OW 8472  14.687   4.703  12.639
 2192SOL    HW1 8473  14.720   4.623  12.680
 2192SOL    HW2 8474  14.766   4.748  12.608
 2193SOL     OW 8475   8.844   2.677  13.202
 2193SOL    HW1 8476   8.765   2.722  13.230
 2193SOL    HW2 8477   8.914   2.718  13.254
 2194SOL     OW 8478   1.338   3.883   9.262
 2194SOL    HW1 8479   1.251   3.906   9.231
 2194SOL    HW2 8480   1.365   3.809   9.207
 2195SOL     OW 8481   7.593   0.394  13.838
 2195SOL    HW1 8482   7.507   0.407  13.798
 2195SOL    HW2 8483   7.627   0.315  13.797
 2196SOL     OW 8484   5.850  13.784   6.342
 2196SOL    HW1 8485   5.945  13.793   6.341
 2196SOL    HW2 8486   5.832  13.724   6.415
 2197SOL     OW 8487   7.219   6.650   9.826
 2197SOL    HW1 8488   7.216   6.717   9.895
 2197SOL    HW2 8489   7.312   6.640   9.806
 2198SOL     OW 8490  12.848  13.901  10.123
 2198SOL    HW1 8491  12.912  13.922  10.190
 2198SOL    HW2 8492  12.890  13.922  10.040
 2199SOL     OW 8493   2.526   2.902  11.295
 2199SOL    HW1 8494   2.487   2.987  11.314
 2199SOL    HW2 8495   2.557   2.911  11.204
 2200SOL     OW 8496   7.752  13.435  13.858
 2200SOL    HW1 8497   7.782  13.515  13.900
 2200SOL    HW2 8498   7.822  13.372  13.874
 2201SOL     OW 8499   0.304   0.302  11.431
 2201SOL    HW1 8500   0.336   0.265  11.513
 2201SOL    HW2 8501   0.364   0.374  11.412
 2202SOL     OW 8502   6.393   0.835   6.617
 2202SOL    HW1 8503   6.342   0.802   6.543
 2202SOL    HW2 8504   6.466   0.883   6.577
 2203SOL     OW 8505   4.219   6.715  11.932
 2203SOL    HW1 8506   4.205   6.720  12.026
 2203SOL    HW2 8507   4.173   6.637  11.904
 2204SOL     OW 8508   9.502   4.082   0.944
 2204SOL    HW1 8509   9.594   4.106   0.932
 2204SOL    HW2 8510   9.454   4.163   0.924
 2205SOL     OW 8511   5.017   6.722   6.558
 2205SOL    HW1 8512   4.995   6.663   6.486
 2205SOL    HW2 8513   5.109   6.744   6.544
 2206SOL     OW 8514  13.952   3.448  14.714
 2206SOL    HW1 8515  14.020   3.503  14.751
 2206SOL    HW2 8516  13.974   3.359  14.742
 2207SOL     OW 8517   8.736   1.391   8.987
 2207SOL    HW1 8518   8.777   1.478   8.990
 2207SOL    HW2 8519   8.776   1.348   8.911
 2208SOL     OW 8520   3.262   7.527  14.748
 2208SOL    HW1 8521   3.262   7.440  14.787
 2208SOL    HW2 8522   3.322   7.578  14.802
 2209SOL     OW 8523   2.479  12.881   2.756
 2209SOL    HW1 8524   2.467  12.976   2.753
 2209SOL    HW2 8525   2.444  12.849   2.674
 2210SOL     OW 8526  13.633  12.488  12.536
 2210SOL    HW1 8527  13.618  12.445  12.620
 2210SOL    HW2 8528  13.710  12.543  12.550
 2211SOL     OW 8529   0.140  13.558  14.359
 2211SOL    HW1 8530   0.189  13.560  14.277
 2211SOL    HW2 8531   0.160  13.473  14.397
 2212SOL     OW 8532   8.792   7.853   7.228
 2212SOL    HW1 8533   8.727   7.788   7.199
 2212SOL    HW2 8534   8.769   7.933   7.181
 2213SOL     OW 8535  12.325   7.940  11.514
 2213SOL    HW1 8536  12.344   8.033  11.519
 2213SOL    HW2 8537  12.249   7.927  11.571
 2214SOL     OW 8538   1.225   5.319   7.928
 2214SOL    HW1 8539   1.268   5.387   7.980
 2214SOL    HW2 8540   1.296   5.261   7.901
 2215SOL     OW 8541   3.099   9.142   3.605
 2215SOL    HW1 8542   3.044   9.196   3.661
 2215SOL    HW2 8543   3.111   9.060   3.654
 2216SOL     OW 8544  14.600   3.631  11.961
 2216SOL    HW1 8545  14.545   3.591  11.894
 2216SOL    HW2 8546  14.597   3.571  12.035
 2217SOL     OW 8547  13.109  12.129   3.354
 2217SOL    HW1 8548  13.074  12.040   3.365
 2217SOL    HW2 8549  13.204  12.118   3.363
 2218SOL     OW 8550   2.756   1.392   0.995
 2218SOL    HW1 8551   2.804   1.430   1.068
 2218SOL    HW2 8552   2.673   1.439   0.993
 2219SOL     OW 8553   9.614   2.872   9.729
 2219SOL    HW1 8554   9.571   2.884   9.814
 2219SOL    HW2 8555   9.545   2.835   9.673
 2220SOL     OW 8556   2.943   7.184  11.185
 2220SOL    HW1 8557   2.995   7.263  11.201
 2220SOL    HW2 8558   2.863   7.198  11.235
 2221SOL     OW 8559  13.181  13.215  14.338
 2221SOL    HW1 8560  13.144  13.191  14.253
 2221SOL    HW2 8561  13.268  13.175  14.339
 2222SOL     OW 8562   2.627  10.845   5.338
 2222SOL    HW1 8563   2.607  10.927   5.292
 2222SOL    HW2 8564   2.627  10.778   5.270
 2223SOL     OW 8565   5.793   7.233   5.054
 2223SOL    HW1 8566   5.876   7.277   5.036
 2223SOL    HW2 8567   5.795   7.155   4.999
 2224SOL     OW 8568   3.212   9.763  12.148
 2224SOL    HW1 8569   3.123   9.731  12.137
 2224SOL    HW2 8570   3.267   9.695  12.109
 2225SOL     OW 8571   3.351  10.780   6.125
 2225SOL    HW1 8572   3.390  10.859   6.162
 2225SOL    HW2 8573   3.421  10.714   6.129
 2226SOL     OW 8574  14.375  14.431  12.314
 2226SOL    HW1 8575  14.447  14.450  12.374
 2226SOL    HW2 8576  14.404  14.352  12.267
 2227SOL     OW 8577   6.786  14.470   6.221
 2227SOL    HW1 8578   6.758  14.560   6.206
 2227SOL    HW2 8579   6.779  14.428   6.136
 2228SOL     OW 8580  10.260   5.829   5.970
 2228SOL    HW1 8581  10.253   5.800   5.879
 2228SOL    HW2 8582  10.269   5.924   5.965
 2229SOL     OW 8583   6.858   6.863   0.683
 2229SOL    HW1 8584   6.843   6.953   0.653
 2229SOL    HW2 8585   6.839   6.864   0.776
 2230SOL     OW 8586  10.232  13.118   4.480
 2230SOL    HW1 8587  10.202  13.033   4.449
 2230SOL    HW2 8588  10.172  13.140   4.551
 2231SOL     OW 8589   9.419   0.814   9.279
 2231SOL    HW1 8590   9.417   0.835   9.186
 2231SOL    HW2 8591   9.472   0.734   9.285
 2232SOL     OW 8592   9.707  14.723   2.030
 2232SOL    HW1 8593   9.646  14.661   2.070
 2232SOL    HW2 8594   9.786  14.715   2.084
 2233SOL     OW 8595   7.176  12.160   7.368
 2233SOL    HW1 8596   7.246  12.193   7.425
 2233SOL    HW2 8597   7.183  12.213   7.289
 2234SOL     OW 8598   2.284   8.726   0.518
 2234SOL    HW1 8599   2.267   8.773   0.436
 2234SOL    HW2 8600   2.261   8.788   0.587
 2235SOL     OW 8601  11.536  13.817   7.781
 2235SOL    HW1 8602  11.603  13.866   7.733
 2235SOL    HW2 8603  11.494  13.763   7.715
 2236SOL     OW 8604   1.102  11.647   1.090
 2236SOL    HW1 8605   1.034  11.692   1.141
 2236SOL    HW2 8606   1.057  11.573   1.051
 2237SOL     OW 8607  14.434   6.928   1.034
 2237SOL    HW1 8608  14.517   6.961   1.067
 2237SOL    HW2 8609  14.444   6.929   0.939
 2238SOL     OW 8610   1.246  13.172   4.020
 2238SOL    HW1 8611   1.170  13.204   3.972
 2238SOL    HW2 8612   1.294  13.119   3.956
 2239SOL     OW 8613   8.089   7.894   5.379
 2239SOL    HW1 8614   8.114   7.922   5.291
 2239SOL    HW2 8615   8.160   7.926   5.435
 2240SOL     OW 8616  13.964  11.876  10.499
 2240SOL    HW1 8617  13.900  11.812  10.530
 2240SOL    HW2 8618  14.031  11.824  10.454
 2241SOL     OW 8619   6.843   6.256   2.466
 2241SOL    HW1 8620   6.791   6.184   2.503
 2241SOL    HW2 8621   6.780   6.308   2.416
 2242SOL     OW 8622   7.652   0.258  11.869
 2242SOL    HW1 8623   7.563   0.243  11.835
 2242SOL    HW2 8624   7.689   0.171  11.879
 2243SOL     OW 8625  13.685  14.486   1.017
 2243SOL    HW1 8626  13.749  14.463   1.084
 2243SOL    HW2 8627  13.673  14.580   1.026
 2244SOL     OW 8628   6.789   0.039   4.692
 2244SOL    HW1 8629   6.842  14.852   4.663
 2244SOL    HW2 8630   6.703   0.001   4.710
 2245SOL     OW 8631   7.750   2.752   0.482
 2245SOL    HW1 8632   7.823   2.695   0.457
 2245SOL    HW2 8633   7.787   2.814   0.544
 2246SOL     OW 8634  11.486   1.863   5.863
 2246SOL    HW1 8635  11.404   1.906   5.890
 2246SOL    HW2 8636  11.493   1.882   5.769
 2247SOL     OW 8637   6.069   3.822   9.193
 2247SOL    HW1 8638   6.116   3.882   9.250
 2247SOL    HW2 8639   6.099   3.844   9.105
 2248SOL     OW 8640  10.691   7.548  11.444
 2248SOL    HW1 8641  10.675   7.626  11.498
 2248SOL    HW2 8642  10.775   7.514  11.475
 2249SOL     OW 8643  11.101  14.594   7.868
 2249SOL    HW1 8644  11.130  14.557   7.951
 2249SOL    HW2 8645  11.181  14.604   7.817
 2250SOL     OW 8646   8.310   3.318   6.604
 2250SOL    HW1 8647   8.259   3.393   6.574
 2250SOL    HW2 8648   8.398   3.333   6.569
 2251SOL     OW 8649  13.769   3.738   6.264
 2251SOL    HW1 8650  13.760   3.698   6.177
 2251SOL    HW2 8651  13.831   3.810   6.251
 2252SOL     OW 8652   1.417  12.796   3.115
 2252SOL    HW1 8653   1.383  12.842   3.191
 2252SOL    HW2 8654   1.453  12.714   3.150
 2253SOL     OW 8655   5.839  11.291  10.257
 2253SOL    HW1 8656   5.849  11.215  10.199
 2253SOL    HW2 8657   5.755  11.276  10.301
 2254SOL     OW 8658   0.900   4.960   3.919
 2254SOL    HW1 8659   0.968   4.894   3.935
 2254SOL    HW2 8660   0.936   5.016   3.850
 2255SOL     OW 8661  11.947   4.462   5.307
 2255SOL    HW1 8662  11.963   4.514   5.385
 2255SOL    HW2 8663  12.019   4.483   5.248
 2256SOL     OW 8664  12.371   4.520   8.326
 2256SOL    HW1 8665  12.461   4.550   8.338
 2256SOL    HW2 8666  12.376   4.463   8.249
 2257SOL     OW 8667  12.225   2.990   6.163
 2257SOL    HW1 8668  12.271   3.021   6.085
 2257SOL    HW2 8669  12.242   2.896   6.166
 2258SOL     OW 8670   4.062  10.615  10.440
 2258SOL    HW1 8671   3.972  10.644  10.456
 2258SOL    HW2 8672   4.078  10.547  10.505
 2259SOL     OW 8673  12.698  12.905   4.779
 2259SOL    HW1 8674  12.658  12.940   4.859
 2259SOL    HW2 8675  12.777  12.957   4.767
 2260SOL     OW 8676   2.871  11.882   2.833
 2260SOL    HW1 8677   2.923  11.816   2.787
 2260SOL    HW2 8678   2.906  11.881   2.923
 2261SOL     OW 8679   2.380   6.789   5.146
 2261SOL    HW1 8680   2.302   6.747   5.109
 2261SOL    HW2 8681   2.354   6.880   5.160
 2262SOL     OW 8682   0.290   8.054   1.794
 2262SOL    HW1 8683   0.204   8.041   1.834
 2262SOL    HW2 8684   0.273   8.052   1.699
 2263SOL     OW 8685   9.505   7.694   6.195
 2263SOL    HW1 8686   9.452   7.743   6.132
 2263SOL    HW2 8687   9.592   7.691   6.156
 2264SOL     OW 8688   9.536   7.126   5.657
 2264SOL    HW1 8689   9.442   7.142   5.669
 2264SOL    HW2 8690   9.578   7.178   5.726
 2265SOL     OW 8691  11.118  11.153  13.563
 2265SOL    HW1 8692  11.160  11.240  13.563
 2265SOL    HW2 8693  11.107  11.132  13.656
 2266SOL     OW 8694   4.501   3.126   9.524
 2266SOL    HW1 8695   4.417   3.151   9.485
 2266SOL    HW2 8696   4.566   3.162   9.464
 2267SOL     OW 8697   5.218  10.850  13.877
 2267SOL    HW1 8698   5.241  10.884  13.964
 2267SOL    HW2 8699   5.123  10.843  13.878
 2268SOL     OW 8700  10.100  14.645   8.196
 2268SOL    HW1 8701  10.011  14.654   8.161
 2268SOL    HW2 8702  10.088  14.640   8.291
 2269SOL     OW 8703   1.084   3.430   8.451
 2269SOL    HW1 8704   1.162   3.462   8.496
 2269SOL    HW2 8705   1.074   3.490   8.376
 2270SOL     OW 8706   2.859   7.633  12.226
 2270SOL    HW1 8707   2.888   7.719  12.199
 2270SOL    HW2 8708   2.938   7.589  12.258
 2271SOL     OW 8709   6.004  14.424   0.825
 2271SOL    HW1 8710   6.018  14.467   0.740
 2271SOL    HW2 8711   5.914  14.447   0.848
 2272SOL     OW 8712   6.385   3.516  11.434
 2272SOL    HW1 8713   6.355   3.601  11.401
 2272SOL    HW2 8714   6.466   3.500  11.384
 2273SOL     OW 8715  12.222  12.047   4.154
 2273SOL    HW1 8716  12.168  11.968   4.156
 2273SOL    HW2 8717  12.161  12.117   4.133
 2274SOL     OW 8718   6.291   8.504  11.419
 2274SOL    HW1 8719   6.222   8.514  11.354
 2274SOL    HW2 8720   6.280   8.579  11.477
 2275SOL     OW 8721   2.182   2.133   6.608
 2275SOL    HW1 8722   2.097   2.099   6.579
 2275SOL    HW2 8723   2.232   2.144   6.527
 2276SOL     OW 8724  12.803   9.559   9.750
 2276SOL    HW1 8725  12.756   9.569   9.667
 2276SOL    HW2 8726  12.734   9.539   9.814
 2277SOL     OW 8727   4.454   7.974   5.812
 2277SOL    HW1 8728   4.485   8.062   5.832
 2277SOL    HW2 8729   4.384   7.987   5.748
 2278SOL     OW 8730   6.379   9.804   1.842
 2278SOL    HW1 8731   6.342   9.888   1.868
 2278SOL    HW2 8732   6.465   9.825   1.807
 2279SOL     OW 8733   5.554   3.721   4.634
 2279SOL    HW1 8734   5.501   3.742   4.711
 2279SOL    HW2 8735   5.491   3.719   4.562
 2280SOL     OW 8736   7.357   8.004  11.543
 2280SOL    HW1 8737   7.381   7.960  11.462
 2280SOL    HW2 8738   7.272   8.045  11.523
 2281SOL     OW 8739  11.813  14.139   8.127
 2281SOL    HW1 8740  11.793  14.233   8.134
 2281SOL    HW2 8741  11.783  14.102   8.210
 2282SOL     OW 8742   9.646   2.490   0.691
 2282SOL    HW1 8743   9.556   2.466   0.668
 2282SOL    HW2 8744   9.700   2.453   0.621
 2283SOL     OW 8745  14.758   7.636   0.550
 2283SOL    HW1 8746  14.748   7.666   0.640
 2283SOL    HW2 8747  14.846   7.600   0.547
 2284SOL     OW 8748   8.668   4.933  10.561
 2284SOL    HW1 8749   8.699   4.863  10.618
 2284SOL    HW2 8750   8.646   5.005  10.619
 2285SOL     OW 8751   2.939   6.871   4.702
 2285SOL    HW1 8752   2.959   6.825   4.784
 2285SOL    HW2 8753   2.847   6.852   4.686
 2286SOL     OW 8754   4.100   4.336   6.376
 2286SOL    HW1 8755   4.063   4.399   6.315
 2286SOL    HW2 8756   4.194   4.338   6.358
 2287SOL     OW 8757   5.932   0.734  13.982
 2287SOL    HW1 8758   5.925   0.795  13.909
 2287SOL    HW2 8759   5.957   0.789  14.056
 2288SOL     OW 8760   6.571   7.473   6.501
 2288SOL    HW1 8761   6.664   7.493   6.489
 2288SOL    HW2 8762   6.535   7.553   6.540
 2289SOL     OW 8763   8.636   9.531  12.436
 2289SOL    HW1 8764   8.586   9.456  12.406
 2289SOL    HW2 8765   8.577   9.577  12.496
 2290SOL     OW 8766  10.216  14.644   5.502
 2290SOL    HW1 8767  10.214  14.649   5.407
 2290SOL    HW2 8768  10.126  14.620   5.526
 2291SOL     OW 8769  10.196  14.536  13.497
 2291SOL    HW1 8770  10.274  14.487  13.522
 2291SOL    HW2 8771  10.223  14.628  13.500
 2292SOL     OW 8772  12.593  11.956   6.817
 2292SOL    HW1 8773  12.656  12.014   6.774
 2292SOL    HW2 8774  12.564  12.005   6.893
 2293SOL     OW 8775   4.323   4.034   3.942
 2293SOL    HW1 8776   4.413   4.026   3.911
 2293SOL    HW2 8777   4.280   3.954   3.911
 2294SOL     OW 8778   9.225   9.511  11.387
 2294SOL    HW1 8779   9.275   9.524  11.467
 2294SOL    HW2 8780   9.134   9.504  11.417
 2295SOL     OW 8781  13.327   6.655   9.839
 2295SOL    HW1 8782  13.286   6.604   9.910
 2295SOL    HW2 8783  13.386   6.716   9.884
 2296SOL     OW 8784   4.141  12.265  14.804
 2296SOL    HW1 8785   4.144  12.332  14.736
 2296SOL    HW2 8786   4.104  12.309  14.880
 2297SOL     OW 8787   0.047   6.530   8.732
 2297SOL    HW1 8788   0.061   6.567   8.645
 2297SOL    HW2 8789   0.055   6.604   8.791
 2298SOL     OW 8790  12.139   0.878   4.302
 2298SOL    HW1 8791  12.092   0.894   4.220
 2298SOL    HW2 8792  12.231   0.883   4.278
 2299SOL     OW 8793   9.965  13.382   0.039
 2299SOL    HW1 8794   9.927  13.329  14.856
 2299SOL    HW2 8795   9.890  13.425   0.080
 2300SOL     OW 8796   2.482   4.165  12.567
 2300SOL    HW1 8797   2.544   4.164  12.494
 2300SOL    HW2 8798   2.518   4.228  12.628
 2301SOL     OW 8799  13.068   9.866   4.860
 2301SOL    HW1 8800  13.117   9.812   4.799
 2301SOL    HW2 8801  13.090   9.956   4.835
 2302SOL     OW 8802  10.181   9.702  12.536
 2302SOL    HW1 8803  10.225   9.690  12.452
 2302SOL    HW2 8804  10.251   9.728  12.596
 2303SOL     OW 8805  12.945   4.708   4.954
 2303SOL    HW1 8806  12.897   4.627   4.937
 2303SOL    HW2 8807  12.895   4.752   5.022
 2304SOL     OW 8808   0.272   4.793   6.342
 2304SOL    HW1 8809   0.335   4.731   6.379
 2304SOL    HW2 8810   0.188   4.748   6.348
 2305SOL     OW 8811  10.938   0.595   1.852
 2305SOL    HW1 8812  10.962   0.687   1.847
 2305SOL    HW2 8813  10.987   0.554   1.781
 2306SOL     OW 8814   0.263  14.722   5.708
 2306SOL    HW1 8815   0.357  14.703   5.706
 2306SOL    HW2 8816   0.258  14.817   5.708
 2307SOL     OW 8817  14.495   4.165   3.418
 2307SOL    HW1 8818  14.485   4.185   3.325
 2307SOL    HW2 8819  14.581   4.124   3.424
 2308SOL     OW 8820   2.320   8.102  12.789
 2308SOL    HW1 8821   2.378   8.047  12.843
 2308SOL    HW2 8822   2.278   8.160  12.851
 2309SOL     OW 8823  12.172   5.118   0.197
 2309SOL    HW1 8824  12.189   5.092   0.288
 2309SOL    HW2 8825  12.248   5.088   0.148
 2310SOL     OW 8826   5.517   3.287   9.587
 2310SOL    HW1 8827   5.559   3.359   9.541
 2310SOL    HW2 8828   5.435   3.324   9.619
 2311SOL     OW 8829   2.758   2.830   9.213
 2311SOL    HW1 8830   2.756   2.919   9.247
 2311SOL    HW2 8831   2.839   2.793   9.249
 2312SOL     OW 8832   1.901   1.939   6.760
 2312SOL    HW1 8833   1.935   1.882   6.829
 2312SOL    HW2 8834   1.958   1.922   6.685
 2313SOL     OW 8835  11.044   4.042   7.980
 2313SOL    HW1 8836  11.131   4.068   7.949
 2313SOL    HW2 8837  11.061   3.991   8.059
 2314SOL     OW 8838  13.239  10.937   4.485
 2314SOL    HW1 8839  13.167  10.901   4.433
 2314SOL    HW2 8840  13.244  10.880   4.561
 2315SOL     OW 8841  14.325  11.819   8.075
 2315SOL    HW1 8842  14.416  11.787   8.082
 2315SOL    HW2 8843  14.334  11.914   8.068
 2316SOL     OW 8844  12.185   7.928   7.737
 2316SOL    HW1 8845  12.209   7.989   7.668
 2316SOL    HW2 8846  12.177   7.844   7.693
 2317SOL     OW 8847   2.317   2.289  11.406
 2317SOL    HW1 8848   2.405   2.305  11.372
 2317SOL    HW2 8849   2.331   2.252  11.493
 2318SOL     OW 8850   3.658  11.211   5.498
 2318SOL    HW1 8851   3.681  11.119   5.484
 2318SOL    HW2 8852   3.740  11.259   5.485
 2319SOL     OW 8853  13.138   3.271   5.138
 2319SOL    HW1 8854  13.226   3.278   5.101
 2319SOL    HW2 8855  13.099   3.357   5.121
 2320SOL     OW 8856  11.037  14.791  11.094
 2320SOL    HW1 8857  11.091  14.839  11.157
 2320SOL    HW2 8858  10.948  14.796  11.129
 2321SOL     OW 8859  13.211  12.735   9.615
 2321SOL    HW1 8860  13.280  12.800   9.626
 2321SOL    HW2 8861  13.218  12.679   9.693
 2322SOL     OW 8862   3.366   1.428   3.206
 2322SOL    HW1 8863   3.371   1.332   3.208
 2322SOL    HW2 8864   3.449   1.455   3.167
 2323SOL     OW 8865  10.673   5.613  14.284
 2323SOL    HW1 8866  10.741   5.547  14.295
 2323SOL    HW2 8867  10.677   5.637  14.191
 2324SOL     OW 8868   6.004   9.839   0.476
 2324SOL    HW1 8869   6.035   9.896   0.406
 2324SOL    HW2 8870   5.945   9.894   0.528
 2325SOL     OW 8871  13.643   9.381  10.138
 2325SOL    HW1 8872  13.566   9.437  10.152
 2325SOL    HW2 8873  13.607   9.296  10.111
 2326SOL     OW 8874   5.589   1.706  12.788
 2326SOL    HW1 8875   5.533   1.631  12.811
 2326SOL    HW2 8876   5.678   1.673  12.799
 2327SOL     OW 8877   6.194   1.402  14.233
 2327SOL    HW1 8878   6.184   1.459  14.157
 2327SOL    HW2 8879   6.104   1.382  14.259
 2328SOL     OW 8880   9.995  10.848   9.671
 2328SOL    HW1 8881  10.062  10.914   9.687
 2328SOL    HW2 8882  10.043  10.765   9.666
 2329SOL     OW 8883  14.281   5.671   7.567
 2329SOL    HW1 8884  14.303   5.595   7.514
 2329SOL    HW2 8885  14.310   5.649   7.655
 2330SOL     OW 8886  13.947   6.789   3.695
 2330SOL    HW1 8887  13.950   6.799   3.790
 2330SOL    HW2 8888  13.900   6.866   3.664
 2331SOL     OW 8889   8.909  11.801   3.966
 2331SOL    HW1 8890   8.828  11.774   4.010
 2331SOL    HW2 8891   8.978  11.750   4.009
 2332SOL     OW 8892  10.227  14.860   1.967
 2332SOL    HW1 8893  10.263   0.053   1.929
 2332SOL    HW2 8894  10.267  14.790   1.915
 2333SOL     OW 8895   5.696   1.631  14.369
 2333SOL    HW1 8896   5.699   1.578  14.289
 2333SOL    HW2 8897   5.639   1.704  14.347
 2334SOL     OW 8898   8.989   8.916   8.431
 2334SOL    HW1 8899   8.919   8.982   8.434
 2334SOL    HW2 8900   8.993   8.881   8.520
 2335SOL     OW 8901  10.679   3.962   9.226
 2335SOL    HW1 8902  10.693   3.868   9.236
 2335SOL    HW2 8903  10.625   3.986   9.302
 2336SOL     OW 8904   6.163   8.052   5.732
 2336SOL    HW1 8905   6.077   8.093   5.728
 2336SOL    HW2 8906   6.222   8.113   5.688
 2337SOL     OW 8907   6.672   3.961   4.492
 2337SOL    HW1 8908   6.651   3.900   4.562
 2337SOL    HW2 8909   6.647   3.916   4.411
 2338SOL     OW 8910  11.636   4.966  11.638
 2338SOL    HW1 8911  11.550   5.009  11.639
 2338SOL    HW2 8912  11.698   5.036  11.659
 2339SOL     OW 8913   7.096   5.905  13.566
 2339SOL    HW1 8914   7.087   5.981  13.508
 2339SOL    HW2 8915   7.129   5.940  13.648
 2340SOL     OW 8916  10.311   2.712   6.863
 2340SOL    HW1 8917  10.361   2.776   6.812
 2340SOL    HW2 8918  10.320   2.631   6.814
 2341SOL     OW 8919   0.791  12.482   3.407
 2341SOL    HW1 8920   0.761  12.458   3.319
 2341SOL    HW2 8921   0.711  12.481   3.460
 2342SOL     OW 8922   2.195  10.534   7.833
 2342SOL    HW1 8923   2.284  10.554   7.805
 2342SOL    HW2 8924   2.181  10.443   7.806
 2343SOL     OW 8925   7.872   1.199  10.041
 2343SOL    HW1 8926   7.782   1.232  10.033
 2343SOL    HW2 8927   7.924   1.277  10.060
 2344SOL     OW 8928   0.734   7.141  13.549
 2344SOL    HW1 8929   0.803   7.099  13.599
 2344SOL    HW2 8930   0.681   7.187  13.614
 2345SOL     OW 8931   8.253   6.741   8.847
 2345SOL    HW1 8932   8.278   6.686   8.921
 2345SOL    HW2 8933   8.321   6.724   8.780
 2346SOL     OW 8934  12.868   8.995  10.388
 2346SOL    HW1 8935  12.831   8.997  10.300
 2346SOL    HW2 8936  12.903   8.906  10.397
 2347SOL     OW 8937  14.874   0.565   1.403
 2347SOL    HW1 8938   0.022   0.484   1.440
 2347SOL    HW2 8939   0.046   0.587   1.331
 2348SOL     OW 8940   1.993  11.831  10.741
 2348SOL    HW1 8941   2.073  11.881  10.752
 2348SOL    HW2 8942   1.936  11.861  10.812
 2349SOL     OW 8943   4.704   8.389   0.648
 2349SOL    HW1 8944   4.740   8.445   0.717
 2349SOL    HW2 8945   4.610   8.397   0.658
 2350SOL     OW 8946   7.230   0.176   8.277
 2350SOL    HW1 8947   7.284   0.137   8.346
 2350SOL    HW2 8948   7.288   0.236   8.231
 2351SOL     OW 8949  13.917  13.257  12.608
 2351SOL    HW1 8950  13.889  13.319  12.541
 2351SOL    HW2 8951  14.007  13.283  12.629
 2352SOL     OW 8952   6.359  13.980  11.076
 2352SOL    HW1 8953   6.409  14.060  11.091
 2352SOL    HW2 8954   6.391  13.919  11.143
 2353SOL     OW 8955   1.277   9.168   9.163
 2353SOL    HW1 8956   1.196   9.216   9.145
 2353SOL    HW2 8957   1.327   9.227   9.221
 2354SOL     OW 8958   7.162   6.285  12.013
 2354SOL    HW1 8959   7.216   6.289  12.093
 2354SOL    HW2 8960   7.213   6.333  11.948
 2355SOL     OW 8961  14.885   8.986   6.203
 2355SOL    HW1 8962  14.818   9.027   6.258
 2355SOL    HW2 8963   0.013   9.050   6.133
 2356SOL     OW 8964  10.243   1.775   9.591
 2356SOL    HW1 8965  10.168   1.831   9.571
 2356SOL    HW2 8966  10.248   1.774   9.686
 2357SOL     OW 8967  10.241   9.927   3.746
 2357SOL    HW1 8968  10.201   9.995   3.692
 2357SOL    HW2 8969  10.255   9.854   3.686
 2358SOL     OW 8970   4.907   4.295   3.953
 2358SOL    HW1 8971   4.920   4.201   3.959
 2358SOL    HW2 8972   4.817   4.309   3.983
 2359SOL     OW 8973   9.609  14.689   8.478
 2359SOL    HW1 8974   9.531  14.680   8.532
 2359SOL    HW2 8975   9.627  14.600   8.446
 2360SOL     OW 8976  11.363   8.202  11.042
 2360SOL    HW1 8977  11.377   8.111  11.019
 2360SOL    HW2 8978  11.339   8.245  10.960
 2361SOL     OW 8979  12.711   2.570   3.675
 2361SOL    HW1 8980  12.681   2.643   3.729
 2361SOL    HW2 8981  12.768   2.520   3.733
 2362SOL     OW 8982   8.254  13.124  13.762
 2362SOL    HW1 8983   8.252  13.093  13.671
 2362SOL    HW2 8984   8.338  13.168  13.770
 2363SOL     OW 8985  11.992  14.218  10.724
 2363SOL    HW1 8986  11.962  14.296  10.771
 2363SOL    HW2 8987  11.928  14.151  10.745
 2364SOL     OW 8988   3.163  10.250  13.232
 2364SOL    HW1 8989   3.226  10.179  13.217
 2364SOL    HW2 8990   3.175  10.310  13.159
 2365SOL     OW 8991   4.334  12.477   0.275
 2365SOL    HW1 8992   4.242  12.452   0.261
 2365SOL    HW2 8993   4.362  12.511   0.190
 2366SOL     OW 8994   5.139  11.473   2.018
 2366SOL    HW1 8995   5.087  11.525   1.957
 2366SOL    HW2 8996   5.179  11.538   2.076
 2367SOL     OW 8997   5.367   9.773   5.754
 2367SOL    HW1 8998   5.420   9.739   5.681
 2367SOL    HW2 8999   5.290   9.715   5.756
 2368SOL     OW 9000   7.658   4.880  10.392
 2368SOL    HW1 9001   7.731   4.904  10.335
 2368SOL    HW2 9002   7.660   4.784  10.394
 2369SOL     OW 9003   9.895   0.866   3.475
 2369SOL    HW1 9004   9.962   0.935   3.477
 2369SOL    HW2 9005   9.821   0.903   3.522
 2370SOL     OW 9006   3.485   3.982   8.969
 2370SOL    HW1 9007   3.549   4.031   8.916
 2370SOL    HW2 9008   3.455   3.912   8.911
 2371SOL     OW 9009   4.293   3.337  10.557
 2371SOL    HW1 9010   4.285   3.341  10.462
 2371SOL    HW2 9011   4.298   3.428  10.585
 2372SOL     OW 9012   8.009   7.517   4.312
 2372SOL    HW1 9013   7.979   7.570   4.385
 2372SOL    HW2 9014   8.089   7.561   4.282
 2373SOL     OW 9015  13.034  11.688   0.250
 2373SOL    HW1 9016  12.967  11.734   0.199
 2373SOL    HW2 9017  13.015  11.595   0.235
 2374SOL     OW 9018   6.563  10.180  10.055
 2374SOL    HW1 9019   6.601  10.095  10.035
 2374SOL    HW2 9020   6.549  10.178  10.150
 2375SOL     OW 9021  14.485   2.013   2.457
 2375SOL    HW1 9022  14.451   1.997   2.368
 2375SOL    HW2 9023  14.416   1.980   2.515
 2376SOL     OW 9024  10.139   3.656   1.437
 2376SOL    HW1 9025  10.167   3.597   1.507
 2376SOL    HW2 9026  10.200   3.730   1.442
 2377SOL     OW 9027   9.152   1.660   8.127
 2377SOL    HW1 9028   9.218   1.622   8.069
 2377SOL    HW2 9029   9.199   1.727   8.177
 2378SOL     OW 9030   3.721  13.327   4.889
 2378SOL    HW1 9031   3.771  13.365   4.961
 2378SOL    HW2 9032   3.650  13.279   4.931
 2379SOL     OW 9033   4.561   5.739  14.136
 2379SOL    HW1 9034   4.605   5.673  14.189
 2379SOL    HW2 9035   4.476   5.749  14.178
 2380SOL     OW 9036   4.629  10.851   0.276
 2380SOL    HW1 9037   4.657  10.811   0.358
 2380SOL    HW2 9038   4.642  10.945   0.288
 2381SOL     OW 9039   8.923   1.414   6.294
 2381SOL    HW1 9040   8.864   1.460   6.354
 2381SOL    HW2 9041   8.963   1.345   6.348
 2382SOL     OW 9042   4.762   2.787   5.260
 2382SOL    HW1 9043   4.749   2.759   5.351
 2382SOL    HW2 9044   4.707   2.865   5.251
 2383SOL     OW 9045   7.539  10.807   8.086
 2383SOL    HW1 9046   7.628  10.838   8.106
 2383SOL    HW2 9047   7.545  10.776   7.996
 2384SOL     OW 9048   2.536  14.323  14.327
 2384SOL    HW1 9049   2.567  14.341  14.415
 2384SOL    HW2 9050   2.506  14.407  14.294
 2385SOL     OW 9051   0.475   0.473   5.086
 2385SOL    HW1 9052   0.511   0.436   5.167
 2385SOL    HW2 9053   0.463   0.566   5.106
 2386SOL     OW 9054   2.981   6.451   8.070
 2386SOL    HW1 9055   3.019   6.515   8.010
 2386SOL    HW2 9056   2.887   6.472   8.073
 2387SOL     OW 9057  10.335  13.088   3.561
 2387SOL    HW1 9058  10.244  13.098   3.589
 2387SOL    HW2 9059  10.335  13.013   3.502
 2388SOL     OW 9060  11.144   7.330   7.979
 2388SOL    HW1 9061  11.213   7.334   8.045
 2388SOL    HW2 9062  11.157   7.245   7.936
 2389SOL     OW 9063   7.847  14.337   3.969
 2389SOL    HW1 9064   7.798  14.340   3.887
 2389SOL    HW2 9065   7.898  14.418   3.970
 2390SOL     OW 9066   2.107  12.860   7.852
 2390SOL    HW1 9067   2.011  12.855   7.852
 2390SOL    HW2 9068   2.133  12.803   7.780
 2391SOL     OW 9069  13.203   3.498  14.781
 2391SOL    HW1 9070  13.294   3.482  14.757
 2391SOL    HW2 9071  13.160   3.522  14.699
 2392SOL     OW 9072   0.309   5.521   3.132
 2392SOL    HW1 9073   0.395   5.562   3.124
 2392SOL    HW2 9074   0.316   5.467   3.211
 2393SOL     OW 9075   2.550   9.173  12.625
 2393SOL    HW1 9076   2.458   9.187  12.651
 2393SOL    HW2 9077   2.572   9.250  12.573
 2394SOL     OW 9078  11.900   5.347   8.604
 2394SOL    HW1 9079  11.970   5.411   8.592
 2394SOL    HW2 9080  11.849   5.350   8.524
 2395SOL     OW 9081   3.136   7.313   0.298
 2395SOL    HW1 9082   3.201   7.379   0.322
 2395SOL    HW2 9083   3.110   7.336   0.209
 2396SOL     OW 9084  11.753   7.715   5.238
 2396SOL    HW1 9085  11.757   7.671   5.154
 2396SOL    HW2 9086  11.668   7.689   5.274
 2397SOL     OW 9087  10.546  10.221  13.572
 2397SOL    HW1 9088  10.556  10.316  13.578
 2397SOL    HW2 9089  10.612  10.187  13.632
 2398SOL     OW 9090   5.170   5.764   5.450
 2398SOL    HW1 9091   5.122   5.718   5.380
 2398SOL    HW2 9092   5.117   5.841   5.468
 2399SOL     OW 9093  14.502  11.322  12.743
 2399SOL    HW1 9094  14.457  11.392  12.696
 2399SOL    HW2 9095  14.536  11.364  12.822
 2400SOL     OW 9096   3.156   9.947   8.305
 2400SOL    HW1 9097   3.102   9.959   8.383
 2400SOL    HW2 9098   3.113   9.877   8.257
 2401SOL     OW 9099  13.877   0.953  13.893
 2401SOL    HW1 9100  13.848   0.997  13.973
 2401SOL    HW2 9101  13.827   0.995  13.823
 2402SOL     OW 9102   0.368   8.883   5.851
 2402SOL    HW1 9103   0.455   8.848   5.872
 2402SOL    HW2 9104   0.383   8.937   5.773
 2403SOL     OW 9105   5.302   8.291  10.223
 2403SOL    HW1 9106   5.328   8.259  10.137
 2403SOL    HW2 9107   5.384   8.299  10.272
 2404SOL     OW 9108   1.889   6.338   2.372
 2404SOL    HW1 9109   1.983   6.319   2.368
 2404SOL    HW2 9110   1.884   6.422   2.418
 2405SOL     OW 9111   8.614   4.197  10.042
 2405SOL    HW1 9112   8.642   4.218  10.131
 2405SOL    HW2 9113   8.537   4.252  10.027
 2406SOL     OW 9114  11.813  12.160   2.121
 2406SOL    HW1 9115  11.845  12.201   2.201
 2406SOL    HW2 9116  11.834  12.068   2.131
 2407SOL     OW 9117   8.251  12.108   0.485
 2407SOL    HW1 9118   8.185  12.129   0.552
 2407SOL    HW2 9119   8.285  12.193   0.458
 2408SOL     OW 9120   4.871   7.104   1.657
 2408SOL    HW1 9121   4.919   7.170   1.607
 2408SOL    HW2 9122   4.824   7.154   1.724
 2409SOL     OW 9123  10.415   3.262  14.791
 2409SOL    HW1 9124  10.467   3.305  14.724
 2409SOL    HW2 9125  10.329   3.248  14.750
 2410SOL     OW 9126   4.859   6.026   1.088
 2410SOL    HW1 9127   4.839   5.941   1.129
 2410SOL    HW2 9128   4.953   6.023   1.073
 2411SOL     OW 9129   2.948   8.613  11.066
 2411SOL    HW1 9130   2.974   8.546  11.129
 2411SOL    HW2 9131   2.927   8.689  11.120
 2412SOL     OW 9132  13.461   2.467  11.115
 2412SOL    HW1 9133  13.493   2.395  11.170
 2412SOL    HW2 9134  13.467   2.434  11.026
 2413SOL     OW 9135  14.375  12.294  12.646
 2413SOL    HW1 9136  14.298  12.242  12.669
 2413SOL    HW2 9137  14.369  12.305  12.551
 2414SOL     OW 9138   2.185   5.899   1.284
 2414SOL    HW1 9139   2.098   5.898   1.244
 2414SOL    HW2 9140   2.214   5.990   1.277
 2415SOL     OW 9141  14.735   4.205   5.866
 2415SOL    HW1 9142  14.670   4.193   5.797
 2415SOL    HW2 9143  14.746   4.300   5.871
 2416SOL     OW 9144  10.339  10.101   1.210
 2416SOL    HW1 9145  10.251  10.079   1.181
 2416SOL    HW2 9146  10.371  10.022   1.254
 2417SOL     OW 9147   1.281  11.398   6.828
 2417SOL    HW1 9148   1.287  11.304   6.845
 2417SOL    HW2 9149   1.255  11.404   6.736
 2418SOL     OW 9150   5.660   5.199  14.707
 2418SOL    HW1 9151   5.638   5.249  14.785
 2418SOL    HW2 9152   5.652   5.262  14.635
 2419SOL     OW 9153  11.741   8.760   2.982
 2419SOL    HW1 9154  11.650   8.789   2.987
 2419SOL    HW2 9155  11.790   8.839   2.962
 2420SOL     OW 9156   6.445   9.490   3.511
 2420SOL    HW1 9157   6.538   9.498   3.487
 2420SOL    HW2 9158   6.438   9.403   3.550
 2421SOL     OW 9159   4.714   7.771  13.438
 2421SOL    HW1 9160   4.634   7.719  13.425
 2421SOL    HW2 9161   4.684   7.861  13.436
 2422SOL     OW 9162   1.344   6.209   2.783
 2422SOL    HW1 9163   1.377   6.187   2.870
 2422SOL    HW2 9164   1.363   6.302   2.773
 2423SOL     OW 9165   7.895  12.614   7.749
 2423SOL    HW1 9166   7.833  12.559   7.701
 2423SOL    HW2 9167   7.841  12.667   7.807
 2424SOL     OW 9168  11.988  12.199   2.617
 2424SOL    HW1 9169  11.949  12.138   2.679
 2424SOL    HW2 9170  12.080  12.172   2.612
 2425SOL     OW 9171  14.879   3.473  11.047
 2425SOL    HW1 9172  14.818   3.508  11.112
 2425SOL    HW2 9173   0.068   3.445  11.097
 2426SOL     OW 9174   5.908   1.002   8.676
 2426SOL    HW1 9175   5.831   0.960   8.638
 2426SOL    HW2 9176   5.888   1.096   8.672
 2427SOL     OW 9177  14.275   9.426   4.437
 2427SOL    HW1 9178  14.366   9.412   4.460
 2427SOL    HW2 9179  14.278   9.477   4.356
 2428SOL     OW 9180  10.029   8.612   9.064
 2428SOL    HW1 9181  10.034   8.647   8.975
 2428SOL    HW2 9182   9.952   8.655   9.102
 2429SOL     OW 9183   4.381   3.179   0.132
 2429SOL    HW1 9184   4.381   3.084   0.134
 2429SOL    HW2 9185   4.318   3.203   0.064
 2430SOL     OW 9186   3.264   1.714   8.057
 2430SOL    HW1 9187   3.301   1.788   8.104
 2430SOL    HW2 9188   3.228   1.752   7.977
 2431SOL     OW 9189   9.201   7.958  12.776
 2431SOL    HW1 9190   9.165   8.046  12.770
 2431SOL    HW2 9191   9.125   7.900  12.768
 2432SOL     OW 9192   5.583  13.147   9.833
 2432SOL    HW1 9193   5.654  13.207   9.812
 2432SOL    HW2 9194   5.587  13.080   9.764
 2433SOL     OW 9195  11.940   2.880   2.092
 2433SOL    HW1 9196  11.964   2.848   2.005
 2433SOL    HW2 9197  11.916   2.971   2.079
 2434SOL     OW 9198   6.636  13.869  11.012
 2434SOL    HW1 9199   6.661  13.961  11.002
 2434SOL    HW2 9200   6.542  13.871  11.028
 2435SOL     OW 9201   2.071  14.438  11.631
 2435SOL    HW1 9202   1.979  14.417  11.651
 2435SOL    HW2 9203   2.116  14.354  11.634
 2436SOL     OW 9204   4.506   3.619   9.424
 2436SOL    HW1 9205   4.526   3.537   9.469
 2436SOL    HW2 9206   4.558   3.685   9.471
 2437SOL     OW 9207   5.112   3.003   0.292
 2437SOL    HW1 9208   5.019   3.018   0.276
 2437SOL    HW2 9209   5.140   3.077   0.345
 2438SOL     OW 9210  11.236   6.042  13.627
 2438SOL    HW1 9211  11.188   6.073  13.550
 2438SOL    HW2 9212  11.168   6.024  13.692
 2439SOL     OW 9213   2.633   2.558  14.053
 2439SOL    HW1 9214   2.627   2.532  13.961
 2439SOL    HW2 9215   2.555   2.611  14.068
 2440SOL     OW 9216   5.806  11.975   8.044
 2440SOL    HW1 9217   5.761  11.937   7.968
 2440SOL    HW2 9218   5.754  12.052   8.065
 2441SOL     OW 9219   8.527   0.656   0.618
 2441SOL    HW1 9220   8.483   0.620   0.541
 2441SOL    HW2 9221   8.609   0.692   0.584
 2442SOL     OW 9222   9.855   7.095   8.391
 2442SOL    HW1 9223   9.845   7.153   8.467
 2442SOL    HW2 9224   9.843   7.007   8.425
 2443SOL     OW 9225   3.390   9.927  13.799
 2443SOL    HW1 9226   3.467   9.876  13.825
 2443SOL    HW2 9227   3.331   9.919  13.874
 2444SOL     OW 9228   8.559   0.143   9.949
 2444SOL    HW1 9229   8.614   0.147   9.871
 2444SOL    HW2 9230   8.618   0.112  10.018
 2445SOL     OW 9231   2.941  11.825   6.088
 2445SOL    HW1 9232   2.954  11.911   6.128
 2445SOL    HW2 9233   2.878  11.781   6.145
 2446SOL     OW 9234  14.017  10.667   9.081
 2446SOL    HW1 9235  13.937  10.620   9.056
 2446SOL    HW2 9236  14.071  10.666   9.002
 2447SOL     OW 9237  12.334  14.765  11.682
 2447SOL    HW1 9238  12.240  14.779  11.672
 2447SOL    HW2 9239  12.357  14.703  11.613
 2448SOL     OW 9240   5.472  13.855  11.359
 2448SOL    HW1 9241   5.485  13.867  11.265
 2448SOL    HW2 9242   5.552  13.810  11.389
 2449SOL     OW 9243  12.545   1.571   2.129
 2449SOL    HW1 9244  12.624   1.600   2.082
 2449SOL    HW2 9245  12.532   1.638   2.196
 2450SOL     OW 9246  10.695  10.192  12.835
 2450SOL    HW1 9247  10.774  10.152  12.799
 2450SOL    HW2 9248  10.709  10.286  12.825
 2451SOL     OW 9249   1.778   4.153  10.490
 2451SOL    HW1 9250   1.761   4.067  10.451
 2451SOL    HW2 9251   1.800   4.210  10.416
 2452SOL     OW 9252   0.634   1.838   4.139
 2452SOL    HW1 9253   0.624   1.798   4.225
 2452SOL    HW2 9254   0.609   1.930   4.152
 2453SOL     OW 9255   2.978   8.766   2.633
 2453SOL    HW1 9256   3.062   8.812   2.635
 2453SOL    HW2 9257   2.953   8.766   2.541
 2454SOL     OW 9258  13.176   1.027   3.659
 2454SOL    HW1 9259  13.264   0.995   3.680
 2454SOL    HW2 9260  13.189   1.084   3.583
 2455SOL     OW 9261   1.824   6.856   8.964
 2455SOL    HW1 9262   1.806   6.766   8.989
 2455SOL    HW2 9263   1.749   6.906   8.997
 2456SOL     OW 9264   9.758   7.284   3.192
 2456SOL    HW1 9265   9.785   7.375   3.183
 2456SOL    HW2 9266   9.834   7.233   3.163
 2457SOL     OW 9267   8.670   7.806  10.138
 2457SOL    HW1 9268   8.617   7.833  10.213
 2457SOL    HW2 9269   8.679   7.711  10.148
 2458SOL     OW 9270   8.715  14.554   9.448
 2458SOL    HW1 9271   8.676  14.640   9.438
 2458SOL    HW2 9272   8.689  14.526   9.536
 2459SOL     OW 9273   9.426   9.931  10.467
 2459SOL    HW1 9274   9.349   9.983  10.443
 2459SOL    HW2 9275   9.472   9.917  10.384
 2460SOL     OW 9276  12.834  13.414   3.802
 2460SOL    HW1 9277  12.834  13.340   3.742
 2460SOL    HW2 9278  12.749  13.409   3.847
 2461SOL     OW 9279  14.681   1.047  13.116
 2461SOL    HW1 9280  14.631   1.038  13.197
 2461SOL    HW2 9281  14.758   1.099  13.140
 2462SOL     OW 9282  14.057  11.203  12.870
 2462SOL    HW1 9283  14.088  11.113  12.872
 2462SOL    HW2 9284  13.970  11.198  12.830
 2463SOL     OW 9285  13.728   4.764  12.937
 2463SOL    HW1 9286  13.765   4.829  12.996
 2463SOL    HW2 9287  13.788   4.761  12.863
 2464SOL     OW 9288   6.434   5.984  12.273
 2464SOL    HW1 9289   6.411   5.975  12.181
 2464SOL    HW2 9290   6.527   5.961  12.277
 2465SOL     OW 9291   0.620   5.300   7.819
 2465SOL    HW1 9292   0.525   5.311   7.821
 2465SOL    HW2 9293   0.652   5.354   7.891
 2466SOL     OW 9294   4.595   8.624   7.210
 2466SOL    HW1 9295   4.594   8.689   7.139
 2466SOL    HW2 9296   4.529   8.560   7.183
 2467SOL     OW 9297   1.646   5.307   3.824
 2467SOL    HW1 9298   1.589   5.248   3.774
 2467SOL    HW2 9299   1.592   5.335   3.898
 2468SOL     OW 9300  12.762   4.398   3.241
 2468SOL    HW1 9301  12.718   4.333   3.186
 2468SOL    HW2 9302  12.694   4.431   3.299
 2469SOL     OW 9303   6.445   9.853  14.276
 2469SOL    HW1 9304   6.423   9.922  14.214
 2469SOL    HW2 9305   6.467   9.777  14.221
 2470SOL     OW 9306  14.858   6.573   7.820
 2470SOL    HW1 9307  14.849   6.480   7.844
 2470SOL    HW2 9308  14.774   6.595   7.779
 2471SOL     OW 9309  13.245   4.666   2.072
 2471SOL    HW1 9310  13.299   4.670   1.993
 2471SOL    HW2 9311  13.303   4.631   2.140
 2472SOL     OW 9312  10.734   0.069   2.104
 2472SOL    HW1 9313  10.804   0.099   2.161
 2472SOL    HW2 9314  10.694  14.883   2.151
 2473SOL     OW 9315   5.244  13.807   6.993
 2473SOL    HW1 9316   5.295  13.866   7.048
 2473SOL    HW2 9317   5.222  13.734   7.051
 2474SOL     OW 9318   1.215   0.568   5.835
 2474SOL    HW1 9319   1.250   0.638   5.890
 2474SOL    HW2 9320   1.133   0.603   5.801
 2475SOL     OW 9321   3.340   7.006   2.888
 2475SOL    HW1 9322   3.398   6.944   2.843
 2475SOL    HW2 9323   3.292   7.050   2.818
 2476SOL     OW 9324  12.365   9.529   8.181
 2476SOL    HW1 9325  12.271   9.543   8.192
 2476SOL    HW2 9326  12.396   9.507   8.269
 2477SOL     OW 9327   4.117  14.205   5.521
 2477SOL    HW1 9328   4.145  14.234   5.607
 2477SOL    HW2 9329   4.141  14.276   5.462
 2478SOL     OW 9330   6.311   0.383  14.505
 2478SOL    HW1 9331   6.312   0.467  14.551
 2478SOL    HW2 9332   6.219   0.364  14.490
 2479SOL     OW 9333  13.983  12.726  13.457
 2479SOL    HW1 9334  14.077  12.716  13.449
 2479SOL    HW2 9335  13.958  12.785  13.386
 2480SOL     OW 9336   7.621  11.379   2.755
 2480SOL    HW1 9337   7.616  11.284   2.768
 2480SOL    HW2 9338   7.596  11.393   2.664
 2481SOL     OW 9339   4.926   6.768   7.988
 2481SOL    HW1 9340   4.935   6.723   8.072
 2481SOL    HW2 9341   5.002   6.825   7.984
 2482SOL     OW 9342   9.734  13.998   4.994
 2482SOL    HW1 9343   9.698  14.080   4.962
 2482SOL    HW2 9344   9.801  13.974   4.930
 2483SOL     OW 9345   1.413   5.672  11.443
 2483SOL    HW1 9346   1.415   5.761  11.477
 2483SOL    HW2 9347   1.445   5.618  11.516
 2484SOL     OW 9348  11.688   6.954  13.023
 2484SOL    HW1 9349  11.682   6.884  13.087
 2484SOL    HW2 9350  11.764   7.005  13.049
 2485SOL     OW 9351   2.692   8.034   6.820
 2485SOL    HW1 9352   2.779   8.065   6.844
 2485SOL    HW2 9353   2.668   7.971   6.888
 2486SOL     OW 9354   2.615  14.806   4.623
 2486SOL    HW1 9355   2.560  14.877   4.655
 2486SOL    HW2 9356   2.555  14.733   4.611
 2487SOL     OW 9357  12.903   2.783   8.432
 2487SOL    HW1 9358  12.976   2.751   8.485
 2487SOL    HW2 9359  12.902   2.878   8.448
 2488SOL     OW 9360   0.828   8.938   0.956
 2488SOL    HW1 9361   0.765   8.867   0.950
 2488SOL    HW2 9362   0.912   8.895   0.968
 2489SOL     OW 9363   5.608   9.185   9.645
 2489SOL    HW1 9364   5.596   9.237   9.566
 2489SOL    HW2 9365   5.649   9.245   9.707
 2490SOL     OW 9366  14.782   0.454   4.711
 2490SOL    HW1 9367  14.694   0.486   4.734
 2490SOL    HW2 9368  14.839   0.488   4.780
 2491SOL     OW 9369  11.513   3.256   5.549
 2491SOL    HW1 9370  11.418   3.267   5.548
 2491SOL    HW2 9371  11.544   3.315   5.480
 2492SOL     OW 9372   9.294  11.998   6.256
 2492SOL    HW1 9373   9.309  12.057   6.330
 2492SOL    HW2 9374   9.232  11.933   6.290
 2493SOL     OW 9375   9.275   9.126   7.634
 2493SOL    HW1 9376   9.241   9.215   7.625
 2493SOL    HW2 9377   9.364   9.131   7.601
 2494SOL     OW 9378  12.891   0.080   3.017
 2494SOL    HW1 9379  12.914   0.008   3.076
 2494SOL    HW2 9380  12.974   0.103   2.975
 2495SOL     OW 9381   1.186   1.180   4.572
 2495SOL    HW1 9382   1.222   1.095   4.597
 2495SOL    HW2 9383   1.108   1.160   4.521
 2496SOL     OW 9384   5.107  14.862   4.059
 2496SOL    HW1 9385   5.047  14.792   4.084
 2496SOL    HW2 9386   5.174  14.863   4.127
 2497SOL     OW 9387  10.978  10.487   9.042
 2497SOL    HW1 9388  10.955  10.394   9.037
 2497SOL    HW2 9389  10.984  10.505   9.136
 2498SOL     OW 9390  14.451   6.355  11.389
 2498SOL    HW1 9391  14.518   6.326  11.327
 2498SOL    HW2 9392  14.454   6.451  11.385
 2499SOL     OW 9393   6.062   4.351   2.697
 2499SOL    HW1 9394   5.970   4.362   2.721
 2499SOL    HW2 9395   6.059   4.319   2.606
 2500SOL     OW 9396  14.084  12.993   4.224
 2500SOL    HW1 9397  14.001  12.947   4.239
 2500SOL    HW2 9398  14.130  12.986   4.308
 2501SOL     OW 9399  14.266   3.792  14.717
 2501SOL    HW1 9400  14.256   3.702  14.748
 2501SOL    HW2 9401  14.176   3.823  14.707
 2502SOL     OW 9402   5.211  12.228   7.962
 2502SOL    HW1 9403   5.141  12.214   7.899
 2502SOL    HW2 9404   5.238  12.139   7.988
 2503SOL     OW 9405   3.140   4.555   7.503
 2503SOL    HW1 9406   3.160   4.464   7.524
 2503SOL    HW2 9407   3.175   4.568   7.416
 2504SOL     OW 9408  11.845   1.626   6.893
 2504SOL    HW1 9409  11.869   1.644   6.984
 2504SOL    HW2 9410  11.749   1.624   6.894
 2505SOL     OW 9411   4.170   5.270   8.974
 2505SOL    HW1 9412   4.234   5.202   8.997
 2505SOL    HW2 9413   4.215   5.323   8.908
 2506SOL     OW 9414  12.100   0.950  13.415
 2506SOL    HW1 9415  12.059   0.908  13.491
 2506SOL    HW2 9416  12.193   0.955  13.437
 2507SOL     OW 9417   7.803  13.627  14.694
 2507SOL    HW1 9418   7.854  13.699  14.731
 2507SOL    HW2 9419   7.729  13.617  14.754
 2508SOL     OW 9420   2.764   0.692   1.621
 2508SOL    HW1 9421   2.766   0.653   1.708
 2508SOL    HW2 9422   2.833   0.758   1.622
 2509SOL     OW 9423  11.269   6.064   6.279
 2509SOL    HW1 9424  11.215   6.015   6.342
 2509SOL    HW2 9425  11.345   6.093   6.330
 2510SOL     OW 9426  11.742   5.713   8.566
 2510SOL    HW1 9427  11.765   5.690   8.476
 2510SOL    HW2 9428  11.825   5.732   8.608
 2511SOL     OW 9429   3.804   7.541   6.911
 2511SOL    HW1 9430   3.788   7.544   7.005
 2511SOL    HW2 9431   3.819   7.448   6.892
 2512SOL     OW 9432   0.744  14.657  11.521
 2512SOL    HW1 9433   0.651  14.675  11.507
 2512SOL    HW2 9434   0.746  14.604  11.601
 2513SOL     OW 9435   7.064   2.905   6.852
 2513SOL    HW1 9436   7.083   2.812   6.865
 2513SOL    HW2 9437   7.051   2.913   6.757
 2514SOL     OW 9438  10.683   8.245   7.132
 2514SOL    HW1 9439  10.777   8.258   7.118
 2514SOL    HW2 9440  10.642   8.314   7.081
 2515SOL     OW 9441  13.179   7.208   2.258
 2515SOL    HW1 9442  13.141   7.263   2.190
 2515SOL    HW2 9443  13.231   7.143   2.210
 2516SOL     OW 9444  10.535  10.717   6.539
 2516SOL    HW1 9445  10.618  10.673   6.525
 2516SOL    HW2 9446  10.502  10.735   6.451
 2517SOL     OW 9447   8.791   8.904   1.129
 2517SOL    HW1 9448   8.848   8.981   1.131
 2517SOL    HW2 9449   8.851   8.830   1.131
 2518SOL     OW 9450   5.751   8.791   6.909
 2518SOL    HW1 9451   5.791   8.835   6.984
 2518SOL    HW2 9452   5.692   8.856   6.871
 2519SOL     OW 9453   9.424   7.807  12.834
 2519SOL    HW1 9454   9.357   7.861  12.793
 2519SOL    HW2 9455   9.440   7.848  12.919
 2520SOL     OW 9456   1.882   4.306   3.325
 2520SOL    HW1 9457   1.790   4.330   3.332
 2520SOL    HW2 9458   1.884   4.212   3.347
 2521SOL     OW 9459   7.262   8.612  11.925
 2521SOL    HW1 9460   7.306   8.546  11.979
 2521SOL    HW2 9461   7.220   8.561  11.856
 2522SOL     OW 9462   3.583   9.659   6.594
 2522SOL    HW1 9463   3.498   9.628   6.624
 2522SOL    HW2 9464   3.567   9.751   6.571
 2523SOL     OW 9465   6.160   7.754  14.406
 2523SOL    HW1 9466   6.200   7.837  14.433
 2523SOL    HW2 9467   6.072   7.778  14.378
 2524SOL     OW 9468   2.467   8.909  10.278
 2524SOL    HW1 9469   2.462   8.815  10.293
 2524SOL    HW2 9470   2.482   8.918  10.184
 2525SOL     OW 9471   7.556   0.956  11.369
 2525SOL    HW1 9472   7.583   0.955  11.461
 2525SOL    HW2 9473   7.496   1.030  11.362
 2526SOL     OW 9474   9.597   1.344   7.474
 2526SOL    HW1 9475   9.521   1.388   7.513
 2526SOL    HW2 9476   9.593   1.255   7.509
 2527SOL     OW 9477   5.288  12.926   0.203
 2527SOL    HW1 9478   5.296  12.839   0.243
 2527SOL    HW2 9479   5.242  12.978   0.269
 2528SOL     OW 9480  13.614   4.536   3.149
 2528SOL    HW1 9481  13.528   4.502   3.123
 2528SOL    HW2 9482  13.658   4.555   3.066
 2529SOL     OW 9483   1.316   5.072  13.433
 2529SOL    HW1 9484   1.377   5.034  13.370
 2529SOL    HW2 9485   1.230   5.040  13.406
 2530SOL     OW 9486   9.093   7.668   6.219
 2530SOL    HW1 9487   9.022   7.699   6.275
 2530SOL    HW2 9488   9.048   7.620   6.149
 2531SOL     OW 9489   0.379  14.414   3.768
 2531SOL    HW1 9490   0.439  14.354   3.724
 2531SOL    HW2 9491   0.312  14.358   3.805
 2532SOL     OW 9492   1.153   7.874   6.087
 2532SOL    HW1 9493   1.107   7.955   6.107
 2532SOL    HW2 9494   1.084   7.809   6.076
 2533SOL     OW 9495   8.641  12.842   8.769
 2533SOL    HW1 9496   8.676  12.836   8.680
 2533SOL    HW2 9497   8.550  12.870   8.757
 2534SOL     OW 9498  10.102  10.913  14.705
 2534SOL    HW1 9499  10.160  10.952  14.770
 2534SOL    HW2 9500  10.128  10.821  14.703
 2535SOL     OW 9501   5.291   2.178  14.607
 2535SOL    HW1 9502   5.334   2.256  14.573
 2535SOL    HW2 9503   5.202   2.182  14.572
 2536SOL     OW 9504   7.992  12.376  11.143
 2536SOL    HW1 9505   7.992  12.281  11.155
 2536SOL    HW2 9506   7.965  12.388  11.052
 2537SOL     OW 9507   9.109   0.208   6.578
 2537SOL    HW1 9508   9.120   0.229   6.486
 2537SOL    HW2 9509   9.175   0.141   6.596
 2538SOL     OW 9510   2.958   5.186   7.214
 2538SOL    HW1 9511   2.868   5.156   7.228
 2538SOL    HW2 9512   3.011   5.129   7.270
 2539SOL     OW 9513   6.264  11.500   8.816
 2539SOL    HW1 9514   6.226  11.434   8.873
 2539SOL    HW2 9515   6.359  11.484   8.822
 2540SOL     OW 9516   9.833   7.942  12.893
 2540SOL    HW1 9517   9.818   7.849  12.912
 2540SOL    HW2 9518   9.810   7.951  12.800
 2541SOL     OW 9519  11.829   3.756   1.443
 2541SOL    HW1 9520  11.802   3.722   1.358
 2541SOL    HW2 9521  11.923   3.771   1.434
 2542SOL     OW 9522   5.357  11.531   3.636
 2542SOL    HW1 9523   5.392  11.478   3.708
 2542SOL    HW2 9524   5.347  11.618   3.673
 2543SOL     OW 9525   2.927   9.427  11.029
 2543SOL    HW1 9526   2.869   9.496  10.997
 2543SOL    HW2 9527   2.925   9.361  10.960
 2544SOL     OW 9528   5.439   7.642  13.454
 2544SOL    HW1 9529   5.503   7.705  13.423
 2544SOL    HW2 9530   5.364   7.695  13.482
 2545SOL     OW 9531   1.889  13.413   3.994
 2545SOL    HW1 9532   1.881  13.340   4.055
 2545SOL    HW2 9533   1.800  13.432   3.966
 2546SOL     OW 9534   2.867   5.592   8.558
 2546SOL    HW1 9535   2.874   5.640   8.475
 2546SOL    HW2 9536   2.919   5.513   8.545
 2547SOL     OW 9537   5.433  11.563  10.611
 2547SOL    HW1 9538   5.391  11.648  10.623
 2547SOL    HW2 9539   5.362  11.506  10.581
 2548SOL     OW 9540  13.937   3.476  14.349
 2548SOL    HW1 9541  14.029   3.503  14.357
 2548SOL    HW2 9542  13.938   3.381  14.364
 2549SOL     OW 9543   0.373  10.609   8.044
 2549SOL    HW1 9544   0.390  10.666   7.970
 2549SOL    HW2 9545   0.348  10.525   8.004
 2550SOL     OW 9546  11.290  14.034   3.354
 2550SOL    HW1 9547  11.259  13.962   3.409
 2550SOL    HW2 9548  11.254  14.015   3.267
 2551SOL     OW 9549  11.461   2.209   6.422
 2551SOL    HW1 9550  11.470   2.296   6.383
 2551SOL    HW2 9551  11.399   2.222   6.494
 2552SOL     OW 9552   3.120   7.600   9.927
 2552SOL    HW1 9553   3.074   7.672   9.885
 2552SOL    HW2 9554   3.194   7.581   9.868
 2553SOL     OW 9555   9.233   7.850   8.996
 2553SOL    HW1 9556   9.175   7.884   8.928
 2553SOL    HW2 9557   9.207   7.896   9.076
 2554SOL     OW 9558  12.178  11.473   2.627
 2554SOL    HW1 9559  12.177  11.408   2.557
 2554SOL    HW2 9560  12.215  11.427   2.703
 2555SOL     OW 9561   2.341  13.012   6.392
 2555SOL    HW1 9562   2.301  12.937   6.349
 2555SOL    HW2 9563   2.384  13.060   6.321
 2556SOL     OW 9564   8.285   0.989   3.953
 2556SOL    HW1 9565   8.313   1.069   3.908
 2556SOL    HW2 9566   8.198   0.971   3.917
 2557SOL     OW 9567   5.624   8.458   9.184
 2557SOL    HW1 9568   5.629   8.363   9.200
 2557SOL    HW2 9569   5.623   8.466   9.089
 2558SOL     OW 9570   7.841  12.966   1.962
 2558SOL    HW1 9571   7.870  12.981   1.872
 2558SOL    HW2 9572   7.754  13.006   1.966
 2559SOL     OW 9573   7.438   6.667  12.839
 2559SOL    HW1 9574   7.392   6.745  12.873
 2559SOL    HW2 9575   7.401   6.594  12.889
 2560SOL     OW 9576  12.451  11.924   1.036
 2560SOL    HW1 9577  12.494  11.904   0.953
 2560SOL    HW2 9578  12.365  11.958   1.011
 2561SOL     OW 9579   1.355   7.165   9.799
 2561SOL    HW1 9580   1.376   7.240   9.743
 2561SOL    HW2 9581   1.430   7.106   9.790
 2562SOL     OW 9582   8.749  13.713   5.740
 2562SOL    HW1 9583   8.806  13.664   5.681
 2562SOL    HW2 9584   8.723  13.790   5.690
 2563SOL     OW 9585   0.718   9.990   7.446
 2563SOL    HW1 9586   0.664  10.047   7.392
 2563SOL    HW2 9587   0.761   9.931   7.384
 2564SOL     OW 9588   8.192   9.777  11.113
 2564SOL    HW1 9589   8.139   9.825  11.048
 2564SOL    HW2 9590   8.252   9.843  11.148
 2565SOL     OW 9591   6.339  14.013  12.489
 2565SOL    HW1 9592   6.342  13.965  12.407
 2565SOL    HW2 9593   6.248  14.041  12.498
 2566SOL     OW 9594   6.616  13.090   3.613
 2566SOL    HW1 9595   6.691  13.030   3.612
 2566SOL    HW2 9596   6.584  13.086   3.703
 2567SOL     OW 9597   4.411   2.635   8.509
 2567SOL    HW1 9598   4.490   2.599   8.549
 2567SOL    HW2 9599   4.355   2.659   8.583
 2568SOL     OW 9600   9.205   5.736   6.978
 2568SOL    HW1 9601   9.211   5.776   6.892
 2568SOL    HW2 9602   9.202   5.641   6.961
 2569SOL     OW 9603   4.365   1.848   1.804
 2569SOL    HW1 9604   4.455   1.872   1.824
 2569SOL    HW2 9605   4.329   1.924   1.759
 2570SOL     OW 9606   6.483   8.325   9.257
 2570SOL    HW1 9607   6.568   8.283   9.272
 2570SOL    HW2 9608   6.462   8.366   9.341
 2571SOL     OW 9609   0.616  13.326  11.012
 2571SOL    HW1 9610   0.704  13.295  11.034
 2571SOL    HW2 9611   0.622  13.421  11.017
 2572SOL     OW 9612   0.481   2.754   4.749
 2572SOL    HW1 9613   0.490   2.702   4.829
 2572SOL    HW2 9614   0.480   2.845   4.780
 2573SOL     OW 9615   3.096   6.004   0.659
 2573SOL    HW1 9616   3.102   5.909   0.649
 2573SOL    HW2 9617   3.159   6.039   0.595
 2574SOL     OW 9618   4.238   5.183   4.079
 2574SOL    HW1 9619   4.224   5.277   4.084
 2574SOL    HW2 9620   4.231   5.153   4.170
 2575SOL     OW 9621  11.908   7.227   1.000
 2575SOL    HW1 9622  11.874   7.140   1.023
 2575SOL    HW2 9623  12.002   7.213   0.987
 2576SOL     OW 9624   1.320   9.597   5.519
 2576SOL    HW1 9625   1.311   9.528   5.452
 2576SOL    HW2 9626   1.290   9.676   5.475
 2577SOL     OW 9627   6.625   2.063   5.244
 2577SOL    HW1 9628   6.599   2.066   5.336
 2577SOL    HW2 9629   6.700   2.122   5.238
 2578SOL     OW 9630  11.222   8.975   3.019
 2578SOL    HW1 9631  11.171   9.038   3.070
 2578SOL    HW2 9632  11.208   8.891   3.064
 2579SOL     OW 9633   0.722   3.759   1.925
 2579SOL    HW1 9634   0.641   3.793   1.963
 2579SOL    HW2 9635   0.738   3.677   1.973
 2580SOL     OW 9636   9.394   9.438   0.382
 2580SOL    HW1 9637   9.350   9.487   0.450
 2580SOL    HW2 9638   9.414   9.502   0.314
 2581SOL     OW 9639   0.833   7.553  14.037
 2581SOL    HW1 9640   0.806   7.535  14.127
 2581SOL    HW2 9641   0.830   7.649  14.030
 2582SOL     OW 9642  13.101   0.594   6.574
 2582SOL    HW1 9643  13.094   0.589   6.479
 2582SOL    HW2 9644  13.190   0.566   6.594
 2583SOL     OW 9645   2.382   1.905  11.667
 2583SOL    HW1 9646   2.412   1.867  11.749
 2583SOL    HW2 9647   2.374   1.831  11.607
 2584SOL     OW 9648  11.227   5.827   8.494
 2584SOL    HW1 9649  11.290   5.756   8.506
 2584SOL    HW2 9650  11.186   5.809   8.409
 2585SOL     OW 9651   1.897  14.387   2.186
 2585SOL    HW1 9652   1.973  14.405   2.130
 2585SOL    HW2 9653   1.828  14.363   2.125
 2586SOL     OW 9654   3.887  10.152   3.621
 2586SOL    HW1 9655   3.978  10.151   3.591
 2586SOL    HW2 9656   3.873  10.241   3.654
 2587SOL     OW 9657   7.472   7.767   3.239
 2587SOL    HW1 9658   7.408   7.777   3.309
 2587SOL    HW2 9659   7.495   7.857   3.214
 2588SOL     OW 9660   7.913   5.354   1.071
 2588SOL    HW1 9661   7.923   5.449   1.082
 2588SOL    HW2 9662   7.827   5.335   1.110
 2589SOL     OW 9663   1.578   4.265   9.021
 2589SOL    HW1 9664   1.644   4.309   9.074
 2589SOL    HW2 9665   1.578   4.175   9.053
 2590SOL     OW 9666   7.551   1.202   5.239
 2590SOL    HW1 9667   7.534   1.161   5.154
 2590SOL    HW2 9668   7.464   1.222   5.274
 2591SOL     OW 9669   4.981   4.107   1.374
 2591SOL    HW1 9670   4.939   4.103   1.288
 2591SOL    HW2 9671   4.939   4.181   1.418
 2592SOL     OW 9672   4.397  14.257   2.819
 2592SOL    HW1 9673   4.413  14.163   2.807
 2592SOL    HW2 9674   4.481  14.298   2.802
 2593SOL     OW 9675  10.994  10.564   4.263
 2593SOL    HW1 9676  10.926  10.517   4.215
 2593SOL    HW2 9677  11.064  10.500   4.275
 2594SOL     OW 9678  13.053   8.556   7.995
 2594SOL    HW1 9679  13.141   8.578   7.964
 2594SOL    HW2 9680  13.061   8.465   8.025
 2595SOL     OW 9681  10.449  10.157  10.941
 2595SOL    HW1 9682  10.356  10.139  10.949
 2595SOL    HW2 9683  10.466  10.225  11.006
 2596SOL     OW 9684  12.684   9.394   9.288
 2596SOL    HW1 9685  12.726   9.325   9.340
 2596SOL    HW2 9686  12.664   9.353   9.204
 2597SOL     OW 9687   4.134   2.025   0.697
 2597SOL    HW1 9688   4.111   2.000   0.608
 2597SOL    HW2 9689   4.199   1.960   0.725
 2598SOL     OW 9690  14.255   9.139   4.356
 2598SOL    HW1 9691  14.215   9.127   4.442
 2598SOL    HW2 9692  14.328   9.199   4.371
 2599SOL     OW 9693   5.578  12.769   4.959
 2599SOL    HW1 9694   5.587  12.788   5.052
 2599SOL    HW2 9695   5.613  12.846   4.914
 2600SOL     OW 9696   9.051   8.285   9.484
 2600SOL    HW1 9697   9.105   8.277   9.563
 2600SOL    HW2 9698   8.961   8.275   9.515
 2601SOL     OW 9699   2.506  14.327   4.782
 2601SOL    HW1 9700   2.412  14.334   4.800
 2601SOL    HW2 9701   2.511  14.284   4.696
 2602SOL     OW 9702   1.212  11.318  14.266
 2602SOL    HW1 9703   1.238  11.248  14.206
 2602SOL    HW2 9704   1.141  11.363  14.220
 2603SOL     OW 9705   3.342  10.091   8.170
 2603SOL    HW1 9706   3.419  10.035   8.162
 2603SOL    HW2 9707   3.285  10.044   8.232
 2604SOL     OW 9708   8.485  10.396   0.593
 2604SOL    HW1 9709   8.470  10.480   0.635
 2604SOL    HW2 9710   8.579  10.380   0.604
 2605SOL     OW 9711   5.728   7.665   9.557
 2605SOL    HW1 9712   5.822   7.683   9.563
 2605SOL    HW2 9713   5.718   7.577   9.594
 2606SOL     OW 9714  14.713  14.192   2.592
 2606SOL    HW1 9715  14.683  14.120   2.536
 2606SOL    HW2 9716  14.738  14.260   2.530
 2607SOL     OW 9717   2.135  13.332   7.302
 2607SOL    HW1 9718   2.158  13.301   7.214
 2607SOL    HW2 9719   2.059  13.279   7.326
 2608SOL     OW 9720  13.558  12.071   0.045
 2608SOL    HW1 9721  13.476  12.040   0.007
 2608SOL    HW2 9722  13.623  12.056  14.864
 2609SOL     OW 9723   6.780   1.067   5.196
 2609SOL    HW1 9724   6.702   1.120   5.178
 2609SOL    HW2 9725   6.827   1.117   5.263
 2610SOL     OW 9726   0.612   1.036  14.877
 2610SOL    HW1 9727   0.554   0.995   0.054
 2610SOL    HW2 9728   0.688   1.064   0.040
 2611SOL     OW 9729  11.509   8.292   9.357
 2611SOL    HW1 9730  11.473   8.300   9.269
 2611SOL    HW2 9731  11.454   8.349   9.411
 2612SOL     OW 9732  10.301   9.592  13.052
 2612SOL    HW1 9733  10.323   9.571  12.961
 2612SOL    HW2 9734  10.208   9.570  13.059
 2613SOL     OW 9735  13.515  14.578  12.209
 2613SOL    HW1 9736  13.439  14.624  12.246
 2613SOL    HW2 9737  13.591  14.620  12.250
 2614SOL     OW 9738   9.437  13.687  10.028
 2614SOL    HW1 9739   9.460  13.606   9.982
 2614SOL    HW2 9740   9.380  13.659  10.100
 2615SOL     OW 9741  11.275  13.516  11.369
 2615SOL    HW1 9742  11.184  13.517  11.337
 2615SOL    HW2 9743  11.308  13.430  11.341
 2616SOL     OW 9744   2.053   3.823   2.837
 2616SOL    HW1 9745   1.958   3.821   2.828
 2616SOL    HW2 9746   2.079   3.731   2.845
 2617SOL     OW 9747  13.882   4.739  11.082
 2617SOL    HW1 9748  13.816   4.671  11.068
 2617SOL    HW2 9749  13.853   4.812  11.028
 2618SOL     OW 9750  13.133   8.092   4.667
 2618SOL    HW1 9751  13.159   8.024   4.728
 2618SOL    HW2 9752  13.050   8.060   4.630
 2619SOL     OW 9753  12.402  12.882   0.049
 2619SOL    HW1 9754  12.410  12.974   0.024
 2619SOL    HW2 9755  12.322  12.851   0.007
 2620SOL     OW 9756   1.262  13.708   0.934
 2620SOL    HW1 9757   1.256  13.612   0.935
 2620SOL    HW2 9758   1.343  13.726   0.887
 2621SOL     OW 9759   2.523  13.586  11.808
 2621SOL    HW1 9760   2.500  13.663  11.860
 2621SOL    HW2 9761   2.613  13.565  11.835
 2622SOL     OW 9762  14.405   5.690  10.315
 2622SOL    HW1 9763  14.315   5.686  10.284
 2622SOL    HW2 9764  14.402   5.653  10.403
 2623SOL     OW 9765   1.229   7.394  14.642
 2623SOL    HW1 9766   1.176   7.471  14.621
 2623SOL    HW2 9767   1.235   7.346  14.560
 2624SOL     OW 9768   8.604   4.714   1.894
 2624SOL    HW1 9769   8.637   4.745   1.810
 2624SOL    HW2 9770   8.537   4.650   1.871
 2625SOL     OW 9771   6.683   0.511   7.680
 2625SOL    HW1 9772   6.676   0.516   7.776
 2625SOL    HW2 9773   6.672   0.418   7.660
 2626SOL     OW 9774  10.370   0.699  14.220
 2626SOL    HW1 9775  10.350   0.789  14.195
 2626SOL    HW2 9776  10.466   0.694  14.218
 2627SOL     OW 9777   0.329   6.448   0.976
 2627SOL    HW1 9778   0.308   6.355   0.969
 2627SOL    HW2 9779   0.251   6.492   0.942
 2628SOL     OW 9780  14.795   0.489   2.260
 2628SOL    HW1 9781  14.881   0.519   2.230
 2628SOL    HW2 9782  14.814   0.419   2.322
 2629SOL     OW 9783   2.717   4.039  13.631
 2629SOL    HW1 9784   2.658   4.067  13.701
 2629SOL    HW2 9785   2.787   3.992  13.676
 2630SOL     OW 9786   8.815   6.793   1.763
 2630SOL    HW1 9787   8.894   6.750   1.729
 2630SOL    HW2 9788   8.743   6.749   1.718
 2631SOL     OW 9789   2.202   9.930  10.179
 2631SOL    HW1 9790   2.279   9.987  10.177
 2631SOL    HW2 9791   2.188   9.906  10.088
 2632SOL     OW 9792   1.154  11.339   5.010
 2632SOL    HW1 9793   1.175  11.291   4.931
 2632SOL    HW2 9794   1.234  11.336   5.062
 2633SOL     OW 9795   7.593   1.382   7.306
 2633SOL    HW1 9796   7.521   1.356   7.248
 2633SOL    HW2 9797   7.623   1.466   7.271
 2634SOL     OW 9798   1.257  14.725   0.626
 2634SOL    HW1 9799   1.240  14.631   0.622
 2634SOL    HW2 9800   1.352  14.732   0.635
 2635SOL     OW 9801   5.132   8.875   8.959
 2635SOL    HW1 9802   5.056   8.847   9.010
 2635SOL    HW2 9803   5.191   8.799   8.963
 2636SOL     OW 9804  10.530   6.520   4.983
 2636SOL    HW1 9805  10.520   6.478   5.069
 2636SOL    HW2 9806  10.440   6.525   4.949
 2637SOL     OW 9807   2.291  12.525  13.357
 2637SOL    HW1 9808   2.261  12.593  13.419
 2637SOL    HW2 9809   2.309  12.573  13.276
 2638SOL     OW 9810  13.354   2.621  11.935
 2638SOL    HW1 9811  13.403   2.559  11.881
 2638SOL    HW2 9812  13.374   2.707  11.897
 2639SOL     OW 9813  10.379  13.319   9.147
 2639SOL    HW1 9814  10.396  13.399   9.196
 2639SOL    HW2 9815  10.443  13.256   9.180
 2640SOL     OW 9816  14.556   3.450  14.128
 2640SOL    HW1 9817  14.508   3.370  14.106
 2640SOL    HW2 9818  14.638   3.418  14.168
 2641SOL     OW 9819   0.718   8.186   4.755
 2641SOL    HW1 9820   0.638   8.150   4.716
 2641SOL    HW2 9821   0.786   8.170   4.690
 2642SOL     OW 9822  14.118   4.010   2.363
 2642SOL    HW1 9823  14.129   4.085   2.422
 2642SOL    HW2 9824  14.136   3.934   2.418
 2643SOL     OW 9825  14.579   2.544  13.804
 2643SOL    HW1 9826  14.581   2.493  13.723
 2643SOL    HW2 9827  14.619   2.628  13.781
 2644SOL     OW 9828  11.630   7.591   2.157
 2644SOL    HW1 9829  11.606   7.620   2.246
 2644SOL    HW2 9830  11.712   7.636   2.139
 2645SOL     OW 9831   4.911   1.305  13.403
 2645SOL    HW1 9832   4.938   1.347  13.484
 2645SOL    HW2 9833   4.930   1.370  13.335
 2646SOL     OW 9834  13.187  10.291   7.091
 2646SOL    HW1 9835  13.251  10.336   7.036
 2646SOL    HW2 9836  13.118  10.264   7.029
 2647SOL     OW 9837   0.857  13.796   0.155
 2647SOL    HW1 9838   0.865  13.853   0.232
 2647SOL    HW2 9839   0.771  13.755   0.165
 2648SOL     OW 9840   9.546   8.482   9.946
 2648SOL    HW1 9841   9.453   8.493   9.928
 2648SOL    HW2 9842   9.567   8.555  10.005
 2649SOL     OW 9843  11.140   0.335   3.703
 2649SOL    HW1 9844  11.120   0.267   3.767
 2649SOL    HW2 9845  11.182   0.404   3.755
 2650SOL     OW 9846   9.282   4.514  14.400
 2650SOL    HW1 9847   9.256   4.606  14.393
 2650SOL    HW2 9848   9.201   4.469  14.425
 2651SOL     OW 9849  12.863   7.989   6.686
 2651SOL    HW1 9850  12.788   7.930   6.676
 2651SOL    HW2 9851  12.854   8.051   6.614
 2652SOL     OW 9852  11.529   3.880   4.573
 2652SOL    HW1 9853  11.517   3.865   4.479
 2652SOL    HW2 9854  11.504   3.972   4.585
 2653SOL     OW 9855   9.361   2.411  10.557
 2653SOL    HW1 9856   9.297   2.464  10.509
 2653SOL    HW2 9857   9.370   2.332  10.505
 2654SOL     OW 9858  13.692   3.456   2.759
 2654SOL    HW1 9859  13.786   3.476   2.750
 2654SOL    HW2 9860  13.649   3.540   2.741
 2655SOL     OW 9861   9.766  12.817  14.768
 2655SOL    HW1 9862   9.699  12.768  14.816
 2655SOL    HW2 9863   9.831  12.752  14.743
 2656SOL     OW 9864   3.432   4.780   7.943
 2656SOL    HW1 9865   3.397   4.699   7.904
 2656SOL    HW2 9866   3.354   4.829   7.970
 2657SOL     OW 9867   9.818  12.986  13.957
 2657SOL    HW1 9868   9.849  13.068  13.920
 2657SOL    HW2 9869   9.742  12.962  13.904
 2658SOL     OW 9870  12.737   7.799   4.067
 2658SOL    HW1 9871  12.823   7.759   4.065
 2658SOL    HW2 9872  12.753   7.892   4.052
 2659SOL     OW 9873  10.845   4.658   7.172
 2659SOL    HW1 9874  10.796   4.590   7.128
 2659SOL    HW2 9875  10.890   4.705   7.102
 2660SOL     OW 9876  11.346   2.305  10.506
 2660SOL    HW1 9877  11.428   2.285  10.461
 2660SOL    HW2 9878  11.336   2.400  10.498
 2661SOL     OW 9879   9.807   2.587  14.104
 2661SOL    HW1 9880   9.891   2.633  14.108
 2661SOL    HW2 9881   9.779   2.581  14.196
 2662SOL     OW 9882   7.466   2.265  11.268
 2662SOL    HW1 9883   7.486   2.172  11.267
 2662SOL    HW2 9884   7.390   2.273  11.326
 2663SOL     OW 9885  11.758  11.241   6.303
 2663SOL    HW1 9886  11.833  11.209   6.253
 2663SOL    HW2 9887  11.767  11.336   6.300
 2664SOL     OW 9888  10.385   5.813   7.116
 2664SOL    HW1 9889  10.424   5.726   7.111
 2664SOL    HW2 9890  10.458   5.873   7.101
 2665SOL     OW 9891   9.118   5.896   6.745
 2665SOL    HW1 9892   9.187   5.853   6.694
 2665SOL    HW2 9893   9.151   5.985   6.759
 2666SOL     OW 9894   9.567   4.395  13.792
 2666SOL    HW1 9895   9.519   4.331  13.845
 2666SOL    HW2 9896   9.500   4.453  13.757
 2667SOL     OW 9897   6.663   8.434   9.870
 2667SOL    HW1 9898   6.667   8.500   9.802
 2667SOL    HW2 9899   6.748   8.389   9.865
 2668SOL     OW 9900   0.433   4.808  14.116
 2668SOL    HW1 9901   0.412   4.724  14.158
 2668SOL    HW2 9902   0.515   4.792  14.070
 2669SOL     OW 9903   9.552   4.961  10.489
 2669SOL    HW1 9904   9.616   4.956  10.418
 2669SOL    HW2 9905   9.508   4.876  10.488
 2670SOL     OW 9906  14.252   3.884   0.583
 2670SOL    HW1 9907  14.307   3.807   0.598
 2670SOL    HW2 9908  14.296   3.955   0.630
 2671SOL     OW 9909  14.510  11.114  13.243
 2671SOL    HW1 9910  14.451  11.117  13.318
 2671SOL    HW2 9911  14.558  11.196  13.246
 2672SOL     OW 9912   1.578   1.993  12.797
 2672SOL    HW1 9913   1.565   2.086  12.817
 2672SOL    HW2 9914   1.599   1.953  12.882
 2673SOL     OW 9915  12.041   9.926  14.512
 2673SOL    HW1 9916  12.108   9.907  14.578
 2673SOL    HW2 9917  11.959   9.899  14.553
 2674SOL     OW 9918   3.125   6.403  11.794
 2674SOL    HW1 9919   3.089   6.323  11.757
 2674SOL    HW2 9920   3.181   6.439  11.726
 2675SOL     OW 9921   5.956   5.678   1.466
 2675SOL    HW1 9922   5.921   5.594   1.436
 2675SOL    HW2 9923   6.046   5.659   1.493
 2676SOL     OW 9924   7.400  10.335   3.018
 2676SOL    HW1 9925   7.400  10.393   3.094
 2676SOL    HW2 9926   7.417  10.248   3.054
 2677SOL     OW 9927  12.244  12.180   5.380
 2677SOL    HW1 9928  12.223  12.117   5.449
 2677SOL    HW2 9929  12.165  12.234   5.372
 2678SOL     OW 9930   3.218   9.711  12.640
 2678SOL    HW1 9931   3.144   9.742  12.587
 2678SOL    HW2 9932   3.205   9.752  12.725
 2679SOL     OW 9933   8.734   2.238   2.235
 2679SOL    HW1 9934   8.828   2.239   2.256
 2679SOL    HW2 9935   8.719   2.152   2.196
 2680SOL     OW 9936   2.747   0.291  14.356
 2680SOL    HW1 9937   2.760   0.212  14.409
 2680SOL    HW2 9938   2.820   0.348  14.381
 2681SOL     OW 9939   1.251  10.574   7.630
 2681SOL    HW1 9940   1.165  10.600   7.664
 2681SOL    HW2 9941   1.232  10.540   7.542
 2682SOL     OW 9942   9.079  10.696   0.691
 2682SOL    HW1 9943   8.987  10.721   0.692
 2682SOL    HW2 9944   9.104  10.694   0.783
 2683SOL     OW 9945  14.359   9.984  11.834
 2683SOL    HW1 9946  14.386  10.019  11.919
 2683SOL    HW2 9947  14.265  10.001  11.831
 2684SOL     OW 9948  13.273   5.666   6.276
 2684SOL    HW1 9949  13.322   5.647   6.196
 2684SOL    HW2 9950  13.182   5.671   6.248
 2685SOL     OW 9951   6.020   2.067   2.915
 2685SOL    HW1 9952   5.969   2.100   2.989
 2685SOL    HW2 9953   6.048   2.146   2.869
 2686SOL     OW 9954  10.622  13.698  13.131
 2686SOL    HW1 9955  10.562  13.631  13.099
 2686SOL    HW2 9956  10.567  13.758  13.181
 2687SOL     OW 9957   6.124  14.106  10.707
 2687SOL    HW1 9958   6.152  14.172  10.770
 2687SOL    HW2 9959   6.072  14.154  10.643
 2688SOL     OW 9960   2.659  10.435   7.626
 2688SOL    HW1 9961   2.750  10.449   7.649
 2688SOL    HW2 9962   2.652  10.464   7.535
 2689SOL     OW 9963   1.081   5.418   3.232
 2689SOL    HW1 9964   1.088   5.438   3.326
 2689SOL    HW2 9965   1.038   5.495   3.194
 2690SOL     OW 9966   8.125   8.320  14.369
 2690SOL    HW1 9967   8.140   8.414  14.356
 2690SOL    HW2 9968   8.183   8.278  14.306
 2691SOL     OW 9969  12.512   2.261   4.934
 2691SOL    HW1 9970  12.533   2.335   4.990
 2691SOL    HW2 9971  12.579   2.195   4.954
 2692SOL     OW 9972  14.222   6.830   9.065
 2692SOL    HW1 9973  14.212   6.858   9.156
 2692SOL    HW2 9974  14.311   6.796   9.060
 2693SOL     OW 9975   2.551   3.362   8.352
 2693SOL    HW1 9976   2.462   3.381   8.320
 2693SOL    HW2 9977   2.576   3.441   8.400
 2694SOL     OW 9978   3.197   1.021  14.714
 2694SOL    HW1 9979   3.264   1.011  14.783
 2694SOL    HW2 9980   3.131   0.955  14.736
 2695SOL     OW 9981   2.781   8.341   8.986
 2695SOL    HW1 9982   2.843   8.410   8.965
 2695SOL    HW2 9983   2.822   8.261   8.952
 2696SOL     OW 9984   4.224   1.139   1.106
 2696SOL    HW1 9985   4.191   1.073   1.167
 2696SOL    HW2 9986   4.198   1.222   1.144
 2697SOL     OW 9987  11.470   2.398   5.425
 2697SOL    HW1 9988  11.527   2.323   5.437
 2697SOL    HW2 9989  11.525   2.474   5.444
 2698SOL     OW 9990   7.449  14.114   5.371
 2698SOL    HW1 9991   7.456  14.033   5.321
 2698SOL    HW2 9992   7.421  14.087   5.458
 2699SOL     OW 9993   8.689   4.715   1.174
 2699SOL    HW1 9994   8.678   4.774   1.248
 2699SOL    HW2 9995   8.776   4.736   1.139
 2700SOL     OW 9996   6.388   5.408  13.837
 2700SOL    HW1 9997   6.312   5.423  13.781
 2700SOL    HW2 9998   6.463   5.430  13.782
 2701SOL     OW 9999  13.529  13.205  13.108
 2701SOL    HW110000  13.441  13.229  13.079
 2701SOL    HW210001  13.551  13.129  13.056
 2702SOL     OW10002  12.749   7.834  13.600
 2702SOL    HW110003  12.658   7.850  13.624
 2702SOL    HW210004  12.797   7.836  13.683
 2703SOL     OW10005  11.984  14.034   5.411
 2703SOL    HW110006  11.890  14.022   5.395
 2703SOL    HW210007  11.990  14.114   5.463
 2704SOL     OW10008  14.031  12.642   2.675
 2704SOL    HW110009  14.024  12.736   2.657
 2704SOL    HW210010  13.942  12.614   2.694
 2705SOL     OW10011  10.436   2.329  10.584
 2705SOL    HW110012  10.394   2.394  10.640
 2705SOL    HW210013  10.409   2.245  10.621
 2706SOL     OW10014   0.007  14.361  14.318
 2706SOL    HW110015  14.846  14.423  14.264
 2706SOL    HW210016   0.006  14.279  14.269
 2707SOL     OW10017  13.380   0.375  14.147
 2707SOL    HW110018  13.327   0.391  14.069
 2707SOL    HW210019  13.384   0.460  14.191
 2708SOL     OW10020   3.899  14.544   7.480
 2708SOL    HW110021   3.845  14.517   7.555
 2708SOL    HW210022   3.845  14.524   7.403
 2709SOL     OW10023   9.717   6.912   7.557
 2709SOL    HW110024   9.671   6.966   7.621
 2709SOL    HW210025   9.686   6.823   7.573
 2710SOL     OW10026   9.939  12.388   8.207
 2710SOL    HW110027   9.869  12.347   8.156
 2710SOL    HW210028   9.931  12.481   8.188
 2711SOL     OW10029   3.366  11.215  13.473
 2711SOL    HW110030   3.344  11.149  13.407
 2711SOL    HW210031   3.397  11.290  13.423
 2712SOL     OW10032   9.978  12.269   6.293
 2712SOL    HW110033   9.914  12.290   6.362
 2712SOL    HW210034  10.045  12.336   6.301
 2713SOL     OW10035  14.598   5.363  10.218
 2713SOL    HW110036  14.565   5.435  10.165
 2713SOL    HW210037  14.539   5.290  10.199
 2714SOL     OW10038   7.220   3.515   7.976
 2714SOL    HW110039   7.261   3.429   7.962
 2714SOL    HW210040   7.166   3.529   7.899
 2715SOL     OW10041  13.893  11.404  13.655
 2715SOL    HW110042  13.853  11.322  13.685
 2715SOL    HW210043  13.820  11.455  13.619
 2716SOL     OW10044  14.736   0.985   2.444
 2716SOL    HW110045  14.773   1.008   2.530
 2716SOL    HW210046  14.797   1.023   2.381
 2717SOL     OW10047  11.601   2.945   9.268
 2717SOL    HW110048  11.529   2.985   9.218
 2717SOL    HW210049  11.634   3.016   9.323
 2718SOL     OW10050   6.400  14.004  13.530
 2718SOL    HW110051   6.415  14.006  13.624
 2718SOL    HW210052   6.327  14.065  13.516
 2719SOL     OW10053  10.294  12.845   8.689
 2719SOL    HW110054  10.218  12.902   8.696
 2719SOL    HW210055  10.288  12.806   8.602
 2720SOL     OW10056   0.802   5.655  13.348
 2720SOL    HW110057   0.852   5.734  13.328
 2720SOL    HW210058   0.730   5.656  13.286
 2721SOL     OW10059   6.270  11.755   3.592
 2721SOL    HW110060   6.182  11.752   3.629
 2721SOL    HW210061   6.256  11.743   3.498
 2722SOL     OW10062   3.052  10.141  12.218
 2722SOL    HW110063   3.061  10.137  12.313
 2722SOL    HW210064   3.141  10.127  12.185
 2723SOL     OW10065   0.105   7.871   3.614
 2723SOL    HW110066   0.118   7.954   3.567
 2723SOL    HW210067   0.034   7.890   3.675
 2724SOL     OW10068   8.200   5.866  14.604
 2724SOL    HW110069   8.250   5.793  14.642
 2724SOL    HW210070   8.203   5.934  14.672
 2725SOL     OW10071   6.908  13.063  11.082
 2725SOL    HW110072   6.989  13.068  11.133
 2725SOL    HW210073   6.936  13.075  10.991
 2726SOL     OW10074  10.778   6.191   6.564
 2726SOL    HW110075  10.859   6.241   6.553
 2726SOL    HW210076  10.713   6.238   6.511
 2727SOL     OW10077   7.018   6.618   2.945
 2727SOL    HW110078   6.942   6.563   2.925
 2727SOL    HW210079   6.981   6.703   2.968
 2728SOL     OW10080   7.821   6.508  12.407
 2728SOL    HW110081   7.898   6.566  12.408
 2728SOL    HW210082   7.857   6.422  12.386
 2729SOL     OW10083   3.249   3.302   3.645
 2729SOL    HW110084   3.330   3.314   3.595
 2729SOL    HW210085   3.265   3.349   3.727
 2730SOL     OW10086  14.414  12.451   0.719
 2730SOL    HW110087  14.413  12.545   0.734
 2730SOL    HW210088  14.414  12.413   0.808
 2731SOL     OW10089  14.598   3.275   7.141
 2731SOL    HW110090  14.661   3.282   7.069
 2731SOL    HW210091  14.545   3.199   7.120
 2732SOL     OW10092   4.012   9.827   3.695
 2732SOL    HW110093   4.061   9.904   3.667
 2732SOL    HW210094   3.922   9.857   3.705
 2733SOL     OW10095   5.631   3.802   2.642
 2733SOL    HW110096   5.632   3.830   2.551
 2733SOL    HW210097   5.614   3.708   2.639
 2734SOL     OW10098   3.302   1.649   5.336
 2734SOL    HW110099   3.375   1.626   5.278
 2734SOL    HW210100   3.320   1.739   5.363
 2735SOL     OW10101  10.076  12.462   4.443
 2735SOL    HW110102  10.101  12.469   4.351
 2735SOL    HW210103  10.073  12.368   4.460
 2736SOL     OW10104  13.921   9.230   5.587
 2736SOL    HW110105  13.834   9.238   5.548
 2736SOL    HW210106  13.975   9.292   5.537
 2737SOL     OW10107   6.079  14.337   1.198
 2737SOL    HW110108   6.026  14.326   1.277
 2737SOL    HW210109   6.080  14.431   1.182
 2738SOL     OW10110  12.304   9.599   7.615
 2738SOL    HW110111  12.255   9.518   7.603
 2738SOL    HW210112  12.302   9.616   7.709
 2739SOL     OW10113   8.507   8.401  11.340
 2739SOL    HW110114   8.416   8.424  11.320
 2739SOL    HW210115   8.526   8.450  11.420
 2740SOL     OW10116   1.220  12.652   0.826
 2740SOL    HW110117   1.176  12.567   0.837
 2740SOL    HW210118   1.298  12.631   0.776
 2741SOL     OW10119   5.509   4.699   9.107
 2741SOL    HW110120   5.522   4.784   9.064
 2741SOL    HW210121   5.439   4.657   9.058
 2742SOL     OW10122   1.150  13.379  14.043
 2742SOL    HW110123   1.096  13.342  13.972
 2742SOL    HW210124   1.231  13.329  14.041
 2743SOL     OW10125   7.289   7.167  11.170
 2743SOL    HW110126   7.337   7.095  11.211
 2743SOL    HW210127   7.206   7.172  11.218
 2744SOL     OW10128   8.569   2.780   8.566
 2744SOL    HW110129   8.652   2.785   8.612
 2744SOL    HW210130   8.531   2.867   8.574
 2745SOL     OW10131   5.274   1.746   9.531
 2745SOL    HW110132   5.348   1.771   9.475
 2745SOL    HW210133   5.199   1.743   9.471
 2746SOL     OW10134  13.212   6.531   4.342
 2746SOL    HW110135  13.190   6.465   4.276
 2746SOL    HW210136  13.305   6.550   4.326
 2747SOL     OW10137   2.041   3.433   0.597
 2747SOL    HW110138   2.037   3.517   0.641
 2747SOL    HW210139   2.130   3.401   0.613
 2748SOL     OW10140   2.007   0.650   5.841
 2748SOL    HW110141   1.970   0.608   5.763
 2748SOL    HW210142   1.937   0.645   5.906
 2749SOL     OW10143   6.273  10.418  14.703
 2749SOL    HW110144   6.214  10.370  14.644
 2749SOL    HW210145   6.216  10.451  14.772
 2750SOL     OW10146   8.017   8.206  12.081
 2750SOL    HW110147   8.101   8.252  12.086
 2750SOL    HW210148   7.982   8.229  11.995
 2751SOL     OW10149   7.956  14.403   0.400
 2751SOL    HW110150   8.004  14.461   0.342
 2751SOL    HW210151   7.874  14.448   0.417
 2752SOL     OW10152   8.620  14.074  11.897
 2752SOL    HW110153   8.529  14.046  11.897
 2752SOL    HW210154   8.628  14.132  11.972
 2753SOL     OW10155   2.394  14.775   3.717
 2753SOL    HW110156   2.480  14.757   3.681
 2753SOL    HW210157   2.334  14.768   3.643
 2754SOL     OW10158   2.541   7.681  11.565
 2754SOL    HW110159   2.635   7.702  11.566
 2754SOL    HW210160   2.502   7.744  11.626
 2755SOL     OW10161  12.077   5.846  10.730
 2755SOL    HW110162  12.079   5.881  10.819
 2755SOL    HW210163  11.988   5.814  10.719
 2756SOL     OW10164  10.110   7.170  10.005
 2756SOL    HW110165  10.200   7.136  10.001
 2756SOL    HW210166  10.107   7.218  10.088
 2757SOL     OW10167  12.299   9.444   2.548
 2757SOL    HW110168  12.278   9.352   2.534
 2757SOL    HW210169  12.391   9.453   2.523
 2758SOL     OW10170   1.109   1.235  11.049
 2758SOL    HW110171   1.133   1.206  10.961
 2758SOL    HW210172   1.036   1.296  11.034
 2759SOL     OW10173  14.338  11.383   2.323
 2759SOL    HW110174  14.243  11.372   2.322
 2759SOL    HW210175  14.354  11.469   2.285
 2760SOL     OW10176   4.130   1.289  10.154
 2760SOL    HW110177   4.203   1.243  10.113
 2760SOL    HW210178   4.136   1.378  10.120
 2761SOL     OW10179  11.759   4.957  13.641
 2761SOL    HW110180  11.676   4.955  13.592
 2761SOL    HW210181  11.821   4.910  13.585
 2762SOL     OW10182  11.154  13.700  13.114
 2762SOL    HW110183  11.151  13.605  13.106
 2762SOL    HW210184  11.208  13.729  13.041
 2763SOL     OW10185   2.021  11.348   7.336
 2763SOL    HW110186   1.956  11.385   7.396
 2763SOL    HW210187   1.985  11.263   7.312
 2764SOL     OW10188   0.445   9.635   9.284
 2764SOL    HW110189   0.378   9.645   9.216
 2764SOL    HW210190   0.413   9.565   9.340
 2765SOL     OW10191   6.802  11.558  12.159
 2765SOL    HW110192   6.814  11.465  12.175
 2765SOL    HW210193   6.856  11.601  12.225
 2766SOL     OW10194   8.619  13.158   6.256
 2766SOL    HW110195   8.612  13.142   6.162
 2766SOL    HW210196   8.596  13.251   6.266
 2767SOL     OW10197   3.128   4.968   9.146
 2767SOL    HW110198   3.206   4.954   9.198
 2767SOL    HW210199   3.157   5.022   9.072
 2768SOL     OW10200  12.355   0.997   0.976
 2768SOL    HW110201  12.273   1.011   1.023
 2768SOL    HW210202  12.382   1.085   0.949
 2769SOL     OW10203   0.089   0.813  12.391
 2769SOL    HW110204   0.098   0.761  12.312
 2769SOL    HW210205   0.161   0.877  12.386
 2770SOL     OW10206   1.400   7.311   8.145
 2770SOL    HW110207   1.492   7.286   8.138
 2770SOL    HW210208   1.366   7.255   8.215
 2771SOL     OW10209   5.704   1.453   7.857
 2771SOL    HW110210   5.777   1.451   7.918
 2771SOL    HW210211   5.681   1.361   7.844
 2772SOL     OW10212  14.510   6.407  11.785
 2772SOL    HW110213  14.502   6.320  11.824
 2772SOL    HW210214  14.563   6.394  11.707
 2773SOL     OW10215   8.402  11.961   6.411
 2773SOL    HW110216   8.379  11.940   6.501
 2773SOL    HW210217   8.434  11.879   6.374
 2774SOL     OW10218   9.607   8.688  10.455
 2774SOL    HW110219   9.531   8.633  10.472
 2774SOL    HW210220   9.651   8.647  10.380
 2775SOL     OW10221   6.515  12.295   5.411
 2775SOL    HW110222   6.512  12.309   5.505
 2775SOL    HW210223   6.429  12.323   5.380
 2776SOL     OW10224   7.773   7.668  11.317
 2776SOL    HW110225   7.845   7.615  11.350
 2776SOL    HW210226   7.700   7.649  11.375
 2777SOL     OW10227   1.486   9.597   9.476
 2777SOL    HW110228   1.560   9.553   9.517
 2777SOL    HW210229   1.448   9.531   9.418
 2778SOL     OW10230   8.885   1.379   3.189
 2778SOL    HW110231   8.842   1.403   3.107
 2778SOL    HW210232   8.949   1.312   3.163
 2779SOL     OW10233   1.992   4.143   8.069
 2779SOL    HW110234   2.083   4.116   8.058
 2779SOL    HW210235   1.998   4.234   8.100
 2780SOL     OW10236   9.398   5.069  14.147
 2780SOL    HW110237   9.383   4.975  14.153
 2780SOL    HW210238   9.338   5.099  14.079
 2781SOL     OW10239   9.016  12.820   3.037
 2781SOL    HW110240   8.959  12.744   3.053
 2781SOL    HW210241   9.105  12.784   3.039
 2782SOL     OW10242   5.427  14.712  13.555
 2782SOL    HW110243   5.461  14.654  13.624
 2782SOL    HW210244   5.464  14.677  13.474
 2783SOL     OW10245  11.543   8.823   8.094
 2783SOL    HW110246  11.530   8.756   8.027
 2783SOL    HW210247  11.585   8.896   8.047
 2784SOL     OW10248   6.955   5.739   2.600
 2784SOL    HW110249   7.000   5.809   2.552
 2784SOL    HW210250   7.014   5.718   2.673
 2785SOL     OW10251  14.491   9.296   1.117
 2785SOL    HW110252  14.508   9.221   1.060
 2785SOL    HW210253  14.399   9.317   1.101
 2786SOL     OW10254   2.712  11.286   2.010
 2786SOL    HW110255   2.803  11.297   2.038
 2786SOL    HW210256   2.668  11.246   2.084
 2787SOL     OW10257  13.296   1.493   1.397
 2787SOL    HW110258  13.258   1.415   1.437
 2787SOL    HW210259  13.237   1.564   1.423
 2788SOL     OW10260   6.973   1.214   4.845
 2788SOL    HW110261   7.000   1.286   4.902
 2788SOL    HW210262   6.878   1.216   4.847
 2789SOL     OW10263  10.225   0.542   4.766
 2789SOL    HW110264  10.234   0.472   4.831
 2789SOL    HW210265  10.207   0.621   4.817
 2790SOL     OW10266   5.191  11.449   3.444
 2790SOL    HW110267   5.123  11.515   3.457
 2790SOL    HW210268   5.255  11.467   3.513
 2791SOL     OW10269  11.579   3.152  13.814
 2791SOL    HW110270  11.655   3.095  13.819
 2791SOL    HW210271  11.598   3.223  13.876
 2792SOL     OW10272   7.567   6.637   8.741
 2792SOL    HW110273   7.472   6.621   8.738
 2792SOL    HW210274   7.585   6.691   8.665
 2793SOL     OW10275  10.882   2.409   1.093
 2793SOL    HW110276  10.824   2.357   1.037
 2793SOL    HW210277  10.943   2.451   1.032
 2794SOL     OW10278  14.876   4.253   3.360
 2794SOL    HW110279  14.812   4.321   3.384
 2794SOL    HW210280  14.850   4.177   3.412
 2795SOL     OW10281   2.403   2.308  12.769
 2795SOL    HW110282   2.461   2.233  12.782
 2795SOL    HW210283   2.341   2.303  12.841
 2796SOL     OW10284  13.621   3.378  11.417
 2796SOL    HW110285  13.539   3.331  11.430
 2796SOL    HW210286  13.601   3.469  11.439
 2797SOL     OW10287  11.708  12.642   2.510
 2797SOL    HW110288  11.741  12.731   2.522
 2797SOL    HW210289  11.758  12.608   2.436
 2798SOL     OW10290   2.395   4.706   9.538
 2798SOL    HW110291   2.475   4.655   9.552
 2798SOL    HW210292   2.414   4.792   9.575
 2799SOL     OW10293   2.748   3.054   5.960
 2799SOL    HW110294   2.843   3.053   5.969
 2799SOL    HW210295   2.732   3.036   5.867
 2800SOL     OW10296   8.673   3.197   6.099
 2800SOL    HW110297   8.718   3.127   6.145
 2800SOL    HW210298   8.740   3.237   6.044
 2801SOL     OW10299   0.612  14.712   0.419
 2801SOL    HW110300   0.636  14.804   0.402
 2801SOL    HW210301   0.538  14.696   0.360
 2802SOL     OW10302  12.365   4.471  13.574
 2802SOL    HW110303  12.318   4.501  13.497
 2802SOL    HW210304  12.310   4.497  13.648
 2803SOL     OW10305  14.415  12.514   3.779
 2803SOL    HW110306  14.352  12.586   3.786
 2803SOL    HW210307  14.419  12.495   3.685
 2804SOL     OW10308   0.964  11.060  13.165
 2804SOL    HW110309   0.971  10.987  13.103
 2804SOL    HW210310   0.907  11.123  13.121
 2805SOL     OW10311  14.762   1.253   1.866
 2805SOL    HW110312  14.751   1.333   1.917
 2805SOL    HW210313  14.856   1.252   1.844
 2806SOL     OW10314   9.890   3.296   5.706
 2806SOL    HW110315   9.969   3.343   5.731
 2806SOL    HW210316   9.901   3.209   5.742
 2807SOL     OW10317   2.662   7.540   0.951
 2807SOL    HW110318   2.617   7.481   1.012
 2807SOL    HW210319   2.671   7.488   0.871
 2808SOL     OW10320   9.924  10.459   4.116
 2808SOL    HW110321   9.956  10.432   4.202
 2808SOL    HW210322   9.834  10.488   4.132
 2809SOL     OW10323   7.075   7.061  12.714
 2809SOL    HW110324   7.086   7.094  12.803
 2809SOL    HW210325   7.052   6.969  12.725
 2810SOL     OW10326   6.428   4.579   2.772
 2810SOL    HW110327   6.453   4.540   2.688
 2810SOL    HW210328   6.345   4.623   2.753
 2811SOL     OW10329   1.713  10.719   0.046
 2811SOL    HW110330   1.643  10.661   0.074
 2811SOL    HW210331   1.694  10.803   0.088
 2812SOL     OW10332   4.415  10.925  10.146
 2812SOL    HW110333   4.327  10.948  10.175
 2812SOL    HW210334   4.445  11.003  10.099
 2813SOL     OW10335  10.638   2.700  13.841
 2813SOL    HW110336  10.619   2.690  13.935
 2813SOL    HW210337  10.731   2.722  13.838
 2814SOL     OW10338   2.693   6.376   6.965
 2814SOL    HW110339   2.679   6.343   7.054
 2814SOL    HW210340   2.732   6.302   6.918
 2815SOL     OW10341   2.510  11.862  10.131
 2815SOL    HW110342   2.537  11.770  10.125
 2815SOL    HW210343   2.587  11.907  10.166
 2816SOL     OW10344  10.900  13.359  10.279
 2816SOL    HW110345  10.855  13.351  10.195
 2816SOL    HW210346  10.867  13.439  10.318
 2817SOL     OW10347   7.348  10.529   4.593
 2817SOL    HW110348   7.425  10.556   4.643
 2817SOL    HW210349   7.347  10.587   4.517
 2818SOL     OW10350   5.207   4.601  12.325
 2818SOL    HW110351   5.253   4.552  12.258
 2818SOL    HW210352   5.270   4.611  12.396
 2819SOL     OW10353   3.525  12.012  14.647
 2819SOL    HW110354   3.565  12.025  14.561
 2819SOL    HW210355   3.527  11.917  14.660
 2820SOL     OW10356  10.212   0.010  12.490
 2820SOL    HW110357  10.199   0.091  12.441
 2820SOL    HW210358  10.231   0.039  12.579
 2821SOL     OW10359  10.863   1.245   3.993
 2821SOL    HW110360  10.827   1.279   4.075
 2821SOL    HW210361  10.805   1.280   3.926
 2822SOL     OW10362   8.891  11.077   9.241
 2822SOL    HW110363   8.841  11.118   9.312
 2822SOL    HW210364   8.982  11.098   9.261
 2823SOL     OW10365   5.526   8.722   9.169
 2823SOL    HW110366   5.537   8.749   9.078
 2823SOL    HW210367   5.579   8.643   9.177
 2824SOL     OW10368   6.763   0.193   7.108
 2824SOL    HW110369   6.728   0.137   7.039
 2824SOL    HW210370   6.854   0.165   7.118
 2825SOL     OW10371   1.168   9.708   3.959
 2825SOL    HW110372   1.156   9.798   3.929
 2825SOL    HW210373   1.149   9.654   3.883
 2826SOL     OW10374  11.382  11.869   5.387
 2826SOL    HW110375  11.379  11.930   5.313
 2826SOL    HW210376  11.340  11.790   5.354
 2827SOL     OW10377  14.464   6.186   3.364
 2827SOL    HW110378  14.543   6.152   3.407
 2827SOL    HW210379  14.394   6.173   3.428
 2828SOL     OW10380  10.906  14.641   3.403
 2828SOL    HW110381  10.830  14.659   3.458
 2828SOL    HW210382  10.884  14.559   3.359
 2829SOL     OW10383   3.503  12.461   8.053
 2829SOL    HW110384   3.592  12.449   8.020
 2829SOL    HW210385   3.481  12.552   8.031
 2830SOL     OW10386  12.867  11.729   3.325
 2830SOL    HW110387  12.818  11.660   3.370
 2830SOL    HW210388  12.800  11.783   3.282
 2831SOL     OW10389   5.518   8.772   3.750
 2831SOL    HW110390   5.572   8.807   3.821
 2831SOL    HW210391   5.455   8.715   3.794
 2832SOL     OW10392   0.765   2.015   8.392
 2832SOL    HW110393   0.845   2.060   8.365
 2832SOL    HW210394   0.777   1.925   8.362
 2833SOL     OW10395   5.533  11.920   3.513
 2833SOL    HW110396   5.591  11.894   3.441
 2833SOL    HW210397   5.445  11.911   3.477
 2834SOL     OW10398  11.572   1.081   6.528
 2834SOL    HW110399  11.555   1.052   6.438
 2834SOL    HW210400  11.625   1.011   6.566
 2835SOL     OW10401   4.333  11.299   4.699
 2835SOL    HW110402   4.349  11.374   4.757
 2835SOL    HW210403   4.277  11.335   4.629
 2836SOL     OW10404   1.810  13.720   9.000
 2836SOL    HW110405   1.799  13.627   9.018
 2836SOL    HW210406   1.725  13.748   8.967
 2837SOL     OW10407   7.567   5.656  14.838
 2837SOL    HW110408   7.518   5.657   0.032
 2837SOL    HW210409   7.618   5.575  14.842
 2838SOL     OW10410  14.540  10.889   2.869
 2838SOL    HW110411  14.520  10.966   2.922
 2838SOL    HW210412  14.490  10.819   2.910
 2839SOL     OW10413   1.574  12.589   3.682
 2839SOL    HW110414   1.653  12.632   3.716
 2839SOL    HW210415   1.603  12.502   3.656
 2840SOL     OW10416   8.808   5.524   1.481
 2840SOL    HW110417   8.770   5.493   1.399
 2840SOL    HW210418   8.831   5.615   1.463
 2841SOL     OW10419  12.257   0.895   1.387
 2841SOL    HW110420  12.182   0.845   1.353
 2841SOL    HW210421  12.241   0.984   1.356
 2842SOL     OW10422   5.878   5.935  10.436
 2842SOL    HW110423   5.791   5.967  10.410
 2842SOL    HW210424   5.937   5.973  10.371
 2843SOL     OW10425   7.841   5.311   5.228
 2843SOL    HW110426   7.926   5.353   5.242
 2843SOL    HW210427   7.811   5.286   5.315
 2844SOL     OW10428   1.895  13.614   6.421
 2844SOL    HW110429   1.817  13.631   6.368
 2844SOL    HW210430   1.962  13.672   6.384
 2845SOL     OW10431  12.862  12.060   0.248
 2845SOL    HW110432  12.852  12.079   0.342
 2845SOL    HW210433  12.956  12.065   0.233
 2846SOL     OW10434   4.615  12.199   2.515
 2846SOL    HW110435   4.599  12.137   2.586
 2846SOL    HW210436   4.662  12.148   2.449
 2847SOL     OW10437   8.684   4.536   8.490
 2847SOL    HW110438   8.613   4.473   8.481
 2847SOL    HW210439   8.676   4.569   8.579
 2848SOL     OW10440   3.171   0.568   2.822
 2848SOL    HW110441   3.105   0.633   2.797
 2848SOL    HW210442   3.133   0.523   2.898
 2849SOL     OW10443  12.337  13.800  12.384
 2849SOL    HW110444  12.326  13.819  12.291
 2849SOL    HW210445  12.365  13.883  12.423
 2850SOL     OW10446   4.287   5.310   0.365
 2850SOL    HW110447   4.241   5.294   0.283
 2850SOL    HW210448   4.344   5.384   0.347
 2851SOL     OW10449  13.180   0.455   5.561
 2851SOL    HW110450  13.271   0.483   5.561
 2851SOL    HW210451  13.173   0.395   5.635
 2852SOL     OW10452   7.934   4.490   5.089
 2852SOL    HW110453   8.029   4.497   5.097
 2852SOL    HW210454   7.900   4.505   5.177
 2853SOL     OW10455  14.333   5.949   6.284
 2853SOL    HW110456  14.373   6.006   6.350
 2853SOL    HW210457  14.380   5.969   6.204
 2854SOL     OW10458   8.235  11.495   2.113
 2854SOL    HW110459   8.199  11.437   2.180
 2854SOL    HW210460   8.329  11.497   2.131
 2855SOL     OW10461   7.667   8.900   5.961
 2855SOL    HW110462   7.579   8.913   5.927
 2855SOL    HW210463   7.694   8.816   5.925
 2856SOL     OW10464   1.654   8.941   7.306
 2856SOL    HW110465   1.742   8.905   7.296
 2856SOL    HW210466   1.610   8.880   7.365
 2857SOL     OW10467   8.444   4.285  10.929
 2857SOL    HW110468   8.428   4.357  10.989
 2857SOL    HW210469   8.368   4.286  10.870
 2858SOL     OW10470   2.190  12.233   4.121
 2858SOL    HW110471   2.226  12.167   4.181
 2858SOL    HW210472   2.167  12.183   4.043
 2859SOL     OW10473   4.346   1.529  10.782
 2859SOL    HW110474   4.418   1.537  10.845
 2859SOL    HW210475   4.273   1.493  10.833
 2860SOL     OW10476   1.597   8.070  14.686
 2860SOL    HW110477   1.636   8.120  14.757
 2860SOL    HW210478   1.579   8.135  14.617
 2861SOL     OW10479   0.652  11.054   8.570
 2861SOL    HW110480   0.606  10.997   8.508
 2861SOL    HW210481   0.708  10.995   8.620
 2862SOL     OW10482   0.770   4.924  13.678
 2862SOL    HW110483   0.753   4.835  13.711
 2862SOL    HW210484   0.857   4.919  13.640
 2863SOL     OW10485   0.915  10.768   9.897
 2863SOL    HW110486   0.853  10.777   9.969
 2863SOL    HW210487   0.902  10.848   9.845
 2864SOL     OW10488   9.581   3.545   4.494
 2864SOL    HW110489   9.617   3.485   4.560
 2864SOL    HW210490   9.652   3.557   4.431
 2865SOL     OW10491   9.640  11.063   8.295
 2865SOL    HW110492   9.713  11.017   8.254
 2865SOL    HW210493   9.625  11.015   8.377
 2866SOL     OW10494   6.242   4.305   9.773
 2866SOL    HW110495   6.244   4.213   9.799
 2866SOL    HW210496   6.224   4.304   9.679
 2867SOL     OW10497  11.364  10.282  13.558
 2867SOL    HW110498  11.422  10.216  13.597
 2867SOL    HW210499  11.312  10.234  13.494
 2868SOL     OW10500   0.667   0.871   2.357
 2868SOL    HW110501   0.589   0.816   2.365
 2868SOL    HW210502   0.691   0.864   2.264
 2869SOL     OW10503   6.291   5.157   9.410
 2869SOL    HW110504   6.363   5.099   9.386
 2869SOL    HW210505   6.217   5.126   9.359
 2870SOL     OW10506  12.624  10.321  12.913
 2870SOL    HW110507  12.552  10.328  12.976
 2870SOL    HW210508  12.617  10.233  12.878
 2871SOL     OW10509   4.816  11.467   6.877
 2871SOL    HW110510   4.763  11.518   6.815
 2871SOL    HW210511   4.785  11.377   6.867
 2872SOL     OW10512   6.710   0.661  11.031
 2872SOL    HW110513   6.659   0.583  11.051
 2872SOL    HW210514   6.726   0.655  10.937
 2873SOL     OW10515   3.264   3.557   2.756
 2873SOL    HW110516   3.359   3.565   2.753
 2873SOL    HW210517   3.232   3.628   2.701
 2874SOL     OW10518   5.333   4.730  10.951
 2874SOL    HW110519   5.340   4.691  10.863
 2874SOL    HW210520   5.238   4.736  10.967
 2875SOL     OW10521   5.981   8.439   9.294
 2875SOL    HW110522   6.056   8.495   9.278
 2875SOL    HW210523   5.927   8.487   9.357
 2876SOL     OW10524   1.525   3.194  13.777
 2876SOL    HW110525   1.493   3.277  13.742
 2876SOL    HW210526   1.579   3.220  13.852
 2877SOL     OW10527   7.389   8.418   5.444
 2877SOL    HW110528   7.320   8.478   5.418
 2877SOL    HW210529   7.428   8.458   5.522
 2878SOL     OW10530   5.662   9.537   8.369
 2878SOL    HW110531   5.682   9.472   8.436
 2878SOL    HW210532   5.569   9.522   8.348
 2879SOL     OW10533   8.317   7.076  11.892
 2879SOL    HW110534   8.268   7.089  11.973
 2879SOL    HW210535   8.345   7.163  11.866
 2880SOL     OW10536   7.150   2.872   8.297
 2880SOL    HW110537   7.190   2.832   8.220
 2880SOL    HW210538   7.183   2.962   8.296
 2881SOL     OW10539   6.123  12.406   7.279
 2881SOL    HW110540   6.079  12.336   7.326
 2881SOL    HW210541   6.068  12.422   7.203
 2882SOL     OW10542  14.117   3.636  10.031
 2882SOL    HW110543  14.162   3.582   9.968
 2882SOL    HW210544  14.064   3.575  10.083
 2883SOL     OW10545  12.820   1.224  12.957
 2883SOL    HW110546  12.809   1.268  12.872
 2883SOL    HW210547  12.838   1.295  13.018
 2884SOL     OW10548   6.971  10.503  12.469
 2884SOL    HW110549   6.876  10.502  12.456
 2884SOL    HW210550   7.007  10.512  12.381
 2885SOL     OW10551   2.057   9.845   7.094
 2885SOL    HW110552   1.988   9.874   7.154
 2885SOL    HW210553   2.068   9.752   7.114
 2886SOL     OW10554   8.985   6.396   8.839
 2886SOL    HW110555   8.906   6.366   8.794
 2886SOL    HW210556   9.047   6.417   8.769
 2887SOL     OW10557  14.201  11.321   2.720
 2887SOL    HW110558  14.276  11.373   2.694
 2887SOL    HW210559  14.171  11.362   2.801
 2888SOL     OW10560   1.840  12.715  13.607
 2888SOL    HW110561   1.854  12.717  13.702
 2888SOL    HW210562   1.925  12.691  13.571
 2889SOL     OW10563   9.832  10.231   2.317
 2889SOL    HW110564   9.828  10.217   2.412
 2889SOL    HW210565   9.761  10.292   2.298
 2890SOL     OW10566   5.011   7.515  10.079
 2890SOL    HW110567   5.067   7.457  10.130
 2890SOL    HW210568   4.980   7.461  10.006
 2891SOL     OW10569   8.511  11.515   2.112
 2891SOL    HW110570   8.595  11.524   2.157
 2891SOL    HW210571   8.521  11.565   2.031
 2892SOL     OW10572  14.040   3.032   7.023
 2892SOL    HW110573  14.013   3.022   6.932
 2892SOL    HW210574  13.980   2.975   7.072
 2893SOL     OW10575   5.203  14.258   0.396
 2893SOL    HW110576   5.270  14.260   0.464
 2893SOL    HW210577   5.203  14.167   0.365
 2894SOL     OW10578   8.643   7.586   3.161
 2894SOL    HW110579   8.679   7.674   3.175
 2894SOL    HW210580   8.621   7.585   3.067
 2895SOL     OW10581   0.909   6.900  12.391
 2895SOL    HW110582   0.821   6.875  12.365
 2895SOL    HW210583   0.966   6.858  12.327
 2896SOL     OW10584   7.273  12.015   6.338
 2896SOL    HW110585   7.367  12.030   6.337
 2896SOL    HW210586   7.253  11.994   6.429
 2897SOL     OW10587  10.501   5.539   7.400
 2897SOL    HW110588  10.562   5.532   7.327
 2897SOL    HW210589  10.429   5.481   7.376
 2898SOL     OW10590   2.446   3.034   0.432
 2898SOL    HW110591   2.526   2.999   0.394
 2898SOL    HW210592   2.464   3.041   0.526
 2899SOL     OW10593  11.861  14.202   4.229
 2899SOL    HW110594  11.930  14.228   4.168
 2899SOL    HW210595  11.783  14.195   4.175
 2900SOL     OW10596  14.209   3.530   0.731
 2900SOL    HW110597  14.294   3.572   0.727
 2900SOL    HW210598  14.155   3.589   0.783
 2901SOL     OW10599  12.714   4.663   7.018
 2901SOL    HW110600  12.703   4.619   6.933
 2901SOL    HW210601  12.697   4.755   7.000
 2902SOL     OW10602  11.029   1.496   1.542
 2902SOL    HW110603  11.098   1.553   1.508
 2902SOL    HW210604  11.053   1.408   1.513
 2903SOL     OW10605   5.259   7.149  12.106
 2903SOL    HW110606   5.234   7.192  12.024
 2903SOL    HW210607   5.180   7.101  12.133
 2904SOL     OW10608   7.280  13.518   3.995
 2904SOL    HW110609   7.349  13.468   3.951
 2904SOL    HW210610   7.226  13.452   4.038
 2905SOL     OW10611  12.756   7.526   9.624
 2905SOL    HW110612  12.778   7.564   9.539
 2905SOL    HW210613  12.802   7.442   9.625
 2906SOL     OW10614  13.049  12.470   7.804
 2906SOL    HW110615  12.998  12.399   7.765
 2906SOL    HW210616  12.988  12.515   7.862
 2907SOL     OW10617   7.351  13.893  14.523
 2907SOL    HW110618   7.374  13.818  14.577
 2907SOL    HW210619   7.293  13.858  14.456
 2908SOL     OW10620   0.524   2.967   3.458
 2908SOL    HW110621   0.535   2.878   3.423
 2908SOL    HW210622   0.430   2.975   3.474
 2909SOL     OW10623  13.996   5.772   6.520
 2909SOL    HW110624  13.901   5.759   6.524
 2909SOL    HW210625  14.020   5.750   6.430
 2910SOL     OW10626   3.900   0.219  12.439
 2910SOL    HW110627   3.892   0.175  12.354
 2910SOL    HW210628   3.993   0.215  12.459
 2911SOL     OW10629   8.763  11.367   1.986
 2911SOL    HW110630   8.755  11.387   2.079
 2911SOL    HW210631   8.853  11.392   1.963
 2912SOL     OW10632  11.468  13.793   6.267
 2912SOL    HW110633  11.402  13.797   6.336
 2912SOL    HW210634  11.426  13.741   6.198
 2913SOL     OW10635   5.584  11.796   5.054
 2913SOL    HW110636   5.611  11.754   4.973
 2913SOL    HW210637   5.666  11.820   5.098
 2914SOL     OW10638   5.621  11.071  12.951
 2914SOL    HW110639   5.682  11.075  12.878
 2914SOL    HW210640   5.610  10.977  12.968
 2915SOL     OW10641  14.195   4.555   3.135
 2915SOL    HW110642  14.178   4.460   3.131
 2915SOL    HW210643  14.281   4.562   3.175
 2916SOL     OW10644  11.962   8.157  14.788
 2916SOL    HW110645  11.926   8.246  14.793
 2916SOL    HW210646  11.990   8.148  14.697
 2917SOL     OW10647   5.145  13.767   8.932
 2917SOL    HW110648   5.201  13.777   9.008
 2917SOL    HW210649   5.059  13.743   8.968
 2918SOL     OW10650   8.113  10.293  10.775
 2918SOL    HW110651   8.194  10.338  10.797
 2918SOL    HW210652   8.050  10.364  10.756
 2919SOL     OW10653  10.454   5.027   0.332
 2919SOL    HW110654  10.369   4.993   0.361
 2919SOL    HW210655  10.433   5.088   0.262
 2920SOL     OW10656  12.799   6.433   0.334
 2920SOL    HW110657  12.770   6.375   0.263
 2920SOL    HW210658  12.881   6.393   0.365
 2921SOL     OW10659  14.515  10.780  14.267
 2921SOL    HW110660  14.494  10.841  14.196
 2921SOL    HW210661  14.521  10.834  14.345
 2922SOL     OW10662   3.072   0.801   4.668
 2922SOL    HW110663   3.042   0.846   4.589
 2922SOL    HW210664   3.107   0.717   4.636
 2923SOL     OW10665  11.697   7.183  11.113
 2923SOL    HW110666  11.734   7.096  11.097
 2923SOL    HW210667  11.680   7.184  11.208
 2924SOL     OW10668   5.613   5.034   4.716
 2924SOL    HW110669   5.555   4.967   4.751
 2924SOL    HW210670   5.554   5.105   4.690
 2925SOL     OW10671  12.955   7.219   6.761
 2925SOL    HW110672  12.928   7.138   6.717
 2925SOL    HW210673  12.979   7.278   6.689
 2926SOL     OW10674   8.701   1.535  12.209
 2926SOL    HW110675   8.655   1.619  12.211
 2926SOL    HW210676   8.706   1.508  12.301
 2927SOL     OW10677   1.821   3.591  10.410
 2927SOL    HW110678   1.909   3.620  10.385
 2927SOL    HW210679   1.765   3.619  10.337
 2928SOL     OW10680   7.228   9.371   3.917
 2928SOL    HW110681   7.175   9.435   3.966
 2928SOL    HW210682   7.317   9.406   3.919
 2929SOL     OW10683   6.426   4.341   7.716
 2929SOL    HW110684   6.507   4.290   7.707
 2929SOL    HW210685   6.363   4.280   7.753
 2930SOL     OW10686   7.420   1.843  12.390
 2930SOL    HW110687   7.431   1.847  12.485
 2930SOL    HW210688   7.338   1.889  12.373
 2931SOL     OW10689   8.066  14.745   2.177
 2931SOL    HW110690   7.987  14.693   2.165
 2931SOL    HW210691   8.135  14.693   2.136
 2932SOL     OW10692   1.415  14.241  13.659
 2932SOL    HW110693   1.503  14.242  13.698
 2932SOL    HW210694   1.387  14.332  13.662
 2933SOL     OW10695  14.755  11.909   3.191
 2933SOL    HW110696  14.837  11.877   3.228
 2933SOL    HW210697  14.726  11.977   3.252
 2934SOL     OW10698  12.637   4.131   7.919
 2934SOL    HW110699  12.573   4.187   7.963
 2934SOL    HW210700  12.694   4.192   7.872
 2935SOL     OW10701  12.963   3.326   4.303
 2935SOL    HW110702  12.896   3.391   4.325
 2935SOL    HW210703  12.935   3.246   4.349
 2936SOL     OW10704  14.233  14.313  11.225
 2936SOL    HW110705  14.284  14.373  11.171
 2936SOL    HW210706  14.290  14.236  11.235
 2937SOL     OW10707  11.855   8.926   3.873
 2937SOL    HW110708  11.827   8.955   3.960
 2937SOL    HW210709  11.951   8.928   3.878
 2938SOL     OW10710   0.188   8.490   9.450
 2938SOL    HW110711   0.226   8.555   9.391
 2938SOL    HW210712   0.176   8.537   9.532
 2939SOL     OW10713   3.616   3.755   1.536
 2939SOL    HW110714   3.541   3.809   1.511
 2939SOL    HW210715   3.583   3.699   1.606
 2940SOL     OW10716   3.034  14.340  14.227
 2940SOL    HW110717   3.030  14.413  14.165
 2940SOL    HW210718   2.944  14.307  14.231
 2941SOL     OW10719   2.421   7.920  13.562
 2941SOL    HW110720   2.464   7.872  13.490
 2941SOL    HW210721   2.405   8.007  13.525
 2942SOL     OW10722   5.918   6.740  10.755
 2942SOL    HW110723   5.892   6.800  10.686
 2942SOL    HW210724   5.880   6.777  10.835
 2943SOL     OW10725  13.210   8.748  11.328
 2943SOL    HW110726  13.205   8.835  11.368
 2943SOL    HW210727  13.200   8.765  11.234
 2944SOL     OW10728   7.555  13.273  13.604
 2944SOL    HW110729   7.626  13.217  13.636
 2944SOL    HW210730   7.528  13.232  13.522
 2945SOL     OW10731  11.170  11.565  12.540
 2945SOL    HW110732  11.121  11.597  12.464
 2945SOL    HW210733  11.108  11.572  12.612
 2946SOL     OW10734  12.172   0.154   9.146
 2946SOL    HW110735  12.228   0.166   9.070
 2946SOL    HW210736  12.087   0.188   9.119
 2947SOL     OW10737   3.005  12.163   6.102
 2947SOL    HW110738   3.026  12.243   6.151
 2947SOL    HW210739   2.911  12.149   6.117
 2948SOL     OW10740  14.430   3.557  12.958
 2948SOL    HW110741  14.475   3.612  13.022
 2948SOL    HW210742  14.369   3.616  12.914
 2949SOL     OW10743  12.971   2.557   5.265
 2949SOL    HW110744  12.902   2.610   5.306
 2949SOL    HW210745  12.963   2.576   5.172
 2950SOL     OW10746  12.860   5.959  14.335
 2950SOL    HW110747  12.856   5.941  14.241
 2950SOL    HW210748  12.952   5.981  14.351
 2951SOL     OW10749   0.253   5.033  10.295
 2951SOL    HW110750   0.228   4.970  10.362
 2951SOL    HW210751   0.296   5.104  10.343
 2952SOL     OW10752  14.700  12.772  12.345
 2952SOL    HW110753  14.644  12.827  12.399
 2952SOL    HW210754  14.776  12.828  12.325
 2953SOL     OW10755   3.177   4.858  13.964
 2953SOL    HW110756   3.220   4.941  13.984
 2953SOL    HW210757   3.139   4.871  13.877
 2954SOL     OW10758  10.575  13.437   9.445
 2954SOL    HW110759  10.506  13.498   9.419
 2954SOL    HW210760  10.643  13.449   9.378
 2955SOL     OW10761   2.470   1.099  13.821
 2955SOL    HW110762   2.397   1.042  13.799
 2955SOL    HW210763   2.510   1.059  13.897
 2956SOL     OW10764  14.504  10.174   1.128
 2956SOL    HW110765  14.593  10.137   1.127
 2956SOL    HW210766  14.448  10.099   1.147
 2957SOL     OW10767  14.690   0.424  11.465
 2957SOL    HW110768  14.703   0.332  11.487
 2957SOL    HW210769  14.770   0.450  11.420
 2958SOL     OW10770  11.437   6.875  10.502
 2958SOL    HW110771  11.498   6.806  10.476
 2958SOL    HW210772  11.485   6.956  10.488
 2959SOL     OW10773   5.260   3.614   4.767
 2959SOL    HW110774   5.179   3.565   4.769
 2959SOL    HW210775   5.311   3.581   4.841
 2960SOL     OW10776   1.979   0.341   1.006
 2960SOL    HW110777   1.959   0.419   1.057
 2960SOL    HW210778   1.894   0.301   0.988
 2961SOL     OW10779  11.600   4.164   0.128
 2961SOL    HW110780  11.649   4.244   0.148
 2961SOL    HW210781  11.584   4.124   0.214
 2962SOL     OW10782  10.847   4.615   2.341
 2962SOL    HW110783  10.923   4.577   2.297
 2962SOL    HW210784  10.835   4.700   2.298
 2963SOL     OW10785  12.219   4.235   7.637
 2963SOL    HW110786  12.195   4.300   7.571
 2963SOL    HW210787  12.137   4.190   7.658
 2964SOL     OW10788   3.469  11.186  11.472
 2964SOL    HW110789   3.441  11.215  11.385
 2964SOL    HW210790   3.399  11.128  11.501
 2965SOL     OW10791   0.542   2.386  14.330
 2965SOL    HW110792   0.578   2.431  14.406
 2965SOL    HW210793   0.608   2.397  14.262
 2966SOL     OW10794  11.758   4.725   9.301
 2966SOL    HW110795  11.774   4.803   9.249
 2966SOL    HW210796  11.666   4.729   9.325
 2967SOL     OW10797   4.095   7.566   2.195
 2967SOL    HW110798   4.163   7.632   2.181
 2967SOL    HW210799   4.035   7.578   2.122
 2968SOL     OW10800  12.273   0.686  11.104
 2968SOL    HW110801  12.352   0.633  11.095
 2968SOL    HW210802  12.230   0.680  11.019
 2969SOL     OW10803   3.638  10.027   5.578
 2969SOL    HW110804   3.709  10.071   5.533
 2969SOL    HW210805   3.569  10.093   5.586
 2970SOL     OW10806   9.867   9.555   0.126
 2970SOL    HW110807   9.773   9.550   0.108
 2970SOL    HW210808   9.878   9.511   0.211
 2971SOL     OW10809  14.291  13.944  14.022
 2971SOL    HW110810  14.329  13.858  14.006
 2971SOL    HW210811  14.232  13.932  14.096
 2972SOL     OW10812  10.173   3.883   0.758
 2972SOL    HW110813  10.212   3.946   0.696
 2972SOL    HW210814  10.192   3.920   0.844
 2973SOL     OW10815   7.470  11.608   1.269
 2973SOL    HW110816   7.391  11.600   1.217
 2973SOL    HW210817   7.536  11.559   1.220
 2974SOL     OW10818  14.583   2.968  12.047
 2974SOL    HW110819  14.663   2.915  12.054
 2974SOL    HW210820  14.613   3.058  12.061
 2975SOL     OW10821   3.491  10.275   0.360
 2975SOL    HW110822   3.406  10.280   0.405
 2975SOL    HW210823   3.475  10.315   0.274
 2976SOL     OW10824   3.497  12.321  12.187
 2976SOL    HW110825   3.470  12.291  12.100
 2976SOL    HW210826   3.592  12.329  12.182
 2977SOL     OW10827  12.425   4.391   9.381
 2977SOL    HW110828  12.502   4.341   9.405
 2977SOL    HW210829  12.376   4.402   9.462
 2978SOL     OW10830   0.511  12.330   8.306
 2978SOL    HW110831   0.491  12.291   8.221
 2978SOL    HW210832   0.541  12.418   8.284
 2979SOL     OW10833   4.412  10.840   6.002
 2979SOL    HW110834   4.466  10.846   5.923
 2979SOL    HW210835   4.462  10.886   6.069
 2980SOL     OW10836   5.328   1.541   2.391
 2980SOL    HW110837   5.386   1.478   2.434
 2980SOL    HW210838   5.296   1.496   2.313
 2981SOL     OW10839   4.971   9.641   9.911
 2981SOL    HW110840   4.905   9.596   9.859
 2981SOL    HW210841   4.950   9.618  10.001
 2982SOL     OW10842  13.209   9.731  12.653
 2982SOL    HW110843  13.149   9.693  12.588
 2982SOL    HW210844  13.151   9.773  12.717
 2983SOL     OW10845   4.781   5.228   1.531
 2983SOL    HW110846   4.825   5.243   1.447
 2983SOL    HW210847   4.829   5.155   1.571
 2984SOL     OW10848   0.842   0.022   6.596
 2984SOL    HW110849   0.840   0.038   6.690
 2984SOL    HW210850   0.911  14.844   6.584
 2985SOL     OW10851   7.718  13.343  13.322
 2985SOL    HW110852   7.800  13.306  13.356
 2985SOL    HW210853   7.745  13.419  13.270
 2986SOL     OW10854   1.550   6.510   9.153
 2986SOL    HW110855   1.543   6.577   9.085
 2986SOL    HW210856   1.492   6.440   9.123
 2987SOL     OW10857  10.656   1.259   2.912
 2987SOL    HW110858  10.731   1.278   2.855
 2987SOL    HW210859  10.589   1.226   2.853
 2988SOL     OW10860  11.565   0.398   9.208
 2988SOL    HW110861  11.492   0.451   9.240
 2988SOL    HW210862  11.541   0.376   9.118
 2989SOL     OW10863  13.994   0.770   2.207
 2989SOL    HW110864  14.003   0.807   2.295
 2989SOL    HW210865  13.959   0.682   2.221
 2990SOL     OW10866   4.185   0.186   2.769
 2990SOL    HW110867   4.232   0.113   2.810
 2990SOL    HW210868   4.130   0.221   2.838
 2991SOL     OW10869  10.715  13.793   2.907
 2991SOL    HW110870  10.704  13.743   2.826
 2991SOL    HW210871  10.639  13.769   2.960
 2992SOL     OW10872  11.224  12.519   0.020
 2992SOL    HW110873  11.203  12.426   0.023
 2992SOL    HW210874  11.190  12.553   0.103
 2993SOL     OW10875   4.892  10.688   7.476
 2993SOL    HW110876   4.951  10.614   7.459
 2993SOL    HW210877   4.941  10.765   7.447
 2994SOL     OW10878   7.643  11.250  10.215
 2994SOL    HW110879   7.602  11.254  10.129
 2994SOL    HW210880   7.705  11.178  10.209
 2995SOL     OW10881   8.360   0.267   0.690
 2995SOL    HW110882   8.439   0.220   0.714
 2995SOL    HW210883   8.352   0.255   0.595
 2996SOL     OW10884   6.457  11.489   1.884
 2996SOL    HW110885   6.482  11.491   1.792
 2996SOL    HW210886   6.364  11.465   1.883
 2997SOL     OW10887  11.304   5.447   0.382
 2997SOL    HW110888  11.317   5.442   0.477
 2997SOL    HW210889  11.360   5.378   0.346
 2998SOL     OW10890  10.143  11.114  13.484
 2998SOL    HW110891  10.111  11.129  13.573
 2998SOL    HW210892  10.238  11.104  13.494
 2999SOL     OW10893   1.890   2.914   5.366
 2999SOL    HW110894   1.916   2.822   5.375
 2999SOL    HW210895   1.972   2.963   5.365
 3000SOL     OW10896  11.098  12.750   1.287
 3000SOL    HW110897  11.101  12.804   1.366
 3000SOL    HW210898  11.169  12.686   1.299
 3001SOL     OW10899   8.664   8.600   7.721
 3001SOL    HW110900   8.604   8.527   7.735
 3001SOL    HW210901   8.655   8.654   7.799
 3002SOL     OW10902   8.323   9.393   9.435
 3002SOL    HW110903   8.295   9.327   9.371
 3002SOL    HW210904   8.408   9.362   9.465
 3003SOL     OW10905  13.572   6.306  12.420
 3003SOL    HW110906  13.478   6.311  12.404
 3003SOL    HW210907  13.590   6.212  12.429
 3004SOL     OW10908  11.997   0.468   2.316
 3004SOL    HW110909  12.073   0.507   2.273
 3004SOL    HW210910  11.937   0.541   2.331
 3005SOL     OW10911   3.154   4.400   3.202
 3005SOL    HW110912   3.107   4.334   3.152
 3005SOL    HW210913   3.120   4.483   3.171
 3006SOL     OW10914  10.427   9.876   7.436
 3006SOL    HW110915  10.488   9.950   7.434
 3006SOL    HW210916  10.375   9.886   7.357
 3007SOL     OW10917   7.725   0.284  14.249
 3007SOL    HW110918   7.723   0.336  14.329
 3007SOL    HW210919   7.743   0.348  14.180
 3008SOL     OW10920  10.479  10.799  10.775
 3008SOL    HW110921  10.392  10.815  10.738
 3008SOL    HW210922  10.475  10.842  10.861
 3009SOL     OW10923  12.524   1.116  11.654
 3009SOL    HW110924  12.547   1.186  11.593
 3009SOL    HW210925  12.439   1.143  11.689
 3010SOL     OW10926  11.685  12.034   6.318
 3010SOL    HW110927  11.716  12.106   6.263
 3010SOL    HW210928  11.715  12.056   6.406
 3011SOL     OW10929   6.882   1.249   9.779
 3011SOL    HW110930   6.836   1.194   9.717
 3011SOL    HW210931   6.858   1.213   9.865
 3012SOL     OW10932   4.142  13.713  13.862
 3012SOL    HW110933   4.148  13.630  13.815
 3012SOL    HW210934   4.048  13.724  13.878
 3013SOL     OW10935   3.686   8.324   0.093
 3013SOL    HW110936   3.748   8.345   0.023
 3013SOL    HW210937   3.611   8.380   0.076
 3014SOL     OW10938   3.551  12.016   1.634
 3014SOL    HW110939   3.580  12.097   1.592
 3014SOL    HW210940   3.518  11.962   1.562
 3015SOL     OW10941   0.981   3.602  12.181
 3015SOL    HW110942   1.012   3.670  12.241
 3015SOL    HW210943   0.893   3.580  12.213
 3016SOL     OW10944   3.280  12.607  13.740
 3016SOL    HW110945   3.195  12.643  13.713
 3016SOL    HW210946   3.277  12.609  13.835
 3017SOL     OW10947  14.847  14.650   3.879
 3017SOL    HW110948   0.052  14.633   3.861
 3017SOL    HW210949  14.843  14.745   3.896
 3018SOL     OW10950  10.118   9.865  13.071
 3018SOL    HW110951  10.174   9.919  13.015
 3018SOL    HW210952  10.134   9.775  13.041
 3019SOL     OW10953  11.303   9.864   5.288
 3019SOL    HW110954  11.242   9.933   5.315
 3019SOL    HW210955  11.255   9.783   5.304
 3020SOL     OW10956   4.284   4.019   6.742
 3020SOL    HW110957   4.307   3.942   6.794
 3020SOL    HW210958   4.343   4.087   6.772
 3021SOL     OW10959   8.254  10.578   8.083
 3021SOL    HW110960   8.253  10.650   8.020
 3021SOL    HW210961   8.175  10.527   8.062
 3022SOL     OW10962  12.368   5.606   7.345
 3022SOL    HW110963  12.291   5.555   7.322
 3022SOL    HW210964  12.398   5.644   7.263
 3023SOL     OW10965   1.718  10.981   9.622
 3023SOL    HW110966   1.763  11.045   9.567
 3023SOL    HW210967   1.669  11.034   9.686
 3024SOL     OW10968   1.088  12.601   5.568
 3024SOL    HW110969   1.050  12.514   5.567
 3024SOL    HW210970   1.024  12.655   5.614
 3025SOL     OW10971   3.257   2.480  12.029
 3025SOL    HW110972   3.224   2.394  12.052
 3025SOL    HW210973   3.187   2.540  12.053
 3026SOL     OW10974   9.673  12.087  12.586
 3026SOL    HW110975   9.691  12.000  12.549
 3026SOL    HW210976   9.586  12.079  12.625
 3027SOL     OW10977   1.019   4.855   0.033
 3027SOL    HW110978   0.995   4.796  14.848
 3027SOL    HW210979   1.112   4.871   0.021
 3028SOL     OW10980   8.013   2.944   2.344
 3028SOL    HW110981   8.048   2.901   2.267
 3028SOL    HW210982   8.066   2.910   2.417
 3029SOL     OW10983  12.029  10.481   4.073
 3029SOL    HW110984  11.942  10.442   4.077
 3029SOL    HW210985  12.089  10.407   4.078
 3030SOL     OW10986   4.131   7.897   4.442
 3030SOL    HW110987   4.150   7.806   4.419
 3030SOL    HW210988   4.081   7.891   4.523
 3031SOL     OW10989  14.337   9.315  11.781
 3031SOL    HW110990  14.369   9.331  11.870
 3031SOL    HW210991  14.263   9.376  11.771
 3032SOL     OW10992  13.984   5.545   0.363
 3032SOL    HW110993  14.011   5.619   0.417
 3032SOL    HW210994  13.893   5.530   0.386
 3033SOL     OW10995  11.235   8.983  12.354
 3033SOL    HW110996  11.303   8.926  12.391
 3033SOL    HW210997  11.169   8.989  12.423
 3034SOL     OW10998   0.782  10.566   5.976
 3034SOL    HW110999   0.695  10.594   5.947
 3034SOL    HW211000   0.830  10.549   5.894
 3035SOL     OW11001  14.654   6.419  13.339
 3035SOL    HW111002  14.591   6.382  13.401
 3035SOL    HW211003  14.655   6.513  13.359
 3036SOL     OW11004   6.644   3.999  12.588
 3036SOL    HW111005   6.614   3.983  12.499
 3036SOL    HW211006   6.571   3.973  12.643
 3037SOL     OW11007   9.482   2.727  11.073
 3037SOL    HW111008   9.474   2.730  11.168
 3037SOL    HW211009   9.480   2.819  11.046
 3038SOL     OW11010   2.088   4.714  11.775
 3038SOL    HW111011   2.105   4.663  11.696
 3038SOL    HW211012   2.016   4.668  11.818
 3039SOL     OW11013   4.700  12.777   3.038
 3039SOL    HW111014   4.718  12.687   3.010
 3039SOL    HW211015   4.782  12.808   3.077
 3040SOL     OW11016  12.711   5.143   7.478
 3040SOL    HW111017  12.735   5.063   7.431
 3040SOL    HW211018  12.685   5.204   7.409
 3041SOL     OW11019  12.282   7.574   5.488
 3041SOL    HW111020  12.316   7.485   5.485
 3041SOL    HW211021  12.187   7.562   5.492
 3042SOL     OW11022  14.619   5.218   5.207
 3042SOL    HW111023  14.568   5.264   5.274
 3042SOL    HW211024  14.554   5.176   5.152
 3043SOL     OW11025   4.328   5.437   7.804
 3043SOL    HW111026   4.419   5.458   7.784
 3043SOL    HW211027   4.318   5.346   7.777
 3044SOL     OW11028   0.062  14.549   0.877
 3044SOL    HW111029   0.027  14.621   0.824
 3044SOL    HW211030  14.874  14.492   0.894
 3045SOL     OW11031   1.296   0.997   4.087
 3045SOL    HW111032   1.230   1.049   4.133
 3045SOL    HW211033   1.374   1.004   4.141
 3046SOL     OW11034   1.213   0.166   7.653
 3046SOL    HW111035   1.132   0.117   7.666
 3046SOL    HW211036   1.196   0.251   7.694
 3047SOL     OW11037   7.297   1.197  10.485
 3047SOL    HW111038   7.374   1.141  10.484
 3047SOL    HW211039   7.279   1.214  10.577
 3048SOL     OW11040   8.482   6.759   2.895
 3048SOL    HW111041   8.525   6.677   2.919
 3048SOL    HW211042   8.554   6.817   2.871
 3049SOL     OW11043  11.657   9.993   5.154
 3049SOL    HW111044  11.705   9.937   5.215
 3049SOL    HW211045  11.700  10.079   5.161
 3050SOL     OW11046   3.501   3.464   6.884
 3050SOL    HW111047   3.566   3.469   6.954
 3050SOL    HW211048   3.420   3.439   6.928
 3051SOL     OW11049  11.987   6.007   1.796
 3051SOL    HW111050  12.079   5.981   1.798
 3051SOL    HW211051  11.939   5.927   1.816
 3052SOL     OW11052   1.066   2.285   3.116
 3052SOL    HW111053   1.041   2.195   3.139
 3052SOL    HW211054   1.141   2.304   3.172
 3053SOL     OW11055   7.444  11.063   3.773
 3053SOL    HW111056   7.527  11.111   3.770
 3053SOL    HW211057   7.421  11.048   3.682
 3054SOL     OW11058   5.133   7.353   6.274
 3054SOL    HW111059   5.042   7.378   6.260
 3054SOL    HW211060   5.168   7.339   6.187
 3055SOL     OW11061  14.533  13.721   9.215
 3055SOL    HW111062  14.527  13.631   9.182
 3055SOL    HW211063  14.540  13.775   9.136
 3056SOL     OW11064   5.392   9.779  12.105
 3056SOL    HW111065   5.344   9.712  12.154
 3056SOL    HW211066   5.483   9.769  12.133
 3057SOL     OW11067   1.901   9.640   0.815
 3057SOL    HW111068   1.954   9.707   0.859
 3057SOL    HW211069   1.826   9.688   0.779
 3058SOL     OW11070   3.195   3.351  14.777
 3058SOL    HW111071   3.220   3.437  14.744
 3058SOL    HW211072   3.269   3.325  14.832
 3059SOL     OW11073   2.469   8.671  10.039
 3059SOL    HW111074   2.530   8.598  10.027
 3059SOL    HW211075   2.435   8.661  10.128
 3060SOL     OW11076   8.272  14.755   8.802
 3060SOL    HW111077   8.316  14.672   8.823
 3060SOL    HW211078   8.206  14.731   8.738
 3061SOL     OW11079   8.056  12.297   8.933
 3061SOL    HW111080   8.012  12.294   9.018
 3061SOL    HW211081   8.020  12.374   8.889
 3062SOL     OW11082   1.536   1.709   8.011
 3062SOL    HW111083   1.529   1.689   7.918
 3062SOL    HW211084   1.526   1.624   8.054
 3063SOL     OW11085   5.245   1.973   2.569
 3063SOL    HW111086   5.327   1.994   2.525
 3063SOL    HW211087   5.271   1.921   2.646
 3064SOL     OW11088   4.837   1.587   9.437
 3064SOL    HW111089   4.802   1.640   9.508
 3064SOL    HW211090   4.760   1.554   9.391
 3065SOL     OW11091  12.584   2.763  12.575
 3065SOL    HW111092  12.673   2.751  12.543
 3065SOL    HW211093  12.530   2.710  12.516
 3066SOL     OW11094   4.828   2.955  12.322
 3066SOL    HW111095   4.922   2.968  12.327
 3066SOL    HW211096   4.815   2.863  12.345
 3067SOL     OW11097   9.698   0.636   6.080
 3067SOL    HW111098   9.694   0.550   6.121
 3067SOL    HW211099   9.777   0.676   6.116
 3068SOL     OW11100   1.808   1.848  14.661
 3068SOL    HW111101   1.862   1.777  14.626
 3068SOL    HW211102   1.732   1.804  14.699
 3069SOL     OW11103   4.651   0.157   6.193
 3069SOL    HW111104   4.689   0.078   6.232
 3069SOL    HW211105   4.683   0.228   6.247
 3070SOL     OW11106   0.934  14.736   8.804
 3070SOL    HW111107   0.937  14.826   8.835
 3070SOL    HW211108   1.018  14.698   8.830
 3071SOL     OW11109   6.102   9.259   4.131
 3071SOL    HW111110   6.074   9.167   4.128
 3071SOL    HW211111   6.192   9.257   4.098
 3072SOL     OW11112   5.264   2.604   5.506
 3072SOL    HW111113   5.203   2.543   5.464
 3072SOL    HW211114   5.339   2.550   5.531
 3073SOL     OW11115   4.092  12.088   4.388
 3073SOL    HW111116   4.053  12.132   4.463
 3073SOL    HW211117   4.138  12.013   4.425
 3074SOL     OW11118   1.978   1.868   7.157
 3074SOL    HW111119   1.887   1.887   7.178
 3074SOL    HW211120   2.021   1.954   7.161
 3075SOL     OW11121   1.620  14.101  13.412
 3075SOL    HW111122   1.553  14.087  13.478
 3075SOL    HW211123   1.686  14.034  13.430
 3076SOL     OW11124   7.755   0.474  14.478
 3076SOL    HW111125   7.783   0.500  14.565
 3076SOL    HW211126   7.660   0.489  14.478
 3077SOL     OW11127  14.473   2.555  14.822
 3077SOL    HW111128  14.436   2.612   0.001
 3077SOL    HW211129  14.399   2.504  14.789
 3078SOL     OW11130   3.494   1.187   4.909
 3078SOL    HW111131   3.536   1.160   4.991
 3078SOL    HW211132   3.551   1.151   4.840
 3079SOL     OW11133   3.163  12.454   8.085
 3079SOL    HW111134   3.250  12.482   8.058
 3079SOL    HW211135   3.153  12.488   8.173
 3080SOL     OW11136   1.891   6.950  11.418
 3080SOL    HW111137   1.883   6.981  11.508
 3080SOL    HW211138   1.876   7.028  11.364
 3081SOL     OW11139  14.225  13.240   4.190
 3081SOL    HW111140  14.178  13.162   4.159
 3081SOL    HW211141  14.212  13.240   4.285
 3082SOL     OW11142  11.540  10.206   9.135
 3082SOL    HW111143  11.573  10.129   9.182
 3082SOL    HW211144  11.578  10.281   9.181
 3083SOL     OW11145  10.270   9.644   9.023
 3083SOL    HW111146  10.248   9.552   9.040
 3083SOL    HW211147  10.260   9.687   9.107
 3084SOL     OW11148   1.333   6.361   9.004
 3084SOL    HW111149   1.322   6.430   8.938
 3084SOL    HW211150   1.313   6.280   8.957
 3085SOL     OW11151   4.740   9.008   1.989
 3085SOL    HW111152   4.787   9.016   2.073
 3085SOL    HW211153   4.808   8.983   1.927
 3086SOL     OW11154   0.650   7.262  10.104
 3086SOL    HW111155   0.559   7.289  10.111
 3086SOL    HW211156   0.690   7.328  10.047
 3087SOL     OW11157  13.390  14.516   0.911
 3087SOL    HW111158  13.338  14.491   0.987
 3087SOL    HW211159  13.441  14.592   0.941
 3088SOL     OW11160   1.728   3.096   0.038
 3088SOL    HW111161   1.676   3.159  14.876
 3088SOL    HW211162   1.670   3.021   0.049
 3089SOL     OW11163   7.014   2.208   1.200
 3089SOL    HW111164   7.042   2.280   1.143
 3089SOL    HW211165   6.964   2.251   1.270
 3090SOL     OW11166  12.426   6.453   7.650
 3090SOL    HW111167  12.344   6.403   7.642
 3090SOL    HW211168  12.490   6.402   7.600
 3091SOL     OW11169   3.655   3.034   5.607
 3091SOL    HW111170   3.706   3.015   5.528
 3091SOL    HW211171   3.592   2.962   5.612
 3092SOL     OW11172  14.421  11.491   3.865
 3092SOL    HW111173  14.377  11.501   3.950
 3092SOL    HW211174  14.495  11.551   3.869
 3093SOL     OW11175   9.369  11.773   9.706
 3093SOL    HW111176   9.285  11.812   9.683
 3093SOL    HW211177   9.348  11.683   9.731
 3094SOL     OW11178  13.923   8.950   5.520
 3094SOL    HW111179  13.893   9.030   5.562
 3094SOL    HW211180  13.937   8.975   5.428
 3095SOL     OW11181   4.410   9.429  14.884
 3095SOL    HW111182   4.375   9.343  14.860
 3095SOL    HW211183   4.332   9.482   0.013
 3096SOL     OW11184  10.195   1.536  10.477
 3096SOL    HW111185  10.222   1.627  10.484
 3096SOL    HW211186  10.153   1.529  10.392
 3097SOL     OW11187   4.552   2.627   7.293
 3097SOL    HW111188   4.485   2.672   7.241
 3097SOL    HW211189   4.524   2.640   7.384
 3098SOL     OW11190   9.024   9.975   5.988
 3098SOL    HW111191   8.996   9.884   5.973
 3098SOL    HW211192   9.056   9.976   6.078
 3099SOL     OW11193   1.505   7.960   9.092
 3099SOL    HW111194   1.444   7.887   9.107
 3099SOL    HW211195   1.590   7.925   9.118
 3100SOL     OW11196   3.104  13.172  11.243
 3100SOL    HW111197   3.067  13.091  11.278
 3100SOL    HW211198   3.108  13.157  11.148
 3101SOL     OW11199  13.512  12.430   9.059
 3101SOL    HW111200  13.470  12.513   9.082
 3101SOL    HW211201  13.606  12.447   9.067
 3102SOL     OW11202   1.818  13.366   2.790
 3102SOL    HW111203   1.852  13.291   2.741
 3102SOL    HW211204   1.729  13.378   2.757
 3103SOL     OW11205   3.089   0.353   7.733
 3103SOL    HW111206   2.994   0.344   7.736
 3103SOL    HW211207   3.121   0.269   7.699
 3104SOL     OW11208   6.374   6.544   6.080
 3104SOL    HW111209   6.431   6.569   6.007
 3104SOL    HW211210   6.415   6.585   6.156
 3105SOL     OW11211  10.256  11.657  10.732
 3105SOL    HW111212  10.222  11.568  10.745
 3105SOL    HW211213  10.335  11.660  10.787
 3106SOL     OW11214   4.886   8.701  12.639
 3106SOL    HW111215   4.947   8.660  12.700
 3106SOL    HW211216   4.888   8.794  12.661
 3107SOL     OW11217  13.076   9.203  11.862
 3107SOL    HW111218  13.086   9.298  11.857
 3107SOL    HW211219  13.046   9.187  11.951
 3108SOL     OW11220   3.680   2.870  10.173
 3108SOL    HW111221   3.767   2.861  10.134
 3108SOL    HW211222   3.655   2.961  10.156
 3109SOL     OW11223   8.180   2.315   3.182
 3109SOL    HW111224   8.175   2.336   3.089
 3109SOL    HW211225   8.125   2.381   3.224
 3110SOL     OW11226   9.575  10.096   1.088
 3110SOL    HW111227   9.626  10.089   1.169
 3110SOL    HW211228   9.507  10.161   1.108
 3111SOL     OW11229   7.595  11.881  12.715
 3111SOL    HW111230   7.607  11.791  12.746
 3111SOL    HW211231   7.520  11.914  12.764
 3112SOL     OW11232  12.334  11.183  12.603
 3112SOL    HW111233  12.331  11.116  12.534
 3112SOL    HW211234  12.252  11.232  12.593
 3113SOL     OW11235   4.975   2.983  13.842
 3113SOL    HW111236   4.938   2.982  13.930
 3113SOL    HW211237   4.899   2.988  13.784
 3114SOL     OW11238   2.560   9.754  12.053
 3114SOL    HW111239   2.550   9.793  11.966
 3114SOL    HW211240   2.625   9.810  12.096
 3115SOL     OW11241   5.413   4.702   7.114
 3115SOL    HW111242   5.447   4.683   7.201
 3115SOL    HW211243   5.361   4.782   7.126
 3116SOL     OW11244   4.931  10.777  11.803
 3116SOL    HW111245   4.904  10.715  11.735
 3116SOL    HW211246   5.024  10.759  11.817
 3117SOL     OW11247  14.245   7.641  14.642
 3117SOL    HW111248  14.297   7.632  14.722
 3117SOL    HW211249  14.193   7.720  14.657
 3118SOL     OW11250  13.502   6.805  13.829
 3118SOL    HW111251  13.449   6.880  13.803
 3118SOL    HW211252  13.579   6.808  13.772
 3119SOL     OW11253   6.118   7.690   1.590
 3119SOL    HW111254   6.138   7.690   1.684
 3119SOL    HW211255   6.050   7.624   1.580
 3120SOL     OW11256  13.184  10.396   8.295
 3120SOL    HW111257  13.167  10.437   8.380
 3120SOL    HW211258  13.260  10.443   8.261
 3121SOL     OW11259  12.501   3.936  10.853
 3121SOL    HW111260  12.582   3.981  10.828
 3121SOL    HW211261  12.444   4.005  10.886
 3122SOL     OW11262   6.784  13.845   2.899
 3122SOL    HW111263   6.803  13.934   2.871
 3122SOL    HW211264   6.761  13.853   2.992
 3123SOL     OW11265  13.534  12.224   5.002
 3123SOL    HW111266  13.482  12.243   5.079
 3123SOL    HW211267  13.471  12.198   4.935
 3124SOL     OW11268   8.529   7.974   4.923
 3124SOL    HW111269   8.461   8.039   4.910
 3124SOL    HW211270   8.530   7.958   5.017
 3125SOL     OW11271   8.782   7.158  12.570
 3125SOL    HW111272   8.711   7.153  12.634
 3125SOL    HW211273   8.860   7.134  12.619
 3126SOL     OW11274   0.296   8.479   7.297
 3126SOL    HW111275   0.353   8.511   7.366
 3126SOL    HW211276   0.254   8.558   7.262
 3127SOL     OW11277   6.786   5.546   7.550
 3127SOL    HW111278   6.705   5.495   7.542
 3127SOL    HW211279   6.765   5.613   7.615
 3128SOL     OW11280   3.220   9.500  10.852
 3128SOL    HW111281   3.181   9.491  10.765
 3128SOL    HW211282   3.147   9.492  10.913
 3129SOL     OW11283   3.705  13.906   2.149
 3129SOL    HW111284   3.709  13.812   2.169
 3129SOL    HW211285   3.650  13.943   2.219
 3130SOL     OW11286  12.372   7.747   8.757
 3130SOL    HW111287  12.400   7.748   8.666
 3130SOL    HW211288  12.418   7.820   8.797
 3131SOL     OW11289   7.620   2.113  14.576
 3131SOL    HW111290   7.638   2.040  14.516
 3131SOL    HW211291   7.524   2.114  14.584
 3132SOL     OW11292  10.794   8.040   2.510
 3132SOL    HW111293  10.823   7.950   2.496
 3132SOL    HW211294  10.865   8.080   2.562
 3133SOL     OW11295   1.277  14.831   5.124
 3133SOL    HW111296   1.342  14.839   5.054
 3133SOL    HW211297   1.202  14.791   5.082
 3134SOL     OW11298   7.771   2.950   1.083
 3134SOL    HW111299   7.762   2.982   1.173
 3134SOL    HW211300   7.786   2.856   1.092
 3135SOL     OW11301   1.477   1.390   8.866
 3135SOL    HW111302   1.566   1.363   8.842
 3135SOL    HW211303   1.465   1.357   8.955
 3136SOL     OW11304  10.425   8.766   7.775
 3136SOL    HW111305  10.396   8.831   7.711
 3136SOL    HW211306  10.487   8.813   7.831
 3137SOL     OW11307   6.195   5.416   6.177
 3137SOL    HW111308   6.247   5.410   6.258
 3137SOL    HW211309   6.130   5.484   6.196
 3138SOL     OW11310  12.831   1.366  10.574
 3138SOL    HW111311  12.811   1.455  10.545
 3138SOL    HW211312  12.849   1.318  10.493
 3139SOL     OW11313   3.828   8.808   0.961
 3139SOL    HW111314   3.872   8.800   1.045
 3139SOL    HW211315   3.736   8.792   0.981
 3140SOL     OW11316  12.503   1.299   8.653
 3140SOL    HW111317  12.417   1.325   8.687
 3140SOL    HW211318  12.508   1.205   8.671
 3141SOL     OW11319  13.340   7.913   4.267
 3141SOL    HW111320  13.314   7.882   4.354
 3141SOL    HW211321  13.367   7.834   4.220
 3142SOL     OW11322   1.383  10.849   5.950
 3142SOL    HW111323   1.389  10.821   5.858
 3142SOL    HW211324   1.322  10.787   5.990
 3143SOL     OW11325  14.101   5.263   0.941
 3143SOL    HW111326  14.099   5.336   1.003
 3143SOL    HW211327  14.062   5.297   0.861
 3144SOL     OW11328   9.366   1.280  10.710
 3144SOL    HW111329   9.361   1.376  10.706
 3144SOL    HW211330   9.379   1.254  10.619
 3145SOL     OW11331  11.426  12.760   6.118
 3145SOL    HW111332  11.444  12.854   6.106
 3145SOL    HW211333  11.331  12.753   6.106
 3146SOL     OW11334   0.725   4.262   9.648
 3146SOL    HW111335   0.757   4.301   9.567
 3146SOL    HW211336   0.728   4.167   9.631
 3147SOL     OW11337  10.572   9.918  13.140
 3147SOL    HW111338  10.537   9.943  13.226
 3147SOL    HW211339  10.634   9.847  13.160
 3148SOL     OW11340   2.520   9.512   0.114
 3148SOL    HW111341   2.495   9.422   0.134
 3148SOL    HW211342   2.463   9.537   0.041
 3149SOL     OW11343   4.480   6.685  14.024
 3149SOL    HW111344   4.484   6.694  14.119
 3149SOL    HW211345   4.429   6.761  13.994
 3150SOL     OW11346  11.137  13.414   5.859
 3150SOL    HW111347  11.132  13.347   5.927
 3150SOL    HW211348  11.071  13.478   5.883
 3151SOL     OW11349  13.138  14.474   9.950
 3151SOL    HW111350  13.121  14.416  10.024
 3151SOL    HW211351  13.230  14.500   9.961
 3152SOL     OW11352  12.532  10.276  10.589
 3152SOL    HW111353  12.438  10.290  10.602
 3152SOL    HW211354  12.538  10.211  10.520
 3153SOL     OW11355   9.072  10.070  10.812
 3153SOL    HW111356   9.155  10.074  10.764
 3153SOL    HW211357   9.033  10.157  10.801
 3154SOL     OW11358   1.235   1.926  14.706
 3154SOL    HW111359   1.230   1.853  14.768
 3154SOL    HW211360   1.154   1.921  14.656
 3155SOL     OW11361   4.405   9.482  12.477
 3155SOL    HW111362   4.421   9.571  12.447
 3155SOL    HW211363   4.310   9.472  12.470
 3156SOL     OW11364   3.082   4.601   4.879
 3156SOL    HW111365   3.069   4.683   4.831
 3156SOL    HW211366   3.101   4.629   4.969
 3157SOL     OW11367   7.831   4.474   3.867
 3157SOL    HW111368   7.919   4.459   3.832
 3157SOL    HW211369   7.846   4.525   3.947
 3158SOL     OW11370   3.940   9.510   5.062
 3158SOL    HW111371   3.957   9.567   4.987
 3158SOL    HW211372   4.024   9.502   5.106
 3159SOL     OW11373   2.094   8.740   5.209
 3159SOL    HW111374   2.153   8.768   5.279
 3159SOL    HW211375   2.075   8.648   5.228
 3160SOL     OW11376   7.792  12.054   0.757
 3160SOL    HW111377   7.859  11.991   0.784
 3160SOL    HW211378   7.728  12.001   0.709
 3161SOL     OW11379   9.774   0.525   2.661
 3161SOL    HW111380   9.772   0.446   2.606
 3161SOL    HW211381   9.832   0.585   2.614
 3162SOL     OW11382   4.975  14.045   2.018
 3162SOL    HW111383   4.966  13.967   1.963
 3162SOL    HW211384   5.027  14.016   2.093
 3163SOL     OW11385   6.545  14.543   3.094
 3163SOL    HW111386   6.532  14.467   3.038
 3163SOL    HW211387   6.589  14.608   3.038
 3164SOL     OW11388   3.457   6.361   2.687
 3164SOL    HW111389   3.384   6.421   2.676
 3164SOL    HW211390   3.468   6.321   2.600
 3165SOL     OW11391   0.942   6.703   6.439
 3165SOL    HW111392   0.848   6.701   6.421
 3165SOL    HW211393   0.983   6.673   6.358
 3166SOL     OW11394   6.263   2.289   5.051
 3166SOL    HW111395   6.309   2.205   5.053
 3166SOL    HW211396   6.235   2.299   4.961
 3167SOL     OW11397   4.519   1.038  10.534
 3167SOL    HW111398   4.473   1.061  10.614
 3167SOL    HW211399   4.450   1.034  10.467
 3168SOL     OW11400   7.779  14.097   6.435
 3168SOL    HW111401   7.862  14.053   6.422
 3168SOL    HW211402   7.782  14.172   6.375
 3169SOL     OW11403  10.481  11.118   0.109
 3169SOL    HW111404  10.393  11.082   0.118
 3169SOL    HW211405  10.529  11.083   0.184
 3170SOL     OW11406   7.442   5.567   3.297
 3170SOL    HW111407   7.494   5.627   3.351
 3170SOL    HW211408   7.365   5.548   3.350
 3171SOL     OW11409   8.289  11.943   4.160
 3171SOL    HW111410   8.201  11.920   4.189
 3171SOL    HW211411   8.344  11.870   4.191
 3172SOL     OW11412  10.706  11.620  13.621
 3172SOL    HW111413  10.691  11.526  13.634
 3172SOL    HW211414  10.778  11.624  13.557
 3173SOL     OW11415   9.717  13.863   4.667
 3173SOL    HW111416   9.764  13.938   4.630
 3173SOL    HW211417   9.657  13.836   4.598
 3174SOL     OW11418   6.903  11.036  12.251
 3174SOL    HW111419   6.989  11.047  12.210
 3174SOL    HW211420   6.841  11.036  12.178
 3175SOL     OW11421   9.558   1.929   3.829
 3175SOL    HW111422   9.644   1.893   3.853
 3175SOL    HW211423   9.495   1.865   3.861
 3176SOL     OW11424   0.199   6.173   7.012
 3176SOL    HW111425   0.223   6.261   6.983
 3176SOL    HW211426   0.124   6.186   7.070
 3177SOL     OW11427  12.302   9.068  13.532
 3177SOL    HW111428  12.295   9.061  13.436
 3177SOL    HW211429  12.220   9.030  13.564
 3178SOL     OW11430  13.420   3.962  12.057
 3178SOL    HW111431  13.445   3.984  11.968
 3178SOL    HW211432  13.428   3.867  12.062
 3179SOL     OW11433   0.558   8.707   6.201
 3179SOL    HW111434   0.479   8.653   6.189
 3179SOL    HW211435   0.571   8.749   6.116
 3180SOL     OW11436   7.107  12.086   7.890
 3180SOL    HW111437   7.087  12.069   7.798
 3180SOL    HW211438   7.037  12.144   7.920
 3181SOL     OW11439  12.106  14.304   4.367
 3181SOL    HW111440  12.154  14.373   4.321
 3181SOL    HW211441  12.063  14.255   4.297
 3182SOL     OW11442   2.004  11.557   9.300
 3182SOL    HW111443   2.039  11.561   9.390
 3182SOL    HW211444   1.921  11.604   9.305
 3183SOL     OW11445  13.300  14.584   2.768
 3183SOL    HW111446  13.320  14.675   2.789
 3183SOL    HW211447  13.365  14.560   2.702
 3184SOL     OW11448   7.326  10.931   4.824
 3184SOL    HW111449   7.372  10.848   4.821
 3184SOL    HW211450   7.240  10.912   4.787
 3185SOL     OW11451   6.410   5.529   5.193
 3185SOL    HW111452   6.416   5.515   5.098
 3185SOL    HW211453   6.423   5.624   5.203
 3186SOL     OW11454   7.836   2.841   6.984
 3186SOL    HW111455   7.929   2.853   7.002
 3186SOL    HW211456   7.829   2.842   6.888
 3187SOL     OW11457   2.330  14.776   8.623
 3187SOL    HW111458   2.406  14.794   8.569
 3187SOL    HW211459   2.304  14.861   8.658
 3188SOL     OW11460   7.127  12.657   2.429
 3188SOL    HW111461   7.140  12.678   2.522
 3188SOL    HW211462   7.216  12.655   2.393
 3189SOL     OW11463  13.443  13.583   9.426
 3189SOL    HW111464  13.508  13.575   9.495
 3189SOL    HW211465  13.391  13.503   9.432
 3190SOL     OW11466  12.978   8.432   4.442
 3190SOL    HW111467  12.907   8.377   4.408
 3190SOL    HW211468  13.048   8.370   4.463
 3191SOL     OW11469   7.196  14.018   0.080
 3191SOL    HW111470   7.111  14.051   0.050
 3191SOL    HW211471   7.258  14.047   0.014
 3192SOL     OW11472   1.371   6.965   7.597
 3192SOL    HW111473   1.278   6.942   7.600
 3192SOL    HW211474   1.371   7.057   7.570
 3193SOL     OW11475   0.617   7.824   6.491
 3193SOL    HW111476   0.674   7.757   6.530
 3193SOL    HW211477   0.552   7.842   6.559
 3194SOL     OW11478  10.578   3.626  13.599
 3194SOL    HW111479  10.607   3.660  13.514
 3194SOL    HW211480  10.599   3.533  13.596
 3195SOL     OW11481   5.653   2.354   7.991
 3195SOL    HW111482   5.699   2.298   8.053
 3195SOL    HW211483   5.720   2.384   7.930
 3196SOL     OW11484   1.936  11.525   6.517
 3196SOL    HW111485   1.938  11.432   6.540
 3196SOL    HW211486   1.954  11.528   6.424
 3197SOL     OW11487   6.257   8.781  11.462
 3197SOL    HW111488   6.172   8.756  11.498
 3197SOL    HW211489   6.251   8.875  11.448
 3198SOL     OW11490  11.998   6.719   5.438
 3198SOL    HW111491  11.963   6.756   5.357
 3198SOL    HW211492  12.082   6.681   5.412
 3199SOL     OW11493   5.400  12.976  12.561
 3199SOL    HW111494   5.441  12.890  12.549
 3199SOL    HW211495   5.383  13.007  12.472
 3200SOL     OW11496   8.843   2.098  13.903
 3200SOL    HW111497   8.782   2.171  13.910
 3200SOL    HW211498   8.797   2.024  13.941
 3201SOL     OW11499   3.842   1.018   4.057
 3201SOL    HW111500   3.779   1.071   4.105
 3201SOL    HW211501   3.829   1.042   3.965
 3202SOL     OW11502  10.040   4.964   1.832
 3202SOL    HW111503  10.064   4.875   1.857
 3202SOL    HW211504   9.949   4.974   1.859
 3203SOL     OW11505  14.595   9.166  11.146
 3203SOL    HW111506  14.591   9.116  11.227
 3203SOL    HW211507  14.640   9.108  11.084
 3204SOL     OW11508   4.191   2.610   1.687
 3204SOL    HW111509   4.129   2.660   1.633
 3204SOL    HW211510   4.199   2.526   1.642
 3205SOL     OW11511  13.098  12.024   9.197
 3205SOL    HW111512  13.031  11.964   9.166
 3205SOL    HW211513  13.161  11.968   9.243
 3206SOL     OW11514  11.790   0.216   1.106
 3206SOL    HW111515  11.791   0.164   1.186
 3206SOL    HW211516  11.878   0.206   1.069
 3207SOL     OW11517  11.430   1.078   3.529
 3207SOL    HW111518  11.494   1.116   3.590
 3207SOL    HW211519  11.362   1.144   3.520
 3208SOL     OW11520  13.873   4.820  14.021
 3208SOL    HW111521  13.890   4.765  14.097
 3208SOL    HW211522  13.778   4.829  14.020
 3209SOL     OW11523   3.166   6.593   6.223
 3209SOL    HW111524   3.161   6.598   6.319
 3209SOL    HW211525   3.133   6.678   6.194
 3210SOL     OW11526   3.460   2.573  11.344
 3210SOL    HW111527   3.498   2.576  11.432
 3210SOL    HW211528   3.408   2.653  11.337
 3211SOL     OW11529  10.058   8.663   2.688
 3211SOL    HW111530  10.144   8.685   2.651
 3211SOL    HW211531  10.059   8.568   2.694
 3212SOL     OW11532   3.632  10.524   3.599
 3212SOL    HW111533   3.593  10.588   3.540
 3212SOL    HW211534   3.650  10.574   3.679
 3213SOL     OW11535  13.546  13.975   3.488
 3213SOL    HW111536  13.556  13.962   3.394
 3213SOL    HW211537  13.524  14.068   3.497
 3214SOL     OW11538   4.461  14.500   0.594
 3214SOL    HW111539   4.377  14.515   0.550
 3214SOL    HW211540   4.509  14.442   0.534
 3215SOL     OW11541   5.537   2.153   9.921
 3215SOL    HW111542   5.554   2.072   9.970
 3215SOL    HW211543   5.459   2.133   9.870
 3216SOL     OW11544   5.035  12.307  12.455
 3216SOL    HW111545   4.958  12.293  12.400
 3216SOL    HW211546   5.002  12.348  12.534
 3217SOL     OW11547   0.916  12.553   9.101
 3217SOL    HW111548   1.007  12.559   9.071
 3217SOL    HW211549   0.914  12.604   9.182
 3218SOL     OW11550  11.663   4.924   3.033
 3218SOL    HW111551  11.729   4.875   2.984
 3218SOL    HW211552  11.605   4.857   3.070
 3219SOL     OW11553   5.561  10.182   6.160
 3219SOL    HW111554   5.576  10.260   6.107
 3219SOL    HW211555   5.573  10.212   6.250
 3220SOL     OW11556   4.577  12.035  14.525
 3220SOL    HW111557   4.612  12.025  14.436
 3220SOL    HW211558   4.613  11.961  14.573
 3221SOL     OW11559   2.850  12.867   5.449
 3221SOL    HW111560   2.840  12.933   5.517
 3221SOL    HW211561   2.774  12.879   5.392
 3222SOL     OW11562   6.752   9.090  14.195
 3222SOL    HW111563   6.842   9.059  14.209
 3222SOL    HW211564   6.709   9.075  14.279
 3223SOL     OW11565  13.010  13.664   0.961
 3223SOL    HW111566  12.955  13.590   0.986
 3223SOL    HW211567  13.082  13.664   1.024
 3224SOL     OW11568   0.708   8.775   2.548
 3224SOL    HW111569   0.802   8.792   2.548
 3224SOL    HW211570   0.699   8.683   2.524
 3225SOL     OW11571   6.423   5.286  14.803
 3225SOL    HW111572   6.381   5.363  14.842
 3225SOL    HW211573   6.464   5.319  14.723
 3226SOL     OW11574   0.785   0.443   1.379
 3226SOL    HW111575   0.764   0.353   1.405
 3226SOL    HW211576   0.856   0.434   1.315
 3227SOL     OW11577  10.166   3.123   3.136
 3227SOL    HW111578  10.167   3.038   3.093
 3227SOL    HW211579  10.075   3.134   3.166
 3228SOL     OW11580   3.140   9.283   9.462
 3228SOL    HW111581   3.124   9.376   9.445
 3228SOL    HW211582   3.100   9.267   9.548
 3229SOL     OW11583   3.439   2.623  11.050
 3229SOL    HW111584   3.352   2.664  11.052
 3229SOL    HW211585   3.454   2.596  11.141
 3230SOL     OW11586   7.104   7.573   9.830
 3230SOL    HW111587   7.123   7.622   9.910
 3230SOL    HW211588   7.132   7.484   9.848
 3231SOL     OW11589   1.152   2.819  12.447
 3231SOL    HW111590   1.100   2.895  12.473
 3231SOL    HW211591   1.110   2.745  12.492
 3232SOL     OW11592   7.567   7.299   7.958
 3232SOL    HW111593   7.541   7.272   7.870
 3232SOL    HW211594   7.592   7.217   8.002
 3233SOL     OW11595   4.917  12.747  11.900
 3233SOL    HW111596   4.859  12.751  11.824
 3233SOL    HW211597   4.891  12.667  11.946
 3234SOL     OW11598   7.749   2.663   1.074
 3234SOL    HW111599   7.771   2.573   1.095
 3234SOL    HW211600   7.807   2.686   1.002
 3235SOL     OW11601   3.232   4.315  12.815
 3235SOL    HW111602   3.301   4.301  12.879
 3235SOL    HW211603   3.266   4.278  12.734
 3236SOL     OW11604   3.829  12.847  13.727
 3236SOL    HW111605   3.802  12.898  13.804
 3236SOL    HW211606   3.919  12.874  13.711
 3237SOL     OW11607  10.065   8.787  13.082
 3237SOL    HW111608  10.012   8.795  13.002
 3237SOL    HW211609  10.093   8.696  13.083
 3238SOL     OW11610   8.932  12.846  11.284
 3238SOL    HW111611   8.984  12.766  11.278
 3238SOL    HW211612   8.844  12.819  11.256
 3239SOL     OW11613   7.983  11.886   0.927
 3239SOL    HW111614   8.006  11.909   1.017
 3239SOL    HW211615   8.063  11.904   0.876
 3240SOL     OW11616   4.483   9.245   0.183
 3240SOL    HW111617   4.405   9.203   0.219
 3240SOL    HW211618   4.450   9.298   0.110
 3241SOL     OW11619   5.070   2.797   6.647
 3241SOL    HW111620   5.148   2.764   6.602
 3241SOL    HW211621   5.066   2.747   6.728
 3242SOL     OW11622   4.779   2.662  14.539
 3242SOL    HW111623   4.711   2.657  14.472
 3242SOL    HW211624   4.743   2.617  14.615
 3243SOL     OW11625   0.174   2.086   9.721
 3243SOL    HW111626   0.184   2.053   9.632
 3243SOL    HW211627   0.222   2.168   9.722
 3244SOL     OW11628  12.597  12.452   5.353
 3244SOL    HW111629  12.683  12.424   5.322
 3244SOL    HW211630  12.535  12.409   5.293
 3245SOL     OW11631   3.919   6.639   9.739
 3245SOL    HW111632   3.829   6.666   9.718
 3245SOL    HW211633   3.908   6.558   9.789
 3246SOL     OW11634   8.806   5.128   3.910
 3246SOL    HW111635   8.725   5.124   3.960
 3246SOL    HW211636   8.816   5.041   3.872
 3247SOL     OW11637   2.293   0.307  10.733
 3247SOL    HW111638   2.251   0.334  10.814
 3247SOL    HW211639   2.387   0.318  10.750
 3248SOL     OW11640  14.660   7.343   8.442
 3248SOL    HW111641  14.667   7.277   8.373
 3248SOL    HW211642  14.751   7.367   8.460
 3249SOL     OW11643  11.396   0.142   7.979
 3249SOL    HW111644  11.442   0.133   7.895
 3249SOL    HW211645  11.304   0.128   7.956
 3250SOL     OW11646   8.813   6.978   0.689
 3250SOL    HW111647   8.782   6.938   0.770
 3250SOL    HW211648   8.873   6.913   0.652
 3251SOL     OW11649   6.021  12.673   5.201
 3251SOL    HW111650   5.987  12.614   5.133
 3251SOL    HW211651   6.039  12.616   5.275
 3252SOL     OW11652   7.838  10.976   1.938
 3252SOL    HW111653   7.836  10.911   2.008
 3252SOL    HW211654   7.881  10.933   1.865
 3253SOL     OW11655   3.248   6.163  14.838
 3253SOL    HW111656   3.195   6.087  14.815
 3253SOL    HW211657   3.285   6.141   0.037
 3254SOL     OW11658   7.632   0.487   8.687
 3254SOL    HW111659   7.586   0.432   8.750
 3254SOL    HW211660   7.612   0.577   8.713
 3255SOL     OW11661  12.725   8.977  13.904
 3255SOL    HW111662  12.771   8.902  13.867
 3255SOL    HW211663  12.660   9.000  13.839
 3256SOL     OW11664   4.880   4.580   7.979
 3256SOL    HW111665   4.870   4.517   8.050
 3256SOL    HW211666   4.796   4.626   7.976
 3257SOL     OW11667   8.917   5.929  11.902
 3257SOL    HW111668   8.961   5.892  11.978
 3257SOL    HW211669   8.982   5.986  11.861
 3258SOL     OW11670   7.041  11.411   8.043
 3258SOL    HW111671   7.109  11.455   7.992
 3258SOL    HW211672   6.960  11.457   8.021
 3259SOL     OW11673   4.073   6.400  10.763
 3259SOL    HW111674   4.118   6.403  10.848
 3259SOL    HW211675   4.075   6.308  10.738
 3260SOL     OW11676   3.350   5.150   8.740
 3260SOL    HW111677   3.326   5.080   8.679
 3260SOL    HW211678   3.431   5.186   8.705
 3261SOL     OW11679   7.984   5.497  10.415
 3261SOL    HW111680   7.915   5.431  10.416
 3261SOL    HW211681   8.047   5.467  10.481
 3262SOL     OW11682   4.634   8.909   2.652
 3262SOL    HW111683   4.625   8.838   2.715
 3262SOL    HW211684   4.561   8.895   2.591
 3263SOL     OW11685   1.451   7.077   5.346
 3263SOL    HW111686   1.515   7.096   5.277
 3263SOL    HW211687   1.419   6.990   5.326
 3264SOL     OW11688   9.553  10.114   5.144
 3264SOL    HW111689   9.516  10.168   5.074
 3264SOL    HW211690   9.520  10.026   5.126
 3265SOL     OW11691   3.758   4.178  14.204
 3265SOL    HW111692   3.673   4.217  14.226
 3265SOL    HW211693   3.822   4.246  14.228
 3266SOL     OW11694   4.221   5.937   7.719
 3266SOL    HW111695   4.197   5.966   7.807
 3266SOL    HW211696   4.138   5.912   7.679
 3267SOL     OW11697  12.914   1.270   8.923
 3267SOL    HW111698  12.877   1.284   8.836
 3267SOL    HW211699  12.923   1.175   8.931
 3268SOL     OW11700  12.770   5.591   2.634
 3268SOL    HW111701  12.819   5.516   2.602
 3268SOL    HW211702  12.796   5.664   2.577
 3269SOL     OW11703   0.046   5.110   3.066
 3269SOL    HW111704   0.132   5.112   3.022
 3269SOL    HW211705   0.064   5.142   3.154
 3270SOL     OW11706   8.563   4.439  12.952
 3270SOL    HW111707   8.614   4.498  12.896
 3270SOL    HW211708   8.557   4.358  12.902
 3271SOL     OW11709   2.917   8.716   2.326
 3271SOL    HW111710   2.996   8.671   2.295
 3271SOL    HW211711   2.845   8.661   2.295
 3272SOL     OW11712  12.213   5.203   8.286
 3272SOL    HW111713  12.225   5.298   8.280
 3272SOL    HW211714  12.169   5.179   8.205
 3273SOL     OW11715  11.227   5.739  13.185
 3273SOL    HW111716  11.278   5.763  13.108
 3273SOL    HW211717  11.239   5.645  13.195
 3274SOL     OW11718   9.982   2.677   8.365
 3274SOL    HW111719   9.938   2.760   8.345
 3274SOL    HW211720  10.075   2.697   8.354
 3275SOL     OW11721   5.951   4.541  13.924
 3275SOL    HW111722   6.009   4.477  13.884
 3275SOL    HW211723   5.999   4.624  13.917
 3276SOL     OW11724   8.175   1.336   9.298
 3276SOL    HW111725   8.100   1.288   9.333
 3276SOL    HW211726   8.208   1.281   9.227
 3277SOL     OW11727   9.900  11.547  11.293
 3277SOL    HW111728   9.940  11.519  11.376
 3277SOL    HW211729   9.822  11.491  11.285
 3278SOL     OW11730  12.662  14.203   8.092
 3278SOL    HW111731  12.697  14.123   8.055
 3278SOL    HW211732  12.709  14.273   8.047
 3279SOL     OW11733   2.277   1.637   8.456
 3279SOL    HW111734   2.189   1.602   8.467
 3279SOL    HW211735   2.328   1.563   8.423
 3280SOL     OW11736   9.571  13.751   8.329
 3280SOL    HW111737   9.500  13.771   8.390
 3280SOL    HW211738   9.537  13.774   8.243
 3281SOL     OW11739   5.177   7.408  14.345
 3281SOL    HW111740   5.268   7.428  14.324
 3281SOL    HW211741   5.182   7.329  14.398
 3282SOL     OW11742   3.786  10.159   6.260
 3282SOL    HW111743   3.811  10.237   6.211
 3282SOL    HW211744   3.717  10.118   6.207
 3283SOL     OW11745   0.973   8.362   4.926
 3283SOL    HW111746   0.914   8.425   4.886
 3283SOL    HW211747   1.051   8.362   4.870
 3284SOL     OW11748  10.755   0.101  11.227
 3284SOL    HW111749  10.678   0.052  11.199
 3284SOL    HW211750  10.727   0.146  11.307
 3285SOL     OW11751  13.312   3.813   9.392
 3285SOL    HW111752  13.389   3.776   9.348
 3285SOL    HW211753  13.334   3.906   9.402
 3286SOL     OW11754  13.946  12.617   0.496
 3286SOL    HW111755  13.972  12.709   0.486
 3286SOL    HW211756  13.916  12.592   0.408
 3287SOL     OW11757   4.290  11.827  13.624
 3287SOL    HW111758   4.207  11.854  13.663
 3287SOL    HW211759   4.342  11.796  13.697
 3288SOL     OW11760  14.200   6.403   7.264
 3288SOL    HW111761  14.235   6.475   7.211
 3288SOL    HW211762  14.146   6.446   7.330
 3289SOL     OW11763   4.163   7.173  13.815
 3289SOL    HW111764   4.216   7.101  13.848
 3289SOL    HW211765   4.174   7.242  13.880
 3290SOL     OW11766  13.548   8.919   4.680
 3290SOL    HW111767  13.600   8.994   4.710
 3290SOL    HW211768  13.594   8.843   4.716
 3291SOL     OW11769   6.122   3.473   3.156
 3291SOL    HW111770   6.141   3.463   3.249
 3291SOL    HW211771   6.035   3.513   3.153
 3292SOL     OW11772   9.717   0.999   1.575
 3292SOL    HW111773   9.726   1.069   1.640
 3292SOL    HW211774   9.641   0.949   1.604
 3293SOL     OW11775  11.890   6.637   5.668
 3293SOL    HW111776  11.801   6.667   5.653
 3293SOL    HW211777  11.939   6.667   5.591
 3294SOL     OW11778  12.502   6.408   2.603
 3294SOL    HW111779  12.590   6.370   2.608
 3294SOL    HW211780  12.469   6.384   2.517
 3295SOL     OW11781   3.811   9.220   1.520
 3295SOL    HW111782   3.756   9.294   1.544
 3295SOL    HW211783   3.900   9.257   1.513
 3296SOL     OW11784   5.088   6.793   3.882
 3296SOL    HW111785   5.081   6.817   3.975
 3296SOL    HW211786   5.166   6.738   3.877
 3297SOL     OW11787   0.485   9.192   9.292
 3297SOL    HW111788   0.547   9.120   9.298
 3297SOL    HW211789   0.520   9.250   9.224
 3298SOL     OW11790  13.553  13.624   6.730
 3298SOL    HW111791  13.628  13.599   6.784
 3298SOL    HW211792  13.477  13.590   6.777
 3299SOL     OW11793   6.773   1.626   4.234
 3299SOL    HW111794   6.683   1.660   4.230
 3299SOL    HW211795   6.824   1.698   4.272
 3300SOL     OW11796   1.959   8.461   8.347
 3300SOL    HW111797   1.986   8.501   8.430
 3300SOL    HW211798   1.997   8.374   8.349
 3301SOL     OW11799   2.188  11.912  11.875
 3301SOL    HW111800   2.105  11.943  11.912
 3301SOL    HW211801   2.168  11.823  11.844
 3302SOL     OW11802  14.532   2.117   0.609
 3302SOL    HW111803  14.443   2.117   0.573
 3302SOL    HW211804  14.586   2.152   0.538
 3303SOL     OW11805   1.517  12.689   8.009
 3303SOL    HW111806   1.602  12.681   8.053
 3303SOL    HW211807   1.470  12.755   8.060
 3304SOL     OW11808   3.910   4.162  11.046
 3304SOL    HW111809   3.993   4.208  11.029
 3304SOL    HW211810   3.846   4.208  10.991
 3305SOL     OW11811   1.019   7.798   6.432
 3305SOL    HW111812   0.950   7.761   6.488
 3305SOL    HW211813   1.101   7.768   6.471
 3306SOL     OW11814  10.110   0.734   1.522
 3306SOL    HW111815  10.056   0.762   1.448
 3306SOL    HW211816  10.200   0.745   1.491
 3307SOL     OW11817   9.415   3.024  12.458
 3307SOL    HW111818   9.445   2.965  12.388
 3307SOL    HW211819   9.321   3.033  12.443
 3308SOL     OW11820  14.724   5.552   8.721
 3308SOL    HW111821  14.644   5.603   8.726
 3308SOL    HW211822  14.702   5.467   8.760
 3309SOL     OW11823  13.990   7.136  13.112
 3309SOL    HW111824  13.906   7.153  13.068
 3309SOL    HW211825  13.996   7.040  13.114
 3310SOL     OW11826  10.526  10.134   0.144
 3310SOL    HW111827  10.457  10.136   0.078
 3310SOL    HW211828  10.515  10.214   0.193
 3311SOL     OW11829   5.058  10.022   7.262
 3311SOL    HW111830   5.124  10.072   7.311
 3311SOL    HW211831   5.080  10.039   7.170
 3312SOL     OW11832  13.360   1.718   4.381
 3312SOL    HW111833  13.362   1.720   4.477
 3312SOL    HW211834  13.328   1.804   4.355
 3313SOL     OW11835   6.276  12.290  11.300
 3313SOL    HW111836   6.248  12.380  11.280
 3313SOL    HW211837   6.230  12.237  11.235
 3314SOL     OW11838  12.179   9.174   5.110
 3314SOL    HW111839  12.098   9.212   5.076
 3314SOL    HW211840  12.194   9.096   5.056
 3315SOL     OW11841   9.600  13.870   3.716
 3315SOL    HW111842   9.658  13.940   3.688
 3315SOL    HW211843   9.579  13.891   3.807
 3316SOL     OW11844   6.512  10.245   3.730
 3316SOL    HW111845   6.551  10.167   3.768
 3316SOL    HW211846   6.515  10.229   3.635
 3317SOL     OW11847  10.167   5.472   1.770
 3317SOL    HW111848  10.200   5.396   1.819
 3317SOL    HW211849  10.115   5.521   1.834
 3318SOL     OW11850  12.916   4.653  10.692
 3318SOL    HW111851  12.910   4.632  10.599
 3318SOL    HW211852  12.959   4.576  10.731
 3319SOL     OW11853   8.894   1.494   8.076
 3319SOL    HW111854   8.975   1.535   8.108
 3319SOL    HW211855   8.847   1.469   8.155
 3320SOL     OW11856  10.908  11.896   5.782
 3320SOL    HW111857  10.940  11.953   5.712
 3320SOL    HW211858  10.813  11.907   5.780
 3321SOL     OW11859  11.903  14.681  10.308
 3321SOL    HW111860  11.967  14.706  10.241
 3321SOL    HW211861  11.920  14.588  10.324
 3322SOL     OW11862  14.386   6.713   3.272
 3322SOL    HW111863  14.399   6.789   3.329
 3322SOL    HW211864  14.408   6.638   3.327
 3323SOL     OW11865   1.002   1.544  12.580
 3323SOL    HW111866   1.044   1.625  12.610
 3323SOL    HW211867   1.076   1.485  12.562
 3324SOL     OW11868  14.364   4.783   7.667
 3324SOL    HW111869  14.432   4.780   7.600
 3324SOL    HW211870  14.315   4.702   7.655
 3325SOL     OW11871   6.915   8.997   7.932
 3325SOL    HW111872   6.909   8.914   7.980
 3325SOL    HW211873   6.868   8.982   7.850
 3326SOL     OW11874   6.836   1.617   4.901
 3326SOL    HW111875   6.856   1.591   4.811
 3326SOL    HW211876   6.785   1.544   4.936
 3327SOL     OW11877  10.626  12.729  10.928
 3327SOL    HW111878  10.630  12.785  10.851
 3327SOL    HW211879  10.673  12.778  10.996
 3328SOL     OW11880   8.359   1.029  14.783
 3328SOL    HW111881   8.287   1.092  14.784
 3328SOL    HW211882   8.438   1.082  14.770
 3329SOL     OW11883   9.812   5.026   8.712
 3329SOL    HW111884   9.902   5.003   8.687
 3329SOL    HW211885   9.779   4.948   8.757
 3330SOL     OW11886   0.539   8.554   0.931
 3330SOL    HW111887   0.597   8.613   0.978
 3330SOL    HW211888   0.575   8.466   0.947
 3331SOL     OW11889   8.778  11.574  10.432
 3331SOL    HW111890   8.769  11.480  10.449
 3331SOL    HW211891   8.765  11.615  10.518
 3332SOL     OW11892   0.443  14.689   8.327
 3332SOL    HW111893   0.407  14.679   8.239
 3332SOL    HW211894   0.374  14.658   8.386
 3333SOL     OW11895   3.331   8.053   4.120
 3333SOL    HW111896   3.289   8.006   4.193
 3333SOL    HW211897   3.423   8.060   4.146
 3334SOL     OW11898  11.999  14.418  13.865
 3334SOL    HW111899  11.908  14.449  13.869
 3334SOL    HW211900  11.997  14.334  13.912
 3335SOL     OW11901  14.450  11.167   2.442
 3335SOL    HW111902  14.413  11.252   2.419
 3335SOL    HW211903  14.397  11.137   2.515
 3336SOL     OW11904   6.461   4.360  10.740
 3336SOL    HW111905   6.392   4.297  10.762
 3336SOL    HW211906   6.417   4.427  10.688
 3337SOL     OW11907  13.871   0.780   3.771
 3337SOL    HW111908  13.911   0.849   3.718
 3337SOL    HW211909  13.807   0.739   3.713
 3338SOL     OW11910  12.233  14.676   9.660
 3338SOL    HW111911  12.273  14.591   9.644
 3338SOL    HW211912  12.151  14.656   9.705
 3339SOL     OW11913   9.376   2.626  10.326
 3339SOL    HW111914   9.360   2.557  10.262
 3339SOL    HW211915   9.295   2.678  10.328
 3340SOL     OW11916   0.470  13.544   7.113
 3340SOL    HW111917   0.504  13.547   7.202
 3340SOL    HW211918   0.377  13.568   7.122
 3341SOL     OW11919   1.551   7.614   9.413
 3341SOL    HW111920   1.485   7.678   9.388
 3341SOL    HW211921   1.502   7.543   9.453
 3342SOL     OW11922  12.878   1.623   9.797
 3342SOL    HW111923  12.791   1.611   9.836
 3342SOL    HW211924  12.929   1.548   9.828
 3343SOL     OW11925   1.178   9.786   6.655
 3343SOL    HW111926   1.093   9.772   6.696
 3343SOL    HW211927   1.158   9.809   6.564
 3344SOL     OW11928   3.013   3.623   3.760
 3344SOL    HW111929   3.052   3.681   3.826
 3344SOL    HW211930   3.065   3.638   3.681
 3345SOL     OW11931  11.506   0.601   1.439
 3345SOL    HW111932  11.527   0.513   1.470
 3345SOL    HW211933  11.592   0.640   1.419
 3346SOL     OW11934   7.447   9.012  13.186
 3346SOL    HW111935   7.504   9.081  13.221
 3346SOL    HW211936   7.358   9.042  13.207
 3347SOL     OW11937   0.765  11.989   8.600
 3347SOL    HW111938   0.831  12.024   8.660
 3347SOL    HW211939   0.753  11.898   8.628
 3348SOL     OW11940   0.721   1.162   9.134
 3348SOL    HW111941   0.660   1.236   9.134
 3348SOL    HW211942   0.787   1.186   9.198
 3349SOL     OW11943   3.377   7.037  11.242
 3349SOL    HW111944   3.349   7.103  11.306
 3349SOL    HW211945   3.381   7.085  11.159
 3350SOL     OW11946   9.676   0.533  14.689
 3350SOL    HW111947   9.583   0.514  14.678
 3350SOL    HW211948   9.686   0.620  14.649
 3351SOL     OW11949  14.581  11.124   7.470
 3351SOL    HW111950  14.546  11.206   7.434
 3351SOL    HW211951  14.539  11.116   7.556
 3352SOL     OW11952   8.567   3.832   6.099
 3352SOL    HW111953   8.620   3.911   6.094
 3352SOL    HW211954   8.501   3.843   6.030
 3353SOL     OW11955  10.873   3.890  11.232
 3353SOL    HW111956  10.779   3.904  11.245
 3353SOL    HW211957  10.911   3.977  11.241
 3354SOL     OW11958   9.059   4.315   1.529
 3354SOL    HW111959   9.061   4.263   1.449
 3354SOL    HW211960   9.031   4.402   1.501
 3355SOL     OW11961   7.706   5.415   2.915
 3355SOL    HW111962   7.744   5.351   2.975
 3355SOL    HW211963   7.678   5.364   2.839
 3356SOL     OW11964   0.191   2.930   0.614
 3356SOL    HW111965   0.166   2.837   0.621
 3356SOL    HW211966   0.170   2.953   0.524
 3357SOL     OW11967   1.016   4.406  11.100
 3357SOL    HW111968   1.000   4.500  11.092
 3357SOL    HW211969   0.980   4.369  11.019
 3358SOL     OW11970  10.047   0.940   6.480
 3358SOL    HW111971  10.015   1.019   6.522
 3358SOL    HW211972  10.123   0.969   6.430
 3359SOL     OW11973   2.824  11.073   9.410
 3359SOL    HW111974   2.904  11.030   9.441
 3359SOL    HW211975   2.802  11.027   9.330
 3360SOL     OW11976   2.448   2.146  12.191
 3360SOL    HW111977   2.405   2.231  12.200
 3360SOL    HW211978   2.505   2.156  12.115
 3361SOL     OW11979   9.304   8.511   6.161
 3361SOL    HW111980   9.216   8.541   6.186
 3361SOL    HW211981   9.339   8.582   6.107
 3362SOL     OW11982   0.927   1.543  10.725
 3362SOL    HW111983   0.880   1.601  10.664
 3362SOL    HW211984   1.005   1.592  10.750
 3363SOL     OW11985  11.796   2.710   8.253
 3363SOL    HW111986  11.876   2.664   8.228
 3363SOL    HW211987  11.797   2.790   8.201
 3364SOL     OW11988   0.338   3.743   1.627
 3364SOL    HW111989   0.315   3.720   1.537
 3364SOL    HW211990   0.397   3.673   1.655
 3365SOL     OW11991   4.040  11.907  13.718
 3365SOL    HW111992   3.975  11.880  13.784
 3365SOL    HW211993   4.023  12.000  13.704
 3366SOL     OW11994   6.936   4.252   9.904
 3366SOL    HW111995   6.932   4.219   9.993
 3366SOL    HW211996   6.899   4.340   9.909
 3367SOL     OW11997   2.844   9.016   9.491
 3367SOL    HW111998   2.794   8.937   9.511
 3367SOL    HW211999   2.924   8.985   9.449
 3368SOL     OW12000   2.855   0.538   6.846
 3368SOL    HW112001   2.931   0.487   6.818
 3368SOL    HW212002   2.783   0.506   6.791
 3369SOL     OW12003   5.181   0.027  14.291
 3369SOL    HW112004   5.142  14.855  14.226
 3369SOL    HW212005   5.160   0.115  14.259
 3370SOL     OW12006  12.024   9.627   1.585
 3370SOL    HW112007  12.038   9.543   1.541
 3370SOL    HW212008  11.929   9.633   1.593
 3371SOL     OW12009   5.966   3.657  11.563
 3371SOL    HW112010   5.919   3.593  11.508
 3371SOL    HW212011   5.941   3.634  11.653
 3372SOL     OW12012   4.941   6.509   1.917
 3372SOL    HW112013   4.958   6.475   2.005
 3372SOL    HW212014   4.867   6.568   1.929
 3373SOL     OW12015   5.119   7.222  11.887
 3373SOL    HW112016   5.154   7.235  11.798
 3373SOL    HW212017   5.064   7.144  11.879
 3374SOL     OW12018   5.396   8.540  13.910
 3374SOL    HW112019   5.347   8.479  13.964
 3374SOL    HW212020   5.487   8.514  13.921
 3375SOL     OW12021   6.097  10.852   9.421
 3375SOL    HW112022   6.102  10.866   9.516
 3375SOL    HW212023   6.178  10.807   9.399
 3376SOL     OW12024   7.378   0.891  12.493
 3376SOL    HW112025   7.349   0.820  12.436
 3376SOL    HW212026   7.301   0.912  12.547
 3377SOL     OW12027   1.867   0.294  10.608
 3377SOL    HW112028   1.868   0.203  10.579
 3377SOL    HW212029   1.951   0.329  10.578
 3378SOL     OW12030  13.753   0.542   0.678
 3378SOL    HW112031  13.765   0.586   0.762
 3378SOL    HW212032  13.760   0.449   0.698
 3379SOL     OW12033   1.735  14.188  13.064
 3379SOL    HW112034   1.724  14.158  12.974
 3379SOL    HW212035   1.669  14.139  13.113
 3380SOL     OW12036   3.153   7.903   8.222
 3380SOL    HW112037   3.182   7.898   8.131
 3380SOL    HW212038   3.234   7.906   8.274
 3381SOL     OW12039   9.551  13.009  10.268
 3381SOL    HW112040   9.482  12.957  10.308
 3381SOL    HW212041   9.633  12.969  10.298
 3382SOL     OW12042   5.938   3.584   4.732
 3382SOL    HW112043   5.984   3.659   4.693
 3382SOL    HW212044   6.006   3.538   4.782
 3383SOL     OW12045  14.639  13.933  13.258
 3383SOL    HW112046  14.708  13.875  13.292
 3383SOL    HW212047  14.649  13.928  13.163
 3384SOL     OW12048   0.463  11.025   5.520
 3384SOL    HW112049   0.428  10.962   5.583
 3384SOL    HW212050   0.486  11.102   5.573
 3385SOL     OW12051   6.924   5.877   1.966
 3385SOL    HW112052   6.854   5.829   2.010
 3385SOL    HW212053   6.880   5.947   1.919
 3386SOL     OW12054  11.649   1.808   8.548
 3386SOL    HW112055  11.729   1.761   8.571
 3386SOL    HW212056  11.602   1.749   8.489
 3387SOL     OW12057   1.292   2.378  10.138
 3387SOL    HW112058   1.214   2.414  10.180
 3387SOL    HW212059   1.324   2.450  10.083
 3388SOL     OW12060   1.144   4.603  11.728
 3388SOL    HW112061   1.175   4.513  11.720
 3388SOL    HW212062   1.145   4.637  11.639
 3389SOL     OW12063  12.501  13.833   5.704
 3389SOL    HW112064  12.439  13.890   5.750
 3389SOL    HW212065  12.532  13.886   5.630
 3390SOL     OW12066  14.503  12.941   4.045
 3390SOL    HW112067  14.419  12.954   4.001
 3390SOL    HW212068  14.484  12.955   4.138
 3391SOL     OW12069  13.129   9.208   5.006
 3391SOL    HW112070  13.050   9.182   5.055
 3391SOL    HW212071  13.173   9.126   4.986
 3392SOL     OW12072   2.860  14.260   6.300
 3392SOL    HW112073   2.896  14.349   6.293
 3392SOL    HW212074   2.936  14.205   6.315
 3393SOL     OW12075   7.700   9.065   8.134
 3393SOL    HW112076   7.780   9.095   8.092
 3393SOL    HW212077   7.716   9.078   8.228
 3394SOL     OW12078  13.938   0.634   5.039
 3394SOL    HW112079  14.011   0.579   5.066
 3394SOL    HW212080  13.872   0.572   5.006
 3395SOL     OW12081  13.397  11.187   9.844
 3395SOL    HW112082  13.317  11.172   9.792
 3395SOL    HW212083  13.452  11.111   9.824
 3396SOL     OW12084   7.981   2.164  13.077
 3396SOL    HW112085   8.026   2.112  13.011
 3396SOL    HW212086   7.918   2.216  13.028
 3397SOL     OW12087  11.264   0.459   3.520
 3397SOL    HW112088  11.199   0.406   3.567
 3397SOL    HW212089  11.215   0.536   3.491
 3398SOL     OW12090   0.702  10.203   8.149
 3398SOL    HW112091   0.612  10.170   8.142
 3398SOL    HW212092   0.696  10.295   8.123
 3399SOL     OW12093   4.666   6.306  14.477
 3399SOL    HW112094   4.608   6.319  14.402
 3399SOL    HW212095   4.624   6.236  14.528
 3400SOL     OW12096   5.318  13.313  13.181
 3400SOL    HW112097   5.245  13.276  13.131
 3400SOL    HW212098   5.284  13.320  13.270
 3401SOL     OW12099   8.996   1.771   8.445
 3401SOL    HW112100   8.945   1.690   8.444
 3401SOL    HW212101   9.005   1.795   8.353
 3402SOL     OW12102   9.160   9.226   9.555
 3402SOL    HW112103   9.149   9.150   9.611
 3402SOL    HW212104   9.255   9.229   9.538
 3403SOL     OW12105   3.738   8.800   8.433
 3403SOL    HW112106   3.791   8.876   8.411
 3403SOL    HW212107   3.719   8.809   8.526
 3404SOL     OW12108   4.010  10.569   9.161
 3404SOL    HW112109   3.934  10.510   9.159
 3404SOL    HW212110   3.998  10.626   9.085
 3405SOL     OW12111  13.560   5.450   0.197
 3405SOL    HW112112  13.486   5.389   0.196
 3405SOL    HW212113  13.618   5.418   0.129
 3406SOL     OW12114  14.716  11.443   3.710
 3406SOL    HW112115  14.633  11.464   3.751
 3406SOL    HW212116  14.782  11.461   3.777
 3407SOL     OW12117   4.780   2.320  11.612
 3407SOL    HW112118   4.828   2.379  11.671
 3407SOL    HW212119   4.846   2.293  11.547
 3408SOL     OW12120  14.061  11.988   8.623
 3408SOL    HW112121  13.981  11.943   8.652
 3408SOL    HW212122  14.029  12.068   8.582
 3409SOL     OW12123   6.589  14.763   0.951
 3409SOL    HW112124   6.539  14.810   1.018
 3409SOL    HW212125   6.650  14.708   1.000
 3410SOL     OW12126  13.723  13.496  10.590
 3410SOL    HW112127  13.686  13.580  10.616
 3410SOL    HW212128  13.715  13.495  10.494
 3411SOL     OW12129  13.944   2.945   9.919
 3411SOL    HW112130  13.969   2.862   9.880
 3411SOL    HW212131  14.019   2.971   9.972
 3412SOL     OW12132   9.713   9.687  11.866
 3412SOL    HW112133   9.703   9.717  11.776
 3412SOL    HW212134   9.623   9.672  11.896
 3413SOL     OW12135  12.269  11.882  13.648
 3413SOL    HW112136  12.319  11.817  13.598
 3413SOL    HW212137  12.206  11.918  13.586
 3414SOL     OW12138   8.700  12.959   1.901
 3414SOL    HW112139   8.692  12.927   1.811
 3414SOL    HW212140   8.732  13.049   1.892
 3415SOL     OW12141   8.253  10.844   7.431
 3415SOL    HW112142   8.339  10.882   7.416
 3415SOL    HW212143   8.260  10.754   7.399
 3416SOL     OW12144   3.227   2.277   0.192
 3416SOL    HW112145   3.142   2.239   0.215
 3416SOL    HW212146   3.217   2.304   0.101
 3417SOL     OW12147  13.208   7.460   6.102
 3417SOL    HW112148  13.268   7.494   6.036
 3417SOL    HW212149  13.244   7.491   6.185
 3418SOL     OW12150  10.240  13.290   4.278
 3418SOL    HW112151  10.148  13.279   4.256
 3418SOL    HW212152  10.255  13.230   4.352
 3419SOL     OW12153   7.563   9.754  12.964
 3419SOL    HW112154   7.587   9.668  12.997
 3419SOL    HW212155   7.472   9.746  12.938
 3420SOL     OW12156   0.281   4.804   8.598
 3420SOL    HW112157   0.281   4.740   8.527
 3420SOL    HW212158   0.262   4.752   8.676
 3421SOL     OW12159   3.446   6.963   9.194
 3421SOL    HW112160   3.473   6.952   9.103
 3421SOL    HW212161   3.466   7.054   9.215
 3422SOL     OW12162   2.865   1.861   7.985
 3422SOL    HW112163   2.816   1.839   7.906
 3422SOL    HW212164   2.946   1.902   7.953
 3423SOL     OW12165   7.482   2.437   9.520
 3423SOL    HW112166   7.492   2.409   9.429
 3423SOL    HW212167   7.431   2.368   9.561
 3424SOL     OW12168   2.946   4.667   6.434
 3424SOL    HW112169   2.978   4.757   6.435
 3424SOL    HW212170   3.020   4.614   6.464
 3425SOL     OW12171  13.435   7.779   3.072
 3425SOL    HW112172  13.352   7.808   3.033
 3425SOL    HW212173  13.497   7.849   3.052
 3426SOL     OW12174   8.297   0.449  11.904
 3426SOL    HW112175   8.350   0.372  11.884
 3426SOL    HW212176   8.211   0.414  11.927
 3427SOL     OW12177   0.293   0.275   6.868
 3427SOL    HW112178   0.270   0.242   6.781
 3427SOL    HW212179   0.386   0.252   6.878
 3428SOL     OW12180   7.873   2.357  14.789
 3428SOL    HW112181   7.954   2.331  14.833
 3428SOL    HW212182   7.895   2.354  14.696
 3429SOL     OW12183   8.359   4.752   0.455
 3429SOL    HW112184   8.315   4.827   0.415
 3429SOL    HW212185   8.415   4.717   0.385
 3430SOL     OW12186  12.330  14.052   7.282
 3430SOL    HW112187  12.361  13.977   7.231
 3430SOL    HW212188  12.307  14.118   7.217
 3431SOL     OW12189  13.879  12.262   3.109
 3431SOL    HW112190  13.877  12.279   3.015
 3431SOL    HW212191  13.893  12.168   3.116
 3432SOL     OW12192   4.203   5.313   3.667
 3432SOL    HW112193   4.154   5.385   3.707
 3432SOL    HW212194   4.176   5.235   3.716
 3433SOL     OW12195   1.420  10.630  12.965
 3433SOL    HW112196   1.345  10.688  12.947
 3433SOL    HW212197   1.473  10.679  13.028
 3434SOL     OW12198  11.538   5.575  13.841
 3434SOL    HW112199  11.584   5.513  13.898
 3434SOL    HW212200  11.596   5.651  13.838
 3435SOL     OW12201   5.969   9.261   2.200
 3435SOL    HW112202   5.887   9.310   2.187
 3435SOL    HW212203   6.005   9.297   2.281
 3436SOL     OW12204   2.399   4.664  14.046
 3436SOL    HW112205   2.424   4.662  13.954
 3436SOL    HW212206   2.323   4.722  14.050
 3437SOL     OW12207   2.491  14.241   7.793
 3437SOL    HW112208   2.461  14.310   7.852
 3437SOL    HW212209   2.425  14.239   7.723
 3438SOL     OW12210   8.192   0.963   8.978
 3438SOL    HW112211   8.189   1.057   8.957
 3438SOL    HW212212   8.277   0.952   9.021
 3439SOL     OW12213  13.893  10.423   0.545
 3439SOL    HW112214  13.948  10.425   0.467
 3439SOL    HW212215  13.805  10.407   0.512
 3440SOL     OW12216   2.863   7.397   7.033
 3440SOL    HW112217   2.957   7.398   7.014
 3440SOL    HW212218   2.851   7.463   7.101
 3441SOL     OW12219  12.359  10.059   5.538
 3441SOL    HW112220  12.328   9.983   5.489
 3441SOL    HW212221  12.438  10.086   5.492
 3442SOL     OW12222  13.577   8.856  10.528
 3442SOL    HW112223  13.652   8.811  10.489
 3442SOL    HW212224  13.571   8.822  10.617
 3443SOL     OW12225   4.807  10.277   1.553
 3443SOL    HW112226   4.815  10.224   1.474
 3443SOL    HW212227   4.714  10.270   1.578
 3444SOL     OW12228  12.204   6.834  11.489
 3444SOL    HW112229  12.291   6.845  11.451
 3444SOL    HW212230  12.216   6.848  11.583
 3445SOL     OW12231  13.404   0.761   7.860
 3445SOL    HW112232  13.462   0.727   7.927
 3445SOL    HW212233  13.419   0.856   7.860
 3446SOL     OW12234   4.986   4.992   2.102
 3446SOL    HW112235   4.940   5.074   2.119
 3446SOL    HW212236   4.963   4.970   2.011
 3447SOL     OW12237  12.804   6.877   3.904
 3447SOL    HW112238  12.831   6.953   3.852
 3447SOL    HW212239  12.853   6.885   3.985
 3448SOL     OW12240   3.519   5.627  10.776
 3448SOL    HW112241   3.454   5.568  10.815
 3448SOL    HW212242   3.475   5.712  10.772
 3449SOL     OW12243  10.233   6.579  11.158
 3449SOL    HW112244  10.170   6.517  11.122
 3449SOL    HW212245  10.184   6.661  11.164
 3450SOL     OW12246   5.304  13.972  14.748
 3450SOL    HW112247   5.283  14.025  14.671
 3450SOL    HW212248   5.399  13.964  14.746
 3451SOL     OW12249   9.987   6.742   7.558
 3451SOL    HW112250   9.985   6.767   7.650
 3451SOL    HW212251  10.020   6.819   7.512
 3452SOL     OW12252  12.692   3.631  11.491
 3452SOL    HW112253  12.687   3.657  11.582
 3452SOL    HW212254  12.772   3.577  11.485
 3453SOL     OW12255   6.468   5.149   6.557
 3453SOL    HW112256   6.434   5.130   6.645
 3453SOL    HW212257   6.466   5.065   6.511
 3454SOL     OW12258  10.091  11.343   5.167
 3454SOL    HW112259  10.010  11.332   5.118
 3454SOL    HW212260  10.159  11.306   5.111
 3455SOL     OW12261   6.997   6.917   9.799
 3455SOL    HW112262   7.045   6.882   9.874
 3455SOL    HW212263   6.923   6.965   9.838
 3456SOL     OW12264   2.103  11.364   3.532
 3456SOL    HW112265   2.032  11.386   3.593
 3456SOL    HW212266   2.166  11.435   3.542
 3457SOL     OW12267   6.660  11.550   3.603
 3457SOL    HW112268   6.648  11.618   3.537
 3457SOL    HW212269   6.752  11.526   3.597
 3458SOL     OW12270   3.253   8.874  12.139
 3458SOL    HW112271   3.196   8.804  12.170
 3458SOL    HW212272   3.341   8.838  12.146
 3459SOL     OW12273  13.923   6.934   4.816
 3459SOL    HW112274  13.830   6.947   4.797
 3459SOL    HW212275  13.925   6.884   4.897
 3460SOL     OW12276   7.582   8.978   1.327
 3460SOL    HW112277   7.504   9.033   1.323
 3460SOL    HW212278   7.587   8.950   1.418
 3461SOL     OW12279   0.597   5.034   0.135
 3461SOL    HW112280   0.565   5.016   0.224
 3461SOL    HW212281   0.669   5.095   0.148
 3462SOL     OW12282   4.069  13.821   6.578
 3462SOL    HW112283   4.003  13.802   6.510
 3462SOL    HW212284   4.021  13.809   6.660
 3463SOL     OW12285  11.632   0.399   2.661
 3463SOL    HW112286  11.683   0.451   2.723
 3463SOL    HW212287  11.541   0.419   2.683
 3464SOL     OW12288  11.654  11.382   4.339
 3464SOL    HW112289  11.582  11.350   4.394
 3464SOL    HW212290  11.649  11.477   4.347
 3465SOL     OW12291  12.208   6.556   6.936
 3465SOL    HW112292  12.245   6.638   6.969
 3465SOL    HW212293  12.115   6.576   6.923
 3466SOL     OW12294   1.833  13.566   2.247
 3466SOL    HW112295   1.826  13.632   2.316
 3466SOL    HW212296   1.895  13.502   2.280
 3467SOL     OW12297  12.393   2.464  11.906
 3467SOL    HW112298  12.312   2.415  11.914
 3467SOL    HW212299  12.368   2.555  11.923
 3468SOL     OW12300   3.509   5.268   9.900
 3468SOL    HW112301   3.513   5.208   9.825
 3468SOL    HW212302   3.599   5.270   9.932
 3469SOL     OW12303   4.943   9.404   4.390
 3469SOL    HW112304   4.927   9.498   4.383
 3469SOL    HW212305   4.937   9.386   4.484
 3470SOL     OW12306   9.344   1.020   6.769
 3470SOL    HW112307   9.325   0.932   6.804
 3470SOL    HW212308   9.303   1.079   6.832
 3471SOL     OW12309  11.572  14.001  12.016
 3471SOL    HW112310  11.571  14.031  11.926
 3471SOL    HW212311  11.529  13.916  12.014
 3472SOL     OW12312   7.014   8.833   4.772
 3472SOL    HW112313   6.978   8.878   4.695
 3472SOL    HW212314   7.094   8.881   4.793
 3473SOL     OW12315   6.931  10.416  14.220
 3473SOL    HW112316   6.933  10.375  14.133
 3473SOL    HW212317   6.852  10.470  14.220
 3474SOL     OW12318   8.122  14.330   0.840
 3474SOL    HW112319   8.046  14.286   0.804
 3474SOL    HW212320   8.174  14.261   0.881
 3475SOL     OW12321   4.066  13.875  14.263
 3475SOL    HW112322   4.044  13.796  14.311
 3475SOL    HW212323   3.983  13.922  14.254
 3476SOL     OW12324   4.148   8.125  14.462
 3476SOL    HW112325   4.080   8.192  14.458
 3476SOL    HW212326   4.213   8.160  14.523
 3477SOL     OW12327   5.839  10.165   5.524
 3477SOL    HW112328   5.896  10.134   5.594
 3477SOL    HW212329   5.757  10.117   5.537
 3478SOL     OW12330   4.009   5.731   0.606
 3478SOL    HW112331   4.070   5.778   0.662
 3478SOL    HW212332   4.049   5.732   0.519
 3479SOL     OW12333   3.046   1.171  14.086
 3479SOL    HW112334   3.127   1.133  14.052
 3479SOL    HW212335   3.006   1.101  14.137
 3480SOL     OW12336   3.478  12.318   4.957
 3480SOL    HW112337   3.568  12.294   4.980
 3480SOL    HW212338   3.424  12.260   5.010
 3481SOL     OW12339   2.815   3.923   4.529
 3481SOL    HW112340   2.823   3.889   4.618
 3481SOL    HW212341   2.882   3.992   4.523
 3482SOL     OW12342   8.625   8.352   4.837
 3482SOL    HW112343   8.642   8.444   4.821
 3482SOL    HW212344   8.672   8.333   4.919
 3483SOL     OW12345  14.460  10.923   8.025
 3483SOL    HW112346  14.556  10.922   8.032
 3483SOL    HW212347  14.433  10.999   8.076
 3484SOL     OW12348   6.440   1.152  13.126
 3484SOL    HW112349   6.410   1.242  13.116
 3484SOL    HW212350   6.535   1.157  13.121
 3485SOL     OW12351   3.383   1.274   7.079
 3485SOL    HW112352   3.441   1.198   7.071
 3485SOL    HW212353   3.307   1.253   7.026
 3486SOL     OW12354   7.132   3.217  10.875
 3486SOL    HW112355   7.095   3.170  10.950
 3486SOL    HW212356   7.145   3.306  10.906
 3487SOL     OW12357   8.432   2.182  11.793
 3487SOL    HW112358   8.445   2.125  11.717
 3487SOL    HW212359   8.379   2.254  11.759
 3488SOL     OW12360   1.314   7.123   4.829
 3488SOL    HW112361   1.409   7.123   4.840
 3488SOL    HW212362   1.301   7.114   4.734
 3489SOL     OW12363   5.857   3.892  11.253
 3489SOL    HW112364   5.800   3.967  11.270
 3489SOL    HW212365   5.847   3.875  11.160
 3490SOL     OW12366  13.499   0.340  12.112
 3490SOL    HW112367  13.433   0.326  12.180
 3490SOL    HW212368  13.515   0.253  12.075
 3491SOL     OW12369  13.027   8.751   0.635
 3491SOL    HW112370  12.983   8.836   0.643
 3491SOL    HW212371  13.084   8.760   0.558
 3492SOL     OW12372   8.499  10.021  14.642
 3492SOL    HW112373   8.515  10.110  14.608
 3492SOL    HW212374   8.578   9.972  14.618
 3493SOL     OW12375   2.896  10.737  10.984
 3493SOL    HW112376   2.878  10.664  10.925
 3493SOL    HW212377   2.911  10.811  10.926
 3494SOL     OW12378  10.399   0.997  12.148
 3494SOL    HW112379  10.368   1.077  12.191
 3494SOL    HW212380  10.446   0.949  12.216
 3495SOL     OW12381   0.554   6.329   9.911
 3495SOL    HW112382   0.470   6.306   9.871
 3495SOL    HW212383   0.532   6.347  10.002
 3496SOL     OW12384   6.110   9.478  10.067
 3496SOL    HW112385   6.164   9.418  10.117
 3496SOL    HW212386   6.108   9.558  10.119
 3497SOL     OW12387   7.851  10.769   1.009
 3497SOL    HW112388   7.860  10.795   0.918
 3497SOL    HW212389   7.849  10.851   1.058
 3498SOL     OW12390   0.966   0.680  13.984
 3498SOL    HW112391   1.031   0.626  13.939
 3498SOL    HW212392   0.909   0.618  14.029
 3499SOL     OW12393  12.079   6.075   4.668
 3499SOL    HW112394  12.168   6.060   4.638
 3499SOL    HW212395  12.083   6.157   4.717
 3500SOL     OW12396   4.284  14.043  13.115
 3500SOL    HW112397   4.276  14.117  13.055
 3500SOL    HW212398   4.207  13.990  13.099
 3501SOL     OW12399   6.254  10.267   5.549
 3501SOL    HW112400   6.312  10.303   5.617
 3501SOL    HW212401   6.245  10.175   5.573
 3502SOL     OW12402   8.879   9.531   4.431
 3502SOL    HW112403   8.959   9.548   4.382
 3502SOL    HW212404   8.830   9.469   4.377
 3503SOL     OW12405  10.632   4.924   3.913
 3503SOL    HW112406  10.567   4.856   3.930
 3503SOL    HW212407  10.705   4.902   3.969
 3504SOL     OW12408   3.705   2.691   2.635
 3504SOL    HW112409   3.683   2.609   2.679
 3504SOL    HW212410   3.621   2.725   2.604
 3505SOL     OW12411  12.980  12.921   9.287
 3505SOL    HW112412  12.917  12.939   9.357
 3505SOL    HW212413  12.926  12.910   9.209
 3506SOL     OW12414   5.016  14.470   8.947
 3506SOL    HW112415   5.021  14.426   8.862
 3506SOL    HW212416   4.989  14.401   9.008
 3507SOL     OW12417   5.594   3.295  11.410
 3507SOL    HW112418   5.643   3.293  11.327
 3507SOL    HW212419   5.583   3.389  11.428
 3508SOL     OW12420  14.582  14.627   5.761
 3508SOL    HW112421  14.609  14.575   5.686
 3508SOL    HW212422  14.615  14.715   5.743
 3509SOL     OW12423  11.303  11.875   9.421
 3509SOL    HW112424  11.217  11.914   9.408
 3509SOL    HW212425  11.306  11.854   9.515
 3510SOL     OW12426  10.088   0.207  13.835
 3510SOL    HW112427  10.082   0.191  13.929
 3510SOL    HW212428  10.071   0.122  13.795
 3511SOL     OW12429   3.044  10.775   2.326
 3511SOL    HW112430   3.077  10.862   2.304
 3511SOL    HW212431   2.950  10.786   2.335
 3512SOL     OW12432   1.639   9.428  11.391
 3512SOL    HW112433   1.713   9.368  11.400
 3512SOL    HW212434   1.575   9.398  11.456
 3513SOL     OW12435   5.539   6.790   5.892
 3513SOL    HW112436   5.542   6.698   5.918
 3513SOL    HW212437   5.591   6.836   5.958
 3514SOL     OW12438  10.119  14.243   2.752
 3514SOL    HW112439  10.165  14.289   2.682
 3514SOL    HW212440  10.149  14.285   2.832
 3515SOL     OW12441   0.974   5.726  11.543
 3515SOL    HW112442   1.028   5.723  11.621
 3515SOL    HW212443   0.911   5.655  11.554
 3516SOL     OW12444   9.093   9.205   9.244
 3516SOL    HW112445   9.155   9.271   9.214
 3516SOL    HW212446   9.008   9.248   9.240
 3517SOL     OW12447  11.620   1.083   3.308
 3517SOL    HW112448  11.648   0.996   3.281
 3517SOL    HW212449  11.558   1.066   3.379
 3518SOL     OW12450   5.400  14.667   6.756
 3518SOL    HW112451   5.354  14.603   6.701
 3518SOL    HW212452   5.331  14.717   6.798
 3519SOL     OW12453  14.480  11.097   0.560
 3519SOL    HW112454  14.396  11.068   0.594
 3519SOL    HW212455  14.459  11.170   0.502
 3520SOL     OW12456  12.371  14.159  10.879
 3520SOL    HW112457  12.294  14.213  10.896
 3520SOL    HW212458  12.351  14.114  10.797
 3521SOL     OW12459  14.199   4.492   2.231
 3521SOL    HW112460  14.240   4.459   2.151
 3521SOL    HW212461  14.269   4.489   2.297
 3522SOL     OW12462   6.199   3.108   6.391
 3522SOL    HW112463   6.279   3.092   6.341
 3522SOL    HW212464   6.138   3.144   6.326
 3523SOL     OW12465  13.998   5.204  11.584
 3523SOL    HW112466  13.994   5.299  11.595
 3523SOL    HW212467  14.082   5.189  11.540
 3524SOL     OW12468  13.222   8.151   8.823
 3524SOL    HW112469  13.236   8.116   8.911
 3524SOL    HW212470  13.311   8.162   8.787
 3525SOL     OW12471   3.520  13.312  11.594
 3525SOL    HW112472   3.575  13.311  11.516
 3525SOL    HW212473   3.559  13.378  11.651
 3526SOL     OW12474   0.662   0.238   4.670
 3526SOL    HW112475   0.738   0.256   4.614
 3526SOL    HW212476   0.670   0.301   4.742
 3527SOL     OW12477   4.738  11.362  10.280
 3527SOL    HW112478   4.651  11.401  10.288
 3527SOL    HW212479   4.728  11.291  10.217
 3528SOL     OW12480  11.436   6.433  11.695
 3528SOL    HW112481  11.409   6.385  11.617
 3528SOL    HW212482  11.353   6.457  11.738
 3529SOL     OW12483   4.523  13.156   9.199
 3529SOL    HW112484   4.555  13.104   9.126
 3529SOL    HW212485   4.545  13.105   9.277
 3530SOL     OW12486   0.036   3.143  14.801
 3530SOL    HW112487  14.840   3.187  14.785
 3530SOL    HW212488   0.094   3.213  14.833
 3531SOL     OW12489   3.153   3.582  13.660
 3531SOL    HW112490   3.147   3.676  13.646
 3531SOL    HW212491   3.197   3.573  13.744
 3532SOL     OW12492  12.426  10.347   9.332
 3532SOL    HW112493  12.364  10.297   9.279
 3532SOL    HW212494  12.510  10.337   9.286
 3533SOL     OW12495   3.591   2.634   1.385
 3533SOL    HW112496   3.618   2.574   1.454
 3533SOL    HW212497   3.670   2.650   1.334
 3534SOL     OW12498   6.252   1.351   8.542
 3534SOL    HW112499   6.209   1.267   8.561
 3534SOL    HW212500   6.216   1.378   8.458
 3535SOL     OW12501   3.940   8.903   3.405
 3535SOL    HW112502   4.016   8.887   3.348
 3535SOL    HW212503   3.945   8.996   3.426
 3536SOL     OW12504  14.573   9.568   2.473
 3536SOL    HW112505  14.638   9.534   2.535
 3536SOL    HW212506  14.500   9.597   2.528
 3537SOL     OW12507   8.231  10.568  12.654
 3537SOL    HW112508   8.297  10.504  12.679
 3537SOL    HW212509   8.148  10.527  12.678
 3538SOL     OW12510   3.235  13.428   3.928
 3538SOL    HW112511   3.268  13.489   3.862
 3538SOL    HW212512   3.301  13.359   3.932
 3539SOL     OW12513   0.240   9.149  12.404
 3539SOL    HW112514   0.204   9.100  12.478
 3539SOL    HW212515   0.259   9.236  12.440
 3540SOL     OW12516   4.723   0.503   4.223
 3540SOL    HW112517   4.779   0.467   4.153
 3540SOL    HW212518   4.746   0.596   4.227
 3541SOL     OW12519   9.485  11.709   0.826
 3541SOL    HW112520   9.470  11.741   0.737
 3541SOL    HW212521   9.501  11.615   0.815
 3542SOL     OW12522   0.176   7.549   2.754
 3542SOL    HW112523   0.256   7.517   2.796
 3542SOL    HW212524   0.141   7.614   2.816
 3543SOL     OW12525   9.833   9.951   9.812
 3543SOL    HW112526   9.859   9.986   9.727
 3543SOL    HW212527   9.854   9.858   9.808
 3544SOL     OW12528  10.609   4.680  11.752
 3544SOL    HW112529  10.640   4.669  11.662
 3544SOL    HW212530  10.565   4.597  11.772
 3545SOL     OW12531  13.222  13.947   7.386
 3545SOL    HW112532  13.182  13.997   7.315
 3545SOL    HW212533  13.187  13.988   7.466
 3546SOL     OW12534  11.429   0.670   3.674
 3546SOL    HW112535  11.340   0.700   3.694
 3546SOL    HW212536  11.419   0.577   3.655
 3547SOL     OW12537   1.355  14.758   3.682
 3547SOL    HW112538   1.318  14.827   3.627
 3547SOL    HW212539   1.303  14.680   3.661
 3548SOL     OW12540  14.070   7.132   9.796
 3548SOL    HW112541  14.135   7.201   9.811
 3548SOL    HW212542  14.018   7.130   9.877
 3549SOL     OW12543  10.108  13.374  11.337
 3549SOL    HW112544  10.025  13.408  11.372
 3549SOL    HW212545  10.088  13.283  11.314
 3550SOL     OW12546  10.276   7.447  11.290
 3550SOL    HW112547  10.319   7.373  11.333
 3550SOL    HW212548  10.187   7.417  11.273
 3551SOL     OW12549  11.058   7.104   3.563
 3551SOL    HW112550  11.101   7.190   3.563
 3551SOL    HW212551  10.975   7.119   3.608
 3552SOL     OW12552  11.486  14.287   5.108
 3552SOL    HW112553  11.508  14.273   5.016
 3552SOL    HW212554  11.450  14.203   5.137
 3553SOL     OW12555   5.100   4.399   6.555
 3553SOL    HW112556   5.142   4.313   6.564
 3553SOL    HW212557   5.053   4.411   6.637
 3554SOL     OW12558  11.338   6.215   2.983
 3554SOL    HW112559  11.251   6.181   3.001
 3554SOL    HW212560  11.324   6.305   2.954
 3555SOL     OW12561   6.478   9.722   3.730
 3555SOL    HW112562   6.388   9.690   3.737
 3555SOL    HW212563   6.508   9.727   3.821
 3556SOL     OW12564   0.886  13.023   6.736
 3556SOL    HW112565   0.882  12.933   6.767
 3556SOL    HW212566   0.928  13.017   6.650
 3557SOL     OW12567   9.091   1.482  12.113
 3557SOL    HW112568   9.082   1.490  12.207
 3557SOL    HW212569   9.024   1.540  12.077
 3558SOL     OW12570  10.218  12.524   1.947
 3558SOL    HW112571  10.165  12.516   1.867
 3558SOL    HW212572  10.302  12.558   1.917
 3559SOL     OW12573  12.331   9.429  14.054
 3559SOL    HW112574  12.333   9.335  14.036
 3559SOL    HW212575  12.238   9.451  14.050
 3560SOL     OW12576  14.757  13.883  10.718
 3560SOL    HW112577  14.776  13.856  10.628
 3560SOL    HW212578  14.794  13.971  10.726
 3561SOL     OW12579   9.154   4.159  12.264
 3561SOL    HW112580   9.065   4.124  12.253
 3561SOL    HW212581   9.183   4.122  12.347
 3562SOL     OW12582   9.182   3.927   2.885
 3562SOL    HW112583   9.157   3.917   2.793
 3562SOL    HW212584   9.121   3.870   2.932
 3563SOL     OW12585   8.486   0.383  14.041
 3563SOL    HW112586   8.413   0.335  14.002
 3563SOL    HW212587   8.464   0.389  14.134
 3564SOL     OW12588   3.953  14.017  10.470
 3564SOL    HW112589   3.888  13.963  10.425
 3564SOL    HW212590   3.901  14.086  10.512
 3565SOL     OW12591   9.280  11.874   0.955
 3565SOL    HW112592   9.365  11.845   0.923
 3565SOL    HW212593   9.280  11.850   1.048
 3566SOL     OW12594   2.395   1.220  10.547
 3566SOL    HW112595   2.450   1.142  10.557
 3566SOL    HW212596   2.435   1.285  10.604
 3567SOL     OW12597   1.192   3.337   4.574
 3567SOL    HW112598   1.188   3.425   4.610
 3567SOL    HW212599   1.172   3.279   4.647
 3568SOL     OW12600  12.695  10.002   5.980
 3568SOL    HW112601  12.624  10.026   6.040
 3568SOL    HW212602  12.654  10.000   5.894
 3569SOL     OW12603   0.908   0.772   2.281
 3569SOL    HW112604   0.832   0.787   2.337
 3569SOL    HW212605   0.962   0.849   2.292
 3570SOL     OW12606   5.066  10.738   4.481
 3570SOL    HW112607   4.971  10.735   4.475
 3570SOL    HW212608   5.083  10.780   4.566
 3571SOL     OW12609   7.278   4.745   2.332
 3571SOL    HW112610   7.361   4.790   2.349
 3571SOL    HW212611   7.216   4.816   2.318
 3572SOL     OW12612   8.877   8.769   9.386
 3572SOL    HW112613   8.917   8.835   9.443
 3572SOL    HW212614   8.864   8.814   9.302
 3573SOL     OW12615   8.296   0.931  11.510
 3573SOL    HW112616   8.269   1.017  11.543
 3573SOL    HW212617   8.283   0.936  11.416
 3574SOL     OW12618   0.302   4.836  13.465
 3574SOL    HW112619   0.361   4.912  13.466
 3574SOL    HW212620   0.231   4.860  13.524
 3575SOL     OW12621   1.678  11.215  13.897
 3575SOL    HW112622   1.685  11.204  13.992
 3575SOL    HW212623   1.739  11.286  13.876
 3576SOL     OW12624   6.971   1.856   4.106
 3576SOL    HW112625   7.039   1.810   4.157
 3576SOL    HW212626   6.919   1.786   4.068
 3577SOL     OW12627   3.010   4.034  12.519
 3577SOL    HW112628   3.059   4.060  12.597
 3577SOL    HW212629   2.930   4.087  12.522
 3578SOL     OW12630  12.090   0.305   9.438
 3578SOL    HW112631  12.165   0.335   9.387
 3578SOL    HW212632  12.017   0.306   9.376
 3579SOL     OW12633  14.695   7.486   3.566
 3579SOL    HW112634  14.664   7.456   3.481
 3579SOL    HW212635  14.624   7.542   3.599
 3580SOL     OW12636   7.324   7.363  14.335
 3580SOL    HW112637   7.310   7.445  14.381
 3580SOL    HW212638   7.405   7.377  14.286
 3581SOL     OW12639   7.793   6.094  11.030
 3581SOL    HW112640   7.775   6.010  11.073
 3581SOL    HW212641   7.772   6.078  10.938
 3582SOL     OW12642   1.444   7.776  10.803
 3582SOL    HW112643   1.534   7.751  10.782
 3582SOL    HW212644   1.408   7.807  10.720
 3583SOL     OW12645  14.417  13.353   1.291
 3583SOL    HW112646  14.392  13.336   1.382
 3583SOL    HW212647  14.341  13.396   1.252
 3584SOL     OW12648  11.620   6.735   8.888
 3584SOL    HW112649  11.557   6.676   8.928
 3584SOL    HW212650  11.570   6.781   8.820
 3585SOL     OW12651   4.147   8.885  13.957
 3585SOL    HW112652   4.234   8.915  13.932
 3585SOL    HW212653   4.159   8.844  14.043
 3586SOL     OW12654   9.529  14.716   1.796
 3586SOL    HW112655   9.604  14.703   1.854
 3586SOL    HW212656   9.455  14.732   1.855
 3587SOL     OW12657  11.566   3.836   1.873
 3587SOL    HW112658  11.487   3.855   1.923
 3587SOL    HW212659  11.535   3.821   1.784
 3588SOL     OW12660  13.858   8.020  10.956
 3588SOL    HW112661  13.777   8.072  10.960
 3588SOL    HW212662  13.873   8.007  10.862
 3589SOL     OW12663  12.148   3.745   1.655
 3589SOL    HW112664  12.236   3.708   1.651
 3589SOL    HW212665  12.161   3.839   1.641
 3590SOL     OW12666   8.580  11.959  10.315
 3590SOL    HW112667   8.621  11.890  10.263
 3590SOL    HW212668   8.553  12.025  10.250
 3591SOL     OW12669   1.786   6.655  10.533
 3591SOL    HW112670   1.859   6.611  10.490
 3591SOL    HW212671   1.708   6.609  10.499
 3592SOL     OW12672  14.780  13.894   9.438
 3592SOL    HW112673  14.870  13.900   9.408
 3592SOL    HW212674  14.728  13.933   9.367
 3593SOL     OW12675   7.960   7.228   2.536
 3593SOL    HW112676   8.052   7.254   2.537
 3593SOL    HW212677   7.934   7.227   2.629
 3594SOL     OW12678   6.070   1.313  13.085
 3594SOL    HW112679   6.130   1.302  13.158
 3594SOL    HW212680   6.102   1.252  13.018
 3595SOL     OW12681   3.504   0.582  11.774
 3595SOL    HW112682   3.536   0.627  11.696
 3595SOL    HW212683   3.550   0.624  11.847
 3596SOL     OW12684   0.370  11.877  12.181
 3596SOL    HW112685   0.451  11.828  12.164
 3596SOL    HW212686   0.347  11.854  12.271
 3597SOL     OW12687  10.115   3.418  11.055
 3597SOL    HW112688  10.210   3.421  11.054
 3597SOL    HW212689  10.091   3.385  10.968
 3598SOL     OW12690  11.764   1.290  12.805
 3598SOL    HW112691  11.775   1.309  12.898
 3598SOL    HW212692  11.683   1.335  12.781
 3599SOL     OW12693   3.031   6.515   8.631
 3599SOL    HW112694   3.012   6.464   8.553
 3599SOL    HW212695   2.949   6.512   8.681
 3600SOL     OW12696   1.917  11.923   9.261
 3600SOL    HW112697   1.828  11.902   9.292
 3600SOL    HW212698   1.906  12.003   9.211
 3601SOL     OW12699   5.913   8.332   8.160
 3601SOL    HW112700   5.872   8.266   8.217
 3601SOL    HW212701   5.949   8.281   8.087
 3602SOL     OW12702   8.557   1.448   1.852
 3602SOL    HW112703   8.612   1.375   1.881
 3602SOL    HW212704   8.515   1.415   1.772
 3603SOL     OW12705   6.910   3.322   2.608
 3603SOL    HW112706   6.967   3.271   2.550
 3603SOL    HW212707   6.824   3.283   2.596
 3604SOL     OW12708   3.904  10.366   0.948
 3604SOL    HW112709   3.915  10.274   0.923
 3604SOL    HW212710   3.811  10.383   0.938
 3605SOL     OW12711   6.018  10.920  12.356
 3605SOL    HW112712   6.047  10.986  12.418
 3605SOL    HW212713   5.996  10.969  12.277
 3606SOL     OW12714   3.183   2.423   3.699
 3606SOL    HW112715   3.156   2.331   3.699
 3606SOL    HW212716   3.190   2.445   3.606
 3607SOL     OW12717   6.152   8.990   4.331
 3607SOL    HW112718   6.166   8.983   4.236
 3607SOL    HW212719   6.207   8.921   4.368
 3608SOL     OW12720   5.468   8.086   0.277
 3608SOL    HW112721   5.513   8.033   0.343
 3608SOL    HW212722   5.405   8.027   0.237
 3609SOL     OW12723   5.738  12.133  10.378
 3609SOL    HW112724   5.717  12.215  10.422
 3609SOL    HW212725   5.824  12.148  10.339
 3610SOL     OW12726  12.631   7.265   4.350
 3610SOL    HW112727  12.721   7.234   4.346
 3610SOL    HW212728  12.590   7.211   4.418
 3611SOL     OW12729   2.699   2.872   8.014
 3611SOL    HW112730   2.621   2.895   7.963
 3611SOL    HW212731   2.725   2.787   7.980
 3612SOL     OW12732   3.945   5.058   6.822
 3612SOL    HW112733   4.025   5.029   6.778
 3612SOL    HW212734   3.874   5.029   6.765
 3613SOL     OW12735  11.489   8.761   8.982
 3613SOL    HW112736  11.575   8.744   8.943
 3613SOL    HW212737  11.429   8.706   8.932
 3614SOL     OW12738   9.570  14.751  14.853
 3614SOL    HW112739   9.581  14.841  14.884
 3614SOL    HW212740   9.477  14.743  14.836
 3615SOL     OW12741   3.020   3.058   5.945
 3615SOL    HW112742   3.057   2.977   5.978
 3615SOL    HW212743   3.094   3.118   5.940
 3616SOL     OW12744   0.399   0.642  10.985
 3616SOL    HW112745   0.317   0.682  11.014
 3616SOL    HW212746   0.461   0.714  10.980
 3617SOL     OW12747   7.914   0.209   1.496
 3617SOL    HW112748   7.903   0.239   1.406
 3617SOL    HW212749   7.843   0.147   1.510
 3618SOL     OW12750  10.413  10.709   9.658
 3618SOL    HW112751  10.372  10.760   9.727
 3618SOL    HW212752  10.491  10.672   9.698
 3619SOL     OW12753   0.420  13.898   5.832
 3619SOL    HW112754   0.408  13.828   5.768
 3619SOL    HW212755   0.434  13.977   5.778
 3620SOL     OW12756   1.820   8.184  12.757
 3620SOL    HW112757   1.847   8.231  12.837
 3620SOL    HW212758   1.896   8.129  12.735
 3621SOL     OW12759  13.350   3.378   1.626
 3621SOL    HW112760  13.419   3.443   1.638
 3621SOL    HW212761  13.373   3.306   1.683
 3622SOL     OW12762   2.650  14.285   3.628
 3622SOL    HW112763   2.564  14.275   3.587
 3622SOL    HW212764   2.695  14.202   3.609
 3623SOL     OW12765   5.223   4.537   4.091
 3623SOL    HW112766   5.255   4.564   4.004
 3623SOL    HW212767   5.277   4.588   4.152
 3624SOL     OW12768   4.495   5.172  13.160
 3624SOL    HW112769   4.582   5.205  13.183
 3624SOL    HW212770   4.461   5.135  13.241
 3625SOL     OW12771   7.237   8.298   8.141
 3625SOL    HW112772   7.330   8.278   8.125
 3625SOL    HW212773   7.222   8.380   8.094
 3626SOL     OW12774  12.005   3.267   9.540
 3626SOL    HW112775  12.066   3.283   9.613
 3626SOL    HW212776  12.048   3.198   9.489
 3627SOL     OW12777   7.505  13.620   5.823
 3627SOL    HW112778   7.575  13.567   5.786
 3627SOL    HW212779   7.455  13.651   5.747
 3628SOL     OW12780   5.672  11.445   4.477
 3628SOL    HW112781   5.736  11.481   4.416
 3628SOL    HW212782   5.669  11.508   4.549
 3629SOL     OW12783   2.617   7.926   9.012
 3629SOL    HW112784   2.589   8.005   9.058
 3629SOL    HW212785   2.601   7.946   8.920
 3630SOL     OW12786  14.775   1.789   7.859
 3630SOL    HW112787  14.835   1.715   7.868
 3630SOL    HW212788  14.739   1.801   7.947
 3631SOL     OW12789  13.779   9.076  13.319
 3631SOL    HW112790  13.748   9.014  13.252
 3631SOL    HW212791  13.701   9.097  13.370
 3632SOL     OW12792   3.164  11.109  12.835
 3632SOL    HW112793   3.218  11.030  12.840
 3632SOL    HW212794   3.154  11.137  12.926
 3633SOL     OW12795  10.594   9.626   7.190
 3633SOL    HW112796  10.611   9.572   7.113
 3633SOL    HW212797  10.669   9.610   7.247
 3634SOL     OW12798  11.056  14.283   8.503
 3634SOL    HW112799  11.077  14.296   8.410
 3634SOL    HW212800  11.011  14.199   8.506
 3635SOL     OW12801   2.063   6.533  14.511
 3635SOL    HW112802   2.099   6.613  14.549
 3635SOL    HW212803   2.090   6.464  14.572
 3636SOL     OW12804   1.714  12.991   2.245
 3636SOL    HW112805   1.670  13.004   2.329
 3636SOL    HW212806   1.763  13.071   2.230
 3637SOL     OW12807  10.796   0.260  12.957
 3637SOL    HW112808  10.883   0.266  12.918
 3637SOL    HW212809  10.811   0.271  13.051
 3638SOL     OW12810   6.485   8.963  12.122
 3638SOL    HW112811   6.419   8.904  12.087
 3638SOL    HW212812   6.555   8.905  12.153
 3639SOL     OW12813  13.197   3.697   0.564
 3639SOL    HW112814  13.112   3.714   0.603
 3639SOL    HW212815  13.250   3.773   0.588
 3640SOL     OW12816   6.611   4.276  12.033
 3640SOL    HW112817   6.559   4.196  12.024
 3640SOL    HW212818   6.547   4.345  12.053
 3641SOL     OW12819  13.447   7.955   2.336
 3641SOL    HW112820  13.436   7.863   2.360
 3641SOL    HW212821  13.423   8.003   2.415
 3642SOL     OW12822   8.873  13.964  12.216
 3642SOL    HW112823   8.844  13.875  12.195
 3642SOL    HW212824   8.913  13.996  12.134
 3643SOL     OW12825   6.876  12.443   7.299
 3643SOL    HW112826   6.844  12.368   7.349
 3643SOL    HW212827   6.812  12.512   7.316
 3644SOL     OW12828  10.539   9.469   5.984
 3644SOL    HW112829  10.475   9.455   5.915
 3644SOL    HW212830  10.492   9.449   6.065
 3645SOL     OW12831   1.814   5.286   2.782
 3645SOL    HW112832   1.852   5.373   2.792
 3645SOL    HW212833   1.734   5.300   2.732
 3646SOL     OW12834   0.400  11.426  10.628
 3646SOL    HW112835   0.351  11.344  10.623
 3646SOL    HW212836   0.430  11.431  10.718
 3647SOL     OW12837   4.071   9.885   6.630
 3647SOL    HW112838   4.067   9.935   6.549
 3647SOL    HW212839   3.979   9.870   6.654
 3648SOL     OW12840  10.438  11.612   5.284
 3648SOL    HW112841  10.344  11.596   5.277
 3648SOL    HW212842  10.449  11.704   5.263
 3649SOL     OW12843   0.009   0.270  11.873
 3649SOL    HW112844  14.811   0.228  11.867
 3649SOL    HW212845  14.884   0.357  11.834
 3650SOL     OW12846   9.014  10.320  12.181
 3650SOL    HW112847   8.922  10.295  12.189
 3650SOL    HW212848   9.019  10.407  12.220
 3651SOL     OW12849   8.144   9.896   6.227
 3651SOL    HW112850   8.126   9.912   6.134
 3651SOL    HW212851   8.060   9.868   6.263
 3652SOL     OW12852   9.193  14.349  12.331
 3652SOL    HW112853   9.172  14.392  12.249
 3652SOL    HW212854   9.124  14.376  12.391
 3653SOL     OW12855   9.450   8.595   4.919
 3653SOL    HW112856   9.489   8.643   4.846
 3653SOL    HW212857   9.460   8.654   4.994
 3654SOL     OW12858  13.876  11.732   4.312
 3654SOL    HW112859  13.917  11.650   4.283
 3654SOL    HW212860  13.934  11.765   4.380
 3655SOL     OW12861   3.958   7.033   6.131
 3655SOL    HW112862   4.028   7.090   6.161
 3655SOL    HW212863   3.888   7.093   6.104
 3656SOL     OW12864   0.392   3.920  14.240
 3656SOL    HW112865   0.439   3.873  14.309
 3656SOL    HW212866   0.316   3.958  14.285
 3657SOL     OW12867   1.607   3.505   7.414
 3657SOL    HW112868   1.580   3.437   7.475
 3657SOL    HW212869   1.534   3.512   7.352
 3658SOL     OW12870   8.847  12.336  11.580
 3658SOL    HW112871   8.797  12.335  11.499
 3658SOL    HW212872   8.927  12.287  11.559
 3659SOL     OW12873  13.908  13.600   6.168
 3659SOL    HW112874  13.943  13.517   6.134
 3659SOL    HW212875  13.849  13.631   6.100
 3660SOL     OW12876   3.863  12.507  14.331
 3660SOL    HW112877   3.920  12.485  14.257
 3660SOL    HW212878   3.775  12.482  14.303
 3661SOL     OW12879  13.731  10.016   1.757
 3661SOL    HW112880  13.649  10.034   1.804
 3661SOL    HW212881  13.797  10.008   1.825
 3662SOL     OW12882   0.678  13.334   8.937
 3662SOL    HW112883   0.773  13.337   8.926
 3662SOL    HW212884   0.650  13.255   8.891
 3663SOL     OW12885  11.830   3.006   7.838
 3663SOL    HW112886  11.895   3.033   7.903
 3663SOL    HW212887  11.835   3.074   7.770
 3664SOL     OW12888  11.110   1.614   9.476
 3664SOL    HW112889  11.068   1.699   9.459
 3664SOL    HW212890  11.196   1.637   9.510
 3665SOL     OW12891   0.719   8.231  14.122
 3665SOL    HW112892   0.799   8.225  14.069
 3665SOL    HW212893   0.648   8.226  14.058
 3666SOL     OW12894   9.073   8.028   0.212
 3666SOL    HW112895   9.149   8.060   0.259
 3666SOL    HW212896   8.998   8.064   0.260
 3667SOL     OW12897   0.541  13.239   0.911
 3667SOL    HW112898   0.489  13.160   0.927
 3667SOL    HW212899   0.483  13.295   0.859
 3668SOL     OW12900   0.593   5.299   3.778
 3668SOL    HW112901   0.547   5.380   3.801
 3668SOL    HW212902   0.619   5.311   3.687
 3669SOL     OW12903  10.898  11.977   5.186
 3669SOL    HW112904  10.883  12.070   5.170
 3669SOL    HW212905  10.960  11.951   5.118
 3670SOL     OW12906  14.546  10.578   9.888
 3670SOL    HW112907  14.600  10.512   9.845
 3670SOL    HW212908  14.457  10.543   9.883
 3671SOL     OW12909   8.586   2.391   9.605
 3671SOL    HW112910   8.681   2.403   9.600
 3671SOL    HW212911   8.564   2.415   9.695
 3672SOL     OW12912   2.068  10.527   7.130
 3672SOL    HW112913   2.067  10.437   7.162
 3672SOL    HW212914   2.105  10.522   7.042
 3673SOL     OW12915   3.300  10.925   8.021
 3673SOL    HW112916   3.349  10.888   8.094
 3673SOL    HW212917   3.232  10.979   8.061
 3674SOL     OW12918   7.473   6.284   7.974
 3674SOL    HW112919   7.378   6.273   7.966
 3674SOL    HW212920   7.484   6.358   8.034
 3675SOL     OW12921   2.997   7.634   1.333
 3675SOL    HW112922   2.972   7.667   1.247
 3675SOL    HW212923   3.026   7.544   1.317
 3676SOL     OW12924   3.412   6.458   9.369
 3676SOL    HW112925   3.433   6.548   9.343
 3676SOL    HW212926   3.492   6.409   9.350
 3677SOL     OW12927   2.251  12.960   6.650
 3677SOL    HW112928   2.303  12.969   6.570
 3677SOL    HW212929   2.289  12.885   6.696
 3678SOL     OW12930   8.918   9.247  12.981
 3678SOL    HW112931   8.895   9.217  13.068
 3678SOL    HW212932   8.959   9.333  12.994
 3679SOL     OW12933   3.161   0.148   7.192
 3679SOL    HW112934   3.087   0.208   7.187
 3679SOL    HW212935   3.148   0.101   7.274
 3680SOL     OW12936   7.265  12.216   5.413
 3680SOL    HW112937   7.271  12.219   5.318
 3680SOL    HW212938   7.212  12.138   5.431
 3681SOL     OW12939   0.146   4.724   9.036
 3681SOL    HW112940   0.078   4.683   8.982
 3681SOL    HW212941   0.171   4.655   9.098
 3682SOL     OW12942  10.095   0.395   5.512
 3682SOL    HW112943  10.092   0.301   5.493
 3682SOL    HW212944  10.147   0.402   5.592
 3683SOL     OW12945  10.827   6.336   4.186
 3683SOL    HW112946  10.869   6.421   4.169
 3683SOL    HW212947  10.749   6.337   4.130
 3684SOL     OW12948  11.344   1.875  11.520
 3684SOL    HW112949  11.306   1.962  11.533
 3684SOL    HW212950  11.292   1.818  11.576
 3685SOL     OW12951  10.337   3.131   4.624
 3685SOL    HW112952  10.284   3.202   4.586
 3685SOL    HW212953  10.372   3.084   4.549
 3686SOL     OW12954   7.384   7.995  13.530
 3686SOL    HW112955   7.360   7.953  13.613
 3686SOL    HW212956   7.321   8.066  13.521
 3687SOL     OW12957  12.221   6.892   4.576
 3687SOL    HW112958  12.170   6.848   4.643
 3687SOL    HW212959  12.307   6.906   4.616
 3688SOL     OW12960   7.639   2.050   4.236
 3688SOL    HW112961   7.661   2.101   4.158
 3688SOL    HW212962   7.686   2.093   4.307
 3689SOL     OW12963  10.790   1.756  12.885
 3689SOL    HW112964  10.810   1.666  12.860
 3689SOL    HW212965  10.874   1.802  12.879
 3690SOL     OW12966  14.874   6.944  14.103
 3690SOL    HW112967   0.078   6.939  14.131
 3690SOL    HW212968  14.847   6.853  14.093
 3691SOL     OW12969   0.544   2.153  12.310
 3691SOL    HW112970   0.496   2.236  12.308
 3691SOL    HW212971   0.594   2.152  12.228
 3692SOL     OW12972   6.528   8.315  12.745
 3692SOL    HW112973   6.589   8.372  12.791
 3692SOL    HW212974   6.470   8.375  12.697
 3693SOL     OW12975   1.755   9.982   8.319
 3693SOL    HW112976   1.700   9.905   8.312
 3693SOL    HW212977   1.698  10.049   8.357
 3694SOL     OW12978   4.748   5.612   3.724
 3694SOL    HW112979   4.663   5.616   3.768
 3694SOL    HW212980   4.804   5.672   3.773
 3695SOL     OW12981   2.862   8.433   2.636
 3695SOL    HW112982   2.931   8.400   2.693
 3695SOL    HW212983   2.783   8.432   2.690
 3696SOL     OW12984   8.002  14.666   7.901
 3696SOL    HW112985   7.996  14.587   7.847
 3696SOL    HW212986   7.912  14.684   7.928
 3697SOL     OW12987   9.223  13.331  10.205
 3697SOL    HW112988   9.276  13.410  10.217
 3697SOL    HW212989   9.139  13.363  10.172
 3698SOL     OW12990   7.660   0.986   7.006
 3698SOL    HW112991   7.639   0.894   6.993
 3698SOL    HW212992   7.709   1.012   6.928
 3699SOL     OW12993   6.887  11.347   3.947
 3699SOL    HW112994   6.895  11.415   3.880
 3699SOL    HW212995   6.797  11.317   3.939
 3700SOL     OW12996   7.195   5.523   8.823
 3700SOL    HW112997   7.217   5.452   8.762
 3700SOL    HW212998   7.156   5.478   8.898
 3701SOL     OW12999  10.656   6.078  11.382
 3701SOL    HW113000  10.688   6.168  11.390
 3701SOL    HW213001  10.652   6.062  11.288
 3702SOL     OW13002   9.848  13.848   8.964
 3702SOL    HW113003   9.915  13.866   8.899
 3702SOL    HW213004   9.849  13.924   9.022
 3703SOL     OW13005   1.501   5.045  14.195
 3703SOL    HW113006   1.542   4.975  14.144
 3703SOL    HW213007   1.495   5.118  14.133
 3704SOL     OW13008   7.063   4.290  13.193
 3704SOL    HW113009   7.023   4.367  13.234
 3704SOL    HW213010   7.000   4.219  13.209
 3705SOL     OW13011   8.973  13.667   9.577
 3705SOL    HW113012   9.026  13.588   9.583
 3705SOL    HW213013   8.886  13.639   9.604
 3706SOL     OW13014   2.508   3.453   4.818
 3706SOL    HW113015   2.549   3.367   4.828
 3706SOL    HW213016   2.494   3.462   4.723
 3707SOL     OW13017  14.303  10.076   0.479
 3707SOL    HW113018  14.328   9.993   0.520
 3707SOL    HW213019  14.385  10.109   0.441
 3708SOL     OW13020  13.845  14.290  14.647
 3708SOL    HW113021  13.856  14.282  14.552
 3708SOL    HW213022  13.934  14.300  14.681
 3709SOL     OW13023   5.910  11.151   9.829
 3709SOL    HW113024   5.984  11.142   9.768
 3709SOL    HW213025   5.865  11.067   9.824
 3710SOL     OW13026  11.866   7.303   4.867
 3710SOL    HW113027  11.842   7.380   4.816
 3710SOL    HW213028  11.819   7.231   4.827
 3711SOL     OW13029   7.863   8.994  11.414
 3711SOL    HW113030   7.780   9.015  11.370
 3711SOL    HW213031   7.850   8.905  11.447
 3712SOL     OW13032  13.219  11.710  11.898
 3712SOL    HW113033  13.226  11.703  11.993
 3712SOL    HW213034  13.131  11.747  11.883
 3713SOL     OW13035   2.138  14.393   7.598
 3713SOL    HW113036   2.211  14.443   7.634
 3713SOL    HW213037   2.165  14.375   7.508
 3714SOL     OW13038   3.451   3.958  10.932
 3714SOL    HW113039   3.466   4.052  10.936
 3714SOL    HW213040   3.356   3.949  10.933
 3715SOL     OW13041   4.341   6.167  10.052
 3715SOL    HW113042   4.367   6.192   9.963
 3715SOL    HW213043   4.345   6.072  10.053
 3716SOL     OW13044  13.391  12.175   1.387
 3716SOL    HW113045  13.426  12.088   1.367
 3716SOL    HW213046  13.414  12.190   1.479
 3717SOL     OW13047   8.292   6.114  11.149
 3717SOL    HW113048   8.217   6.130  11.092
 3717SOL    HW213049   8.368   6.141  11.098
 3718SOL     OW13050   4.009  14.399  13.810
 3718SOL    HW113051   4.015  14.322  13.753
 3718SOL    HW213052   4.072  14.381  13.880
 3719SOL     OW13053  13.790   8.511   1.890
 3719SOL    HW113054  13.753   8.595   1.861
 3719SOL    HW213055  13.718   8.466   1.934
 3720SOL     OW13056  13.280  13.617   5.480
 3720SOL    HW113057  13.279  13.635   5.574
 3720SOL    HW213058  13.190  13.591   5.460
 3721SOL     OW13059   5.462  11.688   6.765
 3721SOL    HW113060   5.546  11.727   6.787
 3721SOL    HW213061   5.407  11.705   6.842
 3722SOL     OW13062   9.742   6.612  11.307
 3722SOL    HW113063   9.702   6.624  11.393
 3722SOL    HW213064   9.774   6.522  11.307
 3723SOL     OW13065  10.480   0.327   6.738
 3723SOL    HW113066  10.465   0.233   6.740
 3723SOL    HW213067  10.410   0.363   6.793
 3724SOL     OW13068   8.241  11.238   6.644
 3724SOL    HW113069   8.329  11.255   6.611
 3724SOL    HW213070   8.232  11.142   6.640
 3725SOL     OW13071   8.982  13.430   4.506
 3725SOL    HW113072   9.003  13.511   4.552
 3725SOL    HW213073   8.933  13.378   4.570
 3726SOL     OW13074   4.245  13.568   7.361
 3726SOL    HW113075   4.167  13.623   7.366
 3726SOL    HW213076   4.254  13.549   7.268
 3727SOL     OW13077   0.153   6.504  11.244
 3727SOL    HW113078   0.210   6.523  11.318
 3727SOL    HW213079   0.125   6.590  11.213
 3728SOL     OW13080  14.823   9.202   1.184
 3728SOL    HW113081  14.737   9.190   1.224
 3728SOL    HW213082  14.840   9.119   1.139
 3729SOL     OW13083  12.681   5.768   0.672
 3729SOL    HW113084  12.746   5.812   0.617
 3729SOL    HW213085  12.731   5.733   0.746
 3730SOL     OW13086   2.365  13.924  10.897
 3730SOL    HW113087   2.365  13.866  10.973
 3730SOL    HW213088   2.400  13.871  10.826
 3731SOL     OW13089   2.445   7.404   7.923
 3731SOL    HW113090   2.414   7.326   7.876
 3731SOL    HW213091   2.366   7.457   7.935
 3732SOL     OW13092  13.631  13.473  14.203
 3732SOL    HW113093  13.697  13.416  14.243
 3732SOL    HW213094  13.631  13.448  14.111
 3733SOL     OW13095   2.736  13.838   7.887
 3733SOL    HW113096   2.649  13.798   7.885
 3733SOL    HW213097   2.795  13.766   7.912
 3734SOL     OW13098   9.808   3.531   7.523
 3734SOL    HW113099   9.826   3.621   7.495
 3734SOL    HW213100   9.779   3.541   7.614
 3735SOL     OW13101   3.636  13.818  12.321
 3735SOL    HW113102   3.555  13.844  12.277
 3735SOL    HW213103   3.611  13.740  12.371
 3736SOL     OW13104  14.295   4.148  10.614
 3736SOL    HW113105  14.348   4.074  10.583
 3736SOL    HW213106  14.307   4.149  10.709
 3737SOL     OW13107  14.783  11.844   4.249
 3737SOL    HW113108  14.842  11.917   4.266
 3737SOL    HW213109  14.822  11.798   4.175
 3738SOL     OW13110   0.740   1.797  11.944
 3738SOL    HW113111   0.783   1.771  12.026
 3738SOL    HW213112   0.761   1.726  11.883
 3739SOL     OW13113   9.668   2.120   1.529
 3739SOL    HW113114   9.622   2.052   1.480
 3739SOL    HW213115   9.747   2.077   1.561
 3740SOL     OW13116  10.708  11.646   0.738
 3740SOL    HW113117  10.775  11.713   0.725
 3740SOL    HW213118  10.638  11.692   0.784
 3741SOL     OW13119  12.906   3.891   7.575
 3741SOL    HW113120  12.859   3.871   7.656
 3741SOL    HW213121  12.901   3.811   7.523
 3742SOL     OW13122  10.250   7.064   8.178
 3742SOL    HW113123  10.331   7.028   8.215
 3742SOL    HW213124  10.274   7.088   8.088
 3743SOL     OW13125   2.103  11.572   8.358
 3743SOL    HW113126   2.151  11.497   8.393
 3743SOL    HW213127   2.112  11.640   8.426
 3744SOL     OW13128  13.096   5.652  12.323
 3744SOL    HW113129  13.036   5.645  12.250
 3744SOL    HW213130  13.053   5.713  12.384
 3745SOL     OW13131   6.416  12.432  10.106
 3745SOL    HW113132   6.347  12.378  10.067
 3745SOL    HW213133   6.374  12.517  10.121
 3746SOL     OW13134   3.567  12.000  13.205
 3746SOL    HW113135   3.566  11.944  13.283
 3746SOL    HW213136   3.537  11.942  13.134
 3747SOL     OW13137  11.843  11.830   7.024
 3747SOL    HW113138  11.785  11.797   7.092
 3747SOL    HW213139  11.919  11.865   7.071
 3748SOL     OW13140  10.862  11.915   3.372
 3748SOL    HW113141  10.817  11.973   3.434
 3748SOL    HW213142  10.800  11.905   3.300
 3749SOL     OW13143   0.117   7.690   0.149
 3749SOL    HW113144   0.107   7.628   0.077
 3749SOL    HW213145   0.027   7.704   0.181
 3750SOL     OW13146   7.488   0.462  11.544
 3750SOL    HW113147   7.512   0.547  11.582
 3750SOL    HW213148   7.449   0.484  11.459
 3751SOL     OW13149  14.086   0.581   3.759
 3751SOL    HW113150  14.180   0.601   3.760
 3751SOL    HW213151  14.044   0.662   3.787
 3752SOL     OW13152   8.265   3.201  12.643
 3752SOL    HW113153   8.280   3.291  12.670
 3752SOL    HW213154   8.346   3.155  12.667
 3753SOL     OW13155   0.238   5.850   3.687
 3753SOL    HW113156   0.245   5.889   3.600
 3753SOL    HW213157   0.146   5.857   3.710
 3754SOL     OW13158   2.355   7.602   4.080
 3754SOL    HW113159   2.312   7.646   4.154
 3754SOL    HW213160   2.443   7.640   4.078
 3755SOL     OW13161  11.009   0.358   0.839
 3755SOL    HW113162  11.057   0.409   0.773
 3755SOL    HW213163  11.036   0.268   0.823
 3756SOL     OW13164   1.604   8.489   1.164
 3756SOL    HW113165   1.683   8.542   1.177
 3756SOL    HW213166   1.632   8.419   1.105
 3757SOL     OW13167  10.742   5.894   0.983
 3757SOL    HW113168  10.783   5.892   1.070
 3757SOL    HW213169  10.652   5.922   1.000
 3758SOL     OW13170   6.929   5.420   5.516
 3758SOL    HW113171   6.902   5.417   5.424
 3758SOL    HW213172   7.017   5.458   5.515
 3759SOL     OW13173   1.602   8.782   8.609
 3759SOL    HW113174   1.585   8.698   8.566
 3759SOL    HW213175   1.683   8.814   8.569
 3760SOL     OW13176   2.679  12.902   3.685
 3760SOL    HW113177   2.740  12.946   3.743
 3760SOL    HW213178   2.697  12.809   3.696
 3761SOL     OW13179  12.306   2.926   1.080
 3761SOL    HW113180  12.259   2.984   1.020
 3761SOL    HW213181  12.352   2.864   1.023
 3762SOL     OW13182   1.482  11.301   5.945
 3762SOL    HW113183   1.433  11.275   6.023
 3762SOL    HW213184   1.504  11.219   5.901
 3763SOL     OW13185   8.058   0.524   8.694
 3763SOL    HW113186   8.031   0.584   8.624
 3763SOL    HW213187   8.028   0.565   8.775
 3764SOL     OW13188  13.720  14.500  13.139
 3764SOL    HW113189  13.731  14.458  13.224
 3764SOL    HW213190  13.637  14.465  13.106
 3765SOL     OW13191   3.705  10.806   5.151
 3765SOL    HW113192   3.625  10.764   5.184
 3765SOL    HW213193   3.744  10.741   5.093
 3766SOL     OW13194  11.501  10.347  10.181
 3766SOL    HW113195  11.411  10.380  10.174
 3766SOL    HW213196  11.491  10.256  10.209
 3767SOL     OW13197   4.320   8.490  13.033
 3767SOL    HW113198   4.298   8.575  13.072
 3767SOL    HW213199   4.370   8.446  13.101
 3768SOL     OW13200  12.800   1.846  14.675
 3768SOL    HW113201  12.800   1.754  14.651
 3768SOL    HW213202  12.760   1.891  14.600
 3769SOL     OW13203   5.988   9.523  14.121
 3769SOL    HW113204   6.046   9.543  14.047
 3769SOL    HW213205   6.014   9.585  14.189
 3770SOL     OW13206   1.786   0.156   0.914
 3770SOL    HW113207   1.739   0.166   0.997
 3770SOL    HW213208   1.792   0.061   0.901
 3771SOL     OW13209   5.889   1.850   9.949
 3771SOL    HW113210   5.887   1.897   9.865
 3771SOL    HW213211   5.817   1.787   9.942
 3772SOL     OW13212   1.274  12.141  11.547
 3772SOL    HW113213   1.358  12.177  11.520
 3772SOL    HW213214   1.291  12.048  11.563
 3773SOL     OW13215   1.443  11.210  10.501
 3773SOL    HW113216   1.429  11.143  10.568
 3773SOL    HW213217   1.537  11.206  10.482
 3774SOL     OW13218   8.065  13.347   3.422
 3774SOL    HW113219   7.985  13.295   3.424
 3774SOL    HW213220   8.096  13.347   3.512
 3775SOL     OW13221  12.740   0.559  11.208
 3775SOL    HW113222  12.835   0.556  11.196
 3775SOL    HW213223  12.726   0.525  11.297
 3776SOL     OW13224   2.258   2.040   3.692
 3776SOL    HW113225   2.262   1.958   3.643
 3776SOL    HW213226   2.260   2.013   3.784
 3777SOL     OW13227   2.258   1.756   6.673
 3777SOL    HW113228   2.254   1.829   6.735
 3777SOL    HW213229   2.347   1.723   6.680
 3778SOL     OW13230   6.741   3.184   8.672
 3778SOL    HW113231   6.692   3.235   8.737
 3778SOL    HW213232   6.720   3.093   8.694
 3779SOL     OW13233   7.759   0.179   0.991
 3779SOL    HW113234   7.767   0.088   0.962
 3779SOL    HW213235   7.675   0.208   0.956
 3780SOL     OW13236  14.393   8.691   7.782
 3780SOL    HW113237  14.365   8.741   7.859
 3780SOL    HW213238  14.370   8.747   7.707
 3781SOL     OW13239   7.141   6.572  12.193
 3781SOL    HW113240   7.178   6.615  12.116
 3781SOL    HW213241   7.191   6.490  12.201
 3782SOL     OW13242   4.478  10.950   4.430
 3782SOL    HW113243   4.522  11.006   4.366
 3782SOL    HW213244   4.458  11.008   4.503
 3783SOL     OW13245   3.550   5.883  12.634
 3783SOL    HW113246   3.495   5.904  12.559
 3783SOL    HW213247   3.535   5.789  12.649
 3784SOL     OW13248  13.758   0.687  13.200
 3784SOL    HW113249  13.848   0.675  13.231
 3784SOL    HW213250  13.752   0.780  13.181
 3785SOL     OW13251  10.815   4.133   0.903
 3785SOL    HW113252  10.835   4.223   0.878
 3785SOL    HW213253  10.729   4.116   0.866
 3786SOL     OW13254  13.297   7.083  14.260
 3786SOL    HW113255  13.297   7.080  14.355
 3786SOL    HW213256  13.389   7.068  14.235
 3787SOL     OW13257   3.759   4.100   9.872
 3787SOL    HW113258   3.709   4.166   9.824
 3787SOL    HW213259   3.851   4.120   9.852
 3788SOL     OW13260   1.545   4.116   2.088
 3788SOL    HW113261   1.521   4.108   1.995
 3788SOL    HW213262   1.561   4.026   2.116
 3789SOL     OW13263   6.781  10.755   1.977
 3789SOL    HW113264   6.704  10.784   2.026
 3789SOL    HW213265   6.835  10.834   1.969
 3790SOL     OW13266   3.643  12.539   3.361
 3790SOL    HW113267   3.583  12.542   3.436
 3790SOL    HW213268   3.586  12.538   3.284
 3791SOL     OW13269   5.801  14.777   7.390
 3791SOL    HW113270   5.720  14.822   7.370
 3791SOL    HW213271   5.816  14.792   7.483
 3792SOL     OW13272  13.965   4.902  14.434
 3792SOL    HW113273  14.021   4.980  14.431
 3792SOL    HW213274  13.962   4.878  14.527
 3793SOL     OW13275   0.662   2.557   7.547
 3793SOL    HW113276   0.591   2.531   7.488
 3793SOL    HW213277   0.619   2.568   7.632
 3794SOL     OW13278   0.235  14.531   7.073
 3794SOL    HW113279   0.256  14.469   7.004
 3794SOL    HW213280   0.270  14.615   7.043
 3795SOL     OW13281   5.244   9.357  13.744
 3795SOL    HW113282   5.328   9.320  13.717
 3795SOL    HW213283   5.246   9.357  13.839
 3796SOL     OW13284   8.919  10.004  11.692
 3796SOL    HW113285   8.975  10.016  11.769
 3796SOL    HW213286   8.956   9.928  11.648
 3797SOL     OW13287  13.430   3.756   3.270
 3797SOL    HW113288  13.356   3.722   3.321
 3797SOL    HW213289  13.449   3.687   3.206
 3798SOL     OW13290  12.357   7.598  14.231
 3798SOL    HW113291  12.426   7.577  14.294
 3798SOL    HW213292  12.399   7.588  14.145
 3799SOL     OW13293   5.619   6.696  12.890
 3799SOL    HW113294   5.547   6.636  12.869
 3799SOL    HW213295   5.577   6.774  12.926
 3800SOL     OW13296  12.523   9.152   9.900
 3800SOL    HW113297  12.428   9.164   9.899
 3800SOL    HW213298  12.547   9.136   9.809
 3801SOL     OW13299   9.544   0.873   2.934
 3801SOL    HW113300   9.483   0.946   2.932
 3801SOL    HW213301   9.544   0.839   2.844
 3802SOL     OW13302   7.325  13.085   7.278
 3802SOL    HW113303   7.344  13.037   7.198
 3802SOL    HW213304   7.316  13.176   7.250
 3803SOL     OW13305   4.747  13.633  11.191
 3803SOL    HW113306   4.823  13.619  11.248
 3803SOL    HW213307   4.765  13.579  11.114
 3804SOL     OW13308   9.866   2.799   3.129
 3804SOL    HW113309   9.930   2.870   3.131
 3804SOL    HW213310   9.812   2.813   3.207
 3805SOL     OW13311   5.589   1.828   1.238
 3805SOL    HW113312   5.649   1.902   1.235
 3805SOL    HW213313   5.543   1.831   1.155
 3806SOL     OW13314  10.155   1.200   7.486
 3806SOL    HW113315  10.164   1.237   7.573
 3806SOL    HW213316  10.139   1.107   7.501
 3807SOL     OW13317   3.925  12.383  12.974
 3807SOL    HW113318   3.908  12.289  12.982
 3807SOL    HW213319   3.839  12.424  12.981
 3808SOL     OW13320   4.738   8.926   9.531
 3808SOL    HW113321   4.690   8.844   9.516
 3808SOL    HW213322   4.674   8.994   9.511
 3809SOL     OW13323   0.937   2.299  13.716
 3809SOL    HW113324   1.031   2.302  13.695
 3809SOL    HW213325   0.922   2.378  13.767
 3810SOL     OW13326   8.168   1.933  10.070
 3810SOL    HW113327   8.237   1.992  10.040
 3810SOL    HW213328   8.188   1.849  10.028
 3811SOL     OW13329   6.661   9.471  13.453
 3811SOL    HW113330   6.756   9.457  13.450
 3811SOL    HW213331   6.643   9.524  13.375
 3812SOL     OW13332   1.852   0.790  14.494
 3812SOL    HW113333   1.854   0.777  14.588
 3812SOL    HW213334   1.765   0.828  14.476
 3813SOL     OW13335   8.489  10.557   6.639
 3813SOL    HW113336   8.450  10.510   6.713
 3813SOL    HW213337   8.556  10.499   6.605
 3814SOL     OW13338   0.536   8.882   5.269
 3814SOL    HW113339   0.585   8.939   5.210
 3814SOL    HW213340   0.444   8.905   5.254
 3815SOL     OW13341  14.367  11.015   6.174
 3815SOL    HW113342  14.364  10.937   6.118
 3815SOL    HW213343  14.309  11.078   6.131
 3816SOL     OW13344   2.144   5.230   8.840
 3816SOL    HW113345   2.125   5.263   8.928
 3816SOL    HW213346   2.067   5.179   8.816
 3817SOL     OW13347   3.192  11.382   0.955
 3817SOL    HW113348   3.218  11.304   1.004
 3817SOL    HW213349   3.153  11.349   0.874
 3818SOL     OW13350   3.697  11.959   0.328
 3818SOL    HW113351   3.740  12.037   0.293
 3818SOL    HW213352   3.634  11.934   0.261
 3819SOL     OW13353  10.511  13.719   0.049
 3819SOL    HW113354  10.457  13.719   0.129
 3819SOL    HW213355  10.600  13.737   0.081
 3820SOL     OW13356   9.367  10.600  11.864
 3820SOL    HW113357   9.398  10.580  11.952
 3820SOL    HW213358   9.271  10.591  11.870
 3821SOL     OW13359  10.184  14.798   1.502
 3821SOL    HW113360  10.260  14.849   1.474
 3821SOL    HW213361  10.194  14.789   1.597
 3822SOL     OW13362   3.328   1.457   6.668
 3822SOL    HW113363   3.367   1.373   6.691
 3822SOL    HW213364   3.287   1.442   6.583
 3823SOL     OW13365   8.448  13.385  11.046
 3823SOL    HW113366   8.392  13.375  10.969
 3823SOL    HW213367   8.536  13.360  11.016
 3824SOL     OW13368   4.739   2.566  13.864
 3824SOL    HW113369   4.690   2.646  13.882
 3824SOL    HW213370   4.725   2.511  13.942
 3825SOL     OW13371   7.080  14.328   5.929
 3825SOL    HW113372   7.034  14.365   5.854
 3825SOL    HW213373   7.167  14.307   5.896
 3826SOL     OW13374   2.190   5.822   8.601
 3826SOL    HW113375   2.141   5.759   8.655
 3826SOL    HW213376   2.276   5.782   8.591
 3827SOL     OW13377  10.190   4.397   8.924
 3827SOL    HW113378  10.141   4.453   8.985
 3827SOL    HW213379  10.128   4.327   8.902
 3828SOL     OW13380   2.114   5.825  10.869
 3828SOL    HW113381   2.100   5.731  10.878
 3828SOL    HW213382   2.036   5.856  10.821
 3829SOL     OW13383  13.969  14.579  12.157
 3829SOL    HW113384  13.945  14.489  12.138
 3829SOL    HW213385  13.954  14.589  12.251
 3830SOL     OW13386  12.369   5.327  12.818
 3830SOL    HW113387  12.440   5.283  12.864
 3830SOL    HW213388  12.316   5.256  12.783
 3831SOL     OW13389   7.629   0.297  10.925
 3831SOL    HW113390   7.673   0.382  10.913
 3831SOL    HW213391   7.565   0.313  10.994
 3832SOL     OW13392   7.066   6.584   0.327
 3832SOL    HW113393   7.096   6.497   0.351
 3832SOL    HW213394   7.129   6.643   0.368
 3833SOL     OW13395   6.327   2.775   9.134
 3833SOL    HW113396   6.334   2.853   9.078
 3833SOL    HW213397   6.258   2.795   9.196
 3834SOL     OW13398  11.210  11.075   9.676
 3834SOL    HW113399  11.187  11.091   9.767
 3834SOL    HW213400  11.295  11.032   9.680
 3835SOL     OW13401  14.038   1.980  11.788
 3835SOL    HW113402  14.033   1.886  11.772
 3835SOL    HW213403  14.059   1.988  11.881
 3836SOL     OW13404   6.361   1.982   7.229
 3836SOL    HW113405   6.444   1.962   7.185
 3836SOL    HW213406   6.295   1.979   7.159
 3837SOL     OW13407   7.825   0.570  11.251
 3837SOL    HW113408   7.916   0.544  11.237
 3837SOL    HW213409   7.796   0.516  11.325
 3838SOL     OW13410  11.308   7.808   2.211
 3838SOL    HW113411  11.281   7.831   2.122
 3838SOL    HW213412  11.401   7.784   2.203
 3839SOL     OW13413  12.058   2.681   8.211
 3839SOL    HW113414  12.112   2.602   8.211
 3839SOL    HW213415  12.096   2.736   8.143
 3840SOL     OW13416   6.449   0.473  12.102
 3840SOL    HW113417   6.521   0.525  12.138
 3840SOL    HW213418   6.435   0.508  12.014
 3841SOL     OW13419   6.790  11.101   7.081
 3841SOL    HW113420   6.765  11.193   7.084
 3841SOL    HW213421   6.869  11.099   7.028
 3842SOL     OW13422  13.171  11.809  13.657
 3842SOL    HW113423  13.129  11.872  13.716
 3842SOL    HW213424  13.110  11.801  13.583
 3843SOL     OW13425   1.902   4.300  11.028
 3843SOL    HW113426   1.900   4.289  10.933
 3843SOL    HW213427   1.883   4.393  11.042
 3844SOL     OW13428   0.190   4.790   1.708
 3844SOL    HW113429   0.205   4.856   1.641
 3844SOL    HW213430   0.275   4.747   1.721
 3845SOL     OW13431   0.082   7.813  13.003
 3845SOL    HW113432  14.874   7.810  12.988
 3845SOL    HW213433   0.098   7.744  13.067
 3846SOL     OW13434   7.444   0.967   9.419
 3846SOL    HW113435   7.503   1.017   9.362
 3846SOL    HW213436   7.413   1.031   9.484
 3847SOL     OW13437  11.576   8.814   4.869
 3847SOL    HW113438  11.556   8.789   4.959
 3847SOL    HW213439  11.549   8.739   4.816
 3848SOL     OW13440  13.210   5.305   7.905
 3848SOL    HW113441  13.268   5.318   7.830
 3848SOL    HW213442  13.153   5.233   7.879
 3849SOL     OW13443   9.657   8.153  14.419
 3849SOL    HW113444   9.725   8.126  14.480
 3849SOL    HW213445   9.704   8.180  14.340
 3850SOL     OW13446   4.573   4.432   3.413
 3850SOL    HW113447   4.530   4.353   3.445
 3850SOL    HW213448   4.504   4.499   3.414
 3851SOL     OW13449  14.203   0.250  14.459
 3851SOL    HW113450  14.108   0.258  14.464
 3851SOL    HW213451  14.218   0.185  14.390
 3852SOL     OW13452   7.795   3.362  10.617
 3852SOL    HW113453   7.770   3.282  10.570
 3852SOL    HW213454   7.864   3.335  10.677
 3853SOL     OW13455   7.167   5.610  12.700
 3853SOL    HW113456   7.249   5.599  12.747
 3853SOL    HW213457   7.113   5.536  12.729
 3854SOL     OW13458   4.863   1.011   6.489
 3854SOL    HW113459   4.798   0.958   6.535
 3854SOL    HW213460   4.811   1.064   6.428
 3855SOL     OW13461   3.855  14.211   2.996
 3855SOL    HW113462   3.863  14.190   3.090
 3855SOL    HW213463   3.927  14.271   2.979
 3856SOL     OW13464  13.684  12.057  14.697
 3856SOL    HW113465  13.764  12.015  14.665
 3856SOL    HW213466  13.659  12.117  14.627
 3857SOL     OW13467  11.833   0.039   1.313
 3857SOL    HW113468  11.855  14.873   1.389
 3857SOL    HW213469  11.779  14.870   1.258
 3858SOL     OW13470  13.089   7.906  14.769
 3858SOL    HW113471  13.006   7.880  14.809
 3858SOL    HW213472  13.098   7.850  14.692
 3859SOL     OW13473   8.090  14.053   5.300
 3859SOL    HW113474   8.083  14.016   5.388
 3859SOL    HW213475   8.156  14.122   5.307
 3860SOL     OW13476  10.406  13.396   0.332
 3860SOL    HW113477  10.368  13.317   0.293
 3860SOL    HW213478  10.337  13.461   0.325
 3861SOL     OW13479   4.391   3.655   7.928
 3861SOL    HW113480   4.436   3.579   7.965
 3861SOL    HW213481   4.361   3.705   8.004
 3862SOL     OW13482  14.085   6.829   8.559
 3862SOL    HW113483  14.096   6.855   8.650
 3862SOL    HW213484  14.020   6.891   8.524
 3863SOL     OW13485   6.125   1.224  13.388
 3863SOL    HW113486   6.038   1.223  13.428
 3863SOL    HW213487   6.146   1.132  13.371
 3864SOL     OW13488  14.480  13.247   5.212
 3864SOL    HW113489  14.559  13.289   5.247
 3864SOL    HW213490  14.484  13.158   5.246
 3865SOL     OW13491   7.431   4.522   2.440
 3865SOL    HW113492   7.447   4.428   2.427
 3865SOL    HW213493   7.422   4.557   2.351
 3866SOL     OW13494   7.501   0.254   7.917
 3866SOL    HW113495   7.533   0.327   7.864
 3866SOL    HW213496   7.449   0.295   7.986
 3867SOL     OW13497  13.266   0.230   4.863
 3867SOL    HW113498  13.199   0.215   4.796
 3867SOL    HW213499  13.254   0.321   4.889
 3868SOL     OW13500   6.560   2.095   1.715
 3868SOL    HW113501   6.609   2.124   1.637
 3868SOL    HW213502   6.628   2.060   1.773
 3869SOL     OW13503   5.758  10.094   4.922
 3869SOL    HW113504   5.697  10.085   4.848
 3869SOL    HW213505   5.794  10.006   4.934
 3870SOL     OW13506   7.511   0.470   9.477
 3870SOL    HW113507   7.595   0.511   9.496
 3870SOL    HW213508   7.514   0.386   9.523
 3871SOL     OW13509  14.540   0.942  12.499
 3871SOL    HW113510  14.608   0.918  12.562
 3871SOL    HW213511  14.582   1.009  12.444
 3872SOL     OW13512   6.601  12.394  12.019
 3872SOL    HW113513   6.542  12.449  12.070
 3872SOL    HW213514   6.688  12.421  12.046
 3873SOL     OW13515  10.142   2.595   5.447
 3873SOL    HW113516  10.067   2.599   5.388
 3873SOL    HW213517  10.189   2.677   5.433
 3874SOL     OW13518   0.581  12.066   5.438
 3874SOL    HW113519   0.597  12.119   5.360
 3874SOL    HW213520   0.505  12.107   5.479
 3875SOL     OW13521   0.936  11.253   9.722
 3875SOL    HW113522   0.891  11.172   9.746
 3875SOL    HW213523   0.872  11.302   9.670
 3876SOL     OW13524   4.334  13.973   4.434
 3876SOL    HW113525   4.283  14.009   4.507
 3876SOL    HW213526   4.422  14.006   4.448
 3877SOL     OW13527   2.959   0.437   3.028
 3877SOL    HW113528   2.932   0.358   3.077
 3877SOL    HW213529   2.962   0.506   3.095
 3878SOL     OW13530   1.610   3.000  11.916
 3878SOL    HW113531   1.598   2.991  12.011
 3878SOL    HW213532   1.690   2.951  11.898
 3879SOL     OW13533   3.269   6.800  11.296
 3879SOL    HW113534   3.293   6.890  11.274
 3879SOL    HW213535   3.182   6.806  11.334
 3880SOL     OW13536  11.670  10.655   8.577
 3880SOL    HW113537  11.731  10.592   8.538
 3880SOL    HW213538  11.710  10.740   8.561
 3881SOL     OW13539  10.206   4.486   5.180
 3881SOL    HW113540  10.181   4.563   5.231
 3881SOL    HW213541  10.218   4.520   5.091
 3882SOL     OW13542   5.645   9.503   9.389
 3882SOL    HW113543   5.588   9.427   9.385
 3882SOL    HW213544   5.610   9.556   9.461
 3883SOL     OW13545  13.060   2.696   2.812
 3883SOL    HW113546  13.105   2.641   2.748
 3883SOL    HW213547  13.108   2.681   2.894
 3884SOL     OW13548   3.010  10.597   4.764
 3884SOL    HW113549   2.921  10.564   4.752
 3884SOL    HW213550   3.045  10.604   4.675
 3885SOL     OW13551   6.437   8.610   0.711
 3885SOL    HW113552   6.380   8.545   0.669
 3885SOL    HW213553   6.397   8.694   0.688
 3886SOL     OW13554   4.184   9.095   6.819
 3886SOL    HW113555   4.132   9.173   6.801
 3886SOL    HW213556   4.211   9.105   6.911
 3887SOL     OW13557   7.924   6.515   6.165
 3887SOL    HW113558   7.938   6.597   6.213
 3887SOL    HW213559   7.973   6.526   6.083
 3888SOL     OW13560   3.077   7.741  11.306
 3888SOL    HW113561   3.052   7.695  11.225
 3888SOL    HW213562   3.126   7.817  11.277
 3889SOL     OW13563  10.256  14.400   1.809
 3889SOL    HW113564  10.326  14.347   1.770
 3889SOL    HW213565  10.179  14.381   1.755
 3890SOL     OW13566   2.151   3.551  11.635
 3890SOL    HW113567   2.061   3.562  11.606
 3890SOL    HW213568   2.199   3.527  11.556
 3891SOL     OW13569  14.686   6.678   3.093
 3891SOL    HW113570  14.727   6.611   3.038
 3891SOL    HW213571  14.681   6.755   3.036
 3892SOL     OW13572   8.251   1.361   4.568
 3892SOL    HW113573   8.187   1.340   4.636
 3892SOL    HW213574   8.284   1.276   4.539
 3893SOL     OW13575   1.110   7.870  11.366
 3893SOL    HW113576   1.047   7.810  11.325
 3893SOL    HW213577   1.088   7.956  11.330
 3894SOL     OW13578   0.353   1.280   5.732
 3894SOL    HW113579   0.388   1.341   5.667
 3894SOL    HW213580   0.259   1.276   5.715
 3895SOL     OW13581  10.293   5.706   7.397
 3895SOL    HW113582  10.292   5.784   7.341
 3895SOL    HW213583  10.383   5.674   7.393
 3896SOL     OW13584  10.418   4.390   3.331
 3896SOL    HW113585  10.378   4.332   3.396
 3896SOL    HW213586  10.477   4.334   3.282
 3897SOL     OW13587   1.866   8.588   2.931
 3897SOL    HW113588   1.847   8.672   2.973
 3897SOL    HW213589   1.826   8.523   2.989
 3898SOL     OW13590   7.066   9.696  13.242
 3898SOL    HW113591   7.150   9.742  13.250
 3898SOL    HW213592   7.008   9.760  13.201
 3899SOL     OW13593  14.788  14.137   9.174
 3899SOL    HW113594  14.695  14.118   9.158
 3899SOL    HW213595  14.829  14.127   9.088
 3900SOL     OW13596  13.703   5.980   0.639
 3900SOL    HW113597  13.651   5.996   0.718
 3900SOL    HW213598  13.650   5.917   0.589
 3901SOL     OW13599  11.003   6.983  10.300
 3901SOL    HW113600  10.943   7.056  10.317
 3901SOL    HW213601  11.041   6.963  10.386
 3902SOL     OW13602   3.315   2.060   8.142
 3902SOL    HW113603   3.391   2.047   8.087
 3902SOL    HW213604   3.323   1.993   8.211
 3903SOL     OW13605  13.677   8.940   5.761
 3903SOL    HW113606  13.771   8.945   5.783
 3903SOL    HW213607  13.641   9.022   5.795
 3904SOL     OW13608  13.542   0.986   2.351
 3904SOL    HW113609  13.511   0.976   2.261
 3904SOL    HW213610  13.576   0.900   2.374
 3905SOL     OW13611   3.837   2.123   8.031
 3905SOL    HW113612   3.861   2.034   8.056
 3905SOL    HW213613   3.887   2.179   8.090
 3906SOL     OW13614   5.335   0.694   1.463
 3906SOL    HW113615   5.306   0.784   1.450
 3906SOL    HW213616   5.383   0.673   1.383
 3907SOL     OW13617  13.819   1.982  13.997
 3907SOL    HW113618  13.756   1.957  14.064
 3907SOL    HW213619  13.903   1.950  14.029
 3908SOL     OW13620   1.338   1.736  13.764
 3908SOL    HW113621   1.359   1.705  13.676
 3908SOL    HW213622   1.354   1.660  13.821
 3909SOL     OW13623   0.397  13.209  12.604
 3909SOL    HW113624   0.411  13.156  12.682
 3909SOL    HW213625   0.356  13.290  12.636
 3910SOL     OW13626   0.030   4.420   1.559
 3910SOL    HW113627  14.850   4.433   1.626
 3910SOL    HW213628   0.002   4.474   1.486
 3911SOL     OW13629   9.057   7.403  10.733
 3911SOL    HW113630   8.993   7.354  10.784
 3911SOL    HW213631   9.068   7.486  10.780
 3912SOL     OW13632  13.756   4.980   9.344
 3912SOL    HW113633  13.709   4.932   9.413
 3912SOL    HW213634  13.758   4.919   9.270
 3913SOL     OW13635  10.832   3.459   5.515
 3913SOL    HW113636  10.913   3.509   5.502
 3913SOL    HW213637  10.791   3.500   5.591
 3914SOL     OW13638   5.117   4.316  14.310
 3914SOL    HW113639   5.156   4.322  14.397
 3914SOL    HW213640   5.164   4.381  14.258
 3915SOL     OW13641   0.587  11.460   9.380
 3915SOL    HW113642   0.576  11.402   9.305
 3915SOL    HW213643   0.501  11.459   9.423
 3916SOL     OW13644   7.806   5.367   8.565
 3916SOL    HW113645   7.800   5.426   8.490
 3916SOL    HW213646   7.879   5.401   8.617
 3917SOL     OW13647   4.053  14.054   0.385
 3917SOL    HW113648   4.101  13.982   0.343
 3917SOL    HW213649   4.001  14.011   0.453
 3918SOL     OW13650  14.823   1.844   1.708
 3918SOL    HW113651  14.820   1.786   1.633
 3918SOL    HW213652   0.008   1.904   1.690
 3919SOL     OW13653  13.685  11.623   9.152
 3919SOL    HW113654  13.618  11.619   9.220
 3919SOL    HW213655  13.641  11.590   9.073
 3920SOL     OW13656  13.145   6.290  13.779
 3920SOL    HW113657  13.154   6.336  13.696
 3920SOL    HW213658  13.180   6.351  13.844
 3921SOL     OW13659   2.121  13.492   0.931
 3921SOL    HW113660   2.062  13.567   0.921
 3921SOL    HW213661   2.204  13.522   0.894
 3922SOL     OW13662   1.623  10.733   8.429
 3922SOL    HW113663   1.710  10.718   8.465
 3922SOL    HW213664   1.600  10.651   8.386
 3923SOL     OW13665   0.361   3.596  11.795
 3923SOL    HW113666   0.436   3.547  11.829
 3923SOL    HW213667   0.381   3.687  11.814
 3924SOL     OW13668  13.304  13.172  12.907
 3924SOL    HW113669  13.302  13.214  12.821
 3924SOL    HW213670  13.354  13.091  12.892
 3925SOL     OW13671   2.871   2.194  12.297
 3925SOL    HW113672   2.930   2.204  12.372
 3925SOL    HW213673   2.793   2.152  12.335
 3926SOL     OW13674  14.623   8.332  12.102
 3926SOL    HW113675  14.706   8.292  12.075
 3926SOL    HW213676  14.631   8.423  12.075
 3927SOL     OW13677   8.197  10.200   7.557
 3927SOL    HW113678   8.284  10.171   7.530
 3927SOL    HW213679   8.156  10.121   7.595
 3928SOL     OW13680   0.944  10.442   6.276
 3928SOL    HW113681   0.896  10.521   6.251
 3928SOL    HW213682   1.032  10.474   6.299
 3929SOL     OW13683   2.347   3.064   3.462
 3929SOL    HW113684   2.313   3.028   3.544
 3929SOL    HW213685   2.440   3.078   3.480
 3930SOL     OW13686   3.099  14.402   0.984
 3930SOL    HW113687   3.026  14.425   1.041
 3930SOL    HW213688   3.165  14.469   1.001
 3931SOL     OW13689   3.235   9.635  14.446
 3931SOL    HW113690   3.217   9.548  14.410
 3931SOL    HW213691   3.291   9.619  14.522
 3932SOL     OW13692  12.203   4.856  11.244
 3932SOL    HW113693  12.204   4.947  11.215
 3932SOL    HW213694  12.291   4.824  11.228
 3933SOL     OW13695   3.513   0.155  12.406
 3933SOL    HW113696   3.580   0.191  12.348
 3933SOL    HW213697   3.430   0.182  12.367
 3934SOL     OW13698   4.340   0.456   8.028
 3934SOL    HW113699   4.319   0.529   8.086
 3934SOL    HW213700   4.435   0.448   8.034
 3935SOL     OW13701   6.624   4.404   9.590
 3935SOL    HW113702   6.552   4.376   9.534
 3935SOL    HW213703   6.612   4.356   9.672
 3936SOL     OW13704  10.816   0.882   6.018
 3936SOL    HW113705  10.895   0.884   6.071
 3936SOL    HW213706  10.816   0.796   5.977
 3937SOL     OW13707  12.674   4.325  11.409
 3937SOL    HW113708  12.597   4.366  11.369
 3937SOL    HW213709  12.743   4.392  11.401
 3938SOL     OW13710   6.193   2.847  11.941
 3938SOL    HW113711   6.254   2.794  11.992
 3938SOL    HW213712   6.203   2.817  11.851
 3939SOL     OW13713   3.190  12.164   6.951
 3939SOL    HW113714   3.283  12.178   6.967
 3939SOL    HW213715   3.162  12.109   7.025
 3940SOL     OW13716   3.407   8.427   5.601
 3940SOL    HW113717   3.348   8.363   5.639
 3940SOL    HW213718   3.492   8.410   5.642
 3941SOL     OW13719  13.068  10.843   1.597
 3941SOL    HW113720  13.158  10.854   1.627
 3941SOL    HW213721  13.018  10.823   1.676
 3942SOL     OW13722   0.014  11.244  13.704
 3942SOL    HW113723   0.052  11.306  13.767
 3942SOL    HW213724   0.087  11.188  13.680
 3943SOL     OW13725   5.350   4.748   1.271
 3943SOL    HW113726   5.392   4.664   1.255
 3943SOL    HW213727   5.383   4.805   1.201
 3944SOL     OW13728   6.686   8.711  13.214
 3944SOL    HW113729   6.616   8.768  13.179
 3944SOL    HW213730   6.648   8.623  13.210
 3945SOL     OW13731   9.993  14.819   2.452
 3945SOL    HW113732   9.989   0.008   2.509
 3945SOL    HW213733  10.025  14.852   2.368
 3946SOL     OW13734   1.734   9.112   4.184
 3946SOL    HW113735   1.786   9.161   4.248
 3946SOL    HW213736   1.761   9.021   4.196
 3947SOL     OW13737   1.696  10.285   0.942
 3947SOL    HW113738   1.759  10.230   0.897
 3947SOL    HW213739   1.630  10.224   0.974
 3948SOL     OW13740   8.011   9.633   9.000
 3948SOL    HW113741   8.001   9.704   8.936
 3948SOL    HW213742   8.087   9.584   8.969
 3949SOL     OW13743   1.664   6.484   2.023
 3949SOL    HW113744   1.733   6.421   2.044
 3949SOL    HW213745   1.703   6.570   2.038
 3950SOL     OW13746   0.489  13.061   7.468
 3950SOL    HW113747   0.499  13.072   7.563
 3950SOL    HW213748   0.456  12.972   7.458
 3951SOL     OW13749   8.493  10.270   7.087
 3951SOL    HW113750   8.491  10.301   7.177
 3951SOL    HW213751   8.402  10.246   7.067
 3952SOL     OW13752  13.197   7.587   2.851
 3952SOL    HW113753  13.136   7.638   2.904
 3952SOL    HW213754  13.237   7.650   2.791
 3953SOL     OW13755   8.229   1.402   5.398
 3953SOL    HW113756   8.279   1.423   5.319
 3953SOL    HW213757   8.289   1.419   5.470
 3954SOL     OW13758   9.851   7.668   0.626
 3954SOL    HW113759   9.936   7.712   0.626
 3954SOL    HW213760   9.864   7.590   0.572
 3955SOL     OW13761  12.377  10.585   8.615
 3955SOL    HW113762  12.363  10.537   8.697
 3955SOL    HW213763  12.291  10.624   8.596
 3956SOL     OW13764   1.900   6.667   1.128
 3956SOL    HW113765   1.888   6.637   1.037
 3956SOL    HW213766   1.973   6.614   1.161
 3957SOL     OW13767   8.315  12.965   1.015
 3957SOL    HW113768   8.310  12.927   0.927
 3957SOL    HW213769   8.323  12.890   1.073
 3958SOL     OW13770   2.363  13.446  13.031
 3958SOL    HW113771   2.356  13.512  13.100
 3958SOL    HW213772   2.365  13.497  12.950
 3959SOL     OW13773   7.778   9.242  10.567
 3959SOL    HW113774   7.702   9.248  10.510
 3959SOL    HW213775   7.749   9.278  10.651
 3960SOL     OW13776   8.729  10.861   6.465
 3960SOL    HW113777   8.817  10.870   6.427
 3960SOL    HW213778   8.738  10.793   6.531
 3961SOL     OW13779   5.567   5.047   9.115
 3961SOL    HW113780   5.473   5.040   9.135
 3961SOL    HW213781   5.574   5.023   9.023
 3962SOL     OW13782  10.713  11.183   9.132
 3962SOL    HW113783  10.788  11.219   9.179
 3962SOL    HW213784  10.656  11.259   9.117
 3963SOL     OW13785   1.936  12.030   0.146
 3963SOL    HW113786   1.879  12.004   0.074
 3963SOL    HW213787   2.003  11.962   0.149
 3964SOL     OW13788   2.400   4.077   1.596
 3964SOL    HW113789   2.482   4.126   1.584
 3964SOL    HW213790   2.424   4.007   1.657
 3965SOL     OW13791   2.053   7.341   2.402
 3965SOL    HW113792   2.053   7.365   2.309
 3965SOL    HW213793   2.142   7.310   2.418
 3966SOL     OW13794   7.143   7.736   1.646
 3966SOL    HW113795   7.228   7.778   1.651
 3966SOL    HW213796   7.093   7.789   1.584
 3967SOL     OW13797  11.406  10.857   1.052
 3967SOL    HW113798  11.404  10.768   1.017
 3967SOL    HW213799  11.326  10.863   1.105
 3968SOL     OW13800   6.134   1.620   7.685
 3968SOL    HW113801   6.078   1.635   7.761
 3968SOL    HW213802   6.157   1.528   7.690
 3969SOL     OW13803  13.980   8.588   8.557
 3969SOL    HW113804  13.933   8.652   8.610
 3969SOL    HW213805  13.912   8.530   8.523
 3970SOL     OW13806   0.789   8.636   9.232
 3970SOL    HW113807   0.848   8.585   9.289
 3970SOL    HW213808   0.812   8.608   9.143
 3971SOL     OW13809   3.987   8.312   7.128
 3971SOL    HW113810   3.896   8.334   7.149
 3971SOL    HW213811   4.037   8.390   7.154
 3972SOL     OW13812   8.671   1.546   8.689
 3972SOL    HW113813   8.729   1.517   8.759
 3972SOL    HW213814   8.603   1.479   8.684
 3973SOL     OW13815   9.748  14.767  14.236
 3973SOL    HW113816   9.694  14.842  14.215
 3973SOL    HW213817   9.723  14.743  14.325
 3974SOL     OW13818   4.143   4.270   0.302
 3974SOL    HW113819   4.122   4.283   0.395
 3974SOL    HW213820   4.064   4.228   0.267
 3975SOL     OW13821   5.070  10.215  14.262
 3975SOL    HW113822   5.134  10.203  14.333
 3975SOL    HW213823   5.055  10.309  14.258
 3976SOL     OW13824  11.909  14.822   0.937
 3976SOL    HW113825  11.973  14.758   0.967
 3976SOL    HW213826  11.960   0.015   0.926
 3977SOL     OW13827   1.566  10.378   5.869
 3977SOL    HW113828   1.506  10.317   5.827
 3977SOL    HW213829   1.543  10.463   5.833
 3978SOL     OW13830  13.395   5.870  10.707
 3978SOL    HW113831  13.302   5.887  10.720
 3978SOL    HW213832  13.418   5.809  10.777
 3979SOL     OW13833   3.255   0.550  11.865
 3979SOL    HW113834   3.328   0.597  11.827
 3979SOL    HW213835   3.289   0.462  11.883
 3980SOL     OW13836  13.859  14.695  13.028
 3980SOL    HW113837  13.808  14.633  13.080
 3980SOL    HW213838  13.875  14.768  13.087
 3981SOL     OW13839   7.454  12.778  11.859
 3981SOL    HW113840   7.387  12.825  11.908
 3981SOL    HW213841   7.406  12.711  11.811
 3982SOL     OW13842  12.780  12.870   9.107
 3982SOL    HW113843  12.788  12.841   9.016
 3982SOL    HW213844  12.734  12.799   9.152
 3983SOL     OW13845   2.063  11.623   7.209
 3983SOL    HW113846   2.091  11.685   7.276
 3983SOL    HW213847   2.103  11.540   7.234
 3984SOL     OW13848   4.784  11.163  13.690
 3984SOL    HW113849   4.851  11.231  13.679
 3984SOL    HW213850   4.777  11.123  13.603
 3985SOL     OW13851   1.115   6.683   2.773
 3985SOL    HW113852   1.180   6.651   2.710
 3985SOL    HW213853   1.139   6.775   2.787
 3986SOL     OW13854   1.664   1.146   4.000
 3986SOL    HW113855   1.676   1.239   4.023
 3986SOL    HW213856   1.594   1.146   3.935
 3987SOL     OW13857   0.102   7.773   7.827
 3987SOL    HW113858   0.121   7.864   7.849
 3987SOL    HW213859   0.092   7.730   7.912
 3988SOL     OW13860   7.650   8.195   2.573
 3988SOL    HW113861   7.623   8.169   2.485
 3988SOL    HW213862   7.608   8.131   2.630
 3989SOL     OW13863   1.903   6.195   4.202
 3989SOL    HW113864   1.996   6.175   4.191
 3989SOL    HW213865   1.898   6.244   4.284
 3990SOL     OW13866   4.061  13.855   7.355
 3990SOL    HW113867   4.023  13.801   7.286
 3990SOL    HW213868   3.987  13.874   7.413
 3991SOL     OW13869  10.947   3.005   2.761
 3991SOL    HW113870  10.915   2.959   2.683
 3991SOL    HW213871  11.041   2.986   2.763
 3992SOL     OW13872  14.015  10.223   9.047
 3992SOL    HW113873  14.071  10.259   9.115
 3992SOL    HW213874  14.033  10.275   8.969
 3993SOL     OW13875   8.913  10.449   6.269
 3993SOL    HW113876   8.859  10.504   6.326
 3993SOL    HW213877   8.857  10.432   6.193
 3994SOL     OW13878   3.730   1.345  11.292
 3994SOL    HW113879   3.754   1.255  11.269
 3994SOL    HW213880   3.808   1.380  11.335
 3995SOL     OW13881   7.848   4.288   6.116
 3995SOL    HW113882   7.919   4.290   6.052
 3995SOL    HW213883   7.853   4.373   6.160
 3996SOL     OW13884   9.004   3.641   7.844
 3996SOL    HW113885   9.022   3.601   7.759
 3996SOL    HW213886   8.934   3.704   7.827
 3997SOL     OW13887   2.085   5.720   4.930
 3997SOL    HW113888   2.123   5.661   4.864
 3997SOL    HW213889   2.118   5.806   4.906
 3998SOL     OW13890  13.810   2.998  11.271
 3998SOL    HW113891  13.857   2.986  11.189
 3998SOL    HW213892  13.857   2.944  11.334
 3999SOL     OW13893   2.388   6.741  10.766
 3999SOL    HW113894   2.423   6.826  10.740
 3999SOL    HW213895   2.459   6.700  10.815
 4000SOL     OW13896   9.496  14.479   1.457
 4000SOL    HW113897   9.584  14.502   1.486
 4000SOL    HW213898   9.439  14.544   1.499
 4001SOL     OW13899   3.338   4.618  14.038
 4001SOL    HW113900   3.260   4.603  14.091
 4001SOL    HW213901   3.317   4.695  13.985
 4002SOL     OW13902   1.260   6.257   1.837
 4002SOL    HW113903   1.298   6.172   1.859
 4002SOL    HW213904   1.190   6.270   1.902
 4003SOL     OW13905  14.460   3.126   1.226
 4003SOL    HW113906  14.446   3.189   1.156
 4003SOL    HW213907  14.517   3.059   1.188
 4004SOL     OW13908   5.292   1.991   1.082
 4004SOL    HW113909   5.230   1.972   1.152
 4004SOL    HW213910   5.248   2.057   1.028
 4005SOL     OW13911   1.224   2.316  13.680
 4005SOL    HW113912   1.284   2.242  13.678
 4005SOL    HW213913   1.274   2.386  13.721
 4006SOL     OW13914   3.421   3.783  12.407
 4006SOL    HW113915   3.441   3.823  12.322
 4006SOL    HW213916   3.470   3.701  12.408
 4007SOL     OW13917   1.257  11.289   7.585
 4007SOL    HW113918   1.273  11.195   7.593
 4007SOL    HW213919   1.196  11.297   7.511
 4008SOL     OW13920  11.377  10.949   6.821
 4008SOL    HW113921  11.411  10.862   6.840
 4008SOL    HW213922  11.416  10.972   6.736
 4009SOL     OW13923  13.497   6.936   0.156
 4009SOL    HW113924  13.588   6.935   0.127
 4009SOL    HW213925  13.453   6.994   0.094
 4010SOL     OW13926  14.505  13.804   1.344
 4010SOL    HW113927  14.535  13.753   1.420
 4010SOL    HW213928  14.485  13.891   1.379
 4011SOL     OW13929   3.817   8.858   6.093
 4011SOL    HW113930   3.738   8.865   6.039
 4011SOL    HW213931   3.874   8.798   6.044
 4012SOL     OW13932   8.815   5.985  10.231
 4012SOL    HW113933   8.798   5.974  10.138
 4012SOL    HW213934   8.825   6.079  10.243
 4013SOL     OW13935   9.953   4.033   3.669
 4013SOL    HW113936   9.859   4.047   3.657
 4013SOL    HW213937   9.968   4.050   3.762
 4014SOL     OW13938  14.666   0.974   1.593
 4014SOL    HW113939  14.754   0.999   1.619
 4014SOL    HW213940  14.677   0.892   1.546
 4015SOL     OW13941   0.894   7.654   1.684
 4015SOL    HW113942   0.858   7.584   1.738
 4015SOL    HW213943   0.842   7.652   1.604
 4016SOL     OW13944  14.046   7.761   3.975
 4016SOL    HW113945  14.035   7.844   4.021
 4016SOL    HW213946  13.958   7.722   3.975
 4017SOL     OW13947  10.935  14.237   7.179
 4017SOL    HW113948  10.865  14.173   7.192
 4017SOL    HW213949  11.009  14.185   7.147
 4018SOL     OW13950   2.339   1.089   6.173
 4018SOL    HW113951   2.327   1.180   6.202
 4018SOL    HW213952   2.331   1.093   6.078
 4019SOL     OW13953   0.077   5.150   8.004
 4019SOL    HW113954   0.056   5.060   7.982
 4019SOL    HW213955   0.154   5.171   7.951
 4020SOL     OW13956   1.604   2.040   3.868
 4020SOL    HW113957   1.626   1.977   3.936
 4020SOL    HW213958   1.527   2.086   3.903
 4021SOL     OW13959   9.156   5.361   5.598
 4021SOL    HW113960   9.163   5.381   5.505
 4021SOL    HW213961   9.245   5.370   5.632
 4022SOL     OW13962  13.210   0.155   5.392
 4022SOL    HW113963  13.233   0.064   5.410
 4022SOL    HW213964  13.290   0.204   5.409
 4023SOL     OW13965   9.455   5.243   2.444
 4023SOL    HW113966   9.362   5.243   2.423
 4023SOL    HW213967   9.484   5.154   2.428
 4024SOL     OW13968   6.952   4.459   9.018
 4024SOL    HW113969   6.998   4.539   9.041
 4024SOL    HW213970   6.859   4.483   9.016
 4025SOL     OW13971   0.633   7.158   1.761
 4025SOL    HW113972   0.698   7.186   1.697
 4025SOL    HW213973   0.656   7.067   1.781
 4026SOL     OW13974   4.580   9.307   7.558
 4026SOL    HW113975   4.658   9.308   7.614
 4026SOL    HW213976   4.533   9.387   7.582
 4027SOL     OW13977  10.444  14.730   0.890
 4027SOL    HW113978  10.483  14.732   0.803
 4027SOL    HW213979  10.351  14.710   0.874
 4028SOL     OW13980  10.295   3.313   5.665
 4028SOL    HW113981  10.375   3.346   5.623
 4028SOL    HW213982  10.258   3.253   5.601
 4029SOL     OW13983  13.105   3.912  12.992
 4029SOL    HW113984  13.027   3.857  12.982
 4029SOL    HW213985  13.075   3.986  13.046
 4030SOL     OW13986   9.908   4.109   7.905
 4030SOL    HW113987   9.921   4.028   7.954
 4030SOL    HW213988   9.834   4.092   7.847
 4031SOL     OW13989   0.882   5.103   7.407
 4031SOL    HW113990   0.835   5.098   7.490
 4031SOL    HW213991   0.814   5.114   7.341
 4032SOL     OW13992   5.943   1.722   3.700
 4032SOL    HW113993   5.966   1.815   3.692
 4032SOL    HW213994   5.982   1.695   3.783
 4033SOL     OW13995   7.266   4.579   4.404
 4033SOL    HW113996   7.327   4.506   4.410
 4033SOL    HW213997   7.303   4.645   4.463
 4034SOL     OW13998   3.208   6.172   3.396
 4034SOL    HW113999   3.180   6.196   3.308
 4034SOL    HW214000   3.209   6.076   3.396
 4035SOL     OW14001  10.743  14.340  12.812
 4035SOL    HW114002  10.825  14.311  12.853
 4035SOL    HW214003  10.680  14.271  12.833
 4036SOL     OW14004   8.552  13.233   1.351
 4036SOL    HW114005   8.499  13.261   1.425
 4036SOL    HW214006   8.635  13.280   1.361
 4037SOL     OW14007   2.126  12.463   5.870
 4037SOL    HW114008   2.085  12.547   5.849
 4037SOL    HW214009   2.053  12.407   5.895
 4038SOL     OW14010  14.576   2.280   7.154
 4038SOL    HW114011  14.671   2.270   7.147
 4038SOL    HW214012  14.544   2.193   7.176
 4039SOL     OW14013   7.279   9.900   6.148
 4039SOL    HW114014   7.322   9.893   6.062
 4039SOL    HW214015   7.236   9.816   6.160
 4040SOL     OW14016  10.120   7.090   5.518
 4040SOL    HW114017  10.058   7.129   5.580
 4040SOL    HW214018  10.147   7.008   5.559
 4041SOL     OW14019   6.475   0.953   3.425
 4041SOL    HW114020   6.448   0.888   3.360
 4041SOL    HW214021   6.402   0.957   3.487
 4042SOL     OW14022   4.836   0.157   6.808
 4042SOL    HW114023   4.899   0.113   6.865
 4042SOL    HW214024   4.891   0.202   6.743
 4043SOL     OW14025  12.172  10.026   2.638
 4043SOL    HW114026  12.102  10.003   2.577
 4043SOL    HW214027  12.206   9.943   2.669
 4044SOL     OW14028  14.263   5.629   4.387
 4044SOL    HW114029  14.221   5.568   4.448
 4044SOL    HW214030  14.189   5.673   4.344
 4045SOL     OW14031   3.975  10.200   2.298
 4045SOL    HW114032   3.897  10.167   2.342
 4045SOL    HW214033   4.016  10.123   2.260
 4046SOL     OW14034   7.628   4.817   9.977
 4046SOL    HW114035   7.663   4.803   9.889
 4046SOL    HW214036   7.703   4.803  10.035
 4047SOL     OW14037   5.703  10.375   4.487
 4047SOL    HW114038   5.732  10.290   4.521
 4047SOL    HW214039   5.644  10.409   4.554
 4048SOL     OW14040   1.635   0.887  10.177
 4048SOL    HW114041   1.547   0.923  10.172
 4048SOL    HW214042   1.643   0.832  10.099
 4049SOL     OW14043  12.569   9.548   7.176
 4049SOL    HW114044  12.483   9.528   7.140
 4049SOL    HW214045  12.562   9.526   7.269
 4050SOL     OW14046   4.005   8.563   3.908
 4050SOL    HW114047   4.001   8.655   3.885
 4050SOL    HW214048   3.917   8.542   3.940
 4051SOL     OW14049   4.660   9.236  11.639
 4051SOL    HW114050   4.589   9.295  11.613
 4051SOL    HW214051   4.615   9.157  11.672
 4052SOL     OW14052   5.544   0.806  13.031
 4052SOL    HW114053   5.639   0.791  13.035
 4052SOL    HW214054   5.514   0.786  13.120
 4053SOL     OW14055   8.038  13.252  12.766
 4053SOL    HW114056   7.997  13.330  12.803
 4053SOL    HW214057   8.018  13.182  12.828
 4054SOL     OW14058   8.444  14.825   9.054
 4054SOL    HW114059   8.477  14.782   9.133
 4054SOL    HW214060   8.385  14.761   9.014
 4055SOL     OW14061   6.064   5.510   9.704
 4055SOL    HW114062   6.058   5.444   9.635
 4055SOL    HW214063   6.090   5.590   9.658
 4056SOL     OW14064   5.468  12.960  10.442
 4056SOL    HW114065   5.549  12.928  10.402
 4056SOL    HW214066   5.420  12.881  10.466
 4057SOL     OW14067  14.186   5.852   7.020
 4057SOL    HW114068  14.121   5.919   6.998
 4057SOL    HW214069  14.150   5.810   7.098
 4058SOL     OW14070   7.337   3.432   2.201
 4058SOL    HW114071   7.316   3.440   2.108
 4058SOL    HW214072   7.380   3.515   2.223
 4059SOL     OW14073   5.224  10.214   1.272
 4059SOL    HW114074   5.213  10.213   1.368
 4059SOL    HW214075   5.318  10.227   1.259
 4060SOL     OW14076  14.858  14.115   9.660
 4060SOL    HW114077  14.862  14.211   9.658
 4060SOL    HW214078  14.832  14.091   9.571
 4061SOL     OW14079   8.729  10.688   7.885
 4061SOL    HW114080   8.707  10.771   7.842
 4061SOL    HW214081   8.801  10.710   7.943
 4062SOL     OW14082  10.278   2.481   7.832
 4062SOL    HW114083  10.290   2.536   7.909
 4062SOL    HW214084  10.346   2.414   7.840
 4063SOL     OW14085   8.939  13.113   1.950
 4063SOL    HW114086   8.960  13.028   1.989
 4063SOL    HW214087   8.975  13.178   2.010
 4064SOL     OW14088  14.474   6.199   7.986
 4064SOL    HW114089  14.488   6.121   7.933
 4064SOL    HW214090  14.551   6.205   8.043
 4065SOL     OW14091   0.213  12.473   3.748
 4065SOL    HW114092   0.232  12.435   3.662
 4065SOL    HW214093   0.225  12.401   3.810
 4066SOL     OW14094   2.955   6.136  11.994
 4066SOL    HW114095   2.956   6.057  12.048
 4066SOL    HW214096   2.999   6.203  12.048
 4067SOL     OW14097   7.572   8.738   6.458
 4067SOL    HW114098   7.609   8.764   6.374
 4067SOL    HW214099   7.627   8.780   6.523
 4068SOL     OW14100   6.422  10.954   6.140
 4068SOL    HW114101   6.497  10.932   6.195
 4068SOL    HW214102   6.427  10.892   6.067
 4069SOL     OW14103  14.141   8.798   4.865
 4069SOL    HW114104  14.132   8.737   4.937
 4069SOL    HW214105  14.083   8.871   4.887
 4070SOL     OW14106  10.431   7.638  14.856
 4070SOL    HW114107  10.373   7.656   0.043
 4070SOL    HW214108  10.489   7.714  14.852
 4071SOL     OW14109   3.432   9.947   8.651
 4071SOL    HW114110   3.358   9.889   8.633
 4071SOL    HW214111   3.409   9.989   8.734
 4072SOL     OW14112   1.185   3.682   2.081
 4072SOL    HW114113   1.228   3.705   2.164
 4072SOL    HW214114   1.102   3.729   2.083
 4073SOL     OW14115  13.660   8.876  10.109
 4073SOL    HW114116  13.707   8.803  10.068
 4073SOL    HW214117  13.656   8.943  10.041
 4074SOL     OW14118   8.580  13.681   7.125
 4074SOL    HW114119   8.670  13.649   7.121
 4074SOL    HW214120   8.526  13.603   7.113
 4075SOL     OW14121   8.408   2.309   6.170
 4075SOL    HW114122   8.452   2.357   6.240
 4075SOL    HW214123   8.476   2.250   6.135
 4076SOL     OW14124  11.876   3.815   3.675
 4076SOL    HW114125  11.822   3.739   3.698
 4076SOL    HW214126  11.910   3.794   3.588
 4077SOL     OW14127   7.003   1.004   9.473
 4077SOL    HW114128   7.009   0.969   9.384
 4077SOL    HW214129   7.041   0.935   9.528
 4078SOL     OW14130   9.975   1.894   7.634
 4078SOL    HW114131   9.900   1.841   7.609
 4078SOL    HW214132   9.940   1.957   7.697
 4079SOL     OW14133   6.288   0.075   0.763
 4079SOL    HW114134   6.247  14.880   0.791
 4079SOL    HW214135   6.277   0.075   0.668
 4080SOL     OW14136   2.836   0.813  11.623
 4080SOL    HW114137   2.902   0.836  11.688
 4080SOL    HW214138   2.771   0.762  11.672
 4081SOL     OW14139   7.368  10.218  11.957
 4081SOL    HW114140   7.326  10.133  11.972
 4081SOL    HW214141   7.461  10.202  11.976
 4082SOL     OW14142   7.120   5.607  12.243
 4082SOL    HW114143   7.062   5.531  12.242
 4082SOL    HW214144   7.152   5.611  12.333
 4083SOL     OW14145  12.346  11.343  12.335
 4083SOL    HW114146  12.330  11.328  12.242
 4083SOL    HW214147  12.261  11.366  12.370
 4084SOL     OW14148  14.426   3.237  10.009
 4084SOL    HW114149  14.361   3.272  10.069
 4084SOL    HW214150  14.426   3.298   9.935
 4085SOL     OW14151   0.869  12.517  14.697
 4085SOL    HW114152   0.832  12.431  14.680
 4085SOL    HW214153   0.912  12.508  14.782
 4086SOL     OW14154   1.372   5.049   6.558
 4086SOL    HW114155   1.368   5.070   6.465
 4086SOL    HW214156   1.388   5.132   6.601
 4087SOL     OW14157  14.744   6.829   2.032
 4087SOL    HW114158  14.795   6.799   1.958
 4087SOL    HW214159  14.771   6.773   2.105
 4088SOL     OW14160  11.578   1.183  11.990
 4088SOL    HW114161  11.484   1.194  11.998
 4088SOL    HW214162  11.590   1.149  11.901
 4089SOL     OW14163   0.840   8.163   5.274
 4089SOL    HW114164   0.914   8.179   5.215
 4089SOL    HW214165   0.796   8.248   5.281
 4090SOL     OW14166   5.188   7.674  12.607
 4090SOL    HW114167   5.106   7.629  12.585
 4090SOL    HW214168   5.245   7.657  12.532
 4091SOL     OW14169  10.496   8.661   6.295
 4091SOL    HW114170  10.553   8.635   6.222
 4091SOL    HW214171  10.421   8.602   6.289
 4092SOL     OW14172   8.046   1.336   0.291
 4092SOL    HW114173   7.952   1.341   0.275
 4092SOL    HW214174   8.077   1.272   0.227
 4093SOL     OW14175  10.876   4.403   7.698
 4093SOL    HW114176  10.799   4.346   7.699
 4093SOL    HW214177  10.846   4.484   7.740
 4094SOL     OW14178   1.215   4.378   5.494
 4094SOL    HW114179   1.175   4.362   5.579
 4094SOL    HW214180   1.192   4.301   5.442
 4095SOL     OW14181  12.998  12.824   0.924
 4095SOL    HW114182  13.055  12.787   0.856
 4095SOL    HW214183  12.911  12.825   0.883
 4096SOL     OW14184   6.579  13.745   7.263
 4096SOL    HW114185   6.568  13.662   7.217
 4096SOL    HW214186   6.622  13.721   7.345
 4097SOL     OW14187   3.420  14.176   1.042
 4097SOL    HW114188   3.366  14.185   0.964
 4097SOL    HW214189   3.363  14.136   1.107
 4098SOL     OW14190  10.085   1.063   4.251
 4098SOL    HW114191  10.121   1.147   4.281
 4098SOL    HW214192  10.159   1.017   4.212
 4099SOL     OW14193   2.297  12.099   0.364
 4099SOL    HW114194   2.327  12.189   0.375
 4099SOL    HW214195   2.344  12.049   0.431
 4100SOL     OW14196   1.598   4.462   2.488
 4100SOL    HW114197   1.581   4.421   2.573
 4100SOL    HW214198   1.562   4.402   2.424
 4101SOL     OW14199  13.857   7.969   9.397
 4101SOL    HW114200  13.788   7.903   9.395
 4101SOL    HW214201  13.820   8.043   9.348
 4102SOL     OW14202   2.974   2.708   1.855
 4102SOL    HW114203   3.051   2.654   1.841
 4102SOL    HW214204   2.900   2.649   1.842
 4103SOL     OW14205   2.169   2.984  13.958
 4103SOL    HW114206   2.098   2.992  13.894
 4103SOL    HW214207   2.243   3.028  13.917
 4104SOL     OW14208  12.945   6.811   0.638
 4104SOL    HW114209  12.925   6.820   0.731
 4104SOL    HW214210  13.039   6.825   0.631
 4105SOL     OW14211  14.619   3.981  10.847
 4105SOL    HW114212  14.693   3.941  10.801
 4105SOL    HW214213  14.542   3.940  10.807
 4106SOL     OW14214   5.913   4.822  12.323
 4106SOL    HW114215   5.983   4.878  12.288
 4106SOL    HW214216   5.959   4.756  12.375
 4107SOL     OW14217  12.724   6.579  10.388
 4107SOL    HW114218  12.642   6.578  10.338
 4107SOL    HW214219  12.702   6.537  10.471
 4108SOL     OW14220   6.952   8.524   1.246
 4108SOL    HW114221   7.037   8.555   1.276
 4108SOL    HW214222   6.921   8.466   1.316
 4109SOL     OW14223  14.341   4.051   2.683
 4109SOL    HW114224  14.428   4.036   2.720
 4109SOL    HW214225  14.298   3.966   2.688
 4110SOL     OW14226  12.689   8.052   0.030
 4110SOL    HW114227  12.696   8.058   0.125
 4110SOL    HW214228  12.597   8.070   0.012
 4111SOL     OW14229  14.169  13.606  12.532
 4111SOL    HW114230  14.222  13.639  12.605
 4111SOL    HW214231  14.086  13.652  12.540
 4112SOL     OW14232   9.618   5.257   9.540
 4112SOL    HW114233   9.583   5.173   9.509
 4112SOL    HW214234   9.554   5.287   9.605
 4113SOL     OW14235  13.333  13.893   6.035
 4113SOL    HW114236  13.316  13.888   6.129
 4113SOL    HW214237  13.291  13.974   6.008
 4114SOL     OW14238  12.887  13.118   1.598
 4114SOL    HW114239  12.818  13.145   1.658
 4114SOL    HW214240  12.844  13.111   1.513
 4115SOL     OW14241  11.397   3.085   0.595
 4115SOL    HW114242  11.353   3.115   0.675
 4115SOL    HW214243  11.407   3.164   0.542
 4116SOL     OW14244   9.776  14.865  13.377
 4116SOL    HW114245   9.785  14.870  13.473
 4116SOL    HW214246   9.717   0.050  13.355
 4117SOL     OW14247  11.053  13.056  10.555
 4117SOL    HW114248  11.049  13.004  10.635
 4117SOL    HW214249  11.003  13.135  10.575
 4118SOL     OW14250   1.781   8.596   5.206
 4118SOL    HW114251   1.756   8.663   5.269
 4118SOL    HW214252   1.872   8.575   5.229
 4119SOL     OW14253  10.162  12.468   4.143
 4119SOL    HW114254  10.237  12.494   4.089
 4119SOL    HW214255  10.171  12.373   4.152
 4120SOL     OW14256   5.880  11.626  14.447
 4120SOL    HW114257   5.795  11.632  14.404
 4120SOL    HW214258   5.939  11.677  14.391
 4121SOL     OW14259   1.412  12.977   4.363
 4121SOL    HW114260   1.378  12.998   4.450
 4121SOL    HW214261   1.458  13.056   4.335
 4122SOL     OW14262   6.145   3.112   5.311
 4122SOL    HW114263   6.081   3.173   5.348
 4122SOL    HW214264   6.158   3.142   5.221
 4123SOL     OW14265   0.392  14.109   9.105
 4123SOL    HW114266   0.425  14.089   9.192
 4123SOL    HW214267   0.364  14.024   9.069
 4124SOL     OW14268   0.883   1.798   6.838
 4124SOL    HW114269   0.848   1.791   6.749
 4124SOL    HW214270   0.835   1.871   6.877
 4125SOL     OW14271  11.826   4.662  13.232
 4125SOL    HW114272  11.784   4.636  13.150
 4125SOL    HW214273  11.872   4.583  13.260
 4126SOL     OW14274  14.308   0.392  11.972
 4126SOL    HW114275  14.385   0.420  11.921
 4126SOL    HW214276  14.242   0.373  11.905
 4127SOL     OW14277  10.442   1.678   8.351
 4127SOL    HW114278  10.410   1.760   8.389
 4127SOL    HW214279  10.446   1.617   8.424
 4128SOL     OW14280  13.339  10.928   7.037
 4128SOL    HW114281  13.395  10.861   7.076
 4128SOL    HW214282  13.319  10.894   6.949
 4129SOL     OW14283   4.102   2.143  11.143
 4129SOL    HW114284   4.090   2.232  11.112
 4129SOL    HW214285   4.136   2.152  11.231
 4130SOL     OW14286   0.035   2.587  11.298
 4130SOL    HW114287  14.846   2.619  11.346
 4130SOL    HW214288   0.089   2.665  11.284
 4131SOL     OW14289  10.769   8.124   5.828
 4131SOL    HW114290  10.832   8.180   5.783
 4131SOL    HW214291  10.686   8.140   5.784
 4132SOL     OW14292   4.087  10.225   4.695
 4132SOL    HW114293   4.007  10.277   4.680
 4132SOL    HW214294   4.107  10.187   4.609
 4133SOL     OW14295   0.001  11.363  12.021
 4133SOL    HW114296  14.836  11.440  11.998
 4133SOL    HW214297   0.024  11.324  11.937
 4134SOL     OW14298  14.456  12.903   9.541
 4134SOL    HW114299  14.409  12.849   9.477
 4134SOL    HW214300  14.469  12.846   9.616
 4135SOL     OW14301   0.749  12.210   5.013
 4135SOL    HW114302   0.773  12.274   4.945
 4135SOL    HW214303   0.770  12.255   5.095
 4136SOL     OW14304  13.995   4.532   4.146
 4136SOL    HW114305  14.033   4.617   4.124
 4136SOL    HW214306  13.950   4.546   4.229
 4137SOL     OW14307   3.994   6.803   5.298
 4137SOL    HW114308   3.945   6.879   5.268
 4137SOL    HW214309   4.051   6.837   5.367
 4138SOL     OW14310   0.791   2.083   4.947
 4138SOL    HW114311   0.773   2.138   5.024
 4138SOL    HW214312   0.854   2.018   4.979
 4139SOL     OW14313   3.046  11.375  11.131
 4139SOL    HW114314   3.031  11.284  11.105
 4139SOL    HW214315   2.958  11.410  11.143
 4140SOL     OW14316   7.943  10.590   6.536
 4140SOL    HW114317   8.013  10.655   6.530
 4140SOL    HW214318   7.954  10.536   6.457
 4141SOL     OW14319   9.570   3.631   2.817
 4141SOL    HW114320   9.491   3.681   2.798
 4141SOL    HW214321   9.541   3.563   2.878
 4142SOL     OW14322   8.715  14.513   4.041
 4142SOL    HW114323   8.810  14.519   4.033
 4142SOL    HW214324   8.681  14.558   3.963
 4143SOL     OW14325   8.114   4.641   0.981
 4143SOL    HW114326   8.193   4.665   0.933
 4143SOL    HW214327   8.055   4.605   0.915
 4144SOL     OW14328   3.688  14.835  14.730
 4144SOL    HW114329   3.711   0.022  14.786
 4144SOL    HW214330   3.766  14.780  14.730
 4145SOL     OW14331   2.151  10.051   4.954
 4145SOL    HW114332   2.069  10.094   4.931
 4145SOL    HW214333   2.191  10.030   4.869
 4146SOL     OW14334   7.014   7.949  11.506
 4146SOL    HW114335   7.059   8.029  11.533
 4146SOL    HW214336   6.998   7.902  11.588
 4147SOL     OW14337   6.264  11.432   9.519
 4147SOL    HW114338   6.306  11.518   9.509
 4147SOL    HW214339   6.294  11.382   9.443
 4148SOL     OW14340   6.813  10.980   0.741
 4148SOL    HW114341   6.855  10.932   0.813
 4148SOL    HW214342   6.795  11.067   0.776
 4149SOL     OW14343   6.847   4.687   2.980
 4149SOL    HW114344   6.771   4.745   2.980
 4149SOL    HW214345   6.810   4.600   2.997
 4150SOL     OW14346   6.103   6.224  12.895
 4150SOL    HW114347   6.185   6.220  12.847
 4150SOL    HW214348   6.077   6.132  12.906
 4151SOL     OW14349   5.545   7.423   0.413
 4151SOL    HW114350   5.589   7.374   0.482
 4151SOL    HW214351   5.609   7.487   0.384
 4152SOL     OW14352  10.297   2.820   1.656
 4152SOL    HW114353  10.389   2.793   1.657
 4152SOL    HW214354  10.253   2.758   1.713
 4153SOL     OW14355   5.708  13.080   3.565
 4153SOL    HW114356   5.657  13.107   3.488
 4153SOL    HW214357   5.729  13.162   3.610
 4154SOL     OW14358   3.004  12.170   0.229
 4154SOL    HW114359   3.043  12.202   0.147
 4154SOL    HW214360   2.985  12.078   0.213
 4155SOL     OW14361   5.330  10.804  12.466
 4155SOL    HW114362   5.269  10.844  12.404
 4155SOL    HW214363   5.293  10.717  12.483
 4156SOL     OW14364   2.627   3.023   4.286
 4156SOL    HW114365   2.661   2.980   4.208
 4156SOL    HW214366   2.686   2.994   4.357
 4157SOL     OW14367  12.343   1.128  13.679
 4157SOL    HW114368  12.347   1.094  13.590
 4157SOL    HW214369  12.253   1.162  13.687
 4158SOL     OW14370  11.631  10.852   5.268
 4158SOL    HW114371  11.569  10.779   5.274
 4158SOL    HW214372  11.594  10.918   5.326
 4159SOL     OW14373  12.193  11.257  14.284
 4159SOL    HW114374  12.115  11.202  14.289
 4159SOL    HW214375  12.211  11.266  14.190
 4160SOL     OW14376   0.546   0.966   3.661
 4160SOL    HW114377   0.482   0.905   3.624
 4160SOL    HW214378   0.511   1.053   3.642
 4161SOL     OW14379   4.554   5.130  11.489
 4161SOL    HW114380   4.616   5.086  11.431
 4161SOL    HW214381   4.489   5.063  11.509
 4162SOL     OW14382   7.200   5.883   9.167
 4162SOL    HW114383   7.204   5.791   9.142
 4162SOL    HW214384   7.147   5.885   9.246
 4163SOL     OW14385  14.823  12.487  11.135
 4163SOL    HW114386  14.790  12.558  11.080
 4163SOL    HW214387  14.867  12.531  11.208
 4164SOL     OW14388   8.609   1.461  12.658
 4164SOL    HW114389   8.548   1.498  12.594
 4164SOL    HW214390   8.557   1.395  12.705
 4165SOL     OW14391   8.437   5.195  13.651
 4165SOL    HW114392   8.419   5.164  13.563
 4165SOL    HW214393   8.361   5.167  13.702
 4166SOL     OW14394  13.014   7.130  10.685
 4166SOL    HW114395  13.088   7.111  10.627
 4166SOL    HW214396  13.022   7.223  10.704
 4167SOL     OW14397   2.027  11.530   6.264
 4167SOL    HW114398   1.974  11.608   6.248
 4167SOL    HW214399   2.110  11.547   6.220
 4168SOL     OW14400  13.817  12.253   7.795
 4168SOL    HW114401  13.858  12.304   7.864
 4168SOL    HW214402  13.728  12.289   7.788
 4169SOL     OW14403  10.398   0.556  10.702
 4169SOL    HW114404  10.332   0.572  10.634
 4169SOL    HW214405  10.481   0.561  10.656
 4170SOL     OW14406   1.021  10.051   3.257
 4170SOL    HW114407   1.114  10.055   3.282
 4170SOL    HW214408   1.007  10.132   3.207
 4171SOL     OW14409   7.035  11.755   6.981
 4171SOL    HW114410   7.063  11.734   6.891
 4171SOL    HW214411   7.084  11.694   7.036
 4172SOL     OW14412  12.830   4.241   6.419
 4172SOL    HW114413  12.782   4.319   6.391
 4172SOL    HW214414  12.914   4.275   6.451
 4173SOL     OW14415  11.009   3.345  10.170
 4173SOL    HW114416  11.036   3.263  10.212
 4173SOL    HW214417  11.090   3.383  10.137
 4174SOL     OW14418   8.294   2.664   7.567
 4174SOL    HW114419   8.322   2.652   7.476
 4174SOL    HW214420   8.369   2.636   7.619
 4175SOL     OW14421   6.835  13.703   9.295
 4175SOL    HW114422   6.753  13.675   9.337
 4175SOL    HW214423   6.861  13.781   9.344
 4176SOL     OW14424   5.009   1.893   0.478
 4176SOL    HW114425   4.978   1.960   0.539
 4176SOL    HW214426   5.055   1.941   0.409
 4177SOL     OW14427   3.448   4.443  11.303
 4177SOL    HW114428   3.420   4.512  11.242
 4177SOL    HW214429   3.472   4.491  11.382
 4178SOL     OW14430   1.530   1.912   7.621
 4178SOL    HW114431   1.598   1.961   7.576
 4178SOL    HW214432   1.452   1.966   7.613
 4179SOL     OW14433   3.469   9.082  12.971
 4179SOL    HW114434   3.481   9.143  12.898
 4179SOL    HW214435   3.507   9.127  13.046
 4180SOL     OW14436   6.489   2.532   4.364
 4180SOL    HW114437   6.516   2.596   4.298
 4180SOL    HW214438   6.563   2.472   4.370
 4181SOL     OW14439   6.436   7.987  13.516
 4181SOL    HW114440   6.403   7.952  13.433
 4181SOL    HW214441   6.379   7.950  13.582
 4182SOL     OW14442   5.951  14.018   6.155
 4182SOL    HW114443   5.905  13.987   6.233
 4182SOL    HW214444   5.900  13.983   6.082
 4183SOL     OW14445   6.486   3.825  11.974
 4183SOL    HW114446   6.570   3.799  11.937
 4183SOL    HW214447   6.481   3.779  12.058
 4184SOL     OW14448   9.409   0.580   0.525
 4184SOL    HW114449   9.385   0.666   0.561
 4184SOL    HW214450   9.341   0.521   0.556
 4185SOL     OW14451   4.631  13.938  10.948
 4185SOL    HW114452   4.634  13.848  10.915
 4185SOL    HW214453   4.541  13.949  10.980
 4186SOL     OW14454   1.564  10.841   6.521
 4186SOL    HW114455   1.508  10.781   6.571
 4186SOL    HW214456   1.616  10.783   6.465
 4187SOL     OW14457   2.489   6.696   9.823
 4187SOL    HW114458   2.520   6.614   9.861
 4187SOL    HW214459   2.470   6.674   9.731
 4188SOL     OW14460   7.252  14.456  11.591
 4188SOL    HW114461   7.209  14.413  11.664
 4188SOL    HW214462   7.182  14.472  11.528
 4189SOL     OW14463   1.069   7.814   5.619
 4189SOL    HW114464   1.059   7.900   5.658
 4189SOL    HW214465   1.060   7.753   5.693
 4190SOL     OW14466   6.527   1.878   6.232
 4190SOL    HW114467   6.451   1.822   6.212
 4190SOL    HW214468   6.594   1.817   6.262
 4191SOL     OW14469   7.026  11.015   6.370
 4191SOL    HW114470   7.064  10.933   6.339
 4191SOL    HW214471   6.991  10.993   6.457
 4192SOL     OW14472   5.825   3.470  14.215
 4192SOL    HW114473   5.742   3.465  14.167
 4192SOL    HW214474   5.849   3.563  14.211
 4193SOL     OW14475   7.757   5.913   1.184
 4193SOL    HW114476   7.720   5.829   1.208
 4193SOL    HW214477   7.684   5.974   1.186
 4194SOL     OW14478  10.275   5.223  13.447
 4194SOL    HW114479  10.327   5.225  13.527
 4194SOL    HW214480  10.326   5.169  13.387
 4195SOL     OW14481   6.497  14.668  11.607
 4195SOL    HW114482   6.418  14.662  11.553
 4195SOL    HW214483   6.564  14.702  11.548
 4196SOL     OW14484   9.030   7.358   5.660
 4196SOL    HW114485   8.958   7.410   5.697
 4196SOL    HW214486   9.092   7.424   5.626
 4197SOL     OW14487   1.170   5.986  11.506
 4197SOL    HW114488   1.122   5.973  11.424
 4197SOL    HW214489   1.177   6.081  11.515
 4198SOL     OW14490  12.538  14.479  14.525
 4198SOL    HW114491  12.601  14.511  14.589
 4198SOL    HW214492  12.464  14.449  14.577
 4199SOL     OW14493  11.686  14.815  13.153
 4199SOL    HW114494  11.653   0.001  13.205
 4199SOL    HW214495  11.689  14.742  13.215
 4200SOL     OW14496  13.773  12.358  14.316
 4200SOL    HW114497  13.736  12.422  14.256
 4200SOL    HW214498  13.732  12.275  14.292
 4201SOL     OW14499   2.420  13.001   9.372
 4201SOL    HW114500   2.467  12.988   9.290
 4201SOL    HW214501   2.441  12.924   9.424
 4202SOL     OW14502  10.045  10.139   4.092
 4202SOL    HW114503  10.053  10.059   4.143
 4202SOL    HW214504   9.976  10.119   4.028
 4203SOL     OW14505   5.250   1.082   0.760
 4203SOL    HW114506   5.320   1.141   0.732
 4203SOL    HW214507   5.251   1.011   0.696
 4204SOL     OW14508  10.968   7.606   1.577
 4204SOL    HW114509  10.962   7.528   1.633
 4204SOL    HW214510  10.931   7.577   1.493
 4205SOL     OW14511   6.148  11.870  10.397
 4205SOL    HW114512   6.196  11.874  10.479
 4205SOL    HW214513   6.117  11.959  10.382
 4206SOL     OW14514   9.667   8.454   0.345
 4206SOL    HW114515   9.685   8.468   0.252
 4206SOL    HW214516   9.697   8.534   0.388
 4207SOL     OW14517  10.674   9.570   1.797
 4207SOL    HW114518  10.672   9.572   1.701
 4207SOL    HW214519  10.756   9.524   1.818
 4208SOL     OW14520   4.070   1.524  13.386
 4208SOL    HW114521   4.115   1.600  13.351
 4208SOL    HW214522   4.027   1.555  13.466
 4209SOL     OW14523  11.544  14.073   6.685
 4209SOL    HW114524  11.619  14.025   6.719
 4209SOL    HW214525  11.570  14.101   6.597
 4210SOL     OW14526   9.381   3.058   9.561
 4210SOL    HW114527   9.310   3.070   9.624
 4210SOL    HW214528   9.446   3.124   9.586
 4211SOL     OW14529   0.126  13.315   3.216
 4211SOL    HW114530   0.065  13.285   3.284
 4211SOL    HW214531   0.079  13.301   3.134
 4212SOL     OW14532   5.804   8.812   8.326
 4212SOL    HW114533   5.783   8.895   8.369
 4212SOL    HW214534   5.881   8.831   8.273
 4213SOL     OW14535  10.116   5.633   3.634
 4213SOL    HW114536  10.085   5.595   3.551
 4213SOL    HW214537  10.048   5.695   3.659
 4214SOL     OW14538   0.763   7.815   8.726
 4214SOL    HW114539   0.836   7.820   8.664
 4214SOL    HW214540   0.703   7.884   8.698
 4215SOL     OW14541  10.351   7.633  11.081
 4215SOL    HW114542  10.324   7.603  10.995
 4215SOL    HW214543  10.306   7.575  11.142
 4216SOL     OW14544   6.156  12.009  14.159
 4216SOL    HW114545   6.082  12.070  14.156
 4216SOL    HW214546   6.233  12.064  14.150
 4217SOL     OW14547  13.850   3.833  10.524
 4217SOL    HW114548  13.836   3.749  10.567
 4217SOL    HW214549  13.923   3.874  10.572
 4218SOL     OW14550  11.536   2.038   4.191
 4218SOL    HW114551  11.628   2.067   4.191
 4218SOL    HW214552  11.539   1.948   4.159
 4219SOL     OW14553   4.908   6.289   6.697
 4219SOL    HW114554   4.892   6.304   6.604
 4219SOL    HW214555   4.984   6.344   6.717
 4220SOL     OW14556   2.053  14.603  13.734
 4220SOL    HW114557   2.029  14.632  13.822
 4220SOL    HW214558   1.985  14.641  13.678
 4221SOL     OW14559   8.302  11.701   0.238
 4221SOL    HW114560   8.279  11.763   0.169
 4221SOL    HW214561   8.245  11.626   0.223
 4222SOL     OW14562   6.321   3.490  14.379
 4222SOL    HW114563   6.266   3.511  14.455
 4222SOL    HW214564   6.258   3.473  14.308
 4223SOL     OW14565   9.447   9.139   2.482
 4223SOL    HW114566   9.473   9.225   2.448
 4223SOL    HW214567   9.510   9.078   2.443
 4224SOL     OW14568  14.885  11.385   9.282
 4224SOL    HW114569   0.091  11.391   9.302
 4224SOL    HW214570  14.867  11.461   9.226
 4225SOL     OW14571   4.534   3.492  10.070
 4225SOL    HW114572   4.606   3.438  10.104
 4225SOL    HW214573   4.540   3.574  10.121
 4226SOL     OW14574   7.338   4.331  13.259
 4226SOL    HW114575   7.294   4.371  13.334
 4226SOL    HW214576   7.267   4.297  13.204
 4227SOL     OW14577   3.401   9.261   9.797
 4227SOL    HW114578   3.347   9.249   9.875
 4227SOL    HW214579   3.382   9.186   9.741
 4228SOL     OW14580   1.127   1.506   6.883
 4228SOL    HW114581   1.172   1.448   6.945
 4228SOL    HW214582   1.036   1.479   6.887
 4229SOL     OW14583   8.738  14.558   0.750
 4229SOL    HW114584   8.756  14.566   0.656
 4229SOL    HW214585   8.791  14.627   0.790
 4230SOL     OW14586   7.208   8.510  12.832
 4230SOL    HW114587   7.184   8.514  12.739
 4230SOL    HW214588   7.181   8.423  12.860
 4231SOL     OW14589   6.375  10.093   6.766
 4231SOL    HW114590   6.375  10.028   6.837
 4231SOL    HW214591   6.428  10.165   6.799
 4232SOL     OW14592   4.809   5.134   9.117
 4232SOL    HW114593   4.885   5.081   9.092
 4232SOL    HW214594   4.831   5.223   9.088
 4233SOL     OW14595  14.283   1.941   9.856
 4233SOL    HW114596  14.278   1.910   9.766
 4233SOL    HW214597  14.325   2.027   9.849
 4234SOL     OW14598  13.068   6.908   9.135
 4234SOL    HW114599  13.050   6.874   9.223
 4234SOL    HW214600  13.066   6.830   9.079
 4235SOL     OW14601   7.362  13.947  10.247
 4235SOL    HW114602   7.267  13.938  10.260
 4235SOL    HW214603   7.400  13.899  10.321
 4236SOL     OW14604   8.319   6.859  12.647
 4236SOL    HW114605   8.239   6.878  12.696
 4236SOL    HW214606   8.368   6.800  12.705
 4237SOL     OW14607   5.076   5.572  10.815
 4237SOL    HW114608   5.085   5.610  10.727
 4237SOL    HW214609   4.986   5.541  10.819
 4238SOL     OW14610  11.995  10.606   8.642
 4238SOL    HW114611  12.008  10.681   8.701
 4238SOL    HW214612  11.923  10.557   8.682
 4239SOL     OW14613   7.491   5.370  10.977
 4239SOL    HW114614   7.511   5.368  10.884
 4239SOL    HW214615   7.540   5.296  11.014
 4240SOL     OW14616   8.539   8.883  10.000
 4240SOL    HW114617   8.547   8.791   9.973
 4240SOL    HW214618   8.466   8.883  10.063
 4241SOL     OW14619   8.208  10.009  14.564
 4241SOL    HW114620   8.177   9.946  14.498
 4241SOL    HW214621   8.298   9.983  14.582
 4242SOL     OW14622   8.680   7.544  10.256
 4242SOL    HW114623   8.767   7.541  10.295
 4242SOL    HW214624   8.633   7.470  10.296
 4243SOL     OW14625  14.095   2.852   9.114
 4243SOL    HW114626  14.092   2.919   9.183
 4243SOL    HW214627  14.150   2.783   9.150
 4244SOL     OW14628   4.915  13.524   8.514
 4244SOL    HW114629   4.864  13.587   8.464
 4244SOL    HW214630   5.006  13.540   8.488
 4245SOL     OW14631  10.906   0.766   2.804
 4245SOL    HW114632  10.873   0.686   2.764
 4245SOL    HW214633  10.945   0.816   2.732
 4246SOL     OW14634   7.399  12.298   3.207
 4246SOL    HW114635   7.470  12.261   3.153
 4246SOL    HW214636   7.415  12.263   3.294
 4247SOL     OW14637   0.042  11.367   8.670
 4247SOL    HW114638  14.882  11.450   8.667
 4247SOL    HW214639   0.061  11.354   8.763
 4248SOL     OW14640  13.245  13.158  14.822
 4248SOL    HW114641  13.314  13.091  14.824
 4248SOL    HW214642  13.268  13.214  14.749
 4249SOL     OW14643   2.434   5.336   7.931
 4249SOL    HW114644   2.386   5.256   7.950
 4249SOL    HW214645   2.426   5.347   7.836
 4250SOL     OW14646   0.655   9.606  13.901
 4250SOL    HW114647   0.563   9.631  13.893
 4250SOL    HW214648   0.702   9.689  13.898
 4251SOL     OW14649   4.630   6.358  13.291
 4251SOL    HW114650   4.562   6.419  13.261
 4251SOL    HW214651   4.626   6.364  13.387
 4252SOL     OW14652  11.655   4.600   1.390
 4252SOL    HW114653  11.576   4.646   1.363
 4252SOL    HW214654  11.629   4.552   1.469
 4253SOL     OW14655   7.595   4.529   8.074
 4253SOL    HW114656   7.632   4.507   8.160
 4253SOL    HW214657   7.647   4.478   8.012
 4254SOL     OW14658   1.137   2.875  13.826
 4254SOL    HW114659   1.199   2.838  13.889
 4254SOL    HW214660   1.192   2.905  13.754
 4255SOL     OW14661   3.511   9.245  14.595
 4255SOL    HW114662   3.465   9.329  14.595
 4255SOL    HW214663   3.443   9.180  14.614
 4256SOL     OW14664   9.160  11.993   3.329
 4256SOL    HW114665   9.135  12.027   3.415
 4256SOL    HW214666   9.139  12.064   3.268
 4257SOL     OW14667   0.799   0.839   3.528
 4257SOL    HW114668   0.748   0.789   3.464
 4257SOL    HW214669   0.740   0.910   3.554
 4258SOL     OW14670   4.935  10.483  11.874
 4258SOL    HW114671   4.917  10.411  11.934
 4258SOL    HW214672   5.011  10.527  11.912
 4259SOL     OW14673  13.742   6.975   5.180
 4259SOL    HW114674  13.659   7.017   5.160
 4259SOL    HW214675  13.735   6.949   5.272
 4260SOL     OW14676   9.615  11.736  13.061
 4260SOL    HW114677   9.642  11.667  13.121
 4260SOL    HW214678   9.586  11.689  12.982
 4261SOL     OW14679   6.417   6.196   5.132
 4261SOL    HW114680   6.339   6.146   5.106
 4261SOL    HW214681   6.393   6.287   5.116
 4262SOL     OW14682   9.838   8.351   2.054
 4262SOL    HW114683   9.747   8.319   2.048
 4262SOL    HW214684   9.847   8.411   1.980
 4263SOL     OW14685  12.334  11.228   5.589
 4263SOL    HW114686  12.354  11.317   5.618
 4263SOL    HW214687  12.276  11.241   5.514
 4264SOL     OW14688   9.842   0.041  10.069
 4264SOL    HW114689   9.865   0.046  10.161
 4264SOL    HW214690   9.872  14.843  10.040
 4265SOL     OW14691   2.510   3.782   8.718
 4265SOL    HW114692   2.601   3.794   8.744
 4265SOL    HW214693   2.475   3.871   8.710
 4266SOL     OW14694  13.403   5.583   2.651
 4266SOL    HW114695  13.311   5.609   2.642
 4266SOL    HW214696  13.438   5.640   2.720
 4267SOL     OW14697   5.163  13.108  14.030
 4267SOL    HW114698   5.235  13.132  14.089
 4267SOL    HW214699   5.092  13.080  14.088
 4268SOL     OW14700   8.872  12.950  13.308
 4268SOL    HW114701   8.937  12.882  13.288
 4268SOL    HW214702   8.922  13.021  13.348
 4269SOL     OW14703   0.483   1.826   6.850
 4269SOL    HW114704   0.474   1.759   6.781
 4269SOL    HW214705   0.469   1.909   6.805
 4270SOL     OW14706  11.201  13.061  11.148
 4270SOL    HW114707  11.293  13.051  11.174
 4270SOL    HW214708  11.162  12.976  11.168
 4271SOL     OW14709   3.615  12.830   0.362
 4271SOL    HW114710   3.524  12.835   0.390
 4271SOL    HW214711   3.612  12.780   0.280
 4272SOL     OW14712   1.088   3.021   9.163
 4272SOL    HW114713   1.033   2.951   9.129
 4272SOL    HW214714   1.040   3.054   9.239
 4273SOL     OW14715   7.127   4.563   3.999
 4273SOL    HW114716   7.130   4.619   4.076
 4273SOL    HW214717   7.104   4.621   3.927
 4274SOL     OW14718   1.775   3.461   0.388
 4274SOL    HW114719   1.692   3.490   0.350
 4274SOL    HW214720   1.795   3.379   0.342
 4275SOL     OW14721   5.895   3.222   7.088
 4275SOL    HW114722   5.908   3.316   7.098
 4275SOL    HW214723   5.902   3.206   6.994
 4276SOL     OW14724   7.313   8.557   0.418
 4276SOL    HW114725   7.361   8.531   0.339
 4276SOL    HW214726   7.295   8.650   0.405
 4277SOL     OW14727   2.487  14.597  13.347
 4277SOL    HW114728   2.407  14.584  13.296
 4277SOL    HW214729   2.517  14.685  13.322
 4278SOL     OW14730   4.889  13.757   6.376
 4278SOL    HW114731   4.854  13.846   6.384
 4278SOL    HW214732   4.891  13.740   6.282
 4279SOL     OW14733  12.853  11.396   2.296
 4279SOL    HW114734  12.870  11.482   2.334
 4279SOL    HW214735  12.823  11.343   2.369
 4280SOL     OW14736   7.023   9.950   3.826
 4280SOL    HW114737   6.996   9.874   3.774
 4280SOL    HW214738   6.989  10.025   3.778
 4281SOL     OW14739  13.515  10.504  12.169
 4281SOL    HW114740  13.455  10.509  12.244
 4281SOL    HW214741  13.562  10.422  12.181
 4282SOL     OW14742   9.867   9.680   2.970
 4282SOL    HW114743   9.846   9.749   2.908
 4282SOL    HW214744   9.962   9.684   2.981
 4283SOL     OW14745   7.040   8.303   6.308
 4283SOL    HW114746   6.965   8.352   6.341
 4283SOL    HW214747   7.116   8.350   6.344
 4284SOL     OW14748   6.662   5.386   9.195
 4284SOL    HW114749   6.656   5.462   9.254
 4284SOL    HW214750   6.591   5.399   9.132
 4285SOL     OW14751  12.531   5.045  11.147
 4285SOL    HW114752  12.509   5.082  11.062
 4285SOL    HW214753  12.514   5.116  11.209
 4286SOL     OW14754  10.772  13.308   1.721
 4286SOL    HW114755  10.758  13.336   1.631
 4286SOL    HW214756  10.731  13.221   1.726
 4287SOL     OW14757   4.375   2.701   2.956
 4287SOL    HW114758   4.397   2.693   2.863
 4287SOL    HW214759   4.285   2.733   2.956
 4288SOL     OW14760  13.633  10.276   6.506
 4288SOL    HW114761  13.674  10.308   6.586
 4288SOL    HW214762  13.676  10.192   6.488
 4289SOL     OW14763   9.254   9.007  13.835
 4289SOL    HW114764   9.213   8.942  13.778
 4289SOL    HW214765   9.300   9.065  13.774
 4290SOL     OW14766   5.297   9.169   8.414
 4290SOL    HW114767   5.283   9.255   8.454
 4290SOL    HW214768   5.363   9.184   8.347
 4291SOL     OW14769   8.168   9.537   0.563
 4291SOL    HW114770   8.235   9.505   0.504
 4291SOL    HW214771   8.111   9.591   0.508
 4292SOL     OW14772   1.564   5.976  14.686
 4292SOL    HW114773   1.513   5.996  14.765
 4292SOL    HW214774   1.654   5.963  14.718
 4293SOL     OW14775   5.000  12.824   4.057
 4293SOL    HW114776   5.058  12.792   3.988
 4293SOL    HW214777   5.052  12.817   4.137
 4294SOL     OW14778   7.116  10.338   0.268
 4294SOL    HW114779   7.137  10.394   0.343
 4294SOL    HW214780   7.035  10.376   0.232
 4295SOL     OW14781  13.503  11.484  10.126
 4295SOL    HW114782  13.433  11.468  10.189
 4295SOL    HW214783  13.558  11.406  10.131
 4296SOL     OW14784   6.701   8.386  13.457
 4296SOL    HW114785   6.795   8.368  13.458
 4296SOL    HW214786   6.686   8.430  13.373
 4297SOL     OW14787   0.791   2.884  10.847
 4297SOL    HW114788   0.775   2.961  10.900
 4297SOL    HW214789   0.784   2.915  10.756
 4298SOL     OW14790  10.879   7.038   7.609
 4298SOL    HW114791  10.812   7.037   7.541
 4298SOL    HW214792  10.935   7.112   7.587
 4299SOL     OW14793  10.939  11.330  11.491
 4299SOL    HW114794  10.869  11.332  11.426
 4299SOL    HW214795  10.909  11.390  11.560
 4300SOL     OW14796  10.033   5.943  12.830
 4300SOL    HW114797  10.040   5.850  12.855
 4300SOL    HW214798  10.027   5.941  12.735
 4301SOL     OW14799  11.830   5.705   3.964
 4301SOL    HW114800  11.804   5.767   4.032
 4301SOL    HW214801  11.749   5.685   3.917
 4302SOL     OW14802   8.279  14.250   7.279
 4302SOL    HW114803   8.361  14.225   7.322
 4302SOL    HW214804   8.279  14.201   7.197
 4303SOL     OW14805   9.179   7.455   4.045
 4303SOL    HW114806   9.244   7.520   4.071
 4303SOL    HW214807   9.120   7.503   3.987
 4304SOL     OW14808   9.813   6.654   0.398
 4304SOL    HW114809   9.722   6.632   0.419
 4304SOL    HW214810   9.818   6.749   0.409
 4305SOL     OW14811   6.849  13.762  11.185
 4305SOL    HW114812   6.782  13.783  11.119
 4305SOL    HW214813   6.808  13.694  11.238
 4306SOL     OW14814  13.090   9.580   6.990
 4306SOL    HW114815  13.161   9.634   7.025
 4306SOL    HW214816  13.017   9.594   7.050
 4307SOL     OW14817   6.942   3.482   1.822
 4307SOL    HW114818   6.890   3.409   1.859
 4307SOL    HW214819   6.975   3.528   1.899
 4308SOL     OW14820   1.039  12.913  10.780
 4308SOL    HW114821   0.963  12.903  10.723
 4308SOL    HW214822   1.114  12.901  10.723
 4309SOL     OW14823   1.158  14.736  11.825
 4309SOL    HW114824   1.179  14.720  11.733
 4309SOL    HW214825   1.090  14.804  11.822
 4310SOL     OW14826   7.930   9.628   1.794
 4310SOL    HW114827   7.879   9.700   1.758
 4310SOL    HW214828   7.881   9.599   1.871
 4311SOL     OW14829   6.168   8.641   2.107
 4311SOL    HW114830   6.263   8.637   2.121
 4311SOL    HW214831   6.131   8.642   2.195
 4312SOL     OW14832   9.772   6.933  13.458
 4312SOL    HW114833   9.718   7.009  13.480
 4312SOL    HW214834   9.858   6.954  13.494
 4313SOL     OW14835   1.539  11.962   1.837
 4313SOL    HW114836   1.450  11.943   1.807
 4313SOL    HW214837   1.528  12.007   1.920
 4314SOL     OW14838   0.082  10.205  14.303
 4314SOL    HW114839  14.875  10.211  14.320
 4314SOL    HW214840   0.090  10.145  14.229
 4315SOL     OW14841   0.764   7.483   2.432
 4315SOL    HW114842   0.778   7.410   2.493
 4315SOL    HW214843   0.843   7.485   2.378
 4316SOL     OW14844   6.532  11.843  11.721
 4316SOL    HW114845   6.539  11.938  11.724
 4316SOL    HW214846   6.501  11.819  11.809
 4317SOL     OW14847   7.322  13.199  14.391
 4317SOL    HW114848   7.379  13.125  14.371
 4317SOL    HW214849   7.367  13.275  14.353
 4318SOL     OW14850   1.230   1.241   7.155
 4318SOL    HW114851   1.222   1.315   7.215
 4318SOL    HW214852   1.140   1.223   7.127
 4319SOL     OW14853   7.896  14.886   3.454
 4319SOL    HW114854   7.930  14.803   3.421
 4319SOL    HW214855   7.949   0.017   3.532
 4320SOL     OW14856   1.077   5.852  12.435
 4320SOL    HW114857   0.999   5.830  12.486
 4320SOL    HW214858   1.105   5.768  12.398
 4321SOL     OW14859   4.329  13.916   2.718
 4321SOL    HW114860   4.290  13.887   2.635
 4321SOL    HW214861   4.255  13.923   2.778
 4322SOL     OW14862   0.319  10.237   5.458
 4322SOL    HW114863   0.324  10.159   5.512
 4322SOL    HW214864   0.328  10.205   5.368
 4323SOL     OW14865   6.097   9.240   0.585
 4323SOL    HW114866   6.122   9.332   0.583
 4323SOL    HW214867   6.003   9.240   0.567
 4324SOL     OW14868   8.259  12.960  11.713
 4324SOL    HW114869   8.242  12.884  11.657
 4324SOL    HW214870   8.217  12.938  11.796
 4325SOL     OW14871   3.663   5.798  14.246
 4325SOL    HW114872   3.734   5.736  14.264
 4325SOL    HW214873   3.674   5.867  14.312
 4326SOL     OW14874   4.255   3.266   8.162
 4326SOL    HW114875   4.187   3.203   8.138
 4326SOL    HW214876   4.227   3.302   8.246
 4327SOL     OW14877  10.393  11.005   5.201
 4327SOL    HW114878  10.311  10.994   5.248
 4327SOL    HW214879  10.386  10.946   5.126
 4328SOL     OW14880   9.775  13.650   1.518
 4328SOL    HW114881   9.688  13.640   1.557
 4328SOL    HW214882   9.834  13.660   1.594
 4329SOL     OW14883  10.036  10.661  13.024
 4329SOL    HW114884  10.025  10.753  13.048
 4329SOL    HW214885  10.046  10.615  13.108
 4330SOL     OW14886   7.336   7.141   3.762
 4330SOL    HW114887   7.376   7.164   3.846
 4330SOL    HW214888   7.332   7.224   3.714
 4331SOL     OW14889   6.940   8.769  13.354
 4331SOL    HW114890   6.869   8.738  13.298
 4331SOL    HW214891   7.017   8.718  13.326
 4332SOL     OW14892  12.788  12.495   6.250
 4332SOL    HW114893  12.802  12.503   6.155
 4332SOL    HW214894  12.706  12.447   6.258
 4333SOL     OW14895   5.571   9.551   4.196
 4333SOL    HW114896   5.619   9.473   4.165
 4333SOL    HW214897   5.512   9.572   4.124
 4334SOL     OW14898  13.720   5.345   2.426
 4334SOL    HW114899  13.736   5.439   2.420
 4334SOL    HW214900  13.805   5.305   2.408
 4335SOL     OW14901   8.015   9.577   6.562
 4335SOL    HW114902   8.105   9.606   6.555
 4335SOL    HW214903   7.994   9.585   6.655
 4336SOL     OW14904   2.233  13.309  13.785
 4336SOL    HW114905   2.326  13.289  13.786
 4336SOL    HW214906   2.203  13.280  13.699
 4337SOL     OW14907   3.633   3.009  12.763
 4337SOL    HW114908   3.611   3.086  12.711
 4337SOL    HW214909   3.728   3.013  12.772
 4338SOL     OW14910   0.601  10.940  10.743
 4338SOL    HW114911   0.505  10.930  10.743
 4338SOL    HW214912   0.614  11.033  10.722
 4339SOL     OW14913   9.144   1.773  10.193
 4339SOL    HW114914   9.169   1.705  10.255
 4339SOL    HW214915   9.078   1.825  10.239
 4340SOL     OW14916  14.118   9.918  14.158
 4340SOL    HW114917  14.148   9.828  14.141
 4340SOL    HW214918  14.163   9.970  14.091
 4341SOL     OW14919   3.824  13.933  12.134
 4341SOL    HW114920   3.860  14.020  12.152
 4341SOL    HW214921   3.756  13.921  12.200
 4342SOL     OW14922   8.085   5.651   6.728
 4342SOL    HW114923   8.000   5.671   6.690
 4342SOL    HW214924   8.088   5.701   6.809
 4343SOL     OW14925  14.403   1.655   3.601
 4343SOL    HW114926  14.462   1.644   3.676
 4343SOL    HW214927  14.317   1.628   3.634
 4344SOL     OW14928   1.705   1.690  11.228
 4344SOL    HW114929   1.776   1.718  11.170
 4344SOL    HW214930   1.729   1.601  11.255
 4345SOL     OW14931   3.193   4.152   4.762
 4345SOL    HW114932   3.269   4.170   4.706
 4345SOL    HW214933   3.231   4.108   4.839
 4346SOL     OW14934   3.025   8.495   1.909
 4346SOL    HW114935   3.044   8.486   1.816
 4346SOL    HW214936   3.043   8.587   1.928
 4347SOL     OW14937   8.653   4.671   0.223
 4347SOL    HW114938   8.721   4.654   0.158
 4347SOL    HW214939   8.580   4.615   0.196
 4348SOL     OW14940   1.166   5.805   3.836
 4348SOL    HW114941   1.148   5.730   3.893
 4348SOL    HW214942   1.258   5.826   3.853
 4349SOL     OW14943  11.212   1.491  11.987
 4349SOL    HW114944  11.176   1.551  12.052
 4349SOL    HW214945  11.144   1.486  11.919
 4350SOL     OW14946   1.785  13.043   3.199
 4350SOL    HW114947   1.722  13.114   3.189
 4350SOL    HW214948   1.849  13.057   3.129
 4351SOL     OW14949   3.286  11.851  10.897
 4351SOL    HW114950   3.238  11.786  10.948
 4351SOL    HW214951   3.377  11.823  10.903
 4352SOL     OW14952   7.093   7.067   9.386
 4352SOL    HW114953   7.035   7.077   9.310
 4352SOL    HW214954   7.066   6.984   9.426
 4353SOL     OW14955  10.031   8.121   3.454
 4353SOL    HW114956  10.108   8.161   3.414
 4353SOL    HW214957  10.005   8.182   3.523
 4354SOL     OW14958   6.123   8.521   8.005
 4354SOL    HW114959   6.066   8.473   8.065
 4354SOL    HW214960   6.133   8.461   7.930
 4355SOL     OW14961   4.730   4.120   8.273
 4355SOL    HW114962   4.738   4.025   8.275
 4355SOL    HW214963   4.635   4.136   8.273
 4356SOL     OW14964   0.570   0.743   0.817
 4356SOL    HW114965   0.642   0.736   0.879
 4356SOL    HW214966   0.581   0.830   0.778
 4357SOL     OW14967   7.813   1.478   2.422
 4357SOL    HW114968   7.720   1.463   2.439
 4357SOL    HW214969   7.825   1.454   2.330
 4358SOL     OW14970  10.026   4.125   4.064
 4358SOL    HW114971  10.057   4.214   4.046
 4358SOL    HW214972  10.077   4.070   4.004
 4359SOL     OW14973   2.294  14.564  14.577
 4359SOL    HW114974   2.244  14.620  14.636
 4359SOL    HW214975   2.264  14.475  14.597
 4360SOL     OW14976  12.832   1.807  12.599
 4360SOL    HW114977  12.830   1.849  12.513
 4360SOL    HW214978  12.744   1.819  12.633
 4361SOL     OW14979   7.764   2.524   0.091
 4361SOL    HW114980   7.737   2.445   0.138
 4361SOL    HW214981   7.801   2.492   0.009
 4362SOL     OW14982  10.612   8.870   8.802
 4362SOL    HW114983  10.565   8.833   8.728
 4362SOL    HW214984  10.705   8.858   8.781
 4363SOL     OW14985   6.244   5.774   0.375
 4363SOL    HW114986   6.315   5.723   0.338
 4363SOL    HW214987   6.265   5.780   0.468
 4364SOL     OW14988  10.529   9.922   9.052
 4364SOL    HW114989  10.580   9.937   8.973
 4364SOL    HW214990  10.494   9.833   9.042
 4365SOL     OW14991   9.742  11.019   7.975
 4365SOL    HW114992   9.749  11.005   7.881
 4365SOL    HW214993   9.713  10.935   8.010
 4366SOL     OW14994   2.052  11.860   3.931
 4366SOL    HW114995   2.060  11.764   3.934
 4366SOL    HW214996   2.126  11.888   3.877
 4367SOL     OW14997  13.033   5.741   1.549
 4367SOL    HW114998  12.960   5.680   1.537
 4367SOL    HW214999  13.111   5.689   1.533
 4368SOL     OW15000   4.883   3.942  13.507
 4368SOL    HW115001   4.921   3.900  13.584
 4368SOL    HW215002   4.940   3.915  13.435
 4369SOL     OW15003   1.704  11.313   3.418
 4369SOL    HW115004   1.628  11.303   3.476
 4369SOL    HW215005   1.729  11.405   3.427
 4370SOL     OW15006   7.479  11.482   0.553
 4370SOL    HW115007   7.419  11.417   0.517
 4370SOL    HW215008   7.458  11.485   0.646
 4371SOL     OW15009   5.919   5.656   9.458
 4371SOL    HW115010   5.877   5.724   9.510
 4371SOL    HW215011   6.011   5.683   9.453
 4372SOL     OW15012  13.027   6.355  11.697
 4372SOL    HW115013  12.952   6.328  11.750
 4372SOL    HW215014  13.006   6.443  11.667
 4373SOL     OW15015   6.078  12.254   7.477
 4373SOL    HW115016   5.999  12.282   7.524
 4373SOL    HW215017   6.147  12.258   7.543
 4374SOL     OW15018  11.757  11.726   3.194
 4374SOL    HW115019  11.809  11.652   3.164
 4374SOL    HW215020  11.666  11.699   3.179
 4375SOL     OW15021   4.706   1.436  12.378
 4375SOL    HW115022   4.735   1.344  12.376
 4375SOL    HW215023   4.683   1.452  12.470
 4376SOL     OW15024   2.863  12.976  14.793
 4376SOL    HW115025   2.891  12.927  14.716
 4376SOL    HW215026   2.771  12.954  14.804
 4377SOL     OW15027   6.752   2.297   9.777
 4377SOL    HW115028   6.780   2.370   9.722
 4377SOL    HW215029   6.757   2.331   9.867
 4378SOL     OW15030   8.755  12.643   6.127
 4378SOL    HW115031   8.775  12.561   6.172
 4378SOL    HW215032   8.829  12.656   6.068
 4379SOL     OW15033   7.506   3.762  13.505
 4379SOL    HW115034   7.586   3.789  13.460
 4379SOL    HW215035   7.435   3.794  13.451
 4380SOL     OW15036  13.264  12.809   1.377
 4380SOL    HW115037  13.185  12.863   1.387
 4380SOL    HW215038  13.271  12.793   1.283
 4381SOL     OW15039  13.427   8.168   8.546
 4381SOL    HW115040  13.521   8.181   8.533
 4381SOL    HW215041  13.417   8.073   8.557
 4382SOL     OW15042  12.975   8.645   9.166
 4382SOL    HW115043  12.936   8.578   9.222
 4382SOL    HW215044  13.026   8.596   9.102
 4383SOL     OW15045   7.094  13.227  12.775
 4383SOL    HW115046   7.067  13.230  12.683
 4383SOL    HW215047   7.068  13.312  12.810
 4384SOL     OW15048   6.566   7.689   8.417
 4384SOL    HW115049   6.570   7.674   8.322
 4384SOL    HW215050   6.582   7.782   8.427
 4385SOL     OW15051   9.559   0.254   7.479
 4385SOL    HW115052   9.649   0.270   7.450
 4385SOL    HW215053   9.565   0.244   7.574
 4386SOL     OW15054  11.750   2.752   8.685
 4386SOL    HW115055  11.676   2.700   8.656
 4386SOL    HW215056  11.730   2.774   8.776
 4387SOL     OW15057   1.607  12.687  13.906
 4387SOL    HW115058   1.522  12.677  13.863
 4387SOL    HW215059   1.648  12.761  13.861
 4388SOL     OW15060   4.724   0.844  12.089
 4388SOL    HW115061   4.681   0.927  12.109
 4388SOL    HW215062   4.686   0.817  12.005
 4389SOL     OW15063  13.420  14.070  12.735
 4389SOL    HW115064  13.388  14.063  12.645
 4389SOL    HW215065  13.352  14.118  12.782
 4390SOL     OW15066   3.609  10.338   6.410
 4390SOL    HW115067   3.661  10.286   6.349
 4390SOL    HW215068   3.520  10.304   6.402
 4391SOL     OW15069   9.504   5.585   4.179
 4391SOL    HW115070   9.495   5.677   4.202
 4391SOL    HW215071   9.457   5.575   4.096
 4392SOL     OW15072  10.946  11.080   4.408
 4392SOL    HW115073  11.010  11.119   4.468
 4392SOL    HW215074  10.976  11.106   4.321
 4393SOL     OW15075  12.594   9.314  11.706
 4393SOL    HW115076  12.623   9.352  11.790
 4393SOL    HW215077  12.559   9.389  11.657
 4394SOL     OW15078   2.757   4.285   3.271
 4394SOL    HW115079   2.664   4.283   3.293
 4394SOL    HW215080   2.792   4.358   3.321
 4395SOL     OW15081   9.349   7.133  14.186
 4395SOL    HW115082   9.297   7.130  14.266
 4395SOL    HW215083   9.403   7.054  14.190
 4396SOL     OW15084  13.644   3.873   5.665
 4396SOL    HW115085  13.686   3.958   5.653
 4396SOL    HW215086  13.634   3.838   5.576
 4397SOL     OW15087  10.473   1.174   6.494
 4397SOL    HW115088  10.387   1.195   6.531
 4397SOL    HW215089  10.525   1.146   6.570
 4398SOL     OW15090   8.780  11.854   8.922
 4398SOL    HW115091   8.697  11.896   8.900
 4398SOL    HW215092   8.801  11.887   9.009
 4399SOL     OW15093   3.932   3.851   4.661
 4399SOL    HW115094   3.901   3.905   4.734
 4399SOL    HW215095   3.884   3.769   4.670
 4400SOL     OW15096   6.842  12.645   4.464
 4400SOL    HW115097   6.909  12.580   4.488
 4400SOL    HW215098   6.788  12.654   4.542
 4401SOL     OW15099  13.793   7.615   7.736
 4401SOL    HW115100  13.868   7.675   7.730
 4401SOL    HW215101  13.726   7.656   7.681
 4402SOL     OW15102   8.589   7.653   7.878
 4402SOL    HW115103   8.553   7.693   7.957
 4402SOL    HW215104   8.596   7.725   7.816
 4403SOL     OW15105   6.908   4.611  12.198
 4403SOL    HW115106   6.901   4.706  12.207
 4403SOL    HW215107   6.960   4.598  12.118
 4404SOL     OW15108  13.340   6.159   5.392
 4404SOL    HW115109  13.269   6.125   5.446
 4404SOL    HW215110  13.322   6.253   5.384
 4405SOL     OW15111   9.646   1.920  14.857
 4405SOL    HW115112   9.661   2.000  14.807
 4405SOL    HW215113   9.604   1.949   0.051
 4406SOL     OW15114   6.711  12.183   7.779
 4406SOL    HW115115   6.799  12.189   7.743
 4406SOL    HW215116   6.679  12.273   7.782
 4407SOL     OW15117   4.139   5.253   0.146
 4407SOL    HW115118   4.043   5.251   0.151
 4407SOL    HW215119   4.166   5.162   0.159
 4408SOL     OW15120   7.873   3.033   8.475
 4408SOL    HW115121   7.848   3.125   8.473
 4408SOL    HW215122   7.908   3.020   8.563
 4409SOL     OW15123   0.197  12.903  12.030
 4409SOL    HW115124   0.267  12.941  12.083
 4409SOL    HW215125   0.229  12.910  11.940
 4410SOL     OW15126   8.976  13.579   5.919
 4410SOL    HW115127   9.049  13.641   5.915
 4410SOL    HW215128   8.952  13.577   6.011
 4411SOL     OW15129   5.932  11.271   1.849
 4411SOL    HW115130   5.915  11.177   1.844
 4411SOL    HW215131   5.851  11.308   1.884
 4412SOL     OW15132   5.772   8.537  14.301
 4412SOL    HW115133   5.814   8.600  14.360
 4412SOL    HW215134   5.738   8.468  14.358
 4413SOL     OW15135   6.821   0.950   1.703
 4413SOL    HW115136   6.772   0.911   1.775
 4413SOL    HW215137   6.788   0.908   1.625
 4414SOL     OW15138   8.797  12.968  14.388
 4414SOL    HW115139   8.861  12.962  14.459
 4414SOL    HW215140   8.716  12.993  14.431
 4415SOL     OW15141  12.863   1.608  14.261
 4415SOL    HW115142  12.950   1.648  14.255
 4415SOL    HW215143  12.879   1.514  14.246
 4416SOL     OW15144   4.140   2.865   6.891
 4416SOL    HW115145   4.103   2.929   6.831
 4416SOL    HW215146   4.229   2.850   6.858
 4417SOL     OW15147   3.451  14.537  13.624
 4417SOL    HW115148   3.540  14.538  13.592
 4417SOL    HW215149   3.445  14.612  13.683
 4418SOL     OW15150   3.525  12.508  11.572
 4418SOL    HW115151   3.536  12.600  11.547
 4418SOL    HW215152   3.436  12.486  11.544
 4419SOL     OW15153   3.808   7.787   6.244
 4419SOL    HW115154   3.828   7.841   6.320
 4419SOL    HW215155   3.715   7.765   6.254
 4420SOL     OW15156   6.744   0.206  11.890
 4420SOL    HW115157   6.738   0.240  11.980
 4420SOL    HW215158   6.707   0.118  11.896
 4421SOL     OW15159  11.031  14.048   8.081
 4421SOL    HW115160  11.012  14.067   7.989
 4421SOL    HW215161  11.125  14.034   8.084
 4422SOL     OW15162   5.033  12.601  14.596
 4422SOL    HW115163   5.080  12.527  14.635
 4422SOL    HW215164   4.962  12.560  14.545
 4423SOL     OW15165   5.226   7.862   6.027
 4423SOL    HW115166   5.222   7.867   5.932
 4423SOL    HW215167   5.297   7.800   6.045
 4424SOL     OW15168  11.760   0.296   7.050
 4424SOL    HW115169  11.776   0.375   6.999
 4424SOL    HW215170  11.814   0.229   7.007
 4425SOL     OW15171   9.158  11.703  13.117
 4425SOL    HW115172   9.146  11.722  13.024
 4425SOL    HW215173   9.243  11.741  13.139
 4426SOL     OW15174   4.030   0.820   4.455
 4426SOL    HW115175   4.082   0.740   4.453
 4426SOL    HW215176   4.056   0.867   4.375
 4427SOL     OW15177  11.423   4.498  14.813
 4427SOL    HW115178  11.515   4.526  14.807
 4427SOL    HW215179  11.376   4.556  14.753
 4428SOL     OW15180   4.620   0.758   4.038
 4428SOL    HW115181   4.615   0.847   4.004
 4428SOL    HW215182   4.647   0.769   4.129
 4429SOL     OW15183   9.208   4.735   3.929
 4429SOL    HW115184   9.216   4.830   3.920
 4429SOL    HW215185   9.117   4.721   3.955
 4430SOL     OW15186   7.052  12.518   4.168
 4430SOL    HW115187   7.138  12.485   4.142
 4430SOL    HW215188   6.993  12.443   4.155
 4431SOL     OW15189   0.302  10.340  12.248
 4431SOL    HW115190   0.390  10.370  12.223
 4431SOL    HW215191   0.303  10.341  12.344
 4432SOL     OW15192   2.818   3.609   1.483
 4432SOL    HW115193   2.731   3.640   1.509
 4432SOL    HW215194   2.804   3.519   1.455
 4433SOL     OW15195   3.975   3.858   5.927
 4433SOL    HW115196   3.983   3.848   5.832
 4433SOL    HW215197   3.981   3.952   5.942
 4434SOL     OW15198  11.258   3.617  13.677
 4434SOL    HW115199  11.333   3.671  13.651
 4434SOL    HW215200  11.216   3.666  13.748
 4435SOL     OW15201   7.448   2.826   7.024
 4435SOL    HW115202   7.370   2.838   7.079
 4435SOL    HW215203   7.521   2.832   7.085
 4436SOL     OW15204  10.486   7.647   9.290
 4436SOL    HW115205  10.426   7.648   9.215
 4436SOL    HW215206  10.533   7.564   9.283
 4437SOL     OW15207  13.217   5.004   8.051
 4437SOL    HW115208  13.154   4.998   8.124
 4437SOL    HW215209  13.163   5.007   7.973
 4438SOL     OW15210  12.268   3.510   0.047
 4438SOL    HW115211  12.231   3.440   0.101
 4438SOL    HW215212  12.300   3.465  14.855
 4439SOL     OW15213   6.096  11.096  11.291
 4439SOL    HW115214   6.145  11.136  11.218
 4439SOL    HW215215   6.006  11.124  11.277
 4440SOL     OW15216   9.817   4.216   1.512
 4440SOL    HW115217   9.899   4.257   1.486
 4440SOL    HW215218   9.762   4.288   1.542
 4441SOL     OW15219   0.257   5.129   6.889
 4441SOL    HW115220   0.290   5.065   6.951
 4441SOL    HW215221   0.180   5.087   6.850
 4442SOL     OW15222   9.059   1.437   7.446
 4442SOL    HW115223   8.963   1.434   7.442
 4442SOL    HW215224   9.083   1.504   7.381
 4443SOL     OW15225   4.725   3.850   4.802
 4443SOL    HW115226   4.714   3.773   4.858
 4443SOL    HW215227   4.646   3.850   4.747
 4444SOL     OW15228  13.682   0.806  14.642
 4444SOL    HW115229  13.686   0.893  14.602
 4444SOL    HW215230  13.657   0.824  14.733
 4445SOL     OW15231   0.577   1.550   2.984
 4445SOL    HW115232   0.642   1.621   2.985
 4445SOL    HW215233   0.500   1.589   3.025
 4446SOL     OW15234   4.367   8.270   4.411
 4446SOL    HW115235   4.311   8.223   4.473
 4446SOL    HW215236   4.453   8.274   4.455
 4447SOL     OW15237  10.585   1.191   4.471
 4447SOL    HW115238  10.501   1.237   4.478
 4447SOL    HW215239  10.596   1.148   4.556
 4448SOL     OW15240   2.937   1.478   6.305
 4448SOL    HW115241   2.969   1.568   6.300
 4448SOL    HW215242   2.957   1.440   6.220
 4449SOL     OW15243   6.202  10.304  14.433
 4449SOL    HW115244   6.166  10.221  14.400
 4449SOL    HW215245   6.297  10.292  14.430
 4450SOL     OW15246   8.609  12.068   7.050
 4450SOL    HW115247   8.596  12.163   7.059
 4450SOL    HW215248   8.655  12.043   7.130
 4451SOL     OW15249   0.826   3.161  10.348
 4451SOL    HW115250   0.845   3.213  10.427
 4451SOL    HW215251   0.911   3.151  10.306
 4452SOL     OW15252  14.065  11.481  12.820
 4452SOL    HW115253  14.029  11.494  12.733
 4452SOL    HW215254  14.077  11.386  12.827
 4453SOL     OW15255   4.286   0.721  12.285
 4453SOL    HW115256   4.379   0.743  12.272
 4453SOL    HW215257   4.253   0.791  12.341
 4454SOL     OW15258  10.741  11.758   6.954
 4454SOL    HW115259  10.726  11.836   7.007
 4454SOL    HW215260  10.776  11.791   6.871
 4455SOL     OW15261   9.621  11.156   4.832
 4455SOL    HW115262   9.564  11.232   4.826
 4455SOL    HW215263   9.645  11.136   4.741
 4456SOL     OW15264   2.608  13.680  12.890
 4456SOL    HW115265   2.652  13.729  12.820
 4456SOL    HW215266   2.522  13.658  12.853
 4457SOL     OW15267  14.220  10.115   5.404
 4457SOL    HW115268  14.202  10.147   5.316
 4457SOL    HW215269  14.305  10.153   5.427
 4458SOL     OW15270   6.920  10.694   7.402
 4458SOL    HW115271   6.828  10.678   7.422
 4458SOL    HW215272   6.922  10.710   7.308
 4459SOL     OW15273   6.435  10.882  10.184
 4459SOL    HW115274   6.460  10.957  10.130
 4459SOL    HW215275   6.354  10.849  10.144
 4460SOL     OW15276   3.204  13.340   7.142
 4460SOL    HW115277   3.220  13.333   7.236
 4460SOL    HW215278   3.278  13.296   7.101
 4461SOL     OW15279   7.081   3.591  10.282
 4461SOL    HW115280   7.101   3.609  10.190
 4461SOL    HW215281   7.137   3.650  10.331
 4462SOL     OW15282  11.644   9.827  10.709
 4462SOL    HW115283  11.738   9.847  10.715
 4462SOL    HW215284  11.615   9.823  10.800
 4463SOL     OW15285  11.593   1.709   7.258
 4463SOL    HW115286  11.512   1.679   7.299
 4463SOL    HW215287  11.641   1.752   7.329
 4464SOL     OW15288   4.285  12.201   4.865
 4464SOL    HW115289   4.340  12.273   4.832
 4464SOL    HW215290   4.254  12.231   4.950
 4465SOL     OW15291  12.156   7.445   6.533
 4465SOL    HW115292  12.135   7.480   6.619
 4465SOL    HW215293  12.176   7.523   6.480
 4466SOL     OW15294   4.683   8.064  13.940
 4466SOL    HW115295   4.689   7.969  13.951
 4466SOL    HW215296   4.593   8.080  13.913
 4467SOL     OW15297   7.953   9.684  10.603
 4467SOL    HW115298   7.975   9.592  10.586
 4467SOL    HW215299   8.023   9.715  10.660
 4468SOL     OW15300   7.862  14.749  13.662
 4468SOL    HW115301   7.898  14.737  13.750
 4468SOL    HW215302   7.826  14.837  13.662
 4469SOL     OW15303   2.205  14.025   7.024
 4469SOL    HW115304   2.291  13.985   7.025
 4469SOL    HW215305   2.146  13.957   7.057
 4470SOL     OW15306  11.220  11.568   9.279
 4470SOL    HW115307  11.181  11.655   9.276
 4470SOL    HW215308  11.292  11.572   9.216
 4471SOL     OW15309   5.841  11.647   5.803
 4471SOL    HW115310   5.833  11.711   5.873
 4471SOL    HW215311   5.788  11.682   5.732
 4472SOL     OW15312   2.714   6.014  11.907
 4472SOL    HW115313   2.804   6.043  11.894
 4472SOL    HW215314   2.661   6.082  11.866
 4473SOL     OW15315  11.905   4.343   9.393
 4473SOL    HW115316  11.965   4.276   9.424
 4473SOL    HW215317  11.850   4.364   9.469
 4474SOL     OW15318   5.887  13.563   9.918
 4474SOL    HW115319   5.808  13.573   9.970
 4474SOL    HW215320   5.895  13.469   9.904
 4475SOL     OW15321  12.058   1.038   1.536
 4475SOL    HW115322  12.051   1.107   1.602
 4475SOL    HW215323  12.029   0.959   1.581
 4476SOL     OW15324   6.736   7.900  12.796
 4476SOL    HW115325   6.646   7.887  12.826
 4476SOL    HW215326   6.753   7.827  12.736
 4477SOL     OW15327   2.262  14.684   0.428
 4477SOL    HW115328   2.184  14.740   0.422
 4477SOL    HW215329   2.334  14.745   0.445
 4478SOL     OW15330   1.648   0.999   5.997
 4478SOL    HW115331   1.700   0.942   6.053
 4478SOL    HW215332   1.577   0.943   5.964
 4479SOL     OW15333  14.584   4.443  11.417
 4479SOL    HW115334  14.546   4.453  11.330
 4479SOL    HW215335  14.512   4.464  11.478
 4480SOL     OW15336   2.746   8.960  11.337
 4480SOL    HW115337   2.767   9.042  11.293
 4480SOL    HW215338   2.663   8.932  11.297
 4481SOL     OW15339   7.880   0.954   7.311
 4481SOL    HW115340   7.835   1.036   7.288
 4481SOL    HW215341   7.972   0.970   7.288
 4482SOL     OW15342   0.793  14.730   8.550
 4482SOL    HW115343   0.850  14.739   8.627
 4482SOL    HW215344   0.784  14.636   8.538
 4483SOL     OW15345   2.713   5.667   4.324
 4483SOL    HW115346   2.665   5.590   4.293
 4483SOL    HW215347   2.652   5.740   4.311
 4484SOL     OW15348   5.162   5.487   4.096
 4484SOL    HW115349   5.249   5.459   4.070
 4484SOL    HW215350   5.164   5.488   4.192
 4485SOL     OW15351   6.850  13.352  10.925
 4485SOL    HW115352   6.759  13.323  10.936
 4485SOL    HW215353   6.899  13.270  10.913
 4486SOL     OW15354   7.706   1.856   1.156
 4486SOL    HW115355   7.700   1.940   1.110
 4486SOL    HW215356   7.681   1.791   1.091
 4487SOL     OW15357   4.846  13.740  12.712
 4487SOL    HW115358   4.882  13.706  12.794
 4487SOL    HW215359   4.818  13.663  12.664
 4488SOL     OW15360  14.502  10.390   8.319
 4488SOL    HW115361  14.509  10.320   8.254
 4488SOL    HW215362  14.590  10.397   8.356
 4489SOL     OW15363  14.817   6.252   3.123
 4489SOL    HW115364   0.005   6.242   3.065
 4489SOL    HW215365  14.797   6.346   3.121
 4490SOL     OW15366  13.809  10.876   4.569
 4490SOL    HW115367  13.899  10.906   4.579
 4490SOL    HW215368  13.757  10.957   4.574
 4491SOL     OW15369   6.629   9.090  14.434
 4491SOL    HW115370   6.631   9.158  14.501
 4491SOL    HW215371   6.591   9.014  14.478
 4492SOL     OW15372   5.272   2.790   1.793
 4492SOL    HW115373   5.291   2.698   1.814
 4492SOL    HW215374   5.176   2.794   1.790
 4493SOL     OW15375   2.226  14.652  10.227
 4493SOL    HW115376   2.176  14.688  10.154
 4493SOL    HW215377   2.161  14.602  10.278
 4494SOL     OW15378  12.533   9.208  10.748
 4494SOL    HW115379  12.516   9.226  10.655
 4494SOL    HW215380  12.627   9.186  10.751
 4495SOL     OW15381   0.115  12.014  13.404
 4495SOL    HW115382   0.172  12.080  13.365
 4495SOL    HW215383   0.031  12.059  13.416
 4496SOL     OW15384   9.397   0.199   9.307
 4496SOL    HW115385   9.308   0.196   9.272
 4496SOL    HW215386   9.391   0.259   9.382
 4497SOL     OW15387   6.166   8.345   1.107
 4497SOL    HW115388   6.197   8.350   1.197
 4497SOL    HW215389   6.233   8.294   1.061
 4498SOL     OW15390  10.028   7.232  13.376
 4498SOL    HW115391  10.036   7.157  13.434
 4498SOL    HW215392   9.961   7.206  13.313
 4499SOL     OW15393  13.519  10.785   9.536
 4499SOL    HW115394  13.476  10.733   9.468
 4499SOL    HW215395  13.492  10.875   9.518
 4500SOL     OW15396   8.698  12.789  11.978
 4500SOL    HW115397   8.745  12.801  11.895
 4500SOL    HW215398   8.757  12.736  12.032
 4501SOL     OW15399   2.817  13.066  13.814
 4501SOL    HW115400   2.821  13.143  13.757
 4501SOL    HW215401   2.761  13.092  13.887
 4502SOL     OW15402   8.525   8.782  13.219
 4502SOL    HW115403   8.516   8.747  13.307
 4502SOL    HW215404   8.507   8.708  13.161
 4503SOL     OW15405   3.863   4.925  13.660
 4503SOL    HW115406   3.807   4.949  13.734
 4503SOL    HW215407   3.949   4.962  13.681
 4504SOL     OW15408  14.245   7.573  11.727
 4504SOL    HW115409  14.200   7.514  11.787
 4504SOL    HW215410  14.209   7.552  11.640
 4505SOL     OW15411  14.388   6.672   1.057
 4505SOL    HW115412  14.401   6.767   1.062
 4505SOL    HW215413  14.297   6.659   1.085
 4506SOL     OW15414  11.936   6.766   7.434
 4506SOL    HW115415  11.912   6.724   7.517
 4506SOL    HW215416  11.870   6.737   7.372
 4507SOL     OW15417   3.809   9.963  12.161
 4507SOL    HW115418   3.860  10.000  12.089
 4507SOL    HW215419   3.738   9.915  12.118
 4508SOL     OW15420   5.741   5.896  11.369
 4508SOL    HW115421   5.686   5.823  11.341
 4508SOL    HW215422   5.774   5.869  11.455
 4509SOL     OW15423   6.905   6.552   3.946
 4509SOL    HW115424   6.911   6.456   3.940
 4509SOL    HW215425   6.996   6.582   3.945
 4510SOL     OW15426   1.951  10.555   6.300
 4510SOL    HW115427   1.945  10.506   6.218
 4510SOL    HW215428   2.036  10.600   6.295
 4511SOL     OW15429  14.511  14.835   8.520
 4511SOL    HW115430  14.483  14.851   8.610
 4511SOL    HW215431  14.480   0.023   8.471
 4512SOL     OW15432  10.274   6.557   5.500
 4512SOL    HW115433  10.290   6.557   5.595
 4512SOL    HW215434  10.356   6.526   5.462
 4513SOL     OW15435   2.846   4.480   3.829
 4513SOL    HW115436   2.831   4.496   3.922
 4513SOL    HW215437   2.839   4.385   3.820
 4514SOL     OW15438   2.086   3.130   6.811
 4514SOL    HW115439   2.080   3.069   6.737
 4514SOL    HW215440   2.042   3.084   6.883
 4515SOL     OW15441   7.312  13.119   3.830
 4515SOL    HW115442   7.318  13.052   3.897
 4515SOL    HW215443   7.256  13.081   3.763
 4516SOL     OW15444   2.756   1.919   4.964
 4516SOL    HW115445   2.847   1.890   4.972
 4516SOL    HW215446   2.725   1.880   4.882
 4517SOL     OW15447   6.699   4.564   9.312
 4517SOL    HW115448   6.764   4.600   9.252
 4517SOL    HW215449   6.749   4.540   9.390
 4518SOL     OW15450  14.547  11.668   8.689
 4518SOL    HW115451  14.456  11.641   8.672
 4518SOL    HW215452  14.553  11.755   8.649
 4519SOL     OW15453   4.337   1.066  13.150
 4519SOL    HW115454   4.307   1.145  13.105
 4519SOL    HW215455   4.350   1.094  13.241
 4520SOL     OW15456  10.373   6.076   0.384
 4520SOL    HW115457  10.407   6.084   0.473
 4520SOL    HW215458  10.284   6.041   0.395
 4521SOL     OW15459   1.154  14.175   7.640
 4521SOL    HW115460   1.187  14.128   7.564
 4521SOL    HW215461   1.147  14.109   7.708
 4522SOL     OW15462   9.275  14.412   3.480
 4522SOL    HW115463   9.301  14.330   3.439
 4522SOL    HW215464   9.334  14.477   3.442
 4523SOL     OW15465   3.438   9.788   9.832
 4523SOL    HW115466   3.481   9.704   9.845
 4523SOL    HW215467   3.481   9.847   9.893
 4524SOL     OW15468   1.928   9.280   9.512
 4524SOL    HW115469   1.933   9.272   9.607
 4524SOL    HW215470   1.883   9.200   9.484
 4525SOL     OW15471   6.164   3.915   0.530
 4525SOL    HW115472   6.128   3.842   0.481
 4525SOL    HW215473   6.089   3.973   0.546
 4526SOL     OW15474   3.079  12.738   1.225
 4526SOL    HW115475   2.997  12.754   1.178
 4526SOL    HW215476   3.142  12.798   1.184
 4527SOL     OW15477   9.083   6.320   8.397
 4527SOL    HW115478   9.018   6.264   8.355
 4527SOL    HW215479   9.142   6.345   8.325
 4528SOL     OW15480  11.830  13.546  14.019
 4528SOL    HW115481  11.806  13.587  13.935
 4528SOL    HW215482  11.751  13.498  14.046
 4529SOL     OW15483  12.242   6.604   5.365
 4529SOL    HW115484  12.320   6.599   5.309
 4529SOL    HW215485  12.276   6.598   5.454
 4530SOL     OW15486   5.418   0.759  12.390
 4530SOL    HW115487   5.477   0.698  12.346
 4530SOL    HW215488   5.351   0.703  12.430
 4531SOL     OW15489  14.621   9.844  10.131
 4531SOL    HW115490  14.652   9.765  10.176
 4531SOL    HW215491  14.594   9.903  10.202
 4532SOL     OW15492   4.664  13.862  10.452
 4532SOL    HW115493   4.667  13.946  10.407
 4532SOL    HW215494   4.681  13.797  10.383
 4533SOL     OW15495   5.172   2.431   0.375
 4533SOL    HW115496   5.154   2.371   0.448
 4533SOL    HW215497   5.096   2.489   0.373
 4534SOL     OW15498  10.928   0.860   7.299
 4534SOL    HW115499  10.836   0.858   7.326
 4534SOL    HW215500  10.925   0.852   7.203
 4535SOL     OW15501  14.529   8.667   3.647
 4535SOL    HW115502  14.467   8.684   3.718
 4535SOL    HW215503  14.562   8.754   3.623
 4536SOL     OW15504  13.298   9.759  14.778
 4536SOL    HW115505  13.322   9.797  14.862
 4536SOL    HW215506  13.329   9.822  14.713
 4537SOL     OW15507   3.737  12.410   5.923
 4537SOL    HW115508   3.810  12.416   5.984
 4537SOL    HW215509   3.660  12.436   5.974
 4538SOL     OW15510   3.254   1.621   4.733
 4538SOL    HW115511   3.292   1.538   4.763
 4538SOL    HW215512   3.177   1.594   4.683
 4539SOL     OW15513  12.093   3.609  11.110
 4539SOL    HW115514  12.165   3.641  11.165
 4539SOL    HW215515  12.029   3.681  11.111
 4540SOL     OW15516   1.443  11.924   6.938
 4540SOL    HW115517   1.352  11.896   6.949
 4540SOL    HW215518   1.495  11.850   6.970
 4541SOL     OW15519   2.483   4.148  10.266
 4541SOL    HW115520   2.476   4.065  10.219
 4541SOL    HW215521   2.488   4.214  10.197
 4542SOL     OW15522   4.959   4.811  13.327
 4542SOL    HW115523   4.977   4.737  13.269
 4542SOL    HW215524   4.895   4.777  13.389
 4543SOL     OW15525   1.977   0.622  14.736
 4543SOL    HW115526   1.889   0.658  14.747
 4543SOL    HW215527   2.035   0.698  14.742
 4544SOL     OW15528   3.658   3.278  11.108
 4544SOL    HW115529   3.606   3.216  11.056
 4544SOL    HW215530   3.656   3.241  11.196
 4545SOL     OW15531  11.639   8.304  13.760
 4545SOL    HW115532  11.680   8.382  13.797
 4545SOL    HW215533  11.570   8.282  13.823
 4546SOL     OW15534   1.761   0.140  14.746
 4546SOL    HW115535   1.799   0.052  14.744
 4546SOL    HW215536   1.684   0.131  14.803
 4547SOL     OW15537  11.573   4.834   4.454
 4547SOL    HW115538  11.562   4.749   4.496
 4547SOL    HW215539  11.657   4.866   4.487
 4548SOL     OW15540   6.503  14.573   4.490
 4548SOL    HW115541   6.568  14.503   4.491
 4548SOL    HW215542   6.422  14.529   4.463
 4549SOL     OW15543   7.355   9.081   4.126
 4549SOL    HW115544   7.432   9.133   4.148
 4549SOL    HW215545   7.324   9.048   4.210
 4550SOL     OW15546   2.317   1.844   7.412
 4550SOL    HW115547   2.406   1.878   7.400
 4550SOL    HW215548   2.323   1.787   7.488
 4551SOL     OW15549  11.032   4.209   2.693
 4551SOL    HW115550  11.110   4.247   2.652
 4551SOL    HW215551  11.013   4.265   2.768
 4552SOL     OW15552   2.221  11.658   6.108
 4552SOL    HW115553   2.290  11.597   6.083
 4552SOL    HW215554   2.267  11.734   6.144
 4553SOL     OW15555   9.776  11.758   0.700
 4553SOL    HW115556   9.802  11.683   0.754
 4553SOL    HW215557   9.723  11.812   0.759
 4554SOL     OW15558  14.479   4.154   6.498
 4554SOL    HW115559  14.537   4.204   6.556
 4554SOL    HW215560  14.483   4.200   6.414
 4555SOL     OW15561   9.019  12.577  10.299
 4555SOL    HW115562   9.009  12.498  10.245
 4555SOL    HW215563   9.011  12.545  10.389
 4556SOL     OW15564   7.855  11.196   8.744
 4556SOL    HW115565   7.902  11.261   8.795
 4556SOL    HW215566   7.768  11.192   8.784
 4557SOL     OW15567  11.952  11.741  10.028
 4557SOL    HW115568  11.962  11.661  10.079
 4557SOL    HW215569  11.858  11.751  10.016
 4558SOL     OW15570  13.781  13.538   0.405
 4558SOL    HW115571  13.794  13.518   0.312
 4558SOL    HW215572  13.855  13.495   0.449
 4559SOL     OW15573  13.794  13.794   6.625
 4559SOL    HW115574  13.791  13.845   6.544
 4559SOL    HW215575  13.789  13.703   6.595
 4560SOL     OW15576   4.164   9.092   2.694
 4560SOL    HW115577   4.208   9.177   2.699
 4560SOL    HW215578   4.099   9.103   2.624
 4561SOL     OW15579  14.414   9.143  14.065
 4561SOL    HW115580  14.351   9.197  14.017
 4561SOL    HW215581  14.490   9.137  14.007
 4562SOL     OW15582  12.493   0.382  10.313
 4562SOL    HW115583  12.563   0.386  10.378
 4562SOL    HW215584  12.415   0.413  10.359
 4563SOL     OW15585   1.129   4.779  13.907
 4563SOL    HW115586   1.057   4.726  13.942
 4563SOL    HW215587   1.203   4.718  13.901
 4564SOL     OW15588   4.895  14.084  14.030
 4564SOL    HW115589   4.861  13.996  14.043
 4564SOL    HW215590   4.859  14.135  14.103
 4565SOL     OW15591  14.394   9.936   9.330
 4565SOL    HW115592  14.363   9.867   9.389
 4565SOL    HW215593  14.422   9.889   9.251
 4566SOL     OW15594   7.983  11.396  11.017
 4566SOL    HW115595   7.958  11.305  11.007
 4566SOL    HW215596   7.987  11.410  11.111
 4567SOL     OW15597   3.927   0.917   7.701
 4567SOL    HW115598   3.932   0.912   7.796
 4567SOL    HW215599   3.848   0.969   7.684
 4568SOL     OW15600   8.926  12.458  10.812
 4568SOL    HW115601   8.916  12.367  10.782
 4568SOL    HW215602   8.899  12.456  10.903
 4569SOL     OW15603   7.789  11.585   4.946
 4569SOL    HW115604   7.811  11.598   4.854
 4569SOL    HW215605   7.794  11.490   4.959
 4570SOL     OW15606  12.518   3.189   6.351
 4570SOL    HW115607  12.473   3.124   6.405
 4570SOL    HW215608  12.610   3.162   6.352
 4571SOL     OW15609   8.581   4.398   5.951
 4571SOL    HW115610   8.587   4.477   6.005
 4571SOL    HW215611   8.570   4.431   5.862
 4572SOL     OW15612   5.337   8.382   6.613
 4572SOL    HW115613   5.430   8.362   6.602
 4572SOL    HW215614   5.334   8.477   6.627
 4573SOL     OW15615  14.248   9.112   8.674
 4573SOL    HW115616  14.247   9.177   8.744
 4573SOL    HW215617  14.321   9.139   8.617
 4574SOL     OW15618   6.360   2.941   4.239
 4574SOL    HW115619   6.440   2.962   4.287
 4574SOL    HW215620   6.313   3.024   4.234
 4575SOL     OW15621   9.176  11.943   3.821
 4575SOL    HW115622   9.084  11.917   3.810
 4575SOL    HW215623   9.206  11.893   3.897
 4576SOL     OW15624  12.281   9.079  12.997
 4576SOL    HW115625  12.376   9.090  12.999
 4576SOL    HW215626  12.264   9.037  12.913
 4577SOL     OW15627   0.157  13.951   8.563
 4577SOL    HW115628   0.162  13.890   8.488
 4577SOL    HW215629   0.229  14.013   8.547
 4578SOL     OW15630   0.294   7.249  11.597
 4578SOL    HW115631   0.347   7.284  11.668
 4578SOL    HW215632   0.263   7.327  11.550
 4579SOL     OW15633   0.783  14.207   4.805
 4579SOL    HW115634   0.861  14.151   4.802
 4579SOL    HW215635   0.728  14.174   4.734
 4580SOL     OW15636  11.645   3.443  11.263
 4580SOL    HW115637  11.630   3.366  11.319
 4580SOL    HW215638  11.719   3.488  11.303
 4581SOL     OW15639   3.564   8.466  14.290
 4581SOL    HW115640   3.501   8.488  14.359
 4581SOL    HW215641   3.585   8.550  14.249
 4582SOL     OW15642   6.421   4.543  11.005
 4582SOL    HW115643   6.512   4.516  10.996
 4582SOL    HW215644   6.385   4.539  10.917
 4583SOL     OW15645   7.338   3.523   8.965
 4583SOL    HW115646   7.315   3.551   9.053
 4583SOL    HW215647   7.395   3.593   8.932
 4584SOL     OW15648  11.997   5.110  11.494
 4584SOL    HW115649  11.967   5.035  11.442
 4584SOL    HW215650  11.945   5.105  11.574
 4585SOL     OW15651   0.952   7.587   8.317
 4585SOL    HW115652   0.957   7.503   8.363
 4585SOL    HW215653   0.965   7.565   8.225
 4586SOL     OW15654   9.812   6.833   2.570
 4586SOL    HW115655   9.719   6.823   2.547
 4586SOL    HW215656   9.818   6.923   2.604
 4587SOL     OW15657  11.325   0.535   4.171
 4587SOL    HW115658  11.245   0.551   4.220
 4587SOL    HW215659  11.321   0.443   4.147
 4588SOL     OW15660   0.861   5.553  10.281
 4588SOL    HW115661   0.847   5.644  10.307
 4588SOL    HW215662   0.829   5.502  10.355
 4589SOL     OW15663   0.708   5.082   7.623
 4589SOL    HW115664   0.697   5.001   7.674
 4589SOL    HW215665   0.680   5.151   7.682
 4590SOL     OW15666   7.328  12.078   2.669
 4590SOL    HW115667   7.248  12.114   2.629
 4590SOL    HW215668   7.325  12.108   2.760
 4591SOL     OW15669   0.517   5.809   4.789
 4591SOL    HW115670   0.584   5.844   4.731
 4591SOL    HW215671   0.480   5.886   4.832
 4592SOL     OW15672  13.340  13.347  14.647
 4592SOL    HW115673  13.332  13.432  14.691
 4592SOL    HW215674  13.401  13.364  14.575
 4593SOL     OW15675   8.024   9.939   0.544
 4593SOL    HW115676   8.011  10.034   0.533
 4593SOL    HW215677   8.116   9.925   0.522
 4594SOL     OW15678   6.258   7.014   1.660
 4594SOL    HW115679   6.176   7.019   1.612
 4594SOL    HW215680   6.269   7.100   1.700
 4595SOL     OW15681   3.115   4.230  14.564
 4595SOL    HW115682   3.025   4.261  14.575
 4595SOL    HW215683   3.169   4.308  14.578
 4596SOL     OW15684  13.812   1.759   3.337
 4596SOL    HW115685  13.787   1.676   3.297
 4596SOL    HW215686  13.907   1.754   3.345
 4597SOL     OW15687   1.673  14.487  10.069
 4597SOL    HW115688   1.599  14.435  10.102
 4597SOL    HW215689   1.694  14.448   9.984
 4598SOL     OW15690   6.695   2.500   1.965
 4598SOL    HW115691   6.743   2.525   1.886
 4598SOL    HW215692   6.761   2.460   2.021
 4599SOL     OW15693   8.162   9.475   1.907
 4599SOL    HW115694   8.235   9.475   1.845
 4599SOL    HW215695   8.088   9.507   1.856
 4600SOL     OW15696   7.693  14.278   7.482
 4600SOL    HW115697   7.774  14.232   7.462
 4600SOL    HW215698   7.708  14.317   7.569
 4601SOL     OW15699  10.627  14.071   8.575
 4601SOL    HW115700  10.623  13.992   8.629
 4601SOL    HW215701  10.715  14.070   8.538
 4602SOL     OW15702   1.652   5.782  11.960
 4602SOL    HW115703   1.665   5.801  12.053
 4602SOL    HW215704   1.666   5.865  11.916
 4603SOL     OW15705   4.693   1.037   3.256
 4603SOL    HW115706   4.675   1.123   3.217
 4603SOL    HW215707   4.736   0.987   3.187
 4604SOL     OW15708  14.657   5.608  12.567
 4604SOL    HW115709  14.674   5.653  12.484
 4604SOL    HW215710  14.650   5.679  12.631
 4605SOL     OW15711   8.196   5.647   8.795
 4605SOL    HW115712   8.242   5.564   8.811
 4605SOL    HW215713   8.159   5.637   8.708
 4606SOL     OW15714   0.694   1.713   5.104
 4606SOL    HW115715   0.635   1.641   5.127
 4606SOL    HW215716   0.753   1.675   5.039
 4607SOL     OW15717   0.037   4.882   4.335
 4607SOL    HW115718   0.022   4.922   4.421
 4607SOL    HW215719   0.090   4.946   4.288
 4608SOL     OW15720  14.152   1.583   0.464
 4608SOL    HW115721  14.177   1.530   0.389
 4608SOL    HW215722  14.195   1.542   0.539
 4609SOL     OW15723   9.472   0.074   3.188
 4609SOL    HW115724   9.558   0.040   3.213
 4609SOL    HW215725   9.465   0.157   3.235
 4610SOL     OW15726   8.718   9.585   2.121
 4610SOL    HW115727   8.722   9.579   2.026
 4610SOL    HW215728   8.670   9.507   2.148
 4611SOL     OW15729   7.034  14.883   4.444
 4611SOL    HW115730   6.978  14.814   4.408
 4611SOL    HW215731   7.008   0.075   4.398
 4612SOL     OW15732   5.185   3.490   0.955
 4612SOL    HW115733   5.265   3.499   1.006
 4612SOL    HW215734   5.117   3.472   1.020
 4613SOL     OW15735  10.502  11.257   5.220
 4613SOL    HW115736  10.523  11.283   5.310
 4613SOL    HW215737  10.460  11.172   5.228
 4614SOL     OW15738  10.406   8.452  11.494
 4614SOL    HW115739  10.491   8.490  11.471
 4614SOL    HW215740  10.415   8.358  11.475
 4615SOL     OW15741   4.045   9.983   1.927
 4615SOL    HW115742   4.081  10.061   1.884
 4615SOL    HW215743   4.105   9.912   1.901
 4616SOL     OW15744   1.600   6.434   8.832
 4616SOL    HW115745   1.587   6.503   8.768
 4616SOL    HW215746   1.515   6.390   8.838
 4617SOL     OW15747  10.426   7.042   7.325
 4617SOL    HW115748  10.336   7.021   7.347
 4617SOL    HW215749  10.430   7.036   7.229
 4618SOL     OW15750  14.076   2.768  10.211
 4618SOL    HW115751  14.103   2.730  10.127
 4618SOL    HW215752  14.122   2.716  10.277
 4619SOL     OW15753   8.678  11.176   3.348
 4619SOL    HW115754   8.731  11.098   3.330
 4619SOL    HW215755   8.698  11.198   3.439
 4620SOL     OW15756  12.623  10.644   9.178
 4620SOL    HW115757  12.699  10.692   9.147
 4620SOL    HW215758  12.641  10.553   9.157
 4621SOL     OW15759  12.428  13.953  12.628
 4621SOL    HW115760  12.499  13.954  12.691
 4621SOL    HW215761  12.405  13.861  12.618
 4622SOL     OW15762   8.370   7.562   4.099
 4622SOL    HW115763   8.313   7.636   4.121
 4622SOL    HW215764   8.416   7.542   4.180
 4623SOL     OW15765   4.385   9.483  12.952
 4623SOL    HW115766   4.475   9.512  12.965
 4623SOL    HW215767   4.356   9.454  13.039
 4624SOL     OW15768   0.023   3.610   9.642
 4624SOL    HW115769   0.104   3.650   9.612
 4624SOL    HW215770   0.046   3.518   9.658
 4625SOL     OW15771   8.223  10.667   6.177
 4625SOL    HW115772   8.220  10.588   6.124
 4625SOL    HW215773   8.314  10.695   6.172
 4626SOL     OW15774  11.805   0.328   8.517
 4626SOL    HW115775  11.801   0.234   8.498
 4626SOL    HW215776  11.850   0.333   8.601
 4627SOL     OW15777  10.524   4.094   0.839
 4627SOL    HW115778  10.452   4.041   0.805
 4627SOL    HW215779  10.498   4.185   0.822
 4628SOL     OW15780   6.403   5.034   8.204
 4628SOL    HW115781   6.479   4.998   8.159
 4628SOL    HW215782   6.409   5.000   8.293
 4629SOL     OW15783   6.958  13.988  13.570
 4629SOL    HW115784   6.887  14.026  13.622
 4629SOL    HW215785   6.965  13.898  13.601
 4630SOL     OW15786  11.972   3.296  13.150
 4630SOL    HW115787  12.063   3.324  13.160
 4630SOL    HW215788  11.947   3.261  13.235
 4631SOL     OW15789   3.635  12.440  14.179
 4631SOL    HW115790   3.549  12.472  14.206
 4631SOL    HW215791   3.618  12.396  14.096
 4632SOL     OW15792   3.345   6.525   6.040
 4632SOL    HW115793   3.276   6.533   6.107
 4632SOL    HW215794   3.408   6.593   6.063
 4633SOL     OW15795  13.739   0.687   4.060
 4633SOL    HW115796  13.651   0.650   4.056
 4633SOL    HW215797  13.725   0.780   4.079
 4634SOL     OW15798   6.155   0.294   8.097
 4634SOL    HW115799   6.197   0.293   8.010
 4634SOL    HW215800   6.153   0.202   8.123
 4635SOL     OW15801   0.027   6.790  13.402
 4635SOL    HW115802   0.056   6.807  13.492
 4635SOL    HW215803   0.061   6.863  13.351
 4636SOL     OW15804  14.010   6.625   1.410
 4636SOL    HW115805  13.918   6.646   1.394
 4636SOL    HW215806  14.025   6.650   1.501
 4637SOL     OW15807  11.056   5.774   4.406
 4637SOL    HW115808  11.020   5.697   4.449
 4637SOL    HW215809  11.141   5.788   4.448
 4638SOL     OW15810   3.955   9.647   7.148
 4638SOL    HW115811   4.032   9.685   7.190
 4638SOL    HW215812   3.914   9.719   7.102
 4639SOL     OW15813   9.654  11.468   1.575
 4639SOL    HW115814   9.620  11.523   1.505
 4639SOL    HW215815   9.731  11.515   1.608
 4640SOL     OW15816   1.004   4.775   6.100
 4640SOL    HW115817   0.926   4.822   6.129
 4640SOL    HW215818   1.076   4.836   6.115
 4641SOL     OW15819  13.461   2.876  10.697
 4641SOL    HW115820  13.532   2.813  10.706
 4641SOL    HW215821  13.491   2.953  10.746
 4642SOL     OW15822   0.833   9.029  12.207
 4642SOL    HW115823   0.831   9.053  12.299
 4642SOL    HW215824   0.880   9.100  12.164
 4643SOL     OW15825   7.084   8.661  14.161
 4643SOL    HW115826   7.123   8.640  14.076
 4643SOL    HW215827   7.138   8.614  14.224
 4644SOL     OW15828   1.851   2.806   0.963
 4644SOL    HW115829   1.884   2.854   1.039
 4644SOL    HW215830   1.928   2.794   0.907
 4645SOL     OW15831   6.740   8.204   4.681
 4645SOL    HW115832   6.672   8.152   4.639
 4645SOL    HW215833   6.810   8.142   4.701
 4646SOL     OW15834   4.786   7.465   5.878
 4646SOL    HW115835   4.833   7.526   5.821
 4646SOL    HW215836   4.726   7.521   5.928
 4647SOL     OW15837  10.483  10.969   3.950
 4647SOL    HW115838  10.394  10.993   3.974
 4647SOL    HW215839  10.488  10.983   3.856
 4648SOL     OW15840   4.452   8.278   0.637
 4648SOL    HW115841   4.489   8.213   0.696
 4648SOL    HW215842   4.360   8.254   0.630
 4649SOL     OW15843   6.557   6.206   4.148
 4649SOL    HW115844   6.575   6.120   4.187
 4649SOL    HW215845   6.464   6.220   4.164
 4650SOL     OW15846  10.377   4.445   9.886
 4650SOL    HW115847  10.311   4.513   9.893
 4650SOL    HW215848  10.460   4.492   9.879
 4651SOL     OW15849  11.022   6.859   2.732
 4651SOL    HW115850  10.959   6.854   2.804
 4651SOL    HW215851  11.102   6.821   2.767
 4652SOL     OW15852  13.715  12.921   1.470
 4652SOL    HW115853  13.680  12.946   1.385
 4652SOL    HW215854  13.669  12.840   1.492
 4653SOL     OW15855   1.898   9.997   2.931
 4653SOL    HW115856   1.915  10.082   2.892
 4653SOL    HW215857   1.906  10.011   3.025
 4654SOL     OW15858  11.808   5.195  11.658
 4654SOL    HW115859  11.818   5.271  11.600
 4654SOL    HW215860  11.779   5.233  11.742
 4655SOL     OW15861   1.927  10.796   4.505
 4655SOL    HW115862   1.959  10.840   4.427
 4655SOL    HW215863   1.884  10.717   4.473
 4656SOL     OW15864   3.474  14.319   1.774
 4656SOL    HW115865   3.440  14.405   1.799
 4656SOL    HW215866   3.484  14.325   1.679
 4657SOL     OW15867   0.226   9.120  13.762
 4657SOL    HW115868   0.190   9.200  13.800
 4657SOL    HW215869   0.176   9.050  13.804
 4658SOL     OW15870   4.933   9.378   9.102
 4658SOL    HW115871   4.911   9.323   9.177
 4658SOL    HW215872   4.939   9.466   9.138
 4659SOL     OW15873  12.576   7.610   6.223
 4659SOL    HW115874  12.645   7.554   6.189
 4659SOL    HW215875  12.499   7.553   6.230
 4660SOL     OW15876   0.003   1.351  11.735
 4660SOL    HW115877  14.873   1.433  11.689
 4660SOL    HW215878  14.848   1.284  11.682
 4661SOL     OW15879  13.460   5.329  12.226
 4661SOL    HW115880  13.402   5.300  12.297
 4661SOL    HW215881  13.427   5.284  12.149
 4662SOL     OW15882   7.708  13.760   2.139
 4662SOL    HW115883   7.750  13.815   2.073
 4662SOL    HW215884   7.640  13.713   2.092
 4663SOL     OW15885  10.476   8.454  11.904
 4663SOL    HW115886  10.477   8.527  11.842
 4663SOL    HW215887  10.406   8.397  11.873
 4664SOL     OW15888   8.931   6.361   5.931
 4664SOL    HW115889   8.860   6.318   5.884
 4664SOL    HW215890   8.938   6.448   5.892
 4665SOL     OW15891   2.156   1.453   2.773
 4665SOL    HW115892   2.062   1.438   2.760
 4665SOL    HW215893   2.185   1.495   2.692
 4666SOL     OW15894   8.168   3.329   7.048
 4666SOL    HW115895   8.253   3.372   7.058
 4666SOL    HW215896   8.151   3.332   6.954
 4667SOL     OW15897  11.327   0.213   9.615
 4667SOL    HW115898  11.351   0.137   9.561
 4667SOL    HW215899  11.323   0.179   9.704
 4668SOL     OW15900   9.515  11.486   4.434
 4668SOL    HW115901   9.460  11.469   4.510
 4668SOL    HW215902   9.475  11.563   4.392
 4669SOL     OW15903   9.086  14.871   4.902
 4669SOL    HW115904   9.128   0.040   4.836
 4669SOL    HW215905   8.994  14.867   4.875
 4670SOL     OW15906   1.893  10.831  14.745
 4670SOL    HW115907   1.840  10.772  14.798
 4670SOL    HW215908   1.886  10.916  14.788
 4671SOL     OW15909  12.394  12.984  13.275
 4671SOL    HW115910  12.344  13.053  13.319
 4671SOL    HW215911  12.459  13.032  13.223
 4672SOL     OW15912   9.471   7.235  12.159
 4672SOL    HW115913   9.554   7.244  12.113
 4672SOL    HW215914   9.472   7.306  12.223
 4673SOL     OW15915   3.070   7.533   4.822
 4673SOL    HW115916   3.100   7.613   4.780
 4673SOL    HW215917   3.141   7.471   4.810
 4674SOL     OW15918  10.651  11.514   2.045
 4674SOL    HW115919  10.677  11.423   2.032
 4674SOL    HW215920  10.642  11.523   2.139
 4675SOL     OW15921   8.560   8.675   6.589
 4675SOL    HW115922   8.532   8.585   6.610
 4675SOL    HW215923   8.651   8.679   6.618
 4676SOL     OW15924   5.576   6.085  13.593
 4676SOL    HW115925   5.572   6.020  13.523
 4676SOL    HW215926   5.491   6.080  13.636
 4677SOL     OW15927   3.153  13.962   9.635
 4677SOL    HW115928   3.080  13.949   9.695
 4677SOL    HW215929   3.150  14.055   9.613
 4678SOL     OW15930  12.519   7.945   1.211
 4678SOL    HW115931  12.549   7.857   1.234
 4678SOL    HW215932  12.599   7.997   1.208
 4679SOL     OW15933   9.947   2.460   9.841
 4679SOL    HW115934   9.916   2.550   9.853
 4679SOL    HW215935  10.042   2.467   9.842
 4680SOL     OW15936  10.267   1.218   6.690
 4680SOL    HW115937  10.184   1.177   6.667
 4680SOL    HW215938  10.250   1.312   6.683
 4681SOL     OW15939   5.528  14.083  14.238
 4681SOL    HW115940   5.567  14.069  14.152
 4681SOL    HW215941   5.495  14.173  14.236
 4682SOL     OW15942   9.385  13.286   0.660
 4682SOL    HW115943   9.342  13.247   0.584
 4682SOL    HW215944   9.317  13.284   0.728
 4683SOL     OW15945   3.800  14.712   6.419
 4683SOL    HW115946   3.750  14.786   6.387
 4683SOL    HW215947   3.812  14.729   6.513
 4684SOL     OW15948  12.412   2.355   9.137
 4684SOL    HW115949  12.323   2.388   9.122
 4684SOL    HW215950  12.443   2.330   9.050
 4685SOL     OW15951   4.759   4.834   8.298
 4685SOL    HW115952   4.805   4.781   8.364
 4685SOL    HW215953   4.670   4.842   8.333
 4686SOL     OW15954   3.254   7.189   1.590
 4686SOL    HW115955   3.175   7.159   1.634
 4686SOL    HW215956   3.290   7.256   1.648
 4687SOL     OW15957   4.017  11.717  11.860
 4687SOL    HW115958   4.037  11.749  11.772
 4687SOL    HW215959   4.061  11.779  11.918
 4688SOL     OW15960   1.090   6.242   5.646
 4688SOL    HW115961   1.027   6.310   5.621
 4688SOL    HW215962   1.170   6.291   5.667
 4689SOL     OW15963  13.484   4.334   6.908
 4689SOL    HW115964  13.445   4.359   6.991
 4689SOL    HW215965  13.536   4.256   6.928
 4690SOL     OW15966   1.405   0.528   9.463
 4690SOL    HW115967   1.379   0.578   9.386
 4690SOL    HW215968   1.442   0.447   9.428
 4691SOL     OW15969   6.095  13.181   3.811
 4691SOL    HW115970   6.023  13.242   3.796
 4691SOL    HW215971   6.052  13.097   3.830
 4692SOL     OW15972  14.593   3.806   3.634
 4692SOL    HW115973  14.647   3.882   3.617
 4692SOL    HW215974  14.521   3.839   3.688
 4693SOL     OW15975  12.896   2.032   4.405
 4693SOL    HW115976  12.964   2.089   4.442
 4693SOL    HW215977  12.930   1.943   4.420
 4694SOL     OW15978  13.373   4.861  11.208
 4694SOL    HW115979  13.385   4.895  11.297
 4694SOL    HW215980  13.354   4.938  11.155
 4695SOL     OW15981  12.851   4.424  10.189
 4695SOL    HW115982  12.858   4.473  10.271
 4695SOL    HW215983  12.786   4.356  10.208
 4696SOL     OW15984  14.646  14.695  12.014
 4696SOL    HW115985  14.587  14.696  12.089
 4696SOL    HW215986  14.594  14.730  11.942
 4697SOL     OW15987  10.030  13.855   2.110
 4697SOL    HW115988   9.957  13.899   2.153
 4697SOL    HW215989   9.990  13.804   2.039
 4698SOL     OW15990   6.779  12.665   9.001
 4698SOL    HW115991   6.733  12.720   8.937
 4698SOL    HW215992   6.852  12.719   9.031
 4699SOL     OW15993   9.859   2.273   2.806
 4699SOL    HW115994   9.858   2.316   2.720
 4699SOL    HW215995   9.872   2.180   2.786
 4700SOL     OW15996  11.488   8.442   9.008
 4700SOL    HW115997  11.513   8.473   8.921
 4700SOL    HW215998  11.571   8.435   9.055
 4701SOL     OW15999   2.623   2.059  10.214
 4701SOL    HW116000   2.596   2.003  10.286
 4701SOL    HW216001   2.631   2.147  10.253
 4702SOL     OW16002   6.652   8.107  13.629
 4702SOL    HW116003   6.691   8.175  13.574
 4702SOL    HW216004   6.584   8.068  13.574
 4703SOL     OW16005   3.415   4.524   2.670
 4703SOL    HW116006   3.440   4.607   2.710
 4703SOL    HW216007   3.353   4.485   2.731
 4704SOL     OW16008  14.068  14.077   6.883
 4704SOL    HW116009  13.995  14.018   6.863
 4704SOL    HW216010  14.134  14.056   6.817
 4705SOL     OW16011   5.675  13.601   6.937
 4705SOL    HW116012   5.741  13.615   7.005
 4705SOL    HW216013   5.678  13.681   6.884
 4706SOL     OW16014  14.008   4.489  11.588
 4706SOL    HW116015  13.982   4.413  11.640
 4706SOL    HW216016  13.930   4.544  11.585
 4707SOL     OW16017   4.436   0.178   4.884
 4707SOL    HW116018   4.453   0.257   4.936
 4707SOL    HW216019   4.343   0.183   4.864
 4708SOL     OW16020   1.010   3.902  11.832
 4708SOL    HW116021   1.033   3.981  11.783
 4708SOL    HW216022   1.061   3.908  11.913
 4709SOL     OW16023   0.400   5.657   5.541
 4709SOL    HW116024   0.317   5.619   5.570
 4709SOL    HW216025   0.459   5.645   5.616
 4710SOL     OW16026  11.792   9.536   4.754
 4710SOL    HW116027  11.875   9.506   4.718
 4710SOL    HW216028  11.812   9.561   4.845
 4711SOL     OW16029   0.842   6.862  13.933
 4711SOL    HW116030   0.759   6.911  13.928
 4711SOL    HW216031   0.883   6.893  14.013
 4712SOL     OW16032   6.692  12.473  14.412
 4712SOL    HW116033   6.665  12.542  14.473
 4712SOL    HW216034   6.784  12.490  14.395
 4713SOL     OW16035   6.176   8.070  11.383
 4713SOL    HW116036   6.142   8.104  11.300
 4713SOL    HW216037   6.102   8.024  11.421
 4714SOL     OW16038   5.026  14.505   2.407
 4714SOL    HW116039   4.946  14.458   2.431
 4714SOL    HW216040   5.061  14.457   2.332
 4715SOL     OW16041  10.055  12.784   0.387
 4715SOL    HW116042  10.011  12.863   0.419
 4715SOL    HW216043  10.075  12.734   0.466
 4716SOL     OW16044   0.975   3.204  13.182
 4716SOL    HW116045   0.941   3.287  13.149
 4716SOL    HW216046   1.060   3.226  13.221
 4717SOL     OW16047   0.673   8.006  10.086
 4717SOL    HW116048   0.747   8.037  10.139
 4717SOL    HW216049   0.651   7.920  10.122
 4718SOL     OW16050   4.553   0.450  11.481
 4718SOL    HW116051   4.545   0.355  11.468
 4718SOL    HW216052   4.498   0.468  11.558
 4719SOL     OW16053   5.301   9.093   8.894
 4719SOL    HW116054   5.253   9.025   8.941
 4719SOL    HW216055   5.283   9.173   8.944
 4720SOL     OW16056  11.486   5.925  13.610
 4720SOL    HW116057  11.453   5.836  13.619
 4720SOL    HW216058  11.411   5.981  13.629
 4721SOL     OW16059  10.450   2.613  14.397
 4721SOL    HW116060  10.543   2.599  14.380
 4721SOL    HW216061  10.445   2.705  14.424
 4722SOL     OW16062   6.417   8.003   3.073
 4722SOL    HW116063   6.512   8.010   3.086
 4722SOL    HW216064   6.407   7.966   2.986
 4723SOL     OW16065   7.125   9.496  13.977
 4723SOL    HW116066   7.090   9.480  13.890
 4723SOL    HW216067   7.166   9.583  13.970
 4724SOL     OW16068  12.380   6.878   1.511
 4724SOL    HW116069  12.439   6.826   1.457
 4724SOL    HW216070  12.303   6.822   1.522
 4725SOL     OW16071   1.489  11.273   8.336
 4725SOL    HW116072   1.542  11.309   8.265
 4725SOL    HW216073   1.550  11.223   8.389
 4726SOL     OW16074  12.861   2.638   9.303
 4726SOL    HW116075  12.781   2.691   9.297
 4726SOL    HW216076  12.887   2.622   9.212
 4727SOL     OW16077  14.434  14.695   7.139
 4727SOL    HW116078  14.392  14.668   7.221
 4727SOL    HW216079  14.430  14.790   7.140
 4728SOL     OW16080  10.967   6.003   9.137
 4728SOL    HW116081  10.941   6.083   9.182
 4728SOL    HW216082  10.899   5.990   9.071
 4729SOL     OW16083   4.799   0.319   6.494
 4729SOL    HW116084   4.726   0.301   6.553
 4729SOL    HW216085   4.766   0.387   6.435
 4730SOL     OW16086   2.381   4.293   6.780
 4730SOL    HW116087   2.316   4.356   6.813
 4730SOL    HW216088   2.464   4.340   6.785
 4731SOL     OW16089  10.723   8.599   1.933
 4731SOL    HW116090  10.679   8.672   1.976
 4731SOL    HW216091  10.815   8.622   1.934
 4732SOL     OW16092   2.585   9.805   9.603
 4732SOL    HW116093   2.560   9.895   9.582
 4732SOL    HW216094   2.524   9.779   9.672
 4733SOL     OW16095   7.837   9.782   1.310
 4733SOL    HW116096   7.814   9.690   1.295
 4733SOL    HW216097   7.773   9.831   1.259
 4734SOL     OW16098   3.875   7.510   4.992
 4734SOL    HW116099   3.835   7.521   5.079
 4734SOL    HW216100   3.969   7.517   5.009
 4735SOL     OW16101  10.806   9.553   7.365
 4735SOL    HW116102  10.823   9.533   7.457
 4735SOL    HW216103  10.857   9.632   7.348
 4736SOL     OW16104  12.742   5.762  13.400
 4736SOL    HW116105  12.660   5.726  13.365
 4736SOL    HW216106  12.794   5.685  13.422
 4737SOL     OW16107  14.801   0.856  11.055
 4737SOL    HW116108  14.747   0.855  10.976
 4737SOL    HW216109  14.817   0.949  11.071
 4738SOL     OW16110   2.778  14.243   4.954
 4738SOL    HW116111   2.704  14.291   4.916
 4738SOL    HW216112   2.783  14.162   4.903
 4739SOL     OW16113   2.313   2.196   8.824
 4739SOL    HW116114   2.334   2.103   8.817
 4739SOL    HW216115   2.262   2.214   8.744
 4740SOL     OW16116   5.058   8.030   9.139
 4740SOL    HW116117   4.998   8.010   9.067
 4740SOL    HW216118   5.133   8.072   9.096
 4741SOL     OW16119   4.755   6.273   7.591
 4741SOL    HW116120   4.798   6.241   7.670
 4741SOL    HW216121   4.764   6.368   7.595
 4742SOL     OW16122  11.325  13.707   3.129
 4742SOL    HW116123  11.389  13.734   3.195
 4742SOL    HW216124  11.288  13.789   3.097
 4743SOL     OW16125  14.129   9.072  10.995
 4743SOL    HW116126  14.131   8.977  10.994
 4743SOL    HW216127  14.125   9.097  10.903
 4744SOL     OW16128   4.758   1.401   8.598
 4744SOL    HW116129   4.719   1.362   8.676
 4744SOL    HW216130   4.721   1.350   8.525
 4745SOL     OW16131   0.911  13.260  10.352
 4745SOL    HW116132   0.875  13.316  10.421
 4745SOL    HW216133   0.988  13.308  10.320
 4746SOL     OW16134   7.042   1.037   6.494
 4746SOL    HW116135   6.956   1.006   6.520
 4746SOL    HW216136   7.094   0.958   6.481
 4747SOL     OW16137  12.715   3.922   3.842
 4747SOL    HW116138  12.781   3.977   3.884
 4747SOL    HW216139  12.694   3.967   3.760
 4748SOL     OW16140   8.668   3.214   2.363
 4748SOL    HW116141   8.651   3.300   2.324
 4748SOL    HW216142   8.675   3.233   2.457
 4749SOL     OW16143  13.452   4.532   2.750
 4749SOL    HW116144  13.368   4.494   2.724
 4749SOL    HW216145  13.514   4.501   2.683
 4750SOL     OW16146  13.074   4.776   7.364
 4750SOL    HW116147  13.018   4.714   7.318
 4750SOL    HW216148  13.029   4.860   7.355
 4751SOL     OW16149   3.526   1.596   2.025
 4751SOL    HW116150   3.517   1.691   2.020
 4751SOL    HW216151   3.550   1.580   2.116
 4752SOL     OW16152   1.854   3.656  14.390
 4752SOL    HW116153   1.888   3.706  14.316
 4752SOL    HW216154   1.761   3.643  14.369
 4753SOL     OW16155   0.364   9.420  11.341
 4753SOL    HW116156   0.364   9.331  11.376
 4753SOL    HW216157   0.273   9.437  11.319
 4754SOL     OW16158   3.900   2.713   5.215
 4754SOL    HW116159   3.872   2.719   5.124
 4754SOL    HW216160   3.995   2.705   5.210
 4755SOL     OW16161  13.101   9.687  13.378
 4755SOL    HW116162  13.195   9.675  13.362
 4755SOL    HW216163  13.097   9.761  13.439
 4756SOL     OW16164  14.472   0.342   8.711
 4756SOL    HW116165  14.449   0.343   8.804
 4756SOL    HW216166  14.561   0.308   8.709
 4757SOL     OW16167  11.630   7.905   6.060
 4757SOL    HW116168  11.579   7.843   6.113
 4757SOL    HW216169  11.614   7.990   6.100
 4758SOL     OW16170   3.830   3.511  13.619
 4758SOL    HW116171   3.898   3.574  13.593
 4758SOL    HW216172   3.879   3.442  13.664
 4759SOL     OW16173   7.631   6.277   6.789
 4759SOL    HW116174   7.633   6.373   6.789
 4759SOL    HW216175   7.675   6.252   6.870
 4760SOL     OW16176   7.401   9.652   7.434
 4760SOL    HW116177   7.496   9.641   7.435
 4760SOL    HW216178   7.368   9.571   7.395
 4761SOL     OW16179   1.702   2.826  14.821
 4761SOL    HW116180   1.755   2.906  14.824
 4761SOL    HW216181   1.752   2.762  14.872
 4762SOL     OW16182   1.505  14.134   3.510
 4762SOL    HW116183   1.513  14.041   3.489
 4762SOL    HW216184   1.590  14.159   3.546
 4763SOL     OW16185  14.366   4.635   3.385
 4763SOL    HW116186  14.337   4.554   3.426
 4763SOL    HW216187  14.451   4.653   3.425
 4764SOL     OW16188  14.337  12.034   8.641
 4764SOL    HW116189  14.251  12.010   8.606
 4764SOL    HW216190  14.321  12.054   8.733
 4765SOL     OW16191   2.824  12.334  12.494
 4765SOL    HW116192   2.757  12.283  12.448
 4765SOL    HW216193   2.871  12.379  12.424
 4766SOL     OW16194   0.555   8.546  10.726
 4766SOL    HW116195   0.610   8.494  10.668
 4766SOL    HW216196   0.532   8.487  10.797
 4767SOL     OW16197   5.647   8.876   3.965
 4767SOL    HW116198   5.666   8.891   4.058
 4767SOL    HW216199   5.700   8.942   3.919
 4768SOL     OW16200   0.383   5.605   3.608
 4768SOL    HW116201   0.348   5.684   3.650
 4768SOL    HW216202   0.319   5.537   3.627
 4769SOL     OW16203  10.042  12.656   3.798
 4769SOL    HW116204  10.136  12.655   3.780
 4769SOL    HW216205  10.026  12.741   3.840
 4770SOL     OW16206  10.355   9.153   4.369
 4770SOL    HW116207  10.358   9.209   4.447
 4770SOL    HW216208  10.283   9.092   4.386
 4771SOL     OW16209   5.724   5.660   1.810
 4771SOL    HW116210   5.714   5.742   1.760
 4771SOL    HW216211   5.666   5.671   1.885
 4772SOL     OW16212  14.540  14.139   9.431
 4772SOL    HW116213  14.625  14.183   9.432
 4772SOL    HW216214  14.477  14.206   9.457
 4773SOL     OW16215   7.249   4.124   6.620
 4773SOL    HW116216   7.234   4.176   6.541
 4773SOL    HW216217   7.189   4.161   6.685
 4774SOL     OW16218   7.941   5.933   7.152
 4774SOL    HW116219   7.976   5.853   7.113
 4774SOL    HW216220   7.872   5.904   7.210
 4775SOL     OW16221   0.778   9.458   7.204
 4775SOL    HW116222   0.784   9.491   7.293
 4775SOL    HW216223   0.705   9.507   7.165
 4776SOL     OW16224   3.928   7.542  11.135
 4776SOL    HW116225   3.859   7.501  11.084
 4776SOL    HW216226   3.889   7.624  11.167
 4777SOL     OW16227   1.877   7.412  11.818
 4777SOL    HW116228   1.817   7.340  11.841
 4777SOL    HW216229   1.842   7.488  11.865
 4778SOL     OW16230   6.721   4.464  14.727
 4778SOL    HW116231   6.729   4.549  14.769
 4778SOL    HW216232   6.744   4.480  14.635
 4779SOL     OW16233   3.440   8.520   6.039
 4779SOL    HW116234   3.350   8.487   6.034
 4779SOL    HW216235   3.481   8.468   6.108
 4780SOL     OW16236   9.764  12.843   9.886
 4780SOL    HW116237   9.835  12.797   9.842
 4780SOL    HW216238   9.723  12.895   9.817
 4781SOL     OW16239  10.395   2.010   6.797
 4781SOL    HW116240  10.354   1.927   6.774
 4781SOL    HW216241  10.376   2.068   6.724
 4782SOL     OW16242   1.271   4.738   2.474
 4782SOL    HW116243   1.363   4.757   2.495
 4782SOL    HW216244   1.273   4.708   2.383
 4783SOL     OW16245  11.621   4.646  13.624
 4783SOL    HW116246  11.709   4.609  13.609
 4783SOL    HW216247  11.593   4.606  13.706
 4784SOL     OW16248   2.865   1.509  13.692
 4784SOL    HW116249   2.945   1.501  13.744
 4784SOL    HW216250   2.825   1.422  13.698
 4785SOL     OW16251   5.667  11.802   5.631
 4785SOL    HW116252   5.665  11.755   5.548
 4785SOL    HW216253   5.677  11.894   5.607
 4786SOL     OW16254   0.269   0.539   6.890
 4786SOL    HW116255   0.286   0.445   6.894
 4786SOL    HW216256   0.357   0.579   6.891
 4787SOL     OW16257   2.955   6.743   7.611
 4787SOL    HW116258   2.972   6.785   7.526
 4787SOL    HW216259   3.041   6.709   7.638
 4788SOL     OW16260  12.557   3.089   9.223
 4788SOL    HW116261  12.524   3.081   9.134
 4788SOL    HW216262  12.552   3.000   9.259
 4789SOL     OW16263   2.860  11.735   4.589
 4789SOL    HW116264   2.851  11.751   4.495
 4789SOL    HW216265   2.773  11.755   4.625
 4790SOL     OW16266   8.403  12.802  13.060
 4790SOL    HW116267   8.423  12.839  12.974
 4790SOL    HW216268   8.452  12.857  13.121
 4791SOL     OW16269  10.513   3.841  11.070
 4791SOL    HW116270  10.565   3.890  11.134
 4791SOL    HW216271  10.575   3.780  11.030
 4792SOL     OW16272  14.660  10.346  14.466
 4792SOL    HW116273  14.573  10.378  14.489
 4792SOL    HW216274  14.697  10.416  14.412
 4793SOL     OW16275   1.278   7.490   9.663
 4793SOL    HW116276   1.358   7.479   9.715
 4793SOL    HW216277   1.304   7.468   9.574
 4794SOL     OW16278   1.525   9.486   2.734
 4794SOL    HW116279   1.481   9.463   2.816
 4794SOL    HW216280   1.609   9.522   2.761
 4795SOL     OW16281  12.586   6.918   5.298
 4795SOL    HW116282  12.591   6.827   5.328
 4795SOL    HW216283  12.641   6.920   5.220
 4796SOL     OW16284  10.940   1.755   3.229
 4796SOL    HW116285  10.862   1.784   3.276
 4796SOL    HW216286  11.005   1.740   3.297
 4797SOL     OW16287   5.027   4.816  10.122
 4797SOL    HW116288   4.968   4.891  10.108
 4797SOL    HW216289   5.100   4.832  10.062
 4798SOL     OW16290   0.341   4.340   0.531
 4798SOL    HW116291   0.385   4.386   0.603
 4798SOL    HW216292   0.412   4.310   0.475
 4799SOL     OW16293   8.174  13.816   8.956
 4799SOL    HW116294   8.098  13.759   8.946
 4799SOL    HW216295   8.161  13.885   8.891
 4800SOL     OW16296  14.307  10.532   5.140
 4800SOL    HW116297  14.322  10.583   5.220
 4800SOL    HW216298  14.394  10.513   5.107
 4801SOL     OW16299   1.969   7.949  12.709
 4801SOL    HW116300   1.903   7.880  12.714
 4801SOL    HW216301   2.050   7.907  12.736
 4802SOL     OW16302  13.478  11.809   5.931
 4802SOL    HW116303  13.515  11.720   5.927
 4802SOL    HW216304  13.463  11.833   5.840
 4803SOL     OW16305   2.868   5.931  10.748
 4803SOL    HW116306   2.857   5.836  10.737
 4803SOL    HW216307   2.925   5.940  10.824
 4804SOL     OW16308  14.778   9.571  13.887
 4804SOL    HW116309  14.795   9.503  13.822
 4804SOL    HW216310  14.769   9.652  13.836
 4805SOL     OW16311   2.832   3.296   1.135
 4805SOL    HW116312   2.902   3.265   1.193
 4805SOL    HW216313   2.855   3.261   1.049
 4806SOL     OW16314  13.140   0.419  14.639
 4806SOL    HW116315  13.212   0.467  14.597
 4806SOL    HW216316  13.151   0.436  14.732
 4807SOL     OW16317  11.005   5.377  10.740
 4807SOL    HW116318  11.019   5.375  10.835
 4807SOL    HW216319  10.927   5.431  10.729
 4808SOL     OW16320  10.318  12.892   4.139
 4808SOL    HW116321  10.226  12.916   4.146
 4808SOL    HW216322  10.324  12.808   4.184
 4809SOL     OW16323   9.581   3.982   8.314
 4809SOL    HW116324   9.661   3.932   8.331
 4809SOL    HW216325   9.510   3.923   8.339
 4810SOL     OW16326   6.057   5.054   3.291
 4810SOL    HW116327   6.097   5.011   3.367
 4810SOL    HW216328   5.977   5.005   3.275
 4811SOL     OW16329   6.003   2.379   5.507
 4811SOL    HW116330   6.084   2.418   5.538
 4811SOL    HW216331   5.973   2.438   5.438
 4812SOL     OW16332   3.309   3.000   8.723
 4812SOL    HW116333   3.264   2.985   8.806
 4812SOL    HW216334   3.244   2.976   8.656
 4813SOL     OW16335   1.686  12.434  13.957
 4813SOL    HW116336   1.715  12.403  13.871
 4813SOL    HW216337   1.662  12.525  13.942
 4814SOL     OW16338   9.539   3.403  14.248
 4814SOL    HW116339   9.612   3.344  14.265
 4814SOL    HW216340   9.490   3.406  14.331
 4815SOL     OW16341   0.495  13.210   5.834
 4815SOL    HW116342   0.492  13.263   5.914
 4815SOL    HW216343   0.582  13.171   5.834
 4816SOL     OW16344   1.408   1.167   5.821
 4816SOL    HW116345   1.376   1.218   5.896
 4816SOL    HW216346   1.398   1.226   5.747
 4817SOL     OW16347   9.213   7.037  12.533
 4817SOL    HW116348   9.294   7.059  12.580
 4817SOL    HW216349   9.223   7.079  12.448
 4818SOL     OW16350   4.930  14.507  13.914
 4818SOL    HW116351   4.963  14.575  13.856
 4818SOL    HW216352   4.858  14.467  13.865
 4819SOL     OW16353   9.900  11.419   7.637
 4819SOL    HW116354   9.941  11.398   7.554
 4819SOL    HW216355   9.866  11.508   7.625
 4820SOL     OW16356  12.163   5.794   2.790
 4820SOL    HW116357  12.115   5.848   2.727
 4820SOL    HW216358  12.095   5.756   2.846
 4821SOL     OW16359   2.887  14.752   7.445
 4821SOL    HW116360   2.935  14.669   7.441
 4821SOL    HW216361   2.801  14.731   7.408
 4822SOL     OW16362   3.618   0.528   6.006
 4822SOL    HW116363   3.617   0.622   5.988
 4822SOL    HW216364   3.616   0.487   5.919
 4823SOL     OW16365   8.627   3.500   5.339
 4823SOL    HW116366   8.639   3.517   5.245
 4823SOL    HW216367   8.644   3.406   5.349
 4824SOL     OW16368   0.052   3.308   9.701
 4824SOL    HW116369   0.034   3.279   9.791
 4824SOL    HW216370  14.881   3.256   9.647
 4825SOL     OW16371  12.103   8.353   8.265
 4825SOL    HW116372  12.097   8.304   8.184
 4825SOL    HW216373  12.034   8.316   8.321
 4826SOL     OW16374  12.400  12.982   6.357
 4826SOL    HW116375  12.313  13.005   6.388
 4826SOL    HW216376  12.452  12.970   6.436
 4827SOL     OW16377   1.377   1.681   9.638
 4827SOL    HW116378   1.406   1.592   9.654
 4827SOL    HW216379   1.336   1.679   9.551
 4828SOL     OW16380  14.209  10.259   0.693
 4828SOL    HW116381  14.284  10.255   0.752
 4828SOL    HW216382  14.219  10.183   0.635
 4829SOL     OW16383  10.769   6.696  13.596
 4829SOL    HW116384  10.685   6.672  13.558
 4829SOL    HW216385  10.748   6.767  13.656
 4830SOL     OW16386  14.074  12.907  12.025
 4830SOL    HW116387  14.019  12.842  11.981
 4830SOL    HW216388  14.040  12.991  11.996
 4831SOL     OW16389  10.689   8.317  14.420
 4831SOL    HW116390  10.700   8.368  14.339
 4831SOL    HW216391  10.611   8.354  14.461
 4832SOL     OW16392   4.867   7.978  11.265
 4832SOL    HW116393   4.808   7.917  11.221
 4832SOL    HW216394   4.809   8.039  11.310
 4833SOL     OW16395   1.838  12.292  10.214
 4833SOL    HW116396   1.840  12.271  10.121
 4833SOL    HW216397   1.827  12.208  10.258
 4834SOL     OW16398   3.195   9.314  12.513
 4834SOL    HW116399   3.110   9.312  12.556
 4834SOL    HW216400   3.200   9.402  12.475
 4835SOL     OW16401  11.174   4.487  11.288
 4835SOL    HW116402  11.112   4.484  11.361
 4835SOL    HW216403  11.216   4.400  11.289
 4836SOL     OW16404  13.178   8.937  14.089
 4836SOL    HW116405  13.240   8.999  14.128
 4836SOL    HW216406  13.176   8.863  14.150
 4837SOL     OW16407  11.102  11.192   8.746
 4837SOL    HW116408  11.087  11.102   8.717
 4837SOL    HW216409  11.146  11.183   8.830
 4838SOL     OW16410   7.273  10.037   0.163
 4838SOL    HW116411   7.302   9.952   0.196
 4838SOL    HW216412   7.346  10.068   0.109
 4839SOL     OW16413  12.141   3.310   0.194
 4839SOL    HW116414  12.113   3.222   0.221
 4839SOL    HW216415  12.060   3.362   0.197
 4840SOL     OW16416   6.622   5.829   7.347
 4840SOL    HW116417   6.676   5.801   7.421
 4840SOL    HW216418   6.534   5.798   7.368
 4841SOL     OW16419  13.387   3.450   2.001
 4841SOL    HW116420  13.388   3.510   2.076
 4841SOL    HW216421  13.411   3.505   1.926
 4842SOL     OW16422  14.566  13.615   9.968
 4842SOL    HW116423  14.653  13.578   9.985
 4842SOL    HW216424  14.563  13.694  10.021
 4843SOL     OW16425  14.412   2.199   7.762
 4843SOL    HW116426  14.381   2.277   7.717
 4843SOL    HW216427  14.371   2.203   7.848
 4844SOL     OW16428   8.444  14.095   7.870
 4844SOL    HW116429   8.515  14.146   7.910
 4844SOL    HW216430   8.364  14.140   7.896
 4845SOL     OW16431  10.572  12.313   6.863
 4845SOL    HW116432  10.535  12.226   6.879
 4845SOL    HW216433  10.503  12.360   6.816
 4846SOL     OW16434   0.465   9.043   5.634
 4846SOL    HW116435   0.548   9.014   5.596
 4846SOL    HW216436   0.409   9.061   5.558
 4847SOL     OW16437   2.284   1.641   2.616
 4847SOL    HW116438   2.234   1.673   2.541
 4847SOL    HW216439   2.306   1.720   2.667
 4848SOL     OW16440  13.141  11.237  14.320
 4848SOL    HW116441  13.173  11.147  14.324
 4848SOL    HW216442  13.057  11.235  14.365
 4849SOL     OW16443   5.567  12.221  11.823
 4849SOL    HW116444   5.580  12.235  11.917
 4849SOL    HW216445   5.645  12.259  11.782
 4850SOL     OW16446   5.440   3.204   2.929
 4850SOL    HW116447   5.440   3.228   2.836
 4850SOL    HW216448   5.407   3.114   2.931
 4851SOL     OW16449   1.405   5.194   9.288
 4851SOL    HW116450   1.477   5.134   9.269
 4851SOL    HW216451   1.337   5.139   9.326
 4852SOL     OW16452  14.329   5.672   7.832
 4852SOL    HW116453  14.345   5.608   7.901
 4852SOL    HW216454  14.254   5.723   7.864
 4853SOL     OW16455   5.351   6.149   6.779
 4853SOL    HW116456   5.383   6.070   6.735
 4853SOL    HW216457   5.428   6.181   6.827
 4854SOL     OW16458   3.517   1.636  11.929
 4854SOL    HW116459   3.513   1.600  11.840
 4854SOL    HW216460   3.453   1.585  11.978
 4855SOL     OW16461  10.258   7.086   1.120
 4855SOL    HW116462  10.195   7.110   1.188
 4855SOL    HW216463  10.204   7.071   1.042
 4856SOL     OW16464  13.056   9.897  12.869
 4856SOL    HW116465  13.006   9.817  12.884
 4856SOL    HW216466  12.994   9.956  12.826
 4857SOL     OW16467   8.567   6.146   4.672
 4857SOL    HW116468   8.660   6.163   4.654
 4857SOL    HW216469   8.562   6.141   4.767
 4858SOL     OW16470  10.726   5.923   8.466
 4858SOL    HW116471  10.740   5.971   8.385
 4858SOL    HW216472  10.702   5.989   8.531
 4859SOL     OW16473  12.080   4.732   4.093
 4859SOL    HW116474  12.131   4.758   4.170
 4859SOL    HW216475  12.017   4.803   4.082
 4860SOL     OW16476   1.247   7.733  12.920
 4860SOL    HW116477   1.342   7.729  12.906
 4860SOL    HW216478   1.225   7.648  12.957
 4861SOL     OW16479   2.030   0.995   8.314
 4861SOL    HW116480   2.072   1.049   8.247
 4861SOL    HW216481   1.999   0.918   8.267
 4862SOL     OW16482  12.647   4.150  13.641
 4862SOL    HW116483  12.628   4.236  13.604
 4862SOL    HW216484  12.666   4.167  13.734
 4863SOL     OW16485   3.329   1.262  12.896
 4863SOL    HW116486   3.346   1.176  12.934
 4863SOL    HW216487   3.408   1.283  12.846
 4864SOL     OW16488   2.902   2.229   6.907
 4864SOL    HW116489   2.821   2.217   6.957
 4864SOL    HW216490   2.912   2.149   6.856
 4865SOL     OW16491   6.345  12.469   5.024
 4865SOL    HW116492   6.286  12.476   4.949
 4865SOL    HW216493   6.387  12.383   5.014
 4866SOL     OW16494   7.434  10.717   7.448
 4866SOL    HW116495   7.344  10.730   7.420
 4866SOL    HW216496   7.467  10.806   7.464
 4867SOL     OW16497   7.495  10.423   3.287
 4867SOL    HW116498   7.568  10.365   3.307
 4867SOL    HW216499   7.422  10.388   3.339
 4868SOL     OW16500   9.240   0.919  11.457
 4868SOL    HW116501   9.279   0.981  11.518
 4868SOL    HW216502   9.155   0.957  11.435
 4869SOL     OW16503  12.901  11.435  13.841
 4869SOL    HW116504  12.938  11.379  13.773
 4869SOL    HW216505  12.939  11.402  13.923
 4870SOL     OW16506   5.246  14.041  13.514
 4870SOL    HW116507   5.220  14.076  13.599
 4870SOL    HW216508   5.169  14.051  13.459
 4871SOL     OW16509   2.033   8.822  13.030
 4871SOL    HW116510   2.110   8.860  12.989
 4871SOL    HW216511   2.049   8.728  13.029
 4872SOL     OW16512   2.831   6.033   0.808
 4872SOL    HW116513   2.843   5.965   0.875
 4872SOL    HW216514   2.918   6.045   0.770
 4873SOL     OW16515   9.363   5.557   1.569
 4873SOL    HW116516   9.425   5.556   1.642
 4873SOL    HW216517   9.282   5.593   1.607
 4874SOL     OW16518  12.135   0.940   2.417
 4874SOL    HW116519  12.191   0.900   2.351
 4874SOL    HW216520  12.055   0.887   2.416
 4875SOL     OW16521   2.594   1.893   3.953
 4875SOL    HW116522   2.654   1.846   3.894
 4875SOL    HW216523   2.590   1.982   3.918
 4876SOL     OW16524   2.147   1.403   2.082
 4876SOL    HW116525   2.092   1.390   2.159
 4876SOL    HW216526   2.086   1.404   2.009
 4877SOL     OW16527  14.287   4.517  12.644
 4877SOL    HW116528  14.329   4.500  12.560
 4877SOL    HW216529  14.353   4.563  12.696
 4878SOL     OW16530   1.364  14.079   8.138
 4878SOL    HW116531   1.437  14.051   8.194
 4878SOL    HW216532   1.392  14.163   8.102
 4879SOL     OW16533   4.847  13.655  13.422
 4879SOL    HW116534   4.820  13.591  13.356
 4879SOL    HW216535   4.865  13.602  13.500
 4880SOL     OW16536   3.788  11.711   7.925
 4880SOL    HW116537   3.853  11.764   7.877
 4880SOL    HW216538   3.834  11.682   8.003
 4881SOL     OW16539   0.742  11.577   0.627
 4881SOL    HW116540   0.739  11.597   0.720
 4881SOL    HW216541   0.828  11.539   0.613
 4882SOL     OW16542   0.781  12.136   9.272
 4882SOL    HW116543   0.796  12.214   9.326
 4882SOL    HW216544   0.863  12.087   9.278
 4883SOL     OW16545   5.065  10.759   2.057
 4883SOL    HW116546   5.004  10.732   1.989
 4883SOL    HW216547   5.030  10.842   2.090
 4884SOL     OW16548   6.432   7.583  13.394
 4884SOL    HW116549   6.504   7.561  13.335
 4884SOL    HW216550   6.468   7.569  13.482
 4885SOL     OW16551   6.011  12.485   5.426
 4885SOL    HW116552   5.917  12.471   5.419
 4885SOL    HW216553   6.027  12.501   5.519
 4886SOL     OW16554   3.542  12.871   9.270
 4886SOL    HW116555   3.592  12.939   9.315
 4886SOL    HW216556   3.451  12.896   9.280
 4887SOL     OW16557   9.568   8.592   8.951
 4887SOL    HW116558   9.532   8.574   8.864
 4887SOL    HW216559   9.627   8.520   8.968
 4888SOL     OW16560   0.921  12.196  14.010
 4888SOL    HW116561   0.963  12.150  13.937
 4888SOL    HW216562   0.973  12.170  14.087
 4889SOL     OW16563   7.325  11.448  11.331
 4889SOL    HW116564   7.353  11.432  11.421
 4889SOL    HW216565   7.404  11.435  11.279
 4890SOL     OW16566   3.111   4.073   8.818
 4890SOL    HW116567   3.131   4.167   8.818
 4890SOL    HW216568   3.138   4.043   8.731
 4891SOL     OW16569  10.817   3.490   2.957
 4891SOL    HW116570  10.733   3.524   2.987
 4891SOL    HW216571  10.801   3.397   2.941
 4892SOL     OW16572   0.892   2.252   5.228
 4892SOL    HW116573   0.918   2.189   5.295
 4892SOL    HW216574   0.807   2.285   5.258
 4893SOL     OW16575  11.364   9.769   3.101
 4893SOL    HW116576  11.305   9.719   3.044
 4893SOL    HW216577  11.319   9.852   3.115
 4894SOL     OW16578  10.745   3.247  10.983
 4894SOL    HW116579  10.712   3.274  10.897
 4894SOL    HW216580  10.691   3.296  11.046
 4895SOL     OW16581  13.628   3.172   8.524
 4895SOL    HW116582  13.607   3.240   8.461
 4895SOL    HW216583  13.553   3.168   8.583
 4896SOL     OW16584   6.810   2.344   2.186
 4896SOL    HW116585   6.719   2.318   2.200
 4896SOL    HW216586   6.861   2.264   2.198
 4897SOL     OW16587  12.127   8.218   4.550
 4897SOL    HW116588  12.130   8.294   4.492
 4897SOL    HW216589  12.158   8.145   4.497
 4898SOL     OW16590   0.200   5.779   3.396
 4898SOL    HW116591   0.162   5.704   3.350
 4898SOL    HW216592   0.217   5.843   3.327
 4899SOL     OW16593  11.949   4.949   4.795
 4899SOL    HW116594  11.950   4.925   4.887
 4899SOL    HW216595  11.860   4.929   4.766
 4900SOL     OW16596   1.337   4.924  12.436
 4900SOL    HW116597   1.417   4.920  12.489
 4900SOL    HW216598   1.346   5.005  12.386
 4901SOL     OW16599   2.918  10.719   4.442
 4901SOL    HW116600   2.997  10.727   4.495
 4901SOL    HW216601   2.919  10.628   4.411
 4902SOL     OW16602   3.680  11.485   8.533
 4902SOL    HW116603   3.622  11.429   8.585
 4902SOL    HW216604   3.767  11.446   8.543
 4903SOL     OW16605   7.408   3.084  11.018
 4903SOL    HW116606   7.379   3.077  10.927
 4903SOL    HW216607   7.347   3.028  11.067
 4904SOL     OW16608   7.380   3.822  13.776
 4904SOL    HW116609   7.464   3.844  13.816
 4904SOL    HW216610   7.394   3.832  13.682
 4905SOL     OW16611   6.528   3.827  14.863
 4905SOL    HW116612   6.470   3.821   0.051
 4905SOL    HW216613   6.599   3.884   0.004
 4906SOL     OW16614   9.185   2.531   8.960
 4906SOL    HW116615   9.258   2.545   8.900
 4906SOL    HW216616   9.185   2.436   8.975
 4907SOL     OW16617  12.401   0.499   4.780
 4907SOL    HW116618  12.416   0.536   4.867
 4907SOL    HW216619  12.309   0.519   4.762
 4908SOL     OW16620   9.153  14.673   5.610
 4908SOL    HW116621   9.069  14.710   5.582
 4908SOL    HW216622   9.219  14.722   5.560
 4909SOL     OW16623   5.167   7.408   5.250
 4909SOL    HW116624   5.207   7.466   5.185
 4909SOL    HW216625   5.240   7.374   5.301
 4910SOL     OW16626   4.224  10.430  10.344
 4910SOL    HW116627   4.159  10.497  10.328
 4910SOL    HW216628   4.226  10.378  10.264
 4911SOL     OW16629   9.349   5.093   0.738
 4911SOL    HW116630   9.337   5.045   0.819
 4911SOL    HW216631   9.395   5.033   0.680
 4912SOL     OW16632   8.823  14.604   3.047
 4912SOL    HW116633   8.832  14.515   3.081
 4912SOL    HW216634   8.745  14.600   2.991
 4913SOL     OW16635  13.190   8.447   6.462
 4913SOL    HW116636  13.283   8.467   6.451
 4913SOL    HW216637  13.180   8.357   6.431
 4914SOL     OW16638  10.203   9.059   3.286
 4914SOL    HW116639  10.111   9.062   3.311
 4914SOL    HW216640  10.250   9.075   3.367
 4915SOL     OW16641   0.888   0.314   8.598
 4915SOL    HW116642   0.873   0.389   8.540
 4915SOL    HW216643   0.929   0.248   8.543
 4916SOL     OW16644  12.056   2.154   9.268
 4916SOL    HW116645  12.099   2.115   9.192
 4916SOL    HW216646  11.993   2.216   9.230
 4917SOL     OW16647  12.233   0.594   4.075
 4917SOL    HW116648  12.169   0.638   4.020
 4917SOL    HW216649  12.287   0.665   4.111
 4918SOL     OW16650  11.874  14.042  13.383
 4918SOL    HW116651  11.820  13.964  13.399
 4918SOL    HW216652  11.826  14.114  13.423
 4919SOL     OW16653  12.788  14.802  13.397
 4919SOL    HW116654  12.818  14.829  13.484
 4919SOL    HW216655  12.720  14.866  13.374
 4920SOL     OW16656   9.863  13.605   2.596
 4920SOL    HW116657   9.797  13.666   2.564
 4920SOL    HW216658   9.911  13.654   2.663
 4921SOL     OW16659  14.297  13.985  13.734
 4921SOL    HW116660  14.318  14.077  13.723
 4921SOL    HW216661  14.331  13.962  13.821
 4922SOL     OW16662  12.180   5.738   5.305
 4922SOL    HW116663  12.243   5.688   5.253
 4922SOL    HW216664  12.205   5.720   5.396
 4923SOL     OW16665   1.459  10.678   1.829
 4923SOL    HW116666   1.490  10.665   1.739
 4923SOL    HW216667   1.404  10.601   1.847
 4924SOL     OW16668   9.278  12.503   5.155
 4924SOL    HW116669   9.301  12.502   5.063
 4924SOL    HW216670   9.302  12.590   5.186
 4925SOL     OW16671  11.643   0.939  10.019
 4925SOL    HW116672  11.589   0.914  10.094
 4925SOL    HW216673  11.657   0.858   9.971
 4926SOL     OW16674   3.848   1.527   7.980
 4926SOL    HW116675   3.881   1.461   7.919
 4926SOL    HW216676   3.817   1.598   7.924
 4927SOL     OW16677   0.890   8.915   7.776
 4927SOL    HW116678   0.981   8.890   7.790
 4927SOL    HW216679   0.856   8.934   7.864
 4928SOL     OW16680  12.297   3.547   3.389
 4928SOL    HW116681  12.285   3.468   3.441
 4928SOL    HW216682  12.250   3.615   3.437
 4929SOL     OW16683   0.459   3.573   5.106
 4929SOL    HW116684   0.438   3.602   5.018
 4929SOL    HW216685   0.400   3.499   5.123
 4930SOL     OW16686  10.579  11.349   4.287
 4930SOL    HW116687  10.509  11.344   4.223
 4930SOL    HW216688  10.653  11.304   4.247
 4931SOL     OW16689   8.493   2.168   1.844
 4931SOL    HW116690   8.560   2.235   1.840
 4931SOL    HW216691   8.539   2.086   1.826
 4932SOL     OW16692  13.850  10.129   6.686
 4932SOL    HW116693  13.817  10.117   6.775
 4932SOL    HW216694  13.928  10.073   6.683
 4933SOL     OW16695   7.037   8.723  14.812
 4933SOL    HW116696   7.012   8.637  14.844
 4933SOL    HW216697   7.124   8.738  14.849
 4934SOL     OW16698   1.596   3.088   3.924
 4934SOL    HW116699   1.531   3.158   3.937
 4934SOL    HW216700   1.592   3.037   4.005
 4935SOL     OW16701   5.338   6.979   3.715
 4935SOL    HW116702   5.309   6.978   3.806
 4935SOL    HW216703   5.267   6.938   3.666
 4936SOL     OW16704  13.411  12.730   9.973
 4936SOL    HW116705  13.346  12.674   9.930
 4936SOL    HW216706  13.365  12.766  10.049
 4937SOL     OW16707   5.022   4.720   0.008
 4937SOL    HW116708   5.062   4.633   0.003
 4937SOL    HW216709   4.929   4.703   0.024
 4938SOL     OW16710   8.703   4.768   8.340
 4938SOL    HW116711   8.744   4.754   8.255
 4938SOL    HW216712   8.727   4.691   8.391
 4939SOL     OW16713   3.467   1.840   0.164
 4939SOL    HW116714   3.548   1.800   0.133
 4939SOL    HW216715   3.400   1.811   0.102
 4940SOL     OW16716   9.997  10.000   1.689
 4940SOL    HW116717  10.076  10.041   1.654
 4940SOL    HW216718   9.940   9.990   1.612
 4941SOL     OW16719   1.354  12.027  10.501
 4941SOL    HW116720   1.435  12.078  10.500
 4941SOL    HW216721   1.379  11.943  10.540
 4942SOL     OW16722  12.427  12.861   5.629
 4942SOL    HW116723  12.461  12.793   5.687
 4942SOL    HW216724  12.442  12.828   5.540
 4943SOL     OW16725  11.443   8.783   5.108
 4943SOL    HW116726  11.487   8.802   5.191
 4943SOL    HW216727  11.374   8.850   5.102
 4944SOL     OW16728   6.379   9.655  11.357
 4944SOL    HW116729   6.430   9.654  11.276
 4944SOL    HW216730   6.335   9.740  11.358
 4945SOL     OW16731   2.971   0.158   0.187
 4945SOL    HW116732   2.936   0.069   0.186
 4945SOL    HW216733   2.975   0.181   0.280
 4946SOL     OW16734  12.065   1.995   3.280
 4946SOL    HW116735  12.114   1.941   3.218
 4946SOL    HW216736  11.978   1.956   3.283
 4947SOL     OW16737  11.696   6.625   3.231
 4947SOL    HW116738  11.662   6.688   3.168
 4947SOL    HW216739  11.775   6.590   3.190
 4948SOL     OW16740  11.452  11.114   1.926
 4948SOL    HW116741  11.405  11.147   1.850
 4948SOL    HW216742  11.540  11.151   1.918
 4949SOL     OW16743  12.225  10.539  13.001
 4949SOL    HW116744  12.138  10.501  12.986
 4949SOL    HW216745  12.255  10.564  12.914
 4950SOL     OW16746   3.983   0.306   1.732
 4950SOL    HW116747   3.956   0.377   1.791
 4950SOL    HW216748   3.940   0.228   1.767
 4951SOL     OW16749  11.034   6.068   8.403
 4951SOL    HW116750  11.034   6.033   8.315
 4951SOL    HW216751  11.122   6.050   8.436
 4952SOL     OW16752   9.911   1.099  13.843
 4952SOL    HW116753   9.976   1.062  13.902
 4952SOL    HW216754   9.860   1.159  13.898
 4953SOL     OW16755  11.076   8.404   6.155
 4953SOL    HW116756  11.121   8.459   6.219
 4953SOL    HW216757  10.990   8.388   6.194
 4954SOL     OW16758   8.085   1.543   0.006
 4954SOL    HW116759   8.013   1.593   0.045
 4954SOL    HW216760   8.152   1.609  14.874
 4955SOL     OW16761  12.755   8.212   2.299
 4955SOL    HW116762  12.801   8.132   2.271
 4955SOL    HW216763  12.674   8.179   2.339
 4956SOL     OW16764  12.179   1.202   2.627
 4956SOL    HW116765  12.121   1.274   2.606
 4956SOL    HW216766  12.136   1.125   2.590
 4957SOL     OW16767   3.806  12.211   0.536
 4957SOL    HW116768   3.808  12.116   0.550
 4957SOL    HW216769   3.742  12.243   0.599
 4958SOL     OW16770   8.093   2.801   2.096
 4958SOL    HW116771   8.144   2.742   2.151
 4958SOL    HW216772   8.002   2.777   2.113
 4959SOL     OW16773   5.752  14.793   4.523
 4959SOL    HW116774   5.812  14.727   4.486
 4959SOL    HW216775   5.796  14.876   4.506
 4960SOL     OW16776   5.220   8.388  14.075
 4960SOL    HW116777   5.289   8.373  14.140
 4960SOL    HW216778   5.221   8.310  14.021
 4961SOL     OW16779   4.784   3.396   7.012
 4961SOL    HW116780   4.804   3.313   7.056
 4961SOL    HW216781   4.868   3.427   6.979
 4962SOL     OW16782   8.888  12.423   8.007
 4962SOL    HW116783   8.971  12.415   8.054
 4962SOL    HW216784   8.874  12.336   7.969
 4963SOL     OW16785   0.283   7.207   7.560
 4963SOL    HW116786   0.224   7.187   7.488
 4963SOL    HW216787   0.242   7.281   7.605
 4964SOL     OW16788   7.845   5.816  13.742
 4964SOL    HW116789   7.913   5.828  13.808
 4964SOL    HW216790   7.810   5.904  13.728
 4965SOL     OW16791  13.349   2.104  13.975
 4965SOL    HW116792  13.256   2.086  13.986
 4965SOL    HW216793  13.370   2.068  13.888
 4966SOL     OW16794  10.742  11.408   4.617
 4966SOL    HW116795  10.821  11.398   4.669
 4966SOL    HW216796  10.760  11.361   4.535
 4967SOL     OW16797  13.668   5.176  13.367
 4967SOL    HW116798  13.707   5.088  13.370
 4967SOL    HW216799  13.679   5.203  13.276
 4968SOL     OW16800  13.563   6.584  12.735
 4968SOL    HW116801  13.658   6.580  12.731
 4968SOL    HW216802  13.544   6.654  12.798
 4969SOL     OW16803   8.258  13.595   1.709
 4969SOL    HW116804   8.231  13.598   1.618
 4969SOL    HW216805   8.193  13.647   1.756
 4970SOL     OW16806   8.752   3.815  11.746
 4970SOL    HW116807   8.794   3.899  11.727
 4970SOL    HW216808   8.697   3.833  11.822
 4971SOL     OW16809  12.943  12.300  13.733
 4971SOL    HW116810  12.882  12.256  13.793
 4971SOL    HW216811  12.985  12.228  13.685
 4972SOL     OW16812   5.847   3.100   8.730
 4972SOL    HW116813   5.829   3.064   8.817
 4972SOL    HW216814   5.911   3.040   8.692
 4973SOL     OW16815   9.033  10.016   4.357
 4973SOL    HW116816   9.125  10.000   4.334
 4973SOL    HW216817   9.037  10.086   4.422
 4974SOL     OW16818   5.128   9.887  10.789
 4974SOL    HW116819   5.161   9.798  10.802
 4974SOL    HW216820   5.129   9.926  10.877
 4975SOL     OW16821  10.664  10.824   3.342
 4975SOL    HW116822  10.648  10.841   3.435
 4975SOL    HW216823  10.589  10.772   3.313
 4976SOL     OW16824   1.130  12.946  14.430
 4976SOL    HW116825   1.180  13.016  14.390
 4976SOL    HW216826   1.192  12.873  14.437
 4977SOL     OW16827  11.980  11.503   2.287
 4977SOL    HW116828  12.016  11.537   2.206
 4977SOL    HW216829  11.914  11.440   2.259
 4978SOL     OW16830   8.176  10.197   7.288
 4978SOL    HW116831   8.202  10.157   7.371
 4978SOL    HW216832   8.084  10.220   7.301
 4979SOL     OW16833  10.141   2.241  14.851
 4979SOL    HW116834  10.184   2.179   0.022
 4979SOL    HW216835  10.207   2.260  14.784
 4980SOL     OW16836   3.407  13.820   2.007
 4980SOL    HW116837   3.366  13.883   2.065
 4980SOL    HW216838   3.418  13.867   1.924
 4981SOL     OW16839   3.360   7.031  12.145
 4981SOL    HW116840   3.373   6.950  12.096
 4981SOL    HW216841   3.429   7.090  12.112
 4982SOL     OW16842  12.931   5.948   5.547
 4982SOL    HW116843  12.908   5.964   5.639
 4982SOL    HW216844  12.882   5.869   5.524
 4983SOL     OW16845   1.902   1.260   1.642
 4983SOL    HW116846   1.976   1.292   1.589
 4983SOL    HW216847   1.899   1.166   1.625
 4984SOL     OW16848   1.679   5.122   1.016
 4984SOL    HW116849   1.717   5.082   1.095
 4984SOL    HW216850   1.591   5.149   1.044
 4985SOL     OW16851   8.559   7.044   9.389
 4985SOL    HW116852   8.604   6.960   9.379
 4985SOL    HW216853   8.471   7.028   9.354
 4986SOL     OW16854  13.464   0.671  10.418
 4986SOL    HW116855  13.448   0.762  10.393
 4986SOL    HW216856  13.476   0.673  10.512
 4987SOL     OW16857   3.062  13.900  10.444
 4987SOL    HW116858   3.047  13.935  10.532
 4987SOL    HW216859   2.989  13.841  10.429
 4988SOL     OW16860   0.881   6.529   4.547
 4988SOL    HW116861   0.838   6.614   4.540
 4988SOL    HW216862   0.924   6.532   4.633
 4989SOL     OW16863   0.297   6.551  12.508
 4989SOL    HW116864   0.236   6.598  12.451
 4989SOL    HW216865   0.272   6.577  12.597
 4990SOL     OW16866   7.397  11.136  10.572
 4990SOL    HW116867   7.379  11.176  10.657
 4990SOL    HW216868   7.416  11.210  10.514
 4991SOL     OW16869  13.071  12.264  11.744
 4991SOL    HW116870  13.019  12.344  11.758
 4991SOL    HW216871  13.021  12.216  11.678
 4992SOL     OW16872   7.714   3.122   2.726
 4992SOL    HW116873   7.694   3.174   2.648
 4992SOL    HW216874   7.805   3.145   2.747
 4993SOL     OW16875   9.998   0.284   5.190
 4993SOL    HW116876   9.968   0.264   5.101
 4993SOL    HW216877  10.039   0.203   5.221
 4994SOL     OW16878   2.483   6.434   1.230
 4994SOL    HW116879   2.567   6.471   1.255
 4994SOL    HW216880   2.445   6.400   1.311
 4995SOL     OW16881  14.536  12.347   3.037
 4995SOL    HW116882  14.497  12.301   3.112
 4995SOL    HW216883  14.594  12.412   3.076
 4996SOL     OW16884   8.971   1.758   1.134
 4996SOL    HW116885   8.952   1.698   1.063
 4996SOL    HW216886   9.006   1.702   1.204
 4997SOL     OW16887   1.250   1.551  11.598
 4997SOL    HW116888   1.181   1.547  11.532
 4997SOL    HW216889   1.211   1.601  11.670
 4998SOL     OW16890   4.811   0.227  10.007
 4998SOL    HW116891   4.871   0.203   9.936
 4998SOL    HW216892   4.724   0.224   9.966
 4999SOL     OW16893   4.881   1.409   6.953
 4999SOL    HW116894   4.956   1.388   7.008
 4999SOL    HW216895   4.871   1.332   6.897
 5000SOL     OW16896  14.319  14.273  12.568
 5000SOL    HW116897  14.244  14.334  12.571
 5000SOL    HW216898  14.319  14.239  12.479
 5001SOL     OW16899   9.639   6.570  12.867
 5001SOL    HW116900   9.710   6.634  12.867
 5001SOL    HW216901   9.563   6.620  12.838
 5002SOL     OW16902   2.419  10.182  14.797
 5002SOL    HW116903   2.383  10.252  14.743
 5002SOL    HW216904   2.467  10.126  14.736
 5003SOL     OW16905   5.951   9.223   3.516
 5003SOL    HW116906   5.996   9.192   3.595
 5003SOL    HW216907   5.953   9.318   3.525
 5004SOL     OW16908   4.345   0.301  11.991
 5004SOL    HW116909   4.313   0.382  12.032
 5004SOL    HW216910   4.386   0.252  12.062
 5005SOL     OW16911   4.952   6.404   1.626
 5005SOL    HW116912   4.911   6.322   1.651
 5005SOL    HW216913   4.974   6.446   1.709
 5006SOL     OW16914   4.957   5.577   7.384
 5006SOL    HW116915   4.912   5.498   7.353
 5006SOL    HW216916   4.901   5.649   7.356
 5007SOL     OW16917  13.203  13.581  12.232
 5007SOL    HW116918  13.240  13.556  12.148
 5007SOL    HW216919  13.279  13.597  12.288
 5008SOL     OW16920   4.369   6.585   0.120
 5008SOL    HW116921   4.276   6.568   0.133
 5008SOL    HW216922   4.388   6.662   0.173
 5009SOL     OW16923  14.842  13.642   8.433
 5009SOL    HW116924  14.777  13.696   8.389
 5009SOL    HW216925   0.039  13.681   8.409
 5010SOL     OW16926   5.569   5.154  13.888
 5010SOL    HW116927   5.647   5.100  13.894
 5010SOL    HW216928   5.562   5.197  13.974
 5011SOL     OW16929   0.070   8.668  10.488
 5011SOL    HW116930   0.017   8.639  10.563
 5011SOL    HW216931   0.017   8.644  10.411
 5012SOL     OW16932   7.145  13.671  13.200
 5012SOL    HW116933   7.207  13.708  13.263
 5012SOL    HW216934   7.098  13.603  13.249
 5013SOL     OW16935  11.110  14.258   6.118
 5013SOL    HW116936  11.104  14.208   6.037
 5013SOL    HW216937  11.135  14.346   6.089
 5014SOL     OW16938  10.476  10.116   0.673
 5014SOL    HW116939  10.465  10.098   0.767
 5014SOL    HW216940  10.474  10.030   0.632
 5015SOL     OW16941   4.837   8.276   3.828
 5015SOL    HW116942   4.764   8.289   3.888
 5015SOL    HW216943   4.915   8.283   3.883
 5016SOL     OW16944   3.725   2.611   3.941
 5016SOL    HW116945   3.707   2.518   3.955
 5016SOL    HW216946   3.817   2.622   3.964
 5017SOL     OW16947  10.284  14.367   4.184
 5017SOL    HW116948  10.287  14.272   4.177
 5017SOL    HW216949  10.375  14.395   4.181
 5018SOL     OW16950   6.410   4.510   8.402
 5018SOL    HW116951   6.357   4.517   8.322
 5018SOL    HW216952   6.440   4.600   8.419
 5019SOL     OW16953   8.245  13.963  11.184
 5019SOL    HW116954   8.276  14.050  11.209
 5019SOL    HW216955   8.304  13.902  11.228
 5020SOL     OW16956   2.950   1.899  13.647
 5020SOL    HW116957   2.969   1.992  13.651
 5020SOL    HW216958   3.034   1.857  13.630
 5021SOL     OW16959  14.201  13.119   5.596
 5021SOL    HW116960  14.185  13.038   5.645
 5021SOL    HW216961  14.157  13.105   5.513
 5022SOL     OW16962   2.791   4.988  13.046
 5022SOL    HW116963   2.866   5.047  13.039
 5022SOL    HW216964   2.829   4.901  13.054
 5023SOL     OW16965  10.894   4.897   7.293
 5023SOL    HW116966  10.984   4.900   7.328
 5023SOL    HW216967  10.887   4.809   7.255
 5024SOL     OW16968  11.953   8.747   4.551
 5024SOL    HW116969  11.908   8.824   4.586
 5024SOL    HW216970  12.038   8.747   4.594
 5025SOL     OW16971   4.269   0.529   5.843
 5025SOL    HW116972   4.316   0.602   5.886
 5025SOL    HW216973   4.196   0.510   5.902
 5026SOL     OW16974  10.525  13.487   1.781
 5026SOL    HW116975  10.615  13.457   1.794
 5026SOL    HW216976  10.485  13.418   1.729
 5027SOL     OW16977  14.198   4.113   5.181
 5027SOL    HW116978  14.217   4.207   5.175
 5027SOL    HW216979  14.244   4.085   5.261
 5028SOL     OW16980   4.468  10.295   4.008
 5028SOL    HW116981   4.456  10.252   3.924
 5028SOL    HW216982   4.444  10.228   4.073
 5029SOL     OW16983   4.211   2.131  12.502
 5029SOL    HW116984   4.120   2.143  12.530
 5029SOL    HW216985   4.228   2.038  12.515
 5030SOL     OW16986   5.697   4.108  12.999
 5030SOL    HW116987   5.693   4.194  13.041
 5030SOL    HW216988   5.641   4.052  13.053
 5031SOL     OW16989  13.538   0.236   0.469
 5031SOL    HW116990  13.458   0.246   0.417
 5031SOL    HW216991  13.609   0.260   0.409
 5032SOL     OW16992   2.382  11.525  12.136
 5032SOL    HW116993   2.328  11.520  12.057
 5032SOL    HW216994   2.398  11.434  12.160
 5033SOL     OW16995   7.061   3.314  12.013
 5033SOL    HW116996   7.132   3.338  12.073
 5033SOL    HW216997   7.102   3.316  11.926
 5034SOL     OW16998   4.829  13.831  13.940
 5034SOL    HW116999   4.749  13.827  13.887
 5034SOL    HW217000   4.900  13.823  13.876
 5035SOL     OW17001   9.513   4.786   0.346
 5035SOL    HW117002   9.439   4.790   0.285
 5035SOL    HW217003   9.571   4.719   0.310
 5036SOL     OW17004   1.557  11.745   0.953
 5036SOL    HW117005   1.599  11.803   0.890
 5036SOL    HW217006   1.628  11.693   0.990
 5037SOL     OW17007   1.015  13.600   5.683
 5037SOL    HW117008   0.977  13.558   5.761
 5037SOL    HW217009   1.094  13.549   5.665
 5038SOL     OW17010   5.826  12.418   3.217
 5038SOL    HW117011   5.737  12.394   3.243
 5038SOL    HW217012   5.823  12.423   3.122
 5039SOL     OW17013  12.293   1.627   6.544
 5039SOL    HW117014  12.297   1.555   6.481
 5039SOL    HW217015  12.199   1.641   6.558
 5040SOL     OW17016  10.921   3.965  11.561
 5040SOL    HW117017  10.981   3.916  11.506
 5040SOL    HW217018  10.936   4.056  11.537
 5041SOL     OW17019   9.326   6.728   9.637
 5041SOL    HW117020   9.275   6.647   9.643
 5041SOL    HW217021   9.275   6.783   9.578
 5042SOL     OW17022   1.687   1.769  13.742
 5042SOL    HW117023   1.702   1.830  13.814
 5042SOL    HW217024   1.754   1.701  13.754
 5043SOL     OW17025   4.829   4.642   2.991
 5043SOL    HW117026   4.775   4.563   2.983
 5043SOL    HW217027   4.823   4.665   3.084
 5044SOL     OW17028   2.420  10.622   8.755
 5044SOL    HW117029   2.417  10.592   8.665
 5044SOL    HW217030   2.454  10.548   8.805
 5045SOL     OW17031   7.388   7.306  12.916
 5045SOL    HW117032   7.324   7.304  12.988
 5045SOL    HW217033   7.347   7.362  12.850
 5046SOL     OW17034   7.638  13.352   4.548
 5046SOL    HW117035   7.689  13.407   4.489
 5046SOL    HW217036   7.589  13.293   4.490
 5047SOL     OW17037   5.927   9.222   0.883
 5047SOL    HW117038   5.859   9.213   0.816
 5047SOL    HW217039   5.881   9.207   0.966
 5048SOL     OW17040   0.781  14.534   8.892
 5048SOL    HW117041   0.819  14.614   8.855
 5048SOL    HW217042   0.856  14.488   8.930
 5049SOL     OW17043   5.535   2.703  12.227
 5049SOL    HW117044   5.555   2.781  12.278
 5049SOL    HW217045   5.620   2.660  12.214
 5050SOL     OW17046   0.902   5.434   4.773
 5050SOL    HW117047   0.945   5.458   4.691
 5050SOL    HW217048   0.830   5.376   4.746
 5051SOL     OW17049   8.045   4.041   0.732
 5051SOL    HW117050   8.068   4.132   0.715
 5051SOL    HW217051   8.006   4.010   0.650
 5052SOL     OW17052   6.172   7.944   4.924
 5052SOL    HW117053   6.189   8.028   4.881
 5052SOL    HW217054   6.172   7.964   5.017
 5053SOL     OW17055   3.645   2.745   9.642
 5053SOL    HW117056   3.575   2.686   9.670
 5053SOL    HW217057   3.658   2.723   9.549
 5054SOL     OW17058   4.705  11.554   2.746
 5054SOL    HW117059   4.697  11.614   2.820
 5054SOL    HW217060   4.639  11.583   2.684
 5055SOL     OW17061   6.692   4.929   7.321
 5055SOL    HW117062   6.642   5.008   7.340
 5055SOL    HW217063   6.771   4.961   7.278
 5056SOL     OW17064   6.796  10.773  10.300
 5056SOL    HW117065   6.728  10.822  10.345
 5056SOL    HW217066   6.803  10.691  10.349
 5057SOL     OW17067   5.053   1.634  12.960
 5057SOL    HW117068   5.056   1.722  12.921
 5057SOL    HW217069   5.008   1.646  13.044
 5058SOL     OW17070   7.161  10.764   3.065
 5058SOL    HW117071   7.119  10.785   2.982
 5058SOL    HW217072   7.254  10.764   3.045
 5059SOL     OW17073   3.799  10.976   3.609
 5059SOL    HW117074   3.815  11.000   3.518
 5059SOL    HW217075   3.885  10.952   3.643
 5060SOL     OW17076   8.908  14.631   0.521
 5060SOL    HW117077   8.991  14.585   0.512
 5060SOL    HW217078   8.932  14.723   0.533
 5061SOL     OW17079   9.836   1.000   8.025
 5061SOL    HW117080   9.793   1.042   7.950
 5061SOL    HW217081   9.802   1.047   8.101
 5062SOL     OW17082  13.276   3.390  13.419
 5062SOL    HW117083  13.337   3.424  13.353
 5062SOL    HW217084  13.249   3.305  13.385
 5063SOL     OW17085   3.962  13.179   9.318
 5063SOL    HW117086   4.006  13.262   9.337
 5063SOL    HW217087   3.978  13.125   9.395
 5064SOL     OW17088   8.131  11.481   1.351
 5064SOL    HW117089   8.073  11.556   1.342
 5064SOL    HW217090   8.136  11.443   1.264
 5065SOL     OW17091  11.437   5.525   9.763
 5065SOL    HW117092  11.485   5.501   9.685
 5065SOL    HW217093  11.386   5.602   9.737
 5066SOL     OW17094  13.231   7.116   5.484
 5066SOL    HW117095  13.266   7.053   5.420
 5066SOL    HW217096  13.238   7.201   5.441
 5067SOL     OW17097  11.744  13.997   7.143
 5067SOL    HW117098  11.692  13.988   7.063
 5067SOL    HW217099  11.689  14.049   7.201
 5068SOL     OW17100   0.530   2.499   6.114
 5068SOL    HW117101   0.558   2.408   6.105
 5068SOL    HW217102   0.454   2.506   6.057
 5069SOL     OW17103  14.324   1.603  12.853
 5069SOL    HW117104  14.306   1.619  12.760
 5069SOL    HW217105  14.396   1.539  12.853
 5070SOL     OW17106   8.479  12.061   9.607
 5070SOL    HW117107   8.514  12.016   9.530
 5070SOL    HW217108   8.424  12.130   9.571
 5071SOL     OW17109   0.683   9.473  10.947
 5071SOL    HW117110   0.628   9.489  11.024
 5071SOL    HW217111   0.672   9.551  10.893
 5072SOL     OW17112   4.217  13.480  14.306
 5072SOL    HW117113   4.207  13.434  14.222
 5072SOL    HW217114   4.135  13.528  14.317
 5073SOL     OW17115   0.946   1.186   6.406
 5073SOL    HW117116   0.952   1.280   6.386
 5073SOL    HW217117   1.037   1.156   6.405
 5074SOL     OW17118  14.828  10.877   9.011
 5074SOL    HW117119  14.784  10.941   8.957
 5074SOL    HW217120  14.789  10.793   8.986
 5075SOL     OW17121   4.486  11.691   7.263
 5075SOL    HW117122   4.508  11.598   7.252
 5075SOL    HW217123   4.427  11.692   7.339
 5076SOL     OW17124   7.507   4.036  12.458
 5076SOL    HW117125   7.502   4.037  12.554
 5076SOL    HW217126   7.594   4.002  12.439
 5077SOL     OW17127   1.768   0.636  12.952
 5077SOL    HW117128   1.768   0.716  13.004
 5077SOL    HW217129   1.809   0.661  12.869
 5078SOL     OW17130  12.887  11.191  12.359
 5078SOL    HW117131  12.916  11.124  12.296
 5078SOL    HW217132  12.835  11.252  12.306
 5079SOL     OW17133  12.968   7.780   5.653
 5079SOL    HW117134  12.977   7.868   5.614
 5079SOL    HW217135  12.928   7.728   5.583
 5080SOL     OW17136   8.489   4.235  12.250
 5080SOL    HW117137   8.414   4.183  12.222
 5080SOL    HW217138   8.452   4.318  12.278
 5081SOL     OW17139  12.469   2.413   2.376
 5081SOL    HW117140  12.429   2.412   2.289
 5081SOL    HW217141  12.402   2.449   2.433
 5082SOL     OW17142   6.892  10.431  13.909
 5082SOL    HW117143   6.871  10.367  13.841
 5082SOL    HW217144   6.835  10.505  13.891
 5083SOL     OW17145   7.134   2.296   5.915
 5083SOL    HW117146   7.082   2.376   5.910
 5083SOL    HW217147   7.146   2.280   6.008
 5084SOL     OW17148  13.863   5.293  14.629
 5084SOL    HW117149  13.903   5.213  14.663
 5084SOL    HW217150  13.798   5.261  14.565
 5085SOL     OW17151  11.113   5.397   7.741
 5085SOL    HW117152  11.193   5.450   7.741
 5085SOL    HW217153  11.058   5.437   7.808
 5086SOL     OW17154   0.349  13.291   9.919
 5086SOL    HW117155   0.265  13.245   9.918
 5086SOL    HW217156   0.413  13.224   9.945
 5087SOL     OW17157   1.609   9.336   0.950
 5087SOL    HW117158   1.553   9.259   0.949
 5087SOL    HW217159   1.573   9.390   1.021
 5088SOL     OW17160  13.026  12.107   7.820
 5088SOL    HW117161  13.044  12.146   7.906
 5088SOL    HW217162  13.047  12.177   7.758
 5089SOL     OW17163   4.778   9.259   5.389
 5089SOL    HW117164   4.693   9.243   5.348
 5089SOL    HW217165   4.773   9.213   5.473
 5090SOL     OW17166  11.728   0.704   0.991
 5090SOL    HW117167  11.685   0.778   1.034
 5090SOL    HW217168  11.665   0.632   1.000
 5091SOL     OW17169   8.472   4.252   4.517
 5091SOL    HW117170   8.549   4.298   4.551
 5091SOL    HW217171   8.423   4.319   4.470
 5092SOL     OW17172   8.488   2.512   6.366
 5092SOL    HW117173   8.398   2.543   6.367
 5092SOL    HW217174   8.510   2.498   6.458
 5093SOL     OW17175   6.025   8.718   9.678
 5093SOL    HW117176   5.977   8.795   9.707
 5093SOL    HW217177   5.970   8.680   9.609
 5094SOL     OW17178  10.445   8.243   7.740
 5094SOL    HW117179  10.474   8.198   7.660
 5094SOL    HW217180  10.350   8.236   7.738
 5095SOL     OW17181   0.940  13.780   9.209
 5095SOL    HW117182   0.939  13.690   9.239
 5095SOL    HW217183   1.023  13.789   9.162
 5096SOL     OW17184   1.643   1.070   6.744
 5096SOL    HW117185   1.682   1.149   6.782
 5096SOL    HW217186   1.718   1.014   6.722
 5097SOL     OW17187  11.941   5.000  13.175
 5097SOL    HW117188  11.934   5.082  13.223
 5097SOL    HW217189  11.923   4.932  13.241
 5098SOL     OW17190  14.144   3.226  12.874
 5098SOL    HW117191  14.056   3.205  12.843
 5098SOL    HW217192  14.130   3.274  12.956
 5099SOL     OW17193   6.582   1.880   0.442
 5099SOL    HW117194   6.650   1.914   0.500
 5099SOL    HW217195   6.628   1.818   0.385
 5100SOL     OW17196   5.807   2.165  11.194
 5100SOL    HW117197   5.791   2.084  11.242
 5100SOL    HW217198   5.737   2.168  11.128
 5101SOL     OW17199   0.457  10.632   2.903
 5101SOL    HW117200   0.516  10.645   2.829
 5101SOL    HW217201   0.370  10.633   2.864
 5102SOL     OW17202   2.525   0.382   7.428
 5102SOL    HW117203   2.544   0.362   7.337
 5102SOL    HW217204   2.531   0.478   7.434
 5103SOL     OW17205   3.234  13.807  10.093
 5103SOL    HW117206   3.188  13.887  10.122
 5103SOL    HW217207   3.171  13.764  10.035
 5104SOL     OW17208   2.540   9.111   3.841
 5104SOL    HW117209   2.585   9.027   3.839
 5104SOL    HW217210   2.532   9.132   3.934
 5105SOL     OW17211   5.930   7.607  12.441
 5105SOL    HW117212   5.860   7.659  12.481
 5105SOL    HW217213   6.007   7.624  12.496
 5106SOL     OW17214   8.160   5.311   0.116
 5106SOL    HW117215   8.224   5.348   0.176
 5106SOL    HW217216   8.177   5.354   0.032
 5107SOL     OW17217   4.561   9.210   3.134
 5107SOL    HW117218   4.573   9.269   3.059
 5107SOL    HW217219   4.650   9.181   3.156
 5108SOL     OW17220   4.657   9.722  13.347
 5108SOL    HW117221   4.729   9.667  13.378
 5108SOL    HW217222   4.667   9.722  13.252
 5109SOL     OW17223  13.011  10.027  11.405
 5109SOL    HW117224  12.988  10.118  11.383
 5109SOL    HW217225  12.960   9.974  11.344
 5110SOL     OW17226   8.239   9.326  10.475
 5110SOL    HW117227   8.276   9.384  10.408
 5110SOL    HW217228   8.315   9.293  10.523
 5111SOL     OW17229   8.689   7.070  13.293
 5111SOL    HW117230   8.627   7.048  13.362
 5111SOL    HW217231   8.734   6.988  13.272
 5112SOL     OW17232   0.779   9.026   8.360
 5112SOL    HW117233   0.864   9.005   8.323
 5112SOL    HW217234   0.771   8.969   8.437
 5113SOL     OW17235   7.488   8.639  13.977
 5113SOL    HW117236   7.504   8.661  13.886
 5113SOL    HW217237   7.530   8.710  14.027
 5114SOL     OW17238   7.565   9.500  13.766
 5114SOL    HW117239   7.500   9.451  13.816
 5114SOL    HW217240   7.625   9.536  13.832
 5115SOL     OW17241   3.797   5.484  10.966
 5115SOL    HW117242   3.763   5.416  10.908
 5115SOL    HW217243   3.892   5.484  10.951
 5116SOL     OW17244  14.300   0.480  14.878
 5116SOL    HW117245  14.288   0.510  14.788
 5116SOL    HW217246  14.394   0.462  14.886
 5117SOL     OW17247  14.879   8.079   9.803
 5117SOL    HW117248  14.801   8.123   9.836
 5117SOL    HW217249  14.872   7.990   9.835
 5118SOL     OW17250   0.908   5.949   4.776
 5118SOL    HW117251   0.876   5.979   4.691
 5118SOL    HW217252   0.942   6.028   4.819
 5119SOL     OW17253   6.685   4.865   6.732
 5119SOL    HW117254   6.609   4.827   6.686
 5119SOL    HW217255   6.652   4.947   6.768
 5120SOL     OW17256   8.609   2.992   1.155
 5120SOL    HW117257   8.694   3.005   1.114
 5120SOL    HW217258   8.574   3.080   1.169
 5121SOL     OW17259  13.887   5.769   7.108
 5121SOL    HW117260  13.959   5.710   7.132
 5121SOL    HW217261  13.887   5.768   7.012
 5122SOL     OW17262  13.573  11.849   0.957
 5122SOL    HW117263  13.587  11.820   0.867
 5122SOL    HW217264  13.513  11.923   0.949
 5123SOL     OW17265   7.131   9.011  14.475
 5123SOL    HW117266   7.110   9.016  14.382
 5123SOL    HW217267   7.074   8.943  14.509
 5124SOL     OW17268   4.362   6.902   6.195
 5124SOL    HW117269   4.432   6.837   6.192
 5124SOL    HW217270   4.326   6.895   6.284
 5125SOL     OW17271  14.408   3.031   5.227
 5125SOL    HW117272  14.441   2.971   5.160
 5125SOL    HW217273  14.345   3.086   5.181
 5126SOL     OW17274  13.283   0.371   6.349
 5126SOL    HW117275  13.314   0.461   6.342
 5126SOL    HW217276  13.303   0.346   6.439
 5127SOL     OW17277   5.486   7.336   7.073
 5127SOL    HW117278   5.470   7.242   7.078
 5127SOL    HW217279   5.581   7.345   7.086
 5128SOL     OW17280  11.178   5.072   6.031
 5128SOL    HW117281  11.185   5.109   6.119
 5128SOL    HW217282  11.088   5.088   6.005
 5129SOL     OW17283   2.748   6.488   5.691
 5129SOL    HW117284   2.655   6.470   5.679
 5129SOL    HW217285   2.754   6.582   5.705
 5130SOL     OW17286   8.348   8.942   3.238
 5130SOL    HW117287   8.273   8.902   3.195
 5130SOL    HW217288   8.424   8.906   3.192
 5131SOL     OW17289   6.125   3.582   7.835
 5131SOL    HW117290   6.205   3.601   7.785
 5131SOL    HW217291   6.133   3.636   7.914
 5132SOL     OW17292  12.466  12.517   7.728
 5132SOL    HW117293  12.482  12.449   7.792
 5132SOL    HW217294  12.542  12.575   7.734
 5133SOL     OW17295  14.225   9.922  13.707
 5133SOL    HW117296  14.233   9.900  13.614
 5133SOL    HW217297  14.166   9.855  13.742
 5134SOL     OW17298   0.215  10.230   9.978
 5134SOL    HW117299   0.180  10.147   9.947
 5134SOL    HW217300   0.245  10.274   9.898
 5135SOL     OW17301  13.541  10.590   6.787
 5135SOL    HW117302  13.570  10.634   6.707
 5135SOL    HW217303  13.614  10.602   6.848
 5136SOL     OW17304   5.423  13.368   3.472
 5136SOL    HW117305   5.471  13.451   3.473
 5136SOL    HW217306   5.468  13.316   3.405
 5137SOL     OW17307  14.116   3.113  13.415
 5137SOL    HW117308  14.056   3.079  13.348
 5137SOL    HW217309  14.061   3.123  13.493
 5138SOL     OW17310  14.851   8.537   5.094
 5138SOL    HW117311  14.803   8.619   5.079
 5138SOL    HW217312  14.863   8.500   5.007
 5139SOL     OW17313  13.607   9.891   3.521
 5139SOL    HW117314  13.616   9.975   3.567
 5139SOL    HW217315  13.688   9.844   3.539
 5140SOL     OW17316   2.331   9.095   5.074
 5140SOL    HW117317   2.292   9.159   5.014
 5140SOL    HW217318   2.317   9.011   5.032
 5141SOL     OW17319   9.258  12.512  11.870
 5141SOL    HW117320   9.280  12.446  11.804
 5141SOL    HW217321   9.164  12.504  11.881
 5142SOL     OW17322   0.398  14.807   5.952
 5142SOL    HW117323   0.433  14.821   6.040
 5142SOL    HW217324   0.319  14.756   5.966
 5143SOL     OW17325   8.576  11.247   4.466
 5143SOL    HW117326   8.579  11.240   4.371
 5143SOL    HW217327   8.655  11.201   4.496
 5144SOL     OW17328  11.553   5.658   9.084
 5144SOL    HW117329  11.645   5.683   9.086
 5144SOL    HW217330  11.511   5.723   9.028
 5145SOL     OW17331   4.522   7.174   8.033
 5145SOL    HW117332   4.606   7.219   8.033
 5145SOL    HW217333   4.540   7.089   7.992
 5146SOL     OW17334  14.446  13.781   8.003
 5146SOL    HW117335  14.358  13.796   7.968
 5146SOL    HW217336  14.469  13.862   8.048
 5147SOL     OW17337   2.028  12.481   1.772
 5147SOL    HW117338   2.074  12.440   1.845
 5147SOL    HW217339   2.033  12.416   1.702
 5148SOL     OW17340   2.590   5.961   8.000
 5148SOL    HW117341   2.509   6.001   8.034
 5148SOL    HW217342   2.575   5.867   8.009
 5149SOL     OW17343   4.006   6.963   2.930
 5149SOL    HW117344   4.089   6.936   2.969
 5149SOL    HW217345   4.030   7.026   2.863
 5150SOL     OW17346   4.912  12.847  14.000
 5150SOL    HW117347   4.995  12.859  14.046
 5150SOL    HW217348   4.845  12.874  14.063
 5151SOL     OW17349  12.677  12.384   0.500
 5151SOL    HW117350  12.585  12.358   0.498
 5151SOL    HW217351  12.693  12.404   0.593
 5152SOL     OW17352   2.216  14.056   5.620
 5152SOL    HW117353   2.278  14.061   5.547
 5152SOL    HW217354   2.241  14.128   5.677
 5153SOL     OW17355  12.185  12.443   7.796
 5153SOL    HW117356  12.174  12.527   7.840
 5153SOL    HW217357  12.257  12.458   7.734
 5154SOL     OW17358   2.229   1.021   7.821
 5154SOL    HW117359   2.209   1.099   7.769
 5154SOL    HW217360   2.279   1.055   7.896
 5155SOL     OW17361  10.884   2.680   0.552
 5155SOL    HW117362  10.940   2.635   0.488
 5155SOL    HW217363  10.934   2.757   0.578
 5156SOL     OW17364  10.630   2.210   3.435
 5156SOL    HW117365  10.636   2.158   3.355
 5156SOL    HW217366  10.709   2.263   3.436
 5157SOL     OW17367   7.358   5.707   5.782
 5157SOL    HW117368   7.295   5.715   5.853
 5157SOL    HW217369   7.343   5.785   5.728
 5158SOL     OW17370   4.333   6.946   2.355
 5158SOL    HW117371   4.248   6.954   2.399
 5158SOL    HW217372   4.322   6.992   2.272
 5159SOL     OW17373   6.565  13.931   6.512
 5159SOL    HW117374   6.652  13.901   6.486
 5159SOL    HW217375   6.570  13.942   6.607
 5160SOL     OW17376  10.275   8.624  14.428
 5160SOL    HW117377  10.196   8.674  14.449
 5160SOL    HW217378  10.346   8.674  14.469
 5161SOL     OW17379   7.549   8.611  13.104
 5161SOL    HW117380   7.604   8.683  13.074
 5161SOL    HW217381   7.588   8.533  13.065
 5162SOL     OW17382  10.758   7.439  12.057
 5162SOL    HW117383  10.731   7.493  11.982
 5162SOL    HW217384  10.692   7.458  12.124
 5163SOL     OW17385   2.306   6.852  11.853
 5163SOL    HW117386   2.376   6.843  11.918
 5163SOL    HW217387   2.291   6.763  11.821
 5164SOL     OW17388  14.862  12.649   6.487
 5164SOL    HW117389  14.818  12.699   6.556
 5164SOL    HW217390  14.841  12.558   6.508
 5165SOL     OW17391   6.464   8.158  12.327
 5165SOL    HW117392   6.532   8.133  12.389
 5165SOL    HW217393   6.495   8.126  12.242
 5166SOL     OW17394   9.838  12.776  10.648
 5166SOL    HW117395   9.876  12.817  10.726
 5166SOL    HW217396   9.910  12.728  10.609
 5167SOL     OW17397   9.807   7.516   2.279
 5167SOL    HW117398   9.792   7.607   2.306
 5167SOL    HW217399   9.851   7.523   2.195
 5168SOL     OW17400   7.189  11.175   2.467
 5168SOL    HW117401   7.103  11.204   2.434
 5168SOL    HW217402   7.168  11.128   2.547
 5169SOL     OW17403  10.730   5.450   6.045
 5169SOL    HW117404  10.818   5.448   6.007
 5169SOL    HW217405  10.716   5.362   6.078
 5170SOL     OW17406   2.906   0.460  11.632
 5170SOL    HW117407   2.989   0.419  11.610
 5170SOL    HW217408   2.930   0.533  11.690
 5171SOL     OW17409  10.498  14.046  10.669
 5171SOL    HW117410  10.552  14.032  10.592
 5171SOL    HW217411  10.548  14.108  10.723
 5172SOL     OW17412  11.081   2.664   2.304
 5172SOL    HW117413  11.041   2.728   2.245
 5172SOL    HW217414  11.022   2.660   2.379
 5173SOL     OW17415  10.957   7.357  14.118
 5173SOL    HW117416  10.889   7.419  14.091
 5173SOL    HW217417  10.920   7.311  14.193
 5174SOL     OW17418   6.287  14.468   2.061
 5174SOL    HW117419   6.212  14.426   2.020
 5174SOL    HW217420   6.304  14.416   2.139
 5175SOL     OW17421   4.091   6.895  10.522
 5175SOL    HW117422   4.132   6.832  10.581
 5175SOL    HW217423   4.097   6.854  10.436
 5176SOL     OW17424  13.085   1.914  10.537
 5176SOL    HW117425  13.029   1.891  10.611
 5176SOL    HW217426  13.027   1.911  10.461
 5177SOL     OW17427  10.121   5.767   4.149
 5177SOL    HW117428  10.104   5.809   4.233
 5177SOL    HW217429  10.057   5.695   4.144
 5178SOL     OW17430  13.107  14.268  12.020
 5178SOL    HW117431  13.041  14.323  11.977
 5178SOL    HW217432  13.157  14.229  11.948
 5179SOL     OW17433   4.190   7.169   3.455
 5179SOL    HW117434   4.124   7.099   3.456
 5179SOL    HW217435   4.140   7.250   3.466
 5180SOL     OW17436   7.433   5.261  12.113
 5180SOL    HW117437   7.436   5.179  12.162
 5180SOL    HW217438   7.422   5.235  12.022
 5181SOL     OW17439   2.098   2.550   3.076
 5181SOL    HW117440   2.186   2.553   3.111
 5181SOL    HW217441   2.070   2.459   3.090
 5182SOL     OW17442   4.080  12.384   0.164
 5182SOL    HW117443   4.005  12.410   0.110
 5182SOL    HW217444   4.050  12.392   0.254
 5183SOL     OW17445   6.372  14.133   6.485
 5183SOL    HW117446   6.432  14.061   6.503
 5183SOL    HW217447   6.418  14.186   6.420
 5184SOL     OW17448   0.053   3.718   4.262
 5184SOL    HW117449   0.057   3.805   4.302
 5184SOL    HW217450  14.873   3.726   4.195
 5185SOL     OW17451   0.312  13.877   0.101
 5185SOL    HW117452   0.378  13.810   0.116
 5185SOL    HW217453   0.322  13.939   0.173
 5186SOL     OW17454   8.040   4.871  14.432
 5186SOL    HW117455   8.001   4.836  14.512
 5186SOL    HW217456   7.966   4.904  14.381
 5187SOL     OW17457  10.620   2.877  11.449
 5187SOL    HW117458  10.613   2.818  11.525
 5187SOL    HW217459  10.711   2.869  11.421
 5188SOL     OW17460   8.020   7.539   4.027
 5188SOL    HW117461   8.100   7.529   4.078
 5188SOL    HW217462   7.953   7.560   4.092
 5189SOL     OW17463  13.560   4.510   8.125
 5189SOL    HW117464  13.473   4.516   8.163
 5189SOL    HW217465  13.571   4.416   8.106
 5190SOL     OW17466   1.095   5.755   2.300
 5190SOL    HW117467   1.124   5.790   2.385
 5190SOL    HW217468   1.148   5.676   2.288
 5191SOL     OW17469   3.357  12.186  13.543
 5191SOL    HW117470   3.424  12.162  13.608
 5191SOL    HW217471   3.298  12.244  13.590
 5192SOL     OW17472   3.521   6.749  13.710
 5192SOL    HW117473   3.607   6.731  13.747
 5192SOL    HW217474   3.465   6.766  13.785
 5193SOL     OW17475   2.662   4.990  10.911
 5193SOL    HW117476   2.628   5.056  10.971
 5193SOL    HW217477   2.753   5.016  10.895
 5194SOL     OW17478   3.246   3.632  10.753
 5194SOL    HW117479   3.200   3.684  10.687
 5194SOL    HW217480   3.280   3.557  10.705
 5195SOL     OW17481  12.505   5.083   3.418
 5195SOL    HW117482  12.441   5.056   3.352
 5195SOL    HW217483  12.456   5.084   3.500
 5196SOL     OW17484   8.762   1.974   7.888
 5196SOL    HW117485   8.783   1.884   7.864
 5196SOL    HW217486   8.686   1.967   7.946
 5197SOL     OW17487  10.109   4.881  10.186
 5197SOL    HW117488  10.064   4.957  10.151
 5197SOL    HW217489  10.105   4.891  10.281
 5198SOL     OW17490   4.014  13.049   1.158
 5198SOL    HW117491   4.085  13.071   1.218
 5198SOL    HW217492   4.058  13.026   1.076
 5199SOL     OW17493  12.187   9.286   7.618
 5199SOL    HW117494  12.117   9.350   7.634
 5199SOL    HW217495  12.258   9.313   7.676
 5200SOL     OW17496   7.376   7.187  11.826
 5200SOL    HW117497   7.368   7.282  11.819
 5200SOL    HW217498   7.310   7.152  11.766
 5201SOL     OW17499   8.439  14.150   9.808
 5201SOL    HW117500   8.511  14.176   9.865
 5201SOL    HW217501   8.439  14.055   9.810
 5202SOL     OW17502  10.556  10.980  11.381
 5202SOL    HW117503  10.580  10.932  11.460
 5202SOL    HW217504  10.629  10.964  11.320
 5203SOL     OW17505   6.935   6.729  13.455
 5203SOL    HW117506   6.950   6.662  13.389
 5203SOL    HW217507   6.962   6.688  13.537
 5204SOL     OW17508  10.352   4.870  12.635
 5204SOL    HW117509  10.391   4.860  12.548
 5204SOL    HW217510  10.402   4.942  12.675
 5205SOL     OW17511   0.550   0.487  13.954
 5205SOL    HW117512   0.468   0.535  13.939
 5205SOL    HW217513   0.539   0.450  14.042
 5206SOL     OW17514   9.521   7.426   5.490
 5206SOL    HW117515   9.487   7.357   5.432
 5206SOL    HW217516   9.571   7.378   5.557
 5207SOL     OW17517  10.045  14.103   5.101
 5207SOL    HW117518  10.002  14.041   5.042
 5207SOL    HW217519   9.985  14.177   5.106
 5208SOL     OW17520  14.802   7.617   9.212
 5208SOL    HW117521  14.743   7.663   9.272
 5208SOL    HW217522  14.869   7.682   9.190
 5209SOL     OW17523   2.636  12.461   8.380
 5209SOL    HW117524   2.605  12.461   8.471
 5209SOL    HW217525   2.727  12.435   8.386
 5210SOL     OW17526   5.290   4.104   0.585
 5210SOL    HW117527   5.380   4.073   0.573
 5210SOL    HW217528   5.295   4.167   0.657
 5211SOL     OW17529  14.629   1.938  10.519
 5211SOL    HW117530  14.701   1.998  10.500
 5211SOL    HW217531  14.670   1.864  10.564
 5212SOL     OW17532  11.918   4.925  11.338
 5212SOL    HW117533  11.854   4.858  11.362
 5212SOL    HW217534  11.999   4.877  11.322
 5213SOL     OW17535  11.515   5.976  12.972
 5213SOL    HW117536  11.563   5.955  13.052
 5213SOL    HW217537  11.459   5.900  12.957
 5214SOL     OW17538   1.065   1.111  12.841
 5214SOL    HW117539   1.122   1.069  12.777
 5214SOL    HW217540   1.094   1.202  12.843
 5215SOL     OW17541  13.957  11.007  11.218
 5215SOL    HW117542  14.032  11.065  11.209
 5215SOL    HW217543  13.994  10.924  11.246
 5216SOL     OW17544   5.402   0.116   9.122
 5216SOL    HW117545   5.317   0.108   9.080
 5216SOL    HW217546   5.382   0.135   9.214
 5217SOL     OW17547   4.507   9.380  10.533
 5217SOL    HW117548   4.501   9.475  10.524
 5217SOL    HW217549   4.427   9.356  10.579
 5218SOL     OW17550  11.877  10.290   3.142
 5218SOL    HW117551  11.796  10.288   3.091
 5218SOL    HW217552  11.943  10.324   3.081
 5219SOL     OW17553   4.682   4.281   0.707
 5219SOL    HW117554   4.745   4.321   0.767
 5219SOL    HW217555   4.735   4.235   0.643
 5220SOL     OW17556   0.816   0.581  14.872
 5220SOL    HW117557   0.792   0.514  14.807
 5220SOL    HW217558   0.893   0.623  14.835
 5221SOL     OW17559   5.156  13.667   2.226
 5221SOL    HW117560   5.245  13.700   2.238
 5221SOL    HW217561   5.167  13.581   2.186
 5222SOL     OW17562   6.234   5.339  12.820
 5222SOL    HW117563   6.175   5.346  12.895
 5222SOL    HW217564   6.199   5.267  12.768
 5223SOL     OW17565  13.927   6.692  14.801
 5223SOL    HW117566  13.883   6.622  14.753
 5223SOL    HW217567  14.002   6.650  14.843
 5224SOL     OW17568   3.186   2.240   6.102
 5224SOL    HW117569   3.179   2.176   6.031
 5224SOL    HW217570   3.200   2.188   6.181
 5225SOL     OW17571   1.161  14.539   5.262
 5225SOL    HW117572   1.090  14.556   5.200
 5225SOL    HW217573   1.132  14.462   5.311
 5226SOL     OW17574   0.447   3.225   5.688
 5226SOL    HW117575   0.494   3.182   5.759
 5226SOL    HW217576   0.436   3.157   5.621
 5227SOL     OW17577   2.764   4.737   2.598
 5227SOL    HW117578   2.774   4.762   2.506
 5227SOL    HW217579   2.848   4.697   2.622
 5228SOL     OW17580  10.532  13.141   3.759
 5228SOL    HW117581  10.472  13.113   3.689
 5228SOL    HW217582  10.486  13.118   3.840
 5229SOL     OW17583  13.218  12.103  10.037
 5229SOL    HW117584  13.300  12.088  10.085
 5229SOL    HW217585  13.190  12.015  10.011
 5230SOL     OW17586  10.540  14.078  14.010
 5230SOL    HW117587  10.449  14.096  14.033
 5230SOL    HW217588  10.572  14.023  14.081
 5231SOL     OW17589   6.703   9.502  10.762
 5231SOL    HW117590   6.781   9.489  10.708
 5231SOL    HW217591   6.738   9.522  10.849
 5232SOL     OW17592   1.722  10.037  12.453
 5232SOL    HW117593   1.669  10.114  12.474
 5232SOL    HW217594   1.812  10.069  12.457
 5233SOL     OW17595   2.523   3.460   4.283
 5233SOL    HW117596   2.521   3.547   4.323
 5233SOL    HW217597   2.574   3.407   4.344
 5234SOL     OW17598  12.736   0.568   3.779
 5234SOL    HW117599  12.708   0.528   3.861
 5234SOL    HW217600  12.661   0.621   3.751
 5235SOL     OW17601   1.210   3.476   1.058
 5235SOL    HW117602   1.149   3.464   0.985
 5235SOL    HW217603   1.164   3.439   1.133
 5236SOL     OW17604  14.230  11.558  11.507
 5236SOL    HW117605  14.288  11.506  11.453
 5236SOL    HW217606  14.285  11.628  11.542
 5237SOL     OW17607   3.786   6.939   3.561
 5237SOL    HW117608   3.754   6.945   3.652
 5237SOL    HW217609   3.745   6.859   3.527
 5238SOL     OW17610   3.978   6.976  13.788
 5238SOL    HW117611   4.004   6.925  13.865
 5238SOL    HW217612   4.036   7.052  13.788
 5239SOL     OW17613   8.754   4.186  13.636
 5239SOL    HW117614   8.687   4.254  13.641
 5239SOL    HW217615   8.820   4.212  13.700
 5240SOL     OW17616  10.825   1.048   5.508
 5240SOL    HW117617  10.739   1.087   5.494
 5240SOL    HW217618  10.886   1.122   5.503
 5241SOL     OW17619   9.748  12.624   0.536
 5241SOL    HW117620   9.666  12.578   0.515
 5241SOL    HW217621   9.797  12.623   0.454
 5242SOL     OW17622  13.158   3.318   0.103
 5242SOL    HW117623  13.151   3.354   0.014
 5242SOL    HW217624  13.193   3.389   0.156
 5243SOL     OW17625  11.819  14.542  12.203
 5243SOL    HW117626  11.846  14.466  12.255
 5243SOL    HW217627  11.869  14.614  12.241
 5244SOL     OW17628   1.933   0.027   7.597
 5244SOL    HW117629   1.863   0.086   7.567
 5244SOL    HW217630   1.892  14.827   7.597
 5245SOL     OW17631  13.262   6.906   7.685
 5245SOL    HW117632  13.199   6.843   7.648
 5245SOL    HW217633  13.237   6.990   7.645
 5246SOL     OW17634  11.969  12.077   8.511
 5246SOL    HW117635  12.047  12.058   8.563
 5246SOL    HW217636  11.971  12.172   8.500
 5247SOL     OW17637  14.203   8.454   8.473
 5247SOL    HW117638  14.146   8.521   8.510
 5247SOL    HW217639  14.278   8.503   8.437
 5248SOL     OW17640  10.023   7.587   5.649
 5248SOL    HW117641  10.078   7.627   5.582
 5248SOL    HW217642   9.934   7.589   5.611
 5249SOL     OW17643  10.270  14.087   3.445
 5249SOL    HW117644  10.247  14.179   3.460
 5249SOL    HW217645  10.190  14.048   3.410
 5250SOL     OW17646   7.680   9.810   6.006
 5250SOL    HW117647   7.633   9.785   5.926
 5250SOL    HW217648   7.657   9.743   6.070
 5251SOL     OW17649   3.915   1.362   7.308
 5251SOL    HW117650   3.889   1.332   7.221
 5251SOL    HW217651   3.846   1.423   7.334
 5252SOL     OW17652  13.477   0.334  13.477
 5252SOL    HW117653  13.403   0.348  13.418
 5252SOL    HW217654  13.513   0.250  13.451
 5253SOL     OW17655   9.615  10.063   6.767
 5253SOL    HW117656   9.679  10.120   6.811
 5253SOL    HW217657   9.665   9.984   6.745
 5254SOL     OW17658   2.971   8.094   9.604
 5254SOL    HW117659   2.941   8.109   9.693
 5254SOL    HW217660   2.926   8.014   9.576
 5255SOL     OW17661   7.704  13.342   7.803
 5255SOL    HW117662   7.638  13.375   7.742
 5255SOL    HW217663   7.679  13.378   7.888
 5256SOL     OW17664  13.855   8.330   0.550
 5256SOL    HW117665  13.816   8.246   0.573
 5256SOL    HW217666  13.808   8.357   0.471
 5257SOL     OW17667  11.315  11.876  14.444
 5257SOL    HW117668  11.256  11.883  14.519
 5257SOL    HW217669  11.397  11.917  14.474
 5258SOL     OW17670   2.391   0.889   9.745
 5258SOL    HW117671   2.367   0.921   9.832
 5258SOL    HW217672   2.374   0.795   9.748
 5259SOL     OW17673   5.919   4.282  12.637
 5259SOL    HW117674   5.977   4.206  12.635
 5259SOL    HW217675   5.833   4.246  12.657
 5260SOL     OW17676   4.102   5.451   0.667
 5260SOL    HW117677   4.081   5.392   0.594
 5260SOL    HW217678   4.050   5.529   0.651
 5261SOL     OW17679  13.258   7.640  10.001
 5261SOL    HW117680  13.232   7.629  10.093
 5261SOL    HW217681  13.207   7.715   9.970
 5262SOL     OW17682   2.171   7.437  11.002
 5262SOL    HW117683   2.212   7.352  11.017
 5262SOL    HW217684   2.125   7.427  10.919
 5263SOL     OW17685   9.652  14.575   1.183
 5263SOL    HW117686   9.612  14.522   1.252
 5263SOL    HW217687   9.687  14.651   1.230
 5264SOL     OW17688   2.173   2.389   1.071
 5264SOL    HW117689   2.083   2.390   1.038
 5264SOL    HW217690   2.179   2.467   1.126
 5265SOL     OW17691   3.473   8.644  11.441
 5265SOL    HW117692   3.538   8.689  11.388
 5265SOL    HW217693   3.473   8.692  11.524
 5266SOL     OW17694   5.644  14.044   5.707
 5266SOL    HW117695   5.661  14.005   5.621
 5266SOL    HW217696   5.684  14.131   5.703
 5267SOL     OW17697   5.590   5.957   7.413
 5267SOL    HW117698   5.528   5.995   7.350
 5267SOL    HW217699   5.618   5.875   7.373
 5268SOL     OW17700   0.464   0.921  12.662
 5268SOL    HW117701   0.516   0.890  12.588
 5268SOL    HW217702   0.528   0.952  12.725
 5269SOL     OW17703   5.803  13.037   6.236
 5269SOL    HW117704   5.813  13.080   6.321
 5269SOL    HW217705   5.709  13.028   6.224
 5270SOL     OW17706   3.536   0.873  12.168
 5270SOL    HW117707   3.510   0.791  12.127
 5270SOL    HW217708   3.598   0.912  12.107
 5271SOL     OW17709  14.222   4.109   8.812
 5271SOL    HW117710  14.286   4.041   8.789
 5271SOL    HW217711  14.197   4.149   8.729
 5272SOL     OW17712   0.648   6.556   6.362
 5272SOL    HW117713   0.563   6.534   6.322
 5272SOL    HW217714   0.634   6.642   6.400
 5273SOL     OW17715   6.518   0.772   9.660
 5273SOL    HW117716   6.530   0.866   9.673
 5273SOL    HW217717   6.604   0.735   9.679
 5274SOL     OW17718   6.941  11.034   0.508
 5274SOL    HW117719   6.879  11.032   0.581
 5274SOL    HW217720   6.908  10.970   0.446
 5275SOL     OW17721   5.198  12.782  11.972
 5275SOL    HW117722   5.108  12.772  11.941
 5275SOL    HW217723   5.248  12.807  11.895
 5276SOL     OW17724   1.584  11.910   5.470
 5276SOL    HW117725   1.632  11.834   5.505
 5276SOL    HW217726   1.593  11.901   5.375
 5277SOL     OW17727   4.633   7.181   3.023
 5277SOL    HW117728   4.594   7.220   2.945
 5277SOL    HW217729   4.694   7.248   3.055
 5278SOL     OW17730   9.187   5.580   0.578
 5278SOL    HW117731   9.100   5.605   0.610
 5278SOL    HW217732   9.211   5.504   0.631
 5279SOL     OW17733   0.671  10.753   8.045
 5279SOL    HW117734   0.582  10.790   8.042
 5279SOL    HW217735   0.711  10.783   7.963
 5280SOL     OW17736  13.928   1.624   2.952
 5280SOL    HW117737  13.838   1.619   2.921
 5280SOL    HW217738  13.921   1.649   3.044
 5281SOL     OW17739   2.482   7.236   3.172
 5281SOL    HW117740   2.573   7.209   3.183
 5281SOL    HW217741   2.441   7.216   3.257
 5282SOL     OW17742  13.499   0.036   6.537
 5282SOL    HW117743  13.418   0.038   6.485
 5282SOL    HW217744  13.470   0.037   6.628
 5283SOL     OW17745   2.307   0.845   6.641
 5283SOL    HW117746   2.310   0.822   6.734
 5283SOL    HW217747   2.323   0.762   6.595
 5284SOL     OW17748   5.720   6.192   1.532
 5284SOL    HW117749   5.811   6.172   1.553
 5284SOL    HW217750   5.670   6.150   1.603
 5285SOL     OW17751   1.723   9.440   7.154
 5285SOL    HW117752   1.748   9.397   7.072
 5285SOL    HW217753   1.671   9.375   7.201
 5286SOL     OW17754   5.736   4.270   6.072
 5286SOL    HW117755   5.656   4.320   6.060
 5286SOL    HW217756   5.806   4.334   6.059
 5287SOL     OW17757   0.303   9.931   8.596
 5287SOL    HW117758   0.335  10.021   8.597
 5287SOL    HW217759   0.229   9.931   8.657
 5288SOL     OW17760  12.714   8.914   1.426
 5288SOL    HW117761  12.644   8.895   1.489
 5288SOL    HW217762  12.774   8.971   1.473
 5289SOL     OW17763   6.770  10.710  11.794
 5289SOL    HW117764   6.807  10.638  11.844
 5289SOL    HW217765   6.719  10.760  11.857
 5290SOL     OW17766   0.221  14.313   5.423
 5290SOL    HW117767   0.219  14.407   5.439
 5290SOL    HW217768   0.303  14.297   5.377
 5291SOL     OW17769   0.033   0.480   5.641
 5291SOL    HW117770   0.033   0.384   5.649
 5291SOL    HW217771   0.092   0.498   5.568
 5292SOL     OW17772  12.527   8.046   6.601
 5292SOL    HW117773  12.554   8.060   6.511
 5292SOL    HW217774  12.481   7.962   6.600
 5293SOL     OW17775   1.206  10.638   4.463
 5293SOL    HW117776   1.170  10.554   4.433
 5293SOL    HW217777   1.258  10.669   4.389
 5294SOL     OW17778   7.449   4.799   4.083
 5294SOL    HW117779   7.368   4.751   4.067
 5294SOL    HW217780   7.458   4.858   4.008
 5295SOL     OW17781  12.700   4.856   8.558
 5295SOL    HW117782  12.782   4.850   8.606
 5295SOL    HW217783  12.678   4.949   8.561
 5296SOL     OW17784   1.115  10.099   2.813
 5296SOL    HW117785   1.078  10.091   2.725
 5296SOL    HW217786   1.192  10.155   2.802
 5297SOL     OW17787   2.130   8.985   3.432
 5297SOL    HW117788   2.164   8.897   3.453
 5297SOL    HW217789   2.166   9.004   3.346
 5298SOL     OW17790   7.393   8.282  13.354
 5298SOL    HW117791   7.422   8.373  13.352
 5298SOL    HW217792   7.340   8.275  13.432
 5299SOL     OW17793   9.560   4.816   9.504
 5299SOL    HW117794   9.511   4.822   9.422
 5299SOL    HW217795   9.639   4.869   9.489
 5300SOL     OW17796   7.231  13.881   2.365
 5300SOL    HW117797   7.262  13.943   2.431
 5300SOL    HW217798   7.152  13.843   2.402
 5301SOL     OW17799   2.655   3.147  14.850
 5301SOL    HW117800   2.581   3.200  14.877
 5301SOL    HW217801   2.732   3.202  14.868
 5302SOL     OW17802  11.492   8.048  13.320
 5302SOL    HW117803  11.546   8.127  13.316
 5302SOL    HW217804  11.472   8.037  13.413
 5303SOL     OW17805  14.857   8.359   8.120
 5303SOL    HW117806  14.878   8.416   8.046
 5303SOL    HW217807   0.048   8.305   8.131
 5304SOL     OW17808  10.413   0.574  13.842
 5304SOL    HW117809  10.360   0.608  13.770
 5304SOL    HW217810  10.396   0.634  13.915
 5305SOL     OW17811   5.462  13.390   1.622
 5305SOL    HW117812   5.483  13.458   1.686
 5305SOL    HW217813   5.414  13.436   1.553
 5306SOL     OW17814   0.437   8.602   7.046
 5306SOL    HW117815   0.485   8.520   7.032
 5306SOL    HW217816   0.468   8.633   7.131
 5307SOL     OW17817   4.624   5.952   2.531
 5307SOL    HW117818   4.616   5.858   2.517
 5307SOL    HW217819   4.699   5.978   2.476
 5308SOL     OW17820   5.465   1.768  11.460
 5308SOL    HW117821   5.520   1.752  11.536
 5308SOL    HW217822   5.391   1.709  11.470
 5309SOL     OW17823  10.745  11.212  14.214
 5309SOL    HW117824  10.654  11.187  14.200
 5309SOL    HW217825  10.753  11.224  14.308
 5310SOL     OW17826   6.444   7.959   9.275
 5310SOL    HW117827   6.379   8.021   9.244
 5310SOL    HW217828   6.517   8.013   9.305
 5311SOL     OW17829   4.049   3.254   2.736
 5311SOL    HW117830   4.132   3.302   2.744
 5311SOL    HW217831   4.075   3.167   2.704
 5312SOL     OW17832   8.364   4.033  11.608
 5312SOL    HW117833   8.368   4.084  11.689
 5312SOL    HW217834   8.406   3.950  11.630
 5313SOL     OW17835   3.849   2.375  10.374
 5313SOL    HW117836   3.942   2.355  10.383
 5313SOL    HW217837   3.811   2.294  10.339
 5314SOL     OW17838   9.632   4.729  14.388
 5314SOL    HW117839   9.580   4.794  14.435
 5314SOL    HW217840   9.722   4.759  14.397
 5315SOL     OW17841  10.162   5.421  12.945
 5315SOL    HW117842  10.108   5.342  12.949
 5315SOL    HW217843  10.189   5.435  13.036
 5316SOL     OW17844   6.938   0.833   7.920
 5316SOL    HW117845   6.904   0.783   7.845
 5316SOL    HW217846   6.998   0.896   7.881
 5317SOL     OW17847   6.219   6.974   9.939
 5317SOL    HW117848   6.183   6.893   9.903
 5317SOL    HW217849   6.148   7.011   9.992
 5318SOL     OW17850  13.506  13.729  13.803
 5318SOL    HW117851  13.536  13.818  13.781
 5318SOL    HW217852  13.417  13.725  13.767
 5319SOL     OW17853   7.063   9.004   9.853
 5319SOL    HW117854   7.079   9.071   9.786
 5319SOL    HW217855   6.967   9.003   9.863
 5320SOL     OW17856   0.558   7.781  10.202
 5320SOL    HW117857   0.473   7.801  10.242
 5320SOL    HW217858   0.580   7.694  10.234
 5321SOL     OW17859   9.887   6.576   2.478
 5321SOL    HW117860   9.857   6.660   2.513
 5321SOL    HW217861   9.981   6.576   2.493
 5322SOL     OW17862   7.704   2.870   8.129
 5322SOL    HW117863   7.715   2.784   8.087
 5322SOL    HW217864   7.730   2.855   8.220
 5323SOL     OW17865   2.689   9.595  10.680
 5323SOL    HW117866   2.673   9.576  10.772
 5323SOL    HW217867   2.698   9.509  10.639
 5324SOL     OW17868   6.655  11.428   8.148
 5324SOL    HW117869   6.694  11.507   8.188
 5324SOL    HW217870   6.566  11.454   8.126
 5325SOL     OW17871   2.605   9.120   2.451
 5325SOL    HW117872   2.584   9.175   2.526
 5325SOL    HW217873   2.684   9.158   2.414
 5326SOL     OW17874   7.376   4.924   3.339
 5326SOL    HW117875   7.410   5.005   3.301
 5326SOL    HW217876   7.282   4.929   3.325
 5327SOL     OW17877  10.977   7.175   1.883
 5327SOL    HW117878  10.925   7.206   1.957
 5327SOL    HW217879  10.929   7.098   1.850
 5328SOL     OW17880   2.805   2.340   7.299
 5328SOL    HW117881   2.894   2.332   7.267
 5328SOL    HW217882   2.803   2.287   7.379
 5329SOL     OW17883  14.511  14.515   7.888
 5329SOL    HW117884  14.437  14.499   7.830
 5329SOL    HW217885  14.521  14.434   7.937
 5330SOL     OW17886   3.645   3.614   3.602
 5330SOL    HW117887   3.740   3.617   3.598
 5330SOL    HW217888   3.625   3.522   3.621
 5331SOL     OW17889  10.905  13.416   5.365
 5331SOL    HW117890  10.871  13.340   5.411
 5331SOL    HW217891  10.887  13.399   5.273
 5332SOL     OW17892  13.841   9.960   7.357
 5332SOL    HW117893  13.781   9.889   7.333
 5332SOL    HW217894  13.845  10.015   7.279
 5333SOL     OW17895  14.828   9.643   9.141
 5333SOL    HW117896  14.863   9.625   9.053
 5333SOL    HW217897  14.795   9.558   9.171
 5334SOL     OW17898   3.658   2.691  12.150
 5334SOL    HW117899   3.595   2.652  12.089
 5334SOL    HW217900   3.708   2.753  12.096
 5335SOL     OW17901  13.378   3.145   1.895
 5335SOL    HW117902  13.445   3.077   1.891
 5335SOL    HW217903  13.351   3.146   1.987
 5336SOL     OW17904   5.336   7.395   7.283
 5336SOL    HW117905   5.397   7.408   7.211
 5336SOL    HW217906   5.390   7.405   7.362
 5337SOL     OW17907   8.081   8.644  10.001
 5337SOL    HW117908   8.018   8.572   9.999
 5337SOL    HW217909   8.042   8.712   9.945
 5338SOL     OW17910   7.480   8.267   1.664
 5338SOL    HW117911   7.464   8.310   1.580
 5338SOL    HW217912   7.565   8.300   1.692
 5339SOL     OW17913   8.630   9.161   1.870
 5339SOL    HW117914   8.622   9.225   1.799
 5339SOL    HW217915   8.544   9.160   1.911
 5340SOL     OW17916   2.456   8.297   2.111
 5340SOL    HW117917   2.371   8.261   2.086
 5340SOL    HW217918   2.519   8.247   2.059
 5341SOL     OW17919  10.077   1.419   4.076
 5341SOL    HW117920  10.142   1.485   4.098
 5341SOL    HW217921   9.994   1.456   4.108
 5342SOL     OW17922   5.577   6.859   9.504
 5342SOL    HW117923   5.569   6.792   9.436
 5342SOL    HW217924   5.512   6.833   9.570
 5343SOL     OW17925   3.890   8.964   1.562
 5343SOL    HW117926   3.970   8.968   1.613
 5343SOL    HW217927   3.868   9.056   1.545
 5344SOL     OW17928  11.019   7.307   9.758
 5344SOL    HW117929  10.967   7.336   9.833
 5344SOL    HW217930  11.052   7.388   9.719
 5345SOL     OW17931   4.553   8.210  11.956
 5345SOL    HW117932   4.469   8.172  11.929
 5345SOL    HW217933   4.583   8.155  12.028
 5346SOL     OW17934  13.212   3.081   1.108
 5346SOL    HW117935  13.289   3.085   1.051
 5346SOL    HW217936  13.243   3.116   1.191
 5347SOL     OW17937   3.173   7.536   9.134
 5347SOL    HW117938   3.079   7.552   9.127
 5347SOL    HW217939   3.208   7.621   9.163
 5348SOL     OW17940  12.714   5.822  10.897
 5348SOL    HW117941  12.640   5.792  10.844
 5348SOL    HW217942  12.680   5.899  10.943
 5349SOL     OW17943  13.651   5.709   7.533
 5349SOL    HW117944  13.701   5.790   7.526
 5349SOL    HW217945  13.570   5.733   7.577
 5350SOL     OW17946  12.873   9.912   0.622
 5350SOL    HW117947  12.808   9.934   0.556
 5350SOL    HW217948  12.861   9.977   0.691
 5351SOL     OW17949  12.367   1.708   2.957
 5351SOL    HW117950  12.327   1.653   2.889
 5351SOL    HW217951  12.461   1.706   2.937
 5352SOL     OW17952   4.768   0.254   5.964
 5352SOL    HW117953   4.689   0.231   5.915
 5352SOL    HW217954   4.740   0.253   6.056
 5353SOL     OW17955  12.167   4.666   6.171
 5353SOL    HW117956  12.224   4.649   6.245
 5353SOL    HW217957  12.090   4.709   6.208
 5354SOL     OW17958   4.889  12.592   5.583
 5354SOL    HW117959   4.953  12.543   5.531
 5354SOL    HW217960   4.931  12.603   5.668
 5355SOL     OW17961   5.347   7.373   8.929
 5355SOL    HW117962   5.422   7.333   8.974
 5355SOL    HW217963   5.371   7.465   8.919
 5356SOL     OW17964   5.768  11.414   5.490
 5356SOL    HW117965   5.816  11.336   5.462
 5356SOL    HW217966   5.819  11.487   5.456
 5357SOL     OW17967   3.940   6.554   5.580
 5357SOL    HW117968   3.947   6.602   5.662
 5357SOL    HW217969   4.023   6.505   5.574
 5358SOL     OW17970   1.857   1.427  10.786
 5358SOL    HW117971   1.769   1.462  10.772
 5358SOL    HW217972   1.853   1.385  10.872
 5359SOL     OW17973  10.005   0.886   4.484
 5359SOL    HW117974   9.976   0.823   4.418
 5359SOL    HW217975  10.033   0.963   4.433
 5360SOL     OW17976   9.910  10.040  14.193
 5360SOL    HW117977   9.952  10.039  14.108
 5360SOL    HW217978   9.817  10.031  14.174
 5361SOL     OW17979  11.769  13.150   8.136
 5361SOL    HW117980  11.721  13.232   8.149
 5361SOL    HW217981  11.804  13.156   8.047
 5362SOL     OW17982   7.582   4.475  10.694
 5362SOL    HW117983   7.505   4.426  10.666
 5362SOL    HW217984   7.649   4.408  10.710
 5363SOL     OW17985   7.680  14.118  12.279
 5363SOL    HW117986   7.603  14.063  12.293
 5363SOL    HW217987   7.696  14.160  12.363
 5364SOL     OW17988   1.205   3.808   1.232
 5364SOL    HW117989   1.261   3.852   1.168
 5364SOL    HW217990   1.256   3.732   1.260
 5365SOL     OW17991  11.258   9.895   4.606
 5365SOL    HW117992  11.224   9.930   4.688
 5365SOL    HW217993  11.352   9.884   4.622
 5366SOL     OW17994   2.929  11.420   7.081
 5366SOL    HW117995   2.995  11.360   7.117
 5366SOL    HW217996   2.855  11.411   7.140
 5367SOL     OW17997   0.410  14.813   9.144
 5367SOL    HW117998   0.392  14.719   9.150
 5367SOL    HW217999   0.478  14.819   9.077
 5368SOL     OW18000   1.130  11.673   1.758
 5368SOL    HW118001   1.165  11.584   1.751
 5368SOL    HW218002   1.044  11.668   1.716
 5369SOL     OW18003   3.760   9.149  14.182
 5369SOL    HW118004   3.738   9.203  14.258
 5369SOL    HW218005   3.713   9.192  14.109
 5370SOL     OW18006   0.911   2.671   4.627
 5370SOL    HW118007   0.841   2.724   4.589
 5370SOL    HW218008   0.934   2.608   4.558
 5371SOL     OW18009   2.601   0.972   7.480
 5371SOL    HW118010   2.624   0.965   7.387
 5371SOL    HW218011   2.506   0.966   7.482
 5372SOL     OW18012  12.449   7.215  14.434
 5372SOL    HW118013  12.380   7.279  14.417
 5372SOL    HW218014  12.493   7.248  14.512
 5373SOL     OW18015  13.567  13.874   2.267
 5373SOL    HW118016  13.486  13.884   2.217
 5373SOL    HW218017  13.573  13.779   2.283
 5374SOL     OW18018   3.650  13.771   5.071
 5374SOL    HW118019   3.637  13.814   5.156
 5374SOL    HW218020   3.569  13.721   5.057
 5375SOL     OW18021   7.088  11.939   7.639
 5375SOL    HW118022   7.000  11.970   7.618
 5375SOL    HW218023   7.095  11.854   7.594
 5376SOL     OW18024   3.503   5.012  11.999
 5376SOL    HW118025   3.465   5.059  12.074
 5376SOL    HW218026   3.542   5.081  11.945
 5377SOL     OW18027   1.425   4.814   8.081
 5377SOL    HW118028   1.359   4.882   8.091
 5377SOL    HW218029   1.376   4.733   8.072
 5378SOL     OW18030   3.152   9.772   1.959
 5378SOL    HW118031   3.189   9.755   2.046
 5378SOL    HW218032   3.211   9.837   1.920
 5379SOL     OW18033   0.269   8.878   1.785
 5379SOL    HW118034   0.190   8.930   1.774
 5379SOL    HW218035   0.270   8.819   1.709
 5380SOL     OW18036  14.642   1.813   0.312
 5380SOL    HW118037  14.624   1.720   0.330
 5380SOL    HW218038  14.700   1.841   0.382
 5381SOL     OW18039  14.401  14.102  11.307
 5381SOL    HW118040  14.484  14.145  11.328
 5381SOL    HW218041  14.346  14.117  11.384
 5382SOL     OW18042   0.194   4.949   2.374
 5382SOL    HW118043   0.205   5.039   2.343
 5382SOL    HW218044   0.241   4.947   2.457
 5383SOL     OW18045   2.296  11.394   7.385
 5383SOL    HW118046   2.205  11.370   7.403
 5383SOL    HW218047   2.336  11.314   7.352
 5384SOL     OW18048   5.150  13.154   8.346
 5384SOL    HW118049   5.181  13.243   8.329
 5384SOL    HW218050   5.139  13.151   8.441
 5385SOL     OW18051   7.674  12.244   4.647
 5385SOL    HW118052   7.691  12.182   4.576
 5385SOL    HW218053   7.730  12.319   4.627
 5386SOL     OW18054   6.881   8.026   9.906
 5386SOL    HW118055   6.968   7.996   9.933
 5386SOL    HW218056   6.867   7.985   9.821
 5387SOL     OW18057   9.420  10.550  11.581
 5387SOL    HW118058   9.510  10.552  11.615
 5387SOL    HW218059   9.366  10.574  11.656
 5388SOL     OW18060  13.598   5.887   3.626
 5388SOL    HW118061  13.534   5.957   3.614
 5388SOL    HW218062  13.566   5.837   3.701
 5389SOL     OW18063   8.432   8.740  14.606
 5389SOL    HW118064   8.414   8.673  14.673
 5389SOL    HW218065   8.380   8.713  14.530
 5390SOL     OW18066   6.024   2.077   3.314
 5390SOL    HW118067   5.957   2.123   3.262
 5390SOL    HW218068   6.050   2.140   3.381
 5391SOL     OW18069   8.738  13.644  10.566
 5391SOL    HW118070   8.810  13.603  10.519
 5391SOL    HW218071   8.773  13.727  10.598
 5392SOL     OW18072   1.626  11.708  12.301
 5392SOL    HW118073   1.695  11.669  12.248
 5392SOL    HW218074   1.587  11.774  12.244
 5393SOL     OW18075   3.123  10.177   6.419
 5393SOL    HW118076   3.101  10.245   6.356
 5393SOL    HW218077   3.043  10.167   6.471
 5394SOL     OW18078  12.395   4.290   6.920
 5394SOL    HW118079  12.466   4.273   6.857
 5394SOL    HW218080  12.370   4.203   6.951
 5395SOL     OW18081  10.452   4.708  10.039
 5395SOL    HW118082  10.365   4.682  10.010
 5395SOL    HW218083  10.445   4.716  10.134
 5396SOL     OW18084   5.531  12.132   0.356
 5396SOL    HW118085   5.521  12.039   0.374
 5396SOL    HW218086   5.539  12.172   0.443
 5397SOL     OW18087  14.325   0.125   4.705
 5397SOL    HW118088  14.249   0.067   4.711
 5397SOL    HW218089  14.394   0.069   4.670
 5398SOL     OW18090   5.417   4.272   4.096
 5398SOL    HW118091   5.454   4.356   4.121
 5398SOL    HW218092   5.416   4.273   4.001
 5399SOL     OW18093  12.650   8.961   3.273
 5399SOL    HW118094  12.579   8.923   3.221
 5399SOL    HW218095  12.653   9.052   3.246
 5400SOL     OW18096   8.998   6.650   9.953
 5400SOL    HW118097   8.925   6.651  10.015
 5400SOL    HW218098   9.009   6.741   9.927
 5401SOL     OW18099   8.749   7.290   7.589
 5401SOL    HW118100   8.657   7.300   7.611
 5401SOL    HW218101   8.754   7.304   7.495
 5402SOL     OW18102   2.157   6.445   2.655
 5402SOL    HW118103   2.189   6.403   2.735
 5402SOL    HW218104   2.194   6.392   2.584
 5403SOL     OW18105   1.235   7.107   6.830
 5403SOL    HW118106   1.167   7.175   6.828
 5403SOL    HW218107   1.251   7.086   6.738
 5404SOL     OW18108  14.236   7.371   9.809
 5404SOL    HW118109  14.325   7.407   9.815
 5404SOL    HW218110  14.184   7.444   9.774
 5405SOL     OW18111   5.472  10.542   5.365
 5405SOL    HW118112   5.517  10.487   5.302
 5405SOL    HW218113   5.537  10.607   5.391
 5406SOL     OW18114   9.152   7.357   3.314
 5406SOL    HW118115   9.127   7.290   3.251
 5406SOL    HW218116   9.068   7.396   3.341
 5407SOL     OW18117   3.767  10.478   0.618
 5407SOL    HW118118   3.775  10.399   0.565
 5407SOL    HW218119   3.741  10.446   0.705
 5408SOL     OW18120  10.314   8.156   2.773
 5408SOL    HW118121  10.278   8.188   2.690
 5408SOL    HW218122  10.259   8.196   2.840
 5409SOL     OW18123  10.569  12.137   1.485
 5409SOL    HW118124  10.588  12.107   1.397
 5409SOL    HW218125  10.620  12.079   1.542
 5410SOL     OW18126   4.826   9.674   5.738
 5410SOL    HW118127   4.847   9.672   5.831
 5410SOL    HW218128   4.876   9.601   5.701
 5411SOL     OW18129  10.317   4.200  11.177
 5411SOL    HW118130  10.272   4.265  11.121
 5411SOL    HW218131  10.253   4.180  11.246
 5412SOL     OW18132  10.801   8.063  13.116
 5412SOL    HW118133  10.876   8.050  13.058
 5412SOL    HW218134  10.775   8.154  13.102
 5413SOL     OW18135   2.179   1.468   3.917
 5413SOL    HW118136   2.085   1.456   3.905
 5413SOL    HW218137   2.218   1.441   3.834
 5414SOL     OW18138  13.259   5.883   1.140
 5414SOL    HW118139  13.174   5.906   1.179
 5414SOL    HW218140  13.319   5.882   1.214
 5415SOL     OW18141  11.859   2.347   8.195
 5415SOL    HW118142  11.800   2.313   8.127
 5415SOL    HW218143  11.936   2.376   8.147
 5416SOL     OW18144   3.737   1.239  11.952
 5416SOL    HW118145   3.753   1.210  12.042
 5416SOL    HW218146   3.800   1.309  11.937
 5417SOL     OW18147   1.593   4.424  10.142
 5417SOL    HW118148   1.506   4.393  10.167
 5417SOL    HW218149   1.649   4.347  10.148
 5418SOL     OW18150   7.745  12.551  12.771
 5418SOL    HW118151   7.702  12.630  12.803
 5418SOL    HW218152   7.740  12.557  12.676
 5419SOL     OW18153   3.378  12.913  13.789
 5419SOL    HW118154   3.396  12.834  13.839
 5419SOL    HW218155   3.294  12.945  13.822
 5420SOL     OW18156   7.427   6.896  14.805
 5420SOL    HW118157   7.347   6.902  14.753
 5420SOL    HW218158   7.401   6.926   0.004
 5421SOL     OW18159  11.594   6.363  13.118
 5421SOL    HW118160  11.508   6.380  13.158
 5421SOL    HW218161  11.573   6.321  13.035
 5422SOL     OW18162  12.111   6.546   9.559
 5422SOL    HW118163  12.054   6.508   9.492
 5422SOL    HW218164  12.093   6.640   9.556
 5423SOL     OW18165   4.529   3.300   0.575
 5423SOL    HW118166   4.599   3.284   0.511
 5423SOL    HW218167   4.454   3.253   0.540
 5424SOL     OW18168   9.869   1.560  13.930
 5424SOL    HW118169   9.948   1.553  13.985
 5424SOL    HW218170   9.814   1.624  13.976
 5425SOL     OW18171   4.480   7.010   5.245
 5425SOL    HW118172   4.480   6.935   5.304
 5425SOL    HW218173   4.503   7.084   5.302
 5426SOL     OW18174   0.147   3.034   0.344
 5426SOL    HW118175   0.059   3.068   0.329
 5426SOL    HW218176   0.158   2.966   0.277
 5427SOL     OW18177   6.159  10.787  10.882
 5427SOL    HW118178   6.224  10.773  10.951
 5427SOL    HW218179   6.118  10.870  10.906
 5428SOL     OW18180   1.784   4.571  13.092
 5428SOL    HW118181   1.876   4.555  13.114
 5428SOL    HW218182   1.738   4.568  13.176
 5429SOL     OW18183   8.287  11.309   9.292
 5429SOL    HW118184   8.240  11.388   9.263
 5429SOL    HW218185   8.237  11.236   9.255
 5430SOL     OW18186   7.167   9.116   2.222
 5430SOL    HW118187   7.224   9.046   2.255
 5430SOL    HW218188   7.082   9.098   2.261
 5431SOL     OW18189   5.667   2.381  10.081
 5431SOL    HW118190   5.640   2.337  10.000
 5431SOL    HW218191   5.709   2.312  10.133
 5432SOL     OW18192   3.728  12.963   7.240
 5432SOL    HW118193   3.767  12.876   7.229
 5432SOL    HW218194   3.798  13.024   7.219
 5433SOL     OW18195  10.631   4.869   0.458
 5433SOL    HW118196  10.695   4.871   0.387
 5433SOL    HW218197  10.561   4.928   0.430
 5434SOL     OW18198  10.187  13.618  12.349
 5434SOL    HW118199  10.153  13.538  12.308
 5434SOL    HW218200  10.278  13.597  12.370
 5435SOL     OW18201   9.687  11.002   7.687
 5435SOL    HW118202   9.656  11.066   7.623
 5435SOL    HW218203   9.781  10.999   7.673
 5436SOL     OW18204  11.970   6.859   0.235
 5436SOL    HW118205  12.024   6.904   0.171
 5436SOL    HW218206  12.028   6.842   0.309
 5437SOL     OW18207   2.615  13.789  11.381
 5437SOL    HW118208   2.602  13.712  11.437
 5437SOL    HW218209   2.679  13.843  11.429
 5438SOL     OW18210   5.368  12.032   0.010
 5438SOL    HW118211   5.307  12.039  14.824
 5438SOL    HW218212   5.355  11.944   0.044
 5439SOL     OW18213  13.382   9.171   7.314
 5439SOL    HW118214  13.287   9.183   7.313
 5439SOL    HW218215  13.417   9.257   7.335
 5440SOL     OW18216   3.999   0.825   8.755
 5440SOL    HW118217   4.021   0.776   8.835
 5440SOL    HW218218   3.999   0.917   8.782
 5441SOL     OW18219   0.461   1.410   0.341
 5441SOL    HW118220   0.416   1.337   0.385
 5441SOL    HW218221   0.411   1.422   0.260
 5442SOL     OW18222   3.010   7.628  13.793
 5442SOL    HW118223   3.057   7.608  13.713
 5442SOL    HW218224   3.048   7.569  13.859
 5443SOL     OW18225  12.449   2.001  13.611
 5443SOL    HW118226  12.533   1.967  13.580
 5443SOL    HW218227  12.400   1.923  13.636
 5444SOL     OW18228   1.009   3.106   6.630
 5444SOL    HW118229   0.962   3.047   6.571
 5444SOL    HW218230   0.979   3.193   6.605
 5445SOL     OW18231   5.892  11.233   4.904
 5445SOL    HW118232   5.916  11.210   4.814
 5445SOL    HW218233   5.975  11.260   4.944
 5446SOL     OW18234  14.298   1.673  13.108
 5446SOL    HW118235  14.204   1.656  13.105
 5446SOL    HW218236  14.329   1.649  13.021
 5447SOL     OW18237   4.513  11.314  12.899
 5447SOL    HW118238   4.452  11.257  12.852
 5447SOL    HW218239   4.520  11.276  12.986
 5448SOL     OW18240  12.296  10.188   2.441
 5448SOL    HW118241  12.268  10.114   2.494
 5448SOL    HW218242  12.315  10.257   2.505
 5449SOL     OW18243  13.816  13.423  12.432
 5449SOL    HW118244  13.819  13.496  12.493
 5449SOL    HW218245  13.859  13.456  12.353
 5450SOL     OW18246  11.826  11.567   6.586
 5450SOL    HW118247  11.866  11.504   6.646
 5450SOL    HW218248  11.817  11.647   6.637
 5451SOL     OW18249   6.194   6.062  14.618
 5451SOL    HW118250   6.171   6.030  14.531
 5451SOL    HW218251   6.248   5.992  14.656
 5452SOL     OW18252  14.618  11.299  11.805
 5452SOL    HW118253  14.599  11.358  11.878
 5452SOL    HW218254  14.598  11.212  11.839
 5453SOL     OW18255   4.235   3.155   0.810
 5453SOL    HW118256   4.251   3.244   0.840
 5453SOL    HW218257   4.141   3.152   0.793
 5454SOL     OW18258   9.521   0.232  11.474
 5454SOL    HW118259   9.548   0.150  11.432
 5454SOL    HW218260   9.433   0.248  11.441
 5455SOL     OW18261   2.828  11.398   6.239
 5455SOL    HW118262   2.814  11.451   6.161
 5455SOL    HW218263   2.778  11.443   6.307
 5456SOL     OW18264  14.869   1.118  12.504
 5456SOL    HW118265  14.831   1.073  12.429
 5456SOL    HW218266   0.046   1.056  12.539
 5457SOL     OW18267  13.634   6.005   2.715
 5457SOL    HW118268  13.560   6.047   2.673
 5457SOL    HW218269  13.710   6.056   2.688
 5458SOL     OW18270   5.170  14.407   8.084
 5458SOL    HW118271   5.127  14.385   8.166
 5458SOL    HW218272   5.257  14.366   8.090
 5459SOL     OW18273   5.168   0.675   7.545
 5459SOL    HW118274   5.139   0.695   7.456
 5459SOL    HW218275   5.096   0.704   7.601
 5460SOL     OW18276   5.011  12.599   0.448
 5460SOL    HW118277   4.947  12.551   0.395
 5460SOL    HW218278   4.960  12.632   0.522
 5461SOL     OW18279   7.918  10.435   0.257
 5461SOL    HW118280   7.918  10.502   0.326
 5461SOL    HW218281   7.874  10.478   0.183
 5462SOL     OW18282   9.668  13.494  14.665
 5462SOL    HW118283   9.618  13.574  14.681
 5462SOL    HW218284   9.638  13.463  14.580
 5463SOL     OW18285   7.061   8.833   4.262
 5463SOL    HW118286   7.132   8.778   4.230
 5463SOL    HW218287   7.104   8.904   4.310
 5464SOL     OW18288  12.741  14.655   3.323
 5464SOL    HW118289  12.649  14.660   3.294
 5464SOL    HW218290  12.789  14.706   3.258
 5465SOL     OW18291   3.626   5.403  13.061
 5465SOL    HW118292   3.608   5.352  12.982
 5465SOL    HW218293   3.541   5.441  13.085
 5466SOL     OW18294   8.080   6.697   7.407
 5466SOL    HW118295   8.143   6.758   7.368
 5466SOL    HW218296   8.016   6.754   7.450
 5467SOL     OW18297   5.160  11.502   1.258
 5467SOL    HW118298   5.237  11.460   1.221
 5467SOL    HW218299   5.190  11.541   1.340
 5468SOL     OW18300   4.405   6.395  11.977
 5468SOL    HW118301   4.371   6.419  12.064
 5468SOL    HW218302   4.444   6.476  11.943
 5469SOL     OW18303   0.208   4.479   0.767
 5469SOL    HW118304   0.113   4.472   0.765
 5469SOL    HW218305   0.237   4.398   0.811
 5470SOL     OW18306   8.350  10.111   4.157
 5470SOL    HW118307   8.281  10.084   4.096
 5470SOL    HW218308   8.431  10.102   4.107
 5471SOL     OW18309  14.643   0.034  13.463
 5471SOL    HW118310  14.591   0.018  13.384
 5471SOL    HW218311  14.655   0.129  13.464
 5472SOL     OW18312  12.119  11.852  12.615
 5472SOL    HW118313  12.198  11.821  12.570
 5472SOL    HW218314  12.062  11.776  12.619
 5473SOL     OW18315  11.551   0.443   5.193
 5473SOL    HW118316  11.617   0.382   5.158
 5473SOL    HW218317  11.483   0.386   5.229
 5474SOL     OW18318   7.622   0.070  12.510
 5474SOL    HW118319   7.703   0.119  12.524
 5474SOL    HW218320   7.643   0.010  12.438
 5475SOL     OW18321  14.011   6.608   8.201
 5475SOL    HW118322  14.009   6.703   8.195
 5475SOL    HW218323  13.961   6.578   8.125
 5476SOL     OW18324   3.678   8.906  13.659
 5476SOL    HW118325   3.680   8.895  13.564
 5476SOL    HW218326   3.769   8.895  13.686
 5477SOL     OW18327   3.977   5.914   9.235
 5477SOL    HW118328   3.892   5.956   9.222
 5477SOL    HW218329   3.962   5.822   9.212
 5478SOL     OW18330   9.074   1.705   1.738
 5478SOL    HW118331   9.108   1.792   1.757
 5478SOL    HW218332   9.016   1.718   1.663
 5479SOL     OW18333  11.862   7.979   9.995
 5479SOL    HW118334  11.783   7.927  10.006
 5479SOL    HW218335  11.932   7.925  10.031
 5480SOL     OW18336   2.032   6.103   1.799
 5480SOL    HW118337   1.956   6.154   1.772
 5480SOL    HW218338   2.081   6.089   1.718
 5481SOL     OW18339   0.962  11.200  14.038
 5481SOL    HW118340   0.940  11.168  13.950
 5481SOL    HW218341   1.016  11.131  14.076
 5482SOL     OW18342   1.148   3.480   1.648
 5482SOL    HW118343   1.155   3.575   1.634
 5482SOL    HW218344   1.213   3.443   1.588
 5483SOL     OW18345   0.769   0.352   2.001
 5483SOL    HW118346   0.850   0.302   2.004
 5483SOL    HW218347   0.778   0.410   1.925
 5484SOL     OW18348   6.193  11.353   6.260
 5484SOL    HW118349   6.276  11.360   6.306
 5484SOL    HW218350   6.186  11.260   6.237
 5485SOL     OW18351   8.811   9.880   1.311
 5485SOL    HW118352   8.877   9.872   1.242
 5485SOL    HW218353   8.802   9.791   1.346
 5486SOL     OW18354   8.325   2.866   8.317
 5486SOL    HW118355   8.336   2.776   8.348
 5486SOL    HW218356   8.255   2.902   8.371
 5487SOL     OW18357   5.797   3.605   7.224
 5487SOL    HW118358   5.886   3.570   7.231
 5487SOL    HW218359   5.790   3.633   7.133
 5488SOL     OW18360   6.399   0.711  10.749
 5488SOL    HW118361   6.338   0.658  10.800
 5488SOL    HW218362   6.462   0.649  10.712
 5489SOL     OW18363  14.634   9.207   0.541
 5489SOL    HW118364  14.558   9.239   0.590
 5489SOL    HW218365  14.706   9.262   0.570
 5490SOL     OW18366   6.726   8.594   0.718
 5490SOL    HW118367   6.751   8.502   0.726
 5490SOL    HW218368   6.631   8.595   0.728
 5491SOL     OW18369  14.201  10.268   5.783
 5491SOL    HW118370  14.161  10.241   5.865
 5491SOL    HW218371  14.290  10.293   5.806
 5492SOL     OW18372  14.202  12.050  13.176
 5492SOL    HW118373  14.182  11.994  13.251
 5492SOL    HW218374  14.180  11.997  13.099
 5493SOL     OW18375   3.567   4.378  10.390
 5493SOL    HW118376   3.540   4.306  10.332
 5493SOL    HW218377   3.511   4.368  10.467
 5494SOL     OW18378   4.444  10.258   2.358
 5494SOL    HW118379   4.380  10.326   2.379
 5494SOL    HW218380   4.429  10.238   2.265
 5495SOL     OW18381   2.554  11.812   9.642
 5495SOL    HW118382   2.522  11.812   9.732
 5495SOL    HW218383   2.481  11.846   9.591
 5496SOL     OW18384  11.803  10.463  13.660
 5496SOL    HW118385  11.881  10.407  13.663
 5496SOL    HW218386  11.827  10.540  13.712
 5497SOL     OW18387   8.759   0.377   9.945
 5497SOL    HW118388   8.694   0.334  10.000
 5497SOL    HW218389   8.834   0.392  10.003
 5498SOL     OW18390   1.412   2.526   2.757
 5498SOL    HW118391   1.388   2.604   2.708
 5498SOL    HW218392   1.361   2.532   2.838
 5499SOL     OW18393  10.190  14.747   0.207
 5499SOL    HW118394  10.261  14.750   0.143
 5499SOL    HW218395  10.192  14.833   0.248
 5500SOL     OW18396  10.643  13.189   0.677
 5500SOL    HW118397  10.702  13.194   0.601
 5500SOL    HW218398  10.576  13.255   0.659
 5501SOL     OW18399   8.544   9.134   4.378
 5501SOL    HW118400   8.522   9.226   4.360
 5501SOL    HW218401   8.515   9.119   4.468
 5502SOL     OW18402  10.387   7.591   4.408
 5502SOL    HW118403  10.377   7.560   4.318
 5502SOL    HW218404  10.354   7.519   4.462
 5503SOL     OW18405   2.657  12.403  10.686
 5503SOL    HW118406   2.599  12.477  10.705
 5503SOL    HW218407   2.734  12.442  10.647
 5504SOL     OW18408   7.733   1.621  12.421
 5504SOL    HW118409   7.732   1.684  12.493
 5504SOL    HW218410   7.805   1.649  12.365
 5505SOL     OW18411   1.805  10.305   1.596
 5505SOL    HW118412   1.730  10.262   1.636
 5505SOL    HW218413   1.810  10.390   1.638
 5506SOL     OW18414   0.695   8.161   8.053
 5506SOL    HW118415   0.615   8.155   8.105
 5506SOL    HW218416   0.672   8.218   7.980
 5507SOL     OW18417   8.592  10.117   3.521
 5507SOL    HW118418   8.645  10.194   3.541
 5507SOL    HW218419   8.502  10.150   3.517
 5508SOL     OW18420   3.365   3.901  13.946
 5508SOL    HW118421   3.439   3.844  13.926
 5508SOL    HW218422   3.339   3.938  13.862
 5509SOL     OW18423   9.674   1.089   4.571
 5509SOL    HW118424   9.768   1.097   4.553
 5509SOL    HW218425   9.670   1.024   4.641
 5510SOL     OW18426   2.994   6.978   3.051
 5510SOL    HW118427   2.961   7.067   3.037
 5510SOL    HW218428   2.972   6.958   3.142
 5511SOL     OW18429  10.626   4.504   6.276
 5511SOL    HW118430  10.561   4.508   6.346
 5511SOL    HW218431  10.576   4.518   6.196
 5512SOL     OW18432  12.782   6.733   8.294
 5512SOL    HW118433  12.694   6.768   8.309
 5512SOL    HW218434  12.790   6.661   8.356
 5513SOL     OW18435  12.722  10.226  11.081
 5513SOL    HW118436  12.716  10.157  11.015
 5513SOL    HW218437  12.631  10.248  11.100
 5514SOL     OW18438   3.517   8.155   1.062
 5514SOL    HW118439   3.602   8.157   1.106
 5514SOL    HW218440   3.538   8.155   0.969
 5515SOL     OW18441   8.292   3.617   6.553
 5515SOL    HW118442   8.276   3.583   6.465
 5515SOL    HW218443   8.293   3.712   6.542
 5516SOL     OW18444  11.333   9.450  13.463
 5516SOL    HW118445  11.420   9.479  13.437
 5516SOL    HW218446  11.280   9.454  13.383
 5517SOL     OW18447  13.974  12.194   7.580
 5517SOL    HW118448  13.911  12.216   7.649
 5517SOL    HW218449  14.020  12.116   7.613
 5518SOL     OW18450   1.519  12.357  14.701
 5518SOL    HW118451   1.610  12.364  14.675
 5518SOL    HW218452   1.522  12.332  14.793
 5519SOL     OW18453  12.324  12.131   9.538
 5519SOL    HW118454  12.398  12.106   9.594
 5519SOL    HW218455  12.246  12.112   9.591
 5520SOL     OW18456  13.885  13.024  14.566
 5520SOL    HW118457  13.973  13.022  14.529
 5520SOL    HW218458  13.861  13.117  14.566
 5521SOL     OW18459   2.937  12.740  10.374
 5521SOL    HW118460   2.853  12.710  10.338
 5521SOL    HW218461   2.961  12.673  10.438
 5522SOL     OW18462  11.151  13.762  13.887
 5522SOL    HW118463  11.128  13.669  13.887
 5522SOL    HW218464  11.135  13.791  13.977
 5523SOL     OW18465   0.150   1.729   9.694
 5523SOL    HW118466   0.139   1.715   9.600
 5523SOL    HW218467   0.233   1.776   9.702
 5524SOL     OW18468   8.708   7.310   5.208
 5524SOL    HW118469   8.726   7.353   5.125
 5524SOL    HW218470   8.794   7.292   5.245
 5525SOL     OW18471  11.506   3.465   5.344
 5525SOL    HW118472  11.600   3.468   5.363
 5525SOL    HW218473  11.468   3.531   5.402
 5526SOL     OW18474  12.944   8.613  12.854
 5526SOL    HW118475  12.988   8.691  12.820
 5526SOL    HW218476  12.870   8.599  12.796
 5527SOL     OW18477   8.586   8.765  12.323
 5527SOL    HW118478   8.588   8.755  12.228
 5527SOL    HW218479   8.648   8.700  12.356
 5528SOL     OW18480  14.032  11.171   8.802
 5528SOL    HW118481  14.041  11.262   8.830
 5528SOL    HW218482  14.093  11.123   8.858
 5529SOL     OW18483  10.566   0.445   2.637
 5529SOL    HW118484  10.504   0.412   2.702
 5529SOL    HW218485  10.591   0.367   2.587
 5530SOL     OW18486   6.910   6.267   3.430
 5530SOL    HW118487   6.815   6.277   3.437
 5530SOL    HW218488   6.925   6.250   3.337
 5531SOL     OW18489   1.803   7.777   0.009
 5531SOL    HW118490   1.817   7.872   0.006
 5531SOL    HW218491   1.737   7.761  14.829
 5532SOL     OW18492  14.709   2.234   8.718
 5532SOL    HW118493  14.661   2.170   8.769
 5532SOL    HW218494  14.741   2.185   8.641
 5533SOL     OW18495   4.846   6.841   7.717
 5533SOL    HW118496   4.868   6.806   7.804
 5533SOL    HW218497   4.828   6.934   7.733
 5534SOL     OW18498  11.147   3.123   0.077
 5534SOL    HW118499  11.193   3.065   0.016
 5534SOL    HW218500  11.063   3.140   0.035
 5535SOL     OW18501   9.488   7.795  10.927
 5535SOL    HW118502   9.475   7.854  10.853
 5535SOL    HW218503   9.436   7.833  10.998
 5536SOL     OW18504   3.468   4.283   3.921
 5536SOL    HW118505   3.495   4.353   3.980
 5536SOL    HW218506   3.474   4.322   3.834
 5537SOL     OW18507   9.281  14.402   7.929
 5537SOL    HW118508   9.190  14.400   7.958
 5537SOL    HW218509   9.331  14.378   8.007
 5538SOL     OW18510  12.104  10.299   7.207
 5538SOL    HW118511  12.190  10.331   7.234
 5538SOL    HW218512  12.050  10.378   7.201
 5539SOL     OW18513   4.480  11.831  10.833
 5539SOL    HW118514   4.422  11.822  10.909
 5539SOL    HW218515   4.568  11.833  10.870
 5540SOL     OW18516  10.609   2.572   4.872
 5540SOL    HW118517  10.593   2.588   4.965
 5540SOL    HW218518  10.679   2.632   4.849
 5541SOL     OW18519   5.575   1.346  11.815
 5541SOL    HW118520   5.494   1.328  11.766
 5541SOL    HW218521   5.561   1.305  11.900
 5542SOL     OW18522  14.788   4.580   2.100
 5542SOL    HW118523  14.851   4.564   2.030
 5542SOL    HW218524  14.814   4.665   2.136
 5543SOL     OW18525   7.859  10.872   3.756
 5543SOL    HW118526   7.770  10.897   3.731
 5543SOL    HW218527   7.881  10.930   3.829
 5544SOL     OW18528   0.368   7.154   4.954
 5544SOL    HW118529   0.331   7.179   4.869
 5544SOL    HW218530   0.333   7.218   5.015
 5545SOL     OW18531   1.337   8.198   2.987
 5545SOL    HW118532   1.260   8.254   2.985
 5545SOL    HW218533   1.411   8.259   2.984
 5546SOL     OW18534  13.536   1.940   6.925
 5546SOL    HW118535  13.461   1.898   6.969
 5546SOL    HW218536  13.517   1.930   6.832
 5547SOL     OW18537  14.601   1.484   2.129
 5547SOL    HW118538  14.627   1.546   2.197
 5547SOL    HW218539  14.662   1.501   2.057
 5548SOL     OW18540  11.570   1.603   8.337
 5548SOL    HW118541  11.517   1.524   8.350
 5548SOL    HW218542  11.507   1.675   8.339
 5549SOL     OW18543   3.276   7.266  10.342
 5549SOL    HW118544   3.284   7.241  10.250
 5549SOL    HW218545   3.213   7.203  10.378
 5550SOL     OW18546   0.298   5.628   0.311
 5550SOL    HW118547   0.206   5.612   0.290
 5550SOL    HW218548   0.297   5.700   0.373
 5551SOL     OW18549   6.785   4.376   7.453
 5551SOL    HW118550   6.867   4.412   7.419
 5551SOL    HW218551   6.719   4.442   7.431
 5552SOL     OW18552   2.193   5.637   9.175
 5552SOL    HW118553   2.103   5.613   9.197
 5552SOL    HW218554   2.247   5.582   9.232
 5553SOL     OW18555   9.401  14.676   3.732
 5553SOL    HW118556   9.451  14.720   3.663
 5553SOL    HW218557   9.319  14.652   3.689
 5554SOL     OW18558  10.408   0.558   6.294
 5554SOL    HW118559  10.447   0.494   6.353
 5554SOL    HW218560  10.454   0.545   6.211
 5555SOL     OW18561  11.928  10.106   7.534
 5555SOL    HW118562  12.018  10.083   7.556
 5555SOL    HW218563  11.925  10.105   7.439
 5556SOL     OW18564   4.970  10.391   8.169
 5556SOL    HW118565   5.007  10.315   8.124
 5556SOL    HW218566   4.901  10.422   8.110
 5557SOL     OW18567   0.577   5.510   6.106
 5557SOL    HW118568   0.518   5.546   6.172
 5557SOL    HW218569   0.573   5.572   6.033
 5558SOL     OW18570   4.122   2.325  14.051
 5558SOL    HW118571   4.156   2.238  14.029
 5558SOL    HW218572   4.193   2.368  14.099
 5559SOL     OW18573   9.305   4.664   1.808
 5559SOL    HW118574   9.308   4.598   1.877
 5559SOL    HW218575   9.353   4.624   1.735
 5560SOL     OW18576   2.695   1.866  12.094
 5560SOL    HW118577   2.765   1.931  12.089
 5560SOL    HW218578   2.733   1.788  12.054
 5561SOL     OW18579   9.205   1.591  12.812
 5561SOL    HW118580   9.137   1.532  12.778
 5561SOL    HW218581   9.208   1.663  12.749
 5562SOL     OW18582   6.349  11.306   9.295
 5562SOL    HW118583   6.274  11.270   9.248
 5562SOL    HW218584   6.381  11.376   9.238
 5563SOL     OW18585  13.284  11.611   1.426
 5563SOL    HW118586  13.310  11.587   1.515
 5563SOL    HW218587  13.252  11.530   1.387
 5564SOL     OW18588  14.462  14.112  14.745
 5564SOL    HW118589  14.395  14.072  14.689
 5564SOL    HW218590  14.456  14.205  14.725
 5565SOL     OW18591   7.793   9.988   1.071
 5565SOL    HW118592   7.767  10.049   1.002
 5565SOL    HW218593   7.821  10.045   1.143
 5566SOL     OW18594   4.563   5.848   8.398
 5566SOL    HW118595   4.546   5.850   8.304
 5566SOL    HW218596   4.570   5.754   8.419
 5567SOL     OW18597   6.081  13.950   9.116
 5567SOL    HW118598   6.164  13.998   9.111
 5567SOL    HW218599   6.058  13.951   9.209
 5568SOL     OW18600   5.793  12.728   1.638
 5568SOL    HW118601   5.733  12.659   1.608
 5568SOL    HW218602   5.749  12.765   1.715
 5569SOL     OW18603  11.572  11.686   8.715
 5569SOL    HW118604  11.495  11.692   8.772
 5569SOL    HW218605  11.635  11.636   8.766
 5570SOL     OW18606   3.355   8.778   6.108
 5570SOL    HW118607   3.353   8.826   6.025
 5570SOL    HW218608   3.405   8.699   6.088
 5571SOL     OW18609   9.528   5.350   6.418
 5571SOL    HW118610   9.433   5.362   6.411
 5571SOL    HW218611   9.545   5.348   6.512
 5572SOL     OW18612   6.039   4.455   6.648
 5572SOL    HW118613   6.126   4.430   6.616
 5572SOL    HW218614   6.014   4.530   6.593
 5573SOL     OW18615  11.665   7.521   9.274
 5573SOL    HW118616  11.575   7.544   9.296
 5573SOL    HW218617  11.673   7.544   9.181
 5574SOL     OW18618  10.819   5.562  10.714
 5574SOL    HW118619  10.728   5.542  10.737
 5574SOL    HW218620  10.847   5.625  10.780
 5575SOL     OW18621   5.392  14.450   8.846
 5575SOL    HW118622   5.354  14.433   8.760
 5575SOL    HW218623   5.334  14.405   8.907
 5576SOL     OW18624  13.139  11.474  10.805
 5576SOL    HW118625  13.065  11.413  10.799
 5576SOL    HW218626  13.098  11.558  10.825
 5577SOL     OW18627   3.296  14.390   4.198
 5577SOL    HW118628   3.277  14.357   4.110
 5577SOL    HW218629   3.308  14.484   4.186
 5578SOL     OW18630   5.299   7.692   8.445
 5578SOL    HW118631   5.364   7.759   8.465
 5578SOL    HW218632   5.295   7.689   8.349
 5579SOL     OW18633   3.236  12.979  12.141
 5579SOL    HW118634   3.167  12.987  12.207
 5579SOL    HW218635   3.274  12.892  12.157
 5580SOL     OW18636   6.265   1.849   9.071
 5580SOL    HW118637   6.302   1.900   9.143
 5580SOL    HW218638   6.233   1.915   9.009
 5581SOL     OW18639   2.585   8.341   6.073
 5581SOL    HW118640   2.551   8.330   5.984
 5581SOL    HW218641   2.641   8.418   6.068
 5582SOL     OW18642   4.014   0.963   6.699
 5582SOL    HW118643   3.926   0.946   6.731
 5582SOL    HW218644   4.070   0.946   6.775
 5583SOL     OW18645   6.775   1.101  11.372
 5583SOL    HW118646   6.821   1.049  11.438
 5583SOL    HW218647   6.737   1.174  11.421
 5584SOL     OW18648  14.859   7.760  14.183
 5584SOL    HW118649   0.052   7.753  14.131
 5584SOL    HW218650  14.872   7.699  14.255
 5585SOL     OW18651   7.573  14.829   5.276
 5585SOL    HW118652   7.482  14.855   5.291
 5585SOL    HW218653   7.585  14.837   5.182
 5586SOL     OW18654   8.663   2.354   9.352
 5586SOL    HW118655   8.659   2.446   9.325
 5586SOL    HW218656   8.634   2.353   9.443
 5587SOL     OW18657   7.959   0.609   8.922
 5587SOL    HW118658   7.927   0.519   8.919
 5587SOL    HW218659   7.993   0.619   9.011
 5588SOL     OW18660   8.603  14.114   5.931
 5588SOL    HW118661   8.564  14.071   5.855
 5588SOL    HW218662   8.552  14.082   6.006
 5589SOL     OW18663  12.896   7.654   7.716
 5589SOL    HW118664  12.851   7.729   7.756
 5589SOL    HW218665  12.844   7.634   7.638
 5590SOL     OW18666   5.517  12.662  11.893
 5590SOL    HW118667   5.439  12.680  11.945
 5590SOL    HW218668   5.587  12.653  11.957
 5591SOL     OW18669  10.586   5.855  12.103
 5591SOL    HW118670  10.564   5.763  12.097
 5591SOL    HW218671  10.508   5.897  12.140
 5592SOL     OW18672   6.362  13.684   2.996
 5592SOL    HW118673   6.348  13.732   2.914
 5592SOL    HW218674   6.380  13.594   2.969
 5593SOL     OW18675  13.722  12.682   2.705
 5593SOL    HW118676  13.719  12.637   2.621
 5593SOL    HW218677  13.635  12.719   2.716
 5594SOL     OW18678   7.167   2.137  10.724
 5594SOL    HW118679   7.257   2.157  10.699
 5594SOL    HW218680   7.143   2.061  10.670
 5595SOL     OW18681   6.203  10.639   7.244
 5595SOL    HW118682   6.164  10.616   7.159
 5595SOL    HW218683   6.283  10.686   7.221
 5596SOL     OW18684  11.356  14.236  10.617
 5596SOL    HW118685  11.430  14.279  10.574
 5596SOL    HW218686  11.368  14.256  10.710
 5597SOL     OW18687   9.074  14.824  10.046
 5597SOL    HW118688   8.994  14.815   9.995
 5597SOL    HW218689   9.130  14.753  10.015
 5598SOL     OW18690   3.733   2.880  11.290
 5598SOL    HW118691   3.666   2.881  11.359
 5598SOL    HW218692   3.683   2.869  11.209
 5599SOL     OW18693  13.687   7.637   0.851
 5599SOL    HW118694  13.748   7.571   0.821
 5599SOL    HW218695  13.714   7.717   0.806
 5600SOL     OW18696  10.656   0.831   5.341
 5600SOL    HW118697  10.737   0.882   5.333
 5600SOL    HW218698  10.675   0.768   5.411
 5601SOL     OW18699   3.427  12.257  14.400
 5601SOL    HW118700   3.486  12.181  14.398
 5601SOL    HW218701   3.341  12.221  14.378
 5602SOL     OW18702   9.459   7.077  11.339
 5602SOL    HW118703   9.445   7.122  11.256
 5602SOL    HW218704   9.374   7.080  11.383
 5603SOL     OW18705   5.347   3.009   9.061
 5603SOL    HW118706   5.347   3.096   9.100
 5603SOL    HW218707   5.362   2.950   9.134
 5604SOL     OW18708   6.433  10.683  13.935
 5604SOL    HW118709   6.463  10.599  13.970
 5604SOL    HW218710   6.343  10.667  13.906
 5605SOL     OW18711   0.967   6.037  14.012
 5605SOL    HW118712   0.878   6.041  14.048
 5605SOL    HW218713   1.007   6.120  14.037
 5606SOL     OW18714   5.796  13.156   6.494
 5606SOL    HW118715   5.816  13.078   6.546
 5606SOL    HW218716   5.730  13.203   6.545
 5607SOL     OW18717   9.581  14.299  11.606
 5607SOL    HW118718   9.556  14.321  11.516
 5607SOL    HW218719   9.652  14.235  11.597
 5608SOL     OW18720   0.545   3.839   4.864
 5608SOL    HW118721   0.546   3.796   4.778
 5608SOL    HW218722   0.474   3.795   4.911
 5609SOL     OW18723  10.107   6.623  12.070
 5609SOL    HW118724  10.183   6.650  12.019
 5609SOL    HW218725  10.067   6.706  12.097
 5610SOL     OW18726   0.220   1.190   6.557
 5610SOL    HW118727   0.168   1.169   6.635
 5610SOL    HW218728   0.311   1.182   6.587
 5611SOL     OW18729   8.750   5.891   8.706
 5611SOL    HW118730   8.664   5.933   8.714
 5611SOL    HW218731   8.747   5.820   8.770
 5612SOL     OW18732   7.799   6.280   8.926
 5612SOL    HW118733   7.842   6.287   8.841
 5612SOL    HW218734   7.748   6.199   8.921
 5613SOL     OW18735   3.084   9.872   1.699
 5613SOL    HW118736   3.099   9.845   1.790
 5613SOL    HW218737   3.066   9.966   1.705
 5614SOL     OW18738   1.532   9.963  13.792
 5614SOL    HW118739   1.582  10.013  13.728
 5614SOL    HW218740   1.565   9.992  13.877
 5615SOL     OW18741  14.117   9.659   5.995
 5615SOL    HW118742  14.136   9.711   5.916
 5615SOL    HW218743  14.056   9.591   5.965
 5616SOL     OW18744   1.624   8.397   8.712
 5616SOL    HW118745   1.624   8.433   8.801
 5616SOL    HW218746   1.711   8.359   8.702
 5617SOL     OW18747  14.111  13.402  14.145
 5617SOL    HW118748  14.044  13.395  14.213
 5617SOL    HW218749  14.185  13.351  14.179
 5618SOL     OW18750  13.950   5.694   2.599
 5618SOL    HW118751  14.006   5.625   2.562
 5618SOL    HW218752  14.010   5.766   2.616
 5619SOL     OW18753  14.000   8.372   3.187
 5619SOL    HW118754  13.918   8.329   3.212
 5619SOL    HW218755  14.042   8.394   3.270
 5620SOL     OW18756  14.439  11.589  12.303
 5620SOL    HW118757  14.476  11.673  12.331
 5620SOL    HW218758  14.515  11.531  12.297
 5621SOL     OW18759   8.178   9.467   2.383
 5621SOL    HW118760   8.125   9.439   2.309
 5621SOL    HW218761   8.173   9.563   2.382
 5622SOL     OW18762  12.772   8.857   7.569
 5622SOL    HW118763  12.796   8.927   7.509
 5622SOL    HW218764  12.679   8.873   7.588
 5623SOL     OW18765   0.891   8.523   7.303
 5623SOL    HW118766   0.869   8.515   7.210
 5623SOL    HW218767   0.846   8.602   7.332
 5624SOL     OW18768   5.254   5.975   7.578
 5624SOL    HW118769   5.186   5.937   7.633
 5624SOL    HW218770   5.324   5.911   7.578
 5625SOL     OW18771   9.145  11.468   6.530
 5625SOL    HW118772   9.178  11.433   6.613
 5625SOL    HW218773   9.190  11.416   6.463
 5626SOL     OW18774   1.683   9.264   9.212
 5626SOL    HW118775   1.723   9.350   9.209
 5626SOL    HW218776   1.712   9.221   9.132
 5627SOL     OW18777  11.636   5.022   2.676
 5627SOL    HW118778  11.700   5.012   2.605
 5627SOL    HW218779  11.659   5.105   2.717
 5628SOL     OW18780  10.735   4.092   7.119
 5628SOL    HW118781  10.737   3.996   7.117
 5628SOL    HW218782  10.683   4.116   7.043
 5629SOL     OW18783   6.264   6.551  12.416
 5629SOL    HW118784   6.252   6.478  12.478
 5629SOL    HW218785   6.210   6.622  12.451
 5630SOL     OW18786  12.434   7.945   2.267
 5630SOL    HW118787  12.435   8.028   2.314
 5630SOL    HW218788  12.365   7.956   2.201
 5631SOL     OW18789   8.403  10.758  13.984
 5631SOL    HW118790   8.413  10.850  14.008
 5631SOL    HW218791   8.376  10.759  13.892
 5632SOL     OW18792   7.502   1.686   7.147
 5632SOL    HW118793   7.519   1.654   7.058
 5632SOL    HW218794   7.497   1.781   7.138
 5633SOL     OW18795   2.303   6.207   4.395
 5633SOL    HW118796   2.350   6.179   4.473
 5633SOL    HW218797   2.215   6.168   4.404
 5634SOL     OW18798  11.847   3.555   7.676
 5634SOL    HW118799  11.842   3.498   7.753
 5634SOL    HW218800  11.873   3.640   7.712
 5635SOL     OW18801   0.394  10.340  14.674
 5635SOL    HW118802   0.397  10.245  14.662
 5635SOL    HW218803   0.300  10.361  14.677
 5636SOL     OW18804  11.671   7.678  12.408
 5636SOL    HW118805  11.618   7.700  12.331
 5636SOL    HW218806  11.737   7.747  12.412
 5637SOL     OW18807   6.955   4.140  12.095
 5637SOL    HW118808   7.000   4.125  12.178
 5637SOL    HW218809   6.956   4.055  12.051
 5638SOL     OW18810   2.308  13.427   8.275
 5638SOL    HW118811   2.318  13.520   8.298
 5638SOL    HW218812   2.397  13.393   8.271
 5639SOL     OW18813   9.328  14.028   2.123
 5639SOL    HW118814   9.397  14.041   2.058
 5639SOL    HW218815   9.375  14.022   2.207
 5640SOL     OW18816   4.981  11.885   3.693
 5640SOL    HW118817   4.983  11.943   3.770
 5640SOL    HW218818   5.053  11.824   3.708
 5641SOL     OW18819   0.414   8.161  10.171
 5641SOL    HW118820   0.319   8.160  10.163
 5641SOL    HW218821   0.443   8.082  10.125
 5642SOL     OW18822   0.318  10.626   2.242
 5642SOL    HW118823   0.259  10.560   2.207
 5642SOL    HW218824   0.401  10.580   2.256
 5643SOL     OW18825   8.431   7.861   6.864
 5643SOL    HW118826   8.494   7.826   6.802
 5643SOL    HW218827   8.483   7.917   6.922
 5644SOL     OW18828   8.839  10.557   1.465
 5644SOL    HW118829   8.826  10.627   1.401
 5644SOL    HW218830   8.931  10.565   1.490
 5645SOL     OW18831   2.971   5.047   0.167
 5645SOL    HW118832   3.051   5.035   0.116
 5645SOL    HW218833   2.985   4.994   0.246
 5646SOL     OW18834   5.425   5.727   6.227
 5646SOL    HW118835   5.352   5.712   6.288
 5646SOL    HW218836   5.388   5.785   6.160
 5647SOL     OW18837   9.995   6.098  13.095
 5647SOL    HW118838   9.999   6.131  13.006
 5647SOL    HW218839   9.919   6.040  13.097
 5648SOL     OW18840   9.197   4.662   2.665
 5648SOL    HW118841   9.158   4.656   2.578
 5648SOL    HW218842   9.263   4.593   2.666
 5649SOL     OW18843   4.712  12.084   8.159
 5649SOL    HW118844   4.662  12.126   8.228
 5649SOL    HW218845   4.746  12.156   8.106
 5650SOL     OW18846   8.450   7.898  13.067
 5650SOL    HW118847   8.357   7.900  13.091
 5650SOL    HW218848   8.484   7.983  13.095
 5651SOL     OW18849   9.253   3.043   8.748
 5651SOL    HW118850   9.327   3.087   8.705
 5651SOL    HW218851   9.291   3.006   8.828
 5652SOL     OW18852   2.257   1.159  11.141
 5652SOL    HW118853   2.301   1.187  11.221
 5652SOL    HW218854   2.177   1.116  11.172
 5653SOL     OW18855  11.116  11.565   1.268
 5653SOL    HW118856  11.158  11.480   1.282
 5653SOL    HW218857  11.149  11.620   1.339
 5654SOL     OW18858  11.910  11.057   7.021
 5654SOL    HW118859  11.855  11.122   6.976
 5654SOL    HW218860  11.989  11.105   7.045
 5655SOL     OW18861   4.199   8.584   6.893
 5655SOL    HW118862   4.188   8.506   6.839
 5655SOL    HW218863   4.154   8.654   6.845
 5656SOL     OW18864   6.820   5.797   2.356
 5656SOL    HW118865   6.826   5.711   2.315
 5656SOL    HW218866   6.854   5.784   2.445
 5657SOL     OW18867   8.499   9.227   7.144
 5657SOL    HW118868   8.493   9.280   7.065
 5657SOL    HW218869   8.587   9.243   7.177
 5658SOL     OW18870   0.464   4.546  13.865
 5658SOL    HW118871   0.372   4.561  13.885
 5658SOL    HW218872   0.481   4.456  13.895
 5659SOL     OW18873   8.967   2.300   4.519
 5659SOL    HW118874   8.918   2.376   4.490
 5659SOL    HW218875   8.935   2.284   4.608
 5660SOL     OW18876   5.920   0.344  11.728
 5660SOL    HW118877   5.894   0.314  11.641
 5660SOL    HW218878   5.958   0.267  11.770
 5661SOL     OW18879  14.473   1.205  13.746
 5661SOL    HW118880  14.546   1.153  13.713
 5661SOL    HW218881  14.468   1.183  13.840
 5662SOL     OW18882   0.350   6.242   6.181
 5662SOL    HW118883   0.437   6.243   6.140
 5662SOL    HW218884   0.289   6.232   6.108
 5663SOL     OW18885   4.931  11.309  11.241
 5663SOL    HW118886   4.836  11.295  11.234
 5663SOL    HW218887   4.949  11.380  11.180
 5664SOL     OW18888   3.526  11.495   4.582
 5664SOL    HW118889   3.577  11.450   4.650
 5664SOL    HW218890   3.526  11.435   4.508
 5665SOL     OW18891  14.023  12.654   9.074
 5665SOL    HW118892  14.005  12.716   9.144
 5665SOL    HW218893  14.046  12.709   8.998
 5666SOL     OW18894  11.576   4.129   1.512
 5666SOL    HW118895  11.543   4.052   1.466
 5666SOL    HW218896  11.642   4.095   1.573
 5667SOL     OW18897   1.186   0.067   8.773
 5667SOL    HW118898   1.154   0.060   8.682
 5667SOL    HW218899   1.111   0.101   8.822
 5668SOL     OW18900   6.355   1.083  12.089
 5668SOL    HW118901   6.370   1.130  12.171
 5668SOL    HW218902   6.390   1.141  12.021
 5669SOL     OW18903   3.052   2.795   2.234
 5669SOL    HW118904   2.986   2.736   2.269
 5669SOL    HW218905   3.082   2.753   2.154
 5670SOL     OW18906   0.543   7.067   9.012
 5670SOL    HW118907   0.511   7.040   8.925
 5670SOL    HW218908   0.495   7.011   9.073
 5671SOL     OW18909   3.071   6.307   6.555
 5671SOL    HW118910   3.055   6.320   6.648
 5671SOL    HW218911   3.138   6.371   6.532
 5672SOL     OW18912   3.624   4.087   0.439
 5672SOL    HW118913   3.571   4.089   0.359
 5672SOL    HW218914   3.604   4.169   0.483
 5673SOL     OW18915   0.012   4.576   4.010
 5673SOL    HW118916   0.061   4.624   3.943
 5673SOL    HW218917   0.074   4.566   4.082
 5674SOL     OW18918  11.211  12.837   6.622
 5674SOL    HW118919  11.217  12.920   6.668
 5674SOL    HW218920  11.279  12.782   6.662
 5675SOL     OW18921   4.482   8.482   0.250
 5675SOL    HW118922   4.497   8.577   0.256
 5675SOL    HW218923   4.566   8.446   0.221
 5676SOL     OW18924   2.438  12.808   1.306
 5676SOL    HW118925   2.519  12.856   1.287
 5676SOL    HW218926   2.379  12.833   1.235
 5677SOL     OW18927   0.567  13.960   1.814
 5677SOL    HW118928   0.549  13.882   1.761
 5677SOL    HW218929   0.658  13.982   1.795
 5678SOL     OW18930   7.433   2.131   6.878
 5678SOL    HW118931   7.438   2.052   6.932
 5678SOL    HW218932   7.354   2.119   6.825
 5679SOL     OW18933  14.544  13.515   6.526
 5679SOL    HW118934  14.525  13.422   6.533
 5679SOL    HW218935  14.465  13.552   6.485
 5680SOL     OW18936  11.193  12.560  11.368
 5680SOL    HW118937  11.193  12.494  11.298
 5680SOL    HW218938  11.224  12.513  11.445
 5681SOL     OW18939  12.967  11.025   3.160
 5681SOL    HW118940  12.909  11.097   3.136
 5681SOL    HW218941  13.054  11.055   3.136
 5682SOL     OW18942   3.735  12.316   7.541
 5682SOL    HW118943   3.767  12.260   7.470
 5682SOL    HW218944   3.683  12.258   7.596
 5683SOL     OW18945   2.354   9.556  13.545
 5683SOL    HW118946   2.340   9.486  13.481
 5683SOL    HW218947   2.347   9.513  13.630
 5684SOL     OW18948   0.026   9.276   0.843
 5684SOL    HW118949   0.015   9.318   0.757
 5684SOL    HW218950   0.024   9.349   0.905
 5685SOL     OW18951   4.596  14.493  11.321
 5685SOL    HW118952   4.688  14.467  11.325
 5685SOL    HW218953   4.555  14.429  11.262
 5686SOL     OW18954   8.764  10.350  14.437
 5686SOL    HW118955   8.855  10.324  14.426
 5686SOL    HW218956   8.768  10.438  14.473
 5687SOL     OW18957   4.363   6.538  10.884
 5687SOL    HW118958   4.366   6.532  10.788
 5687SOL    HW218959   4.431   6.477  10.914
 5688SOL     OW18960   5.065   6.236   9.866
 5688SOL    HW118961   5.008   6.170   9.904
 5688SOL    HW218962   5.137   6.186   9.826
 5689SOL     OW18963   5.850   6.832   7.473
 5689SOL    HW118964   5.779   6.768   7.460
 5689SOL    HW218965   5.910   6.815   7.400
 5690SOL     OW18966   5.575   3.052   9.718
 5690SOL    HW118967   5.551   3.141   9.690
 5690SOL    HW218968   5.583   3.059   9.813
 5691SOL     OW18969   6.648   8.912   5.639
 5691SOL    HW118970   6.663   9.001   5.670
 5691SOL    HW218971   6.735   8.878   5.619
 5692SOL     OW18972  14.229  10.372   8.901
 5692SOL    HW118973  14.233  10.464   8.928
 5692SOL    HW218974  14.255  10.373   8.809
 5693SOL     OW18975  14.735   1.657   7.341
 5693SOL    HW118976  14.705   1.582   7.289
 5693SOL    HW218977  14.829   1.641   7.354
 5694SOL     OW18978   5.672   6.897  10.718
 5694SOL    HW118979   5.704   6.929  10.802
 5694SOL    HW218980   5.592   6.848  10.739
 5695SOL     OW18981  13.567   9.063   0.843
 5695SOL    HW118982  13.531   9.001   0.780
 5695SOL    HW218983  13.635   9.013   0.889
 5696SOL     OW18984   3.675   5.070   0.630
 5696SOL    HW118985   3.728   5.016   0.688
 5696SOL    HW218986   3.672   5.156   0.673
 5697SOL     OW18987   2.755   3.919   5.971
 5697SOL    HW118988   2.724   3.850   5.912
 5697SOL    HW218989   2.810   3.974   5.916
 5698SOL     OW18990   3.552   5.294  11.084
 5698SOL    HW118991   3.642   5.294  11.050
 5698SOL    HW218992   3.554   5.353  11.159
 5699SOL     OW18993  11.304   2.393   2.469
 5699SOL    HW118994  11.213   2.374   2.446
 5699SOL    HW218995  11.308   2.375   2.563
 5700SOL     OW18996   5.681  11.472   1.937
 5700SOL    HW118997   5.700  11.502   1.848
 5700SOL    HW218998   5.595  11.430   1.930
 5701SOL     OW18999   9.249   8.124  11.771
 5701SOL    HW119000   9.305   8.182  11.719
 5701SOL    HW219001   9.172   8.178  11.792
 5702SOL     OW19002  12.082   4.984   5.831
 5702SOL    HW119003  12.053   5.011   5.918
 5702SOL    HW219004  12.016   5.021   5.772
 5703SOL     OW19005   0.467   1.382   5.367
 5703SOL    HW119006   0.378   1.415   5.376
 5703SOL    HW219007   0.505   1.388   5.455
 5704SOL     OW19008  10.381   2.230   3.525
 5704SOL    HW119009  10.473   2.228   3.498
 5704SOL    HW219010  10.333   2.194   3.451
 5705SOL     OW19011  13.005  13.156   3.056
 5705SOL    HW119012  13.006  13.220   2.986
 5705SOL    HW219013  13.053  13.198   3.128
 5706SOL     OW19014  12.983  11.382  10.064
 5706SOL    HW119015  13.022  11.459  10.021
 5706SOL    HW219016  12.922  11.347   9.999
 5707SOL     OW19017  10.892   7.650   3.815
 5707SOL    HW119018  10.920   7.559   3.826
 5707SOL    HW219019  10.884   7.661   3.721
 5708SOL     OW19020   8.164  13.529  13.448
 5708SOL    HW119021   8.148  13.546  13.355
 5708SOL    HW219022   8.176  13.435  13.454
 5709SOL     OW19023   8.975   3.622  10.159
 5709SOL    HW119024   8.986   3.606  10.065
 5709SOL    HW219025   9.055   3.587  10.198
 5710SOL     OW19026   2.569   0.055   9.310
 5710SOL    HW119027   2.540   0.097   9.391
 5710SOL    HW219028   2.631   0.117   9.272
 5711SOL     OW19029   3.829  13.729   5.889
 5711SOL    HW119030   3.777  13.648   5.885
 5711SOL    HW219031   3.857  13.743   5.799
 5712SOL     OW19032   6.962   2.317  10.743
 5712SOL    HW119033   7.043   2.268  10.760
 5712SOL    HW219034   6.892   2.252  10.747
 5713SOL     OW19035  14.117  10.262   6.285
 5713SOL    HW119036  14.059  10.186   6.285
 5713SOL    HW219037  14.187  10.238   6.224
 5714SOL     OW19038  12.981  10.577   9.881
 5714SOL    HW119039  13.066  10.550   9.847
 5714SOL    HW219040  12.994  10.585   9.976
 5715SOL     OW19041   8.102  12.979  14.444
 5715SOL    HW119042   8.030  12.975  14.381
 5715SOL    HW219043   8.068  12.936  14.522
 5716SOL     OW19044  14.377   5.212   8.307
 5716SOL    HW119045  14.399   5.305   8.302
 5716SOL    HW219046  14.324   5.204   8.386
 5717SOL     OW19047   6.244   4.843   7.194
 5717SOL    HW119048   6.299   4.913   7.157
 5717SOL    HW219049   6.257   4.850   7.288
 5718SOL     OW19050   0.123   9.445   4.508
 5718SOL    HW119051   0.092   9.392   4.435
 5718SOL    HW219052   0.216   9.425   4.515
 5719SOL     OW19053   7.103   8.578  13.888
 5719SOL    HW119054   7.192   8.611  13.872
 5719SOL    HW219055   7.056   8.595  13.807
 5720SOL     OW19056  12.850   7.867   2.660
 5720SOL    HW119057  12.861   7.818   2.579
 5720SOL    HW219058  12.841   7.800   2.728
 5721SOL     OW19059  14.126   7.334   9.316
 5721SOL    HW119060  14.128   7.416   9.267
 5721SOL    HW219061  14.157   7.269   9.253
 5722SOL     OW19062   0.042   7.527   7.064
 5722SOL    HW119063  14.845   7.570   7.058
 5722SOL    HW219064   0.022   7.434   7.066
 5723SOL     OW19065  10.240   0.387   6.839
 5723SOL    HW119066  10.163   0.330   6.843
 5723SOL    HW219067  10.210   0.464   6.791
 5724SOL     OW19068   5.905   6.327   3.963
 5724SOL    HW119069   5.971   6.395   3.979
 5724SOL    HW219070   5.939   6.250   4.008
 5725SOL     OW19071   2.157   9.167   4.362
 5725SOL    HW119072   2.168   9.179   4.268
 5725SOL    HW219073   2.200   9.083   4.381
 5726SOL     OW19074   8.674   3.042   3.180
 5726SOL    HW119075   8.613   3.079   3.244
 5726SOL    HW219076   8.735   3.114   3.160
 5727SOL     OW19077  13.253   5.457   2.909
 5727SOL    HW119078  13.344   5.469   2.881
 5727SOL    HW219079  13.260   5.436   3.003
 5728SOL     OW19080  13.853   6.133   4.025
 5728SOL    HW119081  13.870   6.043   4.055
 5728SOL    HW219082  13.888   6.135   3.936
 5729SOL     OW19083   0.194   9.238   3.612
 5729SOL    HW119084   0.231   9.303   3.552
 5729SOL    HW219085   0.102   9.230   3.585
 5730SOL     OW19086   8.807   4.367   1.375
 5730SOL    HW119087   8.717   4.384   1.348
 5730SOL    HW219088   8.819   4.420   1.454
 5731SOL     OW19089   4.861   6.164   1.764
 5731SOL    HW119090   4.903   6.082   1.792
 5731SOL    HW219091   4.774   6.162   1.804
 5732SOL     OW19092  14.791  10.143   6.307
 5732SOL    HW119093  14.715  10.181   6.263
 5732SOL    HW219094  14.863  10.201   6.284
 5733SOL     OW19095   8.468  14.829  13.451
 5733SOL    HW119096   8.442   0.024  13.493
 5733SOL    HW219097   8.522  14.785  13.517
 5734SOL     OW19098   5.871  11.565   3.797
 5734SOL    HW119099   5.839  11.486   3.754
 5734SOL    HW219100   5.799  11.592   3.854
 5735SOL     OW19101  11.093   1.422   2.472
 5735SOL    HW119102  11.046   1.485   2.418
 5735SOL    HW219103  11.140   1.367   2.410
 5736SOL     OW19104   3.770   4.022   2.846
 5736SOL    HW119105   3.738   3.940   2.809
 5736SOL    HW219106   3.835   3.995   2.912
 5737SOL     OW19107   5.751  11.616   7.865
 5737SOL    HW119108   5.794  11.583   7.943
 5737SOL    HW219109   5.808  11.588   7.793
 5738SOL     OW19110   9.784   3.916  13.684
 5738SOL    HW119111   9.724   3.984  13.713
 5738SOL    HW219112   9.837   3.958  13.616
 5739SOL     OW19113  14.119   1.731   1.093
 5739SOL    HW119114  14.163   1.790   1.031
 5739SOL    HW219115  14.047   1.784   1.129
 5740SOL     OW19116   8.350   6.711   9.448
 5740SOL    HW119117   8.310   6.720   9.362
 5740SOL    HW219118   8.444   6.708   9.430
 5741SOL     OW19119  10.818   1.475   3.287
 5741SOL    HW119120  10.757   1.474   3.214
 5741SOL    HW219121  10.904   1.488   3.247
 5742SOL     OW19122   0.348  13.717   5.653
 5742SOL    HW119123   0.274  13.666   5.684
 5742SOL    HW219124   0.425  13.662   5.668
 5743SOL     OW19125   1.506   8.730   1.070
 5743SOL    HW119126   1.537   8.649   1.108
 5743SOL    HW219127   1.542   8.799   1.126
 5744SOL     OW19128  10.512   7.287   1.970
 5744SOL    HW119129  10.552   7.372   1.990
 5744SOL    HW219130  10.530   7.233   2.047
 5745SOL     OW19131   6.083   7.978   8.735
 5745SOL    HW119132   6.144   7.906   8.750
 5745SOL    HW219133   6.010   7.962   8.795
 5746SOL     OW19134   0.436   5.168  11.095
 5746SOL    HW119135   0.398   5.172  11.182
 5746SOL    HW219136   0.510   5.229  11.097
 5747SOL     OW19137   2.587  11.768  14.515
 5747SOL    HW119138   2.496  11.789  14.538
 5747SOL    HW219139   2.636  11.782  14.596
 5748SOL     OW19140   7.534  10.693   6.811
 5748SOL    HW119141   7.607  10.756   6.813
 5748SOL    HW219142   7.561  10.627   6.747
 5749SOL     OW19143  11.177   7.037   6.472
 5749SOL    HW119144  11.214   6.969   6.416
 5749SOL    HW219145  11.083   7.033   6.456
 5750SOL     OW19146   9.745   7.042  13.759
 5750SOL    HW119147   9.759   7.133  13.734
 5750SOL    HW219148   9.793   7.031  13.840
 5751SOL     OW19149  12.421   2.370   0.961
 5751SOL    HW119150  12.438   2.312   0.886
 5751SOL    HW219151  12.374   2.445   0.924
 5752SOL     OW19152   7.544   4.035  10.284
 5752SOL    HW119153   7.476   4.099  10.303
 5752SOL    HW219154   7.541   4.025  10.189
 5753SOL     OW19155   1.070  13.619   0.118
 5753SOL    HW119156   1.027  13.534   0.131
 5753SOL    HW219157   0.998  13.682   0.123
 5754SOL     OW19158   6.828   9.853  13.790
 5754SOL    HW119159   6.911   9.899  13.778
 5754SOL    HW219160   6.808   9.817  13.704
 5755SOL     OW19161   9.593  10.385   0.618
 5755SOL    HW119162   9.643  10.323   0.565
 5755SOL    HW219163   9.633  10.379   0.705
 5756SOL     OW19164  14.552   9.746   3.090
 5756SOL    HW119165  14.527   9.805   3.162
 5756SOL    HW219166  14.569   9.804   3.016
 5757SOL     OW19167  12.112  12.152   9.937
 5757SOL    HW119168  12.099  12.070   9.984
 5757SOL    HW219169  12.135  12.126   9.848
 5758SOL     OW19170  13.744   7.279   9.739
 5758SOL    HW119171  13.663   7.323   9.711
 5758SOL    HW219172  13.793   7.266   9.659
 5759SOL     OW19173   0.364   4.788  11.048
 5759SOL    HW119174   0.300   4.732  11.092
 5759SOL    HW219175   0.400   4.733  10.979
 5760SOL     OW19176  10.787  10.673   0.265
 5760SOL    HW119177  10.750  10.736   0.203
 5760SOL    HW219178  10.841  10.726   0.324
 5761SOL     OW19179   9.683  12.186   8.346
 5761SOL    HW119180   9.735  12.180   8.266
 5761SOL    HW219181   9.625  12.261   8.331
 5762SOL     OW19182  11.232   5.999  10.883
 5762SOL    HW119183  11.277   5.923  10.846
 5762SOL    HW219184  11.298   6.041  10.939
 5763SOL     OW19185   0.013  11.714  11.595
 5763SOL    HW119186   0.041  11.635  11.548
 5763SOL    HW219187  14.811  11.730  11.564
 5764SOL     OW19188   4.313   3.553  14.039
 5764SOL    HW119189   4.267   3.551  14.123
 5764SOL    HW219190   4.339   3.462  14.023
 5765SOL     OW19191  10.733   3.416  12.942
 5765SOL    HW119192  10.667   3.449  12.880
 5765SOL    HW219193  10.798   3.486  12.946
 5766SOL     OW19194   8.504  14.756   4.214
 5766SOL    HW119195   8.514  14.851   4.203
 5766SOL    HW219196   8.569  14.733   4.280
 5767SOL     OW19197   6.711   4.357   8.070
 5767SOL    HW119198   6.642   4.420   8.089
 5767SOL    HW219199   6.781   4.409   8.030
 5768SOL     OW19200   3.397   8.769   9.284
 5768SOL    HW119201   3.328   8.733   9.339
 5768SOL    HW219202   3.452   8.694   9.261
 5769SOL     OW19203   4.431   5.422   9.842
 5769SOL    HW119204   4.403   5.396   9.930
 5769SOL    HW219205   4.520   5.388   9.835
 5770SOL     OW19206  13.458   9.576  12.372
 5770SOL    HW119207  13.446   9.494  12.419
 5770SOL    HW219208  13.380   9.585  12.317
 5771SOL     OW19209  14.072  14.370   3.772
 5771SOL    HW119210  14.093  14.360   3.680
 5771SOL    HW219211  14.144  14.328   3.819
 5772SOL     OW19212  10.567   7.220   8.373
 5772SOL    HW119213  10.534   7.132   8.355
 5772SOL    HW219214  10.490   7.267   8.407
 5773SOL     OW19215   7.872  11.156  13.219
 5773SOL    HW119216   7.932  11.230  13.227
 5773SOL    HW219217   7.914  11.098  13.155
 5774SOL     OW19218   5.368   2.401   8.254
 5774SOL    HW119219   5.397   2.458   8.182
 5774SOL    HW219220   5.329   2.461   8.318
 5775SOL     OW19221   8.293   0.592   2.246
 5775SOL    HW119222   8.315   0.561   2.334
 5775SOL    HW219223   8.198   0.588   2.243
 5776SOL     OW19224   4.679  14.244   8.115
 5776SOL    HW119225   4.635  14.163   8.087
 5776SOL    HW219226   4.722  14.275   8.035
 5777SOL     OW19227   4.958  10.593   0.766
 5777SOL    HW119228   4.982  10.644   0.844
 5777SOL    HW219229   5.042  10.569   0.726
 5778SOL     OW19230   8.126   1.418   3.779
 5778SOL    HW119231   8.158   1.507   3.789
 5778SOL    HW219232   8.156   1.391   3.693
 5779SOL     OW19233  11.401   9.021   9.934
 5779SOL    HW119234  11.334   9.022   9.866
 5779SOL    HW219235  11.423   9.113   9.948
 5780SOL     OW19236   8.188   1.680  12.866
 5780SOL    HW119237   8.110   1.653  12.914
 5780SOL    HW219238   8.212   1.603  12.815
 5781SOL     OW19239   4.322   1.200   0.262
 5781SOL    HW119240   4.395   1.174   0.206
 5781SOL    HW219241   4.255   1.232   0.201
 5782SOL     OW19242   2.305   8.539   9.381
 5782SOL    HW119243   2.244   8.576   9.444
 5782SOL    HW219244   2.305   8.445   9.400
 5783SOL     OW19245   6.293   0.953  11.352
 5783SOL    HW119246   6.362   0.938  11.287
 5783SOL    HW219247   6.275   0.866  11.389
 5784SOL     OW19248  12.134  10.769   1.538
 5784SOL    HW119249  12.190  10.753   1.462
 5784SOL    HW219250  12.061  10.821   1.503
 5785SOL     OW19251   4.548   4.774   1.791
 5785SOL    HW119252   4.572   4.740   1.705
 5785SOL    HW219253   4.453   4.771   1.793
 5786SOL     OW19254   6.005   8.850   6.499
 5786SOL    HW119255   6.020   8.761   6.467
 5786SOL    HW219256   6.092   8.880   6.525
 5787SOL     OW19257   3.349   5.176   6.440
 5787SOL    HW119258   3.369   5.174   6.533
 5787SOL    HW219259   3.433   5.197   6.398
 5788SOL     OW19260  14.154  12.984   6.474
 5788SOL    HW119261  14.076  12.935   6.499
 5788SOL    HW219262  14.191  13.014   6.557
 5789SOL     OW19263  11.307   2.801   2.260
 5789SOL    HW119264  11.226   2.755   2.282
 5789SOL    HW219265  11.328   2.851   2.340
 5790SOL     OW19266   4.921  10.288   8.443
 5790SOL    HW119267   4.960  10.330   8.366
 5790SOL    HW219268   4.837  10.332   8.454
 5791SOL     OW19269   2.612   0.241   3.787
 5791SOL    HW119270   2.639   0.177   3.721
 5791SOL    HW219271   2.522   0.217   3.809
 5792SOL     OW19272   2.744   7.821   0.917
 5792SOL    HW119273   2.669   7.766   0.939
 5792SOL    HW219274   2.774   7.788   0.832
 5793SOL     OW19275  14.837   3.138   7.353
 5793SOL    HW119276  14.841   3.146   7.258
 5793SOL    HW219277  14.748   3.107   7.371
 5794SOL     OW19278   7.829   5.636   7.493
 5794SOL    HW119279   7.756   5.641   7.432
 5794SOL    HW219280   7.853   5.543   7.494
 5795SOL     OW19281  12.079   0.267   8.207
 5795SOL    HW119282  12.099   0.329   8.277
 5795SOL    HW219283  12.141   0.195   8.220
 5796SOL     OW19284  11.690  10.344   9.428
 5796SOL    HW119285  11.594  10.349   9.430
 5796SOL    HW219286  11.714  10.320   9.518
 5797SOL     OW19287  13.823   9.023  11.752
 5797SOL    HW119288  13.863   8.947  11.794
 5797SOL    HW219289  13.732   9.023  11.783
 5798SOL     OW19290   8.448  14.001   0.513
 5798SOL    HW119291   8.386  13.936   0.546
 5798SOL    HW219292   8.519  14.003   0.577
 5799SOL     OW19293   1.227   2.933  14.179
 5799SOL    HW119294   1.282   3.012  14.174
 5799SOL    HW219295   1.286   2.862  14.154
 5800SOL     OW19296   9.602   5.106   1.631
 5800SOL    HW119297   9.657   5.114   1.552
 5800SOL    HW219298   9.663   5.079   1.699
 5801SOL     OW19299  13.025  11.906  13.061
 5801SOL    HW119300  13.116  11.935  13.073
 5801SOL    HW219301  13.020  11.824  13.110
 5802SOL     OW19302   5.798   0.265   4.571
 5802SOL    HW119303   5.861   0.227   4.510
 5802SOL    HW219304   5.723   0.206   4.568
 5803SOL     OW19305   2.570   5.005   0.683
 5803SOL    HW119306   2.481   5.006   0.717
 5803SOL    HW219307   2.596   5.097   0.680
 5804SOL     OW19308  11.235   5.462   6.246
 5804SOL    HW119309  11.220   5.484   6.338
 5804SOL    HW219310  11.150   5.430   6.215
 5805SOL     OW19311   8.403  14.754   2.217
 5805SOL    HW119312   8.336  14.772   2.283
 5805SOL    HW219313   8.427  14.841   2.183
 5806SOL     OW19314   1.405  13.684   2.348
 5806SOL    HW119315   1.330  13.727   2.306
 5806SOL    HW219316   1.365  13.618   2.406
 5807SOL     OW19317   9.383   5.101   9.915
 5807SOL    HW119318   9.315   5.152   9.871
 5807SOL    HW219319   9.348   5.083  10.002
 5808SOL     OW19320  11.318  13.642   6.791
 5808SOL    HW119321  11.378  13.627   6.717
 5808SOL    HW219322  11.376  13.652   6.866
 5809SOL     OW19323   3.638   9.308  13.666
 5809SOL    HW119324   3.585   9.246  13.615
 5809SOL    HW219325   3.714   9.324  13.611
 5810SOL     OW19326   8.424   4.091  11.927
 5810SOL    HW119327   8.452   4.006  11.962
 5810SOL    HW219328   8.331   4.095  11.945
 5811SOL     OW19329   2.869   6.434  13.824
 5811SOL    HW119330   2.795   6.374  13.835
 5811SOL    HW219331   2.942   6.378  13.798
 5812SOL     OW19332   3.919  11.922   2.690
 5812SOL    HW119333   3.929  11.989   2.623
 5812SOL    HW219334   3.964  11.845   2.655
 5813SOL     OW19335   3.157  10.478   1.057
 5813SOL    HW119336   3.117  10.480   1.144
 5813SOL    HW219337   3.245  10.513   1.070
 5814SOL     OW19338   9.160  14.410  14.785
 5814SOL    HW119339   9.075  14.399  14.829
 5814SOL    HW219340   9.141  14.394  14.693
 5815SOL     OW19341   9.865  12.795   7.855
 5815SOL    HW119342   9.831  12.884   7.850
 5815SOL    HW219343   9.954  12.801   7.819
 5816SOL     OW19344  10.360   5.498   0.684
 5816SOL    HW119345  10.387   5.492   0.592
 5816SOL    HW219346  10.419   5.563   0.722
 5817SOL     OW19347   0.642   6.133   1.041
 5817SOL    HW119348   0.609   6.081   0.968
 5817SOL    HW219349   0.726   6.092   1.063
 5818SOL     OW19350   8.085  12.654   8.730
 5818SOL    HW119351   8.009  12.601   8.750
 5818SOL    HW219352   8.145  12.640   8.804
 5819SOL     OW19353  12.031   7.532   7.423
 5819SOL    HW119354  11.946   7.502   7.392
 5819SOL    HW219355  12.094   7.474   7.380
 5820SOL     OW19356   3.078   5.069   1.300
 5820SOL    HW119357   3.081   5.138   1.234
 5820SOL    HW219358   3.056   4.990   1.250
 5821SOL     OW19359   2.953   7.557   1.613
 5821SOL    HW119360   2.909   7.588   1.534
 5821SOL    HW219361   2.885   7.560   1.681
 5822SOL     OW19362  13.350   6.106   3.932
 5822SOL    HW119363  13.410   6.036   3.956
 5822SOL    HW219364  13.269   6.086   3.979
 5823SOL     OW19365   4.358   2.889  13.124
 5823SOL    HW119366   4.412   2.909  13.047
 5823SOL    HW219367   4.312   2.971  13.144
 5824SOL     OW19368   9.345   3.672  14.251
 5824SOL    HW119369   9.318   3.762  14.236
 5824SOL    HW219370   9.439   3.672  14.236
 5825SOL     OW19371  11.058   3.203   6.870
 5825SOL    HW119372  11.003   3.143   6.820
 5825SOL    HW219373  11.122   3.235   6.807
 5826SOL     OW19374   9.950   6.008  10.169
 5826SOL    HW119375   9.976   6.054  10.249
 5826SOL    HW219376   9.855   6.012  10.169
 5827SOL     OW19377   9.520   8.526  11.098
 5827SOL    HW119378   9.569   8.444  11.104
 5827SOL    HW219379   9.449   8.517  11.162
 5828SOL     OW19380   0.557   3.393   8.835
 5828SOL    HW119381   0.576   3.474   8.882
 5828SOL    HW219382   0.466   3.373   8.856
 5829SOL     OW19383   2.401   1.790  13.188
 5829SOL    HW119384   2.307   1.775  13.192
 5829SOL    HW219385   2.410   1.885  13.189
 5830SOL     OW19386   2.723  11.334  14.747
 5830SOL    HW119387   2.661  11.321  14.674
 5830SOL    HW219388   2.807  11.304  14.712
 5831SOL     OW19389   0.811  12.351   2.832
 5831SOL    HW119390   0.898  12.362   2.793
 5831SOL    HW219391   0.781  12.440   2.848
 5832SOL     OW19392   1.004   5.609   7.780
 5832SOL    HW119393   1.004   5.698   7.746
 5832SOL    HW219394   0.916   5.597   7.817
 5833SOL     OW19395   2.216   7.619  13.700
 5833SOL    HW119396   2.148   7.559  13.732
 5833SOL    HW219397   2.270   7.565  13.642
 5834SOL     OW19398  11.938   6.905  11.154
 5834SOL    HW119399  11.852   6.871  11.132
 5834SOL    HW219400  12.000   6.847  11.109
 5835SOL     OW19401   1.683   1.335   3.683
 5835SOL    HW119402   1.611   1.290   3.727
 5835SOL    HW219403   1.643   1.413   3.645
 5836SOL     OW19404   4.406  11.189  12.328
 5836SOL    HW119405   4.478  11.201  12.267
 5836SOL    HW219406   4.360  11.112  12.296
 5837SOL     OW19407  10.895   3.577   5.908
 5837SOL    HW119408  10.877   3.573   6.002
 5837SOL    HW219409  10.808   3.585   5.868
 5838SOL     OW19410  14.703   5.491   1.949
 5838SOL    HW119411  14.663   5.487   2.035
 5838SOL    HW219412  14.640   5.537   1.894
 5839SOL     OW19413   3.498   3.759   8.185
 5839SOL    HW119414   3.441   3.715   8.248
 5839SOL    HW219415   3.452   3.839   8.162
 5840SOL     OW19416   6.709  13.063   4.692
 5840SOL    HW119417   6.679  12.989   4.744
 5840SOL    HW219418   6.716  13.135   4.755
 5841SOL     OW19419   0.824  10.395   3.676
 5841SOL    HW119420   0.762  10.429   3.740
 5841SOL    HW219421   0.823  10.460   3.605
 5842SOL     OW19422  14.102  11.744   7.939
 5842SOL    HW119423  14.059  11.692   8.007
 5842SOL    HW219424  14.187  11.767   7.977
 5843SOL     OW19425  14.146  14.434  11.894
 5843SOL    HW119426  14.131  14.406  11.804
 5843SOL    HW219427  14.066  14.480  11.919
 5844SOL     OW19428   5.256  13.198   9.453
 5844SOL    HW119429   5.191  13.225   9.388
 5844SOL    HW219430   5.285  13.112   9.424
 5845SOL     OW19431  13.382   4.163   6.097
 5845SOL    HW119432  13.395   4.237   6.156
 5845SOL    HW219433  13.380   4.201   6.009
 5846SOL     OW19434   5.042   6.138  12.209
 5846SOL    HW119435   5.015   6.189  12.286
 5846SOL    HW219436   4.962   6.128  12.158
 5847SOL     OW19437   6.388  14.386   2.712
 5847SOL    HW119438   6.379  14.428   2.626
 5847SOL    HW219439   6.298  14.371   2.740
 5848SOL     OW19440   5.471   3.876   9.449
 5848SOL    HW119441   5.528   3.914   9.382
 5848SOL    HW219442   5.386   3.919   9.435
 5849SOL     OW19443   2.672   4.201   0.726
 5849SOL    HW119444   2.622   4.170   0.802
 5849SOL    HW219445   2.712   4.283   0.756
 5850SOL     OW19446  13.744   0.412   4.965
 5850SOL    HW119447  13.815   0.350   4.946
 5850SOL    HW219448  13.665   0.369   4.930
 5851SOL     OW19449   3.903  12.259   7.038
 5851SOL    HW119450   3.955  12.186   7.004
 5851SOL    HW219451   3.816  12.222   7.051
 5852SOL     OW19452   3.095   3.555  12.591
 5852SOL    HW119453   3.010   3.588  12.560
 5852SOL    HW219454   3.154   3.630  12.584
 5853SOL     OW19455   2.567   0.250  10.032
 5853SOL    HW119456   2.476   0.234  10.004
 5853SOL    HW219457   2.570   0.220  10.122
 5854SOL     OW19458   3.276   0.277   8.840
 5854SOL    HW119459   3.360   0.236   8.861
 5854SOL    HW219460   3.299   0.366   8.812
 5855SOL     OW19461   5.061   6.247   4.659
 5855SOL    HW119462   5.067   6.266   4.565
 5855SOL    HW219463   5.142   6.281   4.696
 5856SOL     OW19464  14.780   1.578   3.409
 5856SOL    HW119465  14.819   1.594   3.496
 5856SOL    HW219466  14.694   1.542   3.428
 5857SOL     OW19467   4.139   7.220   6.175
 5857SOL    HW119468   4.123   7.271   6.255
 5857SOL    HW219469   4.230   7.240   6.152
 5858SOL     OW19470   2.918   8.135   8.876
 5858SOL    HW119471   2.900   8.042   8.865
 5858SOL    HW219472   3.000   8.138   8.925
 5859SOL     OW19473  10.987   8.146   2.679
 5859SOL    HW119474  11.033   8.110   2.755
 5859SOL    HW219475  11.056   8.187   2.627
 5860SOL     OW19476   8.945   4.841  12.826
 5860SOL    HW119477   9.006   4.903  12.865
 5860SOL    HW219478   8.915   4.884  12.746
 5861SOL     OW19479  11.310   1.564   4.275
 5861SOL    HW119480  11.317   1.476   4.240
 5861SOL    HW219481  11.386   1.610   4.239
 5862SOL     OW19482  13.155   7.174  14.004
 5862SOL    HW119483  13.073   7.125  14.004
 5862SOL    HW219484  13.188   7.166  14.093
 5863SOL     OW19485  13.240  13.777  12.913
 5863SOL    HW119486  13.226  13.739  12.826
 5863SOL    HW219487  13.153  13.804  12.941
 5864SOL     OW19488   1.882  12.724  13.881
 5864SOL    HW119489   1.967  12.688  13.908
 5864SOL    HW219490   1.824  12.704  13.954
 5865SOL     OW19491   2.150   2.068  11.164
 5865SOL    HW119492   2.138   2.121  11.085
 5865SOL    HW219493   2.213   2.117  11.216
 5866SOL     OW19494   5.285   2.510   3.031
 5866SOL    HW119495   5.231   2.459   2.970
 5866SOL    HW219496   5.348   2.554   2.975
 5867SOL     OW19497   0.730   4.346   1.237
 5867SOL    HW119498   0.784   4.267   1.239
 5867SOL    HW219499   0.654   4.325   1.291
 5868SOL     OW19500   3.657  13.846  14.400
 5868SOL    HW119501   3.604  13.873  14.475
 5868SOL    HW219502   3.650  13.750  14.399
 5869SOL     OW19503   2.850   3.778   2.463
 5869SOL    HW119504   2.814   3.717   2.398
 5869SOL    HW219505   2.844   3.863   2.420
 5870SOL     OW19506   9.513   7.960  11.938
 5870SOL    HW119507   9.574   8.025  11.973
 5870SOL    HW219508   9.520   7.970  11.843
 5871SOL     OW19509   6.757   4.604   8.321
 5871SOL    HW119510   6.709   4.615   8.403
 5871SOL    HW219511   6.688   4.595   8.255
 5872SOL     OW19512   6.528  11.139   2.478
 5872SOL    HW119513   6.459  11.157   2.414
 5872SOL    HW219514   6.501  11.188   2.556
 5873SOL     OW19515  14.114   0.918   0.824
 5873SOL    HW119516  14.111   0.857   0.898
 5873SOL    HW219517  14.199   0.962   0.831
 5874SOL     OW19518  14.700   7.957   3.589
 5874SOL    HW119519  14.710   7.925   3.499
 5874SOL    HW219520  14.663   8.045   3.579
 5875SOL     OW19521   1.877   1.439   6.489
 5875SOL    HW119522   1.889   1.446   6.394
 5875SOL    HW219523   1.907   1.523   6.524
 5876SOL     OW19524   7.646  12.527   7.089
 5876SOL    HW119525   7.626  12.497   7.177
 5876SOL    HW219526   7.586  12.478   7.033
 5877SOL     OW19527   1.084   2.461   1.807
 5877SOL    HW119528   1.009   2.517   1.787
 5877SOL    HW219529   1.088   2.459   1.902
 5878SOL     OW19530   6.372  13.673   7.000
 5878SOL    HW119531   6.460  13.711   6.990
 5878SOL    HW219532   6.328  13.732   7.061
 5879SOL     OW19533   5.533   2.994   6.104
 5879SOL    HW119534   5.518   3.088   6.093
 5879SOL    HW219535   5.599   2.989   6.174
 5880SOL     OW19536   2.520   5.715   0.371
 5880SOL    HW119537   2.492   5.797   0.412
 5880SOL    HW219538   2.599   5.739   0.322
 5881SOL     OW19539   8.473   4.805   4.912
 5881SOL    HW119540   8.472   4.720   4.868
 5881SOL    HW219541   8.393   4.807   4.965
 5882SOL     OW19542   3.844   4.575   9.677
 5882SOL    HW119543   3.917   4.623   9.639
 5882SOL    HW219544   3.827   4.505   9.614
 5883SOL     OW19545   1.553   9.359   7.918
 5883SOL    HW119546   1.491   9.330   7.985
 5883SOL    HW219547   1.499   9.372   7.840
 5884SOL     OW19548   2.507   2.198   2.713
 5884SOL    HW119549   2.579   2.209   2.774
 5884SOL    HW219550   2.429   2.188   2.768
 5885SOL     OW19551  14.749   3.808   4.052
 5885SOL    HW119552  14.810   3.857   3.997
 5885SOL    HW219553  14.740   3.724   4.008
 5886SOL     OW19554  11.421   8.353   0.476
 5886SOL    HW119555  11.347   8.327   0.531
 5886SOL    HW219556  11.498   8.325   0.526
 5887SOL     OW19557   7.877  13.839  10.093
 5887SOL    HW119558   7.784  13.815  10.085
 5887SOL    HW219559   7.924  13.758  10.076
 5888SOL     OW19560  14.173   9.167  13.367
 5888SOL    HW119561  14.256   9.212  13.359
 5888SOL    HW219562  14.109   9.237  13.379
 5889SOL     OW19563   8.207   3.502   0.537
 5889SOL    HW119564   8.288   3.492   0.589
 5889SOL    HW219565   8.237   3.503   0.446
 5890SOL     OW19566   6.374  10.093   5.799
 5890SOL    HW119567   6.413  10.111   5.884
 5890SOL    HW219568   6.378   9.998   5.790
 5891SOL     OW19569   3.679   2.539  14.200
 5891SOL    HW119570   3.741   2.499  14.139
 5891SOL    HW219571   3.668   2.474  14.269
 5892SOL     OW19572  10.576   2.840   9.565
 5892SOL    HW119573  10.589   2.782   9.489
 5892SOL    HW219574  10.535   2.918   9.529
 5893SOL     OW19575  14.806   8.381  14.766
 5893SOL    HW119576  14.789   8.289  14.745
 5893SOL    HW219577  14.823   8.422  14.681
 5894SOL     OW19578  10.901   6.107  14.689
 5894SOL    HW119579  10.807   6.097  14.708
 5894SOL    HW219580  10.923   6.031  14.635
 5895SOL     OW19581   3.865  13.188   7.086
 5895SOL    HW119582   3.815  13.233   7.155
 5895SOL    HW219583   3.957  13.202   7.111
 5896SOL     OW19584   0.491   2.236   1.278
 5896SOL    HW119585   0.498   2.331   1.290
 5896SOL    HW219586   0.404   2.223   1.241
 5897SOL     OW19587  14.474  10.484   1.795
 5897SOL    HW119588  14.415  10.415   1.766
 5897SOL    HW219589  14.443  10.563   1.752
 5898SOL     OW19590   2.501  14.854  14.437
 5898SOL    HW119591   2.488  14.781  14.498
 5898SOL    HW219592   2.544   0.034  14.490
 5899SOL     OW19593  14.363   9.566  12.486
 5899SOL    HW119594  14.383   9.534  12.398
 5899SOL    HW219595  14.285   9.517  12.512
 5900SOL     OW19596   9.567  14.458   9.678
 5900SOL    HW119597   9.569  14.539   9.729
 5900SOL    HW219598   9.474  14.439   9.667
 5901SOL     OW19599   9.188   1.208   7.372
 5901SOL    HW119600   9.228   1.231   7.288
 5901SOL    HW219601   9.130   1.281   7.392
 5902SOL     OW19602  10.430   9.391   6.198
 5902SOL    HW119603  10.454   9.425   6.284
 5902SOL    HW219604  10.355   9.334   6.214
 5903SOL     OW19605   1.665   4.814   5.475
 5903SOL    HW119606   1.702   4.891   5.517
 5903SOL    HW219607   1.606   4.777   5.540
 5904SOL     OW19608  14.741  14.237   5.137
 5904SOL    HW119609  14.651  14.271   5.133
 5904SOL    HW219610  14.773  14.264   5.222
 5905SOL     OW19611   0.917   8.997   5.499
 5905SOL    HW119612   0.933   8.988   5.593
 5905SOL    HW219613   0.980   9.063   5.471
 5906SOL     OW19614  10.634  12.929   9.036
 5906SOL    HW119615  10.680  12.889   8.963
 5906SOL    HW219616  10.559  12.872   9.051
 5907SOL     OW19617   2.716   0.127   6.189
 5907SOL    HW119618   2.681   0.170   6.268
 5907SOL    HW219619   2.745   0.199   6.133
 5908SOL     OW19620   7.698   5.606   3.087
 5908SOL    HW119621   7.710   5.547   3.013
 5908SOL    HW219622   7.613   5.648   3.071
 5909SOL     OW19623   8.749  13.037  10.487
 5909SOL    HW119624   8.799  13.085  10.421
 5909SOL    HW219625   8.661  13.073  10.483
 5910SOL     OW19626   0.675  12.096   2.737
 5910SOL    HW119627   0.740  12.165   2.725
 5910SOL    HW219628   0.696  12.030   2.671
 5911SOL     OW19629  12.555   6.972   5.735
 5911SOL    HW119630  12.636   6.944   5.692
 5911SOL    HW219631  12.540   6.905   5.802
 5912SOL     OW19632   0.143  13.925   3.632
 5912SOL    HW119633   0.084  13.859   3.667
 5912SOL    HW219634   0.135  13.917   3.537
 5913SOL     OW19635   4.530   6.795  14.283
 5913SOL    HW119636   4.615   6.753  14.287
 5913SOL    HW219637   4.470   6.733  14.323
 5914SOL     OW19638   9.408   5.634  12.633
 5914SOL    HW119639   9.363   5.579  12.698
 5914SOL    HW219640   9.338   5.659  12.572
 5915SOL     OW19641  11.524   8.186   1.313
 5915SOL    HW119642  11.438   8.219   1.286
 5915SOL    HW219643  11.527   8.097   1.278
 5916SOL     OW19644  11.961   6.089   6.707
 5916SOL    HW119645  12.029   6.132   6.759
 5916SOL    HW219646  11.989   5.997   6.704
 5917SOL     OW19647  10.034  10.605  10.308
 5917SOL    HW119648  10.042  10.510  10.296
 5917SOL    HW219649   9.994  10.615  10.394
 5918SOL     OW19650   4.855   1.630   4.217
 5918SOL    HW119651   4.908   1.669   4.286
 5918SOL    HW219652   4.812   1.705   4.175
 5919SOL     OW19653   0.459   0.754   7.080
 5919SOL    HW119654   0.528   0.785   7.021
 5919SOL    HW219655   0.489   0.668   7.109
 5920SOL     OW19656   6.010   8.733   6.147
 5920SOL    HW119657   5.956   8.812   6.142
 5920SOL    HW219658   6.087   8.759   6.197
 5921SOL     OW19659   4.011  14.268   9.993
 5921SOL    HW119660   3.998  14.176  10.012
 5921SOL    HW219661   3.974  14.314  10.068
 5922SOL     OW19662   6.759   5.106   5.651
 5922SOL    HW119663   6.738   5.024   5.697
 5922SOL    HW219664   6.683   5.122   5.596
 5923SOL     OW19665   0.925  14.148   4.173
 5923SOL    HW119666   0.887  14.060   4.166
 5923SOL    HW219667   0.868  14.194   4.235
 5924SOL     OW19668   2.892  11.795   1.807
 5924SOL    HW119669   2.938  11.739   1.870
 5924SOL    HW219670   2.961  11.850   1.769
 5925SOL     OW19671   4.378   1.969   3.075
 5925SOL    HW119672   4.423   2.042   3.118
 5925SOL    HW219673   4.448   1.909   3.050
 5926SOL     OW19674   2.650  11.781   4.295
 5926SOL    HW119675   2.576  11.784   4.355
 5926SOL    HW219676   2.676  11.873   4.284
 5927SOL     OW19677   1.974   2.917   6.606
 5927SOL    HW119678   1.898   2.946   6.555
 5927SOL    HW219679   1.941   2.845   6.659
 5928SOL     OW19680   9.308  11.112   4.503
 5928SOL    HW119681   9.230  11.111   4.448
 5928SOL    HW219682   9.275  11.130   4.591
 5929SOL     OW19683  10.963   7.092  12.979
 5929SOL    HW119684  10.874   7.101  13.012
 5929SOL    HW219685  10.979   7.173  12.930
 5930SOL     OW19686   2.503   2.104   7.687
 5930SOL    HW119687   2.490   2.148   7.603
 5930SOL    HW219688   2.473   2.168   7.752
 5931SOL     OW19689   0.296   4.401   1.712
 5931SOL    HW119690   0.377   4.369   1.672
 5931SOL    HW219691   0.238   4.416   1.638
 5932SOL     OW19692   6.022  12.231   2.974
 5932SOL    HW119693   5.953  12.295   2.993
 5932SOL    HW219694   6.102  12.272   3.008
 5933SOL     OW19695   8.899   6.109   4.107
 5933SOL    HW119696   8.890   6.074   4.018
 5933SOL    HW219697   8.878   6.035   4.164
 5934SOL     OW19698   9.688   7.830   5.756
 5934SOL    HW119699   9.624   7.901   5.769
 5934SOL    HW219700   9.739   7.859   5.680
 5935SOL     OW19701   8.647   0.771  12.887
 5935SOL    HW119702   8.664   0.861  12.912
 5935SOL    HW219703   8.578   0.777  12.821
 5936SOL     OW19704  10.228   8.998   2.883
 5936SOL    HW119705  10.305   9.052   2.867
 5936SOL    HW219706  10.154   9.056   2.865
 5937SOL     OW19707   3.691   0.469  12.416
 5937SOL    HW119708   3.722   0.539  12.473
 5937SOL    HW219709   3.756   0.399  12.426
 5938SOL     OW19710  11.823   4.542  10.205
 5938SOL    HW119711  11.865   4.555  10.290
 5938SOL    HW219712  11.771   4.463  10.215
 5939SOL     OW19713   4.264   5.398   6.490
 5939SOL    HW119714   4.307   5.402   6.405
 5939SOL    HW219715   4.184   5.349   6.473
 5940SOL     OW19716   7.400   6.689   5.173
 5940SOL    HW119717   7.383   6.731   5.258
 5940SOL    HW219718   7.403   6.762   5.111
 5941SOL     OW19719  10.498   3.321   1.053
 5941SOL    HW119720  10.432   3.337   1.121
 5941SOL    HW219721  10.468   3.241   1.009
 5942SOL     OW19722   6.149   5.630  11.490
 5942SOL    HW119723   6.071   5.686  11.486
 5942SOL    HW219724   6.167   5.622  11.584
 5943SOL     OW19725  11.437   5.692  12.057
 5943SOL    HW119726  11.353   5.646  12.064
 5943SOL    HW219727  11.490   5.637  11.999
 5944SOL     OW19728  13.235  12.217   8.446
 5944SOL    HW119729  13.251  12.299   8.399
 5944SOL    HW219730  13.248  12.240   8.538
 5945SOL     OW19731  12.742  10.168   2.397
 5945SOL    HW119732  12.678  10.220   2.348
 5945SOL    HW219733  12.694  10.089   2.422
 5946SOL     OW19734  14.698   5.323   6.913
 5946SOL    HW119735  14.618   5.373   6.897
 5946SOL    HW219736  14.724   5.348   7.001
 5947SOL     OW19737   2.370   5.322   4.768
 5947SOL    HW119738   2.411   5.380   4.832
 5947SOL    HW219739   2.300   5.279   4.817
 5948SOL     OW19740   5.919  13.369   3.501
 5948SOL    HW119741   5.880  13.339   3.583
 5948SOL    HW219742   6.011  13.344   3.507
 5949SOL     OW19743   2.970  12.454  11.609
 5949SOL    HW119744   3.010  12.387  11.664
 5949SOL    HW219745   2.905  12.496  11.666
 5950SOL     OW19746  13.108   2.718   8.604
 5950SOL    HW119747  13.099   2.731   8.698
 5950SOL    HW219748  13.202   2.713   8.589
 5951SOL     OW19749   2.589  12.476   8.640
 5951SOL    HW119750   2.650  12.498   8.710
 5951SOL    HW219751   2.508  12.521   8.663
 5952SOL     OW19752   7.133   2.108   3.185
 5952SOL    HW119753   7.089   2.045   3.128
 5952SOL    HW219754   7.088   2.100   3.269
 5953SOL     OW19755   0.284   2.226   5.049
 5953SOL    HW119756   0.282   2.190   4.961
 5953SOL    HW219757   0.211   2.185   5.094
 5954SOL     OW19758   5.489   7.888   8.399
 5954SOL    HW119759   5.523   7.950   8.464
 5954SOL    HW219760   5.475   7.941   8.320
 5955SOL     OW19761   7.254  11.509   7.889
 5955SOL    HW119762   7.323  11.452   7.855
 5955SOL    HW219763   7.206  11.538   7.811
 5956SOL     OW19764  12.273   3.759   9.444
 5956SOL    HW119765  12.281   3.666   9.466
 5956SOL    HW219766  12.204   3.761   9.377
 5957SOL     OW19767   3.713  10.840  11.841
 5957SOL    HW119768   3.676  10.927  11.855
 5957SOL    HW219769   3.653  10.781  11.886
 5958SOL     OW19770   5.035  11.500   4.437
 5958SOL    HW119771   5.012  11.410   4.461
 5958SOL    HW219772   5.069  11.538   4.518
 5959SOL     OW19773   7.663  10.699  11.353
 5959SOL    HW119774   7.628  10.788  11.359
 5959SOL    HW219775   7.691  10.690  11.262
 5960SOL     OW19776   5.783  11.785  12.822
 5960SOL    HW119777   5.870  11.745  12.830
 5960SOL    HW219778   5.754  11.797  12.912
 5961SOL     OW19779   3.941  10.918   0.209
 5961SOL    HW119780   3.855  10.915   0.252
 5961SOL    HW219781   3.947  11.006   0.173
 5962SOL     OW19782   8.058   1.373   2.493
 5962SOL    HW119783   7.965   1.395   2.497
 5962SOL    HW219784   8.088   1.410   2.410
 5963SOL     OW19785  10.210  12.532   0.164
 5963SOL    HW119786  10.260  12.608   0.193
 5963SOL    HW219787  10.247  12.509   0.079
 5964SOL     OW19788  12.197   2.008   7.486
 5964SOL    HW119789  12.112   1.999   7.443
 5964SOL    HW219790  12.188   2.085   7.543
 5965SOL     OW19791   7.223   1.489   4.684
 5965SOL    HW119792   7.271   1.564   4.720
 5965SOL    HW219793   7.232   1.421   4.750
 5966SOL     OW19794   6.127   5.242   6.661
 5966SOL    HW119795   6.194   5.271   6.723
 5966SOL    HW219796   6.132   5.147   6.662
 5967SOL     OW19797  13.430  10.087  13.291
 5967SOL    HW119798  13.494  10.038  13.343
 5967SOL    HW219799  13.435  10.049  13.204
 5968SOL     OW19800  11.381   1.338   6.582
 5968SOL    HW119801  11.414   1.327   6.493
 5968SOL    HW219802  11.316   1.408   6.575
 5969SOL     OW19803   7.426  12.727   9.832
 5969SOL    HW119804   7.451  12.773   9.752
 5969SOL    HW219805   7.441  12.635   9.812
 5970SOL     OW19806  12.841  14.490   4.408
 5970SOL    HW119807  12.773  14.494   4.475
 5970SOL    HW219808  12.824  14.408   4.361
 5971SOL     OW19809   5.722  12.819   2.011
 5971SOL    HW119810   5.676  12.880   1.954
 5971SOL    HW219811   5.671  12.738   2.005
 5972SOL     OW19812   7.792   0.968   9.655
 5972SOL    HW119813   7.819   0.877   9.661
 5972SOL    HW219814   7.854   1.016   9.710
 5973SOL     OW19815   4.091   7.872   1.917
 5973SOL    HW119816   4.051   7.908   1.996
 5973SOL    HW219817   4.076   7.777   1.924
 5974SOL     OW19818   3.115   0.439  10.378
 5974SOL    HW119819   3.021   0.438  10.361
 5974SOL    HW219820   3.155   0.469  10.297
 5975SOL     OW19821   8.188   1.686  13.455
 5975SOL    HW119822   8.256   1.624  13.429
 5975SOL    HW219823   8.130   1.691  13.379
 5976SOL     OW19824   6.900   1.385   0.042
 5976SOL    HW119825   6.827   1.347  14.882
 5976SOL    HW219826   6.890   1.354   0.132
 5977SOL     OW19827  11.584   8.958   6.610
 5977SOL    HW119828  11.616   8.978   6.522
 5977SOL    HW219829  11.628   8.876   6.633
 5978SOL     OW19830  12.125   8.861   8.988
 5978SOL    HW119831  12.215   8.883   8.964
 5978SOL    HW219832  12.122   8.765   8.984
 5979SOL     OW19833  13.628   3.124   1.388
 5979SOL    HW119834  13.694   3.149   1.453
 5979SOL    HW219835  13.640   3.029   1.379
 5980SOL     OW19836  12.352  12.316   9.911
 5980SOL    HW119837  12.410  12.248   9.878
 5980SOL    HW219838  12.288  12.268   9.965
 5981SOL     OW19839   6.870  12.738  11.990
 5981SOL    HW119840   6.956  12.780  11.983
 5981SOL    HW219841   6.827  12.758  11.907
 5982SOL     OW19842   9.552  10.485  10.005
 5982SOL    HW119843   9.590  10.569   9.980
 5982SOL    HW219844   9.495  10.462   9.932
 5983SOL     OW19845  11.664  14.413   5.911
 5983SOL    HW119846  11.644  14.504   5.934
 5983SOL    HW219847  11.618  14.361   5.976
 5984SOL     OW19848   0.050   8.081   4.709
 5984SOL    HW119849   0.085   8.143   4.644
 5984SOL    HW219850   0.063   8.125   4.793
 5985SOL     OW19851   9.647   1.722  14.555
 5985SOL    HW119852   9.710   1.716  14.483
 5985SOL    HW219853   9.701   1.732  14.633
 5986SOL     OW19854  11.283   0.229   2.963
 5986SOL    HW119855  11.265   0.302   3.022
 5986SOL    HW219856  11.346   0.264   2.900
 5987SOL     OW19857   4.667  10.577   8.784
 5987SOL    HW119858   4.644  10.495   8.741
 5987SOL    HW219859   4.588  10.630   8.778
 5988SOL     OW19860   0.653   1.085  12.035
 5988SOL    HW119861   0.676   0.994  12.014
 5988SOL    HW219862   0.682   1.096  12.125
 5989SOL     OW19863  12.189   2.549   1.983
 5989SOL    HW119864  12.106   2.511   2.013
 5989SOL    HW219865  12.254   2.517   2.045
 5990SOL     OW19866   4.752  12.333  10.537
 5990SOL    HW119867   4.688  12.359  10.604
 5990SOL    HW219868   4.790  12.252  10.570
 5991SOL     OW19869  10.972   3.804   1.065
 5991SOL    HW119870  11.042   3.775   1.123
 5991SOL    HW219871  10.908   3.845   1.124
 5992SOL     OW19872   1.430   1.978   5.246
 5992SOL    HW119873   1.490   2.052   5.256
 5992SOL    HW219874   1.343   2.017   5.260
 5993SOL     OW19875   4.310   9.412   7.885
 5993SOL    HW119876   4.315   9.316   7.887
 5993SOL    HW219877   4.280   9.433   7.797
 5994SOL     OW19878   8.969   5.539   9.946
 5994SOL    HW119879   8.890   5.512   9.898
 5994SOL    HW219880   8.960   5.499  10.032
 5995SOL     OW19881   2.168   4.404   4.570
 5995SOL    HW119882   2.223   4.418   4.647
 5995SOL    HW219883   2.225   4.357   4.509
 5996SOL     OW19884   4.016   3.624   5.402
 5996SOL    HW119885   4.019   3.620   5.498
 5996SOL    HW219886   4.034   3.716   5.382
 5997SOL     OW19887   2.216   9.487  10.685
 5997SOL    HW119888   2.257   9.550  10.625
 5997SOL    HW219889   2.133   9.464  10.643
 5998SOL     OW19890  11.606   2.786   1.854
 5998SOL    HW119891  11.559   2.837   1.921
 5998SOL    HW219892  11.668   2.848   1.817
 5999SOL     OW19893  10.982   7.320   8.225
 5999SOL    HW119894  11.006   7.332   8.133
 5999SOL    HW219895  10.896   7.362   8.233
 6000SOL     OW19896   2.375  14.287  12.847
 6000SOL    HW119897   2.400  14.379  12.836
 6000SOL    HW219898   2.282  14.285  12.825
 6001SOL     OW19899   3.407   1.222  14.210
 6001SOL    HW119900   3.400   1.303  14.259
 6001SOL    HW219901   3.495   1.225  14.171
 6002SOL     OW19902  11.905   2.541   8.804
 6002SOL    HW119903  11.869   2.613   8.752
 6002SOL    HW219904  11.848   2.467   8.785
 6003SOL     OW19905  11.367   5.487   1.072
 6003SOL    HW119906  11.310   5.523   1.004
 6003SOL    HW219907  11.433   5.437   1.024
 6004SOL     OW19908   4.322   2.457  10.377
 6004SOL    HW119909   4.349   2.531  10.431
 6004SOL    HW219910   4.378   2.463  10.299
 6005SOL     OW19911  13.819   3.138  13.711
 6005SOL    HW119912  13.772   3.080  13.651
 6005SOL    HW219913  13.809   3.098  13.797
 6006SOL     OW19914   9.690  11.710   4.591
 6006SOL    HW119915   9.785  11.726   4.592
 6006SOL    HW219916   9.679  11.632   4.537
 6007SOL     OW19917   3.598   0.682   9.186
 6007SOL    HW119918   3.602   0.726   9.101
 6007SOL    HW219919   3.648   0.602   9.174
 6008SOL     OW19920   0.200  12.817  14.010
 6008SOL    HW119921   0.257  12.784  13.940
 6008SOL    HW219922   0.116  12.774  13.995
 6009SOL     OW19923   8.509   2.590  14.773
 6009SOL    HW119924   8.576   2.549  14.719
 6009SOL    HW219925   8.548   2.593  14.861
 6010SOL     OW19926  11.941   2.217  10.048
 6010SOL    HW119927  11.912   2.307  10.060
 6010SOL    HW219928  11.864   2.164  10.069
 6011SOL     OW19929   0.824   6.977   4.081
 6011SOL    HW119930   0.776   6.912   4.028
 6011SOL    HW219931   0.913   6.974   4.047
 6012SOL     OW19932   2.446  10.242   4.719
 6012SOL    HW119933   2.378  10.175   4.725
 6012SOL    HW219934   2.419  10.298   4.646
 6013SOL     OW19935   3.962   3.897   2.441
 6013SOL    HW119936   4.054   3.897   2.468
 6013SOL    HW219937   3.966   3.905   2.346
 6014SOL     OW19938  12.911   2.835  13.934
 6014SOL    HW119939  12.830   2.876  13.904
 6014SOL    HW219940  12.981   2.886  13.893
 6015SOL     OW19941   0.732   7.782  11.204
 6015SOL    HW119942   0.740   7.877  11.215
 6015SOL    HW219943   0.822   7.751  11.202
 6016SOL     OW19944   4.540   6.606   3.047
 6016SOL    HW119945   4.510   6.692   3.077
 6016SOL    HW219946   4.620   6.624   2.998
 6017SOL     OW19947   9.109   6.731   6.398
 6017SOL    HW119948   9.184   6.747   6.340
 6017SOL    HW219949   9.034   6.725   6.340
 6018SOL     OW19950  11.426   5.085   4.344
 6018SOL    HW119951  11.386   5.171   4.349
 6018SOL    HW219952  11.462   5.070   4.431
 6019SOL     OW19953   6.856  12.511   2.632
 6019SOL    HW119954   6.914  12.522   2.557
 6019SOL    HW219955   6.915  12.496   2.706
 6020SOL     OW19956   2.038   8.290   3.319
 6020SOL    HW119957   2.050   8.280   3.225
 6020SOL    HW219958   1.985   8.215   3.345
 6021SOL     OW19959  14.639   2.231   0.378
 6021SOL    HW119960  14.676   2.159   0.327
 6021SOL    HW219961  14.715   2.279   0.412
 6022SOL     OW19962  12.147   5.074  11.960
 6022SOL    HW119963  12.215   5.107  12.019
 6022SOL    HW219964  12.168   5.114  11.875
 6023SOL     OW19965  12.967  10.322  10.965
 6023SOL    HW119966  12.997  10.412  10.952
 6023SOL    HW219967  12.886  10.331  11.016
 6024SOL     OW19968  12.479   2.176   7.342
 6024SOL    HW119969  12.574   2.169   7.331
 6024SOL    HW219970  12.459   2.121   7.417
 6025SOL     OW19971  12.046  10.943   7.553
 6025SOL    HW119972  12.016  10.970   7.640
 6025SOL    HW219973  12.014  11.012   7.495
 6026SOL     OW19974   9.976   3.216  12.565
 6026SOL    HW119975   9.930   3.298  12.549
 6026SOL    HW219976  10.035   3.234  12.638
 6027SOL     OW19977   6.692   9.460   5.067
 6027SOL    HW119978   6.754   9.497   5.130
 6027SOL    HW219979   6.746   9.413   5.004
 6028SOL     OW19980   4.165   3.422  11.046
 6028SOL    HW119981   4.081   3.412  11.091
 6028SOL    HW219982   4.145   3.407  10.954
 6029SOL     OW19983   5.667   8.010   8.715
 6029SOL    HW119984   5.611   8.068   8.664
 6029SOL    HW219985   5.630   8.013   8.803
 6030SOL     OW19986   1.890   5.244  12.750
 6030SOL    HW119987   1.882   5.155  12.785
 6030SOL    HW219988   1.800   5.268  12.726
 6031SOL     OW19989  10.990   1.830   7.540
 6031SOL    HW119990  11.072   1.790   7.571
 6031SOL    HW219991  10.926   1.806   7.606
 6032SOL     OW19992   5.648  11.158  10.063
 6032SOL    HW119993   5.727  11.125  10.105
 6032SOL    HW219994   5.594  11.079  10.050
 6033SOL     OW19995  13.583  13.946   8.154
 6033SOL    HW119996  13.633  13.900   8.222
 6033SOL    HW219997  13.594  13.891   8.076
 6034SOL     OW19998  10.206   7.192   8.683
 6034SOL    HW119999  10.163   7.135   8.747
 6034SOL    HW220000  10.234   7.132   8.614
 6035SOL     OW20001   9.385  14.402   8.180
 6035SOL    HW120002   9.343  14.319   8.202
 6035SOL    HW220003   9.454  14.411   8.246
 6036SOL     OW20004   7.288  10.288   7.650
 6036SOL    HW120005   7.351  10.245   7.708
 6036SOL    HW220006   7.333  10.366   7.619
 6037SOL     OW20007  13.003   4.510  11.862
 6037SOL    HW120008  13.009   4.533  11.769
 6037SOL    HW220009  13.089   4.531  11.897
 6038SOL     OW20010   6.590  11.820   1.771
 6038SOL    HW120011   6.650  11.762   1.725
 6038SOL    HW220012   6.637  11.847   1.850
 6039SOL     OW20013   9.889  11.126  13.958
 6039SOL    HW120014   9.934  11.125  14.043
 6039SOL    HW220015   9.803  11.087  13.976
 6040SOL     OW20016   6.103   9.418   3.805
 6040SOL    HW120017   6.014   9.435   3.775
 6040SOL    HW220018   6.156   9.482   3.757
 6041SOL     OW20019   8.808   6.167   9.283
 6041SOL    HW120020   8.851   6.083   9.267
 6041SOL    HW220021   8.803   6.207   9.196
 6042SOL     OW20022   0.630   9.367   2.264
 6042SOL    HW120023   0.636   9.432   2.194
 6042SOL    HW220024   0.718   9.364   2.301
 6043SOL     OW20025   5.659   2.630  11.814
 6043SOL    HW120026   5.631   2.613  11.905
 6043SOL    HW220027   5.736   2.685  11.822
 6044SOL     OW20028  13.256  11.701  10.584
 6044SOL    HW120029  13.275  11.713  10.677
 6044SOL    HW220030  13.273  11.787  10.545
 6045SOL     OW20031  11.210   5.665  10.087
 6045SOL    HW120032  11.269   5.606  10.042
 6045SOL    HW220033  11.221   5.643  10.180
 6046SOL     OW20034   3.704   3.705   5.924
 6046SOL    HW120035   3.712   3.617   5.962
 6046SOL    HW220036   3.629   3.699   5.865
 6047SOL     OW20037   5.637  11.888   7.101
 6047SOL    HW120038   5.608  11.845   7.020
 6047SOL    HW220039   5.706  11.830   7.135
 6048SOL     OW20040  12.503  12.390  10.192
 6048SOL    HW120041  12.408  12.398  10.197
 6048SOL    HW220042  12.518  12.312  10.138
 6049SOL     OW20043  12.772   6.422   9.833
 6049SOL    HW120044  12.802   6.443   9.745
 6049SOL    HW220045  12.677   6.439   9.831
 6050SOL     OW20046   9.615   3.376   6.588
 6050SOL    HW120047   9.573   3.419   6.663
 6050SOL    HW220048   9.697   3.423   6.576
 6051SOL     OW20049   9.459  14.329  12.338
 6051SOL    HW120050   9.469  14.284  12.422
 6051SOL    HW220051   9.366  14.325  12.319
 6052SOL     OW20052  12.673  13.282   5.510
 6052SOL    HW120053  12.709  13.359   5.553
 6052SOL    HW220054  12.744  13.218   5.512
 6053SOL     OW20055   6.898   9.297   6.620
 6053SOL    HW120056   6.848   9.216   6.616
 6053SOL    HW220057   6.832   9.366   6.625
 6054SOL     OW20058  12.351   3.916  12.897
 6054SOL    HW120059  12.302   3.887  12.820
 6054SOL    HW220060  12.283   3.945  12.959
 6055SOL     OW20061   4.786   7.408  13.529
 6055SOL    HW120062   4.819   7.328  13.570
 6055SOL    HW220063   4.855   7.433  13.467
 6056SOL     OW20064  13.539  12.391   6.416
 6056SOL    HW120065  13.490  12.441   6.351
 6056SOL    HW220066  13.519  12.299   6.396
 6057SOL     OW20067   5.278  12.980   2.096
 6057SOL    HW120068   5.298  13.059   2.046
 6057SOL    HW220069   5.243  13.012   2.179
 6058SOL     OW20070   5.199   6.116   5.751
 6058SOL    HW120071   5.210   6.024   5.727
 6058SOL    HW220072   5.106   6.125   5.769
 6059SOL     OW20073  11.492   8.149  11.283
 6059SOL    HW120074  11.447   8.206  11.220
 6059SOL    HW220075  11.438   8.154  11.362
 6060SOL     OW20076   0.161  14.173  13.044
 6060SOL    HW120077   0.081  14.208  13.082
 6060SOL    HW220078   0.157  14.078  13.060
 6061SOL     OW20079   5.558   8.181  10.640
 6061SOL    HW120080   5.524   8.111  10.696
 6061SOL    HW220081   5.623   8.137  10.585
 6062SOL     OW20082   3.668   6.319  11.547
 6062SOL    HW120083   3.601   6.360  11.491
 6062SOL    HW220084   3.716   6.392  11.585
 6063SOL     OW20085   3.647   2.646   9.348
 6063SOL    HW120086   3.590   2.571   9.364
 6063SOL    HW220087   3.648   2.656   9.253
 6064SOL     OW20088  13.480   4.136   7.528
 6064SOL    HW120089  13.401   4.120   7.477
 6064SOL    HW220090  13.495   4.230   7.521
 6065SOL     OW20091   0.730   6.040   2.454
 6065SOL    HW120092   0.739   6.088   2.371
 6065SOL    HW220093   0.721   5.949   2.428
 6066SOL     OW20094   2.495   7.204  12.356
 6066SOL    HW120095   2.555   7.276  12.335
 6066SOL    HW220096   2.533   7.128  12.311
 6067SOL     OW20097  10.884   9.369  12.775
 6067SOL    HW120098  10.855   9.396  12.862
 6067SOL    HW220099  10.858   9.440  12.717
 6068SOL     OW20100  10.030  11.887  12.156
 6068SOL    HW120101   9.957  11.930  12.199
 6068SOL    HW220102   9.998  11.799  12.135
 6069SOL     OW20103   8.569  12.241   6.368
 6069SOL    HW120104   8.531  12.233   6.280
 6069SOL    HW220105   8.602  12.153   6.388
 6070SOL     OW20106   0.749   7.414   4.635
 6070SOL    HW120107   0.741   7.404   4.730
 6070SOL    HW220108   0.843   7.426   4.621
 6071SOL     OW20109   6.473  10.243  14.394
 6071SOL    HW120110   6.545  10.183  14.372
 6071SOL    HW220111   6.499  10.281  14.478
 6072SOL     OW20112   9.007   3.060   6.756
 6072SOL    HW120113   9.026   3.118   6.831
 6072SOL    HW220114   8.926   3.096   6.718
 6073SOL     OW20115   1.566   9.725   7.653
 6073SOL    HW120116   1.540   9.664   7.584
 6073SOL    HW220117   1.592   9.670   7.726
 6074SOL     OW20118   5.410   0.034   1.503
 6074SOL    HW120119   5.414   0.074   1.416
 6074SOL    HW220120   5.455   0.097   1.560
 6075SOL     OW20121  14.675   6.824  12.360
 6075SOL    HW120122  14.750   6.870  12.398
 6075SOL    HW220123  14.647   6.764  12.428
 6076SOL     OW20124   2.546   2.396  14.709
 6076SOL    HW120125   2.587   2.368  14.627
 6076SOL    HW220126   2.507   2.481  14.688
 6077SOL     OW20127   7.704   6.886   0.700
 6077SOL    HW120128   7.794   6.919   0.699
 6077SOL    HW220129   7.709   6.803   0.748
 6078SOL     OW20130   9.663   7.708   9.473
 6078SOL    HW120131   9.686   7.659   9.394
 6078SOL    HW220132   9.746   7.741   9.507
 6079SOL     OW20133   1.029  12.621   3.338
 6079SOL    HW120134   1.065  12.557   3.276
 6079SOL    HW220135   0.948  12.580   3.369
 6080SOL     OW20136   3.488   5.619  11.753
 6080SOL    HW120137   3.554   5.665  11.702
 6080SOL    HW220138   3.464   5.681  11.822
 6081SOL     OW20139   1.697  13.847  10.781
 6081SOL    HW120140   1.613  13.873  10.743
 6081SOL    HW220141   1.754  13.923  10.768
 6082SOL     OW20142   2.833   9.160   7.910
 6082SOL    HW120143   2.908   9.213   7.937
 6082SOL    HW220144   2.795   9.128   7.991
 6083SOL     OW20145   9.545   4.256   2.678
 6083SOL    HW120146   9.496   4.196   2.622
 6083SOL    HW220147   9.635   4.250   2.646
 6084SOL     OW20148  10.840   9.814  12.133
 6084SOL    HW120149  10.901   9.765  12.188
 6084SOL    HW220150  10.823   9.756  12.059
 6085SOL     OW20151   4.576   5.593   8.435
 6085SOL    HW120152   4.595   5.524   8.371
 6085SOL    HW220153   4.500   5.560   8.483
 6086SOL     OW20154   9.607   6.136   1.383
 6086SOL    HW120155   9.592   6.224   1.418
 6086SOL    HW220156   9.575   6.141   1.293
 6087SOL     OW20157   4.209   7.898   4.801
 6087SOL    HW120158   4.128   7.887   4.751
 6087SOL    HW220159   4.225   7.812   4.839
 6088SOL     OW20160  11.414   0.065   5.852
 6088SOL    HW120161  11.481   0.053   5.919
 6088SOL    HW220162  11.449   0.020   5.775
 6089SOL     OW20163  10.032   0.116   4.036
 6089SOL    HW120164   9.974   0.100   4.111
 6089SOL    HW220165  10.005   0.201   4.002
 6090SOL     OW20166   2.859  14.090   7.855
 6090SOL    HW120167   2.936  14.109   7.908
 6090SOL    HW220168   2.837  13.999   7.875
 6091SOL     OW20169   0.212  10.672   4.881
 6091SOL    HW120170   0.300  10.638   4.896
 6091SOL    HW220171   0.214  10.707   4.792
 6092SOL     OW20172   4.445   9.017   3.359
 6092SOL    HW120173   4.449   9.043   3.267
 6092SOL    HW220174   4.523   8.964   3.373
 6093SOL     OW20175  14.806   2.449  11.832
 6093SOL    HW120176  14.735   2.415  11.778
 6093SOL    HW220177  14.837   2.527  11.786
 6094SOL     OW20178  12.791   7.092  11.194
 6094SOL    HW120179  12.802   7.148  11.118
 6094SOL    HW220180  12.877   7.053  11.208
 6095SOL     OW20181  13.652  13.257  13.342
 6095SOL    HW120182  13.582  13.315  13.371
 6095SOL    HW220183  13.626  13.229  13.255
 6096SOL     OW20184  12.071   2.384   7.499
 6096SOL    HW120185  12.143   2.344   7.548
 6096SOL    HW220186  12.112   2.454   7.449
 6097SOL     OW20187   6.424  14.580   2.482
 6097SOL    HW120188   6.409  14.667   2.520
 6097SOL    HW220189   6.496  14.593   2.421
 6098SOL     OW20190   7.012  10.882  11.510
 6098SOL    HW120191   6.926  10.923  11.505
 6098SOL    HW220192   7.068  10.946  11.554
 6099SOL     OW20193  13.090   8.778  10.769
 6099SOL    HW120194  13.108   8.723  10.846
 6099SOL    HW220195  13.003   8.751  10.740
 6100SOL     OW20196   2.886  10.195   1.318
 6100SOL    HW120197   2.817  10.137   1.349
 6100SOL    HW220198   2.841  10.274   1.288
 6101SOL     OW20199  10.778   2.408  10.158
 6101SOL    HW120200  10.835   2.481  10.183
 6101SOL    HW220201  10.703   2.414  10.217
 6102SOL     OW20202   0.944  10.081   9.019
 6102SOL    HW120203   0.941  10.135   9.098
 6102SOL    HW220204   1.016  10.020   9.035
 6103SOL     OW20205   9.774   4.274   2.561
 6103SOL    HW120206   9.826   4.320   2.627
 6103SOL    HW220207   9.837   4.253   2.492
 6104SOL     OW20208   9.353   4.829   9.291
 6104SOL    HW120209   9.321   4.743   9.264
 6104SOL    HW220210   9.396   4.864   9.213
 6105SOL     OW20211  13.210   1.491   9.699
 6105SOL    HW120212  13.277   1.540   9.746
 6105SOL    HW220213  13.165   1.556   9.645
 6106SOL     OW20214  12.600   5.820   9.348
 6106SOL    HW120215  12.566   5.887   9.289
 6106SOL    HW220216  12.658   5.767   9.293
 6107SOL     OW20217  10.794   2.021   2.544
 6107SOL    HW120218  10.864   2.057   2.598
 6107SOL    HW220219  10.797   1.927   2.561
 6108SOL     OW20220   3.768   0.323   9.402
 6108SOL    HW120221   3.813   0.387   9.457
 6108SOL    HW220222   3.795   0.238   9.436
 6109SOL     OW20223   2.220  13.526  12.145
 6109SOL    HW120224   2.202  13.505  12.054
 6109SOL    HW220225   2.141  13.498  12.192
 6110SOL     OW20226  13.014  14.752  14.609
 6110SOL    HW120227  12.978  14.841  14.605
 6110SOL    HW220228  13.008  14.728  14.702
 6111SOL     OW20229   9.556  12.810   2.051
 6111SOL    HW120230   9.554  12.715   2.041
 6111SOL    HW220231   9.589  12.824   2.140
 6112SOL     OW20232   8.646   5.366   7.764
 6112SOL    HW120233   8.587   5.383   7.690
 6112SOL    HW220234   8.733   5.387   7.730
 6113SOL     OW20235   7.554   0.045   4.408
 6113SOL    HW120236   7.497   0.100   4.354
 6113SOL    HW220237   7.495  14.871   4.451
 6114SOL     OW20238  10.911  10.285   4.774
 6114SOL    HW120239  10.851  10.217   4.744
 6114SOL    HW220240  10.912  10.349   4.702
 6115SOL     OW20241  13.298   0.741   0.487
 6115SOL    HW120242  13.377   0.695   0.516
 6115SOL    HW220243  13.329   0.827   0.460
 6116SOL     OW20244   8.707  13.375   6.528
 6116SOL    HW120245   8.794  13.414   6.530
 6116SOL    HW220246   8.647  13.448   6.546
 6117SOL     OW20247   8.050   8.262   8.743
 6117SOL    HW120248   8.144   8.280   8.738
 6117SOL    HW220249   8.031   8.258   8.837
 6118SOL     OW20250   2.986   3.721   8.111
 6118SOL    HW120251   3.061   3.779   8.101
 6118SOL    HW220252   2.998   3.653   8.044
 6119SOL     OW20253   6.503   5.207   3.578
 6119SOL    HW120254   6.520   5.115   3.557
 6119SOL    HW220255   6.420   5.226   3.535
 6120SOL     OW20256   4.069  14.613   0.097
 6120SOL    HW120257   4.006  14.678   0.129
 6120SOL    HW220258   4.017  14.553   0.044
 6121SOL     OW20259   8.906  14.718  12.818
 6121SOL    HW120260   8.944  14.719  12.730
 6121SOL    HW220261   8.981  14.717  12.877
 6122SOL     OW20262  13.057   1.278  13.119
 6122SOL    HW120263  13.042   1.184  13.122
 6122SOL    HW220264  13.078   1.297  13.028
 6123SOL     OW20265   0.458   3.504   6.219
 6123SOL    HW120266   0.363   3.515   6.219
 6123SOL    HW220267   0.491   3.577   6.271
 6124SOL     OW20268   5.183   5.480  14.270
 6124SOL    HW120269   5.092   5.512  14.274
 6124SOL    HW220270   5.192   5.445  14.182
 6125SOL     OW20271  11.582   8.395  14.429
 6125SOL    HW120272  11.523   8.461  14.393
 6125SOL    HW220273  11.663   8.406  14.379
 6126SOL     OW20274   6.941   3.091   7.037
 6126SOL    HW120275   6.849   3.096   7.063
 6126SOL    HW220276   6.947   3.013   6.981
 6127SOL     OW20277   7.291   8.183   2.314
 6127SOL    HW120278   7.281   8.203   2.407
 6127SOL    HW220279   7.315   8.091   2.311
 6128SOL     OW20280  14.120   8.554   7.439
 6128SOL    HW120281  14.214   8.548   7.457
 6128SOL    HW220282  14.111   8.632   7.383
 6129SOL     OW20283   7.234   3.154   6.196
 6129SOL    HW120284   7.155   3.133   6.245
 6129SOL    HW220285   7.207   3.220   6.132
 6130SOL     OW20286   5.825   6.695   0.896
 6130SOL    HW120287   5.789   6.723   0.980
 6130SOL    HW220288   5.748   6.676   0.842
 6131SOL     OW20289  12.220   5.741  11.458
 6131SOL    HW120290  12.268   5.708  11.534
 6131SOL    HW220291  12.243   5.834  11.453
 6132SOL     OW20292   6.695   4.533   9.016
 6132SOL    HW120293   6.644   4.451   9.015
 6132SOL    HW220294   6.652   4.589   8.952
 6133SOL     OW20295   1.867   9.105   8.525
 6133SOL    HW120296   1.953   9.078   8.494
 6133SOL    HW220297   1.836   9.032   8.579
 6134SOL     OW20298  14.640  11.281   9.176
 6134SOL    HW120299  14.709  11.277   9.243
 6134SOL    HW220300  14.614  11.373   9.173
 6135SOL     OW20301  14.621   0.018   3.236
 6135SOL    HW120302  14.563  14.829   3.237
 6135SOL    HW220303  14.659   0.019   3.148
 6136SOL     OW20304  11.172   4.497  14.075
 6136SOL    HW120305  11.238   4.434  14.102
 6136SOL    HW220306  11.218   4.555  14.014
 6137SOL     OW20307   8.076   5.097   2.440
 6137SOL    HW120308   8.105   5.180   2.478
 6137SOL    HW220309   7.991   5.081   2.480
 6138SOL     OW20310   0.350  10.942   9.395
 6138SOL    HW120311   0.363  10.936   9.300
 6138SOL    HW220312   0.318  11.031   9.409
 6139SOL     OW20313   0.336   6.802  13.944
 6139SOL    HW120314   0.285   6.805  13.863
 6139SOL    HW220315   0.388   6.722  13.937
 6140SOL     OW20316   7.532  14.423   6.828
 6140SOL    HW120317   7.557  14.361   6.760
 6140SOL    HW220318   7.610  14.433   6.882
 6141SOL     OW20319  13.292  11.986  13.077
 6141SOL    HW120320  13.383  11.960  13.095
 6141SOL    HW220321  13.279  12.065  13.129
 6142SOL     OW20322  12.917  14.637  13.075
 6142SOL    HW120323  12.827  14.602  13.075
 6142SOL    HW220324  12.972  14.559  13.081
 6143SOL     OW20325  12.208   8.612   6.444
 6143SOL    HW120326  12.270   8.681   6.466
 6143SOL    HW220327  12.193   8.621   6.350
 6144SOL     OW20328   2.747   3.153  12.841
 6144SOL    HW120329   2.723   3.093  12.770
 6144SOL    HW220330   2.832   3.188  12.815
 6145SOL     OW20331   0.303   1.266  12.438
 6145SOL    HW120332   0.245   1.309  12.375
 6145SOL    HW220333   0.313   1.177  12.405
 6146SOL     OW20334   0.850   7.358  14.821
 6146SOL    HW120335   0.929   7.333  14.868
 6146SOL    HW220336   0.810   7.426  14.875
 6147SOL     OW20337   8.121   2.212   9.542
 6147SOL    HW120338   8.191   2.176   9.596
 6147SOL    HW220339   8.043   2.162   9.567
 6148SOL     OW20340   9.909   6.130  14.085
 6148SOL    HW120341   9.888   6.208  14.137
 6148SOL    HW220342   9.920   6.060  14.150
 6149SOL     OW20343   6.177   9.726  13.644
 6149SOL    HW120344   6.134   9.808  13.668
 6149SOL    HW220345   6.160   9.715  13.551
 6150SOL     OW20346   3.719  11.149   2.626
 6150SOL    HW120347   3.783  11.087   2.591
 6150SOL    HW220348   3.648  11.094   2.660
 6151SOL     OW20349   6.238  13.767  14.312
 6151SOL    HW120350   6.197  13.815  14.384
 6151SOL    HW220351   6.268  13.686  14.352
 6152SOL     OW20352  13.489  13.197   8.916
 6152SOL    HW120353  13.507  13.257   8.988
 6152SOL    HW220354  13.401  13.222   8.885
 6153SOL     OW20355   1.335   6.540   8.792
 6153SOL    HW120356   1.357   6.536   8.699
 6153SOL    HW220357   1.249   6.582   8.794
 6154SOL     OW20358   0.421   9.930   2.733
 6154SOL    HW120359   0.381   9.849   2.701
 6154SOL    HW220360   0.391   9.937   2.823
 6155SOL     OW20361   2.834   5.444  12.973
 6155SOL    HW120362   2.820   5.520  13.031
 6155SOL    HW220363   2.906   5.470  12.916
 6156SOL     OW20364   3.096   4.817   5.521
 6156SOL    HW120365   3.060   4.733   5.491
 6156SOL    HW220366   3.136   4.855   5.443
 6157SOL     OW20367  13.440   6.803  13.352
 6157SOL    HW120368  13.510   6.739  13.365
 6157SOL    HW220369  13.482   6.876  13.306
 6158SOL     OW20370   6.771   1.095   9.588
 6158SOL    HW120371   6.756   1.013   9.635
 6158SOL    HW220372   6.836   1.073   9.522
 6159SOL     OW20373   9.956   1.562   5.433
 6159SOL    HW120374   9.985   1.630   5.494
 6159SOL    HW220375   9.887   1.603   5.382
 6160SOL     OW20376   5.794  10.075   0.361
 6160SOL    HW120377   5.876  10.031   0.341
 6160SOL    HW220378   5.752  10.088   0.276
 6161SOL     OW20379   1.675   2.742   4.942
 6161SOL    HW120380   1.745   2.793   4.902
 6161SOL    HW220381   1.633   2.803   5.003
 6162SOL     OW20382   4.893   2.644  14.883
 6162SOL    HW120383   4.824   2.578   0.001
 6162SOL    HW220384   4.917   2.646  14.790
 6163SOL     OW20385  12.810   0.455   2.308
 6163SOL    HW120386  12.845   0.450   2.397
 6163SOL    HW220387  12.881   0.495   2.258
 6164SOL     OW20388   5.454   6.095  11.603
 6164SOL    HW120389   5.531   6.075  11.656
 6164SOL    HW220390   5.441   6.018  11.549
 6165SOL     OW20391   3.191  10.719   1.537
 6165SOL    HW120392   3.108  10.750   1.572
 6165SOL    HW220393   3.221  10.654   1.600
 6166SOL     OW20394   2.462   8.649   3.410
 6166SOL    HW120395   2.543   8.650   3.460
 6166SOL    HW220396   2.480   8.592   3.335
 6167SOL     OW20397   5.323  12.816   8.238
 6167SOL    HW120398   5.317  12.781   8.327
 6167SOL    HW220399   5.257  12.768   8.189
 6168SOL     OW20400   3.250   8.358  11.028
 6168SOL    HW120401   3.276   8.420  11.097
 6168SOL    HW220402   3.332   8.320  10.998
 6169SOL     OW20403   9.176   1.571   7.220
 6169SOL    HW120404   9.129   1.549   7.139
 6169SOL    HW220405   9.268   1.564   7.196
 6170SOL     OW20406   5.934   3.566   7.647
 6170SOL    HW120407   5.991   3.553   7.723
 6170SOL    HW220408   5.911   3.478   7.619
 6171SOL     OW20409   3.227   8.237  13.031
 6171SOL    HW120410   3.169   8.299  12.986
 6171SOL    HW220411   3.186   8.224  13.117
 6172SOL     OW20412  13.640  10.292   3.426
 6172SOL    HW120413  13.720  10.253   3.389
 6172SOL    HW220414  13.634  10.253   3.514
 6173SOL     OW20415  13.776  14.573   6.761
 6173SOL    HW120416  13.771  14.611   6.673
 6173SOL    HW220417  13.788  14.649   6.819
 6174SOL     OW20418  10.200   7.056   3.178
 6174SOL    HW120419  10.209   7.086   3.269
 6174SOL    HW220420  10.125   6.996   3.180
 6175SOL     OW20421  10.283  10.274  10.084
 6175SOL    HW120422  10.284  10.178  10.078
 6175SOL    HW220423  10.335  10.303  10.010
 6176SOL     OW20424   8.452  11.467  11.804
 6176SOL    HW120425   8.411  11.386  11.776
 6176SOL    HW220426   8.393  11.503  11.870
 6177SOL     OW20427   4.323  10.986  13.979
 6177SOL    HW120428   4.335  10.917  14.044
 6177SOL    HW220429   4.411  10.999  13.942
 6178SOL     OW20430   4.498  12.120   4.294
 6178SOL    HW120431   4.407  12.098   4.276
 6178SOL    HW220432   4.532  12.043   4.339
 6179SOL     OW20433   5.687   8.316   7.873
 6179SOL    HW120434   5.729   8.401   7.889
 6179SOL    HW220435   5.724   8.286   7.790
 6180SOL     OW20436   7.941   3.508   1.568
 6180SOL    HW120437   7.943   3.583   1.629
 6180SOL    HW220438   7.864   3.458   1.594
 6181SOL     OW20439  11.407   4.868   1.806
 6181SOL    HW120440  11.425   4.923   1.730
 6181SOL    HW220441  11.493   4.854   1.846
 6182SOL     OW20442   4.077  11.548   0.745
 6182SOL    HW120443   4.043  11.609   0.811
 6182SOL    HW220444   4.122  11.604   0.681
 6183SOL     OW20445  14.043  10.377  10.036
 6183SOL    HW120446  14.014  10.288  10.016
 6183SOL    HW220447  14.133  10.380  10.005
 6184SOL     OW20448  13.107   5.357   2.426
 6184SOL    HW120449  13.180   5.296   2.415
 6184SOL    HW220450  13.132   5.434   2.375
 6185SOL     OW20451   4.967   9.920   5.748
 6185SOL    HW120452   4.941   9.828   5.754
 6185SOL    HW220453   5.037   9.930   5.813
 6186SOL     OW20454   6.560  14.160  12.478
 6186SOL    HW120455   6.616  14.085  12.500
 6186SOL    HW220456   6.471  14.129  12.495
 6187SOL     OW20457   0.983  14.372   7.742
 6187SOL    HW120458   1.048  14.313   7.703
 6187SOL    HW220459   0.934  14.316   7.802
 6188SOL     OW20460   2.322  10.426   7.331
 6188SOL    HW120461   2.399  10.371   7.346
 6188SOL    HW220462   2.354  10.500   7.280
 6189SOL     OW20463  13.818   2.168   4.268
 6189SOL    HW120464  13.806   2.262   4.255
 6189SOL    HW220465  13.905   2.160   4.306
 6190SOL     OW20466   5.110   3.766  11.816
 6190SOL    HW120467   5.166   3.812  11.754
 6190SOL    HW220468   5.088   3.832  11.883
 6191SOL     OW20469  11.911   8.234  14.005
 6191SOL    HW120470  11.835   8.288  13.982
 6191SOL    HW220471  11.912   8.233  14.101
 6192SOL     OW20472   7.201  11.807   1.752
 6192SOL    HW120473   7.266  11.864   1.792
 6192SOL    HW220474   7.219  11.721   1.790
 6193SOL     OW20475  13.869  14.122   2.640
 6193SOL    HW120476  13.835  14.120   2.551
 6193SOL    HW220477  13.964  14.119   2.630
 6194SOL     OW20478   9.793  11.678   7.696
 6194SOL    HW120479   9.790  11.689   7.791
 6194SOL    HW220480   9.724  11.615   7.676
 6195SOL     OW20481  13.998  13.489   8.960
 6195SOL    HW120482  14.081  13.442   8.971
 6195SOL    HW220483  13.944  13.460   9.034
 6196SOL     OW20484  13.762   1.929  10.500
 6196SOL    HW120485  13.784   1.940  10.592
 6196SOL    HW220486  13.667   1.917  10.498
 6197SOL     OW20487   6.058   7.017   5.414
 6197SOL    HW120488   6.147   7.022   5.380
 6197SOL    HW220489   6.017   7.099   5.386
 6198SOL     OW20490   0.395   3.585  10.163
 6198SOL    HW120491   0.447   3.570  10.084
 6198SOL    HW220492   0.458   3.613  10.229
 6199SOL     OW20493  11.760   3.199  11.591
 6199SOL    HW120494  11.766   3.225  11.683
 6199SOL    HW220495  11.851   3.203  11.560
 6200SOL     OW20496   6.006   2.424   8.158
 6200SOL    HW120497   5.949   2.349   8.144
 6200SOL    HW220498   6.089   2.398   8.116
 6201SOL     OW20499   8.222   6.751   9.199
 6201SOL    HW120500   8.132   6.722   9.185
 6201SOL    HW220501   8.257   6.766   9.111
 6202SOL     OW20502   5.699   0.204   6.028
 6202SOL    HW120503   5.779   0.182   5.979
 6202SOL    HW220504   5.720   0.286   6.073
 6203SOL     OW20505   9.479   3.475  13.037
 6203SOL    HW120506   9.423   3.444  12.966
 6203SOL    HW220507   9.447   3.563  13.055
 6204SOL     OW20508  10.220   9.548   4.270
 6204SOL    HW120509  10.145   9.580   4.320
 6204SOL    HW220510  10.291   9.609   4.291
 6205SOL     OW20511  13.989  11.758   6.184
 6205SOL    HW120512  13.928  11.685   6.178
 6205SOL    HW220513  13.947  11.820   6.243
 6206SOL     OW20514   1.033   4.840  10.909
 6206SOL    HW120515   0.984   4.918  10.882
 6206SOL    HW220516   0.967   4.780  10.942
 6207SOL     OW20517  13.624   1.669   2.981
 6207SOL    HW120518  13.622   1.574   2.990
 6207SOL    HW220519  13.616   1.684   2.887
 6208SOL     OW20520   4.750  12.776   1.848
 6208SOL    HW120521   4.764  12.839   1.919
 6208SOL    HW220522   4.729  12.830   1.772
 6209SOL     OW20523   3.675  14.302  10.341
 6209SOL    HW120524   3.640  14.216  10.366
 6209SOL    HW220525   3.756  14.311  10.390
 6210SOL     OW20526  13.383  13.116  10.618
 6210SOL    HW120527  13.459  13.087  10.669
 6210SOL    HW220528  13.312  13.058  10.646
 6211SOL     OW20529  14.424   5.491   2.771
 6211SOL    HW120530  14.384   5.420   2.721
 6211SOL    HW220531  14.507   5.454   2.802
 6212SOL     OW20532   4.890   8.641  13.216
 6212SOL    HW120533   4.981   8.627  13.242
 6212SOL    HW220534   4.855   8.701  13.282
 6213SOL     OW20535   4.913   2.781   0.573
 6213SOL    HW120536   5.006   2.801   0.562
 6213SOL    HW220537   4.868   2.861   0.546
 6214SOL     OW20538   8.274  12.155  10.534
 6214SOL    HW120539   8.236  12.232  10.576
 6214SOL    HW220540   8.203  12.117  10.482
 6215SOL     OW20541  14.149   8.312  12.030
 6215SOL    HW120542  14.165   8.244  11.964
 6215SOL    HW220543  14.234   8.325  12.072
 6216SOL     OW20544   8.492   1.110  11.041
 6216SOL    HW120545   8.582   1.105  11.072
 6216SOL    HW220546   8.463   1.019  11.033
 6217SOL     OW20547   4.789   5.273  13.721
 6217SOL    HW120548   4.734   5.265  13.643
 6217SOL    HW220549   4.844   5.195  13.719
 6218SOL     OW20550  14.118  12.522   9.660
 6218SOL    HW120551  14.161  12.587   9.604
 6218SOL    HW220552  14.186  12.493   9.720
 6219SOL     OW20553   1.472  12.763   4.647
 6219SOL    HW120554   1.459  12.687   4.703
 6219SOL    HW220555   1.529  12.821   4.697
 6220SOL     OW20556   2.010  12.638  11.950
 6220SOL    HW120557   1.933  12.692  11.964
 6220SOL    HW220558   2.076  12.674  12.009
 6221SOL     OW20559  14.015   5.948   3.026
 6221SOL    HW120560  14.076   5.965   2.955
 6221SOL    HW220561  14.069   5.911   3.096
 6222SOL     OW20562  11.708  13.322  11.495
 6222SOL    HW120563  11.728  13.245  11.549
 6222SOL    HW220564  11.643  13.291  11.432
 6223SOL     OW20565  12.892   1.913   2.622
 6223SOL    HW120566  12.944   1.988   2.594
 6223SOL    HW220567  12.916   1.843   2.560
 6224SOL     OW20568   3.129   4.859  11.783
 6224SOL    HW120569   3.128   4.810  11.701
 6224SOL    HW220570   3.115   4.794  11.851
 6225SOL     OW20571  14.785   9.547  14.313
 6225SOL    HW120572  14.781   9.452  14.306
 6225SOL    HW220573  14.749   9.566  14.400
 6226SOL     OW20574   1.440   5.891   3.906
 6226SOL    HW120575   1.478   5.977   3.924
 6226SOL    HW220576   1.501   5.849   3.845
 6227SOL     OW20577   5.296  14.744   3.868
 6227SOL    HW120578   5.319  14.651   3.872
 6227SOL    HW220579   5.207  14.748   3.904
 6228SOL     OW20580   6.589   9.443  11.106
 6228SOL    HW120581   6.668   9.420  11.154
 6228SOL    HW220582   6.594   9.539  11.096
 6229SOL     OW20583  14.809  11.932   5.287
 6229SOL    HW120584  14.732  11.976   5.322
 6229SOL    HW220585  14.815  11.962   5.196
 6230SOL     OW20586   5.494   9.393  14.232
 6230SOL    HW120587   5.494   9.370  14.325
 6230SOL    HW220588   5.586   9.395  14.207
 6231SOL     OW20589   9.401   9.136   6.931
 6231SOL    HW120590   9.357   9.125   6.846
 6231SOL    HW220591   9.428   9.228   6.932
 6232SOL     OW20592   8.660  11.011  11.015
 6232SOL    HW120593   8.622  11.084  11.063
 6232SOL    HW220594   8.753  11.012  11.038
 6233SOL     OW20595   3.084   8.058  12.672
 6233SOL    HW120596   3.024   7.984  12.658
 6233SOL    HW220597   3.169   8.017  12.686
 6234SOL     OW20598   2.058  10.982   4.337
 6234SOL    HW120599   2.151  10.976   4.316
 6234SOL    HW220600   2.042  11.076   4.347
 6235SOL     OW20601   5.807   6.120   7.982
 6235SOL    HW120602   5.825   6.184   8.051
 6235SOL    HW220603   5.739   6.160   7.928
 6236SOL     OW20604   5.386   1.476   1.196
 6236SOL    HW120605   5.481   1.478   1.206
 6236SOL    HW220606   5.371   1.416   1.122
 6237SOL     OW20607   1.295   5.116  13.725
 6237SOL    HW120608   1.314   5.119  13.631
 6237SOL    HW220609   1.364   5.061  13.762
 6238SOL     OW20610   9.755   7.762   4.356
 6238SOL    HW120611   9.737   7.753   4.450
 6238SOL    HW220612   9.675   7.798   4.319
 6239SOL     OW20613  13.098  14.880   0.254
 6239SOL    HW120614  13.173  14.845   0.302
 6239SOL    HW220615  13.024  14.870   0.314
 6240SOL     OW20616   1.909   1.189   0.509
 6240SOL    HW120617   1.979   1.161   0.568
 6240SOL    HW220618   1.946   1.261   0.459
 6241SOL     OW20619  13.305  14.144   8.513
 6241SOL    HW120620  13.273  14.233   8.528
 6241SOL    HW220621  13.255  14.090   8.574
 6242SOL     OW20622  13.457   2.238  13.570
 6242SOL    HW120623  13.447   2.288  13.489
 6242SOL    HW220624  13.539   2.190  13.559
 6243SOL     OW20625   6.338   0.150   7.021
 6243SOL    HW120626   6.294   0.167   7.105
 6243SOL    HW220627   6.431   0.153   7.042
 6244SOL     OW20628  12.823  13.467  11.566
 6244SOL    HW120629  12.740  13.423  11.550
 6244SOL    HW220630  12.806  13.559  11.546
 6245SOL     OW20631   2.588   6.269  11.093
 6245SOL    HW120632   2.640   6.298  11.168
 6245SOL    HW220633   2.626   6.317  11.018
 6246SOL     OW20634  11.517  12.409   2.220
 6246SOL    HW120635  11.460  12.346   2.175
 6246SOL    HW220636  11.458  12.456   2.279
 6247SOL     OW20637   7.207   6.903  12.267
 6247SOL    HW120638   7.257   6.844  12.209
 6247SOL    HW220639   7.149   6.950  12.208
 6248SOL     OW20640   6.740   1.614   3.111
 6248SOL    HW120641   6.656   1.605   3.156
 6248SOL    HW220642   6.716   1.627   3.019
 6249SOL     OW20643   1.291  14.457  14.048
 6249SOL    HW120644   1.303  14.363  14.058
 6249SOL    HW220645   1.327  14.495  14.128
 6250SOL     OW20646   4.136   3.373   3.670
 6250SOL    HW120647   4.198   3.321   3.620
 6250SOL    HW220648   4.126   3.326   3.753
 6251SOL     OW20649   2.294  13.426  10.784
 6251SOL    HW120650   2.375  13.416  10.834
 6251SOL    HW220651   2.234  13.362  10.821
 6252SOL     OW20652   2.198   7.234   3.931
 6252SOL    HW120653   2.170   7.160   3.983
 6252SOL    HW220654   2.123   7.254   3.874
 6253SOL     OW20655  12.653   2.528   0.874
 6253SOL    HW120656  12.574   2.500   0.920
 6253SOL    HW220657  12.632   2.615   0.840
 6254SOL     OW20658   4.972   5.039   0.636
 6254SOL    HW120659   4.973   5.117   0.582
 6254SOL    HW220660   4.919   5.062   0.712
 6255SOL     OW20661   0.836   9.944  12.909
 6255SOL    HW120662   0.834  10.024  12.855
 6255SOL    HW220663   0.815   9.975  12.997
 6256SOL     OW20664  14.332  12.871  10.442
 6256SOL    HW120665  14.267  12.802  10.442
 6256SOL    HW220666  14.296  12.939  10.499
 6257SOL     OW20667   2.981   0.530   3.607
 6257SOL    HW120668   3.001   0.498   3.695
 6257SOL    HW220669   2.897   0.488   3.584
 6258SOL     OW20670  14.202   0.677  11.528
 6258SOL    HW120671  14.180   0.713  11.442
 6258SOL    HW220672  14.290   0.709  11.546
 6259SOL     OW20673   6.488   1.629   5.743
 6259SOL    HW120674   6.433   1.613   5.666
 6259SOL    HW220675   6.478   1.551   5.797
 6260SOL     OW20676   7.647  10.526  13.475
 6260SOL    HW120677   7.581  10.555  13.538
 6260SOL    HW220678   7.721  10.498  13.529
 6261SOL     OW20679   4.836  12.943  12.978
 6261SOL    HW120680   4.830  12.898  12.894
 6261SOL    HW220681   4.747  12.940  13.013
 6262SOL     OW20682  10.008  13.485   8.992
 6262SOL    HW120683   9.917  13.468   9.017
 6262SOL    HW220684  10.023  13.429   8.916
 6263SOL     OW20685   2.899  13.009   1.873
 6263SOL    HW120686   2.905  13.050   1.787
 6263SOL    HW220687   2.814  12.965   1.873
 6264SOL     OW20688   2.865   7.814   9.074
 6264SOL    HW120689   2.778   7.852   9.066
 6264SOL    HW220690   2.875   7.760   8.995
 6265SOL     OW20691   1.061  11.918  14.840
 6265SOL    HW120692   1.065  11.999  14.788
 6265SOL    HW220693   0.997  11.938   0.021
 6266SOL     OW20694   3.284   1.189  13.937
 6266SOL    HW120695   3.332   1.127  13.881
 6266SOL    HW220696   3.350   1.223  13.997
 6267SOL     OW20697   3.027   1.396   3.833
 6267SOL    HW120698   3.072   1.397   3.749
 6267SOL    HW220699   2.983   1.311   3.835
 6268SOL     OW20700  12.717  13.853  14.825
 6268SOL    HW120701  12.646  13.916  14.812
 6268SOL    HW220702  12.718  13.801  14.745
 6269SOL     OW20703   5.669   7.728  12.511
 6269SOL    HW120704   5.648   7.742  12.604
 6269SOL    HW220705   5.684   7.816  12.476
 6270SOL     OW20706  14.142   4.459   6.269
 6270SOL    HW120707  14.155   4.368   6.296
 6270SOL    HW220708  14.148   4.509   6.351
 6271SOL     OW20709   5.903   7.297  10.359
 6271SOL    HW120710   5.826   7.340  10.321
 6271SOL    HW220711   5.885   7.204  10.350
 6272SOL     OW20712  14.744   5.455  11.892
 6272SOL    HW120713  14.749   5.537  11.942
 6272SOL    HW220714  14.792   5.391  11.945
 6273SOL     OW20715  14.032  14.468  12.699
 6273SOL    HW120716  14.003  14.546  12.747
 6273SOL    HW220717  14.050  14.500  12.611
 6274SOL     OW20718   7.958   0.523  10.197
 6274SOL    HW120719   7.938   0.575  10.275
 6274SOL    HW220720   7.873   0.510  10.155
 6275SOL     OW20721   7.426   1.879   1.409
 6275SOL    HW120722   7.378   1.938   1.351
 6275SOL    HW220723   7.362   1.856   1.476
 6276SOL     OW20724   4.296   1.359  11.565
 6276SOL    HW120725   4.251   1.304  11.501
 6276SOL    HW220726   4.242   1.437  11.572
 6277SOL     OW20727   6.960  11.677  14.566
 6277SOL    HW120728   6.950  11.709  14.656
 6277SOL    HW220729   6.898  11.729  14.515
 6278SOL     OW20730   7.906   3.429  14.287
 6278SOL    HW120731   7.814   3.423  14.262
 6278SOL    HW220732   7.949   3.467  14.210
 6279SOL     OW20733   0.802   0.054   5.258
 6279SOL    HW120734   0.833  14.857   5.290
 6279SOL    HW220735   0.855   0.119   5.305
 6280SOL     OW20736   2.779   7.029   2.088
 6280SOL    HW120737   2.751   7.092   2.155
 6280SOL    HW220738   2.793   7.082   2.010
 6281SOL     OW20739  10.664  10.929   7.646
 6281SOL    HW120740  10.662  10.835   7.626
 6281SOL    HW220741  10.754  10.945   7.674
 6282SOL     OW20742   4.721   9.189   0.719
 6282SOL    HW120743   4.674   9.107   0.732
 6282SOL    HW220744   4.685   9.225   0.638
 6283SOL     OW20745  12.177  14.259  11.476
 6283SOL    HW120746  12.121  14.182  11.469
 6283SOL    HW220747  12.120  14.327  11.513
 6284SOL     OW20748   5.985  12.765  10.584
 6284SOL    HW120749   5.907  12.733  10.629
 6284SOL    HW220750   5.974  12.736  10.493
 6285SOL     OW20751  13.494  11.495   3.208
 6285SOL    HW120752  13.471  11.565   3.147
 6285SOL    HW220753  13.445  11.516   3.288
 6286SOL     OW20754   8.829  10.583   8.850
 6286SOL    HW120755   8.809  10.650   8.915
 6286SOL    HW220756   8.870  10.631   8.778
 6287SOL     OW20757   6.412   3.490   1.047
 6287SOL    HW120758   6.425   3.544   0.969
 6287SOL    HW220759   6.494   3.443   1.057
 6288SOL     OW20760   8.728  10.021  12.202
 6288SOL    HW120761   8.803  10.019  12.261
 6288SOL    HW220762   8.654  10.047  12.257
 6289SOL     OW20763   5.251   3.324   9.620
 6289SOL    HW120764   5.218   3.390   9.560
 6289SOL    HW220765   5.219   3.241   9.584
 6290SOL     OW20766   9.155   3.430   3.946
 6290SOL    HW120767   9.218   3.489   3.986
 6290SOL    HW220768   9.087   3.417   4.012
 6291SOL     OW20769   5.479   7.663   3.903
 6291SOL    HW120770   5.545   7.614   3.951
 6291SOL    HW220771   5.404   7.666   3.963
 6292SOL     OW20772  14.086   1.669  11.838
 6292SOL    HW120773  14.103   1.576  11.849
 6292SOL    HW220774  14.044   1.696  11.920
 6293SOL     OW20775  12.676   6.748   7.204
 6293SOL    HW120776  12.601   6.704   7.244
 6293SOL    HW220777  12.752   6.701   7.237
 6294SOL     OW20778  10.452  13.640   9.284
 6294SOL    HW120779  10.371  13.637   9.233
 6294SOL    HW220780  10.427  13.686   9.365
 6295SOL     OW20781  10.974   1.576   2.294
 6295SOL    HW120782  10.982   1.515   2.220
 6295SOL    HW220783  11.004   1.660   2.259
 6296SOL     OW20784   3.716   8.583   7.172
 6296SOL    HW120785   3.719   8.594   7.077
 6296SOL    HW220786   3.692   8.491   7.185
 6297SOL     OW20787  10.078  10.540   2.327
 6297SOL    HW120788  10.059  10.486   2.250
 6297SOL    HW220789   9.997  10.587   2.343
 6298SOL     OW20790   9.946   6.468   5.692
 6298SOL    HW120791   9.964   6.498   5.781
 6298SOL    HW220792   9.903   6.543   5.649
 6299SOL     OW20793  11.583   2.217  13.783
 6299SOL    HW120794  11.528   2.151  13.825
 6299SOL    HW220795  11.640   2.249  13.854
 6300SOL     OW20796   8.682   7.495   1.763
 6300SOL    HW120797   8.726   7.496   1.847
 6300SOL    HW220798   8.736   7.550   1.706
 6301SOL     OW20799  10.197   1.352   6.053
 6301SOL    HW120800  10.286   1.379   6.074
 6301SOL    HW220801  10.195   1.347   5.957
 6302SOL     OW20802  12.593  12.278  13.478
 6302SOL    HW120803  12.517  12.238  13.435
 6302SOL    HW220804  12.650  12.305  13.405
 6303SOL     OW20805   9.461   9.334   5.423
 6303SOL    HW120806   9.484   9.273   5.353
 6303SOL    HW220807   9.371   9.359   5.404
 6304SOL     OW20808   6.149  13.808  13.353
 6304SOL    HW120809   6.104  13.892  13.361
 6304SOL    HW220810   6.177  13.787  13.442
 6305SOL     OW20811  13.471   9.345  14.424
 6305SOL    HW120812  13.540   9.347  14.491
 6305SOL    HW220813  13.503   9.403  14.355
 6306SOL     OW20814   3.070  11.750  13.643
 6306SOL    HW120815   3.098  11.778  13.730
 6306SOL    HW220816   3.108  11.814  13.584
 6307SOL     OW20817   0.768   6.771   9.694
 6307SOL    HW120818   0.736   6.682   9.707
 6307SOL    HW220819   0.766   6.810   9.781
 6308SOL     OW20820  12.142   0.538   6.228
 6308SOL    HW120821  12.147   0.455   6.275
 6308SOL    HW220822  12.226   0.546   6.182
 6309SOL     OW20823   3.660  12.671   5.665
 6309SOL    HW120824   3.684  12.579   5.663
 6309SOL    HW220825   3.728  12.714   5.613
 6310SOL     OW20826   6.688   4.654   7.349
 6310SOL    HW120827   6.777   4.633   7.378
 6310SOL    HW220828   6.686   4.750   7.346
 6311SOL     OW20829   4.303   3.174   5.594
 6311SOL    HW120830   4.305   3.162   5.689
 6311SOL    HW220831   4.298   3.269   5.582
 6312SOL     OW20832   7.265   3.779   3.290
 6312SOL    HW120833   7.202   3.741   3.351
 6312SOL    HW220834   7.280   3.711   3.225
 6313SOL     OW20835  13.317   4.655  13.941
 6313SOL    HW120836  13.348   4.722  14.002
 6313SOL    HW220837  13.307   4.700  13.858
 6314SOL     OW20838   4.839   7.641   5.673
 6314SOL    HW120839   4.743   7.641   5.675
 6314SOL    HW220840   4.863   7.734   5.682
 6315SOL     OW20841   2.906  13.268   6.577
 6315SOL    HW120842   2.986  13.224   6.549
 6315SOL    HW220843   2.929  13.361   6.580
 6316SOL     OW20844   0.692   1.268  12.891
 6316SOL    HW120845   0.717   1.262  12.799
 6316SOL    HW220846   0.747   1.337  12.927
 6317SOL     OW20847   7.391   4.862  13.632
 6317SOL    HW120848   7.315   4.860  13.691
 6317SOL    HW220849   7.353   4.869  13.544
 6318SOL     OW20850   3.310   9.463   9.619
 6318SOL    HW120851   3.292   9.436   9.529
 6318SOL    HW220852   3.354   9.387   9.658
 6319SOL     OW20853   2.423   2.677   5.735
 6319SOL    HW120854   2.468   2.737   5.795
 6319SOL    HW220855   2.344   2.650   5.783
 6320SOL     OW20856  13.738   6.007   3.179
 6320SOL    HW120857  13.818   5.974   3.139
 6320SOL    HW220858  13.699   6.063   3.111
 6321SOL     OW20859  11.391  10.188  14.310
 6321SOL    HW120860  11.481  10.168  14.336
 6321SOL    HW220861  11.388  10.167  14.217
 6322SOL     OW20862   0.204   2.570   2.556
 6322SOL    HW120863   0.203   2.656   2.598
 6322SOL    HW220864   0.116   2.535   2.572
 6323SOL     OW20865   0.965  10.188   9.837
 6323SOL    HW120866   0.993  10.232   9.918
 6323SOL    HW220867   0.892  10.242   9.806
 6324SOL     OW20868   6.645  10.877   7.029
 6324SOL    HW120869   6.720  10.855   6.973
 6324SOL    HW220870   6.662  10.967   7.058
 6325SOL     OW20871   3.469  11.401  13.962
 6325SOL    HW120872   3.436  11.316  13.992
 6325SOL    HW220873   3.509  11.383  13.877
 6326SOL     OW20874   6.409   2.852   7.483
 6326SOL    HW120875   6.351   2.825   7.555
 6326SOL    HW220876   6.441   2.938   7.509
 6327SOL     OW20877   5.383   4.292  12.542
 6327SOL    HW120878   5.308   4.261  12.492
 6327SOL    HW220879   5.459   4.252  12.500
 6328SOL     OW20880   2.703   4.783   0.713
 6328SOL    HW120881   2.647   4.860   0.706
 6328SOL    HW220882   2.713   4.769   0.808
 6329SOL     OW20883   2.530   8.403   6.359
 6329SOL    HW120884   2.548   8.372   6.270
 6329SOL    HW220885   2.514   8.323   6.410
 6330SOL     OW20886   4.494   8.093   0.428
 6330SOL    HW120887   4.494   8.168   0.488
 6330SOL    HW220888   4.420   8.108   0.370
 6331SOL     OW20889  13.741   0.497   2.547
 6331SOL    HW120890  13.699   0.528   2.627
 6331SOL    HW220891  13.713   0.406   2.538
 6332SOL     OW20892   8.050   5.011   4.955
 6332SOL    HW120893   7.980   5.076   4.962
 6332SOL    HW220894   8.089   5.027   4.869
 6333SOL     OW20895   5.683   9.625   6.868
 6333SOL    HW120896   5.614   9.578   6.915
 6333SOL    HW220897   5.686   9.583   6.782
 6334SOL     OW20898  10.881  12.226   6.018
 6334SOL    HW120899  10.925  12.188   6.094
 6334SOL    HW220900  10.947  12.221   5.948
 6335SOL     OW20901  13.502  10.334  14.262
 6335SOL    HW120902  13.435  10.279  14.220
 6335SOL    HW220903  13.497  10.310  14.355
 6336SOL     OW20904   5.907  12.147  11.216
 6336SOL    HW120905   5.816  12.118  11.213
 6336SOL    HW220906   5.924  12.164  11.309
 6337SOL     OW20907   6.694   3.657  13.104
 6337SOL    HW120908   6.607   3.668  13.142
 6337SOL    HW220909   6.754   3.669  13.178
 6338SOL     OW20910  14.665   5.963  12.159
 6338SOL    HW120911  14.624   5.881  12.188
 6338SOL    HW220912  14.705   5.999  12.239
 6339SOL     OW20913  10.480   9.979   6.283
 6339SOL    HW120914  10.560  10.020   6.250
 6339SOL    HW220915  10.418   9.986   6.210
 6340SOL     OW20916   9.196  10.554   6.418
 6340SOL    HW120917   9.238  10.569   6.334
 6340SOL    HW220918   9.167  10.641   6.447
 6341SOL     OW20919  14.439  11.965   1.530
 6341SOL    HW120920  14.347  11.990   1.530
 6341SOL    HW220921  14.468  11.981   1.620
 6342SOL     OW20922   3.675   7.190  10.217
 6342SOL    HW120923   3.739   7.210  10.149
 6342SOL    HW220924   3.694   7.099  10.242
 6343SOL     OW20925  13.749  11.355   6.683
 6343SOL    HW120926  13.665  11.322   6.652
 6343SOL    HW220927  13.809  11.340   6.609
 6344SOL     OW20928   4.642   2.522   5.936
 6344SOL    HW120929   4.659   2.617   5.935
 6344SOL    HW220930   4.569   2.510   5.875
 6345SOL     OW20931   1.956   4.987   7.819
 6345SOL    HW120932   2.007   4.927   7.765
 6345SOL    HW220933   1.961   4.950   7.907
 6346SOL     OW20934   4.933   0.972   4.341
 6346SOL    HW120935   5.006   0.914   4.320
 6346SOL    HW220936   4.931   1.036   4.270
 6347SOL     OW20937   8.145  12.009   4.431
 6347SOL    HW120938   8.138  11.924   4.388
 6347SOL    HW220939   8.238  12.031   4.423
 6348SOL     OW20940   1.623   9.741   9.170
 6348SOL    HW120941   1.674   9.802   9.117
 6348SOL    HW220942   1.533   9.773   9.164
 6349SOL     OW20943  14.007   1.596   2.549
 6349SOL    HW120944  13.973   1.553   2.628
 6349SOL    HW220945  14.099   1.569   2.544
 6350SOL     OW20946   6.353   9.978  14.013
 6350SOL    HW120947   6.302   9.905  14.046
 6350SOL    HW220948   6.374   9.954  13.923
 6351SOL     OW20949  12.022   4.758   0.840
 6351SOL    HW120950  12.027   4.810   0.920
 6351SOL    HW220951  12.109   4.720   0.831
 6352SOL     OW20952  14.176   0.748   2.677
 6352SOL    HW120953  14.204   0.820   2.620
 6352SOL    HW220954  14.147   0.679   2.617
 6353SOL     OW20955  10.669   4.377   0.435
 6353SOL    HW120956  10.611   4.303   0.417
 6353SOL    HW220957  10.652   4.438   0.363
 6354SOL     OW20958  12.034   3.556   5.647
 6354SOL    HW120959  12.024   3.637   5.597
 6354SOL    HW220960  12.036   3.487   5.581
 6355SOL     OW20961   5.736   8.496   6.674
 6355SOL    HW120962   5.653   8.483   6.720
 6355SOL    HW220963   5.798   8.521   6.743
 6356SOL     OW20964   2.366  10.014   5.351
 6356SOL    HW120965   2.366  10.081   5.419
 6356SOL    HW220966   2.381  10.062   5.270
 6357SOL     OW20967   4.616   9.683  12.688
 6357SOL    HW120968   4.686   9.656  12.629
 6357SOL    HW220969   4.646   9.657  12.775
 6358SOL     OW20970   4.441   7.904   9.907
 6358SOL    HW120971   4.516   7.925   9.962
 6358SOL    HW220972   4.462   7.820   9.867
 6359SOL     OW20973   2.026   4.194   9.474
 6359SOL    HW120974   2.006   4.272   9.422
 6359SOL    HW220975   1.965   4.128   9.443
 6360SOL     OW20976  14.648   6.550   5.722
 6360SOL    HW120977  14.722   6.609   5.710
 6360SOL    HW220978  14.688   6.467   5.748
 6361SOL     OW20979   9.206   8.893   7.761
 6361SOL    HW120980   9.148   8.930   7.828
 6361SOL    HW220981   9.247   8.969   7.721
 6362SOL     OW20982  14.612  12.226   9.071
 6362SOL    HW120983  14.582  12.179   8.993
 6362SOL    HW220984  14.562  12.307   9.071
 6363SOL     OW20985  13.146  14.695   7.444
 6363SOL    HW120986  13.158  14.612   7.491
 6363SOL    HW220987  13.110  14.670   7.359
 6364SOL     OW20988   1.274   7.303   0.258
 6364SOL    HW120989   1.314   7.293   0.171
 6364SOL    HW220990   1.347   7.325   0.315
 6365SOL     OW20991  12.133   1.418   8.057
 6365SOL    HW120992  12.042   1.430   8.086
 6365SOL    HW220993  12.126   1.360   7.981
 6366SOL     OW20994   4.225   6.236  11.005
 6366SOL    HW120995   4.312   6.236  10.966
 6366SOL    HW220996   4.236   6.283  11.088
 6367SOL     OW20997   0.150   5.485   8.109
 6367SOL    HW120998   0.061   5.508   8.134
 6367SOL    HW220999   0.199   5.487   8.191
 6368SOL     OW21000  12.081  13.968  10.950
 6368SOL    HW121001  12.006  13.957  10.892
 6368SOL    HW221002  12.153  13.923  10.905
 6369SOL     OW21003   6.500   0.621   3.441
 6369SOL    HW121004   6.521   0.529   3.424
 6369SOL    HW221005   6.510   0.630   3.536
 6370SOL     OW21006   1.473   7.762   1.810
 6370SOL    HW121007   1.492   7.844   1.764
 6370SOL    HW221008   1.378   7.751   1.802
 6371SOL     OW21009   7.403  12.634   3.623
 6371SOL    HW121010   7.446  12.639   3.709
 6371SOL    HW221011   7.325  12.580   3.638
 6372SOL     OW21012  10.810  10.972   5.865
 6372SOL    HW121013  10.744  10.905   5.882
 6372SOL    HW221014  10.820  10.972   5.769
 6373SOL     OW21015  12.243   6.933  10.224
 6373SOL    HW121016  12.162   6.977  10.196
 6373SOL    HW221017  12.308   6.959  10.158
 6374SOL     OW21018  14.774   6.049   5.725
 6374SOL    HW121019  14.695   6.062   5.673
 6374SOL    HW221020  14.763   5.963   5.765
 6375SOL     OW21021  12.183   7.437   4.693
 6375SOL    HW121022  12.129   7.496   4.641
 6375SOL    HW221023  12.169   7.351   4.653
 6376SOL     OW21024   4.408  14.857   2.541
 6376SOL    HW121025   4.478   0.020   2.582
 6376SOL    HW221026   4.437  14.844   2.450
 6377SOL     OW21027   5.073  11.599  13.492
 6377SOL    HW121028   5.004  11.612  13.427
 6377SOL    HW221029   5.139  11.665  13.471
 6378SOL     OW21030   9.218   9.180  11.624
 6378SOL    HW121031   9.242   9.214  11.538
 6378SOL    HW221032   9.277   9.106  11.638
 6379SOL     OW21033  12.167  13.454   2.799
 6379SOL    HW121034  12.169  13.550   2.808
 6379SOL    HW221035  12.167  13.421   2.889
 6380SOL     OW21036   8.569   8.045   8.289
 6380SOL    HW121037   8.638   7.982   8.272
 6380SOL    HW221038   8.569   8.056   8.385
 6381SOL     OW21039   1.141   2.011   4.040
 6381SOL    HW121040   1.127   1.935   4.095
 6381SOL    HW221041   1.108   1.985   3.954
 6382SOL     OW21042   7.966   9.972   7.917
 6382SOL    HW121043   7.951  10.061   7.950
 6382SOL    HW221044   7.878   9.935   7.905
 6383SOL     OW21045   7.456  12.998   4.032
 6383SOL    HW121046   7.363  13.004   4.056
 6383SOL    HW221047   7.502  13.035   4.107
 6384SOL     OW21048   6.153   4.058   4.764
 6384SOL    HW121049   6.138   4.088   4.853
 6384SOL    HW221050   6.076   4.087   4.715
 6385SOL     OW21051  14.184   4.366  13.974
 6385SOL    HW121052  14.233   4.297  14.019
 6385SOL    HW221053  14.143   4.322  13.899
 6386SOL     OW21054   3.084   4.141   9.375
 6386SOL    HW121055   3.036   4.089   9.438
 6386SOL    HW221056   3.054   4.110   9.290
 6387SOL     OW21057   5.667   8.831   6.085
 6387SOL    HW121058   5.690   8.746   6.122
 6387SOL    HW221059   5.735   8.890   6.119
 6388SOL     OW21060  12.405   8.455   0.723
 6388SOL    HW121061  12.466   8.517   0.682
 6388SOL    HW221062  12.447   8.431   0.806
 6389SOL     OW21063   6.293   8.840   7.995
 6389SOL    HW121064   6.364   8.904   7.988
 6389SOL    HW221065   6.222   8.878   7.944
 6390SOL     OW21066   9.183   5.679   9.854
 6390SOL    HW121067   9.118   5.612   9.874
 6390SOL    HW221068   9.242   5.680   9.930
 6391SOL     OW21069  14.774  13.781  11.892
 6391SOL    HW121070  14.864  13.777  11.860
 6391SOL    HW221071  14.724  13.814  11.818
 6392SOL     OW21072   7.917   1.580   8.357
 6392SOL    HW121073   8.013   1.575   8.366
 6392SOL    HW221074   7.903   1.647   8.290
 6393SOL     OW21075   1.794   2.718   0.518
 6393SOL    HW121076   1.748   2.664   0.581
 6393SOL    HW221077   1.885   2.689   0.524
 6394SOL     OW21078  10.831   2.030   9.311
 6394SOL    HW121079  10.855   2.123   9.319
 6394SOL    HW221080  10.767   2.027   9.240
 6395SOL     OW21081  12.729  13.552   5.618
 6395SOL    HW121082  12.667  13.526   5.686
 6395SOL    HW221083  12.815  13.551   5.662
 6396SOL     OW21084   6.324  11.836   2.157
 6396SOL    HW121085   6.404  11.785   2.173
 6396SOL    HW221086   6.253  11.773   2.167
 6397SOL     OW21087  14.195   5.064   9.062
 6397SOL    HW121088  14.219   5.155   9.081
 6397SOL    HW221089  14.161   5.066   8.972
 6398SOL     OW21090   5.628   3.290   8.368
 6398SOL    HW121091   5.606   3.251   8.452
 6398SOL    HW221092   5.546   3.289   8.318
 6399SOL     OW21093   4.655   0.230   1.041
 6399SOL    HW121094   4.677   0.323   1.055
 6399SOL    HW221095   4.564   0.232   1.013
 6400SOL     OW21096  10.047   3.324   2.952
 6400SOL    HW121097   9.953   3.310   2.962
 6400SOL    HW221098  10.087   3.266   3.016
 6401SOL     OW21099   6.711   0.842   8.132
 6401SOL    HW121100   6.726   0.820   8.040
 6401SOL    HW221101   6.640   0.906   8.131
 6402SOL     OW21102  14.575   0.008   4.238
 6402SOL    HW121103  14.655  14.843   4.233
 6402SOL    HW221104  14.546  14.885   4.329
 6403SOL     OW21105  11.698  12.165  14.740
 6403SOL    HW121106  11.758  12.129  14.806
 6403SOL    HW221107  11.734  12.252  14.720
 6404SOL     OW21108  12.848   1.620  14.577
 6404SOL    HW121109  12.909   1.564  14.626
 6404SOL    HW221110  12.848   1.585  14.488
 6405SOL     OW21111   2.138   3.317   8.773
 6405SOL    HW121112   2.143   3.362   8.857
 6405SOL    HW221113   2.173   3.380   8.710
 6406SOL     OW21114   3.990   3.044   7.608
 6406SOL    HW121115   3.964   3.010   7.522
 6406SOL    HW221116   3.943   2.989   7.670
 6407SOL     OW21117  11.018  10.982   7.333
 6407SOL    HW121118  10.997  10.972   7.240
 6407SOL    HW221119  10.963  10.917   7.377
 6408SOL     OW21120   7.627   8.126  12.807
 6408SOL    HW121121   7.696   8.104  12.745
 6408SOL    HW221122   7.554   8.069  12.782
 6409SOL     OW21123   0.704  10.064  11.932
 6409SOL    HW121124   0.768  10.032  11.869
 6409SOL    HW221125   0.619  10.055  11.887
 6410SOL     OW21126  10.046   5.287   7.845
 6410SOL    HW121127  10.072   5.266   7.935
 6410SOL    HW221128  10.072   5.378   7.833
 6411SOL     OW21129   6.279  14.004  10.448
 6411SOL    HW121130   6.230  14.014  10.529
 6411SOL    HW221131   6.264  13.913  10.422
 6412SOL     OW21132   2.967   1.824   6.490
 6412SOL    HW121133   2.891   1.819   6.432
 6412SOL    HW221134   2.974   1.916   6.513
 6413SOL     OW21135  14.691   9.938  12.079
 6413SOL    HW121136  14.689   9.916  11.986
 6413SOL    HW221137  14.618   9.998  12.091
 6414SOL     OW21138   2.304  10.112  11.166
 6414SOL    HW121139   2.336  10.196  11.133
 6414SOL    HW221140   2.241  10.084  11.100
 6415SOL     OW21141  10.877   9.227   2.934
 6415SOL    HW121142  10.803   9.270   2.978
 6415SOL    HW221143  10.919   9.297   2.884
 6416SOL     OW21144   9.450   9.132   2.027
 6416SOL    HW121145   9.504   9.178   1.962
 6416SOL    HW221146   9.405   9.202   2.075
 6417SOL     OW21147   7.241   3.043   4.812
 6417SOL    HW121148   7.233   3.133   4.844
 6417SOL    HW221149   7.335   3.032   4.795
 6418SOL     OW21150   4.676  11.112   0.272
 6418SOL    HW121151   4.756  11.139   0.317
 6418SOL    HW221152   4.699  11.116   0.179
 6419SOL     OW21153  13.026  11.002  12.205
 6419SOL    HW121154  13.115  11.028  12.184
 6419SOL    HW221155  12.988  10.977  12.121
 6420SOL     OW21156   1.759  14.355   3.363
 6420SOL    HW121157   1.696  14.312   3.305
 6420SOL    HW221158   1.772  14.442   3.325
 6421SOL     OW21159   6.987   3.509   9.150
 6421SOL    HW121160   6.899   3.501   9.114
 6421SOL    HW221161   7.045   3.506   9.074
 6422SOL     OW21162  13.603   7.754   7.587
 6422SOL    HW121163  13.658   7.792   7.519
 6422SOL    HW221164  13.514   7.765   7.555
 6423SOL     OW21165  13.801   9.113  12.876
 6423SOL    HW121166  13.761   9.076  12.955
 6423SOL    HW221167  13.761   9.064  12.804
 6424SOL     OW21168  11.862  11.061   2.262
 6424SOL    HW121169  11.779  11.015   2.272
 6424SOL    HW221170  11.905  11.017   2.189
 6425SOL     OW21171   3.729   2.745  14.371
 6425SOL    HW121172   3.709   2.831  14.334
 6425SOL    HW221173   3.738   2.688  14.295
 6426SOL     OW21174   5.650   1.481   0.779
 6426SOL    HW121175   5.655   1.472   0.683
 6426SOL    HW221176   5.563   1.449   0.801
 6427SOL     OW21177  13.207  13.972   3.287
 6427SOL    HW121178  13.124  13.928   3.266
 6427SOL    HW221179  13.270  13.901   3.296
 6428SOL     OW21180   0.391  12.971  11.406
 6428SOL    HW121181   0.320  13.036  11.403
 6428SOL    HW221182   0.376  12.923  11.487
 6429SOL     OW21183  11.185   2.998   8.670
 6429SOL    HW121184  11.106   3.044   8.640
 6429SOL    HW221185  11.225   2.964   8.590
 6430SOL     OW21186   4.998  11.784  13.874
 6430SOL    HW121187   4.929  11.802  13.811
 6430SOL    HW221188   4.979  11.841  13.948
 6431SOL     OW21189  11.445  14.788   8.588
 6431SOL    HW121190  11.394  14.867   8.570
 6431SOL    HW221191  11.394  14.742   8.655
 6432SOL     OW21192  12.383   0.590  13.808
 6432SOL    HW121193  12.424   0.674  13.829
 6432SOL    HW221194  12.448   0.543  13.756
 6433SOL     OW21195   3.238   2.551   1.589
 6433SOL    HW121196   3.215   2.467   1.550
 6433SOL    HW221197   3.292   2.528   1.665
 6434SOL     OW21198   4.346  11.077   9.144
 6434SOL    HW121199   4.421  11.021   9.163
 6434SOL    HW221200   4.270  11.020   9.157
 6435SOL     OW21201  11.812   1.517   1.464
 6435SOL    HW121202  11.902   1.499   1.492
 6435SOL    HW221203  11.763   1.529   1.545
 6436SOL     OW21204   5.249   2.431  14.167
 6436SOL    HW121205   5.320   2.385  14.212
 6436SOL    HW221206   5.251   2.519  14.205
 6437SOL     OW21207  12.711  14.502   1.589
 6437SOL    HW121208  12.729  14.595   1.579
 6437SOL    HW221209  12.793  14.458   1.566
 6438SOL     OW21210   0.770  10.935   3.862
 6438SOL    HW121211   0.815  10.965   3.783
 6438SOL    HW221212   0.819  10.974   3.934
 6439SOL     OW21213  13.248   9.573   6.154
 6439SOL    HW121214  13.324   9.518   6.134
 6439SOL    HW221215  13.172   9.519   6.131
 6440SOL     OW21216   5.096   3.310  12.033
 6440SOL    HW121217   5.128   3.393  12.067
 6440SOL    HW221218   5.084   3.326  11.939
 6441SOL     OW21219  13.811   8.743  13.407
 6441SOL    HW121220  13.876   8.797  13.453
 6441SOL    HW221221  13.758   8.705  13.477
 6442SOL     OW21222   7.127   4.051   7.903
 6442SOL    HW121223   7.144   4.095   7.986
 6442SOL    HW221224   7.145   3.958   7.921
 6443SOL     OW21225  14.291   2.857  14.743
 6443SOL    HW121226  14.315   2.864  14.835
 6443SOL    HW221227  14.201   2.825  14.744
 6444SOL     OW21228   0.695  10.706   2.784
 6444SOL    HW121229   0.709  10.801   2.782
 6444SOL    HW221230   0.781  10.669   2.766
 6445SOL     OW21231  13.236   3.259   0.598
 6445SOL    HW121232  13.165   3.241   0.536
 6445SOL    HW221233  13.297   3.314   0.549
 6446SOL     OW21234   5.166   0.757   2.092
 6446SOL    HW121235   5.197   0.676   2.050
 6446SOL    HW221236   5.089   0.782   2.041
 6447SOL     OW21237   9.435   3.709   3.581
 6447SOL    HW121238   9.434   3.639   3.647
 6447SOL    HW221239   9.507   3.766   3.608
 6448SOL     OW21240   7.633   6.394   1.104
 6448SOL    HW121241   7.657   6.487   1.103
 6448SOL    HW221242   7.662   6.361   1.019
 6449SOL     OW21243  11.208   4.755   9.121
 6449SOL    HW121244  11.248   4.842   9.112
 6449SOL    HW221245  11.282   4.696   9.133
 6450SOL     OW21246   2.765   2.873  13.805
 6450SOL    HW121247   2.696   2.911  13.752
 6450SOL    HW221248   2.739   2.890  13.896
 6451SOL     OW21249  14.778  11.533   7.322
 6451SOL    HW121250  14.774  11.612   7.267
 6451SOL    HW221251  14.864  11.495   7.302
 6452SOL     OW21252  12.809  10.813   1.372
 6452SOL    HW121253  12.787  10.724   1.344
 6452SOL    HW221254  12.779  10.817   1.463
 6453SOL     OW21255   3.999   6.429   8.719
 6453SOL    HW121256   3.929   6.486   8.752
 6453SOL    HW221257   4.080   6.470   8.751
 6454SOL     OW21258   0.304   3.813   2.962
 6454SOL    HW121259   0.382   3.864   2.942
 6454SOL    HW221260   0.311   3.736   2.906
 6455SOL     OW21261   4.381   6.997   9.762
 6455SOL    HW121262   4.302   6.976   9.811
 6455SOL    HW221263   4.453   6.973   9.821
 6456SOL     OW21264   5.118   6.327   7.634
 6456SOL    HW121265   5.112   6.405   7.689
 6456SOL    HW221266   5.050   6.339   7.568
 6457SOL     OW21267  13.641   0.320   9.448
 6457SOL    HW121268  13.572   0.369   9.403
 6457SOL    HW221269  13.720   0.373   9.436
 6458SOL     OW21270   0.151  10.268  13.015
 6458SOL    HW121271   0.176  10.331  12.947
 6458SOL    HW221272   0.076  10.222  12.978
 6459SOL     OW21273   5.407  10.010  12.824
 6459SOL    HW121274   5.478   9.957  12.788
 6459SOL    HW221275   5.450  10.090  12.855
 6460SOL     OW21276   4.956  11.399  13.680
 6460SOL    HW121277   5.034  11.364  13.723
 6460SOL    HW221278   4.990  11.444  13.602
 6461SOL     OW21279   4.126   2.709   3.192
 6461SOL    HW121280   4.115   2.705   3.098
 6461SOL    HW221281   4.219   2.729   3.204
 6462SOL     OW21282  10.841   0.784   5.575
 6462SOL    HW121283  10.827   0.874   5.548
 6462SOL    HW221284  10.792   0.775   5.657
 6463SOL     OW21285  12.746   5.120  14.820
 6463SOL    HW121286  12.809   5.084  14.882
 6463SOL    HW221287  12.668   5.137  14.871
 6464SOL     OW21288   6.812   1.713   9.579
 6464SOL    HW121289   6.883   1.769   9.609
 6464SOL    HW221290   6.853   1.629   9.562
 6465SOL     OW21291   0.529  13.177  10.190
 6465SOL    HW121292   0.436  13.174  10.170
 6465SOL    HW221293   0.545  13.099  10.244
 6466SOL     OW21294  11.172  10.474   3.933
 6466SOL    HW121295  11.142  10.552   3.980
 6466SOL    HW221296  11.249  10.504   3.884
 6467SOL     OW21297   4.512   4.687   7.106
 6467SOL    HW121298   4.446   4.617   7.109
 6467SOL    HW221299   4.470   4.761   7.150
 6468SOL     OW21300  10.381  12.079   3.139
 6468SOL    HW121301  10.429  12.159   3.119
 6468SOL    HW221302  10.290  12.108   3.146
 6469SOL     OW21303   3.489   2.383  10.780
 6469SOL    HW121304   3.504   2.453  10.843
 6469SOL    HW221305   3.565   2.386  10.722
 6470SOL     OW21306  12.162   7.986   1.701
 6470SOL    HW121307  12.105   7.971   1.626
 6470SOL    HW221308  12.110   7.959   1.777
 6471SOL     OW21309  10.071   3.168   6.874
 6471SOL    HW121310  10.135   3.101   6.898
 6471SOL    HW221311   9.986   3.126   6.889
 6472SOL     OW21312   1.286  12.554   7.643
 6472SOL    HW121313   1.322  12.466   7.658
 6472SOL    HW221314   1.361  12.612   7.652
 6473SOL     OW21315   3.955   1.946   2.097
 6473SOL    HW121316   4.039   1.902   2.085
 6473SOL    HW221317   3.975   2.022   2.151
 6474SOL     OW21318   7.824   5.819   2.906
 6474SOL    HW121319   7.754   5.871   2.865
 6474SOL    HW221320   7.778   5.763   2.969
 6475SOL     OW21321   3.005   0.927   1.914
 6475SOL    HW121322   2.914   0.900   1.900
 6475SOL    HW221323   3.022   0.990   1.844
 6476SOL     OW21324   8.614  12.443  11.773
 6476SOL    HW121325   8.598  12.447  11.868
 6476SOL    HW221326   8.662  12.361  11.761
 6477SOL     OW21327  12.670   6.937  14.052
 6477SOL    HW121328  12.663   7.004  13.984
 6477SOL    HW221329  12.650   6.983  14.133
 6478SOL     OW21330   7.887  10.968  10.495
 6478SOL    HW121331   7.829  11.018  10.553
 6478SOL    HW221332   7.830  10.932  10.428
 6479SOL     OW21333   5.742   0.582  12.584
 6479SOL    HW121334   5.751   0.493  12.617
 6479SOL    HW221335   5.741   0.636  12.663
 6480SOL     OW21336   1.611   0.847   0.609
 6480SOL    HW121337   1.684   0.900   0.641
 6480SOL    HW221338   1.535   0.880   0.656
 6481SOL     OW21339   0.112   3.245  10.755
 6481SOL    HW121340   0.126   3.327  10.709
 6481SOL    HW221341   0.187   3.236  10.814
 6482SOL     OW21342  13.934  12.742   2.254
 6482SOL    HW121343  13.871  12.810   2.278
 6482SOL    HW221344  13.958  12.762   2.164
 6483SOL     OW21345   7.755   3.461  14.756
 6483SOL    HW121346   7.801   3.411  14.688
 6483SOL    HW221347   7.823   3.483  14.820
 6484SOL     OW21348   6.511   4.591   5.839
 6484SOL    HW121349   6.454   4.651   5.887
 6484SOL    HW221350   6.533   4.639   5.759
 6485SOL     OW21351   9.141  14.543  12.111
 6485SOL    HW121352   9.229  14.572  12.135
 6485SOL    HW221353   9.107  14.613  12.055
 6486SOL     OW21354   2.357  11.716   0.555
 6486SOL    HW121355   2.312  11.723   0.640
 6486SOL    HW221356   2.430  11.656   0.571
 6487SOL     OW21357   0.211   9.918  12.660
 6487SOL    HW121358   0.169  10.004  12.662
 6487SOL    HW221359   0.302   9.937  12.638
 6488SOL     OW21360   1.562   8.051   8.122
 6488SOL    HW121361   1.539   7.992   8.050
 6488SOL    HW221362   1.508   8.129   8.107
 6489SOL     OW21363   4.536   3.311  11.009
 6489SOL    HW121364   4.454   3.263  10.994
 6489SOL    HW221365   4.528   3.390  10.955
 6490SOL     OW21366   6.538   4.475  12.322
 6490SOL    HW121367   6.589   4.395  12.331
 6490SOL    HW221368   6.461   4.449  12.271
 6491SOL     OW21369  12.218   1.034   9.810
 6491SOL    HW121370  12.219   1.127   9.787
 6491SOL    HW221371  12.145   0.998   9.760
 6492SOL     OW21372   0.404  12.128   1.750
 6492SOL    HW121373   0.423  12.211   1.793
 6492SOL    HW221374   0.381  12.152   1.660
 6493SOL     OW21375   4.422  11.060   9.877
 6493SOL    HW121376   4.454  11.064   9.787
 6493SOL    HW221377   4.395  10.968   9.889
 6494SOL     OW21378   9.489   5.030  10.750
 6494SOL    HW121379   9.519   4.992  10.668
 6494SOL    HW221380   9.469   5.121  10.728
 6495SOL     OW21381   8.540   6.221   0.487
 6495SOL    HW121382   8.577   6.309   0.484
 6495SOL    HW221383   8.518   6.206   0.579
 6496SOL     OW21384  12.636   5.242  10.324
 6496SOL    HW121385  12.723   5.277  10.305
 6496SOL    HW221386  12.654   5.160  10.372
 6497SOL     OW21387   0.214  12.260  13.316
 6497SOL    HW121388   0.206  12.263  13.411
 6497SOL    HW221389   0.258  12.342  13.293
 6498SOL     OW21390  10.962  13.779   8.724
 6498SOL    HW121391  10.978  13.749   8.634
 6498SOL    HW221392  10.911  13.709   8.764
 6499SOL     OW21393   5.312   2.277   1.151
 6499SOL    HW121394   5.259   2.237   1.220
 6499SOL    HW221395   5.376   2.210   1.127
 6500SOL     OW21396   0.562   5.667   2.168
 6500SOL    HW121397   0.494   5.605   2.196
 6500SOL    HW221398   0.609   5.620   2.099
 6501SOL     OW21399   5.944   3.703   6.008
 6501SOL    HW121400   5.896   3.729   6.087
 6501SOL    HW221401   5.991   3.623   6.034
 6502SOL     OW21402   8.971  12.835  10.342
 6502SOL    HW121403   8.968  12.883  10.259
 6502SOL    HW221404   8.984  12.744  10.317
 6503SOL     OW21405   1.271  11.992   5.975
 6503SOL    HW121406   1.319  11.924   5.928
 6503SOL    HW221407   1.180  11.983   5.946
 6504SOL     OW21408  12.717   4.702   5.391
 6504SOL    HW121409  12.787   4.674   5.450
 6504SOL    HW221410  12.651   4.740   5.449
 6505SOL     OW21411   0.420  14.875   0.694
 6505SOL    HW121412   0.403   0.003   0.601
 6505SOL    HW221413   0.489  14.810   0.695
 6506SOL     OW21414   1.359  12.709  13.728
 6506SOL    HW121415   1.431  12.676  13.673
 6506SOL    HW221416   1.280  12.685  13.679
 6507SOL     OW21417   1.041   6.024  14.805
 6507SOL    HW121418   1.014   5.949  14.857
 6507SOL    HW221419   1.078   6.085  14.869
 6508SOL     OW21420   6.652  10.341   8.507
 6508SOL    HW121421   6.705  10.403   8.456
 6508SOL    HW221422   6.633  10.386   8.589
 6509SOL     OW21423   8.668   8.584   9.394
 6509SOL    HW121424   8.744   8.643   9.389
 6509SOL    HW221425   8.596   8.635   9.358
 6510SOL     OW21426   8.329   3.890   8.243
 6510SOL    HW121427   8.265   3.931   8.185
 6510SOL    HW221428   8.276   3.849   8.311
 6511SOL     OW21429   3.616   9.328  11.591
 6511SOL    HW121430   3.553   9.269  11.550
 6511SOL    HW221431   3.571   9.360  11.669
 6512SOL     OW21432   6.447  10.340   4.301
 6512SOL    HW121433   6.466  10.351   4.394
 6512SOL    HW221434   6.354  10.314   4.298
 6513SOL     OW21435   9.489   3.132   6.513
 6513SOL    HW121436   9.533   3.215   6.534
 6513SOL    HW221437   9.397   3.148   6.535
 6514SOL     OW21438   4.082   5.601   7.885
 6514SOL    HW121439   4.060   5.655   7.809
 6514SOL    HW221440   4.175   5.579   7.872
 6515SOL     OW21441  14.071  14.679   0.529
 6515SOL    HW121442  14.003  14.611   0.523
 6515SOL    HW221443  14.077  14.713   0.440
 6516SOL     OW21444   1.780   6.454   6.420
 6516SOL    HW121445   1.788   6.491   6.332
 6516SOL    HW221446   1.686   6.435   6.429
 6517SOL     OW21447   1.920   8.360   6.933
 6517SOL    HW121448   2.000   8.312   6.957
 6517SOL    HW221449   1.925   8.441   6.984
 6518SOL     OW21450  10.903   5.653  11.103
 6518SOL    HW121451  10.904   5.714  11.176
 6518SOL    HW221452  10.968   5.688  11.041
 6519SOL     OW21453   4.471  12.649   8.167
 6519SOL    HW121454   4.478  12.730   8.217
 6519SOL    HW221455   4.556  12.640   8.124
 6520SOL     OW21456   5.455   9.927   7.015
 6520SOL    HW121457   5.540   9.891   6.990
 6520SOL    HW221458   5.449   9.911   7.109
 6521SOL     OW21459   2.249   3.911   3.524
 6521SOL    HW121460   2.332   3.948   3.492
 6521SOL    HW221461   2.273   3.825   3.559
 6522SOL     OW21462   9.659   5.307  10.713
 6522SOL    HW121463   9.725   5.241  10.695
 6522SOL    HW221464   9.606   5.312  10.633
 6523SOL     OW21465  11.793   9.588   3.179
 6523SOL    HW121466  11.792   9.669   3.128
 6523SOL    HW221467  11.882   9.583   3.214
 6524SOL     OW21468  10.567   0.573   1.308
 6524SOL    HW121469  10.601   0.562   1.220
 6524SOL    HW221470  10.618   0.644   1.346
 6525SOL     OW21471   3.429  12.895  13.500
 6525SOL    HW121472   3.365  12.830  13.472
 6525SOL    HW221473   3.391  12.933  13.580
 6526SOL     OW21474   0.076  12.285   6.121
 6526SOL    HW121475  14.877  12.303   6.157
 6526SOL    HW221476   0.077  12.329   6.037
 6527SOL     OW21477   5.523   0.782  11.004
 6527SOL    HW121478   5.600   0.726  11.006
 6527SOL    HW221479   5.503   0.793  10.911
 6528SOL     OW21480   3.168   4.203   2.093
 6528SOL    HW121481   3.211   4.174   2.173
 6528SOL    HW221482   3.081   4.230   2.120
 6529SOL     OW21483  11.182   8.770   7.595
 6529SOL    HW121484  11.242   8.825   7.545
 6529SOL    HW221485  11.190   8.683   7.556
 6530SOL     OW21486  12.674   8.461   5.447
 6530SOL    HW121487  12.658   8.443   5.355
 6530SOL    HW221488  12.764   8.433   5.462
 6531SOL     OW21489   5.969   7.221  13.272
 6531SOL    HW121490   5.940   7.310  13.288
 6531SOL    HW221491   6.065   7.226  13.275
 6532SOL     OW21492   1.228   8.124   9.273
 6532SOL    HW121493   1.250   8.153   9.361
 6532SOL    HW221494   1.157   8.182   9.245
 6533SOL     OW21495  10.539  11.007   9.575
 6533SOL    HW121496  10.625  11.047   9.587
 6533SOL    HW221497  10.552  10.916   9.603
 6534SOL     OW21498  11.379   4.799   8.655
 6534SOL    HW121499  11.441   4.754   8.712
 6534SOL    HW221500  11.362   4.737   8.584
 6535SOL     OW21501   8.468  11.685  13.120
 6535SOL    HW121502   8.378  11.717  13.112
 6535SOL    HW221503   8.467  11.600  13.077
 6536SOL     OW21504   0.229   9.055  11.585
 6536SOL    HW121505   0.276   8.978  11.556
 6536SOL    HW221506   0.138   9.040  11.558
 6537SOL     OW21507   0.888  11.446  10.081
 6537SOL    HW121508   0.883  11.523  10.137
 6537SOL    HW221509   0.810  11.450  10.026
 6538SOL     OW21510   2.040   0.589  12.964
 6538SOL    HW121511   2.061   0.546  13.046
 6538SOL    HW221512   1.945   0.601  12.966
 6539SOL     OW21513  13.890   5.691   1.267
 6539SOL    HW121514  13.811   5.740   1.288
 6539SOL    HW221515  13.891   5.618   1.330
 6540SOL     OW21516  14.699  12.662  12.035
 6540SOL    HW121517  14.700  12.676  12.129
 6540SOL    HW221518  14.611  12.688  12.007
 6541SOL     OW21519   9.806   9.275   7.226
 6541SOL    HW121520   9.847   9.332   7.161
 6541SOL    HW221521   9.846   9.189   7.212
 6542SOL     OW21522  12.214  10.566   9.174
 6542SOL    HW121523  12.226  10.574   9.268
 6542SOL    HW221524  12.259  10.642   9.137
 6543SOL     OW21525   3.674  14.245  10.020
 6543SOL    HW121526   3.631  14.171  10.062
 6543SOL    HW221527   3.714  14.294  10.092
 6544SOL     OW21528  13.694   8.125   7.512
 6544SOL    HW121529  13.629   8.089   7.452
 6544SOL    HW221530  13.650   8.128   7.597
 6545SOL     OW21531  12.131   2.784   8.489
 6545SOL    HW121532  12.082   2.753   8.413
 6545SOL    HW221533  12.205   2.723   8.495
 6546SOL     OW21534  14.264   9.669   3.945
 6546SOL    HW121535  14.282   9.763   3.936
 6546SOL    HW221536  14.332   9.627   3.892
 6547SOL     OW21537   0.730   4.928   1.334
 6547SOL    HW121538   0.787   4.991   1.379
 6547SOL    HW221539   0.663   4.982   1.293
 6548SOL     OW21540  11.514   4.309   9.504
 6548SOL    HW121541  11.466   4.352   9.434
 6548SOL    HW221542  11.583   4.260   9.458
 6549SOL     OW21543  12.362  12.204   7.672
 6549SOL    HW121544  12.267  12.209   7.679
 6549SOL    HW221545  12.384  12.262   7.599
 6550SOL     OW21546   9.822   4.365   9.245
 6550SOL    HW121547   9.790   4.308   9.315
 6550SOL    HW221548   9.743   4.394   9.200
 6551SOL     OW21549   5.180   5.196   2.381
 6551SOL    HW121550   5.171   5.114   2.429
 6551SOL    HW221551   5.101   5.202   2.328
 6552SOL     OW21552  14.826  11.684   5.928
 6552SOL    HW121553  14.795  11.657   6.014
 6552SOL    HW221554  14.752  11.730   5.889
 6553SOL     OW21555   2.735   9.001   5.617
 6553SOL    HW121556   2.812   8.994   5.561
 6553SOL    HW221557   2.670   9.048   5.563
 6554SOL     OW21558   8.151   3.360   2.974
 6554SOL    HW121559   8.117   3.409   3.048
 6554SOL    HW221560   8.101   3.392   2.899
 6555SOL     OW21561   2.372   1.905   6.471
 6555SOL    HW121562   2.320   1.859   6.537
 6555SOL    HW221563   2.458   1.865   6.476
 6556SOL     OW21564   8.914   4.883   8.775
 6556SOL    HW121565   8.949   4.842   8.854
 6556SOL    HW221566   8.940   4.825   8.704
 6557SOL     OW21567   7.601   6.143   0.510
 6557SOL    HW121568   7.529   6.197   0.541
 6557SOL    HW221569   7.561   6.059   0.486
 6558SOL     OW21570  12.106   3.452   4.682
 6558SOL    HW121571  12.175   3.427   4.620
 6558SOL    HW221572  12.091   3.545   4.664
 6559SOL     OW21573   9.883   9.686  13.483
 6559SOL    HW121574   9.890   9.596  13.516
 6559SOL    HW221575   9.882   9.741  13.561
 6560SOL     OW21576   0.630   3.148   2.829
 6560SOL    HW121577   0.666   3.135   2.741
 6560SOL    HW221578   0.706   3.173   2.882
 6561SOL     OW21579   5.732   4.458  12.891
 6561SOL    HW121580   5.769   4.528  12.838
 6561SOL    HW221581   5.640   4.454  12.865
 6562SOL     OW21582  13.053   5.892   6.796
 6562SOL    HW121583  13.049   5.814   6.740
 6562SOL    HW221584  13.019   5.863   6.881
 6563SOL     OW21585  10.467   2.501   9.581
 6563SOL    HW121586  10.478   2.547   9.498
 6563SOL    HW221587  10.431   2.568   9.640
 6564SOL     OW21588  13.947   4.528  13.445
 6564SOL    HW121589  13.852   4.538  13.455
 6564SOL    HW221590  13.973   4.598  13.385
 6565SOL     OW21591   1.658  13.229   8.714
 6565SOL    HW121592   1.729  13.191   8.664
 6565SOL    HW221593   1.609  13.154   8.747
 6566SOL     OW21594   2.532  10.851   7.327
 6566SOL    HW121595   2.526  10.875   7.234
 6566SOL    HW221596   2.445  10.871   7.362
 6567SOL     OW21597   5.155   9.621   6.472
 6567SOL    HW121598   5.247   9.638   6.494
 6567SOL    HW221599   5.105   9.662   6.543
 6568SOL     OW21600   7.034   0.907   9.817
 6568SOL    HW121601   6.961   0.926   9.757
 6568SOL    HW221602   7.104   0.875   9.760
 6569SOL     OW21603   8.834  11.868   8.329
 6569SOL    HW121604   8.877  11.837   8.249
 6569SOL    HW221605   8.760  11.809   8.341
 6570SOL     OW21606   5.343   8.390  10.961
 6570SOL    HW121607   5.340   8.296  10.978
 6570SOL    HW221608   5.266   8.408  10.907
 6571SOL     OW21609  13.335  11.544   2.574
 6571SOL    HW121610  13.348  11.509   2.663
 6571SOL    HW221611  13.415  11.595   2.557
 6572SOL     OW21612  12.911   1.513   3.772
 6572SOL    HW121613  12.933   1.478   3.686
 6572SOL    HW221614  12.965   1.463   3.834
 6573SOL     OW21615   4.131  13.778   5.546
 6573SOL    HW121616   4.181  13.781   5.464
 6573SOL    HW221617   4.175  13.841   5.602
 6574SOL     OW21618   4.180   7.034   4.815
 6574SOL    HW121619   4.087   7.014   4.828
 6574SOL    HW221620   4.214   7.047   4.903
 6575SOL     OW21621   6.503  10.462  14.076
 6575SOL    HW121622   6.534  10.389  14.023
 6575SOL    HW221623   6.423  10.430  14.117
 6576SOL     OW21624   9.510   2.804   8.772
 6576SOL    HW121625   9.523   2.845   8.687
 6576SOL    HW221626   9.490   2.876   8.831
 6577SOL     OW21627   3.823  12.077   1.155
 6577SOL    HW121628   3.879  12.153   1.142
 6577SOL    HW221629   3.877  12.002   1.129
 6578SOL     OW21630   0.132  11.221   7.408
 6578SOL    HW121631   0.053  11.210   7.355
 6578SOL    HW221632   0.107  11.286   7.474
 6579SOL     OW21633   0.406   3.992  11.597
 6579SOL    HW121634   0.426   4.081  11.568
 6579SOL    HW221635   0.491   3.949  11.602
 6580SOL     OW21636   3.714   2.059   6.688
 6580SOL    HW121637   3.650   1.988   6.692
 6580SOL    HW221638   3.798   2.014   6.679
 6581SOL     OW21639   3.462  12.604  13.519
 6581SOL    HW121640   3.378  12.622  13.562
 6581SOL    HW221641   3.515  12.682  13.535
 6582SOL     OW21642  10.423   6.686   2.704
 6582SOL    HW121643  10.402   6.623   2.772
 6582SOL    HW221644  10.360   6.757   2.716
 6583SOL     OW21645   1.622   1.612   5.456
 6583SOL    HW121646   1.666   1.617   5.541
 6583SOL    HW221647   1.547   1.555   5.472
 6584SOL     OW21648   4.081   4.423   2.211
 6584SOL    HW121649   4.101   4.330   2.201
 6584SOL    HW221650   4.028   4.444   2.133
 6585SOL     OW21651   5.379   8.315   9.417
 6585SOL    HW121652   5.459   8.304   9.365
 6585SOL    HW221653   5.329   8.235   9.401
 6586SOL     OW21654   2.825   8.924  12.369
 6586SOL    HW121655   2.851   8.859  12.434
 6586SOL    HW221656   2.836   8.880  12.285
 6587SOL     OW21657  14.341   3.419   5.304
 6587SOL    HW121658  14.397   3.468   5.365
 6587SOL    HW221659  14.252   3.446   5.327
 6588SOL     OW21660  11.396   7.671   7.237
 6588SOL    HW121661  11.420   7.610   7.307
 6588SOL    HW221662  11.306   7.648   7.215
 6589SOL     OW21663   5.682   0.334   1.952
 6589SOL    HW121664   5.728   0.270   1.899
 6589SOL    HW221665   5.612   0.367   1.896
 6590SOL     OW21666  14.018   1.025  13.454
 6590SOL    HW121667  14.112   1.023  13.434
 6590SOL    HW221668  13.990   1.112  13.426
 6591SOL     OW21669   8.983   8.962   0.223
 6591SOL    HW121670   8.970   8.974   0.317
 6591SOL    HW221671   8.971   8.868   0.209
 6592SOL     OW21672   9.091  12.743   9.524
 6592SOL    HW121673   9.076  12.650   9.507
 6592SOL    HW221674   9.124  12.778   9.441
 6593SOL     OW21675   4.433   9.020   9.771
 6593SOL    HW121676   4.415   9.013   9.865
 6593SOL    HW221677   4.454   8.931   9.744
 6594SOL     OW21678  10.241  11.318   3.280
 6594SOL    HW121679  10.315  11.355   3.328
 6594SOL    HW221680  10.186  11.279   3.347
 6595SOL     OW21681   1.457   0.822  14.721
 6595SOL    HW121682   1.417   0.746  14.763
 6595SOL    HW221683   1.393   0.892  14.732
 6596SOL     OW21684   7.216   1.649  10.262
 6596SOL    HW121685   7.215   1.570  10.207
 6596SOL    HW221686   7.143   1.702  10.229
 6597SOL     OW21687   3.599   0.017   6.351
 6597SOL    HW121688   3.612  14.883   6.259
 6597SOL    HW221689   3.518   0.068   6.352
 6598SOL     OW21690  14.232  12.675   8.150
 6598SOL    HW121691  14.256  12.702   8.239
 6598SOL    HW221692  14.142  12.707   8.139
 6599SOL     OW21693   3.760  11.935  10.514
 6599SOL    HW121694   3.835  11.956  10.570
 6599SOL    HW221695   3.740  12.017  10.468
 6600SOL     OW21696  11.322   6.261  13.140
 6600SOL    HW121697  11.326   6.196  13.210
 6600SOL    HW221698  11.308   6.211  13.060
 6601SOL     OW21699   9.778   9.036  13.116
 6601SOL    HW121700   9.847   8.998  13.061
 6601SOL    HW221701   9.713   9.069  13.054
 6602SOL     OW21702  14.579  13.138   4.680
 6602SOL    HW121703  14.639  13.202   4.641
 6602SOL    HW221704  14.551  13.178   4.762
 6603SOL     OW21705  10.182   1.045   6.077
 6603SOL    HW121706  10.197   1.140   6.083
 6603SOL    HW221707  10.096   1.037   6.037
 6604SOL     OW21708   3.326  11.113   3.407
 6604SOL    HW121709   3.302  11.053   3.337
 6604SOL    HW221710   3.380  11.179   3.365
 6605SOL     OW21711  12.967   6.414   2.058
 6605SOL    HW121712  12.909   6.338   2.050
 6605SOL    HW221713  12.993   6.415   2.150
 6606SOL     OW21714   0.386   4.789   3.978
 6606SOL    HW121715   0.478   4.817   3.982
 6606SOL    HW221716   0.352   4.810   4.065
 6607SOL     OW21717   4.090   6.555   0.447
 6607SOL    HW121718   4.013   6.511   0.482
 6607SOL    HW221719   4.073   6.648   0.460
 6608SOL     OW21720   5.488  10.393  13.490
 6608SOL    HW121721   5.456  10.347  13.568
 6608SOL    HW221722   5.417  10.453  13.468
 6609SOL     OW21723   6.283   1.787   5.532
 6609SOL    HW121724   6.211   1.731   5.563
 6609SOL    HW221725   6.344   1.727   5.490
 6610SOL     OW21726   6.408   8.248   2.376
 6610SOL    HW121727   6.360   8.278   2.298
 6610SOL    HW221728   6.385   8.156   2.384
 6611SOL     OW21729   1.961   9.452   2.231
 6611SOL    HW121730   1.897   9.505   2.279
 6611SOL    HW221731   2.045   9.472   2.273
 6612SOL     OW21732   4.221   4.024  13.274
 6612SOL    HW121733   4.281   4.036  13.348
 6612SOL    HW221734   4.197   4.113  13.247
 6613SOL     OW21735  13.897   9.154   3.906
 6613SOL    HW121736  13.848   9.169   3.826
 6613SOL    HW221737  13.856   9.213   3.970
 6614SOL     OW21738  14.776  11.874   8.241
 6614SOL    HW121739  14.692  11.915   8.259
 6614SOL    HW221740  14.827  11.942   8.196
 6615SOL     OW21741   7.227   5.593   6.930
 6615SOL    HW121742   7.197   5.503   6.932
 6615SOL    HW221743   7.169   5.637   6.868
 6616SOL     OW21744   3.329   5.805  10.439
 6616SOL    HW121745   3.275   5.809  10.360
 6616SOL    HW221746   3.283   5.861  10.502
 6617SOL     OW21747   7.401   7.296   0.629
 6617SOL    HW121748   7.393   7.223   0.568
 6617SOL    HW221749   7.487   7.286   0.669
 6618SOL     OW21750   8.184   7.668   7.559
 6618SOL    HW121751   8.177   7.672   7.654
 6618SOL    HW221752   8.149   7.752   7.528
 6619SOL     OW21753   1.401  10.937   2.868
 6619SOL    HW121754   1.394  10.955   2.775
 6619SOL    HW221755   1.398  11.023   2.910
 6620SOL     OW21756  10.827   7.928  11.305
 6620SOL    HW121757  10.822   7.983  11.384
 6620SOL    HW221758  10.913   7.888  11.309
 6621SOL     OW21759   7.273   2.721   8.088
 6621SOL    HW121760   7.245   2.631   8.103
 6621SOL    HW221761   7.228   2.748   8.008
 6622SOL     OW21762   5.512   6.674   1.449
 6622SOL    HW121763   5.426   6.634   1.440
 6622SOL    HW221764   5.573   6.601   1.452
 6623SOL     OW21765   5.582  13.356   8.859
 6623SOL    HW121766   5.599  13.333   8.768
 6623SOL    HW221767   5.665  13.344   8.903
 6624SOL     OW21768  14.792   3.403   4.664
 6624SOL    HW121769  14.836   3.455   4.597
 6624SOL    HW221770  14.785   3.463   4.739
 6625SOL     OW21771   2.794  12.365   1.762
 6625SOL    HW121772   2.801  12.271   1.746
 6625SOL    HW221773   2.722  12.393   1.706
 6626SOL     OW21774   2.138  11.640   1.641
 6626SOL    HW121775   2.200  11.653   1.713
 6626SOL    HW221776   2.108  11.549   1.650
 6627SOL     OW21777   6.477   6.047   0.105
 6627SOL    HW121778   6.505   6.106   0.035
 6627SOL    HW221779   6.555   6.037   0.161
 6628SOL     OW21780  13.982   2.585   4.107
 6628SOL    HW121781  13.931   2.511   4.141
 6628SOL    HW221782  14.028   2.619   4.183
 6629SOL     OW21783   4.298   5.699   6.441
 6629SOL    HW121784   4.245   5.685   6.362
 6629SOL    HW221785   4.247   5.660   6.511
 6630SOL     OW21786   2.971  11.065   1.776
 6630SOL    HW121787   3.013  10.984   1.804
 6630SOL    HW221788   3.041  11.130   1.779
 6631SOL     OW21789  12.408  11.097  13.046
 6631SOL    HW121790  12.369  11.150  12.977
 6631SOL    HW221791  12.356  11.117  13.124
 6632SOL     OW21792   6.955  14.074   3.629
 6632SOL    HW121793   6.914  14.086   3.544
 6632SOL    HW221794   7.047  14.054   3.609
 6633SOL     OW21795  11.390   1.784   8.340
 6633SOL    HW121796  11.325   1.750   8.401
 6633SOL    HW221797  11.391   1.878   8.356
 6634SOL     OW21798   9.935   9.731   9.497
 6634SOL    HW121799   9.983   9.807   9.529
 6634SOL    HW221800   9.992   9.657   9.515
 6635SOL     OW21801  14.876  11.536   4.491
 6635SOL    HW121802   0.013  11.506   4.578
 6635SOL    HW221803  14.780  11.544   4.493
 6636SOL     OW21804   5.355  14.089  10.627
 6636SOL    HW121805   5.304  14.013  10.655
 6636SOL    HW221806   5.416  14.105  10.699
 6637SOL     OW21807  13.260   4.008  14.024
 6637SOL    HW121808  13.311   3.997  13.944
 6637SOL    HW221809  13.182   4.056  13.995
 6638SOL     OW21810  10.086   0.133   5.461
 6638SOL    HW121811   9.996   0.139   5.429
 6638SOL    HW221812  10.122   0.055   5.418
 6639SOL     OW21813   1.583  14.258  11.883
 6639SOL    HW121814   1.542  14.226  11.803
 6639SOL    HW221815   1.562  14.192  11.950
 6640SOL     OW21816   3.450  10.907  12.891
 6640SOL    HW121817   3.399  10.853  12.951
 6640SOL    HW221818   3.539  10.872  12.897
 6641SOL     OW21819   4.362  10.510   2.118
 6641SOL    HW121820   4.392  10.489   2.030
 6641SOL    HW221821   4.283  10.457   2.129
 6642SOL     OW21822   9.602   7.542   7.245
 6642SOL    HW121823   9.530   7.520   7.185
 6642SOL    HW221824   9.671   7.575   7.187
 6643SOL     OW21825   3.041  12.118  10.430
 6643SOL    HW121826   3.080  12.115  10.517
 6643SOL    HW221827   3.112  12.150  10.374
 6644SOL     OW21828  14.369   3.095  13.482
 6644SOL    HW121829  14.345   3.010  13.519
 6644SOL    HW221830  14.288   3.129  13.443
 6645SOL     OW21831   5.758   9.585  13.829
 6645SOL    HW121832   5.720   9.559  13.913
 6645SOL    HW221833   5.813   9.660  13.850
 6646SOL     OW21834   2.365   9.288   6.730
 6646SOL    HW121835   2.339   9.202   6.764
 6646SOL    HW221836   2.434   9.317   6.789
 6647SOL     OW21837  12.308  10.085   4.756
 6647SOL    HW121838  12.341  10.138   4.830
 6647SOL    HW221839  12.351  10.000   4.767
 6648SOL     OW21840   4.482   8.077   9.034
 6648SOL    HW121841   4.565   8.034   9.013
 6648SOL    HW221842   4.429   8.069   8.955
 6649SOL     OW21843  10.009   5.979   2.471
 6649SOL    HW121844  10.003   5.994   2.376
 6649SOL    HW221845   9.939   5.916   2.489
 6650SOL     OW21846   1.753   4.449   7.098
 6650SOL    HW121847   1.829   4.391   7.102
 6650SOL    HW221848   1.735   4.458   7.005
 6651SOL     OW21849  11.688   9.204   6.092
 6651SOL    HW121850  11.618   9.180   6.031
 6651SOL    HW221851  11.765   9.156   6.062
 6652SOL     OW21852  14.305   6.004   0.679
 6652SOL    HW121853  14.352   5.946   0.739
 6652SOL    HW221854  14.372   6.064   0.647
 6653SOL     OW21855  11.238  12.946  10.905
 6653SOL    HW121856  11.147  12.926  10.882
 6653SOL    HW221857  11.232  13.022  10.963
 6654SOL     OW21858  12.223   4.741  13.473
 6654SOL    HW121859  12.201   4.671  13.412
 6654SOL    HW221860  12.272   4.805  13.422
 6655SOL     OW21861  14.776   4.654   5.373
 6655SOL    HW121862  14.770   4.566   5.337
 6655SOL    HW221863  14.803   4.708   5.299
 6656SOL     OW21864  10.611   0.719   6.418
 6656SOL    HW121865  10.631   0.787   6.353
 6656SOL    HW221866  10.570   0.649   6.367
 6657SOL     OW21867   2.981   4.330   5.098
 6657SOL    HW121868   3.055   4.353   5.155
 6657SOL    HW221869   2.988   4.236   5.086
 6658SOL     OW21870   4.638   3.791   9.968
 6658SOL    HW121871   4.618   3.757  10.055
 6658SOL    HW221872   4.598   3.728   9.908
 6659SOL     OW21873   6.644  14.750  11.151
 6659SOL    HW121874   6.590  14.811  11.101
 6659SOL    HW221875   6.732  14.763  11.116
 6660SOL     OW21876   6.223  12.651  11.995
 6660SOL    HW121877   6.273  12.607  11.926
 6660SOL    HW221878   6.200  12.582  12.057
 6661SOL     OW21879   3.939  13.071  13.366
 6661SOL    HW121880   3.973  12.985  13.342
 6661SOL    HW221881   3.873  13.053  13.433
 6662SOL     OW21882   7.294   6.745   3.057
 6662SOL    HW121883   7.283   6.752   2.962
 6662SOL    HW221884   7.297   6.836   3.087
 6663SOL     OW21885   4.378   4.550   2.447
 6663SOL    HW121886   4.426   4.533   2.528
 6663SOL    HW221887   4.295   4.503   2.459
 6664SOL     OW21888  14.753   4.959   5.988
 6664SOL    HW121889  14.726   4.874   5.953
 6664SOL    HW221890  14.834   4.940   6.037
 6665SOL     OW21891  14.703   6.818  14.443
 6665SOL    HW121892  14.797   6.802  14.451
 6665SOL    HW221893  14.690   6.906  14.476
 6666SOL     OW21894   4.203   2.380   7.239
 6666SOL    HW121895   4.194   2.420   7.152
 6666SOL    HW221896   4.136   2.312   7.240
 6667SOL     OW21897  11.518   2.368   0.867
 6667SOL    HW121898  11.556   2.281   0.879
 6667SOL    HW221899  11.424   2.355   0.881
 6668SOL     OW21900  14.191   2.906   8.232
 6668SOL    HW121901  14.187   2.814   8.207
 6668SOL    HW221902  14.212   2.952   8.151
 6669SOL     OW21903   7.516  11.503  10.902
 6669SOL    HW121904   7.516  11.408  10.913
 6669SOL    HW221905   7.594  11.521  10.849
 6670SOL     OW21906  14.885   1.054   2.655
 6670SOL    HW121907   0.019   0.964   2.677
 6670SOL    HW221908   0.073   1.105   2.684
 6671SOL     OW21909   8.110   8.590  14.327
 6671SOL    HW121910   8.033   8.646  14.339
 6671SOL    HW221911   8.146   8.578  14.415
 6672SOL     OW21912  13.201   1.549   4.239
 6672SOL    HW121913  13.257   1.603   4.294
 6672SOL    HW221914  13.241   1.462   4.241
 6673SOL     OW21915   5.194  13.403   0.268
 6673SOL    HW121916   5.251  13.414   0.344
 6673SOL    HW221917   5.203  13.484   0.219
 6674SOL     OW21918  14.765  14.562   2.835
 6674SOL    HW121919  14.828  14.499   2.870
 6674SOL    HW221920  14.726  14.602   2.912
 6675SOL     OW21921  13.220   3.814   5.272
 6675SOL    HW121922  13.220   3.790   5.364
 6675SOL    HW221923  13.142   3.772   5.236
 6676SOL     OW21924   9.357  11.151  10.174
 6676SOL    HW121925   9.327  11.208  10.103
 6676SOL    HW221926   9.430  11.102  10.136
 6677SOL     OW21927   4.817  11.435  11.805
 6677SOL    HW121928   4.864  11.507  11.764
 6677SOL    HW221929   4.725  11.461  11.802
 6678SOL     OW21930  14.312   2.943  10.465
 6678SOL    HW121931  14.393   2.988  10.441
 6678SOL    HW221932  14.327   2.913  10.554
 6679SOL     OW21933   7.901   8.482  12.662
 6679SOL    HW121934   7.941   8.408  12.708
 6679SOL    HW221935   7.822   8.444  12.622
 6680SOL     OW21936   1.368  13.179   0.170
 6680SOL    HW121937   1.391  13.263   0.210
 6680SOL    HW221938   1.273  13.181   0.164
 6681SOL     OW21939  10.814  12.205   6.797
 6681SOL    HW121940  10.882  12.226   6.861
 6681SOL    HW221941  10.743  12.267   6.816
 6682SOL     OW21942   3.840   9.547   4.797
 6682SOL    HW121943   3.934   9.531   4.786
 6682SOL    HW221944   3.802   9.524   4.713
 6683SOL     OW21945   0.331  11.361   4.355
 6683SOL    HW121946   0.255  11.304   4.357
 6683SOL    HW221947   0.349  11.381   4.446
 6684SOL     OW21948   6.154   9.733   3.368
 6684SOL    HW121949   6.164   9.817   3.323
 6684SOL    HW221950   6.224   9.679   3.333
 6685SOL     OW21951  12.276   7.871   2.002
 6685SOL    HW121952  12.199   7.848   1.950
 6685SOL    HW221953  12.343   7.809   1.974
 6686SOL     OW21954  12.719  11.267   7.984
 6686SOL    HW121955  12.718  11.171   7.985
 6686SOL    HW221956  12.781  11.289   7.915
 6687SOL     OW21957   3.000   0.392   4.336
 6687SOL    HW121958   2.984   0.486   4.343
 6687SOL    HW221959   2.946   0.354   4.405
 6688SOL     OW21960   8.179   7.363   9.003
 6688SOL    HW121961   8.110   7.421   9.035
 6688SOL    HW221962   8.201   7.398   8.917
 6689SOL     OW21963   0.445   7.980  13.213
 6689SOL    HW121964   0.396   8.011  13.137
 6689SOL    HW221965   0.537   7.984  13.185
 6690SOL     OW21966   3.482  13.599   7.700
 6690SOL    HW121967   3.544  13.528   7.682
 6690SOL    HW221968   3.531  13.660   7.755
 6691SOL     OW21969  11.558   0.246   2.214
 6691SOL    HW121970  11.527   0.177   2.156
 6691SOL    HW221971  11.560   0.324   2.160
 6692SOL     OW21972   9.617   0.018   6.760
 6692SOL    HW121973   9.699  14.860   6.776
 6692SOL    HW221974   9.549  14.846   6.793
 6693SOL     OW21975  11.509   2.068  14.109
 6693SOL    HW121976  11.487   2.160  14.094
 6693SOL    HW221977  11.516   2.030  14.021
 6694SOL     OW21978   0.417   2.952  13.102
 6694SOL    HW121979   0.377   2.872  13.068
 6694SOL    HW221980   0.474   2.922  13.173
 6695SOL     OW21981   4.916   7.288   0.574
 6695SOL    HW121982   4.837   7.335   0.600
 6695SOL    HW221983   4.979   7.358   0.554
 6696SOL     OW21984   4.796   8.911  10.405
 6696SOL    HW121985   4.746   8.830  10.407
 6696SOL    HW221986   4.778   8.949  10.319
 6697SOL     OW21987   7.974  13.317  13.120
 6697SOL    HW121988   7.914  13.387  13.146
 6697SOL    HW221989   8.061  13.358  13.123
 6698SOL     OW21990   5.025  14.588   6.809
 6698SOL    HW121991   5.058  14.518   6.866
 6698SOL    HW221992   4.961  14.544   6.753
 6699SOL     OW21993   8.367  12.251   8.982
 6699SOL    HW121994   8.453  12.242   8.941
 6699SOL    HW221995   8.323  12.319   8.932
 6700SOL     OW21996  12.075   2.276   6.344
 6700SOL    HW121997  11.987   2.240   6.336
 6700SOL    HW221998  12.071   2.361   6.300
 6701SOL     OW21999  13.108   8.429  10.819
 6701SOL    HW122000  13.020   8.394  10.829
 6701SOL    HW222001  13.100   8.496  10.751
 6702SOL     OW22002   9.374   9.939   7.294
 6702SOL    HW122003   9.369  10.034   7.302
 6702SOL    HW222004   9.382   9.908   7.385
 6703SOL     OW22005  13.527   8.641  14.048
 6703SOL    HW122006  13.566   8.651  14.135
 6703SOL    HW222007  13.555   8.718  14.000
 6704SOL     OW22008   6.450   5.777   7.651
 6704SOL    HW122009   6.393   5.846   7.685
 6704SOL    HW222010   6.467   5.720   7.726
 6705SOL     OW22011  13.606  14.415   7.473
 6705SOL    HW122012  13.523  14.372   7.452
 6705SOL    HW222013  13.660  14.345   7.510
 6706SOL     OW22014  14.776   1.611   5.868
 6706SOL    HW122015  14.705   1.603   5.804
 6706SOL    HW222016  14.741   1.668   5.936
 6707SOL     OW22017   3.596   9.213  10.910
 6707SOL    HW122018   3.534   9.264  10.962
 6707SOL    HW222019   3.649   9.278  10.864
 6708SOL     OW22020   3.821   3.556  12.170
 6708SOL    HW122021   3.861   3.486  12.222
 6708SOL    HW222022   3.840   3.532  12.079
 6709SOL     OW22023   9.578  13.462   5.377
 6709SOL    HW122024   9.542  13.531   5.322
 6709SOL    HW222025   9.505  13.434   5.431
 6710SOL     OW22026  11.050  12.682  14.080
 6710SOL    HW122027  11.105  12.612  14.117
 6710SOL    HW222028  11.008  12.642  14.004
 6711SOL     OW22029  14.608   6.102   4.021
 6711SOL    HW122030  14.597   6.021   4.072
 6711SOL    HW222031  14.658   6.075   3.944
 6712SOL     OW22032   7.578  12.286  11.178
 6712SOL    HW122033   7.506  12.237  11.137
 6712SOL    HW222034   7.620  12.331  11.105
 6713SOL     OW22035   4.417   1.720   0.130
 6713SOL    HW122036   4.325   1.697   0.123
 6713SOL    HW222037   4.461   1.636   0.142
 6714SOL     OW22038   1.634   7.567   6.946
 6714SOL    HW122039   1.652   7.547   6.854
 6714SOL    HW222040   1.582   7.493   6.977
 6715SOL     OW22041  12.659   8.574   6.017
 6715SOL    HW122042  12.602   8.558   6.093
 6715SOL    HW222043  12.715   8.646   6.044
 6716SOL     OW22044   6.214   3.592   1.215
 6716SOL    HW122045   6.269   3.582   1.293
 6716SOL    HW222046   6.268   3.558   1.144
 6717SOL     OW22047   9.342   0.618   2.903
 6717SOL    HW122048   9.283   0.683   2.866
 6717SOL    HW222049   9.416   0.615   2.842
 6718SOL     OW22050   5.810   6.015  14.344
 6718SOL    HW122051   5.867   6.085  14.376
 6718SOL    HW222052   5.857   5.976  14.271
 6719SOL     OW22053   3.362   6.146   3.653
 6719SOL    HW122054   3.371   6.063   3.607
 6719SOL    HW222055   3.320   6.204   3.589
 6720SOL     OW22056   5.204   6.274   2.109
 6720SOL    HW122057   5.224   6.200   2.051
 6720SOL    HW222058   5.288   6.318   2.121
 6721SOL     OW22059   0.530  12.538   0.812
 6721SOL    HW122060   0.549  12.539   0.718
 6721SOL    HW222061   0.440  12.507   0.819
 6722SOL     OW22062   4.379   7.082   2.107
 6722SOL    HW122063   4.438   7.156   2.094
 6722SOL    HW222064   4.358   7.052   2.018
 6723SOL     OW22065  10.021  12.264   5.661
 6723SOL    HW122066  10.016  12.355   5.630
 6723SOL    HW222067  10.058  12.270   5.748
 6724SOL     OW22068   4.704  11.089   2.618
 6724SOL    HW122069   4.758  11.010   2.617
 6724SOL    HW222070   4.761  11.156   2.656
 6725SOL     OW22071  14.676  11.685  10.387
 6725SOL    HW122072  14.757  11.724  10.354
 6725SOL    HW222073  14.634  11.649  10.309
 6726SOL     OW22074   9.067   5.363   4.812
 6726SOL    HW122075   9.106   5.449   4.798
 6726SOL    HW222076   9.139   5.308   4.841
 6727SOL     OW22077   3.935   9.468   8.276
 6727SOL    HW122078   3.917   9.550   8.321
 6727SOL    HW222079   4.030   9.470   8.259
 6728SOL     OW22080  14.832   5.537   3.302
 6728SOL    HW122081  14.740   5.513   3.316
 6728SOL    HW222082  14.849   5.518   3.210
 6729SOL     OW22083   1.388   5.891  12.299
 6729SOL    HW122084   1.383   5.964  12.361
 6729SOL    HW222085   1.304   5.845  12.309
 6730SOL     OW22086   2.114   2.794   0.556
 6730SOL    HW122087   2.090   2.709   0.520
 6730SOL    HW222088   2.205   2.783   0.584
 6731SOL     OW22089  12.166   7.648   8.514
 6731SOL    HW122090  12.171   7.613   8.425
 6731SOL    HW222091  12.244   7.703   8.522
 6732SOL     OW22092   0.119   0.935   9.828
 6732SOL    HW122093   0.160   0.979   9.753
 6732SOL    HW222094   0.166   0.968   9.904
 6733SOL     OW22095   4.423   4.749  10.222
 6733SOL    HW122096   4.497   4.781  10.273
 6733SOL    HW222097   4.461   4.727  10.137
 6734SOL     OW22098   6.020   6.713   4.969
 6734SOL    HW122099   6.042   6.676   5.054
 6734SOL    HW222100   6.071   6.794   4.964
 6735SOL     OW22101   3.507   5.883   2.187
 6735SOL    HW122102   3.485   5.923   2.271
 6735SOL    HW222103   3.425   5.844   2.157
 6736SOL     OW22104  14.811  14.316   5.375
 6736SOL    HW122105  14.781  14.364   5.452
 6736SOL    HW222106   0.018  14.308   5.386
 6737SOL     OW22107   8.338   9.979  11.200
 6737SOL    HW122108   8.290  10.022  11.129
 6737SOL    HW222109   8.399  10.045  11.231
 6738SOL     OW22110  10.081   9.882   2.076
 6738SOL    HW122111  10.134   9.950   2.118
 6738SOL    HW222112   9.991   9.913   2.084
 6739SOL     OW22113   4.525   5.117  14.428
 6739SOL    HW122114   4.470   5.078  14.495
 6739SOL    HW222115   4.547   5.045  14.369
 6740SOL     OW22116   8.883  14.768   7.045
 6740SOL    HW122117   8.954  14.705   7.030
 6740SOL    HW222118   8.880  14.778   7.140
 6741SOL     OW22119   6.410   9.398   2.056
 6741SOL    HW122120   6.378   9.441   1.977
 6741SOL    HW222121   6.343   9.332   2.076
 6742SOL     OW22122  10.403   5.030   3.205
 6742SOL    HW122123  10.483   5.059   3.160
 6742SOL    HW222124  10.359   5.111   3.229
 6743SOL     OW22125  11.566   7.112   4.819
 6743SOL    HW122126  11.595   7.073   4.736
 6743SOL    HW222127  11.510   7.185   4.792
 6744SOL     OW22128  12.187   8.160   8.799
 6744SOL    HW122129  12.097   8.168   8.829
 6744SOL    HW222130  12.232   8.111   8.868
 6745SOL     OW22131   7.734   1.176   7.205
 6745SOL    HW122132   7.674   1.226   7.261
 6745SOL    HW222133   7.679   1.106   7.169
 6746SOL     OW22134  11.509   9.815  11.549
 6746SOL    HW122135  11.506   9.828  11.644
 6746SOL    HW222136  11.534   9.901  11.515
 6747SOL     OW22137  12.053   2.694   6.781
 6747SOL    HW122138  11.966   2.673   6.749
 6747SOL    HW222139  12.102   2.612   6.773
 6748SOL     OW22140  14.042   1.985   4.065
 6748SOL    HW122141  13.950   2.011   4.060
 6748SOL    HW222142  14.058   1.976   4.159
 6749SOL     OW22143   0.651   6.952   3.524
 6749SOL    HW122144   0.716   6.884   3.509
 6749SOL    HW222145   0.685   7.029   3.478
 6750SOL     OW22146   7.712  12.665   3.894
 6750SOL    HW122147   7.628  12.703   3.920
 6750SOL    HW222148   7.760  12.655   3.976
 6751SOL     OW22149  11.667   4.104   1.947
 6751SOL    HW122150  11.647   4.104   1.854
 6751SOL    HW222151  11.606   4.040   1.985
 6752SOL     OW22152   0.944   4.045   4.198
 6752SOL    HW122153   1.015   4.022   4.258
 6752SOL    HW222154   0.910   3.961   4.167
 6753SOL     OW22155   5.385   5.171  14.285
 6753SOL    HW122156   5.475   5.172  14.255
 6753SOL    HW222157   5.337   5.125  14.217
 6754SOL     OW22158   0.872   6.601   8.367
 6754SOL    HW122159   0.910   6.517   8.339
 6754SOL    HW222160   0.867   6.652   8.286
 6755SOL     OW22161   2.667   8.010   1.209
 6755SOL    HW122162   2.734   8.052   1.155
 6755SOL    HW222163   2.715   7.949   1.264
 6756SOL     OW22164   6.135   4.728   8.570
 6756SOL    HW122165   6.190   4.744   8.493
 6756SOL    HW222166   6.150   4.804   8.626
 6757SOL     OW22167  13.721   9.750  13.176
 6757SOL    HW122168  13.675   9.811  13.233
 6757SOL    HW222169  13.808   9.741  13.217
 6758SOL     OW22170  13.541   5.361  10.362
 6758SOL    HW122171  13.607   5.294  10.380
 6758SOL    HW222172  13.538   5.414  10.442
 6759SOL     OW22173   8.505   1.303  14.634
 6759SOL    HW122174   8.599   1.316  14.647
 6759SOL    HW222175   8.466   1.332  14.717
 6760SOL     OW22176  13.656   3.019  12.936
 6760SOL    HW122177  13.578   3.040  12.885
 6760SOL    HW222178  13.706   2.960  12.880
 6761SOL     OW22179   6.278   1.715  13.643
 6761SOL    HW122180   6.351   1.672  13.598
 6761SOL    HW222181   6.305   1.718  13.735
 6762SOL     OW22182  14.566   3.860  12.450
 6762SOL    HW122183  14.659   3.842  12.466
 6762SOL    HW222184  14.551   3.947  12.488
 6763SOL     OW22185   4.254   0.790   2.213
 6763SOL    HW122186   4.197   0.868   2.211
 6763SOL    HW222187   4.205   0.726   2.264
 6764SOL     OW22188   2.106   4.494   6.002
 6764SOL    HW122189   2.152   4.431   5.947
 6764SOL    HW222190   2.062   4.441   6.068
 6765SOL     OW22191  10.685  14.084   5.122
 6765SOL    HW122192  10.775  14.100   5.151
 6765SOL    HW222193  10.635  14.077   5.204
 6766SOL     OW22194   7.610   9.166   4.497
 6766SOL    HW122195   7.669   9.100   4.462
 6766SOL    HW222196   7.543   9.177   4.429
 6767SOL     OW22197   8.976   3.223  11.335
 6767SOL    HW122198   9.025   3.175  11.401
 6767SOL    HW222199   8.885   3.216  11.363
 6768SOL     OW22200   0.780  13.673   3.288
 6768SOL    HW122201   0.864  13.719   3.287
 6768SOL    HW222202   0.715  13.743   3.295
 6769SOL     OW22203  13.242  10.313  11.213
 6769SOL    HW122204  13.247  10.221  11.189
 6769SOL    HW222205  13.260  10.314  11.307
 6770SOL     OW22206  14.603   3.895   4.786
 6770SOL    HW122207  14.593   3.860   4.875
 6770SOL    HW222208  14.596   3.990   4.798
 6771SOL     OW22209  11.737  14.846   3.566
 6771SOL    HW122210  11.688  14.779   3.520
 6771SOL    HW222211  11.827  14.816   3.565
 6772SOL     OW22212   3.105   2.351   3.957
 6772SOL    HW122213   3.132   2.262   3.975
 6772SOL    HW222214   3.158   2.377   3.881
 6773SOL     OW22215   6.135   5.314   7.703
 6773SOL    HW122216   6.090   5.374   7.643
 6773SOL    HW222217   6.086   5.322   7.785
 6774SOL     OW22218   9.807  11.170   0.736
 6774SOL    HW122219   9.741  11.184   0.669
 6774SOL    HW222220   9.862  11.249   0.733
 6775SOL     OW22221   6.021   7.214   1.273
 6775SOL    HW122222   5.946   7.162   1.244
 6775SOL    HW222223   6.092   7.187   1.215
 6776SOL     OW22224   7.900   6.823   9.736
 6776SOL    HW122225   7.897   6.901   9.792
 6776SOL    HW222226   7.883   6.857   9.648
 6777SOL     OW22227  14.322   6.069   4.197
 6777SOL    HW122228  14.405   6.108   4.223
 6777SOL    HW222229  14.295   6.118   4.119
 6778SOL     OW22230   0.645   0.601   8.309
 6778SOL    HW122231   0.727   0.555   8.327
 6778SOL    HW222232   0.578   0.532   8.308
 6779SOL     OW22233   1.746   7.584   4.767
 6779SOL    HW122234   1.780   7.498   4.789
 6779SOL    HW222235   1.656   7.583   4.798
 6780SOL     OW22236  14.759   8.124   4.397
 6780SOL    HW122237  14.690   8.173   4.442
 6780SOL    HW222238  14.840   8.152   4.440
 6781SOL     OW22239   4.206   2.588   7.444
 6781SOL    HW122240   4.215   2.524   7.373
 6781SOL    HW222241   4.282   2.573   7.500
 6782SOL     OW22242   8.889   6.659  10.455
 6782SOL    HW122243   8.890   6.628  10.364
 6782SOL    HW222244   8.828   6.732  10.455
 6783SOL     OW22245   1.619   0.292   4.795
 6783SOL    HW122246   1.698   0.259   4.837
 6783SOL    HW222247   1.639   0.293   4.701
 6784SOL     OW22248  10.972   0.624   4.903
 6784SOL    HW122249  10.971   0.530   4.884
 6784SOL    HW222250  11.035   0.633   4.975
 6785SOL     OW22251   1.632   1.707  11.556
 6785SOL    HW122252   1.642   1.778  11.492
 6785SOL    HW222253   1.586   1.638  11.509
 6786SOL     OW22254   2.761  13.470   3.724
 6786SOL    HW122255   2.760  13.489   3.818
 6786SOL    HW222256   2.762  13.556   3.683
 6787SOL     OW22257   1.509   1.233   4.485
 6787SOL    HW122258   1.515   1.196   4.573
 6787SOL    HW222259   1.451   1.174   4.438
 6788SOL     OW22260   0.369   6.477  11.426
 6788SOL    HW122261   0.460   6.490  11.399
 6788SOL    HW222262   0.365   6.514  11.515
 6789SOL     OW22263   4.736   2.758   8.070
 6789SOL    HW122264   4.688   2.687   8.028
 6789SOL    HW222265   4.781   2.716   8.144
 6790SOL     OW22266   8.998   5.416   2.945
 6790SOL    HW122267   9.035   5.342   2.993
 6790SOL    HW222268   9.061   5.434   2.876
 6791SOL     OW22269   8.871   4.059   2.424
 6791SOL    HW122270   8.901   4.054   2.334
 6791SOL    HW222271   8.875   3.970   2.457
 6792SOL     OW22272  12.692  12.416  13.261
 6792SOL    HW122273  12.788  12.423  13.262
 6792SOL    HW222274  12.666  12.464  13.182
 6793SOL     OW22275   8.675  14.602   1.947
 6793SOL    HW122276   8.682  14.619   1.853
 6793SOL    HW222277   8.709  14.682   1.988
 6794SOL     OW22278   5.037   3.116   5.586
 6794SOL    HW122279   5.130   3.136   5.595
 6794SOL    HW222280   4.994   3.202   5.590
 6795SOL     OW22281   8.114   8.502  12.425
 6795SOL    HW122282   8.142   8.429  12.480
 6795SOL    HW222283   8.177   8.571  12.443
 6796SOL     OW22284  11.569   9.569   6.691
 6796SOL    HW122285  11.617   9.648   6.666
 6796SOL    HW222286  11.636   9.506   6.716
 6797SOL     OW22287   0.579  14.705   6.798
 6797SOL    HW122288   0.580  14.663   6.884
 6797SOL    HW222289   0.634  14.649   6.744
 6798SOL     OW22290   4.835   8.436   4.487
 6798SOL    HW122291   4.830   8.411   4.579
 6798SOL    HW222292   4.744   8.448   4.461
 6799SOL     OW22293   1.453   6.234  13.474
 6799SOL    HW122294   1.398   6.289  13.530
 6799SOL    HW222295   1.527   6.291  13.451
 6800SOL     OW22296   0.736   3.913  11.868
 6800SOL    HW122297   0.826   3.914  11.837
 6800SOL    HW222298   0.730   3.987  11.928
 6801SOL     OW22299   4.408  13.753   9.579
 6801SOL    HW122300   4.496  13.716   9.584
 6801SOL    HW222301   4.399  13.804   9.660
 6802SOL     OW22302  14.353   5.456   1.993
 6802SOL    HW122303  14.428   5.473   2.050
 6802SOL    HW222304  14.278   5.457   2.053
 6803SOL     OW22305   6.816  10.911   3.215
 6803SOL    HW122306   6.723  10.895   3.227
 6803SOL    HW222307   6.859  10.844   3.267
 6804SOL     OW22308   1.717   1.589  12.786
 6804SOL    HW122309   1.769   1.519  12.747
 6804SOL    HW222310   1.767   1.616  12.863
 6805SOL     OW22311   9.551   5.316   6.677
 6805SOL    HW122312   9.610   5.381   6.715
 6805SOL    HW222313   9.589   5.232   6.703
 6806SOL     OW22314   1.861   5.782  12.930
 6806SOL    HW122315   1.909   5.815  12.854
 6806SOL    HW222316   1.868   5.687  12.923
 6807SOL     OW22317   8.154  11.854  10.574
 6807SOL    HW122318   8.243  11.826  10.554
 6807SOL    HW222319   8.117  11.880  10.490
 6808SOL     OW22320   8.880  10.229  11.455
 6808SOL    HW122321   8.827  10.307  11.473
 6808SOL    HW222322   8.914  10.203  11.540
 6809SOL     OW22323   3.173   1.400  11.853
 6809SOL    HW122324   3.138   1.338  11.918
 6809SOL    HW222325   3.190   1.346  11.775
 6810SOL     OW22326   7.893   8.065   9.365
 6810SOL    HW122327   7.979   8.043   9.401
 6810SOL    HW222328   7.836   7.993   9.394
 6811SOL     OW22329   5.308   6.633   8.069
 6811SOL    HW122330   5.316   6.613   7.976
 6811SOL    HW222331   5.321   6.549   8.113
 6812SOL     OW22332   5.055  10.868  11.475
 6812SOL    HW122333   5.134  10.899  11.430
 6812SOL    HW222334   5.066  10.898  11.565
 6813SOL     OW22335   8.271   3.912  12.569
 6813SOL    HW122336   8.236   3.973  12.635
 6813SOL    HW222337   8.339   3.962  12.525
 6814SOL     OW22338   6.643  12.208   6.838
 6814SOL    HW122339   6.551  12.187   6.822
 6814SOL    HW222340   6.682  12.212   6.750
 6815SOL     OW22341   1.202  13.229  14.328
 6815SOL    HW122342   1.209  13.285  14.250
 6815SOL    HW222343   1.285  13.181  14.331
 6816SOL     OW22344   9.187   7.504   0.315
 6816SOL    HW122345   9.153   7.593   0.306
 6816SOL    HW222346   9.120   7.457   0.365
 6817SOL     OW22347  11.261  13.533   4.785
 6817SOL    HW122348  11.271  13.627   4.770
 6817SOL    HW222349  11.167  13.517   4.772
 6818SOL     OW22350   0.363  12.806  10.434
 6818SOL    HW122351   0.341  12.756  10.356
 6818SOL    HW222352   0.330  12.753  10.507
 6819SOL     OW22353   3.337   5.429  11.903
 6819SOL    HW122354   3.414   5.477  11.933
 6819SOL    HW222355   3.281   5.497  11.865
 6820SOL     OW22356   6.101   6.177  11.102
 6820SOL    HW122357   6.041   6.134  11.163
 6820SOL    HW222358   6.147   6.105  11.059
 6821SOL     OW22359  11.907   3.301  10.069
 6821SOL    HW122360  11.861   3.381  10.044
 6821SOL    HW222361  11.890   3.240   9.997
 6822SOL     OW22362   5.849   7.438   0.625
 6822SOL    HW122363   5.881   7.429   0.536
 6822SOL    HW222364   5.766   7.391   0.626
 6823SOL     OW22365   7.429   9.292  11.312
 6823SOL    HW122366   7.408   9.237  11.237
 6823SOL    HW222367   7.356   9.279  11.373
 6824SOL     OW22368   0.529   3.802   8.608
 6824SOL    HW122369   0.466   3.872   8.592
 6824SOL    HW222370   0.520   3.782   8.702
 6825SOL     OW22371   6.788   4.721  14.055
 6825SOL    HW122372   6.762   4.714  14.146
 6825SOL    HW222373   6.856   4.789  14.055
 6826SOL     OW22374   2.313   1.901   5.002
 6826SOL    HW122375   2.358   1.970   5.050
 6826SOL    HW222376   2.243   1.946   4.954
 6827SOL     OW22377  14.072   0.383   5.108
 6827SOL    HW122378  14.020   0.358   5.185
 6827SOL    HW222379  14.156   0.412   5.144
 6828SOL     OW22380  10.440   4.211   4.875
 6828SOL    HW122381  10.376   4.175   4.935
 6828SOL    HW222382  10.408   4.187   4.788
 6829SOL     OW22383  14.100  10.005   6.206
 6829SOL    HW122384  14.080   9.912   6.200
 6829SOL    HW222385  14.195  10.008   6.220
 6830SOL     OW22386   0.877  12.204   0.429
 6830SOL    HW122387   0.816  12.266   0.390
 6830SOL    HW222388   0.849  12.196   0.520
 6831SOL     OW22389   2.493   2.547   4.032
 6831SOL    HW122390   2.425   2.604   4.066
 6831SOL    HW222391   2.568   2.562   4.090
 6832SOL     OW22392  10.154   1.377   8.473
 6832SOL    HW122393  10.103   1.395   8.552
 6832SOL    HW222394  10.088   1.367   8.404
 6833SOL     OW22395   2.002   5.332   3.148
 6833SOL    HW122396   2.081   5.281   3.132
 6833SOL    HW222397   2.021   5.418   3.111
 6834SOL     OW22398   5.680  10.093   2.462
 6834SOL    HW122399   5.649  10.042   2.536
 6834SOL    HW222400   5.612  10.159   2.447
 6835SOL     OW22401  13.080   9.710   8.704
 6835SOL    HW122402  13.065   9.804   8.692
 6835SOL    HW222403  13.160   9.704   8.756
 6836SOL     OW22404   4.049  11.316  13.670
 6836SOL    HW122405   4.077  11.253  13.736
 6836SOL    HW222406   4.005  11.385  13.719
 6837SOL     OW22407  10.471  12.801  11.498
 6837SOL    HW122408  10.561  12.810  11.528
 6837SOL    HW222409  10.425  12.876  11.537
 6838SOL     OW22410   3.608   0.515   5.747
 6838SOL    HW122411   3.575   0.508   5.658
 6838SOL    HW222412   3.703   0.527   5.738
 6839SOL     OW22413   8.605  11.138  13.460
 6839SOL    HW122414   8.583  11.153  13.368
 6839SOL    HW222415   8.681  11.193  13.476
 6840SOL     OW22416   2.536   3.877  12.509
 6840SOL    HW122417   2.518   3.965  12.540
 6840SOL    HW222418   2.529   3.883  12.413
 6841SOL     OW22419  13.984   9.806  10.121
 6841SOL    HW122420  13.916   9.769  10.065
 6841SOL    HW222421  13.963   9.775  10.209
 6842SOL     OW22422   3.845  12.661   2.679
 6842SOL    HW122423   3.852  12.569   2.654
 6842SOL    HW222424   3.919  12.704   2.636
 6843SOL     OW22425   2.461   6.826   4.145
 6843SOL    HW122426   2.398   6.825   4.073
 6843SOL    HW222427   2.410   6.801   4.222
 6844SOL     OW22428   2.803   6.381   6.569
 6844SOL    HW122429   2.758   6.297   6.566
 6844SOL    HW222430   2.881   6.369   6.514
 6845SOL     OW22431  14.370   7.583   3.306
 6845SOL    HW122432  14.405   7.659   3.259
 6845SOL    HW222433  14.326   7.532   3.239
 6846SOL     OW22434   3.511   8.096   0.791
 6846SOL    HW122435   3.420   8.066   0.802
 6846SOL    HW222436   3.562   8.016   0.785
 6847SOL     OW22437  13.963   5.371   3.805
 6847SOL    HW122438  14.059   5.374   3.812
 6847SOL    HW222439  13.945   5.289   3.759
 6848SOL     OW22440   6.403   7.300   5.618
 6848SOL    HW122441   6.432   7.257   5.537
 6848SOL    HW222442   6.395   7.228   5.680
 6849SOL     OW22443   7.293   3.328   1.639
 6849SOL    HW122444   7.291   3.276   1.559
 6849SOL    HW222445   7.245   3.407   1.618
 6850SOL     OW22446   8.484  14.220   3.051
 6850SOL    HW122447   8.521  14.284   3.111
 6850SOL    HW222448   8.408  14.184   3.098
 6851SOL     OW22449  11.539  13.966   4.125
 6851SOL    HW122450  11.458  13.914   4.125
 6851SOL    HW222451  11.575  13.954   4.213
 6852SOL     OW22452   1.415   4.132   2.816
 6852SOL    HW122453   1.403   4.226   2.801
 6852SOL    HW222454   1.368   4.115   2.898
 6853SOL     OW22455  11.394   4.949   3.390
 6853SOL    HW122456  11.333   5.009   3.433
 6853SOL    HW222457  11.367   4.862   3.419
 6854SOL     OW22458   5.932  12.187   1.296
 6854SOL    HW122459   5.932  12.277   1.329
 6854SOL    HW222460   5.840  12.170   1.275
 6855SOL     OW22461   3.613   1.031   2.591
 6855SOL    HW122462   3.681   1.058   2.529
 6855SOL    HW222463   3.551   0.981   2.538
 6856SOL     OW22464  11.865  13.284   8.584
 6856SOL    HW122465  11.832  13.373   8.591
 6856SOL    HW222466  11.869  13.252   8.674
 6857SOL     OW22467   2.949   6.738  14.791
 6857SOL    HW122468   2.964   6.832  14.781
 6857SOL    HW222469   2.992   6.715  14.874
 6858SOL     OW22470   8.952   3.025   2.433
 6858SOL    HW122471   8.901   2.987   2.505
 6858SOL    HW222472   8.893   3.087   2.392
 6859SOL     OW22473  11.731  14.392   8.514
 6859SOL    HW122474  11.790  14.346   8.574
 6859SOL    HW222475  11.669  14.437   8.571
 6860SOL     OW22476   2.208  13.891   4.187
 6860SOL    HW122477   2.243  13.805   4.210
 6860SOL    HW222478   2.186  13.884   4.094
 6861SOL     OW22479   3.821   5.931   0.553
 6861SOL    HW122480   3.879   5.861   0.527
 6861SOL    HW222481   3.798   5.910   0.644
 6862SOL     OW22482   2.530   5.985   9.690
 6862SOL    HW122483   2.451   5.968   9.639
 6862SOL    HW222484   2.575   6.054   9.641
 6863SOL     OW22485  13.395   3.210   9.260
 6863SOL    HW122486  13.361   3.189   9.173
 6863SOL    HW222487  13.368   3.137   9.315
 6864SOL     OW22488   7.405   1.284  14.043
 6864SOL    HW122489   7.397   1.189  14.041
 6864SOL    HW222490   7.499   1.300  14.048
 6865SOL     OW22491   9.259   4.756   8.123
 6865SOL    HW122492   9.178   4.785   8.082
 6865SOL    HW222493   9.328   4.796   8.070
 6866SOL     OW22494  14.215   7.080   9.534
 6866SOL    HW122495  14.163   7.097   9.612
 6866SOL    HW222496  14.168   7.123   9.463
 6867SOL     OW22497   7.150   3.345  10.065
 6867SOL    HW122498   7.227   3.383  10.107
 6867SOL    HW222499   7.091   3.419  10.052
 6868SOL     OW22500  14.864   8.085  10.470
 6868SOL    HW122501   0.054   8.049  10.513
 6868SOL    HW222502  14.883   8.178  10.462
 6869SOL     OW22503  11.551  12.174  11.212
 6869SOL    HW122504  11.585  12.104  11.267
 6869SOL    HW222505  11.600  12.166  11.130
 6870SOL     OW22506  10.826   3.287   9.956
 6870SOL    HW122507  10.824   3.192   9.969
 6870SOL    HW222508  10.882   3.320  10.028
 6871SOL     OW22509   1.879  10.145  14.547
 6871SOL    HW122510   1.973  10.163  14.548
 6871SOL    HW222511   1.864  10.091  14.624
 6872SOL     OW22512   1.863   6.996   3.786
 6872SOL    HW122513   1.780   7.018   3.743
 6872SOL    HW222514   1.905   7.081   3.798
 6873SOL     OW22515   3.734   4.224   3.852
 6873SOL    HW122516   3.641   4.247   3.860
 6873SOL    HW222517   3.737   4.130   3.870
 6874SOL     OW22518  14.013   2.639   6.594
 6874SOL    HW122519  13.918   2.631   6.586
 6874SOL    HW222520  14.048   2.569   6.539
 6875SOL     OW22521   6.079   2.431   6.503
 6875SOL    HW122522   6.063   2.412   6.595
 6875SOL    HW222523   6.147   2.498   6.504
 6876SOL     OW22524  14.125  14.854   4.955
 6876SOL    HW122525  14.061  14.852   5.026
 6876SOL    HW222526  14.083  14.806   4.884
 6877SOL     OW22527  13.845   9.730  11.330
 6877SOL    HW122528  13.888   9.810  11.299
 6877SOL    HW222529  13.764   9.725  11.279
 6878SOL     OW22530   3.516   8.469   2.781
 6878SOL    HW122531   3.591   8.411   2.773
 6878SOL    HW222532   3.545   8.537   2.843
 6879SOL     OW22533  12.231   3.017  12.717
 6879SOL    HW122534  12.298   3.047  12.655
 6879SOL    HW222535  12.278   2.958  12.776
 6880SOL     OW22536   7.796   4.032  11.267
 6880SOL    HW122537   7.701   4.032  11.277
 6880SOL    HW222538   7.815   4.111  11.215
 6881SOL     OW22539  11.645   6.972   7.056
 6881SOL    HW122540  11.728   6.925   7.058
 6881SOL    HW222541  11.599   6.937   6.980
 6882SOL     OW22542   7.626   1.801  10.170
 6882SOL    HW122543   7.653   1.737  10.105
 6882SOL    HW222544   7.560   1.756  10.223
 6883SOL     OW22545   2.058   1.572  10.666
 6883SOL    HW122546   2.095   1.521  10.594
 6883SOL    HW222547   2.001   1.510  10.712
 6884SOL     OW22548  14.679   7.898   9.067
 6884SOL    HW122549  14.653   7.974   9.015
 6884SOL    HW222550  14.706   7.833   9.003
 6885SOL     OW22551  12.654   5.360   7.307
 6885SOL    HW122552  12.736   5.407   7.287
 6885SOL    HW222553  12.604   5.422   7.359
 6886SOL     OW22554   5.297   0.140   5.314
 6886SOL    HW122555   5.216   0.094   5.338
 6886SOL    HW222556   5.337   0.163   5.397
 6887SOL     OW22557   7.898   2.588  11.931
 6887SOL    HW122558   7.840   2.514  11.950
 6887SOL    HW222559   7.859   2.630  11.855
 6888SOL     OW22560   0.006   7.677   8.796
 6888SOL    HW122561   0.082   7.731   8.772
 6888SOL    HW222562  14.818   7.727   8.766
 6889SOL     OW22563   2.917   4.131   0.595
 6889SOL    HW122564   2.826   4.153   0.617
 6889SOL    HW222565   2.967   4.208   0.621
 6890SOL     OW22566   2.288   4.202  12.345
 6890SOL    HW122567   2.360   4.168  12.291
 6890SOL    HW222568   2.325   4.281  12.385
 6891SOL     OW22569   0.405  12.171   2.306
 6891SOL    HW122570   0.342  12.111   2.346
 6891SOL    HW222571   0.427  12.130   2.222
 6892SOL     OW22572   1.051  11.671   0.562
 6892SOL    HW122573   1.143  11.695   0.567
 6892SOL    HW222574   1.004  11.751   0.586
 6893SOL     OW22575   6.236   4.305   1.364
 6893SOL    HW122576   6.179   4.303   1.287
 6893SOL    HW222577   6.292   4.382   1.351
 6894SOL     OW22578   8.524   0.796   2.256
 6894SOL    HW122579   8.491   0.832   2.338
 6894SOL    HW222580   8.457   0.731   2.231
 6895SOL     OW22581  12.938   3.657   3.962
 6895SOL    HW122582  12.964   3.742   3.927
 6895SOL    HW222583  12.911   3.606   3.886
 6896SOL     OW22584   0.761  12.335   5.257
 6896SOL    HW122585   0.852  12.364   5.253
 6896SOL    HW222586   0.736  12.348   5.349
 6897SOL     OW22587   5.421   1.310  13.421
 6897SOL    HW122588   5.460   1.279  13.340
 6897SOL    HW222589   5.416   1.405  13.410
 6898SOL     OW22590   6.334  13.836  12.258
 6898SOL    HW122591   6.295  13.885  12.186
 6898SOL    HW222592   6.261  13.786  12.295
 6899SOL     OW22593   2.067  11.985   1.067
 6899SOL    HW122594   2.162  11.983   1.079
 6899SOL    HW222595   2.032  11.958   1.152
 6900SOL     OW22596   0.677   5.068   7.976
 6900SOL    HW122597   0.693   5.147   7.925
 6900SOL    HW222598   0.640   5.006   7.913
 6901SOL     OW22599   3.847  10.033  14.431
 6901SOL    HW122600   3.917   9.969  14.423
 6901SOL    HW222601   3.766   9.982  14.424
 6902SOL     OW22602   4.537  12.670   9.969
 6902SOL    HW122603   4.525  12.765   9.965
 6902SOL    HW222604   4.487  12.636   9.895
 6903SOL     OW22605  11.447  11.310  12.338
 6903SOL    HW122606  11.443  11.341  12.247
 6903SOL    HW222607  11.540  11.300  12.356
 6904SOL     OW22608   3.252  12.400   2.653
 6904SOL    HW122609   3.174  12.400   2.597
 6904SOL    HW222610   3.222  12.443   2.733
 6905SOL     OW22611   0.698   2.672   9.059
 6905SOL    HW122612   0.693   2.580   9.083
 6905SOL    HW222613   0.607   2.698   9.043
 6906SOL     OW22614  13.205  13.822  13.289
 6906SOL    HW122615  13.280  13.789  13.337
 6906SOL    HW222616  13.213  13.918  13.295
 6907SOL     OW22617   8.426   0.692  12.298
 6907SOL    HW122618   8.333   0.685  12.276
 6907SOL    HW222619   8.449   0.782  12.278
 6908SOL     OW22620   8.229   3.745   9.696
 6908SOL    HW122621   8.164   3.741   9.767
 6908SOL    HW222622   8.177   3.752   9.617
 6909SOL     OW22623   0.344   5.253   3.362
 6909SOL    HW122624   0.337   5.202   3.443
 6909SOL    HW222625   0.363   5.187   3.294
 6910SOL     OW22626   1.738   3.301   5.407
 6910SOL    HW122627   1.749   3.221   5.458
 6910SOL    HW222628   1.811   3.301   5.346
 6911SOL     OW22629   1.207   3.445   4.037
 6911SOL    HW122630   1.140   3.402   4.091
 6911SOL    HW222631   1.252   3.505   4.096
 6912SOL     OW22632   6.483  11.413  13.898
 6912SOL    HW122633   6.524  11.488  13.855
 6912SOL    HW222634   6.510  11.420  13.989
 6913SOL     OW22635   3.919   5.945   8.793
 6913SOL    HW122636   3.858   6.006   8.835
 6913SOL    HW222637   3.890   5.940   8.702
 6914SOL     OW22638   7.097   4.488   4.823
 6914SOL    HW122639   7.075   4.449   4.738
 6914SOL    HW222640   7.016   4.528   4.853
 6915SOL     OW22641   1.906   7.815   3.160
 6915SOL    HW122642   1.970   7.850   3.098
 6915SOL    HW222643   1.956   7.760   3.220
 6916SOL     OW22644  14.335  13.773  14.785
 6916SOL    HW122645  14.339  13.805  14.695
 6916SOL    HW222646  14.423  13.785  14.819
 6917SOL     OW22647   6.758  12.319   1.802
 6917SOL    HW122648   6.769  12.364   1.886
 6917SOL    HW222649   6.764  12.226   1.823
 6918SOL     OW22650  14.558  10.318  11.930
 6918SOL    HW122651  14.563  10.413  11.916
 6918SOL    HW222652  14.647  10.287  11.914
 6919SOL     OW22653   3.309   6.991   5.057
 6919SOL    HW122654   3.338   7.021   5.144
 6919SOL    HW222655   3.249   6.919   5.076
 6920SOL     OW22656  11.514  12.331   8.676
 6920SOL    HW122657  11.432  12.286   8.698
 6920SOL    HW222658  11.517  12.328   8.580
 6921SOL     OW22659  12.084  12.654  14.474
 6921SOL    HW122660  11.995  12.633  14.502
 6921SOL    HW222661  12.130  12.570  14.473
 6922SOL     OW22662   4.479   3.367   4.746
 6922SOL    HW122663   4.528   3.330   4.673
 6922SOL    HW222664   4.536   3.352   4.822
 6923SOL     OW22665   5.088  10.590  13.848
 6923SOL    HW122666   5.158  10.534  13.883
 6923SOL    HW222667   5.065  10.647  13.921
 6924SOL     OW22668   9.767  11.699   7.982
 6924SOL    HW122669   9.840  11.637   7.987
 6924SOL    HW222670   9.734  11.704   8.072
 6925SOL     OW22671  13.129   3.571  12.208
 6925SOL    HW122672  13.108   3.624  12.131
 6925SOL    HW222673  13.048   3.572  12.260
 6926SOL     OW22674  13.154   5.334  13.051
 6926SOL    HW122675  13.185   5.359  12.964
 6926SOL    HW222676  13.165   5.239  13.054
 6927SOL     OW22677   7.783   1.980   6.699
 6927SOL    HW122678   7.828   1.955   6.780
 6927SOL    HW222679   7.834   1.938   6.629
 6928SOL     OW22680   6.030   3.322   8.600
 6928SOL    HW122681   5.970   3.279   8.538
 6928SOL    HW222682   6.117   3.305   8.564
 6929SOL     OW22683   1.944  12.332   3.051
 6929SOL    HW122684   1.912  12.273   2.982
 6929SOL    HW222685   2.025  12.292   3.082
 6930SOL     OW22686   3.314   2.564  12.681
 6930SOL    HW122687   3.305   2.655  12.709
 6930SOL    HW222688   3.385   2.565  12.618
 6931SOL     OW22689   1.877   3.585  12.158
 6931SOL    HW122690   1.797   3.625  12.193
 6931SOL    HW222691   1.889   3.506  12.211
 6932SOL     OW22692   5.073  12.312  10.691
 6932SOL    HW122693   5.113  12.396  10.712
 6932SOL    HW222694   5.120  12.283  10.612
 6933SOL     OW22695   1.711   2.509  10.714
 6933SOL    HW122696   1.740   2.480  10.800
 6933SOL    HW222697   1.715   2.429  10.660
 6934SOL     OW22698   0.690   7.086   6.596
 6934SOL    HW122699   0.685   7.076   6.501
 6934SOL    HW222700   0.724   7.001   6.627
 6935SOL     OW22701   8.677   5.386   3.194
 6935SOL    HW122702   8.709   5.354   3.279
 6935SOL    HW222703   8.624   5.462   3.216
 6936SOL     OW22704   0.156   9.463   6.711
 6936SOL    HW122705   0.064   9.456   6.686
 6936SOL    HW222706   0.200   9.391   6.664
 6937SOL     OW22707  11.239   5.509   3.748
 6937SOL    HW122708  11.206   5.543   3.832
 6937SOL    HW222709  11.277   5.424   3.769
 6938SOL     OW22710   3.671   3.671   4.944
 6938SOL    HW122711   3.753   3.640   4.907
 6938SOL    HW222712   3.695   3.749   4.995
 6939SOL     OW22713   8.098  14.569  13.648
 6939SOL    HW122714   8.053  14.575  13.733
 6939SOL    HW222715   8.033  14.599  13.584
 6940SOL     OW22716   9.664   8.261   8.292
 6940SOL    HW122717   9.758   8.269   8.308
 6940SOL    HW222718   9.657   8.233   8.200
 6941SOL     OW22719   2.808   2.452  14.230
 6941SOL    HW122720   2.788   2.525  14.288
 6941SOL    HW222721   2.746   2.461  14.158
 6942SOL     OW22722   1.217   9.368  10.994
 6942SOL    HW122723   1.144   9.328  11.042
 6942SOL    HW222724   1.263   9.420  11.060
 6943SOL     OW22725  10.799   0.553   3.740
 6943SOL    HW122726  10.819   0.506   3.660
 6943SOL    HW222727  10.714   0.594   3.724
 6944SOL     OW22728   6.365  12.558   5.511
 6944SOL    HW122729   6.314  12.512   5.445
 6944SOL    HW222730   6.359  12.503   5.589
 6945SOL     OW22731  13.741   1.058  14.500
 6945SOL    HW122732  13.836   1.061  14.494
 6945SOL    HW222733  13.714   1.003  14.425
 6946SOL     OW22734   0.067   4.389  12.485
 6946SOL    HW122735  14.862   4.403  12.462
 6946SOL    HW222736   0.067   4.307  12.534
 6947SOL     OW22737   8.448  10.884   2.072
 6947SOL    HW122738   8.517  10.859   2.134
 6947SOL    HW222739   8.425  10.974   2.097
 6948SOL     OW22740   6.965  13.423  12.259
 6948SOL    HW122741   6.938  13.433  12.351
 6948SOL    HW222742   7.053  13.459  12.255
 6949SOL     OW22743  10.214  12.676   6.007
 6949SOL    HW122744  10.243  12.625   6.083
 6949SOL    HW222745  10.140  12.627   5.972
 6950SOL     OW22746   4.814   7.602  12.894
 6950SOL    HW122747   4.830   7.602  12.988
 6950SOL    HW222748   4.755   7.676  12.879
 6951SOL     OW22749  11.143   8.817  11.595
 6951SOL    HW122750  11.094   8.859  11.524
 6951SOL    HW222751  11.182   8.739  11.554
 6952SOL     OW22752   9.053  11.577  10.409
 6952SOL    HW122753   9.114  11.649  10.419
 6952SOL    HW222754   8.968  11.619  10.393
 6953SOL     OW22755  11.732  10.293  12.585
 6953SOL    HW122756  11.705  10.331  12.669
 6953SOL    HW222757  11.763  10.368  12.534
 6954SOL     OW22758   3.105   8.639  10.836
 6954SOL    HW122759   3.198   8.643  10.857
 6954SOL    HW222760   3.062   8.619  10.920
 6955SOL     OW22761   0.204   8.812   6.299
 6955SOL    HW122762   0.255   8.850   6.370
 6955SOL    HW222763   0.139   8.878   6.278
 6956SOL     OW22764  13.877  13.055   4.438
 6956SOL    HW122765  13.864  12.961   4.449
 6956SOL    HW222766  13.936  13.080   4.509
 6957SOL     OW22767   3.175   4.083  12.144
 6957SOL    HW122768   3.252   4.108  12.092
 6957SOL    HW222769   3.132   4.166  12.162
 6958SOL     OW22770   3.296   9.964   3.933
 6958SOL    HW122771   3.371   9.997   3.883
 6958SOL    HW222772   3.327   9.961   4.023
 6959SOL     OW22773  11.803  13.398   9.667
 6959SOL    HW122774  11.791  13.485   9.630
 6959SOL    HW222775  11.770  13.339   9.600
 6960SOL     OW22776   6.570   3.130   8.080
 6960SOL    HW122777   6.545   3.055   8.133
 6960SOL    HW222778   6.615   3.092   8.004
 6961SOL     OW22779  13.266  14.637   5.041
 6961SOL    HW122780  13.293  14.547   5.023
 6961SOL    HW222781  13.191  14.652   4.982
 6962SOL     OW22782   8.201   8.354  13.701
 6962SOL    HW122783   8.187   8.357  13.607
 6962SOL    HW222784   8.117   8.325  13.737
 6963SOL     OW22785   2.315   6.230   6.707
 6963SOL    HW122786   2.408   6.209   6.719
 6963SOL    HW222787   2.275   6.211   6.792
 6964SOL     OW22788  14.446   0.434  12.621
 6964SOL    HW122789  14.528   0.481  12.602
 6964SOL    HW222790  14.391   0.499  12.664
 6965SOL     OW22791   7.039   1.882  11.834
 6965SOL    HW122792   6.960   1.919  11.873
 6965SOL    HW222793   7.018   1.874  11.741
 6966SOL     OW22794   7.783   4.632   0.069
 6966SOL    HW122795   7.822   4.709   0.027
 6966SOL    HW222796   7.689   4.644   0.057
 6967SOL     OW22797  12.335   5.128  11.637
 6967SOL    HW122798  12.386   5.092  11.709
 6967SOL    HW222799  12.271   5.060  11.616
 6968SOL     OW22800   3.584  13.983  13.250
 6968SOL    HW122801   3.507  13.998  13.305
 6968SOL    HW222802   3.646  14.050  13.278
 6969SOL     OW22803  10.326  12.408   9.940
 6969SOL    HW122804  10.281  12.364  10.013
 6969SOL    HW222805  10.419  12.390   9.954
 6970SOL     OW22806   0.638   3.792   4.276
 6970SOL    HW122807   0.698   3.800   4.201
 6970SOL    HW222808   0.691   3.754   4.345
 6971SOL     OW22809   5.098  11.539  12.793
 6971SOL    HW122810   5.115  11.478  12.721
 6971SOL    HW222811   5.080  11.482  12.868
 6972SOL     OW22812   0.529   7.183  12.877
 6972SOL    HW122813   0.574   7.179  12.793
 6972SOL    HW222814   0.471   7.259  12.869
 6973SOL     OW22815   1.842  12.269   2.071
 6973SOL    HW122816   1.918  12.226   2.031
 6973SOL    HW222817   1.827  12.221   2.153
 6974SOL     OW22818   7.598   2.883   9.908
 6974SOL    HW122819   7.689   2.909   9.917
 6974SOL    HW222820   7.563   2.939   9.838
 6975SOL     OW22821   7.493   7.608   0.350
 6975SOL    HW122822   7.432   7.537   0.373
 6975SOL    HW222823   7.447   7.688   0.375
 6976SOL     OW22824  12.044   4.786   6.491
 6976SOL    HW122825  12.024   4.880   6.489
 6976SOL    HW222826  12.020   4.758   6.579
 6977SOL     OW22827  10.580   0.535   9.816
 6977SOL    HW122828  10.580   0.600   9.887
 6977SOL    HW222829  10.604   0.585   9.738
 6978SOL     OW22830   1.437   6.739   4.653
 6978SOL    HW122831   1.369   6.780   4.600
 6978SOL    HW222832   1.464   6.662   4.603
 6979SOL     OW22833  14.070  11.021  12.408
 6979SOL    HW122834  14.156  11.064  12.404
 6979SOL    HW222835  14.037  11.024  12.319
 6980SOL     OW22836   2.825   8.911  14.222
 6980SOL    HW122837   2.804   8.940  14.133
 6980SOL    HW222838   2.849   8.819  14.212
 6981SOL     OW22839  12.524   8.644  14.504
 6981SOL    HW122840  12.504   8.581  14.572
 6981SOL    HW222841  12.618   8.662  14.514
 6982SOL     OW22842   7.404   1.986   6.319
 6982SOL    HW122843   7.428   1.975   6.227
 6982SOL    HW222844   7.484   2.014   6.363
 6983SOL     OW22845  14.615   6.331  10.917
 6983SOL    HW122846  14.665   6.273  10.974
 6983SOL    HW222847  14.584   6.401  10.976
 6984SOL     OW22848   2.000  14.231  12.511
 6984SOL    HW122849   1.970  14.153  12.465
 6984SOL    HW222850   2.000  14.299  12.443
 6985SOL     OW22851  11.747  11.760  13.373
 6985SOL    HW122852  11.804  11.821  13.417
 6985SOL    HW222853  11.674  11.746  13.434
 6986SOL     OW22854   7.552   6.767   4.507
 6986SOL    HW122855   7.570   6.861   4.511
 6986SOL    HW222856   7.578   6.742   4.418
 6987SOL     OW22857   7.686  11.890   7.124
 6987SOL    HW122858   7.748  11.961   7.109
 6987SOL    HW222859   7.716  11.820   7.067
 6988SOL     OW22860   0.959   6.379  14.671
 6988SOL    HW122861   0.969   6.474  14.657
 6988SOL    HW222862   1.048   6.347  14.677
 6989SOL     OW22863   5.424   4.489   1.254
 6989SOL    HW122864   5.386   4.499   1.167
 6989SOL    HW222865   5.405   4.398   1.278
 6990SOL     OW22866  13.529   7.489   0.516
 6990SOL    HW122867  13.504   7.408   0.472
 6990SOL    HW222868  13.458   7.506   0.578
 6991SOL     OW22869  13.040   6.031   6.455
 6991SOL    HW122870  13.104   5.963   6.479
 6991SOL    HW222871  13.025   6.079   6.536
 6992SOL     OW22872   6.485  12.482   2.288
 6992SOL    HW122873   6.558  12.520   2.335
 6992SOL    HW222874   6.471  12.396   2.329
 6993SOL     OW22875   9.524   9.598  13.559
 6993SOL    HW122876   9.570   9.610  13.642
 6993SOL    HW222877   9.432   9.589  13.584
 6994SOL     OW22878  12.767   8.298   0.727
 6994SOL    HW122879  12.741   8.325   0.815
 6994SOL    HW222880  12.857   8.328   0.718
 6995SOL     OW22881   0.508   5.601   7.960
 6995SOL    HW122882   0.487   5.690   7.989
 6995SOL    HW222883   0.437   5.578   7.901
 6996SOL     OW22884   7.233  10.780   8.065
 6996SOL    HW122885   7.287  10.812   8.137
 6996SOL    HW222886   7.223  10.686   8.082
 6997SOL     OW22887   8.701  12.886  13.744
 6997SOL    HW122888   8.644  12.837  13.684
 6997SOL    HW222889   8.665  12.868  13.831
 6998SOL     OW22890  10.265   8.445   4.435
 6998SOL    HW122891  10.251   8.407   4.522
 6998SOL    HW222892  10.227   8.381   4.375
 6999SOL     OW22893   0.784  14.048   3.635
 6999SOL    HW122894   0.878  14.062   3.622
 6999SOL    HW222895   0.757  13.996   3.560
 7000SOL     OW22896   5.691  14.253  14.739
 7000SOL    HW122897   5.694  14.343  14.771
 7000SOL    HW222898   5.627  14.256  14.668
 7001SOL     OW22899  10.880   8.506   9.157
 7001SOL    HW122900  10.792   8.542   9.170
 7001SOL    HW222901  10.865   8.419   9.119
 7002SOL     OW22902   1.048   3.718  11.631
 7002SOL    HW122903   1.025   3.767  11.710
 7002SOL    HW222904   1.084   3.783  11.571
 7003SOL     OW22905   9.110   1.768  13.523
 7003SOL    HW122906   9.033   1.797  13.571
 7003SOL    HW222907   9.184   1.810  13.568
 7004SOL     OW22908   0.312  14.478   3.486
 7004SOL    HW122909   0.349  14.553   3.532
 7004SOL    HW222910   0.382  14.449   3.427
 7005SOL     OW22911   2.168   2.292  10.017
 7005SOL    HW122912   2.188   2.374  10.063
 7005SOL    HW222913   2.209   2.301   9.932
 7006SOL     OW22914   9.726   5.483   6.259
 7006SOL    HW122915   9.665   5.450   6.325
 7006SOL    HW222916   9.697   5.572   6.240
 7007SOL     OW22917   5.556   2.090   5.095
 7007SOL    HW122918   5.650   2.075   5.087
 7007SOL    HW222919   5.547   2.150   5.169
 7008SOL     OW22920   4.897   7.750   0.415
 7008SOL    HW122921   4.971   7.717   0.465
 7008SOL    HW222922   4.931   7.762   0.326
 7009SOL     OW22923   8.104  14.126  14.319
 7009SOL    HW122924   8.184  14.148  14.271
 7009SOL    HW222925   8.111  14.175  14.401
 7010SOL     OW22926   5.289   0.207   9.733
 7010SOL    HW122927   5.202   0.231   9.701
 7010SOL    HW222928   5.344   0.282   9.710
 7011SOL     OW22929   1.325  14.766   1.658
 7011SOL    HW122930   1.409  14.727   1.636
 7011SOL    HW222931   1.348  14.852   1.694
 7012SOL     OW22932   3.546   7.900  12.507
 7012SOL    HW122933   3.599   7.832  12.466
 7012SOL    HW222934   3.544   7.971  12.443
 7013SOL     OW22935   7.682   5.658   1.296
 7013SOL    HW122936   7.603   5.676   1.346
 7013SOL    HW222937   7.714   5.574   1.331
 7014SOL     OW22938  12.183   9.870  13.981
 7014SOL    HW122939  12.126   9.800  13.950
 7014SOL    HW222940  12.225   9.835  14.059
 7015SOL     OW22941  11.370   8.879   2.412
 7015SOL    HW122942  11.451   8.869   2.462
 7015SOL    HW222943  11.390   8.843   2.326
 7016SOL     OW22944   8.317   9.505   7.436
 7016SOL    HW122945   8.354   9.580   7.389
 7016SOL    HW222946   8.228   9.498   7.403
 7017SOL     OW22947   9.603   2.579   7.081
 7017SOL    HW122948   9.542   2.522   7.032
 7017SOL    HW222949   9.689   2.555   7.048
 7018SOL     OW22950   6.151   6.019   5.104
 7018SOL    HW122951   6.094   5.981   5.171
 7018SOL    HW222952   6.116   6.107   5.089
 7019SOL     OW22953   3.798   8.065  14.356
 7019SOL    HW122954   3.829   8.153  14.338
 7019SOL    HW222955   3.705   8.067  14.332
 7020SOL     OW22956   4.082   8.411   4.520
 7020SOL    HW122957   4.032   8.341   4.562
 7020SOL    HW222958   4.087   8.385   4.428
 7021SOL     OW22959   0.094   1.216  10.510
 7021SOL    HW122960   0.128   1.258  10.431
 7021SOL    HW222961   0.047   1.139  10.478
 7022SOL     OW22962   7.764  10.008  13.633
 7022SOL    HW122963   7.692   9.989  13.693
 7022SOL    HW222964   7.801  10.090  13.665
 7023SOL     OW22965  14.448   9.388   1.363
 7023SOL    HW122966  14.454   9.475   1.400
 7023SOL    HW222967  14.451   9.401   1.268
 7024SOL     OW22968   5.484   9.732   3.210
 7024SOL    HW122969   5.457   9.737   3.118
 7024SOL    HW222970   5.425   9.667   3.249
 7025SOL     OW22971  12.493   5.886   1.713
 7025SOL    HW122972  12.518   5.945   1.642
 7025SOL    HW222973  12.504   5.798   1.677
 7026SOL     OW22974  10.851  13.713   6.864
 7026SOL    HW122975  10.811  13.646   6.919
 7026SOL    HW222976  10.882  13.780   6.926
 7027SOL     OW22977   1.430  10.615   1.271
 7027SOL    HW122978   1.495  10.546   1.265
 7027SOL    HW222979   1.346  10.570   1.260
 7028SOL     OW22980   7.710  13.274  12.990
 7028SOL    HW122981   7.781  13.278  13.054
 7028SOL    HW222982   7.749  13.307  12.909
 7029SOL     OW22983  12.707   4.266   7.526
 7029SOL    HW122984  12.696   4.173   7.547
 7029SOL    HW222985  12.678   4.273   7.435
 7030SOL     OW22986   0.088   0.171  13.539
 7030SOL    HW122987   0.028   0.225  13.487
 7030SOL    HW222988   0.115   0.227  13.611
 7031SOL     OW22989   1.809   5.412   7.823
 7031SOL    HW122990   1.750   5.487   7.819
 7031SOL    HW222991   1.880   5.434   7.762
 7032SOL     OW22992  10.264  11.228   6.986
 7032SOL    HW122993  10.319  11.275   7.048
 7032SOL    HW222994  10.283  11.269   6.901
 7033SOL     OW22995   3.378   8.709  12.805
 7033SOL    HW122996   3.468   8.738  12.795
 7033SOL    HW222997   3.376   8.624  12.760
 7034SOL     OW22998   3.838   2.234   3.544
 7034SOL    HW122999   3.788   2.312   3.568
 7034SOL    HW223000   3.904   2.225   3.613
 7035SOL     OW23001   5.191   6.879  14.616
 7035SOL    HW123002   5.242   6.864  14.537
 7035SOL    HW223003   5.201   6.799  14.668
 7036SOL     OW23004  12.908   1.732   4.906
 7036SOL    HW123005  12.885   1.708   4.996
 7036SOL    HW223006  12.864   1.666   4.852
 7037SOL     OW23007   7.362   7.068   6.042
 7037SOL    HW123008   7.429   7.004   6.020
 7037SOL    HW223009   7.384   7.096   6.130
 7038SOL     OW23010   5.197  12.046   0.266
 7038SOL    HW123011   5.260  12.118   0.268
 7038SOL    HW223012   5.250  11.968   0.282
 7039SOL     OW23013   9.494   7.830   2.005
 7039SOL    HW123014   9.440   7.835   1.926
 7039SOL    HW223015   9.432   7.816   2.076
 7040SOL     OW23016   9.036  14.801  13.913
 7040SOL    HW123017   8.944  14.805  13.938
 7040SOL    HW223018   9.043  14.723  13.858
 7041SOL     OW23019  10.610   4.769   2.504
 7041SOL    HW123020  10.601   4.776   2.409
 7041SOL    HW223021  10.566   4.687   2.526
 7042SOL     OW23022  10.475   3.958   1.095
 7042SOL    HW123023  10.486   4.014   1.017
 7042SOL    HW223024  10.415   3.889   1.067
 7043SOL     OW23025   7.651   8.996  14.739
 7043SOL    HW123026   7.616   8.959  14.820
 7043SOL    HW223027   7.575   9.030  14.693
 7044SOL     OW23028  10.965   2.775   8.520
 7044SOL    HW123029  10.948   2.796   8.428
 7044SOL    HW223030  10.947   2.857   8.567
 7045SOL     OW23031   3.031   9.846   6.276
 7045SOL    HW123032   3.115   9.829   6.234
 7045SOL    HW223033   3.054   9.873   6.365
 7046SOL     OW23034  11.178   9.084  13.522
 7046SOL    HW123035  11.248   9.026  13.549
 7046SOL    HW223036  11.171   9.071  13.427
 7047SOL     OW23037   4.424   0.310   3.139
 7047SOL    HW123038   4.333   0.337   3.152
 7047SOL    HW223039   4.421   0.252   3.063
 7048SOL     OW23040   3.604   8.869  12.875
 7048SOL    HW123041   3.533   8.925  12.906
 7048SOL    HW223042   3.655   8.925  12.816
 7049SOL     OW23043   2.453  10.612   4.146
 7049SOL    HW123044   2.434  10.590   4.236
 7049SOL    HW223045   2.546  10.637   4.146
 7050SOL     OW23046   4.702   2.568   0.422
 7050SOL    HW123047   4.706   2.501   0.490
 7050SOL    HW223048   4.609   2.591   0.417
 7051SOL     OW23049   4.344  14.020   3.299
 7051SOL    HW123050   4.386  13.951   3.350
 7051SOL    HW223051   4.262  13.981   3.270
 7052SOL     OW23052   4.819   0.561   5.546
 7052SOL    HW123053   4.764   0.631   5.581
 7052SOL    HW223054   4.836   0.587   5.455
 7053SOL     OW23055   0.373   2.255   7.425
 7053SOL    HW123056   0.282   2.277   7.405
 7053SOL    HW223057   0.386   2.284   7.515
 7054SOL     OW23058   8.200  13.834   3.323
 7054SOL    HW123059   8.286  13.813   3.287
 7054SOL    HW223060   8.147  13.757   3.302
 7055SOL     OW23061   8.668  10.859  14.528
 7055SOL    HW123062   8.670  10.954  14.543
 7055SOL    HW223063   8.732  10.846  14.457
 7056SOL     OW23064   1.303   3.768  11.121
 7056SOL    HW123065   1.384   3.776  11.071
 7056SOL    HW223066   1.309   3.682  11.163
 7057SOL     OW23067   4.486   5.497  13.497
 7057SOL    HW123068   4.422   5.482  13.427
 7057SOL    HW223069   4.547   5.562  13.460
 7058SOL     OW23070   1.752   2.043   3.619
 7058SOL    HW123071   1.714   2.030   3.706
 7058SOL    HW223072   1.825   2.103   3.633
 7059SOL     OW23073   8.210   9.525   3.885
 7059SOL    HW123074   8.230   9.471   3.808
 7059SOL    HW223075   8.144   9.475   3.933
 7060SOL     OW23076  14.374   6.923   2.936
 7060SOL    HW123077  14.335   6.840   2.910
 7060SOL    HW223078  14.468   6.911   2.922
 7061SOL     OW23079  12.873   5.823  12.801
 7061SOL    HW123080  12.792   5.826  12.852
 7061SOL    HW223081  12.943   5.827  12.866
 7062SOL     OW23082  10.227   9.422   5.324
 7062SOL    HW123083  10.208   9.379   5.408
 7062SOL    HW223084  10.296   9.369   5.285
 7063SOL     OW23085   4.016   1.608   4.325
 7063SOL    HW123086   4.052   1.530   4.284
 7063SOL    HW223087   4.090   1.668   4.331
 7064SOL     OW23088   2.867  10.266   3.790
 7064SOL    HW123089   2.933  10.208   3.826
 7064SOL    HW223090   2.885  10.351   3.828
 7065SOL     OW23091   9.038   9.401   9.795
 7065SOL    HW123092   9.062   9.320   9.750
 7065SOL    HW223093   9.041   9.468   9.726
 7066SOL     OW23094   9.701   6.760  12.497
 7066SOL    HW123095   9.611   6.731  12.490
 7066SOL    HW223096   9.709   6.796  12.586
 7067SOL     OW23097   6.436   2.237  10.025
 7067SOL    HW123098   6.372   2.297  10.063
 7067SOL    HW223099   6.408   2.150  10.053
 7068SOL     OW23100   0.649   9.388   0.512
 7068SOL    HW123101   0.738   9.425   0.513
 7068SOL    HW223102   0.662   9.294   0.505
 7069SOL     OW23103   7.018  10.464   0.979
 7069SOL    HW123104   7.034  10.536   0.918
 7069SOL    HW223105   6.923  10.462   0.990
 7070SOL     OW23106   2.986   2.629   4.229
 7070SOL    HW123107   3.081   2.622   4.216
 7070SOL    HW223108   2.952   2.544   4.202
 7071SOL     OW23109   7.633   9.022  13.854
 7071SOL    HW123110   7.673   9.020  13.941
 7071SOL    HW223111   7.696   9.068  13.799
 7072SOL     OW23112  12.746  14.776  12.309
 7072SOL    HW123113  12.774  14.819  12.228
 7072SOL    HW223114  12.766  14.684  12.295
 7073SOL     OW23115   5.161   7.301   2.642
 7073SOL    HW123116   5.072   7.269   2.660
 7073SOL    HW223117   5.154   7.342   2.555
 7074SOL     OW23118   4.840  13.928   6.907
 7074SOL    HW123119   4.842  13.842   6.864
 7074SOL    HW223120   4.854  13.908   7.000
 7075SOL     OW23121  13.712   9.288   5.211
 7075SOL    HW123122  13.636   9.237   5.183
 7075SOL    HW223123  13.770   9.288   5.135
 7076SOL     OW23124   4.857  11.616  12.509
 7076SOL    HW123125   4.880  11.564  12.586
 7076SOL    HW223126   4.762  11.626  12.514
 7077SOL     OW23127  10.877   7.101   5.971
 7077SOL    HW123128  10.888   7.032   6.037
 7077SOL    HW223129  10.923   7.068   5.894
 7078SOL     OW23130  10.780   3.593   4.903
 7078SOL    HW123131  10.771   3.686   4.884
 7078SOL    HW223132  10.861   3.586   4.952
 7079SOL     OW23133  10.612   8.830  14.113
 7079SOL    HW123134  10.527   8.841  14.156
 7079SOL    HW223135  10.662   8.773  14.171
 7080SOL     OW23136   4.197   5.684  12.643
 7080SOL    HW123137   4.191   5.694  12.548
 7080SOL    HW223138   4.114   5.716  12.676
 7081SOL     OW23139  10.789   4.233   1.422
 7081SOL    HW123140  10.756   4.251   1.334
 7081SOL    HW223141  10.725   4.172   1.460
 7082SOL     OW23142   9.555   3.140   3.385
 7082SOL    HW123143   9.638   3.136   3.338
 7082SOL    HW223144   9.576   3.106   3.472
 7083SOL     OW23145   4.275   3.998   4.594
 7083SOL    HW123146   4.202   4.000   4.656
 7083SOL    HW223147   4.244   4.048   4.519
 7084SOL     OW23148   8.328   3.802   0.824
 7084SOL    HW123149   8.256   3.768   0.771
 7084SOL    HW223150   8.323   3.897   0.813
 7085SOL     OW23151   3.290   8.751  13.433
 7085SOL    HW123152   3.333   8.774  13.515
 7085SOL    HW223153   3.229   8.823  13.417
 7086SOL     OW23154   5.490  14.461  14.183
 7086SOL    HW123155   5.412  14.509  14.154
 7086SOL    HW223156   5.507  14.494  14.271
 7087SOL     OW23157   7.312   3.421   1.946
 7087SOL    HW123158   7.340   3.411   1.855
 7087SOL    HW223159   7.250   3.494   1.944
 7088SOL     OW23160   5.381   2.847   0.045
 7088SOL    HW123161   5.353   2.904  14.861
 7088SOL    HW223162   5.300   2.816   0.085
 7089SOL     OW23163   5.216  11.586  14.763
 7089SOL    HW123164   5.225  11.492  14.745
 7089SOL    HW223165   5.190  11.624  14.679
 7090SOL     OW23166   1.611   7.752   2.801
 7090SOL    HW123167   1.637   7.666   2.831
 7090SOL    HW223168   1.641   7.812   2.869
 7091SOL     OW23169   3.357   1.699   3.027
 7091SOL    HW123170   3.353   1.620   2.973
 7091SOL    HW223171   3.279   1.694   3.082
 7092SOL     OW23172  14.149   2.928   6.324
 7092SOL    HW123173  14.121   2.871   6.253
 7092SOL    HW223174  14.237   2.956   6.300
 7093SOL     OW23175   2.168  12.613   1.544
 7093SOL    HW123176   2.082  12.645   1.573
 7093SOL    HW223177   2.147  12.536   1.491
 7094SOL     OW23178   4.997   5.899  14.805
 7094SOL    HW123179   4.938   5.975  14.814
 7094SOL    HW223180   4.977   5.864  14.718
 7095SOL     OW23181   6.788  14.751   7.819
 7095SOL    HW123182   6.837  14.694   7.879
 7095SOL    HW223183   6.807  14.840   7.849
 7096SOL     OW23184   9.601   9.905   9.998
 7096SOL    HW123185   9.548   9.978   9.965
 7096SOL    HW223186   9.670   9.894   9.932
 7097SOL     OW23187  14.544   5.897   4.197
 7097SOL    HW123188  14.592   5.872   4.276
 7097SOL    HW223189  14.462   5.935   4.230
 7098SOL     OW23190   2.525   2.975  13.695
 7098SOL    HW123191   2.482   2.999  13.613
 7098SOL    HW223192   2.471   3.016  13.763
 7099SOL     OW23193   4.585  10.369   0.951
 7099SOL    HW123194   4.585  10.341   0.860
 7099SOL    HW223195   4.497  10.350   0.983
 7100SOL     OW23196   9.362   3.448   9.201
 7100SOL    HW123197   9.269   3.433   9.185
 7100SOL    HW223198   9.365   3.527   9.256
 7101SOL     OW23199  13.977   4.956   0.557
 7101SOL    HW123200  13.968   5.037   0.605
 7101SOL    HW223201  13.901   4.953   0.499
 7102SOL     OW23202   9.564   8.007  14.113
 7102SOL    HW123203   9.584   7.919  14.143
 7102SOL    HW223204   9.564   8.001  14.018
 7103SOL     OW23205  13.328   8.694   5.110
 7103SOL    HW123206  13.346   8.668   5.020
 7103SOL    HW223207  13.326   8.612   5.159
 7104SOL     OW23208   9.170   8.733   7.547
 7104SOL    HW123209   9.076   8.749   7.538
 7104SOL    HW223210   9.199   8.795   7.614
 7105SOL     OW23211  10.170   6.967   7.410
 7105SOL    HW123212  10.145   7.013   7.489
 7105SOL    HW223213  10.091   6.968   7.356
 7106SOL     OW23214   1.685  13.090   5.306
 7106SOL    HW123215   1.718  13.141   5.380
 7106SOL    HW223216   1.636  13.018   5.346
 7107SOL     OW23217   2.171  12.704   3.872
 7107SOL    HW123218   2.089  12.655   3.881
 7107SOL    HW223219   2.187  12.739   3.960
 7108SOL     OW23220   2.333   1.077   4.456
 7108SOL    HW123221   2.420   1.112   4.436
 7108SOL    HW223222   2.273   1.138   4.414
 7109SOL     OW23223  14.177   6.304  12.170
 7109SOL    HW123224  14.162   6.365  12.098
 7109SOL    HW223225  14.184   6.218  12.128
 7110SOL     OW23226   3.984   0.083  13.901
 7110SOL    HW123227   3.936   0.136  13.837
 7110SOL    HW223228   3.992   0.141  13.977
 7111SOL     OW23229  12.943   8.242   7.397
 7111SOL    HW123230  12.980   8.262   7.482
 7111SOL    HW223231  12.897   8.322   7.370
 7112SOL     OW23232   4.482  13.442   0.354
 7112SOL    HW123233   4.563  13.393   0.369
 7112SOL    HW223234   4.504  13.505   0.286
 7113SOL     OW23235   1.352   9.203   4.966
 7113SOL    HW123236   1.426   9.196   5.026
 7113SOL    HW223237   1.390   9.191   4.879
 7114SOL     OW23238  12.072   9.163  14.572
 7114SOL    HW123239  12.006   9.103  14.609
 7114SOL    HW223240  12.040   9.182  14.484
 7115SOL     OW23241   4.555  12.576   5.995
 7115SOL    HW123242   4.461  12.579   6.013
 7115SOL    HW223243   4.573  12.485   5.973
 7116SOL     OW23244   1.075   3.980   2.914
 7116SOL    HW123245   1.147   4.035   2.945
 7116SOL    HW223246   1.111   3.891   2.914
 7117SOL     OW23247   2.743  11.940   7.949
 7117SOL    HW123248   2.734  12.032   7.973
 7117SOL    HW223249   2.826  11.936   7.900
 7118SOL     OW23250   9.972   1.569   9.834
 7118SOL    HW123251   9.970   1.474   9.840
 7118SOL    HW223252   9.944   1.589   9.745
 7119SOL     OW23253   8.606   6.079   3.488
 7119SOL    HW123254   8.598   6.133   3.409
 7119SOL    HW223255   8.594   6.140   3.561
 7120SOL     OW23256   3.195   1.761   6.373
 7120SOL    HW123257   3.116   1.786   6.422
 7120SOL    HW223258   3.161   1.721   6.293
 7121SOL     OW23259  12.394  11.723  10.825
 7121SOL    HW123260  12.412  11.731  10.918
 7121SOL    HW223261  12.469  11.766  10.783
 7122SOL     OW23262  14.522   0.847  14.477
 7122SOL    HW123263  14.606   0.891  14.490
 7122SOL    HW223264  14.471   0.870  14.554
 7123SOL     OW23265   5.485   5.477   9.568
 7123SOL    HW123266   5.547   5.507   9.635
 7123SOL    HW223267   5.527   5.501   9.485
 7124SOL     OW23268   6.431  10.996   4.286
 7124SOL    HW123269   6.423  10.914   4.237
 7124SOL    HW223270   6.342  11.018   4.312
 7125SOL     OW23271   8.390  12.896   3.695
 7125SOL    HW123272   8.347  12.853   3.621
 7125SOL    HW223273   8.411  12.984   3.663
 7126SOL     OW23274   4.079  11.948   4.753
 7126SOL    HW123275   4.043  11.867   4.788
 7126SOL    HW223276   4.165  11.956   4.793
 7127SOL     OW23277   0.973   5.221   0.748
 7127SOL    HW123278   1.047   5.244   0.804
 7127SOL    HW223279   0.913   5.295   0.755
 7128SOL     OW23280   4.163   5.269   5.034
 7128SOL    HW123281   4.143   5.349   5.083
 7128SOL    HW223282   4.246   5.289   4.989
 7129SOL     OW23283   9.533   2.077   2.916
 7129SOL    HW123284   9.623   2.072   2.947
 7129SOL    HW223285   9.499   2.158   2.955
 7130SOL     OW23286  14.005   8.077   6.198
 7130SOL    HW123287  13.957   8.002   6.162
 7130SOL    HW223288  13.960   8.096   6.281
 7131SOL     OW23289  10.232  12.477   7.533
 7131SOL    HW123290  10.224  12.396   7.584
 7131SOL    HW223291  10.155  12.478   7.477
 7132SOL     OW23292  13.241   2.460   0.390
 7132SOL    HW123293  13.276   2.539   0.430
 7132SOL    HW223294  13.316   2.401   0.383
 7133SOL     OW23295  10.827   3.543   2.343
 7133SOL    HW123296  10.912   3.508   2.369
 7133SOL    HW223297  10.781   3.557   2.426
 7134SOL     OW23298   1.093   9.753   9.605
 7134SOL    HW123299   1.056   9.665   9.618
 7134SOL    HW223300   1.184   9.744   9.631
 7135SOL     OW23301   8.583   6.007   7.671
 7135SOL    HW123302   8.623   6.084   7.629
 7135SOL    HW223303   8.594   5.937   7.607
 7136SOL     OW23304   5.510  10.385   3.084
 7136SOL    HW123305   5.486  10.446   3.155
 7136SOL    HW223306   5.586  10.338   3.118
 7137SOL     OW23307   1.648   8.486  14.084
 7137SOL    HW123308   1.562   8.465  14.122
 7137SOL    HW223309   1.628   8.516  13.995
 7138SOL     OW23310  13.249  11.767  11.100
 7138SOL    HW123311  13.155  11.774  11.116
 7138SOL    HW223312  13.284  11.725  11.178
 7139SOL     OW23313   2.816   4.332   4.350
 7139SOL    HW123314   2.821   4.414   4.400
 7139SOL    HW223315   2.882   4.276   4.389
 7140SOL     OW23316   1.659  11.076  10.157
 7140SOL    HW123317   1.577  11.056  10.203
 7140SOL    HW223318   1.726  11.030  10.207
 7141SOL     OW23319   5.816   3.235   6.430
 7141SOL    HW123320   5.787   3.149   6.461
 7141SOL    HW223321   5.901   3.248   6.472
 7142SOL     OW23322   5.935  10.783  11.186
 7142SOL    HW123323   5.930  10.778  11.282
 7142SOL    HW223324   5.965  10.872  11.168
 7143SOL     OW23325   4.916   5.467   7.821
 7143SOL    HW123326   4.829   5.450   7.787
 7143SOL    HW223327   4.901   5.504   7.908
 7144SOL     OW23328   0.233  10.270  10.550
 7144SOL    HW123329   0.258  10.224  10.471
 7144SOL    HW223330   0.141  10.247  10.564
 7145SOL     OW23331  11.931  10.144   4.690
 7145SOL    HW123332  11.972  10.058   4.694
 7145SOL    HW223333  11.845  10.132   4.731
 7146SOL     OW23334   8.333   2.229  13.568
 7146SOL    HW123335   8.428   2.220  13.563
 7146SOL    HW223336   8.300   2.139  13.566
 7147SOL     OW23337  12.314   3.298  11.068
 7147SOL    HW123338  12.370   3.244  11.123
 7147SOL    HW223339  12.322   3.386  11.105
 7148SOL     OW23340   8.161  13.564   1.454
 7148SOL    HW123341   8.143  13.556   1.360
 7148SOL    HW223342   8.150  13.476   1.488
 7149SOL     OW23343   4.111   6.208  10.578
 7149SOL    HW123344   4.165   6.220  10.499
 7149SOL    HW223345   4.106   6.113  10.590
 7150SOL     OW23346  11.815  14.362   1.782
 7150SOL    HW123347  11.745  14.402   1.834
 7150SOL    HW223348  11.885  14.427   1.782
 7151SOL     OW23349  10.033   5.675  12.873
 7151SOL    HW123350   9.974   5.633  12.809
 7151SOL    HW223351  10.080   5.602  12.913
 7152SOL     OW23352   8.413   3.867  13.225
 7152SOL    HW123353   8.495   3.833  13.189
 7152SOL    HW223354   8.365   3.790  13.255
 7153SOL     OW23355  11.537  12.001   2.945
 7153SOL    HW123356  11.467  11.989   3.010
 7153SOL    HW223357  11.609  12.040   2.994
 7154SOL     OW23358  10.298   5.082   8.759
 7154SOL    HW123359  10.317   5.056   8.669
 7154SOL    HW223360  10.380   5.121   8.790
 7155SOL     OW23361   7.346  11.744  12.191
 7155SOL    HW123362   7.363  11.749  12.097
 7155SOL    HW223363   7.433  11.745  12.231
 7156SOL     OW23364   7.673   0.841  10.009
 7156SOL    HW123365   7.707   0.796  10.086
 7156SOL    HW223366   7.666   0.772   9.942
 7157SOL     OW23367  10.793   3.161   5.572
 7157SOL    HW123368  10.835   3.231   5.522
 7157SOL    HW223369  10.851   3.085   5.561
 7158SOL     OW23370   2.530   5.314  14.217
 7158SOL    HW123371   2.475   5.258  14.162
 7158SOL    HW223372   2.480   5.322  14.299
 7159SOL     OW23373   2.568   9.350   7.263
 7159SOL    HW123374   2.647   9.301   7.284
 7159SOL    HW223375   2.509   9.285   7.224
 7160SOL     OW23376   3.446   2.150   1.754
 7160SOL    HW123377   3.412   2.163   1.843
 7160SOL    HW223378   3.535   2.184   1.757
 7161SOL     OW23379   4.702  12.913  12.076
 7161SOL    HW123380   4.789  12.953  12.067
 7161SOL    HW223381   4.713  12.825  12.040
 7162SOL     OW23382  10.299   7.404   4.830
 7162SOL    HW123383  10.307   7.336   4.897
 7162SOL    HW223384  10.383   7.450   4.832
 7163SOL     OW23385   2.179  12.114   0.667
 7163SOL    HW123386   2.257  12.059   0.659
 7163SOL    HW223387   2.209  12.190   0.718
 7164SOL     OW23388   0.344  13.889  12.894
 7164SOL    HW123389   0.315  13.968  12.849
 7164SOL    HW223390   0.302  13.894  12.980
 7165SOL     OW23391  11.428  10.914   8.253
 7165SOL    HW123392  11.406  11.002   8.222
 7165SOL    HW223393  11.347  10.883   8.294
 7166SOL     OW23394   8.857   2.688   3.305
 7166SOL    HW123395   8.943   2.729   3.298
 7166SOL    HW223396   8.871   2.613   3.364
 7167SOL     OW23397   9.046   1.091  12.364
 7167SOL    HW123398   9.079   1.162  12.419
 7167SOL    HW223399   8.999   1.135  12.293
 7168SOL     OW23400   4.910  13.750   5.555
 7168SOL    HW123401   4.991  13.796   5.536
 7168SOL    HW223402   4.919  13.665   5.511
 7169SOL     OW23403  10.797   2.028   8.901
 7169SOL    HW123404  10.822   1.936   8.912
 7169SOL    HW223405  10.728   2.042   8.966
 7170SOL     OW23406  14.871   6.412  14.880
 7170SOL    HW123407  14.822   6.377   0.067
 7170SOL    HW223408   0.076   6.397   0.015
 7171SOL     OW23409  13.160   5.377   7.466
 7171SOL    HW123410  13.239   5.425   7.443
 7171SOL    HW223411  13.192   5.293   7.500
 7172SOL     OW23412   0.604   2.220   6.700
 7172SOL    HW123413   0.564   2.202   6.615
 7172SOL    HW223414   0.672   2.285   6.681
 7173SOL     OW23415   9.490   2.111  14.047
 7173SOL    HW123416   9.429   2.172  14.007
 7173SOL    HW223417   9.575   2.153  14.039
 7174SOL     OW23418   9.913  13.295  12.874
 7174SOL    HW123419   9.894  13.318  12.783
 7174SOL    HW223420   9.831  13.314  12.920
 7175SOL     OW23421   7.486   9.831  12.597
 7175SOL    HW123422   7.552   9.881  12.548
 7175SOL    HW223423   7.434   9.788  12.529
 7176SOL     OW23424   8.328  12.678   5.566
 7176SOL    HW123425   8.384  12.756   5.569
 7176SOL    HW223426   8.327  12.653   5.474
 7177SOL     OW23427   1.137   9.763  12.413
 7177SOL    HW123428   1.220   9.771  12.367
 7177SOL    HW223429   1.150   9.812  12.494
 7178SOL     OW23430  11.154   1.471  13.386
 7178SOL    HW123431  11.095   1.426  13.325
 7178SOL    HW223432  11.207   1.528  13.331
 7179SOL     OW23433   0.549   3.310   7.399
 7179SOL    HW123434   0.477   3.272   7.449
 7179SOL    HW223435   0.628   3.277   7.441
 7180SOL     OW23436  11.032   6.947  11.365
 7180SOL    HW123437  11.113   6.980  11.326
 7180SOL    HW223438  10.973   6.936  11.290
 7181SOL     OW23439   9.457   9.868   5.009
 7181SOL    HW123440   9.421   9.874   4.921
 7181SOL    HW223441   9.550   9.848   4.997
 7182SOL     OW23442   8.501   0.091   4.956
 7182SOL    HW123443   8.500   0.167   4.897
 7182SOL    HW223444   8.411   0.087   4.990
 7183SOL     OW23445   7.030   9.976   0.386
 7183SOL    HW123446   7.026   9.881   0.380
 7183SOL    HW223447   7.115   9.999   0.348
 7184SOL     OW23448   1.016   7.789  10.766
 7184SOL    HW123449   1.024   7.785  10.670
 7184SOL    HW223450   1.048   7.876  10.789
 7185SOL     OW23451   5.388   1.437   8.350
 7185SOL    HW123452   5.404   1.465   8.440
 7185SOL    HW223453   5.296   1.459   8.335
 7186SOL     OW23454   8.228   9.635   3.246
 7186SOL    HW123455   8.270   9.577   3.182
 7186SOL    HW223456   8.205   9.713   3.195
 7187SOL     OW23457  13.587   7.597   3.434
 7187SOL    HW123458  13.616   7.567   3.348
 7187SOL    HW223459  13.560   7.517   3.479
 7188SOL     OW23460   4.457  14.361   9.533
 7188SOL    HW123461   4.372  14.392   9.501
 7188SOL    HW223462   4.440  14.335   9.623
 7189SOL     OW23463  14.501   5.927   6.687
 7189SOL    HW123464  14.418   5.889   6.716
 7189SOL    HW223465  14.564   5.902   6.754
 7190SOL     OW23466  12.032   8.990   4.893
 7190SOL    HW123467  12.084   8.996   4.813
 7190SOL    HW223468  11.960   9.051   4.879
 7191SOL     OW23469  10.358   0.189  13.728
 7191SOL    HW123470  10.266   0.208  13.745
 7191SOL    HW223471  10.387   0.259  13.670
 7192SOL     OW23472   6.733   0.358   3.103
 7192SOL    HW123473   6.827   0.375   3.095
 7192SOL    HW223474   6.706   0.332   3.015
 7193SOL     OW23475   2.501  12.765   4.180
 7193SOL    HW123476   2.580  12.819   4.172
 7193SOL    HW223477   2.534  12.677   4.201
 7194SOL     OW23478   5.269  11.081  11.022
 7194SOL    HW123479   5.287  11.073  11.115
 7194SOL    HW223480   5.173  11.082  11.016
 7195SOL     OW23481   6.071   4.886   6.426
 7195SOL    HW123482   6.125   4.846   6.494
 7195SOL    HW223483   6.131   4.945   6.380
 7196SOL     OW23484   4.742  14.233   6.130
 7196SOL    HW123485   4.694  14.303   6.175
 7196SOL    HW223486   4.695  14.153   6.155
 7197SOL     OW23487  14.848  11.318   3.044
 7197SOL    HW123488   0.054  11.326   3.025
 7197SOL    HW223489  14.821  11.406   3.073
 7198SOL     OW23490  13.793  14.659   1.957
 7198SOL    HW123491  13.844  14.634   2.034
 7198SOL    HW223492  13.807  14.587   1.895
 7199SOL     OW23493   5.937   0.913   1.877
 7199SOL    HW123494   5.862   0.919   1.936
 7199SOL    HW223495   6.010   0.951   1.926
 7200SOL     OW23496   2.151   0.778   5.486
 7200SOL    HW123497   2.137   0.816   5.573
 7200SOL    HW223498   2.144   0.684   5.500
 7201SOL     OW23499   4.091   9.418  10.889
 7201SOL    HW123500   4.073   9.325  10.895
 7201SOL    HW223501   4.166   9.432  10.947
 7202SOL     OW23502   0.145   6.748   2.583
 7202SOL    HW123503   0.173   6.797   2.506
 7202SOL    HW223504   0.173   6.658   2.565
 7203SOL     OW23505   6.084   5.125   2.726
 7203SOL    HW123506   6.100   5.095   2.637
 7203SOL    HW223507   6.084   5.046   2.779
 7204SOL     OW23508   1.776   3.193  10.973
 7204SOL    HW123509   1.693   3.223  10.938
 7204SOL    HW223510   1.842   3.250  10.932
 7205SOL     OW23511   4.155   0.221   0.185
 7205SOL    HW123512   4.139   0.127   0.187
 7205SOL    HW223513   4.209   0.238   0.262
 7206SOL     OW23514   6.218   5.107   9.983
 7206SOL    HW123515   6.202   5.078  10.072
 7206SOL    HW223516   6.160   5.183   9.972
 7207SOL     OW23517   6.356   4.789   7.763
 7207SOL    HW123518   6.424   4.723   7.744
 7207SOL    HW223519   6.403   4.860   7.805
 7208SOL     OW23520   2.005   5.141   1.860
 7208SOL    HW123521   2.087   5.182   1.885
 7208SOL    HW223522   1.987   5.079   1.931
 7209SOL     OW23523  12.949   4.581   5.519
 7209SOL    HW123524  12.893   4.545   5.588
 7209SOL    HW223525  13.021   4.518   5.512
 7210SOL     OW23526  12.040   0.043   0.108
 7210SOL    HW123527  12.118   0.097   0.092
 7210SOL    HW223528  11.977   0.103   0.149
 7211SOL     OW23529   8.057   8.402   1.932
 7211SOL    HW123530   8.050   8.461   2.008
 7211SOL    HW223531   8.063   8.460   1.857
 7212SOL     OW23532   0.054   4.298  10.916
 7212SOL    HW123533   0.088   4.209  10.918
 7212SOL    HW223534   0.001   4.305  10.996
 7213SOL     OW23535   9.716  14.647   7.640
 7213SOL    HW123536   9.726  14.683   7.552
 7213SOL    HW223537   9.676  14.561   7.626
 7214SOL     OW23538  12.774   2.185  10.637
 7214SOL    HW123539  12.714   2.110  10.643
 7214SOL    HW223540  12.730   2.255  10.686
 7215SOL     OW23541  13.409   0.961  10.513
 7215SOL    HW123542  13.391   0.993  10.602
 7215SOL    HW223543  13.496   0.994  10.493
 7216SOL     OW23544  12.697   7.709   9.170
 7216SOL    HW123545  12.629   7.660   9.217
 7216SOL    HW223546  12.691   7.678   9.080
 7217SOL     OW23547  13.663  14.764   1.450
 7217SOL    HW123548  13.705  14.678   1.454
 7217SOL    HW223549  13.725  14.820   1.402
 7218SOL     OW23550   9.836   6.829   8.095
 7218SOL    HW123551   9.853   6.899   8.158
 7218SOL    HW223552   9.750   6.849   8.058
 7219SOL     OW23553  13.497   5.943   4.252
 7219SOL    HW123554  13.522   5.962   4.342
 7219SOL    HW223555  13.417   5.891   4.259
 7220SOL     OW23556  10.864  13.613  12.359
 7220SOL    HW123557  10.892  13.675  12.427
 7220SOL    HW223558  10.922  13.538  12.371
 7221SOL     OW23559   4.269  11.743  13.996
 7221SOL    HW123560   4.227  11.694  13.925
 7221SOL    HW223561   4.223  11.827  13.998
 7222SOL     OW23562  14.032   0.325   1.598
 7222SOL    HW123563  14.021   0.355   1.508
 7222SOL    HW223564  13.965   0.373   1.648
 7223SOL     OW23565   7.367  14.419  12.061
 7223SOL    HW123566   7.344  14.370  11.982
 7223SOL    HW223567   7.288  14.415  12.115
 7224SOL     OW23568   2.106  10.582  10.308
 7224SOL    HW123569   2.130  10.493  10.285
 7224SOL    HW223570   2.088  10.624  10.224
 7225SOL     OW23571   3.269   7.333   3.535
 7225SOL    HW123572   3.321   7.404   3.571
 7225SOL    HW223573   3.333   7.274   3.494
 7226SOL     OW23574   7.143   0.502   7.461
 7226SOL    HW123575   7.052   0.511   7.431
 7226SOL    HW223576   7.136   0.468   7.550
 7227SOL     OW23577   9.620   1.709  12.340
 7227SOL    HW123578   9.586   1.621  12.320
 7227SOL    HW223579   9.546   1.767  12.323
 7228SOL     OW23580   7.476  14.755  12.009
 7228SOL    HW123581   7.471  14.663  11.981
 7228SOL    HW223582   7.562  14.784  11.978
 7229SOL     OW23583  10.586   6.260  12.744
 7229SOL    HW123584  10.547   6.172  12.742
 7229SOL    HW223585  10.624   6.268  12.831
 7230SOL     OW23586   1.441  14.141   4.085
 7230SOL    HW123587   1.409  14.094   4.009
 7230SOL    HW223588   1.362  14.177   4.126
 7231SOL     OW23589   9.776   8.389   8.940
 7231SOL    HW123590   9.870   8.406   8.951
 7231SOL    HW223591   9.763   8.302   8.978
 7232SOL     OW23592  14.513   5.650  11.442
 7232SOL    HW123593  14.573   5.707  11.489
 7232SOL    HW223594  14.432   5.653  11.493
 7233SOL     OW23595   2.425  13.526   7.132
 7233SOL    HW123596   2.335  13.538   7.104
 7233SOL    HW223597   2.465  13.473   7.063
 7234SOL     OW23598   1.494   9.028  13.810
 7234SOL    HW123599   1.533   9.064  13.890
 7234SOL    HW223600   1.418   9.083  13.793
 7235SOL     OW23601   5.374   4.214   1.274
 7235SOL    HW123602   5.411   4.150   1.214
 7235SOL    HW223603   5.288   4.234   1.239
 7236SOL     OW23604  12.376  11.845  11.074
 7236SOL    HW123605  12.310  11.786  11.110
 7236SOL    HW223606  12.349  11.932  11.103
 7237SOL     OW23607   0.582   0.033   8.912
 7237SOL    HW123608   0.616   0.094   8.846
 7237SOL    HW223609   0.626  14.838   8.892
 7238SOL     OW23610  12.595   3.465   9.816
 7238SOL    HW123611  12.683   3.450   9.849
 7238SOL    HW223612  12.599   3.435   9.724
 7239SOL     OW23613   8.090  11.318   1.096
 7239SOL    HW123614   8.015  11.299   1.040
 7239SOL    HW223615   8.137  11.388   1.051
 7240SOL     OW23616   8.573   7.973   2.263
 7240SOL    HW123617   8.634   8.016   2.203
 7240SOL    HW223618   8.530   7.906   2.210
 7241SOL     OW23619   1.220   6.944  11.632
 7241SOL    HW123620   1.192   6.853  11.636
 7241SOL    HW223621   1.314   6.940  11.613
 7242SOL     OW23622   7.091   6.530   6.283
 7242SOL    HW123623   7.141   6.464   6.235
 7242SOL    HW223624   7.103   6.507   6.375
 7243SOL     OW23625   6.660   4.034   9.505
 7243SOL    HW123626   6.591   4.081   9.458
 7243SOL    HW223627   6.664   4.077   9.591
 7244SOL     OW23628  11.035   9.657   0.557
 7244SOL    HW123629  11.047   9.684   0.466
 7244SOL    HW223630  11.049   9.562   0.556
 7245SOL     OW23631   5.836  11.691  10.267
 7245SOL    HW123632   5.907  11.748  10.237
 7245SOL    HW223633   5.784  11.675  10.189
 7246SOL     OW23634   0.051   5.610  10.370
 7246SOL    HW123635   0.021   5.546  10.305
 7246SOL    HW223636  14.859   5.652  10.402
 7247SOL     OW23637  14.853  11.829   2.577
 7247SOL    HW123638   0.027  11.777   2.525
 7247SOL    HW223639   0.012  11.848   2.658
 7248SOL     OW23640   5.795   7.756   3.990
 7248SOL    HW123641   5.782   7.848   3.970
 7248SOL    HW223642   5.742   7.740   4.068
 7249SOL     OW23643   6.982   7.510   4.826
 7249SOL    HW123644   6.903   7.519   4.773
 7249SOL    HW223645   7.008   7.600   4.846
 7250SOL     OW23646   4.820  11.004  11.239
 7250SOL    HW123647   4.861  10.997  11.325
 7250SOL    HW223648   4.745  11.063  11.252
 7251SOL     OW23649   0.917   4.635   7.247
 7251SOL    HW123650   0.869   4.562   7.286
 7251SOL    HW223651   1.006   4.626   7.281
 7252SOL     OW23652   6.039   1.020   0.284
 7252SOL    HW123653   6.000   0.945   0.239
 7252SOL    HW223654   6.132   1.014   0.262
 7253SOL     OW23655   9.459   5.734   5.094
 7253SOL    HW123656   9.518   5.662   5.073
 7253SOL    HW223657   9.410   5.750   5.014
 7254SOL     OW23658   9.042   0.230  11.468
 7254SOL    HW123659   9.009   0.236  11.558
 7254SOL    HW223660   9.100   0.305  11.459
 7255SOL     OW23661  11.847   9.396   4.366
 7255SOL    HW123662  11.759   9.361   4.349
 7255SOL    HW223663  11.899   9.318   4.386
 7256SOL     OW23664  14.254   6.477   6.736
 7256SOL    HW123665  14.238   6.410   6.670
 7256SOL    HW223666  14.271   6.427   6.816
 7257SOL     OW23667   5.634   7.275   7.455
 7257SOL    HW123668   5.710   7.321   7.418
 7257SOL    HW223669   5.567   7.343   7.463
 7258SOL     OW23670   3.684   1.872  10.457
 7258SOL    HW123671   3.726   1.882  10.542
 7258SOL    HW223672   3.604   1.926  10.463
 7259SOL     OW23673   8.188  12.784   8.212
 7259SOL    HW123674   8.129  12.727   8.162
 7259SOL    HW223675   8.274  12.741   8.205
 7260SOL     OW23676  14.378  12.961   2.427
 7260SOL    HW123677  14.301  13.011   2.455
 7260SOL    HW223678  14.415  12.926   2.508
 7261SOL     OW23679   4.650  11.652   8.319
 7261SOL    HW123680   4.568  11.691   8.289
 7261SOL    HW223681   4.717  11.688   8.260
 7262SOL     OW23682  12.132  14.061   1.677
 7262SOL    HW123683  12.037  14.051   1.676
 7262SOL    HW223684  12.158  14.034   1.766
 7263SOL     OW23685   4.029   9.663  11.724
 7263SOL    HW123686   3.966   9.594  11.747
 7263SOL    HW223687   3.975   9.742  11.716
 7264SOL     OW23688   9.974   2.145  13.036
 7264SOL    HW123689   9.942   2.233  13.018
 7264SOL    HW223690   9.895   2.091  13.043
 7265SOL     OW23691  11.585   7.889   0.802
 7265SOL    HW123692  11.577   7.836   0.724
 7265SOL    HW223693  11.503   7.873   0.850
 7266SOL     OW23694   0.585   0.404   3.394
 7266SOL    HW123695   0.544   0.343   3.333
 7266SOL    HW223696   0.545   0.384   3.479
 7267SOL     OW23697   1.439   0.380  11.008
 7267SOL    HW123698   1.462   0.394  10.916
 7267SOL    HW223699   1.474   0.293  11.028
 7268SOL     OW23700   5.938   4.769   7.097
 7268SOL    HW123701   6.023   4.811   7.110
 7268SOL    HW223702   5.902   4.760   7.185
 7269SOL     OW23703  10.988   4.085  14.673
 7269SOL    HW123704  10.955   4.101  14.585
 7269SOL    HW223705  11.035   4.165  14.696
 7270SOL     OW23706  14.203  12.530   0.484
 7270SOL    HW123707  14.217  12.468   0.556
 7270SOL    HW223708  14.132  12.587   0.515
 7271SOL     OW23709   1.989   5.986   5.978
 7271SOL    HW123710   1.945   5.930   5.915
 7271SOL    HW223711   1.978   6.075   5.944
 7272SOL     OW23712  13.601   9.819   0.663
 7272SOL    HW123713  13.598   9.748   0.599
 7272SOL    HW223714  13.517   9.862   0.655
 7273SOL     OW23715   0.635   3.348   3.487
 7273SOL    HW123716   0.620   3.440   3.511
 7273SOL    HW223717   0.730   3.339   3.484
 7274SOL     OW23718   1.811  14.148   9.655
 7274SOL    HW123719   1.890  14.124   9.606
 7274SOL    HW223720   1.758  14.068   9.655
 7275SOL     OW23721   6.780   0.163  12.433
 7275SOL    HW123722   6.807   0.071  12.427
 7275SOL    HW223723   6.685   0.160  12.430
 7276SOL     OW23724   5.865   7.887   8.859
 7276SOL    HW123725   5.821   7.818   8.909
 7276SOL    HW223726   5.805   7.906   8.787
 7277SOL     OW23727  13.188   4.318  14.441
 7277SOL    HW123728  13.253   4.249  14.428
 7277SOL    HW223729  13.119   4.296  14.378
 7278SOL     OW23730   2.308   3.684   5.299
 7278SOL    HW123731   2.283   3.767   5.341
 7278SOL    HW223732   2.234   3.664   5.241
 7279SOL     OW23733   0.177   4.897  12.781
 7279SOL    HW123734   0.084   4.893  12.802
 7279SOL    HW223735   0.214   4.954  12.847
 7280SOL     OW23736   3.366  13.899   3.405
 7280SOL    HW123737   3.405  13.894   3.492
 7280SOL    HW223738   3.273  13.913   3.422
 7281SOL     OW23739  14.391   4.007   4.475
 7281SOL    HW123740  14.471   4.039   4.516
 7281SOL    HW223741  14.384   4.056   4.393
 7282SOL     OW23742  11.929  11.854   6.262
 7282SOL    HW123743  11.834  11.866   6.267
 7282SOL    HW223744  11.940  11.773   6.212
 7283SOL     OW23745   7.362   4.986   5.563
 7283SOL    HW123746   7.387   5.078   5.556
 7283SOL    HW223747   7.364   4.967   5.657
 7284SOL     OW23748  12.087  13.964   5.134
 7284SOL    HW123749  12.010  13.933   5.087
 7284SOL    HW223750  12.057  13.973   5.225
 7285SOL     OW23751   1.021  11.814   2.573
 7285SOL    HW123752   1.052  11.725   2.590
 7285SOL    HW223753   1.100  11.864   2.554
 7286SOL     OW23754   5.244  11.378  13.330
 7286SOL    HW123755   5.193  11.427  13.395
 7286SOL    HW223756   5.296  11.316  13.382
 7287SOL     OW23757  12.176  14.322   7.900
 7287SOL    HW123758  12.217  14.390   7.953
 7287SOL    HW223759  12.226  14.322   7.818
 7288SOL     OW23760   0.372  14.422   1.294
 7288SOL    HW123761   0.311  14.433   1.221
 7288SOL    HW223762   0.330  14.356   1.349
 7289SOL     OW23763  14.643   9.884   7.207
 7289SOL    HW123764  14.671   9.927   7.126
 7289SOL    HW223765  14.677   9.940   7.277
 7290SOL     OW23766   8.101   7.425  14.089
 7290SOL    HW123767   8.164   7.416  14.017
 7290SOL    HW223768   8.131   7.362  14.154
 7291SOL     OW23769   6.017  11.813   9.886
 7291SOL    HW123770   6.008  11.809   9.981
 7291SOL    HW223771   5.942  11.763   9.853
 7292SOL     OW23772   2.860   2.461   9.595
 7292SOL    HW123773   2.913   2.382   9.585
 7292SOL    HW223774   2.781   2.444   9.543
 7293SOL     OW23775   5.452  11.582   7.579
 7293SOL    HW123776   5.515  11.510   7.587
 7293SOL    HW223777   5.479  11.629   7.500
 7294SOL     OW23778   4.524  12.967   5.186
 7294SOL    HW123779   4.557  12.957   5.097
 7294SOL    HW223780   4.430  12.954   5.178
 7295SOL     OW23781   0.572   6.577   1.987
 7295SOL    HW123782   0.605   6.509   1.929
 7295SOL    HW223783   0.626   6.570   2.065
 7296SOL     OW23784   5.066   6.299   4.390
 7296SOL    HW123785   5.048   6.392   4.381
 7296SOL    HW223786   5.033   6.260   4.309
 7297SOL     OW23787   4.594  14.865  10.409
 7297SOL    HW123788   4.610  14.866  10.315
 7297SOL    HW223789   4.678   0.003  10.448
 7298SOL     OW23790   4.332   8.799   5.506
 7298SOL    HW123791   4.376   8.871   5.551
 7298SOL    HW223792   4.261   8.841   5.458
 7299SOL     OW23793   9.281   9.395  10.246
 7299SOL    HW123794   9.237   9.343  10.314
 7299SOL    HW223795   9.265   9.347  10.165
 7300SOL     OW23796  14.350   8.387   7.886
 7300SOL    HW123797  14.362   8.449   7.957
 7300SOL    HW223798  14.294   8.433   7.823
 7301SOL     OW23799   0.637   8.343   6.981
 7301SOL    HW123800   0.587   8.313   7.057
 7301SOL    HW223801   0.727   8.348   7.012
 7302SOL     OW23802   3.496   1.088  11.068
 7302SOL    HW123803   3.571   1.143  11.047
 7302SOL    HW223804   3.438   1.146  11.118
 7303SOL     OW23805  10.478   4.525   6.527
 7303SOL    HW123806  10.386   4.539   6.548
 7303SOL    HW223807  10.523   4.535   6.611
 7304SOL     OW23808  13.372   7.474  11.145
 7304SOL    HW123809  13.437   7.430  11.200
 7304SOL    HW223810  13.370   7.564  11.180
 7305SOL     OW23811  12.266   6.648   5.673
 7305SOL    HW123812  12.199   6.596   5.717
 7305SOL    HW223813  12.233   6.738   5.675
 7306SOL     OW23814   7.740   9.888  12.262
 7306SOL    HW123815   7.803   9.946  12.220
 7306SOL    HW223816   7.679   9.948  12.306
 7307SOL     OW23817   5.362   6.743   0.442
 7307SOL    HW123818   5.407   6.817   0.400
 7307SOL    HW223819   5.359   6.676   0.374
 7308SOL     OW23820  11.621  13.328   5.663
 7308SOL    HW123821  11.621  13.352   5.570
 7308SOL    HW223822  11.548  13.378   5.700
 7309SOL     OW23823   3.337   1.129   6.033
 7309SOL    HW123824   3.279   1.205   6.037
 7309SOL    HW223825   3.359   1.111   6.125
 7310SOL     OW23826   5.027   5.640   4.744
 7310SOL    HW123827   5.099   5.627   4.806
 7310SOL    HW223828   5.061   5.704   4.681
 7311SOL     OW23829   0.720   1.548   7.647
 7311SOL    HW123830   0.659   1.620   7.665
 7311SOL    HW223831   0.686   1.508   7.566
 7312SOL     OW23832  12.321   5.812   6.576
 7312SOL    HW123833  12.233   5.825   6.539
 7312SOL    HW223834  12.355   5.900   6.588
 7313SOL     OW23835  12.214  10.666   4.233
 7313SOL    HW123836  12.164  10.603   4.181
 7313SOL    HW223837  12.306  10.648   4.211
 7314SOL     OW23838   6.572   9.730  11.095
 7314SOL    HW123839   6.654   9.746  11.140
 7314SOL    HW223840   6.540   9.817  11.071
 7315SOL     OW23841   0.530   4.781   9.273
 7315SOL    HW123842   0.493   4.694   9.289
 7315SOL    HW223843   0.505   4.832   9.349
 7316SOL     OW23844   3.697   0.186  12.620
 7316SOL    HW123845   3.615   0.149  12.586
 7316SOL    HW223846   3.759   0.179  12.547
 7317SOL     OW23847   1.030  12.827   3.821
 7317SOL    HW123848   1.118  12.843   3.788
 7317SOL    HW223849   1.033  12.857   3.912
 7318SOL     OW23850  11.549   5.412   6.470
 7318SOL    HW123851  11.578   5.371   6.389
 7318SOL    HW223852  11.502   5.343   6.516
 7319SOL     OW23853   6.036   3.142   9.408
 7319SOL    HW123854   6.107   3.092   9.449
 7319SOL    HW223855   5.958   3.117   9.457
 7320SOL     OW23856  10.237   7.506  10.459
 7320SOL    HW123857  10.315   7.463  10.425
 7320SOL    HW223858  10.172   7.496  10.389
 7321SOL     OW23859   8.418   2.119   1.533
 7321SOL    HW123860   8.407   2.101   1.627
 7321SOL    HW223861   8.451   2.037   1.497
 7322SOL     OW23862   0.459  12.350   1.953
 7322SOL    HW123863   0.386  12.294   1.979
 7322SOL    HW223864   0.442  12.434   1.997
 7323SOL     OW23865   9.687  12.597   6.405
 7323SOL    HW123866   9.764  12.648   6.379
 7323SOL    HW223867   9.707  12.508   6.377
 7324SOL     OW23868   9.519  11.030  13.271
 7324SOL    HW123869   9.496  11.119  13.300
 7324SOL    HW223870   9.485  11.025  13.181
 7325SOL     OW23871   3.884  14.536  13.535
 7325SOL    HW123872   3.851  14.596  13.602
 7325SOL    HW223873   3.933  14.470  13.584
 7326SOL     OW23874   6.963   0.452   3.545
 7326SOL    HW123875   6.971   0.534   3.496
 7326SOL    HW223876   6.878   0.458   3.587
 7327SOL     OW23877  10.799  13.662   0.393
 7327SOL    HW123878  10.891  13.658   0.366
 7327SOL    HW223879  10.797  13.622   0.480
 7328SOL     OW23880   2.847   6.294  10.507
 7328SOL    HW123881   2.915   6.325  10.567
 7328SOL    HW223882   2.776   6.266  10.565
 7329SOL     OW23883   9.886  14.848   6.186
 7329SOL    HW123884   9.915  14.757   6.178
 7329SOL    HW223885   9.868  14.875   6.097
 7330SOL     OW23886   1.180  11.354   0.458
 7330SOL    HW123887   1.221  11.440   0.450
 7330SOL    HW223888   1.253  11.294   0.469
 7331SOL     OW23889   0.354   9.020   2.998
 7331SOL    HW123890   0.444   8.989   3.011
 7331SOL    HW223891   0.311   8.949   2.952
 7332SOL     OW23892   2.722  14.195   7.657
 7332SOL    HW123893   2.776  14.161   7.729
 7332SOL    HW223894   2.650  14.240   7.701
 7333SOL     OW23895   9.677   8.521   9.659
 7333SOL    HW123896   9.732   8.444   9.673
 7333SOL    HW223897   9.618   8.523   9.735
 7334SOL     OW23898   5.483   7.740   5.928
 7334SOL    HW123899   5.547   7.811   5.928
 7334SOL    HW223900   5.456   7.732   5.837
 7335SOL     OW23901   7.612  11.433   6.817
 7335SOL    HW123902   7.644  11.453   6.905
 7335SOL    HW223903   7.597  11.519   6.778
 7336SOL     OW23904   7.341   6.502   6.803
 7336SOL    HW123905   7.393   6.550   6.739
 7336SOL    HW223906   7.394   6.501   6.883
 7337SOL     OW23907  10.963   3.131   8.587
 7337SOL    HW123908  10.968   3.173   8.501
 7337SOL    HW223909  10.883   3.166   8.626
 7338SOL     OW23910   2.413   3.206   9.365
 7338SOL    HW123911   2.448   3.139   9.424
 7338SOL    HW223912   2.464   3.196   9.285
 7339SOL     OW23913   6.120   3.018  11.148
 7339SOL    HW123914   6.054   2.968  11.100
 7339SOL    HW223915   6.084   3.107  11.153
 7340SOL     OW23916  12.137  10.286  12.340
 7340SOL    HW123917  12.118  10.376  12.313
 7340SOL    HW223918  12.195  10.252  12.272
 7341SOL     OW23919  10.844   3.579  10.119
 7341SOL    HW123920  10.842   3.599  10.025
 7341SOL    HW223921  10.893   3.498  10.126
 7342SOL     OW23922   2.865   6.085   1.792
 7342SOL    HW123923   2.897   6.022   1.856
 7342SOL    HW223924   2.894   6.050   1.707
 7343SOL     OW23925   3.653   3.490   2.526
 7343SOL    HW123926   3.624   3.517   2.613
 7343SOL    HW223927   3.734   3.539   2.512
 7344SOL     OW23928   6.691   8.914   4.911
 7344SOL    HW123929   6.738   8.837   4.944
 7344SOL    HW223930   6.714   8.918   4.818
 7345SOL     OW23931   2.692   1.354   1.894
 7345SOL    HW123932   2.722   1.331   1.982
 7345SOL    HW223933   2.767   1.335   1.838
 7346SOL     OW23934   0.667   8.229   0.331
 7346SOL    HW123935   0.629   8.179   0.259
 7346SOL    HW223936   0.593   8.248   0.389
 7347SOL     OW23937   5.964  14.290   8.185
 7347SOL    HW123938   5.986  14.197   8.193
 7347SOL    HW223939   5.881  14.298   8.233
 7348SOL     OW23940   1.084   3.467   6.803
 7348SOL    HW123941   1.078   3.417   6.722
 7348SOL    HW223942   1.027   3.420   6.864
 7349SOL     OW23943  14.774   3.993   6.339
 7349SOL    HW123944  14.762   3.972   6.432
 7349SOL    HW223945  14.687   3.985   6.301
 7350SOL     OW23946  10.720  10.801   2.672
 7350SOL    HW123947  10.654  10.777   2.606
 7350SOL    HW223948  10.712  10.896   2.679
 7351SOL     OW23949  12.828   6.928   3.549
 7351SOL    HW123950  12.830   6.991   3.620
 7351SOL    HW223951  12.794   6.976   3.474
 7352SOL     OW23952   2.065   2.589   8.470
 7352SOL    HW123953   2.156   2.597   8.498
 7352SOL    HW223954   2.032   2.679   8.466
 7353SOL     OW23955   4.974   6.552   4.418
 7353SOL    HW123956   4.919   6.630   4.428
 7353SOL    HW223957   4.999   6.529   4.508
 7354SOL     OW23958   6.492   5.697   0.770
 7354SOL    HW123959   6.495   5.607   0.740
 7354SOL    HW223960   6.573   5.708   0.821
 7355SOL     OW23961   8.271  13.182   0.863
 7355SOL    HW123962   8.358  13.208   0.832
 7355SOL    HW223963   8.288  13.129   0.941
 7356SOL     OW23964   5.610  11.846  13.923
 7356SOL    HW123965   5.541  11.813  13.981
 7356SOL    HW223966   5.689  11.845  13.976
 7357SOL     OW23967  11.647   0.653  13.130
 7357SOL    HW123968  11.659   0.747  13.123
 7357SOL    HW223969  11.683   0.631  13.216
 7358SOL     OW23970   7.194   3.443   9.666
 7358SOL    HW123971   7.240   3.518   9.702
 7358SOL    HW223972   7.228   3.435   9.576
 7359SOL     OW23973   2.232   5.800  10.324
 7359SOL    HW123974   2.237   5.804  10.229
 7359SOL    HW223975   2.305   5.743  10.349
 7360SOL     OW23976  11.854   8.464   1.693
 7360SOL    HW123977  11.814   8.458   1.780
 7360SOL    HW223978  11.944   8.437   1.706
 7361SOL     OW23979  10.088   9.536   5.636
 7361SOL    HW123980  10.027   9.600   5.597
 7361SOL    HW223981  10.115   9.481   5.562
 7362SOL     OW23982   4.173   8.597   1.793
 7362SOL    HW123983   4.092   8.590   1.742
 7362SOL    HW223984   4.151   8.657   1.865
 7363SOL     OW23985  11.821   2.088   6.330
 7363SOL    HW123986  11.866   2.005   6.313
 7363SOL    HW223987  11.761   2.099   6.256
 7364SOL     OW23988   9.037   6.904   0.031
 7364SOL    HW123989   9.022   6.845   0.105
 7364SOL    HW223990   9.012   6.853  14.842
 7365SOL     OW23991  11.627  13.890   4.846
 7365SOL    HW123992  11.629  13.968   4.790
 7365SOL    HW223993  11.605  13.818   4.787
 7366SOL     OW23994   3.721  13.644   2.246
 7366SOL    HW123995   3.772  13.597   2.180
 7366SOL    HW223996   3.738  13.597   2.328
 7367SOL     OW23997  13.148   1.997   6.303
 7367SOL    HW123998  13.191   1.956   6.378
 7367SOL    HW223999  13.123   1.923   6.247
 7368SOL     OW24000   0.558   3.121   1.885
 7368SOL    HW124001   0.579   3.170   1.806
 7368SOL    HW224002   0.467   3.093   1.873
 7369SOL     OW24003  14.598   7.917  12.858
 7369SOL    HW124004  14.537   7.850  12.829
 7369SOL    HW224005  14.676   7.869  12.885
 7370SOL     OW24006   6.181  12.070  13.178
 7370SOL    HW124007   6.130  11.994  13.205
 7370SOL    HW224008   6.175  12.070  13.083
 7371SOL     OW24009   6.459  10.487   9.325
 7371SOL    HW124010   6.374  10.445   9.317
 7371SOL    HW224011   6.517  10.418   9.357
 7372SOL     OW24012  10.008   6.483  11.043
 7372SOL    HW124013   9.980   6.561  10.995
 7372SOL    HW224014   9.931   6.457  11.094
 7373SOL     OW24015   6.121   5.298   1.507
 7373SOL    HW124016   6.189   5.232   1.497
 7373SOL    HW224017   6.039   5.248   1.502
 7374SOL     OW24018  13.535   0.454   8.399
 7374SOL    HW124019  13.518   0.542   8.434
 7374SOL    HW224020  13.596   0.416   8.462
 7375SOL     OW24021   8.531   4.144   0.096
 7375SOL    HW124022   8.537   4.072   0.158
 7375SOL    HW224023   8.622   4.165   0.075
 7376SOL     OW24024   7.187   6.207  13.492
 7376SOL    HW124025   7.273   6.244  13.515
 7376SOL    HW224026   7.192   6.193  13.397
 7377SOL     OW24027   0.583  14.213   3.712
 7377SOL    HW124028   0.659  14.163   3.685
 7377SOL    HW224029   0.592  14.222   3.807
 7378SOL     OW24030  12.854   1.722   1.024
 7378SOL    HW124031  12.827   1.697   1.112
 7378SOL    HW224032  12.916   1.654   0.997
 7379SOL     OW24033   3.097  14.781   3.405
 7379SOL    HW124034   3.098  14.764   3.499
 7379SOL    HW224035   3.189  14.777   3.378
 7380SOL     OW24036  12.229  13.200   1.514
 7380SOL    HW124037  12.251  13.128   1.573
 7380SOL    HW224038  12.140  13.180   1.485
 7381SOL     OW24039   9.286  12.592   4.240
 7381SOL    HW124040   9.213  12.649   4.265
 7381SOL    HW224041   9.364  12.639   4.269
 7382SOL     OW24042  13.810   6.007  11.156
 7382SOL    HW124043  13.731   6.062  11.149
 7382SOL    HW224044  13.813   5.959  11.074
 7383SOL     OW24045   9.374  14.224  13.888
 7383SOL    HW124046   9.435  14.233  13.962
 7383SOL    HW224047   9.402  14.145  13.843
 7384SOL     OW24048   4.230  10.601   1.847
 7384SOL    HW124049   4.182  10.657   1.786
 7384SOL    HW224050   4.322  10.619   1.830
 7385SOL     OW24051  13.877   4.735  12.715
 7385SOL    HW124052  13.865   4.797  12.643
 7385SOL    HW224053  13.934   4.667  12.678
 7386SOL     OW24054  12.278   9.206   4.543
 7386SOL    HW124055  12.190   9.227   4.573
 7386SOL    HW224056  12.336   9.232   4.614
 7387SOL     OW24057   5.586  14.056   0.577
 7387SOL    HW124058   5.664  14.102   0.607
 7387SOL    HW224059   5.618  13.973   0.543
 7388SOL     OW24060   1.898   8.030   3.360
 7388SOL    HW124061   1.840   7.996   3.429
 7388SOL    HW224062   1.904   7.959   3.296
 7389SOL     OW24063   0.382   9.723   8.239
 7389SOL    HW124064   0.447   9.656   8.257
 7389SOL    HW224065   0.355   9.707   8.148
 7390SOL     OW24066   8.346   1.642   4.631
 7390SOL    HW124067   8.382   1.696   4.700
 7390SOL    HW224068   8.358   1.552   4.662
 7391SOL     OW24069   6.363  14.548   8.308
 7391SOL    HW124070   6.403  14.462   8.294
 7391SOL    HW224071   6.275  14.529   8.340
 7392SOL     OW24072  10.061   4.183  11.363
 7392SOL    HW124073  10.006   4.144  11.431
 7392SOL    HW224074  10.009   4.178  11.283
 7393SOL     OW24075   0.357   6.966   1.766
 7393SOL    HW124076   0.361   7.060   1.786
 7393SOL    HW224077   0.280   6.957   1.710
 7394SOL     OW24078  12.078   4.106  13.870
 7394SOL    HW124079  12.062   4.192  13.909
 7394SOL    HW224080  12.088   4.124  13.776
 7395SOL     OW24081   8.160   0.924   7.254
 7395SOL    HW124082   8.201   0.839   7.268
 7395SOL    HW224083   8.232   0.982   7.231
 7396SOL     OW24084   4.465   8.032   7.312
 7396SOL    HW124085   4.530   7.962   7.307
 7396SOL    HW224086   4.420   8.018   7.395
 7397SOL     OW24087  14.194   7.514   6.097
 7397SOL    HW124088  14.147   7.523   6.013
 7397SOL    HW224089  14.286   7.507   6.072
 7398SOL     OW24090  13.501   1.508   2.662
 7398SOL    HW124091  13.464   1.467   2.584
 7398SOL    HW224092  13.447   1.477   2.734
 7399SOL     OW24093  10.389   1.841   1.556
 7399SOL    HW124094  10.387   1.750   1.584
 7399SOL    HW224095  10.469   1.876   1.594
 7400SOL     OW24096   0.633   0.258   4.192
 7400SOL    HW124097   0.575   0.314   4.243
 7400SOL    HW224098   0.628   0.293   4.103
 7401SOL     OW24099   8.801  11.306  10.675
 7401SOL    HW124100   8.724  11.267  10.634
 7401SOL    HW224101   8.862  11.233  10.685
 7402SOL     OW24102  14.853  13.471  12.224
 7402SOL    HW124103  14.879  13.562  12.236
 7402SOL    HW224104  14.768  13.475  12.181
 7403SOL     OW24105   6.591   3.629   5.180
 7403SOL    HW124106   6.632   3.573   5.247
 7403SOL    HW224107   6.656   3.633   5.110
 7404SOL     OW24108  14.625   8.591   8.836
 7404SOL    HW124109  14.665   8.595   8.923
 7404SOL    HW224110  14.532   8.575   8.853
 7405SOL     OW24111   5.657  12.882   1.321
 7405SOL    HW124112   5.659  12.966   1.275
 7405SOL    HW224113   5.741  12.842   1.301
 7406SOL     OW24114   2.740   8.549  10.444
 7406SOL    HW124115   2.814   8.595  10.484
 7406SOL    HW224116   2.687   8.522  10.518
 7407SOL     OW24117   2.878   1.852   6.080
 7407SOL    HW124118   2.820   1.778   6.065
 7407SOL    HW224119   2.923   1.866   5.997
 7408SOL     OW24120   8.625   0.361   8.988
 7408SOL    HW124121   8.614   0.290   9.052
 7408SOL    HW224122   8.536   0.383   8.961
 7409SOL     OW24123   2.790  10.467   8.059
 7409SOL    HW124124   2.764  10.434   8.145
 7409SOL    HW224125   2.776  10.393   8.000
 7410SOL     OW24126  11.278   7.980  14.701
 7410SOL    HW124127  11.295   7.998  14.608
 7410SOL    HW224128  11.333   8.042  14.748
 7411SOL     OW24129   0.542  12.405  13.141
 7411SOL    HW124130   0.514  12.435  13.228
 7411SOL    HW224131   0.562  12.312  13.153
 7412SOL     OW24132  12.977   8.231   8.886
 7412SOL    HW124133  12.921   8.232   8.808
 7412SOL    HW224134  13.059   8.191   8.856
 7413SOL     OW24135   8.594  11.729   0.152
 7413SOL    HW124136   8.555  11.730   0.239
 7413SOL    HW224137   8.527  11.768   0.095
 7414SOL     OW24138  11.533   2.415   0.347
 7414SOL    HW124139  11.501   2.401   0.437
 7414SOL    HW224140  11.487   2.349   0.295
 7415SOL     OW24141   1.399   8.669  14.724
 7415SOL    HW124142   1.328   8.608  14.745
 7415SOL    HW224143   1.368   8.754  14.756
 7416SOL     OW24144  13.349  14.350   7.979
 7416SOL    HW124145  13.275  14.374   7.923
 7416SOL    HW224146  13.323  14.267   8.019
 7417SOL     OW24147  10.004  12.203   7.440
 7417SOL    HW124148   9.977  12.114   7.419
 7417SOL    HW224149   9.961  12.223   7.523
 7418SOL     OW24150   6.198  12.879   2.887
 7418SOL    HW124151   6.258  12.873   2.962
 7418SOL    HW224152   6.188  12.789   2.856
 7419SOL     OW24153   1.675   4.248   0.601
 7419SOL    HW124154   1.622   4.170   0.613
 7419SOL    HW224155   1.675   4.263   0.506
 7420SOL     OW24156   8.951  10.712  12.960
 7420SOL    HW124157   8.891  10.748  13.026
 7420SOL    HW224158   9.027  10.769  12.964
 7421SOL     OW24159   8.296  11.187   1.246
 7421SOL    HW124160   8.248  11.218   1.169
 7421SOL    HW224161   8.238  11.207   1.319
 7422SOL     OW24162  10.803  13.032  11.347
 7422SOL    HW124163  10.778  13.123  11.364
 7422SOL    HW224164  10.880  13.018  11.402
 7423SOL     OW24165  10.793   4.470   9.296
 7423SOL    HW124166  10.697   4.465   9.297
 7423SOL    HW224167  10.817   4.455   9.205
 7424SOL     OW24168   4.818   1.335   1.346
 7424SOL    HW124169   4.812   1.410   1.405
 7424SOL    HW224170   4.727   1.311   1.329
 7425SOL     OW24171   7.481   5.761  14.611
 7425SOL    HW124172   7.509   5.717  14.691
 7425SOL    HW224173   7.473   5.853  14.636
 7426SOL     OW24174  12.693  13.502   0.787
 7426SOL    HW124175  12.750  13.482   0.713
 7426SOL    HW224176  12.707  13.430   0.849
 7427SOL     OW24177  13.070   1.594   8.185
 7427SOL    HW124178  13.132   1.667   8.187
 7427SOL    HW224179  12.995   1.627   8.136
 7428SOL     OW24180   1.829   0.412   6.797
 7428SOL    HW124181   1.796   0.322   6.800
 7428SOL    HW224182   1.757   0.465   6.831
 7429SOL     OW24183   8.199  11.055   7.157
 7429SOL    HW124184   8.197  11.016   7.244
 7429SOL    HW224185   8.166  10.986   7.099
 7430SOL     OW24186   1.209   4.230  11.268
 7430SOL    HW124187   1.212   4.136  11.285
 7430SOL    HW224188   1.269   4.243  11.195
 7431SOL     OW24189  10.576   7.279   4.459
 7431SOL    HW124190  10.592   7.217   4.530
 7431SOL    HW224191  10.491   7.318   4.480
 7432SOL     OW24192   6.614   1.413  13.264
 7432SOL    HW124193   6.654   1.499  13.256
 7432SOL    HW224194   6.680   1.352  13.230
 7433SOL     OW24195   4.391   3.891   3.239
 7433SOL    HW124196   4.480   3.858   3.222
 7433SOL    HW224197   4.343   3.873   3.159
 7434SOL     OW24198   4.897   2.709  11.111
 7434SOL    HW124199   4.896   2.715  11.207
 7434SOL    HW224200   4.977   2.755  11.085
 7435SOL     OW24201   6.398  11.566  11.013
 7435SOL    HW124202   6.375  11.605  11.098
 7435SOL    HW224203   6.335  11.604  10.952
 7436SOL     OW24204   8.655   1.402   3.782
 7436SOL    HW124205   8.734   1.457   3.785
 7436SOL    HW224206   8.602   1.440   3.712
 7437SOL     OW24207   7.601   9.965   8.660
 7437SOL    HW124208   7.552   9.883   8.667
 7437SOL    HW224209   7.558  10.013   8.589
 7438SOL     OW24210   9.517  14.186  12.040
 7438SOL    HW124211   9.579  14.259  12.043
 7438SOL    HW224212   9.432  14.228  12.031
 7439SOL     OW24213   6.907   7.580   0.955
 7439SOL    HW124214   6.978   7.533   1.000
 7439SOL    HW224215   6.897   7.661   1.004
 7440SOL     OW24216   5.981   6.585   4.622
 7440SOL    HW124217   6.048   6.623   4.565
 7440SOL    HW224218   5.901   6.632   4.598
 7441SOL     OW24219   0.859   6.122   9.430
 7441SOL    HW124220   0.903   6.068   9.364
 7441SOL    HW224221   0.912   6.202   9.433
 7442SOL     OW24222   4.561  11.654   7.931
 7442SOL    HW124223   4.505  11.602   7.874
 7442SOL    HW224224   4.521  11.742   7.929
 7443SOL     OW24225   8.116   6.712   6.503
 7443SOL    HW124226   8.071   6.713   6.588
 7443SOL    HW224227   8.117   6.619   6.478
 7444SOL     OW24228   0.899   9.396   8.882
 7444SOL    HW124229   0.975   9.427   8.833
 7444SOL    HW224230   0.935   9.359   8.963
 7445SOL     OW24231   0.392   9.783   5.616
 7445SOL    HW124232   0.462   9.718   5.612
 7445SOL    HW224233   0.317   9.736   5.650
 7446SOL     OW24234   7.255  11.395   0.002
 7446SOL    HW124235   7.174  11.409   0.051
 7446SOL    HW224236   7.316  11.459   0.038
 7447SOL     OW24237   9.705   1.073   8.877
 7447SOL    HW124238   9.637   1.110   8.934
 7447SOL    HW224239   9.739   1.148   8.829
 7448SOL     OW24240   0.469  14.388  12.255
 7448SOL    HW124241   0.456  14.483  12.254
 7448SOL    HW224242   0.514  14.369  12.173
 7449SOL     OW24243   5.983   3.298   6.652
 7449SOL    HW124244   6.062   3.288   6.705
 7449SOL    HW224245   5.912   3.305   6.716
 7450SOL     OW24246  11.745  13.788  11.505
 7450SOL    HW124247  11.820  13.763  11.451
 7450SOL    HW224248  11.731  13.713  11.563
 7451SOL     OW24249   1.818  10.108   1.873
 7451SOL    HW124250   1.828  10.045   1.801
 7451SOL    HW224251   1.814  10.053   1.952
 7452SOL     OW24252  12.253  11.525  13.248
 7452SOL    HW124253  12.270  11.432  13.264
 7452SOL    HW224254  12.159  11.535  13.265
 7453SOL     OW24255  10.788  12.260   2.385
 7453SOL    HW124256  10.717  12.203   2.355
 7453SOL    HW224257  10.836  12.283   2.306
 7454SOL     OW24258  12.231  14.813   4.840
 7454SOL    HW124259  12.227   0.013   4.801
 7454SOL    HW224260  12.207  14.753   4.769
 7455SOL     OW24261  14.157   9.422   4.082
 7455SOL    HW124262  14.096   9.475   4.032
 7455SOL    HW224263  14.208   9.486   4.132
 7456SOL     OW24264   5.672   5.904   0.557
 7456SOL    HW124265   5.655   5.813   0.533
 7456SOL    HW224266   5.734   5.899   0.629
 7457SOL     OW24267   9.140   9.067   9.829
 7457SOL    HW124268   9.207   9.027   9.884
 7457SOL    HW224269   9.067   9.083   9.889
 7458SOL     OW24270  12.267  14.307   1.687
 7458SOL    HW124271  12.236  14.220   1.662
 7458SOL    HW224272  12.238  14.364   1.616
 7459SOL     OW24273   2.071   1.929  13.992
 7459SOL    HW124274   2.129   1.871  13.943
 7459SOL    HW224275   2.027   1.872  14.055
 7460SOL     OW24276   9.243   4.219  12.546
 7460SOL    HW124277   9.171   4.276  12.520
 7460SOL    HW224278   9.203   4.155  12.605
 7461SOL     OW24279   6.048  12.763  14.441
 7461SOL    HW124280   6.088  12.745  14.357
 7461SOL    HW224281   5.972  12.705  14.445
 7462SOL     OW24282  11.765  13.768   6.582
 7462SOL    HW124283  11.764  13.863   6.597
 7462SOL    HW224284  11.841  13.754   6.525
 7463SOL     OW24285  10.060   7.389   1.120
 7463SOL    HW124286  10.144   7.373   1.077
 7463SOL    HW224287  10.082   7.439   1.199
 7464SOL     OW24288   6.633   2.851   6.650
 7464SOL    HW124289   6.549   2.896   6.659
 7464SOL    HW224290   6.655   2.824   6.739
 7465SOL     OW24291  10.878   5.912  12.652
 7465SOL    HW124292  10.837   5.827  12.646
 7465SOL    HW224293  10.866   5.951  12.565
 7466SOL     OW24294  12.914  11.354   5.487
 7466SOL    HW124295  12.864  11.296   5.545
 7466SOL    HW224296  12.851  11.381   5.420
 7467SOL     OW24297   2.657  12.122   8.986
 7467SOL    HW124298   2.717  12.099   9.058
 7467SOL    HW224299   2.679  12.061   8.916
 7468SOL     OW24300  10.600   6.366   2.722
 7468SOL    HW124301  10.579   6.385   2.631
 7468SOL    HW224302  10.525   6.400   2.771
 7469SOL     OW24303   3.763   7.563   2.196
 7469SOL    HW124304   3.839   7.520   2.236
 7469SOL    HW224305   3.711   7.594   2.270
 7470SOL     OW24306  10.425   6.195   6.949
 7470SOL    HW124307  10.375   6.170   7.027
 7470SOL    HW224308  10.503   6.238   6.984
 7471SOL     OW24309   0.372   6.467   5.899
 7471SOL    HW124310   0.443   6.522   5.867
 7471SOL    HW224311   0.416   6.392   5.938
 7472SOL     OW24312   0.039   5.909  12.076
 7472SOL    HW124313  14.833   5.904  12.095
 7472SOL    HW224314   0.064   5.819  12.053
 7473SOL     OW24315   9.451  10.287   5.555
 7473SOL    HW124316   9.379  10.349   5.568
 7473SOL    HW224317   9.453  10.272   5.460
 7474SOL     OW24318   3.569   6.691   0.041
 7474SOL    HW124319   3.558   6.754  14.857
 7474SOL    HW224320   3.535   6.736   0.118
 7475SOL     OW24321   0.600  13.584   7.673
 7475SOL    HW124322   0.663  13.513   7.665
 7475SOL    HW224323   0.651  13.658   7.706
 7476SOL     OW24324   2.516  14.327   5.382
 7476SOL    HW124325   2.474  14.315   5.297
 7476SOL    HW224326   2.553  14.241   5.402
 7477SOL     OW24327   9.031   4.769   9.939
 7477SOL    HW124328   9.051   4.850   9.892
 7477SOL    HW224329   8.937   4.756   9.928
 7478SOL     OW24330  13.258   1.739   5.243
 7478SOL    HW124331  13.174   1.694   5.241
 7478SOL    HW224332  13.321   1.670   5.266
 7479SOL     OW24333   3.859  10.549   4.209
 7479SOL    HW124334   3.890  10.466   4.172
 7479SOL    HW224335   3.938  10.603   4.213
 7480SOL     OW24336  14.622   1.490   9.812
 7480SOL    HW124337  14.635   1.410   9.761
 7480SOL    HW224338  14.630   1.560   9.748
 7481SOL     OW24339  14.345   0.598   3.802
 7481SOL    HW124340  14.412   0.541   3.764
 7481SOL    HW224341  14.390   0.647   3.870
 7482SOL     OW24342   0.837   0.497  13.606
 7482SOL    HW124343   0.847   0.557  13.532
 7482SOL    HW224344   0.811   0.553  13.679
 7483SOL     OW24345   6.099  13.692   3.856
 7483SOL    HW124346   6.178  13.739   3.881
 7483SOL    HW224347   6.065  13.740   3.781
 7484SOL     OW24348   1.614   3.616   3.076
 7484SOL    HW124349   1.626   3.542   3.017
 7484SOL    HW224350   1.623   3.579   3.164
 7485SOL     OW24351   1.456   5.511   7.377
 7485SOL    HW124352   1.470   5.521   7.283
 7485SOL    HW224353   1.367   5.476   7.384
 7486SOL     OW24354   6.072   6.780   0.406
 7486SOL    HW124355   6.164   6.805   0.395
 7486SOL    HW224356   6.059   6.710   0.341
 7487SOL     OW24357  13.386  14.507   4.693
 7487SOL    HW124358  13.348  14.504   4.605
 7487SOL    HW224359  13.334  14.445   4.744
 7488SOL     OW24360  10.879   7.921   8.447
 7488SOL    HW124361  10.827   7.878   8.378
 7488SOL    HW224362  10.926   7.850   8.489
 7489SOL     OW24363  12.789   7.082  11.498
 7489SOL    HW124364  12.763   7.051  11.411
 7489SOL    HW224365  12.706   7.097  11.543
 7490SOL     OW24366   5.495   9.025   7.798
 7490SOL    HW124367   5.480   9.089   7.868
 7490SOL    HW224368   5.547   8.956   7.839
 7491SOL     OW24369   5.908  13.863   5.843
 7491SOL    HW124370   5.839  13.928   5.852
 7491SOL    HW224371   5.863  13.780   5.831
 7492SOL     OW24372   3.810  14.493   0.957
 7492SOL    HW124373   3.742  14.448   1.008
 7492SOL    HW224374   3.826  14.436   0.882
 7493SOL     OW24375   0.847   9.819  14.602
 7493SOL    HW124376   0.848   9.819  14.506
 7493SOL    HW224377   0.770   9.766  14.624
 7494SOL     OW24378  11.216   9.754  14.494
 7494SOL    HW124379  11.284   9.755  14.426
 7494SOL    HW224380  11.146   9.809  14.459
 7495SOL     OW24381   8.592   0.407   0.439
 7495SOL    HW124382   8.575   0.443   0.352
 7495SOL    HW224383   8.661   0.462   0.475
 7496SOL     OW24384   8.983  10.699  14.699
 7496SOL    HW124385   8.971  10.728  14.608
 7496SOL    HW224386   8.999  10.779  14.748
 7497SOL     OW24387   2.184   8.603   1.130
 7497SOL    HW124388   2.128   8.545   1.079
 7497SOL    HW224389   2.265   8.554   1.143
 7498SOL     OW24390   0.703   1.837   0.625
 7498SOL    HW124391   0.619   1.814   0.585
 7498SOL    HW224392   0.731   1.756   0.669
 7499SOL     OW24393   3.783   0.189  13.773
 7499SOL    HW124394   3.711   0.151  13.824
 7499SOL    HW224395   3.769   0.284  13.778
 7500SOL     OW24396   1.693   2.502  11.942
 7500SOL    HW124397   1.698   2.415  11.981
 7500SOL    HW224398   1.616   2.542  11.983
 7501SOL     OW24399   5.813   2.590   1.731
 7501SOL    HW124400   5.782   2.665   1.679
 7501SOL    HW224401   5.878   2.548   1.676
 7502SOL     OW24402   4.455   9.063  12.464
 7502SOL    HW124403   4.510   9.122  12.412
 7502SOL    HW224404   4.424   9.117  12.537
 7503SOL     OW24405   5.882   5.240   6.149
 7503SOL    HW124406   5.859   5.154   6.112
 7503SOL    HW224407   5.852   5.303   6.084
 7504SOL     OW24408   3.553  10.823   1.573
 7504SOL    HW124409   3.531  10.915   1.560
 7504SOL    HW224410   3.536  10.782   1.488
 7505SOL     OW24411   0.143   7.022  13.284
 7505SOL    HW124412   0.206   7.040  13.213
 7505SOL    HW224413   0.196   7.020  13.363
 7506SOL     OW24414  10.970  11.686  11.098
 7506SOL    HW124415  10.885  11.655  11.067
 7506SOL    HW224416  10.973  11.660  11.191
 7507SOL     OW24417   0.988  14.875  13.058
 7507SOL    HW124418   1.062   0.014  13.112
 7507SOL    HW224419   0.911   0.002  13.113
 7508SOL     OW24420  14.563   1.913  10.172
 7508SOL    HW124421  14.586   1.908  10.079
 7508SOL    HW224422  14.640   1.954  10.212
 7509SOL     OW24423   8.413   3.207  13.138
 7509SOL    HW124424   8.444   3.229  13.226
 7509SOL    HW224425   8.449   3.120  13.121
 7510SOL     OW24426   2.719   8.712   7.651
 7510SOL    HW124427   2.692   8.666   7.731
 7510SOL    HW224428   2.782   8.777   7.681
 7511SOL     OW24429   0.671   5.956   5.530
 7511SOL    HW124430   0.620   6.008   5.467
 7511SOL    HW224431   0.756   5.999   5.533
 7512SOL     OW24432   6.815   7.653  12.288
 7512SOL    HW124433   6.778   7.568  12.266
 7512SOL    HW224434   6.905   7.634  12.314
 7513SOL     OW24435   1.898  13.786   2.709
 7513SOL    HW124436   1.927  13.718   2.648
 7513SOL    HW224437   1.812  13.756   2.739
 7514SOL     OW24438  13.662   1.533   6.581
 7514SOL    HW124439  13.653   1.544   6.676
 7514SOL    HW224440  13.576   1.554   6.545
 7515SOL     OW24441   5.873   5.987   0.948
 7515SOL    HW124442   5.905   6.045   0.878
 7515SOL    HW224443   5.951   5.965   0.998
 7516SOL     OW24444  10.978  10.731   1.671
 7516SOL    HW124445  10.993  10.760   1.761
 7516SOL    HW224446  10.980  10.635   1.676
 7517SOL     OW24447   8.481   8.967  10.462
 7517SOL    HW124448   8.455   8.895  10.519
 7517SOL    HW224449   8.405   9.025  10.460
 7518SOL     OW24450   8.543   5.004   3.637
 7518SOL    HW124451   8.621   4.948   3.642
 7518SOL    HW224452   8.577   5.093   3.641
 7519SOL     OW24453   7.366  12.703   2.878
 7519SOL    HW124454   7.355  12.796   2.898
 7519SOL    HW224455   7.369  12.661   2.964
 7520SOL     OW24456  11.557   7.628   1.101
 7520SOL    HW124457  11.585   7.671   1.181
 7520SOL    HW224458  11.605   7.545   1.101
 7521SOL     OW24459   9.447  11.364   4.881
 7521SOL    HW124460   9.386  11.404   4.943
 7521SOL    HW224461   9.521  11.424   4.877
 7522SOL     OW24462   0.874   3.717   6.571
 7522SOL    HW124463   0.814   3.658   6.525
 7522SOL    HW224464   0.847   3.712   6.663
 7523SOL     OW24465  12.066  10.053  14.282
 7523SOL    HW124466  12.009  10.008  14.220
 7523SOL    HW224467  12.053  10.008  14.365
 7524SOL     OW24468   8.282  10.429   3.373
 7524SOL    HW124469   8.196  10.446   3.335
 7524SOL    HW224470   8.283  10.481   3.454
 7525SOL     OW24471  14.595   3.511   1.761
 7525SOL    HW124472  14.537   3.518   1.685
 7525SOL    HW224473  14.579   3.591   1.812
 7526SOL     OW24474   2.350   1.742   5.387
 7526SOL    HW124475   2.325   1.821   5.436
 7526SOL    HW224476   2.385   1.683   5.454
 7527SOL     OW24477  14.159  14.454   1.825
 7527SOL    HW124478  14.171  14.418   1.913
 7527SOL    HW224479  14.243  14.495   1.805
 7528SOL     OW24480   9.948   2.046  13.702
 7528SOL    HW124481   9.979   1.980  13.764
 7528SOL    HW224482   9.854   2.052  13.718
 7529SOL     OW24483  14.436  11.577   6.755
 7529SOL    HW124484  14.416  11.569   6.848
 7529SOL    HW224485  14.358  11.543   6.711
 7530SOL     OW24486  12.711  12.049   4.131
 7530SOL    HW124487  12.720  12.010   4.218
 7530SOL    HW224488  12.626  12.017   4.099
 7531SOL     OW24489   6.117   3.404  10.545
 7531SOL    HW124490   6.197   3.360  10.575
 7531SOL    HW224491   6.132   3.420  10.452
 7532SOL     OW24492   4.763   1.924  12.673
 7532SOL    HW124493   4.804   1.843  12.645
 7532SOL    HW224494   4.837   1.982  12.696
 7533SOL     OW24495   8.277   7.289  12.467
 7533SOL    HW124496   8.345   7.354  12.447
 7533SOL    HW224497   8.284   7.277  12.562
 7534SOL     OW24498   2.127   7.488  12.465
 7534SOL    HW124499   2.098   7.470  12.375
 7534SOL    HW224500   2.222   7.498  12.457
 7535SOL     OW24501  12.986  13.107  12.074
 7535SOL    HW124502  13.051  13.124  12.142
 7535SOL    HW224503  12.942  13.027  12.102
 7536SOL     OW24504   2.916  12.007   6.725
 7536SOL    HW124505   2.865  12.086   6.745
 7536SOL    HW224506   2.858  11.935   6.750
 7537SOL     OW24507   6.696   9.019  10.993
 7537SOL    HW124508   6.674   8.950  10.931
 7537SOL    HW224509   6.673   9.100  10.948
 7538SOL     OW24510   2.266  13.975   6.358
 7538SOL    HW124511   2.296  14.062   6.381
 7538SOL    HW224512   2.330  13.916   6.398
 7539SOL     OW24513   5.316  12.968  13.192
 7539SOL    HW124514   5.404  12.989  13.224
 7539SOL    HW224515   5.304  13.025  13.116
 7540SOL     OW24516   3.082   4.993   7.963
 7540SOL    HW124517   3.107   5.023   7.876
 7540SOL    HW224518   3.116   5.059   8.023
 7541SOL     OW24519  13.798   1.265  12.898
 7541SOL    HW124520  13.717   1.220  12.874
 7541SOL    HW224521  13.868   1.205  12.871
 7542SOL     OW24522   4.671   5.822  12.407
 7542SOL    HW124523   4.707   5.733  12.405
 7542SOL    HW224524   4.712   5.862  12.484
 7543SOL     OW24525   2.563   1.915   1.238
 7543SOL    HW124526   2.489   1.903   1.298
 7543SOL    HW224527   2.557   1.841   1.178
 7544SOL     OW24528   7.633  10.596   8.539
 7544SOL    HW124529   7.623  10.666   8.603
 7544SOL    HW224530   7.595  10.632   8.458
 7545SOL     OW24531   3.744   7.135  13.836
 7545SOL    HW124532   3.808   7.180  13.891
 7545SOL    HW224533   3.781   7.048  13.823
 7546SOL     OW24534   3.847  12.167   6.086
 7546SOL    HW124535   3.814  12.182   5.997
 7546SOL    HW224536   3.873  12.076   6.088
 7547SOL     OW24537   8.881   5.118   7.996
 7547SOL    HW124538   8.856   5.211   7.994
 7547SOL    HW224539   8.851   5.084   7.911
 7548SOL     OW24540   4.158  14.391   0.917
 7548SOL    HW124541   4.221  14.461   0.900
 7548SOL    HW224542   4.172  14.328   0.845
 7549SOL     OW24543   6.089   2.631   2.816
 7549SOL    HW124544   6.152   2.630   2.888
 7549SOL    HW224545   6.004   2.648   2.858
 7550SOL     OW24546  11.463   9.525   3.674
 7550SOL    HW124547  11.490   9.457   3.735
 7550SOL    HW224548  11.459   9.481   3.589
 7551SOL     OW24549  12.290  12.751  13.072
 7551SOL    HW124550  12.304  12.832  13.120
 7551SOL    HW224551  12.220  12.706  13.120
 7552SOL     OW24552  11.160   0.552   7.072
 7552SOL    HW124553  11.238   0.512   7.036
 7552SOL    HW224554  11.088   0.511   7.024
 7553SOL     OW24555   9.993   3.693   2.344
 7553SOL    HW124556  10.017   3.778   2.307
 7553SOL    HW224557  10.021   3.629   2.278
 7554SOL     OW24558   4.856   6.807   4.369
 7554SOL    HW124559   4.870   6.849   4.454
 7554SOL    HW224560   4.764   6.782   4.371
 7555SOL     OW24561   0.027  13.559  10.639
 7555SOL    HW124562  14.854  13.625  10.606
 7555SOL    HW224563   0.020  13.486  10.578
 7556SOL     OW24564   5.025   2.218  14.578
 7556SOL    HW124565   4.984   2.217  14.664
 7556SOL    HW224566   4.969   2.164  14.523
 7557SOL     OW24567   3.714  14.293   5.079
 7557SOL    HW124568   3.679  14.253   5.159
 7557SOL    HW224569   3.671  14.247   5.008
 7558SOL     OW24570   2.122  14.253   7.853
 7558SOL    HW124571   2.132  14.312   7.778
 7558SOL    HW224572   2.155  14.169   7.821
 7559SOL     OW24573  10.665   3.727   0.452
 7559SOL    HW124574  10.629   3.640   0.431
 7559SOL    HW224575  10.600   3.788   0.416
 7560SOL     OW24576  12.271  12.618   0.186
 7560SOL    HW124577  12.225  12.622   0.270
 7560SOL    HW224578  12.363  12.634   0.208
 7561SOL     OW24579   7.450  13.676   3.252
 7561SOL    HW124580   7.376  13.622   3.280
 7561SOL    HW224581   7.521  13.652   3.311
 7562SOL     OW24582   1.361   6.531   4.127
 7562SOL    HW124583   1.348   6.439   4.146
 7562SOL    HW224584   1.296   6.552   4.060
 7563SOL     OW24585   4.937  12.134   6.406
 7563SOL    HW124586   5.025  12.097   6.409
 7563SOL    HW224587   4.930  12.170   6.317
 7564SOL     OW24588  10.547  14.032  13.665
 7564SOL    HW124589  10.542  13.946  13.622
 7564SOL    HW224590  10.548  14.094  13.592
 7565SOL     OW24591  10.938  13.145  11.746
 7565SOL    HW124592  11.020  13.194  11.746
 7565SOL    HW224593  10.915  13.136  11.654
 7566SOL     OW24594   0.319   4.535   6.499
 7566SOL    HW124595   0.352   4.445   6.489
 7566SOL    HW224596   0.349   4.561   6.587
 7567SOL     OW24597   1.962   9.947  12.761
 7567SOL    HW124598   2.021   9.881  12.798
 7567SOL    HW224599   1.981  10.027  12.811
 7568SOL     OW24600   2.218   2.718   1.807
 7568SOL    HW124601   2.128   2.728   1.838
 7568SOL    HW224602   2.213   2.743   1.714
 7569SOL     OW24603  11.109  10.167   2.137
 7569SOL    HW124604  11.165  10.187   2.062
 7569SOL    HW224605  11.120  10.242   2.196
 7570SOL     OW24606  14.590   2.520   6.750
 7570SOL    HW124607  14.603   2.548   6.841
 7570SOL    HW224608  14.523   2.579   6.716
 7571SOL     OW24609  10.176   7.216   3.701
 7571SOL    HW124610  10.218   7.258   3.776
 7571SOL    HW224611  10.119   7.150   3.740
 7572SOL     OW24612   6.603   5.460   6.931
 7572SOL    HW124613   6.575   5.448   7.022
 7572SOL    HW224614   6.683   5.513   6.938
 7573SOL     OW24615   4.850   0.004  10.747
 7573SOL    HW124616   4.928   0.007  10.802
 7573SOL    HW224617   4.791  14.831  10.793
 7574SOL     OW24618   0.063   1.457  14.074
 7574SOL    HW124619   0.034   1.548  14.069
 7574SOL    HW224620   0.079   1.431  13.984
 7575SOL     OW24621   9.652   6.873  12.744
 7575SOL    HW124622   9.601   6.890  12.823
 7575SOL    HW224623   9.743   6.876  12.773
 7576SOL     OW24624   7.252   7.522  10.924
 7576SOL    HW124625   7.230   7.433  10.952
 7576SOL    HW224626   7.229   7.525  10.831
 7577SOL     OW24627   4.548   7.767   3.238
 7577SOL    HW124628   4.471   7.721   3.274
 7577SOL    HW224629   4.619   7.743   3.297
 7578SOL     OW24630   6.972   3.640  12.128
 7578SOL    HW124631   6.963   3.621  12.222
 7578SOL    HW224632   6.897   3.597  12.088
 7579SOL     OW24633   1.674  13.021   5.051
 7579SOL    HW124634   1.673  13.067   5.135
 7579SOL    HW224635   1.752  12.966   5.054
 7580SOL     OW24636   5.272   4.683   5.262
 7580SOL    HW124637   5.230   4.761   5.297
 7580SOL    HW224638   5.207   4.645   5.203
 7581SOL     OW24639   2.330  14.547   5.013
 7581SOL    HW124640   2.340  14.477   5.077
 7581SOL    HW224641   2.292  14.505   4.936
 7582SOL     OW24642  14.536  13.860  11.225
 7582SOL    HW124643  14.474  13.932  11.237
 7582SOL    HW224644  14.482  13.787  11.194
 7583SOL     OW24645   0.614   6.355   1.815
 7583SOL    HW124646   0.611   6.261   1.831
 7583SOL    HW224647   0.609   6.363   1.719
 7584SOL     OW24648   2.916  13.696   4.410
 7584SOL    HW124649   2.821  13.698   4.398
 7584SOL    HW224650   2.949  13.763   4.350
 7585SOL     OW24651   7.983   3.742   4.173
 7585SOL    HW124652   8.002   3.674   4.238
 7585SOL    HW224653   8.035   3.718   4.097
 7586SOL     OW24654   9.913   5.460  12.042
 7586SOL    HW124655   9.913   5.506  11.958
 7586SOL    HW224656   9.826   5.475  12.078
 7587SOL     OW24657   2.062   6.746  13.343
 7587SOL    HW124658   2.033   6.836  13.327
 7587SOL    HW224659   2.011   6.693  13.282
 7588SOL     OW24660  14.816  10.890  11.551
 7588SOL    HW124661  14.774  10.814  11.510
 7588SOL    HW224662   0.011  10.899  11.504
 7589SOL     OW24663  14.094   0.404   3.098
 7589SOL    HW124664  14.162   0.337   3.102
 7589SOL    HW224665  14.084   0.423   3.005
 7590SOL     OW24666   8.452  14.345   5.807
 7590SOL    HW124667   8.527  14.405   5.800
 7590SOL    HW224668   8.468  14.295   5.887
 7591SOL     OW24669   2.027   7.279  11.378
 7591SOL    HW124670   1.999   7.309  11.465
 7591SOL    HW224671   2.047   7.360  11.331
 7592SOL     OW24672   1.787   1.749   4.201
 7592SOL    HW124673   1.829   1.670   4.234
 7592SOL    HW224674   1.790   1.811   4.274
 7593SOL     OW24675   9.371   2.596   6.006
 7593SOL    HW124676   9.434   2.616   6.075
 7593SOL    HW224677   9.287   2.594   6.051
 7594SOL     OW24678   5.895   2.687  14.353
 7594SOL    HW124679   5.809   2.653  14.331
 7594SOL    HW224680   5.953   2.611  14.347
 7595SOL     OW24681   3.900  13.278  13.970
 7595SOL    HW124682   3.871  13.258  13.881
 7595SOL    HW224683   3.995  13.273  13.966
 7596SOL     OW24684   8.687   7.592   9.095
 7596SOL    HW124685   8.657   7.626   9.010
 7596SOL    HW224686   8.704   7.499   9.078
 7597SOL     OW24687  13.303  10.821   5.244
 7597SOL    HW124688  13.269  10.899   5.289
 7597SOL    HW224689  13.249  10.813   5.166
 7598SOL     OW24690   1.426   3.680   4.740
 7598SOL    HW124691   1.491   3.717   4.799
 7598SOL    HW224692   1.389   3.606   4.790
 7599SOL     OW24693  13.885   4.965   1.453
 7599SOL    HW124694  13.836   5.018   1.390
 7599SOL    HW224695  13.851   4.876   1.441
 7600SOL     OW24696   2.081   3.105  14.205
 7600SOL    HW124697   2.064   3.196  14.180
 7600SOL    HW224698   2.096   3.060  14.122
 7601SOL     OW24699  11.260   3.417   8.009
 7601SOL    HW124700  11.278   3.427   8.102
 7601SOL    HW224701  11.345   3.397   7.970
 7602SOL     OW24702  10.583   3.913   4.984
 7602SOL    HW124703  10.592   3.984   5.048
 7602SOL    HW224704  10.615   3.951   4.902
 7603SOL     OW24705   4.500   2.541   4.106
 7603SOL    HW124706   4.425   2.493   4.141
 7603SOL    HW224707   4.473   2.633   4.112
 7604SOL     OW24708   6.045  12.727  12.972
 7604SOL    HW124709   6.137  12.704  12.983
 7604SOL    HW224710   6.033  12.734  12.878
 7605SOL     OW24711   6.380   1.407  13.118
 7605SOL    HW124712   6.323   1.482  13.139
 7605SOL    HW224713   6.467   1.434  13.148
 7606SOL     OW24714   4.670   5.752   5.534
 7606SOL    HW124715   4.636   5.742   5.623
 7606SOL    HW224716   4.619   5.690   5.482
 7607SOL     OW24717   2.855  10.027   0.263
 7607SOL    HW124718   2.913   9.962   0.301
 7607SOL    HW224719   2.774   9.980   0.244
 7608SOL     OW24720  13.563  11.848   5.451
 7608SOL    HW124721  13.578  11.761   5.413
 7608SOL    HW224722  13.503  11.831   5.524
 7609SOL     OW24723   0.219   0.277   4.111
 7609SOL    HW124724   0.145   0.281   4.172
 7609SOL    HW224725   0.285   0.225   4.157
 7610SOL     OW24726  12.458   2.767   0.077
 7610SOL    HW124727  12.402   2.692   0.096
 7610SOL    HW224728  12.547   2.731   0.076
 7611SOL     OW24729   4.382  14.323   2.213
 7611SOL    HW124730   4.464  14.300   2.170
 7611SOL    HW224731   4.340  14.239   2.232
 7612SOL     OW24732  13.528  10.007   8.688
 7612SOL    HW124733  13.587   9.934   8.670
 7612SOL    HW224734  13.510  10.045   8.601
 7613SOL     OW24735   1.965   9.702   0.408
 7613SOL    HW124736   2.017   9.766   0.360
 7613SOL    HW224737   2.028   9.638   0.440
 7614SOL     OW24738   7.500   8.175   0.204
 7614SOL    HW124739   7.468   8.111   0.140
 7614SOL    HW224740   7.574   8.131   0.247
 7615SOL     OW24741   3.589  12.684  10.040
 7615SOL    HW124742   3.556  12.642   9.961
 7615SOL    HW224743   3.650  12.750  10.009
 7616SOL     OW24744   8.145   3.207   8.344
 7616SOL    HW124745   8.147   3.264   8.421
 7616SOL    HW224746   8.155   3.119   8.379
 7617SOL     OW24747   4.968   9.489   0.703
 7617SOL    HW124748   5.045   9.538   0.733
 7617SOL    HW224749   4.981   9.400   0.736
 7618SOL     OW24750   1.478   3.419  13.610
 7618SOL    HW124751   1.532   3.465  13.547
 7618SOL    HW224752   1.390   3.422  13.572
 7619SOL     OW24753   6.367   4.451   9.470
 7619SOL    HW124754   6.324   4.522   9.518
 7619SOL    HW224755   6.445   4.491   9.431
 7620SOL     OW24756  13.452   3.582   0.650
 7620SOL    HW124757  13.454   3.510   0.587
 7620SOL    HW224758  13.366   3.622   0.639
 7621SOL     OW24759  14.193   7.893   9.595
 7621SOL    HW124760  14.161   7.949   9.666
 7621SOL    HW224761  14.250   7.950   9.543
 7622SOL     OW24762   5.479  11.496  14.521
 7622SOL    HW124763   5.463  11.463  14.609
 7622SOL    HW224764   5.482  11.591  14.532
 7623SOL     OW24765   9.192   9.106   2.567
 7623SOL    HW124766   9.286   9.121   2.573
 7623SOL    HW224767   9.152   9.187   2.597
 7624SOL     OW24768   0.848   0.190  14.263
 7624SOL    HW124769   0.776   0.131  14.240
 7624SOL    HW224770   0.908   0.135  14.312
 7625SOL     OW24771   5.397   7.349   0.942
 7625SOL    HW124772   5.417   7.337   1.035
 7625SOL    HW224773   5.367   7.440   0.936
 7626SOL     OW24774   9.820   8.108   9.393
 7626SOL    HW124775   9.823   8.197   9.359
 7626SOL    HW224776   9.731   8.078   9.374
 7627SOL     OW24777   9.506  14.471   0.569
 7627SOL    HW124778   9.453  14.400   0.607
 7627SOL    HW224779   9.593  14.460   0.608
 7628SOL     OW24780  12.487   7.757   4.027
 7628SOL    HW124781  12.576   7.783   4.051
 7628SOL    HW224782  12.433   7.832   4.052
 7629SOL     OW24783  11.716   3.508  13.586
 7629SOL    HW124784  11.695   3.576  13.522
 7629SOL    HW224785  11.684   3.541  13.669
 7630SOL     OW24786   3.724   5.266  10.817
 7630SOL    HW124787   3.698   5.330  10.751
 7630SOL    HW224788   3.746   5.187  10.767
 7631SOL     OW24789   5.775   8.260   1.313
 7631SOL    HW124790   5.835   8.310   1.258
 7631SOL    HW224791   5.715   8.325   1.349
 7632SOL     OW24792   3.009   8.238   8.366
 7632SOL    HW124793   2.984   8.279   8.283
 7632SOL    HW224794   3.104   8.227   8.360
 7633SOL     OW24795   5.892   8.867   7.156
 7633SOL    HW124796   5.981   8.831   7.153
 7633SOL    HW224797   5.852   8.828   7.234
 7634SOL     OW24798   8.546  12.340  12.949
 7634SOL    HW124799   8.581  12.298  13.027
 7634SOL    HW224800   8.465  12.381  12.977
 7635SOL     OW24801   9.937   0.826   7.059
 7635SOL    HW124802  10.015   0.777   7.031
 7635SOL    HW224803   9.909   0.873   6.981
 7636SOL     OW24804   9.763   5.412  11.586
 7636SOL    HW124805   9.824   5.361  11.533
 7636SOL    HW224806   9.713   5.463  11.522
 7637SOL     OW24807   7.515   8.633  10.579
 7637SOL    HW124808   7.521   8.562  10.643
 7637SOL    HW224809   7.594   8.623  10.525
 7638SOL     OW24810   7.896  11.704   5.463
 7638SOL    HW124811   7.965  11.638   5.463
 7638SOL    HW224812   7.838  11.679   5.391
 7639SOL     OW24813   3.243   1.888   4.133
 7639SOL    HW124814   3.289   1.969   4.112
 7639SOL    HW224815   3.249   1.835   4.053
 7640SOL     OW24816  13.624   7.409  13.629
 7640SOL    HW124817  13.583   7.323  13.630
 7640SOL    HW224818  13.552   7.470  13.648
 7641SOL     OW24819   0.624   7.175  14.293
 7641SOL    HW124820   0.707   7.134  14.270
 7641SOL    HW224821   0.607   7.237  14.222
 7642SOL     OW24822  11.411   2.013   1.119
 7642SOL    HW124823  11.320   2.026   1.092
 7642SOL    HW224824  11.438   2.097   1.156
 7643SOL     OW24825  13.528  13.197   4.583
 7643SOL    HW124826  13.557  13.277   4.627
 7643SOL    HW224827  13.511  13.135   4.654
 7644SOL     OW24828   3.117   9.563  12.444
 7644SOL    HW124829   3.173   9.605  12.509
 7644SOL    HW224830   3.078   9.635  12.395
 7645SOL     OW24831  13.174   1.965   0.708
 7645SOL    HW124832  13.103   1.947   0.769
 7645SOL    HW224833  13.149   2.048   0.666
 7646SOL     OW24834  13.932  13.247   9.526
 7646SOL    HW124835  13.890  13.194   9.459
 7646SOL    HW224836  13.866  13.256   9.595
 7647SOL     OW24837   2.031  14.577  12.081
 7647SOL    HW124838   1.971  14.503  12.088
 7647SOL    HW224839   2.038  14.610  12.171
 7648SOL     OW24840   6.993   5.046   7.877
 7648SOL    HW124841   6.935   4.974   7.900
 7648SOL    HW224842   7.080   5.015   7.901
 7649SOL     OW24843   9.736   2.367   3.545
 7649SOL    HW124844   9.820   2.355   3.589
 7649SOL    HW224845   9.687   2.287   3.566
 7650SOL     OW24846   7.452  11.330   8.326
 7650SOL    HW124847   7.436  11.379   8.245
 7650SOL    HW224848   7.500  11.252   8.298
 7651SOL     OW24849   5.517  11.593   3.059
 7651SOL    HW124850   5.422  11.578   3.059
 7651SOL    HW224851   5.526  11.685   3.034
 7652SOL     OW24852  13.293   9.395   8.911
 7652SOL    HW124853  13.247   9.359   8.987
 7652SOL    HW224854  13.269   9.488   8.912
 7653SOL     OW24855  14.600   8.178   9.231
 7653SOL    HW124856  14.655   8.114   9.276
 7653SOL    HW224857  14.628   8.262   9.267
 7654SOL     OW24858  11.883   8.050   6.361
 7654SOL    HW124859  11.916   7.967   6.395
 7654SOL    HW224860  11.908   8.114   6.428
 7655SOL     OW24861  10.291   6.909   7.802
 7655SOL    HW124862  10.275   6.967   7.728
 7655SOL    HW224863  10.209   6.907   7.850
 7656SOL     OW24864  11.732   8.265   2.165
 7656SOL    HW124865  11.689   8.304   2.241
 7656SOL    HW224866  11.660   8.232   2.110
 7657SOL     OW24867  13.173   1.856  13.865
 7657SOL    HW124868  13.154   1.922  13.932
 7657SOL    HW224869  13.262   1.829  13.883
 7658SOL     OW24870   2.074  11.194  13.236
 7658SOL    HW124871   2.019  11.119  13.259
 7658SOL    HW224872   2.014  11.254  13.190
 7659SOL     OW24873  13.229   5.917   4.582
 7659SOL    HW124874  13.205   5.849   4.519
 7659SOL    HW224875  13.309   5.885   4.624
 7660SOL     OW24876   7.104   0.186   1.419
 7660SOL    HW124877   7.143   0.253   1.363
 7660SOL    HW224878   7.168   0.115   1.420
 7661SOL     OW24879   0.285  10.160   8.902
 7661SOL    HW124880   0.232  10.143   8.824
 7661SOL    HW224881   0.223  10.191   8.968
 7662SOL     OW24882   7.915   9.290   8.502
 7662SOL    HW124883   7.973   9.250   8.438
 7662SOL    HW224884   7.926   9.237   8.581
 7663SOL     OW24885   7.989   2.570  13.187
 7663SOL    HW124886   7.950   2.633  13.127
 7663SOL    HW224887   8.012   2.495  13.132
 7664SOL     OW24888   3.741  10.871  13.710
 7664SOL    HW124889   3.691  10.932  13.657
 7664SOL    HW224890   3.786  10.926  13.774
 7665SOL     OW24891  12.466   3.451   6.436
 7665SOL    HW124892  12.516   3.461   6.517
 7665SOL    HW224893  12.490   3.364   6.403
 7666SOL     OW24894  10.057   5.739  10.215
 7666SOL    HW124895  10.042   5.830  10.241
 7666SOL    HW224896   9.970   5.699  10.215
 7667SOL     OW24897   7.591   1.646  10.679
 7667SOL    HW124898   7.635   1.579  10.731
 7667SOL    HW224899   7.655   1.717  10.673
 7668SOL     OW24900   8.053   3.876   5.359
 7668SOL    HW124901   8.062   3.789   5.320
 7668SOL    HW224902   8.113   3.931   5.309
 7669SOL     OW24903   3.849   8.277  14.754
 7669SOL    HW124904   3.799   8.197  14.740
 7669SOL    HW224905   3.886   8.299  14.668
 7670SOL     OW24906  10.718   1.319   7.775
 7670SOL    HW124907  10.651   1.368   7.728
 7670SOL    HW224908  10.688   1.318   7.866
 7671SOL     OW24909   5.492  10.598   3.283
 7671SOL    HW124910   5.404  10.629   3.305
 7671SOL    HW224911   5.547  10.628   3.356
 7672SOL     OW24912   9.649  13.961  12.862
 7672SOL    HW124913   9.634  13.890  12.925
 7672SOL    HW224914   9.707  13.923  12.796
 7673SOL     OW24915   9.215   2.769   7.109
 7673SOL    HW124916   9.124   2.742   7.122
 7673SOL    HW224917   9.252   2.703   7.051
 7674SOL     OW24918  12.203   7.315   1.542
 7674SOL    HW124919  12.292   7.278   1.545
 7674SOL    HW224920  12.158   7.262   1.477
 7675SOL     OW24921  14.613   7.165   4.040
 7675SOL    HW124922  14.650   7.231   4.098
 7675SOL    HW224923  14.518   7.176   4.048
 7676SOL     OW24924   4.327   2.183   6.008
 7676SOL    HW124925   4.369   2.248   6.064
 7676SOL    HW224926   4.234   2.190   6.029
 7677SOL     OW24927  10.902   3.497   6.807
 7677SOL    HW124928  10.894   3.412   6.852
 7677SOL    HW224929  10.976   3.484   6.747
 7678SOL     OW24930   8.998   1.425   0.600
 7678SOL    HW124931   8.904   1.438   0.590
 7678SOL    HW224932   9.007   1.377   0.683
 7679SOL     OW24933   3.329  13.464   1.365
 7679SOL    HW124934   3.386  13.402   1.411
 7679SOL    HW224935   3.341  13.547   1.411
 7680SOL     OW24936   4.677  12.217   4.860
 7680SOL    HW124937   4.702  12.194   4.950
 7680SOL    HW224938   4.756  12.255   4.822
 7681SOL     OW24939   2.634   6.511   6.368
 7681SOL    HW124940   2.689   6.557   6.305
 7681SOL    HW224941   2.694   6.481   6.436
 7682SOL     OW24942  11.281   5.185   4.947
 7682SOL    HW124943  11.230   5.136   5.012
 7682SOL    HW224944  11.301   5.121   4.879
 7683SOL     OW24945   0.831   0.613   9.842
 7683SOL    HW124946   0.837   0.655   9.928
 7683SOL    HW224947   0.757   0.552   9.851
 7684SOL     OW24948   0.554   2.915  12.730
 7684SOL    HW124949   0.518   2.838  12.687
 7684SOL    HW224950   0.477   2.966  12.756
 7685SOL     OW24951   3.117   2.012   2.158
 7685SOL    HW124952   3.069   2.022   2.076
 7685SOL    HW224953   3.150   1.922   2.156
 7686SOL     OW24954  13.810  13.912   0.711
 7686SOL    HW124955  13.750  13.979   0.742
 7686SOL    HW224956  13.762  13.866   0.642
 7687SOL     OW24957  10.870   5.597   1.329
 7687SOL    HW124958  10.929   5.611   1.403
 7687SOL    HW224959  10.927   5.560   1.261
 7688SOL     OW24960   8.387  11.887  13.555
 7688SOL    HW124961   8.410  11.864  13.465
 7688SOL    HW224962   8.470  11.880  13.603
 7689SOL     OW24963   9.165  12.207  11.125
 7689SOL    HW124964   9.204  12.125  11.157
 7689SOL    HW224965   9.219  12.232  11.050
 7690SOL     OW24966   6.794   9.894   1.088
 7690SOL    HW124967   6.857   9.924   1.022
 7690SOL    HW224968   6.763   9.810   1.054
 7691SOL     OW24969   4.712   0.170   8.871
 7691SOL    HW124970   4.796   0.199   8.908
 7691SOL    HW224971   4.650   0.179   8.944
 7692SOL     OW24972  12.921  12.946   3.813
 7692SOL    HW124973  12.926  12.999   3.893
 7692SOL    HW224974  12.979  12.871   3.830
 7693SOL     OW24975   0.457   0.963   1.294
 7693SOL    HW124976   0.471   1.039   1.238
 7693SOL    HW224977   0.487   0.991   1.380
 7694SOL     OW24978  12.322   9.613   3.213
 7694SOL    HW124979  12.246   9.560   3.187
 7694SOL    HW224980  12.386   9.549   3.245
 7695SOL     OW24981   2.385  12.881   1.820
 7695SOL    HW124982   2.379  12.841   1.733
 7695SOL    HW224983   2.312  12.943   1.823
 7696SOL     OW24984   3.908  10.901   4.067
 7696SOL    HW124985   3.946  10.978   4.110
 7696SOL    HW224986   3.947  10.827   4.113
 7697SOL     OW24987  12.778  13.159   9.225
 7697SOL    HW124988  12.727  13.234   9.257
 7697SOL    HW224989  12.761  13.091   9.290
 7698SOL     OW24990  12.579   7.427  12.145
 7698SOL    HW124991  12.595   7.479  12.067
 7698SOL    HW224992  12.517   7.479  12.196
 7699SOL     OW24993  12.973   8.268   1.746
 7699SOL    HW124994  12.971   8.265   1.650
 7699SOL    HW224995  13.054   8.223   1.769
 7700SOL     OW24996   3.642   7.165   4.925
 7700SOL    HW124997   3.560   7.118   4.908
 7700SOL    HW224998   3.624   7.218   5.003
 7701SOL     OW24999   3.448  11.609  14.129
 7701SOL    HW125000   3.441  11.586  14.221
 7701SOL    HW225001   3.447  11.524  14.083
 7702SOL     OW25002   9.659   7.796   7.581
 7702SOL    HW125003   9.715   7.824   7.508
 7702SOL    HW225004   9.669   7.864   7.647
 7703SOL     OW25005  12.018   5.327  10.412
 7703SOL    HW125006  12.072   5.281  10.348
 7703SOL    HW225007  12.034   5.280  10.494
 7704SOL     OW25008   5.586   2.097  11.048
 7704SOL    HW125009   5.542   2.138  10.974
 7704SOL    HW225010   5.520   2.037  11.084
 7705SOL     OW25011   0.995   0.483   2.489
 7705SOL    HW125012   1.078   0.528   2.506
 7705SOL    HW225013   0.966   0.516   2.404
 7706SOL     OW25014   8.925  10.179  12.694
 7706SOL    HW125015   8.912  10.262  12.648
 7706SOL    HW225016   9.005  10.143  12.658
 7707SOL     OW25017  11.695   7.425   4.721
 7707SOL    HW125018  11.676   7.401   4.630
 7707SOL    HW225019  11.618   7.395   4.769
 7708SOL     OW25020   7.813  12.025  10.368
 7708SOL    HW125021   7.771  11.945  10.338
 7708SOL    HW225022   7.747  12.069  10.421
 7709SOL     OW25023  12.897  11.336   9.792
 7709SOL    HW125024  12.942  11.251   9.795
 7709SOL    HW225025  12.964  11.397   9.761
 7710SOL     OW25026  10.977   4.248   5.197
 7710SOL    HW125027  11.040   4.282   5.260
 7710SOL    HW225028  11.025   4.181   5.149
 7711SOL     OW25029   8.841   4.553   9.102
 7711SOL    HW125030   8.759   4.530   9.059
 7711SOL    HW225031   8.908   4.507   9.052
 7712SOL     OW25032   8.421  13.947  12.559
 7712SOL    HW125033   8.494  13.983  12.508
 7712SOL    HW225034   8.422  13.998  12.640
 7713SOL     OW25035   8.688   3.520   6.333
 7713SOL    HW125036   8.769   3.541   6.379
 7713SOL    HW225037   8.700   3.556   6.245
 7714SOL     OW25038   5.434  13.972  12.850
 7714SOL    HW125039   5.489  14.043  12.817
 7714SOL    HW225040   5.495  13.909  12.888
 7715SOL     OW25041   5.393  10.280  13.721
 7715SOL    HW125042   5.461  10.244  13.778
 7715SOL    HW225043   5.312  10.243  13.754
 7716SOL     OW25044  13.175   7.161  12.244
 7716SOL    HW125045  13.082   7.146  12.263
 7716SOL    HW225046  13.221   7.112  12.313
 7717SOL     OW25047   4.209   7.344   8.311
 7717SOL    HW125048   4.133   7.394   8.283
 7717SOL    HW225049   4.174   7.276   8.368
 7718SOL     OW25050   9.964   4.646   6.862
 7718SOL    HW125051  10.015   4.576   6.821
 7718SOL    HW225052  10.019   4.724   6.854
 7719SOL     OW25053   1.772   7.445   9.876
 7719SOL    HW125054   1.833   7.377   9.848
 7719SOL    HW225055   1.824   7.525   9.875
 7720SOL     OW25056   5.024   9.495  10.596
 7720SOL    HW125057   5.031   9.405  10.628
 7720SOL    HW225058   4.998   9.485  10.505
 7721SOL     OW25059  12.755   4.437   3.678
 7721SOL    HW125060  12.790   4.493   3.747
 7721SOL    HW225061  12.688   4.384   3.721
 7722SOL     OW25062  11.394  10.495   2.419
 7722SOL    HW125063  11.357  10.407   2.427
 7722SOL    HW225064  11.342  10.536   2.350
 7723SOL     OW25065   4.185   3.125  10.302
 7723SOL    HW125066   4.218   3.212  10.278
 7723SOL    HW225067   4.093   3.126  10.277
 7724SOL     OW25068  11.728   2.455   4.497
 7724SOL    HW125069  11.647   2.436   4.449
 7724SOL    HW225070  11.745   2.376   4.548
 7725SOL     OW25071   6.177   6.746   3.267
 7725SOL    HW125072   6.209   6.785   3.349
 7725SOL    HW225073   6.091   6.710   3.289
 7726SOL     OW25074   3.864  14.700   5.080
 7726SOL    HW125075   3.850  14.794   5.094
 7726SOL    HW225076   3.794  14.658   5.131
 7727SOL     OW25077  10.050   3.061   1.055
 7727SOL    HW125078  10.134   3.055   1.101
 7727SOL    HW225079  10.061   3.007   0.977
 7728SOL     OW25080   3.103   6.666  12.789
 7728SOL    HW125081   3.104   6.576  12.758
 7728SOL    HW225082   3.158   6.665  12.868
 7729SOL     OW25083  12.818  10.123   0.805
 7729SOL    HW125084  12.826  10.079   0.890
 7729SOL    HW225085  12.829  10.216   0.825
 7730SOL     OW25086  11.982   7.223   3.105
 7730SOL    HW125087  12.010   7.190   3.191
 7730SOL    HW225088  11.914   7.288   3.125
 7731SOL     OW25089  10.128   1.344  12.042
 7731SOL    HW125090  10.212   1.310  12.013
 7731SOL    HW225091  10.151   1.423  12.092
 7732SOL     OW25092   9.915  13.230  11.106
 7732SOL    HW125093   9.952  13.310  11.067
 7732SOL    HW225094   9.834  13.215  11.057
 7733SOL     OW25095   3.177  14.189   0.142
 7733SOL    HW125096   3.154  14.260   0.082
 7733SOL    HW225097   3.165  14.110   0.090
 7734SOL     OW25098   6.275   8.903   6.541
 7734SOL    HW125099   6.308   8.830   6.594
 7734SOL    HW225100   6.307   8.981   6.587
 7735SOL     OW25101   0.293   5.732   8.612
 7735SOL    HW125102   0.223   5.677   8.645
 7735SOL    HW225103   0.310   5.795   8.683
 7736SOL     OW25104   4.052   9.276  13.513
 7736SOL    HW125105   4.077   9.185  13.533
 7736SOL    HW225106   4.042   9.277  13.418
 7737SOL     OW25107  13.063  11.264   2.755
 7737SOL    HW125108  12.981  11.250   2.802
 7737SOL    HW225109  13.097  11.347   2.791
 7738SOL     OW25110  13.607   7.981   5.453
 7738SOL    HW125111  13.662   8.058   5.434
 7738SOL    HW225112  13.613   7.971   5.548
 7739SOL     OW25113  11.637   1.091  12.675
 7739SOL    HW125114  11.688   1.158  12.720
 7739SOL    HW225115  11.605   1.134  12.596
 7740SOL     OW25116   8.400  12.053   8.179
 7740SOL    HW125117   8.380  11.959   8.182
 7740SOL    HW225118   8.315  12.095   8.168
 7741SOL     OW25119   4.533   0.145   4.591
 7741SOL    HW125120   4.545   0.154   4.685
 7741SOL    HW225121   4.613   0.181   4.552
 7742SOL     OW25122  14.387   1.126   9.750
 7742SOL    HW125123  14.385   1.167   9.837
 7742SOL    HW225124  14.302   1.147   9.712
 7743SOL     OW25125   9.653   1.615  11.616
 7743SOL    HW125126   9.625   1.527  11.640
 7743SOL    HW225127   9.658   1.662  11.699
 7744SOL     OW25128   1.302  11.502   7.086
 7744SOL    HW125129   1.312  11.414   7.123
 7744SOL    HW225130   1.298  11.488   6.992
 7745SOL     OW25131   9.905   1.496   3.645
 7745SOL    HW125132   9.910   1.435   3.719
 7745SOL    HW225133   9.969   1.463   3.582
 7746SOL     OW25134   0.948   8.977   4.369
 7746SOL    HW125135   0.998   9.058   4.367
 7746SOL    HW225136   0.874   8.993   4.311
 7747SOL     OW25137   5.569   8.145   5.285
 7747SOL    HW125138   5.585   8.146   5.190
 7747SOL    HW225139   5.610   8.225   5.317
 7748SOL     OW25140   0.470  13.790   4.622
 7748SOL    HW125141   0.437  13.852   4.687
 7748SOL    HW225142   0.393  13.763   4.572
 7749SOL     OW25143   2.288   2.769  14.322
 7749SOL    HW125144   2.285   2.864  14.337
 7749SOL    HW225145   2.357   2.738  14.381
 7750SOL     OW25146   0.772  12.203   6.115
 7750SOL    HW125147   0.690  12.183   6.160
 7750SOL    HW225148   0.814  12.269   6.171
 7751SOL     OW25149   7.304   0.937   7.485
 7751SOL    HW125150   7.249   0.883   7.428
 7751SOL    HW225151   7.290   0.901   7.573
 7752SOL     OW25152   2.879   6.983   6.668
 7752SOL    HW125153   2.850   7.033   6.745
 7752SOL    HW225154   2.969   7.011   6.654
 7753SOL     OW25155   2.720   3.343   0.585
 7753SOL    HW125156   2.781   3.398   0.537
 7753SOL    HW225157   2.634   3.378   0.562
 7754SOL     OW25158  12.877   4.534  11.354
 7754SOL    HW125159  12.858   4.559  11.264
 7754SOL    HW225160  12.920   4.449  11.347
 7755SOL     OW25161  11.432  10.560   0.321
 7755SOL    HW125162  11.373  10.634   0.306
 7755SOL    HW225163  11.414  10.532   0.411
 7756SOL     OW25164  12.344   9.645   2.923
 7756SOL    HW125165  12.368   9.645   3.015
 7756SOL    HW225166  12.265   9.590   2.918
 7757SOL     OW25167   0.670   5.938   4.590
 7757SOL    HW125168   0.635   5.933   4.501
 7757SOL    HW225169   0.730   5.863   4.596
 7758SOL     OW25170  14.643  12.255  12.095
 7758SOL    HW125171  14.672  12.313  12.166
 7758SOL    HW225172  14.724  12.213  12.064
 7759SOL     OW25173   8.096   8.881  11.296
 7759SOL    HW125174   8.024   8.944  11.285
 7759SOL    HW225175   8.171   8.935  11.319
 7760SOL     OW25176   5.521   7.092  12.143
 7760SOL    HW125177   5.428   7.111  12.154
 7760SOL    HW225178   5.531   7.070  12.050
 7761SOL     OW25179  13.568   3.736   2.448
 7761SOL    HW125180  13.535   3.710   2.534
 7761SOL    HW225181  13.581   3.831   2.455
 7762SOL     OW25182  12.034   0.952  12.750
 7762SOL    HW125183  12.016   0.999  12.669
 7762SOL    HW225184  12.066   0.866  12.721
 7763SOL     OW25185  14.343   8.668   1.572
 7763SOL    HW125186  14.266   8.629   1.614
 7763SOL    HW225187  14.404   8.596   1.563
 7764SOL     OW25188   9.243   0.841   3.750
 7764SOL    HW125189   9.226   0.748   3.768
 7764SOL    HW225190   9.321   0.861   3.801
 7765SOL     OW25191  10.199   8.391   0.918
 7765SOL    HW125192  10.149   8.458   0.966
 7765SOL    HW225193  10.140   8.315   0.915
 7766SOL     OW25194   2.262   8.449  11.020
 7766SOL    HW125195   2.172   8.435  11.052
 7766SOL    HW225196   2.318   8.420  11.092
 7767SOL     OW25197  11.078  10.413   8.266
 7767SOL    HW125198  11.088  10.356   8.342
 7767SOL    HW225199  11.133  10.374   8.199
 7768SOL     OW25200   8.381   5.446   1.848
 7768SOL    HW125201   8.383   5.477   1.757
 7768SOL    HW225202   8.302   5.486   1.885
 7769SOL     OW25203   0.475   5.833   3.350
 7769SOL    HW125204   0.530   5.832   3.429
 7769SOL    HW225205   0.387   5.811   3.381
 7770SOL     OW25206   9.432   1.816   2.618
 7770SOL    HW125207   9.389   1.835   2.702
 7770SOL    HW225208   9.367   1.841   2.552
 7771SOL     OW25209   3.299   3.967   4.467
 7771SOL    HW125210   3.359   3.997   4.399
 7771SOL    HW225211   3.346   3.983   4.550
 7772SOL     OW25212   5.095   6.079   1.318
 7772SOL    HW125213   5.059   6.031   1.393
 7772SOL    HW225214   5.050   6.042   1.242
 7773SOL     OW25215  11.021   9.446  11.004
 7773SOL    HW125216  10.939   9.400  11.020
 7773SOL    HW225217  11.043   9.486  11.089
 7774SOL     OW25218   0.796  11.253   8.342
 7774SOL    HW125219   0.849  11.173   8.339
 7774SOL    HW225220   0.777  11.265   8.435
 7775SOL     OW25221  12.405   6.148  12.358
 7775SOL    HW125222  12.425   6.084  12.290
 7775SOL    HW225223  12.433   6.232  12.320
 7776SOL     OW25224  14.632   0.717   2.762
 7776SOL    HW125225  14.619   0.773   2.685
 7776SOL    HW225226  14.544   0.686   2.784
 7777SOL     OW25227  14.800   9.707   6.846
 7777SOL    HW125228  14.811   9.643   6.776
 7777SOL    HW225229  14.737   9.770   6.811
 7778SOL     OW25230   1.514   5.695  13.460
 7778SOL    HW125231   1.549   5.777  13.426
 7778SOL    HW225232   1.436   5.678  13.407
 7779SOL     OW25233  11.658   7.243   8.135
 7779SOL    HW125234  11.694   7.177   8.076
 7779SOL    HW225235  11.734   7.283   8.176
 7780SOL     OW25236   4.747  10.434   1.846
 7780SOL    HW125237   4.734  10.361   1.785
 7780SOL    HW225238   4.670  10.433   1.902
 7781SOL     OW25239   5.665   9.789  12.095
 7781SOL    HW125240   5.700   9.733  12.026
 7781SOL    HW225241   5.693   9.747  12.176
 7782SOL     OW25242   9.338  10.372   8.486
 7782SOL    HW125243   9.395  10.297   8.502
 7782SOL    HW225244   9.255  10.333   8.458
 7783SOL     OW25245   7.520  13.886   0.455
 7783SOL    HW125246   7.478  13.809   0.419
 7783SOL    HW225247   7.496  13.886   0.548
 7784SOL     OW25248   1.507   8.606   2.826
 7784SOL    HW125249   1.545   8.538   2.770
 7784SOL    HW225250   1.422   8.626   2.786
 7785SOL     OW25251   2.623  14.397   2.450
 7785SOL    HW125252   2.616  14.301   2.443
 7785SOL    HW225253   2.536  14.429   2.426
 7786SOL     OW25254   4.844   0.908   3.788
 7786SOL    HW125255   4.815   0.817   3.789
 7786SOL    HW225256   4.842   0.933   3.696
 7787SOL     OW25257  10.376   5.991   7.433
 7787SOL    HW125258  10.458   6.031   7.406
 7787SOL    HW225259  10.310   6.060   7.422
 7788SOL     OW25260   7.160   9.524  14.453
 7788SOL    HW125261   7.170   9.530  14.358
 7788SOL    HW225262   7.076   9.480  14.465
 7789SOL     OW25263   8.472  10.785  14.846
 7789SOL    HW125264   8.512  10.707  14.808
 7789SOL    HW225265   8.378  10.769  14.840
 7790SOL     OW25266   0.391   8.244   8.516
 7790SOL    HW125267   0.340   8.325   8.517
 7790SOL    HW225268   0.455   8.257   8.446
 7791SOL     OW25269  14.761   9.822   5.742
 7791SOL    HW125270  14.708   9.756   5.786
 7791SOL    HW225271  14.851   9.792   5.754
 7792SOL     OW25272   1.352  10.671   4.918
 7792SOL    HW125273   1.375  10.711   4.835
 7792SOL    HW225274   1.300  10.594   4.895
 7793SOL     OW25275   7.393   3.876   8.914
 7793SOL    HW125276   7.317   3.881   8.856
 7793SOL    HW225277   7.462   3.925   8.868
 7794SOL     OW25278   0.495  14.586   5.417
 7794SOL    HW125279   0.556  14.513   5.431
 7794SOL    HW225280   0.456  14.568   5.332
 7795SOL     OW25281   2.205   4.296  14.695
 7795SOL    HW125282   2.271   4.345  14.744
 7795SOL    HW225283   2.184   4.351  14.620
 7796SOL     OW25284  10.288   4.070  12.998
 7796SOL    HW125285  10.194   4.064  13.014
 7796SOL    HW225286  10.297   4.062  12.903
 7797SOL     OW25287   5.304  11.731   7.822
 7797SOL    HW125288   5.210  11.714   7.829
 7797SOL    HW225289   5.331  11.689   7.740
 7798SOL     OW25290   0.603   1.313   0.905
 7798SOL    HW125291   0.630   1.292   0.816
 7798SOL    HW225292   0.536   1.381   0.894
 7799SOL     OW25293  13.750  12.488  13.040
 7799SOL    HW125294  13.838  12.526  13.045
 7799SOL    HW225295  13.700  12.533  13.108
 7800SOL     OW25296   7.293   5.337   4.831
 7800SOL    HW125297   7.310   5.283   4.754
 7800SOL    HW225298   7.375   5.384   4.846
 7801SOL     OW25299   0.943   3.211   9.348
 7801SOL    HW125300   0.969   3.295   9.309
 7801SOL    HW225301   0.849   3.218   9.361
 7802SOL     OW25302   0.877  13.860   4.074
 7802SOL    HW125303   0.795  13.896   4.040
 7802SOL    HW225304   0.928  13.838   3.996
 7803SOL     OW25305   2.479   1.634   7.219
 7803SOL    HW125306   2.459   1.582   7.141
 7803SOL    HW225307   2.494   1.568   7.288
 7804SOL     OW25308  14.711  14.706   9.792
 7804SOL    HW125309  14.757  14.622   9.801
 7804SOL    HW225310  14.626  14.690   9.833
 7805SOL     OW25311  14.741  11.992   5.013
 7805SOL    HW125312  14.719  11.900   5.026
 7805SOL    HW225313  14.732  12.006   4.919
 7806SOL     OW25314   9.838   4.337  11.999
 7806SOL    HW125315   9.901   4.301  11.937
 7806SOL    HW225316   9.872   4.423  12.021
 7807SOL     OW25317   6.935   7.188   4.021
 7807SOL    HW125318   6.933   7.160   4.112
 7807SOL    HW225319   6.963   7.280   4.024
 7808SOL     OW25320   7.229   7.385  10.022
 7808SOL    HW125321   7.163   7.328  10.064
 7808SOL    HW225322   7.308   7.331  10.017
 7809SOL     OW25323  14.440   9.380   7.770
 7809SOL    HW125324  14.372   9.315   7.754
 7809SOL    HW225325  14.475   9.358   7.857
 7810SOL     OW25326  13.788  12.447   5.417
 7810SOL    HW125327  13.741  12.394   5.481
 7810SOL    HW225328  13.778  12.399   5.335
 7811SOL     OW25329   4.913   6.067  13.965
 7811SOL    HW125330   4.927   6.141  13.907
 7811SOL    HW225331   4.994   6.061  14.016
 7812SOL     OW25332   6.189   5.305   5.887
 7812SOL    HW125333   6.193   5.326   5.980
 7812SOL    HW225334   6.264   5.351   5.849
 7813SOL     OW25335   4.336   7.085  12.095
 7813SOL    HW125336   4.337   7.080  12.000
 7813SOL    HW225337   4.253   7.129  12.116
 7814SOL     OW25338   0.010   3.383   1.121
 7814SOL    HW125339  14.833   3.333   1.172
 7814SOL    HW225340   0.039   3.321   1.054
 7815SOL     OW25341   2.874   5.782   6.750
 7815SOL    HW125342   2.910   5.696   6.768
 7815SOL    HW225343   2.808   5.796   6.818
 7816SOL     OW25344   6.627  14.216   2.218
 7816SOL    HW125345   6.650  14.271   2.143
 7816SOL    HW225346   6.534  14.199   2.208
 7817SOL     OW25347   6.913   8.324   9.883
 7817SOL    HW125348   6.911   8.228   9.878
 7817SOL    HW225349   6.948   8.343   9.969
 7818SOL     OW25350  12.939  10.635   3.943
 7818SOL    HW125351  12.970  10.682   3.866
 7818SOL    HW225352  13.018  10.604   3.986
 7819SOL     OW25353   6.001   8.227   0.427
 7819SOL    HW125354   6.040   8.151   0.470
 7819SOL    HW225355   5.918   8.241   0.473
 7820SOL     OW25356   7.011   5.882  11.183
 7820SOL    HW125357   6.925   5.919  11.199
 7820SOL    HW225358   7.072   5.952  11.207
 7821SOL     OW25359   0.813   5.253   4.031
 7821SOL    HW125360   0.729   5.237   4.075
 7821SOL    HW225361   0.831   5.172   3.984
 7822SOL     OW25362  14.044  12.321  13.966
 7822SOL    HW125363  14.039  12.251  13.901
 7822SOL    HW225364  13.988  12.391  13.931
 7823SOL     OW25365   7.625   3.976  10.563
 7823SOL    HW125366   7.719   3.961  10.567
 7823SOL    HW225367   7.612   4.030  10.486
 7824SOL     OW25368   8.831  13.979   6.495
 7824SOL    HW125369   8.870  14.060   6.462
 7824SOL    HW225370   8.904  13.932   6.535
 7825SOL     OW25371  13.607   0.543   2.794
 7825SOL    HW125372  13.642   0.612   2.850
 7825SOL    HW225373  13.638   0.462   2.834
 7826SOL     OW25374   5.124   2.687   5.737
 7826SOL    HW125375   5.163   2.659   5.654
 7826SOL    HW225376   5.189   2.745   5.777
 7827SOL     OW25377   4.946  11.930  14.111
 7827SOL    HW125378   5.029  11.951  14.153
 7827SOL    HW225379   4.907  11.863  14.167
 7828SOL     OW25380  10.975   7.565   1.301
 7828SOL    HW125381  11.019   7.536   1.221
 7828SOL    HW225382  10.883   7.570   1.278
 7829SOL     OW25383  12.976  14.440   9.397
 7829SOL    HW125384  13.009  14.383   9.467
 7829SOL    HW225385  13.023  14.411   9.319
 7830SOL     OW25386   4.789  13.443   6.851
 7830SOL    HW125387   4.712  13.395   6.822
 7830SOL    HW225388   4.764  13.535   6.846
 7831SOL     OW25389   7.162  14.467  12.637
 7831SOL    HW125390   7.113  14.409  12.579
 7831SOL    HW225391   7.244  14.483  12.591
 7832SOL     OW25392  14.247  13.046  10.146
 7832SOL    HW125393  14.199  13.070  10.067
 7832SOL    HW225394  14.339  13.043  10.118
 7833SOL     OW25395   5.364   3.290   4.443
 7833SOL    HW125396   5.377   3.381   4.416
 7833SOL    HW225397   5.279   3.290   4.487
 7834SOL     OW25398   0.839  11.796   5.417
 7834SOL    HW125399   0.869  11.856   5.486
 7834SOL    HW225400   0.743  11.798   5.423
 7835SOL     OW25401  11.124   6.013  10.258
 7835SOL    HW125402  11.084   5.972  10.181
 7835SOL    HW225403  11.129   5.943  10.323
 7836SOL     OW25404  11.108   2.593   0.395
 7836SOL    HW125405  11.128   2.646   0.318
 7836SOL    HW225406  11.179   2.611   0.456
 7837SOL     OW25407  13.857   7.179  14.271
 7837SOL    HW125408  13.888   7.264  14.302
 7837SOL    HW225409  13.815   7.139  14.348
 7838SOL     OW25410   8.962   7.188   7.071
 7838SOL    HW125411   8.932   7.255   7.009
 7838SOL    HW225412   9.025   7.234   7.127
 7839SOL     OW25413   9.554  10.029   7.916
 7839SOL    HW125414   9.475  10.045   7.866
 7839SOL    HW225415   9.585   9.944   7.885
 7840SOL     OW25416  14.473   4.204   3.926
 7840SOL    HW125417  14.558   4.177   3.961
 7840SOL    HW225418  14.492   4.228   3.835
 7841SOL     OW25419  14.134   8.051   1.445
 7841SOL    HW125420  14.224   8.028   1.423
 7841SOL    HW225421  14.141   8.127   1.502
 7842SOL     OW25422   2.357   1.187   0.112
 7842SOL    HW125423   2.325   1.174   0.201
 7842SOL    HW225424   2.445   1.224   0.124
 7843SOL     OW25425   6.871   9.115   2.237
 7843SOL    HW125426   6.828   9.094   2.154
 7843SOL    HW225427   6.905   9.204   2.224
 7844SOL     OW25428  10.885   1.129   3.274
 7844SOL    HW125429  10.897   1.151   3.182
 7844SOL    HW225430  10.915   1.207   3.321
 7845SOL     OW25431  14.844   5.953  10.378
 7845SOL    HW125432  14.812   5.912  10.298
 7845SOL    HW225433  14.799   6.037  10.381
 7846SOL     OW25434   5.073   1.552   4.645
 7846SOL    HW125435   5.146   1.539   4.705
 7846SOL    HW225436   5.089   1.490   4.574
 7847SOL     OW25437  12.591   3.807   3.491
 7847SOL    HW125438  12.686   3.802   3.500
 7847SOL    HW225439  12.559   3.729   3.536
 7848SOL     OW25440   1.150  14.492   4.322
 7848SOL    HW125441   1.234  14.514   4.282
 7848SOL    HW225442   1.085  14.514   4.255
 7849SOL     OW25443   8.833   3.709   9.265
 7849SOL    HW125444   8.799   3.621   9.248
 7849SOL    HW225445   8.803   3.761   9.191
 7850SOL     OW25446  13.010   6.819   3.373
 7850SOL    HW125447  12.939   6.852   3.429
 7850SOL    HW225448  12.997   6.725   3.370
 7851SOL     OW25449   8.361  13.192  10.193
 7851SOL    HW125450   8.269  13.214  10.178
 7851SOL    HW225451   8.373  13.107  10.151
 7852SOL     OW25452  10.511   1.810   8.757
 7852SOL    HW125453  10.439   1.764   8.714
 7852SOL    HW225454  10.585   1.750   8.749
 7853SOL     OW25455   9.976   7.388  11.130
 7853SOL    HW125456   9.910   7.456  11.117
 7853SOL    HW225457   9.941   7.334  11.201
 7854SOL     OW25458   1.196   8.254   7.656
 7854SOL    HW125459   1.130   8.292   7.714
 7854SOL    HW225460   1.278   8.262   7.704
 7855SOL     OW25461   0.882   5.136   9.372
 7855SOL    HW125462   0.796   5.164   9.343
 7855SOL    HW225463   0.923   5.215   9.408
 7856SOL     OW25464   2.313   3.676   3.647
 7856SOL    HW125465   2.392   3.628   3.672
 7856SOL    HW225466   2.259   3.612   3.600
 7857SOL     OW25467  13.449   8.907   7.547
 7857SOL    HW125468  13.495   8.991   7.550
 7857SOL    HW225469  13.481   8.859   7.623
 7858SOL     OW25470  14.220   4.411   5.518
 7858SOL    HW125471  14.210   4.485   5.458
 7858SOL    HW225472  14.216   4.449   5.605
 7859SOL     OW25473   0.501   1.387  12.117
 7859SOL    HW125474   0.542   1.321  12.061
 7859SOL    HW225475   0.413   1.353  12.134
 7860SOL     OW25476   3.786   6.965   3.835
 7860SOL    HW125477   3.785   6.895   3.900
 7860SOL    HW225478   3.857   7.022   3.863
 7861SOL     OW25479   0.701  11.699  10.342
 7861SOL    HW125480   0.796  11.694  10.355
 7861SOL    HW225481   0.673  11.607  10.340
 7862SOL     OW25482  14.834  13.043   9.048
 7862SOL    HW125483   0.007  13.038   8.974
 7862SOL    HW225484   0.003  13.030   9.125
 7863SOL     OW25485   7.743  13.188   7.601
 7863SOL    HW125486   7.726  13.218   7.690
 7863SOL    HW225487   7.657  13.182   7.561
 7864SOL     OW25488   0.405   2.931   5.857
 7864SOL    HW125489   0.406   2.995   5.927
 7864SOL    HW225490   0.313   2.929   5.828
 7865SOL     OW25491  10.638   4.707  14.877
 7865SOL    HW125492  10.700   4.779   0.002
 7865SOL    HW225493  10.673   4.658  14.803
 7866SOL     OW25494   9.659  12.007   6.766
 7866SOL    HW125495   9.596  12.048   6.707
 7866SOL    HW225496   9.699  11.937   6.714
 7867SOL     OW25497   5.752   9.554  10.081
 7867SOL    HW125498   5.847   9.542  10.079
 7867SOL    HW225499   5.736   9.633  10.031
 7868SOL     OW25500   3.154   5.161   7.740
 7868SOL    HW125501   3.067   5.185   7.709
 7868SOL    HW225502   3.191   5.242   7.775
 7869SOL     OW25503  13.132   1.279   1.518
 7869SOL    HW125504  13.190   1.304   1.590
 7869SOL    HW225505  13.179   1.209   1.473
 7870SOL     OW25506   4.629   0.388   8.721
 7870SOL    HW125507   4.544   0.370   8.680
 7870SOL    HW225508   4.658   0.303   8.754
 7871SOL     OW25509   7.143   0.448   3.744
 7871SOL    HW125510   7.109   0.360   3.763
 7871SOL    HW225511   7.100   0.472   3.662
 7872SOL     OW25512   3.942   1.721   1.242
 7872SOL    HW125513   3.874   1.711   1.175
 7872SOL    HW225514   3.894   1.727   1.325
 7873SOL     OW25515   6.422   6.511   8.851
 7873SOL    HW125516   6.385   6.428   8.881
 7873SOL    HW225517   6.386   6.576   8.913
 7874SOL     OW25518   9.243  11.465   3.131
 7874SOL    HW125519   9.335  11.483   3.151
 7874SOL    HW225520   9.197  11.481   3.213
 7875SOL     OW25521  13.253   0.889   1.452
 7875SOL    HW125522  13.245   0.846   1.367
 7875SOL    HW225523  13.164   0.886   1.488
 7876SOL     OW25524   2.914  12.657   0.983
 7876SOL    HW125525   2.845  12.695   1.037
 7876SOL    HW225526   2.950  12.585   1.036
 7877SOL     OW25527   1.710  14.647  12.039
 7877SOL    HW125528   1.751  14.586  11.977
 7877SOL    HW225529   1.783  14.696  12.076
 7878SOL     OW25530   4.045  11.104   4.191
 7878SOL    HW125531   4.029  11.199   4.192
 7878SOL    HW225532   4.067  11.083   4.282
 7879SOL     OW25533   1.329   3.673   6.618
 7879SOL    HW125534   1.259   3.694   6.680
 7879SOL    HW225535   1.409   3.701   6.661
 7880SOL     OW25536   9.871   1.134  10.387
 7880SOL    HW125537   9.873   1.173  10.474
 7880SOL    HW225538   9.955   1.158  10.347
 7881SOL     OW25539  11.303  11.081   7.773
 7881SOL    HW125540  11.261  11.025   7.707
 7881SOL    HW225541  11.390  11.043   7.785
 7882SOL     OW25542   3.036   6.462  10.098
 7882SOL    HW125543   2.983   6.462  10.178
 7882SOL    HW225544   3.035   6.553  10.069
 7883SOL     OW25545   5.515   7.447  11.435
 7883SOL    HW125546   5.492   7.411  11.349
 7883SOL    HW225547   5.565   7.526  11.416
 7884SOL     OW25548   1.759  13.084  13.646
 7884SOL    HW125549   1.688  13.022  13.664
 7884SOL    HW225550   1.839  13.034  13.663
 7885SOL     OW25551  12.053  11.111  12.860
 7885SOL    HW125552  11.989  11.100  12.931
 7885SOL    HW225553  12.123  11.164  12.899
 7886SOL     OW25554   2.352  11.070   9.509
 7886SOL    HW125555   2.441  11.104   9.514
 7886SOL    HW225556   2.341  11.045   9.418
 7887SOL     OW25557   1.584   8.980  12.891
 7887SOL    HW125558   1.529   8.957  12.965
 7887SOL    HW225559   1.671   8.949  12.915
 7888SOL     OW25560   7.912   6.209   8.610
 7888SOL    HW125561   7.851   6.258   8.555
 7888SOL    HW225562   7.980   6.272   8.634
 7889SOL     OW25563  10.607   5.792  14.803
 7889SOL    HW125564  10.608   5.880  14.764
 7889SOL    HW225565  10.599   5.733  14.729
 7890SOL     OW25566   4.382   1.797  14.500
 7890SOL    HW125567   4.450   1.730  14.500
 7890SOL    HW225568   4.420   1.869  14.449
 7891SOL     OW25569   1.955   0.583   9.423
 7891SOL    HW125570   2.009   0.520   9.375
 7891SOL    HW225571   1.893   0.616   9.358
 7892SOL     OW25572   0.263   0.271   2.700
 7892SOL    HW125573   0.269   0.176   2.708
 7892SOL    HW225574   0.173   0.286   2.670
 7893SOL     OW25575   8.158   6.468   3.312
 7893SOL    HW125576   8.197   6.552   3.287
 7893SOL    HW225577   8.220   6.431   3.375
 7894SOL     OW25578  14.209   1.428   0.241
 7894SOL    HW125579  14.225   1.337   0.268
 7894SOL    HW225580  14.289   1.453   0.193
 7895SOL     OW25581   2.919  11.117   7.080
 7895SOL    HW125582   2.903  11.169   7.159
 7895SOL    HW225583   2.844  11.135   7.024
 7896SOL     OW25584  14.489   0.944   3.808
 7896SOL    HW125585  14.500   1.037   3.827
 7896SOL    HW225586  14.413   0.939   3.751
 7897SOL     OW25587   1.140  14.517   3.544
 7897SOL    HW125588   1.178  14.438   3.583
 7897SOL    HW225589   1.188  14.528   3.462
 7898SOL     OW25590   9.476   7.185   4.172
 7898SOL    HW125591   9.548   7.247   4.187
 7898SOL    HW225592   9.404   7.219   4.226
 7899SOL     OW25593   1.420  11.403   4.769
 7899SOL    HW125594   1.440  11.313   4.742
 7899SOL    HW225595   1.405  11.397   4.864
 7900SOL     OW25596   4.597   4.143   1.153
 7900SOL    HW125597   4.510   4.102   1.149
 7900SOL    HW225598   4.581   4.229   1.191
 7901SOL     OW25599  12.133   8.549   3.273
 7901SOL    HW125600  12.160   8.477   3.330
 7901SOL    HW225601  12.040   8.534   3.256
 7902SOL     OW25602   1.212   1.360   8.519
 7902SOL    HW125603   1.301   1.393   8.519
 7902SOL    HW225604   1.172   1.395   8.439
 7903SOL     OW25605   0.439   0.361   4.362
 7903SOL    HW125606   0.382   0.347   4.438
 7903SOL    HW225607   0.484   0.444   4.380
 7904SOL     OW25608  11.820   8.040  14.491
 7904SOL    HW125609  11.841   7.950  14.469
 7904SOL    HW225610  11.728   8.038  14.516
 7905SOL     OW25611   2.905  10.088   9.234
 7905SOL    HW125612   2.844  10.144   9.282
 7905SOL    HW225613   2.952  10.041   9.303
 7906SOL     OW25614   4.719   0.517   4.921
 7906SOL    HW125615   4.671   0.489   4.999
 7906SOL    HW225616   4.756   0.602   4.945
 7907SOL     OW25617   8.305   9.551   7.729
 7907SOL    HW125618   8.215   9.523   7.746
 7907SOL    HW225619   8.307   9.571   7.636
 7908SOL     OW25620   8.580   6.413   3.754
 7908SOL    HW125621   8.505   6.467   3.778
 7908SOL    HW225622   8.585   6.346   3.823
 7909SOL     OW25623   0.567   4.739   2.255
 7909SOL    HW125624   0.602   4.767   2.340
 7909SOL    HW225625   0.635   4.683   2.218
 7910SOL     OW25626   5.370   0.141   9.435
 7910SOL    HW125627   5.283   0.104   9.422
 7910SOL    HW225628   5.414   0.078   9.493
 7911SOL     OW25629   2.214   6.469  11.954
 7911SOL    HW125630   2.139   6.493  11.899
 7911SOL    HW225631   2.177   6.456  12.041
 7912SOL     OW25632   7.446  14.527   1.100
 7912SOL    HW125633   7.396  14.449   1.075
 7912SOL    HW225634   7.394  14.600   1.067
 7913SOL     OW25635   7.475   0.627   8.162
 7913SOL    HW125636   7.542   0.684   8.125
 7913SOL    HW225637   7.405   0.687   8.188
 7914SOL     OW25638   2.737  12.202   8.053
 7914SOL    HW125639   2.768  12.269   7.993
 7914SOL    HW225640   2.802  12.200   8.123
 7915SOL     OW25641   9.109   9.426  11.129
 7915SOL    HW125642   9.053   9.499  11.155
 7915SOL    HW225643   9.195   9.449  11.163
 7916SOL     OW25644  11.049   7.249   0.308
 7916SOL    HW125645  11.052   7.334   0.351
 7916SOL    HW225646  10.967   7.210   0.337
 7917SOL     OW25647  14.245   1.168  12.397
 7917SOL    HW125648  14.163   1.129  12.368
 7917SOL    HW225649  14.231   1.189  12.489
 7918SOL     OW25650   3.028   8.070   3.171
 7918SOL    HW125651   3.020   8.094   3.079
 7918SOL    HW225652   3.118   8.037   3.179
 7919SOL     OW25653   8.364   3.062   9.465
 7919SOL    HW125654   8.283   3.012   9.456
 7919SOL    HW225655   8.430   3.011   9.418
 7920SOL     OW25656   9.144  12.203   5.047
 7920SOL    HW125657   9.180  12.290   5.029
 7920SOL    HW225658   9.078  12.189   4.979
 7921SOL     OW25659   7.836   5.511   8.343
 7921SOL    HW125660   7.810   5.499   8.252
 7921SOL    HW225661   7.931   5.510   8.342
 7922SOL     OW25662  11.151   8.149   5.782
 7922SOL    HW125663  11.204   8.145   5.862
 7922SOL    HW225664  11.109   8.235   5.785
 7923SOL     OW25665   4.111   2.702  10.624
 7923SOL    HW125666   4.045   2.724  10.558
 7923SOL    HW225667   4.133   2.786  10.665
 7924NA      NA25668   7.304   8.126   5.398
 7925NA      NA25669   9.217  12.851   2.324
 7926NA      NA25670   5.669  10.653   5.639
 7927NA      NA25671   9.209  10.464   7.251
 7928NA      NA25672   7.558   7.794   8.062
 7929NA      NA25673  10.968  11.187  12.053
 7930NA      NA25674   5.250   7.665  11.696
 7931NA      NA25675  13.094  14.169  12.254
 7932NA      NA25676   5.550   8.960   9.750
 7933NA      NA25677   9.067  11.288   5.200
 7934NA      NA25678  10.447   8.763   6.519
 7935NA      NA25679  11.214  13.652  14.715
 7936NA      NA25680   6.574   6.549   8.697
 7937NA      NA25681   9.445   7.274  10.247
 7938NA      NA25682   3.810   1.798  12.853
 7939NA      NA25683   7.506   7.667   7.045
 7940NA      NA25684   6.631   9.388   7.940
 7941NA      NA25685   8.888   9.627   4.659
 7942NA      NA25686   3.779  10.216  13.851
 7943NA      NA25687   2.317  11.794  12.340
 7944NA      NA25688  10.080  10.304   4.550
 7945NA      NA25689   5.712   7.199   7.696
 7946NA      NA25690   0.028   2.361  11.318
 7947NA      NA25691   6.232   8.678   8.145
 7948NA      NA25692  14.682   3.197   4.731
 7949NA      NA25693   9.244   8.272   6.098
 7950NA      NA25694   6.354  14.452   1.584
 7951NA      NA25695   7.582  10.866   6.283
 7952NA      NA25696   6.917   6.625   7.061
 7953NA      NA25697  13.267   3.882   0.969
 7954NA      NA25698   8.252   8.905   5.532
 7955NA      NA25699   6.278   8.808   6.978
 7956NA      NA25700   6.955  13.974   6.170
 7957NA      NA25701   9.550  10.511   3.520
 7958NA      NA25702   6.496   7.334   6.309
 7959NA      NA25703   8.580   8.660   7.506
 7960NA      NA25704   6.008   6.559   5.843
 7961NA      NA25705   8.584  10.794   6.236
 7962NA      NA25706   8.490  11.673   3.313
 7963NA      NA25707   3.910   8.739   0.741
 7964NA      NA25708   6.631   4.477  12.850
 7965NA      NA25709   1.359  13.894  13.920
 7966NA      NA25710   6.970   5.631   8.771
 7967NA      NA25711   2.955   2.970  13.736
 7968NA      NA25712   7.755   9.942   6.995
 7969NA      NA25713   5.209   6.446   1.196
 7970NA      NA25714   6.936   8.729   0.755
 7971NA      NA25715   8.112   6.210   7.551
 7972NA      NA25716  10.406   9.473   0.965
 7973NA      NA25717   6.644  11.106   4.279
 7974NA      NA25718   7.519  10.330   2.804
 7975NA      NA25719   8.151  10.421   3.818
 7976NA      NA25720  10.373   5.224   1.540
 7977NA      NA25721  10.381  14.359  12.551
 7978NA      NA25722   4.603   6.853   8.829
 7979NA      NA25723   2.242  10.979   8.520
 7980NA      NA25724   8.708   9.604   5.207
 7981NA      NA25725   7.281  10.040   4.187
 7982NA      NA25726   9.517  11.321   1.692
 7983NA      NA25727   7.151   7.713   8.416
 7984NA      NA25728   6.791   6.608   7.631
 7985NA      NA25729   9.580   9.257   2.941
 7986NA      NA25730  11.698   1.390  11.883
 7987NA      NA25731  11.237  10.925   3.176
  14.88739  14.88739  14.88739
